Protein in water t=   0.00000 step= 0
325713
    1DC5    H5T    1  12.610   9.091   6.239
    1DC5    O5'    2  12.658   9.011   6.261
    1DC5    C5'    3  12.701   9.018   6.396
    1DC5   H5'1    4  12.772   9.100   6.406
    1DC5   H5'2    5  12.749   8.927   6.433
    1DC5    C4'    6  12.583   9.060   6.490
    1DC5    H4'    7  12.629   9.095   6.583
    1DC5    O4'    8  12.502   9.161   6.429
    1DC5    C1'    9  12.365   9.117   6.440
    1DC5    H1'   10  12.324   9.139   6.539
    1DC5     N1   11  12.272   9.181   6.342
    1DC5     C6   12  12.235   9.114   6.230
    1DC5     H6   13  12.280   9.019   6.205
    1DC5     C5   14  12.134   9.166   6.159
    1DC5     H5   15  12.111   9.119   6.064
    1DC5     C4   16  12.081   9.288   6.198
    1DC5     N4   17  11.987   9.343   6.123
    1DC5    H41   18  11.950   9.433   6.150
    1DC5    H42   19  11.942   9.285   6.053
    1DC5     N3   20  12.123   9.365   6.292
    1DC5     C2   21  12.225   9.310   6.372
    1DC5     O2   22  12.262   9.371   6.473
    1DC5    C3'   23  12.494   8.936   6.525
    1DC5    H3'   24  12.545   8.841   6.511
    1DC5    C2'   25  12.379   8.959   6.431
    1DC5   H2'1   26  12.404   8.917   6.333
    1DC5   H2'2   27  12.294   8.900   6.465
    1DC5    O3'   28  12.442   8.964   6.654
    2DG       P   29  12.512   8.898   6.782
    2DG     O1P   30  12.657   8.921   6.772
    2DG     O2P   31  12.464   8.759   6.788
    2DG     O5'   32  12.443   8.963   6.911
    2DG     C5'   33  12.487   9.097   6.935
    2DG    H5'1   34  12.540   9.145   6.852
    2DG    H5'2   35  12.551   9.080   7.022
    2DG     C4'   36  12.364   9.179   6.965
    2DG     H4'   37  12.405   9.272   7.004
    2DG     O4'   38  12.296   9.206   6.837
    2DG     C1'   39  12.157   9.177   6.856
    2DG     H1'   40  12.102   9.254   6.910
    2DG      N9   41  12.077   9.147   6.736
    2DG      C8   42  12.071   9.030   6.658
    2DG      H8   43  12.129   8.942   6.683
    2DG      N7   44  12.002   9.040   6.547
    2DG      C5   45  11.956   9.168   6.548
    2DG      C6   46  11.868   9.241   6.461
    2DG      O6   47  11.813   9.191   6.365
    2DG      N1   48  11.844   9.369   6.495
    2DG      H1   49  11.781   9.424   6.438
    2DG      C2   50  11.881   9.422   6.617
    2DG      N2   51  11.850   9.546   6.647
    2DG     H21   52  11.797   9.603   6.583
    2DG     H22   53  11.859   9.578   6.743
    2DG      N3   54  11.955   9.354   6.701
    2DG      C4   55  11.993   9.230   6.665
    2DG     C3'   56  12.258   9.112   7.054
    2DG     H3'   57  12.305   9.043   7.125
    2DG     C2'   58  12.147   9.064   6.960
    2DG    H2'1   59  12.173   8.968   6.914
    2DG    H2'2   60  12.049   9.056   7.006
    2DG     O3'   61  12.206   9.220   7.126
    3DC       P   62  12.165   9.213   7.286
    3DC     O1P   63  12.291   9.243   7.364
    3DC     O2P   64  12.098   9.086   7.311
    3DC     O5'   65  12.063   9.335   7.308
    3DC     C5'   66  12.098   9.465   7.268
    3DC    H5'1   67  12.159   9.464   7.178
    3DC    H5'2   68  12.168   9.498   7.344
    3DC     C4'   69  11.984   9.566   7.246
    3DC     H4'   70  12.034   9.662   7.234
    3DC     O4'   71  11.914   9.538   7.122
    3DC     C1'   72  11.785   9.478   7.142
    3DC     H1'   73  11.710   9.554   7.120
    3DC      N1   74  11.769   9.364   7.050
    3DC      C6   75  11.806   9.237   7.091
    3DC      H6   76  11.873   9.240   7.176
    3DC      C5   77  11.784   9.127   7.015
    3DC      H5   78  11.826   9.029   7.030
    3DC      C4   79  11.711   9.152   6.892
    3DC      N4   80  11.692   9.050   6.813
    3DC     H41   81  11.639   9.065   6.728
    3DC     H42   82  11.722   8.960   6.846
    3DC      N3   83  11.668   9.273   6.858
    3DC      C2   84  11.698   9.384   6.934
    3DC      O2   85  11.644   9.487   6.906
    3DC     C3'   86  11.879   9.557   7.353
    3DC     H3'   87  11.912   9.523   7.452
    3DC     C2'   88  11.776   9.447   7.296
    3DC    H2'1   89  11.808   9.348   7.325
    3DC    H2'2   90  11.672   9.454   7.328
    3DC     O3'   91  11.825   9.693   7.357
    4DA       P   92  11.689   9.726   7.434
    4DA     O1P   93  11.705   9.656   7.567
    4DA     O2P   94  11.669   9.869   7.430
    4DA     O5'   95  11.562   9.662   7.360
    4DA     C5'   96  11.486   9.732   7.261
    4DA    H5'1   97  11.552   9.742   7.175
    4DA    H5'2   98  11.453   9.830   7.297
    4DA     C4'   99  11.361   9.654   7.231
    4DA     H4'  100  11.296   9.730   7.188
    4DA     O4'  101  11.379   9.547   7.134
    4DA     C1'  102  11.310   9.434   7.187
    4DA     H1'  103  11.202   9.451   7.182
    4DA      N9  104  11.352   9.307   7.127
    4DA      C8  105  11.440   9.216   7.174
    4DA      H8  106  11.484   9.230   7.271
    4DA      N7  107  11.463   9.114   7.099
    4DA      C5  108  11.382   9.136   6.988
    4DA      C6  109  11.354   9.064   6.868
    4DA      N6  110  11.396   8.945   6.830
    4DA     H61  111  11.386   8.917   6.733
    4DA     H62  112  11.469   8.901   6.883
    4DA      N1  113  11.288   9.128   6.770
    4DA      C2  114  11.246   9.250   6.790
    4DA      H2  115  11.182   9.292   6.714
    4DA      N3  116  11.248   9.316   6.907
    4DA      C4  117  11.328   9.259   6.998
    4DA     C3'  118  11.293   9.591   7.354
    4DA     H3'  119  11.327   9.643   7.444
    4DA     C2'  120  11.339   9.444   7.342
    4DA    H2'1  121  11.443   9.423   7.363
    4DA    H2'2  122  11.282   9.372   7.402
    4DA     O3'  123  11.158   9.600   7.348
    5DT       P  124  11.072   9.714   7.399
    5DT     O1P  125  11.131   9.850   7.383
    5DT     O2P  126  10.999   9.678   7.525
    5DT     O5'  127  10.948   9.707   7.291
    5DT     C5'  128  10.958   9.717   7.148
    5DT    H5'1  129  11.061   9.730   7.116
    5DT    H5'2  130  10.904   9.808   7.123
    5DT     C4'  131  10.901   9.600   7.065
    5DT     H4'  132  10.895   9.623   6.959
    5DT     O4'  133  10.989   9.484   7.075
    5DT     C1'  134  10.907   9.370   7.043
    5DT     H1'  135  10.884   9.374   6.936
    5DT      N1  136  10.975   9.240   7.083
    5DT      C6  137  11.018   9.210   7.207
    5DT      H6  138  10.999   9.281   7.286
    5DT      C5  139  11.066   9.092   7.239
    5DT      C7  140  11.106   9.067   7.387
    5DT     H71  141  11.109   9.157   7.447
    5DT     H72  142  11.038   8.996   7.435
    5DT     H73  143  11.204   9.021   7.395
    5DT      C4  144  11.095   8.995   7.137
    5DT      O4  145  11.165   8.894   7.152
    5DT      N3  146  11.042   9.023   7.013
    5DT      H3  147  11.064   8.967   6.933
    5DT      C2  148  10.982   9.142   6.980
    5DT      O2  149  10.944   9.164   6.864
    5DT     C3'  150  10.757   9.540   7.100
    5DT     H3'  151  10.729   9.576   7.199
    5DT     C2'  152  10.777   9.389   7.117
    5DT    H2'1  153  10.790   9.355   7.219
    5DT    H2'2  154  10.707   9.322   7.068
    5DT     O3'  155  10.652   9.575   7.009
    6DG       P  156  10.498   9.526   7.024
    6DG     O1P  157  10.408   9.627   6.957
    6DG     O2P  158  10.466   9.496   7.164
    6DG     O5'  159  10.489   9.386   6.941
    6DG     C5'  160  10.549   9.368   6.816
    6DG    H5'1  161  10.657   9.355   6.821
    6DG    H5'2  162  10.527   9.464   6.769
    6DG     C4'  163  10.494   9.245   6.730
    6DG     H4'  164  10.492   9.275   6.626
    6DG     O4'  165  10.578   9.131   6.746
    6DG     C1'  166  10.506   9.033   6.823
    6DG     H1'  167  10.472   8.948   6.763
    6DG      N9  168  10.594   8.982   6.929
    6DG      C8  169  10.625   9.022   7.057
    6DG      H8  170  10.592   9.118   7.096
    6DG      N7  171  10.701   8.943   7.130
    6DG      C5  172  10.713   8.833   7.041
    6DG      C6  173  10.798   8.712   7.049
    6DG      O6  174  10.872   8.676   7.139
    6DG      N1  175  10.777   8.628   6.942
    6DG      H1  176  10.818   8.536   6.949
    6DG      C2  177  10.702   8.659   6.835
    6DG      N2  178  10.684   8.560   6.750
    6DG     H21  179  10.729   8.472   6.771
    6DG     H22  180  10.612   8.567   6.680
    6DG      N3  181  10.628   8.773   6.820
    6DG      C4  182  10.643   8.857   6.923
    6DG     C3'  183  10.354   9.211   6.778
    6DG     H3'  184  10.308   9.304   6.811
    6DG     C2'  185  10.390   9.111   6.886
    6DG    H2'1  186  10.403   9.157   6.984
    6DG    H2'2  187  10.300   9.051   6.901
    6DG     O3'  188  10.276   9.158   6.668
    7DT       P  189  10.128   9.108   6.687
    7DT     O1P  190  10.067   9.106   6.554
    7DT     O2P  191  10.060   9.186   6.794
    7DT     O5'  192  10.138   8.959   6.737
    7DT     C5'  193  10.201   8.864   6.655
    7DT    H5'1  194  10.300   8.893   6.621
    7DT    H5'2  195  10.143   8.857   6.563
    7DT     C4'  196  10.210   8.724   6.706
    7DT     H4'  197  10.238   8.658   6.623
    7DT     O4'  198  10.315   8.720   6.808
    7DT     C1'  199  10.276   8.635   6.907
    7DT     H1'  200  10.283   8.535   6.864
    7DT      N1  201  10.355   8.643   7.039
    7DT      C6  202  10.339   8.750   7.116
    7DT      H6  203  10.274   8.832   7.088
    7DT      C5  204  10.416   8.767   7.232
    7DT      C7  205  10.394   8.891   7.309
    7DT     H71  206  10.330   8.877   7.396
    7DT     H72  207  10.489   8.929   7.345
    7DT     H73  208  10.341   8.971   7.256
    7DT      C4  209  10.523   8.664   7.271
    7DT      O4  210  10.599   8.670   7.369
    7DT      N3  211  10.524   8.557   7.185
    7DT      H3  212  10.587   8.485   7.216
    7DT      C2  213  10.446   8.540   7.074
    7DT      O2  214  10.465   8.437   7.008
    7DT     C3'  215  10.086   8.669   6.771
    7DT     H3'  216  10.006   8.743   6.761
    7DT     C2'  217  10.128   8.652   6.920
    7DT    H2'1  218  10.101   8.741   6.977
    7DT    H2'2  219  10.082   8.566   6.968
    7DT     O3'  220  10.058   8.551   6.693
    8DG       P  221   9.916   8.483   6.724
    8DG     O1P  222   9.897   8.392   6.609
    8DG     O2P  223   9.811   8.588   6.736
    8DG     O5'  224   9.925   8.404   6.861
    8DG     C5'  225   9.958   8.271   6.857
    8DG    H5'1  226  10.049   8.251   6.801
    8DG    H5'2  227   9.881   8.214   6.804
    8DG     C4'  228   9.963   8.205   6.994
    8DG     H4'  229   9.961   8.097   6.978
    8DG     O4'  230  10.079   8.240   7.067
    8DG     C1'  231  10.043   8.281   7.196
    8DG     H1'  232  10.030   8.191   7.255
    8DG      N9  233  10.149   8.348   7.268
    8DG      C8  234  10.150   8.480   7.307
    8DG      H8  235  10.069   8.549   7.290
    8DG      N7  236  10.262   8.515   7.369
    8DG      C5  237  10.332   8.393   7.383
    8DG      C6  238  10.447   8.349   7.463
    8DG      O6  239  10.524   8.426   7.523
    8DG      N1  240  10.470   8.210   7.470
    8DG      H1  241  10.561   8.190   7.509
    8DG      C2  242  10.398   8.129   7.391
    8DG      N2  243  10.461   8.013   7.365
    8DG     H21  244  10.535   7.985   7.427
    8DG     H22  245  10.432   7.955   7.288
    8DG      N3  246  10.288   8.159   7.326
    8DG      C4  247  10.263   8.292   7.323
    8DG     C3'  248   9.842   8.240   7.081
    8DG     H3'  249   9.767   8.291   7.020
    8DG     C2'  250   9.905   8.339   7.186
    8DG    H2'1  251   9.911   8.435   7.135
    8DG    H2'2  252   9.850   8.341   7.280
    8DG     O3'  253   9.799   8.120   7.151
    9DC       P  254   9.694   8.018   7.095
    9DC     O1P  255   9.712   8.009   6.953
    9DC     O2P  256   9.558   8.048   7.154
    9DC     O5'  257   9.750   7.882   7.153
    9DC     C5'  258   9.866   7.809   7.108
    9DC    H5'1  259   9.934   7.879   7.061
    9DC    H5'2  260   9.833   7.739   7.031
    9DC     C4'  261   9.944   7.744   7.223
    9DC     H4'  262  10.000   7.667   7.169
    9DC     O4'  263  10.034   7.833   7.284
    9DC     C1'  264   9.991   7.837   7.428
    9DC     H1'  265  10.043   7.763   7.488
    9DC      N1  266  10.008   7.971   7.490
    9DC      C6  267   9.916   8.075   7.469
    9DC      H6  268   9.841   8.068   7.392
    9DC      C5  269   9.935   8.189   7.539
    9DC      H5  270   9.870   8.272   7.514
    9DC      C4  271  10.053   8.208   7.616
    9DC      N4  272  10.085   8.331   7.660
    9DC     H41  273  10.181   8.342   7.689
    9DC     H42  274  10.033   8.411   7.626
    9DC      N3  275  10.146   8.113   7.626
    9DC      C2  276  10.117   7.993   7.566
    9DC      O2  277  10.193   7.900   7.586
    9DC     C3'  278   9.855   7.676   7.322
    9DC     H3'  279   9.760   7.650   7.274
    9DC     C2'  280   9.844   7.786   7.425
    9DC    H2'1  281   9.769   7.861   7.400
    9DC    H2'2  282   9.812   7.743   7.520
    9DC     O3'  283   9.918   7.563   7.369
   10DG       P  284   9.836   7.425   7.405
   10DG     O1P  285   9.871   7.337   7.295
   10DG     O2P  286   9.693   7.460   7.429
   10DG     O5'  287   9.904   7.365   7.537
   10DG     C5'  288  10.034   7.308   7.524
   10DG    H5'1  289  10.092   7.364   7.452
   10DG    H5'2  290  10.024   7.205   7.488
   10DG     C4'  291  10.109   7.315   7.654
   10DG     H4'  292  10.195   7.250   7.635
   10DG     O4'  293  10.152   7.451   7.683
   10DG     C1'  294  10.104   7.483   7.813
   10DG     H1'  295  10.184   7.463   7.885
   10DG      N9  296  10.061   7.627   7.832
   10DG      C8  297   9.965   7.685   7.757
   10DG      H8  298   9.901   7.630   7.690
   10DG      N7  299   9.949   7.813   7.782
   10DG      C5  300  10.039   7.837   7.888
   10DG      C6  301  10.078   7.965   7.956
   10DG      O6  302  10.032   8.080   7.945
   10DG      N1  303  10.187   7.950   8.037
   10DG      H1  304  10.226   8.030   8.085
   10DG      C2  305  10.238   7.827   8.072
   10DG      N2  306  10.342   7.830   8.152
   10DG     H21  307  10.361   7.922   8.189
   10DG     H22  308  10.379   7.743   8.189
   10DG      N3  309  10.214   7.717   8.011
   10DG      C4  310  10.112   7.725   7.918
   10DG     C3'  311  10.033   7.256   7.779
   10DG     H3'  312   9.933   7.224   7.751
   10DG     C2'  313   9.994   7.389   7.853
   10DG    H2'1  314   9.899   7.427   7.815
   10DG    H2'2  315   9.987   7.379   7.962
   10DG     O3'  316  10.100   7.150   7.844
   11DT       P  317  10.031   7.050   7.949
   11DT     O1P  318  10.108   6.927   7.971
   11DT     O2P  319   9.888   7.039   7.909
   11DT     O5'  320  10.040   7.138   8.081
   11DT     C5'  321  10.174   7.158   8.148
   11DT    H5'1  322  10.247   7.193   8.076
   11DT    H5'2  323  10.197   7.060   8.190
   11DT     C4'  324  10.174   7.263   8.262
   11DT     H4'  325  10.278   7.288   8.283
   11DT     O4'  326  10.117   7.385   8.204
   11DT     C1'  327  10.078   7.472   8.306
   11DT     H1'  328  10.166   7.533   8.329
   11DT      N1  329   9.980   7.581   8.267
   11DT      C6  330   9.879   7.550   8.180
   11DT      H6  331   9.861   7.449   8.148
   11DT      C5  332   9.795   7.636   8.130
   11DT      C7  333   9.706   7.590   8.018
   11DT     H71  334   9.655   7.502   8.056
   11DT     H72  335   9.639   7.673   7.996
   11DT     H73  336   9.762   7.563   7.928
   11DT      C4  337   9.806   7.781   8.161
   11DT      O4  338   9.738   7.872   8.114
   11DT      N3  339   9.910   7.807   8.249
   11DT      H3  340   9.919   7.900   8.285
   11DT      C2  341   9.991   7.713   8.306
   11DT      O2  342  10.079   7.751   8.382
   11DT     C3'  343  10.090   7.239   8.387
   11DT     H3'  344  10.005   7.177   8.361
   11DT     C2'  345  10.043   7.377   8.422
   11DT    H2'1  346   9.935   7.375   8.433
   11DT    H2'2  347  10.092   7.410   8.514
   11DT     O3'  348  10.164   7.181   8.487
   12DA       P  349  10.092   7.115   8.616
   12DA     O1P  350  10.176   7.002   8.643
   12DA     O2P  351   9.943   7.096   8.584
   12DA     O5'  352  10.114   7.221   8.736
   12DA     C5'  353  10.242   7.246   8.783
   12DA    H5'1  354  10.296   7.277   8.694
   12DA    H5'2  355  10.292   7.157   8.822
   12DA     C4'  356  10.257   7.365   8.883
   12DA     H4'  357  10.364   7.380   8.901
   12DA     O4'  358  10.186   7.470   8.816
   12DA     C1'  359  10.069   7.500   8.898
   12DA     H1'  360  10.108   7.582   8.957
   12DA      N9  361   9.958   7.541   8.803
   12DA      C8  362   9.886   7.455   8.726
   12DA      H8  363   9.898   7.348   8.725
   12DA      N7  364   9.810   7.513   8.637
   12DA      C5  365   9.825   7.642   8.667
   12DA      C6  366   9.780   7.761   8.600
   12DA      N6  367   9.690   7.762   8.505
   12DA     H61  368   9.650   7.848   8.469
   12DA     H62  369   9.654   7.677   8.465
   12DA      N1  370   9.804   7.884   8.650
   12DA      C2  371   9.885   7.891   8.761
   12DA      H2  372   9.916   7.989   8.794
   12DA      N3  373   9.943   7.788   8.820
   12DA      C4  374   9.905   7.669   8.771
   12DA     C3'  375  10.189   7.347   9.020
   12DA     H3'  376  10.208   7.245   9.053
   12DA     C2'  377  10.039   7.378   8.987
   12DA    H2'1  378   9.984   7.304   8.928
   12DA    H2'2  379   9.989   7.404   9.080
   12DA     O3'  380  10.247   7.428   9.123
   13DT       P  381  10.204   7.434   9.278
   13DT     O1P  382  10.322   7.489   9.353
   13DT     O2P  383  10.156   7.299   9.307
   13DT     O5'  384  10.093   7.549   9.285
   13DT     C5'  385  10.130   7.683   9.250
   13DT    H5'1  386  10.170   7.683   9.149
   13DT    H5'2  387  10.200   7.723   9.323
   13DT     C4'  388  10.017   7.785   9.256
   13DT     H4'  389  10.064   7.881   9.232
   13DT     O4'  390   9.933   7.754   9.140
   13DT     C1'  391   9.803   7.774   9.180
   13DT     H1'  392   9.776   7.879   9.185
   13DT      N1  393   9.716   7.698   9.090
   13DT      C6  394   9.717   7.562   9.100
   13DT      H6  395   9.781   7.509   9.169
   13DT      C5  396   9.644   7.486   9.014
   13DT      C7  397   9.642   7.334   9.016
   13DT     H71  398   9.540   7.314   9.049
   13DT     H72  399   9.660   7.282   8.922
   13DT     H73  400   9.712   7.293   9.090
   13DT      C4  401   9.563   7.551   8.908
   13DT      O4  402   9.496   7.495   8.825
   13DT      N3  403   9.578   7.690   8.903
   13DT      H3  404   9.508   7.739   8.850
   13DT      C2  405   9.649   7.765   8.994
   13DT      O2  406   9.647   7.886   8.994
   13DT     C3'  407   9.931   7.775   9.382
   13DT     H3'  408   9.976   7.702   9.449
   13DT     C2'  409   9.797   7.725   9.326
   13DT    H2'1  410   9.784   7.618   9.339
   13DT    H2'2  411   9.716   7.781   9.372
   13DT     O3'  412   9.921   7.897   9.450
   14DA       P  413   9.842   7.924   9.591
   14DA     O1P  414   9.941   7.986   9.682
   14DA     O2P  415   9.771   7.806   9.632
   14DA     O5'  416   9.741   8.032   9.537
   14DA     C5'  417   9.768   8.170   9.514
   14DA    H5'1  418   9.837   8.186   9.431
   14DA    H5'2  419   9.813   8.210   9.604
   14DA     C4'  420   9.649   8.257   9.481
   14DA     H4'  421   9.675   8.361   9.461
   14DA     O4'  422   9.586   8.205   9.364
   14DA     C1'  423   9.463   8.143   9.400
   14DA     H1'  424   9.376   8.204   9.375
   14DA      N9  425   9.444   8.002   9.347
   14DA      C8  426   9.489   7.884   9.397
   14DA      H8  427   9.537   7.861   9.491
   14DA      N7  428   9.458   7.782   9.324
   14DA      C5  429   9.370   7.837   9.225
   14DA      C6  430   9.294   7.792   9.114
   14DA      N6  431   9.296   7.662   9.079
   14DA     H61  432   9.240   7.642   8.998
   14DA     H62  433   9.343   7.595   9.138
   14DA      N1  434   9.208   7.869   9.051
   14DA      C2  435   9.203   7.995   9.085
   14DA      H2  436   9.136   8.056   9.026
   14DA      N3  437   9.276   8.057   9.175
   14DA      C4  438   9.356   7.974   9.247
   14DA     C3'  439   9.548   8.263   9.592
   14DA     H3'  440   9.596   8.242   9.687
   14DA     C2'  441   9.461   8.144   9.554
   14DA    H2'1  442   9.503   8.051   9.591
   14DA    H2'2  443   9.358   8.151   9.590
   14DA     O3'  444   9.482   8.390   9.593
   15DT       P  445   9.380   8.442   9.709
   15DT     O1P  446   9.380   8.585   9.701
   15DT     O2P  447   9.426   8.378   9.831
   15DT     O5'  448   9.241   8.382   9.659
   15DT     C5'  449   9.172   8.433   9.548
   15DT    H5'1  450   9.245   8.432   9.467
   15DT    H5'2  451   9.138   8.535   9.566
   15DT     C4'  452   9.047   8.343   9.502
   15DT     H4'  453   8.993   8.382   9.416
   15DT     O4'  454   9.099   8.212   9.456
   15DT     C1'  455   9.016   8.111   9.521
   15DT     H1'  456   8.918   8.124   9.476
   15DT      N1  457   9.068   7.970   9.500
   15DT      C6  458   9.166   7.923   9.581
   15DT      H6  459   9.213   7.992   9.650
   15DT      C5  460   9.201   7.790   9.578
   15DT      C7  461   9.305   7.732   9.672
   15DT     H71  462   9.370   7.804   9.722
   15DT     H72  463   9.249   7.664   9.735
   15DT     H73  464   9.375   7.674   9.611
   15DT      C4  465   9.140   7.707   9.477
   15DT      O4  466   9.159   7.587   9.462
   15DT      N3  467   9.052   7.764   9.390
   15DT      H3  468   9.031   7.713   9.306
   15DT      C2  469   9.004   7.890   9.402
   15DT      O2  470   8.907   7.928   9.340
   15DT     C3'  471   8.957   8.310   9.624
   15DT     H3'  472   8.976   8.385   9.701
   15DT     C2'  473   8.996   8.161   9.663
   15DT    H2'1  474   9.084   8.138   9.722
   15DT    H2'2  475   8.911   8.115   9.714
   15DT     O3'  476   8.826   8.318   9.584
   16DA       P  477   8.743   8.455   9.613
   16DA     O1P  478   8.810   8.572   9.551
   16DA     O2P  479   8.711   8.463   9.755
   16DA     O5'  480   8.608   8.437   9.531
   16DA     C5'  481   8.609   8.441   9.387
   16DA    H5'1  482   8.706   8.401   9.358
   16DA    H5'2  483   8.608   8.544   9.352
   16DA     C4'  484   8.513   8.357   9.295
   16DA     H4'  485   8.518   8.397   9.194
   16DA     O4'  486   8.556   8.215   9.298
   16DA     C1'  487   8.460   8.148   9.368
   16DA     H1'  488   8.397   8.083   9.308
   16DA      N9  489   8.526   8.060   9.466
   16DA      C8  490   8.610   8.095   9.573
   16DA      H8  491   8.625   8.198   9.602
   16DA      N7  492   8.678   7.999   9.632
   16DA      C5  493   8.643   7.894   9.542
   16DA      C6  494   8.679   7.758   9.533
   16DA      N6  495   8.765   7.701   9.611
   16DA     H61  496   8.769   7.600   9.614
   16DA     H62  497   8.797   7.758   9.688
   16DA      N1  498   8.635   7.678   9.436
   16DA      C2  499   8.552   7.730   9.343
   16DA      H2  500   8.498   7.664   9.277
   16DA      N3  501   8.513   7.857   9.333
   16DA      C4  502   8.559   7.933   9.438
   16DA     C3'  503   8.372   8.376   9.353
   16DA     H3'  504   8.361   8.457   9.425
   16DA     C2'  505   8.369   8.253   9.439
   16DA    H2'1  506   8.403   8.279   9.539
   16DA    H2'2  507   8.267   8.218   9.454
   16DA     O3'  508   8.277   8.394   9.255
   17DC       P  509   8.128   8.430   9.300
   17DC     O1P  510   8.059   8.473   9.177
   17DC     O2P  511   8.128   8.522   9.414
   17DC     O5'  512   8.068   8.290   9.342
   17DC     C5'  513   8.065   8.175   9.256
   17DC    H5'1  514   8.166   8.174   9.216
   17DC    H5'2  515   8.000   8.183   9.168
   17DC     C4'  516   8.029   8.046   9.332
   17DC     H4'  517   7.993   7.974   9.257
   17DC     O4'  518   8.145   7.987   9.393
   17DC     C1'  519   8.094   7.925   9.511
   17DC     H1'  520   8.037   7.834   9.488
   17DC      N1  521   8.215   7.885   9.588
   17DC      C6  522   8.264   7.960   9.689
   17DC      H6  523   8.232   8.063   9.699
   17DC      C5  524   8.350   7.907   9.771
   17DC      H5  525   8.393   7.958   9.856
   17DC      C4  526   8.402   7.777   9.743
   17DC      N4  527   8.501   7.718   9.812
   17DC     H41  528   8.533   7.625   9.794
   17DC     H42  529   8.542   7.781   9.880
   17DC      N3  530   8.362   7.704   9.640
   17DC      C2  531   8.269   7.758   9.560
   17DC      O2  532   8.230   7.690   9.467
   17DC     C3'  533   7.913   8.054   9.444
   17DC     H3'  534   7.868   8.153   9.448
   17DC     C2'  535   8.002   8.029   9.571
   17DC    H2'1  536   8.059   8.121   9.588
   17DC    H2'2  537   7.943   7.995   9.656
   17DC     O3'  538   7.821   7.939   9.446
   18DA       P  539   7.686   7.944   9.358
   18DA     O1P  540   7.707   7.997   9.223
   18DA     O2P  541   7.583   8.005   9.451
   18DA     O5'  542   7.651   7.789   9.347
   18DA     C5'  543   7.722   7.711   9.251
   18DA    H5'1  544   7.814   7.757   9.217
   18DA    H5'2  545   7.645   7.701   9.174
   18DA     C4'  546   7.768   7.577   9.309
   18DA     H4'  547   7.807   7.516   9.227
   18DA     O4'  548   7.880   7.599   9.403
   18DA     C1'  549   7.840   7.545   9.522
   18DA     H1'  550   7.878   7.443   9.511
   18DA      N9  551   7.902   7.598   9.640
   18DA      C8  552   7.882   7.719   9.704
   18DA      H8  553   7.800   7.786   9.678
   18DA      N7  554   7.968   7.743   9.796
   18DA      C5  555   8.057   7.635   9.791
   18DA      C6  556   8.162   7.593   9.874
   18DA      N6  557   8.216   7.659   9.973
   18DA     H61  558   8.302   7.614  10.003
   18DA     H62  559   8.181   7.744  10.013
   18DA      N1  560   8.227   7.478   9.848
   18DA      C2  561   8.185   7.404   9.746
   18DA      H2  562   8.237   7.310   9.732
   18DA      N3  563   8.086   7.425   9.663
   18DA      C4  564   8.018   7.542   9.699
   18DA     C3'  565   7.654   7.503   9.382
   18DA     H3'  566   7.561   7.546   9.346
   18DA     C2'  567   7.688   7.529   9.528
   18DA    H2'1  568   7.631   7.616   9.564
   18DA    H2'2  569   7.656   7.453   9.600
   18DA     O3'  570   7.649   7.359   9.352
   19DT       P  571   7.546   7.259   9.426
   19DT     O1P  572   7.486   7.163   9.330
   19DT     O2P  573   7.458   7.348   9.506
   19DT     O5'  574   7.655   7.188   9.519
   19DT     C5'  575   7.758   7.116   9.465
   19DT    H5'1  576   7.819   7.191   9.415
   19DT    H5'2  577   7.726   7.047   9.387
   19DT     C4'  578   7.841   7.044   9.573
   19DT     H4'  579   7.906   6.976   9.518
   19DT     O4'  580   7.919   7.127   9.662
   19DT     C1'  581   7.872   7.103   9.797
   19DT     H1'  582   7.937   7.030   9.846
   19DT      N1  583   7.876   7.226   9.882
   19DT      C6  584   7.789   7.333   9.873
   19DT      H6  585   7.707   7.334   9.802
   19DT      C5  586   7.795   7.434   9.958
   19DT      C7  587   7.694   7.544   9.950
   19DT     H71  588   7.675   7.564   9.844
   19DT     H72  589   7.606   7.530  10.011
   19DT     H73  590   7.734   7.640   9.983
   19DT      C4  591   7.899   7.445  10.062
   19DT      O4  592   7.920   7.541  10.136
   19DT      N3  593   7.988   7.340  10.055
   19DT      H3  594   8.073   7.353  10.108
   19DT      C2  595   7.980   7.230   9.974
   19DT      O2  596   8.065   7.139   9.988
   19DT     C3'  597   7.756   6.950   9.658
   19DT     H3'  598   7.668   6.907   9.611
   19DT     C2'  599   7.735   7.036   9.784
   19DT    H2'1  600   7.664   7.114   9.758
   19DT    H2'2  601   7.714   6.979   9.874
   19DT     O3'  602   7.838   6.840   9.698
   20DT       P  603   7.785   6.685   9.705
   20DT     O1P  604   7.825   6.627   9.577
   20DT     O2P  605   7.645   6.675   9.748
   20DT     O5'  606   7.884   6.625   9.811
   20DT     C5'  607   7.843   6.576   9.936
   20DT    H5'1  608   7.818   6.471   9.919
   20DT    H5'2  609   7.747   6.620   9.965
   20DT     C4'  610   7.948   6.599  10.051
   20DT     H4'  611   8.044   6.563  10.014
   20DT     O4'  612   7.964   6.741  10.078
   20DT     C1'  613   7.935   6.754  10.219
   20DT     H1'  614   8.030   6.751  10.272
   20DT      N1  615   7.877   6.892  10.234
   20DT      C6  616   7.761   6.924  10.166
   20DT      H6  617   7.697   6.849  10.122
   20DT      C5  618   7.706   7.049  10.177
   20DT      C7  619   7.572   7.088  10.113
   20DT     H71  620   7.523   7.002  10.067
   20DT     H72  621   7.512   7.143  10.185
   20DT     H73  622   7.591   7.153  10.027
   20DT      C4  623   7.772   7.149  10.255
   20DT      O4  624   7.736   7.270  10.280
   20DT      N3  625   7.889   7.114  10.307
   20DT      H3  626   7.943   7.192  10.341
   20DT      C2  627   7.945   6.988  10.307
   20DT      O2  628   8.051   6.983  10.373
   20DT     C3'  629   7.895   6.527  10.178
   20DT     H3'  630   7.813   6.462  10.147
   20DT     C2'  631   7.838   6.644  10.255
   20DT    H2'1  632   7.741   6.661  10.208
   20DT    H2'2  633   7.829   6.620  10.361
   20DT     O3'  634   7.994   6.463  10.255
   21DG       P  635   7.946   6.358  10.363
   21DG     O1P  636   8.057   6.256  10.370
   21DG     O2P  637   7.802   6.317  10.340
   21DG     O5'  638   7.940   6.441  10.510
   21DG     C5'  639   8.049   6.510  10.564
   21DG    H5'1  640   8.110   6.553  10.484
   21DG    H5'2  641   8.099   6.436  10.625
   21DG     C4'  642   8.015   6.635  10.649
   21DG     H4'  643   8.106   6.673  10.696
   21DG     O4'  644   7.950   6.739  10.578
   21DG     C1'  645   7.869   6.799  10.678
   21DG     H1'  646   7.931   6.844  10.756
   21DG      N9  647   7.776   6.899  10.623
   21DG      C8  648   7.683   6.907  10.519
   21DG      H8  649   7.659   6.820  10.459
   21DG      N7  650   7.630   7.023  10.495
   21DG      C5  651   7.681   7.094  10.602
   21DG      C6  652   7.654   7.230  10.636
   21DG      O6  653   7.596   7.314  10.564
   21DG      N1  654   7.721   7.279  10.751
   21DG      H1  655   7.697   7.376  10.771
   21DG      C2  656   7.814   7.210  10.816
   21DG      N2  657   7.887   7.284  10.903
   21DG     H21  658   7.867   7.382  10.914
   21DG     H22  659   7.967   7.243  10.949
   21DG      N3  660   7.841   7.083  10.786
   21DG      C4  661   7.765   7.024  10.682
   21DG     C3'  662   7.914   6.595  10.765
   21DG     H3'  663   7.889   6.490  10.772
   21DG     C2'  664   7.786   6.679  10.735
   21DG    H2'1  665   7.716   6.632  10.666
   21DG    H2'2  666   7.737   6.702  10.829
   21DG     O3'  667   7.955   6.635  10.899
   22DT       P  668   8.017   6.527  11.000
   22DT     O1P  669   8.150   6.491  10.955
   22DT     O2P  670   7.918   6.418  11.014
   22DT     O5'  671   8.025   6.593  11.153
   22DT     C5'  672   8.105   6.702  11.177
   22DT    H5'1  673   8.149   6.734  11.082
   22DT    H5'2  674   8.190   6.685  11.244
   22DT     C4'  675   8.028   6.812  11.251
   22DT     H4'  676   8.094   6.886  11.296
   22DT     O4'  677   7.939   6.880  11.157
   22DT     C1'  678   7.817   6.907  11.220
   22DT     H1'  679   7.830   6.986  11.294
   22DT      N1  680   7.715   6.952  11.120
   22DT      C6  681   7.646   6.861  11.037
   22DT      H6  682   7.664   6.755  11.048
   22DT      C5  683   7.549   6.906  10.952
   22DT      C7  684   7.466   6.813  10.864
   22DT     H71  685   7.470   6.711  10.900
   22DT     H72  686   7.359   6.833  10.870
   22DT     H73  687   7.502   6.812  10.761
   22DT      C4  688   7.524   7.049  10.943
   22DT      O4  689   7.433   7.102  10.879
   22DT      N3  690   7.594   7.130  11.022
   22DT      H3  691   7.580   7.230  11.022
   22DT      C2  692   7.688   7.089  11.113
   22DT      O2  693   7.736   7.169  11.189
   22DT     C3'  694   7.936   6.756  11.359
   22DT     H3'  695   7.958   6.651  11.371
   22DT     C2'  696   7.797   6.778  11.294
   22DT    H2'1  697   7.783   6.695  11.225
   22DT    H2'2  698   7.715   6.785  11.365
   22DT     O3'  699   7.943   6.830  11.479
   23DA       P  700   8.017   6.768  11.610
   23DA     O1P  701   8.161   6.759  11.578
   23DA     O2P  702   7.945   6.644  11.667
   23DA     O5'  703   7.994   6.888  11.719
   23DA     C5'  704   8.074   7.003  11.725
   23DA    H5'1  705   8.134   7.019  11.636
   23DA    H5'2  706   8.140   6.977  11.808
   23DA     C4'  707   8.012   7.138  11.766
   23DA     H4'  708   8.082   7.222  11.769
   23DA     O4'  709   7.921   7.188  11.671
   23DA     C1'  710   7.793   7.178  11.727
   23DA     H1'  711   7.762   7.276  11.762
   23DA      N9  712   7.700   7.124  11.627
   23DA      C8  713   7.677   6.991  11.584
   23DA      H8  714   7.730   6.908  11.628
   23DA      N7  715   7.593   6.973  11.483
   23DA      C5  716   7.555   7.105  11.465
   23DA      C6  717   7.457   7.169  11.368
   23DA      N6  718   7.391   7.101  11.288
   23DA     H61  719   7.317   7.144  11.235
   23DA     H62  720   7.399   7.000  11.293
   23DA      N1  721   7.429   7.299  11.376
   23DA      C2  722   7.487   7.368  11.473
   23DA      H2  723   7.463   7.473  11.479
   23DA      N3  724   7.582   7.332  11.567
   23DA      C4  725   7.612   7.196  11.553
   23DA     C3'  726   7.945   7.126  11.902
   23DA     H3'  727   7.985   7.039  11.955
   23DA     C2'  728   7.804   7.094  11.858
   23DA    H2'1  729   7.787   6.989  11.838
   23DA    H2'2  730   7.725   7.130  11.924
   23DA     O3'  731   7.967   7.235  11.996
   24DC       P  732   7.910   7.238  12.143
   24DC     O1P  733   7.969   7.356  12.217
   24DC     O2P  734   7.915   7.103  12.193
   24DC     O5'  735   7.759   7.272  12.126
   24DC     C5'  736   7.721   7.394  12.070
   24DC    H5'1  737   7.774   7.415  11.977
   24DC    H5'2  738   7.753   7.471  12.141
   24DC     C4'  739   7.573   7.411  12.052
   24DC     H4'  740   7.543   7.515  12.038
   24DC     O4'  741   7.541   7.352  11.927
   24DC     C1'  742   7.423   7.276  11.951
   24DC     H1'  743   7.338   7.343  11.963
   24DC      N1  744   7.382   7.181  11.845
   24DC      C6  745   7.421   7.051  11.846
   24DC      H6  746   7.491   7.013  11.919
   24DC      C5  747   7.379   6.958  11.754
   24DC      H5  748   7.415   6.856  11.752
   24DC      C4  749   7.299   7.009  11.650
   24DC      N4  750   7.257   6.927  11.557
   24DC     H41  751   7.185   6.961  11.496
   24DC     H42  752   7.284   6.830  11.565
   24DC      N3  753   7.260   7.135  11.644
   24DC      C2  754   7.303   7.226  11.737
   24DC      O2  755   7.266   7.341  11.726
   24DC     C3'  756   7.494   7.349  12.169
   24DC     H3'  757   7.558   7.326  12.254
   24DC     C2'  758   7.454   7.213  12.084
   24DC    H2'1  759   7.544   7.153  12.069
   24DC    H2'2  760   7.372   7.159  12.132
   24DC     O3'  761   7.369   7.414  12.207
   25DG       P  762   7.314   7.399  12.360
   25DG     O1P  763   7.397   7.487  12.445
   25DG     O2P  764   7.301   7.254  12.395
   25DG     O5'  765   7.174   7.465  12.342
   25DG     C5'  766   7.169   7.603  12.306
   25DG    H5'1  767   7.256   7.632  12.246
   25DG    H5'2  768   7.169   7.658  12.400
   25DG     C4'  769   7.046   7.638  12.223
   25DG     H4'  770   7.046   7.745  12.202
   25DG     O4'  771   7.054   7.569  12.097
   25DG     C1'  772   6.949   7.474  12.083
   25DG     H1'  773   6.882   7.525  12.014
   25DG      N9  774   6.992   7.350  12.020
   25DG      C8  775   7.099   7.265  12.054
   25DG      H8  776   7.164   7.285  12.138
   25DG      N7  777   7.096   7.158  11.987
   25DG      C5  778   6.994   7.170  11.893
   25DG      C6  779   6.948   7.074  11.800
   25DG      O6  780   6.994   6.960  11.778
   25DG      N1  781   6.849   7.132  11.720
   25DG      H1  782   6.806   7.076  11.648
   25DG      C2  783   6.784   7.248  11.748
   25DG      N2  784   6.671   7.259  11.671
   25DG     H21  785   6.655   7.197  11.592
   25DG     H22  786   6.623   7.347  11.682
   25DG      N3  787   6.823   7.335  11.837
   25DG      C4  788   6.931   7.290  11.913
   25DG     C3'  789   6.910   7.598  12.285
   25DG     H3'  790   6.924   7.578  12.391
   25DG     C2'  791   6.876   7.461  12.216
   25DG    H2'1  792   6.923   7.381  12.274
   25DG    H2'2  793   6.769   7.453  12.201
   25DG     O3'  794   6.812   7.701  12.263
   26DC       P  795   6.694   7.732  12.370
   26DC     O1P  796   6.670   7.875  12.384
   26DC     O2P  797   6.720   7.657  12.496
   26DC     O5'  798   6.554   7.667  12.309
   26DC     C5'  799   6.496   7.724  12.193
   26DC    H5'1  800   6.578   7.750  12.127
   26DC    H5'2  801   6.449   7.816  12.228
   26DC     C4'  802   6.394   7.640  12.118
   26DC     H4'  803   6.358   7.696  12.031
   26DC     O4'  804   6.450   7.517  12.075
   26DC     C1'  805   6.360   7.414  12.097
   26DC     H1'  806   6.291   7.408  12.012
   26DC      N1  807   6.444   7.292  12.101
   26DC      C6  808   6.545   7.282  12.198
   26DC      H6  809   6.554   7.355  12.277
   26DC      C5  810   6.645   7.189  12.187
   26DC      H5  811   6.729   7.186  12.255
   26DC      C4  812   6.639   7.106  12.073
   26DC      N4  813   6.732   7.021  12.047
   26DC     H41  814   6.722   6.950  11.976
   26DC     H42  815   6.791   7.013  12.128
   26DC      N3  816   6.543   7.107  11.988
   26DC      C2  817   6.449   7.206  11.990
   26DC      O2  818   6.374   7.226  11.893
   26DC     C3'  819   6.284   7.610  12.221
   26DC     H3'  820   6.304   7.672  12.309
   26DC     C2'  821   6.295   7.464  12.234
   26DC    H2'1  822   6.363   7.450  12.318
   26DC    H2'2  823   6.196   7.423  12.256
   26DC     O3'  824   6.165   7.650  12.157
   27DA       P  825   6.022   7.642  12.225
   27DA     O1P  826   5.941   7.751  12.168
   27DA     O2P  827   6.045   7.646  12.371
   27DA     O5'  828   5.963   7.499  12.176
   27DA     C5'  829   5.928   7.478  12.036
   27DA    H5'1  830   6.025   7.497  11.990
   27DA    H5'2  831   5.850   7.547  12.006
   27DA     C4'  832   5.891   7.332  11.990
   27DA     H4'  833   5.851   7.335  11.888
   27DA     O4'  834   6.006   7.245  11.999
   27DA     C1'  835   5.982   7.148  12.104
   27DA     H1'  836   5.950   7.056  12.055
   27DA      N9  837   6.107   7.110  12.172
   27DA      C8  838   6.153   7.160  12.293
   27DA      H8  839   6.106   7.243  12.344
   27DA      N7  840   6.273   7.112  12.327
   27DA      C5  841   6.295   7.019  12.229
   27DA      C6  842   6.394   6.917  12.208
   27DA      N6  843   6.493   6.888  12.281
   27DA     H61  844   6.559   6.816  12.255
   27DA     H62  845   6.520   6.955  12.352
   27DA      N1  846   6.386   6.842  12.103
   27DA      C2  847   6.288   6.856  12.016
   27DA      H2  848   6.281   6.788  11.932
   27DA      N3  849   6.188   6.941  12.021
   27DA      C4  850   6.199   7.022  12.127
   27DA     C3'  851   5.788   7.255  12.078
   27DA     H3'  852   5.712   7.321  12.120
   27DA     C2'  853   5.862   7.195  12.193
   27DA    H2'1  854   5.884   7.269  12.269
   27DA    H2'2  855   5.790   7.119  12.224
   27DA     O3'  856   5.730   7.151  11.996
   28DT       P  857   5.574   7.130  11.995
   28DT     O1P  858   5.532   7.197  11.870
   28DT     O2P  859   5.517   7.164  12.124
   28DT     O5'  860   5.539   6.970  11.973
   28DT     C5'  861   5.577   6.901  11.849
   28DT    H5'1  862   5.641   6.961  11.784
   28DT    H5'2  863   5.490   6.883  11.787
   28DT     C4'  864   5.634   6.766  11.877
   28DT     H4'  865   5.649   6.711  11.783
   28DT     O4'  866   5.765   6.781  11.943
   28DT     C1'  867   5.781   6.693  12.043
   28DT     H1'  868   5.814   6.596  12.006
   28DT      N1  869   5.890   6.733  12.150
   28DT      C6  870   5.862   6.816  12.255
   28DT      H6  871   5.772   6.876  12.253
   28DT      C5  872   5.958   6.846  12.344
   28DT      C7  873   5.923   6.953  12.449
   28DT     H71  874   5.816   6.975  12.440
   28DT     H72  875   5.948   6.908  12.545
   28DT     H73  876   5.980   7.044  12.427
   28DT      C4  877   6.083   6.765  12.350
   28DT      O4  878   6.171   6.775  12.436
   28DT      N3  879   6.097   6.689  12.236
   28DT      H3  880   6.184   6.641  12.223
   28DT      C2  881   6.011   6.671  12.132
   28DT      O2  882   6.040   6.605  12.027
   28DT     C3'  883   5.554   6.678  11.966
   28DT     H3'  884   5.458   6.721  11.991
   28DT     C2'  885   5.642   6.663  12.097
   28DT    H2'1  886   5.608   6.740  12.166
   28DT    H2'2  887   5.635   6.570  12.152
   28DT     O3'  888   5.536   6.553  11.902
   29DA       P  889   5.447   6.435  11.956
   29DA     O1P  890   5.371   6.384  11.841
   29DA     O2P  891   5.381   6.467  12.080
   29DA     O5'  892   5.550   6.328  11.988
   29DA     C5'  893   5.645   6.283  11.893
   29DA    H5'1  894   5.698   6.375  11.865
   29DA    H5'2  895   5.601   6.240  11.803
   29DA     C4'  896   5.748   6.183  11.944
   29DA     H4'  897   5.804   6.145  11.859
   29DA     O4'  898   5.847   6.251  12.027
   29DA     C1'  899   5.862   6.168  12.145
   29DA     H1'  900   5.946   6.100  12.134
   29DA      N9  901   5.885   6.259  12.263
   29DA      C8  902   5.809   6.371  12.301
   29DA      H8  903   5.711   6.403  12.267
   29DA      N7  904   5.867   6.454  12.387
   29DA      C5  905   5.977   6.372  12.424
   29DA      C6  906   6.082   6.382  12.520
   29DA      N6  907   6.103   6.488  12.598
   29DA     H61  908   6.185   6.485  12.658
   29DA     H62  909   6.052   6.574  12.588
   29DA      N1  910   6.159   6.281  12.550
   29DA      C2  911   6.151   6.169  12.486
   29DA      H2  912   6.224   6.095  12.515
   29DA      N3  913   6.067   6.145  12.383
   29DA      C4  914   5.982   6.248  12.359
   29DA     C3'  915   5.690   6.064  12.018
   29DA     H3'  916   5.582   6.069  12.021
   29DA     C2'  917   5.737   6.082  12.159
   29DA    H2'1  918   5.664   6.136  12.219
   29DA    H2'2  919   5.762   5.985  12.202
   29DA     O3'  920   5.733   5.942  11.955
   30DT       P  921   5.666   5.798  11.986
   30DT     O1P  922   5.717   5.708  11.884
   30DT     O2P  923   5.528   5.816  12.009
   30DT     O5'  924   5.736   5.758  12.124
   30DT     C5'  925   5.883   5.743  12.127
   30DT    H5'1  926   5.918   5.840  12.092
   30DT    H5'2  927   5.912   5.662  12.059
   30DT     C4'  928   5.939   5.717  12.266
   30DT     H4'  929   6.037   5.669  12.258
   30DT     O4'  930   5.945   5.833  12.350
   30DT     C1'  931   5.889   5.792  12.477
   30DT     H1'  932   5.963   5.736  12.535
   30DT      N1  933   5.853   5.916  12.557
   30DT      C6  934   5.743   5.988  12.530
   30DT      H6  935   5.671   5.954  12.458
   30DT      C5  936   5.722   6.114  12.582
   30DT      C7  937   5.602   6.190  12.549
   30DT     H71  938   5.624   6.292  12.517
   30DT     H72  939   5.555   6.137  12.466
   30DT     H73  940   5.538   6.194  12.637
   30DT      C4  941   5.818   6.162  12.685
   30DT      O4  942   5.813   6.274  12.733
   30DT      N3  943   5.911   6.071  12.722
   30DT      H3  944   5.979   6.106  12.788
   30DT      C2  945   5.944   5.958  12.656
   30DT      O2  946   6.042   5.894  12.682
   30DT     C3'  947   5.844   5.611  12.342
   30DT     H3'  948   5.765   5.572  12.279
   30DT     C2'  949   5.773   5.704  12.444
   30DT    H2'1  950   5.694   5.759  12.393
   30DT    H2'2  951   5.731   5.642  12.523
   30DT     O3'  952   5.920   5.507  12.398
   31DG       P  953   5.904   5.353  12.372
   31DG     O1P  954   5.927   5.320  12.233
   31DG     O2P  955   5.780   5.312  12.437
   31DG     O5'  956   6.020   5.283  12.451
   31DG     C5'  957   6.161   5.325  12.447
   31DG    H5'1  958   6.172   5.418  12.390
   31DG    H5'2  959   6.213   5.240  12.403
   31DG     C4'  960   6.228   5.347  12.582
   31DG     H4'  961   6.334   5.357  12.558
   31DG     O4'  962   6.173   5.465  12.637
   31DG     C1'  963   6.117   5.443  12.771
   31DG     H1'  964   6.199   5.456  12.842
   31DG      N9  965   6.001   5.534  12.793
   31DG      C8  966   5.878   5.534  12.739
   31DG      H8  967   5.853   5.465  12.660
   31DG      N7  968   5.798   5.629  12.770
   31DG      C5  969   5.875   5.698  12.866
   31DG      C6  970   5.844   5.810  12.952
   31DG      O6  971   5.749   5.886  12.940
   31DG      N1  972   5.938   5.838  13.047
   31DG      H1  973   5.942   5.930  13.090
   31DG      C2  974   6.058   5.772  13.049
   31DG      N2  975   6.136   5.814  13.145
   31DG     H21  976   6.095   5.872  13.217
   31DG     H22  977   6.210   5.747  13.160
   31DG      N3  978   6.096   5.667  12.974
   31DG      C4  979   5.998   5.634  12.885
   31DG     C3'  980   6.204   5.237  12.689
   31DG     H3'  981   6.173   5.144  12.642
   31DG     C2'  982   6.091   5.296  12.777
   31DG    H2'1  983   5.993   5.282  12.733
   31DG    H2'2  984   6.103   5.266  12.882
   31DG     O3'  985   6.333   5.216  12.756
   32DC3      P  986   6.366   5.088  12.855
   32DC3    O1P  987   6.513   5.083  12.862
   32DC3    O2P  988   6.288   4.971  12.810
   32DC3    O5'  989   6.313   5.138  12.997
   32DC3    C5'  990   6.380   5.258  13.055
   32DC3   H5'1  991   6.369   5.334  12.978
   32DC3   H5'2  992   6.486   5.242  13.074
   32DC3    C4'  993   6.304   5.331  13.169
   32DC3    H4'  994   6.356   5.424  13.196
   32DC3    O4'  995   6.175   5.366  13.121
   32DC3    C1'  996   6.089   5.374  13.236
   32DC3    H1'  997   6.122   5.454  13.303
   32DC3     N1  998   5.952   5.404  13.199
   32DC3     C6  999   5.896   5.329  13.097
   32DC3     H6 1000   5.954   5.248  13.055
   32DC3     C5 1001   5.781   5.365  13.038
   32DC3     H5 1002   5.733   5.308  12.960
   32DC3     C4 1003   5.713   5.472  13.095
   32DC3     N4 1004   5.586   5.494  13.064
   32DC3    H41 1005   5.550   5.584  13.091
   32DC3    H42 1006   5.547   5.439  12.989
   32DC3     N3 1007   5.758   5.550  13.187
   32DC3     C2 1008   5.877   5.514  13.245
   32DC3     O2 1009   5.910   5.585  13.338
   32DC3    C3' 1010   6.276   5.243  13.292
   32DC3    H3' 1011   6.323   5.145  13.290
   32DC3    C2' 1012   6.123   5.237  13.295
   32DC3   H2'1 1013   6.084   5.151  13.243
   32DC3   H2'2 1014   6.089   5.236  13.399
   32DC3    O3' 1015   6.322   5.304  13.413
   32DC3    H3T 1016   6.268   5.284  13.489
   33DG5    H5T 1017   5.262   6.520  13.709
   33DG5    O5' 1018   5.325   6.465  13.662
   33DG5    C5' 1019   5.439   6.429  13.737
   33DG5   H5'1 1020   5.401   6.345  13.795
   33DG5   H5'2 1021   5.476   6.514  13.796
   33DG5    C4' 1022   5.554   6.392  13.644
   33DG5    H4' 1023   5.651   6.390  13.693
   33DG5    O4' 1024   5.535   6.261  13.579
   33DG5    C1' 1025   5.558   6.283  13.445
   33DG5    H1' 1026   5.667   6.287  13.432
   33DG5     N9 1027   5.504   6.172  13.366
   33DG5     C8 1028   5.387   6.160  13.293
   33DG5     H8 1029   5.312   6.237  13.284
   33DG5     N7 1030   5.379   6.055  13.224
   33DG5     C5 1031   5.500   5.985  13.255
   33DG5     C6 1032   5.546   5.856  13.215
   33DG5     O6 1033   5.488   5.775  13.143
   33DG5     N1 1034   5.671   5.821  13.266
   33DG5     H1 1035   5.698   5.727  13.242
   33DG5     C2 1036   5.745   5.908  13.343
   33DG5     N2 1037   5.869   5.866  13.364
   33DG5    H21 1038   5.892   5.769  13.344
   33DG5    H22 1039   5.929   5.927  13.417
   33DG5     N3 1040   5.700   6.024  13.394
   33DG5     C4 1041   5.580   6.060  13.339
   33DG5    C3' 1042   5.565   6.503  13.538
   33DG5    H3' 1043   5.509   6.596  13.554
   33DG5    C2' 1044   5.509   6.428  13.420
   33DG5   H2'1 1045   5.400   6.426  13.420
   33DG5   H2'2 1046   5.539   6.460  13.320
   33DG5    O3' 1047   5.703   6.524  13.516
   34DC       P 1048   5.781   6.650  13.585
   34DC     O1P 1049   5.727   6.666  13.721
   34DC     O2P 1050   5.779   6.761  13.489
   34DC     O5' 1051   5.932   6.608  13.595
   34DC     C5' 1052   5.983   6.526  13.696
   34DC    H5'1 1053   5.901   6.485  13.755
   34DC    H5'2 1054   6.046   6.593  13.754
   34DC     C4' 1055   6.068   6.414  13.652
   34DC     H4' 1056   6.110   6.362  13.737
   34DC     O4' 1057   5.995   6.330  13.569
   34DC     C1' 1058   6.075   6.280  13.466
   34DC     H1' 1059   6.120   6.188  13.504
   34DC      N1 1060   5.994   6.262  13.341
   34DC      C6 1061   5.906   6.354  13.294
   34DC      H6 1062   5.901   6.444  13.354
   34DC      C5 1063   5.841   6.340  13.176
   34DC      H5 1064   5.780   6.420  13.137
   34DC      C4 1065   5.851   6.211  13.112
   34DC      N4 1066   5.784   6.197  13.002
   34DC     H41 1067   5.771   6.106  12.958
   34DC     H42 1068   5.762   6.277  12.946
   34DC      N3 1069   5.921   6.118  13.164
   34DC      C2 1070   5.992   6.137  13.276
   34DC      O2 1071   6.066   6.044  13.318
   34DC     C3' 1072   6.185   6.468  13.565
   34DC     H3' 1073   6.174   6.569  13.526
   34DC     C2' 1074   6.187   6.377  13.447
   34DC    H2'1 1075   6.159   6.441  13.362
   34DC    H2'2 1076   6.277   6.319  13.426
   34DC     O3' 1077   6.302   6.465  13.639
   35DA       P 1078   6.452   6.522  13.592
   35DA     O1P 1079   6.544   6.529  13.711
   35DA     O2P 1080   6.427   6.645  13.514
   35DA     O5' 1081   6.509   6.414  13.494
   35DA     C5' 1082   6.538   6.288  13.543
   35DA    H5'1 1083   6.461   6.237  13.601
   35DA    H5'2 1084   6.627   6.300  13.605
   35DA     C4' 1085   6.582   6.196  13.423
   35DA     H4' 1086   6.599   6.096  13.464
   35DA     O4' 1087   6.482   6.178  13.328
   35DA     C1' 1088   6.522   6.225  13.202
   35DA     H1' 1089   6.549   6.140  13.139
   35DA      N9 1090   6.406   6.300  13.144
   35DA      C8 1091   6.366   6.431  13.156
   35DA      H8 1092   6.409   6.499  13.228
   35DA      N7 1093   6.259   6.460  13.089
   35DA      C5 1094   6.232   6.339  13.019
   35DA      C6 1095   6.128   6.293  12.936
   35DA      N6 1096   6.021   6.361  12.901
   35DA     H61 1097   5.957   6.328  12.830
   35DA     H62 1098   6.024   6.460  12.920
   35DA      N1 1099   6.129   6.164  12.896
   35DA      C2 1100   6.226   6.082  12.938
   35DA      H2 1101   6.214   5.981  12.899
   35DA      N3 1102   6.331   6.112  13.011
   35DA      C4 1103   6.324   6.243  13.055
   35DA     C3' 1104   6.698   6.251  13.342
   35DA     H3' 1105   6.743   6.337  13.392
   35DA     C2' 1106   6.638   6.311  13.222
   35DA    H2'1 1107   6.603   6.411  13.250
   35DA    H2'2 1108   6.709   6.316  13.141
   35DA     O3' 1109   6.800   6.152  13.311
   36DT       P 1110   6.942   6.191  13.248
   36DT     O1P 1111   7.040   6.103  13.306
   36DT     O2P 1112   6.969   6.333  13.258
   36DT     O5' 1113   6.933   6.143  13.095
   36DT     C5' 1114   6.925   6.005  13.064
   36DT    H5'1 1115   6.871   5.956  13.145
   36DT    H5'2 1116   7.019   5.952  13.048
   36DT     C4' 1117   6.839   5.970  12.943
   36DT     H4' 1118   6.820   5.863  12.937
   36DT     O4' 1119   6.714   6.044  12.950
   36DT     C1' 1120   6.686   6.098  12.826
   36DT     H1' 1121   6.648   6.019  12.761
   36DT      N1 1122   6.587   6.213  12.832
   36DT      C6 1123   6.628   6.332  12.885
   36DT      H6 1124   6.716   6.340  12.948
   36DT      C5 1125   6.567   6.446  12.853
   36DT      C7 1126   6.614   6.572  12.915
   36DT     H71 1127   6.643   6.642  12.837
   36DT     H72 1128   6.526   6.616  12.962
   36DT     H73 1129   6.687   6.542  12.990
   36DT      C4 1130   6.448   6.447  12.774
   36DT      O4 1131   6.382   6.545  12.745
   36DT      N3 1132   6.404   6.322  12.734
   36DT      H3 1133   6.330   6.319  12.666
   36DT      C2 1134   6.477   6.209  12.749
   36DT      O2 1135   6.442   6.119  12.674
   36DT     C3' 1136   6.902   6.014  12.809
   36DT     H3' 1137   7.009   6.036  12.814
   36DT     C2' 1138   6.819   6.133  12.762
   36DT    H2'1 1139   6.859   6.226  12.803
   36DT    H2'2 1140   6.817   6.145  12.654
   36DT     O3' 1141   6.890   5.905  12.714
   37DA       P 1142   6.956   5.919  12.566
   37DA     O1P 1143   7.015   5.786  12.533
   37DA     O2P 1144   7.044   6.030  12.568
   37DA     O5' 1145   6.825   5.953  12.480
   37DA     C5' 1146   6.726   5.851  12.459
   37DA    H5'1 1147   6.653   5.866  12.539
   37DA    H5'2 1148   6.771   5.752  12.472
   37DA     C4' 1149   6.656   5.850  12.326
   37DA     H4' 1150   6.616   5.752  12.300
   37DA     O4' 1151   6.554   5.946  12.332
   37DA     C1' 1152   6.576   6.055  12.237
   37DA     H1' 1153   6.510   6.045  12.151
   37DA      N9 1154   6.559   6.179  12.313
   37DA      C8 1155   6.629   6.224  12.421
   37DA      H8 1156   6.707   6.164  12.466
   37DA      N7 1157   6.592   6.341  12.472
   37DA      C5 1158   6.491   6.377  12.379
   37DA      C6 1159   6.410   6.490  12.363
   37DA      N6 1160   6.416   6.595  12.433
   37DA     H61 1161   6.341   6.662  12.424
   37DA     H62 1162   6.480   6.594  12.510
   37DA      N1 1163   6.319   6.501  12.266
   37DA      C2 1164   6.311   6.403  12.177
   37DA      H2 1165   6.245   6.424  12.095
   37DA      N3 1166   6.390   6.293  12.175
   37DA      C4 1167   6.475   6.285  12.282
   37DA     C3' 1168   6.750   5.889  12.211
   37DA     H3' 1169   6.855   5.879  12.238
   37DA     C2' 1170   6.720   6.036  12.190
   37DA    H2'1 1171   6.790   6.083  12.259
   37DA    H2'2 1172   6.729   6.073  12.088
   37DA     O3' 1173   6.716   5.803  12.105
   38DT       P 1174   6.799   5.809  11.965
   38DT     O1P 1175   6.763   5.693  11.887
   38DT     O2P 1176   6.940   5.836  11.994
   38DT     O5' 1177   6.736   5.938  11.894
   38DT     C5' 1178   6.595   5.933  11.856
   38DT    H5'1 1179   6.536   5.915  11.945
   38DT    H5'2 1180   6.582   5.857  11.779
   38DT     C4' 1181   6.550   6.074  11.809
   38DT     H4' 1182   6.449   6.065  11.770
   38DT     O4' 1183   6.555   6.168  11.915
   38DT     C1' 1184   6.535   6.297  11.857
   38DT     H1' 1185   6.427   6.303  11.841
   38DT      N1 1186   6.587   6.402  11.944
   38DT      C6 1187   6.704   6.383  12.015
   38DT      H6 1188   6.750   6.286  12.002
   38DT      C5 1189   6.732   6.461  12.118
   38DT      C7 1190   6.861   6.431  12.188
   38DT     H71 1191   6.839   6.388  12.286
   38DT     H72 1192   6.916   6.347  12.146
   38DT     H73 1193   6.932   6.512  12.207
   38DT      C4 1194   6.652   6.582  12.151
   38DT      O4 1195   6.669   6.654  12.247
   38DT      N3 1196   6.547   6.604  12.064
   38DT      H3 1197   6.490   6.684  12.087
   38DT      C2 1198   6.509   6.518  11.964
   38DT      O2 1199   6.412   6.548  11.900
   38DT     C3' 1200   6.639   6.135  11.696
   38DT     H3' 1201   6.742   6.114  11.726
   38DT     C2' 1202   6.597   6.285  11.719
   38DT    H2'1 1203   6.682   6.353  11.718
   38DT    H2'2 1204   6.530   6.320  11.641
   38DT     O3' 1205   6.614   6.095  11.561
   39DG       P 1206   6.681   6.163  11.429
   39DG     O1P 1207   6.672   6.062  11.322
   39DG     O2P 1208   6.810   6.224  11.463
   39DG     O5' 1209   6.584   6.282  11.390
   39DG     C5' 1210   6.448   6.259  11.377
   39DG    H5'1 1211   6.410   6.220  11.471
   39DG    H5'2 1212   6.430   6.185  11.299
   39DG     C4' 1213   6.364   6.387  11.343
   39DG     H4' 1214   6.259   6.358  11.340
   39DG     O4' 1215   6.385   6.476  11.453
   39DG     C1' 1216   6.439   6.598  11.402
   39DG     H1' 1217   6.368   6.678  11.384
   39DG      N9 1218   6.541   6.632  11.501
   39DG      C8 1219   6.659   6.559  11.532
   39DG      H8 1220   6.686   6.475  11.469
   39DG      N7 1221   6.720   6.604  11.636
   39DG      C5 1222   6.639   6.714  11.674
   39DG      C6 1223   6.650   6.805  11.787
   39DG      O6 1224   6.736   6.811  11.874
   39DG      N1 1225   6.544   6.887  11.804
   39DG      H1 1226   6.550   6.961  11.872
   39DG      C2 1227   6.447   6.893  11.716
   39DG      N2 1228   6.369   6.998  11.727
   39DG     H21 1229   6.390   7.072  11.791
   39DG     H22 1230   6.321   7.017  11.640
   39DG      N3 1231   6.432   6.819  11.605
   39DG      C4 1232   6.530   6.727  11.594
   39DG     C3' 1233   6.410   6.458  11.220
   39DG     H3' 1234   6.461   6.382  11.160
   39DG     C2' 1235   6.501   6.568  11.262
   39DG    H2'1 1236   6.606   6.539  11.267
   39DG    H2'2 1237   6.487   6.650  11.191
   39DG     O3' 1238   6.295   6.503  11.162
   40DC       P 1239   6.285   6.540  11.005
   40DC     O1P 1240   6.146   6.512  10.958
   40DC     O2P 1241   6.399   6.473  10.937
   40DC     O5' 1242   6.317   6.696  11.019
   40DC     C5' 1243   6.223   6.790  11.083
   40DC    H5'1 1244   6.180   6.746  11.173
   40DC    H5'2 1245   6.145   6.832  11.020
   40DC     C4' 1246   6.295   6.912  11.138
   40DC     H4' 1247   6.227   6.984  11.185
   40DC     O4' 1248   6.385   6.886  11.240
   40DC     C1' 1249   6.503   6.971  11.224
   40DC     H1' 1250   6.471   7.068  11.264
   40DC      N1 1251   6.626   6.925  11.304
   40DC      C6 1252   6.700   6.825  11.265
   40DC      H6 1253   6.671   6.767  11.179
   40DC      C5 1254   6.809   6.791  11.336
   40DC      H5 1255   6.864   6.704  11.302
   40DC      C4 1256   6.843   6.862  11.455
   40DC      N4 1257   6.934   6.825  11.541
   40DC     H41 1258   6.954   6.875  11.626
   40DC     H42 1259   6.991   6.747  11.514
   40DC      N3 1260   6.769   6.969  11.492
   40DC      C2 1261   6.663   6.998  11.414
   40DC      O2 1262   6.597   7.091  11.456
   40DC     C3' 1263   6.374   6.985  11.020
   40DC     H3' 1264   6.376   6.927  10.928
   40DC     C2' 1265   6.518   6.992  11.076
   40DC    H2'1 1266   6.568   6.902  11.040
   40DC    H2'2 1267   6.574   7.081  11.047
   40DC     O3' 1268   6.317   7.115  10.987
   41DG       P 1269   6.391   7.220  10.895
   41DG     O1P 1270   6.282   7.296  10.832
   41DG     O2P 1271   6.483   7.142  10.808
   41DG     O5' 1272   6.466   7.318  10.988
   41DG     C5' 1273   6.399   7.399  11.088
   41DG    H5'1 1274   6.365   7.338  11.172
   41DG    H5'2 1275   6.317   7.452  11.040
   41DG     C4' 1276   6.478   7.523  11.141
   41DG     H4' 1277   6.413   7.588  11.200
   41DG     O4' 1278   6.570   7.454  11.224
   41DG     C1' 1279   6.703   7.474  11.184
   41DG     H1' 1280   6.751   7.545  11.251
   41DG      N9 1281   6.778   7.349  11.199
   41DG      C8 1282   6.774   7.237  11.118
   41DG      H8 1283   6.720   7.239  11.025
   41DG      N7 1284   6.852   7.142  11.156
   41DG      C5 1285   6.912   7.197  11.275
   41DG      C6 1286   7.021   7.154  11.365
   41DG      O6 1287   7.093   7.048  11.359
   41DG      N1 1288   7.051   7.237  11.466
   41DG      H1 1289   7.121   7.206  11.533
   41DG      C2 1290   6.997   7.360  11.472
   41DG      N2 1291   7.047   7.436  11.564
   41DG     H21 1292   7.121   7.399  11.620
   41DG     H22 1293   7.019   7.533  11.573
   41DG      N3 1294   6.914   7.415  11.385
   41DG      C4 1295   6.876   7.326  11.290
   41DG     C3' 1296   6.558   7.607  11.052
   41DG     H3' 1297   6.517   7.606  10.951
   41DG     C2' 1298   6.694   7.532  11.044
   41DG    H2'1 1299   6.678   7.461  10.963
   41DG    H2'2 1300   6.776   7.599  11.018
   41DG     O3' 1301   6.577   7.735  11.093
   42DT       P 1302   6.604   7.849  10.981
   42DT     O1P 1303   6.526   7.971  11.012
   42DT     O2P 1304   6.605   7.794  10.847
   42DT     O5' 1305   6.756   7.891  10.997
   42DT     C5' 1306   6.778   7.986  11.103
   42DT    H5'1 1307   6.700   7.983  11.178
   42DT    H5'2 1308   6.772   8.091  11.071
   42DT     C4' 1309   6.912   7.957  11.173
   42DT     H4' 1310   6.926   8.002  11.271
   42DT     O4' 1311   6.935   7.814  11.199
   42DT     C1' 1312   7.077   7.800  11.207
   42DT     H1' 1313   7.112   7.832  11.305
   42DT      N1 1314   7.115   7.662  11.172
   42DT      C6 1315   7.054   7.593  11.069
   42DT      H6 1316   6.998   7.633  10.986
   42DT      C5 1317   7.080   7.463  11.051
   42DT      C7 1318   7.017   7.392  10.933
   42DT     H71 1319   6.934   7.451  10.895
   42DT     H72 1320   7.085   7.411  10.849
   42DT     H73 1321   6.979   7.291  10.949
   42DT      C4 1322   7.164   7.388  11.144
   42DT      O4 1323   7.202   7.276  11.146
   42DT      N3 1324   7.207   7.468  11.245
   42DT      H3 1325   7.280   7.424  11.300
   42DT      C2 1326   7.196   7.600  11.263
   42DT      O2 1327   7.258   7.658  11.356
   42DT     C3' 1328   7.032   7.997  11.088
   42DT     H3' 1329   7.013   8.000  10.981
   42DT     C2' 1330   7.139   7.896  11.113
   42DT    H2'1 1331   7.169   7.846  11.021
   42DT    H2'2 1332   7.228   7.940  11.158
   42DT     O3' 1333   7.090   8.128  11.127
   43DA       P 1334   7.195   8.216  11.026
   43DA     O1P 1335   7.168   8.362  11.049
   43DA     O2P 1336   7.194   8.171  10.889
   43DA     O5' 1337   7.337   8.174  11.077
   43DA     C5' 1338   7.368   8.171  11.212
   43DA    H5'1 1339   7.292   8.114  11.265
   43DA    H5'2 1340   7.367   8.277  11.240
   43DA     C4' 1341   7.506   8.108  11.246
   43DA     H4' 1342   7.517   8.125  11.353
   43DA     O4' 1343   7.486   7.971  11.219
   43DA     C1' 1344   7.586   7.935  11.124
   43DA     H1' 1345   7.674   7.895  11.173
   43DA      N9 1346   7.521   7.825  11.041
   43DA      C8 1347   7.416   7.841  10.958
   43DA      H8 1348   7.368   7.935  10.936
   43DA      N7 1349   7.375   7.735  10.899
   43DA      C5 1350   7.450   7.635  10.960
   43DA      C6 1351   7.455   7.491  10.949
   43DA      N6 1352   7.385   7.409  10.869
   43DA     H61 1353   7.388   7.309  10.883
   43DA     H62 1354   7.317   7.447  10.805
   43DA      N1 1355   7.534   7.418  11.029
   43DA      C2 1356   7.621   7.475  11.108
   43DA      H2 1357   7.680   7.412  11.172
   43DA      N3 1358   7.633   7.611  11.121
   43DA      C4 1359   7.540   7.686  11.049
   43DA     C3' 1360   7.624   8.164  11.169
   43DA     H3' 1361   7.594   8.260  11.126
   43DA     C2' 1362   7.623   8.065  11.049
   43DA    H2'1 1363   7.546   8.096  10.979
   43DA    H2'2 1364   7.720   8.052  11.001
   43DA     O3' 1365   7.751   8.168  11.236
   44DC       P 1366   7.876   8.251  11.188
   44DC     O1P 1367   7.954   8.287  11.309
   44DC     O2P 1368   7.846   8.356  11.091
   44DC     O5' 1369   7.949   8.133  11.110
   44DC     C5' 1370   8.007   8.033  11.188
   44DC    H5'1 1371   7.943   7.998  11.270
   44DC    H5'2 1372   8.101   8.065  11.233
   44DC     C4' 1373   8.024   7.913  11.091
   44DC     H4' 1374   8.079   7.844  11.155
   44DC     O4' 1375   7.903   7.855  11.038
   44DC     C1' 1376   7.941   7.815  10.903
   44DC     H1' 1377   8.008   7.730  10.908
   44DC      N1 1378   7.821   7.778  10.823
   44DC      C6 1379   7.756   7.869  10.740
   44DC      H6 1380   7.789   7.971  10.732
   44DC      C5 1381   7.659   7.825  10.665
   44DC      H5 1382   7.601   7.884  10.596
   44DC      C4 1383   7.637   7.685  10.665
   44DC      N4 1384   7.571   7.629  10.574
   44DC     H41 1385   7.589   7.531  10.558
   44DC     H42 1386   7.520   7.677  10.501
   44DC      N3 1387   7.701   7.594  10.740
   44DC      C2 1388   7.792   7.643  10.820
   44DC      O2 1389   7.860   7.566  10.890
   44DC     C3' 1390   8.116   7.943  10.977
   44DC     H3' 1391   8.156   8.043  10.990
   44DC     C2' 1392   8.021   7.940  10.860
   44DC    H2'1 1393   7.952   8.024  10.860
   44DC    H2'2 1394   8.074   7.914  10.768
   44DC     O3' 1395   8.219   7.843  10.971
   45DA       P 1396   8.361   7.864  11.043
   45DA     O1P 1397   8.324   7.909  11.180
   45DA     O2P 1398   8.453   7.945  10.955
   45DA     O5' 1399   8.406   7.709  11.041
   45DA     C5' 1400   8.356   7.615  11.138
   45DA    H5'1 1401   8.247   7.608  11.135
   45DA    H5'2 1402   8.396   7.638  11.236
   45DA     C4' 1403   8.394   7.464  11.109
   45DA     H4' 1404   8.395   7.399  11.197
   45DA     O4' 1405   8.302   7.401  11.020
   45DA     C1' 1406   8.351   7.395  10.884
   45DA     H1' 1407   8.364   7.292  10.851
   45DA      N9 1408   8.259   7.459  10.787
   45DA      C8 1409   8.229   7.594  10.770
   45DA      H8 1410   8.291   7.663  10.825
   45DA      N7 1411   8.133   7.619  10.686
   45DA      C5 1412   8.105   7.493  10.638
   45DA      C6 1413   8.009   7.443  10.550
   45DA      N6 1414   7.913   7.516  10.493
   45DA     H61 1415   7.846   7.462  10.439
   45DA     H62 1416   7.915   7.616  10.498
   45DA      N1 1417   7.997   7.310  10.535
   45DA      C2 1418   8.075   7.229  10.598
   45DA      H2 1419   8.052   7.124  10.588
   45DA      N3 1420   8.172   7.255  10.682
   45DA      C4 1421   8.182   7.392  10.697
   45DA     C3' 1422   8.527   7.446  11.046
   45DA     H3' 1423   8.592   7.529  11.073
   45DA     C2' 1424   8.494   7.460  10.900
   45DA    H2'1 1425   8.492   7.563  10.866
   45DA    H2'2 1426   8.567   7.427  10.827
   45DA     O3' 1427   8.590   7.325  11.073
   46DA       P 1428   8.735   7.276  11.006
   46DA     O1P 1429   8.804   7.196  11.111
   46DA     O2P 1430   8.799   7.396  10.950
   46DA     O5' 1431   8.695   7.179  10.882
   46DA     C5' 1432   8.612   7.062  10.905
   46DA    H5'1 1433   8.514   7.079  10.950
   46DA    H5'2 1434   8.664   6.983  10.959
   46DA     C4' 1435   8.572   6.994  10.767
   46DA     H4' 1436   8.542   6.891  10.783
   46DA     O4' 1437   8.476   7.072  10.693
   46DA     C1' 1438   8.519   7.114  10.567
   46DA     H1' 1439   8.473   7.045  10.496
   46DA      N9 1440   8.483   7.246  10.514
   46DA      C8 1441   8.533   7.369  10.535
   46DA      H8 1442   8.614   7.378  10.605
   46DA      N7 1443   8.466   7.467  10.484
   46DA      C5 1444   8.363   7.402  10.414
   46DA      C6 1445   8.259   7.442  10.330
   46DA      N6 1446   8.216   7.568  10.307
   46DA     H61 1447   8.128   7.580  10.259
   46DA     H62 1448   8.270   7.647  10.337
   46DA      N1 1449   8.191   7.351  10.260
   46DA      C2 1450   8.223   7.226  10.280
   46DA      H2 1451   8.173   7.155  10.215
   46DA      N3 1452   8.311   7.172  10.361
   46DA      C4 1453   8.381   7.266  10.425
   46DA     C3' 1454   8.693   6.974  10.677
   46DA     H3' 1455   8.789   6.983  10.727
   46DA     C2' 1456   8.668   7.086  10.577
   46DA    H2'1 1457   8.715   7.173  10.623
   46DA    H2'2 1458   8.712   7.068  10.479
   46DA     O3' 1459   8.686   6.843  10.621
   47DT       P 1460   8.783   6.797  10.504
   47DT     O1P 1461   8.784   6.650  10.509
   47DT     O2P 1462   8.906   6.869  10.526
   47DT     O5' 1463   8.718   6.844  10.356
   47DT     C5' 1464   8.607   6.776  10.303
   47DT    H5'1 1465   8.511   6.796  10.352
   47DT    H5'2 1466   8.610   6.667  10.305
   47DT     C4' 1467   8.586   6.830  10.159
   47DT     H4' 1468   8.504   6.770  10.120
   47DT     O4' 1469   8.546   6.968  10.163
   47DT     C1' 1470   8.610   7.038  10.060
   47DT     H1' 1471   8.571   7.019   9.959
   47DT      N1 1472   8.594   7.188  10.082
   47DT      C6 1473   8.684   7.266  10.147
   47DT      H6 1474   8.774   7.229  10.193
   47DT      C5 1475   8.661   7.402  10.159
   47DT      C7 1476   8.772   7.484  10.212
   47DT     H71 1477   8.724   7.533  10.297
   47DT     H72 1478   8.853   7.426  10.257
   47DT     H73 1479   8.813   7.567  10.155
   47DT      C4 1480   8.539   7.467  10.104
   47DT      O4 1481   8.510   7.586  10.114
   47DT      N3 1482   8.458   7.383  10.031
   47DT      H3 1483   8.367   7.414   9.999
   47DT      C2 1484   8.481   7.247  10.018
   47DT      O2 1485   8.393   7.182   9.954
   47DT     C3' 1486   8.714   6.822  10.068
   47DT     H3' 1487   8.781   6.767  10.135
   47DT     C2' 1488   8.749   6.973  10.054
   47DT    H2'1 1489   8.795   7.016  10.143
   47DT    H2'2 1490   8.812   6.998   9.969
   47DT     O3' 1491   8.686   6.761   9.943
   48DG       P 1492   8.795   6.688   9.854
   48DG     O1P 1493   8.780   6.541   9.862
   48DG     O2P 1494   8.927   6.745   9.877
   48DG     O5' 1495   8.744   6.724   9.704
   48DG     C5' 1496   8.634   6.644   9.646
   48DG    H5'1 1497   8.562   6.616   9.722
   48DG    H5'2 1498   8.678   6.555   9.601
   48DG     C4' 1499   8.553   6.703   9.534
   48DG     H4' 1500   8.476   6.629   9.511
   48DG     O4' 1501   8.489   6.823   9.571
   48DG     C1' 1502   8.536   6.935   9.498
   48DG     H1' 1503   8.470   6.975   9.421
   48DG      N9 1504   8.593   7.049   9.580
   48DG      C8 1505   8.675   7.039   9.686
   48DG      H8 1506   8.728   6.950   9.716
   48DG      N7 1507   8.692   7.151   9.753
   48DG      C5 1508   8.606   7.239   9.685
   48DG      C6 1509   8.581   7.380   9.704
   48DG      O6 1510   8.617   7.459   9.790
   48DG      N1 1511   8.485   7.435   9.612
   48DG      H1 1512   8.443   7.527   9.622
   48DG      C2 1513   8.439   7.361   9.508
   48DG      N2 1514   8.342   7.419   9.440
   48DG     H21 1515   8.312   7.511   9.469
   48DG     H22 1516   8.319   7.388   9.347
   48DG      N3 1517   8.472   7.235   9.478
   48DG      C4 1518   8.562   7.183   9.566
   48DG     C3' 1519   8.631   6.721   9.410
   48DG     H3' 1520   8.724   6.665   9.405
   48DG     C2' 1521   8.656   6.872   9.425
   48DG    H2'1 1522   8.754   6.877   9.472
   48DG    H2'2 1523   8.668   6.920   9.328
   48DG     O3' 1524   8.538   6.692   9.312
   49DT       P 1525   8.574   6.678   9.157
   49DT     O1P 1526   8.464   6.626   9.076
   49DT     O2P 1527   8.702   6.607   9.148
   49DT     O5' 1528   8.590   6.836   9.127
   49DT     C5' 1529   8.481   6.907   9.066
   49DT    H5'1 1530   8.394   6.920   9.129
   49DT    H5'2 1531   8.438   6.850   8.984
   49DT     C4' 1532   8.524   7.040   8.996
   49DT     H4' 1533   8.435   7.062   8.937
   49DT     O4' 1534   8.545   7.142   9.088
   49DT     C1' 1535   8.676   7.182   9.075
   49DT     H1' 1536   8.677   7.262   9.002
   49DT      N1 1537   8.728   7.248   9.199
   49DT      C6 1538   8.818   7.180   9.280
   49DT      H6 1539   8.846   7.077   9.265
   49DT      C5 1540   8.873   7.230   9.392
   49DT      C7 1541   8.967   7.143   9.477
   49DT     H71 1542   8.980   7.041   9.441
   49DT     H72 1543   9.062   7.191   9.499
   49DT     H73 1544   8.916   7.155   9.573
   49DT      C4 1545   8.836   7.362   9.441
   49DT      O4 1546   8.864   7.411   9.549
   49DT      N3 1547   8.738   7.426   9.359
   49DT      H3 1548   8.719   7.520   9.390
   49DT      C2 1549   8.679   7.371   9.246
   49DT      O2 1550   8.590   7.434   9.187
   49DT     C3' 1551   8.648   7.017   8.910
   49DT     H3' 1552   8.663   6.911   8.886
   49DT     C2' 1553   8.752   7.063   9.010
   49DT    H2'1 1554   8.776   6.991   9.088
   49DT    H2'2 1555   8.843   7.101   8.965
   49DT     O3' 1556   8.641   7.111   8.802
   50DA       P 1557   8.608   7.079   8.654
   50DA     O1P 1558   8.491   6.989   8.645
   50DA     O2P 1559   8.735   7.038   8.590
   50DA     O5' 1560   8.564   7.215   8.593
   50DA     C5' 1561   8.439   7.281   8.637
   50DA    H5'1 1562   8.394   7.237   8.726
   50DA    H5'2 1563   8.365   7.271   8.558
   50DA     C4' 1564   8.448   7.426   8.670
   50DA     H4' 1565   8.348   7.467   8.678
   50DA     O4' 1566   8.528   7.458   8.780
   50DA     C1' 1567   8.634   7.532   8.746
   50DA     H1' 1568   8.618   7.636   8.776
   50DA      N9 1569   8.745   7.479   8.824
   50DA      C8 1570   8.829   7.366   8.805
   50DA      H8 1571   8.807   7.299   8.724
   50DA      N7 1572   8.916   7.352   8.897
   50DA      C5 1573   8.892   7.464   8.984
   50DA      C6 1574   8.958   7.512   9.097
   50DA      N6 1575   9.056   7.444   9.151
   50DA     H61 1576   9.103   7.479   9.233
   50DA     H62 1577   9.094   7.370   9.094
   50DA      N1 1578   8.923   7.621   9.161
   50DA      C2 1579   8.822   7.692   9.104
   50DA      H2 1580   8.800   7.786   9.152
   50DA      N3 1581   8.756   7.667   8.988
   50DA      C4 1582   8.793   7.546   8.937
   50DA     C3' 1583   8.504   7.497   8.555
   50DA     H3' 1584   8.497   7.434   8.466
   50DA     C2' 1585   8.647   7.521   8.595
   50DA    H2'1 1586   8.699   7.429   8.570
   50DA    H2'2 1587   8.689   7.604   8.537
   50DA     O3' 1588   8.432   7.615   8.542
   51DT       P 1589   8.416   7.700   8.416
   51DT     O1P 1590   8.275   7.721   8.387
   51DT     O2P 1591   8.496   7.641   8.308
   51DT     O5' 1592   8.492   7.832   8.458
   51DT     C5' 1593   8.441   7.914   8.561
   51DT    H5'1 1594   8.418   7.856   8.651
   51DT    H5'2 1595   8.349   7.962   8.527
   51DT     C4' 1596   8.550   8.005   8.604
   51DT     H4' 1597   8.519   8.075   8.682
   51DT     O4' 1598   8.658   7.927   8.668
   51DT     C1' 1599   8.770   7.998   8.638
   51DT     H1' 1600   8.764   8.088   8.699
   51DT      N1 1601   8.880   7.900   8.674
   51DT      C6 1602   8.915   7.796   8.591
   51DT      H6 1603   8.885   7.787   8.488
   51DT      C5 1604   9.000   7.698   8.636
   51DT      C7 1605   9.009   7.571   8.551
   51DT     H71 1606   9.111   7.570   8.514
   51DT     H72 1607   9.004   7.489   8.623
   51DT     H73 1608   8.926   7.565   8.480
   51DT      C4 1609   9.058   7.706   8.769
   51DT      O4 1610   9.129   7.621   8.829
   51DT      N3 1611   9.037   7.825   8.836
   51DT      H3 1612   9.076   7.820   8.929
   51DT      C2 1613   8.938   7.917   8.802
   51DT      O2 1614   8.915   8.012   8.878
   51DT     C3' 1615   8.607   8.085   8.485
   51DT     H3' 1616   8.568   8.055   8.387
   51DT     C2' 1617   8.753   8.046   8.495
   51DT    H2'1 1618   8.766   7.962   8.426
   51DT    H2'2 1619   8.817   8.131   8.472
   51DT     O3' 1620   8.585   8.225   8.509
   52DA       P 1621   8.624   8.346   8.411
   52DA     O1P 1622   8.551   8.457   8.479
   52DA     O2P 1623   8.600   8.304   8.272
   52DA     O5' 1624   8.788   8.366   8.425
   52DA     C5' 1625   8.844   8.401   8.555
   52DA    H5'1 1626   8.808   8.331   8.630
   52DA    H5'2 1627   8.810   8.504   8.567
   52DA     C4' 1628   8.994   8.400   8.557
   52DA     H4' 1629   9.028   8.458   8.643
   52DA     O4' 1630   9.036   8.260   8.574
   52DA     C1' 1631   9.152   8.231   8.496
   52DA     H1' 1632   9.231   8.273   8.557
   52DA      N9 1633   9.166   8.081   8.494
   52DA      C8 1634   9.152   7.996   8.390
   52DA      H8 1635   9.095   8.021   8.302
   52DA      N7 1636   9.204   7.876   8.415
   52DA      C5 1637   9.264   7.887   8.544
   52DA      C6 1638   9.341   7.805   8.626
   52DA      N6 1639   9.380   7.684   8.590
   52DA     H61 1640   9.447   7.634   8.645
   52DA     H62 1641   9.376   7.664   8.491
   52DA      N1 1642   9.387   7.851   8.739
   52DA      C2 1643   9.353   7.972   8.774
   52DA      H2 1644   9.387   8.005   8.872
   52DA      N3 1645   9.270   8.057   8.718
   52DA      C4 1646   9.231   8.011   8.594
   52DA     C3' 1647   9.074   8.453   8.432
   52DA     H3' 1648   9.010   8.517   8.371
   52DA     C2' 1649   9.122   8.318   8.373
   52DA    H2'1 1650   9.044   8.275   8.310
   52DA    H2'2 1651   9.213   8.327   8.313
   52DA     O3' 1652   9.189   8.523   8.472
   53DT       P 1653   9.242   8.649   8.388
   53DT     O1P 1654   9.152   8.763   8.413
   53DT     O2P 1655   9.270   8.611   8.248
   53DT     O5' 1656   9.379   8.680   8.465
   53DT     C5' 1657   9.374   8.735   8.601
   53DT    H5'1 1658   9.274   8.708   8.637
   53DT    H5'2 1659   9.376   8.844   8.603
   53DT     C4' 1660   9.486   8.668   8.686
   53DT     H4' 1661   9.497   8.710   8.786
   53DT     O4' 1662   9.453   8.531   8.699
   53DT     C1' 1663   9.570   8.460   8.726
   53DT     H1' 1664   9.580   8.430   8.830
   53DT      N1 1665   9.573   8.338   8.637
   53DT      C6 1666   9.525   8.343   8.507
   53DT      H6 1667   9.478   8.436   8.481
   53DT      C5 1668   9.523   8.229   8.428
   53DT      C7 1669   9.471   8.240   8.290
   53DT     H71 1670   9.446   8.341   8.258
   53DT     H72 1671   9.542   8.196   8.221
   53DT     H73 1672   9.382   8.177   8.286
   53DT      C4 1673   9.572   8.107   8.483
   53DT      O4 1674   9.567   7.998   8.435
   53DT      N3 1675   9.626   8.112   8.614
   53DT      H3 1676   9.674   8.027   8.641
   53DT      C2 1677   9.620   8.225   8.698
   53DT      O2 1678   9.661   8.218   8.813
   53DT     C3' 1679   9.626   8.670   8.619
   53DT     H3' 1680   9.614   8.643   8.514
   53DT     C2' 1681   9.695   8.547   8.688
   53DT    H2'1 1682   9.769   8.498   8.624
   53DT    H2'2 1683   9.745   8.580   8.779
   53DT     O3' 1684   9.684   8.796   8.632
   54DA       P 1685   9.811   8.851   8.542
   54DA     O1P 1686   9.823   8.995   8.576
   54DA     O2P 1687   9.790   8.813   8.401
   54DA     O5' 1688   9.944   8.774   8.581
   54DA     C5' 1689   9.985   8.771   8.721
   54DA    H5'1 1690   9.898   8.750   8.783
   54DA    H5'2 1691  10.037   8.864   8.744
   54DA     C4' 1692  10.095   8.667   8.753
   54DA     H4' 1693  10.104   8.672   8.861
   54DA     O4' 1694  10.050   8.540   8.708
   54DA     C1' 1695  10.123   8.500   8.595
   54DA     H1' 1696  10.178   8.410   8.623
   54DA      N9 1697  10.023   8.448   8.494
   54DA      C8 1698   9.951   8.518   8.395
   54DA      H8 1699   9.953   8.626   8.387
   54DA      N7 1700   9.889   8.441   8.311
   54DA      C5 1701   9.920   8.305   8.355
   54DA      C6 1702   9.899   8.176   8.306
   54DA      N6 1703   9.823   8.149   8.201
   54DA     H61 1704   9.787   8.055   8.192
   54DA     H62 1705   9.788   8.229   8.150
   54DA      N1 1706   9.941   8.066   8.368
   54DA      C2 1707  10.024   8.083   8.476
   54DA      H2 1708  10.048   7.990   8.526
   54DA      N3 1709  10.054   8.201   8.533
   54DA      C4 1710  10.000   8.314   8.469
   54DA     C3' 1711  10.231   8.701   8.687
   54DA     H3' 1712  10.235   8.807   8.663
   54DA     C2' 1713  10.221   8.611   8.557
   54DA    H2'1 1714  10.166   8.661   8.478
   54DA    H2'2 1715  10.314   8.566   8.522
   54DA     O3' 1716  10.323   8.671   8.792
   55DC       P 1717  10.480   8.659   8.768
   55DC     O1P 1718  10.540   8.656   8.903
   55DC     O2P 1719  10.515   8.762   8.666
   55DC     O5' 1720  10.490   8.514   8.693
   55DC     C5' 1721  10.464   8.400   8.763
   55DC    H5'1 1722  10.357   8.383   8.755
   55DC    H5'2 1723  10.498   8.421   8.865
   55DC     C4' 1724  10.535   8.279   8.705
   55DC     H4' 1725  10.537   8.205   8.785
   55DC     O4' 1726  10.442   8.226   8.605
   55DC     C1' 1727  10.505   8.221   8.478
   55DC     H1' 1728  10.533   8.115   8.475
   55DC      N1 1729  10.403   8.257   8.368
   55DC      C6 1730  10.384   8.387   8.330
   55DC      H6 1731  10.436   8.471   8.373
   55DC      C5 1732  10.299   8.419   8.230
   55DC      H5 1733  10.287   8.522   8.200
   55DC      C4 1734  10.225   8.306   8.176
   55DC      N4 1735  10.140   8.322   8.080
   55DC     H41 1736  10.104   8.237   8.038
   55DC     H42 1737  10.102   8.411   8.052
   55DC      N3 1738  10.246   8.183   8.202
   55DC      C2 1739  10.334   8.155   8.299
   55DC      O2 1740  10.355   8.036   8.330
   55DC     C3' 1741  10.668   8.301   8.636
   55DC     H3' 1742  10.695   8.403   8.666
   55DC     C2' 1743  10.634   8.304   8.484
   55DC    H2'1 1744  10.626   8.411   8.463
   55DC    H2'2 1745  10.708   8.265   8.414
   55DC     O3' 1746  10.762   8.202   8.665
   56DG       P 1747  10.912   8.209   8.617
   56DG     O1P 1748  10.991   8.120   8.707
   56DG     O2P 1749  10.956   8.348   8.607
   56DG     O5' 1750  10.919   8.146   8.479
   56DG     C5' 1751  10.855   8.014   8.463
   56DG    H5'1 1752  10.758   8.006   8.511
   56DG    H5'2 1753  10.917   7.937   8.508
   56DG     C4' 1754  10.830   7.975   8.321
   56DG     H4' 1755  10.802   7.870   8.314
   56DG     O4' 1756  10.723   8.044   8.265
   56DG     C1' 1757  10.758   8.072   8.126
   56DG     H1' 1758  10.744   7.977   8.074
   56DG      N9 1759  10.675   8.180   8.066
   56DG      C8 1760  10.686   8.315   8.069
   56DG      H8 1761  10.755   8.368   8.133
   56DG      N7 1762  10.596   8.386   8.002
   56DG      C5 1763  10.528   8.282   7.935
   56DG      C6 1764  10.420   8.285   7.835
   56DG      O6 1765  10.355   8.378   7.769
   56DG      N1 1766  10.374   8.153   7.812
   56DG      H1 1767  10.292   8.144   7.754
   56DG      C2 1768  10.439   8.040   7.852
   56DG      N2 1769  10.393   7.925   7.808
   56DG     H21 1770  10.340   7.920   7.722
   56DG     H22 1771  10.434   7.839   7.842
   56DG      N3 1772  10.537   8.032   7.935
   56DG      C4 1773  10.572   8.157   7.980
   56DG     C3' 1774  10.953   8.000   8.231
   56DG     H3' 1775  11.034   8.038   8.292
   56DG     C2' 1776  10.901   8.109   8.131
   56DG    H2'1 1777  10.919   8.214   8.154
   56DG    H2'2 1778  10.947   8.106   8.032
   56DG     O3' 1779  10.996   7.882   8.163
   57DC       P 1780  11.132   7.870   8.070
   57DC     O1P 1781  11.224   7.767   8.123
   57DC     O2P 1782  11.198   7.995   8.041
   57DC     O5' 1783  11.065   7.816   7.939
   57DC     C5' 1784  11.006   7.690   7.933
   57DC    H5'1 1785  10.923   7.687   8.004
   57DC    H5'2 1786  11.084   7.623   7.970
   57DC     C4' 1787  10.945   7.643   7.797
   57DC     H4' 1788  10.902   7.543   7.803
   57DC     O4' 1789  10.845   7.738   7.761
   57DC     C1' 1790  10.890   7.814   7.656
   57DC     H1' 1791  10.834   7.775   7.571
   57DC      N1 1792  10.850   7.956   7.672
   57DC      C6 1793  10.914   8.037   7.765
   57DC      H6 1794  10.992   7.999   7.828
   57DC      C5 1795  10.884   8.168   7.771
   57DC      H5 1796  10.951   8.228   7.832
   57DC      C4 1797  10.769   8.214   7.698
   57DC      N4 1798  10.725   8.338   7.708
   57DC     H41 1799  10.653   8.365   7.643
   57DC     H42 1800  10.771   8.401   7.772
   57DC      N3 1801  10.699   8.136   7.623
   57DC      C2 1802  10.739   8.006   7.607
   57DC      O2 1803  10.683   7.936   7.520
   57DC     C3' 1804  11.055   7.644   7.695
   57DC     H3' 1805  11.151   7.642   7.746
   57DC     C2' 1806  11.037   7.775   7.625
   57DC    H2'1 1807  11.108   7.848   7.664
   57DC    H2'2 1808  11.057   7.775   7.518
   57DC     O3' 1809  11.048   7.524   7.609
   58DA       P 1810  11.164   7.494   7.499
   58DA     O1P 1811  11.144   7.355   7.447
   58DA     O2P 1812  11.296   7.531   7.556
   58DA     O5' 1813  11.140   7.595   7.382
   58DA     C5' 1814  11.024   7.583   7.293
   58DA    H5'1 1815  10.931   7.578   7.350
   58DA    H5'2 1816  11.024   7.482   7.252
   58DA     C4' 1817  10.997   7.690   7.187
   58DA     H4' 1818  10.936   7.648   7.107
   58DA     O4' 1819  10.922   7.799   7.239
   58DA     C1' 1820  10.992   7.920   7.197
   58DA     H1' 1821  10.955   7.939   7.097
   58DA      N9 1822  10.960   8.031   7.286
   58DA      C8 1823  11.020   8.084   7.398
   58DA      H8 1824  11.096   8.032   7.456
   58DA      N7 1825  10.983   8.197   7.435
   58DA      C5 1826  10.884   8.227   7.343
   58DA      C6 1827  10.788   8.334   7.331
   58DA      N6 1828  10.778   8.433   7.414
   58DA     H61 1829  10.703   8.500   7.406
   58DA     H62 1830  10.835   8.429   7.497
   58DA      N1 1831  10.710   8.339   7.221
   58DA      C2 1832  10.704   8.231   7.142
   58DA      H2 1833  10.620   8.222   7.075
   58DA      N3 1834  10.788   8.128   7.146
   58DA      C4 1835  10.877   8.133   7.249
   58DA     C3' 1836  11.126   7.739   7.119
   58DA     H3' 1837  11.201   7.666   7.150
   58DA     C2' 1838  11.136   7.877   7.184
   58DA    H2'1 1839  11.178   7.858   7.283
   58DA    H2'2 1840  11.196   7.945   7.124
   58DA     O3' 1841  11.109   7.746   6.976
   59DC       P 1842  11.228   7.717   6.882
   59DC     O1P 1843  11.245   7.570   6.865
   59DC     O2P 1844  11.346   7.794   6.933
   59DC     O5' 1845  11.174   7.794   6.749
   59DC     C5' 1846  11.057   7.744   6.684
   59DC    H5'1 1847  11.001   7.674   6.745
   59DC    H5'2 1848  11.077   7.685   6.594
   59DC     C4' 1849  10.967   7.855   6.642
   59DC     H4' 1850  10.879   7.805   6.603
   59DC     O4' 1851  10.923   7.942   6.742
   59DC     C1' 1852  10.935   8.074   6.700
   59DC     H1' 1853  10.840   8.096   6.652
   59DC      N1 1854  10.965   8.166   6.813
   59DC      C6 1855  11.064   8.134   6.900
   59DC      H6 1856  11.123   8.044   6.890
   59DC      C5 1857  11.090   8.225   6.996
   59DC      H5 1858  11.166   8.202   7.069
   59DC      C4 1859  11.010   8.344   7.009
   59DC      N4 1860  11.026   8.427   7.112
   59DC     H41 1861  10.972   8.513   7.117
   59DC     H42 1862  11.099   8.408   7.178
   59DC      N3 1863  10.914   8.369   6.923
   59DC      C2 1864  10.885   8.277   6.830
   59DC      O2 1865  10.787   8.302   6.754
   59DC     C3' 1866  11.022   7.939   6.529
   59DC     H3' 1867  11.121   7.910   6.492
   59DC     C2' 1868  11.052   8.074   6.598
   59DC    H2'1 1869  11.149   8.060   6.645
   59DC    H2'2 1870  11.046   8.162   6.533
   59DC     O3' 1871  10.915   7.945   6.435
   60DA       P 1872  10.933   8.005   6.291
   60DA     O1P 1873  10.834   7.940   6.211
   60DA     O2P 1874  11.075   7.992   6.253
   60DA     O5' 1875  10.909   8.164   6.311
   60DA     C5' 1876  10.784   8.201   6.351
   60DA    H5'1 1877  10.775   8.178   6.457
   60DA    H5'2 1878  10.713   8.143   6.292
   60DA     C4' 1879  10.758   8.350   6.334
   60DA     H4' 1880  10.652   8.364   6.312
   60DA     O4' 1881  10.798   8.413   6.456
   60DA     C1' 1882  10.886   8.516   6.423
   60DA     H1' 1883  10.826   8.604   6.403
   60DA      N9 1884  10.982   8.537   6.531
   60DA      C8 1885  11.070   8.449   6.577
   60DA      H8 1886  11.100   8.361   6.522
   60DA      N7 1887  11.132   8.488   6.687
   60DA      C5 1888  11.073   8.615   6.714
   60DA      C6 1889  11.090   8.722   6.807
   60DA      N6 1890  11.179   8.713   6.910
   60DA     H61 1891  11.195   8.795   6.967
   60DA     H62 1892  11.227   8.625   6.916
   60DA      N1 1893  11.017   8.836   6.800
   60DA      C2 1894  10.932   8.844   6.702
   60DA      H2 1895  10.881   8.939   6.692
   60DA      N3 1896  10.901   8.751   6.610
   60DA      C4 1897  10.978   8.643   6.620
   60DA     C3' 1898  10.837   8.412   6.216
   60DA     H3' 1899  10.880   8.335   6.152
   60DA     C2' 1900  10.951   8.486   6.290
   60DA    H2'1 1901  11.039   8.424   6.303
   60DA    H2'2 1902  10.973   8.579   6.237
   60DA     O3' 1903  10.764   8.503   6.134
   61DT       P 1904  10.815   8.601   6.026
   61DT     O1P 1905  10.705   8.628   5.933
   61DT     O2P 1906  10.955   8.571   5.985
   61DT     O5' 1907  10.829   8.733   6.117
   61DT     C5' 1908  10.722   8.780   6.203
   61DT    H5'1 1909  10.716   8.730   6.299
   61DT    H5'2 1910  10.631   8.755   6.148
   61DT     C4' 1911  10.731   8.930   6.218
   61DT     H4' 1912  10.629   8.963   6.239
   61DT     O4' 1913  10.810   8.969   6.328
   61DT     C1' 1914  10.936   9.023   6.291
   61DT     H1' 1915  10.932   9.128   6.318
   61DT      N1 1916  11.051   8.959   6.360
   61DT      C6 1917  11.115   8.848   6.318
   61DT      H6 1918  11.084   8.808   6.223
   61DT      C5 1919  11.213   8.790   6.392
   61DT      C7 1920  11.284   8.670   6.340
   61DT     H71 1921  11.282   8.660   6.231
   61DT     H72 1922  11.390   8.677   6.364
   61DT     H73 1923  11.243   8.579   6.385
   61DT      C4 1924  11.262   8.852   6.514
   61DT      O4 1925  11.356   8.820   6.584
   61DT      N3 1926  11.188   8.954   6.560
   61DT      H3 1927  11.218   9.002   6.643
   61DT      C2 1928  11.087   9.011   6.487
   61DT      O2 1929  11.030   9.107   6.531
   61DT     C3' 1930  10.787   9.018   6.105
   61DT     H3' 1931  10.773   8.961   6.013
   61DT     C2' 1932  10.932   9.025   6.139
   61DT    H2'1 1933  10.976   8.932   6.106
   61DT    H2'2 1934  10.981   9.109   6.090
   61DT     O3' 1935  10.716   9.135   6.098
   62DG       P 1936  10.739   9.250   5.991
   62DG     O1P 1937  10.610   9.333   5.981
   62DG     O2P 1938  10.793   9.189   5.863
   62DG     O5' 1939  10.853   9.335   6.061
   62DG     C5' 1940  10.825   9.426   6.165
   62DG    H5'1 1941  10.788   9.375   6.254
   62DG    H5'2 1942  10.753   9.503   6.135
   62DG     C4' 1943  10.953   9.499   6.206
   62DG     H4' 1944  10.914   9.580   6.267
   62DG     O4' 1945  11.036   9.417   6.290
   62DG     C1' 1946  11.168   9.427   6.243
   62DG     H1' 1947  11.207   9.515   6.295
   62DG      N9 1948  11.243   9.318   6.291
   62DG      C8 1949  11.271   9.195   6.240
   62DG      H8 1950  11.216   9.151   6.157
   62DG      N7 1951  11.360   9.125   6.302
   62DG      C5 1952  11.397   9.213   6.408
   62DG      C6 1953  11.488   9.199   6.518
   62DG      O6 1954  11.552   9.099   6.552
   62DG      N1 1955  11.509   9.310   6.599
   62DG      H1 1956  11.570   9.298   6.679
   62DG      C2 1957  11.437   9.420   6.581
   62DG      N2 1958  11.465   9.516   6.667
   62DG     H21 1959  11.548   9.490   6.717
   62DG     H22 1960  11.416   9.604   6.662
   62DG      N3 1961  11.340   9.434   6.493
   62DG      C4 1962  11.325   9.332   6.402
   62DG     C3' 1963  11.040   9.554   6.093
   62DG     H3' 1964  10.996   9.559   5.993
   62DG     C2' 1965  11.155   9.448   6.095
   62DG    H2'1 1966  11.117   9.357   6.049
   62DG    H2'2 1967  11.251   9.481   6.055
   62DG     O3' 1968  11.100   9.683   6.121
   63DC       P 1969  11.062   9.821   6.043
   63DC     O1P 1970  10.919   9.845   6.059
   63DC     O2P 1971  11.120   9.813   5.904
   63DC     O5' 1972  11.141   9.932   6.115
   63DC     C5' 1973  11.126   9.957   6.251
   63DC    H5'1 1974  11.065   9.876   6.292
   63DC    H5'2 1975  11.087  10.057   6.269
   63DC     C4' 1976  11.259   9.948   6.324
   63DC     H4' 1977  11.249   9.990   6.424
   63DC     O4' 1978  11.302   9.816   6.353
   63DC     C1' 1979  11.449   9.819   6.346
   63DC     H1' 1980  11.492   9.843   6.443
   63DC      N1 1981  11.500   9.691   6.293
   63DC      C6 1982  11.461   9.642   6.173
   63DC      H6 1983  11.382   9.694   6.120
   63DC      C5 1984  11.508   9.521   6.128
   63DC      H5 1985  11.480   9.493   6.028
   63DC      C4 1986  11.602   9.448   6.209
   63DC      N4 1987  11.639   9.327   6.182
   63DC     H41 1988  11.701   9.277   6.243
   63DC     H42 1989  11.601   9.286   6.098
   63DC      N3 1990  11.648   9.501   6.319
   63DC      C2 1991  11.602   9.618   6.359
   63DC      O2 1992  11.659   9.661   6.459
   63DC     C3' 1993  11.375  10.036   6.260
   63DC     H3' 1994  11.355  10.079   6.162
   63DC     C2' 1995  11.488   9.936   6.258
   63DC    H2'1 1996  11.500   9.897   6.157
   63DC    H2'2 1997  11.583   9.978   6.291
   63DC     O3' 1998  11.402  10.148   6.341
   64DG3      P 1999  11.503  10.272   6.313
   64DG3    O1P 2000  11.437  10.388   6.356
   64DG3    O2P 2001  11.540  10.275   6.169
   64DG3    O5' 2002  11.636  10.245   6.394
   64DG3    C5' 2003  11.627  10.227   6.530
   64DG3   H5'1 2004  11.574  10.132   6.541
   64DG3   H5'2 2005  11.579  10.313   6.575
   64DG3    C4' 2006  11.766  10.212   6.593
   64DG3    H4' 2007  11.764  10.212   6.702
   64DG3    O4' 2008  11.829  10.085   6.574
   64DG3    C1' 2009  11.929  10.103   6.475
   64DG3    H1' 2010  12.023  10.090   6.528
   64DG3     N9 2011  11.913  10.001   6.365
   64DG3     C8 2012  11.842  10.023   6.252
   64DG3     H8 2013  11.791  10.118   6.240
   64DG3     N7 2014  11.845   9.917   6.176
   64DG3     C5 2015  11.918   9.820   6.249
   64DG3     C6 2016  11.927   9.677   6.226
   64DG3     O6 2017  11.881   9.609   6.132
   64DG3     N1 2018  11.997   9.617   6.326
   64DG3     H1 2019  12.018   9.519   6.316
   64DG3     C2 2020  12.044   9.689   6.427
   64DG3     N2 2021  12.126   9.622   6.501
   64DG3    H21 2022  12.146   9.524   6.492
   64DG3    H22 2023  12.178   9.681   6.565
   64DG3     N3 2024  12.030   9.811   6.459
   64DG3     C4 2025  11.963   9.878   6.359
   64DG3    C3' 2026  11.863  10.325   6.546
   64DG3    H3' 2027  11.808  10.412   6.510
   64DG3    C2' 2028  11.936  10.254   6.436
   64DG3   H2'1 2029  11.881  10.279   6.345
   64DG3   H2'2 2030  12.036  10.295   6.423
   64DG3    O3' 2031  11.953  10.365   6.647
   64DG3    H3T 2032  11.947  10.460   6.660
   65SOL     OW 2033   2.387   3.774   8.978
   65SOL    HW1 2034   2.331   3.766   9.056
   65SOL    HW2 2035   2.325   3.776   8.905
   66SOL     OW 2036   1.798  14.709   4.195
   66SOL    HW1 2037   1.711  14.740   4.220
   66SOL    HW2 2038   1.854  14.731   4.269
   67SOL     OW 2039   8.652  13.303  12.429
   67SOL    HW1 2040   8.731  13.309  12.482
   67SOL    HW2 2041   8.646  13.210  12.406
   68SOL     OW 2042   1.745   2.129  11.610
   68SOL    HW1 2043   1.833   2.152  11.583
   68SOL    HW2 2044   1.704   2.092  11.532
   69SOL     OW 2045   5.066  10.224  10.465
   69SOL    HW1 2046   4.996  10.263  10.517
   69SOL    HW2 2047   5.121  10.178  10.529
   70SOL     OW 2048   8.032   0.554  14.371
   70SOL    HW1 2049   8.024   0.649  14.363
   70SOL    HW2 2050   8.033   0.521  14.281
   71SOL     OW 2051  13.623   8.751   7.965
   71SOL    HW1 2052  13.685   8.733   7.894
   71SOL    HW2 2053  13.537   8.746   7.923
   72SOL     OW 2054   5.256   2.250  13.105
   72SOL    HW1 2055   5.335   2.225  13.155
   72SOL    HW2 2056   5.184   2.232  13.165
   73SOL     OW 2057  13.638  11.824   4.261
   73SOL    HW1 2058  13.651  11.851   4.352
   73SOL    HW2 2059  13.683  11.892   4.210
   74SOL     OW 2060  10.245  12.130   9.947
   74SOL    HW1 2061  10.308  12.100  10.011
   74SOL    HW2 2062  10.260  12.224   9.940
   75SOL     OW 2063   3.203  10.981  11.140
   75SOL    HW1 2064   3.205  11.026  11.225
   75SOL    HW2 2065   3.113  10.992  11.110
   76SOL     OW 2066  13.092   9.013  11.856
   76SOL    HW1 2067  13.138   9.080  11.805
   76SOL    HW2 2068  13.067   9.057  11.936
   77SOL     OW 2069   8.929   4.785   5.584
   77SOL    HW1 2070   8.913   4.801   5.491
   77SOL    HW2 2071   8.946   4.692   5.590
   78SOL     OW 2072  12.355  10.256   4.692
   78SOL    HW1 2073  12.417  10.273   4.763
   78SOL    HW2 2074  12.279  10.312   4.712
   79SOL     OW 2075   0.302   6.894  12.365
   79SOL    HW1 2076   0.228   6.896  12.426
   79SOL    HW2 2077   0.322   6.986  12.349
   80SOL     OW 2078   6.775   5.702   0.942
   80SOL    HW1 2079   6.754   5.778   0.996
   80SOL    HW2 2080   6.830   5.737   0.872
   81SOL     OW 2081   7.815   5.811   3.805
   81SOL    HW1 2082   7.872   5.753   3.754
   81SOL    HW2 2083   7.868   5.838   3.880
   82SOL     OW 2084   8.746  14.448   9.007
   82SOL    HW1 2085   8.762  14.499   9.086
   82SOL    HW2 2086   8.658  14.474   8.980
   83SOL     OW 2087  12.949  12.768   8.811
   83SOL    HW1 2088  12.894  12.767   8.889
   83SOL    HW2 2089  12.888  12.763   8.738
   84SOL     OW 2090   5.627  10.980   3.475
   84SOL    HW1 2091   5.561  11.042   3.507
   84SOL    HW2 2092   5.708  11.007   3.518
   85SOL     OW 2093  11.520   8.514   3.016
   85SOL    HW1 2094  11.525   8.428   3.058
   85SOL    HW2 2095  11.576   8.570   3.069
   86SOL     OW 2096  14.421   0.547   2.264
   86SOL    HW1 2097  14.342   0.555   2.211
   86SOL    HW2 2098  14.410   0.464   2.311
   87SOL     OW 2099  11.771   1.206   6.911
   87SOL    HW1 2100  11.691   1.155   6.924
   87SOL    HW2 2101  11.779   1.259   6.990
   88SOL     OW 2102   2.095   2.685   5.665
   88SOL    HW1 2103   2.124   2.593   5.669
   88SOL    HW2 2104   2.159   2.732   5.719
   89SOL     OW 2105   2.153   1.834  13.585
   89SOL    HW1 2106   2.218   1.904  13.572
   89SOL    HW2 2107   2.120   1.849  13.674
   90SOL     OW 2108   8.324   3.718  12.898
   90SOL    HW1 2109   8.414   3.692  12.878
   90SOL    HW2 2110   8.290   3.753  12.815
   91SOL     OW 2111   3.511  12.989   7.763
   91SOL    HW1 2112   3.561  12.937   7.825
   91SOL    HW2 2113   3.575  13.049   7.724
   92SOL     OW 2114   4.982  14.075   9.168
   92SOL    HW1 2115   4.994  14.139   9.238
   92SOL    HW2 2116   5.034  14.109   9.096
   93SOL     OW 2117   3.990   3.096  14.342
   93SOL    HW1 2118   3.896   3.107  14.355
   93SOL    HW2 2119   3.999   3.086  14.247
   94SOL     OW 2120   5.000   3.426   7.685
   94SOL    HW1 2121   4.936   3.432   7.756
   94SOL    HW2 2122   4.948   3.440   7.605
   95SOL     OW 2123  11.529  14.407   1.952
   95SOL    HW1 2124  11.537  14.353   2.031
   95SOL    HW2 2125  11.618  14.438   1.935
   96SOL     OW 2126   5.717   5.345  13.484
   96SOL    HW1 2127   5.647   5.405  13.511
   96SOL    HW2 2128   5.675   5.282  13.427
   97SOL     OW 2129   7.056   0.779   6.888
   97SOL    HW1 2130   7.089   0.690   6.902
   97SOL    HW2 2131   6.961   0.769   6.881
   98SOL     OW 2132   1.347   8.357   8.274
   98SOL    HW1 2133   1.384   8.367   8.186
   98SOL    HW2 2134   1.416   8.316   8.325
   99SOL     OW 2135  13.168  11.869   9.429
   99SOL    HW1 2136  13.134  11.786   9.395
   99SOL    HW2 2137  13.117  11.936   9.385
  100SOL     OW 2138   1.593  14.062  11.601
  100SOL    HW1 2139   1.529  14.021  11.659
  100SOL    HW2 2140   1.677  14.046  11.644
  101SOL     OW 2141   3.030   1.448  11.767
  101SOL    HW1 2142   3.090   1.519  11.789
  101SOL    HW2 2143   3.083   1.368  11.777
  102SOL     OW 2144   7.094   9.924  14.354
  102SOL    HW1 2145   7.025   9.990  14.357
  102SOL    HW2 2146   7.050   9.843  14.378
  103SOL     OW 2147   8.523   6.412   2.300
  103SOL    HW1 2148   8.461   6.363   2.246
  103SOL    HW2 2149   8.511   6.376   2.389
  104SOL     OW 2150   2.026  10.983  11.471
  104SOL    HW1 2151   1.966  10.919  11.509
  104SOL    HW2 2152   2.103  10.980  11.529
  105SOL     OW 2153   9.609   6.638   4.028
  105SOL    HW1 2154   9.601   6.630   4.124
  105SOL    HW2 2155   9.616   6.732   4.013
  106SOL     OW 2156  10.410   6.352  11.620
  106SOL    HW1 2157  10.368   6.285  11.673
  106SOL    HW2 2158  10.337   6.395  11.574
  107SOL     OW 2159   1.229  14.521  13.874
  107SOL    HW1 2160   1.264  14.604  13.842
  107SOL    HW2 2161   1.306  14.470  13.898
  108SOL     OW 2162   9.551   4.841   4.892
  108SOL    HW1 2163   9.629   4.787   4.901
  108SOL    HW2 2164   9.560   4.883   4.806
  109SOL     OW 2165  14.822  11.540  10.739
  109SOL    HW1 2166  14.849  11.459  10.696
  109SOL    HW2 2167  14.745  11.569  10.689
  110SOL     OW 2168   8.739   6.186   7.359
  110SOL    HW1 2169   8.798   6.261   7.349
  110SOL    HW2 2170   8.654   6.226   7.380
  111SOL     OW 2171  14.098   6.806   7.076
  111SOL    HW1 2172  14.075   6.814   7.168
  111SOL    HW2 2173  14.184   6.848   7.068
  112SOL     OW 2174   7.883   5.640  11.809
  112SOL    HW1 2175   7.802   5.681  11.839
  112SOL    HW2 2176   7.877   5.644  11.713
  113SOL     OW 2177  14.771   7.077  14.775
  113SOL    HW1 2178  14.723   7.097  14.856
  113SOL    HW2 2179  14.743   6.988  14.753
  114SOL     OW 2180   2.630   5.174   5.182
  114SOL    HW1 2181   2.705   5.234   5.189
  114SOL    HW2 2182   2.665   5.088   5.204
  115SOL     OW 2183   2.181   4.056   0.222
  115SOL    HW1 2184   2.184   4.147   0.191
  115SOL    HW2 2185   2.266   4.020   0.199
  116SOL     OW 2186  13.598   6.669  14.412
  116SOL    HW1 2187  13.645   6.619  14.479
  116SOL    HW2 2188  13.651   6.661  14.334
  117SOL     OW 2189   6.753   3.347  11.399
  117SOL    HW1 2190   6.804   3.360  11.479
  117SOL    HW2 2191   6.699   3.271  11.418
  118SOL     OW 2192   5.311   2.999   6.035
  118SOL    HW1 2193   5.269   2.913   6.040
  118SOL    HW2 2194   5.402   2.979   6.013
  119SOL     OW 2195  13.779  13.481   1.123
  119SOL    HW1 2196  13.857  13.518   1.082
  119SOL    HW2 2197  13.810  13.403   1.169
  120SOL     OW 2198  11.233   3.918  12.639
  120SOL    HW1 2199  11.326   3.906  12.659
  120SOL    HW2 2200  11.230   3.997  12.585
  121SOL     OW 2201   8.433   7.116   7.666
  121SOL    HW1 2202   8.360   7.154   7.715
  121SOL    HW2 2203   8.420   7.148   7.576
  122SOL     OW 2204   2.177   2.626  14.403
  122SOL    HW1 2205   2.226   2.653  14.325
  122SOL    HW2 2206   2.182   2.702  14.462
  123SOL     OW 2207   1.228  10.828  13.172
  123SOL    HW1 2208   1.182  10.776  13.106
  123SOL    HW2 2209   1.169  10.902  13.188
  124SOL     OW 2210   9.333  10.584  12.583
  124SOL    HW1 2211   9.283  10.583  12.664
  124SOL    HW2 2212   9.387  10.505  12.588
  125SOL     OW 2213   5.064  11.635   1.812
  125SOL    HW1 2214   4.968  11.634   1.810
  125SOL    HW2 2215   5.088  11.697   1.743
  126SOL     OW 2216  11.336  10.636   2.978
  126SOL    HW1 2217  11.346  10.728   3.002
  126SOL    HW2 2218  11.396  10.625   2.903
  127SOL     OW 2219  14.598   1.033   1.077
  127SOL    HW1 2220  14.523   1.071   1.122
  127SOL    HW2 2221  14.651   0.994   1.146
  128SOL     OW 2222  14.249   2.627   0.463
  128SOL    HW1 2223  14.276   2.628   0.555
  128SOL    HW2 2224  14.329   2.603   0.416
  129SOL     OW 2225   8.461   2.042   9.880
  129SOL    HW1 2226   8.402   2.115   9.897
  129SOL    HW2 2227   8.411   1.964   9.901
  130SOL     OW 2228   9.767   8.085  13.924
  130SOL    HW1 2229   9.775   8.039  13.841
  130SOL    HW2 2230   9.690   8.045  13.966
  131SOL     OW 2231  11.514   5.907  14.737
  131SOL    HW1 2232  11.482   5.948  14.656
  131SOL    HW2 2233  11.518   5.814  14.716
  132SOL     OW 2234   6.861   8.701   5.633
  132SOL    HW1 2235   6.943   8.737   5.667
  132SOL    HW2 2236   6.817   8.665   5.711
  133SOL     OW 2237   7.427   6.933   4.261
  133SOL    HW1 2238   7.486   7.005   4.237
  133SOL    HW2 2239   7.420   6.939   4.357
  134SOL     OW 2240   7.201   9.395   8.151
  134SOL    HW1 2241   7.131   9.389   8.215
  134SOL    HW2 2242   7.235   9.483   8.160
  135SOL     OW 2243   0.215  13.263  10.603
  135SOL    HW1 2244   0.298  13.216  10.605
  135SOL    HW2 2245   0.151  13.200  10.571
  136SOL     OW 2246   9.146   4.244  10.138
  136SOL    HW1 2247   9.192   4.193  10.072
  136SOL    HW2 2248   9.204   4.243  10.215
  137SOL     OW 2249   3.451   6.693   4.502
  137SOL    HW1 2250   3.469   6.753   4.575
  137SOL    HW2 2251   3.508   6.618   4.518
  138SOL     OW 2252   5.703   3.744   7.605
  138SOL    HW1 2253   5.677   3.711   7.519
  138SOL    HW2 2254   5.644   3.700   7.666
  139SOL     OW 2255   4.864   3.765   6.114
  139SOL    HW1 2256   4.956   3.790   6.102
  139SOL    HW2 2257   4.852   3.689   6.057
  140SOL     OW 2258   6.261  13.923   7.189
  140SOL    HW1 2259   6.199  13.929   7.262
  140SOL    HW2 2260   6.264  14.011   7.151
  141SOL     OW 2261   6.992  14.112  13.030
  141SOL    HW1 2262   7.008  14.120  12.936
  141SOL    HW2 2263   7.009  14.020  13.050
  142SOL     OW 2264  11.134   6.923  11.811
  142SOL    HW1 2265  11.126   6.972  11.893
  142SOL    HW2 2266  11.059   6.950  11.759
  143SOL     OW 2267   1.155   5.299   5.737
  143SOL    HW1 2268   1.066   5.292   5.772
  143SOL    HW2 2269   1.186   5.384   5.767
  144SOL     OW 2270  12.087   8.232   8.329
  144SOL    HW1 2271  12.181   8.212   8.332
  144SOL    HW2 2272  12.070   8.274   8.413
  145SOL     OW 2273   6.253   2.455   2.611
  145SOL    HW1 2274   6.284   2.540   2.643
  145SOL    HW2 2275   6.169   2.473   2.571
  146SOL     OW 2276   0.258   3.797   2.188
  146SOL    HW1 2277   0.327   3.863   2.192
  146SOL    HW2 2278   0.178   3.844   2.211
  147SOL     OW 2279   6.863   8.750   9.505
  147SOL    HW1 2280   6.882   8.768   9.413
  147SOL    HW2 2281   6.770   8.730   9.508
  148SOL     OW 2282   8.871  14.194   0.741
  148SOL    HW1 2283   8.890  14.108   0.777
  148SOL    HW2 2284   8.776  14.195   0.729
  149SOL     OW 2285   5.778   5.015   8.281
  149SOL    HW1 2286   5.721   4.966   8.341
  149SOL    HW2 2287   5.850   5.045   8.336
  150SOL     OW 2288   8.591  11.353   8.432
  150SOL    HW1 2289   8.575  11.354   8.337
  150SOL    HW2 2290   8.616  11.263   8.451
  151SOL     OW 2291  11.331  14.484   6.007
  151SOL    HW1 2292  11.396  14.481   5.936
  151SOL    HW2 2293  11.277  14.561   5.987
  152SOL     OW 2294   0.789   3.667  10.281
  152SOL    HW1 2295   0.715   3.607  10.270
  152SOL    HW2 2296   0.861   3.612  10.312
  153SOL     OW 2297  13.825  14.464   2.871
  153SOL    HW1 2298  13.742  14.443   2.829
  153SOL    HW2 2299  13.801  14.508   2.953
  154SOL     OW 2300   9.264   7.665   3.078
  154SOL    HW1 2301   9.358   7.655   3.064
  154SOL    HW2 2302   9.236   7.724   3.008
  155SOL     OW 2303   5.126   5.133   5.039
  155SOL    HW1 2304   5.165   5.221   5.033
  155SOL    HW2 2305   5.159   5.099   5.122
  156SOL     OW 2306   0.497  12.686   9.740
  156SOL    HW1 2307   0.514  12.777   9.767
  156SOL    HW2 2308   0.478  12.693   9.646
  157SOL     OW 2309   4.061   5.214   1.495
  157SOL    HW1 2310   4.086   5.151   1.563
  157SOL    HW2 2311   4.035   5.292   1.544
  158SOL     OW 2312   6.178  14.475  13.714
  158SOL    HW1 2313   6.246  14.543  13.712
  158SOL    HW2 2314   6.183  14.438  13.802
  159SOL     OW 2315   2.193  10.956   6.293
  159SOL    HW1 2316   2.104  10.925   6.278
  159SOL    HW2 2317   2.237  10.944   6.208
  160SOL     OW 2318   6.341  12.625   6.733
  160SOL    HW1 2319   6.429  12.604   6.765
  160SOL    HW2 2320   6.292  12.648   6.812
  161SOL     OW 2321   4.071   8.315   6.543
  161SOL    HW1 2322   4.156   8.324   6.585
  161SOL    HW2 2323   4.073   8.377   6.471
  162SOL     OW 2324  11.190   9.920   1.103
  162SOL    HW1 2325  11.243   9.878   1.171
  162SOL    HW2 2326  11.153   9.847   1.053
  163SOL     OW 2327  12.199  13.929   8.584
  163SOL    HW1 2328  12.295  13.929   8.575
  163SOL    HW2 2329  12.178  13.845   8.624
  164SOL     OW 2330   6.212   3.837   8.059
  164SOL    HW1 2331   6.178   3.747   8.058
  164SOL    HW2 2332   6.307   3.827   8.052
  165SOL     OW 2333   8.799   9.478  12.816
  165SOL    HW1 2334   8.729   9.458  12.878
  165SOL    HW2 2335   8.855   9.541  12.861
  166SOL     OW 2336   9.262   0.400  13.873
  166SOL    HW1 2337   9.322   0.433  13.940
  166SOL    HW2 2338   9.303   0.318  13.843
  167SOL     OW 2339   4.253  14.305   9.376
  167SOL    HW1 2340   4.318  14.375   9.386
  167SOL    HW2 2341   4.292  14.245   9.313
  168SOL     OW 2342  12.084  12.292   0.647
  168SOL    HW1 2343  12.116  12.239   0.575
  168SOL    HW2 2344  12.138  12.268   0.722
  169SOL     OW 2345  14.608   5.762  10.709
  169SOL    HW1 2346  14.570   5.829  10.766
  169SOL    HW2 2347  14.691   5.739  10.751
  170SOL     OW 2348  14.317  13.069   3.641
  170SOL    HW1 2349  14.289  13.106   3.557
  170SOL    HW2 2350  14.307  12.975   3.630
  171SOL     OW 2351  11.998   2.801  12.733
  171SOL    HW1 2352  11.940   2.737  12.690
  171SOL    HW2 2353  11.945   2.881  12.738
  172SOL     OW 2354  14.250   8.267   9.993
  172SOL    HW1 2355  14.178   8.296  10.049
  172SOL    HW2 2356  14.218   8.185   9.954
  173SOL     OW 2357  10.151   4.088   9.991
  173SOL    HW1 2358  10.137   4.083  10.085
  173SOL    HW2 2359  10.063   4.087   9.953
  174SOL     OW 2360  10.705  13.739   4.343
  174SOL    HW1 2361  10.713  13.760   4.250
  174SOL    HW2 2362  10.794  13.741   4.376
  175SOL     OW 2363  12.433  13.879   9.617
  175SOL    HW1 2364  12.465  13.902   9.530
  175SOL    HW2 2365  12.450  13.956   9.670
  176SOL     OW 2366   3.808   4.670   4.976
  176SOL    HW1 2367   3.787   4.585   5.016
  176SOL    HW2 2368   3.901   4.682   4.993
  177SOL     OW 2369   7.533  13.772   4.264
  177SOL    HW1 2370   7.562  13.690   4.302
  177SOL    HW2 2371   7.527  13.832   4.339
  178SOL     OW 2372  11.480   6.467   6.731
  178SOL    HW1 2373  11.424   6.421   6.793
  178SOL    HW2 2374  11.438   6.551   6.718
  179SOL     OW 2375  13.398   5.587   7.877
  179SOL    HW1 2376  13.410   5.675   7.913
  179SOL    HW2 2377  13.387   5.602   7.783
  180SOL     OW 2378  11.757   7.821   0.130
  180SOL    HW1 2379  11.759   7.838   0.036
  180SOL    HW2 2380  11.717   7.900   0.168
  181SOL     OW 2381  12.273   7.230  11.334
  181SOL    HW1 2382  12.303   7.309  11.289
  181SOL    HW2 2383  12.258   7.166  11.264
  182SOL     OW 2384  13.852  10.725  13.509
  182SOL    HW1 2385  13.835  10.648  13.456
  182SOL    HW2 2386  13.898  10.692  13.586
  183SOL     OW 2387   8.215  10.233   5.531
  183SOL    HW1 2388   8.161  10.241   5.610
  183SOL    HW2 2389   8.167  10.283   5.465
  184SOL     OW 2390   6.784  10.033  10.074
  184SOL    HW1 2391   6.729   9.959  10.051
  184SOL    HW2 2392   6.735  10.110  10.045
  185SOL     OW 2393   5.914  12.692  13.288
  185SOL    HW1 2394   5.871  12.620  13.335
  185SOL    HW2 2395   5.852  12.765  13.295
  186SOL     OW 2396   3.396   9.522   4.378
  186SOL    HW1 2397   3.452   9.590   4.417
  186SOL    HW2 2398   3.445   9.441   4.391
  187SOL     OW 2399  10.703   8.473   0.569
  187SOL    HW1 2400  10.608   8.463   0.565
  187SOL    HW2 2401  10.717   8.537   0.640
  188SOL     OW 2402   1.541   1.424  10.930
  188SOL    HW1 2403   1.569   1.377  10.851
  188SOL    HW2 2404   1.622   1.450  10.972
  189SOL     OW 2405   2.073   4.061  11.386
  189SOL    HW1 2406   2.091   3.972  11.417
  189SOL    HW2 2407   2.013   4.048  11.312
  190SOL     OW 2408  11.901   8.472   0.976
  190SOL    HW1 2409  11.819   8.459   0.928
  190SOL    HW2 2410  11.937   8.552   0.938
  191SOL     OW 2411   8.764  13.310   1.247
  191SOL    HW1 2412   8.749  13.404   1.249
  191SOL    HW2 2413   8.736  13.279   1.333
  192SOL     OW 2414  12.905   0.070   5.303
  192SOL    HW1 2415  12.915   0.134   5.233
  192SOL    HW2 2416  12.990   0.068   5.346
  193SOL     OW 2417   9.306   2.785   7.289
  193SOL    HW1 2418   9.262   2.748   7.212
  193SOL    HW2 2419   9.292   2.721   7.358
  194SOL     OW 2420   5.649   8.579   7.376
  194SOL    HW1 2421   5.614   8.625   7.452
  194SOL    HW2 2422   5.743   8.574   7.392
  195SOL     OW 2423   5.940   1.446   3.850
  195SOL    HW1 2424   5.916   1.355   3.829
  195SOL    HW2 2425   6.026   1.457   3.810
  196SOL     OW 2426   7.813   4.493   7.465
  196SOL    HW1 2427   7.855   4.576   7.486
  196SOL    HW2 2428   7.883   4.428   7.471
  197SOL     OW 2429   7.040   3.950   9.283
  197SOL    HW1 2430   6.947   3.951   9.259
  197SOL    HW2 2431   7.086   3.929   9.202
  198SOL     OW 2432   0.592   0.835  11.490
  198SOL    HW1 2433   0.675   0.789  11.478
  198SOL    HW2 2434   0.548   0.829  11.405
  199SOL     OW 2435   2.283  11.846  13.342
  199SOL    HW1 2436   2.345  11.817  13.409
  199SOL    HW2 2437   2.217  11.776  13.339
  200SOL     OW 2438  14.758   1.668   5.278
  200SOL    HW1 2439  14.737   1.756   5.248
  200SOL    HW2 2440  14.853   1.663   5.275
  201SOL     OW 2441   1.658  12.703  14.267
  201SOL    HW1 2442   1.640  12.763  14.339
  201SOL    HW2 2443   1.753  12.691  14.269
  202SOL     OW 2444   5.061   3.966   4.891
  202SOL    HW1 2445   4.978   3.931   4.857
  202SOL    HW2 2446   5.095   3.895   4.947
  203SOL     OW 2447   1.999   0.306   1.404
  203SOL    HW1 2448   1.932   0.237   1.404
  203SOL    HW2 2449   1.983   0.355   1.485
  204SOL     OW 2450   1.281   8.961   7.409
  204SOL    HW1 2451   1.242   8.875   7.393
  204SOL    HW2 2452   1.216   9.008   7.461
  205SOL     OW 2453  11.354  13.197  10.695
  205SOL    HW1 2454  11.301  13.272  10.723
  205SOL    HW2 2455  11.321  13.176  10.608
  206SOL     OW 2456   2.317  10.300   7.708
  206SOL    HW1 2457   2.285  10.372   7.654
  206SOL    HW2 2458   2.411  10.299   7.694
  207SOL     OW 2459   3.285  14.155  14.649
  207SOL    HW1 2460   3.308  14.132  14.559
  207SOL    HW2 2461   3.350  14.221  14.674
  208SOL     OW 2462   2.236   2.112  11.557
  208SOL    HW1 2463   2.288   2.188  11.531
  208SOL    HW2 2464   2.232   2.118  11.653
  209SOL     OW 2465   1.780   5.721   3.636
  209SOL    HW1 2466   1.717   5.649   3.641
  209SOL    HW2 2467   1.726   5.800   3.644
  210SOL     OW 2468  14.795  12.548   1.205
  210SOL    HW1 2469  14.723  12.577   1.149
  210SOL    HW2 2470  14.840  12.481   1.154
  211SOL     OW 2471  11.281  13.864  13.319
  211SOL    HW1 2472  11.364  13.899  13.351
  211SOL    HW2 2473  11.247  13.931  13.260
  212SOL     OW 2474   6.507   4.799   1.493
  212SOL    HW1 2475   6.567   4.747   1.546
  212SOL    HW2 2476   6.504   4.884   1.536
  213SOL     OW 2477   3.374   2.413   2.071
  213SOL    HW1 2478   3.339   2.327   2.096
  213SOL    HW2 2479   3.319   2.442   1.999
  214SOL     OW 2480  10.401   6.108   0.452
  214SOL    HW1 2481  10.357   6.038   0.500
  214SOL    HW2 2482  10.353   6.115   0.369
  215SOL     OW 2483   4.027   8.702   5.527
  215SOL    HW1 2484   3.948   8.756   5.524
  215SOL    HW2 2485   4.023   8.658   5.612
  216SOL     OW 2486   9.947   8.634   0.314
  216SOL    HW1 2487   9.963   8.691   0.239
  216SOL    HW2 2488   9.880   8.679   0.365
  217SOL     OW 2489   4.165   8.123   0.528
  217SOL    HW1 2490   4.248   8.153   0.566
  217SOL    HW2 2491   4.181   8.032   0.503
  218SOL     OW 2492  12.751  13.654   4.837
  218SOL    HW1 2493  12.719  13.697   4.916
  218SOL    HW2 2494  12.702  13.572   4.832
  219SOL     OW 2495   4.638   1.679   5.236
  219SOL    HW1 2496   4.613   1.759   5.281
  219SOL    HW2 2497   4.628   1.699   5.143
  220SOL     OW 2498   0.131   2.239  12.543
  220SOL    HW1 2499   0.114   2.327  12.509
  220SOL    HW2 2500   0.081   2.236  12.625
  221SOL     OW 2501   0.106   4.228   4.813
  221SOL    HW1 2502   0.081   4.138   4.790
  221SOL    HW2 2503   0.036   4.282   4.777
  222SOL     OW 2504   9.144   1.217   5.281
  222SOL    HW1 2505   9.076   1.152   5.263
  222SOL    HW2 2506   9.152   1.218   5.376
  223SOL     OW 2507   4.679   5.561   9.797
  223SOL    HW1 2508   4.725   5.622   9.855
  223SOL    HW2 2509   4.617   5.617   9.749
  224SOL     OW 2510   0.382   2.057   4.931
  224SOL    HW1 2511   0.326   2.039   5.007
  224SOL    HW2 2512   0.325   2.041   4.855
  225SOL     OW 2513   7.109  12.362   3.165
  225SOL    HW1 2514   7.189  12.409   3.188
  225SOL    HW2 2515   7.115  12.278   3.210
  226SOL     OW 2516  10.985   4.303  13.867
  226SOL    HW1 2517  10.917   4.251  13.910
  226SOL    HW2 2518  11.020   4.246  13.799
  227SOL     OW 2519   9.562  11.801   2.739
  227SOL    HW1 2520   9.609  11.871   2.785
  227SOL    HW2 2521   9.492  11.847   2.693
  228SOL     OW 2522   3.585   3.249   6.525
  228SOL    HW1 2523   3.659   3.226   6.581
  228SOL    HW2 2524   3.591   3.188   6.451
  229SOL     OW 2525   8.693  13.317   3.887
  229SOL    HW1 2526   8.650  13.242   3.846
  229SOL    HW2 2527   8.786  13.296   3.884
  230SOL     OW 2528   4.404   1.559   0.990
  230SOL    HW1 2529   4.320   1.521   1.018
  230SOL    HW2 2530   4.460   1.483   0.975
  231SOL     OW 2531   2.510  13.480  11.867
  231SOL    HW1 2532   2.526  13.553  11.928
  231SOL    HW2 2533   2.469  13.412  11.921
  232SOL     OW 2534  10.076  12.007   5.236
  232SOL    HW1 2535  10.135  12.082   5.227
  232SOL    HW2 2536  10.134  11.933   5.253
  233SOL     OW 2537   9.420  12.541  11.211
  233SOL    HW1 2538   9.405  12.625  11.168
  233SOL    HW2 2539   9.454  12.484  11.141
  234SOL     OW 2540  13.095   0.852  11.687
  234SOL    HW1 2541  13.031   0.848  11.616
  234SOL    HW2 2542  13.073   0.779  11.744
  235SOL     OW 2543   0.542   6.520   9.554
  235SOL    HW1 2544   0.551   6.484   9.642
  235SOL    HW2 2545   0.632   6.532   9.524
  236SOL     OW 2546  14.201   8.525   7.781
  236SOL    HW1 2547  14.128   8.566   7.828
  236SOL    HW2 2548  14.193   8.557   7.691
  237SOL     OW 2549   1.973  12.834   7.901
  237SOL    HW1 2550   1.921  12.913   7.916
  237SOL    HW2 2551   1.948  12.775   7.973
  238SOL     OW 2552  10.152  10.952   6.169
  238SOL    HW1 2553  10.213  11.025   6.172
  238SOL    HW2 2554  10.118  10.945   6.259
  239SOL     OW 2555   2.389  10.489   2.391
  239SOL    HW1 2556   2.324  10.483   2.461
  239SOL    HW2 2557   2.402  10.399   2.362
  240SOL     OW 2558  11.073   8.664   7.355
  240SOL    HW1 2559  11.156   8.620   7.334
  240SOL    HW2 2560  11.018   8.650   7.279
  241SOL     OW 2561   5.308   7.587   9.641
  241SOL    HW1 2562   5.232   7.578   9.700
  241SOL    HW2 2563   5.370   7.642   9.690
  242SOL     OW 2564   4.282  14.551  11.035
  242SOL    HW1 2565   4.306  14.460  11.052
  242SOL    HW2 2566   4.320  14.570  10.949
  243SOL     OW 2567   2.445   4.969  10.712
  243SOL    HW1 2568   2.478   4.885  10.741
  243SOL    HW2 2569   2.521   5.027  10.715
  244SOL     OW 2570  14.681   3.510  11.313
  244SOL    HW1 2571  14.701   3.522  11.406
  244SOL    HW2 2572  14.631   3.429  11.309
  245SOL     OW 2573   7.408   4.949   0.072
  245SOL    HW1 2574   7.364   5.031   0.093
  245SOL    HW2 2575   7.347   4.902   0.016
  246SOL     OW 2576   0.905   0.641  12.379
  246SOL    HW1 2577   0.943   0.563  12.419
  246SOL    HW2 2578   0.935   0.639  12.288
  247SOL     OW 2579   0.472   9.224   2.677
  247SOL    HW1 2580   0.418   9.147   2.693
  247SOL    HW2 2581   0.441   9.290   2.739
  248SOL     OW 2582   3.933  14.736   1.279
  248SOL    HW1 2583   3.963  14.649   1.305
  248SOL    HW2 2584   3.965  14.747   1.189
  249SOL     OW 2585   2.954   6.214   1.391
  249SOL    HW1 2586   2.871   6.235   1.348
  249SOL    HW2 2587   2.928   6.184   1.478
  250SOL     OW 2588   0.290   4.035  13.036
  250SOL    HW1 2589   0.200   4.065  13.047
  250SOL    HW2 2590   0.299   3.963  13.099
  251SOL     OW 2591   0.342   2.149   8.201
  251SOL    HW1 2592   0.405   2.197   8.146
  251SOL    HW2 2593   0.260   2.151   8.151
  252SOL     OW 2594   1.457  12.110   4.399
  252SOL    HW1 2595   1.479  12.035   4.345
  252SOL    HW2 2596   1.389  12.156   4.351
  253SOL     OW 2597  14.276   7.684  10.399
  253SOL    HW1 2598  14.271   7.717  10.309
  253SOL    HW2 2599  14.370   7.680  10.417
  254SOL     OW 2600   8.211   4.550  13.360
  254SOL    HW1 2601   8.253   4.475  13.400
  254SOL    HW2 2602   8.177   4.517  13.276
  255SOL     OW 2603   0.521   3.808   1.853
  255SOL    HW1 2604   0.550   3.763   1.932
  255SOL    HW2 2605   0.507   3.898   1.880
  256SOL     OW 2606   9.886  12.831  12.751
  256SOL    HW1 2607   9.819  12.770  12.780
  256SOL    HW2 2608   9.844  12.881  12.681
  257SOL     OW 2609   2.492   5.331  12.343
  257SOL    HW1 2610   2.518   5.355  12.254
  257SOL    HW2 2611   2.533   5.246  12.359
  258SOL     OW 2612   1.038  14.414   4.216
  258SOL    HW1 2613   0.985  14.359   4.272
  258SOL    HW2 2614   1.129  14.392   4.238
  259SOL     OW 2615  13.520   8.369   3.278
  259SOL    HW1 2616  13.459   8.350   3.349
  259SOL    HW2 2617  13.478   8.440   3.229
  260SOL     OW 2618   8.495   7.039   3.291
  260SOL    HW1 2619   8.411   7.085   3.286
  260SOL    HW2 2620   8.559   7.109   3.308
  261SOL     OW 2621   6.251   2.217   9.704
  261SOL    HW1 2622   6.252   2.309   9.678
  261SOL    HW2 2623   6.218   2.171   9.626
  262SOL     OW 2624  10.658   7.474   7.458
  262SOL    HW1 2625  10.661   7.560   7.416
  262SOL    HW2 2626  10.578   7.434   7.424
  263SOL     OW 2627   3.845   0.841   0.642
  263SOL    HW1 2628   3.826   0.867   0.732
  263SOL    HW2 2629   3.813   0.914   0.588
  264SOL     OW 2630  12.614  10.666  12.920
  264SOL    HW1 2631  12.648  10.743  12.966
  264SOL    HW2 2632  12.639  10.680  12.829
  265SOL     OW 2633   8.264   0.824  14.498
  265SOL    HW1 2634   8.200   0.825  14.427
  265SOL    HW2 2635   8.220   0.866  14.571
  266SOL     OW 2636   2.125  10.629   6.611
  266SOL    HW1 2637   2.136  10.672   6.695
  266SOL    HW2 2638   2.172  10.685   6.549
  267SOL     OW 2639   2.034  11.924   0.574
  267SOL    HW1 2640   2.042  11.975   0.655
  267SOL    HW2 2641   2.124  11.913   0.543
  268SOL     OW 2642   7.536   7.311   7.447
  268SOL    HW1 2643   7.498   7.240   7.499
  268SOL    HW2 2644   7.502   7.391   7.487
  269SOL     OW 2645   5.479  13.635   9.579
  269SOL    HW1 2646   5.450  13.721   9.551
  269SOL    HW2 2647   5.428  13.617   9.658
  270SOL     OW 2648   3.729   7.187   0.066
  270SOL    HW1 2649   3.779   7.178  14.858
  270SOL    HW2 2650   3.710   7.281   0.072
  271SOL     OW 2651  12.469  12.540   1.792
  271SOL    HW1 2652  12.513  12.625   1.798
  271SOL    HW2 2653  12.447  12.531   1.699
  272SOL     OW 2654   0.599  11.525  13.156
  272SOL    HW1 2655   0.676  11.548  13.209
  272SOL    HW2 2656   0.537  11.487  13.219
  273SOL     OW 2657   6.247   2.700  11.244
  273SOL    HW1 2658   6.253   2.607  11.222
  273SOL    HW2 2659   6.295   2.744  11.174
  274SOL     OW 2660  13.240   8.265   4.723
  274SOL    HW1 2661  13.157   8.216   4.729
  274SOL    HW2 2662  13.307   8.197   4.716
  275SOL     OW 2663  10.201   7.605  10.369
  275SOL    HW1 2664  10.175   7.586  10.279
  275SOL    HW2 2665  10.290   7.639  10.362
  276SOL     OW 2666   9.419   1.792   9.627
  276SOL    HW1 2667   9.474   1.771   9.702
  276SOL    HW2 2668   9.383   1.708   9.599
  277SOL     OW 2669   7.282   1.528   1.483
  277SOL    HW1 2670   7.275   1.608   1.536
  277SOL    HW2 2671   7.197   1.484   1.495
  278SOL     OW 2672  14.277   6.124  13.796
  278SOL    HW1 2673  14.347   6.066  13.765
  278SOL    HW2 2674  14.316   6.211  13.796
  279SOL     OW 2675   4.046   2.927   4.594
  279SOL    HW1 2676   3.960   2.931   4.552
  279SOL    HW2 2677   4.026   2.916   4.687
  280SOL     OW 2678   4.798   0.376   3.681
  280SOL    HW1 2679   4.842   0.317   3.743
  280SOL    HW2 2680   4.725   0.412   3.731
  281SOL     OW 2681   5.014   4.907  13.266
  281SOL    HW1 2682   4.970   4.853  13.332
  281SOL    HW2 2683   5.018   4.851  13.188
  282SOL     OW 2684   4.364   3.338  10.107
  282SOL    HW1 2685   4.332   3.272  10.045
  282SOL    HW2 2686   4.289   3.396  10.121
  283SOL     OW 2687  10.401   2.025   3.490
  283SOL    HW1 2688  10.491   2.011   3.519
  283SOL    HW2 2689  10.409   2.084   3.415
  284SOL     OW 2690   9.878   3.594   4.800
  284SOL    HW1 2691   9.954   3.536   4.797
  284SOL    HW2 2692   9.885   3.646   4.720
  285SOL     OW 2693  10.810  12.259   8.533
  285SOL    HW1 2694  10.896  12.221   8.513
  285SOL    HW2 2695  10.792  12.317   8.459
  286SOL     OW 2696   8.567   1.825   2.931
  286SOL    HW1 2697   8.631   1.828   3.002
  286SOL    HW2 2698   8.484   1.804   2.974
  287SOL     OW 2699  12.922  14.416   3.590
  287SOL    HW1 2700  12.979  14.369   3.650
  287SOL    HW2 2701  12.844  14.361   3.583
  288SOL     OW 2702   8.380   4.111   5.152
  288SOL    HW1 2703   8.438   4.083   5.223
  288SOL    HW2 2704   8.293   4.084   5.181
  289SOL     OW 2705   5.379   2.535   8.375
  289SOL    HW1 2706   5.417   2.535   8.463
  289SOL    HW2 2707   5.357   2.627   8.358
  290SOL     OW 2708  13.677  14.513  12.528
  290SOL    HW1 2709  13.675  14.590  12.584
  290SOL    HW2 2710  13.615  14.533  12.458
  291SOL     OW 2711   5.606   8.114   0.838
  291SOL    HW1 2712   5.608   8.019   0.826
  291SOL    HW2 2713   5.645   8.127   0.925
  292SOL     OW 2714  10.896   2.268  13.387
  292SOL    HW1 2715  10.828   2.316  13.339
  292SOL    HW2 2716  10.914   2.192  13.333
  293SOL     OW 2717   9.282   5.575   3.017
  293SOL    HW1 2718   9.194   5.596   3.047
  293SOL    HW2 2719   9.304   5.493   3.061
  294SOL     OW 2720   7.466  13.896   2.910
  294SOL    HW1 2721   7.560  13.906   2.898
  294SOL    HW2 2722   7.449  13.803   2.897
  295SOL     OW 2723  10.467   6.883  10.031
  295SOL    HW1 2724  10.494   6.889   9.939
  295SOL    HW2 2725  10.450   6.974  10.056
  296SOL     OW 2726  13.614   4.169   7.786
  296SOL    HW1 2727  13.584   4.232   7.852
  296SOL    HW2 2728  13.661   4.102   7.836
  297SOL     OW 2729  13.453  11.229   7.934
  297SOL    HW1 2730  13.366  11.232   7.896
  297SOL    HW2 2731  13.438  11.229   8.029
  298SOL     OW 2732  13.165   7.658   5.126
  298SOL    HW1 2733  13.102   7.638   5.196
  298SOL    HW2 2734  13.243   7.688   5.172
  299SOL     OW 2735  10.179  12.279  13.107
  299SOL    HW1 2736  10.249  12.336  13.138
  299SOL    HW2 2737  10.223  12.196  13.087
  300SOL     OW 2738   6.434   1.766  12.595
  300SOL    HW1 2739   6.381   1.844  12.613
  300SOL    HW2 2740   6.513   1.800  12.553
  301SOL     OW 2741  14.717   6.386   8.751
  301SOL    HW1 2742  14.772   6.308   8.739
  301SOL    HW2 2743  14.684   6.378   8.841
  302SOL     OW 2744   2.297  11.702   5.492
  302SOL    HW1 2745   2.316  11.749   5.410
  302SOL    HW2 2746   2.202  11.694   5.494
  303SOL     OW 2747  12.107   1.074  10.065
  303SOL    HW1 2748  12.021   1.115  10.054
  303SOL    HW2 2749  12.169   1.147  10.067
  304SOL     OW 2750   6.449  13.252   3.469
  304SOL    HW1 2751   6.396  13.188   3.517
  304SOL    HW2 2752   6.490  13.201   3.399
  305SOL     OW 2753   2.019   6.536   4.996
  305SOL    HW1 2754   1.959   6.595   4.951
  305SOL    HW2 2755   2.003   6.450   4.957
  306SOL     OW 2756   2.581  11.327   8.039
  306SOL    HW1 2757   2.497  11.348   8.079
  306SOL    HW2 2758   2.632  11.289   8.110
  307SOL     OW 2759  12.254   7.518  14.592
  307SOL    HW1 2760  12.215   7.451  14.647
  307SOL    HW2 2761  12.245   7.599  14.642
  308SOL     OW 2762   4.242   9.328  12.814
  308SOL    HW1 2763   4.278   9.416  12.803
  308SOL    HW2 2764   4.223   9.321  12.907
  309SOL     OW 2765  14.613   2.290   1.216
  309SOL    HW1 2766  14.699   2.330   1.219
  309SOL    HW2 2767  14.602   2.261   1.126
  310SOL     OW 2768   4.294   5.948  10.414
  310SOL    HW1 2769   4.240   6.026  10.422
  310SOL    HW2 2770   4.236   5.883  10.374
  311SOL     OW 2771  13.145   0.267  13.009
  311SOL    HW1 2772  13.198   0.189  12.993
  311SOL    HW2 2773  13.069   0.256  12.952
  312SOL     OW 2774   1.964   5.617  11.736
  312SOL    HW1 2775   2.043   5.597  11.686
  312SOL    HW2 2776   1.892   5.596  11.676
  313SOL     OW 2777   1.678   4.951  12.596
  313SOL    HW1 2778   1.616   5.024  12.593
  313SOL    HW2 2779   1.713   4.947  12.507
  314SOL     OW 2780   1.580   5.634   0.677
  314SOL    HW1 2781   1.547   5.662   0.592
  314SOL    HW2 2782   1.660   5.586   0.657
  315SOL     OW 2783   7.469   7.150   3.635
  315SOL    HW1 2784   7.517   7.220   3.679
  315SOL    HW2 2785   7.537   7.096   3.595
  316SOL     OW 2786   5.927   7.242   4.160
  316SOL    HW1 2787   5.922   7.335   4.181
  316SOL    HW2 2788   5.915   7.239   4.065
  317SOL     OW 2789   3.992   7.214   4.813
  317SOL    HW1 2790   3.976   7.124   4.840
  317SOL    HW2 2791   3.988   7.212   4.718
  318SOL     OW 2792   3.122  13.442  13.271
  318SOL    HW1 2793   3.057  13.506  13.239
  318SOL    HW2 2794   3.069  13.366  13.296
  319SOL     OW 2795   4.473   2.577   0.710
  319SOL    HW1 2796   4.561   2.547   0.691
  319SOL    HW2 2797   4.436   2.601   0.625
  320SOL     OW 2798  13.028   8.248  13.544
  320SOL    HW1 2799  13.105   8.191  13.549
  320SOL    HW2 2800  12.958   8.197  13.586
  321SOL     OW 2801   8.354   9.323   6.346
  321SOL    HW1 2802   8.277   9.376   6.328
  321SOL    HW2 2803   8.325   9.233   6.335
  322SOL     OW 2804  12.261   4.840   2.513
  322SOL    HW1 2805  12.316   4.781   2.462
  322SOL    HW2 2806  12.228   4.904   2.450
  323SOL     OW 2807   5.194  12.008  12.351
  323SOL    HW1 2808   5.185  11.970  12.438
  323SOL    HW2 2809   5.144  12.090  12.356
  324SOL     OW 2810   9.232  14.610   7.372
  324SOL    HW1 2811   9.281  14.587   7.451
  324SOL    HW2 2812   9.140  14.603   7.399
  325SOL     OW 2813   2.542   5.494   7.385
  325SOL    HW1 2814   2.534   5.586   7.411
  325SOL    HW2 2815   2.513   5.444   7.461
  326SOL     OW 2816   8.132   2.464   1.677
  326SOL    HW1 2817   8.189   2.506   1.741
  326SOL    HW2 2818   8.055   2.436   1.728
  327SOL     OW 2819   0.664  14.488   8.369
  327SOL    HW1 2820   0.680  14.475   8.275
  327SOL    HW2 2821   0.725  14.427   8.412
  328SOL     OW 2822   0.458   0.056   2.201
  328SOL    HW1 2823   0.491   0.010   2.279
  328SOL    HW2 2824   0.456  14.862   2.133
  329SOL     OW 2825   1.768   1.305  12.573
  329SOL    HW1 2826   1.789   1.253  12.495
  329SOL    HW2 2827   1.672   1.299  12.580
  330SOL     OW 2828  12.574   0.323  10.691
  330SOL    HW1 2829  12.576   0.293  10.601
  330SOL    HW2 2830  12.584   0.418  10.685
  331SOL     OW 2831   8.319   6.257   5.943
  331SOL    HW1 2832   8.395   6.251   6.001
  331SOL    HW2 2833   8.264   6.182   5.968
  332SOL     OW 2834   1.358  14.182  14.867
  332SOL    HW1 2835   1.449  14.178  14.836
  332SOL    HW2 2836   1.308  14.135  14.801
  333SOL     OW 2837   9.376  10.164   8.500
  333SOL    HW1 2838   9.344  10.075   8.486
  333SOL    HW2 2839   9.436  10.179   8.428
  334SOL     OW 2840  10.831   3.310   2.004
  334SOL    HW1 2841  10.921   3.287   2.027
  334SOL    HW2 2842  10.837   3.348   1.917
  335SOL     OW 2843   0.870   2.306  11.680
  335SOL    HW1 2844   0.924   2.374  11.720
  335SOL    HW2 2845   0.789   2.306  11.732
  336SOL     OW 2846   8.329   1.910   5.394
  336SOL    HW1 2847   8.399   1.868   5.344
  336SOL    HW2 2848   8.261   1.843   5.402
  337SOL     OW 2849  11.610   0.932   3.646
  337SOL    HW1 2850  11.579   0.883   3.570
  337SOL    HW2 2851  11.705   0.933   3.636
  338SOL     OW 2852  14.261   7.189   8.646
  338SOL    HW1 2853  14.264   7.101   8.608
  338SOL    HW2 2854  14.242   7.175   8.738
  339SOL     OW 2855   9.761   8.937  10.675
  339SOL    HW1 2856   9.836   8.926  10.618
  339SOL    HW2 2857   9.725   8.848  10.686
  340SOL     OW 2858   6.648   2.959  13.606
  340SOL    HW1 2859   6.670   3.052  13.610
  340SOL    HW2 2860   6.680   2.923  13.689
  341SOL     OW 2861   9.424   3.212  12.589
  341SOL    HW1 2862   9.352   3.246  12.537
  341SOL    HW2 2863   9.461   3.141  12.536
  342SOL     OW 2864   2.229  10.899   3.944
  342SOL    HW1 2865   2.261  10.954   4.015
  342SOL    HW2 2866   2.181  10.959   3.886
  343SOL     OW 2867   9.196  12.552  10.650
  343SOL    HW1 2868   9.263  12.618  10.630
  343SOL    HW2 2869   9.224  12.516  10.735
  344SOL     OW 2870   6.513  10.832   4.231
  344SOL    HW1 2871   6.574  10.826   4.304
  344SOL    HW2 2872   6.483  10.923   4.232
  345SOL     OW 2873   0.251   4.065   1.811
  345SOL    HW1 2874   0.312   4.066   1.885
  345SOL    HW2 2875   0.307   4.064   1.733
  346SOL     OW 2876   7.930   1.443   8.011
  346SOL    HW1 2877   7.839   1.466   7.996
  346SOL    HW2 2878   7.945   1.365   7.957
  347SOL     OW 2879   5.096   9.736   1.817
  347SOL    HW1 2880   5.090   9.787   1.736
  347SOL    HW2 2881   5.190   9.724   1.831
  348SOL     OW 2882   2.099   2.075  10.585
  348SOL    HW1 2883   2.137   2.120  10.660
  348SOL    HW2 2884   2.054   2.000  10.623
  349SOL     OW 2885   3.519  13.758   7.170
  349SOL    HW1 2886   3.534  13.665   7.184
  349SOL    HW2 2887   3.457  13.762   7.097
  350SOL     OW 2888   8.705  14.207  12.039
  350SOL    HW1 2889   8.645  14.281  12.044
  350SOL    HW2 2890   8.779  14.233  12.095
  351SOL     OW 2891   0.424   8.046   2.464
  351SOL    HW1 2892   0.420   8.080   2.374
  351SOL    HW2 2893   0.353   7.983   2.469
  352SOL     OW 2894  13.440   0.280   9.492
  352SOL    HW1 2895  13.353   0.245   9.472
  352SOL    HW2 2896  13.428   0.375   9.493
  353SOL     OW 2897  10.262   4.413  14.185
  353SOL    HW1 2898  10.295   4.434  14.098
  353SOL    HW2 2899  10.249   4.318  14.183
  354SOL     OW 2900   5.488  10.333   3.294
  354SOL    HW1 2901   5.542  10.260   3.263
  354SOL    HW2 2902   5.501  10.402   3.229
  355SOL     OW 2903  12.226   0.728  11.546
  355SOL    HW1 2904  12.195   0.816  11.528
  355SOL    HW2 2905  12.195   0.676  11.471
  356SOL     OW 2906   2.371  10.138   4.087
  356SOL    HW1 2907   2.454  10.092   4.079
  356SOL    HW2 2908   2.349  10.163   3.997
  357SOL     OW 2909   2.480   0.002   4.714
  357SOL    HW1 2910   2.417  14.855   4.783
  357SOL    HW2 2911   2.555  14.818   4.732
  358SOL     OW 2912   7.911  13.797   0.451
  358SOL    HW1 2913   7.904  13.870   0.512
  358SOL    HW2 2914   7.930  13.721   0.506
  359SOL     OW 2915   8.131   6.401  12.640
  359SOL    HW1 2916   8.186   6.394  12.562
  359SOL    HW2 2917   8.075   6.476  12.623
  360SOL     OW 2918  13.212  14.331  14.198
  360SOL    HW1 2919  13.131  14.282  14.182
  360SOL    HW2 2920  13.263  14.275  14.257
  361SOL     OW 2921   2.148   9.578   5.549
  361SOL    HW1 2922   2.118   9.526   5.475
  361SOL    HW2 2923   2.076   9.639   5.566
  362SOL     OW 2924  14.666  10.120  11.211
  362SOL    HW1 2925  14.586  10.070  11.195
  362SOL    HW2 2926  14.687  10.103  11.303
  363SOL     OW 2927   7.687   4.378  11.824
  363SOL    HW1 2928   7.597   4.404  11.846
  363SOL    HW2 2929   7.684   4.282  11.824
  364SOL     OW 2930   7.582   5.442  14.291
  364SOL    HW1 2931   7.625   5.356  14.294
  364SOL    HW2 2932   7.527   5.444  14.370
  365SOL     OW 2933  12.557   6.496   6.417
  365SOL    HW1 2934  12.642   6.539   6.420
  365SOL    HW2 2935  12.500   6.550   6.472
  366SOL     OW 2936   7.524  12.306   5.281
  366SOL    HW1 2937   7.510  12.399   5.300
  366SOL    HW2 2938   7.445  12.278   5.235
  367SOL     OW 2939  13.184   9.636  11.453
  367SOL    HW1 2940  13.094   9.603  11.456
  367SOL    HW2 2941  13.237   9.564  11.486
  368SOL     OW 2942   0.951   0.617   3.136
  368SOL    HW1 2943   0.983   0.568   3.212
  368SOL    HW2 2944   0.965   0.709   3.159
  369SOL     OW 2945   7.984  14.135   1.771
  369SOL    HW1 2946   7.913  14.198   1.759
  369SOL    HW2 2947   7.985  14.118   1.865
  370SOL     OW 2948   2.986   1.158  13.954
  370SOL    HW1 2949   3.009   1.246  13.925
  370SOL    HW2 2950   3.059   1.103  13.928
  371SOL     OW 2951   2.465   8.935   2.934
  371SOL    HW1 2952   2.556   8.911   2.915
  371SOL    HW2 2953   2.414   8.891   2.866
  372SOL     OW 2954   4.540   5.860  10.535
  372SOL    HW1 2955   4.459   5.859  10.484
  372SOL    HW2 2956   4.610   5.865  10.470
  373SOL     OW 2957   9.790   9.723   8.428
  373SOL    HW1 2958   9.794   9.818   8.433
  373SOL    HW2 2959   9.813   9.694   8.517
  374SOL     OW 2960  11.614  13.399   5.214
  374SOL    HW1 2961  11.583  13.358   5.134
  374SOL    HW2 2962  11.560  13.361   5.284
  375SOL     OW 2963   8.297  10.980   0.247
  375SOL    HW1 2964   8.322  11.072   0.255
  375SOL    HW2 2965   8.349  10.935   0.313
  376SOL     OW 2966   2.209   2.277   1.997
  376SOL    HW1 2967   2.242   2.203   1.947
  376SOL    HW2 2968   2.156   2.327   1.935
  377SOL     OW 2969  10.746  10.224   7.187
  377SOL    HW1 2970  10.835  10.203   7.158
  377SOL    HW2 2971  10.690  10.165   7.136
  378SOL     OW 2972   2.796   8.905  13.792
  378SOL    HW1 2973   2.875   8.851  13.798
  378SOL    HW2 2974   2.791   8.949  13.877
  379SOL     OW 2975   6.137   6.444   5.367
  379SOL    HW1 2976   6.201   6.434   5.437
  379SOL    HW2 2977   6.080   6.516   5.396
  380SOL     OW 2978   0.827  11.467  12.883
  380SOL    HW1 2979   0.769  11.534  12.917
  380SOL    HW2 2980   0.886  11.447  12.955
  381SOL     OW 2981   9.474  14.687   0.996
  381SOL    HW1 2982   9.566  14.695   1.021
  381SOL    HW2 2983   9.452  14.595   1.012
  382SOL     OW 2984  13.122   9.470   5.482
  382SOL    HW1 2985  13.034   9.431   5.480
  382SOL    HW2 2986  13.152   9.456   5.572
  383SOL     OW 2987   2.721  11.318   5.917
  383SOL    HW1 2988   2.721  11.226   5.891
  383SOL    HW2 2989   2.635  11.331   5.956
  384SOL     OW 2990   0.506   2.733  12.964
  384SOL    HW1 2991   0.496   2.823  12.932
  384SOL    HW2 2992   0.504   2.741  13.060
  385SOL     OW 2993  13.678   5.390   0.134
  385SOL    HW1 2994  13.754   5.339   0.162
  385SOL    HW2 2995  13.688   5.400   0.040
  386SOL     OW 2996   5.668   5.968   7.841
  386SOL    HW1 2997   5.661   5.877   7.870
  386SOL    HW2 2998   5.744   6.002   7.889
  387SOL     OW 2999   2.029   2.654   1.981
  387SOL    HW1 3000   1.940   2.627   2.004
  387SOL    HW2 3001   2.080   2.636   2.059
  388SOL     OW 3002   7.085   8.328   8.673
  388SOL    HW1 3003   6.990   8.319   8.669
  388SOL    HW2 3004   7.104   8.412   8.631
  389SOL     OW 3005  12.544   2.609   3.807
  389SOL    HW1 3006  12.619   2.653   3.846
  389SOL    HW2 3007  12.548   2.519   3.841
  390SOL     OW 3008  10.387   6.290  12.986
  390SOL    HW1 3009  10.442   6.276  13.064
  390SOL    HW2 3010  10.298   6.275  13.017
  391SOL     OW 3011   3.123   2.807   0.441
  391SOL    HW1 3012   3.050   2.842   0.390
  391SOL    HW2 3013   3.201   2.824   0.388
  392SOL     OW 3014   6.096   7.964   4.445
  392SOL    HW1 3015   6.093   7.871   4.422
  392SOL    HW2 3016   6.128   8.007   4.365
  393SOL     OW 3017  12.538  11.799  11.500
  393SOL    HW1 3018  12.444  11.817  11.487
  393SOL    HW2 3019  12.569  11.875  11.549
  394SOL     OW 3020   2.285  14.127   9.888
  394SOL    HW1 3021   2.370  14.091   9.914
  394SOL    HW2 3022   2.294  14.143   9.794
  395SOL     OW 3023  12.178   7.464   8.921
  395SOL    HW1 3024  12.116   7.397   8.953
  395SOL    HW2 3025  12.261   7.417   8.911
  396SOL     OW 3026   6.125   0.711   5.632
  396SOL    HW1 3027   6.157   0.732   5.720
  396SOL    HW2 3028   6.033   0.736   5.634
  397SOL     OW 3029  10.748   3.709   0.847
  397SOL    HW1 3030  10.767   3.698   0.753
  397SOL    HW2 3031  10.652   3.713   0.851
  398SOL     OW 3032  11.063   2.345  11.727
  398SOL    HW1 3033  10.995   2.278  11.716
  398SOL    HW2 3034  11.134   2.317  11.670
  399SOL     OW 3035   1.813   2.595  13.560
  399SOL    HW1 3036   1.883   2.616  13.621
  399SOL    HW2 3037   1.743   2.559  13.614
  400SOL     OW 3038   1.520  12.251  14.766
  400SOL    HW1 3039   1.512  12.346  14.775
  400SOL    HW2 3040   1.594  12.239  14.707
  401SOL     OW 3041   8.579  14.216  14.117
  401SOL    HW1 3042   8.605  14.223  14.209
  401SOL    HW2 3043   8.512  14.147  14.117
  402SOL     OW 3044  11.779  10.070   1.554
  402SOL    HW1 3045  11.751  10.160   1.572
  402SOL    HW2 3046  11.805  10.035   1.640
  403SOL     OW 3047   1.814  14.658   2.985
  403SOL    HW1 3048   1.727  14.681   2.951
  403SOL    HW2 3049   1.796  14.603   3.061
  404SOL     OW 3050  12.822   6.438  13.455
  404SOL    HW1 3051  12.887   6.392  13.402
  404SOL    HW2 3052  12.871   6.507  13.499
  405SOL     OW 3053  14.444   9.816  14.458
  405SOL    HW1 3054  14.432   9.791  14.550
  405SOL    HW2 3055  14.539   9.817  14.446
  406SOL     OW 3056   4.724  12.148   1.595
  406SOL    HW1 3057   4.672  12.075   1.627
  406SOL    HW2 3058   4.660  12.209   1.558
  407SOL     OW 3059   4.234   2.077  11.410
  407SOL    HW1 3060   4.305   2.110  11.466
  407SOL    HW2 3061   4.170   2.148  11.408
  408SOL     OW 3062   4.798  10.031   2.471
  408SOL    HW1 3063   4.737  10.055   2.541
  408SOL    HW2 3064   4.882  10.019   2.515
  409SOL     OW 3065  12.869   2.261   5.494
  409SOL    HW1 3066  12.904   2.182   5.453
  409SOL    HW2 3067  12.944   2.302   5.536
  410SOL     OW 3068  13.533   5.587   0.614
  410SOL    HW1 3069  13.557   5.557   0.526
  410SOL    HW2 3070  13.481   5.666   0.599
  411SOL     OW 3071   8.241   9.149  12.071
  411SOL    HW1 3072   8.237   9.134  11.976
  411SOL    HW2 3073   8.261   9.063  12.108
  412SOL     OW 3074   5.671   8.386   2.604
  412SOL    HW1 3075   5.765   8.406   2.600
  412SOL    HW2 3076   5.643   8.384   2.513
  413SOL     OW 3077   8.711  10.003   9.945
  413SOL    HW1 3078   8.801   9.972   9.952
  413SOL    HW2 3079   8.657   9.928   9.969
  414SOL     OW 3080   1.843   0.143  12.680
  414SOL    HW1 3081   1.864   0.050  12.674
  414SOL    HW2 3082   1.880   0.181  12.600
  415SOL     OW 3083  13.471   2.817   8.094
  415SOL    HW1 3084  13.541   2.863   8.141
  415SOL    HW2 3085  13.427   2.765   8.161
  416SOL     OW 3086   0.182  11.824   9.769
  416SOL    HW1 3087   0.205  11.912   9.738
  416SOL    HW2 3088   0.228  11.765   9.709
  417SOL     OW 3089   8.722  11.710   6.823
  417SOL    HW1 3090   8.721  11.615   6.810
  417SOL    HW2 3091   8.667  11.723   6.901
  418SOL     OW 3092   2.969   3.104  11.553
  418SOL    HW1 3093   3.020   3.179  11.521
  418SOL    HW2 3094   2.931   3.065  11.474
  419SOL     OW 3095  13.748  11.134   2.997
  419SOL    HW1 3096  13.792  11.192   3.060
  419SOL    HW2 3097  13.772  11.046   3.025
  420SOL     OW 3098  13.197   0.239   6.689
  420SOL    HW1 3099  13.150   0.238   6.606
  420SOL    HW2 3100  13.139   0.287   6.749
  421SOL     OW 3101  12.885  10.860   3.366
  421SOL    HW1 3102  12.975  10.840   3.391
  421SOL    HW2 3103  12.834  10.842   3.445
  422SOL     OW 3104   1.707  11.646   4.878
  422SOL    HW1 3105   1.731  11.661   4.969
  422SOL    HW2 3106   1.790  11.652   4.830
  423SOL     OW 3107  12.595   5.806   2.670
  423SOL    HW1 3108  12.600   5.714   2.695
  423SOL    HW2 3109  12.534   5.807   2.596
  424SOL     OW 3110   1.160   1.848   6.015
  424SOL    HW1 3111   1.251   1.821   6.021
  424SOL    HW2 3112   1.152   1.890   5.929
  425SOL     OW 3113  12.743   8.321   1.403
  425SOL    HW1 3114  12.691   8.294   1.478
  425SOL    HW2 3115  12.804   8.386   1.438
  426SOL     OW 3116   6.486  13.867   9.553
  426SOL    HW1 3117   6.455  13.779   9.573
  426SOL    HW2 3118   6.477  13.875   9.458
  427SOL     OW 3119  10.686  12.118   2.745
  427SOL    HW1 3120  10.683  12.116   2.650
  427SOL    HW2 3121  10.683  12.026   2.772
  428SOL     OW 3122   2.050   1.695  10.515
  428SOL    HW1 3123   2.008   1.770  10.557
  428SOL    HW2 3124   2.129   1.731  10.475
  429SOL     OW 3125   3.538  13.112  13.894
  429SOL    HW1 3126   3.525  13.047  13.825
  429SOL    HW2 3127   3.601  13.174  13.857
  430SOL     OW 3128  10.898   7.281   7.514
  430SOL    HW1 3129  10.846   7.361   7.508
  430SOL    HW2 3130  10.989   7.311   7.502
  431SOL     OW 3131  12.122  11.164   3.096
  431SOL    HW1 3132  12.083  11.126   3.018
  431SOL    HW2 3133  12.140  11.255   3.072
  432SOL     OW 3134   0.682  10.894   2.607
  432SOL    HW1 3135   0.757  10.952   2.593
  432SOL    HW2 3136   0.721  10.807   2.619
  433SOL     OW 3137   6.228   0.500   3.082
  433SOL    HW1 3138   6.243   0.429   3.020
  433SOL    HW2 3139   6.186   0.569   3.030
  434SOL     OW 3140  13.529   5.910   9.519
  434SOL    HW1 3141  13.486   5.964   9.452
  434SOL    HW2 3142  13.489   5.938   9.601
  435SOL     OW 3143   7.874   0.552  11.732
  435SOL    HW1 3144   7.828   0.628  11.770
  435SOL    HW2 3145   7.810   0.481  11.738
  436SOL     OW 3146   7.910   1.754  11.205
  436SOL    HW1 3147   7.897   1.800  11.122
  436SOL    HW2 3148   7.994   1.789  11.238
  437SOL     OW 3149   8.634   1.618   8.402
  437SOL    HW1 3150   8.625   1.713   8.391
  437SOL    HW2 3151   8.602   1.602   8.491
  438SOL     OW 3152   3.802   5.633   3.264
  438SOL    HW1 3153   3.864   5.702   3.286
  438SOL    HW2 3154   3.801   5.632   3.168
  439SOL     OW 3155  12.849  13.114   4.808
  439SOL    HW1 3156  12.892  13.047   4.755
  439SOL    HW2 3157  12.790  13.159   4.746
  440SOL     OW 3158   7.903   4.281   9.211
  440SOL    HW1 3159   7.981   4.325   9.246
  440SOL    HW2 3160   7.838   4.288   9.281
  441SOL     OW 3161   5.282   8.506   3.659
  441SOL    HW1 3162   5.265   8.439   3.593
  441SOL    HW2 3163   5.283   8.588   3.610
  442SOL     OW 3164   8.676   4.293   9.163
  442SOL    HW1 3165   8.653   4.354   9.233
  442SOL    HW2 3166   8.682   4.347   9.084
  443SOL     OW 3167   9.052   1.647   7.849
  443SOL    HW1 3168   9.049   1.711   7.920
  443SOL    HW2 3169   8.987   1.581   7.874
  444SOL     OW 3170   9.275  12.501   9.141
  444SOL    HW1 3171   9.254  12.589   9.170
  444SOL    HW2 3172   9.362  12.484   9.176
  445SOL     OW 3173   4.301  13.993   6.742
  445SOL    HW1 3174   4.360  14.044   6.798
  445SOL    HW2 3175   4.359  13.942   6.686
  446SOL     OW 3176   0.321   6.829   9.505
  446SOL    HW1 3177   0.351   6.839   9.415
  446SOL    HW2 3178   0.284   6.741   9.509
  447SOL     OW 3179   4.836   0.717   6.327
  447SOL    HW1 3180   4.792   0.794   6.364
  447SOL    HW2 3181   4.923   0.718   6.367
  448SOL     OW 3182   8.328   9.799   8.619
  448SOL    HW1 3183   8.301   9.709   8.601
  448SOL    HW2 3184   8.292   9.817   8.706
  449SOL     OW 3185   3.292  11.150  11.334
  449SOL    HW1 3186   3.366  11.184  11.283
  449SOL    HW2 3187   3.331  11.085  11.393
  450SOL     OW 3188   5.713   3.557   1.854
  450SOL    HW1 3189   5.638   3.498   1.848
  450SOL    HW2 3190   5.744   3.566   1.764
  451SOL     OW 3191   8.923   8.029  13.674
  451SOL    HW1 3192   8.978   7.996  13.603
  451SOL    HW2 3193   8.910   8.122  13.653
  452SOL     OW 3194   5.221  11.376   0.579
  452SOL    HW1 3195   5.302  11.410   0.618
  452SOL    HW2 3196   5.162  11.451   0.578
  453SOL     OW 3197   0.979  12.051   4.843
  453SOL    HW1 3198   1.069  12.081   4.838
  453SOL    HW2 3199   0.928  12.128   4.867
  454SOL     OW 3200  13.083   3.380  10.859
  454SOL    HW1 3201  13.060   3.444  10.927
  454SOL    HW2 3202  13.179   3.372  10.866
  455SOL     OW 3203   6.953   9.964   1.188
  455SOL    HW1 3204   7.006   9.984   1.111
  455SOL    HW2 3205   6.946   9.869   1.189
  456SOL     OW 3206   3.767  12.247   6.036
  456SOL    HW1 3207   3.773  12.323   6.095
  456SOL    HW2 3208   3.848  12.198   6.051
  457SOL     OW 3209   9.639   3.314   0.144
  457SOL    HW1 3210   9.667   3.298   0.054
  457SOL    HW2 3211   9.642   3.409   0.154
  458SOL     OW 3212  12.157   1.834   9.830
  458SOL    HW1 3213  12.133   1.755   9.879
  458SOL    HW2 3214  12.178   1.899   9.897
  459SOL     OW 3215   4.608  12.470   7.421
  459SOL    HW1 3216   4.667  12.484   7.495
  459SOL    HW2 3217   4.641  12.529   7.353
  460SOL     OW 3218   2.590  11.229   5.580
  460SOL    HW1 3219   2.561  11.318   5.556
  460SOL    HW2 3220   2.680  11.224   5.548
  461SOL     OW 3221   4.682   2.566   5.708
  461SOL    HW1 3222   4.691   2.528   5.796
  461SOL    HW2 3223   4.770   2.595   5.685
  462SOL     OW 3224  13.795  13.777   9.341
  462SOL    HW1 3225  13.866  13.719   9.368
  462SOL    HW2 3226  13.825  13.865   9.364
  463SOL     OW 3227  10.397   6.883  14.200
  463SOL    HW1 3228  10.424   6.974  14.202
  463SOL    HW2 3229  10.328   6.878  14.267
  464SOL     OW 3230   7.955   8.986   9.767
  464SOL    HW1 3231   7.970   9.061   9.824
  464SOL    HW2 3232   8.023   8.993   9.699
  465SOL     OW 3233   6.431   7.729   9.403
  465SOL    HW1 3234   6.525   7.725   9.385
  465SOL    HW2 3235   6.417   7.815   9.443
  466SOL     OW 3236   6.322   3.398   0.244
  466SOL    HW1 3237   6.239   3.429   0.209
  466SOL    HW2 3238   6.386   3.415   0.174
  467SOL     OW 3239   8.993   3.757  12.715
  467SOL    HW1 3240   8.907   3.790  12.738
  467SOL    HW2 3241   9.018   3.700  12.788
  468SOL     OW 3242  10.294   7.383   2.587
  468SOL    HW1 3243  10.374   7.349   2.628
  468SOL    HW2 3244  10.279   7.467   2.629
  469SOL     OW 3245   7.707   7.405  13.030
  469SOL    HW1 3246   7.660   7.483  13.060
  469SOL    HW2 3247   7.646   7.333  13.043
  470SOL     OW 3248   3.032   8.538   0.954
  470SOL    HW1 3249   3.006   8.501   1.038
  470SOL    HW2 3250   2.977   8.616   0.945
  471SOL     OW 3251   7.300   2.278   0.437
  471SOL    HW1 3252   7.353   2.247   0.510
  471SOL    HW2 3253   7.309   2.373   0.440
  472SOL     OW 3254   9.045  12.794   6.578
  472SOL    HW1 3255   9.069  12.870   6.525
  472SOL    HW2 3256   8.966  12.760   6.537
  473SOL     OW 3257   2.918  14.810   8.196
  473SOL    HW1 3258   2.941  14.731   8.147
  473SOL    HW2 3259   2.823  14.819   8.185
  474SOL     OW 3260   9.408   6.486  13.356
  474SOL    HW1 3261   9.419   6.581  13.351
  474SOL    HW2 3262   9.314   6.472  13.348
  475SOL     OW 3263   9.440  14.388   0.403
  475SOL    HW1 3264   9.362  14.335   0.420
  475SOL    HW2 3265   9.510  14.324   0.393
  476SOL     OW 3266   9.493  10.647   5.743
  476SOL    HW1 3267   9.557  10.577   5.730
  476SOL    HW2 3268   9.530  10.722   5.696
  477SOL     OW 3269  11.566   1.992  10.652
  477SOL    HW1 3270  11.502   1.954  10.713
  477SOL    HW2 3271  11.516   2.009  10.572
  478SOL     OW 3272   4.343   3.433   6.380
  478SOL    HW1 3273   4.339   3.524   6.350
  478SOL    HW2 3274   4.254   3.414   6.411
  479SOL     OW 3275   0.000  12.394   4.778
  479SOL    HW1 3276   0.028  12.460   4.841
  479SOL    HW2 3277  14.791  12.427   4.743
  480SOL     OW 3278   3.064   5.448   2.590
  480SOL    HW1 3279   2.993   5.456   2.653
  480SOL    HW2 3280   3.116   5.528   2.601
  481SOL     OW 3281   0.623   8.958   6.722
  481SOL    HW1 3282   0.678   8.926   6.651
  481SOL    HW2 3283   0.534   8.955   6.687
  482SOL     OW 3284   1.607  14.108  13.221
  482SOL    HW1 3285   1.602  14.013  13.233
  482SOL    HW2 3286   1.672  14.120  13.153
  483SOL     OW 3287   0.188   8.692   3.289
  483SOL    HW1 3288   0.162   8.603   3.312
  483SOL    HW2 3289   0.158   8.703   3.199
  484SOL     OW 3290   2.016   8.404   7.623
  484SOL    HW1 3291   2.109   8.397   7.644
  484SOL    HW2 3292   2.001   8.498   7.610
  485SOL     OW 3293   5.285  14.099   1.638
  485SOL    HW1 3294   5.376  14.130   1.633
  485SOL    HW2 3295   5.268  14.089   1.731
  486SOL     OW 3296   8.575  10.606  10.572
  486SOL    HW1 3297   8.666  10.614  10.600
  486SOL    HW2 3298   8.524  10.639  10.646
  487SOL     OW 3299   8.507   7.191   2.468
  487SOL    HW1 3300   8.548   7.222   2.388
  487SOL    HW2 3301   8.419   7.228   2.466
  488SOL     OW 3302  13.326   8.456   7.371
  488SOL    HW1 3303  13.250   8.481   7.423
  488SOL    HW2 3304  13.293   8.448   7.282
  489SOL     OW 3305   2.290   5.479   1.301
  489SOL    HW1 3306   2.269   5.462   1.209
  489SOL    HW2 3307   2.274   5.395   1.345
  490SOL     OW 3308   6.311   8.612   5.729
  490SOL    HW1 3309   6.337   8.578   5.814
  490SOL    HW2 3310   6.250   8.547   5.694
  491SOL     OW 3311   6.434   7.989   8.884
  491SOL    HW1 3312   6.432   8.061   8.947
  491SOL    HW2 3313   6.460   8.031   8.802
  492SOL     OW 3314   5.284   8.681   9.330
  492SOL    HW1 3315   5.322   8.640   9.408
  492SOL    HW2 3316   5.204   8.632   9.314
  493SOL     OW 3317   4.707   4.788   3.204
  493SOL    HW1 3318   4.643   4.737   3.252
  493SOL    HW2 3319   4.760   4.724   3.156
  494SOL     OW 3320   0.142   4.193   8.493
  494SOL    HW1 3321   0.072   4.204   8.558
  494SOL    HW2 3322   0.096   4.171   8.412
  495SOL     OW 3323   2.674   9.188   9.026
  495SOL    HW1 3324   2.748   9.246   9.007
  495SOL    HW2 3325   2.707   9.127   9.092
  496SOL     OW 3326   7.795   5.148   8.932
  496SOL    HW1 3327   7.814   5.194   9.014
  496SOL    HW2 3328   7.787   5.217   8.867
  497SOL     OW 3329   6.389   1.374  13.358
  497SOL    HW1 3330   6.429   1.386  13.444
  497SOL    HW2 3331   6.440   1.431  13.300
  498SOL     OW 3332  12.614  10.261   0.074
  498SOL    HW1 3333  12.587  10.351   0.087
  498SOL    HW2 3334  12.708  10.266   0.057
  499SOL     OW 3335   1.733   3.397   7.276
  499SOL    HW1 3336   1.694   3.468   7.327
  499SOL    HW2 3337   1.659   3.341   7.253
  500SOL     OW 3338  13.197   0.941   2.605
  500SOL    HW1 3339  13.282   0.902   2.586
  500SOL    HW2 3340  13.139   0.866   2.622
  501SOL     OW 3341   1.488   3.230   4.413
  501SOL    HW1 3342   1.425   3.273   4.470
  501SOL    HW2 3343   1.472   3.137   4.426
  502SOL     OW 3344   6.444   7.762  11.632
  502SOL    HW1 3345   6.407   7.768  11.544
  502SOL    HW2 3346   6.373   7.729  11.686
  503SOL     OW 3347   6.156   4.705  12.128
  503SOL    HW1 3348   6.247   4.689  12.102
  503SOL    HW2 3349   6.162   4.747  12.214
  504SOL     OW 3350   5.527   6.809   0.900
  504SOL    HW1 3351   5.606   6.858   0.878
  504SOL    HW2 3352   5.455   6.868   0.877
  505SOL     OW 3353   9.718   3.349  12.976
  505SOL    HW1 3354   9.742   3.385  13.062
  505SOL    HW2 3355   9.773   3.397  12.914
  506SOL     OW 3356  12.661   6.691  12.494
  506SOL    HW1 3357  12.655   6.783  12.517
  506SOL    HW2 3358  12.734   6.686  12.432
  507SOL     OW 3359   3.250   8.644   8.788
  507SOL    HW1 3360   3.281   8.709   8.851
  507SOL    HW2 3361   3.284   8.561   8.820
  508SOL     OW 3362   3.257   8.911  14.296
  508SOL    HW1 3363   3.222   8.824  14.318
  508SOL    HW2 3364   3.280   8.950  14.380
  509SOL     OW 3365   8.780  12.810  12.332
  509SOL    HW1 3366   8.803  12.730  12.286
  509SOL    HW2 3367   8.697  12.790  12.375
  510SOL     OW 3368   0.911  11.957   5.139
  510SOL    HW1 3369   0.877  11.882   5.090
  510SOL    HW2 3370   0.932  12.022   5.072
  511SOL     OW 3371   5.947  12.900   8.630
  511SOL    HW1 3372   5.907  12.987   8.630
  511SOL    HW2 3373   5.977  12.888   8.540
  512SOL     OW 3374  13.553   5.259  14.463
  512SOL    HW1 3375  13.503   5.223  14.391
  512SOL    HW2 3376  13.643   5.232  14.445
  513SOL     OW 3377   0.623  11.967   3.102
  513SOL    HW1 3378   0.583  12.040   3.148
  513SOL    HW2 3379   0.597  11.979   3.011
  514SOL     OW 3380  12.136  13.990  14.428
  514SOL    HW1 3381  12.091  13.907  14.411
  514SOL    HW2 3382  12.179  13.977  14.512
  515SOL     OW 3383   4.383   0.374  14.086
  515SOL    HW1 3384   4.367   0.281  14.104
  515SOL    HW2 3385   4.312   0.399  14.026
  516SOL     OW 3386   7.460  10.588  13.315
  516SOL    HW1 3387   7.475  10.502  13.352
  516SOL    HW2 3388   7.445  10.572  13.221
  517SOL     OW 3389   2.154   4.445   3.364
  517SOL    HW1 3390   2.069   4.450   3.408
  517SOL    HW2 3391   2.142   4.380   3.295
  518SOL     OW 3392   0.518   9.193   6.122
  518SOL    HW1 3393   0.496   9.156   6.037
  518SOL    HW2 3394   0.469   9.275   6.127
  519SOL     OW 3395   7.133  11.479   3.695
  519SOL    HW1 3396   7.092  11.516   3.617
  519SOL    HW2 3397   7.085  11.517   3.768
  520SOL     OW 3398   2.743   5.746   2.335
  520SOL    HW1 3399   2.786   5.787   2.261
  520SOL    HW2 3400   2.806   5.681   2.367
  521SOL     OW 3401   9.435   8.358   0.523
  521SOL    HW1 3402   9.414   8.406   0.603
  521SOL    HW2 3403   9.378   8.282   0.525
  522SOL     OW 3404  12.929  13.389   2.190
  522SOL    HW1 3405  12.991  13.397   2.263
  522SOL    HW2 3406  12.956  13.456   2.128
  523SOL     OW 3407  11.171  10.831   2.800
  523SOL    HW1 3408  11.157  10.747   2.756
  523SOL    HW2 3409  11.111  10.891   2.756
  524SOL     OW 3410  10.193   2.147   1.145
  524SOL    HW1 3411  10.134   2.094   1.093
  524SOL    HW2 3412  10.199   2.101   1.229
  525SOL     OW 3413   1.200   9.118  13.988
  525SOL    HW1 3414   1.293   9.121  13.965
  525SOL    HW2 3415   1.199   9.125  14.084
  526SOL     OW 3416   2.101  11.435   6.263
  526SOL    HW1 3417   2.157  11.388   6.325
  526SOL    HW2 3418   2.027  11.464   6.317
  527SOL     OW 3419   6.200   4.328   9.671
  527SOL    HW1 3420   6.237   4.258   9.617
  527SOL    HW2 3421   6.136   4.283   9.727
  528SOL     OW 3422   3.389   6.912  11.543
  528SOL    HW1 3423   3.370   6.997  11.503
  528SOL    HW2 3424   3.304   6.871  11.557
  529SOL     OW 3425   8.057   1.292   0.570
  529SOL    HW1 3426   7.969   1.267   0.541
  529SOL    HW2 3427   8.057   1.388   0.565
  530SOL     OW 3428  12.953   5.337   9.466
  530SOL    HW1 3429  12.913   5.333   9.553
  530SOL    HW2 3430  12.879   5.344   9.406
  531SOL     OW 3431   2.253   8.732   9.392
  531SOL    HW1 3432   2.195   8.702   9.322
  531SOL    HW2 3433   2.209   8.705   9.473
  532SOL     OW 3434   1.544  12.070   9.180
  532SOL    HW1 3435   1.623  12.116   9.152
  532SOL    HW2 3436   1.472  12.126   9.151
  533SOL     OW 3437  11.565   3.338   8.016
  533SOL    HW1 3438  11.514   3.265   8.051
  533SOL    HW2 3439  11.657   3.312   8.029
  534SOL     OW 3440  11.645  11.780   4.313
  534SOL    HW1 3441  11.717  11.843   4.320
  534SOL    HW2 3442  11.623  11.779   4.220
  535SOL     OW 3443  14.438   9.663   0.917
  535SOL    HW1 3444  14.404   9.587   0.871
  535SOL    HW2 3445  14.366   9.726   0.916
  536SOL     OW 3446   5.161   3.007   6.573
  536SOL    HW1 3447   5.100   2.951   6.525
  536SOL    HW2 3448   5.230   3.027   6.509
  537SOL     OW 3449   3.132   8.181   8.393
  537SOL    HW1 3450   3.075   8.203   8.467
  537SOL    HW2 3451   3.202   8.247   8.397
  538SOL     OW 3452  11.131   7.477   5.803
  538SOL    HW1 3453  11.198   7.491   5.870
  538SOL    HW2 3454  11.055   7.444   5.851
  539SOL     OW 3455   8.966   6.251  13.751
  539SOL    HW1 3456   8.978   6.160  13.724
  539SOL    HW2 3457   9.001   6.254  13.840
  540SOL     OW 3458   0.649  13.731  10.686
  540SOL    HW1 3459   0.707  13.739  10.762
  540SOL    HW2 3460   0.607  13.817  10.678
  541SOL     OW 3461   9.445   7.625  14.662
  541SOL    HW1 3462   9.478   7.658  14.746
  541SOL    HW2 3463   9.458   7.530  14.666
  542SOL     OW 3464   5.109   2.398  14.204
  542SOL    HW1 3465   5.127   2.315  14.159
  542SOL    HW2 3466   5.019   2.391  14.233
  543SOL     OW 3467   8.461  10.470   8.319
  543SOL    HW1 3468   8.503  10.420   8.389
  543SOL    HW2 3469   8.502  10.556   8.324
  544SOL     OW 3470   2.691   3.336   5.754
  544SOL    HW1 3471   2.729   3.416   5.791
  544SOL    HW2 3472   2.609   3.365   5.715
  545SOL     OW 3473   2.854   3.515   0.311
  545SOL    HW1 3474   2.879   3.528   0.403
  545SOL    HW2 3475   2.781   3.454   0.315
  546SOL     OW 3476   2.371   7.693  10.676
  546SOL    HW1 3477   2.308   7.623  10.660
  546SOL    HW2 3478   2.371   7.744  10.594
  547SOL     OW 3479   8.933   2.569   2.200
  547SOL    HW1 3480   9.004   2.504   2.202
  547SOL    HW2 3481   8.962   2.633   2.135
  548SOL     OW 3482   3.379   5.755   7.072
  548SOL    HW1 3483   3.296   5.800   7.087
  548SOL    HW2 3484   3.380   5.685   7.137
  549SOL     OW 3485   7.959   7.633   0.962
  549SOL    HW1 3486   7.910   7.577   0.902
  549SOL    HW2 3487   7.897   7.702   0.987
  550SOL     OW 3488   5.125   6.590   6.214
  550SOL    HW1 3489   5.207   6.638   6.203
  550SOL    HW2 3490   5.059   6.648   6.177
  551SOL     OW 3491   0.089  10.193  14.540
  551SOL    HW1 3492   0.170  10.244  14.535
  551SOL    HW2 3493   0.045  10.209  14.457
  552SOL     OW 3494   0.725  10.336  14.410
  552SOL    HW1 3495   0.799  10.281  14.385
  552SOL    HW2 3496   0.686  10.291  14.486
  553SOL     OW 3497   9.415  12.811   1.083
  553SOL    HW1 3498   9.326  12.776   1.087
  553SOL    HW2 3499   9.468  12.747   1.132
  554SOL     OW 3500   4.694   2.481   3.742
  554SOL    HW1 3501   4.601   2.466   3.759
  554SOL    HW2 3502   4.696   2.559   3.687
  555SOL     OW 3503   2.390  12.117   2.037
  555SOL    HW1 3504   2.314  12.168   2.066
  555SOL    HW2 3505   2.465  12.173   2.059
  556SOL     OW 3506   1.007  13.616  11.307
  556SOL    HW1 3507   1.063  13.629  11.383
  556SOL    HW2 3508   0.922  13.651  11.333
  557SOL     OW 3509   4.681   8.741   4.239
  557SOL    HW1 3510   4.750   8.808   4.245
  557SOL    HW2 3511   4.639   8.741   4.324
  558SOL     OW 3512   0.773  14.285   4.284
  558SOL    HW1 3513   0.779  14.209   4.340
  558SOL    HW2 3514   0.679  14.307   4.283
  559SOL     OW 3515   8.005   9.908   6.326
  559SOL    HW1 3516   8.091   9.922   6.365
  559SOL    HW2 3517   7.979   9.821   6.355
  560SOL     OW 3518  13.023   3.751   6.163
  560SOL    HW1 3519  12.980   3.815   6.220
  560SOL    HW2 3520  13.111   3.786   6.151
  561SOL     OW 3521   8.129  13.955   5.127
  561SOL    HW1 3522   8.054  13.975   5.184
  561SOL    HW2 3523   8.088  13.929   5.044
  562SOL     OW 3524  13.091   3.099   3.738
  562SOL    HW1 3525  13.043   3.039   3.795
  562SOL    HW2 3526  13.023   3.147   3.692
  563SOL     OW 3527  10.313   9.371   3.677
  563SOL    HW1 3528  10.344   9.378   3.586
  563SOL    HW2 3529  10.393   9.375   3.729
  564SOL     OW 3530   3.111   0.601   7.435
  564SOL    HW1 3531   3.134   0.615   7.343
  564SOL    HW2 3532   3.187   0.555   7.471
  565SOL     OW 3533   1.915   3.378   3.494
  565SOL    HW1 3534   1.931   3.288   3.466
  565SOL    HW2 3535   1.925   3.376   3.589
  566SOL     OW 3536  10.414   5.483   3.092
  566SOL    HW1 3537  10.441   5.565   3.051
  566SOL    HW2 3538  10.495   5.433   3.102
  567SOL     OW 3539   1.857  13.889   6.512
  567SOL    HW1 3540   1.870  13.803   6.473
  567SOL    HW2 3541   1.819  13.872   6.598
  568SOL     OW 3542   2.669   4.097   0.046
  568SOL    HW1 3543   2.593   4.146   0.015
  568SOL    HW2 3544   2.722   4.161   0.092
  569SOL     OW 3545   1.870   4.285   0.878
  569SOL    HW1 3546   1.812   4.356   0.851
  569SOL    HW2 3547   1.928   4.324   0.944
  570SOL     OW 3548   9.360   4.493   5.890
  570SOL    HW1 3549   9.321   4.563   5.837
  570SOL    HW2 3550   9.404   4.437   5.826
  571SOL     OW 3551   1.180   5.254  11.156
  571SOL    HW1 3552   1.275   5.258  11.149
  571SOL    HW2 3553   1.163   5.267  11.250
  572SOL     OW 3554   8.130   8.836  11.021
  572SOL    HW1 3555   8.103   8.749  11.048
  572SOL    HW2 3556   8.134   8.886  11.103
  573SOL     OW 3557   5.608  12.289   9.316
  573SOL    HW1 3558   5.674  12.298   9.247
  573SOL    HW2 3559   5.549  12.221   9.284
  574SOL     OW 3560   1.736   3.728   4.066
  574SOL    HW1 3561   1.794   3.727   4.142
  574SOL    HW2 3562   1.650   3.753   4.100
  575SOL     OW 3563   3.303   7.143   4.484
  575SOL    HW1 3564   3.393   7.118   4.461
  575SOL    HW2 3565   3.285   7.220   4.431
  576SOL     OW 3566   7.518   8.697   8.918
  576SOL    HW1 3567   7.578   8.627   8.891
  576SOL    HW2 3568   7.560   8.778   8.888
  577SOL     OW 3569   8.839   7.223   0.584
  577SOL    HW1 3570   8.806   7.157   0.645
  577SOL    HW2 3571   8.785   7.300   0.599
  578SOL     OW 3572   7.327  10.221   3.115
  578SOL    HW1 3573   7.232  10.221   3.106
  578SOL    HW2 3574   7.359  10.261   3.035
  579SOL     OW 3575   2.152   5.218   6.140
  579SOL    HW1 3576   2.245   5.223   6.159
  579SOL    HW2 3577   2.131   5.302   6.098
  580SOL     OW 3578   9.287   1.699   6.101
  580SOL    HW1 3579   9.337   1.619   6.086
  580SOL    HW2 3580   9.337   1.767   6.055
  581SOL     OW 3581  12.656   1.640  12.028
  581SOL    HW1 3582  12.600   1.702  12.076
  581SOL    HW2 3583  12.608   1.623  11.948
  582SOL     OW 3584   0.857   9.633   3.123
  582SOL    HW1 3585   0.887   9.599   3.208
  582SOL    HW2 3586   0.774   9.677   3.144
  583SOL     OW 3587  12.419   8.132   6.165
  583SOL    HW1 3588  12.498   8.186   6.169
  583SOL    HW2 3589  12.441   8.054   6.216
  584SOL     OW 3590  11.046  12.317   1.046
  584SOL    HW1 3591  11.109  12.331   0.975
  584SOL    HW2 3592  11.056  12.224   1.069
  585SOL     OW 3593   5.501   2.033  13.023
  585SOL    HW1 3594   5.493   1.953  13.075
  585SOL    HW2 3595   5.548   2.094  13.080
  586SOL     OW 3596   3.571   6.887   7.934
  586SOL    HW1 3597   3.526   6.890   8.019
  586SOL    HW2 3598   3.598   6.977   7.918
  587SOL     OW 3599  12.578  10.073   7.552
  587SOL    HW1 3600  12.598  10.149   7.498
  587SOL    HW2 3601  12.581   9.999   7.492
  588SOL     OW 3602   0.155   3.572   9.200
  588SOL    HW1 3603   0.153   3.484   9.239
  588SOL    HW2 3604   0.248   3.594   9.196
  589SOL     OW 3605   4.497   4.762   0.830
  589SOL    HW1 3606   4.582   4.735   0.865
  589SOL    HW2 3607   4.434   4.708   0.877
  590SOL     OW 3608  13.821  11.848   7.332
  590SOL    HW1 3609  13.899  11.896   7.304
  590SOL    HW2 3610  13.801  11.791   7.258
  591SOL     OW 3611   9.563   3.006   0.058
  591SOL    HW1 3612   9.517   3.015   0.141
  591SOL    HW2 3613   9.656   3.004   0.082
  592SOL     OW 3614  10.202   4.816   3.984
  592SOL    HW1 3615  10.256   4.872   3.929
  592SOL    HW2 3616  10.112   4.840   3.961
  593SOL     OW 3617   5.439   0.011   4.659
  593SOL    HW1 3618   5.375  14.832   4.610
  593SOL    HW2 3619   5.390   0.087   4.689
  594SOL     OW 3620   9.404  10.163   1.613
  594SOL    HW1 3621   9.393  10.222   1.688
  594SOL    HW2 3622   9.403  10.075   1.651
  595SOL     OW 3623   1.944  12.435   5.191
  595SOL    HW1 3624   1.976  12.359   5.142
  595SOL    HW2 3625   1.849  12.431   5.182
  596SOL     OW 3626   8.427   0.324   3.743
  596SOL    HW1 3627   8.411   0.410   3.705
  596SOL    HW2 3628   8.383   0.327   3.828
  597SOL     OW 3629  13.258  14.764   6.004
  597SOL    HW1 3630  13.280  14.854   6.027
  597SOL    HW2 3631  13.162  14.762   6.005
  598SOL     OW 3632   9.515  12.820   4.076
  598SOL    HW1 3633   9.507  12.795   3.984
  598SOL    HW2 3634   9.585  12.885   4.077
  599SOL     OW 3635   9.717  10.912   4.414
  599SOL    HW1 3636   9.704  11.007   4.424
  599SOL    HW2 3637   9.631  10.878   4.390
  600SOL     OW 3638  14.000   9.118  11.330
  600SOL    HW1 3639  14.054   9.039  11.323
  600SOL    HW2 3640  13.980   9.126  11.423
  601SOL     OW 3641   3.728  14.623   0.785
  601SOL    HW1 3642   3.711  14.701   0.733
  601SOL    HW2 3643   3.753  14.556   0.722
  602SOL     OW 3644   6.626   6.234   6.683
  602SOL    HW1 3645   6.606   6.157   6.737
  602SOL    HW2 3646   6.540   6.269   6.658
  603SOL     OW 3647   4.075  10.504   8.994
  603SOL    HW1 3648   4.112  10.499   9.082
  603SOL    HW2 3649   4.087  10.416   8.958
  604SOL     OW 3650   3.184   5.164  14.557
  604SOL    HW1 3651   3.100   5.155  14.512
  604SOL    HW2 3652   3.160   5.183  14.648
  605SOL     OW 3653   7.625   0.344   5.407
  605SOL    HW1 3654   7.554   0.299   5.452
  605SOL    HW2 3655   7.613   0.322   5.315
  606SOL     OW 3656   3.430   5.058  14.731
  606SOL    HW1 3657   3.372   5.081  14.804
  606SOL    HW2 3658   3.371   5.022  14.664
  607SOL     OW 3659   5.817  13.686  10.839
  607SOL    HW1 3660   5.789  13.679  10.930
  607SOL    HW2 3661   5.898  13.634  10.835
  608SOL     OW 3662   0.420   8.134  14.039
  608SOL    HW1 3663   0.506   8.169  14.060
  608SOL    HW2 3664   0.396   8.080  14.115
  609SOL     OW 3665  14.654   9.191  10.220
  609SOL    HW1 3666  14.639   9.216  10.311
  609SOL    HW2 3667  14.620   9.102  10.214
  610SOL     OW 3668   2.827   0.856   3.398
  610SOL    HW1 3669   2.732   0.860   3.406
  610SOL    HW2 3670   2.852   0.776   3.445
  611SOL     OW 3671   0.484  12.675  10.148
  611SOL    HW1 3672   0.431  12.603  10.182
  611SOL    HW2 3673   0.502  12.730  10.225
  612SOL     OW 3674   5.435   4.158  10.346
  612SOL    HW1 3675   5.417   4.241  10.303
  612SOL    HW2 3676   5.528   4.141  10.329
  613SOL     OW 3677   3.859   4.853   9.452
  613SOL    HW1 3678   3.858   4.910   9.529
  613SOL    HW2 3679   3.932   4.886   9.399
  614SOL     OW 3680  13.529   4.779   5.139
  614SOL    HW1 3681  13.614   4.807   5.174
  614SOL    HW2 3682  13.507   4.845   5.074
  615SOL     OW 3683   1.430   6.318   8.136
  615SOL    HW1 3684   1.337   6.329   8.116
  615SOL    HW2 3685   1.461   6.406   8.156
  616SOL     OW 3686   6.257   8.605  13.431
  616SOL    HW1 3687   6.276   8.648  13.347
  616SOL    HW2 3688   6.343   8.580  13.465
  617SOL     OW 3689   9.372  13.277   3.667
  617SOL    HW1 3690   9.406  13.328   3.740
  617SOL    HW2 3691   9.319  13.339   3.617
  618SOL     OW 3692  10.255  11.000   2.427
  618SOL    HW1 3693  10.310  10.987   2.349
  618SOL    HW2 3694  10.168  11.019   2.391
  619SOL     OW 3695   0.831   6.153  11.771
  619SOL    HW1 3696   0.816   6.079  11.830
  619SOL    HW2 3697   0.832   6.114  11.683
  620SOL     OW 3698   8.575   4.624   5.369
  620SOL    HW1 3699   8.543   4.714   5.360
  620SOL    HW2 3700   8.554   4.600   5.459
  621SOL     OW 3701   6.995   0.409   0.415
  621SOL    HW1 3702   7.013   0.457   0.334
  621SOL    HW2 3703   7.074   0.356   0.429
  622SOL     OW 3704   2.538   1.042   7.252
  622SOL    HW1 3705   2.520   0.952   7.226
  622SOL    HW2 3706   2.558   1.037   7.346
  623SOL     OW 3707   9.137   9.717   5.405
  623SOL    HW1 3708   9.199   9.758   5.344
  623SOL    HW2 3709   9.174   9.631   5.423
  624SOL     OW 3710   3.400  11.905   2.672
  624SOL    HW1 3711   3.435  11.938   2.755
  624SOL    HW2 3712   3.407  11.810   2.678
  625SOL     OW 3713  12.324   6.297  11.876
  625SOL    HW1 3714  12.273   6.243  11.936
  625SOL    HW2 3715  12.369   6.234  11.820
  626SOL     OW 3716   9.428  11.088   4.918
  626SOL    HW1 3717   9.452  11.161   4.975
  626SOL    HW2 3718   9.357  11.122   4.864
  627SOL     OW 3719  11.605   9.835  11.892
  627SOL    HW1 3720  11.624   9.814  11.800
  627SOL    HW2 3721  11.524   9.885  11.889
  628SOL     OW 3722  13.865  14.346  13.888
  628SOL    HW1 3723  13.921  14.287  13.939
  628SOL    HW2 3724  13.815  14.394  13.954
  629SOL     OW 3725  11.854   5.210  14.338
  629SOL    HW1 3726  11.933   5.188  14.387
  629SOL    HW2 3727  11.886   5.257  14.261
  630SOL     OW 3728   1.482   3.416   7.077
  630SOL    HW1 3729   1.493   3.497   7.127
  630SOL    HW2 3730   1.571   3.392   7.051
  631SOL     OW 3731   6.109   0.801   9.417
  631SOL    HW1 3732   6.095   0.836   9.505
  631SOL    HW2 3733   6.179   0.736   9.428
  632SOL     OW 3734   1.323   0.371  14.227
  632SOL    HW1 3735   1.266   0.445  14.204
  632SOL    HW2 3736   1.309   0.308  14.157
  633SOL     OW 3737  12.166   3.127   1.474
  633SOL    HW1 3738  12.171   3.039   1.437
  633SOL    HW2 3739  12.188   3.116   1.566
  634SOL     OW 3740  12.181   6.610   2.439
  634SOL    HW1 3741  12.271   6.626   2.467
  634SOL    HW2 3742  12.173   6.658   2.356
  635SOL     OW 3743   4.793  11.106  10.247
  635SOL    HW1 3744   4.715  11.086  10.299
  635SOL    HW2 3745   4.839  11.022  10.239
  636SOL     OW 3746   7.367  12.356  11.093
  636SOL    HW1 3747   7.365  12.364  10.998
  636SOL    HW2 3748   7.278  12.379  11.120
  637SOL     OW 3749  11.420   0.560   2.622
  637SOL    HW1 3750  11.365   0.540   2.547
  637SOL    HW2 3751  11.484   0.489   2.626
  638SOL     OW 3752   8.755  12.880   3.330
  638SOL    HW1 3753   8.795  12.835   3.404
  638SOL    HW2 3754   8.820  12.874   3.260
  639SOL     OW 3755   7.385   3.091   7.004
  639SOL    HW1 3756   7.451   3.093   6.934
  639SOL    HW2 3757   7.406   3.168   7.058
  640SOL     OW 3758   0.843   4.757   1.216
  640SOL    HW1 3759   0.918   4.784   1.162
  640SOL    HW2 3760   0.875   4.760   1.305
  641SOL     OW 3761   8.664   9.709   8.632
  641SOL    HW1 3762   8.738   9.762   8.602
  641SOL    HW2 3763   8.685   9.620   8.603
  642SOL     OW 3764   5.211  10.857   0.311
  642SOL    HW1 3765   5.225  10.778   0.362
  642SOL    HW2 3766   5.263  10.924   0.355
  643SOL     OW 3767   7.546   8.588   3.034
  643SOL    HW1 3768   7.580   8.499   3.030
  643SOL    HW2 3769   7.612   8.642   2.991
  644SOL     OW 3770   0.257   7.571   8.696
  644SOL    HW1 3771   0.208   7.644   8.659
  644SOL    HW2 3772   0.237   7.574   8.789
  645SOL     OW 3773   5.109   0.008  13.517
  645SOL    HW1 3774   5.184   0.005  13.577
  645SOL    HW2 3775   5.083   0.100  13.516
  646SOL     OW 3776  11.121   2.059   5.532
  646SOL    HW1 3777  11.062   2.025   5.465
  646SOL    HW2 3778  11.183   2.113   5.484
  647SOL     OW 3779   9.083   6.539   4.584
  647SOL    HW1 3780   9.041   6.543   4.670
  647SOL    HW2 3781   9.097   6.630   4.560
  648SOL     OW 3782  14.738  13.598  10.242
  648SOL    HW1 3783  14.718  13.658  10.170
  648SOL    HW2 3784  14.823  13.561  10.220
  649SOL     OW 3785   5.050   6.155  10.029
  649SOL    HW1 3786   5.070   6.181  10.119
  649SOL    HW2 3787   4.996   6.076  10.039
  650SOL     OW 3788   9.382   9.214   0.930
  650SOL    HW1 3789   9.416   9.255   1.009
  650SOL    HW2 3790   9.315   9.275   0.898
  651SOL     OW 3791  12.671   9.672  13.729
  651SOL    HW1 3792  12.678   9.645  13.821
  651SOL    HW2 3793  12.691   9.593  13.679
  652SOL     OW 3794   2.596   6.459   4.769
  652SOL    HW1 3795   2.624   6.538   4.723
  652SOL    HW2 3796   2.500   6.466   4.773
  653SOL     OW 3797   7.499   1.080   2.663
  653SOL    HW1 3798   7.519   1.159   2.613
  653SOL    HW2 3799   7.584   1.048   2.693
  654SOL     OW 3800   5.546  11.975   8.368
  654SOL    HW1 3801   5.594  12.057   8.380
  654SOL    HW2 3802   5.590  11.931   8.296
  655SOL     OW 3803   0.665   0.547   1.429
  655SOL    HW1 3804   0.686   0.454   1.436
  655SOL    HW2 3805   0.618   0.554   1.346
  656SOL     OW 3806   0.573   2.741  10.976
  656SOL    HW1 3807   0.623   2.695  10.909
  656SOL    HW2 3808   0.616   2.826  10.985
  657SOL     OW 3809  12.884   6.385   2.290
  657SOL    HW1 3810  12.797   6.423   2.301
  657SOL    HW2 3811  12.935   6.453   2.246
  658SOL     OW 3812   8.398   5.255   7.147
  658SOL    HW1 3813   8.362   5.330   7.194
  658SOL    HW2 3814   8.399   5.185   7.212
  659SOL     OW 3815  12.198  12.252   9.262
  659SOL    HW1 3816  12.260  12.247   9.335
  659SOL    HW2 3817  12.251  12.230   9.185
  660SOL     OW 3818  14.456   7.913   3.351
  660SOL    HW1 3819  14.391   7.949   3.290
  660SOL    HW2 3820  14.411   7.910   3.435
  661SOL     OW 3821  14.536   7.490   6.021
  661SOL    HW1 3822  14.577   7.417   5.975
  661SOL    HW2 3823  14.447   7.494   5.985
  662SOL     OW 3824   3.878  10.712  14.760
  662SOL    HW1 3825   3.821  10.752  14.825
  662SOL    HW2 3826   3.962  10.699  14.805
  663SOL     OW 3827  14.555   4.353   8.678
  663SOL    HW1 3828  14.634   4.307   8.707
  663SOL    HW2 3829  14.483   4.298   8.709
  664SOL     OW 3830  13.077   6.955   6.410
  664SOL    HW1 3831  13.124   7.029   6.372
  664SOL    HW2 3832  13.030   6.915   6.337
  665SOL     OW 3833  10.457   3.326   7.926
  665SOL    HW1 3834  10.454   3.243   7.975
  665SOL    HW2 3835  10.472   3.299   7.835
  666SOL     OW 3836   8.178   4.251  13.006
  666SOL    HW1 3837   8.179   4.173  13.062
  666SOL    HW2 3838   8.252   4.303  13.036
  667SOL     OW 3839   0.430  13.518  11.451
  667SOL    HW1 3840   0.410  13.596  11.398
  667SOL    HW2 3841   0.445  13.449  11.386
  668SOL     OW 3842   0.647  11.697   4.783
  668SOL    HW1 3843   0.740  11.717   4.794
  668SOL    HW2 3844   0.616  11.760   4.719
  669SOL     OW 3845   6.746   2.023  10.942
  669SOL    HW1 3846   6.711   2.061  10.862
  669SOL    HW2 3847   6.669   1.993  10.991
  670SOL     OW 3848   7.913   9.528  14.741
  670SOL    HW1 3849   7.922   9.510  14.835
  670SOL    HW2 3850   7.880   9.618  14.738
  671SOL     OW 3851   7.864   0.716  13.405
  671SOL    HW1 3852   7.771   0.737  13.420
  671SOL    HW2 3853   7.910   0.758  13.478
  672SOL     OW 3854  10.652   0.225   2.654
  672SOL    HW1 3855  10.651   0.147   2.598
  672SOL    HW2 3856  10.739   0.225   2.694
  673SOL     OW 3857   7.373   2.205  11.327
  673SOL    HW1 3858   7.309   2.276  11.318
  673SOL    HW2 3859   7.404   2.190  11.238
  674SOL     OW 3860   2.714   1.075   1.945
  674SOL    HW1 3861   2.744   1.146   1.887
  674SOL    HW2 3862   2.793   1.025   1.964
  675SOL     OW 3863   2.374   3.356   9.896
  675SOL    HW1 3864   2.464   3.329   9.877
  675SOL    HW2 3865   2.359   3.329   9.986
  676SOL     OW 3866   0.160  12.558   6.952
  676SOL    HW1 3867   0.164  12.526   7.043
  676SOL    HW2 3868   0.087  12.621   6.952
  677SOL     OW 3869   8.680  13.962  11.744
  677SOL    HW1 3870   8.665  14.043  11.695
  677SOL    HW2 3871   8.593  13.932  11.768
  678SOL     OW 3872   0.405  13.922   6.516
  678SOL    HW1 3873   0.327  13.972   6.539
  678SOL    HW2 3874   0.446  13.973   6.446
  679SOL     OW 3875  11.193  11.684   0.558
  679SOL    HW1 3876  11.223  11.593   0.562
  679SOL    HW2 3877  11.243  11.729   0.626
  680SOL     OW 3878   4.812   0.899  13.064
  680SOL    HW1 3879   4.794   0.993  13.055
  680SOL    HW2 3880   4.766   0.874  13.144
  681SOL     OW 3881  11.770   9.937   5.675
  681SOL    HW1 3882  11.698   9.874   5.677
  681SOL    HW2 3883  11.791   9.947   5.582
  682SOL     OW 3884   3.459  11.240   6.567
  682SOL    HW1 3885   3.406  11.320   6.573
  682SOL    HW2 3886   3.495  11.228   6.654
  683SOL     OW 3887  14.612   9.688   6.089
  683SOL    HW1 3888  14.679   9.626   6.119
  683SOL    HW2 3889  14.529   9.642   6.103
  684SOL     OW 3890   4.470  13.552   8.993
  684SOL    HW1 3891   4.533  13.484   9.018
  684SOL    HW2 3892   4.524  13.623   8.959
  685SOL     OW 3893  10.542  13.438  11.067
  685SOL    HW1 3894  10.505  13.519  11.032
  685SOL    HW2 3895  10.608  13.468  11.130
  686SOL     OW 3896   9.907   8.551   9.347
  686SOL    HW1 3897   9.872   8.587   9.429
  686SOL    HW2 3898   9.938   8.627   9.298
  687SOL     OW 3899  11.988  14.118  12.465
  687SOL    HW1 3900  11.954  14.137  12.378
  687SOL    HW2 3901  12.083  14.114  12.454
  688SOL     OW 3902   0.792   5.771   8.593
  688SOL    HW1 3903   0.807   5.810   8.679
  688SOL    HW2 3904   0.848   5.820   8.534
  689SOL     OW 3905  11.004   8.845  13.037
  689SOL    HW1 3906  10.920   8.852  13.083
  689SOL    HW2 3907  11.062   8.801  13.099
  690SOL     OW 3908   8.780   6.367   3.565
  690SOL    HW1 3909   8.764   6.341   3.475
  690SOL    HW2 3910   8.744   6.456   3.571
  691SOL     OW 3911   7.925  10.623  12.735
  691SOL    HW1 3912   7.918  10.543  12.787
  691SOL    HW2 3913   7.841  10.629  12.689
  692SOL     OW 3914   1.335   9.189   0.434
  692SOL    HW1 3915   1.412   9.239   0.459
  692SOL    HW2 3916   1.284   9.248   0.379
  693SOL     OW 3917   2.349   7.523  10.903
  693SOL    HW1 3918   2.349   7.460  10.831
  693SOL    HW2 3919   2.331   7.607  10.861
  694SOL     OW 3920  10.150   9.165   1.196
  694SOL    HW1 3921  10.168   9.096   1.133
  694SOL    HW2 3922  10.236   9.189   1.230
  695SOL     OW 3923  12.556   2.238  10.910
  695SOL    HW1 3924  12.634   2.271  10.954
  695SOL    HW2 3925  12.520   2.173  10.970
  696SOL     OW 3926   8.998  13.062  10.810
  696SOL    HW1 3927   8.978  13.156  10.813
  696SOL    HW2 3928   9.016  13.039  10.902
  697SOL     OW 3929   7.346   3.925   4.577
  697SOL    HW1 3930   7.306   4.004   4.613
  697SOL    HW2 3931   7.383   3.880   4.653
  698SOL     OW 3932  10.650   6.175  10.301
  698SOL    HW1 3933  10.637   6.127  10.219
  698SOL    HW2 3934  10.734   6.220  10.289
  699SOL     OW 3935   7.866  12.016   3.400
  699SOL    HW1 3936   7.828  11.928   3.406
  699SOL    HW2 3937   7.862  12.037   3.307
  700SOL     OW 3938  13.413  10.035   9.670
  700SOL    HW1 3939  13.459  10.115   9.645
  700SOL    HW2 3940  13.423  10.030   9.765
  701SOL     OW 3941   4.737  10.484   4.008
  701SOL    HW1 3942   4.680  10.460   3.936
  701SOL    HW2 3943   4.680  10.487   4.085
  702SOL     OW 3944   1.988  11.554  12.319
  702SOL    HW1 3945   1.894  11.573  12.315
  702SOL    HW2 3946   2.011  11.524  12.231
  703SOL     OW 3947   2.722   2.959  14.289
  703SOL    HW1 3948   2.752   2.946  14.199
  703SOL    HW2 3949   2.655   3.027  14.282
  704SOL     OW 3950   7.985   7.571   5.963
  704SOL    HW1 3951   8.076   7.597   5.980
  704SOL    HW2 3952   7.973   7.583   5.869
  705SOL     OW 3953   1.524   1.855   3.274
  705SOL    HW1 3954   1.519   1.760   3.278
  705SOL    HW2 3955   1.551   1.874   3.184
  706SOL     OW 3956   2.986   5.065   1.966
  706SOL    HW1 3957   2.966   4.990   1.909
  706SOL    HW2 3958   3.065   5.103   1.929
  707SOL     OW 3959   9.190  12.373  13.419
  707SOL    HW1 3960   9.254  12.429  13.377
  707SOL    HW2 3961   9.114  12.429  13.433
  708SOL     OW 3962   8.272   4.874   9.331
  708SOL    HW1 3963   8.216   4.796   9.321
  708SOL    HW2 3964   8.216   4.947   9.305
  709SOL     OW 3965   9.128   8.929  12.619
  709SOL    HW1 3966   9.080   9.011  12.628
  709SOL    HW2 3967   9.198   8.934  12.683
  710SOL     OW 3968   6.023  13.936   9.030
  710SOL    HW1 3969   5.955  13.888   8.983
  710SOL    HW2 3970   5.985  14.023   9.046
  711SOL     OW 3971   5.124   5.920   0.253
  711SOL    HW1 3972   5.054   5.984   0.265
  711SOL    HW2 3973   5.176   5.927   0.333
  712SOL     OW 3974   6.641   2.933   1.864
  712SOL    HW1 3975   6.637   3.001   1.931
  712SOL    HW2 3976   6.550   2.903   1.855
  713SOL     OW 3977   4.210   0.110   0.458
  713SOL    HW1 3978   4.227   0.057   0.380
  713SOL    HW2 3979   4.150   0.056   0.510
  714SOL     OW 3980   5.437   5.603  12.361
  714SOL    HW1 3981   5.478   5.687  12.344
  714SOL    HW2 3982   5.464   5.548  12.288
  715SOL     OW 3983  13.562   8.794   9.117
  715SOL    HW1 3984  13.596   8.730   9.054
  715SOL    HW2 3985  13.621   8.788   9.192
  716SOL     OW 3986   1.269  11.049   6.499
  716SOL    HW1 3987   1.223  10.971   6.531
  716SOL    HW2 3988   1.358  11.018   6.481
  717SOL     OW 3989  14.387  11.111   7.670
  717SOL    HW1 3990  14.381  11.189   7.616
  717SOL    HW2 3991  14.297  11.094   7.698
  718SOL     OW 3992   1.666  12.156   5.960
  718SOL    HW1 3993   1.699  12.089   6.020
  718SOL    HW2 3994   1.719  12.233   5.980
  719SOL     OW 3995  13.456   5.320   2.582
  719SOL    HW1 3996  13.412   5.270   2.513
  719SOL    HW2 3997  13.529   5.363   2.537
  720SOL     OW 3998   2.552  10.063  14.332
  720SOL    HW1 3999   2.532  10.066  14.238
  720SOL    HW2 4000   2.595   9.979  14.345
  721SOL     OW 4001   7.606  12.694   6.979
  721SOL    HW1 4002   7.558  12.615   7.005
  721SOL    HW2 4003   7.583  12.707   6.887
  722SOL     OW 4004  13.825   5.360  12.578
  722SOL    HW1 4005  13.813   5.271  12.546
  722SOL    HW2 4006  13.774   5.414  12.518
  723SOL     OW 4007   7.576  10.967  14.189
  723SOL    HW1 4008   7.576  11.063  14.186
  723SOL    HW2 4009   7.483  10.943  14.191
  724SOL     OW 4010   6.073   2.095   2.345
  724SOL    HW1 4011   6.009   2.091   2.274
  724SOL    HW2 4012   6.023   2.127   2.420
  725SOL     OW 4013  14.542  12.360   5.670
  725SOL    HW1 4014  14.532  12.309   5.750
  725SOL    HW2 4015  14.634  12.349   5.646
  726SOL     OW 4016   7.184  13.885  13.328
  726SOL    HW1 4017   7.139  13.808  13.293
  726SOL    HW2 4018   7.114  13.944  13.354
  727SOL     OW 4019   5.082  11.888   8.269
  727SOL    HW1 4020   5.141  11.923   8.203
  727SOL    HW2 4021   5.126  11.904   8.352
  728SOL     OW 4022   8.240   6.912   2.461
  728SOL    HW1 4023   8.181   6.843   2.491
  728SOL    HW2 4024   8.304   6.867   2.406
  729SOL     OW 4025  13.152   7.712   3.881
  729SOL    HW1 4026  13.114   7.799   3.887
  729SOL    HW2 4027  13.096   7.657   3.936
  730SOL     OW 4028   4.198   7.213   1.064
  730SOL    HW1 4029   4.254   7.179   0.994
  730SOL    HW2 4030   4.259   7.253   1.126
  731SOL     OW 4031   2.303   4.463   6.644
  731SOL    HW1 4032   2.281   4.537   6.701
  731SOL    HW2 4033   2.392   4.481   6.615
  732SOL     OW 4034  13.977  14.580   0.839
  732SOL    HW1 4035  13.891  14.542   0.858
  732SOL    HW2 4036  14.004  14.540   0.757
  733SOL     OW 4037   0.067   7.535   4.972
  733SOL    HW1 4038   0.114   7.515   5.053
  733SOL    HW2 4039   0.079   7.457   4.917
  734SOL     OW 4040  11.020   3.773   8.940
  734SOL    HW1 4041  11.021   3.868   8.930
  734SOL    HW2 4042  11.095   3.754   8.996
  735SOL     OW 4043   5.559  12.907  12.240
  735SOL    HW1 4044   5.593  12.828  12.198
  735SOL    HW2 4045   5.625  12.929  12.306
  736SOL     OW 4046   5.134   0.953  11.608
  736SOL    HW1 4047   5.070   0.974  11.540
  736SOL    HW2 4048   5.209   1.009  11.588
  737SOL     OW 4049  13.673   7.553  12.183
  737SOL    HW1 4050  13.623   7.632  12.204
  737SOL    HW2 4051  13.633   7.521  12.102
  738SOL     OW 4052   6.638   8.028   7.670
  738SOL    HW1 4053   6.624   8.122   7.659
  738SOL    HW2 4054   6.599   7.988   7.592
  739SOL     OW 4055   9.340  10.398   6.386
  739SOL    HW1 4056   9.389  10.477   6.364
  739SOL    HW2 4057   9.389  10.327   6.345
  740SOL     OW 4058   8.914  11.103   2.073
  740SOL    HW1 4059   8.951  11.104   2.161
  740SOL    HW2 4060   8.829  11.059   2.082
  741SOL     OW 4061   1.295   1.201   9.345
  741SOL    HW1 4062   1.273   1.108   9.352
  741SOL    HW2 4063   1.382   1.203   9.306
  742SOL     OW 4064   2.034  13.300   0.048
  742SOL    HW1 4065   2.004  13.288  14.831
  742SOL    HW2 4066   1.981  13.373   0.081
  743SOL     OW 4067   1.101   0.779   7.126
  743SOL    HW1 4068   1.033   0.762   7.191
  743SOL    HW2 4069   1.054   0.784   7.042
  744SOL     OW 4070   3.478  14.078   0.953
  744SOL    HW1 4071   3.478  14.144   1.023
  744SOL    HW2 4072   3.440  14.124   0.877
  745SOL     OW 4073   5.644   8.430   1.910
  745SOL    HW1 4074   5.694   8.508   1.935
  745SOL    HW2 4075   5.555   8.447   1.940
  746SOL     OW 4076   0.127   6.048   2.771
  746SOL    HW1 4077   0.185   5.979   2.802
  746SOL    HW2 4078   0.187   6.120   2.748
  747SOL     OW 4079   0.417   0.359  11.056
  747SOL    HW1 4080   0.379   0.285  11.008
  747SOL    HW2 4081   0.440   0.322  11.141
  748SOL     OW 4082   7.857   9.554   2.828
  748SOL    HW1 4083   7.837   9.567   2.735
  748SOL    HW2 4084   7.860   9.642   2.865
  749SOL     OW 4085   3.404  10.225   7.483
  749SOL    HW1 4086   3.381  10.134   7.461
  749SOL    HW2 4087   3.488  10.239   7.440
  750SOL     OW 4088   6.632   5.839   0.037
  750SOL    HW1 4089   6.726   5.829   0.053
  750SOL    HW2 4090   6.622   5.820  14.817
  751SOL     OW 4091  14.023  11.494  13.963
  751SOL    HW1 4092  13.949  11.554  13.973
  751SOL    HW2 4093  13.983  11.408  13.948
  752SOL     OW 4094  14.468   8.145   9.148
  752SOL    HW1 4095  14.469   8.072   9.211
  752SOL    HW2 4096  14.561   8.164   9.134
  753SOL     OW 4097  13.588  12.911   5.765
  753SOL    HW1 4098  13.594  12.884   5.674
  753SOL    HW2 4099  13.508  12.963   5.770
  754SOL     OW 4100   7.942  13.342   5.756
  754SOL    HW1 4101   7.905  13.320   5.670
  754SOL    HW2 4102   7.913  13.273   5.814
  755SOL     OW 4103   3.884   7.656  10.083
  755SOL    HW1 4104   3.818   7.696  10.139
  755SOL    HW2 4105   3.968   7.678  10.125
  756SOL     OW 4106  13.967   3.249   0.888
  756SOL    HW1 4107  13.961   3.214   0.799
  756SOL    HW2 4108  13.965   3.344   0.876
  757SOL     OW 4109  11.670   4.995   0.141
  757SOL    HW1 4110  11.653   5.029   0.228
  757SOL    HW2 4111  11.611   4.920   0.132
  758SOL     OW 4112   5.941  12.621  10.392
  758SOL    HW1 4113   5.851  12.629  10.362
  758SOL    HW2 4114   5.976  12.710  10.386
  759SOL     OW 4115  11.199   1.201   9.907
  759SOL    HW1 4116  11.114   1.173   9.874
  759SOL    HW2 4117  11.185   1.216  10.000
  760SOL     OW 4118   4.456  12.304  10.647
  760SOL    HW1 4119   4.506  12.363  10.704
  760SOL    HW2 4120   4.514  12.291  10.571
  761SOL     OW 4121   1.665   0.647   4.374
  761SOL    HW1 4122   1.597   0.630   4.440
  761SOL    HW2 4123   1.619   0.644   4.290
  762SOL     OW 4124   8.033  10.519  14.545
  762SOL    HW1 4125   7.963  10.461  14.573
  762SOL    HW2 4126   8.114  10.473  14.569
  763SOL     OW 4127   4.519   1.552   1.362
  763SOL    HW1 4128   4.438   1.517   1.324
  763SOL    HW2 4129   4.563   1.595   1.289
  764SOL     OW 4130   2.244  13.194   2.781
  764SOL    HW1 4131   2.324  13.163   2.824
  764SOL    HW2 4132   2.262  13.285   2.757
  765SOL     OW 4133  12.560  14.811   8.855
  765SOL    HW1 4134  12.648  14.776   8.863
  765SOL    HW2 4135  12.555   0.005   8.923
  766SOL     OW 4136   1.439   9.123  13.059
  766SOL    HW1 4137   1.476   9.183  13.124
  766SOL    HW2 4138   1.345   9.138  13.064
  767SOL     OW 4139   0.748   1.995  12.702
  767SOL    HW1 4140   0.806   2.015  12.628
  767SOL    HW2 4141   0.786   1.917  12.742
  768SOL     OW 4142   7.053   3.309   1.682
  768SOL    HW1 4143   7.011   3.334   1.600
  768SOL    HW2 4144   7.143   3.287   1.657
  769SOL     OW 4145   7.587   3.239  14.340
  769SOL    HW1 4146   7.594   3.287  14.423
  769SOL    HW2 4147   7.503   3.194  14.346
  770SOL     OW 4148  11.218   3.586   1.604
  770SOL    HW1 4149  11.297   3.535   1.585
  770SOL    HW2 4150  11.148   3.540   1.558
  771SOL     OW 4151  14.332  10.499   0.565
  771SOL    HW1 4152  14.327  10.423   0.622
  771SOL    HW2 4153  14.346  10.573   0.624
  772SOL     OW 4154   2.423   7.784  14.263
  772SOL    HW1 4155   2.516   7.784  14.283
  772SOL    HW2 4156   2.401   7.692  14.248
  773SOL     OW 4157   0.789   8.896   4.280
  773SOL    HW1 4158   0.704   8.851   4.274
  773SOL    HW2 4159   0.771   8.974   4.331
  774SOL     OW 4160  10.114   3.623   3.031
  774SOL    HW1 4161  10.174   3.675   3.084
  774SOL    HW2 4162  10.170   3.571   2.974
  775SOL     OW 4163   0.254  11.931   2.389
  775SOL    HW1 4164   0.305  11.855   2.417
  775SOL    HW2 4165   0.304  12.006   2.420
  776SOL     OW 4166   5.133  10.561  13.914
  776SOL    HW1 4167   5.217  10.606  13.906
  776SOL    HW2 4168   5.080  10.597  13.843
  777SOL     OW 4169   2.451  10.539  13.106
  777SOL    HW1 4170   2.425  10.446  13.103
  777SOL    HW2 4171   2.443  10.569  13.016
  778SOL     OW 4172   0.551   4.096   7.714
  778SOL    HW1 4173   0.463   4.129   7.732
  778SOL    HW2 4174   0.543   4.001   7.716
  779SOL     OW 4175   4.038   0.118  14.440
  779SOL    HW1 4176   4.051   0.120  14.345
  779SOL    HW2 4177   3.974   0.049  14.454
  780SOL     OW 4178   1.522  14.592   4.727
  780SOL    HW1 4179   1.464  14.598   4.651
  780SOL    HW2 4180   1.466  14.611   4.802
  781SOL     OW 4181  12.355   7.047  13.999
  781SOL    HW1 4182  12.413   7.031  14.073
  781SOL    HW2 4183  12.363   6.968  13.945
  782SOL     OW 4184   8.510   2.250   4.046
  782SOL    HW1 4185   8.439   2.293   3.997
  782SOL    HW2 4186   8.550   2.321   4.096
  783SOL     OW 4187   3.153  11.816   6.145
  783SOL    HW1 4188   3.175  11.906   6.123
  783SOL    HW2 4189   3.081  11.823   6.208
  784SOL     OW 4190  13.209   3.029  10.730
  784SOL    HW1 4191  13.137   3.067  10.780
  784SOL    HW2 4192  13.188   2.936  10.726
  785SOL     OW 4193   6.673  10.050   6.208
  785SOL    HW1 4194   6.630  10.132   6.230
  785SOL    HW2 4195   6.607  10.000   6.160
  786SOL     OW 4196   8.083   5.972  11.330
  786SOL    HW1 4197   8.016   5.938  11.270
  786SOL    HW2 4198   8.045   6.051  11.367
  787SOL     OW 4199  14.433   9.184  11.137
  787SOL    HW1 4200  14.348   9.174  11.177
  787SOL    HW2 4201  14.453   9.278  11.147
  788SOL     OW 4202   2.793   3.966   6.064
  788SOL    HW1 4203   2.817   4.057   6.048
  788SOL    HW2 4204   2.797   3.956   6.159
  789SOL     OW 4205   4.343   6.498  10.844
  789SOL    HW1 4206   4.284   6.519  10.916
  789SOL    HW2 4207   4.403   6.573  10.840
  790SOL     OW 4208   0.183   0.670   6.323
  790SOL    HW1 4209   0.201   0.743   6.264
  790SOL    HW2 4210   0.135   0.607   6.269
  791SOL     OW 4211   7.125  13.658  10.565
  791SOL    HW1 4212   7.188  13.729  10.574
  791SOL    HW2 4213   7.158  13.590  10.624
  792SOL     OW 4214  12.812   8.616   2.655
  792SOL    HW1 4215  12.777   8.656   2.575
  792SOL    HW2 4216  12.794   8.523   2.645
  793SOL     OW 4217  11.755   6.983   5.158
  793SOL    HW1 4218  11.796   7.032   5.088
  793SOL    HW2 4219  11.673   7.029   5.175
  794SOL     OW 4220   7.166  13.347  12.140
  794SOL    HW1 4221   7.219  13.371  12.216
  794SOL    HW2 4222   7.103  13.283  12.173
  795SOL     OW 4223   3.133   7.769  12.264
  795SOL    HW1 4224   3.087   7.754  12.347
  795SOL    HW2 4225   3.071   7.821  12.212
  796SOL     OW 4226  11.091   1.950   4.046
  796SOL    HW1 4227  11.137   1.919   3.968
  796SOL    HW2 4228  11.081   2.044   4.032
  797SOL     OW 4229  11.182   4.167  14.046
  797SOL    HW1 4230  11.134   4.210  13.975
  797SOL    HW2 4231  11.145   4.206  14.126
  798SOL     OW 4232  11.605   2.662   6.553
  798SOL    HW1 4233  11.597   2.698   6.641
  798SOL    HW2 4234  11.681   2.604   6.557
  799SOL     OW 4235  14.513   0.966   6.888
  799SOL    HW1 4236  14.603   0.985   6.916
  799SOL    HW2 4237  14.459   0.992   6.962
  800SOL     OW 4238   1.009  12.136  11.210
  800SOL    HW1 4239   1.036  12.057  11.256
  800SOL    HW2 4240   0.922  12.156  11.245
  801SOL     OW 4241  13.402   5.461   5.540
  801SOL    HW1 4242  13.423   5.478   5.449
  801SOL    HW2 4243  13.438   5.374   5.558
  802SOL     OW 4244   5.651   5.281   9.529
  802SOL    HW1 4245   5.624   5.193   9.554
  802SOL    HW2 4246   5.657   5.278   9.433
  803SOL     OW 4247   6.010   4.141   3.514
  803SOL    HW1 4248   5.991   4.147   3.607
  803SOL    HW2 4249   5.995   4.230   3.481
  804SOL     OW 4250  11.890  13.067   8.674
  804SOL    HW1 4251  11.861  13.086   8.764
  804SOL    HW2 4252  11.884  13.151   8.629
  805SOL     OW 4253  12.533   3.590   4.874
  805SOL    HW1 4254  12.505   3.561   4.962
  805SOL    HW2 4255  12.625   3.613   4.885
  806SOL     OW 4256  10.505   7.247   1.098
  806SOL    HW1 4257  10.598   7.236   1.078
  806SOL    HW2 4258  10.487   7.182   1.166
  807SOL     OW 4259   4.598   8.119   8.638
  807SOL    HW1 4260   4.671   8.104   8.577
  807SOL    HW2 4261   4.525   8.069   8.601
  808SOL     OW 4262  10.761   1.464  14.414
  808SOL    HW1 4263  10.809   1.442  14.334
  808SOL    HW2 4264  10.808   1.418  14.483
  809SOL     OW 4265  11.415   2.804   4.326
  809SOL    HW1 4266  11.443   2.857   4.252
  809SOL    HW2 4267  11.319   2.803   4.320
  810SOL     OW 4268  11.905   9.317  14.177
  810SOL    HW1 4269  11.938   9.309  14.088
  810SOL    HW2 4270  11.866   9.405  14.181
  811SOL     OW 4271   8.445  11.243  13.871
  811SOL    HW1 4272   8.363  11.248  13.920
  811SOL    HW2 4273   8.513  11.244  13.938
  812SOL     OW 4274   0.366   6.632   7.639
  812SOL    HW1 4275   0.460   6.627   7.622
  812SOL    HW2 4276   0.353   6.579   7.717
  813SOL     OW 4277   0.593   0.158   4.761
  813SOL    HW1 4278   0.508   0.182   4.799
  813SOL    HW2 4279   0.642   0.241   4.757
  814SOL     OW 4280  10.001   3.593  14.061
  814SOL    HW1 4281  10.068   3.583  13.993
  814SOL    HW2 4282   9.981   3.687  14.062
  815SOL     OW 4283  14.677   2.703   6.978
  815SOL    HW1 4284  14.743   2.771   6.988
  815SOL    HW2 4285  14.608   2.727   7.039
  816SOL     OW 4286   7.659   5.362   4.547
  816SOL    HW1 4287   7.637   5.383   4.456
  816SOL    HW2 4288   7.725   5.292   4.540
  817SOL     OW 4289   2.715   1.268  11.434
  817SOL    HW1 4290   2.776   1.333  11.470
  817SOL    HW2 4291   2.664   1.239  11.509
  818SOL     OW 4292   3.216   3.387   1.183
  818SOL    HW1 4293   3.136   3.335   1.184
  818SOL    HW2 4294   3.213   3.435   1.101
  819SOL     OW 4295   0.406  10.768   8.372
  819SOL    HW1 4296   0.438  10.858   8.366
  819SOL    HW2 4297   0.370  10.749   8.285
  820SOL     OW 4298   6.201   6.190   7.214
  820SOL    HW1 4299   6.288   6.162   7.242
  820SOL    HW2 4300   6.140   6.149   7.275
  821SOL     OW 4301   5.355  10.491  13.075
  821SOL    HW1 4302   5.375  10.399  13.095
  821SOL    HW2 4303   5.334  10.491  12.982
  822SOL     OW 4304   9.944   8.474   3.193
  822SOL    HW1 4305   9.918   8.404   3.252
  822SOL    HW2 4306   9.924   8.440   3.105
  823SOL     OW 4307   4.210   9.680  14.049
  823SOL    HW1 4308   4.292   9.724  14.071
  823SOL    HW2 4309   4.215   9.665  13.955
  824SOL     OW 4310   8.544  13.258   7.512
  824SOL    HW1 4311   8.481  13.234   7.444
  824SOL    HW2 4312   8.542  13.354   7.513
  825SOL     OW 4313   7.101  12.167   1.640
  825SOL    HW1 4314   7.109  12.260   1.660
  825SOL    HW2 4315   7.129  12.123   1.721
  826SOL     OW 4316  10.568   3.033   5.169
  826SOL    HW1 4317  10.528   3.120   5.163
  826SOL    HW2 4318  10.571   3.014   5.262
  827SOL     OW 4319  12.616   4.247  11.974
  827SOL    HW1 4320  12.618   4.161  12.018
  827SOL    HW2 4321  12.700   4.254  11.930
  828SOL     OW 4322   3.230   8.135  14.526
  828SOL    HW1 4323   3.267   8.106  14.609
  828SOL    HW2 4324   3.136   8.123  14.536
  829SOL     OW 4325   3.239  13.395   1.817
  829SOL    HW1 4326   3.215  13.426   1.904
  829SOL    HW2 4327   3.155  13.384   1.772
  830SOL     OW 4328  10.427   8.901   3.435
  830SOL    HW1 4329  10.363   8.930   3.369
  830SOL    HW2 4330  10.425   8.969   3.502
  831SOL     OW 4331   2.313   2.079   9.318
  831SOL    HW1 4332   2.340   1.993   9.348
  831SOL    HW2 4333   2.385   2.137   9.343
  832SOL     OW 4334   2.453  12.336   9.379
  832SOL    HW1 4335   2.522  12.278   9.349
  832SOL    HW2 4336   2.482  12.424   9.354
  833SOL     OW 4337   2.050   3.308   5.257
  833SOL    HW1 4338   2.145   3.320   5.264
  833SOL    HW2 4339   2.040   3.218   5.228
  834SOL     OW 4340   2.147   4.299   0.117
  834SOL    HW1 4341   2.182   4.360   0.052
  834SOL    HW2 4342   2.114   4.355   0.188
  835SOL     OW 4343   5.991   8.984   7.087
  835SOL    HW1 4344   6.026   8.896   7.099
  835SOL    HW2 4345   6.044   9.040   7.144
  836SOL     OW 4346   2.824   8.202  11.247
  836SOL    HW1 4347   2.836   8.297  11.257
  836SOL    HW2 4348   2.887   8.164  11.308
  837SOL     OW 4349  11.751   2.296   2.426
  837SOL    HW1 4350  11.660   2.293   2.395
  837SOL    HW2 4351  11.753   2.236   2.501
  838SOL     OW 4352   7.103  10.488  10.485
  838SOL    HW1 4353   7.080  10.421  10.549
  838SOL    HW2 4354   7.040  10.476  10.414
  839SOL     OW 4355  14.296  11.201   9.185
  839SOL    HW1 4356  14.205  11.189   9.212
  839SOL    HW2 4357  14.326  11.112   9.166
  840SOL     OW 4358   7.272   6.507  12.969
  840SOL    HW1 4359   7.244   6.471  12.884
  840SOL    HW2 4360   7.208   6.575  12.988
  841SOL     OW 4361  12.365   3.781   6.579
  841SOL    HW1 4362  12.409   3.715   6.633
  841SOL    HW2 4363  12.437   3.824   6.532
  842SOL     OW 4364   7.039   3.429   9.924
  842SOL    HW1 4365   6.990   3.461   9.999
  842SOL    HW2 4366   7.105   3.497   9.907
  843SOL     OW 4367   9.323  13.210   5.218
  843SOL    HW1 4368   9.244  13.240   5.173
  843SOL    HW2 4369   9.321  13.255   5.303
  844SOL     OW 4370   2.689  12.941   6.045
  844SOL    HW1 4371   2.756  13.009   6.039
  844SOL    HW2 4372   2.649  12.940   5.958
  845SOL     OW 4373  11.793   5.239   1.651
  845SOL    HW1 4374  11.839   5.158   1.670
  845SOL    HW2 4375  11.766   5.231   1.559
  846SOL     OW 4376   4.327  13.367   6.152
  846SOL    HW1 4377   4.389  13.315   6.203
  846SOL    HW2 4378   4.276  13.414   6.218
  847SOL     OW 4379  13.851   3.081  10.866
  847SOL    HW1 4380  13.945   3.077  10.883
  847SOL    HW2 4381  13.840   3.157  10.808
  848SOL     OW 4382   5.758   7.501   8.632
  848SOL    HW1 4383   5.801   7.430   8.583
  848SOL    HW2 4384   5.826   7.533   8.691
  849SOL     OW 4385   5.675   3.581  12.392
  849SOL    HW1 4386   5.601   3.597  12.450
  849SOL    HW2 4387   5.716   3.667  12.380
  850SOL     OW 4388   3.752   4.984   8.400
  850SOL    HW1 4389   3.681   4.979   8.336
  850SOL    HW2 4390   3.795   4.899   8.395
  851SOL     OW 4391   2.973  12.486   2.107
  851SOL    HW1 4392   3.015  12.562   2.066
  851SOL    HW2 4393   3.046  12.435   2.143
  852SOL     OW 4394  10.650  11.370  11.547
  852SOL    HW1 4395  10.589  11.319  11.601
  852SOL    HW2 4396  10.674  11.445  11.601
  853SOL     OW 4397   6.603  10.895   4.790
  853SOL    HW1 4398   6.565  10.911   4.877
  853SOL    HW2 4399   6.695  10.920   4.800
  854SOL     OW 4400   1.476   5.870   3.802
  854SOL    HW1 4401   1.454   5.958   3.834
  854SOL    HW2 4402   1.463   5.876   3.707
  855SOL     OW 4403   7.040  11.662   9.988
  855SOL    HW1 4404   7.025  11.642  10.081
  855SOL    HW2 4405   7.094  11.741   9.990
  856SOL     OW 4406   3.583  12.010   8.972
  856SOL    HW1 4407   3.621  11.997   9.059
  856SOL    HW2 4408   3.574  12.105   8.965
  857SOL     OW 4409  12.940   7.980   7.743
  857SOL    HW1 4410  12.900   8.031   7.673
  857SOL    HW2 4411  12.868   7.925   7.776
  858SOL     OW 4412   8.613  10.798   4.763
  858SOL    HW1 4413   8.612  10.721   4.707
  858SOL    HW2 4414   8.522  10.829   4.764
  859SOL     OW 4415   3.677   5.171   8.885
  859SOL    HW1 4416   3.679   5.191   8.791
  859SOL    HW2 4417   3.768   5.148   8.906
  860SOL     OW 4418  10.190  12.715   0.094
  860SOL    HW1 4419  10.218  12.630   0.058
  860SOL    HW2 4420  10.193  12.703   0.189
  861SOL     OW 4421   8.326  13.512   5.679
  861SOL    HW1 4422   8.235  13.540   5.670
  861SOL    HW2 4423   8.325  13.419   5.660
  862SOL     OW 4424  12.543   7.548   2.092
  862SOL    HW1 4425  12.475   7.481   2.099
  862SOL    HW2 4426  12.615   7.503   2.047
  863SOL     OW 4427  12.566   1.345   6.047
  863SOL    HW1 4428  12.517   1.420   6.014
  863SOL    HW2 4429  12.551   1.276   5.982
  864SOL     OW 4430  10.434   5.710   1.461
  864SOL    HW1 4431  10.478   5.762   1.529
  864SOL    HW2 4432  10.504   5.687   1.400
  865SOL     OW 4433   8.502   8.935   2.600
  865SOL    HW1 4434   8.479   8.845   2.621
  865SOL    HW2 4435   8.469   8.947   2.511
  866SOL     OW 4436  12.871   8.583  11.171
  866SOL    HW1 4437  12.914   8.569  11.255
  866SOL    HW2 4438  12.789   8.627  11.193
  867SOL     OW 4439   8.341  10.958   2.333
  867SOL    HW1 4440   8.251  10.982   2.357
  867SOL    HW2 4441   8.365  10.891   2.397
  868SOL     OW 4442   9.010   7.746   2.745
  868SOL    HW1 4443   9.099   7.770   2.771
  868SOL    HW2 4444   8.953   7.789   2.809
  869SOL     OW 4445   5.410   8.910   6.220
  869SOL    HW1 4446   5.443   8.919   6.310
  869SOL    HW2 4447   5.316   8.896   6.231
  870SOL     OW 4448  10.462  10.783   5.257
  870SOL    HW1 4449  10.418  10.868   5.256
  870SOL    HW2 4450  10.465  10.757   5.165
  871SOL     OW 4451   0.207   7.414  13.627
  871SOL    HW1 4452   0.187   7.507  13.638
  871SOL    HW2 4453   0.301   7.410  13.614
  872SOL     OW 4454   1.620   2.905   2.858
  872SOL    HW1 4455   1.661   2.844   2.920
  872SOL    HW2 4456   1.688   2.921   2.793
  873SOL     OW 4457  14.308  14.793  11.414
  873SOL    HW1 4458  14.275  14.831  11.333
  873SOL    HW2 4459  14.393  14.755  11.390
  874SOL     OW 4460  13.719   3.107  12.754
  874SOL    HW1 4461  13.663   3.043  12.710
  874SOL    HW2 4462  13.689   3.192  12.719
  875SOL     OW 4463   6.161   6.897  11.519
  875SOL    HW1 4464   6.139   6.875  11.609
  875SOL    HW2 4465   6.252   6.867  11.509
  876SOL     OW 4466  14.300   3.422   9.057
  876SOL    HW1 4467  14.317   3.371   8.978
  876SOL    HW2 4468  14.360   3.386   9.122
  877SOL     OW 4469  10.383   6.983   5.231
  877SOL    HW1 4470  10.434   7.016   5.305
  877SOL    HW2 4471  10.445   6.979   5.159
  878SOL     OW 4472  11.069   5.614  10.904
  878SOL    HW1 4473  11.076   5.614  10.808
  878SOL    HW2 4474  11.097   5.527  10.931
  879SOL     OW 4475   6.706  10.754   8.729
  879SOL    HW1 4476   6.768  10.720   8.665
  879SOL    HW2 4477   6.677  10.678   8.778
  880SOL     OW 4478   6.167   3.676   4.647
  880SOL    HW1 4479   6.135   3.588   4.630
  880SOL    HW2 4480   6.099   3.734   4.612
  881SOL     OW 4481  10.391  13.182  11.142
  881SOL    HW1 4482  10.412  13.272  11.117
  881SOL    HW2 4483  10.321  13.156  11.083
  882SOL     OW 4484   2.733   0.487   2.416
  882SOL    HW1 4485   2.650   0.490   2.463
  882SOL    HW2 4486   2.800   0.498   2.484
  883SOL     OW 4487   4.086   6.459  14.202
  883SOL    HW1 4488   4.069   6.398  14.131
  883SOL    HW2 4489   4.086   6.545  14.159
  884SOL     OW 4490  10.691  10.732   5.960
  884SOL    HW1 4491  10.743  10.659   5.995
  884SOL    HW2 4492  10.752  10.806   5.961
  885SOL     OW 4493  13.493   4.629   1.248
  885SOL    HW1 4494  13.483   4.716   1.211
  885SOL    HW2 4495  13.491   4.643   1.343
  886SOL     OW 4496  12.412  14.104   9.450
  886SOL    HW1 4497  12.346  14.053   9.404
  886SOL    HW2 4498  12.466  14.142   9.381
  887SOL     OW 4499   7.458   3.633  14.144
  887SOL    HW1 4500   7.372   3.623  14.185
  887SOL    HW2 4501   7.454   3.719  14.102
  888SOL     OW 4502  11.142   0.843   9.996
  888SOL    HW1 4503  11.099   0.919  10.035
  888SOL    HW2 4504  11.091   0.824   9.918
  889SOL     OW 4505   1.947   7.178   6.036
  889SOL    HW1 4506   1.920   7.208   6.123
  889SOL    HW2 4507   1.915   7.246   5.976
  890SOL     OW 4508   5.080   6.973   2.504
  890SOL    HW1 4509   5.066   6.981   2.409
  890SOL    HW2 4510   4.993   6.978   2.542
  891SOL     OW 4511  12.786  11.657   6.891
  891SOL    HW1 4512  12.746  11.615   6.815
  891SOL    HW2 4513  12.865  11.605   6.908
  892SOL     OW 4514  14.829   2.255   0.054
  892SOL    HW1 4515  14.757   2.195   0.032
  892SOL    HW2 4516   0.000   2.214   0.127
  893SOL     OW 4517   6.788   0.496  10.857
  893SOL    HW1 4518   6.707   0.445  10.854
  893SOL    HW2 4519   6.775   0.557  10.930
  894SOL     OW 4520   1.177   1.230   8.106
  894SOL    HW1 4521   1.095   1.260   8.145
  894SOL    HW2 4522   1.189   1.141   8.140
  895SOL     OW 4523   9.508   4.509   9.402
  895SOL    HW1 4524   9.486   4.434   9.456
  895SOL    HW2 4525   9.438   4.514   9.337
  896SOL     OW 4526   4.800  12.485  10.292
  896SOL    HW1 4527   4.886  12.443  10.286
  896SOL    HW2 4528   4.818  12.579  10.285
  897SOL     OW 4529  13.212   6.920   0.144
  897SOL    HW1 4530  13.237   6.967   0.223
  897SOL    HW2 4531  13.158   6.847   0.175
  898SOL     OW 4532  11.696  13.034   4.674
  898SOL    HW1 4533  11.631  13.103   4.662
  898SOL    HW2 4534  11.745  13.060   4.751
  899SOL     OW 4535   5.211   7.186  13.538
  899SOL    HW1 4536   5.259   7.119  13.489
  899SOL    HW2 4537   5.164   7.236  13.472
  900SOL     OW 4538  14.419  10.385  12.611
  900SOL    HW1 4539  14.513  10.392  12.595
  900SOL    HW2 4540  14.399  10.457  12.670
  901SOL     OW 4541   3.248  12.189  10.555
  901SOL    HW1 4542   3.337  12.162  10.531
  901SOL    HW2 4543   3.252  12.284  10.559
  902SOL     OW 4544  11.634  10.391   4.414
  902SOL    HW1 4545  11.552  10.377   4.461
  902SOL    HW2 4546  11.621  10.473   4.366
  903SOL     OW 4547   6.015  12.223  12.263
  903SOL    HW1 4548   6.105  12.242  12.234
  903SOL    HW2 4549   5.961  12.286  12.216
  904SOL     OW 4550   7.853   1.451   4.324
  904SOL    HW1 4551   7.948   1.444   4.336
  904SOL    HW2 4552   7.843   1.519   4.257
  905SOL     OW 4553   0.682   1.253   2.707
  905SOL    HW1 4554   0.632   1.174   2.725
  905SOL    HW2 4555   0.636   1.294   2.634
  906SOL     OW 4556   3.026  12.077   3.311
  906SOL    HW1 4557   2.969  12.137   3.262
  906SOL    HW2 4558   3.051  12.126   3.389
  907SOL     OW 4559   6.365  10.491  14.341
  907SOL    HW1 4560   6.346  10.462  14.252
  907SOL    HW2 4561   6.409  10.415  14.381
  908SOL     OW 4562   8.568   5.573   1.116
  908SOL    HW1 4563   8.554   5.562   1.210
  908SOL    HW2 4564   8.663   5.579   1.107
  909SOL     OW 4565   3.920   4.951  11.454
  909SOL    HW1 4566   3.939   4.858  11.451
  909SOL    HW2 4567   3.831   4.959  11.418
  910SOL     OW 4568   4.645   6.632   9.801
  910SOL    HW1 4569   4.569   6.662   9.851
  910SOL    HW2 4570   4.610   6.567   9.740
  911SOL     OW 4571   9.834   0.840   4.467
  911SOL    HW1 4572   9.908   0.875   4.516
  911SOL    HW2 4573   9.827   0.749   4.494
  912SOL     OW 4574  12.157  14.115   9.884
  912SOL    HW1 4575  12.144  14.084   9.795
  912SOL    HW2 4576  12.224  14.183   9.876
  913SOL     OW 4577  14.167  10.930   4.612
  913SOL    HW1 4578  14.240  10.910   4.671
  913SOL    HW2 4579  14.206  10.929   4.525
  914SOL     OW 4580  11.893  14.667  13.751
  914SOL    HW1 4581  11.939  14.596  13.705
  914SOL    HW2 4582  11.868  14.728  13.682
  915SOL     OW 4583  12.915   3.808   5.736
  915SOL    HW1 4584  12.891   3.794   5.828
  915SOL    HW2 4585  12.884   3.730   5.691
  916SOL     OW 4586   2.986   2.222  10.942
  916SOL    HW1 4587   3.053   2.290  10.933
  916SOL    HW2 4588   3.028   2.153  10.993
  917SOL     OW 4589   4.103   2.989  12.378
  917SOL    HW1 4590   4.067   2.920  12.433
  917SOL    HW2 4591   4.076   2.965  12.289
  918SOL     OW 4592   5.840   5.840   2.730
  918SOL    HW1 4593   5.847   5.791   2.648
  918SOL    HW2 4594   5.900   5.914   2.718
  919SOL     OW 4595  14.537   4.221   2.014
  919SOL    HW1 4596  14.489   4.138   2.021
  919SOL    HW2 4597  14.595   4.209   1.938
  920SOL     OW 4598  14.671   5.125   1.174
  920SOL    HW1 4599  14.610   5.199   1.172
  920SOL    HW2 4600  14.665   5.087   1.086
  921SOL     OW 4601  11.261   8.236   8.095
  921SOL    HW1 4602  11.260   8.143   8.071
  921SOL    HW2 4603  11.213   8.239   8.178
  922SOL     OW 4604   5.338  10.637  14.774
  922SOL    HW1 4605   5.250  10.673  14.775
  922SOL    HW2 4606   5.376  10.667  14.692
  923SOL     OW 4607  12.433   9.480   2.856
  923SOL    HW1 4608  12.443   9.505   2.948
  923SOL    HW2 4609  12.488   9.403   2.845
  924SOL     OW 4610  12.278   2.906  13.633
  924SOL    HW1 4611  12.344   2.891  13.565
  924SOL    HW2 4612  12.318   2.873  13.713
  925SOL     OW 4613   6.100   4.385   6.039
  925SOL    HW1 4614   6.053   4.363   5.959
  925SOL    HW2 4615   6.155   4.308   6.056
  926SOL     OW 4616  14.419   2.426  14.291
  926SOL    HW1 4617  14.367   2.433  14.371
  926SOL    HW2 4618  14.391   2.501  14.238
  927SOL     OW 4619   8.636  12.530   2.089
  927SOL    HW1 4620   8.724  12.555   2.116
  927SOL    HW2 4621   8.606  12.470   2.157
  928SOL     OW 4622  14.765   7.613   0.650
  928SOL    HW1 4623  14.836   7.641   0.592
  928SOL    HW2 4624  14.750   7.688   0.707
  929SOL     OW 4625   5.982   6.628   0.853
  929SOL    HW1 4626   5.989   6.650   0.760
  929SOL    HW2 4627   5.889   6.638   0.873
  930SOL     OW 4628   5.663   3.619   7.093
  930SOL    HW1 4629   5.748   3.600   7.133
  930SOL    HW2 4630   5.606   3.639   7.167
  931SOL     OW 4631  13.180   3.902   1.273
  931SOL    HW1 4632  13.229   3.984   1.279
  931SOL    HW2 4633  13.144   3.888   1.361
  932SOL     OW 4634   2.884  12.958   2.991
  932SOL    HW1 4635   2.921  12.964   2.903
  932SOL    HW2 4636   2.841  12.873   2.994
  933SOL     OW 4637  11.015   1.754   4.232
  933SOL    HW1 4638  11.028   1.847   4.212
  933SOL    HW2 4639  11.014   1.711   4.147
  934SOL     OW 4640   8.051   8.045   7.722
  934SOL    HW1 4641   8.124   8.022   7.665
  934SOL    HW2 4642   7.984   8.078   7.662
  935SOL     OW 4643  11.064   7.361   1.969
  935SOL    HW1 4644  10.981   7.408   1.961
  935SOL    HW2 4645  11.100   7.390   2.052
  936SOL     OW 4646   4.566   1.346   9.746
  936SOL    HW1 4647   4.591   1.436   9.725
  936SOL    HW2 4648   4.650   1.301   9.760
  937SOL     OW 4649   7.964  11.986   6.385
  937SOL    HW1 4650   7.935  11.981   6.477
  937SOL    HW2 4651   8.041  11.929   6.381
  938SOL     OW 4652   6.286   4.135  10.409
  938SOL    HW1 4653   6.291   4.214  10.356
  938SOL    HW2 4654   6.237   4.161  10.488
  939SOL     OW 4655  14.124   6.600   7.582
  939SOL    HW1 4656  14.185   6.595   7.508
  939SOL    HW2 4657  14.167   6.657   7.645
  940SOL     OW 4658   0.480   1.913  10.839
  940SOL    HW1 4659   0.514   1.896  10.751
  940SOL    HW2 4660   0.551   1.958  10.884
  941SOL     OW 4661   9.002  11.518   1.835
  941SOL    HW1 4662   8.985  11.562   1.752
  941SOL    HW2 4663   8.949  11.439   1.832
  942SOL     OW 4664   5.802   5.022   1.127
  942SOL    HW1 4665   5.876   5.057   1.076
  942SOL    HW2 4666   5.839   5.002   1.213
  943SOL     OW 4667   0.056  12.758   4.062
  943SOL    HW1 4668   0.078  12.683   4.008
  943SOL    HW2 4669  14.864  12.806   4.012
  944SOL     OW 4670   8.163   5.720  12.212
  944SOL    HW1 4671   8.162   5.630  12.244
  944SOL    HW2 4672   8.230   5.764  12.264
  945SOL     OW 4673  14.017  12.773  10.667
  945SOL    HW1 4674  13.936  12.746  10.624
  945SOL    HW2 4675  14.083  12.770  10.597
  946SOL     OW 4676  12.059   9.515   1.691
  946SOL    HW1 4677  12.051   9.471   1.607
  946SOL    HW2 4678  12.136   9.475   1.732
  947SOL     OW 4679   7.303  12.523   5.887
  947SOL    HW1 4680   7.291  12.431   5.910
  947SOL    HW2 4681   7.398  12.536   5.888
  948SOL     OW 4682  10.429  11.969   5.471
  948SOL    HW1 4683  10.378  11.906   5.521
  948SOL    HW2 4684  10.484  12.012   5.536
  949SOL     OW 4685  13.337  14.230   0.487
  949SOL    HW1 4686  13.385  14.305   0.453
  949SOL    HW2 4687  13.401  14.159   0.489
  950SOL     OW 4688   8.755   6.488  14.085
  950SOL    HW1 4689   8.754   6.415  14.024
  950SOL    HW2 4690   8.700   6.459  14.158
  951SOL     OW 4691  14.585   1.967  11.771
  951SOL    HW1 4692  14.605   2.060  11.762
  951SOL    HW2 4693  14.650   1.934  11.832
  952SOL     OW 4694   2.853   5.508   2.756
  952SOL    HW1 4695   2.875   5.489   2.847
  952SOL    HW2 4696   2.847   5.604   2.752
  953SOL     OW 4697   3.902   4.865  10.641
  953SOL    HW1 4698   3.893   4.940  10.699
  953SOL    HW2 4699   3.994   4.839  10.648
  954SOL     OW 4700  14.515   0.936  13.777
  954SOL    HW1 4701  14.497   0.843  13.790
  954SOL    HW2 4702  14.610   0.942  13.773
  955SOL     OW 4703  10.923  12.917   8.963
  955SOL    HW1 4704  10.870  12.959   9.031
  955SOL    HW2 4705  10.920  12.978   8.889
  956SOL     OW 4706  10.866  12.507   3.656
  956SOL    HW1 4707  10.828  12.516   3.568
  956SOL    HW2 4708  10.921  12.429   3.650
  957SOL     OW 4709   6.486   4.854   0.318
  957SOL    HW1 4710   6.473   4.921   0.385
  957SOL    HW2 4711   6.581   4.845   0.312
  958SOL     OW 4712   9.933   5.193   4.267
  958SOL    HW1 4713   9.991   5.269   4.275
  958SOL    HW2 4714   9.899   5.197   4.178
  959SOL     OW 4715  13.913   0.408   5.524
  959SOL    HW1 4716  13.856   0.357   5.466
  959SOL    HW2 4717  13.871   0.402   5.610
  960SOL     OW 4718  10.513   9.082   3.658
  960SOL    HW1 4719  10.515   9.047   3.747
  960SOL    HW2 4720  10.576   9.154   3.659
  961SOL     OW 4721  13.446  14.053  12.804
  961SOL    HW1 4722  13.541  14.060  12.801
  961SOL    HW2 4723  13.425  13.980  12.746
  962SOL     OW 4724   0.010   9.735   8.424
  962SOL    HW1 4725  14.815   9.676   8.392
  962SOL    HW2 4726  14.843   9.779   8.499
  963SOL     OW 4727   9.355  11.248   1.680
  963SOL    HW1 4728   9.357  11.285   1.592
  963SOL    HW2 4729   9.350  11.323   1.738
  964SOL     OW 4730  11.019   5.652   9.854
  964SOL    HW1 4731  11.110   5.682   9.848
  964SOL    HW2 4732  10.971   5.727   9.890
  965SOL     OW 4733   4.773   8.014   7.219
  965SOL    HW1 4734   4.792   7.933   7.266
  965SOL    HW2 4735   4.775   8.082   7.287
  966SOL     OW 4736  12.325   5.369   5.823
  966SOL    HW1 4737  12.248   5.370   5.879
  966SOL    HW2 4738  12.323   5.453   5.778
  967SOL     OW 4739  11.380   3.514   0.240
  967SOL    HW1 4740  11.322   3.583   0.273
  967SOL    HW2 4741  11.399   3.540   0.150
  968SOL     OW 4742   3.923   5.620   2.515
  968SOL    HW1 4743   3.912   5.534   2.556
  968SOL    HW2 4744   3.919   5.602   2.421
  969SOL     OW 4745   4.855   7.980   2.369
  969SOL    HW1 4746   4.806   7.906   2.404
  969SOL    HW2 4747   4.800   8.056   2.388
  970SOL     OW 4748   5.067   7.542  10.246
  970SOL    HW1 4749   4.978   7.516  10.224
  970SOL    HW2 4750   5.066   7.549  10.342
  971SOL     OW 4751   5.315  12.755  14.114
  971SOL    HW1 4752   5.275  12.682  14.067
  971SOL    HW2 4753   5.384  12.715  14.168
  972SOL     OW 4754   8.249   8.556  12.793
  972SOL    HW1 4755   8.205   8.482  12.751
  972SOL    HW2 4756   8.247   8.534  12.886
  973SOL     OW 4757   6.594  12.450   5.265
  973SOL    HW1 4758   6.670  12.489   5.221
  973SOL    HW2 4759   6.614  12.456   5.358
  974SOL     OW 4760  14.312  10.875   5.678
  974SOL    HW1 4761  14.335  10.813   5.609
  974SOL    HW2 4762  14.331  10.828   5.759
  975SOL     OW 4763   2.271   1.284  11.891
  975SOL    HW1 4764   2.312   1.261  11.974
  975SOL    HW2 4765   2.340   1.325  11.840
  976SOL     OW 4766  13.074   0.140   8.314
  976SOL    HW1 4767  13.007   0.162   8.378
  976SOL    HW2 4768  13.088   0.046   8.324
  977SOL     OW 4769   4.879  10.113   9.400
  977SOL    HW1 4770   4.877  10.026   9.439
  977SOL    HW2 4771   4.898  10.172   9.474
  978SOL     OW 4772  13.135   6.325   9.338
  978SOL    HW1 4773  13.169   6.279   9.262
  978SOL    HW2 4774  13.040   6.322   9.327
  979SOL     OW 4775  12.377   7.744   9.037
  979SOL    HW1 4776  12.337   7.829   9.018
  979SOL    HW2 4777  12.337   7.684   8.974
  980SOL     OW 4778   7.339   8.067   1.762
  980SOL    HW1 4779   7.271   8.125   1.729
  980SOL    HW2 4780   7.292   7.989   1.793
  981SOL     OW 4781  14.029   8.313   2.874
  981SOL    HW1 4782  13.949   8.262   2.865
  981SOL    HW2 4783  14.085   8.285   2.802
  982SOL     OW 4784   5.373  13.842   4.922
  982SOL    HW1 4785   5.380  13.850   5.017
  982SOL    HW2 4786   5.281  13.823   4.906
  983SOL     OW 4787  11.472  14.488  13.671
  983SOL    HW1 4788  11.505  14.463  13.585
  983SOL    HW2 4789  11.392  14.537  13.653
  984SOL     OW 4790   2.713   3.573   8.244
  984SOL    HW1 4791   2.682   3.662   8.229
  984SOL    HW2 4792   2.794   3.568   8.193
  985SOL     OW 4793   5.574   3.327  12.258
  985SOL    HW1 4794   5.623   3.404  12.289
  985SOL    HW2 4795   5.637   3.255  12.262
  986SOL     OW 4796   6.115   2.634   0.850
  986SOL    HW1 4797   6.184   2.638   0.784
  986SOL    HW2 4798   6.048   2.695   0.819
  987SOL     OW 4799   6.426   1.211  14.606
  987SOL    HW1 4800   6.337   1.217  14.641
  987SOL    HW2 4801   6.429   1.277  14.537
  988SOL     OW 4802   3.440   4.310   8.233
  988SOL    HW1 4803   3.454   4.217   8.218
  988SOL    HW2 4804   3.349   4.326   8.209
  989SOL     OW 4805   3.180   8.224   9.291
  989SOL    HW1 4806   3.205   8.316   9.301
  989SOL    HW2 4807   3.130   8.204   9.370
  990SOL     OW 4808  10.388   4.778  12.645
  990SOL    HW1 4809  10.304   4.821  12.659
  990SOL    HW2 4810  10.374   4.722  12.568
  991SOL     OW 4811  13.929   3.898   6.503
  991SOL    HW1 4812  13.898   3.824   6.452
  991SOL    HW2 4813  13.855   3.959   6.505
  992SOL     OW 4814   5.561   7.895   2.668
  992SOL    HW1 4815   5.639   7.854   2.705
  992SOL    HW2 4816   5.572   7.989   2.685
  993SOL     OW 4817   2.649   2.940  11.047
  993SOL    HW1 4818   2.704   2.864  11.061
  993SOL    HW2 4819   2.710   3.011  11.029
  994SOL     OW 4820   9.441   0.182  13.301
  994SOL    HW1 4821   9.394   0.103  13.274
  994SOL    HW2 4822   9.479   0.216  13.220
  995SOL     OW 4823   5.888   6.307  10.807
  995SOL    HW1 4824   5.848   6.365  10.872
  995SOL    HW2 4825   5.825   6.304  10.735
  996SOL     OW 4826   0.196   8.543   8.998
  996SOL    HW1 4827   0.267   8.520   8.937
  996SOL    HW2 4828   0.120   8.494   8.965
  997SOL     OW 4829  13.179   6.326   5.833
  997SOL    HW1 4830  13.191   6.259   5.900
  997SOL    HW2 4831  13.103   6.298   5.783
  998SOL     OW 4832  14.826  14.758   0.733
  998SOL    HW1 4833  14.735  14.782   0.746
  998SOL    HW2 4834  14.823  14.667   0.703
  999SOL     OW 4835  10.658   1.056  10.102
  999SOL    HW1 4836  10.582   1.098  10.143
  999SOL    HW2 4837  10.652   0.964  10.129
 1000SOL     OW 4838  14.350   1.213  14.475
 1000SOL    HW1 4839  14.384   1.294  14.438
 1000SOL    HW2 4840  14.327   1.236  14.565
 1001SOL     OW 4841  13.027   3.969  14.825
 1001SOL    HW1 4842  13.013   3.951  14.732
 1001SOL    HW2 4843  12.952   3.929  14.869
 1002SOL     OW 4844   0.449   6.581   3.605
 1002SOL    HW1 4845   0.415   6.600   3.518
 1002SOL    HW2 4846   0.537   6.620   3.606
 1003SOL     OW 4847   8.613   7.230   7.878
 1003SOL    HW1 4848   8.560   7.226   7.799
 1003SOL    HW2 4849   8.693   7.182   7.855
 1004SOL     OW 4850   0.581   4.917   1.462
 1004SOL    HW1 4851   0.649   4.896   1.526
 1004SOL    HW2 4852   0.501   4.924   1.513
 1005SOL     OW 4853  10.000   8.736   3.117
 1005SOL    HW1 4854  10.078   8.716   3.064
 1005SOL    HW2 4855   9.972   8.651   3.151
 1006SOL     OW 4856   6.282  13.422  13.153
 1006SOL    HW1 4857   6.368  13.380  13.148
 1006SOL    HW2 4858   6.227  13.358  13.198
 1007SOL     OW 4859   7.074   2.294  12.168
 1007SOL    HW1 4860   7.038   2.303  12.080
 1007SOL    HW2 4861   7.018   2.229  12.210
 1008SOL     OW 4862   4.524   4.653   7.069
 1008SOL    HW1 4863   4.542   4.561   7.091
 1008SOL    HW2 4864   4.606   4.698   7.088
 1009SOL     OW 4865  14.613   1.966  12.203
 1009SOL    HW1 4866  14.657   2.051  12.197
 1009SOL    HW2 4867  14.642   1.919  12.125
 1010SOL     OW 4868  12.999   7.876   9.376
 1010SOL    HW1 4869  12.959   7.810   9.433
 1010SOL    HW2 4870  12.925   7.922   9.337
 1011SOL     OW 4871   6.902   1.668   3.561
 1011SOL    HW1 4872   6.982   1.720   3.572
 1011SOL    HW2 4873   6.865   1.699   3.478
 1012SOL     OW 4874   3.162   4.334  12.616
 1012SOL    HW1 4875   3.135   4.276  12.544
 1012SOL    HW2 4876   3.142   4.422  12.583
 1013SOL     OW 4877   5.770  10.997   6.655
 1013SOL    HW1 4878   5.800  11.071   6.707
 1013SOL    HW2 4879   5.706  11.035   6.595
 1014SOL     OW 4880  14.528  10.610   6.107
 1014SOL    HW1 4881  14.561  10.594   6.195
 1014SOL    HW2 4882  14.510  10.704   6.104
 1015SOL     OW 4883  10.750   2.076   7.094
 1015SOL    HW1 4884  10.715   1.987   7.096
 1015SOL    HW2 4885  10.816   2.076   7.025
 1016SOL     OW 4886  12.636   0.597  10.921
 1016SOL    HW1 4887  12.555   0.548  10.935
 1016SOL    HW2 4888  12.634   0.623  10.829
 1017SOL     OW 4889   1.651  10.196   1.811
 1017SOL    HW1 4890   1.738  10.204   1.851
 1017SOL    HW2 4891   1.650  10.108   1.775
 1018SOL     OW 4892   4.206   8.532  13.084
 1018SOL    HW1 4893   4.221   8.449  13.038
 1018SOL    HW2 4894   4.243   8.598  13.026
 1019SOL     OW 4895   7.424  13.872   3.355
 1019SOL    HW1 4896   7.476  13.817   3.414
 1019SOL    HW2 4897   7.466  13.958   3.361
 1020SOL     OW 4898   3.377  14.653   5.069
 1020SOL    HW1 4899   3.416  14.725   5.019
 1020SOL    HW2 4900   3.361  14.584   5.004
 1021SOL     OW 4901  11.716   4.572   9.563
 1021SOL    HW1 4902  11.660   4.623   9.622
 1021SOL    HW2 4903  11.679   4.484   9.567
 1022SOL     OW 4904  14.150  11.212   0.757
 1022SOL    HW1 4905  14.132  11.295   0.712
 1022SOL    HW2 4906  14.072  11.196   0.810
 1023SOL     OW 4907   6.858  12.879  11.922
 1023SOL    HW1 4908   6.789  12.873  11.988
 1023SOL    HW2 4909   6.937  12.852  11.968
 1024SOL     OW 4910   6.251  14.097  10.746
 1024SOL    HW1 4911   6.196  14.050  10.808
 1024SOL    HW2 4912   6.190  14.141  10.687
 1025SOL     OW 4913   5.207   6.441   7.721
 1025SOL    HW1 4914   5.203   6.373   7.788
 1025SOL    HW2 4915   5.178   6.521   7.766
 1026SOL     OW 4916   7.284   4.086   0.464
 1026SOL    HW1 4917   7.231   4.166   0.467
 1026SOL    HW2 4918   7.257   4.036   0.542
 1027SOL     OW 4919   8.287   5.759  10.474
 1027SOL    HW1 4920   8.236   5.823  10.425
 1027SOL    HW2 4921   8.363   5.809  10.507
 1028SOL     OW 4922   7.947  12.287   0.303
 1028SOL    HW1 4923   7.871  12.232   0.283
 1028SOL    HW2 4924   7.976  12.321   0.219
 1029SOL     OW 4925   0.388  14.511   2.225
 1029SOL    HW1 4926   0.443  14.549   2.157
 1029SOL    HW2 4927   0.366  14.586   2.282
 1030SOL     OW 4928   5.175   0.823  12.603
 1030SOL    HW1 4929   5.218   0.899  12.644
 1030SOL    HW2 4930   5.121   0.860  12.533
 1031SOL     OW 4931   5.744   6.691   8.734
 1031SOL    HW1 4932   5.799   6.695   8.812
 1031SOL    HW2 4933   5.666   6.742   8.757
 1032SOL     OW 4934   9.101   9.895   3.309
 1032SOL    HW1 4935   9.048   9.837   3.254
 1032SOL    HW2 4936   9.172   9.924   3.251
 1033SOL     OW 4937  14.411   4.060   4.457
 1033SOL    HW1 4938  14.328   4.057   4.503
 1033SOL    HW2 4939  14.473   4.096   4.521
 1034SOL     OW 4940   5.006   3.041   8.181
 1034SOL    HW1 4941   4.995   2.996   8.097
 1034SOL    HW2 4942   5.101   3.053   8.189
 1035SOL     OW 4943   6.138   5.810   7.634
 1035SOL    HW1 4944   6.157   5.777   7.722
 1035SOL    HW2 4945   6.221   5.845   7.603
 1036SOL     OW 4946  13.621   0.258   5.878
 1036SOL    HW1 4947  13.585   0.251   5.966
 1036SOL    HW2 4948  13.708   0.217   5.885
 1037SOL     OW 4949   0.208   7.852  12.547
 1037SOL    HW1 4950   0.126   7.875  12.503
 1037SOL    HW2 4951   0.226   7.763  12.518
 1038SOL     OW 4952   0.202   7.996   0.376
 1038SOL    HW1 4953   0.197   7.902   0.358
 1038SOL    HW2 4954   0.263   8.030   0.310
 1039SOL     OW 4955   2.065   8.876  14.233
 1039SOL    HW1 4956   2.092   8.794  14.192
 1039SOL    HW2 4957   1.970   8.876  14.229
 1040SOL     OW 4958   5.395   0.058   0.653
 1040SOL    HW1 4959   5.431   0.020   0.734
 1040SOL    HW2 4960   5.472   0.070   0.597
 1041SOL     OW 4961  14.771   3.492   5.760
 1041SOL    HW1 4962  14.808   3.403   5.761
 1041SOL    HW2 4963  14.847   3.549   5.775
 1042SOL     OW 4964   6.525   6.917  13.585
 1042SOL    HW1 4965   6.504   6.828  13.554
 1042SOL    HW2 4966   6.595   6.946  13.528
 1043SOL     OW 4967   6.428   2.313  14.712
 1043SOL    HW1 4968   6.405   2.315  14.619
 1043SOL    HW2 4969   6.359   2.262  14.753
 1044SOL     OW 4970   3.028   4.443   1.032
 1044SOL    HW1 4971   3.089   4.508   1.066
 1044SOL    HW2 4972   3.062   4.421   0.945
 1045SOL     OW 4973   6.949  13.438   5.357
 1045SOL    HW1 4974   6.919  13.369   5.417
 1045SOL    HW2 4975   6.871  13.490   5.339
 1046SOL     OW 4976   1.919  12.698  14.320
 1046SOL    HW1 4977   1.972  12.777  14.316
 1046SOL    HW2 4978   1.896  12.689  14.412
 1047SOL     OW 4979   7.392  14.169   8.607
 1047SOL    HW1 4980   7.346  14.228   8.548
 1047SOL    HW2 4981   7.464  14.221   8.642
 1048SOL     OW 4982   2.634  13.290   8.774
 1048SOL    HW1 4983   2.595  13.221   8.720
 1048SOL    HW2 4984   2.619  13.262   8.864
 1049SOL     OW 4985   3.137   0.061   1.812
 1049SOL    HW1 4986   3.182  14.862   1.769
 1049SOL    HW2 4987   3.044   0.037   1.809
 1050SOL     OW 4988   4.801   6.307   2.773
 1050SOL    HW1 4989   4.781   6.390   2.730
 1050SOL    HW2 4990   4.718   6.260   2.775
 1051SOL     OW 4991  13.507  11.149  12.892
 1051SOL    HW1 4992  13.448  11.086  12.934
 1051SOL    HW2 4993  13.589  11.101  12.879
 1052SOL     OW 4994   5.191   7.592  14.750
 1052SOL    HW1 4995   5.160   7.603  14.661
 1052SOL    HW2 4996   5.200   7.681  14.784
 1053SOL     OW 4997  13.329   9.023  14.504
 1053SOL    HW1 4998  13.372   9.076  14.571
 1053SOL    HW2 4999  13.239   9.055  14.502
 1054SOL     OW 5000   5.240   5.692   0.617
 1054SOL    HW1 5001   5.317   5.744   0.639
 1054SOL    HW2 5002   5.249   5.613   0.669
 1055SOL     OW 5003   5.684   4.611   2.712
 1055SOL    HW1 5004   5.639   4.564   2.642
 1055SOL    HW2 5005   5.652   4.571   2.792
 1056SOL     OW 5006   0.949  12.463   6.456
 1056SOL    HW1 5007   0.889  12.405   6.410
 1056SOL    HW2 5008   0.969  12.418   6.537
 1057SOL     OW 5009  13.964   3.320   6.032
 1057SOL    HW1 5010  13.895   3.316   6.098
 1057SOL    HW2 5011  13.919   3.346   5.952
 1058SOL     OW 5012  11.340  11.881   7.896
 1058SOL    HW1 5013  11.261  11.935   7.900
 1058SOL    HW2 5014  11.364  11.866   7.988
 1059SOL     OW 5015   6.829  10.151   3.564
 1059SOL    HW1 5016   6.828  10.062   3.599
 1059SOL    HW2 5017   6.752  10.193   3.603
 1060SOL     OW 5018   9.371  10.608  13.190
 1060SOL    HW1 5019   9.386  10.692  13.234
 1060SOL    HW2 5020   9.335  10.551  13.258
 1061SOL     OW 5021   0.699   1.086   5.328
 1061SOL    HW1 5022   0.661   1.142   5.260
 1061SOL    HW2 5023   0.775   1.135   5.360
 1062SOL     OW 5024   4.476   8.496   3.239
 1062SOL    HW1 5025   4.551   8.458   3.192
 1062SOL    HW2 5026   4.501   8.587   3.255
 1063SOL     OW 5027   1.368   8.757   1.924
 1063SOL    HW1 5028   1.418   8.679   1.899
 1063SOL    HW2 5029   1.290   8.723   1.968
 1064SOL     OW 5030   6.547  11.827   4.771
 1064SOL    HW1 5031   6.512  11.901   4.721
 1064SOL    HW2 5032   6.631  11.808   4.730
 1065SOL     OW 5033  12.570  10.745   5.369
 1065SOL    HW1 5034  12.476  10.732   5.358
 1065SOL    HW2 5035  12.610  10.670   5.325
 1066SOL     OW 5036   4.993  13.595  14.643
 1066SOL    HW1 5037   4.972  13.674  14.593
 1066SOL    HW2 5038   5.046  13.627  14.716
 1067SOL     OW 5039   5.532  10.603   1.777
 1067SOL    HW1 5040   5.465  10.561   1.724
 1067SOL    HW2 5041   5.611  10.600   1.723
 1068SOL     OW 5042   3.309   4.165   4.648
 1068SOL    HW1 5043   3.245   4.168   4.720
 1068SOL    HW2 5044   3.258   4.183   4.569
 1069SOL     OW 5045   6.901   4.788   7.616
 1069SOL    HW1 5046   6.812   4.770   7.646
 1069SOL    HW2 5047   6.896   4.876   7.579
 1070SOL     OW 5048   8.007   9.953  12.351
 1070SOL    HW1 5049   8.028   9.916  12.437
 1070SOL    HW2 5050   8.000  10.047  12.366
 1071SOL     OW 5051   4.700   7.495  12.727
 1071SOL    HW1 5052   4.759   7.429  12.762
 1071SOL    HW2 5053   4.694   7.476  12.634
 1072SOL     OW 5054   6.437   3.128   8.130
 1072SOL    HW1 5055   6.513   3.157   8.079
 1072SOL    HW2 5056   6.368   3.191   8.108
 1073SOL     OW 5057   1.241   5.201   6.781
 1073SOL    HW1 5058   1.299   5.235   6.848
 1073SOL    HW2 5059   1.285   5.123   6.747
 1074SOL     OW 5060   8.293   9.897   9.444
 1074SOL    HW1 5061   8.229   9.854   9.500
 1074SOL    HW2 5062   8.374   9.895   9.495
 1075SOL     OW 5063   9.263   6.423   9.494
 1075SOL    HW1 5064   9.315   6.497   9.461
 1075SOL    HW2 5065   9.207   6.462   9.561
 1076SOL     OW 5066   4.929   0.567   6.102
 1076SOL    HW1 5067   4.853   0.534   6.055
 1076SOL    HW2 5068   4.893   0.620   6.173
 1077SOL     OW 5069   7.924   0.854  14.055
 1077SOL    HW1 5070   7.847   0.882  14.104
 1077SOL    HW2 5071   7.904   0.877  13.964
 1078SOL     OW 5072   0.739   9.434  12.331
 1078SOL    HW1 5073   0.761   9.511  12.383
 1078SOL    HW2 5074   0.815   9.420  12.274
 1079SOL     OW 5075  10.063   1.823   6.535
 1079SOL    HW1 5076  10.130   1.881   6.572
 1079SOL    HW2 5077  10.060   1.847   6.442
 1080SOL     OW 5078  13.878   3.853  12.415
 1080SOL    HW1 5079  13.801   3.813  12.455
 1080SOL    HW2 5080  13.897   3.930  12.468
 1081SOL     OW 5081   9.260   4.457  13.098
 1081SOL    HW1 5082   9.330   4.502  13.051
 1081SOL    HW2 5083   9.262   4.495  13.185
 1082SOL     OW 5084   0.468  11.913   3.975
 1082SOL    HW1 5085   0.479  11.821   3.948
 1082SOL    HW2 5086   0.449  11.959   3.893
 1083SOL     OW 5087   9.099   8.400   6.277
 1083SOL    HW1 5088   9.131   8.395   6.367
 1083SOL    HW2 5089   9.126   8.487   6.246
 1084SOL     OW 5090  14.226  13.500   8.929
 1084SOL    HW1 5091  14.269  13.415   8.939
 1084SOL    HW2 5092  14.226  13.515   8.834
 1085SOL     OW 5093   6.630   3.348  11.778
 1085SOL    HW1 5094   6.635   3.302  11.694
 1085SOL    HW2 5095   6.675   3.291  11.840
 1086SOL     OW 5096   4.308   1.652   1.939
 1086SOL    HW1 5097   4.253   1.597   1.885
 1086SOL    HW2 5098   4.397   1.618   1.927
 1087SOL     OW 5099   3.304   3.087   0.977
 1087SOL    HW1 5100   3.256   3.029   1.037
 1087SOL    HW2 5101   3.240   3.112   0.911
 1088SOL     OW 5102   2.762  10.789   4.662
 1088SOL    HW1 5103   2.781  10.740   4.742
 1088SOL    HW2 5104   2.673  10.822   4.674
 1089SOL     OW 5105   7.176  14.227  13.293
 1089SOL    HW1 5106   7.223  14.214  13.211
 1089SOL    HW2 5107   7.237  14.197  13.360
 1090SOL     OW 5108  12.141   9.218  11.258
 1090SOL    HW1 5109  12.084   9.146  11.284
 1090SOL    HW2 5110  12.165   9.198  11.167
 1091SOL     OW 5111  12.161   8.656  14.006
 1091SOL    HW1 5112  12.106   8.651  13.928
 1091SOL    HW2 5113  12.161   8.749  14.030
 1092SOL     OW 5114   2.275   0.548   1.366
 1092SOL    HW1 5115   2.190   0.579   1.335
 1092SOL    HW2 5116   2.331   0.626   1.363
 1093SOL     OW 5117   8.370  13.587   2.227
 1093SOL    HW1 5118   8.283  13.581   2.269
 1093SOL    HW2 5119   8.375  13.508   2.173
 1094SOL     OW 5120  11.353  14.697   3.768
 1094SOL    HW1 5121  11.447  14.681   3.762
 1094SOL    HW2 5122  11.334  14.756   3.695
 1095SOL     OW 5123  12.305  12.430   0.976
 1095SOL    HW1 5124  12.396  12.409   0.997
 1095SOL    HW2 5125  12.285  12.506   1.031
 1096SOL     OW 5126   8.235   3.307   8.574
 1096SOL    HW1 5127   8.220   3.225   8.527
 1096SOL    HW2 5128   8.166   3.311   8.640
 1097SOL     OW 5129   3.310  10.274   1.849
 1097SOL    HW1 5130   3.375  10.246   1.913
 1097SOL    HW2 5131   3.344  10.357   1.815
 1098SOL     OW 5132   6.379   7.607   2.053
 1098SOL    HW1 5133   6.453   7.554   2.084
 1098SOL    HW2 5134   6.326   7.545   2.002
 1099SOL     OW 5135  11.573   3.152   0.602
 1099SOL    HW1 5136  11.552   3.120   0.690
 1099SOL    HW2 5137  11.591   3.245   0.614
 1100SOL     OW 5138  12.394   6.619   4.177
 1100SOL    HW1 5139  12.476   6.592   4.218
 1100SOL    HW2 5140  12.330   6.553   4.205
 1101SOL     OW 5141   6.384  13.374   7.865
 1101SOL    HW1 5142   6.318  13.308   7.886
 1101SOL    HW2 5143   6.461  13.347   7.916
 1102SOL     OW 5144   7.500  11.744   0.491
 1102SOL    HW1 5145   7.526  11.821   0.439
 1102SOL    HW2 5146   7.416  11.718   0.453
 1103SOL     OW 5147   2.085  13.679  14.147
 1103SOL    HW1 5148   2.109  13.763  14.109
 1103SOL    HW2 5149   1.991  13.686  14.164
 1104SOL     OW 5150  13.639  14.224   0.053
 1104SOL    HW1 5151  13.641  14.169  14.848
 1104SOL    HW2 5152  13.549  14.257   0.057
 1105SOL     OW 5153   7.109   9.500  12.082
 1105SOL    HW1 5154   7.024   9.530  12.050
 1105SOL    HW2 5155   7.164   9.494  12.004
 1106SOL     OW 5156   9.429  12.617  13.904
 1106SOL    HW1 5157   9.347  12.595  13.859
 1106SOL    HW2 5158   9.406  12.694  13.957
 1107SOL     OW 5159  14.260  13.933   2.108
 1107SOL    HW1 5160  14.289  14.013   2.064
 1107SOL    HW2 5161  14.192  13.961   2.168
 1108SOL     OW 5162   0.409  11.854   8.983
 1108SOL    HW1 5163   0.360  11.801   8.920
 1108SOL    HW2 5164   0.344  11.918   9.015
 1109SOL     OW 5165  14.860   2.451   1.191
 1109SOL    HW1 5166  14.807   2.513   1.242
 1109SOL    HW2 5167  14.849   2.479   1.100
 1110SOL     OW 5168   3.494  10.858   5.628
 1110SOL    HW1 5169   3.462  10.785   5.574
 1110SOL    HW2 5170   3.525  10.922   5.564
 1111SOL     OW 5171  10.962  12.776   1.257
 1111SOL    HW1 5172  10.947  12.866   1.226
 1111SOL    HW2 5173  10.989  12.786   1.348
 1112SOL     OW 5174  11.635   1.285  11.119
 1112SOL    HW1 5175  11.576   1.360  11.125
 1112SOL    HW2 5176  11.693   1.305  11.045
 1113SOL     OW 5177  10.975  11.993   3.878
 1113SOL    HW1 5178  10.962  11.952   3.963
 1113SOL    HW2 5179  10.896  12.046   3.864
 1114SOL     OW 5180   3.650   6.911  11.507
 1114SOL    HW1 5181   3.566   6.866  11.511
 1114SOL    HW2 5182   3.629   7.003  11.521
 1115SOL     OW 5183   6.481   7.119   1.739
 1115SOL    HW1 5184   6.551   7.056   1.757
 1115SOL    HW2 5185   6.460   7.106   1.646
 1116SOL     OW 5186   8.564  14.292   2.297
 1116SOL    HW1 5187   8.498  14.264   2.361
 1116SOL    HW2 5188   8.625  14.218   2.294
 1117SOL     OW 5189  14.271   1.145   5.017
 1117SOL    HW1 5190  14.333   1.098   5.071
 1117SOL    HW2 5191  14.277   1.103   4.931
 1118SOL     OW 5192   4.798   2.302  13.945
 1118SOL    HW1 5193   4.754   2.217  13.953
 1118SOL    HW2 5194   4.727   2.364  13.931
 1119SOL     OW 5195   8.452   9.249  12.446
 1119SOL    HW1 5196   8.449   9.321  12.508
 1119SOL    HW2 5197   8.484   9.288  12.364
 1120SOL     OW 5198   3.095   8.501   5.000
 1120SOL    HW1 5199   3.129   8.564   5.064
 1120SOL    HW2 5200   3.030   8.450   5.049
 1121SOL     OW 5201  14.709  12.313   9.450
 1121SOL    HW1 5202  14.776  12.382   9.451
 1121SOL    HW2 5203  14.758  12.232   9.464
 1122SOL     OW 5204   7.902   1.066   4.019
 1122SOL    HW1 5205   7.867   1.029   4.100
 1122SOL    HW2 5206   7.916   1.159   4.039
 1123SOL     OW 5207  13.033   6.506   4.505
 1123SOL    HW1 5208  12.989   6.504   4.590
 1123SOL    HW2 5209  13.078   6.422   4.499
 1124SOL     OW 5210   2.494   5.153   7.834
 1124SOL    HW1 5211   2.406   5.149   7.797
 1124SOL    HW2 5212   2.485   5.112   7.920
 1125SOL     OW 5213   5.329   2.812   8.346
 1125SOL    HW1 5214   5.301   2.818   8.254
 1125SOL    HW2 5215   5.400   2.876   8.353
 1126SOL     OW 5216   1.871   9.796   4.762
 1126SOL    HW1 5217   1.790   9.825   4.804
 1126SOL    HW2 5218   1.857   9.814   4.669
 1127SOL     OW 5219   3.833  10.809   1.519
 1127SOL    HW1 5220   3.800  10.749   1.452
 1127SOL    HW2 5221   3.866  10.751   1.588
 1128SOL     OW 5222   1.547   2.906  13.532
 1128SOL    HW1 5223   1.550   2.830  13.474
 1128SOL    HW2 5224   1.482   2.883  13.598
 1129SOL     OW 5225   3.942  10.513   2.366
 1129SOL    HW1 5226   3.936  10.598   2.411
 1129SOL    HW2 5227   3.995  10.531   2.289
 1130SOL     OW 5228  10.758   2.257   6.193
 1130SOL    HW1 5229  10.848   2.238   6.167
 1130SOL    HW2 5230  10.760   2.349   6.221
 1131SOL     OW 5231   2.893  11.852   9.720
 1131SOL    HW1 5232   2.876  11.938   9.760
 1131SOL    HW2 5233   2.893  11.870   9.626
 1132SOL     OW 5234  14.500  11.622   2.672
 1132SOL    HW1 5235  14.458  11.540   2.648
 1132SOL    HW2 5236  14.589  11.597   2.696
 1133SOL     OW 5237  12.065   8.573  10.982
 1133SOL    HW1 5238  11.995   8.560  10.918
 1133SOL    HW2 5239  12.029   8.637  11.044
 1134SOL     OW 5240   1.970  13.832   7.100
 1134SOL    HW1 5241   1.903  13.770   7.071
 1134SOL    HW2 5242   2.028  13.781   7.157
 1135SOL     OW 5243   9.451   0.395  14.434
 1135SOL    HW1 5244   9.484   0.353  14.513
 1135SOL    HW2 5245   9.511   0.467  14.417
 1136SOL     OW 5246   9.030   6.957  10.301
 1136SOL    HW1 5247   9.085   7.011  10.358
 1136SOL    HW2 5248   8.963   6.921  10.360
 1137SOL     OW 5249   2.838   3.711  11.357
 1137SOL    HW1 5250   2.779   3.689  11.285
 1137SOL    HW2 5251   2.911   3.649  11.348
 1138SOL     OW 5252   5.460   1.942  11.622
 1138SOL    HW1 5253   5.407   1.909  11.695
 1138SOL    HW2 5254   5.476   1.864  11.568
 1139SOL     OW 5255   5.989   8.402   5.334
 1139SOL    HW1 5256   5.971   8.495   5.348
 1139SOL    HW2 5257   5.947   8.382   5.250
 1140SOL     OW 5258   4.892  14.699   9.442
 1140SOL    HW1 5259   4.910  14.783   9.399
 1140SOL    HW2 5260   4.966  14.686   9.501
 1141SOL     OW 5261   1.752   9.035   0.832
 1141SOL    HW1 5262   1.824   9.090   0.861
 1141SOL    HW2 5263   1.673   9.086   0.851
 1142SOL     OW 5264   1.915  14.335  12.597
 1142SOL    HW1 5265   1.930  14.325  12.691
 1142SOL    HW2 5266   1.911  14.245  12.564
 1143SOL     OW 5267  13.842   2.682   4.782
 1143SOL    HW1 5268  13.818   2.711   4.694
 1143SOL    HW2 5269  13.774   2.719   4.839
 1144SOL     OW 5270   0.410   8.141   6.171
 1144SOL    HW1 5271   0.456   8.224   6.157
 1144SOL    HW2 5272   0.444   8.082   6.104
 1145SOL     OW 5273  13.378   8.464   5.062
 1145SOL    HW1 5274  13.357   8.508   4.980
 1145SOL    HW2 5275  13.468   8.434   5.051
 1146SOL     OW 5276  14.671  10.336   9.332
 1146SOL    HW1 5277  14.686  10.358   9.424
 1146SOL    HW2 5278  14.753  10.355   9.288
 1147SOL     OW 5279   4.653  14.225   9.727
 1147SOL    HW1 5280   4.680  14.267   9.808
 1147SOL    HW2 5281   4.706  14.145   9.722
 1148SOL     OW 5282   3.001  11.098   5.114
 1148SOL    HW1 5283   2.909  11.089   5.138
 1148SOL    HW2 5284   2.999  11.126   5.022
 1149SOL     OW 5285  11.922   6.536   7.681
 1149SOL    HW1 5286  12.016   6.549   7.666
 1149SOL    HW2 5287  11.918   6.491   7.766
 1150SOL     OW 5288  13.168  14.485   2.967
 1150SOL    HW1 5289  13.165  14.398   2.928
 1150SOL    HW2 5290  13.076  14.507   2.985
 1151SOL     OW 5291   3.289   3.292   7.927
 1151SOL    HW1 5292   3.354   3.277   7.859
 1151SOL    HW2 5293   3.234   3.214   7.926
 1152SOL     OW 5294   0.092   2.423   7.832
 1152SOL    HW1 5295   0.179   2.413   7.869
 1152SOL    HW2 5296   0.088   2.358   7.761
 1153SOL     OW 5297   2.820   8.624   7.796
 1153SOL    HW1 5298   2.727   8.613   7.774
 1153SOL    HW2 5299   2.821   8.629   7.891
 1154SOL     OW 5300   2.698  13.771  10.878
 1154SOL    HW1 5301   2.614  13.729  10.862
 1154SOL    HW2 5302   2.761  13.699  10.878
 1155SOL     OW 5303   6.134  12.011   2.288
 1155SOL    HW1 5304   6.153  12.030   2.197
 1155SOL    HW2 5305   6.149  12.093   2.334
 1156SOL     OW 5306  11.701  12.840   4.993
 1156SOL    HW1 5307  11.795  12.849   4.976
 1156SOL    HW2 5308  11.691  12.750   5.024
 1157SOL     OW 5309   5.654  11.043   6.307
 1157SOL    HW1 5310   5.656  11.127   6.261
 1157SOL    HW2 5311   5.599  11.059   6.384
 1158SOL     OW 5312  12.073   7.933   0.732
 1158SOL    HW1 5313  12.034   8.013   0.699
 1158SOL    HW2 5314  12.060   7.937   0.827
 1159SOL     OW 5315   5.054   0.548   8.111
 1159SOL    HW1 5316   5.086   0.549   8.021
 1159SOL    HW2 5317   5.047   0.640   8.136
 1160SOL     OW 5318   7.223   6.494  10.249
 1160SOL    HW1 5319   7.248   6.582  10.219
 1160SOL    HW2 5320   7.143   6.474  10.201
 1161SOL     OW 5321  11.446  11.678   2.590
 1161SOL    HW1 5322  11.420  11.586   2.591
 1161SOL    HW2 5323  11.511  11.685   2.660
 1162SOL     OW 5324   5.080  13.860   3.578
 1162SOL    HW1 5325   5.143  13.806   3.530
 1162SOL    HW2 5326   5.118  13.870   3.665
 1163SOL     OW 5327   4.848  14.803   2.268
 1163SOL    HW1 5328   4.911  14.785   2.198
 1163SOL    HW2 5329   4.838  14.719   2.313
 1164SOL     OW 5330  10.077  12.751   0.746
 1164SOL    HW1 5331  10.087  12.712   0.832
 1164SOL    HW2 5332  10.134  12.699   0.689
 1165SOL     OW 5333  13.582   6.101  11.560
 1165SOL    HW1 5334  13.578   6.148  11.477
 1165SOL    HW2 5335  13.551   6.013  11.540
 1166SOL     OW 5336   0.886   9.373   3.903
 1166SOL    HW1 5337   0.813   9.332   3.949
 1166SOL    HW2 5338   0.888   9.463   3.937
 1167SOL     OW 5339   7.030   5.184  11.970
 1167SOL    HW1 5340   6.963   5.203  12.037
 1167SOL    HW2 5341   7.054   5.093  11.985
 1168SOL     OW 5342   1.154   8.110   8.363
 1168SOL    HW1 5343   1.211   8.186   8.373
 1168SOL    HW2 5344   1.086   8.139   8.303
 1169SOL     OW 5345  12.596   3.228   9.128
 1169SOL    HW1 5346  12.645   3.304   9.161
 1169SOL    HW2 5347  12.658   3.155   9.136
 1170SOL     OW 5348   7.738   6.967  13.264
 1170SOL    HW1 5349   7.695   6.885  13.239
 1170SOL    HW2 5350   7.785   6.995  13.185
 1171SOL     OW 5351   1.815  11.163  10.645
 1171SOL    HW1 5352   1.894  11.137  10.597
 1171SOL    HW2 5353   1.814  11.105  10.721
 1172SOL     OW 5354  13.080  10.111   0.135
 1172SOL    HW1 5355  13.126  10.116   0.219
 1172SOL    HW2 5356  13.068  10.203   0.109
 1173SOL     OW 5357   6.776  12.379   3.198
 1173SOL    HW1 5358   6.701  12.381   3.138
 1173SOL    HW2 5359   6.839  12.440   3.159
 1174SOL     OW 5360  13.801   1.378   0.233
 1174SOL    HW1 5361  13.712   1.384   0.198
 1174SOL    HW2 5362  13.839   1.464   0.213
 1175SOL     OW 5363   6.532   5.933   1.310
 1175SOL    HW1 5364   6.569   5.939   1.399
 1175SOL    HW2 5365   6.605   5.903   1.256
 1176SOL     OW 5366   6.778   6.076  14.246
 1176SOL    HW1 5367   6.727   6.156  14.229
 1176SOL    HW2 5368   6.858   6.088  14.194
 1177SOL     OW 5369  10.737   6.160   3.285
 1177SOL    HW1 5370  10.780   6.163   3.370
 1177SOL    HW2 5371  10.765   6.077   3.247
 1178SOL     OW 5372   4.428   6.285  13.777
 1178SOL    HW1 5373   4.523   6.295  13.770
 1178SOL    HW2 5374   4.395   6.323  13.696
 1179SOL     OW 5375   7.641   9.433   2.606
 1179SOL    HW1 5376   7.636   9.361   2.669
 1179SOL    HW2 5377   7.682   9.395   2.529
 1180SOL     OW 5378   9.719   2.225   8.368
 1180SOL    HW1 5379   9.761   2.311   8.373
 1180SOL    HW2 5380   9.741   2.184   8.452
 1181SOL     OW 5381   7.429  10.447   0.031
 1181SOL    HW1 5382   7.491  10.472   0.100
 1181SOL    HW2 5383   7.348  10.491   0.055
 1182SOL     OW 5384  10.098   6.995   7.290
 1182SOL    HW1 5385  10.007   7.027   7.293
 1182SOL    HW2 5386  10.125   6.991   7.382
 1183SOL     OW 5387  10.382   2.975   2.389
 1183SOL    HW1 5388  10.315   2.913   2.416
 1183SOL    HW2 5389  10.460   2.921   2.371
 1184SOL     OW 5390  13.342  13.078   4.950
 1184SOL    HW1 5391  13.270  13.103   5.008
 1184SOL    HW2 5392  13.372  13.160   4.912
 1185SOL     OW 5393   0.659   0.643   1.709
 1185SOL    HW1 5394   0.602   0.718   1.727
 1185SOL    HW2 5395   0.655   0.632   1.614
 1186SOL     OW 5396  11.861   3.517   2.952
 1186SOL    HW1 5397  11.922   3.447   2.931
 1186SOL    HW2 5398  11.779   3.472   2.971
 1187SOL     OW 5399   1.682  13.403   1.928
 1187SOL    HW1 5400   1.698  13.492   1.960
 1187SOL    HW2 5401   1.662  13.352   2.006
 1188SOL     OW 5402   5.506   5.247   2.689
 1188SOL    HW1 5403   5.524   5.153   2.685
 1188SOL    HW2 5404   5.424   5.253   2.738
 1189SOL     OW 5405  10.394   9.397   5.294
 1189SOL    HW1 5406  10.455   9.419   5.364
 1189SOL    HW2 5407  10.346   9.321   5.327
 1190SOL     OW 5408   1.458  10.390  14.173
 1190SOL    HW1 5409   1.396  10.413  14.103
 1190SOL    HW2 5410   1.470  10.471  14.222
 1191SOL     OW 5411   8.088  11.075   4.138
 1191SOL    HW1 5412   8.125  11.162   4.123
 1191SOL    HW2 5413   8.057  11.077   4.229
 1192SOL     OW 5414   0.712   1.295   0.314
 1192SOL    HW1 5415   0.622   1.277   0.289
 1192SOL    HW2 5416   0.713   1.289   0.409
 1193SOL     OW 5417  12.645   4.130   7.908
 1193SOL    HW1 5418  12.634   4.077   7.829
 1193SOL    HW2 5419  12.566   4.185   7.912
 1194SOL     OW 5420   0.207   0.879   0.581
 1194SOL    HW1 5421   0.201   0.799   0.634
 1194SOL    HW2 5422   0.118   0.914   0.580
 1195SOL     OW 5423   7.327   3.034   3.399
 1195SOL    HW1 5424   7.349   2.987   3.480
 1195SOL    HW2 5425   7.271   3.106   3.429
 1196SOL     OW 5426  10.957   2.403   2.694
 1196SOL    HW1 5427  10.913   2.486   2.714
 1196SOL    HW2 5428  10.945   2.392   2.599
 1197SOL     OW 5429   0.253  14.614   8.828
 1197SOL    HW1 5430   0.340  14.582   8.805
 1197SOL    HW2 5431   0.254  14.707   8.805
 1198SOL     OW 5432   8.479  11.524  12.638
 1198SOL    HW1 5433   8.402  11.547  12.587
 1198SOL    HW2 5434   8.553  11.553  12.585
 1199SOL     OW 5435  12.683   7.271  13.582
 1199SOL    HW1 5436  12.606   7.215  13.573
 1199SOL    HW2 5437  12.676   7.307  13.670
 1200SOL     OW 5438  12.168   5.976   7.606
 1200SOL    HW1 5439  12.101   5.986   7.673
 1200SOL    HW2 5440  12.127   5.921   7.539
 1201SOL     OW 5441   0.415   6.858   4.406
 1201SOL    HW1 5442   0.429   6.773   4.364
 1201SOL    HW2 5443   0.411   6.838   4.499
 1202SOL     OW 5444   3.356   7.109  13.674
 1202SOL    HW1 5445   3.403   7.179  13.720
 1202SOL    HW2 5446   3.266   7.141  13.668
 1203SOL     OW 5447   9.377   5.192   7.294
 1203SOL    HW1 5448   9.434   5.170   7.368
 1203SOL    HW2 5449   9.327   5.268   7.323
 1204SOL     OW 5450   9.291   8.484   6.831
 1204SOL    HW1 5451   9.320   8.470   6.921
 1204SOL    HW2 5452   9.369   8.513   6.784
 1205SOL     OW 5453   8.400  12.156   9.585
 1205SOL    HW1 5454   8.468  12.093   9.564
 1205SOL    HW2 5455   8.364  12.182   9.500
 1206SOL     OW 5456   1.276   9.793   1.819
 1206SOL    HW1 5457   1.249   9.884   1.822
 1206SOL    HW2 5458   1.227   9.755   1.746
 1207SOL     OW 5459   0.628  14.591  11.488
 1207SOL    HW1 5460   0.598  14.614  11.576
 1207SOL    HW2 5461   0.723  14.599  11.492
 1208SOL     OW 5462  14.555  12.631   4.819
 1208SOL    HW1 5463  14.541  12.724   4.804
 1208SOL    HW2 5464  14.603  12.601   4.742
 1209SOL     OW 5465   1.623   4.016  10.389
 1209SOL    HW1 5466   1.661   4.104  10.393
 1209SOL    HW2 5467   1.655   3.973  10.468
 1210SOL     OW 5468  13.622   7.387   1.012
 1210SOL    HW1 5469  13.634   7.299   0.976
 1210SOL    HW2 5470  13.704   7.432   0.995
 1211SOL     OW 5471   2.211   6.095   1.125
 1211SOL    HW1 5472   2.230   6.147   1.203
 1211SOL    HW2 5473   2.120   6.066   1.137
 1212SOL     OW 5474   4.720   9.915  11.516
 1212SOL    HW1 5475   4.698   9.822  11.527
 1212SOL    HW2 5476   4.733   9.947  11.605
 1213SOL     OW 5477   9.166   6.494   7.552
 1213SOL    HW1 5478   9.233   6.548   7.510
 1213SOL    HW2 5479   9.119   6.554   7.609
 1214SOL     OW 5480   7.158  13.792   8.278
 1214SOL    HW1 5481   7.194  13.878   8.300
 1214SOL    HW2 5482   7.093  13.810   8.210
 1215SOL     OW 5483   7.805   2.118   0.986
 1215SOL    HW1 5484   7.894   2.125   1.020
 1215SOL    HW2 5485   7.811   2.055   0.914
 1216SOL     OW 5486   6.647  11.948   5.011
 1216SOL    HW1 5487   6.631  11.898   4.931
 1216SOL    HW2 5488   6.581  11.916   5.073
 1217SOL     OW 5489   0.022   6.810   8.755
 1217SOL    HW1 5490  14.807   6.839   8.779
 1217SOL    HW2 5491   0.056   6.879   8.698
 1218SOL     OW 5492   8.199   8.366  11.254
 1218SOL    HW1 5493   8.110   8.338  11.271
 1218SOL    HW2 5494   8.233   8.304  11.190
 1219SOL     OW 5495   2.265   9.554   8.857
 1219SOL    HW1 5496   2.285   9.646   8.842
 1219SOL    HW2 5497   2.214   9.528   8.781
 1220SOL     OW 5498   3.744  11.061   1.561
 1220SOL    HW1 5499   3.765  10.972   1.534
 1220SOL    HW2 5500   3.818  11.087   1.615
 1221SOL     OW 5501   3.747   3.129   0.536
 1221SOL    HW1 5502   3.733   3.060   0.471
 1221SOL    HW2 5503   3.827   3.104   0.582
 1222SOL     OW 5504   3.672   7.858  11.512
 1222SOL    HW1 5505   3.577   7.868  11.504
 1222SOL    HW2 5506   3.702   7.938  11.555
 1223SOL     OW 5507   7.644   3.152  13.609
 1223SOL    HW1 5508   7.665   3.164  13.702
 1223SOL    HW2 5509   7.725   3.176  13.563
 1224SOL     OW 5510   7.950   4.587   5.158
 1224SOL    HW1 5511   7.895   4.519   5.196
 1224SOL    HW2 5512   7.925   4.589   5.065
 1225SOL     OW 5513   9.263   6.315   0.961
 1225SOL    HW1 5514   9.200   6.243   0.959
 1225SOL    HW2 5515   9.298   6.319   0.872
 1226SOL     OW 5516   6.093   3.041   1.473
 1226SOL    HW1 5517   6.033   3.039   1.398
 1226SOL    HW2 5518   6.066   3.118   1.523
 1227SOL     OW 5519  12.837  11.994  14.866
 1227SOL    HW1 5520  12.925  11.956  14.855
 1227SOL    HW2 5521  12.815  12.026  14.779
 1228SOL     OW 5522   1.376   8.370   2.234
 1228SOL    HW1 5523   1.471   8.359   2.234
 1228SOL    HW2 5524   1.343   8.283   2.213
 1229SOL     OW 5525   5.522   2.472   1.588
 1229SOL    HW1 5526   5.533   2.447   1.497
 1229SOL    HW2 5527   5.541   2.565   1.591
 1230SOL     OW 5528  13.373  10.304  10.352
 1230SOL    HW1 5529  13.358  10.390  10.313
 1230SOL    HW2 5530  13.366  10.319  10.446
 1231SOL     OW 5531  14.309   2.245  13.501
 1231SOL    HW1 5532  14.361   2.239  13.581
 1231SOL    HW2 5533  14.237   2.184  13.514
 1232SOL     OW 5534   3.629  13.922  11.834
 1232SOL    HW1 5535   3.541  13.946  11.866
 1232SOL    HW2 5536   3.688  13.983  11.879
 1233SOL     OW 5537   7.168  13.894   5.208
 1233SOL    HW1 5538   7.082  13.914   5.244
 1233SOL    HW2 5539   7.227  13.896   5.283
 1234SOL     OW 5540   1.834   7.264   8.984
 1234SOL    HW1 5541   1.852   7.173   8.961
 1234SOL    HW2 5542   1.745   7.263   9.018
 1235SOL     OW 5543  11.614  10.033  13.715
 1235SOL    HW1 5544  11.695  10.018  13.763
 1235SOL    HW2 5545  11.633  10.107  13.658
 1236SOL     OW 5546   2.732   0.527   3.783
 1236SOL    HW1 5547   2.803   0.464   3.772
 1236SOL    HW2 5548   2.690   0.502   3.866
 1237SOL     OW 5549   2.746   3.066   5.665
 1237SOL    HW1 5550   2.811   3.079   5.735
 1237SOL    HW2 5551   2.723   3.154   5.636
 1238SOL     OW 5552  13.437  12.000   2.199
 1238SOL    HW1 5553  13.449  11.928   2.137
 1238SOL    HW2 5554  13.439  12.079   2.145
 1239SOL     OW 5555   8.191   8.790  11.496
 1239SOL    HW1 5556   8.282   8.816  11.477
 1239SOL    HW2 5557   8.191   8.695  11.485
 1240SOL     OW 5558   5.742  13.699  11.624
 1240SOL    HW1 5559   5.762  13.768  11.561
 1240SOL    HW2 5560   5.788  13.724  11.703
 1241SOL     OW 5561   2.164   6.295   6.365
 1241SOL    HW1 5562   2.190   6.363   6.428
 1241SOL    HW2 5563   2.153   6.342   6.282
 1242SOL     OW 5564   9.998   9.323   7.515
 1242SOL    HW1 5565   9.931   9.266   7.479
 1242SOL    HW2 5566  10.027   9.376   7.441
 1243SOL     OW 5567   9.676  10.265  10.525
 1243SOL    HW1 5568   9.620  10.293  10.597
 1243SOL    HW2 5569   9.620  10.213  10.468
 1244SOL     OW 5570  11.637   3.624   2.822
 1244SOL    HW1 5571  11.593   3.701   2.858
 1244SOL    HW2 5572  11.719   3.619   2.870
 1245SOL     OW 5573   5.369   7.892  12.907
 1245SOL    HW1 5574   5.340   7.910  12.817
 1245SOL    HW2 5575   5.292   7.912  12.961
 1246SOL     OW 5576   6.598   5.110   0.183
 1246SOL    HW1 5577   6.520   5.055   0.173
 1246SOL    HW2 5578   6.612   5.146   0.096
 1247SOL     OW 5579   0.557  11.819   5.634
 1247SOL    HW1 5580   0.639  11.783   5.601
 1247SOL    HW2 5581   0.546  11.901   5.584
 1248SOL     OW 5582   6.285   5.029   3.914
 1248SOL    HW1 5583   6.296   4.979   3.995
 1248SOL    HW2 5584   6.372   5.065   3.896
 1249SOL     OW 5585   1.063   7.181  13.377
 1249SOL    HW1 5586   0.972   7.178  13.406
 1249SOL    HW2 5587   1.073   7.103  13.322
 1250SOL     OW 5588  14.062   4.402  14.624
 1250SOL    HW1 5589  13.997   4.346  14.667
 1250SOL    HW2 5590  14.016   4.438  14.548
 1251SOL     OW 5591   4.622   2.342   8.403
 1251SOL    HW1 5592   4.565   2.285   8.455
 1251SOL    HW2 5593   4.709   2.301   8.411
 1252SOL     OW 5594  10.020   0.411   9.062
 1252SOL    HW1 5595  10.087   0.345   9.043
 1252SOL    HW2 5596  10.019   0.417   9.158
 1253SOL     OW 5597   9.096  13.460  14.395
 1253SOL    HW1 5598   9.028  13.522  14.369
 1253SOL    HW2 5599   9.178  13.509  14.387
 1254SOL     OW 5600   5.146  12.825   0.506
 1254SOL    HW1 5601   5.234  12.862   0.520
 1254SOL    HW2 5602   5.128  12.775   0.585
 1255SOL     OW 5603   6.678   6.440   2.497
 1255SOL    HW1 5604   6.689   6.408   2.408
 1255SOL    HW2 5605   6.590   6.478   2.498
 1256SOL     OW 5606   2.935   2.570   9.141
 1256SOL    HW1 5607   2.844   2.600   9.139
 1256SOL    HW2 5608   2.972   2.610   9.220
 1257SOL     OW 5609   4.302  13.743   5.452
 1257SOL    HW1 5610   4.251  13.663   5.467
 1257SOL    HW2 5611   4.390  13.721   5.482
 1258SOL     OW 5612   2.792   7.387   9.114
 1258SOL    HW1 5613   2.697   7.383   9.104
 1258SOL    HW2 5614   2.811   7.326   9.186
 1259SOL     OW 5615   7.512  12.571   5.267
 1259SOL    HW1 5616   7.552  12.622   5.196
 1259SOL    HW2 5617   7.420  12.561   5.240
 1260SOL     OW 5618   5.320   0.806  10.448
 1260SOL    HW1 5619   5.364   0.773  10.526
 1260SOL    HW2 5620   5.272   0.884  10.478
 1261SOL     OW 5621   0.101   6.083   1.474
 1261SOL    HW1 5622   0.157   6.006   1.472
 1261SOL    HW2 5623   0.017   6.051   1.506
 1262SOL     OW 5624   4.880   2.566   9.840
 1262SOL    HW1 5625   4.790   2.599   9.836
 1262SOL    HW2 5626   4.897   2.555   9.933
 1263SOL     OW 5627   6.222  14.421  14.175
 1263SOL    HW1 5628   6.195  14.354  14.238
 1263SOL    HW2 5629   6.156  14.416  14.105
 1264SOL     OW 5630   8.234   4.772   3.220
 1264SOL    HW1 5631   8.275   4.686   3.224
 1264SOL    HW2 5632   8.140   4.754   3.215
 1265SOL     OW 5633  10.387  11.516   8.630
 1265SOL    HW1 5634  10.392  11.603   8.591
 1265SOL    HW2 5635  10.439  11.523   8.711
 1266SOL     OW 5636   6.122   2.765   7.120
 1266SOL    HW1 5637   6.172   2.798   7.045
 1266SOL    HW2 5638   6.036   2.744   7.083
 1267SOL     OW 5639   4.302   9.820   3.921
 1267SOL    HW1 5640   4.245   9.748   3.947
 1267SOL    HW2 5641   4.390   9.782   3.916
 1268SOL     OW 5642   4.294  12.662   1.066
 1268SOL    HW1 5643   4.234  12.735   1.049
 1268SOL    HW2 5644   4.323  12.676   1.156
 1269SOL     OW 5645   0.184  11.335   9.142
 1269SOL    HW1 5646   0.142  11.408   9.188
 1269SOL    HW2 5647   0.278  11.349   9.155
 1270SOL     OW 5648   1.204   5.718  11.469
 1270SOL    HW1 5649   1.134   5.705  11.533
 1270SOL    HW2 5650   1.285   5.707  11.519
 1271SOL     OW 5651   5.978  13.382  14.476
 1271SOL    HW1 5652   5.925  13.303  14.491
 1271SOL    HW2 5653   5.922  13.454  14.507
 1272SOL     OW 5654   6.039  10.605   5.935
 1272SOL    HW1 5655   6.129  10.617   5.904
 1272SOL    HW2 5656   6.010  10.693   5.959
 1273SOL     OW 5657   7.560  12.570  13.412
 1273SOL    HW1 5658   7.624  12.518  13.364
 1273SOL    HW2 5659   7.492  12.507  13.438
 1274SOL     OW 5660   5.363   5.044   9.163
 1274SOL    HW1 5661   5.357   5.106   9.091
 1274SOL    HW2 5662   5.412   4.970   9.127
 1275SOL     OW 5663   8.697   5.245   3.437
 1275SOL    HW1 5664   8.725   5.154   3.443
 1275SOL    HW2 5665   8.772   5.296   3.467
 1276SOL     OW 5666   0.926  12.065   6.174
 1276SOL    HW1 5667   0.907  12.156   6.196
 1276SOL    HW2 5668   0.923  12.019   6.257
 1277SOL     OW 5669   0.695   0.234  11.911
 1277SOL    HW1 5670   0.740   0.248  11.828
 1277SOL    HW2 5671   0.608   0.273  11.898
 1278SOL     OW 5672  12.291   4.563   4.365
 1278SOL    HW1 5673  12.372   4.609   4.345
 1278SOL    HW2 5674  12.232   4.587   4.294
 1279SOL     OW 5675   6.976   0.890   0.389
 1279SOL    HW1 5676   7.020   0.854   0.312
 1279SOL    HW2 5677   6.883   0.879   0.371
 1280SOL     OW 5678   8.381  12.886  12.058
 1280SOL    HW1 5679   8.320  12.872  12.131
 1280SOL    HW2 5680   8.462  12.914  12.101
 1281SOL     OW 5681   8.564  13.320   0.420
 1281SOL    HW1 5682   8.472  13.296   0.419
 1281SOL    HW2 5683   8.604  13.267   0.351
 1282SOL     OW 5684  14.779   2.723   3.310
 1282SOL    HW1 5685  14.729   2.770   3.243
 1282SOL    HW2 5686  14.729   2.736   3.391
 1283SOL     OW 5687   6.586   2.434  13.024
 1283SOL    HW1 5688   6.551   2.347  13.041
 1283SOL    HW2 5689   6.646   2.450  13.098
 1284SOL     OW 5690   6.095   4.951  11.949
 1284SOL    HW1 5691   6.038   4.998  12.009
 1284SOL    HW2 5692   6.120   4.872  11.997
 1285SOL     OW 5693   4.087   1.092   6.588
 1285SOL    HW1 5694   4.116   1.002   6.590
 1285SOL    HW2 5695   4.078   1.118   6.680
 1286SOL     OW 5696  12.042  14.798   4.421
 1286SOL    HW1 5697  12.030  14.725   4.482
 1286SOL    HW2 5698  12.133  14.825   4.433
 1287SOL     OW 5699   1.808  13.151   5.906
 1287SOL    HW1 5700   1.828  13.162   5.998
 1287SOL    HW2 5701   1.754  13.072   5.902
 1288SOL     OW 5702  13.687   0.011   8.117
 1288SOL    HW1 5703  13.604  14.838   8.132
 1288SOL    HW2 5704  13.753  14.825   8.151
 1289SOL     OW 5705   5.966   9.097  11.355
 1289SOL    HW1 5706   5.976   9.005  11.378
 1289SOL    HW2 5707   6.030   9.143  11.410
 1290SOL     OW 5708   3.504  14.421   0.853
 1290SOL    HW1 5709   3.437  14.359   0.826
 1290SOL    HW2 5710   3.496  14.425   0.948
 1291SOL     OW 5711   1.117   4.815   6.568
 1291SOL    HW1 5712   1.040   4.781   6.612
 1291SOL    HW2 5713   1.174   4.738   6.557
 1292SOL     OW 5714   1.654   9.502  11.398
 1292SOL    HW1 5715   1.687   9.569  11.458
 1292SOL    HW2 5716   1.561   9.495  11.420
 1293SOL     OW 5717   2.959   7.250   4.743
 1293SOL    HW1 5718   3.021   7.177   4.743
 1293SOL    HW2 5719   2.885   7.219   4.795
 1294SOL     OW 5720  13.240   8.973   3.081
 1294SOL    HW1 5721  13.281   9.047   3.037
 1294SOL    HW2 5722  13.169   8.946   3.022
 1295SOL     OW 5723   0.785   3.117  11.428
 1295SOL    HW1 5724   0.796   3.206  11.396
 1295SOL    HW2 5725   0.830   3.115  11.512
 1296SOL     OW 5726  10.048   4.039   4.918
 1296SOL    HW1 5727  10.121   4.036   4.979
 1296SOL    HW2 5728  10.004   3.955   4.930
 1297SOL     OW 5729  10.716  12.822   4.099
 1297SOL    HW1 5730  10.626  12.847   4.079
 1297SOL    HW2 5731  10.769  12.873   4.038
 1298SOL     OW 5732   8.601   1.964   6.566
 1298SOL    HW1 5733   8.522   1.910   6.559
 1298SOL    HW2 5734   8.568   2.054   6.573
 1299SOL     OW 5735   2.297  10.368  11.580
 1299SOL    HW1 5736   2.345  10.445  11.551
 1299SOL    HW2 5737   2.297  10.310  11.504
 1300SOL     OW 5738  11.867   0.526   7.255
 1300SOL    HW1 5739  11.920   0.466   7.308
 1300SOL    HW2 5740  11.813   0.469   7.200
 1301SOL     OW 5741   2.855   9.180   5.027
 1301SOL    HW1 5742   2.850   9.198   4.933
 1301SOL    HW2 5743   2.942   9.143   5.040
 1302SOL     OW 5744   0.137   0.701  12.791
 1302SOL    HW1 5745   0.054   0.658  12.812
 1302SOL    HW2 5746   0.127   0.729  12.700
 1303SOL     OW 5747  11.760   3.912   0.304
 1303SOL    HW1 5748  11.806   3.944   0.227
 1303SOL    HW2 5749  11.672   3.947   0.297
 1304SOL     OW 5750   1.874  13.160  11.783
 1304SOL    HW1 5751   1.927  13.230  11.747
 1304SOL    HW2 5752   1.814  13.136  11.712
 1305SOL     OW 5753  10.954   0.228  10.840
 1305SOL    HW1 5754  11.010   0.228  10.917
 1305SOL    HW2 5755  11.014   0.234  10.766
 1306SOL     OW 5756  10.952  12.040  12.071
 1306SOL    HW1 5757  11.006  12.025  11.994
 1306SOL    HW2 5758  10.870  12.076  12.036
 1307SOL     OW 5759   2.871   2.996   2.787
 1307SOL    HW1 5760   2.848   3.087   2.772
 1307SOL    HW2 5761   2.833   2.975   2.873
 1308SOL     OW 5762  14.376   7.461  13.302
 1308SOL    HW1 5763  14.465   7.436  13.327
 1308SOL    HW2 5764  14.386   7.545  13.258
 1309SOL     OW 5765   5.778   8.974   1.458
 1309SOL    HW1 5766   5.874   8.978   1.457
 1309SOL    HW2 5767   5.751   9.038   1.392
 1310SOL     OW 5768   2.211  10.862  11.030
 1310SOL    HW1 5769   2.176  10.861  10.941
 1310SOL    HW2 5770   2.288  10.804  11.025
 1311SOL     OW 5771   4.180   8.483  14.726
 1311SOL    HW1 5772   4.209   8.491  14.816
 1311SOL    HW2 5773   4.124   8.559  14.712
 1312SOL     OW 5774  12.805   2.528   6.222
 1312SOL    HW1 5775  12.729   2.578   6.252
 1312SOL    HW2 5776  12.841   2.580   6.150
 1313SOL     OW 5777   6.364   7.827   3.701
 1313SOL    HW1 5778   6.379   7.920   3.689
 1313SOL    HW2 5779   6.429   7.785   3.645
 1314SOL     OW 5780   1.751   3.665   5.987
 1314SOL    HW1 5781   1.711   3.594   5.936
 1314SOL    HW2 5782   1.695   3.673   6.065
 1315SOL     OW 5783   0.837   8.463   4.414
 1315SOL    HW1 5784   0.793   8.382   4.440
 1315SOL    HW2 5785   0.887   8.440   4.336
 1316SOL     OW 5786  10.286  14.690   3.815
 1316SOL    HW1 5787  10.295  14.782   3.791
 1316SOL    HW2 5788  10.245  14.649   3.739
 1317SOL     OW 5789   6.076   4.620   9.717
 1317SOL    HW1 5790   5.986   4.642   9.691
 1317SOL    HW2 5791   6.113   4.577   9.640
 1318SOL     OW 5792   8.944   5.575  10.990
 1318SOL    HW1 5793   8.988   5.526  10.920
 1318SOL    HW2 5794   9.010   5.635  11.023
 1319SOL     OW 5795   5.559   7.137  10.974
 1319SOL    HW1 5796   5.630   7.199  10.993
 1319SOL    HW2 5797   5.554   7.137  10.878
 1320SOL     OW 5798   5.965  12.398  10.873
 1320SOL    HW1 5799   6.030  12.337  10.839
 1320SOL    HW2 5800   6.008  12.442  10.945
 1321SOL     OW 5801  13.002  14.155   1.976
 1321SOL    HW1 5802  12.958  14.132   2.057
 1321SOL    HW2 5803  13.025  14.070   1.936
 1322SOL     OW 5804   3.719   5.869  10.834
 1322SOL    HW1 5805   3.741   5.795  10.891
 1322SOL    HW2 5806   3.797   5.882  10.781
 1323SOL     OW 5807  10.728   6.867   8.735
 1323SOL    HW1 5808  10.718   6.961   8.720
 1323SOL    HW2 5809  10.789   6.861   8.808
 1324SOL     OW 5810  13.215   5.865   7.415
 1324SOL    HW1 5811  13.122   5.879   7.432
 1324SOL    HW2 5812  13.216   5.791   7.354
 1325SOL     OW 5813  13.999   9.256  11.571
 1325SOL    HW1 5814  14.019   9.349  11.564
 1325SOL    HW2 5815  14.048   9.226  11.648
 1326SOL     OW 5816  11.879   8.868   8.985
 1326SOL    HW1 5817  11.789   8.898   8.969
 1326SOL    HW2 5818  11.874   8.773   8.979
 1327SOL     OW 5819  11.608   5.452  10.620
 1327SOL    HW1 5820  11.594   5.537  10.662
 1327SOL    HW2 5821  11.620   5.391  10.692
 1328SOL     OW 5822  14.175   3.880   8.061
 1328SOL    HW1 5823  14.103   3.897   8.121
 1328SOL    HW2 5824  14.174   3.786   8.047
 1329SOL     OW 5825   0.011  11.592   7.499
 1329SOL    HW1 5826  14.794  11.593   7.468
 1329SOL    HW2 5827   0.035  11.684   7.507
 1330SOL     OW 5828  12.012   2.346   9.368
 1330SOL    HW1 5829  11.942   2.323   9.307
 1330SOL    HW2 5830  12.064   2.266   9.376
 1331SOL     OW 5831   5.305   1.715   4.863
 1331SOL    HW1 5832   5.289   1.805   4.834
 1331SOL    HW2 5833   5.321   1.667   4.783
 1332SOL     OW 5834  13.332   9.556   6.635
 1332SOL    HW1 5835  13.396   9.573   6.704
 1332SOL    HW2 5836  13.251   9.539   6.682
 1333SOL     OW 5837   9.366   9.125   3.431
 1333SOL    HW1 5838   9.392   9.167   3.513
 1333SOL    HW2 5839   9.272   9.141   3.424
 1334SOL     OW 5840   7.123   6.430  12.745
 1334SOL    HW1 5841   7.196   6.426  12.683
 1334SOL    HW2 5842   7.075   6.349  12.731
 1335SOL     OW 5843  13.356   5.807   8.026
 1335SOL    HW1 5844  13.356   5.901   8.045
 1335SOL    HW2 5845  13.264   5.784   8.014
 1336SOL     OW 5846   1.901   8.895  11.851
 1336SOL    HW1 5847   1.811   8.888  11.819
 1336SOL    HW2 5848   1.920   8.989  11.847
 1337SOL     OW 5849   6.326   9.607  10.226
 1337SOL    HW1 5850   6.402   9.653  10.261
 1337SOL    HW2 5851   6.362   9.533  10.178
 1338SOL     OW 5852  14.502   9.974   7.319
 1338SOL    HW1 5853  14.473  10.056   7.280
 1338SOL    HW2 5854  14.457   9.906   7.269
 1339SOL     OW 5855  11.775   8.939   0.165
 1339SOL    HW1 5856  11.747   8.985   0.087
 1339SOL    HW2 5857  11.857   8.981   0.191
 1340SOL     OW 5858   7.426  14.290  12.371
 1340SOL    HW1 5859   7.399  14.349  12.300
 1340SOL    HW2 5860   7.386  14.206  12.348
 1341SOL     OW 5861   0.888  14.319   2.905
 1341SOL    HW1 5862   0.829  14.391   2.927
 1341SOL    HW2 5863   0.906  14.277   2.989
 1342SOL     OW 5864   8.818   2.392   0.714
 1342SOL    HW1 5865   8.750   2.454   0.688
 1342SOL    HW2 5866   8.770   2.320   0.756
 1343SOL     OW 5867   1.292  11.178   1.223
 1343SOL    HW1 5868   1.370  11.126   1.204
 1343SOL    HW2 5869   1.220  11.115   1.222
 1344SOL     OW 5870   0.379   1.991   0.389
 1344SOL    HW1 5871   0.417   2.026   0.469
 1344SOL    HW2 5872   0.401   2.055   0.321
 1345SOL     OW 5873  12.338   2.694   7.557
 1345SOL    HW1 5874  12.353   2.705   7.463
 1345SOL    HW2 5875  12.312   2.781   7.587
 1346SOL     OW 5876   1.464  12.038  11.614
 1346SOL    HW1 5877   1.377  12.053  11.575
 1346SOL    HW2 5878   1.508  12.122  11.606
 1347SOL     OW 5879   4.710  11.430   1.289
 1347SOL    HW1 5880   4.784  11.406   1.344
 1347SOL    HW2 5881   4.729  11.521   1.263
 1348SOL     OW 5882   7.846  14.581  12.196
 1348SOL    HW1 5883   7.830  14.487  12.188
 1348SOL    HW2 5884   7.880  14.592  12.285
 1349SOL     OW 5885  11.723   7.137   3.158
 1349SOL    HW1 5886  11.636   7.149   3.196
 1349SOL    HW2 5887  11.780   7.121   3.233
 1350SOL     OW 5888   9.909   5.323  10.801
 1350SOL    HW1 5889   9.864   5.403  10.777
 1350SOL    HW2 5890   9.881   5.259  10.736
 1351SOL     OW 5891   6.192   4.116  10.046
 1351SOL    HW1 5892   6.229   4.047  10.100
 1351SOL    HW2 5893   6.263   4.179  10.036
 1352SOL     OW 5894   7.158   3.929   7.351
 1352SOL    HW1 5895   7.230   3.870   7.374
 1352SOL    HW2 5896   7.192   3.980   7.278
 1353SOL     OW 5897  10.818   8.885  11.102
 1353SOL    HW1 5898  10.881   8.820  11.070
 1353SOL    HW2 5899  10.735   8.857  11.064
 1354SOL     OW 5900  13.281  10.531  13.882
 1354SOL    HW1 5901  13.253  10.443  13.857
 1354SOL    HW2 5902  13.264  10.585  13.804
 1355SOL     OW 5903   5.659   1.675  14.645
 1355SOL    HW1 5904   5.581   1.630  14.612
 1355SOL    HW2 5905   5.722   1.670  14.573
 1356SOL     OW 5906   9.229   2.975   9.176
 1356SOL    HW1 5907   9.264   2.897   9.133
 1356SOL    HW2 5908   9.170   3.014   9.112
 1357SOL     OW 5909  14.449   6.164   3.841
 1357SOL    HW1 5910  14.369   6.199   3.803
 1357SOL    HW2 5911  14.502   6.241   3.862
 1358SOL     OW 5912   2.370   4.287   4.510
 1358SOL    HW1 5913   2.349   4.194   4.513
 1358SOL    HW2 5914   2.394   4.309   4.600
 1359SOL     OW 5915  14.069   6.639   0.075
 1359SOL    HW1 5916  14.079   6.660  14.855
 1359SOL    HW2 5917  14.044   6.722   0.115
 1360SOL     OW 5918  11.739  13.561   8.516
 1360SOL    HW1 5919  11.652  13.590   8.489
 1360SOL    HW2 5920  11.727  13.471   8.545
 1361SOL     OW 5921   9.296  11.074   9.664
 1361SOL    HW1 5922   9.266  11.035   9.746
 1361SOL    HW2 5923   9.353  11.008   9.625
 1362SOL     OW 5924  10.828   4.659  11.593
 1362SOL    HW1 5925  10.739   4.670  11.627
 1362SOL    HW2 5926  10.885   4.681  11.667
 1363SOL     OW 5927   2.379   0.425  10.245
 1363SOL    HW1 5928   2.287   0.408  10.223
 1363SOL    HW2 5929   2.412   0.478  10.172
 1364SOL     OW 5930   5.671   3.107   1.613
 1364SOL    HW1 5931   5.669   3.025   1.661
 1364SOL    HW2 5932   5.749   3.152   1.646
 1365SOL     OW 5933   4.878   6.096   8.897
 1365SOL    HW1 5934   4.794   6.107   8.851
 1365SOL    HW2 5935   4.884   6.002   8.914
 1366SOL     OW 5936   7.369   6.164  11.388
 1366SOL    HW1 5937   7.380   6.101  11.460
 1366SOL    HW2 5938   7.456   6.169  11.348
 1367SOL     OW 5939  11.073   7.936  14.855
 1367SOL    HW1 5940  11.076   7.871  14.785
 1367SOL    HW2 5941  11.009   8.001  14.825
 1368SOL     OW 5942  11.500   6.097  11.009
 1368SOL    HW1 5943  11.459   6.169  11.057
 1368SOL    HW2 5944  11.443   6.085  10.933
 1369SOL     OW 5945  11.215   6.387  13.631
 1369SOL    HW1 5946  11.182   6.454  13.690
 1369SOL    HW2 5947  11.147   6.319  13.632
 1370SOL     OW 5948  11.747  11.403   2.858
 1370SOL    HW1 5949  11.695  11.482   2.874
 1370SOL    HW2 5950  11.797  11.423   2.779
 1371SOL     OW 5951   2.241   4.562  13.886
 1371SOL    HW1 5952   2.191   4.642  13.901
 1371SOL    HW2 5953   2.190   4.494  13.931
 1372SOL     OW 5954   5.712   0.922  11.979
 1372SOL    HW1 5955   5.801   0.926  11.944
 1372SOL    HW2 5956   5.714   0.981  12.054
 1373SOL     OW 5957   8.311   8.161  11.132
 1373SOL    HW1 5958   8.298   8.068  11.150
 1373SOL    HW2 5959   8.405   8.174  11.143
 1374SOL     OW 5960   0.090   0.600   1.835
 1374SOL    HW1 5961   0.169   0.572   1.882
 1374SOL    HW2 5962   0.116   0.603   1.743
 1375SOL     OW 5963  13.705   6.970   6.502
 1375SOL    HW1 5964  13.614   6.997   6.514
 1375SOL    HW2 5965  13.739   7.030   6.436
 1376SOL     OW 5966   7.311   6.548   5.346
 1376SOL    HW1 5967   7.355   6.478   5.298
 1376SOL    HW2 5968   7.375   6.619   5.349
 1377SOL     OW 5969  14.843   1.515   4.373
 1377SOL    HW1 5970  14.866   1.456   4.302
 1377SOL    HW2 5971  14.838   1.459   4.450
 1378SOL     OW 5972  12.508  12.122   7.152
 1378SOL    HW1 5973  12.439  12.142   7.215
 1378SOL    HW2 5974  12.502  12.191   7.086
 1379SOL     OW 5975   2.063  14.129   6.272
 1379SOL    HW1 5976   1.988  14.180   6.304
 1379SOL    HW2 5977   2.096  14.179   6.197
 1380SOL     OW 5978   0.883   9.757   6.864
 1380SOL    HW1 5979   0.805   9.779   6.814
 1380SOL    HW2 5980   0.946   9.725   6.800
 1381SOL     OW 5981   5.483  12.620   0.030
 1381SOL    HW1 5982   5.418  12.597  14.837
 1381SOL    HW2 5983   5.523  12.701  14.872
 1382SOL     OW 5984  10.970  13.712   7.610
 1382SOL    HW1 5985  10.982  13.674   7.523
 1382SOL    HW2 5986  10.985  13.806   7.598
 1383SOL     OW 5987   5.153  14.314   4.184
 1383SOL    HW1 5988   5.222  14.378   4.203
 1383SOL    HW2 5989   5.179  14.236   4.232
 1384SOL     OW 5990  10.700   9.705   4.590
 1384SOL    HW1 5991  10.648   9.625   4.581
 1384SOL    HW2 5992  10.708   9.738   4.501
 1385SOL     OW 5993  12.309   7.590   6.753
 1385SOL    HW1 5994  12.376   7.526   6.730
 1385SOL    HW2 5995  12.226   7.545   6.738
 1386SOL     OW 5996   6.778   2.444  11.663
 1386SOL    HW1 5997   6.787   2.461  11.757
 1386SOL    HW2 5998   6.796   2.350  11.654
 1387SOL     OW 5999   8.475   3.651  10.554
 1387SOL    HW1 6000   8.391   3.607  10.564
 1387SOL    HW2 6001   8.452   3.738  10.519
 1388SOL     OW 6002   5.302   5.889   3.391
 1388SOL    HW1 6003   5.256   5.971   3.405
 1388SOL    HW2 6004   5.274   5.833   3.464
 1389SOL     OW 6005   2.723   8.515   4.308
 1389SOL    HW1 6006   2.762   8.511   4.396
 1389SOL    HW2 6007   2.642   8.465   4.316
 1390SOL     OW 6008  14.191   8.359   5.729
 1390SOL    HW1 6009  14.225   8.339   5.642
 1390SOL    HW2 6010  14.123   8.425   5.714
 1391SOL     OW 6011  13.174  13.617   2.759
 1391SOL    HW1 6012  13.167  13.525   2.784
 1391SOL    HW2 6013  13.148  13.665   2.837
 1392SOL     OW 6014   4.826   7.770  13.223
 1392SOL    HW1 6015   4.829   7.858  13.260
 1392SOL    HW2 6016   4.834   7.712  13.299
 1393SOL     OW 6017   9.431   0.476  14.078
 1393SOL    HW1 6018   9.443   0.391  14.121
 1393SOL    HW2 6019   9.461   0.540  14.142
 1394SOL     OW 6020   2.347  11.260   6.949
 1394SOL    HW1 6021   2.263  11.223   6.923
 1394SOL    HW2 6022   2.356  11.340   6.897
 1395SOL     OW 6023   1.243   6.110  12.040
 1395SOL    HW1 6024   1.214   6.145  12.124
 1395SOL    HW2 6025   1.163   6.103  11.988
 1396SOL     OW 6026  12.737  13.808  14.701
 1396SOL    HW1 6027  12.714  13.715  14.693
 1396SOL    HW2 6028  12.676  13.842  14.766
 1397SOL     OW 6029  11.502   6.192   5.071
 1397SOL    HW1 6030  11.484   6.100   5.050
 1397SOL    HW2 6031  11.474   6.240   4.993
 1398SOL     OW 6032   1.374   6.400  11.876
 1398SOL    HW1 6033   1.288   6.440  11.894
 1398SOL    HW2 6034   1.398   6.358  11.959
 1399SOL     OW 6035   3.442   4.938   8.253
 1399SOL    HW1 6036   3.398   5.018   8.282
 1399SOL    HW2 6037   3.375   4.871   8.259
 1400SOL     OW 6038   6.980   2.669   3.547
 1400SOL    HW1 6039   6.973   2.606   3.475
 1400SOL    HW2 6040   6.891   2.679   3.579
 1401SOL     OW 6041   0.967   7.232   4.415
 1401SOL    HW1 6042   0.900   7.220   4.483
 1401SOL    HW2 6043   1.050   7.221   4.461
 1402SOL     OW 6044   6.525   0.001  14.713
 1402SOL    HW1 6045   6.491   0.079  14.758
 1402SOL    HW2 6046   6.583   0.036  14.646
 1403SOL     OW 6047   6.927   9.398   4.542
 1403SOL    HW1 6048   6.896   9.377   4.454
 1403SOL    HW2 6049   6.893   9.487   4.558
 1404SOL     OW 6050   7.607   5.092  12.431
 1404SOL    HW1 6051   7.695   5.100  12.467
 1404SOL    HW2 6052   7.584   5.180  12.403
 1405SOL     OW 6053   2.894   9.082   8.427
 1405SOL    HW1 6054   2.902   9.046   8.515
 1405SOL    HW2 6055   2.819   9.037   8.389
 1406SOL     OW 6056   0.489   0.796   2.322
 1406SOL    HW1 6057   0.429   0.869   2.306
 1406SOL    HW2 6058   0.435   0.718   2.312
 1407SOL     OW 6059   6.662   3.713   6.771
 1407SOL    HW1 6060   6.654   3.771   6.847
 1407SOL    HW2 6061   6.750   3.729   6.738
 1408SOL     OW 6062   1.781   1.181   7.055
 1408SOL    HW1 6063   1.714   1.114   7.071
 1408SOL    HW2 6064   1.776   1.196   6.960
 1409SOL     OW 6065   5.676   5.911   3.441
 1409SOL    HW1 6066   5.735   5.987   3.440
 1409SOL    HW2 6067   5.625   5.920   3.360
 1410SOL     OW 6068   6.364  11.284   7.918
 1410SOL    HW1 6069   6.442  11.271   7.972
 1410SOL    HW2 6070   6.300  11.321   7.977
 1411SOL     OW 6071  10.447   0.070   0.275
 1411SOL    HW1 6072  10.451   0.054   0.370
 1411SOL    HW2 6073  10.444  14.855   0.237
 1412SOL     OW 6074  11.435   5.319  12.251
 1412SOL    HW1 6075  11.350   5.339  12.211
 1412SOL    HW2 6076  11.426   5.348  12.342
 1413SOL     OW 6077   4.270  13.450  14.405
 1413SOL    HW1 6078   4.294  13.535  14.441
 1413SOL    HW2 6079   4.349  13.396  14.414
 1414SOL     OW 6080   6.836   3.661  12.416
 1414SOL    HW1 6081   6.748   3.698  12.431
 1414SOL    HW2 6082   6.870   3.713  12.342
 1415SOL     OW 6083  14.859   1.771  11.409
 1415SOL    HW1 6084  14.838   1.727  11.491
 1415SOL    HW2 6085  14.814   1.855  11.415
 1416SOL     OW 6086   3.102   5.630   8.949
 1416SOL    HW1 6087   3.189   5.607   8.982
 1416SOL    HW2 6088   3.086   5.568   8.878
 1417SOL     OW 6089  14.291  14.839   6.202
 1417SOL    HW1 6090  14.329  14.764   6.155
 1417SOL    HW2 6091  14.269  14.805   6.288
 1418SOL     OW 6092   0.909  10.047  12.728
 1418SOL    HW1 6093   0.966  10.094  12.668
 1418SOL    HW2 6094   0.830  10.101  12.733
 1419SOL     OW 6095  11.833  14.846  10.738
 1419SOL    HW1 6096  11.918   0.001  10.770
 1419SOL    HW2 6097  11.823   0.017  10.653
 1420SOL     OW 6098  12.937   2.211  13.955
 1420SOL    HW1 6099  12.902   2.138  14.006
 1420SOL    HW2 6100  12.864   2.273  13.950
 1421SOL     OW 6101   7.017  13.400   7.114
 1421SOL    HW1 6102   6.963  13.328   7.080
 1421SOL    HW2 6103   6.968  13.479   7.091
 1422SOL     OW 6104  14.221   1.340  10.804
 1422SOL    HW1 6105  14.231   1.247  10.826
 1422SOL    HW2 6106  14.298   1.382  10.841
 1423SOL     OW 6107   2.833  14.469   5.913
 1423SOL    HW1 6108   2.759  14.409   5.900
 1423SOL    HW2 6109   2.864  14.489   5.825
 1424SOL     OW 6110   9.017  12.838   8.540
 1424SOL    HW1 6111   8.926  12.821   8.562
 1424SOL    HW2 6112   9.014  12.883   8.456
 1425SOL     OW 6113   3.286  12.559   8.403
 1425SOL    HW1 6114   3.373  12.527   8.426
 1425SOL    HW2 6115   3.249  12.490   8.348
 1426SOL     OW 6116   3.366  13.624   7.670
 1426SOL    HW1 6117   3.307  13.569   7.720
 1426SOL    HW2 6118   3.429  13.656   7.734
 1427SOL     OW 6119  13.443   8.217   0.475
 1427SOL    HW1 6120  13.465   8.310   0.484
 1427SOL    HW2 6121  13.518   8.171   0.513
 1428SOL     OW 6122  13.956   5.084  11.872
 1428SOL    HW1 6123  14.026   5.149  11.870
 1428SOL    HW2 6124  13.891   5.117  11.810
 1429SOL     OW 6125  14.659  11.084   9.338
 1429SOL    HW1 6126  14.737  11.061   9.288
 1429SOL    HW2 6127  14.603  11.007   9.333
 1430SOL     OW 6128  10.234  11.084  11.051
 1430SOL    HW1 6129  10.286  11.154  11.090
 1430SOL    HW2 6130  10.265  11.078  10.961
 1431SOL     OW 6131  13.193   0.752   6.875
 1431SOL    HW1 6132  13.235   0.802   6.945
 1431SOL    HW2 6133  13.100   0.754   6.896
 1432SOL     OW 6134  14.241   0.796  14.123
 1432SOL    HW1 6135  14.336   0.783  14.122
 1432SOL    HW2 6136  14.205   0.707  14.120
 1433SOL     OW 6137  11.265  13.562  14.518
 1433SOL    HW1 6138  11.315  13.528  14.593
 1433SOL    HW2 6139  11.285  13.501  14.447
 1434SOL     OW 6140  10.547   3.690   6.161
 1434SOL    HW1 6141  10.639   3.688   6.134
 1434SOL    HW2 6142  10.500   3.715   6.081
 1435SOL     OW 6143  14.683   2.756  10.222
 1435SOL    HW1 6144  14.609   2.810  10.195
 1435SOL    HW2 6145  14.708   2.707  10.144
 1436SOL     OW 6146   6.091   3.453  12.843
 1436SOL    HW1 6147   6.180   3.446  12.809
 1436SOL    HW2 6148   6.037   3.409  12.777
 1437SOL     OW 6149  14.110   3.126  11.027
 1437SOL    HW1 6150  14.102   3.031  11.015
 1437SOL    HW2 6151  14.169   3.154  10.956
 1438SOL     OW 6152  14.323   0.524  11.928
 1438SOL    HW1 6153  14.244   0.542  11.979
 1438SOL    HW2 6154  14.305   0.564  11.842
 1439SOL     OW 6155   4.638  11.931   7.451
 1439SOL    HW1 6156   4.716  11.984   7.465
 1439SOL    HW2 6157   4.663  11.843   7.480
 1440SOL     OW 6158   5.889  12.388   8.596
 1440SOL    HW1 6159   5.939  12.388   8.514
 1440SOL    HW2 6160   5.906  12.302   8.634
 1441SOL     OW 6161  13.885  14.449  11.799
 1441SOL    HW1 6162  13.799  14.478  11.831
 1441SOL    HW2 6163  13.900  14.366  11.844
 1442SOL     OW 6164   9.955   2.044   7.005
 1442SOL    HW1 6165   9.934   2.136   6.989
 1442SOL    HW2 6166   9.970   2.007   6.918
 1443SOL     OW 6167   9.263  14.276  13.885
 1443SOL    HW1 6168   9.214  14.356  13.866
 1443SOL    HW2 6169   9.354  14.298  13.862
 1444SOL     OW 6170  13.300   7.763   0.777
 1444SOL    HW1 6171  13.218   7.756   0.827
 1444SOL    HW2 6172  13.287   7.704   0.702
 1445SOL     OW 6173  14.589   4.085   1.307
 1445SOL    HW1 6174  14.497   4.106   1.318
 1445SOL    HW2 6175  14.602   4.004   1.357
 1446SOL     OW 6176  10.207   8.130   5.903
 1446SOL    HW1 6177  10.233   8.126   5.811
 1446SOL    HW2 6178  10.124   8.082   5.907
 1447SOL     OW 6179   9.148   4.945   5.679
 1447SOL    HW1 6180   9.172   5.026   5.634
 1447SOL    HW2 6181   9.082   4.905   5.622
 1448SOL     OW 6182   2.203   6.708   8.861
 1448SOL    HW1 6183   2.173   6.680   8.947
 1448SOL    HW2 6184   2.126   6.744   8.818
 1449SOL     OW 6185  13.116   3.458   1.322
 1449SOL    HW1 6186  13.071   3.539   1.301
 1449SOL    HW2 6187  13.203   3.485   1.350
 1450SOL     OW 6188  10.813   2.344   5.035
 1450SOL    HW1 6189  10.721   2.354   5.061
 1450SOL    HW2 6190  10.822   2.397   4.956
 1451SOL     OW 6191   1.675   5.013   8.646
 1451SOL    HW1 6192   1.625   5.032   8.567
 1451SOL    HW2 6193   1.675   4.918   8.652
 1452SOL     OW 6194  10.004  12.436  12.662
 1452SOL    HW1 6195  10.003  12.420  12.757
 1452SOL    HW2 6196  10.035  12.526  12.653
 1453SOL     OW 6197   1.412  14.057   8.754
 1453SOL    HW1 6198   1.396  14.031   8.845
 1453SOL    HW2 6199   1.338  14.114   8.732
 1454SOL     OW 6200  13.297   2.520  10.967
 1454SOL    HW1 6201  13.370   2.545  10.910
 1454SOL    HW2 6202  13.308   2.576  11.044
 1455SOL     OW 6203   0.742   5.936  12.121
 1455SOL    HW1 6204   0.725   5.895  12.206
 1455SOL    HW2 6205   0.658   5.975  12.097
 1456SOL     OW 6206   8.345   8.688  14.364
 1456SOL    HW1 6207   8.434   8.652  14.361
 1456SOL    HW2 6208   8.329   8.704  14.456
 1457SOL     OW 6209   3.376   1.966   7.534
 1457SOL    HW1 6210   3.314   2.007   7.594
 1457SOL    HW2 6211   3.344   1.877   7.524
 1458SOL     OW 6212   7.504   3.867   1.122
 1458SOL    HW1 6213   7.498   3.869   1.218
 1458SOL    HW2 6214   7.530   3.956   1.098
 1459SOL     OW 6215   6.785   0.148   6.333
 1459SOL    HW1 6216   6.818   0.067   6.373
 1459SOL    HW2 6217   6.703   0.121   6.290
 1460SOL     OW 6218  12.290  11.291  14.044
 1460SOL    HW1 6219  12.252  11.376  14.020
 1460SOL    HW2 6220  12.270  11.235  13.969
 1461SOL     OW 6221   8.368  12.683   3.062
 1461SOL    HW1 6222   8.330  12.734   3.133
 1461SOL    HW2 6223   8.322  12.712   2.984
 1462SOL     OW 6224   4.100  11.800   0.249
 1462SOL    HW1 6225   4.162  11.776   0.180
 1462SOL    HW2 6226   4.108  11.895   0.257
 1463SOL     OW 6227   7.515   4.473   5.589
 1463SOL    HW1 6228   7.497   4.510   5.675
 1463SOL    HW2 6229   7.599   4.428   5.599
 1464SOL     OW 6230  13.759   1.726   7.649
 1464SOL    HW1 6231  13.672   1.739   7.611
 1464SOL    HW2 6232  13.777   1.633   7.636
 1465SOL     OW 6233   0.792   9.849   7.452
 1465SOL    HW1 6234   0.876   9.816   7.420
 1465SOL    HW2 6235   0.727   9.806   7.397
 1466SOL     OW 6236  13.133  11.644   2.971
 1466SOL    HW1 6237  13.190  11.717   2.946
 1466SOL    HW2 6238  13.075  11.680   3.037
 1467SOL     OW 6239   2.143   2.724   2.271
 1467SOL    HW1 6240   2.094   2.744   2.351
 1467SOL    HW2 6241   2.199   2.800   2.257
 1468SOL     OW 6242  11.747   7.099  10.350
 1468SOL    HW1 6243  11.736   7.193  10.333
 1468SOL    HW2 6244  11.714   7.057  10.270
 1469SOL     OW 6245   7.059   0.915   4.065
 1469SOL    HW1 6246   7.105   0.963   4.134
 1469SOL    HW2 6247   7.115   0.839   4.047
 1470SOL     OW 6248  13.191  14.388   6.540
 1470SOL    HW1 6249  13.278  14.408   6.574
 1470SOL    HW2 6250  13.131  14.418   6.608
 1471SOL     OW 6251   5.543   4.078  13.237
 1471SOL    HW1 6252   5.495   3.997  13.218
 1471SOL    HW2 6253   5.533   4.131  13.157
 1472SOL     OW 6254   0.720  11.363  12.526
 1472SOL    HW1 6255   0.770  11.441  12.554
 1472SOL    HW2 6256   0.765  11.335  12.446
 1473SOL     OW 6257  13.461  13.849  12.296
 1473SOL    HW1 6258  13.480  13.920  12.235
 1473SOL    HW2 6259  13.505  13.773  12.258
 1474SOL     OW 6260   8.258   7.916   1.775
 1474SOL    HW1 6261   8.229   7.908   1.866
 1474SOL    HW2 6262   8.251   8.010   1.755
 1475SOL     OW 6263   4.007   5.167   8.118
 1475SOL    HW1 6264   3.984   5.136   8.206
 1475SOL    HW2 6265   3.938   5.132   8.062
 1476SOL     OW 6266   9.437   5.553  10.514
 1476SOL    HW1 6267   9.345   5.581  10.521
 1476SOL    HW2 6268   9.439   5.495  10.439
 1477SOL     OW 6269   4.837  13.981   3.551
 1477SOL    HW1 6270   4.912  13.921   3.545
 1477SOL    HW2 6271   4.804  13.986   3.461
 1478SOL     OW 6272   4.006  11.299  11.339
 1478SOL    HW1 6273   4.019  11.205  11.351
 1478SOL    HW2 6274   4.008  11.335  11.428
 1479SOL     OW 6275   1.674   9.711   8.373
 1479SOL    HW1 6276   1.739   9.641   8.369
 1479SOL    HW2 6277   1.649   9.726   8.282
 1480SOL     OW 6278  13.141   8.292   4.978
 1480SOL    HW1 6279  13.217   8.325   5.026
 1480SOL    HW2 6280  13.167   8.298   4.886
 1481SOL     OW 6281  11.020   2.828   1.619
 1481SOL    HW1 6282  10.975   2.793   1.542
 1481SOL    HW2 6283  10.958   2.889   1.658
 1482SOL     OW 6284   0.040   9.970   3.643
 1482SOL    HW1 6285  14.820   9.960   3.662
 1482SOL    HW2 6286   0.064  10.054   3.682
 1483SOL     OW 6287   7.188   6.372   0.038
 1483SOL    HW1 6288   7.134   6.426   0.095
 1483SOL    HW2 6289   7.277   6.384   0.071
 1484SOL     OW 6290  10.576   7.427   4.650
 1484SOL    HW1 6291  10.553   7.351   4.597
 1484SOL    HW2 6292  10.532   7.413   4.733
 1485SOL     OW 6293  11.202  10.047   8.304
 1485SOL    HW1 6294  11.114  10.078   8.325
 1485SOL    HW2 6295  11.220   9.979   8.368
 1486SOL     OW 6296  10.568   5.251   6.001
 1486SOL    HW1 6297  10.486   5.272   6.047
 1486SOL    HW2 6298  10.594   5.166   6.038
 1487SOL     OW 6299   5.627  12.404  11.710
 1487SOL    HW1 6300   5.563  12.358  11.655
 1487SOL    HW2 6301   5.705  12.411  11.655
 1488SOL     OW 6302   1.202   1.801  13.094
 1488SOL    HW1 6303   1.297   1.797  13.107
 1488SOL    HW2 6304   1.180   1.718  13.051
 1489SOL     OW 6305   3.541  11.303  14.844
 1489SOL    HW1 6306   3.610  11.362   0.000
 1489SOL    HW2 6307   3.567  11.217   0.004
 1490SOL     OW 6308   0.970   9.717   3.914
 1490SOL    HW1 6309   1.065   9.710   3.922
 1490SOL    HW2 6310   0.952   9.704   3.821
 1491SOL     OW 6311   4.377  13.104   7.725
 1491SOL    HW1 6312   4.379  13.187   7.772
 1491SOL    HW2 6313   4.286  13.076   7.729
 1492SOL     OW 6314   9.747  13.259  14.212
 1492SOL    HW1 6315   9.689  13.331  14.189
 1492SOL    HW2 6316   9.774  13.276  14.302
 1493SOL     OW 6317  10.407   9.096   8.400
 1493SOL    HW1 6318  10.332   9.042   8.373
 1493SOL    HW2 6319  10.469   9.088   8.328
 1494SOL     OW 6320   4.355  11.662  14.631
 1494SOL    HW1 6321   4.260  11.652  14.622
 1494SOL    HW2 6322   4.376  11.619  14.714
 1495SOL     OW 6323  14.852   1.856  13.622
 1495SOL    HW1 6324  14.774   1.860  13.566
 1495SOL    HW2 6325   0.047   1.819  13.566
 1496SOL     OW 6326   2.165  10.797   7.072
 1496SOL    HW1 6327   2.084  10.848   7.081
 1496SOL    HW2 6328   2.181  10.795   6.977
 1497SOL     OW 6329   7.256  14.842   5.562
 1497SOL    HW1 6330   7.192  14.774   5.538
 1497SOL    HW2 6331   7.319  14.797   5.617
 1498SOL     OW 6332   0.795   8.007   9.574
 1498SOL    HW1 6333   0.751   7.928   9.542
 1498SOL    HW2 6334   0.791   7.999   9.670
 1499SOL     OW 6335   3.343  14.445  13.977
 1499SOL    HW1 6336   3.391  14.490  14.047
 1499SOL    HW2 6337   3.395  14.461  13.898
 1500SOL     OW 6338   0.374  12.200  13.467
 1500SOL    HW1 6339   0.413  12.118  13.494
 1500SOL    HW2 6340   0.406  12.264  13.531
 1501SOL     OW 6341   0.448   7.457  10.955
 1501SOL    HW1 6342   0.387   7.415  10.894
 1501SOL    HW2 6343   0.457   7.394  11.027
 1502SOL     OW 6344   0.173   5.561  12.845
 1502SOL    HW1 6345   0.097   5.537  12.897
 1502SOL    HW2 6346   0.222   5.480  12.835
 1503SOL     OW 6347   6.705   4.266   9.295
 1503SOL    HW1 6348   6.643   4.193   9.291
 1503SOL    HW2 6349   6.693   4.303   9.383
 1504SOL     OW 6350   2.973   8.386   4.585
 1504SOL    HW1 6351   2.938   8.366   4.672
 1504SOL    HW2 6352   3.049   8.442   4.602
 1505SOL     OW 6353   9.251   6.711   4.242
 1505SOL    HW1 6354   9.278   6.656   4.316
 1505SOL    HW2 6355   9.158   6.726   4.256
 1506SOL     OW 6356   5.049   8.584  12.001
 1506SOL    HW1 6357   4.978   8.648  12.007
 1506SOL    HW2 6358   5.121   8.632  11.959
 1507SOL     OW 6359  11.763   4.359   6.337
 1507SOL    HW1 6360  11.812   4.279   6.356
 1507SOL    HW2 6361  11.822   4.430   6.363
 1508SOL     OW 6362   6.498   1.546   2.776
 1508SOL    HW1 6363   6.482   1.635   2.809
 1508SOL    HW2 6364   6.587   1.525   2.804
 1509SOL     OW 6365   7.770   9.013   3.996
 1509SOL    HW1 6366   7.783   9.053   4.082
 1509SOL    HW2 6367   7.855   9.022   3.953
 1510SOL     OW 6368   2.241   8.924   6.684
 1510SOL    HW1 6369   2.228   8.978   6.606
 1510SOL    HW2 6370   2.332   8.894   6.676
 1511SOL     OW 6371   2.528  12.178   2.374
 1511SOL    HW1 6372   2.453  12.154   2.430
 1511SOL    HW2 6373   2.588  12.104   2.383
 1512SOL     OW 6374   2.229   0.717   6.155
 1512SOL    HW1 6375   2.199   0.807   6.146
 1512SOL    HW2 6376   2.295   0.707   6.086
 1513SOL     OW 6377   6.089   8.390   8.803
 1513SOL    HW1 6378   6.160   8.364   8.861
 1513SOL    HW2 6379   6.069   8.312   8.752
 1514SOL     OW 6380   6.773   2.148   4.696
 1514SOL    HW1 6381   6.711   2.185   4.632
 1514SOL    HW2 6382   6.772   2.054   4.679
 1515SOL     OW 6383   6.809   5.133  13.937
 1515SOL    HW1 6384   6.778   5.171  13.855
 1515SOL    HW2 6385   6.780   5.196  14.004
 1516SOL     OW 6386  10.875  11.384   5.344
 1516SOL    HW1 6387  10.922  11.456   5.301
 1516SOL    HW2 6388  10.845  11.421   5.427
 1517SOL     OW 6389   6.624   6.107   1.881
 1517SOL    HW1 6390   6.689   6.168   1.916
 1517SOL    HW2 6391   6.540   6.149   1.898
 1518SOL     OW 6392   3.352   0.867   8.208
 1518SOL    HW1 6393   3.276   0.847   8.153
 1518SOL    HW2 6394   3.352   0.963   8.215
 1519SOL     OW 6395  10.102  14.363   3.908
 1519SOL    HW1 6396  10.082  14.454   3.929
 1519SOL    HW2 6397  10.128  14.364   3.816
 1520SOL     OW 6398  14.765   7.541   1.103
 1520SOL    HW1 6399  14.845   7.594   1.100
 1520SOL    HW2 6400  14.703   7.587   1.047
 1521SOL     OW 6401   9.921   6.850  14.694
 1521SOL    HW1 6402   9.872   6.843  14.613
 1521SOL    HW2 6403   9.951   6.761  14.713
 1522SOL     OW 6404  13.105   7.982   0.425
 1522SOL    HW1 6405  13.128   8.046   0.493
 1522SOL    HW2 6406  13.143   8.018   0.345
 1523SOL     OW 6407   5.707  14.091   0.726
 1523SOL    HW1 6408   5.796  14.095   0.761
 1523SOL    HW2 6409   5.717  14.098   0.631
 1524SOL     OW 6410  10.498   3.571  12.061
 1524SOL    HW1 6411  10.537   3.591  11.976
 1524SOL    HW2 6412  10.478   3.656  12.100
 1525SOL     OW 6413   2.900  12.255   2.914
 1525SOL    HW1 6414   2.819  12.293   2.881
 1525SOL    HW2 6415   2.901  12.166   2.881
 1526SOL     OW 6416   6.050   4.390   2.235
 1526SOL    HW1 6417   5.980   4.338   2.196
 1526SOL    HW2 6418   6.127   4.369   2.183
 1527SOL     OW 6419   1.592   2.739   8.407
 1527SOL    HW1 6420   1.622   2.827   8.383
 1527SOL    HW2 6421   1.504   2.752   8.442
 1528SOL     OW 6422   7.300   9.833  14.193
 1528SOL    HW1 6423   7.228   9.856  14.252
 1528SOL    HW2 6424   7.273   9.868  14.108
 1529SOL     OW 6425   7.763   4.150   4.015
 1529SOL    HW1 6426   7.718   4.125   4.096
 1529SOL    HW2 6427   7.762   4.245   4.014
 1530SOL     OW 6428  13.232   1.769   9.111
 1530SOL    HW1 6429  13.309   1.827   9.105
 1530SOL    HW2 6430  13.242   1.709   9.037
 1531SOL     OW 6431  14.041   4.053  10.801
 1531SOL    HW1 6432  14.090   4.128  10.767
 1531SOL    HW2 6433  13.952   4.084  10.812
 1532SOL     OW 6434   6.318   5.639   4.258
 1532SOL    HW1 6435   6.332   5.706   4.192
 1532SOL    HW2 6436   6.228   5.653   4.287
 1533SOL     OW 6437   3.664   9.891  12.395
 1533SOL    HW1 6438   3.746   9.938  12.411
 1533SOL    HW2 6439   3.602   9.959  12.367
 1534SOL     OW 6440   8.171   7.057   3.712
 1534SOL    HW1 6441   8.100   6.997   3.733
 1534SOL    HW2 6442   8.129   7.128   3.662
 1535SOL     OW 6443   8.523   5.952  11.610
 1535SOL    HW1 6444   8.463   6.022  11.588
 1535SOL    HW2 6445   8.553   5.972  11.699
 1536SOL     OW 6446   7.669   9.909   4.966
 1536SOL    HW1 6447   7.740   9.873   4.913
 1536SOL    HW2 6448   7.669  10.002   4.946
 1537SOL     OW 6449  13.021   4.693  14.377
 1537SOL    HW1 6450  12.943   4.734  14.338
 1537SOL    HW2 6451  13.011   4.600  14.357
 1538SOL     OW 6452  12.786   0.475  13.652
 1538SOL    HW1 6453  12.710   0.476  13.593
 1538SOL    HW2 6454  12.794   0.383  13.679
 1539SOL     OW 6455   0.558   4.748  10.673
 1539SOL    HW1 6456   0.533   4.765  10.763
 1539SOL    HW2 6457   0.653   4.745  10.674
 1540SOL     OW 6458   6.368   8.744  14.007
 1540SOL    HW1 6459   6.308   8.686  14.054
 1540SOL    HW2 6460   6.323   8.829  14.007
 1541SOL     OW 6461   3.725  13.451   1.159
 1541SOL    HW1 6462   3.740  13.358   1.172
 1541SOL    HW2 6463   3.649  13.471   1.215
 1542SOL     OW 6464   2.545   6.757   2.996
 1542SOL    HW1 6465   2.469   6.707   2.966
 1542SOL    HW2 6466   2.610   6.691   3.017
 1543SOL     OW 6467   9.466  14.842   2.757
 1543SOL    HW1 6468   9.444  14.861   2.848
 1543SOL    HW2 6469   9.540   0.027   2.737
 1544SOL     OW 6470   6.533   7.178   4.088
 1544SOL    HW1 6471   6.582   7.140   4.161
 1544SOL    HW2 6472   6.500   7.261   4.123
 1545SOL     OW 6473  13.709   8.220  10.478
 1545SOL    HW1 6474  13.790   8.259  10.447
 1545SOL    HW2 6475  13.640   8.260  10.424
 1546SOL     OW 6476   9.425   8.313   1.982
 1546SOL    HW1 6477   9.481   8.387   1.959
 1546SOL    HW2 6478   9.406   8.325   2.075
 1547SOL     OW 6479   6.604   3.156   0.890
 1547SOL    HW1 6480   6.549   3.098   0.943
 1547SOL    HW2 6481   6.643   3.099   0.823
 1548SOL     OW 6482   9.686  13.400  13.668
 1548SOL    HW1 6483   9.766  13.452  13.681
 1548SOL    HW2 6484   9.620  13.465  13.643
 1549SOL     OW 6485   1.489  13.831   8.529
 1549SOL    HW1 6486   1.507  13.914   8.485
 1549SOL    HW2 6487   1.440  13.780   8.464
 1550SOL     OW 6488  10.828   7.127   5.972
 1550SOL    HW1 6489  10.855   7.060   5.908
 1550SOL    HW2 6490  10.733   7.134   5.960
 1551SOL     OW 6491  10.670   1.528   3.226
 1551SOL    HW1 6492  10.640   1.450   3.179
 1551SOL    HW2 6493  10.589   1.571   3.254
 1552SOL     OW 6494   7.453  14.677   1.206
 1552SOL    HW1 6495   7.372  14.714   1.171
 1552SOL    HW2 6496   7.522  14.725   1.160
 1553SOL     OW 6497  13.620   8.180   9.145
 1553SOL    HW1 6498  13.526   8.189   9.162
 1553SOL    HW2 6499  13.640   8.250   9.083
 1554SOL     OW 6500   2.756   4.489  10.734
 1554SOL    HW1 6501   2.805   4.529  10.805
 1554SOL    HW2 6502   2.778   4.541  10.657
 1555SOL     OW 6503  13.165   3.382   2.614
 1555SOL    HW1 6504  13.190   3.422   2.531
 1555SOL    HW2 6505  13.085   3.333   2.594
 1556SOL     OW 6506   1.053   0.795  13.368
 1556SOL    HW1 6507   1.037   0.887  13.390
 1556SOL    HW2 6508   0.985   0.773  13.304
 1557SOL     OW 6509   2.450  14.373   0.213
 1557SOL    HW1 6510   2.391  14.441   0.245
 1557SOL    HW2 6511   2.427  14.296   0.265
 1558SOL     OW 6512  10.205   1.107   9.766
 1558SOL    HW1 6513  10.270   1.122   9.698
 1558SOL    HW2 6514  10.247   1.137   9.847
 1559SOL     OW 6515   0.059  13.111   1.474
 1559SOL    HW1 6516   0.147  13.129   1.441
 1559SOL    HW2 6517   0.026  13.195   1.504
 1560SOL     OW 6518   6.788   7.208   3.267
 1560SOL    HW1 6519   6.731   7.208   3.343
 1560SOL    HW2 6520   6.738   7.252   3.198
 1561SOL     OW 6521  10.646  14.067  12.348
 1561SOL    HW1 6522  10.740  14.069  12.330
 1561SOL    HW2 6523  10.633  13.986  12.397
 1562SOL     OW 6524  11.544   1.933  14.846
 1562SOL    HW1 6525  11.460   1.980  14.847
 1562SOL    HW2 6526  11.558   1.911  14.754
 1563SOL     OW 6527   3.908   2.947   1.974
 1563SOL    HW1 6528   3.942   2.876   1.920
 1563SOL    HW2 6529   3.822   2.915   2.003
 1564SOL     OW 6530   8.343   8.635   7.650
 1564SOL    HW1 6531   8.304   8.549   7.666
 1564SOL    HW2 6532   8.275   8.697   7.674
 1565SOL     OW 6533  10.089  10.028   3.697
 1565SOL    HW1 6534  10.162  10.086   3.721
 1565SOL    HW2 6535  10.022  10.045   3.763
 1566SOL     OW 6536   4.241   2.870  14.171
 1566SOL    HW1 6537   4.276   2.956  14.192
 1566SOL    HW2 6538   4.182   2.885  14.097
 1567SOL     OW 6539   5.436   1.504   4.656
 1567SOL    HW1 6540   5.502   1.512   4.586
 1567SOL    HW2 6541   5.354   1.491   4.610
 1568SOL     OW 6542  12.080  11.940  13.887
 1568SOL    HW1 6543  12.050  11.852  13.864
 1568SOL    HW2 6544  12.114  11.931  13.977
 1569SOL     OW 6545   9.818  12.023   6.400
 1569SOL    HW1 6546   9.891  12.053   6.346
 1569SOL    HW2 6547   9.843  12.048   6.489
 1570SOL     OW 6548   3.393  13.325  13.511
 1570SOL    HW1 6549   3.346  13.404  13.538
 1570SOL    HW2 6550   3.344  13.253  13.551
 1571SOL     OW 6551  10.269  14.822   2.949
 1571SOL    HW1 6552  10.331   0.020   2.930
 1571SOL    HW2 6553  10.302  14.783   3.030
 1572SOL     OW 6554  13.770   1.171  13.680
 1572SOL    HW1 6555  13.689   1.192  13.725
 1572SOL    HW2 6556  13.744   1.112  13.609
 1573SOL     OW 6557   6.659   9.825  13.733
 1573SOL    HW1 6558   6.725   9.780  13.680
 1573SOL    HW2 6559   6.669   9.790  13.821
 1574SOL     OW 6560   8.522   1.749  13.904
 1574SOL    HW1 6561   8.611   1.767  13.935
 1574SOL    HW2 6562   8.532   1.674  13.845
 1575SOL     OW 6563  13.866   3.533  10.079
 1575SOL    HW1 6564  13.861   3.452  10.029
 1575SOL    HW2 6565  13.896   3.598  10.016
 1576SOL     OW 6566   5.187   8.926  11.472
 1576SOL    HW1 6567   5.125   8.959  11.408
 1576SOL    HW2 6568   5.134   8.909  11.550
 1577SOL     OW 6569   0.387   0.601   9.278
 1577SOL    HW1 6570   0.345   0.542   9.215
 1577SOL    HW2 6571   0.402   0.682   9.229
 1578SOL     OW 6572   0.162   1.827  12.778
 1578SOL    HW1 6573   0.141   1.830  12.685
 1578SOL    HW2 6574   0.126   1.908  12.813
 1579SOL     OW 6575   8.846  10.456   7.055
 1579SOL    HW1 6576   8.791  10.379   7.046
 1579SOL    HW2 6577   8.794  10.516   7.109
 1580SOL     OW 6578   1.002   7.896  14.742
 1580SOL    HW1 6579   0.911   7.917  14.766
 1580SOL    HW2 6580   1.039   7.979  14.712
 1581SOL     OW 6581   9.099   9.674  11.780
 1581SOL    HW1 6582   9.132   9.764  11.784
 1581SOL    HW2 6583   9.098   9.653  11.687
 1582SOL     OW 6584   3.075   4.334  10.730
 1582SOL    HW1 6585   3.059   4.352  10.823
 1582SOL    HW2 6586   3.166   4.304  10.726
 1583SOL     OW 6587  10.904  12.419   6.372
 1583SOL    HW1 6588  10.969  12.355   6.400
 1583SOL    HW2 6589  10.955  12.493   6.339
 1584SOL     OW 6590   7.005   3.412   8.429
 1584SOL    HW1 6591   6.959   3.445   8.352
 1584SOL    HW2 6592   6.946   3.345   8.465
 1585SOL     OW 6593   0.217   3.907  13.393
 1585SOL    HW1 6594   0.236   3.981  13.450
 1585SOL    HW2 6595   0.126   3.918  13.369
 1586SOL     OW 6596  14.723   0.882   3.256
 1586SOL    HW1 6597  14.785   0.851   3.190
 1586SOL    HW2 6598  14.773   0.886   3.337
 1587SOL     OW 6599   7.712  13.106   4.418
 1587SOL    HW1 6600   7.765  13.055   4.479
 1587SOL    HW2 6601   7.758  13.101   4.335
 1588SOL     OW 6602   8.880   2.949   4.268
 1588SOL    HW1 6603   8.817   3.021   4.258
 1588SOL    HW2 6604   8.897   2.920   4.178
 1589SOL     OW 6605  11.758   7.416   3.367
 1589SOL    HW1 6606  11.777   7.323   3.358
 1589SOL    HW2 6607  11.837   7.460   3.334
 1590SOL     OW 6608   4.704   6.580  11.802
 1590SOL    HW1 6609   4.651   6.505  11.775
 1590SOL    HW2 6610   4.754   6.548  11.877
 1591SOL     OW 6611   1.083   0.234   6.113
 1591SOL    HW1 6612   1.033   0.307   6.149
 1591SOL    HW2 6613   1.023   0.160   6.116
 1592SOL     OW 6614   3.102   8.893  12.990
 1592SOL    HW1 6615   3.096   8.986  13.011
 1592SOL    HW2 6616   3.023   8.854  13.029
 1593SOL     OW 6617   4.753  14.258   5.825
 1593SOL    HW1 6618   4.671  14.248   5.872
 1593SOL    HW2 6619   4.781  14.168   5.807
 1594SOL     OW 6620   4.792  12.906  11.804
 1594SOL    HW1 6621   4.768  12.820  11.770
 1594SOL    HW2 6622   4.826  12.889  11.892
 1595SOL     OW 6623  10.335   1.887   0.864
 1595SOL    HW1 6624  10.273   1.959   0.851
 1595SOL    HW2 6625  10.399   1.896   0.794
 1596SOL     OW 6626   3.869  14.761   2.183
 1596SOL    HW1 6627   3.922  14.762   2.263
 1596SOL    HW2 6628   3.815  14.839   2.189
 1597SOL     OW 6629  12.186   5.849   4.755
 1597SOL    HW1 6630  12.168   5.910   4.683
 1597SOL    HW2 6631  12.109   5.793   4.759
 1598SOL     OW 6632  11.896  10.690   4.282
 1598SOL    HW1 6633  11.855  10.611   4.245
 1598SOL    HW2 6634  11.976  10.658   4.324
 1599SOL     OW 6635   5.197  10.317  12.854
 1599SOL    HW1 6636   5.252  10.244  12.825
 1599SOL    HW2 6637   5.254  10.394  12.845
 1600SOL     OW 6638  11.039   7.155  11.224
 1600SOL    HW1 6639  11.103   7.152  11.153
 1600SOL    HW2 6640  11.039   7.246  11.254
 1601SOL     OW 6641  10.552   6.770   2.167
 1601SOL    HW1 6642  10.551   6.775   2.071
 1601SOL    HW2 6643  10.498   6.694   2.187
 1602SOL     OW 6644   8.970  13.961   6.202
 1602SOL    HW1 6645   8.889  13.969   6.152
 1602SOL    HW2 6646   8.950  14.000   6.287
 1603SOL     OW 6647   9.099  10.354   8.873
 1603SOL    HW1 6648   9.093  10.271   8.920
 1603SOL    HW2 6649   9.180  10.394   8.905
 1604SOL     OW 6650  13.496   2.313   8.789
 1604SOL    HW1 6651  13.463   2.266   8.713
 1604SOL    HW2 6652  13.437   2.389   8.798
 1605SOL     OW 6653  12.983   6.126   4.601
 1605SOL    HW1 6654  13.065   6.082   4.578
 1605SOL    HW2 6655  12.977   6.117   4.696
 1606SOL     OW 6656  14.121  12.961   3.918
 1606SOL    HW1 6657  14.026  12.963   3.930
 1606SOL    HW2 6658  14.145  13.053   3.901
 1607SOL     OW 6659  13.791  13.492  11.779
 1607SOL    HW1 6660  13.840  13.430  11.725
 1607SOL    HW2 6661  13.723  13.440  11.821
 1608SOL     OW 6662  11.285   5.978   4.989
 1608SOL    HW1 6663  11.291   5.913   5.059
 1608SOL    HW2 6664  11.225   6.044   5.024
 1609SOL     OW 6665   2.074   3.127  11.270
 1609SOL    HW1 6666   1.981   3.104  11.277
 1609SOL    HW2 6667   2.095   3.168  11.354
 1610SOL     OW 6668   9.909   7.071   9.030
 1610SOL    HW1 6669   9.880   6.996   9.082
 1610SOL    HW2 6670   9.907   7.145   9.092
 1611SOL     OW 6671   4.498   6.169   1.781
 1611SOL    HW1 6672   4.422   6.122   1.747
 1611SOL    HW2 6673   4.572   6.131   1.735
 1612SOL     OW 6674   4.411   8.878   9.129
 1612SOL    HW1 6675   4.481   8.931   9.092
 1612SOL    HW2 6676   4.331   8.914   9.090
 1613SOL     OW 6677   5.287   9.264   9.173
 1613SOL    HW1 6678   5.260   9.236   9.086
 1613SOL    HW2 6679   5.211   9.245   9.229
 1614SOL     OW 6680  14.031   3.588  11.951
 1614SOL    HW1 6681  14.043   3.535  11.872
 1614SOL    HW2 6682  14.029   3.679  11.919
 1615SOL     OW 6683  14.082   4.372  10.962
 1615SOL    HW1 6684  14.024   4.343  10.892
 1615SOL    HW2 6685  14.168   4.341  10.936
 1616SOL     OW 6686  11.467  13.398   5.924
 1616SOL    HW1 6687  11.442  13.451   5.999
 1616SOL    HW2 6688  11.549  13.436   5.894
 1617SOL     OW 6689  12.473   0.241  10.979
 1617SOL    HW1 6690  12.488   0.174  11.045
 1617SOL    HW2 6691  12.561   0.265  10.948
 1618SOL     OW 6692  12.765   3.940   9.028
 1618SOL    HW1 6693  12.762   4.036   9.029
 1618SOL    HW2 6694  12.853   3.918   9.057
 1619SOL     OW 6695   4.046  13.144   6.181
 1619SOL    HW1 6696   4.063  13.124   6.273
 1619SOL    HW2 6697   3.990  13.072   6.151
 1620SOL     OW 6698   6.961   3.276   9.698
 1620SOL    HW1 6699   7.035   3.303   9.643
 1620SOL    HW2 6700   6.967   3.333   9.775
 1621SOL     OW 6701   2.158   2.728   1.492
 1621SOL    HW1 6702   2.200   2.767   1.415
 1621SOL    HW2 6703   2.200   2.771   1.566
 1622SOL     OW 6704   9.441  13.612   5.724
 1622SOL    HW1 6705   9.443  13.565   5.808
 1622SOL    HW2 6706   9.529  13.650   5.717
 1623SOL     OW 6707   1.019   4.498   7.867
 1623SOL    HW1 6708   1.090   4.462   7.920
 1623SOL    HW2 6709   1.031   4.458   7.781
 1624SOL     OW 6710   0.973   6.003   9.306
 1624SOL    HW1 6711   1.041   5.982   9.242
 1624SOL    HW2 6712   1.009   6.076   9.356
 1625SOL     OW 6713   2.490   5.181   2.350
 1625SOL    HW1 6714   2.578   5.145   2.341
 1625SOL    HW2 6715   2.435   5.121   2.300
 1626SOL     OW 6716  10.150  14.116  13.185
 1626SOL    HW1 6717  10.109  14.160  13.110
 1626SOL    HW2 6718  10.155  14.024  13.160
 1627SOL     OW 6719   4.132   7.018  14.486
 1627SOL    HW1 6720   4.185   7.007  14.565
 1627SOL    HW2 6721   4.069   6.945  14.489
 1628SOL     OW 6722   2.700   9.351   1.256
 1628SOL    HW1 6723   2.699   9.435   1.209
 1628SOL    HW2 6724   2.789   9.344   1.289
 1629SOL     OW 6725   0.205   1.592   7.404
 1629SOL    HW1 6726   0.236   1.507   7.436
 1629SOL    HW2 6727   0.114   1.596   7.435
 1630SOL     OW 6728   5.184   2.839   9.286
 1630SOL    HW1 6729   5.093   2.816   9.304
 1630SOL    HW2 6730   5.233   2.758   9.300
 1631SOL     OW 6731   6.445  10.257   5.637
 1631SOL    HW1 6732   6.442  10.229   5.545
 1631SOL    HW2 6733   6.526  10.307   5.644
 1632SOL     OW 6734   4.008  13.743   5.152
 1632SOL    HW1 6735   4.011  13.750   5.057
 1632SOL    HW2 6736   4.079  13.683   5.175
 1633SOL     OW 6737   8.087  11.685  14.414
 1633SOL    HW1 6738   8.182  11.675  14.426
 1633SOL    HW2 6739   8.055  11.713  14.500
 1634SOL     OW 6740   8.475   5.833  12.768
 1634SOL    HW1 6741   8.464   5.926  12.750
 1634SOL    HW2 6742   8.415   5.789  12.709
 1635SOL     OW 6743  13.161   8.701   0.995
 1635SOL    HW1 6744  13.158   8.655   1.079
 1635SOL    HW2 6745  13.070   8.705   0.967
 1636SOL     OW 6746   5.827   7.023  14.017
 1636SOL    HW1 6747   5.863   7.111  14.001
 1636SOL    HW2 6748   5.847   6.975  13.936
 1637SOL     OW 6749  14.346  13.385   2.533
 1637SOL    HW1 6750  14.276  13.348   2.479
 1637SOL    HW2 6751  14.328  13.353   2.622
 1638SOL     OW 6752   4.924  10.458   2.734
 1638SOL    HW1 6753   4.893  10.415   2.814
 1638SOL    HW2 6754   4.885  10.545   2.737
 1639SOL     OW 6755   8.875  11.628   2.739
 1639SOL    HW1 6756   8.865  11.535   2.717
 1639SOL    HW2 6757   8.963  11.635   2.775
 1640SOL     OW 6758  11.973  10.766   8.614
 1640SOL    HW1 6759  11.946  10.817   8.690
 1640SOL    HW2 6760  11.911  10.791   8.545
 1641SOL     OW 6761   5.998   4.772   8.239
 1641SOL    HW1 6762   6.028   4.861   8.256
 1641SOL    HW2 6763   5.907   4.782   8.211
 1642SOL     OW 6764   1.231  11.029  12.823
 1642SOL    HW1 6765   1.261  10.938  12.823
 1642SOL    HW2 6766   1.297  11.076  12.874
 1643SOL     OW 6767  10.392   0.137   6.411
 1643SOL    HW1 6768  10.373   0.044   6.395
 1643SOL    HW2 6769  10.480   0.150   6.374
 1644SOL     OW 6770   8.864   8.274  10.440
 1644SOL    HW1 6771   8.874   8.202  10.377
 1644SOL    HW2 6772   8.773   8.267  10.470
 1645SOL     OW 6773   6.823  14.744  13.086
 1645SOL    HW1 6774   6.769  14.791  13.149
 1645SOL    HW2 6775   6.906  14.792  13.083
 1646SOL     OW 6776  13.325   2.181   8.652
 1646SOL    HW1 6777  13.351   2.092   8.674
 1646SOL    HW2 6778  13.236   2.173   8.618
 1647SOL     OW 6779   0.733   1.850   6.635
 1647SOL    HW1 6780   0.780   1.904   6.699
 1647SOL    HW2 6781   0.648   1.892   6.626
 1648SOL     OW 6782   0.888   6.961   8.058
 1648SOL    HW1 6783   0.938   6.997   8.131
 1648SOL    HW2 6784   0.803   7.004   8.063
 1649SOL     OW 6785   1.133   4.630   5.385
 1649SOL    HW1 6786   1.175   4.545   5.398
 1649SOL    HW2 6787   1.045   4.609   5.353
 1650SOL     OW 6788   4.335  12.164   2.843
 1650SOL    HW1 6789   4.354  12.256   2.828
 1650SOL    HW2 6790   4.359  12.121   2.761
 1651SOL     OW 6791  14.019  10.738  10.446
 1651SOL    HW1 6792  13.968  10.657  10.454
 1651SOL    HW2 6793  14.038  10.745  10.352
 1652SOL     OW 6794   2.014  11.656   5.484
 1652SOL    HW1 6795   1.965  11.736   5.504
 1652SOL    HW2 6796   1.975  11.624   5.403
 1653SOL     OW 6797   0.914   2.934   4.175
 1653SOL    HW1 6798   0.882   3.015   4.134
 1653SOL    HW2 6799   0.884   2.864   4.117
 1654SOL     OW 6800  13.894   7.644   6.584
 1654SOL    HW1 6801  13.811   7.598   6.581
 1654SOL    HW2 6802  13.955   7.581   6.622
 1655SOL     OW 6803   9.055   3.210   3.058
 1655SOL    HW1 6804   9.013   3.241   2.978
 1655SOL    HW2 6805   9.127   3.155   3.028
 1656SOL     OW 6806   9.027   1.836  12.265
 1656SOL    HW1 6807   9.042   1.749  12.226
 1656SOL    HW2 6808   9.111   1.881  12.254
 1657SOL     OW 6809   5.191   8.968   5.439
 1657SOL    HW1 6810   5.223   8.881   5.462
 1657SOL    HW2 6811   5.204   8.974   5.345
 1658SOL     OW 6812  14.788  12.628  13.879
 1658SOL    HW1 6813  14.738  12.703  13.846
 1658SOL    HW2 6814  14.774  12.559  13.813
 1659SOL     OW 6815   1.122  11.584   1.906
 1659SOL    HW1 6816   1.074  11.662   1.879
 1659SOL    HW2 6817   1.189  11.573   1.838
 1660SOL     OW 6818   0.488  12.981   9.600
 1660SOL    HW1 6819   0.561  13.040   9.620
 1660SOL    HW2 6820   0.508  12.947   9.513
 1661SOL     OW 6821   9.474  11.936   5.159
 1661SOL    HW1 6822   9.413  11.914   5.089
 1661SOL    HW2 6823   9.471  12.031   5.165
 1662SOL     OW 6824  10.869   4.782   5.638
 1662SOL    HW1 6825  10.858   4.875   5.619
 1662SOL    HW2 6826  10.916   4.780   5.722
 1663SOL     OW 6827  13.743   9.279  12.199
 1663SOL    HW1 6828  13.654   9.279  12.165
 1663SOL    HW2 6829  13.733   9.278  12.294
 1664SOL     OW 6830   7.939  14.190   9.021
 1664SOL    HW1 6831   7.863  14.246   9.035
 1664SOL    HW2 6832   7.903  14.101   9.026
 1665SOL     OW 6833  14.652   8.730   3.246
 1665SOL    HW1 6834  14.607   8.661   3.198
 1665SOL    HW2 6835  14.735   8.742   3.200
 1666SOL     OW 6836   9.275  13.975   7.534
 1666SOL    HW1 6837   9.365  14.004   7.550
 1666SOL    HW2 6838   9.240  13.958   7.622
 1667SOL     OW 6839  10.811  13.928   6.675
 1667SOL    HW1 6840  10.849  13.931   6.762
 1667SOL    HW2 6841  10.740  13.992   6.677
 1668SOL     OW 6842   8.953   9.309   7.875
 1668SOL    HW1 6843   8.889   9.269   7.934
 1668SOL    HW2 6844   8.972   9.394   7.914
 1669SOL     OW 6845   0.872  12.684   1.337
 1669SOL    HW1 6846   0.828  12.737   1.271
 1669SOL    HW2 6847   0.948  12.735   1.362
 1670SOL     OW 6848  13.915  12.718  12.572
 1670SOL    HW1 6849  13.863  12.690  12.497
 1670SOL    HW2 6850  13.927  12.638  12.624
 1671SOL     OW 6851   4.345   6.355  12.085
 1671SOL    HW1 6852   4.271   6.380  12.030
 1671SOL    HW2 6853   4.408   6.316  12.024
 1672SOL     OW 6854  10.821   0.983   1.367
 1672SOL    HW1 6855  10.859   0.976   1.280
 1672SOL    HW2 6856  10.745   0.924   1.366
 1673SOL     OW 6857   2.849  13.167   3.783
 1673SOL    HW1 6858   2.942  13.173   3.802
 1673SOL    HW2 6859   2.838  13.080   3.744
 1674SOL     OW 6860  13.520  14.413  12.121
 1674SOL    HW1 6861  13.558  14.326  12.133
 1674SOL    HW2 6862  13.428  14.397  12.105
 1675SOL     OW 6863   4.635   8.204  10.832
 1675SOL    HW1 6864   4.554   8.158  10.812
 1675SOL    HW2 6865   4.623   8.291  10.792
 1676SOL     OW 6866   9.442   2.198  12.973
 1676SOL    HW1 6867   9.391   2.236  13.044
 1676SOL    HW2 6868   9.377   2.167  12.910
 1677SOL     OW 6869   8.374  14.802  11.748
 1677SOL    HW1 6870   8.469  14.807  11.755
 1677SOL    HW2 6871   8.346  14.760  11.829
 1678SOL     OW 6872   4.933  13.283  13.893
 1678SOL    HW1 6873   4.918  13.290  13.799
 1678SOL    HW2 6874   5.029  13.283  13.902
 1679SOL     OW 6875  11.058   9.850   4.666
 1679SOL    HW1 6876  10.980   9.801   4.693
 1679SOL    HW2 6877  11.046   9.863   4.572
 1680SOL     OW 6878   1.431  12.776   1.324
 1680SOL    HW1 6879   1.486  12.756   1.400
 1680SOL    HW2 6880   1.465  12.720   1.254
 1681SOL     OW 6881  14.790   3.850  12.583
 1681SOL    HW1 6882  14.699   3.822  12.595
 1681SOL    HW2 6883  14.837   3.813  12.658
 1682SOL     OW 6884  14.497  12.530   6.137
 1682SOL    HW1 6885  14.565  12.489   6.191
 1682SOL    HW2 6886  14.416  12.515   6.185
 1683SOL     OW 6887   1.389   7.886   1.365
 1683SOL    HW1 6888   1.461   7.842   1.410
 1683SOL    HW2 6889   1.429   7.963   1.325
 1684SOL     OW 6890  14.507   8.694  14.752
 1684SOL    HW1 6891  14.561   8.773  14.752
 1684SOL    HW2 6892  14.561   8.628  14.709
 1685SOL     OW 6893  14.767  12.599   5.654
 1685SOL    HW1 6894  14.822  12.576   5.729
 1685SOL    HW2 6895  14.737  12.515   5.620
 1686SOL     OW 6896  13.914  12.748  10.144
 1686SOL    HW1 6897  13.958  12.701  10.074
 1686SOL    HW2 6898  13.821  12.736  10.127
 1687SOL     OW 6899   4.940   8.421  10.895
 1687SOL    HW1 6900   5.031   8.450  10.885
 1687SOL    HW2 6901   4.927   8.356  10.827
 1688SOL     OW 6902  10.293   4.571   5.175
 1688SOL    HW1 6903  10.371   4.626   5.186
 1688SOL    HW2 6904  10.224   4.632   5.151
 1689SOL     OW 6905   0.738   2.541   8.961
 1689SOL    HW1 6906   0.668   2.476   8.955
 1689SOL    HW2 6907   0.786   2.517   9.041
 1690SOL     OW 6908   3.160   5.784   9.229
 1690SOL    HW1 6909   3.103   5.754   9.301
 1690SOL    HW2 6910   3.194   5.703   9.191
 1691SOL     OW 6911   0.812   0.396   9.652
 1691SOL    HW1 6912   0.743   0.459   9.631
 1691SOL    HW2 6913   0.865   0.440   9.719
 1692SOL     OW 6914   9.274   2.961  14.804
 1692SOL    HW1 6915   9.343   2.988  14.742
 1692SOL    HW2 6916   9.322   2.938   0.011
 1693SOL     OW 6917   7.372   2.527   0.452
 1693SOL    HW1 6918   7.397   2.582   0.526
 1693SOL    HW2 6919   7.376   2.585   0.377
 1694SOL     OW 6920   2.151   6.993  10.228
 1694SOL    HW1 6921   2.104   6.987  10.144
 1694SOL    HW2 6922   2.088   6.963  10.293
 1695SOL     OW 6923   9.440   3.151   7.553
 1695SOL    HW1 6924   9.414   3.204   7.629
 1695SOL    HW2 6925   9.376   3.174   7.486
 1696SOL     OW 6926   3.382   2.725   7.673
 1696SOL    HW1 6927   3.418   2.703   7.587
 1696SOL    HW2 6928   3.354   2.816   7.665
 1697SOL     OW 6929  13.362  10.661   1.368
 1697SOL    HW1 6930  13.308  10.639   1.444
 1697SOL    HW2 6931  13.299  10.678   1.298
 1698SOL     OW 6932  11.558  14.801   7.157
 1698SOL    HW1 6933  11.480  14.809   7.102
 1698SOL    HW2 6934  11.526  14.765   7.240
 1699SOL     OW 6935   5.574   4.110  10.924
 1699SOL    HW1 6936   5.603   4.188  10.877
 1699SOL    HW2 6937   5.652   4.078  10.968
 1700SOL     OW 6938   5.610  10.723   3.444
 1700SOL    HW1 6939   5.597  10.815   3.466
 1700SOL    HW2 6940   5.521  10.687   3.436
 1701SOL     OW 6941   4.422  12.532   0.489
 1701SOL    HW1 6942   4.397  12.479   0.565
 1701SOL    HW2 6943   4.356  12.602   0.487
 1702SOL     OW 6944  12.562   6.603  13.894
 1702SOL    HW1 6945  12.592   6.694  13.898
 1702SOL    HW2 6946  12.584   6.567  13.979
 1703SOL     OW 6947   5.588   7.378  13.073
 1703SOL    HW1 6948   5.563   7.402  12.984
 1703SOL    HW2 6949   5.521   7.418  13.129
 1704SOL     OW 6950   3.289  11.693   8.674
 1704SOL    HW1 6951   3.308  11.755   8.744
 1704SOL    HW2 6952   3.251  11.617   8.718
 1705SOL     OW 6953   0.667  13.894   6.962
 1705SOL    HW1 6954   0.619  13.868   6.884
 1705SOL    HW2 6955   0.692  13.985   6.946
 1706SOL     OW 6956   8.259   0.051   9.146
 1706SOL    HW1 6957   8.204   0.026   9.071
 1706SOL    HW2 6958   8.296   0.136   9.121
 1707SOL     OW 6959   5.960   3.206  13.614
 1707SOL    HW1 6960   5.950   3.112  13.603
 1707SOL    HW2 6961   5.982   3.238  13.527
 1708SOL     OW 6962  13.766   9.753   8.031
 1708SOL    HW1 6963  13.696   9.749   8.096
 1708SOL    HW2 6964  13.809   9.837   8.046
 1709SOL     OW 6965  14.739   1.488  13.073
 1709SOL    HW1 6966  14.799   1.431  13.025
 1709SOL    HW2 6967  14.676   1.428  13.114
 1710SOL     OW 6968  12.421   0.891   8.438
 1710SOL    HW1 6969  12.458   0.864   8.354
 1710SOL    HW2 6970  12.410   0.809   8.486
 1711SOL     OW 6971  12.778   6.187   0.138
 1711SOL    HW1 6972  12.802   6.119   0.200
 1711SOL    HW2 6973  12.764   6.140   0.056
 1712SOL     OW 6974   0.838   5.527   4.938
 1712SOL    HW1 6975   0.778   5.602   4.939
 1712SOL    HW2 6976   0.903   5.549   4.872
 1713SOL     OW 6977  10.016  13.406  10.308
 1713SOL    HW1 6978  10.076  13.403  10.382
 1713SOL    HW2 6979   9.960  13.481  10.325
 1714SOL     OW 6980   5.606  11.790   8.139
 1714SOL    HW1 6981   5.581  11.703   8.108
 1714SOL    HW2 6982   5.525  11.826   8.176
 1715SOL     OW 6983  14.857   1.257   7.040
 1715SOL    HW1 6984   0.003   1.338   6.992
 1715SOL    HW2 6985  14.813   1.202   6.975
 1716SOL     OW 6986   2.440  13.376   4.878
 1716SOL    HW1 6987   2.370  13.336   4.930
 1716SOL    HW2 6988   2.514  13.316   4.888
 1717SOL     OW 6989   2.450   9.729   5.269
 1717SOL    HW1 6990   2.372   9.685   5.232
 1717SOL    HW2 6991   2.497   9.659   5.315
 1718SOL     OW 6992  12.178   6.799  13.438
 1718SOL    HW1 6993  12.206   6.710  13.414
 1718SOL    HW2 6994  12.132   6.787  13.521
 1719SOL     OW 6995   3.144   6.794   4.776
 1719SOL    HW1 6996   3.225   6.797   4.827
 1719SOL    HW2 6997   3.084   6.743   4.831
 1720SOL     OW 6998  12.610   6.899  13.827
 1720SOL    HW1 6999  12.610   6.992  13.803
 1720SOL    HW2 7000  12.517   6.875  13.827
 1721SOL     OW 7001  12.258   2.835   9.414
 1721SOL    HW1 7002  12.327   2.882   9.367
 1721SOL    HW2 7003  12.275   2.852   9.506
 1722SOL     OW 7004   0.303   3.207   2.230
 1722SOL    HW1 7005   0.376   3.228   2.287
 1722SOL    HW2 7006   0.248   3.148   2.282
 1723SOL     OW 7007   2.114  13.587   1.030
 1723SOL    HW1 7008   2.103  13.666   1.082
 1723SOL    HW2 7009   2.107  13.618   0.939
 1724SOL     OW 7010   9.913  14.687  13.253
 1724SOL    HW1 7011   9.960  14.753  13.304
 1724SOL    HW2 7012   9.952  14.692  13.166
 1725SOL     OW 7013   3.714   5.688  12.361
 1725SOL    HW1 7014   3.655   5.754  12.396
 1725SOL    HW2 7015   3.677   5.666  12.275
 1726SOL     OW 7016   7.439   8.969   4.291
 1726SOL    HW1 7017   7.465   8.879   4.309
 1726SOL    HW2 7018   7.398   8.999   4.372
 1727SOL     OW 7019  12.404   6.467   6.760
 1727SOL    HW1 7020  12.409   6.390   6.703
 1727SOL    HW2 7021  12.343   6.526   6.716
 1728SOL     OW 7022  12.116   0.023  10.873
 1728SOL    HW1 7023  12.142  14.806  10.856
 1728SOL    HW2 7024  12.179   0.076  10.822
 1729SOL     OW 7025   7.630   2.001   1.143
 1729SOL    HW1 7026   7.696   2.052   1.095
 1729SOL    HW2 7027   7.625   1.918   1.095
 1730SOL     OW 7028   4.626   9.925  10.170
 1730SOL    HW1 7029   4.547   9.891  10.128
 1730SOL    HW2 7030   4.596  10.001  10.221
 1731SOL     OW 7031   6.413  14.671   8.440
 1731SOL    HW1 7032   6.484  14.736   8.435
 1731SOL    HW2 7033   6.458  14.587   8.446
 1732SOL     OW 7034   3.219   0.554  12.668
 1732SOL    HW1 7035   3.191   0.550  12.576
 1732SOL    HW2 7036   3.144   0.592  12.714
 1733SOL     OW 7037  11.656   7.318  13.069
 1733SOL    HW1 7038  11.622   7.258  13.003
 1733SOL    HW2 7039  11.579   7.367  13.098
 1734SOL     OW 7040   5.116   3.260   8.604
 1734SOL    HW1 7041   5.203   3.222   8.598
 1734SOL    HW2 7042   5.095   3.259   8.698
 1735SOL     OW 7043   3.153   1.065  12.208
 1735SOL    HW1 7044   3.105   0.987  12.235
 1735SOL    HW2 7045   3.203   1.091  12.285
 1736SOL     OW 7046   5.459  10.563   1.186
 1736SOL    HW1 7047   5.541  10.539   1.140
 1736SOL    HW2 7048   5.485  10.631   1.247
 1737SOL     OW 7049   5.951  12.726   4.082
 1737SOL    HW1 7050   5.858  12.736   4.066
 1737SOL    HW2 7051   5.994  12.778   4.014
 1738SOL     OW 7052   8.364   1.298   0.515
 1738SOL    HW1 7053   8.367   1.210   0.477
 1738SOL    HW2 7054   8.278   1.332   0.489
 1739SOL     OW 7055  14.604   7.321  13.093
 1739SOL    HW1 7056  14.561   7.328  13.178
 1739SOL    HW2 7057  14.597   7.229  13.070
 1740SOL     OW 7058   5.326   9.247  14.862
 1740SOL    HW1 7059   5.251   9.285   0.036
 1740SOL    HW2 7060   5.318   9.153   0.003
 1741SOL     OW 7061   5.231   8.313  14.756
 1741SOL    HW1 7062   5.235   8.298  14.661
 1741SOL    HW2 7063   5.313   8.357  14.777
 1742SOL     OW 7064   2.174  12.630   4.263
 1742SOL    HW1 7065   2.129  12.708   4.233
 1742SOL    HW2 7066   2.199  12.584   4.183
 1743SOL     OW 7067   2.518   0.106   2.050
 1743SOL    HW1 7068   2.610   0.126   2.071
 1743SOL    HW2 7069   2.522   0.068   1.962
 1744SOL     OW 7070   1.284  12.110   0.245
 1744SOL    HW1 7071   1.299  12.066   0.328
 1744SOL    HW2 7072   1.362  12.093   0.193
 1745SOL     OW 7073   8.360  14.016  12.666
 1745SOL    HW1 7074   8.350  13.957  12.591
 1745SOL    HW2 7075   8.333  14.102  12.634
 1746SOL     OW 7076   8.555   6.587   4.751
 1746SOL    HW1 7077   8.555   6.498   4.785
 1746SOL    HW2 7078   8.508   6.638   4.817
 1747SOL     OW 7079   0.292   7.454   5.177
 1747SOL    HW1 7080   0.276   7.399   5.100
 1747SOL    HW2 7081   0.381   7.486   5.166
 1748SOL     OW 7082   8.516  14.682  10.312
 1748SOL    HW1 7083   8.539  14.753  10.371
 1748SOL    HW2 7084   8.575  14.611  10.335
 1749SOL     OW 7085   3.075  11.213   3.205
 1749SOL    HW1 7086   3.019  11.161   3.147
 1749SOL    HW2 7087   3.151  11.157   3.222
 1750SOL     OW 7088   6.884  10.612   8.567
 1750SOL    HW1 7089   6.857  10.605   8.475
 1750SOL    HW2 7090   6.967  10.660   8.564
 1751SOL     OW 7091  12.490   1.341  10.773
 1751SOL    HW1 7092  12.407   1.295  10.789
 1751SOL    HW2 7093  12.557   1.273  10.784
 1752SOL     OW 7094   7.649   1.868   9.240
 1752SOL    HW1 7095   7.625   1.960   9.228
 1752SOL    HW2 7096   7.610   1.823   9.165
 1753SOL     OW 7097   3.120  10.184   9.878
 1753SOL    HW1 7098   3.099  10.277   9.865
 1753SOL    HW2 7099   3.200  10.185   9.931
 1754SOL     OW 7100   8.152   1.822  10.603
 1754SOL    HW1 7101   8.129   1.894  10.544
 1754SOL    HW2 7102   8.212   1.768  10.553
 1755SOL     OW 7103   0.299   4.732   4.972
 1755SOL    HW1 7104   0.327   4.771   4.889
 1755SOL    HW2 7105   0.234   4.667   4.947
 1756SOL     OW 7106  11.633  13.339   9.567
 1756SOL    HW1 7107  11.594  13.377   9.646
 1756SOL    HW2 7108  11.719  13.381   9.561
 1757SOL     OW 7109   7.383   2.788   6.079
 1757SOL    HW1 7110   7.325   2.751   6.013
 1757SOL    HW2 7111   7.381   2.725   6.151
 1758SOL     OW 7112   5.029  11.890   4.217
 1758SOL    HW1 7113   5.034  11.915   4.310
 1758SOL    HW2 7114   4.946  11.844   4.209
 1759SOL     OW 7115  10.428   3.355   4.505
 1759SOL    HW1 7116  10.378   3.293   4.557
 1759SOL    HW2 7117  10.499   3.303   4.467
 1760SOL     OW 7118   8.509   8.474  10.829
 1760SOL    HW1 7119   8.465   8.490  10.912
 1760SOL    HW2 7120   8.523   8.379  10.826
 1761SOL     OW 7121   3.922   5.868   9.808
 1761SOL    HW1 7122   3.890   5.954   9.836
 1761SOL    HW2 7123   4.008   5.884   9.772
 1762SOL     OW 7124   4.737   8.639   1.048
 1762SOL    HW1 7125   4.792   8.573   1.006
 1762SOL    HW2 7126   4.699   8.593   1.123
 1763SOL     OW 7127  11.736   6.863   4.221
 1763SOL    HW1 7128  11.803   6.900   4.279
 1763SOL    HW2 7129  11.772   6.872   4.133
 1764SOL     OW 7130   6.710   0.609   8.061
 1764SOL    HW1 7131   6.718   0.514   8.052
 1764SOL    HW2 7132   6.633   0.632   8.009
 1765SOL     OW 7133   0.146   9.662  14.668
 1765SOL    HW1 7134   0.187   9.601  14.606
 1765SOL    HW2 7135   0.155   9.748  14.627
 1766SOL     OW 7136   5.552   0.133   6.649
 1766SOL    HW1 7137   5.564   0.083   6.730
 1766SOL    HW2 7138   5.630   0.113   6.597
 1767SOL     OW 7139   1.721   1.715   6.327
 1767SOL    HW1 7140   1.793   1.679   6.378
 1767SOL    HW2 7141   1.761   1.784   6.274
 1768SOL     OW 7142  12.518   8.720  12.215
 1768SOL    HW1 7143  12.521   8.743  12.123
 1768SOL    HW2 7144  12.505   8.625  12.216
 1769SOL     OW 7145  13.474   9.018   3.385
 1769SOL    HW1 7146  13.421   9.087   3.344
 1769SOL    HW2 7147  13.530   9.064   3.447
 1770SOL     OW 7148  11.817   0.195   3.133
 1770SOL    HW1 7149  11.726   0.182   3.159
 1770SOL    HW2 7150  11.847   0.108   3.105
 1771SOL     OW 7151  14.660   6.781   0.999
 1771SOL    HW1 7152  14.590   6.723   0.969
 1771SOL    HW2 7153  14.633   6.868   0.971
 1772SOL     OW 7154   9.335  14.227  10.725
 1772SOL    HW1 7155   9.290  14.160  10.673
 1772SOL    HW2 7156   9.302  14.216  10.814
 1773SOL     OW 7157  10.694   0.242   9.497
 1773SOL    HW1 7158  10.699   0.247   9.402
 1773SOL    HW2 7159  10.711   0.150   9.517
 1774SOL     OW 7160   2.242  10.899  13.363
 1774SOL    HW1 7161   2.315  10.900  13.300
 1774SOL    HW2 7162   2.166  10.927  13.312
 1775SOL     OW 7163   8.915   6.814   9.258
 1775SOL    HW1 7164   8.830   6.817   9.216
 1775SOL    HW2 7165   8.907   6.747   9.326
 1776SOL     OW 7166   4.859  10.765  14.478
 1776SOL    HW1 7167   4.793  10.696  14.477
 1776SOL    HW2 7168   4.812  10.843  14.510
 1777SOL     OW 7169   3.827  11.997  14.125
 1777SOL    HW1 7170   3.741  11.959  14.107
 1777SOL    HW2 7171   3.809  12.090  14.138
 1778SOL     OW 7172   3.095   5.066   9.535
 1778SOL    HW1 7173   3.144   5.135   9.581
 1778SOL    HW2 7174   3.155   4.992   9.532
 1779SOL     OW 7175   3.311  13.218   9.976
 1779SOL    HW1 7176   3.216  13.230   9.976
 1779SOL    HW2 7177   3.345  13.301  10.009
 1780SOL     OW 7178  14.314  13.639  14.310
 1780SOL    HW1 7179  14.326  13.557  14.262
 1780SOL    HW2 7180  14.243  13.684  14.264
 1781SOL     OW 7181  12.544  13.464   6.844
 1781SOL    HW1 7182  12.522  13.401   6.913
 1781SOL    HW2 7183  12.612  13.420   6.792
 1782SOL     OW 7184   2.722   0.039  11.841
 1782SOL    HW1 7185   2.691  14.857  11.914
 1782SOL    HW2 7186   2.698   0.128  11.866
 1783SOL     OW 7187   7.218   4.862   7.269
 1783SOL    HW1 7188   7.231   4.914   7.349
 1783SOL    HW2 7189   7.151   4.909   7.220
 1784SOL     OW 7190  10.241   2.536   9.278
 1784SOL    HW1 7191  10.317   2.488   9.311
 1784SOL    HW2 7192  10.195   2.563   9.357
 1785SOL     OW 7193   1.091   7.132   8.676
 1785SOL    HW1 7194   1.130   7.192   8.740
 1785SOL    HW2 7195   1.006   7.108   8.714
 1786SOL     OW 7196   4.518   7.175  14.290
 1786SOL    HW1 7197   4.592   7.225  14.255
 1786SOL    HW2 7198   4.556   7.092  14.317
 1787SOL     OW 7199   6.893   2.561   6.346
 1787SOL    HW1 7200   6.831   2.494   6.374
 1787SOL    HW2 7201   6.978   2.518   6.348
 1788SOL     OW 7202  10.881  11.889  10.155
 1788SOL    HW1 7203  10.958  11.904  10.209
 1788SOL    HW2 7204  10.816  11.951  10.187
 1789SOL     OW 7205   2.938   6.392   6.447
 1789SOL    HW1 7206   2.958   6.419   6.537
 1789SOL    HW2 7207   2.898   6.470   6.407
 1790SOL     OW 7208   7.639   3.668   3.127
 1790SOL    HW1 7209   7.634   3.694   3.035
 1790SOL    HW2 7210   7.575   3.597   3.136
 1791SOL     OW 7211   2.899  13.293   0.962
 1791SOL    HW1 7212   2.960  13.220   0.952
 1791SOL    HW2 7213   2.913  13.323   1.052
 1792SOL     OW 7214  14.512   2.412   0.594
 1792SOL    HW1 7215  14.588   2.470   0.593
 1792SOL    HW2 7216  14.438   2.470   0.610
 1793SOL     OW 7217   8.290   2.849  10.223
 1793SOL    HW1 7218   8.292   2.863  10.318
 1793SOL    HW2 7219   8.208   2.801  10.208
 1794SOL     OW 7220   1.697   7.427  11.854
 1794SOL    HW1 7221   1.681   7.333  11.863
 1794SOL    HW2 7222   1.632   7.457  11.790
 1795SOL     OW 7223  13.202   2.304   9.931
 1795SOL    HW1 7224  13.134   2.317   9.998
 1795SOL    HW2 7225  13.264   2.375   9.946
 1796SOL     OW 7226  12.440   8.362  13.660
 1796SOL    HW1 7227  12.349   8.390  13.661
 1796SOL    HW2 7228  12.479   8.404  13.737
 1797SOL     OW 7229  13.679  14.059   6.661
 1797SOL    HW1 7230  13.751  14.094   6.713
 1797SOL    HW2 7231  13.620  14.020   6.725
 1798SOL     OW 7232  13.415   1.071   7.654
 1798SOL    HW1 7233  13.350   1.002   7.638
 1798SOL    HW2 7234  13.388   1.142   7.595
 1799SOL     OW 7235   6.657   2.874  12.278
 1799SOL    HW1 7236   6.610   2.933  12.218
 1799SOL    HW2 7237   6.589   2.820  12.317
 1800SOL     OW 7238  11.775  12.959   0.694
 1800SOL    HW1 7239  11.790  13.047   0.729
 1800SOL    HW2 7240  11.810  12.963   0.605
 1801SOL     OW 7241   5.770  13.866   2.470
 1801SOL    HW1 7242   5.742  13.820   2.549
 1801SOL    HW2 7243   5.778  13.798   2.403
 1802SOL     OW 7244   6.011   6.124   7.431
 1802SOL    HW1 7245   6.018   6.050   7.371
 1802SOL    HW2 7246   5.917   6.130   7.452
 1803SOL     OW 7247  13.353  12.267   0.825
 1803SOL    HW1 7248  13.293  12.212   0.874
 1803SOL    HW2 7249  13.327  12.255   0.733
 1804SOL     OW 7250  14.715   4.042   3.427
 1804SOL    HW1 7251  14.627   4.073   3.448
 1804SOL    HW2 7252  14.772   4.084   3.490
 1805SOL     OW 7253   2.579   8.817   4.183
 1805SOL    HW1 7254   2.557   8.810   4.090
 1805SOL    HW2 7255   2.636   8.894   4.188
 1806SOL     OW 7256   3.988   8.250  10.797
 1806SOL    HW1 7257   4.062   8.301  10.762
 1806SOL    HW2 7258   3.911   8.292  10.760
 1807SOL     OW 7259  14.243   7.455   8.603
 1807SOL    HW1 7260  14.242   7.360   8.617
 1807SOL    HW2 7261  14.210   7.466   8.513
 1808SOL     OW 7262  14.704   3.323   9.425
 1808SOL    HW1 7263  14.776   3.332   9.362
 1808SOL    HW2 7264  14.715   3.235   9.461
 1809SOL     OW 7265   5.430  14.326   6.021
 1809SOL    HW1 7266   5.478  14.376   5.955
 1809SOL    HW2 7267   5.496  14.302   6.086
 1810SOL     OW 7268   5.473   8.747   4.015
 1810SOL    HW1 7269   5.466   8.670   3.958
 1810SOL    HW2 7270   5.542   8.725   4.077
 1811SOL     OW 7271   4.458   9.389  11.944
 1811SOL    HW1 7272   4.528   9.443  11.907
 1811SOL    HW2 7273   4.406   9.449  11.997
 1812SOL     OW 7274   1.868  10.021   0.194
 1812SOL    HW1 7275   1.863  10.090   0.128
 1812SOL    HW2 7276   1.959   9.994   0.193
 1813SOL     OW 7277  14.601   2.792   4.351
 1813SOL    HW1 7278  14.644   2.866   4.308
 1813SOL    HW2 7279  14.524   2.774   4.297
 1814SOL     OW 7280   1.179   0.261   5.855
 1814SOL    HW1 7281   1.224   0.345   5.857
 1814SOL    HW2 7282   1.161   0.241   5.946
 1815SOL     OW 7283   2.552   8.918   5.018
 1815SOL    HW1 7284   2.630   8.864   5.010
 1815SOL    HW2 7285   2.505   8.883   5.094
 1816SOL     OW 7286   0.893   5.499  11.981
 1816SOL    HW1 7287   0.945   5.579  11.980
 1816SOL    HW2 7288   0.936   5.442  11.917
 1817SOL     OW 7289   4.430   9.963   5.785
 1817SOL    HW1 7290   4.344   9.930   5.759
 1817SOL    HW2 7291   4.412  10.019   5.860
 1818SOL     OW 7292  11.572   1.855  13.843
 1818SOL    HW1 7293  11.586   1.848  13.938
 1818SOL    HW2 7294  11.657   1.881  13.808
 1819SOL     OW 7295   6.449   3.897  13.781
 1819SOL    HW1 7296   6.378   3.879  13.718
 1819SOL    HW2 7297   6.477   3.811  13.811
 1820SOL     OW 7298  11.936  11.328  14.195
 1820SOL    HW1 7299  11.983  11.273  14.131
 1820SOL    HW2 7300  11.958  11.418  14.171
 1821SOL     OW 7301  11.977  13.779   3.297
 1821SOL    HW1 7302  11.960  13.860   3.249
 1821SOL    HW2 7303  11.960  13.709   3.233
 1822SOL     OW 7304   5.437  11.079   2.319
 1822SOL    HW1 7305   5.377  11.152   2.331
 1822SOL    HW2 7306   5.520  11.110   2.356
 1823SOL     OW 7307   4.486  12.025  10.874
 1823SOL    HW1 7308   4.499  12.117  10.850
 1823SOL    HW2 7309   4.391  12.011  10.869
 1824SOL     OW 7310   5.960   7.664   8.107
 1824SOL    HW1 7311   6.018   7.635   8.178
 1824SOL    HW2 7312   5.947   7.757   8.124
 1825SOL     OW 7313   0.111   0.165  11.100
 1825SOL    HW1 7314   0.070   0.137  11.182
 1825SOL    HW2 7315   0.153   0.248  11.121
 1826SOL     OW 7316   2.761   3.672   2.969
 1826SOL    HW1 7317   2.747   3.592   2.918
 1826SOL    HW2 7318   2.832   3.649   3.029
 1827SOL     OW 7319   2.891   0.422   5.917
 1827SOL    HW1 7320   2.971   0.420   5.969
 1827SOL    HW2 7321   2.920   0.444   5.828
 1828SOL     OW 7322  10.396  13.855   9.882
 1828SOL    HW1 7323  10.357  13.912   9.815
 1828SOL    HW2 7324  10.420  13.915   9.953
 1829SOL     OW 7325   6.963   1.562  13.315
 1829SOL    HW1 7326   6.880   1.599  13.344
 1829SOL    HW2 7327   7.027   1.597  13.378
 1830SOL     OW 7328  13.482   6.469  13.580
 1830SOL    HW1 7329  13.445   6.416  13.509
 1830SOL    HW2 7330  13.515   6.548  13.536
 1831SOL     OW 7331   0.798  14.406   8.150
 1831SOL    HW1 7332   0.777  14.313   8.143
 1831SOL    HW2 7333   0.885  14.407   8.191
 1832SOL     OW 7334  12.984  13.235   6.790
 1832SOL    HW1 7335  13.042  13.258   6.717
 1832SOL    HW2 7336  13.035  13.256   6.869
 1833SOL     OW 7337  14.292   1.020   7.635
 1833SOL    HW1 7338  14.348   0.943   7.647
 1833SOL    HW2 7339  14.332   1.068   7.562
 1834SOL     OW 7340   6.999   0.751  13.006
 1834SOL    HW1 7341   7.050   0.771  12.927
 1834SOL    HW2 7342   6.928   0.815  13.006
 1835SOL     OW 7343   4.278   5.980   1.180
 1835SOL    HW1 7344   4.309   6.061   1.140
 1835SOL    HW2 7345   4.313   5.910   1.124
 1836SOL     OW 7346   5.351  10.645   7.697
 1836SOL    HW1 7347   5.276  10.589   7.677
 1836SOL    HW2 7348   5.421  10.613   7.640
 1837SOL     OW 7349   4.110   1.894   8.930
 1837SOL    HW1 7350   4.149   1.807   8.928
 1837SOL    HW2 7351   4.098   1.912   9.023
 1838SOL     OW 7352  13.261   9.838  13.917
 1838SOL    HW1 7353  13.274   9.777  13.845
 1838SOL    HW2 7354  13.167   9.836  13.934
 1839SOL     OW 7355  10.920   4.431   2.431
 1839SOL    HW1 7356  10.928   4.526   2.420
 1839SOL    HW2 7357  11.010   4.400   2.438
 1840SOL     OW 7358   4.689   9.911   4.172
 1840SOL    HW1 7359   4.611   9.860   4.196
 1840SOL    HW2 7360   4.750   9.847   4.136
 1841SOL     OW 7361   6.515   4.414  10.857
 1841SOL    HW1 7362   6.600   4.438  10.820
 1841SOL    HW2 7363   6.534   4.384  10.946
 1842SOL     OW 7364  13.693   3.781   4.855
 1842SOL    HW1 7365  13.746   3.739   4.787
 1842SOL    HW2 7366  13.753   3.843   4.897
 1843SOL     OW 7367   0.926   5.304   9.093
 1843SOL    HW1 7368   0.856   5.275   9.152
 1843SOL    HW2 7369   0.979   5.225   9.079
 1844SOL     OW 7370  13.205  11.324  13.334
 1844SOL    HW1 7371  13.181  11.378  13.258
 1844SOL    HW2 7372  13.156  11.243  13.322
 1845SOL     OW 7373  14.654  10.893   5.200
 1845SOL    HW1 7374  14.676  10.928   5.114
 1845SOL    HW2 7375  14.717  10.822   5.214
 1846SOL     OW 7376  10.794   9.536  13.838
 1846SOL    HW1 7377  10.880   9.494  13.826
 1846SOL    HW2 7378  10.815   9.629  13.850
 1847SOL     OW 7379   9.994   3.131  12.848
 1847SOL    HW1 7380  10.004   3.155  12.756
 1847SOL    HW2 7381   9.904   3.101  12.856
 1848SOL     OW 7382   0.750   5.327   3.691
 1848SOL    HW1 7383   0.809   5.326   3.615
 1848SOL    HW2 7384   0.679   5.266   3.667
 1849SOL     OW 7385  12.297   8.617  14.445
 1849SOL    HW1 7386  12.312   8.691  14.386
 1849SOL    HW2 7387  12.334   8.646  14.529
 1850SOL     OW 7388  12.466  14.711  12.232
 1850SOL    HW1 7389  12.493  14.691  12.321
 1850SOL    HW2 7390  12.388  14.766  12.242
 1851SOL     OW 7391  14.372  13.167  11.249
 1851SOL    HW1 7392  14.324  13.151  11.168
 1851SOL    HW2 7393  14.306  13.199  11.311
 1852SOL     OW 7394   0.400   6.897   9.227
 1852SOL    HW1 7395   0.425   6.805   9.238
 1852SOL    HW2 7396   0.306   6.894   9.207
 1853SOL     OW 7397  12.395   0.740  13.418
 1853SOL    HW1 7398  12.391   0.778  13.331
 1853SOL    HW2 7399  12.397   0.816  13.477
 1854SOL     OW 7400   6.763   3.572   4.229
 1854SOL    HW1 7401   6.732   3.522   4.304
 1854SOL    HW2 7402   6.844   3.528   4.203
 1855SOL     OW 7403  13.837   9.817   0.135
 1855SOL    HW1 7404  13.883   9.870   0.200
 1855SOL    HW2 7405  13.856   9.860   0.051
 1856SOL     OW 7406  14.508  11.788   9.106
 1856SOL    HW1 7407  14.469  11.791   9.193
 1856SOL    HW2 7408  14.549  11.873   9.095
 1857SOL     OW 7409  11.486   4.912   6.326
 1857SOL    HW1 7410  11.416   4.875   6.272
 1857SOL    HW2 7411  11.478   4.867   6.410
 1858SOL     OW 7412   5.616   9.452   4.086
 1858SOL    HW1 7413   5.541   9.392   4.098
 1858SOL    HW2 7414   5.590   9.532   4.131
 1859SOL     OW 7415   8.042   4.999  13.255
 1859SOL    HW1 7416   8.060   5.093  13.267
 1859SOL    HW2 7417   7.969   4.981  13.314
 1860SOL     OW 7418  11.427   5.787  14.164
 1860SOL    HW1 7419  11.466   5.778  14.251
 1860SOL    HW2 7420  11.488   5.743  14.105
 1861SOL     OW 7421   3.754   0.182  14.680
 1861SOL    HW1 7422   3.772   0.090  14.698
 1861SOL    HW2 7423   3.833   0.228  14.708
 1862SOL     OW 7424  13.124   0.683   1.587
 1862SOL    HW1 7425  13.190   0.651   1.526
 1862SOL    HW2 7426  13.122   0.618   1.657
 1863SOL     OW 7427   5.879   7.620   1.012
 1863SOL    HW1 7428   5.794   7.648   1.046
 1863SOL    HW2 7429   5.861   7.595   0.921
 1864SOL     OW 7430   4.424  13.297   5.708
 1864SOL    HW1 7431   4.481  13.329   5.638
 1864SOL    HW2 7432   4.463  13.333   5.788
 1865SOL     OW 7433  13.474   9.922   2.237
 1865SOL    HW1 7434  13.417   9.944   2.163
 1865SOL    HW2 7435  13.517  10.004   2.260
 1866SOL     OW 7436   0.223   7.087   7.787
 1866SOL    HW1 7437   0.228   7.130   7.873
 1866SOL    HW2 7438   0.270   7.146   7.729
 1867SOL     OW 7439   9.770   3.947  13.369
 1867SOL    HW1 7440   9.797   4.011  13.303
 1867SOL    HW2 7441   9.698   3.899  13.327
 1868SOL     OW 7442   2.888   0.275   5.334
 1868SOL    HW1 7443   2.889   0.249   5.426
 1868SOL    HW2 7444   2.814   0.335   5.326
 1869SOL     OW 7445   0.459   4.667   4.057
 1869SOL    HW1 7446   0.418   4.732   4.000
 1869SOL    HW2 7447   0.540   4.644   4.012
 1870SOL     OW 7448  11.356   6.107   4.511
 1870SOL    HW1 7449  11.430   6.046   4.508
 1870SOL    HW2 7450  11.331   6.109   4.603
 1871SOL     OW 7451   4.100  13.837   1.104
 1871SOL    HW1 7452   4.062  13.763   1.152
 1871SOL    HW2 7453   4.184  13.805   1.072
 1872SOL     OW 7454   5.418   9.827  10.618
 1872SOL    HW1 7455   5.427   9.922  10.611
 1872SOL    HW2 7456   5.507   9.794  10.606
 1873SOL     OW 7457   9.101   6.222   8.510
 1873SOL    HW1 7458   9.144   6.253   8.590
 1873SOL    HW2 7459   9.052   6.297   8.478
 1874SOL     OW 7460  10.217  10.097   4.270
 1874SOL    HW1 7461  10.176  10.094   4.357
 1874SOL    HW2 7462  10.309  10.117   4.289
 1875SOL     OW 7463  12.143   0.506  11.066
 1875SOL    HW1 7464  12.119   0.561  10.991
 1875SOL    HW2 7465  12.122   0.417  11.038
 1876SOL     OW 7466  13.683   4.566   5.284
 1876SOL    HW1 7467  13.652   4.631   5.221
 1876SOL    HW2 7468  13.708   4.491   5.231
 1877SOL     OW 7469   6.519  11.133   2.695
 1877SOL    HW1 7470   6.457  11.097   2.631
 1877SOL    HW2 7471   6.596  11.076   2.688
 1878SOL     OW 7472   9.173  14.512  14.179
 1878SOL    HW1 7473   9.227  14.529  14.256
 1878SOL    HW2 7474   9.208  14.431  14.142
 1879SOL     OW 7475   9.690   0.139  10.593
 1879SOL    HW1 7476   9.598   0.165  10.587
 1879SOL    HW2 7477   9.691   0.049  10.561
 1880SOL     OW 7478  13.119   4.538   8.180
 1880SOL    HW1 7479  13.164   4.622   8.182
 1880SOL    HW2 7480  13.026   4.560   8.174
 1881SOL     OW 7481   9.531  11.954   0.227
 1881SOL    HW1 7482   9.605  12.010   0.250
 1881SOL    HW2 7483   9.570  11.867   0.214
 1882SOL     OW 7484   0.371  10.332  11.586
 1882SOL    HW1 7485   0.283  10.333  11.548
 1882SOL    HW2 7486   0.396  10.240  11.586
 1883SOL     OW 7487  12.658   2.628  12.402
 1883SOL    HW1 7488  12.647   2.588  12.316
 1883SOL    HW2 7489  12.725   2.575  12.445
 1884SOL     OW 7490   3.778   8.256  13.754
 1884SOL    HW1 7491   3.865   8.217  13.741
 1884SOL    HW2 7492   3.735   8.198  13.817
 1885SOL     OW 7493   1.725   2.793  10.198
 1885SOL    HW1 7494   1.695   2.761  10.113
 1885SOL    HW2 7495   1.720   2.888  10.190
 1886SOL     OW 7496   8.159   6.189  11.779
 1886SOL    HW1 7497   8.202   6.141  11.708
 1886SOL    HW2 7498   8.147   6.277  11.744
 1887SOL     OW 7499   1.232  12.957  14.807
 1887SOL    HW1 7500   1.189  12.881  14.846
 1887SOL    HW2 7501   1.166  12.996  14.750
 1888SOL     OW 7502   1.768  12.314   1.977
 1888SOL    HW1 7503   1.781  12.335   2.070
 1888SOL    HW2 7504   1.758  12.399   1.934
 1889SOL     OW 7505   2.697  13.816   8.646
 1889SOL    HW1 7506   2.651  13.851   8.569
 1889SOL    HW2 7507   2.790  13.821   8.623
 1890SOL     OW 7508  12.861   5.366   4.680
 1890SOL    HW1 7509  12.840   5.404   4.595
 1890SOL    HW2 7510  12.846   5.272   4.669
 1891SOL     OW 7511  14.122   5.154   5.902
 1891SOL    HW1 7512  14.057   5.211   5.861
 1891SOL    HW2 7513  14.177   5.212   5.954
 1892SOL     OW 7514  12.819   7.644   5.125
 1892SOL    HW1 7515  12.785   7.555   5.125
 1892SOL    HW2 7516  12.800   7.678   5.212
 1893SOL     OW 7517  12.862   5.794   2.317
 1893SOL    HW1 7518  12.774   5.767   2.291
 1893SOL    HW2 7519  12.855   5.814   2.410
 1894SOL     OW 7520   6.925   1.499   2.250
 1894SOL    HW1 7521   6.944   1.430   2.313
 1894SOL    HW2 7522   7.010   1.522   2.213
 1895SOL     OW 7523   4.181   5.035   9.277
 1895SOL    HW1 7524   4.270   5.071   9.280
 1895SOL    HW2 7525   4.136   5.091   9.213
 1896SOL     OW 7526  10.318   1.930   6.941
 1896SOL    HW1 7527  10.352   1.891   7.021
 1896SOL    HW2 7528  10.313   2.024   6.961
 1897SOL     OW 7529   2.016  11.447  13.672
 1897SOL    HW1 7530   2.048  11.380  13.732
 1897SOL    HW2 7531   2.089  11.463  13.612
 1898SOL     OW 7532  10.302   7.116   1.509
 1898SOL    HW1 7533  10.246   7.099   1.434
 1898SOL    HW2 7534  10.338   7.030   1.532
 1899SOL     OW 7535  10.833   8.740   8.965
 1899SOL    HW1 7536  10.743   8.727   8.994
 1899SOL    HW2 7537  10.840   8.692   8.883
 1900SOL     OW 7538   5.504  14.164   8.159
 1900SOL    HW1 7539   5.552  14.209   8.090
 1900SOL    HW2 7540   5.477  14.234   8.220
 1901SOL     OW 7541   6.358   2.272  11.392
 1901SOL    HW1 7542   6.322   2.314  11.314
 1901SOL    HW2 7543   6.443   2.314  11.404
 1902SOL     OW 7544  13.537   9.388   8.945
 1902SOL    HW1 7545  13.603   9.386   9.015
 1902SOL    HW2 7546  13.478   9.316   8.966
 1903SOL     OW 7547   0.959   4.348   7.616
 1903SOL    HW1 7548   1.038   4.342   7.563
 1903SOL    HW2 7549   0.900   4.282   7.579
 1904SOL     OW 7550   8.254   9.840   5.892
 1904SOL    HW1 7551   8.183   9.865   5.833
 1904SOL    HW2 7552   8.231   9.752   5.922
 1905SOL     OW 7553  13.845  12.718   3.914
 1905SOL    HW1 7554  13.910  12.773   3.958
 1905SOL    HW2 7555  13.883  12.701   3.827
 1906SOL     OW 7556   5.172  13.391   1.630
 1906SOL    HW1 7557   5.180  13.347   1.546
 1906SOL    HW2 7558   5.260  13.421   1.651
 1907SOL     OW 7559  12.651   0.933   7.814
 1907SOL    HW1 7560  12.568   0.905   7.774
 1907SOL    HW2 7561  12.704   0.853   7.817
 1908SOL     OW 7562  10.455   7.724   2.688
 1908SOL    HW1 7563  10.361   7.708   2.680
 1908SOL    HW2 7564  10.491   7.641   2.719
 1909SOL     OW 7565   9.535   3.535  11.381
 1909SOL    HW1 7566   9.443   3.544  11.355
 1909SOL    HW2 7567   9.541   3.447  11.418
 1910SOL     OW 7568  14.085   6.023   2.973
 1910SOL    HW1 7569  14.159   6.025   2.913
 1910SOL    HW2 7570  14.008   6.017   2.915
 1911SOL     OW 7571  14.704   1.370   3.546
 1911SOL    HW1 7572  14.649   1.448   3.553
 1911SOL    HW2 7573  14.681   1.318   3.623
 1912SOL     OW 7574   8.319  12.839   9.779
 1912SOL    HW1 7575   8.237  12.791   9.779
 1912SOL    HW2 7576   8.313  12.898   9.703
 1913SOL     OW 7577   9.757   6.813  12.713
 1913SOL    HW1 7578   9.766   6.760  12.634
 1913SOL    HW2 7579   9.680   6.776  12.758
 1914SOL     OW 7580   2.127   0.381  10.181
 1914SOL    HW1 7581   2.079   0.412  10.105
 1914SOL    HW2 7582   2.061   0.335  10.234
 1915SOL     OW 7583   8.352   4.101   0.790
 1915SOL    HW1 7584   8.343   4.081   0.883
 1915SOL    HW2 7585   8.446   4.095   0.772
 1916SOL     OW 7586  10.482  13.039  13.295
 1916SOL    HW1 7587  10.404  12.989  13.321
 1916SOL    HW2 7588  10.548  12.973  13.276
 1917SOL     OW 7589  10.731   8.398   4.419
 1917SOL    HW1 7590  10.656   8.457   4.407
 1917SOL    HW2 7591  10.802   8.456   4.450
 1918SOL     OW 7592   6.829  13.768   8.392
 1918SOL    HW1 7593   6.882  13.766   8.313
 1918SOL    HW2 7594   6.790  13.855   8.393
 1919SOL     OW 7595   4.564   9.231   8.440
 1919SOL    HW1 7596   4.509   9.205   8.513
 1919SOL    HW2 7597   4.586   9.149   8.395
 1920SOL     OW 7598   0.912   9.580   5.377
 1920SOL    HW1 7599   0.990   9.584   5.321
 1920SOL    HW2 7600   0.946   9.554   5.463
 1921SOL     OW 7601   1.734   6.415  13.901
 1921SOL    HW1 7602   1.781   6.339  13.935
 1921SOL    HW2 7603   1.802   6.475  13.872
 1922SOL     OW 7604   5.672  12.988   5.771
 1922SOL    HW1 7605   5.699  13.018   5.858
 1922SOL    HW2 7606   5.747  13.005   5.715
 1923SOL     OW 7607   2.522  14.205   0.022
 1923SOL    HW1 7608   2.494  14.123   0.063
 1923SOL    HW2 7609   2.496  14.273   0.084
 1924SOL     OW 7610   5.397   0.357  14.134
 1924SOL    HW1 7611   5.395   0.375  14.228
 1924SOL    HW2 7612   5.417   0.263  14.128
 1925SOL     OW 7613  13.933  13.405  13.400
 1925SOL    HW1 7614  13.943  13.394  13.305
 1925SOL    HW2 7615  14.010  13.455  13.426
 1926SOL     OW 7616   4.303  14.662  12.413
 1926SOL    HW1 7617   4.370  14.721  12.449
 1926SOL    HW2 7618   4.252  14.634  12.489
 1927SOL     OW 7619   3.332   6.003   0.456
 1927SOL    HW1 7620   3.344   5.913   0.486
 1927SOL    HW2 7621   3.401   6.016   0.390
 1928SOL     OW 7622   9.663   5.440  12.158
 1928SOL    HW1 7623   9.699   5.463  12.072
 1928SOL    HW2 7624   9.699   5.506  12.218
 1929SOL     OW 7625  13.070   2.020  11.448
 1929SOL    HW1 7626  13.005   2.025  11.519
 1929SOL    HW2 7627  13.113   1.936  11.461
 1930SOL     OW 7628   5.665  13.061   4.481
 1930SOL    HW1 7629   5.611  13.067   4.402
 1930SOL    HW2 7630   5.730  12.994   4.460
 1931SOL     OW 7631   1.476  14.493   7.387
 1931SOL    HW1 7632   1.565  14.525   7.403
 1931SOL    HW2 7633   1.427  14.519   7.465
 1932SOL     OW 7634   3.706   3.583   3.067
 1932SOL    HW1 7635   3.633   3.645   3.060
 1932SOL    HW2 7636   3.753   3.611   3.146
 1933SOL     OW 7637   0.305   7.747  13.104
 1933SOL    HW1 7638   0.291   7.750  13.010
 1933SOL    HW2 7639   0.326   7.837  13.128
 1934SOL     OW 7640   3.282   4.924   3.274
 1934SOL    HW1 7641   3.220   4.980   3.320
 1934SOL    HW2 7642   3.287   4.844   3.328
 1935SOL     OW 7643   3.067   3.018   1.125
 1935SOL    HW1 7644   3.024   2.933   1.138
 1935SOL    HW2 7645   3.126   3.026   1.200
 1936SOL     OW 7646   6.553  13.131  12.413
 1936SOL    HW1 7647   6.627  13.128  12.353
 1936SOL    HW2 7648   6.502  13.052  12.393
 1937SOL     OW 7649  14.418   7.045   2.582
 1937SOL    HW1 7650  14.345   7.101   2.556
 1937SOL    HW2 7651  14.496   7.099   2.566
 1938SOL     OW 7652   5.951   7.920   8.929
 1938SOL    HW1 7653   6.020   7.890   8.870
 1938SOL    HW2 7654   5.889   7.965   8.872
 1939SOL     OW 7655   6.809   8.719   0.066
 1939SOL    HW1 7656   6.762   8.645   0.104
 1939SOL    HW2 7657   6.792   8.792   0.124
 1940SOL     OW 7658  12.863   3.878   2.200
 1940SOL    HW1 7659  12.860   3.820   2.124
 1940SOL    HW2 7660  12.894   3.822   2.271
 1941SOL     OW 7661   1.021   4.607   7.032
 1941SOL    HW1 7662   0.962   4.670   6.992
 1941SOL    HW2 7663   0.988   4.596   7.121
 1942SOL     OW 7664  10.043   4.388  12.993
 1942SOL    HW1 7665   9.990   4.413  12.917
 1942SOL    HW2 7666  10.116   4.450  12.992
 1943SOL     OW 7667   1.729   1.779   2.371
 1943SOL    HW1 7668   1.688   1.838   2.307
 1943SOL    HW2 7669   1.796   1.833   2.414
 1944SOL     OW 7670  12.987  14.423   8.097
 1944SOL    HW1 7671  13.041  14.499   8.077
 1944SOL    HW2 7672  12.897  14.452   8.080
 1945SOL     OW 7673   8.301   1.677  11.997
 1945SOL    HW1 7674   8.248   1.714  12.068
 1945SOL    HW2 7675   8.314   1.750  11.937
 1946SOL     OW 7676   2.998   8.030   3.492
 1946SOL    HW1 7677   2.992   7.936   3.509
 1946SOL    HW2 7678   3.089   8.044   3.467
 1947SOL     OW 7679  11.397  11.819  13.025
 1947SOL    HW1 7680  11.329  11.801  13.089
 1947SOL    HW2 7681  11.366  11.777  12.944
 1948SOL     OW 7682   8.659   7.894   4.981
 1948SOL    HW1 7683   8.715   7.894   5.058
 1948SOL    HW2 7684   8.718   7.915   4.908
 1949SOL     OW 7685   9.328  12.185   1.312
 1949SOL    HW1 7686   9.244  12.208   1.352
 1949SOL    HW2 7687   9.307  12.166   1.221
 1950SOL     OW 7688  13.491   0.898   2.528
 1950SOL    HW1 7689  13.508   0.805   2.538
 1950SOL    HW2 7690  13.571   0.933   2.489
 1951SOL     OW 7691  14.781  10.224  12.672
 1951SOL    HW1 7692  14.755  10.312  12.645
 1951SOL    HW2 7693  14.748  10.167  12.603
 1952SOL     OW 7694   4.530  11.598   1.023
 1952SOL    HW1 7695   4.503  11.524   1.078
 1952SOL    HW2 7696   4.626  11.593   1.023
 1953SOL     OW 7697  10.024   6.598   8.333
 1953SOL    HW1 7698  10.065   6.574   8.417
 1953SOL    HW2 7699  10.052   6.688   8.318
 1954SOL     OW 7700   8.361   6.420   9.864
 1954SOL    HW1 7701   8.327   6.503   9.831
 1954SOL    HW2 7702   8.425   6.444   9.931
 1955SOL     OW 7703   9.606   3.097   6.496
 1955SOL    HW1 7704   9.679   3.046   6.531
 1955SOL    HW2 7705   9.643   3.184   6.483
 1956SOL     OW 7706   9.617   8.282   5.661
 1956SOL    HW1 7707   9.599   8.284   5.567
 1956SOL    HW2 7708   9.700   8.329   5.671
 1957SOL     OW 7709   0.343  12.640   6.756
 1957SOL    HW1 7710   0.291  12.634   6.836
 1957SOL    HW2 7711   0.379  12.552   6.744
 1958SOL     OW 7712   6.602   0.515   2.402
 1958SOL    HW1 7713   6.698   0.516   2.398
 1958SOL    HW2 7714   6.580   0.597   2.446
 1959SOL     OW 7715   2.037   4.398   1.073
 1959SOL    HW1 7716   2.072   4.347   1.147
 1959SOL    HW2 7717   2.082   4.482   1.079
 1960SOL     OW 7718  10.936   0.703   2.687
 1960SOL    HW1 7719  11.015   0.721   2.635
 1960SOL    HW2 7720  10.868   0.756   2.646
 1961SOL     OW 7721   1.366   3.245   0.064
 1961SOL    HW1 7722   1.382   3.275  14.848
 1961SOL    HW2 7723   1.400   3.156   0.067
 1962SOL     OW 7724   2.125   1.648   6.842
 1962SOL    HW1 7725   2.071   1.724   6.863
 1962SOL    HW2 7726   2.103   1.627   6.751
 1963SOL     OW 7727   1.116  12.590   5.735
 1963SOL    HW1 7728   1.086  12.538   5.810
 1963SOL    HW2 7729   1.044  12.586   5.672
 1964SOL     OW 7730   5.640   3.562   2.109
 1964SOL    HW1 7731   5.686   3.557   2.025
 1964SOL    HW2 7732   5.703   3.604   2.168
 1965SOL     OW 7733   7.346  12.086   2.211
 1965SOL    HW1 7734   7.386  12.018   2.156
 1965SOL    HW2 7735   7.416  12.150   2.225
 1966SOL     OW 7736   0.532   9.259   8.719
 1966SOL    HW1 7737   0.622   9.280   8.697
 1966SOL    HW2 7738   0.535   9.238   8.813
 1967SOL     OW 7739   0.288  13.794   6.879
 1967SOL    HW1 7740   0.351  13.724   6.864
 1967SOL    HW2 7741   0.204  13.757   6.850
 1968SOL     OW 7742   0.395  14.203   8.794
 1968SOL    HW1 7743   0.437  14.287   8.776
 1968SOL    HW2 7744   0.423  14.181   8.883
 1969SOL     OW 7745  14.806   4.170  12.905
 1969SOL    HW1 7746  14.716   4.139  12.893
 1969SOL    HW2 7747  14.831   4.137  12.992
 1970SOL     OW 7748  11.367   8.511   2.794
 1970SOL    HW1 7749  11.414   8.511   2.878
 1970SOL    HW2 7750  11.374   8.601   2.763
 1971SOL     OW 7751   0.996   1.795   0.062
 1971SOL    HW1 7752   1.032   1.725   0.007
 1971SOL    HW2 7753   0.903   1.776   0.068
 1972SOL     OW 7754   7.711   1.278   9.155
 1972SOL    HW1 7755   7.766   1.349   9.187
 1972SOL    HW2 7756   7.745   1.199   9.197
 1973SOL     OW 7757   0.745  12.676  12.122
 1973SOL    HW1 7758   0.695  12.616  12.177
 1973SOL    HW2 7759   0.823  12.696  12.173
 1974SOL     OW 7760   0.091   8.069  13.785
 1974SOL    HW1 7761   0.152   8.022  13.728
 1974SOL    HW2 7762   0.058   8.002  13.845
 1975SOL     OW 7763  11.258   7.088  13.986
 1975SOL    HW1 7764  11.201   7.049  14.053
 1975SOL    HW2 7765  11.246   7.182  13.997
 1976SOL     OW 7766  14.825   6.665   2.327
 1976SOL    HW1 7767  14.868   6.710   2.400
 1976SOL    HW2 7768  14.738   6.705   2.323
 1977SOL     OW 7769   0.630  13.444   1.062
 1977SOL    HW1 7770   0.571  13.400   1.123
 1977SOL    HW2 7771   0.674  13.373   1.016
 1978SOL     OW 7772   5.797   6.712   0.209
 1978SOL    HW1 7773   5.885   6.724   0.244
 1978SOL    HW2 7774   5.740   6.719   0.286
 1979SOL     OW 7775  12.966   4.883  12.663
 1979SOL    HW1 7776  12.942   4.791  12.664
 1979SOL    HW2 7777  12.899   4.925  12.608
 1980SOL     OW 7778   2.422   7.862   0.526
 1980SOL    HW1 7779   2.419   7.919   0.449
 1980SOL    HW2 7780   2.363   7.790   0.505
 1981SOL     OW 7781   9.836   5.501   6.280
 1981SOL    HW1 7782   9.924   5.493   6.316
 1981SOL    HW2 7783   9.779   5.460   6.344
 1982SOL     OW 7784   4.666   9.712   3.204
 1982SOL    HW1 7785   4.641   9.708   3.296
 1982SOL    HW2 7786   4.702   9.800   3.193
 1983SOL     OW 7787   1.988  11.019  13.195
 1983SOL    HW1 7788   2.010  10.971  13.115
 1983SOL    HW2 7789   1.953  10.953  13.254
 1984SOL     OW 7790   0.594  11.696   5.356
 1984SOL    HW1 7791   0.575  11.631   5.422
 1984SOL    HW2 7792   0.689  11.699   5.351
 1985SOL     OW 7793  10.205  14.390  11.858
 1985SOL    HW1 7794  10.193  14.446  11.935
 1985SOL    HW2 7795  10.188  14.301  11.891
 1986SOL     OW 7796   2.171   8.944  10.264
 1986SOL    HW1 7797   2.125   8.881  10.320
 1986SOL    HW2 7798   2.101   8.995  10.223
 1987SOL     OW 7799   4.655  11.459   6.009
 1987SOL    HW1 7800   4.634  11.472   6.102
 1987SOL    HW2 7801   4.749  11.472   6.004
 1988SOL     OW 7802   3.535  12.348   7.121
 1988SOL    HW1 7803   3.553  12.327   7.213
 1988SOL    HW2 7804   3.463  12.289   7.097
 1989SOL     OW 7805  12.669  10.527   5.215
 1989SOL    HW1 7806  12.577  10.502   5.208
 1989SOL    HW2 7807  12.716  10.444   5.221
 1990SOL     OW 7808   7.900   4.232   7.249
 1990SOL    HW1 7809   7.835   4.278   7.195
 1990SOL    HW2 7810   7.900   4.279   7.332
 1991SOL     OW 7811   7.319  11.832   6.369
 1991SOL    HW1 7812   7.359  11.773   6.305
 1991SOL    HW2 7813   7.393  11.874   6.412
 1992SOL     OW 7814   3.488   6.955  14.774
 1992SOL    HW1 7815   3.563   6.968  14.715
 1992SOL    HW2 7816   3.526   6.915  14.852
 1993SOL     OW 7817   7.296   1.062  11.349
 1993SOL    HW1 7818   7.332   0.974  11.346
 1993SOL    HW2 7819   7.205   1.051  11.376
 1994SOL     OW 7820   4.856   0.717   1.992
 1994SOL    HW1 7821   4.825   0.807   1.997
 1994SOL    HW2 7822   4.916   0.716   1.917
 1995SOL     OW 7823   6.979   5.947   9.004
 1995SOL    HW1 7824   6.906   5.901   8.962
 1995SOL    HW2 7825   6.940   5.988   9.081
 1996SOL     OW 7826  10.460  10.452  14.648
 1996SOL    HW1 7827  10.551  10.439  14.623
 1996SOL    HW2 7828  10.410  10.436  14.568
 1997SOL     OW 7829   9.028   1.386  13.135
 1997SOL    HW1 7830   9.110   1.429  13.161
 1997SOL    HW2 7831   9.043   1.355  13.046
 1998SOL     OW 7832   2.666  11.820   2.171
 1998SOL    HW1 7833   2.716  11.844   2.093
 1998SOL    HW2 7834   2.582  11.865   2.160
 1999SOL     OW 7835   4.293   4.340   7.144
 1999SOL    HW1 7836   4.337   4.262   7.110
 1999SOL    HW2 7837   4.325   4.348   7.234
 2000SOL     OW 7838   0.569   6.966   2.815
 2000SOL    HW1 7839   0.642   7.019   2.785
 2000SOL    HW2 7840   0.544   6.913   2.740
 2001SOL     OW 7841   5.694   5.492  10.047
 2001SOL    HW1 7842   5.600   5.504  10.060
 2001SOL    HW2 7843   5.704   5.399  10.028
 2002SOL     OW 7844   9.276   8.967   0.833
 2002SOL    HW1 7845   9.331   9.024   0.887
 2002SOL    HW2 7846   9.191   8.968   0.877
 2003SOL     OW 7847   5.425  13.295   1.250
 2003SOL    HW1 7848   5.486  13.370   1.250
 2003SOL    HW2 7849   5.481  13.218   1.243
 2004SOL     OW 7850  10.480   5.150   4.698
 2004SOL    HW1 7851  10.421   5.145   4.623
 2004SOL    HW2 7852  10.564   5.118   4.665
 2005SOL     OW 7853  10.827   3.128   1.365
 2005SOL    HW1 7854  10.792   3.111   1.453
 2005SOL    HW2 7855  10.921   3.111   1.373
 2006SOL     OW 7856   4.724  12.833   3.061
 2006SOL    HW1 7857   4.647  12.778   3.043
 2006SOL    HW2 7858   4.798  12.783   3.027
 2007SOL     OW 7859  13.008   8.464   3.757
 2007SOL    HW1 7860  13.024   8.444   3.665
 2007SOL    HW2 7861  13.078   8.418   3.804
 2008SOL     OW 7862   4.056  14.270   8.291
 2008SOL    HW1 7863   3.992  14.339   8.274
 2008SOL    HW2 7864   4.003  14.194   8.314
 2009SOL     OW 7865  14.867   8.189   1.239
 2009SOL    HW1 7866  14.813   8.110   1.233
 2009SOL    HW2 7867   0.019   8.208   1.148
 2010SOL     OW 7868  10.002  13.138  12.438
 2010SOL    HW1 7869  10.055  13.059  12.426
 2010SOL    HW2 7870   9.999  13.151  12.532
 2011SOL     OW 7871   3.971   2.649  14.599
 2011SOL    HW1 7872   4.041   2.662  14.663
 2011SOL    HW2 7873   4.005   2.685  14.517
 2012SOL     OW 7874  12.732   9.488   3.187
 2012SOL    HW1 7875  12.683   9.487   3.106
 2012SOL    HW2 7876  12.675   9.445   3.251
 2013SOL     OW 7877   2.641   6.756   5.106
 2013SOL    HW1 7878   2.683   6.729   5.188
 2013SOL    HW2 7879   2.623   6.849   5.118
 2014SOL     OW 7880  11.596  13.968   3.510
 2014SOL    HW1 7881  11.612  14.025   3.435
 2014SOL    HW2 7882  11.603  13.879   3.476
 2015SOL     OW 7883   2.787   5.337   1.631
 2015SOL    HW1 7884   2.713   5.311   1.687
 2015SOL    HW2 7885   2.849   5.378   1.691
 2016SOL     OW 7886   4.882   0.692   7.458
 2016SOL    HW1 7887   4.952   0.726   7.401
 2016SOL    HW2 7888   4.811   0.672   7.397
 2017SOL     OW 7889   5.136   7.318  11.562
 2017SOL    HW1 7890   5.077   7.370  11.616
 2017SOL    HW2 7891   5.142   7.234  11.606
 2018SOL     OW 7892   3.735   4.690  10.961
 2018SOL    HW1 7893   3.803   4.757  10.969
 2018SOL    HW2 7894   3.783   4.611  10.934
 2019SOL     OW 7895   7.660   9.127   1.261
 2019SOL    HW1 7896   7.609   9.058   1.303
 2019SOL    HW2 7897   7.613   9.208   1.282
 2020SOL     OW 7898   4.648   1.957   5.324
 2020SOL    HW1 7899   4.722   1.996   5.279
 2020SOL    HW2 7900   4.579   2.022   5.319
 2021SOL     OW 7901   3.870   2.891   5.374
 2021SOL    HW1 7902   3.796   2.837   5.348
 2021SOL    HW2 7903   3.860   2.972   5.324
 2022SOL     OW 7904   0.706   6.821  14.376
 2022SOL    HW1 7905   0.643   6.873  14.325
 2022SOL    HW2 7906   0.659   6.740  14.396
 2023SOL     OW 7907  12.819  14.164  11.801
 2023SOL    HW1 7908  12.903  14.169  11.756
 2023SOL    HW2 7909  12.774  14.091  11.759
 2024SOL     OW 7910   1.544   4.242   4.395
 2024SOL    HW1 7911   1.561   4.151   4.373
 2024SOL    HW2 7912   1.559   4.290   4.313
 2025SOL     OW 7913   3.446   7.494  11.808
 2025SOL    HW1 7914   3.533   7.521  11.779
 2025SOL    HW2 7915   3.450   7.398  11.811
 2026SOL     OW 7916   8.656  13.280   7.161
 2026SOL    HW1 7917   8.607  13.221   7.104
 2026SOL    HW2 7918   8.589  13.337   7.199
 2027SOL     OW 7919  10.222   9.590   7.533
 2027SOL    HW1 7920  10.214   9.550   7.619
 2027SOL    HW2 7921  10.301   9.551   7.495
 2028SOL     OW 7922   4.660   0.475  11.616
 2028SOL    HW1 7923   4.673   0.565  11.646
 2028SOL    HW2 7924   4.743   0.453  11.573
 2029SOL     OW 7925   3.705  10.335  10.623
 2029SOL    HW1 7926   3.698  10.328  10.528
 2029SOL    HW2 7927   3.625  10.294  10.656
 2030SOL     OW 7928  11.753   1.949  10.036
 2030SOL    HW1 7929  11.763   1.960   9.942
 2030SOL    HW2 7930  11.842   1.932  10.068
 2031SOL     OW 7931   1.753   8.302   9.199
 2031SOL    HW1 7932   1.692   8.295   9.273
 2031SOL    HW2 7933   1.737   8.224   9.147
 2032SOL     OW 7934   8.790   4.549   3.527
 2032SOL    HW1 7935   8.854   4.520   3.462
 2032SOL    HW2 7936   8.813   4.641   3.544
 2033SOL     OW 7937   2.720   8.068   9.107
 2033SOL    HW1 7938   2.638   8.091   9.063
 2033SOL    HW2 7939   2.781   8.136   9.081
 2034SOL     OW 7940   4.534  12.807  12.576
 2034SOL    HW1 7941   4.604  12.746  12.555
 2034SOL    HW2 7942   4.488  12.821  12.492
 2035SOL     OW 7943   7.444  14.846   5.778
 2035SOL    HW1 7944   7.480   0.030   5.846
 2035SOL    HW2 7945   7.509  14.777   5.767
 2036SOL     OW 7946   4.914   5.512   5.641
 2036SOL    HW1 7947   4.823   5.517   5.614
 2036SOL    HW2 7948   4.913   5.539   5.733
 2037SOL     OW 7949  11.998   7.656  13.133
 2037SOL    HW1 7950  12.044   7.586  13.179
 2037SOL    HW2 7951  11.919   7.615  13.099
 2038SOL     OW 7952   5.205   4.744  13.884
 2038SOL    HW1 7953   5.115   4.712  13.874
 2038SOL    HW2 7954   5.195   4.833  13.915
 2039SOL     OW 7955   5.782   0.950  13.769
 2039SOL    HW1 7956   5.866   0.908  13.749
 2039SOL    HW2 7957   5.746   0.898  13.841
 2040SOL     OW 7958   7.012   5.609   1.791
 2040SOL    HW1 7959   7.059   5.547   1.735
 2040SOL    HW2 7960   7.078   5.673   1.816
 2041SOL     OW 7961   1.651   4.802   0.183
 2041SOL    HW1 7962   1.560   4.776   0.191
 2041SOL    HW2 7963   1.679   4.820   0.273
 2042SOL     OW 7964  11.824  14.446   2.145
 2042SOL    HW1 7965  11.783  14.401   2.219
 2042SOL    HW2 7966  11.899  14.391   2.121
 2043SOL     OW 7967   4.329   2.324  13.102
 2043SOL    HW1 7968   4.337   2.246  13.157
 2043SOL    HW2 7969   4.374   2.302  13.021
 2044SOL     OW 7970   7.908   6.941   2.775
 2044SOL    HW1 7971   7.991   6.987   2.765
 2044SOL    HW2 7972   7.859   6.993   2.839
 2045SOL     OW 7973  11.658   0.269  10.365
 2045SOL    HW1 7974  11.622   0.244  10.280
 2045SOL    HW2 7975  11.582   0.303  10.413
 2046SOL     OW 7976  14.452   4.384   0.695
 2046SOL    HW1 7977  14.458   4.383   0.791
 2046SOL    HW2 7978  14.538   4.354   0.666
 2047SOL     OW 7979   1.195   3.639  13.226
 2047SOL    HW1 7980   1.291   3.638  13.227
 2047SOL    HW2 7981   1.172   3.692  13.150
 2048SOL     OW 7982   5.502   6.927   8.866
 2048SOL    HW1 7983   5.493   6.897   8.956
 2048SOL    HW2 7984   5.487   7.022   8.870
 2049SOL     OW 7985  14.606   0.509   4.670
 2049SOL    HW1 7986  14.595   0.414   4.659
 2049SOL    HW2 7987  14.549   0.532   4.743
 2050SOL     OW 7988   7.224   7.004  12.351
 2050SOL    HW1 7989   7.239   7.099  12.355
 2050SOL    HW2 7990   7.218   6.977  12.443
 2051SOL     OW 7991   1.935   9.591   5.985
 2051SOL    HW1 7992   1.875   9.658   6.018
 2051SOL    HW2 7993   1.976   9.632   5.908
 2052SOL     OW 7994   6.413  10.691   3.095
 2052SOL    HW1 7995   6.432  10.600   3.117
 2052SOL    HW2 7996   6.406  10.736   3.179
 2053SOL     OW 7997   3.358  12.443  12.597
 2053SOL    HW1 7998   3.450  12.432  12.571
 2053SOL    HW2 7999   3.332  12.356  12.629
 2054SOL     OW 8000   0.424  11.999   4.399
 2054SOL    HW1 8001   0.477  11.990   4.320
 2054SOL    HW2 8002   0.334  11.994   4.368
 2055SOL     OW 8003   5.068  11.674   0.205
 2055SOL    HW1 8004   5.064  11.605   0.138
 2055SOL    HW2 8005   5.055  11.755   0.156
 2056SOL     OW 8006  10.680  14.689  11.450
 2056SOL    HW1 8007  10.663  14.765  11.394
 2056SOL    HW2 8008  10.693  14.726  11.537
 2057SOL     OW 8009   1.678  12.655   7.857
 2057SOL    HW1 8010   1.684  12.745   7.888
 2057SOL    HW2 8011   1.714  12.602   7.929
 2058SOL     OW 8012   6.332   4.857   5.846
 2058SOL    HW1 8013   6.268   4.881   5.913
 2058SOL    HW2 8014   6.280   4.827   5.772
 2059SOL     OW 8015  12.892  13.146  13.096
 2059SOL    HW1 8016  12.919  13.221  13.043
 2059SOL    HW2 8017  12.895  13.072  13.036
 2060SOL     OW 8018   4.863   0.441  14.504
 2060SOL    HW1 8019   4.929   0.508  14.519
 2060SOL    HW2 8020   4.780   0.484  14.527
 2061SOL     OW 8021  10.077   5.542   0.598
 2061SOL    HW1 8022   9.989   5.513   0.573
 2061SOL    HW2 8023  10.130   5.526   0.520
 2062SOL     OW 8024   4.547   5.470  14.361
 2062SOL    HW1 8025   4.546   5.389  14.310
 2062SOL    HW2 8026   4.641   5.487  14.375
 2063SOL     OW 8027   9.379  10.680  11.507
 2063SOL    HW1 8028   9.356  10.764  11.467
 2063SOL    HW2 8029   9.385  10.698  11.601
 2064SOL     OW 8030   8.945   7.397  10.714
 2064SOL    HW1 8031   9.024   7.439  10.748
 2064SOL    HW2 8032   8.884   7.396  10.788
 2065SOL     OW 8033   1.244   6.243  11.641
 2065SOL    HW1 8034   1.298   6.265  11.716
 2065SOL    HW2 8035   1.238   6.147  11.642
 2066SOL     OW 8036   7.348  10.873   7.382
 2066SOL    HW1 8037   7.361  10.781   7.405
 2066SOL    HW2 8038   7.256  10.879   7.358
 2067SOL     OW 8039  10.822   2.240   5.359
 2067SOL    HW1 8040  10.754   2.200   5.412
 2067SOL    HW2 8041  10.885   2.275   5.422
 2068SOL     OW 8042  11.578   2.146   1.609
 2068SOL    HW1 8043  11.533   2.086   1.551
 2068SOL    HW2 8044  11.667   2.152   1.574
 2069SOL     OW 8045   2.322   0.602  11.783
 2069SOL    HW1 8046   2.415   0.601  11.805
 2069SOL    HW2 8047   2.288   0.681  11.826
 2070SOL     OW 8048  14.260  12.332   1.824
 2070SOL    HW1 8049  14.270  12.262   1.759
 2070SOL    HW2 8050  14.349  12.356   1.847
 2071SOL     OW 8051  10.479  11.829   9.812
 2071SOL    HW1 8052  10.504  11.744   9.775
 2071SOL    HW2 8053  10.400  11.809   9.863
 2072SOL     OW 8054   6.341   6.739   1.502
 2072SOL    HW1 8055   6.276   6.685   1.548
 2072SOL    HW2 8056   6.310   6.743   1.412
 2073SOL     OW 8057   0.199  14.734   4.028
 2073SOL    HW1 8058   0.155  14.669   3.974
 2073SOL    HW2 8059   0.189  14.701   4.117
 2074SOL     OW 8060  10.975   7.798  14.316
 2074SOL    HW1 8061  10.908   7.863  14.339
 2074SOL    HW2 8062  10.933   7.714  14.333
 2075SOL     OW 8063   2.794   3.636  10.041
 2075SOL    HW1 8064   2.728   3.638   9.972
 2075SOL    HW2 8065   2.861   3.697  10.012
 2076SOL     OW 8066  10.702   1.422  13.362
 2076SOL    HW1 8067  10.659   1.503  13.335
 2076SOL    HW2 8068  10.737   1.441  13.449
 2077SOL     OW 8069  13.816   2.601   9.263
 2077SOL    HW1 8070  13.830   2.640   9.177
 2077SOL    HW2 8071  13.898   2.615   9.310
 2078SOL     OW 8072  13.388  12.498  13.084
 2078SOL    HW1 8073  13.354  12.588  13.088
 2078SOL    HW2 8074  13.483  12.507  13.092
 2079SOL     OW 8075   6.817   4.706  13.212
 2079SOL    HW1 8076   6.793   4.791  13.249
 2079SOL    HW2 8077   6.870   4.727  13.135
 2080SOL     OW 8078  11.909  11.380  14.677
 2080SOL    HW1 8079  11.931  11.390  14.770
 2080SOL    HW2 8080  11.975  11.433  14.632
 2081SOL     OW 8081  12.935   3.055  12.590
 2081SOL    HW1 8082  12.863   3.027  12.647
 2081SOL    HW2 8083  12.911   3.023  12.503
 2082SOL     OW 8084   5.837   2.794  11.560
 2082SOL    HW1 8085   5.928   2.773  11.582
 2082SOL    HW2 8086   5.798   2.710  11.537
 2083SOL     OW 8087   3.345   6.795   4.994
 2083SOL    HW1 8088   3.286   6.745   5.052
 2083SOL    HW2 8089   3.429   6.751   5.003
 2084SOL     OW 8090   9.675   2.515   0.027
 2084SOL    HW1 8091   9.694   2.497  14.808
 2084SOL    HW2 8092   9.755   2.489   0.073
 2085SOL     OW 8093   7.559   6.357   1.958
 2085SOL    HW1 8094   7.494   6.300   2.000
 2085SOL    HW2 8095   7.594   6.410   2.030
 2086SOL     OW 8096   9.626   8.902   2.389
 2086SOL    HW1 8097   9.609   8.912   2.482
 2086SOL    HW2 8098   9.692   8.968   2.369
 2087SOL     OW 8099  12.178   3.285   6.190
 2087SOL    HW1 8100  12.119   3.316   6.122
 2087SOL    HW2 8101  12.131   3.213   6.232
 2088SOL     OW 8102  13.149  14.598   1.342
 2088SOL    HW1 8103  13.134  14.626   1.432
 2088SOL    HW2 8104  13.195  14.514   1.350
 2089SOL     OW 8105   3.761   6.661   7.362
 2089SOL    HW1 8106   3.734   6.745   7.398
 2089SOL    HW2 8107   3.857   6.667   7.357
 2090SOL     OW 8108  13.339   5.180   4.201
 2090SOL    HW1 8109  13.251   5.217   4.202
 2090SOL    HW2 8110  13.395   5.251   4.169
 2091SOL     OW 8111   0.535  13.707   9.296
 2091SOL    HW1 8112   0.594  13.776   9.266
 2091SOL    HW2 8113   0.593  13.632   9.311
 2092SOL     OW 8114   8.404   6.129   8.642
 2092SOL    HW1 8115   8.461   6.176   8.704
 2092SOL    HW2 8116   8.462   6.064   8.601
 2093SOL     OW 8117   9.376  13.265  13.371
 2093SOL    HW1 8118   9.452  13.246  13.426
 2093SOL    HW2 8119   9.359  13.358  13.385
 2094SOL     OW 8120   5.047   9.183  10.659
 2094SOL    HW1 8121   5.098   9.143  10.588
 2094SOL    HW2 8122   5.091   9.155  10.739
 2095SOL     OW 8123   5.373   9.210  12.651
 2095SOL    HW1 8124   5.467   9.205  12.635
 2095SOL    HW2 8125   5.363   9.182  12.742
 2096SOL     OW 8126   5.933   9.713   8.281
 2096SOL    HW1 8127   5.881   9.648   8.233
 2096SOL    HW2 8128   5.922   9.794   8.232
 2097SOL     OW 8129   6.938   6.259  11.695
 2097SOL    HW1 8130   6.888   6.267  11.614
 2097SOL    HW2 8131   6.930   6.345  11.738
 2098SOL     OW 8132  14.536   2.449   4.229
 2098SOL    HW1 8133  14.497   2.387   4.292
 2098SOL    HW2 8134  14.493   2.532   4.249
 2099SOL     OW 8135   2.018   7.690   3.233
 2099SOL    HW1 8136   2.002   7.721   3.322
 2099SOL    HW2 8137   2.061   7.605   3.243
 2100SOL     OW 8138   8.949   4.296   4.040
 2100SOL    HW1 8139   8.944   4.278   4.134
 2100SOL    HW2 8140   8.910   4.219   3.999
 2101SOL     OW 8141   6.503   6.398   7.327
 2101SOL    HW1 8142   6.411   6.420   7.319
 2101SOL    HW2 8143   6.541   6.420   7.241
 2102SOL     OW 8144   0.443  11.625   1.784
 2102SOL    HW1 8145   0.527  11.580   1.787
 2102SOL    HW2 8146   0.396  11.595   1.862
 2103SOL     OW 8147  11.534  11.933   7.319
 2103SOL    HW1 8148  11.533  12.004   7.383
 2103SOL    HW2 8149  11.521  11.854   7.371
 2104SOL     OW 8150   7.260   2.882   9.221
 2104SOL    HW1 8151   7.302   2.968   9.218
 2104SOL    HW2 8152   7.169   2.900   9.244
 2105SOL     OW 8153   2.987  12.064   6.303
 2105SOL    HW1 8154   2.962  12.139   6.358
 2105SOL    HW2 8155   3.067  12.031   6.344
 2106SOL     OW 8156  10.957   7.410   8.550
 2106SOL    HW1 8157  10.887   7.427   8.487
 2106SOL    HW2 8158  10.961   7.489   8.604
 2107SOL     OW 8159   5.962  13.137   5.946
 2107SOL    HW1 8160   5.969  13.231   5.961
 2107SOL    HW2 8161   5.927  13.102   6.028
 2108SOL     OW 8162   1.745   6.872   3.484
 2108SOL    HW1 8163   1.771   6.957   3.447
 2108SOL    HW2 8164   1.712   6.892   3.571
 2109SOL     OW 8165  12.356  10.382   4.376
 2109SOL    HW1 8166  12.277  10.400   4.428
 2109SOL    HW2 8167  12.424  10.365   4.441
 2110SOL     OW 8168  13.789   6.663  13.783
 2110SOL    HW1 8169  13.882   6.651  13.804
 2110SOL    HW2 8170  13.768   6.589  13.725
 2111SOL     OW 8171  11.460   7.013   3.504
 2111SOL    HW1 8172  11.408   6.971   3.572
 2111SOL    HW2 8173  11.551   6.993   3.528
 2112SOL     OW 8174   0.020   1.456   8.597
 2112SOL    HW1 8175  14.836   1.528   8.624
 2112SOL    HW2 8176  14.837   1.400   8.543
 2113SOL     OW 8177  12.157  10.791   6.904
 2113SOL    HW1 8178  12.195  10.826   6.985
 2113SOL    HW2 8179  12.191  10.701   6.898
 2114SOL     OW 8180   1.865   7.380  13.751
 2114SOL    HW1 8181   1.798   7.448  13.761
 2114SOL    HW2 8182   1.903   7.397  13.665
 2115SOL     OW 8183   8.368   3.415   2.589
 2115SOL    HW1 8184   8.344   3.507   2.602
 2115SOL    HW2 8185   8.285   3.368   2.587
 2116SOL     OW 8186  13.481  11.429  10.950
 2116SOL    HW1 8187  13.520  11.445  11.036
 2116SOL    HW2 8188  13.387  11.436  10.964
 2117SOL     OW 8189   9.690   3.137   2.166
 2117SOL    HW1 8190   9.739   3.199   2.111
 2117SOL    HW2 8191   9.754   3.106   2.230
 2118SOL     OW 8192  10.013  14.058  11.571
 2118SOL    HW1 8193   9.998  13.994  11.501
 2118SOL    HW2 8194  10.044  14.136  11.526
 2119SOL     OW 8195   8.515   7.488   6.289
 2119SOL    HW1 8196   8.436   7.543   6.283
 2119SOL    HW2 8197   8.526   7.473   6.383
 2120SOL     OW 8198   7.933   0.690   8.460
 2120SOL    HW1 8199   7.844   0.715   8.435
 2120SOL    HW2 8200   7.986   0.766   8.437
 2121SOL     OW 8201   3.551   5.228   9.455
 2121SOL    HW1 8202   3.621   5.229   9.520
 2121SOL    HW2 8203   3.555   5.141   9.416
 2122SOL     OW 8204   8.552   0.697  14.083
 2122SOL    HW1 8205   8.484   0.630  14.089
 2122SOL    HW2 8206   8.548   0.742  14.167
 2123SOL     OW 8207  10.670   7.971  10.936
 2123SOL    HW1 8208  10.591   7.917  10.932
 2123SOL    HW2 8209  10.642   8.051  10.981
 2124SOL     OW 8210  14.643   0.421   9.990
 2124SOL    HW1 8211  14.715   0.437  10.052
 2124SOL    HW2 8212  14.687   0.400   9.908
 2125SOL     OW 8213  11.742  12.022   1.642
 2125SOL    HW1 8214  11.735  11.931   1.613
 2125SOL    HW2 8215  11.818  12.023   1.701
 2126SOL     OW 8216  10.487   1.940   7.720
 2126SOL    HW1 8217  10.470   1.897   7.804
 2126SOL    HW2 8218  10.478   2.034   7.738
 2127SOL     OW 8219   4.396   5.570  12.159
 2127SOL    HW1 8220   4.478   5.609  12.129
 2127SOL    HW2 8221   4.365   5.520  12.084
 2128SOL     OW 8222   0.492  11.577   0.567
 2128SOL    HW1 8223   0.564  11.522   0.535
 2128SOL    HW2 8224   0.413  11.538   0.530
 2129SOL     OW 8225   7.476  11.593   9.126
 2129SOL    HW1 8226   7.403  11.530   9.121
 2129SOL    HW2 8227   7.439  11.669   9.171
 2130SOL     OW 8228  14.103   5.005  13.990
 2130SOL    HW1 8229  14.146   4.926  13.956
 2130SOL    HW2 8230  14.104   4.994  14.085
 2131SOL     OW 8231   7.038   2.755   9.858
 2131SOL    HW1 8232   7.052   2.663   9.836
 2131SOL    HW2 8233   6.972   2.785   9.795
 2132SOL     OW 8234  12.005   6.925   5.239
 2132SOL    HW1 8235  12.077   6.936   5.177
 2132SOL    HW2 8236  11.941   6.991   5.213
 2133SOL     OW 8237   3.106   5.278  10.188
 2133SOL    HW1 8238   3.175   5.295  10.124
 2133SOL    HW2 8239   3.074   5.190  10.166
 2134SOL     OW 8240   6.541   3.227  13.064
 2134SOL    HW1 8241   6.591   3.210  13.144
 2134SOL    HW2 8242   6.575   3.164  13.001
 2135SOL     OW 8243   8.233   4.401   8.033
 2135SOL    HW1 8244   8.183   4.481   8.051
 2135SOL    HW2 8245   8.298   4.427   7.968
 2136SOL     OW 8246   6.174   0.156   8.123
 2136SOL    HW1 8247   6.113   0.092   8.157
 2136SOL    HW2 8248   6.134   0.186   8.041
 2137SOL     OW 8249   1.399  14.722  13.108
 2137SOL    HW1 8250   1.448  14.803  13.122
 2137SOL    HW2 8251   1.307  14.749  13.114
 2138SOL     OW 8252   4.785   0.538   1.680
 2138SOL    HW1 8253   4.850   0.493   1.734
 2138SOL    HW2 8254   4.703   0.494   1.701
 2139SOL     OW 8255  11.197  13.596   9.566
 2139SOL    HW1 8256  11.160  13.561   9.647
 2139SOL    HW2 8257  11.181  13.690   9.570
 2140SOL     OW 8258  10.150   9.978   1.044
 2140SOL    HW1 8259  10.150   9.951   1.136
 2140SOL    HW2 8260  10.082   9.924   1.003
 2141SOL     OW 8261  13.271   1.783   7.649
 2141SOL    HW1 8262  13.254   1.808   7.558
 2141SOL    HW2 8263  13.320   1.701   7.642
 2142SOL     OW 8264  10.499   5.434   7.369
 2142SOL    HW1 8265  10.430   5.373   7.395
 2142SOL    HW2 8266  10.505   5.423   7.274
 2143SOL     OW 8267  12.884  13.386  14.668
 2143SOL    HW1 8268  12.932  13.383  14.751
 2143SOL    HW2 8269  12.946  13.350  14.604
 2144SOL     OW 8270   8.027  11.829   6.908
 2144SOL    HW1 8271   8.097  11.857   6.850
 2144SOL    HW2 8272   8.002  11.908   6.956
 2145SOL     OW 8273  10.871   8.699   0.628
 2145SOL    HW1 8274  10.870   8.623   0.569
 2145SOL    HW2 8275  10.963   8.725   0.632
 2146SOL     OW 8276  12.565   4.387   5.125
 2146SOL    HW1 8277  12.585   4.358   5.214
 2146SOL    HW2 8278  12.579   4.310   5.070
 2147SOL     OW 8279  11.226   7.249   9.844
 2147SOL    HW1 8280  11.166   7.234   9.772
 2147SOL    HW2 8281  11.186   7.318   9.896
 2148SOL     OW 8282   0.671   3.669   1.162
 2148SOL    HW1 8283   0.682   3.761   1.185
 2148SOL    HW2 8284   0.757   3.629   1.180
 2149SOL     OW 8285   7.583   5.683   9.027
 2149SOL    HW1 8286   7.618   5.772   9.019
 2149SOL    HW2 8287   7.661   5.627   9.023
 2150SOL     OW 8288   0.338   8.669  14.232
 2150SOL    HW1 8289   0.271   8.613  14.193
 2150SOL    HW2 8290   0.409   8.670  14.169
 2151SOL     OW 8291   7.732  13.925   9.256
 2151SOL    HW1 8292   7.709  13.835   9.280
 2151SOL    HW2 8293   7.729  13.973   9.338
 2152SOL     OW 8294   6.143   0.646  12.902
 2152SOL    HW1 8295   6.077   0.670  12.837
 2152SOL    HW2 8296   6.194   0.577  12.860
 2153SOL     OW 8297  10.421   7.317   0.104
 2153SOL    HW1 8298  10.473   7.237   0.093
 2153SOL    HW2 8299  10.355   7.312   0.034
 2154SOL     OW 8300   5.060   1.057   2.345
 2154SOL    HW1 8301   5.049   1.086   2.435
 2154SOL    HW2 8302   5.059   0.961   2.350
 2155SOL     OW 8303   0.078   8.400   9.972
 2155SOL    HW1 8304   0.167   8.436   9.971
 2155SOL    HW2 8305   0.025   8.468   9.932
 2156SOL     OW 8306  14.204  14.320  10.118
 2156SOL    HW1 8307  14.140  14.334  10.048
 2156SOL    HW2 8308  14.275  14.380  10.098
 2157SOL     OW 8309   8.575  14.065   4.599
 2157SOL    HW1 8310   8.530  13.991   4.639
 2157SOL    HW2 8311   8.509  14.108   4.545
 2158SOL     OW 8312  11.907  14.165   4.112
 2158SOL    HW1 8313  11.984  14.111   4.097
 2158SOL    HW2 8314  11.941  14.244   4.154
 2159SOL     OW 8315   2.167   0.985   8.845
 2159SOL    HW1 8316   2.130   0.914   8.792
 2159SOL    HW2 8317   2.238   1.021   8.791
 2160SOL     OW 8318   8.859   4.723  13.925
 2160SOL    HW1 8319   8.878   4.686  14.011
 2160SOL    HW2 8320   8.926   4.686  13.867
 2161SOL     OW 8321   2.566   6.491   5.468
 2161SOL    HW1 8322   2.626   6.427   5.507
 2161SOL    HW2 8323   2.531   6.539   5.543
 2162SOL     OW 8324  11.380   2.768   7.258
 2162SOL    HW1 8325  11.335   2.686   7.239
 2162SOL    HW2 8326  11.338   2.832   7.200
 2163SOL     OW 8327   1.386  14.348   6.621
 2163SOL    HW1 8328   1.320  14.415   6.604
 2163SOL    HW2 8329   1.347  14.290   6.686
 2164SOL     OW 8330   4.166   2.421   0.788
 2164SOL    HW1 8331   4.212   2.474   0.854
 2164SOL    HW2 8332   4.204   2.450   0.705
 2165SOL     OW 8333  14.557   3.746   7.807
 2165SOL    HW1 8334  14.521   3.735   7.719
 2165SOL    HW2 8335  14.484   3.724   7.866
 2166SOL     OW 8336   3.971   2.421   9.571
 2166SOL    HW1 8337   4.004   2.389   9.486
 2166SOL    HW2 8338   3.880   2.444   9.554
 2167SOL     OW 8339   0.415   5.109   9.638
 2167SOL    HW1 8340   0.343   5.051   9.663
 2167SOL    HW2 8341   0.483   5.094   9.703
 2168SOL     OW 8342  10.898   0.174   2.749
 2168SOL    HW1 8343  10.963   0.146   2.685
 2168SOL    HW2 8344  10.908   0.113   2.822
 2169SOL     OW 8345  11.831   4.123   4.873
 2169SOL    HW1 8346  11.769   4.077   4.930
 2169SOL    HW2 8347  11.861   4.198   4.925
 2170SOL     OW 8348   0.835  12.125   0.735
 2170SOL    HW1 8349   0.784  12.045   0.728
 2170SOL    HW2 8350   0.921  12.102   0.699
 2171SOL     OW 8351   2.644   9.797  14.314
 2171SOL    HW1 8352   2.609   9.714  14.347
 2171SOL    HW2 8353   2.718   9.816  14.371
 2172SOL     OW 8354  14.084  12.714   7.738
 2172SOL    HW1 8355  14.158  12.659   7.762
 2172SOL    HW2 8356  14.107  12.801   7.771
 2173SOL     OW 8357  11.827   4.220   4.631
 2173SOL    HW1 8358  11.900   4.282   4.627
 2173SOL    HW2 8359  11.830   4.186   4.720
 2174SOL     OW 8360  13.673   2.307   7.656
 2174SOL    HW1 8361  13.743   2.278   7.714
 2174SOL    HW2 8362  13.718   2.349   7.583
 2175SOL     OW 8363   6.158   2.835  14.801
 2175SOL    HW1 8364   6.162   2.817  14.707
 2175SOL    HW2 8365   6.147   2.930  14.807
 2176SOL     OW 8366  10.699  12.220  12.307
 2176SOL    HW1 8367  10.636  12.189  12.242
 2176SOL    HW2 8368  10.680  12.169  12.385
 2177SOL     OW 8369   6.026  11.455   1.318
 2177SOL    HW1 8370   5.958  11.511   1.282
 2177SOL    HW2 8371   6.108  11.496   1.292
 2178SOL     OW 8372   3.275   5.550   6.598
 2178SOL    HW1 8373   3.214   5.489   6.638
 2178SOL    HW2 8374   3.320   5.591   6.671
 2179SOL     OW 8375  10.550   8.108   5.169
 2179SOL    HW1 8376  10.479   8.161   5.133
 2179SOL    HW2 8377  10.575   8.049   5.098
 2180SOL     OW 8378   0.698  11.512  11.832
 2180SOL    HW1 8379   0.758  11.542  11.763
 2180SOL    HW2 8380   0.618  11.489  11.785
 2181SOL     OW 8381  10.889   4.882   4.556
 2181SOL    HW1 8382  10.957   4.879   4.624
 2181SOL    HW2 8383  10.936   4.865   4.474
 2182SOL     OW 8384  10.270  11.630   2.746
 2182SOL    HW1 8385  10.334  11.617   2.676
 2182SOL    HW2 8386  10.284  11.557   2.806
 2183SOL     OW 8387   6.353   0.947   0.202
 2183SOL    HW1 8388   6.415   0.923   0.133
 2183SOL    HW2 8389   6.400   1.012   0.255
 2184SOL     OW 8390  10.782  12.699   1.538
 2184SOL    HW1 8391  10.859  12.756   1.544
 2184SOL    HW2 8392  10.764  12.673   1.629
 2185SOL     OW 8393   4.227  11.587  12.076
 2185SOL    HW1 8394   4.236  11.533  12.154
 2185SOL    HW2 8395   4.243  11.527  12.003
 2186SOL     OW 8396   6.298   3.489   6.670
 2186SOL    HW1 8397   6.372   3.447   6.713
 2186SOL    HW2 8398   6.335   3.565   6.625
 2187SOL     OW 8399  11.625   5.040   4.949
 2187SOL    HW1 8400  11.608   5.070   4.860
 2187SOL    HW2 8401  11.552   5.074   5.001
 2188SOL     OW 8402  12.398   8.481   0.478
 2188SOL    HW1 8403  12.461   8.411   0.495
 2188SOL    HW2 8404  12.344   8.449   0.406
 2189SOL     OW 8405   8.053   4.010  11.080
 2189SOL    HW1 8406   7.973   3.960  11.094
 2189SOL    HW2 8407   8.101   4.003  11.163
 2190SOL     OW 8408   2.351   3.348  14.569
 2190SOL    HW1 8409   2.392   3.308  14.645
 2190SOL    HW2 8410   2.280   3.401  14.604
 2191SOL     OW 8411   1.798   2.813  12.826
 2191SOL    HW1 8412   1.814   2.890  12.771
 2191SOL    HW2 8413   1.717   2.775  12.791
 2192SOL     OW 8414  12.570   3.865   1.100
 2192SOL    HW1 8415  12.631   3.818   1.157
 2192SOL    HW2 8416  12.483   3.835   1.128
 2193SOL     OW 8417   3.367  10.238   2.981
 2193SOL    HW1 8418   3.325  10.323   2.966
 2193SOL    HW2 8419   3.460  10.254   2.965
 2194SOL     OW 8420   0.664   7.326  13.792
 2194SOL    HW1 8421   0.670   7.339  13.886
 2194SOL    HW2 8422   0.592   7.383  13.764
 2195SOL     OW 8423   3.481   1.871   5.361
 2195SOL    HW1 8424   3.459   1.962   5.379
 2195SOL    HW2 8425   3.396   1.828   5.348
 2196SOL     OW 8426   2.977   1.601   5.634
 2196SOL    HW1 8427   3.007   1.595   5.543
 2196SOL    HW2 8428   3.052   1.637   5.681
 2197SOL     OW 8429   7.835   5.724   9.314
 2197SOL    HW1 8430   7.837   5.815   9.282
 2197SOL    HW2 8431   7.797   5.675   9.242
 2198SOL     OW 8432   7.596   4.476  13.387
 2198SOL    HW1 8433   7.563   4.560  13.355
 2198SOL    HW2 8434   7.575   4.476  13.480
 2199SOL     OW 8435   2.659  12.807   8.965
 2199SOL    HW1 8436   2.666  12.713   8.985
 2199SOL    HW2 8437   2.726  12.822   8.898
 2200SOL     OW 8438  13.374  13.726   0.797
 2200SOL    HW1 8439  13.356  13.635   0.772
 2200SOL    HW2 8440  13.469  13.729   0.810
 2201SOL     OW 8441   2.904   1.013   2.792
 2201SOL    HW1 8442   2.978   1.024   2.851
 2201SOL    HW2 8443   2.933   0.951   2.726
 2202SOL     OW 8444   5.025   9.317   7.884
 2202SOL    HW1 8445   5.042   9.402   7.844
 2202SOL    HW2 8446   5.112   9.279   7.896
 2203SOL     OW 8447  11.657  13.350   5.646
 2203SOL    HW1 8448  11.717  13.305   5.705
 2203SOL    HW2 8449  11.696  13.436   5.633
 2204SOL     OW 8450   2.154   0.653   7.237
 2204SOL    HW1 8451   2.091   0.690   7.175
 2204SOL    HW2 8452   2.111   0.661   7.322
 2205SOL     OW 8453  13.557  14.121   4.538
 2205SOL    HW1 8454  13.550  14.112   4.443
 2205SOL    HW2 8455  13.477  14.083   4.572
 2206SOL     OW 8456   1.418   9.190   0.032
 2206SOL    HW1 8457   1.455   9.130   0.097
 2206SOL    HW2 8458   1.429   9.277   0.070
 2207SOL     OW 8459  11.269   9.284  11.863
 2207SOL    HW1 8460  11.283   9.366  11.911
 2207SOL    HW2 8461  11.347   9.275  11.809
 2208SOL     OW 8462  10.180  13.134  13.117
 2208SOL    HW1 8463  10.264  13.087  13.113
 2208SOL    HW2 8464  10.116  13.074  13.080
 2209SOL     OW 8465   3.331   0.196   1.958
 2209SOL    HW1 8466   3.342   0.277   1.908
 2209SOL    HW2 8467   3.273   0.143   1.904
 2210SOL     OW 8468   9.920   5.840  11.140
 2210SOL    HW1 8469   9.827   5.846  11.162
 2210SOL    HW2 8470   9.957   5.778  11.203
 2211SOL     OW 8471  12.887   2.543   9.933
 2211SOL    HW1 8472  12.854   2.484   9.866
 2211SOL    HW2 8473  12.818   2.609   9.943
 2212SOL     OW 8474   2.568   6.424   9.725
 2212SOL    HW1 8475   2.628   6.412   9.651
 2212SOL    HW2 8476   2.624   6.444   9.799
 2213SOL     OW 8477  14.445  11.762   3.495
 2213SOL    HW1 8478  14.486  11.808   3.422
 2213SOL    HW2 8479  14.377  11.822   3.526
 2214SOL     OW 8480   8.188   1.299  14.685
 2214SOL    HW1 8481   8.095   1.317  14.694
 2214SOL    HW2 8482   8.214   1.347  14.606
 2215SOL     OW 8483   4.370  10.528   0.351
 2215SOL    HW1 8484   4.411  10.614   0.352
 2215SOL    HW2 8485   4.395  10.488   0.434
 2216SOL     OW 8486   2.902   5.003   4.424
 2216SOL    HW1 8487   2.838   5.046   4.480
 2216SOL    HW2 8488   2.925   4.923   4.470
 2217SOL     OW 8489   8.413   2.458  10.139
 2217SOL    HW1 8490   8.435   2.550  10.124
 2217SOL    HW2 8491   8.495   2.411  10.124
 2218SOL     OW 8492  11.707   8.125  13.909
 2218SOL    HW1 8493  11.630   8.181  13.899
 2218SOL    HW2 8494  11.712   8.076  13.826
 2219SOL     OW 8495   9.456   8.885  13.361
 2219SOL    HW1 8496   9.384   8.840  13.405
 2219SOL    HW2 8497   9.488   8.947  13.425
 2220SOL     OW 8498   6.683   3.879   1.987
 2220SOL    HW1 8499   6.675   3.838   2.073
 2220SOL    HW2 8500   6.605   3.935   1.980
 2221SOL     OW 8501   3.307  10.916   1.948
 2221SOL    HW1 8502   3.321  11.010   1.936
 2221SOL    HW2 8503   3.299  10.881   1.859
 2222SOL     OW 8504   2.508   0.132  13.065
 2222SOL    HW1 8505   2.417   0.112  13.089
 2222SOL    HW2 8506   2.551   0.047  13.062
 2223SOL     OW 8507   7.961   4.132  14.052
 2223SOL    HW1 8508   8.055   4.117  14.065
 2223SOL    HW2 8509   7.950   4.132  13.957
 2224SOL     OW 8510   7.458  13.843   7.162
 2224SOL    HW1 8511   7.456  13.758   7.205
 2224SOL    HW2 8512   7.442  13.823   7.069
 2225SOL     OW 8513   3.283   1.686   7.550
 2225SOL    HW1 8514   3.360   1.679   7.606
 2225SOL    HW2 8515   3.209   1.687   7.611
 2226SOL     OW 8516   8.455  10.082  10.438
 2226SOL    HW1 8517   8.463  10.171  10.402
 2226SOL    HW2 8518   8.494  10.026  10.372
 2227SOL     OW 8519   7.906   7.872   7.501
 2227SOL    HW1 8520   7.908   7.834   7.589
 2227SOL    HW2 8521   7.881   7.963   7.515
 2228SOL     OW 8522   3.413   3.098   1.622
 2228SOL    HW1 8523   3.468   3.046   1.564
 2228SOL    HW2 8524   3.475   3.154   1.670
 2229SOL     OW 8525   0.087   0.661   1.560
 2229SOL    HW1 8526   0.146   0.625   1.494
 2229SOL    HW2 8527   0.013   0.695   1.511
 2230SOL     OW 8528   1.507  14.402   9.903
 2230SOL    HW1 8529   1.463  14.448   9.832
 2230SOL    HW2 8530   1.524  14.469   9.969
 2231SOL     OW 8531  13.112  13.091   7.120
 2231SOL    HW1 8532  13.192  13.133   7.088
 2231SOL    HW2 8533  13.141  13.005   7.151
 2232SOL     OW 8534   9.213   8.237   1.656
 2232SOL    HW1 8535   9.286   8.202   1.605
 2232SOL    HW2 8536   9.145   8.253   1.591
 2233SOL     OW 8537   4.282  12.153   7.800
 2233SOL    HW1 8538   4.284  12.086   7.731
 2233SOL    HW2 8539   4.190  12.175   7.810
 2234SOL     OW 8540   3.264   7.483   0.839
 2234SOL    HW1 8541   3.255   7.568   0.796
 2234SOL    HW2 8542   3.358   7.472   0.852
 2235SOL     OW 8543   7.227   4.603   8.842
 2235SOL    HW1 8544   7.227   4.644   8.929
 2235SOL    HW2 8545   7.286   4.527   8.852
 2236SOL     OW 8546   3.672   7.200   5.702
 2236SOL    HW1 8547   3.624   7.155   5.632
 2236SOL    HW2 8548   3.637   7.162   5.783
 2237SOL     OW 8549   4.684   5.607  13.816
 2237SOL    HW1 8550   4.702   5.578  13.906
 2237SOL    HW2 8551   4.623   5.681  13.827
 2238SOL     OW 8552  13.671   3.871   9.462
 2238SOL    HW1 8553  13.681   3.941   9.526
 2238SOL    HW2 8554  13.667   3.916   9.377
 2239SOL     OW 8555   1.506  13.442   5.684
 2239SOL    HW1 8556   1.542  13.438   5.773
 2239SOL    HW2 8557   1.526  13.531   5.654
 2240SOL     OW 8558   4.092  12.465   6.971
 2240SOL    HW1 8559   4.092  12.526   6.897
 2240SOL    HW2 8560   4.106  12.520   7.048
 2241SOL     OW 8561   3.694  13.715   0.042
 2241SOL    HW1 8562   3.725  13.644   0.099
 2241SOL    HW2 8563   3.617  13.680  14.872
 2242SOL     OW 8564   0.591   6.257   4.197
 2242SOL    HW1 8565   0.625   6.291   4.114
 2242SOL    HW2 8566   0.660   6.198   4.229
 2243SOL     OW 8567  13.988   3.043   2.261
 2243SOL    HW1 8568  13.980   3.128   2.304
 2243SOL    HW2 8569  14.073   3.046   2.217
 2244SOL     OW 8570   0.153   6.264  11.827
 2244SOL    HW1 8571   0.135   6.264  11.921
 2244SOL    HW2 8572   0.099   6.335  11.792
 2245SOL     OW 8573  10.631  11.165   4.055
 2245SOL    HW1 8574  10.571  11.101   4.016
 2245SOL    HW2 8575  10.703  11.112   4.089
 2246SOL     OW 8576   6.154   3.484  11.591
 2246SOL    HW1 8577   6.214   3.535  11.537
 2246SOL    HW2 8578   6.209   3.445  11.658
 2247SOL     OW 8579   0.462   4.381   2.581
 2247SOL    HW1 8580   0.501   4.467   2.569
 2247SOL    HW2 8581   0.414   4.387   2.663
 2248SOL     OW 8582  14.233  13.695   9.313
 2248SOL    HW1 8583  14.290  13.686   9.236
 2248SOL    HW2 8584  14.243  13.786   9.340
 2249SOL     OW 8585  13.652   6.477   6.606
 2249SOL    HW1 8586  13.605   6.495   6.688
 2249SOL    HW2 8587  13.645   6.559   6.556
 2250SOL     OW 8588   4.788   7.461   0.586
 2250SOL    HW1 8589   4.760   7.505   0.666
 2250SOL    HW2 8590   4.835   7.384   0.616
 2251SOL     OW 8591   5.571   2.510  14.813
 2251SOL    HW1 8592   5.606   2.575  14.751
 2251SOL    HW2 8593   5.476   2.520  14.806
 2252SOL     OW 8594   9.077   7.652   9.970
 2252SOL    HW1 8595   9.075   7.707   9.892
 2252SOL    HW2 8596   9.014   7.583   9.952
 2253SOL     OW 8597   9.315  11.711  12.358
 2253SOL    HW1 8598   9.254  11.784  12.372
 2253SOL    HW2 8599   9.299  11.683  12.268
 2254SOL     OW 8600  14.833   0.719  10.721
 2254SOL    HW1 8601  14.742   0.692  10.733
 2254SOL    HW2 8602   0.010   0.658  10.776
 2255SOL     OW 8603   6.949   2.205   7.732
 2255SOL    HW1 8604   6.907   2.283   7.696
 2255SOL    HW2 8605   6.890   2.176   7.803
 2256SOL     OW 8606   2.421   4.681  10.420
 2256SOL    HW1 8607   2.426   4.589  10.446
 2256SOL    HW2 8608   2.412   4.678  10.325
 2257SOL     OW 8609  14.745   4.532   1.850
 2257SOL    HW1 8610  14.826   4.480   1.840
 2257SOL    HW2 8611  14.759   4.608   1.793
 2258SOL     OW 8612   4.823   8.102   0.014
 2258SOL    HW1 8613   4.835   8.110  14.792
 2258SOL    HW2 8614   4.892   8.044   0.043
 2259SOL     OW 8615   4.448   0.871  13.100
 2259SOL    HW1 8616   4.505   0.939  13.136
 2259SOL    HW2 8617   4.377   0.863  13.164
 2260SOL     OW 8618   0.404   1.865   8.062
 2260SOL    HW1 8619   0.457   1.901   7.992
 2260SOL    HW2 8620   0.351   1.939   8.092
 2261SOL     OW 8621   6.179   1.799  13.699
 2261SOL    HW1 8622   6.255   1.770  13.649
 2261SOL    HW2 8623   6.213   1.870  13.754
 2262SOL     OW 8624   8.197   0.996  11.083
 2262SOL    HW1 8625   8.222   0.993  11.176
 2262SOL    HW2 8626   8.102   0.987  11.084
 2263SOL     OW 8627   3.095   2.786  14.465
 2263SOL    HW1 8628   3.156   2.860  14.467
 2263SOL    HW2 8629   3.009   2.827  14.453
 2264SOL     OW 8630  11.091   0.495   0.176
 2264SOL    HW1 8631  11.137   0.415   0.151
 2264SOL    HW2 8632  11.046   0.472   0.258
 2265SOL     OW 8633  14.052   4.820   8.508
 2265SOL    HW1 8634  13.960   4.832   8.530
 2265SOL    HW2 8635  14.097   4.821   8.593
 2266SOL     OW 8636  12.597  10.759   8.930
 2266SOL    HW1 8637  12.617  10.723   9.016
 2266SOL    HW2 8638  12.593  10.683   8.872
 2267SOL     OW 8639   0.547   0.286   9.487
 2267SOL    HW1 8640   0.612   0.219   9.466
 2267SOL    HW2 8641   0.598   0.366   9.498
 2268SOL     OW 8642  10.420   0.541  12.343
 2268SOL    HW1 8643  10.350   0.476  12.354
 2268SOL    HW2 8644  10.446   0.564  12.432
 2269SOL     OW 8645   0.514   4.474  10.134
 2269SOL    HW1 8646   0.467   4.444  10.212
 2269SOL    HW2 8647   0.606   4.472  10.159
 2270SOL     OW 8648  13.903  14.069   6.259
 2270SOL    HW1 8649  13.827  14.016   6.285
 2270SOL    HW2 8650  13.935  14.107   6.341
 2271SOL     OW 8651   2.456   2.337   2.844
 2271SOL    HW1 8652   2.481   2.382   2.763
 2271SOL    HW2 8653   2.363   2.315   2.831
 2272SOL     OW 8654   5.574   4.868   2.759
 2272SOL    HW1 8655   5.628   4.789   2.751
 2272SOL    HW2 8656   5.627   4.937   2.719
 2273SOL     OW 8657  10.619  12.497   5.767
 2273SOL    HW1 8658  10.550  12.559   5.742
 2273SOL    HW2 8659  10.700  12.548   5.765
 2274SOL     OW 8660  11.708   3.596   1.891
 2274SOL    HW1 8661  11.716   3.537   1.966
 2274SOL    HW2 8662  11.614   3.600   1.873
 2275SOL     OW 8663   2.024   5.207  10.723
 2275SOL    HW1 8664   1.958   5.208  10.653
 2275SOL    HW2 8665   1.988   5.266  10.789
 2276SOL     OW 8666   7.060   0.940   1.556
 2276SOL    HW1 8667   7.068   0.890   1.637
 2276SOL    HW2 8668   6.966   0.955   1.546
 2277SOL     OW 8669   7.518  14.336   3.926
 2277SOL    HW1 8670   7.444  14.287   3.961
 2277SOL    HW2 8671   7.542  14.396   3.997
 2278SOL     OW 8672   7.542   3.260   2.517
 2278SOL    HW1 8673   7.459   3.256   2.565
 2278SOL    HW2 8674   7.525   3.319   2.444
 2279SOL     OW 8675   0.993   2.100   8.434
 2279SOL    HW1 8676   1.048   2.035   8.479
 2279SOL    HW2 8677   1.053   2.173   8.416
 2280SOL     OW 8678  13.338   6.244   3.255
 2280SOL    HW1 8679  13.407   6.242   3.189
 2280SOL    HW2 8680  13.384   6.251   3.339
 2281SOL     OW 8681   6.004  11.683   0.009
 2281SOL    HW1 8682   6.002  11.595   0.044
 2281SOL    HW2 8683   5.971  11.675  14.793
 2282SOL     OW 8684   9.710   7.171   2.569
 2282SOL    HW1 8685   9.774   7.239   2.547
 2282SOL    HW2 8686   9.689   7.129   2.485
 2283SOL     OW 8687  12.971   5.648  10.153
 2283SOL    HW1 8688  12.897   5.657  10.094
 2283SOL    HW2 8689  12.949   5.706  10.227
 2284SOL     OW 8690   3.899  10.025   1.220
 2284SOL    HW1 8691   3.881   9.979   1.138
 2284SOL    HW2 8692   3.994  10.036   1.220
 2285SOL     OW 8693   4.213   9.325  12.254
 2285SOL    HW1 8694   4.215   9.381  12.176
 2285SOL    HW2 8695   4.246   9.240  12.223
 2286SOL     OW 8696  10.711   4.815  13.009
 2286SOL    HW1 8697  10.763   4.829  12.930
 2286SOL    HW2 8698  10.632   4.868  12.996
 2287SOL     OW 8699   9.122  13.429   2.164
 2287SOL    HW1 8700   9.129  13.400   2.255
 2287SOL    HW2 8701   9.172  13.511   2.161
 2288SOL     OW 8702   9.232   6.410  12.418
 2288SOL    HW1 8703   9.324   6.388  12.403
 2288SOL    HW2 8704   9.211   6.474  12.349
 2289SOL     OW 8705   8.544  13.409   2.057
 2289SOL    HW1 8706   8.547  13.330   2.111
 2289SOL    HW2 8707   8.635  13.427   2.037
 2290SOL     OW 8708   2.639  13.257   5.354
 2290SOL    HW1 8709   2.640  13.319   5.281
 2290SOL    HW2 8710   2.548  13.230   5.361
 2291SOL     OW 8711  13.467  13.521   8.746
 2291SOL    HW1 8712  13.434  13.431   8.741
 2291SOL    HW2 8713  13.482  13.536   8.839
 2292SOL     OW 8714   9.350   0.333   9.943
 2292SOL    HW1 8715   9.337   0.423   9.911
 2292SOL    HW2 8716   9.263   0.295   9.944
 2293SOL     OW 8717   9.943  12.477   0.287
 2293SOL    HW1 8718   9.959  12.566   0.256
 2293SOL    HW2 8719  10.013  12.425   0.248
 2294SOL     OW 8720   6.689   7.943  13.767
 2294SOL    HW1 8721   6.770   7.921  13.722
 2294SOL    HW2 8722   6.622   7.943  13.698
 2295SOL     OW 8723  10.803   0.625   9.891
 2295SOL    HW1 8724  10.797   0.537   9.854
 2295SOL    HW2 8725  10.860   0.614   9.967
 2296SOL     OW 8726  10.679  11.671  10.780
 2296SOL    HW1 8727  10.730  11.749  10.801
 2296SOL    HW2 8728  10.697  11.611  10.852
 2297SOL     OW 8729   6.817   2.924  11.892
 2297SOL    HW1 8730   6.725   2.905  11.877
 2297SOL    HW2 8731   6.836   2.884  11.977
 2298SOL     OW 8732   9.479  11.448  12.941
 2298SOL    HW1 8733   9.549  11.481  12.885
 2298SOL    HW2 8734   9.429  11.389  12.884
 2299SOL     OW 8735   6.011  12.321   2.312
 2299SOL    HW1 8736   6.052  12.301   2.228
 2299SOL    HW2 8737   5.951  12.393   2.292
 2300SOL     OW 8738   1.285  12.198   5.065
 2300SOL    HW1 8739   1.353  12.264   5.051
 2300SOL    HW2 8740   1.267  12.163   4.978
 2301SOL     OW 8741   2.905   2.972  14.497
 2301SOL    HW1 8742   2.835   2.969  14.561
 2301SOL    HW2 8743   2.860   2.974  14.412
 2302SOL     OW 8744  11.706   5.535   4.942
 2302SOL    HW1 8745  11.638   5.479   4.981
 2302SOL    HW2 8746  11.759   5.474   4.890
 2303SOL     OW 8747  10.775  10.025  13.103
 2303SOL    HW1 8748  10.714  10.046  13.172
 2303SOL    HW2 8749  10.743  10.073  13.026
 2304SOL     OW 8750  12.337   1.472   2.575
 2304SOL    HW1 8751  12.250   1.484   2.537
 2304SOL    HW2 8752  12.324   1.480   2.669
 2305SOL     OW 8753   5.182   9.044   8.231
 2305SOL    HW1 8754   5.160   8.951   8.227
 2305SOL    HW2 8755   5.273   9.046   8.259
 2306SOL     OW 8756   9.402  11.231  11.532
 2306SOL    HW1 8757   9.477  11.276  11.569
 2306SOL    HW2 8758   9.372  11.288  11.461
 2307SOL     OW 8759  13.963   4.647   8.835
 2307SOL    HW1 8760  14.036   4.702   8.807
 2307SOL    HW2 8761  13.960   4.657   8.930
 2308SOL     OW 8762   4.539  11.569   0.165
 2308SOL    HW1 8763   4.618  11.579   0.111
 2308SOL    HW2 8764   4.479  11.517   0.112
 2309SOL     OW 8765  12.429   3.947  13.990
 2309SOL    HW1 8766  12.376   4.019  14.024
 2309SOL    HW2 8767  12.520   3.975  14.004
 2310SOL     OW 8768   3.897  13.304   6.543
 2310SOL    HW1 8769   3.963  13.290   6.611
 2310SOL    HW2 8770   3.946  13.341   6.470
 2311SOL     OW 8771  13.218   9.013   6.928
 2311SOL    HW1 8772  13.208   8.924   6.893
 2311SOL    HW2 8773  13.130   9.037   6.957
 2312SOL     OW 8774   4.409   3.807   1.514
 2312SOL    HW1 8775   4.397   3.737   1.579
 2312SOL    HW2 8776   4.448   3.879   1.564
 2313SOL     OW 8777  11.076   6.704   9.621
 2313SOL    HW1 8778  11.085   6.652   9.701
 2313SOL    HW2 8779  10.982   6.716   9.611
 2314SOL     OW 8780   2.734   4.232   4.457
 2314SOL    HW1 8781   2.671   4.260   4.390
 2314SOL    HW2 8782   2.717   4.139   4.468
 2315SOL     OW 8783  14.477   1.861  10.877
 2315SOL    HW1 8784  14.449   1.772  10.894
 2315SOL    HW2 8785  14.484   1.902  10.963
 2316SOL     OW 8786   6.171   7.119   4.103
 2316SOL    HW1 8787   6.110   7.192   4.117
 2316SOL    HW2 8788   6.117   7.040   4.113
 2317SOL     OW 8789  14.804  13.748   5.003
 2317SOL    HW1 8790  14.710  13.760   5.016
 2317SOL    HW2 8791  14.841  13.836   5.008
 2318SOL     OW 8792   4.536   4.434  13.969
 2318SOL    HW1 8793   4.585   4.459  13.891
 2318SOL    HW2 8794   4.593   4.370  14.013
 2319SOL     OW 8795   0.749  12.165   1.281
 2319SOL    HW1 8796   0.817  12.224   1.314
 2319SOL    HW2 8797   0.793  12.112   1.215
 2320SOL     OW 8798  13.400   8.940  12.412
 2320SOL    HW1 8799  13.314   8.976  12.392
 2320SOL    HW2 8800  13.383   8.875  12.481
 2321SOL     OW 8801   0.213  14.415   1.276
 2321SOL    HW1 8802   0.148  14.365   1.225
 2321SOL    HW2 8803   0.295  14.366   1.265
 2322SOL     OW 8804   0.974   4.559  14.242
 2322SOL    HW1 8805   1.051   4.615  14.236
 2322SOL    HW2 8806   0.911   4.609  14.292
 2323SOL     OW 8807  14.335   2.701  12.013
 2323SOL    HW1 8808  14.323   2.703  12.108
 2323SOL    HW2 8809  14.411   2.757  11.997
 2324SOL     OW 8810  10.980   0.909   8.547
 2324SOL    HW1 8811  10.900   0.862   8.572
 2324SOL    HW2 8812  10.968   0.997   8.584
 2325SOL     OW 8813  14.454   7.804   5.077
 2325SOL    HW1 8814  14.492   7.866   5.014
 2325SOL    HW2 8815  14.528   7.753   5.110
 2326SOL     OW 8816  14.312  10.906  13.417
 2326SOL    HW1 8817  14.359  10.825  13.397
 2326SOL    HW2 8818  14.375  10.958  13.468
 2327SOL     OW 8819  11.859  10.701  12.651
 2327SOL    HW1 8820  11.880  10.679  12.742
 2327SOL    HW2 8821  11.767  10.676  12.640
 2328SOL     OW 8822   0.280   7.858   9.975
 2328SOL    HW1 8823   0.192   7.821   9.989
 2328SOL    HW2 8824   0.274   7.948  10.006
 2329SOL     OW 8825   1.157   6.845  13.536
 2329SOL    HW1 8826   1.223   6.897  13.490
 2329SOL    HW2 8827   1.145   6.768  13.481
 2330SOL     OW 8828   9.992   9.030   7.353
 2330SOL    HW1 8829  10.019   9.054   7.265
 2330SOL    HW2 8830  10.063   9.060   7.410
 2331SOL     OW 8831   9.063   0.435   0.629
 2331SOL    HW1 8832   9.100   0.469   0.548
 2331SOL    HW2 8833   9.036   0.514   0.677
 2332SOL     OW 8834   2.998   8.883  11.946
 2332SOL    HW1 8835   3.058   8.824  11.991
 2332SOL    HW2 8836   2.914   8.871  11.990
 2333SOL     OW 8837   5.223   6.050   6.903
 2333SOL    HW1 8838   5.172   6.103   6.965
 2333SOL    HW2 8839   5.170   5.972   6.889
 2334SOL     OW 8840   7.485  14.159   6.545
 2334SOL    HW1 8841   7.447  14.245   6.527
 2334SOL    HW2 8842   7.536  14.172   6.625
 2335SOL     OW 8843  10.317   8.303  10.873
 2335SOL    HW1 8844  10.304   8.358  10.796
 2335SOL    HW2 8845  10.269   8.348  10.943
 2336SOL     OW 8846   3.273   8.706  13.245
 2336SOL    HW1 8847   3.288   8.694  13.151
 2336SOL    HW2 8848   3.273   8.800  13.258
 2337SOL     OW 8849   1.379   9.941  12.451
 2337SOL    HW1 8850   1.459   9.979  12.415
 2337SOL    HW2 8851   1.315   9.948  12.380
 2338SOL     OW 8852   4.599  13.651  12.528
 2338SOL    HW1 8853   4.666  13.603  12.479
 2338SOL    HW2 8854   4.595  13.737  12.487
 2339SOL     OW 8855   4.055   1.233   9.756
 2339SOL    HW1 8856   4.055   1.259   9.848
 2339SOL    HW2 8857   4.142   1.259   9.724
 2340SOL     OW 8858   1.799   5.077  13.767
 2340SOL    HW1 8859   1.844   5.050  13.847
 2340SOL    HW2 8860   1.766   4.995  13.730
 2341SOL     OW 8861   5.998   2.651   5.754
 2341SOL    HW1 8862   6.074   2.595   5.737
 2341SOL    HW2 8863   6.008   2.677   5.845
 2342SOL     OW 8864   9.746   5.972   7.921
 2342SOL    HW1 8865   9.770   6.060   7.894
 2342SOL    HW2 8866   9.702   5.934   7.844
 2343SOL     OW 8867   5.248  10.668  11.304
 2343SOL    HW1 8868   5.258  10.573  11.308
 2343SOL    HW2 8869   5.267  10.690  11.213
 2344SOL     OW 8870  13.894   0.608   8.451
 2344SOL    HW1 8871  13.886   0.512   8.451
 2344SOL    HW2 8872  13.894   0.632   8.358
 2345SOL     OW 8873   8.845   3.633   9.265
 2345SOL    HW1 8874   8.838   3.669   9.353
 2345SOL    HW2 8875   8.755   3.629   9.232
 2346SOL     OW 8876   0.636  12.909   0.778
 2346SOL    HW1 8877   0.561  12.959   0.809
 2346SOL    HW2 8878   0.694  12.902   0.855
 2347SOL     OW 8879  13.514   6.540   5.237
 2347SOL    HW1 8880  13.608   6.549   5.256
 2347SOL    HW2 8881  13.495   6.449   5.261
 2348SOL     OW 8882   4.189   2.012   8.688
 2348SOL    HW1 8883   4.188   1.985   8.780
 2348SOL    HW2 8884   4.156   2.102   8.689
 2349SOL     OW 8885   3.593  12.122   7.548
 2349SOL    HW1 8886   3.563  12.204   7.507
 2349SOL    HW2 8887   3.519  12.062   7.537
 2350SOL     OW 8888  13.340  13.499   6.893
 2350SOL    HW1 8889  13.384  13.505   6.809
 2350SOL    HW2 8890  13.272  13.566   6.890
 2351SOL     OW 8891  10.949   9.549  14.663
 2351SOL    HW1 8892  10.961   9.569  14.756
 2351SOL    HW2 8893  10.856   9.528  14.655
 2352SOL     OW 8894   6.206   1.641   6.397
 2352SOL    HW1 8895   6.129   1.632   6.340
 2352SOL    HW2 8896   6.241   1.727   6.375
 2353SOL     OW 8897   1.773   1.805  11.168
 2353SOL    HW1 8898   1.815   1.738  11.222
 2353SOL    HW2 8899   1.705   1.841  11.225
 2354SOL     OW 8900   6.102   1.326   7.460
 2354SOL    HW1 8901   6.050   1.375   7.397
 2354SOL    HW2 8902   6.072   1.235   7.450
 2355SOL     OW 8903   0.652   0.925  10.236
 2355SOL    HW1 8904   0.679   0.930  10.144
 2355SOL    HW2 8905   0.685   0.841  10.267
 2356SOL     OW 8906   9.600   9.713   5.601
 2356SOL    HW1 8907   9.504   9.708   5.608
 2356SOL    HW2 8908   9.615   9.779   5.533
 2357SOL     OW 8909  13.554  10.738  11.241
 2357SOL    HW1 8910  13.598  10.671  11.188
 2357SOL    HW2 8911  13.618  10.808  11.250
 2358SOL     OW 8912   8.307  10.101   1.637
 2358SOL    HW1 8913   8.312  10.196   1.627
 2358SOL    HW2 8914   8.370  10.081   1.707
 2359SOL     OW 8915  13.929   5.127   4.576
 2359SOL    HW1 8916  13.834   5.135   4.570
 2359SOL    HW2 8917  13.959   5.216   4.597
 2360SOL     OW 8918  10.367   9.403   1.701
 2360SOL    HW1 8919  10.411   9.319   1.690
 2360SOL    HW2 8920  10.274   9.380   1.711
 2361SOL     OW 8921  12.239  11.258  14.298
 2361SOL    HW1 8922  12.280  11.253  14.211
 2361SOL    HW2 8923  12.202  11.171  14.311
 2362SOL     OW 8924   9.158   8.937   8.089
 2362SOL    HW1 8925   9.160   9.032   8.083
 2362SOL    HW2 8926   9.244   8.909   8.058
 2363SOL     OW 8927   0.532   4.842   2.684
 2363SOL    HW1 8928   0.540   4.935   2.705
 2363SOL    HW2 8929   0.453   4.813   2.728
 2364SOL     OW 8930   2.789   6.834   0.371
 2364SOL    HW1 8931   2.763   6.815   0.281
 2364SOL    HW2 8932   2.708   6.828   0.421
 2365SOL     OW 8933   0.985  14.225  12.615
 2365SOL    HW1 8934   0.966  14.295  12.553
 2365SOL    HW2 8935   1.015  14.270  12.694
 2366SOL     OW 8936  13.368   2.703   0.869
 2366SOL    HW1 8937  13.277   2.724   0.846
 2366SOL    HW2 8938  13.363   2.618   0.912
 2367SOL     OW 8939  11.506   5.081   3.402
 2367SOL    HW1 8940  11.550   5.166   3.406
 2367SOL    HW2 8941  11.414   5.103   3.385
 2368SOL     OW 8942   2.969   7.450   8.671
 2368SOL    HW1 8943   2.914   7.390   8.720
 2368SOL    HW2 8944   3.014   7.502   8.738
 2369SOL     OW 8945   3.784   1.495  13.539
 2369SOL    HW1 8946   3.826   1.579  13.558
 2369SOL    HW2 8947   3.854   1.441  13.502
 2370SOL     OW 8948   8.766  12.505   3.589
 2370SOL    HW1 8949   8.798  12.439   3.651
 2370SOL    HW2 8950   8.685  12.537   3.627
 2371SOL     OW 8951   4.380   9.594  10.294
 2371SOL    HW1 8952   4.305   9.640  10.331
 2371SOL    HW2 8953   4.453   9.656  10.303
 2372SOL     OW 8954   7.510   1.809   4.590
 2372SOL    HW1 8955   7.495   1.904   4.594
 2372SOL    HW2 8956   7.568   1.797   4.514
 2373SOL     OW 8957   2.560   5.428   2.928
 2373SOL    HW1 8958   2.499   5.390   2.991
 2373SOL    HW2 8959   2.595   5.353   2.880
 2374SOL     OW 8960   9.023  13.518   9.321
 2374SOL    HW1 8961   9.022  13.614   9.328
 2374SOL    HW2 8962   9.058  13.488   9.405
 2375SOL     OW 8963  10.692  11.011   2.335
 2375SOL    HW1 8964  10.668  10.948   2.403
 2375SOL    HW2 8965  10.681  11.097   2.375
 2376SOL     OW 8966   3.448   7.926   5.987
 2376SOL    HW1 8967   3.429   7.908   5.895
 2376SOL    HW2 8968   3.510   7.998   5.985
 2377SOL     OW 8969   8.014  10.305   5.722
 2377SOL    HW1 8970   7.931  10.258   5.723
 2377SOL    HW2 8971   8.057  10.280   5.804
 2378SOL     OW 8972  13.889   4.002   7.546
 2378SOL    HW1 8973  13.983   3.998   7.561
 2378SOL    HW2 8974  13.873   4.092   7.519
 2379SOL     OW 8975   9.138   7.183   3.717
 2379SOL    HW1 8976   9.128   7.217   3.628
 2379SOL    HW2 8977   9.147   7.089   3.706
 2380SOL     OW 8978   7.096  10.237  12.627
 2380SOL    HW1 8979   7.110  10.143  12.622
 2380SOL    HW2 8980   7.138  10.273  12.549
 2381SOL     OW 8981  11.594   0.223  12.179
 2381SOL    HW1 8982  11.656   0.195  12.246
 2381SOL    HW2 8983  11.648   0.267  12.113
 2382SOL     OW 8984   5.489  11.259  14.808
 2382SOL    HW1 8985   5.466  11.233   0.024
 2382SOL    HW2 8986   5.548  11.191  14.778
 2383SOL     OW 8987  11.745   5.243   3.692
 2383SOL    HW1 8988  11.794   5.326   3.698
 2383SOL    HW2 8989  11.789   5.195   3.622
 2384SOL     OW 8990   2.320  10.646   1.411
 2384SOL    HW1 8991   2.286  10.597   1.486
 2384SOL    HW2 8992   2.345  10.578   1.348
 2385SOL     OW 8993   5.433  10.941  11.996
 2385SOL    HW1 8994   5.355  10.984  12.030
 2385SOL    HW2 8995   5.420  10.938  11.902
 2386SOL     OW 8996   0.517  12.914  13.609
 2386SOL    HW1 8997   0.589  12.977  13.608
 2386SOL    HW2 8998   0.542  12.848  13.543
 2387SOL     OW 8999   7.943  14.153  10.896
 2387SOL    HW1 9000   8.032  14.154  10.860
 2387SOL    HW2 9001   7.950  14.204  10.977
 2388SOL     OW 9002   1.870   2.574  10.171
 2388SOL    HW1 9003   1.812   2.511  10.127
 2388SOL    HW2 9004   1.812   2.643  10.202
 2389SOL     OW 9005   5.760   8.457   3.028
 2389SOL    HW1 9006   5.716   8.490   3.107
 2389SOL    HW2 9007   5.835   8.408   3.060
 2390SOL     OW 9008   9.559  14.300   4.768
 2390SOL    HW1 9009   9.626  14.234   4.752
 2390SOL    HW2 9010   9.577  14.332   4.856
 2391SOL     OW 9011   4.029  13.038   8.264
 2391SOL    HW1 9012   4.105  13.068   8.314
 2391SOL    HW2 9013   4.044  13.072   8.176
 2392SOL     OW 9014   4.997   0.526  11.114
 2392SOL    HW1 9015   4.991   0.449  11.058
 2392SOL    HW2 9016   5.083   0.563  11.094
 2393SOL     OW 9017  10.601  12.476   8.468
 2393SOL    HW1 9018  10.641  12.526   8.539
 2393SOL    HW2 9019  10.608  12.534   8.391
 2394SOL     OW 9020   3.455  11.065  11.948
 2394SOL    HW1 9021   3.430  11.144  11.996
 2394SOL    HW2 9022   3.494  11.008  12.014
 2395SOL     OW 9023   2.575   8.111   1.976
 2395SOL    HW1 9024   2.642   8.102   2.044
 2395SOL    HW2 9025   2.613   8.071   1.898
 2396SOL     OW 9026  10.083   2.225  13.487
 2396SOL    HW1 9027  10.007   2.173  13.512
 2396SOL    HW2 9028  10.074   2.237  13.392
 2397SOL     OW 9029   0.190  13.082   5.128
 2397SOL    HW1 9030   0.104  13.040   5.122
 2397SOL    HW2 9031   0.212  13.076   5.221
 2398SOL     OW 9032   2.024   2.875   9.294
 2398SOL    HW1 9033   2.036   2.851   9.202
 2398SOL    HW2 9034   1.977   2.959   9.290
 2399SOL     OW 9035   5.504   5.127   9.892
 2399SOL    HW1 9036   5.514   5.097   9.802
 2399SOL    HW2 9037   5.454   5.209   9.885
 2400SOL     OW 9038   9.212   7.649   1.403
 2400SOL    HW1 9039   9.125   7.635   1.366
 2400SOL    HW2 9040   9.231   7.567   1.449
 2401SOL     OW 9041  13.214   0.284   7.253
 2401SOL    HW1 9042  13.131   0.273   7.299
 2401SOL    HW2 9043  13.223   0.205   7.200
 2402SOL     OW 9044   1.747   9.071   4.978
 2402SOL    HW1 9045   1.654   9.085   4.959
 2402SOL    HW2 9046   1.791   9.087   4.895
 2403SOL     OW 9047   2.015   8.644  14.664
 2403SOL    HW1 9048   2.025   8.735  14.634
 2403SOL    HW2 9049   2.031   8.648  14.759
 2404SOL     OW 9050   3.384   4.496   4.602
 2404SOL    HW1 9051   3.394   4.482   4.697
 2404SOL    HW2 9052   3.294   4.529   4.593
 2405SOL     OW 9053   8.145   8.112   2.041
 2405SOL    HW1 9054   8.099   8.089   1.960
 2405SOL    HW2 9055   8.184   8.198   2.022
 2406SOL     OW 9056   2.745   5.247   6.610
 2406SOL    HW1 9057   2.740   5.225   6.703
 2406SOL    HW2 9058   2.674   5.310   6.596
 2407SOL     OW 9059   3.552  11.717   4.721
 2407SOL    HW1 9060   3.533  11.717   4.628
 2407SOL    HW2 9061   3.562  11.810   4.744
 2408SOL     OW 9062   9.380   3.892   0.758
 2408SOL    HW1 9063   9.338   3.915   0.675
 2408SOL    HW2 9064   9.308   3.872   0.817
 2409SOL     OW 9065   8.451   5.637   1.861
 2409SOL    HW1 9066   8.453   5.655   1.955
 2409SOL    HW2 9067   8.421   5.719   1.821
 2410SOL     OW 9068   4.384   7.611   2.971
 2410SOL    HW1 9069   4.456   7.574   3.021
 2410SOL    HW2 9070   4.392   7.570   2.885
 2411SOL     OW 9071  10.024   5.007   1.131
 2411SOL    HW1 9072  10.114   5.034   1.112
 2411SOL    HW2 9073   9.970   5.067   1.078
 2412SOL     OW 9074   1.906  12.031  10.039
 2412SOL    HW1 9075   1.950  11.947  10.025
 2412SOL    HW2 9076   1.916  12.048  10.132
 2413SOL     OW 9077   5.971   3.406  11.800
 2413SOL    HW1 9078   5.931   3.327  11.762
 2413SOL    HW2 9079   6.005   3.454  11.724
 2414SOL     OW 9080   6.884  10.151   8.643
 2414SOL    HW1 9081   6.882  10.229   8.698
 2414SOL    HW2 9082   6.969  10.111   8.661
 2415SOL     OW 9083  14.248   4.373   7.266
 2415SOL    HW1 9084  14.325   4.361   7.322
 2415SOL    HW2 9085  14.224   4.465   7.278
 2416SOL     OW 9086   2.912  12.444  12.716
 2416SOL    HW1 9087   2.905  12.466  12.623
 2416SOL    HW2 9088   2.841  12.382  12.732
 2417SOL     OW 9089  14.518   1.726  11.339
 2417SOL    HW1 9090  14.497   1.780  11.263
 2417SOL    HW2 9091  14.602   1.685  11.317
 2418SOL     OW 9092   4.615   0.775   6.154
 2418SOL    HW1 9093   4.596   0.864   6.181
 2418SOL    HW2 9094   4.689   0.748   6.209
 2419SOL     OW 9095   4.446   9.915   5.083
 2419SOL    HW1 9096   4.352   9.933   5.079
 2419SOL    HW2 9097   4.487  10.000   5.096
 2420SOL     OW 9098  10.569  13.499  14.796
 2420SOL    HW1 9099  10.584  13.452   0.005
 2420SOL    HW2 9100  10.599  13.588  14.814
 2421SOL     OW 9101   0.852   9.506   0.726
 2421SOL    HW1 9102   0.892   9.430   0.683
 2421SOL    HW2 9103   0.864   9.489   0.820
 2422SOL     OW 9104   5.308  11.698   0.666
 2422SOL    HW1 9105   5.224  11.697   0.620
 2422SOL    HW2 9106   5.367  11.648   0.610
 2423SOL     OW 9107   1.319  14.142  14.073
 2423SOL    HW1 9108   1.374  14.190  14.013
 2423SOL    HW2 9109   1.346  14.172  14.160
 2424SOL     OW 9110   3.363   5.689  10.000
 2424SOL    HW1 9111   3.355   5.646  10.085
 2424SOL    HW2 9112   3.350   5.782  10.018
 2425SOL     OW 9113   1.753   7.345   3.699
 2425SOL    HW1 9114   1.694   7.383   3.764
 2425SOL    HW2 9115   1.727   7.387   3.616
 2426SOL     OW 9116  10.873  10.953   0.321
 2426SOL    HW1 9117  10.949  11.004   0.348
 2426SOL    HW2 9118  10.866  10.971   0.227
 2427SOL     OW 9119   6.135   8.527   4.884
 2427SOL    HW1 9120   6.118   8.525   4.790
 2427SOL    HW2 9121   6.051   8.551   4.923
 2428SOL     OW 9122   8.330  11.341   6.008
 2428SOL    HW1 9123   8.318  11.271   6.073
 2428SOL    HW2 9124   8.364  11.415   6.058
 2429SOL     OW 9125   0.078   1.169  10.886
 2429SOL    HW1 9126   0.076   1.198  10.977
 2429SOL    HW2 9127   0.016   1.096  10.882
 2430SOL     OW 9128  14.102   3.024  14.222
 2430SOL    HW1 9129  14.032   3.083  14.196
 2430SOL    HW2 9130  14.089   2.947  14.167
 2431SOL     OW 9131   1.516   9.124   2.357
 2431SOL    HW1 9132   1.490   9.045   2.310
 2431SOL    HW2 9133   1.588   9.159   2.305
 2432SOL     OW 9134  10.523   5.123   3.338
 2432SOL    HW1 9135  10.566   5.171   3.409
 2432SOL    HW2 9136  10.457   5.184   3.305
 2433SOL     OW 9137   0.405   3.705  10.463
 2433SOL    HW1 9138   0.375   3.796  10.469
 2433SOL    HW2 9139   0.403   3.673  10.553
 2434SOL     OW 9140   6.481   8.817   2.898
 2434SOL    HW1 9141   6.539   8.844   2.969
 2434SOL    HW2 9142   6.410   8.769   2.942
 2435SOL     OW 9143  12.590   9.802   3.110
 2435SOL    HW1 9144  12.662   9.817   3.050
 2435SOL    HW2 9145  12.630   9.804   3.197
 2436SOL     OW 9146   8.540  12.026   2.591
 2436SOL    HW1 9147   8.628  11.996   2.568
 2436SOL    HW2 9148   8.555  12.096   2.655
 2437SOL     OW 9149   2.618   3.615   2.553
 2437SOL    HW1 9150   2.694   3.654   2.596
 2437SOL    HW2 9151   2.590   3.681   2.489
 2438SOL     OW 9152   4.950   6.705   9.056
 2438SOL    HW1 9153   4.965   6.612   9.043
 2438SOL    HW2 9154   4.909   6.735   8.974
 2439SOL     OW 9155  14.542   9.162   2.574
 2439SOL    HW1 9156  14.526   9.235   2.513
 2439SOL    HW2 9157  14.574   9.204   2.654
 2440SOL     OW 9158   1.772  10.551   0.927
 2440SOL    HW1 9159   1.816  10.536   0.843
 2440SOL    HW2 9160   1.733  10.467   0.949
 2441SOL     OW 9161   8.313   4.947   3.462
 2441SOL    HW1 9162   8.283   4.911   3.379
 2441SOL    HW2 9163   8.245   4.922   3.525
 2442SOL     OW 9164  12.632  13.785   5.036
 2442SOL    HW1 9165  12.711  13.831   5.062
 2442SOL    HW2 9166  12.594  13.753   5.117
 2443SOL     OW 9167   8.204   9.402   8.704
 2443SOL    HW1 9168   8.115   9.367   8.707
 2443SOL    HW2 9169   8.249   9.359   8.777
 2444SOL     OW 9170   3.723   7.332   6.932
 2444SOL    HW1 9171   3.787   7.280   6.884
 2444SOL    HW2 9172   3.728   7.300   7.022
 2445SOL     OW 9173   2.668   2.470   3.121
 2445SOL    HW1 9174   2.599   2.524   3.081
 2445SOL    HW2 9175   2.630   2.383   3.126
 2446SOL     OW 9176   7.177   2.888  10.905
 2446SOL    HW1 9177   7.256   2.906  10.854
 2446SOL    HW2 9178   7.168   2.963  10.964
 2447SOL     OW 9179   4.855   7.219   6.928
 2447SOL    HW1 9180   4.867   7.142   6.871
 2447SOL    HW2 9181   4.828   7.289   6.868
 2448SOL     OW 9182   0.250  14.329   3.112
 2448SOL    HW1 9183   0.317  14.261   3.118
 2448SOL    HW2 9184   0.263  14.368   3.025
 2449SOL     OW 9185  12.891   8.876   3.130
 2449SOL    HW1 9186  12.892   8.805   3.193
 2449SOL    HW2 9187  12.875   8.955   3.182
 2450SOL     OW 9188   9.136  14.048  11.991
 2450SOL    HW1 9189   9.152  13.961  11.955
 2450SOL    HW2 9190   9.100  14.099  11.918
 2451SOL     OW 9191  11.195  13.026  10.840
 2451SOL    HW1 9192  11.236  13.098  10.792
 2451SOL    HW2 9193  11.265  12.992  10.895
 2452SOL     OW 9194   2.941  11.595  14.726
 2452SOL    HW1 9195   2.985  11.612  14.810
 2452SOL    HW2 9196   2.984  11.655  14.665
 2453SOL     OW 9197   0.496   4.405   1.499
 2453SOL    HW1 9198   0.557   4.474   1.470
 2453SOL    HW2 9199   0.411   4.436   1.469
 2454SOL     OW 9200   6.767  11.497  11.052
 2454SOL    HW1 9201   6.692  11.493  10.992
 2454SOL    HW2 9202   6.843  11.504  10.995
 2455SOL     OW 9203   1.672  14.517   6.119
 2455SOL    HW1 9204   1.726  14.569   6.059
 2455SOL    HW2 9205   1.587  14.513   6.077
 2456SOL     OW 9206  11.235   5.274   3.379
 2456SOL    HW1 9207  11.254   5.344   3.440
 2456SOL    HW2 9208  11.289   5.294   3.302
 2457SOL     OW 9209  10.453  10.363  12.394
 2457SOL    HW1 9210  10.400  10.340  12.470
 2457SOL    HW2 9211  10.407  10.437  12.354
 2458SOL     OW 9212   6.708  12.914   6.768
 2458SOL    HW1 9213   6.685  12.822   6.750
 2458SOL    HW2 9214   6.803  12.917   6.754
 2459SOL     OW 9215  11.899   2.573  10.798
 2459SOL    HW1 9216  11.898   2.614  10.712
 2459SOL    HW2 9217  11.992   2.556  10.815
 2460SOL     OW 9218  12.278   2.648   4.431
 2460SOL    HW1 9219  12.211   2.709   4.463
 2460SOL    HW2 9220  12.275   2.575   4.492
 2461SOL     OW 9221  10.151  14.255  11.470
 2461SOL    HW1 9222  10.150  14.332  11.526
 2461SOL    HW2 9223  10.229  14.206  11.497
 2462SOL     OW 9224  12.255   9.346  13.579
 2462SOL    HW1 9225  12.315   9.366  13.650
 2462SOL    HW2 9226  12.181   9.406  13.593
 2463SOL     OW 9227  14.657   9.997  11.453
 2463SOL    HW1 9228  14.619   9.969  11.537
 2463SOL    HW2 9229  14.694   9.917  11.416
 2464SOL     OW 9230  12.444   0.273   0.489
 2464SOL    HW1 9231  12.418   0.202   0.547
 2464SOL    HW2 9232  12.407   0.250   0.404
 2465SOL     OW 9233   5.956   8.480  14.019
 2465SOL    HW1 9234   5.970   8.575  14.014
 2465SOL    HW2 9235   5.893   8.469  14.090
 2466SOL     OW 9236   4.633   3.080   6.218
 2466SOL    HW1 9237   4.660   3.049   6.132
 2466SOL    HW2 9238   4.601   3.169   6.202
 2467SOL     OW 9239   9.235   6.206   8.175
 2467SOL    HW1 9240   9.171   6.274   8.157
 2467SOL    HW2 9241   9.289   6.202   8.096
 2468SOL     OW 9242  13.150  12.927  12.925
 2468SOL    HW1 9243  13.060  12.957  12.933
 2468SOL    HW2 9244  13.181  12.918  13.015
 2469SOL     OW 9245   8.067  13.146  10.396
 2469SOL    HW1 9246   8.094  13.233  10.425
 2469SOL    HW2 9247   8.109  13.086  10.458
 2470SOL     OW 9248  10.884   9.347  11.267
 2470SOL    HW1 9249  10.813   9.296  11.304
 2470SOL    HW2 9250  10.897   9.418  11.330
 2471SOL     OW 9251   1.486   2.580   5.444
 2471SOL    HW1 9252   1.500   2.503   5.389
 2471SOL    HW2 9253   1.474   2.546   5.532
 2472SOL     OW 9254   1.100  11.600   8.159
 2472SOL    HW1 9255   1.091  11.581   8.065
 2472SOL    HW2 9256   1.029  11.550   8.200
 2473SOL     OW 9257   9.111  13.554  11.822
 2473SOL    HW1 9258   9.091  13.527  11.732
 2473SOL    HW2 9259   9.101  13.649  11.821
 2474SOL     OW 9260   9.880   5.209  11.385
 2474SOL    HW1 9261   9.821   5.261  11.330
 2474SOL    HW2 9262   9.899   5.132  11.331
 2475SOL     OW 9263  11.737  10.298   4.678
 2475SOL    HW1 9264  11.814  10.242   4.676
 2475SOL    HW2 9265  11.695  10.285   4.593
 2476SOL     OW 9266   7.992  10.757   2.491
 2476SOL    HW1 9267   7.950  10.839   2.517
 2476SOL    HW2 9268   8.076  10.758   2.537
 2477SOL     OW 9269  14.123   9.730   8.454
 2477SOL    HW1 9270  14.128   9.638   8.428
 2477SOL    HW2 9271  14.076   9.729   8.538
 2478SOL     OW 9272   6.056   3.453   5.904
 2478SOL    HW1 9273   6.114   3.508   5.957
 2478SOL    HW2 9274   5.968   3.477   5.932
 2479SOL     OW 9275   0.488  12.950   4.797
 2479SOL    HW1 9276   0.454  13.008   4.729
 2479SOL    HW2 9277   0.500  13.006   4.874
 2480SOL     OW 9278   7.597   2.312  13.684
 2480SOL    HW1 9279   7.690   2.290  13.688
 2480SOL    HW2 9280   7.591   2.400  13.720
 2481SOL     OW 9281   2.417   3.717   4.539
 2481SOL    HW1 9282   2.507   3.686   4.538
 2481SOL    HW2 9283   2.367   3.643   4.576
 2482SOL     OW 9284   1.056  13.159  11.358
 2482SOL    HW1 9285   1.098  13.241  11.335
 2482SOL    HW2 9286   0.969  13.185  11.391
 2483SOL     OW 9287  12.300  13.185   1.766
 2483SOL    HW1 9288  12.316  13.118   1.701
 2483SOL    HW2 9289  12.273  13.137   1.844
 2484SOL     OW 9290  11.556   3.791   3.556
 2484SOL    HW1 9291  11.573   3.848   3.632
 2484SOL    HW2 9292  11.498   3.723   3.590
 2485SOL     OW 9293   7.780  14.423   2.008
 2485SOL    HW1 9294   7.739  14.344   1.971
 2485SOL    HW2 9295   7.714  14.492   1.997
 2486SOL     OW 9296  10.170  11.481   1.948
 2486SOL    HW1 9297  10.163  11.457   2.040
 2486SOL    HW2 9298  10.196  11.401   1.904
 2487SOL     OW 9299   4.311   0.784   8.638
 2487SOL    HW1 9300   4.339   0.774   8.729
 2487SOL    HW2 9301   4.238   0.845   8.642
 2488SOL     OW 9302   2.050  11.699   7.642
 2488SOL    HW1 9303   2.097  11.686   7.560
 2488SOL    HW2 9304   1.961  11.722   7.616
 2489SOL     OW 9305   3.976   4.566   9.480
 2489SOL    HW1 9306   3.980   4.632   9.410
 2489SOL    HW2 9307   3.960   4.616   9.560
 2490SOL     OW 9308  13.396   0.410   6.393
 2490SOL    HW1 9309  13.443   0.438   6.315
 2490SOL    HW2 9310  13.460   0.418   6.464
 2491SOL     OW 9311  13.610   8.537   8.523
 2491SOL    HW1 9312  13.699   8.504   8.540
 2491SOL    HW2 9313  13.607   8.621   8.570
 2492SOL     OW 9314   9.832   5.903  13.852
 2492SOL    HW1 9315   9.845   5.862  13.766
 2492SOL    HW2 9316   9.912   5.953  13.867
 2493SOL     OW 9317   0.747   3.592   2.223
 2493SOL    HW1 9318   0.706   3.556   2.301
 2493SOL    HW2 9319   0.840   3.593   2.242
 2494SOL     OW 9320   5.421   6.767  13.960
 2494SOL    HW1 9321   5.412   6.712  14.037
 2494SOL    HW2 9322   5.515   6.767  13.941
 2495SOL     OW 9323  13.914   1.502   7.561
 2495SOL    HW1 9324  13.935   1.562   7.490
 2495SOL    HW2 9325  13.985   1.438   7.561
 2496SOL     OW 9326   6.300   4.116   3.321
 2496SOL    HW1 9327   6.297   4.211   3.332
 2496SOL    HW2 9328   6.393   4.096   3.311
 2497SOL     OW 9329   0.566  12.355   1.200
 2497SOL    HW1 9330   0.602  12.395   1.279
 2497SOL    HW2 9331   0.559  12.262   1.221
 2498SOL     OW 9332   2.489   7.826   2.329
 2498SOL    HW1 9333   2.538   7.833   2.247
 2498SOL    HW2 9334   2.549   7.782   2.389
 2499SOL     OW 9335  14.064  11.815   3.114
 2499SOL    HW1 9336  14.144  11.765   3.097
 2499SOL    HW2 9337  14.058  11.876   3.039
 2500SOL     OW 9338   7.999   5.432   4.285
 2500SOL    HW1 9339   8.037   5.402   4.368
 2500SOL    HW2 9340   7.964   5.519   4.305
 2501SOL     OW 9341  10.155   0.526  14.145
 2501SOL    HW1 9342  10.250   0.522  14.132
 2501SOL    HW2 9343  10.126   0.435  14.139
 2502SOL     OW 9344   1.176   2.999  14.545
 2502SOL    HW1 9345   1.253   2.941  14.550
 2502SOL    HW2 9346   1.176   3.030  14.454
 2503SOL     OW 9347  13.336   9.731   3.782
 2503SOL    HW1 9348  13.379   9.668   3.839
 2503SOL    HW2 9349  13.386   9.812   3.793
 2504SOL     OW 9350   7.944   6.045   1.051
 2504SOL    HW1 9351   8.027   5.998   1.035
 2504SOL    HW2 9352   7.877   5.978   1.039
 2505SOL     OW 9353  12.240   1.814   1.299
 2505SOL    HW1 9354  12.302   1.868   1.350
 2505SOL    HW2 9355  12.233   1.860   1.215
 2506SOL     OW 9356   6.711  12.332   3.452
 2506SOL    HW1 9357   6.742  12.358   3.365
 2506SOL    HW2 9358   6.620  12.360   3.455
 2507SOL     OW 9359   3.105  10.843   2.355
 2507SOL    HW1 9360   3.142  10.761   2.388
 2507SOL    HW2 9361   3.051  10.816   2.280
 2508SOL     OW 9362   5.151   4.157  14.136
 2508SOL    HW1 9363   5.099   4.165  14.216
 2508SOL    HW2 9364   5.226   4.103  14.162
 2509SOL     OW 9365   1.200   8.425   1.209
 2509SOL    HW1 9366   1.110   8.392   1.203
 2509SOL    HW2 9367   1.255   8.351   1.184
 2510SOL     OW 9368  12.852   1.458   8.027
 2510SOL    HW1 9369  12.758   1.449   8.012
 2510SOL    HW2 9370  12.870   1.551   8.015
 2511SOL     OW 9371   6.093   8.472  14.628
 2511SOL    HW1 9372   6.049   8.557  14.616
 2511SOL    HW2 9373   6.186   8.494  14.635
 2512SOL     OW 9374   7.662   4.094  10.539
 2512SOL    HW1 9375   7.626   4.122  10.454
 2512SOL    HW2 9376   7.757   4.097  10.527
 2513SOL     OW 9377   5.142   1.384   8.820
 2513SOL    HW1 9378   5.220   1.374   8.765
 2513SOL    HW2 9379   5.081   1.434   8.766
 2514SOL     OW 9380   8.281   0.882   6.080
 2514SOL    HW1 9381   8.223   0.813   6.046
 2514SOL    HW2 9382   8.295   0.941   6.006
 2515SOL     OW 9383   9.622   9.584   1.087
 2515SOL    HW1 9384   9.638   9.592   0.993
 2515SOL    HW2 9385   9.572   9.662   1.110
 2516SOL     OW 9386  10.773  11.306   8.077
 2516SOL    HW1 9387  10.847  11.246   8.066
 2516SOL    HW2 9388  10.699  11.258   8.041
 2517SOL     OW 9389   9.904  14.481  12.414
 2517SOL    HW1 9390   9.966  14.448  12.480
 2517SOL    HW2 9391   9.845  14.408  12.397
 2518SOL     OW 9392   5.721   4.042   1.568
 2518SOL    HW1 9393   5.701   4.088   1.486
 2518SOL    HW2 9394   5.739   3.952   1.541
 2519SOL     OW 9395   3.584   1.570   5.286
 2519SOL    HW1 9396   3.580   1.559   5.381
 2519SOL    HW2 9397   3.526   1.501   5.252
 2520SOL     OW 9398  13.889  12.696  11.684
 2520SOL    HW1 9399  13.940  12.647  11.619
 2520SOL    HW2 9400  13.806  12.715  11.640
 2521SOL     OW 9401  12.559  10.365   0.917
 2521SOL    HW1 9402  12.593  10.448   0.883
 2521SOL    HW2 9403  12.547  10.381   1.011
 2522SOL     OW 9404   0.400   8.719   2.658
 2522SOL    HW1 9405   0.325   8.716   2.598
 2522SOL    HW2 9406   0.385   8.647   2.719
 2523SOL     OW 9407  10.310  12.592  12.831
 2523SOL    HW1 9408  10.317  12.608  12.737
 2523SOL    HW2 9409  10.400  12.593  12.862
 2524SOL     OW 9410  10.341   3.560   8.338
 2524SOL    HW1 9411  10.391   3.495   8.388
 2524SOL    HW2 9412  10.402   3.633   8.326
 2525SOL     OW 9413   9.374   4.648   0.667
 2525SOL    HW1 9414   9.426   4.727   0.650
 2525SOL    HW2 9415   9.412   4.611   0.746
 2526SOL     OW 9416   8.163  11.620   5.025
 2526SOL    HW1 9417   8.236  11.649   5.079
 2526SOL    HW2 9418   8.148  11.529   5.052
 2527SOL     OW 9419   4.820  10.316  10.524
 2527SOL    HW1 9420   4.834  10.357  10.609
 2527SOL    HW2 9421   4.734  10.275  10.531
 2528SOL     OW 9422   7.545   3.753   7.615
 2528SOL    HW1 9423   7.593   3.803   7.682
 2528SOL    HW2 9424   7.562   3.662   7.637
 2529SOL     OW 9425   9.703   5.525  12.978
 2529SOL    HW1 9426   9.657   5.576  12.911
 2529SOL    HW2 9427   9.640   5.519  13.050
 2530SOL     OW 9428   8.865  10.875  12.652
 2530SOL    HW1 9429   8.841  10.938  12.720
 2530SOL    HW2 9430   8.859  10.924  12.570
 2531SOL     OW 9431  12.335   5.363  11.570
 2531SOL    HW1 9432  12.362   5.389  11.658
 2531SOL    HW2 9433  12.241   5.351  11.576
 2532SOL     OW 9434  14.768   5.521   3.524
 2532SOL    HW1 9435  14.828   5.590   3.552
 2532SOL    HW2 9436  14.683   5.549   3.556
 2533SOL     OW 9437   4.802  13.995   1.000
 2533SOL    HW1 9438   4.757  13.943   1.066
 2533SOL    HW2 9439   4.799  13.942   0.920
 2534SOL     OW 9440   8.660  12.413   4.400
 2534SOL    HW1 9441   8.632  12.503   4.415
 2534SOL    HW2 9442   8.589  12.359   4.433
 2535SOL     OW 9443  12.741   3.024   2.597
 2535SOL    HW1 9444  12.751   2.974   2.516
 2535SOL    HW2 9445  12.658   3.071   2.586
 2536SOL     OW 9446   2.319   8.864   2.698
 2536SOL    HW1 9447   2.379   8.906   2.636
 2536SOL    HW2 9448   2.232   8.873   2.657
 2537SOL     OW 9449   4.527   6.701   4.163
 2537SOL    HW1 9450   4.513   6.648   4.084
 2537SOL    HW2 9451   4.576   6.643   4.221
 2538SOL     OW 9452   9.305  10.769  10.361
 2538SOL    HW1 9453   9.347  10.830  10.422
 2538SOL    HW2 9454   9.345  10.788  10.277
 2539SOL     OW 9455   1.414   5.857  10.489
 2539SOL    HW1 9456   1.331   5.857  10.441
 2539SOL    HW2 9457   1.388   5.863  10.581
 2540SOL     OW 9458   2.041  14.455   3.522
 2540SOL    HW1 9459   2.033  14.523   3.589
 2540SOL    HW2 9460   2.098  14.493   3.455
 2541SOL     OW 9461  12.483  11.793   1.817
 2541SOL    HW1 9462  12.565  11.748   1.797
 2541SOL    HW2 9463  12.415  11.738   1.777
 2542SOL     OW 9464  13.109   4.393   7.246
 2542SOL    HW1 9465  13.127   4.487   7.248
 2542SOL    HW2 9466  13.132   4.367   7.157
 2543SOL     OW 9467   6.713   5.523   5.091
 2543SOL    HW1 9468   6.766   5.471   5.151
 2543SOL    HW2 9469   6.662   5.459   5.041
 2544SOL     OW 9470  12.530   0.176  11.382
 2544SOL    HW1 9471  12.526   0.259  11.334
 2544SOL    HW2 9472  12.605   0.185  11.441
 2545SOL     OW 9473  12.295  14.863   0.971
 2545SOL    HW1 9474  12.373  14.810   0.957
 2545SOL    HW2 9475  12.229  14.825   0.912
 2546SOL     OW 9476  12.133   4.623   6.704
 2546SOL    HW1 9477  12.091   4.666   6.778
 2546SOL    HW2 9478  12.122   4.684   6.631
 2547SOL     OW 9479  12.603  14.529   1.584
 2547SOL    HW1 9480  12.692  14.517   1.551
 2547SOL    HW2 9481  12.549  14.473   1.527
 2548SOL     OW 9482  13.544  11.354   2.673
 2548SOL    HW1 9483  13.465  11.322   2.631
 2548SOL    HW2 9484  13.513  11.403   2.749
 2549SOL     OW 9485   9.150  10.325   0.665
 2549SOL    HW1 9486   9.074  10.359   0.712
 2549SOL    HW2 9487   9.141  10.230   0.670
 2550SOL     OW 9488  10.437   2.203   1.687
 2550SOL    HW1 9489  10.451   2.109   1.694
 2550SOL    HW2 9490  10.356   2.218   1.736
 2551SOL     OW 9491   1.530   9.444   6.375
 2551SOL    HW1 9492   1.566   9.393   6.447
 2551SOL    HW2 9493   1.444   9.404   6.358
 2552SOL     OW 9494   5.472   1.853   3.637
 2552SOL    HW1 9495   5.452   1.760   3.648
 2552SOL    HW2 9496   5.417   1.880   3.563
 2553SOL     OW 9497   0.405  13.610   8.118
 2553SOL    HW1 9498   0.404  13.688   8.063
 2553SOL    HW2 9499   0.371  13.640   8.203
 2554SOL     OW 9500   3.990  10.891   2.219
 2554SOL    HW1 9501   4.059  10.958   2.213
 2554SOL    HW2 9502   3.910  10.937   2.193
 2555SOL     OW 9503   8.188   0.559   7.590
 2555SOL    HW1 9504   8.201   0.648   7.622
 2555SOL    HW2 9505   8.265   0.541   7.536
 2556SOL     OW 9506   1.677   3.755  10.976
 2556SOL    HW1 9507   1.643   3.675  10.935
 2556SOL    HW2 9508   1.755   3.726  11.024
 2557SOL     OW 9509   7.215   1.233   4.678
 2557SOL    HW1 9510   7.193   1.320   4.714
 2557SOL    HW2 9511   7.131   1.188   4.675
 2558SOL     OW 9512   7.263   6.552   5.623
 2558SOL    HW1 9513   7.259   6.546   5.528
 2558SOL    HW2 9514   7.191   6.496   5.654
 2559SOL     OW 9515   3.817  11.524  14.237
 2559SOL    HW1 9516   3.850  11.442  14.275
 2559SOL    HW2 9517   3.885  11.550  14.174
 2560SOL     OW 9518   3.566   7.898   9.379
 2560SOL    HW1 9519   3.608   7.947   9.451
 2560SOL    HW2 9520   3.569   7.958   9.305
 2561SOL     OW 9521   1.960   8.889  12.275
 2561SOL    HW1 9522   2.027   8.834  12.234
 2561SOL    HW2 9523   1.943   8.848  12.359
 2562SOL     OW 9524   0.994   1.488   9.507
 2562SOL    HW1 9525   1.028   1.421   9.567
 2562SOL    HW2 9526   0.905   1.458   9.486
 2563SOL     OW 9527   2.258   1.933  12.854
 2563SOL    HW1 9528   2.324   1.880  12.808
 2563SOL    HW2 9529   2.208   1.973  12.783
 2564SOL     OW 9530  13.134  10.169  12.064
 2564SOL    HW1 9531  13.151  10.189  11.972
 2564SOL    HW2 9532  13.221  10.158  12.103
 2565SOL     OW 9533   7.465  10.973   0.821
 2565SOL    HW1 9534   7.473  11.066   0.839
 2565SOL    HW2 9535   7.388  10.945   0.871
 2566SOL     OW 9536   4.377   7.875   9.472
 2566SOL    HW1 9537   4.449   7.924   9.433
 2566SOL    HW2 9538   4.387   7.786   9.438
 2567SOL     OW 9539  11.483  10.650  12.410
 2567SOL    HW1 9540  11.572  10.674  12.436
 2567SOL    HW2 9541  11.440  10.625  12.492
 2568SOL     OW 9542   3.169   0.144   3.454
 2568SOL    HW1 9543   3.134   0.117   3.369
 2568SOL    HW2 9544   3.132   0.082   3.517
 2569SOL     OW 9545  12.900   3.712   3.696
 2569SOL    HW1 9546  12.809   3.719   3.725
 2569SOL    HW2 9547  12.943   3.788   3.735
 2570SOL     OW 9548   0.537   0.791   3.267
 2570SOL    HW1 9549   0.578   0.867   3.307
 2570SOL    HW2 9550   0.607   0.751   3.216
 2571SOL     OW 9551  11.167   6.818   6.374
 2571SOL    HW1 9552  11.093   6.874   6.350
 2571SOL    HW2 9553  11.223   6.873   6.428
 2572SOL     OW 9554   7.242   4.346   2.869
 2572SOL    HW1 9555   7.233   4.288   2.793
 2572SOL    HW2 9556   7.320   4.398   2.850
 2573SOL     OW 9557  14.706   2.807  13.106
 2573SOL    HW1 9558  14.775   2.831  13.167
 2573SOL    HW2 9559  14.632   2.781  13.162
 2574SOL     OW 9560  10.957   4.571   8.536
 2574SOL    HW1 9561  10.969   4.483   8.573
 2574SOL    HW2 9562  10.896   4.559   8.464
 2575SOL     OW 9563  12.105   5.524  11.878
 2575SOL    HW1 9564  12.051   5.590  11.835
 2575SOL    HW2 9565  12.056   5.499  11.956
 2576SOL     OW 9566   4.054   0.383   8.480
 2576SOL    HW1 9567   4.026   0.374   8.388
 2576SOL    HW2 9568   4.131   0.440   8.475
 2577SOL     OW 9569  14.713   5.111  11.838
 2577SOL    HW1 9570  14.717   5.193  11.789
 2577SOL    HW2 9571  14.691   5.045  11.772
 2578SOL     OW 9572   1.262   6.416   8.665
 2578SOL    HW1 9573   1.353   6.385   8.658
 2578SOL    HW2 9574   1.213   6.341   8.696
 2579SOL     OW 9575   4.682   2.057   8.337
 2579SOL    HW1 9576   4.747   2.065   8.267
 2579SOL    HW2 9577   4.626   1.984   8.310
 2580SOL     OW 9578   0.436   6.351  14.584
 2580SOL    HW1 9579   0.372   6.328  14.652
 2580SOL    HW2 9580   0.396   6.322  14.502
 2581SOL     OW 9581   5.226  13.432  10.664
 2581SOL    HW1 9582   5.235  13.413  10.757
 2581SOL    HW2 9583   5.244  13.348  10.621
 2582SOL     OW 9584   6.245   9.215   8.072
 2582SOL    HW1 9585   6.325   9.220   8.020
 2582SOL    HW2 9586   6.179   9.183   8.011
 2583SOL     OW 9587   1.416  12.739  14.161
 2583SOL    HW1 9588   1.428  12.833  14.149
 2583SOL    HW2 9589   1.494  12.711  14.209
 2584SOL     OW 9590  14.681   1.554  11.533
 2584SOL    HW1 9591  14.641   1.631  11.573
 2584SOL    HW2 9592  14.628   1.480  11.563
 2585SOL     OW 9593  10.852   4.781  12.361
 2585SOL    HW1 9594  10.877   4.715  12.425
 2585SOL    HW2 9595  10.895   4.861  12.391
 2586SOL     OW 9596   9.356  12.093   1.976
 2586SOL    HW1 9597   9.329  12.053   1.893
 2586SOL    HW2 9598   9.369  12.186   1.955
 2587SOL     OW 9599  12.003   9.419   9.777
 2587SOL    HW1 9600  11.958   9.358   9.720
 2587SOL    HW2 9601  12.016   9.370   9.859
 2588SOL     OW 9602   8.826   6.326  11.591
 2588SOL    HW1 9603   8.792   6.283  11.669
 2588SOL    HW2 9604   8.818   6.260  11.522
 2589SOL     OW 9605   2.600  12.271  10.716
 2589SOL    HW1 9606   2.682  12.230  10.743
 2589SOL    HW2 9607   2.618  12.365  10.717
 2590SOL     OW 9608   7.491   3.389   0.964
 2590SOL    HW1 9609   7.402   3.420   0.948
 2590SOL    HW2 9610   7.525   3.449   1.031
 2591SOL     OW 9611   1.594   0.227   0.619
 2591SOL    HW1 9612   1.518   0.283   0.638
 2591SOL    HW2 9613   1.667   0.272   0.661
 2592SOL     OW 9614  12.982   3.854   3.387
 2592SOL    HW1 9615  12.962   3.834   3.295
 2592SOL    HW2 9616  13.015   3.772   3.422
 2593SOL     OW 9617  13.349   1.937  10.984
 2593SOL    HW1 9618  13.306   2.021  10.970
 2593SOL    HW2 9619  13.350   1.895  10.898
 2594SOL     OW 9620   0.064   1.164   7.642
 2594SOL    HW1 9621  14.848   1.199   7.646
 2594SOL    HW2 9622   0.065   1.107   7.566
 2595SOL     OW 9623  14.804  12.916   7.717
 2595SOL    HW1 9624  14.847  13.001   7.704
 2595SOL    HW2 9625  14.837  12.862   7.645
 2596SOL     OW 9626   3.180   9.504  13.802
 2596SOL    HW1 9627   3.252   9.545  13.754
 2596SOL    HW2 9628   3.124   9.467  13.734
 2597SOL     OW 9629  10.432   3.337   9.214
 2597SOL    HW1 9630  10.447   3.406   9.150
 2597SOL    HW2 9631  10.415   3.383   9.296
 2598SOL     OW 9632  13.527   6.911   1.403
 2598SOL    HW1 9633  13.589   6.841   1.384
 2598SOL    HW2 9634  13.518   6.910   1.498
 2599SOL     OW 9635   0.108   8.976   4.177
 2599SOL    HW1 9636   0.118   8.908   4.111
 2599SOL    HW2 9637   0.049   8.939   4.242
 2600SOL     OW 9638   4.573   2.788   6.671
 2600SOL    HW1 9639   4.503   2.819   6.613
 2600SOL    HW2 9640   4.623   2.867   6.693
 2601SOL     OW 9641   0.685   8.056  11.955
 2601SOL    HW1 9642   0.707   7.964  11.944
 2601SOL    HW2 9643   0.701   8.075  12.047
 2602SOL     OW 9644   3.167  10.956   0.686
 2602SOL    HW1 9645   3.076  10.928   0.680
 2602SOL    HW2 9646   3.192  10.977   0.596
 2603SOL     OW 9647   9.557  11.579  10.461
 2603SOL    HW1 9648   9.615  11.624  10.523
 2603SOL    HW2 9649   9.516  11.509  10.513
 2604SOL     OW 9650   3.145   3.117   5.315
 2604SOL    HW1 9651   3.152   3.127   5.220
 2604SOL    HW2 9652   3.181   3.030   5.333
 2605SOL     OW 9653   7.942   4.106   7.917
 2605SOL    HW1 9654   8.037   4.103   7.927
 2605SOL    HW2 9655   7.909   4.108   8.007
 2606SOL     OW 9656   1.696   9.774   1.367
 2606SOL    HW1 9657   1.757   9.798   1.296
 2606SOL    HW2 9658   1.739   9.805   1.447
 2607SOL     OW 9659   3.177   5.912   6.249
 2607SOL    HW1 9660   3.126   5.993   6.252
 2607SOL    HW2 9661   3.112   5.842   6.245
 2608SOL     OW 9662  12.510  10.072   7.998
 2608SOL    HW1 9663  12.489  10.164   8.015
 2608SOL    HW2 9664  12.429  10.025   8.015
 2609SOL     OW 9665  11.137  11.139   1.942
 2609SOL    HW1 9666  11.162  11.071   2.005
 2609SOL    HW2 9667  11.043  11.126   1.929
 2610SOL     OW 9668  12.288  11.035   3.904
 2610SOL    HW1 9669  12.320  11.109   3.854
 2610SOL    HW2 9670  12.260  10.971   3.837
 2611SOL     OW 9671   8.575   0.949   1.368
 2611SOL    HW1 9672   8.641   0.956   1.299
 2611SOL    HW2 9673   8.625   0.928   1.447
 2612SOL     OW 9674  10.385   6.046  13.753
 2612SOL    HW1 9675  10.382   6.131  13.796
 2612SOL    HW2 9676  10.399   5.983  13.824
 2613SOL     OW 9677   1.391   4.802   9.045
 2613SOL    HW1 9678   1.311   4.855   9.044
 2613SOL    HW2 9679   1.453   4.851   8.992
 2614SOL     OW 9680   6.323   3.440   9.779
 2614SOL    HW1 9681   6.326   3.389   9.698
 2614SOL    HW2 9682   6.399   3.498   9.773
 2615SOL     OW 9683   5.669  11.203   8.381
 2615SOL    HW1 9684   5.599  11.182   8.320
 2615SOL    HW2 9685   5.749  11.199   8.329
 2616SOL     OW 9686   9.830   9.761   6.969
 2616SOL    HW1 9687   9.915   9.791   7.002
 2616SOL    HW2 9688   9.846   9.744   6.876
 2617SOL     OW 9689  11.462   1.530  12.135
 2617SOL    HW1 9690  11.541   1.581  12.122
 2617SOL    HW2 9691  11.462   1.509  12.229
 2618SOL     OW 9692  10.341   6.993   3.437
 2618SOL    HW1 9693  10.307   6.915   3.481
 2618SOL    HW2 9694  10.367   7.051   3.509
 2619SOL     OW 9695  10.350  10.871   1.096
 2619SOL    HW1 9696  10.290  10.804   1.128
 2619SOL    HW2 9697  10.410  10.887   1.169
 2620SOL     OW 9698  12.003  12.801   2.724
 2620SOL    HW1 9699  11.990  12.855   2.646
 2620SOL    HW2 9700  12.095  12.778   2.722
 2621SOL     OW 9701  13.851   3.652   1.982
 2621SOL    HW1 9702  13.890   3.720   1.927
 2621SOL    HW2 9703  13.883   3.672   2.070
 2622SOL     OW 9704  13.373  10.330  10.651
 2622SOL    HW1 9705  13.341  10.392  10.717
 2622SOL    HW2 9706  13.358  10.244  10.690
 2623SOL     OW 9707  12.119  12.913   0.568
 2623SOL    HW1 9708  12.048  12.856   0.541
 2623SOL    HW2 9709  12.187  12.900   0.502
 2624SOL     OW 9710   6.516  11.974  13.491
 2624SOL    HW1 9711   6.521  11.888  13.448
 2624SOL    HW2 9712   6.592  12.022  13.457
 2625SOL     OW 9713   2.517   6.720   4.095
 2625SOL    HW1 9714   2.514   6.635   4.050
 2625SOL    HW2 9715   2.610   6.736   4.109
 2626SOL     OW 9716   3.758   6.163   2.522
 2626SOL    HW1 9717   3.812   6.215   2.582
 2626SOL    HW2 9718   3.809   6.084   2.506
 2627SOL     OW 9719  11.835   0.735  11.607
 2627SOL    HW1 9720  11.791   0.716  11.691
 2627SOL    HW2 9721  11.874   0.651  11.581
 2628SOL     OW 9722   3.620   4.884   1.128
 2628SOL    HW1 9723   3.670   4.959   1.096
 2628SOL    HW2 9724   3.591   4.837   1.050
 2629SOL     OW 9725  11.641   6.756   6.118
 2629SOL    HW1 9726  11.579   6.782   6.049
 2629SOL    HW2 9727  11.588   6.753   6.198
 2630SOL     OW 9728   8.640   3.169  13.792
 2630SOL    HW1 9729   8.711   3.120  13.834
 2630SOL    HW2 9730   8.592   3.208  13.864
 2631SOL     OW 9731  11.172  12.355  12.901
 2631SOL    HW1 9732  11.243  12.364  12.838
 2631SOL    HW2 9733  11.149  12.262  12.898
 2632SOL     OW 9734   2.612   5.200   1.807
 2632SOL    HW1 9735   2.660   5.131   1.761
 2632SOL    HW2 9736   2.524   5.164   1.818
 2633SOL     OW 9737  13.233  10.766   2.016
 2633SOL    HW1 9738  13.275  10.815   1.945
 2633SOL    HW2 9739  13.214  10.832   2.082
 2634SOL     OW 9740  11.576   9.486   3.595
 2634SOL    HW1 9741  11.641   9.528   3.651
 2634SOL    HW2 9742  11.622   9.413   3.555
 2635SOL     OW 9743   4.079   7.027   4.199
 2635SOL    HW1 9744   4.083   6.996   4.289
 2635SOL    HW2 9745   4.146   6.976   4.153
 2636SOL     OW 9746  14.542   7.095   4.184
 2636SOL    HW1 9747  14.603   7.028   4.214
 2636SOL    HW2 9748  14.456   7.058   4.202
 2637SOL     OW 9749   1.558   4.151   1.131
 2637SOL    HW1 9750   1.565   4.247   1.137
 2637SOL    HW2 9751   1.517   4.136   1.046
 2638SOL     OW 9752   7.677   3.613  11.756
 2638SOL    HW1 9753   7.620   3.655  11.821
 2638SOL    HW2 9754   7.701   3.684  11.697
 2639SOL     OW 9755   1.073   1.458   4.205
 2639SOL    HW1 9756   1.064   1.366   4.178
 2639SOL    HW2 9757   0.984   1.493   4.200
 2640SOL     OW 9758   5.467   1.537   3.641
 2640SOL    HW1 9759   5.388   1.570   3.599
 2640SOL    HW2 9760   5.447   1.445   3.660
 2641SOL     OW 9761   8.871  13.653   2.025
 2641SOL    HW1 9762   8.807  13.676   2.092
 2641SOL    HW2 9763   8.855  13.560   2.007
 2642SOL     OW 9764  12.079   6.585   9.595
 2642SOL    HW1 9765  12.099   6.585   9.688
 2642SOL    HW2 9766  11.983   6.575   9.591
 2643SOL     OW 9767   0.215  11.066   8.524
 2643SOL    HW1 9768   0.281  11.101   8.583
 2643SOL    HW2 9769   0.159  11.012   8.580
 2644SOL     OW 9770  11.594   1.108   2.168
 2644SOL    HW1 9771  11.558   1.185   2.125
 2644SOL    HW2 9772  11.674   1.089   2.119
 2645SOL     OW 9773   1.670  11.731   6.814
 2645SOL    HW1 9774   1.651  11.802   6.752
 2645SOL    HW2 9775   1.720  11.773   6.884
 2646SOL     OW 9776  14.787   0.588   2.359
 2646SOL    HW1 9777  14.805   0.532   2.434
 2646SOL    HW2 9778  14.714   0.643   2.387
 2647SOL     OW 9779   5.297   5.857   1.942
 2647SOL    HW1 9780   5.321   5.824   1.855
 2647SOL    HW2 9781   5.354   5.933   1.955
 2648SOL     OW 9782  13.778   5.317   6.498
 2648SOL    HW1 9783  13.815   5.405   6.503
 2648SOL    HW2 9784  13.688   5.327   6.529
 2649SOL     OW 9785   4.190   5.691   7.158
 2649SOL    HW1 9786   4.271   5.695   7.208
 2649SOL    HW2 9787   4.134   5.756   7.200
 2650SOL     OW 9788   7.898   6.917   5.301
 2650SOL    HW1 9789   7.882   6.980   5.371
 2650SOL    HW2 9790   7.824   6.857   5.305
 2651SOL     OW 9791   2.189   4.711   0.281
 2651SOL    HW1 9792   2.094   4.725   0.280
 2651SOL    HW2 9793   2.213   4.700   0.189
 2652SOL     OW 9794   7.572  11.873   1.380
 2652SOL    HW1 9795   7.642  11.936   1.395
 2652SOL    HW2 9796   7.591  11.837   1.293
 2653SOL     OW 9797   5.984   5.992  13.618
 2653SOL    HW1 9798   6.075   5.970  13.602
 2653SOL    HW2 9799   5.982   6.020  13.710
 2654SOL     OW 9800  11.590  11.450   8.177
 2654SOL    HW1 9801  11.614  11.359   8.158
 2654SOL    HW2 9802  11.531  11.444   8.252
 2655SOL     OW 9803   2.019  13.868   6.263
 2655SOL    HW1 9804   2.053  13.955   6.287
 2655SOL    HW2 9805   2.019  13.868   6.167
 2656SOL     OW 9806  10.329   6.003   1.943
 2656SOL    HW1 9807  10.341   5.926   1.887
 2656SOL    HW2 9808  10.373   5.979   2.025
 2657SOL     OW 9809   9.263   5.289   4.007
 2657SOL    HW1 9810   9.302   5.239   3.935
 2657SOL    HW2 9811   9.318   5.367   4.015
 2658SOL     OW 9812   9.486   9.069  10.191
 2658SOL    HW1 9813   9.471   9.083  10.284
 2658SOL    HW2 9814   9.528   8.984  10.185
 2659SOL     OW 9815   4.388  10.508   9.776
 2659SOL    HW1 9816   4.386  10.573   9.705
 2659SOL    HW2 9817   4.449  10.441   9.745
 2660SOL     OW 9818   1.113   0.664   2.926
 2660SOL    HW1 9819   1.053   0.611   2.873
 2660SOL    HW2 9820   1.075   0.661   3.014
 2661SOL     OW 9821  11.323  13.181  12.170
 2661SOL    HW1 9822  11.380  13.258  12.166
 2661SOL    HW2 9823  11.378  13.108  12.141
 2662SOL     OW 9824   8.394  12.690   0.158
 2662SOL    HW1 9825   8.470  12.736   0.194
 2662SOL    HW2 9826   8.427  12.648   0.078
 2663SOL     OW 9827  14.510   7.501   7.825
 2663SOL    HW1 9828  14.506   7.588   7.865
 2663SOL    HW2 9829  14.507   7.518   7.731
 2664SOL     OW 9830   3.040   2.090   4.251
 2664SOL    HW1 9831   2.956   2.061   4.287
 2664SOL    HW2 9832   3.066   2.163   4.306
 2665SOL     OW 9833  10.562   5.411   8.515
 2665SOL    HW1 9834  10.646   5.388   8.554
 2665SOL    HW2 9835  10.561   5.367   8.431
 2666SOL     OW 9836   9.128   7.410   3.866
 2666SOL    HW1 9837   9.139   7.315   3.858
 2666SOL    HW2 9838   9.036   7.426   3.848
 2667SOL     OW 9839   2.243   0.279   1.038
 2667SOL    HW1 9840   2.201   0.359   1.006
 2667SOL    HW2 9841   2.314   0.263   0.977
 2668SOL     OW 9842   1.829   9.704   1.791
 2668SOL    HW1 9843   1.897   9.640   1.814
 2668SOL    HW2 9844   1.854   9.735   1.704
 2669SOL     OW 9845   3.461   5.301   2.161
 2669SOL    HW1 9846   3.403   5.228   2.183
 2669SOL    HW2 9847   3.533   5.262   2.112
 2670SOL     OW 9848   3.610   1.385  11.717
 2670SOL    HW1 9849   3.703   1.399  11.738
 2670SOL    HW2 9850   3.608   1.377  11.621
 2671SOL     OW 9851   8.392   5.210  12.339
 2671SOL    HW1 9852   8.486   5.200  12.349
 2671SOL    HW2 9853   8.377   5.204  12.244
 2672SOL     OW 9854   7.141   3.494   3.365
 2672SOL    HW1 9855   7.070   3.556   3.348
 2672SOL    HW2 9856   7.143   3.438   3.287
 2673SOL     OW 9857   5.160  13.050   7.817
 2673SOL    HW1 9858   5.129  12.960   7.811
 2673SOL    HW2 9859   5.209  13.053   7.899
 2674SOL     OW 9860  13.749   5.000   1.959
 2674SOL    HW1 9861  13.761   4.948   1.879
 2674SOL    HW2 9862  13.697   5.076   1.931
 2675SOL     OW 9863   2.447   5.206  11.705
 2675SOL    HW1 9864   2.536   5.205  11.669
 2675SOL    HW2 9865   2.391   5.211  11.627
 2676SOL     OW 9866  10.366   5.572   3.751
 2676SOL    HW1 9867  10.452   5.612   3.740
 2676SOL    HW2 9868  10.315   5.638   3.799
 2677SOL     OW 9869  12.309  10.692   5.347
 2677SOL    HW1 9870  12.260  10.679   5.266
 2677SOL    HW2 9871  12.243  10.682   5.416
 2678SOL     OW 9872   5.946  12.244  13.973
 2678SOL    HW1 9873   6.024  12.288  13.940
 2678SOL    HW2 9874   5.973  12.152  13.982
 2679SOL     OW 9875   3.475   9.366   5.854
 2679SOL    HW1 9876   3.467   9.290   5.912
 2679SOL    HW2 9877   3.532   9.426   5.901
 2680SOL     OW 9878  13.617  14.501   5.817
 2680SOL    HW1 9879  13.574  14.541   5.892
 2680SOL    HW2 9880  13.681  14.565   5.789
 2681SOL     OW 9881   4.020   6.483   5.757
 2681SOL    HW1 9882   4.010   6.422   5.830
 2681SOL    HW2 9883   3.985   6.566   5.790
 2682SOL     OW 9884   7.396   2.277   7.720
 2682SOL    HW1 9885   7.363   2.363   7.745
 2682SOL    HW2 9886   7.481   2.270   7.763
 2683SOL     OW 9887   6.758  10.542  10.526
 2683SOL    HW1 9888   6.809  10.465  10.549
 2683SOL    HW2 9889   6.782  10.608  10.591
 2684SOL     OW 9890   8.728   8.479   4.479
 2684SOL    HW1 9891   8.665   8.433   4.424
 2684SOL    HW2 9892   8.675   8.517   4.550
 2685SOL     OW 9893   2.357   8.033  11.045
 2685SOL    HW1 9894   2.445   8.044  11.079
 2685SOL    HW2 9895   2.366   7.971  10.973
 2686SOL     OW 9896  12.506   0.859   4.547
 2686SOL    HW1 9897  12.497   0.919   4.473
 2686SOL    HW2 9898  12.449   0.896   4.615
 2687SOL     OW 9899   8.328   8.908   8.155
 2687SOL    HW1 9900   8.363   8.930   8.069
 2687SOL    HW2 9901   8.372   8.968   8.215
 2688SOL     OW 9902   4.595   1.282   2.270
 2688SOL    HW1 9903   4.685   1.287   2.235
 2688SOL    HW2 9904   4.599   1.213   2.336
 2689SOL     OW 9905   0.938  10.206  12.369
 2689SOL    HW1 9906   0.875  10.217  12.440
 2689SOL    HW2 9907   1.015  10.256  12.397
 2690SOL     OW 9908  14.090  11.464  13.449
 2690SOL    HW1 9909  14.054  11.381  13.417
 2690SOL    HW2 9910  14.030  11.491  13.519
 2691SOL     OW 9911   9.027   1.480  11.778
 2691SOL    HW1 9912   8.940   1.478  11.817
 2691SOL    HW2 9913   9.076   1.413  11.826
 2692SOL     OW 9914  11.798  13.098   4.984
 2692SOL    HW1 9915  11.741  13.024   5.005
 2692SOL    HW2 9916  11.739  13.164   4.948
 2693SOL     OW 9917   7.531   4.703  14.223
 2693SOL    HW1 9918   7.477   4.661  14.290
 2693SOL    HW2 9919   7.520   4.649  14.146
 2694SOL     OW 9920  12.932   4.896   7.180
 2694SOL    HW1 9921  12.853   4.850   7.210
 2694SOL    HW2 9922  12.908   4.988   7.181
 2695SOL     OW 9923  10.848  13.986   5.896
 2695SOL    HW1 9924  10.942  14.004   5.895
 2695SOL    HW2 9925  10.808  14.070   5.920
 2696SOL     OW 9926   0.468   8.756   9.251
 2696SOL    HW1 9927   0.384   8.766   9.207
 2696SOL    HW2 9928   0.482   8.840   9.295
 2697SOL     OW 9929  10.982   3.428   2.331
 2697SOL    HW1 9930  11.006   3.336   2.346
 2697SOL    HW2 9931  10.969   3.464   2.419
 2698SOL     OW 9932   0.485   6.324   0.096
 2698SOL    HW1 9933   0.473   6.417   0.076
 2698SOL    HW2 9934   0.572   6.304   0.063
 2699SOL     OW 9935   1.918   8.912   3.281
 2699SOL    HW1 9936   1.947   8.846   3.342
 2699SOL    HW2 9937   1.999   8.952   3.247
 2700SOL     OW 9938  12.122   9.300   8.171
 2700SOL    HW1 9939  12.212   9.333   8.176
 2700SOL    HW2 9940  12.079   9.356   8.106
 2701SOL     OW 9941   3.377   9.108   8.974
 2701SOL    HW1 9942   3.372   9.134   8.882
 2701SOL    HW2 9943   3.386   9.013   8.972
 2702SOL     OW 9944   9.904  11.645  14.695
 2702SOL    HW1 9945   9.921  11.573  14.757
 2702SOL    HW2 9946   9.837  11.610  14.636
 2703SOL     OW 9947   7.568   9.754   5.181
 2703SOL    HW1 9948   7.565   9.826   5.244
 2703SOL    HW2 9949   7.597   9.796   5.099
 2704SOL     OW 9950   4.012  10.419   9.685
 2704SOL    HW1 9951   4.045  10.479   9.752
 2704SOL    HW2 9952   4.090  10.391   9.637
 2705SOL     OW 9953   5.644   8.028   6.743
 2705SOL    HW1 9954   5.648   8.038   6.647
 2705SOL    HW2 9955   5.646   8.117   6.776
 2706SOL     OW 9956   9.940   4.905   8.991
 2706SOL    HW1 9957   9.898   4.914   8.905
 2706SOL    HW2 9958   9.874   4.936   9.053
 2707SOL     OW 9959  12.503   5.323   2.430
 2707SOL    HW1 9960  12.551   5.344   2.350
 2707SOL    HW2 9961  12.517   5.229   2.442
 2708SOL     OW 9962   6.718   4.797   1.259
 2708SOL    HW1 9963   6.655   4.865   1.282
 2708SOL    HW2 9964   6.799   4.823   1.302
 2709SOL     OW 9965  11.734  10.444  13.365
 2709SOL    HW1 9966  11.806  10.483  13.316
 2709SOL    HW2 9967  11.663  10.508  13.358
 2710SOL     OW 9968  13.647   3.173   2.446
 2710SOL    HW1 9969  13.656   3.109   2.375
 2710SOL    HW2 9970  13.646   3.258   2.401
 2711SOL     OW 9971  12.325   4.262   0.128
 2711SOL    HW1 9972  12.265   4.188   0.124
 2711SOL    HW2 9973  12.412   4.222   0.132
 2712SOL     OW 9974  13.357   8.612  13.311
 2712SOL    HW1 9975  13.301   8.601  13.234
 2712SOL    HW2 9976  13.442   8.636  13.275
 2713SOL     OW 9977   5.398  13.399   3.533
 2713SOL    HW1 9978   5.333  13.391   3.463
 2713SOL    HW2 9979   5.425  13.309   3.552
 2714SOL     OW 9980  10.947   8.424   3.389
 2714SOL    HW1 9981  10.958   8.422   3.484
 2714SOL    HW2 9982  11.009   8.490   3.359
 2715SOL     OW 9983   2.874  14.038  13.147
 2715SOL    HW1 9984   2.807  13.981  13.111
 2715SOL    HW2 9985   2.833  14.124  13.152
 2716SOL     OW 9986   5.423   4.866   0.405
 2716SOL    HW1 9987   5.451   4.798   0.343
 2716SOL    HW2 9988   5.332   4.844   0.424
 2717SOL     OW 9989  11.478   4.806   2.435
 2717SOL    HW1 9990  11.525   4.829   2.515
 2717SOL    HW2 9991  11.529   4.847   2.365
 2718SOL     OW 9992   5.189   3.538  13.292
 2718SOL    HW1 9993   5.201   3.599  13.219
 2718SOL    HW2 9994   5.268   3.549  13.346
 2719SOL     OW 9995   9.854  14.151   4.664
 2719SOL    HW1 9996   9.910  14.081   4.699
 2719SOL    HW2 9997   9.795  14.106   4.604
 2720SOL     OW 9998   2.032   0.799   9.046
 2720SOL    HW1 9999   2.056   0.866   8.982
 2720SOL    HW210000   2.093   0.727   9.030
 2721SOL     OW10001  10.923   6.475   2.196
 2721SOL    HW110002  10.895   6.557   2.235
 2721SOL    HW210003  10.848   6.416   2.207
 2722SOL     OW10004   0.994   1.579   2.516
 2722SOL    HW110005   0.910   1.609   2.552
 2722SOL    HW210006   1.035   1.657   2.480
 2723SOL     OW10007   2.173  12.542   7.261
 2723SOL    HW110008   2.260  12.579   7.242
 2723SOL    HW210009   2.112  12.612   7.238
 2724SOL     OW10010   5.300  13.105   4.672
 2724SOL    HW110011   5.297  13.193   4.636
 2724SOL    HW210012   5.293  13.117   4.766
 2725SOL     OW10013   6.979   6.379  11.333
 2725SOL    HW110014   6.916   6.313  11.363
 2725SOL    HW210015   6.944   6.409  11.249
 2726SOL     OW10016   5.491   6.092  10.866
 2726SOL    HW110017   5.467   6.178  10.833
 2726SOL    HW210018   5.425   6.033  10.830
 2727SOL     OW10019   3.187   8.193  10.312
 2727SOL    HW110020   3.211   8.126  10.376
 2727SOL    HW210021   3.155   8.266  10.364
 2728SOL     OW10022   4.981   4.179  14.357
 2728SOL    HW110023   4.907   4.230  14.322
 2728SOL    HW210024   4.990   4.210  14.447
 2729SOL     OW10025   7.437   5.663   4.412
 2729SOL    HW110026   7.374   5.735   4.413
 2729SOL    HW210027   7.400   5.599   4.351
 2730SOL     OW10028   3.900   6.058   2.229
 2730SOL    HW110029   3.953   5.987   2.192
 2730SOL    HW210030   3.904   6.043   2.323
 2731SOL     OW10031   7.326   0.283  11.357
 2731SOL    HW110032   7.267   0.230  11.304
 2731SOL    HW210033   7.302   0.262  11.447
 2732SOL     OW10034  10.830  14.001   4.398
 2732SOL    HW110035  10.833  14.061   4.323
 2732SOL    HW210036  10.802  13.918   4.361
 2733SOL     OW10037   2.733   0.545  14.742
 2733SOL    HW110038   2.727   0.641  14.740
 2733SOL    HW210039   2.825   0.528  14.761
 2734SOL     OW10040   3.645  14.566  14.626
 2734SOL    HW110041   3.736  14.580  14.601
 2734SOL    HW210042   3.596  14.635  14.581
 2735SOL     OW10043  13.189   9.134   9.836
 2735SOL    HW110044  13.118   9.160   9.895
 2735SOL    HW210045  13.230   9.059   9.880
 2736SOL     OW10046   1.587  12.660   4.585
 2736SOL    HW110047   1.555  12.713   4.512
 2736SOL    HW210048   1.655  12.714   4.626
 2737SOL     OW10049   9.404   2.484   2.280
 2737SOL    HW110050   9.478   2.492   2.341
 2737SOL    HW210051   9.328   2.510   2.331
 2738SOL     OW10052   5.557   1.794   9.347
 2738SOL    HW110053   5.509   1.860   9.396
 2738SOL    HW210054   5.603   1.743   9.414
 2739SOL     OW10055  11.409   5.067   9.154
 2739SOL    HW110056  11.408   5.104   9.065
 2739SOL    HW210057  11.492   5.094   9.191
 2740SOL     OW10058   8.619  10.578   5.857
 2740SOL    HW110059   8.596  10.548   5.769
 2740SOL    HW210060   8.553  10.644   5.878
 2741SOL     OW10061   9.516   1.155  11.310
 2741SOL    HW110062   9.491   1.132  11.221
 2741SOL    HW210063   9.440   1.201  11.346
 2742SOL     OW10064   7.960  11.198  12.227
 2742SOL    HW110065   7.905  11.119  12.230
 2742SOL    HW210066   8.004  11.193  12.142
 2743SOL     OW10067   8.682   7.156   0.195
 2743SOL    HW110068   8.771   7.162   0.229
 2743SOL    HW210069   8.627   7.196   0.263
 2744SOL     OW10070   6.348   4.454   5.780
 2744SOL    HW110071   6.327   4.445   5.687
 2744SOL    HW210072   6.331   4.367   5.817
 2745SOL     OW10073   4.212   2.524   7.767
 2745SOL    HW110074   4.304   2.548   7.782
 2745SOL    HW210075   4.162   2.598   7.801
 2746SOL     OW10076   8.880  12.525   0.545
 2746SOL    HW110077   8.885  12.525   0.449
 2746SOL    HW210078   8.959  12.479   0.573
 2747SOL     OW10079   5.868   4.929  10.584
 2747SOL    HW110080   5.882   4.992  10.513
 2747SOL    HW210081   5.816   4.977  10.649
 2748SOL     OW10082   6.765  13.332   9.160
 2748SOL    HW110083   6.729  13.276   9.229
 2748SOL    HW210084   6.852  13.356   9.191
 2749SOL     OW10085   3.096  14.633  10.298
 2749SOL    HW110086   3.024  14.695  10.306
 2749SOL    HW210087   3.054  14.547  10.297
 2750SOL     OW10088   9.347  11.353   2.209
 2750SOL    HW110089   9.356  11.445   2.233
 2750SOL    HW210090   9.398  11.306   2.275
 2751SOL     OW10091   5.807  11.484   5.395
 2751SOL    HW110092   5.807  11.479   5.300
 2751SOL    HW210093   5.738  11.547   5.416
 2752SOL     OW10094   3.405   9.248   9.356
 2752SOL    HW110095   3.452   9.330   9.343
 2752SOL    HW210096   3.368   9.255   9.444
 2753SOL     OW10097  13.241   7.374   4.158
 2753SOL    HW110098  13.302   7.356   4.230
 2753SOL    HW210099  13.256   7.466   4.137
 2754SOL     OW10100   2.566  13.869   4.155
 2754SOL    HW110101   2.654  13.864   4.195
 2754SOL    HW210102   2.580  13.911   4.071
 2755SOL     OW10103   6.456   1.411   4.665
 2755SOL    HW110104   6.376   1.399   4.613
 2755SOL    HW210105   6.424   1.424   4.754
 2756SOL     OW10106   0.344   9.010   5.670
 2756SOL    HW110107   0.259   9.050   5.649
 2756SOL    HW210108   0.379   8.984   5.585
 2757SOL     OW10109  11.873   7.269  11.350
 2757SOL    HW110110  11.963   7.278  11.381
 2757SOL    HW210111  11.836   7.197  11.401
 2758SOL     OW10112  10.000   0.934   1.552
 2758SOL    HW110113  10.028   0.866   1.613
 2758SOL    HW210114  10.075   0.992   1.543
 2759SOL     OW10115  10.924  12.146   9.444
 2759SOL    HW110116  11.005  12.102   9.471
 2759SOL    HW210117  10.938  12.238   9.467
 2760SOL     OW10118  12.454   7.996   2.780
 2760SOL    HW110119  12.377   7.938   2.788
 2760SOL    HW210120  12.439   8.064   2.846
 2761SOL     OW10121   4.411   7.124   3.091
 2761SOL    HW110122   4.467   7.159   3.022
 2761SOL    HW210123   4.345   7.191   3.106
 2762SOL     OW10124  13.889   8.401   5.987
 2762SOL    HW110125  13.798   8.422   5.964
 2762SOL    HW210126  13.937   8.412   5.905
 2763SOL     OW10127   4.922  12.794  10.635
 2763SOL    HW110128   4.829  12.777  10.619
 2763SOL    HW210129   4.925  12.883  10.669
 2764SOL     OW10130   6.398   7.127   3.355
 2764SOL    HW110131   6.475   7.122   3.411
 2764SOL    HW210132   6.432   7.147   3.268
 2765SOL     OW10133  12.443   2.012   9.803
 2765SOL    HW110134  12.456   1.950   9.732
 2765SOL    HW210135  12.475   1.966   9.881
 2766SOL     OW10136  14.506   5.661   6.501
 2766SOL    HW110137  14.534   5.631   6.588
 2766SOL    HW210138  14.578   5.637   6.443
 2767SOL     OW10139   3.966  12.984   4.152
 2767SOL    HW110140   3.892  12.948   4.103
 2767SOL    HW210141   4.037  12.922   4.135
 2768SOL     OW10142   8.999   3.671   1.499
 2768SOL    HW110143   8.904   3.684   1.498
 2768SOL    HW210144   9.030   3.735   1.563
 2769SOL     OW10145   4.696   8.732  14.724
 2769SOL    HW110146   4.633   8.743  14.653
 2769SOL    HW210147   4.714   8.822  14.753
 2770SOL     OW10148   9.891  13.094   3.613
 2770SOL    HW110149   9.953  13.165   3.626
 2770SOL    HW210150   9.805  13.138   3.609
 2771SOL     OW10151   6.980   4.465   3.524
 2771SOL    HW110152   7.057   4.513   3.494
 2771SOL    HW210153   6.914   4.482   3.457
 2772SOL     OW10154  11.926  14.398   0.343
 2772SOL    HW110155  12.020  14.384   0.329
 2772SOL    HW210156  11.894  14.313   0.373
 2773SOL     OW10157  12.597   8.307   8.554
 2773SOL    HW110158  12.638   8.379   8.507
 2773SOL    HW210159  12.603   8.331   8.646
 2774SOL     OW10160  10.008   3.869   9.401
 2774SOL    HW110161   9.957   3.940   9.440
 2774SOL    HW210162  10.012   3.891   9.308
 2775SOL     OW10163   9.412  13.097  11.584
 2775SOL    HW110164   9.473  13.134  11.648
 2775SOL    HW210165   9.331  13.145  11.598
 2776SOL     OW10166   9.448   9.718   0.929
 2776SOL    HW110167   9.478   9.664   0.856
 2776SOL    HW210168   9.353   9.723   0.917
 2777SOL     OW10169   9.359   4.086   4.101
 2777SOL    HW110170   9.454   4.079   4.104
 2777SOL    HW210171   9.337   4.080   4.008
 2778SOL     OW10172   5.260   2.537   9.677
 2778SOL    HW110173   5.297   2.458   9.716
 2778SOL    HW210174   5.165   2.525   9.684
 2779SOL     OW10175   7.096   0.541  10.068
 2779SOL    HW110176   7.100   0.555   9.973
 2779SOL    HW210177   7.007   0.511  10.084
 2780SOL     OW10178  13.447   6.273   1.654
 2780SOL    HW110179  13.438   6.196   1.711
 2780SOL    HW210180  13.524   6.318   1.686
 2781SOL     OW10181  13.031   5.247   3.914
 2781SOL    HW110182  12.946   5.289   3.901
 2781SOL    HW210183  13.058   5.220   3.826
 2782SOL     OW10184   4.941  13.136  11.022
 2782SOL    HW110185   4.974  13.104  11.106
 2782SOL    HW210186   4.959  13.229  11.023
 2783SOL     OW10187   4.789   1.361   7.445
 2783SOL    HW110188   4.883   1.364   7.423
 2783SOL    HW210189   4.773   1.270   7.467
 2784SOL     OW10190   4.498  11.431   6.973
 2784SOL    HW110191   4.537  11.348   6.943
 2784SOL    HW210192   4.500  11.424   7.069
 2785SOL     OW10193   6.971  11.739   0.630
 2785SOL    HW110194   6.993  11.831   0.617
 2785SOL    HW210195   6.886  11.728   0.585
 2786SOL     OW10196   3.869   0.684   8.436
 2786SOL    HW110197   3.891   0.692   8.343
 2786SOL    HW210198   3.953   0.666   8.479
 2787SOL     OW10199   7.847   5.688  11.540
 2787SOL    HW110200   7.901   5.698  11.462
 2787SOL    HW210201   7.757   5.689  11.507
 2788SOL     OW10202   5.559  12.096   9.871
 2788SOL    HW110203   5.597  12.114   9.785
 2788SOL    HW210204   5.631  12.110   9.933
 2789SOL     OW10205  10.266   2.823   8.447
 2789SOL    HW110206  10.272   2.738   8.490
 2789SOL    HW210207  10.355   2.859   8.451
 2790SOL     OW10208   8.118  13.958   2.575
 2790SOL    HW110209   8.097  13.938   2.484
 2790SOL    HW210210   8.212  13.978   2.574
 2791SOL     OW10211   7.789   6.468   4.489
 2791SOL    HW110212   7.774   6.458   4.395
 2791SOL    HW210213   7.701   6.470   4.527
 2792SOL     OW10214   4.467   2.785   5.316
 2792SOL    HW110215   4.407   2.834   5.372
 2792SOL    HW210216   4.450   2.817   5.228
 2793SOL     OW10217   7.866   6.869   8.432
 2793SOL    HW110218   7.959   6.892   8.434
 2793SOL    HW210219   7.860   6.789   8.485
 2794SOL     OW10220  10.939   8.587   1.503
 2794SOL    HW110221  11.034   8.599   1.507
 2794SOL    HW210222  10.916   8.549   1.588
 2795SOL     OW10223   5.079   5.018   1.112
 2795SOL    HW110224   5.092   5.034   1.205
 2795SOL    HW210225   5.073   5.106   1.073
 2796SOL     OW10226   0.169   4.164   5.127
 2796SOL    HW110227   0.187   4.102   5.056
 2796SOL    HW210228   0.077   4.188   5.115
 2797SOL     OW10229   6.312   3.574   7.573
 2797SOL    HW110230   6.362   3.521   7.510
 2797SOL    HW210231   6.291   3.513   7.644
 2798SOL     OW10232   6.549  14.577   4.438
 2798SOL    HW110233   6.635  14.616   4.422
 2798SOL    HW210234   6.492  14.652   4.459
 2799SOL     OW10235  14.714   0.722   9.569
 2799SOL    HW110236  14.685   0.744   9.658
 2799SOL    HW210237  14.695   0.629   9.559
 2800SOL     OW10238   9.721   0.278  13.900
 2800SOL    HW110239   9.632   0.261  13.933
 2800SOL    HW210240   9.765   0.324  13.971
 2801SOL     OW10241  11.774   2.858   0.014
 2801SOL    HW110242  11.802   2.839  14.798
 2801SOL    HW210243  11.679   2.867   0.009
 2802SOL     OW10244   5.002  12.480   1.900
 2802SOL    HW110245   5.055  12.558   1.920
 2802SOL    HW210246   5.018  12.422   1.974
 2803SOL     OW10247   5.342   8.160   3.128
 2803SOL    HW110248   5.265   8.126   3.175
 2803SOL    HW210249   5.414   8.149   3.190
 2804SOL     OW10250   3.902   8.174   6.707
 2804SOL    HW110251   3.963   8.230   6.658
 2804SOL    HW210252   3.946   8.089   6.712
 2805SOL     OW10253  10.096   4.916  14.089
 2805SOL    HW110254  10.075   4.865  14.011
 2805SOL    HW210255  10.012   4.951  14.119
 2806SOL     OW10256   6.779  14.164   3.164
 2806SOL    HW110257   6.822  14.090   3.208
 2806SOL    HW210258   6.689  14.134   3.149
 2807SOL     OW10259   0.872   9.483  13.435
 2807SOL    HW110260   0.886   9.389  13.446
 2807SOL    HW210261   0.946   9.511  13.381
 2808SOL     OW10262  10.250   7.621   6.178
 2808SOL    HW110263  10.328   7.657   6.219
 2808SOL    HW210264  10.221   7.551   6.236
 2809SOL     OW10265   7.962  10.269   1.967
 2809SOL    HW110266   8.002  10.304   2.047
 2809SOL    HW210267   7.967  10.341   1.904
 2810SOL     OW10268   6.743  11.687  11.271
 2810SOL    HW110269   6.702  11.626  11.333
 2810SOL    HW210270   6.726  11.649  11.185
 2811SOL     OW10271   5.331   8.769   1.610
 2811SOL    HW110272   5.407   8.759   1.668
 2811SOL    HW210273   5.257   8.780   1.669
 2812SOL     OW10274   9.309   9.955   6.292
 2812SOL    HW110275   9.321   9.870   6.333
 2812SOL    HW210276   9.214   9.966   6.286
 2813SOL     OW10277  14.221   2.072   9.371
 2813SOL    HW110278  14.231   1.988   9.326
 2813SOL    HW210279  14.207   2.049   9.463
 2814SOL     OW10280  11.299  10.455   9.894
 2814SOL    HW110281  11.214  10.416   9.876
 2814SOL    HW210282  11.292  10.545   9.860
 2815SOL     OW10283   5.845   6.638   1.468
 2815SOL    HW110284   5.825   6.683   1.386
 2815SOL    HW210285   5.818   6.699   1.536
 2816SOL     OW10286   0.091   1.085   2.020
 2816SOL    HW110287   0.163   1.148   2.025
 2816SOL    HW210288   0.033   1.121   1.953
 2817SOL     OW10289   0.380   3.699   0.098
 2817SOL    HW110290   0.459   3.708   0.150
 2817SOL    HW210291   0.320   3.765   0.134
 2818SOL     OW10292   5.929  14.828   9.446
 2818SOL    HW110293   5.913   0.018   9.516
 2818SOL    HW210294   5.878  14.860   9.372
 2819SOL     OW10295  12.258  11.624  11.967
 2819SOL    HW110296  12.182  11.631  12.025
 2819SOL    HW210297  12.333  11.636  12.025
 2820SOL     OW10298   3.091   6.204   6.728
 2820SOL    HW110299   3.131   6.167   6.650
 2820SOL    HW210300   2.998   6.187   6.718
 2821SOL     OW10301   8.340   2.431   3.859
 2821SOL    HW110302   8.321   2.377   3.783
 2821SOL    HW210303   8.268   2.495   3.861
 2822SOL     OW10304   8.581   3.536   4.189
 2822SOL    HW110305   8.655   3.567   4.242
 2822SOL    HW210306   8.616   3.526   4.101
 2823SOL     OW10307  12.906   6.912   9.360
 2823SOL    HW110308  12.977   6.975   9.349
 2823SOL    HW210309  12.922   6.844   9.294
 2824SOL     OW10310   6.605  12.770  13.094
 2824SOL    HW110311   6.521  12.802  13.061
 2824SOL    HW210312   6.634  12.837  13.156
 2825SOL     OW10313   5.962   3.724   3.278
 2825SOL    HW110314   6.012   3.648   3.247
 2825SOL    HW210315   6.015   3.799   3.252
 2826SOL     OW10316  12.757   4.593   2.017
 2826SOL    HW110317  12.705   4.522   1.978
 2826SOL    HW210318  12.731   4.671   1.968
 2827SOL     OW10319   0.602   9.491   1.393
 2827SOL    HW110320   0.558   9.409   1.411
 2827SOL    HW210321   0.643   9.515   1.477
 2828SOL     OW10322  10.205  11.958   9.629
 2828SOL    HW110323  10.125  12.005   9.603
 2828SOL    HW210324  10.198  11.950   9.724
 2829SOL     OW10325   1.134  11.805   9.302
 2829SOL    HW110326   1.148  11.863   9.376
 2829SOL    HW210327   1.109  11.863   9.230
 2830SOL     OW10328  13.939  14.543   7.646
 2830SOL    HW110329  13.884  14.586   7.581
 2830SOL    HW210330  13.998  14.611   7.678
 2831SOL     OW10331  10.807  11.091   7.485
 2831SOL    HW110332  10.719  11.056   7.501
 2831SOL    HW210333  10.863  11.014   7.479
 2832SOL     OW10334  14.513  14.059   9.249
 2832SOL    HW110335  14.522  14.039   9.156
 2832SOL    HW210336  14.554  13.984   9.293
 2833SOL     OW10337   4.157   4.256   3.357
 2833SOL    HW110338   4.188   4.206   3.432
 2833SOL    HW210339   4.169   4.198   3.282
 2834SOL     OW10340   5.782   3.403  11.452
 2834SOL    HW110341   5.769   3.496  11.432
 2834SOL    HW210342   5.815   3.402  11.542
 2835SOL     OW10343   9.876   6.440   2.661
 2835SOL    HW110344   9.866   6.503   2.589
 2835SOL    HW210345   9.908   6.492   2.734
 2836SOL     OW10346   1.066   1.872   2.696
 2836SOL    HW110347   1.134   1.840   2.755
 2836SOL    HW210348   1.078   1.821   2.616
 2837SOL     OW10349  12.324  12.779   0.893
 2837SOL    HW110350  12.410  12.736   0.899
 2837SOL    HW210351  12.282  12.735   0.819
 2838SOL     OW10352  13.482   4.962  11.478
 2838SOL    HW110353  13.451   4.873  11.459
 2838SOL    HW210354  13.407   5.005  11.519
 2839SOL     OW10355   9.716  13.737   7.038
 2839SOL    HW110356   9.629  13.765   7.067
 2839SOL    HW210357   9.702  13.651   7.000
 2840SOL     OW10358   8.861  14.254  11.569
 2840SOL    HW110359   8.873  14.233  11.476
 2840SOL    HW210360   8.894  14.343  11.577
 2841SOL     OW10361   3.253   4.703   3.924
 2841SOL    HW110362   3.265   4.794   3.950
 2841SOL    HW210363   3.268   4.653   4.004
 2842SOL     OW10364  13.022  12.535   6.822
 2842SOL    HW110365  13.109  12.504   6.848
 2842SOL    HW210366  13.004  12.491   6.739
 2843SOL     OW10367   4.269  10.749   3.576
 2843SOL    HW110368   4.338  10.721   3.636
 2843SOL    HW210369   4.193  10.765   3.632
 2844SOL     OW10370   7.971   4.495   2.418
 2844SOL    HW110371   8.063   4.471   2.402
 2844SOL    HW210372   7.950   4.453   2.501
 2845SOL     OW10373   4.829  11.035   1.156
 2845SOL    HW110374   4.901  10.994   1.108
 2845SOL    HW210375   4.752  10.981   1.136
 2846SOL     OW10376   3.226  11.611   2.313
 2846SOL    HW110377   3.263  11.697   2.333
 2846SOL    HW210378   3.137  11.630   2.283
 2847SOL     OW10379   3.631  13.506   0.411
 2847SOL    HW110380   3.582  13.493   0.492
 2847SOL    HW210381   3.690  13.579   0.429
 2848SOL     OW10382   7.395   9.656   7.205
 2848SOL    HW110383   7.442   9.715   7.147
 2848SOL    HW210384   7.422   9.568   7.178
 2849SOL     OW10385  12.714   8.673  13.627
 2849SOL    HW110386  12.632   8.718  13.649
 2849SOL    HW210387  12.776   8.703  13.693
 2850SOL     OW10388  12.018  14.636   6.690
 2850SOL    HW110389  12.023  14.701   6.620
 2850SOL    HW210390  11.969  14.563   6.652
 2851SOL     OW10391   3.488   7.324   5.294
 2851SOL    HW110392   3.562   7.268   5.273
 2851SOL    HW210393   3.435   7.325   5.214
 2852SOL     OW10394  10.724  11.345  11.253
 2852SOL    HW110395  10.801  11.290  11.236
 2852SOL    HW210396  10.714  11.342  11.348
 2853SOL     OW10397  13.545  14.513   1.476
 2853SOL    HW110398  13.531  14.463   1.396
 2853SOL    HW210399  13.567  14.601   1.446
 2854SOL     OW10400   1.928   3.144   5.971
 2854SOL    HW110401   1.942   3.053   5.945
 2854SOL    HW210402   2.014   3.176   5.996
 2855SOL     OW10403   5.003  14.741   7.418
 2855SOL    HW110404   4.987  14.747   7.512
 2855SOL    HW210405   5.081  14.685   7.411
 2856SOL     OW10406   6.954   3.187  12.831
 2856SOL    HW110407   6.977   3.259  12.889
 2856SOL    HW210408   6.869   3.157  12.863
 2857SOL     OW10409   5.836  10.094   0.786
 2857SOL    HW110410   5.849  10.148   0.708
 2857SOL    HW210411   5.749  10.056   0.775
 2858SOL     OW10412   3.289  13.370   5.925
 2858SOL    HW110413   3.227  13.300   5.942
 2858SOL    HW210414   3.306  13.409   6.011
 2859SOL     OW10415   3.601   8.399   8.990
 2859SOL    HW110416   3.615   8.474   8.932
 2859SOL    HW210417   3.658   8.417   9.065
 2860SOL     OW10418   6.184   2.367   2.144
 2860SOL    HW110419   6.193   2.404   2.056
 2860SOL    HW210420   6.275   2.357   2.175
 2861SOL     OW10421   2.086  13.415   5.572
 2861SOL    HW110422   2.052  13.486   5.627
 2861SOL    HW210423   2.114  13.348   5.634
 2862SOL     OW10424   5.603  13.779   5.564
 2862SOL    HW110425   5.563  13.804   5.480
 2862SOL    HW210426   5.619  13.685   5.555
 2863SOL     OW10427   1.346   5.818   0.279
 2863SOL    HW110428   1.318   5.907   0.260
 2863SOL    HW210429   1.334   5.771   0.196
 2864SOL     OW10430   3.699  13.785   5.130
 2864SOL    HW110431   3.732  13.695   5.139
 2864SOL    HW210432   3.751  13.835   5.193
 2865SOL     OW10433  11.960   5.024   6.530
 2865SOL    HW110434  12.003   5.004   6.446
 2865SOL    HW210435  11.961   5.119   6.535
 2866SOL     OW10436   7.729  14.772   0.392
 2866SOL    HW110437   7.734  14.773   0.296
 2866SOL    HW210438   7.639  14.745   0.411
 2867SOL     OW10439   4.906   2.887   6.054
 2867SOL    HW110440   4.958   2.955   6.096
 2867SOL    HW210441   4.831   2.933   6.016
 2868SOL     OW10442   4.189  12.806   3.752
 2868SOL    HW110443   4.096  12.819   3.732
 2868SOL    HW210444   4.228  12.779   3.669
 2869SOL     OW10445   6.855   0.509   7.275
 2869SOL    HW110446   6.933   0.458   7.251
 2869SOL    HW210447   6.786   0.443   7.287
 2870SOL     OW10448   9.039   1.908   2.055
 2870SOL    HW110449   8.952   1.943   2.033
 2870SOL    HW210450   9.089   1.985   2.084
 2871SOL     OW10451   5.939   1.679   9.082
 2871SOL    HW110452   5.944   1.599   9.030
 2871SOL    HW210453   5.990   1.659   9.161
 2872SOL     OW10454   7.789   8.806   3.174
 2872SOL    HW110455   7.880   8.814   3.203
 2872SOL    HW210456   7.795   8.758   3.091
 2873SOL     OW10457   5.536  10.744  11.182
 2873SOL    HW110458   5.594  10.806  11.227
 2873SOL    HW210459   5.507  10.684  11.250
 2874SOL     OW10460   0.978   2.004   9.094
 2874SOL    HW110461   0.891   1.970   9.073
 2874SOL    HW210462   1.038   1.945   9.049
 2875SOL     OW10463  14.812  12.197  14.711
 2875SOL    HW110464  14.762  12.143  14.772
 2875SOL    HW210465  14.754  12.271  14.692
 2876SOL     OW10466   7.982   1.827  13.514
 2876SOL    HW110467   8.018   1.901  13.466
 2876SOL    HW210468   8.046   1.808  13.582
 2877SOL     OW10469  10.150   2.346   5.537
 2877SOL    HW110470  10.106   2.400   5.471
 2877SOL    HW210471  10.219   2.402   5.572
 2878SOL     OW10472  10.927  13.329   1.049
 2878SOL    HW110473  10.864  13.401   1.046
 2878SOL    HW210474  10.937  13.301   0.958
 2879SOL     OW10475  12.834  13.832   6.798
 2879SOL    HW110476  12.834  13.836   6.703
 2879SOL    HW210477  12.926  13.845   6.822
 2880SOL     OW10478   9.803   5.465   2.084
 2880SOL    HW110479   9.819   5.536   2.145
 2880SOL    HW210480   9.730   5.416   2.122
 2881SOL     OW10481  13.439   3.577   5.392
 2881SOL    HW110482  13.382   3.537   5.458
 2881SOL    HW210483  13.528   3.552   5.418
 2882SOL     OW10484  14.148   7.873   2.280
 2882SOL    HW110485  14.076   7.811   2.293
 2882SOL    HW210486  14.140   7.900   2.188
 2883SOL     OW10487   8.596   9.985   8.432
 2883SOL    HW110488   8.684   9.961   8.461
 2883SOL    HW210489   8.596   9.966   8.338
 2884SOL     OW10490   4.368   9.143   5.713
 2884SOL    HW110491   4.427   9.218   5.700
 2884SOL    HW210492   4.389   9.111   5.801
 2885SOL     OW10493  10.104   4.401  10.730
 2885SOL    HW110494  10.046   4.466  10.690
 2885SOL    HW210495  10.055   4.318  10.724
 2886SOL     OW10496   0.583   1.331  12.484
 2886SOL    HW110497   0.664   1.304  12.441
 2886SOL    HW210498   0.602   1.420  12.515
 2887SOL     OW10499   8.216   4.926  12.000
 2887SOL    HW110500   8.265   4.873  12.063
 2887SOL    HW210501   8.129   4.933  12.037
 2888SOL     OW10502   2.628   9.924   1.165
 2888SOL    HW110503   2.594   9.942   1.077
 2888SOL    HW210504   2.607  10.003   1.215
 2889SOL     OW10505  12.770   5.922  10.487
 2889SOL    HW110506  12.740   5.872  10.563
 2889SOL    HW210507  12.690   5.944  10.439
 2890SOL     OW10508   6.316   2.956  12.436
 2890SOL    HW110509   6.245   2.982  12.376
 2890SOL    HW210510   6.353   3.039  12.466
 2891SOL     OW10511   9.689   3.818   0.148
 2891SOL    HW110512   9.766   3.875   0.152
 2891SOL    HW210513   9.623   3.870   0.104
 2892SOL     OW10514  12.176  10.284   2.888
 2892SOL    HW110515  12.269  10.270   2.868
 2892SOL    HW210516  12.137  10.305   2.803
 2893SOL     OW10517   0.479   6.309   7.651
 2893SOL    HW110518   0.441   6.343   7.732
 2893SOL    HW210519   0.571   6.331   7.657
 2894SOL     OW10520  13.018  10.516   8.944
 2894SOL    HW110521  13.066  10.540   9.023
 2894SOL    HW210522  12.974  10.596   8.917
 2895SOL     OW10523  14.473   2.409   4.640
 2895SOL    HW110524  14.503   2.360   4.717
 2895SOL    HW210525  14.491   2.352   4.566
 2896SOL     OW10526   7.343  10.310  12.477
 2896SOL    HW110527   7.379  10.234  12.431
 2896SOL    HW210528   7.380  10.304  12.565
 2897SOL     OW10529  11.871   8.632   2.966
 2897SOL    HW110530  11.828   8.578   2.899
 2897SOL    HW210531  11.801   8.652   3.028
 2898SOL     OW10532   1.630   5.471  14.639
 2898SOL    HW110533   1.711   5.492  14.595
 2898SOL    HW210534   1.654   5.406  14.705
 2899SOL     OW10535   4.059   0.574   2.124
 2899SOL    HW110536   4.046   0.636   2.196
 2899SOL    HW210537   4.044   0.625   2.045
 2900SOL     OW10538   2.100  13.854  10.970
 2900SOL    HW110539   2.013  13.884  10.999
 2900SOL    HW210540   2.160  13.919  11.007
 2901SOL     OW10541   5.003   9.967  11.418
 2901SOL    HW110542   5.051   9.884  11.422
 2901SOL    HW210543   4.911   9.941  11.416
 2902SOL     OW10544   4.516   3.372   9.669
 2902SOL    HW110545   4.520   3.381   9.573
 2902SOL    HW210546   4.453   3.437   9.696
 2903SOL     OW10547   6.440   3.944   0.388
 2903SOL    HW110548   6.426   3.979   0.300
 2903SOL    HW210549   6.466   4.019   0.440
 2904SOL     OW10550   1.440   5.017   9.406
 2904SOL    HW110551   1.522   5.015   9.456
 2904SOL    HW210552   1.418   4.924   9.393
 2905SOL     OW10553  10.033  13.092  11.339
 2905SOL    HW110554  10.065  13.055  11.256
 2905SOL    HW210555  10.081  13.175  11.347
 2906SOL     OW10556  10.456   6.742   0.021
 2906SOL    HW110557  10.425   6.668  14.841
 2906SOL    HW210558  10.441   6.715   0.111
 2907SOL     OW10559   4.221   7.647   1.756
 2907SOL    HW110560   4.200   7.563   1.796
 2907SOL    HW210561   4.137   7.680   1.724
 2908SOL     OW10562  10.120  10.222   0.065
 2908SOL    HW110563  10.026  10.211   0.047
 2908SOL    HW210564  10.164  10.185  14.862
 2909SOL     OW10565   3.768  10.639  12.818
 2909SOL    HW110566   3.685  10.593  12.831
 2909SOL    HW210567   3.753  10.692  12.740
 2910SOL     OW10568   7.502   7.799   8.442
 2910SOL    HW110569   7.487   7.867   8.508
 2910SOL    HW210570   7.495   7.845   8.358
 2911SOL     OW10571  13.271   6.638   3.438
 2911SOL    HW110572  13.288   6.662   3.529
 2911SOL    HW210573  13.358   6.634   3.398
 2912SOL     OW10574   7.755   9.679   2.591
 2912SOL    HW110575   7.698   9.602   2.587
 2912SOL    HW210576   7.697   9.754   2.579
 2913SOL     OW10577   8.464  10.371  11.402
 2913SOL    HW110578   8.431  10.458  11.424
 2913SOL    HW210579   8.424  10.350  11.318
 2914SOL     OW10580   4.379   5.831   2.408
 2914SOL    HW110581   4.463   5.787   2.400
 2914SOL    HW210582   4.317   5.774   2.362
 2915SOL     OW10583   0.704   2.274   4.274
 2915SOL    HW110584   0.740   2.349   4.320
 2915SOL    HW210585   0.724   2.291   4.182
 2916SOL     OW10586  12.479   9.942  12.298
 2916SOL    HW110587  12.387   9.941  12.270
 2916SOL    HW210588  12.518   9.866  12.257
 2917SOL     OW10589   8.348   4.072  10.235
 2917SOL    HW110590   8.405   4.136  10.192
 2917SOL    HW210591   8.406   4.023  10.293
 2918SOL     OW10592   0.506   2.779  12.110
 2918SOL    HW110593   0.479   2.867  12.086
 2918SOL    HW210594   0.467   2.764  12.196
 2919SOL     OW10595  14.697   4.438   3.918
 2919SOL    HW110596  14.754   4.398   3.984
 2919SOL    HW210597  14.662   4.516   3.961
 2920SOL     OW10598  14.358  13.553   8.019
 2920SOL    HW110599  14.374  13.487   7.952
 2920SOL    HW210600  14.287  13.517   8.072
 2921SOL     OW10601   0.536  11.083   0.456
 2921SOL    HW110602   0.514  11.131   0.536
 2921SOL    HW210603   0.457  11.031   0.437
 2922SOL     OW10604   5.129   7.494   8.924
 2922SOL    HW110605   5.045   7.455   8.946
 2922SOL    HW210606   5.108   7.580   8.888
 2923SOL     OW10607   5.265  12.288   8.637
 2923SOL    HW110608   5.194  12.281   8.573
 2923SOL    HW210609   5.244  12.366   8.688
 2924SOL     OW10610  14.054   4.144   5.438
 2924SOL    HW110611  14.066   4.052   5.460
 2924SOL    HW210612  14.136   4.187   5.464
 2925SOL     OW10613   8.715  14.666   7.480
 2925SOL    HW110614   8.683  14.753   7.504
 2925SOL    HW210615   8.711  14.615   7.562
 2926SOL     OW10616   8.008   8.996   3.821
 2926SOL    HW110617   8.093   9.037   3.802
 2926SOL    HW210618   7.952   9.019   3.748
 2927SOL     OW10619   0.948   7.236  10.320
 2927SOL    HW110620   0.864   7.192  10.309
 2927SOL    HW210621   0.987   7.236  10.233
 2928SOL     OW10622  14.851   8.204   0.116
 2928SOL    HW110623   0.021   8.201   0.031
 2928SOL    HW210624   0.023   8.275   0.163
 2929SOL     OW10625  10.431   8.173   1.494
 2929SOL    HW110626  10.514   8.130   1.478
 2929SOL    HW210627  10.411   8.154   1.585
 2930SOL     OW10628   5.236  11.390   4.373
 2930SOL    HW110629   5.193  11.472   4.399
 2930SOL    HW210630   5.245  11.341   4.455
 2931SOL     OW10631   7.607  12.587  13.024
 2931SOL    HW110632   7.611  12.500  13.063
 2931SOL    HW210633   7.668  12.583  12.950
 2932SOL     OW10634  12.058  12.098   8.381
 2932SOL    HW110635  12.072  12.045   8.302
 2932SOL    HW210636  12.111  12.055   8.448
 2933SOL     OW10637  12.656   1.470  11.042
 2933SOL    HW110638  12.674   1.564  11.043
 2933SOL    HW210639  12.602   1.456  10.964
 2934SOL     OW10640   3.048   6.681   1.951
 2934SOL    HW110641   3.110   6.634   1.896
 2934SOL    HW210642   2.965   6.634   1.939
 2935SOL     OW10643  13.915  13.050   9.279
 2935SOL    HW110644  13.865  13.030   9.201
 2935SOL    HW210645  13.858  13.026   9.352
 2936SOL     OW10646   7.554   6.918   5.700
 2936SOL    HW110647   7.596   6.914   5.786
 2936SOL    HW210648   7.485   6.852   5.703
 2937SOL     OW10649  14.345   0.648   0.174
 2937SOL    HW110650  14.308   0.736   0.169
 2937SOL    HW210651  14.438   0.659   0.152
 2938SOL     OW10652  12.716   5.021   7.839
 2938SOL    HW110653  12.686   5.091   7.781
 2938SOL    HW210654  12.688   5.049   7.926
 2939SOL     OW10655  10.196   0.080   4.786
 2939SOL    HW110656  10.234   0.022   4.720
 2939SOL    HW210657  10.268   0.098   4.846
 2940SOL     OW10658   2.323  11.319   2.083
 2940SOL    HW110659   2.368  11.372   2.149
 2940SOL    HW210660   2.358  11.348   1.999
 2941SOL     OW10661   9.575   4.140   8.721
 2941SOL    HW110662   9.632   4.129   8.644
 2941SOL    HW210663   9.561   4.235   8.726
 2942SOL     OW10664   7.203   3.556  13.806
 2942SOL    HW110665   7.166   3.643  13.790
 2942SOL    HW210666   7.288   3.559  13.764
 2943SOL     OW10667   2.392  12.774   3.896
 2943SOL    HW110668   2.373  12.846   3.956
 2943SOL    HW210669   2.373  12.695   3.946
 2944SOL     OW10670   3.871   8.414   7.128
 2944SOL    HW110671   3.859   8.389   7.219
 2944SOL    HW210672   3.962   8.391   7.109
 2945SOL     OW10673   4.814   5.529   5.074
 2945SOL    HW110674   4.802   5.469   5.000
 2945SOL    HW210675   4.818   5.472   5.150
 2946SOL     OW10676   1.686   8.860   3.462
 2946SOL    HW110677   1.594   8.838   3.449
 2946SOL    HW210678   1.732   8.777   3.457
 2947SOL     OW10679   8.826  11.504   9.223
 2947SOL    HW110680   8.827  11.499   9.319
 2947SOL    HW210681   8.876  11.426   9.195
 2948SOL     OW10682   7.008  10.760  11.524
 2948SOL    HW110683   7.083  10.813  11.550
 2948SOL    HW210684   6.932  10.816  11.538
 2949SOL     OW10685  13.239   5.220   9.489
 2949SOL    HW110686  13.271   5.265   9.568
 2949SOL    HW210687  13.146   5.240   9.486
 2950SOL     OW10688   5.553  11.787  13.269
 2950SOL    HW110689   5.520  11.787  13.179
 2950SOL    HW210690   5.487  11.835  13.319
 2951SOL     OW10691   7.545   2.635   8.872
 2951SOL    HW110692   7.451   2.646   8.864
 2951SOL    HW210693   7.557   2.542   8.893
 2952SOL     OW10694   8.710   0.812   9.397
 2952SOL    HW110695   8.717   0.897   9.439
 2952SOL    HW210696   8.779   0.759   9.438
 2953SOL     OW10697  12.141  10.309   6.157
 2953SOL    HW110698  12.105  10.246   6.094
 2953SOL    HW210699  12.081  10.383   6.153
 2954SOL     OW10700   2.757   6.629   0.780
 2954SOL    HW110701   2.800   6.565   0.724
 2954SOL    HW210702   2.706   6.576   0.842
 2955SOL     OW10703   9.249   4.383   2.188
 2955SOL    HW110704   9.279   4.474   2.192
 2955SOL    HW210705   9.227   4.361   2.279
 2956SOL     OW10706   7.706   0.768   5.068
 2956SOL    HW110707   7.651   0.846   5.060
 2956SOL    HW210708   7.795   0.802   5.075
 2957SOL     OW10709   5.202   1.906   1.376
 2957SOL    HW110710   5.285   1.950   1.354
 2957SOL    HW210711   5.161   1.888   1.291
 2958SOL     OW10712  11.707   3.551   7.056
 2958SOL    HW110713  11.631   3.505   7.093
 2958SOL    HW210714  11.769   3.556   7.129
 2959SOL     OW10715  11.898  14.411   0.627
 2959SOL    HW110716  11.862  14.424   0.539
 2959SOL    HW210717  11.948  14.491   0.644
 2960SOL     OW10718   1.269   2.637   6.498
 2960SOL    HW110719   1.255   2.725   6.533
 2960SOL    HW210720   1.212   2.632   6.422
 2961SOL     OW10721  12.992   7.055  11.068
 2961SOL    HW110722  13.001   6.972  11.021
 2961SOL    HW210723  13.081   7.091  11.071
 2962SOL     OW10724  14.826   2.717   9.269
 2962SOL    HW110725  14.746   2.742   9.224
 2962SOL    HW210726  14.847   2.630   9.235
 2963SOL     OW10727  12.596   1.080  10.811
 2963SOL    HW110728  12.578   1.025  10.888
 2963SOL    HW210729  12.685   1.111  10.824
 2964SOL     OW10730  11.702   8.534   9.858
 2964SOL    HW110731  11.772   8.595   9.883
 2964SOL    HW210732  11.679   8.559   9.769
 2965SOL     OW10733   1.963  10.667   1.447
 2965SOL    HW110734   1.891  10.720   1.413
 2965SOL    HW210735   1.999  10.623   1.370
 2966SOL     OW10736   2.246   5.866  10.556
 2966SOL    HW110737   2.298   5.925  10.610
 2966SOL    HW210738   2.297   5.785  10.552
 2967SOL     OW10739   8.601  13.507   8.075
 2967SOL    HW110740   8.615  13.449   8.001
 2967SOL    HW210741   8.510  13.536   8.066
 2968SOL     OW10742   3.538   7.563   7.303
 2968SOL    HW110743   3.476   7.607   7.362
 2968SOL    HW210744   3.615   7.547   7.358
 2969SOL     OW10745   2.682   4.967   2.863
 2969SOL    HW110746   2.688   4.884   2.910
 2969SOL    HW210747   2.589   4.985   2.856
 2970SOL     OW10748   1.481  14.513   0.380
 2970SOL    HW110749   1.427  14.585   0.345
 2970SOL    HW210750   1.540  14.555   0.442
 2971SOL     OW10751   4.689   6.887   9.661
 2971SOL    HW110752   4.764   6.932   9.700
 2971SOL    HW210753   4.680   6.807   9.713
 2972SOL     OW10754  13.856  10.154   9.859
 2972SOL    HW110755  13.818  10.141   9.946
 2972SOL    HW210756  13.865  10.065   9.823
 2973SOL     OW10757   3.071   2.031   0.323
 2973SOL    HW110758   3.085   2.125   0.333
 2973SOL    HW210759   3.040   2.020   0.233
 2974SOL     OW10760   0.936  11.299   4.708
 2974SOL    HW110761   0.860  11.256   4.748
 2974SOL    HW210762   1.007  11.235   4.719
 2975SOL     OW10763   3.538  11.123  11.699
 2975SOL    HW110764   3.517  11.099  11.790
 2975SOL    HW210765   3.488  11.062  11.646
 2976SOL     OW10766   6.910   1.123   3.472
 2976SOL    HW110767   6.880   1.197   3.526
 2976SOL    HW210768   6.889   1.149   3.383
 2977SOL     OW10769   4.596   5.321  11.225
 2977SOL    HW110770   4.681   5.312  11.182
 2977SOL    HW210771   4.532   5.294  11.159
 2978SOL     OW10772   2.270   9.482   4.245
 2978SOL    HW110773   2.346   9.473   4.303
 2978SOL    HW210774   2.212   9.411   4.270
 2979SOL     OW10775   7.303  12.918  11.918
 2979SOL    HW110776   7.238  12.855  11.947
 2979SOL    HW210777   7.254  12.998  11.901
 2980SOL     OW10778   9.348   7.583  12.313
 2980SOL    HW110779   9.383   7.594  12.225
 2980SOL    HW210780   9.386   7.501  12.344
 2981SOL     OW10781   9.062  14.081   1.966
 2981SOL    HW110782   9.075  14.122   1.880
 2981SOL    HW210783   9.144  14.098   2.012
 2982SOL     OW10784   9.663   8.483  11.493
 2982SOL    HW110785   9.726   8.499  11.564
 2982SOL    HW210786   9.591   8.542  11.511
 2983SOL     OW10787   1.102  14.122   9.627
 2983SOL    HW110788   1.153  14.203   9.626
 2983SOL    HW210789   1.107  14.093   9.718
 2984SOL     OW10790  13.995   4.543   8.454
 2984SOL    HW110791  14.034   4.629   8.469
 2984SOL    HW210792  14.018   4.521   8.363
 2985SOL     OW10793   5.010   2.729   6.915
 2985SOL    HW110794   5.083   2.763   6.863
 2985SOL    HW210795   4.985   2.647   6.872
 2986SOL     OW10796   3.617   3.997   1.663
 2986SOL    HW110797   3.660   3.915   1.640
 2986SOL    HW210798   3.663   4.063   1.612
 2987SOL     OW10799  10.468   3.085   6.663
 2987SOL    HW110800  10.486   3.086   6.569
 2987SOL    HW210801  10.445   3.176   6.683
 2988SOL     OW10802   2.623   1.228   2.130
 2988SOL    HW110803   2.668   1.312   2.117
 2988SOL    HW210804   2.662   1.170   2.065
 2989SOL     OW10805  14.293   9.540   7.550
 2989SOL    HW110806  14.233   9.501   7.486
 2989SOL    HW210807  14.243   9.613   7.588
 2990SOL     OW10808  11.597   4.232   2.504
 2990SOL    HW110809  11.527   4.290   2.536
 2990SOL    HW210810  11.601   4.162   2.569
 2991SOL     OW10811  14.433   4.846  11.938
 2991SOL    HW110812  14.495   4.879  11.873
 2991SOL    HW210813  14.452   4.898  12.017
 2992SOL     OW10814   8.083  10.715   5.105
 2992SOL    HW110815   8.087  10.683   5.015
 2992SOL    HW210816   8.148  10.663   5.152
 2993SOL     OW10817   2.761  11.031   6.503
 2993SOL    HW110818   2.682  11.003   6.549
 2993SOL    HW210819   2.730  11.064   6.419
 2994SOL     OW10820   2.120   1.989  13.903
 2994SOL    HW110821   2.034   2.015  13.935
 2994SOL    HW210822   2.151   1.924  13.966
 2995SOL     OW10823   4.111   2.824  11.654
 2995SOL    HW110824   4.180   2.759  11.667
 2995SOL    HW210825   4.030   2.777  11.668
 2996SOL     OW10826   8.142  10.775   1.633
 2996SOL    HW110827   8.119  10.826   1.556
 2996SOL    HW210828   8.179  10.839   1.694
 2997SOL     OW10829   9.205  13.905   4.293
 2997SOL    HW110830   9.167  13.823   4.263
 2997SOL    HW210831   9.168  13.920   4.380
 2998SOL     OW10832   3.617   3.674   2.249
 2998SOL    HW110833   3.690   3.731   2.222
 2998SOL    HW210834   3.549   3.736   2.275
 2999SOL     OW10835   7.243  10.736  13.228
 2999SOL    HW110836   7.309  10.708  13.292
 2999SOL    HW210837   7.182  10.662  13.223
 3000SOL     OW10838  14.548   1.891   5.141
 3000SOL    HW110839  14.530   1.799   5.162
 3000SOL    HW210840  14.621   1.888   5.080
 3001SOL     OW10841   1.952   5.018   3.961
 3001SOL    HW110842   1.942   4.937   4.012
 3001SOL    HW210843   2.028   5.001   3.906
 3002SOL     OW10844   3.039   4.210   1.225
 3002SOL    HW110845   3.107   4.143   1.234
 3002SOL    HW210846   3.066   4.261   1.149
 3003SOL     OW10847  12.638  14.016   1.173
 3003SOL    HW110848  12.600  14.061   1.097
 3003SOL    HW210849  12.727  14.048   1.178
 3004SOL     OW10850   0.443   1.808  12.597
 3004SOL    HW110851   0.474   1.864  12.668
 3004SOL    HW210852   0.361   1.848  12.569
 3005SOL     OW10853  11.773  11.663   9.739
 3005SOL    HW110854  11.749  11.586   9.688
 3005SOL    HW210855  11.858  11.642   9.777
 3006SOL     OW10856  12.077   6.229   3.681
 3006SOL    HW110857  12.073   6.266   3.593
 3006SOL    HW210858  12.135   6.153   3.673
 3007SOL     OW10859   3.710  13.017   9.275
 3007SOL    HW110860   3.655  13.089   9.246
 3007SOL    HW210861   3.754  13.050   9.353
 3008SOL     OW10862  12.018  13.195   9.074
 3008SOL    HW110863  11.938  13.166   9.031
 3008SOL    HW210864  11.999  13.187   9.168
 3009SOL     OW10865   2.189   8.294  13.980
 3009SOL    HW110866   2.231   8.339  13.907
 3009SOL    HW210867   2.215   8.203  13.970
 3010SOL     OW10868   2.457   1.583   3.392
 3010SOL    HW110869   2.417   1.520   3.331
 3010SOL    HW210870   2.529   1.621   3.342
 3011SOL     OW10871   0.960  10.916   1.433
 3011SOL    HW110872   0.950  10.924   1.338
 3011SOL    HW210873   0.894  10.974   1.469
 3012SOL     OW10874  11.892  12.233  14.855
 3012SOL    HW110875  11.866  12.190  14.774
 3012SOL    HW210876  11.810  12.252   0.027
 3013SOL     OW10877   3.189   7.339  12.882
 3013SOL    HW110878   3.272   7.365  12.843
 3013SOL    HW210879   3.214   7.281  12.954
 3014SOL     OW10880   6.219   4.050   2.413
 3014SOL    HW110881   6.263   3.977   2.370
 3014SOL    HW210882   6.127   4.024   2.417
 3015SOL     OW10883   4.107   0.071   5.476
 3015SOL    HW110884   4.029   0.063   5.531
 3015SOL    HW210885   4.176   0.096   5.536
 3016SOL     OW10886  12.955   5.136   0.838
 3016SOL    HW110887  13.005   5.071   0.888
 3016SOL    HW210888  12.928   5.200   0.904
 3017SOL     OW10889   4.337  12.106  13.764
 3017SOL    HW110890   4.413  12.051  13.747
 3017SOL    HW210891   4.293  12.065  13.838
 3018SOL     OW10892  10.183   9.007   6.347
 3018SOL    HW110893  10.135   9.048   6.420
 3018SOL    HW210894  10.274   9.009   6.375
 3019SOL     OW10895  13.782   4.555   8.662
 3019SOL    HW110896  13.836   4.560   8.583
 3019SOL    HW210897  13.827   4.612   8.725
 3020SOL     OW10898   9.436   6.225  10.543
 3020SOL    HW110899   9.378   6.287  10.587
 3020SOL    HW210900   9.472   6.172  10.614
 3021SOL     OW10901   5.072   3.723   4.550
 3021SOL    HW110902   4.997   3.782   4.540
 3021SOL    HW210903   5.145   3.770   4.509
 3022SOL     OW10904  14.521   5.338   1.207
 3022SOL    HW110905  14.490   5.428   1.205
 3022SOL    HW210906  14.479   5.299   1.284
 3023SOL     OW10907   8.737   6.608   6.557
 3023SOL    HW110908   8.723   6.646   6.470
 3023SOL    HW210909   8.715   6.516   6.546
 3024SOL     OW10910  13.244   8.721  14.567
 3024SOL    HW110911  13.158   8.748  14.533
 3024SOL    HW210912  13.306   8.777  14.519
 3025SOL     OW10913   8.215   0.692  11.761
 3025SOL    HW110914   8.149   0.654  11.819
 3025SOL    HW210915   8.231   0.779  11.796
 3026SOL     OW10916   4.314   5.542   5.009
 3026SOL    HW110917   4.253   5.489   4.958
 3026SOL    HW210918   4.397   5.494   5.006
 3027SOL     OW10919  10.654  11.765   0.731
 3027SOL    HW110920  10.626  11.789   0.643
 3027SOL    HW210921  10.743  11.733   0.720
 3028SOL     OW10922   3.652   0.082   2.514
 3028SOL    HW110923   3.668   0.059   2.422
 3028SOL    HW210924   3.728   0.135   2.538
 3029SOL     OW10925   9.998  13.204   6.268
 3029SOL    HW110926   9.982  13.200   6.363
 3029SOL    HW210927  10.065  13.138   6.252
 3030SOL     OW10928  14.534  14.517   9.031
 3030SOL    HW110929  14.627  14.495   9.043
 3030SOL    HW210930  14.487  14.450   9.082
 3031SOL     OW10931  10.036   6.982  13.945
 3031SOL    HW110932   9.963   6.930  13.911
 3031SOL    HW210933  10.097   6.917  13.981
 3032SOL     OW10934  14.665   1.243  13.829
 3032SOL    HW110935  14.697   1.185  13.898
 3032SOL    HW210936  14.576   1.265  13.857
 3033SOL     OW10937   1.005   5.936   4.848
 3033SOL    HW110938   0.951   5.891   4.913
 3033SOL    HW210939   0.958   6.017   4.829
 3034SOL     OW10940  14.347   6.684   2.113
 3034SOL    HW110941  14.381   6.714   2.028
 3034SOL    HW210942  14.297   6.605   2.091
 3035SOL     OW10943  13.032   4.364   7.964
 3035SOL    HW110944  12.985   4.440   7.928
 3035SOL    HW210945  13.039   4.383   8.058
 3036SOL     OW10946  13.885  12.008   8.365
 3036SOL    HW110947  13.795  12.025   8.337
 3036SOL    HW210948  13.922  12.095   8.383
 3037SOL     OW10949   6.385   4.498   6.921
 3037SOL    HW110950   6.341   4.496   7.006
 3037SOL    HW210951   6.474   4.468   6.940
 3038SOL     OW10952   9.390  11.944  11.564
 3038SOL    HW110953   9.464  11.991  11.527
 3038SOL    HW210954   9.324  11.944  11.495
 3039SOL     OW10955  10.078   0.617  13.482
 3039SOL    HW110956  10.069   0.711  13.464
 3039SOL    HW210957  10.118   0.581  13.402
 3040SOL     OW10958   7.267  12.237  14.028
 3040SOL    HW110959   7.172  12.232  14.012
 3040SOL    HW210960   7.301  12.286  13.953
 3041SOL     OW10961   1.478   0.896   9.159
 3041SOL    HW110962   1.415   0.965   9.137
 3041SOL    HW210963   1.555   0.915   9.105
 3042SOL     OW10964   8.445   1.526  13.497
 3042SOL    HW110965   8.443   1.494  13.406
 3042SOL    HW210966   8.516   1.591  13.498
 3043SOL     OW10967   8.893  12.783  13.035
 3043SOL    HW110968   8.967  12.725  13.016
 3043SOL    HW210969   8.931  12.871  13.039
 3044SOL     OW10970  10.951   2.742   4.041
 3044SOL    HW110971  10.881   2.807   4.046
 3044SOL    HW210972  10.954   2.703   4.129
 3045SOL     OW10973  11.569   4.277   8.912
 3045SOL    HW110974  11.493   4.275   8.971
 3045SOL    HW210975  11.641   4.309   8.966
 3046SOL     OW10976   5.189   4.387   4.511
 3046SOL    HW110977   5.158   4.339   4.434
 3046SOL    HW210978   5.120   4.452   4.528
 3047SOL     OW10979   6.197   2.176   5.794
 3047SOL    HW110980   6.136   2.222   5.852
 3047SOL    HW210981   6.141   2.120   5.741
 3048SOL     OW10982   4.424   1.683  10.786
 3048SOL    HW110983   4.480   1.755  10.814
 3048SOL    HW210984   4.458   1.606  10.832
 3049SOL     OW10985   3.988   6.889   2.988
 3049SOL    HW110986   3.927   6.957   3.019
 3049SOL    HW210987   4.062   6.894   3.048
 3050SOL     OW10988   7.627   2.386  10.701
 3050SOL    HW110989   7.650   2.443  10.628
 3050SOL    HW210990   7.630   2.443  10.778
 3051SOL     OW10991   7.804  10.320   6.918
 3051SOL    HW110992   7.717  10.340   6.953
 3051SOL    HW210993   7.864  10.371   6.972
 3052SOL     OW10994   8.471   3.542   1.096
 3052SOL    HW110995   8.541   3.573   1.037
 3052SOL    HW210996   8.421   3.481   1.042
 3053SOL     OW10997   9.407   3.498  11.672
 3053SOL    HW110998   9.346   3.525  11.741
 3053SOL    HW210999   9.486   3.548  11.689
 3054SOL     OW11000  11.672  12.355  13.120
 3054SOL    HW111001  11.651  12.368  13.027
 3054SOL    HW211002  11.588  12.337  13.161
 3055SOL     OW11003  11.559  13.187  12.391
 3055SOL    HW111004  11.595  13.185  12.303
 3055SOL    HW211005  11.599  13.263  12.432
 3056SOL     OW11006   2.335   9.340   0.358
 3056SOL    HW111007   2.405   9.338   0.423
 3056SOL    HW211008   2.289   9.257   0.369
 3057SOL     OW11009   4.848  11.635   6.667
 3057SOL    HW111010   4.787  11.653   6.596
 3057SOL    HW211011   4.810  11.679   6.743
 3058SOL     OW11012  10.141   4.184  11.510
 3058SOL    HW111013  10.068   4.134  11.474
 3058SOL    HW211014  10.218   4.156  11.460
 3059SOL     OW11015   9.612   3.283   5.701
 3059SOL    HW111016   9.530   3.303   5.746
 3059SOL    HW211017   9.585   3.240   5.620
 3060SOL     OW11018  11.736   5.197   5.372
 3060SOL    HW111019  11.803   5.265   5.384
 3060SOL    HW211020  11.756   5.159   5.286
 3061SOL     OW11021  11.560   2.184  13.857
 3061SOL    HW111022  11.595   2.266  13.889
 3061SOL    HW211023  11.621   2.117  13.889
 3062SOL     OW11024  10.551   9.104   9.357
 3062SOL    HW111025  10.609   9.034   9.325
 3062SOL    HW211026  10.495   9.060   9.421
 3063SOL     OW11027  12.986   9.154   2.912
 3063SOL    HW111028  13.056   9.183   2.970
 3063SOL    HW211029  12.906   9.184   2.954
 3064SOL     OW11030   8.717   4.477  13.772
 3064SOL    HW111031   8.797   4.530  13.775
 3064SOL    HW211032   8.684   4.489  13.683
 3065SOL     OW11033  14.023   2.558   9.502
 3065SOL    HW111034  14.027   2.463   9.492
 3065SOL    HW211035  14.113   2.585   9.515
 3066SOL     OW11036  14.014   3.575   7.570
 3066SOL    HW111037  14.097   3.557   7.527
 3066SOL    HW211038  13.954   3.600   7.499
 3067SOL     OW11039  13.197   2.821   0.570
 3067SOL    HW111040  13.158   2.775   0.645
 3067SOL    HW211041  13.124   2.832   0.509
 3068SOL     OW11042  14.304   7.743  14.023
 3068SOL    HW111043  14.314   7.821  14.078
 3068SOL    HW211044  14.239   7.690  14.069
 3069SOL     OW11045   0.653   3.071   2.843
 3069SOL    HW111046   0.629   3.079   2.935
 3069SOL    HW211047   0.602   3.139   2.799
 3070SOL     OW11048   8.367   4.844   6.624
 3070SOL    HW111049   8.445   4.846   6.568
 3070SOL    HW211050   8.304   4.902   6.579
 3071SOL     OW11051  13.882   9.502   5.011
 3071SOL    HW111052  13.956   9.561   5.025
 3071SOL    HW211053  13.903   9.424   5.061
 3072SOL     OW11054  12.369   2.330   8.476
 3072SOL    HW111055  12.292   2.275   8.490
 3072SOL    HW211056  12.405   2.300   8.393
 3073SOL     OW11057   8.622  13.608  11.069
 3073SOL    HW111058   8.529  13.592  11.084
 3073SOL    HW211059   8.666  13.530  11.104
 3074SOL     OW11060   4.234   1.606   9.847
 3074SOL    HW111061   4.230   1.631   9.940
 3074SOL    HW211062   4.143   1.607   9.818
 3075SOL     OW11063  14.202   4.325   9.050
 3075SOL    HW111064  14.285   4.306   9.005
 3075SOL    HW211065  14.140   4.262   9.012
 3076SOL     OW11066   8.653  14.472  14.796
 3076SOL    HW111067   8.710  14.444  14.867
 3076SOL    HW211068   8.580  14.410  14.799
 3077SOL     OW11069  12.390   0.379   2.808
 3077SOL    HW111070  12.391   0.456   2.750
 3077SOL    HW211071  12.379   0.416   2.896
 3078SOL     OW11072   7.671  11.011   4.886
 3078SOL    HW111073   7.639  11.092   4.926
 3078SOL    HW211074   7.759  11.000   4.922
 3079SOL     OW11075   3.315  10.137   9.537
 3079SOL    HW111076   3.337  10.183   9.618
 3079SOL    HW211077   3.223  10.160   9.521
 3080SOL     OW11078   0.635   4.646   0.411
 3080SOL    HW111079   0.689   4.577   0.450
 3080SOL    HW211080   0.560   4.653   0.469
 3081SOL     OW11081   7.191  14.253   5.724
 3081SOL    HW111082   7.126  14.318   5.698
 3081SOL    HW211083   7.204  14.199   5.646
 3082SOL     OW11084   7.539   3.622   7.874
 3082SOL    HW111085   7.504   3.549   7.924
 3082SOL    HW211086   7.483   3.696   7.896
 3083SOL     OW11087   5.881   0.106   8.357
 3083SOL    HW111088   5.791   0.129   8.378
 3083SOL    HW211089   5.908   0.047   8.427
 3084SOL     OW11090   4.860  11.655   6.309
 3084SOL    HW111091   4.819  11.677   6.393
 3084SOL    HW211092   4.790  11.665   6.245
 3085SOL     OW11093   8.429  12.540  14.378
 3085SOL    HW111094   8.416  12.448  14.356
 3085SOL    HW211095   8.519  12.545  14.408
 3086SOL     OW11096   3.554   9.632  14.606
 3086SOL    HW111097   3.546   9.727  14.619
 3086SOL    HW211098   3.467   9.605  14.575
 3087SOL     OW11099   9.459   3.892   8.146
 3087SOL    HW111100   9.481   3.982   8.171
 3087SOL    HW211101   9.373   3.877   8.187
 3088SOL     OW11102  11.859  14.737   6.303
 3088SOL    HW111103  11.926  14.699   6.248
 3088SOL    HW211104  11.801  14.664   6.325
 3089SOL     OW11105   6.454  14.361  13.409
 3089SOL    HW111106   6.512  14.288  13.389
 3089SOL    HW211107   6.435  14.401  13.324
 3090SOL     OW11108  11.425   5.797  11.278
 3090SOL    HW111109  11.353   5.748  11.238
 3090SOL    HW211110  11.399   5.809  11.369
 3091SOL     OW11111   0.230   1.684   2.080
 3091SOL    HW111112   0.190   1.766   2.108
 3091SOL    HW211113   0.158   1.633   2.043
 3092SOL     OW11114  14.416  13.632  12.445
 3092SOL    HW111115  14.402  13.695  12.516
 3092SOL    HW211116  14.355  13.561  12.462
 3093SOL     OW11117  11.536   9.773   0.151
 3093SOL    HW111118  11.564   9.712   0.084
 3093SOL    HW211119  11.551   9.860   0.114
 3094SOL     OW11120  14.322   7.190   6.684
 3094SOL    HW111121  14.270   7.182   6.764
 3094SOL    HW211122  14.413   7.193   6.715
 3095SOL     OW11123   0.943   8.652   9.156
 3095SOL    HW111124   1.022   8.628   9.108
 3095SOL    HW211125   0.956   8.744   9.179
 3096SOL     OW11126  10.376   9.362   0.624
 3096SOL    HW111127  10.429   9.289   0.593
 3096SOL    HW211128  10.393   9.365   0.719
 3097SOL     OW11129  13.015  14.494  13.862
 3097SOL    HW111130  13.057  14.408  13.871
 3097SOL    HW211131  13.042  14.525  13.776
 3098SOL     OW11132  13.359   8.858   6.098
 3098SOL    HW111133  13.418   8.908   6.155
 3098SOL    HW211134  13.280   8.912   6.092
 3099SOL     OW11135   3.883   6.119   9.014
 3099SOL    HW111136   3.849   6.041   8.970
 3099SOL    HW211137   3.846   6.114   9.102
 3100SOL     OW11138  14.329   4.434  13.440
 3100SOL    HW111139  14.378   4.510  13.471
 3100SOL    HW211140  14.242   4.468  13.418
 3101SOL     OW11141   0.527  10.001   5.311
 3101SOL    HW111142   0.486   9.923   5.348
 3101SOL    HW211143   0.459  10.040   5.256
 3102SOL     OW11144  12.045   4.288   9.553
 3102SOL    HW111145  11.975   4.267   9.615
 3102SOL    HW211146  12.125   4.286   9.605
 3103SOL     OW11147   5.407   3.533   1.326
 3103SOL    HW111148   5.444   3.607   1.374
 3103SOL    HW211149   5.447   3.456   1.365
 3104SOL     OW11150   9.661  13.536   1.676
 3104SOL    HW111151   9.670  13.581   1.592
 3104SOL    HW211152   9.583  13.575   1.716
 3105SOL     OW11153  11.624  10.907   4.842
 3105SOL    HW111154  11.540  10.936   4.879
 3105SOL    HW211155  11.680  10.984   4.848
 3106SOL     OW11156   1.491   6.207   0.354
 3106SOL    HW111157   1.497   6.195   0.449
 3106SOL    HW211158   1.397   6.209   0.336
 3107SOL     OW11159   2.617  12.507   8.755
 3107SOL    HW111160   2.648  12.597   8.748
 3107SOL    HW211161   2.663  12.460   8.686
 3108SOL     OW11162   7.953   7.405   3.106
 3108SOL    HW111163   7.996   7.436   3.026
 3108SOL    HW211164   7.887   7.343   3.075
 3109SOL     OW11165  10.845   6.556  13.197
 3109SOL    HW111166  10.761   6.601  13.189
 3109SOL    HW211167  10.898   6.592  13.125
 3110SOL     OW11168  14.473   9.069   8.816
 3110SOL    HW111169  14.567   9.051   8.810
 3110SOL    HW211170  14.446   9.090   8.727
 3111SOL     OW11171   0.010   4.231   0.971
 3111SOL    HW111172   0.082   4.176   0.941
 3111SOL    HW211173  14.807   4.173   0.970
 3112SOL     OW11174  12.040  12.668   2.245
 3112SOL    HW111175  11.969  12.646   2.305
 3112SOL    HW211176  12.040  12.597   2.180
 3113SOL     OW11177   6.544  13.513   4.584
 3113SOL    HW111178   6.585  13.565   4.653
 3113SOL    HW211179   6.488  13.451   4.630
 3114SOL     OW11180   7.979   8.477   7.704
 3114SOL    HW111181   8.006   8.565   7.731
 3114SOL    HW211182   8.061   8.434   7.679
 3115SOL     OW11183   9.744   8.434   6.197
 3115SOL    HW111184   9.827   8.450   6.152
 3115SOL    HW211185   9.715   8.520   6.226
 3116SOL     OW11186   5.535   0.587   6.736
 3116SOL    HW111187   5.457   0.623   6.694
 3116SOL    HW211188   5.597   0.660   6.738
 3117SOL     OW11189  13.225   2.296  11.825
 3117SOL    HW111190  13.193   2.230  11.886
 3117SOL    HW211191  13.291   2.251  11.773
 3118SOL     OW11192   8.779   8.086   9.104
 3118SOL    HW111193   8.755   8.034   9.180
 3118SOL    HW211194   8.841   8.030   9.056
 3119SOL     OW11195   9.451  14.675   8.398
 3119SOL    HW111196   9.533  14.712   8.431
 3119SOL    HW211197   9.392  14.749   8.392
 3120SOL     OW11198  11.612  10.642   0.353
 3120SOL    HW111199  11.624  10.717   0.412
 3120SOL    HW211200  11.613  10.680   0.266
 3121SOL     OW11201   8.158   9.874   4.006
 3121SOL    HW111202   8.098   9.819   4.055
 3121SOL    HW211203   8.128   9.868   3.915
 3122SOL     OW11204  12.097   8.082   1.493
 3122SOL    HW111205  12.111   8.021   1.565
 3122SOL    HW211206  12.154   8.049   1.423
 3123SOL     OW11207   9.898   2.247   3.331
 3123SOL    HW111208   9.906   2.153   3.317
 3123SOL    HW211209   9.898   2.257   3.427
 3124SOL     OW11210   0.839  12.979  12.080
 3124SOL    HW111211   0.794  13.051  12.123
 3124SOL    HW211212   0.797  12.972  11.995
 3125SOL     OW11213   3.221   0.294  13.760
 3125SOL    HW111214   3.273   0.223  13.797
 3125SOL    HW211215   3.152   0.309  13.824
 3126SOL     OW11216   3.288  12.641   1.774
 3126SOL    HW111217   3.299  12.559   1.725
 3126SOL    HW211218   3.310  12.709   1.712
 3127SOL     OW11219   1.587  14.865  11.653
 3127SOL    HW111220   1.498   0.015  11.681
 3127SOL    HW211221   1.574  14.806  11.579
 3128SOL     OW11222   7.093  13.645   2.276
 3128SOL    HW111223   7.177  13.690   2.287
 3128SOL    HW211224   7.112  13.554   2.297
 3129SOL     OW11225   1.029  11.559   9.352
 3129SOL    HW111226   1.064  11.637   9.310
 3129SOL    HW211227   1.091  11.540   9.422
 3130SOL     OW11228  13.992   8.482  11.851
 3130SOL    HW111229  13.910   8.528  11.866
 3130SOL    HW211230  14.027   8.465  11.938
 3131SOL     OW11231  14.732   6.971   2.098
 3131SOL    HW111232  14.819   6.937   2.079
 3131SOL    HW211233  14.738   7.006   2.187
 3132SOL     OW11234  12.473  12.387  14.454
 3132SOL    HW111235  12.494  12.394  14.361
 3132SOL    HW211236  12.377  12.393  14.457
 3133SOL     OW11237   1.540  10.603  10.840
 3133SOL    HW111238   1.494  10.652  10.908
 3133SOL    HW211239   1.476  10.592  10.770
 3134SOL     OW11240  11.066   4.668   0.915
 3134SOL    HW111241  11.104   4.644   0.999
 3134SOL    HW211242  11.077   4.763   0.909
 3135SOL     OW11243   8.743   7.031   3.948
 3135SOL    HW111244   8.705   6.964   4.005
 3135SOL    HW211245   8.671   7.059   3.892
 3136SOL     OW11246  10.356   4.167   1.846
 3136SOL    HW111247  10.405   4.165   1.764
 3136SOL    HW211248  10.326   4.258   1.854
 3137SOL     OW11249   6.322  13.405   5.362
 3137SOL    HW111250   6.306  13.310   5.366
 3137SOL    HW211251   6.237  13.443   5.341
 3138SOL     OW11252   1.248   2.394   6.219
 3138SOL    HW111253   1.204   2.318   6.256
 3138SOL    HW211254   1.194   2.469   6.244
 3139SOL     OW11255  14.694   7.007  11.228
 3139SOL    HW111256  14.777   7.032  11.270
 3139SOL    HW211257  14.681   6.915  11.252
 3140SOL     OW11258   8.127   0.876   3.152
 3140SOL    HW111259   8.202   0.817   3.145
 3140SOL    HW211260   8.144   0.928   3.231
 3141SOL     OW11261   2.613   0.149  14.439
 3141SOL    HW111262   2.632   0.228  14.488
 3141SOL    HW211263   2.530   0.168  14.394
 3142SOL     OW11264   0.087   5.640   9.281
 3142SOL    HW111265   0.083   5.622   9.375
 3142SOL    HW211266   0.178   5.625   9.257
 3143SOL     OW11267   4.558   7.259  10.037
 3143SOL    HW111268   4.575   7.204  10.114
 3143SOL    HW211269   4.529   7.343  10.073
 3144SOL     OW11270  13.416  13.568   6.034
 3144SOL    HW111271  13.419  13.657   5.999
 3144SOL    HW211272  13.339  13.528   5.994
 3145SOL     OW11273   9.689  13.207  13.102
 3145SOL    HW111274   9.725  13.247  13.181
 3145SOL    HW211275   9.737  13.249  13.030
 3146SOL     OW11276  10.165   6.209  14.305
 3146SOL    HW111277  10.174   6.300  14.335
 3146SOL    HW211278  10.240   6.164  14.343
 3147SOL     OW11279  13.063  10.446   3.271
 3147SOL    HW111280  12.974  10.482   3.270
 3147SOL    HW211281  13.059  10.371   3.211
 3148SOL     OW11282   9.801   5.411   6.026
 3148SOL    HW111283   9.792   5.425   6.120
 3148SOL    HW211284   9.869   5.472   5.998
 3149SOL     OW11285  14.295  14.535  12.905
 3149SOL    HW111286  14.347  14.520  12.984
 3149SOL    HW211287  14.356  14.577  12.844
 3150SOL     OW11288  14.088  13.760  14.104
 3150SOL    HW111289  14.003  13.716  14.101
 3150SOL    HW211290  14.067  13.854  14.096
 3151SOL     OW11291  11.860   2.368  11.092
 3151SOL    HW111292  11.796   2.316  11.141
 3151SOL    HW211293  11.822   2.455  11.087
 3152SOL     OW11294   9.722  13.515   6.854
 3152SOL    HW111295   9.647  13.510   6.795
 3152SOL    HW211296   9.783  13.448   6.823
 3153SOL     OW11297  13.868   6.497   1.927
 3153SOL    HW111298  13.928   6.457   1.864
 3153SOL    HW211299  13.801   6.430   1.941
 3154SOL     OW11300   1.356  13.479   8.249
 3154SOL    HW111301   1.321  13.470   8.337
 3154SOL    HW211302   1.433  13.536   8.260
 3155SOL     OW11303   3.301  11.765   5.372
 3155SOL    HW111304   3.223  11.740   5.421
 3155SOL    HW211305   3.277  11.750   5.280
 3156SOL     OW11306  11.905   5.717   5.442
 3156SOL    HW111307  11.974   5.760   5.392
 3156SOL    HW211308  11.912   5.625   5.417
 3157SOL     OW11309  12.865   3.958   7.271
 3157SOL    HW111310  12.926   3.931   7.202
 3157SOL    HW211311  12.780   3.961   7.227
 3158SOL     OW11312   8.272   6.528   6.004
 3158SOL    HW111313   8.259   6.434   5.992
 3158SOL    HW211314   8.219   6.568   5.935
 3159SOL     OW11315   0.720   9.481  11.360
 3159SOL    HW111316   0.707   9.391  11.389
 3159SOL    HW211317   0.649   9.530  11.402
 3160SOL     OW11318  10.425  10.967   2.221
 3160SOL    HW111319  10.513  10.969   2.261
 3160SOL    HW211320  10.441  10.959   2.127
 3161SOL     OW11321   9.452   6.023   8.613
 3161SOL    HW111322   9.450   6.112   8.647
 3161SOL    HW211323   9.364   6.008   8.577
 3162SOL     OW11324   0.929   0.660   6.918
 3162SOL    HW111325   0.849   0.612   6.941
 3162SOL    HW211326   0.941   0.643   6.825
 3163SOL     OW11327   9.328   5.112   0.255
 3163SOL    HW111328   9.248   5.063   0.271
 3163SOL    HW211329   9.373   5.113   0.340
 3164SOL     OW11330  12.957   0.712   6.538
 3164SOL    HW111331  12.879   0.665   6.507
 3164SOL    HW211332  12.921   0.788   6.583
 3165SOL     OW11333   2.376   5.267   9.480
 3165SOL    HW111334   2.401   5.195   9.421
 3165SOL    HW211335   2.294   5.239   9.519
 3166SOL     OW11336  10.471  10.912  13.753
 3166SOL    HW111337  10.414  10.926  13.678
 3166SOL    HW211338  10.549  10.870  13.717
 3167SOL     OW11339   0.911  11.854  12.773
 3167SOL    HW111340   0.851  11.923  12.802
 3167SOL    HW211341   0.855  11.777  12.762
 3168SOL     OW11342  10.919   2.294   6.685
 3168SOL    HW111343  10.985   2.229   6.708
 3168SOL    HW211344  10.955   2.339   6.608
 3169SOL     OW11345   8.894   7.186   6.314
 3169SOL    HW111346   8.858   7.099   6.295
 3169SOL    HW211347   8.976   7.189   6.266
 3170SOL     OW11348  11.337   4.039  14.652
 3170SOL    HW111349  11.271   4.108  14.657
 3170SOL    HW211350  11.393   4.065  14.579
 3171SOL     OW11351   0.604   2.610   1.254
 3171SOL    HW111352   0.513   2.599   1.225
 3171SOL    HW211353   0.607   2.568   1.340
 3172SOL     OW11354  10.455  13.109  11.618
 3172SOL    HW111355  10.480  13.126  11.527
 3172SOL    HW211356  10.401  13.184  11.642
 3173SOL     OW11357   4.223   3.006  13.219
 3173SOL    HW111358   4.152   3.040  13.273
 3173SOL    HW211359   4.268   3.084  13.186
 3174SOL     OW11360   7.695   2.450   7.254
 3174SOL    HW111361   7.721   2.366   7.217
 3174SOL    HW211362   7.646   2.493   7.184
 3175SOL     OW11363   9.236   2.013   9.226
 3175SOL    HW111364   9.232   2.081   9.292
 3175SOL    HW211365   9.252   2.060   9.144
 3176SOL     OW11366   9.205  11.180   6.645
 3176SOL    HW111367   9.118  11.195   6.683
 3176SOL    HW211368   9.213  11.085   6.641
 3177SOL     OW11369   9.712  10.183   2.533
 3177SOL    HW111370   9.767  10.131   2.475
 3177SOL    HW211371   9.734  10.274   2.513
 3178SOL     OW11372   8.869   0.736  11.140
 3178SOL    HW111373   8.901   0.693  11.219
 3178SOL    HW211374   8.845   0.664  11.081
 3179SOL     OW11375   8.944   3.771  10.289
 3179SOL    HW111376   9.006   3.785  10.218
 3179SOL    HW211377   8.960   3.680  10.317
 3180SOL     OW11378   3.609   6.026   6.050
 3180SOL    HW111379   3.698   6.047   6.020
 3180SOL    HW211380   3.554   6.036   5.973
 3181SOL     OW11381   4.366   3.120  14.206
 3181SOL    HW111382   4.458   3.100  14.226
 3181SOL    HW211383   4.366   3.142  14.113
 3182SOL     OW11384  12.024   7.786   6.020
 3182SOL    HW111385  11.965   7.787   5.944
 3182SOL    HW211386  12.035   7.878   6.043
 3183SOL     OW11387   5.694   7.110   4.141
 3183SOL    HW111388   5.771   7.142   4.189
 3183SOL    HW211389   5.714   7.127   4.049
 3184SOL     OW11390   9.924  11.349  14.741
 3184SOL    HW111391   9.903  11.256  14.745
 3184SOL    HW211392  10.012  11.352  14.703
 3185SOL     OW11393   5.920   4.977  13.393
 3185SOL    HW111394   5.970   4.940  13.320
 3185SOL    HW211395   5.828   4.962  13.371
 3186SOL     OW11396   4.608  14.399  10.209
 3186SOL    HW111397   4.661  14.439  10.278
 3186SOL    HW211398   4.573  14.319  10.248
 3187SOL     OW11399   1.398   2.356  11.554
 3187SOL    HW111400   1.366   2.285  11.609
 3187SOL    HW211401   1.343   2.353  11.476
 3188SOL     OW11402   4.822   1.310   2.128
 3188SOL    HW111403   4.882   1.240   2.104
 3188SOL    HW211404   4.876   1.389   2.128
 3189SOL     OW11405  12.913   1.434   7.688
 3189SOL    HW111406  12.865   1.400   7.613
 3189SOL    HW211407  12.872   1.393   7.764
 3190SOL     OW11408  12.866   7.520   4.260
 3190SOL    HW111409  12.872   7.612   4.287
 3190SOL    HW211410  12.893   7.470   4.336
 3191SOL     OW11411   2.234   6.371   0.337
 3191SOL    HW111412   2.297   6.390   0.268
 3191SOL    HW211413   2.160   6.330   0.292
 3192SOL     OW11414  11.802   3.721  11.985
 3192SOL    HW111415  11.878   3.677  12.021
 3192SOL    HW211416  11.785   3.793  12.045
 3193SOL     OW11417  13.801  12.776   0.774
 3193SOL    HW111418  13.710  12.780   0.805
 3193SOL    HW211419  13.794  12.790   0.680
 3194SOL     OW11420   6.943  10.843   7.692
 3194SOL    HW111421   6.966  10.754   7.665
 3194SOL    HW211422   6.996  10.899   7.635
 3195SOL     OW11423  12.257   0.364   9.844
 3195SOL    HW111424  12.174   0.407   9.823
 3195SOL    HW211425  12.324   0.427   9.819
 3196SOL     OW11426   5.656   9.523  14.060
 3196SOL    HW111427   5.671   9.438  14.100
 3196SOL    HW211428   5.606   9.505  13.981
 3197SOL     OW11429   8.021   1.281  13.332
 3197SOL    HW111430   7.962   1.356  13.324
 3197SOL    HW211431   8.100   1.307  13.284
 3198SOL     OW11432   7.750   6.228   7.968
 3198SOL    HW111433   7.829   6.225   8.023
 3198SOL    HW211434   7.748   6.319   7.936
 3199SOL     OW11435  12.525   4.738   9.884
 3199SOL    HW111436  12.465   4.672   9.919
 3199SOL    HW211437  12.581   4.689   9.823
 3200SOL     OW11438   3.601   2.156   4.647
 3200SOL    HW111439   3.634   2.078   4.692
 3200SOL    HW211440   3.569   2.123   4.563
 3201SOL     OW11441   4.645   5.026   5.527
 3201SOL    HW111442   4.671   5.083   5.599
 3201SOL    HW211443   4.724   5.017   5.474
 3202SOL     OW11444  14.099   8.284  12.334
 3202SOL    HW111445  14.033   8.226  12.371
 3202SOL    HW211446  14.169   8.285  12.400
 3203SOL     OW11447   0.067   6.654   8.079
 3203SOL    HW111448   0.027   6.725   8.030
 3203SOL    HW211449   0.056   6.679   8.171
 3204SOL     OW11450   7.594  11.104   5.448
 3204SOL    HW111451   7.583  11.020   5.404
 3204SOL    HW211452   7.672  11.143   5.408
 3205SOL     OW11453   9.584   2.523   7.440
 3205SOL    HW111454   9.624   2.466   7.374
 3205SOL    HW211455   9.648   2.524   7.512
 3206SOL     OW11456   9.654   7.293   1.221
 3206SOL    HW111457   9.600   7.214   1.216
 3206SOL    HW211458   9.591   7.364   1.226
 3207SOL     OW11459   5.598  11.771   6.651
 3207SOL    HW111460   5.546  11.752   6.573
 3207SOL    HW211461   5.683  11.801   6.617
 3208SOL     OW11462   7.160   4.772   2.472
 3208SOL    HW111463   7.233   4.833   2.477
 3208SOL    HW211464   7.117   4.792   2.389
 3209SOL     OW11465  13.390   3.244   1.998
 3209SOL    HW111466  13.466   3.292   2.031
 3209SOL    HW211467  13.314   3.291   2.034
 3210SOL     OW11468   6.418  11.351   0.462
 3210SOL    HW111469   6.433  11.317   0.374
 3210SOL    HW211470   6.332  11.392   0.458
 3211SOL     OW11471   4.373   0.701   5.423
 3211SOL    HW111472   4.301   0.638   5.429
 3211SOL    HW211473   4.440   0.667   5.484
 3212SOL     OW11474   3.605  10.299   3.916
 3212SOL    HW111475   3.577  10.227   3.973
 3212SOL    HW211476   3.550  10.290   3.838
 3213SOL     OW11477   5.834   3.093   2.100
 3213SOL    HW111478   5.786   3.019   2.137
 3213SOL    HW211479   5.848   3.069   2.008
 3214SOL     OW11480   8.522   1.763   5.283
 3214SOL    HW111481   8.583   1.718   5.342
 3214SOL    HW211482   8.501   1.697   5.217
 3215SOL     OW11483   9.510  13.990   9.599
 3215SOL    HW111484   9.561  13.916   9.632
 3215SOL    HW211485   9.420  13.971   9.625
 3216SOL     OW11486  12.327   8.152  13.441
 3216SOL    HW111487  12.366   8.190  13.520
 3216SOL    HW211488  12.376   8.190  13.369
 3217SOL     OW11489   7.156  11.762  14.605
 3217SOL    HW111490   7.179  11.803  14.688
 3217SOL    HW211491   7.142  11.835  14.545
 3218SOL     OW11492   4.403   5.728   9.329
 3218SOL    HW111493   4.496   5.710   9.337
 3218SOL    HW211494   4.366   5.650   9.288
 3219SOL     OW11495   9.254   2.203   6.699
 3219SOL    HW111496   9.261   2.151   6.779
 3219SOL    HW211497   9.343   2.207   6.664
 3220SOL     OW11498  14.779   4.470   3.041
 3220SOL    HW111499  14.747   4.457   2.952
 3220SOL    HW211500  14.828   4.390   3.061
 3221SOL     OW11501  14.422   9.799  10.651
 3221SOL    HW111502  14.485   9.772  10.718
 3221SOL    HW211503  14.346   9.742  10.666
 3222SOL     OW11504   1.163  11.397   6.086
 3222SOL    HW111505   1.255  11.386   6.109
 3222SOL    HW211506   1.156  11.359   5.998
 3223SOL     OW11507  10.531   1.353   9.644
 3223SOL    HW111508  10.483   1.273   9.625
 3223SOL    HW211509  10.611   1.346   9.592
 3224SOL     OW11510  10.111  11.482  10.380
 3224SOL    HW111511  10.135  11.510  10.468
 3224SOL    HW211512  10.062  11.557  10.344
 3225SOL     OW11513   9.278  12.218   5.416
 3225SOL    HW111514   9.348  12.206   5.352
 3225SOL    HW211515   9.321  12.256   5.492
 3226SOL     OW11516   8.076   3.830   8.642
 3226SOL    HW111517   8.037   3.760   8.590
 3226SOL    HW211518   8.070   3.800   8.733
 3227SOL     OW11519   0.916  14.032   4.555
 3227SOL    HW111520   0.911  13.987   4.639
 3227SOL    HW211521   0.978  14.103   4.570
 3228SOL     OW11522   6.422   8.180   3.156
 3228SOL    HW111523   6.427   8.219   3.069
 3228SOL    HW211524   6.438   8.253   3.216
 3229SOL     OW11525  10.411   2.809   2.000
 3229SOL    HW111526  10.437   2.743   2.065
 3229SOL    HW211527  10.378   2.758   1.926
 3230SOL     OW11528  11.023   1.623   5.576
 3230SOL    HW111529  11.101   1.662   5.536
 3230SOL    HW211530  11.019   1.534   5.539
 3231SOL     OW11531   8.768  14.224  14.427
 3231SOL    HW111532   8.789  14.257  14.514
 3231SOL    HW211533   8.849  14.183  14.396
 3232SOL     OW11534  13.951   4.180   9.016
 3232SOL    HW111535  13.958   4.230   8.934
 3232SOL    HW211536  13.906   4.239   9.076
 3233SOL     OW11537   0.772  13.677   8.792
 3233SOL    HW111538   0.800  13.722   8.712
 3233SOL    HW211539   0.691  13.721   8.817
 3234SOL     OW11540  12.065   1.748  11.060
 3234SOL    HW111541  12.110   1.673  11.098
 3234SOL    HW211542  12.061   1.729  10.966
 3235SOL     OW11543  10.289   5.058   8.612
 3235SOL    HW111544  10.364   5.090   8.662
 3235SOL    HW211545  10.244   4.998   8.673
 3236SOL     OW11546  11.065  11.280  13.916
 3236SOL    HW111547  11.124  11.211  13.885
 3236SOL    HW211548  10.996  11.284  13.850
 3237SOL     OW11549   6.246   1.467   6.813
 3237SOL    HW111550   6.308   1.409   6.769
 3237SOL    HW211551   6.268   1.459   6.906
 3238SOL     OW11552   0.154   2.372   9.844
 3238SOL    HW111553   0.167   2.399   9.935
 3238SOL    HW211554   0.229   2.409   9.797
 3239SOL     OW11555  11.881  10.518   7.677
 3239SOL    HW111556  11.883  10.607   7.711
 3239SOL    HW211557  11.947  10.518   7.607
 3240SOL     OW11558   3.270   5.894   5.593
 3240SOL    HW111559   3.338   5.844   5.548
 3240SOL    HW211560   3.266   5.855   5.681
 3241SOL     OW11561   0.028  12.023   7.188
 3241SOL    HW111562   0.051  12.116   7.191
 3241SOL    HW211563   0.011  12.006   7.095
 3242SOL     OW11564   2.653   1.260   1.441
 3242SOL    HW111565   2.663   1.196   1.371
 3242SOL    HW211566   2.642   1.344   1.396
 3243SOL     OW11567  10.616   0.448  11.602
 3243SOL    HW111568  10.605   0.489  11.688
 3243SOL    HW211569  10.527   0.440  11.568
 3244SOL     OW11570   8.702  13.173  10.445
 3244SOL    HW111571   8.668  13.197  10.359
 3244SOL    HW211572   8.655  13.093  10.469
 3245SOL     OW11573  14.840   4.718   5.246
 3245SOL    HW111574  14.768   4.659   5.268
 3245SOL    HW211575  14.832   4.732   5.152
 3246SOL     OW11576   0.590   5.359   0.419
 3246SOL    HW111577   0.499   5.334   0.435
 3246SOL    HW211578   0.587   5.452   0.399
 3247SOL     OW11579  12.207   0.753   6.463
 3247SOL    HW111580  12.158   0.802   6.529
 3247SOL    HW211581  12.146   0.685   6.434
 3248SOL     OW11582  13.293   4.477   5.375
 3248SOL    HW111583  13.310   4.403   5.317
 3248SOL    HW211584  13.218   4.449   5.428
 3249SOL     OW11585   2.058   1.278  12.167
 3249SOL    HW111586   2.036   1.337  12.095
 3249SOL    HW211587   2.127   1.323  12.215
 3250SOL     OW11588  10.826   2.015  10.758
 3250SOL    HW111589  10.821   1.989  10.850
 3250SOL    HW211590  10.767   2.090  10.751
 3251SOL     OW11591   9.532   9.465   0.265
 3251SOL    HW111592   9.570   9.553   0.267
 3251SOL    HW211593   9.601   9.409   0.302
 3252SOL     OW11594  11.734   4.897  13.777
 3252SOL    HW111595  11.688   4.877  13.695
 3252SOL    HW211596  11.718   4.990  13.791
 3253SOL     OW11597   9.533   7.559   1.277
 3253SOL    HW111598   9.488   7.643   1.268
 3253SOL    HW211599   9.503   7.525   1.362
 3254SOL     OW11600   8.935   0.035  11.394
 3254SOL    HW111601   8.937   0.001  11.483
 3254SOL    HW211602   8.875   0.110  11.398
 3255SOL     OW11603   3.728  12.924   4.622
 3255SOL    HW111604   3.657  12.905   4.560
 3255SOL    HW211605   3.785  12.847   4.617
 3256SOL     OW11606   4.842  13.458   7.433
 3256SOL    HW111607   4.857  13.447   7.339
 3256SOL    HW211608   4.889  13.386   7.474
 3257SOL     OW11609   4.653  12.088   3.609
 3257SOL    HW111610   4.612  12.107   3.524
 3257SOL    HW211611   4.621  12.156   3.667
 3258SOL     OW11612   5.196   5.224  10.014
 3258SOL    HW111613   5.233   5.303   9.975
 3258SOL    HW211614   5.151   5.255  10.093
 3259SOL     OW11615   4.273   1.800   0.061
 3259SOL    HW111616   4.269   1.891   0.030
 3259SOL    HW211617   4.344   1.761   0.010
 3260SOL     OW11618   3.857   1.226  11.637
 3260SOL    HW111619   3.824   1.136  11.637
 3260SOL    HW211620   3.863   1.249  11.544
 3261SOL     OW11621  12.484   4.623   4.999
 3261SOL    HW111622  12.527   4.546   5.037
 3261SOL    HW211623  12.478   4.685   5.071
 3262SOL     OW11624   7.957  12.443   6.068
 3262SOL    HW111625   7.953  12.417   6.160
 3262SOL    HW211626   8.049  12.465   6.053
 3263SOL     OW11627   8.754   3.078   7.315
 3263SOL    HW111628   8.826   3.088   7.376
 3263SOL    HW211629   8.676   3.104   7.365
 3264SOL     OW11630   0.135  11.771  12.612
 3264SOL    HW111631   0.068  11.828  12.651
 3264SOL    HW211632   0.218  11.815  12.630
 3265SOL     OW11633   4.823   7.077   6.018
 3265SOL    HW111634   4.810   7.031   6.101
 3265SOL    HW211635   4.794   7.014   5.952
 3266SOL     OW11636   2.006   2.348  11.998
 3266SOL    HW111637   1.994   2.429  12.047
 3266SOL    HW211638   2.059   2.373  11.922
 3267SOL     OW11639   3.145   6.721   3.639
 3267SOL    HW111640   3.126   6.743   3.548
 3267SOL    HW211641   3.075   6.661   3.665
 3268SOL     OW11642  12.812   8.008   8.615
 3268SOL    HW111643  12.831   8.027   8.707
 3268SOL    HW211644  12.753   7.933   8.617
 3269SOL     OW11645   4.512   5.085   6.398
 3269SOL    HW111646   4.496   5.128   6.482
 3269SOL    HW211647   4.606   5.098   6.382
 3270SOL     OW11648   9.881   1.840   0.103
 3270SOL    HW111649   9.853   1.881   0.022
 3270SOL    HW211650   9.976   1.835   0.097
 3271SOL     OW11651  13.059  13.457   6.344
 3271SOL    HW111652  13.113  13.411   6.280
 3271SOL    HW211653  13.103  13.541   6.357
 3272SOL     OW11654  12.103   8.625   5.404
 3272SOL    HW111655  12.128   8.591   5.490
 3272SOL    HW211656  12.008   8.630   5.407
 3273SOL     OW11657  14.844   0.652   5.784
 3273SOL    HW111658  14.853   0.578   5.724
 3273SOL    HW211659   0.059   0.685   5.796
 3274SOL     OW11660   3.478   8.117   5.718
 3274SOL    HW111661   3.563   8.102   5.759
 3274SOL    HW211662   3.498   8.133   5.626
 3275SOL     OW11663   5.818   4.702   9.652
 3275SOL    HW111664   5.731   4.695   9.613
 3275SOL    HW211665   5.822   4.793   9.684
 3276SOL     OW11666   4.326  13.132  13.913
 3276SOL    HW111667   4.309  13.070  13.842
 3276SOL    HW211668   4.341  13.215  13.868
 3277SOL     OW11669  12.070   3.491  13.323
 3277SOL    HW111670  12.132   3.495  13.250
 3277SOL    HW211671  12.004   3.557  13.301
 3278SOL     OW11672   9.070   3.808   3.835
 3278SOL    HW111673   9.068   3.866   3.912
 3278SOL    HW211674   9.131   3.850   3.775
 3279SOL     OW11675   3.429  14.575   4.008
 3279SOL    HW111676   3.522  14.565   4.030
 3279SOL    HW211677   3.407  14.663   4.037
 3280SOL     OW11678   8.343   8.641   4.642
 3280SOL    HW111679   8.356   8.720   4.590
 3280SOL    HW211680   8.425   8.630   4.690
 3281SOL     OW11681  11.114   5.003  12.319
 3281SOL    HW111682  11.190   4.976  12.268
 3281SOL    HW211683  11.044   5.015  12.255
 3282SOL     OW11684   6.988  14.806   7.837
 3282SOL    HW111685   7.046   0.007   7.852
 3282SOL    HW211686   7.027  14.735   7.889
 3283SOL     OW11687   4.203   3.696   5.991
 3283SOL    HW111688   4.251   3.770   6.027
 3283SOL    HW211689   4.118   3.732   5.967
 3284SOL     OW11690  12.575   4.973   8.343
 3284SOL    HW111691  12.530   4.906   8.395
 3284SOL    HW211692  12.598   5.041   8.407
 3285SOL     OW11693   0.755   6.320   3.752
 3285SOL    HW111694   0.771   6.230   3.724
 3285SOL    HW211695   0.811   6.374   3.696
 3286SOL     OW11696  10.404   8.759  10.373
 3286SOL    HW111697  10.361   8.676  10.352
 3286SOL    HW211698  10.439   8.746  10.461
 3287SOL     OW11699  11.800   1.313  12.922
 3287SOL    HW111700  11.768   1.378  12.985
 3287SOL    HW211701  11.814   1.363  12.841
 3288SOL     OW11702  11.856   7.785   3.650
 3288SOL    HW111703  11.882   7.843   3.721
 3288SOL    HW211704  11.862   7.697   3.687
 3289SOL     OW11705   5.947   3.965   1.790
 3289SOL    HW111706   5.981   3.909   1.720
 3289SOL    HW211707   5.911   3.903   1.854
 3290SOL     OW11708  11.197   6.488   4.679
 3290SOL    HW111709  11.202   6.576   4.715
 3290SOL    HW211710  11.221   6.499   4.586
 3291SOL     OW11711   2.173   8.756   1.941
 3291SOL    HW111712   2.175   8.759   1.845
 3291SOL    HW211713   2.211   8.671   1.963
 3292SOL     OW11714  14.244   3.775   5.129
 3292SOL    HW111715  14.162   3.727   5.138
 3292SOL    HW211716  14.312   3.711   5.148
 3293SOL     OW11717   6.405   5.345   2.216
 3293SOL    HW111718   6.350   5.391   2.280
 3293SOL    HW211719   6.347   5.330   2.141
 3294SOL     OW11720   5.851   0.049   4.854
 3294SOL    HW111721   5.802   0.014   4.928
 3294SOL    HW211722   5.889  14.845   4.812
 3295SOL     OW11723   2.488   3.823  11.885
 3295SOL    HW111724   2.410   3.828  11.831
 3295SOL    HW211725   2.550   3.882  11.844
 3296SOL     OW11726   2.066  14.174   3.890
 3296SOL    HW111727   2.089  14.267   3.886
 3296SOL    HW211728   2.041  14.159   3.981
 3297SOL     OW11729  12.465   3.571  12.296
 3297SOL    HW111730  12.475   3.515  12.373
 3297SOL    HW211731  12.417   3.517  12.233
 3298SOL     OW11732   1.873  13.600  10.954
 3298SOL    HW111733   1.818  13.524  10.931
 3298SOL    HW211734   1.847  13.668  10.892
 3299SOL     OW11735  13.468  10.326   2.141
 3299SOL    HW111736  13.559  10.353   2.154
 3299SOL    HW211737  13.421  10.408   2.122
 3300SOL     OW11738  11.370   9.661  11.587
 3300SOL    HW111739  11.392   9.573  11.618
 3300SOL    HW211740  11.288   9.682  11.632
 3301SOL     OW11741   2.878   3.127   0.649
 3301SOL    HW111742   2.795   3.173   0.662
 3301SOL    HW211743   2.890   3.126   0.554
 3302SOL     OW11744   7.173   9.112   3.432
 3302SOL    HW111745   7.187   9.042   3.368
 3302SOL    HW211746   7.155   9.066   3.514
 3303SOL     OW11747   2.253   1.484  12.722
 3303SOL    HW111748   2.237   1.502  12.814
 3303SOL    HW211749   2.194   1.412  12.700
 3304SOL     OW11750   5.367   7.037   1.393
 3304SOL    HW111751   5.273   7.019   1.392
 3304SOL    HW211752   5.406   6.961   1.350
 3305SOL     OW11753   0.804   2.865   6.608
 3305SOL    HW111754   0.794   2.926   6.681
 3305SOL    HW211755   0.759   2.908   6.535
 3306SOL     OW11756   9.565  11.522   5.395
 3306SOL    HW111757   9.653  11.557   5.410
 3306SOL    HW211758   9.555  11.453   5.461
 3307SOL     OW11759   8.101   2.215   8.527
 3307SOL    HW111760   8.172   2.246   8.471
 3307SOL    HW211761   8.081   2.290   8.583
 3308SOL     OW11762  14.495   5.756   7.828
 3308SOL    HW111763  14.585   5.778   7.807
 3308SOL    HW211764  14.454   5.741   7.742
 3309SOL     OW11765   8.175   1.040   0.184
 3309SOL    HW111766   8.109   0.981   0.146
 3309SOL    HW211767   8.146   1.052   0.274
 3310SOL     OW11768  10.651   0.144   0.565
 3310SOL    HW111769  10.713   0.157   0.494
 3310SOL    HW211770  10.704   0.106   0.636
 3311SOL     OW11771  13.378   6.087   1.866
 3311SOL    HW111772  13.408   6.015   1.920
 3311SOL    HW211773  13.292   6.060   1.834
 3312SOL     OW11774   9.776   3.312  12.275
 3312SOL    HW111775   9.852   3.370  12.280
 3312SOL    HW211776   9.751   3.296  12.366
 3313SOL     OW11777   2.278   4.528   9.922
 3313SOL    HW111778   2.236   4.525   9.836
 3313SOL    HW211779   2.208   4.554   9.982
 3314SOL     OW11780  14.750   7.199   0.809
 3314SOL    HW111781  14.681   7.265   0.800
 3314SOL    HW211782  14.792   7.197   0.723
 3315SOL     OW11783  10.576  11.193   7.937
 3315SOL    HW111784  10.489  11.218   7.906
 3315SOL    HW211785  10.631  11.200   7.858
 3316SOL     OW11786   4.840  10.795  11.784
 3316SOL    HW111787   4.917  10.828  11.737
 3316SOL    HW211788   4.803  10.872  11.826
 3317SOL     OW11789   6.013  13.856   8.656
 3317SOL    HW111790   6.002  13.949   8.635
 3317SOL    HW211791   6.022  13.813   8.572
 3318SOL     OW11792   9.798  10.539   1.370
 3318SOL    HW111793   9.709  10.537   1.404
 3318SOL    HW211794   9.789  10.570   1.280
 3319SOL     OW11795   9.653   8.918   6.140
 3319SOL    HW111796   9.730   8.959   6.180
 3319SOL    HW211797   9.675   8.913   6.047
 3320SOL     OW11798  10.606   1.423  11.253
 3320SOL    HW111799  10.535   1.443  11.314
 3320SOL    HW211800  10.682   1.408  11.309
 3321SOL     OW11801   9.143  12.059   5.734
 3321SOL    HW111802   9.075  12.126   5.726
 3321SOL    HW211803   9.094  11.978   5.750
 3322SOL     OW11804   3.810   4.423   6.599
 3322SOL    HW111805   3.780   4.384   6.680
 3322SOL    HW211806   3.899   4.389   6.587
 3323SOL     OW11807   3.959   0.650   5.378
 3323SOL    HW111808   3.930   0.741   5.385
 3323SOL    HW211809   4.009   0.634   5.458
 3324SOL     OW11810  12.032   9.134  13.699
 3324SOL    HW111811  12.111   9.157  13.650
 3324SOL    HW211812  12.043   9.041  13.719
 3325SOL     OW11813   2.629  12.807  11.850
 3325SOL    HW111814   2.707  12.821  11.905
 3325SOL    HW211815   2.590  12.894  11.843
 3326SOL     OW11816  11.492   6.696   0.077
 3326SOL    HW111817  11.399   6.681   0.057
 3326SOL    HW211818  11.501   6.791   0.077
 3327SOL     OW11819   3.224  10.768   7.582
 3327SOL    HW111820   3.299  10.715   7.610
 3327SOL    HW211821   3.150  10.733   7.633
 3328SOL     OW11822  13.429  11.777   9.458
 3328SOL    HW111823  13.480  11.858   9.455
 3328SOL    HW211824  13.338  11.804   9.445
 3329SOL     OW11825   7.373   5.210   6.935
 3329SOL    HW111826   7.406   5.136   6.986
 3329SOL    HW211827   7.311   5.171   6.873
 3330SOL     OW11828   9.625   0.861   4.815
 3330SOL    HW111829   9.535   0.895   4.809
 3330SOL    HW211830   9.618   0.789   4.878
 3331SOL     OW11831  13.387   4.379  13.446
 3331SOL    HW111832  13.346   4.426  13.519
 3331SOL    HW211833  13.428   4.303  13.488
 3332SOL     OW11834   6.553   8.070  12.213
 3332SOL    HW111835   6.462   8.040  12.207
 3332SOL    HW211836   6.592   8.015  12.282
 3333SOL     OW11837   2.380   2.922   7.601
 3333SOL    HW111838   2.370   2.876   7.517
 3333SOL    HW211839   2.464   2.890   7.636
 3334SOL     OW11840  14.576   5.890   1.397
 3334SOL    HW111841  14.641   5.925   1.336
 3334SOL    HW211842  14.493   5.901   1.352
 3335SOL     OW11843   8.340   8.632   2.158
 3335SOL    HW111844   8.415   8.684   2.129
 3335SOL    HW211845   8.269   8.656   2.098
 3336SOL     OW11846  14.169  11.227   5.326
 3336SOL    HW111847  14.083  11.257   5.355
 3336SOL    HW211848  14.151  11.154   5.268
 3337SOL     OW11849   3.146  10.867   5.217
 3337SOL    HW111850   3.116  10.944   5.169
 3337SOL    HW211851   3.104  10.874   5.303
 3338SOL     OW11852   0.934  13.162   7.461
 3338SOL    HW111853   0.928  13.247   7.505
 3338SOL    HW211854   1.020  13.163   7.419
 3339SOL     OW11855  11.960  12.834  11.239
 3339SOL    HW111856  12.018  12.765  11.273
 3339SOL    HW211857  11.908  12.790  11.172
 3340SOL     OW11858   7.469   1.937   5.880
 3340SOL    HW111859   7.500   1.938   5.970
 3340SOL    HW211860   7.378   1.968   5.886
 3341SOL     OW11861  12.329   5.153   3.832
 3341SOL    HW111862  12.267   5.098   3.785
 3341SOL    HW211863  12.414   5.110   3.821
 3342SOL     OW11864   2.180   6.922  13.019
 3342SOL    HW111865   2.092   6.908  12.984
 3342SOL    HW211866   2.227   6.967  12.948
 3343SOL     OW11867  11.690   7.858   5.666
 3343SOL    HW111868  11.697   7.918   5.592
 3343SOL    HW211869  11.617   7.800   5.644
 3344SOL     OW11870   7.297   0.269  13.370
 3344SOL    HW111871   7.259   0.331  13.433
 3344SOL    HW211872   7.223   0.219  13.337
 3345SOL     OW11873   1.064   2.211  11.020
 3345SOL    HW111874   1.049   2.278  10.954
 3345SOL    HW211875   1.043   2.129  10.976
 3346SOL     OW11876  10.972   4.046  14.583
 3346SOL    HW111877  10.876   4.045  14.585
 3346SOL    HW211878  10.998   3.985  14.653
 3347SOL     OW11879   9.923  13.929  11.371
 3347SOL    HW111880   9.837  13.968  11.355
 3347SOL    HW211881   9.962  13.923  11.284
 3348SOL     OW11882  14.205   3.113   2.129
 3348SOL    HW111883  14.281   3.171   2.121
 3348SOL    HW211884  14.198   3.070   2.044
 3349SOL     OW11885  12.588   3.721   3.978
 3349SOL    HW111886  12.570   3.702   3.886
 3349SOL    HW211887  12.608   3.815   3.979
 3350SOL     OW11888   0.146   6.830   6.376
 3350SOL    HW111889   0.142   6.923   6.397
 3350SOL    HW211890   0.197   6.791   6.448
 3351SOL     OW11891   9.035   9.837  14.811
 3351SOL    HW111892   8.984   9.792   0.006
 3351SOL    HW211893   9.067   9.766  14.755
 3352SOL     OW11894  13.970   3.942   6.161
 3352SOL    HW111895  13.886   3.965   6.122
 3352SOL    HW211896  13.960   3.850   6.185
 3353SOL     OW11897  13.645  12.590   7.966
 3353SOL    HW111898  13.649  12.666   8.025
 3353SOL    HW211899  13.565  12.544   7.992
 3354SOL     OW11900  11.018   3.312   9.325
 3354SOL    HW111901  11.062   3.277   9.403
 3354SOL    HW211902  11.042   3.252   9.255
 3355SOL     OW11903   6.266   0.470   0.739
 3355SOL    HW111904   6.330   0.400   0.749
 3355SOL    HW211905   6.225   0.477   0.826
 3356SOL     OW11906   4.680   4.085   1.943
 3356SOL    HW111907   4.710   4.007   1.895
 3356SOL    HW211908   4.716   4.074   2.031
 3357SOL     OW11909  13.453   5.688   5.205
 3357SOL    HW111910  13.462   5.764   5.263
 3357SOL    HW211911  13.543   5.660   5.188
 3358SOL     OW11912  11.593  11.882   3.540
 3358SOL    HW111913  11.510  11.869   3.585
 3358SOL    HW211914  11.582  11.966   3.494
 3359SOL     OW11915   3.013   0.889  11.677
 3359SOL    HW111916   2.970   0.812  11.640
 3359SOL    HW211917   3.038   0.862  11.766
 3360SOL     OW11918  12.072  13.638   6.678
 3360SOL    HW111919  12.045  13.729   6.694
 3360SOL    HW211920  12.150  13.627   6.733
 3361SOL     OW11921  12.203   0.920   5.327
 3361SOL    HW111922  12.261   0.894   5.255
 3361SOL    HW211923  12.245   0.998   5.364
 3362SOL     OW11924   1.238   0.282   6.331
 3362SOL    HW111925   1.324   0.252   6.299
 3362SOL    HW211926   1.180   0.270   6.256
 3363SOL     OW11927  10.901   5.533  12.039
 3363SOL    HW111928  10.832   5.473  12.011
 3363SOL    HW211929  10.950   5.553  11.959
 3364SOL     OW11930  12.034  12.879   9.099
 3364SOL    HW111931  11.948  12.920   9.099
 3364SOL    HW211932  12.055  12.868   9.191
 3365SOL     OW11933   7.792   1.391  11.495
 3365SOL    HW111934   7.844   1.349  11.427
 3365SOL    HW211935   7.718   1.430  11.449
 3366SOL     OW11936   1.458  10.731   7.458
 3366SOL    HW111937   1.454  10.826   7.445
 3366SOL    HW211938   1.405  10.714   7.536
 3367SOL     OW11939   1.081   2.457   1.557
 3367SOL    HW111940   1.050   2.464   1.647
 3367SOL    HW211941   1.002   2.446   1.505
 3368SOL     OW11942  10.032   5.173   2.927
 3368SOL    HW111943   9.950   5.140   2.890
 3368SOL    HW211944  10.068   5.230   2.860
 3369SOL     OW11945  10.227   4.492  10.055
 3369SOL    HW111946  10.285   4.419  10.078
 3369SOL    HW211947  10.139   4.459  10.072
 3370SOL     OW11948   8.591  12.305   0.794
 3370SOL    HW111949   8.544  12.278   0.716
 3370SOL    HW211950   8.526  12.350   0.847
 3371SOL     OW11951   2.132   2.146  11.062
 3371SOL    HW111952   2.180   2.172  11.140
 3371SOL    HW211953   2.054   2.201  11.062
 3372SOL     OW11954  13.485   2.784   7.141
 3372SOL    HW111955  13.573   2.761   7.170
 3372SOL    HW211956  13.462   2.716   7.077
 3373SOL     OW11957   3.043   9.800   7.835
 3373SOL    HW111958   2.992   9.729   7.874
 3373SOL    HW211959   3.132   9.784   7.864
 3374SOL     OW11960   3.184   3.979   1.309
 3374SOL    HW111961   3.275   3.980   1.339
 3374SOL    HW211962   3.132   3.960   1.387
 3375SOL     OW11963   3.455   7.650   2.685
 3375SOL    HW111964   3.535   7.628   2.733
 3375SOL    HW211965   3.384   7.619   2.742
 3376SOL     OW11966   7.577   5.565   0.388
 3376SOL    HW111967   7.611   5.542   0.301
 3376SOL    HW211968   7.606   5.494   0.445
 3377SOL     OW11969   8.986   8.044   6.880
 3377SOL    HW111970   9.041   8.108   6.834
 3377SOL    HW211971   9.036   7.963   6.876
 3378SOL     OW11972   4.858   6.516   8.493
 3378SOL    HW111973   4.778   6.483   8.452
 3378SOL    HW211974   4.925   6.508   8.424
 3379SOL     OW11975   0.245  12.615   4.653
 3379SOL    HW111976   0.191  12.613   4.732
 3379SOL    HW211977   0.324  12.662   4.679
 3380SOL     OW11978   1.865   8.222  13.688
 3380SOL    HW111979   1.957   8.205  13.667
 3380SOL    HW211980   1.868   8.274  13.768
 3381SOL     OW11981   1.477   3.984   7.565
 3381SOL    HW111982   1.546   4.043   7.593
 3381SOL    HW211983   1.464   4.004   7.473
 3382SOL     OW11984   4.911   8.476   0.769
 3382SOL    HW111985   4.919   8.454   0.862
 3382SOL    HW211986   4.927   8.393   0.724
 3383SOL     OW11987   7.807   1.541  12.364
 3383SOL    HW111988   7.840   1.454  12.341
 3383SOL    HW211989   7.848   1.561  12.448
 3384SOL     OW11990   5.896  11.348  13.749
 3384SOL    HW111991   5.909  11.439  13.723
 3384SOL    HW211992   5.807  11.345  13.783
 3385SOL     OW11993  10.764   5.757  10.116
 3385SOL    HW111994  10.824   5.782  10.046
 3385SOL    HW211995  10.677   5.782  10.084
 3386SOL     OW11996   1.631  10.231  13.965
 3386SOL    HW111997   1.574  10.303  13.990
 3386SOL    HW211998   1.576  10.175  13.910
 3387SOL     OW11999   8.432   6.409   2.606
 3387SOL    HW112000   8.391   6.429   2.689
 3387SOL    HW212001   8.480   6.327   2.622
 3388SOL     OW12002  10.664  11.348   9.031
 3388SOL    HW112003  10.698  11.291   8.961
 3388SOL    HW212004  10.635  11.427   8.985
 3389SOL     OW12005  13.429   1.459   5.678
 3389SOL    HW112006  13.401   1.451   5.587
 3389SOL    HW212007  13.520   1.488   5.672
 3390SOL     OW12008  14.590   2.202  14.773
 3390SOL    HW112009  14.555   2.175  14.858
 3390SOL    HW212010  14.526   2.265  14.739
 3391SOL     OW12011   8.783  12.123   0.084
 3391SOL    HW112012   8.842  12.162   0.148
 3391SOL    HW212013   8.713  12.187   0.074
 3392SOL     OW12014   9.776   9.674   1.291
 3392SOL    HW112015   9.731   9.639   1.214
 3392SOL    HW212016   9.820   9.598   1.329
 3393SOL     OW12017  10.686   4.120   4.714
 3393SOL    HW112018  10.750   4.055   4.687
 3393SOL    HW212019  10.666   4.169   4.634
 3394SOL     OW12020   4.417   6.659  11.532
 3394SOL    HW112021   4.424   6.572  11.493
 3394SOL    HW212022   4.341   6.652  11.591
 3395SOL     OW12023  14.587  11.486  13.181
 3395SOL    HW112024  14.504  11.520  13.213
 3395SOL    HW212025  14.574  11.391  13.176
 3396SOL     OW12026   2.848   7.951  10.732
 3396SOL    HW112027   2.783   7.919  10.670
 3396SOL    HW212028   2.923   7.891  10.722
 3397SOL     OW12029  11.917  10.683   5.206
 3397SOL    HW112030  11.836  10.643   5.235
 3397SOL    HW212031  11.893  10.773   5.184
 3398SOL     OW12032  11.982   4.465   3.754
 3398SOL    HW112033  11.989   4.510   3.838
 3398SOL    HW212034  11.890   4.477   3.727
 3399SOL     OW12035   6.111   0.705   2.904
 3399SOL    HW112036   6.043   0.640   2.919
 3399SOL    HW212037   6.063   0.782   2.872
 3400SOL     OW12038   5.304   0.843   3.066
 3400SOL    HW112039   5.331   0.875   2.980
 3400SOL    HW212040   5.211   0.867   3.072
 3401SOL     OW12041   8.952   9.511   9.125
 3401SOL    HW112042   8.940   9.560   9.043
 3401SOL    HW212043   8.929   9.573   9.194
 3402SOL     OW12044   7.861   5.181   4.546
 3402SOL    HW112045   7.894   5.151   4.462
 3402SOL    HW212046   7.894   5.117   4.609
 3403SOL     OW12047   4.989   0.619   9.536
 3403SOL    HW112048   4.958   0.658   9.455
 3403SOL    HW212049   5.058   0.559   9.509
 3404SOL     OW12050  10.035   0.763   7.642
 3404SOL    HW112051  10.117   0.797   7.605
 3404SOL    HW212052   9.993   0.838   7.682
 3405SOL     OW12053  12.059  11.923   5.481
 3405SOL    HW112054  12.129  11.876   5.527
 3405SOL    HW212055  11.983  11.866   5.488
 3406SOL     OW12056   9.668  11.142  14.384
 3406SOL    HW112057   9.756  11.104  14.390
 3406SOL    HW212058   9.649  11.173  14.473
 3407SOL     OW12059  10.814   6.488  12.019
 3407SOL    HW112060  10.842   6.403  12.053
 3407SOL    HW212061  10.865   6.500  11.938
 3408SOL     OW12062   6.865   8.041   4.082
 3408SOL    HW112063   6.849   8.096   4.006
 3408SOL    HW212064   6.958   8.020   4.079
 3409SOL     OW12065  13.940   8.392   9.818
 3409SOL    HW112066  14.012   8.416   9.876
 3409SOL    HW212067  13.868   8.450   9.844
 3410SOL     OW12068  12.976  11.955  10.678
 3410SOL    HW112069  13.002  12.029  10.733
 3410SOL    HW212070  13.030  11.882  10.708
 3411SOL     OW12071  11.443  13.081   9.054
 3411SOL    HW112072  11.389  13.138   8.999
 3411SOL    HW212073  11.510  13.140   9.091
 3412SOL     OW12074   3.615   7.304   8.888
 3412SOL    HW112075   3.665   7.372   8.934
 3412SOL    HW212076   3.525   7.319   8.915
 3413SOL     OW12077   7.466   4.470   2.733
 3413SOL    HW112078   7.551   4.509   2.715
 3413SOL    HW212079   7.413   4.490   2.655
 3414SOL     OW12080  12.387  10.905   0.938
 3414SOL    HW112081  12.299  10.874   0.913
 3414SOL    HW212082  12.429  10.829   0.976
 3415SOL     OW12083   7.837   8.648   6.816
 3415SOL    HW112084   7.782   8.727   6.819
 3415SOL    HW212085   7.855   8.636   6.722
 3416SOL     OW12086  14.401   4.993  12.987
 3416SOL    HW112087  14.423   4.944  13.066
 3416SOL    HW212088  14.361   4.929  12.929
 3417SOL     OW12089   9.183   3.855  12.537
 3417SOL    HW112090   9.112   3.830  12.596
 3417SOL    HW212091   9.259   3.806  12.568
 3418SOL     OW12092   6.534  10.626  12.652
 3418SOL    HW112093   6.608  10.585  12.606
 3418SOL    HW212094   6.575  10.689  12.712
 3419SOL     OW12095   2.781   1.186  13.635
 3419SOL    HW112096   2.800   1.095  13.659
 3419SOL    HW212097   2.866   1.223  13.609
 3420SOL     OW12098  12.189   7.871  10.385
 3420SOL    HW112099  12.150   7.790  10.350
 3420SOL    HW212100  12.120   7.936  10.375
 3421SOL     OW12101   4.754   8.135   9.502
 3421SOL    HW112102   4.690   8.196   9.536
 3421SOL    HW212103   4.769   8.072   9.573
 3422SOL     OW12104  12.399   9.581  12.857
 3422SOL    HW112105  12.453   9.515  12.814
 3422SOL    HW212106  12.411   9.660  12.804
 3423SOL     OW12107  14.189  14.639   4.067
 3423SOL    HW112108  14.212  14.615   3.977
 3423SOL    HW212109  14.114  14.697   4.057
 3424SOL     OW12110  12.859   3.612   5.575
 3424SOL    HW112111  12.879   3.625   5.482
 3424SOL    HW212112  12.802   3.536   5.577
 3425SOL     OW12113   1.166  11.732   8.678
 3425SOL    HW112114   1.244  11.693   8.638
 3425SOL    HW212115   1.152  11.680   8.758
 3426SOL     OW12116   5.831   9.540   1.392
 3426SOL    HW112117   5.926   9.527   1.391
 3426SOL    HW212118   5.812   9.587   1.311
 3427SOL     OW12119  12.662  11.021   9.903
 3427SOL    HW112120  12.714  11.101   9.906
 3427SOL    HW212121  12.692  10.971   9.979
 3428SOL     OW12122   3.748   6.826   8.958
 3428SOL    HW112123   3.674   6.765   8.964
 3428SOL    HW212124   3.788   6.806   8.873
 3429SOL     OW12125  13.256   4.381   1.946
 3429SOL    HW112126  13.187   4.447   1.955
 3429SOL    HW212127  13.324   4.425   1.895
 3430SOL     OW12128   6.892   7.522  12.718
 3430SOL    HW112129   6.858   7.460  12.654
 3430SOL    HW212130   6.877   7.608  12.679
 3431SOL     OW12131   7.389   5.782  11.059
 3431SOL    HW112132   7.416   5.837  10.985
 3431SOL    HW212133   7.332   5.715  11.019
 3432SOL     OW12134   9.913   5.540   8.131
 3432SOL    HW112135   9.839   5.528   8.190
 3432SOL    HW212136   9.978   5.588   8.184
 3433SOL     OW12137   5.950   2.241   2.565
 3433SOL    HW112138   5.955   2.275   2.654
 3433SOL    HW212139   5.913   2.313   2.514
 3434SOL     OW12140  11.710   2.527  13.634
 3434SOL    HW112141  11.624   2.563  13.616
 3434SOL    HW212142  11.694   2.460  13.701
 3435SOL     OW12143  12.946   4.282   3.984
 3435SOL    HW112144  12.971   4.358   4.036
 3435SOL    HW212145  12.851   4.285   3.981
 3436SOL     OW12146   7.565   8.575   1.158
 3436SOL    HW112147   7.646   8.544   1.118
 3436SOL    HW212148   7.496   8.537   1.105
 3437SOL     OW12149   8.684   4.168   8.864
 3437SOL    HW112150   8.631   4.108   8.810
 3437SOL    HW212151   8.632   4.248   8.869
 3438SOL     OW12152  10.032   7.999   2.727
 3438SOL    HW112153  10.088   8.004   2.804
 3438SOL    HW212154   9.984   7.917   2.738
 3439SOL     OW12155  13.797   5.332  10.187
 3439SOL    HW112156  13.759   5.392  10.251
 3439SOL    HW212157  13.804   5.385  10.107
 3440SOL     OW12158  13.669  12.166   5.615
 3440SOL    HW112159  13.597  12.143   5.557
 3440SOL    HW212160  13.741  12.190   5.557
 3441SOL     OW12161  14.429   9.168   9.219
 3441SOL    HW112162  14.511   9.153   9.266
 3441SOL    HW212163  14.410   9.260   9.233
 3442SOL     OW12164   0.441   1.218   0.236
 3442SOL    HW112165   0.412   1.222   0.145
 3442SOL    HW212166   0.391   1.145   0.274
 3443SOL     OW12167  11.233   3.710   5.288
 3443SOL    HW112168  11.158   3.652   5.300
 3443SOL    HW212169  11.251   3.745   5.375
 3444SOL     OW12170  13.770   4.509   1.792
 3444SOL    HW112171  13.853   4.480   1.752
 3444SOL    HW212172  13.793   4.587   1.842
 3445SOL     OW12173   2.032   9.762  13.201
 3445SOL    HW112174   2.116   9.784  13.162
 3445SOL    HW212175   2.001   9.844  13.239
 3446SOL     OW12176  13.773   7.144  14.580
 3446SOL    HW112177  13.740   7.061  14.613
 3446SOL    HW212178  13.697   7.202  14.578
 3447SOL     OW12179   4.370   9.769   3.621
 3447SOL    HW112180   4.403   9.767   3.711
 3447SOL    HW212181   4.332   9.856   3.611
 3448SOL     OW12182   7.172   7.596   0.666
 3448SOL    HW112183   7.110   7.667   0.653
 3448SOL    HW212184   7.258   7.639   0.667
 3449SOL     OW12185  14.452   3.862  12.532
 3449SOL    HW112186  14.386   3.793  12.538
 3449SOL    HW212187  14.436   3.904  12.447
 3450SOL     OW12188   6.589   2.340  14.414
 3450SOL    HW112189   6.561   2.322  14.504
 3450SOL    HW212190   6.672   2.387  14.424
 3451SOL     OW12191   1.254   8.851  10.247
 3451SOL    HW112192   1.229   8.933  10.203
 3451SOL    HW212193   1.321   8.877  10.309
 3452SOL     OW12194   8.124   3.056   5.355
 3452SOL    HW112195   8.171   3.079   5.435
 3452SOL    HW212196   8.140   3.129   5.295
 3453SOL     OW12197  11.982  13.353  11.545
 3453SOL    HW112198  12.043  13.349  11.619
 3453SOL    HW212199  11.957  13.261  11.529
 3454SOL     OW12200   5.688   6.748   2.590
 3454SOL    HW112201   5.597   6.740   2.622
 3454SOL    HW212202   5.724   6.820   2.642
 3455SOL     OW12203   3.101   7.408   6.007
 3455SOL    HW112204   3.157   7.339   6.045
 3455SOL    HW212205   3.020   7.403   6.058
 3456SOL     OW12206  12.638   6.028   4.979
 3456SOL    HW112207  12.553   6.000   4.945
 3456SOL    HW212208  12.701   6.000   4.913
 3457SOL     OW12209   1.666   9.267  14.195
 3457SOL    HW112210   1.731   9.200  14.214
 3457SOL    HW212211   1.715   9.349  14.197
 3458SOL     OW12212  10.390  11.677   4.096
 3458SOL    HW112213  10.415  11.593   4.058
 3458SOL    HW212214  10.465  11.703   4.150
 3459SOL     OW12215  13.354  12.588  12.344
 3459SOL    HW112216  13.412  12.629  12.408
 3459SOL    HW212217  13.268  12.626  12.362
 3460SOL     OW12218  14.653   4.240  10.979
 3460SOL    HW112219  14.691   4.254  11.066
 3460SOL    HW212220  14.654   4.326  10.938
 3461SOL     OW12221  14.722  11.621  11.481
 3461SOL    HW112222  14.768  11.679  11.542
 3461SOL    HW212223  14.630  11.629  11.506
 3462SOL     OW12224   7.737   1.784   4.448
 3462SOL    HW112225   7.713   1.768   4.357
 3462SOL    HW212226   7.820   1.736   4.460
 3463SOL     OW12227   6.436   2.863   0.071
 3463SOL    HW112228   6.424   2.935   0.010
 3463SOL    HW212229   6.371   2.798   0.044
 3464SOL     OW12230  11.859   0.050  10.141
 3464SOL    HW112231  11.907  14.844  10.116
 3464SOL    HW212232  11.777   0.017  10.178
 3465SOL     OW12233   0.226   1.033   9.066
 3465SOL    HW112234   0.144   1.040   9.115
 3465SOL    HW212235   0.281   1.103   9.101
 3466SOL     OW12236  13.075  10.516   4.111
 3466SOL    HW112237  13.058  10.566   4.031
 3466SOL    HW212238  12.997  10.461   4.121
 3467SOL     OW12239   9.143  10.457  12.023
 3467SOL    HW112240   9.225  10.419  11.994
 3467SOL    HW212241   9.169  10.529  12.081
 3468SOL     OW12242   6.141   0.713   0.199
 3468SOL    HW112243   6.172   0.642   0.143
 3468SOL    HW212244   6.220   0.766   0.216
 3469SOL     OW12245   3.318   2.921  14.232
 3469SOL    HW112246   3.230   2.946  14.203
 3469SOL    HW212247   3.308   2.833  14.267
 3470SOL     OW12248   5.357   2.092   7.574
 3470SOL    HW112249   5.304   2.069   7.651
 3470SOL    HW212250   5.330   2.181   7.552
 3471SOL     OW12251  12.648  14.430  12.272
 3471SOL    HW112252  12.600  14.436  12.190
 3471SOL    HW212253  12.708  14.505  12.270
 3472SOL     OW12254   1.880  11.871   5.550
 3472SOL    HW112255   1.881  11.866   5.645
 3472SOL    HW212256   1.884  11.965   5.531
 3473SOL     OW12257   4.427   8.923   1.368
 3473SOL    HW112258   4.358   8.857   1.363
 3473SOL    HW212259   4.508   8.873   1.360
 3474SOL     OW12260  13.835  14.175   4.414
 3474SOL    HW112261  13.865  14.088   4.439
 3474SOL    HW212262  13.798  14.211   4.495
 3475SOL     OW12263   3.931   5.007   7.040
 3475SOL    HW112264   3.903   4.985   7.129
 3475SOL    HW212265   3.925   5.102   7.036
 3476SOL     OW12266   7.147   6.567   0.471
 3476SOL    HW112267   7.240   6.550   0.481
 3476SOL    HW212268   7.121   6.612   0.552
 3477SOL     OW12269   2.894   9.039   1.406
 3477SOL    HW112270   2.863   8.977   1.340
 3477SOL    HW212271   2.846   9.016   1.485
 3478SOL     OW12272   5.791   3.875  11.856
 3478SOL    HW112273   5.835   3.954  11.888
 3478SOL    HW212274   5.740   3.844  11.932
 3479SOL     OW12275   2.935  11.135   7.309
 3479SOL    HW112276   2.891  11.217   7.289
 3479SOL    HW212277   2.938  11.131   7.405
 3480SOL     OW12278   5.435   4.266   4.522
 3480SOL    HW112279   5.452   4.253   4.428
 3480SOL    HW212280   5.352   4.313   4.524
 3481SOL     OW12281  12.305   2.078   4.947
 3481SOL    HW112282  12.278   2.000   4.996
 3481SOL    HW212283  12.225   2.130   4.938
 3482SOL     OW12284  14.390  10.398  10.724
 3482SOL    HW112285  14.402  10.480  10.676
 3482SOL    HW212286  14.407  10.330  10.658
 3483SOL     OW12287  13.765   5.248   2.147
 3483SOL    HW112288  13.823   5.174   2.168
 3483SOL    HW212289  13.734   5.230   2.058
 3484SOL     OW12290   9.105  11.535   8.662
 3484SOL    HW112291   9.192  11.544   8.699
 3484SOL    HW212292   9.057  11.480   8.724
 3485SOL     OW12293  14.777  13.491   8.367
 3485SOL    HW112294  14.706  13.518   8.310
 3485SOL    HW212295  14.839  13.564   8.364
 3486SOL     OW12296   4.160   1.984  10.750
 3486SOL    HW112297   4.185   1.910  10.695
 3486SOL    HW212298   4.157   2.059  10.690
 3487SOL     OW12299   9.082  10.901   2.884
 3487SOL    HW112300   9.085  10.980   2.938
 3487SOL    HW212301   9.065  10.830   2.947
 3488SOL     OW12302   2.049   5.312   2.012
 3488SOL    HW112303   2.138   5.335   1.985
 3488SOL    HW212304   2.035   5.224   1.976
 3489SOL     OW12305   2.791  12.531   8.502
 3489SOL    HW112306   2.764  12.581   8.425
 3489SOL    HW212307   2.802  12.441   8.471
 3490SOL     OW12308   6.320   1.436  12.910
 3490SOL    HW112309   6.375   1.498  12.959
 3490SOL    HW212310   6.294   1.484  12.831
 3491SOL     OW12311   7.823   5.027   2.625
 3491SOL    HW112312   7.814   5.118   2.596
 3491SOL    HW212313   7.745   4.983   2.593
 3492SOL     OW12314   8.259  14.007   3.376
 3492SOL    HW112315   8.263  13.937   3.441
 3492SOL    HW212316   8.174  14.048   3.391
 3493SOL     OW12317   9.779  10.858   4.715
 3493SOL    HW112318   9.709  10.854   4.781
 3493SOL    HW212319   9.745  10.917   4.648
 3494SOL     OW12320  13.977  10.858   0.920
 3494SOL    HW112321  14.055  10.805   0.904
 3494SOL    HW212322  13.925  10.807   0.982
 3495SOL     OW12323   4.562  13.581  13.438
 3495SOL    HW112324   4.513  13.594  13.519
 3495SOL    HW212325   4.638  13.528  13.463
 3496SOL     OW12326  14.303   6.495   6.789
 3496SOL    HW112327  14.329   6.432   6.856
 3496SOL    HW212328  14.250   6.444   6.728
 3497SOL     OW12329   9.395  13.404  12.181
 3497SOL    HW112330   9.445  13.389  12.101
 3497SOL    HW212331   9.434  13.346  12.245
 3498SOL     OW12332   3.094   0.550   7.897
 3498SOL    HW112333   3.037   0.569   7.823
 3498SOL    HW212334   3.109   0.456   7.893
 3499SOL     OW12335  14.116  13.576   1.905
 3499SOL    HW112336  14.063  13.654   1.890
 3499SOL    HW212337  14.151  13.588   1.993
 3500SOL     OW12338   7.089  12.829  14.448
 3500SOL    HW112339   7.055  12.832  14.358
 3500SOL    HW212340   7.026  12.775  14.496
 3501SOL     OW12341  14.039   8.145   5.098
 3501SOL    HW112342  14.035   8.052   5.075
 3501SOL    HW212343  14.105   8.182   5.038
 3502SOL     OW12344  10.417  12.120   9.377
 3502SOL    HW112345  10.450  12.078   9.456
 3502SOL    HW212346  10.361  12.054   9.337
 3503SOL     OW12347   2.142   8.757  10.484
 3503SOL    HW112348   2.052   8.728  10.495
 3503SOL    HW212349   2.164   8.801  10.566
 3504SOL     OW12350   9.095   5.224   0.815
 3504SOL    HW112351   9.183   5.237   0.850
 3504SOL    HW212352   9.074   5.133   0.837
 3505SOL     OW12353   6.972  13.461  11.981
 3505SOL    HW112354   6.931  13.514  12.049
 3505SOL    HW212355   7.045  13.417  12.025
 3506SOL     OW12356  14.585   8.759   8.756
 3506SOL    HW112357  14.491   8.770   8.768
 3506SOL    HW212358  14.593   8.692   8.688
 3507SOL     OW12359  12.866   9.962  11.188
 3507SOL    HW112360  12.903   9.927  11.107
 3507SOL    HW212361  12.836   9.885  11.236
 3508SOL     OW12362  13.083   2.554   8.829
 3508SOL    HW112363  13.026   2.487   8.791
 3508SOL    HW212364  13.078   2.540   8.923
 3509SOL     OW12365   0.061  10.672   2.320
 3509SOL    HW112366   0.151  10.703   2.335
 3509SOL    HW212367   0.018  10.745   2.276
 3510SOL     OW12368   7.818  13.230  13.541
 3510SOL    HW112369   7.822  13.294  13.470
 3510SOL    HW212370   7.836  13.281  13.620
 3511SOL     OW12371   6.765  11.867  12.185
 3511SOL    HW112372   6.783  11.828  12.270
 3511SOL    HW212373   6.826  11.941  12.180
 3512SOL     OW12374   3.675  14.802   0.589
 3512SOL    HW112375   3.597  14.822   0.538
 3512SOL    HW212376   3.707   0.014   0.617
 3513SOL     OW12377  11.161   3.636   0.368
 3513SOL    HW112378  11.094   3.579   0.331
 3513SOL    HW212379  11.169   3.708   0.306
 3514SOL     OW12380  12.819   5.483  14.244
 3514SOL    HW112381  12.795   5.575  14.235
 3514SOL    HW212382  12.872   5.479  14.324
 3515SOL     OW12383   7.149   4.739   7.888
 3515SOL    HW112384   7.127   4.715   7.978
 3515SOL    HW212385   7.227   4.794   7.896
 3516SOL     OW12386  12.282   4.522  13.234
 3516SOL    HW112387  12.241   4.462  13.171
 3516SOL    HW212388  12.222   4.597  13.238
 3517SOL     OW12389  10.311  13.144   1.647
 3517SOL    HW112390  10.276  13.225   1.610
 3517SOL    HW212391  10.331  13.166   1.738
 3518SOL     OW12392  10.927  10.666  12.268
 3518SOL    HW112393  10.833  10.650  12.266
 3518SOL    HW212394  10.959  10.635  12.183
 3519SOL     OW12395   5.297  12.675  13.625
 3519SOL    HW112396   5.225  12.651  13.566
 3519SOL    HW212397   5.374  12.678  13.567
 3520SOL     OW12398   9.933  13.777   2.904
 3520SOL    HW112399  10.016  13.732   2.918
 3520SOL    HW212400   9.905  13.748   2.817
 3521SOL     OW12401   0.240   9.123   7.089
 3521SOL    HW112402   0.312   9.136   7.027
 3521SOL    HW212403   0.197   9.208   7.095
 3522SOL     OW12404   9.552  10.257   1.385
 3522SOL    HW112405   9.594  10.228   1.466
 3522SOL    HW212406   9.459  10.234   1.397
 3523SOL     OW12407  10.627   7.188  13.836
 3523SOL    HW112408  10.657   7.148  13.754
 3523SOL    HW212409  10.643   7.121  13.902
 3524SOL     OW12410   4.941  14.317   6.731
 3524SOL    HW112411   4.941  14.323   6.636
 3524SOL    HW212412   5.022  14.269   6.752
 3525SOL     OW12413  12.538  10.245  14.479
 3525SOL    HW112414  12.553  10.237  14.385
 3525SOL    HW212415  12.542  10.155  14.512
 3526SOL     OW12416   6.384  11.562   4.777
 3526SOL    HW112417   6.315  11.570   4.843
 3526SOL    HW212418   6.420  11.650   4.769
 3527SOL     OW12419  10.752  12.292   2.944
 3527SOL    HW112420  10.821  12.243   2.989
 3527SOL    HW212421  10.713  12.229   2.883
 3528SOL     OW12422   1.801   0.891   2.696
 3528SOL    HW112423   1.726   0.866   2.751
 3528SOL    HW212424   1.809   0.821   2.632
 3529SOL     OW12425  14.492  14.615  13.161
 3529SOL    HW112426  14.498  14.709  13.177
 3529SOL    HW212427  14.420  14.586  13.216
 3530SOL     OW12428   6.872   6.437   0.833
 3530SOL    HW112429   6.966   6.427   0.827
 3530SOL    HW212430   6.858   6.480   0.918
 3531SOL     OW12431   6.509   1.129  14.222
 3531SOL    HW112432   6.504   1.044  14.266
 3531SOL    HW212433   6.601   1.138  14.198
 3532SOL     OW12434   3.963   0.012  13.592
 3532SOL    HW112435   4.014  14.873  13.512
 3532SOL    HW212436   3.899   0.080  13.569
 3533SOL     OW12437   1.158   2.242   0.345
 3533SOL    HW112438   1.153   2.166   0.287
 3533SOL    HW212439   1.218   2.216   0.415
 3534SOL     OW12440   9.640   1.973  14.131
 3534SOL    HW112441   9.549   1.997  14.114
 3534SOL    HW212442   9.691   2.024  14.068
 3535SOL     OW12443   5.139   3.778   5.452
 3535SOL    HW112444   5.068   3.715   5.439
 3535SOL    HW212445   5.218   3.731   5.424
 3536SOL     OW12446   7.740  12.929   8.278
 3536SOL    HW112447   7.710  12.848   8.236
 3536SOL    HW212448   7.659  12.976   8.299
 3537SOL     OW12449   8.538  11.630  10.558
 3537SOL    HW112450   8.457  11.583  10.541
 3537SOL    HW212451   8.590  11.618  10.478
 3538SOL     OW12452   7.790   8.205  12.713
 3538SOL    HW112453   7.832   8.230  12.796
 3538SOL    HW212454   7.814   8.113  12.700
 3539SOL     OW12455   9.157  11.651  13.071
 3539SOL    HW112456   9.133  11.584  13.007
 3539SOL    HW212457   9.074  11.693  13.094
 3540SOL     OW12458   9.609  13.333  14.756
 3540SOL    HW112459   9.583  13.370  14.840
 3540SOL    HW212460   9.683  13.276  14.777
 3541SOL     OW12461  14.560   4.749   3.712
 3541SOL    HW112462  14.645   4.786   3.739
 3541SOL    HW212463  14.572   4.725   3.621
 3542SOL     OW12464  13.460   3.719   4.966
 3542SOL    HW112465  13.549   3.754   4.955
 3542SOL    HW212466  13.455   3.648   4.902
 3543SOL     OW12467   4.165   6.571   1.285
 3543SOL    HW112468   4.257   6.550   1.266
 3543SOL    HW212469   4.132   6.492   1.329
 3544SOL     OW12470   6.939  10.575   7.725
 3544SOL    HW112471   6.890  10.520   7.664
 3544SOL    HW212472   7.029  10.543   7.721
 3545SOL     OW12473   3.394   4.971   3.889
 3545SOL    HW112474   3.318   4.955   3.833
 3545SOL    HW212475   3.468   4.940   3.837
 3546SOL     OW12476   0.746   9.588   6.525
 3546SOL    HW112477   0.722   9.561   6.436
 3546SOL    HW212478   0.838   9.564   6.533
 3547SOL     OW12479   0.554   6.895   7.516
 3547SOL    HW112480   0.537   6.928   7.604
 3547SOL    HW212481   0.470   6.899   7.472
 3548SOL     OW12482  13.644   1.199   5.495
 3548SOL    HW112483  13.591   1.274   5.468
 3548SOL    HW212484  13.580   1.129   5.509
 3549SOL     OW12485   7.552   4.500  13.651
 3549SOL    HW112486   7.521   4.432  13.711
 3549SOL    HW212487   7.616   4.549  13.702
 3550SOL     OW12488   5.248  11.991   8.485
 3550SOL    HW112489   5.279  12.062   8.541
 3550SOL    HW212490   5.318  11.976   8.422
 3551SOL     OW12491   5.670  11.093  14.678
 3551SOL    HW112492   5.731  11.144  14.625
 3551SOL    HW212493   5.726  11.036  14.730
 3552SOL     OW12494  13.121  13.352   1.824
 3552SOL    HW112495  13.028  13.358   1.801
 3552SOL    HW212496  13.125  13.287   1.895
 3553SOL     OW12497   4.303   3.661  14.802
 3553SOL    HW112498   4.216   3.646  14.766
 3553SOL    HW212499   4.361   3.607  14.749
 3554SOL     OW12500   8.493  10.867   0.386
 3554SOL    HW112501   8.578  10.905   0.361
 3554SOL    HW212502   8.494  10.780   0.348
 3555SOL     OW12503  13.686   7.131   1.007
 3555SOL    HW112504  13.712   7.039   1.000
 3555SOL    HW212505  13.646   7.137   1.094
 3556SOL     OW12506   7.325   4.471  10.559
 3556SOL    HW112507   7.312   4.382  10.593
 3556SOL    HW212508   7.356   4.521  10.634
 3557SOL     OW12509   0.030   6.952   2.723
 3557SOL    HW112510   0.052   6.969   2.632
 3557SOL    HW212511   0.010   7.039   2.759
 3558SOL     OW12512   4.925  14.734   7.151
 3558SOL    HW112513   4.869  14.665   7.189
 3558SOL    HW212514   4.974  14.769   7.225
 3559SOL     OW12515  13.752  11.192   9.700
 3559SOL    HW112516  13.726  11.138   9.625
 3559SOL    HW212517  13.843  11.168   9.716
 3560SOL     OW12518   0.407   4.560  11.484
 3560SOL    HW112519   0.480   4.598  11.532
 3560SOL    HW212520   0.439   4.475  11.454
 3561SOL     OW12521   9.965  14.383   4.771
 3561SOL    HW112522   9.987  14.340   4.853
 3561SOL    HW212523   9.925  14.314   4.717
 3562SOL     OW12524  11.773   6.135   5.810
 3562SOL    HW112525  11.743   6.128   5.901
 3562SOL    HW212526  11.867   6.121   5.815
 3563SOL     OW12527  12.921   9.241  12.514
 3563SOL    HW112528  12.837   9.287  12.522
 3563SOL    HW212529  12.986   9.311  12.503
 3564SOL     OW12530  13.081   2.070   0.105
 3564SOL    HW112531  13.142   2.069   0.179
 3564SOL    HW212532  12.998   2.039   0.142
 3565SOL     OW12533  11.912  10.862   6.546
 3565SOL    HW112534  11.875  10.947   6.521
 3565SOL    HW212535  11.984  10.883   6.605
 3566SOL     OW12536   5.905   5.840  10.650
 3566SOL    HW112537   5.926   5.856  10.558
 3566SOL    HW212538   5.972   5.890  10.698
 3567SOL     OW12539  13.592  12.809   0.218
 3567SOL    HW112540  13.596  12.751   0.142
 3567SOL    HW212541  13.637  12.888   0.190
 3568SOL     OW12542   6.301  10.513  13.623
 3568SOL    HW112543   6.329  10.539  13.535
 3568SOL    HW212544   6.279  10.420  13.615
 3569SOL     OW12545   0.481   0.062  11.543
 3569SOL    HW112546   0.471   0.149  11.581
 3569SOL    HW212547   0.440   0.068  11.457
 3570SOL     OW12548   4.179   9.629   6.291
 3570SOL    HW112549   4.135   9.641   6.375
 3570SOL    HW212550   4.107   9.622   6.227
 3571SOL     OW12551   2.906  14.244  13.961
 3571SOL    HW112552   3.001  14.236  13.969
 3571SOL    HW212553   2.890  14.244  13.867
 3572SOL     OW12554   0.821  12.498  11.168
 3572SOL    HW112555   0.852  12.459  11.087
 3572SOL    HW212556   0.848  12.435  11.236
 3573SOL     OW12557  13.952   1.506   5.630
 3573SOL    HW112558  13.943   1.412   5.640
 3573SOL    HW212559  13.889   1.543   5.692
 3574SOL     OW12560   1.277  11.845   2.495
 3574SOL    HW112561   1.362  11.838   2.452
 3574SOL    HW212562   1.232  11.764   2.473
 3575SOL     OW12563   4.849   1.368   8.905
 3575SOL    HW112564   4.839   1.400   8.816
 3575SOL    HW212565   4.827   1.275   8.899
 3576SOL     OW12566   0.036   2.389   7.269
 3576SOL    HW112567  14.853   2.324   7.227
 3576SOL    HW212568   0.055   2.452   7.199
 3577SOL     OW12569   0.138   3.082   2.448
 3577SOL    HW112570   0.119   3.142   2.521
 3577SOL    HW212571   0.065   3.020   2.447
 3578SOL     OW12572   8.302   3.737   8.153
 3578SOL    HW112573   8.348   3.774   8.077
 3578SOL    HW212574   8.211   3.765   8.142
 3579SOL     OW12575  10.663  10.672   4.628
 3579SOL    HW112576  10.694  10.605   4.689
 3579SOL    HW212577  10.590  10.631   4.582
 3580SOL     OW12578   0.971   6.334  11.233
 3580SOL    HW112579   0.926   6.260  11.192
 3580SOL    HW212580   1.046   6.295  11.277
 3581SOL     OW12581   1.629   4.511   9.124
 3581SOL    HW112582   1.660   4.424   9.098
 3581SOL    HW212583   1.630   4.510   9.219
 3582SOL     OW12584   5.626  13.660   4.301
 3582SOL    HW112585   5.716  13.681   4.279
 3582SOL    HW212586   5.623  13.564   4.301
 3583SOL     OW12587   2.518  11.598   5.891
 3583SOL    HW112588   2.509  11.510   5.928
 3583SOL    HW212589   2.525  11.655   5.967
 3584SOL     OW12590  13.850  14.305   6.597
 3584SOL    HW112591  13.877  14.225   6.552
 3584SOL    HW212592  13.866  14.375   6.534
 3585SOL     OW12593  11.752  11.120   3.596
 3585SOL    HW112594  11.832  11.133   3.647
 3585SOL    HW212595  11.776  11.144   3.506
 3586SOL     OW12596   5.034  12.643   7.941
 3586SOL    HW112597   4.984  12.653   8.021
 3586SOL    HW212598   5.115  12.692   7.957
 3587SOL     OW12599  11.822   8.717  12.516
 3587SOL    HW112600  11.867   8.721  12.432
 3587SOL    HW212601  11.786   8.628  12.520
 3588SOL     OW12602  10.281   8.840   7.843
 3588SOL    HW112603  10.212   8.841   7.776
 3588SOL    HW212604  10.245   8.888   7.917
 3589SOL     OW12605   9.204  12.236  13.159
 3589SOL    HW112606   9.197  12.272  13.248
 3589SOL    HW212607   9.116  12.245  13.123
 3590SOL     OW12608  10.256  12.466  10.347
 3590SOL    HW112609  10.175  12.415  10.350
 3590SOL    HW212610  10.246  12.523  10.270
 3591SOL     OW12611  10.333  14.187   2.738
 3591SOL    HW112612  10.238  14.198   2.743
 3591SOL    HW212613  10.348  14.098   2.770
 3592SOL     OW12614   2.728   5.875   1.542
 3592SOL    HW112615   2.746   5.783   1.525
 3592SOL    HW212616   2.771   5.921   1.470
 3593SOL     OW12617   6.884  12.901   3.431
 3593SOL    HW112618   6.823  12.951   3.377
 3593SOL    HW212619   6.893  12.817   3.385
 3594SOL     OW12620  10.846  11.141   9.667
 3594SOL    HW112621  10.864  11.119   9.576
 3594SOL    HW212622  10.911  11.091   9.717
 3595SOL     OW12623   4.346   5.302   5.887
 3595SOL    HW112624   4.371   5.243   5.817
 3595SOL    HW212625   4.276   5.256   5.934
 3596SOL     OW12626   2.053   8.342  12.965
 3596SOL    HW112627   2.057   8.270  12.903
 3596SOL    HW212628   2.115   8.318  13.034
 3597SOL     OW12629  10.946   2.752  11.658
 3597SOL    HW112630  10.932   2.841  11.690
 3597SOL    HW212631  10.880   2.700  11.703
 3598SOL     OW12632  12.128  10.749   5.590
 3598SOL    HW112633  12.073  10.670   5.590
 3598SOL    HW212634  12.181  10.742   5.669
 3599SOL     OW12635  13.710   8.028  10.924
 3599SOL    HW112636  13.643   7.975  10.967
 3599SOL    HW212637  13.763   7.964  10.876
 3600SOL     OW12638   3.987   3.814   5.257
 3600SOL    HW112639   4.082   3.810   5.248
 3600SOL    HW212640   3.958   3.723   5.255
 3601SOL     OW12641   3.414  10.876  12.597
 3601SOL    HW112642   3.450  10.922  12.521
 3601SOL    HW212643   3.470  10.903  12.670
 3602SOL     OW12644  14.257  13.978   7.645
 3602SOL    HW112645  14.300  13.897   7.674
 3602SOL    HW212646  14.273  13.981   7.551
 3603SOL     OW12647  14.100   3.485   5.167
 3603SOL    HW112648  14.043   3.531   5.229
 3603SOL    HW212649  14.062   3.503   5.081
 3604SOL     OW12650  11.148  11.098  11.989
 3604SOL    HW112651  11.070  11.071  11.941
 3604SOL    HW212652  11.221  11.063  11.939
 3605SOL     OW12653   6.359   5.311   1.472
 3605SOL    HW112654   6.296   5.290   1.403
 3605SOL    HW212655   6.373   5.406   1.462
 3606SOL     OW12656   5.691  12.547  10.998
 3606SOL    HW112657   5.723  12.459  11.017
 3606SOL    HW212658   5.677  12.587  11.084
 3607SOL     OW12659   2.883   5.418   3.918
 3607SOL    HW112660   2.813   5.478   3.944
 3607SOL    HW212661   2.926   5.395   4.000
 3608SOL     OW12662   7.728   8.734   5.241
 3608SOL    HW112663   7.719   8.692   5.155
 3608SOL    HW212664   7.726   8.662   5.303
 3609SOL     OW12665   9.807  13.919   7.389
 3609SOL    HW112666   9.748  13.970   7.334
 3609SOL    HW212667   9.785  13.828   7.370
 3610SOL     OW12668  13.637   5.135   0.642
 3610SOL    HW112669  13.676   5.185   0.713
 3610SOL    HW212670  13.546   5.165   0.638
 3611SOL     OW12671   2.332   8.902   3.973
 3611SOL    HW112672   2.377   8.982   3.946
 3611SOL    HW212673   2.308   8.918   4.065
 3612SOL     OW12674   1.716   1.165   2.665
 3612SOL    HW112675   1.634   1.146   2.620
 3612SOL    HW212676   1.744   1.081   2.702
 3613SOL     OW12677   0.734   6.456  10.458
 3613SOL    HW112678   0.792   6.456  10.383
 3613SOL    HW212679   0.673   6.384  10.442
 3614SOL     OW12680  14.023   4.012  12.605
 3614SOL    HW112681  14.118   4.004  12.606
 3614SOL    HW212682  14.007   4.106  12.594
 3615SOL     OW12683   5.529   5.195   7.246
 3615SOL    HW112684   5.522   5.284   7.211
 3615SOL    HW212685   5.623   5.177   7.249
 3616SOL     OW12686  14.318  14.777   7.968
 3616SOL    HW112687  14.315  14.751   8.060
 3616SOL    HW212688  14.388  14.724   7.931
 3617SOL     OW12689   1.888   1.758   0.518
 3617SOL    HW112690   1.926   1.820   0.455
 3617SOL    HW212691   1.802   1.737   0.480
 3618SOL     OW12692   7.059   6.011   3.801
 3618SOL    HW112693   7.056   5.923   3.762
 3618SOL    HW212694   7.026   6.068   3.732
 3619SOL     OW12695   8.532   4.823   9.353
 3619SOL    HW112696   8.437   4.809   9.354
 3619SOL    HW212697   8.542   4.919   9.354
 3620SOL     OW12698   8.080   8.782   6.295
 3620SOL    HW112699   8.101   8.809   6.206
 3620SOL    HW212700   8.157   8.807   6.346
 3621SOL     OW12701  12.061   3.066  14.329
 3621SOL    HW112702  12.112   3.110  14.262
 3621SOL    HW212703  12.048   2.977  14.296
 3622SOL     OW12704   7.201  13.567   0.507
 3622SOL    HW112705   7.290  13.604   0.512
 3622SOL    HW212706   7.158  13.598   0.586
 3623SOL     OW12707  11.425   5.505   3.502
 3623SOL    HW112708  11.497   5.446   3.481
 3623SOL    HW212709  11.415   5.558   3.423
 3624SOL     OW12710   0.676   0.250  12.916
 3624SOL    HW112711   0.717   0.317  12.861
 3624SOL    HW212712   0.622   0.299  12.977
 3625SOL     OW12713  11.834   0.113   7.960
 3625SOL    HW112714  11.752   0.114   8.010
 3625SOL    HW212715  11.811   0.068   7.878
 3626SOL     OW12716   3.936   6.287  11.603
 3626SOL    HW112717   3.903   6.323  11.685
 3626SOL    HW212718   4.020   6.330  11.590
 3627SOL     OW12719   0.783  13.031   9.707
 3627SOL    HW112720   0.803  12.939   9.691
 3627SOL    HW212721   0.820  13.049   9.793
 3628SOL     OW12722   4.250  13.840  12.467
 3628SOL    HW112723   4.314  13.898  12.427
 3628SOL    HW212724   4.257  13.758  12.418
 3629SOL     OW12725   9.264  14.158  12.660
 3629SOL    HW112726   9.310  14.133  12.580
 3629SOL    HW212727   9.296  14.097  12.727
 3630SOL     OW12728   4.426  10.231   4.847
 3630SOL    HW112729   4.467  10.242   4.933
 3630SOL    HW212730   4.358  10.164   4.861
 3631SOL     OW12731   5.994   1.490  11.386
 3631SOL    HW112732   5.957   1.525  11.305
 3631SOL    HW212733   6.086   1.473  11.366
 3632SOL     OW12734  12.995   9.165  12.116
 3632SOL    HW112735  13.059   9.235  12.128
 3632SOL    HW212736  12.925   9.205  12.063
 3633SOL     OW12737   8.716   6.597   1.804
 3633SOL    HW112738   8.754   6.642   1.880
 3633SOL    HW212739   8.783   6.534   1.777
 3634SOL     OW12740   8.534   1.384   9.171
 3634SOL    HW112741   8.447   1.368   9.135
 3634SOL    HW212742   8.586   1.412   9.095
 3635SOL     OW12743   6.064  11.863   9.120
 3635SOL    HW112744   5.980  11.877   9.164
 3635SOL    HW212745   6.042  11.816   9.040
 3636SOL     OW12746  12.154   2.409   7.932
 3636SOL    HW112747  12.141   2.481   7.870
 3636SOL    HW212748  12.212   2.348   7.886
 3637SOL     OW12749   8.721  10.315   0.827
 3637SOL    HW112750   8.797  10.337   0.882
 3637SOL    HW212751   8.661  10.269   0.885
 3638SOL     OW12752  13.057   6.259  10.213
 3638SOL    HW112753  13.031   6.282  10.124
 3638SOL    HW212754  13.054   6.163  10.215
 3639SOL     OW12755  10.569   5.923  10.475
 3639SOL    HW112756  10.572   6.009  10.433
 3639SOL    HW212757  10.550   5.942  10.567
 3640SOL     OW12758   6.700   5.658  11.076
 3640SOL    HW112759   6.670   5.685  11.163
 3640SOL    HW212760   6.731   5.568  11.089
 3641SOL     OW12761   6.947   5.857   2.725
 3641SOL    HW112762   7.034   5.818   2.720
 3641SOL    HW212763   6.949   5.928   2.660
 3642SOL     OW12764  13.235  13.417   7.475
 3642SOL    HW112765  13.203  13.507   7.473
 3642SOL    HW212766  13.157  13.365   7.497
 3643SOL     OW12767   8.119  12.506  14.235
 3643SOL    HW112768   8.104  12.469  14.148
 3643SOL    HW212769   8.117  12.601  14.221
 3644SOL     OW12770  12.648  14.326   1.250
 3644SOL    HW112771  12.652  14.314   1.155
 3644SOL    HW212772  12.730  14.369   1.272
 3645SOL     OW12773  11.727   4.532   4.763
 3645SOL    HW112774  11.694   4.621   4.773
 3645SOL    HW212775  11.795   4.524   4.830
 3646SOL     OW12776  12.028   5.705   6.433
 3646SOL    HW112777  11.935   5.683   6.439
 3646SOL    HW212778  12.041   5.775   6.498
 3647SOL     OW12779  13.339   7.915   3.523
 3647SOL    HW112780  13.259   7.955   3.490
 3647SOL    HW212781  13.313   7.828   3.552
 3648SOL     OW12782  10.165   2.279  11.810
 3648SOL    HW112783  10.113   2.346  11.855
 3648SOL    HW212784  10.157   2.201  11.866
 3649SOL     OW12785  14.191   2.159   1.778
 3649SOL    HW112786  14.223   2.073   1.805
 3649SOL    HW212787  14.235   2.220   1.837
 3650SOL     OW12788  12.746   1.120   3.609
 3650SOL    HW112789  12.803   1.071   3.550
 3650SOL    HW212790  12.786   1.109   3.696
 3651SOL     OW12791   3.494   2.389  12.570
 3651SOL    HW112792   3.509   2.413  12.662
 3651SOL    HW212793   3.431   2.317  12.575
 3652SOL     OW12794   6.697   3.842  14.584
 3652SOL    HW112795   6.778   3.887  14.607
 3652SOL    HW212796   6.669   3.883  14.502
 3653SOL     OW12797   2.399  14.353   6.266
 3653SOL    HW112798   2.386  14.350   6.171
 3653SOL    HW212799   2.459  14.426   6.281
 3654SOL     OW12800  10.105   2.634  10.373
 3654SOL    HW112801  10.031   2.620  10.433
 3654SOL    HW212802  10.071   2.694  10.307
 3655SOL     OW12803  12.080   1.588   1.197
 3655SOL    HW112804  12.136   1.540   1.258
 3655SOL    HW212805  12.112   1.678   1.201
 3656SOL     OW12806   4.087   8.923   8.339
 3656SOL    HW112807   4.088   8.863   8.414
 3656SOL    HW212808   4.063   9.008   8.377
 3657SOL     OW12809   0.174   2.757   3.337
 3657SOL    HW112810   0.079   2.758   3.348
 3657SOL    HW212811   0.207   2.715   3.416
 3658SOL     OW12812   2.514   2.438   0.360
 3658SOL    HW112813   2.464   2.507   0.317
 3658SOL    HW212814   2.542   2.477   0.443
 3659SOL     OW12815   1.403  10.634   6.077
 3659SOL    HW112816   1.462  10.637   6.152
 3659SOL    HW212817   1.346  10.559   6.095
 3660SOL     OW12818   1.456  11.057  12.217
 3660SOL    HW112819   1.464  11.009  12.135
 3660SOL    HW212820   1.376  11.108  12.208
 3661SOL     OW12821   9.717   6.096   4.761
 3661SOL    HW112822   9.674   6.167   4.809
 3661SOL    HW212823   9.720   6.024   4.823
 3662SOL     OW12824   6.393   9.208  11.393
 3662SOL    HW112825   6.450   9.218  11.469
 3662SOL    HW212826   6.397   9.293  11.349
 3663SOL     OW12827  10.515   5.372   8.777
 3663SOL    HW112828  10.523   5.360   8.682
 3663SOL    HW212829  10.422   5.392   8.791
 3664SOL     OW12830   8.729   2.936  11.782
 3664SOL    HW112831   8.669   3.006  11.756
 3664SOL    HW212832   8.814   2.963  11.747
 3665SOL     OW12833  10.283   6.493   9.948
 3665SOL    HW112834  10.328   6.476  10.031
 3665SOL    HW212835  10.191   6.473   9.966
 3666SOL     OW12836  13.400   9.638   7.769
 3666SOL    HW112837  13.374   9.716   7.817
 3666SOL    HW212838  13.346   9.568   7.807
 3667SOL     OW12839   1.074   9.962   4.079
 3667SOL    HW112840   1.068  10.019   4.003
 3667SOL    HW212841   1.166   9.936   4.083
 3668SOL     OW12842  12.527   2.205   0.989
 3668SOL    HW112843  12.507   2.278   1.047
 3668SOL    HW212844  12.508   2.127   1.041
 3669SOL     OW12845  11.935   9.295   3.044
 3669SOL    HW112846  11.896   9.249   3.119
 3669SOL    HW212847  11.941   9.229   2.976
 3670SOL     OW12848   7.339   2.140  10.252
 3670SOL    HW112849   7.330   2.206  10.321
 3670SOL    HW212850   7.365   2.190  10.174
 3671SOL     OW12851   6.832   8.116   7.923
 3671SOL    HW112852   6.838   8.187   7.987
 3671SOL    HW212853   6.742   8.119   7.892
 3672SOL     OW12854   6.986   7.383  13.418
 3672SOL    HW112855   7.078   7.373  13.445
 3672SOL    HW212856   6.952   7.293  13.417
 3673SOL     OW12857   6.718   4.611   7.265
 3673SOL    HW112858   6.656   4.638   7.332
 3673SOL    HW212859   6.794   4.581   7.313
 3674SOL     OW12860   1.321  14.381   9.392
 3674SOL    HW112861   1.248  14.375   9.452
 3674SOL    HW212862   1.314  14.303   9.337
 3675SOL     OW12863  14.585  11.564   9.374
 3675SOL    HW112864  14.639  11.538   9.449
 3675SOL    HW212865  14.517  11.497   9.368
 3676SOL     OW12866   1.703  10.913  12.975
 3676SOL    HW112867   1.704  10.911  13.071
 3676SOL    HW212868   1.718  11.005  12.953
 3677SOL     OW12869   7.610   9.385   3.646
 3677SOL    HW112870   7.643   9.354   3.562
 3677SOL    HW212871   7.532   9.436   3.624
 3678SOL     OW12872  11.929  11.928   5.101
 3678SOL    HW112873  11.906  11.987   5.172
 3678SOL    HW212874  11.996  11.870   5.138
 3679SOL     OW12875  12.754   7.832  10.301
 3679SOL    HW112876  12.669   7.818  10.260
 3679SOL    HW212877  12.734   7.849  10.393
 3680SOL     OW12878   5.909   2.553   7.184
 3680SOL    HW112879   5.912   2.460   7.160
 3680SOL    HW212880   5.861   2.556   7.266
 3681SOL     OW12881   9.520   2.804   6.305
 3681SOL    HW112882   9.555   2.774   6.222
 3681SOL    HW212883   9.565   2.887   6.322
 3682SOL     OW12884  13.095   1.745  13.263
 3682SOL    HW112885  13.092   1.728  13.169
 3682SOL    HW212886  13.102   1.840  13.270
 3683SOL     OW12887   0.316   2.196   1.515
 3683SOL    HW112888   0.384   2.222   1.577
 3683SOL    HW212889   0.243   2.166   1.569
 3684SOL     OW12890   6.088   2.753  11.695
 3684SOL    HW112891   6.165   2.722  11.742
 3684SOL    HW212892   6.121   2.777  11.608
 3685SOL     OW12893  13.954   6.432  10.820
 3685SOL    HW112894  14.038   6.478  10.811
 3685SOL    HW212895  13.955   6.400  10.910
 3686SOL     OW12896  14.020  10.017  12.587
 3686SOL    HW112897  14.045  10.018  12.495
 3686SOL    HW212898  14.037  10.107  12.617
 3687SOL     OW12899   8.223   8.568   8.477
 3687SOL    HW112900   8.256   8.546   8.390
 3687SOL    HW212901   8.279   8.518   8.537
 3688SOL     OW12902  10.871  14.669   0.537
 3688SOL    HW112903  10.950  14.721   0.521
 3688SOL    HW212904  10.831  14.708   0.614
 3689SOL     OW12905   2.189   5.854   9.835
 3689SOL    HW112906   2.230   5.811   9.911
 3689SOL    HW212907   2.116   5.904   9.872
 3690SOL     OW12908   2.536  13.841  10.583
 3690SOL    HW112909   2.475  13.909  10.611
 3690SOL    HW212910   2.548  13.786  10.660
 3691SOL     OW12911   3.874  11.061   4.480
 3691SOL    HW112912   3.914  11.141   4.513
 3691SOL    HW212913   3.948  11.009   4.448
 3692SOL     OW12914   6.721  13.903   9.291
 3692SOL    HW112915   6.686  13.926   9.205
 3692SOL    HW212916   6.756  13.814   9.280
 3693SOL     OW12917   6.002   5.155  13.876
 3693SOL    HW112918   5.966   5.146  13.788
 3693SOL    HW212919   6.040   5.243  13.877
 3694SOL     OW12920   7.257   7.915   9.152
 3694SOL    HW112921   7.186   7.880   9.099
 3694SOL    HW212922   7.309   7.838   9.176
 3695SOL     OW12923   5.705   1.376  11.985
 3695SOL    HW112924   5.691   1.315  12.058
 3695SOL    HW212925   5.748   1.452  12.025
 3696SOL     OW12926  12.208  10.792   1.227
 3696SOL    HW112927  12.298  10.813   1.202
 3696SOL    HW212928  12.156  10.811   1.149
 3697SOL     OW12929   5.310  10.183   6.583
 3697SOL    HW112930   5.383  10.232   6.622
 3697SOL    HW212931   5.315  10.097   6.624
 3698SOL     OW12932   2.467   8.518   0.589
 3698SOL    HW112933   2.548   8.562   0.614
 3698SOL    HW212934   2.490   8.425   0.587
 3699SOL     OW12935   5.703  12.322   5.607
 3699SOL    HW112936   5.750  12.395   5.565
 3699SOL    HW212937   5.761  12.293   5.677
 3700SOL     OW12938   4.281  13.162   0.202
 3700SOL    HW112939   4.272  13.205   0.287
 3700SOL    HW212940   4.348  13.213   0.157
 3701SOL     OW12941   4.880   9.697   8.239
 3701SOL    HW112942   4.881   9.605   8.263
 3701SOL    HW212943   4.805   9.733   8.286
 3702SOL     OW12944   5.704   7.784   7.974
 3702SOL    HW112945   5.758   7.797   7.896
 3702SOL    HW212946   5.617   7.812   7.948
 3703SOL     OW12947  13.801  13.441   6.969
 3703SOL    HW112948  13.761  13.368   6.921
 3703SOL    HW212949  13.750  13.448   7.049
 3704SOL     OW12950   9.126  11.762  13.396
 3704SOL    HW112951   9.090  11.673  13.392
 3704SOL    HW212952   9.050  11.819  13.388
 3705SOL     OW12953  13.556   3.966  10.729
 3705SOL    HW112954  13.528   4.058  10.737
 3705SOL    HW212955  13.634   3.970  10.673
 3706SOL     OW12956   5.984   4.136   1.016
 3706SOL    HW112957   5.993   4.174   0.929
 3706SOL    HW212958   5.938   4.203   1.067
 3707SOL     OW12959   2.889   5.511   2.045
 3707SOL    HW112960   2.972   5.477   2.079
 3707SOL    HW212961   2.874   5.591   2.096
 3708SOL     OW12962  14.600   6.431   7.605
 3708SOL    HW112963  14.523   6.409   7.657
 3708SOL    HW212964  14.664   6.463   7.669
 3709SOL     OW12965   9.701   2.912   5.842
 3709SOL    HW112966   9.793   2.890   5.829
 3709SOL    HW212967   9.655   2.869   5.771
 3710SOL     OW12968   5.210   4.578  10.939
 3710SOL    HW112969   5.226   4.539  11.025
 3710SOL    HW212970   5.291   4.624  10.918
 3711SOL     OW12971   9.276  10.133   3.518
 3711SOL    HW112972   9.182  10.113   3.523
 3711SOL    HW212973   9.310  10.071   3.453
 3712SOL     OW12974   2.903  13.518   9.175
 3712SOL    HW112975   2.960  13.585   9.214
 3712SOL    HW212976   2.875  13.557   9.092
 3713SOL     OW12977   0.527   1.950   0.610
 3713SOL    HW112978   0.569   1.899   0.541
 3713SOL    HW212979   0.582   2.028   0.618
 3714SOL     OW12980  11.619  14.616   3.771
 3714SOL    HW112981  11.639  14.530   3.809
 3714SOL    HW212982  11.690  14.673   3.802
 3715SOL     OW12983   9.720  13.599   4.117
 3715SOL    HW112984   9.767  13.680   4.099
 3715SOL    HW212985   9.636  13.609   4.072
 3716SOL     OW12986   9.208   9.914   2.577
 3716SOL    HW112987   9.291   9.959   2.563
 3716SOL    HW212988   9.143   9.971   2.535
 3717SOL     OW12989   6.079  12.558  10.646
 3717SOL    HW112990   6.053  12.569  10.555
 3717SOL    HW212991   6.028  12.483  10.677
 3718SOL     OW12992  12.610   6.589  13.599
 3718SOL    HW112993  12.668   6.517  13.574
 3718SOL    HW212994  12.614   6.592  13.694
 3719SOL     OW12995  11.824  14.551  14.364
 3719SOL    HW112996  11.780  14.559  14.279
 3719SOL    HW212997  11.765  14.495  14.416
 3720SOL     OW12998   2.197   3.882   4.919
 3720SOL    HW112999   2.290   3.858   4.919
 3720SOL    HW213000   2.164   3.852   5.003
 3721SOL     OW13001  10.304   5.501   1.563
 3721SOL    HW113002  10.305   5.441   1.488
 3721SOL    HW213003  10.362   5.573   1.537
 3722SOL     OW13004  13.553   9.581   4.339
 3722SOL    HW113005  13.461   9.570   4.314
 3722SOL    HW213006  13.552   9.580   4.435
 3723SOL     OW13007  10.529  12.643  10.137
 3723SOL    HW113008  10.595  12.711  10.126
 3723SOL    HW213009  10.501  12.651  10.228
 3724SOL     OW13010   2.643   5.842   8.934
 3724SOL    HW113011   2.647   5.823   9.028
 3724SOL    HW213012   2.557   5.881   8.921
 3725SOL     OW13013   2.158  13.560  11.765
 3725SOL    HW113014   2.137  13.467  11.776
 3725SOL    HW213015   2.085  13.595  11.714
 3726SOL     OW13016   8.226   7.035   9.667
 3726SOL    HW113017   8.178   7.095   9.610
 3726SOL    HW213018   8.275   6.979   9.607
 3727SOL     OW13019   2.531  10.047   8.548
 3727SOL    HW113020   2.559   9.980   8.486
 3727SOL    HW213021   2.548  10.009   8.634
 3728SOL     OW13022   0.668   0.309   5.820
 3728SOL    HW113023   0.680   0.344   5.908
 3728SOL    HW213024   0.746   0.338   5.772
 3729SOL     OW13025   7.365   0.203   4.357
 3729SOL    HW113026   7.345   0.285   4.403
 3729SOL    HW213027   7.405   0.147   4.424
 3730SOL     OW13028   0.689   6.582   4.930
 3730SOL    HW113029   0.748   6.658   4.933
 3730SOL    HW213030   0.657   6.581   4.840
 3731SOL     OW13031  12.088   0.468   5.304
 3731SOL    HW113032  12.101   0.410   5.229
 3731SOL    HW213033  12.177   0.484   5.338
 3732SOL     OW13034  11.874   7.445   0.947
 3732SOL    HW113035  11.845   7.524   0.994
 3732SOL    HW213036  11.873   7.470   0.855
 3733SOL     OW13037   1.250   1.492   5.809
 3733SOL    HW113038   1.330   1.456   5.772
 3733SOL    HW213039   1.203   1.416   5.842
 3734SOL     OW13040  14.184  13.459  13.967
 3734SOL    HW113041  14.116  13.442  14.032
 3734SOL    HW213042  14.236  13.529  14.005
 3735SOL     OW13043   1.751  14.496   6.382
 3735SOL    HW113044   1.737  14.500   6.288
 3735SOL    HW213045   1.835  14.541   6.396
 3736SOL     OW13046   9.216   8.857  10.163
 3736SOL    HW113047   9.274   8.933  10.169
 3736SOL    HW213048   9.218   8.833  10.070
 3737SOL     OW13049   7.268   7.377   7.986
 3737SOL    HW113050   7.238   7.349   8.073
 3737SOL    HW213051   7.187   7.392   7.937
 3738SOL     OW13052   2.581   8.023   0.705
 3738SOL    HW113053   2.514   7.998   0.642
 3738SOL    HW213054   2.642   7.948   0.706
 3739SOL     OW13055   0.564   7.192   9.570
 3739SOL    HW113056   0.595   7.140   9.496
 3739SOL    HW213057   0.469   7.184   9.567
 3740SOL     OW13058   2.232  10.649  13.725
 3740SOL    HW113059   2.193  10.735  13.709
 3740SOL    HW213060   2.190  10.591  13.661
 3741SOL     OW13061  14.725   2.627   9.544
 3741SOL    HW113062  14.793   2.663   9.487
 3741SOL    HW213063  14.747   2.534   9.550
 3742SOL     OW13064   0.713  10.125  10.442
 3742SOL    HW113065   0.631  10.151  10.485
 3742SOL    HW213066   0.744  10.050  10.492
 3743SOL     OW13067   8.930   2.612  14.221
 3743SOL    HW113068   9.019   2.645  14.237
 3743SOL    HW213069   8.943   2.533  14.169
 3744SOL     OW13070  14.813   7.853  11.878
 3744SOL    HW113071  14.749   7.789  11.849
 3744SOL    HW213072  14.778   7.937  11.849
 3745SOL     OW13073  14.244   9.556   2.139
 3745SOL    HW113074  14.206   9.562   2.051
 3745SOL    HW213075  14.169   9.550   2.198
 3746SOL     OW13076   6.018  11.005   1.950
 3746SOL    HW113077   5.925  11.028   1.946
 3746SOL    HW213078   6.035  10.991   2.043
 3747SOL     OW13079  10.812  13.812   9.034
 3747SOL    HW113080  10.800  13.873   8.961
 3747SOL    HW213081  10.899  13.833   9.068
 3748SOL     OW13082   2.299   4.847   7.182
 3748SOL    HW113083   2.242   4.881   7.251
 3748SOL    HW213084   2.303   4.753   7.200
 3749SOL     OW13085   1.367   6.327   4.589
 3749SOL    HW113086   1.379   6.253   4.649
 3749SOL    HW213087   1.281   6.311   4.549
 3750SOL     OW13088   0.290   3.720   9.504
 3750SOL    HW113089   0.320   3.687   9.419
 3750SOL    HW213090   0.253   3.643   9.547
 3751SOL     OW13091   2.424   6.444   2.780
 3751SOL    HW113092   2.358   6.382   2.750
 3751SOL    HW213093   2.379   6.497   2.846
 3752SOL     OW13094  12.392   0.637   9.327
 3752SOL    HW113095  12.470   0.692   9.317
 3752SOL    HW213096  12.341   0.652   9.247
 3753SOL     OW13097  13.670  10.213   4.267
 3753SOL    HW113098  13.657  10.280   4.334
 3753SOL    HW213099  13.634  10.252   4.187
 3754SOL     OW13100   2.568   7.471   3.593
 3754SOL    HW113101   2.615   7.388   3.601
 3754SOL    HW213102   2.635   7.535   3.572
 3755SOL     OW13103   9.247  12.286   0.140
 3755SOL    HW113104   9.272  12.283   0.232
 3755SOL    HW213105   9.312  12.231   0.096
 3756SOL     OW13106   1.848   6.294   7.629
 3756SOL    HW113107   1.857   6.357   7.701
 3756SOL    HW213108   1.856   6.208   7.671
 3757SOL     OW13109   6.088  11.556   4.212
 3757SOL    HW113110   6.128  11.513   4.288
 3757SOL    HW213111   6.009  11.504   4.195
 3758SOL     OW13112   4.213   0.698   2.487
 3758SOL    HW113113   4.237   0.766   2.550
 3758SOL    HW213114   4.283   0.699   2.422
 3759SOL     OW13115   2.353   2.190  12.167
 3759SOL    HW113116   2.287   2.154  12.107
 3759SOL    HW213117   2.322   2.278  12.187
 3760SOL     OW13118   4.250   1.871  13.942
 3760SOL    HW113119   4.209   1.955  13.921
 3760SOL    HW213120   4.215   1.810  13.877
 3761SOL     OW13121   8.007   7.287   2.629
 3761SOL    HW113122   8.057   7.205   2.628
 3761SOL    HW213123   8.011   7.318   2.538
 3762SOL     OW13124  13.329   3.281  13.428
 3762SOL    HW113125  13.242   3.321  13.424
 3762SOL    HW213126  13.389   3.356  13.423
 3763SOL     OW13127  14.112  12.946   6.354
 3763SOL    HW113128  14.134  12.855   6.334
 3763SOL    HW213129  14.079  12.944   6.444
 3764SOL     OW13130   8.941   4.945   6.839
 3764SOL    HW113131   8.938   4.864   6.788
 3764SOL    HW213132   9.025   4.942   6.885
 3765SOL     OW13133  13.638   2.733  11.634
 3765SOL    HW113134  13.595   2.816  11.653
 3765SOL    HW213135  13.679   2.708  11.717
 3766SOL     OW13136  11.444   5.884   0.133
 3766SOL    HW113137  11.466   5.915   0.045
 3766SOL    HW213138  11.528   5.851   0.168
 3767SOL     OW13139  11.380   0.611  13.895
 3767SOL    HW113140  11.373   0.519  13.919
 3767SOL    HW213141  11.415   0.654  13.973
 3768SOL     OW13142   1.522   8.411   4.997
 3768SOL    HW113143   1.610   8.445   4.983
 3768SOL    HW213144   1.515   8.337   4.937
 3769SOL     OW13145  14.124   6.139   0.003
 3769SOL    HW113146  14.055   6.073  14.867
 3769SOL    HW213147  14.077   6.221   0.019
 3770SOL     OW13148   6.623   7.322   8.566
 3770SOL    HW113149   6.611   7.232   8.597
 3770SOL    HW213150   6.718   7.334   8.566
 3771SOL     OW13151   4.743   6.257  14.144
 3771SOL    HW113152   4.685   6.311  14.090
 3771SOL    HW213153   4.724   6.283  14.234
 3772SOL     OW13154   0.783   2.248  13.914
 3772SOL    HW113155   0.873   2.236  13.885
 3772SOL    HW213156   0.776   2.195  13.993
 3773SOL     OW13157  12.546   0.900   6.512
 3773SOL    HW113158  12.518   0.814   6.480
 3773SOL    HW213159  12.504   0.963   6.452
 3774SOL     OW13160  14.612  11.116   0.111
 3774SOL    HW113161  14.591  11.206   0.085
 3774SOL    HW213162  14.634  11.072   0.029
 3775SOL     OW13163   5.678   7.787  12.222
 3775SOL    HW113164   5.770   7.783  12.194
 3775SOL    HW213165   5.630   7.801  12.140
 3776SOL     OW13166  10.406  12.080   3.484
 3776SOL    HW113167  10.317  12.055   3.510
 3776SOL    HW213168  10.443  12.000   3.445
 3777SOL     OW13169   5.675  13.462  12.201
 3777SOL    HW113170   5.610  13.532  12.208
 3777SOL    HW213171   5.733  13.491  12.131
 3778SOL     OW13172   0.679   5.909  11.841
 3778SOL    HW113173   0.703   5.874  11.926
 3778SOL    HW213174   0.647   5.833  11.791
 3779SOL     OW13175  13.352   3.171   6.736
 3779SOL    HW113176  13.363   3.087   6.779
 3779SOL    HW213177  13.263   3.199   6.759
 3780SOL     OW13178  12.732   1.438   1.581
 3780SOL    HW113179  12.775   1.513   1.540
 3780SOL    HW213180  12.653   1.476   1.622
 3781SOL     OW13181  12.524   9.441  10.677
 3781SOL    HW113182  12.557   9.510  10.619
 3781SOL    HW213183  12.600   9.410  10.724
 3782SOL     OW13184   0.092  14.008   0.234
 3782SOL    HW113185   0.033  14.008   0.158
 3782SOL    HW213186   0.145  14.087   0.223
 3783SOL     OW13187   9.778   8.006   6.507
 3783SOL    HW113188   9.859   7.996   6.457
 3783SOL    HW213189   9.739   8.087   6.474
 3784SOL     OW13190   5.757  12.821   9.636
 3784SOL    HW113191   5.837  12.863   9.605
 3784SOL    HW213192   5.782  12.729   9.648
 3785SOL     OW13193   6.539   5.423  10.863
 3785SOL    HW113194   6.513   5.495  10.919
 3785SOL    HW213195   6.604   5.374  10.914
 3786SOL     OW13196  10.758   2.840   8.596
 3786SOL    HW113197  10.699   2.879   8.660
 3786SOL    HW213198  10.830   2.902   8.587
 3787SOL     OW13199   9.634   4.871   2.866
 3787SOL    HW113200   9.582   4.929   2.810
 3787SOL    HW213201   9.578   4.855   2.942
 3788SOL     OW13202   6.958  14.837  10.241
 3788SOL    HW113203   6.963  14.813  10.148
 3788SOL    HW213204   7.018   0.037  10.250
 3789SOL     OW13205   8.889   1.921   9.534
 3789SOL    HW113206   8.812   1.915   9.591
 3789SOL    HW213207   8.956   1.962   9.589
 3790SOL     OW13208   2.994  10.396  14.113
 3790SOL    HW113209   2.932  10.328  14.084
 3790SOL    HW213210   3.074  10.347  14.133
 3791SOL     OW13211   9.017   9.871   1.203
 3791SOL    HW113212   8.965   9.928   1.146
 3791SOL    HW213213   9.104   9.870   1.162
 3792SOL     OW13214   5.682   9.339  10.386
 3792SOL    HW113215   5.657   9.411  10.328
 3792SOL    HW213216   5.754   9.374  10.439
 3793SOL     OW13217  13.544  11.673  11.209
 3793SOL    HW113218  13.506  11.720  11.283
 3793SOL    HW213219  13.508  11.585  11.215
 3794SOL     OW13220  14.059   2.817   0.369
 3794SOL    HW113221  14.071   2.888   0.306
 3794SOL    HW213222  14.140   2.766   0.364
 3795SOL     OW13223   7.652  12.841   4.769
 3795SOL    HW113224   7.659  12.887   4.686
 3795SOL    HW213225   7.659  12.909   4.836
 3796SOL     OW13226   2.794  11.858   7.207
 3796SOL    HW113227   2.781  11.953   7.204
 3796SOL    HW213228   2.721  11.826   7.261
 3797SOL     OW13229  10.375   6.510   9.688
 3797SOL    HW113230  10.357   6.504   9.782
 3797SOL    HW213231  10.334   6.592   9.661
 3798SOL     OW13232   8.358   7.336  14.683
 3798SOL    HW113233   8.422   7.275  14.645
 3798SOL    HW213234   8.317   7.378  14.608
 3799SOL     OW13235  12.764  12.480  11.173
 3799SOL    HW113236  12.684  12.452  11.129
 3799SOL    HW213237  12.749  12.572  11.195
 3800SOL     OW13238   0.288   1.569   5.016
 3800SOL    HW113239   0.336   1.542   4.937
 3800SOL    HW213240   0.278   1.488   5.066
 3801SOL     OW13241   5.695   7.133   5.791
 3801SOL    HW113242   5.767   7.181   5.751
 3801SOL    HW213243   5.727   7.111   5.879
 3802SOL     OW13244   1.811  12.351   2.259
 3802SOL    HW113245   1.772  12.273   2.298
 3802SOL    HW213246   1.901  12.351   2.290
 3803SOL     OW13247   8.604  10.144  11.194
 3803SOL    HW113248   8.528  10.110  11.240
 3803SOL    HW213249   8.609  10.092  11.114
 3804SOL     OW13250   3.164   1.042   2.387
 3804SOL    HW113251   3.105   1.048   2.312
 3804SOL    HW213252   3.115   0.993   2.453
 3805SOL     OW13253   8.609   1.881   8.432
 3805SOL    HW113254   8.701   1.880   8.459
 3805SOL    HW213255   8.596   1.967   8.392
 3806SOL     OW13256  12.892  12.854   3.271
 3806SOL    HW113257  12.886  12.799   3.193
 3806SOL    HW213258  12.815  12.911   3.266
 3807SOL     OW13259  14.787   8.246  13.641
 3807SOL    HW113260  14.771   8.334  13.674
 3807SOL    HW213261  14.806   8.195  13.720
 3808SOL     OW13262  14.811  13.140   9.225
 3808SOL    HW113263  14.723  13.115   9.196
 3808SOL    HW213264  14.848  13.060   9.262
 3809SOL     OW13265  14.547   5.423  13.056
 3809SOL    HW113266  14.477   5.366  13.089
 3809SOL    HW213267  14.507   5.469  12.982
 3810SOL     OW13268   1.037   4.770   0.822
 3810SOL    HW113269   1.041   4.850   0.770
 3810SOL    HW213270   1.016   4.800   0.911
 3811SOL     OW13271   8.570   6.122   7.731
 3811SOL    HW113272   8.524   6.175   7.665
 3811SOL    HW213273   8.631   6.069   7.680
 3812SOL     OW13274   0.757  10.580  14.599
 3812SOL    HW113275   0.809  10.650  14.638
 3812SOL    HW213276   0.817  10.535  14.540
 3813SOL     OW13277  10.050   9.231  13.167
 3813SOL    HW113278  10.078   9.293  13.235
 3813SOL    HW213279  10.114   9.160  13.172
 3814SOL     OW13280  12.220   3.930   4.130
 3814SOL    HW113281  12.221   3.995   4.060
 3814SOL    HW213282  12.185   3.978   4.205
 3815SOL     OW13283  13.925   6.926   5.271
 3815SOL    HW113284  13.879   6.948   5.352
 3815SOL    HW213285  14.018   6.931   5.294
 3816SOL     OW13286  10.497  11.237   5.296
 3816SOL    HW113287  10.482  11.265   5.205
 3816SOL    HW213288  10.587  11.205   5.296
 3817SOL     OW13289   9.132  12.633  12.705
 3817SOL    HW113290   9.105  12.541  12.707
 3817SOL    HW213291   9.077  12.672  12.637
 3818SOL     OW13292   1.609   4.678  10.505
 3818SOL    HW113293   1.682   4.668  10.565
 3818SOL    HW213294   1.563   4.594  10.508
 3819SOL     OW13295   2.273   6.024  14.567
 3819SOL    HW113296   2.331   5.952  14.543
 3819SOL    HW213297   2.188   6.000  14.530
 3820SOL     OW13298   8.264   5.122   8.994
 3820SOL    HW113299   8.349   5.165   8.987
 3820SOL    HW213300   8.224   5.133   8.908
 3821SOL     OW13301   1.438   7.560   3.957
 3821SOL    HW113302   1.490   7.614   3.898
 3821SOL    HW213303   1.479   7.571   4.042
 3822SOL     OW13304   0.950  10.230  12.073
 3822SOL    HW113305   0.962  10.135  12.078
 3822SOL    HW213306   0.968  10.261  12.161
 3823SOL     OW13307  13.719  14.173  10.764
 3823SOL    HW113308  13.766  14.100  10.805
 3823SOL    HW213309  13.770  14.250  10.788
 3824SOL     OW13310  12.801   7.207   4.359
 3824SOL    HW113311  12.870   7.265   4.389
 3824SOL    HW213312  12.814   7.126   4.408
 3825SOL     OW13313   4.408  13.410   0.643
 3825SOL    HW113314   4.491  13.370   0.619
 3825SOL    HW213315   4.432  13.485   0.698
 3826SOL     OW13316   0.631   0.391   0.761
 3826SOL    HW113317   0.692   0.458   0.730
 3826SOL    HW213318   0.573   0.374   0.687
 3827SOL     OW13319   8.613   5.021   9.595
 3827SOL    HW113320   8.613   4.927   9.615
 3827SOL    HW213321   8.706   5.044   9.592
 3828SOL     OW13322   5.633   1.710   8.597
 3828SOL    HW113323   5.566   1.718   8.664
 3828SOL    HW213324   5.634   1.795   8.553
 3829SOL     OW13325   2.459   5.100   4.791
 3829SOL    HW113326   2.527   5.144   4.843
 3829SOL    HW213327   2.424   5.033   4.849
 3830SOL     OW13328  13.300  10.709   7.005
 3830SOL    HW113329  13.214  10.748   7.018
 3830SOL    HW213330  13.359  10.760   7.062
 3831SOL     OW13331   2.956   6.333  14.054
 3831SOL    HW113332   2.932   6.407  13.997
 3831SOL    HW213333   2.884   6.271  14.042
 3832SOL     OW13334   3.972  13.979   4.089
 3832SOL    HW113335   3.959  13.967   3.995
 3832SOL    HW213336   4.012  13.897   4.118
 3833SOL     OW13337  13.214   8.477   8.818
 3833SOL    HW113338  13.246   8.491   8.729
 3833SOL    HW213339  13.131   8.526   8.822
 3834SOL     OW13340  11.901  11.406  10.629
 3834SOL    HW113341  11.958  11.360  10.567
 3834SOL    HW213342  11.876  11.487  10.583
 3835SOL     OW13343   7.256  13.386   9.331
 3835SOL    HW113344   7.253  13.395   9.427
 3835SOL    HW213345   7.349  13.381   9.310
 3836SOL     OW13346   8.136   9.568  10.869
 3836SOL    HW113347   8.179   9.503  10.923
 3836SOL    HW213348   8.072   9.610  10.927
 3837SOL     OW13349   5.914   4.521   6.320
 3837SOL    HW113350   5.917   4.530   6.415
 3837SOL    HW213351   5.924   4.428   6.304
 3838SOL     OW13352   6.119  13.685   7.086
 3838SOL    HW113353   6.117  13.696   6.991
 3838SOL    HW213354   6.196  13.733   7.114
 3839SOL     OW13355  12.826  13.588  11.049
 3839SOL    HW113356  12.807  13.587  10.955
 3839SOL    HW213357  12.921  13.582  11.055
 3840SOL     OW13358  13.357   8.567   3.190
 3840SOL    HW113359  13.363   8.645   3.246
 3840SOL    HW213360  13.349   8.602   3.101
 3841SOL     OW13361   5.335  11.960   1.799
 3841SOL    HW113362   5.367  11.896   1.863
 3841SOL    HW213363   5.389  11.945   1.721
 3842SOL     OW13364   8.162   9.091   2.387
 3842SOL    HW113365   8.241   9.039   2.368
 3842SOL    HW213366   8.174   9.121   2.477
 3843SOL     OW13367  10.234  12.221   3.661
 3843SOL    HW113368  10.277  12.266   3.734
 3843SOL    HW213369  10.231  12.286   3.591
 3844SOL     OW13370  11.219  11.614   5.681
 3844SOL    HW113371  11.130  11.612   5.715
 3844SOL    HW213372  11.251  11.701   5.704
 3845SOL     OW13373  10.122   9.170  10.207
 3845SOL    HW113374  10.134   9.234  10.277
 3845SOL    HW213375  10.161   9.089  10.242
 3846SOL     OW13376   2.688   2.767   1.896
 3846SOL    HW113377   2.766   2.801   1.940
 3846SOL    HW213378   2.698   2.672   1.901
 3847SOL     OW13379   4.878   6.612  13.710
 3847SOL    HW113380   4.891   6.569  13.626
 3847SOL    HW213381   4.840   6.697  13.688
 3848SOL     OW13382   1.501   2.098  13.222
 3848SOL    HW113383   1.495   2.009  13.257
 3848SOL    HW213384   1.476   2.090  13.130
 3849SOL     OW13385  10.041  10.501   5.557
 3849SOL    HW113386  10.030  10.514   5.652
 3849SOL    HW213387   9.969  10.550   5.518
 3850SOL     OW13388   5.862   2.970   4.528
 3850SOL    HW113389   5.837   3.021   4.451
 3850SOL    HW213390   5.830   3.022   4.602
 3851SOL     OW13391   8.317  12.995   6.873
 3851SOL    HW113392   8.231  13.037   6.875
 3851SOL    HW213393   8.325  12.952   6.958
 3852SOL     OW13394   8.098   8.861   1.096
 3852SOL    HW113395   8.122   8.776   1.133
 3852SOL    HW213396   8.009   8.876   1.127
 3853SOL     OW13397   5.858   0.427   9.665
 3853SOL    HW113398   5.789   0.362   9.655
 3853SOL    HW213399   5.867   0.465   9.577
 3854SOL     OW13400  12.813   9.878   6.086
 3854SOL    HW113401  12.847   9.804   6.136
 3854SOL    HW213402  12.839   9.955   6.137
 3855SOL     OW13403   6.764  11.137  12.221
 3855SOL    HW113404   6.739  11.215  12.270
 3855SOL    HW213405   6.767  11.067  12.287
 3856SOL     OW13406   9.623  10.727   6.886
 3856SOL    HW113407   9.683  10.722   6.811
 3856SOL    HW213408   9.579  10.642   6.887
 3857SOL     OW13409  14.482  14.213   5.666
 3857SOL    HW113410  14.387  14.218   5.666
 3857SOL    HW213411  14.511  14.301   5.644
 3858SOL     OW13412  12.383   4.742  12.505
 3858SOL    HW113413  12.340   4.656  12.507
 3858SOL    HW213414  12.339   4.789  12.433
 3859SOL     OW13415   3.276   5.545   4.406
 3859SOL    HW113416   3.243   5.592   4.329
 3859SOL    HW213417   3.275   5.609   4.476
 3860SOL     OW13418   5.271   8.232  11.250
 3860SOL    HW113419   5.194   8.234  11.192
 3860SOL    HW213420   5.305   8.144  11.241
 3861SOL     OW13421  11.715   2.024   0.175
 3861SOL    HW113422  11.723   2.119   0.163
 3861SOL    HW213423  11.653   1.996   0.109
 3862SOL     OW13424   5.680   3.154   6.427
 3862SOL    HW113425   5.765   3.117   6.450
 3862SOL    HW213426   5.670   3.137   6.334
 3863SOL     OW13427  11.757  13.462  12.114
 3863SOL    HW113428  11.777  13.369  12.127
 3863SOL    HW213429  11.704  13.463  12.034
 3864SOL     OW13430   7.451   6.083   8.448
 3864SOL    HW113431   7.470   6.160   8.395
 3864SOL    HW213432   7.364   6.099   8.484
 3865SOL     OW13433   7.154   5.312   4.143
 3865SOL    HW113434   7.150   5.240   4.207
 3865SOL    HW213435   7.126   5.389   4.192
 3866SOL     OW13436   5.120   3.787   5.734
 3866SOL    HW113437   5.128   3.763   5.641
 3866SOL    HW213438   5.197   3.841   5.751
 3867SOL     OW13439   5.297   5.718  10.465
 3867SOL    HW113440   5.337   5.632  10.474
 3867SOL    HW213441   5.348   5.761  10.397
 3868SOL     OW13442   7.457   6.810   4.970
 3868SOL    HW113443   7.532   6.758   4.998
 3868SOL    HW213444   7.401   6.814   5.048
 3869SOL     OW13445   9.909   2.093   2.509
 3869SOL    HW113446   9.931   2.037   2.584
 3869SOL    HW213447   9.876   2.032   2.443
 3870SOL     OW13448  11.115   7.068   2.355
 3870SOL    HW113449  11.074   7.041   2.273
 3870SOL    HW213450  11.099   6.994   2.415
 3871SOL     OW13451   9.378  11.678  14.288
 3871SOL    HW113452   9.317  11.604  14.283
 3871SOL    HW213453   9.345  11.730  14.361
 3872SOL     OW13454   3.767   8.377   6.877
 3872SOL    HW113455   3.801   8.426   6.952
 3872SOL    HW213456   3.824   8.300   6.870
 3873SOL     OW13457   6.059  10.310   6.860
 3873SOL    HW113458   6.052  10.383   6.922
 3873SOL    HW213459   6.144  10.322   6.818
 3874SOL     OW13460  11.367   7.662   7.943
 3874SOL    HW113461  11.302   7.696   8.004
 3874SOL    HW213462  11.379   7.732   7.879
 3875SOL     OW13463  13.672   9.710   7.772
 3875SOL    HW113464  13.697   9.712   7.864
 3875SOL    HW213465  13.597   9.651   7.769
 3876SOL     OW13466   7.142   4.575  14.224
 3876SOL    HW113467   7.077   4.507  14.244
 3876SOL    HW213468   7.110   4.616  14.144
 3877SOL     OW13469  11.770   8.152   1.203
 3877SOL    HW113470  11.854   8.188   1.174
 3877SOL    HW213471  11.705   8.209   1.163
 3878SOL     OW13472   3.771   4.932   0.105
 3878SOL    HW113473   3.712   4.955   0.177
 3878SOL    HW213474   3.720   4.874   0.049
 3879SOL     OW13475   1.407   9.495   5.115
 3879SOL    HW113476   1.465   9.471   5.044
 3879SOL    HW213477   1.429   9.433   5.185
 3880SOL     OW13478  12.206  12.089   3.002
 3880SOL    HW113479  12.174  12.006   2.966
 3880SOL    HW213480  12.139  12.114   3.066
 3881SOL     OW13481   9.891   0.741   9.296
 3881SOL    HW113482   9.951   0.811   9.322
 3881SOL    HW213483   9.936   0.660   9.322
 3882SOL     OW13484   8.719  12.576   7.947
 3882SOL    HW113485   8.785  12.540   8.006
 3882SOL    HW213486   8.637  12.539   7.978
 3883SOL     OW13487   8.361   6.451   8.050
 3883SOL    HW113488   8.360   6.426   8.142
 3883SOL    HW213489   8.450   6.482   8.034
 3884SOL     OW13490   1.036  13.267   5.029
 3884SOL    HW113491   1.087  13.276   5.110
 3884SOL    HW213492   1.075  13.330   4.969
 3885SOL     OW13493   7.287  13.523   4.464
 3885SOL    HW113494   7.215  13.563   4.414
 3885SOL    HW213495   7.243  13.472   4.532
 3886SOL     OW13496  14.244  11.507  10.148
 3886SOL    HW113497  14.162  11.467  10.175
 3886SOL    HW213498  14.227  11.543  10.061
 3887SOL     OW13499  13.378   0.807   6.554
 3887SOL    HW113500  13.316   0.868   6.595
 3887SOL    HW213501  13.322   0.741   6.512
 3888SOL     OW13502   4.697   2.932   0.278
 3888SOL    HW113503   4.722   3.019   0.308
 3888SOL    HW213504   4.701   2.937   0.182
 3889SOL     OW13505   1.350  12.417  14.534
 3889SOL    HW113506   1.403  12.443  14.609
 3889SOL    HW213507   1.262  12.448  14.555
 3890SOL     OW13508   3.003   5.584   7.658
 3890SOL    HW113509   2.909   5.595   7.642
 3890SOL    HW213510   3.012   5.491   7.679
 3891SOL     OW13511   1.739   4.189  12.685
 3891SOL    HW113512   1.693   4.143  12.756
 3891SOL    HW213513   1.735   4.129  12.611
 3892SOL     OW13514   7.609   7.811   5.448
 3892SOL    HW113515   7.585   7.903   5.461
 3892SOL    HW213516   7.648   7.785   5.532
 3893SOL     OW13517   3.857   1.190   3.114
 3893SOL    HW113518   3.789   1.243   3.072
 3893SOL    HW213519   3.839   1.101   3.084
 3894SOL     OW13520   4.875   0.245   2.510
 3894SOL    HW113521   4.823   0.169   2.538
 3894SOL    HW213522   4.962   0.209   2.493
 3895SOL     OW13523   1.922  11.453   2.677
 3895SOL    HW113524   1.956  11.392   2.612
 3895SOL    HW213525   1.829  11.430   2.685
 3896SOL     OW13526   9.975   3.176   1.114
 3896SOL    HW113527  10.012   3.183   1.026
 3896SOL    HW213528   9.984   3.083   1.136
 3897SOL     OW13529   7.762   0.290   6.693
 3897SOL    HW113530   7.856   0.275   6.702
 3897SOL    HW213531   7.751   0.321   6.603
 3898SOL     OW13532   1.608  14.644   5.601
 3898SOL    HW113533   1.543  14.576   5.582
 3898SOL    HW213534   1.666  14.605   5.665
 3899SOL     OW13535  12.572   0.462  13.180
 3899SOL    HW113536  12.532   0.486  13.096
 3899SOL    HW213537  12.596   0.370  13.169
 3900SOL     OW13538   6.158  14.675   8.437
 3900SOL    HW113539   6.137  14.678   8.531
 3900SOL    HW213540   6.249  14.648   8.434
 3901SOL     OW13541   8.047  11.963   4.394
 3901SOL    HW113542   8.065  11.870   4.404
 3901SOL    HW213543   8.028  11.993   4.483
 3902SOL     OW13544   6.313   6.404  13.901
 3902SOL    HW113545   6.358   6.479  13.939
 3902SOL    HW213546   6.298   6.428  13.810
 3903SOL     OW13547   1.834   0.302   5.914
 3903SOL    HW113548   1.899   0.250   5.960
 3903SOL    HW213549   1.883   0.378   5.881
 3904SOL     OW13550   5.840  13.901   9.648
 3904SOL    HW113551   5.934  13.918   9.640
 3904SOL    HW213552   5.820  13.919   9.740
 3905SOL     OW13553  12.813  10.805   4.012
 3905SOL    HW113554  12.826  10.794   4.106
 3905SOL    HW213555  12.878  10.747   3.972
 3906SOL     OW13556   0.454   6.624   7.013
 3906SOL    HW113557   0.462   6.619   7.108
 3906SOL    HW213558   0.397   6.550   6.990
 3907SOL     OW13559  12.955  14.497   4.864
 3907SOL    HW113560  13.033  14.442   4.858
 3907SOL    HW213561  12.937  14.504   4.958
 3908SOL     OW13562   8.231   3.960  11.300
 3908SOL    HW113563   8.207   4.042  11.343
 3908SOL    HW213564   8.308   3.982  11.248
 3909SOL     OW13565  12.440   7.130   3.026
 3909SOL    HW113566  12.466   7.115   2.935
 3909SOL    HW213567  12.408   7.044   3.056
 3910SOL     OW13568   1.115   7.324   4.639
 3910SOL    HW113569   1.086   7.415   4.647
 3910SOL    HW213570   1.034   7.273   4.649
 3911SOL     OW13571   5.478   9.090   2.653
 3911SOL    HW113572   5.426   9.013   2.631
 3911SOL    HW213573   5.543   9.096   2.583
 3912SOL     OW13574   5.454   3.826  10.472
 3912SOL    HW113575   5.500   3.891  10.524
 3912SOL    HW213576   5.363   3.831  10.501
 3913SOL     OW13577  11.427  12.929  12.077
 3913SOL    HW113578  11.338  12.929  12.043
 3913SOL    HW213579  11.422  12.881  12.160
 3914SOL     OW13580  14.198  12.448   1.552
 3914SOL    HW113581  14.162  12.529   1.587
 3914SOL    HW213582  14.292  12.453   1.569
 3915SOL     OW13583   6.157  13.686   6.021
 3915SOL    HW113584   6.108  13.768   6.025
 3915SOL    HW213585   6.248  13.712   6.009
 3916SOL     OW13586  11.024   3.759  12.066
 3916SOL    HW113587  11.117   3.752  12.044
 3916SOL    HW213588  11.023   3.793  12.156
 3917SOL     OW13589   2.323  14.601   4.216
 3917SOL    HW113590   2.324  14.695   4.230
 3917SOL    HW213591   2.416  14.578   4.204
 3918SOL     OW13592   0.305   4.891   3.895
 3918SOL    HW113593   0.377   4.952   3.878
 3918SOL    HW213594   0.255   4.933   3.965
 3919SOL     OW13595   0.600  14.543  13.833
 3919SOL    HW113596   0.569  14.508  13.750
 3919SOL    HW213597   0.651  14.471  13.872
 3920SOL     OW13598  12.809  10.939   9.228
 3920SOL    HW113599  12.772  11.027   9.234
 3920SOL    HW213600  12.735  10.884   9.200
 3921SOL     OW13601  10.264   8.642  10.991
 3921SOL    HW113602  10.351   8.606  11.008
 3921SOL    HW213603  10.204   8.577  11.027
 3922SOL     OW13604   3.480  10.333   9.233
 3922SOL    HW113605   3.394  10.375   9.227
 3922SOL    HW213606   3.516  10.364   9.317
 3923SOL     OW13607   5.121  13.492   3.684
 3923SOL    HW113608   5.177  13.497   3.761
 3923SOL    HW213609   5.092  13.400   3.681
 3924SOL     OW13610   1.000   0.819   3.704
 3924SOL    HW113611   1.051   0.901   3.706
 3924SOL    HW213612   0.911   0.847   3.685
 3925SOL     OW13613   9.209   9.650   2.085
 3925SOL    HW113614   9.150   9.724   2.067
 3925SOL    HW213615   9.178   9.580   2.027
 3926SOL     OW13616   0.789  14.581   2.706
 3926SOL    HW113617   0.813  14.496   2.669
 3926SOL    HW213618   0.811  14.573   2.799
 3927SOL     OW13619  14.736  13.347   5.697
 3927SOL    HW113620  14.737  13.428   5.748
 3927SOL    HW213621  14.682  13.287   5.748
 3928SOL     OW13622   3.903   9.193   5.369
 3928SOL    HW113623   3.880   9.136   5.442
 3928SOL    HW213624   3.997   9.178   5.354
 3929SOL     OW13625   4.149   3.614  11.785
 3929SOL    HW113626   4.242   3.634  11.797
 3929SOL    HW213627   4.146   3.519  11.776
 3930SOL     OW13628  13.707   7.727   0.775
 3930SOL    HW113629  13.735   7.792   0.838
 3930SOL    HW213630  13.787   7.679   0.753
 3931SOL     OW13631   4.414   9.678   0.609
 3931SOL    HW113632   4.427   9.724   0.692
 3931SOL    HW213633   4.496   9.690   0.562
 3932SOL     OW13634  14.055  11.857   2.196
 3932SOL    HW113635  13.966  11.838   2.164
 3932SOL    HW213636  14.079  11.778   2.245
 3933SOL     OW13637  13.140   8.107  14.320
 3933SOL    HW113638  13.115   8.186  14.367
 3933SOL    HW213639  13.079   8.040  14.350
 3934SOL     OW13640  12.722  13.993   3.452
 3934SOL    HW113641  12.795  13.958   3.502
 3934SOL    HW213642  12.644  13.954   3.493
 3935SOL     OW13643   3.736  11.476   0.133
 3935SOL    HW113644   3.695  11.508   0.213
 3935SOL    HW213645   3.820  11.441   0.161
 3936SOL     OW13646   2.077   1.670   1.029
 3936SOL    HW113647   2.166   1.634   1.035
 3936SOL    HW213648   2.042   1.661   1.118
 3937SOL     OW13649   5.494   1.401   1.157
 3937SOL    HW113650   5.414   1.437   1.197
 3937SOL    HW213651   5.469   1.382   1.066
 3938SOL     OW13652  13.075   4.870  10.538
 3938SOL    HW113653  13.128   4.949  10.526
 3938SOL    HW213654  13.121   4.802  10.488
 3939SOL     OW13655   6.041   6.410   1.444
 3939SOL    HW113656   5.982   6.474   1.405
 3939SOL    HW213657   6.018   6.327   1.402
 3940SOL     OW13658   7.018   2.602  10.302
 3940SOL    HW113659   7.051   2.557  10.225
 3940SOL    HW213660   6.991   2.688  10.270
 3941SOL     OW13661  11.659   5.810  13.913
 3941SOL    HW113662  11.655   5.720  13.945
 3941SOL    HW213663  11.567   5.835  13.898
 3942SOL     OW13664   7.215   4.608  12.973
 3942SOL    HW113665   7.205   4.523  12.930
 3942SOL    HW213666   7.258   4.588  13.056
 3943SOL     OW13667  14.844  10.163   9.970
 3943SOL    HW113668   0.063  10.180   9.947
 3943SOL    HW213669  14.823  10.083   9.923
 3944SOL     OW13670  11.045   4.771   5.867
 3944SOL    HW113671  11.084   4.727   5.943
 3944SOL    HW213672  11.108   4.756   5.796
 3945SOL     OW13673  12.059  12.506   8.723
 3945SOL    HW113674  12.036  12.599   8.718
 3945SOL    HW213675  12.155  12.506   8.728
 3946SOL     OW13676  14.679   7.631   8.604
 3946SOL    HW113677  14.624   7.698   8.563
 3946SOL    HW213678  14.635   7.611   8.686
 3947SOL     OW13679   6.316   2.591  11.504
 3947SOL    HW113680   6.300   2.651  11.431
 3947SOL    HW213681   6.399   2.548  11.483
 3948SOL     OW13682   0.971   0.358   0.289
 3948SOL    HW113683   1.027   0.301   0.235
 3948SOL    HW213684   0.890   0.307   0.301
 3949SOL     OW13685   7.774   8.930  11.869
 3949SOL    HW113686   7.788   8.858  11.931
 3949SOL    HW213687   7.816   8.899  11.788
 3950SOL     OW13688   3.815   8.612  11.153
 3950SOL    HW113689   3.858   8.640  11.234
 3950SOL    HW213690   3.857   8.528  11.132
 3951SOL     OW13691   6.193   9.263   1.924
 3951SOL    HW113692   6.176   9.240   1.833
 3951SOL    HW213693   6.121   9.322   1.948
 3952SOL     OW13694   6.433   1.083  10.326
 3952SOL    HW113695   6.467   1.160  10.371
 3952SOL    HW213696   6.483   1.079  10.244
 3953SOL     OW13697   6.695  13.083   8.239
 3953SOL    HW113698   6.633  13.085   8.313
 3953SOL    HW213699   6.733  13.170   8.237
 3954SOL     OW13700  14.451   3.257  13.538
 3954SOL    HW113701  14.465   3.351  13.547
 3954SOL    HW213702  14.473   3.238  13.447
 3955SOL     OW13703  12.552  12.321   1.045
 3955SOL    HW113704  12.647  12.324   1.051
 3955SOL    HW213705  12.532  12.230   1.024
 3956SOL     OW13706  11.372   7.071   6.317
 3956SOL    HW113707  11.327   7.153   6.336
 3956SOL    HW213708  11.385   7.072   6.222
 3957SOL     OW13709   2.306  12.884   2.232
 3957SOL    HW113710   2.392  12.846   2.217
 3957SOL    HW213711   2.272  12.837   2.308
 3958SOL     OW13712  10.226  12.424  11.467
 3958SOL    HW113713  10.292  12.472  11.419
 3958SOL    HW213714  10.145  12.473  11.454
 3959SOL     OW13715   2.915  11.545   6.299
 3959SOL    HW113716   2.860  11.485   6.348
 3959SOL    HW213717   2.859  11.621   6.283
 3960SOL     OW13718   1.812  11.556  12.004
 3960SOL    HW113719   1.729  11.570  11.958
 3960SOL    HW213720   1.815  11.462  12.021
 3961SOL     OW13721   2.692   5.903  10.564
 3961SOL    HW113722   2.636   5.832  10.533
 3961SOL    HW213723   2.743   5.929  10.487
 3962SOL     OW13724  12.151   6.925   9.265
 3962SOL    HW113725  12.179   6.844   9.309
 3962SOL    HW213726  12.104   6.895   9.187
 3963SOL     OW13727   8.779  11.131  13.590
 3963SOL    HW113728   8.796  11.199  13.655
 3963SOL    HW213729   8.683  11.125  13.588
 3964SOL     OW13730   5.027  10.955  14.166
 3964SOL    HW113731   4.937  10.985  14.178
 3964SOL    HW213732   5.020  10.860  14.156
 3965SOL     OW13733   3.790   8.379   4.109
 3965SOL    HW113734   3.883   8.402   4.109
 3965SOL    HW213735   3.786   8.293   4.066
 3966SOL     OW13736   7.146   8.438  13.393
 3966SOL    HW113737   7.146   8.343  13.383
 3966SOL    HW213738   7.177   8.471  13.309
 3967SOL     OW13739  12.206   5.063  11.276
 3967SOL    HW113740  12.140   5.047  11.209
 3967SOL    HW213741  12.161   5.115  11.343
 3968SOL     OW13742   9.571  10.653   4.190
 3968SOL    HW113743   9.529  10.658   4.104
 3968SOL    HW213744   9.547  10.735   4.233
 3969SOL     OW13745   7.531  10.438   8.897
 3969SOL    HW113746   7.523  10.394   8.982
 3969SOL    HW213747   7.516  10.530   8.917
 3970SOL     OW13748   8.665   4.520   2.946
 3970SOL    HW113749   8.617   4.553   3.022
 3970SOL    HW213750   8.692   4.432   2.970
 3971SOL     OW13751   5.571   5.984  11.359
 3971SOL    HW113752   5.527   6.007  11.277
 3971SOL    HW213753   5.531   5.901  11.384
 3972SOL     OW13754   4.592  14.445   1.435
 3972SOL    HW113755   4.610  14.499   1.358
 3972SOL    HW213756   4.644  14.486   1.505
 3973SOL     OW13757   6.809   4.237   3.048
 3973SOL    HW113758   6.865   4.252   2.972
 3973SOL    HW213759   6.722   4.220   3.011
 3974SOL     OW13760  10.345  11.904   7.775
 3974SOL    HW113761  10.418  11.965   7.783
 3974SOL    HW213762  10.283  11.949   7.717
 3975SOL     OW13763   3.328   9.028   7.117
 3975SOL    HW113764   3.405   8.979   7.088
 3975SOL    HW213765   3.289   8.974   7.186
 3976SOL     OW13766  10.839   6.234   8.116
 3976SOL    HW113767  10.874   6.222   8.028
 3976SOL    HW213768  10.765   6.294   8.104
 3977SOL     OW13769   0.339   5.392  10.596
 3977SOL    HW113770   0.409   5.455  10.614
 3977SOL    HW213771   0.382   5.323  10.544
 3978SOL     OW13772  14.024  10.428   3.222
 3978SOL    HW113773  13.954  10.364   3.213
 3978SOL    HW213774  14.019  10.481   3.142
 3979SOL     OW13775   8.245   6.051  14.146
 3979SOL    HW113776   8.259   6.096  14.063
 3979SOL    HW213777   8.216   5.963  14.121
 3980SOL     OW13778   1.011   2.278  11.263
 3980SOL    HW113779   1.049   2.285  11.175
 3980SOL    HW213780   1.074   2.225  11.312
 3981SOL     OW13781   8.854   3.927   0.944
 3981SOL    HW113782   8.863   3.862   0.874
 3981SOL    HW213783   8.882   4.009   0.904
 3982SOL     OW13784   6.940   7.038   6.023
 3982SOL    HW113785   7.020   6.987   6.007
 3982SOL    HW213786   6.968   7.108   6.081
 3983SOL     OW13787  13.020  14.098  10.011
 3983SOL    HW113788  12.960  14.160   9.968
 3983SOL    HW213789  13.035  14.031   9.945
 3984SOL     OW13790   5.744   0.252   5.150
 3984SOL    HW113791   5.684   0.265   5.223
 3984SOL    HW213792   5.807   0.187   5.182
 3985SOL     OW13793  14.608  12.773   8.391
 3985SOL    HW113794  14.617  12.868   8.398
 3985SOL    HW213795  14.514  12.759   8.376
 3986SOL     OW13796   2.642  13.384   7.906
 3986SOL    HW113797   2.581  13.336   7.850
 3986SOL    HW213798   2.629  13.347   7.993
 3987SOL     OW13799   1.455   6.523  10.540
 3987SOL    HW113800   1.395   6.576  10.487
 3987SOL    HW213801   1.497   6.465  10.476
 3988SOL     OW13802  10.467  13.377   8.397
 3988SOL    HW113803  10.446  13.465   8.365
 3988SOL    HW213804  10.543  13.351   8.346
 3989SOL     OW13805   8.257   9.821   7.229
 3989SOL    HW113806   8.200   9.850   7.159
 3989SOL    HW213807   8.201   9.818   7.307
 3990SOL     OW13808   3.433   4.588  10.322
 3990SOL    HW113809   3.411   4.665  10.270
 3990SOL    HW213810   3.377   4.519  10.286
 3991SOL     OW13811   5.555   2.658   3.781
 3991SOL    HW113812   5.637   2.706   3.769
 3991SOL    HW213813   5.568   2.577   3.732
 3992SOL     OW13814  10.645   2.492   1.044
 3992SOL    HW113815  10.600   2.453   0.970
 3992SOL    HW213816  10.738   2.479   1.027
 3993SOL     OW13817   3.848   3.150   6.816
 3993SOL    HW113818   3.927   3.179   6.862
 3993SOL    HW213819   3.828   3.221   6.756
 3994SOL     OW13820  12.665   1.736  12.890
 3994SOL    HW113821  12.624   1.764  12.972
 3994SOL    HW213822  12.746   1.692  12.918
 3995SOL     OW13823  11.882   1.757   2.788
 3995SOL    HW113824  11.976   1.777   2.797
 3995SOL    HW213825  11.878   1.689   2.721
 3996SOL     OW13826   9.091   7.629   7.506
 3996SOL    HW113827   9.163   7.692   7.505
 3996SOL    HW213828   9.131   7.547   7.534
 3997SOL     OW13829   6.224  13.759  13.750
 3997SOL    HW113830   6.130  13.747  13.752
 3997SOL    HW213831   6.259  13.675  13.720
 3998SOL     OW13832  12.011   4.573   7.864
 3998SOL    HW113833  11.935   4.553   7.919
 3998SOL    HW213834  12.054   4.646   7.908
 3999SOL     OW13835  12.639   2.028  11.709
 3999SOL    HW113836  12.556   2.011  11.754
 3999SOL    HW213837  12.613   2.054  11.620
 4000SOL     OW13838   9.934  12.115   6.161
 4000SOL    HW113839   9.842  12.143   6.158
 4000SOL    HW213840   9.980  12.180   6.107
 4001SOL     OW13841   1.690  12.014   1.390
 4001SOL    HW113842   1.761  12.016   1.454
 4001SOL    HW213843   1.627  12.078   1.423
 4002SOL     OW13844  10.637   1.286   8.895
 4002SOL    HW113845  10.713   1.344   8.907
 4002SOL    HW213846  10.629   1.277   8.800
 4003SOL     OW13847   6.545   2.789   8.865
 4003SOL    HW113848   6.511   2.787   8.955
 4003SOL    HW213849   6.567   2.880   8.850
 4004SOL     OW13850  12.319   4.062   5.114
 4004SOL    HW113851  12.286   4.068   5.204
 4004SOL    HW213852  12.327   4.153   5.085
 4005SOL     OW13853  10.416   6.747   0.345
 4005SOL    HW113854  10.374   6.829   0.322
 4005SOL    HW213855  10.509   6.768   0.353
 4006SOL     OW13856  10.425   4.947   4.918
 4006SOL    HW113857  10.425   5.004   4.841
 4006SOL    HW213858  10.461   4.864   4.886
 4007SOL     OW13859  12.715  11.438   0.943
 4007SOL    HW113860  12.748  11.448   1.032
 4007SOL    HW213861  12.767  11.367   0.905
 4008SOL     OW13862   3.776  10.015   9.378
 4008SOL    HW113863   3.700  10.010   9.435
 4008SOL    HW213864   3.844  10.057   9.431
 4009SOL     OW13865   9.780   4.731   9.433
 4009SOL    HW113866   9.738   4.666   9.489
 4009SOL    HW213867   9.873   4.717   9.446
 4010SOL     OW13868  12.277  14.546   1.256
 4010SOL    HW113869  12.221  14.614   1.296
 4010SOL    HW213870  12.216  14.492   1.206
 4011SOL     OW13871   5.067  13.002  12.432
 4011SOL    HW113872   4.999  12.945  12.398
 4011SOL    HW213873   5.107  12.952  12.504
 4012SOL     OW13874  14.209  11.602   9.879
 4012SOL    HW113875  14.181  11.636   9.794
 4012SOL    HW213876  14.153  11.525   9.894
 4013SOL     OW13877  10.672  10.209   2.324
 4013SOL    HW113878  10.686  10.273   2.393
 4013SOL    HW213879  10.615  10.143   2.363
 4014SOL     OW13880  11.609   1.971   5.381
 4014SOL    HW113881  11.641   1.888   5.348
 4014SOL    HW213882  11.614   1.962   5.476
 4015SOL     OW13883   4.313   2.963   0.557
 4015SOL    HW113884   4.291   2.979   0.465
 4015SOL    HW213885   4.388   2.902   0.553
 4016SOL     OW13886  12.210   1.337   9.166
 4016SOL    HW113887  12.183   1.386   9.245
 4016SOL    HW213888  12.265   1.266   9.199
 4017SOL     OW13889   8.740  10.599   9.709
 4017SOL    HW113890   8.836  10.600   9.718
 4017SOL    HW213891   8.725  10.583   9.616
 4018SOL     OW13892   5.456   3.783   5.213
 4018SOL    HW113893   5.540   3.737   5.203
 4018SOL    HW213894   5.404   3.725   5.268
 4019SOL     OW13895  13.348   4.971   9.599
 4019SOL    HW113896  13.256   4.948   9.606
 4019SOL    HW213897  13.348   5.053   9.549
 4020SOL     OW13898  13.192  12.916   7.351
 4020SOL    HW113899  13.188  12.884   7.441
 4020SOL    HW213900  13.178  13.011   7.359
 4021SOL     OW13901   4.877  13.367  10.102
 4021SOL    HW113902   4.874  13.462  10.115
 4021SOL    HW213903   4.961  13.340  10.139
 4022SOL     OW13904  14.600   4.048   5.670
 4022SOL    HW113905  14.537   4.110   5.708
 4022SOL    HW213906  14.626   3.993   5.744
 4023SOL     OW13907   2.430   6.473   6.678
 4023SOL    HW113908   2.417   6.411   6.749
 4023SOL    HW213909   2.471   6.549   6.719
 4024SOL     OW13910  14.292   5.619   1.863
 4024SOL    HW113911  14.302   5.703   1.907
 4024SOL    HW213912  14.379   5.579   1.869
 4025SOL     OW13913   9.173   5.305  14.724
 4025SOL    HW113914   9.156   5.301  14.818
 4025SOL    HW213915   9.267   5.321  14.717
 4026SOL     OW13916   9.280  12.747   2.526
 4026SOL    HW113917   9.281  12.750   2.431
 4026SOL    HW213918   9.299  12.656   2.548
 4027SOL     OW13919   3.488   9.916   2.998
 4027SOL    HW113920   3.553   9.902   2.929
 4027SOL    HW213921   3.531   9.973   3.061
 4028SOL     OW13922   8.012   4.679   4.595
 4028SOL    HW113923   8.063   4.598   4.587
 4028SOL    HW213924   8.034   4.728   4.515
 4029SOL     OW13925   2.281   0.077   9.860
 4029SOL    HW113926   2.346   0.009   9.879
 4029SOL    HW213927   2.243   0.099   9.944
 4030SOL     OW13928   9.698   8.470   9.166
 4030SOL    HW113929   9.647   8.495   9.243
 4030SOL    HW213930   9.789   8.482   9.193
 4031SOL     OW13931   1.065   8.328  10.140
 4031SOL    HW113932   1.082   8.420  10.159
 4031SOL    HW213933   1.140   8.282  10.177
 4032SOL     OW13934   6.162   4.611   7.774
 4032SOL    HW113935   6.133   4.613   7.865
 4032SOL    HW213936   6.220   4.536   7.768
 4033SOL     OW13937   6.404   7.727  10.679
 4033SOL    HW113938   6.457   7.779  10.739
 4033SOL    HW213939   6.380   7.649  10.729
 4034SOL     OW13940   0.093  11.226   0.894
 4034SOL    HW113941   0.029  11.244   0.963
 4034SOL    HW213942   0.040  11.191   0.822
 4035SOL     OW13943  12.107  13.783   6.237
 4035SOL    HW113944  12.198  13.808   6.252
 4035SOL    HW213945  12.090  13.713   6.300
 4036SOL     OW13946  14.705   9.832  13.332
 4036SOL    HW113947  14.755   9.777  13.393
 4036SOL    HW213948  14.765   9.902  13.307
 4037SOL     OW13949   9.436   8.623   3.479
 4037SOL    HW113950   9.445   8.715   3.454
 4037SOL    HW213951   9.511   8.606   3.536
 4038SOL     OW13952   1.753   7.554  13.336
 4038SOL    HW113953   1.681   7.611  13.364
 4038SOL    HW213954   1.769   7.578  13.245
 4039SOL     OW13955   1.930   5.384   9.015
 4039SOL    HW113956   1.991   5.382   8.941
 4039SOL    HW213957   1.932   5.294   9.050
 4040SOL     OW13958   7.927   8.694   9.185
 4040SOL    HW113959   7.992   8.624   9.190
 4040SOL    HW213960   7.846   8.653   9.215
 4041SOL     OW13961   1.961   8.476  12.676
 4041SOL    HW113962   2.026   8.489  12.745
 4041SOL    HW213963   1.909   8.401  12.706
 4042SOL     OW13964  10.422  10.037  14.541
 4042SOL    HW113965  10.505  10.083  14.550
 4042SOL    HW213966  10.437   9.973  14.472
 4043SOL     OW13967   1.940  11.137   7.737
 4043SOL    HW113968   1.859  11.140   7.686
 4043SOL    HW213969   1.966  11.228   7.747
 4044SOL     OW13970  12.773   5.006  13.328
 4044SOL    HW113971  12.753   4.919  13.362
 4044SOL    HW213972  12.858   4.997  13.285
 4045SOL     OW13973  14.356   8.053  12.359
 4045SOL    HW113974  14.350   8.109  12.282
 4045SOL    HW213975  14.308   8.100  12.427
 4046SOL     OW13976  12.330  12.888   4.042
 4046SOL    HW113977  12.311  12.833   3.966
 4046SOL    HW213978  12.383  12.960   4.006
 4047SOL     OW13979  12.302   6.593   4.512
 4047SOL    HW113980  12.300   6.588   4.607
 4047SOL    HW213981  12.355   6.518   4.484
 4048SOL     OW13982  10.828  12.692  13.374
 4048SOL    HW113983  10.844  12.709  13.467
 4048SOL    HW213984  10.914  12.670  13.339
 4049SOL     OW13985   2.763   9.103   7.775
 4049SOL    HW113986   2.718   9.186   7.757
 4049SOL    HW213987   2.836   9.128   7.832
 4050SOL     OW13988   5.730   6.812  10.926
 4050SOL    HW113989   5.777   6.879  10.877
 4050SOL    HW213990   5.798   6.762  10.971
 4051SOL     OW13991   8.727  10.413   4.318
 4051SOL    HW113992   8.757  10.354   4.249
 4051SOL    HW213993   8.722  10.358   4.396
 4052SOL     OW13994   7.605   0.947  11.948
 4052SOL    HW113995   7.515   0.975  11.933
 4052SOL    HW213996   7.646   1.022  11.991
 4053SOL     OW13997  11.240   6.739   5.163
 4053SOL    HW113998  11.221   6.813   5.221
 4053SOL    HW213999  11.223   6.772   5.075
 4054SOL     OW14000   5.713  13.078  11.978
 4054SOL    HW114001   5.759  12.999  11.948
 4054SOL    HW214002   5.628  13.045  12.008
 4055SOL     OW14003   5.414  12.048  13.917
 4055SOL    HW114004   5.480  12.112  13.942
 4055SOL    HW214005   5.387  12.007  14.000
 4056SOL     OW14006  12.973   4.902   4.004
 4056SOL    HW114007  13.047   4.911   3.943
 4056SOL    HW214008  12.915   4.974   3.982
 4057SOL     OW14009  13.213   5.426  13.992
 4057SOL    HW114010  13.119   5.425  14.009
 4057SOL    HW214011  13.252   5.388  14.071
 4058SOL     OW14012   2.349   5.401  13.905
 4058SOL    HW114013   2.308   5.392  13.819
 4058SOL    HW214014   2.429   5.451  13.889
 4059SOL     OW14015  10.439   7.482  12.543
 4059SOL    HW114016  10.505   7.536  12.588
 4059SOL    HW214017  10.488   7.405  12.514
 4060SOL     OW14018   7.259   8.622   6.480
 4060SOL    HW114019   7.257   8.634   6.575
 4060SOL    HW214020   7.218   8.537   6.466
 4061SOL     OW14021   5.994  11.817   1.433
 4061SOL    HW114022   5.950  11.902   1.442
 4061SOL    HW214023   6.066  11.821   1.495
 4062SOL     OW14024   6.915   6.834   6.532
 4062SOL    HW114025   7.008   6.856   6.536
 4062SOL    HW214026   6.876   6.879   6.608
 4063SOL     OW14027   0.532  10.143   9.767
 4063SOL    HW114028   0.510  10.102   9.850
 4063SOL    HW214029   0.598  10.085   9.728
 4064SOL     OW14030   6.084   3.494   1.234
 4064SOL    HW114031   6.064   3.437   1.160
 4064SOL    HW214032   6.176   3.477   1.254
 4065SOL     OW14033  12.825  10.575   3.715
 4065SOL    HW114034  12.782  10.600   3.634
 4065SOL    HW214035  12.775  10.501   3.748
 4066SOL     OW14036  14.224   8.027   5.377
 4066SOL    HW114037  14.200   8.118   5.360
 4066SOL    HW214038  14.197   8.012   5.468
 4067SOL     OW14039   0.504   7.514   9.999
 4067SOL    HW114040   0.560   7.520   9.922
 4067SOL    HW214041   0.415   7.509   9.964
 4068SOL     OW14042   5.973  11.415  13.377
 4068SOL    HW114043   5.904  11.461  13.424
 4068SOL    HW214044   5.928  11.371  13.305
 4069SOL     OW14045   8.440  12.688  13.466
 4069SOL    HW114046   8.371  12.623  13.454
 4069SOL    HW214047   8.466  12.712  13.377
 4070SOL     OW14048   8.650   5.816   8.497
 4070SOL    HW114049   8.567   5.791   8.456
 4070SOL    HW214050   8.685   5.885   8.441
 4071SOL     OW14051   1.389   3.369  12.050
 4071SOL    HW114052   1.413   3.310  11.980
 4071SOL    HW214053   1.314   3.327  12.092
 4072SOL     OW14054   6.294  10.936  10.047
 4072SOL    HW114055   6.300  10.844  10.075
 4072SOL    HW214056   6.264  10.982  10.126
 4073SOL     OW14057  11.107   7.832   5.000
 4073SOL    HW114058  11.154   7.797   4.924
 4073SOL    HW214059  11.139   7.921   5.009
 4074SOL     OW14060   9.852   3.881  12.881
 4074SOL    HW114061   9.922   3.944  12.897
 4074SOL    HW214062   9.793   3.925  12.820
 4075SOL     OW14063   4.892   6.395  12.686
 4075SOL    HW114064   4.947   6.424  12.759
 4075SOL    HW214065   4.828   6.336  12.726
 4076SOL     OW14066   4.415  12.697   9.474
 4076SOL    HW114067   4.373  12.616   9.504
 4076SOL    HW214068   4.369  12.720   9.393
 4077SOL     OW14069   7.973  11.224   8.682
 4077SOL    HW114070   7.931  11.144   8.650
 4077SOL    HW214071   7.923  11.295   8.643
 4078SOL     OW14072   2.886   8.000  12.560
 4078SOL    HW114073   2.800   7.994  12.518
 4078SOL    HW214074   2.912   7.909  12.575
 4079SOL     OW14075  11.881  13.418   2.288
 4079SOL    HW114076  11.955  13.405   2.229
 4079SOL    HW214077  11.831  13.489   2.247
 4080SOL     OW14078   8.396  14.025  14.015
 4080SOL    HW114079   8.311  14.060  13.988
 4080SOL    HW214080   8.377  13.940  14.053
 4081SOL     OW14081  10.267   4.768   5.784
 4081SOL    HW114082  10.239   4.825   5.712
 4081SOL    HW214083  10.277   4.828   5.859
 4082SOL     OW14084   6.545   1.568   8.081
 4082SOL    HW114085   6.524   1.659   8.102
 4082SOL    HW214086   6.606   1.541   8.149
 4083SOL     OW14087   0.750  12.375  10.135
 4083SOL    HW114088   0.702  12.337  10.062
 4083SOL    HW214089   0.762  12.303  10.196
 4084SOL     OW14090   2.321   4.320   2.547
 4084SOL    HW114091   2.296   4.364   2.628
 4084SOL    HW214092   2.344   4.391   2.487
 4085SOL     OW14093   8.964  12.346   6.687
 4085SOL    HW114094   8.981  12.253   6.698
 4085SOL    HW214095   8.876  12.351   6.650
 4086SOL     OW14096   2.189   6.200  12.878
 4086SOL    HW114097   2.277   6.226  12.850
 4086SOL    HW214098   2.185   6.224  12.970
 4087SOL     OW14099  14.566   6.049   1.810
 4087SOL    HW114100  14.549   6.143   1.804
 4087SOL    HW214101  14.480   6.011   1.825
 4088SOL     OW14102  12.570  13.752   1.104
 4088SOL    HW114103  12.573  13.835   1.152
 4088SOL    HW214104  12.556  13.778   1.013
 4089SOL     OW14105   1.994  12.081   1.135
 4089SOL    HW114106   2.032  12.130   1.062
 4089SOL    HW214107   1.900  12.101   1.130
 4090SOL     OW14108   1.613   4.043   0.628
 4090SOL    HW114109   1.693   4.096   0.621
 4090SOL    HW214110   1.582   4.035   0.538
 4091SOL     OW14111   0.948   6.716   0.184
 4091SOL    HW114112   0.937   6.676   0.098
 4091SOL    HW214113   0.991   6.649   0.237
 4092SOL     OW14114  10.504   9.491   4.704
 4092SOL    HW114115  10.458   9.506   4.622
 4092SOL    HW214116  10.453   9.423   4.748
 4093SOL     OW14117   5.446  13.895   8.204
 4093SOL    HW114118   5.465  13.986   8.181
 4093SOL    HW214119   5.501  13.844   8.145
 4094SOL     OW14120   2.628  11.682  13.318
 4094SOL    HW114121   2.597  11.726  13.239
 4094SOL    HW214122   2.559  11.695  13.382
 4095SOL     OW14123   8.373   4.403   4.747
 4095SOL    HW114124   8.466   4.393   4.764
 4095SOL    HW214125   8.331   4.377   4.829
 4096SOL     OW14126   7.031  14.191  12.435
 4096SOL    HW114127   7.041  14.098  12.457
 4096SOL    HW214128   7.071  14.199  12.348
 4097SOL     OW14129   8.216  12.293   5.474
 4097SOL    HW114130   8.208  12.198   5.472
 4097SOL    HW214131   8.131  12.324   5.505
 4098SOL     OW14132  12.020   1.966  11.439
 4098SOL    HW114133  12.017   2.001  11.350
 4098SOL    HW214134  12.002   1.873  11.430
 4099SOL     OW14135   5.645   0.956  10.574
 4099SOL    HW114136   5.647   0.886  10.640
 4099SOL    HW214137   5.558   0.995  10.584
 4100SOL     OW14138  11.011  11.500   1.875
 4100SOL    HW114139  10.948  11.427   1.878
 4100SOL    HW214140  10.959  11.576   1.848
 4101SOL     OW14141  10.023  14.685  11.228
 4101SOL    HW114142   9.928  14.677  11.221
 4101SOL    HW214143  10.056  14.597  11.209
 4102SOL     OW14144  12.229   5.609   0.186
 4102SOL    HW114145  12.319   5.632   0.209
 4102SOL    HW214146  12.190   5.580   0.269
 4103SOL     OW14147   3.662   1.075   8.765
 4103SOL    HW114148   3.600   1.146   8.780
 4103SOL    HW214149   3.679   1.038   8.851
 4104SOL     OW14150   9.937   9.339  12.651
 4104SOL    HW114151   9.920   9.391  12.729
 4104SOL    HW214152   9.906   9.394  12.579
 4105SOL     OW14153   5.901   6.810   3.352
 4105SOL    HW114154   5.927   6.723   3.381
 4105SOL    HW214155   5.835   6.794   3.284
 4106SOL     OW14156   2.678   4.416   4.972
 4106SOL    HW114157   2.614   4.418   4.901
 4106SOL    HW214158   2.755   4.461   4.936
 4107SOL     OW14159  11.685   1.829   2.967
 4107SOL    HW114160  11.660   1.918   2.941
 4107SOL    HW214161  11.758   1.807   2.908
 4108SOL     OW14162   0.349   1.876   7.513
 4108SOL    HW114163   0.380   1.815   7.579
 4108SOL    HW214164   0.400   1.855   7.434
 4109SOL     OW14165   2.076   4.655   2.924
 4109SOL    HW114166   2.098   4.690   3.010
 4109SOL    HW214167   2.137   4.582   2.912
 4110SOL     OW14168   4.053   7.229  12.391
 4110SOL    HW114169   4.055   7.243  12.296
 4110SOL    HW214170   3.988   7.160  12.404
 4111SOL     OW14171   1.800   3.939   7.095
 4111SOL    HW114172   1.794   3.924   7.189
 4111SOL    HW214173   1.858   4.015   7.086
 4112SOL     OW14174   4.800   1.366  14.327
 4112SOL    HW114175   4.846   1.404  14.252
 4112SOL    HW214176   4.769   1.442  14.377
 4113SOL     OW14177   0.109   6.192   5.472
 4113SOL    HW114178   0.074   6.122   5.417
 4113SOL    HW214179   0.188   6.154   5.511
 4114SOL     OW14180  14.076  14.001   0.476
 4114SOL    HW114181  14.005  13.942   0.452
 4114SOL    HW214182  14.033  14.085   0.490
 4115SOL     OW14183   0.097   8.883  11.672
 4115SOL    HW114184   0.013   8.881  11.718
 4115SOL    HW214185   0.153   8.938  11.728
 4116SOL     OW14186   6.941   8.781  14.713
 4116SOL    HW114187   6.889   8.778  14.793
 4116SOL    HW214188   7.025   8.743  14.737
 4117SOL     OW14189   9.556   6.599  10.056
 4117SOL    HW114190   9.540   6.563  10.144
 4117SOL    HW214191   9.648   6.622  10.056
 4118SOL     OW14192   0.665   6.117   9.742
 4118SOL    HW114193   0.757   6.103   9.721
 4118SOL    HW214194   0.619   6.101   9.659
 4119SOL     OW14195   8.538   8.130  14.144
 4119SOL    HW114196   8.485   8.207  14.123
 4119SOL    HW214197   8.575   8.103  14.060
 4120SOL     OW14198   5.660  13.949  10.202
 4120SOL    HW114199   5.642  13.960  10.295
 4120SOL    HW214200   5.669  14.038  10.168
 4121SOL     OW14201   0.965   1.219   0.208
 4121SOL    HW114202   0.985   1.216   0.301
 4121SOL    HW214203   0.874   1.247   0.204
 4122SOL     OW14204   7.381   8.160   1.250
 4122SOL    HW114205   7.313   8.141   1.185
 4122SOL    HW214206   7.361   8.101   1.323
 4123SOL     OW14207  10.959   7.327  12.197
 4123SOL    HW114208  10.969   7.405  12.252
 4123SOL    HW214209  10.970   7.253  12.258
 4124SOL     OW14210   4.309   1.136  11.341
 4124SOL    HW114211   4.337   1.055  11.298
 4124SOL    HW214212   4.239   1.109  11.400
 4125SOL     OW14213  12.178   7.571   6.094
 4125SOL    HW114214  12.125   7.638   6.052
 4125SOL    HW214215  12.183   7.598   6.186
 4126SOL     OW14216   2.134  13.211   3.339
 4126SOL    HW114217   2.101  13.231   3.251
 4126SOL    HW214218   2.125  13.116   3.347
 4127SOL     OW14219   9.563   5.678  13.716
 4127SOL    HW114220   9.631   5.732  13.675
 4127SOL    HW214221   9.481   5.721  13.692
 4128SOL     OW14222   7.500   2.737  14.062
 4128SOL    HW114223   7.462   2.820  14.033
 4128SOL    HW214224   7.472   2.728  14.153
 4129SOL     OW14225  11.871  13.268  13.858
 4129SOL    HW114226  11.834  13.346  13.899
 4129SOL    HW214227  11.835  13.195  13.908
 4130SOL     OW14228   9.533   0.338   4.307
 4130SOL    HW114229   9.597   0.408   4.319
 4130SOL    HW214230   9.570   0.264   4.354
 4131SOL     OW14231  12.851   6.637   1.647
 4131SOL    HW114232  12.896   6.601   1.724
 4131SOL    HW214233  12.763   6.600   1.651
 4132SOL     OW14234   4.207   9.272  11.230
 4132SOL    HW114235   4.298   9.250  11.250
 4132SOL    HW214236   4.157   9.242  11.306
 4133SOL     OW14237   5.395   0.623   2.849
 4133SOL    HW114238   5.419   0.644   2.939
 4133SOL    HW214239   5.299   0.619   2.850
 4134SOL     OW14240  11.955   7.358   7.838
 4134SOL    HW114241  12.016   7.289   7.862
 4134SOL    HW214242  11.956   7.419   7.912
 4135SOL     OW14243   6.904   3.749  12.964
 4135SOL    HW114244   6.939   3.720  13.049
 4135SOL    HW214245   6.945   3.691  12.900
 4136SOL     OW14246   8.526   9.845   3.911
 4136SOL    HW114247   8.563   9.764   3.875
 4136SOL    HW214248   8.485   9.888   3.836
 4137SOL     OW14249  14.448  13.523   9.758
 4137SOL    HW114250  14.462  13.439   9.801
 4137SOL    HW214251  14.536  13.554   9.737
 4138SOL     OW14252   4.760   7.984   0.567
 4138SOL    HW114253   4.739   8.071   0.601
 4138SOL    HW214254   4.702   7.925   0.614
 4139SOL     OW14255   1.822   6.767   6.131
 4139SOL    HW114256   1.785   6.813   6.206
 4139SOL    HW214257   1.881   6.832   6.091
 4140SOL     OW14258  13.708   3.148   0.362
 4140SOL    HW114259  13.622   3.108   0.350
 4140SOL    HW214260  13.712   3.218   0.297
 4141SOL     OW14261   8.606   9.750   6.456
 4141SOL    HW114262   8.582   9.771   6.546
 4141SOL    HW214263   8.538   9.690   6.426
 4142SOL     OW14264  13.889   6.899  14.409
 4142SOL    HW114265  13.848   6.938  14.332
 4142SOL    HW214266  13.815   6.871  14.464
 4143SOL     OW14267   0.417   1.485   2.074
 4143SOL    HW114268   0.370   1.551   2.126
 4143SOL    HW214269   0.351   1.418   2.057
 4144SOL     OW14270   4.524   8.229   3.966
 4144SOL    HW114271   4.616   8.251   3.956
 4144SOL    HW214272   4.495   8.204   3.878
 4145SOL     OW14273   2.433   9.050  10.434
 4145SOL    HW114274   2.362   8.988  10.452
 4145SOL    HW214275   2.510   9.012  10.477
 4146SOL     OW14276   8.949   4.807   3.614
 4146SOL    HW114277   9.029   4.755   3.617
 4146SOL    HW214278   8.909   4.795   3.700
 4147SOL     OW14279  11.714   2.409  10.539
 4147SOL    HW114280  11.785   2.452  10.490
 4147SOL    HW214281  11.759   2.359  10.606
 4148SOL     OW14282   5.371   4.085   3.266
 4148SOL    HW114283   5.399   4.088   3.175
 4148SOL    HW214284   5.452   4.088   3.317
 4149SOL     OW14285  10.296  11.309  13.962
 4149SOL    HW114286  10.280  11.323  14.055
 4149SOL    HW214287  10.209  11.312  13.922
 4150SOL     OW14288  13.870   3.552   8.042
 4150SOL    HW114289  13.962   3.578   8.042
 4150SOL    HW214290  13.835   3.587   7.961
 4151SOL     OW14291  12.794   4.629   3.077
 4151SOL    HW114292  12.762   4.602   2.991
 4151SOL    HW214293  12.804   4.724   3.070
 4152SOL     OW14294  12.293   2.093   8.240
 4152SOL    HW114295  12.366   2.106   8.180
 4152SOL    HW214296  12.218   2.132   8.196
 4153SOL     OW14297  13.924   3.478   1.782
 4153SOL    HW114298  13.885   3.561   1.808
 4153SOL    HW214299  13.850   3.423   1.758
 4154SOL     OW14300   0.605  14.868   1.584
 4154SOL    HW114301   0.595   0.082   1.621
 4154SOL    HW214302   0.525  14.855   1.533
 4155SOL     OW14303  11.959   6.269  13.560
 4155SOL    HW114304  11.968   6.175  13.575
 4155SOL    HW214305  11.866   6.288  13.576
 4156SOL     OW14306   2.982  13.118   0.289
 4156SOL    HW114307   2.910  13.181   0.289
 4156SOL    HW214308   3.052  13.163   0.337
 4157SOL     OW14309  13.347   0.142   8.400
 4157SOL    HW114310  13.353   0.058   8.446
 4157SOL    HW214311  13.253   0.158   8.391
 4158SOL     OW14312   1.067   7.254   3.204
 4158SOL    HW114313   0.973   7.254   3.218
 4158SOL    HW214314   1.094   7.164   3.219
 4159SOL     OW14315   4.240  12.258  10.894
 4159SOL    HW114316   4.317  12.273  10.950
 4159SOL    HW214317   4.166  12.288  10.946
 4160SOL     OW14318  11.772  12.851  11.484
 4160SOL    HW114319  11.719  12.861  11.406
 4160SOL    HW214320  11.822  12.932  11.490
 4161SOL     OW14321   8.086   2.698   3.535
 4161SOL    HW114322   8.052   2.784   3.558
 4161SOL    HW214323   8.073   2.691   3.441
 4162SOL     OW14324   6.924   0.424   2.290
 4162SOL    HW114325   6.963   0.437   2.204
 4162SOL    HW214326   6.950   0.502   2.340
 4163SOL     OW14327  10.834   4.830  14.165
 4163SOL    HW114328  10.756   4.800  14.117
 4163SOL    HW214329  10.908   4.805  14.110
 4164SOL     OW14330   5.450   1.908   7.389
 4164SOL    HW114331   5.434   1.982   7.447
 4164SOL    HW214332   5.545   1.909   7.375
 4165SOL     OW14333   8.963   3.402  12.154
 4165SOL    HW114334   8.960   3.398  12.058
 4165SOL    HW214335   9.050   3.437  12.173
 4166SOL     OW14336  10.050   4.328   7.445
 4166SOL    HW114337   9.970   4.311   7.394
 4166SOL    HW214338  10.019   4.357   7.530
 4167SOL     OW14339  11.869   9.692  13.387
 4167SOL    HW114340  11.915   9.745  13.322
 4167SOL    HW214341  11.884   9.601  13.359
 4168SOL     OW14342   4.259  12.054   1.183
 4168SOL    HW114343   4.329  12.011   1.232
 4168SOL    HW214344   4.206  11.981   1.149
 4169SOL     OW14345  12.823   4.384   9.653
 4169SOL    HW114346  12.770   4.370   9.575
 4169SOL    HW214347  12.905   4.340   9.634
 4170SOL     OW14348   9.016  12.403   4.005
 4170SOL    HW114349   9.111  12.406   4.014
 4170SOL    HW214350   8.983  12.452   4.081
 4171SOL     OW14351   4.013   1.647   6.385
 4171SOL    HW114352   3.936   1.686   6.426
 4171SOL    HW214353   4.086   1.702   6.414
 4172SOL     OW14354   4.260   7.511   9.649
 4172SOL    HW114355   4.247   7.467   9.565
 4172SOL    HW214356   4.343   7.557   9.639
 4173SOL     OW14357   3.823  10.938  14.613
 4173SOL    HW114358   3.829  10.845  14.634
 4173SOL    HW214359   3.730  10.959  14.625
 4174SOL     OW14360   2.956  11.143  12.030
 4174SOL    HW114361   3.013  11.199  11.977
 4174SOL    HW214362   3.006  11.126  12.110
 4175SOL     OW14363  11.493   0.663   4.617
 4175SOL    HW114364  11.495   0.572   4.647
 4175SOL    HW214365  11.538   0.711   4.686
 4176SOL     OW14366   6.212  10.832   1.336
 4176SOL    HW114367   6.251  10.817   1.250
 4176SOL    HW214368   6.259  10.908   1.371
 4177SOL     OW14369   1.226  13.542   1.533
 4177SOL    HW114370   1.200  13.476   1.596
 4177SOL    HW214371   1.272  13.494   1.465
 4178SOL     OW14372  14.113   5.839   5.685
 4178SOL    HW114373  14.188   5.779   5.686
 4178SOL    HW214374  14.053   5.800   5.622
 4179SOL     OW14375  10.229  13.196   2.113
 4179SOL    HW114376  10.290  13.202   2.186
 4179SOL    HW214377  10.171  13.124   2.136
 4180SOL     OW14378  10.233  12.322  12.380
 4180SOL    HW114379  10.282  12.276  12.448
 4180SOL    HW214380  10.294  12.389  12.348
 4181SOL     OW14381   3.963  10.647   8.316
 4181SOL    HW114382   3.941  10.554   8.305
 4181SOL    HW214383   3.930  10.669   8.403
 4182SOL     OW14384  10.415  10.059   0.995
 4182SOL    HW114385  10.324  10.043   1.017
 4182SOL    HW214386  10.463  10.041   1.076
 4183SOL     OW14387   6.448   9.928   6.448
 4183SOL    HW114388   6.418   9.953   6.361
 4183SOL    HW214389   6.476  10.010   6.489
 4184SOL     OW14390   5.154   5.312  14.516
 4184SOL    HW114391   5.069   5.345  14.544
 4184SOL    HW214392   5.214   5.337  14.587
 4185SOL     OW14393   0.141   1.925  11.948
 4185SOL    HW114394   0.100   2.008  11.923
 4185SOL    HW214395   0.177   1.942  12.035
 4186SOL     OW14396  12.905  13.278   3.229
 4186SOL    HW114397  12.949  13.363   3.235
 4186SOL    HW214398  12.955  13.231   3.162
 4187SOL     OW14399  14.694  13.428   5.147
 4187SOL    HW114400  14.659  13.472   5.070
 4187SOL    HW214401  14.721  13.500   5.205
 4188SOL     OW14402   1.448   6.896   3.782
 4188SOL    HW114403   1.528   6.935   3.745
 4188SOL    HW214404   1.438   6.939   3.867
 4189SOL     OW14405   6.145   1.670   7.515
 4189SOL    HW114406   6.237   1.699   7.517
 4189SOL    HW214407   6.150   1.575   7.529
 4190SOL     OW14408  12.729   6.266  11.543
 4190SOL    HW114409  12.701   6.273  11.634
 4190SOL    HW214410  12.825   6.268  11.547
 4191SOL     OW14411  14.606  10.070   8.680
 4191SOL    HW114412  14.616   9.992   8.626
 4191SOL    HW214413  14.528  10.113   8.644
 4192SOL     OW14414   3.226  13.564   2.944
 4192SOL    HW114415   3.173  13.634   2.983
 4192SOL    HW214416   3.273  13.607   2.872
 4193SOL     OW14417   4.356   0.931   1.683
 4193SOL    HW114418   4.403   0.953   1.603
 4193SOL    HW214419   4.362   1.010   1.736
 4194SOL     OW14420   2.978   9.124   7.178
 4194SOL    HW114421   3.026   9.176   7.114
 4194SOL    HW214422   2.969   9.038   7.137
 4195SOL     OW14423   1.970   6.359  11.205
 4195SOL    HW114424   1.990   6.452  11.214
 4195SOL    HW214425   1.964   6.327  11.295
 4196SOL     OW14426  12.632   3.041   9.510
 4196SOL    HW114427  12.644   3.097   9.587
 4196SOL    HW214428  12.721   3.027   9.477
 4197SOL     OW14429   0.935   9.231   2.959
 4197SOL    HW114430   0.935   9.209   2.866
 4197SOL    HW214431   0.897   9.154   3.002
 4198SOL     OW14432   8.861  13.047  13.889
 4198SOL    HW114433   8.813  13.025  13.808
 4198SOL    HW214434   8.901  12.964  13.915
 4199SOL     OW14435   5.432   9.625   0.336
 4199SOL    HW114436   5.481   9.707   0.328
 4199SOL    HW214437   5.360   9.634   0.274
 4200SOL     OW14438   0.222   3.014  11.776
 4200SOL    HW114439   0.266   2.990  11.694
 4200SOL    HW214440   0.136   2.972  11.769
 4201SOL     OW14441   3.959   4.075   7.573
 4201SOL    HW114442   3.992   4.089   7.662
 4201SOL    HW214443   3.890   4.010   7.583
 4202SOL     OW14444   1.515   8.541   6.624
 4202SOL    HW114445   1.502   8.453   6.588
 4202SOL    HW214446   1.494   8.600   6.551
 4203SOL     OW14447   3.286   9.597  14.528
 4203SOL    HW114448   3.263   9.578  14.437
 4203SOL    HW214449   3.229   9.670  14.553
 4204SOL     OW14450   6.487  12.556  12.577
 4204SOL    HW114451   6.420  12.508  12.626
 4204SOL    HW214452   6.491  12.642  12.620
 4205SOL     OW14453   3.438   3.313   8.148
 4205SOL    HW114454   3.384   3.374   8.199
 4205SOL    HW214455   3.380   3.282   8.078
 4206SOL     OW14456  11.116   5.790   4.688
 4206SOL    HW114457  11.160   5.850   4.628
 4206SOL    HW214458  11.061   5.847   4.742
 4207SOL     OW14459   9.349   0.901  14.241
 4207SOL    HW114460   9.261   0.927  14.216
 4207SOL    HW214461   9.342   0.878  14.334
 4208SOL     OW14462  13.154   3.997   7.187
 4208SOL    HW114463  13.087   4.061   7.166
 4208SOL    HW214464  13.218   4.045   7.240
 4209SOL     OW14465   9.321  12.436   9.960
 4209SOL    HW114466   9.271  12.499  10.012
 4209SOL    HW214467   9.279  12.438   9.874
 4210SOL     OW14468   5.375  11.487  11.527
 4210SOL    HW114469   5.312  11.531  11.470
 4210SOL    HW214470   5.421  11.426  11.470
 4211SOL     OW14471   8.306  13.746   9.306
 4211SOL    HW114472   8.365  13.680   9.271
 4211SOL    HW214473   8.330  13.754   9.399
 4212SOL     OW14474  12.469  12.208  13.631
 4212SOL    HW114475  12.381  12.233  13.661
 4212SOL    HW214476  12.509  12.166  13.707
 4213SOL     OW14477   2.887   3.744  13.829
 4213SOL    HW114478   2.836   3.817  13.865
 4213SOL    HW214479   2.874   3.750  13.734
 4214SOL     OW14480  10.723   0.843  11.027
 4214SOL    HW114481  10.752   0.762  11.069
 4214SOL    HW214482  10.801   0.877  10.983
 4215SOL     OW14483  11.848   4.707  12.550
 4215SOL    HW114484  11.766   4.699  12.598
 4215SOL    HW214485  11.836   4.784  12.495
 4216SOL     OW14486  14.649   4.756  13.591
 4216SOL    HW114487  14.707   4.691  13.631
 4216SOL    HW214488  14.699   4.837  13.592
 4217SOL     OW14489   8.795   4.388   8.681
 4217SOL    HW114490   8.707   4.364   8.652
 4217SOL    HW214491   8.800   4.482   8.666
 4218SOL     OW14492  13.188   7.904   1.032
 4218SOL    HW114493  13.108   7.941   0.995
 4218SOL    HW214494  13.257   7.962   0.999
 4219SOL     OW14495   7.487   4.051   7.228
 4219SOL    HW114496   7.403   4.098   7.225
 4219SOL    HW214497   7.551   4.119   7.251
 4220SOL     OW14498   1.571  10.129   4.166
 4220SOL    HW114499   1.591  10.053   4.221
 4220SOL    HW214500   1.487  10.109   4.126
 4221SOL     OW14501   0.126  13.004   6.969
 4221SOL    HW114502   0.104  13.037   6.882
 4221SOL    HW214503   0.059  13.041   7.027
 4222SOL     OW14504  13.551   0.133   0.558
 4222SOL    HW114505  13.504   0.138   0.641
 4222SOL    HW214506  13.636   0.094   0.580
 4223SOL     OW14507   8.413   1.581   3.003
 4223SOL    HW114508   8.387   1.526   2.930
 4223SOL    HW214509   8.347   1.650   3.006
 4224SOL     OW14510   0.960  13.796  12.867
 4224SOL    HW114511   1.008  13.836  12.939
 4224SOL    HW214512   1.012  13.815  12.790
 4225SOL     OW14513   2.058  12.749   3.817
 4225SOL    HW114514   2.119  12.818   3.790
 4225SOL    HW214515   1.980  12.796   3.846
 4226SOL     OW14516   8.590   9.104   2.260
 4226SOL    HW114517   8.644   9.182   2.249
 4226SOL    HW214518   8.502   9.132   2.238
 4227SOL     OW14519  14.678   3.391   6.013
 4227SOL    HW114520  14.595   3.345   5.998
 4227SOL    HW214521  14.708   3.416   5.926
 4228SOL     OW14522   5.289   5.124  12.218
 4228SOL    HW114523   5.334   5.138  12.135
 4228SOL    HW214524   5.337   5.177  12.281
 4229SOL     OW14525  13.458   2.902  13.158
 4229SOL    HW114526  13.404   2.981  13.162
 4229SOL    HW214527  13.476   2.890  13.065
 4230SOL     OW14528   9.384  10.366   9.819
 4230SOL    HW114529   9.442  10.437   9.790
 4230SOL    HW214530   9.438  10.287   9.813
 4231SOL     OW14531   0.112   2.201   9.398
 4231SOL    HW114532   0.146   2.259   9.330
 4231SOL    HW214533   0.074   2.128   9.351
 4232SOL     OW14534   7.773   4.620   0.978
 4232SOL    HW114535   7.728   4.567   0.912
 4232SOL    HW214536   7.769   4.709   0.944
 4233SOL     OW14537   0.342  11.865   1.748
 4233SOL    HW114538   0.395  11.785   1.755
 4233SOL    HW214539   0.252  11.835   1.767
 4234SOL     OW14540   0.462   4.530  11.979
 4234SOL    HW114541   0.524   4.579  11.925
 4234SOL    HW214542   0.517   4.479  12.039
 4235SOL     OW14543   5.075   1.441  11.285
 4235SOL    HW114544   5.091   1.357  11.240
 4235SOL    HW214545   5.023   1.417  11.362
 4236SOL     OW14546   1.474   7.707   0.903
 4236SOL    HW114547   1.427   7.728   0.822
 4236SOL    HW214548   1.514   7.791   0.929
 4237SOL     OW14549  12.309  11.628   4.551
 4237SOL    HW114550  12.362  11.549   4.551
 4237SOL    HW214551  12.220  11.597   4.532
 4238SOL     OW14552   0.594   2.231   9.206
 4238SOL    HW114553   0.625   2.316   9.237
 4238SOL    HW214554   0.598   2.237   9.111
 4239SOL     OW14555   0.074   7.849   3.286
 4239SOL    HW114556   0.141   7.831   3.220
 4239SOL    HW214557   0.109   7.812   3.367
 4240SOL     OW14558  12.884   1.119  13.739
 4240SOL    HW114559  12.812   1.057  13.729
 4240SOL    HW214560  12.857   1.196  13.688
 4241SOL     OW14561   7.460   2.169  11.085
 4241SOL    HW114562   7.477   2.199  10.995
 4241SOL    HW214563   7.483   2.076  11.084
 4242SOL     OW14564   3.438   9.616  10.988
 4242SOL    HW114565   3.405   9.526  10.991
 4242SOL    HW214566   3.405   9.651  10.905
 4243SOL     OW14567   4.844   6.485  12.000
 4243SOL    HW114568   4.885   6.399  12.011
 4243SOL    HW214569   4.881   6.539  12.070
 4244SOL     OW14570  13.751  10.595  11.003
 4244SOL    HW114571  13.830  10.542  10.994
 4244SOL    HW214572  13.768  10.672  10.948
 4245SOL     OW14573   1.953   2.240   0.884
 4245SOL    HW114574   1.911   2.254   0.969
 4245SOL    HW214575   1.912   2.162   0.849
 4246SOL     OW14576   6.474   3.958  10.674
 4246SOL    HW114577   6.427   4.025  10.724
 4246SOL    HW214578   6.466   3.878  10.726
 4247SOL     OW14579  13.661   5.247   6.233
 4247SOL    HW114580  13.714   5.194   6.173
 4247SOL    HW214581  13.694   5.224   6.320
 4248SOL     OW14582  11.144  11.878   7.278
 4248SOL    HW114583  11.145  11.836   7.192
 4248SOL    HW214584  11.137  11.972   7.259
 4249SOL     OW14585   6.598   5.192   3.616
 4249SOL    HW114586   6.670   5.240   3.657
 4249SOL    HW214587   6.566   5.251   3.548
 4250SOL     OW14588   2.696   2.919   3.455
 4250SOL    HW114589   2.679   2.825   3.457
 4250SOL    HW214590   2.667   2.947   3.368
 4251SOL     OW14591   8.417   1.176   3.791
 4251SOL    HW114592   8.410   1.206   3.701
 4251SOL    HW214593   8.384   1.086   3.789
 4252SOL     OW14594   1.769  10.067   3.614
 4252SOL    HW114595   1.698  10.130   3.602
 4252SOL    HW214596   1.824  10.105   3.682
 4253SOL     OW14597  13.440  14.308   5.840
 4253SOL    HW114598  13.361  14.362   5.848
 4253SOL    HW214599  13.511  14.372   5.825
 4254SOL     OW14600   4.364   4.820   2.027
 4254SOL    HW114601   4.413   4.788   2.103
 4254SOL    HW214602   4.274   4.793   2.045
 4255SOL     OW14603   6.805   1.678   2.015
 4255SOL    HW114604   6.855   1.662   2.095
 4255SOL    HW214605   6.729   1.620   2.022
 4256SOL     OW14606  10.346   4.279   4.540
 4256SOL    HW114607  10.305   4.208   4.491
 4256SOL    HW214608  10.273   4.331   4.573
 4257SOL     OW14609  10.637  11.107   6.530
 4257SOL    HW114610  10.713  11.054   6.502
 4257SOL    HW214611  10.662  11.197   6.511
 4258SOL     OW14612  10.486   2.991  10.566
 4258SOL    HW114613  10.397   3.026  10.559
 4258SOL    HW214614  10.474   2.901  10.596
 4259SOL     OW14615   6.986   6.119   8.168
 4259SOL    HW114616   6.949   6.206   8.154
 4259SOL    HW214617   6.932   6.081   8.238
 4260SOL     OW14618  12.381  14.248   2.274
 4260SOL    HW114619  12.313  14.254   2.341
 4260SOL    HW214620  12.352  14.309   2.206
 4261SOL     OW14621   6.178  10.165  12.659
 4261SOL    HW114622   6.159  10.187  12.750
 4261SOL    HW214623   6.116  10.095  12.637
 4262SOL     OW14624  12.660   0.176   0.929
 4262SOL    HW114625  12.733   0.224   0.891
 4262SOL    HW214626  12.645   0.103   0.868
 4263SOL     OW14627  10.468   8.034   1.727
 4263SOL    HW114628  10.402   8.065   1.790
 4263SOL    HW214629  10.509   7.960   1.771
 4264SOL     OW14630  12.777   5.395   3.927
 4264SOL    HW114631  12.689   5.415   3.958
 4264SOL    HW214632  12.764   5.343   3.848
 4265SOL     OW14633  11.441  13.951   5.650
 4265SOL    HW114634  11.450  14.001   5.569
 4265SOL    HW214635  11.386  13.876   5.626
 4266SOL     OW14636   5.538   9.233  13.484
 4266SOL    HW114637   5.460   9.265  13.440
 4266SOL    HW214638   5.611   9.268  13.432
 4267SOL     OW14639   1.057   7.767  11.268
 4267SOL    HW114640   1.054   7.851  11.312
 4267SOL    HW214641   1.026   7.784  11.179
 4268SOL     OW14642  13.570  10.964   0.330
 4268SOL    HW114643  13.615  11.005   0.256
 4268SOL    HW214644  13.596  11.015   0.406
 4269SOL     OW14645  13.693  12.931   3.981
 4269SOL    HW114646  13.739  12.847   3.987
 4269SOL    HW214647  13.731  12.973   3.904
 4270SOL     OW14648   5.186   8.120   8.129
 4270SOL    HW114649   5.134   8.128   8.049
 4270SOL    HW214650   5.215   8.029   8.130
 4271SOL     OW14651  12.058   0.237  12.203
 4271SOL    HW114652  12.065   0.244  12.108
 4271SOL    HW214653  12.023   0.321  12.231
 4272SOL     OW14654  14.563  11.907  12.943
 4272SOL    HW114655  14.565  11.811  12.943
 4272SOL    HW214656  14.646  11.933  12.903
 4273SOL     OW14657   5.072  13.042  10.468
 4273SOL    HW114658   5.123  13.056  10.548
 4273SOL    HW214659   5.128  12.987  10.413
 4274SOL     OW14660   6.085  14.729   9.677
 4274SOL    HW114661   6.067  14.635   9.675
 4274SOL    HW214662   6.009  14.769   9.634
 4275SOL     OW14663   0.045   6.250  12.549
 4275SOL    HW114664  14.870   6.168  12.565
 4275SOL    HW214665   0.137   6.224  12.549
 4276SOL     OW14666   1.589   1.500   7.344
 4276SOL    HW114667   1.614   1.572   7.401
 4276SOL    HW214668   1.539   1.441   7.401
 4277SOL     OW14669   1.675  11.735   4.218
 4277SOL    HW114670   1.718  11.686   4.148
 4277SOL    HW214671   1.649  11.818   4.177
 4278SOL     OW14672   1.295  11.454  13.505
 4278SOL    HW114673   1.366  11.437  13.566
 4278SOL    HW214674   1.254  11.368  13.491
 4279SOL     OW14675   0.348   7.558  14.735
 4279SOL    HW114676   0.331   7.534  14.644
 4279SOL    HW214677   0.261   7.571  14.773
 4280SOL     OW14678   5.939   1.808  13.840
 4280SOL    HW114679   5.859   1.778  13.797
 4280SOL    HW214680   6.000   1.825  13.768
 4281SOL     OW14681  11.098   2.410  10.727
 4281SOL    HW114682  11.051   2.493  10.735
 4281SOL    HW214683  11.135   2.411  10.640
 4282SOL     OW14684  10.421   1.507   2.068
 4282SOL    HW114685  10.394   1.532   1.980
 4282SOL    HW214686  10.516   1.504   2.064
 4283SOL     OW14687  13.926   0.959   7.437
 4283SOL    HW114688  13.983   0.983   7.510
 4283SOL    HW214689  13.840   0.994   7.461
 4284SOL     OW14690  11.432  10.098  11.932
 4284SOL    HW114691  11.523  10.098  11.963
 4284SOL    HW214692  11.398  10.184  11.957
 4285SOL     OW14693   7.952   9.428   0.132
 4285SOL    HW114694   7.862   9.417   0.161
 4285SOL    HW214695   7.980   9.339   0.108
 4286SOL     OW14696   0.099  11.729  12.100
 4286SOL    HW114697   0.062  11.763  12.182
 4286SOL    HW214698   0.137  11.645  12.124
 4287SOL     OW14699  12.519   3.300   6.592
 4287SOL    HW114700  12.535   3.216   6.549
 4287SOL    HW214701  12.438   3.331   6.554
 4288SOL     OW14702   0.013  14.472   8.902
 4288SOL    HW114703   0.090  14.524   8.881
 4288SOL    HW214704  14.837  14.469   8.820
 4289SOL     OW14705  12.526   1.573   1.784
 4289SOL    HW114706  12.576   1.608   1.858
 4289SOL    HW214707  12.510   1.481   1.807
 4290SOL     OW14708   4.124   8.113  12.281
 4290SOL    HW114709   4.032   8.133  12.264
 4290SOL    HW214710   4.171   8.193  12.259
 4291SOL     OW14711   7.519  14.642   3.135
 4291SOL    HW114712   7.583  14.703   3.171
 4291SOL    HW214713   7.453  14.697   3.093
 4292SOL     OW14714   5.421   6.050   2.269
 4292SOL    HW114715   5.516   6.057   2.279
 4292SOL    HW214716   5.394   6.135   2.234
 4293SOL     OW14717   8.378  12.295   2.055
 4293SOL    HW114718   8.298  12.342   2.078
 4293SOL    HW214719   8.429  12.295   2.136
 4294SOL     OW14720   0.041   5.958  11.972
 4294SOL    HW114721   0.039   6.014  12.049
 4294SOL    HW214722   0.125   5.976  11.930
 4295SOL     OW14723   4.731   5.643   1.431
 4295SOL    HW114724   4.644   5.684   1.429
 4295SOL    HW214725   4.726   5.573   1.365
 4296SOL     OW14726  10.152   0.315   5.304
 4296SOL    HW114727  10.091   0.297   5.376
 4296SOL    HW214728  10.151   0.234   5.252
 4297SOL     OW14729  11.418   1.820   0.805
 4297SOL    HW114730  11.495   1.779   0.844
 4297SOL    HW214731  11.445   1.911   0.790
 4298SOL     OW14732  11.738  10.372  11.220
 4298SOL    HW114733  11.813  10.417  11.260
 4298SOL    HW214734  11.776  10.318  11.151
 4299SOL     OW14735   9.061   9.360  13.808
 4299SOL    HW114736   9.089   9.354  13.900
 4299SOL    HW214737   8.998   9.432  13.807
 4300SOL     OW14738  12.704   8.784   2.452
 4300SOL    HW114739  12.679   8.866   2.411
 4300SOL    HW214740  12.625   8.730   2.449
 4301SOL     OW14741   1.125   7.795   8.089
 4301SOL    HW114742   1.095   7.788   7.999
 4301SOL    HW214743   1.146   7.888   8.100
 4302SOL     OW14744  13.424   7.504   1.544
 4302SOL    HW114745  13.454   7.490   1.454
 4302SOL    HW214746  13.330   7.485   1.541
 4303SOL     OW14747  10.660   5.302  13.315
 4303SOL    HW114748  10.705   5.219  13.295
 4303SOL    HW214749  10.673   5.313  13.409
 4304SOL     OW14750   7.211   5.139  10.562
 4304SOL    HW114751   7.261   5.146  10.480
 4304SOL    HW214752   7.263   5.080  10.617
 4305SOL     OW14753   0.557  11.483   8.295
 4305SOL    HW114754   0.561  11.527   8.211
 4305SOL    HW214755   0.497  11.537   8.348
 4306SOL     OW14756   7.301   8.979   8.469
 4306SOL    HW114757   7.367   8.916   8.500
 4306SOL    HW214758   7.335   9.008   8.384
 4307SOL     OW14759   9.409  11.514   4.890
 4307SOL    HW114760   9.326  11.559   4.880
 4307SOL    HW214761   9.434  11.529   4.982
 4308SOL     OW14762   6.154   7.724   5.233
 4308SOL    HW114763   6.177   7.675   5.154
 4308SOL    HW214764   6.161   7.660   5.304
 4309SOL     OW14765   3.097   8.416   6.174
 4309SOL    HW114766   3.051   8.383   6.097
 4309SOL    HW214767   3.189   8.398   6.157
 4310SOL     OW14768  10.942   3.419   1.774
 4310SOL    HW114769  10.967   3.504   1.737
 4310SOL    HW214770  10.866   3.391   1.723
 4311SOL     OW14771  14.804  12.248  12.534
 4311SOL    HW114772  14.850  12.328  12.559
 4311SOL    HW214773  14.717  12.257  12.573
 4312SOL     OW14774   9.010   7.537  13.770
 4312SOL    HW114775   9.016   7.632  13.784
 4312SOL    HW214776   9.098   7.505  13.791
 4313SOL     OW14777   5.597  14.525   9.294
 4313SOL    HW114778   5.519  14.526   9.350
 4313SOL    HW214779   5.662  14.576   9.342
 4314SOL     OW14780  12.961   8.334   2.162
 4314SOL    HW114781  13.022   8.270   2.197
 4314SOL    HW214782  13.012   8.414   2.154
 4315SOL     OW14783   3.293   6.589   0.352
 4315SOL    HW114784   3.270   6.531   0.425
 4315SOL    HW214785   3.223   6.654   0.350
 4316SOL     OW14786  14.827   8.817  13.404
 4316SOL    HW114787  14.871   8.855  13.480
 4316SOL    HW214788  14.765   8.885  13.376
 4317SOL     OW14789  11.350   3.726   5.041
 4317SOL    HW114790  11.319   3.725   5.131
 4317SOL    HW214791  11.298   3.659   4.996
 4318SOL     OW14792   3.719   9.479   7.964
 4318SOL    HW114793   3.806   9.509   7.987
 4318SOL    HW214794   3.734   9.416   7.893
 4319SOL     OW14795   1.217   5.918   2.715
 4319SOL    HW114796   1.200   5.956   2.629
 4319SOL    HW214797   1.151   5.849   2.725
 4320SOL     OW14798   2.241   3.176   5.791
 4320SOL    HW114799   2.186   3.133   5.725
 4320SOL    HW214800   2.181   3.197   5.862
 4321SOL     OW14801   5.699   3.635   6.637
 4321SOL    HW114802   5.794   3.647   6.644
 4321SOL    HW214803   5.690   3.554   6.586
 4322SOL     OW14804   6.974   2.227   4.899
 4322SOL    HW114805   6.906   2.202   4.836
 4322SOL    HW214806   6.927   2.251   4.978
 4323SOL     OW14807  14.332   2.784   8.799
 4323SOL    HW114808  14.237   2.790   8.792
 4323SOL    HW214809  14.353   2.695   8.772
 4324SOL     OW14810   4.860   6.765   5.499
 4324SOL    HW114811   4.831   6.712   5.425
 4324SOL    HW214812   4.891   6.846   5.459
 4325SOL     OW14813   3.388  12.260  11.544
 4325SOL    HW114814   3.323  12.252  11.475
 4325SOL    HW214815   3.429  12.345  11.528
 4326SOL     OW14816   2.481  14.093  14.193
 4326SOL    HW114817   2.490  14.006  14.153
 4326SOL    HW214818   2.555  14.143  14.159
 4327SOL     OW14819   3.017  10.226  14.424
 4327SOL    HW114820   3.060  10.297  14.377
 4327SOL    HW214821   3.081  10.155  14.424
 4328SOL     OW14822  13.398   6.864   4.126
 4328SOL    HW114823  13.416   6.958   4.125
 4328SOL    HW214824  13.356   6.847   4.042
 4329SOL     OW14825   3.440  13.121  11.491
 4329SOL    HW114826   3.351  13.119  11.527
 4329SOL    HW214827   3.479  13.201  11.526
 4330SOL     OW14828   0.679   5.338   0.030
 4330SOL    HW114829   0.645   5.281   0.099
 4330SOL    HW214830   0.723   5.279  14.842
 4331SOL     OW14831   0.812  13.314   1.615
 4331SOL    HW114832   0.725  13.349   1.635
 4331SOL    HW214833   0.846  13.373   1.547
 4332SOL     OW14834  14.077   5.986   9.632
 4332SOL    HW114835  13.997   5.939   9.609
 4332SOL    HW214836  14.145   5.919   9.633
 4333SOL     OW14837   1.674   0.666   7.020
 4333SOL    HW114838   1.729   0.641   6.945
 4333SOL    HW214839   1.704   0.611   7.092
 4334SOL     OW14840   7.095   2.115   2.820
 4334SOL    HW114841   7.188   2.139   2.813
 4334SOL    HW214842   7.048   2.196   2.804
 4335SOL     OW14843   2.522  14.258   6.605
 4335SOL    HW114844   2.521  14.162   6.614
 4335SOL    HW214845   2.430  14.283   6.612
 4336SOL     OW14846   6.175  12.757   9.575
 4336SOL    HW114847   6.265  12.789   9.577
 4336SOL    HW214848   6.181  12.670   9.534
 4337SOL     OW14849   8.488   5.208   5.356
 4337SOL    HW114850   8.432   5.137   5.388
 4337SOL    HW214851   8.445   5.288   5.388
 4338SOL     OW14852   9.765   4.295  12.174
 4338SOL    HW114853   9.769   4.384  12.139
 4338SOL    HW214854   9.795   4.239  12.102
 4339SOL     OW14855   5.684  12.167   7.037
 4339SOL    HW114856   5.621  12.171   6.965
 4339SOL    HW214857   5.655  12.092   7.089
 4340SOL     OW14858  14.698   8.649   4.517
 4340SOL    HW114859  14.714   8.578   4.579
 4340SOL    HW214860  14.681   8.605   4.434
 4341SOL     OW14861   9.354   0.138   8.512
 4341SOL    HW114862   9.446   0.113   8.499
 4341SOL    HW214863   9.347   0.227   8.477
 4342SOL     OW14864  13.261  14.339  12.141
 4342SOL    HW114865  13.196  14.279  12.177
 4342SOL    HW214866  13.259  14.324  12.047
 4343SOL     OW14867   6.153   9.813  10.922
 4343SOL    HW114868   6.150   9.763  11.003
 4343SOL    HW214869   6.247   9.819  10.901
 4344SOL     OW14870  11.435   8.809   8.342
 4344SOL    HW114871  11.506   8.867   8.314
 4344SOL    HW214872  11.379   8.802   8.264
 4345SOL     OW14873   4.438  12.440  14.339
 4345SOL    HW114874   4.526  12.420  14.371
 4345SOL    HW214875   4.451  12.493  14.261
 4346SOL     OW14876  14.773   1.999   1.208
 4346SOL    HW114877  14.855   2.037   1.176
 4346SOL    HW214878  14.723   1.980   1.129
 4347SOL     OW14879   7.539  11.827   3.513
 4347SOL    HW114880   7.457  11.797   3.551
 4347SOL    HW214881   7.513  11.890   3.446
 4348SOL     OW14882  11.404   5.387   7.503
 4348SOL    HW114883  11.349   5.404   7.426
 4348SOL    HW214884  11.370   5.446   7.570
 4349SOL     OW14885   0.967  11.044  12.895
 4349SOL    HW114886   1.049  11.042  12.847
 4349SOL    HW214887   0.908  11.095  12.840
 4350SOL     OW14888  11.310   9.099   0.366
 4350SOL    HW114889  11.271   9.040   0.302
 4350SOL    HW214890  11.404   9.078   0.363
 4351SOL     OW14891   1.209  12.582   4.956
 4351SOL    HW114892   1.294  12.590   4.911
 4351SOL    HW214893   1.147  12.624   4.896
 4352SOL     OW14894  10.383   9.715   8.817
 4352SOL    HW114895  10.292   9.686   8.814
 4352SOL    HW214896  10.432   9.648   8.770
 4353SOL     OW14897  13.254   6.666   7.582
 4353SOL    HW114898  13.316   6.594   7.598
 4353SOL    HW214899  13.296   6.743   7.620
 4354SOL     OW14900   0.033  13.991  11.369
 4354SOL    HW114901  14.859  13.909  11.386
 4354SOL    HW214902   0.115  13.981  11.416
 4355SOL     OW14903   4.819  12.407  11.098
 4355SOL    HW114904   4.753  12.402  11.167
 4355SOL    HW214905   4.795  12.484  11.047
 4356SOL     OW14906   0.217   6.205  10.388
 4356SOL    HW114907   0.160   6.184  10.314
 4356SOL    HW214908   0.291   6.251  10.348
 4357SOL     OW14909   8.644  13.283  13.066
 4357SOL    HW114910   8.618  13.372  13.089
 4357SOL    HW214911   8.738  13.288  13.050
 4358SOL     OW14912   4.179  11.440  10.684
 4358SOL    HW114913   4.184  11.378  10.757
 4358SOL    HW214914   4.218  11.520  10.718
 4359SOL     OW14915  14.096   4.621  14.071
 4359SOL    HW114916  14.006   4.646  14.049
 4359SOL    HW214917  14.110   4.657  14.158
 4360SOL     OW14918   5.478   6.899  11.030
 4360SOL    HW114919   5.501   6.986  10.998
 4360SOL    HW214920   5.562   6.855  11.044
 4361SOL     OW14921  11.660   6.709   6.581
 4361SOL    HW114922  11.623   6.750   6.503
 4361SOL    HW214923  11.634   6.765   6.653
 4362SOL     OW14924   9.152   6.035   7.807
 4362SOL    HW114925   9.084   6.089   7.847
 4362SOL    HW214926   9.132   6.038   7.713
 4363SOL     OW14927   8.224   2.941  11.143
 4363SOL    HW114928   8.197   2.864  11.093
 4363SOL    HW214929   8.260   2.906  11.224
 4364SOL     OW14930  12.562   5.222   6.906
 4364SOL    HW114931  12.558   5.198   6.813
 4364SOL    HW214932  12.618   5.300   6.908
 4365SOL     OW14933   5.524   5.752   0.059
 4365SOL    HW114934   5.446   5.807   0.068
 4365SOL    HW214935   5.518   5.716  14.844
 4366SOL     OW14936   3.837  13.220   2.694
 4366SOL    HW114937   3.930  13.199   2.684
 4366SOL    HW214938   3.814  13.265   2.613
 4367SOL     OW14939   9.845   8.802   6.499
 4367SOL    HW114940   9.890   8.882   6.527
 4367SOL    HW214941   9.842   8.748   6.578
 4368SOL     OW14942   2.096   3.436   0.918
 4368SOL    HW114943   2.006   3.467   0.926
 4368SOL    HW214944   2.112   3.388   1.000
 4369SOL     OW14945  12.699   2.550   0.516
 4369SOL    HW114946  12.745   2.466   0.514
 4369SOL    HW214947  12.745   2.601   0.583
 4370SOL     OW14948   9.356   0.305   1.700
 4370SOL    HW114949   9.393   0.392   1.685
 4370SOL    HW214950   9.266   0.322   1.728
 4371SOL     OW14951   5.048  10.837   0.757
 4371SOL    HW114952   5.067  10.930   0.747
 4371SOL    HW214953   4.997  10.814   0.679
 4372SOL     OW14954  10.947  10.399   1.161
 4372SOL    HW114955  10.903  10.447   1.090
 4372SOL    HW214956  10.926  10.307   1.145
 4373SOL     OW14957   6.477  11.771  11.407
 4373SOL    HW114958   6.411  11.838  11.389
 4373SOL    HW214959   6.542  11.816  11.462
 4374SOL     OW14960   2.618   3.369   5.339
 4374SOL    HW114961   2.695   3.311   5.341
 4374SOL    HW214962   2.619   3.406   5.251
 4375SOL     OW14963  11.629  12.987   1.885
 4375SOL    HW114964  11.667  13.058   1.935
 4375SOL    HW214965  11.594  13.028   1.806
 4376SOL     OW14966  13.510   1.266   1.521
 4376SOL    HW114967  13.427   1.222   1.505
 4376SOL    HW214968  13.577   1.206   1.489
 4377SOL     OW14969  10.086  12.201  12.093
 4377SOL    HW114970  10.064  12.272  12.032
 4377SOL    HW214971  10.054  12.232  12.177
 4378SOL     OW14972   0.624   9.806   4.305
 4378SOL    HW114973   0.567   9.865   4.254
 4378SOL    HW214974   0.661   9.862   4.374
 4379SOL     OW14975  13.071   7.691  11.117
 4379SOL    HW114976  12.987   7.707  11.160
 4379SOL    HW214977  13.104   7.610  11.157
 4380SOL     OW14978   6.733  13.963   0.709
 4380SOL    HW114979   6.780  14.027   0.656
 4380SOL    HW214980   6.643  13.994   0.711
 4381SOL     OW14981   4.239   4.874   7.235
 4381SOL    HW114982   4.269   4.807   7.173
 4381SOL    HW214983   4.316   4.895   7.287
 4382SOL     OW14984  13.399  13.122  14.102
 4382SOL    HW114985  13.492  13.125  14.125
 4382SOL    HW214986  13.392  13.045  14.044
 4383SOL     OW14987   0.576   8.891  10.273
 4383SOL    HW114988   0.531   8.962  10.318
 4383SOL    HW214989   0.643   8.862  10.335
 4384SOL     OW14990  12.986   8.513  11.419
 4384SOL    HW114991  12.921   8.444  11.431
 4384SOL    HW214992  13.055   8.492  11.481
 4385SOL     OW14993  14.770   0.940  12.288
 4385SOL    HW114994  14.765   1.004  12.217
 4385SOL    HW214995  14.860   0.908  12.285
 4386SOL     OW14996   7.174  10.264   4.503
 4386SOL    HW114997   7.213  10.324   4.568
 4386SOL    HW214998   7.177  10.179   4.546
 4387SOL     OW14999   0.054   6.311   1.609
 4387SOL    HW115000   0.078   6.235   1.556
 4387SOL    HW215001  14.835   6.326   1.588
 4388SOL     OW15002  10.872  13.720   0.323
 4388SOL    HW115003  10.912  13.642   0.361
 4388SOL    HW215004  10.801  13.742   0.383
 4389SOL     OW15005   3.665   5.038   6.258
 4389SOL    HW115006   3.598   5.044   6.325
 4389SOL    HW215007   3.748   5.048   6.306
 4390SOL     OW15008   9.921   8.975   2.684
 4390SOL    HW115009   9.873   8.997   2.604
 4390SOL    HW215010   9.885   9.035   2.749
 4391SOL     OW15011   0.653  11.986   7.799
 4391SOL    HW115012   0.589  11.948   7.739
 4391SOL    HW215013   0.600  12.034   7.863
 4392SOL     OW15014   5.091   7.797   0.241
 4392SOL    HW115015   5.060   7.853   0.313
 4392SOL    HW215016   5.097   7.710   0.280
 4393SOL     OW15017  14.864   2.513  13.825
 4393SOL    HW115018   0.028   2.585  13.773
 4393SOL    HW215019  14.772   2.510  13.799
 4394SOL     OW15020  13.824  14.433   6.369
 4394SOL    HW115021  13.782  14.517   6.389
 4394SOL    HW215022  13.759  14.384   6.320
 4395SOL     OW15023   4.500  10.722   6.876
 4395SOL    HW115024   4.444  10.663   6.826
 4395SOL    HW215025   4.440  10.788   6.911
 4396SOL     OW15026  10.634   7.342   3.884
 4396SOL    HW115027  10.556   7.364   3.834
 4396SOL    HW215028  10.691   7.298   3.822
 4397SOL     OW15029   7.312   7.906   3.779
 4397SOL    HW115030   7.343   7.847   3.710
 4397SOL    HW215031   7.351   7.991   3.757
 4398SOL     OW15032   3.668   5.899   1.894
 4398SOL    HW115033   3.759   5.929   1.898
 4398SOL    HW215034   3.618   5.979   1.874
 4399SOL     OW15035   1.325  13.932   9.011
 4399SOL    HW115036   1.349  13.951   9.101
 4399SOL    HW215037   1.322  13.836   9.007
 4400SOL     OW15038  10.215   8.340   0.557
 4400SOL    HW115039  10.280   8.400   0.595
 4400SOL    HW215040  10.132   8.366   0.597
 4401SOL     OW15041  11.042   4.064   2.822
 4401SOL    HW115042  11.031   3.975   2.857
 4401SOL    HW215043  11.053   4.119   2.900
 4402SOL     OW15044   4.247   4.749   7.544
 4402SOL    HW115045   4.203   4.831   7.566
 4402SOL    HW215046   4.177   4.689   7.519
 4403SOL     OW15047  14.373   8.227   6.572
 4403SOL    HW115048  14.350   8.156   6.633
 4403SOL    HW215049  14.422   8.183   6.502
 4404SOL     OW15050  14.438   2.939   1.249
 4404SOL    HW115051  14.492   3.018   1.246
 4404SOL    HW215052  14.348   2.970   1.247
 4405SOL     OW15053  14.135  12.912  12.560
 4405SOL    HW115054  14.206  12.854  12.534
 4405SOL    HW215055  14.056  12.860  12.549
 4406SOL     OW15056   7.032  12.134  11.729
 4406SOL    HW115057   7.008  12.042  11.733
 4406SOL    HW215058   7.043  12.152  11.635
 4407SOL     OW15059   1.003   7.566   4.578
 4407SOL    HW115060   1.053   7.552   4.498
 4407SOL    HW215061   0.982   7.659   4.578
 4408SOL     OW15062  14.236   5.784   6.456
 4408SOL    HW115063  14.190   5.733   6.389
 4408SOL    HW215064  14.328   5.761   6.444
 4409SOL     OW15065  10.703   7.901   6.952
 4409SOL    HW115066  10.772   7.899   6.885
 4409SOL    HW215067  10.728   7.973   7.010
 4410SOL     OW15068   3.448  12.613   6.941
 4410SOL    HW115069   3.369  12.665   6.960
 4410SOL    HW215070   3.502  12.623   7.020
 4411SOL     OW15071  14.449  12.346   7.573
 4411SOL    HW115072  14.372  12.290   7.558
 4411SOL    HW215073  14.456  12.351   7.668
 4412SOL     OW15074  13.052   3.349   7.230
 4412SOL    HW115075  13.115   3.407   7.273
 4412SOL    HW215076  13.023   3.290   7.300
 4413SOL     OW15077  11.912   1.165  11.069
 4413SOL    HW115078  11.880   1.093  11.014
 4413SOL    HW215079  11.965   1.219  11.010
 4414SOL     OW15080  11.678  14.362   3.820
 4414SOL    HW115081  11.594  14.319   3.807
 4414SOL    HW215082  11.740  14.290   3.831
 4415SOL     OW15083  11.162   6.335  10.117
 4415SOL    HW115084  11.252   6.332  10.086
 4415SOL    HW215085  11.168   6.371  10.206
 4416SOL     OW15086   7.310   5.153   1.833
 4416SOL    HW115087   7.385   5.207   1.858
 4416SOL    HW215088   7.266   5.134   1.916
 4417SOL     OW15089   7.780   4.399   8.022
 4417SOL    HW115090   7.728   4.464   8.070
 4417SOL    HW215091   7.731   4.318   8.032
 4418SOL     OW15092   3.995  13.636   1.294
 4418SOL    HW115093   3.936  13.628   1.369
 4418SOL    HW215094   4.056  13.563   1.305
 4419SOL     OW15095   9.658   5.869   0.607
 4419SOL    HW115096   9.568   5.836   0.611
 4419SOL    HW215097   9.680   5.866   0.514
 4420SOL     OW15098  14.332  14.409  11.929
 4420SOL    HW115099  14.287  14.397  11.845
 4420SOL    HW215100  14.262  14.409  11.994
 4421SOL     OW15101   7.120   8.028   0.776
 4421SOL    HW115102   7.139   7.954   0.834
 4421SOL    HW215103   7.079   7.988   0.700
 4422SOL     OW15104   7.061  10.316   8.472
 4422SOL    HW115105   7.111  10.314   8.391
 4422SOL    HW215106   7.123  10.284   8.539
 4423SOL     OW15107   9.942  11.644  10.682
 4423SOL    HW115108   9.971  11.685  10.763
 4423SOL    HW215109  10.017  11.590  10.655
 4424SOL     OW15110  11.441   0.230   9.390
 4424SOL    HW115111  11.400   0.143   9.391
 4424SOL    HW215112  11.500   0.227   9.315
 4425SOL     OW15113   3.082   4.146   0.681
 4425SOL    HW115114   3.025   4.178   0.612
 4425SOL    HW215115   3.104   4.056   0.655
 4426SOL     OW15116   3.593   9.113   2.532
 4426SOL    HW115117   3.653   9.183   2.506
 4426SOL    HW215118   3.544   9.093   2.452
 4427SOL     OW15119   7.695  11.083   0.952
 4427SOL    HW115120   7.602  11.060   0.957
 4427SOL    HW215121   7.697  11.178   0.969
 4428SOL     OW15122   9.481   1.618  10.931
 4428SOL    HW115123   9.520   1.565  11.001
 4428SOL    HW215124   9.509   1.574  10.851
 4429SOL     OW15125  14.124   7.067   1.635
 4429SOL    HW115126  14.113   6.978   1.669
 4429SOL    HW215127  14.100   7.124   1.708
 4430SOL     OW15128   3.723   9.505   3.340
 4430SOL    HW115129   3.654   9.449   3.376
 4430SOL    HW215130   3.798   9.446   3.329
 4431SOL     OW15131  11.880   5.597   9.684
 4431SOL    HW115132  11.916   5.568   9.767
 4431SOL    HW215133  11.795   5.636   9.707
 4432SOL     OW15134  12.134  13.301   2.760
 4432SOL    HW115135  12.094  13.223   2.798
 4432SOL    HW215136  12.118  13.293   2.666
 4433SOL     OW15137   7.068   4.044   4.941
 4433SOL    HW115138   7.129   3.977   4.972
 4433SOL    HW215139   7.109   4.080   4.862
 4434SOL     OW15140   7.919   3.963   1.153
 4434SOL    HW115141   7.848   3.929   1.099
 4434SOL    HW215142   7.999   3.945   1.103
 4435SOL     OW15143   6.123  10.120   0.275
 4435SOL    HW115144   6.172  10.198   0.301
 4435SOL    HW215145   6.098  10.136   0.184
 4436SOL     OW15146   4.579  11.793   0.386
 4436SOL    HW115147   4.576  11.888   0.377
 4436SOL    HW215148   4.564  11.759   0.297
 4437SOL     OW15149  10.731   3.349   9.347
 4437SOL    HW115150  10.826   3.350   9.359
 4437SOL    HW215151  10.719   3.360   9.252
 4438SOL     OW15152   9.467   7.720   7.013
 4438SOL    HW115153   9.399   7.653   7.001
 4438SOL    HW215154   9.464   7.740   7.106
 4439SOL     OW15155   3.646   1.350   2.993
 4439SOL    HW115156   3.667   1.412   3.063
 4439SOL    HW215157   3.552   1.335   3.001
 4440SOL     OW15158   0.132  10.371  11.439
 4440SOL    HW115159   0.071  10.420  11.384
 4440SOL    HW215160   0.075  10.314  11.492
 4441SOL     OW15161  13.831  11.188  10.048
 4441SOL    HW115162  13.903  11.125  10.057
 4441SOL    HW215163  13.756  11.135  10.021
 4442SOL     OW15164  10.822   3.067   1.634
 4442SOL    HW115165  10.891   3.132   1.616
 4442SOL    HW215166  10.799   3.081   1.725
 4443SOL     OW15167   6.370  11.495  12.799
 4443SOL    HW115168   6.285  11.465  12.767
 4443SOL    HW215169   6.412  11.534  12.722
 4444SOL     OW15170   2.691   1.966   6.245
 4444SOL    HW115171   2.670   2.037   6.184
 4444SOL    HW215172   2.606   1.932   6.272
 4445SOL     OW15173  14.248  14.532   0.293
 4445SOL    HW115174  14.261  14.587   0.215
 4445SOL    HW215175  14.275  14.445   0.265
 4446SOL     OW15176  12.296   3.673  14.074
 4446SOL    HW115177  12.223   3.691  14.014
 4446SOL    HW215178  12.371   3.717  14.034
 4447SOL     OW15179  12.576   0.571  11.674
 4447SOL    HW115180  12.488   0.605  11.692
 4447SOL    HW215181  12.590   0.588  11.581
 4448SOL     OW15182   0.318   2.131  11.077
 4448SOL    HW115183   0.326   2.190  11.152
 4448SOL    HW215184   0.406   2.093  11.067
 4449SOL     OW15185  13.380  14.639   0.688
 4449SOL    HW115186  13.318  14.576   0.726
 4449SOL    HW215187  13.338  14.668   0.608
 4450SOL     OW15188  12.047  12.341   7.990
 4450SOL    HW115189  11.970  12.285   8.004
 4450SOL    HW215190  12.024  12.424   8.031
 4451SOL     OW15191   5.187   9.691   4.746
 4451SOL    HW115192   5.181   9.782   4.719
 4451SOL    HW215193   5.271   9.661   4.711
 4452SOL     OW15194   5.787   5.270   4.248
 4452SOL    HW115195   5.745   5.194   4.289
 4452SOL    HW215196   5.718   5.311   4.197
 4453SOL     OW15197   2.796  12.278   8.401
 4453SOL    HW115198   2.762  12.266   8.312
 4453SOL    HW215199   2.877  12.229   8.403
 4454SOL     OW15200   4.755   1.971  11.359
 4454SOL    HW115201   4.799   1.899  11.314
 4454SOL    HW215202   4.820   2.003  11.422
 4455SOL     OW15203   0.104   3.331   6.239
 4455SOL    HW115204   0.069   3.266   6.178
 4455SOL    HW215205   0.197   3.308   6.247
 4456SOL     OW15206   2.329  11.930   3.133
 4456SOL    HW115207   2.291  11.916   3.047
 4456SOL    HW215208   2.391  12.001   3.121
 4457SOL     OW15209  12.477  11.389   3.822
 4457SOL    HW115210  12.565  11.426   3.815
 4457SOL    HW215211  12.447  11.417   3.909
 4458SOL     OW15212   9.147  14.589   1.996
 4458SOL    HW115213   9.103  14.518   2.042
 4458SOL    HW215214   9.181  14.646   2.066
 4459SOL     OW15215   7.091   9.342  13.527
 4459SOL    HW115216   7.013   9.368  13.576
 4459SOL    HW215217   7.075   9.252  13.502
 4460SOL     OW15218   5.600  12.465   7.137
 4460SOL    HW115219   5.591  12.374   7.168
 4460SOL    HW215220   5.514  12.504   7.155
 4461SOL     OW15221  13.837   7.816  10.770
 4461SOL    HW115222  13.853   7.746  10.834
 4461SOL    HW215223  13.922   7.857  10.758
 4462SOL     OW15224  10.345   4.438  11.748
 4462SOL    HW115225  10.303   4.414  11.666
 4462SOL    HW215226  10.328   4.532  11.757
 4463SOL     OW15227   1.486  11.142   2.248
 4463SOL    HW115228   1.475  11.052   2.218
 4463SOL    HW215229   1.460  11.196   2.173
 4464SOL     OW15230  12.376  13.047   1.556
 4464SOL    HW115231  12.380  13.084   1.468
 4464SOL    HW215232  12.304  12.984   1.553
 4465SOL     OW15233  11.602   9.697   8.651
 4465SOL    HW115234  11.535   9.629   8.660
 4465SOL    HW215235  11.602   9.720   8.558
 4466SOL     OW15236   6.881  11.382   5.917
 4466SOL    HW115237   6.793  11.417   5.902
 4466SOL    HW215238   6.924  11.387   5.832
 4467SOL     OW15239   4.048   3.395  14.312
 4467SOL    HW115240   4.018   3.482  14.337
 4467SOL    HW215241   3.967   3.345  14.299
 4468SOL     OW15242   6.358  11.534  11.765
 4468SOL    HW115243   6.298  11.489  11.825
 4468SOL    HW215244   6.410  11.591  11.822
 4469SOL     OW15245   5.524   7.996   5.017
 4469SOL    HW115246   5.429   7.981   5.012
 4469SOL    HW215247   5.544   8.045   4.937
 4470SOL     OW15248  12.664   7.918   8.254
 4470SOL    HW115249  12.707   8.003   8.249
 4470SOL    HW215250  12.588   7.933   8.310
 4471SOL     OW15251  12.732   0.320   0.140
 4471SOL    HW115252  12.772   0.278   0.064
 4471SOL    HW215253  12.638   0.311   0.124
 4472SOL     OW15254   4.456   1.408   2.079
 4472SOL    HW115255   4.486   1.377   1.993
 4472SOL    HW215256   4.516   1.369   2.142
 4473SOL     OW15257   3.805   0.694  11.590
 4473SOL    HW115258   3.747   0.636  11.541
 4473SOL    HW215259   3.888   0.690  11.542
 4474SOL     OW15260  13.335  13.770   1.914
 4474SOL    HW115261  13.250  13.784   1.872
 4474SOL    HW215262  13.397  13.818   1.859
 4475SOL     OW15263   8.644   0.488  13.420
 4475SOL    HW115264   8.575   0.544  13.457
 4475SOL    HW215265   8.601   0.405  13.400
 4476SOL     OW15266   4.452   7.101   6.051
 4476SOL    HW115267   4.443   7.123   6.143
 4476SOL    HW215268   4.438   7.006   6.047
 4477SOL     OW15269   6.124   7.984   5.275
 4477SOL    HW115270   6.189   8.028   5.221
 4477SOL    HW215271   6.120   7.895   5.241
 4478SOL     OW15272  13.094  14.329   5.369
 4478SOL    HW115273  13.087  14.355   5.461
 4478SOL    HW215274  13.040  14.393   5.322
 4479SOL     OW15275   4.895   3.079   6.308
 4479SOL    HW115276   4.818   3.066   6.252
 4479SOL    HW215277   4.957   3.126   6.253
 4480SOL     OW15278   5.808   1.040   9.630
 4480SOL    HW115279   5.764   1.001   9.705
 4480SOL    HW215280   5.782   1.132   9.633
 4481SOL     OW15281  14.778   3.268   5.145
 4481SOL    HW115282  14.801   3.305   5.060
 4481SOL    HW215283  14.692   3.307   5.165
 4482SOL     OW15284   8.404   2.583   0.068
 4482SOL    HW115285   8.391   2.605  14.849
 4482SOL    HW215286   8.370   2.658   0.116
 4483SOL     OW15287   5.615   0.971  11.019
 4483SOL    HW115288   5.565   0.894  10.991
 4483SOL    HW215289   5.597   0.979  11.112
 4484SOL     OW15290   1.568   9.596   7.388
 4484SOL    HW115291   1.520   9.522   7.424
 4484SOL    HW215292   1.633   9.557   7.330
 4485SOL     OW15293  12.237   3.829   5.299
 4485SOL    HW115294  12.330   3.816   5.320
 4485SOL    HW215295  12.221   3.921   5.320
 4486SOL     OW15296   6.866  14.088   9.003
 4486SOL    HW115297   6.854  14.145   9.079
 4486SOL    HW215298   6.777  14.059   8.981
 4487SOL     OW15299   6.736   4.508   7.615
 4487SOL    HW115300   6.781   4.496   7.699
 4487SOL    HW215301   6.700   4.597   7.620
 4488SOL     OW15302  10.595   1.558  12.990
 4488SOL    HW115303  10.616   1.510  12.910
 4488SOL    HW215304  10.631   1.645  12.975
 4489SOL     OW15305   5.445   9.371  12.157
 4489SOL    HW115306   5.506   9.301  12.183
 4489SOL    HW215307   5.486   9.411  12.081
 4490SOL     OW15308  11.261   4.156   9.223
 4490SOL    HW115309  11.190   4.181   9.163
 4490SOL    HW215310  11.277   4.235   9.275
 4491SOL     OW15311  11.672   0.471   8.754
 4491SOL    HW115312  11.644   0.414   8.825
 4491SOL    HW215313  11.749   0.516   8.789
 4492SOL     OW15314  11.094  13.903   4.320
 4492SOL    HW115315  11.092  13.950   4.237
 4492SOL    HW215316  11.083  13.971   4.387
 4493SOL     OW15317   9.237  14.451  10.585
 4493SOL    HW115318   9.261  14.393  10.657
 4493SOL    HW215319   9.250  14.398  10.507
 4494SOL     OW15320   1.830  13.207   4.297
 4494SOL    HW115321   1.903  13.240   4.245
 4494SOL    HW215322   1.771  13.282   4.306
 4495SOL     OW15323  14.314   5.983   0.277
 4495SOL    HW115324  14.291   6.076   0.283
 4495SOL    HW215325  14.302   5.961   0.185
 4496SOL     OW15326  10.353   6.477  14.821
 4496SOL    HW115327  10.274   6.429  14.797
 4496SOL    HW215328  10.404   6.414   0.000
 4497SOL     OW15329   6.933   3.413   7.726
 4497SOL    HW115330   6.896   3.489   7.681
 4497SOL    HW215331   7.027   3.422   7.715
 4498SOL     OW15332   7.311  10.956  14.207
 4498SOL    HW115333   7.266  10.963  14.123
 4498SOL    HW215334   7.243  10.975  14.272
 4499SOL     OW15335   2.349   3.093  14.104
 4499SOL    HW115336   2.352   3.092  14.200
 4499SOL    HW215337   2.308   3.176  14.082
 4500SOL     OW15338  13.156   6.013   5.240
 4500SOL    HW115339  13.196   5.996   5.154
 4500SOL    HW215340  13.173   5.934   5.291
 4501SOL     OW15341  10.292   7.242  14.715
 4501SOL    HW115342  10.250   7.328  14.717
 4501SOL    HW215343  10.220   7.180  14.710
 4502SOL     OW15344   8.702   0.916  13.024
 4502SOL    HW115345   8.677   0.932  13.116
 4502SOL    HW215346   8.668   0.829  13.005
 4503SOL     OW15347  13.529   8.917   5.570
 4503SOL    HW115348  13.446   8.932   5.615
 4503SOL    HW215349  13.535   8.822   5.562
 4504SOL     OW15350   1.063   8.804   3.105
 4504SOL    HW115351   1.136   8.748   3.078
 4504SOL    HW215352   1.091   8.840   3.189
 4505SOL     OW15353  13.853   3.379   4.209
 4505SOL    HW115354  13.768   3.337   4.205
 4505SOL    HW215355  13.916   3.309   4.190
 4506SOL     OW15356   0.395   7.154   2.910
 4506SOL    HW115357   0.448   7.078   2.889
 4506SOL    HW215358   0.455   7.213   2.956
 4507SOL     OW15359   0.450   6.722   5.872
 4507SOL    HW115360   0.452   6.679   5.958
 4507SOL    HW215361   0.477   6.654   5.811
 4508SOL     OW15362   9.773  11.081   3.149
 4508SOL    HW115363   9.725  11.015   3.200
 4508SOL    HW215364   9.851  11.100   3.201
 4509SOL     OW15365  12.618   1.062  14.670
 4509SOL    HW115366  12.689   1.102  14.621
 4509SOL    HW215367  12.592   0.986  14.617
 4510SOL     OW15368   6.272   8.603   1.757
 4510SOL    HW115369   6.216   8.651   1.697
 4510SOL    HW215370   6.217   8.585   1.833
 4511SOL     OW15371  12.536   3.314   0.847
 4511SOL    HW115372  12.465   3.378   0.844
 4511SOL    HW215373  12.535   3.281   0.937
 4512SOL     OW15374  10.410  14.554   6.072
 4512SOL    HW115375  10.460  14.497   6.014
 4512SOL    HW215376  10.439  14.530   6.160
 4513SOL     OW15377  11.355   6.257   4.077
 4513SOL    HW115378  11.329   6.338   4.034
 4513SOL    HW215379  11.338   6.273   4.170
 4514SOL     OW15380  10.332  13.213   2.378
 4514SOL    HW115381  10.311  13.305   2.393
 4514SOL    HW215382  10.288  13.166   2.448
 4515SOL     OW15383   4.793   8.547   3.287
 4515SOL    HW115384   4.872   8.602   3.282
 4515SOL    HW215385   4.774   8.543   3.381
 4516SOL     OW15386   8.491   1.475  13.760
 4516SOL    HW115387   8.478   1.489  13.666
 4516SOL    HW215388   8.407   1.441  13.791
 4517SOL     OW15389   9.776  14.368  14.209
 4517SOL    HW115390   9.815  14.281  14.213
 4517SOL    HW215391   9.852  14.427  14.211
 4518SOL     OW15392   2.268   8.613   4.532
 4518SOL    HW115393   2.251   8.537   4.477
 4518SOL    HW215394   2.362   8.630   4.520
 4519SOL     OW15395  14.364   3.775   1.604
 4519SOL    HW115396  14.382   3.768   1.510
 4519SOL    HW215397  14.408   3.855   1.631
 4520SOL     OW15398   0.423  11.393  14.527
 4520SOL    HW115399   0.378  11.329  14.582
 4520SOL    HW215400   0.422  11.474  14.580
 4521SOL     OW15401   9.642   1.319  10.956
 4521SOL    HW115402   9.593   1.338  11.036
 4521SOL    HW215403   9.731   1.300  10.985
 4522SOL     OW15404   5.438  12.467   7.879
 4522SOL    HW115405   5.450  12.426   7.964
 4522SOL    HW215406   5.494  12.545   7.882
 4523SOL     OW15407   9.605  10.788   7.641
 4523SOL    HW115408   9.596  10.756   7.552
 4523SOL    HW215409   9.583  10.881   7.636
 4524SOL     OW15410  12.955   6.118   1.316
 4524SOL    HW115411  12.982   6.047   1.257
 4524SOL    HW215412  13.003   6.195   1.286
 4525SOL     OW15413   1.258   5.121   4.167
 4525SOL    HW115414   1.195   5.175   4.215
 4525SOL    HW215415   1.233   5.031   4.188
 4526SOL     OW15416  13.909   0.657   6.363
 4526SOL    HW115417  13.905   0.569   6.400
 4526SOL    HW215418  13.819   0.689   6.365
 4527SOL     OW15419   6.534   1.503   2.509
 4527SOL    HW115420   6.513   1.528   2.599
 4527SOL    HW215421   6.460   1.448   2.481
 4528SOL     OW15422   2.998   3.944   5.541
 4528SOL    HW115423   2.977   3.860   5.582
 4528SOL    HW215424   3.087   3.933   5.507
 4529SOL     OW15425  11.675   2.561   8.244
 4529SOL    HW115426  11.750   2.583   8.299
 4529SOL    HW215427  11.660   2.639   8.191
 4530SOL     OW15428   9.007  11.398   7.156
 4530SOL    HW115429   9.085  11.344   7.168
 4530SOL    HW215430   9.038  11.475   7.108
 4531SOL     OW15431  14.093   6.178   1.888
 4531SOL    HW115432  14.105   6.126   1.808
 4531SOL    HW215433  14.071   6.266   1.857
 4532SOL     OW15434   8.458   1.271   0.787
 4532SOL    HW115435   8.410   1.258   0.705
 4532SOL    HW215436   8.530   1.329   0.765
 4533SOL     OW15437   7.926  11.073   6.073
 4533SOL    HW115438   7.887  11.084   6.160
 4533SOL    HW215439   7.890  10.990   6.042
 4534SOL     OW15440  12.999  11.250   3.705
 4534SOL    HW115441  12.978  11.196   3.782
 4534SOL    HW215442  13.063  11.313   3.737
 4535SOL     OW15443   5.616   1.478  13.876
 4535SOL    HW115444   5.524   1.476  13.901
 4535SOL    HW215445   5.628   1.399  13.822
 4536SOL     OW15446   3.230   9.936   4.469
 4536SOL    HW115447   3.230   9.960   4.562
 4536SOL    HW215448   3.157   9.875   4.460
 4537SOL     OW15449  12.714   6.579   3.566
 4537SOL    HW115450  12.790   6.620   3.607
 4537SOL    HW215451  12.748   6.546   3.482
 4538SOL     OW15452   0.737   4.834  10.034
 4538SOL    HW115453   0.722   4.753   9.985
 4538SOL    HW215454   0.832   4.839  10.044
 4539SOL     OW15455   5.188  10.234  14.569
 4539SOL    HW115456   5.283  10.228  14.578
 4539SOL    HW215457   5.161  10.296  14.637
 4540SOL     OW15458  12.241   5.867   2.064
 4540SOL    HW115459  12.258   5.921   2.142
 4540SOL    HW215460  12.149   5.842   2.072
 4541SOL     OW15461   2.355  11.441   8.873
 4541SOL    HW115462   2.433  11.430   8.927
 4541SOL    HW215463   2.382  11.502   8.804
 4542SOL     OW15464   3.841   9.370   3.864
 4542SOL    HW115465   3.853   9.464   3.874
 4542SOL    HW215466   3.916   9.331   3.909
 4543SOL     OW15467   6.105   3.692   8.749
 4543SOL    HW115468   6.149   3.706   8.834
 4543SOL    HW215469   6.119   3.775   8.702
 4544SOL     OW15470   9.291   4.258   1.716
 4544SOL    HW115471   9.211   4.311   1.716
 4544SOL    HW215472   9.317   4.254   1.624
 4545SOL     OW15473   8.001   8.073  10.190
 4545SOL    HW115474   8.088   8.032  10.188
 4545SOL    HW215475   7.945   8.013  10.141
 4546SOL     OW15476   7.624   4.076  13.868
 4546SOL    HW115477   7.630   4.083  13.963
 4546SOL    HW215478   7.570   4.150  13.841
 4547SOL     OW15479   9.951   6.852   4.610
 4547SOL    HW115480   9.873   6.871   4.663
 4547SOL    HW215481   9.931   6.769   4.567
 4548SOL     OW15482   8.295   9.374  12.985
 4548SOL    HW115483   8.291   9.279  12.992
 4548SOL    HW215484   8.384   9.393  12.956
 4549SOL     OW15485   1.551   1.535   4.526
 4549SOL    HW115486   1.566   1.460   4.583
 4549SOL    HW215487   1.471   1.575   4.560
 4550SOL     OW15488   0.017  14.041   5.588
 4550SOL    HW115489  14.816  14.057   5.530
 4550SOL    HW215490   0.044  14.127   5.618
 4551SOL     OW15491   8.810   6.355  14.437
 4551SOL    HW115492   8.786   6.290  14.503
 4551SOL    HW215493   8.738   6.353  14.374
 4552SOL     OW15494   4.036   2.255  11.357
 4552SOL    HW115495   4.090   2.334  11.350
 4552SOL    HW215496   3.961   2.282  11.409
 4553SOL     OW15497  10.673  13.757  14.815
 4553SOL    HW115498  10.622  13.762  14.734
 4553SOL    HW215499  10.747  13.816  14.800
 4554SOL     OW15500   9.452   5.804   5.079
 4554SOL    HW115501   9.444   5.822   5.173
 4554SOL    HW215502   9.490   5.716   5.075
 4555SOL     OW15503  12.558  11.318  12.115
 4555SOL    HW115504  12.571  11.396  12.061
 4555SOL    HW215505  12.465  11.297  12.105
 4556SOL     OW15506  12.005   0.990   0.850
 4556SOL    HW115507  12.087   0.948   0.822
 4556SOL    HW215508  11.968   0.930   0.915
 4557SOL     OW15509  12.890   8.383  13.365
 4557SOL    HW115510  12.825   8.411  13.429
 4557SOL    HW215511  12.952   8.330  13.415
 4558SOL     OW15512   4.413   8.608  10.020
 4558SOL    HW115513   4.456   8.530  10.056
 4558SOL    HW215514   4.353   8.636  10.089
 4559SOL     OW15515   1.948   1.718  12.698
 4559SOL    HW115516   1.997   1.795  12.726
 4559SOL    HW215517   1.865   1.752  12.666
 4560SOL     OW15518   6.478  10.215   6.445
 4560SOL    HW115519   6.454  10.305   6.422
 4560SOL    HW215520   6.559  10.224   6.495
 4561SOL     OW15521   0.766   5.007   4.755
 4561SOL    HW115522   0.766   4.984   4.848
 4561SOL    HW215523   0.787   5.100   4.753
 4562SOL     OW15524  10.411   5.682   5.485
 4562SOL    HW115525  10.435   5.637   5.404
 4562SOL    HW215526  10.490   5.679   5.539
 4563SOL     OW15527  12.201  13.260   5.022
 4563SOL    HW115528  12.222  13.352   5.039
 4563SOL    HW215529  12.120  13.244   5.069
 4564SOL     OW15530   2.310  11.032   5.380
 4564SOL    HW115531   2.243  10.964   5.372
 4564SOL    HW215532   2.351  11.035   5.293
 4565SOL     OW15533   2.054   0.927   5.811
 4565SOL    HW115534   2.147   0.946   5.824
 4565SOL    HW215535   2.050   0.888   5.723
 4566SOL     OW15536   3.318   7.275  12.115
 4566SOL    HW115537   3.403   7.257  12.074
 4566SOL    HW215538   3.271   7.330  12.052
 4567SOL     OW15539  14.732  14.014   2.949
 4567SOL    HW115540  14.700  14.039   3.036
 4567SOL    HW215541  14.813  14.064   2.938
 4568SOL     OW15542   1.066  11.038  14.336
 4568SOL    HW115543   1.159  11.057  14.324
 4568SOL    HW215544   1.024  11.075  14.258
 4569SOL     OW15545  12.192  13.561   9.129
 4569SOL    HW115546  12.215  13.493   9.066
 4569SOL    HW215547  12.268  13.567   9.187
 4570SOL     OW15548  14.654  13.124  10.466
 4570SOL    HW115549  14.637  13.096  10.556
 4570SOL    HW215550  14.673  13.218  10.474
 4571SOL     OW15551  14.777  13.906   1.344
 4571SOL    HW115552  14.850  13.965   1.330
 4571SOL    HW215553  14.701  13.953   1.309
 4572SOL     OW15554  10.489  11.044   0.478
 4572SOL    HW115555  10.511  10.957   0.510
 4572SOL    HW215556  10.563  11.069   0.422
 4573SOL     OW15557   1.857   0.337  13.601
 4573SOL    HW115558   1.835   0.245  13.615
 4573SOL    HW215559   1.826   0.382  13.680
 4574SOL     OW15560   9.070   5.130   4.982
 4574SOL    HW115561   8.977   5.143   4.997
 4574SOL    HW215562   9.110   5.216   4.992
 4575SOL     OW15563   6.873   8.844   7.072
 4575SOL    HW115564   6.936   8.907   7.037
 4575SOL    HW215565   6.856   8.785   6.999
 4576SOL     OW15566   4.971   4.865   9.755
 4576SOL    HW115567   4.936   4.946   9.717
 4576SOL    HW215568   4.989   4.810   9.679
 4577SOL     OW15569   1.234   9.413   1.314
 4577SOL    HW115570   1.248   9.322   1.338
 4577SOL    HW215571   1.299   9.430   1.245
 4578SOL     OW15572  10.462  13.723   3.786
 4578SOL    HW115573  10.498  13.682   3.865
 4578SOL    HW215574  10.499  13.672   3.714
 4579SOL     OW15575  14.377   7.017   7.679
 4579SOL    HW115576  14.472   7.026   7.677
 4579SOL    HW215577  14.345   7.104   7.702
 4580SOL     OW15578   4.540  12.325   1.525
 4580SOL    HW115579   4.496  12.386   1.583
 4580SOL    HW215580   4.481  12.316   1.450
 4581SOL     OW15581   6.343   2.508  10.026
 4581SOL    HW115582   6.377   2.428  10.067
 4581SOL    HW215583   6.381   2.509   9.938
 4582SOL     OW15584   6.482   4.581   8.867
 4582SOL    HW115585   6.496   4.507   8.808
 4582SOL    HW215586   6.426   4.640   8.818
 4583SOL     OW15587   3.929   6.259   9.574
 4583SOL    HW115588   3.840   6.237   9.600
 4583SOL    HW215589   3.982   6.237   9.651
 4584SOL     OW15590  10.148   8.737   1.970
 4584SOL    HW115591  10.108   8.823   1.956
 4584SOL    HW215592  10.124   8.714   2.060
 4585SOL     OW15593  14.226   8.006   7.637
 4585SOL    HW115594  14.270   8.068   7.696
 4585SOL    HW215595  14.289   7.991   7.567
 4586SOL     OW15596   6.502   4.944   9.161
 4586SOL    HW115597   6.429   4.997   9.127
 4586SOL    HW215598   6.472   4.854   9.153
 4587SOL     OW15599   5.402  11.432   0.189
 4587SOL    HW115600   5.313  11.402   0.166
 4587SOL    HW215601   5.422  11.498   0.122
 4588SOL     OW15602   1.145   3.449   1.254
 4588SOL    HW115603   1.170   3.360   1.279
 4588SOL    HW215604   1.229   3.493   1.238
 4589SOL     OW15605   3.854  12.742   5.287
 4589SOL    HW115606   3.938  12.749   5.332
 4589SOL    HW215607   3.876  12.715   5.198
 4590SOL     OW15608   6.353  10.258   9.012
 4590SOL    HW115609   6.268  10.292   9.038
 4590SOL    HW215610   6.349  10.254   8.917
 4591SOL     OW15611   0.654  11.059   3.979
 4591SOL    HW115612   0.701  11.138   4.005
 4591SOL    HW215613   0.707  11.020   3.910
 4592SOL     OW15614  13.334  10.370   5.280
 4592SOL    HW115615  13.418  10.402   5.245
 4592SOL    HW215616  13.353  10.281   5.309
 4593SOL     OW15617  12.508   2.726   1.270
 4593SOL    HW115618  12.583   2.675   1.301
 4593SOL    HW215619  12.440   2.660   1.254
 4594SOL     OW15620   4.218   3.256  13.451
 4594SOL    HW115621   4.259   3.269  13.365
 4594SOL    HW215622   4.129   3.226  13.430
 4595SOL     OW15623  14.207  13.943   8.136
 4595SOL    HW115624  14.123  13.969   8.098
 4595SOL    HW215625  14.188  13.859   8.179
 4596SOL     OW15626   7.097  10.012   8.684
 4596SOL    HW115627   7.172  10.027   8.627
 4596SOL    HW215628   7.131  10.024   8.772
 4597SOL     OW15629   6.902   3.993   6.130
 4597SOL    HW115630   6.992   3.962   6.138
 4597SOL    HW215631   6.851   3.927   6.178
 4598SOL     OW15632   5.281   5.500   2.245
 4598SOL    HW115633   5.249   5.412   2.265
 4598SOL    HW215634   5.240   5.556   2.311
 4599SOL     OW15635  10.401   9.403  14.029
 4599SOL    HW115636  10.444   9.483  14.060
 4599SOL    HW215637  10.336   9.383  14.097
 4600SOL     OW15638  11.141  12.386   1.745
 4600SOL    HW115639  11.051  12.376   1.776
 4600SOL    HW215640  11.194  12.337   1.808
 4601SOL     OW15641  14.299   6.249   6.122
 4601SOL    HW115642  14.357   6.173   6.130
 4601SOL    HW215643  14.216   6.212   6.092
 4602SOL     OW15644  12.652   3.538  13.510
 4602SOL    HW115645  12.711   3.517  13.582
 4602SOL    HW215646  12.569   3.497  13.534
 4603SOL     OW15647   9.655   3.380  11.079
 4603SOL    HW115648   9.609   3.463  11.084
 4603SOL    HW215649   9.744   3.400  11.109
 4604SOL     OW15650   1.991  14.494   7.179
 4604SOL    HW115651   2.039  14.481   7.261
 4604SOL    HW215652   2.010  14.415   7.128
 4605SOL     OW15653   1.956   9.531   2.486
 4605SOL    HW115654   1.949   9.502   2.577
 4605SOL    HW215655   2.049   9.542   2.471
 4606SOL     OW15656   8.655   9.109   3.816
 4606SOL    HW115657   8.563   9.085   3.805
 4606SOL    HW215658   8.679   9.078   3.903
 4607SOL     OW15659  11.113  11.227  12.225
 4607SOL    HW115660  11.020  11.234  12.242
 4607SOL    HW215661  11.119  11.179  12.142
 4608SOL     OW15662   1.458  12.837  12.209
 4608SOL    HW115663   1.551  12.850  12.229
 4608SOL    HW215664   1.432  12.762  12.263
 4609SOL     OW15665  14.707   1.971   5.460
 4609SOL    HW115666  14.760   2.032   5.511
 4609SOL    HW215667  14.762   1.893   5.450
 4610SOL     OW15668   6.046   2.088   1.170
 4610SOL    HW115669   6.140   2.078   1.181
 4610SOL    HW215670   6.028   2.055   1.082
 4611SOL     OW15671  14.828   9.488   7.156
 4611SOL    HW115672  14.778   9.568   7.169
 4611SOL    HW215673  14.762   9.422   7.132
 4612SOL     OW15674  11.691   5.326   8.073
 4612SOL    HW115675  11.723   5.359   8.156
 4612SOL    HW215676  11.612   5.378   8.055
 4613SOL     OW15677   9.639   7.383   7.104
 4613SOL    HW115678   9.571   7.406   7.168
 4613SOL    HW215679   9.706   7.338   7.156
 4614SOL     OW15680  11.064  12.808  10.735
 4614SOL    HW115681  10.969  12.814  10.740
 4614SOL    HW215682  11.095  12.882  10.786
 4615SOL     OW15683   5.728   1.720   0.818
 4615SOL    HW115684   5.727   1.628   0.792
 4615SOL    HW215685   5.806   1.756   0.775
 4616SOL     OW15686   2.738   4.271  12.009
 4616SOL    HW115687   2.752   4.318  12.091
 4616SOL    HW215688   2.772   4.329  11.941
 4617SOL     OW15689  10.001   6.382  12.441
 4617SOL    HW115690  10.023   6.302  12.488
 4617SOL    HW215691   9.931   6.357  12.381
 4618SOL     OW15692   8.684  13.563   5.591
 4618SOL    HW115693   8.682  13.643   5.643
 4618SOL    HW215694   8.618  13.577   5.523
 4619SOL     OW15695   5.289   4.393   1.393
 4619SOL    HW115696   5.224   4.384   1.462
 4619SOL    HW215697   5.238   4.414   1.314
 4620SOL     OW15698   9.170   6.376   4.215
 4620SOL    HW115699   9.177   6.404   4.123
 4620SOL    HW215700   9.249   6.324   4.231
 4621SOL     OW15701   9.613  11.089  10.227
 4621SOL    HW115702   9.704  11.083  10.199
 4621SOL    HW215703   9.615  11.074  10.321
 4622SOL     OW15704   0.224   8.283  13.890
 4622SOL    HW115705   0.180   8.205  13.857
 4622SOL    HW215706   0.304   8.249  13.932
 4623SOL     OW15707  13.447  12.379   4.416
 4623SOL    HW115708  13.535  12.348   4.439
 4623SOL    HW215709  13.401  12.388   4.499
 4624SOL     OW15710   4.530  11.262  13.374
 4624SOL    HW115711   4.521  11.178  13.328
 4624SOL    HW215712   4.478  11.251  13.453
 4625SOL     OW15713  12.505   9.870   6.956
 4625SOL    HW115714  12.432   9.933   6.960
 4625SOL    HW215715  12.480   9.809   6.887
 4626SOL     OW15716   6.411  13.151   5.799
 4626SOL    HW115717   6.440  13.210   5.730
 4626SOL    HW215718   6.472  13.078   5.795
 4627SOL     OW15719   9.664   7.992   6.193
 4627SOL    HW115720   9.587   7.992   6.137
 4627SOL    HW215721   9.629   8.011   6.281
 4628SOL     OW15722  10.459  13.107   8.891
 4628SOL    HW115723  10.507  13.167   8.834
 4628SOL    HW215724  10.416  13.164   8.954
 4629SOL     OW15725   9.448   8.694   3.052
 4629SOL    HW115726   9.475   8.602   3.052
 4629SOL    HW215727   9.518   8.739   3.100
 4630SOL     OW15728   3.709   3.750  10.601
 4630SOL    HW115729   3.726   3.669  10.553
 4630SOL    HW215730   3.693   3.815  10.533
 4631SOL     OW15731   9.677  11.701  11.723
 4631SOL    HW115732   9.747  11.713  11.659
 4631SOL    HW215733   9.676  11.607  11.740
 4632SOL     OW15734   7.453   9.318   6.877
 4632SOL    HW115735   7.392   9.329   6.804
 4632SOL    HW215736   7.540   9.333   6.838
 4633SOL     OW15737   0.775   1.850  13.775
 4633SOL    HW115738   0.826   1.922  13.738
 4633SOL    HW215739   0.756   1.794  13.700
 4634SOL     OW15740  13.031   2.667  11.846
 4634SOL    HW115741  13.050   2.614  11.769
 4634SOL    HW215742  13.049   2.610  11.920
 4635SOL     OW15743   5.165   5.079   5.480
 4635SOL    HW115744   5.076   5.042   5.478
 4635SOL    HW215745   5.157   5.158   5.532
 4636SOL     OW15746  10.605   4.038  10.840
 4636SOL    HW115747  10.657   3.958  10.839
 4636SOL    HW215748  10.669   4.109  10.843
 4637SOL     OW15749   3.247  11.838   3.101
 4637SOL    HW115750   3.212  11.844   3.012
 4637SOL    HW215751   3.170  11.822   3.156
 4638SOL     OW15752   3.409   5.743  13.645
 4638SOL    HW115753   3.489   5.795  13.652
 4638SOL    HW215754   3.351   5.780  13.711
 4639SOL     OW15755   8.453  10.506  13.842
 4639SOL    HW115756   8.389  10.472  13.904
 4639SOL    HW215757   8.487  10.585  13.883
 4640SOL     OW15758   8.750   9.372  13.957
 4640SOL    HW115759   8.770   9.454  13.912
 4640SOL    HW215760   8.815   9.367  14.027
 4641SOL     OW15761  14.419   9.063  13.163
 4641SOL    HW115762  14.418   8.977  13.123
 4641SOL    HW215763  14.455   9.121  13.096
 4642SOL     OW15764   9.322   3.554   8.631
 4642SOL    HW115765   9.310   3.472   8.583
 4642SOL    HW215766   9.247   3.608   8.606
 4643SOL     OW15767   0.839  11.248   4.081
 4643SOL    HW115768   0.896  11.313   4.122
 4643SOL    HW215769   0.887  11.165   4.089
 4644SOL     OW15770   2.832   1.342   3.264
 4644SOL    HW115771   2.875   1.282   3.203
 4644SOL    HW215772   2.738   1.332   3.246
 4645SOL     OW15773   5.769   0.164   6.199
 4645SOL    HW115774   5.769   0.086   6.142
 4645SOL    HW215775   5.820   0.138   6.275
 4646SOL     OW15776   6.615   8.383   9.922
 4646SOL    HW115777   6.562   8.398   9.843
 4646SOL    HW215778   6.702   8.361   9.888
 4647SOL     OW15779   2.495   8.504   2.207
 4647SOL    HW115780   2.424   8.476   2.265
 4647SOL    HW215781   2.472   8.465   2.122
 4648SOL     OW15782  13.525  11.010   7.799
 4648SOL    HW115783  13.617  11.031   7.785
 4648SOL    HW215784  13.487  11.088   7.838
 4649SOL     OW15785  13.312  13.993   3.045
 4649SOL    HW115786  13.381  13.987   3.110
 4649SOL    HW215787  13.332  14.072   2.995
 4650SOL     OW15788   3.343   8.774   8.571
 4650SOL    HW115789   3.307   8.859   8.598
 4650SOL    HW215790   3.300   8.711   8.629
 4651SOL     OW15791   1.856   1.829   3.369
 4651SOL    HW115792   1.851   1.735   3.349
 4651SOL    HW215793   1.938   1.838   3.417
 4652SOL     OW15794   9.324  14.069  14.602
 4652SOL    HW115795   9.352  14.024  14.682
 4652SOL    HW215796   9.354  14.159  14.614
 4653SOL     OW15797  12.022   0.565   6.401
 4653SOL    HW115798  11.935   0.533   6.424
 4653SOL    HW215799  12.018   0.585   6.308
 4654SOL     OW15800  10.238   2.169   7.037
 4654SOL    HW115801  10.143   2.156   7.048
 4654SOL    HW215802  10.276   2.139   7.119
 4655SOL     OW15803  10.703   2.397   4.164
 4655SOL    HW115804  10.613   2.414   4.134
 4655SOL    HW215805  10.753   2.384   4.084
 4656SOL     OW15806  12.698  14.098  10.321
 4656SOL    HW115807  12.721  14.036  10.390
 4656SOL    HW215808  12.686  14.182  10.367
 4657SOL     OW15809   4.945  11.481   5.904
 4657SOL    HW115810   4.920  11.544   5.836
 4657SOL    HW215811   4.955  11.398   5.857
 4658SOL     OW15812   6.225   7.651   1.320
 4658SOL    HW115813   6.160   7.713   1.287
 4658SOL    HW215814   6.303   7.666   1.267
 4659SOL     OW15815  12.895  11.279   6.582
 4659SOL    HW115816  12.860  11.237   6.504
 4659SOL    HW215817  12.831  11.261   6.651
 4660SOL     OW15818   6.035  10.350  13.411
 4660SOL    HW115819   6.007  10.439  13.432
 4660SOL    HW215820   6.092  10.325  13.484
 4661SOL     OW15821   2.653   8.258   8.590
 4661SOL    HW115822   2.704   8.327   8.632
 4661SOL    HW215823   2.666   8.182   8.648
 4662SOL     OW15824   6.644   0.273   2.230
 4662SOL    HW115825   6.612   0.352   2.273
 4662SOL    HW215826   6.716   0.304   2.175
 4663SOL     OW15827   1.254  10.496  11.256
 4663SOL    HW115828   1.169  10.476  11.296
 4663SOL    HW215829   1.303  10.539  11.326
 4664SOL     OW15830   9.832  14.419   8.760
 4664SOL    HW115831   9.847  14.331   8.726
 4664SOL    HW215832   9.848  14.411   8.854
 4665SOL     OW15833   3.994   4.392  13.347
 4665SOL    HW115834   3.943   4.355  13.275
 4665SOL    HW215835   4.014   4.481  13.318
 4666SOL     OW15836  12.531   3.701   4.235
 4666SOL    HW115837  12.514   3.690   4.142
 4666SOL    HW215838  12.541   3.796   4.246
 4667SOL     OW15839   3.526   7.654   0.220
 4667SOL    HW115840   3.455   7.681   0.278
 4667SOL    HW215841   3.581   7.732   0.212
 4668SOL     OW15842   5.182   6.355   3.243
 4668SOL    HW115843   5.220   6.406   3.314
 4668SOL    HW215844   5.124   6.416   3.198
 4669SOL     OW15845  13.184   5.587  14.652
 4669SOL    HW115846  13.252   5.538  14.607
 4669SOL    HW215847  13.227   5.620  14.732
 4670SOL     OW15848   2.592  11.067   2.369
 4670SOL    HW115849   2.552  10.992   2.326
 4670SOL    HW215850   2.558  11.144   2.322
 4671SOL     OW15851   3.394   7.887  13.698
 4671SOL    HW115852   3.382   7.907  13.790
 4671SOL    HW215853   3.480   7.846  13.693
 4672SOL     OW15854   6.250   0.297  11.456
 4672SOL    HW115855   6.291   0.233  11.513
 4672SOL    HW215856   6.226   0.247  11.378
 4673SOL     OW15857  14.669   5.122   3.871
 4673SOL    HW115858  14.736   5.127   3.939
 4673SOL    HW215859  14.694   5.048   3.816
 4674SOL     OW15860   6.684   5.246   9.458
 4674SOL    HW115861   6.678   5.311   9.527
 4674SOL    HW215862   6.778   5.242   9.438
 4675SOL     OW15863   1.807   8.798  11.470
 4675SOL    HW115864   1.723   8.814  11.513
 4675SOL    HW215865   1.811   8.863  11.400
 4676SOL     OW15866  12.175   4.457   1.088
 4676SOL    HW115867  12.244   4.392   1.097
 4676SOL    HW215868  12.217   4.540   1.107
 4677SOL     OW15869  12.317  12.157  11.166
 4677SOL    HW115870  12.240  12.176  11.219
 4677SOL    HW215871  12.292  12.183  11.078
 4678SOL     OW15872  13.636   1.083   1.198
 4678SOL    HW115873  13.570   1.150   1.217
 4678SOL    HW215874  13.692   1.124   1.131
 4679SOL     OW15875  10.115   8.585  13.402
 4679SOL    HW115876  10.141   8.518  13.465
 4679SOL    HW215877  10.179   8.577  13.331
 4680SOL     OW15878   4.230   3.999  13.854
 4680SOL    HW115879   4.222   4.046  13.771
 4680SOL    HW215880   4.267   4.064  13.914
 4681SOL     OW15881   0.474  13.237   9.190
 4681SOL    HW115882   0.490  13.299   9.261
 4681SOL    HW215883   0.559  13.223   9.150
 4682SOL     OW15884   9.095   4.347   8.770
 4682SOL    HW115885   9.001   4.367   8.774
 4682SOL    HW215886   9.138   4.431   8.788
 4683SOL     OW15887   3.192   1.046   9.293
 4683SOL    HW115888   3.258   1.115   9.284
 4683SOL    HW215889   3.230   0.985   9.356
 4684SOL     OW15890   5.191  11.260   3.734
 4684SOL    HW115891   5.246  11.339   3.740
 4684SOL    HW215892   5.103  11.291   3.756
 4685SOL     OW15893   7.688   8.373   9.695
 4685SOL    HW115894   7.739   8.348   9.772
 4685SOL    HW215895   7.747   8.430   9.645
 4686SOL     OW15896   9.103  13.455   1.510
 4686SOL    HW115897   9.138  13.472   1.422
 4686SOL    HW215898   9.180  13.426   1.560
 4687SOL     OW15899   0.224   6.926  10.938
 4687SOL    HW115900   0.194   6.853  10.884
 4687SOL    HW215901   0.209   7.003  10.884
 4688SOL     OW15902  10.877   9.848   8.498
 4688SOL    HW115903  10.893   9.876   8.408
 4688SOL    HW215904  10.871   9.753   8.493
 4689SOL     OW15905   6.855   7.000   2.707
 4689SOL    HW115906   6.771   7.044   2.692
 4689SOL    HW215907   6.871   7.012   2.801
 4690SOL     OW15908   0.393   4.485   9.742
 4690SOL    HW115909   0.366   4.548   9.676
 4690SOL    HW215910   0.386   4.532   9.825
 4691SOL     OW15911  12.734  14.771   7.969
 4691SOL    HW115912  12.642  14.794   7.965
 4691SOL    HW215913  12.742  14.691   7.917
 4692SOL     OW15914  12.447   3.225   9.958
 4692SOL    HW115915  12.484   3.292  10.015
 4692SOL    HW215916  12.353   3.226   9.978
 4693SOL     OW15917  11.854   6.704   5.105
 4693SOL    HW115918  11.838   6.771   5.172
 4693SOL    HW215919  11.772   6.655   5.101
 4694SOL     OW15920   5.659   1.751   9.075
 4694SOL    HW115921   5.638   1.766   9.168
 4694SOL    HW215922   5.751   1.725   9.075
 4695SOL     OW15923   1.349   9.683   9.743
 4695SOL    HW115924   1.261   9.717   9.756
 4695SOL    HW215925   1.348   9.596   9.782
 4696SOL     OW15926   5.460   0.081   7.585
 4696SOL    HW115927   5.394   0.133   7.629
 4696SOL    HW215928   5.527   0.065   7.651
 4697SOL     OW15929   8.409   9.907   1.430
 4697SOL    HW115930   8.499   9.935   1.416
 4697SOL    HW215931   8.382   9.954   1.509
 4698SOL     OW15932   2.942   0.864   1.119
 4698SOL    HW115933   3.029   0.889   1.090
 4698SOL    HW215934   2.948   0.771   1.140
 4699SOL     OW15935   0.669  14.110   0.800
 4699SOL    HW115936   0.709  14.115   0.886
 4699SOL    HW215937   0.707  14.032   0.760
 4700SOL     OW15938   9.910   6.971   7.643
 4700SOL    HW115939   9.909   6.988   7.737
 4700SOL    HW215940   9.820   6.988   7.614
 4701SOL     OW15941   3.335   2.272   9.484
 4701SOL    HW115942   3.292   2.301   9.404
 4701SOL    HW215943   3.299   2.329   9.552
 4702SOL     OW15944  10.602   2.080  13.242
 4702SOL    HW115945  10.683   2.098  13.194
 4702SOL    HW215946  10.540   2.145  13.209
 4703SOL     OW15947  12.720  11.802   5.288
 4703SOL    HW115948  12.684  11.889   5.306
 4703SOL    HW215949  12.739  11.766   5.375
 4704SOL     OW15950   2.930  10.618   2.897
 4704SOL    HW115951   2.837  10.641   2.898
 4704SOL    HW215952   2.938  10.556   2.824
 4705SOL     OW15953  13.411  13.878  12.594
 4705SOL    HW115954  13.392  13.887  12.500
 4705SOL    HW215955  13.372  13.794  12.618
 4706SOL     OW15956   5.457   8.317   2.352
 4706SOL    HW115957   5.509   8.281   2.280
 4706SOL    HW215958   5.403   8.243   2.380
 4707SOL     OW15959  10.238   2.950  14.733
 4707SOL    HW115960  10.330   2.936  14.753
 4707SOL    HW215961  10.197   2.866  14.749
 4708SOL     OW15962   2.790   3.542  12.007
 4708SOL    HW115963   2.740   3.541  11.924
 4708SOL    HW215964   2.871   3.587  11.985
 4709SOL     OW15965   9.282   3.862  11.665
 4709SOL    HW115966   9.188   3.850  11.652
 4709SOL    HW215967   9.288   3.907  11.750
 4710SOL     OW15968  10.687  11.850   1.638
 4710SOL    HW115969  10.639  11.767   1.641
 4710SOL    HW215970  10.633  11.911   1.689
 4711SOL     OW15971   2.596   7.731   3.785
 4711SOL    HW115972   2.560   7.820   3.789
 4711SOL    HW215973   2.627   7.722   3.695
 4712SOL     OW15974  13.523  12.352   6.732
 4712SOL    HW115975  13.439  12.355   6.687
 4712SOL    HW215976  13.542  12.258   6.741
 4713SOL     OW15977  12.512  13.894   8.579
 4713SOL    HW115978  12.512  13.874   8.673
 4713SOL    HW215979  12.581  13.961   8.570
 4714SOL     OW15980  12.352   5.612   4.033
 4714SOL    HW115981  12.434   5.571   4.060
 4714SOL    HW215982  12.333   5.575   3.948
 4715SOL     OW15983   6.767  12.795  12.186
 4715SOL    HW115984   6.688  12.742  12.189
 4715SOL    HW215985   6.811  12.778  12.269
 4716SOL     OW15986  11.078   0.805   3.734
 4716SOL    HW115987  11.172   0.819   3.747
 4716SOL    HW215988  11.042   0.893   3.721
 4717SOL     OW15989   6.312   5.112   3.190
 4717SOL    HW115990   6.233   5.161   3.168
 4717SOL    HW215991   6.378   5.144   3.128
 4718SOL     OW15992  14.530   5.630  12.019
 4718SOL    HW115993  14.547   5.536  12.017
 4718SOL    HW215994  14.560   5.661  11.934
 4719SOL     OW15995   0.463  13.031   0.254
 4719SOL    HW115996   0.544  13.077   0.234
 4719SOL    HW215997   0.463  13.023   0.350
 4720SOL     OW15998   2.751  14.708   6.541
 4720SOL    HW115999   2.674  14.653   6.551
 4720SOL    HW216000   2.729  14.790   6.585
 4721SOL     OW16001   1.473   5.953   9.584
 4721SOL    HW116002   1.567   5.944   9.571
 4721SOL    HW216003   1.435   5.937   9.498
 4722SOL     OW16004  14.337   7.398   2.615
 4722SOL    HW116005  14.272   7.466   2.630
 4722SOL    HW216006  14.307   7.352   2.537
 4723SOL     OW16007   9.708   5.291   1.099
 4723SOL    HW116008   9.743   5.210   1.063
 4723SOL    HW216009   9.752   5.360   1.048
 4724SOL     OW16010  10.731  10.194  12.015
 4724SOL    HW116011  10.655  10.136  12.017
 4724SOL    HW216012  10.695  10.282  12.019
 4725SOL     OW16013  10.103   1.561   6.498
 4725SOL    HW116014  10.199   1.559   6.506
 4725SOL    HW216015  10.078   1.648   6.530
 4726SOL     OW16016  10.186   6.306   1.540
 4726SOL    HW116017  10.256   6.259   1.587
 4726SOL    HW216018  10.148   6.241   1.482
 4727SOL     OW16019   2.848   4.132   2.131
 4727SOL    HW116020   2.846   4.146   2.037
 4727SOL    HW216021   2.889   4.047   2.142
 4728SOL     OW16022   2.955   8.384  14.732
 4728SOL    HW116023   2.953   8.300  14.777
 4728SOL    HW216024   3.036   8.425  14.763
 4729SOL     OW16025   0.543  11.817   2.217
 4729SOL    HW116026   0.596  11.758   2.163
 4729SOL    HW216027   0.602  11.890   2.237
 4730SOL     OW16028   5.828   0.492  12.844
 4730SOL    HW116029   5.786   0.518  12.926
 4730SOL    HW216030   5.756   0.480  12.782
 4731SOL     OW16031  12.632   5.702  11.381
 4731SOL    HW116032  12.591   5.749  11.308
 4731SOL    HW216033  12.582   5.620  11.388
 4732SOL     OW16034   8.607   2.124  14.228
 4732SOL    HW116035   8.533   2.151  14.175
 4732SOL    HW216036   8.568   2.089  14.308
 4733SOL     OW16037   5.412   4.135   8.738
 4733SOL    HW116038   5.411   4.074   8.664
 4733SOL    HW216039   5.327   4.121   8.782
 4734SOL     OW16040  13.856   0.744   6.688
 4734SOL    HW116041  13.764   0.720   6.685
 4734SOL    HW216042  13.857   0.839   6.671
 4735SOL     OW16043   4.389  11.383   8.879
 4735SOL    HW116044   4.303  11.417   8.906
 4735SOL    HW216045   4.372  11.293   8.854
 4736SOL     OW16046   9.509   2.505   3.089
 4736SOL    HW116047   9.582   2.473   3.142
 4736SOL    HW216048   9.512   2.453   3.009
 4737SOL     OW16049   0.838   4.891   8.099
 4737SOL    HW116050   0.761   4.940   8.127
 4737SOL    HW216051   0.874   4.854   8.179
 4738SOL     OW16052   9.422   2.929   1.405
 4738SOL    HW116053   9.335   2.946   1.441
 4738SOL    HW216054   9.483   2.968   1.468
 4739SOL     OW16055   1.672   5.659   4.983
 4739SOL    HW116056   1.731   5.719   5.028
 4739SOL    HW216057   1.729   5.598   4.937
 4740SOL     OW16058  13.019   7.024   0.929
 4740SOL    HW116059  13.099   6.993   0.886
 4740SOL    HW216060  13.043   7.035   1.021
 4741SOL     OW16061  11.322  11.781  12.627
 4741SOL    HW116062  11.332  11.745  12.539
 4741SOL    HW216063  11.258  11.725  12.670
 4742SOL     OW16064  14.185   7.651   3.697
 4742SOL    HW116065  14.145   7.565   3.685
 4742SOL    HW216066  14.141   7.687   3.774
 4743SOL     OW16067  13.997  11.506  10.256
 4743SOL    HW116068  13.906  11.519  10.283
 4743SOL    HW216069  14.034  11.595  10.253
 4744SOL     OW16070   1.122   1.240   5.857
 4744SOL    HW116071   1.126   1.266   5.765
 4744SOL    HW216072   1.192   1.176   5.867
 4745SOL     OW16073   8.417   5.798  12.324
 4745SOL    HW116074   8.509   5.805  12.351
 4745SOL    HW216075   8.392   5.888  12.302
 4746SOL     OW16076  14.661   1.467   9.422
 4746SOL    HW116077  14.648   1.469   9.328
 4746SOL    HW216078  14.749   1.503   9.435
 4747SOL     OW16079  11.942   5.216  10.904
 4747SOL    HW116080  11.986   5.301  10.899
 4747SOL    HW216081  11.870   5.230  10.966
 4748SOL     OW16082   4.927   6.218   4.939
 4748SOL    HW116083   4.876   6.138   4.936
 4748SOL    HW216084   5.008   6.193   4.983
 4749SOL     OW16085   0.937   6.602  13.416
 4749SOL    HW116086   0.919   6.691  13.445
 4749SOL    HW216087   0.991   6.564  13.485
 4750SOL     OW16088   3.304  10.040   0.049
 4750SOL    HW116089   3.259  10.033  14.838
 4750SOL    HW216090   3.397  10.037   0.026
 4751SOL     OW16091  14.480  12.668   6.911
 4751SOL    HW116092  14.527  12.744   6.876
 4751SOL    HW216093  14.436  12.701   6.990
 4752SOL     OW16094   9.700   1.009   6.340
 4752SOL    HW116095   9.724   1.101   6.348
 4752SOL    HW216096   9.769   0.970   6.286
 4753SOL     OW16097  14.785  12.140   6.087
 4753SOL    HW116098  14.793  12.047   6.107
 4753SOL    HW216099  14.861  12.159   6.032
 4754SOL     OW16100   1.397  11.727   6.852
 4754SOL    HW116101   1.406  11.821   6.866
 4754SOL    HW216102   1.487  11.696   6.842
 4755SOL     OW16103   1.003   7.320  14.531
 4755SOL    HW116104   0.919   7.298  14.572
 4755SOL    HW216105   1.030   7.402  14.573
 4756SOL     OW16106  14.809   3.145   5.408
 4756SOL    HW116107  14.854   3.065   5.435
 4756SOL    HW216108  14.783   3.128   5.318
 4757SOL     OW16109   3.541   6.721  12.770
 4757SOL    HW116110   3.558   6.815  12.766
 4757SOL    HW216111   3.446   6.713  12.759
 4758SOL     OW16112   4.205   6.041   2.980
 4758SOL    HW116113   4.185   6.028   2.887
 4758SOL    HW216114   4.197   5.954   3.018
 4759SOL     OW16115  14.280   8.988  11.644
 4759SOL    HW116116  14.236   9.065  11.680
 4759SOL    HW216117  14.298   9.011  11.552
 4760SOL     OW16118  10.542  14.673   2.240
 4760SOL    HW116119  10.504  14.734   2.177
 4760SOL    HW216120  10.502  14.588   2.218
 4761SOL     OW16121   3.453  11.630   2.653
 4761SOL    HW116122   3.474  11.604   2.563
 4761SOL    HW216123   3.477  11.554   2.706
 4762SOL     OW16124  11.715   4.131  10.085
 4762SOL    HW116125  11.656   4.107  10.013
 4762SOL    HW216126  11.661   4.185  10.143
 4763SOL     OW16127   0.353   0.638   8.052
 4763SOL    HW116128   0.353   0.626   8.147
 4763SOL    HW216129   0.268   0.605   8.024
 4764SOL     OW16130   5.840  11.548   4.591
 4764SOL    HW116131   5.871  11.614   4.651
 4764SOL    HW216132   5.799  11.597   4.520
 4765SOL     OW16133   7.163   2.853   0.330
 4765SOL    HW116134   7.256   2.873   0.342
 4765SOL    HW216135   7.139   2.900   0.250
 4766SOL     OW16136   2.014   2.886   5.929
 4766SOL    HW116137   2.107   2.889   5.906
 4766SOL    HW216138   1.995   2.793   5.940
 4767SOL     OW16139   7.884  13.040  11.281
 4767SOL    HW116140   7.873  13.131  11.254
 4767SOL    HW216141   7.832  13.032  11.361
 4768SOL     OW16142  13.615  10.723   5.740
 4768SOL    HW116143  13.544  10.659   5.750
 4768SOL    HW216144  13.637  10.748   5.830
 4769SOL     OW16145   8.650   2.687   4.989
 4769SOL    HW116146   8.679   2.758   5.046
 4769SOL    HW216147   8.587   2.638   5.042
 4770SOL     OW16148   1.447  14.090  10.950
 4770SOL    HW116149   1.472  14.031  10.878
 4770SOL    HW216150   1.528  14.102  11.000
 4771SOL     OW16151   4.179  11.518  14.347
 4771SOL    HW116152   4.198  11.424  14.343
 4771SOL    HW216153   4.111  11.531  14.281
 4772SOL     OW16154   6.469   5.871  13.009
 4772SOL    HW116155   6.407   5.941  13.028
 4772SOL    HW216156   6.528   5.908  12.944
 4773SOL     OW16157   1.743   5.952   9.766
 4773SOL    HW116158   1.712   6.043   9.766
 4773SOL    HW216159   1.768   5.935   9.676
 4774SOL     OW16160   8.262  14.675   9.281
 4774SOL    HW116161   8.185  14.625   9.253
 4774SOL    HW216162   8.267  14.748   9.220
 4775SOL     OW16163   1.999   2.611  12.619
 4775SOL    HW116164   1.906   2.617  12.640
 4775SOL    HW216165   2.029   2.532  12.664
 4776SOL     OW16166   8.551  14.492   7.347
 4776SOL    HW116167   8.468  14.535   7.325
 4776SOL    HW216168   8.601  14.559   7.393
 4777SOL     OW16169   5.290  13.250  14.590
 4777SOL    HW116170   5.255  13.233  14.677
 4777SOL    HW216171   5.328  13.166  14.563
 4778SOL     OW16172   5.665  11.306   6.286
 4778SOL    HW116173   5.596  11.370   6.302
 4778SOL    HW216174   5.721  11.312   6.363
 4779SOL     OW16175  13.746   0.514   3.697
 4779SOL    HW116176  13.785   0.504   3.784
 4779SOL    HW216177  13.796   0.585   3.656
 4780SOL     OW16178  10.620  11.979   7.199
 4780SOL    HW116179  10.631  11.897   7.247
 4780SOL    HW216180  10.528  11.981   7.176
 4781SOL     OW16181   1.135   4.415   3.478
 4781SOL    HW116182   1.182   4.429   3.396
 4781SOL    HW216183   1.110   4.503   3.506
 4782SOL     OW16184   2.285   5.379   0.915
 4782SOL    HW116185   2.255   5.439   0.846
 4782SOL    HW216186   2.232   5.301   0.904
 4783SOL     OW16187  10.070   5.328   1.221
 4783SOL    HW116188  10.068   5.416   1.184
 4783SOL    HW216189  10.006   5.330   1.292
 4784SOL     OW16190  11.863   7.564   2.450
 4784SOL    HW116191  11.808   7.537   2.524
 4784SOL    HW216192  11.952   7.545   2.478
 4785SOL     OW16193   8.016   0.974   6.521
 4785SOL    HW116194   8.082   1.034   6.485
 4785SOL    HW216195   7.940   0.984   6.463
 4786SOL     OW16196   3.149  11.005   4.308
 4786SOL    HW116197   3.106  10.932   4.353
 4786SOL    HW216198   3.217  11.034   4.369
 4787SOL     OW16199   2.402   7.813   9.511
 4787SOL    HW116200   2.423   7.900   9.478
 4787SOL    HW216201   2.307   7.812   9.516
 4788SOL     OW16202   7.719   2.546   7.783
 4788SOL    HW116203   7.673   2.591   7.853
 4788SOL    HW216204   7.655   2.539   7.712
 4789SOL     OW16205  11.647   0.160   3.554
 4789SOL    HW116206  11.726   0.180   3.504
 4789SOL    HW216207  11.678   0.107   3.628
 4790SOL     OW16208  11.309  10.146  10.756
 4790SOL    HW116209  11.293  10.141  10.662
 4790SOL    HW216210  11.325  10.240  10.772
 4791SOL     OW16211   8.765  10.828   6.166
 4791SOL    HW116212   8.806  10.753   6.124
 4791SOL    HW216213   8.694  10.791   6.219
 4792SOL     OW16214   4.383   4.100   2.565
 4792SOL    HW116215   4.407   4.134   2.651
 4792SOL    HW216216   4.372   4.006   2.579
 4793SOL     OW16217   3.900   4.704   5.508
 4793SOL    HW116218   3.943   4.697   5.593
 4793SOL    HW216219   3.810   4.677   5.524
 4794SOL     OW16220   1.042   0.660   4.791
 4794SOL    HW116221   1.091   0.735   4.757
 4794SOL    HW216222   0.976   0.643   4.724
 4795SOL     OW16223  12.724   6.460  10.978
 4795SOL    HW116224  12.632   6.483  10.991
 4795SOL    HW216225  12.726   6.364  10.986
 4796SOL     OW16226  13.047   2.661   2.951
 4796SOL    HW116227  13.041   2.756   2.956
 4796SOL    HW216228  13.132   2.640   2.990
 4797SOL     OW16229   3.656  12.826   0.437
 4797SOL    HW116230   3.703  12.765   0.380
 4797SOL    HW216231   3.602  12.770   0.493
 4798SOL     OW16232  14.481   8.615   2.217
 4798SOL    HW116233  14.561   8.664   2.199
 4798SOL    HW216234  14.503   8.524   2.197
 4799SOL     OW16235   4.190   4.064   1.344
 4799SOL    HW116236   4.286   4.068   1.343
 4799SOL    HW216237   4.162   4.154   1.332
 4800SOL     OW16238   2.056   0.912   8.056
 4800SOL    HW116239   2.106   0.993   8.068
 4800SOL    HW216240   2.101   0.866   7.986
 4801SOL     OW16241  11.012   9.611   5.221
 4801SOL    HW116242  11.002   9.672   5.147
 4801SOL    HW216243  11.081   9.650   5.275
 4802SOL     OW16244  10.068   3.082   7.045
 4802SOL    HW116245  10.077   3.132   7.126
 4802SOL    HW216246  10.149   3.031   7.039
 4803SOL     OW16247  11.560   5.307  14.291
 4803SOL    HW116248  11.558   5.234  14.352
 4803SOL    HW216249  11.470   5.313  14.258
 4804SOL     OW16250   1.657   1.724   9.581
 4804SOL    HW116251   1.703   1.751   9.660
 4804SOL    HW216252   1.724   1.679   9.528
 4805SOL     OW16253   1.885   2.483   5.470
 4805SOL    HW116254   1.845   2.470   5.384
 4805SOL    HW216255   1.977   2.502   5.452
 4806SOL     OW16256   8.264   5.681   4.034
 4806SOL    HW116257   8.332   5.615   4.044
 4806SOL    HW216258   8.276   5.715   3.946
 4807SOL     OW16259   4.339   3.324  14.383
 4807SOL    HW116260   4.352   3.253  14.321
 4807SOL    HW216261   4.276   3.383  14.341
 4808SOL     OW16262  12.976   4.012  10.357
 4808SOL    HW116263  12.895   4.039  10.313
 4808SOL    HW216264  13.046   4.045  10.301
 4809SOL     OW16265   1.527   1.838  10.130
 4809SOL    HW116266   1.539   1.831  10.225
 4809SOL    HW216267   1.572   1.760  10.096
 4810SOL     OW16268   1.743   1.300  10.493
 4810SOL    HW116269   1.801   1.363  10.535
 4810SOL    HW216270   1.785   1.280  10.409
 4811SOL     OW16271   4.899  14.449  10.625
 4811SOL    HW116272   4.881  14.425  10.716
 4811SOL    HW216273   4.985  14.490  10.628
 4812SOL     OW16274   7.184   0.658   3.992
 4812SOL    HW116275   7.215   0.568   4.004
 4812SOL    HW216276   7.262   0.706   3.962
 4813SOL     OW16277   5.574  10.775  14.618
 4813SOL    HW116278   5.654  10.735  14.582
 4813SOL    HW216279   5.606  10.844  14.676
 4814SOL     OW16280   7.583   2.416  11.248
 4814SOL    HW116281   7.674   2.385  11.257
 4814SOL    HW216282   7.546   2.361  11.179
 4815SOL     OW16283  13.308  11.801   3.736
 4815SOL    HW116284  13.241  11.742   3.701
 4815SOL    HW216285  13.356  11.831   3.659
 4816SOL     OW16286   6.381   5.527   7.058
 4816SOL    HW116287   6.405   5.570   6.976
 4816SOL    HW216288   6.297   5.484   7.039
 4817SOL     OW16289  10.070   3.852   5.935
 4817SOL    HW116290  10.085   3.940   5.968
 4817SOL    HW216291  10.157   3.821   5.908
 4818SOL     OW16292   6.713  12.028   8.584
 4818SOL    HW116293   6.690  11.965   8.515
 4818SOL    HW216294   6.630  12.068   8.608
 4819SOL     OW16295   5.433   9.540   1.324
 4819SOL    HW116296   5.460   9.631   1.312
 4819SOL    HW216297   5.349   9.546   1.370
 4820SOL     OW16298   8.990   7.282  10.461
 4820SOL    HW116299   8.962   7.330  10.539
 4820SOL    HW216300   9.029   7.201  10.494
 4821SOL     OW16301   8.640   2.604   0.577
 4821SOL    HW116302   8.576   2.558   0.524
 4821SOL    HW216303   8.601   2.689   0.594
 4822SOL     OW16304   6.250   5.219   5.047
 4822SOL    HW116305   6.219   5.263   4.969
 4822SOL    HW216306   6.241   5.125   5.027
 4823SOL     OW16307   5.678   5.861   6.516
 4823SOL    HW116308   5.749   5.924   6.500
 4823SOL    HW216309   5.654   5.829   6.429
 4824SOL     OW16310  13.106   9.984   5.867
 4824SOL    HW116311  13.114   9.928   5.944
 4824SOL    HW216312  13.119   9.925   5.792
 4825SOL     OW16313   3.903   4.643   2.462
 4825SOL    HW116314   3.903   4.738   2.469
 4825SOL    HW216315   3.995   4.618   2.459
 4826SOL     OW16316   6.225   1.509   8.259
 4826SOL    HW116317   6.298   1.556   8.219
 4826SOL    HW216318   6.218   1.545   8.347
 4827SOL     OW16319  11.770  14.315   7.995
 4827SOL    HW116320  11.714  14.254   8.043
 4827SOL    HW216321  11.784  14.274   7.910
 4828SOL     OW16322   1.281  13.394   3.550
 4828SOL    HW116323   1.276  13.480   3.592
 4828SOL    HW216324   1.240  13.335   3.613
 4829SOL     OW16325   9.706  12.234   6.111
 4829SOL    HW116326   9.676  12.284   6.187
 4829SOL    HW216327   9.692  12.292   6.036
 4830SOL     OW16328  10.636   3.870   5.735
 4830SOL    HW116329  10.643   3.786   5.690
 4830SOL    HW216330  10.714   3.874   5.792
 4831SOL     OW16331   4.014   0.751   7.785
 4831SOL    HW116332   3.939   0.693   7.776
 4831SOL    HW216333   3.976   0.838   7.794
 4832SOL     OW16334  11.590   0.488  13.188
 4832SOL    HW116335  11.585   0.580  13.216
 4832SOL    HW216336  11.594   0.438  13.270
 4833SOL     OW16337   7.526   3.165  10.658
 4833SOL    HW116338   7.578   3.097  10.617
 4833SOL    HW216339   7.588   3.235  10.678
 4834SOL     OW16340   4.835  12.724  10.122
 4834SOL    HW116341   4.813  12.795  10.182
 4834SOL    HW216342   4.753  12.678  10.107
 4835SOL     OW16343   1.369  10.662  11.079
 4835SOL    HW116344   1.348  10.605  11.153
 4835SOL    HW216345   1.294  10.721  11.072
 4836SOL     OW16346   2.578  11.817   8.087
 4836SOL    HW116347   2.652  11.790   8.034
 4836SOL    HW216348   2.611  11.892   8.138
 4837SOL     OW16349  11.350   5.315   8.170
 4837SOL    HW116350  11.348   5.220   8.181
 4837SOL    HW216351  11.406   5.345   8.241
 4838SOL     OW16352   3.220  12.206  12.697
 4838SOL    HW116353   3.159  12.179  12.628
 4838SOL    HW216354   3.271  12.127  12.716
 4839SOL     OW16355   0.508   5.976   1.129
 4839SOL    HW116356   0.412   5.977   1.124
 4839SOL    HW216357   0.533   5.890   1.095
 4840SOL     OW16358   8.985   3.234   6.642
 4840SOL    HW116359   8.895   3.266   6.642
 4840SOL    HW216360   9.011   3.236   6.735
 4841SOL     OW16361   4.897   3.436   8.686
 4841SOL    HW116362   4.815   3.388   8.695
 4841SOL    HW216363   4.956   3.374   8.642
 4842SOL     OW16364   8.546   3.989  13.225
 4842SOL    HW116365   8.604   4.065  13.228
 4842SOL    HW216366   8.597   3.919  13.267
 4843SOL     OW16367  14.523  14.619   7.822
 4843SOL    HW116368  14.509  14.524   7.817
 4843SOL    HW216369  14.600  14.628   7.878
 4844SOL     OW16370   2.242  13.095   6.005
 4844SOL    HW116371   2.202  13.020   6.050
 4844SOL    HW216372   2.329  13.102   6.045
 4845SOL     OW16373  11.594  13.767   3.312
 4845SOL    HW116374  11.641  13.691   3.344
 4845SOL    HW216375  11.573  13.746   3.221
 4846SOL     OW16376   4.504   6.736   8.074
 4846SOL    HW116377   4.463   6.802   8.018
 4846SOL    HW216378   4.550   6.787   8.141
 4847SOL     OW16379   6.778   2.622   3.051
 4847SOL    HW116380   6.742   2.699   3.006
 4847SOL    HW216381   6.864   2.651   3.082
 4848SOL     OW16382   8.823   6.042   6.175
 4848SOL    HW116383   8.824   6.090   6.258
 4848SOL    HW216384   8.843   5.952   6.200
 4849SOL     OW16385   2.326  14.563  10.026
 4849SOL    HW116386   2.349  14.522  10.110
 4849SOL    HW216387   2.312  14.489   9.967
 4850SOL     OW16388   5.964  12.245   3.615
 4850SOL    HW116389   6.021  12.168   3.611
 4850SOL    HW216390   5.981  12.282   3.702
 4851SOL     OW16391   8.744  14.819   6.924
 4851SOL    HW116392   8.772  14.743   6.873
 4851SOL    HW216393   8.666  14.789   6.971
 4852SOL     OW16394   2.921   4.615  10.915
 4852SOL    HW116395   2.978   4.604  10.991
 4852SOL    HW216396   2.946   4.700  10.878
 4853SOL     OW16397   3.415   9.082   2.318
 4853SOL    HW116398   3.436   9.143   2.247
 4853SOL    HW216399   3.320   9.084   2.323
 4854SOL     OW16400   8.775  10.282  14.562
 4854SOL    HW116401   8.851  10.224  14.560
 4854SOL    HW216402   8.777  10.328  14.478
 4855SOL     OW16403   2.303   0.731  10.600
 4855SOL    HW116404   2.360   0.734  10.522
 4855SOL    HW216405   2.279   0.638  10.608
 4856SOL     OW16406   5.222   8.936   8.849
 4856SOL    HW116407   5.309   8.945   8.888
 4856SOL    HW216408   5.224   8.850   8.807
 4857SOL     OW16409   5.523   9.032   8.761
 4857SOL    HW116410   5.547   8.940   8.762
 4857SOL    HW216411   5.498   9.052   8.852
 4858SOL     OW16412  12.899   8.097   0.079
 4858SOL    HW116413  12.810   8.063   0.079
 4858SOL    HW216414  12.905   8.149  14.872
 4859SOL     OW16415  10.003  12.923   7.040
 4859SOL    HW116416  10.038  13.011   7.048
 4859SOL    HW216417   9.917  12.935   6.999
 4860SOL     OW16418  10.294   0.255  14.413
 4860SOL    HW116419  10.289   0.323  14.481
 4860SOL    HW216420  10.347   0.295  14.344
 4861SOL     OW16421   6.778   4.642   6.804
 4861SOL    HW116422   6.802   4.715   6.747
 4861SOL    HW216423   6.757   4.683   6.888
 4862SOL     OW16424   6.569   7.205   0.427
 4862SOL    HW116425   6.513   7.279   0.449
 4862SOL    HW216426   6.610   7.229   0.343
 4863SOL     OW16427  10.038  10.708   6.081
 4863SOL    HW116428  10.053  10.802   6.097
 4863SOL    HW216429   9.977  10.682   6.149
 4864SOL     OW16430   5.548   6.145  14.254
 4864SOL    HW116431   5.536   6.226  14.304
 4864SOL    HW216432   5.468   6.095  14.269
 4865SOL     OW16433   6.255   0.166   2.689
 4865SOL    HW116434   6.329   0.227   2.678
 4865SOL    HW216435   6.230   0.143   2.600
 4866SOL     OW16436  10.915   5.954  13.060
 4866SOL    HW116437  10.856   5.944  13.135
 4866SOL    HW216438  10.947   6.044  13.066
 4867SOL     OW16439   9.708   2.542   6.569
 4867SOL    HW116440   9.764   2.576   6.499
 4867SOL    HW216441   9.751   2.462   6.599
 4868SOL     OW16442   4.017   3.246  11.406
 4868SOL    HW116443   4.098   3.290  11.384
 4868SOL    HW216444   4.031   3.155  11.380
 4869SOL     OW16445   0.462  14.744  11.120
 4869SOL    HW116446   0.539  14.690  11.102
 4869SOL    HW216447   0.492  14.809  11.183
 4870SOL     OW16448   6.424   1.204  13.931
 4870SOL    HW116449   6.430   1.109  13.938
 4870SOL    HW216450   6.390   1.232  14.016
 4871SOL     OW16451   1.135   0.556  13.468
 4871SOL    HW116452   1.225   0.566  13.499
 4871SOL    HW216453   1.109   0.645  13.442
 4872SOL     OW16454   0.183  13.612   1.118
 4872SOL    HW116455   0.166  13.544   1.053
 4872SOL    HW216456   0.117  13.679   1.101
 4873SOL     OW16457   1.143   6.348   2.208
 4873SOL    HW116458   1.094   6.393   2.139
 4873SOL    HW216459   1.137   6.407   2.283
 4874SOL     OW16460  14.422  14.356  14.394
 4874SOL    HW116461  14.409  14.386  14.484
 4874SOL    HW216462  14.402  14.433  14.341
 4875SOL     OW16463  11.108  11.311   9.412
 4875SOL    HW116464  11.036  11.373   9.407
 4875SOL    HW216465  11.066  11.226   9.424
 4876SOL     OW16466   3.873   6.841   7.663
 4876SOL    HW116467   3.789   6.798   7.679
 4876SOL    HW216468   3.934   6.769   7.651
 4877SOL     OW16469  12.549   8.079   7.331
 4877SOL    HW116470  12.514   8.074   7.420
 4877SOL    HW216471  12.503   8.152   7.291
 4878SOL     OW16472   2.535  12.952   1.686
 4878SOL    HW116473   2.533  13.025   1.748
 4878SOL    HW216474   2.609  12.899   1.714
 4879SOL     OW16475  14.235  14.750  11.007
 4879SOL    HW116476  14.259  14.829  11.054
 4879SOL    HW216477  14.319  14.704  10.994
 4880SOL     OW16478   4.957   6.723  12.109
 4880SOL    HW116479   5.044   6.686  12.125
 4880SOL    HW216480   4.956   6.804  12.159
 4881SOL     OW16481  14.583   5.927   0.331
 4881SOL    HW116482  14.496   5.897   0.356
 4881SOL    HW216483  14.569   6.013   0.292
 4882SOL     OW16484   1.919   8.320   0.085
 4882SOL    HW116485   1.849   8.381   0.108
 4882SOL    HW216486   1.881   8.233   0.098
 4883SOL     OW16487   3.075   3.145   2.638
 4883SOL    HW116488   3.090   3.110   2.550
 4883SOL    HW216489   3.050   3.069   2.690
 4884SOL     OW16490   5.599   6.600   9.991
 4884SOL    HW116491   5.661   6.625   9.923
 4884SOL    HW216492   5.614   6.507  10.006
 4885SOL     OW16493   7.513  11.659  11.662
 4885SOL    HW116494   7.593  11.643  11.611
 4885SOL    HW216495   7.543  11.665  11.752
 4886SOL     OW16496   1.045   8.819   0.783
 4886SOL    HW116497   1.042   8.756   0.855
 4886SOL    HW216498   1.108   8.885   0.811
 4887SOL     OW16499   0.226   9.059   8.798
 4887SOL    HW116500   0.275   8.987   8.839
 4887SOL    HW216501   0.264   9.066   8.710
 4888SOL     OW16502   7.095   4.296   2.074
 4888SOL    HW116503   7.128   4.352   2.005
 4888SOL    HW216504   7.046   4.227   2.028
 4889SOL     OW16505  14.252  13.399  12.528
 4889SOL    HW116506  14.246  13.313  12.571
 4889SOL    HW216507  14.260  13.378  12.435
 4890SOL     OW16508  14.823  13.434   3.909
 4890SOL    HW116509  14.746  13.483   3.935
 4890SOL    HW216510  14.851  13.389   3.989
 4891SOL     OW16511  14.763   6.043   9.862
 4891SOL    HW116512  14.673   6.074   9.867
 4891SOL    HW216513  14.805   6.100   9.798
 4892SOL     OW16514   5.458   3.683  12.516
 4892SOL    HW116515   5.449   3.755  12.453
 4892SOL    HW216516   5.431   3.720  12.600
 4893SOL     OW16517   9.239  14.815  12.528
 4893SOL    HW116518   9.267  14.739  12.578
 4893SOL    HW216519   9.160  14.845  12.572
 4894SOL     OW16520   7.419   5.549  11.253
 4894SOL    HW116521   7.363   5.613  11.210
 4894SOL    HW216522   7.432   5.480  11.187
 4895SOL     OW16523   5.391   8.756   4.628
 4895SOL    HW116524   5.329   8.685   4.647
 4895SOL    HW216525   5.467   8.713   4.589
 4896SOL     OW16526   2.773   7.057  12.547
 4896SOL    HW116527   2.707   7.014  12.602
 4896SOL    HW216528   2.743   7.148  12.541
 4897SOL     OW16529  13.923   6.029   3.477
 4897SOL    HW116530  13.877   6.112   3.485
 4897SOL    HW216531  13.916   6.006   3.385
 4898SOL     OW16532   3.888   5.782   5.012
 4898SOL    HW116533   3.931   5.739   4.938
 4898SOL    HW216534   3.941   5.757   5.088
 4899SOL     OW16535   0.845   7.333   2.345
 4899SOL    HW116536   0.779   7.382   2.296
 4899SOL    HW216537   0.865   7.257   2.290
 4900SOL     OW16538   9.642  13.376   6.432
 4900SOL    HW116539   9.624  13.320   6.356
 4900SOL    HW216540   9.736  13.392   6.428
 4901SOL     OW16541   1.898  13.681  12.943
 4901SOL    HW116542   1.942  13.614  12.996
 4901SOL    HW216543   1.829  13.634  12.897
 4902SOL     OW16544  11.232   0.111  12.331
 4902SOL    HW116545  11.194   0.074  12.411
 4902SOL    HW216546  11.300   0.048  12.305
 4903SOL     OW16547   3.369   2.364  13.543
 4903SOL    HW116548   3.284   2.329  13.516
 4903SOL    HW216549   3.391   2.316  13.623
 4904SOL     OW16550  13.211   4.665  13.449
 4904SOL    HW116551  13.303   4.688  13.464
 4904SOL    HW216552  13.162   4.742  13.475
 4905SOL     OW16553   5.462   5.724  13.764
 4905SOL    HW116554   5.464   5.819  13.759
 4905SOL    HW216555   5.510   5.694  13.687
 4906SOL     OW16556  14.615   9.103   3.740
 4906SOL    HW116557  14.560   9.031   3.709
 4906SOL    HW216558  14.604   9.172   3.675
 4907SOL     OW16559   0.724  13.891  13.825
 4907SOL    HW116560   0.703  13.957  13.892
 4907SOL    HW216561   0.781  13.829  13.869
 4908SOL     OW16562  14.612  13.986   1.645
 4908SOL    HW116563  14.691  14.010   1.597
 4908SOL    HW216564  14.620  13.892   1.661
 4909SOL     OW16565   3.164   9.281   6.259
 4909SOL    HW116566   3.176   9.233   6.177
 4909SOL    HW216567   3.245   9.266   6.308
 4910SOL     OW16568   8.626   5.494   0.392
 4910SOL    HW116569   8.630   5.515   0.298
 4910SOL    HW216570   8.717   5.498   0.421
 4911SOL     OW16571   9.840   1.805   6.094
 4911SOL    HW116572   9.832   1.848   6.009
 4911SOL    HW216573   9.867   1.716   6.074
 4912SOL     OW16574   9.773   9.274   2.431
 4912SOL    HW116575   9.707   9.325   2.384
 4912SOL    HW216576   9.724   9.228   2.499
 4913SOL     OW16577  12.119  14.255   9.569
 4913SOL    HW116578  12.131  14.325   9.505
 4913SOL    HW216579  12.164  14.287   9.648
 4914SOL     OW16580  10.014   1.276   8.848
 4914SOL    HW116581  10.096   1.324   8.856
 4914SOL    HW216582   9.951   1.326   8.900
 4915SOL     OW16583  14.466   4.420  10.318
 4915SOL    HW116584  14.533   4.459  10.376
 4915SOL    HW216585  14.461   4.329  10.345
 4916SOL     OW16586   2.412   6.200   8.923
 4916SOL    HW116587   2.501   6.213   8.956
 4916SOL    HW216588   2.393   6.280   8.873
 4917SOL     OW16589   2.883  14.839   7.875
 4917SOL    HW116590   2.842  14.760   7.909
 4917SOL    HW216591   2.809   0.023   7.852
 4918SOL     OW16592   1.139   7.096   2.929
 4918SOL    HW116593   1.172   7.164   2.870
 4918SOL    HW216594   1.112   7.142   3.008
 4919SOL     OW16595   1.763   8.971   2.115
 4919SOL    HW116596   1.760   9.067   2.112
 4919SOL    HW216597   1.685   8.947   2.166
 4920SOL     OW16598   9.213   9.018   8.506
 4920SOL    HW116599   9.205   8.935   8.459
 4920SOL    HW216600   9.152   9.011   8.579
 4921SOL     OW16601   9.771   0.699   7.194
 4921SOL    HW116602   9.693   0.738   7.234
 4921SOL    HW216603   9.812   0.650   7.265
 4922SOL     OW16604   8.164   1.717  12.381
 4922SOL    HW116605   8.148   1.666  12.460
 4922SOL    HW216606   8.090   1.778  12.377
 4923SOL     OW16607   7.758  14.696  11.436
 4923SOL    HW116608   7.783  14.756  11.506
 4923SOL    HW216609   7.668  14.720  11.414
 4924SOL     OW16610   6.300   5.020   6.540
 4924SOL    HW116611   6.209   5.047   6.551
 4924SOL    HW216612   6.296   4.932   6.503
 4925SOL     OW16613   4.270   3.339  11.354
 4925SOL    HW116614   4.331   3.274  11.320
 4925SOL    HW216615   4.317   3.422  11.346
 4926SOL     OW16616  10.629   0.035   6.235
 4926SOL    HW116617  10.667   0.065   6.152
 4926SOL    HW216618  10.684   0.075   6.302
 4927SOL     OW16619  12.232   2.727  10.207
 4927SOL    HW116620  12.299   2.691  10.148
 4927SOL    HW216621  12.248   2.821  10.207
 4928SOL     OW16622   5.145  14.577  10.557
 4928SOL    HW116623   5.207  14.587  10.629
 4928SOL    HW216624   5.166  14.492  10.519
 4929SOL     OW16625   6.798   6.787   7.711
 4929SOL    HW116626   6.713   6.830   7.704
 4929SOL    HW216627   6.820   6.794   7.804
 4930SOL     OW16628   0.341   2.655   7.578
 4930SOL    HW116629   0.260   2.664   7.528
 4930SOL    HW216630   0.339   2.728   7.640
 4931SOL     OW16631   1.480   9.277   4.034
 4931SOL    HW116632   1.530   9.321   3.965
 4931SOL    HW216633   1.405   9.335   4.049
 4932SOL     OW16634   9.622  13.204   7.180
 4932SOL    HW116635   9.677  13.184   7.256
 4932SOL    HW216636   9.641  13.296   7.161
 4933SOL     OW16637   8.373   8.274   2.473
 4933SOL    HW116638   8.394   8.225   2.552
 4933SOL    HW216639   8.300   8.226   2.434
 4934SOL     OW16640  14.553   0.762  12.697
 4934SOL    HW116641  14.529   0.684  12.648
 4934SOL    HW216642  14.482   0.775  12.760
 4935SOL     OW16643   9.577   6.257  12.758
 4935SOL    HW116644   9.519   6.220  12.825
 4935SOL    HW216645   9.635   6.185  12.734
 4936SOL     OW16646  10.046   5.316  13.443
 4936SOL    HW116647  10.109   5.374  13.400
 4936SOL    HW216648   9.971   5.316  13.383
 4937SOL     OW16649   0.750  13.744   1.078
 4937SOL    HW116650   0.667  13.734   1.033
 4937SOL    HW216651   0.727  13.761   1.169
 4938SOL     OW16652  14.329   5.120   3.605
 4938SOL    HW116653  14.267   5.182   3.566
 4938SOL    HW216654  14.300   5.035   3.573
 4939SOL     OW16655   4.284   3.137   6.734
 4939SOL    HW116656   4.204   3.161   6.781
 4939SOL    HW216657   4.317   3.220   6.700
 4940SOL     OW16658   6.837   7.411   8.823
 4940SOL    HW116659   6.760   7.467   8.834
 4940SOL    HW216660   6.837   7.355   8.901
 4941SOL     OW16661   2.812   3.810   5.853
 4941SOL    HW116662   2.804   3.857   5.936
 4941SOL    HW216663   2.903   3.823   5.827
 4942SOL     OW16664   3.665   3.840   4.497
 4942SOL    HW116665   3.713   3.874   4.573
 4942SOL    HW216666   3.587   3.896   4.492
 4943SOL     OW16667  13.299   7.149  11.389
 4943SOL    HW116668  13.335   7.079  11.443
 4943SOL    HW216669  13.211   7.163  11.422
 4944SOL     OW16670   7.388   8.938   2.104
 4944SOL    HW116671   7.394   9.033   2.101
 4944SOL    HW216672   7.297   8.919   2.082
 4945SOL     OW16673   4.145   2.123   3.807
 4945SOL    HW116674   4.133   2.162   3.720
 4945SOL    HW216675   4.229   2.158   3.838
 4946SOL     OW16676   7.829   7.980   8.208
 4946SOL    HW116677   7.795   7.900   8.168
 4946SOL    HW216678   7.878   7.950   8.284
 4947SOL     OW16679  12.776   1.031   2.070
 4947SOL    HW116680  12.796   0.946   2.109
 4947SOL    HW216681  12.693   1.057   2.110
 4948SOL     OW16682   2.046  10.951  10.144
 4948SOL    HW116683   2.006  11.038  10.133
 4948SOL    HW216684   1.972  10.894  10.164
 4949SOL     OW16685  10.553  13.652  14.555
 4949SOL    HW116686  10.545  13.565  14.596
 4949SOL    HW216687  10.647  13.660  14.537
 4950SOL     OW16688  13.829   1.517   8.554
 4950SOL    HW116689  13.833   1.494   8.461
 4950SOL    HW216690  13.735   1.516   8.575
 4951SOL     OW16691  14.261  12.757   4.017
 4951SOL    HW116692  14.341  12.800   4.049
 4951SOL    HW216693  14.201  12.829   3.997
 4952SOL     OW16694   8.666  10.030   8.145
 4952SOL    HW116695   8.659  10.059   8.054
 4952SOL    HW216696   8.644   9.937   8.142
 4953SOL     OW16697   5.884  12.289   5.812
 4953SOL    HW116698   5.899  12.253   5.900
 4953SOL    HW216699   5.948  12.360   5.805
 4954SOL     OW16700   3.102   0.522   1.414
 4954SOL    HW116701   3.066   0.448   1.365
 4954SOL    HW216702   3.051   0.526   1.494
 4955SOL     OW16703   0.924   7.653   0.009
 4955SOL    HW116704   0.972   7.715  14.827
 4955SOL    HW216705   0.896   7.705   0.084
 4956SOL     OW16706  12.192   3.244   4.511
 4956SOL    HW116707  12.288   3.252   4.508
 4956SOL    HW216708  12.162   3.334   4.527
 4957SOL     OW16709   0.311  12.332   3.797
 4957SOL    HW116710   0.325  12.409   3.851
 4957SOL    HW216711   0.308  12.366   3.707
 4958SOL     OW16712   9.171   3.893   7.300
 4958SOL    HW116713   9.238   3.877   7.233
 4958SOL    HW216714   9.185   3.823   7.364
 4959SOL     OW16715   5.083  12.268   9.932
 4959SOL    HW116716   5.061  12.360   9.923
 4959SOL    HW216717   5.177  12.264   9.911
 4960SOL     OW16718   5.637   2.522   2.764
 4960SOL    HW116719   5.687   2.588   2.716
 4960SOL    HW216720   5.649   2.544   2.856
 4961SOL     OW16721   1.262  10.676  11.972
 4961SOL    HW116722   1.271  10.742  11.903
 4961SOL    HW216723   1.177  10.636  11.956
 4962SOL     OW16724   3.488   9.415  14.322
 4962SOL    HW116725   3.456   9.346  14.380
 4962SOL    HW216726   3.419   9.482  14.324
 4963SOL     OW16727  11.360   7.030   9.942
 4963SOL    HW116728  11.339   7.111   9.895
 4963SOL    HW216729  11.276   7.003   9.981
 4964SOL     OW16730   7.987   5.662  11.311
 4964SOL    HW116731   8.083   5.663  11.319
 4964SOL    HW216732   7.971   5.647  11.218
 4965SOL     OW16733   7.728   4.430   4.004
 4965SOL    HW116734   7.740   4.470   3.918
 4965SOL    HW216735   7.691   4.500   4.058
 4966SOL     OW16736  10.054   7.464  10.165
 4966SOL    HW116737  10.011   7.409  10.230
 4966SOL    HW216738   9.986   7.485  10.102
 4967SOL     OW16739  11.686   8.818  13.646
 4967SOL    HW116740  11.638   8.802  13.565
 4967SOL    HW216741  11.630   8.878  13.696
 4968SOL     OW16742   1.248   7.898   7.756
 4968SOL    HW116743   1.161   7.895   7.715
 4968SOL    HW216744   1.307   7.865   7.688
 4969SOL     OW16745   9.609   0.556  14.304
 4969SOL    HW116746   9.582   0.641  14.268
 4969SOL    HW216747   9.697   0.542  14.269
 4970SOL     OW16748   9.292  11.120  13.824
 4970SOL    HW116749   9.376  11.145  13.863
 4970SOL    HW216750   9.293  11.160  13.737
 4971SOL     OW16751   3.266   0.906   5.421
 4971SOL    HW116752   3.329   0.971   5.391
 4971SOL    HW216753   3.182   0.952   5.419
 4972SOL     OW16754  10.633   6.507  13.504
 4972SOL    HW116755  10.569   6.436  13.505
 4972SOL    HW216756  10.588   6.579  13.459
 4973SOL     OW16757   2.393  12.546   2.091
 4973SOL    HW116758   2.365  12.564   2.001
 4973SOL    HW216759   2.418  12.632   2.126
 4974SOL     OW16760   2.906   5.668  13.110
 4974SOL    HW116761   2.908   5.702  13.200
 4974SOL    HW216762   2.863   5.738  13.060
 4975SOL     OW16763   0.193  10.321   0.922
 4975SOL    HW116764   0.191  10.234   0.882
 4975SOL    HW216765   0.287  10.339   0.934
 4976SOL     OW16766  12.394   7.696   1.511
 4976SOL    HW116767  12.439   7.635   1.570
 4976SOL    HW216768  12.462   7.755   1.481
 4977SOL     OW16769   2.967   4.293   0.500
 4977SOL    HW116770   3.037   4.352   0.470
 4977SOL    HW216771   2.895   4.351   0.524
 4978SOL     OW16772   7.616   2.621  13.179
 4978SOL    HW116773   7.531   2.647  13.214
 4978SOL    HW216774   7.669   2.601  13.256
 4979SOL     OW16775  14.138   8.122   7.227
 4979SOL    HW116776  14.128   8.104   7.321
 4979SOL    HW216777  14.198   8.054   7.196
 4980SOL     OW16778   7.799  11.130  11.915
 4980SOL    HW116779   7.884  11.091  11.936
 4980SOL    HW216780   7.735  11.061  11.934
 4981SOL     OW16781   7.506   2.547  11.494
 4981SOL    HW116782   7.411   2.533  11.498
 4981SOL    HW216783   7.535   2.495  11.419
 4982SOL     OW16784   1.886   3.736   5.653
 4982SOL    HW116785   1.790   3.734   5.657
 4982SOL    HW216786   1.906   3.780   5.570
 4983SOL     OW16787   0.995   1.440   7.976
 4983SOL    HW116788   0.978   1.376   8.046
 4983SOL    HW216789   0.978   1.525   8.017
 4984SOL     OW16790   9.078   3.264   6.378
 4984SOL    HW116791   9.056   3.351   6.347
 4984SOL    HW216792   9.057   3.265   6.472
 4985SOL     OW16793   0.065   3.896   0.429
 4985SOL    HW116794   0.104   3.976   0.464
 4985SOL    HW216795  14.854   3.888   0.474
 4986SOL     OW16796   3.088  12.214   8.165
 4986SOL    HW116797   3.165  12.268   8.184
 4986SOL    HW216798   3.019  12.277   8.144
 4987SOL     OW16799  11.844   6.843   8.050
 4987SOL    HW116800  11.783   6.806   8.114
 4987SOL    HW216801  11.793   6.907   8.001
 4988SOL     OW16802  12.307  10.319   5.479
 4988SOL    HW116803  12.245  10.306   5.551
 4988SOL    HW216804  12.378  10.369   5.518
 4989SOL     OW16805   0.793  12.502  14.164
 4989SOL    HW116806   0.737  12.426  14.179
 4989SOL    HW216807   0.870  12.466  14.120
 4990SOL     OW16808   0.176   6.905   0.002
 4990SOL    HW116809   0.107   6.865  14.822
 4990SOL    HW216810   0.185   6.846   0.077
 4991SOL     OW16811   0.097   1.141  11.401
 4991SOL    HW116812   0.097   1.236  11.394
 4991SOL    HW216813   0.076   1.110  11.313
 4992SOL     OW16814   1.121  12.322   5.272
 4992SOL    HW116815   1.189  12.286   5.215
 4992SOL    HW216816   1.045  12.334   5.215
 4993SOL     OW16817  11.687   9.577   0.024
 4993SOL    HW116818  11.775   9.613   0.031
 4993SOL    HW216819  11.689   9.497   0.077
 4994SOL     OW16820   3.902   8.288   1.215
 4994SOL    HW116821   3.928   8.281   1.124
 4994SOL    HW216822   3.856   8.371   1.221
 4995SOL     OW16823   2.001   9.135   6.636
 4995SOL    HW116824   2.022   9.170   6.723
 4995SOL    HW216825   1.947   9.058   6.655
 4996SOL     OW16826   6.268  13.647   2.646
 4996SOL    HW116827   6.235  13.701   2.573
 4996SOL    HW216828   6.358  13.678   2.659
 4997SOL     OW16829   7.038  11.044  10.715
 4997SOL    HW116830   6.979  11.046  10.639
 4997SOL    HW216831   7.077  10.957  10.713
 4998SOL     OW16832   6.462   0.948  14.488
 4998SOL    HW116833   6.378   0.925  14.447
 4998SOL    HW216834   6.444   1.031  14.533
 4999SOL     OW16835   8.778  11.322  14.460
 4999SOL    HW116836   8.772  11.226  14.464
 4999SOL    HW216837   8.830  11.345  14.537
 5000SOL     OW16838   0.483   6.164  10.650
 5000SOL    HW116839   0.505   6.195  10.562
 5000SOL    HW216840   0.471   6.244  10.701
 5001SOL     OW16841  12.394   7.480  10.037
 5001SOL    HW116842  12.426   7.481  10.127
 5001SOL    HW216843  12.471   7.500   9.983
 5002SOL     OW16844   9.702  12.821  11.865
 5002SOL    HW116845   9.721  12.772  11.945
 5002SOL    HW216846   9.618  12.864  11.882
 5003SOL     OW16847  12.079   7.804  12.668
 5003SOL    HW116848  12.087   7.856  12.748
 5003SOL    HW216849  12.159   7.750  12.666
 5004SOL     OW16850   2.469   5.377   9.707
 5004SOL    HW116851   2.436   5.467   9.704
 5004SOL    HW216852   2.459   5.345   9.617
 5005SOL     OW16853  12.020   4.577   8.524
 5005SOL    HW116854  12.088   4.514   8.500
 5005SOL    HW216855  11.938   4.537   8.495
 5006SOL     OW16856   7.552   8.244   1.610
 5006SOL    HW116857   7.569   8.309   1.542
 5006SOL    HW216858   7.488   8.185   1.571
 5007SOL     OW16859   4.361   3.073  10.723
 5007SOL    HW116860   4.425   3.025  10.776
 5007SOL    HW216861   4.276   3.053  10.763
 5008SOL     OW16862   7.183  10.456   7.653
 5008SOL    HW116863   7.205  10.376   7.606
 5008SOL    HW216864   7.248  10.520   7.624
 5009SOL     OW16865   6.548   1.778   0.554
 5009SOL    HW116866   6.641   1.757   0.557
 5009SOL    HW216867   6.508   1.703   0.511
 5010SOL     OW16868   1.819  14.433  11.385
 5010SOL    HW116869   1.865  14.501  11.336
 5010SOL    HW216870   1.886  14.368  11.405
 5011SOL     OW16871   8.082   1.196   1.729
 5011SOL    HW116872   8.110   1.285   1.750
 5011SOL    HW216873   8.000   1.207   1.682
 5012SOL     OW16874   3.870   2.951   9.265
 5012SOL    HW116875   3.885   3.031   9.214
 5012SOL    HW216876   3.928   2.886   9.225
 5013SOL     OW16877  12.479  11.489  14.623
 5013SOL    HW116878  12.501  11.399  14.647
 5013SOL    HW216879  12.387  11.498  14.646
 5014SOL     OW16880  12.909   2.302   8.278
 5014SOL    HW116881  12.863   2.306   8.362
 5014SOL    HW216882  12.995   2.339   8.297
 5015SOL     OW16883   9.234   3.844  14.769
 5015SOL    HW116884   9.179   3.920  14.786
 5015SOL    HW216885   9.318   3.865  14.808
 5016SOL     OW16886   6.761  11.108  14.674
 5016SOL    HW116887   6.717  11.075  14.596
 5016SOL    HW216888   6.828  11.043  14.694
 5017SOL     OW16889  11.381  12.214   5.685
 5017SOL    HW116890  11.466  12.188   5.651
 5017SOL    HW216891  11.400  12.251   5.772
 5018SOL     OW16892   4.753  13.502  10.908
 5018SOL    HW116893   4.738  13.597  10.909
 5018SOL    HW216894   4.665  13.465  10.902
 5019SOL     OW16895   5.741   1.275   3.099
 5019SOL    HW116896   5.830   1.240   3.098
 5019SOL    HW216897   5.695   1.227   3.030
 5020SOL     OW16898   5.043  11.535   5.257
 5020SOL    HW116899   5.077  11.601   5.197
 5020SOL    HW216900   5.036  11.579   5.341
 5021SOL     OW16901  14.055   2.423   3.246
 5021SOL    HW116902  14.150   2.434   3.240
 5021SOL    HW216903  14.020   2.507   3.218
 5022SOL     OW16904  11.254  14.021  12.626
 5022SOL    HW116905  11.199  14.065  12.562
 5022SOL    HW216906  11.343  14.043  12.601
 5023SOL     OW16907   8.372   2.450  12.092
 5023SOL    HW116908   8.456   2.491  12.071
 5023SOL    HW216909   8.381   2.420  12.182
 5024SOL     OW16910  12.432   2.155   7.472
 5024SOL    HW116911  12.342   2.133   7.498
 5024SOL    HW216912  12.477   2.070   7.470
 5025SOL     OW16913   4.499   0.626   8.925
 5025SOL    HW116914   4.407   0.609   8.904
 5025SOL    HW216915   4.505   0.607   9.019
 5026SOL     OW16916   8.344  14.649   7.329
 5026SOL    HW116917   8.259  14.672   7.291
 5026SOL    HW216918   8.324  14.579   7.391
 5027SOL     OW16919  14.736   4.565   0.756
 5027SOL    HW116920  14.648   4.590   0.784
 5027SOL    HW216921  14.736   4.577   0.661
 5028SOL     OW16922   3.999   5.760  14.179
 5028SOL    HW116923   4.043   5.792  14.100
 5028SOL    HW216924   3.917   5.809  14.182
 5029SOL     OW16925  12.132  11.571   9.170
 5029SOL    HW116926  12.208  11.554   9.114
 5029SOL    HW216927  12.113  11.664   9.157
 5030SOL     OW16928  13.549  10.345   2.636
 5030SOL    HW116929  13.615  10.359   2.704
 5030SOL    HW216930  13.472  10.393   2.667
 5031SOL     OW16931   1.252  10.842   4.139
 5031SOL    HW116932   1.233  10.914   4.200
 5031SOL    HW216933   1.167  10.799   4.126
 5032SOL     OW16934   9.999   6.860   3.508
 5032SOL    HW116935   9.967   6.881   3.420
 5032SOL    HW216936   9.956   6.924   3.565
 5033SOL     OW16937   9.622  13.731   9.680
 5033SOL    HW116938   9.585  13.655   9.636
 5033SOL    HW216939   9.717  13.719   9.673
 5034SOL     OW16940  11.208   5.232  10.665
 5034SOL    HW116941  11.214   5.326  10.682
 5034SOL    HW216942  11.295   5.207  10.636
 5035SOL     OW16943   7.378  11.934   5.873
 5035SOL    HW116944   7.426  11.991   5.933
 5035SOL    HW216945   7.324  11.879   5.930
 5036SOL     OW16946   0.363  11.594  14.809
 5036SOL    HW116947   0.296  11.641  14.758
 5036SOL    HW216948   0.324  11.510  14.829
 5037SOL     OW16949  12.975  12.001   3.132
 5037SOL    HW116950  13.057  12.041   3.105
 5037SOL    HW216951  12.912  12.028   3.066
 5038SOL     OW16952   7.549   6.050   6.646
 5038SOL    HW116953   7.459   6.019   6.631
 5038SOL    HW216954   7.539   6.143   6.665
 5039SOL     OW16955  13.370   5.168   5.337
 5039SOL    HW116956  13.432   5.126   5.277
 5039SOL    HW216957  13.311   5.098   5.363
 5040SOL     OW16958   7.280   3.751   5.336
 5040SOL    HW116959   7.230   3.690   5.281
 5040SOL    HW216960   7.341   3.696   5.384
 5041SOL     OW16961  13.290   1.630   7.276
 5041SOL    HW116962  13.283   1.704   7.336
 5041SOL    HW216963  13.210   1.579   7.291
 5042SOL     OW16964   1.279  10.006   4.848
 5042SOL    HW116965   1.360  10.013   4.899
 5042SOL    HW216966   1.306  10.021   4.757
 5043SOL     OW16967  13.692   3.096   8.584
 5043SOL    HW116968  13.681   3.137   8.669
 5043SOL    HW216969  13.747   3.157   8.535
 5044SOL     OW16970  13.210   8.352   4.449
 5044SOL    HW116971  13.234   8.346   4.541
 5044SOL    HW216972  13.290   8.326   4.403
 5045SOL     OW16973   0.184  13.513  14.699
 5045SOL    HW116974   0.137  13.549  14.774
 5045SOL    HW216975   0.191  13.586  14.638
 5046SOL     OW16976   6.739   3.496   6.191
 5046SOL    HW116977   6.668   3.517   6.252
 5046SOL    HW216978   6.695   3.461   6.113
 5047SOL     OW16979   2.832   5.927  11.408
 5047SOL    HW116980   2.819   6.020  11.392
 5047SOL    HW216981   2.916   5.906  11.366
 5048SOL     OW16982   0.887   8.999   4.010
 5048SOL    HW116983   0.941   9.032   3.938
 5048SOL    HW216984   0.944   9.003   4.087
 5049SOL     OW16985   3.826   2.619   2.866
 5049SOL    HW116986   3.822   2.549   2.802
 5049SOL    HW216987   3.781   2.693   2.824
 5050SOL     OW16988  12.862   3.580   0.962
 5050SOL    HW116989  12.836   3.504   1.014
 5050SOL    HW216990  12.947   3.606   0.999
 5051SOL     OW16991   7.080   4.984  13.733
 5051SOL    HW116992   7.063   4.978  13.827
 5051SOL    HW216993   7.031   4.911  13.695
 5052SOL     OW16994  12.792  11.419  11.783
 5052SOL    HW116995  12.768  11.448  11.695
 5052SOL    HW216996  12.737  11.343  11.799
 5053SOL     OW16997   3.684   5.466   4.296
 5053SOL    HW116998   3.738   5.545   4.294
 5053SOL    HW216999   3.656   5.458   4.387
 5054SOL     OW17000   0.334   2.451  14.436
 5054SOL    HW117001   0.404   2.457  14.370
 5054SOL    HW217002   0.254   2.445  14.384
 5055SOL     OW17003   8.661   2.518   2.847
 5055SOL    HW117004   8.705   2.464   2.782
 5055SOL    HW217005   8.695   2.607   2.831
 5056SOL     OW17006   3.473   3.127  14.182
 5056SOL    HW117007   3.421   3.190  14.132
 5056SOL    HW217008   3.413   3.055  14.199
 5057SOL     OW17009   2.159  12.214   3.522
 5057SOL    HW117010   2.175  12.120   3.518
 5057SOL    HW217011   2.245  12.254   3.506
 5058SOL     OW17012  11.739  13.535   3.417
 5058SOL    HW117013  11.803  13.534   3.347
 5058SOL    HW217014  11.704  13.445   3.419
 5059SOL     OW17015  13.062   6.654   3.269
 5059SOL    HW117016  12.985   6.600   3.286
 5059SOL    HW217017  13.113   6.649   3.350
 5060SOL     OW17018  12.804   4.041  13.312
 5060SOL    HW117019  12.890   4.080  13.294
 5060SOL    HW217020  12.752   4.113  13.348
 5061SOL     OW17021  13.910   3.032  12.245
 5061SOL    HW117022  13.850   3.067  12.311
 5061SOL    HW217023  13.858   2.968  12.196
 5062SOL     OW17024  12.294  10.096   0.557
 5062SOL    HW117025  12.204  10.115   0.530
 5062SOL    HW217026  12.348  10.143   0.493
 5063SOL     OW17027  10.726   5.174   1.145
 5063SOL    HW117028  10.649   5.159   1.090
 5063SOL    HW217029  10.789   5.108   1.117
 5064SOL     OW17030   6.163   5.107   8.806
 5064SOL    HW117031   6.144   5.042   8.873
 5064SOL    HW217032   6.080   5.121   8.761
 5065SOL     OW17033   3.520   4.649   6.751
 5065SOL    HW117034   3.602   4.653   6.801
 5065SOL    HW217035   3.463   4.713   6.794
 5066SOL     OW17036   5.786   7.382  12.748
 5066SOL    HW117037   5.782   7.372  12.653
 5066SOL    HW217038   5.695   7.376  12.776
 5067SOL     OW17039   2.170   1.827   0.788
 5067SOL    HW117040   2.145   1.741   0.755
 5067SOL    HW217041   2.187   1.813   0.882
 5068SOL     OW17042   8.133  13.503  12.449
 5068SOL    HW117043   8.210  13.457  12.416
 5068SOL    HW217044   8.065  13.486  12.385
 5069SOL     OW17045   3.445  11.011   7.173
 5069SOL    HW117046   3.495  10.958   7.235
 5069SOL    HW217047   3.498  11.090   7.161
 5070SOL     OW17048   8.418  10.660   9.160
 5070SOL    HW117049   8.429  10.568   9.183
 5070SOL    HW217050   8.506  10.691   9.141
 5071SOL     OW17051  10.763   8.342   4.982
 5071SOL    HW117052  10.803   8.313   5.064
 5071SOL    HW217053  10.737   8.433   4.999
 5072SOL     OW17054   7.165   4.079   1.321
 5072SOL    HW117055   7.105   4.141   1.279
 5072SOL    HW217056   7.186   4.015   1.253
 5073SOL     OW17057   4.407  10.711   5.864
 5073SOL    HW117058   4.445  10.780   5.917
 5073SOL    HW217059   4.315  10.736   5.852
 5074SOL     OW17060   3.428  11.836   1.051
 5074SOL    HW117061   3.499  11.774   1.072
 5074SOL    HW217062   3.391  11.858   1.136
 5075SOL     OW17063   0.849  13.645   7.703
 5075SOL    HW117064   0.905  13.701   7.756
 5075SOL    HW217065   0.785  13.609   7.766
 5076SOL     OW17066   7.271  12.893  13.854
 5076SOL    HW117067   7.312  12.858  13.933
 5076SOL    HW217068   7.263  12.987  13.869
 5077SOL     OW17069   5.378   2.541  13.062
 5077SOL    HW117070   5.316   2.469  13.076
 5077SOL    HW217071   5.428   2.515  12.985
 5078SOL     OW17072   9.176   1.234  12.572
 5078SOL    HW117073   9.188   1.160  12.512
 5078SOL    HW217074   9.250   1.228  12.632
 5079SOL     OW17075   3.009   4.476   1.355
 5079SOL    HW117076   2.996   4.400   1.298
 5079SOL    HW217077   2.988   4.444   1.443
 5080SOL     OW17078   3.659   8.844   7.514
 5080SOL    HW117079   3.666   8.911   7.446
 5080SOL    HW217080   3.616   8.770   7.470
 5081SOL     OW17081  13.658  13.710  14.333
 5081SOL    HW117082  13.630  13.800  14.348
 5081SOL    HW217083  13.739  13.719  14.283
 5082SOL     OW17084  10.624  14.578   0.348
 5082SOL    HW117085  10.541  14.600   0.305
 5082SOL    HW217086  10.607  14.594   0.441
 5083SOL     OW17087   6.517  14.500  14.094
 5083SOL    HW117088   6.543  14.424  14.041
 5083SOL    HW217089   6.445  14.468  14.148
 5084SOL     OW17090  14.828  11.677   6.852
 5084SOL    HW117091  14.872  11.739   6.909
 5084SOL    HW217092   0.003  11.595   6.863
 5085SOL     OW17093   2.729   5.252   4.216
 5085SOL    HW117094   2.814   5.295   4.205
 5085SOL    HW217095   2.723   5.190   4.143
 5086SOL     OW17096   5.766  12.697   5.790
 5086SOL    HW117097   5.844  12.750   5.800
 5086SOL    HW217098   5.703  12.754   5.747
 5087SOL     OW17099   4.256   6.828   5.797
 5087SOL    HW117100   4.331   6.770   5.782
 5087SOL    HW217101   4.270   6.901   5.737
 5088SOL     OW17102   7.634   3.776   9.307
 5088SOL    HW117103   7.610   3.727   9.228
 5088SOL    HW217104   7.587   3.859   9.299
 5089SOL     OW17105   5.512   3.626   6.858
 5089SOL    HW117106   5.574   3.592   6.793
 5089SOL    HW217107   5.547   3.597   6.942
 5090SOL     OW17108   9.035   4.743  13.004
 5090SOL    HW117109   9.070   4.814  13.057
 5090SOL    HW217110   8.944   4.736  13.030
 5091SOL     OW17111  12.487   2.776  11.541
 5091SOL    HW117112  12.427   2.707  11.515
 5091SOL    HW217113  12.528   2.805  11.460
 5092SOL     OW17114   0.813   6.457   2.981
 5092SOL    HW117115   0.766   6.399   3.042
 5092SOL    HW217116   0.904   6.456   3.012
 5093SOL     OW17117   8.083   9.253   4.457
 5093SOL    HW117118   7.997   9.241   4.417
 5093SOL    HW217119   8.106   9.345   4.438
 5094SOL     OW17120  10.602   7.106  13.525
 5094SOL    HW117121  10.693   7.079  13.534
 5094SOL    HW217122  10.574   7.067  13.442
 5095SOL     OW17123   2.788   0.968   1.355
 5095SOL    HW117124   2.855   1.009   1.409
 5095SOL    HW217125   2.832   0.948   1.272
 5096SOL     OW17126   4.946   9.945   7.053
 5096SOL    HW117127   4.915  10.034   7.033
 5096SOL    HW217128   5.000   9.921   6.978
 5097SOL     OW17129   8.303   2.911   4.452
 5097SOL    HW117130   8.387   2.939   4.414
 5097SOL    HW217131   8.258   2.867   4.379
 5098SOL     OW17132  10.206   0.338   8.213
 5098SOL    HW117133  10.192   0.432   8.201
 5098SOL    HW217134  10.230   0.306   8.126
 5099SOL     OW17135  12.920  14.834   4.747
 5099SOL    HW117136  12.926   0.053   4.721
 5099SOL    HW217137  12.831  14.808   4.721
 5100SOL     OW17138   8.214  11.495   3.409
 5100SOL    HW117139   8.280  11.512   3.342
 5100SOL    HW217140   8.263  11.498   3.492
 5101SOL     OW17141   0.103  13.428   1.344
 5101SOL    HW117142   0.119  13.492   1.274
 5101SOL    HW217143   0.107  13.480   1.424
 5102SOL     OW17144  14.653   9.275   2.789
 5102SOL    HW117145  14.663   9.252   2.881
 5102SOL    HW217146  14.741   9.270   2.752
 5103SOL     OW17147   9.187   9.645   0.915
 5103SOL    HW117148   9.118   9.683   0.860
 5103SOL    HW217149   9.187   9.552   0.892
 5104SOL     OW17150  14.459   0.369  14.813
 5104SOL    HW117151  14.487   0.458  14.789
 5104SOL    HW217152  14.492   0.314  14.743
 5105SOL     OW17153   7.945  11.413  13.639
 5105SOL    HW117154   7.998  11.449  13.709
 5105SOL    HW217155   7.999  11.345  13.600
 5106SOL     OW17156  14.452   8.224   4.168
 5106SOL    HW117157  14.360   8.237   4.190
 5106SOL    HW217158  14.480   8.152   4.224
 5107SOL     OW17159  11.995   6.022   6.126
 5107SOL    HW117160  11.927   5.964   6.162
 5107SOL    HW217161  11.955   6.109   6.127
 5108SOL     OW17162   0.521   7.564   7.781
 5108SOL    HW117163   0.457   7.507   7.738
 5108SOL    HW217164   0.491   7.653   7.761
 5109SOL     OW17165   5.481   7.540  11.093
 5109SOL    HW117166   5.454   7.450  11.074
 5109SOL    HW217167   5.514   7.573  11.009
 5110SOL     OW17168   9.867   1.474  12.595
 5110SOL    HW117169   9.777   1.505  12.586
 5110SOL    HW217170   9.909   1.539  12.651
 5111SOL     OW17171  13.014   0.675   4.764
 5111SOL    HW117172  13.090   0.733   4.766
 5111SOL    HW217173  12.946   0.722   4.813
 5112SOL     OW17174  13.144   7.862  14.469
 5112SOL    HW117175  13.117   7.887  14.557
 5112SOL    HW217176  13.135   7.766  14.467
 5113SOL     OW17177   8.159   1.175   4.892
 5113SOL    HW117178   8.187   1.110   4.957
 5113SOL    HW217179   8.240   1.207   4.853
 5114SOL     OW17180  10.957   4.487   0.250
 5114SOL    HW117181  10.896   4.447   0.188
 5114SOL    HW217182  10.927   4.458   0.336
 5115SOL     OW17183   3.627   4.906  14.124
 5115SOL    HW117184   3.637   4.990  14.167
 5115SOL    HW217185   3.682   4.846  14.174
 5116SOL     OW17186   2.766   6.517   9.550
 5116SOL    HW117187   2.721   6.570   9.483
 5116SOL    HW217188   2.858   6.518   9.523
 5117SOL     OW17189  14.399   3.705   6.676
 5117SOL    HW117190  14.369   3.673   6.761
 5117SOL    HW217191  14.319   3.717   6.626
 5118SOL     OW17192  13.125   1.503   5.417
 5118SOL    HW117193  13.161   1.447   5.348
 5118SOL    HW217194  13.124   1.591   5.378
 5119SOL     OW17195   9.806   3.775   1.930
 5119SOL    HW117196   9.765   3.735   1.854
 5119SOL    HW217197   9.899   3.751   1.923
 5120SOL     OW17198   1.548   3.176   0.685
 5120SOL    HW117199   1.553   3.149   0.776
 5120SOL    HW217200   1.454   3.180   0.666
 5121SOL     OW17201   2.932   9.272   9.049
 5121SOL    HW117202   3.017   9.230   9.062
 5121SOL    HW217203   2.883   9.251   9.129
 5122SOL     OW17204   1.101  11.919  11.332
 5122SOL    HW117205   1.020  11.874  11.356
 5122SOL    HW217206   1.142  11.861  11.267
 5123SOL     OW17207   9.280   0.085  11.510
 5123SOL    HW117208   9.365   0.107  11.548
 5123SOL    HW217209   9.235   0.035  11.578
 5124SOL     OW17210  11.347   3.232   3.401
 5124SOL    HW117211  11.314   3.155   3.448
 5124SOL    HW217212  11.277   3.255   3.340
 5125SOL     OW17213   3.058   6.503   8.608
 5125SOL    HW117214   3.061   6.559   8.686
 5125SOL    HW217215   3.125   6.539   8.550
 5126SOL     OW17216   9.319  13.428   9.136
 5126SOL    HW117217   9.292  13.519   9.151
 5126SOL    HW217218   9.404  13.435   9.094
 5127SOL     OW17219  14.139   4.095  10.128
 5127SOL    HW117220  14.127   4.028  10.196
 5127SOL    HW217221  14.149   4.045  10.047
 5128SOL     OW17222   6.380  13.828   6.023
 5128SOL    HW117223   6.456  13.851   5.969
 5128SOL    HW217224   6.409  13.843   6.113
 5129SOL     OW17225   3.467  10.710   3.465
 5129SOL    HW117226   3.495  10.643   3.403
 5129SOL    HW217227   3.467  10.666   3.550
 5130SOL     OW17228  12.278   5.847   9.934
 5130SOL    HW117229  12.187   5.869   9.912
 5130SOL    HW217230  12.330   5.916   9.893
 5131SOL     OW17231   8.168   9.232   7.850
 5131SOL    HW117232   8.207   9.149   7.877
 5131SOL    HW217233   8.132   9.214   7.763
 5132SOL     OW17234  11.582  10.360   5.560
 5132SOL    HW117235  11.562  10.325   5.646
 5132SOL    HW217236  11.591  10.282   5.504
 5133SOL     OW17237   7.636  13.512   2.594
 5133SOL    HW117238   7.714  13.471   2.631
 5133SOL    HW217239   7.658  13.605   2.589
 5134SOL     OW17240  10.765   9.465  10.708
 5134SOL    HW117241  10.722   9.454  10.793
 5134SOL    HW217242  10.855   9.438  10.723
 5135SOL     OW17243  12.386  13.146   8.720
 5135SOL    HW117244  12.307  13.117   8.675
 5135SOL    HW217245  12.396  13.237   8.694
 5136SOL     OW17246   0.250   0.492  13.598
 5136SOL    HW117247   0.193   0.497  13.521
 5136SOL    HW217248   0.239   0.576  13.641
 5137SOL     OW17249  12.080   2.770   1.829
 5137SOL    HW117250  11.998   2.816   1.845
 5137SOL    HW217251  12.091   2.713   1.906
 5138SOL     OW17252   1.718   4.999   8.164
 5138SOL    HW117253   1.646   5.028   8.108
 5138SOL    HW217254   1.767   4.937   8.110
 5139SOL     OW17255  11.626   4.667  14.427
 5139SOL    HW117256  11.579   4.624  14.498
 5139SOL    HW217257  11.712   4.688  14.464
 5140SOL     OW17258   1.601   4.795   4.579
 5140SOL    HW117259   1.587   4.861   4.510
 5140SOL    HW217260   1.628   4.846   4.655
 5141SOL     OW17261  11.156   8.578   3.231
 5141SOL    HW117262  11.235   8.581   3.286
 5141SOL    HW217263  11.184   8.616   3.148
 5142SOL     OW17264   6.300   5.598   4.998
 5142SOL    HW117265   6.351   5.628   5.073
 5142SOL    HW217266   6.302   5.673   4.937
 5143SOL     OW17267   5.006   3.407  12.496
 5143SOL    HW117268   5.092   3.423  12.536
 5143SOL    HW217269   4.963   3.493  12.495
 5144SOL     OW17270  13.875   4.105   9.925
 5144SOL    HW117271  13.865   4.080  10.017
 5144SOL    HW217272  13.789   4.139   9.899
 5145SOL     OW17273   0.514   3.588   6.207
 5145SOL    HW117274   0.586   3.537   6.170
 5145SOL    HW217275   0.451   3.598   6.135
 5146SOL     OW17276   0.102   9.726   2.536
 5146SOL    HW117277   0.028   9.674   2.503
 5146SOL    HW217278   0.130   9.778   2.460
 5147SOL     OW17279   5.312   6.235   3.679
 5147SOL    HW117280   5.273   6.311   3.724
 5147SOL    HW217281   5.404   6.259   3.668
 5148SOL     OW17282  10.764   2.883  12.735
 5148SOL    HW117283  10.803   2.795  12.734
 5148SOL    HW217284  10.781   2.917  12.647
 5149SOL     OW17285   5.594   4.226  11.336
 5149SOL    HW117286   5.658   4.211  11.267
 5149SOL    HW217287   5.597   4.148  11.390
 5150SOL     OW17288   8.266   0.642   3.408
 5150SOL    HW117289   8.290   0.715   3.351
 5150SOL    HW217290   8.335   0.577   3.394
 5151SOL     OW17291   5.410  10.025   0.895
 5151SOL    HW117292   5.440  10.077   0.970
 5151SOL    HW217293   5.360   9.953   0.933
 5152SOL     OW17294  13.605   9.149   1.930
 5152SOL    HW117295  13.512   9.153   1.908
 5152SOL    HW217296  13.643   9.227   1.889
 5153SOL     OW17297   9.690  12.011   3.106
 5153SOL    HW117298   9.656  12.100   3.121
 5153SOL    HW217299   9.785  12.020   3.116
 5154SOL     OW17300  11.573   1.959   9.537
 5154SOL    HW117301  11.644   1.964   9.473
 5154SOL    HW217302  11.607   2.004   9.614
 5155SOL     OW17303   2.804   8.203   3.450
 5155SOL    HW117304   2.878   8.151   3.482
 5155SOL    HW217305   2.835   8.293   3.450
 5156SOL     OW17306   4.134  14.012  13.904
 5156SOL    HW117307   4.088  13.931  13.928
 5156SOL    HW217308   4.201  14.022  13.972
 5157SOL     OW17309   0.719   6.073   9.237
 5157SOL    HW117310   0.730   6.163   9.205
 5157SOL    HW217311   0.804   6.052   9.277
 5158SOL     OW17312  13.965  10.358   0.833
 5158SOL    HW117313  13.956  10.401   0.918
 5158SOL    HW217314  13.875  10.348   0.802
 5159SOL     OW17315  12.908   2.779  13.382
 5159SOL    HW117316  12.836   2.716  13.378
 5159SOL    HW217317  12.866   2.863  13.395
 5160SOL     OW17318  13.489   0.007   7.855
 5160SOL    HW117319  13.436   0.081   7.827
 5160SOL    HW217320  13.482   0.008   7.951
 5161SOL     OW17321   6.934   6.311   5.388
 5161SOL    HW117322   7.015   6.283   5.346
 5161SOL    HW217323   6.895   6.230   5.421
 5162SOL     OW17324  14.342   7.825   2.884
 5162SOL    HW117325  14.369   7.809   2.793
 5162SOL    HW217326  14.419   7.863   2.926
 5163SOL     OW17327   6.811   3.658   1.733
 5163SOL    HW117328   6.780   3.590   1.673
 5163SOL    HW217329   6.855   3.610   1.803
 5164SOL     OW17330   7.695  10.931   3.403
 5164SOL    HW117331   7.600  10.919   3.401
 5164SOL    HW217332   7.709  10.997   3.471
 5165SOL     OW17333   4.856   0.546  12.968
 5165SOL    HW117334   4.930   0.576  13.020
 5165SOL    HW217335   4.852   0.607  12.894
 5166SOL     OW17336   8.165   7.253   0.499
 5166SOL    HW117337   8.175   7.322   0.564
 5166SOL    HW217338   8.110   7.188   0.543
 5167SOL     OW17339   3.195  12.887   6.215
 5167SOL    HW117340   3.285  12.896   6.184
 5167SOL    HW217341   3.153  12.833   6.148
 5168SOL     OW17342   3.671   1.594   9.274
 5168SOL    HW117343   3.763   1.614   9.292
 5168SOL    HW217344   3.671   1.561   9.184
 5169SOL     OW17345  12.256   5.996  14.769
 5169SOL    HW117346  12.318   6.000  14.695
 5169SOL    HW217347  12.210   5.913  14.758
 5170SOL     OW17348   4.915   0.820  10.790
 5170SOL    HW117349   4.860   0.854  10.719
 5170SOL    HW217350   4.863   0.832  10.869
 5171SOL     OW17351   0.879  13.827   5.051
 5171SOL    HW117352   0.804  13.773   5.077
 5171SOL    HW217353   0.946  13.764   5.023
 5172SOL     OW17354   6.447   3.226   6.099
 5172SOL    HW117355   6.355   3.202   6.093
 5172SOL    HW217356   6.452   3.281   6.177
 5173SOL     OW17357   9.641   8.784   4.990
 5173SOL    HW117358   9.731   8.766   5.015
 5173SOL    HW217359   9.624   8.872   5.023
 5174SOL     OW17360   5.226  13.274   8.513
 5174SOL    HW117361   5.311  13.318   8.521
 5174SOL    HW217362   5.190  13.275   8.602
 5175SOL     OW17363  11.118  12.524   7.341
 5175SOL    HW117364  11.214  12.528   7.337
 5175SOL    HW217365  11.089  12.557   7.257
 5176SOL     OW17366  13.585  13.228   0.191
 5176SOL    HW117367  13.670  13.272   0.197
 5176SOL    HW217368  13.522  13.292   0.223
 5177SOL     OW17369   8.517  14.261   3.218
 5177SOL    HW117370   8.522  14.167   3.235
 5177SOL    HW217371   8.494  14.266   3.125
 5178SOL     OW17372   1.073   7.013  12.731
 5178SOL    HW117373   1.065   6.921  12.757
 5178SOL    HW217374   1.120   7.010  12.647
 5179SOL     OW17375  14.429   5.357   4.374
 5179SOL    HW117376  14.399   5.355   4.284
 5179SOL    HW217377  14.356   5.393   4.423
 5180SOL     OW17378   8.443   3.401   5.351
 5180SOL    HW117379   8.383   3.350   5.297
 5180SOL    HW217380   8.411   3.390   5.440
 5181SOL     OW17381  10.694   7.101  14.687
 5181SOL    HW117382  10.750   7.036  14.643
 5181SOL    HW217383  10.741   7.184  14.675
 5182SOL     OW17384   5.539   6.347   7.377
 5182SOL    HW117385   5.517   6.411   7.445
 5182SOL    HW217386   5.455   6.326   7.336
 5183SOL     OW17387   8.248   1.348  13.875
 5183SOL    HW117388   8.230   1.283  13.943
 5183SOL    HW217389   8.187   1.325  13.804
 5184SOL     OW17390   5.334   8.257   9.182
 5184SOL    HW117391   5.384   8.319   9.235
 5184SOL    HW217392   5.264   8.227   9.240
 5185SOL     OW17393   1.564  13.726  10.465
 5185SOL    HW117394   1.556  13.675  10.384
 5185SOL    HW217395   1.580  13.661  10.533
 5186SOL     OW17396   8.445   5.018  11.876
 5186SOL    HW117397   8.509   5.021  11.947
 5186SOL    HW217398   8.360   5.011  11.921
 5187SOL     OW17399   1.000   5.733  12.574
 5187SOL    HW117400   0.925   5.747  12.631
 5187SOL    HW217401   1.061   5.680  12.626
 5188SOL     OW17402   0.406   8.712  12.480
 5188SOL    HW117403   0.312   8.730  12.479
 5188SOL    HW217404   0.413   8.623  12.514
 5189SOL     OW17405   1.842   9.806  11.968
 5189SOL    HW117406   1.846   9.836  12.059
 5189SOL    HW217407   1.784   9.868  11.925
 5190SOL     OW17408   2.347   7.658   0.130
 5190SOL    HW117409   2.319   7.569   0.150
 5190SOL    HW217410   2.326   7.708   0.209
 5191SOL     OW17411   6.023   2.099   3.990
 5191SOL    HW117412   6.003   2.142   3.907
 5191SOL    HW217413   5.937   2.079   4.027
 5192SOL     OW17414   6.847   3.836  13.506
 5192SOL    HW117415   6.813   3.863  13.591
 5192SOL    HW217416   6.848   3.917  13.454
 5193SOL     OW17417   4.675  12.425  11.782
 5193SOL    HW117418   4.603  12.486  11.765
 5193SOL    HW217419   4.633  12.349  11.823
 5194SOL     OW17420   1.733   7.358  12.153
 5194SOL    HW117421   1.779   7.431  12.194
 5194SOL    HW217422   1.790   7.282  12.166
 5195SOL     OW17423  11.898  11.632   6.026
 5195SOL    HW117424  11.885  11.723   6.000
 5195SOL    HW217425  11.883  11.631   6.121
 5196SOL     OW17426   8.040   9.685  11.442
 5196SOL    HW117427   7.997   9.600  11.436
 5196SOL    HW217428   7.985   9.735  11.502
 5197SOL     OW17429   8.252   8.054   4.541
 5197SOL    HW117430   8.168   8.025   4.504
 5197SOL    HW217431   8.244   8.149   4.546
 5198SOL     OW17432  11.684   2.999   5.582
 5198SOL    HW117433  11.765   3.046   5.601
 5198SOL    HW217434  11.621   3.067   5.561
 5199SOL     OW17435  14.170   2.502   6.780
 5199SOL    HW117436  14.187   2.514   6.687
 5199SOL    HW217437  14.217   2.423   6.804
 5200SOL     OW17438   4.838   7.359   5.415
 5200SOL    HW117439   4.800   7.272   5.426
 5200SOL    HW217440   4.802   7.391   5.333
 5201SOL     OW17441  10.674   6.084   4.443
 5201SOL    HW117442  10.750   6.064   4.388
 5201SOL    HW217443  10.601   6.039   4.400
 5202SOL     OW17444  13.045   5.629   9.453
 5202SOL    HW117445  13.004   5.562   9.399
 5202SOL    HW217446  13.115   5.583   9.500
 5203SOL     OW17447  13.590   1.566   1.984
 5203SOL    HW117448  13.667   1.539   2.034
 5203SOL    HW217449  13.623   1.635   1.926
 5204SOL     OW17450   0.129   6.507   8.452
 5204SOL    HW117451   0.067   6.570   8.415
 5204SOL    HW217452   0.094   6.421   8.427
 5205SOL     OW17453   3.087   8.883   6.896
 5205SOL    HW117454   3.016   8.836   6.852
 5205SOL    HW217455   3.077   8.859   6.988
 5206SOL     OW17456  14.363   4.646  14.596
 5206SOL    HW117457  14.390   4.606  14.514
 5206SOL    HW217458  14.383   4.580  14.663
 5207SOL     OW17459   7.535  11.177  12.850
 5207SOL    HW117460   7.525  11.158  12.943
 5207SOL    HW217461   7.614  11.129  12.824
 5208SOL     OW17462   5.108   1.904   9.696
 5208SOL    HW117463   5.025   1.928   9.655
 5208SOL    HW217464   5.086   1.886   9.787
 5209SOL     OW17465   6.493  11.070   5.612
 5209SOL    HW117466   6.403  11.046   5.635
 5209SOL    HW217467   6.502  11.160   5.644
 5210SOL     OW17468   0.727   4.744   2.938
 5210SOL    HW117469   0.682   4.760   2.855
 5210SOL    HW217470   0.711   4.824   2.989
 5211SOL     OW17471   8.088   8.599   0.015
 5211SOL    HW117472   8.141   8.527  14.853
 5211SOL    HW217473   8.000   8.582  14.856
 5212SOL     OW17474  10.322   4.702   8.836
 5212SOL    HW117475  10.300   4.612   8.862
 5212SOL    HW217476  10.414   4.713   8.860
 5213SOL     OW17477   9.568  12.569   6.554
 5213SOL    HW117478   9.513  12.644   6.573
 5213SOL    HW217479   9.639  12.604   6.499
 5214SOL     OW17480   2.325   1.988   6.123
 5214SOL    HW117481   2.234   1.994   6.153
 5214SOL    HW217482   2.325   2.030   6.038
 5215SOL     OW17483   0.394   4.469   0.353
 5215SOL    HW117484   0.327   4.402   0.337
 5215SOL    HW217485   0.463   4.423   0.401
 5216SOL     OW17486   6.543   6.271   7.708
 5216SOL    HW117487   6.452   6.295   7.688
 5216SOL    HW217488   6.565   6.322   7.785
 5217SOL     OW17489   3.153   3.849  14.444
 5217SOL    HW117490   3.121   3.880  14.529
 5217SOL    HW217491   3.204   3.922  14.410
 5218SOL     OW17492   7.045   2.921   5.064
 5218SOL    HW117493   7.072   2.837   5.027
 5218SOL    HW217494   6.962   2.941   5.020
 5219SOL     OW17495   7.169   0.990   3.450
 5219SOL    HW117496   7.153   0.980   3.356
 5219SOL    HW217497   7.093   1.040   3.481
 5220SOL     OW17498  12.301   1.176  11.629
 5220SOL    HW117499  12.303   1.186  11.534
 5220SOL    HW217500  12.285   1.265  11.662
 5221SOL     OW17501  14.659   3.546  11.021
 5221SOL    HW117502  14.650   3.549  11.117
 5221SOL    HW217503  14.573   3.516  10.991
 5222SOL     OW17504  13.112   6.543   6.366
 5222SOL    HW117505  13.094   6.600   6.292
 5222SOL    HW217506  13.190   6.580   6.407
 5223SOL     OW17507  11.261  12.639   0.879
 5223SOL    HW117508  11.227  12.727   0.898
 5223SOL    HW217509  11.259  12.633   0.784
 5224SOL     OW17510  11.452   2.044   8.286
 5224SOL    HW117511  11.524   2.088   8.240
 5224SOL    HW217512  11.401   2.116   8.323
 5225SOL     OW17513  12.826  10.363  13.419
 5225SOL    HW117514  12.818  10.408  13.503
 5225SOL    HW217515  12.906  10.311  13.426
 5226SOL     OW17516   7.512  10.848  11.732
 5226SOL    HW117517   7.425  10.811  11.742
 5226SOL    HW217518   7.534  10.882  11.819
 5227SOL     OW17519   9.132   7.781   5.572
 5227SOL    HW117520   9.180   7.842   5.516
 5227SOL    HW217521   9.145   7.695   5.530
 5228SOL     OW17522   3.703   6.536   9.565
 5228SOL    HW117523   3.636   6.603   9.576
 5228SOL    HW217524   3.779   6.570   9.612
 5229SOL     OW17525   4.950   5.903   9.253
 5229SOL    HW117526   5.044   5.889   9.253
 5229SOL    HW217527   4.940   5.997   9.238
 5230SOL     OW17528   2.034  13.055   0.197
 5230SOL    HW117529   2.014  13.083   0.286
 5230SOL    HW217530   2.031  13.135   0.145
 5231SOL     OW17531   6.288   7.380   1.241
 5231SOL    HW117532   6.324   7.406   1.326
 5231SOL    HW217533   6.208   7.432   1.232
 5232SOL     OW17534   5.022   2.306   1.454
 5232SOL    HW117535   5.080   2.365   1.406
 5232SOL    HW217536   5.081   2.245   1.498
 5233SOL     OW17537  10.191  12.844   5.730
 5233SOL    HW117538  10.173  12.934   5.703
 5233SOL    HW217539  10.136  12.831   5.807
 5234SOL     OW17540   1.030   7.708  12.430
 5234SOL    HW117541   1.104   7.646  12.435
 5234SOL    HW217542   1.037   7.759  12.511
 5235SOL     OW17543   9.392  11.063  14.235
 5235SOL    HW117544   9.449  11.138  14.245
 5235SOL    HW217545   9.435  10.993  14.284
 5236SOL     OW17546   7.834  11.019   3.117
 5236SOL    HW117547   7.908  10.962   3.137
 5236SOL    HW217548   7.779  11.017   3.195
 5237SOL     OW17549  11.452   8.237   0.229
 5237SOL    HW117550  11.412   8.317   0.194
 5237SOL    HW217551  11.379   8.190   0.270
 5238SOL     OW17552   4.062  12.606   9.740
 5238SOL    HW117553   3.988  12.641   9.691
 5238SOL    HW217554   4.128  12.675   9.735
 5239SOL     OW17555  13.369   5.554   5.784
 5239SOL    HW117556  13.326   5.639   5.772
 5239SOL    HW217557  13.365   5.513   5.698
 5240SOL     OW17558   6.648   8.047  11.504
 5240SOL    HW117559   6.585   8.038  11.575
 5240SOL    HW217560   6.645   7.964  11.457
 5241SOL     OW17561   9.214   4.262   5.673
 5241SOL    HW117562   9.222   4.181   5.722
 5241SOL    HW217563   9.133   4.253   5.623
 5242SOL     OW17564  11.078   2.670   2.597
 5242SOL    HW117565  11.147   2.640   2.655
 5242SOL    HW217566  10.997   2.648   2.642
 5243SOL     OW17567  12.943   5.426   3.012
 5243SOL    HW117568  12.960   5.480   2.936
 5243SOL    HW217569  12.876   5.473   3.061
 5244SOL     OW17570   3.557   0.258   8.975
 5244SOL    HW117571   3.462   0.249   8.964
 5244SOL    HW217572   3.592   0.249   8.886
 5245SOL     OW17573   1.806   9.300  13.694
 5245SOL    HW117574   1.818   9.284  13.600
 5245SOL    HW217575   1.802   9.395  13.702
 5246SOL     OW17576  13.963   8.532   5.725
 5246SOL    HW117577  13.889   8.516   5.666
 5246SOL    HW217578  13.965   8.627   5.736
 5247SOL     OW17579  13.162  10.754   3.371
 5247SOL    HW117580  13.200  10.758   3.283
 5247SOL    HW217581  13.133  10.663   3.380
 5248SOL     OW17582   6.830   7.058   2.974
 5248SOL    HW117583   6.784   6.993   3.028
 5248SOL    HW217584   6.901   7.089   3.030
 5249SOL     OW17585   2.448   4.300   0.627
 5249SOL    HW117586   2.474   4.374   0.572
 5249SOL    HW217587   2.380   4.335   0.684
 5250SOL     OW17588   8.312   5.176  11.024
 5250SOL    HW117589   8.253   5.115  10.980
 5250SOL    HW217590   8.287   5.172  11.116
 5251SOL     OW17591   8.155   4.256   1.473
 5251SOL    HW117592   8.239   4.233   1.432
 5251SOL    HW217593   8.123   4.173   1.510
 5252SOL     OW17594   1.132   6.419  10.557
 5252SOL    HW117595   1.181   6.495  10.587
 5252SOL    HW217596   1.066   6.455  10.498
 5253SOL     OW17597   2.436   5.971   5.630
 5253SOL    HW117598   2.414   6.046   5.575
 5253SOL    HW217599   2.520   5.941   5.596
 5254SOL     OW17600   6.290   2.861   5.314
 5254SOL    HW117601   6.268   2.954   5.321
 5254SOL    HW217602   6.374   2.853   5.359
 5255SOL     OW17603  11.018   5.023  10.661
 5255SOL    HW117604  10.925   5.046  10.662
 5255SOL    HW217605  11.063   5.107  10.665
 5256SOL     OW17606  11.150   7.048   3.005
 5256SOL    HW117607  11.243   7.067   2.987
 5256SOL    HW217608  11.131   7.097   3.085
 5257SOL     OW17609   3.688   6.726  14.538
 5257SOL    HW117610   3.704   6.717  14.632
 5257SOL    HW217611   3.776   6.727  14.499
 5258SOL     OW17612   3.495   9.208   6.671
 5258SOL    HW117613   3.587   9.190   6.654
 5258SOL    HW217614   3.452   9.197   6.586
 5259SOL     OW17615  12.255   2.619   2.245
 5259SOL    HW117616  12.312   2.686   2.283
 5259SOL    HW217617  12.268   2.542   2.300
 5260SOL     OW17618   6.341  12.631  10.523
 5260SOL    HW117619   6.289  12.700  10.565
 5260SOL    HW217620   6.426  12.672  10.507
 5261SOL     OW17621  13.075  12.198   4.088
 5261SOL    HW117622  13.125  12.119   4.070
 5261SOL    HW217623  13.137  12.257   4.130
 5262SOL     OW17624   0.539  13.842  13.122
 5262SOL    HW117625   0.526  13.912  13.058
 5262SOL    HW217626   0.554  13.888  13.205
 5263SOL     OW17627   5.825  13.645  13.163
 5263SOL    HW117628   5.877  13.692  13.098
 5263SOL    HW217629   5.765  13.711  13.199
 5264SOL     OW17630  11.618   0.474  14.155
 5264SOL    HW117631  11.631   0.421  14.077
 5264SOL    HW217632  11.631   0.413  14.228
 5265SOL     OW17633   8.504   3.934   8.228
 5265SOL    HW117634   8.425   3.881   8.239
 5265SOL    HW217635   8.499   3.999   8.299
 5266SOL     OW17636   4.260   2.500   9.565
 5266SOL    HW117637   4.265   2.428   9.628
 5266SOL    HW217638   4.227   2.459   9.485
 5267SOL     OW17639   3.576   2.343   8.486
 5267SOL    HW117640   3.627   2.411   8.442
 5267SOL    HW217641   3.602   2.262   8.441
 5268SOL     OW17642   5.173   4.084  10.282
 5268SOL    HW117643   5.263   4.083  10.316
 5268SOL    HW217644   5.166   4.003  10.231
 5269SOL     OW17645  12.514   7.223  10.020
 5269SOL    HW117646  12.456   7.298  10.031
 5269SOL    HW217647  12.506   7.199   9.928
 5270SOL     OW17648   3.048   6.459   1.388
 5270SOL    HW117649   3.035   6.364   1.392
 5270SOL    HW217650   3.097   6.473   1.307
 5271SOL     OW17651   1.358  12.940   6.586
 5271SOL    HW117652   1.410  13.020   6.595
 5271SOL    HW217653   1.300  12.940   6.662
 5272SOL     OW17654   8.252  14.071   1.076
 5272SOL    HW117655   8.193  14.145   1.088
 5272SOL    HW217656   8.206  14.011   1.018
 5273SOL     OW17657   2.617   6.888   2.273
 5273SOL    HW117658   2.697   6.864   2.227
 5273SOL    HW217659   2.547   6.874   2.210
 5274SOL     OW17660   5.075  13.997  14.819
 5274SOL    HW117661   5.060  14.032   0.034
 5274SOL    HW217662   5.085  14.074  14.764
 5275SOL     OW17663   1.083   7.846   8.611
 5275SOL    HW117664   1.135   7.781   8.658
 5275SOL    HW217665   1.143   7.920   8.599
 5276SOL     OW17666   1.950  12.219   3.715
 5276SOL    HW117667   2.008  12.208   3.641
 5276SOL    HW217668   1.977  12.302   3.755
 5277SOL     OW17669   7.032   7.075   1.749
 5277SOL    HW117670   7.067   7.113   1.830
 5277SOL    HW217671   7.039   6.980   1.762
 5278SOL     OW17672   6.362  14.562   7.228
 5278SOL    HW117673   6.348  14.646   7.184
 5278SOL    HW217674   6.292  14.505   7.195
 5279SOL     OW17675   3.749   8.283  14.492
 5279SOL    HW117676   3.692   8.245  14.559
 5279SOL    HW217677   3.700   8.273  14.411
 5280SOL     OW17678  13.398  11.340  10.579
 5280SOL    HW117679  13.423  11.415  10.633
 5280SOL    HW217680  13.388  11.376  10.491
 5281SOL     OW17681  11.339   9.702   8.282
 5281SOL    HW117682  11.352   9.709   8.187
 5281SOL    HW217683  11.422   9.668   8.315
 5282SOL     OW17684   5.774   9.131   6.501
 5282SOL    HW117685   5.800   9.175   6.419
 5282SOL    HW217686   5.787   9.197   6.569
 5283SOL     OW17687   0.633  12.727  13.432
 5283SOL    HW117688   0.706  12.720  13.493
 5283SOL    HW217689   0.672  12.714  13.346
 5284SOL     OW17690  11.960   9.371  12.329
 5284SOL    HW117691  12.031   9.420  12.371
 5284SOL    HW217692  11.948   9.415  12.245
 5285SOL     OW17693   6.870   0.296   5.036
 5285SOL    HW117694   6.804   0.355   5.001
 5285SOL    HW217695   6.880   0.322   5.128
 5286SOL     OW17696   4.374   6.184   0.728
 5286SOL    HW117697   4.327   6.189   0.645
 5286SOL    HW217698   4.379   6.274   0.760
 5287SOL     OW17699  13.923   6.057   4.805
 5287SOL    HW117700  13.930   6.067   4.710
 5287SOL    HW217701  14.000   6.103   4.839
 5288SOL     OW17702   8.651   0.104   7.460
 5288SOL    HW117703   8.692   0.100   7.546
 5288SOL    HW217704   8.709   0.161   7.409
 5289SOL     OW17705   7.217   5.006  13.016
 5289SOL    HW117706   7.288   4.950  12.984
 5289SOL    HW217707   7.257   5.093  13.024
 5290SOL     OW17708   1.228   7.219  11.964
 5290SOL    HW117709   1.273   7.199  12.046
 5290SOL    HW217710   1.284   7.181  11.896
 5291SOL     OW17711  10.070  13.437   4.920
 5291SOL    HW117712  10.064  13.517   4.867
 5291SOL    HW217713  10.140  13.386   4.880
 5292SOL     OW17714   4.099  12.415  13.839
 5292SOL    HW117715   4.025  12.434  13.782
 5292SOL    HW217716   4.080  12.329  13.876
 5293SOL     OW17717  11.569   5.925   3.268
 5293SOL    HW117718  11.634   5.956   3.332
 5293SOL    HW217719  11.584   5.830   3.264
 5294SOL     OW17720  12.675   2.814   7.790
 5294SOL    HW117721  12.656   2.728   7.752
 5294SOL    HW217722  12.749   2.798   7.849
 5295SOL     OW17723   9.677   7.147   6.151
 5295SOL    HW117724   9.655   7.236   6.124
 5295SOL    HW217725   9.707   7.157   6.242
 5296SOL     OW17726   5.438   6.364   4.940
 5296SOL    HW117727   5.360   6.321   4.906
 5296SOL    HW217728   5.436   6.452   4.901
 5297SOL     OW17729   5.024   1.524   7.639
 5297SOL    HW117730   5.116   1.553   7.641
 5297SOL    HW217731   5.028   1.432   7.666
 5298SOL     OW17732   2.151   4.600   8.016
 5298SOL    HW117733   2.207   4.629   7.943
 5298SOL    HW217734   2.075   4.561   7.973
 5299SOL     OW17735   3.548   5.467   4.533
 5299SOL    HW117736   3.508   5.471   4.619
 5299SOL    HW217737   3.479   5.495   4.473
 5300SOL     OW17738   8.166  11.333   4.176
 5300SOL    HW117739   8.170  11.351   4.270
 5300SOL    HW217740   8.120  11.408   4.139
 5301SOL     OW17741   7.165   3.867   8.699
 5301SOL    HW117742   7.122   3.782   8.708
 5301SOL    HW217743   7.171   3.880   8.604
 5302SOL     OW17744   5.835  14.387   0.143
 5302SOL    HW117745   5.755  14.439   0.135
 5302SOL    HW217746   5.905  14.452   0.143
 5303SOL     OW17747  11.197   1.800  14.499
 5303SOL    HW117748  11.175   1.876  14.554
 5303SOL    HW217749  11.178   1.829  14.410
 5304SOL     OW17750  10.493   5.136  11.330
 5304SOL    HW117751  10.409   5.104  11.297
 5304SOL    HW217752  10.469   5.203  11.395
 5305SOL     OW17753   7.576   0.508   0.388
 5305SOL    HW117754   7.631   0.433   0.365
 5305SOL    HW217755   7.502   0.469   0.435
 5306SOL     OW17756   0.646   2.485   8.036
 5306SOL    HW117757   0.591   2.531   7.973
 5306SOL    HW217758   0.678   2.409   7.988
 5307SOL     OW17759  14.558   0.448   5.004
 5307SOL    HW117760  14.591   0.519   5.058
 5307SOL    HW217761  14.623   0.378   5.013
 5308SOL     OW17762   4.646  13.579   2.928
 5308SOL    HW117763   4.651  13.504   2.986
 5308SOL    HW217764   4.734  13.588   2.891
 5309SOL     OW17765   4.509   7.532  14.405
 5309SOL    HW117766   4.517   7.590  14.481
 5309SOL    HW217767   4.593   7.538  14.361
 5310SOL     OW17768   1.442  10.321   3.890
 5310SOL    HW117769   1.535  10.310   3.912
 5310SOL    HW217770   1.397  10.322   3.974
 5311SOL     OW17771   9.568  14.651   4.907
 5311SOL    HW117772   9.620  14.594   4.963
 5311SOL    HW217773   9.622  14.665   4.829
 5312SOL     OW17774  13.124  12.697   5.669
 5312SOL    HW117775  13.050  12.702   5.728
 5312SOL    HW217776  13.196  12.663   5.722
 5313SOL     OW17777   9.812  13.099   2.306
 5313SOL    HW117778   9.764  13.086   2.225
 5313SOL    HW217779   9.811  13.194   2.320
 5314SOL     OW17780   9.720   7.861   0.372
 5314SOL    HW117781   9.774   7.931   0.337
 5314SOL    HW217782   9.781   7.803   0.418
 5315SOL     OW17783  13.173   5.407   0.720
 5315SOL    HW117784  13.162   5.486   0.667
 5315SOL    HW217785  13.230   5.351   0.667
 5316SOL     OW17786   7.298   1.995  14.075
 5316SOL    HW117787   7.350   1.934  14.127
 5316SOL    HW217788   7.261   2.055  14.140
 5317SOL     OW17789   0.037   8.679   7.226
 5317SOL    HW117790   0.094   8.742   7.270
 5317SOL    HW217791  14.847   8.734   7.178
 5318SOL     OW17792  11.687   1.477  10.851
 5318SOL    HW117793  11.593   1.495  10.862
 5318SOL    HW217794  11.692   1.423  10.772
 5319SOL     OW17795   3.500   5.056  10.354
 5319SOL    HW117796   3.475   4.987  10.293
 5319SOL    HW217797   3.418   5.098  10.377
 5320SOL     OW17798  12.587   4.246   5.901
 5320SOL    HW117799  12.576   4.159   5.939
 5320SOL    HW217800  12.659   4.285   5.950
 5321SOL     OW17801   4.690   0.519   7.117
 5321SOL    HW117802   4.736   0.478   7.044
 5321SOL    HW217803   4.707   0.613   7.106
 5322SOL     OW17804  10.718  11.586  10.308
 5322SOL    HW117805  10.646  11.544  10.262
 5322SOL    HW217806  10.709  11.679  10.287
 5323SOL     OW17807   4.169   2.139   0.773
 5323SOL    HW117808   4.100   2.127   0.838
 5323SOL    HW217809   4.166   2.233   0.752
 5324SOL     OW17810   1.581   5.765   8.063
 5324SOL    HW117811   1.640   5.832   8.097
 5324SOL    HW217812   1.603   5.759   7.970
 5325SOL     OW17813  13.892  12.746   6.302
 5325SOL    HW117814  13.931  12.786   6.379
 5325SOL    HW217815  13.894  12.652   6.320
 5326SOL     OW17816   9.271   1.334   7.755
 5326SOL    HW117817   9.251   1.279   7.832
 5326SOL    HW217818   9.187   1.343   7.710
 5327SOL     OW17819  11.256   0.961  13.734
 5327SOL    HW117820  11.339   0.995  13.768
 5327SOL    HW217821  11.280   0.921  13.650
 5328SOL     OW17822   1.099   9.319   8.662
 5328SOL    HW117823   1.121   9.406   8.694
 5328SOL    HW217824   1.169   9.297   8.601
 5329SOL     OW17825   6.626   1.706   0.296
 5329SOL    HW117826   6.687   1.777   0.318
 5329SOL    HW217827   6.547   1.750   0.267
 5330SOL     OW17828   9.264  13.472   3.522
 5330SOL    HW117829   9.333  13.538   3.519
 5330SOL    HW217830   9.230  13.469   3.433
 5331SOL     OW17831   0.322  11.641   4.319
 5331SOL    HW117832   0.396  11.673   4.268
 5331SOL    HW217833   0.271  11.588   4.257
 5332SOL     OW17834   2.600   9.539   8.675
 5332SOL    HW117835   2.666   9.471   8.659
 5332SOL    HW217836   2.533   9.523   8.609
 5333SOL     OW17837  11.163  10.582   1.257
 5333SOL    HW117838  11.215  10.597   1.178
 5333SOL    HW217839  11.085  10.535   1.226
 5334SOL     OW17840   3.402  14.847   8.980
 5334SOL    HW117841   3.478  14.846   8.922
 5334SOL    HW217842   3.333  14.803   8.931
 5335SOL     OW17843   1.042  12.057   4.048
 5335SOL    HW117844   1.096  12.087   4.121
 5335SOL    HW217845   1.012  12.137   4.006
 5336SOL     OW17846   7.711   8.576   3.498
 5336SOL    HW117847   7.797   8.590   3.458
 5336SOL    HW217848   7.725   8.594   3.591
 5337SOL     OW17849  11.958   9.873  13.190
 5337SOL    HW117850  12.036   9.845  13.143
 5337SOL    HW217851  11.933   9.956  13.148
 5338SOL     OW17852   8.401   9.240   1.515
 5338SOL    HW117853   8.395   9.316   1.573
 5338SOL    HW217854   8.313   9.230   1.479
 5339SOL     OW17855  10.836  13.805   8.130
 5339SOL    HW117856  10.797  13.780   8.047
 5339SOL    HW217857  10.802  13.742   8.193
 5340SOL     OW17858   4.949   6.712   6.629
 5340SOL    HW117859   4.895   6.669   6.695
 5340SOL    HW217860   4.918   6.803   6.628
 5341SOL     OW17861  13.977   7.080  11.890
 5341SOL    HW117862  14.044   7.144  11.914
 5341SOL    HW217863  14.025   7.008  11.850
 5342SOL     OW17864   0.799   4.653   7.949
 5342SOL    HW117865   0.885   4.611   7.950
 5342SOL    HW217866   0.811   4.734   7.999
 5343SOL     OW17867  14.294   0.090  14.783
 5343SOL    HW117868  14.214   0.038  14.792
 5343SOL    HW217869  14.264   0.181  14.781
 5344SOL     OW17870   5.949  10.659  12.407
 5344SOL    HW117871   5.953  10.745  12.448
 5344SOL    HW217872   5.872  10.663  12.350
 5345SOL     OW17873  13.369   9.373   8.368
 5345SOL    HW117874  13.324   9.291   8.348
 5345SOL    HW217875  13.334   9.435   8.305
 5346SOL     OW17876   9.391   9.317  12.266
 5346SOL    HW117877   9.478   9.307  12.306
 5346SOL    HW217878   9.374   9.411  12.269
 5347SOL     OW17879  13.209   9.208  11.653
 5347SOL    HW117880  13.175   9.273  11.714
 5347SOL    HW217881  13.154   9.216  11.576
 5348SOL     OW17882  13.527   1.772  13.095
 5348SOL    HW117883  13.485   1.770  13.181
 5348SOL    HW217884  13.509   1.685  13.058
 5349SOL     OW17885  12.596   7.158   0.775
 5349SOL    HW117886  12.605   7.137   0.868
 5349SOL    HW217887  12.684   7.147   0.739
 5350SOL     OW17888   6.654   8.050   6.421
 5350SOL    HW117889   6.587   8.079   6.482
 5350SOL    HW217890   6.638   7.957   6.410
 5351SOL     OW17891  12.620   6.946  11.847
 5351SOL    HW117892  12.577   6.932  11.763
 5351SOL    HW217893  12.550   6.977  11.905
 5352SOL     OW17894  14.078  10.928   1.290
 5352SOL    HW117895  14.136  10.995   1.326
 5352SOL    HW217896  13.994  10.972   1.280
 5353SOL     OW17897   0.761   3.583   3.672
 5353SOL    HW117898   0.804   3.566   3.588
 5353SOL    HW217899   0.791   3.670   3.697
 5354SOL     OW17900   1.402   0.491  13.063
 5354SOL    HW117901   1.446   0.470  13.145
 5354SOL    HW217902   1.413   0.412  13.009
 5355SOL     OW17903   0.960   8.016   0.747
 5355SOL    HW117904   0.926   7.948   0.688
 5355SOL    HW217905   0.978   8.090   0.690
 5356SOL     OW17906  11.748  12.687   8.316
 5356SOL    HW117907  11.746  12.641   8.400
 5356SOL    HW217908  11.838  12.719   8.309
 5357SOL     OW17909  13.858   4.819   7.046
 5357SOL    HW117910  13.906   4.792   6.968
 5357SOL    HW217911  13.789   4.877   7.013
 5358SOL     OW17912  13.927   9.657  11.755
 5358SOL    HW117913  13.887   9.742  11.772
 5358SOL    HW217914  13.925   9.648  11.660
 5359SOL     OW17915  13.422  14.219   6.732
 5359SOL    HW117916  13.443  14.201   6.641
 5359SOL    HW217917  13.425  14.315   6.738
 5360SOL     OW17918   0.296   1.765   2.645
 5360SOL    HW117919   0.364   1.779   2.712
 5360SOL    HW217920   0.338   1.789   2.563
 5361SOL     OW17921  13.635   7.618   8.495
 5361SOL    HW117922  13.721   7.619   8.537
 5361SOL    HW217923  13.628   7.704   8.453
 5362SOL     OW17924   4.220   2.966   7.714
 5362SOL    HW117925   4.145   2.910   7.736
 5362SOL    HW217926   4.293   2.904   7.704
 5363SOL     OW17927   2.707   8.851   0.376
 5363SOL    HW117928   2.740   8.783   0.435
 5363SOL    HW217929   2.771   8.853   0.304
 5364SOL     OW17930   6.062   6.669   2.054
 5364SOL    HW117931   6.066   6.583   2.013
 5364SOL    HW217932   5.968   6.684   2.069
 5365SOL     OW17933   7.229   7.559   7.333
 5365SOL    HW117934   7.150   7.610   7.316
 5365SOL    HW217935   7.203   7.468   7.321
 5366SOL     OW17936  14.679   4.558  11.924
 5366SOL    HW117937  14.711   4.564  11.834
 5366SOL    HW217938  14.686   4.647  11.958
 5367SOL     OW17939   3.539   5.817   5.621
 5367SOL    HW117940   3.491   5.744   5.659
 5367SOL    HW217941   3.557   5.791   5.531
 5368SOL     OW17942   9.670  14.835  12.387
 5368SOL    HW117943   9.621  14.821  12.468
 5368SOL    HW217944   9.602  14.846  12.320
 5369SOL     OW17945  13.048   0.172   5.790
 5369SOL    HW117946  13.043   0.083   5.824
 5369SOL    HW217947  13.141   0.191   5.786
 5370SOL     OW17948   9.778   2.094  13.907
 5370SOL    HW117949   9.864   2.053  13.899
 5370SOL    HW217950   9.786   2.177  13.860
 5371SOL     OW17951   4.328   5.654   4.399
 5371SOL    HW117952   4.315   5.659   4.304
 5371SOL    HW217953   4.252   5.698   4.436
 5372SOL     OW17954   7.168   3.108  11.096
 5372SOL    HW117955   7.247   3.159  11.078
 5372SOL    HW217956   7.119   3.162  11.158
 5373SOL     OW17957   1.262   4.432   1.396
 5373SOL    HW117958   1.248   4.357   1.454
 5373SOL    HW217959   1.260   4.508   1.454
 5374SOL     OW17960   9.523   6.473   4.963
 5374SOL    HW117961   9.474   6.391   4.957
 5374SOL    HW217962   9.529   6.490   5.057
 5375SOL     OW17963  11.452  13.378   3.815
 5375SOL    HW117964  11.527  13.353   3.761
 5375SOL    HW217965  11.406  13.296   3.831
 5376SOL     OW17966   3.958  10.372   5.176
 5376SOL    HW117967   4.030  10.341   5.230
 5376SOL    HW217968   3.978  10.339   5.088
 5377SOL     OW17969   2.773   0.644   0.918
 5377SOL    HW117970   2.863   0.611   0.918
 5377SOL    HW217971   2.728   0.592   0.985
 5378SOL     OW17972   6.911  13.847  14.439
 5378SOL    HW117973   6.864  13.860  14.521
 5378SOL    HW217974   6.966  13.924  14.430
 5379SOL     OW17975   9.099   1.768   6.801
 5379SOL    HW117976   9.061   1.842   6.850
 5379SOL    HW217977   9.149   1.809   6.731
 5380SOL     OW17978  10.586  10.610   2.243
 5380SOL    HW117979  10.593  10.517   2.220
 5380SOL    HW217980  10.659  10.652   2.199
 5381SOL     OW17981  14.265   3.209  12.049
 5381SOL    HW117982  14.224   3.248  12.126
 5381SOL    HW217983  14.357   3.198  12.074
 5382SOL     OW17984   8.609   9.879   0.778
 5382SOL    HW117985   8.589   9.970   0.759
 5382SOL    HW217986   8.666   9.851   0.706
 5383SOL     OW17987  12.673   9.671   2.251
 5383SOL    HW117988  12.679   9.766   2.256
 5383SOL    HW217989  12.598   9.648   2.306
 5384SOL     OW17990   5.867  14.573  14.512
 5384SOL    HW117991   5.937  14.614  14.563
 5384SOL    HW217992   5.863  14.483  14.545
 5385SOL     OW17993   8.870   2.438   3.160
 5385SOL    HW117994   8.792   2.383   3.172
 5385SOL    HW217995   8.836   2.527   3.161
 5386SOL     OW17996  10.373   4.365   3.381
 5386SOL    HW117997  10.308   4.382   3.449
 5386SOL    HW217998  10.330   4.392   3.300
 5387SOL     OW17999   3.305   6.091   9.005
 5387SOL    HW118000   3.228   6.078   8.950
 5387SOL    HW218001   3.285   6.170   9.056
 5388SOL     OW18002   8.852  11.124   0.825
 5388SOL    HW118003   8.790  11.118   0.897
 5388SOL    HW218004   8.799  11.107   0.747
 5389SOL     OW18005  13.544   3.262   9.020
 5389SOL    HW118006  13.519   3.267   9.112
 5389SOL    HW218007  13.504   3.340   8.981
 5390SOL     OW18008   3.581  12.524  11.748
 5390SOL    HW118009   3.671  12.526  11.716
 5390SOL    HW218010   3.530  12.567  11.679
 5391SOL     OW18011   7.916   4.395  12.983
 5391SOL    HW118012   7.928   4.486  13.008
 5391SOL    HW218013   7.975   4.346  13.040
 5392SOL     OW18014  14.483   0.563  12.357
 5392SOL    HW118015  14.502   0.541  12.448
 5392SOL    HW218016  14.515   0.488  12.307
 5393SOL     OW18017   1.759   7.577  14.458
 5393SOL    HW118018   1.671   7.549  14.484
 5393SOL    HW218019   1.810   7.496  14.454
 5394SOL     OW18020  13.824   8.539   0.343
 5394SOL    HW118021  13.874   8.606   0.298
 5394SOL    HW218022  13.872   8.522   0.424
 5395SOL     OW18023  13.026   8.834  12.296
 5395SOL    HW118024  12.974   8.907  12.329
 5395SOL    HW218025  13.085   8.813  12.369
 5396SOL     OW18026   7.087  10.587   6.176
 5396SOL    HW118027   7.152  10.526   6.210
 5396SOL    HW218028   7.025  10.532   6.128
 5397SOL     OW18029  14.027   4.138   2.794
 5397SOL    HW118030  14.035   4.051   2.832
 5397SOL    HW218031  13.981   4.124   2.711
 5398SOL     OW18032  13.113   4.800   8.896
 5398SOL    HW118033  13.168   4.781   8.972
 5398SOL    HW218034  13.066   4.880   8.920
 5399SOL     OW18035  14.721   2.897   6.191
 5399SOL    HW118036  14.741   2.958   6.262
 5399SOL    HW218037  14.791   2.831   6.196
 5400SOL     OW18038   6.589  11.489   2.253
 5400SOL    HW118039   6.570  11.466   2.162
 5400SOL    HW218040   6.572  11.409   2.302
 5401SOL     OW18041   4.550  14.659   9.118
 5401SOL    HW118042   4.588  14.732   9.166
 5401SOL    HW218043   4.466  14.642   9.160
 5402SOL     OW18044   7.124   5.498   2.569
 5402SOL    HW118045   7.180   5.484   2.645
 5402SOL    HW218046   7.129   5.416   2.520
 5403SOL     OW18047   9.236   4.146  12.523
 5403SOL    HW118048   9.251   4.054  12.545
 5403SOL    HW218049   9.223   4.189  12.608
 5404SOL     OW18050   6.549   5.449   6.171
 5404SOL    HW118051   6.540   5.490   6.085
 5404SOL    HW218052   6.546   5.523   6.233
 5405SOL     OW18053   3.028   6.247  14.439
 5405SOL    HW118054   3.018   6.164  14.393
 5405SOL    HW218055   3.050   6.310  14.371
 5406SOL     OW18056   0.851  13.413  12.751
 5406SOL    HW118057   0.836  13.461  12.670
 5406SOL    HW218058   0.917  13.464  12.797
 5407SOL     OW18059  13.142   2.853   4.261
 5407SOL    HW118060  13.226   2.812   4.241
 5407SOL    HW218061  13.161   2.946   4.267
 5408SOL     OW18062   3.769   5.044   2.610
 5408SOL    HW118063   3.685   5.000   2.627
 5408SOL    HW218064   3.765   5.123   2.664
 5409SOL     OW18065   0.904   4.976   8.906
 5409SOL    HW118066   0.952   4.910   8.856
 5409SOL    HW218067   0.956   5.055   8.898
 5410SOL     OW18068  10.195   4.193   8.459
 5410SOL    HW118069  10.139   4.228   8.528
 5410SOL    HW218070  10.252   4.266   8.435
 5411SOL     OW18071   3.918   5.910   3.174
 5411SOL    HW118072   3.997   5.872   3.136
 5411SOL    HW218073   3.855   5.914   3.102
 5412SOL     OW18074   2.040   0.447   8.566
 5412SOL    HW118075   2.109   0.475   8.626
 5412SOL    HW218076   2.036   0.517   8.500
 5413SOL     OW18077  10.921   7.517   3.865
 5413SOL    HW118078  10.884   7.512   3.777
 5413SOL    HW218079  10.852   7.556   3.918
 5414SOL     OW18080   4.047  10.413  14.063
 5414SOL    HW118081   4.034  10.464  14.143
 5414SOL    HW218082   4.079  10.329  14.093
 5415SOL     OW18083   7.018  13.821   7.706
 5415SOL    HW118084   6.977  13.736   7.724
 5415SOL    HW218085   6.976  13.851   7.625
 5416SOL     OW18086  12.180   6.671   0.574
 5416SOL    HW118087  12.133   6.752   0.593
 5416SOL    HW218088  12.265   6.700   0.541
 5417SOL     OW18089  10.421  11.172   4.768
 5417SOL    HW118090  10.391  11.133   4.850
 5417SOL    HW218091  10.357  11.144   4.703
 5418SOL     OW18092  13.675   1.947   7.986
 5418SOL    HW118093  13.727   1.869   8.005
 5418SOL    HW218094  13.720   2.017   8.032
 5419SOL     OW18095   8.975   7.688  10.376
 5419SOL    HW118096   9.002   7.597  10.379
 5419SOL    HW218097   8.958   7.711  10.468
 5420SOL     OW18098   2.780   0.340   0.537
 5420SOL    HW118099   2.781   0.247   0.514
 5420SOL    HW218100   2.863   0.354   0.584
 5421SOL     OW18101  12.750  14.731   5.980
 5421SOL    HW118102  12.671  14.740   5.927
 5421SOL    HW218103  12.745  14.642   6.015
 5422SOL     OW18104   3.612  12.672  13.616
 5422SOL    HW118105   3.518  12.682  13.600
 5422SOL    HW218106   3.639  12.601  13.559
 5423SOL     OW18107   9.663   6.591   6.602
 5423SOL    HW118108   9.621   6.677   6.614
 5423SOL    HW218109   9.735   6.590   6.664
 5424SOL     OW18110   4.677  10.583   5.148
 5424SOL    HW118111   4.704  10.568   5.057
 5424SOL    HW218112   4.607  10.648   5.142
 5425SOL     OW18113   3.221   9.757  10.240
 5425SOL    HW118114   3.199   9.682  10.296
 5425SOL    HW218115   3.238   9.718  10.154
 5426SOL     OW18116   4.460   3.006   9.154
 5426SOL    HW118117   4.516   2.964   9.220
 5426SOL    HW218118   4.371   2.990   9.185
 5427SOL     OW18119   1.942   3.501  11.411
 5427SOL    HW118120   1.870   3.452  11.371
 5427SOL    HW218121   1.913   3.515  11.501
 5428SOL     OW18122   8.828  10.215   5.330
 5428SOL    HW118123   8.779  10.186   5.408
 5428SOL    HW218124   8.777  10.288   5.296
 5429SOL     OW18125   8.499  14.356   1.508
 5429SOL    HW118126   8.510  14.325   1.598
 5429SOL    HW218127   8.409  14.331   1.485
 5430SOL     OW18128   1.086   0.829  10.724
 5430SOL    HW118129   1.030   0.901  10.696
 5430SOL    HW218130   1.027   0.767  10.767
 5431SOL     OW18131   0.531   5.359  12.433
 5431SOL    HW118132   0.505   5.267  12.437
 5431SOL    HW218133   0.448   5.408  12.439
 5432SOL     OW18134  11.229   5.869   6.195
 5432SOL    HW118135  11.200   5.929   6.263
 5432SOL    HW218136  11.322   5.886   6.185
 5433SOL     OW18137  10.476   8.454   1.544
 5433SOL    HW118138  10.553   8.479   1.594
 5433SOL    HW218139  10.487   8.360   1.528
 5434SOL     OW18140   8.251  14.796  14.600
 5434SOL    HW118141   8.264  14.743  14.521
 5434SOL    HW218142   8.183  14.749  14.649
 5435SOL     OW18143   5.304   2.654  12.145
 5435SOL    HW118144   5.383   2.635  12.096
 5435SOL    HW218145   5.286   2.746  12.125
 5436SOL     OW18146  11.321   4.405  10.249
 5436SOL    HW118147  11.261   4.334  10.230
 5436SOL    HW218148  11.272   4.485  10.230
 5437SOL     OW18149   2.864   0.826  10.352
 5437SOL    HW118150   2.828   0.872  10.429
 5437SOL    HW218151   2.853   0.734  10.373
 5438SOL     OW18152   7.604   1.165   5.225
 5438SOL    HW118153   7.589   1.071   5.240
 5438SOL    HW218154   7.661   1.191   5.298
 5439SOL     OW18155   0.112  11.946   9.313
 5439SOL    HW118156   0.095  12.012   9.380
 5439SOL    HW218157   0.036  11.888   9.317
 5440SOL     OW18158  13.632   0.719   8.750
 5440SOL    HW118159  13.690   0.647   8.777
 5440SOL    HW218160  13.629   0.713   8.655
 5441SOL     OW18161  11.306  11.862  10.491
 5441SOL    HW118162  11.398  11.875  10.515
 5441SOL    HW218163  11.289  11.770  10.511
 5442SOL     OW18164   6.176  12.783   1.360
 5442SOL    HW118165   6.167  12.749   1.272
 5442SOL    HW218166   6.163  12.707   1.417
 5443SOL     OW18167   2.776   5.394   5.171
 5443SOL    HW118168   2.851   5.418   5.225
 5443SOL    HW218169   2.708   5.457   5.195
 5444SOL     OW18170  12.857   7.617  14.314
 5444SOL    HW118171  12.794   7.662  14.257
 5444SOL    HW218172  12.836   7.524  14.304
 5445SOL     OW18173   5.409   0.711  13.011
 5445SOL    HW118174   5.400   0.777  13.079
 5445SOL    HW218175   5.320   0.677  12.999
 5446SOL     OW18176  14.696   2.744   3.787
 5446SOL    HW118177  14.650   2.681   3.732
 5446SOL    HW218178  14.761   2.784   3.728
 5447SOL     OW18179   0.024  14.032   9.856
 5447SOL    HW118180   0.022  14.081   9.938
 5447SOL    HW218181  14.810  13.995   9.848
 5448SOL     OW18182  14.538   8.898   2.525
 5448SOL    HW118183  14.547   8.991   2.542
 5448SOL    HW218184  14.453   8.874   2.562
 5449SOL     OW18185   7.680   8.241   3.835
 5449SOL    HW118186   7.655   8.150   3.850
 5449SOL    HW218187   7.646   8.288   3.911
 5450SOL     OW18188   8.200   5.471  10.523
 5450SOL    HW118189   8.207   5.566  10.531
 5450SOL    HW218190   8.150   5.457  10.443
 5451SOL     OW18191   6.687   7.984   2.396
 5451SOL    HW118192   6.641   7.998   2.313
 5451SOL    HW218193   6.674   7.891   2.415
 5452SOL     OW18194   4.273  14.385  14.673
 5452SOL    HW118195   4.268  14.445  14.747
 5452SOL    HW218196   4.353  14.410  14.627
 5453SOL     OW18197  12.474   6.605  11.121
 5453SOL    HW118198  12.381   6.582  11.126
 5453SOL    HW218199  12.493   6.647  11.205
 5454SOL     OW18200   9.390  13.879  12.713
 5454SOL    HW118201   9.473  13.834  12.730
 5454SOL    HW218202   9.379  13.872  12.618
 5455SOL     OW18203   4.470   0.820  13.656
 5455SOL    HW118204   4.555   0.858  13.635
 5455SOL    HW218205   4.484   0.773  13.739
 5456SOL     OW18206   2.661   3.795   3.331
 5456SOL    HW118207   2.586   3.805   3.273
 5456SOL    HW218208   2.670   3.700   3.342
 5457SOL     OW18209   1.289   8.009   9.308
 5457SOL    HW118210   1.205   8.037   9.345
 5457SOL    HW218211   1.353   8.029   9.377
 5458SOL     OW18212   4.280  11.494   5.557
 5458SOL    HW118213   4.309  11.564   5.499
 5458SOL    HW218214   4.204  11.456   5.513
 5459SOL     OW18215   1.467   8.254  14.354
 5459SOL    HW118216   1.452   8.299  14.271
 5459SOL    HW218217   1.521   8.315  14.405
 5460SOL     OW18218  12.816   2.064   6.154
 5460SOL    HW118219  12.765   2.065   6.235
 5460SOL    HW218220  12.903   2.034   6.182
 5461SOL     OW18221   8.276   4.385   1.669
 5461SOL    HW118222   8.348   4.323   1.661
 5461SOL    HW218223   8.208   4.351   1.611
 5462SOL     OW18224  13.024   1.206   7.478
 5462SOL    HW118225  12.936   1.238   7.497
 5462SOL    HW218226  13.018   1.111   7.486
 5463SOL     OW18227  13.718   7.210   1.941
 5463SOL    HW118228  13.710   7.248   1.853
 5463SOL    HW218229  13.631   7.222   1.980
 5464SOL     OW18230  11.782   1.705   6.040
 5464SOL    HW118231  11.820   1.790   6.063
 5464SOL    HW218232  11.732   1.679   6.117
 5465SOL     OW18233  12.459   6.039   8.579
 5465SOL    HW118234  12.411   6.048   8.496
 5465SOL    HW218235  12.390   6.033   8.645
 5466SOL     OW18236  11.296  14.756   5.604
 5466SOL    HW118237  11.300  14.662   5.587
 5466SOL    HW218238  11.229  14.766   5.672
 5467SOL     OW18239  10.848   0.665   0.012
 5467SOL    HW118240  10.801   0.749   0.008
 5467SOL    HW218241  10.931   0.686   0.056
 5468SOL     OW18242   0.132   8.214  11.668
 5468SOL    HW118243   0.059   8.192  11.611
 5468SOL    HW218244   0.136   8.309  11.668
 5469SOL     OW18245   4.229   6.279   8.297
 5469SOL    HW118246   4.303   6.228   8.330
 5469SOL    HW218247   4.211   6.242   8.211
 5470SOL     OW18248  12.373   5.012   0.765
 5470SOL    HW118249  12.380   4.990   0.672
 5470SOL    HW218250  12.458   5.047   0.788
 5471SOL     OW18251   1.234   6.983   7.006
 5471SOL    HW118252   1.223   7.071   6.971
 5471SOL    HW218253   1.144   6.950   7.016
 5472SOL     OW18254   0.489  10.054   8.178
 5472SOL    HW118255   0.401  10.028   8.150
 5472SOL    HW218256   0.532   9.972   8.202
 5473SOL     OW18257   6.210  12.029   6.330
 5473SOL    HW118258   6.231  12.110   6.283
 5473SOL    HW218259   6.292  11.979   6.329
 5474SOL     OW18260   5.318   7.369   2.548
 5474SOL    HW118261   5.355   7.423   2.479
 5474SOL    HW218262   5.343   7.413   2.629
 5475SOL     OW18263   0.581   0.715  10.612
 5475SOL    HW118264   0.611   0.796  10.653
 5475SOL    HW218265   0.627   0.711  10.529
 5476SOL     OW18266   5.070  14.355   7.914
 5476SOL    HW118267   5.052  14.263   7.893
 5476SOL    HW218268   4.984  14.394   7.930
 5477SOL     OW18269  11.701   9.961   7.837
 5477SOL    HW118270  11.660   9.885   7.795
 5477SOL    HW218271  11.759   9.996   7.769
 5478SOL     OW18272   6.647   5.667  10.400
 5478SOL    HW118273   6.620   5.750  10.362
 5478SOL    HW218274   6.663   5.610  10.324
 5479SOL     OW18275   6.759  13.855   3.538
 5479SOL    HW118276   6.703  13.778   3.532
 5479SOL    HW218277   6.698  13.929   3.533
 5480SOL     OW18278   1.617   7.297   2.156
 5480SOL    HW118279   1.577   7.295   2.069
 5480SOL    HW218280   1.641   7.206   2.173
 5481SOL     OW18281   6.812   9.719   6.276
 5481SOL    HW118282   6.846   9.653   6.215
 5481SOL    HW218283   6.717   9.715   6.266
 5482SOL     OW18284   6.842   5.548  13.923
 5482SOL    HW118285   6.867   5.556  13.830
 5482SOL    HW218286   6.747   5.535  13.921
 5483SOL     OW18287   3.305   2.206  12.593
 5483SOL    HW118288   3.225   2.179  12.637
 5483SOL    HW218289   3.291   2.182  12.501
 5484SOL     OW18290   4.292   3.810   2.046
 5484SOL    HW118291   4.365   3.809   1.985
 5484SOL    HW218292   4.226   3.866   2.005
 5485SOL     OW18293   4.844   4.422   1.661
 5485SOL    HW118294   4.786   4.472   1.604
 5485SOL    HW218295   4.785   4.372   1.718
 5486SOL     OW18296   5.808   9.468  12.458
 5486SOL    HW118297   5.759   9.429  12.531
 5486SOL    HW218298   5.857   9.394  12.421
 5487SOL     OW18299   1.772   2.241  11.868
 5487SOL    HW118300   1.862   2.269  11.886
 5487SOL    HW218301   1.778   2.190  11.787
 5488SOL     OW18302   8.819   9.480   8.538
 5488SOL    HW118303   8.838   9.388   8.557
 5488SOL    HW218304   8.894   9.528   8.572
 5489SOL     OW18305  12.486   6.677  13.050
 5489SOL    HW118306  12.573   6.649  13.076
 5489SOL    HW218307  12.452   6.603  12.998
 5490SOL     OW18308   4.430   1.812  11.649
 5490SOL    HW118309   4.407   1.729  11.690
 5490SOL    HW218310   4.501   1.790  11.588
 5491SOL     OW18311   5.062  11.816   4.817
 5491SOL    HW118312   5.004  11.883   4.780
 5491SOL    HW218313   5.105  11.777   4.741
 5492SOL     OW18314  10.121   9.303   9.128
 5492SOL    HW118315  10.090   9.281   9.040
 5492SOL    HW218316  10.216   9.299   9.122
 5493SOL     OW18317   2.137   1.842  10.066
 5493SOL    HW118318   2.216   1.896  10.070
 5493SOL    HW218319   2.066   1.905  10.053
 5494SOL     OW18320   4.210   2.946  11.113
 5494SOL    HW118321   4.224   2.869  11.058
 5494SOL    HW218322   4.127   2.983  11.083
 5495SOL     OW18323  10.697   1.801   3.701
 5495SOL    HW118324  10.687   1.855   3.623
 5495SOL    HW218325  10.780   1.831   3.739
 5496SOL     OW18326  13.922   0.924  12.817
 5496SOL    HW118327  13.906   0.987  12.746
 5496SOL    HW218328  13.848   0.864  12.813
 5497SOL     OW18329   6.623  11.885   5.795
 5497SOL    HW118330   6.554  11.840   5.843
 5497SOL    HW218331   6.579  11.927   5.721
 5498SOL     OW18332   4.782   9.367   9.398
 5498SOL    HW118333   4.748   9.318   9.324
 5498SOL    HW218334   4.874   9.341   9.404
 5499SOL     OW18335   2.845   7.625   2.040
 5499SOL    HW118336   2.906   7.554   2.016
 5499SOL    HW218337   2.797   7.590   2.116
 5500SOL     OW18338   7.456   0.174   9.408
 5500SOL    HW118339   7.377   0.132   9.374
 5500SOL    HW218340   7.429   0.215   9.490
 5501SOL     OW18341   5.644   5.711   1.287
 5501SOL    HW118342   5.598   5.639   1.245
 5501SOL    HW218343   5.681   5.673   1.367
 5502SOL     OW18344   1.510   4.900   5.134
 5502SOL    HW118345   1.462   4.907   5.052
 5502SOL    HW218346   1.447   4.927   5.201
 5503SOL     OW18347   9.172   3.427   5.986
 5503SOL    HW118348   9.171   3.458   6.077
 5503SOL    HW218349   9.089   3.457   5.949
 5504SOL     OW18350   5.573   5.101   8.790
 5504SOL    HW118351   5.547   5.182   8.834
 5504SOL    HW218352   5.491   5.064   8.759
 5505SOL     OW18353   7.769   4.880   2.855
 5505SOL    HW118354   7.701   4.946   2.872
 5505SOL    HW218355   7.816   4.914   2.779
 5506SOL     OW18356   9.720   1.046  14.689
 5506SOL    HW118357   9.693   1.136  14.671
 5506SOL    HW218358   9.671   0.993  14.626
 5507SOL     OW18359   0.902   9.446   4.623
 5507SOL    HW118360   0.826   9.450   4.681
 5507SOL    HW218361   0.933   9.537   4.616
 5508SOL     OW18362  10.408   6.570  13.177
 5508SOL    HW118363  10.390   6.578  13.271
 5508SOL    HW218364  10.329   6.603  13.134
 5509SOL     OW18365   1.030   5.193   4.316
 5509SOL    HW118366   0.946   5.152   4.298
 5509SOL    HW218367   1.059   5.153   4.398
 5510SOL     OW18368  13.133  12.631   4.359
 5510SOL    HW118369  13.079  12.694   4.312
 5510SOL    HW218370  13.198  12.684   4.404
 5511SOL     OW18371  10.330  11.841  12.894
 5511SOL    HW118372  10.409  11.800  12.861
 5511SOL    HW218373  10.296  11.778  12.959
 5512SOL     OW18374   1.763   5.866   4.454
 5512SOL    HW118375   1.734   5.776   4.462
 5512SOL    HW218376   1.821   5.866   4.378
 5513SOL     OW18377   2.283  13.168  10.709
 5513SOL    HW118378   2.235  13.089  10.686
 5513SOL    HW218379   2.289  13.166  10.805
 5514SOL     OW18380   0.989   8.632   2.459
 5514SOL    HW118381   0.933   8.607   2.532
 5514SOL    HW218382   1.019   8.549   2.422
 5515SOL     OW18383   6.801   3.596  12.057
 5515SOL    HW118384   6.811   3.663  12.124
 5515SOL    HW218385   6.889   3.561  12.044
 5516SOL     OW18386  11.989  11.183   3.745
 5516SOL    HW118387  12.081  11.155   3.739
 5516SOL    HW218388  11.972  11.188   3.839
 5517SOL     OW18389   9.010  13.648   1.779
 5517SOL    HW118390   8.928  13.658   1.827
 5517SOL    HW218391   9.063  13.589   1.833
 5518SOL     OW18392  11.963   1.699  11.387
 5518SOL    HW118393  12.009   1.645  11.323
 5518SOL    HW218394  11.959   1.645  11.466
 5519SOL     OW18395   0.309   0.594   4.362
 5519SOL    HW118396   0.362   0.516   4.349
 5519SOL    HW218397   0.285   0.591   4.455
 5520SOL     OW18398   1.759   1.012   1.613
 5520SOL    HW118399   1.664   1.015   1.615
 5520SOL    HW218400   1.781   0.987   1.524
 5521SOL     OW18401  12.380  14.139  11.281
 5521SOL    HW118402  12.407  14.116  11.192
 5521SOL    HW218403  12.391  14.058  11.331
 5522SOL     OW18404  14.533  10.429  14.809
 5522SOL    HW118405  14.590  10.476  14.871
 5522SOL    HW218406  14.511  10.347  14.854
 5523SOL     OW18407   5.249  10.918  11.146
 5523SOL    HW118408   5.323  10.950  11.197
 5523SOL    HW218409   5.214  10.997  11.103
 5524SOL     OW18410   1.860   6.963   8.861
 5524SOL    HW118411   1.931   6.947   8.799
 5524SOL    HW218412   1.781   6.960   8.808
 5525SOL     OW18413  10.786   6.622   0.228
 5525SOL    HW118414  10.787   6.549   0.166
 5525SOL    HW218415  10.842   6.688   0.188
 5526SOL     OW18416   0.783   6.149   5.462
 5526SOL    HW118417   0.876   6.133   5.443
 5526SOL    HW218418   0.769   6.240   5.436
 5527SOL     OW18419   5.359   3.783   0.197
 5527SOL    HW118420   5.310   3.853   0.153
 5527SOL    HW218421   5.351   3.708   0.139
 5528SOL     OW18422   7.289   1.142   6.858
 5528SOL    HW118423   7.366   1.198   6.845
 5528SOL    HW218424   7.215   1.202   6.858
 5529SOL     OW18425   5.383  14.785   3.352
 5529SOL    HW118426   5.318  14.782   3.281
 5529SOL    HW218427   5.331  14.773   3.432
 5530SOL     OW18428   5.229   8.835  11.887
 5530SOL    HW118429   5.320   8.865  11.883
 5530SOL    HW218430   5.188   8.893  11.951
 5531SOL     OW18431   3.113   3.930  14.719
 5531SOL    HW118432   3.165   3.855  14.748
 5531SOL    HW218433   3.044   3.938  14.786
 5532SOL     OW18434  10.869   0.764   0.587
 5532SOL    HW118435  10.781   0.765   0.549
 5532SOL    HW218436  10.905   0.678   0.564
 5533SOL     OW18437   2.245   9.480   0.895
 5533SOL    HW118438   2.199   9.410   0.942
 5533SOL    HW218439   2.175   9.536   0.862
 5534SOL     OW18440   4.881   8.829   8.504
 5534SOL    HW118441   4.957   8.778   8.530
 5534SOL    HW218442   4.900   8.918   8.534
 5535SOL     OW18443   4.697  10.793   3.112
 5535SOL    HW118444   4.630  10.847   3.070
 5535SOL    HW218445   4.772  10.798   3.052
 5536SOL     OW18446   0.343  13.473   0.809
 5536SOL    HW118447   0.382  13.388   0.789
 5536SOL    HW218448   0.254  13.453   0.836
 5537SOL     OW18449   9.149  13.127   0.623
 5537SOL    HW118450   9.240  13.153   0.637
 5537SOL    HW218451   9.105  13.207   0.594
 5538SOL     OW18452   9.865   7.583   4.976
 5538SOL    HW118453   9.883   7.519   5.046
 5538SOL    HW218454   9.943   7.580   4.921
 5539SOL     OW18455   4.862   9.039   4.566
 5539SOL    HW118456   4.866   8.964   4.624
 5539SOL    HW218457   4.868   9.115   4.624
 5540SOL     OW18458  12.887   1.494  10.774
 5540SOL    HW118459  12.967   1.502  10.826
 5540SOL    HW218460  12.854   1.407  10.794
 5541SOL     OW18461  10.882   5.882   5.382
 5541SOL    HW118462  10.802   5.830   5.372
 5541SOL    HW218463  10.953   5.821   5.361
 5542SOL     OW18464   2.295  14.253   2.877
 5542SOL    HW118465   2.321  14.312   2.806
 5542SOL    HW218466   2.214  14.290   2.912
 5543SOL     OW18467   3.543   1.635   1.685
 5543SOL    HW118468   3.532   1.636   1.780
 5543SOL    HW218469   3.636   1.620   1.672
 5544SOL     OW18470  14.782   6.972  11.557
 5544SOL    HW118471  14.867   6.941  11.524
 5544SOL    HW218472  14.804   7.017  11.639
 5545SOL     OW18473   2.954   9.685   1.519
 5545SOL    HW118474   2.971   9.750   1.588
 5545SOL    HW218475   3.040   9.647   1.501
 5546SOL     OW18476   3.442  11.192  13.973
 5546SOL    HW118477   3.461  11.229  13.886
 5546SOL    HW218478   3.421  11.100  13.955
 5547SOL     OW18479  11.318   0.304   2.944
 5547SOL    HW118480  11.240   0.354   2.918
 5547SOL    HW218481  11.294   0.263   3.027
 5548SOL     OW18482  10.010   9.659  10.242
 5548SOL    HW118483   9.941   9.611  10.287
 5548SOL    HW218484   9.991   9.648  10.149
 5549SOL     OW18485   3.701   8.732   4.533
 5549SOL    HW118486   3.667   8.809   4.577
 5549SOL    HW218487   3.636   8.664   4.549
 5550SOL     OW18488   3.579   1.796  13.465
 5550SOL    HW118489   3.486   1.776  13.458
 5550SOL    HW218490   3.620   1.748  13.394
 5551SOL     OW18491  10.423   7.308   3.275
 5551SOL    HW118492  10.382   7.222   3.269
 5551SOL    HW218493  10.510   7.296   3.238
 5552SOL     OW18494   1.899   7.178  13.022
 5552SOL    HW118495   1.983   7.157  13.062
 5552SOL    HW218496   1.860   7.094  13.001
 5553SOL     OW18497  10.859   1.189  10.363
 5553SOL    HW118498  10.786   1.162  10.307
 5553SOL    HW218499  10.854   1.285  10.363
 5554SOL     OW18500   0.960  13.608   0.749
 5554SOL    HW118501   0.930  13.677   0.808
 5554SOL    HW218502   1.042  13.641   0.714
 5555SOL     OW18503   2.592   7.913   9.699
 5555SOL    HW118504   2.657   7.851   9.734
 5555SOL    HW218505   2.584   7.890   9.607
 5556SOL     OW18506   6.134  12.633   7.673
 5556SOL    HW118507   6.222  12.628   7.710
 5556SOL    HW218508   6.108  12.724   7.686
 5557SOL     OW18509   9.120  13.391   1.891
 5557SOL    HW118510   9.089  13.300   1.888
 5557SOL    HW218511   9.096  13.422   1.979
 5558SOL     OW18512  12.112   1.952   3.831
 5558SOL    HW118513  12.115   2.021   3.764
 5558SOL    HW218514  12.090   1.998   3.912
 5559SOL     OW18515   0.824   0.440   5.071
 5559SOL    HW118516   0.893   0.380   5.100
 5559SOL    HW218517   0.749   0.419   5.127
 5560SOL     OW18518   4.943   9.043   8.660
 5560SOL    HW118519   4.895   9.123   8.640
 5560SOL    HW218520   5.030   9.057   8.624
 5561SOL     OW18521   5.309   9.829   9.366
 5561SOL    HW118522   5.373   9.837   9.295
 5561SOL    HW218523   5.355   9.865   9.442
 5562SOL     OW18524   1.678  11.051   8.462
 5562SOL    HW118525   1.758  11.078   8.417
 5562SOL    HW218526   1.693  11.074   8.553
 5563SOL     OW18527   7.518  14.518   2.856
 5563SOL    HW118528   7.504  14.585   2.788
 5563SOL    HW218529   7.492  14.561   2.937
 5564SOL     OW18530  12.498   0.323   0.037
 5564SOL    HW118531  12.477   0.244  14.860
 5564SOL    HW218532  12.415   0.371   0.043
 5565SOL     OW18533   0.288   3.753   1.260
 5565SOL    HW118534   0.212   3.811   1.248
 5565SOL    HW218535   0.324   3.779   1.345
 5566SOL     OW18536   2.165  10.952   2.922
 5566SOL    HW118537   2.165  10.941   2.827
 5566SOL    HW218538   2.081  10.917   2.951
 5567SOL     OW18539   4.357  12.340  13.200
 5567SOL    HW118540   4.435  12.384  13.165
 5567SOL    HW218541   4.299  12.412  13.226
 5568SOL     OW18542  14.179   3.816  12.190
 5568SOL    HW118543  14.127   3.864  12.256
 5568SOL    HW218544  14.182   3.726  12.223
 5569SOL     OW18545   5.842   2.339   4.722
 5569SOL    HW118546   5.803   2.384   4.797
 5569SOL    HW218547   5.936   2.342   4.738
 5570SOL     OW18548   9.330   8.346  11.143
 5570SOL    HW118549   9.293   8.301  11.067
 5570SOL    HW218550   9.328   8.281  11.213
 5571SOL     OW18551  12.350  14.507  14.180
 5571SOL    HW118552  12.419  14.533  14.242
 5571SOL    HW218553  12.290  14.582  14.178
 5572SOL     OW18554  11.866   2.562   6.811
 5572SOL    HW118555  11.886   2.555   6.904
 5572SOL    HW218556  11.880   2.473   6.777
 5573SOL     OW18557   9.601   7.391  14.785
 5573SOL    HW118558   9.670   7.338  14.743
 5573SOL    HW218559   9.647   7.469  14.817
 5574SOL     OW18560   3.772  12.831  11.275
 5574SOL    HW118561   3.850  12.852  11.222
 5574SOL    HW218562   3.711  12.902  11.256
 5575SOL     OW18563  14.056   7.350  12.753
 5575SOL    HW118564  14.087   7.378  12.840
 5575SOL    HW218565  13.995   7.279  12.771
 5576SOL     OW18566  10.407   6.839  11.925
 5576SOL    HW118567  10.426   6.907  11.990
 5576SOL    HW218568  10.433   6.758  11.968
 5577SOL     OW18569  11.488  11.566   5.689
 5577SOL    HW118570  11.394  11.582   5.681
 5577SOL    HW218571  11.515  11.615   5.767
 5578SOL     OW18572   9.305   2.892   2.593
 5578SOL    HW118573   9.356   2.945   2.533
 5578SOL    HW218574   9.369   2.863   2.659
 5579SOL     OW18575  13.884   2.551   2.133
 5579SOL    HW118576  13.889   2.597   2.049
 5579SOL    HW218577  13.819   2.601   2.183
 5580SOL     OW18578   4.052   1.312  10.031
 5580SOL    HW118579   4.002   1.335  10.109
 5580SOL    HW218580   4.080   1.396   9.995
 5581SOL     OW18581   1.690   8.059   9.073
 5581SOL    HW118582   1.597   8.050   9.053
 5581SOL    HW218583   1.724   7.970   9.073
 5582SOL     OW18584  13.389  10.569   7.872
 5582SOL    HW118585  13.379  10.577   7.777
 5582SOL    HW218586  13.426  10.653   7.899
 5583SOL     OW18587  13.747  12.844   1.277
 5583SOL    HW118588  13.759  12.753   1.303
 5583SOL    HW218589  13.835  12.881   1.278
 5584SOL     OW18590  13.479   9.177  12.085
 5584SOL    HW118591  13.492   9.135  12.000
 5584SOL    HW218592  13.520   9.116  12.148
 5585SOL     OW18593  10.595  11.977   7.866
 5585SOL    HW118594  10.572  12.057   7.913
 5585SOL    HW218595  10.582  11.908   7.931
 5586SOL     OW18596   1.516   2.939  10.809
 5586SOL    HW118597   1.430   2.906  10.782
 5586SOL    HW218598   1.562   2.862  10.842
 5587SOL     OW18599   8.211   9.460  14.769
 5587SOL    HW118600   8.116   9.448  14.766
 5587SOL    HW218601   8.243   9.416  14.691
 5588SOL     OW18602   6.581   3.177  10.351
 5588SOL    HW118603   6.560   3.086  10.332
 5588SOL    HW218604   6.575   3.222  10.266
 5589SOL     OW18605   4.906   5.565   5.908
 5589SOL    HW118606   4.847   5.636   5.932
 5589SOL    HW218607   4.993   5.597   5.933
 5590SOL     OW18608  14.528  11.598   5.810
 5590SOL    HW118609  14.576  11.531   5.859
 5590SOL    HW218610  14.448  11.611   5.860
 5591SOL     OW18611   6.662  12.743   1.401
 5591SOL    HW118612   6.579  12.789   1.417
 5591SOL    HW218613   6.636  12.655   1.376
 5592SOL     OW18614   8.359   4.642  14.572
 5592SOL    HW118615   8.402   4.588  14.506
 5592SOL    HW218616   8.429   4.697  14.608
 5593SOL     OW18617  12.891   7.467   0.230
 5593SOL    HW118618  12.932   7.552   0.242
 5593SOL    HW218619  12.922   7.437   0.145
 5594SOL     OW18620   4.028   7.160  13.619
 5594SOL    HW118621   4.006   7.068  13.606
 5594SOL    HW218622   4.124   7.161  13.625
 5595SOL     OW18623   6.167   0.366   3.813
 5595SOL    HW118624   6.229   0.437   3.831
 5595SOL    HW218625   6.145   0.332   3.900
 5596SOL     OW18626   9.082   4.056  12.774
 5596SOL    HW118627   9.049   3.991  12.836
 5596SOL    HW218628   9.034   4.136  12.796
 5597SOL     OW18629  10.424  14.743   6.349
 5597SOL    HW118630  10.499  14.790   6.314
 5597SOL    HW218631  10.458  14.656   6.371
 5598SOL     OW18632   8.755  13.512   8.602
 5598SOL    HW118633   8.835  13.551   8.638
 5598SOL    HW218634   8.749  13.546   8.513
 5599SOL     OW18635   0.350  11.863   6.025
 5599SOL    HW118636   0.329  11.775   6.058
 5599SOL    HW218637   0.349  11.854   5.929
 5600SOL     OW18638   4.862  10.350  13.165
 5600SOL    HW118639   4.866  10.326  13.073
 5600SOL    HW218640   4.867  10.446  13.165
 5601SOL     OW18641   7.383   8.395   9.995
 5601SOL    HW118642   7.297   8.378  10.033
 5601SOL    HW218643   7.398   8.323   9.934
 5602SOL     OW18644  10.714   7.773   4.171
 5602SOL    HW118645  10.795   7.798   4.217
 5602SOL    HW218646  10.663   7.854   4.167
 5603SOL     OW18647   6.115   5.256  10.566
 5603SOL    HW118648   6.086   5.196  10.635
 5603SOL    HW218649   6.169   5.321  10.611
 5604SOL     OW18650  10.067  14.231   1.724
 5604SOL    HW118651  10.131  14.302   1.715
 5604SOL    HW218652  10.102  14.177   1.795
 5605SOL     OW18653  12.149  13.452   0.456
 5605SOL    HW118654  12.211  13.477   0.524
 5605SOL    HW218655  12.114  13.368   0.484
 5606SOL     OW18656   2.664   9.858  12.802
 5606SOL    HW118657   2.713   9.892  12.726
 5606SOL    HW218658   2.731   9.820  12.858
 5607SOL     OW18659  13.415   3.670  14.552
 5607SOL    HW118660  13.390   3.692  14.642
 5607SOL    HW218661  13.479   3.738  14.529
 5608SOL     OW18662   7.143   7.430   2.391
 5608SOL    HW118663   7.063   7.396   2.429
 5608SOL    HW218664   7.148   7.390   2.304
 5609SOL     OW18665   4.323   0.764  14.407
 5609SOL    HW118666   4.309   0.742  14.499
 5609SOL    HW218667   4.286   0.851  14.397
 5610SOL     OW18668  14.266   9.734   8.884
 5610SOL    HW118669  14.216   9.680   8.822
 5610SOL    HW218670  14.205   9.749   8.956
 5611SOL     OW18671   8.251   0.467   8.349
 5611SOL    HW118672   8.294   0.383   8.339
 5611SOL    HW218673   8.166   0.446   8.388
 5612SOL     OW18674  13.210   2.580   5.777
 5612SOL    HW118675  13.293   2.534   5.768
 5612SOL    HW218676  13.157   2.523   5.833
 5613SOL     OW18677   5.170   9.774  14.421
 5613SOL    HW118678   5.225   9.852  14.421
 5613SOL    HW218679   5.081   9.807  14.410
 5614SOL     OW18680   1.317  12.165  14.089
 5614SOL    HW118681   1.288  12.136  14.002
 5614SOL    HW218682   1.379  12.098  14.117
 5615SOL     OW18683   9.214   9.118   2.068
 5615SOL    HW118684   9.252   9.041   2.109
 5615SOL    HW218685   9.245   9.117   1.978
 5616SOL     OW18686   1.080   9.858   5.899
 5616SOL    HW118687   1.058   9.912   5.823
 5616SOL    HW218688   1.084   9.919   5.972
 5617SOL     OW18689   7.644   8.431  12.658
 5617SOL    HW118690   7.701   8.436  12.581
 5617SOL    HW218691   7.670   8.350  12.702
 5618SOL     OW18692   6.920   1.608   2.668
 5618SOL    HW118693   7.003   1.629   2.711
 5618SOL    HW218694   6.907   1.679   2.605
 5619SOL     OW18695  13.945   0.899   1.328
 5619SOL    HW118696  14.004   0.825   1.341
 5619SOL    HW218697  13.863   0.873   1.369
 5620SOL     OW18698   3.901   2.689   5.670
 5620SOL    HW118699   3.993   2.709   5.658
 5620SOL    HW218700   3.895   2.659   5.761
 5621SOL     OW18701   1.193  12.984  10.510
 5621SOL    HW118702   1.125  12.952  10.570
 5621SOL    HW218703   1.243  12.907  10.487
 5622SOL     OW18704  12.858  10.655   1.327
 5622SOL    HW118705  12.872  10.718   1.398
 5622SOL    HW218706  12.857  10.570   1.370
 5623SOL     OW18707   9.531   8.567   2.362
 5623SOL    HW118708   9.588   8.618   2.304
 5623SOL    HW218709   9.591   8.519   2.419
 5624SOL     OW18710   1.657   3.776  13.072
 5624SOL    HW118711   1.688   3.697  13.027
 5624SOL    HW218712   1.676   3.760  13.165
 5625SOL     OW18713  12.401  11.348  10.692
 5625SOL    HW118714  12.475  11.289  10.706
 5625SOL    HW218715  12.325  11.301  10.729
 5626SOL     OW18716   5.823  10.951   5.404
 5626SOL    HW118717   5.855  10.861   5.409
 5626SOL    HW218718   5.881  11.001   5.461
 5627SOL     OW18719  11.192  14.773  11.230
 5627SOL    HW118720  11.283  14.751  11.250
 5627SOL    HW218721  11.178  14.737  11.142
 5628SOL     OW18722   3.980   1.784   2.734
 5628SOL    HW118723   3.947   1.703   2.696
 5628SOL    HW218724   3.992   1.764   2.827
 5629SOL     OW18725  13.664   8.779   8.701
 5629SOL    HW118726  13.704   8.848   8.754
 5629SOL    HW218727  13.570   8.796   8.709
 5630SOL     OW18728   7.261  14.299   8.153
 5630SOL    HW118729   7.275  14.394   8.148
 5630SOL    HW218730   7.342  14.265   8.189
 5631SOL     OW18731   5.708   5.222   0.193
 5631SOL    HW118732   5.787   5.233   0.140
 5631SOL    HW218733   5.671   5.310   0.201
 5632SOL     OW18734   8.157   9.732   6.588
 5632SOL    HW118735   8.213   9.786   6.534
 5632SOL    HW218736   8.190   9.743   6.677
 5633SOL     OW18737   2.767   5.635   0.802
 5633SOL    HW118738   2.821   5.602   0.874
 5633SOL    HW218739   2.677   5.631   0.836
 5634SOL     OW18740   8.447  11.005   4.783
 5634SOL    HW118741   8.420  11.091   4.816
 5634SOL    HW218742   8.542  11.004   4.794
 5635SOL     OW18743  13.309   4.742   4.141
 5635SOL    HW118744  13.382   4.756   4.202
 5635SOL    HW218745  13.231   4.767   4.191
 5636SOL     OW18746   5.570  11.740   7.765
 5636SOL    HW118747   5.483  11.701   7.769
 5636SOL    HW218748   5.630  11.671   7.795
 5637SOL     OW18749  10.948   0.179  11.413
 5637SOL    HW118750  10.935   0.238  11.487
 5637SOL    HW218751  10.928   0.092  11.449
 5638SOL     OW18752   1.111   0.877   0.986
 5638SOL    HW118753   1.123   0.925   1.068
 5638SOL    HW218754   1.177   0.913   0.927
 5639SOL     OW18755   4.825  14.560  13.617
 5639SOL    HW118756   4.824  14.488  13.553
 5639SOL    HW218757   4.911  14.552  13.659
 5640SOL     OW18758  10.047   5.903  11.619
 5640SOL    HW118759  10.013   5.988  11.650
 5640SOL    HW218760  10.006   5.839  11.678
 5641SOL     OW18761  10.388   7.909   6.342
 5641SOL    HW118762  10.464   7.893   6.286
 5641SOL    HW218763  10.317   7.930   6.282
 5642SOL     OW18764  10.613   6.200  13.598
 5642SOL    HW118765  10.596   6.137  13.669
 5642SOL    HW218766  10.648   6.277  13.643
 5643SOL     OW18767  14.611   0.034   5.443
 5643SOL    HW118768  14.530   0.086   5.444
 5643SOL    HW218769  14.601  14.850   5.367
 5644SOL     OW18770   7.644  14.753  12.123
 5644SOL    HW118771   7.639  14.741  12.028
 5644SOL    HW218772   7.712  14.692  12.151
 5645SOL     OW18773   9.575  13.553  10.870
 5645SOL    HW118774   9.627  13.609  10.927
 5645SOL    HW218775   9.614  13.466  10.880
 5646SOL     OW18776  11.282  13.128  10.443
 5646SOL    HW118777  11.190  13.122  10.418
 5646SOL    HW218778  11.313  13.038  10.443
 5647SOL     OW18779  10.185  12.494  14.160
 5647SOL    HW118780  10.173  12.536  14.245
 5647SOL    HW218781  10.246  12.421  14.178
 5648SOL     OW18782  11.882   1.628   5.083
 5648SOL    HW118783  11.831   1.654   5.160
 5648SOL    HW218784  11.844   1.678   5.011
 5649SOL     OW18785  11.864   3.776   6.506
 5649SOL    HW118786  11.815   3.845   6.551
 5649SOL    HW218787  11.955   3.805   6.508
 5650SOL     OW18788   9.017   4.205   2.828
 5650SOL    HW118789   8.954   4.273   2.807
 5650SOL    HW218790   8.986   4.128   2.781
 5651SOL     OW18791  12.250   8.927   0.491
 5651SOL    HW118792  12.320   8.862   0.486
 5651SOL    HW218793  12.291   9.008   0.459
 5652SOL     OW18794   5.036   1.991   1.596
 5652SOL    HW118795   5.079   1.946   1.523
 5652SOL    HW218796   4.959   2.032   1.557
 5653SOL     OW18797  14.453   0.077  14.264
 5653SOL    HW118798  14.402   0.108  14.189
 5653SOL    HW218799  14.424  14.859  14.277
 5654SOL     OW18800   3.296   8.950   7.631
 5654SOL    HW118801   3.279   9.001   7.710
 5654SOL    HW218802   3.388   8.925   7.638
 5655SOL     OW18803   1.647  12.539  12.163
 5655SOL    HW118804   1.643  12.445  12.144
 5655SOL    HW218805   1.683  12.545  12.251
 5656SOL     OW18806  11.170   2.932   8.645
 5656SOL    HW118807  11.117   2.883   8.708
 5656SOL    HW218808  11.185   3.016   8.687
 5657SOL     OW18809   6.345  14.121  10.313
 5657SOL    HW118810   6.428  14.073  10.325
 5657SOL    HW218811   6.370  14.213  10.319
 5658SOL     OW18812   9.070   8.435   4.010
 5658SOL    HW118813   9.123   8.407   3.935
 5658SOL    HW218814   9.095   8.527   4.024
 5659SOL     OW18815   4.974  11.526   8.647
 5659SOL    HW118816   4.932  11.513   8.562
 5659SOL    HW218817   4.995  11.619   8.650
 5660SOL     OW18818  13.031   0.243   2.129
 5660SOL    HW118819  12.988   0.198   2.202
 5660SOL    HW218820  13.074   0.173   2.080
 5661SOL     OW18821   2.965   8.038   8.218
 5661SOL    HW118822   3.003   7.954   8.193
 5661SOL    HW218823   2.988   8.047   8.311
 5662SOL     OW18824   6.148  13.277   8.135
 5662SOL    HW118825   6.064  13.241   8.164
 5662SOL    HW218826   6.208  13.203   8.138
 5663SOL     OW18827  12.310   4.058  12.524
 5663SOL    HW118828  12.403   4.053  12.547
 5663SOL    HW218829  12.309   4.074  12.430
 5664SOL     OW18830   7.152  10.477   4.819
 5664SOL    HW118831   7.216  10.541   4.849
 5664SOL    HW218832   7.176  10.396   4.865
 5665SOL     OW18833   5.169   9.796   6.426
 5665SOL    HW118834   5.089   9.842   6.449
 5665SOL    HW218835   5.140   9.713   6.389
 5666SOL     OW18836  10.213   0.593   8.308
 5666SOL    HW118837  10.212   0.574   8.401
 5666SOL    HW218838  10.279   0.661   8.297
 5667SOL     OW18839  12.851   2.574  10.205
 5667SOL    HW118840  12.773   2.627  10.222
 5667SOL    HW218841  12.888   2.610  10.125
 5668SOL     OW18842  13.270   5.039  11.078
 5668SOL    HW118843  13.330   5.029  11.004
 5668SOL    HW218844  13.325   5.073  11.149
 5669SOL     OW18845   5.989   6.073   3.000
 5669SOL    HW118846   6.049   6.001   3.021
 5669SOL    HW218847   6.046   6.143   2.967
 5670SOL     OW18848  14.446  10.688  13.351
 5670SOL    HW118849  14.522  10.657  13.301
 5670SOL    HW218850  14.371  10.655  13.302
 5671SOL     OW18851   5.896   2.724   0.064
 5671SOL    HW118852   5.957   2.745  14.866
 5671SOL    HW218853   5.901   2.629   0.073
 5672SOL     OW18854   3.403  13.411   5.279
 5672SOL    HW118855   3.395  13.352   5.354
 5672SOL    HW218856   3.481  13.462   5.297
 5673SOL     OW18857  11.403   5.526  10.191
 5673SOL    HW118858  11.369   5.591  10.253
 5673SOL    HW218859  11.494   5.513  10.217
 5674SOL     OW18860   2.851   4.568   0.835
 5674SOL    HW118861   2.899   4.521   0.904
 5674SOL    HW218862   2.904   4.645   0.817
 5675SOL     OW18863   8.469   5.011   0.232
 5675SOL    HW118864   8.535   5.076   0.258
 5675SOL    HW218865   8.426   4.987   0.314
 5676SOL     OW18866  10.583   5.876   1.655
 5676SOL    HW118867  10.590   5.967   1.683
 5676SOL    HW218868  10.673   5.845   1.649
 5677SOL     OW18869  12.658  13.424  13.767
 5677SOL    HW118870  12.735  13.481  13.765
 5677SOL    HW218871  12.673  13.360  13.697
 5678SOL     OW18872  10.905  11.477   0.095
 5678SOL    HW118873  10.896  11.549   0.032
 5678SOL    HW218874  10.971  11.419   0.055
 5679SOL     OW18875  14.022   3.890   8.534
 5679SOL    HW118876  14.040   3.802   8.500
 5679SOL    HW218877  14.095   3.943   8.503
 5680SOL     OW18878  13.817  14.262   0.941
 5680SOL    HW118879  13.762  14.202   0.992
 5680SOL    HW218880  13.795  14.349   0.975
 5681SOL     OW18881  13.783   7.217   5.399
 5681SOL    HW118882  13.814   7.295   5.444
 5681SOL    HW218883  13.813   7.227   5.309
 5682SOL     OW18884  13.730   5.802  12.589
 5682SOL    HW118885  13.726   5.862  12.515
 5682SOL    HW218886  13.650   5.819  12.638
 5683SOL     OW18887   9.660   4.664  10.801
 5683SOL    HW118888   9.660   4.569  10.809
 5683SOL    HW218889   9.571   4.686  10.773
 5684SOL     OW18890  13.564   8.687  13.152
 5684SOL    HW118891  13.653   8.710  13.122
 5684SOL    HW218892  13.514   8.768  13.143
 5685SOL     OW18893   0.472   6.710   9.738
 5685SOL    HW118894   0.405   6.775   9.715
 5685SOL    HW218895   0.498   6.672   9.655
 5686SOL     OW18896   1.149   8.044   1.900
 5686SOL    HW118897   1.069   8.096   1.904
 5686SOL    HW218898   1.190   8.069   1.817
 5687SOL     OW18899  12.355   2.558   0.899
 5687SOL    HW118900  12.348   2.652   0.913
 5687SOL    HW218901  12.355   2.548   0.804
 5688SOL     OW18902   1.668   7.163  10.866
 5688SOL    HW118903   1.618   7.139  10.788
 5688SOL    HW218904   1.754   7.124  10.853
 5689SOL     OW18905   2.751   6.533   0.393
 5689SOL    HW118906   2.657   6.523   0.384
 5689SOL    HW218907   2.765   6.627   0.399
 5690SOL     OW18908   2.199  12.552   9.445
 5690SOL    HW118909   2.197  12.521   9.536
 5690SOL    HW218910   2.282  12.521   9.411
 5691SOL     OW18911   4.842   1.931   1.279
 5691SOL    HW118912   4.915   1.981   1.242
 5691SOL    HW218913   4.837   1.853   1.225
 5692SOL     OW18914   0.969   8.476   1.056
 5692SOL    HW118915   0.914   8.443   0.985
 5692SOL    HW218916   0.946   8.421   1.131
 5693SOL     OW18917   6.443  10.414   8.005
 5693SOL    HW118918   6.475  10.324   8.008
 5693SOL    HW218919   6.465  10.444   7.917
 5694SOL     OW18920  12.812   6.888   5.779
 5694SOL    HW118921  12.741   6.932   5.825
 5694SOL    HW218922  12.767   6.834   5.714
 5695SOL     OW18923   1.974   2.181   5.059
 5695SOL    HW118924   1.919   2.258   5.047
 5695SOL    HW218925   1.974   2.138   4.973
 5696SOL     OW18926   7.647   6.104   2.666
 5696SOL    HW118927   7.725   6.055   2.641
 5696SOL    HW218928   7.676   6.162   2.737
 5697SOL     OW18929   4.259  12.271   7.039
 5697SOL    HW118930   4.194  12.211   7.073
 5697SOL    HW218931   4.209  12.337   6.991
 5698SOL     OW18932   9.168   9.795   3.000
 5698SOL    HW118933   9.219   9.722   3.033
 5698SOL    HW218934   9.111   9.757   2.933
 5699SOL     OW18935  13.857  13.473  11.041
 5699SOL    HW118936  13.837  13.565  11.058
 5699SOL    HW218937  13.893  13.472  10.953
 5700SOL     OW18938   1.798   1.470   5.542
 5700SOL    HW118939   1.730   1.524   5.580
 5700SOL    HW218940   1.795   1.389   5.593
 5701SOL     OW18941   0.154   3.658   8.171
 5701SOL    HW118942   0.059   3.655   8.167
 5701SOL    HW218943   0.178   3.593   8.237
 5702SOL     OW18944  10.608   6.998   7.538
 5702SOL    HW118945  10.561   7.072   7.577
 5702SOL    HW218946  10.648   6.953   7.612
 5703SOL     OW18947   2.669  10.970   0.316
 5703SOL    HW118948   2.659  11.033   0.245
 5703SOL    HW218949   2.746  10.918   0.293
 5704SOL     OW18950   2.578   6.178  10.391
 5704SOL    HW118951   2.530   6.173  10.474
 5704SOL    HW218952   2.531   6.118  10.333
 5705SOL     OW18953   6.803   5.200   0.658
 5705SOL    HW118954   6.869   5.140   0.623
 5705SOL    HW218955   6.849   5.282   0.672
 5706SOL     OW18956   0.207  12.776   9.630
 5706SOL    HW118957   0.235  12.855   9.677
 5706SOL    HW218958   0.232  12.704   9.687
 5707SOL     OW18959   5.563   0.648   1.995
 5707SOL    HW118960   5.476   0.672   1.965
 5707SOL    HW218961   5.582   0.711   2.065
 5708SOL     OW18962   9.920   2.073   9.103
 5708SOL    HW118963   9.956   2.150   9.059
 5708SOL    HW218964   9.830   2.097   9.122
 5709SOL     OW18965   8.973   7.690  12.086
 5709SOL    HW118966   8.973   7.773  12.134
 5709SOL    HW218967   9.009   7.626  12.147
 5710SOL     OW18968   3.881   9.359  11.672
 5710SOL    HW118969   3.903   9.448  11.647
 5710SOL    HW218970   3.939   9.340  11.746
 5711SOL     OW18971   9.556  10.139   2.934
 5711SOL    HW118972   9.473  10.097   2.910
 5711SOL    HW218973   9.545  10.231   2.908
 5712SOL     OW18974   5.940   8.767   8.926
 5712SOL    HW118975   6.034   8.752   8.940
 5712SOL    HW218976   5.906   8.682   8.899
 5713SOL     OW18977  11.318   1.438   7.201
 5713SOL    HW118978  11.324   1.344   7.217
 5713SOL    HW218979  11.328   1.446   7.106
 5714SOL     OW18980  12.485   4.132   1.006
 5714SOL    HW118981  12.496   4.041   1.033
 5714SOL    HW218982  12.436   4.127   0.924
 5715SOL     OW18983  12.207   3.740   7.635
 5715SOL    HW118984  12.132   3.692   7.600
 5715SOL    HW218985  12.283   3.690   7.604
 5716SOL     OW18986   9.205  14.447   2.561
 5716SOL    HW118987   9.230  14.442   2.469
 5716SOL    HW218988   9.199  14.541   2.580
 5717SOL     OW18989   8.088   7.832  12.908
 5717SOL    HW118990   8.093   7.764  12.840
 5717SOL    HW218991   7.995   7.843  12.924
 5718SOL     OW18992   9.008   4.146  13.932
 5718SOL    HW118993   8.938   4.176  13.875
 5718SOL    HW218994   8.971   4.151  14.020
 5719SOL     OW18995  13.690   2.491   9.467
 5719SOL    HW118996  13.737   2.525   9.391
 5719SOL    HW218997  13.698   2.396   9.459
 5720SOL     OW18998   3.243   9.659   1.639
 5720SOL    HW118999   3.280   9.578   1.604
 5720SOL    HW219000   3.290   9.729   1.594
 5721SOL     OW19001   0.532   8.786   4.382
 5721SOL    HW119002   0.468   8.719   4.361
 5721SOL    HW219003   0.484   8.848   4.438
 5722SOL     OW19004   2.951   8.727   7.566
 5722SOL    HW119005   2.885   8.700   7.630
 5722SOL    HW219006   3.033   8.731   7.616
 5723SOL     OW19007   4.014  11.308   4.534
 5723SOL    HW119008   4.110  11.299   4.533
 5723SOL    HW219009   3.998  11.395   4.497
 5724SOL     OW19010   5.237   6.632   5.217
 5724SOL    HW119011   5.246   6.724   5.191
 5724SOL    HW219012   5.192   6.590   5.144
 5725SOL     OW19013  12.772   8.907  13.481
 5725SOL    HW119014  12.746   8.817  13.462
 5725SOL    HW219015  12.811   8.939  13.400
 5726SOL     OW19016  11.535   0.527  10.984
 5726SOL    HW119017  11.618   0.516  11.030
 5726SOL    HW219018  11.475   0.465  11.026
 5727SOL     OW19019   5.663   9.621   9.508
 5727SOL    HW119020   5.665   9.717   9.502
 5727SOL    HW219021   5.745   9.593   9.467
 5728SOL     OW19022   1.864  13.266   7.864
 5728SOL    HW119023   1.854  13.213   7.943
 5728SOL    HW219024   1.842  13.207   7.792
 5729SOL     OW19025   3.734   9.216   4.195
 5729SOL    HW119026   3.681   9.153   4.146
 5729SOL    HW219027   3.817   9.219   4.148
 5730SOL     OW19028   5.082   7.020   9.618
 5730SOL    HW119029   5.017   7.004   9.687
 5730SOL    HW219030   5.141   7.086   9.656
 5731SOL     OW19031   8.151   5.970   0.486
 5731SOL    HW119032   8.155   5.879   0.458
 5731SOL    HW219033   8.242   5.999   0.486
 5732SOL     OW19034  11.260  12.141   0.904
 5732SOL    HW119035  11.351  12.146   0.933
 5732SOL    HW219036  11.216  12.093   0.974
 5733SOL     OW19037   3.891   9.587   1.587
 5733SOL    HW119038   3.813   9.633   1.556
 5733SOL    HW219039   3.935   9.650   1.644
 5734SOL     OW19040   7.324  13.749  10.297
 5734SOL    HW119041   7.311  13.793  10.381
 5734SOL    HW219042   7.361  13.663  10.320
 5735SOL     OW19043   9.923   0.199   4.028
 5735SOL    HW119044   9.863   0.260   4.070
 5735SOL    HW219045   9.962   0.250   3.957
 5736SOL     OW19046  13.000  13.675   8.304
 5736SOL    HW119047  13.035  13.694   8.217
 5736SOL    HW219048  13.048  13.732   8.363
 5737SOL     OW19049   0.329   3.055   4.060
 5737SOL    HW119050   0.368   2.986   4.115
 5737SOL    HW219051   0.284   3.007   3.990
 5738SOL     OW19052   3.062   2.890   5.000
 5738SOL    HW119053   3.095   2.864   4.914
 5738SOL    HW219054   3.009   2.816   5.029
 5739SOL     OW19055   4.749   8.822  10.381
 5739SOL    HW119056   4.774   8.901  10.332
 5739SOL    HW219057   4.756   8.751  10.317
 5740SOL     OW19058   7.663   3.519   4.257
 5740SOL    HW119059   7.596   3.579   4.290
 5740SOL    HW219060   7.616   3.464   4.194
 5741SOL     OW19061   4.934   5.168   4.853
 5741SOL    HW119062   5.004   5.151   4.916
 5741SOL    HW219063   4.864   5.108   4.879
 5742SOL     OW19064   8.946   0.650  13.672
 5742SOL    HW119065   8.901   0.647  13.756
 5742SOL    HW219066   8.957   0.744  13.654
 5743SOL     OW19067   4.715   9.469   8.710
 5743SOL    HW119068   4.803   9.458   8.746
 5743SOL    HW219069   4.665   9.510   8.781
 5744SOL     OW19070  11.755  13.706  12.800
 5744SOL    HW119071  11.690  13.768  12.832
 5744SOL    HW219072  11.792  13.748  12.722
 5745SOL     OW19073   1.569   1.335  11.528
 5745SOL    HW119074   1.477   1.336  11.553
 5745SOL    HW219075   1.607   1.411  11.572
 5746SOL     OW19076   3.743  13.895   3.398
 5746SOL    HW119077   3.758  13.873   3.491
 5746SOL    HW219078   3.809  13.961   3.378
 5747SOL     OW19079  11.454   7.273   4.137
 5747SOL    HW119080  11.389   7.336   4.106
 5747SOL    HW219081  11.403   7.208   4.184
 5748SOL     OW19082   3.983   5.131   8.387
 5748SOL    HW119083   3.904   5.079   8.398
 5748SOL    HW219084   3.966   5.212   8.436
 5749SOL     OW19085   6.812   2.173   3.213
 5749SOL    HW119086   6.814   2.108   3.143
 5749SOL    HW219087   6.813   2.121   3.294
 5750SOL     OW19088   5.183   0.671  11.702
 5750SOL    HW119089   5.175   0.745  11.641
 5750SOL    HW219090   5.170   0.710  11.789
 5751SOL     OW19091  13.479   7.041   8.380
 5751SOL    HW119092  13.482   6.946   8.385
 5751SOL    HW219093  13.535   7.062   8.305
 5752SOL     OW19094   8.630  11.183   8.114
 5752SOL    HW119095   8.725  11.178   8.099
 5752SOL    HW219096   8.613  11.277   8.126
 5753SOL     OW19097  11.734  10.292   9.559
 5753SOL    HW119098  11.641  10.294   9.535
 5753SOL    HW219099  11.747  10.204   9.593
 5754SOL     OW19100  10.077   7.310   9.566
 5754SOL    HW119101  10.104   7.334   9.478
 5754SOL    HW219102   9.982   7.309   9.563
 5755SOL     OW19103   2.467   1.898  12.672
 5755SOL    HW119104   2.468   1.953  12.594
 5755SOL    HW219105   2.438   1.813  12.641
 5756SOL     OW19106   8.601   6.851  13.099
 5756SOL    HW119107   8.648   6.777  13.061
 5756SOL    HW219108   8.529   6.867  13.037
 5757SOL     OW19109   1.747   3.383  11.261
 5757SOL    HW119110   1.783   3.294  11.259
 5757SOL    HW219111   1.678   3.383  11.195
 5758SOL     OW19112  14.118   9.247   6.280
 5758SOL    HW119113  14.165   9.246   6.196
 5758SOL    HW219114  14.044   9.189   6.267
 5759SOL     OW19115   5.375  12.089   9.255
 5759SOL    HW119116   5.418  12.107   9.172
 5759SOL    HW219117   5.331  12.004   9.242
 5760SOL     OW19118   7.359  10.102   1.697
 5760SOL    HW119119   7.429  10.146   1.650
 5760SOL    HW219120   7.340  10.024   1.645
 5761SOL     OW19121  14.602   8.415   6.936
 5761SOL    HW119122  14.668   8.484   6.926
 5761SOL    HW219123  14.552   8.417   6.855
 5762SOL     OW19124   3.362   6.150  11.787
 5762SOL    HW119125   3.357   6.219  11.853
 5762SOL    HW219126   3.362   6.069  11.838
 5763SOL     OW19127   6.307  10.064  13.004
 5763SOL    HW119128   6.384  10.118  12.986
 5763SOL    HW219129   6.238  10.102  12.951
 5764SOL     OW19130   0.156   0.914   5.847
 5764SOL    HW119131   0.107   0.883   5.924
 5764SOL    HW219132   0.233   0.857   5.843
 5765SOL     OW19133   1.036   8.720   8.141
 5765SOL    HW119134   1.061   8.636   8.102
 5765SOL    HW219135   1.119   8.768   8.150
 5766SOL     OW19136   5.146   7.550   7.699
 5766SOL    HW119137   5.223   7.595   7.734
 5766SOL    HW219138   5.072   7.604   7.727
 5767SOL     OW19139   4.942  12.054   4.460
 5767SOL    HW119140   4.965  12.147   4.468
 5767SOL    HW219141   4.846  12.053   4.464
 5768SOL     OW19142  14.292   3.059  13.287
 5768SOL    HW119143  14.203   3.087  13.308
 5768SOL    HW219144  14.294   3.055  13.191
 5769SOL     OW19145   2.626  11.734   8.438
 5769SOL    HW119146   2.553  11.791   8.462
 5769SOL    HW219147   2.586  11.668   8.380
 5770SOL     OW19148  14.531   3.936   2.297
 5770SOL    HW119149  14.601   3.995   2.323
 5770SOL    HW219150  14.561   3.896   2.215
 5771SOL     OW19151   6.340  11.515   6.719
 5771SOL    HW119152   6.267  11.573   6.699
 5771SOL    HW219153   6.418  11.568   6.703
 5772SOL     OW19154   6.309   2.396   0.715
 5772SOL    HW119155   6.300   2.467   0.652
 5772SOL    HW219156   6.358   2.435   0.788
 5773SOL     OW19157  10.347   0.798   7.314
 5773SOL    HW119158  10.337   0.866   7.247
 5773SOL    HW219159  10.353   0.717   7.263
 5774SOL     OW19160  11.582   4.894   8.641
 5774SOL    HW119161  11.533   4.859   8.715
 5774SOL    HW219162  11.670   4.857   8.651
 5775SOL     OW19163   8.494   6.250   4.633
 5775SOL    HW119164   8.526   6.299   4.709
 5775SOL    HW219165   8.439   6.313   4.586
 5776SOL     OW19166   8.993   3.224   5.142
 5776SOL    HW119167   9.027   3.168   5.072
 5776SOL    HW219168   8.948   3.163   5.201
 5777SOL     OW19169  11.241   0.757  12.883
 5777SOL    HW119170  11.289   0.680  12.852
 5777SOL    HW219171  11.183   0.780  12.810
 5778SOL     OW19172   7.502   9.437  13.301
 5778SOL    HW119173   7.584   9.436  13.351
 5778SOL    HW219174   7.436   9.465  13.364
 5779SOL     OW19175  14.667   6.314  13.878
 5779SOL    HW119176  14.620   6.248  13.929
 5779SOL    HW219177  14.601   6.381  13.859
 5780SOL     OW19178   5.218  10.610   9.308
 5780SOL    HW119179   5.237  10.516   9.316
 5780SOL    HW219180   5.127  10.613   9.280
 5781SOL     OW19181   7.854   4.670   5.637
 5781SOL    HW119182   7.942   4.635   5.624
 5781SOL    HW219183   7.796   4.600   5.605
 5782SOL     OW19184  12.079   6.883   1.452
 5782SOL    HW119185  12.047   6.935   1.379
 5782SOL    HW219186  12.065   6.792   1.426
 5783SOL     OW19187  14.331  14.633  10.317
 5783SOL    HW119188  14.276  14.621  10.394
 5783SOL    HW219189  14.418  14.652  10.352
 5784SOL     OW19190  14.666   9.110  14.477
 5784SOL    HW119191  14.747   9.143  14.438
 5784SOL    HW219192  14.608   9.186  14.477
 5785SOL     OW19193  11.013   6.357   7.034
 5785SOL    HW119194  10.949   6.371   7.104
 5785SOL    HW219195  10.960   6.342   6.955
 5786SOL     OW19196  10.470   2.340   5.639
 5786SOL    HW119197  10.474   2.428   5.603
 5786SOL    HW219198  10.495   2.350   5.731
 5787SOL     OW19199   4.983   6.964  12.257
 5787SOL    HW119200   4.984   7.018  12.178
 5787SOL    HW219201   5.028   7.016  12.323
 5788SOL     OW19202   9.906   1.747   5.560
 5788SOL    HW119203   9.983   1.773   5.509
 5788SOL    HW219204   9.900   1.812   5.630
 5789SOL     OW19205   0.122   3.241   7.009
 5789SOL    HW119206   0.062   3.208   6.942
 5789SOL    HW219207   0.135   3.334   6.988
 5790SOL     OW19208  14.067   9.593   3.253
 5790SOL    HW119209  14.053   9.656   3.182
 5790SOL    HW219210  14.040   9.509   3.216
 5791SOL     OW19211   6.344  14.084  14.506
 5791SOL    HW119212   6.355  14.148  14.576
 5791SOL    HW219213   6.359  14.000  14.549
 5792SOL     OW19214  13.796  14.471   7.975
 5792SOL    HW119215  13.787  14.559   7.938
 5792SOL    HW219216  13.770  14.481   8.067
 5793SOL     OW19217   0.210  13.213  11.046
 5793SOL    HW119218   0.248  13.127  11.066
 5793SOL    HW219219   0.215  13.261  11.128
 5794SOL     OW19220   9.930   4.790   6.633
 5794SOL    HW119221   9.943   4.787   6.728
 5794SOL    HW219222   9.849   4.743   6.618
 5795SOL     OW19223   3.072  13.091   0.852
 5795SOL    HW119224   3.057  13.088   0.758
 5795SOL    HW219225   3.141  13.026   0.868
 5796SOL     OW19226  10.953   1.530  12.017
 5796SOL    HW119227  10.906   1.462  11.968
 5796SOL    HW219228  11.041   1.494  12.030
 5797SOL     OW19229   9.309   1.579   0.651
 5797SOL    HW119230   9.395   1.581   0.609
 5797SOL    HW219231   9.323   1.621   0.736
 5798SOL     OW19232  13.939   5.403  13.372
 5798SOL    HW119233  13.861   5.438  13.329
 5798SOL    HW219234  14.003   5.474  13.367
 5799SOL     OW19235   0.693  10.590   2.549
 5799SOL    HW119236   0.672  10.517   2.490
 5799SOL    HW219237   0.611  10.610   2.593
 5800SOL     OW19238  10.530   3.895  13.903
 5800SOL    HW119239  10.520   3.872  13.995
 5800SOL    HW219240  10.501   3.817  13.855
 5801SOL     OW19241   2.029  12.208   6.677
 5801SOL    HW119242   1.935  12.199   6.660
 5801SOL    HW219243   2.057  12.122   6.707
 5802SOL     OW19244   0.474   5.433   7.817
 5802SOL    HW119245   0.492   5.512   7.868
 5802SOL    HW219246   0.387   5.447   7.780
 5803SOL     OW19247   5.699   1.114   0.027
 5803SOL    HW119248   5.743   1.112  14.815
 5803SOL    HW219249   5.733   1.192   0.071
 5804SOL     OW19250   3.729   6.665  14.787
 5804SOL    HW119251   3.668   6.651  14.859
 5804SOL    HW219252   3.801   6.605  14.804
 5805SOL     OW19253   0.564  11.017   9.435
 5805SOL    HW119254   0.587  11.064   9.355
 5805SOL    HW219255   0.630  10.949   9.443
 5806SOL     OW19256   8.688   0.205  10.287
 5806SOL    HW119257   8.752   0.141  10.253
 5806SOL    HW219258   8.742   0.271  10.331
 5807SOL     OW19259   0.259   0.340   0.071
 5807SOL    HW119260   0.336   0.338   0.015
 5807SOL    HW219261   0.275   0.273   0.137
 5808SOL     OW19262   0.346  12.437   2.122
 5808SOL    HW119263   0.305  12.523   2.130
 5808SOL    HW219264   0.416  12.450   2.058
 5809SOL     OW19265  10.750  10.138   0.213
 5809SOL    HW119266  10.751  10.234   0.208
 5809SOL    HW219267  10.742  10.109   0.122
 5810SOL     OW19268   3.803  14.031   5.777
 5810SOL    HW119269   3.860  13.957   5.799
 5810SOL    HW219270   3.778  14.068   5.862
 5811SOL     OW19271   7.331   2.077  13.055
 5811SOL    HW119272   7.270   2.117  13.117
 5811SOL    HW219273   7.325   1.983  13.073
 5812SOL     OW19274  10.082   0.212  12.940
 5812SOL    HW119275  10.073   0.243  12.850
 5812SOL    HW219276  10.153   0.265  12.977
 5813SOL     OW19277   7.295   4.244   2.582
 5813SOL    HW119278   7.248   4.263   2.502
 5813SOL    HW219279   7.377   4.204   2.553
 5814SOL     OW19280   6.922   2.280  12.428
 5814SOL    HW119281   6.829   2.262  12.436
 5814SOL    HW219282   6.926   2.367  12.388
 5815SOL     OW19283   3.625   6.301   1.496
 5815SOL    HW119284   3.639   6.336   1.408
 5815SOL    HW219285   3.646   6.208   1.488
 5816SOL     OW19286   0.588   0.630   5.857
 5816SOL    HW119287   0.591   0.724   5.840
 5816SOL    HW219288   0.679   0.601   5.850
 5817SOL     OW19289   2.569  12.374   6.074
 5817SOL    HW119290   2.544  12.287   6.045
 5817SOL    HW219291   2.486  12.420   6.087
 5818SOL     OW19292   9.831   5.840   9.749
 5818SOL    HW119293   9.784   5.777   9.694
 5818SOL    HW219294   9.783   5.922   9.737
 5819SOL     OW19295   0.228   6.661  13.405
 5819SOL    HW119296   0.199   6.619  13.324
 5819SOL    HW219297   0.242   6.589  13.466
 5820SOL     OW19298   1.195  12.640  12.040
 5820SOL    HW119299   1.262  12.703  12.013
 5820SOL    HW219300   1.188  12.579  11.967
 5821SOL     OW19301   9.807   9.432   8.581
 5821SOL    HW119302   9.817   9.353   8.635
 5821SOL    HW219303   9.894   9.471   8.579
 5822SOL     OW19304   4.964   8.661   0.571
 5822SOL    HW119305   5.055   8.688   0.578
 5822SOL    HW219306   4.949   8.607   0.649
 5823SOL     OW19307   7.728   5.924   9.077
 5823SOL    HW119308   7.799   5.985   9.059
 5823SOL    HW219309   7.652   5.979   9.095
 5824SOL     OW19310  14.559   0.768   9.810
 5824SOL    HW119311  14.559   0.789   9.903
 5824SOL    HW219312  14.485   0.709   9.798
 5825SOL     OW19313  10.596  12.440   9.506
 5825SOL    HW119314  10.650  12.517   9.522
 5825SOL    HW219315  10.532  12.440   9.577
 5826SOL     OW19316   2.208  12.241   4.720
 5826SOL    HW119317   2.185  12.281   4.804
 5826SOL    HW219318   2.136  12.265   4.662
 5827SOL     OW19319  10.144   4.397   3.517
 5827SOL    HW119320  10.083   4.346   3.569
 5827SOL    HW219321  10.090   4.460   3.469
 5828SOL     OW19322   6.761   7.576   6.620
 5828SOL    HW119323   6.701   7.643   6.652
 5828SOL    HW219324   6.809   7.548   6.697
 5829SOL     OW19325   8.193   5.167   2.538
 5829SOL    HW119326   8.170   5.224   2.464
 5829SOL    HW219327   8.135   5.091   2.528
 5830SOL     OW19328   8.905   0.987   0.980
 5830SOL    HW119329   8.938   0.898   0.994
 5830SOL    HW219330   8.966   1.025   0.917
 5831SOL     OW19331   7.106  13.652   4.328
 5831SOL    HW119332   7.108  13.746   4.309
 5831SOL    HW219333   7.034  13.618   4.274
 5832SOL     OW19334   6.324   1.511   2.320
 5832SOL    HW119335   6.357   1.453   2.251
 5832SOL    HW219336   6.241   1.544   2.286
 5833SOL     OW19337   7.164  12.481  11.683
 5833SOL    HW119338   7.174  12.444  11.596
 5833SOL    HW219339   7.199  12.570  11.676
 5834SOL     OW19340   7.289  13.004   9.833
 5834SOL    HW119341   7.253  12.942   9.896
 5834SOL    HW219342   7.236  13.083   9.844
 5835SOL     OW19343   6.324   4.356  10.255
 5835SOL    HW119344   6.339   4.451  10.257
 5835SOL    HW219345   6.338   4.332  10.163
 5836SOL     OW19346   7.242   5.752  14.169
 5836SOL    HW119347   7.321   5.806  14.169
 5836SOL    HW219348   7.228   5.729  14.261
 5837SOL     OW19349   4.263   3.934   5.716
 5837SOL    HW119350   4.186   3.900   5.670
 5837SOL    HW219351   4.337   3.890   5.674
 5838SOL     OW19352   2.727  10.254  11.013
 5838SOL    HW119353   2.651  10.296  11.053
 5838SOL    HW219354   2.740  10.302  10.931
 5839SOL     OW19355   5.317   3.643  11.085
 5839SOL    HW119356   5.319   3.739  11.085
 5839SOL    HW219357   5.314   3.619  11.177
 5840SOL     OW19358   7.978   3.261   0.016
 5840SOL    HW119359   8.026   3.334   0.054
 5840SOL    HW219360   7.974   3.280  14.795
 5841SOL     OW19361   0.644   8.404   2.407
 5841SOL    HW119362   0.606   8.487   2.379
 5841SOL    HW219363   0.675   8.421   2.496
 5842SOL     OW19364   1.267  11.867   8.943
 5842SOL    HW119365   1.223  11.929   9.002
 5842SOL    HW219366   1.198  11.808   8.915
 5843SOL     OW19367   9.735   3.726  14.201
 5843SOL    HW119368   9.804   3.760  14.144
 5843SOL    HW219369   9.679   3.801  14.219
 5844SOL     OW19370  12.469   6.452   9.200
 5844SOL    HW119371  12.539   6.518   9.207
 5844SOL    HW219372  12.516   6.369   9.190
 5845SOL     OW19373   7.250   5.654   0.696
 5845SOL    HW119374   7.252   5.623   0.606
 5845SOL    HW219375   7.292   5.740   0.693
 5846SOL     OW19376  13.662  12.731   7.150
 5846SOL    HW119377  13.672  12.695   7.062
 5846SOL    HW219378  13.570  12.754   7.157
 5847SOL     OW19379   2.226  10.831   9.094
 5847SOL    HW119380   2.212  10.739   9.117
 5847SOL    HW219381   2.315  10.834   9.060
 5848SOL     OW19382   5.694   0.161  10.457
 5848SOL    HW119383   5.669   0.210  10.379
 5848SOL    HW219384   5.788   0.148  10.448
 5849SOL     OW19385   5.340   8.842   2.613
 5849SOL    HW119386   5.251   8.811   2.627
 5849SOL    HW219387   5.396   8.770   2.641
 5850SOL     OW19388  12.879   4.764   4.354
 5850SOL    HW119389  12.878   4.691   4.416
 5850SOL    HW219390  12.803   4.817   4.378
 5851SOL     OW19391  12.276  13.541   0.144
 5851SOL    HW119392  12.253  13.529   0.052
 5851SOL    HW219393  12.371  13.531   0.146
 5852SOL     OW19394  11.777   3.552   8.379
 5852SOL    HW119395  11.811   3.518   8.297
 5852SOL    HW219396  11.830   3.510   8.447
 5853SOL     OW19397   0.375  14.417   6.070
 5853SOL    HW119398   0.357  14.498   6.023
 5853SOL    HW219399   0.418  14.361   6.005
 5854SOL     OW19400   9.726   6.308  13.117
 5854SOL    HW119401   9.816   6.322  13.090
 5854SOL    HW219402   9.724   6.331  13.210
 5855SOL     OW19403   5.264   8.806   6.767
 5855SOL    HW119404   5.352   8.771   6.779
 5855SOL    HW219405   5.211   8.759   6.832
 5856SOL     OW19406  12.339  11.105   4.617
 5856SOL    HW119407  12.386  11.046   4.676
 5856SOL    HW219408  12.340  11.061   4.532
 5857SOL     OW19409  14.172   9.829   2.492
 5857SOL    HW119410  14.265   9.853   2.488
 5857SOL    HW219411  14.147   9.818   2.400
 5858SOL     OW19412   5.497   4.047   6.241
 5858SOL    HW119413   5.436   3.975   6.227
 5858SOL    HW219414   5.442   4.121   6.265
 5859SOL     OW19415   6.435   0.303  12.146
 5859SOL    HW119416   6.429   0.398  12.156
 5859SOL    HW219417   6.379   0.268  12.215
 5860SOL     OW19418   5.482   9.362   4.511
 5860SOL    HW119419   5.542   9.299   4.551
 5860SOL    HW219420   5.538   9.420   4.460
 5861SOL     OW19421   6.685  11.595  14.680
 5861SOL    HW119422   6.642  11.510  14.680
 5861SOL    HW219423   6.619  11.656  14.648
 5862SOL     OW19424   9.350  11.841   7.509
 5862SOL    HW119425   9.400  11.761   7.525
 5862SOL    HW219426   9.385  11.904   7.572
 5863SOL     OW19427   6.981  11.594  11.971
 5863SOL    HW119428   7.004  11.628  11.884
 5863SOL    HW219429   7.060  11.548  12.000
 5864SOL     OW19430   3.731  12.060  10.509
 5864SOL    HW119431   3.768  12.044  10.422
 5864SOL    HW219432   3.806  12.062  10.568
 5865SOL     OW19433   7.564  13.836  11.448
 5865SOL    HW119434   7.476  13.871  11.435
 5865SOL    HW219435   7.619  13.913  11.458
 5866SOL     OW19436  13.295  13.538   8.315
 5866SOL    HW119437  13.222  13.529   8.254
 5866SOL    HW219438  13.371  13.558   8.260
 5867SOL     OW19439  14.839  11.761  13.108
 5867SOL    HW119440  14.842  11.709  13.028
 5867SOL    HW219441  14.853  11.697  13.179
 5868SOL     OW19442   7.513  11.426  10.702
 5868SOL    HW119443   7.532  11.340  10.664
 5868SOL    HW219444   7.488  11.407  10.793
 5869SOL     OW19445  13.237  11.849   5.292
 5869SOL    HW119446  13.212  11.804   5.212
 5869SOL    HW219447  13.186  11.930   5.291
 5870SOL     OW19448  10.157   0.307   7.907
 5870SOL    HW119449  10.164   0.401   7.888
 5870SOL    HW219450  10.068   0.296   7.942
 5871SOL     OW19451   6.541   0.480  13.379
 5871SOL    HW119452   6.481   0.554  13.387
 5871SOL    HW219453   6.621   0.516  13.342
 5872SOL     OW19454  14.503   4.311   7.412
 5872SOL    HW119455  14.519   4.382   7.475
 5872SOL    HW219456  14.564   4.242   7.438
 5873SOL     OW19457   5.369   4.398   8.125
 5873SOL    HW119458   5.274   4.386   8.129
 5873SOL    HW219459   5.385   4.427   8.035
 5874SOL     OW19460  10.229   0.215   9.006
 5874SOL    HW119461  10.258   0.172   9.087
 5874SOL    HW219462  10.310   0.242   8.963
 5875SOL     OW19463  13.987   6.075  12.682
 5875SOL    HW119464  13.918   6.109  12.739
 5875SOL    HW219465  13.945   6.067  12.596
 5876SOL     OW19466   0.707  12.298  12.457
 5876SOL    HW119467   0.652  12.376  12.461
 5876SOL    HW219468   0.745  12.299  12.369
 5877SOL     OW19469   6.845  14.808  14.033
 5877SOL    HW119470   6.851   0.030  14.038
 5877SOL    HW219471   6.757  14.791  13.999
 5878SOL     OW19472  12.821   8.027   9.269
 5878SOL    HW119473  12.808   8.120   9.290
 5878SOL    HW219474  12.753   8.007   9.205
 5879SOL     OW19475   9.526   2.692  13.595
 5879SOL    HW119476   9.531   2.599  13.572
 5879SOL    HW219477   9.555   2.738  13.517
 5880SOL     OW19478  14.507   6.243   5.699
 5880SOL    HW119479  14.429   6.288   5.731
 5880SOL    HW219480  14.512   6.267   5.606
 5881SOL     OW19481   6.009  10.012   4.704
 5881SOL    HW119482   6.009  10.039   4.612
 5881SOL    HW219483   6.090   9.963   4.715
 5882SOL     OW19484  13.901   2.108   0.850
 5882SOL    HW119485  13.956   2.133   0.924
 5882SOL    HW219486  13.926   2.018   0.831
 5883SOL     OW19487   0.328   2.615   3.543
 5883SOL    HW119488   0.353   2.579   3.458
 5883SOL    HW219489   0.237   2.590   3.554
 5884SOL     OW19490  10.357   9.698   9.112
 5884SOL    HW119491  10.361   9.712   9.017
 5884SOL    HW219492  10.272   9.655   9.126
 5885SOL     OW19493   2.643   7.503   5.777
 5885SOL    HW119494   2.637   7.496   5.682
 5885SOL    HW219495   2.556   7.528   5.805
 5886SOL     OW19496   5.762  11.429   2.491
 5886SOL    HW119497   5.845  11.437   2.445
 5886SOL    HW219498   5.737  11.519   2.512
 5887SOL     OW19499   5.755   0.122  12.103
 5887SOL    HW119500   5.708   0.040  12.102
 5887SOL    HW219501   5.846   0.097  12.120
 5888SOL     OW19502  10.666   4.654   1.711
 5888SOL    HW119503  10.703   4.735   1.748
 5888SOL    HW219504  10.573   4.660   1.729
 5889SOL     OW19505   1.531   1.218   0.100
 5889SOL    HW119506   1.550   1.311   0.110
 5889SOL    HW219507   1.462   1.201   0.164
 5890SOL     OW19508   7.825   9.668   3.559
 5890SOL    HW119509   7.846   9.760   3.577
 5890SOL    HW219510   7.788   9.636   3.642
 5891SOL     OW19511   3.987  13.912   2.500
 5891SOL    HW119512   4.034  13.830   2.483
 5891SOL    HW219513   4.044  13.960   2.560
 5892SOL     OW19514   9.124  13.790   7.910
 5892SOL    HW119515   9.156  13.709   7.871
 5892SOL    HW219516   9.057  13.762   7.972
 5893SOL     OW19517   9.318  12.518  10.333
 5893SOL    HW119518   9.222  12.514  10.336
 5893SOL    HW219519   9.346  12.477  10.415
 5894SOL     OW19520   1.633   7.809  11.723
 5894SOL    HW119521   1.719   7.768  11.722
 5894SOL    HW219522   1.585   7.762  11.791
 5895SOL     OW19523   5.512  13.099   4.242
 5895SOL    HW119524   5.426  13.106   4.284
 5895SOL    HW219525   5.493  13.096   4.148
 5896SOL     OW19526   4.684   7.401   9.830
 5896SOL    HW119527   4.770   7.368   9.855
 5896SOL    HW219528   4.622   7.349   9.881
 5897SOL     OW19529   2.965   9.860   5.363
 5897SOL    HW119530   2.955   9.765   5.373
 5897SOL    HW219531   3.002   9.871   5.275
 5898SOL     OW19532   9.558   8.046  14.518
 5898SOL    HW119533   9.530   8.099  14.444
 5898SOL    HW219534   9.495   8.066  14.588
 5899SOL     OW19535   3.511  10.951   6.536
 5899SOL    HW119536   3.433  10.895   6.541
 5899SOL    HW219537   3.477  11.040   6.535
 5900SOL     OW19538   8.996   3.691   3.020
 5900SOL    HW119539   8.976   3.634   2.945
 5900SOL    HW219540   8.965   3.642   3.096
 5901SOL     OW19541   3.863   7.428   1.588
 5901SOL    HW119542   3.769   7.409   1.590
 5901SOL    HW219543   3.884   7.434   1.495
 5902SOL     OW19544   0.270   8.824   5.863
 5902SOL    HW119545   0.202   8.867   5.916
 5902SOL    HW219546   0.304   8.894   5.807
 5903SOL     OW19547   0.678   5.717   2.505
 5903SOL    HW119548   0.617   5.790   2.512
 5903SOL    HW219549   0.687   5.685   2.594
 5904SOL     OW19550   5.423  14.461   4.258
 5904SOL    HW119551   5.443  14.466   4.352
 5904SOL    HW219552   5.468  14.383   4.228
 5905SOL     OW19553  13.833   4.159  11.096
 5905SOL    HW119554  13.789   4.202  11.023
 5905SOL    HW219555  13.895   4.224  11.128
 5906SOL     OW19556  13.867  13.140   1.818
 5906SOL    HW119557  13.857  13.229   1.853
 5906SOL    HW219558  13.788  13.125   1.767
 5907SOL     OW19559  11.609  14.118   8.135
 5907SOL    HW119560  11.537  14.062   8.106
 5907SOL    HW219561  11.670  14.059   8.177
 5908SOL     OW19562  13.140   2.655  13.556
 5908SOL    HW119563  13.162   2.729  13.612
 5908SOL    HW219564  13.072   2.688  13.498
 5909SOL     OW19565  14.518  14.514   0.105
 5909SOL    HW119566  14.479  14.431   0.131
 5909SOL    HW219567  14.454  14.553   0.045
 5910SOL     OW19568   2.172   2.404   7.074
 5910SOL    HW119569   2.164   2.493   7.039
 5910SOL    HW219570   2.208   2.416   7.162
 5911SOL     OW19571  10.447   1.490  13.941
 5911SOL    HW119572  10.378   1.507  14.005
 5911SOL    HW219573  10.493   1.413  13.975
 5912SOL     OW19574   4.778  11.269   4.213
 5912SOL    HW119575   4.782  11.351   4.263
 5912SOL    HW219576   4.707  11.220   4.254
 5913SOL     OW19577  12.666  12.716   7.370
 5913SOL    HW119578  12.629  12.638   7.413
 5913SOL    HW219579  12.730  12.681   7.309
 5914SOL     OW19580  12.922   6.511   0.843
 5914SOL    HW119581  12.984   6.462   0.789
 5914SOL    HW219582  12.888   6.447   0.904
 5915SOL     OW19583   9.144   0.826   6.717
 5915SOL    HW119584   9.131   0.801   6.808
 5915SOL    HW219585   9.231   0.865   6.714
 5916SOL     OW19586   5.736   2.651   2.335
 5916SOL    HW119587   5.711   2.738   2.366
 5916SOL    HW219588   5.653   2.607   2.318
 5917SOL     OW19589  12.964   4.354   0.375
 5917SOL    HW119590  13.047   4.310   0.354
 5917SOL    HW219591  12.898   4.287   0.358
 5918SOL     OW19592   9.491   2.235   1.180
 5918SOL    HW119593   9.465   2.165   1.240
 5918SOL    HW219594   9.408   2.265   1.142
 5919SOL     OW19595   0.554   3.517  10.338
 5919SOL    HW119596   0.550   3.442  10.398
 5919SOL    HW219597   0.514   3.588  10.388
 5920SOL     OW19598   6.598  13.651  14.732
 5920SOL    HW119599   6.538  13.576  14.729
 5920SOL    HW219600   6.655  13.635  14.807
 5921SOL     OW19601  14.395   6.780   7.539
 5921SOL    HW119602  14.467   6.801   7.480
 5921SOL    HW219603  14.370   6.864   7.578
 5922SOL     OW19604  13.195   2.080  14.387
 5922SOL    HW119605  13.271   2.094  14.331
 5922SOL    HW219606  13.198   2.153  14.450
 5923SOL     OW19607   4.774  11.335  13.478
 5923SOL    HW119608   4.691  11.290  13.457
 5923SOL    HW219609   4.755  11.384  13.558
 5924SOL     OW19610  10.309   4.568  13.602
 5924SOL    HW119611  10.388   4.544  13.650
 5924SOL    HW219612  10.342   4.608  13.521
 5925SOL     OW19613   8.669  11.136  12.685
 5925SOL    HW119614   8.718  11.192  12.626
 5925SOL    HW219615   8.598  11.191  12.718
 5926SOL     OW19616   1.453  11.994   4.656
 5926SOL    HW119617   1.537  11.990   4.701
 5926SOL    HW219618   1.473  12.034   4.571
 5927SOL     OW19619   9.404   1.928   4.574
 5927SOL    HW119620   9.357   1.940   4.656
 5927SOL    HW219621   9.427   2.017   4.547
 5928SOL     OW19622   2.405  10.189   4.820
 5928SOL    HW119623   2.468  10.186   4.893
 5928SOL    HW219624   2.365  10.275   4.827
 5929SOL     OW19625   5.448   9.263   8.048
 5929SOL    HW119626   5.513   9.320   8.089
 5929SOL    HW219627   5.498   9.211   7.985
 5930SOL     OW19628  10.162   0.503  11.018
 5930SOL    HW119629  10.087   0.443  11.016
 5930SOL    HW219630  10.238   0.447  11.035
 5931SOL     OW19631   3.591  14.778   0.242
 5931SOL    HW119632   3.511  14.753   0.288
 5931SOL    HW219633   3.567  14.856   0.192
 5932SOL     OW19634  13.866   7.920   8.637
 5932SOL    HW119635  13.789   7.927   8.580
 5932SOL    HW219636  13.830   7.925   8.726
 5933SOL     OW19637   2.217   1.877  10.390
 5933SOL    HW119638   2.214   1.960  10.437
 5933SOL    HW219639   2.307   1.869  10.359
 5934SOL     OW19640   1.029  10.278   2.507
 5934SOL    HW119641   0.996  10.198   2.467
 5934SOL    HW219642   1.088  10.316   2.442
 5935SOL     OW19643  14.486  13.447   1.534
 5935SOL    HW119644  14.423  13.435   1.605
 5935SOL    HW219645  14.524  13.533   1.551
 5936SOL     OW19646  11.212   7.489   1.041
 5936SOL    HW119647  11.245   7.459   1.126
 5936SOL    HW219648  11.287   7.484   0.982
 5937SOL     OW19649   6.410   0.468   7.819
 5937SOL    HW119650   6.357   0.388   7.820
 5937SOL    HW219651   6.491   0.443   7.775
 5938SOL     OW19652  11.400  13.000  12.550
 5938SOL    HW119653  11.467  12.981  12.616
 5938SOL    HW219654  11.425  13.085  12.513
 5939SOL     OW19655   8.377  14.584  11.594
 5939SOL    HW119656   8.465  14.620  11.581
 5939SOL    HW219657   8.326  14.659  11.627
 5940SOL     OW19658   8.503   6.645   4.066
 5940SOL    HW119659   8.546   6.639   3.981
 5940SOL    HW219660   8.535   6.726   4.104
 5941SOL     OW19661   4.066  14.749   8.913
 5941SOL    HW119662   4.087  14.662   8.947
 5941SOL    HW219663   4.039  14.799   8.989
 5942SOL     OW19664   0.358  14.326   0.554
 5942SOL    HW119665   0.381  14.321   0.461
 5942SOL    HW219666   0.440  14.351   0.597
 5943SOL     OW19667  12.669  12.986   7.023
 5943SOL    HW119668  12.621  13.000   6.942
 5943SOL    HW219669  12.675  12.890   7.031
 5944SOL     OW19670  10.541   7.432  13.995
 5944SOL    HW119671  10.562   7.352  13.946
 5944SOL    HW219672  10.531   7.499  13.928
 5945SOL     OW19673   0.295   3.478   8.362
 5945SOL    HW119674   0.378   3.463   8.407
 5945SOL    HW219675   0.232   3.491   8.432
 5946SOL     OW19676   2.110  11.354  11.363
 5946SOL    HW119677   2.145  11.290  11.301
 5946SOL    HW219678   2.117  11.312  11.449
 5947SOL     OW19679   0.122   5.760   9.903
 5947SOL    HW119680   0.164   5.844   9.884
 5947SOL    HW219681   0.189   5.695   9.883
 5948SOL     OW19682  14.758   9.117   6.384
 5948SOL    HW119683  14.731   9.073   6.464
 5948SOL    HW219684  14.723   9.063   6.314
 5949SOL     OW19685   0.580   5.285   8.455
 5949SOL    HW119686   0.593   5.196   8.488
 5949SOL    HW219687   0.549   5.273   8.365
 5950SOL     OW19688  12.651  14.259  11.991
 5950SOL    HW119689  12.694  14.224  12.069
 5950SOL    HW219690  12.700  14.221  11.918
 5951SOL     OW19691   1.315   4.230   4.560
 5951SOL    HW119692   1.377   4.237   4.488
 5951SOL    HW219693   1.345   4.295   4.623
 5952SOL     OW19694   9.158  12.252   9.180
 5952SOL    HW119695   9.200  12.338   9.176
 5952SOL    HW219696   9.231  12.190   9.178
 5953SOL     OW19697  12.644  12.136   9.726
 5953SOL    HW119698  12.672  12.064   9.784
 5953SOL    HW219699  12.724  12.162   9.681
 5954SOL     OW19700   9.718   7.947  11.871
 5954SOL    HW119701   9.624   7.942  11.855
 5954SOL    HW219702   9.749   7.858  11.852
 5955SOL     OW19703   2.211  11.921   9.851
 5955SOL    HW119704   2.199  11.955   9.762
 5955SOL    HW219705   2.241  11.997   9.901
 5956SOL     OW19706  14.756  14.784  13.223
 5956SOL    HW119707  14.812  14.801  13.299
 5956SOL    HW219708  14.770  14.691  13.204
 5957SOL     OW19709   5.779   9.790   1.547
 5957SOL    HW119710   5.784   9.715   1.487
 5957SOL    HW219711   5.850   9.847   1.519
 5958SOL     OW19712  11.495   8.659   2.450
 5958SOL    HW119713  11.466   8.670   2.540
 5958SOL    HW219714  11.415   8.637   2.401
 5959SOL     OW19715   4.286   7.712  14.532
 5959SOL    HW119716   4.270   7.668  14.448
 5959SOL    HW219717   4.261   7.803  14.516
 5960SOL     OW19718   5.436  11.488   5.048
 5960SOL    HW119719   5.460  11.576   5.019
 5960SOL    HW219720   5.520  11.445   5.066
 5961SOL     OW19721  12.386  13.643   4.108
 5961SOL    HW119722  12.473  13.676   4.130
 5961SOL    HW219723  12.328  13.685   4.171
 5962SOL     OW19724   5.461   7.703   8.466
 5962SOL    HW119725   5.554   7.682   8.465
 5962SOL    HW219726   5.453   7.780   8.410
 5963SOL     OW19727  11.826   6.798  13.844
 5963SOL    HW119728  11.856   6.707  13.848
 5963SOL    HW219729  11.826   6.826  13.936
 5964SOL     OW19730   9.173   8.489   2.131
 5964SOL    HW119731   9.224   8.565   2.102
 5964SOL    HW219732   9.237   8.432   2.174
 5965SOL     OW19733   6.673  13.423   5.694
 5965SOL    HW119734   6.712  13.358   5.636
 5965SOL    HW219735   6.743  13.487   5.708
 5966SOL     OW19736   5.205  14.597  14.836
 5966SOL    HW119737   5.273  14.530  14.845
 5966SOL    HW219738   5.181  14.594  14.744
 5967SOL     OW19739   5.132   0.342   6.245
 5967SOL    HW119740   5.100   0.339   6.155
 5967SOL    HW219741   5.204   0.278   6.246
 5968SOL     OW19742  10.850  10.891   1.746
 5968SOL    HW119743  10.854  10.804   1.786
 5968SOL    HW219744  10.825  10.950   1.817
 5969SOL     OW19745   5.186  10.444   2.936
 5969SOL    HW119746   5.115  10.438   2.872
 5969SOL    HW219747   5.231  10.360   2.930
 5970SOL     OW19748  12.268   8.069   3.065
 5970SOL    HW119749  12.301   8.010   3.134
 5970SOL    HW219750  12.252   8.011   2.990
 5971SOL     OW19751   3.886  11.685   1.925
 5971SOL    HW119752   3.912  11.759   1.981
 5971SOL    HW219753   3.910  11.607   1.976
 5972SOL     OW19754   6.073   5.641   1.296
 5972SOL    HW119755   6.162   5.674   1.312
 5972SOL    HW219756   6.050   5.677   1.210
 5973SOL     OW19757  14.467   8.124   2.815
 5973SOL    HW119758  14.528   8.111   2.888
 5973SOL    HW219759  14.502   8.068   2.745
 5974SOL     OW19760  14.408   1.829  12.804
 5974SOL    HW119761  14.451   1.849  12.721
 5974SOL    HW219762  14.451   1.750  12.836
 5975SOL     OW19763   6.712   7.838   9.825
 5975SOL    HW119764   6.660   7.915   9.805
 5975SOL    HW219765   6.803   7.867   9.817
 5976SOL     OW19766   3.736   3.571   9.078
 5976SOL    HW119767   3.698   3.528   9.155
 5976SOL    HW219768   3.796   3.637   9.114
 5977SOL     OW19769  11.041   0.721   5.193
 5977SOL    HW119770  11.078   0.790   5.249
 5977SOL    HW219771  11.066   0.639   5.236
 5978SOL     OW19772  14.823   4.047   8.925
 5978SOL    HW119773   0.009   4.042   9.000
 5978SOL    HW219774  14.756   3.981   8.943
 5979SOL     OW19775   7.039   1.057   5.641
 5979SOL    HW119776   6.988   1.113   5.582
 5979SOL    HW219777   7.022   1.092   5.728
 5980SOL     OW19778  13.359  10.088   5.932
 5980SOL    HW119779  13.267  10.071   5.912
 5980SOL    HW219780  13.407  10.043   5.863
 5981SOL     OW19781   8.197   1.539   3.828
 5981SOL    HW119782   8.144   1.539   3.749
 5981SOL    HW219783   8.143   1.495   3.894
 5982SOL     OW19784   6.538  12.531   7.551
 5982SOL    HW119785   6.617  12.499   7.595
 5982SOL    HW219786   6.570  12.584   7.479
 5983SOL     OW19787  11.031   3.816   2.929
 5983SOL    HW119788  11.034   3.826   3.024
 5983SOL    HW219789  11.025   3.721   2.915
 5984SOL     OW19790   8.523  14.525   2.153
 5984SOL    HW119791   8.516  14.483   2.066
 5984SOL    HW219792   8.540  14.452   2.213
 5985SOL     OW19793   4.741   1.619   7.634
 5985SOL    HW119794   4.719   1.557   7.564
 5985SOL    HW219795   4.834   1.604   7.652
 5986SOL     OW19796   8.098   4.117   7.575
 5986SOL    HW119797   8.124   4.041   7.628
 5986SOL    HW219798   8.018   4.149   7.616
 5987SOL     OW19799  14.480   1.468   3.118
 5987SOL    HW119800  14.422   1.426   3.181
 5987SOL    HW219801  14.539   1.398   3.090
 5988SOL     OW19802   2.895   0.623   1.268
 5988SOL    HW119803   2.813   0.581   1.294
 5988SOL    HW219804   2.962   0.557   1.286
 5989SOL     OW19805   8.660  14.304  13.110
 5989SOL    HW119806   8.600  14.363  13.157
 5989SOL    HW219807   8.728  14.283  13.174
 5990SOL     OW19808   6.299  10.289   7.611
 5990SOL    HW119809   6.359  10.330   7.548
 5990SOL    HW219810   6.296  10.197   7.583
 5991SOL     OW19811  14.418   4.001  10.796
 5991SOL    HW119812  14.508   3.980  10.822
 5991SOL    HW219813  14.426   4.085  10.750
 5992SOL     OW19814   1.414  12.326  12.445
 5992SOL    HW119815   1.393  12.247  12.395
 5992SOL    HW219816   1.331  12.352  12.484
 5993SOL     OW19817  13.205   5.669   5.403
 5993SOL    HW119818  13.289   5.715   5.409
 5993SOL    HW219819  13.222   5.594   5.345
 5994SOL     OW19820   2.293   4.880   5.327
 5994SOL    HW119821   2.263   4.948   5.266
 5994SOL    HW219822   2.258   4.798   5.291
 5995SOL     OW19823  10.643   4.976   4.540
 5995SOL    HW119824  10.737   4.957   4.539
 5995SOL    HW219825  10.601   4.893   4.562
 5996SOL     OW19826  12.631  14.549   0.515
 5996SOL    HW119827  12.564  14.518   0.576
 5996SOL    HW219828  12.644  14.475   0.455
 5997SOL     OW19829  14.522   5.262   8.305
 5997SOL    HW119830  14.510   5.301   8.392
 5997SOL    HW219831  14.480   5.176   8.311
 5998SOL     OW19832   3.291  13.046   9.391
 5998SOL    HW119833   3.355  13.090   9.335
 5998SOL    HW219834   3.270  13.111   9.458
 5999SOL     OW19835   9.835   5.104  11.668
 5999SOL    HW119836   9.794   5.136  11.588
 5999SOL    HW219837   9.878   5.181  11.706
 6000SOL     OW19838   3.587  10.916  12.182
 6000SOL    HW119839   3.506  10.876  12.214
 6000SOL    HW219840   3.619  10.967  12.257
 6001SOL     OW19841  13.461  10.662  14.034
 6001SOL    HW119842  13.527  10.665  13.965
 6001SOL    HW219843  13.381  10.633  13.990
 6002SOL     OW19844   1.411   3.067  14.258
 6002SOL    HW119845   1.316   3.079  14.256
 6002SOL    HW219846   1.428   2.995  14.198
 6003SOL     OW19847   1.521  12.418   2.075
 6003SOL    HW119848   1.427  12.435   2.085
 6003SOL    HW219849   1.531  12.395   1.983
 6004SOL     OW19850   6.257   3.623   0.599
 6004SOL    HW119851   6.351   3.627   0.617
 6004SOL    HW219852   6.252   3.602   0.505
 6005SOL     OW19853   6.935   5.945   1.978
 6005SOL    HW119854   7.007   5.974   2.035
 6005SOL    HW219855   6.914   5.857   2.010
 6006SOL     OW19856  12.170  11.461   0.701
 6006SOL    HW119857  12.109  11.516   0.750
 6006SOL    HW219858  12.255  11.476   0.742
 6007SOL     OW19859   6.952  14.609  10.401
 6007SOL    HW119860   6.944  14.694  10.357
 6007SOL    HW219861   7.039  14.577  10.376
 6008SOL     OW19862   5.196  10.490  10.083
 6008SOL    HW119863   5.220  10.460  10.171
 6008SOL    HW219864   5.139  10.421  10.049
 6009SOL     OW19865  12.142  12.998  12.547
 6009SOL    HW119866  12.165  12.988  12.639
 6009SOL    HW219867  12.062  13.051  12.548
 6010SOL     OW19868   0.969   4.365   0.020
 6010SOL    HW119869   0.986   4.292  14.833
 6010SOL    HW219870   0.913   4.329   0.088
 6011SOL     OW19871  10.299   5.146  12.007
 6011SOL    HW119872  10.277   5.070  11.954
 6011SOL    HW219873  10.216   5.193  12.019
 6012SOL     OW19874   4.295   4.518   8.715
 6012SOL    HW119875   4.243   4.443   8.684
 6012SOL    HW219876   4.384   4.485   8.719
 6013SOL     OW19877   6.739  10.149   1.505
 6013SOL    HW119878   6.816  10.161   1.449
 6013SOL    HW219879   6.750  10.062   1.543
 6014SOL     OW19880   8.788   9.159  13.493
 6014SOL    HW119881   8.730   9.167  13.417
 6014SOL    HW219882   8.742   9.101  13.553
 6015SOL     OW19883  14.233  12.885   9.735
 6015SOL    HW119884  14.185  12.901   9.654
 6015SOL    HW219885  14.281  12.966   9.751
 6016SOL     OW19886  14.049   8.042  10.273
 6016SOL    HW119887  14.124   8.023  10.217
 6016SOL    HW219888  14.030   7.958  10.316
 6017SOL     OW19889   1.429   1.029  13.155
 6017SOL    HW119890   1.426   0.943  13.112
 6017SOL    HW219891   1.509   1.027  13.206
 6018SOL     OW19892  12.889   8.941   6.672
 6018SOL    HW119893  12.803   8.931   6.714
 6018SOL    HW219894  12.916   9.030   6.692
 6019SOL     OW19895   7.692  14.075   9.466
 6019SOL    HW119896   7.620  14.093   9.405
 6019SOL    HW219897   7.754  14.147   9.452
 6020SOL     OW19898   1.967   7.800   3.864
 6020SOL    HW119899   2.051   7.762   3.841
 6020SOL    HW219900   1.978   7.830   3.955
 6021SOL     OW19901   8.269  10.043  10.644
 6021SOL    HW119902   8.336  10.057  10.577
 6021SOL    HW219903   8.303  10.089  10.721
 6022SOL     OW19904   6.108   9.498  13.013
 6022SOL    HW119905   6.175   9.438  12.980
 6022SOL    HW219906   6.034   9.441  13.035
 6023SOL     OW19907   9.295   4.620  11.348
 6023SOL    HW119908   9.386   4.602  11.374
 6023SOL    HW219909   9.301   4.695  11.290
 6024SOL     OW19910   5.558   8.735  11.332
 6024SOL    HW119911   5.469   8.701  11.343
 6024SOL    HW219912   5.614   8.658  11.344
 6025SOL     OW19913  11.874   3.766   5.606
 6025SOL    HW119914  11.797   3.788   5.554
 6025SOL    HW219915  11.941   3.745   5.541
 6026SOL     OW19916   0.998   4.700  11.072
 6026SOL    HW119917   1.013   4.642  10.997
 6026SOL    HW219918   1.084   4.740  11.089
 6027SOL     OW19919  12.571   4.535   5.794
 6027SOL    HW119920  12.582   4.452   5.840
 6027SOL    HW219921  12.515   4.514   5.720
 6028SOL     OW19922   7.995   6.365   6.742
 6028SOL    HW119923   7.983   6.319   6.825
 6028SOL    HW219924   8.072   6.324   6.702
 6029SOL     OW19925   7.913   0.821   7.322
 6029SOL    HW119926   7.845   0.756   7.307
 6029SOL    HW219927   7.889   0.895   7.267
 6030SOL     OW19928   5.660   2.847   3.552
 6030SOL    HW119929   5.703   2.893   3.625
 6030SOL    HW219930   5.730   2.795   3.512
 6031SOL     OW19931   1.020  10.345   6.272
 6031SOL    HW119932   0.986  10.431   6.248
 6031SOL    HW219933   1.027  10.298   6.189
 6032SOL     OW19934   9.795  13.075   5.060
 6032SOL    HW119935   9.787  13.031   4.976
 6032SOL    HW219936   9.706  13.071   5.098
 6033SOL     OW19937  10.125   6.617   3.155
 6033SOL    HW119938  10.050   6.565   3.180
 6033SOL    HW219939  10.132   6.605   3.060
 6034SOL     OW19940   3.500  12.485   3.483
 6034SOL    HW119941   3.509  12.489   3.578
 6034SOL    HW219942   3.468  12.396   3.466
 6035SOL     OW19943   2.741   1.351   6.897
 6035SOL    HW119944   2.791   1.432   6.892
 6035SOL    HW219945   2.651   1.379   6.917
 6036SOL     OW19946   0.444   9.063  10.996
 6036SOL    HW119947   0.351   9.043  10.991
 6036SOL    HW219948   0.450   9.137  11.057
 6037SOL     OW19949   2.998   8.525   8.500
 6037SOL    HW119950   3.034   8.447   8.543
 6037SOL    HW219951   3.003   8.594   8.567
 6038SOL     OW19952   4.585   1.102   6.642
 6038SOL    HW119953   4.568   1.029   6.702
 6038SOL    HW219954   4.528   1.173   6.674
 6039SOL     OW19955   6.208   2.171   2.878
 6039SOL    HW119956   6.127   2.210   2.846
 6039SOL    HW219957   6.263   2.246   2.903
 6040SOL     OW19958  12.264   7.979   1.305
 6040SOL    HW119959  12.330   8.048   1.310
 6040SOL    HW219960  12.212   8.000   1.228
 6041SOL     OW19961   3.634   3.733  11.929
 6041SOL    HW119962   3.636   3.729  11.833
 6041SOL    HW219963   3.709   3.680  11.956
 6042SOL     OW19964   0.669  12.796   0.383
 6042SOL    HW119965   0.618  12.872   0.410
 6042SOL    HW219966   0.706  12.761   0.464
 6043SOL     OW19967  10.919  11.889  13.504
 6043SOL    HW119968  10.970  11.904  13.584
 6043SOL    HW219969  10.951  11.805  13.470
 6044SOL     OW19970   0.029  12.776  11.745
 6044SOL    HW119971  14.853  12.758  11.666
 6044SOL    HW219972  14.838  12.773  11.815
 6045SOL     OW19973  11.880  11.171   8.070
 6045SOL    HW119974  11.793  11.205   8.050
 6045SOL    HW219975  11.934  11.248   8.082
 6046SOL     OW19976  10.198   2.217   0.503
 6046SOL    HW119977  10.234   2.233   0.416
 6046SOL    HW219978  10.238   2.135   0.531
 6047SOL     OW19979   7.435   4.104   9.922
 6047SOL    HW119980   7.424   4.127  10.014
 6047SOL    HW219981   7.381   4.026   9.910
 6048SOL     OW19982   0.946  14.719  13.262
 6048SOL    HW119983   0.920  14.650  13.323
 6048SOL    HW219984   0.947  14.677  13.176
 6049SOL     OW19985   4.178   0.702   7.523
 6049SOL    HW119986   4.120   0.732   7.592
 6049SOL    HW219987   4.130   0.631   7.480
 6050SOL     OW19988  12.567   1.519   7.037
 6050SOL    HW119989  12.574   1.462   6.961
 6050SOL    HW219990  12.622   1.594   7.015
 6051SOL     OW19991  10.674  12.429  13.339
 6051SOL    HW119992  10.586  12.446  13.375
 6051SOL    HW219993  10.723  12.509  13.358
 6052SOL     OW19994  11.348   3.199   0.461
 6052SOL    HW119995  11.432   3.161   0.486
 6052SOL    HW219996  11.371   3.276   0.409
 6053SOL     OW19997   8.417  14.774   0.939
 6053SOL    HW119998   8.437  14.698   0.992
 6053SOL    HW219999   8.502  14.817   0.926
 6054SOL     OW20000   0.979   2.112   6.623
 6054SOL    HW120001   0.971   2.169   6.700
 6054SOL    HW220002   0.992   2.025   6.660
 6055SOL     OW20003   2.826  12.938  12.724
 6055SOL    HW120004   2.886  12.873  12.761
 6055SOL    HW220005   2.771  12.887  12.663
 6056SOL     OW20006  11.066   1.373  13.302
 6056SOL    HW120007  11.118   1.446  13.336
 6056SOL    HW220008  11.128   1.321  13.251
 6057SOL     OW20009   6.063   9.755   7.131
 6057SOL    HW120010   5.979   9.776   7.171
 6057SOL    HW220011   6.112   9.710   7.200
 6058SOL     OW20012  13.550   9.697  11.699
 6058SOL    HW120013  13.467   9.685  11.746
 6058SOL    HW220014  13.592   9.611  11.702
 6059SOL     OW20015   3.381  10.515   5.002
 6059SOL    HW120016   3.405  10.545   5.090
 6059SOL    HW220017   3.288  10.537   4.993
 6060SOL     OW20018   3.461   7.184  10.210
 6060SOL    HW120019   3.528   7.235  10.256
 6060SOL    HW220020   3.468   7.212  10.119
 6061SOL     OW20021  12.970   3.133   8.306
 6061SOL    HW120022  12.973   3.226   8.282
 6061SOL    HW220023  13.036   3.092   8.251
 6062SOL     OW20024  14.018  14.421  14.452
 6062SOL    HW120025  14.059  14.340  14.422
 6062SOL    HW220026  13.962  14.448  14.380
 6063SOL     OW20027   1.184  13.280   8.586
 6063SOL    HW120028   1.099  13.298   8.626
 6063SOL    HW220029   1.236  13.241   8.656
 6064SOL     OW20030   3.542   4.597   6.115
 6064SOL    HW120031   3.617   4.650   6.145
 6064SOL    HW220032   3.473   4.614   6.179
 6065SOL     OW20033   6.105  13.560   5.317
 6065SOL    HW120034   6.032  13.615   5.287
 6065SOL    HW220035   6.122  13.591   5.406
 6066SOL     OW20036  14.082  10.730   9.403
 6066SOL    HW120037  14.156  10.774   9.445
 6066SOL    HW220038  14.057  10.661   9.464
 6067SOL     OW20039   0.055  14.756   6.274
 6067SOL    HW120040   0.150  14.767   6.274
 6067SOL    HW220041   0.037  14.695   6.345
 6068SOL     OW20042  12.385  14.714   3.123
 6068SOL    HW120043  12.357  14.778   3.189
 6068SOL    HW220044  12.474  14.690   3.150
 6069SOL     OW20045  10.147  11.387   7.976
 6069SOL    HW120046  10.227  11.411   7.930
 6069SOL    HW220047  10.142  11.292   7.969
 6070SOL     OW20048   3.454   7.099   3.317
 6070SOL    HW120049   3.494   7.019   3.284
 6070SOL    HW220050   3.424   7.076   3.405
 6071SOL     OW20051   6.668   6.542  10.966
 6071SOL    HW120052   6.701   6.557  10.877
 6071SOL    HW220053   6.574   6.534  10.956
 6072SOL     OW20054   0.975   7.771  10.375
 6072SOL    HW120055   1.006   7.683  10.354
 6072SOL    HW220056   0.891   7.778  10.331
 6073SOL     OW20057  11.964   3.455   8.599
 6073SOL    HW120058  11.958   3.435   8.692
 6073SOL    HW220059  12.045   3.505   8.590
 6074SOL     OW20060  14.531   3.125   3.056
 6074SOL    HW120061  14.517   3.167   3.141
 6074SOL    HW220062  14.444   3.111   3.021
 6075SOL     OW20063   4.528   1.741  13.692
 6075SOL    HW120064   4.542   1.789  13.774
 6075SOL    HW220065   4.454   1.683  13.710
 6076SOL     OW20066   1.422   5.216   0.611
 6076SOL    HW120067   1.473   5.140   0.640
 6076SOL    HW220068   1.438   5.282   0.678
 6077SOL     OW20069   7.994   6.815  13.767
 6077SOL    HW120070   7.982   6.741  13.827
 6077SOL    HW220071   7.915   6.815  13.713
 6078SOL     OW20072  12.230   2.489   8.696
 6078SOL    HW120073  12.282   2.467   8.619
 6078SOL    HW220074  12.148   2.441   8.684
 6079SOL     OW20075   6.835  11.072   3.032
 6079SOL    HW120076   6.854  10.992   2.983
 6079SOL    HW220077   6.899  11.072   3.103
 6080SOL     OW20078   5.585   4.035  10.652
 6080SOL    HW120079   5.572   4.060  10.744
 6080SOL    HW220080   5.612   3.944  10.655
 6081SOL     OW20081  13.008   4.519  12.222
 6081SOL    HW120082  13.020   4.547  12.132
 6081SOL    HW220083  12.959   4.437  12.216
 6082SOL     OW20084  13.231  12.984   4.728
 6082SOL    HW120085  13.251  12.973   4.821
 6082SOL    HW220086  13.304  13.036   4.694
 6083SOL     OW20087   1.013   8.152  10.535
 6083SOL    HW120088   0.963   8.186  10.609
 6083SOL    HW220089   0.949   8.104  10.483
 6084SOL     OW20090   4.368   9.378   3.038
 6084SOL    HW120091   4.416   9.362   2.957
 6084SOL    HW220092   4.435   9.399   3.103
 6085SOL     OW20093   5.915   1.566  13.297
 6085SOL    HW120094   5.852   1.580  13.226
 6085SOL    HW220095   5.946   1.653  13.320
 6086SOL     OW20096   0.954   0.766   9.575
 6086SOL    HW120097   0.867   0.798   9.600
 6086SOL    HW220098   0.991   0.731   9.656
 6087SOL     OW20099   3.121   3.332  12.029
 6087SOL    HW120100   3.105   3.344  11.935
 6087SOL    HW220101   3.200   3.383  12.046
 6088SOL     OW20102   3.689   7.596   9.697
 6088SOL    HW120103   3.783   7.609   9.685
 6088SOL    HW220104   3.664   7.657   9.766
 6089SOL     OW20105   0.878  13.960  14.635
 6089SOL    HW120106   0.824  14.022  14.586
 6089SOL    HW220107   0.882  13.882  14.578
 6090SOL     OW20108   7.080   7.328   7.285
 6090SOL    HW120109   7.019   7.279   7.230
 6090SOL    HW220110   7.161   7.278   7.282
 6091SOL     OW20111   2.705  11.763   3.413
 6091SOL    HW120112   2.668  11.762   3.325
 6091SOL    HW220113   2.634  11.733   3.469
 6092SOL     OW20114   8.206   9.136   1.120
 6092SOL    HW120115   8.244   9.048   1.118
 6092SOL    HW220116   8.165   9.146   1.034
 6093SOL     OW20117   8.299  10.353  14.583
 6093SOL    HW120118   8.363  10.336  14.652
 6093SOL    HW220119   8.351  10.381  14.508
 6094SOL     OW20120   4.052   2.711  11.943
 6094SOL    HW120121   4.010   2.710  11.857
 6094SOL    HW220122   4.119   2.643  11.938
 6095SOL     OW20123  12.019  12.784   6.024
 6095SOL    HW120124  12.073  12.758   6.099
 6095SOL    HW220125  12.030  12.879   6.019
 6096SOL     OW20126  11.100  11.567   6.641
 6096SOL    HW120127  11.078  11.542   6.730
 6096SOL    HW220128  11.059  11.501   6.586
 6097SOL     OW20129   9.454   5.437   4.551
 6097SOL    HW120130   9.395   5.472   4.484
 6097SOL    HW220131   9.506   5.370   4.505
 6098SOL     OW20132   8.555   4.443  13.537
 6098SOL    HW120133   8.463   4.427  13.558
 6098SOL    HW220134   8.559   4.536  13.515
 6099SOL     OW20135  13.422   3.122  10.382
 6099SOL    HW120136  13.431   3.151  10.473
 6099SOL    HW220137  13.413   3.027  10.388
 6100SOL     OW20138   0.315  12.029   2.702
 6100SOL    HW120139   0.373  12.060   2.772
 6100SOL    HW220140   0.355  12.063   2.622
 6101SOL     OW20141   4.045  11.940  10.151
 6101SOL    HW120142   4.021  11.961  10.061
 6101SOL    HW220143   4.132  11.901  10.145
 6102SOL     OW20144   6.056   2.585   1.104
 6102SOL    HW120145   5.983   2.523   1.101
 6102SOL    HW220146   6.074   2.606   1.013
 6103SOL     OW20147   0.793  10.972   9.088
 6103SOL    HW120148   0.787  11.026   9.009
 6103SOL    HW220149   0.839  11.028   9.151
 6104SOL     OW20150   0.678   6.607   4.659
 6104SOL    HW120151   0.701   6.689   4.615
 6104SOL    HW220152   0.652   6.549   4.588
 6105SOL     OW20153   3.718   6.345  13.928
 6105SOL    HW120154   3.703   6.439  13.923
 6105SOL    HW220155   3.773   6.325  13.852
 6106SOL     OW20156   5.826   0.192   9.259
 6106SOL    HW120157   5.810   0.165   9.168
 6106SOL    HW220158   5.743   0.176   9.303
 6107SOL     OW20159   3.662  11.684   8.418
 6107SOL    HW120160   3.752  11.653   8.430
 6107SOL    HW220161   3.623  11.679   8.505
 6108SOL     OW20162   7.383   5.779  14.619
 6108SOL    HW120163   7.467   5.824  14.613
 6108SOL    HW220164   7.404   5.690  14.647
 6109SOL     OW20165   8.879   6.841   1.632
 6109SOL    HW120166   8.860   6.925   1.672
 6109SOL    HW220167   8.921   6.790   1.701
 6110SOL     OW20168   3.783   1.056  13.529
 6110SOL    HW120169   3.727   1.108  13.472
 6110SOL    HW220170   3.760   1.085  13.618
 6111SOL     OW20171  11.032   2.968  13.081
 6111SOL    HW120172  11.035   3.044  13.139
 6111SOL    HW220173  10.981   2.903  13.129
 6112SOL     OW20174  14.120   0.011  14.536
 6112SOL    HW120175  14.089   0.056  14.614
 6112SOL    HW220176  14.041  14.848  14.496
 6113SOL     OW20177  10.413  10.577  10.857
 6113SOL    HW120178  10.474  10.504  10.853
 6113SOL    HW220179  10.408  10.609  10.767
 6114SOL     OW20180   4.894  10.553   9.541
 6114SOL    HW120181   4.894  10.585   9.631
 6114SOL    HW220182   4.960  10.484   9.540
 6115SOL     OW20183   7.032   4.122  11.684
 6115SOL    HW120184   7.094   4.164  11.624
 6115SOL    HW220185   6.949   4.122  11.636
 6116SOL     OW20186   7.299  14.419  12.575
 6116SOL    HW120187   7.340  14.368  12.506
 6116SOL    HW220188   7.223  14.367  12.601
 6117SOL     OW20189   8.050   0.420  13.612
 6117SOL    HW120190   7.974   0.392  13.560
 6117SOL    HW220191   8.019   0.498  13.659
 6118SOL     OW20192  13.691  13.516   9.667
 6118SOL    HW120193  13.760  13.451   9.656
 6118SOL    HW220194  13.696  13.541   9.759
 6119SOL     OW20195  11.436   5.220   0.990
 6119SOL    HW120196  11.526   5.247   1.011
 6119SOL    HW220197  11.391   5.302   0.969
 6120SOL     OW20198  11.561  13.105   8.738
 6120SOL    HW120199  11.524  13.020   8.716
 6120SOL    HW220200  11.653  13.087   8.759
 6121SOL     OW20201  14.791   1.777   2.964
 6121SOL    HW120202  14.829   1.792   3.050
 6121SOL    HW220203  14.848   1.712   2.923
 6122SOL     OW20204   0.168  10.730   3.394
 6122SOL    HW120205   0.178  10.730   3.298
 6122SOL    HW220206   0.252  10.698   3.427
 6123SOL     OW20207   4.135   3.240   0.800
 6123SOL    HW120208   4.185   3.314   0.834
 6123SOL    HW220209   4.054   3.278   0.767
 6124SOL     OW20210  14.490   7.447   5.500
 6124SOL    HW120211  14.502   7.520   5.561
 6124SOL    HW220212  14.396   7.443   5.485
 6125SOL     OW20213   1.523   7.883  10.026
 6125SOL    HW120214   1.582   7.858   9.955
 6125SOL    HW220215   1.568   7.956  10.069
 6126SOL     OW20216  10.897  14.092  13.006
 6126SOL    HW120217  10.840  14.159  12.969
 6126SOL    HW220218  10.863  14.077  13.094
 6127SOL     OW20219   5.077  10.851   8.061
 6127SOL    HW120220   5.165  10.817   8.045
 6127SOL    HW220221   5.040  10.791   8.126
 6128SOL     OW20222   3.669   1.959   9.307
 6128SOL    HW120223   3.728   1.945   9.233
 6128SOL    HW220224   3.629   2.044   9.289
 6129SOL     OW20225   2.929   9.645   7.252
 6129SOL    HW120226   2.945   9.739   7.249
 6129SOL    HW220227   3.001   9.606   7.202
 6130SOL     OW20228   1.779   4.538   6.216
 6130SOL    HW120229   1.696   4.540   6.169
 6130SOL    HW220230   1.841   4.500   6.153
 6131SOL     OW20231   0.404   5.668   0.259
 6131SOL    HW120232   0.497   5.688   0.269
 6131SOL    HW220233   0.360   5.728   0.319
 6132SOL     OW20234  12.261   0.090   5.660
 6132SOL    HW120235  12.243   0.057   5.572
 6132SOL    HW220236  12.334   0.151   5.648
 6133SOL     OW20237  13.724   1.086   1.523
 6133SOL    HW120238  13.741   1.056   1.433
 6133SOL    HW220239  13.810   1.111   1.556
 6134SOL     OW20240   0.075   8.689   9.360
 6134SOL    HW120241  14.852   8.686   9.366
 6134SOL    HW220242   0.092   8.714   9.270
 6135SOL     OW20243  13.387   1.486  10.076
 6135SOL    HW120244  13.474   1.463  10.045
 6135SOL    HW220245  13.402   1.522  10.163
 6136SOL     OW20246  10.741  14.091   2.728
 6136SOL    HW120247  10.793  14.011   2.732
 6136SOL    HW220248  10.650  14.062   2.742
 6137SOL     OW20249  10.028   9.215  11.789
 6137SOL    HW120250   9.945   9.185  11.827
 6137SOL    HW220251  10.093   9.196  11.856
 6138SOL     OW20252   9.160   6.435   3.946
 6138SOL    HW120253   9.083   6.431   3.891
 6138SOL    HW220254   9.207   6.513   3.917
 6139SOL     OW20255   2.997  14.524   6.139
 6139SOL    HW120256   2.934  14.477   6.085
 6139SOL    HW220257   2.943  14.580   6.196
 6140SOL     OW20258   1.649  12.094   3.416
 6140SOL    HW120259   1.732  12.117   3.457
 6140SOL    HW220260   1.673  12.031   3.348
 6141SOL     OW20261  14.265   6.621  12.561
 6141SOL    HW120262  14.317   6.688  12.515
 6141SOL    HW220263  14.305   6.616  12.648
 6142SOL     OW20264  13.926  10.564  11.412
 6142SOL    HW120265  13.864  10.493  11.399
 6142SOL    HW220266  14.007  10.533  11.370
 6143SOL     OW20267   8.345   8.247  12.724
 6143SOL    HW120268   8.253   8.269  12.709
 6143SOL    HW220269   8.356   8.161  12.683
 6144SOL     OW20270   1.166  12.210  10.089
 6144SOL    HW120271   1.119  12.264  10.025
 6144SOL    HW220272   1.179  12.269  10.164
 6145SOL     OW20273  14.599   7.447  10.284
 6145SOL    HW120274  14.606   7.539  10.259
 6145SOL    HW220275  14.534   7.446  10.354
 6146SOL     OW20276   9.595  12.265   3.205
 6146SOL    HW120277   9.503  12.255   3.179
 6146SOL    HW220278   9.614  12.358   3.188
 6147SOL     OW20279   3.268   0.238  11.910
 6147SOL    HW120280   3.238   0.151  11.883
 6147SOL    HW220281   3.302   0.278  11.830
 6148SOL     OW20282   5.290   4.267   6.314
 6148SOL    HW120283   5.232   4.259   6.390
 6148SOL    HW220284   5.230   4.271   6.239
 6149SOL     OW20285  12.131  14.456  11.508
 6149SOL    HW120286  12.075  14.378  11.509
 6149SOL    HW220287  12.076  14.524  11.469
 6150SOL     OW20288   4.866   9.301   2.996
 6150SOL    HW120289   4.889   9.209   2.981
 6150SOL    HW220290   4.810   9.323   2.922
 6151SOL     OW20291   3.082  14.088  10.527
 6151SOL    HW120292   3.003  14.041  10.498
 6151SOL    HW220293   3.140  14.019  10.559
 6152SOL     OW20294   3.409  11.169   2.489
 6152SOL    HW120295   3.478  11.169   2.556
 6152SOL    HW220296   3.397  11.076   2.468
 6153SOL     OW20297   7.600   1.021  11.617
 6153SOL    HW120298   7.669   1.025  11.683
 6153SOL    HW220299   7.647   1.015  11.534
 6154SOL     OW20300   3.410  13.822   3.992
 6154SOL    HW120301   3.382  13.912   4.007
 6154SOL    HW220302   3.432  13.789   4.080
 6155SOL     OW20303   6.415   7.496   8.391
 6155SOL    HW120304   6.446   7.406   8.386
 6155SOL    HW220305   6.411   7.515   8.485
 6156SOL     OW20306   4.102   1.422   8.781
 6156SOL    HW120307   4.171   1.474   8.740
 6156SOL    HW220308   4.126   1.421   8.874
 6157SOL     OW20309  13.981   3.883   2.883
 6157SOL    HW120310  13.993   3.795   2.847
 6157SOL    HW220311  13.923   3.871   2.958
 6158SOL     OW20312   7.697  12.072   7.551
 6158SOL    HW120313   7.689  11.978   7.537
 6158SOL    HW220314   7.680  12.084   7.644
 6159SOL     OW20315  12.246   5.204   6.720
 6159SOL    HW120316  12.300   5.274   6.756
 6159SOL    HW220317  12.158   5.224   6.751
 6160SOL     OW20318   6.112   3.456   9.205
 6160SOL    HW120319   6.122   3.434   9.297
 6160SOL    HW220320   6.070   3.542   9.205
 6161SOL     OW20321   9.025   7.705   3.511
 6161SOL    HW120322   9.053   7.768   3.577
 6161SOL    HW220323   9.091   7.711   3.442
 6162SOL     OW20324   0.668  10.746  13.710
 6162SOL    HW120325   0.577  10.765  13.734
 6162SOL    HW220326   0.681  10.655  13.735
 6163SOL     OW20327   3.596   4.454  11.025
 6163SOL    HW120328   3.654   4.417  11.092
 6163SOL    HW220329   3.642   4.530  10.992
 6164SOL     OW20330  14.276   1.981   4.544
 6164SOL    HW120331  14.368   1.958   4.558
 6164SOL    HW220332  14.231   1.950   4.622
 6165SOL     OW20333  13.808  14.640   8.447
 6165SOL    HW120334  13.773  14.727   8.469
 6165SOL    HW220335  13.785  14.586   8.523
 6166SOL     OW20336  13.995   2.552   6.338
 6166SOL    HW120337  13.922   2.561   6.276
 6166SOL    HW220338  13.955   2.571   6.423
 6167SOL     OW20339   3.908  10.148   3.291
 6167SOL    HW120340   3.996  10.184   3.275
 6167SOL    HW220341   3.903  10.071   3.235
 6168SOL     OW20342   8.723  14.002  10.174
 6168SOL    HW120343   8.780  13.927  10.187
 6168SOL    HW220344   8.639  13.964  10.148
 6169SOL     OW20345  13.693   3.600   7.377
 6169SOL    HW120346  13.780   3.595   7.337
 6169SOL    HW220347  13.692   3.686   7.420
 6170SOL     OW20348   2.851   9.760   3.871
 6170SOL    HW120349   2.920   9.744   3.807
 6170SOL    HW220350   2.783   9.807   3.822
 6171SOL     OW20351  11.491   2.734   7.800
 6171SOL    HW120352  11.475   2.826   7.782
 6171SOL    HW220353  11.561   2.709   7.740
 6172SOL     OW20354   5.310   9.817   2.948
 6172SOL    HW120355   5.270   9.893   2.989
 6172SOL    HW220356   5.281   9.820   2.857
 6173SOL     OW20357  10.729   8.109  10.648
 6173SOL    HW120358  10.653   8.138  10.698
 6173SOL    HW220359  10.724   8.014  10.648
 6174SOL     OW20360   9.989   8.769   8.200
 6174SOL    HW120361   9.947   8.804   8.122
 6174SOL    HW220362   9.924   8.781   8.270
 6175SOL     OW20363  11.896  13.182   9.917
 6175SOL    HW120364  11.974  13.239   9.919
 6175SOL    HW220365  11.896  13.146   9.828
 6176SOL     OW20366  11.687   9.023  14.586
 6176SOL    HW120367  11.760   8.975  14.625
 6176SOL    HW220368  11.634   8.956  14.543
 6177SOL     OW20369   2.184  10.626  10.687
 6177SOL    HW120370   2.120  10.660  10.749
 6177SOL    HW220371   2.170  10.675  10.607
 6178SOL     OW20372   2.714   8.869   4.679
 6178SOL    HW120373   2.695   8.946   4.734
 6178SOL    HW220374   2.743   8.906   4.596
 6179SOL     OW20375   6.966   1.608   8.262
 6179SOL    HW120376   7.059   1.613   8.286
 6179SOL    HW220377   6.931   1.694   8.287
 6180SOL     OW20378   8.550  10.390  10.425
 6180SOL    HW120379   8.536  10.474  10.468
 6180SOL    HW220380   8.545  10.410  10.331
 6181SOL     OW20381   8.523  12.576  13.737
 6181SOL    HW120382   8.463  12.570  13.663
 6181SOL    HW220383   8.550  12.667  13.739
 6182SOL     OW20384   9.754   6.482  12.834
 6182SOL    HW120385   9.738   6.524  12.919
 6182SOL    HW220386   9.682   6.420  12.825
 6183SOL     OW20387   9.372   3.024   7.954
 6183SOL    HW120388   9.336   3.105   7.992
 6183SOL    HW220389   9.459   3.017   7.993
 6184SOL     OW20390  13.251   4.442   9.518
 6184SOL    HW120391  13.217   4.531   9.529
 6184SOL    HW220392  13.294   4.422   9.601
 6185SOL     OW20393  12.171  13.383  12.096
 6185SOL    HW120394  12.129  13.466  12.077
 6185SOL    HW220395  12.167  13.375  12.191
 6186SOL     OW20396   8.961  11.182   1.797
 6186SOL    HW120397   8.872  11.204   1.770
 6186SOL    HW220398   8.954  11.166   1.891
 6187SOL     OW20399   6.378  11.941  10.995
 6187SOL    HW120400   6.410  12.000  10.927
 6187SOL    HW220401   6.412  11.978  11.077
 6188SOL     OW20402  12.795   3.310  12.071
 6188SOL    HW120403  12.803   3.261  11.989
 6188SOL    HW220404  12.729   3.377  12.052
 6189SOL     OW20405  14.077   9.041   8.910
 6189SOL    HW120406  14.049   9.102   8.842
 6189SOL    HW220407  14.166   9.070   8.933
 6190SOL     OW20408  12.532  10.447   7.862
 6190SOL    HW120409  12.478  10.397   7.800
 6190SOL    HW220410  12.620  10.441   7.827
 6191SOL     OW20411   9.007  14.409   4.939
 6191SOL    HW120412   9.063  14.365   5.003
 6191SOL    HW220413   8.975  14.338   4.882
 6192SOL     OW20414  14.756  13.767   6.422
 6192SOL    HW120415  14.672  13.800   6.391
 6192SOL    HW220416  14.749  13.770   6.518
 6193SOL     OW20417   1.595  11.686   8.278
 6193SOL    HW120418   1.599  11.613   8.217
 6193SOL    HW220419   1.503  11.712   8.279
 6194SOL     OW20420   9.500   0.272  10.164
 6194SOL    HW120421   9.428   0.241  10.220
 6194SOL    HW220422   9.457   0.320  10.094
 6195SOL     OW20423   7.487   1.311   6.878
 6195SOL    HW120424   7.500   1.328   6.972
 6195SOL    HW220425   7.575   1.300   6.844
 6196SOL     OW20426   1.607  12.003  12.574
 6196SOL    HW120427   1.537  11.957  12.528
 6196SOL    HW220428   1.575  12.011  12.664
 6197SOL     OW20429   5.685   4.787  10.477
 6197SOL    HW120430   5.614   4.827  10.528
 6197SOL    HW220431   5.760   4.845  10.491
 6198SOL     OW20432  10.075   7.034  11.020
 6198SOL    HW120433   9.987   7.063  10.998
 6198SOL    HW220434  10.130   7.071  10.951
 6199SOL     OW20435   5.717   1.447   0.755
 6199SOL    HW120436   5.652   1.412   0.694
 6199SOL    HW220437   5.777   1.374   0.770
 6200SOL     OW20438   3.796   9.948   5.873
 6200SOL    HW120439   3.869   9.900   5.913
 6200SOL    HW220440   3.815  10.040   5.890
 6201SOL     OW20441   9.951   9.869  10.552
 6201SOL    HW120442   9.970   9.818  10.473
 6201SOL    HW220443   9.914   9.951  10.518
 6202SOL     OW20444   9.641   5.747  11.038
 6202SOL    HW120445   9.623   5.672  10.982
 6202SOL    HW220446   9.656   5.819  10.977
 6203SOL     OW20447   1.763   1.112   9.277
 6203SOL    HW120448   1.713   1.186   9.314
 6203SOL    HW220449   1.846   1.114   9.324
 6204SOL     OW20450   8.834   8.575   9.942
 6204SOL    HW120451   8.782   8.554  10.019
 6204SOL    HW220452   8.792   8.526   9.871
 6205SOL     OW20453   2.467  13.099  12.473
 6205SOL    HW120454   2.549  13.115  12.426
 6205SOL    HW220455   2.399  13.121  12.410
 6206SOL     OW20456   3.947   2.632  13.782
 6206SOL    HW120457   4.012   2.693  13.746
 6206SOL    HW220458   3.993   2.587  13.852
 6207SOL     OW20459   3.258   9.713   5.479
 6207SOL    HW120460   3.236   9.804   5.496
 6207SOL    HW220461   3.285   9.678   5.564
 6208SOL     OW20462   9.344  12.534  13.238
 6208SOL    HW120463   9.277  12.600  13.256
 6208SOL    HW220464   9.393  12.570  13.165
 6209SOL     OW20465   3.634  10.658   7.215
 6209SOL    HW120466   3.554  10.689   7.174
 6209SOL    HW220467   3.633  10.695   7.303
 6210SOL     OW20468   4.597   8.781  10.839
 6210SOL    HW120469   4.567   8.823  10.919
 6210SOL    HW220470   4.670   8.836  10.810
 6211SOL     OW20471  14.180   9.784   0.907
 6211SOL    HW120472  14.208   9.824   0.989
 6211SOL    HW220473  14.100   9.736   0.930
 6212SOL     OW20474  13.989   6.267  13.904
 6212SOL    HW120475  13.968   6.204  13.836
 6212SOL    HW220476  14.043   6.218  13.966
 6213SOL     OW20477   7.149  10.873  10.943
 6213SOL    HW120478   7.149  10.806  10.875
 6213SOL    HW220479   7.129  10.826  11.023
 6214SOL     OW20480   1.163   9.698  13.742
 6214SOL    HW120481   1.227   9.698  13.813
 6214SOL    HW220482   1.206   9.652  13.670
 6215SOL     OW20483   6.117   1.094  11.728
 6215SOL    HW120484   6.180   1.076  11.798
 6215SOL    HW220485   6.032   1.087  11.770
 6216SOL     OW20486  12.243   4.962  14.236
 6216SOL    HW120487  12.244   5.047  14.191
 6216SOL    HW220488  12.317   4.914  14.199
 6217SOL     OW20489  13.467   9.749   6.802
 6217SOL    HW120490  13.445   9.838   6.773
 6217SOL    HW220491  13.556   9.735   6.770
 6218SOL     OW20492   3.839   0.567   0.811
 6218SOL    HW120493   3.909   0.619   0.853
 6218SOL    HW220494   3.882   0.523   0.738
 6219SOL     OW20495   9.304  10.627   9.641
 6219SOL    HW120496   9.291  10.540   9.603
 6219SOL    HW220497   9.301  10.687   9.567
 6220SOL     OW20498   9.650   9.120   2.667
 6220SOL    HW120499   9.589   9.046   2.666
 6220SOL    HW220500   9.606   9.186   2.721
 6221SOL     OW20501  10.117  12.285   5.579
 6221SOL    HW120502  10.115  12.318   5.668
 6221SOL    HW220503  10.037  12.233   5.571
 6222SOL     OW20504  14.631   3.166   3.839
 6222SOL    HW120505  14.589   3.087   3.875
 6222SOL    HW220506  14.562   3.232   3.840
 6223SOL     OW20507   2.681   8.728   1.815
 6223SOL    HW120508   2.767   8.707   1.852
 6223SOL    HW220509   2.661   8.815   1.850
 6224SOL     OW20510  13.530   4.751  13.782
 6224SOL    HW120511  13.597   4.684  13.765
 6224SOL    HW220512  13.544   4.776  13.873
 6225SOL     OW20513   5.562   4.019   3.442
 6225SOL    HW120514   5.545   3.995   3.534
 6225SOL    HW220515   5.637   4.078   3.446
 6226SOL     OW20516   0.176  13.222   4.763
 6226SOL    HW120517   0.101  13.244   4.819
 6226SOL    HW220518   0.138  13.214   4.675
 6227SOL     OW20519  11.420   2.017   2.336
 6227SOL    HW120520  11.421   2.113   2.344
 6227SOL    HW220521  11.421   1.986   2.426
 6228SOL     OW20522   6.950   2.212   1.880
 6228SOL    HW120523   7.014   2.199   1.950
 6228SOL    HW220524   6.870   2.240   1.926
 6229SOL     OW20525   7.256  12.099   0.688
 6229SOL    HW120526   7.349  12.075   0.681
 6229SOL    HW220527   7.209  12.017   0.672
 6230SOL     OW20528  11.657   9.003   5.911
 6230SOL    HW120529  11.613   8.988   5.995
 6230SOL    HW220530  11.732   8.943   5.913
 6231SOL     OW20531  12.491  13.147   3.110
 6231SOL    HW120532  12.401  13.119   3.126
 6231SOL    HW220533  12.499  13.150   3.015
 6232SOL     OW20534  14.834   7.837   4.821
 6232SOL    HW120535  14.808   7.918   4.866
 6232SOL    HW220536  14.752   7.794   4.799
 6233SOL     OW20537   1.118   8.694   7.575
 6233SOL    HW120538   1.034   8.722   7.540
 6233SOL    HW220539   1.159   8.647   7.502
 6234SOL     OW20540  14.759   4.042   5.447
 6234SOL    HW120541  14.769   3.950   5.423
 6234SOL    HW220542  14.725   4.039   5.537
 6235SOL     OW20543   1.616   9.202  10.896
 6235SOL    HW120544   1.616   9.242  10.809
 6235SOL    HW220545   1.553   9.254  10.946
 6236SOL     OW20546   5.301   3.921   9.347
 6236SOL    HW120547   5.296   3.826   9.349
 6236SOL    HW220548   5.278   3.948   9.436
 6237SOL     OW20549   7.574   0.084   1.841
 6237SOL    HW120550   7.669   0.091   1.831
 6237SOL    HW220551   7.555   0.129   1.924
 6238SOL     OW20552   5.521   2.454   0.751
 6238SOL    HW120553   5.615   2.438   0.742
 6238SOL    HW220554   5.513   2.549   0.759
 6239SOL     OW20555   6.717   1.608   5.992
 6239SOL    HW120556   6.695   1.632   6.082
 6239SOL    HW220557   6.771   1.681   5.961
 6240SOL     OW20558  11.394   2.620   6.781
 6240SOL    HW120559  11.401   2.588   6.871
 6240SOL    HW220560  11.402   2.541   6.727
 6241SOL     OW20561   5.629   4.332  10.759
 6241SOL    HW120562   5.675   4.345  10.676
 6241SOL    HW220563   5.538   4.355  10.740
 6242SOL     OW20564   5.971   5.439   5.969
 6242SOL    HW120565   5.980   5.345   5.988
 6242SOL    HW220566   6.052   5.463   5.925
 6243SOL     OW20567   1.090   3.371   6.716
 6243SOL    HW120568   1.060   3.461   6.699
 6243SOL    HW220569   1.156   3.380   6.785
 6244SOL     OW20570  14.165  10.115  13.435
 6244SOL    HW120571  14.233  10.138  13.372
 6244SOL    HW220572  14.145  10.198  13.479
 6245SOL     OW20573   9.078   1.867   2.859
 6245SOL    HW120574   9.037   1.954   2.858
 6245SOL    HW220575   9.063   1.833   2.771
 6246SOL     OW20576   5.288  14.859  10.462
 6246SOL    HW120577   5.234  14.869  10.385
 6246SOL    HW220578   5.291  14.765  10.478
 6247SOL     OW20579   7.019   6.106  14.101
 6247SOL    HW120580   7.103   6.097  14.147
 6247SOL    HW220581   7.042   6.149  14.018
 6248SOL     OW20582   6.104   2.976   1.007
 6248SOL    HW120583   6.108   2.891   1.051
 6248SOL    HW220584   6.021   2.975   0.961
 6249SOL     OW20585   2.866   2.698  14.046
 6249SOL    HW120586   2.958   2.685  14.025
 6249SOL    HW220587   2.831   2.609  14.057
 6250SOL     OW20588   7.968   7.250   8.029
 6250SOL    HW120589   8.048   7.217   8.069
 6250SOL    HW220590   7.907   7.176   8.033
 6251SOL     OW20591  13.046   2.758   4.887
 6251SOL    HW120592  13.039   2.666   4.911
 6251SOL    HW220593  13.082   2.800   4.965
 6252SOL     OW20594  11.412   4.689   0.904
 6252SOL    HW120595  11.418   4.624   0.974
 6252SOL    HW220596  11.410   4.774   0.949
 6253SOL     OW20597   7.057  14.167  13.577
 6253SOL    HW120598   7.050  14.101  13.645
 6253SOL    HW220599   7.151  14.180  13.565
 6254SOL     OW20600   2.726   3.341  11.511
 6254SOL    HW120601   2.687   3.273  11.566
 6254SOL    HW220602   2.751   3.296  11.431
 6255SOL     OW20603   1.019   2.493   5.955
 6255SOL    HW120604   1.055   2.419   6.004
 6255SOL    HW220605   1.016   2.463   5.865
 6256SOL     OW20606  11.815  14.291  14.668
 6256SOL    HW120607  11.827  14.203  14.701
 6256SOL    HW220608  11.766  14.337  14.737
 6257SOL     OW20609   4.108   1.278   6.374
 6257SOL    HW120610   4.098   1.209   6.308
 6257SOL    HW220611   4.103   1.232   6.458
 6258SOL     OW20612   2.561   6.462   6.420
 6258SOL    HW120613   2.513   6.444   6.500
 6258SOL    HW220614   2.608   6.381   6.401
 6259SOL     OW20615   5.476   1.417   0.202
 6259SOL    HW120616   5.404   1.382   0.150
 6259SOL    HW220617   5.465   1.512   0.196
 6260SOL     OW20618   0.571   7.065   1.030
 6260SOL    HW120619   0.583   6.979   0.989
 6260SOL    HW220620   0.483   7.091   1.005
 6261SOL     OW20621  10.858  10.280  11.019
 6261SOL    HW120622  10.771  10.258  11.051
 6261SOL    HW220623  10.905  10.197  11.017
 6262SOL     OW20624  10.521   2.589  14.203
 6262SOL    HW120625  10.431   2.570  14.174
 6262SOL    HW220626  10.572   2.514  14.171
 6263SOL     OW20627   8.293   0.994   3.376
 6263SOL    HW120628   8.388   0.993   3.380
 6263SOL    HW220629   8.272   1.076   3.332
 6264SOL     OW20630  13.369  13.257   8.758
 6264SOL    HW120631  13.368  13.171   8.800
 6264SOL    HW220632  13.300  13.253   8.692
 6265SOL     OW20633   5.010  14.251   2.907
 6265SOL    HW120634   5.030  14.242   3.000
 6265SOL    HW220635   4.916  14.236   2.901
 6266SOL     OW20636   0.500   3.912  11.446
 6266SOL    HW120637   0.549   3.917  11.528
 6266SOL    HW220638   0.545   3.973  11.387
 6267SOL     OW20639   4.327  12.088   2.576
 6267SOL    HW120640   4.340  12.182   2.574
 6267SOL    HW220641   4.357  12.057   2.490
 6268SOL     OW20642   3.129   7.642  10.708
 6268SOL    HW120643   3.190   7.695  10.759
 6268SOL    HW220644   3.185   7.594  10.647
 6269SOL     OW20645  13.876  13.437   5.305
 6269SOL    HW120646  13.864  13.502   5.236
 6269SOL    HW220647  13.958  13.461   5.348
 6270SOL     OW20648   3.010   2.008   0.850
 6270SOL    HW120649   3.091   1.976   0.891
 6270SOL    HW220650   3.018   1.980   0.759
 6271SOL     OW20651   8.435  11.505   4.347
 6271SOL    HW120652   8.419  11.548   4.263
 6271SOL    HW220653   8.494  11.565   4.393
 6272SOL     OW20654   3.153   9.911   6.427
 6272SOL    HW120655   3.215   9.982   6.410
 6272SOL    HW220656   3.207   9.832   6.431
 6273SOL     OW20657   6.405  11.216   3.383
 6273SOL    HW120658   6.365  11.250   3.463
 6273SOL    HW220659   6.499  11.227   3.397
 6274SOL     OW20660   0.793   4.412   2.179
 6274SOL    HW120661   0.823   4.411   2.270
 6274SOL    HW220662   0.700   4.437   2.185
 6275SOL     OW20663   5.529   8.594   0.684
 6275SOL    HW120664   5.548   8.686   0.666
 6275SOL    HW220665   5.453   8.574   0.630
 6276SOL     OW20666  11.819  10.653  14.819
 6276SOL    HW120667  11.754  10.605  14.869
 6276SOL    HW220668  11.783  10.742  14.812
 6277SOL     OW20669  10.342   9.552  11.070
 6277SOL    HW120670  10.256   9.525  11.102
 6277SOL    HW220671  10.404   9.504  11.125
 6278SOL     OW20672   8.410   3.025   6.715
 6278SOL    HW120673   8.405   2.963   6.642
 6278SOL    HW220674   8.354   3.098   6.688
 6279SOL     OW20675   1.505   7.099  11.092
 6279SOL    HW120676   1.564   7.122  11.020
 6279SOL    HW220677   1.428   7.063  11.049
 6280SOL     OW20678   3.000   8.576   2.209
 6280SOL    HW120679   3.080   8.618   2.176
 6280SOL    HW220680   3.027   8.487   2.230
 6281SOL     OW20681   9.865  13.776   3.634
 6281SOL    HW120682   9.918  13.816   3.703
 6281SOL    HW220683   9.852  13.686   3.663
 6282SOL     OW20684   4.352  14.564  10.452
 6282SOL    HW120685   4.447  14.555  10.450
 6282SOL    HW220686   4.328  14.592  10.364
 6283SOL     OW20687  11.942   9.843  14.731
 6283SOL    HW120688  11.881   9.817  14.662
 6283SOL    HW220689  12.027   9.810  14.702
 6284SOL     OW20690   4.152  12.575  10.954
 6284SOL    HW120691   4.127  12.660  10.917
 6284SOL    HW220692   4.236  12.554  10.913
 6285SOL     OW20693   5.310   0.264   3.040
 6285SOL    HW120694   5.237   0.304   2.993
 6285SOL    HW220695   5.363   0.221   2.973
 6286SOL     OW20696   8.659   0.342   4.995
 6286SOL    HW120697   8.577   0.299   5.017
 6286SOL    HW220698   8.712   0.273   4.954
 6287SOL     OW20699   0.936   0.600   3.887
 6287SOL    HW120700   0.841   0.596   3.876
 6287SOL    HW220701   0.966   0.666   3.825
 6288SOL     OW20702   2.491  13.631   9.382
 6288SOL    HW120703   2.471  13.546   9.420
 6288SOL    HW220704   2.555  13.670   9.441
 6289SOL     OW20705   7.424   6.164   7.862
 6289SOL    HW120706   7.471   6.089   7.827
 6289SOL    HW220707   7.401   6.140   7.952
 6290SOL     OW20708  13.143   1.306  11.017
 6290SOL    HW120709  13.107   1.390  11.049
 6290SOL    HW220710  13.223   1.294  11.068
 6291SOL     OW20711  12.778   9.891   5.829
 6291SOL    HW120712  12.789   9.869   5.922
 6291SOL    HW220713  12.711   9.959   5.828
 6292SOL     OW20714  14.242  10.613   7.927
 6292SOL    HW120715  14.306  10.587   7.861
 6292SOL    HW220716  14.254  10.552   7.999
 6293SOL     OW20717   0.418   8.682  12.845
 6293SOL    HW120718   0.410   8.613  12.779
 6293SOL    HW220719   0.376   8.647  12.923
 6294SOL     OW20720  12.753   0.268   1.243
 6294SOL    HW120721  12.836   0.219   1.245
 6294SOL    HW220722  12.707   0.240   1.323
 6295SOL     OW20723   3.975  10.069   6.834
 6295SOL    HW120724   4.002   9.978   6.827
 6295SOL    HW220725   4.056  10.117   6.851
 6296SOL     OW20726   2.543   2.740  11.548
 6296SOL    HW120727   2.577   2.826  11.524
 6296SOL    HW220728   2.538   2.692  11.466
 6297SOL     OW20729   9.050   2.262  10.925
 6297SOL    HW120730   9.063   2.350  10.889
 6297SOL    HW220731   9.012   2.277  11.012
 6298SOL     OW20732   0.001   8.894  14.091
 6298SOL    HW120733  14.794   8.912  14.141
 6298SOL    HW220734   0.049   8.977  14.091
 6299SOL     OW20735   6.599  12.877   7.126
 6299SOL    HW120736   6.655  12.953   7.139
 6299SOL    HW220737   6.530  12.907   7.066
 6300SOL     OW20738   7.406   8.490  11.080
 6300SOL    HW120739   7.325   8.440  11.073
 6300SOL    HW220740   7.474   8.430  11.051
 6301SOL     OW20741   0.209   9.140   6.164
 6301SOL    HW120742   0.129   9.190   6.182
 6301SOL    HW220743   0.248   9.126   6.250
 6302SOL     OW20744   8.706   6.620   0.376
 6302SOL    HW120745   8.646   6.601   0.303
 6302SOL    HW220746   8.653   6.672   0.437
 6303SOL     OW20747   6.476   2.888   8.289
 6303SOL    HW120748   6.421   2.818   8.255
 6303SOL    HW220749   6.447   2.966   8.242
 6304SOL     OW20750   8.868   0.486   3.485
 6304SOL    HW120751   8.945   0.459   3.536
 6304SOL    HW220752   8.804   0.513   3.550
 6305SOL     OW20753   9.798   3.116   9.830
 6305SOL    HW120754   9.762   3.203   9.844
 6305SOL    HW220755   9.763   3.089   9.745
 6306SOL     OW20756   6.770   0.325   8.009
 6306SOL    HW120757   6.845   0.309   8.066
 6306SOL    HW220758   6.730   0.239   7.997
 6307SOL     OW20759  12.123  14.080   1.274
 6307SOL    HW120760  12.169  14.081   1.190
 6307SOL    HW220761  12.189  14.107   1.338
 6308SOL     OW20762  11.516   7.719   2.247
 6308SOL    HW120763  11.523   7.674   2.331
 6308SOL    HW220764  11.437   7.683   2.207
 6309SOL     OW20765   2.570   3.116  10.132
 6309SOL    HW120766   2.512   3.191  10.145
 6309SOL    HW220767   2.528   3.044  10.179
 6310SOL     OW20768   6.375  12.825   5.101
 6310SOL    HW120769   6.470  12.824   5.112
 6310SOL    HW220770   6.358  12.905   5.052
 6311SOL     OW20771   4.433   6.381  14.120
 6311SOL    HW120772   4.378   6.342  14.051
 6311SOL    HW220773   4.400   6.471  14.129
 6312SOL     OW20774   7.879   5.697   4.345
 6312SOL    HW120775   7.813   5.665   4.407
 6312SOL    HW220776   7.837   5.772   4.303
 6313SOL     OW20777   0.324  14.827   6.603
 6313SOL    HW120778   0.373   0.035   6.609
 6313SOL    HW220779   0.364  14.770   6.668
 6314SOL     OW20780   5.064   4.110   9.805
 6314SOL    HW120781   5.130   4.154   9.858
 6314SOL    HW220782   4.996   4.176   9.792
 6315SOL     OW20783   2.796   2.415   1.266
 6315SOL    HW120784   2.748   2.491   1.233
 6315SOL    HW220785   2.879   2.416   1.218
 6316SOL     OW20786  13.498  11.013   4.821
 6316SOL    HW120787  13.563  11.074   4.858
 6316SOL    HW220788  13.550  10.939   4.790
 6317SOL     OW20789   7.235  13.528   3.235
 6317SOL    HW120790   7.181  13.594   3.278
 6317SOL    HW220791   7.287  13.577   3.172
 6318SOL     OW20792   6.815  11.589  13.693
 6318SOL    HW120793   6.769  11.570  13.610
 6318SOL    HW220794   6.788  11.519  13.752
 6319SOL     OW20795   0.731   6.348   9.226
 6319SOL    HW120796   0.818   6.386   9.239
 6319SOL    HW220797   0.684   6.413   9.173
 6320SOL     OW20798   4.166   8.566   4.410
 6320SOL    HW120799   4.226   8.501   4.375
 6320SOL    HW220800   4.133   8.613   4.333
 6321SOL     OW20801   4.406   3.005   4.554
 6321SOL    HW120802   4.488   2.976   4.595
 6321SOL    HW220803   4.348   2.929   4.560
 6322SOL     OW20804   3.589   6.867   2.957
 6322SOL    HW120805   3.643   6.847   2.880
 6322SOL    HW220806   3.588   6.963   2.961
 6323SOL     OW20807   1.795  14.281   9.106
 6323SOL    HW120808   1.735  14.252   9.038
 6323SOL    HW220809   1.864  14.328   9.059
 6324SOL     OW20810   5.534  12.943   4.732
 6324SOL    HW120811   5.602  12.943   4.665
 6324SOL    HW220812   5.461  12.991   4.691
 6325SOL     OW20813   9.062   4.227   5.980
 6325SOL    HW120814   8.969   4.218   6.001
 6325SOL    HW220815   9.084   4.316   6.008
 6326SOL     OW20816   6.664  10.129  14.740
 6326SOL    HW120817   6.651  10.114  14.646
 6326SOL    HW220818   6.756  10.151  14.749
 6327SOL     OW20819  12.290  13.618   3.204
 6327SOL    HW120820  12.325  13.561   3.135
 6327SOL    HW220821  12.360  13.622   3.270
 6328SOL     OW20822   2.881   3.325   4.552
 6328SOL    HW120823   2.877   3.280   4.636
 6328SOL    HW220824   2.937   3.401   4.567
 6329SOL     OW20825   8.960  13.257   7.637
 6329SOL    HW120826   8.904  13.275   7.712
 6329SOL    HW220827   8.900  13.252   7.563
 6330SOL     OW20828  11.191  12.294   7.939
 6330SOL    HW120829  11.119  12.314   7.880
 6330SOL    HW220830  11.195  12.198   7.940
 6331SOL     OW20831  14.472   9.326   5.173
 6331SOL    HW120832  14.566   9.344   5.173
 6331SOL    HW220833  14.431   9.410   5.150
 6332SOL     OW20834   9.063   5.610  10.074
 6332SOL    HW120835   9.087   5.662  10.151
 6332SOL    HW220836   8.977   5.645  10.049
 6333SOL     OW20837   6.641  13.010   4.300
 6333SOL    HW120838   6.612  12.957   4.227
 6333SOL    HW220839   6.716  13.059   4.266
 6334SOL     OW20840  11.685   2.561   7.630
 6334SOL    HW120841  11.640   2.534   7.550
 6334SOL    HW220842  11.778   2.548   7.612
 6335SOL     OW20843  12.376   5.385  14.718
 6335SOL    HW120844  12.300   5.428  14.679
 6335SOL    HW220845  12.367   5.293  14.692
 6336SOL     OW20846   6.042  12.450  11.357
 6336SOL    HW120847   6.080  12.421  11.441
 6336SOL    HW220848   6.074  12.540  11.347
 6337SOL     OW20849   6.515   0.775   9.269
 6337SOL    HW120850   6.443   0.832   9.242
 6337SOL    HW220851   6.489   0.688   9.238
 6338SOL     OW20852   8.809   1.695   4.672
 6338SOL    HW120853   8.838   1.760   4.735
 6338SOL    HW220854   8.729   1.659   4.710
 6339SOL     OW20855   5.385   6.768  12.894
 6339SOL    HW120856   5.293   6.748  12.878
 6339SOL    HW220857   5.415   6.699  12.953
 6340SOL     OW20858   3.538  14.611   2.218
 6340SOL    HW120859   3.573  14.552   2.285
 6340SOL    HW220860   3.604  14.680   2.210
 6341SOL     OW20861  14.599  14.443   8.062
 6341SOL    HW120862  14.609  14.481   8.150
 6341SOL    HW220863  14.508  14.414   8.059
 6342SOL     OW20864   1.320   3.660   9.895
 6342SOL    HW120865   1.289   3.740   9.854
 6342SOL    HW220866   1.341   3.685   9.985
 6343SOL     OW20867   2.040  13.464   6.038
 6343SOL    HW120868   1.969  13.498   5.983
 6343SOL    HW220869   1.996  13.416   6.108
 6344SOL     OW20870   1.446   2.017  12.946
 6344SOL    HW120871   1.426   1.932  12.985
 6344SOL    HW220872   1.387   2.022  12.870
 6345SOL     OW20873   0.694  11.159  10.064
 6345SOL    HW120874   0.706  11.108  10.145
 6345SOL    HW220875   0.780  11.157  10.022
 6346SOL     OW20876   8.292  13.515  14.519
 6346SOL    HW120877   8.220  13.578  14.520
 6346SOL    HW220878   8.249  13.430  14.532
 6347SOL     OW20879   3.032   7.037  13.696
 6347SOL    HW120880   2.992   7.102  13.754
 6347SOL    HW220881   3.027   6.955  13.745
 6348SOL     OW20882   1.489  12.972   2.519
 6348SOL    HW120883   1.495  13.065   2.538
 6348SOL    HW220884   1.464  12.931   2.602
 6349SOL     OW20885   9.335  11.965   1.731
 6349SOL    HW120886   9.345  12.042   1.674
 6349SOL    HW220887   9.258  11.920   1.697
 6350SOL     OW20888   3.928   5.614   0.327
 6350SOL    HW120889   3.956   5.667   0.253
 6350SOL    HW220890   3.965   5.658   0.404
 6351SOL     OW20891  10.239   2.455   7.283
 6351SOL    HW120892  10.233   2.550   7.288
 6351SOL    HW220893  10.333   2.438   7.271
 6352SOL     OW20894   9.786   5.568  14.560
 6352SOL    HW120895   9.753   5.599  14.644
 6352SOL    HW220896   9.878   5.548  14.576
 6353SOL     OW20897   4.904   5.896   7.159
 6353SOL    HW120898   4.894   5.809   7.197
 6353SOL    HW220899   4.990   5.925   7.188
 6354SOL     OW20900   9.141   8.690   7.129
 6354SOL    HW120901   9.166   8.598   7.133
 6354SOL    HW220902   9.211   8.736   7.177
 6355SOL     OW20903   7.444   3.040   7.314
 6355SOL    HW120904   7.461   3.121   7.266
 6355SOL    HW220905   7.529   2.997   7.320
 6356SOL     OW20906  14.425   6.326   9.164
 6356SOL    HW120907  14.330   6.333   9.161
 6356SOL    HW220908  14.442   6.259   9.230
 6357SOL     OW20909   4.925  10.637  12.263
 6357SOL    HW120910   4.831  10.648  12.247
 6357SOL    HW220911   4.930  10.564  12.324
 6358SOL     OW20912   9.341   0.050   5.998
 6358SOL    HW120913   9.261   0.072   5.949
 6358SOL    HW220914   9.329   0.091   6.083
 6359SOL     OW20915   0.943   0.622   1.738
 6359SOL    HW120916   0.924   0.697   1.683
 6359SOL    HW220917   0.858   0.579   1.750
 6360SOL     OW20918   2.162   1.226   8.259
 6360SOL    HW120919   2.098   1.289   8.291
 6360SOL    HW220920   2.235   1.233   8.321
 6361SOL     OW20921   7.977   1.445   7.217
 6361SOL    HW120922   8.058   1.489   7.191
 6361SOL    HW220923   8.005   1.357   7.242
 6362SOL     OW20924   0.257  11.119  11.089
 6362SOL    HW120925   0.241  11.026  11.104
 6362SOL    HW220926   0.256  11.158  11.176
 6363SOL     OW20927   1.313   6.626  10.122
 6363SOL    HW120928   1.303   6.691  10.191
 6363SOL    HW220929   1.292   6.542  10.164
 6364SOL     OW20930   7.994  13.303   8.571
 6364SOL    HW120931   8.041  13.381   8.542
 6364SOL    HW220932   8.061  13.236   8.581
 6365SOL     OW20933   7.397  10.467   1.218
 6365SOL    HW120934   7.410  10.503   1.130
 6365SOL    HW220935   7.418  10.539   1.277
 6366SOL     OW20936   7.715   3.823   3.791
 6366SOL    HW120937   7.756   3.781   3.715
 6366SOL    HW220938   7.786   3.835   3.853
 6367SOL     OW20939   4.291  11.329   4.586
 6367SOL    HW120940   4.346  11.306   4.661
 6367SOL    HW220941   4.276  11.423   4.595
 6368SOL     OW20942   3.050  14.094   1.854
 6368SOL    HW120943   2.970  14.052   1.884
 6368SOL    HW220944   3.086  14.033   1.789
 6369SOL     OW20945   5.026  11.472   6.180
 6369SOL    HW120946   4.979  11.553   6.202
 6369SOL    HW220947   5.021  11.466   6.085
 6370SOL     OW20948   2.115  12.810   0.258
 6370SOL    HW120949   2.098  12.901   0.235
 6370SOL    HW220950   2.091  12.804   0.351
 6371SOL     OW20951  11.741   2.500   0.603
 6371SOL    HW120952  11.769   2.562   0.671
 6371SOL    HW220953  11.813   2.501   0.539
 6372SOL     OW20954  14.222  12.503  13.776
 6372SOL    HW120955  14.310  12.500  13.813
 6372SOL    HW220956  14.230  12.459  13.691
 6373SOL     OW20957   1.964   4.426  14.562
 6373SOL    HW120958   2.059   4.430  14.570
 6373SOL    HW220959   1.935   4.517  14.559
 6374SOL     OW20960   4.232   7.590  12.763
 6374SOL    HW120961   4.277   7.591  12.678
 6374SOL    HW220962   4.193   7.503  12.769
 6375SOL     OW20963   4.376   7.764   7.224
 6375SOL    HW120964   4.344   7.689   7.174
 6375SOL    HW220965   4.466   7.776   7.195
 6376SOL     OW20966  12.197   3.426   3.539
 6376SOL    HW120967  12.253   3.362   3.495
 6376SOL    HW220968  12.210   3.408   3.633
 6377SOL     OW20969   1.458   0.254  12.921
 6377SOL    HW120970   1.375   0.207  12.915
 6377SOL    HW220971   1.516   0.208  12.860
 6378SOL     OW20972  11.326  11.773   6.618
 6378SOL    HW120973  11.269  11.701   6.646
 6378SOL    HW220974  11.285  11.851   6.654
 6379SOL     OW20975   8.830   2.167  13.443
 6379SOL    HW120976   8.766   2.142  13.377
 6379SOL    HW220977   8.798   2.128  13.525
 6380SOL     OW20978   7.367   0.998  10.403
 6380SOL    HW120979   7.357   0.942  10.481
 6380SOL    HW220980   7.432   1.063  10.429
 6381SOL     OW20981   6.763  11.416   0.684
 6381SOL    HW120982   6.802  11.440   0.767
 6381SOL    HW220983   6.676  11.381   0.706
 6382SOL     OW20984  11.208   8.402   0.148
 6382SOL    HW120985  11.155   8.462   0.200
 6382SOL    HW220986  11.146   8.358   0.090
 6383SOL     OW20987  14.198  10.248   1.020
 6383SOL    HW120988  14.190  10.301   1.100
 6383SOL    HW220989  14.108  10.237   0.990
 6384SOL     OW20990   4.958   5.707   0.376
 6384SOL    HW120991   5.036   5.676   0.423
 6384SOL    HW220992   4.991   5.777   0.319
 6385SOL     OW20993   2.093  13.986   6.635
 6385SOL    HW120994   2.001  13.975   6.612
 6385SOL    HW220995   2.133  14.021   6.555
 6386SOL     OW20996   9.067  12.848   5.011
 6386SOL    HW120997   9.061  12.826   4.918
 6386SOL    HW220998   9.120  12.778   5.048
 6387SOL     OW20999   4.692   4.386   7.132
 6387SOL    HW121000   4.743   4.369   7.053
 6387SOL    HW221001   4.691   4.303   7.178
 6388SOL     OW21002   7.462   8.177  12.271
 6388SOL    HW121003   7.447   8.144  12.359
 6388SOL    HW221004   7.532   8.242  12.280
 6389SOL     OW21005   5.547  12.464  14.581
 6389SOL    HW121006   5.519  12.441  14.492
 6389SOL    HW221007   5.465  12.476  14.629
 6390SOL     OW21008   4.901   9.267   1.967
 6390SOL    HW121009   4.921   9.361   1.967
 6390SOL    HW221010   4.947   9.233   2.043
 6391SOL     OW21011  14.043  13.155   5.282
 6391SOL    HW121012  13.970  13.204   5.319
 6391SOL    HW221013  14.064  13.090   5.348
 6392SOL     OW21014   8.563  13.426   2.393
 6392SOL    HW121015   8.553  13.349   2.337
 6392SOL    HW221016   8.552  13.500   2.334
 6393SOL     OW21017   2.009  12.710   9.709
 6393SOL    HW121018   2.037  12.677   9.623
 6393SOL    HW221019   1.986  12.801   9.693
 6394SOL     OW21020   6.233  13.075   7.821
 6394SOL    HW121021   6.303  13.026   7.780
 6394SOL    HW221022   6.266  13.095   7.909
 6395SOL     OW21023   0.592  10.190  10.901
 6395SOL    HW121024   0.555  10.246  10.970
 6395SOL    HW221025   0.652  10.132  10.948
 6396SOL     OW21026   9.747  12.838   3.628
 6396SOL    HW121027   9.805  12.913   3.611
 6396SOL    HW221028   9.679  12.845   3.561
 6397SOL     OW21029  10.027   9.332   2.867
 6397SOL    HW121030   9.984   9.250   2.890
 6397SOL    HW221031  10.121   9.313   2.878
 6398SOL     OW21032   0.166   3.524   1.331
 6398SOL    HW121033   0.133   3.584   1.399
 6398SOL    HW221034   0.203   3.582   1.265
 6399SOL     OW21035   7.350   8.327  14.074
 6399SOL    HW121036   7.369   8.373  13.992
 6399SOL    HW221037   7.265   8.286  14.059
 6400SOL     OW21038  11.393  14.721   8.486
 6400SOL    HW121039  11.341  14.785   8.437
 6400SOL    HW221040  11.480  14.762   8.494
 6401SOL     OW21041   3.997  10.822   2.468
 6401SOL    HW121042   3.908  10.852   2.488
 6401SOL    HW221043   4.006  10.836   2.374
 6402SOL     OW21044  13.545  12.049   9.482
 6402SOL    HW121045  13.459  12.090   9.483
 6402SOL    HW221046  13.601  12.108   9.532
 6403SOL     OW21047  14.186   0.520  14.005
 6403SOL    HW121048  14.152   0.431  13.993
 6403SOL    HW221049  14.164   0.564  13.923
 6404SOL     OW21050  11.477  11.379   0.540
 6404SOL    HW121051  11.513  11.348   0.623
 6404SOL    HW221052  11.530  11.336   0.473
 6405SOL     OW21053   4.727   9.643  14.339
 6405SOL    HW121054   4.768   9.719  14.296
 6405SOL    HW221055   4.679   9.680  14.413
 6406SOL     OW21056  12.821  10.875   2.629
 6406SOL    HW121057  12.757  10.813   2.593
 6406SOL    HW221058  12.858  10.918   2.552
 6407SOL     OW21059   7.175   9.414   7.302
 6407SOL    HW121060   7.263   9.406   7.266
 6407SOL    HW221061   7.134   9.483   7.249
 6408SOL     OW21062   4.691   4.743   3.616
 6408SOL    HW121063   4.668   4.834   3.599
 6408SOL    HW221064   4.713   4.741   3.709
 6409SOL     OW21065   3.646   2.258  12.980
 6409SOL    HW121066   3.738   2.249  13.008
 6409SOL    HW221067   3.595   2.226  13.055
 6410SOL     OW21068   1.558   6.212  14.521
 6410SOL    HW121069   1.634   6.161  14.493
 6410SOL    HW221070   1.527   6.254  14.442
 6411SOL     OW21071   6.148   3.509  13.109
 6411SOL    HW121072   6.244   3.514  13.105
 6411SOL    HW221073   6.122   3.483  13.021
 6412SOL     OW21074   6.478  13.392  12.320
 6412SOL    HW121075   6.382  13.394  12.325
 6412SOL    HW221076   6.504  13.327  12.386
 6413SOL     OW21077  10.380   5.783   1.044
 6413SOL    HW121078  10.342   5.773   1.131
 6413SOL    HW221079  10.468   5.817   1.060
 6414SOL     OW21080   9.679  10.683   0.451
 6414SOL    HW121081   9.673  10.666   0.357
 6414SOL    HW221082   9.772  10.703   0.466
 6415SOL     OW21083   7.011   7.880  14.177
 6415SOL    HW121084   7.049   7.903  14.092
 6415SOL    HW221085   7.073   7.818  14.215
 6416SOL     OW21086  12.155   8.506   6.669
 6416SOL    HW121087  12.139   8.566   6.742
 6416SOL    HW221088  12.178   8.563   6.595
 6417SOL     OW21089  13.038  14.385  11.437
 6417SOL    HW121090  13.062  14.364  11.347
 6417SOL    HW221091  13.011  14.477  11.434
 6418SOL     OW21092  12.917   6.530   4.770
 6418SOL    HW121093  12.960   6.580   4.838
 6418SOL    HW221094  12.877   6.456   4.816
 6419SOL     OW21095  14.562   1.565   0.033
 6419SOL    HW121096  14.508   1.643   0.018
 6419SOL    HW221097  14.516   1.516   0.101
 6420SOL     OW21098  10.608  11.438   6.203
 6420SOL    HW121099  10.701  11.426   6.224
 6420SOL    HW221100  10.571  11.350   6.210
 6421SOL     OW21101   6.001  12.974   9.565
 6421SOL    HW121102   6.008  12.988   9.470
 6421SOL    HW221103   6.072  12.913   9.585
 6422SOL     OW21104   1.688  10.000  10.298
 6422SOL    HW121105   1.654  10.027  10.213
 6422SOL    HW221106   1.774  10.042  10.303
 6423SOL     OW21107  14.431   9.768  10.304
 6423SOL    HW121108  14.388   9.726  10.230
 6423SOL    HW221109  14.498   9.824  10.265
 6424SOL     OW21110  11.803   5.558   3.679
 6424SOL    HW121111  11.710   5.572   3.691
 6424SOL    HW221112  11.839   5.563   3.768
 6425SOL     OW21113   1.325   2.826  10.430
 6425SOL    HW121114   1.418   2.845  10.424
 6425SOL    HW221115   1.320   2.748  10.485
 6426SOL     OW21116   0.051  10.332  12.375
 6426SOL    HW121117   0.006  10.333  12.290
 6426SOL    HW221118   0.030  10.246  12.412
 6427SOL     OW21119  11.081   1.934   0.585
 6427SOL    HW121120  11.171   1.953   0.557
 6427SOL    HW221121  11.080   1.839   0.597
 6428SOL     OW21122  10.282  14.640   0.594
 6428SOL    HW121123  10.376  14.623   0.596
 6428SOL    HW221124  10.274  14.731   0.623
 6429SOL     OW21125   1.057   0.218   2.304
 6429SOL    HW121126   1.013   0.185   2.382
 6429SOL    HW221127   1.138   0.166   2.299
 6430SOL     OW21128   6.177   0.876   4.719
 6430SOL    HW121129   6.103   0.858   4.776
 6430SOL    HW221130   6.160   0.826   4.640
 6431SOL     OW21131  11.359  13.354   1.621
 6431SOL    HW121132  11.368  13.303   1.701
 6431SOL    HW221133  11.266  13.376   1.617
 6432SOL     OW21134   0.848  12.711   5.275
 6432SOL    HW121135   0.802  12.663   5.206
 6432SOL    HW221136   0.924  12.750   5.231
 6433SOL     OW21137  10.320   6.121   5.773
 6433SOL    HW121138  10.271   6.165   5.704
 6433SOL    HW221139  10.394   6.178   5.790
 6434SOL     OW21140  13.402   5.623  13.409
 6434SOL    HW121141  13.354   5.681  13.469
 6434SOL    HW221142  13.471   5.584  13.462
 6435SOL     OW21143  14.346   9.010   6.157
 6435SOL    HW121144  14.300   8.926   6.146
 6435SOL    HW221145  14.291   9.074   6.112
 6436SOL     OW21146   0.617   8.927  13.957
 6436SOL    HW121147   0.591   8.948  13.868
 6436SOL    HW221148   0.612   9.011  14.004
 6437SOL     OW21149   1.871   5.021  12.227
 6437SOL    HW121150   1.780   5.000  12.249
 6437SOL    HW221151   1.886   5.107  12.266
 6438SOL     OW21152  14.261   4.351   6.228
 6438SOL    HW121153  14.256   4.289   6.300
 6438SOL    HW221154  14.178   4.400   6.233
 6439SOL     OW21155  11.197  13.941  14.043
 6439SOL    HW121156  11.203  14.029  14.008
 6439SOL    HW221157  11.208  13.884  13.966
 6440SOL     OW21158  14.575  12.347  14.700
 6440SOL    HW121159  14.540  12.319  14.784
 6440SOL    HW221160  14.508  12.321  14.636
 6441SOL     OW21161   4.460   5.354   5.415
 6441SOL    HW121162   4.541   5.338   5.367
 6441SOL    HW221163   4.400   5.388   5.350
 6442SOL     OW21164   7.176  11.789  13.320
 6442SOL    HW121165   7.263  11.752  13.331
 6442SOL    HW221166   7.141  11.744  13.243
 6443SOL     OW21167   9.238   0.586   2.755
 6443SOL    HW121168   9.161   0.543   2.793
 6443SOL    HW221169   9.268   0.527   2.686
 6444SOL     OW21170   7.430   4.711   4.742
 6444SOL    HW121171   7.481   4.640   4.781
 6444SOL    HW221172   7.339   4.687   4.758
 6445SOL     OW21173  13.195   4.336  13.280
 6445SOL    HW121174  13.237   4.387  13.210
 6445SOL    HW221175  13.256   4.340  13.353
 6446SOL     OW21176   2.819   9.367   9.849
 6446SOL    HW121177   2.764   9.312   9.793
 6446SOL    HW221178   2.820   9.322   9.933
 6447SOL     OW21179   5.748   0.253  14.648
 6447SOL    HW121180   5.735   0.222  14.737
 6447SOL    HW221181   5.810   0.190  14.610
 6448SOL     OW21182  12.768   4.566   5.244
 6448SOL    HW121183  12.797   4.552   5.154
 6448SOL    HW221184  12.715   4.490   5.265
 6449SOL     OW21185  13.696  12.859   8.061
 6449SOL    HW121186  13.633  12.890   8.126
 6449SOL    HW221187  13.665  12.896   7.978
 6450SOL     OW21188   9.577  14.043   5.022
 6450SOL    HW121189   9.631  13.996   5.085
 6450SOL    HW221190   9.579  13.989   4.944
 6451SOL     OW21191  13.864   3.137   1.284
 6451SOL    HW121192  13.909   3.222   1.284
 6451SOL    HW221193  13.773   3.158   1.261
 6452SOL     OW21194  12.653   3.795   1.395
 6452SOL    HW121195  12.712   3.868   1.377
 6452SOL    HW221196  12.586   3.832   1.452
 6453SOL     OW21197  12.522   5.855   9.753
 6453SOL    HW121198  12.590   5.823   9.693
 6453SOL    HW221199  12.534   5.950   9.753
 6454SOL     OW21200   3.712   2.677   6.280
 6454SOL    HW121201   3.777   2.619   6.318
 6454SOL    HW221202   3.728   2.674   6.186
 6455SOL     OW21203  13.891  14.721  13.229
 6455SOL    HW121204  13.917  14.690  13.142
 6455SOL    HW221205  13.957  14.788  13.251
 6456SOL     OW21206   6.789   6.900   5.262
 6456SOL    HW121207   6.816   6.981   5.306
 6456SOL    HW221208   6.869   6.848   5.258
 6457SOL     OW21209  12.401   1.863   0.188
 6457SOL    HW121210  12.361   1.817   0.262
 6457SOL    HW221211  12.433   1.945   0.225
 6458SOL     OW21212  10.343   2.719   9.573
 6458SOL    HW121213  10.254   2.736   9.543
 6458SOL    HW221214  10.398   2.743   9.498
 6459SOL     OW21215   7.726  10.676   0.446
 6459SOL    HW121216   7.650  10.689   0.389
 6459SOL    HW221217   7.695  10.703   0.533
 6460SOL     OW21218  14.010  10.275   4.161
 6460SOL    HW121219  13.923  10.240   4.142
 6460SOL    HW221220  13.997  10.369   4.170
 6461SOL     OW21221  14.028   8.994   6.939
 6461SOL    HW121222  13.941   8.955   6.933
 6461SOL    HW221223  14.015   9.086   6.918
 6462SOL     OW21224  11.001   6.749   5.653
 6462SOL    HW121225  10.924   6.694   5.635
 6462SOL    HW221226  11.072   6.686   5.668
 6463SOL     OW21227  12.683  13.939   8.274
 6463SOL    HW121228  12.716  13.976   8.356
 6463SOL    HW221229  12.720  13.851   8.271
 6464SOL     OW21230  13.456  10.300  11.807
 6464SOL    HW121231  13.428  10.251  11.729
 6464SOL    HW221232  13.380  10.298  11.865
 6465SOL     OW21233   1.923   8.354  13.932
 6465SOL    HW121234   2.009   8.320  13.958
 6465SOL    HW221235   1.883   8.383  14.014
 6466SOL     OW21236   8.908   3.079   1.977
 6466SOL    HW121237   8.900   3.097   2.071
 6466SOL    HW221238   8.826   3.110   1.940
 6467SOL     OW21239   8.096   7.224   4.385
 6467SOL    HW121240   8.008   7.197   4.412
 6467SOL    HW221241   8.122   7.288   4.451
 6468SOL     OW21242   8.867   3.509  11.798
 6468SOL    HW121243   8.772   3.500  11.809
 6468SOL    HW221244   8.882   3.489  11.706
 6469SOL     OW21245  10.480   4.770   0.380
 6469SOL    HW121246  10.557   4.738   0.428
 6469SOL    HW221247  10.483   4.865   0.391
 6470SOL     OW21248   5.882  11.573   5.004
 6470SOL    HW121249   5.819  11.556   5.074
 6470SOL    HW221250   5.831  11.567   4.923
 6471SOL     OW21251   0.363   1.726  11.022
 6471SOL    HW121252   0.421   1.778  10.966
 6471SOL    HW221253   0.366   1.771  11.107
 6472SOL     OW21254  13.169   2.201   7.997
 6472SOL    HW121255  13.105   2.272   7.996
 6472SOL    HW221256  13.180   2.181   8.090
 6473SOL     OW21257   6.022   9.896   3.444
 6473SOL    HW121258   5.956   9.919   3.509
 6473SOL    HW221259   6.097   9.950   3.467
 6474SOL     OW21260   6.099  13.246  11.113
 6474SOL    HW121261   6.032  13.212  11.173
 6474SOL    HW221262   6.158  13.172  11.099
 6475SOL     OW21263   1.484   2.016  14.033
 6475SOL    HW121264   1.478   2.046  14.124
 6475SOL    HW221265   1.443   1.929  14.034
 6476SOL     OW21266   6.057   8.959   5.831
 6476SOL    HW121267   6.092   8.957   5.921
 6476SOL    HW221268   5.968   8.925   5.839
 6477SOL     OW21269  14.136  12.722   1.625
 6477SOL    HW121270  14.191  12.721   1.703
 6477SOL    HW221271  14.172  12.793   1.571
 6478SOL     OW21272  13.749  13.367   4.114
 6478SOL    HW121273  13.709  13.383   4.199
 6478SOL    HW221274  13.805  13.442   4.099
 6479SOL     OW21275  14.410   5.595   1.127
 6479SOL    HW121276  14.392   5.589   1.221
 6479SOL    HW221277  14.370   5.678   1.100
 6480SOL     OW21278  10.315   8.462   9.444
 6480SOL    HW121279  10.323   8.554   9.420
 6480SOL    HW221280  10.355   8.456   9.530
 6481SOL     OW21281   2.846  11.995   1.930
 6481SOL    HW121282   2.844  12.055   1.855
 6481SOL    HW221283   2.870  11.910   1.892
 6482SOL     OW21284   2.325   1.888   9.632
 6482SOL    HW121285   2.258   1.953   9.653
 6482SOL    HW221286   2.406   1.925   9.667
 6483SOL     OW21287   2.208  11.794   6.597
 6483SOL    HW121288   2.225  11.747   6.516
 6483SOL    HW221289   2.296  11.818   6.629
 6484SOL     OW21290  12.144  12.454  12.925
 6484SOL    HW121291  12.180  12.536  12.893
 6484SOL    HW221292  12.211  12.419  12.983
 6485SOL     OW21293  12.309   4.010   2.072
 6485SOL    HW121294  12.281   3.947   2.139
 6485SOL    HW221295  12.318   3.957   1.992
 6486SOL     OW21296   2.285   3.975   9.381
 6486SOL    HW121297   2.238   3.926   9.314
 6486SOL    HW221298   2.236   4.056   9.391
 6487SOL     OW21299   6.580   1.686   7.809
 6487SOL    HW121300   6.584   1.669   7.903
 6487SOL    HW221301   6.493   1.657   7.783
 6488SOL     OW21302  13.141   8.040   3.372
 6488SOL    HW121303  13.048   8.044   3.396
 6488SOL    HW221304  13.143   8.060   3.279
 6489SOL     OW21305   9.100   1.012   1.278
 6489SOL    HW121306   9.132   1.011   1.368
 6489SOL    HW221307   9.155   1.077   1.234
 6490SOL     OW21308   8.796   1.465   8.257
 6490SOL    HW121309   8.757   1.526   8.319
 6490SOL    HW221310   8.888   1.459   8.283
 6491SOL     OW21311   3.269   5.962   0.183
 6491SOL    HW121312   3.218   5.998   0.257
 6491SOL    HW221313   3.331   5.902   0.224
 6492SOL     OW21314  11.362   7.073   0.723
 6492SOL    HW121315  11.393   6.985   0.698
 6492SOL    HW221316  11.441   7.127   0.722
 6493SOL     OW21317  14.039   1.289   1.116
 6493SOL    HW121318  13.969   1.301   1.181
 6493SOL    HW221319  14.118   1.272   1.169
 6494SOL     OW21320   1.745   2.738   6.657
 6494SOL    HW121321   1.654   2.761   6.673
 6494SOL    HW221322   1.744   2.696   6.571
 6495SOL     OW21323   8.663   2.186  13.219
 6495SOL    HW121324   8.597   2.135  13.171
 6495SOL    HW221325   8.642   2.277  13.199
 6496SOL     OW21326   7.464  14.756  14.465
 6496SOL    HW121327   7.445  14.724  14.552
 6496SOL    HW221328   7.439  14.848  14.467
 6497SOL     OW21329   1.379   7.833  10.843
 6497SOL    HW121330   1.359   7.917  10.884
 6497SOL    HW221331   1.293   7.792  10.830
 6498SOL     OW21332   1.347  11.937  13.034
 6498SOL    HW121333   1.357  11.887  13.115
 6498SOL    HW221334   1.269  11.991  13.048
 6499SOL     OW21335   6.227   1.333  10.571
 6499SOL    HW121336   6.207   1.332  10.664
 6499SOL    HW221337   6.322   1.319  10.567
 6500SOL     OW21338   8.223  14.537   5.377
 6500SOL    HW121339   8.147  14.582   5.340
 6500SOL    HW221340   8.265  14.494   5.302
 6501SOL     OW21341   2.518   3.916  13.982
 6501SOL    HW121342   2.440   3.968  13.961
 6501SOL    HW221343   2.516   3.843  13.920
 6502SOL     OW21344  14.528   2.446   3.051
 6502SOL    HW121345  14.485   2.486   2.976
 6502SOL    HW221346  14.485   2.361   3.060
 6503SOL     OW21347  12.656   0.347   1.735
 6503SOL    HW121348  12.730   0.331   1.794
 6503SOL    HW221349  12.655   0.441   1.722
 6504SOL     OW21350   4.702   8.095  14.556
 6504SOL    HW121351   4.734   8.181  14.584
 6504SOL    HW221352   4.651   8.113  14.477
 6505SOL     OW21353  14.452  13.920  10.588
 6505SOL    HW121354  14.381  13.912  10.651
 6505SOL    HW221355  14.438  14.005  10.546
 6506SOL     OW21356   6.488   3.440   0.009
 6506SOL    HW121357   6.581   3.415   0.012
 6506SOL    HW221358   6.489   3.531  14.853
 6507SOL     OW21359  13.563   6.664   7.128
 6507SOL    HW121360  13.657   6.678   7.131
 6507SOL    HW221361  13.540   6.639   7.218
 6508SOL     OW21362  13.990   7.504   6.271
 6508SOL    HW121363  13.999   7.454   6.352
 6508SOL    HW221364  14.077   7.539   6.254
 6509SOL     OW21365   0.043  11.308   3.126
 6509SOL    HW121366  14.835  11.347   3.157
 6509SOL    HW221367   0.042  11.219   3.162
 6510SOL     OW21368   1.719   0.977   5.526
 6510SOL    HW121369   1.700   1.044   5.461
 6510SOL    HW221370   1.661   0.998   5.600
 6511SOL     OW21371  13.776  11.221   6.879
 6511SOL    HW121372  13.790  11.147   6.820
 6511SOL    HW221373  13.837  11.288   6.849
 6512SOL     OW21374  10.380   9.223   7.239
 6512SOL    HW121375  10.408   9.315   7.233
 6512SOL    HW221376  10.429   9.187   7.313
 6513SOL     OW21377   5.456   3.397  10.642
 6513SOL    HW121378   5.510   3.325  10.609
 6513SOL    HW221379   5.369   3.381  10.605
 6514SOL     OW21380  13.438   4.479   1.777
 6514SOL    HW121381  13.462   4.570   1.793
 6514SOL    HW221382  13.520   4.436   1.754
 6515SOL     OW21383   2.408  11.773   7.062
 6515SOL    HW121384   2.394  11.866   7.078
 6515SOL    HW221385   2.321  11.738   7.045
 6516SOL     OW21386  10.618   3.455  12.366
 6516SOL    HW121387  10.601   3.489  12.279
 6516SOL    HW221388  10.554   3.499  12.422
 6517SOL     OW21389   1.992   7.075  10.998
 6517SOL    HW121390   1.923   7.026  10.953
 6517SOL    HW221391   2.049   7.107  10.928
 6518SOL     OW21392   5.278   0.559  14.398
 6518SOL    HW121393   5.275   0.621  14.325
 6518SOL    HW221394   5.190   0.562  14.435
 6519SOL     OW21395   4.129   1.047  11.553
 6519SOL    HW121396   4.086   0.968  11.522
 6519SOL    HW221397   4.071   1.081  11.621
 6520SOL     OW21398  14.741   9.918  10.447
 6520SOL    HW121399  14.663   9.972  10.437
 6520SOL    HW221400  14.810   9.980  10.470
 6521SOL     OW21401   2.063   0.929   2.778
 6521SOL    HW121402   1.971   0.919   2.752
 6521SOL    HW221403   2.073   0.870   2.853
 6522SOL     OW21404  10.981  14.846   2.968
 6522SOL    HW121405  10.933  14.811   3.044
 6522SOL    HW221406  11.043  14.777   2.945
 6523SOL     OW21407   5.774   0.925   6.934
 6523SOL    HW121408   5.813   0.920   6.847
 6523SOL    HW221409   5.736   1.013   6.939
 6524SOL     OW21410   5.092   0.319  10.421
 6524SOL    HW121411   5.183   0.302  10.398
 6524SOL    HW221412   5.087   0.305  10.515
 6525SOL     OW21413   6.558   8.967  13.727
 6525SOL    HW121414   6.632   8.982  13.786
 6525SOL    HW221415   6.583   8.889  13.676
 6526SOL     OW21416   9.009   7.138   9.821
 6526SOL    HW121417   8.994   7.149   9.915
 6526SOL    HW221418   8.928   7.170   9.781
 6527SOL     OW21419  14.619  12.124   1.532
 6527SOL    HW121420  14.664  12.189   1.476
 6527SOL    HW221421  14.690  12.072   1.569
 6528SOL     OW21422   7.358   0.355   0.501
 6528SOL    HW121423   7.410   0.295   0.554
 6528SOL    HW221424   7.302   0.400   0.564
 6529SOL     OW21425   6.035  11.664   5.617
 6529SOL    HW121426   6.048  11.755   5.589
 6529SOL    HW221427   6.030  11.669   5.713
 6530SOL     OW21428  13.351   0.965   1.833
 6530SOL    HW121429  13.264   0.959   1.792
 6530SOL    HW221430  13.409   0.920   1.771
 6531SOL     OW21431   2.407   9.541   6.344
 6531SOL    HW121432   2.499   9.524   6.361
 6531SOL    HW221433   2.360   9.471   6.390
 6532SOL     OW21434  11.579  10.587   9.482
 6532SOL    HW121435  11.491  10.615   9.454
 6532SOL    HW221436  11.625  10.669   9.499
 6533SOL     OW21437   0.054  12.618   4.929
 6533SOL    HW121438   0.069  12.580   5.015
 6533SOL    HW221439   0.037  12.710   4.947
 6534SOL     OW21440   5.849  10.955   7.227
 6534SOL    HW121441   5.865  10.886   7.162
 6534SOL    HW221442   5.831  10.907   7.308
 6535SOL     OW21443  12.211   1.516   1.452
 6535SOL    HW121444  12.140   1.552   1.505
 6535SOL    HW221445  12.289   1.565   1.480
 6536SOL     OW21446  10.493   7.393   3.560
 6536SOL    HW121447  10.403   7.424   3.551
 6536SOL    HW221448  10.536   7.420   3.480
 6537SOL     OW21449  11.118   6.930   4.107
 6537SOL    HW121450  11.055   6.871   4.064
 6537SOL    HW221451  11.144   6.991   4.038
 6538SOL     OW21452  11.357   3.216  10.630
 6538SOL    HW121453  11.365   3.211  10.725
 6538SOL    HW221454  11.349   3.309  10.611
 6539SOL     OW21455  10.653   5.296  11.725
 6539SOL    HW121456  10.622   5.309  11.635
 6539SOL    HW221457  10.629   5.377  11.770
 6540SOL     OW21458   9.554  14.062  13.109
 6540SOL    HW121459   9.494  14.073  13.183
 6540SOL    HW221460   9.641  14.059  13.148
 6541SOL     OW21461  11.993  12.136   6.564
 6541SOL    HW121462  11.908  12.176   6.587
 6541SOL    HW221463  12.018  12.180   6.483
 6542SOL     OW21464  11.976   7.977   7.044
 6542SOL    HW121465  11.893   7.930   7.031
 6542SOL    HW221466  12.029   7.954   6.968
 6543SOL     OW21467  11.437   8.313  11.576
 6543SOL    HW121468  11.465   8.337  11.487
 6543SOL    HW221469  11.348   8.279  11.564
 6544SOL     OW21470   3.165   9.010  13.606
 6544SOL    HW121471   3.132   8.936  13.556
 6544SOL    HW221472   3.247   8.979  13.644
 6545SOL     OW21473   3.835   0.218  14.225
 6545SOL    HW121474   3.828   0.152  14.294
 6545SOL    HW221475   3.753   0.210  14.176
 6546SOL     OW21476   8.951  14.816   3.406
 6546SOL    HW121477   8.926  14.724   3.409
 6546SOL    HW221478   8.983  14.829   3.316
 6547SOL     OW21479  14.453   0.481   5.547
 6547SOL    HW121480  14.490   0.461   5.633
 6547SOL    HW221481  14.529   0.496   5.490
 6548SOL     OW21482  13.279   3.441   5.557
 6548SOL    HW121483  13.217   3.478   5.620
 6548SOL    HW221484  13.223   3.401   5.489
 6549SOL     OW21485  13.681   4.748   7.245
 6549SOL    HW121486  13.749   4.724   7.309
 6549SOL    HW221487  13.728   4.754   7.162
 6550SOL     OW21488  11.923  10.179   2.878
 6550SOL    HW121489  11.940  10.112   2.944
 6550SOL    HW221490  12.007  10.225   2.868
 6551SOL     OW21491   1.143  13.115   0.211
 6551SOL    HW121492   1.087  13.141   0.138
 6551SOL    HW221493   1.099  13.040   0.250
 6552SOL     OW21494   2.955   0.589  12.403
 6552SOL    HW121495   3.026   0.650  12.424
 6552SOL    HW221496   2.981   0.507  12.446
 6553SOL     OW21497   3.254  11.928  11.672
 6553SOL    HW121498   3.213  11.867  11.734
 6553SOL    HW221499   3.249  12.013  11.715
 6554SOL     OW21500   9.629   0.554   9.003
 6554SOL    HW121501   9.662   0.499   9.074
 6554SOL    HW221502   9.668   0.640   9.018
 6555SOL     OW21503   9.328   6.341  11.239
 6555SOL    HW121504   9.273   6.395  11.181
 6555SOL    HW221505   9.319   6.381  11.325
 6556SOL     OW21506  10.128  14.734   4.195
 6556SOL    HW121507  10.037  14.708   4.208
 6556SOL    HW221508  10.132  14.762   4.104
 6557SOL     OW21509   6.702  13.936   4.195
 6557SOL    HW121510   6.613  13.923   4.164
 6557SOL    HW221511   6.743  13.992   4.129
 6558SOL     OW21512   6.009   0.037  12.174
 6558SOL    HW121513   6.012   0.065  12.265
 6558SOL    HW221514   6.020  14.816  12.177
 6559SOL     OW21515   0.488   0.396   8.094
 6559SOL    HW121516   0.438   0.478   8.088
 6559SOL    HW221517   0.577   0.420   8.067
 6560SOL     OW21518   9.461   3.166  14.711
 6560SOL    HW121519   9.506   3.129  14.787
 6560SOL    HW221520   9.496   3.254  14.702
 6561SOL     OW21521  13.510   4.755   1.785
 6561SOL    HW121522  13.485   4.767   1.877
 6561SOL    HW221523  13.602   4.782   1.782
 6562SOL     OW21524   9.596   2.818   0.501
 6562SOL    HW121525   9.682   2.793   0.535
 6562SOL    HW221526   9.595   2.784   0.411
 6563SOL     OW21527   5.594   8.115   4.785
 6563SOL    HW121528   5.552   8.085   4.704
 6563SOL    HW221529   5.584   8.210   4.783
 6564SOL     OW21530  11.530   3.146   3.654
 6564SOL    HW121531  11.617   3.118   3.684
 6564SOL    HW221532  11.537   3.147   3.559
 6565SOL     OW21533   1.500   9.443  10.165
 6565SOL    HW121534   1.532   9.532  10.177
 6565SOL    HW221535   1.576   9.394  10.134
 6566SOL     OW21536  14.377   8.195  11.486
 6566SOL    HW121537  14.286   8.164  11.485
 6566SOL    HW221538  14.370   8.288  11.504
 6567SOL     OW21539   2.313  13.737   5.628
 6567SOL    HW121540   2.278  13.822   5.654
 6567SOL    HW221541   2.317  13.686   5.709
 6568SOL     OW21542   0.141   7.598   2.043
 6568SOL    HW121543   0.233   7.571   2.037
 6568SOL    HW221544   0.104   7.544   2.113
 6569SOL     OW21545  11.629   2.016  11.430
 6569SOL    HW121546  11.638   1.997  11.524
 6569SOL    HW221547  11.620   1.930  11.389
 6570SOL     OW21548   8.901   4.572   0.387
 6570SOL    HW121549   8.994   4.560   0.368
 6570SOL    HW221550   8.873   4.488   0.422
 6571SOL     OW21551  13.534  13.932   3.794
 6571SOL    HW121552  13.533  14.011   3.740
 6571SOL    HW221553  13.500  13.863   3.736
 6572SOL     OW21554  10.914   6.355  11.671
 6572SOL    HW121555  10.822   6.368  11.696
 6572SOL    HW221556  10.962   6.360  11.754
 6573SOL     OW21557  11.341   2.065   7.857
 6573SOL    HW121558  11.352   2.150   7.899
 6573SOL    HW221559  11.249   2.062   7.831
 6574SOL     OW21560   7.063  13.224   0.160
 6574SOL    HW121561   6.981  13.270   0.177
 6574SOL    HW221562   7.085  13.246   0.070
 6575SOL     OW21563   5.795   3.602   9.986
 6575SOL    HW121564   5.842   3.682  10.010
 6575SOL    HW221565   5.703   3.623  10.000
 6576SOL     OW21566   4.824   2.158  14.778
 6576SOL    HW121567   4.844   2.206  14.698
 6576SOL    HW221568   4.901   2.170  14.834
 6577SOL     OW21569  10.439   4.119   3.142
 6577SOL    HW121570  10.377   4.191   3.157
 6577SOL    HW221571  10.521   4.163   3.118
 6578SOL     OW21572   2.954  11.382  13.677
 6578SOL    HW121573   3.048  11.374  13.658
 6578SOL    HW221574   2.913  11.384  13.590
 6579SOL     OW21575  11.870   0.472  14.372
 6579SOL    HW121576  11.816   0.394  14.377
 6579SOL    HW221577  11.872   0.494  14.278
 6580SOL     OW21578   3.622  10.063   2.288
 6580SOL    HW121579   3.712  10.040   2.267
 6580SOL    HW221580   3.570   9.989   2.258
 6581SOL     OW21581   0.469  12.832   3.177
 6581SOL    HW121582   0.518  12.912   3.190
 6581SOL    HW221583   0.502  12.796   3.094
 6582SOL     OW21584  10.589   3.077   1.174
 6582SOL    HW121585  10.672   3.117   1.201
 6582SOL    HW221586  10.524   3.112   1.235
 6583SOL     OW21587   8.409   5.387  13.787
 6583SOL    HW121588   8.447   5.426  13.708
 6583SOL    HW221589   8.334   5.444  13.807
 6584SOL     OW21590   3.364   0.009  13.013
 6584SOL    HW121591   3.306  14.867  13.087
 6584SOL    HW221592   3.441   0.052  13.051
 6585SOL     OW21593  10.008  12.603  13.556
 6585SOL    HW121594   9.995  12.681  13.502
 6585SOL    HW221595   9.921  12.583  13.589
 6586SOL     OW21596   7.684   3.761   7.160
 6586SOL    HW121597   7.660   3.812   7.082
 6586SOL    HW221598   7.749   3.815   7.205
 6587SOL     OW21599  11.466   7.339  11.777
 6587SOL    HW121600  11.543   7.391  11.797
 6587SOL    HW221601  11.404   7.400  11.737
 6588SOL     OW21602   7.854   4.573  10.293
 6588SOL    HW121603   7.819   4.550  10.207
 6588SOL    HW221604   7.788   4.540  10.355
 6589SOL     OW21605  14.302   1.157   0.748
 6589SOL    HW121606  14.268   1.114   0.827
 6589SOL    HW221607  14.357   1.228   0.781
 6590SOL     OW21608  13.734  10.739  14.526
 6590SOL    HW121609  13.810  10.762  14.472
 6590SOL    HW221610  13.702  10.657  14.488
 6591SOL     OW21611  12.164  12.680  11.302
 6591SOL    HW121612  12.196  12.620  11.370
 6591SOL    HW221613  12.188  12.638  11.220
 6592SOL     OW21614   0.064   6.034   9.438
 6592SOL    HW121615   0.123   6.057   9.367
 6592SOL    HW221616   0.089   5.945   9.463
 6593SOL     OW21617  10.815   2.072   5.171
 6593SOL    HW121618  10.820   2.153   5.222
 6593SOL    HW221619  10.771   2.097   5.090
 6594SOL     OW21620   5.468   9.186   1.801
 6594SOL    HW121621   5.474   9.167   1.707
 6594SOL    HW221622   5.375   9.178   1.821
 6595SOL     OW21623   4.637   3.734   9.353
 6595SOL    HW121624   4.678   3.653   9.325
 6595SOL    HW221625   4.710   3.795   9.365
 6596SOL     OW21626   9.559   6.142   6.700
 6596SOL    HW121627   9.650   6.171   6.705
 6596SOL    HW221628   9.563   6.059   6.652
 6597SOL     OW21629  13.775  10.833   5.511
 6597SOL    HW121630  13.694  10.796   5.545
 6597SOL    HW221631  13.813  10.881   5.585
 6598SOL     OW21632   0.490   1.771   2.134
 6598SOL    HW121633   0.547   1.796   2.061
 6598SOL    HW221634   0.408   1.745   2.092
 6599SOL     OW21635   3.465   7.744   7.519
 6599SOL    HW121636   3.370   7.749   7.512
 6599SOL    HW221637   3.482   7.740   7.613
 6600SOL     OW21638   2.161   0.574   9.024
 6600SOL    HW121639   2.240   0.543   9.069
 6600SOL    HW221640   2.091   0.516   9.056
 6601SOL     OW21641  11.909   5.088   2.355
 6601SOL    HW121642  11.859   5.072   2.435
 6601SOL    HW221643  11.959   5.167   2.373
 6602SOL     OW21644  13.124   6.394  14.019
 6602SOL    HW121645  13.048   6.361  14.066
 6602SOL    HW221646  13.099   6.391  13.927
 6603SOL     OW21647   9.569   7.120   9.281
 6603SOL    HW121648   9.641   7.092   9.223
 6603SOL    HW221649   9.526   7.039   9.307
 6604SOL     OW21650  10.726   8.561   3.936
 6604SOL    HW121651  10.809   8.541   3.894
 6604SOL    HW221652  10.710   8.488   3.995
 6605SOL     OW21653   9.775   0.266  14.217
 6605SOL    HW121654   9.683   0.248  14.234
 6605SOL    HW221655   9.822   0.204  14.272
 6606SOL     OW21656   8.795   6.898   7.371
 6606SOL    HW121657   8.741   6.945   7.435
 6606SOL    HW221658   8.753   6.917   7.286
 6607SOL     OW21659  11.131   2.538   6.215
 6607SOL    HW121660  11.224   2.559   6.219
 6607SOL    HW221661  11.092   2.609   6.164
 6608SOL     OW21662  11.779   4.252   7.667
 6608SOL    HW121663  11.709   4.308   7.698
 6608SOL    HW221664  11.793   4.279   7.576
 6609SOL     OW21665  10.609   2.647   8.917
 6609SOL    HW121666  10.654   2.731   8.927
 6609SOL    HW221667  10.527   2.669   8.873
 6610SOL     OW21668   3.678   7.998   5.298
 6610SOL    HW121669   3.764   8.036   5.284
 6610SOL    HW221670   3.686   7.908   5.267
 6611SOL     OW21671  12.554   5.792   3.262
 6611SOL    HW121672  12.601   5.784   3.345
 6611SOL    HW221673  12.525   5.883   3.259
 6612SOL     OW21674   7.103   2.494  12.849
 6612SOL    HW121675   7.022   2.452  12.879
 6612SOL    HW221676   7.170   2.461  12.909
 6613SOL     OW21677   3.150  10.581  11.232
 6613SOL    HW121678   3.240  10.577  11.263
 6613SOL    HW221679   3.157  10.603  11.139
 6614SOL     OW21680   1.898   2.528   4.493
 6614SOL    HW121681   1.815   2.563   4.525
 6614SOL    HW221682   1.876   2.478   4.415
 6615SOL     OW21683   5.951   5.370   4.047
 6615SOL    HW121684   6.040   5.351   4.075
 6615SOL    HW221685   5.895   5.337   4.118
 6616SOL     OW21686   7.648   7.114   5.179
 6616SOL    HW121687   7.563   7.134   5.139
 6616SOL    HW221688   7.705   7.094   5.105
 6617SOL     OW21689   9.811   0.215   0.075
 6617SOL    HW121690   9.900   0.224   0.109
 6617SOL    HW221691   9.786   0.304   0.051
 6618SOL     OW21692   5.745   3.363   9.374
 6618SOL    HW121693   5.769   3.334   9.462
 6618SOL    HW221694   5.796   3.306   9.316
 6619SOL     OW21695   7.456   1.986   7.611
 6619SOL    HW121696   7.366   2.005   7.636
 6619SOL    HW221697   7.508   2.021   7.684
 6620SOL     OW21698  10.213   8.027  10.277
 6620SOL    HW121699  10.195   7.949  10.224
 6620SOL    HW221700  10.127   8.057  10.306
 6621SOL     OW21701  11.346   8.507   0.761
 6621SOL    HW121702  11.343   8.482   0.854
 6621SOL    HW221703  11.348   8.425   0.714
 6622SOL     OW21704  13.705  10.461  10.031
 6622SOL    HW121705  13.685  10.399  10.101
 6622SOL    HW221706  13.623  10.508  10.016
 6623SOL     OW21707  11.201  10.552  12.106
 6623SOL    HW121708  11.261  10.602  12.160
 6623SOL    HW221709  11.144  10.618  12.065
 6624SOL     OW21710   6.650   8.035  10.713
 6624SOL    HW121711   6.655   7.941  10.731
 6624SOL    HW221712   6.583   8.067  10.773
 6625SOL     OW21713  14.592   1.979  13.189
 6625SOL    HW121714  14.570   2.001  13.099
 6625SOL    HW221715  14.663   2.039  13.212
 6626SOL     OW21716   9.997  12.391  12.945
 6626SOL    HW121717   9.923  12.346  12.987
 6626SOL    HW221718  10.074  12.349  12.982
 6627SOL     OW21719   6.524  13.849   1.920
 6627SOL    HW121720   6.451  13.886   1.870
 6627SOL    HW221721   6.602  13.870   1.867
 6628SOL     OW21722   3.181  10.242   8.589
 6628SOL    HW121723   3.182  10.298   8.667
 6628SOL    HW221724   3.262  10.192   8.594
 6629SOL     OW21725   1.327   8.982  12.841
 6629SOL    HW121726   1.356   9.011  12.927
 6629SOL    HW221727   1.295   9.062  12.798
 6630SOL     OW21728   0.313  11.724  10.832
 6630SOL    HW121729   0.257  11.776  10.889
 6630SOL    HW221730   0.389  11.780  10.815
 6631SOL     OW21731   9.634   7.401  12.729
 6631SOL    HW121732   9.692   7.430  12.659
 6631SOL    HW221733   9.694   7.372  12.799
 6632SOL     OW21734   0.962   3.843  10.949
 6632SOL    HW121735   0.994   3.923  10.909
 6632SOL    HW221736   0.955   3.863  11.042
 6633SOL     OW21737   0.982  11.496   6.621
 6633SOL    HW121738   0.981  11.551   6.543
 6633SOL    HW221739   0.974  11.407   6.588
 6634SOL     OW21740   1.806  13.866   6.796
 6634SOL    HW121741   1.760  13.946   6.821
 6634SOL    HW221742   1.796  13.807   6.870
 6635SOL     OW21743   9.348   2.450  14.454
 6635SOL    HW121744   9.263   2.408  14.465
 6635SOL    HW221745   9.331   2.543  14.473
 6636SOL     OW21746  14.078   1.076  11.085
 6636SOL    HW121747  14.049   1.165  11.103
 6636SOL    HW221748  14.050   1.058  10.995
 6637SOL     OW21749   6.487   7.763   3.971
 6637SOL    HW121750   6.435   7.734   3.895
 6637SOL    HW221751   6.567   7.710   3.967
 6638SOL     OW21752  10.276   9.406  13.792
 6638SOL    HW121753  10.319   9.396  13.877
 6638SOL    HW221754  10.317   9.340  13.737
 6639SOL     OW21755   5.143  14.414  12.449
 6639SOL    HW121756   5.090  14.385  12.375
 6639SOL    HW221757   5.177  14.499  12.423
 6640SOL     OW21758  11.017  10.475  13.432
 6640SOL    HW121759  11.096  10.501  13.479
 6640SOL    HW221760  11.040  10.391  13.392
 6641SOL     OW21761  10.880  10.257  13.598
 6641SOL    HW121762  10.951  10.312  13.564
 6641SOL    HW221763  10.891  10.260  13.693
 6642SOL     OW21764   5.213  12.819  12.582
 6642SOL    HW121765   5.297  12.858  12.604
 6642SOL    HW221766   5.231  12.764  12.505
 6643SOL     OW21767  12.161  10.905   0.356
 6643SOL    HW121768  12.078  10.946   0.378
 6643SOL    HW221769  12.200  10.882   0.440
 6644SOL     OW21770  13.595   5.296  11.209
 6644SOL    HW121771  13.658   5.305  11.137
 6644SOL    HW221772  13.575   5.385  11.235
 6645SOL     OW21773   6.752  10.433  13.764
 6645SOL    HW121774   6.717  10.362  13.710
 6645SOL    HW221775   6.718  10.513  13.724
 6646SOL     OW21776  12.219   9.188   8.466
 6646SOL    HW121777  12.172   9.184   8.383
 6646SOL    HW221778  12.301   9.142   8.449
 6647SOL     OW21779   2.350   6.997   3.630
 6647SOL    HW121780   2.270   7.029   3.587
 6647SOL    HW221781   2.371   7.065   3.694
 6648SOL     OW21782   5.006   9.631   5.189
 6648SOL    HW121783   5.036   9.686   5.262
 6648SOL    HW221784   4.951   9.689   5.137
 6649SOL     OW21785   9.987   1.389   1.383
 6649SOL    HW121786   9.920   1.325   1.405
 6649SOL    HW221787   9.995   1.384   1.288
 6650SOL     OW21788  13.580   6.392   5.919
 6650SOL    HW121789  13.519   6.360   5.985
 6650SOL    HW221790  13.656   6.421   5.970
 6651SOL     OW21791   0.400   9.154   5.206
 6651SOL    HW121792   0.434   9.104   5.131
 6651SOL    HW221793   0.435   9.242   5.194
 6652SOL     OW21794   4.872  10.850  13.719
 6652SOL    HW121795   4.790  10.801  13.728
 6652SOL    HW221796   4.937  10.783  13.698
 6653SOL     OW21797   1.419  10.943   1.349
 6653SOL    HW121798   1.352  10.961   1.414
 6653SOL    HW221799   1.399  10.855   1.317
 6654SOL     OW21800   8.895   0.828   2.473
 6654SOL    HW121801   8.967   0.868   2.522
 6654SOL    HW221802   8.912   0.734   2.476
 6655SOL     OW21803  11.991  10.684   9.701
 6655SOL    HW121804  12.010  10.669   9.608
 6655SOL    HW221805  11.978  10.597   9.738
 6656SOL     OW21806   2.472  12.775   7.144
 6656SOL    HW121807   2.553  12.823   7.157
 6656SOL    HW221808   2.472  12.753   7.050
 6657SOL     OW21809   7.532  11.527   4.900
 6657SOL    HW121810   7.464  11.587   4.871
 6657SOL    HW221811   7.577  11.573   4.971
 6658SOL     OW21812   6.189   6.653   7.044
 6658SOL    HW121813   6.095   6.673   7.040
 6658SOL    HW221814   6.230   6.739   7.052
 6659SOL     OW21815   7.627   1.002   6.023
 6659SOL    HW121816   7.714   0.965   6.013
 6659SOL    HW221817   7.594   1.009   5.934
 6660SOL     OW21818  10.807   9.651   8.974
 6660SOL    HW121819  10.897   9.667   9.004
 6660SOL    HW221820  10.817   9.608   8.889
 6661SOL     OW21821  14.067   2.992  13.638
 6661SOL    HW121822  13.979   3.030  13.643
 6661SOL    HW221823  14.066   2.943  13.556
 6662SOL     OW21824   0.303   3.369   0.304
 6662SOL    HW121825   0.382   3.421   0.316
 6662SOL    HW221826   0.259   3.408   0.229
 6663SOL     OW21827   5.647   2.903   7.392
 6663SOL    HW121828   5.562   2.859   7.386
 6663SOL    HW221829   5.659   2.945   7.307
 6664SOL     OW21830  12.307   9.598   8.942
 6664SOL    HW121831  12.313   9.642   9.027
 6664SOL    HW221832  12.215   9.576   8.933
 6665SOL     OW21833   4.414  10.850  14.565
 6665SOL    HW121834   4.421  10.901  14.646
 6665SOL    HW221835   4.321  10.856  14.541
 6666SOL     OW21836   0.754   9.709   1.542
 6666SOL    HW121837   0.794   9.775   1.598
 6666SOL    HW221838   0.704   9.653   1.602
 6667SOL     OW21839   4.065   6.633   4.143
 6667SOL    HW121840   4.136   6.686   4.107
 6667SOL    HW221841   3.985   6.675   4.110
 6668SOL     OW21842  10.114  14.343   3.374
 6668SOL    HW121843  10.032  14.392   3.381
 6668SOL    HW221844  10.151  14.370   3.290
 6669SOL     OW21845   5.876   7.074  11.743
 6669SOL    HW121846   5.951   7.134  11.744
 6669SOL    HW221847   5.820   7.105  11.814
 6670SOL     OW21848   0.380   9.472   4.936
 6670SOL    HW121849   0.422   9.431   5.011
 6670SOL    HW221850   0.351   9.558   4.969
 6671SOL     OW21851   0.183   6.916  11.487
 6671SOL    HW121852   0.256   6.855  11.495
 6671SOL    HW221853   0.193   6.954  11.400
 6672SOL     OW21854   0.134  14.281   9.648
 6672SOL    HW121855   0.083  14.219   9.596
 6672SOL    HW221856   0.151  14.354   9.589
 6673SOL     OW21857  12.476   3.305   3.362
 6673SOL    HW121858  12.434   3.265   3.439
 6673SOL    HW221859  12.454   3.246   3.290
 6674SOL     OW21860   3.334   3.865   2.841
 6674SOL    HW121861   3.264   3.859   2.776
 6674SOL    HW221862   3.391   3.935   2.808
 6675SOL     OW21863   9.308   0.262   2.939
 6675SOL    HW121864   9.353   0.342   2.914
 6675SOL    HW221865   9.240   0.291   3.000
 6676SOL     OW21866   6.988   3.790   0.460
 6676SOL    HW121867   7.034   3.826   0.384
 6676SOL    HW221868   6.952   3.707   0.430
 6677SOL     OW21869  14.770   5.874   7.719
 6677SOL    HW121870  14.713   5.947   7.696
 6677SOL    HW221871  14.854   5.896   7.678
 6678SOL     OW21872   9.172   4.465  12.184
 6678SOL    HW121873   9.079   4.466  12.158
 6678SOL    HW221874   9.215   4.416  12.114
 6679SOL     OW21875   6.762   4.888  10.975
 6679SOL    HW121876   6.784   4.798  11.001
 6679SOL    HW221877   6.846   4.926  10.948
 6680SOL     OW21878   3.962   8.325   0.513
 6680SOL    HW121879   4.013   8.246   0.499
 6680SOL    HW221880   3.992   8.358   0.598
 6681SOL     OW21881   5.746   7.677   9.053
 6681SOL    HW121882   5.669   7.654   9.002
 6681SOL    HW221883   5.736   7.770   9.072
 6682SOL     OW21884   4.341  11.174   2.858
 6682SOL    HW121885   4.273  11.235   2.830
 6682SOL    HW221886   4.417  11.196   2.805
 6683SOL     OW21887  10.687  12.548   2.205
 6683SOL    HW121888  10.613  12.606   2.185
 6683SOL    HW221889  10.679  12.530   2.298
 6684SOL     OW21890   2.753   4.489  12.144
 6684SOL    HW121891   2.821   4.535  12.193
 6684SOL    HW221892   2.684   4.555  12.132
 6685SOL     OW21893   2.836   7.499   6.961
 6685SOL    HW121894   2.802   7.581   6.924
 6685SOL    HW221895   2.759   7.442   6.968
 6686SOL     OW21896  13.493  12.041  13.661
 6686SOL    HW121897  13.579  12.081  13.644
 6686SOL    HW221898  13.471  12.068  13.750
 6687SOL     OW21899   9.481  11.766   3.750
 6687SOL    HW121900   9.413  11.818   3.791
 6687SOL    HW221901   9.435  11.688   3.717
 6688SOL     OW21902   4.929  10.443  12.471
 6688SOL    HW121903   4.986  10.369  12.450
 6688SOL    HW221904   4.935  10.451  12.567
 6689SOL     OW21905  13.520   0.434   2.374
 6689SOL    HW121906  13.602   0.391   2.349
 6689SOL    HW221907  13.462   0.362   2.399
 6690SOL     OW21908   0.122   7.625   3.048
 6690SOL    HW121909   0.165   7.708   3.025
 6690SOL    HW221910   0.172   7.558   3.001
 6691SOL     OW21911   3.681   1.974   9.877
 6691SOL    HW121912   3.682   1.974   9.782
 6691SOL    HW221913   3.605   2.027   9.901
 6692SOL     OW21914  12.306  12.876  13.600
 6692SOL    HW121915  12.386  12.823  13.609
 6692SOL    HW221916  12.260  12.864  13.683
 6693SOL     OW21917   7.214   5.737  11.873
 6693SOL    HW121918   7.270   5.812  11.891
 6693SOL    HW221919   7.165   5.762  11.794
 6694SOL     OW21920   0.645   5.753  14.335
 6694SOL    HW121921   0.707   5.809  14.287
 6694SOL    HW221922   0.655   5.780  14.426
 6695SOL     OW21923   1.440   5.181   9.109
 6695SOL    HW121924   1.489   5.140   9.038
 6695SOL    HW221925   1.480   5.146   9.189
 6696SOL     OW21926   6.046  10.746   4.915
 6696SOL    HW121927   6.130  10.704   4.936
 6696SOL    HW221928   6.016  10.781   4.999
 6697SOL     OW21929  13.543   9.230   7.847
 6697SOL    HW121930  13.473   9.232   7.782
 6697SOL    HW221931  13.587   9.146   7.833
 6698SOL     OW21932   5.210  13.675   5.333
 6698SOL    HW121933   5.203  13.690   5.427
 6698SOL    HW221934   5.251  13.755   5.299
 6699SOL     OW21935   1.166   1.894  12.385
 6699SOL    HW121936   1.172   1.970  12.328
 6699SOL    HW221937   1.129   1.825  12.331
 6700SOL     OW21938   1.476  10.900  12.007
 6700SOL    HW121939   1.469  10.935  11.917
 6700SOL    HW221940   1.522  10.817  11.997
 6701SOL     OW21941   6.824   0.704  11.203
 6701SOL    HW121942   6.920   0.707  11.203
 6701SOL    HW221943   6.800   0.687  11.294
 6702SOL     OW21944   3.111  13.262  14.329
 6702SOL    HW121945   3.184  13.287  14.272
 6702SOL    HW221946   3.092  13.340  14.380
 6703SOL     OW21947   1.715   7.687   3.810
 6703SOL    HW121948   1.643   7.750   3.802
 6703SOL    HW221949   1.786   7.738   3.849
 6704SOL     OW21950   4.789   9.690   0.167
 6704SOL    HW121951   4.729   9.758   0.136
 6704SOL    HW221952   4.874   9.734   0.171
 6705SOL     OW21953   1.745   6.420  12.782
 6705SOL    HW121954   1.755   6.337  12.735
 6705SOL    HW221955   1.736   6.394  12.874
 6706SOL     OW21956   9.099   7.053  10.549
 6706SOL    HW121957   9.025   6.996  10.566
 6706SOL    HW221958   9.173   7.011  10.593
 6707SOL     OW21959   9.754  10.511   2.851
 6707SOL    HW121960   9.768  10.566   2.928
 6707SOL    HW221961   9.820  10.441   2.860
 6708SOL     OW21962  14.560   2.469   6.815
 6708SOL    HW121963  14.616   2.540   6.843
 6708SOL    HW221964  14.478   2.512   6.789
 6709SOL     OW21965   6.169   3.133   9.108
 6709SOL    HW121966   6.185   3.211   9.055
 6709SOL    HW221967   6.230   3.141   9.181
 6710SOL     OW21968   2.925   3.932   4.042
 6710SOL    HW121969   2.856   3.998   4.038
 6710SOL    HW221970   2.889   3.863   4.097
 6711SOL     OW21971  14.031   4.907   5.785
 6711SOL    HW121972  14.054   4.989   5.829
 6711SOL    HW221973  13.951   4.928   5.736
 6712SOL     OW21974   2.905   1.439  11.515
 6712SOL    HW121975   2.955   1.436  11.597
 6712SOL    HW221976   2.862   1.524  11.515
 6713SOL     OW21977   2.295   6.641   2.945
 6713SOL    HW121978   2.306   6.625   3.039
 6713SOL    HW221979   2.213   6.691   2.939
 6714SOL     OW21980   6.770   4.639   0.324
 6714SOL    HW121981   6.818   4.694   0.386
 6714SOL    HW221982   6.753   4.558   0.372
 6715SOL     OW21983  13.276  14.636   2.230
 6715SOL    HW121984  13.361  14.652   2.189
 6715SOL    HW221985  13.294  14.637   2.324
 6716SOL     OW21986  14.547   9.849   2.147
 6716SOL    HW121987  14.526   9.756   2.146
 6716SOL    HW221988  14.524   9.878   2.236
 6717SOL     OW21989   5.395   2.228  12.335
 6717SOL    HW121990   5.481   2.269  12.337
 6717SOL    HW221991   5.412   2.136  12.351
 6718SOL     OW21992   5.835   0.343   1.797
 6718SOL    HW121993   5.893   0.279   1.837
 6718SOL    HW221994   5.752   0.333   1.844
 6719SOL     OW21995   5.207   8.430  10.828
 6719SOL    HW121996   5.284   8.458  10.879
 6719SOL    HW221997   5.220   8.336  10.817
 6720SOL     OW21998  11.571   8.514   1.515
 6720SOL    HW121999  11.610   8.510   1.602
 6720SOL    HW222000  11.599   8.432   1.474
 6721SOL     OW22001   2.513   9.015   1.671
 6721SOL    HW122002   2.445   9.052   1.615
 6721SOL    HW222003   2.503   9.061   1.755
 6722SOL     OW22004   5.852   9.475  10.957
 6722SOL    HW122005   5.887   9.535  10.890
 6722SOL    HW222006   5.921   9.410  10.968
 6723SOL     OW22007   3.354  14.105  14.382
 6723SOL    HW122008   3.417  14.076  14.315
 6723SOL    HW222009   3.273  14.121  14.333
 6724SOL     OW22010   4.143   8.558   5.045
 6724SOL    HW122011   4.086   8.504   4.990
 6724SOL    HW222012   4.143   8.514   5.130
 6725SOL     OW22013   4.246   5.936   9.420
 6725SOL    HW122014   4.302   5.863   9.392
 6725SOL    HW222015   4.264   6.006   9.357
 6726SOL     OW22016  12.990   9.371   8.361
 6726SOL    HW122017  12.972   9.437   8.427
 6726SOL    HW222018  13.018   9.420   8.284
 6727SOL     OW22019   5.622  10.681  13.943
 6727SOL    HW122020   5.609  10.591  13.914
 6727SOL    HW222021   5.553  10.695  14.009
 6728SOL     OW22022   5.403   1.232  10.298
 6728SOL    HW122023   5.397   1.189  10.212
 6728SOL    HW222024   5.360   1.317  10.284
 6729SOL     OW22025  11.868   7.146   1.501
 6729SOL    HW122026  11.890   7.089   1.428
 6729SOL    HW222027  11.818   7.218   1.463
 6730SOL     OW22028   9.922   5.655   2.245
 6730SOL    HW122029  10.006   5.701   2.251
 6730SOL    HW222030   9.856   5.722   2.264
 6731SOL     OW22031   5.100  12.414  10.259
 6731SOL    HW122032   5.159  12.488  10.246
 6731SOL    HW222033   5.145  12.340  10.219
 6732SOL     OW22034   4.547   5.507   0.180
 6732SOL    HW122035   4.527   5.600   0.169
 6732SOL    HW222036   4.473   5.473   0.231
 6733SOL     OW22037   8.247   5.659   4.441
 6733SOL    HW122038   8.203   5.646   4.357
 6733SOL    HW222039   8.210   5.740   4.475
 6734SOL     OW22040   7.163   4.350   7.923
 6734SOL    HW122041   7.107   4.375   7.849
 6734SOL    HW222042   7.107   4.363   8.000
 6735SOL     OW22043  10.455  12.067  13.662
 6735SOL    HW122044  10.405  11.995  13.700
 6735SOL    HW222045  10.438  12.141  13.720
 6736SOL     OW22046  13.775   6.198   5.799
 6736SOL    HW122047  13.806   6.160   5.882
 6736SOL    HW222048  13.718   6.270   5.825
 6737SOL     OW22049   3.634   8.587   3.269
 6737SOL    HW122050   3.605   8.556   3.184
 6737SOL    HW222051   3.730   8.587   3.263
 6738SOL     OW22052   4.200   7.811  13.881
 6738SOL    HW122053   4.114   7.770  13.888
 6738SOL    HW222054   4.205   7.870  13.956
 6739SOL     OW22055  13.301   4.668  13.171
 6739SOL    HW122056  13.372   4.729  13.147
 6739SOL    HW222057  13.295   4.675  13.266
 6740SOL     OW22058   1.120   0.993   4.916
 6740SOL    HW122059   1.215   0.979   4.922
 6740SOL    HW222060   1.109   1.088   4.926
 6741SOL     OW22061   7.615   8.848   7.109
 6741SOL    HW122062   7.594   8.784   7.177
 6741SOL    HW222063   7.529   8.879   7.078
 6742SOL     OW22064  14.560  12.658   2.168
 6742SOL    HW122065  14.550  12.576   2.215
 6742SOL    HW222066  14.597  12.719   2.232
 6743SOL     OW22067  13.742   7.382   3.344
 6743SOL    HW122068  13.672   7.350   3.286
 6743SOL    HW222069  13.701   7.385   3.431
 6744SOL     OW22070   8.974  11.658   9.855
 6744SOL    HW122071   9.056  11.666   9.903
 6744SOL    HW222072   8.922  11.733   9.886
 6745SOL     OW22073   3.666  13.191   0.056
 6745SOL    HW122074   3.603  13.149  14.871
 6745SOL    HW222075   3.626  13.276   0.077
 6746SOL     OW22076   0.642   2.704  14.756
 6746SOL    HW122077   0.574   2.650  14.716
 6746SOL    HW222078   0.615   2.712  14.847
 6747SOL     OW22079   8.074   7.442   5.165
 6747SOL    HW122080   8.078   7.347   5.176
 6747SOL    HW222081   8.099   7.458   5.074
 6748SOL     OW22082  11.873  10.875  11.780
 6748SOL    HW122083  11.885  10.923  11.698
 6748SOL    HW222084  11.957  10.830  11.794
 6749SOL     OW22085   1.791   4.731   3.426
 6749SOL    HW122086   1.724   4.787   3.387
 6749SOL    HW222087   1.846   4.705   3.352
 6750SOL     OW22088   0.963   2.859   1.768
 6750SOL    HW122089   1.054   2.862   1.797
 6750SOL    HW222090   0.912   2.855   1.848
 6751SOL     OW22091   0.375   8.492  11.759
 6751SOL    HW122092   0.412   8.576  11.785
 6751SOL    HW222093   0.356   8.502  11.666
 6752SOL     OW22094   8.044  13.562  13.238
 6752SOL    HW122095   8.098  13.603  13.170
 6752SOL    HW222096   8.096  13.486  13.267
 6753SOL     OW22097   9.071  10.160  12.110
 6753SOL    HW122098   9.071  10.252  12.086
 6753SOL    HW222099   9.104  10.115  12.033
 6754SOL     OW22100   5.178   6.010   2.163
 6754SOL    HW122101   5.235   6.032   2.236
 6754SOL    HW222102   5.233   5.959   2.104
 6755SOL     OW22103   9.356   4.893   9.368
 6755SOL    HW122104   9.339   4.987   9.369
 6755SOL    HW222105   9.288   4.857   9.312
 6756SOL     OW22106   2.799  12.135   4.369
 6756SOL    HW122107   2.785  12.229   4.371
 6756SOL    HW222108   2.778  12.109   4.279
 6757SOL     OW22109   8.945   7.330  11.789
 6757SOL    HW122110   8.864   7.372  11.763
 6757SOL    HW222111   8.940   7.323  11.884
 6758SOL     OW22112   7.777   4.211  11.275
 6758SOL    HW122113   7.796   4.300  11.304
 6758SOL    HW222114   7.724   4.174  11.345
 6759SOL     OW22115   9.258   8.767  14.637
 6759SOL    HW122116   9.175   8.738  14.675
 6759SOL    HW222117   9.258   8.862  14.650
 6760SOL     OW22118   0.594   1.425   5.408
 6760SOL    HW122119   0.605   1.454   5.318
 6760SOL    HW222120   0.512   1.465   5.436
 6761SOL     OW22121  11.547  13.778   0.317
 6761SOL    HW122122  11.495  13.845   0.361
 6761SOL    HW222123  11.636  13.790   0.350
 6762SOL     OW22124   6.672   3.029   9.314
 6762SOL    HW122125   6.654   3.022   9.408
 6762SOL    HW222126   6.699   2.941   9.288
 6763SOL     OW22127   7.248   6.965  14.591
 6763SOL    HW122128   7.220   6.932  14.506
 6763SOL    HW222129   7.256   7.060  14.579
 6764SOL     OW22130   3.012  14.626  14.574
 6764SOL    HW122131   2.924  14.589  14.586
 6764SOL    HW222132   2.996  14.718  14.552
 6765SOL     OW22133   6.041   9.099   6.278
 6765SOL    HW122134   5.961   9.147   6.257
 6765SOL    HW222135   6.096   9.109   6.200
 6766SOL     OW22136   5.979  12.195  10.596
 6766SOL    HW122137   6.049  12.194  10.661
 6766SOL    HW222138   6.001  12.124  10.536
 6767SOL     OW22139   5.966   9.858   0.533
 6767SOL    HW122140   6.035   9.894   0.589
 6767SOL    HW222141   5.908   9.812   0.594
 6768SOL     OW22142  13.970   6.297   5.632
 6768SOL    HW122143  13.895   6.271   5.686
 6768SOL    HW222144  14.007   6.214   5.602
 6769SOL     OW22145   5.832   1.490   5.039
 6769SOL    HW122146   5.817   1.397   5.057
 6769SOL    HW222147   5.806   1.502   4.948
 6770SOL     OW22148  11.715   4.457  13.837
 6770SOL    HW122149  11.629   4.493  13.812
 6770SOL    HW222150  11.766   4.534  13.863
 6771SOL     OW22151   1.490   2.896   4.019
 6771SOL    HW122152   1.534   2.947   4.088
 6771SOL    HW222153   1.398   2.895   4.045
 6772SOL     OW22154  12.297   1.220  10.979
 6772SOL    HW122155  12.238   1.201  10.906
 6772SOL    HW222156  12.315   1.135  11.018
 6773SOL     OW22157   3.704   0.958   4.634
 6773SOL    HW122158   3.705   0.983   4.542
 6773SOL    HW222159   3.780   0.899   4.643
 6774SOL     OW22160  12.558  12.992  13.434
 6774SOL    HW122161  12.515  12.944  13.363
 6774SOL    HW222162  12.616  12.928  13.475
 6775SOL     OW22163   5.590  14.129  11.247
 6775SOL    HW122164   5.622  14.189  11.314
 6775SOL    HW222165   5.654  14.058  11.246
 6776SOL     OW22166   4.094  11.128   9.993
 6776SOL    HW122167   4.159  11.102  10.059
 6776SOL    HW222168   4.050  11.204  10.031
 6777SOL     OW22169  10.852   2.235  13.831
 6777SOL    HW122170  10.872   2.154  13.878
 6777SOL    HW222171  10.862   2.303  13.896
 6778SOL     OW22172   2.474   8.456  11.442
 6778SOL    HW122173   2.491   8.362  11.449
 6778SOL    HW222174   2.437   8.467  11.354
 6779SOL     OW22175   5.722  11.352   5.126
 6779SOL    HW122176   5.653  11.294   5.157
 6779SOL    HW222177   5.759  11.307   5.051
 6780SOL     OW22178   9.952   4.062   1.844
 6780SOL    HW122179  10.024   3.999   1.839
 6780SOL    HW222180   9.934   4.070   1.938
 6781SOL     OW22181  11.859   7.757   0.909
 6781SOL    HW122182  11.782   7.790   0.954
 6781SOL    HW222183  11.933   7.784   0.964
 6782SOL     OW22184   3.808  12.816  13.274
 6782SOL    HW122185   3.867  12.755  13.318
 6782SOL    HW222186   3.725  12.806  13.322
 6783SOL     OW22187   7.357   7.621   4.552
 6783SOL    HW122188   7.440   7.667   4.542
 6783SOL    HW222189   7.304   7.680   4.606
 6784SOL     OW22190   0.811   0.132   8.001
 6784SOL    HW122191   0.891   0.110   8.048
 6784SOL    HW222192   0.742   0.085   8.049
 6785SOL     OW22193  14.378   8.878   4.436
 6785SOL    HW122194  14.296   8.923   4.417
 6785SOL    HW222195  14.441   8.917   4.375
 6786SOL     OW22196   6.175  10.616  11.763
 6786SOL    HW122197   6.088  10.609  11.802
 6786SOL    HW222198   6.160  10.652  11.676
 6787SOL     OW22199   4.448  11.594  11.337
 6787SOL    HW122200   4.466  11.666  11.276
 6787SOL    HW222201   4.493  11.519  11.299
 6788SOL     OW22202   1.325   0.000   5.463
 6788SOL    HW122203   1.319  14.796   5.519
 6788SOL    HW222204   1.349   0.071   5.523
 6789SOL     OW22205  11.896   1.372  12.486
 6789SOL    HW122206  11.815   1.320  12.485
 6789SOL    HW222207  11.867   1.461  12.469
 6790SOL     OW22208   1.898  12.376   5.933
 6790SOL    HW122209   1.965  12.349   5.996
 6790SOL    HW222210   1.922  12.333   5.852
 6791SOL     OW22211   4.751   4.090   5.056
 6791SOL    HW122212   4.786   4.007   5.089
 6791SOL    HW222213   4.756   4.081   4.961
 6792SOL     OW22214   5.486   0.511   5.793
 6792SOL    HW122215   5.408   0.564   5.810
 6792SOL    HW222216   5.544   0.530   5.867
 6793SOL     OW22217   4.967   5.761  13.669
 6793SOL    HW122218   5.037   5.745  13.732
 6793SOL    HW222219   4.983   5.697  13.599
 6794SOL     OW22220  14.636  11.596   8.107
 6794SOL    HW122221  14.651  11.551   8.024
 6794SOL    HW222222  14.718  11.585   8.155
 6795SOL     OW22223  12.438  11.512  13.234
 6795SOL    HW122224  12.449  11.558  13.317
 6795SOL    HW222225  12.344  11.517  13.216
 6796SOL     OW22226   7.685   9.345   2.161
 6796SOL    HW122227   7.712   9.310   2.245
 6796SOL    HW222228   7.766   9.370   2.117
 6797SOL     OW22229   1.366   7.700   3.701
 6797SOL    HW122230   1.364   7.783   3.748
 6797SOL    HW222231   1.436   7.710   3.637
 6798SOL     OW22232  14.245   0.062   9.032
 6798SOL    HW122233  14.257   0.121   8.958
 6798SOL    HW222234  14.317  14.873   9.026
 6799SOL     OW22235   7.162   0.562   9.089
 6799SOL    HW122236   7.134   0.583   9.000
 6799SOL    HW222237   7.100   0.496   9.119
 6800SOL     OW22238   6.212  11.024   7.410
 6800SOL    HW122239   6.223  10.934   7.441
 6800SOL    HW222240   6.255  11.024   7.324
 6801SOL     OW22241   5.671  13.893   3.604
 6801SOL    HW122242   5.593  13.948   3.594
 6801SOL    HW222243   5.684  13.855   3.517
 6802SOL     OW22244   1.820  13.095   2.368
 6802SOL    HW122245   1.776  13.019   2.331
 6802SOL    HW222246   1.790  13.098   2.459
 6803SOL     OW22247   5.932   5.167  13.619
 6803SOL    HW122248   5.858   5.227  13.609
 6803SOL    HW222249   5.913   5.095  13.560
 6804SOL     OW22250   5.333  10.075   8.382
 6804SOL    HW122251   5.283  10.141   8.334
 6804SOL    HW222252   5.389  10.035   8.316
 6805SOL     OW22253   0.851  12.375   5.139
 6805SOL    HW122254   0.840  12.455   5.089
 6805SOL    HW222255   0.841  12.402   5.230
 6806SOL     OW22256  14.852   5.568   5.735
 6806SOL    HW122257   0.017   5.510   5.801
 6806SOL    HW222258   0.046   5.634   5.720
 6807SOL     OW22259   1.886   0.087   4.022
 6807SOL    HW122260   1.862   0.132   4.103
 6807SOL    HW222261   1.904   0.157   3.960
 6808SOL     OW22262   5.643  10.903   8.471
 6808SOL    HW122263   5.689  10.986   8.459
 6808SOL    HW222264   5.667  10.875   8.559
 6809SOL     OW22265  14.566   7.703  13.892
 6809SOL    HW122266  14.487   7.722  13.943
 6809SOL    HW222267  14.535   7.691  13.803
 6810SOL     OW22268  10.159   7.584  13.017
 6810SOL    HW122269  10.101   7.654  13.046
 6810SOL    HW222270  10.186   7.610  12.930
 6811SOL     OW22271  11.163   3.610   8.049
 6811SOL    HW122272  11.110   3.673   8.001
 6811SOL    HW222273  11.154   3.529   7.998
 6812SOL     OW22274   9.957  13.249   7.435
 6812SOL    HW122275  10.023  13.190   7.471
 6812SOL    HW222276  10.003  13.332   7.422
 6813SOL     OW22277   8.650  13.621   3.668
 6813SOL    HW122278   8.709  13.691   3.641
 6813SOL    HW222279   8.589  13.664   3.729
 6814SOL     OW22280   3.566   5.052   7.893
 6814SOL    HW122281   3.566   5.029   7.800
 6814SOL    HW222282   3.506   5.125   7.900
 6815SOL     OW22283  14.737   2.788  10.465
 6815SOL    HW122284  14.733   2.774  10.370
 6815SOL    HW222285  14.665   2.848  10.483
 6816SOL     OW22286   3.684   2.727   5.235
 6816SOL    HW122287   3.642   2.665   5.176
 6816SOL    HW222288   3.672   2.690   5.322
 6817SOL     OW22289   8.581   9.772  14.639
 6817SOL    HW122290   8.529   9.692  14.644
 6817SOL    HW222291   8.521   9.842  14.663
 6818SOL     OW22292  12.531   4.386   6.497
 6818SOL    HW122293  12.459   4.365   6.557
 6818SOL    HW222294  12.566   4.468   6.531
 6819SOL     OW22295   7.014  10.306   1.264
 6819SOL    HW122296   6.980  10.327   1.177
 6819SOL    HW222297   7.087  10.246   1.248
 6820SOL     OW22298   8.093  11.347  11.962
 6820SOL    HW122299   8.145  11.268  11.949
 6820SOL    HW222300   8.154  11.419  11.946
 6821SOL     OW22301   6.708  10.382  14.037
 6821SOL    HW122302   6.626  10.427  14.057
 6821SOL    HW222303   6.727  10.407  13.947
 6822SOL     OW22304   3.528  14.416   6.567
 6822SOL    HW122305   3.433  14.409   6.553
 6822SOL    HW222306   3.566  14.399   6.481
 6823SOL     OW22307   1.038   4.270   5.532
 6823SOL    HW122308   1.054   4.309   5.618
 6823SOL    HW222309   1.113   4.299   5.479
 6824SOL     OW22310  10.758  14.503  14.050
 6824SOL    HW122311  10.766  14.576  14.112
 6824SOL    HW222312  10.732  14.544  13.967
 6825SOL     OW22313   3.738   5.018  14.387
 6825SOL    HW122314   3.753   5.056  14.300
 6825SOL    HW222315   3.682   5.082  14.431
 6826SOL     OW22316   3.044  13.068  14.545
 6826SOL    HW122317   3.080  13.079  14.458
 6826SOL    HW222318   3.045  13.155  14.584
 6827SOL     OW22319  11.942   3.276  12.622
 6827SOL    HW122320  12.001   3.346  12.650
 6827SOL    HW222321  11.880   3.318  12.562
 6828SOL     OW22322   3.769   9.190  12.876
 6828SOL    HW122323   3.823   9.159  12.948
 6828SOL    HW222324   3.809   9.273  12.849
 6829SOL     OW22325   5.866  14.543   9.441
 6829SOL    HW122326   5.876  14.638   9.448
 6829SOL    HW222327   5.904  14.522   9.355
 6830SOL     OW22328   2.255  11.641   2.044
 6830SOL    HW122329   2.200  11.563   2.041
 6830SOL    HW222330   2.331  11.616   2.096
 6831SOL     OW22331   9.865  12.278  11.048
 6831SOL    HW122332   9.884  12.289  11.141
 6831SOL    HW222333   9.934  12.219  11.016
 6832SOL     OW22334   2.248   9.333   7.157
 6832SOL    HW122335   2.294   9.358   7.076
 6832SOL    HW222336   2.310   9.277   7.203
 6833SOL     OW22337   8.427   4.162   5.975
 6833SOL    HW122338   8.465   4.130   6.057
 6833SOL    HW222339   8.460   4.102   5.908
 6834SOL     OW22340  10.570   4.263   6.621
 6834SOL    HW122341  10.563   4.294   6.530
 6834SOL    HW222342  10.665   4.253   6.635
 6835SOL     OW22343   5.717   8.765   6.875
 6835SOL    HW122344   5.743   8.839   6.820
 6835SOL    HW222345   5.799   8.720   6.895
 6836SOL     OW22346  13.083  10.238  10.145
 6836SOL    HW122347  13.123  10.301  10.204
 6836SOL    HW222348  13.025  10.289  10.089
 6837SOL     OW22349   6.874   1.365   4.492
 6837SOL    HW122350   6.918   1.337   4.572
 6837SOL    HW222351   6.790   1.320   4.493
 6838SOL     OW22352  10.068   5.281  12.007
 6838SOL    HW122353  10.062   5.366  12.051
 6838SOL    HW222354   9.998   5.229  12.045
 6839SOL     OW22355  10.522   0.060   8.516
 6839SOL    HW122356  10.484   0.148   8.525
 6839SOL    HW222357  10.459   0.003   8.558
 6840SOL     OW22358  12.213   1.188   1.590
 6840SOL    HW122359  12.141   1.127   1.603
 6840SOL    HW222360  12.282   1.136   1.548
 6841SOL     OW22361   7.624   2.614   2.824
 6841SOL    HW122362   7.558   2.605   2.893
 6841SOL    HW222363   7.666   2.528   2.818
 6842SOL     OW22364  13.120   4.370  14.437
 6842SOL    HW122365  13.071   4.395  14.515
 6842SOL    HW222366  13.191   4.433  14.431
 6843SOL     OW22367  12.964   1.361   8.679
 6843SOL    HW122368  12.959   1.361   8.584
 6843SOL    HW222369  13.018   1.285   8.700
 6844SOL     OW22370  14.206  12.178   1.471
 6844SOL    HW122371  14.208  12.267   1.508
 6844SOL    HW222372  14.257  12.126   1.532
 6845SOL     OW22373   0.409   9.548   2.767
 6845SOL    HW122374   0.381   9.518   2.853
 6845SOL    HW222375   0.505   9.540   2.769
 6846SOL     OW22376   6.478   6.282   4.190
 6846SOL    HW122377   6.547   6.262   4.128
 6846SOL    HW222378   6.462   6.200   4.237
 6847SOL     OW22379   9.056   8.653   1.573
 6847SOL    HW122380   9.065   8.576   1.629
 6847SOL    HW222381   8.970   8.642   1.531
 6848SOL     OW22382  12.447   4.999   9.797
 6848SOL    HW122383  12.481   4.910   9.800
 6848SOL    HW222384  12.491   5.040   9.722
 6849SOL     OW22385   5.805  12.308   7.258
 6849SOL    HW122386   5.773  12.248   7.191
 6849SOL    HW222387   5.842  12.381   7.209
 6850SOL     OW22388   4.044  13.387   8.677
 6850SOL    HW122389   4.034  13.368   8.771
 6850SOL    HW222390   4.068  13.303   8.638
 6851SOL     OW22391   4.177  12.268  14.334
 6851SOL    HW122392   4.241  12.336  14.354
 6851SOL    HW222393   4.110  12.311  14.282
 6852SOL     OW22394   2.933   0.307   3.180
 6852SOL    HW122395   2.956   0.241   3.246
 6852SOL    HW222396   2.935   0.390   3.228
 6853SOL     OW22397  14.522   8.944   1.154
 6853SOL    HW122398  14.591   8.988   1.105
 6853SOL    HW222399  14.539   8.850   1.140
 6854SOL     OW22400  13.179   3.978   0.986
 6854SOL    HW122401  13.157   3.953   1.076
 6854SOL    HW222402  13.253   3.922   0.963
 6855SOL     OW22403   0.583   5.393   9.699
 6855SOL    HW122404   0.650   5.395   9.631
 6855SOL    HW222405   0.537   5.310   9.686
 6856SOL     OW22406   8.255   6.816  10.486
 6856SOL    HW122407   8.191   6.876  10.448
 6856SOL    HW222408   8.278   6.854  10.571
 6857SOL     OW22409  13.699  13.779   1.769
 6857SOL    HW122410  13.618  13.828   1.753
 6857SOL    HW222411  13.684  13.694   1.727
 6858SOL     OW22412  14.457   8.462   8.851
 6858SOL    HW122413  14.519   8.473   8.923
 6858SOL    HW222414  14.418   8.548   8.838
 6859SOL     OW22415  13.123   8.534   2.133
 6859SOL    HW122416  13.180   8.555   2.058
 6859SOL    HW222417  13.181   8.533   2.208
 6860SOL     OW22418   8.067   8.374  14.392
 6860SOL    HW122419   8.046   8.432  14.318
 6860SOL    HW222420   8.162   8.371  14.393
 6861SOL     OW22421   2.560  14.148   6.341
 6861SOL    HW122422   2.511  14.227   6.316
 6861SOL    HW222423   2.649  14.180   6.357
 6862SOL     OW22424  12.657  11.049   2.812
 6862SOL    HW122425  12.571  11.009   2.799
 6862SOL    HW222426  12.718  10.993   2.764
 6863SOL     OW22427  13.390  13.707   6.266
 6863SOL    HW122428  13.391  13.630   6.210
 6863SOL    HW222429  13.430  13.776   6.213
 6864SOL     OW22430  14.347   2.031   5.011
 6864SOL    HW122431  14.432   2.029   5.056
 6864SOL    HW222432  14.319   1.940   5.008
 6865SOL     OW22433  11.544   6.221   9.834
 6865SOL    HW122434  11.452   6.219   9.810
 6865SOL    HW222435  11.572   6.129   9.830
 6866SOL     OW22436   9.370  12.828  14.851
 6866SOL    HW122437   9.325  12.819  14.766
 6866SOL    HW222438   9.305  12.871   0.034
 6867SOL     OW22439   3.525   9.785   7.613
 6867SOL    HW122440   3.563   9.698   7.600
 6867SOL    HW222441   3.572   9.842   7.552
 6868SOL     OW22442   3.873   4.533   5.994
 6868SOL    HW122443   3.809   4.478   6.040
 6868SOL    HW222444   3.935   4.471   5.957
 6869SOL     OW22445   0.885  14.859   0.341
 6869SOL    HW122446   0.815   0.026   0.288
 6869SOL    HW222447   0.919  14.790   0.285
 6870SOL     OW22448   9.383   2.173  10.465
 6870SOL    HW122449   9.380   2.141  10.375
 6870SOL    HW222450   9.382   2.094  10.519
 6871SOL     OW22451  12.055   4.768   9.066
 6871SOL    HW122452  11.995   4.696   9.046
 6871SOL    HW222453  12.082   4.801   8.980
 6872SOL     OW22454   2.652   3.532   3.780
 6872SOL    HW122455   2.715   3.557   3.847
 6872SOL    HW222456   2.670   3.591   3.707
 6873SOL     OW22457   7.038   3.431   4.508
 6873SOL    HW122458   6.996   3.391   4.584
 6873SOL    HW222459   6.993   3.515   4.498
 6874SOL     OW22460   8.588   8.827   4.338
 6874SOL    HW122461   8.680   8.846   4.317
 6874SOL    HW222462   8.579   8.851   4.430
 6875SOL     OW22463  13.738   7.611   7.579
 6875SOL    HW122464  13.663   7.644   7.629
 6875SOL    HW222465  13.702   7.588   7.493
 6876SOL     OW22466   6.307   1.011   2.987
 6876SOL    HW122467   6.227   1.062   3.002
 6876SOL    HW222468   6.319   0.960   3.067
 6877SOL     OW22469   1.379   7.978  12.529
 6877SOL    HW122470   1.365   8.067  12.497
 6877SOL    HW222471   1.423   7.933  12.457
 6878SOL     OW22472   8.001   2.430   1.990
 6878SOL    HW122473   7.960   2.419   2.075
 6878SOL    HW222474   8.088   2.391   2.000
 6879SOL     OW22475   6.760  14.062   8.318
 6879SOL    HW122476   6.812  14.106   8.250
 6879SOL    HW222477   6.822  14.048   8.390
 6880SOL     OW22478   3.547   3.222   3.180
 6880SOL    HW122479   3.623   3.228   3.239
 6880SOL    HW222480   3.583   3.238   3.093
 6881SOL     OW22481  10.905   3.307   6.187
 6881SOL    HW122482  10.836   3.315   6.252
 6881SOL    HW222483  10.967   3.377   6.208
 6882SOL     OW22484   4.185  11.588   6.620
 6882SOL    HW122485   4.211  11.675   6.650
 6882SOL    HW222486   4.256  11.561   6.561
 6883SOL     OW22487   8.636  10.243  14.143
 6883SOL    HW122488   8.709  10.288  14.101
 6883SOL    HW222489   8.670  10.156  14.164
 6884SOL     OW22490  13.921   5.104   0.870
 6884SOL    HW122491  13.982   5.144   0.808
 6884SOL    HW222492  13.854   5.171   0.884
 6885SOL     OW22493  11.025  10.266   0.852
 6885SOL    HW122494  11.020  10.278   0.757
 6885SOL    HW222495  10.938  10.234   0.876
 6886SOL     OW22496   1.633   6.117   8.390
 6886SOL    HW122497   1.565   6.178   8.419
 6886SOL    HW222498   1.706   6.173   8.365
 6887SOL     OW22499   3.514   0.907  13.543
 6887SOL    HW122500   3.427   0.883  13.510
 6887SOL    HW222501   3.544   0.975  13.484
 6888SOL     OW22502   7.747   5.287  11.796
 6888SOL    HW122503   7.758   5.264  11.704
 6888SOL    HW222504   7.652   5.284  11.811
 6889SOL     OW22505   5.684   3.096   4.288
 6889SOL    HW122506   5.728   3.112   4.204
 6889SOL    HW222507   5.610   3.039   4.266
 6890SOL     OW22508   5.574   2.694  13.152
 6890SOL    HW122509   5.589   2.755  13.080
 6890SOL    HW222510   5.499   2.642  13.125
 6891SOL     OW22511   5.154   3.336   9.446
 6891SOL    HW122512   5.188   3.397   9.381
 6891SOL    HW222513   5.060   3.335   9.432
 6892SOL     OW22514   1.224   4.436   0.146
 6892SOL    HW122515   1.227   4.484   0.063
 6892SOL    HW222516   1.132   4.409   0.154
 6893SOL     OW22517   6.138  10.263  12.029
 6893SOL    HW122518   6.062  10.321  12.027
 6893SOL    HW222519   6.107  10.184  12.075
 6894SOL     OW22520  11.614  11.700   7.718
 6894SOL    HW122521  11.529  11.741   7.702
 6894SOL    HW222522  11.593  11.610   7.741
 6895SOL     OW22523   4.686  12.951   8.846
 6895SOL    HW122524   4.610  12.933   8.790
 6895SOL    HW222525   4.737  12.870   8.843
 6896SOL     OW22526   4.791   1.403   1.692
 6896SOL    HW122527   4.787   1.409   1.596
 6896SOL    HW222528   4.862   1.341   1.709
 6897SOL     OW22529   1.650   7.927   6.821
 6897SOL    HW122530   1.617   7.976   6.896
 6897SOL    HW222531   1.572   7.901   6.772
 6898SOL     OW22532   5.672   0.122  14.350
 6898SOL    HW122533   5.620   0.168  14.416
 6898SOL    HW222534   5.731   0.189  14.315
 6899SOL     OW22535   6.769   7.941   8.469
 6899SOL    HW122536   6.751   7.888   8.392
 6899SOL    HW222537   6.786   8.028   8.435
 6900SOL     OW22538  11.094  13.187  13.734
 6900SOL    HW122539  11.179  13.229  13.735
 6900SOL    HW222540  11.085  13.153  13.645
 6901SOL     OW22541   3.232  11.740   0.871
 6901SOL    HW122542   3.145  11.780   0.866
 6901SOL    HW222543   3.281  11.798   0.930
 6902SOL     OW22544   3.449  10.362   0.685
 6902SOL    HW122545   3.513  10.293   0.697
 6902SOL    HW222546   3.400  10.338   0.606
 6903SOL     OW22547   5.077  12.650   8.675
 6903SOL    HW122548   4.985  12.645   8.649
 6903SOL    HW222549   5.126  12.627   8.595
 6904SOL     OW22550   8.104   1.429  11.875
 6904SOL    HW122551   8.014   1.404  11.893
 6904SOL    HW222552   8.133   1.475  11.954
 6905SOL     OW22553   7.979   2.720  10.498
 6905SOL    HW122554   8.042   2.655  10.527
 6905SOL    HW222555   7.894   2.682  10.519
 6906SOL     OW22556   6.364   1.223   6.915
 6906SOL    HW122557   6.421   1.249   6.987
 6906SOL    HW222558   6.317   1.146   6.947
 6907SOL     OW22559   8.547   4.039   5.336
 6907SOL    HW122560   8.520   3.986   5.411
 6907SOL    HW222561   8.620   3.991   5.298
 6908SOL     OW22562   6.899  13.277   6.808
 6908SOL    HW122563   6.958  13.350   6.789
 6908SOL    HW222564   6.871  13.245   6.722
 6909SOL     OW22565   0.965  11.969   7.855
 6909SOL    HW122566   0.975  11.917   7.776
 6909SOL    HW222567   0.886  11.935   7.897
 6910SOL     OW22568   8.458  12.430   5.527
 6910SOL    HW122569   8.432  12.465   5.612
 6910SOL    HW222570   8.376  12.396   5.489
 6911SOL     OW22571   4.483   2.804  13.801
 6911SOL    HW122572   4.471   2.853  13.720
 6911SOL    HW222573   4.571   2.828  13.831
 6912SOL     OW22574  12.048   5.669  12.373
 6912SOL    HW122575  12.121   5.694  12.317
 6912SOL    HW222576  11.981   5.735  12.356
 6913SOL     OW22577   6.075   9.396   7.022
 6913SOL    HW122578   6.028   9.335   6.965
 6913SOL    HW222579   6.015   9.413   7.094
 6914SOL     OW22580   8.082  13.563   5.714
 6914SOL    HW122581   8.044  13.476   5.725
 6914SOL    HW222582   8.031  13.620   5.771
 6915SOL     OW22583   4.926   8.493  10.221
 6915SOL    HW122584   5.015   8.493  10.185
 6915SOL    HW222585   4.923   8.416  10.278
 6916SOL     OW22586  11.299  14.631   7.914
 6916SOL    HW122587  11.224  14.640   7.974
 6916SOL    HW222588  11.346  14.554   7.947
 6917SOL     OW22589   0.236   6.198  13.513
 6917SOL    HW122590   0.238   6.116  13.562
 6917SOL    HW222591   0.326   6.229  13.513
 6918SOL     OW22592   7.091   2.285   6.723
 6918SOL    HW122593   7.080   2.380   6.722
 6918SOL    HW222594   7.182   2.272   6.751
 6919SOL     OW22595   2.134  13.873   1.548
 6919SOL    HW122596   2.208  13.820   1.578
 6919SOL    HW222597   2.140  13.953   1.600
 6920SOL     OW22598  14.215  13.209   8.447
 6920SOL    HW122599  14.307  13.185   8.434
 6920SOL    HW222600  14.168  13.126   8.436
 6921SOL     OW22601   1.347   6.580  12.524
 6921SOL    HW122602   1.388   6.615  12.444
 6921SOL    HW222603   1.253   6.585  12.507
 6922SOL     OW22604   1.985   9.034  12.736
 6922SOL    HW122605   1.964   9.118  12.695
 6922SOL    HW222606   1.911   8.978  12.713
 6923SOL     OW22607   3.797   1.064   1.931
 6923SOL    HW122608   3.821   1.140   1.984
 6923SOL    HW222609   3.828   0.989   1.981
 6924SOL     OW22610  13.639   3.912   9.746
 6924SOL    HW122611  13.734   3.903   9.737
 6924SOL    HW222612  13.614   3.839   9.802
 6925SOL     OW22613   8.536   1.974   3.549
 6925SOL    HW122614   8.475   1.937   3.486
 6925SOL    HW222615   8.521   2.069   3.546
 6926SOL     OW22616   6.261   5.997  13.648
 6926SOL    HW122617   6.290   5.929  13.709
 6926SOL    HW222618   6.274   6.079  13.696
 6927SOL     OW22619   3.944  12.250   2.156
 6927SOL    HW122620   3.935  12.239   2.250
 6927SOL    HW222621   3.946  12.160   2.122
 6928SOL     OW22622   4.969   6.998   9.370
 6928SOL    HW122623   5.030   6.975   9.300
 6928SOL    HW222624   5.026   7.019   9.445
 6929SOL     OW22625   1.556  13.714   4.721
 6929SOL    HW122626   1.598  13.678   4.799
 6929SOL    HW222627   1.465  13.729   4.747
 6930SOL     OW22628  10.669  12.769  10.435
 6930SOL    HW122629  10.647  12.822  10.358
 6930SOL    HW222630  10.692  12.683  10.399
 6931SOL     OW22631  10.241  13.649   9.782
 6931SOL    HW122632  10.218  13.687   9.697
 6931SOL    HW222633  10.295  13.716   9.825
 6932SOL     OW22634   9.062  10.401   0.363
 6932SOL    HW122635   9.091  10.320   0.405
 6932SOL    HW222636   9.140  10.457   0.360
 6933SOL     OW22637   1.239   1.302   1.649
 6933SOL    HW122638   1.164   1.335   1.599
 6933SOL    HW222639   1.305   1.370   1.643
 6934SOL     OW22640   2.463   1.903   6.380
 6934SOL    HW122641   2.378   1.867   6.355
 6934SOL    HW222642   2.443   1.990   6.415
 6935SOL     OW22643   5.883   4.903   0.862
 6935SOL    HW122644   5.903   4.883   0.953
 6935SOL    HW222645   5.788   4.905   0.858
 6936SOL     OW22646  11.076   5.547   2.377
 6936SOL    HW122647  11.094   5.626   2.327
 6936SOL    HW222648  11.030   5.577   2.456
 6937SOL     OW22649   2.687   1.264   8.185
 6937SOL    HW122650   2.663   1.174   8.165
 6937SOL    HW222651   2.710   1.302   8.100
 6938SOL     OW22652  12.726   1.132   0.019
 6938SOL    HW122653  12.710   1.049   0.064
 6938SOL    HW222654  12.689   1.120  14.805
 6939SOL     OW22655  12.623  14.314  14.488
 6939SOL    HW122656  12.543  14.270  14.516
 6939SOL    HW222657  12.593  14.390  14.438
 6940SOL     OW22658  12.708  13.462   3.625
 6940SOL    HW122659  12.721  13.411   3.545
 6940SOL    HW222660  12.726  13.553   3.599
 6941SOL     OW22661   6.911   9.110  13.025
 6941SOL    HW122662   6.992   9.150  12.993
 6941SOL    HW222663   6.886   9.050  12.955
 6942SOL     OW22664  10.781  10.896   8.780
 6942SOL    HW122665  10.783  10.879   8.874
 6942SOL    HW222666  10.859  10.852   8.746
 6943SOL     OW22667   6.541   7.649   6.981
 6943SOL    HW122668   6.592   7.727   6.960
 6943SOL    HW222669   6.606   7.579   6.986
 6944SOL     OW22670  13.577   4.128   5.750
 6944SOL    HW122671  13.547   4.136   5.659
 6944SOL    HW222672  13.520   4.062   5.789
 6945SOL     OW22673   4.318  14.767   0.707
 6945SOL    HW122674   4.395  14.788   0.655
 6945SOL    HW222675   4.353  14.718   0.782
 6946SOL     OW22676   0.082   5.529   3.256
 6946SOL    HW122677   0.019   5.533   3.328
 6946SOL    HW222678   0.112   5.438   3.256
 6947SOL     OW22679   0.234   0.882   6.152
 6947SOL    HW122680   0.319   0.899   6.110
 6947SOL    HW222681   0.216   0.962   6.201
 6948SOL     OW22682  14.075  11.406   1.377
 6948SOL    HW122683  14.151  11.413   1.319
 6948SOL    HW222684  14.107  11.357   1.453
 6949SOL     OW22685  13.988   0.340   5.230
 6949SOL    HW122686  13.950   0.269   5.282
 6949SOL    HW222687  14.021   0.296   5.151
 6950SOL     OW22688   1.401   5.359  14.522
 6950SOL    HW122689   1.364   5.287  14.574
 6950SOL    HW222690   1.488   5.372  14.558
 6951SOL     OW22691   6.976  12.605   0.184
 6951SOL    HW122692   6.996  12.620   0.091
 6951SOL    HW222693   7.060  12.614   0.228
 6952SOL     OW22694   8.702  13.150   8.857
 6952SOL    HW122695   8.673  13.150   8.765
 6952SOL    HW222696   8.698  13.058   8.884
 6953SOL     OW22697  11.374  11.061   0.215
 6953SOL    HW122698  11.449  11.109   0.250
 6953SOL    HW222699  11.389  11.057   0.121
 6954SOL     OW22700   4.304   6.864   7.429
 6954SOL    HW122701   4.288   6.915   7.350
 6954SOL    HW222702   4.374   6.803   7.405
 6955SOL     OW22703   5.348   4.499   0.546
 6955SOL    HW122704   5.440   4.526   0.555
 6955SOL    HW222705   5.350   4.430   0.479
 6956SOL     OW22706  10.190   1.521   8.167
 6956SOL    HW122707  10.135   1.486   8.236
 6956SOL    HW222708  10.251   1.579   8.213
 6957SOL     OW22709   8.419   3.346  11.639
 6957SOL    HW122710   8.350   3.409  11.660
 6957SOL    HW222711   8.388   3.303  11.559
 6958SOL     OW22712  11.839   8.251  13.047
 6958SOL    HW122713  11.800   8.247  13.134
 6958SOL    HW222714  11.930   8.277  13.064
 6959SOL     OW22715   2.710   3.942   2.967
 6959SOL    HW122716   2.722   3.850   2.991
 6959SOL    HW222717   2.616   3.950   2.948
 6960SOL     OW22718   0.195  10.234   5.939
 6960SOL    HW122719   0.137  10.191   6.002
 6960SOL    HW222720   0.136  10.268   5.871
 6961SOL     OW22721   2.057   9.314  14.540
 6961SOL    HW122722   2.124   9.322  14.473
 6961SOL    HW222723   2.023   9.225  14.530
 6962SOL     OW22724   3.945   9.801   6.031
 6962SOL    HW122725   3.930   9.713   6.065
 6962SOL    HW222726   3.945   9.857   6.109
 6963SOL     OW22727   8.168  14.863  13.490
 6963SOL    HW122728   8.211   0.075  13.481
 6963SOL    HW222729   8.074   0.011  13.489
 6964SOL     OW22730  14.385  10.412   2.745
 6964SOL    HW122731  14.326  10.361   2.688
 6964SOL    HW222732  14.332  10.430   2.822
 6965SOL     OW22733  11.408  10.045   4.104
 6965SOL    HW122734  11.415  10.028   4.198
 6965SOL    HW222735  11.481  10.103   4.084
 6966SOL     OW22736   0.012  12.738   3.389
 6966SOL    HW122737  14.854  12.756   3.300
 6966SOL    HW222738   0.107  12.736   3.381
 6967SOL     OW22739   3.756   1.816  14.177
 6967SOL    HW122740   3.695   1.848  14.243
 6967SOL    HW222741   3.722   1.730  14.153
 6968SOL     OW22742  10.148   0.111  12.298
 6968SOL    HW122743  10.178   0.193  12.260
 6968SOL    HW222744  10.052   0.118  12.297
 6969SOL     OW22745  11.334   4.153  11.652
 6969SOL    HW122746  11.256   4.102  11.673
 6969SOL    HW222747  11.303   4.221  11.591
 6970SOL     OW22748  12.301   3.285  11.733
 6970SOL    HW122749  12.373   3.339  11.699
 6970SOL    HW222750  12.238   3.280  11.661
 6971SOL     OW22751   9.631   8.874   4.360
 6971SOL    HW122752   9.547   8.903   4.394
 6971SOL    HW222753   9.676   8.836   4.436
 6972SOL     OW22754   3.059   6.981  13.120
 6972SOL    HW122755   3.012   6.957  13.200
 6972SOL    HW222756   3.017   6.930  13.051
 6973SOL     OW22757   9.369   3.337   5.808
 6973SOL    HW122758   9.313   3.259   5.806
 6973SOL    HW222759   9.324   3.397   5.868
 6974SOL     OW22760   1.716  10.141   7.695
 6974SOL    HW122761   1.689  10.112   7.607
 6974SOL    HW222762   1.638  10.127   7.749
 6975SOL     OW22763   1.717   8.599   6.925
 6975SOL    HW122764   1.656   8.611   6.852
 6975SOL    HW222765   1.797   8.644   6.897
 6976SOL     OW22766  14.804   4.242   9.817
 6976SOL    HW122767  14.762   4.159   9.796
 6976SOL    HW222768   0.019   4.234   9.782
 6977SOL     OW22769   6.594   6.734   5.388
 6977SOL    HW122770   6.664   6.755   5.326
 6977SOL    HW222771   6.514   6.763   5.344
 6978SOL     OW22772  14.724   0.854  11.323
 6978SOL    HW122773  14.708   0.895  11.408
 6978SOL    HW222774  14.641   0.814  11.299
 6979SOL     OW22775   6.075   8.724  13.645
 6979SOL    HW122776   6.154   8.756  13.689
 6979SOL    HW222777   6.107   8.661  13.581
 6980SOL     OW22778   4.840  10.880   7.378
 6980SOL    HW122779   4.820  10.820   7.450
 6980SOL    HW222780   4.783  10.956   7.393
 6981SOL     OW22781   2.758   7.025  10.984
 6981SOL    HW122782   2.763   7.114  11.018
 6981SOL    HW222783   2.683   7.026  10.925
 6982SOL     OW22784   2.760   9.406   6.210
 6982SOL    HW122785   2.731   9.471   6.274
 6982SOL    HW222786   2.846   9.437   6.181
 6983SOL     OW22787   6.776  11.251   8.592
 6983SOL    HW122788   6.863  11.242   8.554
 6983SOL    HW222789   6.760  11.166   8.635
 6984SOL     OW22790   1.798   7.587   0.578
 6984SOL    HW122791   1.840   7.593   0.493
 6984SOL    HW222792   1.841   7.513   0.621
 6985SOL     OW22793  10.671  11.405   0.899
 6985SOL    HW122794  10.629  11.422   0.983
 6985SOL    HW222795  10.620  11.332   0.861
 6986SOL     OW22796   6.328  10.946  14.442
 6986SOL    HW122797   6.349  11.009  14.512
 6986SOL    HW222798   6.362  10.986  14.363
 6987SOL     OW22799   2.010   3.256  14.798
 6987SOL    HW122800   1.958   3.232  14.722
 6987SOL    HW222801   2.073   3.320  14.765
 6988SOL     OW22802   7.759  14.851   6.521
 6988SOL    HW122803   7.853  14.867   6.512
 6988SOL    HW222804   7.753  14.785   6.591
 6989SOL     OW22805   6.361   5.906  14.328
 6989SOL    HW122806   6.431   5.939  14.383
 6989SOL    HW222807   6.383   5.935  14.240
 6990SOL     OW22808   2.908   9.684   2.130
 6990SOL    HW122809   2.970   9.611   2.125
 6990SOL    HW222810   2.935   9.734   2.207
 6991SOL     OW22811  14.126   0.540   1.817
 6991SOL    HW122812  14.165   0.617   1.775
 6991SOL    HW222813  14.126   0.472   1.750
 6992SOL     OW22814  12.644   0.045   5.423
 6992SOL    HW122815  12.653   0.029   5.517
 6992SOL    HW222816  12.734   0.058   5.393
 6993SOL     OW22817   1.921  11.683   3.859
 6993SOL    HW122818   1.892  11.660   3.947
 6993SOL    HW222819   1.916  11.779   3.856
 6994SOL     OW22820  11.277   3.386   8.912
 6994SOL    HW122821  11.194   3.415   8.875
 6994SOL    HW222822  11.336   3.461   8.898
 6995SOL     OW22823   9.303   2.640  10.198
 6995SOL    HW122824   9.360   2.616  10.271
 6995SOL    HW222825   9.355   2.622  10.119
 6996SOL     OW22826   0.329   2.032   6.125
 6996SOL    HW122827   0.255   1.976   6.148
 6996SOL    HW222828   0.366   1.992   6.046
 6997SOL     OW22829   8.359   8.903  14.182
 6997SOL    HW122830   8.310   8.976  14.221
 6997SOL    HW222831   8.346   8.830  14.242
 6998SOL     OW22832   9.709   7.650   6.584
 6998SOL    HW122833   9.681   7.712   6.652
 6998SOL    HW222834   9.786   7.691   6.545
 6999SOL     OW22835   8.734   0.842  11.817
 6999SOL    HW122836   8.666   0.863  11.754
 6999SOL    HW222837   8.706   0.884  11.898
 7000SOL     OW22838   1.650  11.165  10.417
 7000SOL    HW122839   1.564  11.168  10.460
 7000SOL    HW222840   1.713  11.165  10.489
 7001SOL     OW22841   5.329   4.289   0.338
 7001SOL    HW122842   5.259   4.227   0.317
 7001SOL    HW222843   5.410   4.238   0.330
 7002SOL     OW22844   5.120   0.257  11.958
 7002SOL    HW122845   5.064   0.318  11.910
 7002SOL    HW222846   5.197   0.246  11.902
 7003SOL     OW22847   7.663   1.100   0.773
 7003SOL    HW122848   7.752   1.067   0.789
 7003SOL    HW222849   7.653   1.171   0.837
 7004SOL     OW22850   9.280   0.572   9.092
 7004SOL    HW122851   9.291   0.477   9.090
 7004SOL    HW222852   9.368   0.606   9.110
 7005SOL     OW22853   5.403   5.075   4.615
 7005SOL    HW122854   5.450   5.056   4.696
 7005SOL    HW222855   5.331   5.133   4.642
 7006SOL     OW22856   9.732   6.621  14.519
 7006SOL    HW122857   9.786   6.611  14.598
 7006SOL    HW222858   9.652   6.663  14.551
 7007SOL     OW22859  14.140   0.161   2.178
 7007SOL    HW122860  14.158   0.252   2.200
 7007SOL    HW222861  14.101   0.164   2.091
 7008SOL     OW22862   7.630  14.534   7.091
 7008SOL    HW122863   7.672  14.463   7.043
 7008SOL    HW222864   7.536  14.519   7.080
 7009SOL     OW22865   5.279   4.234   5.828
 7009SOL    HW122866   5.224   4.296   5.780
 7009SOL    HW222867   5.244   4.235   5.917
 7010SOL     OW22868   2.607  11.824   9.880
 7010SOL    HW122869   2.631  11.912   9.853
 7010SOL    HW222870   2.600  11.774   9.799
 7011SOL     OW22871   4.575  10.297   1.716
 7011SOL    HW122872   4.504  10.298   1.652
 7011SOL    HW222873   4.628  10.221   1.693
 7012SOL     OW22874   7.440   0.835   6.412
 7012SOL    HW122875   7.410   0.914   6.367
 7012SOL    HW222876   7.511   0.865   6.469
 7013SOL     OW22877   1.928  11.185   4.409
 7013SOL    HW122878   1.884  11.256   4.362
 7013SOL    HW222879   1.986  11.229   4.471
 7014SOL     OW22880   4.955  12.702   4.571
 7014SOL    HW122881   5.049  12.685   4.568
 7014SOL    HW222882   4.943  12.783   4.520
 7015SOL     OW22883   8.903  14.467   8.767
 7015SOL    HW122884   8.881  14.461   8.860
 7015SOL    HW222885   8.922  14.560   8.753
 7016SOL     OW22886   2.961   1.052   8.847
 7016SOL    HW122887   3.020   1.119   8.881
 7016SOL    HW222888   2.986   1.043   8.755
 7017SOL     OW22889   2.162   3.624  14.333
 7017SOL    HW122890   2.227   3.646  14.399
 7017SOL    HW222891   2.165   3.528  14.329
 7018SOL     OW22892   6.771  12.202  14.274
 7018SOL    HW122893   6.751  12.132  14.211
 7018SOL    HW222894   6.686  12.243  14.292
 7019SOL     OW22895   3.352   2.972   9.099
 7019SOL    HW122896   3.435   3.018   9.109
 7019SOL    HW222897   3.299   3.030   9.043
 7020SOL     OW22898   0.393   7.296   4.405
 7020SOL    HW122899   0.455   7.369   4.417
 7020SOL    HW222900   0.444   7.218   4.427
 7021SOL     OW22901  10.206   2.736   5.963
 7021SOL    HW122902  10.179   2.644   5.959
 7021SOL    HW222903  10.266   2.747   5.889
 7022SOL     OW22904   5.351  12.285  10.642
 7022SOL    HW122905   5.270  12.314  10.600
 7022SOL    HW222906   5.322  12.232  10.716
 7023SOL     OW22907   0.840   5.284   7.012
 7023SOL    HW122908   0.906   5.226   6.974
 7023SOL    HW222909   0.759   5.262   6.967
 7024SOL     OW22910   5.505  10.851   9.174
 7024SOL    HW122911   5.466  10.813   9.094
 7024SOL    HW222912   5.478  10.791   9.244
 7025SOL     OW22913  13.141   3.304   9.937
 7025SOL    HW122914  13.177   3.220   9.911
 7025SOL    HW222915  13.183   3.324  10.020
 7026SOL     OW22916   9.629   5.576   6.609
 7026SOL    HW122917   9.712   5.620   6.595
 7026SOL    HW222918   9.607   5.593   6.700
 7027SOL     OW22919   4.256   6.430   7.404
 7027SOL    HW122920   4.330   6.455   7.349
 7027SOL    HW222921   4.294   6.416   7.491
 7028SOL     OW22922   3.487  13.415   0.612
 7028SOL    HW122923   3.412  13.405   0.670
 7028SOL    HW222924   3.564  13.400   0.667
 7029SOL     OW22925   0.657  14.111   4.487
 7029SOL    HW122926   0.588  14.045   4.486
 7029SOL    HW222927   0.737  14.063   4.509
 7030SOL     OW22928   5.048   5.891  11.809
 7030SOL    HW122929   5.069   5.883  11.902
 7030SOL    HW222930   4.999   5.811  11.788
 7031SOL     OW22931  12.290   3.257   8.133
 7031SOL    HW122932  12.217   3.303   8.176
 7031SOL    HW222933  12.253   3.224   8.051
 7032SOL     OW22934   5.979  10.168   7.733
 7032SOL    HW122935   6.045  10.196   7.797
 7032SOL    HW222936   5.996  10.075   7.719
 7033SOL     OW22937   3.185  10.526  10.757
 7033SOL    HW122938   3.187  10.437  10.794
 7033SOL    HW222939   3.128  10.575  10.815
 7034SOL     OW22940   2.540   0.143   3.395
 7034SOL    HW122941   2.459   0.157   3.345
 7034SOL    HW222942   2.606   0.123   3.329
 7035SOL     OW22943  10.453  13.620  13.419
 7035SOL    HW122944  10.380  13.668  13.379
 7035SOL    HW222945  10.440  13.630  13.513
 7036SOL     OW22946   3.335   4.483  12.044
 7036SOL    HW122947   3.388   4.404  12.036
 7036SOL    HW222948   3.386   4.542  12.099
 7037SOL     OW22949   8.273   8.586  13.573
 7037SOL    HW122950   8.324   8.514  13.538
 7037SOL    HW222951   8.237   8.552  13.655
 7038SOL     OW22952   3.768  14.187   4.581
 7038SOL    HW122953   3.714  14.109   4.566
 7038SOL    HW222954   3.853  14.165   4.544
 7039SOL     OW22955   1.309   5.191   2.811
 7039SOL    HW122956   1.215   5.173   2.819
 7039SOL    HW222957   1.315   5.250   2.736
 7040SOL     OW22958   1.829  14.527   3.223
 7040SOL    HW122959   1.802  14.539   3.314
 7040SOL    HW222960   1.770  14.460   3.189
 7041SOL     OW22961   6.739   2.255   8.012
 7041SOL    HW122962   6.767   2.168   7.985
 7041SOL    HW222963   6.704   2.295   7.933
 7042SOL     OW22964  10.299  13.132   6.563
 7042SOL    HW122965  10.328  13.205   6.509
 7042SOL    HW222966  10.216  13.161   6.600
 7043SOL     OW22967   6.179  12.165  13.428
 7043SOL    HW122968   6.233  12.196  13.355
 7043SOL    HW222969   6.113  12.232  13.440
 7044SOL     OW22970   0.273   6.231  14.847
 7044SOL    HW122971   0.251   6.139  14.864
 7044SOL    HW222972   0.357   6.245   0.017
 7045SOL     OW22973   7.645   1.853   1.708
 7045SOL    HW122974   7.553   1.864   1.732
 7045SOL    HW222975   7.676   1.943   1.694
 7046SOL     OW22976   8.620   0.017  11.771
 7046SOL    HW122977   8.701  14.839  11.769
 7046SOL    HW222978   8.629   0.078  11.698
 7047SOL     OW22979   0.516   4.436   2.201
 7047SOL    HW122980   0.449   4.421   2.135
 7047SOL    HW222981   0.476   4.499   2.262
 7048SOL     OW22982  13.664   6.823   3.266
 7048SOL    HW122983  13.708   6.761   3.208
 7048SOL    HW222984  13.640   6.772   3.343
 7049SOL     OW22985   9.853   1.259   6.988
 7049SOL    HW122986   9.879   1.207   6.912
 7049SOL    HW222987   9.778   1.309   6.959
 7050SOL     OW22988   3.213  10.254  12.240
 7050SOL    HW122989   3.209  10.165  12.274
 7050SOL    HW222990   3.138  10.299  12.280
 7051SOL     OW22991   9.812   2.789   7.925
 7051SOL    HW122992   9.768   2.738   7.858
 7051SOL    HW222993   9.888   2.736   7.950
 7052SOL     OW22994   9.074  14.202  11.770
 7052SOL    HW122995   8.998  14.194  11.713
 7052SOL    HW222996   9.133  14.262  11.724
 7053SOL     OW22997   6.024   1.868   1.326
 7053SOL    HW122998   6.067   1.935   1.272
 7053SOL    HW222999   6.001   1.799   1.264
 7054SOL     OW23000   6.474  10.721  10.133
 7054SOL    HW123001   6.402  10.692  10.077
 7054SOL    HW223002   6.432  10.738  10.218
 7055SOL     OW23003   5.618   3.856  10.243
 7055SOL    HW123004   5.555   3.829  10.310
 7055SOL    HW223005   5.649   3.942  10.273
 7056SOL     OW23006   8.483   8.949   2.971
 7056SOL    HW123007   8.414   8.927   3.033
 7056SOL    HW223008   8.552   8.885   2.988
 7057SOL     OW23009  12.402   4.263   7.918
 7057SOL    HW123010  12.388   4.357   7.909
 7057SOL    HW223011  12.313   4.227   7.924
 7058SOL     OW23012  14.578   4.517  11.186
 7058SOL    HW123013  14.647   4.451  11.196
 7058SOL    HW223014  14.594   4.579  11.257
 7059SOL     OW23015  10.606  10.243   2.855
 7059SOL    HW123016  10.662  10.319   2.834
 7059SOL    HW223017  10.662  10.167   2.837
 7060SOL     OW23018  10.085   4.389   4.666
 7060SOL    HW123019  10.140   4.416   4.740
 7060SOL    HW223020  10.003   4.360   4.706
 7061SOL     OW23021   4.219  11.599   7.651
 7061SOL    HW123022   4.139  11.551   7.671
 7061SOL    HW223023   4.252  11.627   7.737
 7062SOL     OW23024   7.832   0.717  14.793
 7062SOL    HW123025   7.825   0.668   0.002
 7062SOL    HW223026   7.858   0.652  14.728
 7063SOL     OW23027   6.472   3.644   2.801
 7063SOL    HW123028   6.445   3.721   2.751
 7063SOL    HW223029   6.404   3.579   2.783
 7064SOL     OW23030   4.311  12.206   4.394
 7064SOL    HW123031   4.255  12.128   4.391
 7064SOL    HW223032   4.320  12.233   4.303
 7065SOL     OW23033  13.279   7.622  13.675
 7065SOL    HW123034  13.360   7.653  13.715
 7065SOL    HW223035  13.223   7.598  13.749
 7066SOL     OW23036   7.258  12.447   9.180
 7066SOL    HW123037   7.238  12.441   9.273
 7066SOL    HW223038   7.213  12.372   9.141
 7067SOL     OW23039  14.138   7.179   5.909
 7067SOL    HW123040  14.053   7.215   5.932
 7067SOL    HW223041  14.183   7.169   5.993
 7068SOL     OW23042   0.470  12.843   5.659
 7068SOL    HW123043   0.528  12.796   5.599
 7068SOL    HW223044   0.465  12.786   5.736
 7069SOL     OW23045   0.967   2.973   4.735
 7069SOL    HW123046   0.920   2.933   4.663
 7069SOL    HW223047   1.034   3.027   4.693
 7070SOL     OW23048   6.796  14.420  10.560
 7070SOL    HW123049   6.828  14.476  10.490
 7070SOL    HW223050   6.874  14.383  10.600
 7071SOL     OW23051  13.253  13.663  10.012
 7071SOL    HW123052  13.345  13.688  10.019
 7071SOL    HW223053  13.205  13.743  10.032
 7072SOL     OW23054   5.029   7.731   8.826
 7072SOL    HW123055   4.997   7.672   8.757
 7072SOL    HW223056   4.955   7.740   8.885
 7073SOL     OW23057   1.000   2.199   4.246
 7073SOL    HW123058   1.091   2.202   4.276
 7073SOL    HW223059   0.949   2.216   4.325
 7074SOL     OW23060   4.749   8.071  13.369
 7074SOL    HW123061   4.692   8.081  13.445
 7074SOL    HW223062   4.690   8.053  13.296
 7075SOL     OW23063   1.095   3.061  10.588
 7075SOL    HW123064   1.148   2.987  10.616
 7075SOL    HW223065   1.032   3.074  10.658
 7076SOL     OW23066   4.469  12.694   6.695
 7076SOL    HW123067   4.416  12.701   6.616
 7076SOL    HW223068   4.515  12.778   6.700
 7077SOL     OW23069   6.874   3.682   6.058
 7077SOL    HW123070   6.852   3.609   6.116
 7077SOL    HW223071   6.808   3.748   6.076
 7078SOL     OW23072  14.053   1.169   1.664
 7078SOL    HW123073  14.124   1.233   1.665
 7078SOL    HW223074  14.085   1.097   1.718
 7079SOL     OW23075   7.290  14.775   3.006
 7079SOL    HW123076   7.267  14.714   2.936
 7079SOL    HW223077   7.267  14.861   2.973
 7080SOL     OW23078  11.074   3.497   4.614
 7080SOL    HW123079  11.069   3.577   4.667
 7080SOL    HW223080  11.007   3.508   4.547
 7081SOL     OW23081   1.809  10.794   1.084
 7081SOL    HW123082   1.897  10.786   1.122
 7081SOL    HW223083   1.800  10.716   1.029
 7082SOL     OW23084   8.795   2.909   8.220
 7082SOL    HW123085   8.772   2.821   8.190
 7082SOL    HW223086   8.843   2.895   8.302
 7083SOL     OW23087   5.059   2.637   6.248
 7083SOL    HW123088   4.976   2.594   6.268
 7083SOL    HW223089   5.126   2.572   6.269
 7084SOL     OW23090  12.020  10.253   1.945
 7084SOL    HW123091  11.987  10.230   2.032
 7084SOL    HW223092  12.098  10.199   1.934
 7085SOL     OW23093   5.198   4.119  13.308
 7085SOL    HW123094   5.147   4.091  13.384
 7085SOL    HW223095   5.133   4.152  13.246
 7086SOL     OW23096   6.754   2.320  13.546
 7086SOL    HW123097   6.741   2.404  13.591
 7086SOL    HW223098   6.844   2.325  13.513
 7087SOL     OW23099   2.926  11.236   6.851
 7087SOL    HW123100   2.871  11.180   6.906
 7087SOL    HW223101   2.881  11.321   6.850
 7088SOL     OW23102   9.711   0.551   2.024
 7088SOL    HW123103   9.733   0.467   2.065
 7088SOL    HW223104   9.615   0.551   2.021
 7089SOL     OW23105   3.237  10.145   3.451
 7089SOL    HW123106   3.261  10.211   3.386
 7089SOL    HW223107   3.277  10.176   3.532
 7090SOL     OW23108  14.126  12.907  12.172
 7090SOL    HW123109  14.121  12.851  12.094
 7090SOL    HW223110  14.064  12.869  12.233
 7091SOL     OW23111   5.994  11.479   9.680
 7091SOL    HW123112   5.948  11.523   9.752
 7091SOL    HW223113   6.083  11.467   9.712
 7092SOL     OW23114  12.556   3.201   5.958
 7092SOL    HW123115  12.574   3.107   5.965
 7092SOL    HW223116  12.630   3.243   6.003
 7093SOL     OW23117  10.354  10.395   2.916
 7093SOL    HW123118  10.294  10.344   2.971
 7093SOL    HW223119  10.424  10.335   2.895
 7094SOL     OW23120   3.206  11.922  12.043
 7094SOL    HW123121   3.219  11.863  11.968
 7094SOL    HW223122   3.118  11.958  12.030
 7095SOL     OW23123  13.873   1.717   5.052
 7095SOL    HW123124  13.862   1.686   5.142
 7095SOL    HW223125  13.855   1.640   4.998
 7096SOL     OW23126   1.760  11.037   8.919
 7096SOL    HW123127   1.762  10.942   8.929
 7096SOL    HW223128   1.828  11.069   8.978
 7097SOL     OW23129   6.432   3.431   7.376
 7097SOL    HW123130   6.519   3.461   7.347
 7097SOL    HW223131   6.413   3.356   7.320
 7098SOL     OW23132  13.292   0.952   0.902
 7098SOL    HW123133  13.306   1.037   0.944
 7098SOL    HW223134  13.334   0.960   0.817
 7099SOL     OW23135   9.080   8.482  11.731
 7099SOL    HW123136   9.050   8.415  11.669
 7099SOL    HW223137   9.012   8.549  11.729
 7100SOL     OW23138   5.178  10.624   6.184
 7100SOL    HW123139   5.206  10.552   6.240
 7100SOL    HW223140   5.148  10.582   6.103
 7101SOL     OW23141   4.594   5.992   0.804
 7101SOL    HW123142   4.511   6.035   0.785
 7101SOL    HW223143   4.661   6.058   0.784
 7102SOL     OW23144  13.108   0.154   5.490
 7102SOL    HW123145  13.194   0.192   5.471
 7102SOL    HW223146  13.123   0.099   5.566
 7103SOL     OW23147  14.463  10.866   6.083
 7103SOL    HW123148  14.497  10.905   6.002
 7103SOL    HW223149  14.469  10.937   6.148
 7104SOL     OW23150   9.650  13.365  12.638
 7104SOL    HW123151   9.644  13.452  12.677
 7104SOL    HW223152   9.717  13.373  12.571
 7105SOL     OW23153  14.387   8.777   5.483
 7105SOL    HW123154  14.432   8.838   5.425
 7105SOL    HW223155  14.429   8.790   5.568
 7106SOL     OW23156   1.088  12.299   8.069
 7106SOL    HW123157   1.063  12.372   8.012
 7106SOL    HW223158   1.166  12.330   8.115
 7107SOL     OW23159  11.704  11.418   7.207
 7107SOL    HW123160  11.727  11.413   7.299
 7107SOL    HW223161  11.685  11.327   7.182
 7108SOL     OW23162   0.327  10.704   2.847
 7108SOL    HW123163   0.351  10.661   2.765
 7108SOL    HW223164   0.350  10.640   2.914
 7109SOL     OW23165   4.298  11.529  14.865
 7109SOL    HW123166   4.274  11.505   0.081
 7109SOL    HW223167   4.234  11.486  14.809
 7110SOL     OW23168   9.634  12.836  10.374
 7110SOL    HW123169   9.599  12.762  10.324
 7110SOL    HW223170   9.709  12.799  10.420
 7111SOL     OW23171  13.424   0.981   0.637
 7111SOL    HW123172  13.386   1.029   0.564
 7111SOL    HW223173  13.482   0.916   0.596
 7112SOL     OW23174   5.649   1.932   8.420
 7112SOL    HW123175   5.744   1.940   8.428
 7112SOL    HW223176   5.615   2.010   8.463
 7113SOL     OW23177   3.441   1.755  11.860
 7113SOL    HW123178   3.436   1.848  11.841
 7113SOL    HW223179   3.534   1.737  11.870
 7114SOL     OW23180  10.327   9.332   8.898
 7114SOL    HW123181  10.401   9.279   8.929
 7114SOL    HW223182  10.297   9.289   8.819
 7115SOL     OW23183  12.801   0.111   9.078
 7115SOL    HW123184  12.825   0.023   9.052
 7115SOL    HW223185  12.883   0.160   9.079
 7116SOL     OW23186   1.534  13.962   3.750
 7116SOL    HW123187   1.606  14.024   3.736
 7116SOL    HW223188   1.534  13.906   3.672
 7117SOL     OW23189  12.250  13.266   7.311
 7117SOL    HW123190  12.289  13.224   7.387
 7117SOL    HW223191  12.193  13.200   7.273
 7118SOL     OW23192   5.653   2.312   5.043
 7118SOL    HW123193   5.722   2.370   5.011
 7118SOL    HW223194   5.617   2.357   5.119
 7119SOL     OW23195   4.049   4.211   8.095
 7119SOL    HW123196   3.976   4.169   8.141
 7119SOL    HW223197   4.113   4.230   8.163
 7120SOL     OW23198   5.914   9.002   5.384
 7120SOL    HW123199   5.823   8.970   5.379
 7120SOL    HW223200   5.905   9.097   5.387
 7121SOL     OW23201  11.005   0.074   1.185
 7121SOL    HW123202  10.942   0.115   1.245
 7121SOL    HW223203  11.081   0.055   1.240
 7122SOL     OW23204   6.865   7.869   0.382
 7122SOL    HW123205   6.873   7.961   0.358
 7122SOL    HW223206   6.838   7.824   0.302
 7123SOL     OW23207   7.807  11.486   5.848
 7123SOL    HW123208   7.874  11.435   5.803
 7123SOL    HW223209   7.786  11.435   5.926
 7124SOL     OW23210  13.817   8.628   4.541
 7124SOL    HW123211  13.779   8.540   4.548
 7124SOL    HW223212  13.825   8.658   4.631
 7125SOL     OW23213   7.840  13.233  14.145
 7125SOL    HW123214   7.868  13.322  14.125
 7125SOL    HW223215   7.887  13.178  14.083
 7126SOL     OW23216   2.396   0.568   7.149
 7126SOL    HW123217   2.462   0.609   7.204
 7126SOL    HW223218   2.314   0.612   7.171
 7127SOL     OW23219   3.846   7.810  10.492
 7127SOL    HW123220   3.852   7.799  10.397
 7127SOL    HW223221   3.937   7.822  10.520
 7128SOL     OW23222   7.388   1.571   3.646
 7128SOL    HW123223   7.385   1.611   3.559
 7128SOL    HW223224   7.366   1.643   3.706
 7129SOL     OW23225  12.261   4.816  12.255
 7129SOL    HW123226  12.248   4.783  12.166
 7129SOL    HW223227  12.173   4.825  12.291
 7130SOL     OW23228  10.338   0.191   1.097
 7130SOL    HW123229  10.249   0.217   1.123
 7130SOL    HW223230  10.376   0.154   1.177
 7131SOL     OW23231   3.979  12.365   7.558
 7131SOL    HW123232   3.891  12.390   7.529
 7131SOL    HW223233   3.991  12.414   7.640
 7132SOL     OW23234   1.632   4.063   1.518
 7132SOL    HW123235   1.577   4.017   1.455
 7132SOL    HW223236   1.623   4.155   1.496
 7133SOL     OW23237   8.283   0.937  11.849
 7133SOL    HW123238   8.190   0.960  11.841
 7133SOL    HW223239   8.315   0.991  11.921
 7134SOL     OW23240   2.467  10.806   4.808
 7134SOL    HW123241   2.435  10.883   4.761
 7134SOL    HW223242   2.403  10.738   4.788
 7135SOL     OW23243   7.811   0.713  11.242
 7135SOL    HW123244   7.838   0.683  11.329
 7135SOL    HW223245   7.774   0.635  11.200
 7136SOL     OW23246  12.732   1.260   3.388
 7136SOL    HW123247  12.705   1.350   3.372
 7136SOL    HW223248  12.723   1.249   3.483
 7137SOL     OW23249  12.478  11.576  14.051
 7137SOL    HW123250  12.477  11.600  14.144
 7137SOL    HW223251  12.397  11.527  14.038
 7138SOL     OW23252   1.868   3.620  14.354
 7138SOL    HW123253   1.807   3.547  14.346
 7138SOL    HW223254   1.868   3.640  14.448
 7139SOL     OW23255   8.361  13.056   8.050
 7139SOL    HW123256   8.358  12.965   8.018
 7139SOL    HW223257   8.347  13.049   8.144
 7140SOL     OW23258   6.460  10.922   3.272
 7140SOL    HW123259   6.451  11.011   3.307
 7140SOL    HW223260   6.439  10.865   3.346
 7141SOL     OW23261  12.276   2.379   9.956
 7141SOL    HW123262  12.190   2.416   9.933
 7141SOL    HW223263  12.318   2.363   9.872
 7142SOL     OW23264  11.602   8.527   9.610
 7142SOL    HW123265  11.653   8.569   9.540
 7142SOL    HW223266  11.512   8.553   9.593
 7143SOL     OW23267  10.957  12.771  11.251
 7143SOL    HW123268  10.982  12.699  11.193
 7143SOL    HW223269  11.003  12.753  11.333
 7144SOL     OW23270   7.064   9.758   1.835
 7144SOL    HW123271   7.088   9.668   1.812
 7144SOL    HW223272   7.073   9.762   1.930
 7145SOL     OW23273   0.852  11.227  10.957
 7145SOL    HW123274   0.905  11.307  10.960
 7145SOL    HW223275   0.790  11.236  11.030
 7146SOL     OW23276   6.949   1.237   1.885
 7146SOL    HW123277   6.922   1.319   1.844
 7146SOL    HW223278   6.866   1.197   1.914
 7147SOL     OW23279   7.878   6.795   8.791
 7147SOL    HW123280   7.921   6.810   8.875
 7147SOL    HW223281   7.864   6.882   8.755
 7148SOL     OW23282  14.593   6.355   9.491
 7148SOL    HW123283  14.505   6.349   9.527
 7148SOL    HW223284  14.633   6.271   9.511
 7149SOL     OW23285   9.235   9.285   6.091
 7149SOL    HW123286   9.236   9.219   6.159
 7149SOL    HW223287   9.229   9.236   6.009
 7150SOL     OW23288   7.659   4.495   0.754
 7150SOL    HW123289   7.600   4.424   0.732
 7150SOL    HW223290   7.647   4.559   0.684
 7151SOL     OW23291  13.276   4.800   2.648
 7151SOL    HW123292  13.339   4.848   2.593
 7151SOL    HW223293  13.191   4.837   2.625
 7152SOL     OW23294   5.003   1.097  10.370
 7152SOL    HW123295   4.968   1.012  10.344
 7152SOL    HW223296   4.962   1.116  10.454
 7153SOL     OW23297   7.726   6.656   4.254
 7153SOL    HW123298   7.655   6.690   4.309
 7153SOL    HW223299   7.806   6.675   4.302
 7154SOL     OW23300   2.564  13.399   9.778
 7154SOL    HW123301   2.648  13.436   9.751
 7154SOL    HW223302   2.573  13.305   9.763
 7155SOL     OW23303   9.701   8.746  10.433
 7155SOL    HW123304   9.704   8.685  10.359
 7155SOL    HW223305   9.756   8.820  10.405
 7156SOL     OW23306   1.540   2.435   3.315
 7156SOL    HW123307   1.474   2.501   3.295
 7156SOL    HW223308   1.605   2.443   3.245
 7157SOL     OW23309   4.486   5.416  13.724
 7157SOL    HW123310   4.393   5.422  13.745
 7157SOL    HW223311   4.522   5.501  13.748
 7158SOL     OW23312  12.337  10.470  14.239
 7158SOL    HW123313  12.326  10.457  14.145
 7158SOL    HW223314  12.314  10.562  14.254
 7159SOL     OW23315   7.210  14.432   5.133
 7159SOL    HW123316   7.143  14.467   5.192
 7159SOL    HW223317   7.212  14.339   5.152
 7160SOL     OW23318  14.812  13.924   7.257
 7160SOL    HW123319  14.760  13.964   7.188
 7160SOL    HW223320   0.011  13.882   7.211
 7161SOL     OW23321   3.567   3.438   8.904
 7161SOL    HW123322   3.544   3.512   8.848
 7161SOL    HW223323   3.624   3.476   8.970
 7162SOL     OW23324  14.830   7.850  11.404
 7162SOL    HW123325   0.006   7.857  11.323
 7162SOL    HW223326  14.738   7.859  11.377
 7163SOL     OW23327   5.286  12.892  11.751
 7163SOL    HW123328   5.323  12.959  11.695
 7163SOL    HW223329   5.270  12.818  11.693
 7164SOL     OW23330  13.178   0.238   9.445
 7164SOL    HW123331  13.144   0.323   9.420
 7164SOL    HW223332  13.100   0.184   9.460
 7165SOL     OW23333   6.186   6.388   8.640
 7165SOL    HW123334   6.192   6.400   8.545
 7165SOL    HW223335   6.094   6.405   8.661
 7166SOL     OW23336   1.541   9.347   0.524
 7166SOL    HW123337   1.632   9.319   0.514
 7166SOL    HW223338   1.536   9.429   0.475
 7167SOL     OW23339  11.687   1.644   5.794
 7167SOL    HW123340  11.721   1.640   5.884
 7167SOL    HW223341  11.599   1.606   5.800
 7168SOL     OW23342  11.548   4.137   8.687
 7168SOL    HW123343  11.635   4.108   8.660
 7168SOL    HW223344  11.561   4.176   8.773
 7169SOL     OW23345   2.635  13.557  14.112
 7169SOL    HW123346   2.560  13.592  14.160
 7169SOL    HW223347   2.601  13.535  14.026
 7170SOL     OW23348   9.999   5.789   3.996
 7170SOL    HW123349   9.960   5.873   4.021
 7170SOL    HW223350  10.089   5.794   4.028
 7171SOL     OW23351   6.388   6.678   3.547
 7171SOL    HW123352   6.354   6.602   3.596
 7171SOL    HW223353   6.379   6.751   3.607
 7172SOL     OW23354   8.614   2.985   0.300
 7172SOL    HW123355   8.697   2.937   0.306
 7172SOL    HW223356   8.635   3.064   0.251
 7173SOL     OW23357   6.443   0.049   8.183
 7173SOL    HW123358   6.358   0.080   8.153
 7173SOL    HW223359   6.480   0.124   8.231
 7174SOL     OW23360   9.635   9.540  10.671
 7174SOL    HW123361   9.553   9.495  10.652
 7174SOL    HW223362   9.668   9.497  10.750
 7175SOL     OW23363   3.070   5.756   1.203
 7175SOL    HW123364   3.155   5.768   1.245
 7175SOL    HW223365   3.082   5.791   1.115
 7176SOL     OW23366   8.510   2.320   9.595
 7176SOL    HW123367   8.581   2.271   9.553
 7176SOL    HW223368   8.521   2.409   9.564
 7177SOL     OW23369   6.015   1.031   6.415
 7177SOL    HW123370   5.954   1.071   6.354
 7177SOL    HW223371   6.037   0.946   6.376
 7178SOL     OW23372   2.010  11.496  13.035
 7178SOL    HW123373   1.927  11.521  12.994
 7178SOL    HW223374   1.985  11.461  13.121
 7179SOL     OW23375   7.112   3.866   0.188
 7179SOL    HW123376   7.086   3.957   0.172
 7179SOL    HW223377   7.084   3.819   0.110
 7180SOL     OW23378  13.452  12.024   1.750
 7180SOL    HW123379  13.407  12.094   1.702
 7180SOL    HW223380  13.400  12.012   1.829
 7181SOL     OW23381  14.252   1.610  14.330
 7181SOL    HW123382  14.265   1.634  14.238
 7181SOL    HW223383  14.325   1.552  14.351
 7182SOL     OW23384   7.238   9.241   2.315
 7182SOL    HW123385   7.327   9.210   2.336
 7182SOL    HW223386   7.250   9.300   2.241
 7183SOL     OW23387   2.538   1.134   2.547
 7183SOL    HW123388   2.481   1.209   2.533
 7183SOL    HW223389   2.515   1.101   2.633
 7184SOL     OW23390  11.581   1.492   6.721
 7184SOL    HW123391  11.594   1.545   6.799
 7184SOL    HW223392  11.500   1.444   6.738
 7185SOL     OW23393   0.829   8.575   6.103
 7185SOL    HW123394   0.792   8.492   6.074
 7185SOL    HW223395   0.905   8.588   6.047
 7186SOL     OW23396   1.109   8.069   4.518
 7186SOL    HW123397   1.082   8.100   4.605
 7186SOL    HW223398   1.154   8.144   4.479
 7187SOL     OW23399   7.203   3.686  14.234
 7187SOL    HW123400   7.124   3.664  14.185
 7187SOL    HW223401   7.193   3.779  14.255
 7188SOL     OW23402   8.739  14.289   5.423
 7188SOL    HW123403   8.768  14.337   5.500
 7188SOL    HW223404   8.758  14.348   5.350
 7189SOL     OW23405   4.569  12.929  13.286
 7189SOL    HW123406   4.529  12.843  13.292
 7189SOL    HW223407   4.548  12.960  13.198
 7190SOL     OW23408  10.809   1.923  12.693
 7190SOL    HW123409  10.857   1.855  12.646
 7190SOL    HW223410  10.870   1.996  12.698
 7191SOL     OW23411   7.279  10.214   1.200
 7191SOL    HW123412   7.355  10.157   1.208
 7191SOL    HW223413   7.316  10.300   1.178
 7192SOL     OW23414   5.674  11.064   7.591
 7192SOL    HW123415   5.736  11.072   7.663
 7192SOL    HW223416   5.616  11.140   7.601
 7193SOL     OW23417   2.065   1.905   5.682
 7193SOL    HW123418   2.070   1.969   5.611
 7193SOL    HW223419   1.978   1.867   5.673
 7194SOL     OW23420  11.759  12.639  13.946
 7194SOL    HW123421  11.782  12.729  13.969
 7194SOL    HW223422  11.742  12.642  13.852
 7195SOL     OW23423   7.088  13.895   1.597
 7195SOL    HW123424   7.080  13.803   1.623
 7195SOL    HW223425   7.035  13.902   1.518
 7196SOL     OW23426   2.252  13.896   7.388
 7196SOL    HW123427   2.317  13.887   7.319
 7196SOL    HW223428   2.205  13.976   7.367
 7197SOL     OW23429  12.698   8.902  12.679
 7197SOL    HW123430  12.702   8.893  12.584
 7197SOL    HW223431  12.617   8.858  12.704
 7198SOL     OW23432   4.493  11.355  10.299
 7198SOL    HW123433   4.479  11.260  10.295
 7198SOL    HW223434   4.481  11.376  10.392
 7199SOL     OW23435   3.132  13.727  10.996
 7199SOL    HW123436   3.091  13.797  11.046
 7199SOL    HW223437   3.224  13.729  11.022
 7200SOL     OW23438   8.896   8.148  12.343
 7200SOL    HW123439   8.968   8.180  12.396
 7200SOL    HW223440   8.835   8.221  12.338
 7201SOL     OW23441   8.664  13.996   6.927
 7201SOL    HW123442   8.685  13.985   7.020
 7201SOL    HW223443   8.734  14.051   6.893
 7202SOL     OW23444   2.240   7.509   1.588
 7202SOL    HW123445   2.152   7.504   1.625
 7202SOL    HW223446   2.298   7.519   1.664
 7203SOL     OW23447   1.511  11.838  13.663
 7203SOL    HW123448   1.437  11.781  13.684
 7203SOL    HW223449   1.551  11.858  13.747
 7204SOL     OW23450  12.217   9.626   2.564
 7204SOL    HW123451  12.182   9.607   2.652
 7204SOL    HW223452  12.242   9.540   2.530
 7205SOL     OW23453  12.816   6.963   2.682
 7205SOL    HW123454  12.812   7.045   2.632
 7205SOL    HW223455  12.852   6.988   2.767
 7206SOL     OW23456  14.716  11.556   6.604
 7206SOL    HW123457  14.786  11.597   6.654
 7206SOL    HW223458  14.681  11.488   6.662
 7207SOL     OW23459  13.686   1.300  14.460
 7207SOL    HW123460  13.699   1.278  14.368
 7207SOL    HW223461  13.604   1.350  14.461
 7208SOL     OW23462   1.841   1.903   9.236
 7208SOL    HW123463   1.842   1.810   9.214
 7208SOL    HW223464   1.800   1.945   9.160
 7209SOL     OW23465   0.197   3.778   9.827
 7209SOL    HW123466   0.161   3.844   9.887
 7209SOL    HW223467   0.275   3.745   9.872
 7210SOL     OW23468  14.349  13.637  11.472
 7210SOL    HW123469  14.282  13.576  11.503
 7210SOL    HW223470  14.310  13.724  11.484
 7211SOL     OW23471   6.778   4.289  13.352
 7211SOL    HW123472   6.714   4.342  13.400
 7211SOL    HW223473   6.756   4.301  13.260
 7212SOL     OW23474   3.470   3.243  13.059
 7212SOL    HW123475   3.410   3.237  12.984
 7212SOL    HW223476   3.548   3.195  13.031
 7213SOL     OW23477   9.846  14.501   3.390
 7213SOL    HW123478   9.847  14.454   3.473
 7213SOL    HW223479   9.753  14.520   3.374
 7214SOL     OW23480   6.937  11.911  11.553
 7214SOL    HW123481   6.848  11.912  11.586
 7214SOL    HW223482   6.928  11.919  11.458
 7215SOL     OW23483   6.100  11.643   5.157
 7215SOL    HW123484   6.117  11.566   5.213
 7215SOL    HW223485   6.024  11.618   5.105
 7216SOL     OW23486   2.814   7.907   0.280
 7216SOL    HW123487   2.799   7.993   0.320
 7216SOL    HW223488   2.727   7.868   0.274
 7217SOL     OW23489   0.306   7.977   8.390
 7217SOL    HW123490   0.264   7.905   8.436
 7217SOL    HW223491   0.380   7.937   8.345
 7218SOL     OW23492   5.745   9.638  13.594
 7218SOL    HW123493   5.766   9.730  13.610
 7218SOL    HW223494   5.649   9.633  13.604
 7219SOL     OW23495  10.580   6.698  10.906
 7219SOL    HW123496  10.654   6.658  10.951
 7219SOL    HW223497  10.609   6.787  10.886
 7220SOL     OW23498   1.124   5.264  13.167
 7220SOL    HW123499   1.104   5.170  13.169
 7220SOL    HW223500   1.216   5.269  13.194
 7221SOL     OW23501   3.701   9.527   5.036
 7221SOL    HW123502   3.756   9.451   5.054
 7221SOL    HW223503   3.637   9.497   4.972
 7222SOL     OW23504   2.183  12.303   2.737
 7222SOL    HW123505   2.210  12.348   2.817
 7222SOL    HW223506   2.098  12.341   2.716
 7223SOL     OW23507  10.089   1.845   5.382
 7223SOL    HW123508  10.184   1.849   5.372
 7223SOL    HW223509  10.058   1.933   5.359
 7224SOL     OW23510   6.280  12.481   1.524
 7224SOL    HW123511   6.268  12.393   1.559
 7224SOL    HW223512   6.272  12.539   1.599
 7225SOL     OW23513   1.564   9.303   9.749
 7225SOL    HW123514   1.543   9.211   9.734
 7225SOL    HW223515   1.481   9.342   9.779
 7226SOL     OW23516   3.317   2.388   2.636
 7226SOL    HW123517   3.293   2.480   2.638
 7226SOL    HW223518   3.332   2.365   2.727
 7227SOL     OW23519   4.988  13.562  10.662
 7227SOL    HW123520   5.080  13.534  10.656
 7227SOL    HW223521   4.953  13.516  10.738
 7228SOL     OW23522  10.805   0.744   6.432
 7228SOL    HW123523  10.890   0.748   6.389
 7228SOL    HW223524  10.807   0.816   6.495
 7229SOL     OW23525   5.078  10.772  11.492
 7229SOL    HW123526   4.992  10.735  11.474
 7229SOL    HW223527   5.130  10.751  11.415
 7230SOL     OW23528   5.311  14.848   7.221
 7230SOL    HW123529   5.293  14.783   7.289
 7230SOL    HW223530   5.279  14.809   7.140
 7231SOL     OW23531   3.437  10.216   1.037
 7231SOL    HW123532   3.349  10.254   1.029
 7231SOL    HW223533   3.494  10.277   0.989
 7232SOL     OW23534   8.038  11.352   3.741
 7232SOL    HW123535   7.949  11.351   3.777
 7232SOL    HW223536   8.026  11.349   3.646
 7233SOL     OW23537   7.845   6.411   4.912
 7233SOL    HW123538   7.914   6.377   4.968
 7233SOL    HW223539   7.892   6.453   4.840
 7234SOL     OW23540   5.163   1.869   6.534
 7234SOL    HW123541   5.091   1.902   6.480
 7234SOL    HW223542   5.138   1.779   6.555
 7235SOL     OW23543   9.038   7.235   4.653
 7235SOL    HW123544   9.075   7.314   4.615
 7235SOL    HW223545   8.960   7.264   4.700
 7236SOL     OW23546  12.553   5.432   4.080
 7236SOL    HW123547  12.581   5.421   4.171
 7236SOL    HW223548  12.505   5.352   4.060
 7237SOL     OW23549   1.649   1.056  10.156
 7237SOL    HW123550   1.662   1.044  10.062
 7237SOL    HW223551   1.726   1.107  10.184
 7238SOL     OW23552  10.909  14.385   2.124
 7238SOL    HW123553  10.872  14.448   2.185
 7238SOL    HW223554  10.947  14.439   2.054
 7239SOL     OW23555  14.110  12.855   9.000
 7239SOL    HW123556  14.192  12.891   9.033
 7239SOL    HW223557  14.125  12.843   8.906
 7240SOL     OW23558   7.417   9.678   3.089
 7240SOL    HW123559   7.414   9.593   3.045
 7240SOL    HW223560   7.507   9.686   3.120
 7241SOL     OW23561   5.410  12.502   1.821
 7241SOL    HW123562   5.437  12.572   1.762
 7241SOL    HW223563   5.483  12.439   1.817
 7242SOL     OW23564   7.762   2.087   9.002
 7242SOL    HW123565   7.849   2.048   8.996
 7242SOL    HW223566   7.748   2.102   9.095
 7243SOL     OW23567   8.059   6.629   0.504
 7243SOL    HW123568   8.098   6.542   0.512
 7243SOL    HW223569   8.108   6.683   0.566
 7244SOL     OW23570   1.492  10.517   0.218
 7244SOL    HW123571   1.536  10.514   0.133
 7244SOL    HW223572   1.468  10.609   0.230
 7245SOL     OW23573   9.733   1.183   3.592
 7245SOL    HW123574   9.751   1.204   3.684
 7245SOL    HW223575   9.806   1.220   3.544
 7246SOL     OW23576   3.409   2.895  13.317
 7246SOL    HW123577   3.393   2.927  13.406
 7246SOL    HW223578   3.345   2.824  13.305
 7247SOL     OW23579   7.049   7.471   4.107
 7247SOL    HW123580   7.032   7.558   4.071
 7247SOL    HW223581   7.141   7.473   4.131
 7248SOL     OW23582   6.839  14.257  13.976
 7248SOL    HW123583   6.847  14.339  14.025
 7248SOL    HW223584   6.928  14.222  13.974
 7249SOL     OW23585   7.606   8.397   6.337
 7249SOL    HW123586   7.635   8.453   6.409
 7249SOL    HW223587   7.531   8.349   6.373
 7250SOL     OW23588   2.273  14.172   9.566
 7250SOL    HW123589   2.179  14.188   9.561
 7250SOL    HW223590   2.295  14.133   9.481
 7251SOL     OW23591   9.490   5.643   1.188
 7251SOL    HW123592   9.576   5.680   1.168
 7251SOL    HW223593   9.432   5.680   1.121
 7252SOL     OW23594  12.468  11.089   2.509
 7252SOL    HW123595  12.413  11.165   2.530
 7252SOL    HW223596  12.457  11.031   2.585
 7253SOL     OW23597   7.984  14.558   4.714
 7253SOL    HW123598   8.054  14.571   4.779
 7253SOL    HW223599   8.026  14.507   4.644
 7254SOL     OW23600  14.504   8.932  10.264
 7254SOL    HW123601  14.419   8.907  10.227
 7254SOL    HW223602  14.507   8.887  10.348
 7255SOL     OW23603   8.994  10.060   9.236
 7255SOL    HW123604   8.903  10.051   9.208
 7255SOL    HW223605   9.006  10.154   9.250
 7256SOL     OW23606  13.732  11.917  13.027
 7256SOL    HW123607  13.722  11.927  12.933
 7256SOL    HW223608  13.679  11.841  13.050
 7257SOL     OW23609   6.141   6.026   2.339
 7257SOL    HW123610   6.073   5.959   2.345
 7257SOL    HW223611   6.220   5.978   2.314
 7258SOL     OW23612   6.237  13.024   2.503
 7258SOL    HW123613   6.205  13.077   2.430
 7258SOL    HW223614   6.308  12.971   2.466
 7259SOL     OW23615   4.868   4.663   9.169
 7259SOL    HW123616   4.792   4.621   9.130
 7259SOL    HW223617   4.835   4.748   9.200
 7260SOL     OW23618   5.648   1.443   8.469
 7260SOL    HW123619   5.671   1.431   8.561
 7260SOL    HW223620   5.629   1.537   8.461
 7261SOL     OW23621   1.016  13.890  11.413
 7261SOL    HW123622   1.017  13.900  11.317
 7261SOL    HW223623   0.928  13.916  11.438
 7262SOL     OW23624   9.072  12.301   7.903
 7262SOL    HW123625   9.158  12.339   7.883
 7262SOL    HW223626   9.080  12.270   7.993
 7263SOL     OW23627   3.120   0.259  10.969
 7263SOL    HW123628   3.050   0.248  11.033
 7263SOL    HW223629   3.098   0.339  10.922
 7264SOL     OW23630   1.492   5.443  11.853
 7264SOL    HW123631   1.540   5.442  11.936
 7264SOL    HW223632   1.400   5.440  11.879
 7265SOL     OW23633   9.374   8.152   3.278
 7265SOL    HW123634   9.393   8.208   3.353
 7265SOL    HW223635   9.424   8.190   3.206
 7266SOL     OW23636   7.618  13.993   1.530
 7266SOL    HW123637   7.532  14.028   1.553
 7266SOL    HW223638   7.651  14.053   1.463
 7267SOL     OW23639   1.835   3.419  10.633
 7267SOL    HW123640   1.821   3.430  10.726
 7267SOL    HW223641   1.855   3.326  10.623
 7268SOL     OW23642   9.297   5.009   9.067
 7268SOL    HW123643   9.233   4.942   9.094
 7268SOL    HW223644   9.365   4.960   9.021
 7269SOL     OW23645  10.961   5.404   9.390
 7269SOL    HW123646  11.029   5.427   9.325
 7269SOL    HW223647  10.994   5.325   9.432
 7270SOL     OW23648  14.161   3.290  13.149
 7270SOL    HW123649  14.104   3.229  13.196
 7270SOL    HW223650  14.108   3.368  13.136
 7271SOL     OW23651   3.819   7.440   3.788
 7271SOL    HW123652   3.864   7.358   3.766
 7271SOL    HW223653   3.888   7.496   3.825
 7272SOL     OW23654   1.188   3.160   4.028
 7272SOL    HW123655   1.157   3.075   3.998
 7272SOL    HW223656   1.277   3.144   4.059
 7273SOL     OW23657   7.862   4.225   7.671
 7273SOL    HW123658   7.793   4.199   7.610
 7273SOL    HW223659   7.839   4.181   7.753
 7274SOL     OW23660   0.658   4.793   5.573
 7274SOL    HW123661   0.612   4.788   5.489
 7274SOL    HW223662   0.605   4.853   5.626
 7275SOL     OW23663   8.174  14.065   7.015
 7275SOL    HW123664   8.169  14.034   6.924
 7275SOL    HW223665   8.142  13.992   7.067
 7276SOL     OW23666  11.076  10.779   9.737
 7276SOL    HW123667  10.997  10.733   9.764
 7276SOL    HW223668  11.044  10.856   9.691
 7277SOL     OW23669   6.475   5.709   7.360
 7277SOL    HW123670   6.544   5.708   7.294
 7277SOL    HW223671   6.394   5.717   7.310
 7278SOL     OW23672   9.356   9.165   2.451
 7278SOL    HW123673   9.305   9.245   2.459
 7278SOL    HW223674   9.332   9.113   2.527
 7279SOL     OW23675  11.532   7.315   4.855
 7279SOL    HW123676  11.529   7.410   4.866
 7279SOL    HW223677  11.510   7.301   4.763
 7280SOL     OW23678   1.433   8.691   1.061
 7280SOL    HW123679   1.471   8.744   0.992
 7280SOL    HW223680   1.436   8.747   1.139
 7281SOL     OW23681   5.399   2.778  11.393
 7281SOL    HW123682   5.399   2.697  11.341
 7281SOL    HW223683   5.492   2.803  11.398
 7282SOL     OW23684   2.240  10.946   8.219
 7282SOL    HW123685   2.148  10.971   8.231
 7282SOL    HW223686   2.244  10.913   8.129
 7283SOL     OW23687   0.762   3.789   7.951
 7283SOL    HW123688   0.733   3.699   7.941
 7283SOL    HW223689   0.682   3.837   7.976
 7284SOL     OW23690   3.318   5.873   8.204
 7284SOL    HW123691   3.395   5.876   8.259
 7284SOL    HW223692   3.277   5.959   8.215
 7285SOL     OW23693   9.946   2.495   0.209
 7285SOL    HW123694   9.977   2.435   0.142
 7285SOL    HW223695   9.939   2.442   0.288
 7286SOL     OW23696   8.244   5.118   7.530
 7286SOL    HW123697   8.244   5.038   7.584
 7286SOL    HW223698   8.295   5.095   7.453
 7287SOL     OW23699   5.725   0.610  13.524
 7287SOL    HW123700   5.735   0.597  13.618
 7287SOL    HW223701   5.631   0.623  13.511
 7288SOL     OW23702   6.452   7.198   7.762
 7288SOL    HW123703   6.448   7.119   7.815
 7288SOL    HW223704   6.440   7.270   7.825
 7289SOL     OW23705   9.638  14.464   6.820
 7289SOL    HW123706   9.598  14.437   6.903
 7289SOL    HW223707   9.569  14.513   6.776
 7290SOL     OW23708   4.474   2.955  10.946
 7290SOL    HW123709   4.417   2.879  10.954
 7290SOL    HW223710   4.562   2.919  10.934
 7291SOL     OW23711  12.936   8.995   8.306
 7291SOL    HW123712  12.899   9.025   8.389
 7291SOL    HW223713  12.908   8.904   8.297
 7292SOL     OW23714   6.526  13.278   2.673
 7292SOL    HW123715   6.531  13.349   2.736
 7292SOL    HW223716   6.440  13.238   2.689
 7293SOL     OW23717   1.969   6.028   4.639
 7293SOL    HW123718   1.926   5.943   4.650
 7293SOL    HW223719   1.898   6.090   4.624
 7294SOL     OW23720  11.879   6.790  12.545
 7294SOL    HW123721  11.808   6.822  12.489
 7294SOL    HW223722  11.952   6.773  12.486
 7295SOL     OW23723   8.498   3.599  14.277
 7295SOL    HW123724   8.436   3.527  14.267
 7295SOL    HW223725   8.581   3.565  14.242
 7296SOL     OW23726   3.982   5.069   3.091
 7296SOL    HW123727   4.044   5.033   3.154
 7296SOL    HW223728   3.896   5.045   3.126
 7297SOL     OW23729   8.078   3.539   8.892
 7297SOL    HW123730   8.042   3.627   8.879
 7297SOL    HW223731   8.081   3.529   8.988
 7298SOL     OW23732  14.628   0.235   4.698
 7298SOL    HW123733  14.705   0.182   4.677
 7298SOL    HW223734  14.580   0.184   4.763
 7299SOL     OW23735   5.447   9.659  13.551
 7299SOL    HW123736   5.480   9.688  13.466
 7299SOL    HW223737   5.368   9.608  13.530
 7300SOL     OW23738   7.626   9.645  11.835
 7300SOL    HW123739   7.684   9.570  11.850
 7300SOL    HW223740   7.683   9.721  11.842
 7301SOL     OW23741  14.236  13.649   3.767
 7301SOL    HW123742  14.195  13.719   3.818
 7301SOL    HW223743  14.321  13.636   3.807
 7302SOL     OW23744   2.496  12.744  14.031
 7302SOL    HW123745   2.472  12.830  13.997
 7302SOL    HW223746   2.580  12.760  14.077
 7303SOL     OW23747   2.272   2.992  11.737
 7303SOL    HW123748   2.286   3.065  11.676
 7303SOL    HW223749   2.358   2.952  11.746
 7304SOL     OW23750   4.025  13.955   0.010
 7304SOL    HW123751   4.007  13.900   0.086
 7304SOL    HW223752   3.982  13.910  14.810
 7305SOL     OW23753   8.018   0.608   0.606
 7305SOL    HW123754   7.984   0.537   0.552
 7305SOL    HW223755   8.061   0.565   0.680
 7306SOL     OW23756   3.655   7.692   1.982
 7306SOL    HW123757   3.660   7.689   2.078
 7306SOL    HW223758   3.703   7.771   1.958
 7307SOL     OW23759   7.018   4.885  11.517
 7307SOL    HW123760   7.051   4.934  11.593
 7307SOL    HW223761   7.092   4.828  11.492
 7308SOL     OW23762  13.172  13.897   8.501
 7308SOL    HW123763  13.224  13.850   8.566
 7308SOL    HW223764  13.081  13.881   8.527
 7309SOL     OW23765   3.991   1.270   3.761
 7309SOL    HW123766   4.074   1.314   3.742
 7309SOL    HW223767   3.927   1.317   3.708
 7310SOL     OW23768   3.951   4.676   9.748
 7310SOL    HW123769   3.908   4.641   9.826
 7310SOL    HW223770   4.039   4.637   9.750
 7311SOL     OW23771  12.041   0.631   3.396
 7311SOL    HW123772  11.956   0.674   3.388
 7311SOL    HW223773  12.092   0.690   3.451
 7312SOL     OW23774   1.829  13.017  12.504
 7312SOL    HW123775   1.905  13.007  12.561
 7312SOL    HW223776   1.758  13.042  12.564
 7313SOL     OW23777  10.509   7.901   2.931
 7313SOL    HW123778  10.568   7.858   2.870
 7313SOL    HW223779  10.480   7.980   2.886
 7314SOL     OW23780   2.602   3.620   5.457
 7314SOL    HW123781   2.607   3.629   5.552
 7314SOL    HW223782   2.601   3.526   5.442
 7315SOL     OW23783   3.343   2.843   0.261
 7315SOL    HW123784   3.335   2.917   0.202
 7315SOL    HW223785   3.406   2.785   0.219
 7316SOL     OW23786  10.372  10.687  10.283
 7316SOL    HW123787  10.357  10.593  10.289
 7316SOL    HW223788  10.454  10.696  10.236
 7317SOL     OW23789   6.174   2.401  12.838
 7317SOL    HW123790   6.129   2.441  12.912
 7317SOL    HW223791   6.196   2.475  12.781
 7318SOL     OW23792  10.951   4.835   6.248
 7318SOL    HW123793  10.941   4.914   6.195
 7318SOL    HW223794  10.862   4.800   6.257
 7319SOL     OW23795  12.724  10.782   1.076
 7319SOL    HW123796  12.648  10.834   1.103
 7319SOL    HW223797  12.755  10.742   1.158
 7320SOL     OW23798   9.672  11.834   6.593
 7320SOL    HW123799   9.764  11.859   6.600
 7320SOL    HW223800   9.658  11.817   6.500
 7321SOL     OW23801   4.547   8.306   0.988
 7321SOL    HW123802   4.515   8.356   1.063
 7321SOL    HW223803   4.579   8.224   1.025
 7322SOL     OW23804   5.882   0.133   2.830
 7322SOL    HW123805   5.919   0.217   2.804
 7322SOL    HW223806   5.933   0.108   2.908
 7323SOL     OW23807   7.465   6.672  10.431
 7323SOL    HW123808   7.379   6.629  10.432
 7323SOL    HW223809   7.527   6.600  10.429
 7324SOL     OW23810   9.280  12.096   2.253
 7324SOL    HW123811   9.347  12.138   2.307
 7324SOL    HW223812   9.324  12.075   2.171
 7325SOL     OW23813   3.720   1.351   2.508
 7325SOL    HW123814   3.737   1.312   2.594
 7325SOL    HW223815   3.732   1.279   2.446
 7326SOL     OW23816  10.432   2.997  13.340
 7326SOL    HW123817  10.493   3.052  13.291
 7326SOL    HW223818  10.347   3.039  13.329
 7327SOL     OW23819   1.973  10.999   0.035
 7327SOL    HW123820   1.877  10.995   0.036
 7327SOL    HW223821   1.993  11.082   0.078
 7328SOL     OW23822   8.447   2.071   0.726
 7328SOL    HW123823   8.463   2.162   0.700
 7328SOL    HW223824   8.534   2.030   0.722
 7329SOL     OW23825   8.777   5.204   7.112
 7329SOL    HW123826   8.718   5.251   7.171
 7329SOL    HW223827   8.722   5.176   7.040
 7330SOL     OW23828   8.403  11.516   6.897
 7330SOL    HW123829   8.390  11.607   6.868
 7330SOL    HW223830   8.314  11.482   6.907
 7331SOL     OW23831   8.993   3.494  11.498
 7331SOL    HW123832   8.936   3.513  11.424
 7331SOL    HW223833   9.072   3.546  11.482
 7332SOL     OW23834  14.350  11.117   0.945
 7332SOL    HW123835  14.272  11.130   0.890
 7332SOL    HW223836  14.417  11.172   0.905
 7333SOL     OW23837   8.940   2.404   7.717
 7333SOL    HW123838   8.870   2.418   7.654
 7333SOL    HW223839   8.985   2.326   7.687
 7334SOL     OW23840   6.200   1.320  10.842
 7334SOL    HW123841   6.202   1.297  10.935
 7334SOL    HW223842   6.107   1.325  10.821
 7335SOL     OW23843   7.000  12.579   3.629
 7335SOL    HW123844   7.068  12.526   3.588
 7335SOL    HW223845   6.933  12.590   3.561
 7336SOL     OW23846   6.727   4.803   8.974
 7336SOL    HW123847   6.729   4.721   8.926
 7336SOL    HW223848   6.634   4.821   8.989
 7337SOL     OW23849  12.616  14.315   8.419
 7337SOL    HW123850  12.525  14.313   8.391
 7337SOL    HW223851  12.651  14.396   8.384
 7338SOL     OW23852   5.014  14.120   6.491
 7338SOL    HW123853   4.979  14.057   6.428
 7338SOL    HW223854   5.065  14.181   6.437
 7339SOL     OW23855   9.541   8.861   8.320
 7339SOL    HW123856   9.631   8.853   8.350
 7339SOL    HW223857   9.490   8.805   8.379
 7340SOL     OW23858   3.338   9.728  10.757
 7340SOL    HW123859   3.249   9.763  10.754
 7340SOL    HW223860   3.373   9.741  10.669
 7341SOL     OW23861   2.915   3.209   9.074
 7341SOL    HW123862   2.821   3.221   9.088
 7341SOL    HW223863   2.948   3.297   9.053
 7342SOL     OW23864   8.962  14.046  13.047
 7342SOL    HW123865   9.030  13.999  12.999
 7342SOL    HW223866   8.910  13.978  13.089
 7343SOL     OW23867   6.338   3.692   0.085
 7343SOL    HW123868   6.253   3.648   0.077
 7343SOL    HW223869   6.368   3.701  14.867
 7344SOL     OW23870   7.211  12.185   7.544
 7344SOL    HW123871   7.282  12.156   7.487
 7344SOL    HW223872   7.201  12.114   7.608
 7345SOL     OW23873  13.183   9.593   4.904
 7345SOL    HW123874  13.239   9.613   4.829
 7345SOL    HW223875  13.100   9.635   4.883
 7346SOL     OW23876  12.820   5.516  11.368
 7346SOL    HW123877  12.821   5.499  11.273
 7346SOL    HW223878  12.759   5.590  11.377
 7347SOL     OW23879   3.282   2.654   0.915
 7347SOL    HW123880   3.272   2.567   0.877
 7347SOL    HW223881   3.263   2.714   0.844
 7348SOL     OW23882  14.080   0.615   4.058
 7348SOL    HW123883  14.110   0.673   3.988
 7348SOL    HW223884  14.134   0.637   4.133
 7349SOL     OW23885  11.932   2.245   7.582
 7349SOL    HW123886  11.873   2.171   7.573
 7349SOL    HW223887  11.913   2.281   7.668
 7350SOL     OW23888   2.396  10.787   8.394
 7350SOL    HW123889   2.345  10.835   8.328
 7350SOL    HW223890   2.391  10.696   8.366
 7351SOL     OW23891   3.310  12.947  10.952
 7351SOL    HW123892   3.273  12.944  10.864
 7351SOL    HW223893   3.352  13.033  10.957
 7352SOL     OW23894   5.054   1.624   7.991
 7352SOL    HW123895   5.140   1.587   7.976
 7352SOL    HW223896   5.028   1.592   8.078
 7353SOL     OW23897   8.558   7.218  14.541
 7353SOL    HW123898   8.627   7.198  14.605
 7353SOL    HW223899   8.587   7.174  14.461
 7354SOL     OW23900   7.356   8.881  11.518
 7354SOL    HW123901   7.361   8.969  11.482
 7354SOL    HW223902   7.307   8.891  11.600
 7355SOL     OW23903   7.697   5.542   0.131
 7355SOL    HW123904   7.657   5.629   0.123
 7355SOL    HW223905   7.783   5.551   0.091
 7356SOL     OW23906  11.285   9.123  13.607
 7356SOL    HW123907  11.354   9.181  13.573
 7356SOL    HW223908  11.282   9.143  13.700
 7357SOL     OW23909  13.126  10.695  12.330
 7357SOL    HW123910  13.140  10.661  12.418
 7357SOL    HW223911  13.196  10.760  12.318
 7358SOL     OW23912   3.939   1.833   8.697
 7358SOL    HW123913   4.008   1.855   8.760
 7358SOL    HW223914   3.950   1.739   8.682
 7359SOL     OW23915  12.261   2.501  11.695
 7359SOL    HW123916  12.304   2.418  11.678
 7359SOL    HW223917  12.227   2.528  11.610
 7360SOL     OW23918   4.002   2.033   2.155
 7360SOL    HW123919   3.977   2.006   2.067
 7360SOL    HW223920   4.052   1.958   2.189
 7361SOL     OW23921   2.365  14.607   4.603
 7361SOL    HW123922   2.358  14.544   4.674
 7361SOL    HW223923   2.459  14.609   4.582
 7362SOL     OW23924   6.013   7.409   2.415
 7362SOL    HW123925   6.099   7.440   2.388
 7362SOL    HW223926   6.031   7.349   2.487
 7363SOL     OW23927   3.550  10.478   8.169
 7363SOL    HW123928   3.477  10.448   8.115
 7363SOL    HW223929   3.596  10.397   8.193
 7364SOL     OW23930   0.178   9.885  12.326
 7364SOL    HW123931   0.250   9.826  12.348
 7364SOL    HW223932   0.221   9.968  12.304
 7365SOL     OW23933  10.623   7.575  12.777
 7365SOL    HW123934  10.637   7.662  12.814
 7365SOL    HW223935  10.690   7.566  12.709
 7366SOL     OW23936  12.777   3.853  13.532
 7366SOL    HW123937  12.789   3.897  13.448
 7366SOL    HW223938  12.703   3.793  13.517
 7367SOL     OW23939  13.240   7.502  12.143
 7367SOL    HW123940  13.284   7.474  12.223
 7367SOL    HW223941  13.174   7.435  12.126
 7368SOL     OW23942   1.733   7.153  11.839
 7368SOL    HW123943   1.821   7.163  11.877
 7368SOL    HW223944   1.743   7.082  11.776
 7369SOL     OW23945   1.008   4.121  13.308
 7369SOL    HW123946   1.031   4.197  13.362
 7369SOL    HW223947   1.088   4.101  13.260
 7370SOL     OW23948   8.239  13.874   5.386
 7370SOL    HW123949   8.187  13.886   5.306
 7370SOL    HW223950   8.173  13.859   5.454
 7371SOL     OW23951   3.515   6.272   4.523
 7371SOL    HW123952   3.504   6.353   4.572
 7371SOL    HW223953   3.474   6.289   4.438
 7372SOL     OW23954  11.446   5.336   2.838
 7372SOL    HW123955  11.440   5.426   2.870
 7372SOL    HW223956  11.499   5.342   2.759
 7373SOL     OW23957   4.973   9.202   8.151
 7373SOL    HW123958   5.050   9.148   8.169
 7373SOL    HW223959   4.981   9.225   8.058
 7374SOL     OW23960   8.031   4.040   6.720
 7374SOL    HW123961   8.073   3.964   6.680
 7374SOL    HW223962   7.999   4.091   6.645
 7375SOL     OW23963   0.599   4.579   7.233
 7375SOL    HW123964   0.544   4.582   7.312
 7375SOL    HW223965   0.537   4.583   7.161
 7376SOL     OW23966  11.238   7.663   6.317
 7376SOL    HW123967  11.147   7.696   6.320
 7376SOL    HW223968  11.270   7.675   6.407
 7377SOL     OW23969  10.662  11.392   1.406
 7377SOL    HW123970  10.731  11.416   1.468
 7377SOL    HW223971  10.703  11.328   1.348
 7378SOL     OW23972   6.647   3.382  12.722
 7378SOL    HW123973   6.576   3.443  12.744
 7378SOL    HW223974   6.644   3.375  12.626
 7379SOL     OW23975   1.770  11.334   3.979
 7379SOL    HW123976   1.683  11.328   3.939
 7379SOL    HW223977   1.763  11.282   4.059
 7380SOL     OW23978   8.784   2.145  14.014
 7380SOL    HW123979   8.873   2.158  14.048
 7380SOL    HW223980   8.727   2.180  14.082
 7381SOL     OW23981  14.656   3.447  12.115
 7381SOL    HW123982  14.739   3.420  12.077
 7381SOL    HW223983  14.653   3.542  12.101
 7382SOL     OW23984   3.576   1.840   8.744
 7382SOL    HW123985   3.488   1.845   8.779
 7382SOL    HW223986   3.631   1.820   8.819
 7383SOL     OW23987   1.481  10.893   0.605
 7383SOL    HW123988   1.418  10.828   0.575
 7383SOL    HW223989   1.446  10.977   0.573
 7384SOL     OW23990   4.525   1.422  13.371
 7384SOL    HW123991   4.600   1.421  13.431
 7384SOL    HW223992   4.548   1.488  13.305
 7385SOL     OW23993  13.298   1.885   7.394
 7385SOL    HW123994  13.243   1.958   7.366
 7385SOL    HW223995  13.383   1.924   7.414
 7386SOL     OW23996  12.810  13.204   0.670
 7386SOL    HW123997  12.781  13.238   0.755
 7386SOL    HW223998  12.843  13.117   0.690
 7387SOL     OW23999   2.633   5.906   1.803
 7387SOL    HW124000   2.634   5.910   1.708
 7387SOL    HW224001   2.555   5.955   1.829
 7388SOL     OW24002   4.332   1.494   3.969
 7388SOL    HW124003   4.380   1.577   3.971
 7388SOL    HW224004   4.336   1.461   4.059
 7389SOL     OW24005   9.846   6.852  10.880
 7389SOL    HW124006   9.812   6.836  10.968
 7389SOL    HW224007   9.796   6.927  10.848
 7390SOL     OW24008   4.806  12.962   7.544
 7390SOL    HW124009   4.781  12.997   7.459
 7390SOL    HW224010   4.754  13.013   7.607
 7391SOL     OW24011  14.142  13.097   1.800
 7391SOL    HW124012  14.046  13.090   1.798
 7391SOL    HW224013  14.169  13.067   1.713
 7392SOL     OW24014   7.146   6.130   7.769
 7392SOL    HW124015   7.086   6.086   7.829
 7392SOL    HW224016   7.226   6.142   7.820
 7393SOL     OW24017  10.693   6.576  10.511
 7393SOL    HW124018  10.652   6.661  10.525
 7393SOL    HW224019  10.678   6.556  10.419
 7394SOL     OW24020   3.628   5.727  14.428
 7394SOL    HW124021   3.561   5.665  14.400
 7394SOL    HW224022   3.665   5.761  14.346
 7395SOL     OW24023  11.547  14.753   6.243
 7395SOL    HW124024  11.512  14.780   6.158
 7395SOL    HW224025  11.606  14.681   6.223
 7396SOL     OW24026  13.773   1.639   3.493
 7396SOL    HW124027  13.838   1.628   3.423
 7396SOL    HW224028  13.702   1.689   3.451
 7397SOL     OW24029   7.628  10.622   9.457
 7397SOL    HW124030   7.553  10.570   9.487
 7397SOL    HW224031   7.669  10.654   9.537
 7398SOL     OW24032   4.117   1.627   6.128
 7398SOL    HW124033   4.065   1.609   6.206
 7398SOL    HW224034   4.201   1.583   6.145
 7399SOL     OW24035   4.282   8.367   2.082
 7399SOL    HW124036   4.355   8.409   2.036
 7399SOL    HW224037   4.218   8.437   2.096
 7400SOL     OW24038  14.746   5.402   8.322
 7400SOL    HW124039  14.721   5.480   8.372
 7400SOL    HW224040  14.664   5.357   8.304
 7401SOL     OW24041   8.606   4.881   6.463
 7401SOL    HW124042   8.657   4.904   6.541
 7401SOL    HW224043   8.660   4.817   6.417
 7402SOL     OW24044   0.476  10.090  11.589
 7402SOL    HW124045   0.557  10.124  11.628
 7402SOL    HW224046   0.423  10.062  11.663
 7403SOL     OW24047   7.782  13.544   5.846
 7403SOL    HW124048   7.826  13.469   5.806
 7403SOL    HW224049   7.772  13.521   5.938
 7404SOL     OW24050   9.558  12.442   5.527
 7404SOL    HW124051   9.513  12.375   5.578
 7404SOL    HW224052   9.648  12.411   5.521
 7405SOL     OW24053   5.160   3.942   3.569
 7405SOL    HW124054   5.192   3.859   3.536
 7405SOL    HW224055   5.091   3.919   3.632
 7406SOL     OW24056   0.059  12.863   2.977
 7406SOL    HW124057   0.039  12.915   3.054
 7406SOL    HW224058   0.127  12.912   2.932
 7407SOL     OW24059   6.395  12.056  11.304
 7407SOL    HW124060   6.310  12.074  11.264
 7407SOL    HW224061   6.402  12.122  11.374
 7408SOL     OW24062  10.670   4.416   4.773
 7408SOL    HW124063  10.691   4.325   4.793
 7408SOL    HW224064  10.730   4.440   4.702
 7409SOL     OW24065   6.385   6.547   0.834
 7409SOL    HW124066   6.389   6.627   0.783
 7409SOL    HW224067   6.302   6.553   0.882
 7410SOL     OW24068  11.977   0.809   1.035
 7410SOL    HW124069  12.047   0.750   1.059
 7410SOL    HW224070  11.904   0.752   1.011
 7411SOL     OW24071   8.941  12.303   8.598
 7411SOL    HW124072   8.960  12.302   8.692
 7411SOL    HW224073   8.860  12.352   8.591
 7412SOL     OW24074   0.526   8.064   2.711
 7412SOL    HW124075   0.620   8.078   2.701
 7412SOL    HW224076   0.492   8.067   2.622
 7413SOL     OW24077   5.179  12.640   3.473
 7413SOL    HW124078   5.090  12.659   3.444
 7413SOL    HW224079   5.216  12.585   3.403
 7414SOL     OW24080  13.540  11.698  12.068
 7414SOL    HW124081  13.497  11.719  11.985
 7414SOL    HW224082  13.633  11.693  12.047
 7415SOL     OW24083   9.747   8.266  10.469
 7415SOL    HW124084   9.741   8.283  10.375
 7415SOL    HW224085   9.661   8.231  10.493
 7416SOL     OW24086   2.430   9.285  12.572
 7416SOL    HW124087   2.409   9.220  12.505
 7416SOL    HW224088   2.425   9.369  12.526
 7417SOL     OW24089   3.628  13.285   8.139
 7417SOL    HW124090   3.601  13.349   8.206
 7417SOL    HW224091   3.715  13.315   8.112
 7418SOL     OW24092   4.858   4.804   6.923
 7418SOL    HW124093   4.804   4.823   6.846
 7418SOL    HW224094   4.898   4.719   6.902
 7419SOL     OW24095  13.392   9.491   7.416
 7419SOL    HW124096  13.480   9.489   7.454
 7419SOL    HW224097  13.379   9.582   7.391
 7420SOL     OW24098   1.209   9.569   5.295
 7420SOL    HW124099   1.156   9.510   5.241
 7420SOL    HW224100   1.294   9.572   5.250
 7421SOL     OW24101  13.868   9.361  11.222
 7421SOL    HW124102  13.961   9.381  11.236
 7421SOL    HW224103  13.861   9.267  11.242
 7422SOL     OW24104  13.494   3.622   4.427
 7422SOL    HW124105  13.551   3.593   4.355
 7422SOL    HW224106  13.464   3.708   4.400
 7423SOL     OW24107   4.745   7.854   8.402
 7423SOL    HW124108   4.711   7.815   8.322
 7423SOL    HW224109   4.709   7.800   8.473
 7424SOL     OW24110  12.009   7.392   6.271
 7424SOL    HW124111  11.941   7.367   6.209
 7424SOL    HW224112  12.091   7.378   6.223
 7425SOL     OW24113   2.118  13.011   1.702
 7425SOL    HW124114   2.089  13.100   1.724
 7425SOL    HW224115   2.094  12.958   1.778
 7426SOL     OW24116   6.562  13.408  12.629
 7426SOL    HW124117   6.507  13.477  12.592
 7426SOL    HW224118   6.542  13.409  12.723
 7427SOL     OW24119   6.083   3.159   4.063
 7427SOL    HW124120   6.172   3.125   4.063
 7427SOL    HW224121   6.067   3.185   3.972
 7428SOL     OW24122   6.569   7.657  13.613
 7428SOL    HW124123   6.617   7.672  13.694
 7428SOL    HW224124   6.637   7.651  13.545
 7429SOL     OW24125   1.860  14.044  11.748
 7429SOL    HW124126   1.823  14.081  11.828
 7429SOL    HW224127   1.949  14.080  11.744
 7430SOL     OW24128   7.555  14.268   1.916
 7430SOL    HW124129   7.469  14.255   1.877
 7430SOL    HW224130   7.544  14.243   2.008
 7431SOL     OW24131   2.238   2.426  11.264
 7431SOL    HW124132   2.183   2.450  11.189
 7431SOL    HW224133   2.207   2.482  11.335
 7432SOL     OW24134   8.036   7.185   7.596
 7432SOL    HW124135   8.096   7.216   7.663
 7432SOL    HW224136   7.979   7.260   7.578
 7433SOL     OW24137   6.655  10.146  12.378
 7433SOL    HW124138   6.731  10.200  12.355
 7433SOL    HW224139   6.636  10.169  12.469
 7434SOL     OW24140  14.288   8.419   4.713
 7434SOL    HW124141  14.193   8.432   4.718
 7434SOL    HW224142  14.301   8.370   4.632
 7435SOL     OW24143   5.575   3.203  13.738
 7435SOL    HW124144   5.549   3.114  13.759
 7435SOL    HW224145   5.653   3.219  13.791
 7436SOL     OW24146  12.658  14.473   7.082
 7436SOL    HW124147  12.703  14.407   7.029
 7436SOL    HW224148  12.589  14.507   7.025
 7437SOL     OW24149   6.658   5.268  11.767
 7437SOL    HW124150   6.722   5.339  11.768
 7437SOL    HW224151   6.708   5.191  11.740
 7438SOL     OW24152   9.486  12.034   7.674
 7438SOL    HW124153   9.565  12.077   7.642
 7438SOL    HW224154   9.518  11.973   7.740
 7439SOL     OW24155  10.154  12.070   2.923
 7439SOL    HW124156  10.244  12.062   2.893
 7439SOL    HW224157  10.132  11.983   2.957
 7440SOL     OW24158   9.626   1.614   4.338
 7440SOL    HW124159   9.591   1.648   4.255
 7440SOL    HW224160   9.552   1.621   4.399
 7441SOL     OW24161   3.098  12.763  11.101
 7441SOL    HW124162   3.155  12.827  11.058
 7441SOL    HW224163   3.039  12.815  11.155
 7442SOL     OW24164   5.128   4.300  12.348
 7442SOL    HW124165   5.066   4.333  12.283
 7442SOL    HW224166   5.091   4.217  12.377
 7443SOL     OW24167   2.032  13.215   8.195
 7443SOL    HW124168   2.006  13.302   8.224
 7443SOL    HW224169   2.074  13.176   8.272
 7444SOL     OW24170  12.295   9.035   1.457
 7444SOL    HW124171  12.304   9.073   1.544
 7444SOL    HW224172  12.241   9.098   1.409
 7445SOL     OW24173  12.216  13.790   7.301
 7445SOL    HW124174  12.295  13.823   7.344
 7445SOL    HW224175  12.242  13.707   7.262
 7446SOL     OW24176   2.040  10.225   9.615
 7446SOL    HW124177   2.015  10.301   9.562
 7446SOL    HW224178   2.127  10.202   9.584
 7447SOL     OW24179  11.035  12.477   8.093
 7447SOL    HW124180  11.097  12.472   8.165
 7447SOL    HW224181  11.054  12.400   8.040
 7448SOL     OW24182   7.471   6.237   4.264
 7448SOL    HW124183   7.396   6.292   4.241
 7448SOL    HW224184   7.438   6.148   4.254
 7449SOL     OW24185   7.297  12.946   4.559
 7449SOL    HW124186   7.368  12.896   4.520
 7449SOL    HW224187   7.328  12.969   4.646
 7450SOL     OW24188   2.041  10.871   3.597
 7450SOL    HW124189   2.045  10.783   3.635
 7450SOL    HW224190   2.011  10.858   3.508
 7451SOL     OW24191  14.141   9.887  12.154
 7451SOL    HW124192  14.092   9.898  12.072
 7451SOL    HW224193  14.130   9.794  12.175
 7452SOL     OW24194   8.484   4.318  14.700
 7452SOL    HW124195   8.528   4.341  14.618
 7452SOL    HW224196   8.399   4.282  14.673
 7453SOL     OW24197   4.880   1.808   4.990
 7453SOL    HW124198   4.910   1.850   5.070
 7453SOL    HW224199   4.878   1.715   5.011
 7454SOL     OW24200   1.008   1.060   9.552
 7454SOL    HW124201   0.989   1.072   9.645
 7454SOL    HW224202   1.037   0.969   9.544
 7455SOL     OW24203  12.574   4.589  10.222
 7455SOL    HW124204  12.586   4.678  10.255
 7455SOL    HW224205  12.491   4.592  10.174
 7456SOL     OW24206  11.014   5.485   6.065
 7456SOL    HW124207  11.028   5.575   6.037
 7456SOL    HW224208  10.930   5.460   6.025
 7457SOL     OW24209  13.140   9.650   9.364
 7457SOL    HW124210  13.084   9.572   9.358
 7457SOL    HW224211  13.078   9.722   9.375
 7458SOL     OW24212  12.906   6.478  13.079
 7458SOL    HW124213  12.823   6.504  13.119
 7458SOL    HW224214  12.925   6.547  13.016
 7459SOL     OW24215  11.476   0.613   5.917
 7459SOL    HW124216  11.541   0.623   5.847
 7459SOL    HW224217  11.400   0.663   5.886
 7460SOL     OW24218   0.518  11.511  11.051
 7460SOL    HW124219   0.425  11.536  11.054
 7460SOL    HW224220   0.535  11.495  10.958
 7461SOL     OW24221  11.623  13.735   4.704
 7461SOL    HW124222  11.531  13.729   4.676
 7461SOL    HW224223  11.651  13.822   4.674
 7462SOL     OW24224  14.281   0.101  11.169
 7462SOL    HW124225  14.274   0.193  11.146
 7462SOL    HW224226  14.347   0.098  11.238
 7463SOL     OW24227   9.696  10.739   2.009
 7463SOL    HW124228   9.709  10.811   1.947
 7463SOL    HW224229   9.601  10.733   2.019
 7464SOL     OW24230   9.234  14.201   2.968
 7464SOL    HW124231   9.223  14.250   3.049
 7464SOL    HW224232   9.173  14.128   2.976
 7465SOL     OW24233  11.208   6.389   1.839
 7465SOL    HW124234  11.257   6.377   1.758
 7465SOL    HW224235  11.240   6.319   1.897
 7466SOL     OW24236   5.663  13.812   3.015
 7466SOL    HW124237   5.691  13.846   2.930
 7466SOL    HW224238   5.568  13.825   3.015
 7467SOL     OW24239   6.949   9.553  11.115
 7467SOL    HW124240   6.968   9.523  11.026
 7467SOL    HW224241   7.023   9.609  11.138
 7468SOL     OW24242   3.078  11.759   7.239
 7468SOL    HW124243   2.995  11.800   7.214
 7468SOL    HW224244   3.053  11.670   7.265
 7469SOL     OW24245  14.126   3.794   0.721
 7469SOL    HW124246  14.097   3.873   0.676
 7469SOL    HW224247  14.152   3.735   0.650
 7470SOL     OW24248   9.684   3.527   2.450
 7470SOL    HW124249   9.657   3.565   2.533
 7470SOL    HW224250   9.774   3.497   2.464
 7471SOL     OW24251   2.175  13.793   8.823
 7471SOL    HW124252   2.193  13.755   8.909
 7471SOL    HW224253   2.171  13.888   8.839
 7472SOL     OW24254   2.704   4.179   5.870
 7472SOL    HW124255   2.734   4.137   5.789
 7472SOL    HW224256   2.763   4.253   5.882
 7473SOL     OW24257  14.605   3.800  11.832
 7473SOL    HW124258  14.587   3.867  11.766
 7473SOL    HW224259  14.551   3.725  11.806
 7474SOL     OW24260  10.041   8.195  11.506
 7474SOL    HW124261   9.990   8.152  11.575
 7474SOL    HW224262  10.109   8.132  11.484
 7475SOL     OW24263   4.847   0.112   0.909
 7475SOL    HW124264   4.776   0.101   0.846
 7475SOL    HW224265   4.856   0.207   0.920
 7476SOL     OW24266  13.079   2.642  14.546
 7476SOL    HW124267  13.087   2.723  14.495
 7476SOL    HW224268  12.985   2.631  14.559
 7477SOL     OW24269  13.411   6.856   2.985
 7477SOL    HW124270  13.438   6.793   3.053
 7477SOL    HW224271  13.428   6.941   3.024
 7478SOL     OW24272  14.234   7.169   6.162
 7478SOL    HW124273  14.282   7.210   6.233
 7478SOL    HW224274  14.156   7.132   6.204
 7479SOL     OW24275   2.239  11.795   8.964
 7479SOL    HW124276   2.289  11.839   9.033
 7479SOL    HW224277   2.281  11.822   8.882
 7480SOL     OW24278  13.762   2.643   6.203
 7480SOL    HW124279  13.699   2.712   6.184
 7480SOL    HW224280  13.781   2.604   6.117
 7481SOL     OW24281   2.419  11.542   2.485
 7481SOL    HW124282   2.425  11.564   2.392
 7481SOL    HW224283   2.330  11.564   2.510
 7482SOL     OW24284   6.342   8.148  11.910
 7482SOL    HW124285   6.349   8.107  11.996
 7482SOL    HW224286   6.353   8.242  11.928
 7483SOL     OW24287   3.553  14.411   9.607
 7483SOL    HW124288   3.504  14.420   9.689
 7483SOL    HW224289   3.560  14.316   9.594
 7484SOL     OW24290   2.881   7.019   3.313
 7484SOL    HW124291   2.948   7.044   3.249
 7484SOL    HW224292   2.812   7.085   3.302
 7485SOL     OW24293   8.059   6.368   5.107
 7485SOL    HW124294   8.061   6.333   5.196
 7485SOL    HW224295   8.085   6.460   5.116
 7486SOL     OW24296   7.943   2.068   5.720
 7486SOL    HW124297   7.915   1.976   5.718
 7486SOL    HW224298   7.885   2.112   5.658
 7487SOL     OW24299   2.742   6.488   2.287
 7487SOL    HW124300   2.799   6.423   2.329
 7487SOL    HW224301   2.802   6.544   2.238
 7488SOL     OW24302   3.207   0.630   5.426
 7488SOL    HW124303   3.203   0.587   5.341
 7488SOL    HW224304   3.235   0.720   5.407
 7489SOL     OW24305  14.430   5.275   2.244
 7489SOL    HW124306  14.347   5.242   2.211
 7489SOL    HW224307  14.444   5.226   2.326
 7490SOL     OW24308  14.110   7.871   6.314
 7490SOL    HW124309  14.084   7.918   6.235
 7490SOL    HW224310  14.054   7.907   6.383
 7491SOL     OW24311   7.911   6.789   3.442
 7491SOL    HW124312   7.964   6.709   3.442
 7491SOL    HW224313   7.973   6.858   3.464
 7492SOL     OW24314   4.387   4.022  12.829
 7492SOL    HW124315   4.453   3.980  12.884
 7492SOL    HW224316   4.421   4.014  12.740
 7493SOL     OW24317  11.911   4.105  10.700
 7493SOL    HW124318  11.944   4.038  10.641
 7493SOL    HW224319  11.944   4.187  10.664
 7494SOL     OW24320   7.808  10.769   5.346
 7494SOL    HW124321   7.869  10.843   5.351
 7494SOL    HW224322   7.730  10.805   5.305
 7495SOL     OW24323   8.744   2.272   7.218
 7495SOL    HW124324   8.664   2.301   7.261
 7495SOL    HW224325   8.815   2.308   7.271
 7496SOL     OW24326   3.442   8.807   8.324
 7496SOL    HW124327   3.480   8.720   8.307
 7496SOL    HW224328   3.403   8.799   8.411
 7497SOL     OW24329   8.821   5.272  11.898
 7497SOL    HW124330   8.835   5.349  11.953
 7497SOL    HW224331   8.738   5.289  11.854
 7498SOL     OW24332   4.582  13.063   3.406
 7498SOL    HW124333   4.647  13.133   3.412
 7498SOL    HW224334   4.575  13.044   3.313
 7499SOL     OW24335   1.886   7.810  12.468
 7499SOL    HW124336   1.841   7.730  12.495
 7499SOL    HW224337   1.968   7.780  12.428
 7500SOL     OW24338   3.607   5.895   3.744
 7500SOL    HW124339   3.574   5.932   3.662
 7500SOL    HW224340   3.627   5.804   3.724
 7501SOL     OW24341   2.446   4.385  13.765
 7501SOL    HW124342   2.453   4.351  13.855
 7501SOL    HW224343   2.353   4.405  13.754
 7502SOL     OW24344  12.206  14.655  10.838
 7502SOL    HW124345  12.159  14.573  10.851
 7502SOL    HW224346  12.286  14.645  10.890
 7503SOL     OW24347   5.781   4.359  12.958
 7503SOL    HW124348   5.818   4.341  12.872
 7503SOL    HW224349   5.829   4.299  13.017
 7504SOL     OW24350   3.089  11.508   3.191
 7504SOL    HW124351   3.076  11.413   3.192
 7504SOL    HW224352   3.142  11.526   3.269
 7505SOL     OW24353   1.694   8.645   9.644
 7505SOL    HW124354   1.753   8.620   9.573
 7505SOL    HW224355   1.609   8.656   9.602
 7506SOL     OW24356   1.428   5.028  11.990
 7506SOL    HW124357   1.422   5.096  12.057
 7506SOL    HW224358   1.468   5.073  11.915
 7507SOL     OW24359   9.981  10.226  10.722
 7507SOL    HW124360   9.894  10.259  10.746
 7507SOL    HW224361   9.989  10.143  10.769
 7508SOL     OW24362   7.632  10.521  10.487
 7508SOL    HW124363   7.687  10.445  10.469
 7508SOL    HW224364   7.693  10.592  10.508
 7509SOL     OW24365   7.487   4.726   8.909
 7509SOL    HW124366   7.407   4.717   8.960
 7509SOL    HW224367   7.554   4.753   8.972
 7510SOL     OW24368   9.013   6.672   3.398
 7510SOL    HW124369   9.031   6.655   3.306
 7510SOL    HW224370   8.983   6.763   3.400
 7511SOL     OW24371   4.820   9.508  12.226
 7511SOL    HW124372   4.884   9.560  12.275
 7511SOL    HW224373   4.869   9.431  12.197
 7512SOL     OW24374   8.913  10.465   2.403
 7512SOL    HW124375   8.924  10.535   2.339
 7512SOL    HW224376   8.998  10.458   2.446
 7513SOL     OW24377  10.138   7.119  10.417
 7513SOL    HW124378  10.184   7.202  10.400
 7513SOL    HW224379  10.116   7.085  10.331
 7514SOL     OW24380   7.746   9.816   6.780
 7514SOL    HW124381   7.763   9.886   6.842
 7514SOL    HW224382   7.774   9.851   6.695
 7515SOL     OW24383   5.111   7.854   4.214
 7515SOL    HW124384   5.148   7.814   4.293
 7515SOL    HW224385   5.041   7.795   4.188
 7516SOL     OW24386   7.332   0.601   7.427
 7516SOL    HW124387   7.323   0.629   7.336
 7516SOL    HW224388   7.304   0.676   7.478
 7517SOL     OW24389   5.869   3.568   7.249
 7517SOL    HW124390   5.934   3.599   7.312
 7517SOL    HW224391   5.841   3.483   7.284
 7518SOL     OW24392  13.715  14.461   8.235
 7518SOL    HW124393  13.741  14.523   8.303
 7518SOL    HW224394  13.621  14.447   8.251
 7519SOL     OW24395   1.581  12.315  10.185
 7519SOL    HW124396   1.641  12.337  10.255
 7519SOL    HW224397   1.618  12.357  10.107
 7520SOL     OW24398   7.893   5.629   7.052
 7520SOL    HW124399   7.914   5.722   7.049
 7520SOL    HW224400   7.821   5.619   6.989
 7521SOL     OW24401   3.231   7.500   3.169
 7521SOL    HW124402   3.183   7.569   3.215
 7521SOL    HW224403   3.201   7.419   3.209
 7522SOL     OW24404   0.342   2.311   0.565
 7522SOL    HW124405   0.335   2.401   0.598
 7522SOL    HW224406   0.435   2.290   0.574
 7523SOL     OW24407   8.651   6.846   3.406
 7523SOL    HW124408   8.594   6.879   3.336
 7523SOL    HW224409   8.739   6.874   3.382
 7524SOL     OW24410   5.685   8.467   7.044
 7524SOL    HW124411   5.671   8.500   7.133
 7524SOL    HW224412   5.621   8.397   7.034
 7525SOL     OW24413  12.952   1.688   4.280
 7525SOL    HW124414  12.981   1.778   4.294
 7525SOL    HW224415  13.029   1.634   4.297
 7526SOL     OW24416   9.843  12.692  14.811
 7526SOL    HW124417   9.781  12.729   0.001
 7526SOL    HW224418   9.794  12.624  14.765
 7527SOL     OW24419   8.396   5.638   4.724
 7527SOL    HW124420   8.367   5.662   4.636
 7527SOL    HW224421   8.354   5.703   4.781
 7528SOL     OW24422   5.644  13.372  13.647
 7528SOL    HW124423   5.636  13.466  13.635
 7528SOL    HW224424   5.635  13.359  13.742
 7529SOL     OW24425  12.785   9.197   3.103
 7529SOL    HW124426  12.830   9.172   3.184
 7529SOL    HW224427  12.692   9.193   3.126
 7530SOL     OW24428   0.187   7.142  12.664
 7530SOL    HW124429   0.126   7.189  12.608
 7530SOL    HW224430   0.265   7.129  12.609
 7531SOL     OW24431   6.309   0.318  14.636
 7531SOL    HW124432   6.222   0.286  14.613
 7531SOL    HW224433   6.367   0.279  14.572
 7532SOL     OW24434   4.740   7.232   4.100
 7532SOL    HW124435   4.647   7.253   4.097
 7532SOL    HW224436   4.755   7.175   4.025
 7533SOL     OW24437   9.860  12.587   5.636
 7533SOL    HW124438   9.848  12.509   5.581
 7533SOL    HW224439   9.948  12.617   5.616
 7534SOL     OW24440   2.910  11.489   8.452
 7534SOL    HW124441   3.005  11.496   8.441
 7534SOL    HW224442   2.897  11.402   8.490
 7535SOL     OW24443  13.986   6.113   8.724
 7535SOL    HW124444  14.030   6.195   8.748
 7535SOL    HW224445  13.941   6.133   8.643
 7536SOL     OW24446  11.202  12.110   0.353
 7536SOL    HW124447  11.192  12.060   0.434
 7536SOL    HW224448  11.143  12.185   0.363
 7537SOL     OW24449   5.071   7.114   8.039
 7537SOL    HW124450   5.070   7.207   8.016
 7537SOL    HW224451   5.144   7.106   8.101
 7538SOL     OW24452   3.361   2.349   5.952
 7538SOL    HW124453   3.391   2.280   6.011
 7538SOL    HW224454   3.320   2.303   5.879
 7539SOL     OW24455   1.187   1.565  14.243
 7539SOL    HW124456   1.113   1.622  14.266
 7539SOL    HW224457   1.264   1.614  14.273
 7540SOL     OW24458   8.323  10.024   5.045
 7540SOL    HW124459   8.412  10.057   5.042
 7540SOL    HW224460   8.325   9.953   5.109
 7541SOL     OW24461   4.822   3.723   0.328
 7541SOL    HW124462   4.749   3.664   0.347
 7541SOL    HW224463   4.837   3.713   0.234
 7542SOL     OW24464  12.338   4.171  14.163
 7542SOL    HW124465  12.370   4.121  14.237
 7542SOL    HW224466  12.248   4.141  14.150
 7543SOL     OW24467   8.665   5.802   1.350
 7543SOL    HW124468   8.582   5.763   1.376
 7543SOL    HW224469   8.709   5.733   1.300
 7544SOL     OW24470   3.394   1.464  12.297
 7544SOL    HW124471   3.447   1.394  12.336
 7544SOL    HW224472   3.405   1.538  12.356
 7545SOL     OW24473  10.855  14.798   0.995
 7545SOL    HW124474  10.887  14.845   1.072
 7545SOL    HW224475  10.818  14.866   0.939
 7546SOL     OW24476   5.965   5.393   7.515
 7546SOL    HW124477   5.878   5.391   7.476
 7546SOL    HW224478   6.004   5.474   7.482
 7547SOL     OW24479   8.441   8.645   3.168
 7547SOL    HW124480   8.488   8.562   3.156
 7547SOL    HW224481   8.492   8.692   3.233
 7548SOL     OW24482   3.460   7.470  12.780
 7548SOL    HW124483   3.397   7.485  12.710
 7548SOL    HW224484   3.532   7.530  12.762
 7549SOL     OW24485  12.272   5.954  13.876
 7549SOL    HW124486  12.344   6.012  13.852
 7549SOL    HW224487  12.205   6.011  13.913
 7550SOL     OW24488  10.823   6.077   5.868
 7550SOL    HW124489  10.738   6.037   5.848
 7550SOL    HW224490  10.863   6.093   5.783
 7551SOL     OW24491  12.992   2.044   2.935
 7551SOL    HW124492  12.923   1.978   2.946
 7551SOL    HW224493  13.064   2.011   2.990
 7552SOL     OW24494   5.890   4.323   5.868
 7552SOL    HW124495   5.941   4.350   5.792
 7552SOL    HW224496   5.803   4.361   5.853
 7553SOL     OW24497   1.883  11.442  13.382
 7553SOL    HW124498   1.869  11.528  13.343
 7553SOL    HW224499   1.829  11.442  13.461
 7554SOL     OW24500   5.191   0.578   7.857
 7554SOL    HW124501   5.147   0.569   7.773
 7554SOL    HW224502   5.242   0.659   7.849
 7555SOL     OW24503  10.446   2.179   1.056
 7555SOL    HW124504  10.442   2.252   0.994
 7555SOL    HW224505  10.361   2.178   1.099
 7556SOL     OW24506  11.447  13.503   7.804
 7556SOL    HW124507  11.535  13.533   7.828
 7556SOL    HW224508  11.391  13.580   7.814
 7557SOL     OW24509   7.097   9.560   4.362
 7557SOL    HW124510   7.150   9.495   4.409
 7557SOL    HW224511   7.101   9.533   4.271
 7558SOL     OW24512  12.047   7.214   2.980
 7558SOL    HW124513  12.113   7.246   2.919
 7558SOL    HW224514  11.968   7.264   2.958
 7559SOL     OW24515  10.453  14.224   1.833
 7559SOL    HW124516  10.431  14.137   1.800
 7559SOL    HW224517  10.376  14.277   1.814
 7560SOL     OW24518   5.294   2.940  11.975
 7560SOL    HW124519   5.381   2.980  11.981
 7560SOL    HW224520   5.239   3.007  11.937
 7561SOL     OW24521   6.629   8.760   8.336
 7561SOL    HW124522   6.655   8.745   8.426
 7561SOL    HW224523   6.547   8.808   8.342
 7562SOL     OW24524  11.636   4.010   4.598
 7562SOL    HW124525  11.591   4.014   4.683
 7562SOL    HW224526  11.715   4.062   4.611
 7563SOL     OW24527   1.832   9.300   3.834
 7563SOL    HW124528   1.877   9.287   3.751
 7563SOL    HW224529   1.790   9.216   3.853
 7564SOL     OW24530   8.572  14.059   3.707
 7564SOL    HW124531   8.578  14.084   3.800
 7564SOL    HW224532   8.659  14.077   3.672
 7565SOL     OW24533   1.256   1.011  11.969
 7565SOL    HW124534   1.314   0.936  11.983
 7565SOL    HW224535   1.178   0.990  12.020
 7566SOL     OW24536   4.653  14.148  13.568
 7566SOL    HW124537   4.583  14.213  13.576
 7566SOL    HW224538   4.733  14.200  13.571
 7567SOL     OW24539  11.141   5.498  12.823
 7567SOL    HW124540  11.175   5.553  12.753
 7567SOL    HW224541  11.141   5.409  12.787
 7568SOL     OW24542   1.111   2.369  10.394
 7568SOL    HW124543   1.038   2.396  10.450
 7568SOL    HW224544   1.184   2.355  10.454
 7569SOL     OW24545   2.824  13.892   4.249
 7569SOL    HW124546   2.880  13.913   4.323
 7569SOL    HW224547   2.838  13.963   4.187
 7570SOL     OW24548  12.164   0.318   2.167
 7570SOL    HW124549  12.173   0.411   2.147
 7570SOL    HW224550  12.254   0.284   2.159
 7571SOL     OW24551   7.319   9.784   6.442
 7571SOL    HW124552   7.379   9.737   6.500
 7571SOL    HW224553   7.365   9.865   6.421
 7572SOL     OW24554  13.264   6.588  14.174
 7572SOL    HW124555  13.230   6.514  14.124
 7572SOL    HW224556  13.263   6.558  14.265
 7573SOL     OW24557   5.932   0.235   0.508
 7573SOL    HW124558   5.852   0.262   0.462
 7573SOL    HW224559   5.983   0.189   0.442
 7574SOL     OW24560   5.278  14.344   6.836
 7574SOL    HW124561   5.252  14.432   6.863
 7574SOL    HW224562   5.333  14.358   6.759
 7575SOL     OW24563  14.677  14.402   7.676
 7575SOL    HW124564  14.766  14.438   7.680
 7575SOL    HW224565  14.649  14.417   7.586
 7576SOL     OW24566  13.419  10.843   5.390
 7576SOL    HW124567  13.420  10.772   5.454
 7576SOL    HW224568  13.468  10.809   5.316
 7577SOL     OW24569   4.237   9.857  12.817
 7577SOL    HW124570   4.201   9.945  12.823
 7577SOL    HW224571   4.290   9.847  12.896
 7578SOL     OW24572   1.526   8.128   7.004
 7578SOL    HW124573   1.481   8.209   6.982
 7578SOL    HW224574   1.596   8.155   7.063
 7579SOL     OW24575   1.124  12.783   0.916
 7579SOL    HW124576   1.187  12.739   0.972
 7579SOL    HW224577   1.086  12.714   0.863
 7580SOL     OW24578   6.410  14.293   9.927
 7580SOL    HW124579   6.468  14.248   9.865
 7580SOL    HW224580   6.433  14.386   9.917
 7581SOL     OW24581   1.722  11.061   5.738
 7581SOL    HW124582   1.667  11.058   5.660
 7581SOL    HW224583   1.782  10.987   5.728
 7582SOL     OW24584  10.763  12.277   4.236
 7582SOL    HW124585  10.742  12.359   4.281
 7582SOL    HW224586  10.692  12.266   4.173
 7583SOL     OW24587  13.126  11.722  10.736
 7583SOL    HW124588  13.193  11.714  10.668
 7583SOL    HW224589  13.168  11.771  10.806
 7584SOL     OW24590   8.494   4.102  12.156
 7584SOL    HW124591   8.539   4.098  12.240
 7584SOL    HW224592   8.553   4.058  12.095
 7585SOL     OW24593   1.836   8.469   6.005
 7585SOL    HW124594   1.904   8.495   5.942
 7585SOL    HW224595   1.875   8.485   6.090
 7586SOL     OW24596  10.187  14.020  10.818
 7586SOL    HW124597  10.279  13.999  10.833
 7586SOL    HW224598  10.150  14.030  10.905
 7587SOL     OW24599   0.132   4.925  11.701
 7587SOL    HW124600   0.111   4.833  11.688
 7587SOL    HW224601   0.057   4.973  11.663
 7588SOL     OW24602   7.947   1.271  12.990
 7588SOL    HW124603   7.972   1.198  13.047
 7588SOL    HW224604   7.940   1.346  13.049
 7589SOL     OW24605   2.331   0.291   2.146
 7589SOL    HW124606   2.385   0.216   2.121
 7589SOL    HW224607   2.246   0.275   2.104
 7590SOL     OW24608   9.209   4.967  13.793
 7590SOL    HW124609   9.118   4.966  13.823
 7590SOL    HW224610   9.203   4.947  13.699
 7591SOL     OW24611   3.303  11.027   8.628
 7591SOL    HW124612   3.222  11.073   8.650
 7591SOL    HW224613   3.342  11.007   8.713
 7592SOL     OW24614  14.310   2.432   4.033
 7592SOL    HW124615  14.386   2.374   4.032
 7592SOL    HW224616  14.312   2.473   4.120
 7593SOL     OW24617   1.821   2.958  13.470
 7593SOL    HW124618   1.812   3.031  13.410
 7593SOL    HW224619   1.732   2.931  13.490
 7594SOL     OW24620   5.964   9.889   7.684
 7594SOL    HW124621   5.978   9.859   7.774
 7594SOL    HW224622   6.013   9.829   7.630
 7595SOL     OW24623   7.518   2.826   1.668
 7595SOL    HW124624   7.570   2.787   1.598
 7595SOL    HW224625   7.572   2.818   1.747
 7596SOL     OW24626   9.869   4.555  14.493
 7596SOL    HW124627   9.901   4.550  14.584
 7596SOL    HW224628   9.936   4.510  14.442
 7597SOL     OW24629  12.340   5.435  10.017
 7597SOL    HW124630  12.275   5.374   9.982
 7597SOL    HW224631  12.331   5.428  10.112
 7598SOL     OW24632   2.366  11.517  11.028
 7598SOL    HW124633   2.346  11.602  11.066
 7598SOL    HW224634   2.296  11.459  11.060
 7599SOL     OW24635  11.244   4.031  14.332
 7599SOL    HW124636  11.178   3.982  14.382
 7599SOL    HW224637  11.226   4.123  14.353
 7600SOL     OW24638   6.423  13.339   6.670
 7600SOL    HW124639   6.486  13.397   6.712
 7600SOL    HW224640   6.449  13.252   6.697
 7601SOL     OW24641  13.978   1.959  14.126
 7601SOL    HW124642  13.884   1.958  14.107
 7601SOL    HW224643  14.014   1.886  14.075
 7602SOL     OW24644   4.176   4.839  10.603
 7602SOL    HW124645   4.222   4.812  10.682
 7602SOL    HW224646   4.242   4.886  10.552
 7603SOL     OW24647   2.217   9.575   2.800
 7603SOL    HW124648   2.198   9.494   2.753
 7603SOL    HW224649   2.133   9.604   2.833
 7604SOL     OW24650  11.073   8.955   2.295
 7604SOL    HW124651  11.097   8.900   2.221
 7604SOL    HW224652  10.977   8.952   2.297
 7605SOL     OW24653   7.110   1.095  14.239
 7605SOL    HW124654   7.078   1.146  14.314
 7605SOL    HW224655   7.079   1.006  14.256
 7606SOL     OW24656   6.610   7.348  10.680
 7606SOL    HW124657   6.540   7.375  10.620
 7606SOL    HW224658   6.570   7.281  10.736
 7607SOL     OW24659  12.488  13.292   9.734
 7607SOL    HW124660  12.554  13.298   9.665
 7607SOL    HW224661  12.416  13.347   9.703
 7608SOL     OW24662  13.951   1.992  10.062
 7608SOL    HW124663  13.949   2.081  10.027
 7608SOL    HW224664  13.862   1.977  10.094
 7609SOL     OW24665   6.436  13.112   9.821
 7609SOL    HW124666   6.499  13.165   9.772
 7609SOL    HW224667   6.405  13.048   9.757
 7610SOL     OW24668   8.534   0.847  14.308
 7610SOL    HW124669   8.497   0.918  14.255
 7610SOL    HW224670   8.627   0.870  14.317
 7611SOL     OW24671   5.660  11.160  10.453
 7611SOL    HW124672   5.588  11.223  10.447
 7611SOL    HW224673   5.621  11.084  10.497
 7612SOL     OW24674   7.281   8.111  10.511
 7612SOL    HW124675   7.302   8.053  10.437
 7612SOL    HW224676   7.223   8.059  10.567
 7613SOL     OW24677   5.225   7.654  14.272
 7613SOL    HW124678   5.204   7.739  14.311
 7613SOL    HW224679   5.303   7.671  14.219
 7614SOL     OW24680   1.534  11.817   5.791
 7614SOL    HW124681   1.454  11.799   5.743
 7614SOL    HW224682   1.534  11.913   5.801
 7615SOL     OW24683   2.769   0.435  11.531
 7615SOL    HW124684   2.733   0.509  11.579
 7615SOL    HW224685   2.761   0.459  11.439
 7616SOL     OW24686   1.494   6.333   9.324
 7616SOL    HW124687   1.536   6.407   9.280
 7616SOL    HW224688   1.498   6.355   9.417
 7617SOL     OW24689   8.759   6.641   4.573
 7617SOL    HW124690   8.706   6.610   4.647
 7617SOL    HW224691   8.721   6.598   4.496
 7618SOL     OW24692   0.116   2.417   1.567
 7618SOL    HW124693   0.115   2.343   1.505
 7618SOL    HW224694   0.182   2.393   1.632
 7619SOL     OW24695   1.373  12.424  11.598
 7619SOL    HW124696   1.294  12.372  11.610
 7619SOL    HW224697   1.346  12.514  11.618
 7620SOL     OW24698  10.133  14.248   2.501
 7620SOL    HW124699  10.208  14.285   2.454
 7620SOL    HW224700  10.129  14.298   2.583
 7621SOL     OW24701   5.617   3.182  14.242
 7621SOL    HW124702   5.596   3.098  14.203
 7621SOL    HW224703   5.532   3.226  14.251
 7622SOL     OW24704  12.879  13.060   3.765
 7622SOL    HW124705  12.937  13.027   3.696
 7622SOL    HW224706  12.916  13.145   3.788
 7623SOL     OW24707  10.669   3.405   3.774
 7623SOL    HW124708  10.586   3.426   3.818
 7623SOL    HW224709  10.642   3.369   3.690
 7624SOL     OW24710  12.084  12.273  14.255
 7624SOL    HW124711  12.040  12.330  14.192
 7624SOL    HW224712  12.012  12.227  14.299
 7625SOL     OW24713  11.908   4.143   1.611
 7625SOL    HW124714  11.869   4.231   1.609
 7625SOL    HW224715  11.847   4.089   1.561
 7626SOL     OW24716  13.109   5.032   4.525
 7626SOL    HW124717  13.111   4.981   4.444
 7626SOL    HW224718  13.165   5.107   4.508
 7627SOL     OW24719   7.983   5.416   1.188
 7627SOL    HW124720   7.985   5.369   1.271
 7627SOL    HW224721   7.897   5.395   1.151
 7628SOL     OW24722  11.735   2.213   4.688
 7628SOL    HW124723  11.679   2.169   4.753
 7628SOL    HW224724  11.696   2.191   4.604
 7629SOL     OW24725   0.556   0.989   3.805
 7629SOL    HW124726   0.500   0.978   3.882
 7629SOL    HW224727   0.511   0.941   3.735
 7630SOL     OW24728   5.134  12.514  13.454
 7630SOL    HW124729   5.040  12.518  13.437
 7630SOL    HW224730   5.166  12.444  13.397
 7631SOL     OW24731   9.019   6.433  10.555
 7631SOL    HW124732   8.963   6.504  10.524
 7631SOL    HW224733   8.962   6.380  10.611
 7632SOL     OW24734  14.841   7.275  12.527
 7632SOL    HW124735  14.818   7.202  12.469
 7632SOL    HW224736  14.772   7.275  12.593
 7633SOL     OW24737  11.488   1.936   9.126
 7633SOL    HW124738  11.521   1.914   9.039
 7633SOL    HW224739  11.412   1.879   9.137
 7634SOL     OW24740   8.085   3.451   4.469
 7634SOL    HW124741   8.096   3.544   4.487
 7634SOL    HW224742   8.126   3.437   4.384
 7635SOL     OW24743  11.285   4.075  10.629
 7635SOL    HW124744  11.243   3.991  10.646
 7635SOL    HW224745  11.312   4.070  10.537
 7636SOL     OW24746   9.790   8.663   9.582
 7636SOL    HW124747   9.818   8.576   9.611
 7636SOL    HW224748   9.702   8.649   9.548
 7637SOL     OW24749   8.410   2.707   7.702
 7637SOL    HW124750   8.339   2.643   7.703
 7637SOL    HW224751   8.372   2.785   7.660
 7638SOL     OW24752   8.285   5.217  10.289
 7638SOL    HW124753   8.353   5.152  10.270
 7638SOL    HW224754   8.206   5.166  10.307
 7639SOL     OW24755   0.914  11.835   9.482
 7639SOL    HW124756   0.931  11.756   9.533
 7639SOL    HW224757   0.933  11.810   9.392
 7640SOL     OW24758  11.140   0.451  11.433
 7640SOL    HW124759  11.135   0.513  11.506
 7640SOL    HW224760  11.061   0.397  11.443
 7641SOL     OW24761   9.837  11.046  11.588
 7641SOL    HW124762   9.782  11.054  11.665
 7641SOL    HW224763   9.914  11.099  11.608
 7642SOL     OW24764  13.581   6.363   5.483
 7642SOL    HW124765  13.518   6.291   5.486
 7642SOL    HW224766  13.553   6.423   5.553
 7643SOL     OW24767   8.936   6.586   4.806
 7643SOL    HW124768   8.930   6.628   4.891
 7643SOL    HW224769   8.879   6.638   4.749
 7644SOL     OW24770  11.080  13.306  10.645
 7644SOL    HW124771  11.058  13.244  10.575
 7644SOL    HW224772  11.074  13.392  10.604
 7645SOL     OW24773  12.615   9.140  11.504
 7645SOL    HW124774  12.642   9.069  11.563
 7645SOL    HW224775  12.520   9.144  11.514
 7646SOL     OW24776  10.391   4.082   2.858
 7646SOL    HW124777  10.381   4.061   2.765
 7646SOL    HW224778  10.301   4.093   2.890
 7647SOL     OW24779  14.411   1.892  11.148
 7647SOL    HW124780  14.339   1.829  11.154
 7647SOL    HW224781  14.368   1.977  11.149
 7648SOL     OW24782   5.442   0.213  10.107
 7648SOL    HW124783   5.422   0.232  10.199
 7648SOL    HW224784   5.385   0.272  10.058
 7649SOL     OW24785  12.067   9.248  11.814
 7649SOL    HW124786  11.982   9.229  11.855
 7649SOL    HW224787  12.130   9.241  11.886
 7650SOL     OW24788   3.879   2.117  12.183
 7650SOL    HW124789   3.888   2.140  12.091
 7650SOL    HW224790   3.820   2.183  12.219
 7651SOL     OW24791  12.678   9.715   3.656
 7651SOL    HW124792  12.734   9.674   3.721
 7651SOL    HW224793  12.656   9.801   3.693
 7652SOL     OW24794   5.469   6.285   3.980
 7652SOL    HW124795   5.553   6.308   3.941
 7652SOL    HW224796   5.447   6.200   3.942
 7653SOL     OW24797   0.596   5.263   2.215
 7653SOL    HW124798   0.632   5.315   2.144
 7653SOL    HW224799   0.501   5.275   2.208
 7654SOL     OW24800   9.453   6.579  10.610
 7654SOL    HW124801   9.436   6.629  10.530
 7654SOL    HW224802   9.372   6.583  10.659
 7655SOL     OW24803   8.189   6.705   7.573
 7655SOL    HW124804   8.269   6.757   7.581
 7655SOL    HW224805   8.156   6.726   7.485
 7656SOL     OW24806   7.483   0.987   1.293
 7656SOL    HW124807   7.542   1.061   1.282
 7656SOL    HW224808   7.423   1.014   1.363
 7657SOL     OW24809   3.233   6.978   0.360
 7657SOL    HW124810   3.217   7.038   0.287
 7657SOL    HW224811   3.306   7.016   0.407
 7658SOL     OW24812   1.641   4.629   2.622
 7658SOL    HW124813   1.599   4.687   2.557
 7658SOL    HW224814   1.727   4.611   2.585
 7659SOL     OW24815   9.338   7.795   6.595
 7659SOL    HW124816   9.412   7.806   6.655
 7659SOL    HW224817   9.270   7.753   6.648
 7660SOL     OW24818  13.399  12.688  10.150
 7660SOL    HW124819  13.476  12.631  10.146
 7660SOL    HW224820  13.424  12.758  10.211
 7661SOL     OW24821   8.537  11.554   7.357
 7661SOL    HW124822   8.604  11.500   7.400
 7661SOL    HW224823   8.550  11.540   7.264
 7662SOL     OW24824   5.429   0.682   1.282
 7662SOL    HW124825   5.502   0.692   1.344
 7662SOL    HW224826   5.460   0.619   1.218
 7663SOL     OW24827   4.835   8.703   2.370
 7663SOL    HW124828   4.847   8.790   2.406
 7663SOL    HW224829   4.910   8.653   2.402
 7664SOL     OW24830   3.515   2.303   8.015
 7664SOL    HW124831   3.540   2.382   8.064
 7664SOL    HW224832   3.446   2.263   8.068
 7665SOL     OW24833   0.880  14.556  11.368
 7665SOL    HW124834   0.802  14.524  11.323
 7665SOL    HW224835   0.923  14.613  11.305
 7666SOL     OW24836  13.872   3.430   3.642
 7666SOL    HW124837  13.852   3.403   3.732
 7666SOL    HW224838  13.905   3.519   3.649
 7667SOL     OW24839   4.426   2.259  12.855
 7667SOL    HW124840   4.336   2.254  12.823
 7667SOL    HW224841   4.475   2.297  12.782
 7668SOL     OW24842  11.341  12.545   5.557
 7668SOL    HW124843  11.354  12.572   5.648
 7668SOL    HW224844  11.424  12.564   5.514
 7669SOL     OW24845   1.160  13.059   0.924
 7669SOL    HW124846   1.195  13.041   1.011
 7669SOL    HW224847   1.156  12.974   0.881
 7670SOL     OW24848  11.601   8.447  13.269
 7670SOL    HW124849  11.640   8.397  13.341
 7670SOL    HW224850  11.650   8.530  13.269
 7671SOL     OW24851  11.801  14.013  14.734
 7671SOL    HW124852  11.715  13.973  14.744
 7671SOL    HW224853  11.860  13.939  14.718
 7672SOL     OW24854   8.711  11.025   5.632
 7672SOL    HW124855   8.685  11.076   5.556
 7672SOL    HW224856   8.806  11.019   5.625
 7673SOL     OW24857   3.790   1.487  10.957
 7673SOL    HW124858   3.775   1.414  11.017
 7673SOL    HW224859   3.844   1.548  11.007
 7674SOL     OW24860   6.928   4.661   2.206
 7674SOL    HW124861   6.891   4.739   2.165
 7674SOL    HW224862   6.913   4.591   2.143
 7675SOL     OW24863   9.977   1.753  11.982
 7675SOL    HW124864   9.955   1.666  12.016
 7675SOL    HW224865   9.995   1.806  12.060
 7676SOL     OW24866  12.941   6.162  12.649
 7676SOL    HW124867  12.916   6.250  12.619
 7676SOL    HW224868  12.944   6.169  12.745
 7677SOL     OW24869   4.288   0.502   3.432
 7677SOL    HW124870   4.232   0.576   3.452
 7677SOL    HW224871   4.231   0.439   3.389
 7678SOL     OW24872  12.178  13.060   1.177
 7678SOL    HW124873  12.173  13.133   1.115
 7678SOL    HW224874  12.101  13.072   1.233
 7679SOL     OW24875   2.318   2.092   5.863
 7679SOL    HW124876   2.345   2.030   5.795
 7679SOL    HW224877   2.347   2.177   5.831
 7680SOL     OW24878  14.592   6.866   5.945
 7680SOL    HW124879  14.587   6.938   5.881
 7680SOL    HW224880  14.631   6.794   5.896
 7681SOL     OW24881  10.135  12.878   2.916
 7681SOL    HW124882  10.178  12.794   2.904
 7681SOL    HW224883  10.201  12.943   2.890
 7682SOL     OW24884  13.090  14.604   0.502
 7682SOL    HW124885  13.138  14.646   0.431
 7682SOL    HW224886  13.017  14.663   0.521
 7683SOL     OW24887   3.107   8.643   7.815
 7683SOL    HW124888   3.153   8.695   7.881
 7683SOL    HW224889   3.030   8.609   7.861
 7684SOL     OW24890   5.492   4.319   6.730
 7684SOL    HW124891   5.579   4.291   6.759
 7684SOL    HW224892   5.460   4.247   6.676
 7685SOL     OW24893   8.103   9.822  12.589
 7685SOL    HW124894   8.156   9.892  12.627
 7685SOL    HW224895   8.072   9.772  12.665
 7686SOL     OW24896   5.028   5.552  12.883
 7686SOL    HW124897   5.112   5.597  12.881
 7686SOL    HW224898   4.976   5.595  12.816
 7687SOL     OW24899   1.221   2.262   1.838
 7687SOL    HW124900   1.249   2.346   1.802
 7687SOL    HW224901   1.289   2.239   1.901
 7688SOL     OW24902   8.379   5.944  14.741
 7688SOL    HW124903   8.309   5.894  14.700
 7688SOL    HW224904   8.424   5.986  14.668
 7689SOL     OW24905   0.616   6.757  10.692
 7689SOL    HW124906   0.547   6.736  10.629
 7689SOL    HW224907   0.631   6.675  10.739
 7690SOL     OW24908   6.002   7.590   7.648
 7690SOL    HW124909   6.058   7.548   7.583
 7690SOL    HW224910   6.005   7.683   7.625
 7691SOL     OW24911  13.044   2.725  12.699
 7691SOL    HW124912  12.986   2.793  12.666
 7691SOL    HW224913  13.001   2.693  12.778
 7692SOL     OW24914   8.116   4.687  14.642
 7692SOL    HW124915   8.207   4.696  14.611
 7692SOL    HW224916   8.107   4.594  14.661
 7693SOL     OW24917   6.875  14.017   4.410
 7693SOL    HW124918   6.820  13.981   4.341
 7693SOL    HW224919   6.964  14.014   4.374
 7694SOL     OW24920  13.074  12.416   3.485
 7694SOL    HW124921  13.140  12.384   3.424
 7694SOL    HW224922  13.084  12.361   3.563
 7695SOL     OW24923  14.797   0.914  12.743
 7695SOL    HW124924  14.709   0.876  12.737
 7695SOL    HW224925  14.848   0.865  12.679
 7696SOL     OW24926   7.433   3.913  14.086
 7696SOL    HW124927   7.426   4.006  14.105
 7696SOL    HW224928   7.411   3.905  13.993
 7697SOL     OW24929   8.913   4.267  12.847
 7697SOL    HW124930   8.821   4.293  12.843
 7697SOL    HW224931   8.954   4.330  12.906
 7698SOL     OW24932   0.488   5.553   6.798
 7698SOL    HW124933   0.412   5.588   6.752
 7698SOL    HW224934   0.540   5.511   6.730
 7699SOL     OW24935   4.521   1.452   7.967
 7699SOL    HW124936   4.431   1.447   7.998
 7699SOL    HW224937   4.525   1.390   7.895
 7700SOL     OW24938   5.520   6.323  14.435
 7700SOL    HW124939   5.542   6.337  14.527
 7700SOL    HW224940   5.442   6.267  14.438
 7701SOL     OW24941  13.415   8.671  10.572
 7701SOL    HW124942  13.383   8.585  10.600
 7701SOL    HW224943  13.336   8.716  10.542
 7702SOL     OW24944  14.873   6.456   4.392
 7702SOL    HW124945  14.828   6.409   4.322
 7702SOL    HW224946  14.815   6.530   4.412
 7703SOL     OW24947   2.798   5.897  12.843
 7703SOL    HW124948   2.747   5.816  12.832
 7703SOL    HW224949   2.861   5.895  12.770
 7704SOL     OW24950   2.284  13.774   5.049
 7704SOL    HW124951   2.365  13.800   5.005
 7704SOL    HW224952   2.311  13.705   5.109
 7705SOL     OW24953   6.353  14.827  10.436
 7705SOL    HW124954   6.349  14.771  10.359
 7705SOL    HW224955   6.262  14.834  10.466
 7706SOL     OW24956   3.594   5.834   6.735
 7706SOL    HW124957   3.539   5.859   6.660
 7706SOL    HW224958   3.603   5.739   6.728
 7707SOL     OW24959   5.660   4.164   2.569
 7707SOL    HW124960   5.653   4.260   2.571
 7707SOL    HW224961   5.722   4.147   2.498
 7708SOL     OW24962  12.153  14.647   2.686
 7708SOL    HW124963  12.159  14.647   2.782
 7708SOL    HW224964  12.073  14.596   2.667
 7709SOL     OW24965   9.949  11.453  12.681
 7709SOL    HW124966  10.017  11.426  12.743
 7709SOL    HW224967   9.977  11.539  12.651
 7710SOL     OW24968  13.226  11.373   3.461
 7710SOL    HW124969  13.168  11.434   3.506
 7710SOL    HW224970  13.221  11.398   3.369
 7711SOL     OW24971   5.755   8.944   5.671
 7711SOL    HW124972   5.813   8.868   5.676
 7711SOL    HW224973   5.686   8.919   5.610
 7712SOL     OW24974   3.007  12.569   9.915
 7712SOL    HW124975   3.053  12.652   9.908
 7712SOL    HW224976   3.074  12.502   9.900
 7713SOL     OW24977   4.676   3.187  12.294
 7713SOL    HW124978   4.726   3.167  12.373
 7713SOL    HW224979   4.684   3.108  12.240
 7714SOL     OW24980  10.188  10.442  10.145
 7714SOL    HW124981  10.180  10.365  10.201
 7714SOL    HW224982  10.281  10.447  10.124
 7715SOL     OW24983   5.430   3.607  12.070
 7715SOL    HW124984   5.421   3.573  12.159
 7715SOL    HW224985   5.460   3.533  12.018
 7716SOL     OW24986   8.417   5.194   3.422
 7716SOL    HW124987   8.403   5.101   3.440
 7716SOL    HW224988   8.511   5.206   3.427
 7717SOL     OW24989   5.727  12.208   5.258
 7717SOL    HW124990   5.706  12.115   5.257
 7717SOL    HW224991   5.649  12.251   5.293
 7718SOL     OW24992   4.547  14.752  12.509
 7718SOL    HW124993   4.552  14.674  12.564
 7718SOL    HW224994   4.637  14.767  12.480
 7719SOL     OW24995   1.753   7.936  13.714
 7719SOL    HW124996   1.728   7.922  13.805
 7719SOL    HW224997   1.735   8.029  13.698
 7720SOL     OW24998   5.933   7.479  13.116
 7720SOL    HW124999   5.960   7.563  13.153
 7720SOL    HW225000   5.891   7.500  13.033
 7721SOL     OW25001  11.242   1.008   2.098
 7721SOL    HW125002  11.279   0.928   2.136
 7721SOL    HW225003  11.206   0.979   2.014
 7722SOL     OW25004   9.079  14.017   7.066
 7722SOL    HW125005   9.075  13.923   7.082
 7722SOL    HW225006   9.122  14.026   6.981
 7723SOL     OW25007  11.589  11.289   1.360
 7723SOL    HW125008  11.674  11.245   1.363
 7723SOL    HW225009  11.545  11.263   1.440
 7724SOL     OW25010  12.460   5.900   4.758
 7724SOL    HW125011  12.375   5.856   4.756
 7724SOL    HW225012  12.496   5.886   4.670
 7725SOL     OW25013   5.900   8.935   0.081
 7725SOL    HW125014   5.994   8.953   0.085
 7725SOL    HW225015   5.872   8.938   0.173
 7726SOL     OW25016  13.107   9.902   3.798
 7726SOL    HW125017  13.030   9.890   3.852
 7726SOL    HW225018  13.171   9.839   3.831
 7727SOL     OW25019   5.934   3.513   5.160
 7727SOL    HW125020   5.975   3.526   5.075
 7727SOL    HW225021   5.947   3.420   5.180
 7728SOL     OW25022   7.810   0.888   5.674
 7728SOL    HW125023   7.840   0.921   5.590
 7728SOL    HW225024   7.759   0.810   5.653
 7729SOL     OW25025   0.221   3.316   3.235
 7729SOL    HW125026   0.255   3.365   3.160
 7729SOL    HW225027   0.178   3.240   3.198
 7730SOL     OW25028  13.261   5.885  10.687
 7730SOL    HW125029  13.354   5.884  10.663
 7730SOL    HW225030  13.225   5.807  10.643
 7731SOL     OW25031  14.805   0.045  12.975
 7731SOL    HW125032   0.016   0.003  12.962
 7731SOL    HW225033  14.770   0.005  13.055
 7732SOL     OW25034  13.923  10.839   3.046
 7732SOL    HW125035  13.994  10.782   3.077
 7732SOL    HW225036  13.859  10.779   3.009
 7733SOL     OW25037   9.807   3.671   2.191
 7733SOL    HW125038   9.878   3.704   2.246
 7733SOL    HW225039   9.816   3.720   2.109
 7734SOL     OW25040  10.132  13.427   7.329
 7734SOL    HW125041  10.185  13.392   7.258
 7734SOL    HW225042  10.122  13.520   7.307
 7735SOL     OW25043  11.320  14.735   1.009
 7735SOL    HW125044  11.397  14.719   1.064
 7735SOL    HW225045  11.356  14.751   0.922
 7736SOL     OW25046  12.333  14.588   4.724
 7736SOL    HW125047  12.282  14.619   4.799
 7736SOL    HW225048  12.407  14.543   4.763
 7737SOL     OW25049   5.430   1.933  12.343
 7737SOL    HW125050   5.339   1.907  12.354
 7737SOL    HW225051   5.474   1.901  12.422
 7738SOL     OW25052  11.790   3.289  10.898
 7738SOL    HW125053  11.696   3.307  10.907
 7738SOL    HW225054  11.794   3.198  10.871
 7739SOL     OW25055   8.444   1.169   1.654
 7739SOL    HW125056   8.539   1.176   1.652
 7739SOL    HW225057   8.423   1.147   1.745
 7740SOL     OW25058  12.015   1.193   9.032
 7740SOL    HW125059  12.063   1.233   9.105
 7740SOL    HW225060  11.998   1.266   8.973
 7741SOL     OW25061   3.429   4.121   0.699
 7741SOL    HW125062   3.397   4.071   0.624
 7741SOL    HW225063   3.410   4.212   0.678
 7742SOL     OW25064   4.630  11.150   9.729
 7742SOL    HW125065   4.552  11.162   9.783
 7742SOL    HW225066   4.688  11.095   9.781
 7743SOL     OW25067  13.366  13.727   1.118
 7743SOL    HW125068  13.428  13.706   1.187
 7743SOL    HW225069  13.395  13.675   1.043
 7744SOL     OW25070   4.952   9.839   9.808
 7744SOL    HW125071   4.919   9.841   9.898
 7744SOL    HW225072   5.047   9.842   9.818
 7745SOL     OW25073   6.563  12.753   3.664
 7745SOL    HW125074   6.569  12.693   3.589
 7745SOL    HW225075   6.551  12.839   3.624
 7746SOL     OW25076   7.753   6.244   7.687
 7746SOL    HW125077   7.765   6.196   7.770
 7746SOL    HW225078   7.698   6.319   7.711
 7747SOL     OW25079   6.153  11.331   2.634
 7747SOL    HW125080   6.120  11.346   2.722
 7747SOL    HW225081   6.085  11.366   2.577
 7748SOL     OW25082  10.457   7.613   3.767
 7748SOL    HW125083  10.446   7.540   3.706
 7748SOL    HW225084  10.546   7.645   3.751
 7749SOL     OW25085   8.600   8.597   9.012
 7749SOL    HW125086   8.628   8.513   8.976
 7749SOL    HW225087   8.542   8.634   8.946
 7750SOL     OW25088   5.299  14.657  12.868
 7750SOL    HW125089   5.264  14.745  12.853
 7750SOL    HW225090   5.352  14.666  12.947
 7751SOL     OW25091   4.551   6.641  10.152
 7751SOL    HW125092   4.512   6.698  10.085
 7751SOL    HW225093   4.479   6.618  10.210
 7752SOL     OW25094   8.661   3.678   8.115
 7752SOL    HW125095   8.619   3.753   8.157
 7752SOL    HW225096   8.600   3.606   8.130
 7753SOL     OW25097   6.175   5.204   0.454
 7753SOL    HW125098   6.171   5.108   0.459
 7753SOL    HW225099   6.220   5.229   0.535
 7754SOL     OW25100   0.022  10.756  13.944
 7754SOL    HW125101  14.818  10.804  13.913
 7754SOL    HW225102   0.055  10.808  14.017
 7755SOL     OW25103   4.610   9.856   7.020
 7755SOL    HW125104   4.667   9.895   7.086
 7755SOL    HW225105   4.552   9.797   7.069
 7756SOL     OW25106   5.360   0.990  12.405
 7756SOL    HW125107   5.433   0.993  12.467
 7756SOL    HW225108   5.345   1.082  12.382
 7757SOL     OW25109  14.138   9.604   7.063
 7757SOL    HW125110  14.180   9.652   7.134
 7757SOL    HW225111  14.047   9.594   7.091
 7758SOL     OW25112  11.472   2.871  14.321
 7758SOL    HW125113  11.471   2.949  14.376
 7758SOL    HW225114  11.564   2.858  14.300
 7759SOL     OW25115   1.640  14.203  12.456
 7759SOL    HW125116   1.556  14.213  12.501
 7759SOL    HW225117   1.622  14.230  12.366
 7760SOL     OW25118  12.696   9.289   5.353
 7760SOL    HW125119  12.728   9.223   5.291
 7760SOL    HW225120  12.758   9.285   5.426
 7761SOL     OW25121   0.220  14.811   4.678
 7761SOL    HW125122   0.237  14.739   4.740
 7761SOL    HW225123   0.135  14.846   4.705
 7762SOL     OW25124   7.677   4.389  14.600
 7762SOL    HW125125   7.745   4.405  14.666
 7762SOL    HW225126   7.614   4.460  14.613
 7763SOL     OW25127   9.331  12.216   7.280
 7763SOL    HW125128   9.239  12.190   7.280
 7763SOL    HW225129   9.355  12.221   7.372
 7764SOL     OW25130  14.753   7.359   5.521
 7764SOL    HW125131  14.663   7.384   5.499
 7764SOL    HW225132  14.808   7.411   5.462
 7765SOL     OW25133   4.484   0.002  10.780
 7765SOL    HW125134   4.461   0.063  10.710
 7765SOL    HW225135   4.560  14.827  10.746
 7766SOL     OW25136   0.441   7.859   1.392
 7766SOL    HW125137   0.371   7.895   1.338
 7766SOL    HW225138   0.396   7.820   1.467
 7767SOL     OW25139   5.489   5.512   9.571
 7767SOL    HW125140   5.498   5.549   9.483
 7767SOL    HW225141   5.523   5.423   9.562
 7768SOL     OW25142   6.674   1.822   1.229
 7768SOL    HW125143   6.755   1.796   1.184
 7768SOL    HW225144   6.702   1.891   1.289
 7769SOL     OW25145   4.514   0.415  12.880
 7769SOL    HW125146   4.431   0.391  12.921
 7769SOL    HW225147   4.535   0.501  12.918
 7770SOL     OW25148  10.837  10.228  13.329
 7770SOL    HW125149  10.833  10.251  13.422
 7770SOL    HW225150  10.753  10.256  13.293
 7771SOL     OW25151   9.723  13.567   5.108
 7771SOL    HW125152   9.704  13.476   5.086
 7771SOL    HW225153   9.773  13.599   5.033
 7772SOL     OW25154   8.060  12.818   1.752
 7772SOL    HW125155   8.123  12.764   1.800
 7772SOL    HW225156   8.030  12.883   1.815
 7773SOL     OW25157   9.716  11.379   1.864
 7773SOL    HW125158   9.758  11.390   1.950
 7773SOL    HW225159   9.785  11.400   1.801
 7774SOL     OW25160   5.811   6.102   8.741
 7774SOL    HW125161   5.760   6.183   8.733
 7774SOL    HW225162   5.747   6.037   8.770
 7775SOL     OW25163  12.998   0.707  11.917
 7775SOL    HW125164  12.932   0.641  11.894
 7775SOL    HW225165  13.044   0.669  11.992
 7776SOL     OW25166   6.693   9.425  11.151
 7776SOL    HW125167   6.701   9.347  11.096
 7776SOL    HW225168   6.766   9.481  11.123
 7777SOL     OW25169   7.895   6.363   9.235
 7777SOL    HW125170   7.802   6.380   9.247
 7777SOL    HW225171   7.932   6.446   9.204
 7778SOL     OW25172   2.362   7.442  14.599
 7778SOL    HW125173   2.350   7.522  14.650
 7778SOL    HW225174   2.447   7.408  14.626
 7779SOL     OW25175  14.212  11.595  14.137
 7779SOL    HW125176  14.301  11.620  14.112
 7779SOL    HW225177  14.164  11.594  14.054
 7780SOL     OW25178   2.560  14.478   4.983
 7780SOL    HW125179   2.641  14.461   4.935
 7780SOL    HW225180   2.587  14.484   5.075
 7781SOL     OW25181   2.864   0.718   4.479
 7781SOL    HW125182   2.846   0.628   4.505
 7781SOL    HW225183   2.945   0.713   4.428
 7782SOL     OW25184   6.365  10.249   0.357
 7782SOL    HW125185   6.344  10.337   0.325
 7782SOL    HW225186   6.387  10.200   0.278
 7783SOL     OW25187   3.655   0.178   5.772
 7783SOL    HW125188   3.671   0.175   5.866
 7783SOL    HW225189   3.604   0.257   5.758
 7784SOL     OW25190  11.447  11.978  14.546
 7784SOL    HW125191  11.400  11.909  14.499
 7784SOL    HW225192  11.539  11.957  14.533
 7785SOL     OW25193   6.528   3.756   4.170
 7785SOL    HW125194   6.477   3.699   4.113
 7785SOL    HW225195   6.573   3.697   4.230
 7786SOL     OW25196  11.440  10.509   0.522
 7786SOL    HW125197  11.393  10.583   0.561
 7786SOL    HW225198  11.513  10.549   0.475
 7787SOL     OW25199  14.448  12.115  11.567
 7787SOL    HW125200  14.525  12.070  11.600
 7787SOL    HW225201  14.477  12.205  11.550
 7788SOL     OW25202   7.978   1.400   4.756
 7788SOL    HW125203   7.953   1.324   4.809
 7788SOL    HW225204   7.899   1.453   4.751
 7789SOL     OW25205   4.470   2.756   5.052
 7789SOL    HW125206   4.430   2.692   4.993
 7789SOL    HW225207   4.511   2.820   4.994
 7790SOL     OW25208   6.245  12.696   1.683
 7790SOL    HW125209   6.236  12.627   1.750
 7790SOL    HW225210   6.240  12.778   1.733
 7791SOL     OW25211   2.531  13.821   5.253
 7791SOL    HW125212   2.587  13.899   5.250
 7791SOL    HW225213   2.588  13.752   5.286
 7792SOL     OW25214   0.323   8.609   3.915
 7792SOL    HW125215   0.328   8.567   4.000
 7792SOL    HW225216   0.388   8.679   3.919
 7793SOL     OW25217  10.066   4.329   5.980
 7793SOL    HW125218  10.094   4.401   6.036
 7793SOL    HW225219  10.065   4.367   5.892
 7794SOL     OW25220   7.337  12.934   5.218
 7794SOL    HW125221   7.277  12.903   5.285
 7794SOL    HW225222   7.297  13.014   5.184
 7795SOL     OW25223  12.335  10.588  13.080
 7795SOL    HW125224  12.422  10.565  13.048
 7795SOL    HW225225  12.328  10.543  13.164
 7796SOL     OW25226   6.930   0.018  11.772
 7796SOL    HW125227   6.931   0.114  11.776
 7796SOL    HW225228   6.964  14.864  11.857
 7797SOL     OW25229  10.274   6.309   6.806
 7797SOL    HW125230  10.278   6.342   6.716
 7797SOL    HW225231  10.271   6.388   6.860
 7798SOL     OW25232   8.686   1.007  14.607
 7798SOL    HW125233   8.591   1.015  14.598
 7798SOL    HW225234   8.721   1.029  14.520
 7799SOL     OW25235   8.367   2.893  14.540
 7799SOL    HW125236   8.437   2.952  14.567
 7799SOL    HW225237   8.291   2.950  14.529
 7800SOL     OW25238   1.141  13.882  11.757
 7800SOL    HW125239   1.231  13.867  11.786
 7800SOL    HW225240   1.151  13.924  11.671
 7801SOL     OW25241  13.889  10.971  10.505
 7801SOL    HW125242  13.878  11.015  10.421
 7801SOL    HW225243  13.929  10.887  10.484
 7802SOL     OW25244  13.871   1.236   9.924
 7802SOL    HW125245  13.819   1.247   9.844
 7802SOL    HW225246  13.928   1.161   9.906
 7803SOL     OW25247   9.534   7.835   7.684
 7803SOL    HW125248   9.593   7.875   7.748
 7803SOL    HW225249   9.582   7.760   7.651
 7804SOL     OW25250  11.701  11.291   2.155
 7804SOL    HW125251  11.735  11.271   2.242
 7804SOL    HW225252  11.773  11.273   2.095
 7805SOL     OW25253  14.468   0.745   8.704
 7805SOL    HW125254  14.482   0.802   8.629
 7805SOL    HW225255  14.486   0.657   8.670
 7806SOL     OW25256  10.453  11.783   8.597
 7806SOL    HW125257  10.363  11.815   8.591
 7806SOL    HW225258  10.506  11.855   8.562
 7807SOL     OW25259   9.089  13.731   7.114
 7807SOL    HW125260   9.115  13.769   7.198
 7807SOL    HW225261   9.043  13.650   7.137
 7808SOL     OW25262  14.382   7.475  14.792
 7808SOL    HW125263  14.462   7.454  14.840
 7808SOL    HW225264  14.381   7.413  14.718
 7809SOL     OW25265  12.849  14.222   4.387
 7809SOL    HW125266  12.823  14.269   4.308
 7809SOL    HW225267  12.922  14.273   4.423
 7810SOL     OW25268   8.663   3.194  14.850
 7810SOL    HW125269   8.734   3.258  14.839
 7810SOL    HW225270   8.671   3.136  14.774
 7811SOL     OW25271   1.634   2.456  14.442
 7811SOL    HW125272   1.590   2.393  14.499
 7811SOL    HW225273   1.718   2.415  14.422
 7812SOL     OW25274   1.262   9.397  11.779
 7812SOL    HW125275   1.240   9.305  11.766
 7812SOL    HW225276   1.192   9.445  11.735
 7813SOL     OW25277   9.531   4.917   0.767
 7813SOL    HW125278   9.555   5.005   0.796
 7813SOL    HW225279   9.485   4.879   0.842
 7814SOL     OW25280   0.453   1.055   7.459
 7814SOL    HW125281   0.480   0.983   7.402
 7814SOL    HW225282   0.364   1.075   7.431
 7815SOL     OW25283   1.579   8.589   2.457
 7815SOL    HW125284   1.535   8.582   2.542
 7815SOL    HW225285   1.659   8.538   2.468
 7816SOL     OW25286   5.174  14.335   8.834
 7816SOL    HW125287   5.081  14.314   8.847
 7816SOL    HW225288   5.220  14.277   8.895
 7817SOL     OW25289  10.096   3.335  14.042
 7817SOL    HW125290  10.107   3.309  14.133
 7817SOL    HW225291  10.034   3.408  14.046
 7818SOL     OW25292  11.356   8.645   9.574
 7818SOL    HW125293  11.338   8.721   9.518
 7818SOL    HW225294  11.270   8.604   9.586
 7819SOL     OW25295  11.331   8.108   3.123
 7819SOL    HW125296  11.258   8.105   3.062
 7819SOL    HW225297  11.293   8.090   3.208
 7820SOL     OW25298  14.287  10.918   1.624
 7820SOL    HW125299  14.370  10.956   1.596
 7820SOL    HW225300  14.267  10.851   1.559
 7821SOL     OW25301  14.670   8.371  11.609
 7821SOL    HW125302  14.690   8.297  11.552
 7821SOL    HW225303  14.752   8.419  11.616
 7822SOL     OW25304   4.027  11.159   3.012
 7822SOL    HW125305   4.103  11.177   3.067
 7822SOL    HW225306   3.982  11.243   3.005
 7823SOL     OW25307  12.776   0.113   6.414
 7823SOL    HW125308  12.703   0.055   6.433
 7823SOL    HW225309  12.751   0.196   6.456
 7824SOL     OW25310   7.622   3.010   9.711
 7824SOL    HW125311   7.581   2.961   9.782
 7824SOL    HW225312   7.692   2.952   9.679
 7825SOL     OW25313  10.772   2.765   4.818
 7825SOL    HW125314  10.857   2.752   4.777
 7825SOL    HW225315  10.790   2.821   4.894
 7826SOL     OW25316   9.638   2.350   4.157
 7826SOL    HW125317   9.612   2.386   4.072
 7826SOL    HW225318   9.617   2.257   4.151
 7827SOL     OW25319   1.896   7.365  13.448
 7827SOL    HW125320   1.871   7.273  13.440
 7827SOL    HW225321   1.823   7.413  13.410
 7828SOL     OW25322  13.433  13.765   5.326
 7828SOL    HW125323  13.460  13.729   5.410
 7828SOL    HW225324  13.501  13.737   5.265
 7829SOL     OW25325   8.415   2.493  13.220
 7829SOL    HW125326   8.328   2.451  13.219
 7829SOL    HW225327   8.396   2.586  13.211
 7830SOL     OW25328  10.808  13.574   2.675
 7830SOL    HW125329  10.796  13.637   2.603
 7830SOL    HW225330  10.789  13.625   2.754
 7831SOL     OW25331   9.824   2.740   9.804
 7831SOL    HW125332   9.913   2.774   9.813
 7831SOL    HW225333   9.804   2.702   9.889
 7832SOL     OW25334  11.139   3.431  10.108
 7832SOL    HW125335  11.082   3.500  10.075
 7832SOL    HW225336  11.226   3.470  10.106
 7833SOL     OW25337  14.537   5.877   7.448
 7833SOL    HW125338  14.542   5.872   7.353
 7833SOL    HW225339  14.566   5.965   7.470
 7834SOL     OW25340   4.586   5.079  10.865
 7834SOL    HW125341   4.547   5.067  10.952
 7834SOL    HW225342   4.514   5.111  10.811
 7835SOL     OW25343   4.839   6.696   6.130
 7835SOL    HW125344   4.850   6.743   6.048
 7835SOL    HW225345   4.827   6.604   6.105
 7836SOL     OW25346  13.448   2.210  12.933
 7836SOL    HW125347  13.373   2.210  12.874
 7836SOL    HW225348  13.523   2.228  12.875
 7837SOL     OW25349   5.788   1.947   4.004
 7837SOL    HW125350   5.798   1.942   4.099
 7837SOL    HW225351   5.815   1.861   3.972
 7838SOL     OW25352   4.230   1.700   2.804
 7838SOL    HW125353   4.165   1.766   2.778
 7838SOL    HW225354   4.293   1.698   2.732
 7839SOL     OW25355   9.149  10.812   2.306
 7839SOL    HW125356   9.077  10.868   2.335
 7839SOL    HW225357   9.114  10.766   2.230
 7840SOL     OW25358   1.883  13.869   3.043
 7840SOL    HW125359   1.799  13.893   3.004
 7840SOL    HW225360   1.859  13.816   3.119
 7841SOL     OW25361  12.329  11.014   9.389
 7841SOL    HW125362  12.299  11.051   9.471
 7841SOL    HW225363  12.372  10.932   9.414
 7842SOL     OW25364  12.533   4.330   4.354
 7842SOL    HW125365  12.547   4.390   4.281
 7842SOL    HW225366  12.536   4.243   4.315
 7843SOL     OW25367   1.374   4.521  13.694
 7843SOL    HW125368   1.376   4.513  13.599
 7843SOL    HW225369   1.294   4.571  13.712
 7844SOL     OW25370   0.923   9.815  13.816
 7844SOL    HW125371   1.008   9.789  13.780
 7844SOL    HW225372   0.881   9.733  13.841
 7845SOL     OW25373   8.957   8.059   0.716
 7845SOL    HW125374   8.999   8.102   0.791
 7845SOL    HW225375   8.868   8.041   0.746
 7846SOL     OW25376   3.977   1.795   7.635
 7846SOL    HW125377   3.882   1.791   7.624
 7846SOL    HW225378   4.002   1.881   7.601
 7847SOL     OW25379  14.803   0.714   2.993
 7847SOL    HW125380  14.767   0.637   2.947
 7847SOL    HW225381  14.742   0.785   2.972
 7848SOL     OW25382  13.354   6.556   1.312
 7848SOL    HW125383  13.390   6.468   1.323
 7848SOL    HW225384  13.299   6.550   1.234
 7849SOL     OW25385   7.171   1.972   8.193
 7849SOL    HW125386   7.249   2.012   8.231
 7849SOL    HW225387   7.152   2.024   8.115
 7850SOL     OW25388  11.734   2.631   4.974
 7850SOL    HW125389  11.715   2.722   4.951
 7850SOL    HW225390  11.648   2.591   4.989
 7851SOL     OW25391  14.819   6.022   4.034
 7851SOL    HW125392   0.032   5.981   4.027
 7851SOL    HW225393  14.836   6.109   4.070
 7852SOL     OW25394   3.023   6.158   5.896
 7852SOL    HW125395   3.018   6.065   5.917
 7852SOL    HW225396   2.933   6.190   5.906
 7853SOL     OW25397   2.507   5.477   4.732
 7853SOL    HW125398   2.445   5.437   4.793
 7853SOL    HW225399   2.572   5.408   4.715
 7854SOL     OW25400   0.299   3.828   3.773
 7854SOL    HW125401   0.287   3.921   3.753
 7854SOL    HW225402   0.376   3.825   3.830
 7855SOL     OW25403   4.636  10.935  10.437
 7855SOL    HW125404   4.712  10.893  10.476
 7855SOL    HW225405   4.566  10.870  10.446
 7856SOL     OW25406   9.715  12.140   1.848
 7856SOL    HW125407   9.770  12.135   1.770
 7856SOL    HW225408   9.700  12.048   1.872
 7857SOL     OW25409   9.519   5.853   3.653
 7857SOL    HW125410   9.599   5.838   3.703
 7857SOL    HW225411   9.548   5.899   3.574
 7858SOL     OW25412  13.252   3.205   8.908
 7858SOL    HW125413  13.236   3.299   8.899
 7858SOL    HW225414  13.274   3.175   8.820
 7859SOL     OW25415   2.905  10.066  11.164
 7859SOL    HW125416   2.855  10.119  11.101
 7859SOL    HW225417   2.903   9.978  11.127
 7860SOL     OW25418   0.438  10.610   3.442
 7860SOL    HW125419   0.451  10.538   3.380
 7860SOL    HW225420   0.456  10.571   3.528
 7861SOL     OW25421   9.504   6.221   1.076
 7861SOL    HW125422   9.432   6.283   1.060
 7861SOL    HW225423   9.504   6.208   1.171
 7862SOL     OW25424   7.284  11.591   4.415
 7862SOL    HW125425   7.213  11.641   4.455
 7862SOL    HW225426   7.285  11.620   4.324
 7863SOL     OW25427  11.013   1.998   6.388
 7863SOL    HW125428  10.919   2.016   6.377
 7863SOL    HW225429  11.054   2.032   6.309
 7864SOL     OW25430  10.289  13.639   1.251
 7864SOL    HW125431  10.375  13.623   1.290
 7864SOL    HW225432  10.303  13.710   1.188
 7865SOL     OW25433   6.209   9.720   7.621
 7865SOL    HW125434   6.290   9.689   7.582
 7865SOL    HW225435   6.225   9.715   7.715
 7866SOL     OW25436   7.307   5.637   8.944
 7866SOL    HW125437   7.294   5.728   8.969
 7866SOL    HW225438   7.394   5.615   8.980
 7867SOL     OW25439  11.944   2.984   5.997
 7867SOL    HW125440  11.857   2.979   5.957
 7867SOL    HW225441  11.952   3.075   6.027
 7868SOL     OW25442  12.996   8.013  11.742
 7868SOL    HW125443  13.053   8.079  11.702
 7868SOL    HW225444  12.916   8.016  11.690
 7869SOL     OW25445   1.013   7.722   8.992
 7869SOL    HW125446   1.086   7.762   9.041
 7869SOL    HW225447   0.981   7.793   8.936
 7870SOL     OW25448   6.970   6.702   1.741
 7870SOL    HW125449   6.916   6.739   1.671
 7870SOL    HW225450   6.958   6.762   1.815
 7871SOL     OW25451  10.921   6.848  14.827
 7871SOL    HW125452  10.974   6.770  14.806
 7871SOL    HW225453  10.902   6.887  14.741
 7872SOL     OW25454   3.353  12.691   1.063
 7872SOL    HW125455   3.297  12.662   0.991
 7872SOL    HW225456   3.330  12.634   1.136
 7873SOL     OW25457   4.949   6.166  12.890
 7873SOL    HW125458   4.935   6.075  12.918
 7873SOL    HW225459   4.993   6.158  12.805
 7874SOL     OW25460   7.217   3.958  13.511
 7874SOL    HW125461   7.157   3.987  13.580
 7874SOL    HW225462   7.197   4.014  13.436
 7875SOL     OW25463   7.228  11.054   2.616
 7875SOL    HW125464   7.184  11.109   2.680
 7875SOL    HW225465   7.201  10.965   2.637
 7876SOL     OW25466   8.250  14.220   3.884
 7876SOL    HW125467   8.281  14.289   3.942
 7876SOL    HW225468   8.305  14.145   3.903
 7877SOL     OW25469   1.683  14.505   3.502
 7877SOL    HW125470   1.678  14.517   3.597
 7877SOL    HW225471   1.638  14.581   3.465
 7878SOL     OW25472   6.413   2.421  14.204
 7878SOL    HW125473   6.416   2.517  14.208
 7878SOL    HW225474   6.455   2.393  14.286
 7879SOL     OW25475  10.017   4.567   0.449
 7879SOL    HW125476   9.954   4.498   0.470
 7879SOL    HW225477  10.086   4.558   0.515
 7880SOL     OW25478  11.708   0.974   1.241
 7880SOL    HW125479  11.673   0.963   1.152
 7880SOL    HW225480  11.794   0.933   1.238
 7881SOL     OW25481  10.788   9.401   1.755
 7881SOL    HW125482  10.842   9.347   1.698
 7881SOL    HW225483  10.850   9.446   1.812
 7882SOL     OW25484   0.042  13.387   2.751
 7882SOL    HW125485   0.042  13.298   2.715
 7882SOL    HW225486  14.828  13.397   2.790
 7883SOL     OW25487   8.473  12.766   4.915
 7883SOL    HW125488   8.399  12.731   4.865
 7883SOL    HW225489   8.544  12.773   4.851
 7884SOL     OW25490   6.300   7.042   6.023
 7884SOL    HW125491   6.254   7.123   6.046
 7884SOL    HW225492   6.341   7.060   5.939
 7885SOL     OW25493   7.463  11.228  10.954
 7885SOL    HW125494   7.447  11.216  11.048
 7885SOL    HW225495   7.513  11.151  10.929
 7886SOL     OW25496   9.668   4.056   5.401
 7886SOL    HW125497   9.760   4.050   5.425
 7886SOL    HW225498   9.654   3.981   5.342
 7887SOL     OW25499   1.404  11.476   2.474
 7887SOL    HW125500   1.317  11.468   2.513
 7887SOL    HW225501   1.462  11.494   2.549
 7888SOL     OW25502   2.767   6.168   4.996
 7888SOL    HW125503   2.742   6.182   4.905
 7888SOL    HW225504   2.701   6.215   5.047
 7889SOL     OW25505   4.230  10.655   2.571
 7889SOL    HW125506   4.138  10.671   2.553
 7889SOL    HW225507   4.237  10.655   2.667
 7890SOL     OW25508   5.145   4.241  11.614
 7890SOL    HW125509   5.086   4.299  11.662
 7890SOL    HW225510   5.099   4.158  11.608
 7891SOL     OW25511   2.815   6.255   8.710
 7891SOL    HW125512   2.793   6.181   8.766
 7891SOL    HW225513   2.894   6.227   8.663
 7892SOL     OW25514   8.391  12.962   5.071
 7892SOL    HW125515   8.416  12.886   5.019
 7892SOL    HW225516   8.419  12.940   5.160
 7893SOL     OW25517   3.070   0.873  12.978
 7893SOL    HW125518   3.083   0.863  12.884
 7893SOL    HW225519   3.130   0.810  13.018
 7894SOL     OW25520  11.460   5.886  12.341
 7894SOL    HW125521  11.436   5.925  12.424
 7894SOL    HW225522  11.539   5.933  12.314
 7895SOL     OW25523   4.528  14.298   6.984
 7895SOL    HW125524   4.531  14.213   7.028
 7895SOL    HW225525   4.500  14.278   6.895
 7896SOL     OW25526   1.344  13.278   0.271
 7896SOL    HW125527   1.288  13.205   0.247
 7896SOL    HW225528   1.389  13.249   0.350
 7897SOL     OW25529   4.574  12.667   8.191
 7897SOL    HW125530   4.574  12.628   8.279
 7897SOL    HW225531   4.494  12.719   8.188
 7898SOL     OW25532   0.233   9.147  10.682
 7898SOL    HW125533   0.249   9.054  10.664
 7898SOL    HW225534   0.138   9.156  10.684
 7899SOL     OW25535   8.740   3.294   0.884
 7899SOL    HW125536   8.817   3.246   0.853
 7899SOL    HW225537   8.666   3.242   0.856
 7900SOL     OW25538  14.026   5.440   4.194
 7900SOL    HW125539  13.942   5.402   4.218
 7900SOL    HW225540  14.025   5.527   4.234
 7901SOL     OW25541   0.732  14.741  14.037
 7901SOL    HW125542   0.818  14.703  14.018
 7901SOL    HW225543   0.675  14.708  13.967
 7902SOL     OW25544   2.221  12.866   4.481
 7902SOL    HW125545   2.207  12.950   4.437
 7902SOL    HW225546   2.316  12.859   4.491
 7903SOL     OW25547   1.860   6.187   7.994
 7903SOL    HW125548   1.772   6.224   7.989
 7903SOL    HW225549   1.854   6.120   8.062
 7904SOL     OW25550  12.024   4.296   7.415
 7904SOL    HW125551  11.991   4.233   7.351
 7904SOL    HW225552  12.117   4.306   7.394
 7905SOL     OW25553  14.738  12.973  12.246
 7905SOL    HW125554  14.792  12.899  12.218
 7905SOL    HW225555  14.734  13.029  12.169
 7906SOL     OW25556   8.105  12.212   2.779
 7906SOL    HW125557   8.134  12.184   2.866
 7906SOL    HW225558   8.150  12.151   2.719
 7907SOL     OW25559   0.816   8.636   0.595
 7907SOL    HW125560   0.772   8.716   0.623
 7907SOL    HW225561   0.896   8.666   0.552
 7908SOL     OW25562   3.319   1.526  11.552
 7908SOL    HW125563   3.391   1.547  11.612
 7908SOL    HW225564   3.280   1.611  11.532
 7909SOL     OW25565  13.571   4.803   8.680
 7909SOL    HW125566  13.477   4.807   8.662
 7909SOL    HW225567  13.588   4.710   8.695
 7910SOL     OW25568   5.551   2.073  10.539
 7910SOL    HW125569   5.602   2.017  10.480
 7910SOL    HW225570   5.538   2.154  10.491
 7911SOL     OW25571   5.316   6.417   6.778
 7911SOL    HW125572   5.354   6.416   6.690
 7911SOL    HW225573   5.390   6.410   6.837
 7912SOL     OW25574  13.549   6.553   8.180
 7912SOL    HW125575  13.624   6.499   8.207
 7912SOL    HW225576  13.475   6.491   8.178
 7913SOL     OW25577   5.779  11.208   9.316
 7913SOL    HW125578   5.734  11.165   9.388
 7913SOL    HW225579   5.847  11.260   9.358
 7914SOL     OW25580  11.223  11.803   6.368
 7914SOL    HW125581  11.267  11.790   6.452
 7914SOL    HW225582  11.281  11.763   6.303
 7915SOL     OW25583   0.482  14.455  13.161
 7915SOL    HW125584   0.490  14.535  13.213
 7915SOL    HW225585   0.441  14.484  13.079
 7916SOL     OW25586  12.884   4.543   8.890
 7916SOL    HW125587  12.968   4.552   8.935
 7916SOL    HW225588  12.905   4.493   8.811
 7917SOL     OW25589   3.647   2.526  11.349
 7917SOL    HW125590   3.572   2.564  11.393
 7917SOL    HW225591   3.688   2.599  11.303
 7918SOL     OW25592  13.329   1.783   8.260
 7918SOL    HW125593  13.235   1.799   8.272
 7918SOL    HW225594  13.370   1.827   8.335
 7919SOL     OW25595  10.255   8.124  12.253
 7919SOL    HW125596  10.220   8.104  12.166
 7919SOL    HW225597  10.321   8.192  12.237
 7920SOL     OW25598  12.073  14.322  10.129
 7920SOL    HW125599  12.153  14.374  10.137
 7920SOL    HW225600  12.051  14.297  10.218
 7921SOL     OW25601  12.739   7.032  12.245
 7921SOL    HW125602  12.714   6.958  12.190
 7921SOL    HW225603  12.785   7.091  12.186
 7922SOL     OW25604   6.118  12.967   3.703
 7922SOL    HW125605   6.193  12.908   3.692
 7922SOL    HW225606   6.148  13.032   3.767
 7923SOL     OW25607   7.634   5.805   2.772
 7923SOL    HW125608   7.678   5.871   2.825
 7923SOL    HW225609   7.542   5.814   2.794
 7924SOL     OW25610  12.766   8.461  10.486
 7924SOL    HW125611  12.746   8.480  10.395
 7924SOL    HW225612  12.691   8.497  10.535
 7925SOL     OW25613   0.940  13.347   7.878
 7925SOL    HW125614   0.925  13.264   7.834
 7925SOL    HW225615   0.963  13.408   7.808
 7926SOL     OW25616   4.932   3.973   6.656
 7926SOL    HW125617   4.837   3.975   6.663
 7926SOL    HW225618   4.951   3.898   6.600
 7927SOL     OW25619   4.779  13.159  11.941
 7927SOL    HW125620   4.727  13.129  12.016
 7927SOL    HW225621   4.768  13.091  11.875
 7928SOL     OW25622  11.240   7.088  10.291
 7928SOL    HW125623  11.289   7.022  10.242
 7928SOL    HW225624  11.292   7.104  10.369
 7929SOL     OW25625   0.441   4.163  13.382
 7929SOL    HW125626   0.423   4.139  13.473
 7929SOL    HW225627   0.536   4.159  13.374
 7930SOL     OW25628  11.940   2.353   1.565
 7930SOL    HW125629  11.917   2.260   1.562
 7930SOL    HW225630  11.952   2.371   1.658
 7931SOL     OW25631  10.340   7.654   7.556
 7931SOL    HW125632  10.292   7.737   7.557
 7931SOL    HW225633  10.273   7.587   7.566
 7932SOL     OW25634  13.865   7.449   5.877
 7932SOL    HW125635  13.897   7.538   5.897
 7932SOL    HW225636  13.907   7.394   5.943
 7933SOL     OW25637   4.840   6.566  13.431
 7933SOL    HW125638   4.853   6.650  13.388
 7933SOL    HW225639   4.781   6.518  13.371
 7934SOL     OW25640   3.055   0.519   0.952
 7934SOL    HW125641   3.066   0.591   0.889
 7934SOL    HW225642   3.138   0.513   0.998
 7935SOL     OW25643   1.952   0.246   1.086
 7935SOL    HW125644   1.971   0.286   1.170
 7935SOL    HW225645   2.012   0.288   1.025
 7936SOL     OW25646   1.805  14.575   7.552
 7936SOL    HW125647   1.888  14.548   7.590
 7936SOL    HW225648   1.814  14.557   7.458
 7937SOL     OW25649   6.461   2.276   2.532
 7937SOL    HW125650   6.367   2.295   2.532
 7937SOL    HW225651   6.503   2.361   2.542
 7938SOL     OW25652   0.479   2.554  11.945
 7938SOL    HW125653   0.513   2.600  12.022
 7938SOL    HW225654   0.498   2.612  11.871
 7939SOL     OW25655   3.464   7.736   9.602
 7939SOL    HW125656   3.434   7.670   9.539
 7939SOL    HW225657   3.536   7.693   9.649
 7940SOL     OW25658   2.174   3.308   6.025
 7940SOL    HW125659   2.249   3.253   6.046
 7940SOL    HW225660   2.212   3.389   5.991
 7941SOL     OW25661   7.581  11.542  10.457
 7941SOL    HW125662   7.663  11.494  10.450
 7941SOL    HW225663   7.550  11.524  10.546
 7942SOL     OW25664  14.442  13.925   3.095
 7942SOL    HW125665  14.370  13.919   3.031
 7942SOL    HW225666  14.489  13.842   3.085
 7943SOL     OW25667  13.924   9.468   1.547
 7943SOL    HW125668  13.966   9.435   1.627
 7943SOL    HW225669  13.947   9.561   1.545
 7944SOL     OW25670   5.169   0.914   5.802
 7944SOL    HW125671   5.133   0.986   5.750
 7944SOL    HW225672   5.158   0.943   5.893
 7945SOL     OW25673   1.511   2.308   9.484
 7945SOL    HW125674   1.440   2.342   9.538
 7945SOL    HW225675   1.468   2.249   9.423
 7946SOL     OW25676  10.483   8.165  13.656
 7946SOL    HW125677  10.412   8.131  13.603
 7946SOL    HW225678  10.562   8.126  13.619
 7947SOL     OW25679   8.276   6.726   7.903
 7947SOL    HW125680   8.325   6.678   7.836
 7947SOL    HW225681   8.186   6.730   7.869
 7948SOL     OW25682   8.339  12.657   1.703
 7948SOL    HW125683   8.328  12.623   1.614
 7948SOL    HW225684   8.361  12.749   1.691
 7949SOL     OW25685   0.372   3.256  14.037
 7949SOL    HW125686   0.390   3.306  14.116
 7949SOL    HW225687   0.456   3.250  13.993
 7950SOL     OW25688  13.980   9.247  10.373
 7950SOL    HW125689  14.030   9.323  10.346
 7950SOL    HW225690  13.993   9.242  10.468
 7951SOL     OW25691   1.538   1.842  12.292
 7951SOL    HW125692   1.479   1.852  12.218
 7951SOL    HW225693   1.554   1.932  12.322
 7952SOL     OW25694   5.679   9.860   7.687
 7952SOL    HW125695   5.655   9.853   7.594
 7952SOL    HW225696   5.775   9.866   7.686
 7953SOL     OW25697   1.664   8.723  13.402
 7953SOL    HW125698   1.613   8.643  13.415
 7953SOL    HW225699   1.616   8.791  13.449
 7954SOL     OW25700  13.314   0.029   0.474
 7954SOL    HW125701  13.322  14.824   0.419
 7954SOL    HW225702  13.399   0.072   0.466
 7955SOL     OW25703   0.903  12.841   3.497
 7955SOL    HW125704   0.946  12.764   3.459
 7955SOL    HW225705   0.962  12.869   3.567
 7956SOL     OW25706   2.369  12.864   0.074
 7956SOL    HW125707   2.369  12.851   0.169
 7956SOL    HW225708   2.403  12.781   0.039
 7957SOL     OW25709   5.553   2.129  13.915
 7957SOL    HW125710   5.468   2.171  13.930
 7957SOL    HW225711   5.532   2.048  13.869
 7958SOL     OW25712   1.321   1.476  13.828
 7958SOL    HW125713   1.293   1.531  13.754
 7958SOL    HW225714   1.298   1.387  13.801
 7959SOL     OW25715  14.676   4.680  10.693
 7959SOL    HW125716  14.730   4.700  10.769
 7959SOL    HW225717  14.737   4.646  10.628
 7960SOL     OW25718   4.237   6.449  10.587
 7960SOL    HW125719   4.242   6.475  10.679
 7960SOL    HW225720   4.323   6.414  10.567
 7961SOL     OW25721   8.465   7.644   4.376
 7961SOL    HW125722   8.551   7.686   4.371
 7961SOL    HW225723   8.484   7.550   4.377
 7962SOL     OW25724   6.134   7.780   1.587
 7962SOL    HW125725   6.225   7.751   1.580
 7962SOL    HW225726   6.119   7.788   1.681
 7963SOL     OW25727   0.693   1.283   1.766
 7963SOL    HW125728   0.674   1.366   1.810
 7963SOL    HW225729   0.784   1.262   1.791
 7964SOL     OW25730   1.644   3.266   9.377
 7964SOL    HW125731   1.720   3.209   9.391
 7964SOL    HW225732   1.640   3.320   9.455
 7965SOL     OW25733   6.656  10.018   8.705
 7965SOL    HW125734   6.744  10.049   8.685
 7965SOL    HW225735   6.601  10.057   8.637
 7966SOL     OW25736   9.269  13.839   1.063
 7966SOL    HW125737   9.216  13.893   1.122
 7966SOL    HW225738   9.347  13.818   1.114
 7967SOL     OW25739  11.386   9.556  13.709
 7967SOL    HW125740  11.302   9.511  13.711
 7967SOL    HW225741  11.447   9.494  13.671
 7968SOL     OW25742   4.061   8.714   4.204
 7968SOL    HW125743   4.002   8.762   4.262
 7968SOL    HW225744   4.128   8.777   4.180
 7969SOL     OW25745   1.380   1.016   5.038
 7969SOL    HW125746   1.475   1.012   5.026
 7969SOL    HW225747   1.369   1.036   5.131
 7970SOL     OW25748   4.907  14.405   1.390
 7970SOL    HW125749   4.906  14.326   1.445
 7970SOL    HW225750   4.867  14.472   1.446
 7971SOL     OW25751  12.339   9.520   2.203
 7971SOL    HW125752  12.383   9.435   2.195
 7971SOL    HW225753  12.309   9.539   2.114
 7972SOL     OW25754  14.002   5.769   9.064
 7972SOL    HW125755  14.012   5.825   9.141
 7972SOL    HW225756  14.053   5.812   8.996
 7973SOL     OW25757   2.729   0.475   4.558
 7973SOL    HW125758   2.802   0.417   4.538
 7973SOL    HW225759   2.659   0.416   4.587
 7974SOL     OW25760  14.711   7.036   5.534
 7974SOL    HW125761  14.766   6.962   5.509
 7974SOL    HW225762  14.753   7.112   5.492
 7975SOL     OW25763   7.568  10.736  13.002
 7975SOL    HW125764   7.526  10.822  13.015
 7975SOL    HW225765   7.510  10.691  12.940
 7976SOL     OW25766   3.528   9.341   3.159
 7976SOL    HW125767   3.593   9.287   3.114
 7976SOL    HW225768   3.533   9.313   3.250
 7977SOL     OW25769  10.524  14.083  10.325
 7977SOL    HW125770  10.517  14.171  10.287
 7977SOL    HW225771  10.488  14.093  10.413
 7978SOL     OW25772   3.589  12.047   2.342
 7978SOL    HW125773   3.592  12.093   2.427
 7978SOL    HW225774   3.571  12.116   2.279
 7979SOL     OW25775   6.082   7.544  14.440
 7979SOL    HW125776   6.064   7.623  14.490
 7979SOL    HW225777   6.103   7.478  14.506
 7980SOL     OW25778   5.401  13.927   8.771
 7980SOL    HW125779   5.414  13.913   8.677
 7980SOL    HW225780   5.412  14.021   8.783
 7981SOL     OW25781  11.720  10.577  10.905
 7981SOL    HW125782  11.643  10.559  10.958
 7981SOL    HW225783  11.776  10.630  10.961
 7982SOL     OW25784   2.710  13.092   1.196
 7982SOL    HW125785   2.667  13.176   1.178
 7982SOL    HW225786   2.698  13.078   1.289
 7983SOL     OW25787  10.010   3.008   1.497
 7983SOL    HW125788  10.100   2.988   1.472
 7983SOL    HW225789  10.018   3.071   1.569
 7984SOL     OW25790  12.093   2.386   5.533
 7984SOL    HW125791  12.067   2.471   5.498
 7984SOL    HW225792  12.115   2.334   5.455
 7985SOL     OW25793  12.419  13.534   6.163
 7985SOL    HW125794  12.394  13.510   6.252
 7985SOL    HW225795  12.490  13.598   6.174
 7986SOL     OW25796  13.983   3.837   1.836
 7986SOL    HW125797  14.017   3.778   1.769
 7986SOL    HW225798  14.043   3.911   1.835
 7987SOL     OW25799   0.039   5.046   1.932
 7987SOL    HW125800  14.824   5.009   1.928
 7987SOL    HW225801   0.054   5.064   2.025
 7988SOL     OW25802  14.087  14.734  13.028
 7988SOL    HW125803  14.113  14.826  13.026
 7988SOL    HW225804  14.169  14.685  13.022
 7989SOL     OW25805  10.582   6.269   0.535
 7989SOL    HW125806  10.506   6.224   0.499
 7989SOL    HW225807  10.604   6.336   0.470
 7990SOL     OW25808   7.181   2.927  11.947
 7990SOL    HW125809   7.129   2.867  11.894
 7990SOL    HW225810   7.203   2.877  12.025
 7991SOL     OW25811  12.984   5.665   1.652
 7991SOL    HW125812  12.913   5.723   1.680
 7991SOL    HW225813  12.943   5.606   1.588
 7992SOL     OW25814   2.691   3.934   0.637
 7992SOL    HW125815   2.749   3.878   0.688
 7992SOL    HW225816   2.620   3.956   0.697
 7993SOL     OW25817  12.898  12.957  10.992
 7993SOL    HW125818  12.962  13.016  11.031
 7993SOL    HW225819  12.893  12.883  11.054
 7994SOL     OW25820  12.210   1.795   9.567
 7994SOL    HW125821  12.299   1.830   9.570
 7994SOL    HW225822  12.175   1.810   9.655
 7995SOL     OW25823   8.302  10.178   4.027
 7995SOL    HW125824   8.217  10.160   3.988
 7995SOL    HW225825   8.322  10.099   4.078
 7996SOL     OW25826   4.749   3.678  13.398
 7996SOL    HW125827   4.693   3.600  13.397
 7996SOL    HW225828   4.758   3.702  13.306
 7997SOL     OW25829  12.512   2.890  13.470
 7997SOL    HW125830  12.542   2.826  13.535
 7997SOL    HW225831  12.579   2.958  13.470
 7998SOL     OW25832   3.566   0.369  11.805
 7998SOL    HW125833   3.522   0.452  11.786
 7998SOL    HW225834   3.541   0.349  11.895
 7999SOL     OW25835  11.025   6.591   4.128
 7999SOL    HW125836  10.951   6.640   4.093
 7999SOL    HW225837  11.071   6.559   4.051
 8000SOL     OW25838   0.770  12.905   2.131
 8000SOL    HW125839   0.791  12.927   2.040
 8000SOL    HW225840   0.739  12.987   2.169
 8001SOL     OW25841   4.308   1.080   6.387
 8001SOL    HW125842   4.255   1.098   6.464
 8001SOL    HW225843   4.244   1.072   6.315
 8002SOL     OW25844   0.358   1.526  12.764
 8002SOL    HW125845   0.284   1.550  12.818
 8002SOL    HW225846   0.402   1.609  12.745
 8003SOL     OW25847   3.954  14.696   5.259
 8003SOL    HW125848   3.973  14.614   5.305
 8003SOL    HW225849   3.898  14.744   5.319
 8004SOL     OW25850   5.709  14.502   7.412
 8004SOL    HW125851   5.766  14.529   7.484
 8004SOL    HW225852   5.710  14.407   7.415
 8005SOL     OW25853  13.275  12.151   5.691
 8005SOL    HW125854  13.182  12.138   5.712
 8005SOL    HW225855  13.321  12.129   5.772
 8006SOL     OW25856   5.355  14.034   5.991
 8006SOL    HW125857   5.401  13.979   5.928
 8006SOL    HW225858   5.394  14.121   5.979
 8007SOL     OW25859   3.181   8.808  10.516
 8007SOL    HW125860   3.158   8.759  10.437
 8007SOL    HW225861   3.137   8.762  10.587
 8008SOL     OW25862   7.556   9.315   2.851
 8008SOL    HW125863   7.539   9.227   2.885
 8008SOL    HW225864   7.639   9.340   2.892
 8009SOL     OW25865  14.117  13.760  12.940
 8009SOL    HW125866  14.189  13.817  12.912
 8009SOL    HW225867  14.141  13.732  13.029
 8010SOL     OW25868   9.463   7.117  12.069
 8010SOL    HW125869   9.377   7.159  12.066
 8010SOL    HW225870   9.484   7.100  11.977
 8011SOL     OW25871  11.037   8.654  12.496
 8011SOL    HW125872  11.030   8.606  12.414
 8011SOL    HW225873  11.085   8.595  12.555
 8012SOL     OW25874   3.817  10.929   9.168
 8012SOL    HW125875   3.856  11.005   9.124
 8012SOL    HW225876   3.723  10.940   9.156
 8013SOL     OW25877   8.118   4.998  14.027
 8013SOL    HW125878   8.081   5.047  14.101
 8013SOL    HW225879   8.125   4.908  14.059
 8014SOL     OW25880  13.325  14.679   5.379
 8014SOL    HW125881  13.299  14.660   5.289
 8014SOL    HW225882  13.249  14.653   5.431
 8015SOL     OW25883   5.153   2.909   1.068
 8015SOL    HW125884   5.085   2.843   1.084
 8015SOL    HW225885   5.151   2.964   1.146
 8016SOL     OW25886   0.794   3.330   3.272
 8016SOL    HW125887   0.735   3.274   3.323
 8016SOL    HW225888   0.834   3.271   3.209
 8017SOL     OW25889   0.683   2.358  10.293
 8017SOL    HW125890   0.696   2.292  10.362
 8017SOL    HW225891   0.593   2.387  10.304
 8018SOL     OW25892   4.205  13.948   7.551
 8018SOL    HW125893   4.202  13.969   7.644
 8018SOL    HW225894   4.123  13.902   7.534
 8019SOL     OW25895   4.097   7.507   7.941
 8019SOL    HW125896   4.110   7.449   8.017
 8019SOL    HW225897   4.002   7.521   7.938
 8020SOL     OW25898   5.892  10.883  11.947
 8020SOL    HW125899   5.922  10.794  11.965
 8020SOL    HW225900   5.866  10.882  11.855
 8021SOL     OW25901  12.473  13.129  10.187
 8021SOL    HW125902  12.457  13.162  10.275
 8021SOL    HW225903  12.535  13.057  10.199
 8022SOL     OW25904   0.372   7.589   6.627
 8022SOL    HW125905   0.292   7.642   6.631
 8022SOL    HW225906   0.349   7.508   6.673
 8023SOL     OW25907  13.853   6.029   2.825
 8023SOL    HW125908  13.843   5.953   2.767
 8023SOL    HW225909  13.786   6.016   2.893
 8024SOL     OW25910   4.553   5.715   8.824
 8024SOL    HW125911   4.460   5.735   8.837
 8024SOL    HW225912   4.592   5.799   8.801
 8025SOL     OW25913   9.033   9.212   0.853
 8025SOL    HW125914   8.942   9.210   0.882
 8025SOL    HW225915   9.080   9.157   0.916
 8026SOL     OW25916  11.663   7.350   1.439
 8026SOL    HW125917  11.645   7.398   1.358
 8026SOL    HW225918  11.577   7.331   1.475
 8027SOL     OW25919  11.678   4.007   7.426
 8027SOL    HW125920  11.623   3.936   7.459
 8027SOL    HW225921  11.740   3.965   7.367
 8028SOL     OW25922  13.621   4.834   1.072
 8028SOL    HW125923  13.706   4.817   1.113
 8028SOL    HW225924  13.629   4.923   1.038
 8029SOL     OW25925   7.522   9.932   7.681
 8029SOL    HW125926   7.501   9.894   7.767
 8029SOL    HW225927   7.574   9.864   7.637
 8030SOL     OW25928   9.803   3.653  13.019
 8030SOL    HW125929   9.755   3.678  13.098
 8030SOL    HW225930   9.835   3.736  12.984
 8031SOL     OW25931   4.003   0.700   1.052
 8031SOL    HW125932   3.985   0.630   1.115
 8031SOL    HW225933   3.988   0.781   1.101
 8032SOL     OW25934   5.805   0.751   5.843
 8032SOL    HW125935   5.722   0.706   5.856
 8032SOL    HW225936   5.782   0.832   5.797
 8033SOL     OW25937   3.455   2.368   1.708
 8033SOL    HW125938   3.536   2.318   1.700
 8033SOL    HW225939   3.388   2.303   1.729
 8034SOL     OW25940  11.314   9.605   8.617
 8034SOL    HW125941  11.275   9.601   8.704
 8034SOL    HW225942  11.280   9.527   8.573
 8035SOL     OW25943   0.001  13.637   5.505
 8035SOL    HW125944  14.813  13.631   5.432
 8035SOL    HW225945   0.055  13.558   5.497
 8036SOL     OW25946   7.447   2.213   3.847
 8036SOL    HW125947   7.496   2.277   3.899
 8036SOL    HW225948   7.412   2.264   3.774
 8037SOL     OW25949   0.269   2.757   5.342
 8037SOL    HW125950   0.198   2.696   5.362
 8037SOL    HW225951   0.301   2.729   5.255
 8038SOL     OW25952   0.470  11.174   3.225
 8038SOL    HW125953   0.435  11.195   3.138
 8038SOL    HW225954   0.501  11.259   3.258
 8039SOL     OW25955  11.538   5.207   4.672
 8039SOL    HW125956  11.479   5.211   4.747
 8039SOL    HW225957  11.531   5.294   4.631
 8040SOL     OW25958   1.206   2.519   8.803
 8040SOL    HW125959   1.119   2.494   8.771
 8040SOL    HW225960   1.202   2.615   8.811
 8041SOL     OW25961   7.078  11.289   4.910
 8041SOL    HW125962   7.044  11.376   4.930
 8041SOL    HW225963   7.011  11.249   4.855
 8042SOL     OW25964  12.567   1.166  13.426
 8042SOL    HW125965  12.572   1.141  13.518
 8042SOL    HW225966  12.474   1.159  13.404
 8043SOL     OW25967   4.248   0.820   3.327
 8043SOL    HW125968   4.286   0.877   3.394
 8043SOL    HW225969   4.158   0.806   3.355
 8044SOL     OW25970  12.785  11.728   1.957
 8044SOL    HW125971  12.721  11.710   2.026
 8044SOL    HW225972  12.773  11.821   1.937
 8045SOL     OW25973  10.570  10.332   2.094
 8045SOL    HW125974  10.564  10.271   2.021
 8045SOL    HW225975  10.602  10.279   2.167
 8046SOL     OW25976   5.071   9.394   9.500
 8046SOL    HW125977   5.091   9.380   9.592
 8046SOL    HW225978   5.075   9.488   9.488
 8047SOL     OW25979   4.903   3.752   8.052
 8047SOL    HW125980   4.962   3.729   8.124
 8047SOL    HW225981   4.886   3.845   8.063
 8048SOL     OW25982  14.806  14.832   8.198
 8048SOL    HW125983  14.745   0.030   8.215
 8048SOL    HW225984  14.811  14.785   8.281
 8049SOL     OW25985  12.209   7.836   5.172
 8049SOL    HW125986  12.273   7.848   5.242
 8049SOL    HW225987  12.245   7.884   5.097
 8050SOL     OW25988   2.650   0.885   4.391
 8050SOL    HW125989   2.707   0.834   4.449
 8050SOL    HW225990   2.710   0.941   4.342
 8051SOL     OW25991   9.822  11.707  14.121
 8051SOL    HW125992   9.781  11.754  14.048
 8051SOL    HW225993   9.839  11.775  14.186
 8052SOL     OW25994   5.777   4.925   8.855
 8052SOL    HW125995   5.710   4.993   8.852
 8052SOL    HW225996   5.859   4.973   8.864
 8053SOL     OW25997  13.490   2.716  11.968
 8053SOL    HW125998  13.422   2.755  11.913
 8053SOL    HW225999  13.552   2.677  11.905
 8054SOL     OW26000   7.207  13.090  11.413
 8054SOL    HW126001   7.143  13.034  11.458
 8054SOL    HW226002   7.277  13.030  11.386
 8055SOL     OW26003   8.166   0.770  13.416
 8055SOL    HW126004   8.117   0.845  13.383
 8055SOL    HW226005   8.137   0.760  13.506
 8056SOL     OW26006  13.784   9.248   6.526
 8056SOL    HW126007  13.825   9.162   6.540
 8056SOL    HW226008  13.745   9.270   6.611
 8057SOL     OW26009   4.923   5.768   0.057
 8057SOL    HW126010   4.927   5.675   0.079
 8057SOL    HW226011   5.013   5.799   0.068
 8058SOL     OW26012   0.489  12.003  11.366
 8058SOL    HW126013   0.405  12.026  11.406
 8058SOL    HW226014   0.554  12.023  11.434
 8059SOL     OW26015   3.090   4.763  10.369
 8059SOL    HW126016   3.061   4.734  10.283
 8059SOL    HW226017   3.096   4.683  10.421
 8060SOL     OW26018   6.247   5.762  12.576
 8060SOL    HW126019   6.184   5.820  12.618
 8060SOL    HW226020   6.211   5.674  12.590
 8061SOL     OW26021   9.985   7.243   4.663
 8061SOL    HW126022   9.956   7.184   4.593
 8061SOL    HW226023   9.912   7.303   4.675
 8062SOL     OW26024   5.130   4.249   0.628
 8062SOL    HW126025   5.185   4.231   0.704
 8062SOL    HW226026   5.178   4.315   0.578
 8063SOL     OW26027   3.695   5.576   4.947
 8063SOL    HW126028   3.742   5.650   4.986
 8063SOL    HW226029   3.757   5.538   4.884
 8064SOL     OW26030  13.282   2.800   7.306
 8064SOL    HW126031  13.370   2.808   7.270
 8064SOL    HW226032  13.289   2.834   7.395
 8065SOL     OW26033   3.103  13.788   0.132
 8065SOL    HW126034   3.128  13.743   0.051
 8065SOL    HW226035   3.115  13.723   0.200
 8066SOL     OW26036   2.578   1.494   8.756
 8066SOL    HW126037   2.517   1.558   8.794
 8066SOL    HW226038   2.546   1.409   8.788
 8067SOL     OW26039   9.093  11.311   9.248
 8067SOL    HW126040   9.082  11.361   9.329
 8067SOL    HW226041   9.183  11.330   9.221
 8068SOL     OW26042   3.300  13.156   0.106
 8068SOL    HW126043   3.271  13.172   0.196
 8068SOL    HW226044   3.318  13.242   0.070
 8069SOL     OW26045   6.504   9.012   7.362
 8069SOL    HW126046   6.483   9.002   7.269
 8069SOL    HW226047   6.592   8.977   7.371
 8070SOL     OW26048   4.889   9.733  11.947
 8070SOL    HW126049   4.882   9.650  11.899
 8070SOL    HW226050   4.980   9.736  11.976
 8071SOL     OW26051   6.987   0.589   1.138
 8071SOL    HW126052   7.044   0.646   1.190
 8071SOL    HW226053   6.900   0.604   1.173
 8072SOL     OW26054   5.481   9.767   8.612
 8072SOL    HW126055   5.570   9.778   8.646
 8072SOL    HW226056   5.492   9.716   8.531
 8073SOL     OW26057  10.373   0.843   7.903
 8073SOL    HW126058  10.331   0.910   7.956
 8073SOL    HW226059  10.441   0.807   7.960
 8074SOL     OW26060  12.908  12.735  12.217
 8074SOL    HW126061  12.978  12.763  12.276
 8074SOL    HW226062  12.924  12.641  12.206
 8075SOL     OW26063   9.833   7.398  14.059
 8075SOL    HW126064   9.874   7.477  14.094
 8075SOL    HW226065   9.779   7.366  14.131
 8076SOL     OW26066   8.022   7.721  13.601
 8076SOL    HW126067   8.113   7.750  13.606
 8076SOL    HW226068   7.996   7.710  13.692
 8077SOL     OW26069   4.039   8.725   8.547
 8077SOL    HW126070   4.031   8.636   8.581
 8077SOL    HW226071   3.953   8.745   8.510
 8078SOL     OW26072   1.876  11.005   7.988
 8078SOL    HW126073   1.906  11.043   7.906
 8078SOL    HW226074   1.952  11.010   8.046
 8079SOL     OW26075   2.935  13.975   2.685
 8079SOL    HW126076   2.841  13.983   2.704
 8079SOL    HW226077   2.978  14.008   2.764
 8080SOL     OW26078   9.321   8.086   3.634
 8080SOL    HW126079   9.259   8.145   3.678
 8080SOL    HW226080   9.401   8.138   3.625
 8081SOL     OW26081   2.588   9.259   3.837
 8081SOL    HW126082   2.590   9.276   3.931
 8081SOL    HW226083   2.671   9.293   3.804
 8082SOL     OW26084   5.604   1.496   3.227
 8082SOL    HW126085   5.673   1.516   3.290
 8082SOL    HW226086   5.626   1.409   3.193
 8083SOL     OW26087   4.087  10.994  14.723
 8083SOL    HW126088   4.007  10.958  14.682
 8083SOL    HW226089   4.153  10.927  14.707
 8084SOL     OW26090  13.645   5.489  10.350
 8084SOL    HW126091  13.680   5.565  10.303
 8084SOL    HW226092  13.550   5.503  10.351
 8085SOL     OW26093  11.913  13.156  12.492
 8085SOL    HW126094  11.857  13.081  12.470
 8085SOL    HW226095  11.851  13.225  12.515
 8086SOL     OW26096   2.462  14.347   9.044
 8086SOL    HW126097   2.454  14.372   9.137
 8086SOL    HW226098   2.420  14.261   9.039
 8087SOL     OW26099  11.910   3.283   3.616
 8087SOL    HW126100  11.928   3.311   3.526
 8087SOL    HW226101  11.969   3.337   3.669
 8088SOL     OW26102   0.805   6.176   8.682
 8088SOL    HW126103   0.765   6.104   8.633
 8088SOL    HW226104   0.737   6.203   8.743
 8089SOL     OW26105  11.765   2.330   9.889
 8089SOL    HW126106  11.696   2.278   9.930
 8089SOL    HW226107  11.719   2.401   9.845
 8090SOL     OW26108   5.230  11.209   6.547
 8090SOL    HW126109   5.238  11.267   6.623
 8090SOL    HW226110   5.210  11.268   6.474
 8091SOL     OW26111  12.624   9.744   5.157
 8091SOL    HW126112  12.578   9.704   5.231
 8091SOL    HW226113  12.632   9.673   5.093
 8092SOL     OW26114  10.033   3.322   5.961
 8092SOL    HW126115   9.947   3.283   5.942
 8092SOL    HW226116  10.015   3.416   5.967
 8093SOL     OW26117  14.654  12.236  14.239
 8093SOL    HW126118  14.582  12.236  14.176
 8093SOL    HW226119  14.709  12.310  14.213
 8094SOL     OW26120   9.984   2.024   8.798
 8094SOL    HW126121   9.966   2.101   8.852
 8094SOL    HW226122  10.079   2.022   8.790
 8095SOL     OW26123   5.492  13.303   9.656
 8095SOL    HW126124   5.450  13.217   9.655
 8095SOL    HW226125   5.466  13.343   9.573
 8096SOL     OW26126   3.160   4.574   1.706
 8096SOL    HW126127   3.231   4.570   1.641
 8096SOL    HW226128   3.202   4.611   1.784
 8097SOL     OW26129   0.907   5.526  12.819
 8097SOL    HW126130   0.847   5.498  12.889
 8097SOL    HW226131   0.876   5.478  12.742
 8098SOL     OW26132  12.321  13.492  14.725
 8098SOL    HW126133  12.383  13.556  14.691
 8098SOL    HW226134  12.265  13.471  14.650
 8099SOL     OW26135   7.870   5.288  10.336
 8099SOL    HW126136   7.906   5.204  10.308
 8099SOL    HW226137   7.939   5.352  10.316
 8100SOL     OW26138  14.477   4.140   8.397
 8100SOL    HW126139  14.414   4.130   8.469
 8100SOL    HW226140  14.424   4.169   8.323
 8101SOL     OW26141   9.392   1.226   7.209
 8101SOL    HW126142   9.358   1.154   7.263
 8101SOL    HW226143   9.333   1.230   7.134
 8102SOL     OW26144   1.212   1.515  10.196
 8102SOL    HW126145   1.274   1.443  10.209
 8102SOL    HW226146   1.233   1.549  10.109
 8103SOL     OW26147  14.339   9.754   7.156
 8103SOL    HW126148  14.383   9.784   7.076
 8103SOL    HW226149  14.398   9.688   7.193
 8104SOL     OW26150  14.350   4.181  12.592
 8104SOL    HW126151  14.325   4.206  12.503
 8104SOL    HW226152  14.412   4.109  12.579
 8105SOL     OW26153  12.945   3.835   6.917
 8105SOL    HW126154  12.935   3.926   6.888
 8105SOL    HW226155  12.860   3.814   6.956
 8106SOL     OW26156   5.800  12.283  11.343
 8106SOL    HW126157   5.778  12.273  11.250
 8106SOL    HW226158   5.875  12.343  11.343
 8107SOL     OW26159   7.905   3.963   3.449
 8107SOL    HW126160   7.879   3.872   3.461
 8107SOL    HW226161   7.824   4.013   3.462
 8108SOL     OW26162  11.971   1.062   2.344
 8108SOL    HW126163  11.972   1.104   2.430
 8108SOL    HW226164  11.967   1.135   2.282
 8109SOL     OW26165   8.037   7.042   8.685
 8109SOL    HW126166   8.041   7.045   8.590
 8109SOL    HW226167   8.113   6.991   8.711
 8110SOL     OW26168  11.434   1.774  11.220
 8110SOL    HW126169  11.489   1.755  11.144
 8110SOL    HW226170  11.490   1.756  11.296
 8111SOL     OW26171  12.399   3.258   9.540
 8111SOL    HW126172  12.317   3.275   9.586
 8111SOL    HW226173  12.465   3.256   9.609
 8112SOL     OW26174  13.804  10.834   0.667
 8112SOL    HW126175  13.857  10.813   0.744
 8112SOL    HW226176  13.850  10.793   0.594
 8113SOL     OW26177   6.722  13.553   8.519
 8113SOL    HW126178   6.773  13.625   8.481
 8113SOL    HW226179   6.783  13.507   8.576
 8114SOL     OW26180   8.176   3.674  14.278
 8114SOL    HW126181   8.272   3.665  14.279
 8114SOL    HW226182   8.154   3.681  14.186
 8115SOL     OW26183   2.820   5.204  10.459
 8115SOL    HW126184   2.743   5.174  10.409
 8115SOL    HW226185   2.893   5.155  10.422
 8116SOL     OW26186   5.438  12.420   1.526
 8116SOL    HW126187   5.517  12.415   1.579
 8116SOL    HW226188   5.421  12.329   1.500
 8117SOL     OW26189   2.339   7.760   1.433
 8117SOL    HW126190   2.329   7.682   1.487
 8117SOL    HW226191   2.396   7.818   1.485
 8118SOL     OW26192   3.776  13.093   2.056
 8118SOL    HW126193   3.758  13.174   2.105
 8118SOL    HW226194   3.794  13.028   2.124
 8119SOL     OW26195  13.490   5.897  10.399
 8119SOL    HW126196  13.501   5.832  10.468
 8119SOL    HW226197  13.565   5.883  10.341
 8120SOL     OW26198   1.369   6.639   1.509
 8120SOL    HW126199   1.358   6.551   1.545
 8120SOL    HW226200   1.442   6.632   1.448
 8121SOL     OW26201   8.661   4.392  10.561
 8121SOL    HW126202   8.719   4.390  10.637
 8121SOL    HW226203   8.669   4.481  10.527
 8122SOL     OW26204   1.392  13.803   6.854
 8122SOL    HW126205   1.316  13.831   6.904
 8122SOL    HW226206   1.455  13.772   6.920
 8123SOL     OW26207   2.927   3.444   1.398
 8123SOL    HW126208   2.931   3.365   1.343
 8123SOL    HW226209   2.956   3.515   1.340
 8124SOL     OW26210   9.285   8.117  11.636
 8124SOL    HW126211   9.283   8.109  11.540
 8124SOL    HW226212   9.311   8.208  11.652
 8125SOL     OW26213   4.524   1.524   9.990
 8125SOL    HW126214   4.580   1.466  10.041
 8125SOL    HW226215   4.583   1.562   9.924
 8126SOL     OW26216  10.191   0.045   2.086
 8126SOL    HW126217  10.123   0.013   2.145
 8126SOL    HW226218  10.240   0.108   2.138
 8127SOL     OW26219  11.065  14.765   5.779
 8127SOL    HW126220  11.024  14.851   5.785
 8127SOL    HW226221  10.997  14.709   5.740
 8128SOL     OW26222   2.810   7.008   1.316
 8128SOL    HW126223   2.862   6.950   1.261
 8128SOL    HW226224   2.872   7.040   1.382
 8129SOL     OW26225   3.731   2.551  13.273
 8129SOL    HW126226   3.786   2.474  13.286
 8129SOL    HW226227   3.641   2.519  13.287
 8130SOL     OW26228   9.361   3.563  11.088
 8130SOL    HW126229   9.269   3.573  11.113
 8130SOL    HW226230   9.402   3.646  11.114
 8131SOL     OW26231   8.689  10.952   2.200
 8131SOL    HW126232   8.604  10.955   2.156
 8131SOL    HW226233   8.686  11.025   2.262
 8132SOL     OW26234  14.112  13.826  11.239
 8132SOL    HW126235  14.047  13.888  11.272
 8132SOL    HW226236  14.194  13.854  11.279
 8133SOL     OW26237   9.267   2.600   2.472
 8133SOL    HW126238   9.330   2.580   2.541
 8133SOL    HW226239   9.275   2.695   2.460
 8134SOL     OW26240  12.681  11.982   7.454
 8134SOL    HW126241  12.614  11.962   7.389
 8134SOL    HW226242  12.752  11.921   7.434
 8135SOL     OW26243  11.034   9.175   9.589
 8135SOL    HW126244  11.085   9.137   9.518
 8135SOL    HW226245  11.065   9.266   9.594
 8136SOL     OW26246   2.517   2.672  14.628
 8136SOL    HW126247   2.509   2.577  14.620
 8136SOL    HW226248   2.454   2.696  14.696
 8137SOL     OW26249   4.150   8.103   7.602
 8137SOL    HW126250   4.090   8.082   7.674
 8137SOL    HW226251   4.229   8.053   7.621
 8138SOL     OW26252   0.733   8.665   8.446
 8138SOL    HW126253   0.744   8.665   8.541
 8138SOL    HW226254   0.803   8.609   8.414
 8139SOL     OW26255   6.706  12.045   6.692
 8139SOL    HW126256   6.753  11.963   6.708
 8139SOL    HW226257   6.723  12.064   6.600
 8140SOL     OW26258  11.673   2.908   2.232
 8140SOL    HW126259  11.639   2.992   2.262
 8140SOL    HW226260  11.618   2.843   2.275
 8141SOL     OW26261   5.967   0.397   8.388
 8141SOL    HW126262   5.921   0.402   8.471
 8141SOL    HW226263   5.942   0.312   8.352
 8142SOL     OW26264  12.437   0.885  14.849
 8142SOL    HW126265  12.442   0.967   0.025
 8142SOL    HW226266  12.513   0.886  14.791
 8143SOL     OW26267   8.645   7.415  11.492
 8143SOL    HW126268   8.675   7.486  11.436
 8143SOL    HW226269   8.659   7.335  11.441
 8144SOL     OW26270   4.882   7.372  11.770
 8144SOL    HW126271   4.881   7.278  11.784
 8144SOL    HW226272   4.864   7.409  11.857
 8145SOL     OW26273   0.859  11.804   5.367
 8145SOL    HW126274   0.917  11.747   5.418
 8145SOL    HW226275   0.910  11.828   5.290
 8146SOL     OW26276   5.936   8.182  13.959
 8146SOL    HW126277   5.945   8.275  13.983
 8146SOL    HW226278   5.916   8.184  13.865
 8147SOL     OW26279   5.000   9.234   2.634
 8147SOL    HW126280   4.976   9.144   2.656
 8147SOL    HW226281   5.091   9.242   2.665
 8148SOL     OW26282  10.567  13.661   0.364
 8148SOL    HW126283  10.569  13.740   0.309
 8148SOL    HW226284  10.541  13.591   0.304
 8149SOL     OW26285   6.087   4.625   1.432
 8149SOL    HW126286   6.034   4.701   1.456
 8149SOL    HW226287   6.094   4.629   1.337
 8150SOL     OW26288   6.377   7.179   2.051
 8150SOL    HW126289   6.291   7.164   2.091
 8150SOL    HW226290   6.358   7.213   1.964
 8151SOL     OW26291   3.498   4.684   7.143
 8151SOL    HW126292   3.411   4.701   7.106
 8151SOL    HW226293   3.489   4.601   7.189
 8152SOL     OW26294   8.491   0.202   1.744
 8152SOL    HW126295   8.450   0.282   1.712
 8152SOL    HW226296   8.425   0.134   1.729
 8153SOL     OW26297   4.789  11.112   2.912
 8153SOL    HW126298   4.859  11.063   2.869
 8153SOL    HW226299   4.833  11.186   2.954
 8154SOL     OW26300  10.637   1.192  10.657
 8154SOL    HW126301  10.639   1.286  10.672
 8154SOL    HW226302  10.726   1.170  10.631
 8155SOL     OW26303   0.496  11.196   7.397
 8155SOL    HW126304   0.519  11.240   7.479
 8155SOL    HW226305   0.403  11.177   7.405
 8156SOL     OW26306   7.269   4.353   5.564
 8156SOL    HW126307   7.251   4.304   5.644
 8156SOL    HW226308   7.357   4.388   5.576
 8157SOL     OW26309  13.236   1.115  10.801
 8157SOL    HW126310  13.304   1.132  10.735
 8157SOL    HW226311  13.169   1.180  10.784
 8158SOL     OW26312  14.406   9.987   6.370
 8158SOL    HW126313  14.403  10.082   6.356
 8158SOL    HW226314  14.315   9.962   6.382
 8159SOL     OW26315   3.142   4.826   1.406
 8159SOL    HW126316   3.061   4.782   1.433
 8159SOL    HW226317   3.145   4.905   1.461
 8160SOL     OW26318  14.646  11.697  11.009
 8160SOL    HW126319  14.629  11.612  11.049
 8160SOL    HW226320  14.690  11.747  11.078
 8161SOL     OW26321  12.637  11.974   7.725
 8161SOL    HW126322  12.705  11.917   7.761
 8161SOL    HW226323  12.649  11.968   7.630
 8162SOL     OW26324  10.978   8.941   4.722
 8162SOL    HW126325  10.917   8.897   4.781
 8162SOL    HW226326  11.046   8.977   4.779
 8163SOL     OW26327   1.934  14.026  10.147
 8163SOL    HW126328   2.020  14.021  10.105
 8163SOL    HW226329   1.885  14.087  10.091
 8164SOL     OW26330   7.654   6.941   4.846
 8164SOL    HW126331   7.712   6.867   4.831
 8164SOL    HW226332   7.578   6.904   4.890
 8165SOL     OW26333   4.952  10.317   3.868
 8165SOL    HW126334   4.866  10.357   3.882
 8165SOL    HW226335   4.951  10.289   3.777
 8166SOL     OW26336   4.734   4.051   7.933
 8166SOL    HW126337   4.742   4.144   7.953
 8166SOL    HW226338   4.732   4.008   8.019
 8167SOL     OW26339  12.989   2.495   9.077
 8167SOL    HW126340  12.895   2.501   9.091
 8167SOL    HW226341  13.028   2.533   9.156
 8168SOL     OW26342   6.972  11.229   4.004
 8168SOL    HW126343   7.050  11.281   3.986
 8168SOL    HW226344   6.908  11.259   3.940
 8169SOL     OW26345   7.759   5.247   9.582
 8169SOL    HW126346   7.718   5.298   9.652
 8169SOL    HW226347   7.824   5.192   9.626
 8170SOL     OW26348   7.611   1.385   0.865
 8170SOL    HW126349   7.635   1.419   0.951
 8170SOL    HW226350   7.515   1.392   0.861
 8171SOL     OW26351  13.390   5.866  13.260
 8171SOL    HW126352  13.370   5.872  13.166
 8171SOL    HW226353  13.372   5.774  13.282
 8172SOL     OW26354   4.348   9.113  10.250
 8172SOL    HW126355   4.338   9.205  10.227
 8172SOL    HW226356   4.261   9.075  10.235
 8173SOL     OW26357  10.446   1.938   9.998
 8173SOL    HW126358  10.490   1.909  10.078
 8173SOL    HW226359  10.489   2.021   9.976
 8174SOL     OW26360   9.195  10.985   0.033
 8174SOL    HW126361   9.284  10.956   0.053
 8174SOL    HW226362   9.193  11.077   0.062
 8175SOL     OW26363   2.769  14.637   2.754
 8175SOL    HW126364   2.838  14.694   2.721
 8175SOL    HW226365   2.791  14.551   2.718
 8176SOL     OW26366  13.966   7.050  12.812
 8176SOL    HW126367  13.938   7.023  12.899
 8176SOL    HW226368  13.909   7.002  12.752
 8177SOL     OW26369   7.520   0.480   7.904
 8177SOL    HW126370   7.594   0.531   7.871
 8177SOL    HW226371   7.541   0.390   7.881
 8178SOL     OW26372   2.807   8.772   5.004
 8178SOL    HW126373   2.849   8.755   5.089
 8178SOL    HW226374   2.880   8.790   4.945
 8179SOL     OW26375   5.833   1.638   7.131
 8179SOL    HW126376   5.837   1.560   7.076
 8179SOL    HW226377   5.874   1.611   7.213
 8180SOL     OW26378   6.725   5.615   1.850
 8180SOL    HW126379   6.811   5.618   1.807
 8180SOL    HW226380   6.671   5.561   1.792
 8181SOL     OW26381   7.633  13.097   4.002
 8181SOL    HW126382   7.621  13.137   3.916
 8181SOL    HW226383   7.553  13.046   4.017
 8182SOL     OW26384   2.475   2.176   8.805
 8182SOL    HW126385   2.384   2.150   8.823
 8182SOL    HW226386   2.518   2.174   8.890
 8183SOL     OW26387  11.791   8.806   7.790
 8183SOL    HW126388  11.843   8.811   7.710
 8183SOL    HW226389  11.701   8.820   7.760
 8184SOL     OW26390  14.657   9.603  13.090
 8184SOL    HW126391  14.730   9.664  13.094
 8184SOL    HW226392  14.583   9.651  13.128
 8185SOL     OW26393   2.045   7.628   9.853
 8185SOL    HW126394   2.127   7.583   9.830
 8185SOL    HW226395   2.072   7.695   9.916
 8186SOL     OW26396  10.041   3.258   0.579
 8186SOL    HW126397  10.061   3.166   0.595
 8186SOL    HW226398   9.987   3.284   0.654
 8187SOL     OW26399   4.572  10.257   6.571
 8187SOL    HW126400   4.617  10.253   6.656
 8187SOL    HW226401   4.563  10.350   6.554
 8188SOL     OW26402   9.651   1.603  13.653
 8188SOL    HW126403   9.587   1.620  13.723
 8188SOL    HW226404   9.720   1.553  13.696
 8189SOL     OW26405   8.928   7.928  12.776
 8189SOL    HW126406   8.987   7.900  12.847
 8189SOL    HW226407   8.982   7.923  12.697
 8190SOL     OW26408   7.913   3.880  13.109
 8190SOL    HW126409   7.922   3.893  13.014
 8190SOL    HW226410   7.920   3.968  13.146
 8191SOL     OW26411   2.307  12.151   5.195
 8191SOL    HW126412   2.320  12.215   5.265
 8191SOL    HW226413   2.394  12.139   5.157
 8192SOL     OW26414   0.186  11.248  12.270
 8192SOL    HW126415   0.204  11.249  12.364
 8192SOL    HW226416   0.203  11.337  12.241
 8193SOL     OW26417   7.124   8.080   2.326
 8193SOL    HW126418   7.032   8.101   2.310
 8193SOL    HW226419   7.170   8.110   2.248
 8194SOL     OW26420   6.634   9.074   0.592
 8194SOL    HW126421   6.712   9.115   0.555
 8194SOL    HW226422   6.561   9.129   0.561
 8195SOL     OW26423  13.255   9.116   8.314
 8195SOL    HW126424  13.291   9.030   8.291
 8195SOL    HW226425  13.186   9.132   8.250
 8196SOL     OW26426   7.308   3.235  14.085
 8196SOL    HW126427   7.391   3.211  14.126
 8196SOL    HW226428   7.251   3.257  14.158
 8197SOL     OW26429   3.569   2.219   9.301
 8197SOL    HW126430   3.556   2.296   9.246
 8197SOL    HW226431   3.506   2.231   9.373
 8198SOL     OW26432   1.682  13.696   1.935
 8198SOL    HW126433   1.660  13.685   1.843
 8198SOL    HW226434   1.772  13.663   1.942
 8199SOL     OW26435   8.954  12.242   5.636
 8199SOL    HW126436   8.875  12.250   5.584
 8199SOL    HW226437   8.984  12.332   5.649
 8200SOL     OW26438   5.281   9.814   2.657
 8200SOL    HW126439   5.216   9.745   2.641
 8200SOL    HW226440   5.256   9.883   2.596
 8201SOL     OW26441   7.343   0.766  12.557
 8201SOL    HW126442   7.401   0.692  12.542
 8201SOL    HW226443   7.270   0.751  12.497
 8202SOL     OW26444   5.930   9.798  13.882
 8202SOL    HW126445   5.924   9.788  13.787
 8202SOL    HW226446   5.839   9.803  13.911
 8203SOL     OW26447   0.051   5.054   9.795
 8203SOL    HW126448  14.852   5.117   9.802
 8203SOL    HW226449   0.106   5.073   9.871
 8204SOL     OW26450   4.938   4.304   6.977
 8204SOL    HW126451   4.989   4.251   6.916
 8204SOL    HW226452   4.886   4.240   7.026
 8205SOL     OW26453   0.068  10.219   6.737
 8205SOL    HW126454  14.865  10.168   6.711
 8205SOL    HW226455   0.055  10.304   6.695
 8206SOL     OW26456   9.861   2.540   4.172
 8206SOL    HW126457   9.788   2.480   4.159
 8206SOL    HW226458   9.828   2.625   4.143
 8207SOL     OW26459  12.556  13.297   1.633
 8207SOL    HW126460  12.576  13.207   1.607
 8207SOL    HW226461  12.489  13.289   1.701
 8208SOL     OW26462  12.684   2.788   4.002
 8208SOL    HW126463  12.772   2.756   4.019
 8208SOL    HW226464  12.644   2.795   4.088
 8209SOL     OW26465   0.120  11.159  13.872
 8209SOL    HW126466   0.199  11.114  13.902
 8209SOL    HW226467   0.082  11.100  13.807
 8210SOL     OW26468   3.468  10.261   7.808
 8210SOL    HW126469   3.452  10.254   7.714
 8210SOL    HW226470   3.556  10.226   7.821
 8211SOL     OW26471   8.146   7.491   8.458
 8211SOL    HW126472   8.204   7.432   8.410
 8211SOL    HW226473   8.175   7.579   8.432
 8212SOL     OW26474  13.119   6.118   4.871
 8212SOL    HW126475  13.177   6.055   4.914
 8212SOL    HW226476  13.178   6.182   4.831
 8213SOL     OW26477   0.409   6.354   4.612
 8213SOL    HW126478   0.371   6.344   4.699
 8213SOL    HW226479   0.365   6.430   4.575
 8214SOL     OW26480   6.919  10.197  14.344
 8214SOL    HW126481   6.884  10.181  14.256
 8214SOL    HW226482   6.902  10.290  14.359
 8215SOL     OW26483  11.231  11.653   5.398
 8215SOL    HW126484  11.213  11.628   5.489
 8215SOL    HW226485  11.254  11.745   5.402
 8216SOL     OW26486   2.449   1.610   4.315
 8216SOL    HW126487   2.440   1.704   4.298
 8216SOL    HW226488   2.435   1.568   4.230
 8217SOL     OW26489  10.926   0.143  12.322
 8217SOL    HW126490  10.886   0.209  12.265
 8217SOL    HW226491  10.990   0.193  12.373
 8218SOL     OW26492   1.420  13.221   9.745
 8218SOL    HW126493   1.492  13.253   9.692
 8218SOL    HW226494   1.447  13.134   9.773
 8219SOL     OW26495  14.688   8.076   2.046
 8219SOL    HW126496  14.622   8.082   2.115
 8219SOL    HW226497  14.696   7.983   2.027
 8220SOL     OW26498   6.221   0.136   3.987
 8220SOL    HW126499   6.214   0.043   3.965
 8220SOL    HW226500   6.313   0.147   4.013
 8221SOL     OW26501  10.506   0.090   2.881
 8221SOL    HW126502  10.535   0.000   2.865
 8221SOL    HW226503  10.548   0.141   2.812
 8222SOL     OW26504   8.722   3.250   7.592
 8222SOL    HW126505   8.659   3.310   7.553
 8222SOL    HW226506   8.686   3.163   7.575
 8223SOL     OW26507  10.840  11.811  12.145
 8223SOL    HW126508  10.835  11.788  12.238
 8223SOL    HW226509  10.893  11.891  12.143
 8224SOL     OW26510   1.387   2.909   8.253
 8224SOL    HW126511   1.356   2.899   8.343
 8224SOL    HW226512   1.307   2.905   8.200
 8225SOL     OW26513  14.114   6.372   8.676
 8225SOL    HW126514  14.071   6.453   8.706
 8225SOL    HW226515  14.120   6.383   8.582
 8226SOL     OW26516   1.422   6.770   2.790
 8226SOL    HW126517   1.384   6.719   2.862
 8226SOL    HW226518   1.508   6.731   2.776
 8227SOL     OW26519   3.312   2.664  12.583
 8227SOL    HW126520   3.257   2.637  12.509
 8227SOL    HW226521   3.346   2.583  12.619
 8228SOL     OW26522   5.900  10.491   6.195
 8228SOL    HW126523   5.912  10.410   6.146
 8228SOL    HW226524   5.842  10.544   6.139
 8229SOL     OW26525  13.674   3.881   0.483
 8229SOL    HW126526  13.616   3.861   0.409
 8229SOL    HW226527  13.625   3.852   0.560
 8230SOL     OW26528   6.710   4.037   1.144
 8230SOL    HW126529   6.636   4.080   1.101
 8230SOL    HW226530   6.771   4.108   1.164
 8231SOL     OW26531   6.082   8.045   1.149
 8231SOL    HW126532   6.084   8.102   1.226
 8231SOL    HW226533   6.172   8.047   1.116
 8232SOL     OW26534  10.551  14.200  10.033
 8232SOL    HW126535  10.643  14.226  10.026
 8232SOL    HW226536  10.502  14.282  10.026
 8233SOL     OW26537   2.901   9.767   7.561
 8233SOL    HW126538   2.837   9.807   7.502
 8233SOL    HW226539   2.883   9.673   7.555
 8234SOL     OW26540   6.801  10.135   7.010
 8234SOL    HW126541   6.728  10.075   7.021
 8234SOL    HW226542   6.831  10.154   7.100
 8235SOL     OW26543   9.295  12.793   9.698
 8235SOL    HW126544   9.241  12.848   9.641
 8235SOL    HW226545   9.342  12.855   9.754
 8236SOL     OW26546   3.971  10.224   2.571
 8236SOL    HW126547   4.034  10.259   2.634
 8236SOL    HW226548   4.000  10.259   2.487
 8237SOL     OW26549   1.526   7.541   0.564
 8237SOL    HW126550   1.620   7.542   0.580
 8237SOL    HW226551   1.515   7.489   0.485
 8238SOL     OW26552   1.073   9.984   4.357
 8238SOL    HW126553   1.039   9.962   4.270
 8238SOL    HW226554   1.135  10.054   4.342
 8239SOL     OW26555   7.726   8.924   6.873
 8239SOL    HW126556   7.705   8.903   6.964
 8239SOL    HW226557   7.688   9.011   6.859
 8240SOL     OW26558   5.561   9.714   2.262
 8240SOL    HW126559   5.606   9.684   2.183
 8240SOL    HW226560   5.621   9.775   2.303
 8241SOL     OW26561   3.586   1.893   7.872
 8241SOL    HW126562   3.611   1.830   7.940
 8241SOL    HW226563   3.647   1.967   7.884
 8242SOL     OW26564  13.566  13.963  14.338
 8242SOL    HW126565  13.526  14.040  14.379
 8242SOL    HW226566  13.507  13.941  14.265
 8243SOL     OW26567  10.894  12.939  10.450
 8243SOL    HW126568  10.948  12.893  10.515
 8243SOL    HW226569  10.819  12.883  10.437
 8244SOL     OW26570  13.242   8.586   9.213
 8244SOL    HW126571  13.304   8.593   9.285
 8244SOL    HW226572  13.171   8.645   9.237
 8245SOL     OW26573   4.960  14.657   5.851
 8245SOL    HW126574   4.986  14.740   5.891
 8245SOL    HW226575   4.957  14.676   5.757
 8246SOL     OW26576   4.968   4.805  10.530
 8246SOL    HW126577   5.002   4.716  10.522
 8246SOL    HW226578   4.901   4.799  10.598
 8247SOL     OW26579   7.725   0.340   0.669
 8247SOL    HW126580   7.785   0.284   0.719
 8247SOL    HW226581   7.639   0.300   0.682
 8248SOL     OW26582   2.006  12.196   7.087
 8248SOL    HW126583   2.086  12.148   7.111
 8248SOL    HW226584   2.037  12.281   7.057
 8249SOL     OW26585   1.618   1.549  11.700
 8249SOL    HW126586   1.627   1.617  11.633
 8249SOL    HW226587   1.654   1.588  11.779
 8250SOL     OW26588   1.797  13.140  11.504
 8250SOL    HW126589   1.857  13.133  11.429
 8250SOL    HW226590   1.715  13.104  11.472
 8251SOL     OW26591   0.172  11.563   1.897
 8251SOL    HW126592   0.103  11.532   1.838
 8251SOL    HW226593   0.151  11.655   1.912
 8252SOL     OW26594  12.869   6.063   5.887
 8252SOL    HW126595  12.960   6.093   5.898
 8252SOL    HW226596  12.851   6.012   5.966
 8253SOL     OW26597   2.581  10.237   2.907
 8253SOL    HW126598   2.664  10.190   2.897
 8253SOL    HW226599   2.552  10.214   2.996
 8254SOL     OW26600   6.768  13.899   0.992
 8254SOL    HW126601   6.777  13.918   0.898
 8254SOL    HW226602   6.835  13.953   1.034
 8255SOL     OW26603   7.228   7.764  11.615
 8255SOL    HW126604   7.223   7.711  11.536
 8255SOL    HW226605   7.272   7.707  11.679
 8256SOL     OW26606   6.996  13.901   1.180
 8256SOL    HW126607   7.057  13.827   1.180
 8256SOL    HW226608   7.052  13.979   1.176
 8257SOL     OW26609   7.758  14.510  13.049
 8257SOL    HW126610   7.673  14.479  13.081
 8257SOL    HW226611   7.821  14.465  13.105
 8258SOL     OW26612  11.416   6.332   7.537
 8258SOL    HW126613  11.511   6.335   7.529
 8258SOL    HW226614  11.387   6.422   7.524
 8259SOL     OW26615  12.125  10.270  11.812
 8259SOL    HW126616  12.110  10.280  11.906
 8259SOL    HW226617  12.113  10.357  11.776
 8260SOL     OW26618  13.926   3.960   0.572
 8260SOL    HW126619  13.918   3.965   0.667
 8260SOL    HW226620  13.849   3.910   0.544
 8261SOL     OW26621   4.936   9.071   5.367
 8261SOL    HW126622   4.949   9.163   5.344
 8261SOL    HW226623   5.025   9.036   5.377
 8262SOL     OW26624   5.594   2.542   7.913
 8262SOL    HW126625   5.569   2.518   7.824
 8262SOL    HW226626   5.513   2.532   7.964
 8263SOL     OW26627   9.074   0.983  11.808
 8263SOL    HW126628   8.993   0.977  11.757
 8263SOL    HW226629   9.046   1.014  11.894
 8264SOL     OW26630   9.542  14.364   2.869
 8264SOL    HW126631   9.521  14.272   2.886
 8264SOL    HW226632   9.460  14.411   2.885
 8265SOL     OW26633   3.903  11.206   0.453
 8265SOL    HW126634   3.814  11.234   0.476
 8265SOL    HW226635   3.915  11.236   0.363
 8266SOL     OW26636   0.043   0.567   6.798
 8266SOL    HW126637   0.044   0.620   6.877
 8266SOL    HW226638   0.132   0.530   6.793
 8267SOL     OW26639   4.072   0.391   0.437
 8267SOL    HW126640   4.109   0.363   0.520
 8267SOL    HW226641   4.025   0.472   0.458
 8268SOL     OW26642   2.972   1.961   9.738
 8268SOL    HW126643   2.904   1.908   9.779
 8268SOL    HW226644   3.053   1.914   9.755
 8269SOL     OW26645   0.743   6.332   7.667
 8269SOL    HW126646   0.720   6.353   7.758
 8269SOL    HW226647   0.783   6.245   7.672
 8270SOL     OW26648   6.416   7.042   0.102
 8270SOL    HW126649   6.400   6.951   0.078
 8270SOL    HW226650   6.511   7.049   0.105
 8271SOL     OW26651   2.720   6.883   1.897
 8271SOL    HW126652   2.698   6.849   1.811
 8271SOL    HW226653   2.639   6.874   1.948
 8272SOL     OW26654   3.286  14.501   7.029
 8272SOL    HW126655   3.369  14.455   7.015
 8272SOL    HW226656   3.230  14.436   7.073
 8273SOL     OW26657   2.797  13.930  10.504
 8273SOL    HW126658   2.847  13.850  10.488
 8273SOL    HW226659   2.707  13.900  10.519
 8274SOL     OW26660   9.929  13.345  14.445
 8274SOL    HW126661   9.946  13.254  14.420
 8274SOL    HW226662   9.937  13.347  14.540
 8275SOL     OW26663  10.729  12.813   5.057
 8275SOL    HW126664  10.669  12.884   5.032
 8275SOL    HW226665  10.811  12.835   5.014
 8276SOL     OW26666   8.565  11.880   6.982
 8276SOL    HW126667   8.657  11.894   7.005
 8276SOL    HW226668   8.556  11.916   6.894
 8277SOL     OW26669  11.703  10.130  12.065
 8277SOL    HW126670  11.749  10.133  12.149
 8277SOL    HW226671  11.764  10.087  12.005
 8278SOL     OW26672  11.973   7.899   2.768
 8278SOL    HW126673  11.954   7.963   2.837
 8278SOL    HW226674  11.890   7.888   2.722
 8279SOL     OW26675   2.180   8.965   0.949
 8279SOL    HW126676   2.172   8.897   0.882
 8279SOL    HW226677   2.136   8.928   1.026
 8280SOL     OW26678   2.403  11.303  14.296
 8280SOL    HW126679   2.472  11.264  14.243
 8280SOL    HW226680   2.438  11.387  14.324
 8281SOL     OW26681   3.079   1.192   4.957
 8281SOL    HW126682   3.087   1.219   4.866
 8281SOL    HW226683   3.122   1.106   4.960
 8282SOL     OW26684   2.610  11.053   3.621
 8282SOL    HW126685   2.566  11.108   3.557
 8282SOL    HW226686   2.540  11.020   3.677
 8283SOL     OW26687  12.695   1.774   0.240
 8283SOL    HW126688  12.719   1.686   0.270
 8283SOL    HW226689  12.611   1.791   0.281
 8284SOL     OW26690   1.330   1.614  13.431
 8284SOL    HW126691   1.341   1.532  13.480
 8284SOL    HW226692   1.236   1.633  13.437
 8285SOL     OW26693   1.494   3.332  14.180
 8285SOL    HW126694   1.520   3.301  14.093
 8285SOL    HW226695   1.486   3.252  14.232
 8286SOL     OW26696  11.461   4.823   7.530
 8286SOL    HW126697  11.365   4.815   7.536
 8286SOL    HW226698  11.486   4.873   7.607
 8287SOL     OW26699   5.718  14.658   4.446
 8287SOL    HW126700   5.696  14.693   4.360
 8287SOL    HW226701   5.772  14.725   4.487
 8288SOL     OW26702   4.479   8.557   6.455
 8288SOL    HW126703   4.384   8.546   6.449
 8288SOL    HW226704   4.512   8.470   6.476
 8289SOL     OW26705   9.343   5.864   8.002
 8289SOL    HW126706   9.265   5.883   7.950
 8289SOL    HW226707   9.364   5.947   8.045
 8290SOL     OW26708   3.551  14.239   7.989
 8290SOL    HW126709   3.525  14.324   8.023
 8290SOL    HW226710   3.647  14.240   7.992
 8291SOL     OW26711   9.942   8.910   1.851
 8291SOL    HW126712   9.857   8.873   1.827
 8291SOL    HW226713   9.950   8.987   1.794
 8292SOL     OW26714   2.994   8.710  10.969
 8292SOL    HW126715   2.904   8.734  10.946
 8292SOL    HW226716   3.002   8.733  11.061
 8293SOL     OW26717   1.634   7.296   8.743
 8293SOL    HW126718   1.665   7.353   8.673
 8293SOL    HW226719   1.696   7.224   8.745
 8294SOL     OW26720   2.687  10.232  13.275
 8294SOL    HW126721   2.726  10.238  13.188
 8294SOL    HW226722   2.596  10.257  13.262
 8295SOL     OW26723   7.375   8.165  14.598
 8295SOL    HW126724   7.339   8.220  14.529
 8295SOL    HW226725   7.324   8.084  14.592
 8296SOL     OW26726   9.992  14.074  11.839
 8296SOL    HW126727   9.980  14.074  11.744
 8296SOL    HW226728   9.908  14.104  11.874
 8297SOL     OW26729   1.612   9.457   3.872
 8297SOL    HW126730   1.570   9.429   3.791
 8297SOL    HW226731   1.701   9.424   3.865
 8298SOL     OW26732   3.817   6.939   2.432
 8298SOL    HW126733   3.847   6.907   2.347
 8298SOL    HW226734   3.866   7.020   2.446
 8299SOL     OW26735  12.196   7.302   1.302
 8299SOL    HW126736  12.161   7.309   1.213
 8299SOL    HW226737  12.137   7.355   1.355
 8300SOL     OW26738   2.661   5.861   5.554
 8300SOL    HW126739   2.624   5.791   5.500
 8300SOL    HW226740   2.730   5.899   5.499
 8301SOL     OW26741   7.446   1.866   5.225
 8301SOL    HW126742   7.399   1.842   5.305
 8301SOL    HW226743   7.398   1.942   5.191
 8302SOL     OW26744   6.951  13.026   4.287
 8302SOL    HW126745   6.927  13.005   4.197
 8302SOL    HW226746   6.977  12.942   4.326
 8303SOL     OW26747  12.804   8.739   8.250
 8303SOL    HW126748  12.813   8.712   8.158
 8303SOL    HW226749  12.803   8.657   8.299
 8304SOL     OW26750   7.959  11.879   9.275
 8304SOL    HW126751   7.930  11.966   9.301
 8304SOL    HW226752   8.055  11.883   9.279
 8305SOL     OW26753   4.044   8.919  12.116
 8305SOL    HW126754   4.052   8.849  12.181
 8305SOL    HW226755   4.018   8.996  12.167
 8306SOL     OW26756   6.327   1.072   4.621
 8306SOL    HW126757   6.264   1.141   4.644
 8306SOL    HW226758   6.277   0.991   4.630
 8307SOL     OW26759   8.977   2.874  13.712
 8307SOL    HW126760   9.023   2.791  13.709
 8307SOL    HW226761   8.895   2.857  13.665
 8308SOL     OW26762  11.586   7.752  13.147
 8308SOL    HW126763  11.532   7.674  13.137
 8308SOL    HW226764  11.591   7.789  13.059
 8309SOL     OW26765   3.563   0.949   3.152
 8309SOL    HW126766   3.610   0.965   3.234
 8309SOL    HW226767   3.471   0.963   3.174
 8310SOL     OW26768  12.908  14.092   4.847
 8310SOL    HW126769  12.952  14.132   4.922
 8310SOL    HW226770  12.975  14.037   4.806
 8311SOL     OW26771  10.388  11.420   2.865
 8311SOL    HW126772  10.445  11.439   2.940
 8311SOL    HW226773  10.437  11.357   2.812
 8312SOL     OW26774   0.115   6.395   9.288
 8312SOL    HW126775   0.152   6.425   9.205
 8312SOL    HW226776   0.142   6.304   9.295
 8313SOL     OW26777   4.298   5.750   0.637
 8313SOL    HW126778   4.275   5.842   0.643
 8313SOL    HW226779   4.337   5.740   0.550
 8314SOL     OW26780   2.147   8.042  13.581
 8314SOL    HW126781   2.222   8.063  13.526
 8314SOL    HW226782   2.104   7.969  13.536
 8315SOL     OW26783   2.160  12.214  10.836
 8315SOL    HW126784   2.087  12.267  10.868
 8315SOL    HW226785   2.222  12.278  10.801
 8316SOL     OW26786  11.502  12.497  10.162
 8316SOL    HW126787  11.452  12.561  10.110
 8316SOL    HW226788  11.475  12.513  10.252
 8317SOL     OW26789   9.377   7.574  10.864
 8317SOL    HW126790   9.317   7.514  10.909
 8317SOL    HW226791   9.379   7.542  10.773
 8318SOL     OW26792   3.002  12.161   9.591
 8318SOL    HW126793   2.987  12.240   9.539
 8318SOL    HW226794   2.930  12.102   9.567
 8319SOL     OW26795  13.449   4.992  12.620
 8319SOL    HW126796  13.386   5.029  12.682
 8319SOL    HW226797  13.476   5.067  12.567
 8320SOL     OW26798   2.653   4.946   4.265
 8320SOL    HW126799   2.707   5.005   4.317
 8320SOL    HW226800   2.590   5.003   4.222
 8321SOL     OW26801   1.466   2.107   1.283
 8321SOL    HW126802   1.535   2.072   1.227
 8321SOL    HW226803   1.464   2.200   1.264
 8322SOL     OW26804   1.022  11.031  13.181
 8322SOL    HW126805   1.003  11.117  13.220
 8322SOL    HW226806   1.042  11.050  13.090
 8323SOL     OW26807  10.028   9.059   2.110
 8323SOL    HW126808  10.027   9.124   2.040
 8323SOL    HW226809   9.991   8.980   2.070
 8324SOL     OW26810  12.936   3.637   8.917
 8324SOL    HW126811  12.870   3.606   8.855
 8324SOL    HW226812  12.969   3.718   8.879
 8325SOL     OW26813   3.923   1.831   9.641
 8325SOL    HW126814   3.914   1.782   9.560
 8325SOL    HW226815   3.942   1.764   9.708
 8326SOL     OW26816   6.854   0.620   2.694
 8326SOL    HW126817   6.759   0.622   2.706
 8326SOL    HW226818   6.888   0.678   2.762
 8327SOL     OW26819   3.262  14.787   6.452
 8327SOL    HW126820   3.273  14.693   6.436
 8327SOL    HW226821   3.224  14.820   6.371
 8328SOL     OW26822  10.917   6.041   2.967
 8328SOL    HW126823  10.836   6.092   2.959
 8328SOL    HW226824  10.987   6.106   2.957
 8329SOL     OW26825   0.544   9.216   3.814
 8329SOL    HW126826   0.598   9.217   3.893
 8329SOL    HW226827   0.455   9.230   3.846
 8330SOL     OW26828   0.841   0.690  14.784
 8330SOL    HW126829   0.795   0.642  14.852
 8330SOL    HW226830   0.904   0.627  14.748
 8331SOL     OW26831  12.853   0.126   7.895
 8331SOL    HW126832  12.783   0.180   7.857
 8331SOL    HW226833  12.813   0.040   7.905
 8332SOL     OW26834  13.382  13.326   9.191
 8332SOL    HW126835  13.316  13.335   9.123
 8332SOL    HW226836  13.358  13.245   9.237
 8333SOL     OW26837  13.821   9.787   8.418
 8333SOL    HW126838  13.745   9.751   8.372
 8333SOL    HW226839  13.896   9.757   8.367
 8334SOL     OW26840   5.912  10.937   3.574
 8334SOL    HW126841   5.916  10.895   3.488
 8334SOL    HW226842   6.003  10.940   3.603
 8335SOL     OW26843   3.158   0.445  12.067
 8335SOL    HW126844   3.216   0.398  12.007
 8335SOL    HW226845   3.112   0.376  12.114
 8336SOL     OW26846  13.269   4.484  12.969
 8336SOL    HW126847  13.289   4.549  13.037
 8336SOL    HW226848  13.181   4.507  12.940
 8337SOL     OW26849   4.863  13.201   3.966
 8337SOL    HW126850   4.829  13.179   4.053
 8337SOL    HW226851   4.854  13.120   3.916
 8338SOL     OW26852   7.580   3.708  14.685
 8338SOL    HW126853   7.553   3.692  14.595
 8338SOL    HW226854   7.616   3.625  14.715
 8339SOL     OW26855  10.055   0.783   2.145
 8339SOL    HW126856  10.082   0.758   2.057
 8339SOL    HW226857   9.963   0.809   2.137
 8340SOL     OW26858   1.659  10.011   7.389
 8340SOL    HW126859   1.575   9.991   7.348
 8340SOL    HW226860   1.690  10.089   7.343
 8341SOL     OW26861  10.169   8.642   5.463
 8341SOL    HW126862  10.095   8.581   5.471
 8341SOL    HW226863  10.245   8.590   5.487
 8342SOL     OW26864   3.093   4.682  13.975
 8342SOL    HW126865   3.057   4.642  14.054
 8342SOL    HW226866   3.020   4.684  13.913
 8343SOL     OW26867   4.837   6.152  10.451
 8343SOL    HW126868   4.886   6.113  10.523
 8343SOL    HW226869   4.747   6.157  10.482
 8344SOL     OW26870  12.173  11.492   3.011
 8344SOL    HW126871  12.095  11.546   3.023
 8344SOL    HW226872  12.244  11.544   3.049
 8345SOL     OW26873  13.677   2.315  11.833
 8345SOL    HW126874  13.597   2.304  11.780
 8345SOL    HW226875  13.655   2.276  11.917
 8346SOL     OW26876   0.776   3.109  14.762
 8346SOL    HW126877   0.829   3.030  14.756
 8346SOL    HW226878   0.688   3.081  14.735
 8347SOL     OW26879  12.188  10.655   8.486
 8347SOL    HW126880  12.129  10.589   8.450
 8347SOL    HW226881  12.136  10.700   8.552
 8348SOL     OW26882   5.934  12.893   1.385
 8348SOL    HW126883   6.026  12.880   1.363
 8348SOL    HW226884   5.930  12.877   1.480
 8349SOL     OW26885  10.272   6.961  13.434
 8349SOL    HW126886  10.227   7.028  13.382
 8349SOL    HW226887  10.261   6.990  13.524
 8350SOL     OW26888   5.445  13.739   0.782
 8350SOL    HW126889   5.395  13.660   0.803
 8350SOL    HW226890   5.471  13.774   0.867
 8351SOL     OW26891  11.562   0.799   0.366
 8351SOL    HW126892  11.632   0.772   0.424
 8351SOL    HW226893  11.600   0.868   0.311
 8352SOL     OW26894  11.866   7.124   1.956
 8352SOL    HW126895  11.909   7.185   1.897
 8352SOL    HW226896  11.802   7.078   1.901
 8353SOL     OW26897   2.029  12.419   8.889
 8353SOL    HW126898   2.113  12.465   8.887
 8353SOL    HW226899   2.042  12.349   8.954
 8354SOL     OW26900   8.646   8.830   5.510
 8354SOL    HW126901   8.612   8.821   5.421
 8354SOL    HW226902   8.685   8.918   5.512
 8355SOL     OW26903  13.501   4.183   4.457
 8355SOL    HW126904  13.555   4.145   4.526
 8355SOL    HW226905  13.535   4.143   4.376
 8356SOL     OW26906   8.048   1.803  14.166
 8356SOL    HW126907   8.015   1.884  14.205
 8356SOL    HW226908   8.130   1.829  14.123
 8357SOL     OW26909   9.859   4.383   6.586
 8357SOL    HW126910   9.831   4.428   6.666
 8357SOL    HW226911   9.951   4.360   6.603
 8358SOL     OW26912   6.815  14.257   6.472
 8358SOL    HW126913   6.783  14.291   6.555
 8358SOL    HW226914   6.738  14.257   6.415
 8359SOL     OW26915   9.536   2.422  13.521
 8359SOL    HW126916   9.599   2.430  13.449
 8359SOL    HW226917   9.584   2.378  13.590
 8360SOL     OW26918  13.108  13.249   0.414
 8360SOL    HW126919  13.038  13.302   0.374
 8360SOL    HW226920  13.103  13.270   0.507
 8361SOL     OW26921   8.680   7.626   4.945
 8361SOL    HW126922   8.638   7.549   4.908
 8361SOL    HW226923   8.640   7.700   4.898
 8362SOL     OW26924   0.656   2.374  14.848
 8362SOL    HW126925   0.688   2.293  14.808
 8362SOL    HW226926   0.617   2.423  14.775
 8363SOL     OW26927  11.447   6.954  13.328
 8363SOL    HW126928  11.359   6.943  13.293
 8363SOL    HW226929  11.488   6.868  13.317
 8364SOL     OW26930   7.970   8.686  13.934
 8364SOL    HW126931   8.039   8.747  13.961
 8364SOL    HW226932   7.893   8.712  13.986
 8365SOL     OW26933   4.087   7.835   0.177
 8365SOL    HW126934   4.175   7.825   0.213
 8365SOL    HW226935   4.045   7.750   0.191
 8366SOL     OW26936  11.015   0.817   6.197
 8366SOL    HW126937  10.956   0.860   6.135
 8366SOL    HW226938  11.032   0.884   6.263
 8367SOL     OW26939   0.401   9.181  13.243
 8367SOL    HW126940   0.398   9.269  13.281
 8367SOL    HW226941   0.313   9.168  13.208
 8368SOL     OW26942   9.676  11.412  11.774
 8368SOL    HW126943   9.581  11.414  11.789
 8368SOL    HW226944   9.714  11.411  11.861
 8369SOL     OW26945   8.957   4.213  12.351
 8369SOL    HW126946   8.868   4.202  12.386
 8369SOL    HW226947   8.987   4.296  12.389
 8370SOL     OW26948   1.419  12.886   4.908
 8370SOL    HW126949   1.459  12.950   4.967
 8370SOL    HW226950   1.467  12.804   4.925
 8371SOL     OW26951   1.806   3.769   1.747
 8371SOL    HW126952   1.832   3.848   1.700
 8371SOL    HW226953   1.722   3.745   1.709
 8372SOL     OW26954  12.453   0.841   8.180
 8372SOL    HW126955  12.361   0.816   8.166
 8372SOL    HW226956  12.503   0.774   8.134
 8373SOL     OW26957  13.327   4.298   4.009
 8373SOL    HW126958  13.327   4.302   4.104
 8373SOL    HW226959  13.293   4.384   3.981
 8374SOL     OW26960   2.656  10.493   4.444
 8374SOL    HW126961   2.591  10.425   4.425
 8374SOL    HW226962   2.651  10.505   4.539
 8375SOL     OW26963   8.174   9.270   3.836
 8375SOL    HW126964   8.121   9.340   3.798
 8375SOL    HW226965   8.249   9.261   3.776
 8376SOL     OW26966   7.082   7.972   2.944
 8376SOL    HW126967   7.005   7.972   3.001
 8376SOL    HW226968   7.049   7.937   2.861
 8377SOL     OW26969   4.334   4.448  10.709
 8377SOL    HW126970   4.298   4.476  10.625
 8377SOL    HW226971   4.328   4.353  10.707
 8378SOL     OW26972  13.875   2.928   1.435
 8378SOL    HW126973  13.856   2.991   1.365
 8378SOL    HW226974  13.854   2.975   1.516
 8379SOL     OW26975  10.373   6.482   8.474
 8379SOL    HW126976  10.452   6.530   8.499
 8379SOL    HW226977  10.304   6.520   8.528
 8380SOL     OW26978  12.684  11.670   2.448
 8380SOL    HW126979  12.779  11.674   2.463
 8380SOL    HW226980  12.654  11.760   2.462
 8381SOL     OW26981   4.968  13.822  12.460
 8381SOL    HW126982   4.954  13.743  12.407
 8381SOL    HW226983   4.932  13.799  12.546
 8382SOL     OW26984  14.285  10.169   2.938
 8382SOL    HW126985  14.318  10.209   3.018
 8382SOL    HW226986  14.303  10.075   2.948
 8383SOL     OW26987   0.882   5.325   8.159
 8383SOL    HW126988   0.863   5.396   8.221
 8383SOL    HW226989   0.802   5.319   8.106
 8384SOL     OW26990  14.663  11.601   4.357
 8384SOL    HW126991  14.693  11.688   4.330
 8384SOL    HW226992  14.581  11.617   4.404
 8385SOL     OW26993   9.759   7.937  10.489
 8385SOL    HW126994   9.808   7.945  10.571
 8385SOL    HW226995   9.690   8.003  10.497
 8386SOL     OW26996   1.906   6.827   1.463
 8386SOL    HW126997   1.885   6.798   1.552
 8386SOL    HW226998   1.978   6.890   1.474
 8387SOL     OW26999   9.305   7.097   9.408
 8387SOL    HW127000   9.241   7.096   9.336
 8387SOL    HW227001   9.310   7.188   9.434
 8388SOL     OW27002  14.870  12.482  12.679
 8388SOL    HW127003  14.863  12.568  12.722
 8388SOL    HW227004   0.032  12.424  12.746
 8389SOL     OW27005  10.998   9.843  12.696
 8389SOL    HW127006  10.911   9.843  12.657
 8389SOL    HW227007  11.050   9.785  12.641
 8390SOL     OW27008   8.525  11.400   9.124
 8390SOL    HW127009   8.616  11.378   9.141
 8390SOL    HW227010   8.478  11.316   9.134
 8391SOL     OW27011   9.885   3.989   6.866
 8391SOL    HW127012   9.805   3.989   6.813
 8391SOL    HW227013   9.904   4.082   6.882
 8392SOL     OW27014   0.515  13.555  13.223
 8392SOL    HW127015   0.501  13.638  13.177
 8392SOL    HW227016   0.567  13.503  13.162
 8393SOL     OW27017   2.648   0.084   6.672
 8393SOL    HW127018   2.624   0.141   6.745
 8393SOL    HW227019   2.569   0.080   6.619
 8394SOL     OW27020  13.108   2.299   2.347
 8394SOL    HW127021  13.058   2.224   2.380
 8394SOL    HW227022  13.199   2.268   2.344
 8395SOL     OW27023  12.378  11.302   7.689
 8395SOL    HW127024  12.457  11.334   7.646
 8395SOL    HW227025  12.409  11.230   7.745
 8396SOL     OW27026   4.891  14.602  12.598
 8396SOL    HW127027   4.967  14.660  12.590
 8396SOL    HW227028   4.843  14.614  12.516
 8397SOL     OW27029   1.342   2.770   0.112
 8397SOL    HW127030   1.407   2.709   0.078
 8397SOL    HW227031   1.309   2.815   0.034
 8398SOL     OW27032  13.708  11.459   5.071
 8398SOL    HW127033  13.751  11.449   5.156
 8398SOL    HW227034  13.616  11.477   5.092
 8399SOL     OW27035   3.339   2.177   4.795
 8399SOL    HW127036   3.285   2.252   4.768
 8399SOL    HW227037   3.418   2.184   4.741
 8400SOL     OW27038   1.474  14.758   9.061
 8400SOL    HW127039   1.526  14.727   9.135
 8400SOL    HW227040   1.531  14.748   8.985
 8401SOL     OW27041   6.089   7.880   8.190
 8401SOL    HW127042   6.159   7.857   8.128
 8401SOL    HW227043   6.077   7.974   8.177
 8402SOL     OW27044  10.036   5.986   7.947
 8402SOL    HW127045   9.947   6.018   7.935
 8402SOL    HW227046  10.043   5.913   7.885
 8403SOL     OW27047  12.407  13.249  13.503
 8403SOL    HW127048  12.453  13.165  13.493
 8403SOL    HW227049  12.352  13.237  13.581
 8404SOL     OW27050   4.341   6.941   4.592
 8404SOL    HW127051   4.377   6.855   4.573
 8404SOL    HW227052   4.337   6.946   4.688
 8405SOL     OW27053  10.367   5.897   8.508
 8405SOL    HW127054  10.283   5.892   8.463
 8405SOL    HW227055  10.407   5.978   8.476
 8406SOL     OW27056   1.147  11.235   0.800
 8406SOL    HW127057   1.143  11.215   0.707
 8406SOL    HW227058   1.216  11.178   0.834
 8407SOL     OW27059   1.454  12.974   3.961
 8407SOL    HW127060   1.444  12.990   3.867
 8407SOL    HW227061   1.529  13.027   3.986
 8408SOL     OW27062  12.498   0.924  11.435
 8408SOL    HW127063  12.433   0.991  11.410
 8408SOL    HW227064  12.463   0.843  11.400
 8409SOL     OW27065  10.501   6.705   7.790
 8409SOL    HW127066  10.414   6.707   7.830
 8409SOL    HW227067  10.499   6.628   7.734
 8410SOL     OW27068  10.855   3.935  10.590
 8410SOL    HW127069  10.900   3.869  10.641
 8410SOL    HW227070  10.824   3.999  10.654
 8411SOL     OW27071   1.716   8.700   2.235
 8411SOL    HW127072   1.809   8.693   2.218
 8411SOL    HW227073   1.702   8.652   2.317
 8412SOL     OW27074  12.011   8.160  14.686
 8412SOL    HW127075  12.002   8.218  14.610
 8412SOL    HW227076  12.098   8.180  14.721
 8413SOL     OW27077   2.068   8.991   3.819
 8413SOL    HW127078   2.150   9.040   3.832
 8413SOL    HW227079   2.088   8.902   3.848
 8414SOL     OW27080   2.005   8.334   2.382
 8414SOL    HW127081   1.972   8.397   2.445
 8414SOL    HW227082   2.027   8.257   2.434
 8415SOL     OW27083   8.666   5.453   6.386
 8415SOL    HW127084   8.686   5.542   6.416
 8415SOL    HW227085   8.679   5.456   6.291
 8416SOL     OW27086   7.007   3.056   7.691
 8416SOL    HW127087   6.982   3.140   7.730
 8416SOL    HW227088   7.054   3.079   7.611
 8417SOL     OW27089   7.214   2.994  13.735
 8417SOL    HW127090   7.120   2.977  13.734
 8417SOL    HW227091   7.226   3.069  13.676
 8418SOL     OW27092  10.566  11.616   9.641
 8418SOL    HW127093  10.526  11.544   9.592
 8418SOL    HW227094  10.658  11.592   9.648
 8419SOL     OW27095   9.514   2.637  12.616
 8419SOL    HW127096   9.439   2.696  12.625
 8419SOL    HW227097   9.568   2.655  12.694
 8420SOL     OW27098  13.393  13.406  10.655
 8420SOL    HW127099  13.461  13.378  10.594
 8420SOL    HW227100  13.357  13.325  10.690
 8421SOL     OW27101   9.941  10.292   2.840
 8421SOL    HW127102   9.892  10.210   2.834
 8421SOL    HW227103   9.999  10.279   2.915
 8422SOL     OW27104   6.747  14.522  12.130
 8422SOL    HW127105   6.842  14.530  12.143
 8422SOL    HW227106   6.716  14.612  12.123
 8423SOL     OW27107  11.621  10.869  11.854
 8423SOL    HW127108  11.578  10.788  11.880
 8423SOL    HW227109  11.709  10.842  11.827
 8424SOL     OW27110   1.401   0.031  10.855
 8424SOL    HW127111   1.333  14.838  10.841
 8424SOL    HW227112   1.402   0.045  10.949
 8425SOL     OW27113   1.362   3.474   1.037
 8425SOL    HW127114   1.307   3.551   1.027
 8425SOL    HW227115   1.326   3.411   0.975
 8426SOL     OW27116  13.645  12.787  11.605
 8426SOL    HW127117  13.587  12.861  11.588
 8426SOL    HW227118  13.637  12.771  11.699
 8427SOL     OW27119   3.793   4.534   8.037
 8427SOL    HW127120   3.750   4.586   7.969
 8427SOL    HW227121   3.777   4.583   8.118
 8428SOL     OW27122   3.664   2.129   3.836
 8428SOL    HW127123   3.686   2.088   3.753
 8428SOL    HW227124   3.669   2.058   3.900
 8429SOL     OW27125   6.757   8.042   6.762
 8429SOL    HW127126   6.834   8.026   6.816
 8429SOL    HW227127   6.787   8.105   6.696
 8430SOL     OW27128   5.178   5.642   2.452
 8430SOL    HW127129   5.222   5.725   2.438
 8430SOL    HW227130   5.216   5.609   2.534
 8431SOL     OW27131   9.454   3.515   7.650
 8431SOL    HW127132   9.481   3.499   7.559
 8431SOL    HW227133   9.396   3.442   7.671
 8432SOL     OW27134   6.812  13.669   9.158
 8432SOL    HW127135   6.899  13.671   9.117
 8432SOL    HW227136   6.767  13.597   9.113
 8433SOL     OW27137  10.625  11.021   1.022
 8433SOL    HW127138  10.578  10.999   1.102
 8433SOL    HW227139  10.557  11.041   0.958
 8434SOL     OW27140  10.298   7.736   6.585
 8434SOL    HW127141  10.227   7.788   6.624
 8434SOL    HW227142  10.329   7.789   6.512
 8435SOL     OW27143  12.403   1.484   4.881
 8435SOL    HW127144  12.399   1.401   4.927
 8435SOL    HW227145  12.332   1.536   4.919
 8436SOL     OW27146   3.470  11.131   1.661
 8436SOL    HW127147   3.450  11.219   1.627
 8436SOL    HW227148   3.550  11.106   1.615
 8437SOL     OW27149   9.266   1.882   0.766
 8437SOL    HW127150   9.303   1.895   0.854
 8437SOL    HW227151   9.298   1.956   0.715
 8438SOL     OW27152  10.492  11.579   3.139
 8438SOL    HW127153  10.419  11.527   3.175
 8438SOL    HW227154  10.454  11.665   3.124
 8439SOL     OW27155   9.901   4.246   2.992
 8439SOL    HW127156   9.889   4.235   2.898
 8439SOL    HW227157   9.812   4.249   3.027
 8440SOL     OW27158  12.916   9.552   1.500
 8440SOL    HW127159  12.966   9.580   1.576
 8440SOL    HW227160  12.978   9.556   1.427
 8441SOL     OW27161   2.090   2.712   7.401
 8441SOL    HW127162   2.034   2.674   7.332
 8441SOL    HW227163   2.036   2.781   7.440
 8442SOL     OW27164   9.479   1.726   1.256
 8442SOL    HW127165   9.462   1.665   1.328
 8442SOL    HW227166   9.392   1.748   1.223
 8443SOL     OW27167   7.463  11.278   2.982
 8443SOL    HW127168   7.421  11.336   2.918
 8443SOL    HW227169   7.552  11.267   2.949
 8444SOL     OW27170   7.449   6.820   7.716
 8444SOL    HW127171   7.385   6.885   7.745
 8444SOL    HW227172   7.427   6.803   7.625
 8445SOL     OW27173   2.040  14.075  13.307
 8445SOL    HW127174   2.051  14.003  13.368
 8445SOL    HW227175   2.009  14.035  13.226
 8446SOL     OW27176   2.965  12.638  13.416
 8446SOL    HW127177   2.974  12.562  13.359
 8446SOL    HW227178   2.926  12.604  13.496
 8447SOL     OW27179   5.928   9.286   8.899
 8447SOL    HW127180   5.948   9.213   8.958
 8447SOL    HW227181   5.833   9.286   8.892
 8448SOL     OW27182   0.343  14.222  14.000
 8448SOL    HW127183   0.311  14.305  13.964
 8448SOL    HW227184   0.403  14.189  13.934
 8449SOL     OW27185   6.082   5.399   0.822
 8449SOL    HW127186   6.014   5.394   0.755
 8449SOL    HW227187   6.111   5.490   0.820
 8450SOL     OW27188   5.606   2.438   3.424
 8450SOL    HW127189   5.628   2.394   3.506
 8450SOL    HW227190   5.661   2.517   3.424
 8451SOL     OW27191   0.166  11.909   4.131
 8451SOL    HW127192   0.173  11.828   4.080
 8451SOL    HW227193   0.156  11.978   4.066
 8452SOL     OW27194  12.942   8.565  11.946
 8452SOL    HW127195  12.916   8.595  12.033
 8452SOL    HW227196  12.911   8.633  11.886
 8453SOL     OW27197   8.255   1.007   5.088
 8453SOL    HW127198   8.308   0.941   5.043
 8453SOL    HW227199   8.184   0.958   5.129
 8454SOL     OW27200  11.206   5.587  14.837
 8454SOL    HW127201  11.138   5.654  14.830
 8454SOL    HW227202  11.195   5.532  14.760
 8455SOL     OW27203   2.213   1.189  11.479
 8455SOL    HW127204   2.140   1.186  11.418
 8455SOL    HW227205   2.286   1.149  11.431
 8456SOL     OW27206   8.565  14.184  12.328
 8456SOL    HW127207   8.621  14.116  12.290
 8456SOL    HW227208   8.570  14.168  12.422
 8457SOL     OW27209  10.827   3.634   3.755
 8457SOL    HW127210  10.781   3.554   3.782
 8457SOL    HW227211  10.773   3.705   3.787
 8458SOL     OW27212   0.797   9.747  10.080
 8458SOL    HW127213   0.748   9.718  10.003
 8458SOL    HW227214   0.790   9.843  10.078
 8459SOL     OW27215   2.269   3.966  14.493
 8459SOL    HW127216   2.319   3.995  14.416
 8459SOL    HW227217   2.177   3.972  14.465
 8460SOL     OW27218   3.503  11.874   7.760
 8460SOL    HW127219   3.479  11.886   7.668
 8460SOL    HW227220   3.589  11.914   7.768
 8461SOL     OW27221   8.633   6.974   6.351
 8461SOL    HW127222   8.548   7.012   6.327
 8461SOL    HW227223   8.644   6.997   6.443
 8462SOL     OW27224   7.346  10.623   7.493
 8462SOL    HW127225   7.337  10.545   7.437
 8462SOL    HW227226   7.436  10.620   7.524
 8463SOL     OW27227  12.297  14.249  10.401
 8463SOL    HW127228  12.330  14.199  10.475
 8463SOL    HW227229  12.215  14.288  10.432
 8464SOL     OW27230   2.987  14.120  12.921
 8464SOL    HW127231   2.964  14.212  12.913
 8464SOL    HW227232   2.948  14.092  13.004
 8465SOL     OW27233   9.450   1.036   6.405
 8465SOL    HW127234   9.540   1.016   6.377
 8465SOL    HW227235   9.455   1.125   6.439
 8466SOL     OW27236   8.374   6.435   2.860
 8466SOL    HW127237   8.331   6.377   2.923
 8466SOL    HW227238   8.467   6.428   2.882
 8467SOL     OW27239   8.449   5.897   1.031
 8467SOL    HW127240   8.379   5.958   1.050
 8467SOL    HW227241   8.446   5.833   1.103
 8468SOL     OW27242  13.462   1.429  14.719
 8468SOL    HW127243  13.475   1.347  14.670
 8468SOL    HW227244  13.462   1.497  14.652
 8469SOL     OW27245  10.629   3.497   6.826
 8469SOL    HW127246  10.617   3.512   6.920
 8469SOL    HW227247  10.680   3.572   6.796
 8470SOL     OW27248   0.211   5.577   2.114
 8470SOL    HW127249   0.184   5.619   2.032
 8470SOL    HW227250   0.236   5.651   2.171
 8471SOL     OW27251   1.852   7.353  14.213
 8471SOL    HW127252   1.873   7.336  14.305
 8471SOL    HW227253   1.768   7.310  14.198
 8472SOL     OW27254   2.037   8.692   9.703
 8472SOL    HW127255   1.980   8.653   9.769
 8472SOL    HW227256   2.119   8.643   9.710
 8473SOL     OW27257  10.475   9.405  13.389
 8473SOL    HW127258  10.552   9.424  13.442
 8473SOL    HW227259  10.477   9.470  13.319
 8474SOL     OW27260   3.033  11.854  13.251
 8474SOL    HW127261   3.055  11.943  13.226
 8474SOL    HW227262   3.094  11.834  13.323
 8475SOL     OW27263  12.803   4.846   0.402
 8475SOL    HW127264  12.852   4.835   0.483
 8475SOL    HW227265  12.758   4.930   0.413
 8476SOL     OW27266  13.004   7.155  12.647
 8476SOL    HW127267  13.043   7.191  12.726
 8476SOL    HW227268  13.001   7.228  12.586
 8477SOL     OW27269   0.812   3.739   0.451
 8477SOL    HW127270   0.814   3.643   0.450
 8477SOL    HW227271   0.755   3.761   0.525
 8478SOL     OW27272   9.626   7.020   2.325
 8478SOL    HW127273   9.563   7.034   2.395
 8478SOL    HW227274   9.623   6.926   2.309
 8479SOL     OW27275   0.193   0.612   2.260
 8479SOL    HW127276   0.165   0.697   2.294
 8479SOL    HW227277   0.120   0.553   2.278
 8480SOL     OW27278   3.329   0.962   7.119
 8480SOL    HW127279   3.366   0.910   7.190
 8480SOL    HW227280   3.261   1.014   7.161
 8481SOL     OW27281  10.317   7.263  11.894
 8481SOL    HW127282  10.242   7.241  11.838
 8481SOL    HW227283  10.278   7.279  11.980
 8482SOL     OW27284   1.495  12.919  13.945
 8482SOL    HW127285   1.436  12.962  14.007
 8482SOL    HW227286   1.437  12.871  13.886
 8483SOL     OW27287  13.599   4.471  13.028
 8483SOL    HW127288  13.653   4.440  12.955
 8483SOL    HW227289  13.518   4.500  12.986
 8484SOL     OW27290   3.392   8.950  12.276
 8484SOL    HW127291   3.408   8.928  12.367
 8484SOL    HW227292   3.324   8.889  12.247
 8485SOL     OW27293   5.193   3.455   1.678
 8485SOL    HW127294   5.227   3.539   1.645
 8485SOL    HW227295   5.269   3.413   1.719
 8486SOL     OW27296  14.058   1.713  14.506
 8486SOL    HW127297  14.113   1.666  14.444
 8486SOL    HW227298  13.969   1.685  14.486
 8487SOL     OW27299   6.573   9.188   1.530
 8487SOL    HW127300   6.605   9.276   1.512
 8487SOL    HW227301   6.486   9.202   1.568
 8488SOL     OW27302   1.503   2.045   7.333
 8488SOL    HW127303   1.484   1.967   7.280
 8488SOL    HW227304   1.434   2.047   7.398
 8489SOL     OW27305  11.335   4.147  12.511
 8489SOL    HW127306  11.403   4.188  12.458
 8489SOL    HW227307  11.363   4.160  12.601
 8490SOL     OW27308   0.151   8.001   8.636
 8490SOL    HW127309   0.107   7.993   8.720
 8490SOL    HW227310   0.244   8.007   8.658
 8491SOL     OW27311   9.284  10.672  13.767
 8491SOL    HW127312   9.358  10.685  13.708
 8491SOL    HW227313   9.278  10.577  13.778
 8492SOL     OW27314   0.231   9.456   2.587
 8492SOL    HW127315   0.307   9.477   2.642
 8492SOL    HW227316   0.190   9.541   2.570
 8493SOL     OW27317  12.786  10.733   8.024
 8493SOL    HW127318  12.764  10.647   8.060
 8493SOL    HW227319  12.879  10.726   8.002
 8494SOL     OW27320   3.773   4.119   9.504
 8494SOL    HW127321   3.800   4.210   9.492
 8494SOL    HW227322   3.829   4.086   9.574
 8495SOL     OW27323   2.584  12.589  10.808
 8495SOL    HW127324   2.581  12.564  10.716
 8495SOL    HW227325   2.552  12.680  10.809
 8496SOL     OW27326   2.006   8.600   6.460
 8496SOL    HW127327   1.929   8.583   6.515
 8496SOL    HW227328   2.035   8.688   6.487
 8497SOL     OW27329   4.945   2.722   4.795
 8497SOL    HW127330   4.982   2.724   4.883
 8497SOL    HW227331   4.860   2.767   4.805
 8498SOL     OW27332  12.922   2.476   5.280
 8498SOL    HW127333  12.985   2.441   5.218
 8498SOL    HW227334  12.903   2.403   5.339
 8499SOL     OW27335   8.117  12.590  12.000
 8499SOL    HW127336   8.193  12.619  11.949
 8499SOL    HW227337   8.046  12.648  11.973
 8500SOL     OW27338   4.484  10.180   3.571
 8500SOL    HW127339   4.450  10.265   3.598
 8500SOL    HW227340   4.406  10.126   3.559
 8501SOL     OW27341   8.459   5.477  14.464
 8501SOL    HW127342   8.436   5.570  14.455
 8501SOL    HW227343   8.380   5.436  14.499
 8502SOL     OW27344   7.370  14.541   7.145
 8502SOL    HW127345   7.373  14.525   7.240
 8502SOL    HW227346   7.352  14.634   7.137
 8503SOL     OW27347  10.796   1.097  13.309
 8503SOL    HW127348  10.886   1.107  13.341
 8503SOL    HW227349  10.769   1.011  13.341
 8504SOL     OW27350  11.952  13.796   4.736
 8504SOL    HW127351  11.989  13.710   4.716
 8504SOL    HW227352  11.877  13.804   4.678
 8505SOL     OW27353   3.744   5.176   6.019
 8505SOL    HW127354   3.659   5.216   6.034
 8505SOL    HW227355   3.793   5.192   6.099
 8506SOL     OW27356   3.301   4.689   1.906
 8506SOL    HW127357   3.275   4.681   1.998
 8506SOL    HW227358   3.377   4.631   1.898
 8507SOL     OW27359   6.207   7.163  13.118
 8507SOL    HW127360   6.139   7.098  13.096
 8507SOL    HW227361   6.224   7.207  13.035
 8508SOL     OW27362   1.268   1.039   1.205
 8508SOL    HW127363   1.218   1.004   1.278
 8508SOL    HW227364   1.344   0.981   1.198
 8509SOL     OW27365   9.647   4.040  11.847
 8509SOL    HW127366   9.719   4.036  11.910
 8509SOL    HW227367   9.568   4.038  11.902
 8510SOL     OW27368   7.783  10.709  11.658
 8510SOL    HW127369   7.696  10.738  11.686
 8510SOL    HW227370   7.780  10.614  11.666
 8511SOL     OW27371  12.370   0.337   3.539
 8511SOL    HW127372  12.325   0.300   3.615
 8511SOL    HW227373  12.458   0.357   3.571
 8512SOL     OW27374   2.504   7.101  12.791
 8512SOL    HW127375   2.480   7.101  12.699
 8512SOL    HW227376   2.430   7.144  12.835
 8513SOL     OW27377   5.572   2.966   5.962
 8513SOL    HW127378   5.643   2.956   5.899
 8513SOL    HW227379   5.576   2.887   6.015
 8514SOL     OW27380   7.144  11.946   1.800
 8514SOL    HW127381   7.221  11.892   1.782
 8514SOL    HW227382   7.072  11.902   1.755
 8515SOL     OW27383   9.029   7.001  13.049
 8515SOL    HW127384   9.026   7.013  13.144
 8515SOL    HW227385   8.994   6.914  13.034
 8516SOL     OW27386  10.627   3.361   6.506
 8516SOL    HW127387  10.607   3.380   6.414
 8516SOL    HW227388  10.581   3.429   6.555
 8517SOL     OW27389   0.906   4.150  14.134
 8517SOL    HW127390   0.831   4.170  14.079
 8517SOL    HW227391   0.899   4.055  14.150
 8518SOL     OW27392   4.061  13.920   9.444
 8518SOL    HW127393   4.090  13.921   9.352
 8518SOL    HW227394   4.099  13.839   9.479
 8519SOL     OW27395  13.670  13.811  10.226
 8519SOL    HW127396  13.702  13.888  10.273
 8519SOL    HW227397  13.743  13.749  10.228
 8520SOL     OW27398   9.357   0.871  13.415
 8520SOL    HW127399   9.402   0.895  13.334
 8520SOL    HW227400   9.279   0.823  13.386
 8521SOL     OW27401   4.624  13.677   1.741
 8521SOL    HW127402   4.699  13.621   1.762
 8521SOL    HW227403   4.621  13.678   1.645
 8522SOL     OW27404   9.509  11.644   2.129
 8522SOL    HW127405   9.513  11.740   2.121
 8522SOL    HW227406   9.422  11.621   2.097
 8523SOL     OW27407  11.105  10.794  12.429
 8523SOL    HW127408  11.125  10.727  12.495
 8523SOL    HW227409  11.062  10.746  12.358
 8524SOL     OW27410   5.653  10.350  11.251
 8524SOL    HW127411   5.663  10.357  11.156
 8524SOL    HW227412   5.610  10.265  11.264
 8525SOL     OW27413   8.055   4.921   2.558
 8525SOL    HW127414   8.021   4.872   2.483
 8525SOL    HW227415   7.978   4.966   2.594
 8526SOL     OW27416   6.728   7.377   1.102
 8526SOL    HW127417   6.709   7.450   1.161
 8526SOL    HW227418   6.788   7.414   1.037
 8527SOL     OW27419  12.719  14.217   5.475
 8527SOL    HW127420  12.669  14.262   5.408
 8527SOL    HW227421  12.699  14.124   5.463
 8528SOL     OW27422   5.022   9.775   0.275
 8528SOL    HW127423   5.071   9.703   0.237
 8528SOL    HW227424   5.086   9.845   0.287
 8529SOL     OW27425   5.736   8.206  13.154
 8529SOL    HW127426   5.737   8.235  13.245
 8529SOL    HW227427   5.748   8.111  13.159
 8530SOL     OW27428   2.263   9.012  11.547
 8530SOL    HW127429   2.199   9.074  11.512
 8530SOL    HW227430   2.218   8.928  11.547
 8531SOL     OW27431   6.374   1.368  14.355
 8531SOL    HW127432   6.396   1.292  14.300
 8531SOL    HW227433   6.321   1.423  14.297
 8532SOL     OW27434  14.386   2.586   3.825
 8532SOL    HW127435  14.373   2.534   3.904
 8532SOL    HW227436  14.473   2.560   3.793
 8533SOL     OW27437   6.363   5.034   0.048
 8533SOL    HW127438   6.304   4.959   0.040
 8533SOL    HW227439   6.308   5.104   0.085
 8534SOL     OW27440  10.942   4.627   3.673
 8534SOL    HW127441  10.997   4.557   3.636
 8534SOL    HW227442  10.964   4.704   3.621
 8535SOL     OW27443  11.550   2.289   3.561
 8535SOL    HW127444  11.609   2.219   3.535
 8535SOL    HW227445  11.593   2.330   3.636
 8536SOL     OW27446   0.917   0.846   2.701
 8536SOL    HW127447   0.847   0.903   2.667
 8536SOL    HW227448   0.934   0.879   2.789
 8537SOL     OW27449   1.224   1.106  10.102
 8537SOL    HW127450   1.140   1.140  10.069
 8537SOL    HW227451   1.209   1.093  10.195
 8538SOL     OW27452  10.163   7.646  11.821
 8538SOL    HW127453  10.232   7.588  11.854
 8538SOL    HW227454  10.157   7.626  11.727
 8539SOL     OW27455  13.534  13.083   2.863
 8539SOL    HW127456  13.596  13.151   2.836
 8539SOL    HW227457  13.589  13.008   2.886
 8540SOL     OW27458  10.328   0.219   6.697
 8540SOL    HW127459  10.419   0.241   6.674
 8540SOL    HW227460  10.285   0.205   6.613
 8541SOL     OW27461  10.529   7.669   9.326
 8541SOL    HW127462  10.457   7.607   9.325
 8541SOL    HW227463  10.492   7.749   9.363
 8542SOL     OW27464  12.943   0.575   7.175
 8542SOL    HW127465  13.011   0.615   7.121
 8542SOL    HW227466  12.863   0.621   7.150
 8543SOL     OW27467   8.975  12.365   6.961
 8543SOL    HW127468   8.979  12.356   6.865
 8543SOL    HW227469   9.056  12.323   6.991
 8544SOL     OW27470  10.642  13.031   1.005
 8544SOL    HW127471  10.588  13.094   0.957
 8544SOL    HW227472  10.616  12.945   0.970
 8545SOL     OW27473   0.980  13.647   1.198
 8545SOL    HW127474   1.043  13.619   1.130
 8545SOL    HW227475   0.904  13.677   1.148
 8546SOL     OW27476   0.033   3.579   7.144
 8546SOL    HW127477  14.866   3.661   7.114
 8546SOL    HW227478   0.115   3.607   7.186
 8547SOL     OW27479   3.917   8.728   8.175
 8547SOL    HW127480   3.841   8.787   8.174
 8547SOL    HW227481   3.992   8.787   8.187
 8548SOL     OW27482   3.091  13.319   2.903
 8548SOL    HW127483   3.131  13.406   2.911
 8548SOL    HW227484   3.165  13.259   2.911
 8549SOL     OW27485  14.368  13.499   2.095
 8549SOL    HW127486  14.373  13.423   2.152
 8549SOL    HW227487  14.415  13.473   2.015
 8550SOL     OW27488   2.346   1.414  14.510
 8550SOL    HW127489   2.252   1.425  14.496
 8550SOL    HW227490   2.371   1.488  14.565
 8551SOL     OW27491  12.413   1.791  10.413
 8551SOL    HW127492  12.435   1.719  10.354
 8551SOL    HW227493  12.317   1.788  10.420
 8552SOL     OW27494   5.644   7.235   2.585
 8552SOL    HW127495   5.627   7.328   2.570
 8552SOL    HW227496   5.723   7.217   2.534
 8553SOL     OW27497   1.894  12.637   3.246
 8553SOL    HW127498   1.967  12.687   3.209
 8553SOL    HW227499   1.936  12.562   3.288
 8554SOL     OW27500   0.449   7.745  10.587
 8554SOL    HW127501   0.485   7.772  10.671
 8554SOL    HW227502   0.516   7.769  10.523
 8555SOL     OW27503   4.882   1.000   0.504
 8555SOL    HW127504   4.842   0.933   0.559
 8555SOL    HW227505   4.885   1.078   0.559
 8556SOL     OW27506   3.751  11.388   9.027
 8556SOL    HW127507   3.682  11.333   8.989
 8556SOL    HW227508   3.791  11.431   8.952
 8557SOL     OW27509   6.925   3.822   5.238
 8557SOL    HW127510   6.862   3.886   5.205
 8557SOL    HW227511   7.010   3.852   5.205
 8558SOL     OW27512   0.788   1.155   2.943
 8558SOL    HW127513   0.875   1.192   2.952
 8558SOL    HW227514   0.748   1.205   2.871
 8559SOL     OW27515   2.807   2.276   9.860
 8559SOL    HW127516   2.817   2.230   9.943
 8559SOL    HW227517   2.722   2.321   9.868
 8560SOL     OW27518   4.534   3.758   1.864
 8560SOL    HW127519   4.625   3.789   1.866
 8560SOL    HW227520   4.540   3.669   1.828
 8561SOL     OW27521   8.382   6.907   5.179
 8561SOL    HW127522   8.470   6.879   5.204
 8561SOL    HW227523   8.329   6.893   5.257
 8562SOL     OW27524  12.524  10.006  14.861
 8562SOL    HW127525  12.563  10.085   0.026
 8562SOL    HW227526  12.555   9.934   0.043
 8563SOL     OW27527   2.367  13.548   1.149
 8563SOL    HW127528   2.401  13.592   1.226
 8563SOL    HW227529   2.278  13.583   1.139
 8564SOL     OW27530  10.952   5.744   4.324
 8564SOL    HW127531  10.976   5.746   4.417
 8564SOL    HW227532  10.978   5.657   4.295
 8565SOL     OW27533   1.471   2.585  13.967
 8565SOL    HW127534   1.515   2.519  14.021
 8565SOL    HW227535   1.503   2.669  14.001
 8566SOL     OW27536   3.878   3.316   0.374
 8566SOL    HW127537   3.937   3.252   0.335
 8566SOL    HW227538   3.836   3.270   0.447
 8567SOL     OW27539   7.721   2.262  10.306
 8567SOL    HW127540   7.631   2.245  10.335
 8567SOL    HW227541   7.732   2.206  10.229
 8568SOL     OW27542  10.160   6.477  14.390
 8568SOL    HW127543  10.126   6.566  14.384
 8568SOL    HW227544  10.251   6.489  14.419
 8569SOL     OW27545   8.266  12.444   8.918
 8569SOL    HW127546   8.331  12.374   8.926
 8569SOL    HW227547   8.187  12.400   8.886
 8570SOL     OW27548  14.760  14.313  11.042
 8570SOL    HW127549  14.743  14.223  11.070
 8570SOL    HW227550  14.831  14.343  11.098
 8571SOL     OW27551   0.728   7.933   5.932
 8571SOL    HW127552   0.635   7.947   5.954
 8571SOL    HW227553   0.741   7.984   5.852
 8572SOL     OW27554   1.441  11.359   7.472
 8572SOL    HW127555   1.442  11.444   7.514
 8572SOL    HW227556   1.375  11.366   7.403
 8573SOL     OW27557  12.744   5.583  10.452
 8573SOL    HW127558  12.808   5.520  10.418
 8573SOL    HW227559  12.750   5.658  10.393
 8574SOL     OW27560   8.407   5.728   8.432
 8574SOL    HW127561   8.388   5.754   8.522
 8574SOL    HW227562   8.328   5.753   8.383
 8575SOL     OW27563   7.585   4.973  14.395
 8575SOL    HW127564   7.499   5.009  14.376
 8575SOL    HW227565   7.586   4.888  14.352
 8576SOL     OW27566   2.384  13.291   5.631
 8576SOL    HW127567   2.461  13.239   5.652
 8576SOL    HW227568   2.322  13.271   5.701
 8577SOL     OW27569   8.049   9.651   4.214
 8577SOL    HW127570   7.957   9.643   4.188
 8577SOL    HW227571   8.098   9.616   4.139
 8578SOL     OW27572  10.587  11.220   9.762
 8578SOL    HW127573  10.675  11.236   9.727
 8578SOL    HW227574  10.586  11.265   9.846
 8579SOL     OW27575   2.467   8.540  12.046
 8579SOL    HW127576   2.450   8.456  12.088
 8579SOL    HW227577   2.400   8.598  12.083
 8580SOL     OW27578  10.300  14.050   0.409
 8580SOL    HW127579  10.349  14.085   0.483
 8580SOL    HW227580  10.357  14.067   0.333
 8581SOL     OW27581   6.335   8.639   5.283
 8581SOL    HW127582   6.365   8.655   5.193
 8581SOL    HW227583   6.410   8.599   5.326
 8582SOL     OW27584   8.614  13.676   9.853
 8582SOL    HW127585   8.539  13.619   9.839
 8582SOL    HW227586   8.583  13.764   9.832
 8583SOL     OW27587  14.193  11.919  10.230
 8583SOL    HW127588  14.147  11.835  10.229
 8583SOL    HW227589  14.214  11.937  10.139
 8584SOL     OW27590   3.609  12.166   8.453
 8584SOL    HW127591   3.565  12.082   8.447
 8584SOL    HW227592   3.686  12.149   8.507
 8585SOL     OW27593   0.513  13.890   1.413
 8585SOL    HW127594   0.444  13.871   1.476
 8585SOL    HW227595   0.467  13.925   1.336
 8586SOL     OW27596  12.184  10.421  10.530
 8586SOL    HW127597  12.158  10.496  10.476
 8586SOL    HW227598  12.157  10.446  10.619
 8587SOL     OW27599   7.681  10.824  14.415
 8587SOL    HW127600   7.666  10.879  14.338
 8587SOL    HW227601   7.736  10.753  14.383
 8588SOL     OW27602   7.246   6.378  10.499
 8588SOL    HW127603   7.330   6.333  10.506
 8588SOL    HW227604   7.239   6.402  10.407
 8589SOL     OW27605   2.420   2.193  13.341
 8589SOL    HW127606   2.488   2.156  13.284
 8589SOL    HW227607   2.376   2.258  13.286
 8590SOL     OW27608  11.929   7.369  14.395
 8590SOL    HW127609  11.966   7.412  14.472
 8590SOL    HW227610  11.910   7.440  14.334
 8591SOL     OW27611   7.646   7.605   2.913
 8591SOL    HW127612   7.615   7.692   2.937
 8591SOL    HW227613   7.571   7.547   2.927
 8592SOL     OW27614   6.306   2.951  10.748
 8592SOL    HW127615   6.279   3.019  10.809
 8592SOL    HW227616   6.335   2.999  10.670
 8593SOL     OW27617   6.679   0.089   5.350
 8593SOL    HW127618   6.686   0.029   5.424
 8593SOL    HW227619   6.759   0.073   5.299
 8594SOL     OW27620   4.544  10.940   1.022
 8594SOL    HW127621   4.580  10.984   0.944
 8594SOL    HW227622   4.493  10.867   0.987
 8595SOL     OW27623   8.502   5.776   5.508
 8595SOL    HW127624   8.541   5.834   5.574
 8595SOL    HW227625   8.486   5.694   5.555
 8596SOL     OW27626  11.435  11.262   9.878
 8596SOL    HW127627  11.461  11.352   9.859
 8596SOL    HW227628  11.386  11.234   9.801
 8597SOL     OW27629   3.798  13.888   6.187
 8597SOL    HW127630   3.746  13.950   6.136
 8597SOL    HW227631   3.756  13.804   6.172
 8598SOL     OW27632   1.300  13.749   8.716
 8598SOL    HW127633   1.320  13.707   8.800
 8598SOL    HW227634   1.377  13.804   8.699
 8599SOL     OW27635   0.095  10.480   2.629
 8599SOL    HW127636   0.112  10.408   2.568
 8599SOL    HW227637   0.098  10.439   2.716
 8600SOL     OW27638   5.069   6.766   0.042
 8600SOL    HW127639   5.149   6.762  14.862
 8600SOL    HW227640   5.018   6.837   0.003
 8601SOL     OW27641  10.462  14.480  12.672
 8601SOL    HW127642  10.519  14.409  12.644
 8601SOL    HW227643  10.444  14.529  12.591
 8602SOL     OW27644   2.330  13.852   3.650
 8602SOL    HW127645   2.292  13.765   3.663
 8602SOL    HW227646   2.256  13.912   3.661
 8603SOL     OW27647   7.128  14.120   9.327
 8603SOL    HW127648   7.135  14.128   9.232
 8603SOL    HW227649   7.036  14.102   9.343
 8604SOL     OW27650   7.307   1.657  13.360
 8604SOL    HW127651   7.300   1.650  13.455
 8604SOL    HW227652   7.291   1.567  13.329
 8605SOL     OW27653  14.620   1.913   4.801
 8605SOL    HW127654  14.687   1.927   4.868
 8605SOL    HW227655  14.603   1.818   4.804
 8606SOL     OW27656   3.549   8.697   6.283
 8606SOL    HW127657   3.623   8.709   6.343
 8606SOL    HW227658   3.471   8.711   6.336
 8607SOL     OW27659   0.968   2.276   7.997
 8607SOL    HW127660   0.979   2.332   8.074
 8607SOL    HW227661   1.036   2.306   7.936
 8608SOL     OW27662  10.030   2.812   7.478
 8608SOL    HW127663   9.984   2.896   7.479
 8608SOL    HW227664   9.962   2.746   7.492
 8609SOL     OW27665   7.525   7.928  12.430
 8609SOL    HW127666   7.552   7.844  12.394
 8609SOL    HW227667   7.606   7.979  12.438
 8610SOL     OW27668  11.902   4.962   8.009
 8610SOL    HW127669  11.958   4.920   8.074
 8610SOL    HW227670  11.956   4.968   7.930
 8611SOL     OW27671   9.062   5.128  11.851
 8611SOL    HW127672   8.967   5.138  11.861
 8611SOL    HW227673   9.072   5.051  11.795
 8612SOL     OW27674  11.534   1.258   5.566
 8612SOL    HW127675  11.450   1.296   5.589
 8612SOL    HW227676  11.533   1.254   5.470
 8613SOL     OW27677  11.622   7.849   1.005
 8613SOL    HW127678  11.583   7.933   0.983
 8613SOL    HW227679  11.618   7.844   1.101
 8614SOL     OW27680   2.825  10.113   2.892
 8614SOL    HW127681   2.881  10.099   2.969
 8614SOL    HW227682   2.886  10.114   2.818
 8615SOL     OW27683   4.944   5.314  12.419
 8615SOL    HW127684   4.960   5.289  12.510
 8615SOL    HW227685   4.898   5.239  12.382
 8616SOL     OW27686  14.015   4.481   1.594
 8616SOL    HW127687  14.092   4.448   1.640
 8616SOL    HW227688  14.052   4.535   1.523
 8617SOL     OW27689  11.284   7.832  10.619
 8617SOL    HW127690  11.196   7.827  10.583
 8617SOL    HW227691  11.276   7.797  10.707
 8618SOL     OW27692  11.270  13.881  11.019
 8618SOL    HW127693  11.287  13.975  11.020
 8618SOL    HW227694  11.219  13.867  10.939
 8619SOL     OW27695   8.697   1.173   5.955
 8619SOL    HW127696   8.786   1.209   5.948
 8619SOL    HW227697   8.640   1.249   5.943
 8620SOL     OW27698   4.540   5.613   0.785
 8620SOL    HW127699   4.477   5.654   0.725
 8620SOL    HW227700   4.604   5.572   0.727
 8621SOL     OW27701  14.051  14.368   1.778
 8621SOL    HW127702  14.045  14.275   1.757
 8621SOL    HW227703  14.105  14.405   1.707
 8622SOL     OW27704  12.667  12.379  12.089
 8622SOL    HW127705  12.612  12.456  12.073
 8622SOL    HW227706  12.605  12.307  12.099
 8623SOL     OW27707   8.067   5.175   1.845
 8623SOL    HW127708   8.129   5.146   1.912
 8623SOL    HW227709   8.112   5.248   1.802
 8624SOL     OW27710   4.139   1.205   7.859
 8624SOL    HW127711   4.151   1.117   7.892
 8624SOL    HW227712   4.054   1.233   7.893
 8625SOL     OW27713  11.880   3.798   2.675
 8625SOL    HW127714  11.881   3.857   2.599
 8625SOL    HW227715  11.891   3.711   2.638
 8626SOL     OW27716  12.292   9.004   8.109
 8626SOL    HW127717  12.341   8.955   8.043
 8626SOL    HW227718  12.209   9.025   8.066
 8627SOL     OW27719  14.652  10.304  13.355
 8627SOL    HW127720  14.660  10.268  13.266
 8627SOL    HW227721  14.738  10.342  13.373
 8628SOL     OW27722   6.608  11.449  10.827
 8628SOL    HW127723   6.650  11.439  10.741
 8628SOL    HW227724   6.521  11.484  10.806
 8629SOL     OW27725  10.260  12.846   4.527
 8629SOL    HW127726  10.320  12.810   4.463
 8629SOL    HW227727  10.179  12.796   4.514
 8630SOL     OW27728   2.505   6.883  13.774
 8630SOL    HW127729   2.433   6.881  13.712
 8630SOL    HW227730   2.557   6.959  13.748
 8631SOL     OW27731  10.940  12.259  14.066
 8631SOL    HW127732  10.899  12.339  14.033
 8631SOL    HW227733  10.885  12.188  14.032
 8632SOL     OW27734  13.025  13.461   1.560
 8632SOL    HW127735  12.952  13.433   1.614
 8632SOL    HW227736  12.994  13.450   1.470
 8633SOL     OW27737   4.685   2.698   6.106
 8633SOL    HW127738   4.769   2.740   6.091
 8633SOL    HW227739   4.656   2.731   6.191
 8634SOL     OW27740   8.957  12.111  10.710
 8634SOL    HW127741   8.868  12.088  10.685
 8634SOL    HW227742   8.973  12.196  10.668
 8635SOL     OW27743   8.661   0.518   5.192
 8635SOL    HW127744   8.583   0.499   5.244
 8635SOL    HW227745   8.668   0.445   5.130
 8636SOL     OW27746  10.176   1.892   5.715
 8636SOL    HW127747  10.090   1.926   5.694
 8636SOL    HW227748  10.231   1.921   5.642
 8637SOL     OW27749   5.627   9.877  11.056
 8637SOL    HW127750   5.652   9.845  10.969
 8637SOL    HW227751   5.630   9.799  11.112
 8638SOL     OW27752   5.242   3.106   0.907
 8638SOL    HW127753   5.208   3.039   0.967
 8638SOL    HW227754   5.194   3.185   0.930
 8639SOL     OW27755   5.232   9.176  10.867
 8639SOL    HW127756   5.253   9.094  10.822
 8639SOL    HW227757   5.310   9.231  10.854
 8640SOL     OW27758   4.101  11.567   3.776
 8640SOL    HW127759   4.060  11.481   3.787
 8640SOL    HW227760   4.078  11.616   3.855
 8641SOL     OW27761   2.411  13.571   1.424
 8641SOL    HW127762   2.419  13.660   1.458
 8641SOL    HW227763   2.348  13.529   1.483
 8642SOL     OW27764  12.399   4.238   4.033
 8642SOL    HW127765  12.345   4.198   3.965
 8642SOL    HW227766  12.339   4.255   4.105
 8643SOL     OW27767  12.058   1.713   3.711
 8643SOL    HW127768  12.023   1.800   3.734
 8643SOL    HW227769  12.149   1.730   3.684
 8644SOL     OW27770   7.647  14.759   1.044
 8644SOL    HW127771   7.703  14.836   1.052
 8644SOL    HW227772   7.701  14.695   0.996
 8645SOL     OW27773   6.510   0.202  12.773
 8645SOL    HW127774   6.448   0.129  12.776
 8645SOL    HW227775   6.592   0.165  12.806
 8646SOL     OW27776   9.658   1.147  13.619
 8646SOL    HW127777   9.670   1.232  13.578
 8646SOL    HW227778   9.564   1.133  13.619
 8647SOL     OW27779   8.256  12.032   8.291
 8647SOL    HW127780   8.335  12.085   8.280
 8647SOL    HW227781   8.223  12.057   8.377
 8648SOL     OW27782   3.063  13.126   5.745
 8648SOL    HW127783   3.135  13.099   5.688
 8648SOL    HW227784   3.097  13.114   5.833
 8649SOL     OW27785   6.956  11.101   9.063
 8649SOL    HW127786   7.010  11.024   9.081
 8649SOL    HW227787   6.986  11.132   8.978
 8650SOL     OW27788  11.580   8.255   8.136
 8650SOL    HW127789  11.516   8.190   8.166
 8650SOL    HW227790  11.584   8.318   8.208
 8651SOL     OW27791  11.593   1.714   1.923
 8651SOL    HW127792  11.592   1.622   1.897
 8651SOL    HW227793  11.632   1.759   1.848
 8652SOL     OW27794   4.313  11.099  11.927
 8652SOL    HW127795   4.355  11.111  11.842
 8652SOL    HW227796   4.255  11.175  11.936
 8653SOL     OW27797  13.562   3.292   5.932
 8653SOL    HW127798  13.618   3.280   6.008
 8653SOL    HW227799  13.588   3.222   5.872
 8654SOL     OW27800  10.598  13.714   7.589
 8654SOL    HW127801  10.670  13.661   7.623
 8654SOL    HW227802  10.521  13.681   7.635
 8655SOL     OW27803  12.188   3.070   2.454
 8655SOL    HW127804  12.139   3.101   2.530
 8655SOL    HW227805  12.239   2.996   2.487
 8656SOL     OW27806   4.200   2.835   9.236
 8656SOL    HW127807   4.230   2.851   9.147
 8656SOL    HW227808   4.191   2.740   9.242
 8657SOL     OW27809   1.119  10.295   1.818
 8657SOL    HW127810   1.176  10.341   1.756
 8657SOL    HW227811   1.136  10.202   1.802
 8658SOL     OW27812   4.982   0.077   9.340
 8658SOL    HW127813   4.968   0.170   9.323
 8658SOL    HW227814   5.056   0.054   9.284
 8659SOL     OW27815   1.892   9.783   2.384
 8659SOL    HW127816   1.913   9.698   2.423
 8659SOL    HW227817   1.844   9.761   2.304
 8660SOL     OW27818   5.127   4.228  12.795
 8660SOL    HW127819   5.196   4.247  12.732
 8660SOL    HW227820   5.048   4.217  12.742
 8661SOL     OW27821  12.582   0.085  11.921
 8661SOL    HW127822  12.626   0.159  11.880
 8661SOL    HW227823  12.529   0.125  11.990
 8662SOL     OW27824  12.360   5.937  14.137
 8662SOL    HW127825  12.354   5.927  14.042
 8662SOL    HW227826  12.449   5.968  14.153
 8663SOL     OW27827   9.905   6.234  11.955
 8663SOL    HW127828   9.945   6.320  11.968
 8663SOL    HW227829   9.843   6.247  11.883
 8664SOL     OW27830  13.081   0.574  13.700
 8664SOL    HW127831  13.094   0.669  13.696
 8664SOL    HW227832  12.994   0.561  13.661
 8665SOL     OW27833   2.299  13.978  10.585
 8665SOL    HW127834   2.244  13.905  10.613
 8665SOL    HW227835   2.242  14.031  10.530
 8666SOL     OW27836   0.008   2.460  12.421
 8666SOL    HW127837  14.798   2.447  12.468
 8666SOL    HW227838  14.861   2.521  12.351
 8667SOL     OW27839  13.891  10.461   5.156
 8667SOL    HW127840  13.863  10.543   5.197
 8667SOL    HW227841  13.930  10.488   5.073
 8668SOL     OW27842  11.868   0.460   3.052
 8668SOL    HW127843  11.872   0.523   3.124
 8668SOL    HW227844  11.842   0.378   3.093
 8669SOL     OW27845   9.363   2.993   2.964
 8669SOL    HW127846   9.404   3.080   2.972
 8669SOL    HW227847   9.435   2.936   2.937
 8670SOL     OW27848   1.968  10.760  13.690
 8670SOL    HW127849   2.006  10.848  13.687
 8670SOL    HW227850   1.988  10.729  13.778
 8671SOL     OW27851  10.011  11.895   1.760
 8671SOL    HW127852   9.968  11.813   1.784
 8671SOL    HW227853  10.086  11.868   1.707
 8672SOL     OW27854  14.322   4.754   9.453
 8672SOL    HW127855  14.416   4.771   9.445
 8672SOL    HW227856  14.293   4.735   9.364
 8673SOL     OW27857   9.621   4.323   1.305
 8673SOL    HW127858   9.630   4.228   1.307
 8673SOL    HW227859   9.681   4.355   1.372
 8674SOL     OW27860   2.746   4.226   7.337
 8674SOL    HW127861   2.789   4.195   7.418
 8674SOL    HW227862   2.726   4.318   7.354
 8675SOL     OW27863   0.990   6.418   1.995
 8675SOL    HW127864   0.930   6.492   1.984
 8675SOL    HW227865   1.021   6.400   1.907
 8676SOL     OW27866  13.979   6.053   3.994
 8676SOL    HW127867  14.073   6.071   4.003
 8676SOL    HW227868  13.969   6.021   3.905
 8677SOL     OW27869   0.101  12.493  12.237
 8677SOL    HW127870   0.180  12.459  12.280
 8677SOL    HW227871   0.038  12.421  12.244
 8678SOL     OW27872   4.340   2.027  12.501
 8678SOL    HW127873   4.370   2.009  12.412
 8678SOL    HW227874   4.293   2.110  12.494
 8679SOL     OW27875  11.011  11.713  11.526
 8679SOL    HW127876  11.072  11.657  11.575
 8679SOL    HW227877  11.028  11.694  11.434
 8680SOL     OW27878   9.714   1.016   0.551
 8680SOL    HW127879   9.695   1.049   0.464
 8680SOL    HW227880   9.730   1.094   0.604
 8681SOL     OW27881   0.137   5.821   0.678
 8681SOL    HW127882   0.129   5.727   0.659
 8681SOL    HW227883   0.171   5.858   0.597
 8682SOL     OW27884   3.559   3.199   2.134
 8682SOL    HW127885   3.602   3.280   2.107
 8682SOL    HW227886   3.545   3.209   2.228
 8683SOL     OW27887   9.545   2.853   4.994
 8683SOL    HW127888   9.543   2.941   5.030
 8683SOL    HW227889   9.581   2.864   4.906
 8684SOL     OW27890  14.007   3.052   6.034
 8684SOL    HW127891  13.987   3.139   6.067
 8684SOL    HW227892  14.082   3.023   6.086
 8685SOL     OW27893   6.912   1.706  11.694
 8685SOL    HW127894   6.955   1.683  11.611
 8685SOL    HW227895   6.869   1.789  11.676
 8686SOL     OW27896   9.352   6.524   4.547
 8686SOL    HW127897   9.256   6.519   4.555
 8686SOL    HW227898   9.374   6.454   4.487
 8687SOL     OW27899  13.026   6.313   0.180
 8687SOL    HW127900  12.946   6.284   0.138
 8687SOL    HW227901  13.076   6.233   0.195
 8688SOL     OW27902  11.921  12.151   5.862
 8688SOL    HW127903  11.914  12.125   5.770
 8688SOL    HW227904  11.860  12.093   5.908
 8689SOL     OW27905  13.478  14.155   1.540
 8689SOL    HW127906  13.407  14.149   1.603
 8689SOL    HW227907  13.537  14.222   1.576
 8690SOL     OW27908  12.860  10.028  11.619
 8690SOL    HW127909  12.766  10.034  11.636
 8690SOL    HW227910  12.900  10.019  11.705
 8691SOL     OW27911  13.890   7.776   3.042
 8691SOL    HW127912  13.865   7.868   3.031
 8691SOL    HW227913  13.950   7.759   2.969
 8692SOL     OW27914  12.621   8.564   1.984
 8692SOL    HW127915  12.642   8.525   2.069
 8692SOL    HW227916  12.593   8.653   2.005
 8693SOL     OW27917  12.086   1.169  14.480
 8693SOL    HW127918  12.153   1.133  14.537
 8693SOL    HW227919  12.008   1.177  14.536
 8694SOL     OW27920   4.750   8.088  11.593
 8694SOL    HW127921   4.750   7.998  11.625
 8694SOL    HW227922   4.776   8.080  11.501
 8695SOL     OW27923   1.026   1.168  14.030
 8695SOL    HW127924   1.005   1.258  14.007
 8695SOL    HW227925   1.116   1.172  14.063
 8696SOL     OW27926   7.353   7.498   2.549
 8696SOL    HW127927   7.324   7.579   2.591
 8696SOL    HW227928   7.283   7.477   2.487
 8697SOL     OW27929   8.424  14.380   4.021
 8697SOL    HW127930   8.410  14.359   4.114
 8697SOL    HW227931   8.509  14.424   4.019
 8698SOL     OW27932  14.708   9.344  13.716
 8698SOL    HW127933  14.760   9.292  13.655
 8698SOL    HW227934  14.671   9.415  13.663
 8699SOL     OW27935   9.451   7.837   4.822
 8699SOL    HW127936   9.545   7.836   4.839
 8699SOL    HW227937   9.444   7.832   4.727
 8700SOL     OW27938  13.950  14.792   7.451
 8700SOL    HW127939  13.902  14.857   7.502
 8700SOL    HW227940  13.888  14.720   7.438
 8701SOL     OW27941  14.272  14.571  14.306
 8701SOL    HW127942  14.281  14.588  14.212
 8701SOL    HW227943  14.188  14.527  14.314
 8702SOL     OW27944   1.157   7.895  13.978
 8702SOL    HW127945   1.246   7.911  13.950
 8702SOL    HW227946   1.125   7.825  13.921
 8703SOL     OW27947  12.243   4.277   4.259
 8703SOL    HW127948  12.268   4.368   4.276
 8703SOL    HW227949  12.223   4.241   4.345
 8704SOL     OW27950  11.420   2.885   6.717
 8704SOL    HW127951  11.423   2.799   6.759
 8704SOL    HW227952  11.398   2.946   6.789
 8705SOL     OW27953   6.991   3.068   9.874
 8705SOL    HW127954   6.981   3.159   9.847
 8705SOL    HW227955   6.917   3.023   9.834
 8706SOL     OW27956   6.129   4.439   6.746
 8706SOL    HW127957   6.081   4.468   6.824
 8706SOL    HW227958   6.221   4.443   6.773
 8707SOL     OW27959  14.425  13.634  12.960
 8707SOL    HW127960  14.422  13.594  12.873
 8707SOL    HW227961  14.417  13.560  13.021
 8708SOL     OW27962  13.188  10.492  10.794
 8708SOL    HW127963  13.113  10.449  10.836
 8708SOL    HW227964  13.240  10.526  10.867
 8709SOL     OW27965   6.375   2.236  14.002
 8709SOL    HW127966   6.389   2.296  14.076
 8709SOL    HW227967   6.329   2.162  14.040
 8710SOL     OW27968   0.790   3.742   0.918
 8710SOL    HW127969   0.749   3.705   0.996
 8710SOL    HW227970   0.872   3.780   0.949
 8711SOL     OW27971  14.767  14.402   1.046
 8711SOL    HW127972  14.725  14.427   1.128
 8711SOL    HW227973  14.748  14.308   1.037
 8712SOL     OW27974   8.719  11.734   0.397
 8712SOL    HW127975   8.770  11.814   0.381
 8712SOL    HW227976   8.683  11.712   0.311
 8713SOL     OW27977   9.850   2.560   0.989
 8713SOL    HW127978   9.793   2.541   0.914
 8713SOL    HW227979   9.872   2.474   1.024
 8714SOL     OW27980  13.822   3.070   1.672
 8714SOL    HW127981  13.800   3.158   1.642
 8714SOL    HW227982  13.863   3.084   1.758
 8715SOL     OW27983  11.090  14.762   7.354
 8715SOL    HW127984  11.037  14.827   7.399
 8715SOL    HW227985  11.036  14.683   7.353
 8716SOL     OW27986   2.855   6.591   3.282
 8716SOL    HW127987   2.839   6.535   3.359
 8716SOL    HW227988   2.949   6.584   3.267
 8717SOL     OW27989  10.000   9.734   0.628
 8717SOL    HW127990  10.042   9.653   0.658
 8717SOL    HW227991  10.012   9.733   0.533
 8718SOL     OW27992   4.912   5.404   9.717
 8718SOL    HW127993   4.954   5.476   9.670
 8718SOL    HW227994   4.828   5.440   9.746
 8719SOL     OW27995  13.843   6.552  13.352
 8719SOL    HW127996  13.866   6.478  13.296
 8719SOL    HW227997  13.849   6.517  13.441
 8720SOL     OW27998   8.382  11.048   3.751
 8720SOL    HW127999   8.389  11.127   3.803
 8720SOL    HW228000   8.290  11.044   3.725
 8721SOL     OW28001   1.553   9.453  13.560
 8721SOL    HW128002   1.640   9.433  13.526
 8721SOL    HW228003   1.568   9.502  13.640
 8722SOL     OW28004   5.017   0.450   1.841
 8722SOL    HW128005   5.108   0.469   1.865
 8722SOL    HW228006   5.022   0.416   1.752
 8723SOL     OW28007   8.870   6.400   7.316
 8723SOL    HW128008   8.854   6.485   7.358
 8723SOL    HW228009   8.958   6.409   7.278
 8724SOL     OW28010  14.063   6.968   0.478
 8724SOL    HW128011  14.039   6.892   0.424
 8724SOL    HW228012  14.085   6.930   0.563
 8725SOL     OW28013   0.578   5.963   6.074
 8725SOL    HW128014   0.609   5.880   6.112
 8725SOL    HW228015   0.650   6.024   6.087
 8726SOL     OW28016  14.232   3.858  13.418
 8726SOL    HW128017  14.305   3.796  13.412
 8726SOL    HW228018  14.175   3.821  13.485
 8727SOL     OW28019  13.762   5.557   5.745
 8727SOL    HW128020  13.704   5.501   5.797
 8727SOL    HW228021  13.834   5.499   5.719
 8728SOL     OW28022   0.053  14.286   3.758
 8728SOL    HW128023   0.117  14.329   3.701
 8728SOL    HW228024   0.045  14.197   3.723
 8729SOL     OW28025  10.975   9.433  10.159
 8729SOL    HW128026  11.008   9.349  10.127
 8729SOL    HW228027  10.897   9.450  10.106
 8730SOL     OW28028   4.462   1.717   3.958
 8730SOL    HW128029   4.504   1.738   3.874
 8730SOL    HW228030   4.483   1.793   4.013
 8731SOL     OW28031   6.285  14.472   3.437
 8731SOL    HW128032   6.346  14.546   3.443
 8731SOL    HW228033   6.221  14.488   3.506
 8732SOL     OW28034   9.330  10.393  13.814
 8732SOL    HW128035   9.261  10.338  13.776
 8732SOL    HW228036   9.344  10.358  13.902
 8733SOL     OW28037   2.163   1.061  13.141
 8733SOL    HW128038   2.121   1.142  13.112
 8733SOL    HW228039   2.202   1.083  13.226
 8734SOL     OW28040   5.294   1.662   9.401
 8734SOL    HW128041   5.382   1.684   9.370
 8734SOL    HW228042   5.245   1.641   9.321
 8735SOL     OW28043   2.456  14.763   0.374
 8735SOL    HW128044   2.533  14.707   0.361
 8735SOL    HW228045   2.419  14.734   0.457
 8736SOL     OW28046   5.047   9.775   8.726
 8736SOL    HW128047   5.023   9.854   8.775
 8736SOL    HW228048   5.091   9.808   8.648
 8737SOL     OW28049   3.587   5.802   0.845
 8737SOL    HW128050   3.636   5.741   0.899
 8737SOL    HW228051   3.627   5.796   0.758
 8738SOL     OW28052   0.472   0.759   7.385
 8738SOL    HW128053   0.475   0.664   7.386
 8738SOL    HW228054   0.481   0.783   7.292
 8739SOL     OW28055   7.397  11.691   9.900
 8739SOL    HW128056   7.338  11.757   9.936
 8739SOL    HW228057   7.418  11.634   9.975
 8740SOL     OW28058  11.603   1.240   6.474
 8740SOL    HW128059  11.517   1.229   6.514
 8740SOL    HW228060  11.649   1.299   6.533
 8741SOL     OW28061   0.737   1.675   1.057
 8741SOL    HW128062   0.727   1.617   1.132
 8741SOL    HW228063   0.675   1.642   0.992
 8742SOL     OW28064  10.076   4.098   3.622
 8742SOL    HW128065  10.123   4.152   3.687
 8742SOL    HW228066  10.145   4.047   3.579
 8743SOL     OW28067   9.630   1.693  13.929
 8743SOL    HW128068   9.637   1.764  13.993
 8743SOL    HW228069   9.553   1.642  13.957
 8744SOL     OW28070  13.832  13.052   5.777
 8744SOL    HW128071  13.850  13.101   5.858
 8744SOL    HW228072  13.749  13.008   5.794
 8745SOL     OW28073   5.238   0.544  12.101
 8745SOL    HW128074   5.274   0.632  12.111
 8745SOL    HW228075   5.146   0.558  12.080
 8746SOL     OW28076  14.760   8.570   1.681
 8746SOL    HW128077  14.764   8.492   1.627
 8746SOL    HW228078  14.816   8.633   1.636
 8747SOL     OW28079  14.733   9.207   8.587
 8747SOL    HW128080  14.810   9.251   8.550
 8747SOL    HW228081  14.767   9.159   8.663
 8748SOL     OW28082   8.757   0.886   1.587
 8748SOL    HW128083   8.747   0.841   1.671
 8748SOL    HW228084   8.851   0.877   1.567
 8749SOL     OW28085  14.395   1.084   6.667
 8749SOL    HW128086  14.481   1.078   6.624
 8749SOL    HW228087  14.410   1.049   6.755
 8750SOL     OW28088   2.735  10.995   7.499
 8750SOL    HW128089   2.773  10.929   7.556
 8750SOL    HW228090   2.754  11.078   7.542
 8751SOL     OW28091   7.793   2.209   7.141
 8751SOL    HW128092   7.876   2.198   7.093
 8751SOL    HW228093   7.730   2.155   7.094
 8752SOL     OW28094  12.393   8.228   4.012
 8752SOL    HW128095  12.416   8.224   4.105
 8752SOL    HW228096  12.304   8.195   4.007
 8753SOL     OW28097   0.899  14.216   9.454
 8753SOL    HW128098   0.900  14.174   9.368
 8753SOL    HW228099   0.932  14.149   9.514
 8754SOL     OW28100   2.439   0.742  14.750
 8754SOL    HW128101   2.378   0.696  14.807
 8754SOL    HW228102   2.438   0.833  14.780
 8755SOL     OW28103   7.386  13.598   3.012
 8755SOL    HW128104   7.326  13.653   2.961
 8755SOL    HW228105   7.389  13.516   2.963
 8756SOL     OW28106   3.905   8.731   3.021
 8756SOL    HW128107   3.819   8.762   2.992
 8756SOL    HW228108   3.968   8.790   2.978
 8757SOL     OW28109   8.147  11.589  12.923
 8757SOL    HW128110   8.114  11.517  12.869
 8757SOL    HW228111   8.241  11.594  12.901
 8758SOL     OW28112   3.183   7.941   9.480
 8758SOL    HW128113   3.109   7.963   9.424
 8758SOL    HW228114   3.215   8.026   9.511
 8759SOL     OW28115   0.317   5.203   2.705
 8759SOL    HW128116   0.222   5.202   2.717
 8759SOL    HW228117   0.330   5.184   2.612
 8760SOL     OW28118   6.324   7.802  13.249
 8760SOL    HW128119   6.343   7.711  13.227
 8760SOL    HW228120   6.334   7.849  13.166
 8761SOL     OW28121   2.886   8.200  13.129
 8761SOL    HW128122   2.831   8.166  13.199
 8761SOL    HW228123   2.878   8.136  13.058
 8762SOL     OW28124   3.186   9.960   0.665
 8762SOL    HW128125   3.171   9.990   0.755
 8762SOL    HW228126   3.179   9.865   0.669
 8763SOL     OW28127   3.933   9.655   0.070
 8763SOL    HW128128   3.957   9.671   0.161
 8763SOL    HW228129   4.017   9.647   0.024
 8764SOL     OW28130   0.924   4.206   6.224
 8764SOL    HW128131   0.926   4.292   6.182
 8764SOL    HW228132   0.907   4.144   6.152
 8765SOL     OW28133   9.413   3.041   3.701
 8765SOL    HW128134   9.384   2.950   3.698
 8765SOL    HW228135   9.504   3.037   3.731
 8766SOL     OW28136   2.297   8.020  13.065
 8766SOL    HW128137   2.365   8.026  13.132
 8766SOL    HW228138   2.261   8.108  13.058
 8767SOL     OW28139   0.677   7.991   1.953
 8767SOL    HW128140   0.671   8.047   1.875
 8767SOL    HW228141   0.765   8.007   1.987
 8768SOL     OW28142  13.404   3.979   1.529
 8768SOL    HW128143  13.390   3.979   1.624
 8768SOL    HW228144  13.324   4.018   1.493
 8769SOL     OW28145   3.496   6.416   6.439
 8769SOL    HW128146   3.457   6.421   6.351
 8769SOL    HW228147   3.501   6.507   6.468
 8770SOL     OW28148  10.705   3.101   7.149
 8770SOL    HW128149  10.699   3.148   7.066
 8770SOL    HW228150  10.774   3.035   7.134
 8771SOL     OW28151  12.266   1.647  13.155
 8771SOL    HW128152  12.324   1.717  13.125
 8771SOL    HW228153  12.293   1.571  13.102
 8772SOL     OW28154   3.396   6.338   4.847
 8772SOL    HW128155   3.429   6.419   4.884
 8772SOL    HW228156   3.365   6.288   4.923
 8773SOL     OW28157   1.247   8.887   5.753
 8773SOL    HW128158   1.164   8.930   5.770
 8773SOL    HW228159   1.249   8.876   5.658
 8774SOL     OW28160  10.091   7.698  10.824
 8774SOL    HW128161  10.054   7.681  10.738
 8774SOL    HW228162  10.141   7.619  10.846
 8775SOL     OW28163   0.426   0.849   7.904
 8775SOL    HW128164   0.397   0.845   7.813
 8775SOL    HW228165   0.426   0.758   7.933
 8776SOL     OW28166  12.755   4.938   5.862
 8776SOL    HW128167  12.734   5.021   5.905
 8776SOL    HW228168  12.676   4.885   5.873
 8777SOL     OW28169   1.932   2.964   2.702
 8777SOL    HW128170   1.958   2.886   2.751
 8777SOL    HW228171   1.938   3.036   2.765
 8778SOL     OW28172  11.385   3.092  12.361
 8778SOL    HW128173  11.326   3.074  12.288
 8778SOL    HW228174  11.433   3.010  12.374
 8779SOL     OW28175  13.027   4.569  12.884
 8779SOL    HW128176  12.968   4.498  12.908
 8779SOL    HW228177  12.987   4.609  12.807
 8780SOL     OW28178   0.009   7.355   8.909
 8780SOL    HW128179   0.095   7.314   8.899
 8780SOL    HW228180   0.021   7.444   8.876
 8781SOL     OW28181  14.703   0.084  13.818
 8781SOL    HW128182  14.664   0.152  13.763
 8781SOL    HW228183  14.795   0.082  13.791
 8782SOL     OW28184  11.002   1.996  11.870
 8782SOL    HW128185  10.966   1.935  11.805
 8782SOL    HW228186  11.082   2.029  11.830
 8783SOL     OW28187  11.016  12.051  12.586
 8783SOL    HW128188  11.012  12.128  12.528
 8783SOL    HW228189  10.930  12.048  12.627
 8784SOL     OW28190   4.086   5.177  13.623
 8784SOL    HW128191   4.175   5.176  13.657
 8784SOL    HW228192   4.065   5.085  13.607
 8785SOL     OW28193  13.785   5.470   3.436
 8785SOL    HW128194  13.789   5.485   3.531
 8785SOL    HW228195  13.843   5.395   3.422
 8786SOL     OW28196  10.126   2.920   5.485
 8786SOL    HW128197  10.143   2.928   5.391
 8786SOL    HW228198  10.127   2.826   5.502
 8787SOL     OW28199   5.105   8.794  13.225
 8787SOL    HW128200   5.090   8.885  13.249
 8787SOL    HW228201   5.183   8.796  13.171
 8788SOL     OW28202   6.122  14.254   6.883
 8788SOL    HW128203   6.150  14.171   6.924
 8788SOL    HW228204   6.111  14.231   6.791
 8789SOL     OW28205  13.791   4.783   4.294
 8789SOL    HW128206  13.866   4.830   4.329
 8789SOL    HW228207  13.740   4.851   4.248
 8790SOL     OW28208   7.590   3.065   8.851
 8790SOL    HW128209   7.635   2.989   8.815
 8790SOL    HW228210   7.530   3.029   8.917
 8791SOL     OW28211   5.965   7.651   3.827
 8791SOL    HW128212   5.896   7.594   3.861
 8791SOL    HW228213   5.934   7.675   3.739
 8792SOL     OW28214   6.656   5.304   4.925
 8792SOL    HW128215   6.670   5.300   4.830
 8792SOL    HW228216   6.563   5.284   4.936
 8793SOL     OW28217  14.425   1.706  13.548
 8793SOL    HW128218  14.442   1.615  13.570
 8793SOL    HW228219  14.367   1.701  13.471
 8794SOL     OW28220   7.388   3.995   4.305
 8794SOL    HW128221   7.392   3.963   4.395
 8794SOL    HW228222   7.300   3.972   4.275
 8795SOL     OW28223  10.497   4.868   6.752
 8795SOL    HW128224  10.522   4.842   6.840
 8795SOL    HW228225  10.423   4.927   6.765
 8796SOL     OW28226  12.515   2.281   4.150
 8796SOL    HW128227  12.465   2.341   4.205
 8796SOL    HW228228  12.605   2.288   4.181
 8797SOL     OW28229   3.741   0.701  12.598
 8797SOL    HW128230   3.821   0.662  12.634
 8797SOL    HW228231   3.737   0.670  12.508
 8798SOL     OW28232   0.324   6.411   4.872
 8798SOL    HW128233   0.328   6.468   4.948
 8798SOL    HW228234   0.238   6.369   4.878
 8799SOL     OW28235   7.908  13.700  13.562
 8799SOL    HW128236   7.892  13.765  13.630
 8799SOL    HW228237   8.001  13.710  13.541
 8800SOL     OW28238  10.497  12.768  11.855
 8800SOL    HW128239  10.575  12.751  11.908
 8800SOL    HW228240  10.530  12.771  11.765
 8801SOL     OW28241   8.524   0.164   6.817
 8801SOL    HW128242   8.491   0.128   6.900
 8801SOL    HW228243   8.605   0.210   6.841
 8802SOL     OW28244  12.520   2.187   1.969
 8802SOL    HW128245  12.451   2.254   1.974
 8802SOL    HW228246  12.474   2.107   1.944
 8803SOL     OW28247   3.044   0.124   9.192
 8803SOL    HW128248   3.129   0.108   9.233
 8803SOL    HW228249   2.996   0.042   9.203
 8804SOL     OW28250   4.138   5.204   6.037
 8804SOL    HW128251   4.091   5.224   6.117
 8804SOL    HW228252   4.074   5.158   5.983
 8805SOL     OW28253  10.590   2.697   5.156
 8805SOL    HW128254  10.594   2.606   5.126
 8805SOL    HW228255  10.676   2.714   5.192
 8806SOL     OW28256   2.693   3.960   4.603
 8806SOL    HW128257   2.643   4.030   4.645
 8806SOL    HW228258   2.631   3.918   4.544
 8807SOL     OW28259  13.845  10.707   5.277
 8807SOL    HW128260  13.806  10.744   5.356
 8807SOL    HW228261  13.813  10.763   5.206
 8808SOL     OW28262   3.980   0.609   3.062
 8808SOL    HW128263   3.923   0.583   3.135
 8808SOL    HW228264   3.920   0.631   2.991
 8809SOL     OW28265   4.053  13.592   7.039
 8809SOL    HW128266   4.083  13.620   7.126
 8809SOL    HW228267   3.961  13.618   7.035
 8810SOL     OW28268   3.067   9.390   7.726
 8810SOL    HW128269   3.005   9.455   7.758
 8810SOL    HW228270   3.146   9.403   7.779
 8811SOL     OW28271   5.226   1.069  13.414
 8811SOL    HW128272   5.317   1.045  13.432
 8811SOL    HW228273   5.219   1.161  13.437
 8812SOL     OW28274   7.270  14.229   3.997
 8812SOL    HW128275   7.261  14.316   4.035
 8812SOL    HW228276   7.226  14.235   3.912
 8813SOL     OW28277  11.999  11.013   0.876
 8813SOL    HW128278  12.015  11.097   0.919
 8813SOL    HW228279  11.908  11.019   0.847
 8814SOL     OW28280  11.704   0.556  10.602
 8814SOL    HW128281  11.745   0.470  10.614
 8814SOL    HW228282  11.639   0.541  10.533
 8815SOL     OW28283   1.377   4.408   0.899
 8815SOL    HW128284   1.290   4.394   0.934
 8815SOL    HW228285   1.399   4.326   0.854
 8816SOL     OW28286   1.208   8.128   3.154
 8816SOL    HW128287   1.122   8.170   3.157
 8816SOL    HW228288   1.239   8.142   3.065
 8817SOL     OW28289   0.087   2.151   6.934
 8817SOL    HW128290   0.090   2.190   6.847
 8817SOL    HW228291   0.135   2.212   6.990
 8818SOL     OW28292   8.865   4.157   4.725
 8818SOL    HW128293   8.801   4.212   4.680
 8818SOL    HW228294   8.861   4.184   4.817
 8819SOL     OW28295  10.316   4.861   1.620
 8819SOL    HW128296  10.356   4.828   1.539
 8819SOL    HW228297  10.302   4.954   1.603
 8820SOL     OW28298   4.380  12.383   7.646
 8820SOL    HW128299   4.379  12.359   7.553
 8820SOL    HW228300   4.358  12.302   7.692
 8821SOL     OW28301   4.324  13.749   0.469
 8821SOL    HW128302   4.263  13.701   0.413
 8821SOL    HW228303   4.305  13.718   0.558
 8822SOL     OW28304   7.974  14.817  14.080
 8822SOL    HW128305   7.948  14.737  14.126
 8822SOL    HW228306   7.959  14.796  13.987
 8823SOL     OW28307  10.107  13.008   1.538
 8823SOL    HW128308  10.087  12.938   1.600
 8823SOL    HW228309  10.165  13.066   1.585
 8824SOL     OW28310   2.822  14.227  12.450
 8824SOL    HW128311   2.846  14.317  12.471
 8824SOL    HW228312   2.755  14.235  12.382
 8825SOL     OW28313   3.720   9.715   3.177
 8825SOL    HW128314   3.633   9.713   3.136
 8825SOL    HW228315   3.725   9.633   3.226
 8826SOL     OW28316   1.651   7.065  12.700
 8826SOL    HW128317   1.701   7.012  12.638
 8826SOL    HW228318   1.706   7.141  12.717
 8827SOL     OW28319   9.355   0.997   6.749
 8827SOL    HW128320   9.434   1.002   6.696
 8827SOL    HW228321   9.374   1.050   6.827
 8828SOL     OW28322   4.297   6.308   1.215
 8828SOL    HW128323   4.387   6.334   1.199
 8828SOL    HW228324   4.285   6.321   1.309
 8829SOL     OW28325  13.763  10.689   6.470
 8829SOL    HW128326  13.805  10.729   6.393
 8829SOL    HW228327  13.830  10.694   6.538
 8830SOL     OW28328   0.996   1.171   3.293
 8830SOL    HW128329   1.027   1.085   3.264
 8830SOL    HW228330   1.069   1.206   3.346
 8831SOL     OW28331   1.361   7.100   5.598
 8831SOL    HW128332   1.380   7.084   5.691
 8831SOL    HW228333   1.276   7.059   5.583
 8832SOL     OW28334   5.805   0.969   4.053
 8832SOL    HW128335   5.849   0.892   4.089
 8832SOL    HW228336   5.767   1.013   4.130
 8833SOL     OW28337  11.436  11.669   1.867
 8833SOL    HW128338  11.433  11.593   1.809
 8833SOL    HW228339  11.349  11.673   1.905
 8834SOL     OW28340  14.255   0.200  12.614
 8834SOL    HW128341  14.237   0.143  12.688
 8834SOL    HW228342  14.186   0.181  12.550
 8835SOL     OW28343   6.278  14.722   6.830
 8835SOL    HW128344   6.349  14.663   6.856
 8835SOL    HW228345   6.278  14.790   6.898
 8836SOL     OW28346   4.681   6.101   5.623
 8836SOL    HW128347   4.680   6.171   5.689
 8836SOL    HW228348   4.594   6.061   5.630
 8837SOL     OW28349   3.975   3.674  10.361
 8837SOL    HW128350   3.985   3.769  10.365
 8837SOL    HW228351   3.999   3.643  10.448
 8838SOL     OW28352   9.297  10.514   0.508
 8838SOL    HW128353   9.257  10.437   0.551
 8838SOL    HW228354   9.359  10.477   0.445
 8839SOL     OW28355  11.058  13.727   0.630
 8839SOL    HW128356  10.992  13.787   0.595
 8839SOL    HW228357  11.047  13.647   0.579
 8840SOL     OW28358   6.007   2.043   8.230
 8840SOL    HW128359   6.077   2.107   8.217
 8840SOL    HW228360   5.928   2.088   8.201
 8841SOL     OW28361   5.979  10.896  12.946
 8841SOL    HW128362   6.006  10.895  12.854
 8841SOL    HW228363   5.892  10.854  12.946
 8842SOL     OW28364   7.131   6.067  12.288
 8842SOL    HW128365   7.122   6.056  12.383
 8842SOL    HW228366   7.186   6.145  12.278
 8843SOL     OW28367   2.327  13.553   3.086
 8843SOL    HW128368   2.421  13.573   3.087
 8843SOL    HW228369   2.286  13.633   3.053
 8844SOL     OW28370  11.428  10.558   6.559
 8844SOL    HW128371  11.476  10.638   6.541
 8844SOL    HW228372  11.439  10.505   6.480
 8845SOL     OW28373   2.689   8.402  14.746
 8845SOL    HW128374   2.778   8.437  14.753
 8845SOL    HW228375   2.700   8.307  14.747
 8846SOL     OW28376   4.264  10.068   4.607
 8846SOL    HW128377   4.224  10.069   4.520
 8846SOL    HW228378   4.357  10.052   4.591
 8847SOL     OW28379  10.058   9.742   8.269
 8847SOL    HW128380  10.068   9.835   8.248
 8847SOL    HW228381   9.971   9.736   8.309
 8848SOL     OW28382  12.286   6.523   5.847
 8848SOL    HW128383  12.379   6.511   5.825
 8848SOL    HW228384  12.250   6.569   5.771
 8849SOL     OW28385   2.982   6.552   6.695
 8849SOL    HW128386   3.049   6.515   6.753
 8849SOL    HW228387   2.996   6.646   6.700
 8850SOL     OW28388   2.367   5.701  11.040
 8850SOL    HW128389   2.459   5.686  11.017
 8850SOL    HW228390   2.368   5.785  11.086
 8851SOL     OW28391   9.562   3.506   2.112
 8851SOL    HW128392   9.538   3.453   2.188
 8851SOL    HW228393   9.624   3.571   2.145
 8852SOL     OW28394  13.786  10.611   2.176
 8852SOL    HW128395  13.774  10.555   2.099
 8852SOL    HW228396  13.697  10.630   2.206
 8853SOL     OW28397   4.300   1.646  14.105
 8853SOL    HW128398   4.270   1.706  14.037
 8853SOL    HW228399   4.222   1.627  14.156
 8854SOL     OW28400  11.601   2.671   2.376
 8854SOL    HW128401  11.562   2.585   2.391
 8854SOL    HW228402  11.546   2.732   2.425
 8855SOL     OW28403   7.131   2.625   3.819
 8855SOL    HW128404   7.047   2.623   3.772
 8855SOL    HW228405   7.136   2.713   3.855
 8856SOL     OW28406  11.988   8.778   2.752
 8856SOL    HW128407  11.972   8.753   2.843
 8856SOL    HW228408  12.077   8.750   2.734
 8857SOL     OW28409  12.179   2.190   2.500
 8857SOL    HW128410  12.180   2.117   2.562
 8857SOL    HW228411  12.263   2.185   2.455
 8858SOL     OW28412   7.718   8.028  10.331
 8858SOL    HW128413   7.729   8.121  10.348
 8858SOL    HW228414   7.802   7.989  10.358
 8859SOL     OW28415   1.877   9.916   6.801
 8859SOL    HW128416   1.918   9.866   6.872
 8859SOL    HW228417   1.785   9.891   6.803
 8860SOL     OW28418  12.296  13.073   9.739
 8860SOL    HW128419  12.332  13.019   9.810
 8860SOL    HW228420  12.361  13.143   9.728
 8861SOL     OW28421   4.683   6.361  12.413
 8861SOL    HW128422   4.634   6.361  12.330
 8861SOL    HW228423   4.626   6.314  12.474
 8862SOL     OW28424  13.124   7.034  12.245
 8862SOL    HW128425  13.058   7.101  12.227
 8862SOL    HW228426  13.207   7.080  12.236
 8863SOL     OW28427  13.795   9.271  14.220
 8863SOL    HW128428  13.710   9.288  14.179
 8863SOL    HW228429  13.817   9.354  14.263
 8864SOL     OW28430  13.321   5.528  10.634
 8864SOL    HW128431  13.407   5.562  10.657
 8864SOL    HW228432  13.324   5.435  10.658
 8865SOL     OW28433   4.548   3.884  13.005
 8865SOL    HW128434   4.481   3.867  13.072
 8865SOL    HW228435   4.631   3.864  13.048
 8866SOL     OW28436  11.489   8.900  10.265
 8866SOL    HW128437  11.462   8.815  10.232
 8866SOL    HW228438  11.518   8.948  10.187
 8867SOL     OW28439   7.108  10.683   2.912
 8867SOL    HW128440   7.025  10.682   2.959
 8867SOL    HW228441   7.172  10.651   2.976
 8868SOL     OW28442  11.499   2.344   6.201
 8868SOL    HW128443  11.466   2.430   6.226
 8868SOL    HW228444  11.494   2.292   6.280
 8869SOL     OW28445   7.782   6.258   1.287
 8869SOL    HW128446   7.832   6.328   1.328
 8869SOL    HW228447   7.804   6.180   1.337
 8870SOL     OW28448  10.798   7.624  11.427
 8870SOL    HW128449  10.719   7.672  11.402
 8870SOL    HW228450  10.771   7.572  11.502
 8871SOL     OW28451  12.530   5.956   0.304
 8871SOL    HW128452  12.459   5.982   0.245
 8871SOL    HW228453  12.487   5.903   0.371
 8872SOL     OW28454   2.186   6.873   6.803
 8872SOL    HW128455   2.172   6.967   6.787
 8872SOL    HW228456   2.097   6.836   6.806
 8873SOL     OW28457  10.267  13.782   8.498
 8873SOL    HW128458  10.325  13.734   8.558
 8873SOL    HW228459  10.304  13.870   8.495
 8874SOL     OW28460   1.609   4.983  10.466
 8874SOL    HW128461   1.526   5.002  10.510
 8874SOL    HW228462   1.616   4.888  10.468
 8875SOL     OW28463   6.957  12.135   4.228
 8875SOL    HW128464   6.939  12.086   4.148
 8875SOL    HW228465   6.873  12.172   4.253
 8876SOL     OW28466   8.820   4.130  12.607
 8876SOL    HW128467   8.902   4.083  12.594
 8876SOL    HW228468   8.839   4.193  12.677
 8877SOL     OW28469   8.929   0.177   2.009
 8877SOL    HW128470   8.907   0.133   2.091
 8877SOL    HW228471   8.851   0.165   1.954
 8878SOL     OW28472   5.875   7.545   0.737
 8878SOL    HW128473   5.850   7.540   0.644
 8878SOL    HW228474   5.837   7.466   0.776
 8879SOL     OW28475   6.185  11.475   0.628
 8879SOL    HW128476   6.237  11.534   0.682
 8879SOL    HW228477   6.094  11.496   0.651
 8880SOL     OW28478  12.400   3.176   4.791
 8880SOL    HW128479  12.310   3.189   4.761
 8880SOL    HW228480  12.453   3.221   4.726
 8881SOL     OW28481  13.257   2.035   2.188
 8881SOL    HW128482  13.312   2.098   2.235
 8881SOL    HW228483  13.320   1.976   2.147
 8882SOL     OW28484   4.506   4.041   1.624
 8882SOL    HW128485   4.525   4.135   1.622
 8882SOL    HW228486   4.456   4.029   1.704
 8883SOL     OW28487   5.802  14.727   0.444
 8883SOL    HW128488   5.771  14.639   0.468
 8883SOL    HW228489   5.888  14.734   0.485
 8884SOL     OW28490  10.147   5.112   1.613
 8884SOL    HW128491  10.163   5.178   1.546
 8884SOL    HW228492  10.090   5.048   1.571
 8885SOL     OW28493  12.651  12.244   4.686
 8885SOL    HW128494  12.675  12.312   4.749
 8885SOL    HW228495  12.734  12.205   4.659
 8886SOL     OW28496   0.435   8.568   8.867
 8886SOL    HW128497   0.479   8.584   8.951
 8886SOL    HW228498   0.488   8.499   8.826
 8887SOL     OW28499   7.672   2.382   8.944
 8887SOL    HW128500   7.709   2.368   8.856
 8887SOL    HW228501   7.665   2.294   8.981
 8888SOL     OW28502   3.211   9.292   9.171
 8888SOL    HW128503   3.208   9.367   9.231
 8888SOL    HW228504   3.288   9.242   9.198
 8889SOL     OW28505   3.507   2.562  10.021
 8889SOL    HW128506   3.442   2.493  10.012
 8889SOL    HW228507   3.591   2.517  10.020
 8890SOL     OW28508   3.781   2.855  13.792
 8890SOL    HW128509   3.837   2.777  13.784
 8890SOL    HW228510   3.775   2.870  13.887
 8891SOL     OW28511   5.556   9.482  13.763
 8891SOL    HW128512   5.636   9.460  13.716
 8891SOL    HW228513   5.486   9.441  13.712
 8892SOL     OW28514   4.360   6.636  14.148
 8892SOL    HW128515   4.291   6.702  14.148
 8892SOL    HW228516   4.415   6.659  14.223
 8893SOL     OW28517  14.368  10.793   2.714
 8893SOL    HW128518  14.370  10.716   2.657
 8893SOL    HW228519  14.450  10.789   2.762
 8894SOL     OW28520   4.026   9.011  11.700
 8894SOL    HW128521   3.978   8.984  11.778
 8894SOL    HW228522   4.116   9.024  11.731
 8895SOL     OW28523   7.696   2.932   7.263
 8895SOL    HW128524   7.768   2.966   7.210
 8895SOL    HW228525   7.720   2.841   7.280
 8896SOL     OW28526   5.927  10.633  11.192
 8896SOL    HW128527   5.925  10.543  11.160
 8896SOL    HW228528   5.868  10.681  11.134
 8897SOL     OW28529   9.072   8.522  12.023
 8897SOL    HW128530   8.981   8.547  12.042
 8897SOL    HW228531   9.079   8.525  11.928
 8898SOL     OW28532   9.102  11.105  10.993
 8898SOL    HW128533   9.138  11.021  10.966
 8898SOL    HW228534   9.017  11.084  11.030
 8899SOL     OW28535  13.322   0.369  13.194
 8899SOL    HW128536  13.321   0.287  13.243
 8899SOL    HW228537  13.256   0.357  13.125
 8900SOL     OW28538   3.463   1.708   1.960
 8900SOL    HW128539   3.498   1.749   2.039
 8900SOL    HW228540   3.417   1.779   1.915
 8901SOL     OW28541   5.754   9.168   4.583
 8901SOL    HW128542   5.801   9.135   4.506
 8901SOL    HW228543   5.803   9.245   4.610
 8902SOL     OW28544   2.820   8.100   6.845
 8902SOL    HW128545   2.813   8.126   6.753
 8902SOL    HW228546   2.815   8.182   6.894
 8903SOL     OW28547  12.204   0.976   7.314
 8903SOL    HW128548  12.204   0.890   7.273
 8903SOL    HW228549  12.292   0.984   7.351
 8904SOL     OW28550   5.830  12.774   7.523
 8904SOL    HW128551   5.782  12.856   7.536
 8904SOL    HW228552   5.839  12.737   7.611
 8905SOL     OW28553  13.373   9.180   6.555
 8905SOL    HW128554  13.367   9.208   6.464
 8905SOL    HW228555  13.291   9.208   6.595
 8906SOL     OW28556   2.266  10.053   5.442
 8906SOL    HW128557   2.361  10.053   5.432
 8906SOL    HW228558   2.232  10.084   5.358
 8907SOL     OW28559   2.073  11.687   3.484
 8907SOL    HW128560   2.030  11.630   3.421
 8907SOL    HW228561   2.141  11.633   3.524
 8908SOL     OW28562  11.954   8.174   0.221
 8908SOL    HW128563  11.878   8.124   0.250
 8908SOL    HW228564  11.917   8.247   0.171
 8909SOL     OW28565  10.278  10.080   0.386
 8909SOL    HW128566  10.296  10.008   0.326
 8909SOL    HW228567  10.234  10.040   0.460
 8910SOL     OW28568   0.838  10.712   9.169
 8910SOL    HW128569   0.849  10.800   9.132
 8910SOL    HW228570   0.840  10.654   9.092
 8911SOL     OW28571   5.133   2.894   2.147
 8911SOL    HW128572   5.102   2.816   2.193
 8911SOL    HW228573   5.055   2.951   2.142
 8912SOL     OW28574   7.095   0.087  13.288
 8912SOL    HW128575   7.005   0.086  13.320
 8912SOL    HW228576   7.091   0.046  13.201
 8913SOL     OW28577   1.942   4.710   8.268
 8913SOL    HW128578   1.985   4.788   8.305
 8913SOL    HW228579   1.998   4.638   8.296
 8914SOL     OW28580   5.786  12.819  14.558
 8914SOL    HW128581   5.718  12.887  14.555
 8914SOL    HW228582   5.825  12.820  14.471
 8915SOL     OW28583   5.658   5.215  10.092
 8915SOL    HW128584   5.599   5.177  10.027
 8915SOL    HW228585   5.745   5.184  10.066
 8916SOL     OW28586   1.775  10.702  12.487
 8916SOL    HW128587   1.860  10.685  12.447
 8916SOL    HW228588   1.749  10.788  12.454
 8917SOL     OW28589   7.089   9.648   6.367
 8917SOL    HW128590   7.015   9.709   6.365
 8917SOL    HW228591   7.154   9.691   6.422
 8918SOL     OW28592   5.486   3.796  13.203
 8918SOL    HW128593   5.547   3.793  13.130
 8918SOL    HW228594   5.537   3.766  13.278
 8919SOL     OW28595   5.046   4.991   7.521
 8919SOL    HW128596   4.993   5.056   7.475
 8919SOL    HW228597   5.130   5.035   7.534
 8920SOL     OW28598  14.261  13.157  12.612
 8920SOL    HW128599  14.339  13.131  12.660
 8920SOL    HW228600  14.204  13.080  12.615
 8921SOL     OW28601   5.291   3.064   6.320
 8921SOL    HW128602   5.382   3.092   6.335
 8921SOL    HW228603   5.289   3.037   6.229
 8922SOL     OW28604   6.667   3.776  11.098
 8922SOL    HW128605   6.642   3.722  11.023
 8922SOL    HW228606   6.715   3.717  11.156
 8923SOL     OW28607   8.537   0.837  11.069
 8923SOL    HW128608   8.480   0.824  10.993
 8923SOL    HW228609   8.486   0.802  11.142
 8924SOL     OW28610  12.872  10.093   0.961
 8924SOL    HW128611  12.885  10.167   0.903
 8924SOL    HW228612  12.950  10.091   1.017
 8925SOL     OW28613   1.604   0.122  13.382
 8925SOL    HW128614   1.608   0.215  13.357
 8925SOL    HW228615   1.520   0.113  13.427
 8926SOL     OW28616   9.446   3.422   6.958
 8926SOL    HW128617   9.415   3.358   6.892
 8926SOL    HW228618   9.394   3.500   6.941
 8927SOL     OW28619   1.664   8.196   3.519
 8927SOL    HW128620   1.572   8.209   3.540
 8927SOL    HW228621   1.684   8.263   3.454
 8928SOL     OW28622   8.476  14.051   8.360
 8928SOL    HW128623   8.414  14.061   8.288
 8928SOL    HW228624   8.495  14.141   8.388
 8929SOL     OW28625   6.615   9.484   8.914
 8929SOL    HW128626   6.638   9.577   8.909
 8929SOL    HW228627   6.624   9.462   9.007
 8930SOL     OW28628   1.542   7.853   5.005
 8930SOL    HW128629   1.495   7.925   5.049
 8930SOL    HW228630   1.577   7.800   5.077
 8931SOL     OW28631   5.079   8.771  10.656
 8931SOL    HW128632   5.065   8.770  10.750
 8931SOL    HW228633   5.131   8.850  10.640
 8932SOL     OW28634   1.624   3.544   3.757
 8932SOL    HW128635   1.575   3.589   3.826
 8932SOL    HW228636   1.626   3.452   3.786
 8933SOL     OW28637   4.025  13.740   4.865
 8933SOL    HW128638   4.079  13.741   4.785
 8933SOL    HW228639   4.024  13.649   4.892
 8934SOL     OW28640   0.288   8.592   0.798
 8934SOL    HW128641   0.368   8.606   0.749
 8934SOL    HW228642   0.312   8.606   0.890
 8935SOL     OW28643   4.378  14.510   5.276
 8935SOL    HW128644   4.453  14.563   5.302
 8935SOL    HW228645   4.302  14.567   5.289
 8936SOL     OW28646   2.610   9.037   8.612
 8936SOL    HW128647   2.650   8.994   8.536
 8936SOL    HW228648   2.526   9.070   8.580
 8937SOL     OW28649   8.726   5.688   3.807
 8937SOL    HW128650   8.718   5.623   3.738
 8937SOL    HW228651   8.656   5.751   3.789
 8938SOL     OW28652   7.006   5.023  11.014
 8938SOL    HW128653   7.028   5.060  10.929
 8938SOL    HW228654   7.016   5.096  11.076
 8939SOL     OW28655  12.313  13.685  14.389
 8939SOL    HW128656  12.384  13.747  14.404
 8939SOL    HW228657  12.328  13.651  14.301
 8940SOL     OW28658  10.438   4.603   5.633
 8940SOL    HW128659  10.372   4.659   5.675
 8940SOL    HW228660  10.519   4.652   5.641
 8941SOL     OW28661   8.502   5.353   9.318
 8941SOL    HW128662   8.585   5.378   9.359
 8941SOL    HW228663   8.497   5.258   9.332
 8942SOL     OW28664   1.376   0.636   9.165
 8942SOL    HW128665   1.444   0.601   9.222
 8942SOL    HW228666   1.388   0.731   9.167
 8943SOL     OW28667   8.064   5.150   3.768
 8943SOL    HW128668   8.098   5.159   3.857
 8943SOL    HW228669   8.007   5.226   3.756
 8944SOL     OW28670  14.476   6.781   2.460
 8944SOL    HW128671  14.434   6.867   2.467
 8944SOL    HW228672  14.545   6.793   2.395
 8945SOL     OW28673  12.364   4.528  12.796
 8945SOL    HW128674  12.309   4.590  12.843
 8945SOL    HW228675  12.424   4.494  12.862
 8946SOL     OW28676  10.981   2.258   2.209
 8946SOL    HW128677  10.915   2.293   2.149
 8946SOL    HW228678  11.065   2.275   2.166
 8947SOL     OW28679   2.262   6.088  14.273
 8947SOL    HW128680   2.176   6.128  14.286
 8947SOL    HW228681   2.290   6.061  14.361
 8948SOL     OW28682  10.085   6.073   1.040
 8948SOL    HW128683  10.128   6.152   1.072
 8948SOL    HW228684  10.141   6.043   0.968
 8949SOL     OW28685   0.635  11.166   6.659
 8949SOL    HW128686   0.573  11.144   6.730
 8949SOL    HW228687   0.718  11.126   6.687
 8950SOL     OW28688   8.900   3.930   5.659
 8950SOL    HW128689   8.848   3.888   5.590
 8950SOL    HW228690   8.924   3.858   5.718
 8951SOL     OW28691   1.675  12.488   4.857
 8951SOL    HW128692   1.743  12.427   4.884
 8951SOL    HW228693   1.719  12.573   4.852
 8952SOL     OW28694  14.840   1.634   1.701
 8952SOL    HW128695  14.852   1.686   1.621
 8952SOL    HW228696  14.802   1.696   1.764
 8953SOL     OW28697   1.331   0.782   1.452
 8953SOL    HW128698   1.243   0.744   1.453
 8953SOL    HW228699   1.385   0.715   1.409
 8954SOL     OW28700   2.613   5.961   8.636
 8954SOL    HW128701   2.577   5.920   8.556
 8954SOL    HW228702   2.707   5.944   8.631
 8955SOL     OW28703   9.008  11.907   4.880
 8955SOL    HW128704   8.931  11.941   4.927
 8955SOL    HW228705   9.005  11.953   4.796
 8956SOL     OW28706  14.699   7.092   3.175
 8956SOL    HW128707  14.770   7.144   3.211
 8956SOL    HW228708  14.619   7.140   3.198
 8957SOL     OW28709   8.892   2.005  14.852
 8957SOL    HW128710   8.802   2.038  14.844
 8957SOL    HW228711   8.915   2.018   0.070
 8958SOL     OW28712  13.769   9.145  12.904
 8958SOL    HW128713  13.774   9.052  12.927
 8958SOL    HW228714  13.809   9.190  12.979
 8959SOL     OW28715   8.998   5.966  13.638
 8959SOL    HW128716   9.087   5.975  13.603
 8959SOL    HW228717   8.956   5.901  13.582
 8960SOL     OW28718   1.608  13.370   0.208
 8960SOL    HW128719   1.521  13.337   0.230
 8960SOL    HW228720   1.643  13.307   0.144
 8961SOL     OW28721   9.666   1.586   7.539
 8961SOL    HW128722   9.731   1.641   7.494
 8961SOL    HW228723   9.681   1.602   7.632
 8962SOL     OW28724  14.197   0.207   9.254
 8962SOL    HW128725  14.287   0.233   9.275
 8962SOL    HW228726  14.205   0.158   9.172
 8963SOL     OW28727   1.271   9.611   9.150
 8963SOL    HW128728   1.353   9.568   9.126
 8963SOL    HW228729   1.288   9.704   9.140
 8964SOL     OW28730  10.724   8.529   3.623
 8964SOL    HW128731  10.701   8.595   3.557
 8964SOL    HW228732  10.803   8.562   3.664
 8965SOL     OW28733   9.793   8.233   1.044
 8965SOL    HW128734   9.879   8.261   1.076
 8965SOL    HW228735   9.779   8.147   1.084
 8966SOL     OW28736   5.302   6.381   4.192
 8966SOL    HW128737   5.217   6.411   4.159
 8966SOL    HW228738   5.353   6.361   4.114
 8967SOL     OW28739   2.159   8.130   2.524
 8967SOL    HW128740   2.186   8.110   2.614
 8967SOL    HW228741   2.239   8.158   2.480
 8968SOL     OW28742  14.620   0.358   5.306
 8968SOL    HW128743  14.697   0.377   5.360
 8968SOL    HW228744  14.657   0.323   5.224
 8969SOL     OW28745   3.277   0.423   2.982
 8969SOL    HW128746   3.200   0.409   3.036
 8969SOL    HW228747   3.264   0.366   2.906
 8970SOL     OW28748   7.828  12.713  11.997
 8970SOL    HW128749   7.747  12.680  11.958
 8970SOL    HW228750   7.826  12.683  12.087
 8971SOL     OW28751  13.013   8.736   1.719
 8971SOL    HW128752  12.946   8.668   1.727
 8971SOL    HW228753  13.011   8.780   1.804
 8972SOL     OW28754   7.045  13.259  10.061
 8972SOL    HW128755   7.051  13.354  10.047
 8972SOL    HW228756   6.988  13.228   9.991
 8973SOL     OW28757   8.009   5.425   4.577
 8973SOL    HW128758   8.078   5.358   4.579
 8973SOL    HW228759   7.937   5.387   4.627
 8974SOL     OW28760   4.115  10.924   1.461
 8974SOL    HW128761   4.043  10.898   1.404
 8974SOL    HW228762   4.133  11.015   1.438
 8975SOL     OW28763   4.089   8.531   2.050
 8975SOL    HW128764   4.090   8.578   2.133
 8975SOL    HW228765   3.999   8.540   2.018
 8976SOL     OW28766   1.798  10.569   5.815
 8976SOL    HW128767   1.710  10.601   5.837
 8976SOL    HW228768   1.805  10.583   5.720
 8977SOL     OW28769   3.695   8.082   0.024
 8977SOL    HW128770   3.680   8.176   0.034
 8977SOL    HW228771   3.743   8.075  14.815
 8978SOL     OW28772   5.671   2.715  14.078
 8978SOL    HW128773   5.755   2.672  14.092
 8978SOL    HW228774   5.691   2.787  14.017
 8979SOL     OW28775  11.566   1.434  13.051
 8979SOL    HW128776  11.521   1.437  13.136
 8979SOL    HW228777  11.579   1.341  13.034
 8980SOL     OW28778   6.831   0.646   9.210
 8980SOL    HW128779   6.740   0.667   9.190
 8980SOL    HW228780   6.875   0.731   9.214
 8981SOL     OW28781   1.513   1.379   8.659
 8981SOL    HW128782   1.563   1.373   8.577
 8981SOL    HW228783   1.455   1.454   8.646
 8982SOL     OW28784   3.986  14.174  14.525
 8982SOL    HW128785   4.001  14.083  14.499
 8982SOL    HW228786   4.055  14.223  14.482
 8983SOL     OW28787   2.779   7.922  11.951
 8983SOL    HW128788   2.702   7.977  11.965
 8983SOL    HW228789   2.752   7.834  11.975
 8984SOL     OW28790   8.651  13.982   3.195
 8984SOL    HW128791   8.569  13.935   3.178
 8984SOL    HW228792   8.665  14.035   3.116
 8985SOL     OW28793   1.920   6.155   7.215
 8985SOL    HW128794   1.939   6.243   7.247
 8985SOL    HW228795   1.864   6.115   7.281
 8986SOL     OW28796   7.612   4.109  12.616
 8986SOL    HW128797   7.646   4.176  12.675
 8986SOL    HW228798   7.550   4.059  12.670
 8987SOL     OW28799   2.793  10.241  13.020
 8987SOL    HW128800   2.782  10.256  12.926
 8987SOL    HW228801   2.821  10.150  13.026
 8988SOL     OW28802  12.726  12.440  11.485
 8988SOL    HW128803  12.644  12.391  11.486
 8988SOL    HW228804  12.741  12.460  11.393
 8989SOL     OW28805   4.557  13.203  14.099
 8989SOL    HW128806   4.551  13.297  14.119
 8989SOL    HW228807   4.482  13.186  14.043
 8990SOL     OW28808   7.647   6.923  13.513
 8990SOL    HW128809   7.671   6.926  13.420
 8990SOL    HW228810   7.580   6.991  13.522
 8991SOL     OW28811   1.145   2.673   7.723
 8991SOL    HW128812   1.221   2.712   7.766
 8991SOL    HW228813   1.070   2.708   7.770
 8992SOL     OW28814   2.680   1.165  10.974
 8992SOL    HW128815   2.727   1.132  11.050
 8992SOL    HW228816   2.598   1.116  10.972
 8993SOL     OW28817   0.528  10.302   4.883
 8993SOL    HW128818   0.436  10.274   4.880
 8993SOL    HW228819   0.551  10.298   4.975
 8994SOL     OW28820   5.626   3.935   6.666
 8994SOL    HW128821   5.669   3.863   6.619
 8994SOL    HW228822   5.649   3.920   6.758
 8995SOL     OW28823   4.794  14.626   1.500
 8995SOL    HW128824   4.795  14.699   1.438
 8995SOL    HW228825   4.747  14.660   1.576
 8996SOL     OW28826  13.620   1.422   3.431
 8996SOL    HW128827  13.683   1.488   3.459
 8996SOL    HW228828  13.543   1.472   3.402
 8997SOL     OW28829  12.492   3.695   5.914
 8997SOL    HW128830  12.525   3.651   5.992
 8997SOL    HW228831  12.568   3.739   5.877
 8998SOL     OW28832   7.423   9.023   6.789
 8998SOL    HW128833   7.346   8.988   6.743
 8998SOL    HW228834   7.415   9.118   6.780
 8999SOL     OW28835   8.847   7.127  13.877
 8999SOL    HW128836   8.782   7.072  13.833
 8999SOL    HW228837   8.905   7.065  13.920
 9000SOL     OW28838  12.514   1.598   1.266
 9000SOL    HW128839  12.480   1.513   1.240
 9000SOL    HW228840  12.489   1.608   1.358
 9001SOL     OW28841   1.628   0.773   8.884
 9001SOL    HW128842   1.538   0.786   8.912
 9001SOL    HW228843   1.680   0.828   8.942
 9002SOL     OW28844  10.821   1.734   2.798
 9002SOL    HW128845  10.731   1.702   2.811
 9002SOL    HW228846  10.832   1.737   2.703
 9003SOL     OW28847  13.716  11.356   9.292
 9003SOL    HW128848  13.667  11.366   9.210
 9003SOL    HW228849  13.732  11.262   9.299
 9004SOL     OW28850   9.479   6.775   5.254
 9004SOL    HW128851   9.546   6.784   5.186
 9004SOL    HW228852   9.411   6.837   5.228
 9005SOL     OW28853   7.541  10.173   6.660
 9005SOL    HW128854   7.631  10.206   6.651
 9005SOL    HW228855   7.487  10.252   6.658
 9006SOL     OW28856  12.377   7.099   7.798
 9006SOL    HW128857  12.384   7.008   7.769
 9006SOL    HW228858  12.361   7.092   7.893
 9007SOL     OW28859   4.785  11.761   0.567
 9007SOL    HW128860   4.705  11.757   0.514
 9007SOL    HW228861   4.771  11.836   0.624
 9008SOL     OW28862  11.316   2.698   5.510
 9008SOL    HW128863  11.276   2.766   5.565
 9008SOL    HW228864  11.403   2.732   5.490
 9009SOL     OW28865  14.553   6.727  14.481
 9009SOL    HW128866  14.545   6.821  14.497
 9009SOL    HW228867  14.642   6.706  14.510
 9010SOL     OW28868  11.480   9.918   6.696
 9010SOL    HW128869  11.482   9.859   6.771
 9010SOL    HW228870  11.388   9.920   6.669
 9011SOL     OW28871  12.943   9.975   7.246
 9011SOL    HW128872  12.961   9.987   7.339
 9011SOL    HW228873  12.874   9.909   7.244
 9012SOL     OW28874   6.321   5.013   4.668
 9012SOL    HW128875   6.339   5.090   4.615
 9012SOL    HW228876   6.391   5.011   4.733
 9013SOL     OW28877  13.968   8.396   2.316
 9013SOL    HW128878  13.880   8.374   2.347
 9013SOL    HW228879  13.975   8.355   2.230
 9014SOL     OW28880   8.052   0.008   9.770
 9014SOL    HW128881   8.078   0.087   9.723
 9014SOL    HW228882   7.956   0.011   9.770
 9015SOL     OW28883   1.577  13.697  13.764
 9015SOL    HW128884   1.633  13.643  13.820
 9015SOL    HW228885   1.488  13.667  13.783
 9016SOL     OW28886   3.135  11.299  11.875
 9016SOL    HW128887   3.183  11.219  11.895
 9016SOL    HW228888   3.121  11.296  11.781
 9017SOL     OW28889  13.005  11.331  10.471
 9017SOL    HW128890  13.003  11.426  10.484
 9017SOL    HW228891  12.939  11.298  10.532
 9018SOL     OW28892   0.047   2.878   6.956
 9018SOL    HW128893  14.850   2.927   6.913
 9018SOL    HW228894   0.092   2.834   6.885
 9019SOL     OW28895   5.076   8.747   7.877
 9019SOL    HW128896   5.027   8.666   7.863
 9019SOL    HW228897   5.139   8.750   7.806
 9020SOL     OW28898   5.275  13.086   6.818
 9020SOL    HW128899   5.241  13.014   6.765
 9020SOL    HW228900   5.312  13.044   6.895
 9021SOL     OW28901   7.306  14.208  11.490
 9021SOL    HW128902   7.295  14.114  11.506
 9021SOL    HW228903   7.261  14.250  11.564
 9022SOL     OW28904  14.067  10.457   1.859
 9022SOL    HW128905  14.071  10.392   1.788
 9022SOL    HW228906  14.010  10.526   1.825
 9023SOL     OW28907  13.950   6.161   4.262
 9023SOL    HW128908  13.990   6.245   4.237
 9023SOL    HW228909  13.926   6.121   4.178
 9024SOL     OW28910   4.909   2.882  12.562
 9024SOL    HW128911   4.889   2.797  12.602
 9024SOL    HW228912   4.825   2.927  12.556
 9025SOL     OW28913   7.476   7.220  13.054
 9025SOL    HW128914   7.383   7.199  13.052
 9025SOL    HW228915   7.515   7.165  12.986
 9026SOL     OW28916   3.232   3.984   3.087
 9026SOL    HW128917   3.246   3.915   3.152
 9026SOL    HW228918   3.246   3.940   3.003
 9027SOL     OW28919   3.329   0.781   2.829
 9027SOL    HW128920   3.323   0.876   2.845
 9027SOL    HW228921   3.269   0.766   2.756
 9028SOL     OW28922   0.057  14.546   7.783
 9028SOL    HW128923   0.134  14.497   7.814
 9028SOL    HW228924  14.868  14.541   7.856
 9029SOL     OW28925   4.551   5.244   8.064
 9029SOL    HW128926   4.519   5.251   8.154
 9029SOL    HW228927   4.596   5.327   8.049
 9030SOL     OW28928   7.323   3.603   9.904
 9030SOL    HW128929   7.320   3.641   9.816
 9030SOL    HW228930   7.383   3.529   9.896
 9031SOL     OW28931   9.412   2.141  12.641
 9031SOL    HW128932   9.481   2.076  12.659
 9031SOL    HW228933   9.334   2.088  12.626
 9032SOL     OW28934  11.155  14.529   9.174
 9032SOL    HW128935  11.218  14.574   9.117
 9032SOL    HW228936  11.080  14.588   9.177
 9033SOL     OW28937  10.414   7.516   1.940
 9033SOL    HW128938  10.415   7.511   1.844
 9033SOL    HW228939  10.497   7.477   1.967
 9034SOL     OW28940   3.446  13.440  10.095
 9034SOL    HW128941   3.541  13.424  10.096
 9034SOL    HW228942   3.437  13.531  10.121
 9035SOL     OW28943   9.347  13.923  11.112
 9035SOL    HW128944   9.381  13.874  11.187
 9035SOL    HW228945   9.275  13.869  11.079
 9036SOL     OW28946   8.678   2.618   5.808
 9036SOL    HW128947   8.760   2.569   5.798
 9036SOL    HW228948   8.622   2.585   5.737
 9037SOL     OW28949   0.578   0.046   7.028
 9037SOL    HW128950   0.546   0.132   7.003
 9037SOL    HW228951   0.667   0.043   6.992
 9038SOL     OW28952   5.511   1.870   4.593
 9038SOL    HW128953   5.480   1.960   4.600
 9038SOL    HW228954   5.568   1.858   4.668
 9039SOL     OW28955   7.917   1.446   1.269
 9039SOL    HW128956   7.917   1.356   1.236
 9039SOL    HW228957   7.918   1.437   1.364
 9040SOL     OW28958   8.674   8.357   8.879
 9040SOL    HW128959   8.625   8.284   8.916
 9040SOL    HW228960   8.763   8.324   8.869
 9041SOL     OW28961  11.917   5.349   4.990
 9041SOL    HW128962  11.956   5.423   5.038
 9041SOL    HW228963  11.958   5.354   4.903
 9042SOL     OW28964   6.605  14.428   7.196
 9042SOL    HW128965   6.666  14.422   7.270
 9042SOL    HW228966   6.547  14.500   7.220
 9043SOL     OW28967  14.790   3.203  14.134
 9043SOL    HW128968   0.002   3.160  14.128
 9043SOL    HW228969  14.768   3.200  14.227
 9044SOL     OW28970   0.956   1.132   2.664
 9044SOL    HW128971   0.874   1.174   2.688
 9044SOL    HW228972   1.011   1.137   2.742
 9045SOL     OW28973  12.858  10.049   4.310
 9045SOL    HW128974  12.834  10.086   4.395
 9045SOL    HW228975  12.921   9.980   4.331
 9046SOL     OW28976   1.867  11.754  13.403
 9046SOL    HW128977   1.786  11.706  13.417
 9046SOL    HW228978   1.867  11.821  13.472
 9047SOL     OW28979   2.180   9.995  14.311
 9047SOL    HW128980   2.196  10.088  14.328
 9047SOL    HW228981   2.186   9.953  14.397
 9048SOL     OW28982   8.078  11.387   8.418
 9048SOL    HW128983   8.030  11.465   8.391
 9048SOL    HW228984   8.127  11.360   8.340
 9049SOL     OW28985   6.089   3.594   6.843
 9049SOL    HW128986   6.164   3.553   6.801
 9049SOL    HW228987   6.128   3.660   6.902
 9050SOL     OW28988   2.126  14.539  12.550
 9050SOL    HW128989   2.185  14.475  12.589
 9050SOL    HW228990   2.048  14.488  12.527
 9051SOL     OW28991  13.883   4.278   3.457
 9051SOL    HW128992  13.846   4.348   3.510
 9051SOL    HW228993  13.808   4.244   3.407
 9052SOL     OW28994  14.474   7.485   1.695
 9052SOL    HW128995  14.454   7.455   1.606
 9052SOL    HW228996  14.400   7.455   1.748
 9053SOL     OW28997  12.078   4.845   5.903
 9053SOL    HW128998  12.046   4.801   5.982
 9053SOL    HW228999  12.172   4.852   5.916
 9054SOL     OW29000   7.478   6.207  12.377
 9054SOL    HW129001   7.553   6.247  12.332
 9054SOL    HW229002   7.505   6.116  12.392
 9055SOL     OW29003  12.126   4.832   8.580
 9055SOL    HW129004  12.094   4.742   8.571
 9055SOL    HW229005  12.072   4.883   8.520
 9056SOL     OW29006   7.563  14.727   9.958
 9056SOL    HW129007   7.602  14.641   9.942
 9056SOL    HW229008   7.595  14.752  10.045
 9057SOL     OW29009  11.616  12.828   0.917
 9057SOL    HW129010  11.694  12.854   0.867
 9057SOL    HW229011  11.571  12.910   0.936
 9058SOL     OW29012  10.057   4.244   0.348
 9058SOL    HW129013   9.975   4.266   0.392
 9058SOL    HW229014  10.119   4.230   0.420
 9059SOL     OW29015   5.067  12.544  12.473
 9059SOL    HW129016   5.010  12.559  12.398
 9059SOL    HW229017   5.153  12.575  12.445
 9060SOL     OW29018   4.367   3.884   0.934
 9060SOL    HW129019   4.399   3.971   0.910
 9060SOL    HW229020   4.278   3.899   0.966
 9061SOL     OW29021   6.204   8.795   3.599
 9061SOL    HW129022   6.215   8.725   3.664
 9061SOL    HW229023   6.130   8.847   3.633
 9062SOL     OW29024   9.505   1.085   9.678
 9062SOL    HW129025   9.416   1.081   9.713
 9062SOL    HW229026   9.547   1.157   9.725
 9063SOL     OW29027   6.975   0.537  12.411
 9063SOL    HW129028   6.925   0.540  12.493
 9063SOL    HW229029   7.039   0.607  12.421
 9064SOL     OW29030  10.330   3.847   3.143
 9064SOL    HW129031  10.318   3.934   3.104
 9064SOL    HW229032  10.395   3.860   3.212
 9065SOL     OW29033   8.129   0.494   1.424
 9065SOL    HW129034   8.206   0.547   1.442
 9065SOL    HW229035   8.092   0.475   1.510
 9066SOL     OW29036   2.476   1.363  10.160
 9066SOL    HW129037   2.444   1.339  10.246
 9066SOL    HW229038   2.549   1.302  10.144
 9067SOL     OW29039   4.317   9.303   7.072
 9067SOL    HW129040   4.240   9.247   7.084
 9067SOL    HW229041   4.384   9.245   7.036
 9068SOL     OW29042   1.962  10.358  10.073
 9068SOL    HW129043   2.028  10.310  10.023
 9068SOL    HW229044   1.905  10.290  10.109
 9069SOL     OW29045   9.158   0.444  14.455
 9069SOL    HW129046   9.148   0.438  14.550
 9069SOL    HW229047   9.244   0.406  14.438
 9070SOL     OW29048  10.008  12.880   1.940
 9070SOL    HW129049  10.023  12.904   2.031
 9070SOL    HW229050   9.921  12.914   1.921
 9071SOL     OW29051   6.834  11.662   1.055
 9071SOL    HW129052   6.883  11.728   1.103
 9071SOL    HW229053   6.742  11.687   1.067
 9072SOL     OW29054   7.775   3.744   0.543
 9072SOL    HW129055   7.767   3.727   0.637
 9072SOL    HW229056   7.766   3.839   0.535
 9073SOL     OW29057  12.032   6.894   0.623
 9073SOL    HW129058  12.062   6.980   0.593
 9073SOL    HW229059  11.937   6.896   0.611
 9074SOL     OW29060   9.895   6.666   8.867
 9074SOL    HW129061   9.854   6.707   8.791
 9074SOL    HW229062   9.944   6.736   8.909
 9075SOL     OW29063  14.549  14.446   6.247
 9075SOL    HW129064  14.500  14.477   6.324
 9075SOL    HW229065  14.483  14.401   6.194
 9076SOL     OW29066  11.334  11.439   2.680
 9076SOL    HW129067  11.260  11.379   2.682
 9076SOL    HW229068  11.401  11.397   2.734
 9077SOL     OW29069   3.331   6.252   3.335
 9077SOL    HW129070   3.306   6.245   3.427
 9077SOL    HW229071   3.364   6.341   3.326
 9078SOL     OW29072   9.192  11.802   6.019
 9078SOL    HW129073   9.265  11.858   6.047
 9078SOL    HW229074   9.216  11.714   6.049
 9079SOL     OW29075   2.787   4.868   3.820
 9079SOL    HW129076   2.867   4.859   3.769
 9079SOL    HW229077   2.718   4.831   3.765
 9080SOL     OW29078   0.329   0.648   3.428
 9080SOL    HW129079   0.253   0.652   3.369
 9080SOL    HW229080   0.404   0.657   3.370
 9081SOL     OW29081  12.840  10.512   2.158
 9081SOL    HW129082  12.885  10.472   2.233
 9081SOL    HW229083  12.792  10.585   2.196
 9082SOL     OW29084  13.424  14.524   7.279
 9082SOL    HW129085  13.476  14.471   7.340
 9082SOL    HW229086  13.429  14.477   7.196
 9083SOL     OW29087   9.971  12.454   8.354
 9083SOL    HW129088   9.993  12.364   8.331
 9083SOL    HW229089   9.925  12.488   8.277
 9084SOL     OW29090  10.352  13.535   6.314
 9084SOL    HW129091  10.425  13.524   6.375
 9084SOL    HW229092  10.339  13.630   6.309
 9085SOL     OW29093  13.683   3.242   6.164
 9085SOL    HW129094  13.597   3.274   6.193
 9085SOL    HW229095  13.705   3.173   6.226
 9086SOL     OW29096  10.016   7.120   4.967
 9086SOL    HW129097  10.046   7.139   4.878
 9086SOL    HW229098  10.054   7.189   5.021
 9087SOL     OW29099  11.803   4.114   6.014
 9087SOL    HW129100  11.863   4.180   5.978
 9087SOL    HW229101  11.848   4.081   6.092
 9088SOL     OW29102   7.364  14.060   6.899
 9088SOL    HW129103   7.271  14.039   6.891
 9088SOL    HW229104   7.409  13.987   6.858
 9089SOL     OW29105   7.153   2.345   0.859
 9089SOL    HW129106   7.243   2.334   0.890
 9089SOL    HW229107   7.140   2.275   0.796
 9090SOL     OW29108   5.988   8.899   3.015
 9090SOL    HW129109   5.982   8.863   3.103
 9090SOL    HW229110   5.922   8.852   2.965
 9091SOL     OW29111   2.078  14.739   6.157
 9091SOL    HW129112   2.107  14.668   6.099
 9091SOL    HW229113   2.046  14.807   6.097
 9092SOL     OW29114   4.040   4.958   4.231
 9092SOL    HW129115   4.041   5.049   4.202
 9092SOL    HW229116   3.953   4.945   4.269
 9093SOL     OW29117   8.952   1.306   4.412
 9093SOL    HW129118   8.903   1.269   4.485
 9093SOL    HW229119   9.042   1.275   4.425
 9094SOL     OW29120  11.853  14.403   3.358
 9094SOL    HW129121  11.858  14.318   3.400
 9094SOL    HW229122  11.865  14.466   3.429
 9095SOL     OW29123   5.968  14.078  12.970
 9095SOL    HW129124   5.969  14.172  12.952
 9095SOL    HW229125   5.912  14.070  13.048
 9096SOL     OW29126   6.372  14.263   1.733
 9096SOL    HW129127   6.454  14.312   1.733
 9096SOL    HW229128   6.316  14.310   1.795
 9097SOL     OW29129   1.222  12.440  13.414
 9097SOL    HW129130   1.230  12.387  13.334
 9097SOL    HW229131   1.252  12.383  13.484
 9098SOL     OW29132   8.742  14.275   9.866
 9098SOL    HW129133   8.747  14.233   9.781
 9098SOL    HW229134   8.656  14.250   9.900
 9099SOL     OW29135  13.604   2.770  14.860
 9099SOL    HW129136  13.610   2.693  14.803
 9099SOL    HW229137  13.633   2.739   0.072
 9100SOL     OW29138   6.803   5.460   7.092
 9100SOL    HW129139   6.765   5.435   7.007
 9100SOL    HW229140   6.727   5.483   7.145
 9101SOL     OW29141  13.560  12.258   8.038
 9101SOL    HW129142  13.546  12.339   8.087
 9101SOL    HW229143  13.520  12.276   7.952
 9102SOL     OW29144   8.584  13.097   9.949
 9102SOL    HW129145   8.656  13.040   9.924
 9102SOL    HW229146   8.557  13.139   9.867
 9103SOL     OW29147   8.986  14.264   2.578
 9103SOL    HW129148   8.924  14.275   2.651
 9103SOL    HW229149   9.059  14.322   2.601
 9104SOL     OW29150   5.303   7.590   6.408
 9104SOL    HW129151   5.258   7.505   6.402
 9104SOL    HW229152   5.337   7.606   6.321
 9105SOL     OW29153  14.060  10.355   5.715
 9105SOL    HW129154  14.091  10.273   5.754
 9105SOL    HW229155  13.968  10.339   5.697
 9106SOL     OW29156   6.689  14.711   1.174
 9106SOL    HW129157   6.658  14.627   1.140
 9106SOL    HW229158   6.704  14.695   1.267
 9107SOL     OW29159   5.817   0.200  11.129
 9107SOL    HW129160   5.827   0.295  11.141
 9107SOL    HW229161   5.846   0.184  11.040
 9108SOL     OW29162   2.141   6.200  11.872
 9108SOL    HW129163   2.146   6.294  11.884
 9108SOL    HW229164   2.049   6.179  11.885
 9109SOL     OW29165  14.518   1.903   9.499
 9109SOL    HW129166  14.502   1.991   9.532
 9109SOL    HW229167  14.448   1.887   9.436
 9110SOL     OW29168  10.300  14.857   8.822
 9110SOL    HW129169  10.267   0.073   8.836
 9110SOL    HW229170  10.269  14.834   8.735
 9111SOL     OW29171   5.618   1.292   7.661
 9111SOL    HW129172   5.581   1.314   7.747
 9111SOL    HW229173   5.706   1.260   7.681
 9112SOL     OW29174   4.867  10.357   9.187
 9112SOL    HW129175   4.921  10.377   9.110
 9112SOL    HW229176   4.902  10.274   9.219
 9113SOL     OW29177  11.576   8.439   6.413
 9113SOL    HW129178  11.622   8.453   6.330
 9113SOL    HW229179  11.507   8.375   6.392
 9114SOL     OW29180   2.733  11.489   9.440
 9114SOL    HW129181   2.781  11.442   9.509
 9114SOL    HW229182   2.801  11.522   9.382
 9115SOL     OW29183  10.057  10.532   4.411
 9115SOL    HW129184   9.985  10.576   4.366
 9115SOL    HW229185  10.014  10.477   4.476
 9116SOL     OW29186   3.694  14.677  11.440
 9116SOL    HW129187   3.737  14.620  11.377
 9116SOL    HW229188   3.600  14.661  11.426
 9117SOL     OW29189   5.245   6.984  14.015
 9117SOL    HW129190   5.249   7.030  13.931
 9117SOL    HW229191   5.322   6.928  14.016
 9118SOL     OW29192   0.887   5.920   2.218
 9118SOL    HW129193   0.910   5.909   2.310
 9118SOL    HW229194   0.796   5.948   2.219
 9119SOL     OW29195  12.792  11.255  10.638
 9119SOL    HW129196  12.715  11.209  10.606
 9119SOL    HW229197  12.792  11.241  10.733
 9120SOL     OW29198  10.563   9.862   5.568
 9120SOL    HW129199  10.570   9.865   5.472
 9120SOL    HW229200  10.577   9.953   5.596
 9121SOL     OW29201  10.956  14.596  13.327
 9121SOL    HW129202  10.935  14.608  13.420
 9121SOL    HW229203  10.890  14.534  13.295
 9122SOL     OW29204   3.443   6.552   7.156
 9122SOL    HW129205   3.526   6.505   7.165
 9122SOL    HW229206   3.412   6.563   7.246
 9123SOL     OW29207  10.523   2.064   8.606
 9123SOL    HW129208  10.549   2.062   8.514
 9123SOL    HW229209  10.582   2.127   8.647
 9124SOL     OW29210   9.997  12.185   9.712
 9124SOL    HW129211   9.997  12.145   9.799
 9124SOL    HW229212  10.084  12.223   9.703
 9125SOL     OW29213  11.649   7.112   6.498
 9125SOL    HW129214  11.613   7.088   6.413
 9125SOL    HW229215  11.611   7.198   6.517
 9126SOL     OW29216   0.595   1.730   3.088
 9126SOL    HW129217   0.588   1.772   3.002
 9126SOL    HW229218   0.547   1.648   3.079
 9127SOL     OW29219  12.304   0.829  10.894
 9127SOL    HW129220  12.224   0.777  10.883
 9127SOL    HW229221  12.370   0.782  10.844
 9128SOL     OW29222  11.006   3.780  10.410
 9128SOL    HW129223  11.004   3.685  10.405
 9128SOL    HW229224  11.012   3.799  10.504
 9129SOL     OW29225   8.953   4.992  13.871
 9129SOL    HW129226   8.871   5.033  13.897
 9129SOL    HW229227   8.937   4.898  13.883
 9130SOL     OW29228   7.043   5.823   1.268
 9130SOL    HW129229   7.069   5.781   1.186
 9130SOL    HW229230   6.970   5.880   1.244
 9131SOL     OW29231   9.843   9.686   8.754
 9131SOL    HW129232   9.870   9.608   8.803
 9131SOL    HW229233   9.785   9.732   8.814
 9132SOL     OW29234   6.662  14.757  14.289
 9132SOL    HW129235   6.696  14.676  14.327
 9132SOL    HW229236   6.739  14.801  14.253
 9133SOL     OW29237  14.758   1.437   1.368
 9133SOL    HW129238  14.755   1.516   1.314
 9133SOL    HW229239  14.724   1.465   1.453
 9134SOL     OW29240   7.998   3.133   4.335
 9134SOL    HW129241   8.013   3.221   4.302
 9134SOL    HW229242   8.046   3.130   4.417
 9135SOL     OW29243   2.475  11.207  13.506
 9135SOL    HW129244   2.467  11.279  13.443
 9135SOL    HW229245   2.520  11.137  13.457
 9136SOL     OW29246  13.553   2.463   2.975
 9136SOL    HW129247  13.482   2.403   2.954
 9136SOL    HW229248  13.571   2.510   2.893
 9137SOL     OW29249  11.444   3.487  13.355
 9137SOL    HW129250  11.351   3.467  13.364
 9137SOL    HW229251  11.446   3.574  13.315
 9138SOL     OW29252   5.166  13.859   8.904
 9138SOL    HW129253   5.110  13.805   8.848
 9138SOL    HW229254   5.250  13.862   8.857
 9139SOL     OW29255   6.014  12.554   9.745
 9139SOL    HW129256   6.000  12.475   9.693
 9139SOL    HW229257   6.039  12.621   9.681
 9140SOL     OW29258   5.128  12.038   1.942
 9140SOL    HW129259   5.213  12.035   1.899
 9140SOL    HW229260   5.123  11.957   1.992
 9141SOL     OW29261  11.333   8.092  10.519
 9141SOL    HW129262  11.332   8.121  10.427
 9141SOL    HW229263  11.369   8.004  10.516
 9142SOL     OW29264  13.803   3.566  14.254
 9142SOL    HW129265  13.843   3.506  14.317
 9142SOL    HW229266  13.710   3.563  14.275
 9143SOL     OW29267  12.868   6.402   7.852
 9143SOL    HW129268  12.848   6.441   7.936
 9143SOL    HW229269  12.871   6.475   7.791
 9144SOL     OW29270   9.541   7.310   0.917
 9144SOL    HW129271   9.617   7.277   0.965
 9144SOL    HW229272   9.466   7.283   0.970
 9145SOL     OW29273   4.642   0.059   6.341
 9145SOL    HW129274   4.651  14.854   6.287
 9145SOL    HW229275   4.600   0.029   6.421
 9146SOL     OW29276  12.571  13.920   8.840
 9146SOL    HW129277  12.575  13.859   8.914
 9146SOL    HW229278  12.653  13.970   8.847
 9147SOL     OW29279   9.115  11.312   6.068
 9147SOL    HW129280   9.085  11.265   6.146
 9147SOL    HW229281   9.038  11.361   6.039
 9148SOL     OW29282   0.292   6.145  12.539
 9148SOL    HW129283   0.356   6.215  12.552
 9148SOL    HW229284   0.345   6.066  12.526
 9149SOL     OW29285   2.791  13.999  14.221
 9149SOL    HW129286   2.784  13.956  14.136
 9149SOL    HW229287   2.884  14.000  14.241
 9150SOL     OW29288  10.533   8.712  13.671
 9150SOL    HW129289  10.541   8.759  13.754
 9150SOL    HW229290  10.441   8.724  13.646
 9151SOL     OW29291   5.198  10.703   2.155
 9151SOL    HW129292   5.202  10.787   2.201
 9151SOL    HW229293   5.289  10.686   2.130
 9152SOL     OW29294  10.651  12.389  14.144
 9152SOL    HW129295  10.655  12.371  14.050
 9152SOL    HW229296  10.691  12.312  14.185
 9153SOL     OW29297   2.445   5.009   7.047
 9153SOL    HW129298   2.382   4.949   7.087
 9153SOL    HW229299   2.530   4.975   7.073
 9154SOL     OW29300   1.935   7.438   4.094
 9154SOL    HW129301   1.929   7.359   4.147
 9154SOL    HW229302   1.903   7.508   4.151
 9155SOL     OW29303   0.726   6.071  10.691
 9155SOL    HW129304   0.646   6.120  10.675
 9155SOL    HW229305   0.750   6.093  10.782
 9156SOL     OW29306   1.452   5.325   9.408
 9156SOL    HW129307   1.412   5.240   9.390
 9156SOL    HW229308   1.486   5.317   9.497
 9157SOL     OW29309   1.785   4.075  12.420
 9157SOL    HW129310   1.875   4.092  12.392
 9157SOL    HW229311   1.765   3.987  12.389
 9158SOL     OW29312   8.376   6.101   0.430
 9158SOL    HW129313   8.379   6.074   0.338
 9158SOL    HW229314   8.468   6.103   0.457
 9159SOL     OW29315   4.793   7.830  11.419
 9159SOL    HW129316   4.704   7.794  11.422
 9159SOL    HW229317   4.809   7.846  11.326
 9160SOL     OW29318   3.770   3.670   5.735
 9160SOL    HW129319   3.677   3.648   5.736
 9160SOL    HW229320   3.786   3.702   5.646
 9161SOL     OW29321   5.628  12.702   1.520
 9161SOL    HW129322   5.542  12.707   1.561
 9161SOL    HW229323   5.689  12.732   1.588
 9162SOL     OW29324   7.935   9.800   0.306
 9162SOL    HW129325   7.992   9.726   0.329
 9162SOL    HW229326   7.987   9.878   0.325
 9163SOL     OW29327  12.390   8.736   1.528
 9163SOL    HW129328  12.421   8.694   1.449
 9163SOL    HW229329  12.387   8.829   1.507
 9164SOL     OW29330   2.884  11.523   3.701
 9164SOL    HW129331   2.813  11.468   3.667
 9164SOL    HW229332   2.901  11.586   3.632
 9165SOL     OW29333   7.786   2.042  11.832
 9165SOL    HW129334   7.844   2.000  11.768
 9165SOL    HW229335   7.839   2.112  11.870
 9166SOL     OW29336  12.540  11.269   6.226
 9166SOL    HW129337  12.474  11.273   6.156
 9166SOL    HW229338  12.552  11.176   6.242
 9167SOL     OW29339   4.165  13.718   1.589
 9167SOL    HW129340   4.143  13.779   1.660
 9167SOL    HW229341   4.140  13.765   1.510
 9168SOL     OW29342  13.511   5.559  11.246
 9168SOL    HW129343  13.432   5.590  11.291
 9168SOL    HW229344  13.574   5.631  11.254
 9169SOL     OW29345   3.673   4.600   1.203
 9169SOL    HW129346   3.684   4.676   1.146
 9169SOL    HW229347   3.669   4.637   1.291
 9170SOL     OW29348  11.881   6.427   2.361
 9170SOL    HW129349  11.835   6.507   2.385
 9170SOL    HW229350  11.973   6.445   2.379
 9171SOL     OW29351   7.905   8.459   7.015
 9171SOL    HW129352   7.995   8.432   7.001
 9171SOL    HW229353   7.886   8.518   6.943
 9172SOL     OW29354  10.197   6.877  10.074
 9172SOL    HW129355  10.289   6.893  10.055
 9172SOL    HW229356  10.198   6.805  10.138
 9173SOL     OW29357   7.180   7.965  14.609
 9173SOL    HW129358   7.087   7.945  14.616
 9173SOL    HW229359   7.224   7.889  14.647
 9174SOL     OW29360  14.223   4.001  12.833
 9174SOL    HW129361  14.224   4.081  12.779
 9174SOL    HW229362  14.264   4.028  12.915
 9175SOL     OW29363  14.000   9.082   1.709
 9175SOL    HW129364  14.038   8.995   1.697
 9175SOL    HW229365  14.039   9.136   1.640
 9176SOL     OW29366   9.972   5.900  12.305
 9176SOL    HW129367  10.067   5.887  12.305
 9176SOL    HW229368   9.955   5.957  12.380
 9177SOL     OW29369   5.821   9.568  11.999
 9177SOL    HW129370   5.732   9.537  12.017
 9177SOL    HW229371   5.877   9.497  12.029
 9178SOL     OW29372   3.808   1.314   0.585
 9178SOL    HW129373   3.784   1.407   0.588
 9178SOL    HW229374   3.815   1.288   0.677
 9179SOL     OW29375   0.817  13.451   3.932
 9179SOL    HW129376   0.848  13.379   3.876
 9179SOL    HW229377   0.834  13.530   3.880
 9180SOL     OW29378   6.772  12.076   3.170
 9180SOL    HW129379   6.791  12.169   3.186
 9180SOL    HW229380   6.857  12.035   3.157
 9181SOL     OW29381   5.551   7.345   0.322
 9181SOL    HW129382   5.540   7.434   0.355
 9181SOL    HW229383   5.491   7.339   0.248
 9182SOL     OW29384  13.686   6.205   3.976
 9182SOL    HW129385  13.768   6.250   3.996
 9182SOL    HW229386  13.622   6.248   4.033
 9183SOL     OW29387   2.075  10.853  12.653
 9183SOL    HW129388   1.999  10.827  12.602
 9183SOL    HW229389   2.113  10.926  12.604
 9184SOL     OW29390   2.102   3.134  11.908
 9184SOL    HW129391   2.141   3.066  11.854
 9184SOL    HW229392   2.078   3.203  11.847
 9185SOL     OW29393   8.657  11.668   4.500
 9185SOL    HW129394   8.677  11.709   4.584
 9185SOL    HW229395   8.608  11.734   4.453
 9186SOL     OW29396   4.158  13.801   1.885
 9186SOL    HW129397   4.201  13.716   1.898
 9186SOL    HW229398   4.149  13.837   1.973
 9187SOL     OW29399   8.646   2.713  14.697
 9187SOL    HW129400   8.703   2.672  14.632
 9187SOL    HW229401   8.674   2.805  14.698
 9188SOL     OW29402   3.901   0.803  13.798
 9188SOL    HW129403   3.813   0.817  13.765
 9188SOL    HW229404   3.942   0.890  13.794
 9189SOL     OW29405   8.734   3.861  12.687
 9189SOL    HW129406   8.734   3.887  12.779
 9189SOL    HW229407   8.744   3.943  12.639
 9190SOL     OW29408   7.273  10.369   6.257
 9190SOL    HW129409   7.274  10.298   6.192
 9190SOL    HW229410   7.321  10.440   6.214
 9191SOL     OW29411  13.453   3.928  11.658
 9191SOL    HW129412  13.546   3.922  11.679
 9191SOL    HW229413  13.444   4.011  11.612
 9192SOL     OW29414  14.475  14.203   9.891
 9192SOL    HW129415  14.535  14.268   9.930
 9192SOL    HW229416  14.451  14.147   9.965
 9193SOL     OW29417  14.756   8.408  11.100
 9193SOL    HW129418  14.725   8.431  11.187
 9193SOL    HW229419  14.790   8.319  11.109
 9194SOL     OW29420   6.447  11.210   1.673
 9194SOL    HW129421   6.453  11.299   1.640
 9194SOL    HW229422   6.538  11.179   1.675
 9195SOL     OW29423   1.395  10.570   8.900
 9195SOL    HW129424   1.358  10.590   8.986
 9195SOL    HW229425   1.417  10.655   8.863
 9196SOL     OW29426   0.278   5.434  13.419
 9196SOL    HW129427   0.320   5.483  13.348
 9196SOL    HW229428   0.275   5.495  13.492
 9197SOL     OW29429  10.842   6.250  14.340
 9197SOL    HW129430  10.878   6.219  14.423
 9197SOL    HW229431  10.891   6.201  14.273
 9198SOL     OW29432   2.386   7.001   5.447
 9198SOL    HW129433   2.395   7.089   5.411
 9198SOL    HW229434   2.475   6.965   5.443
 9199SOL     OW29435   3.840   4.237   2.087
 9199SOL    HW129436   3.906   4.297   2.051
 9199SOL    HW229437   3.886   4.154   2.099
 9200SOL     OW29438   0.598   2.016   3.481
 9200SOL    HW129439   0.612   2.097   3.530
 9200SOL    HW229440   0.684   1.993   3.447
 9201SOL     OW29441   1.183   8.711   6.313
 9201SOL    HW129442   1.203   8.661   6.234
 9201SOL    HW229443   1.103   8.759   6.290
 9202SOL     OW29444   0.800   0.896   4.026
 9202SOL    HW129445   0.755   0.811   4.027
 9202SOL    HW229446   0.813   0.918   4.118
 9203SOL     OW29447   2.333   7.998   8.940
 9203SOL    HW129448   2.386   7.990   8.860
 9203SOL    HW229449   2.377   8.066   8.991
 9204SOL     OW29450   9.474   0.479   5.374
 9204SOL    HW129451   9.541   0.546   5.361
 9204SOL    HW229452   9.473   0.429   5.292
 9205SOL     OW29453   6.484  12.122   0.417
 9205SOL    HW129454   6.501  12.087   0.330
 9205SOL    HW229455   6.567  12.114   0.463
 9206SOL     OW29456   6.140   9.585   5.499
 9206SOL    HW129457   6.109   9.645   5.566
 9206SOL    HW229458   6.211   9.537   5.541
 9207SOL     OW29459  10.016   1.269   6.405
 9207SOL    HW129460  10.029   1.358   6.436
 9207SOL    HW229461  10.099   1.225   6.426
 9208SOL     OW29462   3.984  14.864   7.389
 9208SOL    HW129463   4.068  14.819   7.402
 9208SOL    HW229464   3.980   0.053   7.461
 9209SOL     OW29465   5.878  14.569   6.758
 9209SOL    HW129466   5.920  14.547   6.841
 9209SOL    HW229467   5.854  14.661   6.766
 9210SOL     OW29468  12.180   9.457  12.966
 9210SOL    HW129469  12.166   9.366  12.937
 9210SOL    HW229470  12.258   9.485  12.919
 9211SOL     OW29471   4.562   6.525   6.592
 9211SOL    HW129472   4.577   6.611   6.552
 9211SOL    HW229473   4.571   6.541   6.686
 9212SOL     OW29474  13.956   6.355  11.086
 9212SOL    HW129475  13.963   6.306  11.167
 9212SOL    HW229476  13.968   6.447  11.113
 9213SOL     OW29477  10.134   2.034   9.678
 9213SOL    HW129478  10.057   2.083   9.705
 9213SOL    HW229479  10.126   2.025   9.583
 9214SOL     OW29480   8.914   8.778  12.392
 9214SOL    HW129481   8.963   8.727  12.457
 9214SOL    HW229482   8.835   8.806  12.438
 9215SOL     OW29483  11.747   7.934  10.865
 9215SOL    HW129484  11.812   7.877  10.823
 9215SOL    HW229485  11.789   8.020  10.867
 9216SOL     OW29486   2.507   2.408  14.619
 9216SOL    HW129487   2.450   2.391  14.545
 9216SOL    HW229488   2.507   2.326  14.669
 9217SOL     OW29489   2.105   9.877  13.485
 9217SOL    HW129490   2.020   9.887  13.442
 9217SOL    HW229491   2.085   9.832  13.567
 9218SOL     OW29492   9.190   7.832   0.807
 9218SOL    HW129493   9.140   7.794   0.879
 9218SOL    HW229494   9.126   7.885   0.759
 9219SOL     OW29495  13.810  11.734   2.063
 9219SOL    HW129496  13.736  11.794   2.053
 9219SOL    HW229497  13.837  11.714   1.974
 9220SOL     OW29498   4.219   4.457   9.488
 9220SOL    HW129499   4.132   4.492   9.466
 9220SOL    HW229500   4.274   4.481   9.413
 9221SOL     OW29501   2.738  14.218  12.694
 9221SOL    HW129502   2.763  14.207  12.603
 9221SOL    HW229503   2.713  14.130  12.723
 9222SOL     OW29504   0.761  14.517  14.590
 9222SOL    HW129505   0.854  14.510  14.609
 9222SOL    HW229506   0.757  14.560  14.505
 9223SOL     OW29507   4.405   8.674   8.924
 9223SOL    HW129508   4.474   8.732   8.892
 9223SOL    HW229509   4.389   8.703   9.013
 9224SOL     OW29510  12.420   9.091   5.347
 9224SOL    HW129511  12.356   9.156   5.317
 9224SOL    HW229512  12.452   9.050   5.267
 9225SOL     OW29513  13.451   1.593   7.564
 9225SOL    HW129514  13.380   1.530   7.551
 9225SOL    HW229515  13.529   1.539   7.575
 9226SOL     OW29516   5.864   5.074   2.039
 9226SOL    HW129517   5.824   5.034   2.116
 9226SOL    HW229518   5.864   5.004   1.973
 9227SOL     OW29519   4.109   2.736   2.918
 9227SOL    HW129520   4.032   2.740   2.860
 9227SOL    HW229521   4.169   2.801   2.883
 9228SOL     OW29522   9.122  13.061   6.470
 9228SOL    HW129523   9.105  13.044   6.377
 9228SOL    HW229524   9.207  13.107   6.470
 9229SOL     OW29525   7.599   3.448  13.998
 9229SOL    HW129526   7.615   3.377  14.060
 9229SOL    HW229527   7.557   3.516  14.050
 9230SOL     OW29528   0.751   1.637   4.761
 9230SOL    HW129529   0.682   1.664   4.823
 9230SOL    HW229530   0.768   1.545   4.782
 9231SOL     OW29531  14.508   8.523   3.135
 9231SOL    HW129532  14.533   8.456   3.197
 9231SOL    HW229533  14.465   8.476   3.064
 9232SOL     OW29534   4.684  11.801   6.486
 9232SOL    HW129535   4.676  11.844   6.400
 9232SOL    HW229536   4.688  11.873   6.549
 9233SOL     OW29537   4.643   5.525   8.032
 9233SOL    HW129538   4.611   5.610   8.062
 9233SOL    HW229539   4.659   5.537   7.938
 9234SOL     OW29540   0.121  11.106   1.844
 9234SOL    HW129541   0.056  11.105   1.915
 9234SOL    HW229542   0.069  11.119   1.765
 9235SOL     OW29543   7.168  10.557  12.807
 9235SOL    HW129544   7.139  10.472  12.841
 9235SOL    HW229545   7.107  10.620  12.846
 9236SOL     OW29546   3.218   3.731   0.014
 9236SOL    HW129547   3.154   3.747   0.084
 9236SOL    HW229548   3.213   3.636  14.871
 9237SOL     OW29549   7.036   7.382   1.353
 9237SOL    HW129550   6.941   7.379   1.342
 9237SOL    HW229551   7.070   7.383   1.263
 9238SOL     OW29552  14.098   6.301   4.649
 9238SOL    HW129553  14.179   6.338   4.683
 9238SOL    HW229554  14.029   6.340   4.703
 9239SOL     OW29555   9.386   8.565  13.086
 9239SOL    HW129556   9.328   8.597  13.017
 9239SOL    HW229557   9.453   8.514  13.040
 9240SOL     OW29558   7.920   3.945   6.940
 9240SOL    HW129559   7.961   3.992   6.868
 9240SOL    HW229560   7.909   3.856   6.907
 9241SOL     OW29561   3.567   9.364  12.927
 9241SOL    HW129562   3.560   9.394  12.837
 9241SOL    HW229563   3.629   9.291  12.923
 9242SOL     OW29564   2.384   7.291   0.269
 9242SOL    HW129565   2.364   7.304   0.176
 9242SOL    HW229566   2.451   7.223   0.270
 9243SOL     OW29567   6.454   1.242  11.863
 9243SOL    HW129568   6.510   1.267  11.937
 9243SOL    HW229569   6.428   1.326  11.824
 9244SOL     OW29570   1.098   9.623  13.224
 9244SOL    HW129571   1.087   9.716  13.246
 9244SOL    HW229572   1.086   9.619  13.129
 9245SOL     OW29573   8.562   9.468  12.969
 9245SOL    HW129574   8.616   9.414  13.028
 9245SOL    HW229575   8.524   9.535  13.026
 9246SOL     OW29576  12.666   9.447   9.299
 9246SOL    HW129577  12.615   9.452   9.218
 9246SOL    HW229578  12.626   9.375   9.348
 9247SOL     OW29579  13.780   9.776   7.166
 9247SOL    HW129580  13.836   9.723   7.110
 9247SOL    HW229581  13.840   9.817   7.229
 9248SOL     OW29582   2.994  12.716  12.711
 9248SOL    HW129583   3.082  12.729  12.675
 9248SOL    HW229584   2.976  12.623  12.695
 9249SOL     OW29585   8.641  14.569   6.352
 9249SOL    HW129586   8.720  14.539   6.397
 9249SOL    HW229587   8.672  14.594   6.265
 9250SOL     OW29588   5.173   3.266  11.290
 9250SOL    HW129589   5.249   3.269  11.233
 9250SOL    HW229590   5.206   3.234  11.374
 9251SOL     OW29591   6.136   8.349   9.292
 9251SOL    HW129592   6.080   8.383   9.361
 9251SOL    HW229593   6.076   8.325   9.221
 9252SOL     OW29594   7.530   4.420  12.570
 9252SOL    HW129595   7.494   4.345  12.618
 9252SOL    HW229596   7.618   4.431  12.607
 9253SOL     OW29597   2.888   3.641  10.731
 9253SOL    HW129598   2.847   3.571  10.782
 9253SOL    HW229599   2.982   3.630  10.746
 9254SOL     OW29600  13.733   6.704  14.825
 9254SOL    HW129601  13.772   6.790  14.811
 9254SOL    HW229602  13.639   6.721  14.833
 9255SOL     OW29603   9.446  12.035   7.047
 9255SOL    HW129604   9.503  12.074   7.113
 9255SOL    HW229605   9.497  11.962   7.011
 9256SOL     OW29606   5.535   7.695  13.012
 9256SOL    HW129607   5.462   7.755  12.995
 9256SOL    HW229608   5.515   7.618  12.960
 9257SOL     OW29609   6.989  11.321   3.365
 9257SOL    HW129610   6.939  11.338   3.285
 9257SOL    HW229611   6.929  11.345   3.436
 9258SOL     OW29612  11.540  12.771   8.146
 9258SOL    HW129613  11.587  12.761   8.228
 9258SOL    HW229614  11.580  12.707   8.087
 9259SOL     OW29615  11.617   6.031   0.825
 9259SOL    HW129616  11.554   6.090   0.865
 9259SOL    HW229617  11.649   6.078   0.748
 9260SOL     OW29618   8.647   2.008   9.689
 9260SOL    HW129619   8.696   2.087   9.713
 9260SOL    HW229620   8.574   2.006   9.750
 9261SOL     OW29621   1.067   1.494   4.707
 9261SOL    HW129622   1.134   1.507   4.774
 9261SOL    HW229623   0.985   1.517   4.750
 9262SOL     OW29624  11.815   3.206   8.088
 9262SOL    HW129625  11.889   3.221   8.147
 9262SOL    HW229626  11.854   3.201   8.000
 9263SOL     OW29627   1.022  12.701   0.475
 9263SOL    HW129628   1.002  12.653   0.555
 9263SOL    HW229629   1.096  12.654   0.436
 9264SOL     OW29630  12.611  10.445  13.269
 9264SOL    HW129631  12.667  10.393  13.326
 9264SOL    HW229632  12.587  10.521  13.322
 9265SOL     OW29633   9.190   8.936   6.762
 9265SOL    HW129634   9.270   8.983   6.787
 9265SOL    HW229635   9.220   8.850   6.736
 9266SOL     OW29636   8.404   6.701   2.958
 9266SOL    HW129637   8.396   6.614   2.919
 9266SOL    HW229638   8.344   6.756   2.907
 9267SOL     OW29639   8.152   5.066  11.631
 9267SOL    HW129640   8.118   5.140  11.580
 9267SOL    HW229641   8.207   5.106  11.698
 9268SOL     OW29642  13.879   2.294  11.632
 9268SOL    HW129643  13.928   2.218  11.663
 9268SOL    HW229644  13.804   2.300  11.691
 9269SOL     OW29645   3.644  11.802   0.133
 9269SOL    HW129646   3.710  11.790   0.202
 9269SOL    HW229647   3.656  11.893   0.105
 9270SOL     OW29648   5.784   4.618   1.260
 9270SOL    HW129649   5.811   4.664   1.340
 9270SOL    HW229650   5.731   4.544   1.291
 9271SOL     OW29651  10.247  11.735   7.952
 9271SOL    HW129652  10.289  11.796   7.891
 9271SOL    HW229653  10.155  11.734   7.925
 9272SOL     OW29654   0.108   0.007   0.967
 9272SOL    HW129655   0.081  14.823   0.896
 9272SOL    HW229656   0.186  14.838   1.004
 9273SOL     OW29657   2.887   3.376  13.380
 9273SOL    HW129658   2.907   3.293  13.338
 9273SOL    HW229659   2.824   3.355  13.448
 9274SOL     OW29660  12.717  13.729  11.294
 9274SOL    HW129661  12.622  13.739  11.294
 9274SOL    HW229662  12.736  13.680  11.214
 9275SOL     OW29663   6.048   2.853  12.370
 9275SOL    HW129664   5.971   2.863  12.315
 9275SOL    HW229665   6.016   2.869  12.459
 9276SOL     OW29666   6.039  12.214   9.927
 9276SOL    HW129667   5.976  12.286   9.931
 9276SOL    HW229668   6.124  12.257   9.925
 9277SOL     OW29669  13.764  13.083   8.863
 9277SOL    HW129670  13.708  13.142   8.915
 9277SOL    HW229671  13.835  13.139   8.832
 9278SOL     OW29672  10.259  11.761  14.694
 9278SOL    HW129673  10.217  11.834  14.740
 9278SOL    HW229674  10.211  11.683  14.722
 9279SOL     OW29675  11.034  13.760   8.344
 9279SOL    HW129676  10.993  13.811   8.274
 9279SOL    HW229677  11.116  13.729   8.305
 9280SOL     OW29678   3.158  12.330   2.925
 9280SOL    HW129679   3.200  12.298   3.005
 9280SOL    HW229680   3.065  12.310   2.938
 9281SOL     OW29681   1.654   6.098   4.617
 9281SOL    HW129682   1.696   6.022   4.578
 9281SOL    HW229683   1.593   6.061   4.681
 9282SOL     OW29684   4.677   1.873   2.145
 9282SOL    HW129685   4.701   1.884   2.237
 9282SOL    HW229686   4.616   1.945   2.127
 9283SOL     OW29687   0.315   2.646   2.016
 9283SOL    HW129688   0.253   2.661   1.945
 9283SOL    HW229689   0.326   2.731   2.057
 9284SOL     OW29690  14.696  10.355   2.434
 9284SOL    HW129691  14.669  10.271   2.396
 9284SOL    HW229692  14.694  10.340   2.528
 9285SOL     OW29693   9.379  13.471   6.736
 9285SOL    HW129694   9.294  13.496   6.772
 9285SOL    HW229695   9.420  13.418   6.805
 9286SOL     OW29696   4.702   7.949  11.952
 9286SOL    HW129697   4.684   7.881  12.017
 9286SOL    HW229698   4.616   7.981  11.926
 9287SOL     OW29699   7.057   2.995   0.980
 9287SOL    HW129700   7.031   2.943   1.055
 9287SOL    HW229701   7.001   2.965   0.908
 9288SOL     OW29702   0.565   6.680   4.004
 9288SOL    HW129703   0.513   6.760   3.997
 9288SOL    HW229704   0.577   6.666   4.098
 9289SOL     OW29705   1.970   7.930  11.457
 9289SOL    HW129706   1.922   7.886  11.527
 9289SOL    HW229707   2.042   7.870  11.436
 9290SOL     OW29708  13.238   0.454   3.592
 9290SOL    HW129709  13.240   0.379   3.652
 9290SOL    HW229710  13.307   0.512   3.623
 9291SOL     OW29711   8.251   0.983  11.348
 9291SOL    HW129712   8.291   1.044  11.410
 9291SOL    HW229713   8.183   0.938  11.398
 9292SOL     OW29714  14.826  14.786   3.236
 9292SOL    HW129715  14.754  14.808   3.177
 9292SOL    HW229716   0.031  14.821   3.192
 9293SOL     OW29717   6.118   4.554   5.111
 9293SOL    HW129718   6.169   4.547   5.031
 9293SOL    HW229719   6.088   4.464   5.128
 9294SOL     OW29720  12.032   2.149  11.669
 9294SOL    HW129721  12.033   2.137  11.574
 9294SOL    HW229722  11.975   2.079  11.700
 9295SOL     OW29723  11.962   3.072  14.580
 9295SOL    HW129724  12.015   3.077  14.500
 9295SOL    HW229725  11.927   2.983  14.580
 9296SOL     OW29726   2.754   4.523   3.486
 9296SOL    HW129727   2.809   4.446   3.497
 9296SOL    HW229728   2.815   4.593   3.461
 9297SOL     OW29729  13.241  13.490   5.405
 9297SOL    HW129730  13.308  13.521   5.344
 9297SOL    HW229731  13.177  13.445   5.351
 9298SOL     OW29732  12.674   5.810   5.927
 9298SOL    HW129733  12.703   5.827   6.017
 9298SOL    HW229734  12.584   5.843   5.925
 9299SOL     OW29735  14.466  12.509   1.549
 9299SOL    HW129736  14.512  12.470   1.475
 9299SOL    HW229737  14.515  12.588   1.569
 9300SOL     OW29738   4.761   2.835   7.711
 9300SOL    HW129739   4.781   2.808   7.621
 9300SOL    HW229740   4.802   2.920   7.721
 9301SOL     OW29741   1.353  14.325   5.827
 9301SOL    HW129742   1.381  14.253   5.883
 9301SOL    HW229743   1.257  14.320   5.828
 9302SOL     OW29744  10.089  13.775  11.768
 9302SOL    HW129745  10.049  13.861  11.763
 9302SOL    HW229746  10.065  13.743  11.855
 9303SOL     OW29747   2.351   9.045   9.792
 9303SOL    HW129748   2.398   9.031   9.709
 9303SOL    HW229749   2.264   9.074   9.765
 9304SOL     OW29750  11.143  10.313   6.369
 9304SOL    HW129751  11.229  10.347   6.345
 9304SOL    HW229752  11.160  10.249   6.438
 9305SOL     OW29753   8.817   3.007   7.950
 9305SOL    HW129754   8.844   2.929   7.900
 9305SOL    HW229755   8.847   2.990   8.039
 9306SOL     OW29756  14.101   1.777   0.347
 9306SOL    HW129757  14.191   1.786   0.377
 9306SOL    HW229758  14.070   1.867   0.335
 9307SOL     OW29759  13.888   5.428  14.605
 9307SOL    HW129760  13.975   5.410  14.641
 9307SOL    HW229761  13.886   5.382  14.521
 9308SOL     OW29762   0.060  10.943   9.485
 9308SOL    HW129763   0.119  10.974   9.417
 9308SOL    HW229764   0.035  11.022   9.533
 9309SOL     OW29765  12.548   2.926   1.085
 9309SOL    HW129766  12.537   2.862   1.155
 9309SOL    HW229767  12.488   2.897   1.016
 9310SOL     OW29768   6.324  13.047   8.801
 9310SOL    HW129769   6.345  12.980   8.866
 9310SOL    HW229770   6.407  13.091   8.785
 9311SOL     OW29771   5.559   0.115  13.255
 9311SOL    HW129772   5.569   0.207  13.231
 9311SOL    HW229773   5.627   0.100  13.321
 9312SOL     OW29774  11.819   2.871   6.831
 9312SOL    HW129775  11.799   2.870   6.925
 9312SOL    HW229776  11.834   2.779   6.809
 9313SOL     OW29777   4.241  10.747  12.245
 9313SOL    HW129778   4.198  10.793  12.172
 9313SOL    HW229779   4.306  10.691  12.202
 9314SOL     OW29780   9.733   5.773   1.107
 9314SOL    HW129781   9.694   5.857   1.080
 9314SOL    HW229782   9.751   5.728   1.025
 9315SOL     OW29783   2.231  11.502  12.801
 9315SOL    HW129784   2.249  11.516  12.894
 9315SOL    HW229785   2.187  11.582  12.773
 9316SOL     OW29786  12.094   9.726  12.984
 9316SOL    HW129787  12.130   9.768  12.905
 9316SOL    HW229788  12.100   9.632  12.966
 9317SOL     OW29789   2.295   9.483  14.559
 9317SOL    HW129790   2.317   9.417  14.493
 9317SOL    HW229791   2.203   9.466  14.580
 9318SOL     OW29792  12.433   9.981   8.348
 9318SOL    HW129793  12.450  10.065   8.306
 9318SOL    HW229794  12.466   9.992   8.438
 9319SOL     OW29795  14.197   5.397  11.669
 9319SOL    HW129796  14.233   5.486  11.663
 9319SOL    HW229797  14.125   5.397  11.606
 9320SOL     OW29798   9.005   5.945  10.610
 9320SOL    HW129799   8.960   6.004  10.670
 9320SOL    HW229800   9.094   5.938  10.643
 9321SOL     OW29801  11.854   1.725  11.669
 9321SOL    HW129802  11.867   1.813  11.632
 9321SOL    HW229803  11.766   1.728  11.705
 9322SOL     OW29804   3.864  12.981  11.483
 9322SOL    HW129805   3.910  13.060  11.456
 9322SOL    HW229806   3.840  12.939  11.401
 9323SOL     OW29807   6.953  13.104   1.407
 9323SOL    HW129808   6.998  13.153   1.338
 9323SOL    HW229809   6.941  13.168   1.478
 9324SOL     OW29810  10.346  12.538   4.180
 9324SOL    HW129811  10.341  12.528   4.275
 9324SOL    HW229812  10.281  12.476   4.146
 9325SOL     OW29813   0.662   8.769   2.638
 9325SOL    HW129814   0.583   8.767   2.584
 9325SOL    HW229815   0.630   8.756   2.727
 9326SOL     OW29816  11.627   1.730   0.950
 9326SOL    HW129817  11.612   1.732   1.044
 9326SOL    HW229818  11.712   1.773   0.938
 9327SOL     OW29819   8.469   5.245   1.199
 9327SOL    HW129820   8.385   5.286   1.181
 9327SOL    HW229821   8.534   5.300   1.155
 9328SOL     OW29822  11.411  12.748   1.809
 9328SOL    HW129823  11.472  12.778   1.742
 9328SOL    HW229824  11.461  12.754   1.891
 9329SOL     OW29825  11.964   1.653   0.729
 9329SOL    HW129826  11.963   1.628   0.821
 9329SOL    HW229827  11.932   1.743   0.728
 9330SOL     OW29828  11.683  13.620  11.092
 9330SOL    HW129829  11.634  13.697  11.062
 9330SOL    HW229830  11.774  13.650  11.095
 9331SOL     OW29831  12.424  14.508   4.377
 9331SOL    HW129832  12.477  14.545   4.449
 9331SOL    HW229833  12.371  14.440   4.419
 9332SOL     OW29834   8.792   3.828  14.369
 9332SOL    HW129835   8.852   3.773  14.318
 9332SOL    HW229836   8.851   3.882  14.422
 9333SOL     OW29837  11.490   7.488   0.633
 9333SOL    HW129838  11.570   7.510   0.585
 9333SOL    HW229839  11.431   7.562   0.619
 9334SOL     OW29840   9.058   9.950   8.264
 9334SOL    HW129841   9.055  10.041   8.235
 9334SOL    HW229842   9.145   9.939   8.303
 9335SOL     OW29843  14.805  12.812   4.661
 9335SOL    HW129844   0.002  12.863   4.701
 9335SOL    HW229845  14.850  12.743   4.613
 9336SOL     OW29846   7.629   9.484   8.548
 9336SOL    HW129847   7.708   9.534   8.527
 9336SOL    HW229848   7.659   9.393   8.555
 9337SOL     OW29849   2.145  13.898   5.219
 9337SOL    HW129850   2.188  13.863   5.141
 9337SOL    HW229851   2.213  13.900   5.285
 9338SOL     OW29852   3.546   1.238   1.313
 9338SOL    HW129853   3.488   1.268   1.383
 9338SOL    HW229854   3.594   1.164   1.351
 9339SOL     OW29855  14.783   5.822   2.085
 9339SOL    HW129856  14.786   5.864   1.999
 9339SOL    HW229857  14.697   5.844   2.120
 9340SOL     OW29858   4.130   4.674   6.717
 9340SOL    HW129859   4.144   4.653   6.810
 9340SOL    HW229860   4.110   4.767   6.717
 9341SOL     OW29861  10.985  10.503   2.302
 9341SOL    HW129862  10.940  10.471   2.224
 9341SOL    HW229863  11.014  10.591   2.278
 9342SOL     OW29864  13.903   2.271   9.173
 9342SOL    HW129865  13.878   2.311   9.089
 9342SOL    HW229866  13.881   2.179   9.163
 9343SOL     OW29867   4.077  13.244   4.066
 9343SOL    HW129868   4.089  13.164   4.118
 9343SOL    HW229869   4.033  13.215   3.987
 9344SOL     OW29870   2.535  14.687  11.584
 9344SOL    HW129871   2.612  14.635  11.610
 9344SOL    HW229872   2.462  14.626  11.591
 9345SOL     OW29873   4.158   0.807  12.780
 9345SOL    HW129874   4.245   0.796  12.741
 9345SOL    HW229875   4.172   0.791  12.874
 9346SOL     OW29876  10.262  12.978   9.830
 9346SOL    HW129877  10.292  13.064   9.857
 9346SOL    HW229878  10.315  12.917   9.881
 9347SOL     OW29879  10.106   3.468  12.649
 9347SOL    HW129880  10.094   3.562  12.637
 9347SOL    HW229881  10.197   3.458  12.677
 9348SOL     OW29882   2.919   2.202  10.423
 9348SOL    HW129883   2.855   2.272  10.413
 9348SOL    HW229884   2.992   2.243  10.470
 9349SOL     OW29885  12.366   1.478   5.905
 9349SOL    HW129886  12.360   1.534   5.983
 9349SOL    HW229887  12.297   1.413   5.916
 9350SOL     OW29888   4.040   6.423  11.906
 9350SOL    HW129889   4.028   6.356  11.973
 9350SOL    HW229890   3.964   6.480  11.916
 9351SOL     OW29891   3.397  14.122  10.765
 9351SOL    HW129892   3.429  14.033  10.750
 9351SOL    HW229893   3.328  14.112  10.831
 9352SOL     OW29894   0.465   2.901   0.267
 9352SOL    HW129895   0.471   2.992   0.238
 9352SOL    HW229896   0.403   2.903   0.340
 9353SOL     OW29897   1.547  11.383  13.921
 9353SOL    HW129898   1.613  11.325  13.883
 9353SOL    HW229899   1.486  11.326  13.966
 9354SOL     OW29900   8.749  14.404  11.104
 9354SOL    HW129901   8.730  14.468  11.172
 9354SOL    HW229902   8.794  14.453  11.036
 9355SOL     OW29903   7.457   7.207   4.477
 9355SOL    HW129904   7.456   7.259   4.557
 9355SOL    HW229905   7.470   7.117   4.508
 9356SOL     OW29906  13.775   1.521   9.730
 9356SOL    HW129907  13.729   1.597   9.764
 9356SOL    HW229908  13.811   1.550   9.646
 9357SOL     OW29909  13.265   1.015   6.715
 9357SOL    HW129910  13.176   1.049   6.715
 9357SOL    HW229911  13.306   1.055   6.792
 9358SOL     OW29912   2.256   6.220   5.290
 9358SOL    HW129913   2.293   6.188   5.208
 9358SOL    HW229914   2.182   6.275   5.263
 9359SOL     OW29915  11.782   6.564   9.531
 9359SOL    HW129916  11.794   6.470   9.537
 9359SOL    HW229917  11.725   6.577   9.455
 9360SOL     OW29918   2.441   2.152   7.478
 9360SOL    HW129919   2.510   2.218   7.487
 9360SOL    HW229920   2.487   2.071   7.458
 9361SOL     OW29921   7.072  10.552  11.929
 9361SOL    HW129922   7.031  10.540  11.843
 9361SOL    HW229923   7.016  10.502  11.989
 9362SOL     OW29924  13.738  14.522   5.468
 9362SOL    HW129925  13.688  14.590   5.422
 9362SOL    HW229926  13.684  14.500   5.544
 9363SOL     OW29927   7.440   6.607   8.519
 9363SOL    HW129928   7.514   6.594   8.460
 9363SOL    HW229929   7.474   6.661   8.590
 9364SOL     OW29930  10.648  11.767   7.336
 9364SOL    HW129931  10.605  11.756   7.421
 9364SOL    HW229932  10.741  11.760   7.354
 9365SOL     OW29933   4.039   1.604   3.865
 9365SOL    HW129934   4.106   1.573   3.925
 9365SOL    HW229935   4.030   1.698   3.884
 9366SOL     OW29936   7.629   7.484   0.818
 9366SOL    HW129937   7.656   7.393   0.806
 9366SOL    HW229938   7.678   7.533   0.752
 9367SOL     OW29939   1.086  10.092   2.034
 9367SOL    HW129940   1.039  10.011   2.012
 9367SOL    HW229941   1.143  10.107   1.959
 9368SOL     OW29942  11.934   7.794   7.901
 9368SOL    HW129943  11.959   7.731   7.833
 9368SOL    HW229944  12.003   7.788   7.966
 9369SOL     OW29945   1.465   4.395   6.489
 9369SOL    HW129946   1.410   4.405   6.412
 9369SOL    HW229947   1.430   4.318   6.533
 9370SOL     OW29948   1.436   5.059  11.295
 9370SOL    HW129949   1.445   4.973  11.253
 9370SOL    HW229950   1.496   5.056  11.369
 9371SOL     OW29951  13.855   2.350   2.359
 9371SOL    HW129952  13.948   2.354   2.341
 9371SOL    HW229953  13.819   2.429   2.318
 9372SOL     OW29954   5.811  10.726  10.759
 9372SOL    HW129955   5.811  10.679  10.675
 9372SOL    HW229956   5.750  10.676  10.814
 9373SOL     OW29957   0.972  10.754  14.308
 9373SOL    HW129958   0.878  10.769  14.298
 9373SOL    HW229959   1.011  10.838  14.285
 9374SOL     OW29960   8.141  12.226   4.958
 9374SOL    HW129961   8.141  12.146   5.011
 9374SOL    HW229962   8.137  12.297   5.023
 9375SOL     OW29963   8.188  10.489  12.927
 9375SOL    HW129964   8.161  10.539  13.004
 9375SOL    HW229965   8.241  10.551  12.876
 9376SOL     OW29966   9.506  14.258   3.693
 9376SOL    HW129967   9.428  14.208   3.672
 9376SOL    HW229968   9.579  14.203   3.663
 9377SOL     OW29969   9.464   4.027  14.589
 9377SOL    HW129970   9.471   4.121  14.573
 9377SOL    HW229971   9.522   3.988  14.524
 9378SOL     OW29972  11.113   6.877   9.972
 9378SOL    HW129973  11.019   6.876   9.990
 9378SOL    HW229974  11.134   6.787   9.948
 9379SOL     OW29975   0.986  12.973   3.957
 9379SOL    HW129976   1.061  12.991   4.015
 9379SOL    HW229977   0.929  12.917   4.010
 9380SOL     OW29978   4.562   8.965   9.556
 9380SOL    HW129979   4.535   8.961   9.648
 9380SOL    HW229980   4.628   9.034   9.553
 9381SOL     OW29981  14.682  10.901  11.799
 9381SOL    HW129982  14.772  10.897  11.765
 9381SOL    HW229983  14.660  10.994  11.798
 9382SOL     OW29984  14.626  14.326  10.103
 9382SOL    HW129985  14.636  14.319  10.198
 9382SOL    HW229986  14.565  14.399  10.091
 9383SOL     OW29987  13.568   3.067   4.391
 9383SOL    HW129988  13.558   3.130   4.320
 9383SOL    HW229989  13.535   3.113   4.468
 9384SOL     OW29990   3.519   8.488  11.572
 9384SOL    HW129991   3.591   8.442  11.616
 9384SOL    HW229992   3.503   8.437  11.493
 9385SOL     OW29993   3.336   7.486   9.793
 9385SOL    HW129994   3.387   7.416   9.835
 9385SOL    HW229995   3.347   7.470   9.699
 9386SOL     OW29996   7.737  14.644   3.506
 9386SOL    HW129997   7.751  14.628   3.413
 9386SOL    HW229998   7.649  14.681   3.511
 9387SOL     OW29999   1.964   3.230   4.079
 9387SOL    HW130000   1.965   3.325   4.068
 9387SOL    HW230001   1.915   3.199   4.002
 9388SOL     OW30002  12.124   1.326   2.218
 9388SOL    HW130003  12.035   1.342   2.188
 9388SOL    HW230004  12.176   1.317   2.138
 9389SOL     OW30005   8.437   4.849   7.889
 9389SOL    HW130006   8.476   4.808   7.812
 9389SOL    HW230007   8.428   4.777   7.952
 9390SOL     OW30008  14.117  12.083   6.086
 9390SOL    HW130009  14.050  12.031   6.131
 9390SOL    HW230010  14.080  12.171   6.083
 9391SOL     OW30011   0.572   8.688   0.030
 9391SOL    HW130012   0.643   8.712   0.089
 9391SOL    HW230013   0.557   8.766  14.849
 9392SOL     OW30014   2.800   4.969   5.309
 9392SOL    HW130015   2.779   5.042   5.367
 9392SOL    HW230016   2.886   4.939   5.337
 9393SOL     OW30017   7.092   2.129  13.238
 9393SOL    HW130018   6.997   2.127  13.249
 9393SOL    HW230019   7.127   2.147  13.325
 9394SOL     OW30020   7.845   4.728   7.256
 9394SOL    HW130021   7.757   4.756   7.230
 9394SOL    HW230022   7.859   4.646   7.209
 9395SOL     OW30023  11.524   7.350   6.133
 9395SOL    HW130024  11.477   7.407   6.073
 9395SOL    HW230025  11.465   7.339   6.207
 9396SOL     OW30026   5.649  11.725  14.303
 9396SOL    HW130027   5.702  11.650  14.329
 9396SOL    HW230028   5.577  11.727  14.365
 9397SOL     OW30029   6.514   6.058   9.170
 9397SOL    HW130030   6.481   6.146   9.187
 9397SOL    HW230031   6.478   6.036   9.084
 9398SOL     OW30032  13.053   2.099   1.994
 9398SOL    HW130033  13.113   2.097   2.069
 9398SOL    HW230034  12.993   2.170   2.014
 9399SOL     OW30035   7.006   4.543  11.949
 9399SOL    HW130036   7.043   4.621  11.906
 9399SOL    HW230037   6.945   4.507  11.885
 9400SOL     OW30038  13.917   6.867   3.797
 9400SOL    HW130039  13.880   6.904   3.716
 9400SOL    HW230040  13.966   6.790   3.768
 9401SOL     OW30041   2.403  13.611  13.737
 9401SOL    HW130042   2.435  13.530  13.697
 9401SOL    HW230043   2.449  13.681  13.690
 9402SOL     OW30044  11.398  13.578   6.133
 9402SOL    HW130045  11.367  13.655   6.087
 9402SOL    HW230046  11.326  13.515   6.127
 9403SOL     OW30047   2.792   6.179   3.407
 9403SOL    HW130048   2.845   6.227   3.343
 9403SOL    HW230049   2.835   6.093   3.414
 9404SOL     OW30050   6.119   3.174  12.938
 9404SOL    HW130051   6.198   3.209  12.895
 9404SOL    HW230052   6.109   3.228  13.017
 9405SOL     OW30053   5.503  12.790  11.907
 9405SOL    HW130054   5.427  12.825  11.861
 9405SOL    HW230055   5.552  12.744  11.839
 9406SOL     OW30056   3.870   3.296   0.821
 9406SOL    HW130057   3.831   3.213   0.794
 9406SOL    HW230058   3.837   3.310   0.910
 9407SOL     OW30059   0.862   3.715   1.940
 9407SOL    HW130060   0.829   3.708   2.029
 9407SOL    HW230061   0.785   3.704   1.885
 9408SOL     OW30062   4.399  12.557  11.700
 9408SOL    HW130063   4.421  12.593  11.614
 9408SOL    HW230064   4.314  12.516  11.688
 9409SOL     OW30065   9.430   3.383   4.598
 9409SOL    HW130066   9.496   3.450   4.581
 9409SOL    HW230067   9.425   3.333   4.517
 9410SOL     OW30068   4.013   3.908   5.560
 9410SOL    HW130069   3.956   3.874   5.491
 9410SOL    HW230070   3.962   3.898   5.640
 9411SOL     OW30071   7.578  10.086   6.030
 9411SOL    HW130072   7.619  10.017   5.978
 9411SOL    HW230073   7.591  10.059   6.121
 9412SOL     OW30074   6.789   0.106   6.754
 9412SOL    HW130075   6.791   0.198   6.726
 9412SOL    HW230076   6.879   0.076   6.742
 9413SOL     OW30077   4.889  11.548   9.650
 9413SOL    HW130078   4.877  11.546   9.745
 9413SOL    HW230079   4.808  11.511   9.615
 9414SOL     OW30080  11.481  11.296   2.842
 9414SOL    HW130081  11.469  11.208   2.877
 9414SOL    HW230082  11.575  11.302   2.823
 9415SOL     OW30083   2.801   5.902   5.302
 9415SOL    HW130084   2.775   5.988   5.268
 9415SOL    HW230085   2.876   5.877   5.247
 9416SOL     OW30086   9.662  12.456   3.531
 9416SOL    HW130087   9.686  12.529   3.475
 9416SOL    HW230088   9.567  12.460   3.536
 9417SOL     OW30089   9.394  12.950   6.138
 9417SOL    HW130090   9.319  12.990   6.095
 9417SOL    HW230091   9.429  12.889   6.074
 9418SOL     OW30092   2.506   1.830   5.009
 9418SOL    HW130093   2.411   1.824   4.994
 9418SOL    HW230094   2.534   1.739   5.020
 9419SOL     OW30095   8.098   7.027  12.763
 9419SOL    HW130096   8.173   7.008  12.707
 9419SOL    HW230097   8.135   7.071  12.840
 9420SOL     OW30098  12.620  10.071   1.708
 9420SOL    HW130099  12.635  10.018   1.786
 9420SOL    HW230100  12.540  10.035   1.670
 9421SOL     OW30101   1.656   3.347  11.842
 9421SOL    HW130102   1.572   3.393  11.832
 9421SOL    HW230103   1.701   3.393  11.912
 9422SOL     OW30104  12.235  10.587   6.506
 9422SOL    HW130105  12.252  10.523   6.437
 9422SOL    HW230106  12.140  10.600   6.505
 9423SOL     OW30107  11.047   2.697   3.796
 9423SOL    HW130108  10.976   2.749   3.760
 9423SOL    HW230109  11.045   2.714   3.890
 9424SOL     OW30110   9.896  10.398  13.825
 9424SOL    HW130111   9.808  10.433  13.839
 9424SOL    HW230112   9.954  10.460  13.870
 9425SOL     OW30113   3.019  11.073   8.608
 9425SOL    HW130114   3.048  11.116   8.528
 9425SOL    HW230115   2.929  11.045   8.590
 9426SOL     OW30116   7.580   2.773   3.077
 9426SOL    HW130117   7.494   2.806   3.050
 9426SOL    HW230118   7.621   2.848   3.121
 9427SOL     OW30119  14.127   9.192   8.409
 9427SOL    HW130120  14.200   9.131   8.414
 9427SOL    HW230121  14.068   9.155   8.344
 9428SOL     OW30122   9.671  13.034   8.486
 9428SOL    HW130123   9.648  13.059   8.576
 9428SOL    HW230124   9.639  12.944   8.478
 9429SOL     OW30125   4.776  12.612   4.080
 9429SOL    HW130126   4.790  12.574   4.167
 9429SOL    HW230127   4.692  12.576   4.051
 9430SOL     OW30128   4.067  12.107   3.745
 9430SOL    HW130129   4.104  12.021   3.727
 9430SOL    HW230130   4.046  12.144   3.659
 9431SOL     OW30131   3.154  11.203  10.875
 9431SOL    HW130132   3.175  11.286  10.831
 9431SOL    HW230133   3.235  11.178  10.919
 9432SOL     OW30134  13.461  11.697  12.689
 9432SOL    HW130135  13.456  11.717  12.782
 9432SOL    HW230136  13.386  11.640  12.672
 9433SOL     OW30137   2.333   8.654  13.302
 9433SOL    HW130138   2.277   8.672  13.227
 9433SOL    HW230139   2.416   8.697  13.281
 9434SOL     OW30140   1.552  12.340   9.254
 9434SOL    HW130141   1.636  12.333   9.209
 9434SOL    HW230142   1.491  12.368   9.186
 9435SOL     OW30143   4.506   6.979  12.104
 9435SOL    HW130144   4.464   7.065  12.099
 9435SOL    HW230145   4.516   6.952  12.013
 9436SOL     OW30146   8.397   0.354   5.592
 9436SOL    HW130147   8.311   0.344   5.552
 9436SOL    HW230148   8.379   0.368   5.685
 9437SOL     OW30149   0.316   0.583   1.399
 9437SOL    HW130150   0.333   0.518   1.468
 9437SOL    HW230151   0.342   0.539   1.318
 9438SOL     OW30152  10.647   3.466  10.027
 9438SOL    HW130153  10.611   3.380  10.052
 9438SOL    HW230154  10.571   3.517  10.000
 9439SOL     OW30155   1.437  11.607   4.312
 9439SOL    HW130156   1.511  11.665   4.299
 9439SOL    HW230157   1.425  11.564   4.228
 9440SOL     OW30158   8.159  14.218   6.556
 9440SOL    HW130159   8.213  14.265   6.620
 9440SOL    HW230160   8.222  14.179   6.496
 9441SOL     OW30161   7.180   6.073   8.816
 9441SOL    HW130162   7.160   6.110   8.730
 9441SOL    HW230163   7.096   6.040   8.849
 9442SOL     OW30164  14.553  13.986   6.646
 9442SOL    HW130165  14.463  13.953   6.640
 9442SOL    HW230166  14.605  13.911   6.673
 9443SOL     OW30167   4.846  10.985  14.661
 9443SOL    HW130168   4.800  11.050  14.608
 9443SOL    HW230169   4.777  10.946  14.715
 9444SOL     OW30170  13.928  13.518   0.349
 9444SOL    HW130171  13.931  13.423   0.336
 9444SOL    HW230172  13.943  13.529   0.443
 9445SOL     OW30173   9.737  12.246  10.334
 9445SOL    HW130174   9.779  12.327  10.366
 9445SOL    HW230175   9.671  12.276  10.272
 9446SOL     OW30176  12.616  11.925  13.723
 9446SOL    HW130177  12.707  11.935  13.749
 9446SOL    HW230178  12.575  11.878  13.795
 9447SOL     OW30179   4.877   8.313   2.037
 9447SOL    HW130180   4.909   8.299   2.126
 9447SOL    HW230181   4.796   8.262   2.032
 9448SOL     OW30182  11.989  13.074   7.093
 9448SOL    HW130183  12.027  13.051   7.178
 9448SOL    HW230184  11.920  13.009   7.079
 9449SOL     OW30185   7.535   0.798  13.309
 9449SOL    HW130186   7.517   0.706  13.292
 9449SOL    HW230187   7.587   0.826  13.233
 9450SOL     OW30188   9.241   8.815   3.270
 9450SOL    HW130189   9.317   8.837   3.324
 9450SOL    HW230190   9.264   8.731   3.230
 9451SOL     OW30191   5.286  12.768   8.102
 9451SOL    HW130192   5.227  12.719   8.159
 9451SOL    HW230193   5.344  12.815   8.162
 9452SOL     OW30194   6.316   7.796  13.613
 9452SOL    HW130195   6.271   7.820  13.694
 9452SOL    HW230196   6.375   7.725  13.638
 9453SOL     OW30197   8.258   0.233   2.306
 9453SOL    HW130198   8.188   0.284   2.347
 9453SOL    HW230199   8.300   0.294   2.245
 9454SOL     OW30200  10.450  12.638   8.916
 9454SOL    HW130201  10.464  12.663   9.007
 9454SOL    HW230202  10.523  12.677   8.869
 9455SOL     OW30203  12.694   7.173   2.523
 9455SOL    HW130204  12.623   7.207   2.469
 9455SOL    HW230205  12.750   7.248   2.540
 9456SOL     OW30206   2.780   1.879  13.970
 9456SOL    HW130207   2.799   1.786  13.958
 9456SOL    HW230208   2.694   1.892  13.931
 9457SOL     OW30209   3.212   7.662   6.188
 9457SOL    HW130210   3.190   7.684   6.098
 9457SOL    HW230211   3.130   7.625   6.224
 9458SOL     OW30212   8.177   2.232   6.139
 9458SOL    HW130213   8.088   2.227   6.173
 9458SOL    HW230214   8.186   2.154   6.085
 9459SOL     OW30215   9.398   4.146   6.529
 9459SOL    HW130216   9.379   4.193   6.448
 9459SOL    HW230217   9.490   4.121   6.521
 9460SOL     OW30218  12.254   3.615   1.926
 9460SOL    HW130219  12.173   3.581   1.963
 9460SOL    HW230220  12.251   3.589   1.834
 9461SOL     OW30221  10.849  14.772   4.611
 9461SOL    HW130222  10.773  14.830   4.601
 9461SOL    HW230223  10.828  14.696   4.557
 9462SOL     OW30224   7.312   4.283  14.513
 9462SOL    HW130225   7.291   4.308  14.603
 9462SOL    HW230226   7.383   4.219  14.521
 9463SOL     OW30227   5.203   1.475   4.520
 9463SOL    HW130228   5.140   1.471   4.447
 9463SOL    HW230229   5.193   1.564   4.555
 9464SOL     OW30230  11.499  14.301   1.121
 9464SOL    HW130231  11.539  14.284   1.036
 9464SOL    HW230232  11.429  14.236   1.128
 9465SOL     OW30233   5.796   4.897   4.962
 9465SOL    HW130234   5.761   4.960   5.026
 9465SOL    HW230235   5.815   4.819   5.014
 9466SOL     OW30236  13.306  14.309   7.798
 9466SOL    HW130237  13.301  14.215   7.816
 9466SOL    HW230238  13.219  14.331   7.764
 9467SOL     OW30239   2.030   5.782   5.634
 9467SOL    HW130240   2.115   5.753   5.599
 9467SOL    HW230241   2.052   5.829   5.715
 9468SOL     OW30242   1.293   6.834   8.769
 9468SOL    HW130243   1.224   6.786   8.722
 9468SOL    HW230244   1.374   6.788   8.745
 9469SOL     OW30245  13.862  12.471   7.892
 9469SOL    HW130246  13.778  12.499   7.927
 9469SOL    HW230247  13.840  12.397   7.835
 9470SOL     OW30248   8.989   5.998   9.395
 9470SOL    HW130249   9.060   6.051   9.433
 9470SOL    HW230250   8.959   5.943   9.467
 9471SOL     OW30251   6.507  12.802  11.903
 9471SOL    HW130252   6.556  12.725  11.876
 9471SOL    HW230253   6.417  12.784  11.877
 9472SOL     OW30254   7.755   8.781  11.026
 9472SOL    HW130255   7.814   8.712  11.056
 9472SOL    HW230256   7.783   8.859  11.074
 9473SOL     OW30257  13.874   6.405  10.406
 9473SOL    HW130258  13.780   6.423  10.415
 9473SOL    HW230259  13.916   6.476  10.456
 9474SOL     OW30260  11.943   5.966   2.238
 9474SOL    HW130261  11.938   6.061   2.255
 9474SOL    HW230262  11.893   5.927   2.309
 9475SOL     OW30263   0.895   7.230  13.642
 9475SOL    HW130264   0.825   7.280  13.684
 9475SOL    HW230265   0.907   7.273  13.557
 9476SOL     OW30266  11.388  11.714   0.371
 9476SOL    HW130267  11.332  11.733   0.447
 9476SOL    HW230268  11.467  11.766   0.386
 9477SOL     OW30269   9.462  14.383   2.091
 9477SOL    HW130270   9.522  14.423   2.154
 9477SOL    HW230271   9.503  14.398   2.006
 9478SOL     OW30272  12.564  14.604  13.643
 9478SOL    HW130273  12.630  14.573  13.705
 9478SOL    HW230274  12.480  14.588  13.686
 9479SOL     OW30275  10.320  11.834  12.577
 9479SOL    HW130276  10.259  11.777  12.623
 9479SOL    HW230277  10.303  11.921  12.613
 9480SOL     OW30278   6.242   1.468  13.706
 9480SOL    HW130279   6.298   1.512  13.642
 9480SOL    HW230280   6.177   1.422  13.653
 9481SOL     OW30281  10.388   1.695   6.825
 9481SOL    HW130282  10.362   1.778   6.865
 9481SOL    HW230283  10.315   1.636   6.843
 9482SOL     OW30284   3.688   3.342   9.792
 9482SOL    HW130285   3.621   3.402   9.826
 9482SOL    HW230286   3.639   3.278   9.740
 9483SOL     OW30287   9.708  14.351   3.909
 9483SOL    HW130288   9.735  14.385   3.994
 9483SOL    HW230289   9.644  14.283   3.930
 9484SOL     OW30290   9.710  12.001  14.527
 9484SOL    HW130291   9.806  12.001  14.527
 9484SOL    HW230292   9.686  11.922  14.478
 9485SOL     OW30293  14.624   1.306  11.890
 9485SOL    HW130294  14.554   1.244  11.910
 9485SOL    HW230295  14.704   1.264  11.922
 9486SOL     OW30296   7.236  13.394   0.275
 9486SOL    HW130297   7.177  13.349   0.214
 9486SOL    HW230298   7.189  13.395   0.358
 9487SOL     OW30299   1.681  13.580  10.668
 9487SOL    HW130300   1.676  13.605  10.760
 9487SOL    HW230301   1.773  13.558  10.654
 9488SOL     OW30302  13.427  12.211   4.161
 9488SOL    HW130303  13.364  12.160   4.212
 9488SOL    HW230304  13.460  12.277   4.222
 9489SOL     OW30305   5.050   0.092   9.635
 9489SOL    HW130306   5.027   0.089   9.542
 9489SOL    HW230307   5.115   0.161   9.641
 9490SOL     OW30308   0.935   0.050   4.149
 9490SOL    HW130309   1.002   0.087   4.092
 9490SOL    HW230310   0.945  14.829   4.140
 9491SOL     OW30311   0.027   2.655   0.365
 9491SOL    HW130312   0.118   2.629   0.351
 9491SOL    HW230313  14.849   2.593   0.314
 9492SOL     OW30314  13.346   9.853   8.846
 9492SOL    HW130315  13.353   9.765   8.883
 9492SOL    HW230316  13.255   9.879   8.862
 9493SOL     OW30317   6.260   5.242   0.189
 9493SOL    HW130318   6.331   5.305   0.180
 9493SOL    HW230319   6.251   5.230   0.284
 9494SOL     OW30320  12.344   3.808  13.252
 9494SOL    HW130321  12.270   3.862  13.224
 9494SOL    HW230322  12.327   3.721  13.215
 9495SOL     OW30323   7.526  10.394   8.619
 9495SOL    HW130324   7.528  10.411   8.713
 9495SOL    HW230325   7.616  10.410   8.590
 9496SOL     OW30326   1.838  12.675   8.099
 9496SOL    HW130327   1.910  12.626   8.137
 9496SOL    HW230328   1.765  12.660   8.159
 9497SOL     OW30329   9.153   2.413   6.447
 9497SOL    HW130330   9.124   2.433   6.536
 9497SOL    HW230331   9.160   2.318   6.445
 9498SOL     OW30332  14.225   2.816   1.058
 9498SOL    HW130333  14.144   2.810   1.007
 9498SOL    HW230334  14.195   2.831   1.148
 9499SOL     OW30335   8.444   3.355   4.333
 9499SOL    HW130336   8.482   3.413   4.267
 9499SOL    HW230337   8.477   3.388   4.416
 9500SOL     OW30338   0.721   0.394   4.777
 9500SOL    HW130339   0.781   0.383   4.851
 9500SOL    HW230340   0.755   0.469   4.729
 9501SOL     OW30341   5.191   4.878  13.558
 9501SOL    HW130342   5.103   4.915  13.549
 9501SOL    HW230343   5.193   4.843  13.647
 9502SOL     OW30344   4.302   1.909   2.223
 9502SOL    HW130345   4.302   1.817   2.247
 9502SOL    HW230346   4.292   1.910   2.127
 9503SOL     OW30347   1.957   3.579   2.897
 9503SOL    HW130348   1.868   3.555   2.923
 9503SOL    HW230349   1.972   3.533   2.815
 9504SOL     OW30350   0.553  10.953   4.208
 9504SOL    HW130351   0.632  10.932   4.258
 9504SOL    HW230352   0.584  11.006   4.135
 9505SOL     OW30353  12.116   3.819   8.289
 9505SOL    HW130354  12.114   3.799   8.196
 9505SOL    HW230355  12.187   3.765   8.324
 9506SOL     OW30356   9.783   6.236  10.442
 9506SOL    HW130357   9.720   6.179  10.488
 9506SOL    HW230358   9.761   6.324  10.471
 9507SOL     OW30359   8.406   6.305   4.242
 9507SOL    HW130360   8.340   6.349   4.188
 9507SOL    HW230361   8.400   6.213   4.217
 9508SOL     OW30362   0.220   2.069  12.231
 9508SOL    HW130363   0.124   2.075  12.237
 9508SOL    HW230364   0.249   2.159  12.223
 9509SOL     OW30365  12.946  10.924  12.729
 9509SOL    HW130366  13.002  10.948  12.655
 9509SOL    HW230367  12.932  10.830  12.719
 9510SOL     OW30368  14.065   0.175   1.418
 9510SOL    HW130369  14.130   0.166   1.348
 9510SOL    HW230370  14.014   0.095   1.413
 9511SOL     OW30371   0.339  11.219   1.170
 9511SOL    HW130372   0.398  11.179   1.234
 9511SOL    HW230373   0.346  11.313   1.186
 9512SOL     OW30374   8.962   2.420  10.017
 9512SOL    HW130375   9.011   2.432   9.936
 9512SOL    HW230376   9.007   2.475  10.081
 9513SOL     OW30377  10.489   3.539   9.060
 9513SOL    HW130378  10.562   3.530   8.999
 9513SOL    HW230379  10.456   3.627   9.046
 9514SOL     OW30380   4.282   6.577  11.128
 9514SOL    HW130381   4.276   6.640  11.201
 9514SOL    HW230382   4.371   6.586  11.095
 9515SOL     OW30383  14.292  13.346   5.463
 9515SOL    HW130384  14.358  13.291   5.504
 9515SOL    HW230385  14.342  13.416   5.421
 9516SOL     OW30386  10.784   0.599  11.455
 9516SOL    HW130387  10.869   0.558  11.471
 9516SOL    HW230388  10.721   0.544  11.501
 9517SOL     OW30389   3.789  10.976  14.164
 9517SOL    HW130390   3.716  10.928  14.204
 9517SOL    HW230391   3.804  10.931  14.080
 9518SOL     OW30392   5.104   9.546  10.144
 9518SOL    HW130393   5.106   9.576  10.054
 9518SOL    HW230394   5.034   9.596  10.185
 9519SOL     OW30395   0.725  10.573   7.808
 9519SOL    HW130396   0.759  10.626   7.880
 9519SOL    HW230397   0.646  10.532   7.842
 9520SOL     OW30398   0.623  13.102  11.884
 9520SOL    HW130399   0.602  13.031  11.945
 9520SOL    HW230400   0.538  13.136  11.857
 9521SOL     OW30401   3.470   6.978  11.824
 9521SOL    HW130402   3.418   6.976  11.743
 9521SOL    HW230403   3.405   6.963  11.893
 9522SOL     OW30404  13.639  14.065  14.719
 9522SOL    HW130405  13.644  13.970  14.726
 9522SOL    HW230406  13.727  14.092  14.692
 9523SOL     OW30407  11.333  10.974  10.321
 9523SOL    HW130408  11.295  10.912  10.258
 9523SOL    HW230409  11.427  10.969  10.308
 9524SOL     OW30410  11.546  12.492   6.067
 9524SOL    HW130411  11.625  12.537   6.037
 9524SOL    HW230412  11.542  12.413   6.013
 9525SOL     OW30413  11.780   0.375   6.205
 9525SOL    HW130414  11.807   0.375   6.113
 9525SOL    HW230415  11.790   0.284   6.233
 9526SOL     OW30416   7.194  10.716  13.586
 9526SOL    HW130417   7.270  10.704  13.643
 9526SOL    HW230418   7.173  10.629  13.554
 9527SOL     OW30419   1.099   6.750   0.603
 9527SOL    HW130420   1.030   6.697   0.643
 9527SOL    HW230421   1.053   6.809   0.543
 9528SOL     OW30422   4.291  12.006  14.229
 9528SOL    HW130423   4.268  12.095  14.258
 9528SOL    HW230424   4.321  11.963  14.309
 9529SOL     OW30425   5.915   9.484   8.086
 9529SOL    HW130426   6.003   9.478   8.123
 9529SOL    HW230427   5.926   9.457   7.995
 9530SOL     OW30428   1.754   6.649  14.689
 9530SOL    HW130429   1.664   6.651  14.724
 9530SOL    HW230430   1.756   6.571  14.634
 9531SOL     OW30431  10.080  10.739  11.330
 9531SOL    HW130432  10.108  10.651  11.304
 9531SOL    HW230433  10.121  10.796  11.265
 9532SOL     OW30434   6.567   5.012   1.243
 9532SOL    HW130435   6.540   5.073   1.312
 9532SOL    HW230436   6.504   5.028   1.172
 9533SOL     OW30437   2.034  10.372   2.292
 9533SOL    HW130438   2.098  10.307   2.323
 9533SOL    HW230439   2.075  10.409   2.214
 9534SOL     OW30440   5.116  14.358   9.520
 9534SOL    HW130441   5.048  14.368   9.453
 9534SOL    HW230442   5.194  14.331   9.471
 9535SOL     OW30443  14.362   5.471   6.352
 9535SOL    HW130444  14.388   5.513   6.270
 9535SOL    HW230445  14.391   5.531   6.421
 9536SOL     OW30446   0.009   8.388  14.625
 9536SOL    HW130447   0.009   8.356  14.535
 9536SOL    HW230448   0.029   8.311  14.678
 9537SOL     OW30449   1.508  10.600   5.830
 9537SOL    HW130450   1.452  10.617   5.906
 9537SOL    HW230451   1.482  10.667   5.766
 9538SOL     OW30452   7.068   7.345  14.329
 9538SOL    HW130453   7.108   7.302  14.254
 9538SOL    HW230454   7.004   7.405  14.292
 9539SOL     OW30455   2.537   3.088   0.894
 9539SOL    HW130456   2.598   3.154   0.928
 9539SOL    HW230457   2.468   3.138   0.852
 9540SOL     OW30458  13.277   3.036   6.273
 9540SOL    HW130459  13.190   3.013   6.307
 9540SOL    HW230460  13.310   2.953   6.238
 9541SOL     OW30461   7.407   2.705   1.084
 9541SOL    HW130462   7.451   2.638   1.033
 9541SOL    HW230463   7.314   2.686   1.074
 9542SOL     OW30464  12.509  14.542   2.745
 9542SOL    HW130465  12.589  14.535   2.796
 9542SOL    HW230466  12.467  14.622   2.777
 9543SOL     OW30467   4.895   2.165   5.935
 9543SOL    HW130468   4.811   2.157   5.890
 9543SOL    HW230469   4.894   2.095   6.000
 9544SOL     OW30470   3.729  12.568   3.184
 9544SOL    HW130471   3.690  12.629   3.247
 9544SOL    HW230472   3.757  12.624   3.111
 9545SOL     OW30473  10.907  11.095  13.238
 9545SOL    HW130474  11.001  11.110  13.233
 9545SOL    HW230475  10.875  11.163  13.298
 9546SOL     OW30476   1.604   2.284   9.777
 9546SOL    HW130477   1.515   2.264   9.748
 9546SOL    HW230478   1.660   2.229   9.722
 9547SOL     OW30479   3.804  12.896   3.907
 9547SOL    HW130480   3.857  12.891   3.827
 9547SOL    HW230481   3.754  12.814   3.908
 9548SOL     OW30482   2.470  11.432   1.776
 9548SOL    HW130483   2.506  11.452   1.690
 9548SOL    HW230484   2.495  11.506   1.831
 9549SOL     OW30485   2.724   7.366  12.644
 9549SOL    HW130486   2.761   7.390  12.729
 9549SOL    HW230487   2.635   7.402  12.645
 9550SOL     OW30488   4.251  11.731   0.494
 9550SOL    HW130489   4.198  11.777   0.429
 9550SOL    HW230490   4.319  11.794   0.518
 9551SOL     OW30491   2.742   2.559   4.022
 9551SOL    HW130492   2.763   2.588   3.933
 9551SOL    HW230493   2.670   2.497   4.011
 9552SOL     OW30494   5.425   3.913   0.455
 9552SOL    HW130495   5.400   3.858   0.529
 9552SOL    HW230496   5.398   3.863   0.378
 9553SOL     OW30497   6.542   0.347  11.790
 9553SOL    HW130498   6.578   0.308  11.711
 9553SOL    HW230499   6.504   0.274  11.838
 9554SOL     OW30500  11.198  12.230  14.021
 9554SOL    HW130501  11.106  12.225  13.995
 9554SOL    HW230502  11.246  12.195  13.946
 9555SOL     OW30503   3.691   8.423   5.545
 9555SOL    HW130504   3.658   8.482   5.613
 9555SOL    HW230505   3.663   8.462   5.463
 9556SOL     OW30506   9.091   6.297  13.986
 9556SOL    HW130507   9.107   6.383  13.947
 9556SOL    HW230508   9.082   6.314  14.079
 9557SOL     OW30509   0.804   7.128   3.297
 9557SOL    HW130510   0.749   7.204   3.319
 9557SOL    HW230511   0.755   7.084   3.227
 9558SOL     OW30512  13.433  13.894  14.124
 9558SOL    HW130513  13.350  13.913  14.167
 9558SOL    HW230514  13.411  13.887  14.031
 9559SOL     OW30515   5.463   1.407  13.359
 9559SOL    HW130516   5.511   1.324  13.365
 9559SOL    HW230517   5.445   1.432  13.449
 9560SOL     OW30518   7.409   7.148   2.297
 9560SOL    HW130519   7.384   7.181   2.383
 9560SOL    HW230520   7.442   7.059   2.314
 9561SOL     OW30521  14.856   9.644   5.756
 9561SOL    HW130522  14.871   9.689   5.674
 9561SOL    HW230523  14.780   9.688   5.794
 9562SOL     OW30524   5.218   1.454  10.939
 9562SOL    HW130525   5.259   1.505  10.869
 9562SOL    HW230526   5.288   1.396  10.970
 9563SOL     OW30527   3.306   3.596   3.790
 9563SOL    HW130528   3.312   3.666   3.854
 9563SOL    HW230529   3.322   3.516   3.840
 9564SOL     OW30530   8.037   4.406  10.429
 9564SOL    HW130531   8.117   4.459  10.426
 9564SOL    HW230532   7.976   4.450  10.370
 9565SOL     OW30533  10.170   0.362  12.185
 9565SOL    HW130534  10.252   0.377  12.139
 9565SOL    HW230535  10.186   0.393  12.274
 9566SOL     OW30536   0.549   8.670   1.640
 9566SOL    HW130537   0.495   8.599   1.606
 9566SOL    HW230538   0.517   8.684   1.729
 9567SOL     OW30539   6.162  14.699   2.338
 9567SOL    HW130540   6.256  14.712   2.351
 9567SOL    HW230541   6.125  14.787   2.338
 9568SOL     OW30542   4.349  12.780   2.404
 9568SOL    HW130543   4.299  12.780   2.322
 9568SOL    HW230544   4.283  12.783   2.473
 9569SOL     OW30545   3.075   4.859   1.752
 9569SOL    HW130546   3.140   4.806   1.799
 9569SOL    HW230547   3.044   4.802   1.682
 9570SOL     OW30548   6.706   5.500   2.245
 9570SOL    HW130549   6.715   5.435   2.316
 9570SOL    HW230550   6.747   5.579   2.281
 9571SOL     OW30551  11.331  14.648  10.200
 9571SOL    HW130552  11.258  14.642  10.138
 9571SOL    HW230553  11.361  14.739  10.192
 9572SOL     OW30554  12.221  12.393   3.254
 9572SOL    HW130555  12.265  12.404   3.338
 9572SOL    HW230556  12.154  12.326   3.270
 9573SOL     OW30557   8.052   7.445   2.848
 9573SOL    HW130558   8.044   7.367   2.792
 9573SOL    HW230559   8.061   7.518   2.787
 9574SOL     OW30560   6.582  12.168   8.982
 9574SOL    HW130561   6.522  12.114   9.033
 9574SOL    HW230562   6.525  12.233   8.940
 9575SOL     OW30563   0.343   8.011  14.302
 9575SOL    HW130564   0.428   7.969  14.313
 9575SOL    HW230565   0.281   7.938  14.294
 9576SOL     OW30566  13.384  12.282  10.021
 9576SOL    HW130567  13.395  12.204   9.967
 9576SOL    HW230568  13.291  12.283  10.044
 9577SOL     OW30569  10.403  11.323   5.043
 9577SOL    HW130570  10.399  11.390   4.974
 9577SOL    HW230571  10.340  11.256   5.015
 9578SOL     OW30572  14.698   2.677  11.696
 9578SOL    HW130573  14.757   2.602  11.697
 9578SOL    HW230574  14.614   2.641  11.666
 9579SOL     OW30575  12.065   9.306   4.057
 9579SOL    HW130576  12.092   9.255   4.133
 9579SOL    HW230577  12.061   9.242   3.986
 9580SOL     OW30578   1.526   0.324  11.614
 9580SOL    HW130579   1.459   0.265  11.650
 9580SOL    HW230580   1.479   0.405  11.596
 9581SOL     OW30581   7.303   8.910  13.076
 9581SOL    HW130582   7.233   8.883  13.017
 9581SOL    HW230583   7.260   8.915  13.162
 9582SOL     OW30584   6.060   3.194  13.384
 9582SOL    HW130585   6.150   3.217  13.358
 9582SOL    HW230586   6.047   3.107  13.348
 9583SOL     OW30587   8.259   1.147  10.317
 9583SOL    HW130588   8.253   1.061  10.357
 9583SOL    HW230589   8.289   1.205  10.387
 9584SOL     OW30590   4.085   0.713  10.649
 9584SOL    HW130591   4.054   0.784  10.592
 9584SOL    HW230592   4.028   0.639  10.629
 9585SOL     OW30593  10.511   9.884   2.381
 9585SOL    HW130594  10.508   9.957   2.443
 9585SOL    HW230595  10.475   9.920   2.300
 9586SOL     OW30596   5.762   9.408   7.672
 9586SOL    HW130597   5.748   9.467   7.598
 9586SOL    HW230598   5.680   9.359   7.679
 9587SOL     OW30599  12.946  11.859   8.790
 9587SOL    HW130600  12.936  11.928   8.856
 9587SOL    HW230601  13.022  11.887   8.738
 9588SOL     OW30602   7.508   0.976   9.128
 9588SOL    HW130603   7.574   1.015   9.185
 9588SOL    HW230604   7.450   0.929   9.187
 9589SOL     OW30605   3.761   9.582   6.372
 9589SOL    HW130606   3.825   9.623   6.430
 9589SOL    HW230607   3.697   9.543   6.431
 9590SOL     OW30608   7.535   1.326   7.135
 9590SOL    HW130609   7.596   1.392   7.167
 9590SOL    HW230610   7.530   1.261   7.205
 9591SOL     OW30611   6.576   1.666  14.246
 9591SOL    HW130612   6.482   1.652  14.256
 9591SOL    HW230613   6.594   1.744  14.298
 9592SOL     OW30614   8.653  13.572   7.240
 9592SOL    HW130615   8.643  13.667   7.240
 9592SOL    HW230616   8.683  13.551   7.329
 9593SOL     OW30617   7.851  12.758  10.017
 9593SOL    HW130618   7.781  12.795   9.964
 9593SOL    HW230619   7.898  12.699   9.958
 9594SOL     OW30620   4.809   5.592   1.086
 9594SOL    HW130621   4.718   5.571   1.105
 9594SOL    HW230622   4.805   5.651   1.010
 9595SOL     OW30623  11.621   6.015   0.395
 9595SOL    HW130624  11.647   6.051   0.310
 9595SOL    HW230625  11.672   6.064   0.459
 9596SOL     OW30626  10.625   2.562  14.822
 9596SOL    HW130627  10.562   2.585  14.753
 9596SOL    HW230628  10.579   2.582   0.030
 9597SOL     OW30629   6.182  11.399   0.256
 9597SOL    HW130630   6.234  11.320   0.250
 9597SOL    HW230631   6.152  11.415   0.167
 9598SOL     OW30632   0.210   5.299  14.456
 9598SOL    HW130633   0.295   5.338  14.478
 9598SOL    HW230634   0.231   5.227  14.397
 9599SOL     OW30635  11.659   1.074  12.310
 9599SOL    HW130636  11.642   1.123  12.391
 9599SOL    HW230637  11.693   0.989  12.340
 9600SOL     OW30638  13.773   4.782  14.380
 9600SOL    HW130639  13.772   4.745  14.468
 9600SOL    HW230640  13.681   4.783  14.353
 9601SOL     OW30641   1.710   2.167   4.623
 9601SOL    HW130642   1.625   2.194   4.658
 9601SOL    HW230643   1.702   2.181   4.528
 9602SOL     OW30644   5.731  13.473  12.454
 9602SOL    HW130645   5.727  13.568  12.465
 9602SOL    HW230646   5.722  13.459  12.360
 9603SOL     OW30647   9.138  12.935   0.432
 9603SOL    HW130648   9.159  13.018   0.474
 9603SOL    HW230649   9.124  12.874   0.505
 9604SOL     OW30650   1.046   2.740   3.511
 9604SOL    HW130651   1.063   2.771   3.423
 9604SOL    HW230652   0.964   2.782   3.537
 9605SOL     OW30653   6.974   5.093  11.717
 9605SOL    HW130654   6.919   5.082  11.794
 9605SOL    HW230655   7.062   5.070  11.746
 9606SOL     OW30656   7.896   4.780  14.536
 9606SOL    HW130657   7.868   4.852  14.593
 9606SOL    HW230658   7.976   4.747  14.576
 9607SOL     OW30659   2.934  13.241  13.431
 9607SOL    HW130660   2.860  13.281  13.385
 9607SOL    HW230661   2.930  13.149  13.407
 9608SOL     OW30662   8.367   6.166  13.940
 9608SOL    HW130663   8.441   6.110  13.963
 9608SOL    HW230664   8.392   6.206  13.857
 9609SOL     OW30665   0.428   8.795   3.206
 9609SOL    HW130666   0.337   8.773   3.230
 9609SOL    HW230667   0.466   8.711   3.180
 9610SOL     OW30668   2.949  11.722   2.299
 9610SOL    HW130669   3.004  11.785   2.252
 9610SOL    HW230670   2.863  11.730   2.258
 9611SOL     OW30671   2.892   4.753   1.507
 9611SOL    HW130672   2.835   4.695   1.557
 9611SOL    HW230673   2.833   4.806   1.454
 9612SOL     OW30674   2.181   8.079   0.403
 9612SOL    HW130675   2.261   8.053   0.356
 9612SOL    HW230676   2.207   8.155   0.454
 9613SOL     OW30677  10.834  13.147  11.132
 9613SOL    HW130678  10.772  13.077  11.152
 9613SOL    HW230679  10.920  13.105  11.133
 9614SOL     OW30680   2.374  10.673   5.295
 9614SOL    HW130681   2.456  10.633   5.323
 9614SOL    HW230682   2.399  10.736   5.228
 9615SOL     OW30683   2.688  13.065  11.183
 9615SOL    HW130684   2.695  13.148  11.136
 9615SOL    HW230685   2.620  13.080  11.249
 9616SOL     OW30686   5.314   6.457  14.615
 9616SOL    HW130687   5.399   6.429  14.650
 9616SOL    HW230688   5.283   6.382  14.565
 9617SOL     OW30689   4.160  13.001  14.767
 9617SOL    HW130690   4.084  13.059  14.768
 9617SOL    HW230691   4.235  13.058  14.785
 9618SOL     OW30692  12.893  12.210   9.151
 9618SOL    HW130693  12.841  12.131   9.135
 9618SOL    HW230694  12.835  12.282   9.126
 9619SOL     OW30695  11.117   3.806   8.577
 9619SOL    HW130696  11.134   3.726   8.527
 9619SOL    HW230697  11.199   3.822   8.624
 9620SOL     OW30698  10.607   4.322   8.445
 9620SOL    HW130699  10.663   4.251   8.474
 9620SOL    HW230700  10.666   4.384   8.403
 9621SOL     OW30701   7.708   2.544  11.879
 9621SOL    HW130702   7.678   2.457  11.905
 9621SOL    HW230703   7.701   2.596  11.960
 9622SOL     OW30704   6.528   6.376   8.988
 9622SOL    HW130705   6.476   6.456   8.979
 9622SOL    HW230706   6.489   6.315   8.926
 9623SOL     OW30707   2.406   1.847   3.789
 9623SOL    HW130708   2.499   1.828   3.781
 9623SOL    HW230709   2.363   1.770   3.752
 9624SOL     OW30710   5.521   9.617   8.389
 9624SOL    HW130711   5.459   9.675   8.345
 9624SOL    HW230712   5.562   9.568   8.318
 9625SOL     OW30713   0.795   0.564  11.228
 9625SOL    HW130714   0.818   0.480  11.267
 9625SOL    HW230715   0.733   0.543  11.158
 9626SOL     OW30716   4.611  11.319   2.179
 9626SOL    HW130717   4.618  11.345   2.271
 9626SOL    HW230718   4.527  11.273   2.174
 9627SOL     OW30719  12.864   2.222   6.959
 9627SOL    HW130720  12.891   2.244   7.048
 9627SOL    HW230721  12.871   2.305   6.911
 9628SOL     OW30722   7.589  13.913   7.621
 9628SOL    HW130723   7.645  13.845   7.584
 9628SOL    HW230724   7.549  13.955   7.544
 9629SOL     OW30725   9.457  14.029   4.231
 9629SOL    HW130726   9.491  14.059   4.315
 9629SOL    HW230727   9.371  13.993   4.251
 9630SOL     OW30728  13.832   8.217   7.710
 9630SOL    HW130729  13.869   8.282   7.771
 9630SOL    HW230730  13.806   8.268   7.634
 9631SOL     OW30731   3.226   1.542   4.391
 9631SOL    HW130732   3.314   1.569   4.364
 9631SOL    HW230733   3.167   1.600   4.342
 9632SOL     OW30734  14.688   5.095   1.448
 9632SOL    HW130735  14.727   5.092   1.361
 9632SOL    HW230736  14.610   5.150   1.438
 9633SOL     OW30737  12.062   1.448   0.087
 9633SOL    HW130738  11.969   1.458   0.107
 9633SOL    HW230739  12.065   1.445  14.864
 9634SOL     OW30740   2.693  10.463   1.355
 9634SOL    HW130741   2.625  10.528   1.343
 9634SOL    HW230742   2.731  10.452   1.268
 9635SOL     OW30743   3.874   4.576  13.054
 9635SOL    HW130744   3.794   4.547  13.097
 9635SOL    HW230745   3.845   4.621  12.975
 9636SOL     OW30746  13.122  10.873   8.739
 9636SOL    HW130747  13.155  10.862   8.828
 9636SOL    HW230748  13.032  10.903   8.750
 9637SOL     OW30749  12.384   7.530   6.402
 9637SOL    HW130750  12.451   7.578   6.451
 9637SOL    HW230751  12.369   7.583   6.324
 9638SOL     OW30752   6.514   0.242   2.952
 9638SOL    HW130753   6.424   0.248   2.921
 9638SOL    HW230754   6.539   0.333   2.970
 9639SOL     OW30755  13.865  10.849   9.523
 9639SOL    HW130756  13.820  10.768   9.548
 9639SOL    HW230757  13.951  10.820   9.492
 9640SOL     OW30758   3.611   9.664  12.879
 9640SOL    HW130759   3.625   9.576  12.912
 9640SOL    HW230760   3.541   9.655  12.815
 9641SOL     OW30761  13.053  12.073   1.903
 9641SOL    HW130762  12.978  12.099   1.850
 9641SOL    HW230763  13.128  12.116   1.861
 9642SOL     OW30764  12.268   3.962  10.252
 9642SOL    HW130765  12.350   3.989  10.295
 9642SOL    HW230766  12.199   4.004  10.304
 9643SOL     OW30767   9.366  13.925   2.397
 9643SOL    HW130768   9.337  13.936   2.307
 9643SOL    HW230769   9.385  14.014   2.428
 9644SOL     OW30770   7.274  10.612   5.338
 9644SOL    HW130771   7.192  10.570   5.313
 9644SOL    HW230772   7.339  10.578   5.277
 9645SOL     OW30773  13.591   5.161   8.124
 9645SOL    HW130774  13.555   5.241   8.086
 9645SOL    HW230775  13.548   5.154   8.210
 9646SOL     OW30776  11.434   9.925   7.604
 9646SOL    HW130777  11.390   9.856   7.654
 9646SOL    HW230778  11.514   9.884   7.571
 9647SOL     OW30779   9.898   5.556   5.633
 9647SOL    HW130780   9.902   5.572   5.727
 9647SOL    HW230781   9.988   5.535   5.609
 9648SOL     OW30782   0.689   8.752  14.510
 9648SOL    HW130783   0.725   8.808  14.579
 9648SOL    HW230784   0.709   8.663  14.539
 9649SOL     OW30785   7.433   7.903   2.582
 9649SOL    HW130786   7.505   7.893   2.519
 9649SOL    HW230787   7.428   7.818   2.626
 9650SOL     OW30788   8.298  13.233   6.274
 9650SOL    HW130789   8.267  13.285   6.348
 9650SOL    HW230790   8.228  13.237   6.210
 9651SOL     OW30791  11.293  13.401  10.395
 9651SOL    HW130792  11.321  13.429  10.482
 9651SOL    HW230793  11.269  13.309  10.407
 9652SOL     OW30794  13.659   9.563   7.501
 9652SOL    HW130795  13.701   9.520   7.576
 9652SOL    HW230796  13.633   9.649   7.535
 9653SOL     OW30797   0.419   8.260  13.274
 9653SOL    HW130798   0.450   8.291  13.189
 9653SOL    HW230799   0.426   8.336  13.331
 9654SOL     OW30800   8.643   2.027  10.070
 9654SOL    HW130801   8.725   2.049  10.026
 9654SOL    HW230802   8.575   2.042  10.004
 9655SOL     OW30803   9.787  10.758   5.114
 9655SOL    HW130804   9.712  10.743   5.055
 9655SOL    HW230805   9.849  10.689   5.092
 9656SOL     OW30806  10.513   8.318   6.774
 9656SOL    HW130807  10.604   8.290   6.760
 9656SOL    HW230808  10.519   8.390   6.836
 9657SOL     OW30809   7.160  13.363  11.373
 9657SOL    HW130810   7.225  13.409  11.425
 9657SOL    HW230811   7.194  13.275  11.364
 9658SOL     OW30812   0.696   9.211   4.042
 9658SOL    HW130813   0.742   9.127   4.043
 9658SOL    HW230814   0.638   9.207   4.118
 9659SOL     OW30815   2.846   0.920   2.168
 9659SOL    HW130816   2.916   0.867   2.129
 9659SOL    HW230817   2.885   1.006   2.181
 9660SOL     OW30818   2.306   6.549   0.990
 9660SOL    HW130819   2.262   6.562   1.073
 9660SOL    HW230820   2.278   6.462   0.961
 9661SOL     OW30821   6.774   1.111  14.186
 9661SOL    HW130822   6.800   1.078  14.100
 9661SOL    HW230823   6.798   1.204  14.185
 9662SOL     OW30824   9.859   9.161  14.526
 9662SOL    HW130825   9.868   9.078  14.573
 9662SOL    HW230826   9.942   9.173  14.480
 9663SOL     OW30827  12.362  10.444   6.262
 9663SOL    HW130828  12.277  10.409   6.235
 9663SOL    HW230829  12.390  10.386   6.333
 9664SOL     OW30830   7.267   0.127  13.752
 9664SOL    HW130831   7.199   0.157  13.692
 9664SOL    HW230832   7.235   0.044  13.786
 9665SOL     OW30833  10.288  10.662   3.854
 9665SOL    HW130834  10.219  10.668   3.788
 9665SOL    HW230835  10.285  10.571   3.883
 9666SOL     OW30836  11.142   4.361   7.351
 9666SOL    HW130837  11.085   4.286   7.332
 9666SOL    HW230838  11.227   4.336   7.317
 9667SOL     OW30839  10.635   3.182   1.860
 9667SOL    HW130840  10.573   3.144   1.922
 9667SOL    HW230841  10.693   3.236   1.914
 9668SOL     OW30842   2.349   9.735   5.838
 9668SOL    HW130843   2.403   9.663   5.805
 9668SOL    HW230844   2.263   9.722   5.798
 9669SOL     OW30845   9.955  11.626   4.237
 9669SOL    HW130846  10.046  11.614   4.263
 9669SOL    HW230847   9.936  11.551   4.181
 9670SOL     OW30848   8.950   0.736  14.650
 9670SOL    HW130849   8.960   0.799  14.579
 9670SOL    HW230850   8.857   0.711  14.647
 9671SOL     OW30851   7.434   9.090  12.895
 9671SOL    HW130852   7.492   9.150  12.942
 9671SOL    HW230853   7.401   9.031  12.964
 9672SOL     OW30854   9.828  14.444   3.666
 9672SOL    HW130855   9.840  14.418   3.757
 9672SOL    HW230856   9.807  14.537   3.670
 9673SOL     OW30857   8.925   9.179   3.783
 9673SOL    HW130858   8.835   9.148   3.791
 9673SOL    HW230859   8.956   9.140   3.701
 9674SOL     OW30860  12.223  14.771  10.549
 9674SOL    HW130861  12.248  14.860  10.521
 9674SOL    HW230862  12.271  14.758  10.631
 9675SOL     OW30863   8.000   8.928  12.976
 9675SOL    HW130864   7.975   8.993  13.042
 9675SOL    HW230865   7.928   8.864  12.978
 9676SOL     OW30866   8.412   5.999   7.029
 9676SOL    HW130867   8.383   5.912   7.002
 9676SOL    HW230868   8.466   5.983   7.106
 9677SOL     OW30869  11.723   0.505   3.522
 9677SOL    HW130870  11.644   0.463   3.554
 9677SOL    HW230871  11.717   0.498   3.426
 9678SOL     OW30872   5.398   1.691   0.537
 9678SOL    HW130873   5.458   1.765   0.525
 9678SOL    HW230874   5.357   1.680   0.451
 9679SOL     OW30875   5.146   3.441   8.400
 9679SOL    HW130876   5.196   3.487   8.467
 9679SOL    HW230877   5.105   3.368   8.447
 9680SOL     OW30878   3.574   9.219   5.158
 9680SOL    HW130879   3.564   9.265   5.241
 9680SOL    HW230880   3.666   9.231   5.135
 9681SOL     OW30881  13.436  14.428   8.288
 9681SOL    HW130882  13.374  14.466   8.349
 9681SOL    HW230883  13.382  14.383   8.223
 9682SOL     OW30884  13.590   3.387   8.419
 9682SOL    HW130885  13.591   3.474   8.378
 9682SOL    HW230886  13.522   3.393   8.486
 9683SOL     OW30887  14.392   0.301   6.567
 9683SOL    HW130888  14.443   0.222   6.588
 9683SOL    HW230889  14.317   0.298   6.627
 9684SOL     OW30890   4.732   0.785  13.305
 9684SOL    HW130891   4.679   0.719  13.349
 9684SOL    HW230892   4.682   0.866  13.315
 9685SOL     OW30893   3.061   8.462   9.764
 9685SOL    HW130894   2.972   8.497   9.777
 9685SOL    HW230895   3.108   8.488   9.843
 9686SOL     OW30896   6.224   7.576   1.798
 9686SOL    HW130897   6.270   7.578   1.714
 9686SOL    HW230898   6.248   7.659   1.840
 9687SOL     OW30899   3.663   2.712   3.381
 9687SOL    HW130900   3.639   2.744   3.467
 9687SOL    HW230901   3.710   2.630   3.398
 9688SOL     OW30902   3.401   2.870   2.515
 9688SOL    HW130903   3.377   2.786   2.553
 9688SOL    HW230904   3.318   2.908   2.485
 9689SOL     OW30905   1.092   3.746   0.415
 9689SOL    HW130906   1.077   3.771   0.323
 9689SOL    HW230907   1.005   3.727   0.449
 9690SOL     OW30908  11.273  14.654  13.533
 9690SOL    HW130909  11.257  14.742  13.497
 9690SOL    HW230910  11.239  14.595  13.467
 9691SOL     OW30911   1.942   3.240   8.335
 9691SOL    HW130912   2.024   3.191   8.336
 9691SOL    HW230913   1.967   3.328   8.309
 9692SOL     OW30914   8.716   0.536   4.513
 9692SOL    HW130915   8.668   0.599   4.460
 9692SOL    HW230916   8.690   0.451   4.478
 9693SOL     OW30917   2.126   1.640  10.963
 9693SOL    HW130918   2.162   1.624  11.050
 9693SOL    HW230919   2.203   1.661  10.909
 9694SOL     OW30920   9.508   2.431   5.907
 9694SOL    HW130921   9.568   2.466   5.840
 9694SOL    HW230922   9.423   2.427   5.863
 9695SOL     OW30923   9.819   5.821   2.508
 9695SOL    HW130924   9.839   5.728   2.502
 9695SOL    HW230925   9.894   5.859   2.554
 9696SOL     OW30926   7.797   2.339   5.066
 9696SOL    HW130927   7.732   2.386   5.119
 9696SOL    HW230928   7.768   2.248   5.069
 9697SOL     OW30929   2.077   8.687  13.097
 9697SOL    HW130930   2.043   8.677  13.186
 9697SOL    HW230931   2.067   8.781  13.078
 9698SOL     OW30932  10.886   1.616  11.609
 9698SOL    HW130933  10.795   1.597  11.632
 9698SOL    HW230934  10.900   1.566  11.528
 9699SOL     OW30935   7.692  10.713   1.194
 9699SOL    HW130936   7.630  10.785   1.207
 9699SOL    HW230937   7.771  10.742   1.238
 9700SOL     OW30938   2.208   9.280   2.400
 9700SOL    HW130939   2.222   9.375   2.399
 9700SOL    HW230940   2.208   9.255   2.308
 9701SOL     OW30941   4.833   6.661  10.177
 9701SOL    HW130942   4.845   6.639  10.270
 9701SOL    HW230943   4.743   6.637  10.158
 9702SOL     OW30944   5.357   1.554   2.701
 9702SOL    HW130945   5.348   1.649   2.705
 9702SOL    HW230946   5.354   1.533   2.608
 9703SOL     OW30947  13.998  13.466   0.638
 9703SOL    HW130948  14.063  13.400   0.615
 9703SOL    HW230949  13.928  13.417   0.680
 9704SOL     OW30950  12.646   5.893  12.030
 9704SOL    HW130951  12.711   5.951  12.069
 9704SOL    HW230952  12.602   5.947  11.964
 9705SOL     OW30953  14.834  11.456   6.364
 9705SOL    HW130954  14.794  11.473   6.449
 9705SOL    HW230955  14.769  11.405   6.316
 9706SOL     OW30956   6.707  13.305   5.210
 9706SOL    HW130957   6.780  13.319   5.150
 9706SOL    HW230958   6.683  13.393   5.240
 9707SOL     OW30959  10.252   1.037  12.705
 9707SOL    HW130960  10.295   0.989  12.634
 9707SOL    HW230961  10.279   0.992  12.785
 9708SOL     OW30962   2.551   9.101  10.176
 9708SOL    HW130963   2.624   9.126  10.233
 9708SOL    HW230964   2.475   9.099  10.235
 9709SOL     OW30965  13.309   3.965   4.964
 9709SOL    HW130966  13.297   3.960   5.059
 9709SOL    HW230967  13.363   3.889   4.943
 9710SOL     OW30968   0.585   1.568   0.858
 9710SOL    HW130969   0.515   1.607   0.807
 9710SOL    HW230970   0.640   1.522   0.794
 9711SOL     OW30971   3.664   5.738   0.568
 9711SOL    HW130972   3.672   5.832   0.550
 9711SOL    HW230973   3.726   5.697   0.507
 9712SOL     OW30974   1.498   7.446   3.220
 9712SOL    HW130975   1.407   7.420   3.232
 9712SOL    HW230976   1.493   7.526   3.167
 9713SOL     OW30977   0.586   9.610   9.328
 9713SOL    HW130978   0.636   9.675   9.377
 9713SOL    HW230979   0.505   9.599   9.379
 9714SOL     OW30980   2.134   7.109  13.278
 9714SOL    HW130981   2.162   7.069  13.361
 9714SOL    HW230982   2.141   7.038  13.214
 9715SOL     OW30983   1.982   1.496   3.526
 9715SOL    HW130984   1.914   1.435   3.556
 9715SOL    HW230985   2.061   1.443   3.520
 9716SOL     OW30986  13.725   8.641   6.614
 9716SOL    HW130987  13.820   8.647   6.613
 9716SOL    HW230988  13.705   8.585   6.690
 9717SOL     OW30989  14.198   5.998   6.741
 9717SOL    HW130990  14.114   5.952   6.735
 9717SOL    HW230991  14.260   5.930   6.768
 9718SOL     OW30992   9.561   0.783   2.755
 9718SOL    HW130993   9.576   0.689   2.757
 9718SOL    HW230994   9.481   0.796   2.806
 9719SOL     OW30995  13.187  14.411   0.211
 9719SOL    HW130996  13.210  14.451   0.127
 9719SOL    HW230997  13.092  14.404   0.209
 9720SOL     OW30998   3.077   2.730  12.749
 9720SOL    HW130999   3.016   2.668  12.708
 9720SOL    HW231000   3.164   2.699  12.722
 9721SOL     OW31001   1.221   0.928   9.853
 9721SOL    HW131002   1.237   1.004   9.796
 9721SOL    HW231003   1.308   0.891   9.869
 9722SOL     OW31004  13.820   0.855  10.461
 9722SOL    HW131005  13.818   0.781  10.522
 9722SOL    HW231006  13.912   0.879  10.455
 9723SOL     OW31007   6.732   4.682   4.418
 9723SOL    HW131008   6.770   4.666   4.332
 9723SOL    HW231009   6.637   4.674   4.405
 9724SOL     OW31010   9.835   9.305  14.161
 9724SOL    HW131011   9.872   9.241  14.222
 9724SOL    HW231012   9.793   9.251  14.093
 9725SOL     OW31013   1.992   5.100   1.248
 9725SOL    HW131014   2.073   5.054   1.269
 9725SOL    HW231015   1.951   5.115   1.333
 9726SOL     OW31016   1.803   7.508   2.629
 9726SOL    HW131017   1.804   7.581   2.690
 9726SOL    HW231018   1.713   7.474   2.634
 9727SOL     OW31019  12.919   7.327   7.935
 9727SOL    HW131020  12.827   7.304   7.926
 9727SOL    HW231021  12.919   7.404   7.992
 9728SOL     OW31022   2.282   2.948   2.842
 9728SOL    HW131023   2.284   2.960   2.747
 9728SOL    HW231024   2.374   2.939   2.867
 9729SOL     OW31025  12.996  12.435  10.556
 9729SOL    HW131026  13.053  12.510  10.539
 9729SOL    HW231027  12.969  12.406  10.469
 9730SOL     OW31028   0.331   6.237   8.035
 9730SOL    HW131029   0.311   6.185   7.957
 9730SOL    HW231030   0.249   6.282   8.056
 9731SOL     OW31031  13.980   8.256   8.867
 9731SOL    HW131032  14.074   8.249   8.883
 9731SOL    HW231033  13.971   8.243   8.773
 9732SOL     OW31034   6.573  13.590   5.020
 9732SOL    HW131035   6.584  13.685   5.024
 9732SOL    HW231036   6.492  13.573   5.069
 9733SOL     OW31037  12.557   5.572  14.655
 9733SOL    HW131038  12.490   5.529  14.708
 9733SOL    HW231039  12.566   5.517  14.577
 9734SOL     OW31040  14.451  14.072   2.736
 9734SOL    HW131041  14.527  14.060   2.793
 9734SOL    HW231042  14.467  14.155   2.691
 9735SOL     OW31043   5.328   5.663   5.286
 9735SOL    HW131044   5.415   5.700   5.274
 9735SOL    HW231045   5.339   5.600   5.357
 9736SOL     OW31046   8.317   9.526   5.448
 9736SOL    HW131047   8.343   9.490   5.363
 9736SOL    HW231048   8.272   9.608   5.427
 9737SOL     OW31049   4.496  12.095   7.292
 9737SOL    HW131050   4.554  12.055   7.357
 9737SOL    HW231051   4.464  12.022   7.240
 9738SOL     OW31052   5.997   8.314   4.139
 9738SOL    HW131053   5.910   8.344   4.113
 9738SOL    HW231054   6.056   8.354   4.075
 9739SOL     OW31055  11.679   8.826  10.443
 9739SOL    HW131056  11.614   8.863  10.384
 9739SOL    HW231057  11.741   8.782  10.385
 9740SOL     OW31058  10.205   8.621  14.413
 9740SOL    HW131059  10.146   8.566  14.465
 9740SOL    HW231060  10.257   8.559  14.362
 9741SOL     OW31061  14.820   6.385   3.595
 9741SOL    HW131062  14.740   6.333   3.586
 9741SOL    HW231063  14.799   6.468   3.553
 9742SOL     OW31064   6.452   9.988  12.063
 9742SOL    HW131065   6.430   9.990  12.156
 9742SOL    HW231066   6.527  10.046  12.054
 9743SOL     OW31067   3.930  11.308   3.363
 9743SOL    HW131068   3.873  11.277   3.292
 9743SOL    HW231069   3.948  11.399   3.340
 9744SOL     OW31070   3.871  14.035   6.758
 9744SOL    HW131071   3.781  14.021   6.728
 9744SOL    HW231072   3.882  14.129   6.757
 9745SOL     OW31073   1.032   3.198   1.899
 9745SOL    HW131074   0.949   3.193   1.852
 9745SOL    HW231075   1.044   3.291   1.918
 9746SOL     OW31076   8.214  13.114  14.722
 9746SOL    HW131077   8.295  13.063  14.710
 9746SOL    HW231078   8.240  13.186  14.780
 9747SOL     OW31079  13.476   0.918  13.538
 9747SOL    HW131080  13.559   0.948  13.500
 9747SOL    HW231081  13.493   0.917  13.632
 9748SOL     OW31082   8.597   8.061   5.714
 9748SOL    HW131083   8.627   7.996   5.778
 9748SOL    HW231084   8.645   8.141   5.738
 9749SOL     OW31085   2.633   1.642   2.083
 9749SOL    HW131086   2.637   1.737   2.090
 9749SOL    HW231087   2.563   1.616   2.143
 9750SOL     OW31088   3.440   8.322  14.157
 9750SOL    HW131089   3.378   8.269  14.207
 9750SOL    HW231090   3.393   8.403  14.138
 9751SOL     OW31091   9.243   4.392   5.047
 9751SOL    HW131092   9.222   4.354   4.961
 9751SOL    HW231093   9.289   4.473   5.027
 9752SOL     OW31094   3.429   8.421   6.719
 9752SOL    HW131095   3.458   8.445   6.631
 9752SOL    HW231096   3.362   8.355   6.704
 9753SOL     OW31097  14.377  10.197  13.056
 9753SOL    HW131098  14.365  10.141  13.132
 9753SOL    HW231099  14.472  10.211  13.051
 9754SOL     OW31100   7.304  13.180  13.664
 9754SOL    HW131101   7.385  13.171  13.613
 9754SOL    HW231102   7.328  13.155  13.753
 9755SOL     OW31103   2.146  12.588   1.423
 9755SOL    HW131104   2.130  12.681   1.411
 9755SOL    HW231105   2.242  12.579   1.421
 9756SOL     OW31106   4.946  10.954   9.230
 9756SOL    HW131107   4.984  11.035   9.198
 9756SOL    HW231108   4.979  10.945   9.320
 9757SOL     OW31109  13.521   4.637  12.348
 9757SOL    HW131110  13.556   4.718  12.311
 9757SOL    HW231111  13.469   4.665  12.423
 9758SOL     OW31112   5.068   4.497   3.747
 9758SOL    HW131113   5.096   4.585   3.772
 9758SOL    HW231114   5.040   4.505   3.656
 9759SOL     OW31115   9.045   3.015  11.877
 9759SOL    HW131116   9.038   3.109  11.859
 9759SOL    HW231117   9.120   3.007  11.937
 9760SOL     OW31118   9.192   2.373   1.511
 9760SOL    HW131119   9.209   2.288   1.552
 9760SOL    HW231120   9.251   2.433   1.555
 9761SOL     OW31121   4.599  10.729   8.496
 9761SOL    HW131122   4.678  10.676   8.510
 9761SOL    HW231123   4.589  10.732   8.401
 9762SOL     OW31124   8.479   2.049   6.851
 9762SOL    HW131125   8.452   2.064   6.942
 9762SOL    HW231126   8.453   1.959   6.833
 9763SOL     OW31127   0.216  14.311   1.576
 9763SOL    HW131128   0.172  14.389   1.540
 9763SOL    HW231129   0.302  14.312   1.534
 9764SOL     OW31130   8.578   4.441   1.964
 9764SOL    HW131131   8.629   4.411   1.888
 9764SOL    HW231132   8.543   4.361   2.002
 9765SOL     OW31133   5.047  10.883  10.087
 9765SOL    HW131134   5.094  10.804  10.115
 9765SOL    HW231135   5.110  10.954  10.103
 9766SOL     OW31136  12.353  12.853   5.564
 9766SOL    HW131137  12.345  12.761   5.540
 9766SOL    HW231138  12.328  12.901   5.485
 9767SOL     OW31139   5.334   2.082   2.502
 9767SOL    HW131140   5.396   2.085   2.430
 9767SOL    HW231141   5.306   2.173   2.513
 9768SOL     OW31142   0.335   8.499  10.014
 9768SOL    HW131143   0.397   8.490  10.086
 9768SOL    HW231144   0.388   8.485   9.935
 9769SOL     OW31145   9.316   0.094  11.038
 9769SOL    HW131146   9.255   0.115  11.108
 9769SOL    HW231147   9.293   0.153  10.967
 9770SOL     OW31148  14.736   8.863  11.398
 9770SOL    HW131149  14.824   8.858  11.362
 9770SOL    HW231150  14.697   8.940  11.356
 9771SOL     OW31151   8.793   1.208   5.389
 9771SOL    HW131152   8.735   1.254   5.328
 9771SOL    HW231153   8.743   1.132   5.418
 9772SOL     OW31154   3.725  13.323   2.425
 9772SOL    HW131155   3.798  13.371   2.465
 9772SOL    HW231156   3.650  13.382   2.432
 9773SOL     OW31157  13.658   0.782   2.836
 9773SOL    HW131158  13.575   0.827   2.853
 9773SOL    HW231159  13.720   0.852   2.815
 9774SOL     OW31160  14.634   6.669   8.691
 9774SOL    HW131161  14.588   6.726   8.753
 9774SOL    HW231162  14.653   6.589   8.740
 9775SOL     OW31163  13.484   1.220   7.307
 9775SOL    HW131164  13.528   1.305   7.304
 9775SOL    HW231165  13.496   1.184   7.219
 9776SOL     OW31166  12.875   4.759   0.155
 9776SOL    HW131167  12.953   4.704   0.159
 9776SOL    HW231168  12.854   4.777   0.247
 9777SOL     OW31169  11.314   9.373   2.651
 9777SOL    HW131170  11.251   9.301   2.658
 9777SOL    HW231171  11.399   9.330   2.651
 9778SOL     OW31172   8.884  11.148   7.145
 9778SOL    HW131173   8.944  11.101   7.087
 9778SOL    HW231174   8.900  11.241   7.126
 9779SOL     OW31175  14.844  11.214  10.658
 9779SOL    HW131176  14.858  11.224  10.564
 9779SOL    HW231177  14.749  11.202  10.667
 9780SOL     OW31178  12.716   8.888   5.602
 9780SOL    HW131179  12.768   8.854   5.675
 9780SOL    HW231180  12.778   8.895   5.529
 9781SOL     OW31181   8.771   1.155   1.582
 9781SOL    HW131182   8.763   1.061   1.571
 9781SOL    HW231183   8.839   1.166   1.648
 9782SOL     OW31184   4.740   2.623   5.001
 9782SOL    HW131185   4.811   2.565   4.975
 9782SOL    HW231186   4.706   2.658   4.919
 9783SOL     OW31187   6.431   9.181   0.096
 9783SOL    HW131188   6.406   9.259   0.046
 9783SOL    HW231189   6.366   9.115   0.072
 9784SOL     OW31190  10.787   1.310  10.055
 9784SOL    HW131191  10.704   1.355  10.072
 9784SOL    HW231192  10.769   1.218  10.075
 9785SOL     OW31193  10.438  10.941   5.912
 9785SOL    HW131194  10.379  10.870   5.888
 9785SOL    HW231195  10.508  10.937   5.847
 9786SOL     OW31196  11.046  11.778  14.096
 9786SOL    HW131197  11.009  11.730  14.171
 9786SOL    HW231198  11.022  11.869  14.112
 9787SOL     OW31199   1.545   7.430  12.762
 9787SOL    HW131200   1.551   7.518  12.725
 9787SOL    HW231201   1.473   7.435  12.825
 9788SOL     OW31202   4.399   7.926  12.548
 9788SOL    HW131203   4.466   7.911  12.614
 9788SOL    HW231204   4.374   8.018  12.559
 9789SOL     OW31205   0.481   0.164  12.193
 9789SOL    HW131206   0.573   0.188  12.205
 9789SOL    HW231207   0.456   0.206  12.111
 9790SOL     OW31208   2.440  14.659  12.909
 9790SOL    HW131209   2.464  14.574  12.871
 9790SOL    HW231210   2.457  14.649  13.003
 9791SOL     OW31211   2.721  10.411  14.776
 9791SOL    HW131212   2.813  10.412  14.801
 9791SOL    HW231213   2.722  10.413  14.680
 9792SOL     OW31214   6.936   8.191   6.979
 9792SOL    HW131215   6.883   8.256   6.933
 9792SOL    HW231216   7.006   8.241   7.020
 9793SOL     OW31217  14.379  10.481   7.117
 9793SOL    HW131218  14.290  10.514   7.105
 9793SOL    HW231219  14.435  10.556   7.101
 9794SOL     OW31220   1.514   9.582  10.519
 9794SOL    HW131221   1.581   9.651  10.514
 9794SOL    HW231222   1.455   9.612  10.588
 9795SOL     OW31223   0.554   5.909   3.561
 9795SOL    HW131224   0.480   5.878   3.508
 9795SOL    HW231225   0.555   5.851   3.637
 9796SOL     OW31226   2.194   0.946  12.742
 9796SOL    HW131227   2.218   1.013  12.806
 9796SOL    HW231228   2.230   0.979  12.659
 9797SOL     OW31229  12.525   5.682   6.668
 9797SOL    HW131230  12.480   5.722   6.594
 9797SOL    HW231231  12.474   5.710   6.745
 9798SOL     OW31232   2.030   7.180   8.152
 9798SOL    HW131233   2.016   7.178   8.057
 9798SOL    HW231234   2.096   7.248   8.164
 9799SOL     OW31235   1.741   2.332   6.705
 9799SOL    HW131236   1.698   2.408   6.744
 9799SOL    HW231237   1.815   2.369   6.656
 9800SOL     OW31238   6.378   4.283   4.406
 9800SOL    HW131239   6.434   4.267   4.329
 9800SOL    HW231240   6.330   4.201   4.419
 9801SOL     OW31241  10.787   0.532   7.892
 9801SOL    HW131242  10.843   0.514   7.816
 9801SOL    HW231243  10.849   0.557   7.961
 9802SOL     OW31244   8.361   0.738   5.721
 9802SOL    HW131245   8.379   0.704   5.809
 9802SOL    HW231246   8.292   0.680   5.687
 9803SOL     OW31247  13.199   6.313  10.976
 9803SOL    HW131248  13.281   6.321  10.927
 9803SOL    HW231249  13.132   6.344  10.916
 9804SOL     OW31250   5.219   5.921   5.834
 9804SOL    HW131251   5.302   5.925   5.883
 9804SOL    HW231252   5.203   6.012   5.809
 9805SOL     OW31253  10.950   5.344  10.150
 9805SOL    HW131254  10.910   5.275  10.097
 9805SOL    HW231255  11.024   5.374  10.098
 9806SOL     OW31256   1.908  11.020   6.441
 9806SOL    HW131257   1.926  10.939   6.393
 9806SOL    HW231258   1.868  10.990   6.523
 9807SOL     OW31259  11.131  12.840   3.491
 9807SOL    HW131260  11.130  12.753   3.451
 9807SOL    HW231261  11.058  12.887   3.450
 9808SOL     OW31262   8.017  11.184  12.763
 9808SOL    HW131263   7.955  11.181  12.690
 9808SOL    HW231264   8.079  11.254  12.740
 9809SOL     OW31265   4.537  12.322   2.656
 9809SOL    HW131266   4.460  12.350   2.608
 9809SOL    HW231267   4.611  12.349   2.602
 9810SOL     OW31268   9.171   3.233   9.304
 9810SOL    HW131269   9.184   3.143   9.273
 9810SOL    HW231270   9.113   3.272   9.238
 9811SOL     OW31271   8.032   8.057  12.376
 9811SOL    HW131272   8.057   7.966  12.393
 9811SOL    HW231273   7.948   8.067  12.420
 9812SOL     OW31274  11.266   3.815  10.822
 9812SOL    HW131275  11.348   3.784  10.783
 9812SOL    HW231276  11.288   3.832  10.913
 9813SOL     OW31277   7.751   3.885   5.797
 9813SOL    HW131278   7.801   3.958   5.760
 9813SOL    HW231279   7.817   3.833   5.843
 9814SOL     OW31280   3.954  13.354   0.605
 9814SOL    HW131281   3.976  13.444   0.631
 9814SOL    HW231282   3.859  13.355   0.596
 9815SOL     OW31283  10.603   7.830  10.672
 9815SOL    HW131284  10.542   7.803  10.741
 9815SOL    HW231285  10.547   7.867  10.603
 9816SOL     OW31286   9.033  12.785  12.510
 9816SOL    HW131287   9.087  12.864  12.514
 9816SOL    HW231288   8.944  12.818  12.502
 9817SOL     OW31289   2.599  11.034  13.323
 9817SOL    HW131290   2.557  11.087  13.256
 9817SOL    HW231291   2.608  10.947  13.284
 9818SOL     OW31292  10.193   8.655   7.646
 9818SOL    HW131293  10.227   8.633   7.559
 9818SOL    HW231294  10.133   8.728   7.630
 9819SOL     OW31295   4.377   9.878  12.525
 9819SOL    HW131296   4.322   9.837  12.458
 9819SOL    HW231297   4.339   9.849  12.608
 9820SOL     OW31298   6.921   0.251   1.970
 9820SOL    HW131299   6.929   0.173   1.915
 9820SOL    HW231300   7.011   0.276   1.990
 9821SOL     OW31301  10.225   7.523   3.527
 9821SOL    HW131302  10.164   7.593   3.504
 9821SOL    HW231303  10.176   7.442   3.508
 9822SOL     OW31304   3.131  11.298   7.983
 9822SOL    HW131305   3.211  11.258   8.019
 9822SOL    HW231306   3.088  11.337   8.059
 9823SOL     OW31307   6.071   3.992   6.001
 9823SOL    HW131308   5.990   3.981   5.951
 9823SOL    HW231309   6.055   3.945   6.083
 9824SOL     OW31310   1.496   0.252   6.574
 9824SOL    HW131311   1.592   0.255   6.571
 9824SOL    HW231312   1.473   0.170   6.531
 9825SOL     OW31313  12.518   8.920   7.229
 9825SOL    HW131314  12.501   8.976   7.304
 9825SOL    HW231315  12.432   8.898   7.195
 9826SOL     OW31316   3.022  13.275   4.784
 9826SOL    HW131317   3.031  13.206   4.849
 9826SOL    HW231318   3.095  13.261   4.724
 9827SOL     OW31319  10.817   4.698   2.018
 9827SOL    HW131320  10.781   4.787   2.019
 9827SOL    HW231321  10.912   4.711   2.016
 9828SOL     OW31322   3.265   9.060   4.316
 9828SOL    HW131323   3.262   8.999   4.242
 9828SOL    HW231324   3.244   9.145   4.277
 9829SOL     OW31325   1.032   7.556   1.016
 9829SOL    HW131326   1.103   7.618   1.027
 9829SOL    HW231327   1.045   7.519   0.928
 9830SOL     OW31328   0.807   8.223   7.869
 9830SOL    HW131329   0.888   8.172   7.869
 9830SOL    HW231330   0.822   8.291   7.804
 9831SOL     OW31331   4.199  11.213   1.479
 9831SOL    HW131332   4.288  11.228   1.510
 9831SOL    HW231333   4.154  11.297   1.492
 9832SOL     OW31334   8.694   7.550   4.644
 9832SOL    HW131335   8.758   7.563   4.574
 9832SOL    HW231336   8.672   7.639   4.674
 9833SOL     OW31337  14.143   0.106  14.260
 9833SOL    HW131338  14.133   0.080  14.352
 9833SOL    HW231339  14.109   0.032  14.210
 9834SOL     OW31340   9.485  14.598   3.063
 9834SOL    HW131341   9.420  14.562   3.003
 9834SOL    HW231342   9.487  14.692   3.044
 9835SOL     OW31343   2.219   3.810   2.457
 9835SOL    HW131344   2.262   3.815   2.372
 9835SOL    HW231345   2.146   3.872   2.450
 9836SOL     OW31346  12.477   7.772  11.118
 9836SOL    HW131347  12.389   7.801  11.141
 9836SOL    HW231348  12.466   7.724  11.036
 9837SOL     OW31349   3.935   3.400   4.476
 9837SOL    HW131350   3.933   3.313   4.437
 9837SOL    HW231351   3.981   3.389   4.558
 9838SOL     OW31352   4.991  10.135   0.471
 9838SOL    HW131353   5.050  10.208   0.454
 9838SOL    HW231354   4.927  10.169   0.533
 9839SOL     OW31355   8.176  14.167   8.792
 9839SOL    HW131356   8.271  14.158   8.801
 9839SOL    HW231357   8.141  14.086   8.830
 9840SOL     OW31358   7.993  14.656   7.935
 9840SOL    HW131359   7.997  14.703   8.018
 9840SOL    HW231360   7.901  14.659   7.909
 9841SOL     OW31361  11.463   5.728   2.012
 9841SOL    HW131362  11.420   5.681   2.084
 9841SOL    HW231363  11.543   5.764   2.051
 9842SOL     OW31364   9.341  11.510   3.587
 9842SOL    HW131365   9.332  11.418   3.563
 9842SOL    HW231366   9.348  11.556   3.504
 9843SOL     OW31367   3.216  12.073  14.268
 9843SOL    HW131368   3.304  12.035  14.260
 9843SOL    HW231369   3.157  11.997  14.262
 9844SOL     OW31370  12.070   8.282   6.517
 9844SOL    HW131371  11.979   8.273   6.545
 9844SOL    HW231372  12.110   8.337   6.584
 9845SOL     OW31373   5.270   2.918   5.106
 9845SOL    HW131374   5.195   2.976   5.092
 9845SOL    HW231375   5.232   2.837   5.140
 9846SOL     OW31376  11.815  13.352  13.609
 9846SOL    HW131377  11.863  13.318  13.684
 9846SOL    HW231378  11.772  13.431  13.642
 9847SOL     OW31379   5.453  12.354  13.960
 9847SOL    HW131380   5.418  12.295  14.027
 9847SOL    HW231381   5.547  12.355  13.975
 9848SOL     OW31382   7.531   2.515   7.564
 9848SOL    HW131383   7.452   2.542   7.612
 9848SOL    HW231384   7.520   2.421   7.552
 9849SOL     OW31385   7.751   5.399  14.030
 9849SOL    HW131386   7.711   5.377  13.946
 9849SOL    HW231387   7.680   5.389  14.093
 9850SOL     OW31388  10.127   4.132   0.819
 9850SOL    HW131389  10.169   4.179   0.747
 9850SOL    HW231390  10.078   4.199   0.866
 9851SOL     OW31391   4.570   9.502   8.489
 9851SOL    HW131392   4.557   9.409   8.473
 9851SOL    HW231393   4.614   9.506   8.574
 9852SOL     OW31394   2.408   8.095   0.021
 9852SOL    HW131395   2.427   8.084  14.801
 9852SOL    HW231396   2.346   8.168   0.024
 9853SOL     OW31397  12.648   0.717   3.930
 9853SOL    HW131398  12.583   0.701   3.998
 9853SOL    HW231399  12.652   0.812   3.922
 9854SOL     OW31400   2.993   7.592   9.341
 9854SOL    HW131401   2.958   7.630   9.260
 9854SOL    HW231402   3.054   7.524   9.312
 9855SOL     OW31403  12.738   5.488   1.765
 9855SOL    HW131404  12.676   5.533   1.824
 9855SOL    HW231405  12.742   5.544   1.688
 9856SOL     OW31406   0.606   0.732  14.459
 9856SOL    HW131407   0.528   0.726  14.405
 9856SOL    HW231408   0.643   0.644  14.458
 9857SOL     OW31409   9.431   8.006   5.677
 9857SOL    HW131410   9.452   8.098   5.694
 9857SOL    HW231411   9.336   8.001   5.690
 9858SOL     OW31412   3.696   1.714   5.890
 9858SOL    HW131413   3.656   1.628   5.877
 9858SOL    HW231414   3.758   1.723   5.818
 9859SOL     OW31415  10.466  13.997   1.677
 9859SOL    HW131416  10.437  13.954   1.597
 9859SOL    HW231417  10.557  13.971   1.687
 9860SOL     OW31418   9.845   6.059  10.157
 9860SOL    HW131419   9.758   6.097  10.159
 9860SOL    HW231420   9.849   6.012  10.074
 9861SOL     OW31421   6.813   8.675   1.463
 9861SOL    HW131422   6.833   8.752   1.409
 9861SOL    HW231423   6.720   8.658   1.448
 9862SOL     OW31424   1.952   3.847   2.788
 9862SOL    HW131425   1.999   3.871   2.708
 9862SOL    HW231426   1.946   3.751   2.784
 9863SOL     OW31427   7.915  13.785  12.561
 9863SOL    HW131428   7.993  13.740  12.592
 9863SOL    HW231429   7.898  13.851  12.628
 9864SOL     OW31430   0.807   5.661  14.619
 9864SOL    HW131431   0.773   5.747  14.597
 9864SOL    HW231432   0.849   5.630  14.539
 9865SOL     OW31433   6.691   5.784   7.193
 9865SOL    HW131434   6.688   5.880   7.192
 9865SOL    HW231435   6.668   5.759   7.104
 9866SOL     OW31436  11.225   4.602  13.837
 9866SOL    HW131437  11.236   4.634  13.748
 9866SOL    HW231438  11.133   4.578  13.844
 9867SOL     OW31439   9.557  13.288   9.704
 9867SOL    HW131440   9.611  13.261   9.778
 9867SOL    HW231441   9.478  13.325   9.745
 9868SOL     OW31442   1.951   1.884  13.434
 9868SOL    HW131443   1.983   1.952  13.376
 9868SOL    HW231444   2.022   1.870  13.497
 9869SOL     OW31445   7.883   7.246   4.576
 9869SOL    HW131446   7.969   7.276   4.604
 9869SOL    HW231447   7.829   7.251   4.655
 9870SOL     OW31448   0.130   9.112   9.214
 9870SOL    HW131449   0.147   9.181   9.150
 9870SOL    HW231450   0.216   9.089   9.249
 9871SOL     OW31451   1.426   8.426   8.018
 9871SOL    HW131452   1.421   8.521   8.010
 9871SOL    HW231453   1.517   8.408   8.042
 9872SOL     OW31454   6.623   3.659   8.901
 9872SOL    HW131455   6.656   3.649   8.990
 9872SOL    HW231456   6.543   3.711   8.910
 9873SOL     OW31457  13.893  12.248   8.702
 9873SOL    HW131458  13.825  12.182   8.710
 9873SOL    HW231459  13.846  12.331   8.706
 9874SOL     OW31460   5.893  13.294  12.924
 9874SOL    HW131461   5.835  13.331  12.858
 9874SOL    HW231462   5.965  13.356  12.931
 9875SOL     OW31463   7.590  11.460  12.715
 9875SOL    HW131464   7.525  11.391  12.724
 9875SOL    HW231465   7.545  11.529  12.665
 9876SOL     OW31466   3.041   8.197   5.406
 9876SOL    HW131467   3.091   8.163   5.480
 9876SOL    HW231468   3.103   8.255   5.360
 9877SOL     OW31469   6.023   8.032   6.188
 9877SOL    HW131470   5.944   8.051   6.137
 9877SOL    HW231471   6.090   8.091   6.153
 9878SOL     OW31472  14.403   9.109   1.343
 9878SOL    HW131473  14.453   9.190   1.357
 9878SOL    HW231474  14.456   9.060   1.280
 9879SOL     OW31475   4.068   2.379  10.343
 9879SOL    HW131476   3.997   2.344  10.396
 9879SOL    HW231477   4.066   2.328  10.262
 9880SOL     OW31478   4.112   2.123  13.927
 9880SOL    HW131479   4.125   2.170  13.844
 9880SOL    HW231480   4.059   2.183  13.980
 9881SOL     OW31481  13.216   7.590  10.552
 9881SOL    HW131482  13.207   7.508  10.600
 9881SOL    HW231483  13.126   7.618  10.536
 9882SOL     OW31484   0.934  12.873   6.372
 9882SOL    HW131485   1.008  12.813   6.367
 9882SOL    HW231486   0.857  12.818   6.358
 9883SOL     OW31487  12.225   5.200  12.859
 9883SOL    HW131488  12.225   5.272  12.797
 9883SOL    HW231489  12.285   5.229  12.929
 9884SOL     OW31490   8.491  13.328  13.944
 9884SOL    HW131491   8.570  13.299  13.991
 9884SOL    HW231492   8.523  13.356  13.859
 9885SOL     OW31493  10.678  10.114  13.852
 9885SOL    HW131494  10.645  10.117  13.762
 9885SOL    HW231495  10.759  10.164  13.850
 9886SOL     OW31496   3.359   3.388   1.815
 9886SOL    HW131497   3.402   3.445   1.879
 9886SOL    HW231498   3.405   3.304   1.822
 9887SOL     OW31499   2.107   7.710  12.325
 9887SOL    HW131500   2.167   7.681  12.394
 9887SOL    HW231501   2.160   7.709  12.246
 9888SOL     OW31502   4.054   4.975  13.024
 9888SOL    HW131503   4.097   4.907  12.973
 9888SOL    HW231504   3.963   4.974  12.995
 9889SOL     OW31505  14.645  14.073  14.036
 9889SOL    HW131506  14.622  13.980  14.033
 9889SOL    HW231507  14.619  14.101  14.123
 9890SOL     OW31508   3.593  13.044  11.282
 9890SOL    HW131509   3.521  13.067  11.341
 9890SOL    HW231510   3.662  13.107  11.303
 9891SOL     OW31511   6.683   7.596  14.791
 9891SOL    HW131512   6.647   7.601  14.702
 9891SOL    HW231513   6.749   7.527  14.786
 9892SOL     OW31514   3.635  11.802   1.590
 9892SOL    HW131515   3.677  11.718   1.609
 9892SOL    HW231516   3.626  11.844   1.675
 9893SOL     OW31517  11.769  10.666  14.442
 9893SOL    HW131518  11.864  10.658  14.436
 9893SOL    HW231519  11.745  10.723  14.368
 9894SOL     OW31520   4.936   7.300  14.657
 9894SOL    HW131521   4.979   7.356  14.591
 9894SOL    HW231522   4.920   7.218  14.611
 9895SOL     OW31523   4.957   4.898  10.261
 9895SOL    HW131524   4.991   4.818  10.220
 9895SOL    HW231525   4.941   4.873  10.352
 9896SOL     OW31526   9.253   2.062  10.887
 9896SOL    HW131527   9.167   2.104  10.883
 9896SOL    HW231528   9.233   1.969  10.900
 9897SOL     OW31529  12.127   6.117   5.176
 9897SOL    HW131530  12.086   6.069   5.104
 9897SOL    HW231531  12.221   6.106   5.162
 9898SOL     OW31532   6.387  11.557   2.994
 9898SOL    HW131533   6.331  11.635   2.990
 9898SOL    HW231534   6.397  11.530   2.903
 9899SOL     OW31535  14.307   3.673  13.028
 9899SOL    HW131536  14.248   3.611  12.987
 9899SOL    HW231537  14.365   3.702  12.958
 9900SOL     OW31538  10.041   2.021  13.833
 9900SOL    HW131539  10.106   1.955  13.811
 9900SOL    HW231540  10.091   2.102  13.845
 9901SOL     OW31541   6.418   8.681  10.887
 9901SOL    HW131542   6.336   8.639  10.860
 9901SOL    HW231543   6.411   8.689  10.982
 9902SOL     OW31544   6.911   1.464   0.920
 9902SOL    HW131545   6.975   1.491   0.854
 9902SOL    HW231546   6.890   1.373   0.896
 9903SOL     OW31547  13.807  10.878  11.354
 9903SOL    HW131548  13.842  10.791  11.371
 9903SOL    HW231549  13.797  10.917  11.441
 9904SOL     OW31550   0.456   3.570   8.814
 9904SOL    HW131551   0.438   3.660   8.841
 9904SOL    HW231552   0.481   3.525   8.895
 9905SOL     OW31553   4.174   1.876   6.469
 9905SOL    HW131554   4.213   1.908   6.551
 9905SOL    HW231555   4.145   1.955   6.424
 9906SOL     OW31556   4.731  14.081   8.188
 9906SOL    HW131557   4.823  14.056   8.201
 9906SOL    HW231558   4.709  14.046   8.101
 9907SOL     OW31559   9.251  11.554  10.242
 9907SOL    HW131560   9.235  11.462  10.218
 9907SOL    HW231561   9.278  11.550  10.334
 9908SOL     OW31562  10.135   4.132   5.475
 9908SOL    HW131563  10.110   4.196   5.542
 9908SOL    HW231564  10.138   4.048   5.521
 9909SOL     OW31565   1.386  12.790  14.674
 9909SOL    HW131566   1.333  12.838  14.738
 9909SOL    HW231567   1.322  12.746  14.618
 9910SOL     OW31568   2.890   2.254   0.744
 9910SOL    HW131569   2.968   2.220   0.699
 9910SOL    HW231570   2.918   2.263   0.835
 9911SOL     OW31571  13.176   0.817  14.109
 9911SOL    HW131572  13.139   0.893  14.154
 9911SOL    HW231573  13.220   0.853  14.032
 9912SOL     OW31574  14.816   6.677   1.590
 9912SOL    HW131575  14.779   6.590   1.577
 9912SOL    HW231576   0.035   6.668   1.564
 9913SOL     OW31577   5.716  12.623  12.774
 9913SOL    HW131578   5.786  12.624  12.840
 9913SOL    HW231579   5.649  12.681  12.809
 9914SOL     OW31580   9.911   2.141  14.605
 9914SOL    HW131581   9.940   2.233  14.602
 9914SOL    HW231582   9.865   2.129  14.521
 9915SOL     OW31583   4.828   6.394   4.550
 9915SOL    HW131584   4.735   6.403   4.572
 9915SOL    HW231585   4.837   6.304   4.519
 9916SOL     OW31586   0.666   8.845   7.653
 9916SOL    HW131587   0.743   8.897   7.677
 9916SOL    HW231588   0.629   8.817   7.737
 9917SOL     OW31589   6.183   9.664  14.780
 9917SOL    HW131590   6.118   9.594  14.772
 9917SOL    HW231591   6.204   9.687  14.689
 9918SOL     OW31592   2.386   9.631  11.436
 9918SOL    HW131593   2.430   9.619  11.520
 9918SOL    HW231594   2.349   9.545  11.416
 9919SOL     OW31595   8.007  12.891  10.774
 9919SOL    HW131596   8.092  12.931  10.759
 9919SOL    HW231597   7.997  12.827  10.704
 9920SOL     OW31598   8.781  10.130   1.324
 9920SOL    HW131599   8.834  10.193   1.372
 9920SOL    HW231600   8.845  10.075   1.279
 9921SOL     OW31601   2.915   4.830   9.412
 9921SOL    HW131602   2.903   4.762   9.479
 9921SOL    HW231603   2.900   4.912   9.459
 9922SOL     OW31604  10.297   0.812  13.714
 9922SOL    HW131605  10.338   0.884  13.761
 9922SOL    HW231606  10.299   0.839  13.622
 9923SOL     OW31607   7.834   5.988  11.933
 9923SOL    HW131608   7.874   5.989  11.846
 9923SOL    HW231609   7.795   5.901  11.940
 9924SOL     OW31610   3.102   8.480   1.965
 9924SOL    HW131611   3.129   8.394   1.932
 9924SOL    HW231612   3.010   8.468   1.989
 9925SOL     OW31613   9.195   1.778   5.356
 9925SOL    HW131614   9.188   1.863   5.399
 9925SOL    HW231615   9.289   1.763   5.348
 9926SOL     OW31616  12.866   1.253   9.136
 9926SOL    HW131617  12.894   1.334   9.179
 9926SOL    HW231618  12.804   1.213   9.197
 9927SOL     OW31619   6.149  13.359   0.600
 9927SOL    HW131620   6.164  13.444   0.559
 9927SOL    HW231621   6.087  13.315   0.542
 9928SOL     OW31622  14.798   5.755   8.184
 9928SOL    HW131623  14.782   5.673   8.138
 9928SOL    HW231624  14.798   5.822   8.115
 9929SOL     OW31625  12.645   5.203   3.230
 9929SOL    HW131626  12.604   5.129   3.185
 9929SOL    HW231627  12.719   5.226   3.174
 9930SOL     OW31628  10.690   3.230  13.615
 9930SOL    HW131629  10.675   3.323  13.633
 9930SOL    HW231630  10.608   3.187  13.640
 9931SOL     OW31631   5.770  13.303   4.550
 9931SOL    HW131632   5.742  13.225   4.597
 9931SOL    HW231633   5.862  13.315   4.574
 9932SOL     OW31634   8.114   0.066   7.773
 9932SOL    HW131635   8.128   0.160   7.771
 9932SOL    HW231636   8.019   0.056   7.781
 9933SOL     OW31637   0.305   0.506   1.706
 9933SOL    HW131638   0.396   0.516   1.736
 9933SOL    HW231639   0.308   0.433   1.645
 9934SOL     OW31640  12.040  12.668   1.736
 9934SOL    HW131641  11.979  12.596   1.747
 9934SOL    HW231642  11.999  12.742   1.781
 9935SOL     OW31643   2.007   3.455   8.112
 9935SOL    HW131644   2.047   3.388   8.056
 9935SOL    HW231645   2.073   3.471   8.180
 9936SOL     OW31646   2.992   3.961  12.133
 9936SOL    HW131647   2.957   3.987  12.218
 9936SOL    HW231648   3.070   3.910  12.153
 9937SOL     OW31649   0.457   1.386   4.207
 9937SOL    HW131650   0.475   1.476   4.181
 9937SOL    HW231651   0.445   1.339   4.124
 9938SOL     OW31652   7.375   0.413   5.981
 9938SOL    HW131653   7.369   0.508   5.976
 9938SOL    HW231654   7.430   0.397   6.058
 9939SOL     OW31655   1.891   2.244   2.866
 9939SOL    HW131656   1.856   2.162   2.829
 9939SOL    HW231657   1.837   2.259   2.943
 9940SOL     OW31658   0.368   6.444   5.162
 9940SOL    HW131659   0.442   6.505   5.159
 9940SOL    HW231660   0.331   6.456   5.250
 9941SOL     OW31661  12.075   3.770   3.960
 9941SOL    HW131662  12.126   3.827   4.017
 9941SOL    HW231663  12.010   3.730   4.018
 9942SOL     OW31664  12.397  14.044  12.404
 9942SOL    HW131665  12.383  14.138  12.413
 9942SOL    HW231666  12.405  14.013  12.495
 9943SOL     OW31667   6.973  14.868   9.930
 9943SOL    HW131668   7.046  14.821   9.972
 9943SOL    HW231669   6.988  14.856   9.836
 9944SOL     OW31670  10.125  10.990   8.950
 9944SOL    HW131671  10.101  11.082   8.939
 9944SOL    HW231672  10.168  10.966   8.868
 9945SOL     OW31673   1.621  10.604  11.195
 9945SOL    HW131674   1.669  10.682  11.168
 9945SOL    HW231675   1.529  10.625  11.179
 9946SOL     OW31676   9.493  13.002  14.688
 9946SOL    HW131677   9.468  12.923  14.735
 9946SOL    HW231678   9.580  12.983  14.653
 9947SOL     OW31679   6.804   8.573   6.813
 9947SOL    HW131680   6.741   8.536   6.875
 9947SOL    HW231681   6.888   8.535   6.838
 9948SOL     OW31682  10.819   0.040   4.299
 9948SOL    HW131683  10.802  14.844   4.235
 9948SOL    HW231684  10.913   0.039   4.313
 9949SOL     OW31685   5.957   7.280   5.362
 9949SOL    HW131686   5.914   7.254   5.281
 9949SOL    HW231687   5.954   7.203   5.417
 9950SOL     OW31688  12.863   8.758  13.839
 9950SOL    HW131689  12.931   8.697  13.868
 9950SOL    HW231690  12.910   8.827  13.793
 9951SOL     OW31691   9.057   0.411   7.990
 9951SOL    HW131692   8.972   0.434   8.028
 9951SOL    HW231693   9.062   0.316   7.999
 9952SOL     OW31694   9.219   6.954   0.332
 9952SOL    HW131695   9.151   6.923   0.392
 9952SOL    HW231696   9.284   6.995   0.389
 9953SOL     OW31697  10.787   6.634  14.222
 9953SOL    HW131698  10.780   6.686  14.302
 9953SOL    HW231699  10.880   6.613  14.215
 9954SOL     OW31700   1.680  12.806   1.972
 9954SOL    HW131701   1.647  12.872   1.911
 9954SOL    HW231702   1.659  12.840   2.059
 9955SOL     OW31703  13.324   5.839   1.986
 9955SOL    HW131704  13.410   5.825   2.025
 9955SOL    HW231705  13.263   5.829   2.059
 9956SOL     OW31706  13.992   9.954   6.889
 9956SOL    HW131707  14.045   9.978   6.964
 9956SOL    HW231708  13.901   9.963   6.919
 9957SOL     OW31709   2.575   7.893  11.441
 9957SOL    HW131710   2.662   7.914  11.476
 9957SOL    HW231711   2.534   7.840  11.509
 9958SOL     OW31712   7.370  11.024  12.418
 9958SOL    HW131713   7.351  10.955  12.354
 9958SOL    HW231714   7.334  10.990  12.500
 9959SOL     OW31715   5.505   7.333   3.393
 9959SOL    HW131716   5.529   7.267   3.458
 9959SOL    HW231717   5.503   7.285   3.310
 9960SOL     OW31718   3.184   5.490   9.501
 9960SOL    HW131719   3.153   5.577   9.477
 9960SOL    HW231720   3.115   5.431   9.471
 9961SOL     OW31721   7.097   9.994   3.280
 9961SOL    HW131722   7.138  10.005   3.366
 9961SOL    HW231723   7.043   9.916   3.288
 9962SOL     OW31724   5.620   3.000   3.294
 9962SOL    HW131725   5.591   3.088   3.318
 9962SOL    HW231726   5.655   2.963   3.375
 9963SOL     OW31727   0.669   4.088   8.788
 9963SOL    HW131728   0.607   4.160   8.774
 9963SOL    HW231729   0.700   4.066   8.700
 9964SOL     OW31730   5.438   1.065   2.838
 9964SOL    HW131731   5.475   1.143   2.797
 9964SOL    HW231732   5.380   1.099   2.906
 9965SOL     OW31733   2.830   1.235   4.310
 9965SOL    HW131734   2.863   1.148   4.289
 9965SOL    HW231735   2.900   1.274   4.363
 9966SOL     OW31736  12.012   0.547   1.776
 9966SOL    HW131737  12.061   0.489   1.718
 9966SOL    HW231738  12.076   0.572   1.843
 9967SOL     OW31739   2.799   2.883  12.009
 9967SOL    HW131740   2.746   2.884  12.090
 9967SOL    HW231741   2.860   2.956  12.020
 9968SOL     OW31742  10.394   3.624  10.089
 9968SOL    HW131743  10.335   3.562  10.131
 9968SOL    HW231744  10.340   3.701  10.072
 9969SOL     OW31745  10.531   7.309   2.701
 9969SOL    HW131746  10.554   7.277   2.788
 9969SOL    HW231747  10.614   7.316   2.656
 9970SOL     OW31748   1.488  11.576   6.294
 9970SOL    HW131749   1.492  11.507   6.228
 9970SOL    HW231750   1.418  11.634   6.263
 9971SOL     OW31751  13.309   1.083   1.447
 9971SOL    HW131752  13.345   0.994   1.449
 9971SOL    HW231753  13.215   1.071   1.459
 9972SOL     OW31754   5.566   8.770   8.874
 9972SOL    HW131755   5.562   8.676   8.857
 9972SOL    HW231756   5.637   8.780   8.937
 9973SOL     OW31757   8.150   3.782   6.636
 9973SOL    HW131758   8.208   3.716   6.674
 9973SOL    HW231759   8.172   3.782   6.543
 9974SOL     OW31760   0.656   4.136  10.906
 9974SOL    HW131761   0.593   4.142  10.834
 9974SOL    HW231762   0.706   4.217  10.902
 9975SOL     OW31763  14.364   1.056   3.833
 9975SOL    HW131764  14.303   1.047   3.759
 9975SOL    HW231765  14.312   1.095   3.903
 9976SOL     OW31766   0.704   1.982  10.140
 9976SOL    HW131767   0.778   2.044  10.137
 9976SOL    HW231768   0.719   1.925  10.064
 9977SOL     OW31769  12.437  13.103   0.541
 9977SOL    HW131770  12.383  13.064   0.472
 9977SOL    HW231771  12.399  13.070   0.623
 9978SOL     OW31772   3.375  13.640   3.324
 9978SOL    HW131773   3.305  13.583   3.357
 9978SOL    HW231774   3.430  13.657   3.400
 9979SOL     OW31775   1.112   0.236   6.590
 9979SOL    HW131776   1.202   0.210   6.605
 9979SOL    HW231777   1.104   0.246   6.495
 9980SOL     OW31778   5.572  13.629  11.322
 9980SOL    HW131779   5.618  13.619  11.405
 9980SOL    HW231780   5.531  13.543  11.307
 9981SOL     OW31781   1.491  14.281   2.652
 9981SOL    HW131782   1.399  14.281   2.676
 9981SOL    HW231783   1.503  14.200   2.603
 9982SOL     OW31784   3.025  14.807  12.607
 9982SOL    HW131785   3.014  14.713  12.610
 9982SOL    HW231786   3.088  14.821  12.535
 9983SOL     OW31787   2.662   3.343   9.873
 9983SOL    HW131788   2.677   3.298   9.790
 9983SOL    HW231789   2.705   3.289   9.938
 9984SOL     OW31790  12.779   7.967  10.781
 9984SOL    HW131791  12.831   8.044  10.760
 9984SOL    HW231792  12.821   7.929  10.858
 9985SOL     OW31793  11.286   4.175   3.043
 9985SOL    HW131794  11.269   4.135   3.129
 9985SOL    HW231795  11.204   4.216   3.019
 9986SOL     OW31796   5.607  10.531   3.131
 9986SOL    HW131797   5.678  10.469   3.145
 9986SOL    HW231798   5.642  10.594   3.068
 9987SOL     OW31799   6.844   7.391  14.677
 9987SOL    HW131800   6.903   7.321  14.702
 9987SOL    HW231801   6.874   7.418  14.590
 9988SOL     OW31802   4.535   0.849   2.924
 9988SOL    HW131803   4.478   0.926   2.929
 9988SOL    HW231804   4.521   0.803   3.006
 9989SOL     OW31805   4.388   5.995   7.762
 9989SOL    HW131806   4.322   5.983   7.831
 9989SOL    HW231807   4.468   6.015   7.809
 9990SOL     OW31808  12.489  13.704  10.804
 9990SOL    HW131809  12.432  13.677  10.876
 9990SOL    HW231810  12.462  13.650  10.730
 9991SOL     OW31811   9.255  10.260   1.098
 9991SOL    HW131812   9.285  10.310   1.022
 9991SOL    HW231813   9.312  10.183   1.099
 9992SOL     OW31814  13.794  13.749  11.155
 9992SOL    HW131815  13.871  13.756  11.212
 9992SOL    HW231816  13.797  13.828  11.101
 9993SOL     OW31817   8.136   7.211   0.239
 9993SOL    HW131818   8.170   7.122   0.245
 9993SOL    HW231819   8.134   7.242   0.329
 9994SOL     OW31820   9.330   0.162  10.324
 9994SOL    HW131821   9.259   0.215  10.361
 9994SOL    HW231822   9.382   0.135  10.400
 9995SOL     OW31823   6.569  14.458   1.238
 9995SOL    HW131824   6.574  14.465   1.334
 9995SOL    HW231825   6.483  14.494   1.217
 9996SOL     OW31826   7.184   5.750   2.447
 9996SOL    HW131827   7.163   5.671   2.496
 9996SOL    HW231828   7.255   5.791   2.497
 9997SOL     OW31829   2.991  10.926   2.945
 9997SOL    HW131830   3.023  10.836   2.957
 9997SOL    HW231831   2.902  10.924   2.980
 9998SOL     OW31832   4.534   2.832   9.334
 9998SOL    HW131833   4.575   2.834   9.420
 9998SOL    HW231834   4.497   2.744   9.327
 9999SOL     OW31835   1.755   5.288  14.788
 9999SOL    HW131836   1.846   5.273  14.814
 9999SOL    HW231837   1.704   5.227  14.841
10000SOL     OW31838  12.889  14.483   0.747
10000SOL    HW131839  12.812  14.503   0.800
10000SOL    HW231840  12.868  14.518   0.660
10001SOL     OW31841  13.847   6.054   7.183
10001SOL    HW131842  13.753   6.034   7.184
10001SOL    HW231843  13.889   5.969   7.166
10002SOL     OW31844   7.648   0.167  14.408
10002SOL    HW131845   7.741   0.183  14.395
10002SOL    HW231846   7.624   0.108  14.337
10003SOL     OW31847   9.762   0.869   3.319
10003SOL    HW131848   9.740   0.887   3.410
10003SOL    HW231849   9.679   0.876   3.272
10004SOL     OW31850   0.062   9.431  13.383
10004SOL    HW131851   0.073   9.376  13.461
10004SOL    HW231852   0.148   9.432  13.342
10005SOL     OW31853   8.822   6.332  10.743
10005SOL    HW131854   8.739   6.350  10.699
10005SOL    HW231855   8.806   6.252  10.793
10006SOL     OW31856   8.349   0.689   3.094
10006SOL    HW131857   8.308   0.603   3.091
10006SOL    HW231858   8.438   0.675   3.061
10007SOL     OW31859   4.639   7.675   9.753
10007SOL    HW131860   4.663   7.683   9.661
10007SOL    HW231861   4.645   7.582   9.772
10008SOL     OW31862   3.820  10.036   7.667
10008SOL    HW131863   3.805  10.015   7.759
10008SOL    HW231864   3.912  10.015   7.652
10009SOL     OW31865  10.986   2.787   3.371
10009SOL    HW131866  11.006   2.697   3.396
10009SOL    HW231867  11.008   2.792   3.278
10010SOL     OW31868   5.670   8.152   9.539
10010SOL    HW131869   5.675   8.060   9.513
10010SOL    HW231870   5.604   8.154   9.609
10011SOL     OW31871   7.877  13.758   0.984
10011SOL    HW131872   7.933  13.721   1.053
10011SOL    HW231873   7.828  13.827   1.028
10012SOL     OW31874   0.011  11.064  13.436
10012SOL    HW131875   0.033  11.049  13.528
10012SOL    HW231876   0.011  10.977  13.397
10013SOL     OW31877   9.659   6.915   1.264
10013SOL    HW131878   9.724   6.936   1.332
10013SOL    HW231879   9.708   6.862   1.201
10014SOL     OW31880   9.042   8.789   6.446
10014SOL    HW131881   9.024   8.797   6.540
10014SOL    HW231882   9.132   8.819   6.436
10015SOL     OW31883  11.304   0.205   1.297
10015SOL    HW131884  11.400   0.195   1.299
10015SOL    HW231885  11.271   0.116   1.303
10016SOL     OW31886   3.297   1.174   9.911
10016SOL    HW131887   3.319   1.117   9.985
10016SOL    HW231888   3.352   1.252   9.923
10017SOL     OW31889   8.084   9.172  13.993
10017SOL    HW131890   7.993   9.155  13.969
10017SOL    HW231891   8.082   9.259  14.033
10018SOL     OW31892   6.106  11.897   6.114
10018SOL    HW131893   6.128  11.959   6.184
10018SOL    HW231894   6.011  11.897   6.110
10019SOL     OW31895   2.277   5.688  13.702
10019SOL    HW131896   2.181   5.690  13.696
10019SOL    HW231897   2.305   5.653  13.617
10020SOL     OW31898  10.028   9.715   2.167
10020SOL    HW131899  10.044   9.789   2.109
10020SOL    HW231900  10.098   9.721   2.232
10021SOL     OW31901   4.122  12.986  13.717
10021SOL    HW131902   4.147  13.074  13.691
10021SOL    HW231903   4.026  12.987  13.719
10022SOL     OW31904   5.669   1.176  10.802
10022SOL    HW131905   5.615   1.159  10.725
10022SOL    HW231906   5.663   1.095  10.854
10023SOL     OW31907   5.222  12.642   1.422
10023SOL    HW131908   5.283  12.580   1.462
10023SOL    HW231909   5.212  12.611   1.332
10024SOL     OW31910   5.705  12.431  13.034
10024SOL    HW131911   5.777  12.494  13.033
10024SOL    HW231912   5.747  12.348  13.011
10025SOL     OW31913   4.368  11.926   8.299
10025SOL    HW131914   4.418  11.846   8.310
10025SOL    HW231915   4.337  11.924   8.209
10026SOL     OW31916   6.336   1.095   5.780
10026SOL    HW131917   6.406   1.029   5.774
10026SOL    HW231918   6.381   1.178   5.764
10027SOL     OW31919   5.706   5.250   1.667
10027SOL    HW131920   5.635   5.253   1.603
10027SOL    HW231921   5.692   5.168   1.714
10028SOL     OW31922  14.808   6.682  11.297
10028SOL    HW131923  14.841   6.616  11.358
10028SOL    HW231924   0.013   6.728  11.266
10029SOL     OW31925  14.482   8.628  12.599
10029SOL    HW131926  14.431   8.688  12.545
10029SOL    HW231927  14.467   8.542  12.560
10030SOL     OW31928   6.092   6.203   3.409
10030SOL    HW131929   6.051   6.121   3.381
10030SOL    HW231930   6.157   6.176   3.475
10031SOL     OW31931   6.730  13.673   7.635
10031SOL    HW131932   6.656  13.613   7.644
10031SOL    HW231933   6.798  13.622   7.590
10032SOL     OW31934   5.322   4.440  10.308
10032SOL    HW131935   5.307   4.450  10.402
10032SOL    HW231936   5.259   4.499  10.267
10033SOL     OW31937  14.869  12.235  12.264
10033SOL    HW131938   0.033  12.158  12.221
10033SOL    HW231939  14.859  12.208  12.355
10034SOL     OW31940   1.704  11.182  12.484
10034SOL    HW131941   1.775  11.170  12.547
10034SOL    HW231942   1.653  11.256  12.518
10035SOL     OW31943   1.476   2.869   3.436
10035SOL    HW131944   1.496   2.776   3.438
10035SOL    HW231945   1.406   2.880   3.501
10036SOL     OW31946   4.387   4.495  13.051
10036SOL    HW131947   4.312   4.547  13.021
10036SOL    HW231948   4.360   4.404  13.038
10037SOL     OW31949  12.154   7.046   2.339
10037SOL    HW131950  12.076   7.068   2.288
10037SOL    HW231951  12.124   6.976   2.398
10038SOL     OW31952   8.438  12.984   0.465
10038SOL    HW131953   8.417  13.016   0.378
10038SOL    HW231954   8.492  12.907   0.451
10039SOL     OW31955   0.664   6.570   9.041
10039SOL    HW131956   0.750   6.569   9.000
10039SOL    HW231957   0.623   6.650   9.009
10040SOL     OW31958   9.639   0.660   1.607
10040SOL    HW131959   9.713   0.615   1.647
10040SOL    HW231960   9.640   0.748   1.644
10041SOL     OW31961   9.468   9.641  13.397
10041SOL    HW131962   9.435   9.714  13.449
10041SOL    HW231963   9.451   9.668  13.306
10042SOL     OW31964  10.080  14.407   6.146
10042SOL    HW131965  10.138  14.361   6.085
10042SOL    HW231966  10.114  14.496   6.148
10043SOL     OW31967   9.389  14.563   0.192
10043SOL    HW131968   9.328  14.611   0.248
10043SOL    HW231969   9.431  14.501   0.251
10044SOL     OW31970  11.879  14.711   6.913
10044SOL    HW131971  11.942  14.706   6.985
10044SOL    HW231972  11.919  14.662   6.841
10045SOL     OW31973   6.023   8.419   1.139
10045SOL    HW131974   5.947   8.426   1.197
10045SOL    HW231975   6.000   8.473   1.064
10046SOL     OW31976   9.328   9.408   5.425
10046SOL    HW131977   9.423   9.402   5.418
10046SOL    HW231978   9.295   9.347   5.359
10047SOL     OW31979   7.592  14.696  11.843
10047SOL    HW131980   7.650  14.623  11.827
10047SOL    HW231981   7.521  14.686  11.780
10048SOL     OW31982   0.073   3.142   0.593
10048SOL    HW131983   0.039   3.174   0.510
10048SOL    HW231984   0.125   3.216   0.627
10049SOL     OW31985   3.755   8.814   3.548
10049SOL    HW131986   3.708   8.760   3.484
10049SOL    HW231987   3.808   8.752   3.597
10050SOL     OW31988   2.975   2.907   7.683
10050SOL    HW131989   3.011   2.822   7.655
10050SOL    HW231990   2.937   2.890   7.769
10051SOL     OW31991   7.555  13.225   5.812
10051SOL    HW131992   7.535  13.305   5.763
10051SOL    HW231993   7.623  13.181   5.760
10052SOL     OW31994   9.946  14.597   6.710
10052SOL    HW131995   9.861  14.641   6.722
10052SOL    HW231996  10.001  14.663   6.669
10053SOL     OW31997   2.996   9.736   8.191
10053SOL    HW131998   2.994   9.683   8.271
10053SOL    HW231999   3.046   9.682   8.129
10054SOL     OW32000   5.260   9.416   6.540
10054SOL    HW132001   5.169   9.447   6.542
10054SOL    HW232002   5.255   9.329   6.500
10055SOL     OW32003  10.741   6.142   8.379
10055SOL    HW132004  10.789   6.224   8.361
10055SOL    HW232005  10.802   6.073   8.352
10056SOL     OW32006  12.968   1.913   8.446
10056SOL    HW132007  12.877   1.918   8.419
10056SOL    HW232008  12.974   1.832   8.497
10057SOL     OW32009   2.108  11.640  13.336
10057SOL    HW132010   2.030  11.693  13.351
10057SOL    HW232011   2.120  11.591  13.417
10058SOL     OW32012   0.574   3.324  10.587
10058SOL    HW132013   0.589   3.267  10.512
10058SOL    HW232014   0.615   3.279  10.661
10059SOL     OW32015  12.042  10.268   0.723
10059SOL    HW132016  11.979  10.333   0.754
10059SOL    HW232017  12.127  10.305   0.746
10060SOL     OW32018  11.126   2.508   8.910
10060SOL    HW132019  11.142   2.512   8.816
10060SOL    HW232020  11.184   2.438   8.941
10061SOL     OW32021  13.969  13.139   2.678
10061SOL    HW132022  13.937  13.056   2.643
10061SOL    HW232023  13.995  13.119   2.768
10062SOL     OW32024   0.560   1.924   1.441
10062SOL    HW132025   0.522   1.991   1.384
10062SOL    HW232026   0.622   1.877   1.385
10063SOL     OW32027   0.290   9.023  12.544
10063SOL    HW132028   0.262   8.939  12.508
10063SOL    HW232029   0.359   9.000  12.607
10064SOL     OW32030  12.599  12.190   8.635
10064SOL    HW132031  12.516  12.157   8.669
10064SOL    HW232032  12.611  12.274   8.679
10065SOL     OW32033   1.185   9.792   1.205
10065SOL    HW132034   1.176   9.739   1.126
10065SOL    HW232035   1.168   9.882   1.176
10066SOL     OW32036   0.455  10.584   1.409
10066SOL    HW132037   0.417  10.598   1.496
10066SOL    HW232038   0.395  10.627   1.349
10067SOL     OW32039   0.120   5.327   9.705
10067SOL    HW132040   0.182   5.267   9.663
10067SOL    HW232041   0.037   5.279   9.707
10068SOL     OW32042   9.281   0.631   8.380
10068SOL    HW132043   9.244   0.691   8.315
10068SOL    HW232044   9.329   0.688   8.440
10069SOL     OW32045   9.465  11.340  14.199
10069SOL    HW132046   9.477  11.281  14.125
10069SOL    HW232047   9.447  11.425  14.159
10070SOL     OW32048  10.876   7.500   0.173
10070SOL    HW132049  10.847   7.448   0.098
10070SOL    HW232050  10.895   7.436   0.241
10071SOL     OW32051  11.295   2.877  10.724
10071SOL    HW132052  11.363   2.867  10.658
10071SOL    HW232053  11.214   2.853  10.680
10072SOL     OW32054  11.912  11.254   7.591
10072SOL    HW132055  11.938  11.279   7.503
10072SOL    HW232056  11.876  11.166   7.582
10073SOL     OW32057   8.209   1.701   1.052
10073SOL    HW132058   8.138   1.711   1.115
10073SOL    HW232059   8.224   1.789   1.018
10074SOL     OW32060   3.485   8.737  11.386
10074SOL    HW132061   3.479   8.650  11.425
10074SOL    HW232062   3.403   8.780  11.411
10075SOL     OW32063   0.991  14.850   0.709
10075SOL    HW132064   0.915   0.010   0.758
10075SOL    HW232065   0.969  14.867   0.617
10076SOL     OW32066  14.589   3.650   9.875
10076SOL    HW132067  14.617   3.727   9.924
10076SOL    HW232068  14.647   3.647   9.799
10077SOL     OW32069   7.825  12.140  13.032
10077SOL    HW132070   7.748  12.086  13.051
10077SOL    HW232071   7.880  12.130  13.110
10078SOL     OW32072  13.354   2.952   1.962
10078SOL    HW132073  13.358   3.047   1.949
10078SOL    HW232074  13.271   2.926   1.921
10079SOL     OW32075   7.414  10.313   2.084
10079SOL    HW132076   7.354  10.247   2.050
10079SOL    HW232077   7.500  10.285   2.056
10080SOL     OW32078  13.880  13.278   6.348
10080SOL    HW132079  13.945  13.216   6.315
10080SOL    HW232080  13.807  13.270   6.288
10081SOL     OW32081   8.763   2.291   0.090
10081SOL    HW132082   8.849   2.289   0.047
10081SOL    HW232083   8.742   2.384   0.099
10082SOL     OW32084   7.473   2.757   8.513
10082SOL    HW132085   7.455   2.694   8.583
10082SOL    HW232086   7.550   2.805   8.544
10083SOL     OW32087  12.595   1.708   7.643
10083SOL    HW132088  12.644   1.710   7.561
10083SOL    HW232089  12.661   1.691   7.710
10084SOL     OW32090   1.325   6.885  12.026
10084SOL    HW132091   1.326   6.939  11.946
10084SOL    HW232092   1.415   6.854  12.035
10085SOL     OW32093   9.009  14.643  11.363
10085SOL    HW132094   9.016  14.624  11.270
10085SOL    HW232095   9.005  14.738  11.369
10086SOL     OW32096   6.446  12.966   2.296
10086SOL    HW132097   6.476  13.057   2.303
10086SOL    HW232098   6.506  12.916   2.351
10087SOL     OW32099   1.216   6.330   5.137
10087SOL    HW132100   1.207   6.416   5.178
10087SOL    HW232101   1.301   6.297   5.167
10088SOL     OW32102  12.406   6.786  10.696
10088SOL    HW132103  12.470   6.794  10.767
10088SOL    HW232104  12.368   6.873  10.688
10089SOL     OW32105   3.323  10.130  10.079
10089SOL    HW132106   3.311  10.187  10.155
10089SOL    HW232107   3.415  10.140  10.056
10090SOL     OW32108  11.183   3.688   1.035
10090SOL    HW132109  11.242   3.760   1.014
10090SOL    HW232110  11.170   3.693   1.130
10091SOL     OW32111   6.337   0.143   6.466
10091SOL    HW132112   6.315   0.235   6.456
10091SOL    HW232113   6.343   0.129   6.560
10092SOL     OW32114   5.602  10.081   3.278
10092SOL    HW132115   5.673  10.129   3.322
10092SOL    HW232116   5.647  10.019   3.221
10093SOL     OW32117   4.150   1.411  14.691
10093SOL    HW132118   4.059   1.400  14.664
10093SOL    HW232119   4.194   1.447  14.614
10094SOL     OW32120  14.546  10.906   6.450
10094SOL    HW132121  14.628  10.944   6.419
10094SOL    HW232122  14.487  10.981   6.460
10095SOL     OW32123  10.610   6.358   9.423
10095SOL    HW132124  10.550   6.296   9.465
10095SOL    HW232125  10.692   6.310   9.416
10096SOL     OW32126   2.307  10.710   6.407
10096SOL    HW132127   2.402  10.711   6.401
10096SOL    HW232128   2.279  10.789   6.362
10097SOL     OW32129  11.550  11.465  11.377
10097SOL    HW132130  11.589  11.417  11.305
10097SOL    HW232131  11.558  11.406  11.453
10098SOL     OW32132   5.674   8.400  13.759
10098SOL    HW132133   5.753   8.427  13.712
10098SOL    HW232134   5.692   8.310  13.788
10099SOL     OW32135   9.574   2.678   6.832
10099SOL    HW132136   9.486   2.716   6.824
10099SOL    HW232137   9.604   2.667   6.742
10100SOL     OW32138   2.370   9.356   9.309
10100SOL    HW132139   2.362   9.354   9.214
10100SOL    HW232140   2.310   9.426   9.337
10101SOL     OW32141  12.374  12.874   2.103
10101SOL    HW132142  12.339  12.803   2.050
10101SOL    HW232143  12.462  12.888   2.068
10102SOL     OW32144   6.450   5.089   9.922
10102SOL    HW132145   6.487   5.133   9.999
10102SOL    HW232146   6.430   5.160   9.861
10103SOL     OW32147   7.588  12.353   8.504
10103SOL    HW132148   7.502  12.392   8.495
10103SOL    HW232149   7.640  12.393   8.435
10104SOL     OW32150   0.908   2.072   0.789
10104SOL    HW132151   0.868   1.989   0.813
10104SOL    HW232152   0.925   2.116   0.872
10105SOL     OW32153   7.867  10.969  10.316
10105SOL    HW132154   7.918  11.022  10.255
10105SOL    HW232155   7.851  11.027  10.391
10106SOL     OW32156  13.703   8.105   0.566
10106SOL    HW132157  13.794   8.122   0.542
10106SOL    HW232158  13.702   8.011   0.588
10107SOL     OW32159  14.683  14.531  13.502
10107SOL    HW132160  14.662  14.439  13.489
10107SOL    HW232161  14.761  14.546  13.449
10108SOL     OW32162   7.062  13.123  12.246
10108SOL    HW132163   7.130  13.067  12.209
10108SOL    HW232164   7.033  13.076  12.324
10109SOL     OW32165   0.282  11.328  12.944
10109SOL    HW132166   0.347  11.259  12.931
10109SOL    HW232167   0.333  11.409  12.939
10110SOL     OW32168   7.134   2.567  14.545
10110SOL    HW132169   7.188   2.518  14.483
10110SOL    HW232170   7.107   2.645  14.496
10111SOL     OW32171   3.951   4.074  14.362
10111SOL    HW132172   3.945   4.115  14.448
10111SOL    HW232173   3.942   4.146  14.300
10112SOL     OW32174   2.807   5.011   0.900
10112SOL    HW132175   2.898   5.038   0.893
10112SOL    HW232176   2.771   5.026   0.812
10113SOL     OW32177   6.808   1.300  10.664
10113SOL    HW132178   6.844   1.378  10.707
10113SOL    HW232179   6.735   1.275  10.719
10114SOL     OW32180   5.987  10.318   0.558
10114SOL    HW132181   6.054  10.275   0.504
10114SOL    HW232182   5.904  10.294   0.517
10115SOL     OW32183   1.789   6.705   4.335
10115SOL    HW132184   1.735   6.626   4.336
10115SOL    HW232185   1.823   6.710   4.246
10116SOL     OW32186   3.121   2.783  13.957
10116SOL    HW132187   3.072   2.816  13.882
10116SOL    HW232188   3.126   2.858  14.017
10117SOL     OW32189   0.246   0.565   0.240
10117SOL    HW132190   0.279   0.506   0.173
10117SOL    HW232191   0.154   0.579   0.217
10118SOL     OW32192   4.380   8.668  13.492
10118SOL    HW132193   4.389   8.670  13.587
10118SOL    HW232194   4.469   8.654  13.460
10119SOL     OW32195   7.233  10.062   5.117
10119SOL    HW132196   7.238  10.147   5.074
10119SOL    HW232197   7.255   9.999   5.049
10120SOL     OW32198   0.953  10.279   3.017
10120SOL    HW132199   1.035  10.231   3.019
10120SOL    HW232200   0.914  10.256   2.933
10121SOL     OW32201  14.173   5.384   3.461
10121SOL    HW132202  14.239   5.400   3.394
10121SOL    HW232203  14.159   5.469   3.502
10122SOL     OW32204   2.715  14.625   7.924
10122SOL    HW132205   2.634  14.635   7.973
10122SOL    HW232206   2.687  14.596   7.837
10123SOL     OW32207  12.671   9.907  13.599
10123SOL    HW132208  12.686   9.818  13.632
10123SOL    HW232209  12.622   9.950  13.669
10124SOL     OW32210   4.329   8.923   4.522
10124SOL    HW132211   4.255   8.866   4.542
10124SOL    HW232212   4.294   9.012   4.526
10125SOL     OW32213   1.967   5.287   4.077
10125SOL    HW132214   1.948   5.361   4.019
10125SOL    HW232215   1.987   5.214   4.018
10126SOL     OW32216   3.920  12.418  14.328
10126SOL    HW132217   3.920  12.447  14.419
10126SOL    HW232218   3.938  12.498  14.278
10127SOL     OW32219   1.806  12.936  12.249
10127SOL    HW132220   1.829  12.844  12.239
10127SOL    HW232221   1.831  12.957  12.339
10128SOL     OW32222   0.389   8.981   6.602
10128SOL    HW132223   0.429   8.922   6.537
10128SOL    HW232224   0.330   9.036   6.550
10129SOL     OW32225  12.889  11.754   1.685
10129SOL    HW132226  12.863  11.730   1.774
10129SOL    HW232227  12.984  11.770   1.692
10130SOL     OW32228   1.544  14.488  14.518
10130SOL    HW132229   1.596  14.426  14.468
10130SOL    HW232230   1.599  14.511  14.593
10131SOL     OW32231  12.841   5.096  13.936
10131SOL    HW132232  12.787   5.116  13.860
10131SOL    HW232233  12.807   5.012  13.969
10132SOL     OW32234   9.875   8.216   5.295
10132SOL    HW132235   9.928   8.194   5.218
10132SOL    HW232236   9.885   8.140   5.352
10133SOL     OW32237  10.733   1.286   0.914
10133SOL    HW132238  10.778   1.313   0.834
10133SOL    HW232239  10.786   1.322   0.985
10134SOL     OW32240   5.002   7.609   2.924
10134SOL    HW132241   5.027   7.519   2.907
10134SOL    HW232242   5.079   7.649   2.964
10135SOL     OW32243   3.931  14.211   7.354
10135SOL    HW132244   3.978  14.137   7.315
10135SOL    HW232245   3.996  14.255   7.408
10136SOL     OW32246  14.113   0.438   9.785
10136SOL    HW132247  14.106   0.404   9.696
10136SOL    HW232248  14.174   0.380   9.828
10137SOL     OW32249   6.058  10.074  13.824
10137SOL    HW132250   6.058   9.995  13.877
10137SOL    HW232251   5.977  10.068  13.773
10138SOL     OW32252  10.397   9.394   0.303
10138SOL    HW132253  10.303   9.385   0.285
10138SOL    HW232254  10.402   9.411   0.397
10139SOL     OW32255   7.397  14.262   8.982
10139SOL    HW132256   7.441  14.337   8.941
10139SOL    HW232257   7.304  14.281   8.971
10140SOL     OW32258   8.224   4.817  13.238
10140SOL    HW132259   8.205   4.754  13.308
10140SOL    HW232260   8.155   4.883  13.246
10141SOL     OW32261   0.709  14.067  11.120
10141SOL    HW132262   0.727  14.079  11.213
10141SOL    HW232263   0.627  14.018  11.117
10142SOL     OW32264   8.918   4.898   1.818
10142SOL    HW132265   8.989   4.951   1.783
10142SOL    HW232266   8.917   4.917   1.912
10143SOL     OW32267  14.093   9.224  14.235
10143SOL    HW132268  14.098   9.158  14.166
10143SOL    HW232269  14.010   9.269  14.219
10144SOL     OW32270  14.086   2.290   8.514
10144SOL    HW132271  13.991   2.286   8.526
10144SOL    HW232272  14.104   2.384   8.506
10145SOL     OW32273   6.866   0.300  11.877
10145SOL    HW132274   6.796   0.280  11.815
10145SOL    HW232275   6.822   0.349  11.947
10146SOL     OW32276   4.437   4.676  11.036
10146SOL    HW132277   4.511   4.715  11.084
10146SOL    HW232278   4.478   4.614  10.976
10147SOL     OW32279   0.987   3.263  14.329
10147SOL    HW132280   0.959   3.254  14.421
10147SOL    HW232281   0.906   3.284  14.282
10148SOL     OW32282   1.171   6.265  13.289
10148SOL    HW132283   1.161   6.220  13.373
10148SOL    HW232284   1.254   6.313  13.297
10149SOL     OW32285   5.495  10.202  13.791
10149SOL    HW132286   5.415  10.149  13.787
10149SOL    HW232287   5.504  10.223  13.884
10150SOL     OW32288   1.662  12.916   9.412
10150SOL    HW132289   1.655  12.908   9.507
10150SOL    HW232290   1.644  13.008   9.394
10151SOL     OW32291   9.401  14.305  10.412
10151SOL    HW132292   9.415  14.389  10.368
10151SOL    HW232293   9.488  14.265  10.414
10152SOL     OW32294   9.084  13.260   5.075
10152SOL    HW132295   9.094  13.282   4.982
10152SOL    HW232296   9.066  13.345   5.117
10153SOL     OW32297  10.834   4.464   4.556
10153SOL    HW132298  10.870   4.382   4.590
10153SOL    HW232299  10.910   4.510   4.520
10154SOL     OW32300  11.530   2.820   5.425
10154SOL    HW132301  11.593   2.878   5.468
10154SOL    HW232302  11.572   2.797   5.342
10155SOL     OW32303   0.653   8.916   7.344
10155SOL    HW132304   0.713   8.974   7.390
10155SOL    HW232305   0.697   8.897   7.261
10156SOL     OW32306  14.450   3.723   4.813
10156SOL    HW132307  14.540   3.735   4.844
10156SOL    HW232308  14.457   3.731   4.718
10157SOL     OW32309   7.734  13.985   1.058
10157SOL    HW132310   7.704  14.075   1.046
10157SOL    HW232311   7.663  13.942   1.104
10158SOL     OW32312   7.214   8.828  12.698
10158SOL    HW132313   7.174   8.800  12.780
10158SOL    HW232314   7.152   8.799  12.631
10159SOL     OW32315  13.842   6.095  12.322
10159SOL    HW132316  13.937   6.106  12.322
10159SOL    HW232317  13.808   6.184  12.338
10160SOL     OW32318   5.435   2.170  12.788
10160SOL    HW132319   5.436   2.114  12.865
10160SOL    HW232320   5.441   2.109  12.714
10161SOL     OW32321   2.037   4.952  10.304
10161SOL    HW132322   2.132   4.964  10.306
10161SOL    HW232323   2.018   4.894  10.377
10162SOL     OW32324   1.661   5.534   9.541
10162SOL    HW132325   1.727   5.475   9.506
10162SOL    HW232326   1.683   5.619   9.504
10163SOL     OW32327   3.674  13.517   1.871
10163SOL    HW132328   3.729  13.583   1.827
10163SOL    HW232329   3.644  13.460   1.800
10164SOL     OW32330   3.787  13.167   3.601
10164SOL    HW132331   3.776  13.074   3.577
10164SOL    HW232332   3.879  13.185   3.583
10165SOL     OW32333   5.393   1.396  10.053
10165SOL    HW132334   5.449   1.390   9.976
10165SOL    HW232335   5.328   1.462  10.030
10166SOL     OW32336   3.545  11.240  12.139
10166SOL    HW132337   3.456  11.217  12.166
10166SOL    HW232338   3.583  11.284  12.215
10167SOL     OW32339   2.637  11.751   1.621
10167SOL    HW132340   2.622  11.660   1.594
10167SOL    HW232341   2.553  11.780   1.657
10168SOL     OW32342   5.583   5.241   0.901
10168SOL    HW132343   5.594   5.246   0.806
10168SOL    HW232344   5.636   5.314   0.934
10169SOL     OW32345   8.676  13.024  14.235
10169SOL    HW132346   8.707  12.933  14.240
10169SOL    HW232347   8.649  13.046  14.324
10170SOL     OW32348  10.190   6.282  13.274
10170SOL    HW132349  10.270   6.298  13.324
10170SOL    HW232350  10.144   6.215  13.324
10171SOL     OW32351   8.934   4.597  14.612
10171SOL    HW132352   9.001   4.533  14.586
10171SOL    HW232353   8.971   4.682  14.588
10172SOL     OW32354   4.234  12.601   9.263
10172SOL    HW132355   4.229  12.506   9.273
10172SOL    HW232356   4.211  12.616   9.171
10173SOL     OW32357   7.769  13.942   3.132
10173SOL    HW132358   7.694  13.959   3.189
10173SOL    HW232359   7.817  14.024   3.130
10174SOL     OW32360   1.254   8.500   3.470
10174SOL    HW132361   1.233   8.546   3.551
10174SOL    HW232362   1.170   8.466   3.439
10175SOL     OW32363   2.163  13.558  14.739
10175SOL    HW132364   2.068  13.553  14.729
10175SOL    HW232365   2.175  13.606  14.821
10176SOL     OW32366   4.956   1.220   1.319
10176SOL    HW132367   4.888   1.156   1.341
10176SOL    HW232368   4.932   1.298   1.369
10177SOL     OW32369   4.000   2.547   2.298
10177SOL    HW132370   4.033   2.601   2.369
10177SOL    HW232371   3.924   2.501   2.336
10178SOL     OW32372  11.960   3.913  12.886
10178SOL    HW132373  11.997   3.851  12.950
10178SOL    HW232374  11.898   3.860  12.835
10179SOL     OW32375  12.680   6.228   7.624
10179SOL    HW132376  12.733   6.211   7.702
10179SOL    HW232377  12.606   6.168   7.632
10180SOL     OW32378  12.126  11.539  12.845
10180SOL    HW132379  12.130  11.547  12.749
10180SOL    HW232380  12.217  11.537  12.872
10181SOL     OW32381   3.038   6.888   0.034
10181SOL    HW132382   3.063   6.880  14.815
10181SOL    HW232383   2.944   6.906   0.031
10182SOL     OW32384   2.707   9.998   7.762
10182SOL    HW132385   2.619   9.962   7.754
10182SOL    HW232386   2.693  10.093   7.768
10183SOL     OW32387   6.029   8.753  12.162
10183SOL    HW132388   6.061   8.678  12.112
10183SOL    HW232389   6.096   8.820  12.150
10184SOL     OW32390  10.546   6.839  13.568
10184SOL    HW132391  10.512   6.928  13.560
10184SOL    HW232392  10.474   6.783  13.540
10185SOL     OW32393  10.304   4.010   1.510
10185SOL    HW132394  10.332   3.918   1.509
10185SOL    HW232395  10.351   4.048   1.584
10186SOL     OW32396   0.932   4.433   4.727
10186SOL    HW132397   0.947   4.501   4.793
10186SOL    HW232398   0.965   4.471   4.645
10187SOL     OW32399   0.222   8.359  11.075
10187SOL    HW132400   0.214   8.391  10.985
10187SOL    HW232401   0.163   8.283  11.079
10188SOL     OW32402  10.050  12.600  11.274
10188SOL    HW132403  10.060  12.674  11.334
10188SOL    HW232404  10.012  12.637  11.195
10189SOL     OW32405   4.849   2.507   6.802
10189SOL    HW132406   4.897   2.533   6.724
10189SOL    HW232407   4.779   2.572   6.810
10190SOL     OW32408   2.157   7.387  10.294
10190SOL    HW132409   2.117   7.384  10.207
10190SOL    HW232410   2.191   7.476  10.301
10191SOL     OW32411  10.094   9.755  13.929
10191SOL    HW132412  10.085   9.746  13.834
10191SOL    HW232413  10.100   9.665  13.961
10192SOL     OW32414  14.693  12.403   5.139
10192SOL    HW132415  14.654  12.325   5.179
10192SOL    HW232416  14.625  12.436   5.080
10193SOL     OW32417   5.619  10.587   7.587
10193SOL    HW132418   5.694  10.528   7.579
10193SOL    HW232419   5.647  10.667   7.541
10194SOL     OW32420   5.224   6.539   8.538
10194SOL    HW132421   5.167   6.615   8.537
10194SOL    HW232422   5.205   6.495   8.621
10195SOL     OW32423   0.580   2.364   8.274
10195SOL    HW132424   0.515   2.418   8.319
10195SOL    HW232425   0.607   2.416   8.198
10196SOL     OW32426   8.857  12.646   9.936
10196SOL    HW132427   8.878  12.657   9.843
10196SOL    HW232428   8.768  12.610   9.937
10197SOL     OW32429   1.506  10.346  11.743
10197SOL    HW132430   1.421  10.383  11.717
10197SOL    HW232431   1.511  10.263  11.696
10198SOL     OW32432  12.908  14.380  13.123
10198SOL    HW132433  12.975  14.351  13.061
10198SOL    HW232434  12.882  14.301  13.170
10199SOL     OW32435   4.303   5.901   0.398
10199SOL    HW132436   4.337   5.989   0.383
10199SOL    HW232437   4.214   5.903   0.364
10200SOL     OW32438  12.879   8.445   6.178
10200SOL    HW132439  12.941   8.406   6.239
10200SOL    HW232440  12.825   8.503   6.231
10201SOL     OW32441   7.213   1.713  14.648
10201SOL    HW132442   7.241   1.637  14.595
10201SOL    HW232443   7.118   1.711  14.643
10202SOL     OW32444   7.846   1.313   2.984
10202SOL    HW132445   7.872   1.259   2.909
10202SOL    HW232446   7.769   1.361   2.953
10203SOL     OW32447   7.762   1.630   6.619
10203SOL    HW132448   7.752   1.604   6.711
10203SOL    HW232449   7.710   1.566   6.570
10204SOL     OW32450  14.716   2.905   8.727
10204SOL    HW132451  14.719   2.998   8.750
10204SOL    HW232452  14.789   2.866   8.775
10205SOL     OW32453   0.757   7.548   7.578
10205SOL    HW132454   0.715   7.475   7.533
10205SOL    HW232455   0.718   7.548   7.665
10206SOL     OW32456  11.007   5.036  11.401
10206SOL    HW132457  10.914   5.058  11.409
10206SOL    HW232458  11.009   4.964  11.338
10207SOL     OW32459   3.346  13.781  14.193
10207SOL    HW132460   3.301  13.785  14.108
10207SOL    HW232461   3.342  13.688  14.217
10208SOL     OW32462   7.667   9.565   7.054
10208SOL    HW132463   7.636   9.655   7.046
10208SOL    HW232464   7.598   9.512   7.013
10209SOL     OW32465   1.364  11.616   1.780
10209SOL    HW132466   1.429  11.546   1.784
10209SOL    HW232467   1.413  11.697   1.795
10210SOL     OW32468   8.351   6.980  12.165
10210SOL    HW132469   8.437   6.958  12.130
10210SOL    HW232470   8.337   7.071  12.140
10211SOL     OW32471   9.196  12.723   3.956
10211SOL    HW132472   9.245  12.680   4.026
10211SOL    HW232473   9.108  12.735   3.993
10212SOL     OW32474   1.045  12.652  10.308
10212SOL    HW132475   0.961  12.619  10.341
10212SOL    HW232476   1.106  12.637  10.380
10213SOL     OW32477   4.807   3.840  13.635
10213SOL    HW132478   4.807   3.797  13.550
10213SOL    HW232479   4.745   3.912  13.625
10214SOL     OW32480   6.469   2.419   9.332
10214SOL    HW132481   6.375   2.435   9.337
10214SOL    HW232482   6.508   2.507   9.327
10215SOL     OW32483   6.960   8.089   0.002
10215SOL    HW132484   6.907   8.083   0.082
10215SOL    HW232485   6.977   8.182  14.865
10216SOL     OW32486  12.899   5.966   4.882
10216SOL    HW132487  12.977   6.022   4.880
10216SOL    HW232488  12.928   5.883   4.844
10217SOL     OW32489   3.275   3.647   3.511
10217SOL    HW132490   3.367   3.627   3.491
10217SOL    HW232491   3.266   3.628   3.604
10218SOL     OW32492  12.644   0.345  11.822
10218SOL    HW132493  12.730   0.361  11.860
10218SOL    HW232494  12.620   0.429  11.780
10219SOL     OW32495   2.365   5.930   8.957
10219SOL    HW132496   2.383   6.020   8.932
10219SOL    HW232497   2.320   5.892   8.881
10220SOL     OW32498   8.435  10.435   5.592
10220SOL    HW132499   8.358  10.492   5.585
10220SOL    HW232500   8.402  10.355   5.632
10221SOL     OW32501   5.871   3.010   4.030
10221SOL    HW132502   5.791   3.061   4.014
10221SOL    HW232503   5.941   3.075   4.031
10222SOL     OW32504   4.238  13.959   3.082
10222SOL    HW132505   4.197  14.023   3.140
10222SOL    HW232506   4.172  13.942   3.015
10223SOL     OW32507   7.385   5.925   2.908
10223SOL    HW132508   7.381   6.019   2.920
10223SOL    HW232509   7.429   5.892   2.986
10224SOL     OW32510   1.901   2.861  11.046
10224SOL    HW132511   1.960   2.815  10.987
10224SOL    HW232512   1.943   2.854  11.132
10225SOL     OW32513   5.491   2.748   0.495
10225SOL    HW132514   5.509   2.753   0.589
10225SOL    HW232515   5.421   2.812   0.480
10226SOL     OW32516   3.172  12.770   3.639
10226SOL    HW132517   3.246  12.795   3.694
10226SOL    HW232518   3.095  12.804   3.684
10227SOL     OW32519   2.978   3.001   1.793
10227SOL    HW132520   2.998   2.937   1.724
10227SOL    HW232521   3.020   3.082   1.763
10228SOL     OW32522   0.691  14.082   7.228
10228SOL    HW132523   0.655  14.052   7.312
10228SOL    HW232524   0.771  14.129   7.252
10229SOL     OW32525   1.470   7.733   0.025
10229SOL    HW132526   1.379   7.754   0.004
10229SOL    HW232527   1.516   7.737  14.814
10230SOL     OW32528  10.375   0.485  10.273
10230SOL    HW132529  10.452   0.508  10.221
10230SOL    HW232530  10.312   0.555  10.255
10231SOL     OW32531   7.966   5.321   0.488
10231SOL    HW132532   7.938   5.400   0.443
10231SOL    HW232533   8.016   5.272   0.423
10232SOL     OW32534   1.671   5.140  10.882
10232SOL    HW132535   1.596   5.184  10.843
10232SOL    HW232536   1.642   5.049  10.893
10233SOL     OW32537   6.733   4.686  11.159
10233SOL    HW132538   6.698   4.766  11.199
10233SOL    HW232539   6.745   4.626  11.232
10234SOL     OW32540  11.519   1.582   0.187
10234SOL    HW132541  11.446   1.530   0.153
10234SOL    HW232542  11.478   1.646   0.245
10235SOL     OW32543  12.682  12.610   5.520
10235SOL    HW132544  12.629  12.532   5.539
10235SOL    HW232545  12.766  12.575   5.492
10236SOL     OW32546   4.176   2.733   8.399
10236SOL    HW132547   4.149   2.646   8.369
10236SOL    HW232548   4.094   2.778   8.419
10237SOL     OW32549  10.546   3.626   5.119
10237SOL    HW132550  10.560   3.710   5.074
10237SOL    HW232551  10.634   3.592   5.132
10238SOL     OW32552  11.657   7.093   0.356
10238SOL    HW132553  11.691   7.182   0.345
10238SOL    HW232554  11.562   7.104   0.364
10239SOL     OW32555   8.964   1.078   6.305
10239SOL    HW132556   8.883   1.125   6.323
10239SOL    HW232557   9.016   1.087   6.385
10240SOL     OW32558   2.792   8.768   5.861
10240SOL    HW132559   2.880   8.739   5.836
10240SOL    HW232560   2.736   8.693   5.843
10241SOL     OW32561   0.771   5.568   8.813
10241SOL    HW132562   0.675   5.571   8.810
10241SOL    HW232563   0.795   5.638   8.874
10242SOL     OW32564  12.705   1.124   2.947
10242SOL    HW132565  12.749   1.048   2.908
10242SOL    HW232566  12.744   1.200   2.903
10243SOL     OW32567  12.084  10.141   0.401
10243SOL    HW132568  12.026  10.087   0.454
10243SOL    HW232569  12.026  10.185   0.339
10244SOL     OW32570   3.571   1.919   8.234
10244SOL    HW132571   3.640   1.854   8.227
10244SOL    HW232572   3.615   2.003   8.220
10245SOL     OW32573   2.973   9.392   3.496
10245SOL    HW132574   3.059   9.421   3.469
10245SOL    HW232575   2.926   9.472   3.521
10246SOL     OW32576   9.693  11.118  11.049
10246SOL    HW132577   9.788  11.113  11.041
10246SOL    HW232578   9.675  11.209  11.072
10247SOL     OW32579  11.509   1.035   5.723
10247SOL    HW132580  11.557   1.026   5.805
10247SOL    HW232581  11.538   1.120   5.688
10248SOL     OW32582   6.383   1.520   0.517
10248SOL    HW132583   6.288   1.505   0.516
10248SOL    HW232584   6.418   1.451   0.573
10249SOL     OW32585   2.766  13.633   5.910
10249SOL    HW132586   2.811  13.706   5.866
10249SOL    HW232587   2.692  13.674   5.954
10250SOL     OW32588   3.280  11.606  13.409
10250SOL    HW132589   3.253  11.518  13.438
10250SOL    HW232590   3.244  11.665  13.475
10251SOL     OW32591   5.160   2.012   7.833
10251SOL    HW132592   5.080   1.982   7.875
10251SOL    HW232593   5.225   1.945   7.855
10252SOL     OW32594   2.714  12.002   0.266
10252SOL    HW132595   2.675  12.075   0.219
10252SOL    HW232596   2.737  12.037   0.352
10253SOL     OW32597   9.545  10.257  14.761
10253SOL    HW132598   9.559  10.235  14.668
10253SOL    HW232599   9.546  10.353  14.763
10254SOL     OW32600  13.341  12.600   0.304
10254SOL    HW132601  13.427  12.613   0.264
10254SOL    HW232602  13.358  12.548   0.383
10255SOL     OW32603   7.769   1.166  13.647
10255SOL    HW132604   7.692   1.173  13.704
10255SOL    HW232605   7.741   1.107  13.577
10256SOL     OW32606   2.865   1.581   6.846
10256SOL    HW132607   2.837   1.641   6.778
10256SOL    HW232608   2.833   1.620   6.928
10257SOL     OW32609  12.536  13.316  10.450
10257SOL    HW132610  12.561  13.361  10.369
10257SOL    HW232611  12.619  13.292  10.491
10258SOL     OW32612   0.376  12.713  12.174
10258SOL    HW132613   0.359  12.758  12.091
10258SOL    HW232614   0.401  12.783  12.234
10259SOL     OW32615   8.425   4.115  11.206
10259SOL    HW132616   8.448   4.130  11.115
10259SOL    HW232617   8.431   4.201  11.248
10260SOL     OW32618  11.486   3.356  14.292
10260SOL    HW132619  11.579   3.364  14.312
10260SOL    HW232620  11.460   3.274  14.333
10261SOL     OW32621   2.216   1.429   7.528
10261SOL    HW132622   2.179   1.514   7.504
10261SOL    HW232623   2.269   1.447   7.605
10262SOL     OW32624   1.869   5.924   2.898
10262SOL    HW132625   1.957   5.947   2.927
10262SOL    HW232626   1.880   5.902   2.805
10263SOL     OW32627   2.477   8.791  11.740
10263SOL    HW132628   2.387   8.773  11.713
10263SOL    HW232629   2.529   8.726  11.694
10264SOL     OW32630   3.166   3.055  14.593
10264SOL    HW132631   3.162   3.150  14.583
10264SOL    HW232632   3.080   3.024  14.566
10265SOL     OW32633   2.667  13.974  10.197
10265SOL    HW132634   2.750  13.934  10.170
10265SOL    HW232635   2.621  13.904  10.243
10266SOL     OW32636  12.758  11.585   2.968
10266SOL    HW132637  12.728  11.568   3.057
10266SOL    HW232638  12.722  11.672   2.947
10267SOL     OW32639   3.903  11.331  12.775
10267SOL    HW132640   3.845  11.305  12.846
10267SOL    HW232641   3.910  11.426  12.784
10268SOL     OW32642   2.862   8.375   0.770
10268SOL    HW132643   2.907   8.457   0.749
10268SOL    HW232644   2.864   8.371   0.866
10269SOL     OW32645   1.502   1.149   7.159
10269SOL    HW132646   1.439   1.077   7.147
10269SOL    HW232647   1.492   1.175   7.250
10270SOL     OW32648  14.397  14.463   4.116
10270SOL    HW132649  14.360  14.430   4.198
10270SOL    HW232650  14.354  14.547   4.102
10271SOL     OW32651   7.234   8.685   6.735
10271SOL    HW132652   7.228   8.773   6.698
10271SOL    HW232653   7.199   8.694   6.823
10272SOL     OW32654  14.579   7.859   8.920
10272SOL    HW132655  14.547   7.854   9.011
10272SOL    HW232656  14.584   7.768   8.891
10273SOL     OW32657   8.403  13.167  10.492
10273SOL    HW132658   8.433  13.096  10.548
10273SOL    HW232659   8.322  13.197  10.534
10274SOL     OW32660   2.066   9.553  13.402
10274SOL    HW132661   2.086   9.632  13.352
10274SOL    HW232662   2.115   9.483  13.359
10275SOL     OW32663   3.345  11.078   4.469
10275SOL    HW132664   3.338  11.078   4.565
10275SOL    HW232665   3.422  11.132   4.452
10276SOL     OW32666  13.077   9.085   8.095
10276SOL    HW132667  13.051   9.175   8.078
10276SOL    HW232668  13.036   9.063   8.179
10277SOL     OW32669   1.505   4.889   7.344
10277SOL    HW132670   1.496   4.934   7.428
10277SOL    HW232671   1.444   4.815   7.349
10278SOL     OW32672   0.441   6.469   7.887
10278SOL    HW132673   0.387   6.413   7.943
10278SOL    HW232674   0.476   6.535   7.947
10279SOL     OW32675   1.320  11.402   8.008
10279SOL    HW132676   1.238  11.450   7.999
10279SOL    HW232677   1.367  11.417   7.926
10280SOL     OW32678  11.085   4.686  10.855
10280SOL    HW132679  11.148   4.663  10.923
10280SOL    HW232680  11.011   4.628  10.871
10281SOL     OW32681   6.132   5.496   2.881
10281SOL    HW132682   6.047   5.539   2.868
10281SOL    HW232683   6.196   5.561   2.853
10282SOL     OW32684   9.120   4.602   3.550
10282SOL    HW132685   9.156   4.516   3.531
10282SOL    HW232686   9.077   4.629   3.468
10283SOL     OW32687   3.549   5.901  12.426
10283SOL    HW132688   3.502   5.932  12.349
10283SOL    HW232689   3.606   5.974  12.450
10284SOL     OW32690   1.180   2.975   0.015
10284SOL    HW132691   1.180   2.985  14.793
10284SOL    HW232692   1.136   3.054   0.047
10285SOL     OW32693  10.001  11.863  14.566
10285SOL    HW132694   9.971  11.805  14.635
10285SOL    HW232695  10.027  11.943  14.611
10286SOL     OW32696   7.440   1.988   0.145
10286SOL    HW132697   7.351   1.974   0.179
10286SOL    HW232698   7.452   1.919   0.080
10287SOL     OW32699   9.266  14.636   3.727
10287SOL    HW132700   9.356  14.609   3.747
10287SOL    HW232701   9.227  14.653   3.813
10288SOL     OW32702   6.575   7.806  11.349
10288SOL    HW132703   6.566   7.800  11.253
10288SOL    HW232704   6.623   7.727  11.374
10289SOL     OW32705   3.089   6.119  14.802
10289SOL    HW132706   3.153   6.137  14.733
10289SOL    HW232707   3.032   6.052  14.764
10290SOL     OW32708   5.505   0.270   9.115
10290SOL    HW132709   5.485   0.197   9.174
10290SOL    HW232710   5.478   0.239   9.029
10291SOL     OW32711   3.613  12.073   4.007
10291SOL    HW132712   3.693  12.111   3.969
10291SOL    HW232713   3.623  11.979   3.992
10292SOL     OW32714  10.680   9.677   2.392
10292SOL    HW132715  10.648   9.767   2.400
10292SOL    HW232716  10.601   9.623   2.394
10293SOL     OW32717   3.903   2.528   0.870
10293SOL    HW132718   3.974   2.494   0.816
10293SOL    HW232719   3.883   2.613   0.831
10294SOL     OW32720  13.924   4.075   7.002
10294SOL    HW132721  13.975   4.034   7.072
10294SOL    HW232722  13.888   4.002   6.952
10295SOL     OW32723  11.632  13.133   6.733
10295SOL    HW132724  11.696  13.067   6.759
10295SOL    HW232725  11.631  13.196   6.805
10296SOL     OW32726   8.578   5.726   0.543
10296SOL    HW132727   8.546   5.667   0.475
10296SOL    HW232728   8.515   5.718   0.614
10297SOL     OW32729   2.733   6.538  10.887
10297SOL    HW132730   2.778   6.516  10.969
10297SOL    HW232731   2.728   6.634  10.888
10298SOL     OW32732  14.152   8.644   3.078
10298SOL    HW132733  14.069   8.666   3.035
10298SOL    HW232734  14.218   8.695   3.031
10299SOL     OW32735   7.978  13.639   5.377
10299SOL    HW132736   7.982  13.685   5.461
10299SOL    HW232737   8.040  13.567   5.386
10300SOL     OW32738   7.487   0.799   7.821
10300SOL    HW132739   7.567   0.749   7.803
10300SOL    HW232740   7.425   0.734   7.854
10301SOL     OW32741   0.361   6.675   1.940
10301SOL    HW132742   0.269   6.661   1.964
10301SOL    HW232743   0.411   6.634   2.011
10302SOL     OW32744   8.659  10.662  12.557
10302SOL    HW132745   8.718  10.587  12.568
10302SOL    HW232746   8.716  10.739  12.562
10303SOL     OW32747   5.993   7.477   0.172
10303SOL    HW132748   5.936   7.416   0.218
10303SOL    HW232749   5.933   7.540   0.131
10304SOL     OW32750  12.520  10.199   9.748
10304SOL    HW132751  12.510  10.207   9.653
10304SOL    HW232752  12.445  10.147   9.776
10305SOL     OW32753   2.343  14.616   8.033
10305SOL    HW132754   2.388  14.537   8.064
10305SOL    HW232755   2.277  14.635   8.099
10306SOL     OW32756   6.933  14.680  11.603
10306SOL    HW132757   6.897  14.706  11.518
10306SOL    HW232758   6.910  14.752  11.661
10307SOL     OW32759   3.399   0.343  14.818
10307SOL    HW132760   3.443   0.348  14.733
10307SOL    HW232761   3.326   0.284  14.804
10308SOL     OW32762   2.471   0.154  10.596
10308SOL    HW132763   2.549   0.168  10.542
10308SOL    HW232764   2.407   0.115  10.537
10309SOL     OW32765   5.909   1.886   8.428
10309SOL    HW132766   5.973   1.924   8.367
10309SOL    HW232767   5.930   1.793   8.430
10310SOL     OW32768  13.537   8.166   5.546
10310SOL    HW132769  13.481   8.200   5.475
10310SOL    HW232770  13.494   8.197   5.626
10311SOL     OW32771   6.672  10.839  12.766
10311SOL    HW132772   6.738  10.865  12.829
10311SOL    HW232773   6.661  10.914  12.709
10312SOL     OW32774  12.691  14.366   9.371
10312SOL    HW132775  12.604  14.389   9.406
10312SOL    HW232776  12.750  14.428   9.413
10313SOL     OW32777   5.975   0.491   2.947
10313SOL    HW132778   5.960   0.421   3.011
10313SOL    HW232779   6.003   0.446   2.868
10314SOL     OW32780  13.610   7.446  12.429
10314SOL    HW132781  13.615   7.426  12.336
10314SOL    HW232782  13.673   7.517  12.442
10315SOL     OW32783  10.992   9.878   5.430
10315SOL    HW132784  11.003   9.905   5.521
10315SOL    HW232785  11.066   9.820   5.412
10316SOL     OW32786   7.497  11.796   2.339
10316SOL    HW132787   7.494  11.843   2.255
10316SOL    HW232788   7.553  11.850   2.395
10317SOL     OW32789  10.979   2.072   3.481
10317SOL    HW132790  11.039   2.114   3.420
10317SOL    HW232791  10.934   2.145   3.525
10318SOL     OW32792  10.939   8.306   5.895
10318SOL    HW132793  11.015   8.318   5.838
10318SOL    HW232794  10.937   8.385   5.949
10319SOL     OW32795   1.171   1.157   8.762
10319SOL    HW132796   1.229   1.169   8.686
10319SOL    HW232797   1.182   1.236   8.814
10320SOL     OW32798   3.808  13.966   8.233
10320SOL    HW132799   3.840  14.002   8.316
10320SOL    HW232800   3.739  14.026   8.206
10321SOL     OW32801   8.018   1.382  10.575
10321SOL    HW132802   8.096   1.429  10.605
10321SOL    HW232803   8.044   1.290  10.575
10322SOL     OW32804   3.623   7.911   4.529
10322SOL    HW132805   3.549   7.923   4.469
10322SOL    HW232806   3.657   8.000   4.542
10323SOL     OW32807  12.886  12.606  10.181
10323SOL    HW132808  12.905  12.514  10.199
10323SOL    HW232809  12.849  12.640  10.263
10324SOL     OW32810   3.480  12.848  11.141
10324SOL    HW132811   3.415  12.886  11.082
10324SOL    HW232812   3.519  12.924  11.185
10325SOL     OW32813   7.437   4.802   8.150
10325SOL    HW132814   7.508   4.739   8.154
10325SOL    HW232815   7.389   4.790   8.232
10326SOL     OW32816   6.167   8.958   9.778
10326SOL    HW132817   6.215   8.933   9.699
10326SOL    HW232818   6.105   9.025   9.749
10327SOL     OW32819   7.279   2.152   8.478
10327SOL    HW132820   7.307   2.094   8.406
10327SOL    HW232821   7.331   2.231   8.465
10328SOL     OW32822   3.374   3.960   7.478
10328SOL    HW132823   3.379   3.922   7.390
10328SOL    HW232824   3.410   4.048   7.469
10329SOL     OW32825  13.169   1.914   9.543
10329SOL    HW132826  13.132   1.850   9.481
10329SOL    HW232827  13.241   1.955   9.495
10330SOL     OW32828  13.658  14.210   0.347
10330SOL    HW132829  13.634  14.197   0.255
10330SOL    HW232830  13.609  14.143   0.395
10331SOL     OW32831  13.827   6.834   2.640
10331SOL    HW132832  13.913   6.792   2.650
10331SOL    HW232833  13.835   6.917   2.688
10332SOL     OW32834   2.375   3.526  13.782
10332SOL    HW132835   2.348   3.446  13.736
10332SOL    HW232836   2.358   3.508  13.874
10333SOL     OW32837   6.590   4.579  14.655
10333SOL    HW132838   6.570   4.491  14.685
10333SOL    HW232839   6.555   4.636  14.723
10334SOL     OW32840   3.328   1.864  11.112
10334SOL    HW132841   3.403   1.833  11.062
10334SOL    HW232842   3.309   1.794  11.175
10335SOL     OW32843   0.809   3.163   0.293
10335SOL    HW132844   0.751   3.111   0.349
10335SOL    HW232845   0.752   3.197   0.224
10336SOL     OW32846  12.819  12.184   0.729
10336SOL    HW132847  12.832  12.106   0.674
10336SOL    HW232848  12.872  12.251   0.687
10337SOL     OW32849   0.829   4.347   8.621
10337SOL    HW132850   0.874   4.298   8.690
10337SOL    HW232851   0.812   4.282   8.552
10338SOL     OW32852   7.183  10.903   4.350
10338SOL    HW132853   7.185  10.811   4.322
10338SOL    HW232854   7.115  10.943   4.296
10339SOL     OW32855  12.907   1.174   0.478
10339SOL    HW132856  12.846   1.111   0.516
10339SOL    HW232857  12.885   1.176   0.384
10340SOL     OW32858   1.986  10.181  13.294
10340SOL    HW132859   1.997  10.159  13.201
10340SOL    HW232860   2.074  10.178  13.330
10341SOL     OW32861   3.723   8.229   2.474
10341SOL    HW132862   3.683   8.202   2.392
10341SOL    HW232863   3.815   8.204   2.465
10342SOL     OW32864   0.719  13.135  14.832
10342SOL    HW132865   0.645  13.195  14.817
10342SOL    HW232866   0.728  13.088  14.749
10343SOL     OW32867  13.776  10.686   3.400
10343SOL    HW132868  13.759  10.748   3.472
10343SOL    HW232869  13.726  10.722   3.326
10344SOL     OW32870   3.920  11.992   9.906
10344SOL    HW132871   3.976  11.971   9.831
10344SOL    HW232872   3.857  12.056   9.873
10345SOL     OW32873   3.600  11.746   3.354
10345SOL    HW132874   3.623  11.728   3.445
10345SOL    HW232875   3.585  11.659   3.316
10346SOL     OW32876  12.944   3.229  14.558
10346SOL    HW132877  12.900   3.150  14.590
10346SOL    HW232878  12.962   3.280  14.637
10347SOL     OW32879   8.951   8.329   7.906
10347SOL    HW132880   8.933   8.367   7.992
10347SOL    HW232881   8.906   8.245   7.907
10348SOL     OW32882   6.051   4.150   4.027
10348SOL    HW132883   6.113   4.217   4.055
10348SOL    HW232884   6.086   4.068   4.062
10349SOL     OW32885   3.012   4.270   4.490
10349SOL    HW132886   3.048   4.355   4.516
10349SOL    HW232887   2.922   4.289   4.462
10350SOL     OW32888   8.212   3.725  10.256
10350SOL    HW132889   8.199   3.685  10.170
10350SOL    HW232890   8.303   3.755  10.254
10351SOL     OW32891   1.248   9.976   7.922
10351SOL    HW132892   1.236   9.918   7.847
10351SOL    HW232893   1.173   9.957   7.979
10352SOL     OW32894   9.403   5.751   2.136
10352SOL    HW132895   9.442   5.711   2.058
10352SOL    HW232896   9.476   5.791   2.182
10353SOL     OW32897   5.210  13.957   3.230
10353SOL    HW132898   5.301  13.960   3.202
10353SOL    HW232899   5.171  14.037   3.193
10354SOL     OW32900  10.592   4.567  12.394
10354SOL    HW132901  10.646   4.547  12.318
10354SOL    HW232902  10.653   4.564  12.468
10355SOL     OW32903  12.729   7.383   0.909
10355SOL    HW132904  12.792   7.317   0.883
10355SOL    HW232905  12.677   7.400   0.830
10356SOL     OW32906   3.715   9.307  13.390
10356SOL    HW132907   3.797   9.337  13.351
10356SOL    HW232908   3.735   9.297  13.483
10357SOL     OW32909   9.550  13.737   0.038
10357SOL    HW132910   9.518  13.740  14.821
10357SOL    HW232911   9.490  13.679   0.083
10358SOL     OW32912  13.946   3.775   9.950
10358SOL    HW132913  14.036   3.808   9.944
10358SOL    HW232914  13.901   3.814   9.875
10359SOL     OW32915   2.105   7.885   7.030
10359SOL    HW132916   2.172   7.954   7.036
10359SOL    HW232917   2.027   7.930   6.997
10360SOL     OW32918   1.027  12.601   7.313
10360SOL    HW132919   0.957  12.658   7.345
10360SOL    HW232920   1.084  12.589   7.390
10361SOL     OW32921   1.426   3.574  12.641
10361SOL    HW132922   1.383   3.579  12.726
10361SOL    HW232923   1.366   3.619  12.581
10362SOL     OW32924   7.886  13.048   7.820
10362SOL    HW132925   7.893  13.011   7.907
10362SOL    HW232926   7.956  13.007   7.769
10363SOL     OW32927   0.302  12.396  13.651
10363SOL    HW132928   0.243  12.323  13.670
10363SOL    HW232929   0.257  12.473  13.687
10364SOL     OW32930   5.842  10.797   3.301
10364SOL    HW132931   5.816  10.880   3.261
10364SOL    HW232932   5.765  10.770   3.351
10365SOL     OW32933  12.347   5.323   4.515
10365SOL    HW132934  12.382   5.317   4.604
10365SOL    HW232935  12.356   5.416   4.492
10366SOL     OW32936   1.619  10.356  10.883
10366SOL    HW132937   1.680  10.369  10.810
10366SOL    HW232938   1.560  10.431  10.878
10367SOL     OW32939  14.685   6.319   2.920
10367SOL    HW132940  14.646   6.406   2.927
10367SOL    HW232941  14.648   6.283   2.839
10368SOL     OW32942  11.940   1.029   4.745
10368SOL    HW132943  12.024   0.986   4.762
10368SOL    HW232944  11.899   1.037   4.831
10369SOL     OW32945  11.205   4.681  10.601
10369SOL    HW132946  11.130   4.692  10.659
10369SOL    HW232947  11.209   4.762  10.551
10370SOL     OW32948   7.317   1.173   4.948
10370SOL    HW132949   7.280   1.244   4.999
10370SOL    HW232950   7.303   1.199   4.857
10371SOL     OW32951   1.079   0.976   7.389
10371SOL    HW132952   1.101   0.897   7.437
10371SOL    HW232953   1.060   1.041   7.457
10372SOL     OW32954   4.704  13.638   5.893
10372SOL    HW132955   4.698  13.559   5.947
10372SOL    HW232956   4.756  13.612   5.817
10373SOL     OW32957   9.312  13.061   2.541
10373SOL    HW132958   9.276  12.973   2.524
10373SOL    HW232959   9.363  13.082   2.463
10374SOL     OW32960  10.001  12.430  10.628
10374SOL    HW132961   9.981  12.466  10.714
10374SOL    HW232962  10.085  12.385  10.640
10375SOL     OW32963   6.770   8.356   3.477
10375SOL    HW132964   6.865   8.343   3.483
10375SOL    HW232965   6.757   8.394   3.390
10376SOL     OW32966  13.858  13.654   2.229
10376SOL    HW132967  13.918  13.660   2.155
10376SOL    HW232968  13.781  13.704   2.203
10377SOL     OW32969  11.256  13.717   8.198
10377SOL    HW132970  11.331  13.762   8.157
10377SOL    HW232971  11.211  13.676   8.124
10378SOL     OW32972   5.943   9.941   9.995
10378SOL    HW132973   6.019   9.936   9.936
10378SOL    HW232974   5.867   9.942   9.937
10379SOL     OW32975   3.728   5.597   6.770
10379SOL    HW132976   3.790   5.619   6.700
10379SOL    HW232977   3.780   5.603   6.851
10380SOL     OW32978  12.628   9.241  11.100
10380SOL    HW132979  12.627   9.169  11.162
10380SOL    HW232980  12.542   9.239  11.058
10381SOL     OW32981  13.346   0.624   2.285
10381SOL    HW132982  13.375   0.535   2.306
10381SOL    HW232983  13.422   0.678   2.301
10382SOL     OW32984   3.043  13.009   4.424
10382SOL    HW132985   2.989  12.936   4.454
10382SOL    HW232986   2.987  13.085   4.432
10383SOL     OW32987   2.368   7.746   8.722
10383SOL    HW132988   2.378   7.745   8.627
10383SOL    HW232989   2.416   7.824   8.750
10384SOL     OW32990   0.546   6.535   2.574
10384SOL    HW132991   0.600   6.588   2.516
10384SOL    HW232992   0.514   6.463   2.519
10385SOL     OW32993  14.642   7.759  10.240
10385SOL    HW132994  14.625   7.765  10.334
10385SOL    HW232995  14.559   7.782  10.198
10386SOL     OW32996   9.043   4.785   2.737
10386SOL    HW132997   9.069   4.872   2.767
10386SOL    HW232998   9.011   4.799   2.648
10387SOL     OW32999   7.263   0.132   7.502
10387SOL    HW133000   7.348   0.159   7.467
10387SOL    HW233001   7.208   0.210   7.494
10388SOL     OW33002  14.325   8.746   8.880
10388SOL    HW133003  14.337   8.807   8.953
10388SOL    HW233004  14.234   8.758   8.853
10389SOL     OW33005  11.743  11.737   1.586
10389SOL    HW133006  11.740  11.735   1.681
10389SOL    HW233007  11.776  11.651   1.560
10390SOL     OW33008  12.226   6.910   3.691
10390SOL    HW133009  12.322   6.907   3.691
10390SOL    HW233010  12.204   6.990   3.739
10391SOL     OW33011   0.293   1.102  10.727
10391SOL    HW133012   0.352   1.069  10.795
10391SOL    HW233013   0.214   1.128  10.774
10392SOL     OW33014  10.792   9.043   9.530
10392SOL    HW133015  10.868   9.089   9.566
10392SOL    HW233016  10.739   9.113   9.491
10393SOL     OW33017   2.838  13.527  12.906
10393SOL    HW133018   2.750  13.506  12.937
10393SOL    HW233019   2.848  13.475  12.826
10394SOL     OW33020   1.549   1.890   2.970
10394SOL    HW133021   1.621   1.923   2.915
10394SOL    HW233022   1.543   1.797   2.947
10395SOL     OW33023   7.533   6.473  13.956
10395SOL    HW133024   7.578   6.453  14.037
10395SOL    HW233025   7.441   6.483  13.981
10396SOL     OW33026   3.620  11.069   2.702
10396SOL    HW133027   3.579  11.153   2.725
10396SOL    HW233028   3.690  11.059   2.766
10397SOL     OW33029  11.057   5.494   2.070
10397SOL    HW133030  11.006   5.418   2.098
10397SOL    HW233031  11.140   5.486   2.117
10398SOL     OW33032   9.359   2.721   4.656
10398SOL    HW133033   9.336   2.728   4.563
10398SOL    HW233034   9.443   2.765   4.663
10399SOL     OW33035   5.999  12.068  11.793
10399SOL    HW133036   5.905  12.081  11.804
10399SOL    HW233037   6.039  12.147  11.830
10400SOL     OW33038   8.285  11.445   1.407
10400SOL    HW133039   8.333  11.440   1.324
10400SOL    HW233040   8.243  11.531   1.405
10401SOL     OW33041  10.308   1.750   9.422
10401SOL    HW133042  10.222   1.712   9.440
10401SOL    HW233043  10.340   1.779   9.507
10402SOL     OW33044   6.646   1.711   9.156
10402SOL    HW133045   6.612   1.623   9.173
10402SOL    HW233046   6.601   1.739   9.076
10403SOL     OW33047   8.911   4.535   4.269
10403SOL    HW133048   8.862   4.617   4.276
10403SOL    HW233049   8.854   4.477   4.220
10404SOL     OW33050  14.240  10.204   7.442
10404SOL    HW133051  14.178  10.201   7.515
10404SOL    HW233052  14.260  10.112   7.423
10405SOL     OW33053   8.446   4.827  10.901
10405SOL    HW133054   8.375   4.858  10.845
10405SOL    HW233055   8.481   4.906  10.942
10406SOL     OW33056  13.836   0.242  14.767
10406SOL    HW133057  13.802   0.161  14.804
10406SOL    HW233058  13.826   0.231  14.673
10407SOL     OW33059   4.081  11.015   7.608
10407SOL    HW133060   4.031  11.060   7.676
10407SOL    HW233061   4.025  10.942   7.581
10408SOL     OW33062  12.491  13.110   7.169
10408SOL    HW133063  12.512  13.076   7.256
10408SOL    HW233064  12.573  13.105   7.120
10409SOL     OW33065  13.048   4.031   4.841
10409SOL    HW133066  13.142   4.035   4.860
10409SOL    HW233067  13.038   4.074   4.757
10410SOL     OW33068   0.647   3.179   6.951
10410SOL    HW133069   0.557   3.147   6.960
10410SOL    HW233070   0.691   3.151   7.031
10411SOL     OW33071  11.466   6.386   3.425
10411SOL    HW133072  11.477   6.306   3.475
10411SOL    HW233073  11.406   6.439   3.478
10412SOL     OW33074   0.621   2.137  13.728
10412SOL    HW133075   0.575   2.086  13.794
10412SOL    HW233076   0.681   2.192  13.778
10413SOL     OW33077  14.617   6.019   3.668
10413SOL    HW133078  14.707   6.050   3.680
10413SOL    HW233079  14.569   6.054   3.744
10414SOL     OW33080   0.141   4.910   5.367
10414SOL    HW133081   0.093   4.828   5.355
10414SOL    HW233082   0.214   4.905   5.305
10415SOL     OW33083  12.796   2.565  13.025
10415SOL    HW133084  12.803   2.534  13.116
10415SOL    HW233085  12.887   2.565  12.994
10416SOL     OW33086   6.811  13.603   2.368
10416SOL    HW133087   6.902  13.582   2.346
10416SOL    HW233088   6.760  13.570   2.294
10417SOL     OW33089   4.987   7.105  12.034
10417SOL    HW133090   5.065   7.083  11.983
10417SOL    HW233091   4.917   7.111  11.969
10418SOL     OW33092   5.789  11.744   5.527
10418SOL    HW133093   5.874  11.715   5.561
10418SOL    HW233094   5.733  11.750   5.604
10419SOL     OW33095  14.091   7.118   0.262
10419SOL    HW133096  14.067   7.071   0.341
10419SOL    HW233097  14.062   7.208   0.277
10420SOL     OW33098   5.189   8.927   1.971
10420SOL    HW133099   5.130   8.909   2.044
10420SOL    HW233100   5.269   8.879   1.992
10421SOL     OW33101   1.350  10.143   6.309
10421SOL    HW133102   1.261  10.130   6.341
10421SOL    HW233103   1.373  10.060   6.267
10422SOL     OW33104  10.501  11.851  11.346
10422SOL    HW133105  10.593  11.827  11.346
10422SOL    HW233106  10.499  11.938  11.306
10423SOL     OW33107   5.662   1.744  12.653
10423SOL    HW133108   5.741   1.700  12.684
10423SOL    HW233109   5.595   1.675  12.652
10424SOL     OW33110  12.565   7.458   0.303
10424SOL    HW133111  12.656   7.432   0.287
10424SOL    HW233112  12.566   7.493   0.392
10425SOL     OW33113   4.222   0.435   0.974
10425SOL    HW133114   4.247   0.525   0.995
10425SOL    HW233115   4.134   0.425   1.009
10426SOL     OW33116   0.060   8.179  13.134
10426SOL    HW133117   0.049   8.243  13.204
10426SOL    HW233118   0.155   8.171  13.124
10427SOL     OW33119  11.620  12.821   2.206
10427SOL    HW133120  11.699  12.836   2.259
10427SOL    HW233121  11.653  12.778   2.127
10428SOL     OW33122   9.260   5.329  11.876
10428SOL    HW133123   9.339   5.275  11.871
10428SOL    HW233124   9.188   5.270  11.853
10429SOL     OW33125  13.697  12.048  10.207
10429SOL    HW133126  13.606  12.055  10.236
10429SOL    HW233127  13.693  12.065  10.112
10430SOL     OW33128   4.102  10.892   8.304
10430SOL    HW133129   4.131  10.923   8.218
10430SOL    HW233130   4.078  10.800   8.289
10431SOL     OW33131   9.368  10.483   5.008
10431SOL    HW133132   9.363  10.571   5.044
10431SOL    HW233133   9.455  10.451   5.033
10432SOL     OW33134   2.941   0.140   0.710
10432SOL    HW133135   2.950   0.049   0.737
10432SOL    HW233136   2.924   0.135   0.615
10433SOL     OW33137   2.570   8.267  13.942
10433SOL    HW133138   2.609   8.202  13.999
10433SOL    HW233139   2.645   8.312  13.902
10434SOL     OW33140   9.812   3.819  12.168
10434SOL    HW133141   9.850   3.824  12.080
10434SOL    HW233142   9.836   3.732  12.200
10435SOL     OW33143   3.635   4.113  12.213
10435SOL    HW133144   3.647   4.031  12.165
10435SOL    HW233145   3.617   4.087  12.303
10436SOL     OW33146  14.849   0.229   0.308
10436SOL    HW133147  14.785   0.222   0.237
10436SOL    HW233148  14.822   0.161   0.370
10437SOL     OW33149   2.487  12.301  12.217
10437SOL    HW133150   2.488  12.283  12.124
10437SOL    HW233151   2.447  12.224  12.257
10438SOL     OW33152   9.154  13.890  13.494
10438SOL    HW133153   9.146  13.916  13.402
10438SOL    HW233154   9.115  13.962  13.543
10439SOL     OW33155  13.523  12.714   2.010
10439SOL    HW133156  13.589  12.756   1.955
10439SOL    HW233157  13.455  12.781   2.021
10440SOL     OW33158  13.082  11.836  13.706
10440SOL    HW133159  13.159  11.828  13.763
10440SOL    HW233160  13.087  11.759  13.649
10441SOL     OW33161  12.668   9.265  13.265
10441SOL    HW133162  12.753   9.278  13.307
10441SOL    HW233163  12.605   9.302  13.327
10442SOL     OW33164   7.347  11.556  14.639
10442SOL    HW133165   7.371  11.512  14.557
10442SOL    HW233166   7.282  11.622  14.612
10443SOL     OW33167  13.594   5.103  13.629
10443SOL    HW133168  13.511   5.088  13.583
10443SOL    HW233169  13.572   5.166  13.697
10444SOL     OW33170   6.690   5.278  14.871
10444SOL    HW133171   6.675   5.339   0.070
10444SOL    HW233172   6.669   5.328  14.792
10445SOL     OW33173   5.274  13.187  12.386
10445SOL    HW133174   5.237  13.264  12.429
10445SOL    HW233175   5.206  13.120  12.395
10446SOL     OW33176  14.233   3.373   0.286
10446SOL    HW133177  14.157   3.359   0.230
10446SOL    HW233178  14.280   3.445   0.245
10447SOL     OW33179  14.409   5.951   3.147
10447SOL    HW133180  14.460   5.975   3.224
10447SOL    HW233181  14.336   5.900   3.182
10448SOL     OW33182   7.332   1.398   2.152
10448SOL    HW133183   7.378   1.314   2.153
10448SOL    HW233184   7.400   1.463   2.138
10449SOL     OW33185   5.662   9.688  10.569
10449SOL    HW133186   5.693   9.603  10.539
10449SOL    HW233187   5.680   9.747  10.496
10450SOL     OW33188   8.296   6.096   3.608
10450SOL    HW133189   8.340   6.052   3.535
10450SOL    HW233190   8.212   6.052   3.615
10451SOL     OW33191   5.270   9.489   8.034
10451SOL    HW133192   5.329   9.421   8.067
10451SOL    HW233193   5.294   9.499   7.941
10452SOL     OW33194   3.498   5.843   0.240
10452SOL    HW133195   3.517   5.749   0.240
10452SOL    HW233196   3.584   5.884   0.231
10453SOL     OW33197   0.331  10.126   6.725
10453SOL    HW133198   0.359  10.064   6.658
10453SOL    HW233199   0.241  10.147   6.702
10454SOL     OW33200   5.046  11.055  14.473
10454SOL    HW133201   5.049  11.005  14.391
10454SOL    HW233202   4.972  11.017  14.521
10455SOL     OW33203   4.155   6.187   9.759
10455SOL    HW133204   4.216   6.182   9.832
10455SOL    HW233205   4.203   6.233   9.690
10456SOL     OW33206   9.264  11.781   4.139
10456SOL    HW133207   9.336  11.756   4.197
10456SOL    HW233208   9.290  11.865   4.103
10457SOL     OW33209   0.689   4.375  11.224
10457SOL    HW133210   0.635   4.411  11.154
10457SOL    HW233211   0.717   4.452  11.275
10458SOL     OW33212   9.856  12.506   4.011
10458SOL    HW133213   9.785  12.555   4.053
10458SOL    HW233214   9.896  12.568   3.950
10459SOL     OW33215   8.886  13.060  12.089
10459SOL    HW133216   8.964  13.063  12.145
10459SOL    HW233217   8.861  12.968  12.089
10460SOL     OW33218   0.557   2.612   3.078
10460SOL    HW133219   0.592   2.637   2.993
10460SOL    HW233220   0.462   2.620   3.069
10461SOL     OW33221   9.919   6.747   8.060
10461SOL    HW133222   9.982   6.816   8.037
10461SOL    HW233223   9.835   6.782   8.032
10462SOL     OW33224  10.967   1.235   6.340
10462SOL    HW133225  10.926   1.297   6.278
10462SOL    HW233226  10.972   1.283   6.422
10463SOL     OW33227   9.309  13.098  11.274
10463SOL    HW133228   9.333  13.183  11.311
10463SOL    HW233229   9.283  13.046  11.350
10464SOL     OW33230   3.491   0.010   8.725
10464SOL    HW133231   3.421   0.073   8.707
10464SOL    HW233232   3.568   0.047   8.681
10465SOL     OW33233  11.913  10.431   9.772
10465SOL    HW133234  11.868  10.385   9.701
10465SOL    HW233235  11.856  10.419   9.848
10466SOL     OW33236   6.311   8.666  13.176
10466SOL    HW133237   6.232   8.685  13.126
10466SOL    HW233238   6.368   8.618  13.115
10467SOL     OW33239   9.533  13.801   8.953
10467SOL    HW133240   9.545  13.896   8.956
10467SOL    HW233241   9.619  13.767   8.926
10468SOL     OW33242   1.210  14.050  12.579
10468SOL    HW133243   1.153  14.122  12.553
10468SOL    HW233244   1.299  14.085  12.573
10469SOL     OW33245  11.586  13.573  10.503
10469SOL    HW133246  11.570  13.595  10.595
10469SOL    HW233247  11.548  13.486  10.492
10470SOL     OW33248   6.248   0.984   1.888
10470SOL    HW133249   6.157   0.988   1.917
10470SOL    HW233250   6.262   1.066   1.840
10471SOL     OW33251  13.994   0.823   3.829
10471SOL    HW133252  14.067   0.834   3.890
10471SOL    HW233253  13.916   0.843   3.881
10472SOL     OW33254   2.456   8.414  12.906
10472SOL    HW133255   2.488   8.497  12.940
10472SOL    HW233256   2.504   8.347  12.955
10473SOL     OW33257   3.709   0.880   8.480
10473SOL    HW133258   3.750   0.794   8.469
10473SOL    HW233259   3.716   0.897   8.574
10474SOL     OW33260   8.678   1.553   2.956
10474SOL    HW133261   8.592   1.582   2.984
10474SOL    HW233262   8.662   1.472   2.908
10475SOL     OW33263  11.472  13.702  13.039
10475SOL    HW133264  11.428  13.751  12.969
10475SOL    HW233265  11.401  13.674  13.097
10476SOL     OW33266   1.048  11.403   0.988
10476SOL    HW133267   1.063  11.353   0.908
10476SOL    HW233268   1.136  11.427   1.017
10477SOL     OW33269  10.246  11.341  14.233
10477SOL    HW133270  10.294  11.341  14.316
10477SOL    HW233271  10.174  11.280  14.247
10478SOL     OW33272   3.238   2.315  10.958
10478SOL    HW133273   3.267   2.258  10.887
10478SOL    HW233274   3.315   2.365  10.983
10479SOL     OW33275  14.142  14.404  12.141
10479SOL    HW133276  14.201  14.468  12.182
10479SOL    HW233277  14.056  14.427  12.175
10480SOL     OW33278   3.217  11.290  13.248
10480SOL    HW133279   3.216  11.203  13.208
10480SOL    HW233280   3.308  11.319  13.242
10481SOL     OW33281  10.770   5.609   2.345
10481SOL    HW133282  10.740   5.604   2.254
10481SOL    HW233283  10.760   5.520   2.379
10482SOL     OW33284   4.607   3.760  12.756
10482SOL    HW133285   4.603   3.844  12.710
10482SOL    HW233286   4.584   3.782  12.846
10483SOL     OW33287  14.690   2.208  11.114
10483SOL    HW133288  14.642   2.228  11.034
10483SOL    HW233289  14.773   2.256  11.105
10484SOL     OW33290   1.991   5.469   7.823
10484SOL    HW133291   2.033   5.396   7.869
10484SOL    HW233292   1.977   5.535   7.891
10485SOL     OW33293  12.364   6.111   9.921
10485SOL    HW133294  12.450   6.101   9.961
10485SOL    HW233295  12.303   6.079   9.988
10486SOL     OW33296   4.811  12.742   8.532
10486SOL    HW133297   4.725  12.711   8.561
10486SOL    HW233298   4.796  12.833   8.507
10487SOL     OW33299   3.066  14.235   9.352
10487SOL    HW133300   2.980  14.273   9.334
10487SOL    HW233301   3.058  14.200   9.440
10488SOL     OW33302   7.921  14.843   1.026
10488SOL    HW133303   7.913  14.753   1.058
10488SOL    HW233304   8.014  14.854   1.007
10489SOL     OW33305   5.698   6.399   5.435
10489SOL    HW133306   5.675   6.324   5.380
10489SOL    HW233307   5.623   6.458   5.428
10490SOL     OW33308  11.864  13.615   3.701
10490SOL    HW133309  11.794  13.681   3.699
10490SOL    HW233310  11.902  13.618   3.613
10491SOL     OW33311   5.436   7.805   3.447
10491SOL    HW133312   5.443   7.723   3.397
10491SOL    HW233313   5.347   7.804   3.481
10492SOL     OW33314   9.623   0.580  10.440
10492SOL    HW133315   9.677   0.593  10.518
10492SOL    HW233316   9.557   0.516  10.466
10493SOL     OW33317   9.103   7.164   0.668
10493SOL    HW133318   9.100   7.094   0.733
10493SOL    HW233319   9.011   7.182   0.648
10494SOL     OW33320   2.605   8.397   3.206
10494SOL    HW133321   2.689   8.435   3.231
10494SOL    HW233322   2.593   8.324   3.268
10495SOL     OW33323  14.302  14.701   9.691
10495SOL    HW133324  14.249  14.698   9.771
10495SOL    HW233325  14.266  14.631   9.636
10496SOL     OW33326   7.979  11.170   7.053
10496SOL    HW133327   8.054  11.193   6.998
10496SOL    HW233328   8.014  11.165   7.142
10497SOL     OW33329   9.445  12.765   3.361
10497SOL    HW133330   9.472  12.678   3.331
10497SOL    HW233331   9.396  12.802   3.288
10498SOL     OW33332   1.570  13.717  12.194
10498SOL    HW133333   1.588  13.644  12.254
10498SOL    HW233334   1.495  13.761  12.233
10499SOL     OW33335   0.195   4.722   8.567
10499SOL    HW133336   0.191   4.647   8.507
10499SOL    HW233337   0.174   4.797   8.512
10500SOL     OW33338   2.100   3.862   3.462
10500SOL    HW133339   2.120   3.823   3.377
10500SOL    HW233340   2.004   3.859   3.467
10501SOL     OW33341   8.767   5.193   5.324
10501SOL    HW133342   8.672   5.192   5.338
10501SOL    HW233343   8.801   5.250   5.392
10502SOL     OW33344  14.387   2.223   2.619
10502SOL    HW133345  14.461   2.282   2.604
10502SOL    HW233346  14.358   2.243   2.708
10503SOL     OW33347   3.763  13.429  14.740
10503SOL    HW133348   3.746  13.410  14.832
10503SOL    HW233349   3.678  13.454  14.704
10504SOL     OW33350  13.393   6.024   9.317
10504SOL    HW133351  13.406   6.100   9.261
10504SOL    HW233352  13.395   5.949   9.257
10505SOL     OW33353  11.382   3.367   7.780
10505SOL    HW133354  11.311   3.304   7.786
10505SOL    HW233355  11.430   3.357   7.863
10506SOL     OW33356   8.552   2.898   1.982
10506SOL    HW133357   8.473   2.868   2.028
10506SOL    HW233358   8.621   2.898   2.048
10507SOL     OW33359   5.323   2.313   9.888
10507SOL    HW133360   5.280   2.269   9.815
10507SOL    HW233361   5.259   2.310   9.959
10508SOL     OW33362  12.961   5.248  10.651
10508SOL    HW133363  12.977   5.301  10.729
10508SOL    HW233364  13.036   5.190  10.646
10509SOL     OW33365   3.169  12.317   0.179
10509SOL    HW133366   3.172  12.301   0.085
10509SOL    HW233367   3.240  12.379   0.195
10510SOL     OW33368  10.680   6.166   2.937
10510SOL    HW133369  10.650   6.207   2.856
10510SOL    HW233370  10.667   6.232   3.005
10511SOL     OW33371   8.651  11.059   6.830
10511SOL    HW133372   8.649  11.151   6.804
10511SOL    HW233373   8.659  11.061   6.925
10512SOL     OW33374   2.857  14.662   6.315
10512SOL    HW133375   2.856  14.757   6.303
10512SOL    HW233376   2.810  14.647   6.397
10513SOL     OW33377   1.237  11.797  14.591
10513SOL    HW133378   1.306  11.825  14.651
10513SOL    HW233379   1.272  11.817  14.504
10514SOL     OW33380   8.582  12.328  13.143
10514SOL    HW133381   8.517  12.274  13.098
10514SOL    HW233382   8.546  12.342  13.231
10515SOL     OW33383   1.573   0.460   0.397
10515SOL    HW133384   1.576   0.393   0.329
10515SOL    HW233385   1.641   0.434   0.459
10516SOL     OW33386   6.111   6.177  10.302
10516SOL    HW133387   6.016   6.169  10.307
10516SOL    HW233388   6.143   6.123  10.374
10517SOL     OW33389  14.056  10.222   5.114
10517SOL    HW133390  14.082  10.200   5.204
10517SOL    HW233391  14.000  10.299   5.123
10518SOL     OW33392   0.645   3.011   5.232
10518SOL    HW133393   0.643   2.988   5.139
10518SOL    HW233394   0.715   2.957   5.269
10519SOL     OW33395   8.790   3.673   6.319
10519SOL    HW133396   8.852   3.607   6.350
10519SOL    HW233397   8.817   3.754   6.363
10520SOL     OW33398   4.007  14.291   8.677
10520SOL    HW133399   4.051  14.330   8.753
10520SOL    HW233400   3.962  14.365   8.635
10521SOL     OW33401   3.874   1.557  12.345
10521SOL    HW133402   3.956   1.539  12.391
10521SOL    HW233403   3.878   1.504  12.266
10522SOL     OW33404  10.682  14.090   4.978
10522SOL    HW133405  10.606  14.032   4.979
10522SOL    HW233406  10.745  14.047   4.921
10523SOL     OW33407  14.817   2.364   6.319
10523SOL    HW133408  14.801   2.451   6.355
10523SOL    HW233409  14.730   2.324   6.313
10524SOL     OW33410  11.724   3.963   7.694
10524SOL    HW133411  11.715   4.058   7.693
10524SOL    HW233412  11.694   3.936   7.607
10525SOL     OW33413   7.378   9.507  14.849
10525SOL    HW133414   7.446   9.505  14.782
10525SOL    HW233415   7.413   9.566   0.043
10526SOL     OW33416   4.700   5.819  11.401
10526SOL    HW133417   4.713   5.733  11.361
10526SOL    HW233418   4.787   5.859  11.402
10527SOL     OW33419   8.227  11.968   9.246
10527SOL    HW133420   8.196  11.972   9.336
10527SOL    HW233421   8.318  11.939   9.253
10528SOL     OW33422  12.938   2.872   0.062
10528SOL    HW133423  12.889   2.804   0.015
10528SOL    HW233424  13.016   2.827   0.094
10529SOL     OW33425   0.736   0.096   9.793
10529SOL    HW133426   0.775   0.181   9.814
10529SOL    HW233427   0.759   0.040   9.867
10530SOL     OW33428   2.264  10.092   1.018
10530SOL    HW133429   2.252  10.173   0.970
10530SOL    HW233430   2.351  10.061   0.994
10531SOL     OW33431  12.016   8.193   5.209
10531SOL    HW133432  11.944   8.131   5.222
10531SOL    HW233433  12.043   8.181   5.118
10532SOL     OW33434   2.718   7.854   5.640
10532SOL    HW133435   2.635   7.881   5.600
10532SOL    HW233436   2.705   7.868   5.734
10533SOL     OW33437   5.982  11.760   1.155
10533SOL    HW133438   6.009  11.781   1.244
10533SOL    HW233439   5.890  11.786   1.150
10534SOL     OW33440  13.265   7.850  14.217
10534SOL    HW133441  13.223   7.920  14.267
10534SOL    HW233442  13.354   7.845  14.253
10535SOL     OW33443  14.045  13.348   5.602
10535SOL    HW133444  14.122  13.361   5.547
10535SOL    HW233445  14.065  13.271   5.654
10536SOL     OW33446  13.654   2.226  13.724
10536SOL    HW133447  13.735   2.259  13.685
10536SOL    HW233448  13.585   2.277  13.682
10537SOL     OW33449   6.385   7.843   8.298
10537SOL    HW133450   6.297   7.841   8.261
10537SOL    HW233451   6.442   7.867   8.225
10538SOL     OW33452  13.022   3.424   6.972
10538SOL    HW133453  13.074   3.503   6.980
10538SOL    HW233454  13.027   3.383   7.058
10539SOL     OW33455  13.239  11.346   5.456
10539SOL    HW133456  13.335  11.354   5.458
10539SOL    HW233457  13.217  11.305   5.540
10540SOL     OW33458  11.432   8.431   6.647
10540SOL    HW133459  11.451   8.467   6.561
10540SOL    HW233460  11.345   8.463   6.669
10541SOL     OW33461   0.542   6.284   8.171
10541SOL    HW133462   0.463   6.261   8.122
10541SOL    HW233463   0.517   6.362   8.221
10542SOL     OW33464   2.297   6.882   4.181
10542SOL    HW133465   2.356   6.822   4.136
10542SOL    HW233466   2.339   6.968   4.173
10543SOL     OW33467  13.433   5.919  14.679
10543SOL    HW133468  13.481   5.987  14.633
10543SOL    HW233469  13.394   5.866  14.610
10544SOL     OW33470  11.862   6.901   2.214
10544SOL    HW133471  11.853   6.988   2.254
10544SOL    HW233472  11.920   6.915   2.140
10545SOL     OW33473   6.886  14.247   9.679
10545SOL    HW133474   6.938  14.179   9.723
10545SOL    HW233475   6.796  14.228   9.704
10546SOL     OW33476   5.074   5.964   7.652
10546SOL    HW133477   5.131   5.891   7.628
10546SOL    HW233478   5.115   6.040   7.613
10547SOL     OW33479  11.815   0.869   4.946
10547SOL    HW133480  11.805   0.956   4.985
10547SOL    HW233481  11.901   0.839   4.977
10548SOL     OW33482  11.621   5.722   7.246
10548SOL    HW133483  11.575   5.653   7.198
10548SOL    HW233484  11.712   5.716   7.217
10549SOL     OW33485   5.941   2.004   3.674
10549SOL    HW133486   5.854   2.002   3.633
10549SOL    HW233487   5.939   2.083   3.729
10550SOL     OW33488  13.776   5.630   7.936
10550SOL    HW133489  13.741   5.668   8.017
10550SOL    HW233490  13.736   5.543   7.932
10551SOL     OW33491  11.266   1.744   5.474
10551SOL    HW133492  11.282   1.836   5.497
10551SOL    HW233493  11.265   1.743   5.378
10552SOL     OW33494   9.346   3.840   5.258
10552SOL    HW133495   9.337   3.867   5.350
10552SOL    HW233496   9.264   3.869   5.217
10553SOL     OW33497   1.575  14.296   6.435
10553SOL    HW133498   1.515  14.316   6.507
10553SOL    HW233499   1.601  14.382   6.401
10554SOL     OW33500   7.218  12.943  10.910
10554SOL    HW133501   7.199  13.011  10.975
10554SOL    HW233502   7.314  12.942  10.904
10555SOL     OW33503   1.119  11.679   6.122
10555SOL    HW133504   1.184  11.628   6.073
10555SOL    HW233505   1.168  11.714   6.196
10556SOL     OW33506   7.351  11.506   8.056
10556SOL    HW133507   7.390  11.445   8.118
10556SOL    HW233508   7.347  11.457   7.973
10557SOL     OW33509   0.756   9.918   1.365
10557SOL    HW133510   0.763   9.830   1.403
10557SOL    HW233511   0.713   9.903   1.281
10558SOL     OW33512   4.038   1.174   8.665
10558SOL    HW133513   3.990   1.201   8.587
10558SOL    HW233514   4.094   1.249   8.686
10559SOL     OW33515   9.868  11.225   2.926
10559SOL    HW133516   9.835  11.172   3.000
10559SOL    HW233517   9.954  11.255   2.955
10560SOL     OW33518   8.813  12.887   2.041
10560SOL    HW133519   8.900  12.906   2.077
10560SOL    HW233520   8.830  12.824   1.970
10561SOL     OW33521  11.632   8.774  13.174
10561SOL    HW133522  11.715   8.803  13.137
10561SOL    HW233523  11.604   8.702  13.118
10562SOL     OW33524   8.401   5.244  11.293
10562SOL    HW133525   8.492   5.265  11.273
10562SOL    HW233526   8.357   5.329  11.294
10563SOL     OW33527   4.721  14.805   5.985
10563SOL    HW133528   4.674  14.780   5.906
10563SOL    HW233529   4.797  14.747   5.988
10564SOL     OW33530   1.817   2.944   2.243
10564SOL    HW133531   1.773   2.862   2.222
10564SOL    HW233532   1.792   2.961   2.334
10565SOL     OW33533   6.329   1.499   8.634
10565SOL    HW133534   6.277   1.418   8.632
10565SOL    HW233535   6.382   1.495   8.554
10566SOL     OW33536   3.284   1.829  13.972
10566SOL    HW133537   3.214   1.871  14.023
10566SOL    HW233538   3.352   1.896  13.966
10567SOL     OW33539  12.088   8.346   2.046
10567SOL    HW133540  12.066   8.265   1.999
10567SOL    HW233541  12.153   8.389   1.991
10568SOL     OW33542   3.389  14.326   0.474
10568SOL    HW133543   3.450  14.400   0.481
10568SOL    HW233544   3.402  14.293   0.385
10569SOL     OW33545   5.619   9.959   2.419
10569SOL    HW133546   5.597   9.918   2.502
10569SOL    HW233547   5.714   9.965   2.419
10570SOL     OW33548   1.501  10.643   3.262
10570SOL    HW133549   1.412  10.668   3.238
10570SOL    HW233550   1.543  10.726   3.287
10571SOL     OW33551  14.654   2.646   1.472
10571SOL    HW133552  14.639   2.730   1.516
10571SOL    HW233553  14.747   2.629   1.486
10572SOL     OW33554   5.407   3.732   9.587
10572SOL    HW133555   5.497   3.703   9.597
10572SOL    HW233556   5.378   3.751   9.677
10573SOL     OW33557   5.269   1.244   0.034
10573SOL    HW133558   5.211   1.231   0.109
10573SOL    HW233559   5.243   1.176  14.845
10574SOL     OW33560  12.950  10.043  10.314
10574SOL    HW133561  12.997  10.101  10.253
10574SOL    HW233562  12.944  10.094  10.395
10575SOL     OW33563  10.598   6.384   6.665
10575SOL    HW133564  10.593   6.288   6.662
10575SOL    HW233565  10.604   6.404   6.758
10576SOL     OW33566  10.100   1.235  14.102
10576SOL    HW133567  10.168   1.242  14.035
10576SOL    HW233568  10.033   1.179  14.063
10577SOL     OW33569   9.717  12.019  12.277
10577SOL    HW133570   9.730  12.025  12.182
10577SOL    HW233571   9.673  11.936  12.290
10578SOL     OW33572   3.514   4.478   4.866
10578SOL    HW133573   3.496   4.418   4.939
10578SOL    HW233574   3.563   4.550   4.905
10579SOL     OW33575   7.676   8.654  13.590
10579SOL    HW133576   7.757   8.667  13.541
10579SOL    HW233577   7.677   8.561  13.613
10580SOL     OW33578   6.116   7.167   4.931
10580SOL    HW133579   6.203   7.136   4.904
10580SOL    HW233580   6.062   7.088   4.933
10581SOL     OW33581   1.952  11.972   3.929
10581SOL    HW133582   1.939  12.016   3.845
10581SOL    HW233583   1.946  12.042   3.994
10582SOL     OW33584   4.105   8.831   2.846
10582SOL    HW133585   4.153   8.779   2.910
10582SOL    HW233586   4.163   8.836   2.770
10583SOL     OW33587   4.024   8.248  13.524
10583SOL    HW133588   4.106   8.265  13.570
10583SOL    HW233589   3.984   8.175  13.572
10584SOL     OW33590   8.487  13.994  13.115
10584SOL    HW133591   8.546  13.998  13.040
10584SOL    HW233592   8.399  14.003  13.077
10585SOL     OW33593   5.281   1.220   3.026
10585SOL    HW133594   5.323   1.268   3.098
10585SOL    HW233595   5.205   1.178   3.066
10586SOL     OW33596   8.743   4.657   1.069
10586SOL    HW133597   8.709   4.641   0.981
10586SOL    HW233598   8.665   4.666   1.123
10587SOL     OW33599   2.610   2.759   2.720
10587SOL    HW133600   2.678   2.710   2.767
10587SOL    HW233601   2.550   2.693   2.688
10588SOL     OW33602  13.526  14.548   8.648
10588SOL    HW133603  13.434  14.523   8.652
10588SOL    HW233604  13.559  14.533   8.737
10589SOL     OW33605  11.791   1.572  13.487
10589SOL    HW133606  11.794   1.648  13.430
10589SOL    HW233607  11.869   1.522  13.464
10590SOL     OW33608  14.220   5.783   3.253
10590SOL    HW133609  14.180   5.734   3.180
10590SOL    HW233610  14.159   5.771   3.326
10591SOL     OW33611   0.135  11.917  12.937
10591SOL    HW133612   0.081  11.953  12.867
10591SOL    HW233613   0.093  11.835  12.960
10592SOL     OW33614  11.196   7.981  11.554
10592SOL    HW133615  11.183   8.075  11.548
10592SOL    HW233616  11.108   7.944  11.541
10593SOL     OW33617   3.782  10.097  11.336
10593SOL    HW133618   3.856  10.151  11.364
10593SOL    HW233619   3.711  10.160  11.320
10594SOL     OW33620   8.694  10.908   7.567
10594SOL    HW133621   8.689  10.940   7.657
10594SOL    HW233622   8.780  10.937   7.536
10595SOL     OW33623  14.766   3.486  12.638
10595SOL    HW133624  14.764   3.506  12.732
10595SOL    HW233625  14.675   3.488  12.611
10596SOL     OW33626   8.226   6.300   3.027
10596SOL    HW133627   8.248   6.297   3.120
10596SOL    HW233628   8.198   6.211   3.006
10597SOL     OW33629   6.269   0.291   5.172
10597SOL    HW133630   6.286   0.251   5.087
10597SOL    HW233631   6.335   0.360   5.181
10598SOL     OW33632  12.668   9.972   0.688
10598SOL    HW133633  12.668  10.061   0.653
10598SOL    HW233634  12.625   9.979   0.773
10599SOL     OW33635  11.948  10.309  10.311
10599SOL    HW133636  11.910  10.374  10.252
10599SOL    HW233637  12.038  10.298  10.279
10600SOL     OW33638  12.178  14.643   2.944
10600SOL    HW133639  12.156  14.560   2.985
10600SOL    HW233640  12.245  14.681   3.002
10601SOL     OW33641  10.153   1.138  14.797
10601SOL    HW133642  10.224   1.107  14.741
10601SOL    HW233643  10.073   1.125  14.745
10602SOL     OW33644   0.732   3.939   3.420
10602SOL    HW133645   0.770   3.908   3.503
10602SOL    HW233646   0.637   3.935   3.435
10603SOL     OW33647  14.341   7.511   9.349
10603SOL    HW133648  14.409   7.562   9.394
10603SOL    HW233649  14.373   7.421   9.352
10604SOL     OW33650   6.777  12.264   4.379
10604SOL    HW133651   6.703  12.273   4.320
10604SOL    HW233652   6.739  12.269   4.466
10605SOL     OW33653   6.850  14.197   8.080
10605SOL    HW133654   6.922  14.138   8.058
10605SOL    HW233655   6.819  14.230   7.996
10606SOL     OW33656   2.882   9.559  11.065
10606SOL    HW133657   2.899   9.509  11.145
10606SOL    HW233658   2.823   9.504  11.014
10607SOL     OW33659   9.252   4.085   3.829
10607SOL    HW133660   9.202   4.162   3.804
10607SOL    HW233661   9.279   4.046   3.746
10608SOL     OW33662   6.977   9.006   6.267
10608SOL    HW133663   7.025   9.042   6.194
10608SOL    HW233664   6.923   8.937   6.229
10609SOL     OW33665   2.781   3.918   1.075
10609SOL    HW133666   2.831   3.974   1.014
10609SOL    HW233667   2.699   3.901   1.029
10610SOL     OW33668   6.651  11.345  12.824
10610SOL    HW133669   6.613  11.363  12.738
10610SOL    HW233670   6.605  11.404  12.883
10611SOL     OW33671   4.943   5.461  14.608
10611SOL    HW133672   4.966   5.521  14.538
10611SOL    HW233673   4.848   5.472  14.619
10612SOL     OW33674   7.922   0.111  14.308
10612SOL    HW133675   7.963   0.070  14.232
10612SOL    HW233676   7.935   0.048  14.379
10613SOL     OW33677   4.789  14.493   7.920
10613SOL    HW133678   4.711  14.474   7.868
10613SOL    HW233679   4.784  14.587   7.936
10614SOL     OW33680   5.167   7.351   4.079
10614SOL    HW133681   5.225   7.286   4.121
10614SOL    HW233682   5.200   7.359   3.990
10615SOL     OW33683   5.633  11.196  13.517
10615SOL    HW133684   5.715  11.150  13.537
10615SOL    HW233685   5.654  11.288  13.530
10616SOL     OW33686  13.475  13.872   1.696
10616SOL    HW133687  13.419  13.946   1.672
10616SOL    HW233688  13.472  13.814   1.620
10617SOL     OW33689  13.702   6.445  14.543
10617SOL    HW133690  13.612   6.437  14.576
10617SOL    HW233691  13.757   6.425  14.618
10618SOL     OW33692   1.979   8.113   3.766
10618SOL    HW133693   2.070   8.095   3.743
10618SOL    HW233694   1.979   8.122   3.862
10619SOL     OW33695  11.380   1.512   0.501
10619SOL    HW133696  11.320   1.525   0.428
10619SOL    HW233697  11.324   1.480   0.572
10620SOL     OW33698   7.604   0.294   9.212
10620SOL    HW133699   7.658   0.228   9.167
10620SOL    HW233700   7.555   0.245   9.277
10621SOL     OW33701  10.805  10.968   8.329
10621SOL    HW133702  10.783  10.895   8.386
10621SOL    HW233703  10.770  10.944   8.243
10622SOL     OW33704   2.727   8.544  11.958
10622SOL    HW133705   2.634   8.546  11.981
10622SOL    HW233706   2.761   8.469  12.007
10623SOL     OW33707   1.383  10.348   8.663
10623SOL    HW133708   1.358  10.378   8.750
10623SOL    HW233709   1.422  10.424   8.620
10624SOL     OW33710  14.434   3.511  10.880
10624SOL    HW133711  14.375   3.586  10.881
10624SOL    HW233712  14.380   3.437  10.908
10625SOL     OW33713   9.650   3.378   9.804
10625SOL    HW133714   9.567   3.338   9.829
10625SOL    HW233715   9.627   3.444   9.739
10626SOL     OW33716  14.793   5.742   7.312
10626SOL    HW133717  14.761   5.662   7.269
10626SOL    HW233718  14.730   5.757   7.383
10627SOL     OW33719  12.274   1.884   7.852
10627SOL    HW133720  12.324   1.943   7.908
10627SOL    HW233721  12.336   1.816   7.827
10628SOL     OW33722   1.339   3.864  11.257
10628SOL    HW133723   1.289   3.798  11.208
10628SOL    HW233724   1.302   3.861  11.346
10629SOL     OW33725   5.116   3.224   2.922
10629SOL    HW133726   5.080   3.302   2.963
10629SOL    HW233727   5.108   3.155   2.988
10630SOL     OW33728   7.521   3.192   0.086
10630SOL    HW133729   7.503   3.284   0.065
10630SOL    HW233730   7.552   3.194   0.177
10631SOL     OW33731   5.395   1.299   0.842
10631SOL    HW133732   5.388   1.365   0.773
10631SOL    HW233733   5.455   1.234   0.807
10632SOL     OW33734  14.842  12.934   5.159
10632SOL    HW133735  14.843  12.922   5.254
10632SOL    HW233736  14.766  12.886   5.129
10633SOL     OW33737  10.205   1.105  12.016
10633SOL    HW133738  10.272   1.120  11.949
10633SOL    HW233739  10.122   1.108  11.969
10634SOL     OW33740   9.529   9.515   0.762
10634SOL    HW133741   9.454   9.464   0.733
10634SOL    HW233742   9.574   9.540   0.682
10635SOL     OW33743  11.073   6.913  11.377
10635SOL    HW133744  10.981   6.891  11.362
10635SOL    HW233745  11.087   6.994  11.327
10636SOL     OW33746   1.730   5.265   3.839
10636SOL    HW133747   1.773   5.198   3.891
10636SOL    HW233748   1.761   5.348   3.876
10637SOL     OW33749  13.004  14.214   9.152
10637SOL    HW133750  13.074  14.187   9.211
10637SOL    HW233751  13.015  14.159   9.074
10638SOL     OW33752   7.137  12.899   5.411
10638SOL    HW133753   7.109  12.844   5.485
10638SOL    HW233754   7.079  12.875   5.339
10639SOL     OW33755   8.809   8.943   9.258
10639SOL    HW133756   8.747   8.912   9.324
10639SOL    HW233757   8.887   8.967   9.308
10640SOL     OW33758   6.395   3.577   3.731
10640SOL    HW133759   6.310   3.555   3.769
10640SOL    HW233760   6.449   3.500   3.748
10641SOL     OW33761   4.941   8.118   9.128
10641SOL    HW133762   5.033   8.123   9.104
10641SOL    HW233763   4.927   8.027   9.153
10642SOL     OW33764  10.363   5.137  13.382
10642SOL    HW133765  10.319   5.173  13.305
10642SOL    HW233766  10.313   5.171  13.457
10643SOL     OW33767   6.032   3.979   1.448
10643SOL    HW133768   5.965   4.044   1.470
10643SOL    HW233769   6.115   4.027   1.453
10644SOL     OW33770   3.570   1.005  12.071
10644SOL    HW133771   3.608   1.092  12.084
10644SOL    HW233772   3.475   1.020  12.073
10645SOL     OW33773   0.271  11.792  11.895
10645SOL    HW133774   0.213  11.785  11.970
10645SOL    HW233775   0.243  11.872  11.850
10646SOL     OW33776   9.100   1.807   1.430
10646SOL    HW133777   9.166   1.806   1.500
10646SOL    HW233778   9.037   1.873   1.458
10647SOL     OW33779  12.994   0.031   1.304
10647SOL    HW133780  12.926   0.000   1.364
10647SOL    HW233781  12.949   0.039   1.220
10648SOL     OW33782  11.871  12.918   0.435
10648SOL    HW133783  11.870  12.955   0.347
10648SOL    HW233784  11.810  12.845   0.432
10649SOL     OW33785   4.708  14.530   7.240
10649SOL    HW133786   4.697  14.453   7.185
10649SOL    HW233787   4.699  14.497   7.329
10650SOL     OW33788  10.899   7.102   1.477
10650SOL    HW133789  10.934   7.086   1.565
10650SOL    HW233790  10.975   7.099   1.420
10651SOL     OW33791  14.718   7.708   5.076
10651SOL    HW133792  14.780   7.644   5.042
10651SOL    HW233793  14.752   7.732   5.163
10652SOL     OW33794   3.415   6.483  12.386
10652SOL    HW133795   3.476   6.535  12.438
10652SOL    HW233796   3.428   6.513  12.296
10653SOL     OW33797   7.769  12.172   2.087
10653SOL    HW133798   7.787  12.226   2.010
10653SOL    HW233799   7.778  12.232   2.161
10654SOL     OW33800  11.256  10.741   9.954
10654SOL    HW133801  11.189  10.765   9.890
10654SOL    HW233802  11.333  10.792   9.928
10655SOL     OW33803   6.781   9.806   2.176
10655SOL    HW133804   6.755   9.756   2.099
10655SOL    HW233805   6.825   9.883   2.142
10656SOL     OW33806  13.759  10.525   4.693
10656SOL    HW133807  13.815  10.478   4.756
10656SOL    HW233808  13.818  10.586   4.649
10657SOL     OW33809   8.017   8.447   2.108
10657SOL    HW133810   8.086   8.430   2.044
10657SOL    HW233811   8.059   8.433   2.192
10658SOL     OW33812   4.030   0.954   3.545
10658SOL    HW133813   3.970   0.987   3.612
10658SOL    HW233814   4.021   1.015   3.472
10659SOL     OW33815  13.693   8.894   9.728
10659SOL    HW133816  13.739   8.940   9.799
10659SOL    HW233817  13.664   8.964   9.669
10660SOL     OW33818  13.758   3.356   7.536
10660SOL    HW133819  13.697   3.359   7.609
10660SOL    HW233820  13.724   3.420   7.473
10661SOL     OW33821   7.399   3.768   8.828
10661SOL    HW133822   7.324   3.711   8.848
10661SOL    HW233823   7.360   3.854   8.811
10662SOL     OW33824   7.538   5.009   2.918
10662SOL    HW133825   7.507   5.024   2.828
10662SOL    HW233826   7.488   5.072   2.971
10663SOL     OW33827   6.206   3.182   6.744
10663SOL    HW133828   6.115   3.194   6.771
10663SOL    HW233829   6.252   3.257   6.782
10664SOL     OW33830   7.025  13.994   7.940
10664SOL    HW133831   7.096  13.931   7.947
10664SOL    HW233832   6.953  13.944   7.901
10665SOL     OW33833  12.239  13.190  14.026
10665SOL    HW133834  12.169  13.237  14.072
10665SOL    HW233835  12.311  13.252  14.021
10666SOL     OW33836   0.144   5.888   5.280
10666SOL    HW133837   0.091   5.815   5.248
10666SOL    HW233838   0.080   5.953   5.309
10667SOL     OW33839   8.452   5.384  10.597
10667SOL    HW133840   8.371   5.380  10.546
10667SOL    HW233841   8.466   5.478  10.612
10668SOL     OW33842  13.942   0.990  13.077
10668SOL    HW133843  13.923   1.081  13.055
10668SOL    HW233844  13.947   0.946  12.992
10669SOL     OW33845   2.569   0.236   0.310
10669SOL    HW133846   2.561   0.262   0.401
10669SOL    HW233847   2.501   0.286   0.265
10670SOL     OW33848   7.064   6.716   9.123
10670SOL    HW133849   7.104   6.677   9.046
10670SOL    HW233850   7.039   6.641   9.177
10671SOL     OW33851  10.052   0.983  10.144
10671SOL    HW133852  10.100   0.971  10.062
10671SOL    HW233853   9.960   0.985  10.117
10672SOL     OW33854   6.719   0.646  12.679
10672SOL    HW133855   6.760   0.561  12.694
10672SOL    HW233856   6.633   0.639  12.721
10673SOL     OW33857  11.597   5.516   6.814
10673SOL    HW133858  11.593   5.588   6.750
10673SOL    HW233859  11.536   5.542   6.882
10674SOL     OW33860  10.187   5.363  10.779
10674SOL    HW133861  10.099   5.328  10.790
10674SOL    HW233862  10.184   5.410  10.695
10675SOL     OW33863   7.578   8.893   2.750
10675SOL    HW133864   7.621   8.924   2.670
10675SOL    HW233865   7.579   8.797   2.742
10676SOL     OW33866   0.925  11.137  10.476
10676SOL    HW133867   0.837  11.117  10.506
10676SOL    HW233868   0.934  11.088  10.394
10677SOL     OW33869   1.132   3.446   3.434
10677SOL    HW133870   1.226   3.431   3.427
10677SOL    HW233871   1.096   3.361   3.461
10678SOL     OW33872   5.904  11.386   3.115
10678SOL    HW133873   5.903  11.301   3.159
10678SOL    HW233874   5.858  11.370   3.033
10679SOL     OW33875   8.277  11.552  12.491
10679SOL    HW133876   8.268  11.532  12.398
10679SOL    HW233877   8.230  11.635  12.503
10680SOL     OW33878   5.361   1.184   5.901
10680SOL    HW133879   5.283   1.223   5.941
10680SOL    HW233880   5.352   1.201   5.808
10681SOL     OW33881   6.759   4.630   4.702
10681SOL    HW133882   6.666   4.610   4.712
10681SOL    HW233883   6.769   4.654   4.610
10682SOL     OW33884  10.596   0.375   4.105
10682SOL    HW133885  10.585   0.359   4.012
10682SOL    HW233886  10.611   0.469   4.112
10683SOL     OW33887  14.608   0.725   0.491
10683SOL    HW133888  14.680   0.714   0.553
10683SOL    HW233889  14.540   0.771   0.540
10684SOL     OW33890   5.052  11.095   9.460
10684SOL    HW133891   4.969  11.130   9.492
10684SOL    HW233892   5.094  11.169   9.415
10685SOL     OW33893   8.897   1.777   8.244
10685SOL    HW133894   8.870   1.804   8.332
10685SOL    HW233895   8.989   1.749   8.254
10686SOL     OW33896   5.510   9.264   7.300
10686SOL    HW133897   5.431   9.212   7.314
10686SOL    HW233898   5.579   9.215   7.344
10687SOL     OW33899   7.398   6.773  14.013
10687SOL    HW133900   7.423   6.801  13.924
10687SOL    HW233901   7.460   6.704  14.035
10688SOL     OW33902   6.801  11.011   7.192
10688SOL    HW133903   6.743  11.038   7.263
10688SOL    HW233904   6.751  10.946   7.143
10689SOL     OW33905   9.187   9.900   9.189
10689SOL    HW133906   9.166   9.845   9.114
10689SOL    HW233907   9.126   9.973   9.184
10690SOL     OW33908  13.958   6.134   7.819
10690SOL    HW133909  13.888   6.198   7.832
10690SOL    HW233910  14.014   6.145   7.896
10691SOL     OW33911   2.290   1.822   7.188
10691SOL    HW133912   2.324   1.734   7.173
10691SOL    HW233913   2.354   1.880   7.146
10692SOL     OW33914  12.398   1.940   1.497
10692SOL    HW133915  12.361   1.981   1.575
10692SOL    HW233916  12.484   1.981   1.488
10693SOL     OW33917   9.670  13.423  11.317
10693SOL    HW133918   9.737  13.433  11.384
10693SOL    HW233919   9.685  13.336  11.280
10694SOL     OW33920  11.621   1.321   3.252
10694SOL    HW133921  11.658   1.259   3.188
10694SOL    HW233922  11.555   1.370   3.203
10695SOL     OW33923   6.579   1.962   7.684
10695SOL    HW133924   6.608   1.891   7.742
10695SOL    HW233925   6.659   1.993   7.642
10696SOL     OW33926   7.201  14.873  10.570
10696SOL    HW133927   7.215   0.088  10.536
10696SOL    HW233928   7.108  14.871  10.594
10697SOL     OW33929  14.147  13.689  10.506
10697SOL    HW133930  14.224  13.743  10.492
10697SOL    HW233931  14.181  13.600  10.515
10698SOL     OW33932   4.253   2.063  13.641
10698SOL    HW133933   4.336   2.110  13.627
10698SOL    HW233934   4.188   2.133  13.651
10699SOL     OW33935   6.585  13.743   5.691
10699SOL    HW133936   6.607  13.802   5.764
10699SOL    HW233937   6.667  13.695   5.675
10700SOL     OW33938  12.779   6.174   3.031
10700SOL    HW133939  12.797   6.261   3.068
10700SOL    HW233940  12.855   6.155   2.977
10701SOL     OW33941   0.057  10.222   9.258
10701SOL    HW133942   0.043  10.180   9.173
10701SOL    HW233943   0.113  10.161   9.306
10702SOL     OW33944   4.234   0.937   9.378
10702SOL    HW133945   4.242   0.888   9.460
10702SOL    HW233946   4.140   0.938   9.361
10703SOL     OW33947   6.032   5.574   6.213
10703SOL    HW133948   6.029   5.494   6.266
10703SOL    HW233949   6.016   5.543   6.124
10704SOL     OW33950  14.284   8.481  11.452
10704SOL    HW133951  14.239   8.508  11.531
10704SOL    HW233952  14.328   8.561  11.421
10705SOL     OW33953  13.110   6.232   1.729
10705SOL    HW133954  13.111   6.327   1.730
10705SOL    HW233955  13.042   6.208   1.792
10706SOL     OW33956  10.522   1.165  11.886
10706SOL    HW133957  10.491   1.159  11.796
10706SOL    HW233958  10.612   1.197  11.879
10707SOL     OW33959  11.876   0.021  12.169
10707SOL    HW133960  11.926  14.812  12.167
10707SOL    HW233961  11.940   0.087  12.193
10708SOL     OW33962  10.808  10.874  11.579
10708SOL    HW133963  10.841  10.852  11.492
10708SOL    HW233964  10.820  10.969  11.586
10709SOL     OW33965   5.292   5.130   7.606
10709SOL    HW133966   5.383   5.147   7.632
10709SOL    HW233967   5.297   5.110   7.513
10710SOL     OW33968   8.701  13.036   7.544
10710SOL    HW133969   8.756  13.043   7.622
10710SOL    HW233970   8.637  13.107   7.552
10711SOL     OW33971   1.881   8.915   9.040
10711SOL    HW133972   1.803   8.925   8.986
10711SOL    HW233973   1.931   8.996   9.027
10712SOL     OW33974  11.734   6.416  13.252
10712SOL    HW133975  11.795   6.487  13.230
10712SOL    HW233976  11.647   6.454  13.235
10713SOL     OW33977   5.263  13.426   5.258
10713SOL    HW133978   5.230  13.512   5.285
10713SOL    HW233979   5.192  13.365   5.282
10714SOL     OW33980  14.299  14.233   2.427
10714SOL    HW133981  14.235  14.303   2.414
10714SOL    HW233982  14.250  14.152   2.411
10715SOL     OW33983   7.487   4.515   3.022
10715SOL    HW133984   7.577   4.496   3.046
10715SOL    HW233985   7.490   4.533   2.928
10716SOL     OW33986   1.827   1.263   3.348
10716SOL    HW133987   1.767   1.221   3.410
10716SOL    HW233988   1.772   1.324   3.300
10717SOL     OW33989   7.101   7.289   3.440
10717SOL    HW133990   7.180   7.245   3.410
10717SOL    HW233991   7.090   7.363   3.381
10718SOL     OW33992   0.454  10.411   1.042
10718SOL    HW133993   0.404  10.362   1.108
10718SOL    HW233994   0.538  10.430   1.084
10719SOL     OW33995  14.010  10.896   1.667
10719SOL    HW133996  14.105  10.884   1.658
10719SOL    HW233997  13.985  10.833   1.735
10720SOL     OW33998   2.323  11.196   1.799
10720SOL    HW133999   2.295  11.191   1.708
10720SOL    HW234000   2.369  11.280   1.806
10721SOL     OW34001   2.363   6.680   2.364
10721SOL    HW134002   2.438   6.739   2.366
10721SOL    HW234003   2.312   6.702   2.442
10722SOL     OW34004   1.675   2.131   5.097
10722SOL    HW134005   1.755   2.107   5.144
10722SOL    HW234006   1.704   2.188   5.026
10723SOL     OW34007   1.250   4.785  13.100
10723SOL    HW134008   1.342   4.787  13.126
10723SOL    HW234009   1.208   4.852  13.155
10724SOL     OW34010  12.252   4.303   7.217
10724SOL    HW134011  12.211   4.360   7.153
10724SOL    HW234012  12.325   4.353   7.251
10725SOL     OW34013   0.573   1.978  12.419
10725SOL    HW134014   0.524   1.903  12.452
10725SOL    HW234015   0.651   1.940  12.378
10726SOL     OW34016  12.408  11.409   8.636
10726SOL    HW134017  12.457  11.484   8.669
10726SOL    HW234018  12.416  11.416   8.540
10727SOL     OW34019   6.693   0.726  12.412
10727SOL    HW134020   6.698   0.692  12.501
10727SOL    HW234021   6.754   0.800  12.410
10728SOL     OW34022  14.467   7.771   8.492
10728SOL    HW134023  14.410   7.833   8.536
10728SOL    HW234024  14.410   7.726   8.429
10729SOL     OW34025   0.225  12.147  13.787
10729SOL    HW134026   0.149  12.092  13.771
10729SOL    HW234027   0.272  12.103  13.858
10730SOL     OW34028   9.342   7.717   0.605
10730SOL    HW134029   9.388   7.659   0.665
10730SOL    HW234030   9.268   7.751   0.656
10731SOL     OW34031   6.454   6.205  10.982
10731SOL    HW134032   6.546   6.211  11.008
10731SOL    HW234033   6.426   6.296  10.972
10732SOL     OW34034   0.314   2.869   4.909
10732SOL    HW134035   0.336   2.933   4.840
10732SOL    HW234036   0.294   2.923   4.985
10733SOL     OW34037  14.680   6.417   6.267
10733SOL    HW134038  14.713   6.374   6.346
10733SOL    HW234039  14.633   6.493   6.299
10734SOL     OW34040   6.999   6.054  11.409
10734SOL    HW134041   6.936   6.122  11.431
10734SOL    HW234042   6.946   5.984  11.371
10735SOL     OW34043   8.992   5.456   2.738
10735SOL    HW134044   8.954   5.476   2.652
10735SOL    HW234045   8.919   5.419   2.788
10736SOL     OW34046   9.669  11.747   6.340
10736SOL    HW134047   9.681  11.809   6.268
10736SOL    HW234048   9.758  11.714   6.357
10737SOL     OW34049   2.473   9.845   3.465
10737SOL    HW134050   2.525   9.913   3.423
10737SOL    HW234051   2.475   9.771   3.404
10738SOL     OW34052   2.892  13.624  11.427
10738SOL    HW134053   2.946  13.582  11.360
10738SOL    HW234054   2.854  13.700  11.382
10739SOL     OW34055   0.917   3.203   6.337
10739SOL    HW134056   0.919   3.145   6.261
10739SOL    HW234057   0.877   3.284   6.305
10740SOL     OW34058   0.790   7.248  14.647
10740SOL    HW134059   0.773   7.292  14.731
10740SOL    HW234060   0.807   7.157  14.671
10741SOL     OW34061   4.323   8.240   0.827
10741SOL    HW134062   4.393   8.232   0.891
10741SOL    HW234063   4.288   8.151   0.819
10742SOL     OW34064  13.815   7.897   7.663
10742SOL    HW134065  13.811   7.831   7.593
10742SOL    HW234066  13.724   7.917   7.682
10743SOL     OW34067   0.916  10.125   4.915
10743SOL    HW134068   0.918  10.040   4.872
10743SOL    HW234069   0.910  10.104   5.009
10744SOL     OW34070  12.223   6.273   3.011
10744SOL    HW134071  12.257   6.362   3.005
10744SOL    HW234072  12.157   6.277   3.080
10745SOL     OW34073  13.244   0.609   1.175
10745SOL    HW134074  13.184   0.683   1.171
10745SOL    HW234075  13.318   0.635   1.119
10746SOL     OW34076   5.046   0.016   6.031
10746SOL    HW134077   4.986   0.076   5.986
10746SOL    HW234078   5.129   0.062   6.034
10747SOL     OW34079   1.014   4.605   2.226
10747SOL    HW134080   0.936   4.656   2.247
10747SOL    HW234081   1.002   4.523   2.274
10748SOL     OW34082  11.594   1.628  10.068
10748SOL    HW134083  11.659   1.668  10.011
10748SOL    HW234084  11.566   1.549  10.022
10749SOL     OW34085   3.972   5.813   5.282
10749SOL    HW134086   4.055   5.855   5.308
10749SOL    HW234087   3.965   5.737   5.340
10750SOL     OW34088   1.409  11.050   2.900
10750SOL    HW134089   1.319  11.023   2.884
10750SOL    HW234090   1.461  11.004   2.833
10751SOL     OW34091   2.761   8.882   5.496
10751SOL    HW134092   2.747   8.958   5.554
10751SOL    HW234093   2.844   8.845   5.525
10752SOL     OW34094   5.497  12.198  11.574
10752SOL    HW134095   5.582  12.188  11.531
10752SOL    HW234096   5.472  12.109  11.598
10753SOL     OW34097   2.672   9.925   0.695
10753SOL    HW134098   2.699   9.997   0.638
10753SOL    HW234099   2.648   9.855   0.634
10754SOL     OW34100   8.299   4.569   6.731
10754SOL    HW134101   8.337   4.657   6.727
10754SOL    HW234102   8.363   4.512   6.688
10755SOL     OW34103  12.665   3.770  10.208
10755SOL    HW134104  12.578   3.781  10.169
10755SOL    HW234105  12.684   3.856  10.246
10756SOL     OW34106   5.795   6.183   6.844
10756SOL    HW134107   5.857   6.255   6.834
10756SOL    HW234108   5.847   6.104   6.831
10757SOL     OW34109  12.666   7.636   2.649
10757SOL    HW134110  12.700   7.718   2.616
10757SOL    HW234111  12.743   7.585   2.673
10758SOL     OW34112   6.029  13.539  10.862
10758SOL    HW134113   6.037  13.537  10.958
10758SOL    HW234114   6.119  13.550  10.832
10759SOL     OW34115   0.983   1.162   8.541
10759SOL    HW134116   1.060   1.145   8.596
10759SOL    HW234117   0.939   1.236   8.583
10760SOL     OW34118   3.157  11.333   9.126
10760SOL    HW134119   3.109  11.287   9.195
10760SOL    HW234120   3.136  11.426   9.141
10761SOL     OW34121  13.799   0.825   3.267
10761SOL    HW134122  13.796   0.869   3.182
10761SOL    HW234123  13.889   0.791   3.273
10762SOL     OW34124  13.575   2.716   4.976
10762SOL    HW134125  13.543   2.776   4.909
10762SOL    HW234126  13.610   2.773   5.044
10763SOL     OW34127   3.599   8.008   4.164
10763SOL    HW134128   3.553   8.010   4.248
10763SOL    HW234129   3.690   8.029   4.186
10764SOL     OW34130  10.052   7.821  11.084
10764SOL    HW134131  10.081   7.798  10.995
10764SOL    HW234132  10.048   7.916  11.084
10765SOL     OW34133   9.026   2.906   8.721
10765SOL    HW134134   8.988   2.994   8.720
10765SOL    HW234135   9.120   2.921   8.730
10766SOL     OW34136  14.248   3.313  10.117
10766SOL    HW134137  14.222   3.312  10.209
10766SOL    HW234138  14.324   3.371  10.113
10767SOL     OW34139   2.521  11.501   4.398
10767SOL    HW134140   2.613  11.514   4.421
10767SOL    HW234141   2.521  11.419   4.347
10768SOL     OW34142  12.445   3.996   8.117
10768SOL    HW134143  12.481   4.060   8.056
10768SOL    HW234144  12.352   4.019   8.124
10769SOL     OW34145   2.207  10.928   5.819
10769SOL    HW134146   2.247  10.997   5.766
10769SOL    HW234147   2.169  10.868   5.755
10770SOL     OW34148  14.475   9.137   3.086
10770SOL    HW134149  14.491   9.229   3.105
10770SOL    HW234150  14.505   9.091   3.165
10771SOL     OW34151  12.209   2.220   3.662
10771SOL    HW134152  12.255   2.263   3.590
10771SOL    HW234153  12.118   2.217   3.634
10772SOL     OW34154   6.605   3.508   8.182
10772SOL    HW134155   6.519   3.479   8.149
10772SOL    HW234156   6.587   3.593   8.222
10773SOL     OW34157   4.057   3.749   7.699
10773SOL    HW134158   4.121   3.797   7.648
10773SOL    HW234159   4.108   3.704   7.767
10774SOL     OW34160   9.904   6.560  12.076
10774SOL    HW134161   9.878   6.579  11.986
10774SOL    HW234162   9.835   6.599  12.129
10775SOL     OW34163   1.484  12.495   7.730
10775SOL    HW134164   1.541  12.551   7.783
10775SOL    HW234165   1.482  12.539   7.644
10776SOL     OW34166  11.948   8.718   1.217
10776SOL    HW134167  11.988   8.787   1.268
10776SOL    HW234168  11.854   8.734   1.224
10777SOL     OW34169   4.722  14.642  12.891
10777SOL    HW134170   4.730  14.628  12.985
10777SOL    HW234171   4.668  14.721  12.883
10778SOL     OW34172  14.036  10.879   6.629
10778SOL    HW134173  14.091  10.805   6.604
10778SOL    HW234174  14.090  10.930   6.690
10779SOL     OW34175  10.317   8.983   9.481
10779SOL    HW134176  10.252   9.036   9.436
10779SOL    HW234177  10.311   9.009   9.573
10780SOL     OW34178  12.710   6.760   4.272
10780SOL    HW134179  12.742   6.719   4.191
10780SOL    HW234180  12.784   6.809   4.305
10781SOL     OW34181   7.566   2.813   9.942
10781SOL    HW134182   7.476   2.812   9.910
10781SOL    HW234183   7.558   2.828  10.036
10782SOL     OW34184   4.299  14.651   3.245
10782SOL    HW134185   4.283  14.711   3.318
10782SOL    HW234186   4.310  14.565   3.287
10783SOL     OW34187   8.551   0.435  12.462
10783SOL    HW134188   8.564   0.521  12.503
10783SOL    HW234189   8.458   0.432  12.441
10784SOL     OW34190   7.424  13.329   0.027
10784SOL    HW134191   7.342  13.296  14.864
10784SOL    HW234192   7.457  13.257   0.080
10785SOL     OW34193   7.383   0.692  11.075
10785SOL    HW134194   7.443   0.637  11.023
10785SOL    HW234195   7.304   0.639  11.083
10786SOL     OW34196   6.400   9.099   0.392
10786SOL    HW134197   6.403   9.003   0.392
10786SOL    HW234198   6.404   9.123   0.300
10787SOL     OW34199  12.462   3.290   8.800
10787SOL    HW134200  12.473   3.347   8.876
10787SOL    HW234201  12.506   3.337   8.729
10788SOL     OW34202  12.993   6.504  10.749
10788SOL    HW134203  12.959   6.447  10.679
10788SOL    HW234204  12.915   6.548  10.783
10789SOL     OW34205   6.152  14.446   9.710
10789SOL    HW134206   6.058  14.433   9.724
10789SOL    HW234207   6.187  14.358   9.701
10790SOL     OW34208   0.526   2.106   4.009
10790SOL    HW134209   0.489   2.089   4.096
10790SOL    HW234210   0.571   2.190   4.018
10791SOL     OW34211   2.780   6.265   5.909
10791SOL    HW134212   2.745   6.279   5.821
10791SOL    HW234213   2.719   6.310   5.967
10792SOL     OW34214   5.070   4.896  12.701
10792SOL    HW134215   5.080   4.820  12.757
10792SOL    HW234216   5.082   4.971  12.759
10793SOL     OW34217   1.249   1.016  10.918
10793SOL    HW134218   1.244   1.036  10.825
10793SOL    HW234219   1.291   0.930  10.922
10794SOL     OW34220  10.894   8.793  12.105
10794SOL    HW134221  10.808   8.757  12.128
10794SOL    HW234222  10.875   8.881  12.072
10795SOL     OW34223   7.416   9.772   9.070
10795SOL    HW134224   7.391   9.837   9.004
10795SOL    HW234225   7.450   9.698   9.019
10796SOL     OW34226   0.479   7.580   4.018
10796SOL    HW134227   0.540   7.624   3.959
10796SOL    HW234228   0.459   7.645   4.085
10797SOL     OW34229  14.427  11.556  10.348
10797SOL    HW134230  14.500  11.495  10.341
10797SOL    HW234231  14.369  11.532  10.276
10798SOL     OW34232  12.749  10.289  11.444
10798SOL    HW134233  12.781  10.257  11.528
10798SOL    HW234234  12.743  10.384  11.454
10799SOL     OW34235  14.038   7.279   7.547
10799SOL    HW134236  14.017   7.353   7.491
10799SOL    HW234237  14.043   7.204   7.488
10800SOL     OW34238  12.166   1.011  13.968
10800SOL    HW134239  12.082   1.017  13.923
10800SOL    HW234240  12.198   0.923  13.948
10801SOL     OW34241   3.627  14.033   6.582
10801SOL    HW134242   3.598  14.102   6.523
10801SOL    HW234243   3.628  13.954   6.529
10802SOL     OW34244   9.854  11.407   4.099
10802SOL    HW134245   9.809  11.447   4.024
10802SOL    HW234246   9.918  11.348   4.059
10803SOL     OW34247   9.483  10.129   4.921
10803SOL    HW134248   9.508  10.207   4.872
10803SOL    HW234249   9.390  10.117   4.903
10804SOL     OW34250   4.121   3.296   9.668
10804SOL    HW134251   4.063   3.251   9.729
10804SOL    HW234252   4.080   3.283   9.582
10805SOL     OW34253   7.182   6.288   1.433
10805SOL    HW134254   7.131   6.341   1.493
10805SOL    HW234255   7.269   6.283   1.473
10806SOL     OW34256  11.810   7.638   1.179
10806SOL    HW134257  11.888   7.596   1.215
10806SOL    HW234258  11.828   7.732   1.186
10807SOL     OW34259   2.750   1.743   9.682
10807SOL    HW134260   2.718   1.663   9.724
10807SOL    HW234261   2.776   1.715   9.594
10808SOL     OW34262   1.748   3.875  12.781
10808SOL    HW134263   1.699   3.862  12.863
10808SOL    HW234264   1.683   3.910  12.720
10809SOL     OW34265   7.247   2.959  11.330
10809SOL    HW134266   7.265   3.026  11.265
10809SOL    HW234267   7.157   2.932  11.312
10810SOL     OW34268   7.453   2.978  11.094
10810SOL    HW134269   7.433   2.957  11.003
10810SOL    HW234270   7.513   2.909  11.122
10811SOL     OW34271  13.941  13.765   5.236
10811SOL    HW134272  14.033  13.737   5.230
10811SOL    HW234273  13.936  13.839   5.175
10812SOL     OW34274   8.223   8.369   7.668
10812SOL    HW134275   8.247   8.341   7.580
10812SOL    HW234276   8.267   8.307   7.726
10813SOL     OW34277   1.902  12.389   2.787
10813SOL    HW134278   1.948  12.433   2.859
10813SOL    HW234279   1.835  12.451   2.759
10814SOL     OW34280   5.803   1.096  11.678
10814SOL    HW134281   5.789   1.002  11.665
10814SOL    HW234282   5.759   1.137  11.603
10815SOL     OW34283   8.065  12.258  11.473
10815SOL    HW134284   8.101  12.203  11.542
10815SOL    HW234285   8.140  12.304  11.437
10816SOL     OW34286   7.115   2.759  14.367
10816SOL    HW134287   7.150   2.836  14.411
10816SOL    HW234288   7.106   2.786  14.276
10817SOL     OW34289   4.150   0.860  12.481
10817SOL    HW134290   4.203   0.789  12.445
10817SOL    HW234291   4.209   0.905  12.541
10818SOL     OW34292   1.280   9.820   5.460
10818SOL    HW134293   1.305   9.773   5.539
10818SOL    HW234294   1.243   9.753   5.403
10819SOL     OW34295   9.700   9.196  11.601
10819SOL    HW134296   9.776   9.138  11.601
10819SOL    HW234297   9.680   9.209  11.694
10820SOL     OW34298  12.882   2.762   5.740
10820SOL    HW134299  12.945   2.746   5.669
10820SOL    HW234300  12.806   2.801   5.696
10821SOL     OW34301   6.928  10.795   3.084
10821SOL    HW134302   6.838  10.778   3.112
10821SOL    HW234303   6.980  10.788   3.164
10822SOL     OW34304   7.033   5.406  10.617
10822SOL    HW134305   6.978   5.389  10.541
10822SOL    HW234306   7.093   5.331  10.620
10823SOL     OW34307   8.844   1.478  11.448
10823SOL    HW134308   8.768   1.517  11.491
10823SOL    HW234309   8.808   1.436  11.369
10824SOL     OW34310   8.856  14.149  11.089
10824SOL    HW134311   8.805  14.230  11.099
10824SOL    HW234312   8.793  14.086  11.055
10825SOL     OW34313   1.666   8.972   8.883
10825SOL    HW134314   1.716   9.008   8.810
10825SOL    HW234315   1.574   8.982   8.856
10826SOL     OW34316   9.290   9.311   0.274
10826SOL    HW134317   9.335   9.228   0.256
10826SOL    HW234318   9.359   9.368   0.309
10827SOL     OW34319   8.514   2.335  13.439
10827SOL    HW134320   8.565   2.265  13.399
10827SOL    HW234321   8.483   2.387  13.365
10828SOL     OW34322   2.814   2.543   7.352
10828SOL    HW134323   2.778   2.562   7.266
10828SOL    HW234324   2.908   2.555   7.342
10829SOL     OW34325   0.919   3.539   1.141
10829SOL    HW134326   0.991   3.487   1.177
10829SOL    HW234327   0.953   3.572   1.058
10830SOL     OW34328  12.813   2.657  14.810
10830SOL    HW134329  12.822   2.621  14.722
10830SOL    HW234330  12.792   2.581  14.865
10831SOL     OW34331   6.250   9.014  11.050
10831SOL    HW134332   6.316   8.959  11.092
10831SOL    HW234333   6.290   9.040  10.966
10832SOL     OW34334   3.866   6.090   8.014
10832SOL    HW134335   3.853   6.121   7.924
10832SOL    HW234336   3.925   6.015   8.005
10833SOL     OW34337   6.744   7.602  10.717
10833SOL    HW134338   6.678   7.666  10.743
10833SOL    HW234339   6.693   7.524  10.693
10834SOL     OW34340   9.490  11.849  11.289
10834SOL    HW134341   9.505  11.943  11.290
10834SOL    HW234342   9.575  11.811  11.309
10835SOL     OW34343   1.609  14.674  11.449
10835SOL    HW134344   1.539  14.681  11.384
10835SOL    HW234345   1.688  14.659  11.397
10836SOL     OW34346   3.924   5.811   4.031
10836SOL    HW134347   3.876   5.871   4.087
10836SOL    HW234348   3.884   5.726   4.047
10837SOL     OW34349  14.613  14.152   8.478
10837SOL    HW134350  14.561  14.232   8.471
10837SOL    HW234351  14.576  14.094   8.411
10838SOL     OW34352   9.781   6.756   9.474
10838SOL    HW134353   9.838   6.757   9.551
10838SOL    HW234354   9.789   6.843   9.436
10839SOL     OW34355  11.488  14.714   5.354
10839SOL    HW134356  11.460  14.670   5.435
10839SOL    HW234357  11.437  14.796   5.353
10840SOL     OW34358   6.157  14.275   5.471
10840SOL    HW134359   6.109  14.236   5.398
10840SOL    HW234360   6.109  14.247   5.549
10841SOL     OW34361   8.824  11.110   9.548
10841SOL    HW134362   8.838  11.050   9.621
10841SOL    HW234363   8.741  11.083   9.510
10842SOL     OW34364  11.404   9.802   5.882
10842SOL    HW134365  11.316   9.840   5.888
10842SOL    HW234366  11.461   9.878   5.869
10843SOL     OW34367   7.302   6.087   0.175
10843SOL    HW134368   7.288   6.125   0.088
10843SOL    HW234369   7.346   6.157   0.225
10844SOL     OW34370   8.922   5.227   1.510
10844SOL    HW134371   8.978   5.273   1.572
10844SOL    HW234372   8.919   5.137   1.542
10845SOL     OW34373   5.705  12.608   3.532
10845SOL    HW134374   5.701  12.668   3.458
10845SOL    HW234375   5.631  12.548   3.520
10846SOL     OW34376  12.173   9.017   7.606
10846SOL    HW134377  12.238   9.008   7.535
10846SOL    HW234378  12.217   8.981   7.683
10847SOL     OW34379  11.706   7.854   0.573
10847SOL    HW134380  11.776   7.907   0.609
10847SOL    HW234381  11.745   7.813   0.495
10848SOL     OW34382  11.062   3.071   2.942
10848SOL    HW134383  11.144   3.028   2.966
10848SOL    HW234384  11.054   3.059   2.848
10849SOL     OW34385  14.232  14.681   6.427
10849SOL    HW134386  14.166  14.628   6.382
10849SOL    HW234387  14.300  14.618   6.451
10850SOL     OW34388  14.378   4.397   2.565
10850SOL    HW134389  14.325   4.404   2.486
10850SOL    HW234390  14.368   4.305   2.592
10851SOL     OW34391   3.449   2.448  11.686
10851SOL    HW134392   3.355   2.465  11.697
10851SOL    HW234393   3.488   2.534  11.675
10852SOL     OW34394   0.731   3.493   6.038
10852SOL    HW134395   0.704   3.432   5.970
10852SOL    HW234396   0.826   3.484   6.043
10853SOL     OW34397  10.540   8.663   5.322
10853SOL    HW134398  10.457   8.708   5.308
10853SOL    HW234399  10.522   8.601   5.392
10854SOL     OW34400   0.194   9.658   6.355
10854SOL    HW134401   0.241   9.663   6.438
10854SOL    HW234402   0.102   9.671   6.379
10855SOL     OW34403   9.701   7.780  12.949
10855SOL    HW134404   9.703   7.869  12.913
10855SOL    HW234405   9.629   7.737  12.903
10856SOL     OW34406   2.109   9.595   1.442
10856SOL    HW134407   2.059   9.677   1.438
10856SOL    HW234408   2.200   9.623   1.448
10857SOL     OW34409  13.549  13.633   7.465
10857SOL    HW134410  13.598  13.611   7.545
10857SOL    HW234411  13.458  13.643   7.495
10858SOL     OW34412  14.617   2.028   4.550
10858SOL    HW134413  14.685   1.985   4.498
10858SOL    HW234414  14.618   1.981   4.633
10859SOL     OW34415   1.536   4.801  13.147
10859SOL    HW134416   1.579   4.758  13.221
10859SOL    HW234417   1.596   4.871  13.122
10860SOL     OW34418  14.234   3.993   6.170
10860SOL    HW134419  14.140   3.989   6.153
10860SOL    HW234420  14.272   4.026   6.089
10861SOL     OW34421   4.533  14.813  10.062
10861SOL    HW134422   4.571  14.784   9.979
10861SOL    HW234423   4.459  14.753  10.076
10862SOL     OW34424  11.606   8.781   7.425
10862SOL    HW134425  11.684   8.731   7.399
10862SOL    HW234426  11.557   8.792   7.344
10863SOL     OW34427   3.626  12.231   6.524
10863SOL    HW134428   3.632  12.202   6.616
10863SOL    HW234429   3.650  12.153   6.474
10864SOL     OW34430   2.366   7.386   5.047
10864SOL    HW134431   2.274   7.382   5.022
10864SOL    HW234432   2.374   7.325   5.120
10865SOL     OW34433   6.147  12.693   4.272
10865SOL    HW134434   6.218  12.737   4.226
10865SOL    HW234435   6.070  12.708   4.217
10866SOL     OW34436  12.614   6.353  12.512
10866SOL    HW134437  12.629   6.267  12.552
10866SOL    HW234438  12.640   6.341  12.420
10867SOL     OW34439  13.931  11.891   6.204
10867SOL    HW134440  13.986  11.898   6.282
10867SOL    HW234441  13.907  11.799   6.199
10868SOL     OW34442   6.641   9.549   9.941
10868SOL    HW134443   6.627   9.511   9.854
10868SOL    HW234444   6.608   9.482  10.002
10869SOL     OW34445   2.587   1.972   9.759
10869SOL    HW134446   2.634   1.907   9.707
10869SOL    HW234447   2.600   1.945   9.850
10870SOL     OW34448   4.237  10.054  11.393
10870SOL    HW134449   4.265  10.066  11.302
10870SOL    HW234450   4.212   9.962  11.398
10871SOL     OW34451  10.540   6.197   2.399
10871SOL    HW134452  10.484   6.253   2.345
10871SOL    HW234453  10.480   6.161   2.465
10872SOL     OW34454   5.903   9.539   9.373
10872SOL    HW134455   5.876   9.461   9.325
10872SOL    HW234456   5.971   9.507   9.433
10873SOL     OW34457  12.745  13.732   9.620
10873SOL    HW134458  12.729  13.813   9.668
10873SOL    HW234459  12.817  13.690   9.667
10874SOL     OW34460   5.981   1.541   8.142
10874SOL    HW134461   5.934   1.488   8.207
10874SOL    HW234462   6.073   1.534   8.166
10875SOL     OW34463  14.149  14.561  10.810
10875SOL    HW134464  14.131  14.638  10.863
10875SOL    HW234465  14.155  14.595  10.720
10876SOL     OW34466  14.750   6.180   5.835
10876SOL    HW134467  14.720   6.202   5.923
10876SOL    HW234468  14.673   6.188   5.779
10877SOL     OW34469  11.701   5.766   0.929
10877SOL    HW134470  11.655   5.709   0.867
10877SOL    HW234471  11.675   5.855   0.904
10878SOL     OW34472   3.550   2.085   2.268
10878SOL    HW134473   3.620   2.150   2.277
10878SOL    HW234474   3.504   2.088   2.352
10879SOL     OW34475   2.625  12.999   2.397
10879SOL    HW134476   2.563  13.026   2.329
10879SOL    HW234477   2.575  12.940   2.453
10880SOL     OW34478   4.920  10.741   9.783
10880SOL    HW134479   4.996  10.760   9.727
10880SOL    HW234480   4.858  10.811   9.764
10881SOL     OW34481   8.869   2.213   8.459
10881SOL    HW134482   8.861   2.176   8.371
10881SOL    HW234483   8.962   2.205   8.480
10882SOL     OW34484   3.977   1.158   3.361
10882SOL    HW134485   3.943   1.160   3.271
10882SOL    HW234486   4.011   1.246   3.376
10883SOL     OW34487   8.036   7.340   9.374
10883SOL    HW134488   8.081   7.422   9.353
10883SOL    HW234489   8.052   7.326   9.467
10884SOL     OW34490   2.371   4.580   9.059
10884SOL    HW134491   2.402   4.568   8.969
10884SOL    HW234492   2.426   4.650   9.094
10885SOL     OW34493   0.810   6.575   8.433
10885SOL    HW134494   0.770   6.510   8.375
10885SOL    HW234495   0.904   6.567   8.416
10886SOL     OW34496  14.242   4.861   3.424
10886SOL    HW134497  14.190   4.907   3.358
10886SOL    HW234498  14.177   4.828   3.487
10887SOL     OW34499  11.853   0.849   4.125
10887SOL    HW134500  11.907   0.923   4.154
10887SOL    HW234501  11.911   0.796   4.071
10888SOL     OW34502   9.227   0.108  14.300
10888SOL    HW134503   9.171   0.038  14.265
10888SOL    HW234504   9.179   0.142  14.375
10889SOL     OW34505  13.051  10.583   9.723
10889SOL    HW134506  13.098  10.587   9.640
10889SOL    HW234507  12.971  10.533   9.703
10890SOL     OW34508   5.607  14.651  12.971
10890SOL    HW134509   5.587  14.663  12.878
10890SOL    HW234510   5.620  14.740  13.004
10891SOL     OW34511   2.573  12.321   2.136
10891SOL    HW134512   2.575  12.301   2.230
10891SOL    HW234513   2.535  12.409   2.132
10892SOL     OW34514  13.751   7.938   8.883
10892SOL    HW134515  13.720   8.015   8.836
10892SOL    HW234516  13.672   7.892   8.910
10893SOL     OW34517   4.254   9.056  12.793
10893SOL    HW134518   4.340   9.042  12.833
10893SOL    HW234519   4.244   9.151  12.790
10894SOL     OW34520  12.536   1.693   3.600
10894SOL    HW134521  12.522   1.709   3.507
10894SOL    HW234522  12.629   1.675   3.608
10895SOL     OW34523   2.038  13.445  11.190
10895SOL    HW134524   1.958  13.495  11.174
10895SOL    HW234525   2.020  13.358  11.155
10896SOL     OW34526  12.606   1.914  12.704
10896SOL    HW134527  12.642   1.847  12.762
10896SOL    HW234528  12.597   1.870  12.620
10897SOL     OW34529  11.741   7.915  14.490
10897SOL    HW134530  11.724   7.825  14.520
10897SOL    HW234531  11.834   7.915  14.468
10898SOL     OW34532  12.155  14.835  14.744
10898SOL    HW134533  12.176  14.867  14.656
10898SOL    HW234534  12.180  14.743  14.742
10899SOL     OW34535   3.776   2.517   3.115
10899SOL    HW134536   3.798   2.571   3.039
10899SOL    HW234537   3.795   2.427   3.088
10900SOL     OW34538   3.780   0.439   9.385
10900SOL    HW134539   3.693   0.401   9.376
10900SOL    HW234540   3.798   0.436   9.479
10901SOL     OW34541   2.295   4.182  12.633
10901SOL    HW134542   2.229   4.120  12.601
10901SOL    HW234543   2.344   4.208  12.554
10902SOL     OW34544   9.436   5.354  14.688
10902SOL    HW134545   9.478   5.274  14.654
10902SOL    HW234546   9.467   5.423  14.630
10903SOL     OW34547   6.503  12.301   7.272
10903SOL    HW134548   6.494  12.228   7.211
10903SOL    HW234549   6.430  12.290   7.333
10904SOL     OW34550   9.837   3.296   7.094
10904SOL    HW134551   9.906   3.350   7.131
10904SOL    HW234552   9.837   3.316   7.001
10905SOL     OW34553   3.310   0.463   9.081
10905SOL    HW134554   3.303   0.367   9.080
10905SOL    HW234555   3.273   0.490   8.997
10906SOL     OW34556  13.913   9.105   0.453
10906SOL    HW134557  13.974   9.067   0.390
10906SOL    HW234558  13.969   9.132   0.526
10907SOL     OW34559   1.534  11.651   3.019
10907SOL    HW134560   1.576  11.655   2.933
10907SOL    HW234561   1.558  11.733   3.062
10908SOL     OW34562  13.457   0.614   3.608
10908SOL    HW134563  13.464   0.689   3.667
10908SOL    HW234564  13.515   0.548   3.646
10909SOL     OW34565   3.736  14.101   4.203
10909SOL    HW134566   3.804  14.043   4.168
10909SOL    HW234567   3.785  14.169   4.250
10910SOL     OW34568   4.506   3.142   2.828
10910SOL    HW134569   4.417   3.164   2.802
10910SOL    HW234570   4.561   3.205   2.782
10911SOL     OW34571  11.323  12.494   8.608
10911SOL    HW134572  11.277  12.556   8.665
10911SOL    HW234573  11.281  12.410   8.625
10912SOL     OW34574   3.253   8.379   2.800
10912SOL    HW134575   3.289   8.319   2.866
10912SOL    HW234576   3.211   8.321   2.736
10913SOL     OW34577   7.746   5.361   4.203
10913SOL    HW134578   7.781   5.293   4.146
10913SOL    HW234579   7.823   5.398   4.246
10914SOL     OW34580   4.623   5.603   6.540
10914SOL    HW134581   4.597   5.559   6.620
10914SOL    HW234582   4.670   5.681   6.569
10915SOL     OW34583   1.997   4.035  12.707
10915SOL    HW134584   1.914   4.014  12.750
10915SOL    HW234585   1.976   4.041  12.614
10916SOL     OW34586   4.324  13.912   5.215
10916SOL    HW134587   4.339  13.894   5.307
10916SOL    HW234588   4.235  13.880   5.198
10917SOL     OW34589   4.072  12.365   4.213
10917SOL    HW134590   4.058  12.404   4.300
10917SOL    HW234591   4.005  12.406   4.158
10918SOL     OW34592   4.718   0.241   0.627
10918SOL    HW134593   4.628   0.243   0.593
10918SOL    HW234594   4.725   0.319   0.682
10919SOL     OW34595  11.637   2.227  11.234
10919SOL    HW134596  11.581   2.191  11.165
10919SOL    HW234597  11.638   2.161  11.302
10920SOL     OW34598   2.056   4.694   6.286
10920SOL    HW134599   1.996   4.627   6.253
10920SOL    HW234600   2.021   4.776   6.253
10921SOL     OW34601   9.664   0.212   5.400
10921SOL    HW134602   9.667   0.307   5.385
10921SOL    HW234603   9.746   0.179   5.364
10922SOL     OW34604  14.585   0.306   5.723
10922SOL    HW134605  14.551   0.229   5.678
10922SOL    HW234606  14.668   0.277   5.761
10923SOL     OW34607  14.426   3.797  13.813
10923SOL    HW134608  14.339   3.828  13.839
10923SOL    HW234609  14.468   3.873  13.774
10924SOL     OW34610   4.493  14.715  11.520
10924SOL    HW134611   4.543  14.638  11.491
10924SOL    HW234612   4.545  14.790  11.492
10925SOL     OW34613   1.711   4.398  12.452
10925SOL    HW134614   1.744   4.315  12.486
10925SOL    HW234615   1.763   4.465  12.498
10926SOL     OW34616   4.619   5.742   5.091
10926SOL    HW134617   4.660   5.734   5.177
10926SOL    HW234618   4.680   5.699   5.031
10927SOL     OW34619   0.752   0.285   1.447
10927SOL    HW134620   0.829   0.255   1.495
10927SOL    HW234621   0.740   0.220   1.378
10928SOL     OW34622   7.321   9.073   1.744
10928SOL    HW134623   7.247   9.041   1.693
10928SOL    HW234624   7.372   8.995   1.765
10929SOL     OW34625   3.740  12.153   9.345
10929SOL    HW134626   3.750  12.082   9.282
10929SOL    HW234627   3.653  12.190   9.326
10930SOL     OW34628   2.040  13.482   6.940
10930SOL    HW134629   2.114  13.475   6.879
10930SOL    HW234630   2.078  13.467   7.026
10931SOL     OW34631   1.703   2.000   1.167
10931SOL    HW134632   1.795   1.974   1.179
10931SOL    HW234633   1.655   1.918   1.161
10932SOL     OW34634  11.256   1.797   9.205
10932SOL    HW134635  11.204   1.757   9.135
10932SOL    HW234636  11.268   1.726   9.269
10933SOL     OW34637   0.536  14.822   0.065
10933SOL    HW134638   0.518  14.747   0.123
10933SOL    HW234639   0.569  14.782  14.857
10934SOL     OW34640   7.535   7.962  12.935
10934SOL    HW134641   7.519   7.924  12.849
10934SOL    HW234642   7.449   7.968  12.976
10935SOL     OW34643  11.846   6.483   1.017
10935SOL    HW134644  11.758   6.497   1.051
10935SOL    HW234645  11.833   6.467   0.923
10936SOL     OW34646   4.056   2.995   2.377
10936SOL    HW134647   3.961   3.001   2.384
10936SOL    HW234648   4.076   3.030   2.290
10937SOL     OW34649  14.664   9.813  12.680
10937SOL    HW134650  14.709   9.779  12.603
10937SOL    HW234651  14.667   9.740  12.743
10938SOL     OW34652   6.904  11.795  13.832
10938SOL    HW134653   6.896  11.728  13.764
10938SOL    HW234654   6.818  11.837  13.834
10939SOL     OW34655  13.131  13.306   4.539
10939SOL    HW134656  13.115  13.312   4.633
10939SOL    HW234657  13.045  13.320   4.499
10940SOL     OW34658   7.074  10.925  10.069
10940SOL    HW134659   7.100  10.933   9.977
10940SOL    HW234660   7.054  11.014  10.096
10941SOL     OW34661  10.166   4.087   4.461
10941SOL    HW134662  10.171   4.121   4.372
10941SOL    HW234663  10.176   3.992   4.451
10942SOL     OW34664  10.440   8.045  14.193
10942SOL    HW134665  10.396   7.979  14.246
10942SOL    HW234666  10.408   8.030  14.104
10943SOL     OW34667  10.456   4.642   6.567
10943SOL    HW134668  10.452   4.727   6.523
10943SOL    HW234669  10.527   4.651   6.631
10944SOL     OW34670   4.431   8.162  11.134
10944SOL    HW134671   4.521   8.129  11.145
10944SOL    HW234672   4.436   8.253  11.163
10945SOL     OW34673   1.711   3.789  12.362
10945SOL    HW134674   1.756   3.711  12.393
10945SOL    HW234675   1.651   3.812  12.432
10946SOL     OW34676  10.015  10.803   9.645
10946SOL    HW134677  10.002  10.718   9.687
10946SOL    HW234678  10.085  10.787   9.582
10947SOL     OW34679   5.248   5.805  14.120
10947SOL    HW134680   5.340   5.811  14.094
10947SOL    HW234681   5.240   5.720  14.162
10948SOL     OW34682  14.531   0.262  12.585
10948SOL    HW134683  14.556   0.181  12.631
10948SOL    HW234684  14.437   0.270  12.603
10949SOL     OW34685   0.247   7.235   8.821
10949SOL    HW134686   0.235   7.152   8.867
10949SOL    HW234687   0.326   7.273   8.860
10950SOL     OW34688   5.444   4.789   5.000
10950SOL    HW134689   5.419   4.706   5.041
10950SOL    HW234690   5.479   4.764   4.915
10951SOL     OW34691  12.019   2.963   0.111
10951SOL    HW134692  12.014   3.023   0.036
10951SOL    HW234693  11.936   2.915   0.108
10952SOL     OW34694   4.014  14.283  12.333
10952SOL    HW134695   3.998  14.212  12.395
10952SOL    HW234696   3.951  14.351  12.359
10953SOL     OW34697   1.631   4.692  12.377
10953SOL    HW134698   1.592   4.622  12.324
10953SOL    HW234699   1.708   4.652  12.417
10954SOL     OW34700  12.358  10.233   8.856
10954SOL    HW134701  12.308  10.282   8.791
10954SOL    HW234702  12.294  10.175   8.898
10955SOL     OW34703   9.239   8.771   8.899
10955SOL    HW134704   9.169   8.708   8.882
10955SOL    HW234705   9.288   8.734   8.973
10956SOL     OW34706   2.969   0.604   8.325
10956SOL    HW134707   2.976   0.695   8.357
10956SOL    HW234708   2.878   0.595   8.298
10957SOL     OW34709   6.375   8.917   7.878
10957SOL    HW134710   6.313   8.986   7.853
10957SOL    HW234711   6.419   8.894   7.796
10958SOL     OW34712   1.623   0.066   5.061
10958SOL    HW134713   1.571   0.099   5.134
10958SOL    HW234714   1.605  14.845   5.059
10959SOL     OW34715  12.672   2.893   5.661
10959SOL    HW134716  12.611   2.948   5.612
10959SOL    HW234717  12.673   2.810   5.613
10960SOL     OW34718   4.724   2.567  10.554
10960SOL    HW134719   4.643   2.516  10.550
10960SOL    HW234720   4.769   2.535  10.631
10961SOL     OW34721   1.572   6.110   5.866
10961SOL    HW134722   1.488   6.120   5.912
10961SOL    HW234723   1.638   6.123   5.934
10962SOL     OW34724  10.787  13.530   7.677
10962SOL    HW134725  10.805  13.461   7.613
10962SOL    HW234726  10.863  13.588   7.672
10963SOL     OW34727   8.732   0.964   3.805
10963SOL    HW134728   8.771   1.037   3.853
10963SOL    HW234729   8.662   0.931   3.863
10964SOL     OW34730   6.571   8.532   3.604
10964SOL    HW134731   6.622   8.497   3.531
10964SOL    HW234732   6.586   8.626   3.601
10965SOL     OW34733   3.780   5.398   7.980
10965SOL    HW134734   3.725   5.385   7.903
10965SOL    HW234735   3.757   5.326   8.039
10966SOL     OW34736   5.436  14.364   9.016
10966SOL    HW134737   5.402  14.453   9.025
10966SOL    HW234738   5.526  14.370   9.049
10967SOL     OW34739  12.756   7.378   2.102
10967SOL    HW134740  12.849   7.388   2.120
10967SOL    HW234741  12.752   7.317   2.028
10968SOL     OW34742   2.705   5.248   9.676
10968SOL    HW134743   2.688   5.169   9.625
10968SOL    HW234744   2.619   5.288   9.689
10969SOL     OW34745   2.979  13.031   4.013
10969SOL    HW134746   3.057  12.984   4.043
10969SOL    HW234747   2.994  13.121   4.041
10970SOL     OW34748  14.144   7.764  12.940
10970SOL    HW134749  14.100   7.740  13.022
10970SOL    HW234750  14.237   7.758  12.960
10971SOL     OW34751  10.803  11.714   4.546
10971SOL    HW134752  10.754  11.667   4.613
10971SOL    HW234753  10.810  11.804   4.580
10972SOL     OW34754   7.179   7.536   0.068
10972SOL    HW134755   7.122   7.559  14.868
10972SOL    HW234756   7.166   7.607   0.131
10973SOL     OW34757   0.844  13.261   8.111
10973SOL    HW134758   0.841  13.166   8.107
10973SOL    HW234759   0.870  13.289   8.024
10974SOL     OW34760  14.303   0.723   3.106
10974SOL    HW134761  14.362   0.720   3.182
10974SOL    HW234762  14.271   0.633   3.097
10975SOL     OW34763   1.443   6.969  12.871
10975SOL    HW134764   1.500   6.985  12.796
10975SOL    HW234765   1.484   6.897  12.918
10976SOL     OW34766   0.851   9.500   8.931
10976SOL    HW134767   0.884   9.475   8.845
10976SOL    HW234768   0.772   9.448   8.943
10977SOL     OW34769  11.827   3.800  14.683
10977SOL    HW134770  11.765   3.729  14.666
10977SOL    HW234771  11.800   3.870  14.623
10978SOL     OW34772   1.705  14.539   1.556
10978SOL    HW134773   1.746  14.549   1.642
10978SOL    HW234774   1.686  14.628   1.527
10979SOL     OW34775   1.464   1.275  14.706
10979SOL    HW134776   1.510   1.203  14.663
10979SOL    HW234777   1.495   1.271  14.797
10980SOL     OW34778   5.949  12.463   4.419
10980SOL    HW134779   5.885  12.486   4.352
10980SOL    HW234780   5.997  12.544   4.436
10981SOL     OW34781  12.562  10.164  13.415
10981SOL    HW134782  12.650  10.128  13.407
10981SOL    HW234783  12.549  10.212  13.333
10982SOL     OW34784   1.684  13.605   4.964
10982SOL    HW134785   1.727  13.597   5.049
10982SOL    HW234786   1.634  13.524   4.955
10983SOL     OW34787   3.565  14.407  12.358
10983SOL    HW134788   3.496  14.358  12.313
10983SOL    HW234789   3.557  14.496  12.324
10984SOL     OW34790   9.023   5.075   3.527
10984SOL    HW134791   8.985   4.987   3.534
10984SOL    HW234792   9.032   5.104   3.618
10985SOL     OW34793  14.157   6.858   7.768
10985SOL    HW134794  14.233   6.907   7.738
10985SOL    HW234795  14.082   6.911   7.743
10986SOL     OW34796   2.383   7.607   6.703
10986SOL    HW134797   2.337   7.650   6.631
10986SOL    HW234798   2.447   7.551   6.661
10987SOL     OW34799   1.067   4.538   4.503
10987SOL    HW134800   1.155   4.542   4.465
10987SOL    HW234801   1.013   4.498   4.435
10988SOL     OW34802   3.179   1.045   1.802
10988SOL    HW134803   3.215   1.062   1.715
10988SOL    HW234804   3.162   1.133   1.838
10989SOL     OW34805   2.810  10.514   3.216
10989SOL    HW134806   2.756  10.515   3.137
10989SOL    HW234807   2.748  10.503   3.288
10990SOL     OW34808  14.647   0.056   5.795
10990SOL    HW134809  14.687   0.089   5.876
10990SOL    HW234810  14.648  14.834   5.806
10991SOL     OW34811  12.881   4.699   8.545
10991SOL    HW134812  12.958   4.756   8.536
10991SOL    HW234813  12.855   4.679   8.455
10992SOL     OW34814  11.716   4.532   3.687
10992SOL    HW134815  11.631   4.527   3.731
10992SOL    HW234816  11.746   4.621   3.702
10993SOL     OW34817  11.376   7.116  11.950
10993SOL    HW134818  11.402   7.181  11.885
10993SOL    HW234819  11.351   7.167  12.027
10994SOL     OW34820   3.148   3.895   3.848
10994SOL    HW134821   3.066   3.918   3.892
10994SOL    HW234822   3.151   3.951   3.771
10995SOL     OW34823  10.203   3.175  13.310
10995SOL    HW134824  10.130   3.174  13.249
10995SOL    HW234825  10.272   3.222  13.264
10996SOL     OW34826  13.111  12.266   5.944
10996SOL    HW134827  13.121  12.324   6.019
10996SOL    HW234828  13.078  12.322   5.874
10997SOL     OW34829  12.602  14.845   7.632
10997SOL    HW134830  12.637  14.812   7.715
10997SOL    HW234831  12.679   0.005   7.585
10998SOL     OW34832   1.296  10.968   7.467
10998SOL    HW134833   1.223  10.960   7.407
10998SOL    HW234834   1.262  11.023   7.538
10999SOL     OW34835   8.961  10.874   3.723
10999SOL    HW134836   9.039  10.906   3.767
10999SOL    HW234837   8.895  10.941   3.740
11000SOL     OW34838   4.627   5.426   7.006
11000SOL    HW134839   4.616   5.501   7.063
11000SOL    HW234840   4.546   5.376   7.016
11001SOL     OW34841   7.118   5.276   1.435
11001SOL    HW134842   7.148   5.202   1.382
11001SOL    HW234843   7.057   5.323   1.379
11002SOL     OW34844   2.671  13.907   0.120
11002SOL    HW134845   2.652  13.919   0.027
11002SOL    HW234846   2.586  13.916   0.163
11003SOL     OW34847   6.110  14.444   7.192
11003SOL    HW134848   6.062  14.476   7.115
11003SOL    HW234849   6.041  14.423   7.255
11004SOL     OW34850  12.075   0.509   2.722
11004SOL    HW134851  12.056   0.416   2.708
11004SOL    HW234852  11.990   0.548   2.739
11005SOL     OW34853   2.179   6.673   6.191
11005SOL    HW134854   2.135   6.598   6.151
11005SOL    HW234855   2.186   6.651   6.284
11006SOL     OW34856   9.411  11.697   2.463
11006SOL    HW134857   9.383  11.624   2.517
11006SOL    HW234858   9.493  11.668   2.423
11007SOL     OW34859  11.750   0.791   8.884
11007SOL    HW134860  11.678   0.831   8.934
11007SOL    HW234861  11.777   0.716   8.936
11008SOL     OW34862  13.745  10.788  10.209
11008SOL    HW134863  13.683  10.772  10.138
11008SOL    HW234864  13.710  10.737  10.282
11009SOL     OW34865  11.821  14.847  13.128
11009SOL    HW134866  11.916  14.846  13.117
11009SOL    HW234867  11.799  14.757  13.153
11010SOL     OW34868   3.039  10.482   6.223
11010SOL    HW134869   2.961  10.441   6.260
11010SOL    HW234870   3.101  10.410   6.212
11011SOL     OW34871   0.198   9.516   0.003
11011SOL    HW134872   0.173   9.571  14.803
11011SOL    HW234873   0.292   9.531   0.014
11012SOL     OW34874  12.593  12.490   7.558
11012SOL    HW134875  12.538  12.420   7.523
11012SOL    HW234876  12.568  12.496   7.650
11013SOL     OW34877   0.245  12.458  11.980
11013SOL    HW134878   0.193  12.458  12.060
11013SOL    HW234879   0.253  12.551  11.957
11014SOL     OW34880   2.038   0.193   2.517
11014SOL    HW134881   2.030   0.283   2.486
11014SOL    HW234882   2.042   0.200   2.612
11015SOL     OW34883   5.168   2.700  12.375
11015SOL    HW134884   5.246   2.664  12.417
11015SOL    HW234885   5.185   2.690  12.281
11016SOL     OW34886   1.110   4.230  12.641
11016SOL    HW134887   1.114   4.305  12.581
11016SOL    HW234888   1.047   4.256  12.707
11017SOL     OW34889  11.357  12.564   7.688
11017SOL    HW134890  11.350  12.473   7.658
11017SOL    HW234891  11.425  12.603   7.633
11018SOL     OW34892  13.341  13.069   5.823
11018SOL    HW134893  13.263  13.074   5.767
11018SOL    HW234894  13.400  13.136   5.788
11019SOL     OW34895   4.771  11.795   6.871
11019SOL    HW134896   4.755  11.738   6.947
11019SOL    HW234897   4.720  11.874   6.890
11020SOL     OW34898   9.100   9.520   7.531
11020SOL    HW134899   9.131   9.594   7.479
11020SOL    HW234900   9.036   9.558   7.592
11021SOL     OW34901   5.298   8.627   4.261
11021SOL    HW134902   5.286   8.543   4.305
11021SOL    HW234903   5.392   8.642   4.263
11022SOL     OW34904   3.946   9.515  10.967
11022SOL    HW134905   3.859   9.531  11.003
11022SOL    HW234906   3.969   9.596  10.923
11023SOL     OW34907   2.162  11.328   5.365
11023SOL    HW134908   2.136  11.316   5.456
11023SOL    HW234909   2.244  11.280   5.357
11024SOL     OW34910  10.384   1.241   4.006
11024SOL    HW134911  10.322   1.314   4.003
11024SOL    HW234912  10.460   1.271   3.957
11025SOL     OW34913  14.382  11.675   8.370
11025SOL    HW134914  14.292  11.702   8.388
11025SOL    HW234915  14.383  11.581   8.389
11026SOL     OW34916  11.491  13.770   7.725
11026SOL    HW134917  11.498  13.784   7.630
11026SOL    HW234918  11.561  13.708   7.745
11027SOL     OW34919   3.372  11.561  12.833
11027SOL    HW134920   3.339  11.474  12.810
11027SOL    HW234921   3.349  11.572  12.926
11028SOL     OW34922   0.043   3.773  14.575
11028SOL    HW134923  14.863   3.721  14.515
11028SOL    HW234924   0.118   3.802  14.522
11029SOL     OW34925   0.485   7.808   2.803
11029SOL    HW134926   0.495   7.896   2.766
11029SOL    HW234927   0.574   7.774   2.810
11030SOL     OW34928   4.314   1.850   8.200
11030SOL    HW134929   4.384   1.784   8.206
11030SOL    HW234930   4.334   1.899   8.120
11031SOL     OW34931  11.566   3.593   3.918
11031SOL    HW134932  11.557   3.673   3.866
11031SOL    HW234933  11.587   3.525   3.854
11032SOL     OW34934  14.813   1.051   2.871
11032SOL    HW134935  14.847   0.985   2.931
11032SOL    HW234936  14.746   1.097   2.921
11033SOL     OW34937   3.525  10.212  11.568
11033SOL    HW134938   3.562  10.190  11.653
11033SOL    HW234939   3.488  10.129  11.537
11034SOL     OW34940   3.483   7.952  14.682
11034SOL    HW134941   3.556   7.898  14.712
11034SOL    HW234942   3.405   7.899  14.702
11035SOL     OW34943   9.463   9.853   5.269
11035SOL    HW134944   9.384   9.907   5.278
11035SOL    HW234945   9.530   9.901   5.319
11036SOL     OW34946   5.709  11.358   4.388
11036SOL    HW134947   5.693  11.336   4.480
11036SOL    HW234948   5.787  11.308   4.365
11037SOL     OW34949   8.730  14.518   1.407
11037SOL    HW134950   8.672  14.470   1.466
11037SOL    HW234951   8.818  14.489   1.431
11038SOL     OW34952   2.732   0.934   9.498
11038SOL    HW134953   2.683   0.852   9.502
11038SOL    HW234954   2.824   0.907   9.489
11039SOL     OW34955   2.637   6.958   3.911
11039SOL    HW134956   2.613   6.901   3.984
11039SOL    HW234957   2.637   7.046   3.948
11040SOL     OW34958   6.372  11.272  13.509
11040SOL    HW134959   6.351  11.344  13.449
11040SOL    HW234960   6.308  11.205  13.488
11041SOL     OW34961   8.047   6.470   0.865
11041SOL    HW134962   8.126   6.522   0.851
11041SOL    HW234963   8.077   6.379   0.867
11042SOL     OW34964   3.917  14.188  10.639
11042SOL    HW134965   3.975  14.131  10.689
11042SOL    HW234966   3.864  14.233  10.705
11043SOL     OW34967   1.311   8.361  12.790
11043SOL    HW134968   1.396   8.321  12.808
11043SOL    HW234969   1.310   8.439  12.845
11044SOL     OW34970  10.707  14.453   0.104
11044SOL    HW134971  10.636  14.400   0.138
11044SOL    HW234972  10.747  14.494   0.181
11045SOL     OW34973   9.777   1.365   3.239
11045SOL    HW134974   9.691   1.400   3.262
11045SOL    HW234975   9.758   1.295   3.177
11046SOL     OW34976  12.251  14.514   0.955
11046SOL    HW134977  12.219  14.526   1.044
11046SOL    HW234978  12.184  14.462   0.912
11047SOL     OW34979   8.273  13.558  10.350
11047SOL    HW134980   8.300  13.523  10.435
11047SOL    HW234981   8.305  13.648  10.351
11048SOL     OW34982   8.879   9.731  13.311
11048SOL    HW134983   8.868   9.650  13.360
11048SOL    HW234984   8.820   9.721  13.236
11049SOL     OW34985   5.735   8.236  11.676
11049SOL    HW134986   5.780   8.166  11.722
11049SOL    HW234987   5.713   8.198  11.590
11050SOL     OW34988   1.420  14.677   0.013
11050SOL    HW134989   1.502  14.633   0.035
11050SOL    HW234990   1.443  14.741  14.820
11051SOL     OW34991   3.898   6.835   2.189
11051SOL    HW134992   3.953   6.760   2.211
11051SOL    HW234993   3.950   6.887   2.127
11052SOL     OW34994   4.425  11.016   3.726
11052SOL    HW134995   4.442  11.096   3.675
11052SOL    HW234996   4.483  11.024   3.801
11053SOL     OW34997   8.732   9.728   3.313
11053SOL    HW134998   8.664   9.677   3.269
11053SOL    HW234999   8.814   9.683   3.291
11054SOL     OW35000   9.218   0.054   1.263
11054SOL    HW135001   9.231   0.061   1.358
11054SOL    HW235002   9.304   0.076   1.226
11055SOL     OW35003   2.078  14.219  10.908
11055SOL    HW135004   2.159  14.263  10.932
11055SOL    HW235005   2.062  14.158  10.980
11056SOL     OW35006   2.618   0.874   7.820
11056SOL    HW135007   2.623   0.840   7.731
11056SOL    HW235008   2.700   0.846   7.861
11057SOL     OW35009   1.766   8.487  14.690
11057SOL    HW135010   1.838   8.549  14.705
11057SOL    HW235011   1.805   8.415  14.641
11058SOL     OW35012  14.758   3.227   2.179
11058SOL    HW135013  14.675   3.235   2.132
11058SOL    HW235014  14.777   3.133   2.176
11059SOL     OW35015   0.334  14.039   0.484
11059SOL    HW135016   0.296  14.119   0.520
11059SOL    HW235017   0.261  13.994   0.441
11060SOL     OW35018  12.293   5.137   8.488
11060SOL    HW135019  12.262   5.144   8.398
11060SOL    HW235020  12.215   5.118   8.540
11061SOL     OW35021  10.065   1.289  11.094
11061SOL    HW135022  10.051   1.239  11.013
11061SOL    HW235023  10.128   1.238  11.144
11062SOL     OW35024   8.739   2.334   2.683
11062SOL    HW135025   8.665   2.288   2.643
11062SOL    HW235026   8.815   2.305   2.634
11063SOL     OW35027   6.845   2.347   9.613
11063SOL    HW135028   6.851   2.260   9.651
11063SOL    HW235029   6.888   2.339   9.528
11064SOL     OW35030  12.069  10.950  14.074
11064SOL    HW135031  12.085  11.044  14.074
11064SOL    HW235032  12.122  10.917  14.001
11065SOL     OW35033   6.042   6.012   2.633
11065SOL    HW135034   6.078   6.036   2.548
11065SOL    HW235035   6.092   6.065   2.696
11066SOL     OW35036   2.968   3.386   2.479
11066SOL    HW135037   2.955   3.432   2.562
11066SOL    HW235038   2.959   3.293   2.500
11067SOL     OW35039  13.937   1.987  13.361
11067SOL    HW135040  13.885   1.967  13.283
11067SOL    HW235041  14.027   1.970  13.335
11068SOL     OW35042  11.209  12.528   2.056
11068SOL    HW135043  11.255  12.599   2.102
11068SOL    HW235044  11.120  12.530   2.091
11069SOL     OW35045  11.064   2.707   4.804
11069SOL    HW135046  11.077   2.762   4.727
11069SOL    HW235047  11.101   2.623   4.780
11070SOL     OW35048   8.069   6.538   8.874
11070SOL    HW135049   8.020   6.558   8.954
11070SOL    HW235050   8.031   6.596   8.808
11071SOL     OW35051   0.432   4.475   9.138
11071SOL    HW135052   0.347   4.492   9.177
11071SOL    HW235053   0.452   4.385   9.163
11072SOL     OW35054  11.720   2.871   1.975
11072SOL    HW135055  11.722   2.775   1.983
11072SOL    HW235056  11.741   2.902   2.064
11073SOL     OW35057   1.139   0.562   0.607
11073SOL    HW135058   1.165   0.484   0.558
11073SOL    HW235059   1.221   0.606   0.629
11074SOL     OW35060   3.711   4.104  13.463
11074SOL    HW135061   3.675   4.058  13.539
11074SOL    HW235062   3.771   4.042  13.423
11075SOL     OW35063  10.395  13.362   7.201
11075SOL    HW135064  10.486  13.366   7.231
11075SOL    HW235065  10.364  13.452   7.203
11076SOL     OW35066  13.817   3.246   8.391
11076SOL    HW135067  13.853   3.283   8.311
11076SOL    HW235068  13.749   3.308   8.418
11077SOL     OW35069   4.953   4.106   5.780
11077SOL    HW135070   4.895   4.086   5.854
11077SOL    HW235071   4.901   4.162   5.723
11078SOL     OW35072   6.447   3.426   7.964
11078SOL    HW135073   6.355   3.422   7.936
11078SOL    HW235074   6.492   3.471   7.893
11079SOL     OW35075  13.749   0.380   7.225
11079SOL    HW135076  13.688   0.440   7.183
11079SOL    HW235077  13.772   0.316   7.158
11080SOL     OW35078   8.697   4.490   1.712
11080SOL    HW135079   8.697   4.585   1.696
11080SOL    HW235080   8.734   4.453   1.632
11081SOL     OW35081   8.124   6.822   9.413
11081SOL    HW135082   8.175   6.771   9.350
11081SOL    HW235083   8.142   6.913   9.390
11082SOL     OW35084   8.714   4.219   3.849
11082SOL    HW135085   8.623   4.203   3.874
11082SOL    HW235086   8.731   4.310   3.872
11083SOL     OW35087   4.718   7.074   5.179
11083SOL    HW135088   4.730   7.124   5.098
11083SOL    HW235089   4.625   7.052   5.179
11084SOL     OW35090   1.288   8.043   2.618
11084SOL    HW135091   1.213   8.037   2.678
11084SOL    HW235092   1.264   8.112   2.557
11085SOL     OW35093   8.615  12.592   3.004
11085SOL    HW135094   8.625  12.638   2.921
11085SOL    HW235095   8.533  12.625   3.040
11086SOL     OW35096  11.948   0.773   0.149
11086SOL    HW135097  11.995   0.729   0.220
11086SOL    HW235098  11.971   0.724   0.070
11087SOL     OW35099  11.173  12.964  11.960
11087SOL    HW135100  11.180  13.048  11.915
11087SOL    HW235101  11.082  12.960  11.989
11088SOL     OW35102   4.460   1.729   0.438
11088SOL    HW135103   4.521   1.723   0.512
11088SOL    HW235104   4.417   1.814   0.450
11089SOL     OW35105   4.000   7.331   6.249
11089SOL    HW135106   3.973   7.306   6.160
11089SOL    HW235107   4.096   7.338   6.244
11090SOL     OW35108   5.483  10.398   6.707
11090SOL    HW135109   5.423  10.436   6.771
11090SOL    HW235110   5.570  10.429   6.734
11091SOL     OW35111  11.157   4.266   7.059
11091SOL    HW135112  11.225   4.266   6.992
11091SOL    HW235113  11.173   4.187   7.110
11092SOL     OW35114   9.908   6.118  11.308
11092SOL    HW135115   9.998   6.147  11.299
11092SOL    HW235116   9.902   6.041  11.251
11093SOL     OW35117   6.633   3.498   7.112
11093SOL    HW135118   6.594   3.416   7.143
11093SOL    HW235119   6.708   3.471   7.059
11094SOL     OW35120  11.558   8.902   9.563
11094SOL    HW135121  11.572   8.876   9.472
11094SOL    HW235122  11.541   8.819   9.609
11095SOL     OW35123   5.367   2.190  11.117
11095SOL    HW135124   5.387   2.124  11.182
11095SOL    HW235125   5.420   2.167  11.041
11096SOL     OW35126   1.076  14.163  14.381
11096SOL    HW135127   1.060  14.070  14.393
11096SOL    HW235128   1.171  14.171  14.374
11097SOL     OW35129   6.380   1.764   2.896
11097SOL    HW135130   6.405   1.817   2.972
11097SOL    HW235131   6.289   1.788   2.879
11098SOL     OW35132   8.976   2.742   9.591
11098SOL    HW135133   8.922   2.663   9.590
11098SOL    HW235134   9.005   2.749   9.682
11099SOL     OW35135   1.565   4.767  14.165
11099SOL    HW135136   1.481   4.767  14.118
11099SOL    HW235137   1.585   4.860  14.176
11100SOL     OW35138   3.505   4.078  10.706
11100SOL    HW135139   3.563   4.075  10.782
11100SOL    HW235140   3.529   4.159  10.661
11101SOL     OW35141  11.529  12.793   4.782
11101SOL    HW135142  11.600  12.787   4.847
11101SOL    HW235143  11.568  12.842   4.709
11102SOL     OW35144  12.093  11.160   6.399
11102SOL    HW135145  12.182  11.124   6.406
11102SOL    HW235146  12.057  11.121   6.319
11103SOL     OW35147  12.432   7.289   1.112
11103SOL    HW135148  12.378   7.331   1.044
11103SOL    HW235149  12.381   7.211   1.137
11104SOL     OW35150   7.293   8.402   1.358
11104SOL    HW135151   7.325   8.323   1.313
11104SOL    HW235152   7.294   8.470   1.290
11105SOL     OW35153   1.048   8.600   6.813
11105SOL    HW135154   1.069   8.625   6.723
11105SOL    HW235155   0.953   8.592   6.814
11106SOL     OW35156  11.739   7.784  13.365
11106SOL    HW135157  11.679   7.787  13.290
11106SOL    HW235158  11.725   7.698  13.404
11107SOL     OW35159   7.800  12.916  11.844
11107SOL    HW135160   7.865  12.916  11.773
11107SOL    HW235161   7.820  12.838  11.895
11108SOL     OW35162   6.700   4.058  10.323
11108SOL    HW135163   6.624   4.001  10.333
11108SOL    HW235164   6.750   4.019  10.250
11109SOL     OW35165   9.862   0.841   1.326
11109SOL    HW135166   9.894   0.874   1.410
11109SOL    HW235167   9.830   0.919   1.280
11110SOL     OW35168  10.341   4.030   2.589
11110SOL    HW135169  10.265   4.067   2.545
11110SOL    HW235170  10.413   4.041   2.526
11111SOL     OW35171   4.586   7.993  13.162
11111SOL    HW135172   4.604   7.996  13.068
11111SOL    HW235173   4.501   8.036  13.172
11112SOL     OW35174   5.195  11.044  14.744
11112SOL    HW135175   5.103  11.060  14.721
11112SOL    HW235176   5.234  11.010  14.663
11113SOL     OW35177  12.400   5.632  12.396
11113SOL    HW135178  12.428   5.647  12.306
11113SOL    HW235179  12.438   5.705  12.446
11114SOL     OW35180  11.774  13.097   1.383
11114SOL    HW135181  11.679  13.099   1.366
11114SOL    HW235182  11.800  13.008   1.362
11115SOL     OW35183   2.018   8.343   4.427
11115SOL    HW135184   2.104   8.306   4.405
11115SOL    HW235185   2.034   8.392   4.508
11116SOL     OW35186  14.360   1.442  11.206
11116SOL    HW135187  14.384   1.515  11.148
11116SOL    HW235188  14.310   1.483  11.277
11117SOL     OW35189  10.557   9.691   7.594
11117SOL    HW135190  10.474   9.736   7.605
11117SOL    HW235191  10.535   9.611   7.546
11118SOL     OW35192   2.208   2.062   8.043
11118SOL    HW135193   2.243   2.061   7.954
11118SOL    HW235194   2.248   1.987   8.087
11119SOL     OW35195   1.686   8.367   8.042
11119SOL    HW135196   1.765   8.351   8.094
11119SOL    HW235197   1.719   8.395   7.956
11120SOL     OW35198   1.626   1.328   8.007
11120SOL    HW135199   1.690   1.295   7.944
11120SOL    HW235200   1.625   1.423   7.992
11121SOL     OW35201   5.512  13.912   0.325
11121SOL    HW135202   5.462  13.879   0.250
11121SOL    HW235203   5.481  13.860   0.399
11122SOL     OW35204   5.718   9.785  14.558
11122SOL    HW135205   5.721   9.701  14.602
11122SOL    HW235206   5.804   9.825  14.576
11123SOL     OW35207  14.640   2.526   7.694
11123SOL    HW135208  14.698   2.511   7.619
11123SOL    HW235209  14.645   2.621   7.709
11124SOL     OW35210   5.246   9.171  12.158
11124SOL    HW135211   5.332   9.210  12.172
11124SOL    HW235212   5.248   9.141  12.067
11125SOL     OW35213  14.119  12.998   5.054
11125SOL    HW135214  14.186  13.065   5.039
11125SOL    HW235215  14.080  13.022   5.138
11126SOL     OW35216   9.295   3.734   2.801
11126SOL    HW135217   9.246   3.728   2.719
11126SOL    HW235218   9.295   3.645   2.835
11127SOL     OW35219  13.783   8.783   5.700
11127SOL    HW135220  13.700   8.756   5.660
11127SOL    HW235221  13.766   8.782   5.794
11128SOL     OW35222   5.988   2.081   5.650
11128SOL    HW135223   6.022   2.073   5.561
11128SOL    HW235224   5.893   2.081   5.640
11129SOL     OW35225   3.942   8.869   0.037
11129SOL    HW135226   4.022   8.866   0.090
11129SOL    HW235227   3.920   8.962   0.032
11130SOL     OW35228   5.512   6.976   9.630
11130SOL    HW135229   5.512   7.030   9.710
11130SOL    HW235230   5.590   7.004   9.583
11131SOL     OW35231   6.709  14.726   7.393
11131SOL    HW135232   6.654  14.747   7.468
11131SOL    HW235233   6.721  14.631   7.398
11132SOL     OW35234   3.603  14.867   6.321
11132SOL    HW135235   3.599   0.010   6.415
11132SOL    HW235236   3.542  14.795   6.307
11133SOL     OW35237  11.819  12.603   4.373
11133SOL    HW135238  11.732  12.634   4.350
11133SOL    HW235239  11.879  12.664   4.329
11134SOL     OW35240   2.156   5.168   6.963
11134SOL    HW135241   2.245   5.151   6.994
11134SOL    HW235242   2.128   5.245   7.013
11135SOL     OW35243  13.331   6.754   1.931
11135SOL    HW135244  13.412   6.704   1.939
11135SOL    HW235245  13.355   6.842   1.959
11136SOL     OW35246   1.658  13.281   7.207
11136SOL    HW135247   1.571  13.305   7.177
11136SOL    HW235248   1.709  13.267   7.127
11137SOL     OW35249  13.871   0.335   8.478
11137SOL    HW135250  13.777   0.317   8.475
11137SOL    HW235251  13.906   0.292   8.401
11138SOL     OW35252   1.382   9.450  12.029
11138SOL    HW135253   1.338   9.426  11.947
11138SOL    HW235254   1.463   9.493  12.001
11139SOL     OW35255   9.684  12.601   0.569
11139SOL    HW135256   9.766  12.553   0.553
11139SOL    HW235257   9.651  12.619   0.481
11140SOL     OW35258  10.665   0.679   5.823
11140SOL    HW135259  10.623   0.602   5.860
11140SOL    HW235260  10.596   0.721   5.771
11141SOL     OW35261  11.947   5.064  11.719
11141SOL    HW135262  11.958   4.972  11.743
11141SOL    HW235263  11.864   5.090  11.760
11142SOL     OW35264   8.692   1.692   8.732
11142SOL    HW135265   8.772   1.641   8.718
11142SOL    HW235266   8.718   1.783   8.718
11143SOL     OW35267   5.147   1.031   1.499
11143SOL    HW135268   5.159   1.109   1.443
11143SOL    HW235269   5.166   0.957   1.441
11144SOL     OW35270  12.663   8.138   5.582
11144SOL    HW135271  12.716   8.099   5.651
11144SOL    HW235272  12.579   8.157   5.623
11145SOL     OW35273  12.335  14.172   6.469
11145SOL    HW135274  12.246  14.197   6.492
11145SOL    HW235275  12.351  14.091   6.517
11146SOL     OW35276   4.919  13.151   6.498
11146SOL    HW135277   4.968  13.229   6.470
11146SOL    HW235278   4.832  13.183   6.519
11147SOL     OW35279   5.779  13.662   8.936
11147SOL    HW135280   5.749  13.674   9.026
11147SOL    HW235281   5.862  13.614   8.944
11148SOL     OW35282   6.493  13.711   8.862
11148SOL    HW135283   6.583  13.681   8.859
11148SOL    HW235284   6.487  13.776   8.792
11149SOL     OW35285   6.292   3.027   2.281
11149SOL    HW135286   6.347   3.052   2.207
11149SOL    HW235287   6.255   3.109   2.312
11150SOL     OW35288   3.966  13.455   2.997
11150SOL    HW135289   4.028  13.428   3.064
11150SOL    HW235290   3.940  13.543   3.022
11151SOL     OW35291  12.241   5.879   3.159
11151SOL    HW135292  12.243   5.952   3.221
11151SOL    HW235293  12.296   5.908   3.086
11152SOL     OW35294  12.179   7.769  11.904
11152SOL    HW135295  12.247   7.828  11.934
11152SOL    HW235296  12.226   7.692  11.872
11153SOL     OW35297  10.313  13.389   8.016
11153SOL    HW135298  10.237  13.388   8.073
11153SOL    HW235299  10.352  13.475   8.030
11154SOL     OW35300   8.294   9.383  10.982
11154SOL    HW135301   8.219   9.324  10.981
11154SOL    HW235302   8.366   9.331  10.947
11155SOL     OW35303   1.359  11.258   3.755
11155SOL    HW135304   1.390  11.265   3.846
11155SOL    HW235305   1.437  11.273   3.703
11156SOL     OW35306  12.270   8.323   1.094
11156SOL    HW135307  12.270   8.414   1.123
11156SOL    HW235308  12.339   8.281   1.145
11157SOL     OW35309   7.628  11.401  13.222
11157SOL    HW135310   7.675  11.343  13.282
11157SOL    HW235311   7.536  11.392  13.247
11158SOL     OW35312   1.713   1.177   8.233
11158SOL    HW135313   1.685   1.256   8.186
11158SOL    HW235314   1.679   1.105   8.180
11159SOL     OW35315  11.869  10.250   5.314
11159SOL    HW135316  11.797  10.229   5.254
11159SOL    HW235317  11.851  10.340   5.342
11160SOL     OW35318  12.672   8.533  10.248
11160SOL    HW135319  12.703   8.623  10.244
11160SOL    HW235320  12.578   8.539  10.231
11161SOL     OW35321   2.527   9.279   0.582
11161SOL    HW135322   2.590   9.208   0.596
11161SOL    HW235323   2.444   9.243   0.612
11162SOL     OW35324  11.465  14.123  13.095
11162SOL    HW135325  11.370  14.107  13.095
11162SOL    HW235326  11.494  14.091  13.180
11163SOL     OW35327   5.467   1.623  11.219
11163SOL    HW135328   5.392   1.647  11.274
11163SOL    HW235329   5.542   1.664  11.262
11164SOL     OW35330   8.059   5.989   0.748
11164SOL    HW135331   8.070   5.988   0.653
11164SOL    HW235332   7.965   5.972   0.761
11165SOL     OW35333  10.893   0.422   2.965
11165SOL    HW135334  10.804   0.433   2.931
11165SOL    HW235335  10.908   0.499   3.020
11166SOL     OW35336   5.404  13.435   2.575
11166SOL    HW135337   5.370  13.397   2.656
11166SOL    HW235338   5.327  13.472   2.531
11167SOL     OW35339   5.528  13.231   7.744
11167SOL    HW135340   5.465  13.303   7.753
11167SOL    HW235341   5.504  13.188   7.663
11168SOL     OW35342   7.850  13.249   7.576
11168SOL    HW135343   7.876  13.274   7.487
11168SOL    HW235344   7.930  13.253   7.627
11169SOL     OW35345   2.188   0.077  12.839
11169SOL    HW135346   2.139   0.145  12.792
11169SOL    HW235347   2.162  14.868  12.798
11170SOL     OW35348  11.445   0.934   4.730
11170SOL    HW135349  11.480   0.885   4.804
11170SOL    HW235350  11.522   0.956   4.678
11171SOL     OW35351  10.886   8.615  13.826
11171SOL    HW135352  10.961   8.557  13.840
11171SOL    HW235353  10.911   8.671  13.753
11172SOL     OW35354  13.449  12.430   2.952
11172SOL    HW135355  13.532  12.385   2.936
11172SOL    HW235356  13.471  12.523   2.947
11173SOL     OW35357   5.157   0.463   3.880
11173SOL    HW135358   5.187   0.546   3.843
11173SOL    HW235359   5.125   0.413   3.805
11174SOL     OW35360  11.154  13.003   5.154
11174SOL    HW135361  11.133  12.942   5.225
11174SOL    HW235362  11.235  12.970   5.116
11175SOL     OW35363   9.114   3.352   7.396
11175SOL    HW135364   9.045   3.393   7.448
11175SOL    HW235365   9.093   3.258   7.399
11176SOL     OW35366   5.374  13.387  12.199
11176SOL    HW135367   5.385  13.449  12.271
11176SOL    HW235368   5.331  13.311  12.239
11177SOL     OW35369  11.244   3.468   3.810
11177SOL    HW135370  11.273   3.510   3.891
11177SOL    HW235371  11.232   3.376   3.833
11178SOL     OW35372   6.170   7.637   0.336
11178SOL    HW135373   6.112   7.580   0.285
11178SOL    HW235374   6.122   7.652   0.418
11179SOL     OW35375   4.220   9.815   3.331
11179SOL    HW135376   4.220   9.855   3.244
11179SOL    HW235377   4.298   9.759   3.332
11180SOL     OW35378   0.392   4.769  13.362
11180SOL    HW135379   0.437   4.766  13.446
11180SOL    HW235380   0.385   4.677  13.336
11181SOL     OW35381  10.979  13.757  12.560
11181SOL    HW135382  11.045  13.724  12.621
11181SOL    HW235383  10.896  13.749  12.608
11182SOL     OW35384  14.399  14.105  11.137
11182SOL    HW135385  14.314  14.146  11.151
11182SOL    HW235386  14.410  14.103  11.042
11183SOL     OW35387   5.351   0.555   6.180
11183SOL    HW135388   5.282   0.490   6.166
11183SOL    HW235389   5.428   0.503   6.203
11184SOL     OW35390  10.014   8.688   2.206
11184SOL    HW135391   9.920   8.672   2.197
11184SOL    HW235392  10.024   8.729   2.291
11185SOL     OW35393   6.040   8.149   2.692
11185SOL    HW135394   6.091   8.191   2.761
11185SOL    HW235395   5.986   8.085   2.738
11186SOL     OW35396  13.212   4.236   8.795
11186SOL    HW135397  13.231   4.243   8.701
11186SOL    HW235398  13.120   4.210   8.799
11187SOL     OW35399   9.583   1.326   5.308
11187SOL    HW135400   9.609   1.292   5.222
11187SOL    HW235401   9.503   1.278   5.329
11188SOL     OW35402   4.582   6.629  14.334
11188SOL    HW135403   4.603   6.594  14.420
11188SOL    HW235404   4.635   6.577  14.273
11189SOL     OW35405   0.521  12.839  14.241
11189SOL    HW135406   0.528  12.805  14.330
11189SOL    HW235407   0.601  12.810  14.197
11190SOL     OW35408  11.440   5.165   1.316
11190SOL    HW135409  11.403   5.159   1.404
11190SOL    HW235410  11.529   5.132   1.326
11191SOL     OW35411   9.864   0.065   3.224
11191SOL    HW135412   9.850   0.154   3.258
11191SOL    HW235413   9.943   0.072   3.171
11192SOL     OW35414  12.463  10.184   9.477
11192SOL    HW135415  12.466  10.135   9.395
11192SOL    HW235416  12.403  10.256   9.460
11193SOL     OW35417   9.132   0.099  12.273
11193SOL    HW135418   9.119   0.016  12.318
11193SOL    HW235419   9.045   0.125  12.243
11194SOL     OW35420  12.356   1.516   0.983
11194SOL    HW135421  12.435   1.546   1.027
11194SOL    HW235422  12.332   1.435   1.028
11195SOL     OW35423   6.911   9.245   3.511
11195SOL    HW135424   6.896   9.321   3.455
11195SOL    HW235425   6.967   9.187   3.459
11196SOL     OW35426  14.588   1.941   2.951
11196SOL    HW135427  14.509   1.892   2.974
11196SOL    HW235428  14.658   1.876   2.954
11197SOL     OW35429   2.217   0.464   8.784
11197SOL    HW135430   2.173   0.524   8.845
11197SOL    HW235431   2.242   0.389   8.838
11198SOL     OW35432   1.485  10.154   2.283
11198SOL    HW135433   1.449  10.128   2.198
11198SOL    HW235434   1.579  10.158   2.270
11199SOL     OW35435   9.708  13.695  10.125
11199SOL    HW135436   9.649  13.728  10.193
11199SOL    HW235437   9.731  13.772  10.074
11200SOL     OW35438   3.591   0.645  13.122
11200SOL    HW135439   3.555   0.660  13.034
11200SOL    HW235440   3.583   0.550  13.135
11201SOL     OW35441  12.877  13.814  14.344
11201SOL    HW135442  12.854  13.906  14.356
11201SOL    HW235443  12.808  13.778  14.290
11202SOL     OW35444  12.307   7.658  12.982
11202SOL    HW135445  12.216   7.674  12.958
11202SOL    HW235446  12.325   7.570  12.949
11203SOL     OW35447   5.865   2.879  14.584
11203SOL    HW135448   5.952   2.881  14.544
11203SOL    HW235449   5.838   2.970  14.589
11204SOL     OW35450   5.730   3.755  14.458
11204SOL    HW135451   5.724   3.669  14.416
11204SOL    HW235452   5.642   3.793  14.448
11205SOL     OW35453  11.155   3.209   7.780
11205SOL    HW135454  11.078   3.258   7.753
11205SOL    HW235455  11.149   3.127   7.730
11206SOL     OW35456  10.059   8.204  14.264
11206SOL    HW135457  10.020   8.277  14.312
11206SOL    HW235458  10.131   8.244  14.214
11207SOL     OW35459   4.638   1.763  12.956
11207SOL    HW135460   4.593   1.838  12.917
11207SOL    HW235461   4.591   1.687  12.922
11208SOL     OW35462  13.248  12.350   8.204
11208SOL    HW135463  13.338  12.375   8.187
11208SOL    HW235464  13.221  12.406   8.277
11209SOL     OW35465  11.041   9.130  11.985
11209SOL    HW135466  10.981   9.100  11.916
11209SOL    HW235467  11.119   9.158  11.938
11210SOL     OW35468  12.672   2.174   2.193
11210SOL    HW135469  12.621   2.157   2.114
11210SOL    HW235470  12.717   2.091   2.210
11211SOL     OW35471   6.437   9.708   7.877
11211SOL    HW135472   6.395   9.635   7.832
11211SOL    HW235473   6.495   9.666   7.941
11212SOL     OW35474   2.693   0.113   3.144
11212SOL    HW135475   2.783   0.144   3.136
11212SOL    HW235476   2.647   0.157   3.072
11213SOL     OW35477   1.505  12.713   8.622
11213SOL    HW135478   1.531  12.654   8.693
11213SOL    HW235479   1.411  12.700   8.612
11214SOL     OW35480   3.969  11.601   4.801
11214SOL    HW135481   3.883  11.569   4.827
11214SOL    HW235482   3.952  11.682   4.754
11215SOL     OW35483  13.259   5.004   1.739
11215SOL    HW135484  13.305   4.932   1.697
11215SOL    HW235485  13.173   5.005   1.697
11216SOL     OW35486  12.491  14.310  12.968
11216SOL    HW135487  12.552  14.237  12.977
11216SOL    HW235488  12.406  14.269  12.954
11217SOL     OW35489   6.589   7.280  14.143
11217SOL    HW135490   6.682   7.273  14.164
11217SOL    HW235491   6.548   7.310  14.224
11218SOL     OW35492   0.813   2.879   7.024
11218SOL    HW135493   0.882   2.940   6.997
11218SOL    HW235494   0.800   2.896   7.117
11219SOL     OW35495  10.316  13.623   4.568
11219SOL    HW135496  10.359  13.551   4.612
11219SOL    HW235497  10.302  13.593   4.478
11220SOL     OW35498   2.878   5.208  13.351
11220SOL    HW135499   2.965   5.244  13.331
11220SOL    HW235500   2.890   5.113  13.343
11221SOL     OW35501   0.826  10.513  13.776
11221SOL    HW135502   0.822  10.438  13.836
11221SOL    HW235503   0.814  10.475  13.689
11222SOL     OW35504   3.428   1.350  11.912
11222SOL    HW135505   3.371   1.423  11.885
11222SOL    HW235506   3.502   1.354  11.851
11223SOL     OW35507  14.794  14.158   1.541
11223SOL    HW135508  14.828  14.134   1.455
11223SOL    HW235509  14.838  14.240   1.563
11224SOL     OW35510   3.381  14.076   6.091
11224SOL    HW135511   3.432  14.002   6.059
11224SOL    HW235512   3.336  14.110   6.014
11225SOL     OW35513   0.164   7.253  10.439
11225SOL    HW135514   0.211   7.336  10.448
11225SOL    HW235515   0.110   7.263  10.360
11226SOL     OW35516  12.832  13.048   2.160
11226SOL    HW135517  12.922  13.023   2.138
11226SOL    HW235518  12.816  13.005   2.244
11227SOL     OW35519   9.432   5.302  12.360
11227SOL    HW135520   9.383   5.384  12.367
11227SOL    HW235521   9.449   5.292  12.266
11228SOL     OW35522  13.220   5.994   6.871
11228SOL    HW135523  13.280   5.927   6.839
11228SOL    HW235524  13.274   6.048   6.929
11229SOL     OW35525   8.535   6.472  12.344
11229SOL    HW135526   8.531   6.526  12.264
11229SOL    HW235527   8.446   6.475  12.379
11230SOL     OW35528   9.881   8.735   7.329
11230SOL    HW135529   9.801   8.759   7.282
11230SOL    HW235530   9.930   8.817   7.338
11231SOL     OW35531  14.837  10.365  13.113
11231SOL    HW135532  14.815  10.430  13.046
11231SOL    HW235533  14.782  10.289  13.091
11232SOL     OW35534   1.349  14.539   7.610
11232SOL    HW135535   1.346  14.627   7.646
11232SOL    HW235536   1.258  14.510   7.607
11233SOL     OW35537   4.137   4.549  10.867
11233SOL    HW135538   4.181   4.620  10.822
11233SOL    HW235539   4.204   4.482  10.879
11234SOL     OW35540  10.442   6.860  10.340
11234SOL    HW135541  10.457   6.826  10.251
11234SOL    HW235542  10.501   6.809  10.395
11235SOL     OW35543  13.865   6.510   7.370
11235SOL    HW135544  13.899   6.451   7.302
11235SOL    HW235545  13.935   6.516   7.435
11236SOL     OW35546   8.903   0.604   9.495
11236SOL    HW135547   8.978   0.642   9.539
11236SOL    HW235548   8.914   0.627   9.403
11237SOL     OW35549   3.589   0.967   9.685
11237SOL    HW135550   3.500   0.997   9.664
11237SOL    HW235551   3.646   1.021   9.629
11238SOL     OW35552  12.424  13.304   4.661
11238SOL    HW135553  12.447  13.361   4.734
11238SOL    HW235554  12.329  13.314   4.651
11239SOL     OW35555   5.745   9.754   5.567
11239SOL    HW135556   5.685   9.686   5.598
11239SOL    HW235557   5.786   9.717   5.489
11240SOL     OW35558   2.225   6.084   4.517
11240SOL    HW135559   2.238   6.169   4.558
11240SOL    HW235560   2.138   6.056   4.546
11241SOL     OW35561   7.178   3.330  14.856
11241SOL    HW135562   7.248   3.394  14.846
11241SOL    HW235563   7.098   3.382  14.854
11242SOL     OW35564   0.860  11.862   3.156
11242SOL    HW135565   0.783  11.916   3.173
11242SOL    HW235566   0.931  11.926   3.145
11243SOL     OW35567  14.866   2.548   4.680
11243SOL    HW135568   0.070   2.507   4.641
11243SOL    HW235569  14.830   2.604   4.611
11244SOL     OW35570  11.274   1.165   3.186
11244SOL    HW135571  11.228   1.242   3.154
11244SOL    HW235572  11.351   1.157   3.129
11245SOL     OW35573  14.420   7.366   4.774
11245SOL    HW135574  14.474   7.301   4.819
11245SOL    HW235575  14.330   7.337   4.789
11246SOL     OW35576   3.537  10.565  14.623
11246SOL    HW135577   3.534  10.627  14.696
11246SOL    HW235578   3.623  10.524  14.629
11247SOL     OW35579   5.645  10.078   9.373
11247SOL    HW135580   5.715  10.133   9.337
11247SOL    HW235581   5.634  10.009   9.308
11248SOL     OW35582  11.941   7.855   7.340
11248SOL    HW135583  12.019   7.899   7.308
11248SOL    HW235584  11.893   7.830   7.261
11249SOL     OW35585   1.006  12.001  10.142
11249SOL    HW135586   1.027  11.987  10.234
11249SOL    HW235587   1.070  12.066  10.112
11250SOL     OW35588  13.587  10.168  10.902
11250SOL    HW135589  13.520  10.233  10.923
11250SOL    HW235590  13.544  10.084  10.915
11251SOL     OW35591   2.975   0.424   6.715
11251SOL    HW135592   3.039   0.469   6.771
11251SOL    HW235593   2.922   0.373   6.777
11252SOL     OW35594  12.342  13.673   7.557
11252SOL    HW135595  12.314  13.705   7.643
11252SOL    HW235596  12.312  13.583   7.553
11253SOL     OW35597   0.167   1.322  10.556
11253SOL    HW135598   0.209   1.284  10.633
11253SOL    HW235599   0.176   1.255  10.488
11254SOL     OW35600   1.657   5.966   3.567
11254SOL    HW135601   1.572   5.937   3.534
11254SOL    HW235602   1.708   5.988   3.489
11255SOL     OW35603   5.346   3.813   6.273
11255SOL    HW135604   5.376   3.759   6.346
11255SOL    HW235605   5.252   3.823   6.288
11256SOL     OW35606  11.862   2.225   6.763
11256SOL    HW135607  11.823   2.152   6.715
11256SOL    HW235608  11.955   2.221   6.744
11257SOL     OW35609   0.965  14.175   5.259
11257SOL    HW135610   0.999  14.261   5.234
11257SOL    HW235611   1.041  14.129   5.294
11258SOL     OW35612   6.367   5.632  12.932
11258SOL    HW135613   6.395   5.722  12.947
11258SOL    HW235614   6.273   5.633  12.948
11259SOL     OW35615   7.600   1.888   6.138
11259SOL    HW135616   7.656   1.812   6.122
11259SOL    HW235617   7.648   1.941   6.202
11260SOL     OW35618   8.327  11.241   0.302
11260SOL    HW135619   8.387  11.285   0.242
11260SOL    HW235620   8.278  11.312   0.343
11261SOL     OW35621  11.162   5.032  13.902
11261SOL    HW135622  11.112   5.112  13.916
11261SOL    HW235623  11.217   5.024  13.980
11262SOL     OW35624  12.820  13.920   7.848
11262SOL    HW135625  12.897  13.976   7.858
11262SOL    HW235626  12.770  13.962   7.777
11263SOL     OW35627  12.434   5.002   0.508
11263SOL    HW135628  12.394   4.959   0.433
11263SOL    HW235629  12.517   5.036   0.475
11264SOL     OW35630   2.312   8.296   3.342
11264SOL    HW135631   2.254   8.256   3.278
11264SOL    HW235632   2.399   8.261   3.320
11265SOL     OW35633   5.833  11.505   7.049
11265SOL    HW135634   5.875  11.434   6.999
11265SOL    HW235635   5.890  11.518   7.125
11266SOL     OW35636  14.399   6.146   7.116
11266SOL    HW135637  14.398   6.225   7.063
11266SOL    HW235638  14.306   6.131   7.138
11267SOL     OW35639  11.608   8.808   9.167
11267SOL    HW135640  11.618   8.767   9.081
11267SOL    HW235641  11.530   8.766   9.205
11268SOL     OW35642   2.037  12.861   2.760
11268SOL    HW135643   1.963  12.878   2.701
11268SOL    HW235644   2.007  12.892   2.845
11269SOL     OW35645  10.904   9.759  13.349
11269SOL    HW135646  10.816   9.730  13.325
11269SOL    HW235647  10.949   9.772  13.265
11270SOL     OW35648  14.779   1.671   2.311
11270SOL    HW135649  14.828   1.680   2.393
11270SOL    HW235650  14.692   1.642   2.339
11271SOL     OW35651   9.357   3.582  13.723
11271SOL    HW135652   9.275   3.533  13.732
11271SOL    HW235653   9.335   3.671  13.749
11272SOL     OW35654  11.521   6.048  14.023
11272SOL    HW135655  11.470   5.982  14.070
11272SOL    HW235656  11.612   6.026  14.043
11273SOL     OW35657   8.123   4.955  12.975
11273SOL    HW135658   8.088   4.993  13.055
11273SOL    HW235659   8.212   4.988  12.970
11274SOL     OW35660   1.387  11.669   9.400
11274SOL    HW135661   1.380  11.598   9.464
11274SOL    HW235662   1.299  11.706   9.395
11275SOL     OW35663  12.736   6.568   6.668
11275SOL    HW135664  12.663   6.536   6.721
11275SOL    HW235665  12.784   6.627   6.725
11276SOL     OW35666   8.098  10.406  10.378
11276SOL    HW135667   8.087  10.362  10.462
11276SOL    HW235668   8.158  10.350  10.329
11277SOL     OW35669   8.781   1.837  11.676
11277SOL    HW135670   8.740   1.753  11.653
11277SOL    HW235671   8.717   1.903  11.650
11278SOL     OW35672   6.504   2.292  10.174
11278SOL    HW135673   6.596   2.315  10.165
11278SOL    HW235674   6.496   2.207  10.131
11279SOL     OW35675   1.062   1.784  10.086
11279SOL    HW135676   1.075   1.815  10.176
11279SOL    HW235677   1.149   1.786  10.047
11280SOL     OW35678  10.860   0.413  12.232
11280SOL    HW135679  10.941   0.450  12.268
11280SOL    HW235680  10.793   0.435  12.297
11281SOL     OW35681  14.654   6.299   8.025
11281SOL    HW135682  14.682   6.309   8.115
11281SOL    HW235683  14.601   6.378   8.008
11282SOL     OW35684   6.448  10.081   5.393
11282SOL    HW135685   6.358  10.050   5.378
11282SOL    HW235686   6.457  10.156   5.334
11283SOL     OW35687   7.825   5.599  13.421
11283SOL    HW135688   7.920   5.599  13.417
11283SOL    HW235689   7.804   5.593  13.514
11284SOL     OW35690   3.330   9.165   8.352
11284SOL    HW135691   3.412   9.121   8.330
11284SOL    HW235692   3.357   9.249   8.391
11285SOL     OW35693  11.255   2.010  13.382
11285SOL    HW135694  11.281   2.022  13.474
11285SOL    HW235695  11.328   2.048  13.332
11286SOL     OW35696   6.285   4.620   8.224
11286SOL    HW135697   6.372   4.596   8.192
11286SOL    HW235698   6.226   4.590   8.155
11287SOL     OW35699   2.265  11.467   4.423
11287SOL    HW135700   2.243  11.389   4.474
11287SOL    HW235701   2.361  11.470   4.423
11288SOL     OW35702  11.830   2.643  12.627
11288SOL    HW135703  11.757   2.691  12.587
11288SOL    HW235704  11.873   2.598  12.555
11289SOL     OW35705  14.488   2.065   2.387
11289SOL    HW135706  14.442   2.101   2.462
11289SOL    HW235707  14.477   1.970   2.396
11290SOL     OW35708  10.231   7.411  14.354
11290SOL    HW135709  10.295   7.437  14.419
11290SOL    HW235710  10.282   7.368  14.285
11291SOL     OW35711   8.153   4.546  11.887
11291SOL    HW135712   8.187   4.635  11.877
11291SOL    HW235713   8.191   4.497  11.815
11292SOL     OW35714  14.520   1.357   2.625
11292SOL    HW135715  14.483   1.323   2.707
11292SOL    HW235716  14.602   1.308   2.614
11293SOL     OW35717   2.736   7.713   6.819
11293SOL    HW135718   2.722   7.758   6.736
11293SOL    HW235719   2.648   7.691   6.850
11294SOL     OW35720   9.736   0.174  12.022
11294SOL    HW135721   9.735   0.083  12.049
11294SOL    HW235722   9.654   0.210  12.056
11295SOL     OW35723   3.954  11.254   7.336
11295SOL    HW135724   3.879  11.314   7.335
11295SOL    HW235725   4.004  11.280   7.414
11296SOL     OW35726   8.449   6.938   6.062
11296SOL    HW135727   8.529   6.899   6.097
11296SOL    HW235728   8.440   7.021   6.108
11297SOL     OW35729   6.874   6.820  13.104
11297SOL    HW135730   6.914   6.747  13.152
11297SOL    HW235731   6.910   6.899  13.145
11298SOL     OW35732  14.142   6.143   4.962
11298SOL    HW135733  14.213   6.142   4.898
11298SOL    HW235734  14.168   6.078   5.027
11299SOL     OW35735   5.169   2.257  10.529
11299SOL    HW135736   5.074   2.256  10.539
11299SOL    HW235737   5.203   2.242  10.617
11300SOL     OW35738   8.948   8.388   2.667
11300SOL    HW135739   8.991   8.467   2.700
11300SOL    HW235740   8.889   8.363   2.738
11301SOL     OW35741  11.906  10.989  10.098
11301SOL    HW135742  11.921  10.923  10.030
11301SOL    HW235743  11.947  11.068  10.064
11302SOL     OW35744   1.331   7.257  14.702
11302SOL    HW135745   1.312   7.224  14.790
11302SOL    HW235746   1.245   7.281  14.667
11303SOL     OW35747  10.262   7.375   5.277
11303SOL    HW135748  10.285   7.313   5.209
11303SOL    HW235749  10.207   7.325   5.338
11304SOL     OW35750   6.822   2.490   5.470
11304SOL    HW135751   6.817   2.508   5.376
11304SOL    HW235752   6.808   2.575   5.511
11305SOL     OW35753   0.960   8.629   3.606
11305SOL    HW135754   0.905   8.555   3.632
11305SOL    HW235755   1.031   8.631   3.670
11306SOL     OW35756   2.891   9.825  12.946
11306SOL    HW135757   2.893   9.905  12.999
11306SOL    HW235758   2.949   9.764  12.993
11307SOL     OW35759  13.672  13.441   8.551
11307SOL    HW135760  13.745  13.430   8.613
11307SOL    HW235761  13.605  13.487   8.601
11308SOL     OW35762   3.284   5.223  10.429
11308SOL    HW135763   3.287   5.309  10.470
11308SOL    HW235764   3.242   5.238  10.344
11309SOL     OW35765   5.886   4.753  13.731
11309SOL    HW135766   5.872   4.682  13.793
11309SOL    HW235767   5.807   4.753  13.676
11310SOL     OW35768  14.022   7.912  13.425
11310SOL    HW135769  14.068   7.960  13.493
11310SOL    HW235770  13.934   7.897  13.461
11311SOL     OW35771   4.538  12.819  13.961
11311SOL    HW135772   4.609  12.832  13.899
11311SOL    HW235773   4.471  12.772  13.912
11312SOL     OW35774   4.524  10.441   0.088
11312SOL    HW135775   4.518  10.522   0.138
11312SOL    HW235776   4.489  10.374   0.146
11313SOL     OW35777  13.033   5.475  14.422
11313SOL    HW135778  13.041   5.569  14.411
11313SOL    HW235779  13.099   5.452  14.487
11314SOL     OW35780   8.669   7.585   2.209
11314SOL    HW135781   8.718   7.598   2.290
11314SOL    HW235782   8.580   7.614   2.229
11315SOL     OW35783   5.312   2.724   3.048
11315SOL    HW135784   5.221   2.743   3.026
11315SOL    HW235785   5.331   2.782   3.122
11316SOL     OW35786  10.709   2.545  10.164
11316SOL    HW135787  10.666   2.630  10.178
11316SOL    HW235788  10.652   2.500  10.101
11317SOL     OW35789  12.794  10.505   9.228
11317SOL    HW135790  12.767  10.493   9.319
11317SOL    HW235791  12.724  10.464   9.177
11318SOL     OW35792   5.960   7.108   9.858
11318SOL    HW135793   5.946   7.202   9.871
11318SOL    HW235794   6.055   7.097   9.862
11319SOL     OW35795   5.694   7.854  13.887
11319SOL    HW135796   5.659   7.767  13.868
11319SOL    HW235797   5.715   7.851  13.980
11320SOL     OW35798   5.793   3.740   0.669
11320SOL    HW135799   5.873   3.770   0.624
11320SOL    HW235800   5.722   3.785   0.624
11321SOL     OW35801   6.706   0.956   8.275
11321SOL    HW135802   6.748   0.870   8.273
11321SOL    HW235803   6.665   0.965   8.189
11322SOL     OW35804   6.140   9.531   1.305
11322SOL    HW135805   6.235   9.527   1.293
11322SOL    HW235806   6.122   9.624   1.319
11323SOL     OW35807   6.918   6.702   7.482
11323SOL    HW135808   6.877   6.711   7.567
11323SOL    HW235809   6.924   6.607   7.468
11324SOL     OW35810  14.780   4.837   9.989
11324SOL    HW135811  14.868   4.816   9.960
11324SOL    HW235812  14.782   4.824  10.084
11325SOL     OW35813   6.486  11.450   8.792
11325SOL    HW135814   6.504  11.485   8.879
11325SOL    HW235815   6.474  11.357   8.805
11326SOL     OW35816  11.237   7.979   1.520
11326SOL    HW135817  11.304   8.042   1.492
11326SOL    HW235818  11.166   7.990   1.457
11327SOL     OW35819   0.604   8.587   3.140
11327SOL    HW135820   0.538   8.529   3.179
11327SOL    HW235821   0.686   8.563   3.184
11328SOL     OW35822  10.738  13.729  14.049
11328SOL    HW135823  10.754  13.820  14.025
11328SOL    HW235824  10.767  13.679  13.972
11329SOL     OW35825   0.933   3.526  14.538
11329SOL    HW135826   0.953   3.443  14.582
11329SOL    HW235827   0.838   3.535  14.543
11330SOL     OW35828   2.162   2.900   4.254
11330SOL    HW135829   2.158   2.991   4.281
11330SOL    HW235830   2.194   2.903   4.164
11331SOL     OW35831   7.609  12.513   0.135
11331SOL    HW135832   7.693  12.542   0.171
11331SOL    HW235833   7.545  12.576   0.169
11332SOL     OW35834  13.693  10.897  14.782
11332SOL    HW135835  13.738  10.861  14.706
11332SOL    HW235836  13.601  10.898  14.757
11333SOL     OW35837   9.693   2.284  12.579
11333SOL    HW135838   9.685   2.262  12.487
11333SOL    HW235839   9.608   2.265  12.617
11334SOL     OW35840   4.705  14.613   4.629
11334SOL    HW135841   4.741  14.569   4.706
11334SOL    HW235842   4.613  14.587   4.628
11335SOL     OW35843  14.527   6.750   3.975
11335SOL    HW135844  14.612   6.711   3.954
11335SOL    HW235845  14.531   6.838   3.937
11336SOL     OW35846   6.042  10.254  10.018
11336SOL    HW135847   6.050  10.256   9.923
11336SOL    HW235848   6.003  10.169  10.037
11337SOL     OW35849  12.449  10.103   5.331
11337SOL    HW135850  12.541  10.112   5.354
11337SOL    HW235851  12.404  10.165   5.387
11338SOL     OW35852  11.278   6.032   6.434
11338SOL    HW135853  11.368   6.039   6.404
11338SOL    HW235854  11.257   6.120   6.466
11339SOL     OW35855  14.871   1.195   3.198
11339SOL    HW135856   0.026   1.121   3.252
11339SOL    HW235857  14.776   1.200   3.211
11340SOL     OW35858   6.212   2.721   9.251
11340SOL    HW135859   6.128   2.723   9.205
11340SOL    HW235860   6.210   2.637   9.298
11341SOL     OW35861   5.804   3.272  13.929
11341SOL    HW135862   5.823   3.282  14.023
11341SOL    HW235863   5.875   3.317  13.885
11342SOL     OW35864   2.970   5.726   6.203
11342SOL    HW135865   2.963   5.711   6.297
11342SOL    HW235866   2.884   5.761   6.178
11343SOL     OW35867   6.556   3.285  10.100
11343SOL    HW135868   6.518   3.223  10.037
11343SOL    HW235869   6.615   3.339  10.047
11344SOL     OW35870   3.398  12.146   2.866
11344SOL    HW135871   3.434  12.216   2.810
11344SOL    HW235872   3.304  12.145   2.845
11345SOL     OW35873   5.063   3.239   3.464
11345SOL    HW135874   5.112   3.159   3.444
11345SOL    HW235875   4.998   3.244   3.395
11346SOL     OW35876   1.266  12.969  11.695
11346SOL    HW135877   1.257  13.060  11.666
11346SOL    HW235878   1.360  12.950  11.688
11347SOL     OW35879   5.106   5.013   1.422
11347SOL    HW135880   5.185   5.032   1.472
11347SOL    HW235881   5.071   4.934   1.463
11348SOL     OW35882   1.504   9.157  14.369
11348SOL    HW135883   1.546   9.191  14.448
11348SOL    HW235884   1.530   9.218  14.300
11349SOL     OW35885  13.006  14.539   3.859
11349SOL    HW135886  13.023  14.496   3.943
11349SOL    HW235887  12.911  14.552   3.858
11350SOL     OW35888  10.746  11.939   6.548
11350SOL    HW135889  10.754  11.959   6.641
11350SOL    HW235890  10.828  11.893   6.526
11351SOL     OW35891   7.804   3.841   6.382
11351SOL    HW135892   7.728   3.851   6.324
11351SOL    HW235893   7.783   3.894   6.459
11352SOL     OW35894  13.614   6.227  10.113
11352SOL    HW135895  13.709   6.224  10.104
11352SOL    HW235896  13.583   6.268  10.032
11353SOL     OW35897   4.180   1.279  12.466
11353SOL    HW135898   4.141   1.212  12.409
11353SOL    HW235899   4.261   1.239  12.498
11354SOL     OW35900   9.714   7.474   3.849
11354SOL    HW135901   9.632   7.456   3.894
11354SOL    HW235902   9.707   7.565   3.822
11355SOL     OW35903   0.478  10.268   7.403
11355SOL    HW135904   0.439  10.289   7.318
11355SOL    HW235905   0.404  10.266   7.464
11356SOL     OW35906  14.806   8.622  12.495
11356SOL    HW135907  14.755   8.629  12.415
11356SOL    HW235908  14.743   8.640  12.565
11357SOL     OW35909   0.941   9.794  10.924
11357SOL    HW135910   0.906   9.863  10.868
11357SOL    HW235911   0.866   9.738  10.942
11358SOL     OW35912   2.779   5.850  10.829
11358SOL    HW135913   2.785   5.927  10.885
11358SOL    HW235914   2.753   5.885  10.743
11359SOL     OW35915  11.674  12.629  10.834
11359SOL    HW135916  11.578  12.632  10.829
11359SOL    HW235917  11.701  12.720  10.840
11360SOL     OW35918  14.120   0.474   9.305
11360SOL    HW135919  14.133   0.534   9.232
11360SOL    HW235920  14.138   0.387   9.268
11361SOL     OW35921   9.435  14.185   2.495
11361SOL    HW135922   9.355  14.199   2.444
11361SOL    HW235923   9.404  14.160   2.582
11362SOL     OW35924   3.073  13.012  14.084
11362SOL    HW135925   3.151  13.057  14.050
11362SOL    HW235926   3.002  13.075  14.072
11363SOL     OW35927   6.805   6.832   2.217
11363SOL    HW135928   6.806   6.912   2.270
11363SOL    HW235929   6.718   6.795   2.232
11364SOL     OW35930   7.262  12.901   2.112
11364SOL    HW135931   7.311  12.929   2.034
11364SOL    HW235932   7.171  12.894   2.081
11365SOL     OW35933  13.448   5.884   9.069
11365SOL    HW135934  13.533   5.925   9.059
11365SOL    HW235935  13.392   5.927   9.004
11366SOL     OW35936   8.481   8.893   7.045
11366SOL    HW135937   8.480   8.987   7.026
11366SOL    HW235938   8.569   8.876   7.077
11367SOL     OW35939   1.375  14.743  13.811
11367SOL    HW135940   1.308  14.762  13.746
11367SOL    HW235941   1.452  14.719  13.759
11368SOL     OW35942   3.587  14.540   0.057
11368SOL    HW135943   3.538  14.621   0.068
11368SOL    HW235944   3.644  14.556  14.856
11369SOL     OW35945  11.343   4.474   4.000
11369SOL    HW135946  11.356   4.427   4.083
11369SOL    HW235947  11.322   4.563   4.026
11370SOL     OW35948   0.139  11.702   0.773
11370SOL    HW135949   0.197  11.756   0.720
11370SOL    HW235950   0.183  11.617   0.777
11371SOL     OW35951   2.214   9.875   8.079
11371SOL    HW135952   2.218   9.862   8.173
11371SOL    HW235953   2.125   9.907   8.063
11372SOL     OW35954   4.921  14.612   2.937
11372SOL    HW135955   4.949  14.702   2.916
11372SOL    HW235956   4.916  14.610   3.032
11373SOL     OW35957   9.400  13.348   4.156
11373SOL    HW135958   9.414  13.333   4.062
11373SOL    HW235959   9.400  13.260   4.194
11374SOL     OW35960   5.255  10.550   4.984
11374SOL    HW135961   5.288  10.520   4.899
11374SOL    HW235962   5.164  10.576   4.966
11375SOL     OW35963  13.977   8.813   9.040
11375SOL    HW135964  13.913   8.831   8.971
11375SOL    HW235965  14.039   8.885   9.034
11376SOL     OW35966   5.479  13.559  10.339
11376SOL    HW135967   5.447  13.470  10.326
11376SOL    HW235968   5.401  13.612  10.353
11377SOL     OW35969  10.938   2.433   5.877
11377SOL    HW135970  10.996   2.464   5.807
11377SOL    HW235971  10.890   2.511   5.904
11378SOL     OW35972   7.428  11.151   3.549
11378SOL    HW135973   7.512  11.195   3.552
11378SOL    HW235974   7.375  11.204   3.489
11379SOL     OW35975  12.757  12.784   0.212
11379SOL    HW135976  12.803  12.791   0.128
11379SOL    HW235977  12.703  12.863   0.217
11380SOL     OW35978   4.550   8.531   0.718
11380SOL    HW135979   4.503   8.513   0.799
11380SOL    HW235980   4.625   8.471   0.720
11381SOL     OW35981   3.274  10.949   1.678
11381SOL    HW135982   3.200  11.009   1.671
11381SOL    HW235983   3.351  11.005   1.668
11382SOL     OW35984   0.266  14.113   9.811
11382SOL    HW135985   0.245  14.180   9.746
11382SOL    HW235986   0.183  14.069   9.829
11383SOL     OW35987   2.830   1.203  12.503
11383SOL    HW135988   2.763   1.266  12.530
11383SOL    HW235989   2.822   1.200  12.407
11384SOL     OW35990   2.455  11.574  13.725
11384SOL    HW135991   2.447  11.609  13.814
11384SOL    HW235992   2.506  11.494  13.735
11385SOL     OW35993   1.555  11.833   3.747
11385SOL    HW135994   1.611  11.786   3.686
11385SOL    HW235995   1.592  11.921   3.751
11386SOL     OW35996   6.594   7.828  11.841
11386SOL    HW135997   6.540   7.831  11.762
11386SOL    HW235998   6.629   7.739  11.843
11387SOL     OW35999   1.296   6.028  12.648
11387SOL    HW136000   1.324   5.956  12.704
11387SOL    HW236001   1.267   6.096  12.709
11388SOL     OW36002   1.168   6.050   0.990
11388SOL    HW136003   1.148   6.097   0.909
11388SOL    HW236004   1.093   6.067   1.047
11389SOL     OW36005   1.557   5.888   1.091
11389SOL    HW136006   1.588   5.892   1.181
11389SOL    HW236007   1.496   5.814   1.090
11390SOL     OW36008  11.966  14.165  12.936
11390SOL    HW136009  11.934  14.161  12.845
11390SOL    HW236010  11.888  14.147  12.989
11391SOL     OW36011   2.740   5.689   1.161
11391SOL    HW136012   2.650   5.657   1.167
11391SOL    HW236013   2.761   5.717   1.250
11392SOL     OW36014   3.472   2.883   3.307
11392SOL    HW136015   3.535   2.811   3.316
11392SOL    HW236016   3.526   2.960   3.289
11393SOL     OW36017  12.746  14.782   3.852
11393SOL    HW136018  12.661  14.818   3.876
11393SOL    HW236019  12.729  14.689   3.836
11394SOL     OW36020   1.074   1.253  11.724
11394SOL    HW136021   1.095   1.257  11.817
11394SOL    HW236022   0.982   1.279  11.719
11395SOL     OW36023   0.632   2.686   6.965
11395SOL    HW136024   0.617   2.618   7.031
11395SOL    HW236025   0.703   2.739   7.001
11396SOL     OW36026  11.538  13.776  14.657
11396SOL    HW136027  11.608  13.801  14.597
11396SOL    HW236028  11.523  13.683  14.639
11397SOL     OW36029  10.967  13.633   7.338
11397SOL    HW136030  10.959  13.670   7.250
11397SOL    HW236031  10.993  13.542   7.325
11398SOL     OW36032   5.294   6.266   5.542
11398SOL    HW136033   5.316   6.323   5.615
11398SOL    HW236034   5.203   6.287   5.521
11399SOL     OW36035   4.434   8.401  11.286
11399SOL    HW136036   4.374   8.471  11.311
11399SOL    HW236037   4.521   8.435  11.307
11400SOL     OW36038  12.440   6.968  14.252
11400SOL    HW136039  12.382   6.894  14.270
11400SOL    HW236040  12.493   6.977  14.331
11401SOL     OW36041   2.543   9.653  12.971
11401SOL    HW136042   2.447   9.654  12.970
11401SOL    HW236043   2.568   9.693  12.888
11402SOL     OW36044   9.758   6.207   3.634
11402SOL    HW136045   9.709   6.148   3.577
11402SOL    HW236046   9.714   6.291   3.626
11403SOL     OW36047  12.302   2.443   5.110
11403SOL    HW136048  12.256   2.522   5.139
11403SOL    HW236049  12.233   2.379   5.094
11404SOL     OW36050   4.087   7.488   4.750
11404SOL    HW136051   4.076   7.536   4.832
11404SOL    HW236052   4.064   7.397   4.771
11405SOL     OW36053   2.430   6.050  10.175
11405SOL    HW136054   2.423   6.125  10.117
11405SOL    HW236055   2.426   5.974  10.116
11406SOL     OW36056   1.895  10.839   7.480
11406SOL    HW136057   1.814  10.849   7.429
11406SOL    HW236058   1.954  10.905   7.444
11407SOL     OW36059  12.736   8.858   2.772
11407SOL    HW136060  12.755   8.765   2.758
11407SOL    HW236061  12.812   8.904   2.737
11408SOL     OW36062   5.912  12.994   3.211
11408SOL    HW136063   5.870  13.079   3.198
11408SOL    HW236064   5.854  12.948   3.272
11409SOL     OW36065   7.691   7.378   8.256
11409SOL    HW136066   7.750   7.359   8.329
11409SOL    HW236067   7.749   7.400   8.183
11410SOL     OW36068   0.141  11.432   8.834
11410SOL    HW136069   0.167  11.387   8.915
11410SOL    HW236070   0.174  11.376   8.764
11411SOL     OW36071  11.263   1.585   6.646
11411SOL    HW136072  11.335   1.637   6.610
11411SOL    HW236073  11.185   1.638   6.628
11412SOL     OW36074  10.983   8.618  11.068
11412SOL    HW136075  11.040   8.544  11.046
11412SOL    HW236076  11.026   8.694  11.028
11413SOL     OW36077   0.064  10.601   4.851
11413SOL    HW136078   0.150  10.643   4.846
11413SOL    HW236079   0.079  10.512   4.818
11414SOL     OW36080  10.786   6.539   1.456
11414SOL    HW136081  10.798   6.570   1.366
11414SOL    HW236082  10.861   6.576   1.503
11415SOL     OW36083  12.053   9.865   5.937
11415SOL    HW136084  12.123   9.833   5.881
11415SOL    HW236085  12.093   9.876   6.023
11416SOL     OW36086   2.136   3.565   9.000
11416SOL    HW136087   2.117   3.597   8.912
11416SOL    HW236088   2.051   3.564   9.044
11417SOL     OW36089   6.938   9.314   8.782
11417SOL    HW136090   6.995   9.265   8.722
11417SOL    HW236091   6.992   9.389   8.809
11418SOL     OW36092   7.236   6.644   1.013
11418SOL    HW136093   7.185   6.673   1.089
11418SOL    HW236094   7.236   6.548   1.019
11419SOL     OW36095   1.159   4.995   9.557
11419SOL    HW136096   1.078   5.010   9.509
11419SOL    HW236097   1.152   4.905   9.588
11420SOL     OW36098   2.120   2.343  13.418
11420SOL    HW136099   2.043   2.393  13.446
11420SOL    HW236100   2.187   2.409  13.404
11421SOL     OW36101   3.197  10.419   1.270
11421SOL    HW136102   3.113  10.454   1.239
11421SOL    HW236103   3.254  10.495   1.275
11422SOL     OW36104   1.672   7.798   7.090
11422SOL    HW136105   1.755   7.788   7.042
11422SOL    HW236106   1.698   7.835   7.174
11423SOL     OW36107  14.095  14.223   3.049
11423SOL    HW136108  14.167  14.260   2.997
11423SOL    HW236109  14.132  14.146   3.092
11424SOL     OW36110  12.024   3.989   4.312
11424SOL    HW136111  11.968   3.912   4.320
11424SOL    HW236112  11.994   4.032   4.232
11425SOL     OW36113  10.039   4.698   5.573
11425SOL    HW136114  10.074   4.622   5.526
11425SOL    HW236115  10.055   4.772   5.513
11426SOL     OW36116  14.868   6.126   6.680
11426SOL    HW136117   0.057   6.121   6.753
11426SOL    HW236118  14.806   6.195   6.706
11427SOL     OW36119  14.504   1.986   6.980
11427SOL    HW136120  14.466   2.029   7.057
11427SOL    HW236121  14.598   2.000   6.989
11428SOL     OW36122  14.009  12.273   7.681
11428SOL    HW136123  14.024  12.240   7.770
11428SOL    HW236124  13.938  12.220   7.647
11429SOL     OW36125   7.578   0.022  12.633
11429SOL    HW136126   7.608   0.102  12.676
11429SOL    HW236127   7.639   0.009  12.560
11430SOL     OW36128   3.855  12.477  10.034
11430SOL    HW136129   3.790  12.480   9.964
11430SOL    HW236130   3.876  12.569  10.051
11431SOL     OW36131   1.497   3.127   3.652
11431SOL    HW136132   1.517   3.034   3.658
11431SOL    HW236133   1.554   3.159   3.582
11432SOL     OW36134   4.435   6.004   5.707
11432SOL    HW136135   4.428   5.951   5.786
11432SOL    HW236136   4.371   6.074   5.719
11433SOL     OW36137  11.976  13.200   5.160
11433SOL    HW136138  11.929  13.152   5.091
11433SOL    HW236139  11.929  13.178   5.241
11434SOL     OW36140  14.290   9.382  12.092
11434SOL    HW136141  14.324   9.320  12.028
11434SOL    HW236142  14.223   9.334  12.140
11435SOL     OW36143   3.361   1.025   0.118
11435SOL    HW136144   3.329   1.109   0.151
11435SOL    HW236145   3.449   1.044   0.087
11436SOL     OW36146   4.942   8.099   6.966
11436SOL    HW136147   4.878   8.067   7.030
11436SOL    HW236148   4.901   8.176   6.928
11437SOL     OW36149   6.314   6.597   3.931
11437SOL    HW136150   6.404   6.622   3.950
11437SOL    HW236151   6.261   6.658   3.983
11438SOL     OW36152   5.861  12.454  12.388
11438SOL    HW136153   5.896  12.451  12.299
11438SOL    HW236154   5.848  12.362  12.412
11439SOL     OW36155  14.773  11.892   6.547
11439SOL    HW136156  14.681  11.901   6.574
11439SOL    HW236157  14.775  11.814   6.493
11440SOL     OW36158  14.365  11.920   0.358
11440SOL    HW136159  14.428  11.850   0.376
11440SOL    HW236160  14.281  11.885   0.389
11441SOL     OW36161  11.131  11.705  11.282
11441SOL    HW136162  11.050  11.679  11.238
11441SOL    HW236163  11.200  11.664  11.230
11442SOL     OW36164   3.416   8.286  11.817
11442SOL    HW136165   3.475   8.211  11.818
11442SOL    HW236166   3.457   8.349  11.877
11443SOL     OW36167   1.392   2.419  13.076
11443SOL    HW136168   1.402   2.369  12.996
11443SOL    HW236169   1.351   2.501  13.049
11444SOL     OW36170   7.380  11.643   1.347
11444SOL    HW136171   7.444  11.714   1.348
11444SOL    HW236172   7.342  11.644   1.435
11445SOL     OW36173  10.424   2.815   4.900
11445SOL    HW136174  10.464   2.746   4.846
11445SOL    HW236175  10.473   2.812   4.982
11446SOL     OW36176  10.717  11.375   5.944
11446SOL    HW136177  10.627  11.403   5.963
11446SOL    HW236178  10.736  11.414   5.859
11447SOL     OW36179  12.539  14.027  11.050
11447SOL    HW136180  12.522  13.938  11.079
11447SOL    HW236181  12.559  14.019  10.957
11448SOL     OW36182   7.821  13.270   5.515
11448SOL    HW136183   7.795  13.184   5.483
11448SOL    HW236184   7.778  13.332   5.455
11449SOL     OW36185  10.978   3.497   1.098
11449SOL    HW136186  10.996   3.571   1.040
11449SOL    HW236187  11.006   3.528   1.185
11450SOL     OW36188   9.502   5.031   0.468
11450SOL    HW136189   9.551   5.028   0.386
11450SOL    HW236190   9.545   4.967   0.525
11451SOL     OW36191   2.471   0.053   1.163
11451SOL    HW136192   2.528   0.128   1.143
11451SOL    HW236193   2.410   0.087   1.229
11452SOL     OW36194   6.942  12.457   4.209
11452SOL    HW136195   6.887  12.470   4.132
11452SOL    HW236196   6.917  12.370   4.242
11453SOL     OW36197  12.587  10.247   7.326
11453SOL    HW136198  12.492  10.234   7.337
11453SOL    HW236199  12.613  10.179   7.264
11454SOL     OW36200   5.636   6.008   2.594
11454SOL    HW136201   5.704   6.039   2.655
11454SOL    HW236202   5.649   6.061   2.515
11455SOL     OW36203  14.859   6.489   5.318
11455SOL    HW136204   0.045   6.564   5.320
11455SOL    HW236205  14.836   6.473   5.409
11456SOL     OW36206   4.784  10.395   8.852
11456SOL    HW136207   4.785  10.332   8.780
11456SOL    HW236208   4.707  10.449   8.837
11457SOL     OW36209  14.248   9.322  13.580
11457SOL    HW136210  14.227   9.256  13.647
11457SOL    HW236211  14.223   9.405  13.620
11458SOL     OW36212   8.969   9.217   4.624
11458SOL    HW136213   8.974   9.193   4.716
11458SOL    HW236214   9.030   9.157   4.580
11459SOL     OW36215   6.886  11.445   6.188
11459SOL    HW136216   6.900  11.448   6.093
11459SOL    HW236217   6.922  11.527   6.221
11460SOL     OW36218   5.649   0.224  11.815
11460SOL    HW136219   5.709   0.206  11.741
11460SOL    HW236220   5.706   0.223  11.892
11461SOL     OW36221  11.404   0.063  10.346
11461SOL    HW136222  11.358   0.147  10.335
11461SOL    HW236223  11.338   0.004  10.383
11462SOL     OW36224   2.317   5.229   4.606
11462SOL    HW136225   2.369   5.237   4.526
11462SOL    HW236226   2.371   5.178   4.665
11463SOL     OW36227  14.857   3.184   8.407
11463SOL    HW136228  14.767   3.182   8.440
11463SOL    HW236229   0.038   3.164   8.484
11464SOL     OW36230  13.371   9.793  10.215
11464SOL    HW136231  13.348   9.886  10.220
11464SOL    HW236232  13.340   9.765  10.129
11465SOL     OW36233  10.301   2.246   4.752
11465SOL    HW136234  10.236   2.213   4.689
11465SOL    HW236235  10.385   2.230   4.709
11466SOL     OW36236   3.542   3.882   3.849
11466SOL    HW136237   3.620   3.874   3.905
11466SOL    HW236238   3.479   3.820   3.886
11467SOL     OW36239   1.633   9.827   6.846
11467SOL    HW136240   1.579   9.805   6.770
11467SOL    HW236241   1.669   9.743   6.876
11468SOL     OW36242   0.452   4.812   1.004
11468SOL    HW136243   0.473   4.762   1.083
11468SOL    HW236244   0.535   4.818   0.957
11469SOL     OW36245   3.887  11.805   0.822
11469SOL    HW136246   3.824  11.835   0.888
11469SOL    HW236247   3.835  11.755   0.760
11470SOL     OW36248  12.555   8.553   0.882
11470SOL    HW136249  12.615   8.575   0.953
11470SOL    HW236250  12.579   8.464   0.856
11471SOL     OW36251   7.846   7.407   2.259
11471SOL    HW136252   7.838   7.445   2.171
11471SOL    HW236253   7.777   7.342   2.263
11472SOL     OW36254   8.823   1.178   7.687
11472SOL    HW136255   8.762   1.113   7.724
11472SOL    HW236256   8.909   1.136   7.694
11473SOL     OW36257   0.909   3.978  12.907
11473SOL    HW136258   0.841   3.997  12.971
11473SOL    HW236259   0.862   3.956  12.827
11474SOL     OW36260   8.029  11.858   2.721
11474SOL    HW136261   8.102  11.904   2.679
11474SOL    HW236262   7.986  11.924   2.774
11475SOL     OW36263   7.460   1.519  14.350
11475SOL    HW136264   7.488   1.474  14.430
11475SOL    HW236265   7.529   1.583  14.333
11476SOL     OW36266   1.631   8.340   2.126
11476SOL    HW136267   1.708   8.324   2.072
11476SOL    HW236268   1.664   8.342   2.216
11477SOL     OW36269  14.345   7.569   7.011
11477SOL    HW136270  14.256   7.576   6.976
11477SOL    HW236271  14.334   7.522   7.094
11478SOL     OW36272   7.078  13.278   4.110
11478SOL    HW136273   6.989  13.262   4.142
11478SOL    HW236274   7.072  13.258   4.016
11479SOL     OW36275  12.330   6.595   2.679
11479SOL    HW136276  12.306   6.569   2.768
11479SOL    HW236277  12.381   6.675   2.690
11480SOL     OW36278   8.561   3.494   5.768
11480SOL    HW136279   8.512   3.412   5.766
11480SOL    HW236280   8.638   3.477   5.713
11481SOL     OW36281  12.151   0.668  11.268
11481SOL    HW136282  12.164   0.613  11.191
11481SOL    HW236283  12.124   0.752  11.233
11482SOL     OW36284   7.737   9.728  10.807
11482SOL    HW136285   7.794   9.802  10.827
11482SOL    HW236286   7.655   9.748  10.852
11483SOL     OW36287   2.056   1.576  14.115
11483SOL    HW136288   2.052   1.480  14.118
11483SOL    HW236289   1.972   1.602  14.077
11484SOL     OW36290  14.678   3.018   0.004
11484SOL    HW136291  14.689   2.994   0.096
11484SOL    HW236292  14.696   3.112   0.001
11485SOL     OW36293   6.396   0.741   1.843
11485SOL    HW136294   6.398   0.811   1.779
11485SOL    HW236295   6.320   0.759   1.898
11486SOL     OW36296  11.010  14.864   5.106
11486SOL    HW136297  11.045   0.080   5.108
11486SOL    HW236298  11.084  14.809   5.135
11487SOL     OW36299  12.901  13.892   0.973
11487SOL    HW136300  12.824  13.882   0.917
11487SOL    HW236301  12.973  13.858   0.920
11488SOL     OW36302   3.469   7.839   8.531
11488SOL    HW136303   3.456   7.748   8.504
11488SOL    HW236304   3.537   7.872   8.472
11489SOL     OW36305  10.567  10.760   0.529
11489SOL    HW136306  10.548  10.673   0.566
11489SOL    HW236307  10.509  10.766   0.453
11490SOL     OW36308   8.992   1.182   4.901
11490SOL    HW136309   9.084   1.207   4.898
11490SOL    HW236310   8.947   1.261   4.933
11491SOL     OW36311   2.998   2.585   5.614
11491SOL    HW136312   3.060   2.513   5.628
11491SOL    HW236313   2.928   2.569   5.676
11492SOL     OW36314   1.153   7.126   9.543
11492SOL    HW136315   1.085   7.070   9.581
11492SOL    HW236316   1.107   7.180   9.479
11493SOL     OW36317  13.577   9.000  11.877
11493SOL    HW136318  13.546   8.970  11.791
11493SOL    HW236319  13.658   9.048  11.858
11494SOL     OW36320   4.904   3.785  13.895
11494SOL    HW136321   4.867   3.822  13.815
11494SOL    HW236322   4.838   3.802  13.962
11495SOL     OW36323   2.395  14.106   9.137
11495SOL    HW136324   2.433  14.093   9.224
11495SOL    HW236325   2.449  14.051   9.079
11496SOL     OW36326   7.824   9.580   9.050
11496SOL    HW136327   7.743   9.532   9.031
11496SOL    HW236328   7.869   9.587   8.965
11497SOL     OW36329   7.569   6.637   0.760
11497SOL    HW136330   7.616   6.556   0.780
11497SOL    HW236331   7.617   6.675   0.686
11498SOL     OW36332   0.238  11.100   3.370
11498SOL    HW136333   0.268  11.009   3.374
11498SOL    HW236334   0.312  11.149   3.336
11499SOL     OW36335  12.026  14.577  10.557
11499SOL    HW136336  12.065  14.512  10.615
11499SOL    HW236337  12.096  14.640  10.542
11500SOL     OW36338   0.217   2.597   0.144
11500SOL    HW136339   0.236   2.529   0.209
11500SOL    HW236340   0.134   2.570   0.105
11501SOL     OW36341   3.218   8.143   5.638
11501SOL    HW136342   3.157   8.071   5.655
11501SOL    HW236343   3.295   8.123   5.692
11502SOL     OW36344   6.014   7.996  10.495
11502SOL    HW136345   6.109   7.987  10.487
11502SOL    HW236346   6.001   8.041  10.578
11503SOL     OW36347   0.542   9.862  10.246
11503SOL    HW136348   0.635   9.861  10.269
11503SOL    HW236349   0.502   9.921  10.311
11504SOL     OW36350   5.681  14.474   5.736
11504SOL    HW136351   5.652  14.508   5.651
11504SOL    HW236352   5.716  14.387   5.716
11505SOL     OW36353   8.937   7.236   7.219
11505SOL    HW136354   8.853   7.264   7.254
11505SOL    HW236355   8.933   7.258   7.126
11506SOL     OW36356  12.688  14.582  10.045
11506SOL    HW136357  12.666  14.652   9.984
11506SOL    HW236358  12.664  14.616  10.131
11507SOL     OW36359  14.768   7.352   0.445
11507SOL    HW136360  14.736   7.442   0.448
11507SOL    HW236361  14.697   7.301   0.483
11508SOL     OW36362  10.789   6.336   7.844
11508SOL    HW136363  10.751   6.413   7.886
11508SOL    HW236364  10.838   6.371   7.769
11509SOL     OW36365  14.499   9.680   8.622
11509SOL    HW136366  14.474   9.588   8.612
11509SOL    HW236367  14.436   9.728   8.569
11510SOL     OW36368  12.270  11.408   7.433
11510SOL    HW136369  12.201  11.474   7.448
11510SOL    HW236370  12.296  11.380   7.520
11511SOL     OW36371   5.257  12.811  14.399
11511SOL    HW136372   5.255  12.720  14.429
11511SOL    HW236373   5.237  12.806  14.306
11512SOL     OW36374   7.572   6.070   0.720
11512SOL    HW136375   7.645   6.038   0.667
11512SOL    HW236376   7.538   5.991   0.763
11513SOL     OW36377   6.005  10.174  14.411
11513SOL    HW136378   6.018  10.173  14.316
11513SOL    HW236379   5.913  10.198  14.423
11514SOL     OW36380   0.597  13.963   3.434
11514SOL    HW136381   0.661  13.962   3.363
11514SOL    HW236382   0.589  14.056   3.457
11515SOL     OW36383  13.076   9.944   1.113
11515SOL    HW136384  13.153   9.915   1.161
11515SOL    HW236385  13.002   9.919   1.169
11516SOL     OW36386   7.226   5.041   2.073
11516SOL    HW136387   7.131   5.053   2.082
11516SOL    HW236388   7.239   4.946   2.084
11517SOL     OW36389  10.298  11.982   1.306
11517SOL    HW136390  10.276  11.900   1.262
11517SOL    HW236391  10.387  12.002   1.276
11518SOL     OW36392   9.421   8.180   6.944
11518SOL    HW136393   9.404   8.265   6.986
11518SOL    HW236394   9.476   8.133   7.006
11519SOL     OW36395  13.854   0.147   3.356
11519SOL    HW136396  13.812   0.062   3.369
11519SOL    HW236397  13.813   0.182   3.277
11520SOL     OW36398   7.329   3.965   1.832
11520SOL    HW136399   7.353   3.955   1.924
11520SOL    HW236400   7.389   4.032   1.798
11521SOL     OW36401   9.205  11.190   3.944
11521SOL    HW136402   9.213  11.237   4.027
11521SOL    HW236403   9.149  11.246   3.891
11522SOL     OW36404   2.683   3.357   9.578
11522SOL    HW136405   2.619   3.287   9.594
11522SOL    HW236406   2.668   3.383   9.487
11523SOL     OW36407  14.178  10.715   1.165
11523SOL    HW136408  14.257  10.726   1.218
11523SOL    HW236409  14.118  10.782   1.196
11524SOL     OW36410  12.457   0.396   8.116
11524SOL    HW136411  12.521   0.325   8.110
11524SOL    HW236412  12.380   0.355   8.156
11525SOL     OW36413  10.219   0.946  13.208
11525SOL    HW136414  10.238   0.895  13.128
11525SOL    HW236415  10.262   1.030  13.194
11526SOL     OW36416  11.104   7.677  11.207
11526SOL    HW136417  11.099   7.708  11.298
11526SOL    HW236418  11.160   7.741  11.163
11527SOL     OW36419  11.625  12.026   1.362
11527SOL    HW136420  11.599  12.113   1.333
11527SOL    HW236421  11.680  12.042   1.439
11528SOL     OW36422   4.284   0.782  10.254
11528SOL    HW136423   4.192   0.754  10.259
11528SOL    HW236424   4.319   0.735  10.179
11529SOL     OW36425  10.116  13.778   7.842
11529SOL    HW136426  10.071  13.847   7.891
11529SOL    HW236427  10.079  13.783   7.754
11530SOL     OW36428  10.889  11.761   7.097
11530SOL    HW136429  10.812  11.708   7.118
11530SOL    HW236430  10.936  11.709   7.032
11531SOL     OW36431  10.403   0.716   6.394
11531SOL    HW136432  10.444   0.767   6.324
11531SOL    HW236433  10.397   0.627   6.359
11532SOL     OW36434   3.414   5.447   0.005
11532SOL    HW136435   3.383   5.531  14.845
11532SOL    HW236436   3.501   5.437  14.840
11533SOL     OW36437  14.437  12.594  11.325
11533SOL    HW136438  14.361  12.650  11.307
11533SOL    HW236439  14.468  12.567  11.239
11534SOL     OW36440   6.635  12.622   9.941
11534SOL    HW136441   6.672  12.704   9.907
11534SOL    HW236442   6.541  12.634   9.936
11535SOL     OW36443  10.373  11.617   0.783
11535SOL    HW136444  10.349  11.704   0.816
11535SOL    HW236445  10.467  11.624   0.765
11536SOL     OW36446   9.819   5.507   0.975
11536SOL    HW136447   9.808   5.590   0.928
11536SOL    HW236448   9.907   5.511   1.013
11537SOL     OW36449  11.342  11.389   1.227
11537SOL    HW136450  11.344  11.475   1.270
11537SOL    HW236451  11.432  11.357   1.231
11538SOL     OW36452  11.500  14.143  10.168
11538SOL    HW136453  11.487  14.221  10.114
11538SOL    HW236454  11.499  14.175  10.258
11539SOL     OW36455   0.189   4.667   0.461
11539SOL    HW136456   0.221   4.752   0.432
11539SOL    HW236457   0.258   4.606   0.437
11540SOL     OW36458  14.113   1.181  12.758
11540SOL    HW136459  14.185   1.169  12.819
11540SOL    HW236460  14.133   1.124  12.684
11541SOL     OW36461   5.233  11.758   7.568
11541SOL    HW136462   5.177  11.758   7.491
11541SOL    HW236463   5.321  11.741   7.533
11542SOL     OW36464   0.819  14.724   2.453
11542SOL    HW136465   0.896  14.749   2.503
11542SOL    HW236466   0.789  14.643   2.493
11543SOL     OW36467   2.458   2.594  11.030
11543SOL    HW136468   2.497   2.631  10.951
11543SOL    HW236469   2.426   2.508  11.003
11544SOL     OW36470   9.085  12.623   7.429
11544SOL    HW136471   9.174  12.651   7.450
11544SOL    HW236472   9.090  12.595   7.338
11545SOL     OW36473  10.649   3.825   3.991
11545SOL    HW136474  10.559   3.854   4.008
11545SOL    HW236475  10.660   3.834   3.897
11546SOL     OW36476   6.401  12.046   9.954
11546SOL    HW136477   6.318  12.002   9.935
11546SOL    HW236478   6.468  11.983   9.927
11547SOL     OW36479  13.906   6.366   6.668
11547SOL    HW136480  13.873   6.297   6.726
11547SOL    HW236481  13.827   6.413   6.640
11548SOL     OW36482  12.376   7.939   5.968
11548SOL    HW136483  12.291   7.959   5.928
11548SOL    HW236484  12.393   8.013   6.026
11549SOL     OW36485   7.041  12.473   4.526
11549SOL    HW136486   6.968  12.442   4.580
11549SOL    HW236487   7.028  12.431   4.441
11550SOL     OW36488   2.269   0.435   2.411
11550SOL    HW136489   2.336   0.402   2.472
11550SOL    HW236490   2.295   0.400   2.326
11551SOL     OW36491   5.872   0.079  12.397
11551SOL    HW136492   5.792   0.121  12.365
11551SOL    HW236493   5.914   0.145  12.453
11552SOL     OW36494  14.753   5.249   0.431
11552SOL    HW136495  14.702   5.168   0.430
11552SOL    HW236496  14.710   5.304   0.496
11553SOL     OW36497   6.333   3.973   4.170
11553SOL    HW136498   6.376   4.033   4.110
11553SOL    HW236499   6.394   3.900   4.179
11554SOL     OW36500   3.112   3.022   7.382
11554SOL    HW136501   3.060   3.042   7.304
11554SOL    HW236502   3.163   2.945   7.358
11555SOL     OW36503  11.483   3.815   4.173
11555SOL    HW136504  11.553   3.858   4.222
11555SOL    HW236505  11.507   3.824   4.081
11556SOL     OW36506   4.612  11.117   2.476
11556SOL    HW136507   4.672  11.047   2.451
11556SOL    HW236508   4.526  11.084   2.454
11557SOL     OW36509   2.022   3.982   2.387
11557SOL    HW136510   2.037   4.063   2.437
11557SOL    HW236511   1.929   3.963   2.401
11558SOL     OW36512   6.230   6.602   6.507
11558SOL    HW136513   6.144   6.562   6.520
11558SOL    HW236514   6.242   6.660   6.582
11559SOL     OW36515   1.088   5.849  13.658
11559SOL    HW136516   1.067   5.930  13.703
11559SOL    HW236517   1.113   5.788  13.728
11560SOL     OW36518   7.164  14.831   3.391
11560SOL    HW136519   7.081  14.871   3.367
11560SOL    HW236520   7.165  14.748   3.345
11561SOL     OW36521   3.205  10.482   2.906
11561SOL    HW136522   3.243  10.554   2.856
11561SOL    HW236523   3.114  10.508   2.920
11562SOL     OW36524  13.964   8.783   7.627
11562SOL    HW136525  13.978   8.732   7.547
11562SOL    HW236526  14.042   8.836   7.636
11563SOL     OW36527   4.199  10.692   5.004
11563SOL    HW136528   4.187  10.624   4.937
11563SOL    HW236529   4.247  10.762   4.959
11564SOL     OW36530   8.046   5.150   0.284
11564SOL    HW136531   7.976   5.136   0.220
11564SOL    HW236532   8.124   5.167   0.231
11565SOL     OW36533   2.296  12.962   2.565
11565SOL    HW136534   2.286  12.868   2.550
11565SOL    HW236535   2.215  12.987   2.611
11566SOL     OW36536  11.143   3.491  14.596
11566SOL    HW136537  11.231   3.524  14.581
11566SOL    HW236538  11.107   3.477  14.508
11567SOL     OW36539   0.787  12.519  10.640
11567SOL    HW136540   0.728  12.454  10.677
11567SOL    HW236541   0.772  12.598  10.692
11568SOL     OW36542   5.339   5.668  10.013
11568SOL    HW136543   5.403   5.671  10.085
11568SOL    HW236544   5.283   5.594  10.034
11569SOL     OW36545   3.874   7.396  13.657
11569SOL    HW136546   3.887   7.441  13.573
11569SOL    HW236547   3.947   7.334  13.662
11570SOL     OW36548   7.047   6.252  14.596
11570SOL    HW136549   6.987   6.319  14.565
11570SOL    HW236550   7.018   6.232  14.685
11571SOL     OW36551   2.957   0.501   7.673
11571SOL    HW136552   3.020   0.431   7.655
11571SOL    HW236553   2.948   0.547   7.589
11572SOL     OW36554   0.556   3.836   8.909
11572SOL    HW136555   0.609   3.775   8.857
11572SOL    HW236556   0.586   3.923   8.882
11573SOL     OW36557   2.494   8.352   1.562
11573SOL    HW136558   2.506   8.435   1.609
11573SOL    HW236559   2.483   8.378   1.471
11574SOL     OW36560   4.016  13.359   2.027
11574SOL    HW136561   3.933  13.323   2.058
11574SOL    HW236562   4.060  13.390   2.106
11575SOL     OW36563   4.084   5.364   5.278
11575SOL    HW136564   4.121   5.277   5.265
11575SOL    HW236565   4.026   5.376   5.203
11576SOL     OW36566   9.609   7.579   7.653
11576SOL    HW136567   9.551   7.509   7.683
11576SOL    HW236568   9.660   7.540   7.583
11577SOL     OW36569   8.418   8.239  12.995
11577SOL    HW136570   8.421   8.245  12.899
11577SOL    HW236571   8.486   8.299  13.025
11578SOL     OW36572  14.375  11.890   5.721
11578SOL    HW136573  14.407  11.870   5.633
11578SOL    HW236574  14.294  11.939   5.706
11579SOL     OW36575   8.319   7.411  13.534
11579SOL    HW136576   8.299   7.372  13.449
11579SOL    HW236577   8.409   7.382  13.552
11580SOL     OW36578   3.599   2.955  10.425
11580SOL    HW136579   3.520   2.974  10.373
11580SOL    HW236580   3.635   2.876  10.385
11581SOL     OW36581  11.369  13.540   4.987
11581SOL    HW136582  11.303  13.608   4.997
11581SOL    HW236583  11.357  13.483   5.063
11582SOL     OW36584   1.182   0.348   9.487
11582SOL    HW136585   1.158   0.441   9.488
11582SOL    HW236586   1.265   0.346   9.440
11583SOL     OW36587   9.330   8.337   0.916
11583SOL    HW136588   9.345   8.310   1.006
11583SOL    HW236589   9.235   8.334   0.905
11584SOL     OW36590   9.361  14.751   9.737
11584SOL    HW136591   9.451  14.718   9.744
11584SOL    HW236592   9.307  14.678   9.766
11585SOL     OW36593   9.702   6.474  10.537
11585SOL    HW136594   9.610   6.500  10.541
11585SOL    HW236595   9.750   6.556  10.541
11586SOL     OW36596   3.846   4.973   3.926
11586SOL    HW136597   3.836   5.067   3.945
11586SOL    HW236598   3.807   4.962   3.839
11587SOL     OW36599   4.364  13.205   4.410
11587SOL    HW136600   4.339  13.185   4.500
11587SOL    HW236601   4.285  13.243   4.371
11588SOL     OW36602   0.443   6.321  13.050
11588SOL    HW136603   0.505   6.285  12.986
11588SOL    HW236604   0.359   6.318  13.004
11589SOL     OW36605   4.600   5.095   0.587
11589SOL    HW136606   4.694   5.113   0.594
11589SOL    HW236607   4.586   5.080   0.494
11590SOL     OW36608   4.896   0.683   6.690
11590SOL    HW136609   4.906   0.638   6.774
11590SOL    HW236610   4.809   0.656   6.659
11591SOL     OW36611   5.744   7.886   0.248
11591SOL    HW136612   5.720   7.970   0.287
11591SOL    HW236613   5.763   7.829   0.322
11592SOL     OW36614   5.730   8.072   1.232
11592SOL    HW136615   5.711   8.145   1.291
11592SOL    HW236616   5.759   8.114   1.151
11593SOL     OW36617   1.030  13.675  12.092
11593SOL    HW136618   1.097  13.641  12.151
11593SOL    HW236619   1.005  13.601  12.038
11594SOL     OW36620   3.632  11.309   3.802
11594SOL    HW136621   3.628  11.364   3.724
11594SOL    HW236622   3.543  11.313   3.839
11595SOL     OW36623  13.507  12.995   0.412
11595SOL    HW136624  13.430  13.024   0.364
11595SOL    HW236625  13.535  12.915   0.366
11596SOL     OW36626   7.299   5.329   1.057
11596SOL    HW136627   7.336   5.333   0.968
11596SOL    HW236628   7.291   5.420   1.084
11597SOL     OW36629   7.045  13.078   7.097
11597SOL    HW136630   7.072  13.027   7.173
11597SOL    HW236631   6.957  13.045   7.076
11598SOL     OW36632   0.892   3.611  10.625
11598SOL    HW136633   0.953   3.684  10.626
11598SOL    HW236634   0.912   3.563  10.545
11599SOL     OW36635   2.020  14.248   9.433
11599SOL    HW136636   1.991  14.180   9.494
11599SOL    HW236637   2.080  14.202   9.374
11600SOL     OW36638  12.100  13.357  12.800
11600SOL    HW136639  12.138  13.351  12.888
11600SOL    HW236640  12.009  13.382  12.815
11601SOL     OW36641   6.146  11.871   8.033
11601SOL    HW136642   6.109  11.915   7.957
11601SOL    HW236643   6.074  11.868   8.096
11602SOL     OW36644   3.999   6.395   7.335
11602SOL    HW136645   4.005   6.463   7.268
11602SOL    HW236646   4.087   6.390   7.372
11603SOL     OW36647   7.359   6.004   4.270
11603SOL    HW136648   7.278   6.013   4.319
11603SOL    HW236649   7.330   5.980   4.181
11604SOL     OW36650  10.575  13.975   6.262
11604SOL    HW136651  10.632  14.047   6.236
11604SOL    HW236652  10.591  13.907   6.196
11605SOL     OW36653   7.909   7.813  10.417
11605SOL    HW136654   8.002   7.800  10.435
11605SOL    HW236655   7.898   7.790  10.325
11606SOL     OW36656   2.191  13.245   9.997
11606SOL    HW136657   2.231  13.186  10.061
11606SOL    HW236658   2.186  13.329  10.043
11607SOL     OW36659   2.678   4.087   2.659
11607SOL    HW136660   2.622   4.095   2.582
11607SOL    HW236661   2.721   4.172   2.666
11608SOL     OW36662   3.640  10.440  13.530
11608SOL    HW136663   3.596  10.432  13.445
11608SOL    HW236664   3.676  10.529  13.529
11609SOL     OW36665   6.789   9.287  13.210
11609SOL    HW136666   6.830   9.260  13.292
11609SOL    HW236667   6.834   9.237  13.142
11610SOL     OW36668   6.247  12.233   2.146
11610SOL    HW136669   6.296  12.159   2.110
11610SOL    HW236670   6.313  12.282   2.196
11611SOL     OW36671   7.382  12.394  14.806
11611SOL    HW136672   7.392  12.369  14.714
11611SOL    HW236673   7.468  12.377  14.845
11612SOL     OW36674   0.528   8.987   0.072
11612SOL    HW136675   0.597   9.052   0.058
11612SOL    HW236676   0.487   9.012   0.155
11613SOL     OW36677  13.498  14.196  14.529
11613SOL    HW136678  13.525  14.151  14.609
11613SOL    HW236679  13.422  14.248  14.555
11614SOL     OW36680   3.484   4.365   6.638
11614SOL    HW136681   3.481   4.460   6.652
11614SOL    HW236682   3.396   4.335   6.661
11615SOL     OW36683   7.130  10.791  10.416
11615SOL    HW136684   7.138  10.696  10.407
11615SOL    HW236685   7.065  10.816  10.349
11616SOL     OW36686   2.305   3.727   3.689
11616SOL    HW136687   2.328   3.643   3.729
11616SOL    HW236688   2.373   3.741   3.623
11617SOL     OW36689  11.531   7.776   0.780
11617SOL    HW136690  11.609   7.793   0.726
11617SOL    HW236691  11.555   7.808   0.867
11618SOL     OW36692  11.472   2.492   7.045
11618SOL    HW136693  11.522   2.573   7.047
11618SOL    HW236694  11.537   2.423   7.033
11619SOL     OW36695   7.766  10.339   4.363
11619SOL    HW136696   7.726  10.282   4.429
11619SOL    HW236697   7.745  10.428   4.391
11620SOL     OW36698   5.635  13.047   5.385
11620SOL    HW136699   5.700  12.977   5.387
11620SOL    HW236700   5.556  13.008   5.421
11621SOL     OW36701   7.267  14.835  13.443
11621SOL    HW136702   7.196   0.002  13.393
11621SOL    HW236703   7.327   0.035  13.462
11622SOL     OW36704   0.238   4.826  14.639
11622SOL    HW136705   0.188   4.806  14.718
11622SOL    HW236706   0.171   4.838  14.571
11623SOL     OW36707   1.657   2.590   4.844
11623SOL    HW136708   1.748   2.616   4.860
11623SOL    HW236709   1.637   2.626   4.757
11624SOL     OW36710  13.568   7.215   6.714
11624SOL    HW136711  13.545   7.165   6.792
11624SOL    HW236712  13.524   7.170   6.642
11625SOL     OW36713  13.600   9.363  11.376
11625SOL    HW136714  13.673   9.418  11.348
11625SOL    HW236715  13.620   9.277  11.339
11626SOL     OW36716  13.639   6.180   1.462
11626SOL    HW136717  13.555   6.221   1.480
11626SOL    HW236718  13.660   6.208   1.372
11627SOL     OW36719   6.603   4.232   0.100
11627SOL    HW136720   6.658   4.225   0.178
11627SOL    HW236721   6.593   4.326   0.085
11628SOL     OW36722  13.357  11.780  11.874
11628SOL    HW136723  13.289  11.801  11.939
11628SOL    HW236724  13.337  11.836  11.799
11629SOL     OW36725   1.316   1.301   4.470
11629SOL    HW136726   1.404   1.292   4.434
11629SOL    HW236727   1.303   1.396   4.478
11630SOL     OW36728   4.283   5.309   1.303
11630SOL    HW136729   4.361   5.344   1.347
11630SOL    HW236730   4.223   5.288   1.374
11631SOL     OW36731  11.965   3.210   7.566
11631SOL    HW136732  11.950   3.119   7.538
11631SOL    HW236733  12.056   3.228   7.544
11632SOL     OW36734   2.167  12.246   0.200
11632SOL    HW136735   2.136  12.310   0.264
11632SOL    HW236736   2.196  12.298   0.125
11633SOL     OW36737   3.991   3.656   3.236
11633SOL    HW136738   3.906   3.653   3.281
11633SOL    HW236739   3.974   3.707   3.157
11634SOL     OW36740   9.351   0.624   0.071
11634SOL    HW136741   9.263   0.609   0.036
11634SOL    HW236742   9.407   0.626  14.867
11635SOL     OW36743   4.925   2.169  11.527
11635SOL    HW136744   4.933   2.264  11.519
11635SOL    HW236745   5.015   2.138  11.532
11636SOL     OW36746   9.057   9.148  11.476
11636SOL    HW136747   9.140   9.103  11.463
11636SOL    HW236748   9.037   9.136  11.569
11637SOL     OW36749   7.094  13.295   8.103
11637SOL    HW136750   7.125  13.288   8.012
11637SOL    HW236751   7.172  13.314   8.154
11638SOL     OW36752   4.414   3.119  11.264
11638SOL    HW136753   4.330   3.074  11.271
11638SOL    HW236754   4.470   3.058  11.217
11639SOL     OW36755   6.516   5.553   7.593
11639SOL    HW136756   6.497   5.619   7.527
11639SOL    HW236757   6.603   5.576   7.626
11640SOL     OW36758   7.746   7.012   6.718
11640SOL    HW136759   7.827   7.023   6.767
11640SOL    HW236760   7.685   7.074   6.756
11641SOL     OW36761  12.438   1.813  13.771
11641SOL    HW136762  12.474   1.742  13.823
11641SOL    HW236763  12.480   1.892  13.807
11642SOL     OW36764  13.949   5.745   2.665
11642SOL    HW136765  13.915   5.717   2.750
11642SOL    HW236766  14.024   5.688   2.650
11643SOL     OW36767   9.839   5.969   4.122
11643SOL    HW136768   9.763   6.021   4.095
11643SOL    HW236769   9.844   5.981   4.217
11644SOL     OW36770   0.303  14.695   2.453
11644SOL    HW136771   0.371  14.666   2.513
11644SOL    HW236772   0.298  14.790   2.467
11645SOL     OW36773  11.368   2.134   0.224
11645SOL    HW136774  11.345   2.081   0.148
11645SOL    HW236775  11.414   2.210   0.188
11646SOL     OW36776   0.955   8.969  11.013
11646SOL    HW136777   1.034   8.975  10.960
11646SOL    HW236778   0.899   8.908  10.966
11647SOL     OW36779   9.670   9.356  13.520
11647SOL    HW136780   9.660   9.330  13.429
11647SOL    HW236781   9.752   9.406  13.522
11648SOL     OW36782  14.131  12.783  14.840
11648SOL    HW136783  14.039  12.776  14.868
11648SOL    HW236784  14.144  12.708  14.784
11649SOL     OW36785   6.816   7.862   4.787
11649SOL    HW136786   6.801   7.881   4.694
11649SOL    HW236787   6.885   7.796   4.787
11650SOL     OW36788   6.565   2.934   6.840
11650SOL    HW136789   6.640   2.991   6.825
11650SOL    HW236790   6.599   2.846   6.831
11651SOL     OW36791   7.203   8.267   1.651
11651SOL    HW136792   7.112   8.286   1.674
11651SOL    HW236793   7.213   8.304   1.563
11652SOL     OW36794  10.844  11.982   7.768
11652SOL    HW136795  10.838  11.901   7.717
11652SOL    HW236796  10.755  11.996   7.800
11653SOL     OW36797  12.597   3.327   1.403
11653SOL    HW136798  12.683   3.307   1.368
11653SOL    HW236799  12.561   3.241   1.428
11654SOL     OW36800   7.501   8.228  11.742
11654SOL    HW136801   7.454   8.181  11.811
11654SOL    HW236802   7.454   8.204  11.661
11655SOL     OW36803   5.692   8.531   3.316
11655SOL    HW136804   5.727   8.457   3.366
11655SOL    HW236805   5.597   8.524   3.326
11656SOL     OW36806  14.811   7.904  13.937
11656SOL    HW136807  14.741   7.969  13.930
11656SOL    HW236808  14.766   7.820  13.940
11657SOL     OW36809  13.459   6.302   3.474
11657SOL    HW136810  13.511   6.324   3.551
11657SOL    HW236811  13.387   6.248   3.508
11658SOL     OW36812   1.334  13.131   5.813
11658SOL    HW136813   1.360  13.059   5.870
11658SOL    HW236814   1.317  13.204   5.873
11659SOL     OW36815   6.328  11.944  11.594
11659SOL    HW136816   6.289  11.867  11.551
11659SOL    HW236817   6.331  11.919  11.687
11660SOL     OW36818   9.645   5.078   5.590
11660SOL    HW136819   9.650   5.174   5.587
11660SOL    HW236820   9.551   5.059   5.586
11661SOL     OW36821  13.460  13.792   3.536
11661SOL    HW136822  13.387  13.844   3.501
11661SOL    HW236823  13.538  13.842   3.513
11662SOL     OW36824   1.650   3.636   0.337
11662SOL    HW136825   1.697   3.666   0.415
11662SOL    HW236826   1.584   3.575   0.370
11663SOL     OW36827   6.209   9.481  12.578
11663SOL    HW136828   6.115   9.492  12.592
11663SOL    HW236829   6.238   9.567  12.547
11664SOL     OW36830   4.637  10.637   2.420
11664SOL    HW136831   4.570  10.569   2.425
11664SOL    HW236832   4.615  10.687   2.341
11665SOL     OW36833   5.182   6.649   9.694
11665SOL    HW136834   5.169   6.709   9.767
11665SOL    HW236835   5.097   6.608   9.681
11666SOL     OW36836  12.387   2.699  14.191
11666SOL    HW136837  12.371   2.606  14.205
11666SOL    HW236838  12.468   2.702  14.139
11667SOL     OW36839   3.128   5.514  10.532
11667SOL    HW136840   3.068   5.584  10.507
11667SOL    HW236841   3.079   5.460  10.594
11668SOL     OW36842  11.971   6.544  12.195
11668SOL    HW136843  12.007   6.500  12.118
11668SOL    HW236844  11.992   6.486  12.268
11669SOL     OW36845   5.070   6.100  10.644
11669SOL    HW136846   4.994   6.043  10.632
11669SOL    HW236847   5.076   6.112  10.739
11670SOL     OW36848  14.269   7.860   7.209
11670SOL    HW136849  14.188   7.871   7.159
11670SOL    HW236850  14.334   7.831   7.144
11671SOL     OW36851   0.602   6.207   3.390
11671SOL    HW136852   0.650   6.149   3.450
11671SOL    HW236853   0.510   6.180   3.400
11672SOL     OW36854   4.016  11.016  11.408
11672SOL    HW136855   4.111  11.006  11.414
11672SOL    HW236856   3.986  11.014  11.498
11673SOL     OW36857   6.664  11.932   9.646
11673SOL    HW136858   6.617  12.015   9.659
11673SOL    HW236859   6.631  11.900   9.562
11674SOL     OW36860   7.776  10.987   6.950
11674SOL    HW136861   7.768  10.976   6.855
11674SOL    HW236862   7.778  11.082   6.962
11675SOL     OW36863   1.008   9.821   3.415
11675SOL    HW136864   0.940   9.863   3.363
11675SOL    HW236865   1.010   9.731   3.383
11676SOL     OW36866  11.513   5.665   4.740
11676SOL    HW136867  11.452   5.668   4.813
11676SOL    HW236868  11.600   5.669   4.781
11677SOL     OW36869   3.414  13.449   9.562
11677SOL    HW136870   3.393  13.483   9.475
11677SOL    HW236871   3.335  13.401   9.589
11678SOL     OW36872   1.577  12.664   0.161
11678SOL    HW136873   1.519  12.739   0.147
11678SOL    HW236874   1.563  12.640   0.252
11679SOL     OW36875   5.645  10.272  10.160
11679SOL    HW136876   5.579  10.304  10.100
11679SOL    HW236877   5.683  10.196  10.116
11680SOL     OW36878   9.220   5.980   4.402
11680SOL    HW136879   9.128   5.973   4.377
11680SOL    HW236880   9.268   5.964   4.321
11681SOL     OW36881   1.825  14.154   0.441
11681SOL    HW136882   1.879  14.169   0.363
11681SOL    HW236883   1.857  14.219   0.504
11682SOL     OW36884   9.450   9.537  11.617
11682SOL    HW136885   9.482   9.488  11.542
11682SOL    HW236886   9.356   9.520  11.619
11683SOL     OW36887   5.051   0.119  14.729
11683SOL    HW136888   5.023   0.177  14.799
11683SOL    HW236889   5.098   0.048  14.774
11684SOL     OW36890  11.927  14.636   0.833
11684SOL    HW136891  11.966  14.591   0.907
11684SOL    HW236892  11.989  14.707   0.812
11685SOL     OW36893   2.300  12.175   9.950
11685SOL    HW136894   2.363  12.246   9.938
11685SOL    HW236895   2.215  12.219   9.959
11686SOL     OW36896   5.725  13.940   8.832
11686SOL    HW136897   5.639  13.955   8.871
11686SOL    HW236898   5.747  13.850   8.857
11687SOL     OW36899   0.623   1.184  13.568
11687SOL    HW136900   0.693   1.121  13.550
11687SOL    HW236901   0.548   1.153  13.518
11688SOL     OW36902   4.612   6.916   5.480
11688SOL    HW136903   4.654   6.953   5.403
11688SOL    HW236904   4.640   6.824   5.482
11689SOL     OW36905   9.797   7.940   1.907
11689SOL    HW136906   9.729   7.884   1.869
11689SOL    HW236907   9.866   7.879   1.933
11690SOL     OW36908  13.135   9.602   9.976
11690SOL    HW136909  13.164   9.662   9.907
11690SOL    HW236910  13.174   9.518   9.953
11691SOL     OW36911   1.766  11.590  13.752
11691SOL    HW136912   1.850  11.551  13.728
11691SOL    HW236913   1.769  11.597  13.847
11692SOL     OW36914  13.526  12.917   1.434
11692SOL    HW136915  13.486  12.837   1.469
11692SOL    HW236916  13.605  12.886   1.389
11693SOL     OW36917  11.288  10.781  14.316
11693SOL    HW136918  11.317  10.745  14.232
11693SOL    HW236919  11.193  10.774  14.314
11694SOL     OW36920   7.946   9.381   9.166
11694SOL    HW136921   7.878   9.344   9.222
11694SOL    HW236922   7.905   9.457   9.125
11695SOL     OW36923   4.416   1.176   5.959
11695SOL    HW136924   4.468   1.251   5.989
11695SOL    HW236925   4.343   1.215   5.911
11696SOL     OW36926   5.034  11.090  11.279
11696SOL    HW136927   5.058  11.122  11.366
11696SOL    HW236928   5.074  11.003  11.274
11697SOL     OW36929  11.049   4.571   9.813
11697SOL    HW136930  11.137   4.610   9.819
11697SOL    HW236931  11.009   4.590   9.897
11698SOL     OW36932   6.943  11.937  13.077
11698SOL    HW136933   6.875  11.949  13.010
11698SOL    HW236934   7.013  11.998  13.052
11699SOL     OW36935  10.828   9.461  12.655
11699SOL    HW136936  10.800   9.492  12.568
11699SOL    HW236937  10.779   9.515  12.717
11700SOL     OW36938  10.854  12.025  13.896
11700SOL    HW136939  10.816  11.936  13.896
11700SOL    HW236940  10.778  12.083  13.902
11701SOL     OW36941   3.060  14.870   4.477
11701SOL    HW136942   3.107  14.845   4.398
11701SOL    HW236943   3.007   0.073   4.452
11702SOL     OW36944   6.134  11.603   2.121
11702SOL    HW136945   6.152  11.513   2.092
11702SOL    HW236946   6.218  11.634   2.155
11703SOL     OW36947   4.917  13.433   1.205
11703SOL    HW136948   4.982  13.449   1.138
11703SOL    HW236949   4.914  13.338   1.215
11704SOL     OW36950  14.670   7.065   0.341
11704SOL    HW136951  14.762   7.078   0.320
11704SOL    HW236952  14.662   7.097   0.431
11705SOL     OW36953  13.930  11.332   2.861
11705SOL    HW136954  13.949  11.375   2.944
11705SOL    HW236955  13.839  11.354   2.842
11706SOL     OW36956  11.901   5.567   5.763
11706SOL    HW136957  11.959   5.497   5.733
11706SOL    HW236958  11.947   5.648   5.744
11707SOL     OW36959  10.828   3.900  12.319
11707SOL    HW136960  10.792   3.907  12.230
11707SOL    HW236961  10.861   3.988  12.338
11708SOL     OW36962   0.350   2.842   0.690
11708SOL    HW136963   0.307   2.871   0.610
11708SOL    HW236964   0.411   2.913   0.712
11709SOL     OW36965   7.695  14.275   9.973
11709SOL    HW136966   7.661  14.340  10.035
11709SOL    HW236967   7.672  14.311   9.887
11710SOL     OW36968   4.815   5.260   9.364
11710SOL    HW136969   4.753   5.303   9.422
11710SOL    HW236970   4.790   5.290   9.276
11711SOL     OW36971   7.721   8.820   0.938
11711SOL    HW136972   7.693   8.884   0.872
11711SOL    HW236973   7.670   8.742   0.919
11712SOL     OW36974   1.605   9.861  10.723
11712SOL    HW136975   1.681   9.886  10.670
11712SOL    HW236976   1.617   9.907  10.806
11713SOL     OW36977   3.633  10.682  10.932
11713SOL    HW136978   3.574  10.749  10.966
11713SOL    HW236979   3.586  10.642  10.860
11714SOL     OW36980   6.765  12.156   9.498
11714SOL    HW136981   6.713  12.080   9.524
11714SOL    HW236982   6.747  12.167   9.404
11715SOL     OW36983   6.150  12.406  11.094
11715SOL    HW136984   6.112  12.478  11.145
11715SOL    HW236985   6.243  12.407  11.117
11716SOL     OW36986  12.900   3.165   2.933
11716SOL    HW136987  12.902   3.251   2.891
11716SOL    HW236988  12.831   3.118   2.886
11717SOL     OW36989   6.260   9.289   4.156
11717SOL    HW136990   6.331   9.326   4.103
11717SOL    HW236991   6.184   9.344   4.136
11718SOL     OW36992  10.654   8.095   1.102
11718SOL    HW136993  10.597   8.152   1.051
11718SOL    HW236994  10.597   8.025   1.133
11719SOL     OW36995   0.744  14.335   7.793
11719SOL    HW136996   0.782  14.411   7.836
11719SOL    HW236997   0.658  14.324   7.832
11720SOL     OW36998  14.592  11.572  12.475
11720SOL    HW136999  14.594  11.653  12.423
11720SOL    HW237000  14.527  11.517  12.430
11721SOL     OW37001   6.008   2.369   5.562
11721SOL    HW137002   5.924   2.401   5.593
11721SOL    HW237003   6.013   2.278   5.592
11722SOL     OW37004  13.548   0.674   6.970
11722SOL    HW137005  13.559   0.679   7.065
11722SOL    HW237006  13.453   0.669   6.957
11723SOL     OW37007   5.106   6.807   3.295
11723SOL    HW137008   5.113   6.721   3.253
11723SOL    HW237009   5.024   6.804   3.344
11724SOL     OW37010   8.422   7.072   7.138
11724SOL    HW137011   8.517   7.060   7.148
11724SOL    HW237012   8.401   7.025   7.057
11725SOL     OW37013  11.283   3.054   6.329
11725SOL    HW137014  11.339   3.040   6.406
11725SOL    HW237015  11.196   3.026   6.358
11726SOL     OW37016   0.751   9.148   6.487
11726SOL    HW137017   0.806   9.087   6.535
11726SOL    HW237018   0.813   9.208   6.445
11727SOL     OW37019   8.912   0.187   6.219
11727SOL    HW137020   8.894   0.210   6.128
11727SOL    HW237021   8.951   0.100   6.215
11728SOL     OW37022  12.823   3.382   0.330
11728SOL    HW137023  12.758   3.359   0.397
11728SOL    HW237024  12.828   3.478   0.335
11729SOL     OW37025   6.231   4.052   3.627
11729SOL    HW137026   6.164   4.067   3.560
11729SOL    HW237027   6.246   4.139   3.665
11730SOL     OW37028   0.834   0.945   6.825
11730SOL    HW137029   0.841   0.918   6.917
11730SOL    HW237030   0.740   0.946   6.807
11731SOL     OW37031  11.379   7.955   5.137
11731SOL    HW137032  11.392   8.026   5.199
11731SOL    HW237033  11.350   7.881   5.190
11732SOL     OW37034   9.567   3.829   2.277
11732SOL    HW137035   9.637   3.791   2.224
11732SOL    HW237036   9.527   3.754   2.322
11733SOL     OW37037  11.325   4.431   7.867
11733SOL    HW137038  11.291   4.520   7.864
11733SOL    HW237039  11.419   4.441   7.883
11734SOL     OW37040   5.738   2.013  12.256
11734SOL    HW137041   5.680   1.959  12.202
11734SOL    HW237042   5.756   1.960  12.333
11735SOL     OW37043   5.444  13.446   4.825
11735SOL    HW137044   5.373  13.435   4.888
11735SOL    HW237045   5.520  13.405   4.866
11736SOL     OW37046   9.295   4.321  10.355
11736SOL    HW137047   9.223   4.335  10.416
11736SOL    HW237048   9.304   4.404  10.308
11737SOL     OW37049   1.048   0.375   1.137
11737SOL    HW137050   1.132   0.407   1.169
11737SOL    HW237051   1.055   0.379   1.041
11738SOL     OW37052   3.696   0.874   5.264
11738SOL    HW137053   3.786   0.902   5.280
11738SOL    HW237054   3.686   0.875   5.169
11739SOL     OW37055  12.448   4.323  10.362
11739SOL    HW137056  12.427   4.324  10.455
11739SOL    HW237057  12.491   4.407  10.346
11740SOL     OW37058   4.951   0.261   6.780
11740SOL    HW137059   4.893   0.214   6.720
11740SOL    HW237060   5.028   0.281   6.728
11741SOL     OW37061   6.064  13.357   9.924
11741SOL    HW137062   6.028  13.431   9.973
11741SOL    HW237063   6.141  13.330   9.973
11742SOL     OW37064   3.882   3.546   4.237
11742SOL    HW137065   3.974   3.573   4.232
11742SOL    HW237066   3.874   3.502   4.321
11743SOL     OW37067   1.864  12.522   0.216
11743SOL    HW137068   1.923  12.545   0.145
11743SOL    HW237069   1.823  12.604   0.241
11744SOL     OW37070   2.695   7.687  14.025
11744SOL    HW137071   2.685   7.733  13.942
11744SOL    HW237072   2.636   7.612  14.019
11745SOL     OW37073   5.596  11.047   5.546
11745SOL    HW137074   5.655  11.008   5.482
11745SOL    HW237075   5.625  11.138   5.553
11746SOL     OW37076  10.433  13.004  10.608
11746SOL    HW137077  10.370  13.063  10.566
11746SOL    HW237078  10.519  13.036  10.580
11747SOL     OW37079   7.511   9.113   4.040
11747SOL    HW137080   7.509   9.101   4.135
11747SOL    HW237081   7.604   9.111   4.018
11748SOL     OW37082   6.832   6.764  14.240
11748SOL    HW137083   6.860   6.849  14.203
11748SOL    HW237084   6.760   6.736  14.184
11749SOL     OW37085   3.411   0.363  12.805
11749SOL    HW137086   3.391   0.270  12.801
11749SOL    HW237087   3.348   0.404  12.745
11750SOL     OW37088   7.253   1.815   2.154
11750SOL    HW137089   7.224   1.857   2.073
11750SOL    HW237090   7.346   1.797   2.140
11751SOL     OW37091   5.717   5.999   0.125
11751SOL    HW137092   5.706   5.968   0.035
11751SOL    HW237093   5.740   5.920   0.174
11752SOL     OW37094  12.019   0.715   3.964
11752SOL    HW137095  12.108   0.708   3.929
11752SOL    HW237096  11.967   0.657   3.909
11753SOL     OW37097   1.071  13.984  13.728
11753SOL    HW137098   1.060  14.078  13.711
11753SOL    HW237099   1.044  13.973  13.819
11754SOL     OW37100  12.324   6.385  13.994
11754SOL    HW137101  12.299   6.477  13.985
11754SOL    HW237102  12.263   6.337  13.938
11755SOL     OW37103   1.025   5.733  12.036
11755SOL    HW137104   1.116   5.764  12.044
11755SOL    HW237105   1.000   5.710  12.126
11756SOL     OW37106   6.611   9.199   4.551
11756SOL    HW137107   6.597   9.257   4.476
11756SOL    HW237108   6.630   9.114   4.513
11757SOL     OW37109   3.743  10.110  12.999
11757SOL    HW137110   3.767  10.020  12.975
11757SOL    HW237111   3.822  10.161  12.986
11758SOL     OW37112   7.045  13.346  12.602
11758SOL    HW137113   6.959  13.388  12.605
11758SOL    HW237114   7.101  13.409  12.557
11759SOL     OW37115  14.603   7.617   0.368
11759SOL    HW137116  14.623   7.682   0.436
11759SOL    HW237117  14.531   7.566   0.404
11760SOL     OW37118   0.531   5.782   2.069
11760SOL    HW137119   0.576   5.705   2.105
11760SOL    HW237120   0.525   5.843   2.143
11761SOL     OW37121   2.243   5.658   5.892
11761SOL    HW137122   2.323   5.615   5.922
11761SOL    HW237123   2.261   5.682   5.801
11762SOL     OW37124   2.894   8.500   2.612
11762SOL    HW137125   2.826   8.556   2.650
11762SOL    HW237126   2.968   8.559   2.598
11763SOL     OW37127   9.569  14.537  10.338
11763SOL    HW137128   9.652  14.530  10.385
11763SOL    HW237129   9.571  14.623  10.297
11764SOL     OW37130   1.155  13.159   1.489
11764SOL    HW137131   1.250  13.161   1.477
11764SOL    HW237132   1.140  13.213   1.567
11765SOL     OW37133   2.647  11.575   0.327
11765SOL    HW137134   2.670  11.640   0.261
11765SOL    HW237135   2.677  11.492   0.290
11766SOL     OW37136  11.065   6.386   3.235
11766SOL    HW137137  10.971   6.402   3.224
11766SOL    HW237138  11.071   6.333   3.315
11767SOL     OW37139   4.793   0.044   4.949
11767SOL    HW137140   4.825   0.133   4.961
11767SOL    HW237141   4.842   0.009   4.875
11768SOL     OW37142  13.370  13.083   5.430
11768SOL    HW137143  13.397  13.132   5.509
11768SOL    HW237144  13.341  12.998   5.463
11769SOL     OW37145  13.509   3.544   4.701
11769SOL    HW137146  13.532   3.580   4.616
11769SOL    HW237147  13.457   3.466   4.681
11770SOL     OW37148   5.553   4.159  11.851
11770SOL    HW137149   5.503   4.136  11.929
11770SOL    HW237150   5.515   4.242  11.821
11771SOL     OW37151   8.885   3.531   3.233
11771SOL    HW137152   8.885   3.547   3.327
11771SOL    HW237153   8.869   3.437   3.224
11772SOL     OW37154  14.470  12.950   6.831
11772SOL    HW137155  14.491  13.033   6.873
11772SOL    HW237156  14.439  12.975   6.744
11773SOL     OW37157   3.878   6.408   9.954
11773SOL    HW137158   3.795   6.406   9.906
11773SOL    HW237159   3.944   6.384   9.888
11774SOL     OW37160   4.623  10.089  10.573
11774SOL    HW137161   4.557  10.151  10.543
11774SOL    HW237162   4.573  10.014  10.605
11775SOL     OW37163  10.283   4.374   3.095
11775SOL    HW137164  10.189   4.381   3.114
11775SOL    HW237165  10.288   4.371   3.000
11776SOL     OW37166  11.168  10.281   3.009
11776SOL    HW137167  11.124  10.325   3.081
11776SOL    HW237168  11.261  10.288   3.029
11777SOL     OW37169   9.240   0.490   4.725
11777SOL    HW137170   9.289   0.493   4.807
11777SOL    HW237171   9.210   0.399   4.719
11778SOL     OW37172   7.271   5.159  11.513
11778SOL    HW137173   7.259   5.120  11.426
11778SOL    HW237174   7.320   5.239  11.497
11779SOL     OW37175   9.871   3.313   2.491
11779SOL    HW137176   9.784   3.330   2.529
11779SOL    HW237177   9.929   3.305   2.566
11780SOL     OW37178   4.190  14.197   0.233
11780SOL    HW137179   4.161  14.105   0.237
11780SOL    HW237180   4.210  14.211   0.140
11781SOL     OW37181   7.765   2.431   8.670
11781SOL    HW137182   7.860   2.444   8.662
11781SOL    HW237183   7.730   2.520   8.672
11782SOL     OW37184   1.179   2.861   8.809
11782SOL    HW137185   1.128   2.886   8.732
11782SOL    HW237186   1.262   2.906   8.798
11783SOL     OW37187  12.102  10.555  12.471
11783SOL    HW137188  12.058  10.602  12.401
11783SOL    HW237189  12.035  10.496  12.506
11784SOL     OW37190  11.757   8.947  11.613
11784SOL    HW137191  11.796   8.862  11.635
11784SOL    HW237192  11.831   9.006  11.605
11785SOL     OW37193   5.364   1.399   6.252
11785SOL    HW137194   5.380   1.431   6.341
11785SOL    HW237195   5.325   1.312   6.265
11786SOL     OW37196  10.652   1.738   0.455
11786SOL    HW137197  10.618   1.677   0.522
11786SOL    HW237198  10.607   1.713   0.375
11787SOL     OW37199  14.268   2.831   3.897
11787SOL    HW137200  14.288   2.738   3.910
11787SOL    HW237201  14.174   2.837   3.909
11788SOL     OW37202  10.431  10.336   7.249
11788SOL    HW137203  10.434  10.297   7.337
11788SOL    HW237204  10.467  10.268   7.192
11789SOL     OW37205  14.653  11.110   3.622
11789SOL    HW137206  14.648  11.023   3.662
11789SOL    HW237207  14.668  11.094   3.529
11790SOL     OW37208   6.407  10.810  10.948
11790SOL    HW137209   6.448  10.830  10.864
11790SOL    HW237210   6.470  10.840  11.013
11791SOL     OW37211  12.539   2.696  11.088
11791SOL    HW137212  12.513   2.724  11.000
11791SOL    HW237213  12.536   2.600  11.084
11792SOL     OW37214   0.068   2.365   4.938
11792SOL    HW137215   0.049   2.273   4.920
11792SOL    HW237216   0.088   2.402   4.852
11793SOL     OW37217   2.728   1.713  14.594
11793SOL    HW137218   2.772   1.641  14.641
11793SOL    HW237219   2.791   1.785  14.596
11794SOL     OW37220  10.363  10.532  14.074
11794SOL    HW137221  10.331  10.616  14.043
11794SOL    HW237222  10.324  10.468  14.014
11795SOL     OW37223   6.695  12.156  13.126
11795SOL    HW137224   6.675  12.076  13.174
11795SOL    HW237225   6.773  12.191  13.168
11796SOL     OW37226   2.726   4.588  12.632
11796SOL    HW137227   2.763   4.500  12.630
11796SOL    HW237228   2.690   4.597  12.720
11797SOL     OW37229   9.063   3.946  13.032
11797SOL    HW137230   9.048   3.899  13.114
11797SOL    HW237231   9.078   4.037  13.060
11798SOL     OW37232  10.013  10.898  12.785
11798SOL    HW137233  10.049  10.852  12.860
11798SOL    HW237234   9.919  10.904  12.803
11799SOL     OW37235   1.308  11.335   3.447
11799SOL    HW137236   1.247  11.405   3.469
11799SOL    HW237237   1.378  11.343   3.511
11800SOL     OW37238   0.834  13.776  10.880
11800SOL    HW137239   0.841  13.872  10.884
11800SOL    HW237240   0.907  13.745  10.934
11801SOL     OW37241  13.290  11.526   9.928
11801SOL    HW137242  13.265  11.548   9.839
11801SOL    HW237243  13.234  11.581   9.983
11802SOL     OW37244  14.115   1.639   0.052
11802SOL    HW137245  14.142   1.548   0.064
11802SOL    HW237246  14.063   1.659   0.129
11803SOL     OW37247  12.926   2.274   3.080
11803SOL    HW137248  12.946   2.200   3.024
11803SOL    HW237249  12.840   2.304   3.052
11804SOL     OW37250   3.198   2.424   9.303
11804SOL    HW137251   3.215   2.426   9.209
11804SOL    HW237252   3.172   2.514   9.325
11805SOL     OW37253   7.279   0.296  11.636
11805SOL    HW137254   7.227   0.321  11.712
11805SOL    HW237255   7.359   0.349  11.643
11806SOL     OW37256   0.786   6.964   8.940
11806SOL    HW137257   0.693   6.945   8.947
11806SOL    HW237258   0.823   6.889   8.894
11807SOL     OW37259  12.415  14.634  13.114
11807SOL    HW137260  12.387  14.605  13.027
11807SOL    HW237261  12.502  14.596  13.126
11808SOL     OW37262   6.629  14.476   3.587
11808SOL    HW137263   6.629  14.503   3.495
11808SOL    HW237264   6.625  14.558   3.636
11809SOL     OW37265   3.190  14.087   3.192
11809SOL    HW137266   3.285  14.097   3.189
11809SOL    HW237267   3.159  14.163   3.241
11810SOL     OW37268   1.605   9.313   7.102
11810SOL    HW137269   1.698   9.291   7.097
11810SOL    HW237270   1.561   9.229   7.116
11811SOL     OW37271   5.953   3.638  14.674
11811SOL    HW137272   5.907   3.656  14.756
11811SOL    HW237273   5.892   3.663  14.606
11812SOL     OW37274   5.388   0.702  13.922
11812SOL    HW137275   5.292   0.704  13.922
11812SOL    HW237276   5.413   0.735  14.008
11813SOL     OW37277   8.343   1.012  12.349
11813SOL    HW137278   8.280   0.985  12.416
11813SOL    HW237279   8.310   0.972  12.268
11814SOL     OW37280   7.252   5.402  13.127
11814SOL    HW137281   7.163   5.428  13.103
11814SOL    HW237282   7.240   5.335  13.194
11815SOL     OW37283   3.514   3.606   5.478
11815SOL    HW137284   3.447   3.559   5.529
11815SOL    HW237285   3.474   3.690   5.458
11816SOL     OW37286   5.636   9.457   8.096
11816SOL    HW137287   5.600   9.545   8.112
11816SOL    HW237288   5.730   9.468   8.107
11817SOL     OW37289   6.433  14.045   0.726
11817SOL    HW137290   6.439  13.973   0.788
11817SOL    HW237291   6.340  14.063   0.717
11818SOL     OW37292   2.784   8.014   9.907
11818SOL    HW137293   2.867   7.983   9.869
11818SOL    HW237294   2.738   7.934   9.934
11819SOL     OW37295   0.263  12.341   2.568
11819SOL    HW137296   0.308  12.353   2.484
11819SOL    HW237297   0.177  12.379   2.555
11820SOL     OW37298   6.089  10.692  11.502
11820SOL    HW137299   6.075  10.604  11.467
11820SOL    HW237300   6.182  10.708  11.489
11821SOL     OW37301  12.029   1.249   1.161
11821SOL    HW137302  11.958   1.278   1.220
11821SOL    HW237303  12.048   1.159   1.189
11822SOL     OW37304  12.251  11.868  13.666
11822SOL    HW137305  12.325  11.830  13.713
11822SOL    HW237306  12.179  11.868  13.729
11823SOL     OW37307   9.447   6.385   1.380
11823SOL    HW137308   9.531   6.364   1.338
11823SOL    HW237309   9.429   6.475   1.354
11824SOL     OW37310  11.012   1.925   7.997
11824SOL    HW137311  11.062   1.948   7.918
11824SOL    HW237312  11.078   1.920   8.066
11825SOL     OW37313  14.057   4.888  11.448
11825SOL    HW137314  13.963   4.874  11.437
11825SOL    HW237315  14.073   4.974  11.409
11826SOL     OW37316  11.444  13.066   1.219
11826SOL    HW137317  11.504  12.998   1.187
11826SOL    HW237318  11.357  13.029   1.206
11827SOL     OW37319   0.753  13.804   1.341
11827SOL    HW137320   0.670  13.840   1.373
11827SOL    HW237321   0.782  13.744   1.410
11828SOL     OW37322   4.134   1.880  11.250
11828SOL    HW137323   4.134   1.797  11.297
11828SOL    HW237324   4.181   1.941  11.308
11829SOL     OW37325   7.057   6.820   3.717
11829SOL    HW137326   7.072   6.775   3.800
11829SOL    HW237327   7.127   6.885   3.711
11830SOL     OW37328   7.499   6.576   3.942
11830SOL    HW137329   7.593   6.576   3.960
11830SOL    HW237330   7.468   6.492   3.978
11831SOL     OW37331  13.622   1.666  12.694
11831SOL    HW137332  13.701   1.632  12.737
11831SOL    HW237333  13.583   1.723  12.760
11832SOL     OW37334   1.874   4.790   8.008
11832SOL    HW137335   1.909   4.779   8.096
11832SOL    HW237336   1.905   4.714   7.959
11833SOL     OW37337   9.161  13.987  13.243
11833SOL    HW137338   9.183  13.959  13.154
11833SOL    HW237339   9.104  14.063  13.231
11834SOL     OW37340   6.108  12.792  14.858
11834SOL    HW137341   6.179  12.728  14.862
11834SOL    HW237342   6.102  12.816  14.766
11835SOL     OW37343   9.323   4.920   6.270
11835SOL    HW137344   9.398   4.884   6.318
11835SOL    HW237345   9.317   5.011   6.301
11836SOL     OW37346   0.750  12.484   6.949
11836SOL    HW137347   0.806  12.529   6.887
11836SOL    HW237348   0.805  12.469   7.026
11837SOL     OW37349   6.407   3.636   4.541
11837SOL    HW137350   6.385   3.590   4.460
11837SOL    HW237351   6.323   3.653   4.583
11838SOL     OW37352   7.311   0.143   1.260
11838SOL    HW137353   7.402   0.119   1.239
11838SOL    HW237354   7.316   0.178   1.349
11839SOL     OW37355  11.441  12.056   3.094
11839SOL    HW137356  11.380  12.100   3.154
11839SOL    HW237357  11.391  12.043   3.014
11840SOL     OW37358  10.204   7.808  12.354
11840SOL    HW137359  10.135   7.817  12.420
11840SOL    HW237360  10.179   7.870  12.285
11841SOL     OW37361  10.395  10.306   9.816
11841SOL    HW137362  10.441  10.266   9.743
11841SOL    HW237363  10.302  10.297   9.794
11842SOL     OW37364  14.215   8.916   7.709
11842SOL    HW137365  14.217   8.882   7.798
11842SOL    HW237366  14.230   9.010   7.718
11843SOL     OW37367  12.290   1.123  13.371
11843SOL    HW137368  12.242   1.205  13.378
11843SOL    HW237369  12.228   1.056  13.401
11844SOL     OW37370   4.033   7.191  14.188
11844SOL    HW137371   4.053   7.245  14.264
11844SOL    HW237372   4.066   7.104  14.211
11845SOL     OW37373  10.958   5.244   5.300
11845SOL    HW137374  11.005   5.318   5.261
11845SOL    HW237375  11.011   5.218   5.376
11846SOL     OW37376   8.177  10.547   1.004
11846SOL    HW137377   8.230  10.609   0.954
11846SOL    HW237378   8.086  10.566   0.979
11847SOL     OW37379   4.595  14.044   7.079
11847SOL    HW137380   4.552  13.962   7.104
11847SOL    HW237381   4.680  14.041   7.122
11848SOL     OW37382   7.116   9.100   1.539
11848SOL    HW137383   7.125   9.012   1.503
11848SOL    HW237384   7.029   9.102   1.577
11849SOL     OW37385   4.384   2.089  11.183
11849SOL    HW137386   4.480   2.091  11.176
11849SOL    HW237387   4.368   2.060  11.273
11850SOL     OW37388   0.148   5.896  13.593
11850SOL    HW137389   0.060   5.863  13.574
11850SOL    HW237390   0.146   5.917  13.686
11851SOL     OW37391  10.202   3.244  13.828
11851SOL    HW137392  10.153   3.288  13.898
11851SOL    HW237393  10.135   3.203  13.774
11852SOL     OW37394   6.062   7.879   6.401
11852SOL    HW137395   6.106   7.795   6.386
11852SOL    HW237396   6.048   7.915   6.314
11853SOL     OW37397  12.919  12.265   8.072
11853SOL    HW137398  12.839  12.247   8.022
11853SOL    HW237399  12.917  12.202   8.144
11854SOL     OW37400   5.391  11.593  13.448
11854SOL    HW137401   5.448  11.636  13.384
11854SOL    HW237402   5.436  11.512  13.470
11855SOL     OW37403   9.306  14.266   9.006
11855SOL    HW137404   9.290  14.336   8.943
11855SOL    HW237405   9.218  14.232   9.026
11856SOL     OW37406   9.919   2.724  13.686
11856SOL    HW137407   9.892   2.646  13.637
11856SOL    HW237408   9.912   2.795  13.623
11857SOL     OW37409   6.237   8.921   2.709
11857SOL    HW137410   6.234   9.016   2.707
11857SOL    HW237411   6.262   8.900   2.799
11858SOL     OW37412  11.052   4.451  14.777
11858SOL    HW137413  11.070   4.526  14.834
11858SOL    HW237414  11.021   4.382  14.837
11859SOL     OW37415  11.407  12.819  12.341
11859SOL    HW137416  11.428  12.738  12.388
11859SOL    HW237417  11.428  12.889  12.403
11860SOL     OW37418  11.218   8.090  10.949
11860SOL    HW137419  11.145   8.035  10.921
11860SOL    HW237420  11.181   8.148  11.016
11861SOL     OW37421   0.662  12.719  14.011
11861SOL    HW137422   0.582  12.675  13.983
11861SOL    HW237423   0.724  12.648  14.028
11862SOL     OW37424   4.535   6.839   3.095
11862SOL    HW137425   4.615   6.891   3.103
11862SOL    HW237426   4.488   6.877   3.021
11863SOL     OW37427  14.520   9.461   4.836
11863SOL    HW137428  14.588   9.394   4.827
11863SOL    HW237429  14.530   9.517   4.759
11864SOL     OW37430  10.643   0.956   4.847
11864SOL    HW137431  10.654   1.029   4.907
11864SOL    HW237432  10.663   0.993   4.761
11865SOL     OW37433  11.345   8.849  13.552
11865SOL    HW137434  11.306   8.932  13.580
11865SOL    HW237435  11.413   8.875  13.489
11866SOL     OW37436  13.471   6.762   0.016
11866SOL    HW137437  13.453   6.707   0.092
11866SOL    HW237438  13.411   6.837   0.026
11867SOL     OW37439   4.276   9.575   0.207
11867SOL    HW137440   4.330   9.636   0.156
11867SOL    HW237441   4.249   9.625   0.284
11868SOL     OW37442  12.814   8.215   0.664
11868SOL    HW137443  12.892   8.257   0.630
11868SOL    HW237444  12.832   8.121   0.658
11869SOL     OW37445  12.668   4.482   0.399
11869SOL    HW137446  12.699   4.457   0.486
11869SOL    HW237447  12.604   4.552   0.415
11870SOL     OW37448   4.826   8.116   8.434
11870SOL    HW137449   4.803   8.025   8.416
11870SOL    HW237450   4.761   8.168   8.387
11871SOL     OW37451   1.865   9.094  14.485
11871SOL    HW137452   1.786   9.103  14.538
11871SOL    HW237453   1.835   9.061  14.401
11872SOL     OW37454  12.396   5.455   1.317
11872SOL    HW137455  12.313   5.419   1.348
11872SOL    HW237456  12.410   5.533   1.371
11873SOL     OW37457  10.310  14.757   9.971
11873SOL    HW137458  10.372  14.812   9.925
11873SOL    HW237459  10.249  14.818  10.012
11874SOL     OW37460   4.065   3.771   2.607
11874SOL    HW137461   3.988   3.826   2.597
11874SOL    HW237462   4.034   3.692   2.651
11875SOL     OW37463   8.946  12.970   1.544
11875SOL    HW137464   8.994  13.028   1.485
11875SOL    HW237465   9.010  12.903   1.568
11876SOL     OW37466  11.573   0.832   7.032
11876SOL    HW137467  11.510   0.769   6.997
11876SOL    HW237468  11.603   0.793   7.114
11877SOL     OW37469   7.511   1.675   9.561
11877SOL    HW137470   7.485   1.628   9.481
11877SOL    HW237471   7.564   1.748   9.529
11878SOL     OW37472   8.422  14.049  13.562
11878SOL    HW137473   8.474  14.125  13.534
11878SOL    HW237474   8.370  14.081  13.635
11879SOL     OW37475   5.011   3.697  12.561
11879SOL    HW137476   4.918   3.683  12.547
11879SOL    HW237477   5.016   3.777  12.613
11880SOL     OW37478   2.808   8.325   4.782
11880SOL    HW137479   2.744   8.367   4.840
11880SOL    HW237480   2.756   8.281   4.716
11881SOL     OW37481   2.813  11.075   7.061
11881SOL    HW137482   2.728  11.103   7.096
11881SOL    HW237483   2.856  11.031   7.134
11882SOL     OW37484   9.283  13.942   9.949
11882SOL    HW137485   9.283  13.902   9.862
11882SOL    HW237486   9.275  14.036   9.931
11883SOL     OW37487   7.007   7.036  13.145
11883SOL    HW137488   6.989   7.102  13.078
11883SOL    HW237489   7.086   7.068  13.189
11884SOL     OW37490   8.801   4.675   6.711
11884SOL    HW137491   8.732   4.702   6.772
11884SOL    HW237492   8.882   4.682   6.761
11885SOL     OW37493   3.723  11.969   2.101
11885SOL    HW137494   3.646  12.023   2.122
11885SOL    HW237495   3.698  11.881   2.129
11886SOL     OW37496  10.944   5.933   6.402
11886SOL    HW137497  10.944   5.993   6.477
11886SOL    HW237498  10.910   5.985   6.329
11887SOL     OW37499   6.463   8.068  14.087
11887SOL    HW137500   6.370   8.087  14.088
11887SOL    HW237501   6.498   8.122  14.016
11888SOL     OW37502   4.405   0.128  10.266
11888SOL    HW137503   4.467   0.056  10.275
11888SOL    HW237504   4.376   0.147  10.355
11889SOL     OW37505   0.600   4.912   6.603
11889SOL    HW137506   0.588   4.905   6.698
11889SOL    HW237507   0.511   4.909   6.568
11890SOL     OW37508   2.341   9.741   1.693
11890SOL    HW137509   2.303   9.778   1.773
11890SOL    HW237510   2.374   9.655   1.719
11891SOL     OW37511   9.756  11.631  12.181
11891SOL    HW137512   9.682  11.672  12.225
11891SOL    HW237513   9.823  11.623  12.250
11892SOL     OW37514  10.632   1.647  13.266
11892SOL    HW137515  10.642   1.636  13.171
11892SOL    HW237516  10.699   1.712  13.289
11893SOL     OW37517   8.588   2.699  10.785
11893SOL    HW137518   8.605   2.731  10.696
11893SOL    HW237519   8.587   2.778  10.839
11894SOL     OW37520  12.293  12.807   8.145
11894SOL    HW137521  12.325  12.883   8.095
11894SOL    HW237522  12.220  12.841   8.196
11895SOL     OW37523   1.252   7.804   2.460
11895SOL    HW137524   1.266   7.883   2.512
11895SOL    HW237525   1.335   7.757   2.464
11896SOL     OW37526   8.868   5.498   6.710
11896SOL    HW137527   8.921   5.575   6.690
11896SOL    HW237528   8.931   5.426   6.713
11897SOL     OW37529  14.251   5.415   8.450
11897SOL    HW137530  14.169   5.413   8.501
11897SOL    HW237531  14.224   5.394   8.361
11898SOL     OW37532  11.357   4.546  11.466
11898SOL    HW137533  11.338   4.563  11.558
11898SOL    HW237534  11.453   4.550  11.461
11899SOL     OW37535   5.892   7.668  10.620
11899SOL    HW137536   5.810   7.685  10.573
11899SOL    HW237537   5.942   7.749  10.610
11900SOL     OW37538   8.151  11.932  14.630
11900SOL    HW137539   8.228  11.911  14.684
11900SOL    HW237540   8.079  11.885  14.673
11901SOL     OW37541  14.176  10.260   4.428
11901SOL    HW137542  14.120  10.229   4.357
11901SOL    HW237543  14.173  10.191   4.494
11902SOL     OW37544   0.707  14.610   9.151
11902SOL    HW137545   0.766  14.535   9.162
11902SOL    HW237546   0.760  14.686   9.174
11903SOL     OW37547   6.399   1.562   3.153
11903SOL    HW137548   6.316   1.592   3.115
11903SOL    HW237549   6.401   1.601   3.240
11904SOL     OW37550   6.269   5.409  14.467
11904SOL    HW137551   6.271   5.504  14.456
11904SOL    HW237552   6.250   5.395  14.560
11905SOL     OW37553   9.359   3.419   2.636
11905SOL    HW137554   9.325   3.459   2.716
11905SOL    HW237555   9.332   3.327   2.641
11906SOL     OW37556  13.269   0.867  10.124
11906SOL    HW137557  13.346   0.812  10.137
11906SOL    HW237558  13.294   0.952  10.162
11907SOL     OW37559   0.296   6.157   3.422
11907SOL    HW137560   0.292   6.171   3.517
11907SOL    HW237561   0.207   6.176   3.391
11908SOL     OW37562   6.001   0.952   2.827
11908SOL    HW137563   6.054   1.032   2.839
11908SOL    HW237564   5.921   0.983   2.784
11909SOL     OW37565   0.473  12.388   4.271
11909SOL    HW137566   0.470  12.312   4.214
11909SOL    HW237567   0.518  12.356   4.350
11910SOL     OW37568   0.922   5.607   7.385
11910SOL    HW137569   1.014   5.592   7.360
11910SOL    HW237570   0.878   5.526   7.362
11911SOL     OW37571   5.508   7.174   3.164
11911SOL    HW137572   5.591   7.142   3.127
11911SOL    HW237573   5.461   7.095   3.189
11912SOL     OW37574  14.578   6.482   2.452
11912SOL    HW137575  14.593   6.526   2.536
11912SOL    HW237576  14.580   6.552   2.387
11913SOL     OW37577  14.122   8.606   3.708
11913SOL    HW137578  14.081   8.583   3.624
11913SOL    HW237579  14.053   8.652   3.756
11914SOL     OW37580  14.752   7.272   7.791
11914SOL    HW137581  14.826   7.313   7.836
11914SOL    HW237582  14.676   7.295   7.844
11915SOL     OW37583  14.855  10.711  12.229
11915SOL    HW137584   0.023  10.735  12.146
11915SOL    HW237585  14.784  10.653  12.205
11916SOL     OW37586   9.957  14.662  11.996
11916SOL    HW137587  10.035  14.616  12.027
11916SOL    HW237588   9.909  14.684  12.076
11917SOL     OW37589  10.980   8.436   3.928
11917SOL    HW137590  11.038   8.480   3.991
11917SOL    HW237591  11.026   8.356   3.906
11918SOL     OW37592   9.198   6.544  12.129
11918SOL    HW137593   9.159   6.622  12.169
11918SOL    HW237594   9.273   6.577  12.079
11919SOL     OW37595   3.712   4.070   0.225
11919SOL    HW137596   3.675   4.124   0.295
11919SOL    HW237597   3.642   4.010   0.202
11920SOL     OW37598   7.602   1.557   0.635
11920SOL    HW137599   7.523   1.608   0.657
11920SOL    HW237600   7.613   1.498   0.710
11921SOL     OW37601   7.874   1.595   4.065
11921SOL    HW137602   7.846   1.580   3.975
11921SOL    HW237603   7.948   1.656   4.057
11922SOL     OW37604   9.967   4.500   5.070
11922SOL    HW137605   9.883   4.457   5.080
11922SOL    HW237606  10.016   4.444   5.010
11923SOL     OW37607  11.919   6.360  11.027
11923SOL    HW137608  11.856   6.295  11.058
11923SOL    HW237609  11.984   6.365  11.098
11924SOL     OW37610   5.537   2.295  10.326
11924SOL    HW137611   5.603   2.363  10.308
11924SOL    HW237612   5.453   2.341  10.322
11925SOL     OW37613  10.766   5.458  14.704
11925SOL    HW137614  10.770   5.489  14.795
11925SOL    HW237615  10.793   5.367  14.708
11926SOL     OW37616   1.887   6.367   5.870
11926SOL    HW137617   1.814   6.388   5.813
11926SOL    HW237618   1.887   6.272   5.875
11927SOL     OW37619  12.029  12.798   3.904
11927SOL    HW137620  11.948  12.804   3.954
11927SOL    HW237621  12.049  12.888   3.879
11928SOL     OW37622   5.325  10.099  13.464
11928SOL    HW137623   5.297  10.026  13.408
11928SOL    HW237624   5.254  10.109  13.528
11929SOL     OW37625   0.833  10.986   5.833
11929SOL    HW137626   0.812  11.048   5.903
11929SOL    HW237627   0.850  11.041   5.757
11930SOL     OW37628  11.572  10.494   3.537
11930SOL    HW137629  11.584  10.570   3.480
11930SOL    HW237630  11.539  10.530   3.619
11931SOL     OW37631   9.941   5.787   5.382
11931SOL    HW137632   9.985   5.708   5.350
11931SOL    HW237633  10.003   5.826   5.443
11932SOL     OW37634   4.326   9.715   7.820
11932SOL    HW137635   4.258   9.690   7.882
11932SOL    HW237636   4.307   9.806   7.798
11933SOL     OW37637  12.475  13.235   6.016
11933SOL    HW137638  12.467  13.330   6.012
11933SOL    HW237639  12.444  13.212   6.103
11934SOL     OW37640  14.702  11.478   8.491
11934SOL    HW137641  14.667  11.533   8.561
11934SOL    HW237642  14.627  11.427   8.460
11935SOL     OW37643   6.153  10.684  14.168
11935SOL    HW137644   6.184  10.593  14.164
11935SOL    HW237645   6.220  10.734  14.122
11936SOL     OW37646   4.952   6.133   1.743
11936SOL    HW137647   4.985   6.132   1.832
11936SOL    HW237648   4.996   6.061   1.699
11937SOL     OW37649   0.227  14.779   2.018
11937SOL    HW137650   0.161  14.742   1.960
11937SOL    HW237651   0.283  14.704   2.042
11938SOL     OW37652   8.258  11.477   8.059
11938SOL    HW137653   8.177  11.450   8.015
11938SOL    HW237654   8.299  11.539   7.999
11939SOL     OW37655   1.531   8.531   7.727
11939SOL    HW137656   1.563   8.543   7.638
11939SOL    HW237657   1.511   8.437   7.733
11940SOL     OW37658   1.404   4.254   5.662
11940SOL    HW137659   1.411   4.211   5.577
11940SOL    HW237660   1.439   4.190   5.724
11941SOL     OW37661  10.888  11.262   1.006
11941SOL    HW137662  10.962  11.296   0.956
11941SOL    HW237663  10.811  11.303   0.968
11942SOL     OW37664   0.693   2.720   0.211
11942SOL    HW137665   0.611   2.767   0.222
11942SOL    HW237666   0.749   2.753   0.282
11943SOL     OW37667   3.893   5.202  10.957
11943SOL    HW137668   3.963   5.257  10.921
11943SOL    HW237669   3.848   5.259  11.020
11944SOL     OW37670   2.032   6.011   5.122
11944SOL    HW137671   2.034   6.018   5.026
11944SOL    HW237672   2.119   5.977   5.144
11945SOL     OW37673  12.344   3.459   1.046
11945SOL    HW137674  12.401   3.483   1.119
11945SOL    HW237675  12.279   3.400   1.085
11946SOL     OW37676   6.792  14.686   0.267
11946SOL    HW137677   6.751  14.722   0.188
11946SOL    HW237678   6.722  14.635   0.308
11947SOL     OW37679   7.595  10.629   5.416
11947SOL    HW137680   7.559  10.667   5.497
11947SOL    HW237681   7.676  10.677   5.402
11948SOL     OW37682   9.941   7.034   0.984
11948SOL    HW137683   9.925   7.126   0.967
11948SOL    HW237684   9.974   6.999   0.901
11949SOL     OW37685  10.170  13.464   4.046
11949SOL    HW137686  10.194  13.371   4.053
11949SOL    HW237687  10.075  13.464   4.041
11950SOL     OW37688   0.668   2.622   4.997
11950SOL    HW137689   0.759   2.647   4.977
11950SOL    HW237690   0.616   2.698   4.971
11951SOL     OW37691  12.202   4.978   3.158
11951SOL    HW137692  12.141   4.919   3.114
11951SOL    HW237693  12.248   5.022   3.086
11952SOL     OW37694   8.504   9.802  12.944
11952SOL    HW137695   8.434   9.751  12.903
11952SOL    HW237696   8.462   9.883  12.972
11953SOL     OW37697   5.316   5.973   8.190
11953SOL    HW137698   5.347   6.007   8.106
11953SOL    HW237699   5.396   5.944   8.235
11954SOL     OW37700   4.443  14.486   3.926
11954SOL    HW137701   4.504  14.443   3.986
11954SOL    HW237702   4.418  14.417   3.865
11955SOL     OW37703   0.988  14.238   6.710
11955SOL    HW137704   0.950  14.322   6.734
11955SOL    HW237705   1.007  14.245   6.616
11956SOL     OW37706  13.442   4.744  10.428
11956SOL    HW137707  13.349   4.743  10.407
11956SOL    HW237708  13.468   4.652  10.424
11957SOL     OW37709   3.299   0.209   1.348
11957SOL    HW137710   3.234   0.145   1.378
11957SOL    HW237711   3.279   0.222   1.255
11958SOL     OW37712  12.106  13.963  10.439
11958SOL    HW137713  12.067  13.896  10.382
11958SOL    HW237714  12.195  13.933  10.453
11959SOL     OW37715  11.560   5.481  13.478
11959SOL    HW137716  11.469   5.458  13.494
11959SOL    HW237717  11.571   5.471  13.383
11960SOL     OW37718   1.300  12.272  13.604
11960SOL    HW137719   1.369  12.322  13.648
11960SOL    HW237720   1.316  12.181  13.631
11961SOL     OW37721   6.352   8.014   3.944
11961SOL    HW137722   6.399   7.931   3.934
11961SOL    HW237723   6.381   8.067   3.870
11962SOL     OW37724   0.497   1.983   6.619
11962SOL    HW137725   0.404   1.964   6.607
11962SOL    HW237726   0.500   2.040   6.696
11963SOL     OW37727   1.651  12.543   1.859
11963SOL    HW137728   1.671  12.626   1.901
11963SOL    HW237729   1.562  12.553   1.826
11964SOL     OW37730   7.711   1.636   5.497
11964SOL    HW137731   7.627   1.665   5.532
11964SOL    HW237732   7.691   1.601   5.410
11965SOL     OW37733  13.244   3.168   2.306
11965SOL    HW137734  13.301   3.229   2.351
11965SOL    HW237735  13.303   3.099   2.275
11966SOL     OW37736   0.442   5.212   5.355
11966SOL    HW137737   0.491   5.294   5.349
11966SOL    HW237738   0.388   5.210   5.276
11967SOL     OW37739   8.381  14.820   9.773
11967SOL    HW137740   8.421   0.033   9.763
11967SOL    HW237741   8.313  14.818   9.706
11968SOL     OW37742   7.427   1.137   3.445
11968SOL    HW137743   7.400   1.210   3.390
11968SOL    HW237744   7.349   1.081   3.452
11969SOL     OW37745   4.908   6.119   6.633
11969SOL    HW137746   4.976   6.180   6.661
11969SOL    HW237747   4.955   6.047   6.591
11970SOL     OW37748   8.906  12.343   3.753
11970SOL    HW137749   8.945  12.257   3.739
11970SOL    HW237750   8.920  12.361   3.845
11971SOL     OW37751   8.093   1.712   6.261
11971SOL    HW137752   8.185   1.705   6.238
11971SOL    HW237753   8.053   1.632   6.226
11972SOL     OW37754   1.768   8.371  13.054
11972SOL    HW137755   1.847   8.409  13.014
11972SOL    HW237756   1.799   8.332  13.136
11973SOL     OW37757  11.559   0.689  12.672
11973SOL    HW137758  11.497   0.625  12.635
11973SOL    HW237759  11.599   0.643  12.746
11974SOL     OW37760   8.515   6.731   8.661
11974SOL    HW137761   8.450   6.699   8.723
11974SOL    HW237762   8.501   6.825   8.657
11975SOL     OW37763   5.430   3.298   4.011
11975SOL    HW137764   5.352   3.253   3.979
11975SOL    HW237765   5.399   3.348   4.087
11976SOL     OW37766   0.075   9.259   3.381
11976SOL    HW137767   0.159   9.285   3.343
11976SOL    HW237768   0.089   9.169   3.411
11977SOL     OW37769   4.675   3.571  11.084
11977SOL    HW137770   4.635   3.501  11.135
11977SOL    HW237771   4.660   3.650  11.136
11978SOL     OW37772  10.089   6.358  10.896
11978SOL    HW137773  10.000   6.389  10.883
11978SOL    HW237774  10.095   6.279  10.842
11979SOL     OW37775   6.331  10.075   6.249
11979SOL    HW137776   6.245  10.115   6.238
11979SOL    HW237777   6.388  10.147   6.277
11980SOL     OW37778   8.993   3.517   6.444
11980SOL    HW137779   9.065   3.539   6.503
11980SOL    HW237780   8.925   3.482   6.501
11981SOL     OW37781   9.349   4.242  14.839
11981SOL    HW137782   9.400   4.198   0.034
11981SOL    HW237783   9.402   4.235  14.760
11982SOL     OW37784   0.881   3.490   2.869
11982SOL    HW137785   0.955   3.430   2.862
11982SOL    HW237786   0.920   3.577   2.862
11983SOL     OW37787  13.770   6.337   5.268
11983SOL    HW137788  13.833   6.405   5.291
11983SOL    HW237789  13.731   6.311   5.352
11984SOL     OW37790   4.684   0.903   8.362
11984SOL    HW137791   4.695   0.811   8.340
11984SOL    HW237792   4.696   0.906   8.457
11985SOL     OW37793  10.163   8.087   2.974
11985SOL    HW137794  10.086   8.141   2.956
11985SOL    HW237795  10.151   8.057   3.063
11986SOL     OW37796  12.583   2.649   8.122
11986SOL    HW137797  12.500   2.612   8.090
11986SOL    HW237798  12.580   2.740   8.094
11987SOL     OW37799  14.794  13.692   0.592
11987SOL    HW137800  14.742  13.734   0.523
11987SOL    HW237801  14.870  13.656   0.546
11988SOL     OW37802   2.822   3.872   8.909
11988SOL    HW137803   2.827   3.949   8.965
11988SOL    HW237804   2.912   3.842   8.901
11989SOL     OW37805   2.706   5.089   3.985
11989SOL    HW137806   2.619   5.118   3.957
11989SOL    HW237807   2.737   5.032   3.914
11990SOL     OW37808  12.069  11.608   7.506
11990SOL    HW137809  12.096  11.682   7.452
11990SOL    HW237810  12.077  11.639   7.596
11991SOL     OW37811   4.793   2.975   6.683
11991SOL    HW137812   4.863   2.929   6.638
11991SOL    HW237813   4.785   3.058   6.636
11992SOL     OW37814   2.500   8.562   1.719
11992SOL    HW137815   2.567   8.623   1.749
11992SOL    HW237816   2.421   8.615   1.708
11993SOL     OW37817  12.402  10.125   6.901
11993SOL    HW137818  12.396  10.167   6.987
11993SOL    HW237819  12.334  10.166   6.849
11994SOL     OW37820   2.548   0.773   8.112
11994SOL    HW137821   2.499   0.808   8.187
11994SOL    HW237822   2.487   0.777   8.039
11995SOL     OW37823   4.155  10.452  13.083
11995SOL    HW137824   4.183  10.427  12.995
11995SOL    HW237825   4.060  10.450  13.080
11996SOL     OW37826   8.550   5.096   1.890
11996SOL    HW137827   8.602   5.143   1.824
11996SOL    HW237828   8.614   5.068   1.955
11997SOL     OW37829  12.620   5.773   2.179
11997SOL    HW137830  12.603   5.861   2.146
11997SOL    HW237831  12.590   5.715   2.109
11998SOL     OW37832   6.576   2.657   2.633
11998SOL    HW137833   6.611   2.611   2.557
11998SOL    HW237834   6.621   2.617   2.708
11999SOL     OW37835   5.906   4.541  10.295
11999SOL    HW137836   5.814   4.562  10.284
11999SOL    HW237837   5.928   4.487  10.219
12000SOL     OW37838   9.476  14.291   7.955
12000SOL    HW137839   9.533  14.333   7.891
12000SOL    HW237840   9.474  14.199   7.930
12001SOL     OW37841   0.557  14.218   6.701
12001SOL    HW137842   0.586  14.279   6.768
12001SOL    HW237843   0.504  14.272   6.642
12002SOL     OW37844   1.732   5.752  10.687
12002SOL    HW137845   1.654   5.741  10.632
12002SOL    HW237846   1.800   5.778  10.625
12003SOL     OW37847  13.053  10.374   2.731
12003SOL    HW137848  13.013  10.445   2.681
12003SOL    HW237849  13.088  10.314   2.665
12004SOL     OW37850  10.323   3.915  13.245
12004SOL    HW137851  10.376   3.994  13.257
12004SOL    HW237852  10.235   3.941  13.271
12005SOL     OW37853   1.376   1.846  13.653
12005SOL    HW137854   1.373   1.760  13.612
12005SOL    HW237855   1.468   1.857  13.677
12006SOL     OW37856   4.400   8.817   8.552
12006SOL    HW137857   4.383   8.890   8.613
12006SOL    HW237858   4.391   8.739   8.606
12007SOL     OW37859  13.209   5.007  12.764
12007SOL    HW137860  13.202   4.942  12.835
12007SOL    HW237861  13.145   4.978  12.699
12008SOL     OW37862   1.339   9.122  12.449
12008SOL    HW137863   1.326   9.124  12.354
12008SOL    HW237864   1.427   9.087  12.460
12009SOL     OW37865  13.713   3.305  12.218
12009SOL    HW137866  13.745   3.264  12.298
12009SOL    HW237867  13.618   3.311  12.231
12010SOL     OW37868  10.139   9.271   9.951
12010SOL    HW137869  10.084   9.349   9.946
12010SOL    HW237870  10.118   9.233  10.036
12011SOL     OW37871   4.680   5.312   8.906
12011SOL    HW137872   4.676   5.400   8.869
12011SOL    HW237873   4.608   5.265   8.865
12012SOL     OW37874   5.655   0.456   8.279
12012SOL    HW137875   5.731   0.512   8.267
12012SOL    HW237876   5.588   0.494   8.222
12013SOL     OW37877   0.483   9.437   7.940
12013SOL    HW137878   0.469   9.371   8.008
12013SOL    HW237879   0.577   9.438   7.924
12014SOL     OW37880   3.451  11.302   0.436
12014SOL    HW137881   3.373  11.289   0.491
12014SOL    HW237882   3.438  11.242   0.363
12015SOL     OW37883   1.105   4.419  13.222
12015SOL    HW137884   1.167   4.385  13.158
12015SOL    HW237885   1.027   4.441  13.170
12016SOL     OW37886  13.619   2.748   7.743
12016SOL    HW137887  13.595   2.662   7.778
12016SOL    HW237888  13.689   2.730   7.680
12017SOL     OW37889   4.828   4.702  12.761
12017SOL    HW137890   4.738   4.677  12.780
12017SOL    HW237891   4.826   4.731  12.670
12018SOL     OW37892  12.133  10.567   1.389
12018SOL    HW137893  12.165  10.640   1.337
12018SOL    HW237894  12.125  10.495   1.327
12019SOL     OW37895  10.459  12.652  10.785
12019SOL    HW137896  10.485  12.606  10.705
12019SOL    HW237897  10.363  12.652  10.783
12020SOL     OW37898   3.703   6.606  13.901
12020SOL    HW137899   3.772   6.671  13.911
12020SOL    HW237900   3.632   6.653  13.856
12021SOL     OW37901   5.244   6.116   0.785
12021SOL    HW137902   5.260   6.071   0.702
12021SOL    HW237903   5.191   6.055   0.836
12022SOL     OW37904   3.623  12.903  11.601
12022SOL    HW137905   3.557  12.953  11.554
12022SOL    HW237906   3.706  12.932  11.564
12023SOL     OW37907  12.124  10.449   9.196
12023SOL    HW137908  12.044  10.396   9.205
12023SOL    HW237909  12.096  10.527   9.148
12024SOL     OW37910  12.570   8.012   0.410
12024SOL    HW137911  12.573   8.089   0.466
12024SOL    HW237912  12.497   7.961   0.445
12025SOL     OW37913   8.183   0.534   0.378
12025SOL    HW137914   8.089   0.536   0.361
12025SOL    HW237915   8.200   0.447   0.414
12026SOL     OW37916   7.397   0.019   2.080
12026SOL    HW137917   7.340  14.860   2.011
12026SOL    HW237918   7.386  14.830   2.152
12027SOL     OW37919   3.503  13.435  12.045
12027SOL    HW137920   3.497  13.512  11.990
12027SOL    HW237921   3.412  13.408  12.058
12028SOL     OW37922  12.817   8.234   1.937
12028SOL    HW137923  12.874   8.261   2.009
12028SOL    HW237924  12.873   8.182   1.880
12029SOL     OW37925  11.284  12.864   3.217
12029SOL    HW137926  11.357  12.886   3.276
12029SOL    HW237927  11.294  12.770   3.202
12030SOL     OW37928  12.859   7.505   7.270
12030SOL    HW137929  12.800   7.513   7.345
12030SOL    HW237930  12.837   7.420   7.232
12031SOL     OW37931  14.605   9.181  12.477
12031SOL    HW137932  14.572   9.209  12.391
12031SOL    HW237933  14.698   9.163  12.462
12032SOL     OW37934   7.336   0.495   5.012
12032SOL    HW137935   7.286   0.466   4.936
12032SOL    HW237936   7.408   0.547   4.975
12033SOL     OW37937   3.266   4.287   2.125
12033SOL    HW137938   3.249   4.250   2.038
12033SOL    HW237939   3.316   4.367   2.107
12034SOL     OW37940   0.373  13.724   3.708
12034SOL    HW137941   0.318  13.794   3.674
12034SOL    HW237942   0.323  13.685   3.779
12035SOL     OW37943  13.873  14.422  11.490
12035SOL    HW137944  13.892  14.428  11.584
12035SOL    HW237945  13.777  14.430  11.485
12036SOL     OW37946   2.290   2.870   5.862
12036SOL    HW137947   2.340   2.830   5.934
12036SOL    HW237948   2.357   2.904   5.803
12037SOL     OW37949  14.004   1.894   8.543
12037SOL    HW137950  13.924   1.847   8.564
12037SOL    HW237951  14.023   1.945   8.622
12038SOL     OW37952  11.131  13.966   3.846
12038SOL    HW137953  11.074  13.902   3.805
12038SOL    HW237954  11.109  14.049   3.803
12039SOL     OW37955  10.397  11.923  11.829
12039SOL    HW137956  10.465  11.949  11.767
12039SOL    HW237957  10.360  12.006  11.861
12040SOL     OW37958  10.524  10.921   4.457
12040SOL    HW137959  10.483  11.000   4.422
12040SOL    HW237960  10.541  10.942   4.549
12041SOL     OW37961   9.519   1.317   1.012
12041SOL    HW137962   9.553   1.379   0.947
12041SOL    HW237963   9.429   1.344   1.026
12042SOL     OW37964   5.688  14.645   7.878
12042SOL    HW137965   5.594  14.630   7.887
12042SOL    HW237966   5.710  14.610   7.792
12043SOL     OW37967   1.096  12.028   9.088
12043SOL    HW137968   1.012  12.036   9.043
12043SOL    HW237969   1.106  12.111   9.135
12044SOL     OW37970   7.820   5.719  10.153
12044SOL    HW137971   7.828   5.727  10.248
12044SOL    HW237972   7.910   5.729  10.121
12045SOL     OW37973   4.446   8.449   2.839
12045SOL    HW137974   4.537   8.459   2.867
12045SOL    HW237975   4.435   8.355   2.826
12046SOL     OW37976   4.037  14.762   9.974
12046SOL    HW137977   4.037  14.695   9.906
12046SOL    HW237978   4.022  14.713  10.055
12047SOL     OW37979   1.280   7.014   9.263
12047SOL    HW137980   1.328   6.986   9.185
12047SOL    HW237981   1.199   6.963   9.262
12048SOL     OW37982  13.770   8.464   9.174
12048SOL    HW137983  13.734   8.527   9.111
12048SOL    HW237984  13.842   8.511   9.217
12049SOL     OW37985   4.902   1.535  14.693
12049SOL    HW137986   4.986   1.489  14.688
12049SOL    HW237987   4.883   1.540  14.787
12050SOL     OW37988  10.153  10.654   2.724
12050SOL    HW137989  10.097  10.731   2.735
12050SOL    HW237990  10.193  10.641   2.810
12051SOL     OW37991   8.896   3.163  12.635
12051SOL    HW137992   8.843   3.242  12.651
12051SOL    HW237993   8.926   3.173  12.545
12052SOL     OW37994   4.745  11.061   9.461
12052SOL    HW137995   4.689  10.985   9.447
12052SOL    HW237996   4.725  11.089   9.551
12053SOL     OW37997   5.875   8.309  14.614
12053SOL    HW137998   5.953   8.364  14.614
12053SOL    HW237999   5.849   8.305  14.706
12054SOL     OW38000   1.943  11.688   8.221
12054SOL    HW138001   1.996  11.762   8.252
12054SOL    HW238002   1.982  11.612   8.263
12055SOL     OW38003  12.975   1.437  12.732
12055SOL    HW138004  12.891   1.479  12.717
12055SOL    HW238005  12.963   1.389  12.814
12056SOL     OW38006   4.030   0.662  11.199
12056SOL    HW138007   4.115   0.698  11.174
12056SOL    HW238008   4.036   0.569  11.176
12057SOL     OW38009  14.187  13.776   4.995
12057SOL    HW138010  14.201  13.806   5.085
12057SOL    HW238011  14.100  13.808   4.972
12058SOL     OW38012  12.253   3.475   0.766
12058SOL    HW138013  12.256   3.483   0.861
12058SOL    HW238014  12.210   3.391   0.750
12059SOL     OW38015   4.979  11.196   8.244
12059SOL    HW138016   4.936  11.114   8.268
12059SOL    HW238017   4.908  11.252   8.214
12060SOL     OW38018   8.407  12.094  10.749
12060SOL    HW138019   8.371  12.074  10.662
12060SOL    HW238020   8.481  12.034  10.758
12061SOL     OW38021   7.864  13.082   9.243
12061SOL    HW138022   7.785  13.128   9.218
12061SOL    HW238023   7.833  13.001   9.284
12062SOL     OW38024  14.204  12.665   6.260
12062SOL    HW138025  14.148  12.602   6.215
12062SOL    HW238026  14.256  12.612   6.321
12063SOL     OW38027  11.856   2.659   1.613
12063SOL    HW138028  11.801   2.637   1.688
12063SOL    HW238029  11.855   2.581   1.558
12064SOL     OW38030   7.927   6.814   6.211
12064SOL    HW138031   7.941   6.731   6.257
12064SOL    HW238032   7.885   6.871   6.275
12065SOL     OW38033  11.871   1.109  11.974
12065SOL    HW138034  11.848   1.202  11.971
12065SOL    HW238035  11.792   1.066  12.008
12066SOL     OW38036   2.971  10.197  12.779
12066SOL    HW138037   3.045  10.139  12.760
12066SOL    HW238038   3.000  10.283  12.751
12067SOL     OW38039  10.004   0.276  12.694
12067SOL    HW138040   9.913   0.256  12.673
12067SOL    HW238041  10.052   0.197  12.669
12068SOL     OW38042  13.290   8.008  10.979
12068SOL    HW138043  13.327   8.066  11.045
12068SOL    HW238044  13.327   8.039  10.896
12069SOL     OW38045  13.033   3.429   3.775
12069SOL    HW138046  12.992   3.356   3.729
12069SOL    HW238047  12.963   3.493   3.787
12070SOL     OW38048   1.631  11.855  13.914
12070SOL    HW138049   1.702  11.879  13.855
12070SOL    HW238050   1.663  11.778  13.961
12071SOL     OW38051   1.999   2.693   9.678
12071SOL    HW138052   1.914   2.738   9.680
12071SOL    HW238053   2.037   2.709   9.764
12072SOL     OW38054   9.480   1.874  11.072
12072SOL    HW138055   9.574   1.876  11.055
12072SOL    HW238056   9.444   1.815  11.005
12073SOL     OW38057  13.807   0.506  14.767
12073SOL    HW138058  13.856   0.555  14.701
12073SOL    HW238059  13.861   0.429  14.785
12074SOL     OW38060  10.743   8.815  14.443
12074SOL    HW138061  10.833   8.792  14.463
12074SOL    HW238062  10.694   8.794  14.522
12075SOL     OW38063   9.213   4.234   6.937
12075SOL    HW138064   9.216   4.236   6.842
12075SOL    HW238065   9.122   4.212   6.958
12076SOL     OW38066   5.933  11.088  11.085
12076SOL    HW138067   5.848  11.110  11.049
12076SOL    HW238068   5.955  11.003  11.046
12077SOL     OW38069   0.972   3.740  11.934
12077SOL    HW138070   1.055   3.740  11.886
12077SOL    HW238071   0.997   3.718  12.024
12078SOL     OW38072   5.195  12.123   6.780
12078SOL    HW138073   5.110  12.163   6.762
12078SOL    HW238074   5.196  12.043   6.727
12079SOL     OW38075  14.768   0.906  13.218
12079SOL    HW138076  14.843   0.879  13.165
12079SOL    HW238077  14.718   0.965  13.161
12080SOL     OW38078   5.308   1.541   7.606
12080SOL    HW138079   5.336   1.611   7.548
12080SOL    HW238080   5.341   1.461   7.565
12081SOL     OW38081   3.297  14.245   2.975
12081SOL    HW138082   3.250  14.255   2.893
12081SOL    HW238083   3.260  14.166   3.014
12082SOL     OW38084   5.587   0.122  10.748
12082SOL    HW138085   5.578   0.027  10.755
12082SOL    HW238086   5.624   0.137  10.661
12083SOL     OW38087  11.116  13.130   1.371
12083SOL    HW138088  11.148  13.074   1.301
12083SOL    HW238089  11.145  13.088   1.452
12084SOL     OW38090  13.854  12.500   4.648
12084SOL    HW138091  13.844  12.595   4.642
12084SOL    HW238092  13.919  12.487   4.717
12085SOL     OW38093  13.286   2.147   3.472
12085SOL    HW138094  13.251   2.198   3.546
12085SOL    HW238095  13.344   2.208   3.426
12086SOL     OW38096  12.446   4.175   7.082
12086SOL    HW138097  12.533   4.199   7.113
12086SOL    HW238098  12.386   4.210   7.149
12087SOL     OW38099   8.111   7.105   9.066
12087SOL    HW138100   8.187   7.160   9.088
12087SOL    HW238101   8.035   7.158   9.090
12088SOL     OW38102  14.738   8.701   2.179
12088SOL    HW138103  14.810   8.759   2.203
12088SOL    HW238104  14.779   8.635   2.123
12089SOL     OW38105  13.319  10.403   4.102
12089SOL    HW138106  13.304  10.308   4.104
12089SOL    HW238107  13.231  10.441   4.108
12090SOL     OW38108   9.340  10.538  12.298
12090SOL    HW138109   9.326  10.520  12.391
12090SOL    HW238110   9.265  10.591  12.272
12091SOL     OW38111  11.357   8.041   1.889
12091SOL    HW138112  11.449   8.064   1.902
12091SOL    HW238113  11.315   8.123   1.861
12092SOL     OW38114   9.788   3.113  13.339
12092SOL    HW138115   9.697   3.116  13.368
12092SOL    HW238116   9.784   3.076  13.251
12093SOL     OW38117   4.269   9.556   6.996
12093SOL    HW138118   4.306   9.476   7.033
12093SOL    HW238119   4.330   9.582   6.927
12094SOL     OW38120  13.683   2.069   3.963
12094SOL    HW138121  13.706   1.983   3.929
12094SOL    HW238122  13.669   2.055   4.057
12095SOL     OW38123   7.597  10.372   5.931
12095SOL    HW138124   7.562  10.286   5.957
12095SOL    HW238125   7.670  10.387   5.991
12096SOL     OW38126  13.734   3.594   6.555
12096SOL    HW138127  13.675   3.588   6.480
12096SOL    HW238128  13.782   3.511   6.554
12097SOL     OW38129   9.295   7.833  10.930
12097SOL    HW138130   9.357   7.767  10.959
12097SOL    HW238131   9.300   7.832  10.835
12098SOL     OW38132   6.728   6.880   6.070
12098SOL    HW138133   6.746   6.868   6.163
12098SOL    HW238134   6.791   6.946   6.041
12099SOL     OW38135  13.754   1.972   2.876
12099SOL    HW138136  13.738   2.037   2.808
12099SOL    HW238137  13.776   1.892   2.829
12100SOL     OW38138   1.176  12.681   7.094
12100SOL    HW138139   1.179  12.776   7.106
12100SOL    HW238140   1.127  12.649   7.170
12101SOL     OW38141   3.523  14.794  13.433
12101SOL    HW138142   3.613  14.775  13.407
12101SOL    HW238143   3.473  14.717  13.405
12102SOL     OW38144  13.034  11.634   3.824
12102SOL    HW138145  13.022  11.725   3.798
12102SOL    HW238146  13.010  11.632   3.916
12103SOL     OW38147   1.662   0.315   8.474
12103SOL    HW138148   1.660   0.302   8.569
12103SOL    HW238149   1.570   0.324   8.449
12104SOL     OW38150   7.097   5.520  14.014
12104SOL    HW138151   7.022   5.523  13.954
12104SOL    HW238152   7.099   5.606  14.055
12105SOL     OW38153   2.967   6.406   0.456
12105SOL    HW138154   2.909   6.463   0.406
12105SOL    HW238155   2.909   6.352   0.509
12106SOL     OW38156   2.488   8.802   4.428
12106SOL    HW138157   2.522   8.798   4.338
12106SOL    HW238158   2.566   8.792   4.483
12107SOL     OW38159   3.012   0.339  14.789
12107SOL    HW138160   2.972   0.254  14.768
12107SOL    HW238161   2.980   0.360   0.004
12108SOL     OW38162   1.908   0.529  14.446
12108SOL    HW138163   1.816   0.547  14.428
12108SOL    HW238164   1.954   0.608  14.416
12109SOL     OW38165  11.499   5.591  12.039
12109SOL    HW138166  11.431   5.532  12.071
12109SOL    HW238167  11.536   5.630  12.118
12110SOL     OW38168   4.250   4.307  11.436
12110SOL    HW138169   4.244   4.401  11.454
12110SOL    HW238170   4.202   4.266  11.507
12111SOL     OW38171  12.714  11.126   9.388
12111SOL    HW138172  12.647  11.193   9.404
12111SOL    HW238173  12.744  11.101   9.475
12112SOL     OW38174   8.344   9.916   8.941
12112SOL    HW138175   8.368   9.985   9.003
12112SOL    HW238176   8.417   9.911   8.880
12113SOL     OW38177   9.585  13.109  13.504
12113SOL    HW138178   9.583  13.040  13.438
12113SOL    HW238179   9.649  13.077  13.569
12114SOL     OW38180  11.253   8.409  11.125
12114SOL    HW138181  11.184   8.390  11.062
12114SOL    HW238182  11.321   8.452  11.074
12115SOL     OW38183   6.153  12.917  11.136
12115SOL    HW138184   6.121  12.871  11.058
12115SOL    HW238185   6.248  12.916  11.127
12116SOL     OW38186   6.929   5.370   1.259
12116SOL    HW138187   6.869   5.299   1.235
12116SOL    HW238188   6.941   5.420   1.178
12117SOL     OW38189   7.347   0.316   9.627
12117SOL    HW138190   7.265   0.286   9.667
12117SOL    HW238191   7.337   0.411   9.621
12118SOL     OW38192  10.468   7.158  11.659
12118SOL    HW138193  10.525   7.086  11.686
12118SOL    HW238194  10.402   7.164  11.728
12119SOL     OW38195  12.853   4.369   7.346
12119SOL    HW138196  12.945   4.359   7.323
12119SOL    HW238197  12.849   4.345   7.438
12120SOL     OW38198   2.587  11.851   0.923
12120SOL    HW138199   2.628  11.769   0.895
12120SOL    HW238200   2.529  11.875   0.851
12121SOL     OW38201   2.900   3.555   5.927
12121SOL    HW138202   2.865   3.634   5.886
12121SOL    HW238203   2.877   3.564   6.019
12122SOL     OW38204   3.520  14.737   9.948
12122SOL    HW138205   3.493  14.665   9.892
12122SOL    HW238206   3.490  14.712  10.036
12123SOL     OW38207   8.220   9.334   4.178
12123SOL    HW138208   8.229   9.417   4.131
12123SOL    HW238209   8.270   9.348   4.259
12124SOL     OW38210  14.210  10.441   2.089
12124SOL    HW138211  14.142  10.454   2.023
12124SOL    HW238212  14.162  10.421   2.170
12125SOL     OW38213   0.685  12.569   7.357
12125SOL    HW138214   0.710  12.588   7.447
12125SOL    HW238215   0.718  12.643   7.306
12126SOL     OW38216   5.816  14.220  10.843
12126SOL    HW138217   5.824  14.125  10.854
12126SOL    HW238218   5.745  14.244  10.903
12127SOL     OW38219   2.299   9.172   3.855
12127SOL    HW138220   2.252   9.232   3.914
12127SOL    HW238221   2.388   9.207   3.852
12128SOL     OW38222   9.249  13.741  14.264
12128SOL    HW138223   9.293  13.667  14.304
12128SOL    HW238224   9.270  13.734  14.171
12129SOL     OW38225   7.574   3.780  13.199
12129SOL    HW138226   7.573   3.872  13.224
12129SOL    HW238227   7.530   3.735  13.271
12130SOL     OW38228   4.105  11.945   2.580
12130SOL    HW138229   4.055  11.963   2.660
12130SOL    HW238230   4.182  12.002   2.587
12131SOL     OW38231  12.275  10.643  11.285
12131SOL    HW138232  12.298  10.691  11.206
12131SOL    HW238233  12.354  10.647  11.340
12132SOL     OW38234   7.930   3.903  14.387
12132SOL    HW138235   7.885   3.877  14.306
12132SOL    HW238236   7.913   3.831  14.448
12133SOL     OW38237   7.175   7.323   4.782
12133SOL    HW138238   7.164   7.281   4.697
12133SOL    HW238239   7.088   7.356   4.804
12134SOL     OW38240   9.755   0.049   9.830
12134SOL    HW138241   9.730  14.836   9.796
12134SOL    HW238242   9.741   0.109   9.756
12135SOL     OW38243  11.443   8.906  12.946
12135SOL    HW138244  11.491   8.839  12.993
12135SOL    HW238245  11.393   8.952  13.013
12136SOL     OW38246   5.555   8.316  10.215
12136SOL    HW138247   5.463   8.330  10.237
12136SOL    HW238248   5.588   8.259  10.285
12137SOL     OW38249   3.122  10.464   3.916
12137SOL    HW138250   3.215  10.451   3.897
12137SOL    HW238251   3.119  10.547   3.963
12138SOL     OW38252   1.186   0.504   1.644
12138SOL    HW138253   1.100   0.519   1.683
12138SOL    HW238254   1.246   0.497   1.718
12139SOL     OW38255  11.007   5.234   8.340
12139SOL    HW138256  11.005   5.325   8.369
12139SOL    HW238257  11.089   5.199   8.375
12140SOL     OW38258  12.067  14.809   7.700
12140SOL    HW138259  11.980  14.793   7.734
12140SOL    HW238260  12.108  14.722   7.696
12141SOL     OW38261   3.449  11.763  12.047
12141SOL    HW138262   3.358  11.791  12.040
12141SOL    HW238263   3.462  11.704  11.973
12142SOL     OW38264  10.579   1.801   2.099
12142SOL    HW138265  10.486   1.820   2.083
12142SOL    HW238266  10.584   1.787   2.194
12143SOL     OW38267   5.257  13.413   0.142
12143SOL    HW138268   5.231  13.491   0.192
12143SOL    HW238269   5.340  13.437   0.101
12144SOL     OW38270   6.259   4.199   7.907
12144SOL    HW138271   6.247   4.229   7.998
12144SOL    HW238272   6.304   4.272   7.864
12145SOL     OW38273   2.152   7.551   1.116
12145SOL    HW138274   2.129   7.477   1.060
12145SOL    HW238275   2.153   7.514   1.205
12146SOL     OW38276  10.651  10.304   0.857
12146SOL    HW138277  10.703  10.375   0.820
12146SOL    HW238278  10.713  10.254   0.910
12147SOL     OW38279   0.646   0.348   3.954
12147SOL    HW138280   0.565   0.398   3.945
12147SOL    HW238281   0.626   0.282   4.020
12148SOL     OW38282  11.116   2.876   4.601
12148SOL    HW138283  11.040   2.893   4.545
12148SOL    HW238284  11.190   2.908   4.551
12149SOL     OW38285  12.020   4.766   8.272
12149SOL    HW138286  12.059   4.679   8.284
12149SOL    HW238287  12.003   4.772   8.178
12150SOL     OW38288   6.217   6.763   8.867
12150SOL    HW138289   6.206   6.855   8.894
12150SOL    HW238290   6.177   6.759   8.780
12151SOL     OW38291  12.182   5.704  13.784
12151SOL    HW138292  12.107   5.763  13.785
12151SOL    HW238293  12.251   5.753  13.740
12152SOL     OW38294   1.051   8.138   2.787
12152SOL    HW138295   1.044   8.043   2.795
12152SOL    HW238296   0.964   8.167   2.760
12153SOL     OW38297   5.525   3.809  13.889
12153SOL    HW138298   5.457   3.801  13.955
12153SOL    HW238299   5.485   3.862  13.819
12154SOL     OW38300   2.390  10.194   8.306
12154SOL    HW138301   2.295  10.192   8.316
12154SOL    HW238302   2.422  10.129   8.369
12155SOL     OW38303   7.052   2.582   6.719
12155SOL    HW138304   6.957   2.572   6.723
12155SOL    HW238305   7.074   2.627   6.801
12156SOL     OW38306   9.823   1.110   1.086
12156SOL    HW138307   9.803   1.196   1.050
12156SOL    HW238308   9.759   1.098   1.157
12157SOL     OW38309  10.992   9.424   4.170
12157SOL    HW138310  10.943   9.483   4.112
12157SOL    HW238311  10.954   9.439   4.256
12158SOL     OW38312   4.436   8.305   9.785
12158SOL    HW138313   4.448   8.397   9.763
12158SOL    HW238314   4.513   8.283   9.838
12159SOL     OW38315  13.384  12.960   3.452
12159SOL    HW138316  13.455  12.899   3.471
12159SOL    HW238317  13.401  12.989   3.362
12160SOL     OW38318  13.055   6.981   7.079
12160SOL    HW138319  12.963   7.001   7.097
12160SOL    HW238320  13.058   6.885   7.072
12161SOL     OW38321   3.172   8.983   2.552
12161SOL    HW138322   3.170   9.010   2.461
12161SOL    HW238323   3.246   8.922   2.558
12162SOL     OW38324   0.146   3.829  14.055
12162SOL    HW138325   0.221   3.812  13.998
12162SOL    HW238326   0.072   3.787  14.011
12163SOL     OW38327   4.813   9.477   2.392
12163SOL    HW138328   4.857   9.550   2.435
12163SOL    HW238329   4.806   9.504   2.300
12164SOL     OW38330  13.163   2.994  12.717
12164SOL    HW138331  13.150   2.979  12.811
12164SOL    HW238332  13.081   3.033  12.687
12165SOL     OW38333  11.005   5.416   3.655
12165SOL    HW138334  10.926   5.460   3.622
12165SOL    HW238335  11.019   5.454   3.742
12166SOL     OW38336   6.310  12.646  10.849
12166SOL    HW138337   6.279  12.556  10.864
12166SOL    HW238338   6.248  12.682  10.787
12167SOL     OW38339   7.925   1.312  14.724
12167SOL    HW138340   7.887   1.343  14.806
12167SOL    HW238341   7.871   1.237  14.699
12168SOL     OW38342   2.640   5.051  11.195
12168SOL    HW138343   2.658   5.014  11.281
12168SOL    HW238344   2.725   5.086  11.166
12169SOL     OW38345   1.733   7.128   9.725
12169SOL    HW138346   1.677   7.102   9.798
12169SOL    HW238347   1.677   7.183   9.669
12170SOL     OW38348   2.005   0.859  11.792
12170SOL    HW138349   2.033   0.829  11.878
12170SOL    HW238350   2.040   0.948  11.784
12171SOL     OW38351   2.071   4.198   5.222
12171SOL    HW138352   2.040   4.110   5.199
12171SOL    HW238353   2.151   4.209   5.171
12172SOL     OW38354   4.583   9.209   9.986
12172SOL    HW138355   4.657   9.262   9.956
12172SOL    HW238356   4.583   9.221  10.081
12173SOL     OW38357   2.431  14.302   3.445
12173SOL    HW138358   2.502  14.269   3.390
12173SOL    HW238359   2.464  14.290   3.535
12174SOL     OW38360   1.375  12.911   9.337
12174SOL    HW138361   1.357  13.006   9.335
12174SOL    HW238362   1.468  12.905   9.357
12175SOL     OW38363  13.713   6.730   4.909
12175SOL    HW138364  13.785   6.677   4.875
12175SOL    HW238365  13.679   6.776   4.832
12176SOL     OW38366  11.540   0.101  11.138
12176SOL    HW138367  11.599   0.074  11.067
12176SOL    HW238368  11.506   0.018  11.173
12177SOL     OW38369   1.382   1.693   5.995
12177SOL    HW138370   1.329   1.648   5.929
12177SOL    HW238371   1.404   1.625   6.059
12178SOL     OW38372  12.286  12.194   7.287
12178SOL    HW138373  12.236  12.180   7.206
12178SOL    HW238374  12.274  12.112   7.336
12179SOL     OW38375  10.434  13.995   3.649
12179SOL    HW138376  10.471  13.908   3.666
12179SOL    HW238377  10.341  13.985   3.667
12180SOL     OW38378   9.329   7.089   0.542
12180SOL    HW138379   9.255   7.108   0.599
12180SOL    HW238380   9.364   7.175   0.518
12181SOL     OW38381  14.670   2.352  12.592
12181SOL    HW138382  14.692   2.296  12.666
12181SOL    HW238383  14.616   2.422  12.630
12182SOL     OW38384   4.206   1.749  10.633
12182SOL    HW138385   4.138   1.697  10.675
12182SOL    HW238386   4.285   1.729  10.683
12183SOL     OW38387  14.717  11.980   8.372
12183SOL    HW138388  14.664  11.923   8.317
12183SOL    HW238389  14.779  12.021   8.312
12184SOL     OW38390   6.486   3.659   4.818
12184SOL    HW138391   6.448   3.655   4.730
12184SOL    HW238392   6.444   3.586   4.865
12185SOL     OW38393   6.164   2.510   1.907
12185SOL    HW138394   6.109   2.588   1.895
12185SOL    HW238395   6.109   2.437   1.879
12186SOL     OW38396   4.067  13.094   5.803
12186SOL    HW138397   3.981  13.065   5.832
12186SOL    HW238398   4.128  13.052   5.864
12187SOL     OW38399   8.971   6.373   4.392
12187SOL    HW138400   9.005   6.421   4.467
12187SOL    HW238401   9.048   6.352   4.340
12188SOL     OW38402  12.466   9.696  11.754
12188SOL    HW138403  12.413   9.616  11.747
12188SOL    HW238404  12.555   9.665  11.767
12189SOL     OW38405   7.996   8.062   1.788
12189SOL    HW138406   7.918   8.080   1.735
12189SOL    HW238407   8.051   8.140   1.777
12190SOL     OW38408   9.858   5.230   9.945
12190SOL    HW138409   9.918   5.262   9.879
12190SOL    HW238410   9.775   5.217   9.899
12191SOL     OW38411   6.269   2.694   8.844
12191SOL    HW138412   6.239   2.743   8.920
12191SOL    HW238413   6.359   2.723   8.831
12192SOL     OW38414  12.166   1.647  13.825
12192SOL    HW138415  12.156   1.631  13.919
12192SOL    HW238416  12.086   1.610  13.786
12193SOL     OW38417  10.308  10.060   7.399
12193SOL    HW138418  10.356   9.980   7.382
12193SOL    HW238419  10.222  10.046   7.360
12194SOL     OW38420  10.572   7.173   8.170
12194SOL    HW138421  10.546   7.135   8.086
12194SOL    HW238422  10.623   7.250   8.146
12195SOL     OW38423   6.044  12.527  14.543
12195SOL    HW138424   5.965  12.522  14.597
12195SOL    HW238425   6.012  12.531  14.453
12196SOL     OW38426  10.448   5.221   0.197
12196SOL    HW138427  10.363   5.240   0.157
12196SOL    HW238428  10.512   5.241   0.128
12197SOL     OW38429   7.617   7.656   2.422
12197SOL    HW138430   7.667   7.641   2.502
12197SOL    HW238431   7.551   7.587   2.422
12198SOL     OW38432   1.152   0.399   3.783
12198SOL    HW138433   1.095   0.467   3.819
12198SOL    HW238434   1.180   0.434   3.698
12199SOL     OW38435   4.174   8.932   8.065
12199SOL    HW138436   4.236   8.878   8.015
12199SOL    HW238437   4.201   8.919   8.157
12200SOL     OW38438   3.248   1.886   9.741
12200SOL    HW138439   3.292   1.971   9.732
12200SOL    HW238440   3.273   1.855   9.828
12201SOL     OW38441   6.667   8.243   9.427
12201SOL    HW138442   6.681   8.209   9.338
12201SOL    HW238443   6.573   8.258   9.432
12202SOL     OW38444   4.786   2.336   1.326
12202SOL    HW138445   4.858   2.330   1.389
12202SOL    HW238446   4.753   2.426   1.336
12203SOL     OW38447   7.843   3.953   8.700
12203SOL    HW138448   7.919   3.926   8.648
12203SOL    HW238449   7.839   3.889   8.771
12204SOL     OW38450   1.191   7.983   1.569
12204SOL    HW138451   1.245   8.034   1.630
12204SOL    HW238452   1.248   7.966   1.495
12205SOL     OW38453   8.481   1.034  14.129
12205SOL    HW138454   8.527   1.007  14.049
12205SOL    HW238455   8.425   1.107  14.101
12206SOL     OW38456   2.376   0.742   6.922
12206SOL    HW138457   2.412   0.667   6.970
12206SOL    HW238458   2.333   0.704   6.846
12207SOL     OW38459   9.567   1.100   1.243
12207SOL    HW138460   9.522   1.038   1.301
12207SOL    HW238461   9.497   1.137   1.190
12208SOL     OW38462  13.050   7.178   7.354
12208SOL    HW138463  12.980   7.205   7.414
12208SOL    HW238464  13.031   7.085   7.337
12209SOL     OW38465   4.513   5.151  10.436
12209SOL    HW138466   4.552   5.235  10.458
12209SOL    HW238467   4.579   5.087  10.463
12210SOL     OW38468   6.042   2.922   3.196
12210SOL    HW138469   6.084   2.962   3.272
12210SOL    HW238470   6.101   2.940   3.123
12211SOL     OW38471   6.087   1.116   7.965
12211SOL    HW138472   6.129   1.147   8.045
12211SOL    HW238473   6.122   1.172   7.896
12212SOL     OW38474   7.563   3.171   3.443
12212SOL    HW138475   7.528   3.082   3.438
12212SOL    HW238476   7.492   3.226   3.410
12213SOL     OW38477   4.998   5.048   5.954
12213SOL    HW138478   5.073   5.050   5.894
12213SOL    HW238479   4.945   5.124   5.928
12214SOL     OW38480  13.776   1.981   6.203
12214SOL    HW138481  13.833   1.918   6.245
12214SOL    HW238482  13.741   1.935   6.126
12215SOL     OW38483   1.409   7.426  13.717
12215SOL    HW138484   1.335   7.372  13.690
12215SOL    HW238485   1.471   7.421  13.645
12216SOL     OW38486   4.204  10.335   5.801
12216SOL    HW138487   4.233  10.280   5.729
12216SOL    HW238488   4.284  10.355   5.850
12217SOL     OW38489   1.946   7.731   3.485
12217SOL    HW138490   1.908   7.799   3.541
12217SOL    HW238491   2.021   7.699   3.535
12218SOL     OW38492   1.304   4.566  10.602
12218SOL    HW138493   1.290   4.475  10.627
12218SOL    HW238494   1.359   4.602  10.672
12219SOL     OW38495   9.399   2.794  14.132
12219SOL    HW138496   9.467   2.765  14.193
12219SOL    HW238497   9.433   2.771  14.045
12220SOL     OW38498  13.383   2.447   6.079
12220SOL    HW138499  13.310   2.389   6.101
12220SOL    HW238500  13.448   2.389   6.040
12221SOL     OW38501   4.314   2.907  14.605
12221SOL    HW138502   4.266   2.982  14.569
12221SOL    HW238503   4.403   2.918  14.570
12222SOL     OW38504  12.353  10.002   9.188
12222SOL    HW138505  12.299  10.002   9.109
12222SOL    HW238506  12.313  10.068   9.244
12223SOL     OW38507   3.250  10.443   7.524
12223SOL    HW138508   3.297  10.365   7.495
12223SOL    HW238509   3.241  10.496   7.444
12224SOL     OW38510   1.760  14.081   6.368
12224SOL    HW138511   1.804  14.013   6.419
12224SOL    HW238512   1.672  14.086   6.404
12225SOL     OW38513  11.418   9.111   3.756
12225SOL    HW138514  11.368   9.157   3.689
12225SOL    HW238515  11.463   9.180   3.805
12226SOL     OW38516   3.728  13.359  12.210
12226SOL    HW138517   3.777  13.437  12.237
12226SOL    HW238518   3.648  13.394  12.171
12227SOL     OW38519   0.748   7.840   1.423
12227SOL    HW138520   0.788   7.891   1.352
12227SOL    HW238521   0.656   7.864   1.421
12228SOL     OW38522   1.550  12.966   1.816
12228SOL    HW138523   1.556  13.058   1.793
12228SOL    HW238524   1.458  12.953   1.838
12229SOL     OW38525   4.522   7.504   3.454
12229SOL    HW138526   4.528   7.592   3.490
12229SOL    HW238527   4.595   7.498   3.392
12230SOL     OW38528  14.343   6.394   5.088
12230SOL    HW138529  14.426   6.402   5.135
12230SOL    HW238530  14.277   6.390   5.157
12231SOL     OW38531  10.946   7.758  12.713
12231SOL    HW138532  10.957   7.779  12.805
12231SOL    HW238533  10.979   7.668  12.705
12232SOL     OW38534   1.931   5.228   2.551
12232SOL    HW138535   2.006   5.173   2.571
12232SOL    HW238536   1.948   5.262   2.463
12233SOL     OW38537  12.206   1.407  11.769
12233SOL    HW138538  12.223   1.497  11.740
12233SOL    HW238539  12.228   1.406  11.862
12234SOL     OW38540   8.273   9.740   6.845
12234SOL    HW138541   8.222   9.792   6.907
12234SOL    HW238542   8.278   9.653   6.885
12235SOL     OW38543  12.737   6.579   0.645
12235SOL    HW138544  12.776   6.652   0.595
12235SOL    HW238545  12.798   6.565   0.717
12236SOL     OW38546  10.972   8.142   1.853
12236SOL    HW138547  11.005   8.077   1.915
12236SOL    HW238548  10.912   8.093   1.797
12237SOL     OW38549   4.929   1.978   5.220
12237SOL    HW138550   4.915   2.069   5.247
12237SOL    HW238551   5.002   1.948   5.274
12238SOL     OW38552   7.224  11.344   7.592
12238SOL    HW138553   7.165  11.307   7.657
12238SOL    HW238554   7.271  11.268   7.557
12239SOL     OW38555   5.869   9.654  11.307
12239SOL    HW138556   5.919   9.675  11.228
12239SOL    HW238557   5.780   9.685  11.288
12240SOL     OW38558   3.253   8.346   3.219
12240SOL    HW138559   3.223   8.284   3.285
12240SOL    HW238560   3.260   8.429   3.265
12241SOL     OW38561   4.345   8.066   4.412
12241SOL    HW138562   4.321   8.005   4.482
12241SOL    HW238563   4.416   8.118   4.450
12242SOL     OW38564   7.063   2.320   2.141
12242SOL    HW138565   7.051   2.249   2.204
12242SOL    HW238566   7.154   2.312   2.112
12243SOL     OW38567   1.923   6.106   2.353
12243SOL    HW138568   1.833   6.105   2.321
12243SOL    HW238569   1.951   6.015   2.349
12244SOL     OW38570   1.713   0.490   8.270
12244SOL    HW138571   1.795   0.485   8.222
12244SOL    HW238572   1.725   0.432   8.345
12245SOL     OW38573   2.418  14.790  13.289
12245SOL    HW138574   2.362  14.854  13.246
12245SOL    HW238575   2.485  14.843  13.332
12246SOL     OW38576   9.120  11.309   8.913
12246SOL    HW138577   9.139  11.223   8.951
12246SOL    HW238578   9.024  11.313   8.911
12247SOL     OW38579   2.404  13.443  11.616
12247SOL    HW138580   2.315  13.476  11.630
12247SOL    HW238581   2.444  13.446  11.702
12248SOL     OW38582   1.267   3.884  12.072
12248SOL    HW138583   1.298   3.953  12.012
12248SOL    HW238584   1.238   3.814  12.014
12249SOL     OW38585   1.317  14.087  13.627
12249SOL    HW138586   1.246  14.030  13.656
12249SOL    HW238587   1.362  14.112  13.707
12250SOL     OW38588  12.663   4.789  13.476
12250SOL    HW138589  12.603   4.717  13.456
12250SOL    HW238590  12.609   4.855  13.518
12251SOL     OW38591   4.057   4.685  11.103
12251SOL    HW138592   4.021   4.769  11.075
12251SOL    HW238593   4.106   4.653  11.027
12252SOL     OW38594   0.387   4.277  13.144
12252SOL    HW138595   0.367   4.193  13.103
12252SOL    HW238596   0.418   4.254  13.231
12253SOL     OW38597  13.716   6.342   7.597
12253SOL    HW138598  13.676   6.257   7.616
12253SOL    HW238599  13.809   6.329   7.617
12254SOL     OW38600   6.159  10.049   5.068
12254SOL    HW138601   6.217  10.068   4.995
12254SOL    HW238602   6.172   9.956   5.085
12255SOL     OW38603  11.413   4.465   2.699
12255SOL    HW138604  11.357   4.456   2.622
12255SOL    HW238605  11.374   4.407   2.764
12256SOL     OW38606   6.913   6.500  11.093
12256SOL    HW138607   6.967   6.572  11.061
12256SOL    HW238608   6.826   6.517  11.056
12257SOL     OW38609   9.048   0.901   3.744
12257SOL    HW138610   8.960   0.863   3.740
12257SOL    HW238611   9.080   0.878   3.831
12258SOL     OW38612  14.685   4.914   8.013
12258SOL    HW138613  14.651   4.832   7.978
12258SOL    HW238614  14.705   4.895   8.104
12259SOL     OW38615   2.965   1.594   7.988
12259SOL    HW138616   2.994   1.570   8.076
12259SOL    HW238617   2.968   1.689   7.987
12260SOL     OW38618  13.706   7.878   9.544
12260SOL    HW138619  13.665   7.909   9.463
12260SOL    HW238620  13.796   7.858   9.519
12261SOL     OW38621   5.601  13.696  13.589
12261SOL    HW138622   5.657  13.718  13.663
12261SOL    HW238623   5.608  13.771  13.530
12262SOL     OW38624  10.738   3.258   4.012
12262SOL    HW138625  10.822   3.213   3.999
12262SOL    HW238626  10.723   3.304   3.929
12263SOL     OW38627  11.108  10.247   0.283
12263SOL    HW138628  11.197  10.280   0.291
12263SOL    HW238629  11.059  10.320   0.244
12264SOL     OW38630  10.030  11.669   8.954
12264SOL    HW138631   9.972  11.625   9.017
12264SOL    HW238632  10.004  11.634   8.869
12265SOL     OW38633   7.405   2.490   2.901
12265SOL    HW138634   7.434   2.456   2.816
12265SOL    HW238635   7.364   2.574   2.880
12266SOL     OW38636   3.627  13.229   5.094
12266SOL    HW138637   3.709  13.196   5.131
12266SOL    HW238638   3.569  13.239   5.169
12267SOL     OW38639  12.221  14.367   0.241
12267SOL    HW138640  12.242  14.385   0.333
12267SOL    HW238641  12.230  14.452   0.197
12268SOL     OW38642   4.028  14.371   7.727
12268SOL    HW138643   4.034  14.376   7.823
12268SOL    HW238644   4.033  14.463   7.698
12269SOL     OW38645  12.285   3.897  10.787
12269SOL    HW138646  12.369   3.907  10.832
12269SOL    HW238647  12.307   3.907  10.694
12270SOL     OW38648  14.530  12.825  12.604
12270SOL    HW138649  14.519  12.838  12.510
12270SOL    HW238650  14.446  12.792  12.633
12271SOL     OW38651  11.118   4.955  13.645
12271SOL    HW138652  11.170   4.993  13.716
12271SOL    HW238653  11.030   4.991  13.658
12272SOL     OW38654   6.070  10.811   0.765
12272SOL    HW138655   6.050  10.815   0.858
12272SOL    HW238656   6.057  10.719   0.741
12273SOL     OW38657   1.284   9.644   6.862
12273SOL    HW138658   1.323   9.567   6.904
12273SOL    HW238659   1.357   9.687   6.817
12274SOL     OW38660   7.791  12.171  14.157
12274SOL    HW138661   7.849  12.118  14.212
12274SOL    HW238662   7.704  12.160  14.195
12275SOL     OW38663   0.824   4.457  13.013
12275SOL    HW138664   0.765   4.519  13.055
12275SOL    HW238665   0.904   4.507  12.998
12276SOL     OW38666   2.540  10.723  12.118
12276SOL    HW138667   2.560  10.816  12.130
12276SOL    HW238668   2.472  10.721  12.051
12277SOL     OW38669   8.859   5.473  10.589
12277SOL    HW138670   8.906   5.537  10.536
12277SOL    HW238671   8.800   5.526  10.644
12278SOL     OW38672   6.276   9.003   2.394
12278SOL    HW138673   6.266   9.063   2.468
12278SOL    HW238674   6.371   8.998   2.380
12279SOL     OW38675  10.845  10.091   5.993
12279SOL    HW138676  10.876  10.007   6.027
12279SOL    HW238677  10.924  10.142   5.979
12280SOL     OW38678  10.695  12.089   9.165
12280SOL    HW138679  10.658  12.169   9.204
12280SOL    HW238680  10.646  12.018   9.206
12281SOL     OW38681   9.011   3.888   4.200
12281SOL    HW138682   9.093   3.867   4.155
12281SOL    HW238683   8.955   3.924   4.132
12282SOL     OW38684  11.815   3.684   7.824
12282SOL    HW138685  11.750   3.662   7.757
12282SOL    HW238686  11.774   3.755   7.874
12283SOL     OW38687   6.570  12.229  10.062
12283SOL    HW138688   6.526  12.277  10.133
12283SOL    HW238689   6.507  12.161  10.036
12284SOL     OW38690  10.916   3.091  12.333
12284SOL    HW138691  10.972   3.018  12.358
12284SOL    HW238692  10.961   3.169  12.366
12285SOL     OW38693  10.422   7.928  11.243
12285SOL    HW138694  10.374   7.861  11.194
12285SOL    HW238695  10.383   8.011  11.214
12286SOL     OW38696   3.010   7.306   0.871
12286SOL    HW138697   3.086   7.346   0.828
12286SOL    HW238698   3.023   7.212   0.862
12287SOL     OW38699   2.434   7.936   3.421
12287SOL    HW138700   2.371   7.889   3.366
12287SOL    HW238701   2.451   7.876   3.494
12288SOL     OW38702   4.482   6.922   0.860
12288SOL    HW138703   4.457   6.830   0.871
12288SOL    HW238704   4.577   6.920   0.850
12289SOL     OW38705   6.726  13.082   9.980
12289SOL    HW138706   6.739  13.059  10.072
12289SOL    HW238707   6.697  13.174   9.982
12290SOL     OW38708   1.883   5.832   0.612
12290SOL    HW138709   1.856   5.748   0.648
12290SOL    HW238710   1.948   5.865   0.673
12291SOL     OW38711   8.427   4.246   4.272
12291SOL    HW138712   8.370   4.191   4.218
12291SOL    HW238713   8.516   4.222   4.246
12292SOL     OW38714  10.143   0.046   5.206
12292SOL    HW138715  10.211  14.855   5.229
12292SOL    HW238716  10.075  14.867   5.165
12293SOL     OW38717   7.104   9.012  11.368
12293SOL    HW138718   7.118   8.965  11.286
12293SOL    HW238719   7.108   8.945  11.436
12294SOL     OW38720   8.406   6.049   0.166
12294SOL    HW138721   8.416   5.998   0.086
12294SOL    HW238722   8.492   6.091   0.179
12295SOL     OW38723  14.635   9.136   9.389
12295SOL    HW138724  14.564   9.143   9.452
12295SOL    HW238725  14.715   9.140   9.441
12296SOL     OW38726   1.008  11.681   7.369
12296SOL    HW138727   0.978  11.593   7.347
12296SOL    HW238728   1.057  11.710   7.292
12297SOL     OW38729   8.157  12.627  14.821
12297SOL    HW138730   8.242  12.587  14.838
12297SOL    HW238731   8.130  12.664   0.032
12298SOL     OW38732   0.432  11.723   2.451
12298SOL    HW138733   0.472  11.637   2.465
12298SOL    HW238734   0.453  11.745   2.360
12299SOL     OW38735   2.996  10.687  11.423
12299SOL    HW138736   3.052  10.658  11.351
12299SOL    HW238737   3.045  10.664  11.502
12300SOL     OW38738   3.894   9.018   1.787
12300SOL    HW138739   3.922   8.978   1.704
12300SOL    HW238740   3.974   9.024   1.839
12301SOL     OW38741  10.032   0.945   3.451
12301SOL    HW138742  10.060   0.983   3.535
12301SOL    HW238743   9.937   0.945   3.455
12302SOL     OW38744   3.039   8.524   9.343
12302SOL    HW138745   2.990   8.447   9.373
12302SOL    HW238746   3.112   8.531   9.405
12303SOL     OW38747   6.422   9.995   1.988
12303SOL    HW138748   6.419  10.054   1.912
12303SOL    HW238749   6.497  10.025   2.038
12304SOL     OW38750   6.409   4.176  10.844
12304SOL    HW138751   6.324   4.185  10.800
12304SOL    HW238752   6.434   4.266  10.866
12305SOL     OW38753  14.019   6.274   9.368
12305SOL    HW138754  13.987   6.254   9.456
12305SOL    HW238755  13.953   6.332   9.331
12306SOL     OW38756   3.678  13.566   2.964
12306SOL    HW138757   3.708  13.652   2.995
12306SOL    HW238758   3.651  13.520   3.043
12307SOL     OW38759  14.411  10.861  10.907
12307SOL    HW138760  14.418  10.942  10.957
12307SOL    HW238761  14.380  10.888  10.821
12308SOL     OW38762   4.202   3.357   0.074
12308SOL    HW138763   4.189   3.332  14.855
12308SOL    HW238764   4.296   3.369   0.082
12309SOL     OW38765   4.901   3.204   0.939
12309SOL    HW138766   4.867   3.199   1.029
12309SOL    HW238767   4.824   3.222   0.885
12310SOL     OW38768  10.995   8.339   2.037
12310SOL    HW138769  10.942   8.317   2.114
12310SOL    HW238770  10.957   8.286   1.967
12311SOL     OW38771   6.820  13.594   1.216
12311SOL    HW138772   6.861  13.581   1.130
12311SOL    HW238773   6.886  13.562   1.278
12312SOL     OW38774   1.512  14.562  13.583
12312SOL    HW138775   1.489  14.469  13.585
12312SOL    HW238776   1.522  14.583  13.491
12313SOL     OW38777  14.670   9.103   5.883
12313SOL    HW138778  14.671   9.052   5.803
12313SOL    HW238779  14.680   9.194   5.854
12314SOL     OW38780   1.978   4.806   0.851
12314SOL    HW138781   2.050   4.751   0.884
12314SOL    HW238782   1.999   4.820   0.759
12315SOL     OW38783   9.215   4.885  14.705
12315SOL    HW138784   9.219   4.819  14.635
12315SOL    HW238785   9.252   4.841  14.782
12316SOL     OW38786   7.966   9.460   6.657
12316SOL    HW138787   8.055   9.428   6.666
12316SOL    HW238788   7.951   9.513   6.735
12317SOL     OW38789   3.597   9.310   4.439
12317SOL    HW138790   3.639   9.252   4.375
12317SOL    HW238791   3.529   9.255   4.479
12318SOL     OW38792  11.919   1.788   5.717
12318SOL    HW138793  11.845   1.731   5.738
12318SOL    HW238794  11.949   1.759   5.631
12319SOL     OW38795   1.219  10.093   7.457
12319SOL    HW138796   1.292  10.060   7.406
12319SOL    HW238797   1.200  10.179   7.419
12320SOL     OW38798   9.962  11.821   5.068
12320SOL    HW138799  10.003  11.871   5.138
12320SOL    HW238800   9.887  11.874   5.041
12321SOL     OW38801   3.032   6.613   2.434
12321SOL    HW138802   3.019   6.645   2.523
12321SOL    HW238803   3.056   6.690   2.383
12322SOL     OW38804  14.521  10.707  14.170
12322SOL    HW138805  14.459  10.705  14.097
12322SOL    HW238806  14.556  10.797  14.168
12323SOL     OW38807   6.085   3.872   1.209
12323SOL    HW138808   6.064   3.889   1.301
12323SOL    HW238809   6.066   3.955   1.165
12324SOL     OW38810   3.395  14.004  12.370
12324SOL    HW138811   3.300  14.008  12.358
12324SOL    HW238812   3.410  14.041  12.457
12325SOL     OW38813  12.777   3.616   4.967
12325SOL    HW138814  12.818   3.581   5.046
12325SOL    HW238815  12.794   3.711   4.972
12326SOL     OW38816   5.582   8.027   7.248
12326SOL    HW138817   5.563   8.071   7.165
12326SOL    HW238818   5.597   8.098   7.310
12327SOL     OW38819   4.444  14.682   2.529
12327SOL    HW138820   4.384  14.716   2.463
12327SOL    HW238821   4.401  14.701   2.612
12328SOL     OW38822   5.710   7.057  11.240
12328SOL    HW138823   5.625   7.102  11.231
12328SOL    HW238824   5.742   7.085  11.325
12329SOL     OW38825   9.969   1.965  11.352
12329SOL    HW138826   9.984   1.956  11.446
12329SOL    HW238827   9.877   1.945  11.340
12330SOL     OW38828  13.830  13.548  11.486
12330SOL    HW138829  13.901  13.486  11.471
12330SOL    HW238830  13.854  13.592  11.568
12331SOL     OW38831  11.340   0.755   6.168
12331SOL    HW138832  11.282   0.808   6.114
12331SOL    HW238833  11.401   0.716   6.105
12332SOL     OW38834  11.419   6.941   5.971
12332SOL    HW138835  11.471   7.021   5.963
12332SOL    HW238836  11.378   6.930   5.885
12333SOL     OW38837   3.840   2.101   1.195
12333SOL    HW138838   3.796   2.170   1.146
12333SOL    HW238839   3.769   2.045   1.227
12334SOL     OW38840  13.434   2.177   9.265
12334SOL    HW138841  13.386   2.235   9.325
12334SOL    HW238842  13.445   2.229   9.185
12335SOL     OW38843  12.486   0.215   6.018
12335SOL    HW138844  12.394   0.200   5.997
12335SOL    HW238845  12.530   0.217   5.934
12336SOL     OW38846   7.483   4.171  14.109
12336SOL    HW138847   7.405   4.212  14.146
12336SOL    HW238848   7.550   4.183  14.176
12337SOL     OW38849   4.886   5.239   2.801
12337SOL    HW138850   4.822   5.300   2.838
12337SOL    HW238851   4.933   5.204   2.877
12338SOL     OW38852   9.155   4.058   8.257
12338SOL    HW138853   9.183   3.968   8.271
12338SOL    HW238854   9.062   4.051   8.233
12339SOL     OW38855  11.970   2.878   9.374
12339SOL    HW138856  11.948   2.801   9.321
12339SOL    HW238857  12.062   2.865   9.397
12340SOL     OW38858  11.020  13.700  11.810
12340SOL    HW138859  10.989  13.723  11.722
12340SOL    HW238860  10.996  13.608  11.821
12341SOL     OW38861   1.936   3.882  10.034
12341SOL    HW138862   1.974   3.798  10.007
12341SOL    HW238863   1.895   3.917   9.955
12342SOL     OW38864  14.796   8.454   1.003
12342SOL    HW138865  14.705   8.434   0.983
12342SOL    HW238866  14.843   8.372   0.985
12343SOL     OW38867  11.271  12.011  13.459
12343SOL    HW138868  11.222  11.929  13.461
12343SOL    HW238869  11.355  11.990  13.500
12344SOL     OW38870   3.457  10.842   1.396
12344SOL    HW138871   3.409  10.830   1.477
12344SOL    HW238872   3.431  10.928   1.364
12345SOL     OW38873  10.922  10.485  12.502
12345SOL    HW138874  10.853  10.422  12.480
12345SOL    HW238875  10.937  10.532  12.420
12346SOL     OW38876   2.138   6.455   0.633
12346SOL    HW138877   2.145   6.425   0.542
12346SOL    HW238878   2.106   6.378   0.680
12347SOL     OW38879   2.018   8.188   4.035
12347SOL    HW138880   1.954   8.227   4.094
12347SOL    HW238881   2.098   8.239   4.050
12348SOL     OW38882   3.592  12.257  10.134
12348SOL    HW138883   3.497  12.263  10.120
12348SOL    HW238884   3.603  12.266  10.228
12349SOL     OW38885  13.979   0.029  11.898
12349SOL    HW138886  13.969   0.117  11.863
12349SOL    HW238887  13.914  14.850  11.850
12350SOL     OW38888   1.839  10.699   7.699
12350SOL    HW138889   1.863  10.739   7.615
12350SOL    HW238890   1.745  10.717   7.708
12351SOL     OW38891   5.669   7.765  10.461
12351SOL    HW138892   5.736   7.797  10.400
12351SOL    HW238893   5.646   7.843  10.512
12352SOL     OW38894   7.893   7.840  12.179
12352SOL    HW138895   7.865   7.895  12.105
12352SOL    HW238896   7.839   7.869  12.252
12353SOL     OW38897   3.546  11.595   5.198
12353SOL    HW138898   3.465  11.606   5.248
12353SOL    HW238899   3.571  11.504   5.214
12354SOL     OW38900   2.320   4.135  12.915
12354SOL    HW138901   2.334   4.156  12.823
12354SOL    HW238902   2.407   4.142  12.955
12355SOL     OW38903  12.613   9.916   1.934
12355SOL    HW138904  12.606   9.967   2.014
12355SOL    HW238905  12.523   9.897   1.910
12356SOL     OW38906   7.468  13.332   7.123
12356SOL    HW138907   7.378  13.306   7.106
12356SOL    HW238908   7.500  13.268   7.187
12357SOL     OW38909   3.537   7.856   1.136
12357SOL    HW138910   3.484   7.850   1.216
12357SOL    HW238911   3.536   7.949   1.113
12358SOL     OW38912   1.800  14.432   9.350
12358SOL    HW138913   1.805  14.370   9.278
12358SOL    HW238914   1.868  14.404   9.411
12359SOL     OW38915  11.046   2.542   3.444
12359SOL    HW138916  11.058   2.459   3.398
12359SOL    HW238917  11.126   2.554   3.494
12360SOL     OW38918   0.016   5.030   4.340
12360SOL    HW138919   0.033   4.954   4.395
12360SOL    HW238920  14.798   5.052   4.358
12361SOL     OW38921   3.125  10.415  13.125
12361SOL    HW138922   3.179  10.357  13.072
12361SOL    HW238923   3.170  10.500  13.121
12362SOL     OW38924   4.976   7.579   2.340
12362SOL    HW138925   5.030   7.637   2.287
12362SOL    HW238926   4.930   7.524   2.277
12363SOL     OW38927   0.195   7.544   0.661
12363SOL    HW138928   0.130   7.598   0.618
12363SOL    HW238929   0.210   7.471   0.601
12364SOL     OW38930   6.480   8.815  13.332
12364SOL    HW138931   6.550   8.754  13.310
12364SOL    HW238932   6.415   8.805  13.262
12365SOL     OW38933  11.637   3.296  11.827
12365SOL    HW138934  11.713   3.243  11.805
12365SOL    HW238935  11.664   3.386  11.806
12366SOL     OW38936  11.346  11.068   2.940
12366SOL    HW138937  11.279  11.119   2.986
12366SOL    HW238938  11.369  10.998   3.001
12367SOL     OW38939   4.860   4.751   9.504
12367SOL    HW138940   4.774   4.778   9.472
12367SOL    HW238941   4.923   4.790   9.443
12368SOL     OW38942   8.633   9.737  11.213
12368SOL    HW138943   8.607   9.647  11.229
12368SOL    HW238944   8.616   9.783  11.296
12369SOL     OW38945   3.084   7.206   9.124
12369SOL    HW138946   3.033   7.219   9.045
12369SOL    HW238947   3.020   7.212   9.195
12370SOL     OW38948   3.578  14.333   6.030
12370SOL    HW138949   3.626  14.385   5.966
12370SOL    HW238950   3.512  14.393   6.066
12371SOL     OW38951   5.307  12.411   2.787
12371SOL    HW138952   5.297  12.333   2.842
12371SOL    HW238953   5.399  12.436   2.797
12372SOL     OW38954   3.406  12.567  11.484
12372SOL    HW138955   3.388  12.521  11.402
12372SOL    HW238956   3.371  12.655  11.470
12373SOL     OW38957   0.231   8.041   2.808
12373SOL    HW138958   0.189   8.124   2.787
12373SOL    HW238959   0.324   8.057   2.795
12374SOL     OW38960  12.498   2.441  11.212
12374SOL    HW138961  12.409   2.411  11.193
12374SOL    HW238962  12.546   2.361  11.236
12375SOL     OW38963   2.923  14.628  13.527
12375SOL    HW138964   2.974  14.703  13.559
12375SOL    HW238965   2.849  14.622  13.588
12376SOL     OW38966  13.852  11.440   0.164
12376SOL    HW138967  13.914  11.393   0.107
12376SOL    HW238968  13.792  11.372   0.194
12377SOL     OW38969   9.068  10.660   0.588
12377SOL    HW138970   9.144  10.629   0.540
12377SOL    HW238971   9.001  10.673   0.521
12378SOL     OW38972  13.098   1.299   1.791
12378SOL    HW138973  13.189   1.272   1.806
12378SOL    HW238974  13.048   1.254   1.859
12379SOL     OW38975   0.649   1.786  13.205
12379SOL    HW138976   0.714   1.728  13.165
12379SOL    HW238977   0.697   1.866  13.225
12380SOL     OW38978   3.184   6.812   7.461
12380SOL    HW138979   3.123   6.842   7.528
12380SOL    HW238980   3.199   6.888   7.406
12381SOL     OW38981  13.242   0.774   8.499
12381SOL    HW138982  13.292   0.780   8.417
12381SOL    HW238983  13.170   0.836   8.488
12382SOL     OW38984   2.498   4.502   7.928
12382SOL    HW138985   2.465   4.514   7.839
12382SOL    HW238986   2.588   4.471   7.916
12383SOL     OW38987   0.796  14.026  13.550
12383SOL    HW138988   0.841  14.109  13.567
12383SOL    HW238989   0.780  13.990  13.638
12384SOL     OW38990   5.593   6.306   3.684
12384SOL    HW138991   5.634   6.240   3.739
12384SOL    HW238992   5.610   6.276   3.594
12385SOL     OW38993  11.789   2.936  13.072
12385SOL    HW138994  11.805   2.974  12.986
12385SOL    HW238995  11.770   3.012  13.128
12386SOL     OW38996   6.349  13.400   4.760
12386SOL    HW138997   6.362  13.322   4.815
12386SOL    HW238998   6.293  13.457   4.814
12387SOL     OW38999   0.157   5.845  10.770
12387SOL    HW139000   0.183   5.894  10.693
12387SOL    HW239001   0.234   5.793  10.794
12388SOL     OW39002  12.857  14.610   1.471
12388SOL    HW139003  12.924  14.635   1.535
12388SOL    HW239004  12.812  14.692   1.450
12389SOL     OW39005   3.478  10.539   6.416
12389SOL    HW139006   3.387  10.542   6.449
12389SOL    HW239007   3.493  10.626   6.380
12390SOL     OW39008   9.928   6.906   5.680
12390SOL    HW139009   9.960   6.986   5.638
12390SOL    HW239010   9.936   6.839   5.612
12391SOL     OW39011  12.390   1.265   8.089
12391SOL    HW139012  12.435   1.191   8.050
12391SOL    HW239013  12.304   1.231   8.116
12392SOL     OW39014  10.927   8.890   3.495
12392SOL    HW139015  11.000   8.872   3.435
12392SOL    HW239016  10.913   8.984   3.489
12393SOL     OW39017   6.029  14.010  14.468
12393SOL    HW139018   6.067  14.078  14.412
12393SOL    HW239019   5.988  13.949  14.408
12394SOL     OW39020   1.060  13.663   5.381
12394SOL    HW139021   1.103  13.655   5.296
12394SOL    HW239022   1.009  13.744   5.376
12395SOL     OW39023  11.495   6.848   4.975
12395SOL    HW139024  11.537   6.888   5.051
12395SOL    HW239025  11.470   6.922   4.920
12396SOL     OW39026   5.012  12.425   6.971
12396SOL    HW139027   4.939  12.364   6.956
12396SOL    HW239028   5.005  12.447   7.064
12397SOL     OW39029  10.032   4.643   7.846
12397SOL    HW139030  10.093   4.681   7.908
12397SOL    HW239031  10.061   4.552   7.837
12398SOL     OW39032   0.159   2.410  10.737
12398SOL    HW139033   0.103   2.348  10.691
12398SOL    HW239034   0.248   2.378  10.721
12399SOL     OW39035   1.272  13.318   6.684
12399SOL    HW139036   1.229  13.280   6.608
12399SOL    HW239037   1.268  13.250   6.751
12400SOL     OW39038   1.987   3.336   7.017
12400SOL    HW139039   1.904   3.362   6.976
12400SOL    HW239040   1.997   3.398   7.090
12401SOL     OW39041  11.400   2.739  13.300
12401SOL    HW139042  11.344   2.751  13.223
12401SOL    HW239043  11.487   2.720  13.264
12402SOL     OW39044  10.657   7.857  12.859
12402SOL    HW139045  10.646   7.877  12.766
12402SOL    HW239046  10.679   7.940  12.900
12403SOL     OW39047   2.549   9.217   6.324
12403SOL    HW139048   2.604   9.143   6.349
12403SOL    HW239049   2.610   9.290   6.313
12404SOL     OW39050   2.899   8.971   4.438
12404SOL    HW139051   2.955   8.938   4.368
12404SOL    HW239052   2.949   9.044   4.475
12405SOL     OW39053   9.723   4.284   5.817
12405SOL    HW139054   9.801   4.299   5.762
12405SOL    HW239055   9.695   4.372   5.841
12406SOL     OW39056   7.556   6.147  10.908
12406SOL    HW139057   7.588   6.237  10.914
12406SOL    HW239058   7.464   6.155  10.884
12407SOL     OW39059   0.836   1.096   1.264
12407SOL    HW139060   0.797   1.142   1.338
12407SOL    HW239061   0.908   1.046   1.302
12408SOL     OW39062   5.603   5.036   0.022
12408SOL    HW139063   5.628   5.100  14.829
12408SOL    HW239064   5.626   5.076   0.105
12409SOL     OW39065  11.114  10.863   0.556
12409SOL    HW139066  11.104  10.943   0.608
12409SOL    HW239067  11.030  10.817   0.565
12410SOL     OW39068   8.394  13.057  13.549
12410SOL    HW139069   8.381  12.980  13.494
12410SOL    HW239070   8.465  13.105  13.506
12411SOL     OW39071   7.581   9.610  12.345
12411SOL    HW139072   7.548   9.528  12.381
12411SOL    HW239073   7.671   9.590  12.319
12412SOL     OW39074   1.400   4.648   4.711
12412SOL    HW139075   1.371   4.695   4.789
12412SOL    HW239076   1.413   4.716   4.645
12413SOL     OW39077   3.855  12.106  11.470
12413SOL    HW139078   3.881  12.177  11.411
12413SOL    HW239079   3.845  12.148  11.556
12414SOL     OW39080   1.438   6.995   9.024
12414SOL    HW139081   1.485   7.078   9.014
12414SOL    HW239082   1.454   6.948   8.943
12415SOL     OW39083   6.210   9.668   5.268
12415SOL    HW139084   6.290   9.617   5.254
12415SOL    HW239085   6.181   9.644   5.356
12416SOL     OW39086   9.713  10.295   4.182
12416SOL    HW139087   9.637  10.331   4.228
12416SOL    HW239088   9.679  10.218   4.137
12417SOL     OW39089   4.044   9.127   8.563
12417SOL    HW139090   4.080   9.080   8.638
12417SOL    HW239091   4.096   9.207   8.557
12418SOL     OW39092  13.545   1.602   5.262
12418SOL    HW139093  13.516   1.558   5.182
12418SOL    HW239094  13.630   1.641   5.238
12419SOL     OW39095   9.572  11.443   3.389
12419SOL    HW139096   9.603  11.393   3.465
12419SOL    HW239097   9.513  11.383   3.344
12420SOL     OW39098   2.208   9.900   3.393
12420SOL    HW139099   2.291   9.882   3.436
12420SOL    HW239100   2.229   9.965   3.326
12421SOL     OW39101   5.856   0.144  13.282
12421SOL    HW139102   5.853   0.221  13.338
12421SOL    HW239103   5.902   0.078  13.334
12422SOL     OW39104  12.490   9.562   4.340
12422SOL    HW139105  12.554   9.541   4.408
12422SOL    HW239106  12.415   9.596   4.387
12423SOL     OW39107   0.370   8.635   1.049
12423SOL    HW139108   0.384   8.724   1.082
12423SOL    HW239109   0.297   8.601   1.101
12424SOL     OW39110  11.046   7.875  12.074
12424SOL    HW139111  11.073   7.958  12.035
12424SOL    HW239112  11.024   7.897  12.165
12425SOL     OW39113   8.673  11.631   0.793
12425SOL    HW139114   8.737  11.607   0.860
12425SOL    HW239115   8.648  11.721   0.815
12426SOL     OW39116  12.920   5.609   2.752
12426SOL    HW139117  12.895   5.624   2.661
12426SOL    HW239118  12.885   5.685   2.800
12427SOL     OW39119   0.048   8.247   5.378
12427SOL    HW139120   0.112   8.283   5.439
12427SOL    HW239121   0.100   8.213   5.305
12428SOL     OW39122   5.255   2.507   1.663
12428SOL    HW139123   5.349   2.489   1.670
12428SOL    HW239124   5.216   2.458   1.735
12429SOL     OW39125  11.748   9.124   1.529
12429SOL    HW139126  11.841   9.118   1.552
12429SOL    HW239127  11.723   9.034   1.508
12430SOL     OW39128   0.966  13.378  13.269
12430SOL    HW139129   0.919  13.400  13.189
12430SOL    HW239130   0.957  13.455  13.325
12431SOL     OW39131   1.536   8.526   6.151
12431SOL    HW139132   1.561   8.434   6.158
12431SOL    HW239133   1.534   8.557   6.242
12432SOL     OW39134   9.919   0.811   9.703
12432SOL    HW139135   9.879   0.760   9.773
12432SOL    HW239136   9.946   0.746   9.638
12433SOL     OW39137   5.102   1.353   0.925
12433SOL    HW139138   5.197   1.365   0.923
12433SOL    HW239139   5.074   1.366   0.834
12434SOL     OW39140   8.067   0.696   6.034
12434SOL    HW139141   8.084   0.624   6.095
12434SOL    HW239142   8.077   0.656   5.947
12435SOL     OW39143  11.092   2.157   0.741
12435SOL    HW139144  11.097   2.072   0.697
12435SOL    HW239145  11.094   2.220   0.669
12436SOL     OW39146   8.424  13.523  11.827
12436SOL    HW139147   8.448  13.524  11.920
12436SOL    HW239148   8.506  13.530  11.780
12437SOL     OW39149   9.445   6.327  14.011
12437SOL    HW139150   9.509   6.397  13.999
12437SOL    HW239151   9.377   6.346  13.945
12438SOL     OW39152   5.072   5.060   6.198
12438SOL    HW139153   5.060   5.036   6.106
12438SOL    HW239154   4.987   5.045   6.238
12439SOL     OW39155   6.856   7.780   1.849
12439SOL    HW139156   6.788   7.723   1.812
12439SOL    HW239157   6.809   7.835   1.911
12440SOL     OW39158  10.995   0.728   8.335
12440SOL    HW139159  10.988   0.791   8.406
12440SOL    HW239160  11.087   0.700   8.336
12441SOL     OW39161   4.037   8.026  14.331
12441SOL    HW139162   4.071   7.976  14.406
12441SOL    HW239163   4.048   8.118  14.357
12442SOL     OW39164  12.162   8.390   7.060
12442SOL    HW139165  12.074   8.352   7.055
12442SOL    HW239166  12.152   8.467   7.116
12443SOL     OW39167  11.059  14.475  12.924
12443SOL    HW139168  11.136  14.475  12.980
12443SOL    HW239169  11.093  14.485  12.835
12444SOL     OW39170   3.941  11.977   8.892
12444SOL    HW139171   3.848  12.000   8.897
12444SOL    HW239172   3.941  11.882   8.877
12445SOL     OW39173   1.450   4.653   3.215
12445SOL    HW139174   1.523   4.591   3.214
12445SOL    HW239175   1.467   4.708   3.291
12446SOL     OW39176   7.162  13.042   0.323
12446SOL    HW139177   7.158  13.098   0.246
12446SOL    HW239178   7.104  13.085   0.387
12447SOL     OW39179   0.547   1.247   7.615
12447SOL    HW139180   0.532   1.164   7.571
12447SOL    HW239181   0.555   1.225   7.707
12448SOL     OW39182   7.686   9.862   8.092
12448SOL    HW139183   7.667   9.788   8.150
12448SOL    HW239184   7.695   9.937   8.151
12449SOL     OW39185   7.582   7.660  14.013
12449SOL    HW139186   7.549   7.721  13.947
12449SOL    HW239187   7.621   7.589  13.962
12450SOL     OW39188  14.310   0.894  11.099
12450SOL    HW139189  14.322   0.988  11.116
12450SOL    HW239190  14.314   0.854  11.185
12451SOL     OW39191   9.584  10.995   9.904
12451SOL    HW139192   9.675  11.021   9.887
12451SOL    HW239193   9.545  10.986   9.818
12452SOL     OW39194  12.072   7.482   6.730
12452SOL    HW139195  12.025   7.439   6.802
12452SOL    HW239196  12.078   7.415   6.661
12453SOL     OW39197   7.424   6.862   1.233
12453SOL    HW139198   7.414   6.767   1.238
12453SOL    HW239199   7.348   6.897   1.281
12454SOL     OW39200  10.513   2.908  14.844
12454SOL    HW139201  10.529   2.992   0.012
12454SOL    HW239202  10.491   2.849   0.043
12455SOL     OW39203   4.523   6.629   0.840
12455SOL    HW139204   4.599   6.636   0.898
12455SOL    HW239205   4.556   6.584   0.762
12456SOL     OW39206   9.995   2.545   4.759
12456SOL    HW139207  10.014   2.633   4.729
12456SOL    HW239208  10.079   2.511   4.790
12457SOL     OW39209   0.626   1.544   1.848
12457SOL    HW139210   0.648   1.636   1.865
12457SOL    HW239211   0.578   1.516   1.926
12458SOL     OW39212   3.743  10.290   7.528
12458SOL    HW139213   3.835  10.288   7.502
12458SOL    HW239214   3.695  10.271   7.447
12459SOL     OW39215   6.375  13.098   7.387
12459SOL    HW139216   6.426  13.128   7.311
12459SOL    HW239217   6.296  13.060   7.350
12460SOL     OW39218   9.134   5.005  13.028
12460SOL    HW139219   9.141   5.024  12.934
12460SOL    HW239220   9.111   5.089  13.068
12461SOL     OW39221   3.650   1.170   6.866
12461SOL    HW139222   3.580   1.125   6.912
12461SOL    HW239223   3.620   1.261   6.859
12462SOL     OW39224   5.266  13.382  10.923
12462SOL    HW139225   5.240  13.457  10.976
12462SOL    HW239226   5.236  13.306  10.973
12463SOL     OW39227   7.599   8.052  13.298
12463SOL    HW139228   7.543   7.998  13.352
12463SOL    HW239229   7.539   8.104  13.244
12464SOL     OW39230  11.034   3.228   8.435
12464SOL    HW139231  11.093   3.279   8.490
12464SOL    HW239232  11.069   3.237   8.347
12465SOL     OW39233   9.873   7.643  13.756
12465SOL    HW139234   9.873   7.656  13.851
12465SOL    HW239235   9.782   7.658  13.730
12466SOL     OW39236   2.918   5.086   8.729
12466SOL    HW139237   2.948   5.003   8.765
12466SOL    HW239238   2.894   5.138   8.806
12467SOL     OW39239   7.998  14.444  13.937
12467SOL    HW139240   7.913  14.402  13.921
12467SOL    HW239241   7.977  14.520  13.992
12468SOL     OW39242   8.852  12.626   8.920
12468SOL    HW139243   8.849  12.574   8.839
12468SOL    HW239244   8.822  12.713   8.893
12469SOL     OW39245   1.319  13.143   5.327
12469SOL    HW139246   1.375  13.115   5.400
12469SOL    HW239247   1.288  13.061   5.288
12470SOL     OW39248   7.224   4.071   9.444
12470SOL    HW139249   7.263   3.985   9.457
12470SOL    HW239250   7.144   4.054   9.394
12471SOL     OW39251  14.088   0.261  14.003
12471SOL    HW139252  14.102   0.194  14.069
12471SOL    HW239253  14.108   0.217  13.920
12472SOL     OW39254   5.315   2.911   0.381
12472SOL    HW139255   5.317   2.925   0.286
12472SOL    HW239256   5.232   2.948   0.409
12473SOL     OW39257  12.882   4.035   1.838
12473SOL    HW139258  12.910   4.066   1.752
12473SOL    HW239259  12.789   4.016   1.827
12474SOL     OW39260  12.042   7.564   0.142
12474SOL    HW139261  12.131   7.529   0.141
12474SOL    HW239262  12.053   7.659   0.144
12475SOL     OW39263   9.161   5.632  10.602
12475SOL    HW139264   9.080   5.655  10.557
12475SOL    HW239265   9.218   5.708  10.591
12476SOL     OW39266   4.752  14.637  11.862
12476SOL    HW139267   4.793  14.719  11.834
12476SOL    HW239268   4.698  14.662  11.937
12477SOL     OW39269  14.805   4.643   0.514
12477SOL    HW139270  14.783   4.622   0.424
12477SOL    HW239271   0.024   4.669   0.511
12478SOL     OW39272   0.307   2.739  13.618
12478SOL    HW139273   0.253   2.768  13.691
12478SOL    HW239274   0.381   2.696  13.658
12479SOL     OW39275   2.284   4.210  13.206
12479SOL    HW139276   2.248   4.297  13.187
12479SOL    HW239277   2.295   4.169  13.121
12480SOL     OW39278   5.550  14.554  14.824
12480SOL    HW139279   5.505  14.583  14.745
12480SOL    HW239280   5.553  14.458  14.816
12481SOL     OW39281  13.818  11.116  14.501
12481SOL    HW139282  13.796  11.112  14.407
12481SOL    HW239283  13.782  11.199  14.531
12482SOL     OW39284   6.221   7.744   9.190
12482SOL    HW139285   6.280   7.781   9.255
12482SOL    HW239286   6.153   7.811   9.179
12483SOL     OW39287   4.535  11.110   3.980
12483SOL    HW139288   4.622  11.115   3.940
12483SOL    HW239289   4.551  11.084   4.070
12484SOL     OW39290   4.558  12.990  14.583
12484SOL    HW139291   4.568  13.045  14.505
12484SOL    HW239292   4.523  13.050  14.650
12485SOL     OW39293   8.189   7.534   1.126
12485SOL    HW139294   8.114   7.578   1.085
12485SOL    HW239295   8.259   7.599   1.121
12486SOL     OW39296  13.196   5.948   4.422
12486SOL    HW139297  13.268   5.989   4.374
12486SOL    HW239298  13.118   5.991   4.389
12487SOL     OW39299   1.957   3.459   8.762
12487SOL    HW139300   1.903   3.391   8.722
12487SOL    HW239301   2.039   3.415   8.784
12488SOL     OW39302   6.581   2.961   7.497
12488SOL    HW139303   6.665   2.982   7.456
12488SOL    HW239304   6.516   2.979   7.429
12489SOL     OW39305   4.453   8.568   9.740
12489SOL    HW139306   4.441   8.605   9.828
12489SOL    HW239307   4.542   8.593   9.716
12490SOL     OW39308  14.268   0.440  13.582
12490SOL    HW139309  14.359   0.411  13.591
12490SOL    HW239310  14.260   0.512  13.645
12491SOL     OW39311   6.309   3.965  13.005
12491SOL    HW139312   6.257   3.935  13.080
12491SOL    HW239313   6.306   4.060  13.011
12492SOL     OW39314  13.919   1.860   2.390
12492SOL    HW139315  13.946   1.937   2.439
12492SOL    HW239316  13.938   1.880   2.299
12493SOL     OW39317  14.705   4.241   0.607
12493SOL    HW139318  14.689   4.230   0.513
12493SOL    HW239319  14.786   4.292   0.612
12494SOL     OW39320   3.048  12.744  14.377
12494SOL    HW139321   3.137  12.778  14.387
12494SOL    HW239322   2.994  12.802  14.430
12495SOL     OW39323  12.783  11.998   0.936
12495SOL    HW139324  12.763  12.015   0.844
12495SOL    HW239325  12.730  11.920   0.958
12496SOL     OW39326   6.297   3.141   5.154
12496SOL    HW139327   6.232   3.173   5.091
12496SOL    HW239328   6.317   3.218   5.208
12497SOL     OW39329   0.828   6.213   1.801
12497SOL    HW139330   0.873   6.149   1.746
12497SOL    HW239331   0.777   6.161   1.862
12498SOL     OW39332   6.655   9.972   1.741
12498SOL    HW139333   6.749   9.979   1.758
12498SOL    HW239334   6.617  10.050   1.782
12499SOL     OW39335   0.071   4.578   4.522
12499SOL    HW139336   0.130   4.593   4.448
12499SOL    HW239337   0.093   4.491   4.553
12500SOL     OW39338  12.147   1.667   1.765
12500SOL    HW139339  12.224   1.714   1.733
12500SOL    HW239340  12.181   1.584   1.799
12501SOL     OW39341   3.382  13.108   4.909
12501SOL    HW139342   3.331  13.128   4.987
12501SOL    HW239343   3.472  13.131   4.932
12502SOL     OW39344   0.116   7.120   8.604
12502SOL    HW139345   0.166   7.168   8.670
12502SOL    HW239346   0.052   7.183   8.572
12503SOL     OW39347  13.927   7.495  14.625
12503SOL    HW139348  13.986   7.525  14.555
12503SOL    HW239349  13.894   7.411  14.595
12504SOL     OW39350  14.496   9.346   2.372
12504SOL    HW139351  14.590   9.332   2.386
12504SOL    HW239352  14.492   9.410   2.300
12505SOL     OW39353   8.346   9.227   3.561
12505SOL    HW139354   8.333   9.258   3.472
12505SOL    HW239355   8.335   9.133   3.557
12506SOL     OW39356   4.689   9.998   1.348
12506SOL    HW139357   4.693  10.048   1.429
12506SOL    HW239358   4.731   9.915   1.370
12507SOL     OW39359   9.262   6.685  14.572
12507SOL    HW139360   9.172   6.715  14.561
12507SOL    HW239361   9.262   6.637  14.655
12508SOL     OW39362  11.955  12.962  11.889
12508SOL    HW139363  11.961  13.000  11.977
12508SOL    HW239364  11.930  13.035  11.833
12509SOL     OW39365  12.213   9.530   8.623
12509SOL    HW139366  12.163   9.537   8.542
12509SOL    HW239367  12.212   9.619   8.658
12510SOL     OW39368   9.926   6.086  14.365
12510SOL    HW139369  10.001   6.145  14.375
12510SOL    HW239370   9.866   6.133  14.306
12511SOL     OW39371   8.028  13.900   7.396
12511SOL    HW139372   7.932  13.901   7.394
12511SOL    HW239373   8.053  13.988   7.367
12512SOL     OW39374   8.980  11.287   5.033
12512SOL    HW139375   8.938  11.264   5.116
12512SOL    HW239376   9.024  11.370   5.051
12513SOL     OW39377   6.608  12.010   3.868
12513SOL    HW139378   6.539  12.075   3.883
12513SOL    HW239379   6.599  11.986   3.775
12514SOL     OW39380   6.680  12.691   4.145
12514SOL    HW139381   6.740  12.764   4.133
12514SOL    HW239382   6.695  12.634   4.069
12515SOL     OW39383   4.701   7.836   5.535
12515SOL    HW139384   4.620   7.886   5.540
12515SOL    HW239385   4.685   7.758   5.588
12516SOL     OW39386  12.474  13.421   5.669
12516SOL    HW139387  12.521  13.355   5.619
12516SOL    HW239388  12.411  13.371   5.721
12517SOL     OW39389  13.421   9.656  10.441
12517SOL    HW139390  13.517   9.657  10.443
12517SOL    HW239391  13.399   9.685  10.352
12518SOL     OW39392   7.163   5.255   2.782
12518SOL    HW139393   7.120   5.170   2.775
12518SOL    HW239394   7.155   5.278   2.874
12519SOL     OW39395  13.313  10.458   2.753
12519SOL    HW139396  13.218  10.443   2.753
12519SOL    HW239397  13.325  10.530   2.815
12520SOL     OW39398  11.475   6.472  13.167
12520SOL    HW139399  11.445   6.501  13.081
12520SOL    HW239400  11.415   6.401  13.191
12521SOL     OW39401   2.011   0.031  13.229
12521SOL    HW139402   1.954   0.008  13.156
12521SOL    HW239403   1.983  14.848  13.301
12522SOL     OW39404  11.524   3.595   6.736
12522SOL    HW139405  11.523   3.614   6.642
12522SOL    HW239406  11.601   3.639   6.769
12523SOL     OW39407  13.845   2.891   4.170
12523SOL    HW139408  13.769   2.948   4.178
12523SOL    HW239409  13.821   2.828   4.102
12524SOL     OW39410   3.518  10.064   5.560
12524SOL    HW139411   3.453  10.033   5.497
12524SOL    HW239412   3.601  10.059   5.514
12525SOL     OW39413  11.784   9.473   5.876
12525SOL    HW139414  11.770   9.378   5.877
12525SOL    HW239415  11.768   9.500   5.966
12526SOL     OW39416  12.437   6.782   1.550
12526SOL    HW139417  12.363   6.728   1.522
12526SOL    HW239418  12.397   6.861   1.585
12527SOL     OW39419   7.038  12.841   4.536
12527SOL    HW139420   7.068  12.752   4.519
12527SOL    HW239421   7.117  12.887   4.567
12528SOL     OW39422  10.817  12.370   1.198
12528SOL    HW139423  10.884  12.374   1.128
12528SOL    HW239424  10.782  12.459   1.202
12529SOL     OW39425   9.805   0.203   8.289
12529SOL    HW139426   9.790   0.290   8.252
12529SOL    HW239427   9.772   0.142   8.223
12530SOL     OW39428   7.544  12.350  10.044
12530SOL    HW139429   7.452  12.328  10.035
12530SOL    HW239430   7.591  12.270  10.021
12531SOL     OW39431   3.887  10.232   2.261
12531SOL    HW139432   3.895  10.311   2.315
12531SOL    HW239433   3.826  10.256   2.191
12532SOL     OW39434   0.152   8.107  10.879
12532SOL    HW139435   0.178   8.031  10.827
12532SOL    HW239436   0.165   8.182  10.821
12533SOL     OW39437  10.569  13.971   8.180
12533SOL    HW139438  10.610  13.898   8.134
12533SOL    HW239439  10.487  13.986   8.133
12534SOL     OW39440   1.489   7.448   8.920
12534SOL    HW139441   1.407   7.399   8.919
12534SOL    HW239442   1.548   7.396   8.865
12535SOL     OW39443   7.158  11.763  11.193
12535SOL    HW139444   7.196  11.807  11.269
12535SOL    HW239445   7.234  11.730  11.145
12536SOL     OW39446  14.273  10.420   8.130
12536SOL    HW139447  14.302  10.385   8.214
12536SOL    HW239448  14.214  10.353   8.095
12537SOL     OW39449   3.330   4.857  13.020
12537SOL    HW139450   3.367   4.898  12.942
12537SOL    HW239451   3.394   4.874  13.089
12538SOL     OW39452  11.782  13.098   8.922
12538SOL    HW139453  11.749  13.045   8.995
12538SOL    HW239454  11.743  13.184   8.935
12539SOL     OW39455   2.541   5.352   7.632
12539SOL    HW139456   2.525   5.296   7.707
12539SOL    HW239457   2.616   5.406   7.657
12540SOL     OW39458   5.530   4.369  12.650
12540SOL    HW139459   5.587   4.317  12.594
12540SOL    HW239460   5.443   4.332  12.637
12541SOL     OW39461  12.269  13.920  10.839
12541SOL    HW139462  12.275  13.824  10.840
12541SOL    HW239463  12.349  13.949  10.883
12542SOL     OW39464  10.757   7.570   9.902
12542SOL    HW139465  10.797   7.616   9.828
12542SOL    HW239466  10.722   7.640   9.957
12543SOL     OW39467   5.130  14.666  13.177
12543SOL    HW139468   5.133  14.736  13.112
12543SOL    HW239469   5.222  14.646  13.195
12544SOL     OW39470   9.999   5.961   0.713
12544SOL    HW139471   9.948   6.021   0.767
12544SOL    HW239472  10.088   5.996   0.717
12545SOL     OW39473   2.585   1.327   5.571
12545SOL    HW139474   2.509   1.303   5.519
12545SOL    HW239475   2.654   1.346   5.507
12546SOL     OW39476   3.456   6.897   8.212
12546SOL    HW139477   3.408   6.818   8.188
12546SOL    HW239478   3.448   6.903   8.307
12547SOL     OW39479   8.465   4.665   8.567
12547SOL    HW139480   8.480   4.571   8.562
12547SOL    HW239481   8.377   4.677   8.530
12548SOL     OW39482  10.212   3.202   6.209
12548SOL    HW139483  10.152   3.144   6.256
12548SOL    HW239484  10.176   3.206   6.120
12549SOL     OW39485   9.477   2.667  10.426
12549SOL    HW139486   9.461   2.728  10.498
12549SOL    HW239487   9.466   2.580  10.465
12550SOL     OW39488   5.972   3.399   7.557
12550SOL    HW139489   5.983   3.467   7.623
12550SOL    HW239490   6.055   3.352   7.556
12551SOL     OW39491  10.763   1.964   7.661
12551SOL    HW139492  10.718   2.046   7.681
12551SOL    HW239493  10.845   1.970   7.710
12552SOL     OW39494   8.328  12.923   2.468
12552SOL    HW139495   8.354  12.851   2.410
12552SOL    HW239496   8.239  12.900   2.495
12553SOL     OW39497  13.750   8.294   0.282
12553SOL    HW139498  13.821   8.264   0.224
12553SOL    HW239499  13.776   8.383   0.306
12554SOL     OW39500  11.874  11.112   8.654
12554SOL    HW139501  11.872  11.140   8.562
12554SOL    HW239502  11.783  11.091   8.674
12555SOL     OW39503  11.549  13.004  11.781
12555SOL    HW139504  11.455  12.984  11.779
12555SOL    HW239505  11.592  12.919  11.783
12556SOL     OW39506   3.749   8.506   0.953
12556SOL    HW139507   3.676   8.503   0.891
12556SOL    HW239508   3.815   8.447   0.916
12557SOL     OW39509   7.616  14.706   6.355
12557SOL    HW139510   7.683  14.737   6.416
12557SOL    HW239511   7.544  14.677   6.410
12558SOL     OW39512   5.314  10.122   5.238
12558SOL    HW139513   5.335  10.040   5.194
12558SOL    HW239514   5.334  10.106   5.330
12559SOL     OW39515   8.406  14.667  14.384
12559SOL    HW139516   8.466  14.646  14.313
12559SOL    HW239517   8.409  14.763  14.391
12560SOL     OW39518   5.080   3.826   2.500
12560SOL    HW139519   5.003   3.786   2.541
12560SOL    HW239520   5.098   3.903   2.554
12561SOL     OW39521   4.839   0.725  12.301
12561SOL    HW139522   4.819   0.702  12.392
12561SOL    HW239523   4.933   0.739  12.300
12562SOL     OW39524  11.823   1.005   6.640
12562SOL    HW139525  11.818   1.099   6.628
12562SOL    HW239526  11.734   0.978   6.664
12563SOL     OW39527  12.717   4.692   7.086
12563SOL    HW139528  12.735   4.676   7.179
12563SOL    HW239529  12.650   4.761   7.087
12564SOL     OW39530   8.923   0.598   5.311
12564SOL    HW139531   8.914   0.560   5.398
12564SOL    HW239532   8.837   0.588   5.270
12565SOL     OW39533   9.660   3.524   7.120
12565SOL    HW139534   9.574   3.486   7.101
12565SOL    HW239535   9.722   3.453   7.102
12566SOL     OW39536   8.993  14.655  13.040
12566SOL    HW139537   8.921  14.711  13.069
12566SOL    HW239538   8.976  14.639  12.947
12567SOL     OW39539   5.244  10.616   0.450
12567SOL    HW139540   5.209  10.526   0.450
12567SOL    HW239541   5.333  10.606   0.417
12568SOL     OW39542   5.246   5.579   0.379
12568SOL    HW139543   5.331   5.537   0.371
12568SOL    HW239544   5.257   5.644   0.447
12569SOL     OW39545   2.527   4.972   5.776
12569SOL    HW139546   2.490   4.970   5.687
12569SOL    HW239547   2.618   4.997   5.763
12570SOL     OW39548   5.964   7.863   7.230
12570SOL    HW139549   5.945   7.948   7.270
12570SOL    HW239550   5.991   7.885   7.140
12571SOL     OW39551   4.799   7.029   1.572
12571SOL    HW139552   4.884   7.021   1.529
12571SOL    HW239553   4.807   7.107   1.627
12572SOL     OW39554   6.019   0.854   3.147
12572SOL    HW139555   6.008   0.946   3.173
12572SOL    HW239556   5.984   0.850   3.058
12573SOL     OW39557   0.132   7.584   8.157
12573SOL    HW139558   0.160   7.514   8.216
12573SOL    HW239559   0.212   7.615   8.116
12574SOL     OW39560  13.293   6.497  13.102
12574SOL    HW139561  13.228   6.463  13.040
12574SOL    HW239562  13.369   6.519  13.049
12575SOL     OW39563   6.289   8.880   9.555
12575SOL    HW139564   6.341   8.879   9.474
12575SOL    HW239565   6.207   8.836   9.531
12576SOL     OW39566   5.810   0.632   7.400
12576SOL    HW139567   5.822   0.588   7.484
12576SOL    HW239568   5.764   0.714   7.423
12577SOL     OW39569  11.631  10.972   8.168
12577SOL    HW139570  11.713  10.988   8.215
12577SOL    HW239571  11.650  10.896   8.112
12578SOL     OW39572  10.300  14.706   5.536
12578SOL    HW139573  10.214  14.669   5.557
12578SOL    HW239574  10.348  14.634   5.497
12579SOL     OW39575  12.424   0.134   4.892
12579SOL    HW139576  12.518   0.153   4.888
12579SOL    HW239577  12.383   0.210   4.851
12580SOL     OW39578   0.892  10.959   9.959
12580SOL    HW139579   0.828  10.994   9.898
12580SOL    HW239580   0.957  10.916   9.903
12581SOL     OW39581  14.202  11.147   2.993
12581SOL    HW139582  14.111  11.160   3.018
12581SOL    HW239583  14.252  11.208   3.047
12582SOL     OW39584   5.104  13.959  10.862
12582SOL    HW139585   5.051  13.916  10.794
12582SOL    HW239586   5.178  13.901  10.875
12583SOL     OW39587   7.997   8.581  13.425
12583SOL    HW139588   8.003   8.644  13.353
12583SOL    HW239589   8.045   8.622  13.497
12584SOL     OW39590   5.107   0.353   2.846
12584SOL    HW139591   5.031   0.369   2.790
12584SOL    HW239592   5.143   0.270   2.815
12585SOL     OW39593   4.259   2.648   8.722
12585SOL    HW139594   4.256   2.611   8.633
12585SOL    HW239595   4.343   2.619   8.757
12586SOL     OW39596  10.678   8.470   5.703
12586SOL    HW139597  10.729   8.523   5.643
12586SOL    HW239598  10.682   8.517   5.786
12587SOL     OW39599   2.894   1.618   1.264
12587SOL    HW139600   2.930   1.606   1.352
12587SOL    HW239601   2.904   1.532   1.222
12588SOL     OW39602   2.653   0.880  11.192
12588SOL    HW139603   2.693   0.855  11.275
12588SOL    HW239604   2.604   0.803  11.164
12589SOL     OW39605   4.319   6.043   7.141
12589SOL    HW139606   4.356   6.129   7.123
12589SOL    HW239607   4.225   6.058   7.151
12590SOL     OW39608  14.237   2.875  10.374
12590SOL    HW139609  14.303   2.937  10.342
12590SOL    HW239610  14.274   2.789  10.354
12591SOL     OW39611   4.465   2.737  14.798
12591SOL    HW139612   4.457   2.676  14.724
12591SOL    HW239613   4.438   2.821  14.763
12592SOL     OW39614   5.390   4.783   7.476
12592SOL    HW139615   5.395   4.877   7.459
12592SOL    HW239616   5.406   4.742   7.391
12593SOL     OW39617  14.305   4.596  11.950
12593SOL    HW139618  14.352   4.679  11.949
12593SOL    HW239619  14.375   4.530  11.948
12594SOL     OW39620  10.300  12.074   8.316
12594SOL    HW139621  10.282  12.053   8.408
12594SOL    HW239622  10.364  12.145   8.320
12595SOL     OW39623  11.992  10.468   8.494
12595SOL    HW139624  11.898  10.464   8.480
12595SOL    HW239625  12.006  10.413   8.572
12596SOL     OW39626  11.142   4.923   0.932
12596SOL    HW139627  11.214   4.938   0.993
12596SOL    HW239628  11.178   4.948   0.847
12597SOL     OW39629  14.508   9.299  12.253
12597SOL    HW139630  14.507   9.381  12.303
12597SOL    HW239631  14.421   9.295  12.213
12598SOL     OW39632   5.268   6.999   8.281
12598SOL    HW139633   5.308   7.084   8.297
12598SOL    HW239634   5.209   6.985   8.355
12599SOL     OW39635   0.424   5.262   8.975
12599SOL    HW139636   0.465   5.268   8.888
12599SOL    HW239637   0.339   5.306   8.964
12600SOL     OW39638   2.820   3.985  13.250
12600SOL    HW139639   2.818   4.080  13.241
12600SOL    HW239640   2.907   3.960  13.221
12601SOL     OW39641   2.914  13.783  12.375
12601SOL    HW139642   2.991  13.732  12.402
12601SOL    HW239643   2.880  13.736  12.299
12602SOL     OW39644  14.192   8.287   4.274
12602SOL    HW139645  14.174   8.323   4.187
12602SOL    HW239646  14.121   8.226   4.290
12603SOL     OW39647   0.824   7.027   7.668
12603SOL    HW139648   0.814   6.940   7.705
12603SOL    HW239649   0.805   7.016   7.575
12604SOL     OW39650  13.357  10.798   0.303
12604SOL    HW139651  13.347  10.756   0.389
12604SOL    HW239652  13.438  10.847   0.310
12605SOL     OW39653  12.835   0.138  12.587
12605SOL    HW139654  12.839   0.077  12.513
12605SOL    HW239655  12.760   0.194  12.567
12606SOL     OW39656   2.012  10.252  11.736
12606SOL    HW139657   2.040  10.283  11.649
12606SOL    HW239658   1.948  10.184  11.717
12607SOL     OW39659   7.225   8.113   0.169
12607SOL    HW139660   7.231   8.208   0.171
12607SOL    HW239661   7.177   8.093   0.089
12608SOL     OW39662  11.350   5.572   8.859
12608SOL    HW139663  11.269   5.613   8.888
12608SOL    HW239664  11.417   5.609   8.917
12609SOL     OW39665  11.035   8.554   4.419
12609SOL    HW139666  11.084   8.520   4.494
12609SOL    HW239667  11.101   8.586   4.358
12610SOL     OW39668  11.597  14.363  12.457
12610SOL    HW139669  11.601  14.414  12.376
12610SOL    HW239670  11.589  14.428  12.526
12611SOL     OW39671   7.466  12.374  10.516
12611SOL    HW139672   7.523  12.313  10.564
12611SOL    HW239673   7.380  12.332  10.519
12612SOL     OW39674   7.241   4.217  10.128
12612SOL    HW139675   7.184   4.264  10.067
12612SOL    HW239676   7.231   4.265  10.211
12613SOL     OW39677   0.623   4.593  11.633
12613SOL    HW139678   0.705   4.631  11.603
12613SOL    HW239679   0.577   4.664  11.678
12614SOL     OW39680   5.481  11.449   7.310
12614SOL    HW139681   5.521  11.391   7.245
12614SOL    HW239682   5.480  11.398   7.391
12615SOL     OW39683   7.336   3.289   4.395
12615SOL    HW139684   7.257   3.274   4.343
12615SOL    HW239685   7.350   3.383   4.390
12616SOL     OW39686   3.179   6.728   2.185
12616SOL    HW139687   3.149   6.766   2.102
12616SOL    HW239688   3.173   6.633   2.171
12617SOL     OW39689  10.542  10.942  14.866
12617SOL    HW139690  10.570  10.980  14.782
12617SOL    HW239691  10.532  10.849  14.847
12618SOL     OW39692  11.483   7.334   1.818
12618SOL    HW139693  11.460   7.426   1.825
12618SOL    HW239694  11.563   7.324   1.869
12619SOL     OW39695   5.735   5.988   9.778
12619SOL    HW139696   5.664   5.985   9.842
12619SOL    HW239697   5.802   5.929   9.814
12620SOL     OW39698   8.578  14.582   6.839
12620SOL    HW139699   8.555  14.634   6.762
12620SOL    HW239700   8.645  14.521   6.808
12621SOL     OW39701   8.276  12.088  10.513
12621SOL    HW139702   8.324  12.024  10.461
12621SOL    HW239703   8.216  12.130  10.451
12622SOL     OW39704   3.237   2.713   3.215
12622SOL    HW139705   3.232   2.708   3.120
12622SOL    HW239706   3.311   2.770   3.233
12623SOL     OW39707   8.827   7.109   7.753
12623SOL    HW139708   8.895   7.063   7.803
12623SOL    HW239709   8.829   7.069   7.667
12624SOL     OW39710   9.004  11.067   5.623
12624SOL    HW139711   9.019  11.014   5.701
12624SOL    HW239712   9.038  11.013   5.551
12625SOL     OW39713  12.462   8.667   9.774
12625SOL    HW139714  12.416   8.657   9.858
12625SOL    HW239715  12.397   8.708   9.716
12626SOL     OW39716  11.213   3.325   0.723
12626SOL    HW139717  11.188   3.410   0.759
12626SOL    HW239718  11.284   3.345   0.661
12627SOL     OW39719  10.548   0.881   2.743
12627SOL    HW139720  10.602   0.820   2.793
12627SOL    HW239721  10.499   0.826   2.682
12628SOL     OW39722  12.230   4.882  13.461
12628SOL    HW139723  12.201   4.840  13.380
12628SOL    HW239724  12.191   4.829  13.531
12629SOL     OW39725   6.171   5.392   5.428
12629SOL    HW139726   6.112   5.455   5.387
12629SOL    HW239727   6.154   5.310   5.381
12630SOL     OW39728   8.009  13.579   9.181
12630SOL    HW139729   7.989  13.576   9.275
12630SOL    HW239730   8.091  13.530   9.173
12631SOL     OW39731   9.415  11.594  13.396
12631SOL    HW139732   9.411  11.648  13.317
12631SOL    HW239733   9.508  11.581  13.412
12632SOL     OW39734   4.287   1.999   6.709
12632SOL    HW139735   4.237   1.939   6.765
12632SOL    HW239736   4.250   2.086   6.728
12633SOL     OW39737   3.709   6.487   1.210
12633SOL    HW139738   3.632   6.454   1.165
12633SOL    HW239739   3.783   6.444   1.166
12634SOL     OW39740   6.304   0.420   2.344
12634SOL    HW139741   6.384   0.470   2.327
12634SOL    HW239742   6.288   0.430   2.438
12635SOL     OW39743   3.805   6.901   6.717
12635SOL    HW139744   3.794   6.819   6.670
12635SOL    HW239745   3.736   6.958   6.683
12636SOL     OW39746   4.265   7.556   2.153
12636SOL    HW139747   4.328   7.579   2.221
12636SOL    HW239748   4.301   7.593   2.073
12637SOL     OW39749  14.607   8.484  10.441
12637SOL    HW139750  14.674   8.495  10.373
12637SOL    HW239751  14.593   8.573  10.475
12638SOL     OW39752   7.887  10.961   0.840
12638SOL    HW139753   7.803  11.003   0.862
12638SOL    HW239754   7.924  10.937   0.925
12639SOL     OW39755   5.232   5.320   4.269
12639SOL    HW139756   5.143   5.286   4.274
12639SOL    HW239757   5.225   5.411   4.300
12640SOL     OW39758   4.545   1.263   0.314
12640SOL    HW139759   4.606   1.228   0.249
12640SOL    HW239760   4.601   1.301   0.382
12641SOL     OW39761   4.577  13.494   4.764
12641SOL    HW139762   4.610  13.478   4.676
12641SOL    HW239763   4.499  13.548   4.751
12642SOL     OW39764   9.305  10.258  10.402
12642SOL    HW139765   9.285  10.271  10.495
12642SOL    HW239766   9.284  10.342  10.361
12643SOL     OW39767  10.203  11.544   9.738
12643SOL    HW139768  10.243  11.459   9.726
12643SOL    HW239769  10.208  11.586   9.652
12644SOL     OW39770  13.153  11.620  10.304
12644SOL    HW139771  13.173  11.527  10.293
12644SOL    HW239772  13.212  11.649  10.374
12645SOL     OW39773   8.864   8.955   4.288
12645SOL    HW139774   8.806   8.998   4.226
12645SOL    HW239775   8.935   9.017   4.302
12646SOL     OW39776   0.465  13.123   5.020
12646SOL    HW139777   0.522  13.192   5.054
12646SOL    HW239778   0.377  13.150   5.044
12647SOL     OW39779  10.178   7.157   0.353
12647SOL    HW139780  10.157   7.156   0.447
12647SOL    HW239781  10.171   7.250   0.328
12648SOL     OW39782   1.009   7.165   0.677
12648SOL    HW139783   0.956   7.088   0.692
12648SOL    HW239784   0.999   7.183   0.584
12649SOL     OW39785  10.214   1.752   7.445
12649SOL    HW139786  10.184   1.675   7.493
12649SOL    HW239787  10.182   1.738   7.356
12650SOL     OW39788   8.019   0.810  12.361
12650SOL    HW139789   8.079   0.835  12.291
12650SOL    HW239790   7.938   0.788  12.316
12651SOL     OW39791   3.815   0.904   6.228
12651SOL    HW139792   3.820   0.990   6.186
12651SOL    HW239793   3.743   0.860   6.184
12652SOL     OW39794   0.748   1.831   9.662
12652SOL    HW139795   0.787   1.836   9.750
12652SOL    HW239796   0.822   1.818   9.603
12653SOL     OW39797  12.528   9.046   3.151
12653SOL    HW139798  12.445   9.043   3.199
12653SOL    HW239799  12.547   8.954   3.132
12654SOL     OW39800   7.482  10.007  10.116
12654SOL    HW139801   7.468  10.066  10.043
12654SOL    HW239802   7.528  10.060  10.181
12655SOL     OW39803  13.081  10.226   4.620
12655SOL    HW139804  13.075  10.259   4.710
12655SOL    HW239805  13.172  10.196   4.612
12656SOL     OW39806   3.173  12.334   6.029
12656SOL    HW139807   3.099  12.274   6.020
12656SOL    HW239808   3.236  12.287   6.083
12657SOL     OW39809  11.661  13.798   7.215
12657SOL    HW139810  11.738  13.855   7.211
12657SOL    HW239811  11.609  13.822   7.139
12658SOL     OW39812   8.259  14.434   9.582
12658SOL    HW139813   8.235  14.519   9.618
12658SOL    HW239814   8.227  14.371   9.647
12659SOL     OW39815   8.088   3.046   2.143
12659SOL    HW139816   8.182   3.054   2.157
12659SOL    HW239817   8.055   3.007   2.224
12660SOL     OW39818   3.036   1.637   3.638
12660SOL    HW139819   3.128   1.651   3.661
12660SOL    HW239820   3.038   1.568   3.572
12661SOL     OW39821   5.780   9.408   3.405
12661SOL    HW139822   5.829   9.489   3.417
12661SOL    HW239823   5.794   9.359   3.487
12662SOL     OW39824   2.212   3.496   5.545
12662SOL    HW139825   2.142   3.432   5.558
12662SOL    HW239826   2.236   3.487   5.453
12663SOL     OW39827   6.253   6.143   5.708
12663SOL    HW139828   6.344   6.157   5.732
12663SOL    HW239829   6.249   6.052   5.679
12664SOL     OW39830   9.678   7.525   0.349
12664SOL    HW139831   9.604   7.544   0.291
12664SOL    HW239832   9.692   7.607   0.398
12665SOL     OW39833   4.631   3.098   3.392
12665SOL    HW139834   4.699   3.033   3.405
12665SOL    HW239835   4.619   3.138   3.478
12666SOL     OW39836  13.578   0.055   9.810
12666SOL    HW139837  13.642   0.094   9.751
12666SOL    HW239838  13.603  14.836   9.815
12667SOL     OW39839   1.802  11.873  11.724
12667SOL    HW139840   1.803  11.874  11.820
12667SOL    HW239841   1.714  11.843  11.702
12668SOL     OW39842  12.156   7.453   8.321
12668SOL    HW139843  12.093   7.426   8.255
12668SOL    HW239844  12.240   7.456   8.274
12669SOL     OW39845   1.776  10.523  14.231
12669SOL    HW139846   1.780  10.618  14.219
12669SOL    HW239847   1.864  10.499  14.261
12670SOL     OW39848  13.333  12.209   7.355
12670SOL    HW139849  13.294  12.296   7.365
12670SOL    HW239850  13.346  12.199   7.261
12671SOL     OW39851  13.088  13.856   3.283
12671SOL    HW139852  13.134  13.825   3.205
12671SOL    HW239853  13.012  13.799   3.290
12672SOL     OW39854   2.891   7.233   9.322
12672SOL    HW139855   2.856   7.302   9.379
12672SOL    HW239856   2.906   7.159   9.381
12673SOL     OW39857   7.942  12.145  12.503
12673SOL    HW139858   7.951  12.117  12.594
12673SOL    HW239859   7.847  12.149  12.489
12674SOL     OW39860  11.005   8.893  14.080
12674SOL    HW139861  11.053   8.810  14.084
12674SOL    HW239862  11.067   8.959  14.112
12675SOL     OW39863   0.802  14.141   6.905
12675SOL    HW139864   0.850  14.172   6.828
12675SOL    HW239865   0.780  14.221   6.953
12676SOL     OW39866   3.196   8.038  13.229
12676SOL    HW139867   3.188   8.009  13.319
12676SOL    HW239868   3.176   8.131  13.232
12677SOL     OW39869   3.467   6.621  11.432
12677SOL    HW139870   3.520   6.562  11.378
12677SOL    HW239871   3.453   6.698  11.376
12678SOL     OW39872  14.479  10.566   7.741
12678SOL    HW139873  14.429  10.543   7.662
12678SOL    HW239874  14.493  10.660   7.734
12679SOL     OW39875   1.692   5.512   3.317
12679SOL    HW139876   1.648   5.596   3.301
12679SOL    HW239877   1.697   5.471   3.231
12680SOL     OW39878   5.152   8.203  14.096
12680SOL    HW139879   5.097   8.156  14.034
12680SOL    HW239880   5.107   8.194  14.180
12681SOL     OW39881  13.903  10.502  10.530
12681SOL    HW139882  13.918  10.458  10.614
12681SOL    HW239883  13.810  10.489  10.511
12682SOL     OW39884   8.478   0.836  10.630
12682SOL    HW139885   8.491   0.890  10.708
12682SOL    HW239886   8.483   0.898  10.558
12683SOL     OW39887   6.510   8.130   6.801
12683SOL    HW139888   6.601   8.103   6.788
12683SOL    HW239889   6.477   8.145   6.712
12684SOL     OW39890   9.144   2.836  11.579
12684SOL    HW139891   9.076   2.902  11.565
12684SOL    HW239892   9.202   2.874  11.644
12685SOL     OW39893  13.954   7.052   2.365
12685SOL    HW139894  13.963   6.991   2.438
12685SOL    HW239895  14.031   7.036   2.311
12686SOL     OW39896  12.419   2.848   2.370
12686SOL    HW139897  12.431   2.927   2.318
12686SOL    HW239898  12.505   2.830   2.408
12687SOL     OW39899   5.182   2.971   3.503
12687SOL    HW139900   5.181   2.877   3.487
12687SOL    HW239901   5.268   2.988   3.540
12688SOL     OW39902   3.763  10.610   1.356
12688SOL    HW139903   3.791  10.530   1.400
12688SOL    HW239904   3.736  10.583   1.269
12689SOL     OW39905   9.618   9.107  10.862
12689SOL    HW139906   9.681   9.133  10.929
12689SOL    HW239907   9.671   9.066  10.794
12690SOL     OW39908  10.556   6.947   3.275
12690SOL    HW139909  10.645   6.967   3.305
12690SOL    HW239910  10.500   6.971   3.348
12691SOL     OW39911  10.997   2.737   7.469
12691SOL    HW139912  10.925   2.703   7.416
12691SOL    HW239913  11.074   2.690   7.438
12692SOL     OW39914  11.584   2.242  10.341
12692SOL    HW139915  11.627   2.298  10.406
12692SOL    HW239916  11.620   2.155  10.356
12693SOL     OW39917  10.381   2.709   8.795
12693SOL    HW139918  10.388   2.790   8.746
12693SOL    HW239919  10.308   2.662   8.754
12694SOL     OW39920   7.547   2.376   2.692
12694SOL    HW139921   7.521   2.412   2.608
12694SOL    HW239922   7.636   2.342   2.677
12695SOL     OW39923   1.892   3.571  11.701
12695SOL    HW139924   1.905   3.645  11.760
12695SOL    HW239925   1.797   3.556  11.702
12696SOL     OW39926  14.072  12.499   8.297
12696SOL    HW139927  14.013  12.574   8.288
12696SOL    HW239928  14.107  12.486   8.208
12697SOL     OW39929   0.584   6.250  10.013
12697SOL    HW139930   0.606   6.157  10.014
12697SOL    HW239931   0.491   6.254  10.035
12698SOL     OW39932  13.230   1.962  13.839
12698SOL    HW139933  13.193   1.908  13.769
12698SOL    HW239934  13.210   1.913  13.919
12699SOL     OW39935   3.660   1.396   1.965
12699SOL    HW139936   3.660   1.366   2.056
12699SOL    HW239937   3.677   1.490   1.971
12700SOL     OW39938   5.476   2.979   9.192
12700SOL    HW139939   5.436   3.065   9.207
12700SOL    HW239940   5.417   2.918   9.235
12701SOL     OW39941   9.712   3.037   3.816
12701SOL    HW139942   9.793   3.083   3.837
12701SOL    HW239943   9.742   2.951   3.784
12702SOL     OW39944   0.148   4.353  11.511
12702SOL    HW139945   0.206   4.382  11.581
12702SOL    HW239946   0.206   4.312  11.447
12703SOL     OW39947   5.640   2.611   0.260
12703SOL    HW139948   5.704   2.671   0.222
12703SOL    HW239949   5.580   2.667   0.309
12704SOL     OW39950  13.158   3.584  13.636
12704SOL    HW139951  13.190   3.609  13.549
12704SOL    HW239952  13.170   3.663  13.690
12705SOL     OW39953   2.026   0.613   9.893
12705SOL    HW139954   1.974   0.608   9.813
12705SOL    HW239955   1.982   0.554   9.954
12706SOL     OW39956   8.456  12.199   1.279
12706SOL    HW139957   8.465  12.201   1.374
12706SOL    HW239958   8.361  12.197   1.264
12707SOL     OW39959   5.331   9.902   5.525
12707SOL    HW139960   5.380   9.978   5.493
12707SOL    HW239961   5.378   9.875   5.605
12708SOL     OW39962   1.127   3.083   2.583
12708SOL    HW139963   1.067   3.015   2.554
12708SOL    HW239964   1.205   3.073   2.528
12709SOL     OW39965  10.334   5.928  12.963
12709SOL    HW139966  10.298   5.998  12.908
12709SOL    HW239967  10.425   5.955  12.979
12710SOL     OW39968   5.472  13.767   2.361
12710SOL    HW139969   5.443  13.850   2.322
12710SOL    HW239970   5.567  13.773   2.361
12711SOL     OW39971   3.330   4.839  10.236
12711SOL    HW139972   3.252   4.819  10.287
12711SOL    HW239973   3.297   4.882  10.157
12712SOL     OW39974   4.933  14.474   7.641
12712SOL    HW139975   4.998  14.429   7.695
12712SOL    HW239976   4.944  14.567   7.662
12713SOL     OW39977   9.348   1.474   6.424
12713SOL    HW139978   9.402   1.534   6.373
12713SOL    HW239979   9.284   1.440   6.361
12714SOL     OW39980   0.621  13.707   2.068
12714SOL    HW139981   0.614  13.612   2.057
12714SOL    HW239982   0.558  13.729   2.136
12715SOL     OW39983  12.142  13.014   4.193
12715SOL    HW139984  12.190  12.945   4.148
12715SOL    HW239985  12.163  13.094   4.144
12716SOL     OW39986  14.607   9.330   3.600
12716SOL    HW139987  14.513   9.346   3.601
12716SOL    HW239988  14.632   9.341   3.508
12717SOL     OW39989   9.094   2.848   6.794
12717SOL    HW139990   9.019   2.816   6.745
12717SOL    HW239991   9.161   2.863   6.727
12718SOL     OW39992  13.462   7.048   4.875
12718SOL    HW139993  13.538   7.052   4.932
12718SOL    HW239994  13.447   7.139   4.848
12719SOL     OW39995   7.730   2.292  11.688
12719SOL    HW139996   7.695   2.247  11.611
12719SOL    HW239997   7.679   2.372  11.694
12720SOL     OW39998  13.965  11.601  13.668
12720SOL    HW139999  13.902  11.532  13.649
12720SOL    HW240000  13.931  11.645  13.746
12721SOL     OW40001  14.003   9.132   7.752
12721SOL    HW140002  13.996   9.052   7.804
12721SOL    HW240003  13.952   9.115   7.673
12722SOL     OW40004   0.502  14.225   9.421
12722SOL    HW140005   0.526  14.276   9.499
12722SOL    HW240006   0.518  14.134   9.447
12723SOL     OW40007   8.886   2.633   0.434
12723SOL    HW140008   8.793   2.658   0.430
12723SOL    HW240009   8.910   2.648   0.526
12724SOL     OW40010   3.899   6.181   4.469
12724SOL    HW140011   3.947   6.123   4.527
12724SOL    HW240012   3.813   6.191   4.511
12725SOL     OW40013  12.669   4.345   8.177
12725SOL    HW140014  12.697   4.274   8.119
12725SOL    HW240015  12.576   4.356   8.158
12726SOL     OW40016   2.825  10.179  12.333
12726SOL    HW140017   2.904  10.206  12.381
12726SOL    HW240018   2.850  10.183  12.241
12727SOL     OW40019   8.938   7.325   7.894
12727SOL    HW140020   8.928   7.288   7.982
12727SOL    HW240021   8.880   7.272   7.839
12728SOL     OW40022   2.684  13.962   0.635
12728SOL    HW140023   2.770  13.938   0.601
12728SOL    HW240024   2.625  13.955   0.559
12729SOL     OW40025   4.349   9.039  13.162
12729SOL    HW140026   4.377   9.076  13.245
12729SOL    HW240027   4.318   9.115  13.112
12730SOL     OW40028  10.013  10.329   9.943
12730SOL    HW140029  10.071  10.382   9.998
12730SOL    HW240030   9.930  10.376   9.943
12731SOL     OW40031   9.175  13.148   5.980
12731SOL    HW140032   9.108  13.217   5.975
12731SOL    HW240033   9.159  13.093   5.903
12732SOL     OW40034   1.501   7.976   0.177
12732SOL    HW140035   1.421   7.984   0.228
12732SOL    HW240036   1.539   7.892   0.205
12733SOL     OW40037   6.356   1.222   4.208
12733SOL    HW140038   6.334   1.303   4.162
12733SOL    HW240039   6.446   1.236   4.238
12734SOL     OW40040   2.412   0.896   5.504
12734SOL    HW140041   2.434   0.857   5.419
12734SOL    HW240042   2.402   0.989   5.486
12735SOL     OW40043   5.038  10.303   9.982
12735SOL    HW140044   5.064  10.244   9.911
12735SOL    HW240045   4.985  10.248  10.040
12736SOL     OW40046   0.546   7.286  12.106
12736SOL    HW140047   0.522   7.303  12.015
12736SOL    HW240048   0.470   7.315  12.156
12737SOL     OW40049   9.565  11.681  10.134
12737SOL    HW140050   9.568  11.609  10.071
12737SOL    HW240051   9.474  11.685  10.162
12738SOL     OW40052   1.295   2.621  14.651
12738SOL    HW140053   1.256   2.575  14.577
12738SOL    HW240054   1.236   2.602  14.724
12739SOL     OW40055  13.260   7.786   1.538
12739SOL    HW140056  13.311   7.804   1.459
12739SOL    HW240057  13.314   7.724   1.587
12740SOL     OW40058   8.446   0.373   2.135
12740SOL    HW140059   8.475   0.462   2.118
12740SOL    HW240060   8.508   0.317   2.088
12741SOL     OW40061  10.926   6.876   3.678
12741SOL    HW140062  10.878   6.797   3.705
12741SOL    HW240063  10.858   6.941   3.662
12742SOL     OW40064   9.246   8.399   3.763
12742SOL    HW140065   9.163   8.389   3.715
12742SOL    HW240066   9.280   8.483   3.733
12743SOL     OW40067   4.865   2.274   3.494
12743SOL    HW140068   4.848   2.180   3.488
12743SOL    HW240069   4.922   2.283   3.570
12744SOL     OW40070  10.488   1.809   0.005
12744SOL    HW140071  10.561   1.787  14.821
12744SOL    HW240072  10.516   1.888   0.051
12745SOL     OW40073   6.543   4.888   5.506
12745SOL    HW140074   6.605   4.957   5.532
12745SOL    HW240075   6.567   4.869   5.415
12746SOL     OW40076   1.389   5.676   4.942
12746SOL    HW140077   1.479   5.662   4.971
12746SOL    HW240078   1.393   5.670   4.847
12747SOL     OW40079   1.440  13.216   0.867
12747SOL    HW140080   1.478  13.280   0.928
12747SOL    HW240081   1.349  13.244   0.855
12748SOL     OW40082   3.917   4.917   2.421
12748SOL    HW140083   3.877   4.956   2.343
12748SOL    HW240084   3.883   4.968   2.494
12749SOL     OW40085   1.987  11.597   6.851
12749SOL    HW140086   1.991  11.590   6.755
12749SOL    HW240087   1.957  11.687   6.867
12750SOL     OW40088   4.257   9.293  13.094
12750SOL    HW140089   4.191   9.286  13.164
12750SOL    HW240090   4.306   9.372  13.115
12751SOL     OW40091   6.322   1.369  10.017
12751SOL    HW140092   6.324   1.423   9.938
12751SOL    HW240093   6.349   1.282   9.987
12752SOL     OW40094   4.918   2.425  11.387
12752SOL    HW140095   4.985   2.460  11.445
12752SOL    HW240096   4.967   2.388  11.314
12753SOL     OW40097  10.654   9.345   1.505
12753SOL    HW140098  10.678   9.354   1.597
12753SOL    HW240099  10.592   9.272   1.504
12754SOL     OW40100   3.058  14.131  14.821
12754SOL    HW140101   3.141  14.148  14.778
12754SOL    HW240102   3.055  14.036  14.832
12755SOL     OW40103   3.693   6.015   8.592
12755SOL    HW140104   3.689   6.103   8.555
12755SOL    HW240105   3.785   5.989   8.582
12756SOL     OW40106   0.551  12.903   9.982
12756SOL    HW140107   0.633  12.947  10.005
12756SOL    HW240108   0.551  12.824  10.036
12757SOL     OW40109   3.725  11.447  10.783
12757SOL    HW140110   3.813  11.484  10.771
12757SOL    HW240111   3.667  11.522  10.772
12758SOL     OW40112  10.215   0.816   8.952
12758SOL    HW140113  10.142   0.767   8.915
12758SOL    HW240114  10.255   0.756   9.015
12759SOL     OW40115   8.134   7.445   3.310
12759SOL    HW140116   8.105   7.522   3.359
12759SOL    HW240117   8.076   7.441   3.234
12760SOL     OW40118   4.834  14.101   6.139
12760SOL    HW140119   4.853  14.127   6.049
12760SOL    HW240120   4.786  14.176   6.175
12761SOL     OW40121   9.403   4.276  11.046
12761SOL    HW140122   9.333   4.338  11.026
12761SOL    HW240123   9.470   4.328  11.091
12762SOL     OW40124  11.204   3.039   4.348
12762SOL    HW140125  11.171   3.111   4.294
12762SOL    HW240126  11.176   2.960   4.302
12763SOL     OW40127   5.522   3.949  14.507
12763SOL    HW140128   5.559   3.928  14.593
12763SOL    HW240129   5.481   4.034  14.518
12764SOL     OW40130   2.386   4.473   5.131
12764SOL    HW140131   2.321   4.429   5.186
12764SOL    HW240132   2.466   4.422   5.144
12765SOL     OW40133  11.542   2.084   2.904
12765SOL    HW140134  11.464   2.139   2.900
12765SOL    HW240135  11.605   2.135   2.954
12766SOL     OW40136   7.271  10.189   0.769
12766SOL    HW140137   7.180  10.170   0.746
12766SOL    HW240138   7.270  10.281   0.795
12767SOL     OW40139  12.915   3.245   2.529
12767SOL    HW140140  12.866   3.164   2.541
12767SOL    HW240141  12.920   3.257   2.434
12768SOL     OW40142   8.124   9.316   6.085
12768SOL    HW140143   8.215   9.311   6.114
12768SOL    HW240144   8.093   9.225   6.086
12769SOL     OW40145   6.895   0.206  14.000
12769SOL    HW140146   6.944   0.253  13.932
12769SOL    HW240147   6.840   0.273  14.041
12770SOL     OW40148   3.433  10.910  14.093
12770SOL    HW140149   3.403  10.820  14.102
12770SOL    HW240150   3.391  10.957  14.166
12771SOL     OW40151  10.543   4.321   2.777
12771SOL    HW140152  10.512   4.323   2.686
12771SOL    HW240153  10.511   4.239   2.812
12772SOL     OW40154  14.012  10.785   8.682
12772SOL    HW140155  14.060  10.797   8.600
12772SOL    HW240156  14.071  10.733   8.736
12773SOL     OW40157   1.693   4.144   5.487
12773SOL    HW140158   1.695   4.090   5.566
12773SOL    HW240159   1.688   4.081   5.415
12774SOL     OW40160  12.242   4.676   5.350
12774SOL    HW140161  12.198   4.701   5.269
12774SOL    HW240162  12.184   4.610   5.389
12775SOL     OW40163   2.416  12.573  10.391
12775SOL    HW140164   2.489  12.512  10.398
12775SOL    HW240165   2.338  12.518  10.382
12776SOL     OW40166   2.491   5.699   8.731
12776SOL    HW140167   2.438   5.677   8.655
12776SOL    HW240168   2.560   5.756   8.697
12777SOL     OW40169  14.842   8.574  10.262
12777SOL    HW140170  14.775   8.548  10.199
12777SOL    HW240171   0.043   8.516  10.243
12778SOL     OW40172   0.592   2.410  14.315
12778SOL    HW140173   0.633   2.357  14.384
12778SOL    HW240174   0.661   2.423  14.251
12779SOL     OW40175  14.080   6.573  11.234
12779SOL    HW140176  14.011   6.639  11.240
12779SOL    HW240177  14.152   6.609  11.285
12780SOL     OW40178   4.666   8.410  14.443
12780SOL    HW140179   4.598   8.435  14.507
12780SOL    HW240180   4.748   8.439  14.483
12781SOL     OW40181  10.202   6.038   3.462
12781SOL    HW140182  10.230   6.070   3.548
12781SOL    HW240183  10.111   6.011   3.474
12782SOL     OW40184   9.827   7.722  11.805
12782SOL    HW140185   9.881   7.680  11.872
12782SOL    HW240186   9.869   7.699  11.722
12783SOL     OW40187   0.761  14.677   2.173
12783SOL    HW140188   0.790  14.697   2.263
12783SOL    HW240189   0.795  14.749   2.120
12784SOL     OW40190   4.456   7.572   0.721
12784SOL    HW140191   4.491   7.644   0.669
12784SOL    HW240192   4.453   7.498   0.660
12785SOL     OW40193   4.955   4.550   4.553
12785SOL    HW140194   5.015   4.616   4.589
12785SOL    HW240195   4.870   4.574   4.588
12786SOL     OW40196  10.399   7.518  11.840
12786SOL    HW140197  10.433   7.555  11.922
12786SOL    HW240198  10.380   7.426  11.861
12787SOL     OW40199  13.423   4.123   2.495
12787SOL    HW140200  13.512   4.087   2.500
12787SOL    HW240201  13.397   4.136   2.586
12788SOL     OW40202   7.303   5.212   5.596
12788SOL    HW140203   7.258   5.129   5.614
12788SOL    HW240204   7.333   5.204   5.506
12789SOL     OW40205   1.223   1.136  13.313
12789SOL    HW140206   1.288   1.117  13.245
12789SOL    HW240207   1.198   1.050  13.347
12790SOL     OW40208  10.580   9.434  11.800
12790SOL    HW140209  10.585   9.485  11.720
12790SOL    HW240210  10.504   9.377  11.788
12791SOL     OW40211  13.715   9.788  11.442
12791SOL    HW140212  13.638   9.766  11.494
12791SOL    HW240213  13.680   9.835  11.366
12792SOL     OW40214   0.370   0.223   3.552
12792SOL    HW140215   0.315   0.167   3.608
12792SOL    HW240216   0.385   0.302   3.605
12793SOL     OW40217  13.390   5.873  11.557
12793SOL    HW140218  13.391   5.815  11.633
12793SOL    HW240219  13.308   5.923  11.566
12794SOL     OW40220   7.639   9.096  12.058
12794SOL    HW140221   7.604   9.018  12.100
12794SOL    HW240222   7.681   9.064  11.979
12795SOL     OW40223   7.623   5.969   1.168
12795SOL    HW140224   7.675   5.975   1.249
12795SOL    HW240225   7.594   6.059   1.151
12796SOL     OW40226  10.658  10.908   9.309
12796SOL    HW140227  10.723  10.891   9.376
12796SOL    HW240228  10.589  10.844   9.326
12797SOL     OW40229   6.020   5.463   8.727
12797SOL    HW140230   6.041   5.552   8.757
12797SOL    HW240231   5.947   5.475   8.667
12798SOL     OW40232   1.596   2.767  10.445
12798SOL    HW140233   1.680   2.802  10.475
12798SOL    HW240234   1.614   2.735  10.356
12799SOL     OW40235  13.815   9.829  10.420
12799SOL    HW140236  13.783   9.742  10.442
12799SOL    HW240237  13.739   9.887  10.430
12800SOL     OW40238   8.400  14.815   0.616
12800SOL    HW140239   8.317  14.863   0.609
12800SOL    HW240240   8.382  14.747   0.681
12801SOL     OW40241   5.095  10.118   5.502
12801SOL    HW140242   5.002  10.105   5.516
12801SOL    HW240243   5.133  10.031   5.509
12802SOL     OW40244   1.393   5.355   8.354
12802SOL    HW140245   1.299   5.358   8.339
12802SOL    HW240246   1.426   5.440   8.324
12803SOL     OW40247  10.769  13.385   4.531
12803SOL    HW140248  10.844  13.364   4.474
12803SOL    HW240249  10.752  13.304   4.579
12804SOL     OW40250   0.540   1.574   4.447
12804SOL    HW140251   0.513   1.512   4.379
12804SOL    HW240252   0.634   1.584   4.435
12805SOL     OW40253   3.067   8.543   8.248
12805SOL    HW140254   3.058   8.550   8.343
12805SOL    HW240255   3.018   8.464   8.225
12806SOL     OW40256  10.021   5.000   6.046
12806SOL    HW140257   9.943   5.040   6.006
12806SOL    HW240258  10.028   5.041   6.132
12807SOL     OW40259   7.895   2.686   4.579
12807SOL    HW140260   7.901   2.698   4.484
12807SOL    HW240261   7.937   2.763   4.615
12808SOL     OW40262  12.502   1.638   8.690
12808SOL    HW140263  12.429   1.616   8.631
12808SOL    HW240264  12.483   1.728   8.718
12809SOL     OW40265  11.913   3.818   3.736
12809SOL    HW140266  11.974   3.808   3.809
12809SOL    HW240267  11.965   3.795   3.658
12810SOL     OW40268   8.888  11.420   9.765
12810SOL    HW140269   8.919  11.510   9.770
12810SOL    HW240270   8.955  11.368   9.809
12811SOL     OW40271  13.938  12.571  11.027
12811SOL    HW140272  13.843  12.567  11.014
12811SOL    HW240273  13.965  12.479  11.033
12812SOL     OW40274   7.457   1.151   2.088
12812SOL    HW140275   7.443   1.130   1.996
12812SOL    HW240276   7.550   1.136   2.103
12813SOL     OW40277   1.846   9.942  10.585
12813SOL    HW140278   1.874   9.921  10.673
12813SOL    HW240279   1.915   9.999  10.550
12814SOL     OW40280  11.247   6.193  12.228
12814SOL    HW140281  11.240   6.266  12.167
12814SOL    HW240282  11.338   6.194  12.257
12815SOL     OW40283   4.085  12.254   0.807
12815SOL    HW140284   4.020  12.262   0.877
12815SOL    HW240285   4.056  12.178   0.757
12816SOL     OW40286   0.590   5.215   6.257
12816SOL    HW140287   0.685   5.226   6.264
12816SOL    HW240288   0.562   5.281   6.194
12817SOL     OW40289  10.946   5.756   0.616
12817SOL    HW140290  10.901   5.677   0.587
12817SOL    HW240291  10.888   5.794   0.682
12818SOL     OW40292   5.740   5.465   0.966
12818SOL    HW140293   5.775   5.491   1.051
12818SOL    HW240294   5.758   5.540   0.909
12819SOL     OW40295  10.199  11.495   1.153
12819SOL    HW140296  10.151  11.568   1.114
12819SOL    HW240297  10.133  11.444   1.199
12820SOL     OW40298   9.789   0.422   8.102
12820SOL    HW140299   9.873   0.467   8.104
12820SOL    HW240300   9.733   0.473   8.161
12821SOL     OW40301  12.511  10.137  11.434
12821SOL    HW140302  12.598  10.125  11.471
12821SOL    HW240303  12.459  10.173  11.506
12822SOL     OW40304   4.875   0.734  12.764
12822SOL    HW140305   4.909   0.688  12.687
12822SOL    HW240306   4.847   0.819  12.731
12823SOL     OW40307   1.033   6.134   7.395
12823SOL    HW140308   1.064   6.049   7.426
12823SOL    HW240309   0.941   6.119   7.374
12824SOL     OW40310   2.559   2.144   0.878
12824SOL    HW140311   2.606   2.212   0.928
12824SOL    HW240312   2.516   2.192   0.807
12825SOL     OW40313  10.564   8.805   2.800
12825SOL    HW140314  10.535   8.714   2.809
12825SOL    HW240315  10.584   8.815   2.707
12826SOL     OW40316   0.938  13.265   6.807
12826SOL    HW140317   0.933  13.188   6.750
12826SOL    HW240318   1.028  13.266   6.838
12827SOL     OW40319   8.466   7.837  12.051
12827SOL    HW140320   8.553   7.856  12.015
12827SOL    HW240321   8.482   7.769  12.117
12828SOL     OW40322   0.538   5.654   7.958
12828SOL    HW140323   0.452   5.692   7.973
12828SOL    HW240324   0.599   5.714   8.000
12829SOL     OW40325  12.747  10.107   3.529
12829SOL    HW140326  12.686  10.092   3.601
12829SOL    HW240327  12.821  10.049   3.548
12830SOL     OW40328   5.807  14.044  12.343
12830SOL    HW140329   5.725  14.055  12.392
12830SOL    HW240330   5.859  13.984  12.397
12831SOL     OW40331  12.625  13.532   3.868
12831SOL    HW140332  12.634  13.482   3.787
12831SOL    HW240333  12.531  13.553   3.873
12832SOL     OW40334   8.908   6.985   6.831
12832SOL    HW140335   8.868   6.922   6.891
12832SOL    HW240336   8.952   6.931   6.765
12833SOL     OW40337   7.260   2.578   6.525
12833SOL    HW140338   7.278   2.485   6.507
12833SOL    HW240339   7.195   2.577   6.595
12834SOL     OW40340   0.435   0.679   6.563
12834SOL    HW140341   0.366   0.742   6.542
12834SOL    HW240342   0.499   0.691   6.493
12835SOL     OW40343  12.569  12.181   0.615
12835SOL    HW140344  12.612  12.115   0.561
12835SOL    HW240345  12.626  12.191   0.691
12836SOL     OW40346  13.266   1.362   3.572
12836SOL    HW140347  13.340   1.419   3.593
12836SOL    HW240348  13.269   1.354   3.477
12837SOL     OW40349  12.128   7.482  12.268
12837SOL    HW140350  12.058   7.531  12.312
12837SOL    HW240351  12.175   7.439  12.338
12838SOL     OW40352   6.473   2.526   1.843
12838SOL    HW140353   6.510   2.605   1.802
12838SOL    HW240354   6.381   2.549   1.859
12839SOL     OW40355   7.793  10.132   4.168
12839SOL    HW140356   7.842  10.078   4.230
12839SOL    HW240357   7.795  10.220   4.206
12840SOL     OW40358   9.326  13.916   5.602
12840SOL    HW140359   9.251  13.912   5.662
12840SOL    HW240360   9.402  13.901   5.659
12841SOL     OW40361   2.692  12.745  12.542
12841SOL    HW140362   2.693  12.801  12.464
12841SOL    HW240363   2.743  12.668  12.518
12842SOL     OW40364   8.181   9.107  14.583
12842SOL    HW140365   8.090   9.111  14.609
12842SOL    HW240366   8.209   9.198  14.574
12843SOL     OW40367  13.544  13.069   4.605
12843SOL    HW140368  13.616  13.118   4.564
12843SOL    HW240369  13.466  13.095   4.556
12844SOL     OW40370   7.421   1.794  11.339
12844SOL    HW140371   7.467   1.806  11.422
12844SOL    HW240372   7.476   1.837  11.274
12845SOL     OW40373  11.772   7.540   0.064
12845SOL    HW140374  11.768   7.621   0.115
12845SOL    HW240375  11.866   7.527   0.048
12846SOL     OW40376   6.675   1.739   3.714
12846SOL    HW140377   6.674   1.703   3.803
12846SOL    HW240378   6.766   1.729   3.686
12847SOL     OW40379   6.428   3.110   6.597
12847SOL    HW140380   6.473   3.095   6.680
12847SOL    HW240381   6.337   3.127   6.622
12848SOL     OW40382   7.331   6.949   6.354
12848SOL    HW140383   7.315   6.877   6.294
12848SOL    HW240384   7.409   6.921   6.404
12849SOL     OW40385  12.795   5.795   7.633
12849SOL    HW140386  12.703   5.799   7.605
12849SOL    HW240387  12.793   5.819   7.725
12850SOL     OW40388   0.505  13.666   0.975
12850SOL    HW140389   0.431  13.626   0.929
12850SOL    HW240390   0.559  13.592   1.002
12851SOL     OW40391   1.109   8.632  10.218
12851SOL    HW140392   1.067   8.629  10.304
12851SOL    HW240393   1.163   8.711  10.221
12852SOL     OW40394   1.331   3.898   2.130
12852SOL    HW140395   1.308   3.981   2.171
12852SOL    HW240396   1.401   3.863   2.185
12853SOL     OW40397   8.737   6.228   4.353
12853SOL    HW140398   8.815   6.280   4.374
12853SOL    HW240399   8.716   6.250   4.262
12854SOL     OW40400   7.165   3.271   5.899
12854SOL    HW140401   7.171   3.363   5.874
12854SOL    HW240402   7.245   3.254   5.949
12855SOL     OW40403   3.270  11.919   2.330
12855SOL    HW140404   3.352  11.889   2.291
12855SOL    HW240405   3.213  11.938   2.256
12856SOL     OW40406  12.407   9.946   1.465
12856SOL    HW140407  12.345   9.873   1.469
12856SOL    HW240408  12.352  10.024   1.469
12857SOL     OW40409   2.072   9.750   5.801
12857SOL    HW140410   2.118   9.828   5.831
12857SOL    HW240411   2.027   9.777   5.721
12858SOL     OW40412   6.829  12.390   1.059
12858SOL    HW140413   6.824  12.474   1.104
12858SOL    HW240414   6.816  12.411   0.967
12859SOL     OW40415   4.346  11.345   6.478
12859SOL    HW140416   4.438  11.349   6.503
12859SOL    HW240417   4.330  11.252   6.460
12860SOL     OW40418   9.731   4.137   0.731
12860SOL    HW140419   9.744   4.130   0.826
12860SOL    HW240420   9.714   4.047   0.702
12861SOL     OW40421  14.441   2.893  13.466
12861SOL    HW140422  14.387   2.960  13.423
12861SOL    HW240423  14.502   2.865  13.397
12862SOL     OW40424  11.081   2.623   8.380
12862SOL    HW140425  11.083   2.611   8.475
12862SOL    HW240426  11.011   2.566   8.350
12863SOL     OW40427  12.612  12.012   2.146
12863SOL    HW140428  12.660  12.064   2.211
12863SOL    HW240429  12.527  12.055   2.141
12864SOL     OW40430  10.091   6.150   2.723
12864SOL    HW140431  10.028   6.152   2.795
12864SOL    HW240432  10.101   6.242   2.698
12865SOL     OW40433  14.853   2.834  14.083
12865SOL    HW140434   0.029   2.906  14.042
12865SOL    HW240435   0.045   2.766  14.098
12866SOL     OW40436   4.383   0.434   0.229
12866SOL    HW140437   4.456   0.374   0.210
12866SOL    HW240438   4.309   0.376   0.246
12867SOL     OW40439  13.681  13.612   4.568
12867SOL    HW140440  13.631  13.646   4.642
12867SOL    HW240441  13.646  13.659   4.492
12868SOL     OW40442  13.922   5.289  14.331
12868SOL    HW140443  13.924   5.210  14.384
12868SOL    HW240444  13.906   5.258  14.242
12869SOL     OW40445  10.710   3.210   3.327
12869SOL    HW140446  10.795   3.184   3.363
12869SOL    HW240447  10.714   3.182   3.235
12870SOL     OW40448   6.232   8.048   0.582
12870SOL    HW140449   6.291   8.072   0.511
12870SOL    HW240450   6.145   8.069   0.548
12871SOL     OW40451  11.489   7.450   3.023
12871SOL    HW140452  11.568   7.490   2.987
12871SOL    HW240453  11.490   7.476   3.116
12872SOL     OW40454   2.953  11.635   5.213
12872SOL    HW140455   3.045  11.659   5.217
12872SOL    HW240456   2.924  11.666   5.127
12873SOL     OW40457   7.181   0.690  14.077
12873SOL    HW140458   7.093   0.695  14.112
12873SOL    HW240459   7.204   0.597  14.082
12874SOL     OW40460  11.821  11.674   7.260
12874SOL    HW140461  11.772  11.604   7.217
12874SOL    HW240462  11.770  11.694   7.339
12875SOL     OW40463   4.361   5.420   6.364
12875SOL    HW140464   4.406   5.399   6.282
12875SOL    HW240465   4.349   5.335   6.408
12876SOL     OW40466   6.729   3.843   4.665
12876SOL    HW140467   6.664   3.806   4.725
12876SOL    HW240468   6.683   3.851   4.581
12877SOL     OW40469   5.428   6.010   3.904
12877SOL    HW140470   5.343   5.974   3.927
12877SOL    HW240471   5.462   5.951   3.837
12878SOL     OW40472   1.853   4.758   4.307
12878SOL    HW140473   1.864   4.679   4.256
12878SOL    HW240474   1.889   4.736   4.393
12879SOL     OW40475   5.999  11.651  10.244
12879SOL    HW140476   6.039  11.737  10.233
12879SOL    HW240477   6.038  11.597  10.175
12880SOL     OW40478   1.173   6.586  14.652
12880SOL    HW140479   1.196   6.496  14.677
12880SOL    HW240480   1.173   6.585  14.556
12881SOL     OW40481   5.314   8.956   4.104
12881SOL    HW140482   5.386   8.929   4.047
12881SOL    HW240483   5.320   8.897   4.179
12882SOL     OW40484  12.676   5.813  10.724
12882SOL    HW140485  12.678   5.717  10.721
12882SOL    HW240486  12.584   5.835  10.712
12883SOL     OW40487   8.099  10.704  13.052
12883SOL    HW140488   8.094  10.756  12.972
12883SOL    HW240489   8.078  10.765  13.122
12884SOL     OW40490  13.155   4.783   7.859
12884SOL    HW140491  13.119   4.836   7.788
12884SOL    HW240492  13.234   4.745   7.821
12885SOL     OW40493   9.756   8.449   1.669
12885SOL    HW140494   9.825   8.501   1.710
12885SOL    HW240495   9.798   8.365   1.648
12886SOL     OW40496   3.033  13.407   3.297
12886SOL    HW140497   2.972  13.351   3.249
12886SOL    HW240498   3.119  13.387   3.260
12887SOL     OW40499  11.657   6.040   9.224
12887SOL    HW140500  11.691   6.022   9.137
12887SOL    HW240501  11.659   5.955   9.269
12888SOL     OW40502   6.293  13.018  11.493
12888SOL    HW140503   6.339  13.066  11.424
12888SOL    HW240504   6.348  13.029  11.570
12889SOL     OW40505   4.414   0.806  12.703
12889SOL    HW140506   4.451   0.893  12.713
12889SOL    HW240507   4.471   0.763  12.639
12890SOL     OW40508   5.371  13.886  14.440
12890SOL    HW140509   5.300  13.914  14.498
12890SOL    HW240510   5.370  13.950  14.369
12891SOL     OW40511   4.434  14.225   0.806
12891SOL    HW140512   4.460  14.195   0.893
12891SOL    HW240513   4.483  14.169   0.746
12892SOL     OW40514   8.831   1.544   9.108
12892SOL    HW140515   8.908   1.598   9.128
12892SOL    HW240516   8.820   1.554   9.013
12893SOL     OW40517  13.365  10.653   7.616
12893SOL    HW140518  13.392  10.678   7.527
12893SOL    HW240519  13.327  10.733   7.652
12894SOL     OW40520   6.468  12.707   5.550
12894SOL    HW140521   6.479  12.657   5.631
12894SOL    HW240522   6.379  12.687   5.522
12895SOL     OW40523   7.670   0.856  13.620
12895SOL    HW140524   7.617   0.781  13.647
12895SOL    HW240525   7.609   0.912  13.572
12896SOL     OW40526   2.383   5.656   9.771
12896SOL    HW140527   2.303   5.615   9.803
12896SOL    HW240528   2.392   5.736   9.822
12897SOL     OW40529   8.900   7.322  13.653
12897SOL    HW140530   8.868   7.266  13.723
12897SOL    HW240531   8.942   7.395  13.697
12898SOL     OW40532   3.739   8.792   1.775
12898SOL    HW140533   3.804   8.725   1.753
12898SOL    HW240534   3.791   8.866   1.807
12899SOL     OW40535   1.802  12.625   0.768
12899SOL    HW140536   1.734  12.607   0.832
12899SOL    HW240537   1.874  12.662   0.819
12900SOL     OW40538   8.874   6.886  11.589
12900SOL    HW140539   8.796   6.860  11.638
12900SOL    HW240540   8.861   6.978  11.568
12901SOL     OW40541  13.763   5.375   5.349
12901SOL    HW140542  13.718   5.431   5.411
12901SOL    HW240543  13.856   5.387   5.369
12902SOL     OW40544   5.034  12.321   0.842
12902SOL    HW140545   5.103  12.384   0.823
12902SOL    HW240546   5.066  12.239   0.804
12903SOL     OW40547   1.605   4.607   2.085
12903SOL    HW140548   1.682   4.552   2.071
12903SOL    HW240549   1.535   4.546   2.107
12904SOL     OW40550   8.676   8.377   0.476
12904SOL    HW140551   8.603   8.418   0.431
12904SOL    HW240552   8.711   8.446   0.532
12905SOL     OW40553   1.587  10.670  12.919
12905SOL    HW140554   1.637  10.743  12.955
12905SOL    HW240555   1.649  10.624  12.864
12906SOL     OW40556   5.347   4.612   2.395
12906SOL    HW140557   5.392   4.694   2.416
12906SOL    HW240558   5.281   4.603   2.464
12907SOL     OW40559   1.290  14.444   3.372
12907SOL    HW140560   1.315  14.424   3.463
12907SOL    HW240561   1.256  14.534   3.376
12908SOL     OW40562   6.750   0.729   0.784
12908SOL    HW140563   6.771   0.822   0.774
12908SOL    HW240564   6.793   0.687   0.709
12909SOL     OW40565  14.273   2.707   9.608
12909SOL    HW140566  14.251   2.799   9.624
12909SOL    HW240567  14.339   2.686   9.674
12910SOL     OW40568   2.068  12.584   2.575
12910SOL    HW140569   2.001  12.636   2.620
12910SOL    HW240570   2.020  12.510   2.537
12911SOL     OW40571  12.718   5.165   8.945
12911SOL    HW140572  12.778   5.186   9.016
12911SOL    HW240573  12.763   5.096   8.896
12912SOL     OW40574   5.922  11.372   2.115
12912SOL    HW140575   6.017  11.371   2.107
12912SOL    HW240576   5.891  11.404   2.030
12913SOL     OW40577   5.999   8.576  10.079
12913SOL    HW140578   5.912   8.543  10.101
12913SOL    HW240579   6.052   8.498  10.066
12914SOL     OW40580   6.386   8.290   0.173
12914SOL    HW140581   6.469   8.291   0.221
12914SOL    HW240582   6.404   8.238   0.095
12915SOL     OW40583   4.632   3.079   0.868
12915SOL    HW140584   4.676   3.034   0.797
12915SOL    HW240585   4.544   3.098   0.835
12916SOL     OW40586  13.672   8.995   7.758
12916SOL    HW140587  13.656   8.907   7.725
12916SOL    HW240588  13.698   9.046   7.681
12917SOL     OW40589   0.802   5.747   1.392
12917SOL    HW140590   0.792   5.842   1.386
12917SOL    HW240591   0.824   5.731   1.484
12918SOL     OW40592   9.033   8.196   5.950
12918SOL    HW140593   8.985   8.239   6.021
12918SOL    HW240594   8.978   8.121   5.927
12919SOL     OW40595  14.152   9.612  12.158
12919SOL    HW140596  14.061   9.595  12.133
12919SOL    HW240597  14.200   9.536  12.124
12920SOL     OW40598  14.221   5.750   9.956
12920SOL    HW140599  14.228   5.719   9.866
12920SOL    HW240600  14.263   5.836   9.955
12921SOL     OW40601  14.508  11.150  10.466
12921SOL    HW140602  14.428  11.104  10.443
12921SOL    HW240603  14.519  11.133  10.560
12922SOL     OW40604  12.056   9.122   3.588
12922SOL    HW140605  12.030   9.128   3.497
12922SOL    HW240606  12.147   9.090   3.586
12923SOL     OW40607   4.306   2.846   8.949
12923SOL    HW140608   4.281   2.782   8.883
12923SOL    HW240609   4.298   2.931   8.905
12924SOL     OW40610   8.276  14.451   8.262
12924SOL    HW140611   8.341  14.422   8.327
12924SOL    HW240612   8.323  14.449   8.179
12925SOL     OW40613   2.258   3.583  10.595
12925SOL    HW140614   2.296   3.572  10.682
12925SOL    HW240615   2.164   3.595  10.610
12926SOL     OW40616  12.054   7.931  14.516
12926SOL    HW140617  12.023   7.934  14.606
12926SOL    HW240618  12.120   8.001  14.511
12927SOL     OW40619  13.734   0.649  12.567
12927SOL    HW140620  13.661   0.698  12.530
12927SOL    HW240621  13.805   0.661  12.504
12928SOL     OW40622  10.516  12.196   1.462
12928SOL    HW140623  10.585  12.262   1.454
12928SOL    HW240624  10.521  12.147   1.380
12929SOL     OW40625  12.856  13.611   9.071
12929SOL    HW140626  12.835  13.519   9.083
12929SOL    HW240627  12.932  13.626   9.127
12930SOL     OW40628  13.935  13.936   1.604
12930SOL    HW140629  13.871  13.876   1.642
12930SOL    HW240630  13.956  13.898   1.519
12931SOL     OW40631  11.627   0.945   9.864
12931SOL    HW140632  11.691   1.012   9.841
12931SOL    HW240633  11.546   0.975   9.824
12932SOL     OW40634   4.941  11.854  13.161
12932SOL    HW140635   4.869  11.911  13.133
12932SOL    HW240636   4.933  11.851  13.257
12933SOL     OW40637   9.412   2.510   3.832
12933SOL    HW140638   9.320   2.491   3.847
12933SOL    HW240639   9.444   2.544   3.915
12934SOL     OW40640   3.520   3.872  13.956
12934SOL    HW140641   3.439   3.894  14.001
12934SOL    HW240642   3.496   3.799  13.899
12935SOL     OW40643   8.950  10.015   9.705
12935SOL    HW140644   9.039  10.035   9.733
12935SOL    HW240645   8.925   9.939   9.757
12936SOL     OW40646   5.483  10.755  12.707
12936SOL    HW140647   5.405  10.810  12.705
12936SOL    HW240648   5.546  10.799  12.650
12937SOL     OW40649   2.740   8.533   0.216
12937SOL    HW140650   2.795   8.476   0.163
12937SOL    HW240651   2.663   8.480   0.236
12938SOL     OW40652   1.187   2.117  10.623
12938SOL    HW140653   1.196   2.038  10.677
12938SOL    HW240654   1.127   2.173  10.672
12939SOL     OW40655  11.803   7.915  10.459
12939SOL    HW140656  11.714   7.880  10.448
12939SOL    HW240657  11.839   7.915  10.371
12940SOL     OW40658  12.398  11.722   8.963
12940SOL    HW140659  12.374  11.631   8.981
12940SOL    HW240660  12.407  11.726   8.868
12941SOL     OW40661   9.734   5.202  12.989
12941SOL    HW140662   9.689   5.192  13.073
12941SOL    HW240663   9.758   5.295  12.987
12942SOL     OW40664   5.591   3.178   8.218
12942SOL    HW140665   5.672   3.190   8.268
12942SOL    HW240666   5.549   3.264   8.219
12943SOL     OW40667   0.639   9.773  10.887
12943SOL    HW140668   0.623   9.780  10.793
12943SOL    HW240669   0.596   9.691  10.912
12944SOL     OW40670   4.705   0.502   0.329
12944SOL    HW140671   4.629   0.542   0.370
12944SOL    HW240672   4.773   0.505   0.396
12945SOL     OW40673   8.024   9.617   3.933
12945SOL    HW140674   7.936   9.582   3.940
12945SOL    HW240675   8.053   9.593   3.845
12946SOL     OW40676   9.351  10.681   2.196
12946SOL    HW140677   9.325  10.770   2.173
12946SOL    HW240678   9.304  10.663   2.278
12947SOL     OW40679   3.123   2.272  13.467
12947SOL    HW140680   3.068   2.244  13.540
12947SOL    HW240681   3.085   2.230  13.390
12948SOL     OW40682   3.041   6.747   2.673
12948SOL    HW140683   2.977   6.818   2.666
12948SOL    HW240684   3.101   6.775   2.742
12949SOL     OW40685  12.069   6.194  10.334
12949SOL    HW140686  11.992   6.182  10.390
12949SOL    HW240687  12.130   6.243  10.388
12950SOL     OW40688  10.716   4.285   7.969
12950SOL    HW140689  10.634   4.302   8.016
12950SOL    HW240690  10.698   4.206   7.918
12951SOL     OW40691   8.558   0.596   9.728
12951SOL    HW140692   8.633   0.538   9.711
12951SOL    HW240693   8.523   0.565   9.811
12952SOL     OW40694  11.392   2.675   3.326
12952SOL    HW140695  11.321   2.666   3.388
12952SOL    HW240696  11.443   2.595   3.334
12953SOL     OW40697   8.462   7.610  12.212
12953SOL    HW140698   8.480   7.609  12.306
12953SOL    HW240699   8.372   7.578  12.205
12954SOL     OW40700  13.321   3.390  11.665
12954SOL    HW140701  13.306   3.459  11.730
12954SOL    HW240702  13.406   3.353  11.688
12955SOL     OW40703  14.439   5.176   9.755
12955SOL    HW140704  14.482   5.097   9.789
12955SOL    HW240705  14.370   5.142   9.697
12956SOL     OW40706  12.324   4.496   3.105
12956SOL    HW140707  12.304   4.523   3.195
12956SOL    HW240708  12.240   4.496   3.061
12957SOL     OW40709   8.805  13.298   6.188
12957SOL    HW140710   8.711  13.300   6.206
12957SOL    HW240711   8.846  13.318   6.272
12958SOL     OW40712   8.800   3.450   6.640
12958SOL    HW140713   8.854   3.499   6.702
12958SOL    HW240714   8.711   3.456   6.675
12959SOL     OW40715   2.588   7.292   8.100
12959SOL    HW140716   2.607   7.378   8.138
12959SOL    HW240717   2.600   7.231   8.173
12960SOL     OW40718  11.172  11.910   1.562
12960SOL    HW140719  11.266  11.893   1.559
12960SOL    HW240720  11.148  11.903   1.654
12961SOL     OW40721   5.412   4.411   0.811
12961SOL    HW140722   5.409   4.486   0.869
12961SOL    HW240723   5.409   4.448   0.723
12962SOL     OW40724  13.438   4.292   8.601
12962SOL    HW140725  13.465   4.346   8.526
12962SOL    HW240726  13.411   4.209   8.561
12963SOL     OW40727   0.804   1.378   4.856
12963SOL    HW140728   0.772   1.292   4.881
12963SOL    HW240729   0.896   1.378   4.883
12964SOL     OW40730   9.616  12.261   8.985
12964SOL    HW140731   9.685  12.195   8.987
12964SOL    HW240732   9.621  12.299   8.898
12965SOL     OW40733  12.949  12.647   4.677
12965SOL    HW140734  12.940  12.742   4.672
12965SOL    HW240735  12.917  12.615   4.593
12966SOL     OW40736   4.048  12.521   5.881
12966SOL    HW140737   4.059  12.521   5.976
12966SOL    HW240738   4.056  12.429   5.856
12967SOL     OW40739   8.352   9.203   2.165
12967SOL    HW140740   8.391   9.279   2.123
12967SOL    HW240741   8.313   9.154   2.092
12968SOL     OW40742   9.059   4.387  10.881
12968SOL    HW140743   8.977   4.419  10.919
12968SOL    HW240744   9.128   4.423  10.937
12969SOL     OW40745  11.558   8.232   2.856
12969SOL    HW140746  11.524   8.143   2.851
12969SOL    HW240747  11.480   8.287   2.864
12970SOL     OW40748  11.443  11.102   4.171
12970SOL    HW140749  11.431  11.157   4.248
12970SOL    HW240750  11.366  11.118   4.117
12971SOL     OW40751   2.580   1.945   7.443
12971SOL    HW140752   2.659   1.914   7.487
12971SOL    HW240753   2.569   1.885   7.369
12972SOL     OW40754   0.248   1.075  13.068
12972SOL    HW140755   0.208   1.151  13.027
12972SOL    HW240756   0.337   1.073  13.033
12973SOL     OW40757   3.487   0.036  12.317
12973SOL    HW140758   3.482   0.102  12.248
12973SOL    HW240759   3.522   0.083  12.393
12974SOL     OW40760   7.138   5.356   8.668
12974SOL    HW140761   7.208   5.300   8.703
12974SOL    HW240762   7.085   5.296   8.614
12975SOL     OW40763  13.315   3.300   9.457
12975SOL    HW140764  13.351   3.353   9.528
12975SOL    HW240765  13.253   3.241   9.500
12976SOL     OW40766  10.938  11.050  11.824
12976SOL    HW140767  10.867  11.095  11.870
12976SOL    HW240768  10.959  11.106  11.750
12977SOL     OW40769  14.418   7.453   2.259
12977SOL    HW140770  14.489   7.469   2.198
12977SOL    HW240771  14.391   7.540   2.288
12978SOL     OW40772   0.812  11.845  11.008
12978SOL    HW140773   0.798  11.874  11.098
12978SOL    HW240774   0.886  11.897  10.976
12979SOL     OW40775   3.890  11.554   4.443
12979SOL    HW140776   3.867  11.630   4.497
12979SOL    HW240777   3.805  11.520   4.413
12980SOL     OW40778   6.766   4.128  14.150
12980SOL    HW140779   6.787   4.040  14.118
12980SOL    HW240780   6.825   4.141  14.224
12981SOL     OW40781  10.088  12.929  12.881
12981SOL    HW140782  10.102  12.858  12.944
12981SOL    HW240783  10.027  12.893  12.817
12982SOL     OW40784   7.355   5.013   6.404
12982SOL    HW140785   7.319   5.094   6.367
12982SOL    HW240786   7.425   5.042   6.462
12983SOL     OW40787  14.566   1.951   4.156
12983SOL    HW140788  14.606   1.962   4.242
12983SOL    HW240789  14.533   1.862   4.155
12984SOL     OW40790   8.010   7.527   1.561
12984SOL    HW140791   8.009   7.621   1.577
12984SOL    HW240792   7.920   7.506   1.537
12985SOL     OW40793   9.340   3.510   9.723
12985SOL    HW140794   9.420   3.503   9.671
12985SOL    HW240795   9.269   3.517   9.659
12986SOL     OW40796  14.424   4.464  14.799
12986SOL    HW140797  14.516   4.475  14.823
12986SOL    HW240798  14.419   4.375  14.765
12987SOL     OW40799   4.495  13.339   1.835
12987SOL    HW140800   4.465  13.387   1.758
12987SOL    HW240801   4.419  13.287   1.862
12988SOL     OW40802   2.444   2.942   4.877
12988SOL    HW140803   2.422   2.863   4.828
12988SOL    HW240804   2.504   2.990   4.821
12989SOL     OW40805   5.836   4.235  11.686
12989SOL    HW140806   5.842   4.182  11.765
12989SOL    HW240807   5.810   4.173  11.617
12990SOL     OW40808   1.711   9.752   9.366
12990SOL    HW140809   1.743   9.783   9.451
12990SOL    HW240810   1.785   9.765   9.306
12991SOL     OW40811   9.666   5.984   3.438
12991SOL    HW140812   9.723   5.909   3.422
12991SOL    HW240813   9.626   6.003   3.353
12992SOL     OW40814  14.420   4.762  13.452
12992SOL    HW140815  14.500   4.773  13.504
12992SOL    HW240816  14.356   4.727  13.513
12993SOL     OW40817   0.062  13.278  13.994
12993SOL    HW140818   0.039  13.357  14.044
12993SOL    HW240819   0.141  13.245  14.038
12994SOL     OW40820  12.783   7.613   8.466
12994SOL    HW140821  12.840   7.537   8.475
12994SOL    HW240822  12.774   7.647   8.555
12995SOL     OW40823  12.564  11.463  11.117
12995SOL    HW140824  12.505  11.508  11.056
12995SOL    HW240825  12.506  11.405  11.167
12996SOL     OW40826   5.828   6.720   2.362
12996SOL    HW140827   5.916   6.744   2.392
12996SOL    HW240828   5.772   6.735   2.439
12997SOL     OW40829   6.469   7.069   9.719
12997SOL    HW140830   6.403   7.107   9.661
12997SOL    HW240831   6.517   7.145   9.753
12998SOL     OW40832  12.728   8.388   2.555
12998SOL    HW140833  12.763   8.305   2.522
12998SOL    HW240834  12.639   8.368   2.583
12999SOL     OW40835   9.627  13.814  10.717
12999SOL    HW140836   9.596  13.724  10.710
12999SOL    HW240837   9.548  13.867  10.725
13000SOL     OW40838   2.863   5.867   9.161
13000SOL    HW140839   2.905   5.940   9.116
13000SOL    HW240840   2.935   5.823   9.207
13001SOL     OW40841   6.392   2.093  12.314
13001SOL    HW140842   6.392   2.187  12.296
13001SOL    HW240843   6.308   2.078  12.358
13002SOL     OW40844   6.249   0.117  14.076
13002SOL    HW140845   6.338   0.144  14.054
13002SOL    HW240846   6.214   0.082  13.994
13003SOL     OW40847  11.796   8.781   0.807
13003SOL    HW140848  11.782   8.829   0.726
13003SOL    HW240849  11.889   8.791   0.826
13004SOL     OW40850   2.612   7.559   1.566
13004SOL    HW140851   2.542   7.524   1.621
13004SOL    HW240852   2.686   7.571   1.625
13005SOL     OW40853  11.705   6.642  12.134
13005SOL    HW140854  11.738   6.700  12.066
13005SOL    HW240855  11.783   6.617  12.184
13006SOL     OW40856  12.188   6.503   7.059
13006SOL    HW140857  12.152   6.589   7.082
13006SOL    HW240858  12.122   6.465   7.001
13007SOL     OW40859   9.705  11.147   8.457
13007SOL    HW140860   9.698  11.208   8.530
13007SOL    HW240861   9.788  11.101   8.472
13008SOL     OW40862   4.536  11.388  14.354
13008SOL    HW140863   4.607  11.412  14.295
13008SOL    HW240864   4.530  11.461  14.415
13009SOL     OW40865  14.015  14.314   4.607
13009SOL    HW140866  14.013  14.264   4.525
13009SOL    HW240867  13.999  14.249   4.675
13010SOL     OW40868   9.090  13.755   0.152
13010SOL    HW140869   9.110  13.784   0.241
13010SOL    HW240870   9.028  13.683   0.163
13011SOL     OW40871   4.760   9.603  13.327
13011SOL    HW140872   4.729   9.646  13.247
13011SOL    HW240873   4.812   9.671  13.371
13012SOL     OW40874   7.570   2.555   6.816
13012SOL    HW140875   7.612   2.633   6.852
13012SOL    HW240876   7.477   2.567   6.836
13013SOL     OW40877  14.730  10.135  10.256
13013SOL    HW140878  14.726  10.186  10.336
13013SOL    HW240879  14.817  10.153  10.220
13014SOL     OW40880  13.596   7.354   3.823
13014SOL    HW140881  13.679   7.308   3.812
13014SOL    HW240882  13.620   7.437   3.864
13015SOL     OW40883  14.100  12.857  11.760
13015SOL    HW140884  14.135  12.796  11.825
13015SOL    HW240885  14.041  12.804  11.707
13016SOL     OW40886   8.686   1.165   0.925
13016SOL    HW140887   8.753   1.100   0.948
13016SOL    HW240888   8.616   1.115   0.885
13017SOL     OW40889  11.768   5.743  14.812
13017SOL    HW140890  11.840   5.770  14.870
13017SOL    HW240891  11.727   5.826  14.785
13018SOL     OW40892   6.498   4.675  12.155
13018SOL    HW140893   6.562   4.605  12.167
13018SOL    HW240894   6.544   4.755  12.181
13019SOL     OW40895  12.251  10.337  12.295
13019SOL    HW140896  12.340  10.356  12.325
13019SOL    HW240897  12.203  10.419  12.311
13020SOL     OW40898   7.988   4.938   8.823
13020SOL    HW140899   7.942   4.891   8.892
13020SOL    HW240900   7.949   5.026   8.824
13021SOL     OW40901   4.968   7.796   7.072
13021SOL    HW140902   4.948   7.883   7.038
13021SOL    HW240903   4.918   7.790   7.153
13022SOL     OW40904  10.492  10.404   7.913
13022SOL    HW140905  10.557  10.341   7.883
13022SOL    HW240906  10.492  10.393   8.008
13023SOL     OW40907   6.714  13.101   7.238
13023SOL    HW140908   6.733  13.113   7.145
13023SOL    HW240909   6.799  13.115   7.281
13024SOL     OW40910   0.184  12.389   1.672
13024SOL    HW140911   0.123  12.315   1.673
13024SOL    HW240912   0.240  12.373   1.596
13025SOL     OW40913   2.893   2.836   3.837
13025SOL    HW140914   2.864   2.920   3.872
13025SOL    HW240915   2.817   2.802   3.789
13026SOL     OW40916  11.378   3.473   9.204
13026SOL    HW140917  11.315   3.523   9.256
13026SOL    HW240918  11.367   3.506   9.114
13027SOL     OW40919   3.412   6.776   2.327
13027SOL    HW140920   3.330   6.752   2.283
13027SOL    HW240921   3.392   6.768   2.420
13028SOL     OW40922   7.863   0.660   4.501
13028SOL    HW140923   7.782   0.710   4.501
13028SOL    HW240924   7.931   0.723   4.525
13029SOL     OW40925   1.106   9.169   2.683
13029SOL    HW140926   1.172   9.194   2.619
13029SOL    HW240927   1.074   9.084   2.653
13030SOL     OW40928  10.010   4.547  11.701
13030SOL    HW140929  10.047   4.501  11.626
13030SOL    HW240930  10.010   4.639  11.675
13031SOL     OW40931   3.955   7.454   5.134
13031SOL    HW140932   3.882   7.480   5.078
13031SOL    HW240933   4.024   7.517   5.116
13032SOL     OW40934  10.824   8.877  10.220
13032SOL    HW140935  10.825   8.956  10.275
13032SOL    HW240936  10.731   8.862  10.202
13033SOL     OW40937   0.380   1.659  11.973
13033SOL    HW140938   0.341   1.688  12.056
13033SOL    HW240939   0.444   1.593  11.999
13034SOL     OW40940  13.969   5.477   8.532
13034SOL    HW140941  13.991   5.556   8.482
13034SOL    HW240942  13.928   5.510   8.612
13035SOL     OW40943   9.915   0.088   7.142
13035SOL    HW140944   9.951   0.146   7.209
13035SOL    HW240945   9.821   0.085   7.162
13036SOL     OW40946   3.081   0.068   7.184
13036SOL    HW140947   3.085  14.864   7.127
13036SOL    HW240948   3.111   0.140   7.129
13037SOL     OW40949   9.649   9.165   8.128
13037SOL    HW140950   9.557   9.149   8.152
13037SOL    HW240951   9.681   9.224   8.197
13038SOL     OW40952   3.773  13.565  10.255
13038SOL    HW140953   3.800  13.628  10.188
13038SOL    HW240954   3.852  13.552  10.308
13039SOL     OW40955  14.550   3.201  10.936
13039SOL    HW140956  14.603   3.269  10.894
13039SOL    HW240957  14.614   3.140  10.973
13040SOL     OW40958   8.629  11.547   9.518
13040SOL    HW140959   8.684  11.471   9.500
13040SOL    HW240960   8.691  11.619   9.533
13041SOL     OW40961  13.794   7.167   9.889
13041SOL    HW140962  13.811   7.093   9.831
13041SOL    HW240963  13.761   7.127   9.970
13042SOL     OW40964   1.487  13.200  12.334
13042SOL    HW140965   1.506  13.172  12.423
13042SOL    HW240966   1.510  13.293  12.332
13043SOL     OW40967   1.257   6.664  13.836
13043SOL    HW140968   1.332   6.621  13.877
13043SOL    HW240969   1.287   6.753  13.818
13044SOL     OW40970  12.349   4.583  10.039
13044SOL    HW140971  12.329   4.650  10.104
13044SOL    HW240972  12.270   4.578   9.984
13045SOL     OW40973   4.136  14.026   1.706
13045SOL    HW140974   4.177  13.965   1.767
13045SOL    HW240975   4.069  14.071   1.757
13046SOL     OW40976   0.126   7.442   0.320
13046SOL    HW140977   0.044   7.408   0.355
13046SOL    HW240978   0.137   7.396   0.237
13047SOL     OW40979   1.369  10.866  11.457
13047SOL    HW140980   1.376  10.955  11.492
13047SOL    HW240981   1.371  10.877  11.362
13048SOL     OW40982   1.488   4.526   3.513
13048SOL    HW140983   1.513   4.441   3.478
13048SOL    HW240984   1.487   4.513   3.608
13049SOL     OW40985   1.959  10.749   2.728
13049SOL    HW140986   1.935  10.700   2.650
13049SOL    HW240987   1.895  10.723   2.794
13050SOL     OW40988   8.853  14.612   2.062
13050SOL    HW140989   8.779  14.562   2.029
13050SOL    HW240990   8.919  14.546   2.084
13051SOL     OW40991   7.901   4.690   7.640
13051SOL    HW140992   7.911   4.753   7.711
13051SOL    HW240993   7.901   4.605   7.683
13052SOL     OW40994   5.218   9.894   9.897
13052SOL    HW140995   5.172   9.933   9.971
13052SOL    HW240996   5.286   9.839   9.937
13053SOL     OW40997   6.613   1.320   5.686
13053SOL    HW140998   6.691   1.305   5.739
13053SOL    HW240999   6.545   1.343   5.749
13054SOL     OW41000   0.742   0.872  12.170
13054SOL    HW141001   0.706   0.905  12.252
13054SOL    HW241002   0.694   0.790  12.154
13055SOL     OW41003  10.444   0.377   0.035
13055SOL    HW141004  10.372   0.425  14.866
13055SOL    HW241005  10.459   0.302  14.852
13056SOL     OW41006   1.626   8.503   5.665
13056SOL    HW141007   1.652   8.519   5.756
13056SOL    HW241008   1.531   8.520   5.664
13057SOL     OW41009   3.943   9.543  12.543
13057SOL    HW141010   4.022   9.507  12.503
13057SOL    HW241011   3.973   9.623  12.586
13058SOL     OW41012  10.161   4.472   9.661
13058SOL    HW141013  10.201   4.385   9.669
13058SOL    HW241014  10.218   4.529   9.713
13059SOL     OW41015  11.061   6.955  10.854
13059SOL    HW141016  11.155   6.959  10.873
13059SOL    HW241017  11.030   6.880  10.905
13060SOL     OW41018  12.500  13.644   3.375
13060SOL    HW141019  12.505  13.549   3.367
13060SOL    HW241020  12.583  13.676   3.339
13061SOL     OW41021   3.124   9.160  13.027
13061SOL    HW141022   3.093   9.199  12.945
13061SOL    HW241023   3.220   9.160  13.019
13062SOL     OW41024   6.369  11.479  14.373
13062SOL    HW141025   6.283  11.505  14.405
13062SOL    HW241026   6.414  11.562  14.355
13063SOL     OW41027   1.079   3.142   0.726
13063SOL    HW141028   1.000   3.106   0.768
13063SOL    HW241029   1.052   3.159   0.635
13064SOL     OW41030   9.646   6.024   6.286
13064SOL    HW141031   9.700   6.092   6.326
13064SOL    HW241032   9.590   6.072   6.224
13065SOL     OW41033   0.661   1.700  12.845
13065SOL    HW141034   0.569   1.709  12.869
13065SOL    HW241035   0.664   1.620  12.793
13066SOL     OW41036   2.874  12.242   6.869
13066SOL    HW141037   2.858  12.163   6.817
13066SOL    HW241038   2.964  12.266   6.849
13067SOL     OW41039   5.937   6.974   8.732
13067SOL    HW141040   5.923   7.045   8.795
13067SOL    HW241041   5.884   6.999   8.656
13068SOL     OW41042   6.521   1.204   8.354
13068SOL    HW141043   6.492   1.283   8.400
13068SOL    HW241044   6.575   1.237   8.282
13069SOL     OW41045  10.773   5.701  10.956
13069SOL    HW141046  10.817   5.744  11.030
13069SOL    HW241047  10.825   5.725  10.880
13070SOL     OW41048  11.213  12.276   8.857
13070SOL    HW141049  11.284  12.251   8.916
13070SOL    HW241050  11.196  12.368   8.877
13071SOL     OW41051   2.267  10.829   3.350
13071SOL    HW141052   2.308  10.752   3.389
13071SOL    HW241053   2.200  10.794   3.291
13072SOL     OW41054  12.873   5.617   9.826
13072SOL    HW141055  12.856   5.669   9.748
13072SOL    HW241056  12.961   5.643   9.854
13073SOL     OW41057   5.424  12.721   2.464
13073SOL    HW141058   5.451  12.785   2.398
13073SOL    HW241059   5.350  12.676   2.424
13074SOL     OW41060   3.343   3.964   9.921
13074SOL    HW141061   3.279   4.030   9.949
13074SOL    HW241062   3.399   3.952   9.997
13075SOL     OW41063   9.129   1.039   1.906
13075SOL    HW141064   9.184   1.116   1.893
13075SOL    HW241065   9.039   1.073   1.904
13076SOL     OW41066   9.910  14.221  13.023
13076SOL    HW141067   9.886  14.156  12.958
13076SOL    HW241068   9.924  14.301  12.972
13077SOL     OW41069   6.460   3.943  10.377
13077SOL    HW141070   6.472   3.895  10.459
13077SOL    HW241071   6.398   4.013  10.399
13078SOL     OW41072  10.581   0.155   5.857
13078SOL    HW141073  10.647   0.128   5.921
13078SOL    HW241074  10.542   0.072   5.827
13079SOL     OW41075   9.700   0.944  10.429
13079SOL    HW141076   9.734   0.982  10.348
13079SOL    HW241077   9.612   0.914  10.407
13080SOL     OW41078   0.409   4.134   1.581
13080SOL    HW141079   0.500   4.124   1.609
13080SOL    HW241080   0.406   4.222   1.542
13081SOL     OW41081   2.014  12.885  12.677
13081SOL    HW141082   2.025  12.872  12.771
13081SOL    HW241083   2.089  12.840  12.638
13082SOL     OW41084  13.647  12.233   2.965
13082SOL    HW141085  13.697  12.179   2.903
13082SOL    HW241086  13.560  12.193   2.967
13083SOL     OW41087   9.682   0.923  11.685
13083SOL    HW141088   9.776   0.917  11.699
13083SOL    HW241089   9.651   0.981  11.754
13084SOL     OW41090  11.213  13.968   6.272
13084SOL    HW141091  11.141  13.905   6.264
13084SOL    HW241092  11.170  14.053   6.273
13085SOL     OW41093  13.940   9.535   6.245
13085SOL    HW141094  13.910   9.622   6.219
13085SOL    HW241095  14.029   9.549   6.277
13086SOL     OW41096   5.614   1.522  11.723
13086SOL    HW141097   5.559   1.565  11.788
13086SOL    HW241098   5.704   1.536  11.753
13087SOL     OW41099  11.876   4.235  14.190
13087SOL    HW141100  11.940   4.222  14.120
13087SOL    HW241101  11.913   4.190  14.265
13088SOL     OW41102  12.584   0.780   2.679
13088SOL    HW141103  12.492   0.755   2.671
13088SOL    HW241104  12.603   0.828   2.598
13089SOL     OW41105   9.641   4.992   2.485
13089SOL    HW141106   9.665   5.013   2.575
13089SOL    HW241107   9.549   5.018   2.478
13090SOL     OW41108  10.664  10.065  12.353
13090SOL    HW141109  10.649   9.982  12.307
13090SOL    HW241110  10.684  10.039  12.443
13091SOL     OW41111  14.692   1.372   6.440
13091SOL    HW141112  14.678   1.405   6.352
13091SOL    HW241113  14.753   1.434   6.480
13092SOL     OW41114   4.444  10.008   0.414
13092SOL    HW141115   4.383   9.993   0.486
13092SOL    HW241116   4.525   9.964   0.441
13093SOL     OW41117   2.475   7.217  13.422
13093SOL    HW141118   2.510   7.276  13.489
13093SOL    HW241119   2.382   7.211  13.442
13094SOL     OW41120   6.317  14.227   4.882
13094SOL    HW141121   6.363  14.166   4.824
13094SOL    HW241122   6.363  14.310   4.872
13095SOL     OW41123   1.073   4.119   0.633
13095SOL    HW141124   1.050   4.177   0.706
13095SOL    HW241125   1.155   4.156   0.599
13096SOL     OW41126   2.333   1.688   2.594
13096SOL    HW141127   2.320   1.769   2.544
13096SOL    HW241128   2.307   1.711   2.683
13097SOL     OW41129   5.697   3.394  13.319
13097SOL    HW141130   5.736   3.466  13.367
13097SOL    HW241131   5.632   3.358  13.378
13098SOL     OW41132  14.334  14.376   7.740
13098SOL    HW141133  14.275  14.308   7.774
13098SOL    HW241134  14.333  14.444   7.807
13099SOL     OW41135   6.064   9.506   4.786
13099SOL    HW141136   5.978   9.509   4.827
13099SOL    HW241137   6.126   9.508   4.859
13100SOL     OW41138   1.132   7.702  14.196
13100SOL    HW141139   1.039   7.702  14.173
13100SOL    HW241140   1.174   7.754  14.127
13101SOL     OW41141  12.865   7.594   3.114
13101SOL    HW141142  12.906   7.678   3.092
13101SOL    HW241143  12.909   7.530   3.059
13102SOL     OW41144   4.316  12.882  13.575
13102SOL    HW141145   4.281  12.918  13.494
13102SOL    HW241146   4.247  12.896  13.640
13103SOL     OW41147   9.666   0.448   9.252
13103SOL    HW141148   9.587   0.400   9.276
13103SOL    HW241149   9.678   0.512   9.322
13104SOL     OW41150   0.038   9.140  14.679
13104SOL    HW141151   0.078   9.107  14.598
13104SOL    HW241152  14.822   9.105  14.678
13105SOL     OW41153   1.832   8.292   0.846
13105SOL    HW141154   1.798   8.300   0.757
13105SOL    HW241155   1.777   8.225   0.887
13106SOL     OW41156  10.200   7.568   7.326
13106SOL    HW141157  10.119   7.619   7.327
13106SOL    HW241158  10.266   7.628   7.362
13107SOL     OW41159  10.512   9.403  11.208
13107SOL    HW141160  10.477   9.411  11.297
13107SOL    HW241161  10.574   9.330  11.213
13108SOL     OW41162   2.622   3.461   9.321
13108SOL    HW141163   2.560   3.534   9.331
13108SOL    HW241164   2.640   3.457   9.228
13109SOL     OW41165   7.705  11.600   3.477
13109SOL    HW141166   7.736  11.623   3.390
13109SOL    HW241167   7.651  11.674   3.504
13110SOL     OW41168  12.237   5.099  10.728
13110SOL    HW141169  12.274   5.027  10.778
13110SOL    HW241170  12.226   5.170  10.792
13111SOL     OW41171   6.136   4.779   4.244
13111SOL    HW141172   6.100   4.704   4.197
13111SOL    HW241173   6.120   4.760   4.337
13112SOL     OW41174   9.895  10.321  13.186
13112SOL    HW141175   9.894  10.277  13.101
13112SOL    HW241176   9.806  10.310  13.220
13113SOL     OW41177   0.135   8.799  12.483
13113SOL    HW141178   0.143   8.792  12.388
13113SOL    HW241179   0.058   8.746  12.505
13114SOL     OW41180   1.341   2.710   1.361
13114SOL    HW141181   1.337   2.616   1.346
13114SOL    HW241182   1.252   2.741   1.341
13115SOL     OW41183   2.375  12.766   5.535
13115SOL    HW141184   2.368  12.829   5.607
13115SOL    HW241185   2.469  12.753   5.524
13116SOL     OW41186  14.211  10.977   4.083
13116SOL    HW141187  14.156  10.904   4.053
13116SOL    HW241188  14.163  11.055   4.055
13117SOL     OW41189  12.904   0.804   0.729
13117SOL    HW141190  12.818   0.763   0.739
13117SOL    HW241191  12.906   0.873   0.796
13118SOL     OW41192   5.470   4.736   4.142
13118SOL    HW141193   5.555   4.766   4.177
13118SOL    HW241194   5.482   4.736   4.047
13119SOL     OW41195   3.117   9.883  13.926
13119SOL    HW141196   3.035   9.845  13.894
13119SOL    HW241197   3.120   9.861  14.019
13120SOL     OW41198  10.250   3.165   1.004
13120SOL    HW141199  10.280   3.078   1.030
13120SOL    HW241200  10.268   3.169   0.910
13121SOL     OW41201  10.277  13.880   4.644
13121SOL    HW141202  10.307  13.948   4.584
13121SOL    HW241203  10.311  13.799   4.606
13122SOL     OW41204  11.443   6.758   6.357
13122SOL    HW141205  11.378   6.692   6.333
13122SOL    HW241206  11.395   6.840   6.360
13123SOL     OW41207   4.638   4.830  13.270
13123SOL    HW141208   4.573   4.766  13.301
13123SOL    HW241209   4.662   4.799  13.183
13124SOL     OW41210   5.112   5.088   8.752
13124SOL    HW141211   5.052   5.154   8.716
13124SOL    HW241212   5.080   5.073   8.841
13125SOL     OW41213   1.414  13.463  14.688
13125SOL    HW141214   1.417  13.371  14.663
13125SOL    HW241215   1.322  13.487  14.678
13126SOL     OW41216  12.127   2.863   2.682
13126SOL    HW141217  12.135   2.825   2.770
13126SOL    HW241218  12.130   2.787   2.623
13127SOL     OW41219   1.433   6.294   1.332
13127SOL    HW141220   1.418   6.389   1.341
13127SOL    HW241221   1.528   6.285   1.326
13128SOL     OW41222   0.656   0.462   6.764
13128SOL    HW141223   0.698   0.510   6.693
13128SOL    HW241224   0.676   0.512   6.843
13129SOL     OW41225  11.529  13.744  14.310
13129SOL    HW141226  11.515  13.803  14.236
13129SOL    HW241227  11.620  13.757  14.336
13130SOL     OW41228  11.843   2.727   6.260
13130SOL    HW141229  11.821   2.808   6.305
13130SOL    HW241230  11.767   2.707   6.207
13131SOL     OW41231   8.580  11.445   2.885
13131SOL    HW141232   8.655  11.452   2.825
13131SOL    HW241233   8.546  11.357   2.872
13132SOL     OW41234   0.437   6.917   4.021
13132SOL    HW141235   0.473   6.996   3.981
13132SOL    HW241236   0.363   6.948   4.074
13133SOL     OW41237  14.432  12.015   1.106
13133SOL    HW141238  14.343  12.029   1.140
13133SOL    HW241239  14.435  12.066   1.025
13134SOL     OW41240   6.900   5.553   5.865
13134SOL    HW141241   6.817   5.586   5.831
13134SOL    HW241242   6.882   5.463   5.891
13135SOL     OW41243   2.960  12.051   0.560
13135SOL    HW141244   3.040  12.000   0.551
13135SOL    HW241245   2.973  12.127   0.503
13136SOL     OW41246  12.718   9.528   1.298
13136SOL    HW141247  12.788   9.536   1.363
13136SOL    HW241248  12.643   9.497   1.348
13137SOL     OW41249   4.172  10.861  14.467
13137SOL    HW141250   4.097  10.915  14.441
13137SOL    HW241251   4.196  10.813  14.388
13138SOL     OW41252  14.046   4.512  10.513
13138SOL    HW141253  14.031   4.580  10.447
13138SOL    HW241254  14.140   4.517  10.532
13139SOL     OW41255  10.141   9.413   0.485
13139SOL    HW141256  10.077   9.447   0.546
13139SOL    HW241257  10.223   9.409   0.535
13140SOL     OW41258   1.136  10.080   3.121
13140SOL    HW141259   1.187  10.094   3.200
13140SOL    HW241260   1.200  10.084   3.050
13141SOL     OW41261   8.962   6.700  13.293
13141SOL    HW141262   8.880   6.681  13.337
13141SOL    HW241263   8.937   6.732  13.207
13142SOL     OW41264   9.593   7.801  14.847
13142SOL    HW141265   9.541   7.876   0.002
13142SOL    HW241266   9.684   7.830  14.858
13143SOL     OW41267   6.123  11.610  11.288
13143SOL    HW141268   6.092  11.536  11.340
13143SOL    HW241269   6.128  11.683  11.350
13144SOL     OW41270  12.176  11.907  14.397
13144SOL    HW141271  12.237  11.980  14.393
13144SOL    HW241272  12.119  11.927  14.472
13145SOL     OW41273  11.669   6.934  14.711
13145SOL    HW141274  11.689   6.960  14.800
13145SOL    HW241275  11.737   6.975  14.657
13146SOL     OW41276   9.927   0.834  11.766
13146SOL    HW141277   9.980   0.814  11.689
13146SOL    HW241278   9.901   0.748  11.801
13147SOL     OW41279   8.682  11.358  10.280
13147SOL    HW141280   8.667  11.272  10.321
13147SOL    HW241281   8.732  11.407  10.345
13148SOL     OW41282   8.533   1.441   5.948
13148SOL    HW141283   8.468   1.425   6.017
13148SOL    HW241284   8.607   1.481   5.994
13149SOL     OW41285   4.679   6.278   5.832
13149SOL    HW141286   4.613   6.248   5.895
13149SOL    HW241287   4.762   6.250   5.869
13150SOL     OW41288   5.896  14.244  12.150
13150SOL    HW141289   5.920  14.332  12.179
13150SOL    HW241290   5.879  14.196  12.231
13151SOL     OW41291   0.796   8.028  10.391
13151SOL    HW141292   0.868   7.992  10.340
13151SOL    HW241293   0.750   8.086  10.331
13152SOL     OW41294  12.963  12.395   7.033
13152SOL    HW141295  12.937  12.306   7.009
13152SOL    HW241296  12.984  12.437   6.950
13153SOL     OW41297  10.100  14.404  11.237
13153SOL    HW141298  10.193  14.424  11.226
13153SOL    HW241299  10.095  14.360  11.322
13154SOL     OW41300  12.262   1.929   9.018
13154SOL    HW141301  12.333   1.889   9.069
13154SOL    HW241302  12.238   1.861   8.954
13155SOL     OW41303  11.348  13.316   2.864
13155SOL    HW141304  11.437  13.347   2.881
13155SOL    HW241305  11.318  13.368   2.790
13156SOL     OW41306   9.267   9.312   4.411
13156SOL    HW141307   9.287   9.322   4.504
13156SOL    HW241308   9.184   9.264   4.410
13157SOL     OW41309   9.470   4.214   3.627
13157SOL    HW141310   9.487   4.255   3.712
13157SOL    HW241311   9.539   4.150   3.617
13158SOL     OW41312   3.857  11.900   8.589
13158SOL    HW141313   3.846  11.831   8.654
13158SOL    HW241314   3.832  11.980   8.635
13159SOL     OW41315   5.447  13.150   7.459
13159SOL    HW141316   5.470  13.134   7.367
13159SOL    HW241317   5.439  13.245   7.465
13160SOL     OW41318   5.244  13.815   7.935
13160SOL    HW141319   5.252  13.907   7.911
13160SOL    HW241320   5.275  13.767   7.857
13161SOL     OW41321   9.750   0.478   0.013
13161SOL    HW141322   9.818   0.537  14.855
13161SOL    HW241323   9.696   0.532   0.071
13162SOL     OW41324  12.272  14.205  11.708
13162SOL    HW141325  12.341  14.232  11.648
13162SOL    HW241326  12.199  14.180  11.651
13163SOL     OW41327  10.566   1.773   6.597
13163SOL    HW141328  10.500   1.751   6.532
13163SOL    HW241329  10.529   1.742   6.680
13164SOL     OW41330   4.181  10.722  14.758
13164SOL    HW141331   4.220  10.662  14.695
13164SOL    HW241332   4.238  10.717  14.835
13165SOL     OW41333   3.390   6.437   1.563
13165SOL    HW141334   3.465   6.379   1.553
13165SOL    HW241335   3.332   6.392   1.623
13166SOL     OW41336   0.472   1.875   1.052
13166SOL    HW141337   0.448   1.784   1.073
13166SOL    HW241338   0.449   1.925   1.130
13167SOL     OW41339   2.152  14.554  14.368
13167SOL    HW141340   2.242  14.556  14.399
13167SOL    HW241341   2.123  14.464  14.383
13168SOL     OW41342  11.018   1.004  10.180
13168SOL    HW141343  11.006   0.972  10.269
13168SOL    HW241344  11.054   1.092  10.191
13169SOL     OW41345   3.868   8.294   8.611
13169SOL    HW141346   3.906   8.373   8.650
13169SOL    HW241347   3.828   8.248   8.685
13170SOL     OW41348  10.265  14.510  10.292
13170SOL    HW141349  10.229  14.598  10.284
13170SOL    HW241350  10.236  14.480  10.378
13171SOL     OW41351  12.051   0.873   6.674
13171SOL    HW141352  12.022   0.810   6.740
13171SOL    HW241353  11.971   0.922   6.652
13172SOL     OW41354   3.662   4.667   1.462
13172SOL    HW141355   3.644   4.578   1.491
13172SOL    HW241356   3.590   4.720   1.495
13173SOL     OW41357   0.763  11.984  14.437
13173SOL    HW141358   0.783  11.919  14.505
13173SOL    HW241359   0.677  12.017  14.460
13174SOL     OW41360   8.943  10.207   4.959
13174SOL    HW141361   8.865  10.260   4.973
13174SOL    HW241362   8.944  10.146   5.033
13175SOL     OW41363  13.571  11.596   3.677
13175SOL    HW141364  13.665  11.604   3.690
13175SOL    HW241365  13.557  11.615   3.584
13176SOL     OW41366   3.308   6.830   0.866
13176SOL    HW141367   3.380   6.844   0.928
13176SOL    HW241368   3.338   6.872   0.785
13177SOL     OW41369   0.374   7.975   3.532
13177SOL    HW141370   0.296   8.016   3.570
13177SOL    HW241371   0.370   7.998   3.439
13178SOL     OW41372   5.022   7.180   1.720
13178SOL    HW141373   5.099   7.216   1.675
13178SOL    HW241374   4.969   7.256   1.742
13179SOL     OW41375  14.858  12.434   4.243
13179SOL    HW141376  14.857  12.352   4.194
13179SOL    HW241377  14.766  12.463   4.243
13180SOL     OW41378  14.475   5.621   7.554
13180SOL    HW141379  14.425   5.542   7.575
13180SOL    HW241380  14.428   5.661   7.481
13181SOL     OW41381   7.351   5.556   5.090
13181SOL    HW141382   7.357   5.651   5.085
13181SOL    HW241383   7.440   5.527   5.107
13182SOL     OW41384   0.843   6.785   4.930
13182SOL    HW141385   0.919   6.752   4.883
13182SOL    HW241386   0.878   6.849   4.991
13183SOL     OW41387   8.682  14.539   4.872
13183SOL    HW141388   8.739  14.580   4.937
13183SOL    HW241389   8.697  14.445   4.884
13184SOL     OW41390   8.912  12.680  10.245
13184SOL    HW141391   8.875  12.652  10.162
13184SOL    HW241392   8.842  12.729  10.288
13185SOL     OW41393  13.983   2.048   0.348
13185SOL    HW141394  13.899   2.063   0.305
13185SOL    HW241395  13.978   2.098   0.429
13186SOL     OW41396   6.534  11.224   5.990
13186SOL    HW141397   6.616  11.223   6.039
13186SOL    HW241398   6.499  11.311   6.004
13187SOL     OW41399  14.036   8.511   8.724
13187SOL    HW141400  14.072   8.501   8.812
13187SOL    HW241401  14.020   8.605   8.714
13188SOL     OW41402   3.840  11.602   6.648
13188SOL    HW141403   3.925  11.591   6.604
13188SOL    HW241404   3.859  11.591   6.741
13189SOL     OW41405  12.057   6.372  11.991
13189SOL    HW141406  12.105   6.314  11.931
13189SOL    HW241407  12.021   6.440  11.934
13190SOL     OW41408   2.601  11.737   0.534
13190SOL    HW141409   2.694  11.753   0.553
13190SOL    HW241410   2.603  11.667   0.468
13191SOL     OW41411   4.579   6.384   1.166
13191SOL    HW141412   4.603   6.303   1.121
13191SOL    HW241413   4.621   6.453   1.115
13192SOL     OW41414   8.541  13.959   9.859
13192SOL    HW141415   8.450  13.973   9.887
13192SOL    HW241416   8.589  14.031   9.898
13193SOL     OW41417   4.901   6.238   6.005
13193SOL    HW141418   4.907   6.241   6.101
13193SOL    HW241419   4.981   6.281   5.975
13194SOL     OW41420   8.263   8.595   8.139
13194SOL    HW141421   8.315   8.516   8.130
13194SOL    HW241422   8.326   8.662   8.167
13195SOL     OW41423  11.110  11.931  11.030
13195SOL    HW141424  11.045  11.895  10.970
13195SOL    HW241425  11.193  11.891  11.005
13196SOL     OW41426   3.760  11.908   5.823
13196SOL    HW141427   3.795  11.905   5.912
13196SOL    HW241428   3.837  11.909   5.766
13197SOL     OW41429   7.216   2.070   7.699
13197SOL    HW141430   7.273   2.138   7.736
13197SOL    HW241431   7.128   2.107   7.704
13198SOL     OW41432  12.765   7.876  13.659
13198SOL    HW141433  12.852   7.837  13.650
13198SOL    HW241434  12.724   7.861  13.574
13199SOL     OW41435   9.231   2.055   9.908
13199SOL    HW141436   9.197   2.092   9.989
13199SOL    HW241437   9.318   2.021   9.931
13200SOL     OW41438   8.174  12.003  11.686
13200SOL    HW141439   8.114  11.952  11.741
13200SOL    HW241440   8.181  11.953  11.605
13201SOL     OW41441   2.171  14.861   5.595
13201SOL    HW141442   2.081  14.830   5.586
13201SOL    HW241443   2.192   0.026   5.510
13202SOL     OW41444   2.276  12.171   0.522
13202SOL    HW141445   2.264  12.183   0.616
13202SOL    HW241446   2.355  12.119   0.514
13203SOL     OW41447   6.616   1.312  12.532
13203SOL    HW141448   6.636   1.392  12.580
13203SOL    HW241449   6.544   1.336  12.473
13204SOL     OW41450   5.762   8.401   3.569
13204SOL    HW141451   5.798   8.478   3.525
13204SOL    HW241452   5.740   8.432   3.657
13205SOL     OW41453  13.443  14.422   4.050
13205SOL    HW141454  13.438  14.461   4.137
13205SOL    HW241455  13.525  14.374   4.050
13206SOL     OW41456   8.456   4.469  13.871
13206SOL    HW141457   8.457   4.441  13.962
13206SOL    HW241458   8.548   4.469  13.844
13207SOL     OW41459   8.646   8.224   0.941
13207SOL    HW141460   8.579   8.267   0.887
13207SOL    HW241461   8.666   8.143   0.894
13208SOL     OW41462  12.127   1.569   7.658
13208SOL    HW141463  12.111   1.476   7.668
13208SOL    HW241464  12.063   1.611   7.715
13209SOL     OW41465  12.276  13.042   5.378
13209SOL    HW141466  12.283  13.130   5.416
13209SOL    HW241467  12.343  13.040   5.310
13210SOL     OW41468   8.928  11.668  13.812
13210SOL    HW141469   8.835  11.670  13.790
13210SOL    HW241470   8.968  11.616  13.742
13211SOL     OW41471  10.367   7.337   7.352
13211SOL    HW141472  10.357   7.276   7.279
13211SOL    HW241473  10.297   7.402   7.338
13212SOL     OW41474  14.711  13.408  11.178
13212SOL    HW141475  14.763  13.443  11.106
13212SOL    HW241476  14.660  13.338  11.138
13213SOL     OW41477  12.067   9.586   8.090
13213SOL    HW141478  12.129   9.592   8.017
13213SOL    HW241479  11.989   9.633   8.060
13214SOL     OW41480   3.873   6.401   5.551
13214SOL    HW141481   3.894   6.453   5.629
13214SOL    HW241482   3.856   6.313   5.584
13215SOL     OW41483   8.972   2.387  10.573
13215SOL    HW141484   8.889   2.435  10.575
13215SOL    HW241485   9.038   2.451  10.597
13216SOL     OW41486  12.809   1.397  14.346
13216SOL    HW141487  12.797   1.411  14.252
13216SOL    HW241488  12.805   1.302  14.356
13217SOL     OW41489   5.385   8.791   2.095
13217SOL    HW141490   5.385   8.824   2.185
13217SOL    HW241491   5.477   8.796   2.068
13218SOL     OW41492   6.198  12.916  13.694
13218SOL    HW141493   6.172  13.002  13.728
13218SOL    HW241494   6.210  12.862  13.773
13219SOL     OW41495   8.072   2.509   3.268
13219SOL    HW141496   8.168   2.509   3.265
13219SOL    HW241497   8.047   2.597   3.238
13220SOL     OW41498   8.148   1.045   9.022
13220SOL    HW141499   8.062   1.020   9.053
13220SOL    HW241500   8.148   1.140   9.020
13221SOL     OW41501   2.869   8.028   5.254
13221SOL    HW141502   2.930   8.078   5.308
13221SOL    HW241503   2.897   7.937   5.263
13222SOL     OW41504   5.714   5.869   1.079
13222SOL    HW141505   5.708   5.817   1.159
13222SOL    HW241506   5.625   5.897   1.061
13223SOL     OW41507  12.166   7.459   0.511
13223SOL    HW141508  12.113   7.538   0.511
13223SOL    HW241509  12.256   7.489   0.495
13224SOL     OW41510  14.168   6.607   4.209
13224SOL    HW141511  14.153   6.675   4.143
13224SOL    HW241512  14.264   6.596   4.210
13225SOL     OW41513   2.256  14.100  12.969
13225SOL    HW141514   2.337  14.128  13.010
13225SOL    HW241515   2.283  14.057  12.888
13226SOL     OW41516  13.211  10.519   6.581
13226SOL    HW141517  13.139  10.456   6.575
13226SOL    HW241518  13.273  10.478   6.642
13227SOL     OW41519   7.758   4.119   0.311
13227SOL    HW141520   7.662   4.128   0.313
13227SOL    HW241521   7.790   4.201   0.274
13228SOL     OW41522   0.928  13.244   7.141
13228SOL    HW141523   0.852  13.238   7.199
13228SOL    HW241524   0.930  13.160   7.095
13229SOL     OW41525   1.490   5.375   4.254
13229SOL    HW141526   1.509   5.326   4.174
13229SOL    HW241527   1.494   5.309   4.324
13230SOL     OW41528   1.128  11.473   9.602
13230SOL    HW141529   1.194  11.407   9.626
13230SOL    HW241530   1.106  11.515   9.685
13231SOL     OW41531   9.755   6.496  13.611
13231SOL    HW141532   9.804   6.577  13.594
13231SOL    HW241533   9.817   6.426  13.593
13232SOL     OW41534  14.771  14.471   0.054
13232SOL    HW141535  14.831  14.542   0.078
13232SOL    HW241536  14.684  14.508   0.064
13233SOL     OW41537   7.016  13.572   0.291
13233SOL    HW141538   7.088  13.607   0.345
13233SOL    HW241539   7.051  13.572   0.202
13234SOL     OW41540   3.140  10.047   7.564
13234SOL    HW141541   3.227  10.028   7.529
13234SOL    HW241542   3.146  10.136   7.599
13235SOL     OW41543   1.061   6.530   5.814
13235SOL    HW141544   1.149   6.519   5.849
13235SOL    HW241545   1.027   6.440   5.806
13236SOL     OW41546   0.000   4.294   0.209
13236SOL    HW141547  14.810   4.355   0.172
13236SOL    HW241548  14.824   4.244   0.274
13237SOL     OW41549  10.736   0.110   0.830
13237SOL    HW141550  10.740   0.205   0.837
13237SOL    HW241551  10.653   0.086   0.872
13238SOL     OW41552  10.390   8.251   3.276
13238SOL    HW141553  10.313   8.197   3.263
13238SOL    HW241554  10.361   8.321   3.334
13239SOL     OW41555  11.280  10.231   1.411
13239SOL    HW141556  11.313  10.307   1.458
13239SOL    HW241557  11.308  10.156   1.464
13240SOL     OW41558   2.463   4.450  10.910
13240SOL    HW141559   2.550   4.411  10.919
13240SOL    HW241560   2.453   4.506  10.987
13241SOL     OW41561  12.259   8.122   5.336
13241SOL    HW141562  12.250   8.079   5.421
13241SOL    HW241563  12.173   8.158   5.318
13242SOL     OW41564   7.119  13.769   0.775
13242SOL    HW141565   7.055  13.699   0.762
13242SOL    HW241566   7.156  13.752   0.862
13243SOL     OW41567   0.392   6.786   4.689
13243SOL    HW141568   0.314   6.771   4.742
13243SOL    HW241569   0.452   6.833   4.746
13244SOL     OW41570   6.964   5.081   1.920
13244SOL    HW141571   6.990   5.036   1.840
13244SOL    HW241572   6.983   5.174   1.902
13245SOL     OW41573   1.793   9.556   8.641
13245SOL    HW141574   1.755   9.468   8.644
13245SOL    HW241575   1.728   9.612   8.683
13246SOL     OW41576   8.392   2.556   0.502
13246SOL    HW141577   8.321   2.616   0.479
13246SOL    HW241578   8.348   2.479   0.536
13247SOL     OW41579   0.952   5.866   4.373
13247SOL    HW141580   1.039   5.854   4.336
13247SOL    HW241581   0.905   5.785   4.351
13248SOL     OW41582  12.406   0.211  12.075
13248SOL    HW141583  12.394   0.297  12.034
13248SOL    HW241584  12.392   0.228  12.168
13249SOL     OW41585   6.939   5.615  14.872
13249SOL    HW141586   6.963   5.694   0.047
13249SOL    HW241587   6.849   5.596   0.026
13250SOL     OW41588  12.012   0.145   4.589
13250SOL    HW141589  12.071   0.088   4.638
13250SOL    HW241590  12.007   0.105   4.502
13251SOL     OW41591  11.358   7.547   4.178
13251SOL    HW141592  11.452   7.540   4.161
13251SOL    HW241593  11.327   7.611   4.113
13252SOL     OW41594   7.794   3.867  10.403
13252SOL    HW141595   7.704   3.894  10.382
13252SOL    HW241596   7.833   3.845  10.319
13253SOL     OW41597   1.237   2.633  13.517
13253SOL    HW141598   1.301   2.653  13.585
13253SOL    HW241599   1.289   2.601  13.444
13254SOL     OW41600   0.543  11.415   3.336
13254SOL    HW141601   0.461  11.440   3.379
13254SOL    HW241602   0.573  11.495   3.293
13255SOL     OW41603   7.474  13.271  13.323
13255SOL    HW141604   7.438  13.343  13.272
13255SOL    HW241605   7.490  13.309  13.410
13256SOL     OW41606   3.850  11.096  12.640
13256SOL    HW141607   3.858  11.182  12.680
13256SOL    HW241608   3.926  11.048  12.671
13257SOL     OW41609   9.318  14.441   3.530
13257SOL    HW141610   9.290  14.513   3.586
13257SOL    HW241611   9.376  14.389   3.586
13258SOL     OW41612   0.846   2.275   1.164
13258SOL    HW141613   0.904   2.202   1.183
13258SOL    HW241614   0.862   2.296   1.072
13259SOL     OW41615   7.382   9.657   4.936
13259SOL    HW141616   7.440   9.673   5.011
13259SOL    HW241617   7.298   9.633   4.975
13260SOL     OW41618   3.371   5.104   4.489
13260SOL    HW141619   3.283   5.137   4.475
13260SOL    HW241620   3.429   5.173   4.457
13261SOL     OW41621  10.756   8.250   3.646
13261SOL    HW141622  10.701   8.218   3.575
13261SOL    HW241623  10.751   8.345   3.640
13262SOL     OW41624   2.455   2.638   8.389
13262SOL    HW141625   2.408   2.596   8.461
13262SOL    HW241626   2.547   2.615   8.404
13263SOL     OW41627   4.628   6.594   4.795
13263SOL    HW141628   4.633   6.520   4.735
13263SOL    HW241629   4.536   6.598   4.821
13264SOL     OW41630  10.903   1.102   2.621
13264SOL    HW141631  10.933   1.160   2.551
13264SOL    HW241632  10.950   1.131   2.699
13265SOL     OW41633   3.522  13.023   5.295
13265SOL    HW141634   3.504  12.975   5.376
13265SOL    HW241635   3.477  12.973   5.227
13266SOL     OW41636  10.174   0.870  11.161
13266SOL    HW141637  10.094   0.822  11.143
13266SOL    HW241638  10.216   0.881  11.075
13267SOL     OW41639  14.002   0.991  10.849
13267SOL    HW141640  13.914   1.001  10.812
13267SOL    HW241641  14.053   1.060  10.807
13268SOL     OW41642   0.353   7.960   0.616
13268SOL    HW141643   0.448   7.975   0.623
13268SOL    HW241644   0.335   7.970   0.523
13269SOL     OW41645   4.107   6.123   3.777
13269SOL    HW141646   4.083   6.111   3.869
13269SOL    HW241647   4.201   6.142   3.780
13270SOL     OW41648  14.290   2.107   1.542
13270SOL    HW141649  14.252   2.149   1.620
13270SOL    HW241650  14.308   2.179   1.482
13271SOL     OW41651   1.369   2.642   2.740
13271SOL    HW141652   1.442   2.627   2.800
13271SOL    HW241653   1.401   2.612   2.655
13272SOL     OW41654   1.881   1.159  10.289
13272SOL    HW141655   1.975   1.177  10.281
13272SOL    HW241656   1.876   1.086  10.351
13273SOL     OW41657   6.821   1.614   5.024
13273SOL    HW141658   6.811   1.538   5.081
13273SOL    HW241659   6.817   1.579   4.935
13274SOL     OW41660   0.421  10.054   7.107
13274SOL    HW141661   0.358   9.990   7.073
13274SOL    HW241662   0.483  10.067   7.035
13275SOL     OW41663   9.062  12.216  13.808
13275SOL    HW141664   9.005  12.228  13.732
13275SOL    HW241665   9.034  12.133  13.846
13276SOL     OW41666   8.020   2.897   6.718
13276SOL    HW141667   8.086   2.828   6.714
13276SOL    HW241668   8.059   2.970   6.671
13277SOL     OW41669   5.386  10.838   6.652
13277SOL    HW141670   5.385  10.757   6.600
13277SOL    HW241671   5.464  10.831   6.707
13278SOL     OW41672  12.636   8.429   3.362
13278SOL    HW141673  12.602   8.485   3.432
13278SOL    HW241674  12.560   8.378   3.333
13279SOL     OW41675   1.783  11.436  12.837
13279SOL    HW141676   1.822  11.429  12.750
13279SOL    HW241677   1.801  11.352  12.878
13280SOL     OW41678   4.466   0.269   8.025
13280SOL    HW141679   4.507   0.246   8.109
13280SOL    HW241680   4.538   0.306   7.973
13281SOL     OW41681   5.763   3.977   1.178
13281SOL    HW141682   5.787   4.022   1.097
13281SOL    HW241683   5.757   4.047   1.243
13282SOL     OW41684   3.723   8.623  10.484
13282SOL    HW141685   3.661   8.671  10.429
13282SOL    HW241686   3.799   8.608  10.428
13283SOL     OW41687   5.078   6.527   5.444
13283SOL    HW141688   5.052   6.452   5.391
13283SOL    HW241689   5.159   6.559   5.404
13284SOL     OW41690  11.618   5.376   2.630
13284SOL    HW141691  11.710   5.350   2.636
13284SOL    HW241692  11.619   5.457   2.579
13285SOL     OW41693   5.945   7.896   6.818
13285SOL    HW141694   5.880   7.917   6.750
13285SOL    HW241695   5.961   7.802   6.808
13286SOL     OW41696  13.121   7.087   4.283
13286SOL    HW141697  13.136   7.177   4.255
13286SOL    HW241698  13.032   7.067   4.254
13287SOL     OW41699  14.178  10.723   8.452
13287SOL    HW141700  14.189  10.799   8.394
13287SOL    HW241701  14.267  10.694   8.471
13288SOL     OW41702  11.315   1.631   5.919
13288SOL    HW141703  11.242   1.686   5.945
13288SOL    HW241704  11.283   1.542   5.931
13289SOL     OW41705   9.538  12.815  12.261
13289SOL    HW141706   9.505  12.733  12.224
13289SOL    HW241707   9.632  12.812  12.246
13290SOL     OW41708  12.640   9.031  11.264
13290SOL    HW141709  12.558   8.982  11.257
13290SOL    HW241710  12.637   9.071  11.350
13291SOL     OW41711   3.350   9.644  13.591
13291SOL    HW141712   3.270   9.643  13.538
13291SOL    HW241713   3.406   9.578  13.550
13292SOL     OW41714  14.654   9.622   3.024
13292SOL    HW141715  14.740   9.664   3.023
13292SOL    HW241716  14.618   9.636   2.936
13293SOL     OW41717   5.377   8.573   2.368
13293SOL    HW141718   5.324   8.564   2.448
13293SOL    HW241719   5.429   8.493   2.365
13294SOL     OW41720   7.012   7.174   0.852
13294SOL    HW141721   6.963   7.113   0.906
13294SOL    HW241722   7.102   7.141   0.853
13295SOL     OW41723  12.318   9.507   9.381
13295SOL    HW141724  12.231   9.476   9.407
13295SOL    HW241725  12.353   9.547   9.460
13296SOL     OW41726  10.684   9.265   0.356
13296SOL    HW141727  10.603   9.234   0.396
13296SOL    HW241728  10.696   9.354   0.390
13297SOL     OW41729   5.660  11.307   5.547
13297SOL    HW141730   5.722  11.346   5.485
13297SOL    HW241731   5.576  11.310   5.500
13298SOL     OW41732   7.811  10.620   5.921
13298SOL    HW141733   7.860  10.546   5.957
13298SOL    HW241734   7.800  10.597   5.828
13299SOL     OW41735  14.200   6.821   8.917
13299SOL    HW141736  14.256   6.897   8.900
13299SOL    HW241737  14.180   6.825   9.010
13300SOL     OW41738   1.223   6.476   7.077
13300SOL    HW141739   1.213   6.392   7.122
13300SOL    HW241740   1.276   6.529   7.136
13301SOL     OW41741  14.254   8.231   4.984
13301SOL    HW141742  14.332   8.200   5.031
13301SOL    HW241743  14.289   8.264   4.901
13302SOL     OW41744   9.568  14.257   9.724
13302SOL    HW141745   9.489  14.264   9.778
13302SOL    HW241746   9.543  14.194   9.655
13303SOL     OW41747  14.132  10.317   0.162
13303SOL    HW141748  14.057  10.368   0.192
13303SOL    HW241749  14.203  10.343   0.221
13304SOL     OW41750  10.974   4.638   5.074
13304SOL    HW141751  10.963   4.704   5.142
13304SOL    HW241752  10.890   4.638   5.027
13305SOL     OW41753   7.752   9.895   7.396
13305SOL    HW141754   7.767   9.834   7.469
13305SOL    HW241755   7.774   9.981   7.431
13306SOL     OW41756   5.692   0.116   2.648
13306SOL    HW141757   5.670   0.208   2.633
13306SOL    HW241758   5.756   0.117   2.719
13307SOL     OW41759  12.286  10.948   4.390
13307SOL    HW141760  12.202  10.982   4.359
13307SOL    HW241761  12.336  10.931   4.310
13308SOL     OW41762  14.183   8.956  11.102
13308SOL    HW141763  14.223   8.884  11.054
13308SOL    HW241764  14.089   8.947  11.086
13309SOL     OW41765  11.559   6.330   8.872
13309SOL    HW141766  11.556   6.425   8.867
13309SOL    HW241767  11.600   6.312   8.957
13310SOL     OW41768   9.773   0.726   7.521
13310SOL    HW141769   9.864   0.721   7.551
13310SOL    HW241770   9.749   0.818   7.531
13311SOL     OW41771   0.536   9.128   8.342
13311SOL    HW141772   0.475   9.060   8.370
13311SOL    HW241773   0.614   9.079   8.313
13312SOL     OW41774   9.754   3.987   4.562
13312SOL    HW141775   9.816   4.046   4.605
13312SOL    HW241776   9.683   4.044   4.533
13313SOL     OW41777   8.116   9.565   7.709
13313SOL    HW141778   8.133   9.475   7.735
13313SOL    HW241779   8.025   9.566   7.682
13314SOL     OW41780  10.730  10.661   1.338
13314SOL    HW141781  10.809  10.682   1.289
13314SOL    HW241782  10.741  10.569   1.365
13315SOL     OW41783  10.677   3.463  10.327
13315SOL    HW141784  10.641   3.473  10.239
13315SOL    HW241785  10.637   3.382  10.361
13316SOL     OW41786   3.166   3.690   6.217
13316SOL    HW141787   3.082   3.667   6.178
13316SOL    HW241788   3.225   3.619   6.191
13317SOL     OW41789   7.584   3.201   4.497
13317SOL    HW141790   7.562   3.148   4.574
13317SOL    HW241791   7.500   3.226   4.460
13318SOL     OW41792   8.409  10.685  12.061
13318SOL    HW141793   8.319  10.696  12.091
13318SOL    HW241794   8.440  10.774  12.043
13319SOL     OW41795   1.396  10.742  10.433
13319SOL    HW141796   1.373  10.672  10.494
13319SOL    HW241797   1.361  10.712  10.349
13320SOL     OW41798   9.514   7.400   2.661
13320SOL    HW141799   9.449   7.342   2.622
13320SOL    HW241800   9.595   7.348   2.662
13321SOL     OW41801   9.953   4.137   9.495
13321SOL    HW141802   9.974   4.213   9.442
13321SOL    HW241803   9.874   4.161   9.543
13322SOL     OW41804   8.540   8.286   6.144
13322SOL    HW141805   8.601   8.250   6.209
13322SOL    HW241806   8.580   8.368   6.116
13323SOL     OW41807  11.739   1.671  12.212
13323SOL    HW141808  11.811   1.625  12.168
13323SOL    HW241809  11.769   1.680  12.303
13324SOL     OW41810   9.871   9.831  12.646
13324SOL    HW141811   9.803   9.891  12.677
13324SOL    HW241812   9.940   9.887  12.612
13325SOL     OW41813   8.932  14.458  10.910
13325SOL    HW141814   8.965  14.368  10.906
13325SOL    HW241815   8.968  14.500  10.832
13326SOL     OW41816  12.600  10.354  13.608
13326SOL    HW141817  12.617  10.288  13.541
13326SOL    HW241818  12.518  10.395  13.581
13327SOL     OW41819  11.126   5.202   9.747
13327SOL    HW141820  11.188   5.268   9.715
13327SOL    HW241821  11.055   5.253   9.787
13328SOL     OW41822   7.718   6.235  12.663
13328SOL    HW141823   7.644   6.202  12.714
13328SOL    HW241824   7.722   6.329  12.683
13329SOL     OW41825   7.302   2.601   2.158
13329SOL    HW141826   7.336   2.677   2.205
13329SOL    HW241827   7.355   2.598   2.078
13330SOL     OW41828  10.473   7.201  14.513
13330SOL    HW141829  10.404   7.191  14.578
13330SOL    HW241830  10.554   7.181  14.561
13331SOL     OW41831  14.759   7.831  14.789
13331SOL    HW141832  14.755   7.853  14.695
13331SOL    HW241833  14.775   7.737  14.791
13332SOL     OW41834   6.358   1.768  13.209
13332SOL    HW141835   6.391   1.837  13.267
13332SOL    HW241836   6.264   1.784  13.203
13333SOL     OW41837   4.703   8.105  11.090
13333SOL    HW141838   4.661   8.144  11.013
13333SOL    HW241839   4.736   8.179  11.139
13334SOL     OW41840  10.431   9.015   8.651
13334SOL    HW141841  10.470   8.928   8.656
13334SOL    HW241842  10.419   9.030   8.557
13335SOL     OW41843  12.007  14.283   3.169
13335SOL    HW141844  12.066  14.348   3.128
13335SOL    HW241845  11.960  14.333   3.235
13336SOL     OW41846   2.993   0.926   5.329
13336SOL    HW141847   3.031   0.898   5.246
13336SOL    HW241848   2.946   1.006   5.307
13337SOL     OW41849   1.705   0.744   8.082
13337SOL    HW141850   1.675   0.672   8.137
13337SOL    HW241851   1.699   0.821   8.138
13338SOL     OW41852  12.172  14.320   2.428
13338SOL    HW141853  12.219  14.329   2.511
13338SOL    HW241854  12.165  14.409   2.394
13339SOL     OW41855  13.775   3.956   8.681
13339SOL    HW141856  13.800   3.931   8.770
13339SOL    HW241857  13.857   3.983   8.640
13340SOL     OW41858   7.808  14.669   8.811
13340SOL    HW141859   7.750  14.715   8.750
13340SOL    HW241860   7.895  14.702   8.791
13341SOL     OW41861   7.437   3.318   6.261
13341SOL    HW141862   7.343   3.335   6.250
13341SOL    HW241863   7.471   3.397   6.302
13342SOL     OW41864  11.954   8.166   9.181
13342SOL    HW141865  11.930   8.227   9.110
13342SOL    HW241866  11.918   8.207   9.260
13343SOL     OW41867   5.286   9.230  13.356
13343SOL    HW141868   5.216   9.216  13.419
13343SOL    HW241869   5.261   9.309  13.308
13344SOL     OW41870   5.877   1.176   3.833
13344SOL    HW141871   5.942   1.118   3.793
13344SOL    HW241872   5.839   1.123   3.904
13345SOL     OW41873  12.314   5.292  13.326
13345SOL    HW141874  12.259   5.216  13.347
13345SOL    HW241875  12.282   5.361  13.384
13346SOL     OW41876  12.463   2.514  14.456
13346SOL    HW141877  12.489   2.606  14.458
13346SOL    HW241878  12.524   2.473  14.395
13347SOL     OW41879   2.881  11.434   2.755
13347SOL    HW141880   2.831  11.496   2.703
13347SOL    HW241881   2.966  11.476   2.767
13348SOL     OW41882  13.337   5.680   4.241
13348SOL    HW141883  13.407   5.743   4.258
13348SOL    HW241884  13.358   5.643   4.155
13349SOL     OW41885   7.860   9.379   8.328
13349SOL    HW141886   7.820   9.306   8.376
13349SOL    HW241887   7.925   9.338   8.272
13350SOL     OW41888  12.670   4.041  14.573
13350SOL    HW141889  12.630   4.002  14.651
13350SOL    HW241890  12.596   4.057  14.514
13351SOL     OW41891  14.044   4.120  13.063
13351SOL    HW141892  14.105   4.049  13.083
13351SOL    HW241893  14.001   4.093  12.982
13352SOL     OW41894   2.786  13.450  13.645
13352SOL    HW141895   2.798  13.416  13.734
13352SOL    HW241896   2.831  13.387  13.589
13353SOL     OW41897   3.609   9.116  13.213
13353SOL    HW141898   3.645   9.179  13.276
13353SOL    HW241899   3.647   9.032  13.238
13354SOL     OW41900  13.590   6.366   0.854
13354SOL    HW141901  13.550   6.429   0.793
13354SOL    HW241902  13.519   6.307   0.877
13355SOL     OW41903   2.583   3.792   2.340
13355SOL    HW141904   2.509   3.812   2.282
13355SOL    HW241905   2.599   3.874   2.387
13356SOL     OW41906   0.528   8.843   6.419
13356SOL    HW141907   0.454   8.788   6.392
13356SOL    HW241908   0.582   8.851   6.341
13357SOL     OW41909  10.221   9.243  11.962
13357SOL    HW141910  10.237   9.321  12.015
13357SOL    HW241911  10.245   9.170  12.019
13358SOL     OW41912  10.141  13.684   4.822
13358SOL    HW141913  10.226  13.694   4.865
13358SOL    HW241914  10.155  13.721   4.734
13359SOL     OW41915  11.028   3.480   8.842
13359SOL    HW141916  11.026   3.560   8.895
13359SOL    HW241917  10.998   3.508   8.756
13360SOL     OW41918   5.637  14.753  12.061
13360SOL    HW141919   5.684  14.670  12.051
13360SOL    HW241920   5.563  14.746  12.000
13361SOL     OW41921   4.320   1.194   3.480
13361SOL    HW141922   4.256   1.241   3.533
13361SOL    HW241923   4.353   1.124   3.538
13362SOL     OW41924  12.274  10.646   2.424
13362SOL    HW141925  12.281  10.600   2.508
13362SOL    HW241926  12.283  10.577   2.358
13363SOL     OW41927   4.768   4.073   4.771
13363SOL    HW141928   4.820   4.141   4.730
13363SOL    HW241929   4.677   4.103   4.764
13364SOL     OW41930   4.508  13.074   0.739
13364SOL    HW141931   4.565  12.999   0.721
13364SOL    HW241932   4.475  13.059   0.827
13365SOL     OW41933   3.195  13.378   1.467
13365SOL    HW141934   3.187  13.315   1.395
13365SOL    HW241935   3.288  13.375   1.491
13366SOL     OW41936  12.338   7.693   0.407
13366SOL    HW141937  12.361   7.705   0.315
13366SOL    HW241938  12.402   7.746   0.455
13367SOL     OW41939   9.610   5.157   3.929
13367SOL    HW141940   9.618   5.237   3.981
13367SOL    HW241941   9.586   5.090   3.993
13368SOL     OW41942   5.566   7.647  12.604
13368SOL    HW141943   5.607   7.591  12.539
13368SOL    HW241944   5.586   7.736  12.576
13369SOL     OW41945   5.924   0.115  13.987
13369SOL    HW141946   5.973   0.124  14.069
13369SOL    HW241947   5.969   0.174  13.926
13370SOL     OW41948   3.510   8.122   2.015
13370SOL    HW141949   3.432   8.069   2.032
13370SOL    HW241950   3.580   8.059   2.004
13371SOL     OW41951   7.048   3.811  10.331
13371SOL    HW141952   7.030   3.859  10.412
13371SOL    HW241953   7.026   3.872  10.261
13372SOL     OW41954   8.350   6.776   5.856
13372SOL    HW141955   8.389   6.830   5.925
13372SOL    HW241956   8.261   6.811   5.846
13373SOL     OW41957  13.000   1.106   7.806
13373SOL    HW141958  13.070   1.172   7.805
13373SOL    HW241959  12.920   1.157   7.798
13374SOL     OW41960  13.029   1.505   3.632
13374SOL    HW141961  13.068   1.591   3.621
13374SOL    HW241962  13.102   1.444   3.626
13375SOL     OW41963   8.459  14.773   5.018
13375SOL    HW141964   8.427  14.810   5.100
13375SOL    HW241965   8.496  14.688   5.044
13376SOL     OW41966  10.479   9.496   7.930
13376SOL    HW141967  10.523   9.433   7.987
13376SOL    HW241968  10.519   9.580   7.953
13377SOL     OW41969  13.335  12.719  13.974
13377SOL    HW141970  13.330  12.814  13.958
13377SOL    HW241971  13.388  12.711  14.053
13378SOL     OW41972   3.099   1.664  10.889
13378SOL    HW141973   3.154   1.742  10.888
13378SOL    HW241974   3.162   1.591  10.895
13379SOL     OW41975  10.936  12.291   5.880
13379SOL    HW141976  10.887  12.350   5.938
13379SOL    HW241977  11.004  12.346   5.841
13380SOL     OW41978   9.771  11.528   7.452
13380SOL    HW141979   9.851  11.517   7.503
13380SOL    HW241980   9.796  11.503   7.363
13381SOL     OW41981   7.714   6.218  12.225
13381SOL    HW141982   7.735   6.290  12.166
13381SOL    HW241983   7.796   6.198  12.270
13382SOL     OW41984   9.859  11.501   8.396
13382SOL    HW141985   9.922  11.573   8.390
13382SOL    HW241986   9.836  11.482   8.305
13383SOL     OW41987   8.267  13.720   0.442
13383SOL    HW141988   8.301  13.716   0.531
13383SOL    HW241989   8.290  13.807   0.411
13384SOL     OW41990  12.684   1.025   5.497
13384SOL    HW141991  12.765   0.999   5.542
13384SOL    HW241992  12.618   1.026   5.566
13385SOL     OW41993  11.956   1.264   3.075
13385SOL    HW141994  11.990   1.196   3.134
13385SOL    HW241995  12.001   1.344   3.102
13386SOL     OW41996  14.564   3.173   7.031
13386SOL    HW141997  14.589   3.115   7.103
13386SOL    HW241998  14.609   3.256   7.051
13387SOL     OW41999   9.448   9.808   0.241
13387SOL    HW142000   9.396   9.754   0.183
13387SOL    HW242001   9.528   9.827   0.191
13388SOL     OW42002  11.866   5.261   8.799
13388SOL    HW142003  11.822   5.190   8.845
13388SOL    HW242004  11.801   5.332   8.797
13389SOL     OW42005   8.167   3.993  11.765
13389SOL    HW142006   8.074   3.975  11.758
13389SOL    HW242007   8.187   3.982  11.858
13390SOL     OW42008   8.491  12.381   0.557
13390SOL    HW142009   8.507  12.465   0.599
13390SOL    HW242010   8.399  12.384   0.530
13391SOL     OW42011   5.725   1.662  13.704
13391SOL    HW142012   5.670   1.607  13.760
13391SOL    HW242013   5.802   1.608  13.687
13392SOL     OW42014   1.449  11.970   8.456
13392SOL    HW142015   1.463  11.885   8.499
13392SOL    HW242016   1.415  11.949   8.370
13393SOL     OW42017   4.082   6.058  12.556
13393SOL    HW142018   4.162   6.076  12.506
13393SOL    HW242019   4.102   5.978  12.605
13394SOL     OW42020   5.145  10.230   4.063
13394SOL    HW142021   5.086  10.258   3.992
13394SOL    HW242022   5.108  10.148   4.094
13395SOL     OW42023   9.470   4.912   1.271
13395SOL    HW142024   9.458   4.827   1.230
13395SOL    HW242025   9.447   4.975   1.202
13396SOL     OW42026   1.382  13.408   3.154
13396SOL    HW142027   1.449  13.474   3.171
13396SOL    HW242028   1.336  13.439   3.077
13397SOL     OW42029   5.934  12.981  12.331
13397SOL    HW142030   5.870  13.049  12.310
13397SOL    HW242031   6.019  13.022  12.315
13398SOL     OW42032   7.064   6.915   4.421
13398SOL    HW142033   7.051   6.844   4.483
13398SOL    HW242034   6.979   6.959   4.416
13399SOL     OW42035   4.325   9.066   0.315
13399SOL    HW142036   4.309   9.160   0.307
13399SOL    HW242037   4.399   9.059   0.375
13400SOL     OW42038  12.386   9.204  10.634
13400SOL    HW142039  12.416   9.284  10.677
13400SOL    HW242040  12.461   9.145  10.637
13401SOL     OW42041  12.114  12.824   9.365
13401SOL    HW142042  12.025  12.803   9.393
13401SOL    HW242043  12.162  12.839   9.446
13402SOL     OW42044  11.457   8.210   5.336
13402SOL    HW142045  11.495   8.279   5.391
13402SOL    HW242046  11.469   8.241   5.246
13403SOL     OW42047   3.621  12.264   1.255
13403SOL    HW142048   3.652  12.193   1.312
13403SOL    HW242049   3.633  12.230   1.166
13404SOL     OW42050   1.694   2.406   9.996
13404SOL    HW142051   1.675   2.387   9.904
13404SOL    HW242052   1.611   2.390  10.041
13405SOL     OW42053   3.236  12.735  13.358
13405SOL    HW142054   3.265  12.706  13.272
13405SOL    HW242055   3.164  12.676  13.381
13406SOL     OW42056   2.655   6.194   9.034
13406SOL    HW142057   2.712   6.146   8.974
13406SOL    HW242058   2.623   6.127   9.095
13407SOL     OW42059   7.290   9.225   9.724
13407SOL    HW142060   7.321   9.315   9.732
13407SOL    HW242061   7.360   9.180   9.676
13408SOL     OW42062   4.519   1.475   9.221
13408SOL    HW142063   4.525   1.392   9.172
13408SOL    HW242064   4.595   1.474   9.279
13409SOL     OW42065   0.587  11.483   4.090
13409SOL    HW142066   0.571  11.439   4.174
13409SOL    HW242067   0.552  11.571   4.102
13410SOL     OW42068  13.583  14.044   5.625
13410SOL    HW142069  13.651  13.994   5.671
13410SOL    HW242070  13.587  14.131   5.663
13411SOL     OW42071  14.869   7.322  10.225
13411SOL    HW142072   0.021   7.259  10.157
13411SOL    HW242073  14.854   7.404  10.177
13412SOL     OW42074   2.368   6.694   5.403
13412SOL    HW142075   2.439   6.631   5.399
13412SOL    HW242076   2.333   6.697   5.314
13413SOL     OW42077   7.843   3.435   1.697
13413SOL    HW142078   7.797   3.419   1.614
13413SOL    HW242079   7.774   3.462   1.758
13414SOL     OW42080   6.442  13.198  13.138
13414SOL    HW142081   6.415  13.108  13.116
13414SOL    HW242082   6.452  13.197  13.233
13415SOL     OW42083  13.285  10.919  12.287
13415SOL    HW142084  13.239  10.975  12.225
13415SOL    HW242085  13.360  10.972  12.316
13416SOL     OW42086   2.368   1.360   2.360
13416SOL    HW142087   2.398   1.439   2.316
13416SOL    HW242088   2.352   1.297   2.290
13417SOL     OW42089   1.515  13.836   9.898
13417SOL    HW142090   1.577  13.909   9.896
13417SOL    HW242091   1.479  13.837   9.987
13418SOL     OW42092  10.301  10.686   1.753
13418SOL    HW142093  10.311  10.718   1.663
13418SOL    HW242094  10.207  10.684   1.767
13419SOL     OW42095   5.412   7.824   4.707
13419SOL    HW142096   5.450   7.888   4.646
13419SOL    HW242097   5.445   7.849   4.793
13420SOL     OW42098  12.187  13.954  14.862
13420SOL    HW142099  12.100  13.919  14.846
13420SOL    HW242100  12.230  13.955  14.776
13421SOL     OW42101  12.980   1.061   7.211
13421SOL    HW142102  12.981   1.147   7.252
13421SOL    HW242103  12.991   1.079   7.117
13422SOL     OW42104  10.902   6.184   0.328
13422SOL    HW142105  10.976   6.151   0.379
13422SOL    HW242106  10.838   6.112   0.329
13423SOL     OW42107   7.011  13.669   5.498
13423SOL    HW142108   6.976  13.746   5.453
13423SOL    HW242109   7.014  13.601   5.430
13424SOL     OW42110  12.283   8.909   3.586
13424SOL    HW142111  12.315   8.917   3.676
13424SOL    HW242112  12.276   8.815   3.571
13425SOL     OW42113   3.607   6.446   7.555
13425SOL    HW142114   3.600   6.509   7.484
13425SOL    HW242115   3.660   6.375   7.519
13426SOL     OW42116   0.301   7.537  10.445
13426SOL    HW142117   0.367   7.561  10.511
13426SOL    HW242118   0.250   7.616  10.432
13427SOL     OW42119   2.200   6.236   3.059
13427SOL    HW142120   2.133   6.300   3.083
13427SOL    HW242121   2.274   6.255   3.117
13428SOL     OW42122   8.329   4.717   4.024
13428SOL    HW142123   8.274   4.791   4.052
13428SOL    HW242124   8.311   4.648   4.088
13429SOL     OW42125   6.542   4.912  11.709
13429SOL    HW142126   6.579   4.939  11.793
13429SOL    HW242127   6.604   4.846  11.677
13430SOL     OW42128   9.643   1.498   0.835
13430SOL    HW142129   9.670   1.498   0.743
13430SOL    HW242130   9.610   1.587   0.850
13431SOL     OW42131   0.780   8.930  12.312
13431SOL    HW142132   0.819   9.014  12.336
13431SOL    HW242133   0.742   8.897  12.393
13432SOL     OW42134   1.594   4.344  14.086
13432SOL    HW142135   1.613   4.355  13.993
13432SOL    HW242136   1.594   4.249  14.100
13433SOL     OW42137  10.024   9.486   0.750
13433SOL    HW142138   9.930   9.471   0.759
13433SOL    HW242139  10.062   9.448   0.829
13434SOL     OW42140   7.980   4.915  10.610
13434SOL    HW142141   7.976   4.869  10.526
13434SOL    HW242142   7.892   4.947  10.624
13435SOL     OW42143   2.140   5.738  14.756
13435SOL    HW142144   2.153   5.713  14.848
13435SOL    HW242145   2.105   5.827  14.760
13436SOL     OW42146   9.895  12.622  11.524
13436SOL    HW142147   9.845  12.703  11.519
13436SOL    HW242148   9.927  12.608  11.435
13437SOL     OW42149  10.446   3.535   5.826
13437SOL    HW142150  10.533   3.518   5.862
13437SOL    HW242151  10.386   3.499   5.892
13438SOL     OW42152   7.055   1.132   5.924
13438SOL    HW142153   7.044   1.039   5.942
13438SOL    HW242154   7.082   1.169   6.009
13439SOL     OW42155   2.358   1.023   6.166
13439SOL    HW142156   2.266   1.044   6.150
13439SOL    HW242157   2.395   1.102   6.206
13440SOL     OW42158   0.543  12.212  14.500
13440SOL    HW142159   0.467  12.246  14.548
13440SOL    HW242160   0.614  12.213  14.564
13441SOL     OW42161  10.687   1.795   7.173
13441SOL    HW142162  10.714   1.846   7.249
13441SOL    HW242163  10.662   1.709   7.208
13442SOL     OW42164   6.448   7.025   5.026
13442SOL    HW142165   6.431   7.000   4.935
13442SOL    HW242166   6.433   7.120   5.028
13443SOL     OW42167  11.552  13.296   8.544
13443SOL    HW142168  11.555  13.241   8.623
13443SOL    HW242169  11.476  13.265   8.496
13444SOL     OW42170   9.573   5.772   8.156
13444SOL    HW142171   9.519   5.768   8.236
13444SOL    HW242172   9.509   5.778   8.085
13445SOL     OW42173   5.019   7.586   0.423
13445SOL    HW142174   5.065   7.543   0.495
13445SOL    HW242175   4.932   7.546   0.423
13446SOL     OW42176   7.767   0.770  12.099
13446SOL    HW142177   7.722   0.825  12.035
13446SOL    HW242178   7.719   0.785  12.181
13447SOL     OW42179   0.459  14.001   8.120
13447SOL    HW142180   0.425  14.090   8.110
13447SOL    HW242181   0.419  13.952   8.048
13448SOL     OW42182   9.644   7.558   3.285
13448SOL    HW142183   9.624   7.550   3.378
13448SOL    HW242184   9.730   7.518   3.275
13449SOL     OW42185   4.947  14.729  11.323
13449SOL    HW142186   4.857  14.762  11.324
13449SOL    HW242187   4.966  14.714  11.231
13450SOL     OW42188  14.612   6.562   8.366
13450SOL    HW142189  14.602   6.587   8.275
13450SOL    HW242190  14.646   6.640   8.409
13451SOL     OW42191  11.775   8.075   4.322
13451SOL    HW142192  11.772   8.050   4.415
13451SOL    HW242193  11.686   8.106   4.304
13452SOL     OW42194  12.975  13.156   9.952
13452SOL    HW142195  13.013  13.232   9.907
13452SOL    HW242196  12.903  13.193  10.003
13453SOL     OW42197  11.458   7.629   3.673
13453SOL    HW142198  11.525   7.671   3.619
13453SOL    HW242199  11.463   7.536   3.650
13454SOL     OW42200   4.916   3.837   2.853
13454SOL    HW142201   4.837   3.871   2.896
13454SOL    HW242202   4.965   3.914   2.828
13455SOL     OW42203  13.962   3.427   8.767
13455SOL    HW142204  13.912   3.496   8.723
13455SOL    HW242205  13.983   3.465   8.853
13456SOL     OW42206   8.045  11.309   1.712
13456SOL    HW142207   8.052  11.300   1.616
13456SOL    HW242208   8.117  11.255   1.746
13457SOL     OW42209   0.862  11.574  12.609
13457SOL    HW142210   0.797  11.644  12.598
13457SOL    HW242211   0.847  11.541  12.697
13458SOL     OW42212   4.993   0.967   3.882
13458SOL    HW142213   4.921   1.006   3.833
13458SOL    HW242214   5.051   1.040   3.903
13459SOL     OW42215   1.617  12.705   8.372
13459SOL    HW142216   1.540  12.663   8.333
13459SOL    HW242217   1.613  12.680   8.464
13460SOL     OW42218  12.814   2.461   3.799
13460SOL    HW142219  12.785   2.441   3.888
13460SOL    HW242220  12.896   2.414   3.789
13461SOL     OW42221  13.914  11.857   7.965
13461SOL    HW142222  13.850  11.907   7.915
13461SOL    HW242223  13.996  11.903   7.952
13462SOL     OW42224   2.990   2.833   3.253
13462SOL    HW142225   2.961   2.745   3.232
13462SOL    HW242226   3.080   2.822   3.285
13463SOL     OW42227   8.922   3.328   8.562
13463SOL    HW142228   8.948   3.302   8.651
13463SOL    HW242229   8.828   3.344   8.569
13464SOL     OW42230   8.359  10.454   4.967
13464SOL    HW142231   8.304  10.467   5.044
13464SOL    HW242232   8.393  10.541   4.947
13465SOL     OW42233  11.020   2.800   8.821
13465SOL    HW142234  10.943   2.765   8.864
13465SOL    HW242235  11.093   2.746   8.853
13466SOL     OW42236  13.686   2.975  10.546
13466SOL    HW142237  13.621   2.908  10.567
13466SOL    HW242238  13.768   2.942  10.582
13467SOL     OW42239   1.893   4.985   7.549
13467SOL    HW142240   1.844   5.065   7.532
13467SOL    HW242241   1.897   4.979   7.645
13468SOL     OW42242  12.140   0.373   3.022
13468SOL    HW142243  12.187   0.318   2.959
13468SOL    HW242244  12.052   0.382   2.984
13469SOL     OW42245  10.302   5.672   2.083
13469SOL    HW142246  10.262   5.700   2.165
13469SOL    HW242247  10.229   5.643   2.029
13470SOL     OW42248   9.382   5.002   2.405
13470SOL    HW142249   9.357   4.916   2.370
13470SOL    HW242250   9.334   5.065   2.352
13471SOL     OW42251   5.422  12.530  11.004
13471SOL    HW142252   5.362  12.594  10.965
13471SOL    HW242253   5.509  12.565  10.988
13472SOL     OW42254  13.119   5.903   9.413
13472SOL    HW142255  13.110   5.808   9.415
13472SOL    HW242256  13.164   5.921   9.330
13473SOL     OW42257   8.846   2.356   7.976
13473SOL    HW142258   8.893   2.358   7.893
13473SOL    HW242259   8.904   2.402   8.038
13474SOL     OW42260   5.027   5.292   8.244
13474SOL    HW142261   5.108   5.265   8.201
13474SOL    HW242262   4.970   5.215   8.237
13475SOL     OW42263   6.754   4.925   0.597
13475SOL    HW142264   6.774   4.941   0.505
13475SOL    HW242265   6.721   5.008   0.630
13476SOL     OW42266  13.595   8.915   5.101
13476SOL    HW142267  13.629   8.970   5.030
13476SOL    HW242268  13.624   8.958   5.181
13477SOL     OW42269   5.241   4.614   9.002
13477SOL    HW142270   5.226   4.666   8.923
13477SOL    HW242271   5.269   4.529   8.968
13478SOL     OW42272   3.242   2.792   0.689
13478SOL    HW142273   3.313   2.852   0.667
13478SOL    HW242274   3.164   2.832   0.651
13479SOL     OW42275  14.620   9.355   9.004
13479SOL    HW142276  14.552   9.299   9.042
13479SOL    HW242277  14.572   9.418   8.951
13480SOL     OW42278   0.432   7.200   7.674
13480SOL    HW142279   0.514   7.248   7.663
13480SOL    HW242280   0.414   7.165   7.587
13481SOL     OW42281   5.256   3.221   5.228
13481SOL    HW142282   5.220   3.277   5.160
13481SOL    HW242283   5.347   3.207   5.202
13482SOL     OW42284   4.716   5.283  13.027
13482SOL    HW142285   4.687   5.218  13.091
13482SOL    HW242286   4.719   5.236  12.944
13483SOL     OW42287  12.573   7.000   6.474
13483SOL    HW142288  12.597   7.074   6.530
13483SOL    HW242289  12.560   6.927   6.535
13484SOL     OW42290  14.487   9.771   5.243
13484SOL    HW142291  14.514   9.750   5.332
13484SOL    HW242292  14.396   9.798   5.251
13485SOL     OW42293  13.640  12.572   0.063
13485SOL    HW142294  13.628  12.506   0.131
13485SOL    HW242295  13.583  12.544  14.864
13486SOL     OW42296   7.790   0.092   8.331
13486SOL    HW142297   7.875   0.090   8.376
13486SOL    HW242298   7.754   0.178   8.353
13487SOL     OW42299   0.740   9.960   4.015
13487SOL    HW142300   0.748   9.998   4.102
13487SOL    HW242301   0.824   9.917   3.999
13488SOL     OW42302   9.494   1.938  13.508
13488SOL    HW142303   9.553   2.001  13.467
13488SOL    HW242304   9.499   1.957  13.601
13489SOL     OW42305   2.191   7.686   7.458
13489SOL    HW142306   2.232   7.772   7.447
13489SOL    HW242307   2.133   7.677   7.382
13490SOL     OW42308   8.991   0.959  13.065
13490SOL    HW142309   8.908   0.920  13.093
13490SOL    HW242310   9.022   1.007  13.141
13491SOL     OW42311  13.264   9.026  13.619
13491SOL    HW142312  13.241   8.979  13.699
13491SOL    HW242313  13.340   9.079  13.643
13492SOL     OW42314   9.254  11.645   7.834
13492SOL    HW142315   9.255  11.611   7.745
13492SOL    HW242316   9.207  11.729   7.827
13493SOL     OW42317  10.116   4.761   4.374
13493SOL    HW142318  10.036   4.754   4.323
13493SOL    HW242319  10.126   4.855   4.392
13494SOL     OW42320   2.245   2.735  12.451
13494SOL    HW142321   2.168   2.740  12.507
13494SOL    HW242322   2.209   2.736  12.362
13495SOL     OW42323   9.560   7.785  11.619
13495SOL    HW142324   9.538   7.693  11.634
13495SOL    HW242325   9.496   7.833  11.671
13496SOL     OW42326  11.711   5.769   7.653
13496SOL    HW142327  11.674   5.818   7.727
13496SOL    HW242328  11.634   5.741   7.603
13497SOL     OW42329  10.735  11.191   8.822
13497SOL    HW142330  10.824  11.166   8.800
13497SOL    HW242331  10.686  11.109   8.819
13498SOL     OW42332  11.236  14.393   5.276
13498SOL    HW142333  11.289  14.330   5.227
13498SOL    HW242334  11.147  14.377   5.246
13499SOL     OW42335  11.891  10.866   4.573
13499SOL    HW142336  11.942  10.845   4.651
13499SOL    HW242337  11.810  10.817   4.583
13500SOL     OW42338   1.329   1.261   2.835
13500SOL    HW142339   1.376   1.260   2.752
13500SOL    HW242340   1.377   1.201   2.891
13501SOL     OW42341   7.693  10.350  13.570
13501SOL    HW142342   7.717  10.336  13.478
13501SOL    HW242343   7.765  10.313  13.620
13502SOL     OW42344  13.896   0.258  10.112
13502SOL    HW142345  13.937   0.306  10.184
13502SOL    HW242346  13.820   0.216  10.152
13503SOL     OW42347   6.164  13.805  12.792
13503SOL    HW142348   6.180  13.897  12.767
13503SOL    HW242349   6.071  13.802  12.812
13504SOL     OW42350   4.880   3.429  13.938
13504SOL    HW142351   4.969   3.393  13.932
13504SOL    HW242352   4.888   3.517  13.901
13505SOL     OW42353  11.921  11.525   2.311
13505SOL    HW142354  11.940  11.524   2.217
13505SOL    HW242355  11.827  11.508   2.317
13506SOL     OW42356   1.467   6.024   2.475
13506SOL    HW142357   1.502   6.008   2.388
13506SOL    HW242358   1.448   6.118   2.477
13507SOL     OW42359  13.903   7.436   4.854
13507SOL    HW142360  13.961   7.479   4.916
13507SOL    HW242361  13.821   7.484   4.860
13508SOL     OW42362   1.649   5.844   5.751
13508SOL    HW142363   1.719   5.908   5.739
13508SOL    HW242364   1.585   5.889   5.806
13509SOL     OW42365   4.155   1.843  12.223
13509SOL    HW142366   4.123   1.816  12.137
13509SOL    HW242367   4.233   1.896  12.205
13510SOL     OW42368  11.565   0.693  12.962
13510SOL    HW142369  11.652   0.723  12.989
13510SOL    HW242370  11.504   0.747  13.013
13511SOL     OW42371   7.369  10.144  13.021
13511SOL    HW142372   7.329  10.107  12.942
13511SOL    HW242373   7.304  10.128  13.090
13512SOL     OW42374   5.439   6.997   6.546
13512SOL    HW142375   5.449   7.075   6.600
13512SOL    HW242376   5.404   6.931   6.607
13513SOL     OW42377   7.475   7.091   5.447
13513SOL    HW142378   7.497   7.056   5.533
13513SOL    HW242379   7.553   7.074   5.394
13514SOL     OW42380   1.651  10.349  11.157
13514SOL    HW142381   1.661  10.353  11.061
13514SOL    HW242382   1.637  10.440  11.183
13515SOL     OW42383   9.631   3.373  14.574
13515SOL    HW142384   9.547   3.390  14.531
13515SOL    HW242385   9.692   3.434  14.532
13516SOL     OW42386  12.870   2.868   8.104
13516SOL    HW142387  12.937   2.839   8.166
13516SOL    HW242388  12.911   2.855   8.018
13517SOL     OW42389   7.240  13.153   2.551
13517SOL    HW142390   7.163  13.099   2.532
13517SOL    HW242391   7.285  13.162   2.467
13518SOL     OW42392   6.529  10.213   8.255
13518SOL    HW142393   6.574  10.199   8.172
13518SOL    HW242394   6.481  10.295   8.243
13519SOL     OW42395   7.793   6.346  11.256
13519SOL    HW142396   7.827   6.352  11.167
13519SOL    HW242397   7.701   6.373  11.249
13520SOL     OW42398   7.828   3.667   1.510
13520SOL    HW142399   7.859   3.616   1.585
13520SOL    HW242400   7.907   3.684   1.459
13521SOL     OW42401   7.347   5.516   2.745
13521SOL    HW142402   7.315   5.434   2.783
13521SOL    HW242403   7.413   5.547   2.807
13522SOL     OW42404  14.089   4.187  11.954
13522SOL    HW142405  14.074   4.118  12.018
13522SOL    HW242406  14.086   4.268  12.005
13523SOL     OW42407   8.664   6.178   1.061
13523SOL    HW142408   8.754   6.173   1.092
13523SOL    HW242409   8.659   6.114   0.989
13524SOL     OW42410   5.860   0.332   4.902
13524SOL    HW142411   5.795   0.328   4.972
13524SOL    HW242412   5.871   0.240   4.875
13525SOL     OW42413  14.642   2.061   6.594
13525SOL    HW142414  14.659   2.098   6.681
13525SOL    HW242415  14.728   2.052   6.554
13526SOL     OW42416  11.284   3.492   8.294
13526SOL    HW142417  11.364   3.518   8.249
13526SOL    HW242418  11.244   3.426   8.237
13527SOL     OW42419   9.555   6.515   5.588
13527SOL    HW142420   9.650   6.517   5.590
13527SOL    HW242421   9.533   6.509   5.495
13528SOL     OW42422   8.152   5.526   1.501
13528SOL    HW142423   8.173   5.573   1.420
13528SOL    HW242424   8.214   5.454   1.505
13529SOL     OW42425   4.986   7.960   0.430
13529SOL    HW142426   4.906   7.960   0.483
13529SOL    HW242427   4.995   8.050   0.400
13530SOL     OW42428   6.800  10.453   4.669
13530SOL    HW142429   6.873  10.498   4.626
13530SOL    HW242430   6.827  10.448   4.761
13531SOL     OW42431   3.015  12.837  12.448
13531SOL    HW142432   2.928  12.797  12.456
13531SOL    HW242433   3.076  12.765  12.466
13532SOL     OW42434   7.844  10.719   6.488
13532SOL    HW142435   7.802  10.767   6.560
13532SOL    HW242436   7.811  10.760   6.409
13533SOL     OW42437   0.387   5.354  12.715
13533SOL    HW142438   0.410   5.344  12.807
13533SOL    HW242439   0.390   5.265  12.679
13534SOL     OW42440   8.917   3.291  14.463
13534SOL    HW142441   8.871   3.371  14.490
13534SOL    HW242442   8.847   3.232  14.433
13535SOL     OW42443   6.709  10.762   6.490
13535SOL    HW142444   6.713  10.851   6.525
13535SOL    HW242445   6.787  10.754   6.435
13536SOL     OW42446   0.274   6.559  12.493
13536SOL    HW142447   0.358   6.604  12.479
13536SOL    HW242448   0.285   6.515  12.577
13537SOL     OW42449   5.119   0.399   7.471
13537SOL    HW142450   5.113   0.471   7.408
13537SOL    HW242451   5.103   0.320   7.418
13538SOL     OW42452   5.936  14.099  14.103
13538SOL    HW142453   6.003  14.047  14.148
13538SOL    HW242454   5.912  14.166  14.167
13539SOL     OW42455   2.574  11.613   4.770
13539SOL    HW142456   2.511  11.546   4.744
13539SOL    HW242457   2.585  11.667   4.691
13540SOL     OW42458   2.751   9.402   4.815
13540SOL    HW142459   2.807   9.444   4.880
13540SOL    HW242460   2.812   9.354   4.759
13541SOL     OW42461   8.712  11.303  10.778
13541SOL    HW142462   8.637  11.324  10.834
13541SOL    HW242463   8.787  11.340  10.824
13542SOL     OW42464   7.151   6.719  11.769
13542SOL    HW142465   7.107   6.802  11.755
13542SOL    HW242466   7.211   6.735  11.842
13543SOL     OW42467   7.623   0.910   5.343
13543SOL    HW142468   7.660   0.851   5.409
13543SOL    HW242469   7.534   0.878   5.330
13544SOL     OW42470  10.771  10.665  12.855
13544SOL    HW142471  10.706  10.628  12.794
13544SOL    HW242472  10.829  10.717  12.799
13545SOL     OW42473   0.427   3.777   9.153
13545SOL    HW142474   0.446   3.808   9.064
13545SOL    HW242475   0.511   3.745   9.186
13546SOL     OW42476  13.474  13.602  13.903
13546SOL    HW142477  13.546  13.633  13.957
13546SOL    HW242478  13.514  13.580  13.819
13547SOL     OW42479   3.165   0.384   3.844
13547SOL    HW142480   3.174   0.357   3.935
13547SOL    HW242481   3.166   0.302   3.795
13548SOL     OW42482  14.447   8.546   9.751
13548SOL    HW142483  14.419   8.511   9.836
13548SOL    HW242484  14.391   8.502   9.687
13549SOL     OW42485   2.667   9.465  14.076
13549SOL    HW142486   2.730   9.470  14.004
13549SOL    HW242487   2.610   9.541  14.064
13550SOL     OW42488   8.850   8.804   3.225
13550SOL    HW142489   8.891   8.847   3.300
13550SOL    HW242490   8.886   8.849   3.149
13551SOL     OW42491  12.030   7.725   9.736
13551SOL    HW142492  11.980   7.793   9.780
13551SOL    HW242493  12.012   7.738   9.643
13552SOL     OW42494   6.537   9.481  12.424
13552SOL    HW142495   6.548   9.386  12.417
13552SOL    HW242496   6.442   9.494  12.428
13553SOL     OW42497   6.722   8.920   7.781
13553SOL    HW142498   6.804   8.957   7.814
13553SOL    HW242499   6.667   8.910   7.859
13554SOL     OW42500   9.504   2.223   0.373
13554SOL    HW142501   9.537   2.310   0.396
13554SOL    HW242502   9.580   2.176   0.340
13555SOL     OW42503   9.430  11.262   3.192
13555SOL    HW142504   9.464  11.250   3.104
13555SOL    HW242505   9.355  11.202   3.198
13556SOL     OW42506   9.827   4.748   7.197
13556SOL    HW142507   9.881   4.827   7.198
13556SOL    HW242508   9.773   4.755   7.276
13557SOL     OW42509   0.184   6.587   9.505
13557SOL    HW142510   0.109   6.563   9.560
13557SOL    HW242511   0.183   6.523   9.434
13558SOL     OW42512   9.438   8.338  11.956
13558SOL    HW142513   9.505   8.270  11.941
13558SOL    HW242514   9.358   8.289  11.974
13559SOL     OW42515   3.207   1.147   8.556
13559SOL    HW142516   3.303   1.147   8.555
13559SOL    HW242517   3.182   1.208   8.487
13560SOL     OW42518   5.674  14.216   7.431
13560SOL    HW142519   5.641  14.157   7.363
13560SOL    HW242520   5.614  14.203   7.505
13561SOL     OW42521   4.163  13.389   4.374
13561SOL    HW142522   4.206  13.444   4.309
13561SOL    HW242523   4.151  13.446   4.450
13562SOL     OW42524   8.607   6.134   5.967
13562SOL    HW142525   8.559   6.112   6.047
13562SOL    HW242526   8.672   6.198   5.994
13563SOL     OW42527  10.559   3.409   0.580
13563SOL    HW142528  10.481   3.371   0.538
13563SOL    HW242529  10.617   3.431   0.507
13564SOL     OW42530  14.436   4.873   5.162
13564SOL    HW142531  14.389   4.797   5.195
13564SOL    HW242532  14.521   4.870   5.206
13565SOL     OW42533   1.662   4.342   1.450
13565SOL    HW142534   1.578   4.364   1.411
13565SOL    HW242535   1.727   4.365   1.383
13566SOL     OW42536  10.755  11.121  10.080
13566SOL    HW142537  10.784  11.080  10.161
13566SOL    HW242538  10.825  11.182  10.057
13567SOL     OW42539  11.242   8.182  13.064
13567SOL    HW142540  11.254   8.091  13.093
13567SOL    HW242541  11.328   8.222  13.073
13568SOL     OW42542  12.203  11.588  14.667
13568SOL    HW142543  12.118  11.562  14.703
13568SOL    HW242544  12.199  11.562  14.575
13569SOL     OW42545   3.864   3.581  13.545
13569SOL    HW142546   3.898   3.495  13.571
13569SOL    HW242547   3.928   3.643  13.579
13570SOL     OW42548   3.336  14.525   1.395
13570SOL    HW142549   3.256  14.486   1.430
13570SOL    HW242550   3.406  14.489   1.449
13571SOL     OW42551   8.987   8.606   2.444
13571SOL    HW142552   8.988   8.656   2.526
13571SOL    HW242553   8.897   8.573   2.437
13572SOL     OW42554   5.072  10.233  14.134
13572SOL    HW142555   5.109  10.301  14.191
13572SOL    HW242556   5.009  10.187  14.189
13573SOL     OW42557   0.357  13.178   3.807
13573SOL    HW142558   0.390  13.263   3.779
13573SOL    HW242559   0.414  13.115   3.763
13574SOL     OW42560   2.569   9.752  14.065
13574SOL    HW142561   2.586   9.764  14.159
13574SOL    HW242562   2.479   9.783  14.053
13575SOL     OW42563  11.254   6.289   0.240
13575SOL    HW142564  11.298   6.277   0.156
13575SOL    HW242565  11.195   6.363   0.225
13576SOL     OW42566  10.865   6.885   8.972
13576SOL    HW142567  10.930   6.951   8.996
13576SOL    HW242568  10.802   6.887   9.044
13577SOL     OW42569   4.563   7.885  12.757
13577SOL    HW142570   4.509   7.871  12.835
13577SOL    HW242571   4.652   7.893  12.791
13578SOL     OW42572   8.714  12.941  13.679
13578SOL    HW142573   8.793  12.931  13.626
13578SOL    HW242574   8.644  12.950  13.615
13579SOL     OW42575   3.601   8.638  14.692
13579SOL    HW142576   3.620   8.664  14.782
13579SOL    HW242577   3.561   8.715  14.652
13580SOL     OW42578   8.651   0.373  11.016
13580SOL    HW142579   8.641   0.278  11.026
13580SOL    HW242580   8.585   0.397  10.951
13581SOL     OW42581   2.340   3.801   2.213
13581SOL    HW142582   2.304   3.863   2.150
13581SOL    HW242583   2.303   3.716   2.189
13582SOL     OW42584  11.120  12.873   2.337
13582SOL    HW142585  11.113  12.778   2.339
13582SOL    HW242586  11.120  12.899   2.429
13583SOL     OW42587   5.552  12.963   0.242
13583SOL    HW142588   5.629  12.922   0.282
13583SOL    HW242589   5.483  12.897   0.248
13584SOL     OW42590   6.055   5.326   9.863
13584SOL    HW142591   6.104   5.243   9.857
13584SOL    HW242592   5.992   5.323   9.792
13585SOL     OW42593   9.543   2.756  14.796
13585SOL    HW142594   9.546   2.707   0.005
13585SOL    HW242595   9.564   2.846  14.820
13586SOL     OW42596  13.429   5.063   1.236
13586SOL    HW142597  13.369   4.989   1.244
13586SOL    HW242598  13.375   5.140   1.253
13587SOL     OW42599  10.070  13.211   7.083
13587SOL    HW142600  10.032  13.212   7.172
13587SOL    HW242601  10.084  13.303   7.062
13588SOL     OW42602   8.657   9.292   1.931
13588SOL    HW142603   8.650   9.356   2.002
13588SOL    HW242604   8.567   9.269   1.909
13589SOL     OW42605   9.097  13.248   5.634
13589SOL    HW142606   9.075  13.341   5.639
13589SOL    HW242607   9.071  13.222   5.546
13590SOL     OW42608   4.731   0.065   3.060
13590SOL    HW142609   4.677   0.106   2.993
13590SOL    HW242610   4.821   0.089   3.036
13591SOL     OW42611   9.974   1.865   3.172
13591SOL    HW142612  10.058   1.910   3.180
13591SOL    HW242613   9.918   1.907   3.237
13592SOL     OW42614   9.909  10.797   1.656
13592SOL    HW142615   9.914  10.705   1.629
13592SOL    HW242616   9.839  10.834   1.602
13593SOL     OW42617   7.155   3.247   0.991
13593SOL    HW142618   7.109   3.164   0.980
13593SOL    HW242619   7.236   3.236   0.940
13594SOL     OW42620   5.071   3.620  12.298
13594SOL    HW142621   5.047   3.669  12.376
13594SOL    HW242622   5.159   3.587  12.315
13595SOL     OW42623   9.294   1.095  13.130
13595SOL    HW142624   9.385   1.067  13.141
13595SOL    HW242625   9.282   1.164  13.196
13596SOL     OW42626   6.883   2.762   5.450
13596SOL    HW142627   6.816   2.771   5.382
13596SOL    HW242628   6.942   2.835   5.436
13597SOL     OW42629  10.012   7.624  10.578
13597SOL    HW142630   9.940   7.607  10.518
13597SOL    HW242631  10.090   7.596  10.530
13598SOL     OW42632   8.932   4.142  10.832
13598SOL    HW142633   8.996   4.214  10.831
13598SOL    HW242634   8.865   4.171  10.894
13599SOL     OW42635   9.077   6.714   6.092
13599SOL    HW142636   9.120   6.734   6.008
13599SOL    HW242637   9.135   6.650   6.133
13600SOL     OW42638   2.326  12.086  14.837
13600SOL    HW142639   2.289  12.159  14.786
13600SOL    HW242640   2.250  12.031  14.858
13601SOL     OW42641   1.367   5.228   1.293
13601SOL    HW142642   1.439   5.268   1.244
13601SOL    HW242643   1.302   5.297   1.301
13602SOL     OW42644   8.028   2.897   2.368
13602SOL    HW142645   8.009   2.813   2.325
13602SOL    HW242646   7.957   2.908   2.431
13603SOL     OW42647   7.630  10.368   5.066
13603SOL    HW142648   7.578  10.445   5.044
13603SOL    HW242649   7.691  10.399   5.133
13604SOL     OW42650   7.965   2.596   0.410
13604SOL    HW142651   8.005   2.548   0.483
13604SOL    HW242652   8.014   2.678   0.405
13605SOL     OW42653  13.393  13.411   9.481
13605SOL    HW142654  13.400  13.501   9.511
13605SOL    HW242655  13.423  13.413   9.390
13606SOL     OW42656   5.047   2.938   5.649
13606SOL    HW142657   5.096   2.966   5.571
13606SOL    HW242658   5.087   2.988   5.721
13607SOL     OW42659   5.713   9.121   9.210
13607SOL    HW142660   5.655   9.165   9.148
13607SOL    HW242661   5.798   9.117   9.166
13608SOL     OW42662  11.027   5.896  14.560
13608SOL    HW142663  10.989   5.822  14.514
13608SOL    HW242664  11.035   5.866  14.651
13609SOL     OW42665  14.483  12.896  12.346
13609SOL    HW142666  14.432  12.933  12.274
13609SOL    HW242667  14.574  12.911  12.322
13610SOL     OW42668   9.815   3.122   8.684
13610SOL    HW142669   9.843   3.124   8.592
13610SOL    HW242670   9.848   3.204   8.720
13611SOL     OW42671  12.040   8.077   2.320
13611SOL    HW142672  11.975   8.132   2.364
13611SOL    HW242673  12.088   8.035   2.392
13612SOL     OW42674  14.763   4.598   2.404
13612SOL    HW142675  14.738   4.681   2.445
13612SOL    HW242676  14.686   4.573   2.353
13613SOL     OW42677  11.546   2.813   5.139
13613SOL    HW142678  11.640   2.797   5.140
13613SOL    HW242679  11.537   2.900   5.099
13614SOL     OW42680   2.736   9.574   2.879
13614SOL    HW142681   2.644   9.583   2.900
13614SOL    HW242682   2.739   9.504   2.813
13615SOL     OW42683   7.717  13.673   4.567
13615SOL    HW142684   7.733  13.607   4.500
13615SOL    HW242685   7.776  13.745   4.544
13616SOL     OW42686   0.575   9.654   5.307
13616SOL    HW142687   0.667   9.657   5.281
13616SOL    HW242688   0.578   9.657   5.403
13617SOL     OW42689  11.979  14.199  10.379
13617SOL    HW142690  12.046  14.136  10.403
13617SOL    HW242691  11.907  14.146  10.344
13618SOL     OW42692   2.239  13.283   5.067
13618SOL    HW142693   2.232  13.199   5.112
13618SOL    HW242694   2.149  13.306   5.044
13619SOL     OW42695  13.776   9.912   4.758
13619SOL    HW142696  13.778   9.934   4.852
13619SOL    HW242697  13.753   9.994   4.715
13620SOL     OW42698  10.037   2.429   3.972
13620SOL    HW142699   9.992   2.483   4.037
13620SOL    HW242700  10.120   2.405   4.014
13621SOL     OW42701   9.535   9.499   5.190
13621SOL    HW142702   9.566   9.465   5.274
13621SOL    HW242703   9.475   9.570   5.214
13622SOL     OW42704   3.990   3.703   8.654
13622SOL    HW142705   3.911   3.750   8.629
13622SOL    HW242706   3.993   3.708   8.749
13623SOL     OW42707  10.086   5.091   8.226
13623SOL    HW142708  10.049   5.078   8.138
13623SOL    HW242709  10.010   5.084   8.285
13624SOL     OW42710  13.770  10.722  12.022
13624SOL    HW142711  13.721  10.640  12.011
13624SOL    HW242712  13.703  10.788  12.039
13625SOL     OW42713   1.833   6.767   2.061
13625SOL    HW142714   1.927   6.780   2.048
13625SOL    HW242715   1.792   6.825   1.997
13626SOL     OW42716   7.253   2.530   9.490
13626SOL    HW142717   7.293   2.613   9.516
13626SOL    HW242718   7.313   2.494   9.425
13627SOL     OW42719   5.654   8.271   2.142
13627SOL    HW142720   5.638   8.309   2.056
13627SOL    HW242721   5.674   8.346   2.198
13628SOL     OW42722   9.865   3.729  10.503
13628SOL    HW142723   9.813   3.809  10.493
13628SOL    HW242724   9.814   3.674  10.562
13629SOL     OW42725   6.390  12.372  10.611
13629SOL    HW142726   6.449  12.349  10.539
13629SOL    HW242727   6.355  12.457  10.587
13630SOL     OW42728   0.980   6.049  11.991
13630SOL    HW142729   0.998   6.113  12.059
13630SOL    HW242730   0.920   5.987  12.031
13631SOL     OW42731   4.290   0.347   4.126
13631SOL    HW142732   4.377   0.377   4.098
13631SOL    HW242733   4.258   0.295   4.052
13632SOL     OW42734  11.629   9.011   7.572
13632SOL    HW142735  11.705   9.019   7.514
13632SOL    HW242736  11.604   8.918   7.566
13633SOL     OW42737  14.420   7.694  12.945
13633SOL    HW142738  14.505   7.650  12.937
13633SOL    HW242739  14.410   7.711  13.038
13634SOL     OW42740   9.619   0.320   1.595
13634SOL    HW142741   9.550   0.259   1.622
13634SOL    HW242742   9.628   0.380   1.670
13635SOL     OW42743   2.726   8.351   8.165
13635SOL    HW142744   2.688   8.422   8.114
13635SOL    HW242745   2.819   8.351   8.141
13636SOL     OW42746  14.389   4.654   0.570
13636SOL    HW142747  14.425   4.589   0.630
13636SOL    HW242748  14.379   4.733   0.623
13637SOL     OW42749   7.719   7.972  12.010
13637SOL    HW142750   7.691   7.926  11.932
13637SOL    HW242751   7.641   8.020  12.039
13638SOL     OW42752   4.963   5.482   0.124
13638SOL    HW142753   4.980   5.481   0.219
13638SOL    HW242754   5.006   5.403   0.091
13639SOL     OW42755   7.622  12.294  11.929
13639SOL    HW142756   7.655  12.381  11.906
13639SOL    HW242757   7.624  12.246  11.846
13640SOL     OW42758   4.512  10.777  13.406
13640SOL    HW142759   4.600  10.813  13.419
13640SOL    HW242760   4.459  10.852  13.379
13641SOL     OW42761   3.751  10.541  13.935
13641SOL    HW142762   3.704  10.458  13.924
13641SOL    HW242763   3.715  10.579  14.015
13642SOL     OW42764  12.322  11.042   8.892
13642SOL    HW142765  12.243  11.084   8.926
13642SOL    HW242766  12.295  11.000   8.811
13643SOL     OW42767  11.202  12.007   6.762
13643SOL    HW142768  11.123  12.060   6.754
13643SOL    HW242769  11.257  12.056   6.823
13644SOL     OW42770   4.348   6.641   4.813
13644SOL    HW142771   4.307   6.555   4.810
13644SOL    HW242772   4.301   6.687   4.882
13645SOL     OW42773   1.283   1.553  10.509
13645SOL    HW142774   1.375   1.580  10.498
13645SOL    HW242775   1.267   1.496  10.434
13646SOL     OW42776   5.068   1.834   3.302
13646SOL    HW142777   5.049   1.847   3.209
13646SOL    HW242778   5.073   1.922   3.339
13647SOL     OW42779   0.201   6.458  13.594
13647SOL    HW142780   0.215   6.383  13.536
13647SOL    HW242781   0.138   6.427  13.659
13648SOL     OW42782   7.111  11.792   4.122
13648SOL    HW142783   7.099  11.834   4.207
13648SOL    HW242784   7.194  11.827   4.090
13649SOL     OW42785  14.221   8.402  10.670
13649SOL    HW142786  14.211   8.323  10.617
13649SOL    HW242787  14.208   8.474  10.608
13650SOL     OW42788   0.188   9.755   8.224
13650SOL    HW142789   0.164   9.667   8.198
13650SOL    HW242790   0.138   9.771   8.304
13651SOL     OW42791   9.373   0.012   0.579
13651SOL    HW142792   9.345   0.087   0.631
13651SOL    HW242793   9.441  14.843   0.633
13652SOL     OW42794   2.357  10.640  10.020
13652SOL    HW142795   2.306  10.603  10.092
13652SOL    HW242796   2.339  10.734  10.024
13653SOL     OW42797   3.871  13.829  10.940
13653SOL    HW142798   3.916  13.904  10.900
13653SOL    HW242799   3.920  13.812  11.020
13654SOL     OW42800  13.498   5.160   2.325
13654SOL    HW142801  13.428   5.184   2.264
13654SOL    HW242802  13.575   5.208   2.295
13655SOL     OW42803   2.266   2.497   1.000
13655SOL    HW142804   2.235   2.432   0.937
13655SOL    HW242805   2.343   2.535   0.959
13656SOL     OW42806   9.065   6.583   0.143
13656SOL    HW142807   8.985   6.530   0.142
13656SOL    HW242808   9.049   6.648   0.211
13657SOL     OW42809   1.361  14.699  14.444
13657SOL    HW142810   1.422  14.751  14.497
13657SOL    HW242811   1.403  14.613  14.437
13658SOL     OW42812   7.825   2.816  12.194
13658SOL    HW142813   7.755   2.753  12.209
13658SOL    HW242814   7.833   2.863  12.277
13659SOL     OW42815   3.186  11.643   9.403
13659SOL    HW142816   3.218  11.733   9.412
13659SOL    HW242817   3.092  11.652   9.387
13660SOL     OW42818   2.696   8.989   6.391
13660SOL    HW142819   2.732   8.972   6.304
13660SOL    HW242820   2.767   8.966   6.451
13661SOL     OW42821   9.948  11.068   2.721
13661SOL    HW142822   9.886  11.078   2.649
13661SOL    HW242823   9.917  11.128   2.789
13662SOL     OW42824   5.129  11.602  11.064
13662SOL    HW142825   5.067  11.575  10.996
13662SOL    HW242826   5.169  11.521  11.094
13663SOL     OW42827  11.164   8.879   9.640
13663SOL    HW142828  11.213   8.857   9.719
13663SOL    HW242829  11.112   8.955   9.665
13664SOL     OW42830   5.103   6.910   1.658
13664SOL    HW142831   5.108   6.923   1.563
13664SOL    HW242832   5.080   6.996   1.693
13665SOL     OW42833  11.958   3.979  10.095
13665SOL    HW142834  11.990   4.020  10.176
13665SOL    HW242835  11.880   4.030  10.073
13666SOL     OW42836   5.516   9.729  11.735
13666SOL    HW142837   5.575   9.803  11.725
13666SOL    HW242838   5.538   9.672  11.661
13667SOL     OW42839  11.246   8.307   7.299
13667SOL    HW142840  11.212   8.268   7.380
13667SOL    HW242841  11.276   8.394   7.325
13668SOL     OW42842  13.437   7.867   3.236
13668SOL    HW142843  13.449   7.961   3.250
13668SOL    HW242844  13.475   7.851   3.150
13669SOL     OW42845   8.070   0.453   1.971
13669SOL    HW142846   8.134   0.489   2.032
13669SOL    HW242847   8.054   0.364   2.002
13670SOL     OW42848  10.818   2.008  12.321
13670SOL    HW142849  10.911   2.025  12.333
13670SOL    HW242850  10.806   2.012  12.226
13671SOL     OW42851   1.160   6.319   7.569
13671SOL    HW142852   1.152   6.252   7.501
13671SOL    HW242853   1.221   6.383   7.532
13672SOL     OW42854  13.820   3.735   1.404
13672SOL    HW142855  13.888   3.668   1.398
13672SOL    HW242856  13.838   3.794   1.332
13673SOL     OW42857   3.810   0.824  10.237
13673SOL    HW142858   3.722   0.799  10.209
13673SOL    HW242859   3.868   0.780  10.175
13674SOL     OW42860  13.503   4.331   0.958
13674SOL    HW142861  13.434   4.265   0.953
13674SOL    HW242862  13.534   4.340   0.868
13675SOL     OW42863   7.288   7.801   6.463
13675SOL    HW142864   7.322   7.851   6.389
13675SOL    HW242865   7.308   7.855   6.540
13676SOL     OW42866   6.086   5.630   7.423
13676SOL    HW142867   6.130   5.651   7.341
13676SOL    HW242868   6.094   5.710   7.475
13677SOL     OW42869   1.729   4.635   4.825
13677SOL    HW142870   1.763   4.703   4.883
13677SOL    HW242871   1.706   4.681   4.745
13678SOL     OW42872  10.858  12.920   2.811
13678SOL    HW142873  10.904  12.980   2.751
13678SOL    HW242874  10.792  12.877   2.756
13679SOL     OW42875   8.375   1.140  12.041
13679SOL    HW142876   8.465   1.145  12.074
13679SOL    HW242877   8.321   1.170  12.113
13680SOL     OW42878  11.770   8.553  13.518
13680SOL    HW142879  11.714   8.484  13.554
13680SOL    HW242880  11.749   8.631  13.570
13681SOL     OW42881  12.263  13.036   0.769
13681SOL    HW142882  12.290  12.962   0.823
13681SOL    HW242883  12.180  13.008   0.730
13682SOL     OW42884   1.653   3.328   5.095
13682SOL    HW142885   1.649   3.389   5.022
13682SOL    HW242886   1.714   3.260   5.067
13683SOL     OW42887   0.647   1.561   1.283
13683SOL    HW142888   0.637   1.573   1.377
13683SOL    HW242889   0.583   1.494   1.260
13684SOL     OW42890  13.778   7.447  13.972
13684SOL    HW142891  13.729   7.371  13.943
13684SOL    HW242892  13.817   7.483  13.893
13685SOL     OW42893   4.190   4.083   7.408
13685SOL    HW142894   4.108   4.108   7.451
13685SOL    HW242895   4.258   4.127   7.460
13686SOL     OW42896  13.013  11.369   5.182
13686SOL    HW142897  12.947  11.312   5.143
13686SOL    HW242898  13.003  11.357   5.276
13687SOL     OW42899   6.585  11.602  14.063
13687SOL    HW142900   6.633  11.520  14.057
13687SOL    HW242901   6.621  11.645  14.140
13688SOL     OW42902   3.537  13.257  12.475
13688SOL    HW142903   3.484  13.180  12.495
13688SOL    HW242904   3.495  13.328  12.523
13689SOL     OW42905   3.363   7.547  12.534
13689SOL    HW142906   3.288   7.499  12.499
13689SOL    HW242907   3.434   7.529  12.471
13690SOL     OW42908   6.830   8.344   3.941
13690SOL    HW142909   6.771   8.419   3.951
13690SOL    HW242910   6.913   8.374   3.979
13691SOL     OW42911   5.183   4.831   1.904
13691SOL    HW142912   5.241   4.869   1.970
13691SOL    HW242913   5.119   4.900   1.886
13692SOL     OW42914   7.855   5.016  14.684
13692SOL    HW142915   7.873   5.018  14.778
13692SOL    HW242916   7.760   5.018  14.677
13693SOL     OW42917   2.134   6.669   1.193
13693SOL    HW142918   2.079   6.695   1.119
13693SOL    HW242919   2.182   6.749   1.217
13694SOL     OW42920   7.224  13.953  10.841
13694SOL    HW142921   7.148  13.989  10.889
13694SOL    HW242922   7.227  13.861  10.867
13695SOL     OW42923   1.427   9.501   3.078
13695SOL    HW142924   1.360   9.490   3.011
13695SOL    HW242925   1.405   9.435   3.145
13696SOL     OW42926   7.581   7.376   7.194
13696SOL    HW142927   7.641   7.301   7.199
13696SOL    HW242928   7.546   7.385   7.282
13697SOL     OW42929   3.127  14.062  10.909
13697SOL    HW142930   3.088  14.040  10.993
13697SOL    HW242931   3.058  14.045  10.845
13698SOL     OW42932   1.164   2.021   5.391
13698SOL    HW142933   1.156   2.018   5.487
13698SOL    HW242934   1.177   2.114   5.371
13699SOL     OW42935   4.014  12.915   2.437
13699SOL    HW142936   4.072  12.878   2.370
13699SOL    HW242937   3.928  12.917   2.395
13700SOL     OW42938   3.834   3.361  11.918
13700SOL    HW142939   3.795   3.339  11.834
13700SOL    HW242940   3.837   3.278  11.966
13701SOL     OW42941   1.575   2.661  12.171
13701SOL    HW142942   1.607   2.706  12.249
13701SOL    HW242943   1.481   2.649  12.188
13702SOL     OW42944   8.050   6.101   6.343
13702SOL    HW142945   7.966   6.098   6.389
13702SOL    HW242946   8.032   6.153   6.264
13703SOL     OW42947   2.679   4.056   4.110
13703SOL    HW142948   2.694   4.147   4.086
13703SOL    HW242949   2.650   4.059   4.201
13704SOL     OW42950  12.436  10.358  10.983
13704SOL    HW142951  12.525  10.378  10.953
13704SOL    HW242952  12.443  10.355  11.078
13705SOL     OW42953   9.234   7.089  13.792
13705SOL    HW142954   9.298   7.095  13.863
13705SOL    HW242955   9.241   7.172  13.745
13706SOL     OW42956   4.409  10.410   3.950
13706SOL    HW142957   4.467  10.362   4.009
13706SOL    HW242958   4.438  10.501   3.957
13707SOL     OW42959  13.578   0.232   6.148
13707SOL    HW142960  13.625   0.159   6.189
13707SOL    HW242961  13.597   0.307   6.205
13708SOL     OW42962   9.336  14.516  12.664
13708SOL    HW142963   9.297  14.429  12.669
13708SOL    HW242964   9.324  14.553  12.751
13709SOL     OW42965   3.929   8.846   2.224
13709SOL    HW142966   3.901   8.915   2.164
13709SOL    HW242967   3.853   8.787   2.229
13710SOL     OW42968   6.467  13.153   4.555
13710SOL    HW142969   6.541  13.117   4.604
13710SOL    HW242970   6.491  13.244   4.539
13711SOL     OW42971   1.690   8.642   8.447
13711SOL    HW142972   1.649   8.664   8.363
13711SOL    HW242973   1.781   8.669   8.437
13712SOL     OW42974  10.124  14.797   7.014
13712SOL    HW142975  10.076  14.859   7.068
13712SOL    HW242976  10.208  14.839   6.996
13713SOL     OW42977   8.277   6.369  14.634
13713SOL    HW142978   8.191   6.410  14.646
13713SOL    HW242979   8.266   6.313  14.557
13714SOL     OW42980   7.172   9.725  11.106
13714SOL    HW142981   7.220   9.661  11.054
13714SOL    HW242982   7.201   9.810  11.071
13715SOL     OW42983  10.749   8.857  14.182
13715SOL    HW142984  10.756   8.885  14.273
13715SOL    HW242985  10.834   8.880  14.143
13716SOL     OW42986   8.865  12.823   2.410
13716SOL    HW142987   8.790  12.883   2.400
13716SOL    HW242988   8.909  12.853   2.489
13717SOL     OW42989   8.158   8.580  14.197
13717SOL    HW142990   8.221   8.611  14.262
13717SOL    HW242991   8.208   8.574  14.116
13718SOL     OW42992   6.764   2.771  13.368
13718SOL    HW142993   6.725   2.800  13.450
13718SOL    HW242994   6.706   2.701  13.337
13719SOL     OW42995  13.678  13.767   2.082
13719SOL    HW142996  13.697  13.767   1.988
13719SOL    HW242997  13.635  13.851   2.098
13720SOL     OW42998   6.783  12.836  13.578
13720SOL    HW142999   6.877  12.830  13.557
13720SOL    HW243000   6.760  12.927  13.560
13721SOL     OW43001  12.758   6.294   0.632
13721SOL    HW143002  12.690   6.259   0.690
13721SOL    HW243003  12.741   6.388   0.629
13722SOL     OW43004  10.994  13.152   8.346
13722SOL    HW143005  11.051  13.177   8.418
13722SOL    HW243006  10.942  13.230   8.328
13723SOL     OW43007  12.524   4.017  10.646
13723SOL    HW143008  12.580   3.990  10.719
13723SOL    HW243009  12.585   4.030  10.573
13724SOL     OW43010   9.508   0.924   1.968
13724SOL    HW143011   9.433   0.879   2.008
13724SOL    HW243012   9.545   0.977   2.039
13725SOL     OW43013   5.118   4.613   0.429
13725SOL    HW143014   5.074   4.534   0.399
13725SOL    HW243015   5.186   4.581   0.489
13726SOL     OW43016   9.472   4.911  14.152
13726SOL    HW143017   9.458   4.995  14.197
13726SOL    HW243018   9.553   4.924  14.102
13727SOL     OW43019  10.830  14.091  10.260
13727SOL    HW143020  10.736  14.074  10.259
13727SOL    HW243021  10.840  14.171  10.207
13728SOL     OW43022  14.853  12.978  14.767
13728SOL    HW143023  14.858  13.052  14.827
13728SOL    HW243024  14.856  13.018  14.679
13729SOL     OW43025   9.267   1.587  13.770
13729SOL    HW143026   9.267   1.496  13.798
13729SOL    HW243027   9.253   1.583  13.675
13730SOL     OW43028   1.264  13.571   0.543
13730SOL    HW143029   1.335  13.617   0.498
13730SOL    HW243030   1.249  13.492   0.491
13731SOL     OW43031  10.454   4.351   5.465
13731SOL    HW143032  10.487   4.428   5.510
13731SOL    HW243033  10.381   4.321   5.520
13732SOL     OW43034   8.433   6.768   0.655
13732SOL    HW143035   8.344   6.765   0.690
13732SOL    HW243036   8.455   6.861   0.653
13733SOL     OW43037   6.176   8.975  12.186
13733SOL    HW143038   6.265   8.945  12.203
13733SOL    HW243039   6.185   9.032  12.109
13734SOL     OW43040   2.389  13.895   4.395
13734SOL    HW143041   2.425  13.844   4.323
13734SOL    HW243042   2.311  13.847   4.422
13735SOL     OW43043  13.682   5.054   5.463
13735SOL    HW143044  13.662   5.117   5.394
13735SOL    HW243045  13.597   5.028   5.497
13736SOL     OW43046  10.592  14.701   2.774
13736SOL    HW143047  10.685  14.688   2.789
13736SOL    HW243048  10.574  14.657   2.691
13737SOL     OW43049  10.502   2.304  13.135
13737SOL    HW143050  10.411   2.287  13.160
13737SOL    HW243051  10.499   2.320  13.041
13738SOL     OW43052  12.984   6.770   2.547
13738SOL    HW143053  12.945   6.842   2.597
13738SOL    HW243054  13.016   6.709   2.614
13739SOL     OW43055  10.789   7.696  10.524
13739SOL    HW143056  10.756   7.711  10.435
13739SOL    HW243057  10.723   7.737  10.580
13740SOL     OW43058  13.104   5.077   2.225
13740SOL    HW143059  13.119   5.056   2.133
13740SOL    HW243060  13.161   5.017   2.274
13741SOL     OW43061  10.147   6.032   9.531
13741SOL    HW143062  10.226   5.985   9.504
13741SOL    HW243063  10.174   6.123   9.538
13742SOL     OW43064  11.862   1.802   8.797
13742SOL    HW143065  11.893   1.835   8.713
13742SOL    HW243066  11.767   1.799   8.788
13743SOL     OW43067   5.298   0.803   2.177
13743SOL    HW143068   5.208   0.775   2.191
13743SOL    HW243069   5.313   0.795   2.083
13744SOL     OW43070   5.583   9.758   1.298
13744SOL    HW143071   5.637   9.707   1.237
13744SOL    HW243072   5.645   9.809   1.349
13745SOL     OW43073  11.529  12.181   4.241
13745SOL    HW143074  11.614  12.220   4.222
13745SOL    HW243075  11.547  12.114   4.307
13746SOL     OW43076   5.964   6.546  11.293
13746SOL    HW143077   6.054   6.520  11.310
13746SOL    HW243078   5.921   6.540  11.379
13747SOL     OW43079   6.680   5.684  14.428
13747SOL    HW143080   6.774   5.666  14.424
13747SOL    HW243081   6.648   5.669  14.339
13748SOL     OW43082   1.447  13.450   3.889
13748SOL    HW143083   1.516  13.398   3.847
13748SOL    HW243084   1.429  13.404   3.971
13749SOL     OW43085   1.125  10.460   8.303
13749SOL    HW143086   1.064  10.439   8.374
13749SOL    HW243087   1.158  10.547   8.325
13750SOL     OW43088   3.216  12.410   2.184
13750SOL    HW143089   3.257  12.496   2.188
13750SOL    HW243090   3.212  12.381   2.276
13751SOL     OW43091   7.231   6.973   8.104
13751SOL    HW143092   7.234   6.904   8.171
13751SOL    HW243093   7.233   7.055   8.153
13752SOL     OW43094  11.508   6.900  11.894
13752SOL    HW143095  11.460   6.981  11.913
13752SOL    HW243096  11.440   6.833  11.889
13753SOL     OW43097  12.098  11.174   5.747
13753SOL    HW143098  12.171  11.116   5.724
13753SOL    HW243099  12.138  11.259   5.765
13754SOL     OW43100   4.293   6.373  14.373
13754SOL    HW143101   4.242   6.433  14.317
13754SOL    HW243102   4.373   6.357  14.324
13755SOL     OW43103  11.100  12.537  13.945
13755SOL    HW143104  11.123  12.461  13.998
13755SOL    HW243105  11.184  12.578  13.923
13756SOL     OW43106   6.470  12.594   0.846
13756SOL    HW143107   6.461  12.586   0.941
13756SOL    HW243108   6.519  12.516   0.819
13757SOL     OW43109   8.451   0.604   1.001
13757SOL    HW143110   8.546   0.619   0.994
13757SOL    HW243111   8.428   0.640   1.086
13758SOL     OW43112   5.141   4.205   6.055
13758SOL    HW143113   5.105   4.132   6.106
13758SOL    HW243114   5.064   4.252   6.024
13759SOL     OW43115   6.245  10.393  14.110
13759SOL    HW143116   6.171  10.338  14.136
13759SOL    HW243117   6.303  10.334  14.062
13760SOL     OW43118  10.780  12.206   8.798
13760SOL    HW143119  10.698  12.241   8.833
13760SOL    HW243120  10.771  12.212   8.703
13761SOL     OW43121   6.976   3.643   6.658
13761SOL    HW143122   7.026   3.590   6.596
13761SOL    HW243123   7.005   3.612   6.744
13762SOL     OW43124   1.812  12.152   4.613
13762SOL    HW143125   1.742  12.214   4.595
13762SOL    HW243126   1.820  12.100   4.533
13763SOL     OW43127  14.448   3.528   6.156
13763SOL    HW143128  14.436   3.438   6.125
13763SOL    HW243129  14.453   3.519   6.251
13764SOL     OW43130   4.121   5.886   6.558
13764SOL    HW143131   4.203   5.923   6.525
13764SOL    HW243132   4.067   5.962   6.580
13765SOL     OW43133  14.749  12.916   3.923
13765SOL    HW143134  14.775  12.919   3.831
13765SOL    HW243135  14.682  12.984   3.931
13766SOL     OW43136   4.203   5.713   1.389
13766SOL    HW143137   4.174   5.777   1.324
13766SOL    HW243138   4.141   5.640   1.380
13767SOL     OW43139   2.088  11.845   5.995
13767SOL    HW143140   1.998  11.847   5.960
13767SOL    HW243141   2.123  11.761   5.965
13768SOL     OW43142   5.529  11.260  13.237
13768SOL    HW143143   5.594  11.226  13.299
13768SOL    HW243144   5.446  11.257  13.286
13769SOL     OW43145  12.125  13.811   5.968
13769SOL    HW143146  12.108  13.809   6.062
13769SOL    HW243147  12.208  13.765   5.958
13770SOL     OW43148   7.761   3.335  10.689
13770SOL    HW143149   7.814   3.255  10.694
13770SOL    HW243150   7.825   3.406  10.689
13771SOL     OW43151  11.925   7.900  13.556
13771SOL    HW143152  11.888   7.844  13.488
13771SOL    HW243153  12.012   7.923  13.524
13772SOL     OW43154   4.837   7.945   3.428
13772SOL    HW143155   4.784   7.988   3.361
13772SOL    HW243156   4.846   8.011   3.497
13773SOL     OW43157  11.958  12.653   4.597
13773SOL    HW143158  11.885  12.635   4.537
13773SOL    HW243159  11.936  12.604   4.677
13774SOL     OW43160   5.073   1.544   4.783
13774SOL    HW143161   5.076   1.451   4.761
13774SOL    HW243162   5.155   1.561   4.829
13775SOL     OW43163   5.880  12.092   7.425
13775SOL    HW143164   5.806  12.056   7.474
13775SOL    HW243165   5.842  12.165   7.375
13776SOL     OW43166  12.713   7.057  10.119
13776SOL    HW143167  12.729   7.084  10.209
13776SOL    HW243168  12.661   7.128  10.082
13777SOL     OW43169   1.820  13.648   6.985
13777SOL    HW143170   1.890  13.589   6.958
13777SOL    HW243171   1.741  13.595   6.983
13778SOL     OW43172   9.715  11.170   9.701
13778SOL    HW143173   9.801  11.148   9.737
13778SOL    HW243174   9.718  11.140   9.610
13779SOL     OW43175   7.211  12.286  10.532
13779SOL    HW143176   7.227  12.198  10.564
13779SOL    HW243177   7.126  12.310  10.569
13780SOL     OW43178  10.935  11.756   0.650
13780SOL    HW143179  11.028  11.752   0.628
13780SOL    HW243180  10.932  11.793   0.738
13781SOL     OW43181  12.773  10.069  10.101
13781SOL    HW143182  12.797  10.063  10.194
13781SOL    HW243183  12.712  10.143  10.097
13782SOL     OW43184  12.729   5.763  10.211
13782SOL    HW143185  12.674   5.701  10.164
13782SOL    HW243186  12.686   5.848  10.199
13783SOL     OW43187   2.367  10.596   4.627
13783SOL    HW143188   2.346  10.645   4.548
13783SOL    HW243189   2.298  10.530   4.634
13784SOL     OW43190   5.673   7.746   5.020
13784SOL    HW143191   5.595   7.783   5.060
13784SOL    HW243192   5.698   7.810   4.953
13785SOL     OW43193  13.020   6.812  10.035
13785SOL    HW143194  12.969   6.882   9.995
13785SOL    HW243195  13.092   6.857  10.079
13786SOL     OW43196  13.898  14.514  14.233
13786SOL    HW143197  13.852  14.460  14.169
13786SOL    HW243198  13.839  14.588  14.248
13787SOL     OW43199   5.123   0.159   2.415
13787SOL    HW143200   5.159   0.070   2.421
13787SOL    HW243201   5.145   0.188   2.327
13788SOL     OW43202   0.481   1.469  11.045
13788SOL    HW143203   0.421   1.534  11.080
13788SOL    HW243204   0.456   1.387  11.089
13789SOL     OW43205   1.767  13.600   5.985
13789SOL    HW143206   1.755  13.623   6.077
13789SOL    HW243207   1.714  13.522   5.972
13790SOL     OW43208  12.233  12.611   5.463
13790SOL    HW143209  12.218  12.599   5.369
13790SOL    HW243210  12.155  12.657   5.494
13791SOL     OW43211   5.806   3.796  12.344
13791SOL    HW143212   5.781   3.883  12.314
13791SOL    HW243213   5.821   3.807  12.438
13792SOL     OW43214   2.186   4.853  11.825
13792SOL    HW143215   2.150   4.853  11.913
13792SOL    HW243216   2.276   4.884  11.836
13793SOL     OW43217  12.291  12.551   1.238
13793SOL    HW143218  12.385  12.535   1.250
13793SOL    HW243219  12.281  12.645   1.254
13794SOL     OW43220  13.860   2.159  14.616
13794SOL    HW143221  13.851   2.177  14.710
13794SOL    HW243222  13.879   2.244  14.577
13795SOL     OW43223   3.318  10.895   2.863
13795SOL    HW143224   3.330  10.986   2.834
13795SOL    HW243225   3.359  10.891   2.949
13796SOL     OW43226  14.200   4.447   5.937
13796SOL    HW143227  14.266   4.381   5.955
13796SOL    HW243228  14.159   4.464   6.022
13797SOL     OW43229   6.782   8.766  12.156
13797SOL    HW143230   6.704   8.730  12.112
13797SOL    HW243231   6.852   8.758  12.091
13798SOL     OW43232  11.176  13.478   4.389
13798SOL    HW143233  11.162  13.481   4.484
13798SOL    HW243234  11.089  13.462   4.353
13799SOL     OW43235  11.881  12.786  10.537
13799SOL    HW143236  11.804  12.746  10.497
13799SOL    HW243237  11.845  12.844  10.604
13800SOL     OW43238   2.883  13.912  12.680
13800SOL    HW143239   2.870  13.870  12.595
13800SOL    HW243240   2.960  13.969  12.668
13801SOL     OW43241   4.479   2.524  12.228
13801SOL    HW143242   4.561   2.478  12.210
13801SOL    HW243243   4.423   2.502  12.153
13802SOL     OW43244   1.567   7.233   1.902
13802SOL    HW143245   1.473   7.245   1.891
13802SOL    HW243246   1.606   7.309   1.858
13803SOL     OW43247   7.016  11.949  10.760
13803SOL    HW143248   7.073  11.877  10.731
13803SOL    HW243249   7.019  11.944  10.856
13804SOL     OW43250  11.231   7.329   4.634
13804SOL    HW143251  11.160   7.339   4.698
13804SOL    HW243252  11.212   7.395   4.567
13805SOL     OW43253   9.787   4.364   0.936
13805SOL    HW143254   9.707   4.335   0.980
13805SOL    HW243255   9.857   4.317   0.980
13806SOL     OW43256   9.537   2.512   9.164
13806SOL    HW143257   9.506   2.602   9.165
13806SOL    HW243258   9.465   2.462   9.125
13807SOL     OW43259   1.440  11.939   5.454
13807SOL    HW143260   1.391  11.904   5.380
13807SOL    HW243261   1.381  12.005   5.492
13808SOL     OW43262   3.128   9.542   9.240
13808SOL    HW143263   3.036   9.515   9.233
13808SOL    HW243264   3.129   9.600   9.316
13809SOL     OW43265   3.698  14.372   9.287
13809SOL    HW143266   3.655  14.300   9.240
13809SOL    HW243267   3.682  14.354   9.379
13810SOL     OW43268   9.335  12.178  11.788
13810SOL    HW143269   9.424  12.143  11.781
13810SOL    HW243270   9.314  12.208  11.700
13811SOL     OW43271  13.711   9.071   1.105
13811SOL    HW143272  13.623   9.075   1.067
13811SOL    HW243273  13.770   9.083   1.030
13812SOL     OW43274   6.462   8.458   7.929
13812SOL    HW143275   6.440   8.484   7.840
13812SOL    HW243276   6.453   8.539   7.981
13813SOL     OW43277   7.033   1.096   7.661
13813SOL    HW143278   7.082   1.024   7.700
13813SOL    HW243279   6.958   1.107   7.720
13814SOL     OW43280   0.547   6.465   1.264
13814SOL    HW143281   0.569   6.526   1.194
13814SOL    HW243282   0.451   6.462   1.264
13815SOL     OW43283   6.316   0.968  10.930
13815SOL    HW143284   6.344   1.009  10.848
13815SOL    HW243285   6.389   0.982  10.990
13816SOL     OW43286   2.909  11.536   8.989
13816SOL    HW143287   2.982  11.598   8.984
13816SOL    HW243288   2.877  11.529   8.899
13817SOL     OW43289   7.045   8.823   1.571
13817SOL    HW143290   6.960   8.791   1.602
13817SOL    HW243291   7.108   8.758   1.601
13818SOL     OW43292  11.500  14.386   2.927
13818SOL    HW143293  11.560  14.453   2.961
13818SOL    HW243294  11.504  14.315   2.991
13819SOL     OW43295  10.035  10.500   7.340
13819SOL    HW143296   9.979  10.575   7.319
13819SOL    HW243297  10.122  10.537   7.350
13820SOL     OW43298   6.840   3.672   7.924
13820SOL    HW143299   6.923   3.625   7.925
13820SOL    HW243300   6.854   3.744   7.861
13821SOL     OW43301   7.608  12.634  14.564
13821SOL    HW143302   7.634  12.680  14.643
13821SOL    HW243303   7.612  12.700  14.495
13822SOL     OW43304   7.192   8.975   3.687
13822SOL    HW143305   7.279   8.989   3.723
13822SOL    HW243306   7.180   8.880   3.689
13823SOL     OW43307   9.497  11.032   7.446
13823SOL    HW143308   9.437  11.055   7.516
13823SOL    HW243309   9.557  11.107   7.440
13824SOL     OW43310  12.980   5.159  10.220
13824SOL    HW143311  12.936   5.195  10.297
13824SOL    HW243312  12.920   5.177  10.147
13825SOL     OW43313   5.511   7.269   9.342
13825SOL    HW143314   5.475   7.321   9.271
13825SOL    HW243315   5.471   7.306   9.421
13826SOL     OW43316   3.650   3.499   5.257
13826SOL    HW143317   3.594   3.455   5.193
13826SOL    HW243318   3.591   3.524   5.328
13827SOL     OW43319   5.979   2.769   5.339
13827SOL    HW143320   5.965   2.852   5.294
13827SOL    HW243321   6.073   2.752   5.329
13828SOL     OW43322   5.116   7.464   5.449
13828SOL    HW143323   5.039   7.475   5.393
13828SOL    HW243324   5.183   7.520   5.409
13829SOL     OW43325   5.926   4.709   9.407
13829SOL    HW143326   5.857   4.671   9.352
13829SOL    HW243327   5.899   4.688   9.497
13830SOL     OW43328   0.357   0.605   7.121
13830SOL    HW143329   0.392   0.667   7.057
13830SOL    HW243330   0.289   0.654   7.166
13831SOL     OW43331   2.456  14.376  13.949
13831SOL    HW143332   2.524  14.344  14.007
13831SOL    HW243333   2.457  14.317  13.874
13832SOL     OW43334   8.266   4.625   7.767
13832SOL    HW143335   8.216   4.565   7.710
13832SOL    HW243336   8.354   4.626   7.729
13833SOL     OW43337   5.930   4.347   9.539
13833SOL    HW143338   5.920   4.373   9.631
13833SOL    HW243339   5.960   4.256   9.544
13834SOL     OW43340   4.306   5.661   1.656
13834SOL    HW143341   4.290   5.738   1.710
13834SOL    HW243342   4.308   5.694   1.566
13835SOL     OW43343  14.204   7.695   6.016
13835SOL    HW143344  14.110   7.706   6.002
13835SOL    HW243345  14.237   7.663   5.933
13836SOL     OW43346  13.907   3.677   0.283
13836SOL    HW143347  13.877   3.670   0.374
13836SOL    HW243348  13.995   3.639   0.284
13837SOL     OW43349   0.606  10.873  12.747
13837SOL    HW143350   0.550  10.840  12.817
13837SOL    HW243351   0.549  10.878  12.671
13838SOL     OW43352   6.690   2.282   4.104
13838SOL    HW143353   6.755   2.298   4.036
13838SOL    HW243354   6.705   2.192   4.132
13839SOL     OW43355  11.386  11.181  12.646
13839SOL    HW143356  11.296  11.177  12.681
13839SOL    HW243357  11.380  11.143  12.559
13840SOL     OW43358   5.935   1.859  13.432
13840SOL    HW143359   5.847   1.838  13.464
13840SOL    HW243360   5.949   1.950  13.460
13841SOL     OW43361   3.113   8.303  13.180
13841SOL    HW143362   3.035   8.272  13.134
13841SOL    HW243363   3.145   8.376  13.128
13842SOL     OW43364   4.285   9.431   3.879
13842SOL    HW143365   4.248   9.513   3.910
13842SOL    HW243366   4.314   9.386   3.959
13843SOL     OW43367   1.726   1.556   7.753
13843SOL    HW143368   1.703   1.583   7.842
13843SOL    HW243369   1.641   1.541   7.710
13844SOL     OW43370   9.399   5.584   2.782
13844SOL    HW143371   9.355   5.591   2.867
13844SOL    HW243372   9.334   5.543   2.725
13845SOL     OW43373   0.522   5.890   7.043
13845SOL    HW143374   0.449   5.829   7.032
13845SOL    HW243375   0.547   5.913   6.953
13846SOL     OW43376   4.269   4.646   0.059
13846SOL    HW143377   4.223   4.691  14.862
13846SOL    HW243378   4.200   4.616   0.118
13847SOL     OW43379   8.184   2.807   5.239
13847SOL    HW143380   8.151   2.860   5.166
13847SOL    HW243381   8.199   2.869   5.310
13848SOL     OW43382  11.720  14.800   0.778
13848SOL    HW143383  11.796  14.748   0.804
13848SOL    HW243384  11.745  14.840   0.696
13849SOL     OW43385  12.813  14.034   7.249
13849SOL    HW143386  12.800  13.959   7.307
13849SOL    HW243387  12.769  14.010   7.167
13850SOL     OW43388   8.912   9.805   6.703
13850SOL    HW143389   8.884   9.854   6.625
13850SOL    HW243390   8.940   9.873   6.764
13851SOL     OW43391  13.322   3.303   2.913
13851SOL    HW143392  13.271   3.310   2.832
13851SOL    HW243393  13.401   3.355   2.896
13852SOL     OW43394   1.514   7.010   2.374
13852SOL    HW143395   1.582   7.062   2.332
13852SOL    HW243396   1.510   7.044   2.464
13853SOL     OW43397  11.624   6.977  12.961
13853SOL    HW143398  11.611   7.063  12.921
13853SOL    HW243399  11.691   6.935  12.907
13854SOL     OW43400   1.551   7.396  12.379
13854SOL    HW143401   1.577   7.380  12.288
13854SOL    HW243402   1.459   7.422  12.374
13855SOL     OW43403   0.558   9.098   1.823
13855SOL    HW143404   0.587   9.030   1.885
13855SOL    HW243405   0.562   9.179   1.873
13856SOL     OW43406   9.875  10.135  10.089
13856SOL    HW143407   9.909  10.202  10.029
13856SOL    HW243408   9.891  10.170  10.176
13857SOL     OW43409   7.242  13.199   6.959
13857SOL    HW143410   7.170  13.172   7.016
13857SOL    HW243411   7.198  13.229   6.879
13858SOL     OW43412   5.600   6.409   0.268
13858SOL    HW143413   5.517   6.455   0.252
13858SOL    HW243414   5.633   6.391   0.180
13859SOL     OW43415   5.886  10.987  10.771
13859SOL    HW143416   5.857  10.897  10.759
13859SOL    HW243417   5.901  11.020  10.682
13860SOL     OW43418   4.276  13.575   4.193
13860SOL    HW143419   4.360  13.618   4.208
13860SOL    HW243420   4.289  13.528   4.110
13861SOL     OW43421  14.653  12.511  12.307
13861SOL    HW143422  14.747  12.498  12.313
13861SOL    HW243423  14.625  12.527  12.397
13862SOL     OW43424   5.262   9.971   4.668
13862SOL    HW143425   5.208  10.048   4.686
13862SOL    HW243426   5.352  10.002   4.678
13863SOL     OW43427   6.809   2.350   0.930
13863SOL    HW143428   6.819   2.445   0.920
13863SOL    HW243429   6.897   2.315   0.916
13864SOL     OW43430  12.733   9.697   7.906
13864SOL    HW143431  12.739   9.775   7.850
13864SOL    HW243432  12.640   9.693   7.930
13865SOL     OW43433   1.046   5.654   9.850
13865SOL    HW143434   1.117   5.700   9.806
13865SOL    HW243435   0.990   5.724   9.884
13866SOL     OW43436   5.138  12.866   5.761
13866SOL    HW143437   5.153  12.821   5.678
13866SOL    HW243438   5.226  12.889   5.792
13867SOL     OW43439   7.457   5.152   9.233
13867SOL    HW143440   7.453   5.196   9.148
13867SOL    HW243441   7.449   5.222   9.297
13868SOL     OW43442  14.407   0.818  12.406
13868SOL    HW143443  14.485   0.834  12.459
13868SOL    HW243444  14.429   0.740  12.355
13869SOL     OW43445   8.396   9.385   4.667
13869SOL    HW143446   8.363   9.465   4.708
13869SOL    HW243447   8.335   9.368   4.596
13870SOL     OW43448  12.912  13.677  12.103
13870SOL    HW143449  12.890  13.692  12.195
13870SOL    HW243450  13.003  13.649  12.103
13871SOL     OW43451  11.593   8.928   6.186
13871SOL    HW143452  11.668   8.927   6.245
13871SOL    HW243453  11.524   8.972   6.235
13872SOL     OW43454  11.963   3.838   6.878
13872SOL    HW143455  12.021   3.781   6.829
13872SOL    HW243456  12.013   3.862   6.956
13873SOL     OW43457   3.672   1.895  11.536
13873SOL    HW143458   3.605   1.910  11.603
13873SOL    HW243459   3.624   1.896  11.454
13874SOL     OW43460   0.186   0.799   6.580
13874SOL    HW143461   0.119   0.795   6.648
13874SOL    HW243462   0.152   0.746   6.508
13875SOL     OW43463  10.811   4.125   9.261
13875SOL    HW143464  10.791   4.095   9.172
13875SOL    HW243465  10.732   4.107   9.311
13876SOL     OW43466   9.965  13.868   6.220
13876SOL    HW143467   9.918  13.795   6.179
13876SOL    HW243468   9.922  13.881   6.304
13877SOL     OW43469  13.366  12.689  13.696
13877SOL    HW143470  13.349  12.695  13.790
13877SOL    HW243471  13.369  12.595  13.678
13878SOL     OW43472   2.374   2.367  10.842
13878SOL    HW143473   2.459   2.371  10.798
13878SOL    HW243474   2.315   2.415  10.783
13879SOL     OW43475   0.447   6.861  12.633
13879SOL    HW143476   0.526   6.816  12.603
13879SOL    HW243477   0.383   6.847  12.564
13880SOL     OW43478   3.662  13.394   4.362
13880SOL    HW143479   3.682  13.304   4.334
13880SOL    HW243480   3.746  13.440   4.356
13881SOL     OW43481   0.568  13.819   4.821
13881SOL    HW143482   0.623  13.755   4.776
13881SOL    HW243483   0.482  13.778   4.825
13882SOL     OW43484   6.223  12.616  12.334
13882SOL    HW143485   6.302  12.588  12.382
13882SOL    HW243486   6.194  12.695  12.380
13883SOL     OW43487  13.119  13.631   1.096
13883SOL    HW143488  13.203  13.661   1.130
13883SOL    HW243489  13.108  13.679   1.014
13884SOL     OW43490  10.971   6.222   0.030
13884SOL    HW143491  10.893   6.270   0.004
13884SOL    HW243492  10.959   6.203   0.123
13885SOL     OW43493  13.666   8.989  14.084
13885SOL    HW143494  13.718   9.042  14.145
13885SOL    HW243495  13.686   9.025  13.998
13886SOL     OW43496   4.192   0.072   4.838
13886SOL    HW143497   4.135   0.134   4.794
13886SOL    HW243498   4.135   0.027   4.900
13887SOL     OW43499   0.341  12.407   5.915
13887SOL    HW143500   0.337  12.418   6.010
13887SOL    HW243501   0.350  12.312   5.903
13888SOL     OW43502   3.485  13.836   0.463
13888SOL    HW143503   3.561  13.792   0.500
13888SOL    HW243504   3.508  13.852   0.371
13889SOL     OW43505  11.142  12.917   0.161
13889SOL    HW143506  11.059  12.872   0.178
13889SOL    HW243507  11.199  12.849   0.125
13890SOL     OW43508   3.236   4.838  14.384
13890SOL    HW143509   3.297   4.911  14.392
13890SOL    HW243510   3.283   4.763  14.421
13891SOL     OW43511  10.710  11.281   2.985
13891SOL    HW143512  10.702  11.349   2.919
13891SOL    HW243513  10.661  11.314   3.060
13892SOL     OW43514   8.369   1.766  14.139
13892SOL    HW143515   8.353   1.852  14.179
13892SOL    HW243516   8.421   1.786  14.061
13893SOL     OW43517  11.498   2.816  10.560
13893SOL    HW143518  11.540   2.859  10.485
13893SOL    HW243519  11.455   2.739  10.522
13894SOL     OW43520   3.771  12.106   3.518
13894SOL    HW143521   3.688  12.076   3.554
13894SOL    HW243522   3.778  12.062   3.434
13895SOL     OW43523   9.235   2.697   3.469
13895SOL    HW143524   9.148   2.710   3.430
13895SOL    HW243525   9.272   2.623   3.420
13896SOL     OW43526  13.940   7.656  11.766
13896SOL    HW143527  14.007   7.719  11.741
13896SOL    HW243528  13.916   7.681  11.856
13897SOL     OW43529   5.499  14.099   3.591
13897SOL    HW143530   5.409  14.124   3.569
13897SOL    HW243531   5.518  14.146   3.672
13898SOL     OW43532  13.404   3.495   8.988
13898SOL    HW143533  13.389   3.512   9.081
13898SOL    HW243534  13.318   3.505   8.948
13899SOL     OW43535   2.137   4.948  10.787
13899SOL    HW143536   2.232   4.958  10.799
13899SOL    HW243537   2.103   5.037  10.797
13900SOL     OW43538  10.967   2.105   5.825
13900SOL    HW143539  10.984   2.197   5.844
13900SOL    HW243540  11.047   2.074   5.781
13901SOL     OW43541  14.208  11.849   8.699
13901SOL    HW143542  14.120  11.860   8.734
13901SOL    HW243543  14.201  11.873   8.607
13902SOL     OW43544   9.877  11.078  10.181
13902SOL    HW143545   9.955  11.060  10.128
13902SOL    HW243546   9.902  11.052  10.270
13903SOL     OW43547   5.115  12.445  10.560
13903SOL    HW143548   5.064  12.368  10.585
13903SOL    HW243549   5.101  12.454  10.466
13904SOL     OW43550  14.011  11.715   4.286
13904SOL    HW143551  13.950  11.676   4.222
13904SOL    HW243552  14.033  11.644   4.345
13905SOL     OW43553   0.489  13.674  11.190
13905SOL    HW143554   0.399  13.641  11.188
13905SOL    HW243555   0.488  13.751  11.133
13906SOL     OW43556  13.289   8.196   6.654
13906SOL    HW143557  13.286   8.172   6.747
13906SOL    HW243558  13.325   8.285   6.653
13907SOL     OW43559   5.940  11.007   1.473
13907SOL    HW143560   5.940  11.083   1.414
13907SOL    HW243561   6.016  11.021   1.530
13908SOL     OW43562  13.199   8.526   5.302
13908SOL    HW143563  13.234   8.605   5.343
13908SOL    HW243564  13.252   8.514   5.224
13909SOL     OW43565  11.142   5.463   6.702
13909SOL    HW143566  11.210   5.422   6.649
13909SOL    HW243567  11.123   5.546   6.658
13910SOL     OW43568  10.004   7.505   0.077
13910SOL    HW143569  10.012   7.463   0.163
13910SOL    HW243570  10.046   7.590   0.088
13911SOL     OW43571   9.988   2.450   5.321
13911SOL    HW143572   9.950   2.363   5.330
13911SOL    HW243573   9.969   2.476   5.231
13912SOL     OW43574   2.219   8.735   7.762
13912SOL    HW143575   2.253   8.669   7.702
13912SOL    HW243576   2.133   8.758   7.727
13913SOL     OW43577   3.624   3.170   7.429
13913SOL    HW143578   3.624   3.170   7.334
13913SOL    HW243579   3.535   3.196   7.453
13914SOL     OW43580   7.990   7.686   4.922
13914SOL    HW143581   8.017   7.671   5.013
13914SOL    HW243582   7.929   7.760   4.926
13915SOL     OW43583  13.003   5.771  14.318
13915SOL    HW143584  13.074   5.777  14.254
13915SOL    HW243585  12.924   5.792  14.267
13916SOL     OW43586   4.150  13.385  12.367
13916SOL    HW143587   4.159  13.323  12.295
13916SOL    HW243588   4.197  13.344  12.440
13917SOL     OW43589   1.721  14.758   8.448
13917SOL    HW143590   1.765  14.842   8.447
13917SOL    HW243591   1.718  14.730   8.357
13918SOL     OW43592   0.241  11.923  13.962
13918SOL    HW143593   0.185  11.856  13.923
13918SOL    HW243594   0.319  11.875  13.991
13919SOL     OW43595   9.622   8.211   4.455
13919SOL    HW143596   9.650   8.302   4.465
13919SOL    HW243597   9.558   8.197   4.526
13920SOL     OW43598  14.450  10.410   3.681
13920SOL    HW143599  14.515  10.374   3.742
13920SOL    HW243600  14.452  10.349   3.607
13921SOL     OW43601   6.090   9.047   4.828
13921SOL    HW143602   6.086   9.140   4.803
13921SOL    HW243603   6.074   9.000   4.746
13922SOL     OW43604   8.663   0.448   7.676
13922SOL    HW143605   8.655   0.446   7.771
13922SOL    HW243606   8.738   0.392   7.657
13923SOL     OW43607   2.152   8.676  13.510
13923SOL    HW143608   2.228   8.679  13.452
13923SOL    HW243609   2.129   8.583  13.515
13924SOL     OW43610   3.019   3.832   3.488
13924SOL    HW143611   3.014   3.754   3.543
13924SOL    HW243612   3.110   3.835   3.458
13925SOL     OW43613   6.695   3.442   4.465
13925SOL    HW143614   6.770   3.442   4.525
13925SOL    HW243615   6.624   3.481   4.515
13926SOL     OW43616  14.598  12.033  12.012
13926SOL    HW143617  14.513  11.990  12.004
13926SOL    HW243618  14.662  11.964  11.997
13927SOL     OW43619   0.307  11.852   5.762
13927SOL    HW143620   0.391  11.826   5.726
13927SOL    HW243621   0.256  11.880   5.686
13928SOL     OW43622   1.243   2.698   6.907
13928SOL    HW143623   1.232   2.782   6.952
13928SOL    HW243624   1.252   2.722   6.815
13929SOL     OW43625   2.773   2.005  13.570
13929SOL    HW143626   2.717   1.930  13.551
13929SOL    HW243627   2.718   2.081  13.549
13930SOL     OW43628  14.446   1.221   9.739
13930SOL    HW143629  14.526   1.272   9.754
13930SOL    HW243630  14.461   1.177   9.656
13931SOL     OW43631  13.784   0.113   7.592
13931SOL    HW143632  13.744   0.083   7.674
13931SOL    HW243633  13.836   0.189   7.618
13932SOL     OW43634  10.991  12.819   0.574
13932SOL    HW143635  11.073  12.771   0.583
13932SOL    HW243636  10.937  12.787   0.647
13933SOL     OW43637   7.961   4.921  12.782
13933SOL    HW143638   8.009   4.952  12.858
13933SOL    HW243639   7.965   4.825  12.788
13934SOL     OW43640   0.736  10.245   1.583
13934SOL    HW143641   0.714  10.302   1.510
13934SOL    HW243642   0.652  10.224   1.623
13935SOL     OW43643   8.793   6.632   3.556
13935SOL    HW143644   8.737   6.708   3.540
13935SOL    HW243645   8.856   6.634   3.484
13936SOL     OW43646  13.856   7.672   1.339
13936SOL    HW143647  13.765   7.695   1.353
13936SOL    HW243648  13.905   7.728   1.399
13937SOL     OW43649  12.034  14.391  14.560
13937SOL    HW143650  12.000  14.464  14.509
13937SOL    HW243651  11.957  14.352  14.601
13938SOL     OW43652   4.504   2.287   6.213
13938SOL    HW143653   4.569   2.247   6.271
13938SOL    HW243654   4.468   2.360   6.264
13939SOL     OW43655   6.443   1.859  10.320
13939SOL    HW143656   6.484   1.819  10.396
13939SOL    HW243657   6.418   1.947  10.350
13940SOL     OW43658  10.712  12.113   3.874
13940SOL    HW143659  10.634  12.142   3.828
13940SOL    HW243660  10.697  12.137   3.965
13941SOL     OW43661   5.286  11.235   2.850
13941SOL    HW143662   5.325  11.304   2.904
13941SOL    HW243663   5.359  11.200   2.800
13942SOL     OW43664   3.841   4.408   5.100
13942SOL    HW143665   3.821   4.326   5.055
13942SOL    HW243666   3.884   4.381   5.181
13943SOL     OW43667   0.309   1.054   8.385
13943SOL    HW143668   0.401   1.078   8.399
13943SOL    HW243669   0.261   1.104   8.451
13944SOL     OW43670  10.610   1.566  11.626
13944SOL    HW143671  10.547   1.619  11.577
13944SOL    HW243672  10.563   1.538  11.705
13945SOL     OW43673  12.479   7.787   3.793
13945SOL    HW143674  12.527   7.789   3.876
13945SOL    HW243675  12.475   7.879   3.765
13946SOL     OW43676   4.519   3.373   0.250
13946SOL    HW143677   4.456   3.442   0.273
13946SOL    HW243678   4.502   3.304   0.314
13947SOL     OW43679  10.170  13.643  14.706
13947SOL    HW143680  10.128  13.682  14.782
13947SOL    HW243681  10.101  13.590  14.665
13948SOL     OW43682   3.893   8.702   1.495
13948SOL    HW143683   3.799   8.700   1.476
13948SOL    HW243684   3.935   8.690   1.410
13949SOL     OW43685   2.525   9.906   6.688
13949SOL    HW143686   2.453   9.899   6.625
13949SOL    HW243687   2.483   9.939   6.768
13950SOL     OW43688   8.708   9.630   6.775
13950SOL    HW143689   8.782   9.689   6.759
13950SOL    HW243690   8.630   9.685   6.761
13951SOL     OW43691   5.287  14.302   2.772
13951SOL    HW143692   5.205  14.264   2.804
13951SOL    HW243693   5.265  14.392   2.749
13952SOL     OW43694   7.488  13.615   0.540
13952SOL    HW143695   7.498  13.710   0.528
13952SOL    HW243696   7.539  13.596   0.619
13953SOL     OW43697  14.538  13.957   5.790
13953SOL    HW143698  14.592  13.951   5.869
13953SOL    HW243699  14.538  14.050   5.768
13954SOL     OW43700   8.202   3.515  11.571
13954SOL    HW143701   8.163   3.600  11.549
13954SOL    HW243702   8.132   3.468  11.616
13955SOL     OW43703   2.674   1.072   7.552
13955SOL    HW143704   2.619   1.094   7.627
13955SOL    HW243705   2.760   1.110   7.573
13956SOL     OW43706   1.993   3.340  12.352
13956SOL    HW143707   1.984   3.312  12.261
13956SOL    HW243708   2.063   3.285  12.388
13957SOL     OW43709   7.108  12.241   0.458
13957SOL    HW143710   7.136  12.308   0.395
13957SOL    HW243711   7.034  12.280   0.504
13958SOL     OW43712   6.828   8.736   4.383
13958SOL    HW143713   6.791   8.670   4.324
13958SOL    HW243714   6.839   8.691   4.466
13959SOL     OW43715  13.955  11.871  13.490
13959SOL    HW143716  14.000  11.906  13.413
13959SOL    HW243717  13.938  11.779  13.469
13960SOL     OW43718   9.359   2.355  10.858
13960SOL    HW143719   9.334   2.408  10.934
13960SOL    HW243720   9.323   2.269  10.876
13961SOL     OW43721   1.571   2.559   9.649
13961SOL    HW143722   1.565   2.532   9.557
13961SOL    HW243723   1.584   2.477   9.696
13962SOL     OW43724   6.865   7.025   2.375
13962SOL    HW143725   6.960   7.010   2.371
13962SOL    HW243726   6.843   7.011   2.467
13963SOL     OW43727   1.158   7.532  13.945
13963SOL    HW143728   1.087   7.590  13.973
13963SOL    HW243729   1.113   7.454  13.912
13964SOL     OW43730  12.080  12.311   6.052
13964SOL    HW143731  12.131  12.379   6.009
13964SOL    HW243732  12.042  12.260   5.980
13965SOL     OW43733   5.888  12.890   6.697
13965SOL    HW143734   5.963  12.903   6.640
13965SOL    HW243735   5.863  12.979   6.723
13966SOL     OW43736  12.083  11.712   7.768
13966SOL    HW143737  11.993  11.709   7.801
13966SOL    HW243738  12.115  11.799   7.793
13967SOL     OW43739   0.611  10.852   9.898
13967SOL    HW143740   0.573  10.875   9.814
13967SOL    HW243741   0.538  10.861   9.960
13968SOL     OW43742   5.479   3.422   8.308
13968SOL    HW143743   5.403   3.450   8.358
13968SOL    HW243744   5.553   3.436   8.367
13969SOL     OW43745   7.128  13.232  14.000
13969SOL    HW143746   7.076  13.153  14.013
13969SOL    HW243747   7.080  13.283  13.935
13970SOL     OW43748  12.585   2.183  11.488
13970SOL    HW143749  12.584   2.132  11.407
13970SOL    HW243750  12.636   2.260  11.468
13971SOL     OW43751   1.524  14.644   6.415
13971SOL    HW143752   1.544  14.626   6.507
13971SOL    HW243753   1.589  14.592   6.366
13972SOL     OW43754   9.193   8.645   5.155
13972SOL    HW143755   9.142   8.696   5.218
13972SOL    HW243756   9.284   8.663   5.178
13973SOL     OW43757   4.904   0.534   8.757
13973SOL    HW143758   4.902   0.617   8.711
13973SOL    HW243759   4.956   0.476   8.701
13974SOL     OW43760   9.462   6.657  12.807
13974SOL    HW143761   9.480   6.614  12.723
13974SOL    HW243762   9.467   6.586  12.871
13975SOL     OW43763  11.974  11.715   8.793
13975SOL    HW143764  12.037  11.652   8.760
13975SOL    HW243765  12.020  11.799   8.793
13976SOL     OW43766   8.360   3.173  11.072
13976SOL    HW143767   8.334   3.166  10.981
13976SOL    HW243768   8.319   3.097  11.115
13977SOL     OW43769  10.456  14.293   9.739
13977SOL    HW143770  10.418  14.224   9.793
13977SOL    HW243771  10.531  14.251   9.696
13978SOL     OW43772   8.650  12.544   7.371
13978SOL    HW143773   8.690  12.628   7.351
13978SOL    HW243774   8.712  12.479   7.336
13979SOL     OW43775   8.488   5.771   7.502
13979SOL    HW143776   8.513   5.849   7.551
13979SOL    HW243777   8.442   5.716   7.566
13980SOL     OW43778   8.055  11.354  10.033
13980SOL    HW143779   8.089  11.397   9.955
13980SOL    HW243780   8.038  11.426  10.095
13981SOL     OW43781   0.510   0.277   0.262
13981SOL    HW143782   0.440   0.212   0.260
13981SOL    HW243783   0.590   0.226   0.246
13982SOL     OW43784  10.360  11.793   3.086
13982SOL    HW143785  10.386  11.844   3.009
13982SOL    HW243786  10.266  11.779   3.076
13983SOL     OW43787   8.349   8.932   3.517
13983SOL    HW143788   8.390   8.880   3.448
13983SOL    HW243789   8.255   8.921   3.503
13984SOL     OW43790   6.838   7.315   3.528
13984SOL    HW143791   6.929   7.299   3.501
13984SOL    HW243792   6.799   7.227   3.531
13985SOL     OW43793   4.711   5.922   8.722
13985SOL    HW143794   4.777   5.904   8.656
13985SOL    HW243795   4.634   5.950   8.672
13986SOL     OW43796  11.464  12.541   6.329
13986SOL    HW143797  11.501  12.509   6.247
13986SOL    HW243798  11.533  12.596   6.367
13987SOL     OW43799  11.523   9.131  10.460
13987SOL    HW143800  11.431   9.158  10.465
13987SOL    HW243801  11.566   9.204  10.414
13988SOL     OW43802   2.395   1.497  14.244
13988SOL    HW143803   2.419   1.445  14.321
13988SOL    HW243804   2.387   1.586  14.278
13989SOL     OW43805   5.689  14.837  10.187
13989SOL    HW143806   5.727   0.047  10.215
13989SOL    HW243807   5.753  14.771  10.215
13990SOL     OW43808   4.416   5.839   5.969
13990SOL    HW143809   4.492   5.870   6.019
13990SOL    HW243810   4.426   5.744   5.965
13991SOL     OW43811   3.418   7.080  11.071
13991SOL    HW143812   3.337   7.130  11.088
13991SOL    HW243813   3.412   7.056  10.979
13992SOL     OW43814  11.150   5.748  12.946
13992SOL    HW143815  11.136   5.661  12.908
13992SOL    HW243816  11.127   5.808  12.875
13993SOL     OW43817   1.423  12.610  12.362
13993SOL    HW143818   1.455  12.520  12.354
13993SOL    HW243819   1.470  12.645  12.438
13994SOL     OW43820   7.588   1.473   1.139
13994SOL    HW143821   7.506   1.427   1.156
13994SOL    HW243822   7.635   1.471   1.223
13995SOL     OW43823   3.471   3.392   4.342
13995SOL    HW143824   3.494   3.460   4.279
13995SOL    HW243825   3.383   3.414   4.371
13996SOL     OW43826  10.211   9.035  11.355
13996SOL    HW143827  10.251   8.973  11.416
13996SOL    HW243828  10.233   9.000  11.268
13997SOL     OW43829   7.250  12.014   8.351
13997SOL    HW143830   7.260  12.078   8.422
13997SOL    HW243831   7.202  11.941   8.390
13998SOL     OW43832   8.871   4.707  10.016
13998SOL    HW143833   8.824   4.772   9.965
13998SOL    HW243834   8.963   4.731  10.008
13999SOL     OW43835   1.029   5.274   4.026
13999SOL    HW143836   0.939   5.266   3.994
13999SOL    HW243837   1.038   5.203   4.089
14000SOL     OW43838   1.220   8.228   7.403
14000SOL    HW143839   1.251   8.184   7.482
14000SOL    HW243840   1.127   8.208   7.399
14001SOL     OW43841  13.407   8.890   4.895
14001SOL    HW143842  13.472   8.900   4.964
14001SOL    HW243843  13.367   8.804   4.911
14002SOL     OW43844   2.519   3.758  13.770
14002SOL    HW143845   2.488   3.668  13.767
14002SOL    HW243846   2.575   3.767  13.693
14003SOL     OW43847   9.299   5.864   9.299
14003SOL    HW143848   9.335   5.828   9.381
14003SOL    HW243849   9.246   5.938   9.327
14004SOL     OW43850   7.106   8.682  10.240
14004SOL    HW143851   7.189   8.710  10.201
14004SOL    HW243852   7.041   8.739  10.200
14005SOL     OW43853  14.582  13.539   0.950
14005SOL    HW143854  14.628  13.526   1.033
14005SOL    HW243855  14.625  13.615   0.911
14006SOL     OW43856  10.698   0.678   2.847
14006SOL    HW143857  10.785   0.665   2.809
14006SOL    HW243858  10.672   0.591   2.878
14007SOL     OW43859  10.729   2.530   9.374
14007SOL    HW143860  10.675   2.536   9.453
14007SOL    HW243861  10.667   2.544   9.302
14008SOL     OW43862   5.457   4.056   0.049
14008SOL    HW143863   5.503   3.982   0.011
14008SOL    HW243864   5.498   4.068   0.135
14009SOL     OW43865  14.072   4.622  12.643
14009SOL    HW143866  14.012   4.634  12.570
14009SOL    HW243867  14.141   4.565  12.608
14010SOL     OW43868   9.119   1.464   4.044
14010SOL    HW143869   9.120   1.541   3.987
14010SOL    HW243870   9.187   1.481   4.109
14011SOL     OW43871   7.202   4.187   6.525
14011SOL    HW143872   7.176   4.105   6.481
14011SOL    HW243873   7.164   4.180   6.612
14012SOL     OW43874   7.184  10.013   8.939
14012SOL    HW143875   7.114  10.020   9.003
14012SOL    HW243876   7.229  10.097   8.943
14013SOL     OW43877  12.529   7.576   4.540
14013SOL    HW143878  12.439   7.554   4.515
14013SOL    HW243879  12.519   7.646   4.605
14014SOL     OW43880   8.581  12.326  10.242
14014SOL    HW143881   8.669  12.351  10.271
14014SOL    HW243882   8.523  12.352  10.315
14015SOL     OW43883  10.440  12.740   4.840
14015SOL    HW143884  10.475  12.734   4.929
14015SOL    HW243885  10.392  12.823   4.839
14016SOL     OW43886   1.324   8.770  10.779
14016SOL    HW143887   1.417   8.789  10.786
14016SOL    HW243888   1.309   8.697  10.841
14017SOL     OW43889  10.301   8.164  11.181
14017SOL    HW143890  10.317   8.240  11.237
14017SOL    HW243891  10.367   8.171  11.113
14018SOL     OW43892  14.616   1.733   9.738
14018SOL    HW143893  14.569   1.805   9.695
14018SOL    HW243894  14.707   1.762   9.739
14019SOL     OW43895   3.203   2.909   9.387
14019SOL    HW143896   3.244   2.902   9.301
14019SOL    HW243897   3.121   2.956   9.370
14020SOL     OW43898  13.066  10.422   0.479
14020SOL    HW143899  13.001  10.491   0.469
14020SOL    HW243900  13.104  10.412   0.392
14021SOL     OW43901   0.870  14.637  13.581
14021SOL    HW143902   0.914  14.622  13.664
14021SOL    HW243903   0.823  14.720  13.593
14022SOL     OW43904  12.004   5.109   7.271
14022SOL    HW143905  12.030   5.170   7.202
14022SOL    HW243906  11.980   5.029   7.225
14023SOL     OW43907   9.377   9.377  13.374
14023SOL    HW143908   9.352   9.325  13.450
14023SOL    HW243909   9.421   9.454  13.412
14024SOL     OW43910   4.029   6.680   2.506
14024SOL    HW143911   4.040   6.727   2.589
14024SOL    HW243912   3.944   6.708   2.474
14025SOL     OW43913   3.216  10.299  14.260
14025SOL    HW143914   3.281  10.246  14.214
14025SOL    HW243915   3.268  10.355  14.318
14026SOL     OW43916   4.702   6.754   1.286
14026SOL    HW143917   4.681   6.815   1.216
14026SOL    HW243918   4.765   6.801   1.341
14027SOL     OW43919  10.989   4.018   6.502
14027SOL    HW143920  10.928   4.025   6.429
14027SOL    HW243921  10.953   4.074   6.570
14028SOL     OW43922   8.437   9.883  11.982
14028SOL    HW143923   8.377   9.827  12.031
14028SOL    HW243924   8.500   9.823  11.943
14029SOL     OW43925   6.072   4.456  13.043
14029SOL    HW143926   6.139   4.520  13.020
14029SOL    HW243927   6.005   4.506  13.089
14030SOL     OW43928  12.950  13.614   9.767
14030SOL    HW143929  12.901  13.588   9.845
14030SOL    HW243930  13.041  13.620   9.795
14031SOL     OW43931   3.922  14.006  10.117
14031SOL    HW143932   3.851  14.018  10.181
14031SOL    HW243933   3.990  14.067  10.145
14032SOL     OW43934  11.567   4.290   4.518
14032SOL    HW143935  11.622   4.216   4.542
14032SOL    HW243936  11.537   4.327   4.601
14033SOL     OW43937   9.687   7.786   9.906
14033SOL    HW143938   9.734   7.799   9.823
14033SOL    HW243939   9.657   7.873   9.931
14034SOL     OW43940  13.253   1.359   4.878
14034SOL    HW143941  13.226   1.391   4.793
14034SOL    HW243942  13.187   1.294   4.902
14035SOL     OW43943   6.552   6.249   0.226
14035SOL    HW143944   6.464   6.247   0.189
14035SOL    HW243945   6.586   6.336   0.205
14036SOL     OW43946  14.242  12.196   7.510
14036SOL    HW143947  14.263  12.107   7.482
14036SOL    HW243948  14.152  12.191   7.541
14037SOL     OW43949   6.193   5.750   2.527
14037SOL    HW143950   6.108   5.757   2.482
14037SOL    HW243951   6.233   5.836   2.515
14038SOL     OW43952   4.999   1.020  11.380
14038SOL    HW143953   4.989   0.977  11.295
14038SOL    HW243954   4.911   1.026  11.415
14039SOL     OW43955   0.241   5.363   0.744
14039SOL    HW143956   0.308   5.358   0.812
14039SOL    HW243957   0.187   5.285   0.757
14040SOL     OW43958   2.438   7.723  11.618
14040SOL    HW143959   2.359   7.746  11.667
14040SOL    HW243960   2.452   7.630  11.637
14041SOL     OW43961  12.588  10.046   0.930
14041SOL    HW143962  12.544  10.123   0.965
14041SOL    HW243963  12.674  10.045   0.972
14042SOL     OW43964  12.529   0.258   7.489
14042SOL    HW143965  12.475   0.311   7.548
14042SOL    HW243966  12.506   0.168   7.510
14043SOL     OW43967  11.052   7.766  10.472
14043SOL    HW143968  11.075   7.831  10.406
14043SOL    HW243969  10.958   7.751  10.460
14044SOL     OW43970   8.758  13.276   3.242
14044SOL    HW143971   8.824  13.242   3.303
14044SOL    HW243972   8.718  13.349   3.289
14045SOL     OW43973  12.978   9.002   4.687
14045SOL    HW143974  12.983   8.949   4.608
14045SOL    HW243975  12.958   8.940   4.757
14046SOL     OW43976  10.774  10.857   9.054
14046SOL    HW143977  10.710  10.795   9.088
14046SOL    HW243978  10.769  10.933   9.113
14047SOL     OW43979   7.722  12.640  13.646
14047SOL    HW143980   7.642  12.599  13.615
14047SOL    HW243981   7.697  12.682  13.728
14048SOL     OW43982   8.168  12.994   5.327
14048SOL    HW143983   8.182  13.062   5.392
14048SOL    HW243984   8.239  12.932   5.341
14049SOL     OW43985  10.120   1.462  10.528
14049SOL    HW143986  10.081   1.549  10.532
14049SOL    HW243987  10.133   1.437  10.620
14050SOL     OW43988   2.418  14.471   9.286
14050SOL    HW143989   2.366  14.540   9.242
14050SOL    HW243990   2.363  14.443   9.359
14051SOL     OW43991  10.666   6.810   0.412
14051SOL    HW143992  10.725   6.782   0.343
14051SOL    HW243993  10.708   6.888   0.449
14052SOL     OW43994   2.527   1.901  14.767
14052SOL    HW143995   2.546   1.884  14.860
14052SOL    HW243996   2.518   1.996  14.761
14053SOL     OW43997  10.941   3.714   7.023
14053SOL    HW143998  10.878   3.750   7.085
14053SOL    HW243999  10.992   3.790   6.994
14054SOL     OW44000   8.428  13.389   7.274
14054SOL    HW144001   8.351  13.428   7.315
14054SOL    HW244002   8.487  13.462   7.259
14055SOL     OW44003   8.280  13.825  13.541
14055SOL    HW144004   8.359  13.880  13.550
14055SOL    HW244005   8.208  13.888  13.539
14056SOL     OW44006  12.522   6.515   2.462
14056SOL    HW144007  12.482   6.529   2.548
14056SOL    HW244008  12.617   6.518   2.479
14057SOL     OW44009   5.071   9.564   5.872
14057SOL    HW144010   5.080   9.659   5.861
14057SOL    HW244011   5.137   9.527   5.814
14058SOL     OW44012  13.735   9.480   2.928
14058SOL    HW144013  13.655   9.471   2.980
14058SOL    HW244014  13.754   9.574   2.931
14059SOL     OW44015  10.234  11.726   9.934
14059SOL    HW144016  10.280  11.668   9.995
14059SOL    HW244017  10.217  11.672   9.857
14060SOL     OW44018  12.874   9.522   0.731
14060SOL    HW144019  12.785   9.527   0.765
14060SOL    HW244020  12.864   9.481   0.645
14061SOL     OW44021  11.702   6.041  13.748
14061SOL    HW144022  11.712   6.064  13.840
14061SOL    HW244023  11.713   5.946  13.744
14062SOL     OW44024   4.543   3.075   1.443
14062SOL    HW144025   4.582   3.120   1.517
14062SOL    HW244026   4.477   3.136   1.409
14063SOL     OW44027   2.905  12.285   5.877
14063SOL    HW144028   2.857  12.202   5.870
14063SOL    HW244029   2.963  12.286   5.801
14064SOL     OW44030  14.515   5.306  11.133
14064SOL    HW144031  14.605   5.311  11.100
14064SOL    HW244032  14.485   5.397  11.132
14065SOL     OW44033   8.169   2.480  10.022
14065SOL    HW144034   8.177   2.548   9.955
14065SOL    HW244035   8.257   2.470  10.057
14066SOL     OW44036  11.159   1.334   9.349
14066SOL    HW144037  11.141   1.249   9.392
14066SOL    HW244038  11.122   1.324   9.262
14067SOL     OW44039   4.412   1.726   3.088
14067SOL    HW144040   4.493   1.753   3.130
14067SOL    HW244041   4.391   1.797   3.027
14068SOL     OW44042   4.673  10.287  11.251
14068SOL    HW144043   4.689  10.217  11.188
14068SOL    HW244044   4.744  10.350  11.237
14069SOL     OW44045   3.906   2.985   3.718
14069SOL    HW144046   3.852   2.963   3.642
14069SOL    HW244047   3.854   2.956   3.794
14070SOL     OW44048   8.281   0.492   4.973
14070SOL    HW144049   8.317   0.418   4.924
14070SOL    HW244050   8.287   0.466   5.065
14071SOL     OW44051   5.635   9.307   5.891
14071SOL    HW144052   5.598   9.232   5.937
14071SOL    HW244053   5.719   9.324   5.935
14072SOL     OW44054   2.095   0.556  13.284
14072SOL    HW144055   2.120   0.476  13.238
14072SOL    HW244056   2.000   0.551  13.291
14073SOL     OW44057   2.611   7.979  12.508
14073SOL    HW144058   2.538   7.980  12.445
14073SOL    HW244059   2.578   8.028  12.583
14074SOL     OW44060   9.656   4.875  11.700
14074SOL    HW144061   9.615   4.886  11.614
14074SOL    HW244062   9.698   4.958  11.718
14075SOL     OW44063  11.471  12.303  13.755
14075SOL    HW144064  11.494  12.260  13.673
14075SOL    HW244065  11.465  12.232  13.819
14076SOL     OW44066  11.972  11.395   7.366
14076SOL    HW144067  11.968  11.411   7.272
14076SOL    HW244068  12.006  11.477   7.402
14077SOL     OW44069   2.152   7.871   5.409
14077SOL    HW144070   2.119   7.925   5.480
14077SOL    HW244071   2.156   7.930   5.333
14078SOL     OW44072   1.171   4.417   5.730
14078SOL    HW144073   1.155   4.384   5.818
14078SOL    HW244074   1.242   4.361   5.696
14079SOL     OW44075  10.256   2.226  13.198
14079SOL    HW144076  10.227   2.135  13.201
14079SOL    HW244077  10.177   2.277  13.214
14080SOL     OW44078  12.241   8.489   2.498
14080SOL    HW144079  12.242   8.433   2.420
14080SOL    HW244080  12.191   8.566   2.472
14081SOL     OW44081   9.041   9.881   1.492
14081SOL    HW144082   9.058   9.869   1.398
14081SOL    HW244083   9.064   9.972   1.509
14082SOL     OW44084   6.668   9.448   9.175
14082SOL    HW144085   6.742   9.427   9.233
14082SOL    HW244086   6.591   9.417   9.222
14083SOL     OW44087  14.133  11.112   6.359
14083SOL    HW144088  14.085  11.153   6.287
14083SOL    HW244089  14.068  11.106   6.430
14084SOL     OW44090  14.709  11.389  13.771
14084SOL    HW144091  14.639  11.386  13.836
14084SOL    HW244092  14.769  11.318  13.796
14085SOL     OW44093   5.459   9.714  14.396
14085SOL    HW144094   5.537   9.763  14.422
14085SOL    HW244095   5.386   9.773  14.416
14086SOL     OW44096   8.383  12.133  14.649
14086SOL    HW144097   8.408  12.225  14.642
14086SOL    HW244098   8.350  12.125  14.739
14087SOL     OW44099   6.543   3.224   7.176
14087SOL    HW144100   6.458   3.203   7.215
14087SOL    HW244101   6.582   3.138   7.156
14088SOL     OW44102   5.067   2.445   0.546
14088SOL    HW144103   5.057   2.383   0.618
14088SOL    HW244104   5.063   2.392   0.467
14089SOL     OW44105  14.068   6.442   3.929
14089SOL    HW144106  14.012   6.426   4.005
14089SOL    HW244107  14.152   6.405   3.954
14090SOL     OW44108   2.194   7.535  11.194
14090SOL    HW144109   2.141   7.476  11.141
14090SOL    HW244110   2.160   7.622  11.176
14091SOL     OW44111   7.038  13.934  14.699
14091SOL    HW144112   7.061  13.990  14.626
14091SOL    HW244113   7.003  13.994  14.766
14092SOL     OW44114   9.964   7.833   2.201
14092SOL    HW144115  10.030   7.775   2.239
14092SOL    HW244116   9.962   7.809   2.109
14093SOL     OW44117   7.259   1.063   6.601
14093SOL    HW144118   7.199   0.991   6.580
14093SOL    HW244119   7.258   1.067   6.697
14094SOL     OW44120   5.242  12.493   9.098
14094SOL    HW144121   5.292  12.502   9.179
14094SOL    HW244122   5.156  12.528   9.118
14095SOL     OW44123   8.074   7.675   2.067
14095SOL    HW144124   8.134   7.668   2.142
14095SOL    HW244125   8.058   7.584   2.041
14096SOL     OW44126  10.449   6.449   7.658
14096SOL    HW144127  10.478   6.360   7.637
14096SOL    HW244128  10.359   6.439   7.687
14097SOL     OW44129   0.997  10.040   1.189
14097SOL    HW144130   0.930   9.982   1.152
14097SOL    HW244131   1.001  10.015   1.282
14098SOL     OW44132   6.295   7.790  10.337
14098SOL    HW144133   6.265   7.739  10.412
14098SOL    HW244134   6.345   7.862  10.375
14099SOL     OW44135   7.350  13.146  14.113
14099SOL    HW144136   7.408  13.155  14.038
14099SOL    HW244137   7.268  13.188  14.086
14100SOL     OW44138   1.304   3.633  10.194
14100SOL    HW144139   1.389   3.633  10.238
14100SOL    HW244140   1.260   3.554  10.226
14101SOL     OW44141   6.256   6.392   1.263
14101SOL    HW144142   6.189   6.376   1.329
14101SOL    HW244143   6.213   6.447   1.198
14102SOL     OW44144   3.505   6.722   9.684
14102SOL    HW144145   3.536   6.696   9.770
14102SOL    HW244146   3.424   6.672   9.671
14103SOL     OW44147   9.033   5.417   1.014
14103SOL    HW144148   8.982   5.394   0.937
14103SOL    HW244149   9.123   5.426   0.982
14104SOL     OW44150  11.953   4.067   7.237
14104SOL    HW144151  11.873   4.077   7.185
14104SOL    HW244152  11.942   3.984   7.283
14105SOL     OW44153   9.650   5.732   0.366
14105SOL    HW144154   9.565   5.766   0.339
14105SOL    HW244155   9.631   5.645   0.401
14106SOL     OW44156   0.001  13.840   8.620
14106SOL    HW144157  14.846  13.923   8.660
14106SOL    HW244158   0.081  13.818   8.666
14107SOL     OW44159   3.110  11.423  11.196
14107SOL    HW144160   3.161  11.344  11.213
14107SOL    HW244161   3.025  11.407  11.236
14108SOL     OW44162   6.902   8.763   8.248
14108SOL    HW144163   6.808   8.764   8.233
14108SOL    HW244164   6.913   8.716   8.330
14109SOL     OW44165  10.503   0.257   8.911
14109SOL    HW144166  10.540   0.186   8.859
14109SOL    HW244167  10.568   0.275   8.979
14110SOL     OW44168   5.973   4.090  10.998
14110SOL    HW144169   6.051   4.145  10.990
14110SOL    HW244170   5.957   4.058  10.910
14111SOL     OW44171   4.728   6.233   3.243
14111SOL    HW144172   4.670   6.158   3.252
14111SOL    HW244173   4.684   6.290   3.179
14112SOL     OW44174   7.271  14.716  10.789
14112SOL    HW144175   7.268  14.775  10.714
14112SOL    HW244176   7.298  14.632  10.753
14113SOL     OW44177  13.952  12.312  11.166
14113SOL    HW144178  14.014  12.300  11.238
14113SOL    HW244179  13.966  12.237  11.110
14114SOL     OW44180   9.681  12.920  12.574
14114SOL    HW144181   9.655  12.980  12.504
14114SOL    HW244182   9.607  12.860  12.582
14115SOL     OW44183   7.210   9.742   9.464
14115SOL    HW144184   7.215   9.679   9.537
14115SOL    HW244185   7.225   9.827   9.504
14116SOL     OW44186   2.435  13.727   2.476
14116SOL    HW144187   2.529  13.716   2.458
14116SOL    HW244188   2.425  13.703   2.568
14117SOL     OW44189   7.828   2.832   9.617
14117SOL    HW144190   7.865   2.896   9.555
14117SOL    HW244191   7.825   2.750   9.568
14118SOL     OW44192   7.886   0.565  10.335
14118SOL    HW144193   7.928   0.531  10.256
14118SOL    HW244194   7.793   0.567  10.314
14119SOL     OW44195   2.074   8.239   8.749
14119SOL    HW144196   2.165   8.236   8.778
14119SOL    HW244197   2.023   8.237   8.830
14120SOL     OW44198   1.995   3.345   5.568
14120SOL    HW144199   1.912   3.352   5.521
14120SOL    HW244200   2.011   3.251   5.574
14121SOL     OW44201   8.192   7.169   8.173
14121SOL    HW144202   8.245   7.238   8.213
14121SOL    HW244203   8.239   7.147   8.092
14122SOL     OW44204   5.235   3.286   7.673
14122SOL    HW144205   5.255   3.292   7.767
14122SOL    HW244206   5.152   3.332   7.663
14123SOL     OW44207  14.018   3.472  12.909
14123SOL    HW144208  13.996   3.561  12.934
14123SOL    HW244209  13.935   3.424  12.914
14124SOL     OW44210   1.495   4.953   9.799
14124SOL    HW144211   1.506   4.904   9.880
14124SOL    HW244212   1.419   4.913   9.757
14125SOL     OW44213  10.512  14.359   2.651
14125SOL    HW144214  10.454  14.287   2.675
14125SOL    HW244215  10.555  14.384   2.733
14126SOL     OW44216  11.348  11.645  11.508
14126SOL    HW144217  11.418  11.585  11.481
14126SOL    HW244218  11.291  11.650  11.432
14127SOL     OW44219   5.262   5.243  13.587
14127SOL    HW144220   5.197   5.194  13.537
14127SOL    HW244221   5.214   5.275  13.664
14128SOL     OW44222   1.376   2.505   5.689
14128SOL    HW144223   1.400   2.414   5.671
14128SOL    HW244224   1.371   2.509   5.785
14129SOL     OW44225   4.243  13.302   1.653
14129SOL    HW144226   4.150  13.312   1.670
14129SOL    HW244227   4.278  13.391   1.653
14130SOL     OW44228   2.642  13.439  10.031
14130SOL    HW144229   2.593  13.431   9.949
14130SOL    HW244230   2.583  13.404  10.098
14131SOL     OW44231  13.257   4.801   6.045
14131SOL    HW144232  13.247   4.896   6.055
14131SOL    HW244233  13.173   4.771   6.011
14132SOL     OW44234  12.423   5.759   7.445
14132SOL    HW144235  12.338   5.779   7.405
14132SOL    HW244236  12.486   5.773   7.374
14133SOL     OW44237  10.554   4.792   7.039
14133SOL    HW144238  10.527   4.783   7.130
14133SOL    HW244239  10.649   4.780   7.041
14134SOL     OW44240   8.630   8.066   8.150
14134SOL    HW144241   8.640   8.153   8.190
14134SOL    HW244242   8.536   8.049   8.154
14135SOL     OW44243  12.554   2.477   1.076
14135SOL    HW144244  12.463   2.492   1.054
14135SOL    HW244245  12.604   2.516   1.004
14136SOL     OW44246   6.874  14.137   0.566
14136SOL    HW144247   6.909  14.186   0.640
14136SOL    HW244248   6.930  14.059   0.560
14137SOL     OW44249   1.783  13.215  12.025
14137SOL    HW144250   1.804  13.182  11.938
14137SOL    HW244251   1.756  13.138  12.074
14138SOL     OW44252  10.195   4.022  11.050
14138SOL    HW144253  10.140   3.959  11.003
14138SOL    HW244254  10.235   4.075  10.981
14139SOL     OW44255  11.787   3.712  12.349
14139SOL    HW144256  11.752   3.661  12.276
14139SOL    HW244257  11.780   3.653  12.425
14140SOL     OW44258  13.890   5.213   0.189
14140SOL    HW144259  13.859   5.191   0.277
14140SOL    HW244260  13.872   5.135   0.137
14141SOL     OW44261  13.060   0.501   2.262
14141SOL    HW144262  13.051   0.408   2.239
14141SOL    HW244263  13.135   0.503   2.322
14142SOL     OW44264   1.974   8.665   7.641
14142SOL    HW144265   2.025   8.734   7.598
14142SOL    HW244266   1.901   8.712   7.681
14143SOL     OW44267   7.728   4.607  12.664
14143SOL    HW144268   7.757   4.655  12.742
14143SOL    HW244269   7.664   4.665  12.623
14144SOL     OW44270   1.193   8.938   1.759
14144SOL    HW144271   1.243   8.868   1.798
14144SOL    HW244272   1.171   8.996   1.832
14145SOL     OW44273  12.189  11.429  12.564
14145SOL    HW144274  12.166  11.345  12.606
14145SOL    HW244275  12.108  11.459  12.524
14146SOL     OW44276   3.772   0.816  13.210
14146SOL    HW144277   3.703   0.756  13.181
14146SOL    HW244278   3.797   0.864  13.131
14147SOL     OW44279  11.192   3.606   5.938
14147SOL    HW144280  11.261   3.548   5.906
14147SOL    HW244281  11.220   3.694   5.913
14148SOL     OW44282  10.846   8.773   7.464
14148SOL    HW144283  10.923   8.760   7.409
14148SOL    HW244284  10.778   8.720   7.424
14149SOL     OW44285   4.550   9.843   2.400
14149SOL    HW144286   4.628   9.870   2.352
14149SOL    HW244287   4.573   9.756   2.435
14150SOL     OW44288  11.569   8.983  11.918
14150SOL    HW144289  11.532   9.028  11.842
14150SOL    HW244290  11.494   8.967  11.976
14151SOL     OW44291   8.726  11.191   0.239
14151SOL    HW144292   8.687  11.278   0.255
14151SOL    HW244293   8.722  11.180   0.144
14152SOL     OW44294  13.748   5.814  10.247
14152SOL    HW144295  13.787   5.881  10.192
14152SOL    HW244296  13.711   5.751  10.185
14153SOL     OW44297   6.401  10.455   6.327
14153SOL    HW144298   6.315  10.425   6.358
14153SOL    HW244299   6.445  10.488   6.405
14154SOL     OW44300  14.422  10.455  13.955
14154SOL    HW144301  14.434  10.399  14.031
14154SOL    HW244302  14.509  10.465  13.917
14155SOL     OW44303   9.190  13.107   7.587
14155SOL    HW144304   9.101  13.141   7.599
14155SOL    HW244305   9.247  13.181   7.606
14156SOL     OW44306   2.003   8.649   7.300
14156SOL    HW144307   1.945   8.718   7.334
14156SOL    HW244308   1.955   8.568   7.317
14157SOL     OW44309   2.302   5.956   6.072
14157SOL    HW144310   2.392   5.924   6.062
14157SOL    HW244311   2.290   6.017   6.000
14158SOL     OW44312   5.828   3.695   8.034
14158SOL    HW144313   5.801   3.741   8.113
14158SOL    HW244314   5.759   3.630   8.019
14159SOL     OW44315  11.746   0.584   4.170
14159SOL    HW144316  11.699   0.574   4.087
14159SOL    HW244317  11.758   0.679   4.179
14160SOL     OW44318   5.487   9.246   6.408
14160SOL    HW144319   5.465   9.213   6.495
14160SOL    HW244320   5.571   9.204   6.387
14161SOL     OW44321   8.626  12.495   1.118
14161SOL    HW144322   8.560  12.446   1.069
14161SOL    HW244323   8.707  12.482   1.069
14162SOL     OW44324   2.790   5.064   5.814
14162SOL    HW144325   2.851   5.084   5.885
14162SOL    HW244326   2.772   5.149   5.773
14163SOL     OW44327   0.674   0.514   7.270
14163SOL    HW144328   0.706   0.426   7.250
14163SOL    HW244329   0.626   0.504   7.352
14164SOL     OW44330   9.922   4.814   6.906
14164SOL    HW144331   9.934   4.776   6.993
14164SOL    HW244332   9.853   4.879   6.918
14165SOL     OW44333  14.363   3.682   3.051
14165SOL    HW144334  14.389   3.651   2.965
14165SOL    HW244335  14.325   3.769   3.035
14166SOL     OW44336  10.690   2.288  10.768
14166SOL    HW144337  10.690   2.331  10.682
14166SOL    HW244338  10.639   2.347  10.824
14167SOL     OW44339   4.420  10.990   0.730
14167SOL    HW144340   4.327  10.981   0.748
14167SOL    HW244341   4.444  11.076   0.766
14168SOL     OW44342   6.905  11.467   0.890
14168SOL    HW144343   6.983  11.501   0.845
14168SOL    HW244344   6.876  11.540   0.945
14169SOL     OW44345   9.897   2.519   2.098
14169SOL    HW144346   9.808   2.551   2.087
14169SOL    HW244347   9.935   2.574   2.166
14170SOL     OW44348   3.677   3.579  13.302
14170SOL    HW144349   3.663   3.556  13.394
14170SOL    HW244350   3.694   3.674  13.304
14171SOL     OW44351   6.975   5.270  13.586
14171SOL    HW144352   6.898   5.300  13.633
14171SOL    HW244353   6.942   5.209  13.520
14172SOL     OW44354   6.626  11.074   6.975
14172SOL    HW144355   6.545  11.115   6.947
14172SOL    HW244356   6.690  11.146   6.976
14173SOL     OW44357   8.280  11.322   7.185
14173SOL    HW144358   8.197  11.317   7.232
14173SOL    HW244359   8.258  11.300   7.094
14174SOL     OW44360  14.373   0.752   9.333
14174SOL    HW144361  14.348   0.757   9.425
14174SOL    HW244362  14.292   0.768   9.285
14175SOL     OW44363  10.475   1.094  14.227
14175SOL    HW144364  10.542   1.087  14.294
14175SOL    HW244365  10.398   1.052  14.265
14176SOL     OW44366  14.785   4.391   4.719
14176SOL    HW144367  14.714   4.389   4.784
14176SOL    HW244368  14.742   4.418   4.638
14177SOL     OW44369   4.807   3.113  14.496
14177SOL    HW144370   4.846   3.090  14.411
14177SOL    HW244371   4.862   3.185  14.528
14178SOL     OW44372   0.990  10.374   4.007
14178SOL    HW144373   1.063  10.319   3.978
14178SOL    HW244374   0.970  10.429   3.931
14179SOL     OW44375  13.995   1.915   5.997
14179SOL    HW144376  14.086   1.889   5.982
14179SOL    HW244377  13.977   1.885   6.086
14180SOL     OW44378   6.535  10.076  13.804
14180SOL    HW144379   6.580   9.994  13.788
14180SOL    HW244380   6.555  10.130  13.728
14181SOL     OW44381   4.224   6.128   2.183
14181SOL    HW144382   4.160   6.125   2.113
14181SOL    HW244383   4.214   6.216   2.221
14182SOL     OW44384   1.514   0.261  10.815
14182SOL    HW144385   1.493   0.172  10.842
14182SOL    HW244386   1.462   0.317  10.874
14183SOL     OW44387   7.030   9.922  13.118
14183SOL    HW144388   7.088   9.864  13.067
14183SOL    HW244389   6.989   9.864  13.182
14184SOL     OW44390   7.086   6.130   2.639
14184SOL    HW144391   7.143   6.199   2.606
14184SOL    HW244392   7.042   6.169   2.715
14185SOL     OW44393   6.442  10.698   6.519
14185SOL    HW144394   6.532  10.714   6.490
14185SOL    HW244395   6.428  10.761   6.590
14186SOL     OW44396  12.377   9.394   1.485
14186SOL    HW144397  12.410   9.345   1.410
14186SOL    HW244398  12.426   9.476   1.484
14187SOL     OW44399  10.225  13.831  12.445
14187SOL    HW144400  10.299  13.874  12.402
14187SOL    HW244401  10.252  13.739  12.453
14188SOL     OW44402   5.654  13.367   3.368
14188SOL    HW144403   5.716  13.409   3.427
14188SOL    HW244404   5.608  13.439   3.326
14189SOL     OW44405   7.241   3.484   5.665
14189SOL    HW144406   7.303   3.474   5.592
14189SOL    HW244407   7.285   3.543   5.726
14190SOL     OW44408   2.202   6.425   8.695
14190SOL    HW144409   2.207   6.514   8.729
14190SOL    HW244410   2.144   6.380   8.756
14191SOL     OW44411   2.735   7.035   6.100
14191SOL    HW144412   2.780   7.056   6.182
14191SOL    HW244413   2.655   7.087   6.102
14192SOL     OW44414  10.306  10.848  11.191
14192SOL    HW144415  10.377  10.819  11.133
14192SOL    HW244416  10.281  10.934  11.157
14193SOL     OW44417   3.042  13.989   7.816
14193SOL    HW144418   3.085  14.008   7.733
14193SOL    HW244419   2.958  13.952   7.792
14194SOL     OW44420   3.573   0.216   0.894
14194SOL    HW144421   3.556   0.121   0.900
14194SOL    HW244422   3.668   0.223   0.888
14195SOL     OW44423  10.919   5.377   9.812
14195SOL    HW144424  10.941   5.450   9.869
14195SOL    HW244425  10.824   5.380   9.805
14196SOL     OW44426   7.685   2.360  13.064
14196SOL    HW144427   7.645   2.447  13.067
14196SOL    HW244428   7.689   2.333  13.156
14197SOL     OW44429   2.959   7.262   6.893
14197SOL    HW144430   2.946   7.271   6.799
14197SOL    HW244431   2.918   7.339   6.930
14198SOL     OW44432   8.066   6.335  13.577
14198SOL    HW144433   7.980   6.361  13.544
14198SOL    HW244434   8.123   6.409  13.559
14199SOL     OW44435   2.539   3.068   9.855
14199SOL    HW144436   2.452   3.070   9.815
14199SOL    HW244437   2.527   3.108   9.941
14200SOL     OW44438   3.594  10.571  11.883
14200SOL    HW144439   3.665  10.507  11.886
14200SOL    HW244440   3.519  10.523  11.847
14201SOL     OW44441   5.023  13.029   3.322
14201SOL    HW144442   5.070  13.011   3.241
14201SOL    HW244443   4.986  12.944   3.348
14202SOL     OW44444  12.005  14.647  11.383
14202SOL    HW144445  12.064  14.681  11.315
14202SOL    HW244446  11.919  14.645  11.342
14203SOL     OW44447   2.905   9.284  10.323
14203SOL    HW144448   2.922   9.225  10.396
14203SOL    HW244449   2.992   9.303  10.286
14204SOL     OW44450   9.992  10.986   6.758
14204SOL    HW144451   9.908  10.987   6.713
14204SOL    HW244452  10.037  10.908   6.725
14205SOL     OW44453  11.590   2.438   5.682
14205SOL    HW144454  11.653   2.407   5.616
14205SOL    HW244455  11.623   2.403   5.765
14206SOL     OW44456  13.095  14.670   1.620
14206SOL    HW144457  13.185  14.646   1.641
14206SOL    HW244458  13.081  14.751   1.669
14207SOL     OW44459   1.009   5.341   6.669
14207SOL    HW144460   1.081   5.286   6.698
14207SOL    HW244461   0.930   5.297   6.702
14208SOL     OW44462   2.784   2.139   6.936
14208SOL    HW144463   2.813   2.211   6.992
14208SOL    HW244464   2.696   2.165   6.907
14209SOL     OW44465   3.517   4.451   2.550
14209SOL    HW144466   3.475   4.365   2.538
14209SOL    HW244467   3.497   4.476   2.640
14210SOL     OW44468   2.059   3.075   7.002
14210SOL    HW144469   2.042   3.168   6.984
14210SOL    HW244470   1.973   3.037   7.015
14211SOL     OW44471   6.300   6.371   7.663
14211SOL    HW144472   6.215   6.331   7.642
14211SOL    HW244473   6.278   6.459   7.691
14212SOL     OW44474   8.693   8.108  14.719
14212SOL    HW144475   8.643   8.029  14.702
14212SOL    HW244476   8.652   8.147  14.797
14213SOL     OW44477   9.055   6.209   5.886
14213SOL    HW144478   9.004   6.134   5.857
14213SOL    HW244479   9.013   6.284   5.846
14214SOL     OW44480   5.762   5.561   4.302
14214SOL    HW144481   5.673   5.563   4.339
14214SOL    HW244482   5.749   5.573   4.208
14215SOL     OW44483   2.475   5.367  12.626
14215SOL    HW144484   2.540   5.407  12.683
14215SOL    HW244485   2.489   5.409  12.541
14216SOL     OW44486   7.036  14.725  10.948
14216SOL    HW144487   6.963  14.721  10.885
14216SOL    HW244488   7.114  14.711  10.895
14217SOL     OW44489   1.722   8.682  14.433
14217SOL    HW144490   1.806   8.641  14.450
14217SOL    HW244491   1.722   8.760  14.490
14218SOL     OW44492   5.905   0.714   0.419
14218SOL    HW144493   5.962   0.757   0.356
14218SOL    HW244494   5.964   0.667   0.477
14219SOL     OW44495   1.004  14.417   8.317
14219SOL    HW144496   1.078  14.453   8.267
14219SOL    HW244497   1.024  14.439   8.408
14220SOL     OW44498   0.810  12.299   6.277
14220SOL    HW144499   0.732  12.264   6.319
14220SOL    HW244500   0.778  12.366   6.217
14221SOL     OW44501   7.800  13.422  11.698
14221SOL    HW144502   7.770  13.424  11.789
14221SOL    HW244503   7.791  13.512  11.668
14222SOL     OW44504   8.487   9.398  12.677
14222SOL    HW144505   8.508   9.466  12.613
14222SOL    HW244506   8.531   9.426  12.757
14223SOL     OW44507   4.391   5.895   6.507
14223SOL    HW144508   4.469   5.885   6.561
14223SOL    HW244509   4.408   5.839   6.431
14224SOL     OW44510   6.603  14.579   2.452
14224SOL    HW144511   6.549  14.512   2.494
14224SOL    HW244512   6.649  14.534   2.382
14225SOL     OW44513   4.147  11.220  14.358
14225SOL    HW144514   4.108  11.149  14.409
14225SOL    HW244515   4.171  11.179  14.274
14226SOL     OW44516   0.452  11.390  10.105
14226SOL    HW144517   0.455  11.321  10.040
14226SOL    HW244518   0.544  11.406  10.128
14227SOL     OW44519   9.244   3.465  12.548
14227SOL    HW144520   9.206   3.428  12.628
14227SOL    HW244521   9.170   3.504  12.502
14228SOL     OW44522   6.587  14.828   4.115
14228SOL    HW144523   6.681  14.832   4.132
14228SOL    HW244524   6.571  14.736   4.092
14229SOL     OW44525   6.385   1.779   3.337
14229SOL    HW144526   6.309   1.762   3.392
14229SOL    HW244527   6.452   1.811   3.398
14230SOL     OW44528   8.369  12.677   6.548
14230SOL    HW144529   8.298  12.741   6.549
14230SOL    HW244530   8.408  12.687   6.461
14231SOL     OW44531   6.766  11.912   7.870
14231SOL    HW144532   6.702  11.934   7.801
14231SOL    HW244533   6.834  11.863   7.824
14232SOL     OW44534  11.564   4.898   2.661
14232SOL    HW144535  11.501   4.953   2.709
14232SOL    HW244536  11.586   4.828   2.723
14233SOL     OW44537  13.496   4.680   6.563
14233SOL    HW144538  13.590   4.677   6.578
14233SOL    HW244539  13.487   4.701   6.470
14234SOL     OW44540  12.842   0.625  10.345
14234SOL    HW144541  12.854   0.713  10.380
14234SOL    HW244542  12.913   0.616  10.281
14235SOL     OW44543   2.700  13.719  11.934
14235SOL    HW144544   2.671  13.806  11.907
14235SOL    HW244545   2.752  13.688  11.860
14236SOL     OW44546   7.223  10.766   8.749
14236SOL    HW144547   7.218  10.681   8.792
14236SOL    HW244548   7.148  10.815   8.782
14237SOL     OW44549   8.137  11.506   6.896
14237SOL    HW144550   8.080  11.563   6.948
14237SOL    HW244551   8.082  11.475   6.824
14238SOL     OW44552  14.205   4.188  12.351
14238SOL    HW144553  14.120   4.153  12.378
14238SOL    HW244554  14.185   4.255  12.285
14239SOL     OW44555   5.069   4.886   8.231
14239SOL    HW144556   5.139   4.882   8.166
14239SOL    HW244557   5.013   4.958   8.202
14240SOL     OW44558  11.304   5.311   0.385
14240SOL    HW144559  11.347   5.369   0.321
14240SOL    HW244560  11.289   5.366   0.461
14241SOL     OW44561   1.835  11.931   1.877
14241SOL    HW144562   1.909  11.956   1.823
14241SOL    HW244563   1.811  11.843   1.846
14242SOL     OW44564   7.433  11.794   8.887
14242SOL    HW144565   7.433  11.701   8.865
14242SOL    HW244566   7.460  11.797   8.979
14243SOL     OW44567  11.807  10.344   3.850
14243SOL    HW144568  11.871  10.384   3.791
14243SOL    HW244569  11.860  10.287   3.906
14244SOL     OW44570   1.294  12.338   3.315
14244SOL    HW144571   1.321  12.426   3.287
14244SOL    HW244572   1.353  12.317   3.387
14245SOL     OW44573   4.136   6.693   4.453
14245SOL    HW144574   4.143   6.679   4.358
14245SOL    HW244575   4.224   6.678   4.487
14246SOL     OW44576  14.441   4.630   8.395
14246SOL    HW144577  14.494   4.561   8.354
14246SOL    HW244578  14.491   4.656   8.472
14247SOL     OW44579  13.423   1.342  13.544
14247SOL    HW144580  13.463   1.332  13.630
14247SOL    HW244581  13.497   1.356  13.484
14248SOL     OW44582   8.508   3.593   0.329
14248SOL    HW144583   8.594   3.633   0.345
14248SOL    HW244584   8.492   3.540   0.407
14249SOL     OW44585   1.573   0.853   3.390
14249SOL    HW144586   1.559   0.774   3.442
14249SOL    HW244587   1.577   0.822   3.299
14250SOL     OW44588   0.775  10.028  10.057
14250SOL    HW144589   0.687  10.059  10.034
14250SOL    HW244590   0.829  10.053   9.982
14251SOL     OW44591   2.701  13.824   2.824
14251SOL    HW144592   2.747  13.763   2.767
14251SOL    HW244593   2.768  13.856   2.884
14252SOL     OW44594   1.399   0.799  10.967
14252SOL    HW144595   1.380   0.722  10.914
14252SOL    HW244596   1.476   0.774  11.019
14253SOL     OW44597   2.589  10.162   6.456
14253SOL    HW144598   2.651  10.172   6.529
14253SOL    HW244599   2.573  10.068   6.453
14254SOL     OW44600  13.070  14.587  13.151
14254SOL    HW144601  13.126  14.560  13.078
14254SOL    HW244602  12.997  14.525  13.150
14255SOL     OW44603   1.017  12.531  12.399
14255SOL    HW144604   0.991  12.475  12.325
14255SOL    HW244605   1.040  12.614  12.358
14256SOL     OW44606   5.603  12.956   7.622
14256SOL    HW144607   5.530  12.894   7.631
14256SOL    HW244608   5.581  13.007   7.544
14257SOL     OW44609  10.533   0.663   1.974
14257SOL    HW144610  10.447   0.696   1.997
14257SOL    HW244611  10.585   0.742   1.954
14258SOL     OW44612   2.971  14.782   7.367
14258SOL    HW144613   3.009  14.837   7.299
14258SOL    HW244614   3.022  14.802   7.445
14259SOL     OW44615   9.724   1.805   6.364
14259SOL    HW144616   9.790   1.820   6.297
14259SOL    HW244617   9.643   1.837   6.326
14260SOL     OW44618   2.050   5.767   7.635
14260SOL    HW144619   2.134   5.727   7.656
14260SOL    HW244620   2.027   5.817   7.714
14261SOL     OW44621   6.913   7.976   1.129
14261SOL    HW144622   6.885   7.915   1.061
14261SOL    HW244623   7.000   8.006   1.102
14262SOL     OW44624   8.077   0.294   9.676
14262SOL    HW144625   8.149   0.327   9.622
14262SOL    HW244626   7.998   0.331   9.636
14263SOL     OW44627   6.614   6.013   0.697
14263SOL    HW144628   6.693   6.037   0.744
14263SOL    HW244629   6.604   6.081   0.631
14264SOL     OW44630   1.586   3.694   6.782
14264SOL    HW144631   1.643   3.617   6.789
14264SOL    HW244632   1.601   3.726   6.693
14265SOL     OW44633   4.711   5.917  12.501
14265SOL    HW144634   4.796   5.935  12.540
14265SOL    HW244635   4.728   5.854  12.431
14266SOL     OW44636   6.781   2.431  14.173
14266SOL    HW144637   6.735   2.515  14.170
14266SOL    HW244638   6.713   2.366  14.153
14267SOL     OW44639  11.265   0.673   8.338
14267SOL    HW144640  11.331   0.678   8.269
14267SOL    HW244641  11.283   0.748   8.395
14268SOL     OW44642  11.861   1.522  12.759
14268SOL    HW144643  11.914   1.579  12.813
14268SOL    HW244644  11.913   1.507  12.680
14269SOL     OW44645   8.236   6.767  13.075
14269SOL    HW144646   8.144   6.744  13.090
14269SOL    HW244647   8.286   6.697  13.117
14270SOL     OW44648   5.055   1.491   0.253
14270SOL    HW144649   5.027   1.510   0.163
14270SOL    HW244650   5.061   1.396   0.257
14271SOL     OW44651   5.284   0.266   7.637
14271SOL    HW144652   5.231   0.318   7.576
14271SOL    HW244653   5.275   0.310   7.721
14272SOL     OW44654   7.971   7.680   8.966
14272SOL    HW144655   7.911   7.753   8.950
14272SOL    HW244656   7.922   7.602   8.941
14273SOL     OW44657  10.293   2.730   3.080
14273SOL    HW144658  10.263   2.691   2.998
14273SOL    HW244659  10.226   2.794   3.102
14274SOL     OW44660  12.857   2.026   3.695
14274SOL    HW144661  12.913   1.969   3.748
14274SOL    HW244662  12.768   2.002   3.721
14275SOL     OW44663   1.862   1.503  10.612
14275SOL    HW144664   1.940   1.547  10.579
14275SOL    HW244665   1.852   1.535  10.702
14276SOL     OW44666   8.780   6.228   3.312
14276SOL    HW144667   8.760   6.136   3.329
14276SOL    HW244668   8.867   6.227   3.272
14277SOL     OW44669  14.541   3.447   6.404
14277SOL    HW144670  14.636   3.445   6.394
14277SOL    HW244671  14.527   3.413   6.493
14278SOL     OW44672  12.169  11.284   4.443
14278SOL    HW144673  12.232  11.224   4.483
14278SOL    HW244674  12.186  11.278   4.349
14279SOL     OW44675  14.004   3.281  12.635
14279SOL    HW144676  13.938   3.343  12.663
14279SOL    HW244677  14.067   3.333  12.585
14280SOL     OW44678   9.983  11.371   1.315
14280SOL    HW144679  10.017  11.305   1.376
14280SOL    HW244680   9.917  11.324   1.264
14281SOL     OW44681   1.319   1.034  12.871
14281SOL    HW144682   1.286   1.011  12.958
14281SOL    HW244683   1.402   1.079  12.888
14282SOL     OW44684   9.438   4.928   7.961
14282SOL    HW144685   9.474   4.990   7.897
14282SOL    HW244686   9.346   4.919   7.937
14283SOL     OW44687   3.802   5.685   1.197
14283SOL    HW144688   3.806   5.704   1.103
14283SOL    HW244689   3.714   5.650   1.210
14284SOL     OW44690   4.985   2.902   7.110
14284SOL    HW144691   4.946   2.981   7.072
14284SOL    HW244692   4.989   2.840   7.037
14285SOL     OW44693  11.906   7.023  12.262
14285SOL    HW144694  11.822   7.026  12.308
14285SOL    HW244695  11.966   7.072  12.317
14286SOL     OW44696   3.445   9.985   8.833
14286SOL    HW144697   3.536   9.961   8.815
14286SOL    HW244698   3.396   9.904   8.819
14287SOL     OW44699  10.371  12.096  14.180
14287SOL    HW144700  10.282  12.063  14.179
14287SOL    HW244701  10.416  12.048  14.110
14288SOL     OW44702   9.508  12.557  11.769
14288SOL    HW144703   9.442  12.549  11.700
14288SOL    HW244704   9.479  12.631  11.822
14289SOL     OW44705   3.907  14.409   6.974
14289SOL    HW144706   3.986  14.438   7.021
14289SOL    HW244707   3.836  14.424   7.036
14290SOL     OW44708   9.401  13.252   0.392
14290SOL    HW144709   9.405  13.318   0.462
14290SOL    HW244710   9.318  13.269   0.347
14291SOL     OW44711  12.249   3.782   7.914
14291SOL    HW144712  12.234   3.781   7.820
14291SOL    HW244713  12.169   3.817   7.952
14292SOL     OW44714   1.514   3.489   6.525
14292SOL    HW144715   1.555   3.458   6.444
14292SOL    HW244716   1.575   3.464   6.594
14293SOL     OW44717   5.472   0.167   2.855
14293SOL    HW144718   5.539   0.155   2.923
14293SOL    HW244719   5.503   0.115   2.781
14294SOL     OW44720   1.377   9.158   9.278
14294SOL    HW144721   1.429   9.105   9.338
14294SOL    HW244722   1.375   9.108   9.197
14295SOL     OW44723  13.302   1.966   4.100
14295SOL    HW144724  13.267   1.943   4.185
14295SOL    HW244725  13.338   2.054   4.112
14296SOL     OW44726  12.751   8.494   4.648
14296SOL    HW144727  12.791   8.407   4.651
14296SOL    HW244728  12.660   8.479   4.674
14297SOL     OW44729   3.244  13.869   2.978
14297SOL    HW144730   3.188  13.921   3.035
14297SOL    HW244731   3.333  13.883   3.012
14298SOL     OW44732   7.498   1.748   8.391
14298SOL    HW144733   7.575   1.713   8.345
14298SOL    HW244734   7.519   1.737   8.483
14299SOL     OW44735   3.221   9.975   5.561
14299SOL    HW144736   3.160  10.029   5.510
14299SOL    HW244737   3.190   9.982   5.651
14300SOL     OW44738   9.181   1.223   8.004
14300SOL    HW144739   9.100   1.191   8.044
14300SOL    HW244740   9.251   1.187   8.059
14301SOL     OW44741   4.677   0.011   9.242
14301SOL    HW144742   4.760   0.058   9.228
14301SOL    HW244743   4.610   0.073   9.213
14302SOL     OW44744  11.485   1.342   3.979
14302SOL    HW144745  11.493   1.277   3.909
14302SOL    HW244746  11.574   1.374   3.992
14303SOL     OW44747   6.283   3.240  11.043
14303SOL    HW144748   6.205   3.202  11.083
14303SOL    HW244749   6.355   3.213  11.100
14304SOL     OW44750   1.191   9.113  13.333
14304SOL    HW144751   1.152   9.048  13.391
14304SOL    HW244752   1.205   9.067  13.251
14305SOL     OW44753  14.453   4.884   0.306
14305SOL    HW144754  14.398   4.862   0.231
14305SOL    HW244755  14.433   4.975   0.325
14306SOL     OW44756   0.099   0.054  13.696
14306SOL    HW144757   0.185   0.071  13.657
14306SOL    HW244758   0.105   0.088  13.785
14307SOL     OW44759   1.119   3.463  14.200
14307SOL    HW144760   1.082   3.403  14.264
14307SOL    HW244761   1.198   3.497  14.241
14308SOL     OW44762  14.869   6.911   3.988
14308SOL    HW144763  14.796   6.963   3.955
14308SOL    HW244764   0.037   6.875   3.909
14309SOL     OW44765   4.768   7.220   3.631
14309SOL    HW144766   4.682   7.253   3.656
14309SOL    HW244767   4.788   7.152   3.696
14310SOL     OW44768   5.959   2.124  13.464
14310SOL    HW144769   6.036   2.164  13.503
14310SOL    HW244770   5.954   2.163  13.376
14311SOL     OW44771   9.876  10.938  14.024
14311SOL    HW144772   9.785  10.906  14.026
14311SOL    HW244773   9.870  11.028  14.057
14312SOL     OW44774   7.086   5.625  12.866
14312SOL    HW144775   7.091   5.677  12.786
14312SOL    HW244776   7.177   5.602  12.886
14313SOL     OW44777   9.320   1.917   1.034
14313SOL    HW144778   9.341   1.984   1.099
14313SOL    HW244779   9.257   1.860   1.077
14314SOL     OW44780   1.193  11.012   4.312
14314SOL    HW144781   1.280  11.045   4.333
14314SOL    HW244782   1.160  11.071   4.245
14315SOL     OW44783   3.457   6.378  13.802
14315SOL    HW144784   3.393   6.442  13.835
14315SOL    HW244785   3.542   6.412  13.832
14316SOL     OW44786   0.701   0.827   5.404
14316SOL    HW144787   0.653   0.886   5.346
14316SOL    HW244788   0.657   0.834   5.488
14317SOL     OW44789  14.838  13.802   8.349
14317SOL    HW144790  14.860  13.888   8.314
14317SOL    HW244791  14.853  13.809   8.443
14318SOL     OW44792  10.470   8.125  10.188
14318SOL    HW144793  10.531   8.059  10.219
14318SOL    HW244794  10.387   8.104  10.232
14319SOL     OW44795   7.392   0.606   9.674
14319SOL    HW144796   7.371   0.662   9.599
14319SOL    HW244797   7.486   0.619   9.688
14320SOL     OW44798   4.710   0.480   0.762
14320SOL    HW144799   4.621   0.504   0.786
14320SOL    HW244800   4.752   0.458   0.845
14321SOL     OW44801   3.491   9.600   2.918
14321SOL    HW144802   3.532   9.535   2.974
14321SOL    HW244803   3.563   9.637   2.867
14322SOL     OW44804  14.330   1.691   8.011
14322SOL    HW144805  14.240   1.659   8.010
14322SOL    HW244806  14.336   1.746   8.088
14323SOL     OW44807   9.020   0.302  13.817
14323SOL    HW144808   9.058   0.280  13.731
14323SOL    HW244809   9.092   0.342  13.865
14324SOL     OW44810  13.381   5.379   4.996
14324SOL    HW144811  13.446   5.449   5.006
14324SOL    HW244812  13.306   5.409   5.048
14325SOL     OW44813   8.334   6.609   8.473
14325SOL    HW144814   8.322   6.537   8.535
14325SOL    HW244815   8.405   6.661   8.511
14326SOL     OW44816  14.443  13.731  10.998
14326SOL    HW144817  14.435  13.659  11.062
14326SOL    HW244818  14.359  13.776  11.003
14327SOL     OW44819   1.049   6.387   1.742
14327SOL    HW144820   0.971   6.333   1.756
14327SOL    HW244821   1.056   6.395   1.647
14328SOL     OW44822   6.483  12.976  13.652
14328SOL    HW144823   6.418  13.027  13.701
14328SOL    HW244824   6.567  13.010  13.681
14329SOL     OW44825  11.420  10.277   4.546
14329SOL    HW144826  11.452  10.205   4.601
14329SOL    HW244827  11.326  10.260   4.538
14330SOL     OW44828   5.758   1.790  13.000
14330SOL    HW144829   5.722   1.709  12.964
14330SOL    HW244830   5.686   1.853  12.992
14331SOL     OW44831   3.914  10.853   7.477
14331SOL    HW144832   3.864  10.777   7.506
14331SOL    HW244833   3.867  10.884   7.399
14332SOL     OW44834  10.193  14.565  12.063
14332SOL    HW144835  10.178  14.532  12.152
14332SOL    HW244836  10.285  14.591  12.063
14333SOL     OW44837  12.263   5.788   0.821
14333SOL    HW144838  12.192   5.748   0.771
14333SOL    HW244839  12.341   5.738   0.797
14334SOL     OW44840   5.396   1.290   4.447
14334SOL    HW144841   5.311   1.333   4.456
14334SOL    HW244842   5.418   1.299   4.354
14335SOL     OW44843   4.512  10.589   0.970
14335SOL    HW144844   4.574  10.604   1.042
14335SOL    HW244845   4.567  10.567   0.895
14336SOL     OW44846   1.475   5.787  14.120
14336SOL    HW144847   1.484   5.878  14.149
14336SOL    HW244848   1.495   5.790  14.026
14337SOL     OW44849   9.152  13.292   4.792
14337SOL    HW144850   9.212  13.364   4.810
14337SOL    HW244851   9.084  13.331   4.737
14338SOL     OW44852   4.955   2.393   2.665
14338SOL    HW144853   4.997   2.462   2.614
14338SOL    HW244854   4.908   2.439   2.735
14339SOL     OW44855  14.311  13.352  14.866
14339SOL    HW144856  14.297  13.427   0.051
14339SOL    HW244857  14.223  13.316  14.851
14340SOL     OW44858   9.437   5.324  13.046
14340SOL    HW144859   9.411   5.246  13.094
14340SOL    HW244860   9.374   5.331  12.974
14341SOL     OW44861   9.520   2.772  13.883
14341SOL    HW144862   9.505   2.730  13.798
14341SOL    HW244863   9.494   2.863  13.871
14342SOL     OW44864   2.984   2.305   2.500
14342SOL    HW144865   3.073   2.273   2.509
14342SOL    HW244866   2.993   2.391   2.458
14343SOL     OW44867   2.275  11.533  13.070
14343SOL    HW144868   2.186  11.502  13.052
14343SOL    HW244869   2.271  11.561  13.162
14344SOL     OW44870   9.836   6.792   1.077
14344SOL    HW144871   9.891   6.717   1.055
14344SOL    HW244872   9.871   6.864   1.025
14345SOL     OW44873  12.005   8.037   4.149
14345SOL    HW144874  12.032   7.948   4.171
14345SOL    HW244875  11.938   8.058   4.214
14346SOL     OW44876   3.458  13.308  11.751
14346SOL    HW144877   3.454  13.345  11.839
14346SOL    HW244878   3.372  13.267  11.738
14347SOL     OW44879   0.516  11.866  13.903
14347SOL    HW144880   0.517  11.941  13.962
14347SOL    HW244881   0.607  11.836  13.900
14348SOL     OW44882   0.117   6.388   8.092
14348SOL    HW144883   0.054   6.378   8.163
14348SOL    HW244884   0.127   6.482   8.081
14349SOL     OW44885   4.775  13.344   1.613
14349SOL    HW144886   4.709  13.285   1.649
14349SOL    HW244887   4.834  13.361   1.686
14350SOL     OW44888   7.427   2.956   0.389
14350SOL    HW144889   7.486   3.031   0.394
14350SOL    HW244890   7.448   2.903   0.466
14351SOL     OW44891  11.310   2.036  11.236
14351SOL    HW144892  11.353   2.063  11.155
14351SOL    HW244893  11.364   1.964  11.268
14352SOL     OW44894  10.689  14.818   7.419
14352SOL    HW144895  10.618  14.790   7.476
14352SOL    HW244896  10.758  14.753   7.433
14353SOL     OW44897   0.892   8.454   7.682
14353SOL    HW144898   0.977   8.498   7.695
14353SOL    HW244899   0.889   8.436   7.588
14354SOL     OW44900  13.000  13.290   9.233
14354SOL    HW144901  13.051  13.234   9.174
14354SOL    HW244902  12.919  13.309   9.185
14355SOL     OW44903  14.834  11.395   1.780
14355SOL    HW144904  14.754  11.405   1.729
14355SOL    HW244905  14.805  11.355   1.862
14356SOL     OW44906   8.029   5.135  14.267
14356SOL    HW144907   7.999   5.178  14.347
14356SOL    HW244908   8.065   5.051  14.296
14357SOL     OW44909  13.786   8.300  11.552
14357SOL    HW144910  13.709   8.280  11.606
14357SOL    HW244911  13.789   8.396  11.551
14358SOL     OW44912   1.097  14.450   2.674
14358SOL    HW144913   1.096  14.416   2.764
14358SOL    HW244914   1.029  14.400   2.629
14359SOL     OW44915   4.984   8.574   9.001
14359SOL    HW144916   4.894   8.562   9.032
14359SOL    HW244917   4.984   8.662   8.963
14360SOL     OW44918  11.586   6.124   1.515
14360SOL    HW144919  11.616   6.170   1.437
14360SOL    HW244920  11.601   6.032   1.496
14361SOL     OW44921   7.611   4.557   3.324
14361SOL    HW144922   7.665   4.506   3.263
14361SOL    HW244923   7.630   4.518   3.410
14362SOL     OW44924  11.658  12.590   5.116
14362SOL    HW144925  11.690  12.510   5.075
14362SOL    HW244926  11.563  12.587   5.105
14363SOL     OW44927  10.564   2.707   2.598
14363SOL    HW144928  10.505   2.771   2.641
14363SOL    HW244929  10.593   2.752   2.519
14364SOL     OW44930  12.037   4.356   9.276
14364SOL    HW144931  12.021   4.312   9.359
14364SOL    HW244932  11.963   4.331   9.221
14365SOL     OW44933  11.146  11.868   4.913
14365SOL    HW144934  11.232  11.885   4.952
14365SOL    HW244935  11.089  11.851   4.988
14366SOL     OW44936  11.464   3.224   5.653
14366SOL    HW144937  11.549   3.269   5.657
14366SOL    HW244938  11.400   3.293   5.670
14367SOL     OW44939  11.294   5.427  13.527
14367SOL    HW144940  11.276   5.517  13.555
14367SOL    HW244941  11.231   5.411  13.457
14368SOL     OW44942   9.370  13.426  14.704
14368SOL    HW144943   9.381  13.508  14.655
14368SOL    HW244944   9.456  13.385  14.702
14369SOL     OW44945   8.502  14.106  11.241
14369SOL    HW144946   8.408  14.087  11.248
14369SOL    HW244947   8.506  14.202  11.235
14370SOL     OW44948   2.911   4.298  11.233
14370SOL    HW144949   2.882   4.250  11.310
14370SOL    HW244950   2.970   4.366  11.267
14371SOL     OW44951  14.128   6.363  14.346
14371SOL    HW144952  14.039   6.398  14.343
14371SOL    HW244953  14.177   6.417  14.283
14372SOL     OW44954   8.382   0.049   7.043
14372SOL    HW144955   8.433   0.003   7.110
14372SOL    HW244956   8.324   0.107   7.092
14373SOL     OW44957   4.320   2.997   7.252
14373SOL    HW144958   4.353   3.057   7.185
14373SOL    HW244959   4.253   2.945   7.207
14374SOL     OW44960  13.644   1.414  10.008
14374SOL    HW144961  13.720   1.356   9.997
14374SOL    HW244962  13.670   1.495   9.964
14375SOL     OW44963  14.762   0.011   8.681
14375SOL    HW144964  14.720   0.005   8.767
14375SOL    HW244965  14.836   0.070   8.695
14376SOL     OW44966   1.633   4.827  11.889
14376SOL    HW144967   1.559   4.852  11.943
14376SOL    HW244968   1.692   4.779  11.948
14377SOL     OW44969   8.791   6.343   9.131
14377SOL    HW144970   8.851   6.350   9.206
14377SOL    HW244971   8.760   6.433   9.117
14378SOL     OW44972   4.819   9.663   4.931
14378SOL    HW144973   4.902   9.704   4.906
14378SOL    HW244974   4.818   9.581   4.883
14379SOL     OW44975   1.119   5.208  13.919
14379SOL    HW144976   1.124   5.272  13.847
14379SOL    HW244977   1.028   5.215  13.949
14380SOL     OW44978   1.797   1.926   0.053
14380SOL    HW144979   1.839   1.879   0.125
14380SOL    HW244980   1.729   1.979   0.094
14381SOL     OW44981   8.811   5.201   0.060
14381SOL    HW144982   8.882   5.144   0.030
14381SOL    HW244983   8.795   5.261  14.861
14382SOL     OW44984   0.136   0.661   3.186
14382SOL    HW144985   0.172   0.583   3.145
14382SOL    HW244986   0.086   0.704   3.117
14383SOL     OW44987   7.385   0.511  12.376
14383SOL    HW144988   7.336   0.429  12.380
14383SOL    HW244989   7.439   0.511  12.454
14384SOL     OW44990   7.616  14.629   5.844
14384SOL    HW144991   7.686  14.564   5.830
14384SOL    HW244992   7.633  14.664   5.931
14385SOL     OW44993   6.305   0.220  12.366
14385SOL    HW144994   6.243   0.148  12.361
14385SOL    HW244995   6.265   0.282  12.428
14386SOL     OW44996  13.946  10.681   4.549
14386SOL    HW144997  13.964  10.775   4.543
14386SOL    HW244998  13.996  10.642   4.477
14387SOL     OW44999  13.943   5.489   0.200
14387SOL    HW145000  13.933   5.394   0.205
14387SOL    HW245001  13.944   5.509   0.107
14388SOL     OW45002  13.503  11.736   0.933
14388SOL    HW145003  13.445  11.762   1.004
14388SOL    HW245004  13.444  11.712   0.861
14389SOL     OW45005   2.389   2.440   4.132
14389SOL    HW145006   2.317   2.490   4.170
14389SOL    HW245007   2.444   2.505   4.090
14390SOL     OW45008  11.816  11.241   4.251
14390SOL    HW145009  11.828  11.335   4.258
14390SOL    HW245010  11.752  11.219   4.319
14391SOL     OW45011  13.120  11.039   0.089
14391SOL    HW145012  13.207  11.010   0.060
14391SOL    HW245013  13.121  11.134   0.077
14392SOL     OW45014   1.359   3.056   6.525
14392SOL    HW145015   1.289   3.122   6.522
14392SOL    HW245016   1.436   3.101   6.490
14393SOL     OW45017   9.371   4.736  11.631
14393SOL    HW145018   9.415   4.771  11.553
14393SOL    HW245019   9.429   4.760  11.704
14394SOL     OW45020  12.905  14.546   9.515
14394SOL    HW145021  12.963  14.581   9.447
14394SOL    HW245022  12.965  14.525   9.587
14395SOL     OW45023   4.154  13.954   9.186
14395SOL    HW145024   4.246  13.980   9.185
14395SOL    HW245025   4.152  13.871   9.140
14396SOL     OW45026   8.320  10.859   4.425
14396SOL    HW145027   8.252  10.838   4.360
14396SOL    HW245028   8.399  10.872   4.372
14397SOL     OW45029   2.201  11.660   7.437
14397SOL    HW145030   2.236  11.737   7.392
14397SOL    HW245031   2.268  11.638   7.502
14398SOL     OW45032   4.860  13.454   3.870
14398SOL    HW145033   4.879  13.373   3.917
14398SOL    HW245034   4.854  13.428   3.778
14399SOL     OW45035   1.633   6.452   4.824
14399SOL    HW145036   1.564   6.423   4.765
14399SOL    HW245037   1.594   6.523   4.874
14400SOL     OW45038  11.664   2.443   4.308
14400SOL    HW145039  11.680   2.398   4.224
14400SOL    HW245040  11.718   2.522   4.304
14401SOL     OW45041   5.304   9.943   8.798
14401SOL    HW145042   5.345  10.018   8.755
14401SOL    HW245043   5.303   9.874   8.731
14402SOL     OW45044  12.965   1.195   8.080
14402SOL    HW145045  12.936   1.282   8.054
14402SOL    HW245046  12.976   1.148   7.997
14403SOL     OW45047   7.854  10.907   8.384
14403SOL    HW145048   7.822  10.937   8.469
14403SOL    HW245049   7.882  10.987   8.339
14404SOL     OW45050  11.622   6.669   0.926
14404SOL    HW145051  11.536   6.709   0.936
14404SOL    HW245052  11.651   6.696   0.838
14405SOL     OW45053   8.490  12.864   5.677
14405SOL    HW145054   8.580  12.832   5.667
14405SOL    HW245055   8.499  12.959   5.687
14406SOL     OW45056  13.895   5.747   8.290
14406SOL    HW145057  13.917   5.803   8.214
14406SOL    HW245058  13.976   5.743   8.340
14407SOL     OW45059   5.024   6.296   5.324
14407SOL    HW145060   4.939   6.257   5.344
14407SOL    HW245061   5.062   6.240   5.257
14408SOL     OW45062   4.515   2.109   2.064
14408SOL    HW145063   4.450   2.155   2.117
14408SOL    HW245064   4.485   2.121   1.974
14409SOL     OW45065  14.629   7.431   6.435
14409SOL    HW145066  14.706   7.407   6.486
14409SOL    HW245067  14.664   7.465   6.352
14410SOL     OW45068  11.533   0.333  10.120
14410SOL    HW145069  11.566   0.353  10.033
14410SOL    HW245070  11.551   0.411  10.172
14411SOL     OW45071   3.235   8.413  14.530
14411SOL    HW145072   3.255   8.322  14.549
14411SOL    HW245073   3.233   8.456  14.616
14412SOL     OW45074  11.952   2.633  13.646
14412SOL    HW145075  11.955   2.665  13.736
14412SOL    HW245076  11.873   2.580  13.642
14413SOL     OW45077  11.298  11.491  10.100
14413SOL    HW145078  11.339  11.508  10.015
14413SOL    HW245079  11.204  11.504  10.085
14414SOL     OW45080   3.737   0.163   3.412
14414SOL    HW145081   3.642   0.156   3.405
14414SOL    HW245082   3.753   0.176   3.505
14415SOL     OW45083   6.948   9.051   7.918
14415SOL    HW145084   6.932   9.041   8.012
14415SOL    HW245085   6.939   9.145   7.902
14416SOL     OW45086   8.931  14.593  10.089
14416SOL    HW145087   8.926  14.500  10.109
14416SOL    HW245088   8.976  14.632  10.164
14417SOL     OW45089   3.798   2.264   3.013
14417SOL    HW145090   3.847   2.182   3.012
14417SOL    HW245091   3.707   2.237   3.025
14418SOL     OW45092  13.340  13.058   9.284
14418SOL    HW145093  13.296  13.010   9.354
14418SOL    HW245094  13.336  12.999   9.208
14419SOL     OW45095   3.582   9.686   9.496
14419SOL    HW145096   3.557   9.640   9.416
14419SOL    HW245097   3.678   9.687   9.494
14420SOL     OW45098   1.054  13.050   5.907
14420SOL    HW145099   1.143  13.068   5.878
14420SOL    HW245100   1.063  13.036   6.002
14421SOL     OW45101  11.233  14.640   3.471
14421SOL    HW145102  11.201  14.587   3.397
14421SOL    HW245103  11.328  14.627   3.469
14422SOL     OW45104  10.720   8.263  13.931
14422SOL    HW145105  10.715   8.291  14.022
14422SOL    HW245106  10.799   8.208  13.928
14423SOL     OW45107   0.169  11.244  13.243
14423SOL    HW145108   0.193  11.165  13.193
14423SOL    HW245109   0.112  11.212  13.312
14424SOL     OW45110  12.103   9.845   9.032
14424SOL    HW145111  12.113   9.832   9.126
14424SOL    HW245112  12.021   9.801   9.010
14425SOL     OW45113  12.409  10.925   2.731
14425SOL    HW145114  12.437  10.838   2.759
14425SOL    HW245115  12.331  10.943   2.783
14426SOL     OW45116  13.549   4.006  13.329
14426SOL    HW145117  13.614   3.947  13.290
14426SOL    HW245118  13.550   4.083  13.273
14427SOL     OW45119  13.611  11.233  13.652
14427SOL    HW145120  13.661  11.152  13.667
14427SOL    HW245121  13.581  11.225  13.562
14428SOL     OW45122   9.175   5.366   0.113
14428SOL    HW145123   9.260   5.325   0.128
14428SOL    HW245124   9.187   5.457   0.138
14429SOL     OW45125   3.383   0.615  12.174
14429SOL    HW145126   3.321   0.553  12.135
14429SOL    HW245127   3.374   0.694  12.122
14430SOL     OW45128   9.998  10.972   0.434
14430SOL    HW145129  10.027  10.952   0.345
14430SOL    HW245130  10.067  11.027   0.470
14431SOL     OW45131   4.444   7.526  13.406
14431SOL    HW145132   4.457   7.444  13.358
14431SOL    HW245133   4.435   7.593  13.338
14432SOL     OW45134   4.218   1.184  14.007
14432SOL    HW145135   4.267   1.131  14.069
14432SOL    HW245136   4.186   1.258  14.058
14433SOL     OW45137  11.475  11.469  14.520
14433SOL    HW145138  11.431  11.459  14.436
14433SOL    HW245139  11.568  11.458  14.499
14434SOL     OW45140  12.744   7.809   0.311
14434SOL    HW145141  12.676   7.853   0.362
14434SOL    HW245142  12.698   7.773   0.235
14435SOL     OW45143   3.307  12.204   6.498
14435SOL    HW145144   3.245  12.263   6.541
14435SOL    HW245145   3.392  12.246   6.511
14436SOL     OW45146   3.374  11.403   1.549
14436SOL    HW145147   3.300  11.363   1.501
14436SOL    HW245148   3.439  11.421   1.481
14437SOL     OW45149   4.779   2.992   5.646
14437SOL    HW145150   4.871   2.968   5.635
14437SOL    HW245151   4.731   2.922   5.601
14438SOL     OW45152   1.050   6.676   4.770
14438SOL    HW145153   1.044   6.581   4.757
14438SOL    HW245154   1.083   6.709   4.686
14439SOL     OW45155   3.485  13.610  13.737
14439SOL    HW145156   3.558  13.568  13.692
14439SOL    HW245157   3.511  13.703  13.742
14440SOL     OW45158  11.988  13.608   0.320
14440SOL    HW145159  12.056  13.549   0.352
14440SOL    HW245160  11.906  13.561   0.335
14441SOL     OW45161  12.798  11.355   5.709
14441SOL    HW145162  12.714  11.311   5.701
14441SOL    HW245163  12.823  11.343   5.801
14442SOL     OW45164   4.818  11.039   4.411
14442SOL    HW145165   4.823  10.952   4.450
14442SOL    HW245166   4.848  11.098   4.481
14443SOL     OW45167   4.027   9.709   1.798
14443SOL    HW145168   4.091   9.670   1.857
14443SOL    HW245169   3.971   9.762   1.855
14444SOL     OW45170   1.533   2.165  11.429
14444SOL    HW145171   1.486   2.142  11.510
14444SOL    HW245172   1.572   2.250  11.449
14445SOL     OW45173  11.572  13.888  10.807
14445SOL    HW145174  11.587  13.897  10.713
14445SOL    HW245175  11.621  13.810  10.832
14446SOL     OW45176   9.766  14.693   8.330
14446SOL    HW145177   9.727  14.753   8.265
14446SOL    HW245178   9.856  14.723   8.339
14447SOL     OW45179   1.567  11.809   9.751
14447SOL    HW145180   1.590  11.902   9.760
14447SOL    HW245181   1.475  11.809   9.725
14448SOL     OW45182   2.804  12.581  11.417
14448SOL    HW145183   2.806  12.663  11.466
14448SOL    HW245184   2.823  12.607  11.327
14449SOL     OW45185   8.313   0.013   6.443
14449SOL    HW145186   8.378   0.001   6.374
14449SOL    HW245187   8.348   0.084   6.497
14450SOL     OW45188   8.696  11.437   0.633
14450SOL    HW145189   8.681  11.509   0.694
14450SOL    HW245190   8.760  11.381   0.677
14451SOL     OW45191   2.993   6.217   5.157
14451SOL    HW145192   3.040   6.135   5.145
14451SOL    HW245193   2.918   6.211   5.097
14452SOL     OW45194  13.167  13.393   2.460
14452SOL    HW145195  13.180  13.424   2.371
14452SOL    HW245196  13.254  13.395   2.500
14453SOL     OW45197   5.299   2.225  10.769
14453SOL    HW145198   5.382   2.271  10.781
14453SOL    HW245199   5.307   2.146  10.823
14454SOL     OW45200   5.616   2.728   6.118
14454SOL    HW145201   5.665   2.754   6.196
14454SOL    HW245202   5.526   2.719   6.148
14455SOL     OW45203  11.810  13.559   0.889
14455SOL    HW145204  11.759  13.513   0.822
14455SOL    HW245205  11.748  13.574   0.961
14456SOL     OW45206   8.661   5.322  11.236
14456SOL    HW145207   8.647   5.375  11.158
14456SOL    HW245208   8.745   5.278  11.221
14457SOL     OW45209   1.723  12.476   6.868
14457SOL    HW145210   1.649  12.425   6.835
14457SOL    HW245211   1.729  12.551   6.808
14458SOL     OW45212   2.452   2.077   1.707
14458SOL    HW145213   2.535   2.061   1.753
14458SOL    HW245214   2.473   2.146   1.644
14459SOL     OW45215   8.924   9.357  14.273
14459SOL    HW145216   8.904   9.450  14.280
14459SOL    HW245217   8.937   9.328  14.364
14460SOL     OW45218   2.359   4.893   6.565
14460SOL    HW145219   2.294   4.947   6.521
14460SOL    HW245220   2.308   4.832   6.618
14461SOL     OW45221   7.339   1.299   1.157
14461SOL    HW145222   7.273   1.327   1.221
14461SOL    HW245223   7.317   1.207   1.138
14462SOL     OW45224   6.343  10.850   6.087
14462SOL    HW145225   6.359  10.891   6.002
14462SOL    HW245226   6.391  10.768   6.084
14463SOL     OW45227   1.459  10.537   2.561
14463SOL    HW145228   1.401  10.483   2.508
14463SOL    HW245229   1.460  10.622   2.516
14464SOL     OW45230   5.001   5.582   0.704
14464SOL    HW145231   4.918   5.545   0.675
14464SOL    HW245232   4.993   5.676   0.687
14465SOL     OW45233   2.233   1.565   9.735
14465SOL    HW145234   2.171   1.633   9.763
14465SOL    HW245235   2.275   1.601   9.657
14466SOL     OW45236   9.449   2.999   8.371
14466SOL    HW145237   9.480   2.990   8.461
14466SOL    HW245238   9.519   3.044   8.325
14467SOL     OW45239  10.111   2.637   3.750
14467SOL    HW145240  10.097   2.609   3.841
14467SOL    HW245241  10.025   2.667   3.721
14468SOL     OW45242   2.145   2.973   3.560
14468SOL    HW145243   2.171   3.059   3.593
14468SOL    HW245244   2.171   2.912   3.630
14469SOL     OW45245   9.401   4.017   6.867
14469SOL    HW145246   9.339   3.997   6.797
14469SOL    HW245247   9.369   4.099   6.905
14470SOL     OW45248   6.384   5.249   5.688
14470SOL    HW145249   6.311   5.309   5.703
14470SOL    HW245250   6.343   5.169   5.654
14471SOL     OW45251  11.986   3.123   7.056
14471SOL    HW145252  11.892   3.119   7.075
14471SOL    HW245253  11.991   3.177   6.977
14472SOL     OW45254  11.151   6.145   0.437
14472SOL    HW145255  11.197   6.216   0.392
14472SOL    HW245256  11.172   6.158   0.530
14473SOL     OW45257  14.322   2.882   2.544
14473SOL    HW145258  14.237   2.864   2.584
14473SOL    HW245259  14.317   2.843   2.457
14474SOL     OW45260   9.239  12.379  10.874
14474SOL    HW145261   9.201  12.408  10.957
14474SOL    HW245262   9.331  12.404  10.879
14475SOL     OW45263   8.632   5.277   4.183
14475SOL    HW145264   8.726   5.262   4.185
14475SOL    HW245265   8.622   5.363   4.142
14476SOL     OW45266  10.959   7.922   4.190
14476SOL    HW145267  10.985   7.999   4.239
14476SOL    HW245268  10.997   7.934   4.103
14477SOL     OW45269   7.080   4.057  13.739
14477SOL    HW145270   6.989   4.033  13.725
14477SOL    HW245271   7.076   4.132  13.798
14478SOL     OW45272  11.785   2.338   3.713
14478SOL    HW145273  11.868   2.349   3.667
14478SOL    HW245274  11.786   2.247   3.742
14479SOL     OW45275   5.825  12.807   8.355
14479SOL    HW145276   5.897  12.760   8.397
14479SOL    HW245277   5.752  12.745   8.353
14480SOL     OW45278  12.911   7.588  10.158
14480SOL    HW145279  12.948   7.666  10.200
14480SOL    HW245280  12.970   7.572  10.084
14481SOL     OW45281  10.614   7.855   1.226
14481SOL    HW145282  10.536   7.816   1.265
14481SOL    HW245283  10.659   7.782   1.182
14482SOL     OW45284   1.516  13.754  10.924
14482SOL    HW145285   1.536  13.662  10.938
14482SOL    HW245286   1.476  13.783  11.006
14483SOL     OW45287   1.873   5.925  13.747
14483SOL    HW145288   1.801   5.948  13.688
14483SOL    HW245289   1.949   5.969  13.710
14484SOL     OW45290   1.002  13.144   2.918
14484SOL    HW145291   0.913  13.113   2.932
14484SOL    HW245292   1.009  13.223   2.972
14485SOL     OW45293   1.685   5.610  13.821
14485SOL    HW145294   1.741   5.627  13.897
14485SOL    HW245295   1.608   5.567  13.857
14486SOL     OW45296   0.579   2.343   5.456
14486SOL    HW145297   0.605   2.392   5.533
14486SOL    HW245298   0.553   2.410   5.393
14487SOL     OW45299   6.636  12.626   6.726
14487SOL    HW145300   6.679  12.542   6.742
14487SOL    HW245301   6.657  12.646   6.635
14488SOL     OW45302   4.928   8.945   5.815
14488SOL    HW145303   4.892   9.030   5.787
14488SOL    HW245304   4.872   8.880   5.773
14489SOL     OW45305   0.390   2.224  11.337
14489SOL    HW145306   0.454   2.291  11.358
14489SOL    HW245307   0.412   2.150  11.394
14490SOL     OW45308   7.062   5.296   9.971
14490SOL    HW145309   7.114   5.216   9.985
14490SOL    HW245310   7.064   5.340  10.056
14491SOL     OW45311   1.506  10.396   4.912
14491SOL    HW145312   1.413  10.409   4.895
14491SOL    HW245313   1.510  10.370   5.004
14492SOL     OW45314   2.285   9.325   8.259
14492SOL    HW145315   2.321   9.348   8.173
14492SOL    HW245316   2.355   9.277   8.303
14493SOL     OW45317  12.018   3.141  12.980
14493SOL    HW145318  12.074   3.151  12.903
14493SOL    HW245319  12.076   3.105  13.047
14494SOL     OW45320   2.066   4.202   8.821
14494SOL    HW145321   2.139   4.142   8.837
14494SOL    HW245322   1.988   4.148   8.831
14495SOL     OW45323   3.667   7.521   7.719
14495SOL    HW145324   3.591   7.573   7.694
14495SOL    HW245325   3.636   7.430   7.718
14496SOL     OW45326   8.397  11.611   3.002
14496SOL    HW145327   8.432  11.558   2.930
14496SOL    HW245328   8.442  11.579   3.080
14497SOL     OW45329   5.033  12.265   2.099
14497SOL    HW145330   5.076  12.211   2.033
14497SOL    HW245331   5.094  12.267   2.173
14498SOL     OW45332   7.603  10.754   3.165
14498SOL    HW145333   7.633  10.673   3.206
14498SOL    HW245334   7.550  10.797   3.232
14499SOL     OW45335  10.659   7.795  14.271
14499SOL    HW145336  10.637   7.779  14.179
14499SOL    HW245337  10.686   7.710  14.305
14500SOL     OW45338   2.044   8.428  10.825
14500SOL    HW145339   2.036   8.339  10.860
14500SOL    HW245340   1.957   8.449  10.792
14501SOL     OW45341  14.306  10.773   7.152
14501SOL    HW145342  14.397  10.751   7.134
14501SOL    HW245343  14.285  10.727   7.233
14502SOL     OW45344   9.962   7.711  14.541
14502SOL    HW145345   9.922   7.787  14.499
14502SOL    HW245346   9.892   7.645  14.541
14503SOL     OW45347   4.982   3.260  10.099
14503SOL    HW145348   5.008   3.218  10.017
14503SOL    HW245349   4.887   3.272  10.091
14504SOL     OW45350   4.604  10.228   6.861
14504SOL    HW145351   4.680  10.206   6.915
14504SOL    HW245352   4.582  10.318   6.886
14505SOL     OW45353   1.167   2.448   9.230
14505SOL    HW145354   1.126   2.534   9.231
14505SOL    HW245355   1.169   2.423   9.138
14506SOL     OW45356   9.903   1.732   1.913
14506SOL    HW145357   9.857   1.685   1.983
14506SOL    HW245358   9.925   1.817   1.952
14507SOL     OW45359   8.761  10.849   1.783
14507SOL    HW145360   8.817  10.878   1.711
14507SOL    HW245361   8.672  10.860   1.751
14508SOL     OW45362  13.005   1.121   6.700
14508SOL    HW145363  12.930   1.066   6.677
14508SOL    HW245364  12.973   1.176   6.773
14509SOL     OW45365   8.040   4.242   8.493
14509SOL    HW145366   8.058   4.154   8.459
14509SOL    HW245367   8.123   4.270   8.530
14510SOL     OW45368   3.495   8.318   6.981
14510SOL    HW145369   3.590   8.318   6.972
14510SOL    HW245370   3.464   8.369   6.906
14511SOL     OW45371  12.816  11.948  11.222
14511SOL    HW145372  12.851  12.037  11.222
14511SOL    HW245373  12.722  11.959  11.206
14512SOL     OW45374   5.733   7.814  12.856
14512SOL    HW145375   5.782   7.732  12.857
14512SOL    HW245376   5.653   7.795  12.904
14513SOL     OW45377   0.234   9.931   1.392
14513SOL    HW145378   0.182   9.949   1.314
14513SOL    HW245379   0.235   9.836   1.400
14514SOL     OW45380  14.412  11.048   2.882
14514SOL    HW145381  14.428  10.965   2.926
14514SOL    HW245382  14.323  11.072   2.907
14515SOL     OW45383  11.714   5.300  14.569
14515SOL    HW145384  11.738   5.310  14.477
14515SOL    HW245385  11.701   5.205  14.580
14516SOL     OW45386   4.980  10.321   2.503
14516SOL    HW145387   4.984  10.390   2.570
14516SOL    HW245388   4.911  10.349   2.444
14517SOL     OW45389  13.031  12.225   6.377
14517SOL    HW145390  12.943  12.234   6.342
14517SOL    HW245391  13.055  12.134   6.361
14518SOL     OW45392  14.184  10.905   6.957
14518SOL    HW145393  14.234  10.865   7.028
14518SOL    HW245394  14.170  10.995   6.987
14519SOL     OW45395   2.632   2.016   8.275
14519SOL    HW145396   2.633   1.953   8.203
14519SOL    HW245397   2.547   2.059   8.270
14520SOL     OW45398   8.431   2.037  13.300
14520SOL    HW145399   8.405   2.091  13.225
14520SOL    HW245400   8.378   2.072  13.372
14521SOL     OW45401   7.562   0.136  14.673
14521SOL    HW145402   7.621   0.076  14.717
14521SOL    HW245403   7.597   0.143  14.584
14522SOL     OW45404   2.270   3.159  10.669
14522SOL    HW145405   2.318   3.102  10.729
14522SOL    HW245406   2.256   3.105  10.591
14523SOL     OW45407   6.545  10.905  11.355
14523SOL    HW145408   6.494  10.982  11.382
14523SOL    HW245409   6.576  10.926  11.267
14524SOL     OW45410   8.965   3.582  13.875
14524SOL    HW145411   8.900   3.536  13.927
14524SOL    HW245412   8.931   3.671  13.867
14525SOL     OW45413   3.224   8.879   7.369
14525SOL    HW145414   3.298   8.820   7.361
14525SOL    HW245415   3.231   8.916   7.457
14526SOL     OW45416   7.507   0.784  12.840
14526SOL    HW145417   7.445   0.751  12.905
14526SOL    HW245418   7.466   0.763  12.756
14527SOL     OW45419  11.221   9.373  10.873
14527SOL    HW145420  11.300   9.320  10.868
14527SOL    HW245421  11.214   9.396  10.966
14528SOL     OW45422  11.136   1.568  11.767
14528SOL    HW145423  11.043   1.586  11.756
14528SOL    HW245424  11.176   1.653  11.785
14529SOL     OW45425   2.292   3.922   1.343
14529SOL    HW145426   2.313   3.933   1.250
14529SOL    HW245427   2.364   3.965   1.389
14530SOL     OW45428   9.217  10.367  11.185
14530SOL    HW145429   9.189  10.290  11.136
14530SOL    HW245430   9.136  10.406  11.217
14531SOL     OW45431   7.544  12.771   1.716
14531SOL    HW145432   7.533  12.677   1.698
14531SOL    HW245433   7.592  12.804   1.640
14532SOL     OW45434   2.475  13.059   0.341
14532SOL    HW145435   2.529  12.979   0.346
14532SOL    HW245436   2.465  13.086   0.433
14533SOL     OW45437   1.314  12.418   0.985
14533SOL    HW145438   1.259  12.409   0.908
14533SOL    HW245439   1.346  12.509   0.982
14534SOL     OW45440   7.258   8.562   2.426
14534SOL    HW145441   7.237   8.553   2.519
14534SOL    HW245442   7.188   8.514   2.381
14535SOL     OW45443   2.216   0.739  12.355
14535SOL    HW145444   2.250   0.760  12.442
14535SOL    HW245445   2.157   0.811  12.334
14536SOL     OW45446   8.223   4.247  11.600
14536SOL    HW145447   8.159   4.245  11.528
14536SOL    HW245448   8.214   4.162  11.642
14537SOL     OW45449  10.687   1.202   1.277
14537SOL    HW145450  10.739   1.163   1.348
14537SOL    HW245451  10.752   1.245   1.221
14538SOL     OW45452   4.345   3.571   0.333
14538SOL    HW145453   4.277   3.522   0.381
14538SOL    HW245454   4.372   3.640   0.394
14539SOL     OW45455   9.162  11.147   1.265
14539SOL    HW145456   9.084  11.101   1.233
14539SOL    HW245457   9.236  11.093   1.236
14540SOL     OW45458  11.675   7.517   9.601
14540SOL    HW145459  11.671   7.554   9.513
14540SOL    HW245460  11.625   7.435   9.594
14541SOL     OW45461  11.067   6.037   1.890
14541SOL    HW145462  11.120   6.102   1.936
14541SOL    HW245463  11.072   5.958   1.945
14542SOL     OW45464  10.506  10.340  12.097
14542SOL    HW145465  10.462  10.265  12.137
14542SOL    HW245466  10.434  10.398  12.071
14543SOL     OW45467   9.901   8.820  11.950
14543SOL    HW145468   9.877   8.740  11.997
14543SOL    HW245469   9.944   8.875  12.015
14544SOL     OW45470   6.656   4.511   9.170
14544SOL    HW145471   6.590   4.470   9.115
14544SOL    HW245472   6.710   4.439   9.201
14545SOL     OW45473  12.631   2.338  14.308
14545SOL    HW145474  12.675   2.322  14.391
14545SOL    HW245475  12.628   2.252  14.265
14546SOL     OW45476   7.004   2.794   8.809
14546SOL    HW145477   6.951   2.874   8.820
14546SOL    HW245478   6.943   2.723   8.830
14547SOL     OW45479   2.432   9.924  10.090
14547SOL    HW145480   2.526   9.932  10.109
14547SOL    HW245481   2.398   9.866  10.157
14548SOL     OW45482  12.908   0.993  12.681
14548SOL    HW145483  12.850   0.917  12.688
14548SOL    HW245484  12.892   1.027  12.593
14549SOL     OW45485   0.326   3.771   0.465
14549SOL    HW145486   0.405   3.764   0.411
14549SOL    HW245487   0.255   3.785   0.403
14550SOL     OW45488   1.935   7.711  11.055
14550SOL    HW145489   1.951   7.621  11.080
14550SOL    HW245490   1.843   7.727  11.077
14551SOL     OW45491  14.635  14.689   3.703
14551SOL    HW145492  14.655  14.723   3.790
14551SOL    HW245493  14.696  14.615   3.692
14552SOL     OW45494   1.608   7.585   2.260
14552SOL    HW145495   1.699   7.579   2.231
14552SOL    HW245496   1.561   7.519   2.208
14553SOL     OW45497   7.047   9.560   5.585
14553SOL    HW145498   7.004   9.553   5.499
14553SOL    HW245499   7.131   9.518   5.574
14554SOL     OW45500   2.623   0.430   5.016
14554SOL    HW145501   2.563   0.427   5.091
14554SOL    HW245502   2.603   0.350   4.967
14555SOL     OW45503   9.766   6.701   8.282
14555SOL    HW145504   9.836   6.673   8.223
14555SOL    HW245505   9.812   6.727   8.362
14556SOL     OW45506   4.390   2.298  10.040
14556SOL    HW145507   4.299   2.274  10.021
14556SOL    HW245508   4.440   2.260   9.968
14557SOL     OW45509   5.334   9.402  10.181
14557SOL    HW145510   5.256   9.456  10.195
14557SOL    HW245511   5.351   9.361  10.265
14558SOL     OW45512   2.956   4.611   5.364
14558SOL    HW145513   2.864   4.637   5.376
14558SOL    HW245514   2.954   4.550   5.291
14559SOL     OW45515  11.035  11.151   8.321
14559SOL    HW145516  11.061  11.136   8.231
14559SOL    HW245517  10.950  11.108   8.329
14560SOL     OW45518   3.572   8.228   6.139
14560SOL    HW145519   3.505   8.194   6.197
14560SOL    HW245520   3.654   8.194   6.174
14561SOL     OW45521   5.627  10.292  13.042
14561SOL    HW145522   5.657  10.370  13.090
14561SOL    HW245523   5.623  10.321  12.951
14562SOL     OW45524   0.505   9.482  14.810
14562SOL    HW145525   0.587   9.490  14.760
14562SOL    HW245526   0.499   9.564  14.859
14563SOL     OW45527   5.192  11.132   3.075
14563SOL    HW145528   5.209  11.038   3.074
14563SOL    HW245529   5.261  11.170   3.021
14564SOL     OW45530   0.877   0.913   8.443
14564SOL    HW145531   0.959   0.873   8.413
14564SOL    HW245532   0.905   0.997   8.481
14565SOL     OW45533   1.005  11.628   0.621
14565SOL    HW145534   0.980  11.552   0.568
14565SOL    HW245535   0.993  11.703   0.564
14566SOL     OW45536   5.918  12.571   1.166
14566SOL    HW145537   5.970  12.559   1.245
14566SOL    HW245538   5.827  12.560   1.195
14567SOL     OW45539   6.794   8.451  13.050
14567SOL    HW145540   6.804   8.489  12.962
14567SOL    HW245541   6.882   8.419  13.072
14568SOL     OW45542   9.619   9.793   6.471
14568SOL    HW145543   9.588   9.883   6.461
14568SOL    HW245544   9.714   9.801   6.483
14569SOL     OW45545  10.104   2.448  10.886
14569SOL    HW145546  10.063   2.383  10.944
14569SOL    HW245547  10.042   2.520  10.882
14570SOL     OW45548   7.667   8.107   9.726
14570SOL    HW145549   7.700   8.191   9.694
14570SOL    HW245550   7.628   8.065   9.650
14571SOL     OW45551   8.732   5.425  14.464
14571SOL    HW145552   8.637   5.437  14.468
14571SOL    HW245553   8.747   5.336  14.494
14572SOL     OW45554   7.276   2.312   9.170
14572SOL    HW145555   7.277   2.405   9.146
14572SOL    HW245556   7.221   2.271   9.104
14573SOL     OW45557   0.005  10.251   3.418
14573SOL    HW145558  14.815  10.213   3.479
14573SOL    HW245559   0.090  10.242   3.461
14574SOL     OW45560   6.264   1.930   8.883
14574SOL    HW145561   6.297   1.987   8.813
14574SOL    HW245562   6.174   1.909   8.856
14575SOL     OW45563   5.869   9.057   4.361
14575SOL    HW145564   5.928   8.986   4.387
14575SOL    HW245565   5.887   9.071   4.268
14576SOL     OW45566  14.200   1.387  13.698
14576SOL    HW145567  14.135   1.320  13.676
14576SOL    HW245568  14.148   1.467  13.710
14577SOL     OW45569  14.061  12.540   3.089
14577SOL    HW145570  14.133  12.491   3.128
14577SOL    HW245571  13.982  12.492   3.115
14578SOL     OW45572   1.189   2.744   7.432
14578SOL    HW145573   1.164   2.748   7.524
14578SOL    HW245574   1.217   2.654   7.418
14579SOL     OW45575   1.505   0.392  12.156
14579SOL    HW145576   1.418   0.403  12.192
14579SOL    HW245577   1.515   0.298  12.145
14580SOL     OW45578  11.069   6.863   6.033
14580SOL    HW145579  11.009   6.788   6.028
14580SOL    HW245580  11.154   6.825   6.051
14581SOL     OW45581   4.367  13.250   3.260
14581SOL    HW145582   4.365  13.251   3.356
14581SOL    HW245583   4.392  13.161   3.237
14582SOL     OW45584  12.471  10.843   2.387
14582SOL    HW145585  12.455  10.934   2.411
14582SOL    HW245586  12.390  10.797   2.409
14583SOL     OW45587   2.493   7.449   7.271
14583SOL    HW145588   2.472   7.418   7.182
14583SOL    HW245589   2.413   7.432   7.321
14584SOL     OW45590   5.115   5.918   0.926
14584SOL    HW145591   5.071   5.864   0.860
14584SOL    HW245592   5.046   5.937   0.991
14585SOL     OW45593  12.652   4.698   1.670
14585SOL    HW145594  12.660   4.778   1.618
14585SOL    HW245595  12.563   4.667   1.654
14586SOL     OW45596  12.789   1.591   4.550
14586SOL    HW145597  12.798   1.552   4.637
14586SOL    HW245598  12.803   1.519   4.489
14587SOL     OW45599  12.332   5.516   7.443
14587SOL    HW145600  12.375   5.584   7.495
14587SOL    HW245601  12.341   5.546   7.352
14588SOL     OW45602  10.660   8.760   3.483
14588SOL    HW145603  10.583   8.815   3.469
14588SOL    HW245604  10.733   8.812   3.451
14589SOL     OW45605   2.985   7.983   5.637
14589SOL    HW145606   2.894   7.952   5.633
14589SOL    HW245607   3.037   7.902   5.633
14590SOL     OW45608   7.614  11.885  10.011
14590SOL    HW145609   7.640  11.828  10.083
14590SOL    HW245610   7.527  11.852   9.985
14591SOL     OW45611   6.477  14.556   7.470
14591SOL    HW145612   6.415  14.612   7.516
14591SOL    HW245613   6.428  14.522   7.395
14592SOL     OW45614  11.738   2.592  14.049
14592SOL    HW145615  11.732   2.503  14.015
14592SOL    HW245616  11.800   2.636  13.991
14593SOL     OW45617   1.916  14.074   1.423
14593SOL    HW145618   1.878  14.114   1.501
14593SOL    HW245619   1.900  13.981   1.433
14594SOL     OW45620   0.788  13.003  13.721
14594SOL    HW145621   0.739  12.989  13.802
14594SOL    HW245622   0.871  13.041  13.750
14595SOL     OW45623   4.885   6.844   4.212
14595SOL    HW145624   4.907   6.910   4.277
14595SOL    HW245625   4.790   6.851   4.202
14596SOL     OW45626   8.161  11.243  14.539
14596SOL    HW145627   8.089  11.305  14.528
14596SOL    HW245628   8.126  11.177  14.600
14597SOL     OW45629   1.277   6.051   8.541
14597SOL    HW145630   1.228   5.990   8.485
14597SOL    HW245631   1.217   6.072   8.612
14598SOL     OW45632  10.256   0.104   3.838
14598SOL    HW145633  10.267   0.170   3.907
14598SOL    HW245634  10.315   0.131   3.768
14599SOL     OW45635   3.261  12.830   6.968
14599SOL    HW145636   3.183  12.848   6.915
14599SOL    HW245637   3.303  12.915   6.978
14600SOL     OW45638   9.571  11.111  13.708
14600SOL    HW145639   9.615  11.076  13.630
14600SOL    HW245640   9.571  11.206  13.695
14601SOL     OW45641   3.039   8.837   7.164
14601SOL    HW145642   2.991   8.784   7.227
14601SOL    HW245643   3.107   8.881   7.216
14602SOL     OW45644  11.532   5.858   4.540
14602SOL    HW145645  11.506   5.833   4.451
14602SOL    HW245646  11.520   5.779   4.592
14603SOL     OW45647   4.951   5.842   8.908
14603SOL    HW145648   4.916   5.840   8.819
14603SOL    HW245649   5.046   5.830   8.896
14604SOL     OW45650  12.918   7.033   9.936
14604SOL    HW145651  12.854   7.049  10.005
14604SOL    HW245652  12.865   7.024   9.857
14605SOL     OW45653   6.476   9.085   6.388
14605SOL    HW145654   6.436   8.998   6.383
14605SOL    HW245655   6.565   9.068   6.421
14606SOL     OW45656  12.246   1.164   5.653
14606SOL    HW145657  12.282   1.185   5.740
14606SOL    HW245658  12.197   1.242   5.628
14607SOL     OW45659   8.670   7.054   1.402
14607SOL    HW145660   8.766   7.050   1.396
14607SOL    HW245661   8.642   6.963   1.397
14608SOL     OW45662   7.329   0.732  11.694
14608SOL    HW145663   7.267   0.717  11.623
14608SOL    HW245664   7.276   0.738  11.772
14609SOL     OW45665   7.945   0.230   2.710
14609SOL    HW145666   8.033   0.259   2.734
14609SOL    HW245667   7.955   0.138   2.687
14610SOL     OW45668   3.702   1.379   0.278
14610SOL    HW145669   3.791   1.346   0.291
14610SOL    HW245670   3.714   1.462   0.232
14611SOL     OW45671   3.340  11.082   6.872
14611SOL    HW145672   3.273  11.020   6.844
14611SOL    HW245673   3.381  11.041   6.948
14612SOL     OW45674   2.984  10.952   4.790
14612SOL    HW145675   3.030  10.891   4.848
14612SOL    HW245676   2.901  10.909   4.770
14613SOL     OW45677   8.966  14.156   6.691
14613SOL    HW145678   8.883  14.119   6.662
14613SOL    HW245679   8.941  14.234   6.741
14614SOL     OW45680  13.396   6.528   7.302
14614SOL    HW145681  13.404   6.492   7.390
14614SOL    HW245682  13.321   6.482   7.264
14615SOL     OW45683   9.595   9.789   2.347
14615SOL    HW145684   9.528   9.723   2.331
14615SOL    HW245685   9.617   9.779   2.440
14616SOL     OW45686   2.898  13.711   4.000
14616SOL    HW145687   2.894  13.798   4.041
14616SOL    HW245688   2.952  13.724   3.923
14617SOL     OW45689   3.032   2.997   8.375
14617SOL    HW145690   3.071   3.083   8.392
14617SOL    HW245691   3.061   2.942   8.448
14618SOL     OW45692   0.303  11.651   0.304
14618SOL    HW145693   0.359  11.641   0.227
14618SOL    HW245694   0.230  11.591   0.288
14619SOL     OW45695   2.664  11.745  12.604
14619SOL    HW145696   2.731  11.722  12.540
14619SOL    HW245697   2.633  11.831  12.577
14620SOL     OW45698   1.129  14.435  11.408
14620SOL    HW145699   1.037  14.459  11.395
14620SOL    HW245700   1.160  14.497  11.475
14621SOL     OW45701  13.473   3.491  13.440
14621SOL    HW145702  13.553   3.478  13.388
14621SOL    HW245703  13.504   3.517  13.526
14622SOL     OW45704   4.954   9.161   1.432
14622SOL    HW145705   4.955   9.072   1.398
14622SOL    HW245706   5.040   9.197   1.409
14623SOL     OW45707  12.048  11.359   0.072
14623SOL    HW145708  12.035  11.393   0.161
14623SOL    HW245709  12.090  11.274   0.084
14624SOL     OW45710  11.487   7.255   4.548
14624SOL    HW145711  11.402   7.288   4.579
14624SOL    HW245712  11.492   7.286   4.457
14625SOL     OW45713   5.711   6.236   3.410
14625SOL    HW145714   5.772   6.280   3.352
14625SOL    HW245715   5.625   6.269   3.384
14626SOL     OW45716   4.995   0.946   4.457
14626SOL    HW145717   4.908   0.922   4.424
14626SOL    HW245718   4.987   1.039   4.479
14627SOL     OW45719   4.710  14.149   1.947
14627SOL    HW145720   4.702  14.117   1.857
14627SOL    HW245721   4.674  14.079   2.001
14628SOL     OW45722   1.000   2.027   1.494
14628SOL    HW145723   1.093   2.045   1.482
14628SOL    HW245724   0.984   2.044   1.587
14629SOL     OW45725   9.366  11.308   6.872
14629SOL    HW145726   9.317  11.248   6.816
14629SOL    HW245727   9.369  11.390   6.823
14630SOL     OW45728   3.118   6.190   6.335
14630SOL    HW145729   3.072   6.263   6.376
14630SOL    HW245730   3.156   6.227   6.256
14631SOL     OW45731   5.669  13.025   7.280
14631SOL    HW145732   5.746  12.974   7.255
14631SOL    HW245733   5.605  13.008   7.212
14632SOL     OW45734   6.332  10.366  10.930
14632SOL    HW145735   6.329  10.414  10.848
14632SOL    HW245736   6.412  10.315  10.925
14633SOL     OW45737   3.845   0.914  12.942
14633SOL    HW145738   3.811   0.828  12.917
14633SOL    HW245739   3.777   0.976  12.915
14634SOL     OW45740   5.331   1.400   1.746
14634SOL    HW145741   5.366   1.344   1.676
14634SOL    HW245742   5.338   1.489   1.711
14635SOL     OW45743   3.005  10.931   8.840
14635SOL    HW145744   3.011  11.015   8.794
14635SOL    HW245745   2.937  10.883   8.792
14636SOL     OW45746   2.654  11.006  11.475
14636SOL    HW145747   2.732  11.048  11.513
14636SOL    HW245748   2.686  10.922  11.441
14637SOL     OW45749   5.737  10.733   9.961
14637SOL    HW145750   5.766  10.718  10.051
14637SOL    HW245751   5.665  10.796   9.970
14638SOL     OW45752  13.117   0.630   9.144
14638SOL    HW145753  13.100   0.612   9.236
14638SOL    HW245754  13.201   0.676   9.142
14639SOL     OW45755   5.691   2.925  13.565
14639SOL    HW145756   5.692   2.964  13.477
14639SOL    HW245757   5.783   2.902  13.582
14640SOL     OW45758   1.167  10.605   3.479
14640SOL    HW145759   1.090  10.555   3.452
14640SOL    HW245760   1.204  10.554   3.551
14641SOL     OW45761   1.745   9.677  12.960
14641SOL    HW145762   1.740   9.659  12.866
14641SOL    HW245763   1.705   9.763  12.970
14642SOL     OW45764   0.136  11.581  11.259
14642SOL    HW145765   0.164  11.611  11.173
14642SOL    HW245766   0.055  11.629  11.276
14643SOL     OW45767   0.849  13.741   6.243
14643SOL    HW145768   0.909  13.754   6.316
14643SOL    HW245769   0.906  13.716   6.170
14644SOL     OW45770  10.704   1.642   1.007
14644SOL    HW145771  10.663   1.725   1.031
14644SOL    HW245772  10.785   1.668   0.962
14645SOL     OW45773   1.188   2.915   7.063
14645SOL    HW145774   1.248   2.990   7.064
14645SOL    HW245775   1.102   2.953   7.079
14646SOL     OW45776  10.684  13.654   8.280
14646SOL    HW145777  10.688  13.693   8.367
14646SOL    HW245778  10.594  13.623   8.271
14647SOL     OW45779   2.371   2.611   9.087
14647SOL    HW145780   2.414   2.542   9.137
14647SOL    HW245781   2.351   2.571   9.003
14648SOL     OW45782   1.362  13.577   2.320
14648SOL    HW145783   1.348  13.652   2.262
14648SOL    HW245784   1.292  13.515   2.297
14649SOL     OW45785  13.769   4.907   6.512
14649SOL    HW145786  13.758   4.813   6.526
14649SOL    HW245787  13.820   4.913   6.432
14650SOL     OW45788   8.374   2.886   5.032
14650SOL    HW145789   8.409   2.843   5.110
14650SOL    HW245790   8.412   2.973   5.033
14651SOL     OW45791   9.595   3.575  12.404
14651SOL    HW145792   9.638   3.599  12.487
14651SOL    HW245793   9.558   3.489  12.420
14652SOL     OW45794  11.308   9.281   7.677
14652SOL    HW145795  11.375   9.277   7.609
14652SOL    HW245796  11.328   9.207   7.735
14653SOL     OW45797  11.632   8.467  14.532
14653SOL    HW145798  11.672   8.514  14.605
14653SOL    HW245799  11.538   8.468  14.552
14654SOL     OW45800   3.696   1.219   3.978
14654SOL    HW145801   3.773   1.163   3.984
14654SOL    HW245802   3.688   1.258   4.066
14655SOL     OW45803   9.464   1.702   5.371
14655SOL    HW145804   9.492   1.631   5.427
14655SOL    HW245805   9.530   1.770   5.382
14656SOL     OW45806   8.413  10.767   5.877
14656SOL    HW145807   8.367  10.744   5.796
14656SOL    HW245808   8.345  10.769   5.944
14657SOL     OW45809   1.346  11.689   3.400
14657SOL    HW145810   1.313  11.762   3.452
14657SOL    HW245811   1.422  11.657   3.448
14658SOL     OW45812   9.512   8.579  12.725
14658SOL    HW145813   9.522   8.557  12.632
14658SOL    HW245814   9.496   8.673  12.726
14659SOL     OW45815  13.140   8.380  11.222
14659SOL    HW145816  13.092   8.444  11.275
14659SOL    HW245817  13.105   8.390  11.134
14660SOL     OW45818   3.152  11.564  10.162
14660SOL    HW145819   3.098  11.490  10.190
14660SOL    HW245820   3.188  11.600  10.242
14661SOL     OW45821   9.879  13.837   4.074
14661SOL    HW145822   9.835  13.922   4.070
14661SOL    HW245823   9.965  13.856   4.109
14662SOL     OW45824   3.257   0.797  13.649
14662SOL    HW145825   3.179   0.844  13.620
14662SOL    HW245826   3.278   0.835  13.734
14663SOL     OW45827  11.625   8.875   4.937
14663SOL    HW145828  11.717   8.867   4.962
14663SOL    HW245829  11.589   8.937   5.001
14664SOL     OW45830  14.045   6.652  11.549
14664SOL    HW145831  13.990   6.574  11.538
14664SOL    HW245832  14.079   6.644  11.638
14665SOL     OW45833   9.716   1.785   6.810
14665SOL    HW145834   9.789   1.846   6.797
14665SOL    HW245835   9.757   1.698   6.811
14666SOL     OW45836   0.530  13.811   8.978
14666SOL    HW145837   0.616  13.790   9.014
14666SOL    HW245838   0.469  13.766   9.037
14667SOL     OW45839   0.065   5.437   5.315
14667SOL    HW145840   0.050   5.365   5.253
14667SOL    HW245841   0.158   5.457   5.308
14668SOL     OW45842  12.130   4.526   8.827
14668SOL    HW145843  12.075   4.506   8.902
14668SOL    HW245844  12.069   4.531   8.753
14669SOL     OW45845  11.012   1.687   9.501
14669SOL    HW145846  11.085   1.675   9.441
14669SOL    HW245847  11.013   1.609   9.556
14670SOL     OW45848   5.453   8.832   2.361
14670SOL    HW145849   5.443   8.737   2.365
14670SOL    HW245850   5.393   8.865   2.428
14671SOL     OW45851   8.127   3.932   2.019
14671SOL    HW145852   8.125   4.013   1.968
14671SOL    HW245853   8.062   3.875   1.977
14672SOL     OW45854  13.716   1.337   4.377
14672SOL    HW145855  13.638   1.285   4.398
14672SOL    HW245856  13.683   1.408   4.322
14673SOL     OW45857   2.492   4.852  12.841
14673SOL    HW145858   2.504   4.934  12.793
14673SOL    HW245859   2.489   4.878  12.933
14674SOL     OW45860   2.525   8.283   3.763
14674SOL    HW145861   2.603   8.326   3.727
14674SOL    HW245862   2.453   8.318   3.711
14675SOL     OW45863   8.958   8.523  14.573
14675SOL    HW145864   8.866   8.528  14.600
14675SOL    HW245865   8.975   8.607  14.530
14676SOL     OW45866   9.486   1.657   3.193
14676SOL    HW145867   9.399   1.662   3.153
14676SOL    HW245868   9.483   1.721   3.265
14677SOL     OW45869  11.233  14.443   3.014
14677SOL    HW145870  11.183  14.518   2.980
14677SOL    HW245871  11.319  14.451   2.974
14678SOL     OW45872  10.625  12.688   0.082
14678SOL    HW145873  10.653  12.680  14.864
14678SOL    HW245874  10.559  12.758   0.081
14679SOL     OW45875   8.854   3.924   2.723
14679SOL    HW145876   8.924   3.902   2.785
14679SOL    HW245877   8.783   3.864   2.745
14680SOL     OW45878   0.326   8.735   7.868
14680SOL    HW145879   0.398   8.707   7.926
14680SOL    HW245880   0.341   8.686   7.787
14681SOL     OW45881  11.117   9.733   9.163
14681SOL    HW145882  11.113   9.772   9.076
14681SOL    HW245883  11.038   9.763   9.207
14682SOL     OW45884  12.936   7.397  11.326
14682SOL    HW145885  12.891   7.475  11.358
14682SOL    HW245886  12.866   7.334  11.308
14683SOL     OW45887  10.167   9.578  10.458
14683SOL    HW145888  10.149   9.593  10.365
14683SOL    HW245889  10.138   9.488  10.473
14684SOL     OW45890   0.323  14.728   3.711
14684SOL    HW145891   0.414  14.747   3.734
14684SOL    HW245892   0.306  14.641   3.747
14685SOL     OW45893   3.475   9.819   4.868
14685SOL    HW145894   3.492   9.835   4.960
14685SOL    HW245895   3.389   9.858   4.852
14686SOL     OW45896   0.001  10.324   0.426
14686SOL    HW145897   0.094  10.326   0.404
14686SOL    HW245898  14.831  10.287   0.348
14687SOL     OW45899   7.521   7.331   7.935
14687SOL    HW145900   7.437   7.368   7.961
14687SOL    HW245901   7.573   7.407   7.908
14688SOL     OW45902  11.052  12.707   5.941
14688SOL    HW145903  11.061  12.616   5.912
14688SOL    HW245904  11.138  12.730   5.976
14689SOL     OW45905   4.915   6.759   7.129
14689SOL    HW145906   4.932   6.667   7.106
14689SOL    HW245907   4.969   6.809   7.067
14690SOL     OW45908  10.163   4.519   7.305
14690SOL    HW145909  10.171   4.540   7.398
14690SOL    HW245910  10.147   4.425   7.303
14691SOL     OW45911   2.392  13.388  12.644
14691SOL    HW145912   2.386  13.424  12.556
14691SOL    HW245913   2.303  13.361  12.666
14692SOL     OW45914   2.580   7.029  11.901
14692SOL    HW145915   2.572   7.059  11.992
14692SOL    HW245916   2.607   7.106  11.852
14693SOL     OW45917   5.821   2.390   1.503
14693SOL    HW145918   5.859   2.304   1.484
14693SOL    HW245919   5.752   2.401   1.437
14694SOL     OW45920  13.799   9.843  13.160
14694SOL    HW145921  13.747   9.763  13.154
14694SOL    HW245922  13.889   9.812  13.171
14695SOL     OW45923   3.446   1.028   3.931
14695SOL    HW145924   3.460   1.038   4.026
14695SOL    HW245925   3.370   0.970   3.924
14696SOL     OW45926   3.606   5.294  10.412
14696SOL    HW145927   3.596   5.345  10.332
14696SOL    HW245928   3.580   5.205  10.388
14697SOL     OW45929   2.212   0.558   9.706
14697SOL    HW145930   2.155   0.534   9.633
14697SOL    HW245931   2.152   0.584   9.776
14698SOL     OW45932   9.196  12.876  11.131
14698SOL    HW145933   9.281  12.919  11.122
14698SOL    HW245934   9.185  12.864  11.226
14699SOL     OW45935   6.832  10.500   9.877
14699SOL    HW145936   6.903  10.442   9.905
14699SOL    HW245937   6.762  10.440   9.850
14700SOL     OW45938   4.801  14.293   3.501
14700SOL    HW145939   4.809  14.200   3.521
14700SOL    HW245940   4.888  14.318   3.469
14701SOL     OW45941   1.937  13.375   3.848
14701SOL    HW145942   2.000  13.433   3.890
14701SOL    HW245943   1.977  13.354   3.763
14702SOL     OW45944   7.177   3.850   9.077
14702SOL    HW145945   7.234   3.917   9.039
14702SOL    HW245946   7.211   3.767   9.042
14703SOL     OW45947  11.904   8.690   6.196
14703SOL    HW145948  11.945   8.631   6.259
14703SOL    HW245949  11.890   8.772   6.244
14704SOL     OW45950  14.779  13.382  12.392
14704SOL    HW145951  14.699  13.334  12.373
14704SOL    HW245952  14.750  13.472  12.410
14705SOL     OW45953  12.211  10.134   1.480
14705SOL    HW145954  12.225  10.209   1.538
14705SOL    HW245955  12.125  10.101   1.504
14706SOL     OW45956  11.279   5.976   2.956
14706SOL    HW145957  11.279   6.008   3.046
14706SOL    HW245958  11.196   5.930   2.947
14707SOL     OW45959  12.510   3.959  13.653
14707SOL    HW145960  12.510   4.046  13.694
14707SOL    HW245961  12.603   3.936  13.646
14708SOL     OW45962   3.042   2.169   7.258
14708SOL    HW145963   3.133   2.164   7.230
14708SOL    HW245964   3.042   2.131   7.346
14709SOL     OW45965   1.668   1.733   7.498
14709SOL    HW145966   1.704   1.822   7.505
14709SOL    HW245967   1.652   1.706   7.588
14710SOL     OW45968   9.967   9.492   2.445
14710SOL    HW145969  10.026   9.420   2.421
14710SOL    HW245970   9.879   9.454   2.439
14711SOL     OW45971  12.223   6.357   2.619
14711SOL    HW145972  12.131   6.377   2.637
14711SOL    HW245973  12.267   6.442   2.625
14712SOL     OW45974   0.173   8.173   8.169
14712SOL    HW145975   0.160   8.215   8.254
14712SOL    HW245976   0.147   8.082   8.184
14713SOL     OW45977   6.954   4.794  12.370
14713SOL    HW145978   7.018   4.724  12.383
14713SOL    HW245979   6.935   4.827  12.458
14714SOL     OW45980   6.059   9.611  11.477
14714SOL    HW145981   6.059   9.696  11.520
14714SOL    HW245982   5.990   9.618  11.410
14715SOL     OW45983   0.604   9.147  13.058
14715SOL    HW145984   0.526   9.147  13.114
14715SOL    HW245985   0.585   9.211  12.990
14716SOL     OW45986   3.665   0.854  11.103
14716SOL    HW145987   3.660   0.921  11.034
14716SOL    HW245988   3.759   0.847  11.122
14717SOL     OW45989   7.417  10.383   2.382
14717SOL    HW145990   7.508  10.387   2.351
14717SOL    HW245991   7.374  10.324   2.320
14718SOL     OW45992   7.913   8.441   5.567
14718SOL    HW145993   7.945   8.358   5.602
14718SOL    HW245994   7.956   8.508   5.620
14719SOL     OW45995  14.186   2.330   7.924
14719SOL    HW145996  14.227   2.268   7.864
14719SOL    HW245997  14.166   2.278   8.002
14720SOL     OW45998   8.378  14.825   5.289
14720SOL    HW145999   8.419   0.034   5.316
14720SOL    HW246000   8.312  14.807   5.357
14721SOL     OW46001   9.545   4.977   4.123
14721SOL    HW146002   9.598   4.899   4.107
14721SOL    HW246003   9.455   4.945   4.117
14722SOL     OW46004   4.090  10.634   2.156
14722SOL    HW146005   4.074  10.728   2.162
14722SOL    HW246006   4.179  10.627   2.120
14723SOL     OW46007  13.558  13.726   2.967
14723SOL    HW146008  13.548  13.787   3.040
14723SOL    HW246009  13.558  13.639   3.007
14724SOL     OW46010  13.264  11.425  12.638
14724SOL    HW146011  13.338  11.365  12.630
14724SOL    HW246012  13.187  11.368  12.636
14725SOL     OW46013   3.761   3.208  13.075
14725SOL    HW146014   3.776   3.287  13.127
14725SOL    HW246015   3.752   3.138  13.139
14726SOL     OW46016  13.292   4.510   1.101
14726SOL    HW146017  13.318   4.539   1.014
14726SOL    HW246018  13.364   4.538   1.158
14727SOL     OW46019   8.628  13.254  10.181
14727SOL    HW146020   8.599  13.203  10.105
14727SOL    HW246021   8.588  13.340  10.169
14728SOL     OW46022  10.464   8.492   5.511
14728SOL    HW146023  10.523   8.502   5.586
14728SOL    HW246024  10.430   8.403   5.519
14729SOL     OW46025  13.366  12.947   2.064
14729SOL    HW146026  13.281  12.915   2.096
14729SOL    HW246027  13.405  12.990   2.140
14730SOL     OW46028   5.131   0.722   5.008
14730SOL    HW146029   5.110   0.670   4.931
14730SOL    HW246030   5.047   0.736   5.052
14731SOL     OW46031   3.602   6.445  11.280
14731SOL    HW146032   3.682   6.394  11.265
14731SOL    HW246033   3.547   6.424  11.204
14732SOL     OW46034   7.209   5.656   9.740
14732SOL    HW146035   7.191   5.748   9.759
14732SOL    HW246036   7.276   5.658   9.672
14733SOL     OW46037   8.244   4.218  14.178
14733SOL    HW146038   8.189   4.216  14.257
14733SOL    HW246039   8.304   4.291  14.194
14734SOL     OW46040  14.594  11.575  10.587
14734SOL    HW146041  14.585  11.549  10.496
14734SOL    HW246042  14.526  11.525  10.633
14735SOL     OW46043  10.532  13.729   0.610
14735SOL    HW146044  10.554  13.705   0.520
14735SOL    HW246045  10.437  13.728   0.612
14736SOL     OW46046   9.865   4.186   5.129
14736SOL    HW146047   9.925   4.244   5.177
14736SOL    HW246048   9.877   4.100   5.169
14737SOL     OW46049   3.733   4.159   1.447
14737SOL    HW146050   3.665   4.133   1.385
14737SOL    HW246051   3.766   4.242   1.413
14738SOL     OW46052   0.109   5.519   6.888
14738SOL    HW146053   0.168   5.588   6.918
14738SOL    HW246054   0.142   5.439   6.929
14739SOL     OW46055   8.160  12.304   0.928
14739SOL    HW146056   8.180  12.211   0.919
14739SOL    HW246057   8.068  12.306   0.955
14740SOL     OW46058  13.408   8.065   0.934
14740SOL    HW146059  13.480   8.085   0.994
14740SOL    HW246060  13.449   8.064   0.848
14741SOL     OW46061   8.905  13.221   2.191
14741SOL    HW146062   8.815  13.241   2.216
14741SOL    HW246063   8.951  13.305   2.198
14742SOL     OW46064  13.921   1.992   1.607
14742SOL    HW146065  13.880   1.969   1.524
14742SOL    HW246066  14.002   2.038   1.583
14743SOL     OW46067   8.115  13.813  12.870
14743SOL    HW146068   8.126  13.739  12.810
14743SOL    HW246069   8.042  13.863  12.834
14744SOL     OW46070   0.047   1.546   5.877
14744SOL    HW146071  14.843   1.599   5.856
14744SOL    HW246072   0.011   1.462   5.905
14745SOL     OW46073  12.687  13.706  13.908
14745SOL    HW146074  12.782  13.696  13.901
14745SOL    HW246075  12.658  13.629  13.956
14746SOL     OW46076   0.406   7.279   0.114
14746SOL    HW146077   0.390   7.259   0.022
14746SOL    HW246078   0.438   7.196   0.151
14747SOL     OW46079   9.091  13.640  13.366
14747SOL    HW146080   9.171  13.590  13.381
14747SOL    HW246081   9.105  13.722  13.414
14748SOL     OW46082  12.428   0.622   3.464
14748SOL    HW146083  12.379   0.540   3.460
14748SOL    HW246084  12.388   0.677   3.398
14749SOL     OW46085  12.008  12.557   0.220
14749SOL    HW146086  12.000  12.588   0.130
14749SOL    HW246087  12.070  12.485   0.215
14750SOL     OW46088   6.833  10.466   2.850
14750SOL    HW146089   6.801  10.464   2.940
14750SOL    HW246090   6.775  10.526   2.804
14751SOL     OW46091   9.207  14.773  14.870
14751SOL    HW146092   9.265  14.700  14.851
14751SOL    HW246093   9.186  14.810  14.784
14752SOL     OW46094  12.612   6.903   7.012
14752SOL    HW146095  12.637   6.817   6.979
14752SOL    HW246096  12.524   6.918   6.977
14753SOL     OW46097  12.799  10.277   5.231
14753SOL    HW146098  12.812  10.196   5.181
14753SOL    HW246099  12.761  10.248   5.314
14754SOL     OW46100   6.377  12.993   4.865
14754SOL    HW146101   6.419  12.981   4.780
14754SOL    HW246102   6.409  13.077   4.896
14755SOL     OW46103   7.901  11.731  13.805
14755SOL    HW146104   7.832  11.748  13.870
14755SOL    HW246105   7.929  11.641  13.823
14756SOL     OW46106   5.185  14.078  10.306
14756SOL    HW146107   5.134  14.000  10.287
14756SOL    HW246108   5.273  14.045  10.328
14757SOL     OW46109  11.558   2.155   6.445
14757SOL    HW146110  11.508   2.088   6.399
14757SOL    HW246111  11.641   2.112   6.466
14758SOL     OW46112   4.455   7.572   6.566
14758SOL    HW146113   4.464   7.666   6.578
14758SOL    HW246114   4.486   7.555   6.477
14759SOL     OW46115   4.736   0.181   6.095
14759SOL    HW146116   4.722   0.110   6.033
14759SOL    HW246117   4.738   0.139   6.181
14760SOL     OW46118   6.636  11.089   8.003
14760SOL    HW146119   6.664  11.170   8.045
14760SOL    HW246120   6.646  11.105   7.909
14761SOL     OW46121   7.893  13.943  12.786
14761SOL    HW146122   7.865  14.015  12.730
14761SOL    HW246123   7.841  13.952  12.866
14762SOL     OW46124  12.281   6.579   2.958
14762SOL    HW146125  12.334   6.619   3.027
14762SOL    HW246126  12.206   6.637   2.948
14763SOL     OW46127   9.449   7.897   1.801
14763SOL    HW146128   9.418   7.926   1.887
14763SOL    HW246129   9.448   7.976   1.747
14764SOL     OW46130   1.385   0.131   7.077
14764SOL    HW146131   1.316   0.181   7.034
14764SOL    HW246132   1.446   0.196   7.109
14765SOL     OW46133   9.630  13.816   3.393
14765SOL    HW146134   9.608  13.907   3.412
14765SOL    HW246135   9.569  13.765   3.446
14766SOL     OW46136   7.123  13.393   6.179
14766SOL    HW146137   7.199  13.393   6.237
14766SOL    HW246138   7.159  13.405   6.091
14767SOL     OW46139   7.178   6.978  14.043
14767SOL    HW146140   7.244   6.912  14.021
14767SOL    HW246141   7.157   7.019  13.960
14768SOL     OW46142   5.490  10.618   6.986
14768SOL    HW146143   5.454  10.675   7.055
14768SOL    HW246144   5.545  10.677   6.934
14769SOL     OW46145   4.355  14.091   8.392
14769SOL    HW146146   4.382  14.080   8.301
14769SOL    HW246147   4.297  14.016   8.408
14770SOL     OW46148   0.890   3.476   0.321
14770SOL    HW146149   0.980   3.445   0.313
14770SOL    HW246150   0.875   3.529   0.243
14771SOL     OW46151   6.742   0.571   9.777
14771SOL    HW146152   6.819   0.548   9.725
14771SOL    HW246153   6.738   0.505   9.846
14772SOL     OW46154  11.344  13.467   2.272
14772SOL    HW146155  11.381  13.469   2.360
14772SOL    HW246156  11.409  13.420   2.220
14773SOL     OW46157   7.263   4.730   1.825
14773SOL    HW146158   7.187   4.729   1.766
14773SOL    HW246159   7.225   4.722   1.913
14774SOL     OW46160   8.693   6.141   4.034
14774SOL    HW146161   8.613   6.190   4.016
14774SOL    HW246162   8.758   6.208   4.057
14775SOL     OW46163   0.021  14.572   5.069
14775SOL    HW146164  14.826  14.505   5.082
14775SOL    HW246165   0.017  14.626   5.148
14776SOL     OW46166   6.803   0.801   5.596
14776SOL    HW146167   6.719   0.767   5.626
14776SOL    HW246168   6.782   0.845   5.513
14777SOL     OW46169   3.022   4.893   9.885
14777SOL    HW146170   3.049   4.847   9.806
14777SOL    HW246171   2.982   4.975   9.853
14778SOL     OW46172  14.356   9.933   3.377
14778SOL    HW146173  14.427   9.905   3.320
14778SOL    HW246174  14.310   9.853   3.400
14779SOL     OW46175  10.497   7.024   3.953
14779SOL    HW146176  10.472   7.063   4.037
14779SOL    HW246177  10.560   7.087   3.916
14780SOL     OW46178   9.762  12.322   6.443
14780SOL    HW146179   9.858  12.326   6.439
14780SOL    HW246180   9.743  12.292   6.532
14781SOL     OW46181  10.571   4.033   2.437
14781SOL    HW146182  10.641   3.969   2.436
14781SOL    HW246183  10.616   4.118   2.443
14782SOL     OW46184   6.476   0.480   3.335
14782SOL    HW146185   6.471   0.575   3.335
14782SOL    HW246186   6.387   0.451   3.317
14783SOL     OW46187   7.368   9.367   3.896
14783SOL    HW146188   7.394   9.282   3.932
14783SOL    HW246189   7.304   9.345   3.828
14784SOL     OW46190   9.176  11.155   4.877
14784SOL    HW146191   9.107  11.129   4.816
14784SOL    HW246192   9.134  11.216   4.938
14785SOL     OW46193   3.786   2.457   8.344
14785SOL    HW146194   3.790   2.542   8.300
14785SOL    HW246195   3.861   2.409   8.312
14786SOL     OW46196   4.062  14.650   7.662
14786SOL    HW146197   4.066  14.741   7.689
14786SOL    HW246198   4.140  14.637   7.608
14787SOL     OW46199   3.981   6.667   5.396
14787SOL    HW146200   4.068   6.680   5.432
14787SOL    HW246201   3.950   6.586   5.436
14788SOL     OW46202   2.006   4.482  10.760
14788SOL    HW146203   2.054   4.404  10.732
14788SOL    HW246204   2.067   4.530  10.815
14789SOL     OW46205   5.292   3.324   6.657
14789SOL    HW146206   5.248   3.314   6.573
14789SOL    HW246207   5.363   3.260   6.655
14790SOL     OW46208  13.239   6.391  14.867
14790SOL    HW146209  13.153   6.359   0.020
14790SOL    HW246210  13.265   6.451   0.064
14791SOL     OW46211  11.267  13.121   5.431
14791SOL    HW146212  11.187  13.157   5.392
14791SOL    HW246213  11.333  13.187   5.413
14792SOL     OW46214  13.834   1.312   1.292
14792SOL    HW146215  13.858   1.355   1.374
14792SOL    HW246216  13.747   1.347   1.271
14793SOL     OW46217   8.320   3.855   7.621
14793SOL    HW146218   8.368   3.848   7.539
14793SOL    HW246219   8.232   3.826   7.600
14794SOL     OW46220   2.497  11.128  14.623
14794SOL    HW146221   2.403  11.119  14.609
14794SOL    HW246222   2.508  11.214  14.663
14795SOL     OW46223  10.919   8.529  12.268
14795SOL    HW146224  10.853   8.581  12.222
14795SOL    HW246225  10.908   8.441  12.233
14796SOL     OW46226   8.858   5.525   7.852
14796SOL    HW146227   8.884   5.540   7.943
14796SOL    HW246228   8.899   5.596   7.803
14797SOL     OW46229   5.488   2.197   8.124
14797SOL    HW146230   5.560   2.135   8.137
14797SOL    HW246231   5.465   2.187   8.032
14798SOL     OW46232   3.958   7.940   5.772
14798SOL    HW146233   4.016   7.880   5.819
14798SOL    HW246234   4.000   8.025   5.780
14799SOL     OW46235   3.203  11.512   8.837
14799SOL    HW146236   3.158  11.587   8.876
14799SOL    HW246237   3.134  11.448   8.821
14800SOL     OW46238   2.010   5.896  12.169
14800SOL    HW146239   2.072   5.889  12.097
14800SOL    HW246240   2.064   5.893  12.248
14801SOL     OW46241  10.524  14.568   3.688
14801SOL    HW146242  10.596  14.509   3.708
14801SOL    HW246243  10.454  14.542   3.748
14802SOL     OW46244  13.197  10.494   5.513
14802SOL    HW146245  13.224  10.423   5.571
14802SOL    HW246246  13.241  10.474   5.430
14803SOL     OW46247   8.545   4.885   5.689
14803SOL    HW146248   8.626   4.923   5.654
14803SOL    HW246249   8.573   4.806   5.734
14804SOL     OW46250   6.410   9.940   1.610
14804SOL    HW146251   6.391   9.862   1.662
14804SOL    HW246252   6.501   9.961   1.630
14805SOL     OW46253   7.691   0.575   2.645
14805SOL    HW146254   7.614   0.582   2.702
14805SOL    HW246255   7.680   0.645   2.581
14806SOL     OW46256   4.122   6.473  13.770
14806SOL    HW146257   4.092   6.407  13.832
14806SOL    HW246258   4.213   6.490  13.795
14807SOL     OW46259   3.035  10.829   1.961
14807SOL    HW146260   3.119  10.867   1.934
14807SOL    HW246261   3.057  10.776   2.038
14808SOL     OW46262   6.461   0.708  11.569
14808SOL    HW146263   6.474   0.799  11.545
14808SOL    HW246264   6.366   0.695  11.565
14809SOL     OW46265   0.933   6.605   9.842
14809SOL    HW146266   0.868   6.590   9.773
14809SOL    HW246267   0.886   6.657   9.908
14810SOL     OW46268  10.795   0.240   3.736
14810SOL    HW146269  10.833   0.213   3.652
14810SOL    HW246270  10.840   0.185   3.801
14811SOL     OW46271   5.023  14.199   0.239
14811SOL    HW146272   4.938  14.236   0.214
14811SOL    HW246273   5.081  14.274   0.247
14812SOL     OW46274   3.989   8.341  14.376
14812SOL    HW146275   3.908   8.315  14.420
14812SOL    HW246276   4.001   8.433  14.400
14813SOL     OW46277  13.008  11.631   1.433
14813SOL    HW146278  13.039  11.541   1.445
14813SOL    HW246279  12.938  11.641   1.498
14814SOL     OW46280  12.871  13.207   4.323
14814SOL    HW146281  12.858  13.115   4.345
14814SOL    HW246282  12.783  13.242   4.311
14815SOL     OW46283   2.943   9.003   8.684
14815SOL    HW146284   3.028   8.980   8.647
14815SOL    HW246285   2.935   8.947   8.761
14816SOL     OW46286   3.323   5.942  10.369
14816SOL    HW146287   3.355   5.852  10.378
14816SOL    HW246288   3.243   5.934  10.318
14817SOL     OW46289   4.142   2.895  12.967
14817SOL    HW146290   4.067   2.937  12.924
14817SOL    HW246291   4.132   2.916  13.060
14818SOL     OW46292   7.588   4.226   0.002
14818SOL    HW146293   7.523   4.247  14.808
14818SOL    HW246294   7.628   4.144  14.844
14819SOL     OW46295   6.811  12.488   1.787
14819SOL    HW146296   6.733  12.517   1.741
14819SOL    HW246297   6.786  12.406   1.828
14820SOL     OW46298  10.753   8.088   5.616
14820SOL    HW146299  10.679   8.069   5.559
14820SOL    HW246300  10.808   8.009   5.611
14821SOL     OW46301   2.254   5.652   7.199
14821SOL    HW146302   2.180   5.665   7.259
14821SOL    HW246303   2.220   5.680   7.114
14822SOL     OW46304   0.889  14.681   6.481
14822SOL    HW146305   0.909  14.748   6.547
14822SOL    HW246306   0.930  14.714   6.401
14823SOL     OW46307   1.396   3.024   0.302
14823SOL    HW146308   1.488   2.998   0.297
14823SOL    HW246309   1.347   2.942   0.294
14824SOL     OW46310   5.137   9.397   3.915
14824SOL    HW146311   5.076   9.326   3.936
14824SOL    HW246312   5.141   9.397   3.819
14825SOL     OW46313  11.158   8.342   9.734
14825SOL    HW146314  11.073   8.299   9.728
14825SOL    HW246315  11.146   8.411   9.800
14826SOL     OW46316  11.708   0.348   7.100
14826SOL    HW146317  11.707   0.256   7.125
14826SOL    HW246318  11.617   0.377   7.110
14827SOL     OW46319   4.701   4.873   6.713
14827SOL    HW146320   4.704   4.967   6.696
14827SOL    HW246321   4.685   4.833   6.627
14828SOL     OW46322   5.741   5.497   3.363
14828SOL    HW146323   5.792   5.427   3.402
14828SOL    HW246324   5.662   5.454   3.329
14829SOL     OW46325  11.905   4.284  11.184
14829SOL    HW146326  11.905   4.204  11.237
14829SOL    HW246327  11.915   4.254  11.094
14830SOL     OW46328   0.967  11.725   1.168
14830SOL    HW146329   0.881  11.699   1.200
14830SOL    HW246330   1.027  11.698   1.238
14831SOL     OW46331  13.269  13.242   6.932
14831SOL    HW146332  13.346  13.187   6.948
14831SOL    HW246333  13.305  13.328   6.909
14832SOL     OW46334  10.922   3.966   3.968
14832SOL    HW146335  10.999   3.917   3.994
14832SOL    HW246336  10.848   3.910   3.992
14833SOL     OW46337  10.543   3.695   2.439
14833SOL    HW146338  10.478   3.741   2.386
14833SOL    HW246339  10.499   3.680   2.522
14834SOL     OW46340  11.346   5.107   4.859
14834SOL    HW146341  11.271   5.161   4.833
14834SOL    HW246342  11.315   5.059   4.935
14835SOL     OW46343   5.055  12.160   9.180
14835SOL    HW146344   4.984  12.185   9.120
14835SOL    HW246345   5.135  12.172   9.128
14836SOL     OW46346   5.534   5.892   3.209
14836SOL    HW146347   5.539   5.809   3.162
14836SOL    HW246348   5.450   5.888   3.255
14837SOL     OW46349   4.868   0.396   5.397
14837SOL    HW146350   4.893   0.439   5.479
14837SOL    HW246351   4.948   0.400   5.343
14838SOL     OW46352  12.811   8.579   9.888
14838SOL    HW146353  12.832   8.516   9.957
14838SOL    HW246354  12.779   8.525   9.815
14839SOL     OW46355  14.642   0.234   3.696
14839SOL    HW146356  14.624   0.180   3.619
14839SOL    HW246357  14.729   0.271   3.680
14840SOL     OW46358  10.191   0.262   1.878
14840SOL    HW146359  10.200   0.184   1.932
14840SOL    HW246360  10.201   0.335   1.939
14841SOL     OW46361   7.392   9.133  11.959
14841SOL    HW146362   7.342   9.051  11.967
14841SOL    HW246363   7.473   9.116  12.007
14842SOL     OW46364   7.857  10.048  13.114
14842SOL    HW146365   7.771  10.089  13.111
14842SOL    HW246366   7.912  10.103  13.058
14843SOL     OW46367   7.067  10.803   1.479
14843SOL    HW146368   7.002  10.741   1.446
14843SOL    HW246369   7.017  10.861   1.537
14844SOL     OW46370  13.623   8.978   6.224
14844SOL    HW146371  13.623   9.072   6.242
14844SOL    HW246372  13.668   8.939   6.299
14845SOL     OW46373  12.830   9.949   2.251
14845SOL    HW146374  12.907   9.897   2.230
14845SOL    HW246375  12.864  10.034   2.280
14846SOL     OW46376   8.262  11.404  11.445
14846SOL    HW146377   8.275  11.374  11.355
14846SOL    HW246378   8.298  11.333  11.499
14847SOL     OW46379   3.687   4.120   2.562
14847SOL    HW146380   3.703   4.188   2.496
14847SOL    HW246381   3.594   4.128   2.583
14848SOL     OW46382   1.663  11.449   6.994
14848SOL    HW146383   1.692  11.532   7.031
14848SOL    HW246384   1.743  11.408   6.961
14849SOL     OW46385  12.139   9.681   3.524
14849SOL    HW146386  12.193   9.738   3.579
14849SOL    HW246387  12.064   9.659   3.579
14850SOL     OW46388   8.971  13.683   8.179
14850SOL    HW146389   8.992  13.608   8.234
14850SOL    HW246390   8.901  13.729   8.225
14851SOL     OW46391  14.328   1.429  10.195
14851SOL    HW146392  14.349   1.384  10.113
14851SOL    HW246393  14.261   1.375  10.236
14852SOL     OW46394  12.503   3.090  14.293
14852SOL    HW146395  12.509   3.149  14.368
14852SOL    HW246396  12.441   3.022  14.322
14853SOL     OW46397   2.076  12.193   5.068
14853SOL    HW146398   2.166  12.197   5.100
14853SOL    HW246399   2.074  12.118   5.009
14854SOL     OW46400   9.210  10.028   9.799
14854SOL    HW146401   9.298  10.065   9.792
14854SOL    HW246402   9.184  10.045   9.890
14855SOL     OW46403   8.636   7.300  13.881
14855SOL    HW146404   8.662   7.387  13.910
14855SOL    HW246405   8.711   7.244  13.902
14856SOL     OW46406   0.266   1.302   5.144
14856SOL    HW146407   0.323   1.233   5.110
14856SOL    HW246408   0.242   1.272   5.232
14857SOL     OW46409  11.575   0.153   1.049
14857SOL    HW146410  11.602   0.089   0.983
14857SOL    HW246411  11.481   0.163   1.036
14858SOL     OW46412  11.552  11.831   9.809
14858SOL    HW146413  11.547  11.803   9.718
14858SOL    HW246414  11.643  11.816   9.834
14859SOL     OW46415   9.428   3.024   1.857
14859SOL    HW146416   9.445   2.930   1.866
14859SOL    HW246417   9.338   3.030   1.825
14860SOL     OW46418  12.643  12.535   5.901
14860SOL    HW146419  12.652  12.630   5.897
14860SOL    HW246420  12.551  12.521   5.923
14861SOL     OW46421   2.676  12.297   7.719
14861SOL    HW146422   2.605  12.305   7.783
14861SOL    HW246423   2.676  12.205   7.694
14862SOL     OW46424   7.064  12.411   1.721
14862SOL    HW146425   6.974  12.441   1.737
14862SOL    HW246426   7.112  12.434   1.800
14863SOL     OW46427   0.706   0.187  13.888
14863SOL    HW146428   0.678   0.278  13.876
14863SOL    HW246429   0.768   0.190  13.961
14864SOL     OW46430  14.798   1.144  12.048
14864SOL    HW146431  14.862   1.105  11.989
14864SOL    HW246432  14.725   1.082  12.049
14865SOL     OW46433   7.780   7.795   4.318
14865SOL    HW146434   7.688   7.794   4.293
14865SOL    HW246435   7.826   7.762   4.241
14866SOL     OW46436  14.418  13.219   4.780
14866SOL    HW146437  14.372  13.136   4.794
14866SOL    HW246438  14.471  13.230   4.859
14867SOL     OW46439   6.438   5.914   0.190
14867SOL    HW146440   6.498   5.878   0.124
14867SOL    HW246441   6.490   5.923   0.269
14868SOL     OW46442  11.284   2.285   9.068
14868SOL    HW146443  11.233   2.218   9.113
14868SOL    HW246444  11.311   2.346   9.137
14869SOL     OW46445   8.867   7.038  11.914
14869SOL    HW146446   8.779   7.075  11.919
14869SOL    HW246447   8.887   7.034  11.821
14870SOL     OW46448  10.119   4.280   6.604
14870SOL    HW146449  10.132   4.261   6.697
14870SOL    HW246450  10.203   4.316   6.575
14871SOL     OW46451   9.440   1.762  11.517
14871SOL    HW146452   9.473   1.850  11.499
14871SOL    HW246453   9.364   1.775  11.573
14872SOL     OW46454   9.973  10.797   8.015
14872SOL    HW146455  10.018  10.753   8.087
14872SOL    HW246456   9.887  10.755   8.011
14873SOL     OW46457   2.154   0.634  11.354
14873SOL    HW146458   2.065   0.619  11.324
14873SOL    HW246459   2.146   0.700  11.422
14874SOL     OW46460   9.570  14.189   5.879
14874SOL    HW146461   9.539  14.104   5.911
14874SOL    HW246462   9.522  14.253   5.931
14875SOL     OW46463  12.064   4.961   8.839
14875SOL    HW146464  12.089   4.922   8.755
14875SOL    HW246465  11.996   5.024   8.816
14876SOL     OW46466   0.276   7.934  13.379
14876SOL    HW146467   0.265   7.844  13.348
14876SOL    HW246468   0.308   7.982  13.303
14877SOL     OW46469   6.536  14.798  12.800
14877SOL    HW146470   6.489  14.716  12.785
14877SOL    HW246471   6.568  14.823  12.714
14878SOL     OW46472  10.964   1.140   8.685
14878SOL    HW146473  10.956   1.232   8.709
14878SOL    HW246474  10.923   1.093   8.758
14879SOL     OW46475   0.583  12.855   5.100
14879SOL    HW146476   0.540  12.939   5.082
14879SOL    HW246477   0.525  12.811   5.163
14880SOL     OW46478  12.733  13.230  10.057
14880SOL    HW146479  12.714  13.305  10.114
14880SOL    HW246480  12.663  13.232   9.991
14881SOL     OW46481   7.363   1.131   8.892
14881SOL    HW146482   7.437   1.078   8.922
14881SOL    HW246483   7.402   1.215   8.868
14882SOL     OW46484  11.018   6.719   7.303
14882SOL    HW146485  10.940   6.663   7.302
14882SOL    HW246486  10.991   6.796   7.354
14883SOL     OW46487  10.818   7.517  10.757
14883SOL    HW146488  10.886   7.554  10.812
14883SOL    HW246489  10.851   7.527  10.667
14884SOL     OW46490   7.496   0.053  13.909
14884SOL    HW146491   7.440  14.862  13.951
14884SOL    HW246492   7.435   0.115  13.867
14885SOL     OW46493   1.964  13.834   4.986
14885SOL    HW146494   1.990  13.826   5.078
14885SOL    HW246495   1.871  13.812   4.986
14886SOL     OW46496   5.448   4.964   7.096
14886SOL    HW146497   5.461   5.042   7.149
14886SOL    HW246498   5.466   4.891   7.155
14887SOL     OW46499   8.018  12.336   8.856
14887SOL    HW146500   8.037  12.261   8.800
14887SOL    HW246501   7.971  12.299   8.931
14888SOL     OW46502   8.622   3.434   9.037
14888SOL    HW146503   8.608   3.525   9.065
14888SOL    HW246504   8.534   3.400   9.023
14889SOL     OW46505  10.121   8.633   7.980
14889SOL    HW146506  10.096   8.697   8.046
14889SOL    HW246507  10.039   8.588   7.959
14890SOL     OW46508   4.091   9.904   7.600
14890SOL    HW146509   4.071   9.837   7.665
14890SOL    HW246510   4.048   9.873   7.520
14891SOL     OW46511   2.487   0.385   6.255
14891SOL    HW146512   2.576   0.391   6.222
14891SOL    HW246513   2.492   0.419   6.344
14892SOL     OW46514   0.796  11.191   6.025
14892SOL    HW146515   0.718  11.146   6.058
14892SOL    HW246516   0.832  11.235   6.102
14893SOL     OW46517   7.365   0.094   8.915
14893SOL    HW146518   7.389   0.183   8.889
14893SOL    HW246519   7.366   0.097   9.011
14894SOL     OW46520   9.360   3.048   4.860
14894SOL    HW146521   9.280   3.072   4.907
14894SOL    HW246522   9.411   3.129   4.857
14895SOL     OW46523  10.637   9.659   4.067
14895SOL    HW146524  10.612   9.638   4.157
14895SOL    HW246525  10.554   9.664   4.020
14896SOL     OW46526   9.101   2.689   5.858
14896SOL    HW146527   9.172   2.659   5.915
14896SOL    HW246528   9.024   2.640   5.888
14897SOL     OW46529   5.108  11.337   8.770
14897SOL    HW146530   5.067  11.407   8.719
14897SOL    HW246531   5.092  11.362   8.861
14898SOL     OW46532   8.908   0.492  13.448
14898SOL    HW146533   8.814   0.480  13.452
14898SOL    HW246534   8.930   0.541  13.527
14899SOL     OW46535   5.840  10.571  10.533
14899SOL    HW146536   5.927  10.603  10.507
14899SOL    HW246537   5.852  10.476  10.544
14900SOL     OW46538  12.701   7.377  14.336
14900SOL    HW146539  12.671   7.292  14.304
14900SOL    HW246540  12.622   7.418  14.372
14901SOL     OW46541  11.458  12.413  11.875
14901SOL    HW146542  11.447  12.324  11.908
14901SOL    HW246543  11.552  12.428  11.874
14902SOL     OW46544  11.126   9.720   1.505
14902SOL    HW146545  11.035   9.730   1.475
14902SOL    HW246546  11.144   9.800   1.553
14903SOL     OW46547   5.349  14.792   6.209
14903SOL    HW146548   5.401  14.758   6.136
14903SOL    HW246549   5.311  14.715   6.250
14904SOL     OW46550   2.867  14.011  10.835
14904SOL    HW146551   2.816  13.930  10.828
14904SOL    HW246552   2.837  14.064  10.762
14905SOL     OW46553   5.972   1.483   3.457
14905SOL    HW146554   5.892   1.504   3.504
14905SOL    HW246555   6.042   1.524   3.509
14906SOL     OW46556  10.722   2.233   8.671
14906SOL    HW146557  10.697   2.313   8.716
14906SOL    HW246558  10.761   2.178   8.739
14907SOL     OW46559  14.321   3.184   9.483
14907SOL    HW146560  14.252   3.225   9.535
14907SOL    HW246561  14.362   3.121   9.543
14908SOL     OW46562   5.121   3.386   9.156
14908SOL    HW146563   5.084   3.472   9.134
14908SOL    HW246564   5.046   3.327   9.157
14909SOL     OW46565   6.682   4.281  11.957
14909SOL    HW146566   6.727   4.356  11.996
14909SOL    HW246567   6.643   4.235  12.032
14910SOL     OW46568   2.839  11.792   6.192
14910SOL    HW146569   2.852  11.763   6.101
14910SOL    HW246570   2.802  11.880   6.183
14911SOL     OW46571  11.282  14.017   6.999
14911SOL    HW146572  11.294  14.043   6.908
14911SOL    HW246573  11.337  14.078   7.049
14912SOL     OW46574   5.977   3.896   4.548
14912SOL    HW146575   5.954   3.985   4.576
14912SOL    HW246576   5.920   3.879   4.473
14913SOL     OW46577   2.064   6.263   8.478
14913SOL    HW146578   2.068   6.316   8.558
14913SOL    HW246579   2.150   6.272   8.438
14914SOL     OW46580   1.724   9.014   9.501
14914SOL    HW146581   1.723   9.100   9.458
14914SOL    HW246582   1.636   8.980   9.488
14915SOL     OW46583   2.186   9.761   6.082
14915SOL    HW146584   2.106   9.708   6.087
14915SOL    HW246585   2.223   9.740   5.996
14916SOL     OW46586   2.739  11.682   2.854
14916SOL    HW146587   2.668  11.633   2.895
14916SOL    HW246588   2.818  11.649   2.897
14917SOL     OW46589   9.295   0.969  11.259
14917SOL    HW146590   9.343   0.999  11.336
14917SOL    HW246591   9.203   0.978  11.284
14918SOL     OW46592   6.706   5.776   9.337
14918SOL    HW146593   6.780   5.716   9.336
14918SOL    HW246594   6.629   5.718   9.332
14919SOL     OW46595  12.716   3.017   5.175
14919SOL    HW146596  12.694   3.063   5.094
14919SOL    HW246597  12.641   3.034   5.233
14920SOL     OW46598  11.892   5.228   3.458
14920SOL    HW146599  11.900   5.133   3.462
14920SOL    HW246600  11.961   5.256   3.398
14921SOL     OW46601   8.588   1.372   1.081
14921SOL    HW146602   8.577   1.447   1.022
14921SOL    HW246603   8.610   1.300   1.022
14922SOL     OW46604   6.250  14.027   2.643
14922SOL    HW146605   6.227  14.092   2.575
14922SOL    HW246606   6.307  13.964   2.598
14923SOL     OW46607  11.427  10.356  13.001
14923SOL    HW146608  11.413  10.343  13.094
14923SOL    HW246609  11.340  10.373  12.965
14924SOL     OW46610   6.156  11.512  12.946
14924SOL    HW146611   6.138  11.420  12.962
14924SOL    HW246612   6.250  11.516  12.930
14925SOL     OW46613   4.787  12.745   2.467
14925SOL    HW146614   4.859  12.684   2.452
14925SOL    HW246615   4.708  12.697   2.443
14926SOL     OW46616   3.687  10.012  14.297
14926SOL    HW146617   3.748   9.968  14.357
14926SOL    HW246618   3.717   9.988  14.210
14927SOL     OW46619  14.725   1.064  11.531
14927SOL    HW146620  14.797   1.105  11.482
14927SOL    HW246621  14.678   1.138  11.571
14928SOL     OW46622   7.460  12.204   4.982
14928SOL    HW146623   7.420  12.117   4.983
14928SOL    HW246624   7.550  12.189   5.012
14929SOL     OW46625   2.732   1.841   3.041
14929SOL    HW146626   2.795   1.904   3.006
14929SOL    HW246627   2.695   1.800   2.963
14930SOL     OW46628  13.749  11.906   6.623
14930SOL    HW146629  13.803  11.834   6.657
14930SOL    HW246630  13.660  11.873   6.629
14931SOL     OW46631   8.366   3.945   1.653
14931SOL    HW146632   8.378   3.931   1.747
14931SOL    HW246633   8.407   3.869   1.612
14932SOL     OW46634   3.608   2.671   7.007
14932SOL    HW146635   3.699   2.667   7.037
14932SOL    HW246636   3.558   2.695   7.084
14933SOL     OW46637  10.975   4.374   3.919
14933SOL    HW146638  11.009   4.444   3.974
14933SOL    HW246639  11.047   4.310   3.914
14934SOL     OW46640   7.797   5.230   1.848
14934SOL    HW146641   7.883   5.193   1.827
14934SOL    HW246642   7.815   5.322   1.866
14935SOL     OW46643   6.714   5.058   8.431
14935SOL    HW146644   6.661   5.123   8.476
14935SOL    HW246645   6.739   4.996   8.499
14936SOL     OW46646   9.254   4.998  10.030
14936SOL    HW146647   9.337   4.953  10.020
14936SOL    HW246648   9.264   5.078   9.979
14937SOL     OW46649   9.428  12.882   3.623
14937SOL    HW146650   9.337  12.865   3.648
14937SOL    HW246651   9.432  12.860   3.530
14938SOL     OW46652   7.925  13.574   5.097
14938SOL    HW146653   8.000  13.577   5.037
14938SOL    HW246654   7.953  13.625   5.173
14939SOL     OW46655  10.399  12.881   6.496
14939SOL    HW146656  10.355  12.961   6.526
14939SOL    HW246657  10.349  12.810   6.534
14940SOL     OW46658  10.040   5.614  14.603
14940SOL    HW146659  10.086   5.655  14.676
14940SOL    HW246660  10.042   5.679  14.534
14941SOL     OW46661   4.740   0.916  11.431
14941SOL    HW146662   4.770   0.869  11.509
14941SOL    HW246663   4.689   0.851  11.383
14942SOL     OW46664   0.269   9.852  10.519
14942SOL    HW146665   0.217   9.932  10.529
14942SOL    HW246666   0.251   9.822  10.430
14943SOL     OW46667   4.516   7.733   2.668
14943SOL    HW146668   4.548   7.721   2.757
14943SOL    HW246669   4.437   7.679   2.663
14944SOL     OW46670   4.915   7.813   4.559
14944SOL    HW146671   4.829   7.854   4.566
14944SOL    HW246672   4.896   7.720   4.550
14945SOL     OW46673  10.121   3.711   2.388
14945SOL    HW146674  10.184   3.781   2.408
14945SOL    HW246675  10.175   3.641   2.352
14946SOL     OW46676   8.138   0.284   3.678
14946SOL    HW146677   8.131   0.296   3.772
14946SOL    HW246678   8.164   0.370   3.644
14947SOL     OW46679   5.350   1.714   8.051
14947SOL    HW146680   5.355   1.728   7.956
14947SOL    HW246681   5.433   1.748   8.084
14948SOL     OW46682   0.094   7.085   6.153
14948SOL    HW146683   0.131   7.102   6.240
14948SOL    HW246684   0.080   7.172   6.116
14949SOL     OW46685   4.071  11.194   0.658
14949SOL    HW146686   4.145  11.254   0.650
14949SOL    HW246687   4.012  11.218   0.586
14950SOL     OW46688   8.496   6.001   1.930
14950SOL    HW146689   8.430   5.980   1.864
14950SOL    HW246690   8.577   5.964   1.896
14951SOL     OW46691  11.290   7.649   2.119
14951SOL    HW146692  11.236   7.579   2.155
14951SOL    HW246693  11.283   7.639   2.024
14952SOL     OW46694  14.174   2.119   0.167
14952SOL    HW146695  14.109   2.082   0.227
14952SOL    HW246696  14.130   2.119   0.082
14953SOL     OW46697   3.014   2.839   2.625
14953SOL    HW146698   2.995   2.873   2.538
14953SOL    HW246699   2.952   2.883   2.683
14954SOL     OW46700  10.249   9.999   5.501
14954SOL    HW146701  10.325  10.050   5.530
14954SOL    HW246702  10.203   9.976   5.582
14955SOL     OW46703   1.716   4.586   0.492
14955SOL    HW146704   1.654   4.653   0.520
14955SOL    HW246705   1.697   4.572   0.400
14956SOL     OW46706   7.475  14.171   3.299
14956SOL    HW146707   7.492  14.151   3.207
14956SOL    HW246708   7.442  14.261   3.298
14957SOL     OW46709   5.086  10.491   0.179
14957SOL    HW146710   5.097  10.465   0.271
14957SOL    HW246711   4.997  10.525   0.175
14958SOL     OW46712  10.550   3.102   0.194
14958SOL    HW146713  10.473   3.142   0.234
14958SOL    HW246714  10.586   3.170   0.137
14959SOL     OW46715   3.791  14.254  10.431
14959SOL    HW146716   3.842  14.233  10.509
14959SOL    HW246717   3.710  14.292  10.465
14960SOL     OW46718   5.598   9.404   1.955
14960SOL    HW146719   5.561   9.356   1.881
14960SOL    HW246720   5.565   9.359   2.032
14961SOL     OW46721   0.709  13.003  14.566
14961SOL    HW146722   0.657  13.058  14.507
14961SOL    HW246723   0.666  12.917  14.563
14962SOL     OW46724   8.725   5.429   9.089
14962SOL    HW146725   8.792   5.494   9.105
14962SOL    HW246726   8.645   5.467   9.125
14963SOL     OW46727   5.254  11.655   6.000
14963SOL    HW146728   5.263  11.564   6.028
14963SOL    HW246729   5.261  11.652   5.905
14964SOL     OW46730  14.138   7.140   9.175
14964SOL    HW146731  14.104   7.227   9.197
14964SOL    HW246732  14.166   7.148   9.084
14965SOL     OW46733  14.337  12.610   7.740
14965SOL    HW146734  14.298  12.531   7.702
14965SOL    HW246735  14.357  12.665   7.664
14966SOL     OW46736   3.176   7.629   3.986
14966SOL    HW146737   3.142   7.647   3.898
14966SOL    HW246738   3.258   7.583   3.971
14967SOL     OW46739   7.921   0.040  13.496
14967SOL    HW146740   7.841  14.862  13.509
14967SOL    HW246741   7.891   0.122  13.456
14968SOL     OW46742   9.885   4.570   5.872
14968SOL    HW146743   9.806   4.574   5.818
14968SOL    HW246744   9.853   4.558   5.961
14969SOL     OW46745   9.865   9.987   7.931
14969SOL    HW146746   9.873   9.935   7.850
14969SOL    HW246747   9.867  10.078   7.902
14970SOL     OW46748   6.573   2.411   5.990
14970SOL    HW146749   6.617   2.489   5.957
14970SOL    HW246750   6.515   2.385   5.920
14971SOL     OW46751   3.376   2.709   4.664
14971SOL    HW146752   3.397   2.786   4.611
14971SOL    HW246753   3.461   2.681   4.700
14972SOL     OW46754   0.229   9.708   8.708
14972SOL    HW146755   0.269   9.621   8.705
14972SOL    HW246756   0.252   9.742   8.794
14973SOL     OW46757  12.154  14.387   3.526
14973SOL    HW146758  12.076  14.441   3.515
14973SOL    HW246759  12.199  14.425   3.601
14974SOL     OW46760   7.656  13.662   3.036
14974SOL    HW146761   7.653  13.684   3.129
14974SOL    HW246762   7.565  13.643   3.013
14975SOL     OW46763   7.360   9.025   9.501
14975SOL    HW146764   7.345   8.956   9.565
14975SOL    HW246765   7.276   9.036   9.456
14976SOL     OW46766   4.045   1.299   2.741
14976SOL    HW146767   4.064   1.205   2.733
14976SOL    HW246768   4.110   1.342   2.686
14977SOL     OW46769   3.043   0.301   9.560
14977SOL    HW146770   2.983   0.227   9.554
14977SOL    HW246771   2.987   0.375   9.583
14978SOL     OW46772  13.038   1.527   9.393
14978SOL    HW146773  13.062   1.620   9.391
14978SOL    HW246774  13.068   1.493   9.308
14979SOL     OW46775  12.518   4.053  10.314
14979SOL    HW146776  12.506   4.044  10.220
14979SOL    HW246777  12.503   4.146  10.332
14980SOL     OW46778   5.838   8.989   0.380
14980SOL    HW146779   5.859   9.075   0.417
14980SOL    HW246780   5.900   8.929   0.422
14981SOL     OW46781   2.523   5.735   2.895
14981SOL    HW146782   2.571   5.652   2.896
14981SOL    HW246783   2.439   5.713   2.853
14982SOL     OW46784   0.266   8.336   9.363
14982SOL    HW146785   0.357   8.313   9.381
14982SOL    HW246786   0.249   8.303   9.275
14983SOL     OW46787  13.782   1.019  12.083
14983SOL    HW146788  13.712   1.005  12.147
14983SOL    HW246789  13.796   1.114  12.084
14984SOL     OW46790   2.908  12.907  10.895
14984SOL    HW146791   2.924  12.995  10.861
14984SOL    HW246792   2.930  12.913  10.988
14985SOL     OW46793   2.335  13.194  14.032
14985SOL    HW146794   2.286  13.235  13.962
14985SOL    HW246795   2.341  13.102  14.007
14986SOL     OW46796   4.779   5.322   0.422
14986SOL    HW146797   4.770   5.310   0.327
14986SOL    HW246798   4.874   5.328   0.436
14987SOL     OW46799   0.890   7.933  14.478
14987SOL    HW146800   0.857   7.947  14.567
14987SOL    HW246801   0.872   7.840  14.460
14988SOL     OW46802  12.471  14.793   2.855
14988SOL    HW146803  12.410  14.761   2.922
14988SOL    HW246804  12.424  14.866   2.814
14989SOL     OW46805   6.225   4.428  11.700
14989SOL    HW146806   6.280   4.374  11.643
14989SOL    HW246807   6.254   4.405  11.788
14990SOL     OW46808   5.911   1.840   2.414
14990SOL    HW146809   5.980   1.847   2.480
14990SOL    HW246810   5.837   1.889   2.451
14991SOL     OW46811   4.885  11.300  12.475
14991SOL    HW146812   4.913  11.359  12.405
14991SOL    HW246813   4.951  11.310  12.543
14992SOL     OW46814  14.066  10.525   9.044
14992SOL    HW146815  14.005  10.577   9.097
14992SOL    HW246816  14.143  10.581   9.034
14993SOL     OW46817   8.919   8.021   3.101
14993SOL    HW146818   8.868   7.961   3.046
14993SOL    HW246819   8.869   8.103   3.100
14994SOL     OW46820   9.671   7.650   1.938
14994SOL    HW146821   9.643   7.694   2.019
14994SOL    HW246822   9.592   7.609   1.905
14995SOL     OW46823  12.586   7.870   7.139
14995SOL    HW146824  12.498   7.834   7.131
14995SOL    HW246825  12.573   7.963   7.155
14996SOL     OW46826  13.841   8.297   6.677
14996SOL    HW146827  13.773   8.232   6.657
14996SOL    HW246828  13.890   8.305   6.595
14997SOL     OW46829  11.768  10.324   2.250
14997SOL    HW146830  11.712  10.323   2.172
14997SOL    HW246831  11.835  10.390   2.230
14998SOL     OW46832   1.544  10.548   5.302
14998SOL    HW146833   1.527  10.522   5.392
14998SOL    HW246834   1.476  10.612   5.281
14999SOL     OW46835   6.092   1.655  11.792
14999SOL    HW146836   6.035   1.612  11.729
14999SOL    HW246837   6.070   1.748  11.786
15000SOL     OW46838  14.544  12.993   7.678
15000SOL    HW146839  14.523  13.067   7.735
15000SOL    HW246840  14.630  12.964   7.708
15001SOL     OW46841   8.393   7.327   6.105
15001SOL    HW146842   8.425   7.398   6.162
15001SOL    HW246843   8.362   7.260   6.166
15002SOL     OW46844   6.256   5.151   9.198
15002SOL    HW146845   6.300   5.194   9.124
15002SOL    HW246846   6.319   5.157   9.270
15003SOL     OW46847   9.972   3.658  10.073
15003SOL    HW146848  10.003   3.586  10.127
15003SOL    HW246849   9.983   3.628   9.983
15004SOL     OW46850   7.528  13.988   4.429
15004SOL    HW146851   7.465  13.951   4.491
15004SOL    HW246852   7.478  14.055   4.381
15005SOL     OW46853   2.936   5.108   2.461
15005SOL    HW146854   2.851   5.095   2.503
15005SOL    HW246855   3.000   5.097   2.531
15006SOL     OW46856  12.346   3.998   9.252
15006SOL    HW146857  12.406   4.057   9.299
15006SOL    HW246858  12.400   3.959   9.183
15007SOL     OW46859   0.419   9.663   3.925
15007SOL    HW146860   0.392   9.748   3.959
15007SOL    HW246861   0.513   9.673   3.907
15008SOL     OW46862  14.479   4.454   1.894
15008SOL    HW146863  14.570   4.481   1.876
15008SOL    HW246864  14.488   4.369   1.936
15009SOL     OW46865  11.350   4.191  13.690
15009SOL    HW146866  11.382   4.183  13.780
15009SOL    HW246867  11.299   4.112  13.675
15010SOL     OW46868   3.314   0.896   2.104
15010SOL    HW146869   3.218   0.898   2.107
15010SOL    HW246870   3.339   0.986   2.082
15011SOL     OW46871   5.059   9.870   1.585
15011SOL    HW146872   5.018   9.954   1.608
15011SOL    HW246873   5.131   9.894   1.526
15012SOL     OW46874   9.724  14.234   1.240
15012SOL    HW146875   9.751  14.169   1.175
15012SOL    HW246876   9.766  14.204   1.321
15013SOL     OW46877   1.478   3.672   0.115
15013SOL    HW146878   1.539   3.664   0.188
15013SOL    HW246879   1.414   3.737   0.145
15014SOL     OW46880   7.055   8.475   4.510
15014SOL    HW146881   6.984   8.509   4.565
15014SOL    HW246882   7.021   8.394   4.473
15015SOL     OW46883  13.265   0.573   2.824
15015SOL    HW146884  13.301   0.497   2.780
15015SOL    HW246885  13.341   0.620   2.859
15016SOL     OW46886   3.091   2.747  10.703
15016SOL    HW146887   3.156   2.802  10.746
15016SOL    HW246888   3.049   2.699  10.774
15017SOL     OW46889  10.671   9.269  12.228
15017SOL    HW146890  10.693   9.259  12.136
15017SOL    HW246891  10.712   9.193  12.271
15018SOL     OW46892   3.086   5.338   0.933
15018SOL    HW146893   3.127   5.318   1.017
15018SOL    HW246894   3.017   5.401   0.953
15019SOL     OW46895   3.211  12.383   9.822
15019SOL    HW146896   3.227  12.430   9.739
15019SOL    HW246897   3.291  12.333   9.837
15020SOL     OW46898  10.457   5.728  10.299
15020SOL    HW146899  10.385   5.723  10.362
15020SOL    HW246900  10.516   5.794  10.335
15021SOL     OW46901  14.613  13.123   8.973
15021SOL    HW146902  14.693  13.173   8.955
15021SOL    HW246903  14.643  13.032   8.981
15022SOL     OW46904  10.986  12.500  11.607
15022SOL    HW146905  11.024  12.417  11.634
15022SOL    HW246906  10.989  12.555  11.685
15023SOL     OW46907   7.915   7.921   0.482
15023SOL    HW146908   7.892   8.000   0.531
15023SOL    HW246909   7.869   7.931   0.399
15024SOL     OW46910   0.080  11.078   2.861
15024SOL    HW146911   0.077  10.983   2.852
15024SOL    HW246912   0.001  11.099   2.912
15025SOL     OW46913  11.833   9.277   5.071
15025SOL    HW146914  11.865   9.220   5.001
15025SOL    HW246915  11.901   9.274   5.138
15026SOL     OW46916   6.621   4.165   6.887
15026SOL    HW146917   6.553   4.218   6.846
15026SOL    HW246918   6.614   4.184   6.980
15027SOL     OW46919  11.671   9.044  13.865
15027SOL    HW146920  11.592   9.093  13.841
15027SOL    HW246921  11.737   9.111  13.881
15028SOL     OW46922  11.332   3.749  10.041
15028SOL    HW146923  11.422   3.735  10.072
15028SOL    HW246924  11.323   3.691   9.965
15029SOL     OW46925   3.521  12.495  10.448
15029SOL    HW146926   3.560  12.554  10.383
15029SOL    HW246927   3.582  12.497  10.522
15030SOL     OW46928  11.756   6.294   9.266
15030SOL    HW146929  11.722   6.204   9.265
15030SOL    HW246930  11.780   6.310   9.357
15031SOL     OW46931   3.140   6.681  10.448
15031SOL    HW146932   3.086   6.606  10.422
15031SOL    HW246933   3.111   6.751  10.390
15032SOL     OW46934   8.689   7.973   2.722
15032SOL    HW146935   8.663   7.890   2.682
15032SOL    HW246936   8.732   8.021   2.651
15033SOL     OW46937  12.493   2.917   9.299
15033SOL    HW146938  12.556   2.878   9.239
15033SOL    HW246939  12.544   2.940   9.376
15034SOL     OW46940   5.872  11.698  11.165
15034SOL    HW146941   5.964  11.673  11.175
15034SOL    HW246942   5.842  11.718  11.253
15035SOL     OW46943   1.106   5.174   8.874
15035SOL    HW146944   1.178   5.189   8.936
15035SOL    HW246945   1.092   5.259   8.832
15036SOL     OW46946   8.630  11.038   7.097
15036SOL    HW146947   8.720  11.050   7.126
15036SOL    HW246948   8.578  11.047   7.176
15037SOL     OW46949   3.233   4.496   5.104
15037SOL    HW146950   3.204   4.577   5.062
15037SOL    HW246951   3.239   4.517   5.197
15038SOL     OW46952   7.575   6.992   0.054
15038SOL    HW146953   7.546   7.083   0.056
15038SOL    HW246954   7.535   6.955  14.849
15039SOL     OW46955   8.680   4.626   0.798
15039SOL    HW146956   8.761   4.589   0.763
15039SOL    HW246957   8.611   4.580   0.751
15040SOL     OW46958   3.808   0.407  10.281
15040SOL    HW146959   3.766   0.464  10.217
15040SOL    HW246960   3.794   0.318  10.247
15041SOL     OW46961   8.478   5.309   6.487
15041SOL    HW146962   8.534   5.266   6.552
15041SOL    HW246963   8.535   5.371   6.443
15042SOL     OW46964  12.964  11.552  14.498
15042SOL    HW146965  12.981  11.469  14.452
15042SOL    HW246966  13.050  11.581  14.527
15043SOL     OW46967   1.911   0.343   3.871
15043SOL    HW146968   2.002   0.369   3.886
15043SOL    HW246969   1.861   0.395   3.933
15044SOL     OW46970   5.542   0.509   2.345
15044SOL    HW146971   5.554   0.528   2.252
15044SOL    HW246972   5.490   0.582   2.378
15045SOL     OW46973   7.849   6.776   2.072
15045SOL    HW146974   7.816   6.831   2.001
15045SOL    HW246975   7.938   6.808   2.087
15046SOL     OW46976   8.749   3.857   7.528
15046SOL    HW146977   8.668   3.877   7.481
15046SOL    HW246978   8.810   3.829   7.459
15047SOL     OW46979   3.047   1.367  12.587
15047SOL    HW146980   2.997   1.318  12.522
15047SOL    HW246981   2.984   1.432  12.619
15048SOL     OW46982   4.509   1.565   4.407
15048SOL    HW146983   4.492   1.658   4.391
15048SOL    HW246984   4.575   1.564   4.476
15049SOL     OW46985   3.256   8.632   3.955
15049SOL    HW146986   3.230   8.589   4.037
15049SOL    HW246987   3.175   8.637   3.904
15050SOL     OW46988  12.333   5.103   2.164
15050SOL    HW146989  12.391   5.029   2.147
15050SOL    HW246990  12.375   5.177   2.120
15051SOL     OW46991   8.967  12.947  13.534
15051SOL    HW146992   8.917  12.908  13.462
15051SOL    HW246993   9.026  13.008  13.492
15052SOL     OW46994   9.732   9.320  14.737
15052SOL    HW146995   9.752   9.258  14.667
15052SOL    HW246996   9.814   9.329  14.786
15053SOL     OW46997  11.724   1.888   3.553
15053SOL    HW146998  11.682   1.957   3.502
15053SOL    HW246999  11.733   1.926   3.641
15054SOL     OW47000  12.114   9.532   8.378
15054SOL    HW147001  12.169   9.603   8.345
15054SOL    HW247002  12.082   9.489   8.300
15055SOL     OW47003  14.367  11.053  10.043
15055SOL    HW147004  14.373  11.119   9.974
15055SOL    HW247005  14.317  11.095  10.113
15056SOL     OW47006  11.018   6.845  13.876
15056SOL    HW147007  10.993   6.806  13.793
15056SOL    HW247008  11.060   6.774  13.925
15057SOL     OW47009  12.614   0.180  13.134
15057SOL    HW147010  12.705   0.159  13.158
15057SOL    HW247011  12.609   0.157  13.041
15058SOL     OW47012   8.081   4.086   3.629
15058SOL    HW147013   8.007   4.142   3.604
15058SOL    HW247014   8.081   4.016   3.563
15059SOL     OW47015   2.655  13.377   1.444
15059SOL    HW147016   2.639  13.396   1.352
15059SOL    HW247017   2.664  13.463   1.485
15060SOL     OW47018   3.481   1.144   6.346
15060SOL    HW147019   3.410   1.103   6.395
15060SOL    HW247020   3.461   1.238   6.350
15061SOL     OW47021   2.050  12.684   6.952
15061SOL    HW147022   2.056  12.589   6.943
15061SOL    HW247023   2.037  12.699   7.046
15062SOL     OW47024  11.140  11.081  12.458
15062SOL    HW147025  11.135  11.126  12.373
15062SOL    HW247026  11.141  10.988  12.435
15063SOL     OW47027   2.593  10.899  11.024
15063SOL    HW147028   2.555  10.946  10.950
15063SOL    HW247029   2.569  10.951  11.100
15064SOL     OW47030   1.026  12.006  11.859
15064SOL    HW147031   1.121  12.001  11.868
15064SOL    HW247032   0.995  11.917  11.876
15065SOL     OW47033   5.073  14.549  11.653
15065SOL    HW147034   5.145  14.508  11.700
15065SOL    HW247035   5.079  14.514  11.564
15066SOL     OW47036  14.012   6.865   6.007
15066SOL    HW147037  14.101   6.870   5.971
15066SOL    HW247038  14.002   6.774   6.032
15067SOL     OW47039   2.976   9.839  10.414
15067SOL    HW147040   3.001   9.777  10.483
15067SOL    HW247041   2.999   9.795  10.333
15068SOL     OW47042   6.818   7.730  12.923
15068SOL    HW147043   6.890   7.716  12.861
15068SOL    HW247044   6.852   7.700  13.007
15069SOL     OW47045   0.553   1.637   8.594
15069SOL    HW147046   0.586   1.724   8.615
15069SOL    HW247047   0.607   1.608   8.521
15070SOL     OW47048   8.598   1.310   2.825
15070SOL    HW147049   8.668   1.307   2.759
15070SOL    HW247050   8.522   1.345   2.779
15071SOL     OW47051  11.169   1.234  10.172
15071SOL    HW147052  11.248   1.273  10.134
15071SOL    HW247053  11.193   1.216  10.263
15072SOL     OW47054   2.798   0.285  12.766
15072SOL    HW147055   2.723   0.344  12.762
15072SOL    HW247056   2.854   0.322  12.834
15073SOL     OW47057  13.484   8.614   1.559
15073SOL    HW147058  13.498   8.567   1.641
15073SOL    HW247059  13.485   8.546   1.492
15074SOL     OW47060  13.585   4.937  11.742
15074SOL    HW147061  13.561   4.932  11.649
15074SOL    HW247062  13.659   4.997  11.744
15075SOL     OW47063   4.878   8.306  14.625
15075SOL    HW147064   4.870   8.346  14.712
15075SOL    HW247065   4.926   8.370  14.573
15076SOL     OW47066  10.327  10.604  12.294
15076SOL    HW147067  10.305  10.698  12.291
15076SOL    HW247068  10.310  10.573  12.205
15077SOL     OW47069   6.347   3.779   1.244
15077SOL    HW147070   6.367   3.829   1.323
15077SOL    HW247071   6.258   3.807   1.220
15078SOL     OW47072   5.563   5.448  13.817
15078SOL    HW147073   5.578   5.529  13.867
15078SOL    HW247074   5.471   5.453  13.791
15079SOL     OW47075  11.532  11.774   9.518
15079SOL    HW147076  11.591  11.770   9.443
15079SOL    HW247077  11.452  11.731   9.489
15080SOL     OW47078   3.363   9.149   3.658
15080SOL    HW147079   3.425   9.077   3.674
15080SOL    HW247080   3.346   9.185   3.745
15081SOL     OW47081  14.362   2.494   7.529
15081SOL    HW147082  14.447   2.451   7.515
15081SOL    HW247083  14.384   2.578   7.569
15082SOL     OW47084  14.067   9.064   4.507
15082SOL    HW147085  14.108   9.150   4.495
15082SOL    HW247086  14.084   9.042   4.599
15083SOL     OW47087  13.684   3.348   1.730
15083SOL    HW147088  13.599   3.304   1.736
15083SOL    HW247089  13.665   3.434   1.693
15084SOL     OW47090   0.444   1.046   2.506
15084SOL    HW147091   0.402   1.115   2.454
15084SOL    HW247092   0.381   0.975   2.506
15085SOL     OW47093   8.977   0.181   1.446
15085SOL    HW147094   8.945   0.189   1.536
15085SOL    HW247095   8.907   0.136   1.399
15086SOL     OW47096   7.778   3.844  13.838
15086SOL    HW147097   7.708   3.909  13.829
15086SOL    HW247098   7.819   3.839  13.752
15087SOL     OW47099  10.092   5.393  12.641
15087SOL    HW147100  10.081   5.346  12.723
15087SOL    HW247101  10.020   5.363  12.585
15088SOL     OW47102  13.492   2.482   0.055
15088SOL    HW147103  13.404   2.490   0.019
15088SOL    HW247104  13.482   2.499   0.149
15089SOL     OW47105  11.950  11.327   8.877
15089SOL    HW147106  12.032  11.350   8.833
15089SOL    HW247107  11.885  11.329   8.807
15090SOL     OW47108  13.906  11.012   2.037
15090SOL    HW147109  13.993  11.050   2.045
15090SOL    HW247110  13.846  11.085   2.053
15091SOL     OW47111  13.642   9.748   6.387
15091SOL    HW147112  13.559   9.787   6.416
15091SOL    HW247113  13.693   9.821   6.352
15092SOL     OW47114   5.893  10.817   9.264
15092SOL    HW147115   5.839  10.837   9.341
15092SOL    HW247116   5.950  10.894   9.255
15093SOL     OW47117   2.281  10.849   2.317
15093SOL    HW147118   2.274  10.941   2.294
15093SOL    HW247119   2.232  10.804   2.248
15094SOL     OW47120   2.618  12.244  11.601
15094SOL    HW147121   2.604  12.331  11.563
15094SOL    HW247122   2.706  12.248  11.638
15095SOL     OW47123  13.087  10.241  10.575
15095SOL    HW147124  13.153  10.206  10.635
15095SOL    HW247125  13.007  10.195  10.599
15096SOL     OW47126   4.346   2.307  11.009
15096SOL    HW147127   4.383   2.293  10.922
15096SOL    HW247128   4.384   2.237  11.062
15097SOL     OW47129  14.479   1.008   4.169
15097SOL    HW147130  14.511   0.918   4.161
15097SOL    HW247131  14.502   1.034   4.258
15098SOL     OW47132   8.849  13.722  10.685
15098SOL    HW147133   8.863  13.781  10.759
15098SOL    HW247134   8.757  13.731  10.663
15099SOL     OW47135  13.033   2.450   5.935
15099SOL    HW147136  12.976   2.519   5.971
15099SOL    HW247137  12.973   2.381   5.910
15100SOL     OW47138   5.331   3.542   0.009
15100SOL    HW147139   5.292   3.593  14.811
15100SOL    HW247140   5.397   3.488  14.840
15101SOL     OW47141   0.081   8.392  12.571
15101SOL    HW147142   0.113   8.341  12.497
15101SOL    HW247143   0.026   8.459  12.531
15102SOL     OW47144   0.319   6.636  14.022
15102SOL    HW147145   0.354   6.663  13.938
15102SOL    HW247146   0.322   6.715  14.076
15103SOL     OW47147   8.639   6.341   6.537
15103SOL    HW147148   8.588   6.318   6.459
15103SOL    HW247149   8.574   6.354   6.606
15104SOL     OW47150   3.669   4.005   3.644
15104SOL    HW147151   3.632   3.959   3.720
15104SOL    HW247152   3.649   4.097   3.659
15105SOL     OW47153   3.848   0.240  11.363
15105SOL    HW147154   3.780   0.173  11.371
15105SOL    HW247155   3.886   0.225  11.276
15106SOL     OW47156   4.231   7.988   8.229
15106SOL    HW147157   4.297   8.037   8.180
15106SOL    HW247158   4.163   8.054   8.248
15107SOL     OW47159   0.520   7.800   4.229
15107SOL    HW147160   0.611   7.772   4.238
15107SOL    HW247161   0.518   7.850   4.147
15108SOL     OW47162  13.119  10.722   2.593
15108SOL    HW147163  13.036  10.676   2.598
15108SOL    HW247164  13.158  10.711   2.680
15109SOL     OW47165  14.726   0.135   9.385
15109SOL    HW147166  14.688   0.054   9.353
15109SOL    HW247167  14.762   0.178   9.307
15110SOL     OW47168   7.084   2.090   4.217
15110SOL    HW147169   7.147   2.124   4.281
15110SOL    HW247170   7.125   2.106   4.132
15111SOL     OW47171   7.090   2.055   5.201
15111SOL    HW147172   7.119   2.010   5.121
15111SOL    HW247173   7.076   2.146   5.174
15112SOL     OW47174  10.548   8.830  11.975
15112SOL    HW147175  10.546   8.864  12.064
15112SOL    HW247176  10.519   8.739  11.984
15113SOL     OW47177   7.994   4.240   1.083
15113SOL    HW147178   7.977   4.153   1.118
15113SOL    HW247179   7.946   4.242   1.000
15114SOL     OW47180   5.990  14.199   5.280
15114SOL    HW147181   5.934  14.270   5.250
15114SOL    HW247182   5.930  14.131   5.311
15115SOL     OW47183   3.131  12.758   6.675
15115SOL    HW147184   3.210  12.808   6.658
15115SOL    HW247185   3.102  12.727   6.589
15116SOL     OW47186  10.386   1.473   7.366
15116SOL    HW147187  10.460   1.528   7.340
15116SOL    HW247188  10.320   1.489   7.299
15117SOL     OW47189   7.308   2.280  11.644
15117SOL    HW147190   7.262   2.352  11.686
15117SOL    HW247191   7.264   2.269  11.560
15118SOL     OW47192   1.106   8.761   3.961
15118SOL    HW147193   1.046   8.717   4.021
15118SOL    HW247194   1.056   8.835   3.927
15119SOL     OW47195   6.306  12.609  14.429
15119SOL    HW147196   6.362  12.588  14.504
15119SOL    HW247197   6.220  12.575  14.452
15120SOL     OW47198  10.282  11.820   4.956
15120SOL    HW147199  10.281  11.811   5.051
15120SOL    HW247200  10.367  11.858   4.936
15121SOL     OW47201   4.216  13.383  10.576
15121SOL    HW147202   4.241  13.429  10.495
15121SOL    HW247203   4.191  13.295  10.547
15122SOL     OW47204   9.846   9.032   4.855
15122SOL    HW147205   9.853   9.019   4.949
15122SOL    HW247206   9.921   8.984   4.818
15123SOL     OW47207   4.273  10.004   3.511
15123SOL    HW147208   4.182   9.988   3.536
15123SOL    HW247209   4.276   9.985   3.417
15124SOL     OW47210  14.231   8.002   4.107
15124SOL    HW147211  14.242   7.967   4.019
15124SOL    HW247212  14.184   8.085   4.094
15125SOL     OW47213   8.958   2.369  11.413
15125SOL    HW147214   8.992   2.385  11.502
15125SOL    HW247215   8.997   2.438  11.360
15126SOL     OW47216   6.435   9.306   2.387
15126SOL    HW147217   6.353   9.352   2.403
15126SOL    HW247218   6.438   9.292   2.293
15127SOL     OW47219  11.653  10.817   5.746
15127SOL    HW147220  11.573  10.870   5.743
15127SOL    HW247221  11.723  10.881   5.758
15128SOL     OW47222   5.768   6.907   0.855
15128SOL    HW147223   5.826   6.964   0.805
15128SOL    HW247224   5.817   6.889   0.936
15129SOL     OW47225   0.464   0.354  13.188
15129SOL    HW147226   0.388   0.404  13.157
15129SOL    HW247227   0.432   0.265  13.201
15130SOL     OW47228   7.509  10.065   1.112
15130SOL    HW147229   7.575  10.057   1.044
15130SOL    HW247230   7.557  10.093   1.190
15131SOL     OW47231   5.210  14.236   7.275
15131SOL    HW147232   5.176  14.183   7.203
15131SOL    HW247233   5.172  14.323   7.260
15132SOL     OW47234  14.006   1.200  13.599
15132SOL    HW147235  13.996   1.256  13.522
15132SOL    HW247236  13.918   1.194  13.636
15133SOL     OW47237   6.446  13.916   4.381
15133SOL    HW147238   6.460  13.822   4.364
15133SOL    HW247239   6.534  13.953   4.381
15134SOL     OW47240   4.437   2.465  10.288
15134SOL    HW147241   4.419   2.417  10.208
15134SOL    HW247242   4.491   2.539  10.261
15135SOL     OW47243   5.634   7.855   0.811
15135SOL    HW147244   5.628   7.800   0.889
15135SOL    HW247245   5.612   7.796   0.739
15136SOL     OW47246   3.936   1.614   7.983
15136SOL    HW147247   3.952   1.649   8.070
15136SOL    HW247248   3.978   1.676   7.924
15137SOL     OW47249  12.978  13.793   4.785
15137SOL    HW147250  12.902  13.736   4.795
15137SOL    HW247251  13.011  13.805   4.874
15138SOL     OW47252   7.738   3.635   5.509
15138SOL    HW147253   7.665   3.690   5.537
15138SOL    HW247254   7.702   3.582   5.437
15139SOL     OW47255   3.145   0.780  10.052
15139SOL    HW147256   3.219   0.807  10.106
15139SOL    HW247257   3.076   0.759  10.115
15140SOL     OW47258   5.462   1.686  10.362
15140SOL    HW147259   5.397   1.623  10.331
15140SOL    HW247260   5.519   1.636  10.419
15141SOL     OW47261  10.650   0.165   0.100
15141SOL    HW147262  10.672   0.257   0.114
15141SOL    HW247263  10.570   0.152   0.150
15142SOL     OW47264  14.331   5.206  13.153
15142SOL    HW147265  14.239   5.200  13.179
15142SOL    HW247266  14.347   5.127  13.102
15143SOL     OW47267   5.473   9.904   0.365
15143SOL    HW147268   5.379   9.913   0.348
15143SOL    HW247269   5.506   9.993   0.364
15144SOL     OW47270  13.650   3.383  11.526
15144SOL    HW147271  13.742   3.380  11.499
15144SOL    HW247272  13.624   3.474  11.513
15145SOL     OW47273   6.522  11.738  10.842
15145SOL    HW147274   6.443  11.705  10.800
15145SOL    HW247275   6.491  11.776  10.924
15146SOL     OW47276  10.872   1.716  10.434
15146SOL    HW147277  10.919   1.787  10.391
15146SOL    HW247278  10.881   1.734  10.528
15147SOL     OW47279  12.411   8.451   5.159
15147SOL    HW147280  12.426   8.361   5.128
15147SOL    HW247281  12.444   8.451   5.249
15148SOL     OW47282   7.312   2.258   3.028
15148SOL    HW147283   7.334   2.343   2.989
15148SOL    HW247284   7.218   2.263   3.046
15149SOL     OW47285  10.259   6.188   5.006
15149SOL    HW147286  10.239   6.163   5.096
15149SOL    HW247287  10.205   6.130   4.952
15150SOL     OW47288   2.914   2.768   4.539
15150SOL    HW147289   2.893   2.680   4.507
15150SOL    HW247290   2.904   2.825   4.462
15151SOL     OW47291   3.235  10.060  11.563
15151SOL    HW147292   3.200   9.998  11.627
15151SOL    HW247293   3.203  10.146  11.592
15152SOL     OW47294  11.303   8.052   6.414
15152SOL    HW147295  11.238   8.052   6.344
15152SOL    HW247296  11.306   7.962   6.445
15153SOL     OW47297  12.707  11.544   9.584
15153SOL    HW147298  12.676  11.530   9.495
15153SOL    HW247299  12.735  11.636   9.585
15154SOL     OW47300  12.949   0.431   1.554
15154SOL    HW147301  12.971   0.466   1.468
15154SOL    HW247302  12.914   0.344   1.537
15155SOL     OW47303  10.446   9.199   0.071
15155SOL    HW147304  10.425   9.178   0.162
15155SOL    HW247305  10.539   9.223   0.072
15156SOL     OW47306   9.891   2.630   6.371
15156SOL    HW147307   9.972   2.579   6.370
15156SOL    HW247308   9.857   2.622   6.282
15157SOL     OW47309   8.638  10.022   2.055
15157SOL    HW147310   8.721  10.069   2.045
15157SOL    HW247311   8.661   9.929   2.043
15158SOL     OW47312   2.648   3.258  12.297
15158SOL    HW147313   2.592   3.273  12.221
15158SOL    HW247314   2.661   3.163  12.299
15159SOL     OW47315  10.240   3.673  13.946
15159SOL    HW147316  10.290   3.661  13.865
15159SOL    HW247317  10.209   3.764  13.941
15160SOL     OW47318   1.817  14.038   4.653
15160SOL    HW147319   1.845  14.110   4.596
15160SOL    HW247320   1.898  14.008   4.694
15161SOL     OW47321   6.211   7.880  12.435
15161SOL    HW147322   6.274   7.842  12.497
15161SOL    HW247323   6.151   7.808  12.415
15162SOL     OW47324  12.393   1.114   7.642
15162SOL    HW147325  12.308   1.095   7.683
15162SOL    HW247326  12.447   1.038   7.661
15163SOL     OW47327   7.172   2.200   5.792
15163SOL    HW147328   7.151   2.142   5.865
15163SOL    HW247329   7.090   2.247   5.775
15164SOL     OW47330   3.482   7.596  12.098
15164SOL    HW147331   3.471   7.636  12.012
15164SOL    HW247332   3.393   7.575  12.127
15165SOL     OW47333  13.001   2.530  10.463
15165SOL    HW147334  12.956   2.541  10.379
15165SOL    HW247335  12.945   2.575  10.526
15166SOL     OW47336  14.045   0.934   5.663
15166SOL    HW147337  13.986   0.862   5.686
15166SOL    HW247338  14.056   0.927   5.569
15167SOL     OW47339   3.402   1.485   3.275
15167SOL    HW147340   3.344   1.467   3.349
15167SOL    HW247341   3.384   1.414   3.213
15168SOL     OW47342   5.508  11.586  11.801
15168SOL    HW147343   5.454  11.525  11.750
15168SOL    HW247344   5.560  11.530  11.858
15169SOL     OW47345  11.531   0.147   3.889
15169SOL    HW147346  11.600   0.207   3.916
15169SOL    HW247347  11.538   0.144   3.794
15170SOL     OW47348   4.257  13.543   1.957
15170SOL    HW147349   4.200  13.483   2.006
15170SOL    HW247350   4.327  13.487   1.923
15171SOL     OW47351  11.354   9.216  11.091
15171SOL    HW147352  11.416   9.288  11.104
15171SOL    HW247353  11.271   9.250  11.125
15172SOL     OW47354  13.619  13.479   5.003
15172SOL    HW147355  13.600  13.385   5.006
15172SOL    HW247356  13.603  13.503   4.911
15173SOL     OW47357   3.234  11.503  13.829
15173SOL    HW147358   3.310  11.555  13.806
15173SOL    HW247359   3.175  11.512  13.754
15174SOL     OW47360   0.599   4.789   7.797
15174SOL    HW147361   0.619   4.794   7.703
15174SOL    HW247362   0.672   4.740   7.834
15175SOL     OW47363   0.697  12.238   7.698
15175SOL    HW147364   0.623  12.235   7.637
15175SOL    HW247365   0.690  12.156   7.747
15176SOL     OW47366   6.539  14.507   9.822
15176SOL    HW147367   6.509  14.588   9.863
15176SOL    HW247368   6.634  14.517   9.813
15177SOL     OW47369  13.246   4.369   4.724
15177SOL    HW147370  13.251   4.442   4.785
15177SOL    HW247371  13.289   4.296   4.770
15178SOL     OW47372   3.925   0.201  12.632
15178SOL    HW147373   3.922   0.270  12.566
15178SOL    HW247374   3.957   0.245  12.711
15179SOL     OW47375  12.167   4.547   4.617
15179SOL    HW147376  12.232   4.539   4.547
15179SOL    HW247377  12.145   4.457   4.639
15180SOL     OW47378  12.887  14.634   6.606
15180SOL    HW147379  12.904  14.728   6.601
15180SOL    HW247380  12.824  14.617   6.536
15181SOL     OW47381   5.321   3.821   1.835
15181SOL    HW147382   5.333   3.780   1.920
15181SOL    HW247383   5.390   3.888   1.831
15182SOL     OW47384  10.991   3.089  14.547
15182SOL    HW147385  11.053   3.116  14.615
15182SOL    HW247386  10.913   3.064  14.595
15183SOL     OW47387   3.056  10.931   3.320
15183SOL    HW147388   2.972  10.892   3.295
15183SOL    HW247389   3.118  10.858   3.320
15184SOL     OW47390   6.018   4.286   6.272
15184SOL    HW147391   5.945   4.228   6.252
15184SOL    HW247392   6.038   4.329   6.188
15185SOL     OW47393   0.561  13.416   5.028
15185SOL    HW147394   0.485  13.460   5.065
15185SOL    HW247395   0.542  13.412   4.934
15186SOL     OW47396   2.285   4.865   8.035
15186SOL    HW147397   2.264   4.797   8.099
15186SOL    HW247398   2.232   4.843   7.958
15187SOL     OW47399  13.491  11.143   0.583
15187SOL    HW147400  13.501  11.216   0.643
15187SOL    HW247401  13.433  11.176   0.514
15188SOL     OW47402  10.750  14.617   9.502
15188SOL    HW147403  10.719  14.559   9.572
15188SOL    HW247404  10.803  14.683   9.546
15189SOL     OW47405   0.010  10.329  11.811
15189SOL    HW147406   0.079  10.395  11.812
15189SOL    HW247407   0.038  10.264  11.875
15190SOL     OW47408   7.904   7.818   3.755
15190SOL    HW147409   7.955   7.760   3.811
15190SOL    HW247410   7.870   7.885   3.814
15191SOL     OW47411   5.044  11.932  11.180
15191SOL    HW147412   5.018  11.897  11.265
15191SOL    HW247413   4.985  12.006  11.165
15192SOL     OW47414  12.143   7.145   8.507
15192SOL    HW147415  12.091   7.081   8.556
15192SOL    HW247416  12.092   7.226   8.512
15193SOL     OW47417   4.349  11.947  13.485
15193SOL    HW147418   4.342  12.041  13.501
15193SOL    HW247419   4.415  11.917  13.547
15194SOL     OW47420   5.942  11.675  12.834
15194SOL    HW147421   5.996  11.616  12.887
15194SOL    HW247422   5.898  11.731  12.897
15195SOL     OW47423   5.322   7.133   4.152
15195SOL    HW147424   5.284   7.054   4.188
15195SOL    HW247425   5.404   7.104   4.112
15196SOL     OW47426  13.596   4.809   3.961
15196SOL    HW147427  13.660   4.870   3.925
15196SOL    HW247428  13.633   4.722   3.945
15197SOL     OW47429   7.671   7.969   1.841
15197SOL    HW147430   7.749   8.023   1.824
15197SOL    HW247431   7.613   7.988   1.767
15198SOL     OW47432  11.720  11.867   2.316
15198SOL    HW147433  11.665  11.913   2.254
15198SOL    HW247434  11.663  11.849   2.391
15199SOL     OW47435   2.847   3.138   7.519
15199SOL    HW147436   2.905   3.089   7.577
15199SOL    HW247437   2.904   3.166   7.447
15200SOL     OW47438  10.881   5.048   0.948
15200SOL    HW147439  10.883   5.137   0.913
15200SOL    HW247440  10.971   5.017   0.941
15201SOL     OW47441   4.720   4.536   3.444
15201SOL    HW147442   4.698   4.605   3.506
15201SOL    HW247443   4.640   4.524   3.392
15202SOL     OW47444   0.980  12.362  10.585
15202SOL    HW147445   0.905  12.419  10.600
15202SOL    HW247446   1.051  12.401  10.636
15203SOL     OW47447  10.946   4.117   7.433
15203SOL    HW147448  10.988   4.050   7.380
15203SOL    HW247449  10.959   4.089   7.524
15204SOL     OW47450  14.185  14.857   3.045
15204SOL    HW147451  14.189  14.860   3.141
15204SOL    HW247452  14.104   0.030   3.023
15205SOL     OW47453  10.619   6.128   4.696
15205SOL    HW147454  10.659   6.120   4.610
15205SOL    HW247455  10.643   6.216   4.726
15206SOL     OW47456  10.880  10.914   3.713
15206SOL    HW147457  10.804  10.972   3.713
15206SOL    HW247458  10.891  10.889   3.621
15207SOL     OW47459   5.857  14.102   0.172
15207SOL    HW147460   5.935  14.081   0.122
15207SOL    HW247461   5.848  14.197   0.165
15208SOL     OW47462   6.974   3.639   8.973
15208SOL    HW147463   6.899   3.615   9.028
15208SOL    HW247464   6.936   3.687   8.899
15209SOL     OW47465   9.906  12.711  12.374
15209SOL    HW147466   9.923  12.661  12.294
15209SOL    HW247467   9.840  12.659  12.421
15210SOL     OW47468   1.278   6.084   5.919
15210SOL    HW147469   1.299   5.993   5.943
15210SOL    HW247470   1.236   6.077   5.834
15211SOL     OW47471  12.598   8.122  14.505
15211SOL    HW147472  12.532   8.064  14.468
15211SOL    HW247473  12.642   8.160  14.428
15212SOL     OW47474   7.301  13.802   2.343
15212SOL    HW147475   7.236  13.849   2.394
15212SOL    HW247476   7.374  13.864   2.335
15213SOL     OW47477  10.607  12.422   0.851
15213SOL    HW147478  10.595  12.413   0.945
15213SOL    HW247479  10.651  12.341   0.824
15214SOL     OW47480   7.975   4.347   9.898
15214SOL    HW147481   8.067   4.370   9.883
15214SOL    HW247482   7.978   4.273   9.958
15215SOL     OW47483   8.085  14.289  11.835
15215SOL    HW147484   8.152  14.302  11.902
15215SOL    HW247485   8.132  14.300  11.752
15216SOL     OW47486  11.432   9.854  10.253
15216SOL    HW147487  11.363   9.914  10.225
15216SOL    HW247488  11.419   9.847  10.348
15217SOL     OW47489  13.114   0.043   0.899
15217SOL    HW147490  13.122   0.107   0.969
15217SOL    HW247491  13.151  14.836   0.936
15218SOL     OW47492  11.483  10.458   2.507
15218SOL    HW147493  11.529  10.521   2.451
15218SOL    HW247494  11.394  10.456   2.473
15219SOL     OW47495  12.921  12.650   9.067
15219SOL    HW147496  12.983  12.717   9.093
15219SOL    HW247497  12.949  12.571   9.114
15220SOL     OW47498   0.768   6.319   5.064
15220SOL    HW147499   0.693   6.281   5.108
15220SOL    HW247500   0.732   6.357   4.984
15221SOL     OW47501   8.747  13.937  12.045
15221SOL    HW147502   8.750  14.027  12.013
15221SOL    HW247503   8.654  13.916  12.054
15222SOL     OW47504   1.793   1.740  12.964
15222SOL    HW147505   1.756   1.700  12.886
15222SOL    HW247506   1.764   1.684  13.036
15223SOL     OW47507  10.142   5.911  14.631
15223SOL    HW147508  10.079   5.981  14.647
15223SOL    HW247509  10.218   5.954  14.592
15224SOL     OW47510   8.670  13.523   0.890
15224SOL    HW147511   8.765  13.512   0.892
15224SOL    HW247512   8.656  13.616   0.906
15225SOL     OW47513  10.600  11.766   2.046
15225SOL    HW147514  10.571  11.756   2.137
15225SOL    HW247515  10.692  11.790   2.052
15226SOL     OW47516   6.733   0.193   8.683
15226SOL    HW147517   6.791   0.224   8.613
15226SOL    HW247518   6.782   0.211   8.764
15227SOL     OW47519  12.255   4.204   3.376
15227SOL    HW147520  12.316   4.140   3.412
15227SOL    HW247521  12.310   4.266   3.329
15228SOL     OW47522   0.554   3.449   1.974
15228SOL    HW147523   0.460   3.461   1.982
15228SOL    HW247524   0.589   3.476   2.059
15229SOL     OW47525  12.331  12.737   6.490
15229SOL    HW147526  12.295  12.780   6.568
15229SOL    HW247527  12.412  12.696   6.521
15230SOL     OW47528   8.570  14.697   1.771
15230SOL    HW147529   8.563  14.716   1.677
15230SOL    HW247530   8.659  14.723   1.795
15231SOL     OW47531   4.748   8.939  11.693
15231SOL    HW147532   4.730   8.996  11.768
15231SOL    HW247533   4.662   8.919  11.657
15232SOL     OW47534  14.331  13.007   9.085
15232SOL    HW147535  14.376  13.064   9.022
15232SOL    HW247536  14.263  13.062   9.122
15233SOL     OW47537  14.602  13.276  13.460
15233SOL    HW147538  14.632  13.196  13.504
15233SOL    HW247539  14.567  13.330  13.530
15234SOL     OW47540   5.459  11.785   6.426
15234SOL    HW147541   5.513  11.822   6.356
15234SOL    HW247542   5.372  11.777   6.386
15235SOL     OW47543   5.163   2.293   7.940
15235SOL    HW147544   5.099   2.285   8.011
15235SOL    HW247545   5.201   2.205   7.933
15236SOL     OW47546   9.517  12.614   0.040
15236SOL    HW147547   9.455  12.687   0.038
15236SOL    HW247548   9.497  12.564  14.834
15237SOL     OW47549   3.907  10.224   8.023
15237SOL    HW147550   3.940  10.134   8.017
15237SOL    HW247551   3.848  10.233   7.948
15238SOL     OW47552   2.481   0.805   6.315
15238SOL    HW147553   2.420   0.748   6.267
15238SOL    HW247554   2.470   0.891   6.275
15239SOL     OW47555  12.356   5.333   9.632
15239SOL    HW147556  12.434   5.387   9.616
15239SOL    HW247557  12.385   5.267   9.695
15240SOL     OW47558   9.267   1.855  13.850
15240SOL    HW147559   9.226   1.894  13.774
15240SOL    HW247560   9.272   1.761  13.830
15241SOL     OW47561  12.557   5.927   4.210
15241SOL    HW147562  12.493   5.929   4.139
15241SOL    HW247563  12.532   5.851   4.262
15242SOL     OW47564   8.830  11.495   0.122
15242SOL    HW147565   8.923  11.518   0.117
15242SOL    HW247566   8.784  11.578   0.114
15243SOL     OW47567   5.190   8.676   7.060
15243SOL    HW147568   5.239   8.684   7.142
15243SOL    HW247569   5.121   8.741   7.067
15244SOL     OW47570  12.582  11.227  13.199
15244SOL    HW147571  12.534  11.248  13.279
15244SOL    HW247572  12.585  11.309  13.150
15245SOL     OW47573   4.296   2.442   1.561
15245SOL    HW147574   4.276   2.349   1.549
15245SOL    HW247575   4.387   2.444   1.590
15246SOL     OW47576   9.590  12.433   7.649
15246SOL    HW147577   9.600  12.501   7.582
15246SOL    HW247578   9.647  12.460   7.720
15247SOL     OW47579  10.993   3.060  11.599
15247SOL    HW147580  11.055   3.132  11.601
15247SOL    HW247581  10.978   3.038  11.691
15248SOL     OW47582   5.039   6.496   6.486
15248SOL    HW147583   5.006   6.578   6.524
15248SOL    HW247584   5.087   6.524   6.408
15249SOL     OW47585   2.341   1.765  13.169
15249SOL    HW147586   2.288   1.805  13.100
15249SOL    HW247587   2.286   1.695  13.205
15250SOL     OW47588  13.341  10.896  12.944
15250SOL    HW147589  13.260  10.937  12.971
15250SOL    HW247590  13.396  10.895  13.022
15251SOL     OW47591   1.826   4.487  10.085
15251SOL    HW147592   1.824   4.467  10.179
15251SOL    HW247593   1.747   4.446  10.051
15252SOL     OW47594   1.737  10.143   0.630
15252SOL    HW147595   1.671  10.083   0.597
15252SOL    HW247596   1.703  10.230   0.611
15253SOL     OW47597  11.619   4.582   8.551
15253SOL    HW147598  11.614   4.666   8.506
15253SOL    HW247599  11.679   4.529   8.498
15254SOL     OW47600  10.331   8.522  10.261
15254SOL    HW147601  10.401   8.496  10.202
15254SOL    HW247602  10.252   8.521  10.206
15255SOL     OW47603   0.543   8.840   0.611
15255SOL    HW147604   0.507   8.848   0.699
15255SOL    HW247605   0.542   8.746   0.593
15256SOL     OW47606  13.105  10.659   1.200
15256SOL    HW147607  13.149  10.597   1.142
15256SOL    HW247608  13.014  10.629   1.202
15257SOL     OW47609  12.774   0.757   5.244
15257SOL    HW147610  12.733   0.674   5.268
15257SOL    HW247611  12.832   0.778   5.318
15258SOL     OW47612   5.582   9.939  12.296
15258SOL    HW147613   5.515  10.004  12.275
15258SOL    HW247614   5.577   9.875  12.224
15259SOL     OW47615   2.110   5.290  11.689
15259SOL    HW147616   2.158   5.313  11.769
15259SOL    HW247617   2.050   5.220  11.717
15260SOL     OW47618   1.177   1.813  11.018
15260SOL    HW147619   1.094   1.765  11.014
15260SOL    HW247620   1.225   1.771  11.090
15261SOL     OW47621   8.019  11.183   4.624
15261SOL    HW147622   8.094  11.181   4.565
15261SOL    HW247623   7.955  11.240   4.581
15262SOL     OW47624   4.278   5.514   7.701
15262SOL    HW147625   4.263   5.503   7.795
15262SOL    HW247626   4.195   5.488   7.661
15263SOL     OW47627   0.254  10.777   3.948
15263SOL    HW147628   0.168  10.809   3.920
15263SOL    HW247629   0.235  10.703   4.005
15264SOL     OW47630  12.571   6.797  10.904
15264SOL    HW147631  12.537   6.751  10.981
15264SOL    HW247632  12.636   6.857  10.939
15265SOL     OW47633   0.930  10.538   2.908
15265SOL    HW147634   0.980  10.515   2.831
15265SOL    HW247635   0.935  10.461   2.964
15266SOL     OW47636   0.521  10.074   0.880
15266SOL    HW147637   0.427  10.084   0.870
15266SOL    HW247638   0.533  10.035   0.967
15267SOL     OW47639   2.056  13.838   9.838
15267SOL    HW147640   2.023  13.748   9.843
15267SOL    HW247641   2.101  13.850   9.922
15268SOL     OW47642  10.849  11.048  12.794
15268SOL    HW147643  10.832  11.046  12.888
15268SOL    HW247644  10.762  11.057  12.755
15269SOL     OW47645   2.268   9.353   9.047
15269SOL    HW147646   2.238   9.417   8.982
15269SOL    HW247647   2.308   9.283   8.995
15270SOL     OW47648  14.833   1.969  11.061
15270SOL    HW147649  14.764   2.034  11.076
15270SOL    HW247650  14.811   1.930  10.976
15271SOL     OW47651   8.230  13.462   3.640
15271SOL    HW147652   8.166  13.531   3.627
15271SOL    HW247653   8.235  13.452   3.736
15272SOL     OW47654  10.556  13.354   7.499
15272SOL    HW147655  10.571  13.261   7.518
15272SOL    HW247656  10.461  13.362   7.495
15273SOL     OW47657   9.465   2.614   6.485
15273SOL    HW147658   9.554   2.608   6.520
15273SOL    HW247659   9.466   2.692   6.429
15274SOL     OW47660   2.455   5.416   6.258
15274SOL    HW147661   2.435   5.322   6.253
15274SOL    HW247662   2.458   5.444   6.166
15275SOL     OW47663  12.964   0.987   9.146
15275SOL    HW147664  13.021   1.046   9.196
15275SOL    HW247665  12.882   1.035   9.139
15276SOL     OW47666  13.627  11.923   2.840
15276SOL    HW147667  13.649  11.852   2.900
15276SOL    HW247668  13.712  11.960   2.815
15277SOL     OW47669   5.252  14.601   4.856
15277SOL    HW147670   5.239  14.677   4.912
15277SOL    HW247671   5.198  14.617   4.779
15278SOL     OW47672   2.884   4.087   0.875
15278SOL    HW147673   2.954   4.103   0.811
15278SOL    HW247674   2.809   4.135   0.839
15279SOL     OW47675   1.192   8.840   4.645
15279SOL    HW147676   1.248   8.896   4.699
15279SOL    HW247677   1.177   8.762   4.699
15280SOL     OW47678  10.443   0.943   3.019
15280SOL    HW147679  10.501   0.884   3.067
15280SOL    HW247680  10.481   0.948   2.931
15281SOL     OW47681  13.028   2.414  11.074
15281SOL    HW147682  12.975   2.434  10.996
15281SOL    HW247683  13.118   2.434  11.048
15282SOL     OW47684   7.331   7.718   9.699
15282SOL    HW147685   7.314   7.710   9.605
15282SOL    HW247686   7.377   7.638   9.723
15283SOL     OW47687   1.617   7.376   6.460
15283SOL    HW147688   1.661   7.457   6.487
15283SOL    HW247689   1.593   7.392   6.369
15284SOL     OW47690  10.130   5.275  10.477
15284SOL    HW147691  10.215   5.247  10.513
15284SOL    HW247692  10.077   5.195  10.477
15285SOL     OW47693   5.184  14.600   3.102
15285SOL    HW147694   5.218  14.686   3.078
15285SOL    HW247695   5.114  14.618   3.164
15286SOL     OW47696   3.261   9.270   1.220
15286SOL    HW147697   3.281   9.256   1.313
15286SOL    HW247698   3.324   9.215   1.173
15287SOL     OW47699   0.743   1.843   2.844
15287SOL    HW147700   0.781   1.875   2.926
15287SOL    HW247701   0.807   1.868   2.777
15288SOL     OW47702  10.005   8.250   1.979
15288SOL    HW147703   9.918   8.213   1.995
15288SOL    HW247704  10.051   8.242   2.063
15289SOL     OW47705   7.417   0.047   4.558
15289SOL    HW147706   7.513   0.054   4.562
15289SOL    HW247707   7.388   0.067   4.647
15290SOL     OW47708   9.507  14.530   3.767
15290SOL    HW147709   9.516  14.435   3.772
15290SOL    HW247710   9.589  14.564   3.803
15291SOL     OW47711   0.278  14.508  10.942
15291SOL    HW147712   0.300  14.583  10.887
15291SOL    HW247713   0.184  14.495  10.926
15292SOL     OW47714   3.144   0.880  10.987
15292SOL    HW147715   3.226   0.926  11.004
15292SOL    HW247716   3.106   0.926  10.911
15293SOL     OW47717  10.593   7.878  11.453
15293SOL    HW147718  10.528   7.885  11.383
15293SOL    HW247719  10.639   7.962  11.451
15294SOL     OW47720  11.354  11.394   3.252
15294SOL    HW147721  11.383  11.397   3.344
15294SOL    HW247722  11.274  11.447   3.251
15295SOL     OW47723  11.911   8.351   9.812
15295SOL    HW147724  11.840   8.407   9.843
15295SOL    HW247725  11.990   8.403   9.824
15296SOL     OW47726   9.390   1.108   5.196
15296SOL    HW147727   9.378   1.025   5.243
15296SOL    HW247728   9.311   1.158   5.216
15297SOL     OW47729   5.652   3.505   2.986
15297SOL    HW147730   5.689   3.576   2.933
15297SOL    HW247731   5.633   3.435   2.923
15298SOL     OW47732   7.799   8.362   2.285
15298SOL    HW147733   7.855   8.390   2.213
15298SOL    HW247734   7.810   8.267   2.289
15299SOL     OW47735  14.825   8.741   7.833
15299SOL    HW147736  14.821   8.680   7.906
15299SOL    HW247737  14.823   8.686   7.755
15300SOL     OW47738  11.895   0.384   4.567
15300SOL    HW147739  11.889   0.387   4.471
15300SOL    HW247740  11.948   0.306   4.585
15301SOL     OW47741  11.735   3.726   1.025
15301SOL    HW147742  11.705   3.815   1.006
15301SOL    HW247743  11.692   3.672   0.959
15302SOL     OW47744   2.548   4.636  12.028
15302SOL    HW147745   2.530   4.730  12.040
15302SOL    HW247746   2.531   4.620  11.935
15303SOL     OW47747   3.514  14.644  12.971
15303SOL    HW147748   3.575  14.657  12.898
15303SOL    HW247749   3.470  14.728  12.980
15304SOL     OW47750   9.133  14.836  13.959
15304SOL    HW147751   9.109  14.862  14.048
15304SOL    HW247752   9.078   0.017  13.903
15305SOL     OW47753   7.774   4.778  12.400
15305SOL    HW147754   7.730   4.700  12.365
15305SOL    HW247755   7.718   4.806  12.472
15306SOL     OW47756   9.472   1.906  10.007
15306SOL    HW147757   9.540   1.905   9.940
15306SOL    HW247758   9.431   1.819  10.000
15307SOL     OW47759   5.647  10.307   4.042
15307SOL    HW147760   5.739  10.279   4.042
15307SOL    HW247761   5.651  10.401   4.023
15308SOL     OW47762  12.324   7.733   8.698
15308SOL    HW147763  12.230   7.721   8.705
15308SOL    HW247764  12.360   7.646   8.713
15309SOL     OW47765   7.984   9.401   7.982
15309SOL    HW147766   8.049   9.354   7.930
15309SOL    HW247767   7.960   9.339   8.051
15310SOL     OW47768   6.704  10.959  12.423
15310SOL    HW147769   6.663  11.024  12.481
15310SOL    HW247770   6.632  10.901  12.398
15311SOL     OW47771  13.454  11.024  12.481
15311SOL    HW147772  13.423  10.985  12.563
15311SOL    HW247773  13.493  11.108  12.509
15312SOL     OW47774  10.843   7.091   3.960
15312SOL    HW147775  10.926   7.125   3.993
15312SOL    HW247776  10.835   7.129   3.873
15313SOL     OW47777   1.937   8.895   8.409
15313SOL    HW147778   2.017   8.934   8.444
15313SOL    HW247779   1.928   8.812   8.455
15314SOL     OW47780  12.828   4.361   5.981
15314SOL    HW147781  12.851   4.374   5.888
15314SOL    HW247782  12.913   4.354   6.025
15315SOL     OW47783   5.898   4.393   1.091
15315SOL    HW147784   5.806   4.418   1.106
15315SOL    HW247785   5.940   4.473   1.060
15316SOL     OW47786   0.945  13.478   7.469
15316SOL    HW147787   0.873  13.434   7.515
15316SOL    HW247788   0.904  13.519   7.393
15317SOL     OW47789   1.391  10.573  11.478
15317SOL    HW147790   1.400  10.668  11.470
15317SOL    HW247791   1.332  10.560  11.552
15318SOL     OW47792   0.187   8.494   8.164
15318SOL    HW147793   0.257   8.546   8.125
15318SOL    HW247794   0.232   8.428   8.217
15319SOL     OW47795   6.935  14.845   8.904
15319SOL    HW147796   6.942  14.751   8.921
15319SOL    HW247797   6.970  14.856   8.816
15320SOL     OW47798  13.003   3.871  12.089
15320SOL    HW147799  12.913   3.872  12.122
15320SOL    HW247800  13.034   3.961  12.104
15321SOL     OW47801  10.585   9.253   1.119
15321SOL    HW147802  10.542   9.300   1.191
15321SOL    HW247803  10.677   9.280   1.125
15322SOL     OW47804   0.284   7.405   5.932
15322SOL    HW147805   0.309   7.380   5.843
15322SOL    HW247806   0.189   7.420   5.926
15323SOL     OW47807   1.375   2.841   0.526
15323SOL    HW147808   1.386   2.936   0.530
15323SOL    HW247809   1.323   2.819   0.602
15324SOL     OW47810   3.097   2.383   1.240
15324SOL    HW147811   3.163   2.447   1.268
15324SOL    HW247812   3.074   2.337   1.320
15325SOL     OW47813   7.154  14.716   1.092
15325SOL    HW147814   7.119  14.638   1.134
15325SOL    HW247815   7.089  14.784   1.110
15326SOL     OW47816  13.067   8.798   8.085
15326SOL    HW147817  13.112   8.881   8.068
15326SOL    HW247818  13.059   8.794   8.180
15327SOL     OW47819   4.213   9.324   8.207
15327SOL    HW147820   4.169   9.312   8.123
15327SOL    HW247821   4.287   9.264   8.205
15328SOL     OW47822   1.801  14.225   4.421
15328SOL    HW147823   1.886  14.238   4.378
15328SOL    HW247824   1.747  14.181   4.355
15329SOL     OW47825  14.135  10.530   4.441
15329SOL    HW147826  14.108  10.524   4.350
15329SOL    HW247827  14.146  10.439   4.469
15330SOL     OW47828   7.348   4.042  10.446
15330SOL    HW147829   7.408   3.994  10.389
15330SOL    HW247830   7.271   4.057  10.392
15331SOL     OW47831   6.963   7.093   7.158
15331SOL    HW147832   6.886   7.090   7.101
15331SOL    HW247833   6.942   7.031   7.229
15332SOL     OW47834  13.302  14.800   6.699
15332SOL    HW147835  13.347  14.836   6.775
15332SOL    HW247836  13.210  14.796   6.726
15333SOL     OW47837   8.490   1.291   7.454
15333SOL    HW147838   8.419   1.310   7.516
15333SOL    HW247839   8.570   1.313   7.501
15334SOL     OW47840   6.944   1.729  14.743
15334SOL    HW147841   6.897   1.812  14.754
15334SOL    HW247842   6.913   1.695  14.659
15335SOL     OW47843   7.682  12.063   5.358
15335SOL    HW147844   7.691  12.118   5.436
15335SOL    HW247845   7.587  12.058   5.343
15336SOL     OW47846   2.828   7.725   6.045
15336SOL    HW147847   2.875   7.725   6.129
15336SOL    HW247848   2.758   7.661   6.057
15337SOL     OW47849  14.333   7.933   3.850
15337SOL    HW147850  14.412   7.909   3.898
15337SOL    HW247851  14.362   7.996   3.785
15338SOL     OW47852   1.277   0.518  11.503
15338SOL    HW147853   1.326   0.583  11.451
15338SOL    HW247854   1.283   0.551  11.593
15339SOL     OW47855   8.185  11.524  12.253
15339SOL    HW147856   8.127  11.454  12.223
15339SOL    HW247857   8.168  11.597  12.194
15340SOL     OW47858   0.238   4.084   7.597
15340SOL    HW147859   0.288   4.008   7.627
15340SOL    HW247860   0.169   4.095   7.662
15341SOL     OW47861   9.759   8.642   4.789
15341SOL    HW147862   9.847   8.639   4.827
15341SOL    HW247863   9.703   8.670   4.861
15342SOL     OW47864   1.640   2.288   3.649
15342SOL    HW147865   1.601   2.234   3.581
15342SOL    HW247866   1.569   2.304   3.711
15343SOL     OW47867   8.491  12.229   5.143
15343SOL    HW147868   8.443  12.312   5.144
15343SOL    HW247869   8.465  12.185   5.223
15344SOL     OW47870  11.195   9.788  13.567
15344SOL    HW147871  11.140   9.865  13.559
15344SOL    HW247872  11.241   9.799  13.650
15345SOL     OW47873   0.243  11.110   7.398
15345SOL    HW147874   0.229  11.145   7.486
15345SOL    HW247875   0.204  11.023   7.399
15346SOL     OW47876   1.141   0.119   4.456
15346SOL    HW147877   1.107   0.029   4.454
15346SOL    HW247878   1.063   0.174   4.469
15347SOL     OW47879   9.628   9.055   0.490
15347SOL    HW147880   9.571   9.023   0.560
15347SOL    HW247881   9.715   9.059   0.530
15348SOL     OW47882  12.014   3.883   8.011
15348SOL    HW147883  12.007   3.901   7.917
15348SOL    HW247884  11.928   3.849   8.035
15349SOL     OW47885  12.949   1.739  13.832
15349SOL    HW147886  13.008   1.763  13.903
15349SOL    HW247887  12.995   1.764  13.752
15350SOL     OW47888   6.397  11.573   4.196
15350SOL    HW147889   6.304  11.583   4.179
15350SOL    HW247890   6.434  11.548   4.111
15351SOL     OW47891  10.021   0.757  12.638
15351SOL    HW147892   9.959   0.808  12.691
15351SOL    HW247893  10.038   0.679  12.691
15352SOL     OW47894  14.626   1.505   9.142
15352SOL    HW147895  14.538   1.482   9.113
15352SOL    HW247896  14.684   1.453   9.086
15353SOL     OW47897  12.796  10.909   3.630
15353SOL    HW147898  12.816  10.950   3.714
15353SOL    HW247899  12.709  10.871   3.643
15354SOL     OW47900   9.254   6.146   9.456
15354SOL    HW147901   9.276   6.238   9.468
15354SOL    HW247902   9.232   6.114   9.543
15355SOL     OW47903  14.362   1.083  11.589
15355SOL    HW147904  14.386   1.015  11.652
15355SOL    HW247905  14.279   1.054  11.551
15356SOL     OW47906   6.766  10.341   1.713
15356SOL    HW147907   6.769  10.265   1.654
15356SOL    HW247908   6.678  10.377   1.702
15357SOL     OW47909   5.512   0.442  13.908
15357SOL    HW147910   5.461   0.521  13.891
15357SOL    HW247911   5.495   0.420  14.000
15358SOL     OW47912  12.275   3.213  13.554
15358SOL    HW147913  12.185   3.192  13.578
15358SOL    HW247914  12.326   3.139  13.588
15359SOL     OW47915  13.885   5.211  14.082
15359SOL    HW147916  13.855   5.236  13.995
15359SOL    HW247917  13.864   5.118  14.088
15360SOL     OW47918   9.386   9.890   1.687
15360SOL    HW147919   9.365   9.847   1.603
15360SOL    HW247920   9.481   9.894   1.688
15361SOL     OW47921   8.269   6.536  11.498
15361SOL    HW147922   8.232   6.622  11.518
15361SOL    HW247923   8.199   6.489  11.453
15362SOL     OW47924   7.233  13.196   5.126
15362SOL    HW147925   7.276  13.218   5.044
15362SOL    HW247926   7.160  13.139   5.100
15363SOL     OW47927   3.540   8.540   8.382
15363SOL    HW147928   3.604   8.469   8.378
15363SOL    HW247929   3.460   8.502   8.347
15364SOL     OW47930  12.532   5.338   7.989
15364SOL    HW147931  12.481   5.325   7.909
15364SOL    HW247932  12.553   5.432   7.989
15365SOL     OW47933   8.732  14.274   4.646
15365SOL    HW147934   8.804  14.258   4.707
15365SOL    HW247935   8.686  14.190   4.641
15366SOL     OW47936   6.325   8.352   4.928
15366SOL    HW147937   6.257   8.415   4.903
15366SOL    HW247938   6.396   8.367   4.866
15367SOL     OW47939  10.531  10.142  10.041
15367SOL    HW147940  10.625  10.127  10.040
15367SOL    HW247941  10.514  10.193   9.962
15368SOL     OW47942   6.367  13.700   3.002
15368SOL    HW147943   6.343  13.612   3.030
15368SOL    HW247944   6.456  13.692   2.970
15369SOL     OW47945   2.536   9.396   4.134
15369SOL    HW147946   2.543   9.489   4.153
15369SOL    HW247947   2.458   9.367   4.180
15370SOL     OW47948  12.550  11.083   4.894
15370SOL    HW147949  12.524  11.120   4.978
15370SOL    HW247950  12.645  11.090   4.893
15371SOL     OW47951   4.628   2.639   9.781
15371SOL    HW147952   4.566   2.607   9.846
15371SOL    HW247953   4.618   2.578   9.707
15372SOL     OW47954   5.620   9.127   4.169
15372SOL    HW147955   5.526   9.145   4.163
15372SOL    HW247956   5.635   9.112   4.262
15373SOL     OW47957   8.715   9.642   7.293
15373SOL    HW147958   8.671   9.693   7.361
15373SOL    HW247959   8.645   9.590   7.253
15374SOL     OW47960   4.490   7.752  13.233
15374SOL    HW147961   4.540   7.829  13.204
15374SOL    HW247962   4.463   7.709  13.152
15375SOL     OW47963   6.228  12.178   3.287
15375SOL    HW147964   6.233  12.123   3.209
15375SOL    HW247965   6.265  12.125   3.357
15376SOL     OW47966   5.609   7.723   1.051
15376SOL    HW147967   5.537   7.665   1.075
15376SOL    HW247968   5.646   7.752   1.135
15377SOL     OW47969   2.863   0.800   7.871
15377SOL    HW147970   2.918   0.803   7.793
15377SOL    HW247971   2.883   0.880   7.918
15378SOL     OW47972   9.702  14.684   1.133
15378SOL    HW147973   9.682  14.743   1.205
15378SOL    HW247974   9.798  14.686   1.127
15379SOL     OW47975  12.103  11.044  12.117
15379SOL    HW147976  12.156  11.020  12.041
15379SOL    HW247977  12.013  11.028  12.089
15380SOL     OW47978   6.709   2.790   5.257
15380SOL    HW147979   6.708   2.722   5.190
15380SOL    HW247980   6.705   2.872   5.207
15381SOL     OW47981  11.895  13.553   9.847
15381SOL    HW147982  11.858  13.468   9.873
15381SOL    HW247983  11.825  13.596   9.799
15382SOL     OW47984   4.571  12.800   7.437
15382SOL    HW147985   4.667  12.808   7.430
15382SOL    HW247986   4.540  12.890   7.441
15383SOL     OW47987  10.154   7.964  10.739
15383SOL    HW147988  10.139   7.879  10.781
15383SOL    HW247989  10.066   7.994  10.716
15384SOL     OW47990   0.543   9.733   4.742
15384SOL    HW147991   0.468   9.740   4.801
15384SOL    HW247992   0.506   9.736   4.654
15385SOL     OW47993  11.334   1.810   4.840
15385SOL    HW147994  11.241   1.794   4.827
15385SOL    HW247995  11.352   1.891   4.792
15386SOL     OW47996  12.346   9.058   9.855
15386SOL    HW147997  12.323   9.129   9.916
15386SOL    HW247998  12.375   8.987   9.912
15387SOL     OW47999   1.020   6.068  11.126
15387SOL    HW148000   1.110   6.034  11.123
15387SOL    HW248001   0.974   6.006  11.182
15388SOL     OW48002  13.702   3.987   7.273
15388SOL    HW148003  13.636   3.924   7.302
15388SOL    HW248004  13.653   4.068   7.260
15389SOL     OW48005  14.558  13.072  14.609
15389SOL    HW148006  14.651  13.058  14.591
15389SOL    HW248007  14.553  13.072  14.705
15390SOL     OW48008   6.191   9.792   2.644
15390SOL    HW148009   6.140   9.832   2.573
15390SOL    HW248010   6.139   9.806   2.722
15391SOL     OW48011   3.772  12.900   2.313
15391SOL    HW148012   3.715  12.970   2.346
15391SOL    HW248013   3.714  12.846   2.260
15392SOL     OW48014   8.859   3.036  10.225
15392SOL    HW148015   8.799   2.967  10.254
15392SOL    HW248016   8.921   2.990  10.168
15393SOL     OW48017   8.270   8.559   0.229
15393SOL    HW148018   8.350   8.570   0.177
15393SOL    HW248019   8.201   8.597   0.175
15394SOL     OW48020  11.864  13.215   6.593
15394SOL    HW148021  11.770  13.229   6.604
15394SOL    HW248022  11.903  13.298   6.622
15395SOL     OW48023   1.105   4.958  12.569
15395SOL    HW148024   1.129   4.979  12.659
15395SOL    HW248025   1.020   4.914  12.576
15396SOL     OW48026   7.824  11.006  10.687
15396SOL    HW148027   7.812  10.929  10.742
15396SOL    HW248028   7.737  11.026  10.654
15397SOL     OW48029   3.757  10.144   6.678
15397SOL    HW148030   3.819  10.107   6.740
15397SOL    HW248031   3.793  10.120   6.592
15398SOL     OW48032   2.517   5.667  13.804
15398SOL    HW148033   2.425   5.676  13.778
15398SOL    HW248034   2.519   5.693  13.896
15399SOL     OW48035   9.162   7.411   7.198
15399SOL    HW148036   9.084   7.358   7.211
15399SOL    HW248037   9.235   7.350   7.212
15400SOL     OW48038   6.600  13.068   3.712
15400SOL    HW148039   6.680  13.018   3.728
15400SOL    HW248040   6.605  13.091   3.619
15401SOL     OW48041  14.383  13.306  12.883
15401SOL    HW148042  14.314  13.275  12.824
15401SOL    HW248043  14.452  13.337  12.824
15402SOL     OW48044  10.542   9.517   9.624
15402SOL    HW148045  10.541   9.530   9.530
15402SOL    HW248046  10.612   9.454   9.640
15403SOL     OW48047   1.505  14.446  10.522
15403SOL    HW148048   1.485  14.403  10.439
15403SOL    HW248049   1.421  14.483  10.551
15404SOL     OW48050   7.867  10.162   8.780
15404SOL    HW148051   7.928  10.091   8.759
15404SOL    HW248052   7.890  10.232   8.719
15405SOL     OW48053   0.403   4.870   7.553
15405SOL    HW148054   0.498   4.882   7.544
15405SOL    HW248055   0.379   4.816   7.477
15406SOL     OW48056   7.091   8.760  12.944
15406SOL    HW148057   7.006   8.798  12.964
15406SOL    HW248058   7.081   8.667  12.965
15407SOL     OW48059   4.463  11.977   0.017
15407SOL    HW148060   4.411  11.896   0.019
15407SOL    HW248061   4.434  12.026   0.094
15408SOL     OW48062   4.856  10.774   4.723
15408SOL    HW148063   4.776  10.820   4.698
15408SOL    HW248064   4.832  10.681   4.717
15409SOL     OW48065   1.593   8.960  11.767
15409SOL    HW148066   1.514   8.976  11.818
15409SOL    HW248067   1.583   8.871  11.734
15410SOL     OW48068   4.582   9.994   2.631
15410SOL    HW148069   4.631   9.921   2.667
15410SOL    HW248070   4.549   9.961   2.547
15411SOL     OW48071   1.840  11.949   6.915
15411SOL    HW148072   1.892  11.939   6.836
15411SOL    HW248073   1.795  12.033   6.904
15412SOL     OW48074   5.456   8.520   3.870
15412SOL    HW148075   5.392   8.523   3.799
15412SOL    HW248076   5.497   8.434   3.862
15413SOL     OW48077   6.736   0.844  14.394
15413SOL    HW148078   6.646   0.874  14.392
15413SOL    HW248079   6.775   0.888  14.470
15414SOL     OW48080   5.128   6.825   9.903
15414SOL    HW148081   5.153   6.915   9.882
15414SOL    HW248082   5.209   6.785   9.935
15415SOL     OW48083   3.274  12.199  14.800
15415SOL    HW148084   3.267  12.190  14.705
15415SOL    HW248085   3.367  12.217  14.815
15416SOL     OW48086  12.225   7.413   2.474
15416SOL    HW148087  12.311   7.430   2.512
15416SOL    HW248088  12.241   7.410   2.379
15417SOL     OW48089   3.632   2.987  13.597
15417SOL    HW148090   3.696   2.944  13.654
15417SOL    HW248091   3.550   2.940  13.614
15418SOL     OW48092   5.940   2.965  11.108
15418SOL    HW148093   5.969   2.894  11.051
15418SOL    HW248094   5.936   3.041  11.051
15419SOL     OW48095  13.307   6.484  10.063
15419SOL    HW148096  13.275   6.419  10.125
15419SOL    HW248097  13.351   6.433   9.995
15420SOL     OW48098  13.055  10.143   6.785
15420SOL    HW148099  12.982  10.146   6.847
15420SOL    HW248100  13.109  10.070   6.814
15421SOL     OW48101   2.019   8.316   6.173
15421SOL    HW148102   2.094   8.342   6.227
15421SOL    HW248103   2.038   8.226   6.148
15422SOL     OW48104   8.615   4.017   2.900
15422SOL    HW148105   8.710   4.017   2.911
15422SOL    HW248106   8.601   3.991   2.809
15423SOL     OW48107   2.337   8.355   0.350
15423SOL    HW148108   2.249   8.323   0.370
15423SOL    HW248109   2.364   8.402   0.429
15424SOL     OW48110  12.714  10.414   3.060
15424SOL    HW148111  12.718  10.437   3.153
15424SOL    HW248112  12.775  10.475   3.018
15425SOL     OW48113  11.017   7.973   2.088
15425SOL    HW148114  11.004   7.895   2.142
15425SOL    HW248115  11.111   7.974   2.071
15426SOL     OW48116   9.010   8.755   6.155
15426SOL    HW148117   9.034   8.788   6.242
15426SOL    HW248118   8.973   8.668   6.173
15427SOL     OW48119   3.622   6.391   3.853
15427SOL    HW148120   3.563   6.320   3.876
15427SOL    HW248121   3.697   6.379   3.911
15428SOL     OW48122   0.829   7.510   5.277
15428SOL    HW148123   0.914   7.549   5.259
15428SOL    HW248124   0.810   7.535   5.367
15429SOL     OW48125   7.502  12.895  11.735
15429SOL    HW148126   7.580  12.910  11.788
15429SOL    HW248127   7.429  12.914  11.795
15430SOL     OW48128  10.650   6.810   1.464
15430SOL    HW148129  10.683   6.864   1.393
15430SOL    HW248130  10.689   6.723   1.450
15431SOL     OW48131   9.939   1.985   9.485
15431SOL    HW148132   9.936   2.072   9.444
15431SOL    HW248133   9.849   1.953   9.478
15432SOL     OW48134   3.833   5.383   2.619
15432SOL    HW148135   3.794   5.333   2.690
15432SOL    HW248136   3.776   5.367   2.544
15433SOL     OW48137   0.788   6.855   6.055
15433SOL    HW148138   0.810   6.821   5.969
15433SOL    HW248139   0.871   6.857   6.102
15434SOL     OW48140  10.256   0.435   4.931
15434SOL    HW148141  10.239   0.506   4.870
15434SOL    HW248142  10.230   0.356   4.883
15435SOL     OW48143  14.437   9.196   1.838
15435SOL    HW148144  14.463   9.107   1.812
15435SOL    HW248145  14.389   9.230   1.763
15436SOL     OW48146  14.210   7.348   8.061
15436SOL    HW148147  14.204   7.398   7.979
15436SOL    HW248148  14.282   7.388   8.108
15437SOL     OW48149   3.078   0.045  13.977
15437SOL    HW148150   3.086  14.836  14.024
15437SOL    HW248151   3.016   0.026  13.906
15438SOL     OW48152  14.124   8.157  14.270
15438SOL    HW148153  14.173   8.180  14.191
15438SOL    HW248154  14.192   8.142  14.336
15439SOL     OW48155   5.268   1.909  10.881
15439SOL    HW148156   5.308   1.828  10.913
15439SOL    HW248157   5.274   1.903  10.785
15440SOL     OW48158   0.743  14.068  13.286
15440SOL    HW148159   0.814  14.128  13.264
15440SOL    HW248160   0.748  14.058  13.381
15441SOL     OW48161   6.196   8.135  14.065
15441SOL    HW148162   6.123   8.119  14.005
15441SOL    HW248163   6.160   8.192  14.133
15442SOL     OW48164   7.409   3.029  11.766
15442SOL    HW148165   7.358   3.016  11.846
15442SOL    HW248166   7.497   3.001  11.789
15443SOL     OW48167  10.985   0.094  14.217
15443SOL    HW148168  10.976   0.128  14.306
15443SOL    HW248169  10.926   0.149  14.164
15444SOL     OW48170  12.586   3.681  13.869
15444SOL    HW148171  12.508   3.655  13.819
15444SOL    HW248172  12.596   3.774  13.850
15445SOL     OW48173  10.618   1.171   2.768
15445SOL    HW148174  10.683   1.140   2.832
15445SOL    HW248175  10.584   1.091   2.728
15446SOL     OW48176   2.437   6.714   7.538
15446SOL    HW148177   2.527   6.747   7.536
15446SOL    HW248178   2.439   6.637   7.480
15447SOL     OW48179   2.982   9.258   8.770
15447SOL    HW148180   2.981   9.280   8.863
15447SOL    HW248181   3.007   9.166   8.768
15448SOL     OW48182   4.971  14.593   3.584
15448SOL    HW148183   4.933  14.680   3.571
15448SOL    HW248184   4.968  14.579   3.678
15449SOL     OW48185  12.895  10.574   2.954
15449SOL    HW148186  12.929  10.544   2.869
15449SOL    HW248187  12.909  10.669   2.953
15450SOL     OW48188   9.565  13.346   0.166
15450SOL    HW148189   9.507  13.278   0.199
15450SOL    HW248190   9.512  13.425   0.166
15451SOL     OW48191  12.050   6.053   4.564
15451SOL    HW148192  11.964   6.012   4.563
15451SOL    HW248193  12.040   6.133   4.513
15452SOL     OW48194   7.898   6.935   4.213
15452SOL    HW148195   7.834   7.001   4.188
15452SOL    HW248196   7.896   6.935   4.309
15453SOL     OW48197   2.950  10.013   9.418
15453SOL    HW148198   2.993  10.031   9.502
15453SOL    HW248199   2.940  10.099   9.378
15454SOL     OW48200   5.359  11.030  10.714
15454SOL    HW148201   5.368  10.978  10.795
15454SOL    HW248202   5.438  11.012  10.665
15455SOL     OW48203   9.862  12.529   7.260
15455SOL    HW148204   9.937  12.588   7.265
15455SOL    HW248205   9.867  12.490   7.173
15456SOL     OW48206  13.246  14.051   1.659
15456SOL    HW148207  13.178  14.011   1.713
15456SOL    HW248208  13.199  14.097   1.591
15457SOL     OW48209   9.577  12.231  14.632
15457SOL    HW148210   9.632  12.176  14.576
15457SOL    HW248211   9.506  12.260  14.574
15458SOL     OW48212  14.376   2.580   2.854
15458SOL    HW148213  14.293   2.587   2.902
15458SOL    HW248214  14.350   2.579   2.762
15459SOL     OW48215  13.741   9.687  13.646
15459SOL    HW148216  13.676   9.746  13.685
15459SOL    HW248217  13.708   9.600  13.665
15460SOL     OW48218   9.616   5.359   5.296
15460SOL    HW148219   9.681   5.375   5.227
15460SOL    HW248220   9.532   5.384   5.257
15461SOL     OW48221  13.326   3.980   4.111
15461SOL    HW148222  13.247   4.024   4.142
15461SOL    HW248223  13.334   4.007   4.019
15462SOL     OW48224  11.896   1.070  13.616
15462SOL    HW148225  11.933   1.153  13.647
15462SOL    HW248226  11.836   1.095  13.545
15463SOL     OW48227   2.234  13.709   8.174
15463SOL    HW148228   2.145  13.689   8.204
15463SOL    HW248229   2.225  13.722   8.080
15464SOL     OW48230  10.060  13.798  14.098
15464SOL    HW148231  10.037  13.847  14.019
15464SOL    HW248232  10.154  13.814  14.110
15465SOL     OW48233   8.755   8.534   2.297
15465SOL    HW148234   8.720   8.451   2.264
15465SOL    HW248235   8.679   8.578   2.334
15466SOL     OW48236   4.073   6.598   6.171
15466SOL    HW148237   4.102   6.624   6.258
15466SOL    HW248238   4.060   6.680   6.124
15467SOL     OW48239   4.603   7.260   9.120
15467SOL    HW148240   4.612   7.303   9.035
15467SOL    HW248241   4.693   7.242   9.148
15468SOL     OW48242  13.870   6.479  11.946
15468SOL    HW148243  13.788   6.435  11.968
15468SOL    HW248244  13.886   6.456  11.854
15469SOL     OW48245   6.654  13.011   5.738
15469SOL    HW148246   6.634  12.924   5.705
15469SOL    HW248247   6.749  13.019   5.730
15470SOL     OW48248  12.550  13.705  12.828
15470SOL    HW148249  12.455  13.704  12.842
15470SOL    HW248250  12.560  13.720  12.734
15471SOL     OW48251   9.468   9.295  14.600
15471SOL    HW148252   9.541   9.337  14.645
15471SOL    HW248253   9.435   9.231  14.664
15472SOL     OW48254   7.859   3.645  11.316
15472SOL    HW148255   7.801   3.625  11.243
15472SOL    HW248256   7.865   3.564  11.366
15473SOL     OW48257   5.393  10.899   4.031
15473SOL    HW148258   5.403  10.858   3.945
15473SOL    HW248259   5.299  10.895   4.048
15474SOL     OW48260  10.103  13.474  13.481
15474SOL    HW148261  10.159  13.447  13.408
15474SOL    HW248262  10.088  13.394  13.531
15475SOL     OW48263  11.380  10.869   6.713
15475SOL    HW148264  11.288  10.843   6.719
15475SOL    HW248265  11.422  10.828   6.788
15476SOL     OW48266   3.829   1.582   0.868
15476SOL    HW148267   3.904   1.593   0.811
15476SOL    HW248268   3.841   1.496   0.908
15477SOL     OW48269   2.297  13.280   7.535
15477SOL    HW148270   2.355  13.327   7.594
15477SOL    HW248271   2.213  13.278   7.580
15478SOL     OW48272   0.684   1.443   7.302
15478SOL    HW148273   0.666   1.463   7.394
15478SOL    HW248274   0.598   1.435   7.262
15479SOL     OW48275  12.193   5.172   6.011
15479SOL    HW148276  12.129   5.159   5.942
15479SOL    HW248277  12.226   5.084   6.031
15480SOL     OW48278   1.425  13.696   6.154
15480SOL    HW148279   1.477  13.776   6.147
15480SOL    HW248280   1.454  13.656   6.236
15481SOL     OW48281  11.051   7.322   2.445
15481SOL    HW148282  11.043   7.304   2.539
15481SOL    HW248283  11.085   7.241   2.407
15482SOL     OW48284   1.004   4.856  10.088
15482SOL    HW148285   1.028   4.766  10.112
15482SOL    HW248286   1.004   4.904  10.170
15483SOL     OW48287   2.475   9.116   4.308
15483SOL    HW148288   2.530   9.044   4.278
15483SOL    HW248289   2.537   9.187   4.328
15484SOL     OW48290  10.513   2.406   5.085
15484SOL    HW148291  10.441   2.442   5.138
15484SOL    HW248292  10.480   2.321   5.056
15485SOL     OW48293   4.830   0.409  13.825
15485SOL    HW148294   4.879   0.388  13.905
15485SOL    HW248295   4.777   0.485  13.848
15486SOL     OW48296  13.337   9.590  11.931
15486SOL    HW148297  13.323   9.671  11.980
15486SOL    HW248298  13.413   9.550  11.973
15487SOL     OW48299   5.210   3.141   7.430
15487SOL    HW148300   5.199   3.201   7.504
15487SOL    HW248301   5.263   3.190   7.367
15488SOL     OW48302  12.441  13.572  10.551
15488SOL    HW148303  12.423  13.642  10.488
15488SOL    HW248304  12.475  13.500  10.498
15489SOL     OW48305   9.930   8.457   2.526
15489SOL    HW148306   9.958   8.447   2.617
15489SOL    HW248307   9.951   8.547   2.504
15490SOL     OW48308   0.424   1.079   6.117
15490SOL    HW148309   0.491   1.138   6.081
15490SOL    HW248310   0.437   1.082   6.211
15491SOL     OW48311   1.581   6.745   4.099
15491SOL    HW148312   1.531   6.822   4.127
15491SOL    HW248313   1.672   6.774   4.098
15492SOL     OW48314  13.383   1.560  12.975
15492SOL    HW148315  13.304   1.570  12.922
15492SOL    HW248316  13.449   1.526  12.914
15493SOL     OW48317   3.514   3.514  10.857
15493SOL    HW148318   3.560   3.545  10.779
15493SOL    HW248319   3.465   3.437  10.828
15494SOL     OW48320   1.937  14.255   1.231
15494SOL    HW148321   1.920  14.346   1.255
15494SOL    HW248322   1.949  14.209   1.314
15495SOL     OW48323   9.886   0.005  10.291
15495SOL    HW148324   9.844   0.003  10.377
15495SOL    HW248325   9.816   0.032  10.231
15496SOL     OW48326  14.597   4.121   4.646
15496SOL    HW148327  14.627   4.045   4.697
15496SOL    HW248328  14.563   4.181   4.712
15497SOL     OW48329   6.217   4.408   3.544
15497SOL    HW148330   6.287   4.463   3.579
15497SOL    HW248331   6.233   4.407   3.449
15498SOL     OW48332   9.900   7.142  12.088
15498SOL    HW148333   9.930   7.232  12.075
15498SOL    HW248334   9.844   7.124  12.011
15499SOL     OW48335   1.672   9.933   1.684
15499SOL    HW148336   1.767   9.941   1.697
15499SOL    HW248337   1.652   9.843   1.710
15500SOL     OW48338   0.923   3.780  12.229
15500SOL    HW148339   0.830   3.785  12.206
15500SOL    HW248340   0.956   3.869  12.213
15501SOL     OW48341   5.289  13.317   3.946
15501SOL    HW148342   5.212  13.288   3.898
15501SOL    HW248343   5.276  13.286   4.036
15502SOL     OW48344  11.567   4.910  12.949
15502SOL    HW148345  11.620   4.926  12.871
15502SOL    HW248346  11.478   4.935  12.923
15503SOL     OW48347   2.537   8.653   9.155
15503SOL    HW148348   2.471   8.718   9.130
15503SOL    HW248349   2.496   8.604   9.227
15504SOL     OW48350  13.564   1.092   4.170
15504SOL    HW148351  13.525   1.158   4.113
15504SOL    HW248352  13.648   1.072   4.128
15505SOL     OW48353   0.692  10.212   0.562
15505SOL    HW148354   0.643  10.203   0.480
15505SOL    HW248355   0.780  10.237   0.535
15506SOL     OW48356   8.963   6.476  13.620
15506SOL    HW148357   8.935   6.456  13.531
15506SOL    HW248358   8.958   6.393  13.667
15507SOL     OW48359  10.050  12.888   6.497
15507SOL    HW148360  10.054  12.848   6.584
15507SOL    HW248361  10.004  12.970   6.510
15508SOL     OW48362   6.466   1.710  10.948
15508SOL    HW148363   6.545   1.739  10.903
15508SOL    HW248364   6.420   1.791  10.970
15509SOL     OW48365   8.995   2.451   9.246
15509SOL    HW148366   9.021   2.530   9.200
15509SOL    HW248367   9.073   2.426   9.296
15510SOL     OW48368   4.801   2.026  13.684
15510SOL    HW148369   4.829   1.942  13.649
15510SOL    HW248370   4.867   2.088  13.653
15511SOL     OW48371  12.054   2.912   5.092
15511SOL    HW148372  11.968   2.932   5.129
15511SOL    HW248373  12.060   2.969   5.015
15512SOL     OW48374   4.234  12.630  12.966
15512SOL    HW148375   4.192  12.606  12.883
15512SOL    HW248376   4.179  12.700  13.001
15513SOL     OW48377   9.779   2.340   1.371
15513SOL    HW148378   9.735   2.390   1.303
15513SOL    HW248379   9.850   2.396   1.402
15514SOL     OW48380   9.321  10.330   1.843
15514SOL    HW148381   9.371  10.293   1.916
15514SOL    HW248382   9.371  10.407   1.816
15515SOL     OW48383   7.487  14.801   6.102
15515SOL    HW148384   7.522   0.001   6.050
15515SOL    HW248385   7.525  14.814   6.189
15516SOL     OW48386  11.710   6.140  14.410
15516SOL    HW148387  11.765   6.114  14.484
15516SOL    HW248388  11.727   6.075  14.342
15517SOL     OW48389   6.340  11.552   9.379
15517SOL    HW148390   6.348  11.496   9.303
15517SOL    HW248391   6.382  11.502   9.450
15518SOL     OW48392  14.819   7.737   0.197
15518SOL    HW148393  14.737   7.701   0.233
15518SOL    HW248394  14.791   7.812   0.145
15519SOL     OW48395   6.499  12.765   1.813
15519SOL    HW148396   6.476  12.718   1.893
15519SOL    HW248397   6.515  12.855   1.841
15520SOL     OW48398  13.712   0.343  10.796
15520SOL    HW148399  13.631   0.293  10.809
15520SOL    HW248400  13.769   0.315  10.867
15521SOL     OW48401   0.635   8.530  12.943
15521SOL    HW148402   0.674   8.549  12.857
15521SOL    HW248403   0.557   8.586  12.946
15522SOL     OW48404   1.586  10.518   1.440
15522SOL    HW148405   1.566  10.434   1.398
15522SOL    HW248406   1.582  10.499   1.534
15523SOL     OW48407   0.503   8.475   7.696
15523SOL    HW148408   0.581   8.523   7.723
15523SOL    HW248409   0.536   8.396   7.653
15524SOL     OW48410   1.584  11.276   6.559
15524SOL    HW148411   1.531  11.356   6.563
15524SOL    HW248412   1.660  11.301   6.507
15525SOL     OW48413   1.357   2.766   9.771
15525SOL    HW148414   1.354   2.801   9.860
15525SOL    HW248415   1.434   2.709   9.770
15526SOL     OW48416   6.355  12.765   8.233
15526SOL    HW148417   6.451  12.766   8.235
15526SOL    HW248418   6.333  12.777   8.141
15527SOL     OW48419   6.122   4.623   1.159
15527SOL    HW148420   6.080   4.696   1.114
15527SOL    HW248421   6.216   4.639   1.148
15528SOL     OW48422   6.141  13.423   2.746
15528SOL    HW148423   6.179  13.504   2.713
15528SOL    HW248424   6.084  13.450   2.817
15529SOL     OW48425   6.539   4.960   3.496
15529SOL    HW148426   6.445   4.971   3.512
15529SOL    HW248427   6.579   5.036   3.537
15530SOL     OW48428   5.229   3.988   7.367
15530SOL    HW148429   5.266   4.076   7.366
15530SOL    HW248430   5.262   3.949   7.448
15531SOL     OW48431  11.232   1.560   2.174
15531SOL    HW148432  11.245   1.578   2.267
15531SOL    HW248433  11.241   1.465   2.166
15532SOL     OW48434  14.649   9.528  12.461
15532SOL    HW148435  14.709   9.465  12.502
15532SOL    HW248436  14.562   9.502  12.492
15533SOL     OW48437   0.121   6.809   7.287
15533SOL    HW148438   0.100   6.748   7.216
15533SOL    HW248439   0.074   6.889   7.264
15534SOL     OW48440   2.548   2.666   9.660
15534SOL    HW148441   2.565   2.575   9.683
15534SOL    HW248442   2.499   2.702   9.734
15535SOL     OW48443   1.191   2.765   2.537
15535SOL    HW148444   1.133   2.777   2.612
15535SOL    HW248445   1.199   2.670   2.527
15536SOL     OW48446   4.844   6.523   0.776
15536SOL    HW148447   4.838   6.619   0.774
15536SOL    HW248448   4.937   6.505   0.790
15537SOL     OW48449  13.678   3.401   9.877
15537SOL    HW148450  13.761   3.355   9.865
15537SOL    HW248451  13.652   3.381   9.967
15538SOL     OW48452   9.747   6.952   1.758
15538SOL    HW148453   9.823   7.005   1.734
15538SOL    HW248454   9.768   6.864   1.728
15539SOL     OW48455   7.569  13.437   1.703
15539SOL    HW148456   7.524  13.464   1.783
15539SOL    HW248457   7.646  13.494   1.700
15540SOL     OW48458  10.592  12.368  14.757
15540SOL    HW148459  10.556  12.308  14.692
15540SOL    HW248460  10.683  12.381  14.729
15541SOL     OW48461   0.836  14.435   6.808
15541SOL    HW148462   0.881  14.509   6.769
15541SOL    HW248463   0.763  14.474   6.856
15542SOL     OW48464   6.911   7.394   2.552
15542SOL    HW148465   6.897   7.330   2.622
15542SOL    HW248466   6.895   7.479   2.593
15543SOL     OW48467   0.160  12.854   8.509
15543SOL    HW148468   0.137  12.941   8.541
15543SOL    HW248469   0.255  12.855   8.500
15544SOL     OW48470  10.226   5.420  14.515
15544SOL    HW148471  10.276   5.425  14.434
15544SOL    HW248472  10.161   5.490  14.507
15545SOL     OW48473   2.240  13.490   0.323
15545SOL    HW148474   2.168  13.457   0.376
15545SOL    HW248475   2.279  13.412   0.284
15546SOL     OW48476  12.390   2.833   5.595
15546SOL    HW148477  12.413   2.813   5.505
15546SOL    HW248478  12.393   2.749   5.640
15547SOL     OW48479  14.258   2.435  11.427
15547SOL    HW148480  14.169   2.463  11.448
15547SOL    HW248481  14.264   2.443  11.332
15548SOL     OW48482  13.918   1.362  10.165
15548SOL    HW148483  13.973   1.425  10.117
15548SOL    HW248484  13.903   1.291  10.103
15549SOL     OW48485   1.568   4.574   4.105
15549SOL    HW148486   1.558   4.598   4.197
15549SOL    HW248487   1.662   4.581   4.088
15550SOL     OW48488  12.361  13.263  10.858
15550SOL    HW148489  12.326  13.332  10.802
15550SOL    HW248490  12.347  13.294  10.947
15551SOL     OW48491  10.184   6.128  11.315
15551SOL    HW148492  10.220   6.095  11.397
15551SOL    HW248493  10.249   6.191  11.283
15552SOL     OW48494  12.315  13.418   4.350
15552SOL    HW148495  12.310  13.459   4.436
15552SOL    HW248496  12.238  13.362   4.345
15553SOL     OW48497  14.047  10.661  11.679
15553SOL    HW148498  14.087  10.574  11.671
15553SOL    HW248499  13.998  10.672  11.598
15554SOL     OW48500   9.942   1.098   6.773
15554SOL    HW148501   9.989   1.024   6.812
15554SOL    HW248502   9.932   1.073   6.681
15555SOL     OW48503   5.740  13.474   3.917
15555SOL    HW148504   5.740  13.540   3.848
15555SOL    HW248505   5.655  13.430   3.909
15556SOL     OW48506   1.012  14.338  12.065
15556SOL    HW148507   1.092  14.349  12.012
15556SOL    HW248508   1.001  14.423  12.108
15557SOL     OW48509   6.003   2.100   9.775
15557SOL    HW148510   6.053   2.069   9.700
15557SOL    HW248511   6.053   2.173   9.810
15558SOL     OW48512   7.274  10.667   3.505
15558SOL    HW148513   7.216  10.622   3.567
15558SOL    HW248514   7.340  10.602   3.481
15559SOL     OW48515   8.260   3.974   2.617
15559SOL    HW148516   8.172   3.991   2.584
15559SOL    HW248517   8.269   3.879   2.615
15560SOL     OW48518  14.550   4.053   4.940
15560SOL    HW148519  14.586   4.118   5.001
15560SOL    HW248520  14.456   4.054   4.956
15561SOL     OW48521  14.342  12.673  10.289
15561SOL    HW148522  14.380  12.760  10.303
15561SOL    HW248523  14.353  12.629  10.374
15562SOL     OW48524   1.673  11.617  14.025
15562SOL    HW148525   1.622  11.557  13.970
15562SOL    HW248526   1.676  11.574  14.111
15563SOL     OW48527   0.151   0.300   7.623
15563SOL    HW148528   0.233   0.281   7.577
15563SOL    HW248529   0.095   0.225   7.604
15564SOL     OW48530  11.718   9.315   0.935
15564SOL    HW148531  11.728   9.270   0.851
15564SOL    HW248532  11.718   9.408   0.912
15565SOL     OW48533   7.917  14.495   8.557
15565SOL    HW148534   7.875  14.480   8.641
15565SOL    HW248535   7.844  14.496   8.494
15566SOL     OW48536   7.610   9.276  11.788
15566SOL    HW148537   7.585   9.268  11.880
15566SOL    HW248538   7.706   9.280  11.790
15567SOL     OW48539  11.159   6.602  12.642
15567SOL    HW148540  11.092   6.617  12.575
15567SOL    HW248541  11.227   6.552  12.596
15568SOL     OW48542  13.592   6.361   2.667
15568SOL    HW148543  13.684   6.344   2.688
15568SOL    HW248544  13.546   6.282   2.693
15569SOL     OW48545   0.271   9.492  14.499
15569SOL    HW148546   0.284   9.397  14.499
15569SOL    HW248547   0.344   9.526  14.447
15570SOL     OW48548   2.744   8.503  13.380
15570SOL    HW148549   2.831   8.487  13.417
15570SOL    HW248550   2.735   8.598  13.380
15571SOL     OW48551   3.972  11.847  12.868
15571SOL    HW148552   4.008  11.819  12.784
15571SOL    HW248553   4.047  11.846  12.928
15572SOL     OW48554  11.952  10.580   8.158
15572SOL    HW148555  11.876  10.599   8.213
15572SOL    HW248556  11.961  10.657   8.102
15573SOL     OW48557   9.882   5.865   1.997
15573SOL    HW148558   9.973   5.867   2.026
15573SOL    HW248559   9.886   5.831   1.907
15574SOL     OW48560  13.223  10.063   6.469
15574SOL    HW148561  13.238   9.969   6.455
15574SOL    HW248562  13.275  10.106   6.402
15575SOL     OW48563   5.006   4.164   1.356
15575SOL    HW148564   5.015   4.139   1.448
15575SOL    HW248565   4.943   4.236   1.356
15576SOL     OW48566   8.724   0.596   3.945
15576SOL    HW148567   8.769   0.665   3.994
15576SOL    HW248568   8.647   0.575   3.998
15577SOL     OW48569   1.986   9.051   2.376
15577SOL    HW148570   1.975   9.119   2.311
15577SOL    HW248571   1.987   8.969   2.326
15578SOL     OW48572   9.641  11.064   2.164
15578SOL    HW148573   9.737  11.056   2.165
15578SOL    HW248574   9.623  11.128   2.096
15579SOL     OW48575   9.503   7.636  11.152
15579SOL    HW148576   9.412   7.637  11.181
15579SOL    HW248577   9.502   7.581  11.074
15580SOL     OW48578   4.245   3.686   3.262
15580SOL    HW148579   4.151   3.672   3.248
15580SOL    HW248580   4.286   3.654   3.181
15581SOL     OW48581   0.485  13.515  13.515
15581SOL    HW148582   0.419  13.491  13.450
15581SOL    HW248583   0.536  13.584  13.473
15582SOL     OW48584   0.894   2.703   6.086
15582SOL    HW148585   0.887   2.614   6.051
15582SOL    HW248586   0.956   2.746   6.028
15583SOL     OW48587   3.232  11.519  14.494
15583SOL    HW148588   3.209  11.593  14.551
15583SOL    HW248589   3.327  11.512  14.500
15584SOL     OW48590  10.763   9.879   2.893
15584SOL    HW148591  10.796   9.793   2.920
15584SOL    HW248592  10.822   9.942   2.934
15585SOL     OW48593   9.533   9.398   4.393
15585SOL    HW148594   9.537   9.492   4.380
15585SOL    HW248595   9.440   9.380   4.411
15586SOL     OW48596   6.254   5.560   3.600
15586SOL    HW148597   6.298   5.592   3.522
15586SOL    HW248598   6.208   5.481   3.570
15587SOL     OW48599  10.128   4.127   8.889
15587SOL    HW148600  10.047   4.080   8.911
15587SOL    HW248601  10.115   4.158   8.800
15588SOL     OW48602  13.789  11.697  13.861
15588SOL    HW148603  13.700  11.664  13.848
15588SOL    HW248604  13.778  11.791  13.873
15589SOL     OW48605  12.545   7.625   7.314
15589SOL    HW148606  12.578   7.707   7.350
15589SOL    HW248607  12.536   7.567   7.390
15590SOL     OW48608   2.116   8.270   5.799
15590SOL    HW148609   2.129   8.260   5.705
15590SOL    HW248610   2.201   8.249   5.837
15591SOL     OW48611   0.525  11.818   9.585
15591SOL    HW148612   0.576  11.760   9.529
15591SOL    HW248613   0.502  11.763   9.660
15592SOL     OW48614  13.317  12.806   4.464
15592SOL    HW148615  13.323  12.787   4.558
15592SOL    HW248616  13.324  12.902   4.459
15593SOL     OW48617  13.850   5.509   1.853
15593SOL    HW148618  13.803   5.591   1.870
15593SOL    HW248619  13.924   5.510   1.913
15594SOL     OW48620  11.793   7.442   2.667
15594SOL    HW148621  11.864   7.479   2.719
15594SOL    HW248622  11.782   7.353   2.701
15595SOL     OW48623  13.646  14.167  13.199
15595SOL    HW148624  13.678  14.118  13.275
15595SOL    HW248625  13.627  14.255  13.233
15596SOL     OW48626   6.544   7.161   8.065
15596SOL    HW148627   6.457   7.196   8.084
15596SOL    HW248628   6.600   7.199   8.133
15597SOL     OW48629   3.645   7.291  10.688
15597SOL    HW148630   3.700   7.294  10.766
15597SOL    HW248631   3.684   7.224  10.633
15598SOL     OW48632   1.409  14.624  11.269
15598SOL    HW148633   1.412  14.559  11.200
15598SOL    HW248634   1.317  14.653  11.271
15599SOL     OW48635  10.623  12.845   8.846
15599SOL    HW148636  10.672  12.904   8.903
15599SOL    HW248637  10.538  12.888   8.833
15600SOL     OW48638   5.839   3.601  12.089
15600SOL    HW148639   5.781   3.676  12.106
15600SOL    HW248640   5.909   3.637  12.035
15601SOL     OW48641   0.081  13.243   9.677
15601SOL    HW148642   0.143  13.224   9.606
15601SOL    HW248643   0.103  13.180   9.746
15602SOL     OW48644   3.720   6.739   4.816
15602SOL    HW148645   3.676   6.733   4.901
15602SOL    HW248646   3.813   6.734   4.837
15603SOL     OW48647   9.524   1.421   9.777
15603SOL    HW148648   9.452   1.428   9.714
15603SOL    HW248649   9.602   1.442   9.726
15604SOL     OW48650   4.700   0.192   3.464
15604SOL    HW148651   4.728   0.272   3.508
15604SOL    HW248652   4.609   0.208   3.439
15605SOL     OW48653  12.945   3.149  10.833
15605SOL    HW148654  12.989   3.232  10.817
15605SOL    HW248655  12.862   3.156  10.786
15606SOL     OW48656  14.784   5.238  12.649
15606SOL    HW148657  14.867   5.260  12.691
15606SOL    HW248658  14.740   5.180  12.712
15607SOL     OW48659   5.121  14.590   5.440
15607SOL    HW148660   5.074  14.637   5.509
15607SOL    HW248661   5.202  14.641   5.428
15608SOL     OW48662   1.469   5.901   8.384
15608SOL    HW148663   1.407   5.928   8.452
15608SOL    HW248664   1.534   5.971   8.381
15609SOL     OW48665  12.903  10.301   0.770
15609SOL    HW148666  12.843  10.332   0.702
15609SOL    HW248667  12.985  10.348   0.753
15610SOL     OW48668   2.466  13.520   7.581
15610SOL    HW148669   2.418  13.529   7.664
15610SOL    HW248670   2.399  13.534   7.514
15611SOL     OW48671  12.601   9.104   3.781
15611SOL    HW148672  12.599   9.168   3.852
15611SOL    HW248673  12.663   9.037   3.811
15612SOL     OW48674  11.257   2.843  10.062
15612SOL    HW148675  11.227   2.934  10.055
15612SOL    HW248676  11.237   2.819  10.153
15613SOL     OW48677   7.426  12.128   7.937
15613SOL    HW148678   7.381  12.182   7.872
15613SOL    HW248679   7.359  12.067   7.968
15614SOL     OW48680   4.719  13.574  11.192
15614SOL    HW148681   4.768  13.643  11.146
15614SOL    HW248682   4.683  13.617  11.269
15615SOL     OW48683  13.148   4.721   9.493
15615SOL    HW148684  13.099   4.746   9.414
15615SOL    HW248685  13.096   4.757   9.565
15616SOL     OW48686  13.278   5.299   6.518
15616SOL    HW148687  13.262   5.348   6.437
15616SOL    HW248688  13.247   5.210   6.498
15617SOL     OW48689   3.040  12.296  10.934
15617SOL    HW148690   3.095  12.221  10.958
15617SOL    HW248691   3.099  12.371  10.938
15618SOL     OW48692  14.314   7.235   5.625
15618SOL    HW148693  14.268   7.156   5.654
15618SOL    HW248694  14.352   7.210   5.540
15619SOL     OW48695   0.611   4.347   7.360
15619SOL    HW148696   0.522   4.376   7.381
15619SOL    HW248697   0.645   4.416   7.303
15620SOL     OW48698   9.744   0.685   8.735
15620SOL    HW148699   9.749   0.775   8.767
15620SOL    HW248700   9.807   0.637   8.788
15621SOL     OW48701   1.489   1.983  10.708
15621SOL    HW148702   1.481   2.045  10.780
15621SOL    HW248703   1.406   1.937  10.706
15622SOL     OW48704  11.270   1.186  13.175
15622SOL    HW148705  11.215   1.123  13.128
15622SOL    HW248706  11.320   1.133  13.238
15623SOL     OW48707  11.689  10.829   7.180
15623SOL    HW148708  11.763  10.780   7.215
15623SOL    HW248709  11.715  10.921   7.188
15624SOL     OW48710   3.110  14.080   6.545
15624SOL    HW148711   3.015  14.071   6.550
15624SOL    HW248712   3.134  14.034   6.465
15625SOL     OW48713   7.828  14.587  14.096
15625SOL    HW148714   7.805  14.613  14.185
15625SOL    HW248715   7.746  14.555  14.058
15626SOL     OW48716   8.437  10.207   6.784
15626SOL    HW148717   8.509  10.252   6.829
15626SOL    HW248718   8.480  10.158   6.715
15627SOL     OW48719   6.826   7.922  10.402
15627SOL    HW148720   6.890   7.929  10.332
15627SOL    HW248721   6.856   7.848  10.455
15628SOL     OW48722   1.882   5.600  12.696
15628SOL    HW148723   1.904   5.519  12.742
15628SOL    HW248724   1.952   5.610  12.631
15629SOL     OW48725   5.270   3.706   1.589
15629SOL    HW148726   5.361   3.677   1.592
15629SOL    HW248727   5.258   3.754   1.671
15630SOL     OW48728   5.447   8.405   5.541
15630SOL    HW148729   5.467   8.335   5.479
15630SOL    HW248730   5.364   8.442   5.508
15631SOL     OW48731   9.304   1.708   9.021
15631SOL    HW148732   9.377   1.646   9.018
15631SOL    HW248733   9.314   1.753   9.106
15632SOL     OW48734  10.057  11.193   9.584
15632SOL    HW148735  10.131  11.253   9.584
15632SOL    HW248736  10.095  11.107   9.604
15633SOL     OW48737   7.642   5.800  11.881
15633SOL    HW148738   7.596   5.870  11.833
15633SOL    HW248739   7.597   5.796  11.965
15634SOL     OW48740   2.851   4.095   4.850
15634SOL    HW148741   2.762   4.108   4.818
15634SOL    HW248742   2.841   4.079   4.944
15635SOL     OW48743   2.100   8.185   8.305
15635SOL    HW148744   2.138   8.259   8.352
15635SOL    HW248745   2.030   8.224   8.252
15636SOL     OW48746  14.846   4.078  14.174
15636SOL    HW148747  14.773   4.095  14.115
15636SOL    HW248748   0.014   3.999  14.140
15637SOL     OW48749   5.977   8.994  11.067
15637SOL    HW148750   5.950   9.003  11.159
15637SOL    HW248751   6.072   9.000  11.070
15638SOL     OW48752   5.147   2.159   5.805
15638SOL    HW148753   5.095   2.207   5.740
15638SOL    HW248754   5.082   2.112   5.858
15639SOL     OW48755  11.023  14.418   9.719
15639SOL    HW148756  11.000  14.376   9.636
15639SOL    HW248757  11.041  14.509   9.696
15640SOL     OW48758   0.517  11.407   1.363
15640SOL    HW148759   0.453  11.455   1.415
15640SOL    HW248760   0.535  11.328   1.414
15641SOL     OW48761   1.992   3.127   0.637
15641SOL    HW148762   1.951   3.173   0.711
15641SOL    HW248763   1.919   3.102   0.581
15642SOL     OW48764   7.440   3.153   3.166
15642SOL    HW148765   7.531   3.144   3.138
15642SOL    HW248766   7.431   3.091   3.239
15643SOL     OW48767   6.974   7.569   8.313
15643SOL    HW148768   6.881   7.587   8.325
15643SOL    HW248769   6.977   7.480   8.277
15644SOL     OW48770   6.321  11.502  12.194
15644SOL    HW148771   6.260  11.517  12.122
15644SOL    HW248772   6.293  11.564  12.262
15645SOL     OW48773  12.012   6.847  12.101
15645SOL    HW148774  11.992   6.908  12.172
15645SOL    HW248775  11.928   6.827  12.061
15646SOL     OW48776   5.809   3.566   5.964
15646SOL    HW148777   5.728   3.517   5.984
15646SOL    HW248778   5.830   3.610   6.046
15647SOL     OW48779  12.212   2.471   7.528
15647SOL    HW148780  12.272   2.546   7.536
15647SOL    HW248781  12.224   2.441   7.438
15648SOL     OW48782  13.540  11.392   9.616
15648SOL    HW148783  13.609  11.333   9.646
15648SOL    HW248784  13.459  11.345   9.634
15649SOL     OW48785   5.088   5.953   2.658
15649SOL    HW148786   5.184   5.951   2.656
15649SOL    HW248787   5.065   5.903   2.736
15650SOL     OW48788  13.178   4.153  13.556
15650SOL    HW148789  13.214   4.109  13.480
15650SOL    HW248790  13.253   4.170  13.613
15651SOL     OW48791   9.778  13.734  12.514
15651SOL    HW148792   9.835  13.799  12.555
15651SOL    HW248793   9.837  13.663  12.489
15652SOL     OW48794  11.305  10.595   5.781
15652SOL    HW148795  11.347  10.639   5.707
15652SOL    HW248796  11.240  10.538   5.740
15653SOL     OW48797   1.949   8.465  12.396
15653SOL    HW148798   1.867   8.507  12.369
15653SOL    HW248799   1.936   8.446  12.489
15654SOL     OW48800  12.030   1.104   3.282
15654SOL    HW148801  12.044   1.143   3.369
15654SOL    HW248802  12.097   1.035   3.276
15655SOL     OW48803   8.080  14.507   0.071
15655SOL    HW148804   8.164  14.551   0.085
15655SOL    HW248805   8.087  14.426   0.122
15656SOL     OW48806  10.318  11.570   7.099
15656SOL    HW148807  10.222  11.575   7.103
15656SOL    HW248808  10.345  11.563   7.190
15657SOL     OW48809  11.129   6.125   7.012
15657SOL    HW148810  11.140   6.108   7.105
15657SOL    HW248811  11.071   6.201   7.007
15658SOL     OW48812  12.843   6.645   9.872
15658SOL    HW148813  12.897   6.692   9.935
15658SOL    HW248814  12.826   6.560   9.914
15659SOL     OW48815   5.003   3.115  12.746
15659SOL    HW148816   4.979   3.038  12.695
15659SOL    HW248817   5.033   3.179  12.681
15660SOL     OW48818  11.197   6.144   7.272
15660SOL    HW148819  11.145   6.218   7.303
15660SOL    HW248820  11.284   6.179   7.259
15661SOL     OW48821  12.696  13.731   8.055
15661SOL    HW148822  12.712  13.811   8.006
15661SOL    HW248823  12.738  13.662   8.004
15662SOL     OW48824  14.394   0.699  11.368
15662SOL    HW148825  14.302   0.684  11.349
15662SOL    HW248826  14.403   0.795  11.370
15663SOL     OW48827   2.531  11.861  11.547
15663SOL    HW148828   2.572  11.914  11.478
15663SOL    HW248829   2.595  11.862  11.618
15664SOL     OW48830   3.757   4.701  10.482
15664SOL    HW148831   3.811   4.769  10.521
15664SOL    HW248832   3.791   4.619  10.518
15665SOL     OW48833   0.782  10.964  10.793
15665SOL    HW148834   0.689  10.973  10.774
15665SOL    HW248835   0.807  11.049  10.830
15666SOL     OW48836   3.970   1.624  11.390
15666SOL    HW148837   3.914   1.673  11.330
15666SOL    HW248838   4.054   1.618  11.345
15667SOL     OW48839   6.087  14.535   2.096
15667SOL    HW148840   6.002  14.579   2.095
15667SOL    HW248841   6.137  14.580   2.165
15668SOL     OW48842   3.043   3.069   6.483
15668SOL    HW148843   3.136   3.044   6.478
15668SOL    HW248844   3.016   3.079   6.391
15669SOL     OW48845   2.632  14.163  13.420
15669SOL    HW148846   2.674  14.226  13.479
15669SOL    HW248847   2.561  14.213  13.379
15670SOL     OW48848   7.793   1.050   4.693
15670SOL    HW148849   7.807   1.086   4.780
15670SOL    HW248850   7.786   1.127   4.636
15671SOL     OW48851   7.678  10.338   9.161
15671SOL    HW148852   7.694  10.428   9.132
15671SOL    HW248853   7.715  10.334   9.249
15672SOL     OW48854   7.934   0.601  11.482
15672SOL    HW148855   7.903   0.591  11.572
15672SOL    HW248856   7.966   0.514  11.458
15673SOL     OW48857   4.155   9.545   9.297
15673SOL    HW148858   4.182   9.477   9.359
15673SOL    HW248859   4.059   9.539   9.295
15674SOL     OW48860   1.789   4.668   5.882
15674SOL    HW148861   1.800   4.762   5.896
15674SOL    HW248862   1.721   4.642   5.945
15675SOL     OW48863  11.340   9.561  13.074
15675SOL    HW148864  11.265   9.504  13.058
15675SOL    HW248865  11.343   9.571  13.169
15676SOL     OW48866  11.102  12.923   4.043
15676SOL    HW148867  11.032  12.924   3.977
15676SOL    HW248868  11.159  12.852   4.015
15677SOL     OW48869   2.489   2.224   9.704
15677SOL    HW148870   2.553   2.156   9.724
15677SOL    HW248871   2.408   2.193   9.744
15678SOL     OW48872  11.995  14.159   2.322
15678SOL    HW148873  12.053  14.211   2.378
15678SOL    HW248874  12.046  14.083   2.297
15679SOL     OW48875  13.749   0.026   8.501
15679SOL    HW148876  13.800   0.004   8.579
15679SOL    HW248877  13.698   0.102   8.526
15680SOL     OW48878  10.365   8.586   0.079
15680SOL    HW148879  10.338   8.676   0.093
15680SOL    HW248880  10.345   8.568  14.860
15681SOL     OW48881   3.634   0.918   2.499
15681SOL    HW148882   3.577   0.875   2.435
15681SOL    HW248883   3.717   0.931   2.453
15682SOL     OW48884  13.028   5.333   2.305
15682SOL    HW148885  13.081   5.254   2.297
15682SOL    HW248886  13.057   5.389   2.233
15683SOL     OW48887   8.878   7.502   9.849
15683SOL    HW148888   8.893   7.486   9.755
15683SOL    HW248889   8.783   7.511   9.857
15684SOL     OW48890  14.525   7.175  12.367
15684SOL    HW148891  14.515   7.258  12.322
15684SOL    HW248892  14.437   7.152  12.397
15685SOL     OW48893  14.452   1.054  10.205
15685SOL    HW148894  14.496   1.122  10.256
15685SOL    HW248895  14.418   1.100  10.128
15686SOL     OW48896   0.131   0.828  11.981
15686SOL    HW148897   0.058   0.833  11.919
15686SOL    HW248898   0.182   0.908  11.965
15687SOL     OW48899   5.584  14.563   1.687
15687SOL    HW148900   5.659  14.621   1.671
15687SOL    HW248901   5.606  14.518   1.769
15688SOL     OW48902   0.017   3.509  14.135
15688SOL    HW148903   0.085   3.503  14.068
15688SOL    HW248904  14.865   3.418  14.151
15689SOL     OW48905   9.799  14.436   9.791
15689SOL    HW148906   9.725  14.380   9.768
15689SOL    HW248907   9.777  14.473   9.876
15690SOL     OW48908   6.642   0.467   5.025
15690SOL    HW148909   6.552   0.485   4.997
15690SOL    HW248910   6.634   0.452   5.119
15691SOL     OW48911  12.806  13.831   5.808
15691SOL    HW148912  12.720  13.848   5.846
15691SOL    HW248913  12.832  13.915   5.769
15692SOL     OW48914   1.766   1.710  11.863
15692SOL    HW148915   1.816   1.735  11.785
15692SOL    HW248916   1.715   1.788  11.885
15693SOL     OW48917   6.554   8.725   6.333
15693SOL    HW148918   6.564   8.633   6.307
15693SOL    HW248919   6.595   8.731   6.419
15694SOL     OW48920  13.744   0.363   4.878
15694SOL    HW148921  13.730   0.310   4.800
15694SOL    HW248922  13.739   0.454   4.847
15695SOL     OW48923  11.401   5.197   7.125
15695SOL    HW148924  11.340   5.257   7.167
15695SOL    HW248925  11.466   5.253   7.084
15696SOL     OW48926   6.508  14.798   0.294
15696SOL    HW148927   6.584  14.818   0.348
15696SOL    HW248928   6.453   0.004   0.299
15697SOL     OW48929   9.660   6.019   0.968
15697SOL    HW148930   9.624   6.001   0.881
15697SOL    HW248931   9.613   6.097   0.998
15698SOL     OW48932  14.047   7.345   5.326
15698SOL    HW148933  14.094   7.397   5.391
15698SOL    HW248934  14.091   7.260   5.327
15699SOL     OW48935  14.873   7.448  14.365
15699SOL    HW148936   0.057   7.448  14.441
15699SOL    HW248937   0.059   7.437  14.291
15700SOL     OW48938   2.518   9.774   8.493
15700SOL    HW148939   2.429   9.788   8.524
15700SOL    HW248940   2.512   9.697   8.436
15701SOL     OW48941   7.390  13.211   2.040
15701SOL    HW148942   7.400  13.143   1.973
15701SOL    HW248943   7.339  13.280   1.997
15702SOL     OW48944  14.255   3.727   2.184
15702SOL    HW148945  14.257   3.734   2.088
15702SOL    HW248946  14.314   3.655   2.204
15703SOL     OW48947   0.465   2.514  14.678
15703SOL    HW148948   0.418   2.449  14.729
15703SOL    HW248949   0.437   2.499  14.588
15704SOL     OW48950   1.796  10.668   0.282
15704SOL    HW148951   1.766  10.738   0.223
15704SOL    HW248952   1.739  10.675   0.358
15705SOL     OW48953  11.601   1.354   9.946
15705SOL    HW148954  11.557   1.349   9.862
15705SOL    HW248955  11.692   1.331   9.928
15706SOL     OW48956   1.716   5.772   7.189
15706SOL    HW148957   1.707   5.866   7.176
15706SOL    HW248958   1.660   5.733   7.121
15707SOL     OW48959  13.447   9.999   9.948
15707SOL    HW148960  13.365  10.027   9.989
15707SOL    HW248961  13.463   9.911   9.983
15708SOL     OW48962   3.937  11.841  10.404
15708SOL    HW148963   3.988  11.872  10.479
15708SOL    HW248964   3.967  11.895  10.331
15709SOL     OW48965   0.557   2.593   9.663
15709SOL    HW148966   0.535   2.543   9.584
15709SOL    HW248967   0.624   2.655   9.635
15710SOL     OW48968  13.685   4.347  11.664
15710SOL    HW148969  13.699   4.305  11.579
15710SOL    HW248970  13.653   4.277  11.721
15711SOL     OW48971   8.181   7.455  11.380
15711SOL    HW148972   8.144   7.541  11.361
15711SOL    HW248973   8.258   7.474  11.434
15712SOL     OW48974  10.437   2.905  11.851
15712SOL    HW148975  10.345   2.883  11.865
15712SOL    HW248976  10.458   2.967  11.921
15713SOL     OW48977  13.510   9.164   4.656
15713SOL    HW148978  13.604   9.154   4.645
15713SOL    HW248979  13.500   9.207   4.741
15714SOL     OW48980  12.701  11.157   0.661
15714SOL    HW148981  12.656  11.234   0.625
15714SOL    HW248982  12.631  11.094   0.679
15715SOL     OW48983   7.731   2.399   3.705
15715SOL    HW148984   7.694   2.349   3.778
15715SOL    HW248985   7.822   2.413   3.731
15716SOL     OW48986  12.884   5.017   5.358
15716SOL    HW148987  12.872   4.937   5.306
15716SOL    HW248988  12.878   4.987   5.449
15717SOL     OW48989  13.802   6.182   2.299
15717SOL    HW148990  13.876   6.167   2.358
15717SOL    HW248991  13.833   6.152   2.213
15718SOL     OW48992  12.668   0.906  13.260
15718SOL    HW148993  12.645   0.990  13.300
15718SOL    HW248994  12.737   0.871  13.316
15719SOL     OW48995  13.866   9.195   3.568
15719SOL    HW148996  13.870   9.263   3.501
15719SOL    HW248997  13.902   9.117   3.526
15720SOL     OW48998   2.183   3.773  13.221
15720SOL    HW148999   2.263   3.794  13.269
15720SOL    HW249000   2.213   3.754  13.132
15721SOL     OW49001   1.776  10.431   8.548
15721SOL    HW149002   1.748  10.498   8.485
15721SOL    HW249003   1.718  10.441   8.622
15722SOL     OW49004   7.662   6.000   8.086
15722SOL    HW149005   7.706   6.063   8.029
15722SOL    HW249006   7.733   5.950   8.126
15723SOL     OW49007   3.419   9.461  10.693
15723SOL    HW149008   3.358   9.524  10.655
15723SOL    HW249009   3.375   9.428  10.771
15724SOL     OW49010   1.487   0.210  14.659
15724SOL    HW149011   1.552   0.253  14.714
15724SOL    HW249012   1.407   0.213  14.710
15725SOL     OW49013   2.016   7.494   5.366
15725SOL    HW149014   2.056   7.407   5.374
15725SOL    HW249015   1.922   7.476   5.361
15726SOL     OW49016   5.943  13.349   3.708
15726SOL    HW149017   5.938  13.356   3.803
15726SOL    HW249018   5.889  13.421   3.675
15727SOL     OW49019  14.564  14.462   5.595
15727SOL    HW149020  14.620  14.448   5.518
15727SOL    HW249021  14.605  14.534   5.642
15728SOL     OW49022  12.976   5.132   7.589
15728SOL    HW149023  12.948   5.158   7.501
15728SOL    HW249024  12.997   5.214   7.633
15729SOL     OW49025   0.063   4.596   1.560
15729SOL    HW149026   0.053   4.654   1.484
15729SOL    HW249027   0.053   4.654   1.636
15730SOL     OW49028   3.371   6.364   5.876
15730SOL    HW149029   3.323   6.297   5.827
15730SOL    HW249030   3.462   6.335   5.872
15731SOL     OW49031   5.137   2.369   1.866
15731SOL    HW149032   5.115   2.277   1.854
15731SOL    HW249033   5.057   2.409   1.898
15732SOL     OW49034   1.875   2.801   8.160
15732SOL    HW149035   1.845   2.862   8.227
15732SOL    HW249036   1.900   2.857   8.086
15733SOL     OW49037   5.752   0.987   2.016
15733SOL    HW149038   5.695   0.954   2.085
15733SOL    HW249039   5.740   1.082   2.019
15734SOL     OW49040  11.008   4.679  10.051
15734SOL    HW149041  10.978   4.648  10.136
15734SOL    HW249042  11.095   4.715  10.068
15735SOL     OW49043  12.803   6.440   5.770
15735SOL    HW149044  12.865   6.381   5.728
15735SOL    HW249045  12.851   6.522   5.781
15736SOL     OW49046   2.951   8.501   1.224
15736SOL    HW149047   2.918   8.493   1.313
15736SOL    HW249048   2.977   8.593   1.216
15737SOL     OW49049   4.182  10.838   3.203
15737SOL    HW149050   4.150  10.903   3.266
15737SOL    HW249051   4.259  10.800   3.246
15738SOL     OW49052   2.786   5.812   8.246
15738SOL    HW149053   2.753   5.724   8.260
15738SOL    HW249054   2.807   5.844   8.334
15739SOL     OW49055   9.503   7.987  12.521
15739SOL    HW149056   9.516   8.030  12.606
15739SOL    HW249057   9.472   7.899  12.543
15740SOL     OW49058  13.179   6.778  13.770
15740SOL    HW149059  13.098   6.828  13.783
15740SOL    HW249060  13.201   6.792  13.678
15741SOL     OW49061  10.840   1.916   1.041
15741SOL    HW149062  10.774   1.949   1.102
15741SOL    HW249063  10.851   1.985   0.976
15742SOL     OW49064   1.663   9.726  13.296
15742SOL    HW149065   1.587   9.740  13.240
15742SOL    HW249066   1.712   9.656  13.253
15743SOL     OW49067   8.469   3.284  12.991
15743SOL    HW149068   8.472   3.192  13.020
15743SOL    HW249069   8.506   3.333  13.065
15744SOL     OW49070  14.580   6.733  11.533
15744SOL    HW149071  14.608   6.813  11.577
15744SOL    HW249072  14.660   6.680  11.528
15745SOL     OW49073   2.420  12.337  14.638
15745SOL    HW149074   2.489  12.403  14.646
15745SOL    HW249075   2.440  12.291  14.556
15746SOL     OW49076   8.429   5.006   5.941
15746SOL    HW149077   8.467   5.080   5.989
15746SOL    HW249078   8.453   5.023   5.850
15747SOL     OW49079   4.655  11.194   6.903
15747SOL    HW149080   4.700  11.186   6.987
15747SOL    HW249081   4.644  11.104   6.872
15748SOL     OW49082  10.267  10.752   9.123
15748SOL    HW149083  10.324  10.717   9.055
15748SOL    HW249084  10.211  10.815   9.078
15749SOL     OW49085   7.378  14.010  13.133
15749SOL    HW149086   7.288  13.984  13.153
15749SOL    HW249087   7.370  14.099  13.098
15750SOL     OW49088   9.736   0.921   4.221
15750SOL    HW149089   9.680   0.998   4.228
15750SOL    HW249090   9.781   0.915   4.305
15751SOL     OW49091   6.513   4.103   5.774
15751SOL    HW149092   6.495   4.073   5.685
15751SOL    HW249093   6.585   4.047   5.803
15752SOL     OW49094   9.948  11.945  12.465
15752SOL    HW149095   9.899  11.959  12.384
15752SOL    HW249096   9.932  12.024  12.516
15753SOL     OW49097   9.054   3.061  12.975
15753SOL    HW149098   8.963   3.029  12.972
15753SOL    HW249099   9.107   2.981  12.972
15754SOL     OW49100   6.691  11.084   1.721
15754SOL    HW149101   6.749  11.009   1.707
15754SOL    HW249102   6.740  11.141   1.780
15755SOL     OW49103  12.938   6.290   2.555
15755SOL    HW149104  12.898   6.350   2.619
15755SOL    HW249105  12.919   6.330   2.470
15756SOL     OW49106   2.171  12.956   6.826
15756SOL    HW149107   2.122  12.874   6.839
15756SOL    HW249108   2.259  12.927   6.802
15757SOL     OW49109  13.627   1.201   0.426
15757SOL    HW149110  13.627   1.279   0.481
15757SOL    HW249111  13.712   1.202   0.382
15758SOL     OW49112  10.930   8.049   0.645
15758SOL    HW149113  10.840   8.049   0.676
15758SOL    HW249114  10.947   7.957   0.621
15759SOL     OW49115  11.203   6.065  11.606
15759SOL    HW149116  11.200   6.147  11.655
15759SOL    HW249117  11.282   6.072  11.552
15760SOL     OW49118   2.854   2.539   4.407
15760SOL    HW149119   2.908   2.546   4.328
15760SOL    HW249120   2.773   2.499   4.377
15761SOL     OW49121  14.017   1.728   1.726
15761SOL    HW149122  13.987   1.801   1.672
15761SOL    HW249123  14.103   1.705   1.691
15762SOL     OW49124   9.889  11.445   7.230
15762SOL    HW149125   9.964  11.385   7.225
15762SOL    HW249126   9.829  11.414   7.162
15763SOL     OW49127   8.049  14.150   0.434
15763SOL    HW149128   8.059  14.213   0.505
15763SOL    HW249129   7.991  14.193   0.371
15764SOL     OW49130  14.291  12.650   6.691
15764SOL    HW149131  14.380  12.624   6.710
15764SOL    HW249132  14.298  12.703   6.611
15765SOL     OW49133  14.492  12.437   7.932
15765SOL    HW149134  14.518  12.351   7.900
15765SOL    HW249135  14.488  12.491   7.853
15766SOL     OW49136   7.858   3.477  13.475
15766SOL    HW149137   7.848   3.383  13.466
15766SOL    HW249138   7.905   3.503  13.396
15767SOL     OW49139   0.082   9.464   3.047
15767SOL    HW149140   0.082   9.517   2.968
15767SOL    HW249141   0.092   9.527   3.119
15768SOL     OW49142   1.664   2.216   0.105
15768SOL    HW149143   1.609   2.196   0.180
15768SOL    HW249144   1.668   2.312   0.103
15769SOL     OW49145  11.656   6.161   4.400
15769SOL    HW149146  11.651   6.235   4.461
15769SOL    HW249147  11.698   6.198   4.322
15770SOL     OW49148   5.954  12.043   6.720
15770SOL    HW149149   5.925  12.133   6.710
15770SOL    HW249150   6.015  12.029   6.648
15771SOL     OW49151   0.132   4.883  12.646
15771SOL    HW149152   0.143   4.796  12.609
15771SOL    HW249153   0.053   4.918  12.603
15772SOL     OW49154  11.551  14.059   7.488
15772SOL    HW149155  11.546  14.142   7.441
15772SOL    HW249156  11.625  14.071   7.548
15773SOL     OW49157   0.318   8.124   4.317
15773SOL    HW149158   0.282   8.175   4.244
15773SOL    HW249159   0.250   8.059   4.336
15774SOL     OW49160  13.900  14.029   9.438
15774SOL    HW149161  13.897  14.094   9.509
15774SOL    HW249162  13.889  14.080   9.358
15775SOL     OW49163   6.420   9.930   2.703
15775SOL    HW149164   6.347   9.871   2.683
15775SOL    HW249165   6.404  10.007   2.649
15776SOL     OW49166   5.138   1.278   6.032
15776SOL    HW149167   5.088   1.204   5.997
15776SOL    HW249168   5.137   1.265   6.126
15777SOL     OW49169   7.078   2.895  12.879
15777SOL    HW149170   7.107   2.970  12.828
15777SOL    HW249171   7.158   2.849  12.902
15778SOL     OW49172   3.196   7.054  14.088
15778SOL    HW149173   3.217   7.143  14.060
15778SOL    HW249174   3.237   7.044  14.174
15779SOL     OW49175  10.498   3.762   0.840
15779SOL    HW149176  10.436   3.698   0.876
15779SOL    HW249177  10.460   3.847   0.862
15780SOL     OW49178   5.075   7.545   4.794
15780SOL    HW149179   5.108   7.461   4.761
15780SOL    HW249180   4.983   7.547   4.767
15781SOL     OW49181  14.433  12.460   4.988
15781SOL    HW149182  14.452  12.378   4.943
15781SOL    HW249183  14.477  12.527   4.935
15782SOL     OW49184  14.258   0.771   7.201
15782SOL    HW149185  14.248   0.856   7.158
15782SOL    HW249186  14.301   0.792   7.284
15783SOL     OW49187   2.176   9.979   4.182
15783SOL    HW149188   2.203   9.899   4.228
15783SOL    HW249189   2.258  10.022   4.160
15784SOL     OW49190   5.828  14.619   2.842
15784SOL    HW149191   5.902  14.560   2.852
15784SOL    HW249192   5.751  14.563   2.857
15785SOL     OW49193   2.059   1.545   6.260
15785SOL    HW149194   2.131   1.582   6.209
15785SOL    HW249195   2.100   1.512   6.340
15786SOL     OW49196  14.708   4.308   5.421
15786SOL    HW149197  14.615   4.290   5.403
15786SOL    HW249198  14.746   4.222   5.437
15787SOL     OW49199  11.205  13.214  10.048
15787SOL    HW149200  11.277  13.232   9.988
15787SOL    HW249201  11.220  13.123  10.077
15788SOL     OW49202   9.676   4.036   1.331
15788SOL    HW149203   9.735   3.961   1.326
15788SOL    HW249204   9.589   3.999   1.324
15789SOL     OW49205   3.536  10.893  10.619
15789SOL    HW149206   3.627  10.910  10.641
15789SOL    HW249207   3.523  10.938  10.535
15790SOL     OW49208  13.659   5.155   4.547
15790SOL    HW149209  13.641   5.149   4.641
15790SOL    HW249210  13.581   5.197   4.511
15791SOL     OW49211   3.634   0.864   3.825
15791SOL    HW149212   3.561   0.917   3.856
15791SOL    HW249213   3.704   0.926   3.807
15792SOL     OW49214   1.730  13.481   4.367
15792SOL    HW149215   1.658  13.479   4.429
15792SOL    HW249216   1.692  13.518   4.287
15793SOL     OW49217  11.349   1.422   8.084
15793SOL    HW149218  11.342   1.475   8.164
15793SOL    HW249219  11.376   1.483   8.016
15794SOL     OW49220   2.484   9.144   1.924
15794SOL    HW149221   2.431   9.213   1.963
15794SOL    HW249222   2.566   9.188   1.900
15795SOL     OW49223   0.879   0.743  11.427
15795SOL    HW149224   0.971   0.720  11.439
15795SOL    HW249225   0.848   0.682  11.360
15796SOL     OW49226  14.433   3.277   8.858
15796SOL    HW149227  14.441   3.300   8.766
15796SOL    HW249228  14.405   3.185   8.858
15797SOL     OW49229   2.969   9.197  11.833
15797SOL    HW149230   3.018   9.159  11.906
15797SOL    HW249231   2.885   9.222  11.872
15798SOL     OW49232   5.699   9.283  14.185
15798SOL    HW149233   5.667   9.239  14.106
15798SOL    HW249234   5.779   9.236  14.208
15799SOL     OW49235   2.388   9.718   9.534
15799SOL    HW149236   2.417   9.687   9.620
15799SOL    HW249237   2.458   9.775   9.504
15800SOL     OW49238   6.538   9.758   3.897
15800SOL    HW149239   6.520   9.849   3.921
15800SOL    HW249240   6.488   9.707   3.961
15801SOL     OW49241   1.547  14.061   2.505
15801SOL    HW149242   1.499  14.019   2.433
15801SOL    HW249243   1.606  13.992   2.538
15802SOL     OW49244  12.708   6.770   8.456
15802SOL    HW149245  12.672   6.747   8.371
15802SOL    HW249246  12.640   6.747   8.518
15803SOL     OW49247  14.523   0.719   4.486
15803SOL    HW149248  14.460   0.750   4.551
15803SOL    HW249249  14.577   0.656   4.534
15804SOL     OW49250  14.369   4.531   1.087
15804SOL    HW149251  14.303   4.491   1.142
15804SOL    HW249252  14.420   4.458   1.053
15805SOL     OW49253  10.347   5.522  12.650
15805SOL    HW149254  10.423   5.465  12.633
15805SOL    HW249255  10.274   5.462  12.660
15806SOL     OW49256   7.293  12.389   9.819
15806SOL    HW149257   7.354  12.325   9.780
15806SOL    HW249258   7.235  12.336   9.874
15807SOL     OW49259   0.875   0.626  13.166
15807SOL    HW149260   0.847   0.557  13.226
15807SOL    HW249261   0.811   0.622  13.094
15808SOL     OW49262   0.205   1.867   5.551
15808SOL    HW149263   0.140   1.798   5.560
15808SOL    HW249264   0.161   1.946   5.582
15809SOL     OW49265  13.859   0.294  11.771
15809SOL    HW149266  13.779   0.319  11.817
15809SOL    HW249267  13.891   0.376  11.733
15810SOL     OW49268  14.589   8.478   6.231
15810SOL    HW149269  14.495   8.495   6.234
15810SOL    HW249270  14.596   8.383   6.231
15811SOL     OW49271   1.664   7.091   8.139
15811SOL    HW149272   1.624   7.164   8.187
15811SOL    HW249273   1.687   7.128   8.054
15812SOL     OW49274   3.193   2.427   3.148
15812SOL    HW149275   3.190   2.486   3.224
15812SOL    HW249276   3.258   2.361   3.172
15813SOL     OW49277  11.299   6.854   2.091
15813SOL    HW149278  11.372   6.875   2.033
15813SOL    HW249279  11.275   6.764   2.068
15814SOL     OW49280  14.721   9.914   1.026
15814SOL    HW149281  14.671   9.833   1.019
15814SOL    HW249282  14.788   9.907   0.958
15815SOL     OW49283   9.819   7.333  14.582
15815SOL    HW149284   9.911   7.340  14.607
15815SOL    HW249285   9.795   7.422  14.553
15816SOL     OW49286   6.995   9.014   5.126
15816SOL    HW149287   7.068   8.953   5.121
15816SOL    HW249288   6.998   9.063   5.044
15817SOL     OW49289   1.428   8.391   0.825
15817SOL    HW149290   1.452   8.460   0.764
15817SOL    HW249291   1.468   8.417   0.908
15818SOL     OW49292   9.952  11.757   8.482
15818SOL    HW149293   9.992  11.824   8.426
15818SOL    HW249294   9.859  11.779   8.483
15819SOL     OW49295   8.020   8.025   6.689
15819SOL    HW149296   8.012   8.044   6.596
15819SOL    HW249297   8.096   7.967   6.696
15820SOL     OW49298  13.874   6.226   9.607
15820SOL    HW149299  13.876   6.131   9.612
15820SOL    HW249300  13.783   6.247   9.583
15821SOL     OW49301  14.118   9.928   1.908
15821SOL    HW149302  14.130  10.023   1.907
15821SOL    HW249303  14.204   9.894   1.929
15822SOL     OW49304  13.491  12.806  11.859
15822SOL    HW149305  13.426  12.870  11.831
15822SOL    HW249306  13.441  12.740  11.907
15823SOL     OW49307   9.357   2.096   0.597
15823SOL    HW149308   9.262   2.105   0.598
15823SOL    HW249309   9.387   2.157   0.530
15824SOL     OW49310   8.448   4.725   4.363
15824SOL    HW149311   8.405   4.658   4.416
15824SOL    HW249312   8.379   4.760   4.306
15825SOL     OW49313  13.642   0.228   1.746
15825SOL    HW149314  13.618   0.136   1.756
15825SOL    HW249315  13.565   0.269   1.705
15826SOL     OW49316   2.497  10.433   2.729
15826SOL    HW149317   2.528  10.392   2.810
15826SOL    HW249318   2.570  10.423   2.667
15827SOL     OW49319   9.508   5.547   8.937
15827SOL    HW149320   9.581   5.490   8.961
15827SOL    HW249321   9.476   5.580   9.021
15828SOL     OW49322  14.403   2.136  13.971
15828SOL    HW149323  14.486   2.151  14.017
15828SOL    HW249324  14.338   2.127  14.041
15829SOL     OW49325  14.764   2.778  11.381
15829SOL    HW149326  14.743   2.761  11.472
15829SOL    HW249327  14.843   2.833  11.384
15830SOL     OW49328  13.242  10.631   4.586
15830SOL    HW149329  13.159  10.595   4.619
15830SOL    HW249330  13.302  10.556   4.586
15831SOL     OW49331   5.671  12.704   6.672
15831SOL    HW149332   5.623  12.679   6.751
15831SOL    HW249333   5.727  12.776   6.700
15832SOL     OW49334   9.889  12.171  13.082
15832SOL    HW149335   9.812  12.115  13.068
15832SOL    HW249336   9.962  12.110  13.089
15833SOL     OW49337   0.832  12.592  12.585
15833SOL    HW149338   0.899  12.571  12.520
15833SOL    HW249339   0.879  12.639  12.653
15834SOL     OW49340   8.816   1.328   5.644
15834SOL    HW149341   8.722   1.344   5.647
15834SOL    HW249342   8.827   1.259   5.578
15835SOL     OW49343   1.444   6.041   1.496
15835SOL    HW149344   1.472   6.124   1.534
15835SOL    HW249345   1.369   6.064   1.441
15836SOL     OW49346   4.990   8.378  12.482
15836SOL    HW149347   5.051   8.415  12.418
15836SOL    HW249348   5.033   8.391  12.566
15837SOL     OW49349   9.544   1.470   3.399
15837SOL    HW149350   9.473   1.408   3.416
15837SOL    HW249351   9.512   1.523   3.326
15838SOL     OW49352   1.790  14.843  14.193
15838SOL    HW149353   1.817  14.761  14.235
15838SOL    HW249354   1.860   0.032  14.215
15839SOL     OW49355   5.213  14.701   6.993
15839SOL    HW149356   5.133  14.754   6.989
15839SOL    HW249357   5.260  14.722   6.912
15840SOL     OW49358  13.251  12.919   2.766
15840SOL    HW149359  13.219  12.996   2.720
15840SOL    HW249360  13.322  12.952   2.821
15841SOL     OW49361   2.717   0.156   6.144
15841SOL    HW149362   2.698   0.247   6.122
15841SOL    HW249363   2.632   0.117   6.163
15842SOL     OW49364   7.446   9.959   7.359
15842SOL    HW149365   7.399   9.907   7.425
15842SOL    HW249366   7.537   9.931   7.367
15843SOL     OW49367  13.501   1.701  11.360
15843SOL    HW149368  13.596   1.711  11.362
15843SOL    HW249369  13.470   1.756  11.431
15844SOL     OW49370   2.919   3.927   0.045
15844SOL    HW149371   2.834   3.970   0.043
15844SOL    HW249372   2.899   3.834   0.039
15845SOL     OW49373   0.774   2.691  11.836
15845SOL    HW149374   0.797   2.764  11.893
15845SOL    HW249375   0.770   2.615  11.893
15846SOL     OW49376   2.430  14.202   0.469
15846SOL    HW149377   2.465  14.112   0.468
15846SOL    HW249378   2.430  14.226   0.562
15847SOL     OW49379   9.728  10.598   8.678
15847SOL    HW149380   9.652  10.617   8.734
15847SOL    HW249381   9.693  10.543   8.608
15848SOL     OW49382   9.613  14.849   3.191
15848SOL    HW149383   9.702   0.011   3.189
15848SOL    HW249384   9.595  14.836   3.284
15849SOL     OW49385   4.004   0.970  13.402
15849SOL    HW149386   3.936   1.008  13.458
15849SOL    HW249387   3.999   0.876  13.420
15850SOL     OW49388   3.814   4.904   9.735
15850SOL    HW149389   3.825   4.944   9.821
15850SOL    HW249390   3.874   4.829   9.735
15851SOL     OW49391   3.923   5.301  13.000
15851SOL    HW149392   3.948   5.313  13.092
15851SOL    HW249393   3.984   5.357  12.952
15852SOL     OW49394  13.461  14.626  14.859
15852SOL    HW149395  13.496  14.690  14.798
15852SOL    HW249396  13.431  14.678   0.061
15853SOL     OW49397   1.319   9.426   9.862
15853SOL    HW149398   1.228   9.396   9.866
15853SOL    HW249399   1.354   9.410   9.950
15854SOL     OW49400  12.329   9.170  11.028
15854SOL    HW149401  12.263   9.232  10.998
15854SOL    HW249402  12.307   9.088  10.984
15855SOL     OW49403  13.668  12.583  13.071
15855SOL    HW149404  13.753  12.591  13.029
15855SOL    HW249405  13.685  12.600  13.164
15856SOL     OW49406   5.656   7.362   1.337
15856SOL    HW149407   5.581   7.350   1.395
15856SOL    HW249408   5.704   7.437   1.375
15857SOL     OW49409   7.745   9.368  10.216
15857SOL    HW149410   7.838   9.352  10.204
15857SOL    HW249411   7.729   9.452  10.173
15858SOL     OW49412   8.666  13.735   6.278
15858SOL    HW149413   8.596  13.800   6.277
15858SOL    HW249414   8.691  13.729   6.371
15859SOL     OW49415   1.934   0.158   3.097
15859SOL    HW149416   1.975   0.241   3.120
15859SOL    HW249417   1.994   0.092   3.132
15860SOL     OW49418   1.816   7.134  13.860
15860SOL    HW149419   1.728   7.170  13.868
15860SOL    HW249420   1.872   7.210  13.843
15861SOL     OW49421   6.465   4.957   2.338
15861SOL    HW149422   6.545   4.979   2.290
15861SOL    HW249423   6.496   4.917   2.419
15862SOL     OW49424   6.985   4.695   1.755
15862SOL    HW149425   6.901   4.714   1.797
15862SOL    HW249426   6.991   4.599   1.758
15863SOL     OW49427   8.955   6.712   8.695
15863SOL    HW149428   8.933   6.736   8.605
15863SOL    HW249429   8.961   6.796   8.741
15864SOL     OW49430   9.150   2.972   0.880
15864SOL    HW149431   9.194   2.890   0.902
15864SOL    HW249432   9.222   3.033   0.861
15865SOL     OW49433  10.501  12.207   2.137
15865SOL    HW149434  10.465  12.285   2.180
15865SOL    HW249435  10.523  12.237   2.049
15866SOL     OW49436   1.673  12.913   2.758
15866SOL    HW149437   1.595  12.859   2.747
15866SOL    HW249438   1.695  12.906   2.851
15867SOL     OW49439   7.332  12.982   2.718
15867SOL    HW149440   7.320  12.909   2.657
15867SOL    HW249441   7.291  13.056   2.674
15868SOL     OW49442   8.070  10.846   7.932
15868SOL    HW149443   7.990  10.796   7.947
15868SOL    HW249444   8.111  10.851   8.018
15869SOL     OW49445   1.705   3.637   5.239
15869SOL    HW149446   1.792   3.611   5.270
15869SOL    HW249447   1.644   3.588   5.295
15870SOL     OW49448   1.957   2.800   5.090
15870SOL    HW149449   2.042   2.760   5.074
15870SOL    HW249450   1.908   2.734   5.140
15871SOL     OW49451   4.900   4.014  10.840
15871SOL    HW149452   4.988   4.045  10.862
15871SOL    HW249453   4.884   4.049  10.752
15872SOL     OW49454   5.380   5.450   6.075
15872SOL    HW149455   5.352   5.426   6.164
15872SOL    HW249456   5.392   5.545   6.078
15873SOL     OW49457   9.775   2.744   9.540
15873SOL    HW149458   9.767   2.836   9.517
15873SOL    HW249459   9.777   2.743   9.636
15874SOL     OW49460   8.628   3.402   1.952
15874SOL    HW149461   8.642   3.311   1.927
15874SOL    HW249462   8.638   3.451   1.871
15875SOL     OW49463  14.078   8.296   0.810
15875SOL    HW149464  14.058   8.354   0.883
15875SOL    HW249465  14.173   8.287   0.811
15876SOL     OW49466   4.151   3.496   6.574
15876SOL    HW149467   4.084   3.518   6.639
15876SOL    HW249468   4.133   3.555   6.501
15877SOL     OW49469   3.389   4.272  13.466
15877SOL    HW149470   3.404   4.328  13.543
15877SOL    HW249471   3.385   4.333  13.392
15878SOL     OW49472   2.650   4.172  10.830
15878SOL    HW149473   2.680   4.235  10.894
15878SOL    HW249474   2.562   4.148  10.859
15879SOL     OW49475   9.777   5.549  10.747
15879SOL    HW149476   9.696   5.585  10.712
15879SOL    HW249477   9.840   5.558  10.675
15880SOL     OW49478   1.305   9.748   6.052
15880SOL    HW149479   1.306   9.767   6.146
15880SOL    HW249480   1.215   9.767   6.025
15881SOL     OW49481   1.055   8.104   9.485
15881SOL    HW149482   0.966   8.096   9.518
15881SOL    HW249483   1.070   8.199   9.479
15882SOL     OW49484   3.198   7.293  11.785
15882SOL    HW149485   3.191   7.294  11.690
15882SOL    HW249486   3.290   7.308  11.803
15883SOL     OW49487  10.711  13.195  12.830
15883SOL    HW149488  10.621  13.200  12.864
15883SOL    HW249489  10.737  13.104  12.846
15884SOL     OW49490   4.498   2.182   8.138
15884SOL    HW149491   4.584   2.222   8.132
15884SOL    HW249492   4.510   2.093   8.104
15885SOL     OW49493   8.804  13.651   7.476
15885SOL    HW149494   8.829  13.742   7.492
15885SOL    HW249495   8.882  13.600   7.499
15886SOL     OW49496  14.362  10.712  12.513
15886SOL    HW149497  14.269  10.724  12.530
15886SOL    HW249498  14.366  10.649  12.441
15887SOL     OW49499   8.867   1.486  13.494
15887SOL    HW149500   8.961   1.473  13.483
15887SOL    HW249501   8.827   1.435  13.423
15888SOL     OW49502   5.419   9.221   9.988
15888SOL    HW149503   5.450   9.263   9.908
15888SOL    HW249504   5.372   9.290  10.035
15889SOL     OW49505   6.086   1.350   7.112
15889SOL    HW149506   6.007   1.381   7.068
15889SOL    HW249507   6.088   1.256   7.096
15890SOL     OW49508  14.258   7.505   4.576
15890SOL    HW149509  14.304   7.456   4.644
15890SOL    HW249510  14.229   7.438   4.513
15891SOL     OW49511   7.611   0.249   9.707
15891SOL    HW149512   7.653   0.211   9.629
15891SOL    HW249513   7.528   0.283   9.674
15892SOL     OW49514  10.454  13.842   1.444
15892SOL    HW149515  10.494  13.914   1.396
15892SOL    HW249516  10.472  13.765   1.391
15893SOL     OW49517  13.655   9.017   5.355
15893SOL    HW149518  13.604   8.979   5.427
15893SOL    HW249519  13.746   9.008   5.383
15894SOL     OW49520  13.677   3.121  11.141
15894SOL    HW149521  13.696   3.210  11.170
15894SOL    HW249522  13.759   3.073  11.155
15895SOL     OW49523   1.216  10.137  10.158
15895SOL    HW149524   1.214  10.230  10.180
15895SOL    HW249525   1.147  10.098  10.211
15896SOL     OW49526   2.521   0.849   3.817
15896SOL    HW149527   2.523   0.783   3.747
15896SOL    HW249528   2.440   0.897   3.802
15897SOL     OW49529   6.216   2.511   0.230
15897SOL    HW149530   6.275   2.507   0.154
15897SOL    HW249531   6.151   2.443   0.213
15898SOL     OW49532   8.852  13.968  12.702
15898SOL    HW149533   8.885  13.921  12.779
15898SOL    HW249534   8.876  13.914  12.628
15899SOL     OW49535   4.093   3.103   1.633
15899SOL    HW149536   4.022   3.080   1.693
15899SOL    HW249537   4.072   3.193   1.605
15900SOL     OW49538  11.001   2.253   1.810
15900SOL    HW149539  10.953   2.233   1.730
15900SOL    HW249540  11.085   2.207   1.799
15901SOL     OW49541  13.400  12.118  11.483
15901SOL    HW149542  13.400  12.197  11.537
15901SOL    HW249543  13.485  12.120  11.439
15902SOL     OW49544   8.514   5.063  10.261
15902SOL    HW149545   8.578   5.009  10.215
15902SOL    HW249546   8.565   5.132  10.303
15903SOL     OW49547  14.129   0.075   0.258
15903SOL    HW149548  14.213   0.040   0.286
15903SOL    HW249549  14.066   0.005   0.278
15904SOL     OW49550  12.522   0.386   4.392
15904SOL    HW149551  12.578   0.347   4.325
15904SOL    HW249552  12.567   0.466   4.417
15905SOL     OW49553   5.719  10.545   4.766
15905SOL    HW149554   5.809  10.514   4.774
15905SOL    HW249555   5.726  10.640   4.777
15906SOL     OW49556  14.319   1.048   9.219
15906SOL    HW149557  14.235   1.037   9.263
15906SOL    HW249558  14.296   1.067   9.128
15907SOL     OW49559   4.009   7.465   3.387
15907SOL    HW149560   3.937   7.492   3.444
15907SOL    HW249561   4.088   7.482   3.439
15908SOL     OW49562   2.898   5.340   4.522
15908SOL    HW149563   2.874   5.417   4.573
15908SOL    HW249564   2.824   5.279   4.534
15909SOL     OW49565  10.795   8.323   2.242
15909SOL    HW149566  10.808   8.418   2.231
15909SOL    HW249567  10.724   8.316   2.306
15910SOL     OW49568   5.256   2.107   8.995
15910SOL    HW149569   5.333   2.052   9.014
15910SOL    HW249570   5.285   2.196   9.013
15911SOL     OW49571   3.031  10.789   9.951
15911SOL    HW149572   3.004  10.725  10.017
15911SOL    HW249573   3.117  10.819   9.982
15912SOL     OW49574  11.311  11.631   6.165
15912SOL    HW149575  11.272  11.560   6.113
15912SOL    HW249576  11.405  11.622   6.150
15913SOL     OW49577   4.907  10.592   0.853
15913SOL    HW149578   4.927  10.685   0.846
15913SOL    HW249579   4.989  10.548   0.830
15914SOL     OW49580   7.067  14.801   5.779
15914SOL    HW149581   7.140  14.803   5.718
15914SOL    HW249582   7.105  14.826   5.863
15915SOL     OW49583   7.530   4.044   9.259
15915SOL    HW149584   7.519   4.110   9.328
15915SOL    HW249585   7.542   4.095   9.179
15916SOL     OW49586   7.875   0.689   6.999
15916SOL    HW149587   7.954   0.728   7.037
15916SOL    HW249588   7.832   0.762   6.954
15917SOL     OW49589  11.871   1.423   3.356
15917SOL    HW149590  11.916   1.464   3.282
15917SOL    HW249591  11.794   1.382   3.316
15918SOL     OW49592   6.156   1.327   6.058
15918SOL    HW149593   6.178   1.249   6.110
15918SOL    HW249594   6.210   1.397   6.095
15919SOL     OW49595  14.043  14.549   6.246
15919SOL    HW149596  14.126  14.505   6.225
15919SOL    HW249597  13.989  14.481   6.286
15920SOL     OW49598   0.093   3.388   0.719
15920SOL    HW149599   0.118   3.466   0.668
15920SOL    HW249600   0.131   3.403   0.805
15921SOL     OW49601  10.058   1.058   8.677
15921SOL    HW149602  10.150   1.051   8.701
15921SOL    HW249603  10.022   1.123   8.738
15922SOL     OW49604  14.317   9.874   4.620
15922SOL    HW149605  14.280   9.922   4.694
15922SOL    HW249606  14.266   9.793   4.617
15923SOL     OW49607   3.667  12.341  11.120
15923SOL    HW149608   3.626  12.274  11.175
15923SOL    HW249609   3.636  12.321  11.032
15924SOL     OW49610   7.793  14.227   4.780
15924SOL    HW149611   7.854  14.258   4.846
15924SOL    HW249612   7.845  14.168   4.725
15925SOL     OW49613   4.507   2.265  10.785
15925SOL    HW149614   4.506   2.310  10.700
15925SOL    HW249615   4.588   2.213  10.784
15926SOL     OW49616   8.681   6.796   0.768
15926SOL    HW149617   8.601   6.770   0.724
15926SOL    HW249618   8.691   6.889   0.750
15927SOL     OW49619   2.975   4.404   1.616
15927SOL    HW149620   3.033   4.456   1.671
15927SOL    HW249621   2.987   4.314   1.647
15928SOL     OW49622   5.564  10.110   7.375
15928SOL    HW149623   5.534  10.195   7.343
15928SOL    HW249624   5.635  10.130   7.435
15929SOL     OW49625  10.929   8.083   9.211
15929SOL    HW149626  10.905   8.081   9.119
15929SOL    HW249627  10.845   8.080   9.257
15930SOL     OW49628  14.138   9.230   5.352
15930SOL    HW149629  14.224   9.195   5.327
15930SOL    HW249630  14.128   9.203   5.443
15931SOL     OW49631   1.210  11.151   8.037
15931SOL    HW149632   1.271  11.081   8.062
15931SOL    HW249633   1.255  11.232   8.062
15932SOL     OW49634   1.799   4.894  13.443
15932SOL    HW149635   1.762   4.978  13.415
15932SOL    HW249636   1.767   4.882  13.532
15933SOL     OW49637  14.336   4.330  11.666
15933SOL    HW149638  14.299   4.410  11.630
15933SOL    HW249639  14.415   4.314  11.615
15934SOL     OW49640  10.267   0.903   1.294
15934SOL    HW149641  10.338   0.954   1.255
15934SOL    HW249642  10.187   0.946   1.263
15935SOL     OW49643   8.129   5.200   8.753
15935SOL    HW149644   8.064   5.256   8.710
15935SOL    HW249645   8.177   5.160   8.682
15936SOL     OW49646   3.928   2.564  12.431
15936SOL    HW149647   4.021   2.580  12.413
15936SOL    HW249648   3.881   2.617  12.367
15937SOL     OW49649   5.530   5.023   9.617
15937SOL    HW149650   5.560   5.004   9.528
15937SOL    HW249651   5.439   5.053   9.606
15938SOL     OW49652   8.886   6.230   8.838
15938SOL    HW149653   8.978   6.225   8.815
15938SOL    HW249654   8.878   6.175   8.916
15939SOL     OW49655   3.366  10.768   7.064
15939SOL    HW149656   3.393  10.856   7.088
15939SOL    HW249657   3.282  10.780   7.019
15940SOL     OW49658   8.542  12.107   8.280
15940SOL    HW149659   8.569  12.189   8.238
15940SOL    HW249660   8.623  12.072   8.317
15941SOL     OW49661   6.746  13.896  11.475
15941SOL    HW149662   6.834  13.919  11.445
15941SOL    HW249663   6.751  13.802  11.494
15942SOL     OW49664   0.384   7.681  11.312
15942SOL    HW149665   0.464   7.677  11.260
15942SOL    HW249666   0.400   7.750  11.376
15943SOL     OW49667  10.179  13.017   6.286
15943SOL    HW149668  10.163  12.963   6.363
15943SOL    HW249669  10.262  13.061   6.304
15944SOL     OW49670   8.263   0.442   3.023
15944SOL    HW149671   8.181   0.392   3.022
15944SOL    HW249672   8.330   0.378   3.046
15945SOL     OW49673   3.203  14.580   8.649
15945SOL    HW149674   3.130  14.580   8.588
15945SOL    HW249675   3.267  14.639   8.609
15946SOL     OW49676   6.643   8.530   9.085
15946SOL    HW149677   6.647   8.623   9.064
15946SOL    HW249678   6.699   8.488   9.020
15947SOL     OW49679   7.303   2.416  13.259
15947SOL    HW149680   7.352   2.494  13.286
15947SOL    HW249681   7.347   2.343  13.303
15948SOL     OW49682   0.185   4.474   5.309
15948SOL    HW149683   0.160   4.529   5.383
15948SOL    HW249684   0.272   4.506   5.283
15949SOL     OW49685  11.670   9.757   1.590
15949SOL    HW149686  11.610   9.806   1.647
15949SOL    HW249687  11.751   9.751   1.640
15950SOL     OW49688   9.530  12.383   6.274
15950SOL    HW149689   9.467  12.349   6.338
15950SOL    HW249690   9.612  12.388   6.323
15951SOL     OW49691   6.091   5.000   7.704
15951SOL    HW149692   6.003   4.996   7.668
15951SOL    HW249693   6.128   5.082   7.669
15952SOL     OW49694   1.797  13.526   8.778
15952SOL    HW149695   1.814  13.433   8.761
15952SOL    HW249696   1.734  13.551   8.711
15953SOL     OW49697   0.280  13.022   2.909
15953SOL    HW149698   0.294  13.014   3.004
15953SOL    HW249699   0.367  13.039   2.874
15954SOL     OW49700   7.004  10.425  13.734
15954SOL    HW149701   6.911  10.438  13.755
15954SOL    HW249702   7.050  10.491  13.785
15955SOL     OW49703   3.925  12.601   7.222
15955SOL    HW149704   4.001  12.640   7.179
15955SOL    HW249705   3.957  12.577   7.309
15956SOL     OW49706  11.999  10.194   7.316
15956SOL    HW149707  11.927  10.244   7.355
15956SOL    HW249708  11.958  10.113   7.287
15957SOL     OW49709   2.262  12.946  11.639
15957SOL    HW149710   2.246  12.906  11.724
15957SOL    HW249711   2.180  12.935  11.591
15958SOL     OW49712  13.201   4.680  13.800
15958SOL    HW149713  13.266   4.703  13.866
15958SOL    HW249714  13.130   4.638  13.849
15959SOL     OW49715   4.672   4.950  10.088
15959SOL    HW149716   4.720   4.944  10.171
15959SOL    HW249717   4.713   5.023  10.041
15960SOL     OW49718  12.887   9.311  11.049
15960SOL    HW149719  12.796   9.301  11.077
15960SOL    HW249720  12.928   9.227  11.071
15961SOL     OW49721  10.525  12.762   4.346
15961SOL    HW149722  10.547  12.795   4.433
15961SOL    HW249723  10.511  12.668   4.358
15962SOL     OW49724   6.269  10.446   2.080
15962SOL    HW149725   6.277  10.459   1.985
15962SOL    HW249726   6.232  10.528   2.112
15963SOL     OW49727   6.103   9.842   1.045
15963SOL    HW149728   6.155   9.916   1.076
15963SOL    HW249729   6.017   9.880   1.026
15964SOL     OW49730   3.545   7.635  13.402
15964SOL    HW149731   3.637   7.663  13.396
15964SOL    HW249732   3.542   7.553  13.354
15965SOL     OW49733  13.009   5.339   7.752
15965SOL    HW149734  13.052   5.340   7.838
15965SOL    HW249735  12.919   5.364   7.769
15966SOL     OW49736  10.063   6.861   0.414
15966SOL    HW149737  10.088   6.908   0.334
15966SOL    HW249738   9.973   6.887   0.430
15967SOL     OW49739  11.916   5.987   8.484
15967SOL    HW149740  11.911   5.920   8.416
15967SOL    HW249741  11.971   6.055   8.446
15968SOL     OW49742   3.841  12.693  14.606
15968SOL    HW149743   3.779  12.740  14.662
15968SOL    HW249744   3.857  12.753  14.533
15969SOL     OW49745   3.847   5.394   1.921
15969SOL    HW149746   3.908   5.392   1.995
15969SOL    HW249747   3.792   5.317   1.932
15970SOL     OW49748   7.561   4.186  12.355
15970SOL    HW149749   7.521   4.273  12.351
15970SOL    HW249750   7.560   4.164  12.448
15971SOL     OW49751   8.755   9.369   3.397
15971SOL    HW149752   8.817   9.329   3.458
15971SOL    HW249753   8.670   9.358   3.438
15972SOL     OW49754   2.229   1.554  13.793
15972SOL    HW149755   2.158   1.579  13.852
15972SOL    HW249756   2.298   1.522  13.851
15973SOL     OW49757  12.481   8.880   9.458
15973SOL    HW149758  12.510   8.934   9.385
15973SOL    HW249759  12.385   8.883   9.453
15974SOL     OW49760   9.210  11.947   0.034
15974SOL    HW149761   9.282  11.964  14.846
15974SOL    HW249762   9.133  11.983  14.864
15975SOL     OW49763   0.275  10.854   7.253
15975SOL    HW149764   0.367  10.859   7.281
15975SOL    HW249765   0.254  10.761   7.256
15976SOL     OW49766   4.045   8.117   8.437
15976SOL    HW149767   4.128   8.138   8.479
15976SOL    HW249768   3.983   8.180   8.473
15977SOL     OW49769  10.524   7.075   2.181
15977SOL    HW149770  10.507   7.035   2.096
15977SOL    HW249771  10.617   7.061   2.196
15978SOL     OW49772  11.944  14.123  12.153
15978SOL    HW149773  12.027  14.098  12.114
15978SOL    HW249774  11.878  14.086  12.095
15979SOL     OW49775  10.001   2.350   7.168
15979SOL    HW149776  10.030   2.284   7.231
15979SOL    HW249777  10.081   2.393   7.139
15980SOL     OW49778  12.404  11.388   9.405
15980SOL    HW149779  12.484  11.424   9.366
15980SOL    HW249780  12.375  11.321   9.343
15981SOL     OW49781  14.445   1.622   2.755
15981SOL    HW149782  14.490   1.550   2.710
15981SOL    HW249783  14.458   1.698   2.698
15982SOL     OW49784   1.344   3.907   3.399
15982SOL    HW149785   1.390   3.989   3.418
15982SOL    HW249786   1.341   3.862   3.483
15983SOL     OW49787   0.332  13.091   5.729
15983SOL    HW149788   0.356  13.158   5.665
15983SOL    HW249789   0.369  13.010   5.695
15984SOL     OW49790  12.546   5.157   5.567
15984SOL    HW149791  12.481   5.139   5.636
15984SOL    HW249792  12.626   5.179   5.614
15985SOL     OW49793   4.750   0.089   7.781
15985SOL    HW149794   4.726   0.006   7.824
15985SOL    HW249795   4.829   0.068   7.732
15986SOL     OW49796   8.951   0.397   4.925
15986SOL    HW149797   8.942   0.456   4.850
15986SOL    HW249798   8.864   0.391   4.963
15987SOL     OW49799  11.402   9.404   9.443
15987SOL    HW149800  11.389   9.464   9.369
15987SOL    HW249801  11.488   9.365   9.426
15988SOL     OW49802   3.441   4.774   9.288
15988SOL    HW149803   3.419   4.716   9.215
15988SOL    HW249804   3.451   4.715   9.363
15989SOL     OW49805  13.706   2.269   5.592
15989SOL    HW149806  13.667   2.293   5.676
15989SOL    HW249807  13.794   2.305   5.595
15990SOL     OW49808   9.732  13.042   2.722
15990SOL    HW149809   9.818  13.001   2.731
15990SOL    HW249810   9.687  12.988   2.656
15991SOL     OW49811   8.431   2.098   2.059
15991SOL    HW149812   8.447   2.160   1.988
15991SOL    HW249813   8.486   2.129   2.131
15992SOL     OW49814   1.224   5.058   2.126
15992SOL    HW149815   1.247   4.969   2.153
15992SOL    HW249816   1.307   5.096   2.096
15993SOL     OW49817   3.188   4.363   8.428
15993SOL    HW149818   3.201   4.385   8.335
15993SOL    HW249819   3.232   4.279   8.439
15994SOL     OW49820   2.829   0.830  13.103
15994SOL    HW149821   2.906   0.868  13.060
15994SOL    HW249822   2.766   0.815  13.033
15995SOL     OW49823   0.831   7.876  12.972
15995SOL    HW149824   0.852   7.841  13.059
15995SOL    HW249825   0.766   7.943  12.988
15996SOL     OW49826  14.451   4.350   8.941
15996SOL    HW149827  14.466   4.259   8.913
15996SOL    HW249828  14.535   4.394   8.926
15997SOL     OW49829   5.385   3.428   3.304
15997SOL    HW149830   5.293   3.453   3.306
15997SOL    HW249831   5.390   3.361   3.235
15998SOL     OW49832  10.764   9.957   7.379
15998SOL    HW149833  10.710   9.899   7.325
15998SOL    HW249834  10.726  10.044   7.365
15999SOL     OW49835   7.203   2.440   5.094
15999SOL    HW149836   7.204   2.536   5.086
15999SOL    HW249837   7.174   2.424   5.183
16000SOL     OW49838   0.045   9.970   0.270
16000SOL    HW149839   0.023   9.907   0.201
16000SOL    HW249840   0.054  10.054   0.225
16001SOL     OW49841  11.379   4.610   5.177
16001SOL    HW149842  11.315   4.680   5.190
16001SOL    HW249843  11.332   4.531   5.202
16002SOL     OW49844   4.073  13.953   3.416
16002SOL    HW149845   4.084  14.024   3.353
16002SOL    HW249846   4.044  13.878   3.364
16003SOL     OW49847  10.653   3.566   9.459
16003SOL    HW149848  10.673   3.489   9.406
16003SOL    HW249849  10.720   3.630   9.436
16004SOL     OW49850   1.435   6.644  14.316
16004SOL    HW149851   1.347   6.621  14.343
16004SOL    HW249852   1.423   6.707  14.246
16005SOL     OW49853   1.899  11.592   3.294
16005SOL    HW149854   1.929  11.548   3.215
16005SOL    HW249855   1.871  11.521   3.352
16006SOL     OW49856  10.663  12.778   2.666
16006SOL    HW149857  10.636  12.687   2.674
16006SOL    HW249858  10.583  12.828   2.683
16007SOL     OW49859   1.956   7.019  14.080
16007SOL    HW149860   1.937   7.050  13.991
16007SOL    HW249861   1.870   7.014  14.122
16008SOL     OW49862   1.551   4.327  10.586
16008SOL    HW149863   1.479   4.264  10.581
16008SOL    HW249864   1.592   4.324  10.500
16009SOL     OW49865   7.225   4.261   5.811
16009SOL    HW149866   7.273   4.337   5.843
16009SOL    HW249867   7.152   4.251   5.871
16010SOL     OW49868   5.079  10.395   9.617
16010SOL    HW149869   5.125  10.459   9.671
16010SOL    HW249870   5.107  10.310   9.651
16011SOL     OW49871   6.307  13.392   2.224
16011SOL    HW149872   6.368  13.355   2.161
16011SOL    HW249873   6.357  13.400   2.305
16012SOL     OW49874   0.937   1.078  14.264
16012SOL    HW149875   0.932   1.157  14.319
16012SOL    HW249876   0.956   1.111  14.176
16013SOL     OW49877   9.857   4.191   2.728
16013SOL    HW149878   9.889   4.277   2.702
16013SOL    HW249879   9.777   4.179   2.678
16014SOL     OW49880   6.053   0.373  11.860
16014SOL    HW149881   6.026   0.354  11.770
16014SOL    HW249882   6.146   0.396  11.853
16015SOL     OW49883   8.536   2.585  12.882
16015SOL    HW149884   8.564   2.564  12.793
16015SOL    HW249885   8.488   2.508  12.912
16016SOL     OW49886  14.330  12.200  13.136
16016SOL    HW149887  14.416  12.183  13.174
16016SOL    HW249888  14.344  12.272  13.075
16017SOL     OW49889   4.852   2.304   7.648
16017SOL    HW149890   4.889   2.244   7.583
16017SOL    HW249891   4.831   2.249   7.723
16018SOL     OW49892  11.419   6.801   9.383
16018SOL    HW149893  11.492   6.743   9.362
16018SOL    HW249894  11.418   6.864   9.310
16019SOL     OW49895   5.426  12.773   8.711
16019SOL    HW149896   5.429  12.856   8.758
16019SOL    HW249897   5.464  12.709   8.771
16020SOL     OW49898   9.913   3.815   8.790
16020SOL    HW149899   9.864   3.896   8.801
16020SOL    HW249900   9.921   3.780   8.879
16021SOL     OW49901  12.697   8.414   2.208
16021SOL    HW149902  12.651   8.345   2.256
16021SOL    HW249903  12.785   8.379   2.195
16022SOL     OW49904  10.600   9.955   3.447
16022SOL    HW149905  10.547  10.020   3.493
16022SOL    HW249906  10.667   9.929   3.510
16023SOL     OW49907   3.111   7.844   1.868
16023SOL    HW149908   3.118   7.749   1.860
16023SOL    HW249909   3.090   7.874   1.779
16024SOL     OW49910   2.836   8.500  11.212
16024SOL    HW149911   2.742   8.500  11.192
16024SOL    HW249912   2.878   8.487  11.127
16025SOL     OW49913   5.871  13.234  10.078
16025SOL    HW149914   5.884  13.286  10.156
16025SOL    HW249915   5.937  13.266  10.016
16026SOL     OW49916  10.266   1.779  11.728
16026SOL    HW149917  10.314   1.748  11.651
16026SOL    HW249918  10.268   1.705  11.789
16027SOL     OW49919  11.663   3.798   9.834
16027SOL    HW149920  11.728   3.823   9.769
16027SOL    HW249921  11.579   3.821   9.794
16028SOL     OW49922  11.387  13.188   3.524
16028SOL    HW149923  11.308  13.219   3.568
16028SOL    HW249924  11.405  13.255   3.457
16029SOL     OW49925   5.389   4.762  10.929
16029SOL    HW149926   5.362   4.840  10.977
16029SOL    HW249927   5.468   4.733  10.975
16030SOL     OW49928  10.340   6.356   4.315
16030SOL    HW149929  10.332   6.311   4.231
16030SOL    HW249930  10.296   6.440   4.302
16031SOL     OW49931   2.224   6.441   7.485
16031SOL    HW149932   2.302   6.467   7.436
16031SOL    HW249933   2.213   6.510   7.551
16032SOL     OW49934  10.083   8.563  10.065
16032SOL    HW149935  10.115   8.530   9.981
16032SOL    HW249936  10.014   8.626  10.041
16033SOL     OW49937   8.387   4.742   0.987
16033SOL    HW149938   8.425   4.829   1.000
16033SOL    HW249939   8.382   4.732   0.892
16034SOL     OW49940   8.818   2.563   3.716
16034SOL    HW149941   8.809   2.613   3.635
16034SOL    HW249942   8.816   2.630   3.785
16035SOL     OW49943  11.358   3.359  13.742
16035SOL    HW149944  11.303   3.370  13.664
16035SOL    HW249945  11.298   3.372  13.815
16036SOL     OW49946  14.513  14.607  10.953
16036SOL    HW149947  14.540  14.661  11.027
16036SOL    HW249948  14.585  14.614  10.890
16037SOL     OW49949   3.412  11.127  10.121
16037SOL    HW149950   3.398  11.207  10.171
16037SOL    HW249951   3.501  11.100  10.143
16038SOL     OW49952   3.861   4.663   2.142
16038SOL    HW149953   3.785   4.611   2.116
16038SOL    HW249954   3.905   4.609   2.208
16039SOL     OW49955  14.129   8.881   6.676
16039SOL    HW149956  14.128   8.921   6.763
16039SOL    HW249957  14.208   8.916   6.634
16040SOL     OW49958   2.555   9.346   4.989
16040SOL    HW149959   2.594   9.390   4.913
16040SOL    HW249960   2.627   9.339   5.052
16041SOL     OW49961   4.901   5.041   4.025
16041SOL    HW149962   4.855   5.063   3.944
16041SOL    HW249963   4.993   5.063   4.007
16042SOL     OW49964   8.711   7.177  11.365
16042SOL    HW149965   8.624   7.151  11.336
16042SOL    HW249966   8.762   7.185  11.285
16043SOL     OW49967  12.645   5.629  12.095
16043SOL    HW149968  12.654   5.718  12.064
16043SOL    HW249969  12.554   5.605  12.075
16044SOL     OW49970   8.297   1.430   2.819
16044SOL    HW149971   8.219   1.377   2.838
16044SOL    HW249972   8.315   1.412   2.726
16045SOL     OW49973   1.680  10.748   7.258
16045SOL    HW149974   1.644  10.758   7.346
16045SOL    HW249975   1.611  10.778   7.199
16046SOL     OW49976   6.348   3.223   1.924
16046SOL    HW149977   6.261   3.240   1.961
16046SOL    HW249978   6.331   3.203   1.832
16047SOL     OW49979  13.222  12.249  10.312
16047SOL    HW149980  13.153  12.312  10.292
16047SOL    HW249981  13.289  12.300  10.358
16048SOL     OW49982  11.441   6.225   6.175
16048SOL    HW149983  11.492   6.208   6.255
16048SOL    HW249984  11.455   6.318   6.157
16049SOL     OW49985   8.456   8.418  14.181
16049SOL    HW149986   8.403   8.457  14.111
16049SOL    HW249987   8.546   8.443  14.161
16050SOL     OW49988  11.803  13.166   4.323
16050SOL    HW149989  11.865  13.204   4.260
16050SOL    HW249990  11.718  13.202   4.297
16051SOL     OW49991  14.126   9.769  11.360
16051SOL    HW149992  14.190   9.776  11.289
16051SOL    HW249993  14.126   9.855  11.401
16052SOL     OW49994   7.856  11.842   1.491
16052SOL    HW149995   7.859  11.870   1.400
16052SOL    HW249996   7.823  11.919   1.538
16053SOL     OW49997  11.474  14.284   5.595
16053SOL    HW149998  11.558  14.287   5.550
16053SOL    HW249999  11.441  14.196   5.578
16054SOL     OW50000   8.731  13.733   6.543
16054SOL    HW150001   8.659  13.747   6.604
16054SOL    HW250002   8.798  13.688   6.594
16055SOL     OW50003   3.695   5.718  14.870
16055SOL    HW150004   3.669   5.752  14.785
16055SOL    HW250005   3.749   5.787   0.035
16056SOL     OW50006  14.150  13.776  14.854
16056SOL    HW150007  14.127  13.860   0.020
16056SOL    HW250008  14.138  13.712   0.052
16057SOL     OW50009   8.181   3.306   7.281
16057SOL    HW150010   8.108   3.335   7.226
16057SOL    HW250011   8.157   3.333   7.369
16058SOL     OW50012   1.833   8.734   2.671
16058SOL    HW150013   1.902   8.788   2.710
16058SOL    HW250014   1.769   8.798   2.639
16059SOL     OW50015   6.086   9.182  13.684
16059SOL    HW150016   6.176   9.209  13.669
16059SOL    HW250017   6.033   9.244  13.634
16060SOL     OW50018   7.240   5.501   6.565
16060SOL    HW150019   7.309   5.439   6.585
16060SOL    HW250020   7.182   5.455   6.505
16061SOL     OW50021   5.091  14.716  10.011
16061SOL    HW150022   5.134  14.733  10.094
16061SOL    HW250023   5.118  14.628   9.986
16062SOL     OW50024  12.812   1.443   5.641
16062SOL    HW150025  12.759   1.522   5.632
16062SOL    HW250026  12.894   1.463   5.596
16063SOL     OW50027  12.150   1.792   2.843
16063SOL    HW150028  12.155   1.772   2.936
16063SOL    HW250029  12.152   1.707   2.800
16064SOL     OW50030  13.054   6.349  11.887
16064SOL    HW150031  13.054   6.291  11.963
16064SOL    HW250032  13.029   6.435  11.923
16065SOL     OW50033  11.540  10.111   5.419
16065SOL    HW150034  11.579  10.054   5.353
16065SOL    HW250035  11.473  10.161   5.371
16066SOL     OW50036   5.613  13.460   8.790
16066SOL    HW150037   5.695  13.492   8.752
16066SOL    HW250038   5.577  13.535   8.837
16067SOL     OW50039  12.066   3.121   3.224
16067SOL    HW150040  12.093   3.208   3.253
16067SOL    HW250041  12.120   3.102   3.148
16068SOL     OW50042  12.784  12.999   5.728
16068SOL    HW150043  12.719  12.939   5.692
16068SOL    HW250044  12.734  13.062   5.780
16069SOL     OW50045   3.393  12.546   6.688
16069SOL    HW150046   3.301  12.571   6.688
16069SOL    HW250047   3.418  12.544   6.780
16070SOL     OW50048   3.707   0.367   0.202
16070SOL    HW150049   3.701   0.366   0.298
16070SOL    HW250050   3.800   0.376   0.183
16071SOL     OW50051  14.330   5.877   1.523
16071SOL    HW150052  14.305   5.875   1.431
16071SOL    HW250053  14.424   5.859   1.523
16072SOL     OW50054   1.450   4.433  11.542
16072SOL    HW150055   1.413   4.509  11.497
16072SOL    HW250056   1.544   4.442  11.530
16073SOL     OW50057   3.970  13.069  13.287
16073SOL    HW150058   3.901  13.002  13.291
16073SOL    HW250059   3.932  13.139  13.234
16074SOL     OW50060   5.303  14.318   5.171
16074SOL    HW150061   5.367  14.265   5.218
16074SOL    HW250062   5.326  14.306   5.079
16075SOL     OW50063  10.504   7.569   0.030
16075SOL    HW150064  10.586   7.575  14.855
16075SOL    HW250065  10.501   7.480   0.064
16076SOL     OW50066  11.432  14.269   6.304
16076SOL    HW150067  11.385  14.260   6.387
16076SOL    HW250068  11.507  14.210   6.311
16077SOL     OW50069   1.070   1.293   4.946
16077SOL    HW150070   1.103   1.355   5.011
16077SOL    HW250071   1.020   1.229   4.997
16078SOL     OW50072  10.080   6.540   9.170
16078SOL    HW150073  10.144   6.472   9.190
16078SOL    HW250074  10.018   6.498   9.111
16079SOL     OW50075  10.248   9.665   1.044
16079SOL    HW150076  10.338   9.678   1.014
16079SOL    HW250077  10.198   9.734   1.000
16080SOL     OW50078   1.829   6.853  14.523
16080SOL    HW150079   1.753   6.853  14.464
16080SOL    HW250080   1.803   6.797  14.596
16081SOL     OW50081   8.676   4.048  12.379
16081SOL    HW150082   8.709   4.070  12.466
16081SOL    HW250083   8.753   4.016  12.332
16082SOL     OW50084  14.119   1.038  14.156
16082SOL    HW150085  14.127   1.019  14.250
16082SOL    HW250086  14.189   0.988  14.115
16083SOL     OW50087   0.165   9.101  14.084
16083SOL    HW150088   0.197   9.189  14.067
16083SOL    HW250089   0.201   9.077  14.169
16084SOL     OW50090   2.652  11.349   6.652
16084SOL    HW150091   2.620  11.261   6.670
16084SOL    HW250092   2.667  11.387   6.739
16085SOL     OW50093   9.850   3.422   8.980
16085SOL    HW150094   9.756   3.424   8.958
16085SOL    HW250095   9.862   3.337   9.023
16086SOL     OW50096   9.605  14.409   2.346
16086SOL    HW150097   9.624  14.316   2.336
16086SOL    HW250098   9.571  14.417   2.435
16087SOL     OW50099   0.816   6.192  13.417
16087SOL    HW150100   0.793   6.277  13.455
16087SOL    HW250101   0.763   6.129  13.465
16088SOL     OW50102  12.271   8.689   6.172
16088SOL    HW150103  12.300   8.618   6.115
16088SOL    HW250104  12.267   8.766   6.115
16089SOL     OW50105   5.484   7.773   1.537
16089SOL    HW150106   5.508   7.721   1.460
16089SOL    HW250107   5.437   7.848   1.500
16090SOL     OW50108   6.073   7.717   2.627
16090SOL    HW150109   6.049   7.660   2.554
16090SOL    HW250110   6.162   7.692   2.649
16091SOL     OW50111  12.181  10.931   3.634
16091SOL    HW150112  12.224  10.865   3.580
16091SOL    HW250113  12.155  10.999   3.572
16092SOL     OW50114  12.148   3.626   1.238
16092SOL    HW150115  12.149   3.573   1.318
16092SOL    HW250116  12.061   3.665   1.235
16093SOL     OW50117   3.987   2.495   1.140
16093SOL    HW150118   3.971   2.535   1.055
16093SOL    HW250119   3.948   2.556   1.203
16094SOL     OW50120   8.841  10.718  14.106
16094SOL    HW150121   8.906  10.774  14.150
16094SOL    HW250122   8.876  10.704  14.018
16095SOL     OW50123  14.733   5.796   1.778
16095SOL    HW150124  14.680   5.759   1.708
16095SOL    HW250125  14.700   5.886   1.788
16096SOL     OW50126   7.468  13.902   0.504
16096SOL    HW150127   7.485  13.923   0.595
16096SOL    HW250128   7.398  13.961   0.477
16097SOL     OW50129   5.697   5.480   7.349
16097SOL    HW150130   5.635   5.507   7.282
16097SOL    HW250131   5.649   5.489   7.431
16098SOL     OW50132   9.263   1.291  14.665
16098SOL    HW150133   9.270   1.293  14.760
16098SOL    HW250134   9.169   1.300  14.647
16099SOL     OW50135   8.603   5.132   1.435
16099SOL    HW150136   8.664   5.117   1.363
16099SOL    HW250137   8.533   5.185   1.397
16100SOL     OW50138   4.025  10.594  12.717
16100SOL    HW150139   3.932  10.595  12.694
16100SOL    HW250140   4.067  10.643  12.646
16101SOL     OW50141   3.525  12.747  12.501
16101SOL    HW150142   3.546  12.829  12.457
16101SOL    HW250143   3.536  12.765  12.594
16102SOL     OW50144   1.600   5.209   1.827
16102SOL    HW150145   1.514   5.175   1.852
16102SOL    HW250146   1.632   5.252   1.907
16103SOL     OW50147   4.118  13.405   2.748
16103SOL    HW150148   4.033  13.444   2.770
16103SOL    HW250149   4.140  13.351   2.824
16104SOL     OW50150   8.634   1.927  10.847
16104SOL    HW150151   8.553   1.877  10.841
16104SOL    HW250152   8.615   1.996  10.910
16105SOL     OW50153  12.388  10.164   6.052
16105SOL    HW150154  12.454  10.187   6.118
16105SOL    HW250155  12.313  10.220   6.073
16106SOL     OW50156  10.389   0.180  10.563
16106SOL    HW150157  10.386   0.154  10.656
16106SOL    HW250158  10.476   0.216  10.551
16107SOL     OW50159  11.644  12.764  10.176
16107SOL    HW150160  11.588  12.750  10.100
16107SOL    HW250161  11.732  12.775  10.139
16108SOL     OW50162   6.904   6.994  14.664
16108SOL    HW150163   6.910   6.997  14.569
16108SOL    HW250164   6.963   7.064  14.694
16109SOL     OW50165   1.700  13.657   9.406
16109SOL    HW150166   1.722  13.750   9.418
16109SOL    HW250167   1.781  13.618   9.373
16110SOL     OW50168   3.547  14.396   6.947
16110SOL    HW150169   3.554  14.347   7.029
16110SOL    HW250170   3.590  14.341   6.882
16111SOL     OW50171   2.876   1.710   4.955
16111SOL    HW150172   2.868   1.649   5.028
16111SOL    HW250173   2.906   1.656   4.882
16112SOL     OW50174   7.265   5.866  13.164
16112SOL    HW150175   7.334   5.821  13.212
16112SOL    HW250176   7.256   5.951  13.209
16113SOL     OW50177   8.340   4.916   3.835
16113SOL    HW150178   8.378   4.843   3.884
16113SOL    HW250179   8.286   4.962   3.898
16114SOL     OW50180  12.692   9.729  12.625
16114SOL    HW150181  12.724   9.819  12.638
16114SOL    HW250182  12.597   9.738  12.620
16115SOL     OW50183  10.563   0.428   2.893
16115SOL    HW150184  10.470   0.418   2.914
16115SOL    HW250185  10.572   0.388   2.806
16116SOL     OW50186   6.639   9.161   7.673
16116SOL    HW150187   6.724   9.201   7.657
16116SOL    HW250188   6.660   9.072   7.703
16117SOL     OW50189   1.039   8.554   4.584
16117SOL    HW150190   1.065   8.606   4.508
16117SOL    HW250191   0.966   8.500   4.553
16118SOL     OW50192  12.305  13.134   6.522
16118SOL    HW150193  12.316  13.077   6.446
16118SOL    HW250194  12.212  13.125   6.546
16119SOL     OW50195  11.423   6.315   3.719
16119SOL    HW150196  11.368   6.385   3.755
16119SOL    HW250197  11.512   6.349   3.726
16120SOL     OW50198   8.474   6.183   9.796
16120SOL    HW150199   8.427   6.153   9.718
16120SOL    HW250200   8.432   6.266   9.819
16121SOL     OW50201   7.241   8.145   2.108
16121SOL    HW150202   7.293   8.214   2.067
16121SOL    HW250203   7.293   8.066   2.097
16122SOL     OW50204   8.336   6.949   1.022
16122SOL    HW150205   8.250   6.932   0.984
16122SOL    HW250206   8.334   7.042   1.045
16123SOL     OW50207   2.746   5.593   8.776
16123SOL    HW150208   2.772   5.595   8.868
16123SOL    HW250209   2.657   5.628   8.775
16124SOL     OW50210   4.444   4.425  10.229
16124SOL    HW150211   4.515   4.489  10.237
16124SOL    HW250212   4.399   4.448  10.148
16125SOL     OW50213   9.777  12.300   4.469
16125SOL    HW150214   9.688  12.308   4.434
16125SOL    HW250215   9.791  12.382   4.517
16126SOL     OW50216   6.820  11.303   6.433
16126SOL    HW150217   6.744  11.353   6.462
16126SOL    HW250218   6.848  11.346   6.352
16127SOL     OW50219  10.125   9.846   7.607
16127SOL    HW150220  10.202   9.873   7.658
16127SOL    HW250221  10.150   9.761   7.570
16128SOL     OW50222   1.962  14.272   2.514
16128SOL    HW150223   1.932  14.223   2.437
16128SOL    HW250224   1.963  14.363   2.486
16129SOL     OW50225   3.626   8.868   8.608
16129SOL    HW150226   3.694   8.837   8.548
16129SOL    HW250227   3.544   8.843   8.565
16130SOL     OW50228   4.320   7.269  10.368
16130SOL    HW150229   4.298   7.360  10.389
16130SOL    HW250230   4.240   7.220  10.385
16131SOL     OW50231  11.076   5.284   8.892
16131SOL    HW150232  11.082   5.204   8.944
16131SOL    HW250233  11.161   5.290   8.849
16132SOL     OW50234   0.075   2.679   4.232
16132SOL    HW150235   0.046   2.599   4.188
16132SOL    HW250236   0.171   2.670   4.236
16133SOL     OW50237   9.723   9.056   9.860
16133SOL    HW150238   9.814   9.066   9.835
16133SOL    HW250239   9.705   8.963   9.848
16134SOL     OW50240   2.818  14.448   9.479
16134SOL    HW150241   2.822  14.375   9.418
16134SOL    HW250242   2.778  14.519   9.429
16135SOL     OW50243   6.457   5.537   8.378
16135SOL    HW150244   6.373   5.518   8.337
16135SOL    HW250245   6.438   5.605   8.443
16136SOL     OW50246   4.946   2.832  10.342
16136SOL    HW150247   4.990   2.876  10.414
16136SOL    HW250248   4.857   2.868  10.342
16137SOL     OW50249   8.735   1.870  12.697
16137SOL    HW150250   8.655   1.879  12.644
16137SOL    HW250251   8.806   1.867  12.633
16138SOL     OW50252   4.656  14.706   5.748
16138SOL    HW150253   4.665  14.623   5.701
16138SOL    HW250254   4.629  14.769   5.680
16139SOL     OW50255  10.279   0.042  14.856
16139SOL    HW150256  10.286   0.132  14.824
16139SOL    HW250257  10.234   0.050   0.067
16140SOL     OW50258   1.754   5.942   8.181
16140SOL    HW150259   1.833   5.930   8.234
16140SOL    HW250260   1.694   5.990   8.238
16141SOL     OW50261   8.702   0.982   5.494
16141SOL    HW150262   8.716   0.921   5.566
16141SOL    HW250263   8.657   0.931   5.427
16142SOL     OW50264  10.960   3.479   6.606
16142SOL    HW150265  10.874   3.522   6.600
16142SOL    HW250266  10.999   3.515   6.686
16143SOL     OW50267  12.857   4.954   2.169
16143SOL    HW150268  12.930   4.999   2.210
16143SOL    HW250269  12.896   4.910   2.093
16144SOL     OW50270  10.647  10.584  12.178
16144SOL    HW150271  10.687  10.579  12.091
16144SOL    HW250272  10.606  10.498  12.190
16145SOL     OW50273   9.581  11.455   9.463
16145SOL    HW150274   9.532  11.382   9.502
16145SOL    HW250275   9.635  11.489   9.534
16146SOL     OW50276  11.148   6.585  10.802
16146SOL    HW150277  11.212   6.655  10.789
16146SOL    HW250278  11.077   6.605  10.741
16147SOL     OW50279   8.556   3.124  11.716
16147SOL    HW150280   8.488   3.078  11.765
16147SOL    HW250281   8.520   3.211  11.700
16148SOL     OW50282   6.889   2.615   0.890
16148SOL    HW150283   6.897   2.669   0.969
16148SOL    HW250284   6.907   2.676   0.818
16149SOL     OW50285   3.564   6.237  10.234
16149SOL    HW150286   3.656   6.265  10.239
16149SOL    HW250287   3.514   6.314  10.259
16150SOL     OW50288  10.594   1.329   4.309
16150SOL    HW150289  10.616   1.408   4.259
16150SOL    HW250290  10.520   1.356   4.364
16151SOL     OW50291  12.014   2.783  14.278
16151SOL    HW150292  12.094   2.815  14.237
16151SOL    HW250293  12.044   2.732  14.353
16152SOL     OW50294   1.887   2.876   4.556
16152SOL    HW150295   1.927   2.889   4.642
16152SOL    HW250296   1.902   2.958   4.509
16153SOL     OW50297   9.601  12.778   2.909
16153SOL    HW150298   9.602  12.873   2.925
16153SOL    HW250299   9.662  12.743   2.973
16154SOL     OW50300  11.432   1.233   1.552
16154SOL    HW150301  11.518   1.266   1.528
16154SOL    HW250302  11.408   1.174   1.481
16155SOL     OW50303  11.880  11.677  10.528
16155SOL    HW150304  11.811  11.691  10.463
16155SOL    HW250305  11.936  11.754  10.520
16156SOL     OW50306   7.946  14.238   8.385
16156SOL    HW150307   7.989  14.293   8.450
16156SOL    HW250308   7.920  14.159   8.433
16157SOL     OW50309   3.372   5.420   4.751
16157SOL    HW150310   3.298   5.360   4.755
16157SOL    HW250311   3.438   5.382   4.809
16158SOL     OW50312   6.704   5.242  13.251
16158SOL    HW150313   6.649   5.320  13.261
16158SOL    HW250314   6.694   5.195  13.335
16159SOL     OW50315  12.337   9.814   8.786
16159SOL    HW150316  12.333   9.871   8.862
16159SOL    HW250317  12.343   9.726   8.822
16160SOL     OW50318   2.323   2.174  14.228
16160SOL    HW150319   2.331   2.106  14.296
16160SOL    HW250320   2.305   2.254  14.277
16161SOL     OW50321  11.044   6.254  13.027
16161SOL    HW150322  11.079   6.293  13.107
16161SOL    HW250323  11.099   6.288  12.957
16162SOL     OW50324  11.501   2.751   1.342
16162SOL    HW150325  11.496   2.813   1.269
16162SOL    HW250326  11.558   2.794   1.406
16163SOL     OW50327  14.727   0.429  13.364
16163SOL    HW150328  14.636   0.457  13.351
16163SOL    HW250329  14.726   0.336  13.344
16164SOL     OW50330  12.175  14.129   9.145
16164SOL    HW150331  12.176  14.132   9.049
16164SOL    HW250332  12.267  14.117   9.169
16165SOL     OW50333   5.312  11.247   9.181
16165SOL    HW150334   5.356  11.197   9.250
16165SOL    HW250335   5.240  11.291   9.226
16166SOL     OW50336   0.511   0.292   7.853
16166SOL    HW150337   0.514   0.385   7.876
16166SOL    HW250338   0.437   0.258   7.903
16167SOL     OW50339   6.003   1.630   5.179
16167SOL    HW150340   5.989   1.716   5.140
16167SOL    HW250341   5.956   1.570   5.121
16168SOL     OW50342   4.283  13.254   1.972
16168SOL    HW150343   4.296  13.237   2.065
16168SOL    HW250344   4.189  13.270   1.963
16169SOL     OW50345  14.647   5.160   4.429
16169SOL    HW150346  14.647   5.197   4.518
16169SOL    HW250347  14.576   5.206   4.384
16170SOL     OW50348   5.572   1.130   6.911
16170SOL    HW150349   5.509   1.187   6.867
16170SOL    HW250350   5.605   1.183   6.984
16171SOL     OW50351   5.032   2.612  13.022
16171SOL    HW150352   5.051   2.594  13.114
16171SOL    HW250353   4.973   2.687  13.024
16172SOL     OW50354   5.451  10.359   5.090
16172SOL    HW150355   5.395  10.435   5.076
16172SOL    HW250356   5.395  10.295   5.133
16173SOL     OW50357   4.175   9.707   9.692
16173SOL    HW150358   4.173   9.728   9.785
16173SOL    HW250359   4.221   9.623   9.687
16174SOL     OW50360   9.823   9.459   3.090
16174SOL    HW150361   9.806   9.372   3.127
16174SOL    HW250362   9.908   9.450   3.046
16175SOL     OW50363   8.757   8.248   1.194
16175SOL    HW150364   8.777   8.157   1.216
16175SOL    HW250365   8.720   8.244   1.106
16176SOL     OW50366   2.747  13.393   3.420
16176SOL    HW150367   2.750  13.487   3.398
16176SOL    HW250368   2.702  13.353   3.346
16177SOL     OW50369   9.796   5.547  13.268
16177SOL    HW150370   9.703   5.558  13.247
16177SOL    HW250371   9.811   5.453  13.256
16178SOL     OW50372   1.020  10.001   8.063
16178SOL    HW150373   1.002   9.959   8.147
16178SOL    HW250374   0.964  10.079   8.063
16179SOL     OW50375   8.767  12.047   7.304
16179SOL    HW150376   8.729  11.983   7.364
16179SOL    HW250377   8.730  12.131   7.332
16180SOL     OW50378   5.403   4.836   6.141
16180SOL    HW150379   5.459   4.803   6.211
16180SOL    HW250380   5.439   4.921   6.119
16181SOL     OW50381   6.494   6.048  14.543
16181SOL    HW150382   6.562   6.115  14.550
16181SOL    HW250383   6.462   6.037  14.633
16182SOL     OW50384   5.911   6.623   7.310
16182SOL    HW150385   5.950   6.553   7.363
16182SOL    HW250386   5.901   6.584   7.223
16183SOL     OW50387   2.457   5.301  13.137
16183SOL    HW150388   2.477   5.389  13.168
16183SOL    HW250389   2.535   5.274  13.089
16184SOL     OW50390  10.326  11.256  12.044
16184SOL    HW150391  10.246  11.308  12.046
16184SOL    HW250392  10.348  11.248  11.951
16185SOL     OW50393   6.314   8.635   4.676
16185SOL    HW150394   6.347   8.609   4.590
16185SOL    HW250395   6.387   8.682   4.717
16186SOL     OW50396   9.962   7.536  12.725
16186SOL    HW150397  10.045   7.492  12.704
16186SOL    HW250398   9.930   7.491  12.803
16187SOL     OW50399   7.821   1.750   0.534
16187SOL    HW150400   7.885   1.746   0.606
16187SOL    HW250401   7.757   1.682   0.555
16188SOL     OW50402   6.938  10.937   2.788
16188SOL    HW150403   6.937  10.844   2.767
16188SOL    HW250404   7.007  10.945   2.855
16189SOL     OW50405  12.009   0.421  12.893
16189SOL    HW150406  12.052   0.337  12.912
16189SOL    HW250407  12.068   0.487  12.928
16190SOL     OW50408  14.834   3.857   7.134
16190SOL    HW150409   0.019   3.898   7.198
16190SOL    HW250410   0.008   3.866   7.051
16191SOL     OW50411   0.092   5.439  13.887
16191SOL    HW150412   0.107   5.378  13.815
16191SOL    HW250413   0.176   5.444  13.933
16192SOL     OW50414  14.336  13.513   9.510
16192SOL    HW150415  14.413  13.526   9.565
16192SOL    HW250416  14.320  13.598   9.470
16193SOL     OW50417   4.259   7.053   9.041
16193SOL    HW150418   4.331   7.038   8.980
16193SOL    HW250419   4.292   7.020   9.125
16194SOL     OW50420   5.826  11.931  13.957
16194SOL    HW150421   5.841  11.947  13.864
16194SOL    HW250422   5.907  11.957  14.000
16195SOL     OW50423  13.167  11.109   6.630
16195SOL    HW150424  13.086  11.158   6.615
16195SOL    HW250425  13.217  11.120   6.549
16196SOL     OW50426  12.327   1.799   6.912
16196SOL    HW150427  12.279   1.872   6.951
16196SOL    HW250428  12.296   1.722   6.960
16197SOL     OW50429   0.126  10.899   7.014
16197SOL    HW150430   0.189  10.895   7.086
16197SOL    HW250431   0.169  10.953   6.948
16198SOL     OW50432   4.074   1.075  10.550
16198SOL    HW150433   4.036   1.048  10.466
16198SOL    HW250434   4.087   1.169  10.542
16199SOL     OW50435   5.085  12.098   3.273
16199SOL    HW150436   5.051  12.091   3.362
16199SOL    HW250437   5.109  12.190   3.264
16200SOL     OW50438   6.318   3.294  13.329
16200SOL    HW150439   6.406   3.274  13.296
16200SOL    HW250440   6.323   3.387  13.353
16201SOL     OW50441   2.168   2.485  10.715
16201SOL    HW150442   2.076   2.461  10.714
16201SOL    HW250443   2.177   2.550  10.645
16202SOL     OW50444  11.885   4.698  14.150
16202SOL    HW150445  11.947   4.666  14.216
16202SOL    HW250446  11.825   4.626  14.137
16203SOL     OW50447  14.395   3.100   4.355
16203SOL    HW150448  14.473   3.096   4.300
16203SOL    HW250449  14.419   3.159   4.427
16204SOL     OW50450  11.687   5.812   0.214
16204SOL    HW150451  11.654   5.849   0.296
16204SOL    HW250452  11.780   5.834   0.214
16205SOL     OW50453   1.813   1.855   9.734
16205SOL    HW150454   1.874   1.859   9.661
16205SOL    HW250455   1.825   1.938   9.780
16206SOL     OW50456   7.189   6.876   3.249
16206SOL    HW150457   7.184   6.892   3.155
16206SOL    HW250458   7.115   6.926   3.286
16207SOL     OW50459  14.812   6.594   3.907
16207SOL    HW150460  14.849   6.606   3.995
16207SOL    HW250461  14.858   6.658   3.853
16208SOL     OW50462   7.944  14.606   1.834
16208SOL    HW150463   7.883  14.567   1.897
16208SOL    HW250464   7.985  14.677   1.882
16209SOL     OW50465  10.316   4.002   7.885
16209SOL    HW150466  10.252   3.937   7.914
16209SOL    HW250467  10.305   4.075   7.946
16210SOL     OW50468   1.590  13.442   2.769
16210SOL    HW150469   1.643  13.433   2.848
16210SOL    HW250470   1.653  13.456   2.699
16211SOL     OW50471   2.265   9.639  13.012
16211SOL    HW150472   2.274   9.572  13.080
16211SOL    HW250473   2.198   9.605  12.953
16212SOL     OW50474   9.715   2.200  13.005
16212SOL    HW150475   9.630   2.156  12.999
16212SOL    HW250476   9.738   2.220  12.914
16213SOL     OW50477  12.482   0.371   0.938
16213SOL    HW150478  12.546   0.300   0.937
16213SOL    HW250479  12.518   0.435   0.999
16214SOL     OW50480   3.826   0.695  11.878
16214SOL    HW150481   3.880   0.617  11.891
16214SOL    HW250482   3.808   0.696  11.784
16215SOL     OW50483   4.630  12.023   5.809
16215SOL    HW150484   4.710  12.061   5.845
16215SOL    HW250485   4.563  12.040   5.874
16216SOL     OW50486  10.025   5.763   7.758
16216SOL    HW150487  10.078   5.684   7.770
16216SOL    HW250488   9.938   5.731   7.734
16217SOL     OW50489  12.343   0.106  10.426
16217SOL    HW150490  12.299   0.084  10.344
16217SOL    HW250491  12.424   0.148  10.398
16218SOL     OW50492   9.850   0.444  13.270
16218SOL    HW150493   9.771   0.498  13.272
16218SOL    HW250494   9.891   0.458  13.355
16219SOL     OW50495  12.189  11.872   4.491
16219SOL    HW150496  12.198  11.892   4.398
16219SOL    HW250497  12.249  11.799   4.506
16220SOL     OW50498   3.649   6.931   7.415
16220SOL    HW150499   3.703   7.010   7.411
16220SOL    HW250500   3.598   6.941   7.495
16221SOL     OW50501   9.554  14.006   7.594
16221SOL    HW150502   9.556  13.912   7.578
16221SOL    HW250503   9.596  14.044   7.517
16222SOL     OW50504   8.319   7.688   0.464
16222SOL    HW150505   8.226   7.698   0.485
16222SOL    HW250506   8.324   7.703   0.370
16223SOL     OW50507   3.909  10.349   8.260
16223SOL    HW150508   3.881  10.303   8.182
16223SOL    HW250509   3.849  10.320   8.329
16224SOL     OW50510   2.541   8.789   9.442
16224SOL    HW150511   2.446   8.797   9.438
16224SOL    HW250512   2.572   8.879   9.451
16225SOL     OW50513   3.496  14.823   6.602
16225SOL    HW150514   3.413  14.799   6.561
16225SOL    HW250515   3.529  14.742   6.640
16226SOL     OW50516   1.705   2.801   3.142
16226SOL    HW150517   1.726   2.888   3.174
16226SOL    HW250518   1.766   2.743   3.188
16227SOL     OW50519   4.276   8.868   5.499
16227SOL    HW150520   4.310   8.922   5.428
16227SOL    HW250521   4.182   8.862   5.483
16228SOL     OW50522   3.262   7.035  10.782
16228SOL    HW150523   3.320   6.980  10.730
16228SOL    HW250524   3.178   7.034  10.735
16229SOL     OW50525   9.957   3.177  11.089
16229SOL    HW150526   9.878   3.137  11.126
16229SOL    HW250527   9.941   3.178  10.995
16230SOL     OW50528   9.331  11.133   4.515
16230SOL    HW150529   9.241  11.124   4.548
16230SOL    HW250530   9.378  11.175   4.587
16231SOL     OW50531  11.073   0.024   4.347
16231SOL    HW150532  11.158  14.865   4.316
16231SOL    HW250533  11.091   0.060   4.434
16232SOL     OW50534  10.384   9.147   5.604
16232SOL    HW150535  10.478   9.164   5.597
16232SOL    HW250536  10.366   9.154   5.698
16233SOL     OW50537   2.503   2.607   5.453
16233SOL    HW150538   2.525   2.536   5.392
16233SOL    HW250539   2.498   2.685   5.397
16234SOL     OW50540   7.865   4.463   7.766
16234SOL    HW150541   7.846   4.441   7.858
16234SOL    HW250542   7.856   4.380   7.719
16235SOL     OW50543  13.679   3.936  11.079
16235SOL    HW150544  13.746   4.004  11.086
16235SOL    HW250545  13.628   3.960  11.002
16236SOL     OW50546  12.357   5.240   1.934
16236SOL    HW150547  12.321   5.223   1.847
16236SOL    HW250548  12.445   5.202   1.932
16237SOL     OW50549   2.445  11.207   3.425
16237SOL    HW150550   2.353  11.179   3.430
16237SOL    HW250551   2.450  11.258   3.344
16238SOL     OW50552   6.969   9.769   7.274
16238SOL    HW150553   7.032   9.730   7.214
16238SOL    HW250554   6.920   9.832   7.221
16239SOL     OW50555  10.836   5.513   7.819
16239SOL    HW150556  10.752   5.469   7.809
16239SOL    HW250557  10.825   5.569   7.896
16240SOL     OW50558  13.820   4.945   8.621
16240SOL    HW150559  13.745   4.919   8.674
16240SOL    HW250560  13.815   5.041   8.618
16241SOL     OW50561   0.481   2.587  12.709
16241SOL    HW150562   0.465   2.629  12.794
16241SOL    HW250563   0.456   2.654  12.645
16242SOL     OW50564   9.068  11.165   2.295
16242SOL    HW150565   9.124  11.243   2.288
16242SOL    HW250566   9.077  11.137   2.386
16243SOL     OW50567   1.995   6.403   8.878
16243SOL    HW150568   2.027   6.466   8.943
16243SOL    HW250569   1.912   6.372   8.915
16244SOL     OW50570  12.993  10.471   7.387
16244SOL    HW150571  12.900  10.463   7.365
16244SOL    HW250572  13.036  10.404   7.333
16245SOL     OW50573   4.208  10.741  12.542
16245SOL    HW150574   4.215  10.742  12.446
16245SOL    HW250575   4.235  10.828  12.569
16246SOL     OW50576  11.732  12.332  10.153
16246SOL    HW150577  11.732  12.325  10.248
16246SOL    HW250578  11.658  12.389  10.133
16247SOL     OW50579  11.549   5.845  11.017
16247SOL    HW150580  11.513   5.811  11.099
16247SOL    HW250581  11.545   5.940  11.026
16248SOL     OW50582   4.794   5.811   9.560
16248SOL    HW150583   4.868   5.869   9.540
16248SOL    HW250584   4.803   5.793   9.654
16249SOL     OW50585   9.676   3.232   0.416
16249SOL    HW150586   9.654   3.252   0.325
16249SOL    HW250587   9.770   3.215   0.414
16250SOL     OW50588   7.470   1.082   7.269
16250SOL    HW150589   7.450   1.087   7.363
16250SOL    HW250590   7.385   1.096   7.227
16251SOL     OW50591   9.739  12.166  11.682
16251SOL    HW150592   9.765  12.216  11.605
16251SOL    HW250593   9.729  12.231  11.751
16252SOL     OW50594  13.373  12.187   7.079
16252SOL    HW150595  13.294  12.175   7.026
16252SOL    HW250596  13.438  12.129   7.040
16253SOL     OW50597  10.314   7.023   4.239
16253SOL    HW150598  10.291   7.021   4.332
16253SOL    HW250599  10.282   7.109   4.209
16254SOL     OW50600   1.949  13.834  10.489
16254SOL    HW150601   1.879  13.771  10.503
16254SOL    HW250602   1.982  13.814  10.401
16255SOL     OW50603   8.176   5.072   0.563
16255SOL    HW150604   8.091   5.027   0.565
16255SOL    HW250605   8.206   5.070   0.653
16256SOL     OW50606   8.523  13.810   3.846
16256SOL    HW150607   8.446  13.844   3.892
16256SOL    HW250608   8.559  13.886   3.800
16257SOL     OW50609  13.984   2.982  11.732
16257SOL    HW150610  14.021   3.035  11.803
16257SOL    HW250611  14.031   3.011  11.654
16258SOL     OW50612   2.559  12.813   0.345
16258SOL    HW150613   2.530  12.739   0.292
16258SOL    HW250614   2.653  12.801   0.353
16259SOL     OW50615  11.641   3.960   0.832
16259SOL    HW150616  11.651   3.917   0.747
16259SOL    HW250617  11.724   4.006   0.846
16260SOL     OW50618  12.305   3.863   1.830
16260SOL    HW150619  12.291   3.840   1.738
16260SOL    HW250620  12.286   3.783   1.878
16261SOL     OW50621   6.128   6.083   4.127
16261SOL    HW150622   6.099   6.082   4.218
16261SOL    HW250623   6.142   6.175   4.107
16262SOL     OW50624   3.843   9.442   1.374
16262SOL    HW150625   3.772   9.388   1.409
16262SOL    HW250626   3.875   9.491   1.449
16263SOL     OW50627   2.420   5.933   1.349
16263SOL    HW150628   2.513   5.954   1.358
16263SOL    HW250629   2.415   5.839   1.365
16264SOL     OW50630   9.991   5.371  14.737
16264SOL    HW150631   9.962   5.427  14.810
16264SOL    HW250632  10.039   5.430  14.679
16265SOL     OW50633   3.678   5.384   0.564
16265SOL    HW150634   3.651   5.347   0.480
16265SOL    HW250635   3.603   5.369   0.621
16266SOL     OW50636  12.645  13.178  11.391
16266SOL    HW150637  12.706  13.250  11.372
16266SOL    HW250638  12.699  13.110  11.432
16267SOL     OW50639   0.939   7.219   7.966
16267SOL    HW150640   0.980   7.133   7.954
16267SOL    HW250641   0.847   7.200   7.983
16268SOL     OW50642   2.230   3.554  11.753
16268SOL    HW150643   2.324   3.536  11.747
16268SOL    HW250644   2.223   3.648  11.734
16269SOL     OW50645   5.262   1.493  10.308
16269SOL    HW150646   5.193   1.463  10.249
16269SOL    HW250647   5.217   1.511  10.390
16270SOL     OW50648   6.550   5.963   5.466
16270SOL    HW150649   6.579   5.881   5.426
16270SOL    HW250650   6.507   5.936   5.548
16271SOL     OW50651   0.874  14.223  10.301
16271SOL    HW150652   0.915  14.293  10.252
16271SOL    HW250653   0.785  14.218  10.265
16272SOL     OW50654  10.801   3.226   2.464
16272SOL    HW150655  10.833   3.166   2.397
16272SOL    HW250656  10.874   3.234   2.526
16273SOL     OW50657   1.721  13.610   4.084
16273SOL    HW150658   1.638  13.571   4.056
16273SOL    HW250659   1.728  13.691   4.034
16274SOL     OW50660   6.295   0.787   7.668
16274SOL    HW150661   6.386   0.801   7.694
16274SOL    HW250662   6.298   0.713   7.608
16275SOL     OW50663   0.807  11.427   2.343
16275SOL    HW150664   0.843  11.512   2.369
16275SOL    HW250665   0.748  11.447   2.271
16276SOL     OW50666   3.736   3.142   8.419
16276SOL    HW150667   3.708   3.099   8.500
16276SOL    HW250668   3.700   3.088   8.349
16277SOL     OW50669   5.380   3.721   0.648
16277SOL    HW150670   5.329   3.658   0.698
16277SOL    HW250671   5.460   3.674   0.622
16278SOL     OW50672   4.476   3.578  14.383
16278SOL    HW150673   4.441   3.491  14.364
16278SOL    HW250674   4.571   3.565  14.386
16279SOL     OW50675   4.912   8.583   7.335
16279SOL    HW150676   4.850   8.648   7.367
16279SOL    HW250677   4.978   8.576   7.404
16280SOL     OW50678  13.050  12.666  13.941
16280SOL    HW150679  13.145  12.677  13.936
16280SOL    HW250680  13.016  12.715  13.866
16281SOL     OW50681   4.026   3.796  13.559
16281SOL    HW150682   3.979   3.875  13.587
16281SOL    HW250683   4.087   3.779  13.630
16282SOL     OW50684  12.460   9.091   9.241
16282SOL    HW150685  12.476   9.168   9.295
16282SOL    HW250686  12.380   9.053   9.277
16283SOL     OW50687  10.428   4.108   9.941
16283SOL    HW150688  10.463   4.035   9.890
16283SOL    HW250689  10.334   4.094   9.943
16284SOL     OW50690   4.375   3.532   5.186
16284SOL    HW150691   4.334   3.448   5.207
16284SOL    HW250692   4.335   3.594   5.247
16285SOL     OW50693  10.243  10.673   9.848
16285SOL    HW150694  10.334  10.692   9.871
16285SOL    HW250695  10.202  10.649   9.932
16286SOL     OW50696  13.958  13.416   2.580
16286SOL    HW150697  13.926  13.381   2.497
16286SOL    HW250698  13.987  13.338   2.628
16287SOL     OW50699  13.727   1.740   1.840
16287SOL    HW150700  13.800   1.687   1.807
16287SOL    HW250701  13.692   1.784   1.762
16288SOL     OW50702  12.755   5.969   9.216
16288SOL    HW150703  12.691   5.977   9.286
16288SOL    HW250704  12.752   5.877   9.191
16289SOL     OW50705  13.133   9.202   8.541
16289SOL    HW150706  13.116   9.251   8.461
16289SOL    HW250707  13.175   9.122   8.512
16290SOL     OW50708  12.436  12.492   2.204
16290SOL    HW150709  12.404  12.533   2.285
16290SOL    HW250710  12.368  12.428   2.182
16291SOL     OW50711   8.120  14.558   5.848
16291SOL    HW150712   8.163  14.547   5.763
16291SOL    HW250713   8.178  14.513   5.910
16292SOL     OW50714   3.072  11.700   0.057
16292SOL    HW150715   3.034  11.672   0.141
16292SOL    HW250716   3.165  11.716   0.077
16293SOL     OW50717  11.381   5.377  10.475
16293SOL    HW150718  11.383   5.284  10.496
16293SOL    HW250719  11.463   5.412  10.510
16294SOL     OW50720   6.130   3.849   4.023
16294SOL    HW150721   6.180   3.843   3.942
16294SOL    HW250722   6.196   3.857   4.092
16295SOL     OW50723  11.110   4.402   3.300
16295SOL    HW150724  11.096   4.347   3.222
16295SOL    HW250725  11.085   4.345   3.373
16296SOL     OW50726   0.125  11.200   7.613
16296SOL    HW150727   0.139  11.252   7.692
16296SOL    HW250728   0.038  11.225   7.582
16297SOL     OW50729  13.349   3.785  11.377
16297SOL    HW150730  13.374   3.708  11.327
16297SOL    HW250731  13.429   3.839  11.379
16298SOL     OW50732   3.781  11.853   6.547
16298SOL    HW150733   3.784  11.762   6.574
16298SOL    HW250734   3.870  11.885   6.559
16299SOL     OW50735  10.198   3.925   7.298
16299SOL    HW150736  10.221   4.005   7.346
16299SOL    HW250737  10.103   3.916   7.309
16300SOL     OW50738  12.776   9.286  11.941
16300SOL    HW150739  12.706   9.223  11.923
16300SOL    HW250740  12.736   9.350  11.999
16301SOL     OW50741   4.125   5.812  11.283
16301SOL    HW150742   4.138   5.750  11.355
16301SOL    HW250743   4.208   5.858  11.276
16302SOL     OW50744   8.998   3.695   5.789
16302SOL    HW150745   8.955   3.622   5.833
16302SOL    HW250746   9.040   3.656   5.712
16303SOL     OW50747   7.774   7.922   9.900
16303SOL    HW150748   7.859   7.896   9.864
16303SOL    HW250749   7.732   7.968   9.828
16304SOL     OW50750   4.669  13.213  12.719
16304SOL    HW150751   4.723  13.272  12.772
16304SOL    HW250752   4.707  13.126  12.734
16305SOL     OW50753   1.401  12.738  10.466
16305SOL    HW150754   1.473  12.677  10.453
16305SOL    HW250755   1.399  12.790  10.385
16306SOL     OW50756   3.241  14.602  12.863
16306SOL    HW150757   3.251  14.622  12.770
16306SOL    HW250758   3.330  14.582  12.893
16307SOL     OW50759   2.682   9.584   6.413
16307SOL    HW150760   2.651   9.581   6.504
16307SOL    HW250761   2.744   9.657   6.410
16308SOL     OW50762   7.028   6.410   5.751
16308SOL    HW150763   7.083   6.416   5.829
16308SOL    HW250764   6.939   6.427   5.783
16309SOL     OW50765   6.810   8.549   4.586
16309SOL    HW150766   6.806   8.567   4.680
16309SOL    HW250767   6.720   8.526   4.563
16310SOL     OW50768  12.543   9.431  11.269
16310SOL    HW150769  12.516   9.501  11.208
16310SOL    HW250770  12.588   9.367  11.214
16311SOL     OW50771   6.459   3.727   5.865
16311SOL    HW150772   6.448   3.633   5.878
16311SOL    HW250773   6.419   3.767   5.943
16312SOL     OW50774   4.571   9.343  12.285
16312SOL    HW150775   4.551   9.371  12.375
16312SOL    HW250776   4.651   9.391  12.263
16313SOL     OW50777  13.099  14.209   3.108
16313SOL    HW150778  13.060  14.153   3.040
16313SOL    HW250779  13.023  14.242   3.158
16314SOL     OW50780  13.681   1.433   1.715
16314SOL    HW150781  13.652   1.437   1.806
16314SOL    HW250782  13.635   1.358   1.678
16315SOL     OW50783  11.162  13.301   9.296
16315SOL    HW150784  11.252  13.326   9.276
16315SOL    HW250785  11.166  13.265   9.385
16316SOL     OW50786   0.390   3.584   6.775
16316SOL    HW150787   0.423   3.559   6.689
16316SOL    HW250788   0.466   3.620   6.821
16317SOL     OW50789   4.909   3.357   1.648
16317SOL    HW150790   4.869   3.435   1.609
16317SOL    HW250791   5.003   3.367   1.631
16318SOL     OW50792   4.137   2.222   6.746
16318SOL    HW150793   4.173   2.304   6.781
16318SOL    HW250794   4.050   2.215   6.785
16319SOL     OW50795   6.711   8.193   1.656
16319SOL    HW150796   6.690   8.221   1.567
16319SOL    HW250797   6.756   8.268   1.695
16320SOL     OW50798  11.908  11.800   4.606
16320SOL    HW150799  11.974  11.760   4.550
16320SOL    HW250800  11.916  11.894   4.589
16321SOL     OW50801  12.953   3.153  12.303
16321SOL    HW150802  13.044   3.134  12.281
16321SOL    HW250803  12.902   3.093  12.249
16322SOL     OW50804  14.853   9.334   1.524
16322SOL    HW150805   0.071   9.326   1.496
16322SOL    HW250806  14.851   9.415   1.575
16323SOL     OW50807   2.990   7.768   3.553
16323SOL    HW150808   3.033   7.688   3.520
16323SOL    HW250809   2.975   7.750   3.646
16324SOL     OW50810   8.112   7.529  12.809
16324SOL    HW150811   8.103   7.465  12.879
16324SOL    HW250812   8.207   7.541  12.799
16325SOL     OW50813  13.770   2.969  14.427
16325SOL    HW150814  13.750   3.027  14.500
16325SOL    HW250815  13.718   2.890  14.445
16326SOL     OW50816   2.928  11.653   0.292
16326SOL    HW150817   2.856  11.689   0.241
16326SOL    HW250818   2.934  11.710   0.369
16327SOL     OW50819   1.651   3.322  12.332
16327SOL    HW150820   1.642   3.335  12.427
16327SOL    HW250821   1.738   3.354  12.311
16328SOL     OW50822   7.671   3.425   6.029
16328SOL    HW150823   7.692   3.513   6.061
16328SOL    HW250824   7.636   3.439   5.941
16329SOL     OW50825   4.455   2.882   3.616
16329SOL    HW150826   4.458   2.956   3.555
16329SOL    HW250827   4.457   2.923   3.703
16330SOL     OW50828   4.517   1.621   6.443
16330SOL    HW150829   4.516   1.619   6.539
16330SOL    HW250830   4.489   1.533   6.417
16331SOL     OW50831   3.787   3.643   3.843
16331SOL    HW150832   3.851   3.694   3.793
16331SOL    HW250833   3.784   3.686   3.929
16332SOL     OW50834  13.574   3.541   6.146
16332SOL    HW150835  13.551   3.521   6.237
16332SOL    HW250836  13.495   3.581   6.109
16333SOL     OW50837   1.457   9.863  12.707
16333SOL    HW150838   1.449   9.875  12.612
16333SOL    HW250839   1.413   9.939  12.744
16334SOL     OW50840   6.268   4.633  14.430
16334SOL    HW150841   6.186   4.683  14.425
16334SOL    HW250842   6.324   4.686  14.487
16335SOL     OW50843   0.076  12.976   6.605
16335SOL    HW150844   0.161  12.947   6.638
16335SOL    HW250845   0.065  13.063   6.644
16336SOL     OW50846   3.082   5.512   9.922
16336SOL    HW150847   3.002   5.463   9.906
16336SOL    HW250848   3.092   5.569   9.846
16337SOL     OW50849   0.428   2.287   3.809
16337SOL    HW150850   0.441   2.202   3.852
16337SOL    HW250851   0.504   2.296   3.752
16338SOL     OW50852  14.149  14.473   8.478
16338SOL    HW150853  14.124  14.535   8.546
16338SOL    HW250854  14.074  14.415   8.468
16339SOL     OW50855   3.321   7.104  11.375
16339SOL    HW150856   3.280   7.179  11.419
16339SOL    HW250857   3.303   7.119  11.282
16340SOL     OW50858   5.951   2.633  14.405
16340SOL    HW150859   5.879   2.579  14.373
16340SOL    HW250860   5.982   2.680  14.327
16341SOL     OW50861   9.515  11.163  14.001
16341SOL    HW150862   9.503  11.082  14.050
16341SOL    HW250863   9.563  11.137  13.922
16342SOL     OW50864  11.999   2.462   3.927
16342SOL    HW150865  12.087   2.487   3.956
16342SOL    HW250866  12.003   2.470   3.832
16343SOL     OW50867  12.733   9.424   2.131
16343SOL    HW150868  12.720   9.415   2.037
16343SOL    HW250869  12.712   9.515   2.150
16344SOL     OW50870   5.690   4.629   8.269
16344SOL    HW150871   5.700   4.563   8.337
16344SOL    HW250872   5.597   4.651   8.270
16345SOL     OW50873   5.334  10.660   9.876
16345SOL    HW150874   5.290  10.591   9.925
16345SOL    HW250875   5.295  10.656   9.788
16346SOL     OW50876  10.691  12.817  12.724
16346SOL    HW150877  10.678  12.728  12.692
16346SOL    HW250878  10.603  12.855  12.726
16347SOL     OW50879  10.762   3.738   9.027
16347SOL    HW150880  10.847   3.761   8.991
16347SOL    HW250881  10.721   3.682   8.961
16348SOL     OW50882  10.264   5.761   6.719
16348SOL    HW150883  10.261   5.737   6.627
16348SOL    HW250884  10.326   5.834   6.723
16349SOL     OW50885  11.841  10.449   4.175
16349SOL    HW150886  11.770  10.385   4.166
16349SOL    HW250887  11.915  10.400   4.210
16350SOL     OW50888   1.510   1.549   1.067
16350SOL    HW150889   1.499   1.460   1.100
16350SOL    HW250890   1.600   1.551   1.033
16351SOL     OW50891   6.402   5.208   6.064
16351SOL    HW150892   6.418   5.206   6.159
16351SOL    HW250893   6.459   5.141   6.028
16352SOL     OW50894   9.928   1.938   1.414
16352SOL    HW150895   9.836   1.917   1.401
16352SOL    HW250896   9.975   1.857   1.393
16353SOL     OW50897   8.321   3.179  11.425
16353SOL    HW150898   8.337   3.139  11.340
16353SOL    HW250899   8.312   3.106  11.486
16354SOL     OW50900   8.823   0.587  11.375
16354SOL    HW150901   8.734   0.558  11.353
16354SOL    HW250902   8.865   0.509  11.412
16355SOL     OW50903  12.355   5.403   8.669
16355SOL    HW150904  12.414   5.371   8.737
16355SOL    HW250905  12.341   5.328   8.612
16356SOL     OW50906   8.966  14.159   1.522
16356SOL    HW150907   8.943  14.249   1.499
16356SOL    HW250908   8.887  14.123   1.563
16357SOL     OW50909  14.298   0.828   2.821
16357SOL    HW150910  14.304   0.757   2.885
16357SOL    HW250911  14.245   0.894   2.864
16358SOL     OW50912  11.356   0.991   5.468
16358SOL    HW150913  11.426   0.994   5.402
16358SOL    HW250914  11.403   0.989   5.551
16359SOL     OW50915   3.840   2.840   8.955
16359SOL    HW150916   3.860   2.934   8.960
16359SOL    HW250917   3.879   2.812   8.872
16360SOL     OW50918   1.071   7.552   7.619
16360SOL    HW150919   1.032   7.467   7.597
16360SOL    HW250920   1.124   7.574   7.543
16361SOL     OW50921  14.582   7.988  12.524
16361SOL    HW150922  14.505   8.017  12.476
16361SOL    HW250923  14.548   7.923  12.586
16362SOL     OW50924   2.587   9.276  10.464
16362SOL    HW150925   2.532   9.353  10.474
16362SOL    HW250926   2.530   9.210  10.426
16363SOL     OW50927   2.784   2.532  14.508
16363SOL    HW150928   2.707   2.578  14.541
16363SOL    HW250929   2.748   2.463  14.452
16364SOL     OW50930   8.584   8.846   0.595
16364SOL    HW150931   8.495   8.821   0.622
16364SOL    HW250932   8.603   8.925   0.646
16365SOL     OW50933   0.590   1.539   5.160
16365SOL    HW150934   0.510   1.553   5.108
16365SOL    HW250935   0.621   1.627   5.180
16366SOL     OW50936   9.097   8.922   9.879
16366SOL    HW150937   9.052   8.866   9.816
16366SOL    HW250938   9.190   8.901   9.868
16367SOL     OW50939  11.029   0.610   5.825
16367SOL    HW150940  10.989   0.696   5.811
16367SOL    HW250941  11.123   0.629   5.833
16368SOL     OW50942   9.542   6.834  13.738
16368SOL    HW150943   9.504   6.902  13.682
16368SOL    HW250944   9.506   6.850  13.825
16369SOL     OW50945  13.544   7.088   3.852
16369SOL    HW150946  13.564   7.181   3.842
16369SOL    HW250947  13.550   7.052   3.764
16370SOL     OW50948   4.042  11.327   5.949
16370SOL    HW150949   3.998  11.413   5.949
16370SOL    HW250950   4.100  11.330   6.024
16371SOL     OW50951   0.617   4.995  11.638
16371SOL    HW150952   0.629   5.090  11.647
16371SOL    HW250953   0.541   4.976  11.693
16372SOL     OW50954  13.139   3.005  13.016
16372SOL    HW150955  13.119   3.093  12.985
16372SOL    HW250956  13.192   3.018  13.095
16373SOL     OW50957   4.603   7.055   6.943
16373SOL    HW150958   4.654   7.045   7.024
16373SOL    HW250959   4.517   7.020   6.964
16374SOL     OW50960  14.690   3.483  13.558
16374SOL    HW150961  14.737   3.492  13.641
16374SOL    HW250962  14.693   3.389  13.539
16375SOL     OW50963   9.842   2.441   0.623
16375SOL    HW150964   9.787   2.445   0.702
16375SOL    HW250965   9.931   2.443   0.656
16376SOL     OW50966   0.949   5.000  12.934
16376SOL    HW150967   1.036   5.017  12.897
16376SOL    HW250968   0.910   4.937  12.874
16377SOL     OW50969  12.119   9.745   3.832
16377SOL    HW150970  12.200   9.727   3.784
16377SOL    HW250971  12.142   9.815   3.892
16378SOL     OW50972   1.512   2.421   2.144
16378SOL    HW150973   1.467   2.345   2.105
16378SOL    HW250974   1.572   2.382   2.208
16379SOL     OW50975   9.604   0.711   6.954
16379SOL    HW150976   9.597   0.804   6.931
16379SOL    HW250977   9.655   0.710   7.035
16380SOL     OW50978  13.403   4.677   9.369
16380SOL    HW150979  13.340   4.690   9.441
16380SOL    HW250980  13.371   4.734   9.299
16381SOL     OW50981  11.718   7.277   7.032
16381SOL    HW150982  11.714   7.296   7.125
16381SOL    HW250983  11.629   7.249   7.009
16382SOL     OW50984  14.499   8.397  12.459
16382SOL    HW150985  14.572   8.358  12.508
16382SOL    HW250986  14.528   8.396  12.368
16383SOL     OW50987   9.962  10.552  12.957
16383SOL    HW150988   9.952  10.620  13.024
16383SOL    HW250989   9.872  10.534  12.928
16384SOL     OW50990   2.730  10.371  13.783
16384SOL    HW150991   2.654  10.387  13.728
16384SOL    HW250992   2.797  10.430  13.750
16385SOL     OW50993   3.268   3.054  11.200
16385SOL    HW150994   3.308   3.011  11.275
16385SOL    HW250995   3.338   3.060  11.135
16386SOL     OW50996   0.279  11.974   3.578
16386SOL    HW150997   0.331  12.003   3.652
16386SOL    HW250998   0.195  11.949   3.616
16387SOL     OW50999   9.858   9.505   2.106
16387SOL    HW151000   9.774   9.550   2.104
16387SOL    HW251001   9.921   9.573   2.131
16388SOL     OW51002   9.027   3.608  10.638
16388SOL    HW151003   9.064   3.687  10.598
16388SOL    HW251004   8.988   3.638  10.720
16389SOL     OW51005   2.378   0.622  14.075
16389SOL    HW151006   2.412   0.556  14.136
16389SOL    HW251007   2.300   0.656  14.119
16390SOL     OW51008  10.631   4.181  11.304
16390SOL    HW151009  10.654   4.266  11.266
16390SOL    HW251010  10.594   4.131  11.231
16391SOL     OW51011  13.661   9.631   5.122
16391SOL    HW151012  13.732   9.588   5.074
16391SOL    HW251013  13.583   9.581   5.099
16392SOL     OW51014   2.378   1.083   9.602
16392SOL    HW151015   2.450   1.131   9.643
16392SOL    HW251016   2.409   1.063   9.514
16393SOL     OW51017  10.608   3.843   8.520
16393SOL    HW151018  10.532   3.882   8.477
16393SOL    HW251019  10.637   3.774   8.460
16394SOL     OW51020  14.706   2.258   0.966
16394SOL    HW151021  14.668   2.171   0.954
16394SOL    HW251022  14.780   2.261   0.906
16395SOL     OW51023   5.205   7.381   3.803
16395SOL    HW151024   5.221   7.473   3.783
16395SOL    HW251025   5.110   7.373   3.808
16396SOL     OW51026  10.655   9.939   0.871
16396SOL    HW151027  10.662   9.981   0.786
16396SOL    HW251028  10.575   9.975   0.910
16397SOL     OW51029   0.374   8.828  11.498
16397SOL    HW151030   0.289   8.857  11.530
16397SOL    HW251031   0.431   8.904  11.510
16398SOL     OW51032  10.796  13.782  12.765
16398SOL    HW151033  10.760  13.870  12.774
16398SOL    HW251034  10.724  13.724  12.788
16399SOL     OW51035   7.815   0.244   7.833
16399SOL    HW151036   7.729   0.216   7.801
16399SOL    HW251037   7.858   0.283   7.757
16400SOL     OW51038   5.170  12.174  14.656
16400SOL    HW151039   5.121  12.132  14.585
16400SOL    HW251040   5.103  12.215  14.710
16401SOL     OW51041   5.265  14.797   0.442
16401SOL    HW151042   5.295  14.714   0.477
16401SOL    HW251043   5.267  14.857   0.516
16402SOL     OW51044  12.182   3.212  10.027
16402SOL    HW151045  12.131   3.291  10.007
16402SOL    HW251046  12.148   3.146   9.967
16403SOL     OW51047   6.447   2.534   0.965
16403SOL    HW151048   6.432   2.452   1.011
16403SOL    HW251049   6.431   2.602   1.030
16404SOL     OW51050  13.433   5.125  11.906
16404SOL    HW151051  13.364   5.070  11.943
16404SOL    HW251052  13.481   5.066  11.847
16405SOL     OW51053   3.577   5.943   6.981
16405SOL    HW151054   3.521   5.901   7.045
16405SOL    HW251055   3.554   5.903   6.897
16406SOL     OW51056   6.703   4.155   0.668
16406SOL    HW151057   6.705   4.059   0.665
16406SOL    HW251058   6.786   4.180   0.708
16407SOL     OW51059   5.047   2.118  12.406
16407SOL    HW151060   4.970   2.067  12.382
16407SOL    HW251061   5.092   2.064  12.471
16408SOL     OW51062   3.478   4.739   5.050
16408SOL    HW151063   3.566   4.724   5.085
16408SOL    HW251064   3.426   4.764   5.127
16409SOL     OW51065   2.842   8.059  13.939
16409SOL    HW151066   2.821   8.149  13.915
16409SOL    HW251067   2.788   8.041  14.016
16410SOL     OW51068   5.725   7.362  13.355
16410SOL    HW151069   5.783   7.316  13.294
16410SOL    HW251070   5.776   7.371  13.435
16411SOL     OW51071   7.404   1.096   1.811
16411SOL    HW151072   7.368   1.016   1.772
16411SOL    HW251073   7.341   1.164   1.788
16412SOL     OW51074   8.261   9.979  10.917
16412SOL    HW151075   8.334   9.923  10.893
16412SOL    HW251076   8.195   9.964  10.850
16413SOL     OW51077  10.468   6.219  12.746
16413SOL    HW151078  10.446   6.246  12.835
16413SOL    HW251079  10.551   6.263  12.728
16414SOL     OW51080  10.757   3.039   8.304
16414SOL    HW151081  10.813   3.109   8.338
16414SOL    HW251082  10.814   2.990   8.244
16415SOL     OW51083   5.479   7.346  10.628
16415SOL    HW151084   5.496   7.383  10.541
16415SOL    HW251085   5.516   7.258  10.625
16416SOL     OW51086   5.355   3.662   2.447
16416SOL    HW151087   5.401   3.685   2.528
16416SOL    HW251088   5.321   3.745   2.414
16417SOL     OW51089  13.617   8.359  11.121
16417SOL    HW151090  13.545   8.379  11.181
16417SOL    HW251091  13.686   8.326  11.178
16418SOL     OW51092   4.429   0.066  12.384
16418SOL    HW151093   4.484  14.862  12.398
16418SOL    HW251094   4.398   0.090  12.471
16419SOL     OW51095  14.114   4.619   0.977
16419SOL    HW151096  14.099   4.546   0.917
16419SOL    HW251097  14.203   4.605   1.009
16420SOL     OW51098   4.831  11.527   0.381
16420SOL    HW151099   4.749  11.574   0.374
16420SOL    HW251100   4.893  11.576   0.326
16421SOL     OW51101  10.305   1.957   0.541
16421SOL    HW151102  10.279   1.890   0.478
16421SOL    HW251103  10.398   1.941   0.556
16422SOL     OW51104   0.487   6.318  12.517
16422SOL    HW151105   0.533   6.362  12.445
16422SOL    HW251106   0.554   6.304  12.584
16423SOL     OW51107   8.213   0.053   8.863
16423SOL    HW151108   8.306   0.075   8.858
16423SOL    HW251109   8.170   0.135   8.888
16424SOL     OW51110   5.391   8.561   7.248
16424SOL    HW151111   5.409   8.621   7.176
16424SOL    HW251112   5.467   8.566   7.305
16425SOL     OW51113   4.476  12.657  10.240
16425SOL    HW151114   4.471  12.598  10.164
16425SOL    HW251115   4.448  12.742  10.206
16426SOL     OW51116  10.040   8.603  11.306
16426SOL    HW151117  10.023   8.675  11.367
16426SOL    HW251118   9.971   8.539  11.325
16427SOL     OW51119  10.464   2.622   7.467
16427SOL    HW151120  10.497   2.560   7.401
16427SOL    HW251121  10.369   2.623   7.453
16428SOL     OW51122   4.571   9.080  13.743
16428SOL    HW151123   4.483   9.064  13.709
16428SOL    HW251124   4.622   9.003  13.716
16429SOL     OW51125   5.172   8.942  12.298
16429SOL    HW151126   5.099   8.968  12.354
16429SOL    HW251127   5.191   9.020  12.246
16430SOL     OW51128   9.319   2.574   0.076
16430SOL    HW151129   9.235   2.541   0.108
16430SOL    HW251130   9.370   2.496   0.056
16431SOL     OW51131  11.023   8.817   5.263
16431SOL    HW151132  11.096   8.874   5.290
16431SOL    HW251133  10.955   8.834   5.327
16432SOL     OW51134   6.111  12.980   0.436
16432SOL    HW151135   6.131  12.924   0.361
16432SOL    HW251136   6.109  12.921   0.511
16433SOL     OW51137   9.165   4.010   5.007
16433SOL    HW151138   9.147   4.078   4.942
16433SOL    HW251139   9.253   3.979   4.986
16434SOL     OW51140   5.576   9.625   3.602
16434SOL    HW151141   5.609   9.665   3.521
16434SOL    HW251142   5.628   9.667   3.671
16435SOL     OW51143  12.624   5.639   3.572
16435SOL    HW151144  12.557   5.586   3.530
16435SOL    HW251145  12.589   5.655   3.660
16436SOL     OW51146   5.617   5.644   1.888
16436SOL    HW151147   5.621   5.624   1.795
16436SOL    HW251148   5.540   5.596   1.920
16437SOL     OW51149  13.725   1.233  14.195
16437SOL    HW151150  13.684   1.161  14.146
16437SOL    HW251151  13.713   1.309  14.138
16438SOL     OW51152  14.412  12.396  13.405
16438SOL    HW151153  14.497  12.429  13.433
16438SOL    HW251154  14.433  12.320  13.350
16439SOL     OW51155   1.535   2.905   6.056
16439SOL    HW151156   1.598   2.837   6.033
16439SOL    HW251157   1.454   2.858   6.078
16440SOL     OW51158   6.192  13.590   0.983
16440SOL    HW151159   6.186  13.599   0.888
16440SOL    HW251160   6.104  13.563   1.010
16441SOL     OW51161   1.198  10.316   2.142
16441SOL    HW151162   1.173  10.387   2.083
16441SOL    HW251163   1.135  10.246   2.124
16442SOL     OW51164   6.476  12.115   5.669
16442SOL    HW151165   6.498  12.146   5.756
16442SOL    HW251166   6.476  12.194   5.615
16443SOL     OW51167   0.022   4.403  14.640
16443SOL    HW151168  14.870   4.328  14.694
16443SOL    HW251169   0.084   4.451  14.695
16444SOL     OW51170   1.267   9.621   0.688
16444SOL    HW151171   1.355   9.659   0.687
16444SOL    HW251172   1.215   9.678   0.631
16445SOL     OW51173   9.617   5.380   1.830
16445SOL    HW151174   9.655   5.449   1.777
16445SOL    HW251175   9.690   5.321   1.849
16446SOL     OW51176  11.040   4.016   4.825
16446SOL    HW151177  11.056   3.978   4.912
16446SOL    HW251178  10.998   3.945   4.775
16447SOL     OW51179   0.546   7.278  11.151
16447SOL    HW151180   0.573   7.284  11.243
16447SOL    HW251181   0.558   7.186  11.128
16448SOL     OW51182  13.007   3.916   3.843
16448SOL    HW151183  13.046   3.884   3.925
16448SOL    HW251184  12.993   4.009   3.858
16449SOL     OW51185   2.627   6.752  10.653
16449SOL    HW151186   2.560   6.684  10.661
16449SOL    HW251187   2.607   6.814  10.724
16450SOL     OW51188   7.794   9.497   3.821
16450SOL    HW151189   7.737   9.512   3.896
16450SOL    HW251190   7.744   9.440   3.763
16451SOL     OW51191   1.630  10.136   8.293
16451SOL    HW151192   1.595  10.225   8.297
16451SOL    HW251193   1.656  10.124   8.202
16452SOL     OW51194  14.270  10.103   9.216
16452SOL    HW151195  14.206  10.047   9.259
16452SOL    HW251196  14.339  10.043   9.187
16453SOL     OW51197   7.589  12.307  12.209
16453SOL    HW151198   7.497  12.316  12.232
16453SOL    HW251199   7.589  12.289  12.115
16454SOL     OW51200   4.761  10.809  12.926
16454SOL    HW151201   4.805  10.891  12.949
16454SOL    HW251202   4.774  10.800  12.832
16455SOL     OW51203   6.800  11.493   1.360
16455SOL    HW151204   6.881  11.539   1.382
16455SOL    HW251205   6.828  11.402   1.346
16456SOL     OW51206  10.422   4.106   7.640
16456SOL    HW151207  10.379   4.079   7.721
16456SOL    HW251208  10.506   4.061   7.642
16457SOL     OW51209   4.168  10.579   9.916
16457SOL    HW151210   4.195  10.670   9.926
16457SOL    HW251211   4.243  10.535   9.876
16458SOL     OW51212   3.548   8.675   5.650
16458SOL    HW151213   3.537   8.717   5.736
16458SOL    HW251214   3.551   8.747   5.588
16459SOL     OW51215   3.730  11.322  13.978
16459SOL    HW151216   3.794  11.306  14.047
16459SOL    HW251217   3.647  11.290  14.014
16460SOL     OW51218  14.133   4.755   2.746
16460SOL    HW151219  14.058   4.718   2.793
16460SOL    HW251220  14.121   4.850   2.753
16461SOL     OW51221  10.003   0.390   0.790
16461SOL    HW151222   9.969   0.480   0.798
16461SOL    HW251223   9.976   0.347   0.871
16462SOL     OW51224   8.962   1.249   2.269
16462SOL    HW151225   8.969   1.285   2.358
16462SOL    HW251226   9.025   1.177   2.267
16463SOL     OW51227  10.699   9.415  14.721
16463SOL    HW151228  10.686   9.407  14.815
16463SOL    HW251229  10.610   9.415  14.684
16464SOL     OW51230  14.080   0.355   0.881
16464SOL    HW151231  14.158   0.409   0.867
16464SOL    HW251232  14.063   0.315   0.796
16465SOL     OW51233   9.934  11.519  14.278
16465SOL    HW151234   9.868  11.519  14.347
16465SOL    HW251235   9.895  11.571  14.208
16466SOL     OW51236   3.051   3.675  12.848
16466SOL    HW151237   3.008   3.734  12.785
16466SOL    HW251238   2.994   3.676  12.925
16467SOL     OW51239   3.179   6.447   2.157
16467SOL    HW151240   3.152   6.399   2.235
16467SOL    HW251241   3.109   6.432   2.094
16468SOL     OW51242   6.057  11.837  13.487
16468SOL    HW151243   6.106  11.878  13.415
16468SOL    HW251244   5.977  11.890  13.493
16469SOL     OW51245  12.883   1.355  13.571
16469SOL    HW151246  12.854   1.442  13.544
16469SOL    HW251247  12.977   1.353  13.552
16470SOL     OW51248   1.366  11.156   9.930
16470SOL    HW151249   1.371  11.064   9.957
16470SOL    HW251250   1.447  11.195   9.961
16471SOL     OW51251   2.464  10.625   0.592
16471SOL    HW151252   2.463  10.686   0.517
16471SOL    HW251253   2.372  10.614   0.615
16472SOL     OW51254  13.346  14.617   0.356
16472SOL    HW151255  13.292  14.543   0.327
16472SOL    HW251256  13.432  14.578   0.372
16473SOL     OW51257   9.801   8.823   5.895
16473SOL    HW151258   9.879   8.795   5.941
16473SOL    HW251259   9.746   8.745   5.889
16474SOL     OW51260  12.877   3.227  11.430
16474SOL    HW151261  12.967   3.256  11.444
16474SOL    HW251262  12.886   3.138  11.397
16475SOL     OW51263  13.824  11.580  11.088
16475SOL    HW151264  13.894  11.612  11.145
16475SOL    HW251265  13.744  11.598  11.137
16476SOL     OW51266  13.350  10.227   6.302
16476SOL    HW151267  13.425  10.285   6.311
16476SOL    HW251268  13.283  10.280   6.257
16477SOL     OW51269  10.492   5.219  13.616
16477SOL    HW151270  10.480   5.203  13.523
16477SOL    HW251271  10.428   5.162  13.659
16478SOL     OW51272   3.740  10.670   9.133
16478SOL    HW151273   3.774  10.618   9.206
16478SOL    HW251274   3.773  10.758   9.149
16479SOL     OW51275   8.728   8.846  10.663
16479SOL    HW151276   8.676   8.766  10.674
16479SOL    HW251277   8.663   8.915  10.652
16480SOL     OW51278  14.480   6.457  14.438
16480SOL    HW151279  14.500   6.547  14.463
16480SOL    HW251280  14.518   6.404  14.508
16481SOL     OW51281   9.503   5.437   8.114
16481SOL    HW151282   9.586   5.394   8.094
16481SOL    HW251283   9.454   5.435   8.031
16482SOL     OW51284  13.614   9.237   6.313
16482SOL    HW151285  13.560   9.313   6.333
16482SOL    HW251286  13.681   9.236   6.381
16483SOL     OW51287   8.917   6.262   4.121
16483SOL    HW151288   8.945   6.178   4.158
16483SOL    HW251289   8.965   6.328   4.172
16484SOL     OW51290  12.867   5.807   4.182
16484SOL    HW151291  12.879   5.878   4.246
16484SOL    HW251292  12.951   5.760   4.184
16485SOL     OW51293  10.447  13.964  10.949
16485SOL    HW151294  10.514  14.032  10.957
16485SOL    HW251295  10.463  13.905  11.023
16486SOL     OW51296  13.891  14.136  12.342
16486SOL    HW151297  13.896  14.212  12.400
16486SOL    HW251298  13.847  14.168  12.264
16487SOL     OW51299  14.691   5.361   6.449
16487SOL    HW151300  14.779   5.329   6.471
16487SOL    HW251301  14.654   5.291   6.395
16488SOL     OW51302   6.931  10.481   8.982
16488SOL    HW151303   6.907  10.567   9.016
16488SOL    HW251304   6.907  10.420   9.052
16489SOL     OW51305   9.837   1.018  11.185
16489SOL    HW151306   9.860   0.950  11.122
16489SOL    HW251307   9.794   0.971  11.256
16490SOL     OW51308   7.014   5.351   1.922
16490SOL    HW151309   7.064   5.365   2.002
16490SOL    HW251310   6.999   5.438   1.886
16491SOL     OW51311   4.115   5.271  14.322
16491SOL    HW151312   4.079   5.196  14.369
16491SOL    HW251313   4.039   5.326  14.302
16492SOL     OW51314   4.058   7.906   2.880
16492SOL    HW151315   4.122   7.939   2.817
16492SOL    HW251316   4.019   7.830   2.837
16493SOL     OW51317   9.511   6.139   5.225
16493SOL    HW151318   9.471   6.052   5.217
16493SOL    HW251319   9.452   6.187   5.282
16494SOL     OW51320   6.658   2.084  10.688
16494SOL    HW151321   6.739   2.116  10.649
16494SOL    HW251322   6.647   1.996  10.654
16495SOL     OW51323   7.518   8.906  13.803
16495SOL    HW151324   7.481   8.988  13.835
16495SOL    HW251325   7.605   8.929  13.772
16496SOL     OW51326   1.293  11.827   5.087
16496SOL    HW151327   1.296  11.822   4.991
16496SOL    HW251328   1.360  11.892   5.109
16497SOL     OW51329  13.744   2.009  12.637
16497SOL    HW151330  13.678   1.942  12.653
16497SOL    HW251331  13.714   2.084  12.688
16498SOL     OW51332   0.074  11.900   3.115
16498SOL    HW151333   0.095  11.982   3.070
16498SOL    HW251334   0.159  11.868   3.146
16499SOL     OW51335  11.235   5.091   8.419
16499SOL    HW151336  11.322   5.112   8.453
16499SOL    HW251337  11.214   5.005   8.456
16500SOL     OW51338   6.847   4.934   3.423
16500SOL    HW151339   6.893   4.992   3.362
16500SOL    HW251340   6.755   4.957   3.414
16501SOL     OW51341   6.133   1.610   9.672
16501SOL    HW151342   6.182   1.625   9.753
16501SOL    HW251343   6.044   1.591   9.700
16502SOL     OW51344  12.078   4.736  10.364
16502SOL    HW151345  11.994   4.724  10.318
16502SOL    HW251346  12.066   4.817  10.413
16503SOL     OW51347  11.659   8.257   1.451
16503SOL    HW151348  11.697   8.207   1.379
16503SOL    HW251349  11.734   8.291   1.500
16504SOL     OW51350   7.357   2.812  13.526
16504SOL    HW151351   7.451   2.828  13.528
16504SOL    HW251352   7.322   2.862  13.599
16505SOL     OW51353   0.725   6.440  13.516
16505SOL    HW151354   0.666   6.507  13.552
16505SOL    HW251355   0.785   6.490  13.460
16506SOL     OW51356  12.989   2.243  10.670
16506SOL    HW151357  13.043   2.232  10.592
16506SOL    HW251358  12.996   2.336  10.691
16507SOL     OW51359  13.192  11.759   4.516
16507SOL    HW151360  13.208  11.716   4.600
16507SOL    HW251361  13.247  11.837   4.518
16508SOL     OW51362  10.906   3.730   3.242
16508SOL    HW151363  10.920   3.638   3.265
16508SOL    HW251364  10.816   3.732   3.208
16509SOL     OW51365   9.068   6.056   9.936
16509SOL    HW151366   9.019   6.004   9.999
16509SOL    HW251367   9.028   6.143   9.939
16510SOL     OW51368   0.617   0.633   3.520
16510SOL    HW151369   0.577   0.717   3.500
16510SOL    HW251370   0.612   0.584   3.438
16511SOL     OW51371   5.675  13.646   8.483
16511SOL    HW151372   5.592  13.677   8.519
16511SOL    HW251373   5.728  13.624   8.561
16512SOL     OW51374   1.109   4.531   8.947
16512SOL    HW151375   1.196   4.516   8.984
16512SOL    HW251376   1.125   4.572   8.863
16513SOL     OW51377  13.603   5.371   3.259
16513SOL    HW151378  13.653   5.300   3.217
16513SOL    HW251379  13.664   5.409   3.322
16514SOL     OW51380   4.483  14.007  10.018
16514SOL    HW151381   4.389  14.009  10.001
16514SOL    HW251382   4.523  14.007   9.930
16515SOL     OW51383   4.020  11.580   6.860
16515SOL    HW151384   4.055  11.501   6.819
16515SOL    HW251385   4.098  11.632   6.880
16516SOL     OW51386   9.534  11.836  10.897
16516SOL    HW151387   9.624  11.835  10.929
16516SOL    HW251388   9.504  11.925  10.913
16517SOL     OW51389   1.099  13.966  13.007
16517SOL    HW151390   1.024  14.024  12.994
16517SOL    HW251391   1.175  14.018  12.981
16518SOL     OW51392   1.173  14.227   5.024
16518SOL    HW151393   1.198  14.270   4.942
16518SOL    HW251394   1.079  14.211   5.014
16519SOL     OW51395  10.190   6.708  13.028
16519SOL    HW151396  10.161   6.640  13.089
16519SOL    HW251397  10.142   6.689  12.948
16520SOL     OW51398   3.729   2.375   4.797
16520SOL    HW151399   3.772   2.354   4.880
16520SOL    HW251400   3.743   2.298   4.742
16521SOL     OW51401  10.090   9.116   5.673
16521SOL    HW151402  10.163   9.057   5.654
16521SOL    HW251403  10.120   9.202   5.644
16522SOL     OW51404   9.431   7.408   3.955
16522SOL    HW151405   9.419   7.418   4.050
16522SOL    HW251406   9.358   7.457   3.917
16523SOL     OW51407   1.747   6.707   7.504
16523SOL    HW151408   1.704   6.764   7.567
16523SOL    HW251409   1.769   6.764   7.430
16524SOL     OW51410  13.024   6.029   6.680
16524SOL    HW151411  13.082   6.065   6.746
16524SOL    HW251412  12.939   6.068   6.697
16525SOL     OW51413   0.006  10.026   7.851
16525SOL    HW151414  14.863  10.017   7.945
16525SOL    HW251415   0.003   9.937   7.817
16526SOL     OW51416  11.149   6.249   3.503
16526SOL    HW151417  11.143   6.226   3.596
16526SOL    HW251418  11.150   6.165   3.458
16527SOL     OW51419  12.588   5.559   5.822
16527SOL    HW151420  12.517   5.592   5.767
16527SOL    HW251421  12.626   5.637   5.863
16528SOL     OW51422   4.633   0.787   5.259
16528SOL    HW151423   4.549   0.766   5.219
16528SOL    HW251424   4.611   0.835   5.339
16529SOL     OW51425   5.693   7.221   2.077
16529SOL    HW151426   5.781   7.249   2.102
16529SOL    HW251427   5.668   7.279   2.007
16530SOL     OW51428   1.379  11.982   2.103
16530SOL    HW151429   1.319  12.035   2.051
16530SOL    HW251430   1.461  11.983   2.054
16531SOL     OW51431  12.425   3.580   5.172
16531SOL    HW151432  12.438   3.621   5.258
16531SOL    HW251433  12.484   3.504   5.173
16532SOL     OW51434   5.161   4.060   4.368
16532SOL    HW151435   5.198   4.119   4.303
16532SOL    HW251436   5.094   4.112   4.412
16533SOL     OW51437  13.695   7.582   0.154
16533SOL    HW151438  13.679   7.641   0.227
16533SOL    HW251439  13.630   7.512   0.165
16534SOL     OW51440   4.856  12.096   8.574
16534SOL    HW151441   4.779  12.092   8.630
16534SOL    HW251442   4.829  12.051   8.494
16535SOL     OW51443   3.829  11.460   0.965
16535SOL    HW151444   3.875  11.379   0.946
16535SOL    HW251445   3.869  11.492   1.046
16536SOL     OW51446  13.087   4.603   6.438
16536SOL    HW151447  13.002   4.565   6.462
16536SOL    HW251448  13.087   4.690   6.478
16537SOL     OW51449   6.900  10.251  10.546
16537SOL    HW151450   6.870  10.182  10.487
16537SOL    HW251451   6.966  10.209  10.600
16538SOL     OW51452   9.252  11.459  13.988
16538SOL    HW151453   9.241  11.387  13.926
16538SOL    HW251454   9.334  11.501  13.961
16539SOL     OW51455   8.585   8.975  10.178
16539SOL    HW151456   8.572   8.895  10.230
16539SOL    HW251457   8.500   8.990  10.136
16540SOL     OW51458   5.405  12.802   6.436
16540SOL    HW151459   5.486  12.790   6.485
16540SOL    HW251460   5.370  12.886   6.465
16541SOL     OW51461   6.201   9.422   8.908
16541SOL    HW151462   6.109   9.440   8.889
16541SOL    HW251463   6.235   9.506   8.941
16542SOL     OW51464  11.276  14.283   9.144
16542SOL    HW151465  11.225  14.358   9.174
16542SOL    HW251466  11.237  14.208   9.189
16543SOL     OW51467   9.264   8.229   6.133
16543SOL    HW151468   9.203   8.281   6.185
16543SOL    HW251469   9.221   8.220   6.048
16544SOL     OW51470  10.760  11.094   5.915
16544SOL    HW151471  10.700  11.086   5.841
16544SOL    HW251472  10.749  11.184   5.945
16545SOL     OW51473   6.530  14.812  10.821
16545SOL    HW151474   6.580   0.020  10.812
16545SOL    HW251475   6.549  14.762  10.742
16546SOL     OW51476  13.503   2.874  12.903
16546SOL    HW151477  13.572   2.808  12.907
16546SOL    HW251478  13.458   2.856  12.821
16547SOL     OW51479   4.921   6.828   3.480
16547SOL    HW151480   4.975   6.875   3.543
16547SOL    HW251481   4.848   6.887   3.461
16548SOL     OW51482   7.854   9.262   6.955
16548SOL    HW151483   7.944   9.288   6.937
16548SOL    HW251484   7.804   9.290   6.878
16549SOL     OW51485   0.303   7.257  13.014
16549SOL    HW151486   0.308   7.161  13.005
16549SOL    HW251487   0.259   7.270  13.098
16550SOL     OW51488   8.460  12.310   8.442
16550SOL    HW151489   8.487  12.268   8.361
16550SOL    HW251490   8.365  12.311   8.439
16551SOL     OW51491   3.326   5.438   3.680
16551SOL    HW151492   3.296   5.355   3.643
16551SOL    HW251493   3.304   5.503   3.613
16552SOL     OW51494   6.862   6.909  12.826
16552SOL    HW151495   6.890   6.823  12.858
16552SOL    HW251496   6.780   6.892  12.780
16553SOL     OW51497   8.579  10.714  14.012
16553SOL    HW151498   8.590  10.794  13.960
16553SOL    HW251499   8.665  10.696  14.048
16554SOL     OW51500   4.875   0.116  10.149
16554SOL    HW151501   4.912   0.192  10.104
16554SOL    HW251502   4.788   0.143  10.176
16555SOL     OW51503   7.149  10.885   6.466
16555SOL    HW151504   7.142  10.911   6.374
16555SOL    HW251505   7.101  10.952   6.513
16556SOL     OW51506   4.681   5.156   5.756
16556SOL    HW151507   4.621   5.127   5.824
16556SOL    HW251508   4.739   5.218   5.800
16557SOL     OW51509   4.132  12.085   5.432
16557SOL    HW151510   4.113  11.995   5.405
16557SOL    HW251511   4.227  12.087   5.443
16558SOL     OW51512   2.987  10.216  10.317
16558SOL    HW151513   2.932  10.141  10.294
16558SOL    HW251514   2.953  10.246  10.401
16559SOL     OW51515   2.507   6.729   6.312
16559SOL    HW151516   2.555   6.667   6.257
16559SOL    HW251517   2.450   6.674   6.365
16560SOL     OW51518  13.852   0.114  10.479
16560SOL    HW151519  13.937   0.129  10.521
16560SOL    HW251520  13.873   0.102  10.386
16561SOL     OW51521  10.091   3.666   1.560
16561SOL    HW151522  10.157   3.712   1.508
16561SOL    HW251523  10.008   3.703   1.531
16562SOL     OW51524   6.501   2.032   3.953
16562SOL    HW151525   6.514   2.014   4.046
16562SOL    HW251526   6.491   2.127   3.949
16563SOL     OW51527   9.600  11.830   4.534
16563SOL    HW151528   9.547  11.794   4.463
16563SOL    HW251529   9.665  11.885   4.490
16564SOL     OW51530   9.432   8.554   4.681
16564SOL    HW151531   9.411   8.602   4.761
16564SOL    HW251532   9.351   8.509   4.658
16565SOL     OW51533   2.635  10.876   6.856
16565SOL    HW151534   2.675  10.897   6.941
16565SOL    HW251535   2.577  10.802   6.875
16566SOL     OW51536   6.306  12.406   7.523
16566SOL    HW151537   6.377  12.471   7.523
16566SOL    HW251538   6.301  12.375   7.613
16567SOL     OW51539   8.247   6.035   2.977
16567SOL    HW151540   8.227   6.005   3.066
16567SOL    HW251541   8.219   5.963   2.921
16568SOL     OW51542   3.351   2.584   1.866
16568SOL    HW151543   3.364   2.675   1.840
16568SOL    HW251544   3.416   2.535   1.816
16569SOL     OW51545   6.149   5.698   4.723
16569SOL    HW151546   6.242   5.721   4.729
16569SOL    HW251547   6.144   5.635   4.651
16570SOL     OW51548   0.738   0.735   6.356
16570SOL    HW151549   0.820   0.753   6.403
16570SOL    HW251550   0.704   0.821   6.332
16571SOL     OW51551   5.500   6.476   9.722
16571SOL    HW151552   5.555   6.455   9.798
16571SOL    HW251553   5.518   6.568   9.704
16572SOL     OW51554  12.043   6.256   2.137
16572SOL    HW151555  12.105   6.274   2.207
16572SOL    HW251556  12.015   6.342   2.106
16573SOL     OW51557   6.288   4.281  12.230
16573SOL    HW151558   6.241   4.228  12.294
16573SOL    HW251559   6.374   4.294  12.270
16574SOL     OW51560   8.013  11.325   5.705
16574SOL    HW151561   8.045  11.412   5.682
16574SOL    HW251562   8.093  11.274   5.723
16575SOL     OW51563  13.538  12.638  14.162
16575SOL    HW151564  13.553  12.570  14.097
16575SOL    HW251565  13.538  12.591  14.246
16576SOL     OW51566   0.114   0.012   6.053
16576SOL    HW151567   0.070   0.093   6.028
16576SOL    HW251568   0.063  14.852   6.127
16577SOL     OW51569   0.134   8.383   3.341
16577SOL    HW151570   0.066   8.378   3.409
16577SOL    HW251571   0.088   8.363   3.260
16578SOL     OW51572   7.495   4.089  10.907
16578SOL    HW151573   7.534   4.054  10.988
16578SOL    HW251574   7.509   4.020  10.842
16579SOL     OW51575   9.520   0.782   3.900
16579SOL    HW151576   9.460   0.755   3.970
16579SOL    HW251577   9.606   0.784   3.941
16580SOL     OW51578  11.455   2.278   6.676
16580SOL    HW151579  11.473   2.241   6.590
16580SOL    HW251580  11.389   2.346   6.660
16581SOL     OW51581  12.961   7.165  13.550
16581SOL    HW151582  12.870   7.191  13.560
16581SOL    HW251583  13.011   7.245  13.563
16582SOL     OW51584   3.234  11.681   9.686
16582SOL    HW151585   3.220  11.649   9.597
16582SOL    HW251586   3.324  11.713   9.687
16583SOL     OW51587  10.019   0.537   8.073
16583SOL    HW151588  10.103   0.523   8.029
16583SOL    HW251589  10.042   0.559   8.163
16584SOL     OW51590   5.169  11.606   0.904
16584SOL    HW151591   5.214  11.609   0.820
16584SOL    HW251592   5.150  11.697   0.924
16585SOL     OW51593  10.041   5.837  12.059
16585SOL    HW151594  10.106   5.907  12.046
16585SOL    HW251595  10.019   5.842  12.152
16586SOL     OW51596   9.227   6.376  12.731
16586SOL    HW151597   9.225   6.356  12.638
16586SOL    HW251598   9.140   6.411  12.750
16587SOL     OW51599   8.360  12.931   8.810
16587SOL    HW151600   8.395  12.921   8.899
16587SOL    HW251601   8.318  12.847   8.791
16588SOL     OW51602   9.705   3.990   3.992
16588SOL    HW151603   9.777   4.033   3.946
16588SOL    HW251604   9.739   3.976   4.081
16589SOL     OW51605  10.191   3.943   1.917
16589SOL    HW151606  10.223   4.031   1.895
16589SOL    HW251607  10.269   3.897   1.948
16590SOL     OW51608   3.198   6.580  11.489
16590SOL    HW151609   3.292   6.580  11.473
16590SOL    HW251610   3.188   6.530  11.570
16591SOL     OW51611   9.120   8.966  12.915
16591SOL    HW151612   9.178   8.958  12.991
16591SOL    HW251613   9.095   8.875  12.895
16592SOL     OW51614   7.157   8.338  12.555
16592SOL    HW151615   7.250   8.320  12.545
16592SOL    HW251616   7.120   8.258  12.593
16593SOL     OW51617   5.259  12.307   7.288
16593SOL    HW151618   5.284  12.217   7.307
16593SOL    HW251619   5.211  12.336   7.365
16594SOL     OW51620  13.408   7.810   8.220
16594SOL    HW151621  13.434   7.840   8.132
16594SOL    HW251622  13.476   7.747   8.244
16595SOL     OW51623   5.561   3.433  10.232
16595SOL    HW151624   5.524   3.351  10.263
16595SOL    HW251625   5.574   3.485  10.312
16596SOL     OW51626   1.055  12.486   3.669
16596SOL    HW151627   1.085  12.549   3.735
16596SOL    HW251628   1.132  12.432   3.651
16597SOL     OW51629  13.893   9.079   4.247
16597SOL    HW151630  13.961   9.013   4.257
16597SOL    HW251631  13.862   9.095   4.336
16598SOL     OW51632   7.967   1.130   5.321
16598SOL    HW151633   7.961   1.141   5.416
16598SOL    HW251634   7.951   1.217   5.285
16599SOL     OW51635   4.019   2.871  12.142
16599SOL    HW151636   4.029   2.821  12.060
16599SOL    HW251637   3.933   2.844  12.175
16600SOL     OW51638  13.017  12.259  14.297
16600SOL    HW151639  12.931  12.241  14.336
16600SOL    HW251640  12.997  12.298  14.211
16601SOL     OW51641   1.039   7.886   2.310
16601SOL    HW151642   1.107   7.851   2.368
16601SOL    HW251643   1.007   7.810   2.262
16602SOL     OW51644   8.517   1.860   7.967
16602SOL    HW151645   8.463   1.838   8.043
16602SOL    HW251646   8.605   1.869   8.002
16603SOL     OW51647   3.680  11.246  10.016
16603SOL    HW151648   3.675  11.220   9.924
16603SOL    HW251649   3.701  11.339  10.013
16604SOL     OW51650   7.181   7.244   2.785
16604SOL    HW151651   7.157   7.197   2.705
16604SOL    HW251652   7.266   7.208   2.810
16605SOL     OW51653   6.712  13.613  11.509
16605SOL    HW151654   6.729  13.607  11.603
16605SOL    HW251655   6.785  13.568  11.468
16606SOL     OW51656  13.828  11.721   1.780
16606SOL    HW151657  13.768  11.772   1.725
16606SOL    HW251658  13.891  11.685   1.718
16607SOL     OW51659   8.970   7.310   2.305
16607SOL    HW151660   8.964   7.281   2.396
16607SOL    HW251661   8.893   7.273   2.263
16608SOL     OW51662   2.539   6.372   5.157
16608SOL    HW151663   2.582   6.438   5.211
16608SOL    HW251664   2.452   6.408   5.139
16609SOL     OW51665   5.169  13.808   9.840
16609SOL    HW151666   5.084  13.765   9.848
16609SOL    HW251667   5.232  13.736   9.837
16610SOL     OW51668  10.053   8.525   5.912
16610SOL    HW151669  10.054   8.459   5.981
16610SOL    HW251670  10.119   8.496   5.849
16611SOL     OW51671  14.444  13.829   8.118
16611SOL    HW151672  14.363  13.877   8.136
16611SOL    HW251673  14.414  13.742   8.090
16612SOL     OW51674  12.261   5.487   3.557
16612SOL    HW151675  12.273   5.406   3.508
16612SOL    HW251676  12.178   5.522   3.525
16613SOL     OW51677   6.841  10.674   8.280
16613SOL    HW151678   6.858  10.595   8.228
16613SOL    HW251679   6.760  10.711   8.243
16614SOL     OW51680   4.175   9.589   9.976
16614SOL    HW151681   4.119   9.520  10.012
16614SOL    HW251682   4.221   9.548   9.903
16615SOL     OW51683   9.402  10.980   8.195
16615SOL    HW151684   9.372  11.055   8.143
16615SOL    HW251685   9.417  11.017   8.282
16616SOL     OW51686   7.693  12.059  13.896
16616SOL    HW151687   7.603  12.061  13.928
16616SOL    HW251688   7.744  12.102  13.965
16617SOL     OW51689   7.530   9.173  10.295
16617SOL    HW151690   7.579   9.127  10.227
16617SOL    HW251691   7.538   9.266  10.272
16618SOL     OW51692   0.463  13.100   0.928
16618SOL    HW151693   0.465  13.149   1.010
16618SOL    HW251694   0.438  13.165   0.862
16619SOL     OW51695   3.839   2.603  12.849
16619SOL    HW151696   3.866   2.651  12.927
16619SOL    HW251697   3.811   2.670  12.787
16620SOL     OW51698   0.317   2.221  11.748
16620SOL    HW151699   0.249   2.167  11.789
16620SOL    HW251700   0.286   2.311  11.758
16621SOL     OW51701   4.890   1.328   6.327
16621SOL    HW151702   4.965   1.375   6.363
16621SOL    HW251703   4.839   1.301   6.404
16622SOL     OW51704   4.939   2.366   7.023
16622SOL    HW151705   4.927   2.424   6.948
16622SOL    HW251706   4.851   2.336   7.045
16623SOL     OW51707   2.493   7.963   5.521
16623SOL    HW151708   2.510   8.016   5.443
16623SOL    HW251709   2.406   7.991   5.549
16624SOL     OW51710   6.668  12.129  12.347
16624SOL    HW151711   6.763  12.127  12.349
16624SOL    HW251712   6.643  12.157  12.436
16625SOL     OW51713  12.914  12.362  10.271
16625SOL    HW151714  12.849  12.308  10.315
16625SOL    HW251715  12.904  12.340  10.178
16626SOL     OW51716  14.243   3.505   9.457
16626SOL    HW151717  14.162   3.454   9.462
16626SOL    HW251718  14.293   3.478   9.534
16627SOL     OW51719  13.239  14.593  14.155
16627SOL    HW151720  13.148  14.625  14.160
16627SOL    HW251721  13.231  14.498  14.144
16628SOL     OW51722   3.219   6.304   9.195
16628SOL    HW151723   3.239   6.394   9.167
16628SOL    HW251724   3.268   6.293   9.277
16629SOL     OW51725   4.128  11.833   7.883
16629SOL    HW151726   4.106  11.922   7.912
16629SOL    HW251727   4.057  11.809   7.824
16630SOL     OW51728   0.488   9.612   7.067
16630SOL    HW151729   0.406   9.566   7.046
16630SOL    HW251730   0.460   9.701   7.086
16631SOL     OW51731   7.928   8.924   8.166
16631SOL    HW151732   7.979   8.881   8.098
16631SOL    HW251733   7.968   8.895   8.248
16632SOL     OW51734  14.820   1.382  14.520
16632SOL    HW151735   0.030   1.409  14.558
16632SOL    HW251736  14.761   1.456  14.537
16633SOL     OW51737  13.445   5.797   3.877
16633SOL    HW151738  13.417   5.871   3.930
16633SOL    HW251739  13.517   5.758   3.927
16634SOL     OW51740  13.977   3.089   8.000
16634SOL    HW151741  14.040   3.021   8.024
16634SOL    HW251742  13.915   3.045   7.942
16635SOL     OW51743  11.122  10.921   7.735
16635SOL    HW151744  11.205  10.916   7.781
16635SOL    HW251745  11.068  10.853   7.775
16636SOL     OW51746   6.877   8.590  10.565
16636SOL    HW151747   6.845   8.555  10.648
16636SOL    HW251748   6.842   8.531  10.498
16637SOL     OW51749  14.788   5.007  13.617
16637SOL    HW151750  14.779   5.102  13.608
16637SOL    HW251751   0.003   4.988  13.584
16638SOL     OW51752  12.495   2.709  14.777
16638SOL    HW151753  12.469   2.731  14.867
16638SOL    HW251754  12.581   2.669  14.787
16639SOL     OW51755   8.058  10.652  10.665
16639SOL    HW151756   7.969  10.623  10.681
16639SOL    HW251757   8.055  10.694  10.580
16640SOL     OW51758   3.024   5.134   1.365
16640SOL    HW151759   3.029   5.163   1.456
16640SOL    HW251760   2.932   5.147   1.340
16641SOL     OW51761   4.464   4.109   0.810
16641SOL    HW151762   4.464   4.088   0.717
16641SOL    HW251763   4.434   4.200   0.815
16642SOL     OW51764   9.533   9.676   4.358
16642SOL    HW151765   9.627   9.682   4.339
16642SOL    HW251766   9.523   9.719   4.442
16643SOL     OW51767   3.994   4.650  14.437
16643SOL    HW151768   4.084   4.677  14.418
16643SOL    HW251769   3.992   4.556  14.418
16644SOL     OW51770   9.945   4.619  13.177
16644SOL    HW151771   9.976   4.676  13.107
16644SOL    HW251772   9.881   4.562  13.135
16645SOL     OW51773   1.337   1.624   6.279
16645SOL    HW151774   1.368   1.662   6.361
16645SOL    HW251775   1.258   1.673   6.258
16646SOL     OW51776   1.100   2.090   9.977
16646SOL    HW151777   1.106   2.034   9.900
16646SOL    HW251778   1.188   2.089  10.014
16647SOL     OW51779   8.144   2.802  11.828
16647SOL    HW151780   8.049   2.802  11.817
16647SOL    HW251781   8.165   2.714  11.860
16648SOL     OW51782  13.695   9.827   2.415
16648SOL    HW151783  13.613   9.841   2.367
16648SOL    HW251784  13.670   9.770   2.488
16649SOL     OW51785   6.563  10.254  14.357
16649SOL    HW151786   6.478  10.223  14.388
16649SOL    HW251787   6.608  10.175  14.328
16650SOL     OW51788   7.236   3.302   2.872
16650SOL    HW151789   7.218   3.301   2.966
16650SOL    HW251790   7.299   3.373   2.861
16651SOL     OW51791   2.494  11.051  10.809
16651SOL    HW151792   2.545  11.124  10.774
16651SOL    HW251793   2.444  11.018  10.734
16652SOL     OW51794   5.898   7.121  11.455
16652SOL    HW151795   5.909   7.041  11.404
16652SOL    HW251796   5.892   7.091  11.546
16653SOL     OW51797   7.426   8.241  10.712
16653SOL    HW151798   7.366   8.250  10.786
16653SOL    HW251799   7.384   8.176  10.654
16654SOL     OW51800  14.452  13.811   2.600
16654SOL    HW151801  14.451  13.886   2.660
16654SOL    HW251802  14.488  13.846   2.518
16655SOL     OW51803   0.526   4.863  14.763
16655SOL    HW151804   0.567   4.777  14.769
16655SOL    HW251805   0.471   4.858  14.684
16656SOL     OW51806   2.701  12.466   6.330
16656SOL    HW151807   2.640  12.538   6.316
16656SOL    HW251808   2.690  12.410   6.253
16657SOL     OW51809  10.008   9.156   8.913
16657SOL    HW151810  10.076   9.119   8.857
16657SOL    HW251811   9.930   9.158   8.858
16658SOL     OW51812   3.691   9.036   7.319
16658SOL    HW151813   3.645   8.975   7.261
16658SOL    HW251814   3.711   9.112   7.264
16659SOL     OW51815   5.547  12.817  12.914
16659SOL    HW151816   5.506  12.903  12.901
16659SOL    HW251817   5.511  12.786  12.996
16660SOL     OW51818   2.310   3.392   6.760
16660SOL    HW151819   2.226   3.406   6.803
16660SOL    HW251820   2.356   3.475   6.768
16661SOL     OW51821   4.930   6.154   0.667
16661SOL    HW151822   4.852   6.164   0.721
16661SOL    HW251823   4.988   6.225   0.694
16662SOL     OW51824   8.151   1.017  14.735
16662SOL    HW151825   8.108   0.985  14.814
16662SOL    HW251826   8.170   1.109  14.754
16663SOL     OW51827   0.353   2.174   2.015
16663SOL    HW151828   0.330   2.138   2.102
16663SOL    HW251829   0.411   2.247   2.034
16664SOL     OW51830   6.849   8.976   8.942
16664SOL    HW151831   6.796   9.056   8.947
16664SOL    HW251832   6.905   8.989   8.865
16665SOL     OW51833  10.767  12.106  11.085
16665SOL    HW151834  10.812  12.117  11.002
16665SOL    HW251835  10.691  12.164  11.079
16666SOL     OW51836  11.096  12.390  11.978
16666SOL    HW151837  11.132  12.307  12.009
16666SOL    HW251838  11.149  12.457  12.021
16667SOL     OW51839  10.765   2.125   9.222
16667SOL    HW151840  10.717   2.121   9.304
16667SOL    HW251841  10.706   2.087   9.157
16668SOL     OW51842   0.349   2.792  13.948
16668SOL    HW151843   0.407   2.862  13.978
16668SOL    HW251844   0.361   2.722  14.013
16669SOL     OW51845   4.076   9.228   0.041
16669SOL    HW151846   4.007   9.294   0.047
16669SOL    HW251847   4.140   9.266  14.854
16670SOL     OW51848   0.473  14.103   9.027
16670SOL    HW151849   0.537  14.139   9.089
16670SOL    HW251850   0.494  14.010   9.023
16671SOL     OW51851   7.681  13.776   9.707
16671SOL    HW151852   7.724  13.808   9.627
16671SOL    HW251853   7.636  13.853   9.742
16672SOL     OW51854   4.848   5.237  11.166
16672SOL    HW151855   4.904   5.250  11.242
16672SOL    HW251856   4.891   5.167  11.116
16673SOL     OW51857  10.618   6.957   5.104
16673SOL    HW151858  10.652   6.919   5.185
16673SOL    HW251859  10.680   7.027   5.082
16674SOL     OW51860   3.546   2.672   4.046
16674SOL    HW151861   3.516   2.621   4.121
16674SOL    HW251862   3.473   2.668   3.984
16675SOL     OW51863   4.880   0.766   1.221
16675SOL    HW151864   4.942   0.839   1.215
16675SOL    HW251865   4.881   0.742   1.314
16676SOL     OW51866   7.708   5.158  10.025
16676SOL    HW151867   7.659   5.188   9.948
16676SOL    HW251868   7.792   5.204  10.018
16677SOL     OW51869  12.571   6.966   6.198
16677SOL    HW151870  12.487   6.932   6.168
16677SOL    HW251871  12.570   6.952   6.293
16678SOL     OW51872  12.026  12.983   2.507
16678SOL    HW151873  12.106  12.976   2.456
16678SOL    HW251874  12.016  13.077   2.523
16679SOL     OW51875   7.979   8.165   5.006
16679SOL    HW151876   8.024   8.099   5.059
16679SOL    HW251877   8.050   8.217   4.968
16680SOL     OW51878   6.400   3.783   6.679
16680SOL    HW151879   6.319   3.812   6.720
16680SOL    HW251880   6.465   3.786   6.749
16681SOL     OW51881  11.284   2.882   0.277
16681SOL    HW151882  11.290   2.786   0.278
16681SOL    HW251883  11.358   2.910   0.222
16682SOL     OW51884   7.296   7.450   3.860
16682SOL    HW151885   7.296   7.491   3.947
16682SOL    HW251886   7.205   7.456   3.831
16683SOL     OW51887   5.977  12.973  11.664
16683SOL    HW151888   5.971  13.066  11.685
16683SOL    HW251889   6.038  12.970  11.590
16684SOL     OW51890  14.296   9.829   0.655
16684SOL    HW151891  14.257   9.809   0.740
16684SOL    HW251892  14.232   9.798   0.591
16685SOL     OW51893   1.244   3.876   6.913
16685SOL    HW151894   1.302   3.806   6.883
16685SOL    HW251895   1.169   3.829   6.950
16686SOL     OW51896  14.195  11.727   1.673
16686SOL    HW151897  14.179  11.804   1.728
16686SOL    HW251898  14.261  11.677   1.721
16687SOL     OW51899  14.641   7.392   2.883
16687SOL    HW151900  14.681   7.477   2.869
16687SOL    HW251901  14.641   7.380   2.978
16688SOL     OW51902   8.359  13.955   3.133
16688SOL    HW151903   8.288  13.909   3.088
16688SOL    HW251904   8.325  13.973   3.220
16689SOL     OW51905  10.543   7.598   6.037
16689SOL    HW151906  10.598   7.598   5.958
16689SOL    HW251907  10.455   7.580   6.005
16690SOL     OW51908   3.501   3.564  14.080
16690SOL    HW151909   3.496   3.569  13.985
16690SOL    HW251910   3.409   3.558  14.108
16691SOL     OW51911  10.929   0.457   7.303
16691SOL    HW151912  10.890   0.509   7.374
16691SOL    HW251913  10.854   0.420   7.257
16692SOL     OW51914  12.547  12.970   8.837
16692SOL    HW151915  12.509  13.023   8.766
16692SOL    HW251916  12.508  13.005   8.917
16693SOL     OW51917  13.472  12.486  14.735
16693SOL    HW151918  13.379  12.507  14.727
16693SOL    HW251919  13.484  12.408  14.682
16694SOL     OW51920   8.142   9.943  10.097
16694SOL    HW151921   8.070   9.882  10.078
16694SOL    HW251922   8.122  10.020  10.044
16695SOL     OW51923   9.317   3.534   5.193
16695SOL    HW151924   9.324   3.629   5.191
16695SOL    HW251925   9.226   3.517   5.214
16696SOL     OW51926   8.851  12.930   0.271
16696SOL    HW151927   8.890  12.990   0.208
16696SOL    HW251928   8.920  12.915   0.336
16697SOL     OW51929   2.469   9.997  10.479
16697SOL    HW151930   2.441   9.937  10.410
16697SOL    HW251931   2.551   9.959  10.511
16698SOL     OW51932   9.154   3.789   2.550
16698SOL    HW151933   9.185   3.840   2.475
16698SOL    HW251934   9.067   3.759   2.525
16699SOL     OW51935  10.176  14.367   9.092
16699SOL    HW151936  10.158  14.441   9.149
16699SOL    HW251937  10.150  14.290   9.142
16700SOL     OW51938  14.740  13.318   1.640
16700SOL    HW151939  14.654  13.334   1.602
16700SOL    HW251940  14.769  13.404   1.671
16701SOL     OW51941   9.426   6.780  10.347
16701SOL    HW151942   9.477   6.794  10.427
16701SOL    HW251943   9.336   6.774  10.376
16702SOL     OW51944   8.761   0.038   5.194
16702SOL    HW151945   8.779  14.818   5.200
16702SOL    HW251946   8.701   0.047   5.121
16703SOL     OW51947   9.093   4.038  10.354
16703SOL    HW151948   9.100   3.971  10.422
16703SOL    HW251949   9.031   4.002  10.291
16704SOL     OW51950   5.390   8.316   7.543
16704SOL    HW151951   5.334   8.287   7.615
16704SOL    HW251952   5.333   8.371   7.489
16705SOL     OW51953   7.102  11.059   5.323
16705SOL    HW151954   7.180  11.066   5.268
16705SOL    HW251955   7.136  11.042   5.411
16706SOL     OW51956  10.422   9.444  14.602
16706SOL    HW151957  10.395   9.520  14.549
16706SOL    HW251958  10.353   9.435  14.667
16707SOL     OW51959   0.578   2.634   2.414
16707SOL    HW151960   0.486   2.608   2.402
16707SOL    HW251961   0.595   2.693   2.341
16708SOL     OW51962  11.438  13.368   7.237
16708SOL    HW151963  11.440  13.370   7.332
16708SOL    HW251964  11.385  13.291   7.216
16709SOL     OW51965  10.779   6.969  12.060
16709SOL    HW151966  10.811   7.042  12.112
16709SOL    HW251967  10.780   6.894  12.119
16710SOL     OW51968  14.371  12.054   8.164
16710SOL    HW151969  14.386  11.975   8.217
16710SOL    HW251970  14.294  12.095   8.203
16711SOL     OW51971  10.074  12.055  11.449
16711SOL    HW151972  10.007  12.024  11.510
16711SOL    HW251973  10.149  12.075  11.504
16712SOL     OW51974  10.767   8.822   1.499
16712SOL    HW151975  10.832   8.755   1.477
16712SOL    HW251976  10.765   8.879   1.423
16713SOL     OW51977  14.214  10.573   5.112
16713SOL    HW151978  14.137  10.598   5.061
16713SOL    HW251979  14.185  10.580   5.203
16714SOL     OW51980   5.866   1.218  11.161
16714SOL    HW151981   5.959   1.204  11.146
16714SOL    HW251982   5.825   1.134  11.139
16715SOL     OW51983   2.268   6.823  13.936
16715SOL    HW151984   2.210   6.884  13.890
16715SOL    HW251985   2.356   6.855  13.916
16716SOL     OW51986   7.496   7.958  11.574
16716SOL    HW151987   7.430   7.890  11.560
16716SOL    HW251988   7.576   7.922  11.536
16717SOL     OW51989   2.407  12.849   3.635
16717SOL    HW151990   2.452  12.930   3.613
16717SOL    HW251991   2.387  12.857   3.728
16718SOL     OW51992   9.296  13.409   7.113
16718SOL    HW151993   9.289  13.354   7.191
16718SOL    HW251994   9.390  13.425   7.103
16719SOL     OW51995   9.610  10.572  13.361
16719SOL    HW151996   9.610  10.623  13.280
16719SOL    HW251997   9.645  10.487  13.335
16720SOL     OW51998   7.714   5.481   9.761
16720SOL    HW151999   7.743   5.566   9.728
16720SOL    HW252000   7.704   5.494   9.855
16721SOL     OW52001   9.620  10.746  11.879
16721SOL    HW152002   9.601  10.838  11.861
16721SOL    HW252003   9.546  10.698  11.843
16722SOL     OW52004   6.187  12.626   3.235
16722SOL    HW152005   6.220  12.684   3.167
16722SOL    HW252006   6.232  12.654   3.315
16723SOL     OW52007   2.950   1.723   1.970
16723SOL    HW152008   2.892   1.760   1.904
16723SOL    HW252009   3.007   1.663   1.922
16724SOL     OW52010  11.543   4.615   7.856
16724SOL    HW152011  11.473   4.675   7.879
16724SOL    HW252012  11.615   4.671   7.827
16725SOL     OW52013   0.722   9.311   5.390
16725SOL    HW152014   0.790   9.252   5.358
16725SOL    HW252015   0.765   9.397   5.394
16726SOL     OW52016  11.378   3.596  14.273
16726SOL    HW152017  11.323   3.562  14.202
16726SOL    HW252018  11.450   3.533  14.279
16727SOL     OW52019  11.983   1.496   8.939
16727SOL    HW152020  12.073   1.472   8.918
16727SOL    HW252021  11.939   1.504   8.854
16728SOL     OW52022   0.854  10.312   1.844
16728SOL    HW152023   0.948  10.301   1.829
16728SOL    HW252024   0.813  10.292   1.759
16729SOL     OW52025  12.825  12.265   4.398
16729SOL    HW152026  12.868  12.347   4.421
16729SOL    HW252027  12.732  12.283   4.411
16730SOL     OW52028   4.369  14.218  13.338
16730SOL    HW152029   4.427  14.142  13.341
16730SOL    HW252030   4.289  14.188  13.383
16731SOL     OW52031   3.848   7.480  12.936
16731SOL    HW152032   3.884   7.439  12.857
16731SOL    HW252033   3.828   7.570  12.909
16732SOL     OW52034  13.128   4.310   5.020
16732SOL    HW152035  13.204   4.259   5.047
16732SOL    HW252036  13.159   4.362   4.946
16733SOL     OW52037  13.465   4.064   8.374
16733SOL    HW152038  13.512   4.081   8.293
16733SOL    HW252039  13.373   4.059   8.348
16734SOL     OW52040   6.718   6.181  11.087
16734SOL    HW152041   6.739   6.090  11.065
16734SOL    HW252042   6.713   6.182  11.183
16735SOL     OW52043   8.481   9.870  10.065
16735SOL    HW152044   8.393   9.863  10.101
16735SOL    HW252045   8.527   9.930  10.124
16736SOL     OW52046   6.673   5.109   6.464
16736SOL    HW152047   6.718   5.193   6.461
16736SOL    HW252048   6.635   5.105   6.552
16737SOL     OW52049  12.187  11.990   3.340
16737SOL    HW152050  12.269  11.966   3.298
16737SOL    HW252051  12.211  12.007   3.431
16738SOL     OW52052  10.840  11.548   8.611
16738SOL    HW152053  10.863  11.563   8.520
16738SOL    HW252054  10.811  11.457   8.614
16739SOL     OW52055   3.547   2.409   9.093
16739SOL    HW152056   3.518   2.500   9.101
16739SOL    HW252057   3.514   2.382   9.007
16740SOL     OW52058  12.555  12.040  11.200
16740SOL    HW152059  12.466  12.074  11.206
16740SOL    HW252060  12.544  11.945  11.202
16741SOL     OW52061   7.553  14.461  13.277
16741SOL    HW152062   7.470  14.433  13.239
16741SOL    HW252063   7.541  14.555  13.293
16742SOL     OW52064   5.606  11.971   7.433
16742SOL    HW152065   5.586  11.978   7.340
16742SOL    HW252066   5.535  11.917   7.469
16743SOL     OW52067  13.276  14.030   1.088
16743SOL    HW152068  13.332  13.994   1.019
16743SOL    HW252069  13.301  13.983   1.167
16744SOL     OW52070   0.716  13.168   9.053
16744SOL    HW152071   0.687  13.138   8.967
16744SOL    HW252072   0.749  13.089   9.096
16745SOL     OW52073   1.137   0.340   3.083
16745SOL    HW152074   1.119   0.400   3.011
16745SOL    HW252075   1.174   0.262   3.040
16746SOL     OW52076   1.263   4.598   6.611
16746SOL    HW152077   1.322   4.523   6.597
16746SOL    HW252078   1.250   4.600   6.706
16747SOL     OW52079   6.874  12.974  10.438
16747SOL    HW152080   6.912  13.037  10.376
16747SOL    HW252081   6.898  13.008  10.524
16748SOL     OW52082  12.637  14.728   4.794
16748SOL    HW152083  12.709  14.698   4.849
16748SOL    HW252084  12.560  14.727   4.852
16749SOL     OW52085   5.063   9.610   2.771
16749SOL    HW152086   5.124   9.575   2.836
16749SOL    HW252087   5.015   9.679   2.817
16750SOL     OW52088   1.869   1.622  10.858
16750SOL    HW152089   1.962   1.623  10.882
16750SOL    HW252090   1.826   1.571  10.926
16751SOL     OW52091   9.401  11.762   0.098
16751SOL    HW152092   9.312  11.779   0.068
16751SOL    HW252093   9.428  11.843   0.141
16752SOL     OW52094  13.596  11.976  10.610
16752SOL    HW152095  13.580  12.070  10.610
16752SOL    HW252096  13.683  11.965  10.649
16753SOL     OW52097   9.798   8.522  11.726
16753SOL    HW152098   9.730   8.534  11.793
16753SOL    HW252099   9.842   8.607  11.722
16754SOL     OW52100  13.331   0.848   9.755
16754SOL    HW152101  13.386   0.925   9.747
16754SOL    HW252102  13.392   0.774   9.748
16755SOL     OW52103   5.639   8.181  11.430
16755SOL    HW152104   5.573   8.139  11.484
16755SOL    HW252105   5.617   8.156  11.341
16756SOL     OW52106  14.634   9.316   5.541
16756SOL    HW152107  14.667   9.330   5.630
16756SOL    HW252108  14.629   9.221   5.532
16757SOL     OW52109  11.355  10.966  11.833
16757SOL    HW152110  11.448  10.943  11.829
16757SOL    HW252111  11.311  10.898  11.782
16758SOL     OW52112   5.227   6.756   8.872
16758SOL    HW152113   5.322   6.747   8.879
16758SOL    HW252114   5.195   6.667   8.865
16759SOL     OW52115  11.443   7.190   7.056
16759SOL    HW152116  11.474   7.114   7.104
16759SOL    HW252117  11.349   7.173   7.043
16760SOL     OW52118   7.118   5.003   7.718
16760SOL    HW152119   7.110   4.913   7.749
16760SOL    HW252120   7.202   5.005   7.671
16761SOL     OW52121   5.765   4.012   3.731
16761SOL    HW152122   5.675   3.987   3.752
16761SOL    HW252123   5.789   3.955   3.657
16762SOL     OW52124   2.152  11.594   0.811
16762SOL    HW152125   2.114  11.508   0.831
16762SOL    HW252126   2.078  11.647   0.782
16763SOL     OW52127  12.349   3.753   2.309
16763SOL    HW152128  12.422   3.808   2.338
16763SOL    HW252129  12.294   3.743   2.387
16764SOL     OW52130   5.920   2.059   9.183
16764SOL    HW152131   5.991   2.117   9.155
16764SOL    HW252132   5.957   2.010   9.257
16765SOL     OW52133  11.001  14.776  10.634
16765SOL    HW152134  11.009  14.684  10.662
16765SOL    HW252135  10.951  14.818  10.704
16766SOL     OW52136   5.066   8.679   1.355
16766SOL    HW152137   5.000   8.743   1.383
16766SOL    HW252138   5.110   8.721   1.281
16767SOL     OW52139   7.118   4.556  11.629
16767SOL    HW152140   7.172   4.591  11.699
16767SOL    HW252141   7.176   4.552  11.553
16768SOL     OW52142   1.941   5.987   1.103
16768SOL    HW152143   1.958   5.897   1.074
16768SOL    HW252144   1.878   5.977   1.175
16769SOL     OW52145   2.631   2.388   7.504
16769SOL    HW152146   2.675   2.410   7.422
16769SOL    HW252147   2.584   2.467   7.528
16770SOL     OW52148  10.896  13.706  10.605
16770SOL    HW152149  10.816  13.693  10.553
16770SOL    HW252150  10.967  13.678  10.547
16771SOL     OW52151   4.094   8.356   5.326
16771SOL    HW152152   4.144   8.436   5.345
16771SOL    HW252153   4.161   8.294   5.296
16772SOL     OW52154   8.003   3.416   7.097
16772SOL    HW152155   8.007   3.479   7.025
16772SOL    HW252156   7.911   3.416   7.124
16773SOL     OW52157   2.897   9.959   8.607
16773SOL    HW152158   2.983   9.921   8.625
16773SOL    HW252159   2.862   9.906   8.535
16774SOL     OW52160   0.734   6.571  13.142
16774SOL    HW152161   0.790   6.493  13.142
16774SOL    HW252162   0.646   6.538  13.158
16775SOL     OW52163   8.678   7.790  12.707
16775SOL    HW152164   8.769   7.815  12.724
16775SOL    HW252165   8.645   7.860  12.650
16776SOL     OW52166   4.473   3.755  11.972
16776SOL    HW152167   4.397   3.755  12.031
16776SOL    HW252168   4.539   3.703  12.018
16777SOL     OW52169  11.122   1.184   0.827
16777SOL    HW152170  11.058   1.252   0.848
16777SOL    HW252171  11.077   1.127   0.765
16778SOL     OW52172  10.189   9.809   1.482
16778SOL    HW152173  10.255   9.858   1.434
16778SOL    HW252174  10.106   9.833   1.440
16779SOL     OW52175   4.998   0.867  11.108
16779SOL    HW152176   4.907   0.856  11.078
16779SOL    HW252177   5.045   0.898  11.031
16780SOL     OW52178   6.083  13.537   1.385
16780SOL    HW152179   6.072  13.473   1.455
16780SOL    HW252180   6.178  13.548   1.378
16781SOL     OW52181   4.872   2.137   8.824
16781SOL    HW152182   4.855   2.229   8.807
16781SOL    HW252183   4.832   2.091   8.751
16782SOL     OW52184  11.973   3.103   5.609
16782SOL    HW152185  12.037   3.117   5.540
16782SOL    HW252186  12.015   3.042   5.669
16783SOL     OW52187   4.879  10.089   9.697
16783SOL    HW152188   4.855   9.998   9.713
16783SOL    HW252189   4.950  10.107   9.758
16784SOL     OW52190   4.447   7.876  12.278
16784SOL    HW152191   4.424   7.891  12.369
16784SOL    HW252192   4.365   7.852  12.236
16785SOL     OW52193   6.143  10.291   8.399
16785SOL    HW152194   6.130  10.204   8.362
16785SOL    HW252195   6.196  10.337   8.335
16786SOL     OW52196   8.503   4.794  13.215
16786SOL    HW152197   8.536   4.862  13.156
16786SOL    HW252198   8.410   4.815  13.226
16787SOL     OW52199   9.804  11.750   0.674
16787SOL    HW152200   9.742  11.680   0.657
16787SOL    HW252201   9.878  11.731   0.617
16788SOL     OW52202   2.197  11.497   3.213
16788SOL    HW152203   2.278  11.448   3.195
16788SOL    HW252204   2.222  11.589   3.203
16789SOL     OW52205  13.257  14.003   7.796
16789SOL    HW152206  13.290  13.981   7.708
16789SOL    HW252207  13.302  13.942   7.854
16790SOL     OW52208   2.724  11.719  12.220
16790SOL    HW152209   2.653  11.782  12.208
16790SOL    HW252210   2.794  11.769  12.263
16791SOL     OW52211  12.547   9.137   1.917
16791SOL    HW152212  12.541   9.173   1.829
16791SOL    HW252213  12.494   9.057   1.915
16792SOL     OW52214   7.177  12.863   9.024
16792SOL    HW152215   7.246  12.878   9.089
16792SOL    HW252216   7.215  12.894   8.942
16793SOL     OW52217   7.834  12.471  10.903
16793SOL    HW152218   7.883  12.442  10.826
16793SOL    HW252219   7.863  12.562  10.916
16794SOL     OW52220  13.885  13.157   9.953
16794SOL    HW152221  13.831  13.080   9.935
16794SOL    HW252222  13.841  13.201  10.025
16795SOL     OW52223   9.663   4.388  10.833
16795SOL    HW152224   9.590   4.338  10.796
16795SOL    HW252225   9.682   4.344  10.916
16796SOL     OW52226   3.408  14.679   9.593
16796SOL    HW152227   3.456  14.596   9.595
16796SOL    HW252228   3.454  14.735   9.656
16797SOL     OW52229  10.256   9.591   6.735
16797SOL    HW152230  10.308   9.605   6.815
16797SOL    HW252231  10.183   9.537   6.764
16798SOL     OW52232   0.915  13.720  10.255
16798SOL    HW152233   0.850  13.765  10.308
16798SOL    HW252234   0.997  13.766  10.273
16799SOL     OW52235   0.268   7.944   5.372
16799SOL    HW152236   0.249   7.933   5.466
16799SOL    HW252237   0.336   8.011   5.369
16800SOL     OW52238  10.491   4.747   4.685
16800SOL    HW152239  10.551   4.703   4.625
16800SOL    HW252240  10.455   4.677   4.739
16801SOL     OW52241  12.057   3.779  12.413
16801SOL    HW152242  12.095   3.692  12.404
16801SOL    HW252243  11.975   3.774  12.364
16802SOL     OW52244   9.324  14.494   2.862
16802SOL    HW152245   9.269  14.416   2.862
16802SOL    HW252246   9.266  14.564   2.830
16803SOL     OW52247  11.402   4.286   1.261
16803SOL    HW152248  11.426   4.198   1.232
16803SOL    HW252249  11.331   4.272   1.324
16804SOL     OW52250  11.106  12.737   4.645
16804SOL    HW152251  11.181  12.683   4.620
16804SOL    HW252252  11.039  12.716   4.580
16805SOL     OW52253  11.282  10.611   7.030
16805SOL    HW152254  11.271  10.697   6.990
16805SOL    HW252255  11.366  10.580   6.997
16806SOL     OW52256   7.458   7.702   7.776
16806SOL    HW152257   7.492   7.787   7.804
16806SOL    HW252258   7.515   7.638   7.818
16807SOL     OW52259   9.510  13.587  11.190
16807SOL    HW152260   9.585  13.533  11.214
16807SOL    HW252261   9.542  13.641  11.117
16808SOL     OW52262   7.889   6.193  12.452
16808SOL    HW152263   7.826   6.195  12.524
16808SOL    HW252264   7.905   6.285  12.431
16809SOL     OW52265   9.617   2.762   1.800
16809SOL    HW152266   9.680   2.832   1.816
16809SOL    HW252267   9.616   2.711   1.880
16810SOL     OW52268  13.051   6.867  10.860
16810SOL    HW152269  13.131   6.815  10.846
16810SOL    HW252270  12.982   6.802  10.874
16811SOL     OW52271  14.322  13.740   1.702
16811SOL    HW152272  14.378  13.725   1.778
16811SOL    HW252273  14.258  13.668   1.705
16812SOL     OW52274   4.391  12.743   3.383
16812SOL    HW152275   4.393  12.710   3.293
16812SOL    HW252276   4.360  12.668   3.435
16813SOL     OW52277   2.239   9.133   4.414
16813SOL    HW152278   2.329   9.127   4.382
16813SOL    HW252279   2.246   9.175   4.499
16814SOL     OW52280   3.859   9.312  11.289
16814SOL    HW152281   3.798   9.256  11.241
16814SOL    HW252282   3.926   9.251  11.322
16815SOL     OW52283   0.083   5.992   9.078
16815SOL    HW152284   0.053   6.081   9.062
16815SOL    HW252285   0.161   6.003   9.133
16816SOL     OW52286  10.883   6.091   1.614
16816SOL    HW152287  10.957   6.103   1.674
16816SOL    HW252288  10.853   6.001   1.630
16817SOL     OW52289  13.336  11.333   4.265
16817SOL    HW152290  13.331  11.426   4.245
16817SOL    HW252291  13.319  11.289   4.182
16818SOL     OW52292   4.986  13.032   5.928
16818SOL    HW152293   4.933  12.964   5.967
16818SOL    HW252294   5.041  12.986   5.864
16819SOL     OW52295   2.577   5.469  12.120
16819SOL    HW152296   2.641   5.539  12.108
16819SOL    HW252297   2.577   5.422  12.036
16820SOL     OW52298  14.773   9.681   8.981
16820SOL    HW152299  14.689   9.655   8.943
16820SOL    HW252300  14.752   9.758   9.033
16821SOL     OW52301   4.259   7.127   9.522
16821SOL    HW152302   4.336   7.070   9.530
16821SOL    HW252303   4.293   7.207   9.481
16822SOL     OW52304   7.696   1.127   6.325
16822SOL    HW152305   7.691   1.033   6.310
16822SOL    HW252306   7.753   1.160   6.256
16823SOL     OW52307  11.522   7.372   3.555
16823SOL    HW152308  11.579   7.371   3.478
16823SOL    HW252309  11.570   7.321   3.620
16824SOL     OW52310  12.649   4.123   8.805
16824SOL    HW152311  12.570   4.084   8.769
16824SOL    HW252312  12.621   4.164   8.887
16825SOL     OW52313  10.350  14.687   1.698
16825SOL    HW152314  10.344  14.779   1.671
16825SOL    HW252315  10.408  14.647   1.634
16826SOL     OW52316   0.779  10.141   5.768
16826SOL    HW152317   0.845  10.079   5.738
16826SOL    HW252318   0.818  10.227   5.752
16827SOL     OW52319  13.314   9.176  14.771
16827SOL    HW152320  13.335   9.093  14.813
16827SOL    HW252321  13.398   9.207  14.737
16828SOL     OW52322   0.196  14.176   8.223
16828SOL    HW152323   0.171  14.268   8.237
16828SOL    HW252324   0.122  14.126   8.257
16829SOL     OW52325   2.206   2.366   2.551
16829SOL    HW152326   2.145   2.439   2.538
16829SOL    HW252327   2.258   2.364   2.471
16830SOL     OW52328   7.629   4.897   0.221
16830SOL    HW152329   7.555   4.908   0.162
16830SOL    HW252330   7.592   4.904   0.309
16831SOL     OW52331   1.564   5.073   8.388
16831SOL    HW152332   1.519   5.158   8.387
16831SOL    HW252333   1.608   5.068   8.303
16832SOL     OW52334   2.271   5.474   3.929
16832SOL    HW152335   2.298   5.502   3.842
16832SOL    HW252336   2.349   5.435   3.967
16833SOL     OW52337   1.185  14.094   9.889
16833SOL    HW152338   1.139  14.012   9.904
16833SOL    HW252339   1.184  14.138   9.974
16834SOL     OW52340   0.399   5.595   3.824
16834SOL    HW152341   0.421   5.677   3.868
16834SOL    HW252342   0.460   5.591   3.750
16835SOL     OW52343  14.353  12.280  10.055
16835SOL    HW152344  14.275  12.265  10.108
16835SOL    HW252345  14.359  12.376  10.049
16836SOL     OW52346   2.089   1.992  14.542
16836SOL    HW152347   2.134   1.909  14.558
16836SOL    HW252348   2.020   1.996  14.608
16837SOL     OW52349  13.366   1.835   6.847
16837SOL    HW152350  13.429   1.893   6.889
16837SOL    HW252351  13.387   1.841   6.753
16838SOL     OW52352   4.889  13.240   0.013
16838SOL    HW152353   4.920  13.161   0.059
16838SOL    HW252354   4.842  13.289   0.080
16839SOL     OW52355  12.043  10.904   4.053
16839SOL    HW152356  12.032  10.905   4.148
16839SOL    HW252357  12.132  10.939   4.040
16840SOL     OW52358   3.689   6.305   3.612
16840SOL    HW152359   3.726   6.381   3.567
16840SOL    HW252360   3.671   6.335   3.701
16841SOL     OW52361   3.658  10.282  12.429
16841SOL    HW152362   3.573  10.239  12.439
16841SOL    HW252363   3.693  10.247  12.347
16842SOL     OW52364   8.315  11.502   8.554
16842SOL    HW152365   8.310  11.558   8.476
16842SOL    HW252366   8.227  11.463   8.560
16843SOL     OW52367  10.742   8.847   5.295
16843SOL    HW152368  10.728   8.933   5.335
16843SOL    HW252369  10.659   8.801   5.308
16844SOL     OW52370  13.341  14.742  11.538
16844SOL    HW152371  13.341  14.729  11.443
16844SOL    HW252372  13.249  14.753  11.560
16845SOL     OW52373   3.673  14.645  12.762
16845SOL    HW152374   3.696  14.706  12.692
16845SOL    HW252375   3.756  14.603  12.784
16846SOL     OW52376   5.949   0.035  10.395
16846SOL    HW152377   5.928  14.845  10.326
16846SOL    HW252378   6.019   0.089  10.358
16847SOL     OW52379   3.925  11.048  12.325
16847SOL    HW152380   3.965  10.964  12.299
16847SOL    HW252381   3.988  11.087  12.385
16848SOL     OW52382   0.425   1.482   9.245
16848SOL    HW152383   0.467   1.556   9.290
16848SOL    HW252384   0.405   1.515   9.158
16849SOL     OW52385  14.785   2.756   7.571
16849SOL    HW152386  14.828   2.671   7.582
16849SOL    HW252387  14.845   2.818   7.613
16850SOL     OW52388  14.766   7.536   1.454
16850SOL    HW152389  14.690   7.520   1.399
16850SOL    HW252390  14.756   7.627   1.483
16851SOL     OW52391  14.661   5.093  12.841
16851SOL    HW152392  14.570   5.093  12.872
16851SOL    HW252393  14.697   5.010  12.873
16852SOL     OW52394   6.603  11.668   1.438
16852SOL    HW152395   6.678  11.617   1.407
16852SOL    HW252396   6.628  11.759   1.423
16853SOL     OW52397  13.427  13.203  10.139
16853SOL    HW152398  13.378  13.256  10.203
16853SOL    HW252399  13.361  13.145  10.101
16854SOL     OW52400  12.393   7.946  14.399
16854SOL    HW152401  12.307   7.986  14.413
16854SOL    HW252402  12.375   7.852  14.397
16855SOL     OW52403   2.296   5.698   1.848
16855SOL    HW152404   2.366   5.632   1.856
16855SOL    HW252405   2.225   5.652   1.804
16856SOL     OW52406   7.152  12.571  13.114
16856SOL    HW152407   7.150  12.487  13.159
16856SOL    HW252408   7.185  12.633  13.179
16857SOL     OW52409   3.375  10.091  11.318
16857SOL    HW152410   3.331  10.031  11.258
16857SOL    HW252411   3.328  10.081  11.401
16858SOL     OW52412   8.387   2.137   0.365
16858SOL    HW152413   8.428   2.051   0.361
16858SOL    HW252414   8.453   2.197   0.332
16859SOL     OW52415   0.695   6.365   7.935
16859SOL    HW152416   0.709   6.339   8.026
16859SOL    HW252417   0.611   6.410   7.936
16860SOL     OW52418   0.579  13.033  13.243
16860SOL    HW152419   0.513  12.979  13.286
16860SOL    HW252420   0.604  13.097  13.309
16861SOL     OW52421   4.897  11.878  10.956
16861SOL    HW152422   4.956  11.847  11.025
16861SOL    HW252423   4.821  11.913  11.004
16862SOL     OW52424   1.509  13.851   0.751
16862SOL    HW152425   1.552  13.824   0.670
16862SOL    HW252426   1.532  13.943   0.761
16863SOL     OW52427   0.037  12.174   1.624
16863SOL    HW152428   0.011  12.085   1.646
16863SOL    HW252429   0.101  12.163   1.553
16864SOL     OW52430  11.116   1.668   0.581
16864SOL    HW152431  11.032   1.631   0.553
16864SOL    HW252432  11.147   1.608   0.649
16865SOL     OW52433   5.536  10.095  11.211
16865SOL    HW152434   5.547  10.027  11.278
16865SOL    HW252435   5.555  10.050  11.128
16866SOL     OW52436   9.446   4.049   3.216
16866SOL    HW152437   9.541   4.045   3.220
16866SOL    HW252438   9.420   3.968   3.172
16867SOL     OW52439   5.324   5.338   1.783
16867SOL    HW152440   5.307   5.282   1.707
16867SOL    HW252441   5.307   5.282   1.859
16868SOL     OW52442  14.727   8.041   4.134
16868SOL    HW152443  14.663   8.005   4.196
16868SOL    HW252444  14.699   8.007   4.049
16869SOL     OW52445   9.563   0.151   2.147
16869SOL    HW152446   9.639   0.161   2.090
16869SOL    HW252447   9.594   0.096   2.219
16870SOL     OW52448   4.836  12.620  10.899
16870SOL    HW152449   4.925  12.610  10.865
16870SOL    HW252450   4.841  12.698  10.954
16871SOL     OW52451   0.405   5.352   8.671
16871SOL    HW152452   0.326   5.298   8.670
16871SOL    HW252453   0.458   5.317   8.599
16872SOL     OW52454   4.348  12.464   2.965
16872SOL    HW152455   4.260  12.493   2.941
16872SOL    HW252456   4.334  12.389   3.023
16873SOL     OW52457  14.820  10.995  11.324
16873SOL    HW152458  14.863  11.024  11.405
16873SOL    HW252459  14.742  10.949  11.354
16874SOL     OW52460   8.418   1.464  11.636
16874SOL    HW152461   8.478   1.435  11.705
16874SOL    HW252462   8.369   1.385  11.612
16875SOL     OW52463   8.766  11.120   4.283
16875SOL    HW152464   8.686  11.143   4.330
16875SOL    HW252465   8.772  11.185   4.213
16876SOL     OW52466   1.556   4.422  14.795
16876SOL    HW152467   1.516   4.371  14.725
16876SOL    HW252468   1.605   4.358  14.846
16877SOL     OW52469   4.687   8.730   9.651
16877SOL    HW152470   4.726   8.768   9.730
16877SOL    HW252471   4.649   8.805   9.605
16878SOL     OW52472  14.381   9.588  14.284
16878SOL    HW152473  14.437   9.597  14.361
16878SOL    HW252474  14.295   9.620  14.314
16879SOL     OW52475   7.856  12.577   3.156
16879SOL    HW152476   7.773  12.608   3.192
16879SOL    HW252477   7.855  12.483   3.170
16880SOL     OW52478   1.023  14.088   3.945
16880SOL    HW152479   0.940  14.057   3.980
16880SOL    HW252480   1.088  14.027   3.981
16881SOL     OW52481   6.531   5.073   8.774
16881SOL    HW152482   6.491   5.116   8.850
16881SOL    HW252483   6.473   5.095   8.702
16882SOL     OW52484   0.942  10.094   0.261
16882SOL    HW152485   0.972  10.075   0.173
16882SOL    HW252486   0.916  10.186   0.258
16883SOL     OW52487  13.487  11.329   7.597
16883SOL    HW152488  13.525  11.251   7.557
16883SOL    HW252489  13.429  11.296   7.666
16884SOL     OW52490   4.116  10.158  14.192
16884SOL    HW152491   4.197  10.116  14.162
16884SOL    HW252492   4.061  10.085  14.221
16885SOL     OW52493   2.783   1.795   4.261
16885SOL    HW152494   2.770   1.797   4.356
16885SOL    HW252495   2.754   1.882   4.231
16886SOL     OW52496   2.877  10.843   7.766
16886SOL    HW152497   2.872  10.783   7.691
16886SOL    HW252498   2.965  10.827   7.802
16887SOL     OW52499  14.434   0.335   9.678
16887SOL    HW152500  14.500   0.267   9.664
16887SOL    HW252501  14.355   0.286   9.704
16888SOL     OW52502   6.988   7.374   6.601
16888SOL    HW152503   6.947   7.353   6.684
16888SOL    HW252504   7.038   7.454   6.617
16889SOL     OW52505  10.419   2.070  10.453
16889SOL    HW152506  10.510   2.098  10.446
16889SOL    HW252507  10.386   2.073  10.363
16890SOL     OW52508   8.257   6.659  13.963
16890SOL    HW152509   8.292   6.748  13.963
16890SOL    HW252510   8.289   6.621  13.881
16891SOL     OW52511   4.798   9.193   2.324
16891SOL    HW152512   4.877   9.144   2.343
16891SOL    HW252513   4.786   9.250   2.400
16892SOL     OW52514   4.430  14.347   8.392
16892SOL    HW152515   4.418  14.256   8.420
16892SOL    HW252516   4.343  14.386   8.401
16893SOL     OW52517   8.634   1.554   1.781
16893SOL    HW152518   8.715   1.503   1.777
16893SOL    HW252519   8.649   1.625   1.718
16894SOL     OW52520   6.206   1.892   5.213
16894SOL    HW152521   6.234   1.874   5.303
16894SOL    HW252522   6.257   1.968   5.187
16895SOL     OW52523   7.164  12.942  13.192
16895SOL    HW152524   7.242  12.988  13.161
16895SOL    HW252525   7.195  12.854  13.214
16896SOL     OW52526   6.008  13.232   0.421
16896SOL    HW152527   5.953  13.215   0.344
16896SOL    HW252528   6.056  13.150   0.435
16897SOL     OW52529   2.709   6.336  14.796
16897SOL    HW152530   2.765   6.276  14.845
16897SOL    HW252531   2.657   6.280  14.739
16898SOL     OW52532   2.027   9.941   6.523
16898SOL    HW152533   1.994   9.913   6.608
16898SOL    HW252534   1.948   9.967   6.474
16899SOL     OW52535   0.534   7.765  14.747
16899SOL    HW152536   0.504   7.674  14.740
16899SOL    HW252537   0.487   7.798  14.824
16900SOL     OW52538   7.403   0.394   0.108
16900SOL    HW152539   7.417   0.300   0.107
16900SOL    HW252540   7.448   0.425   0.186
16901SOL     OW52541  14.762   3.265  13.023
16901SOL    HW152542  14.708   3.329  12.976
16901SOL    HW252543  14.844   3.312  13.040
16902SOL     OW52544   8.713  10.360   9.002
16902SOL    HW152545   8.760  10.415   9.065
16902SOL    HW252546   8.738  10.396   8.916
16903SOL     OW52547   1.978   2.025   4.839
16903SOL    HW152548   1.954   1.934   4.859
16903SOL    HW252549   1.915   2.053   4.773
16904SOL     OW52550   0.543   5.710  11.710
16904SOL    HW152551   0.564   5.668  11.794
16904SOL    HW252552   0.461   5.669  11.683
16905SOL     OW52553   3.167   7.629   9.944
16905SOL    HW152554   3.092   7.585   9.903
16905SOL    HW252555   3.243   7.590   9.901
16906SOL     OW52556   5.164   1.547   7.242
16906SOL    HW152557   5.188   1.630   7.283
16906SOL    HW252558   5.236   1.528   7.182
16907SOL     OW52559  14.497   0.318  10.575
16907SOL    HW152560  14.421   0.271  10.540
16907SOL    HW252561  14.570   0.288  10.522
16908SOL     OW52562   4.995   6.322   7.323
16908SOL    HW152563   4.923   6.373   7.360
16908SOL    HW252564   4.970   6.231   7.338
16909SOL     OW52565   6.977   4.521  13.335
16909SOL    HW152566   6.943   4.600  13.292
16909SOL    HW252567   6.899   4.473  13.363
16910SOL     OW52568   0.012  14.823  10.994
16910SOL    HW152569  14.809  14.826  11.053
16910SOL    HW252570   0.058   0.033  11.010
16911SOL     OW52571   0.432   4.624  12.264
16911SOL    HW152572   0.355   4.658  12.311
16911SOL    HW252573   0.412   4.531  12.250
16912SOL     OW52574   2.673  13.120   9.260
16912SOL    HW152575   2.755  13.100   9.303
16912SOL    HW252576   2.620  13.163   9.327
16913SOL     OW52577   6.776   4.459   3.915
16913SOL    HW152578   6.737   4.391   3.861
16913SOL    HW252579   6.811   4.523   3.852
16914SOL     OW52580   8.262  10.231  11.509
16914SOL    HW152581   8.290  10.159  11.567
16914SOL    HW252582   8.344  10.269  11.477
16915SOL     OW52583   9.429   2.958   6.791
16915SOL    HW152584   9.508   3.010   6.807
16915SOL    HW252585   9.359   3.008   6.833
16916SOL     OW52586   0.416   8.036   8.748
16916SOL    HW152587   0.484   7.969   8.757
16916SOL    HW252588   0.441   8.085   8.670
16917SOL     OW52589  14.749  13.851   4.338
16917SOL    HW152590  14.735  13.939   4.306
16917SOL    HW252591  14.844  13.840   4.341
16918SOL     OW52592  10.879   0.291   5.247
16918SOL    HW152593  10.832   0.350   5.188
16918SOL    HW252594  10.956   0.263   5.196
16919SOL     OW52595   2.852   4.842   2.155
16919SOL    HW152596   2.908   4.910   2.118
16919SOL    HW252597   2.792   4.820   2.083
16920SOL     OW52598   9.126  12.880   4.396
16920SOL    HW152599   9.060  12.824   4.438
16920SOL    HW252600   9.076  12.955   4.365
16921SOL     OW52601  13.372  14.009   4.705
16921SOL    HW152602  13.333  14.022   4.792
16921SOL    HW252603  13.342  13.922   4.679
16922SOL     OW52604  10.793   1.938   8.444
16922SOL    HW152605  10.880   1.941   8.403
16922SOL    HW252606  10.757   2.026   8.430
16923SOL     OW52607   3.047   4.850   8.806
16923SOL    HW152608   2.969   4.804   8.839
16923SOL    HW252609   3.095   4.874   8.885
16924SOL     OW52610   0.513   9.941   1.129
16924SOL    HW152611   0.465   9.860   1.112
16924SOL    HW252612   0.460   9.988   1.193
16925SOL     OW52613   1.121   3.583   1.546
16925SOL    HW152614   1.100   3.605   1.456
16925SOL    HW252615   1.036   3.570   1.589
16926SOL     OW52616  14.153   9.846   0.246
16926SOL    HW152617  14.160   9.930   0.201
16926SOL    HW252618  14.211   9.788   0.197
16927SOL     OW52619   7.369   3.692   5.823
16927SOL    HW152620   7.439   3.667   5.883
16927SOL    HW252621   7.312   3.749   5.874
16928SOL     OW52622   8.317  13.608  11.454
16928SOL    HW152623   8.412  13.617  11.459
16928SOL    HW252624   8.296  13.613  11.361
16929SOL     OW52625   7.916   6.086  14.178
16929SOL    HW152626   7.892   6.179  14.183
16929SOL    HW252627   8.011   6.087  14.164
16930SOL     OW52628  14.028   9.374   5.818
16930SOL    HW152629  13.933   9.382   5.829
16930SOL    HW252630  14.063   9.458   5.849
16931SOL     OW52631   2.624  10.639   9.688
16931SOL    HW152632   2.665  10.649   9.602
16931SOL    HW252633   2.532  10.622   9.669
16932SOL     OW52634  12.997   3.924   9.156
16932SOL    HW152635  12.986   3.829   9.161
16932SOL    HW252636  13.090   3.936   9.135
16933SOL     OW52637   0.788   5.890   6.252
16933SOL    HW152638   0.816   5.841   6.329
16933SOL    HW252639   0.750   5.971   6.287
16934SOL     OW52640   3.009   0.619   0.640
16934SOL    HW152641   2.999   0.533   0.599
16934SOL    HW252642   3.087   0.656   0.598
16935SOL     OW52643   3.144   6.366   2.450
16935SOL    HW152644   3.118   6.458   2.441
16935SOL    HW252645   3.224   6.369   2.502
16936SOL     OW52646   6.978   5.777  14.658
16936SOL    HW152647   6.910   5.820  14.607
16936SOL    HW252648   6.944   5.690  14.677
16937SOL     OW52649  10.370  11.276   8.900
16937SOL    HW152650  10.301  11.337   8.873
16937SOL    HW252651  10.437  11.332   8.939
16938SOL     OW52652   1.983   9.808   9.918
16938SOL    HW152653   2.074   9.822   9.890
16938SOL    HW252654   1.957   9.892   9.955
16939SOL     OW52655  13.442   1.377   5.391
16939SOL    HW152656  13.467   1.307   5.330
16939SOL    HW252657  13.460   1.458   5.344
16940SOL     OW52658   2.247   1.129   8.007
16940SOL    HW152659   2.256   1.198   7.941
16940SOL    HW252660   2.215   1.173   8.085
16941SOL     OW52661   8.055   5.412  10.725
16941SOL    HW152662   8.097   5.362  10.796
16941SOL    HW252663   8.121   5.414  10.656
16942SOL     OW52664  12.433   6.536   7.769
16942SOL    HW152665  12.410   6.451   7.806
16942SOL    HW252666  12.525   6.548   7.791
16943SOL     OW52667  13.295  10.939   8.067
16943SOL    HW152668  13.341  10.948   8.151
16943SOL    HW252669  13.283  11.029   8.036
16944SOL     OW52670   9.700   4.819   5.635
16944SOL    HW152671   9.796   4.812   5.637
16944SOL    HW252672   9.682   4.913   5.633
16945SOL     OW52673  14.446   3.238   6.021
16945SOL    HW152674  14.360   3.270   5.995
16945SOL    HW252675  14.460   3.160   5.966
16946SOL     OW52676   7.030  12.393  10.909
16946SOL    HW152677   6.983  12.469  10.876
16946SOL    HW252678   7.123  12.417  10.902
16947SOL     OW52679  10.239  12.696   3.837
16947SOL    HW152680  10.236  12.720   3.744
16947SOL    HW252681  10.299  12.622   3.840
16948SOL     OW52682   9.208  10.695  11.034
16948SOL    HW152683   9.139  10.653  11.085
16948SOL    HW252684   9.289  10.668  11.076
16949SOL     OW52685   0.350   1.534  10.790
16949SOL    HW152686   0.381   1.552  10.879
16949SOL    HW252687   0.257   1.553  10.792
16950SOL     OW52688   7.995   7.790   1.686
16950SOL    HW152689   8.063   7.831   1.739
16950SOL    HW252690   8.009   7.825   1.598
16951SOL     OW52691   1.059  10.570   9.271
16951SOL    HW152692   0.987  10.627   9.245
16951SOL    HW252693   1.023  10.481   9.265
16952SOL     OW52694   0.257   3.743   8.920
16952SOL    HW152695   0.203   3.787   8.985
16952SOL    HW252696   0.211   3.660   8.904
16953SOL     OW52697   0.608   1.318   2.205
16953SOL    HW152698   0.530   1.357   2.165
16953SOL    HW252699   0.601   1.225   2.183
16954SOL     OW52700  10.216   1.423  11.722
16954SOL    HW152701  10.128   1.389  11.739
16954SOL    HW252702  10.254   1.361  11.659
16955SOL     OW52703   4.341   4.147  12.560
16955SOL    HW152704   4.331   4.198  12.641
16955SOL    HW252705   4.279   4.185  12.499
16956SOL     OW52706  13.177  10.948   9.674
16956SOL    HW152707  13.270  10.936   9.693
16956SOL    HW252708  13.174  11.021   9.612
16957SOL     OW52709   7.697   7.098   0.274
16957SOL    HW152710   7.661   7.037   0.209
16957SOL    HW252711   7.762   7.149   0.224
16958SOL     OW52712  14.839  10.635   0.100
16958SOL    HW152713  14.870  10.710   0.049
16958SOL    HW252714  14.743  10.644   0.100
16959SOL     OW52715   4.322   4.152   3.554
16959SOL    HW152716   4.373   4.071   3.561
16959SOL    HW252717   4.381   4.221   3.584
16960SOL     OW52718   2.338   7.945  12.425
16960SOL    HW152719   2.326   7.856  12.457
16960SOL    HW252720   2.262   7.993  12.458
16961SOL     OW52721   7.716  10.966   6.667
16961SOL    HW152722   7.691  11.055   6.691
16961SOL    HW252723   7.634  10.924   6.642
16962SOL     OW52724  13.950   7.052  13.889
16962SOL    HW152725  13.895   7.041  13.812
16962SOL    HW252726  14.035   7.077  13.855
16963SOL     OW52727   9.840   9.330   7.256
16963SOL    HW152728   9.826   9.246   7.214
16963SOL    HW252729   9.934   9.346   7.247
16964SOL     OW52730   4.752   4.859   2.517
16964SOL    HW152731   4.796   4.937   2.481
16964SOL    HW252732   4.823   4.799   2.539
16965SOL     OW52733   1.390   9.978   4.007
16965SOL    HW152734   1.346  10.012   3.929
16965SOL    HW252735   1.466   9.930   3.973
16966SOL     OW52736  12.924  12.814   5.103
16966SOL    HW152737  12.952  12.741   5.159
16966SOL    HW252738  12.988  12.883   5.120
16967SOL     OW52739  13.036  12.516   0.386
16967SOL    HW152740  13.036  12.601   0.341
16967SOL    HW252741  13.083  12.458   0.326
16968SOL     OW52742   0.996   8.268   6.240
16968SOL    HW152743   1.088   8.293   6.237
16968SOL    HW252744   0.951   8.347   6.270
16969SOL     OW52745   3.405   2.284   3.255
16969SOL    HW152746   3.442   2.270   3.168
16969SOL    HW252747   3.464   2.237   3.314
16970SOL     OW52748   3.840  12.412  10.808
16970SOL    HW152749   3.753  12.373  10.809
16970SOL    HW252750   3.861  12.423  10.715
16971SOL     OW52751   6.683  13.740  11.139
16971SOL    HW152752   6.620  13.800  11.179
16971SOL    HW252753   6.766  13.761  11.180
16972SOL     OW52754   5.249   7.437   1.817
16972SOL    HW152755   5.277   7.348   1.836
16972SOL    HW252756   5.329   7.484   1.794
16973SOL     OW52757  11.198   5.196  11.734
16973SOL    HW152758  11.234   5.184  11.822
16973SOL    HW252759  11.129   5.262  11.745
16974SOL     OW52760   9.872   1.758   8.643
16974SOL    HW152761   9.919   1.744   8.560
16974SOL    HW252762   9.916   1.833   8.683
16975SOL     OW52763  11.952   8.526   1.734
16975SOL    HW152764  12.038   8.520   1.692
16975SOL    HW252765  11.903   8.587   1.679
16976SOL     OW52766   3.102   5.725   4.256
16976SOL    HW152767   3.082   5.816   4.234
16976SOL    HW252768   3.051   5.708   4.335
16977SOL     OW52769   2.794   5.778   2.776
16977SOL    HW152770   2.713   5.783   2.725
16977SOL    HW252771   2.860   5.820   2.720
16978SOL     OW52772  13.922  11.485   6.952
16978SOL    HW152773  13.974  11.563   6.932
16978SOL    HW252774  13.877  11.506   7.034
16979SOL     OW52775   7.242  13.627   5.651
16979SOL    HW152776   7.323  13.638   5.602
16979SOL    HW252777   7.173  13.649   5.589
16980SOL     OW52778   4.991  13.853   2.053
16980SOL    HW152779   5.066  13.905   2.022
16980SOL    HW252780   4.936  13.915   2.101
16981SOL     OW52781   8.376   5.421   0.754
16981SOL    HW152782   8.335   5.408   0.668
16981SOL    HW252783   8.311   5.469   0.805
16982SOL     OW52784  11.584  10.968   4.547
16982SOL    HW152785  11.547  10.944   4.632
16982SOL    HW252786  11.648  10.899   4.528
16983SOL     OW52787   1.246   7.278  12.673
16983SOL    HW152788   1.309   7.234  12.616
16983SOL    HW252789   1.250   7.228  12.755
16984SOL     OW52790   8.478   3.891   0.455
16984SOL    HW152791   8.499   3.801   0.432
16984SOL    HW252792   8.546   3.943   0.412
16985SOL     OW52793   1.752   6.829   8.216
16985SOL    HW152794   1.715   6.916   8.231
16985SOL    HW252795   1.832   6.846   8.165
16986SOL     OW52796   4.600   4.402   4.487
16986SOL    HW152797   4.675   4.430   4.436
16986SOL    HW252798   4.580   4.476   4.544
16987SOL     OW52799  11.119   5.812   8.834
16987SOL    HW152800  11.058   5.743   8.860
16987SOL    HW252801  11.086   5.843   8.749
16988SOL     OW52802   3.814  14.080   3.806
16988SOL    HW152803   3.782  14.134   3.878
16988SOL    HW252804   3.836  14.143   3.737
16989SOL     OW52805   2.046   9.810   0.513
16989SOL    HW152806   2.116   9.872   0.533
16989SOL    HW252807   2.084   9.751   0.449
16990SOL     OW52808   9.600   0.424  12.378
16990SOL    HW152809   9.546   0.503  12.383
16990SOL    HW252810   9.550   0.358  12.426
16991SOL     OW52811   7.644  13.502   6.983
16991SOL    HW152812   7.608  13.468   6.901
16991SOL    HW252813   7.610  13.443   7.050
16992SOL     OW52814  11.440   6.948   1.859
16992SOL    HW152815  11.462   6.986   1.774
16992SOL    HW252816  11.417   7.023   1.914
16993SOL     OW52817  11.836   3.243   4.515
16993SOL    HW152818  11.797   3.287   4.440
16993SOL    HW252819  11.916   3.204   4.482
16994SOL     OW52820   4.544   9.808  11.204
16994SOL    HW152821   4.519   9.782  11.293
16994SOL    HW252822   4.502   9.743  11.148
16995SOL     OW52823  14.444   0.920   3.273
16995SOL    HW152824  14.459   0.900   3.365
16995SOL    HW252825  14.531   0.937   3.237
16996SOL     OW52826  11.546  11.835  13.508
16996SOL    HW152827  11.538  11.778  13.432
16996SOL    HW252828  11.634  11.819  13.542
16997SOL     OW52829   5.028   1.850   4.293
16997SOL    HW152830   5.123   1.849   4.310
16997SOL    HW252831   4.989   1.847   4.380
16998SOL     OW52832  11.078  11.282   2.800
16998SOL    HW152833  11.001  11.340   2.805
16998SOL    HW252834  11.109  11.276   2.890
16999SOL     OW52835   9.177  14.403   8.815
16999SOL    HW152836   9.194  14.337   8.747
16999SOL    HW252837   9.129  14.472   8.770
17000SOL     OW52838  14.304   6.510  14.200
17000SOL    HW152839  14.352   6.434  14.167
17000SOL    HW252840  14.356   6.541  14.274
17001SOL     OW52841   3.465   0.211  13.363
17001SOL    HW152842   3.507   0.128  13.387
17001SOL    HW252843   3.496   0.273  13.429
17002SOL     OW52844  10.987   6.197   9.928
17002SOL    HW152845  10.993   6.153  10.013
17002SOL    HW252846  10.991   6.290   9.948
17003SOL     OW52847   0.292   7.698   4.961
17003SOL    HW152848   0.220   7.636   4.956
17003SOL    HW252849   0.356   7.667   4.896
17004SOL     OW52850  11.500   8.770   7.726
17004SOL    HW152851  11.492   8.707   7.654
17004SOL    HW252852  11.456   8.727   7.800
17005SOL     OW52853   6.833  12.043  13.432
17005SOL    HW152854   6.881  12.124  13.414
17005SOL    HW252855   6.893  11.990  13.484
17006SOL     OW52856   7.454   8.748   6.323
17006SOL    HW152857   7.532   8.759   6.377
17006SOL    HW252858   7.385   8.725   6.384
17007SOL     OW52859   2.587   7.070  10.296
17007SOL    HW152860   2.509   7.016  10.286
17007SOL    HW252861   2.636   7.028  10.367
17008SOL     OW52862   6.002   3.269   6.183
17008SOL    HW152863   5.961   3.220   6.254
17008SOL    HW252864   6.087   3.297   6.219
17009SOL     OW52865  14.815   8.310   3.144
17009SOL    HW152866  14.840   8.385   3.090
17009SOL    HW252867  14.860   8.236   3.105
17010SOL     OW52868   7.402   3.644  13.642
17010SOL    HW152869   7.485   3.606  13.671
17010SOL    HW252870   7.420   3.674  13.552
17011SOL     OW52871  13.847   0.739   0.971
17011SOL    HW152872  13.836   0.678   1.044
17011SOL    HW252873  13.857   0.683   0.894
17012SOL     OW52874   4.063  14.318   0.435
17012SOL    HW152875   4.109  14.299   0.353
17012SOL    HW252876   3.984  14.265   0.430
17013SOL     OW52877   5.721   9.009  12.012
17013SOL    HW152878   5.791   9.012  11.948
17013SOL    HW252879   5.644   8.980  11.963
17014SOL     OW52880   3.098  13.239   2.209
17014SOL    HW152881   3.038  13.179   2.253
17014SOL    HW252882   3.105  13.313   2.268
17015SOL     OW52883  12.979  10.989   8.990
17015SOL    HW152884  13.052  10.927   8.998
17015SOL    HW252885  12.915  10.959   9.054
17016SOL     OW52886   2.395  11.944   1.833
17016SOL    HW152887   2.475  11.961   1.783
17016SOL    HW252888   2.397  12.009   1.903
17017SOL     OW52889   3.438  10.888   5.314
17017SOL    HW152890   3.344  10.905   5.321
17017SOL    HW252891   3.444  10.815   5.252
17018SOL     OW52892  14.150   1.015   2.937
17018SOL    HW152893  14.062   1.008   2.974
17018SOL    HW252894  14.201   1.059   3.005
17019SOL     OW52895  12.532   3.960   6.424
17019SOL    HW152896  12.592   3.889   6.401
17019SOL    HW252897  12.569   4.038   6.381
17020SOL     OW52898   8.575   0.549   5.523
17020SOL    HW152899   8.503   0.495   5.555
17020SOL    HW252900   8.534   0.615   5.468
17021SOL     OW52901  10.055  13.302   8.101
17021SOL    HW152902   9.975  13.252   8.082
17021SOL    HW252903  10.055  13.312   8.196
17022SOL     OW52904  14.702   2.199   7.238
17022SOL    HW152905  14.704   2.157   7.324
17022SOL    HW252906  14.706   2.126   7.176
17023SOL     OW52907   2.398   3.564   2.762
17023SOL    HW152908   2.341   3.487   2.763
17023SOL    HW252909   2.434   3.566   2.673
17024SOL     OW52910  11.847  13.793   6.747
17024SOL    HW152911  11.824  13.765   6.836
17024SOL    HW252912  11.763  13.800   6.702
17025SOL     OW52913  12.718  11.713   7.646
17025SOL    HW152914  12.790  11.744   7.591
17025SOL    HW252915  12.761  11.663   7.716
17026SOL     OW52916   0.646   4.030   6.941
17026SOL    HW152917   0.640   3.952   6.886
17026SOL    HW252918   0.556   4.061   6.949
17027SOL     OW52919  11.708  13.723   2.366
17027SOL    HW152920  11.615  13.708   2.347
17027SOL    HW252921  11.753  13.702   2.284
17028SOL     OW52922   9.199  11.591   4.516
17028SOL    HW152923   9.129  11.581   4.451
17028SOL    HW252924   9.280  11.577   4.467
17029SOL     OW52925   6.849  12.303   6.371
17029SOL    HW152926   6.781  12.333   6.310
17029SOL    HW252927   6.892  12.231   6.326
17030SOL     OW52928   8.868   9.875   8.506
17030SOL    HW152929   8.935   9.906   8.567
17030SOL    HW252930   8.913   9.875   8.421
17031SOL     OW52931  14.037  14.073   6.523
17031SOL    HW152932  14.131  14.062   6.508
17031SOL    HW252933  14.008  13.987   6.553
17032SOL     OW52934   4.528  11.153   6.166
17032SOL    HW152935   4.618  11.180   6.145
17032SOL    HW252936   4.532  11.128   6.259
17033SOL     OW52937   7.951  11.743   7.348
17033SOL    HW152938   7.986  11.711   7.431
17033SOL    HW252939   8.028  11.757   7.293
17034SOL     OW52940   1.914   8.840   6.921
17034SOL    HW152941   1.999   8.803   6.944
17034SOL    HW252942   1.917   8.849   6.825
17035SOL     OW52943   9.288   3.453   0.499
17035SOL    HW152944   9.232   3.499   0.561
17035SOL    HW252945   9.377   3.480   0.522
17036SOL     OW52946   7.517   7.006   7.232
17036SOL    HW152947   7.533   6.912   7.246
17036SOL    HW252948   7.601   7.048   7.248
17037SOL     OW52949   3.983   2.441   1.442
17037SOL    HW152950   3.991   2.382   1.367
17037SOL    HW252951   4.065   2.430   1.489
17038SOL     OW52952   9.500   5.324  10.076
17038SOL    HW152953   9.434   5.297  10.012
17038SOL    HW252954   9.504   5.251  10.138
17039SOL     OW52955  12.963   7.676  13.670
17039SOL    HW152956  12.927   7.589  13.653
17039SOL    HW252957  13.039   7.682  13.612
17040SOL     OW52958   7.647  10.143   9.571
17040SOL    HW152959   7.692  10.066   9.604
17040SOL    HW252960   7.695  10.167   9.491
17041SOL     OW52961   0.757  12.985  10.871
17041SOL    HW152962   0.783  13.025  10.954
17041SOL    HW252963   0.663  12.970  10.880
17042SOL     OW52964   5.677  13.279  14.850
17042SOL    HW152965   5.753  13.237   0.017
17042SOL    HW252966   5.608  13.212  14.854
17043SOL     OW52967  13.317   0.110   8.974
17043SOL    HW152968  13.400   0.061   8.978
17043SOL    HW252969  13.344   0.200   8.955
17044SOL     OW52970   4.100  11.383  14.688
17044SOL    HW152971   4.038  11.436  14.738
17044SOL    HW252972   4.056  11.368  14.604
17045SOL     OW52973   5.362   4.150   1.275
17045SOL    HW152974   5.324   4.232   1.306
17045SOL    HW252975   5.338   4.086   1.342
17046SOL     OW52976   6.590   5.517  13.834
17046SOL    HW152977   6.560   5.568  13.759
17046SOL    HW252978   6.509   5.492  13.880
17047SOL     OW52979   4.269  10.513  14.613
17047SOL    HW152980   4.335  10.447  14.637
17047SOL    HW252981   4.229  10.478  14.533
17048SOL     OW52982   1.843  12.727  10.513
17048SOL    HW152983   1.771  12.669  10.537
17048SOL    HW252984   1.804  12.790  10.453
17049SOL     OW52985  14.382  10.572  11.730
17049SOL    HW152986  14.398  10.658  11.768
17049SOL    HW252987  14.466  10.526  11.738
17050SOL     OW52988   8.618   6.880   6.847
17050SOL    HW152989   8.537   6.900   6.894
17050SOL    HW252990   8.644   6.794   6.879
17051SOL     OW52991   0.562   7.855  10.372
17051SOL    HW152992   0.538   7.831  10.282
17051SOL    HW252993   0.643   7.905  10.362
17052SOL     OW52994   8.136   5.909  14.545
17052SOL    HW152995   8.057   5.907  14.490
17052SOL    HW252996   8.143   6.000  14.574
17053SOL     OW52997   4.397   9.814   6.484
17053SOL    HW152998   4.466   9.875   6.456
17053SOL    HW252999   4.329   9.870   6.521
17054SOL     OW53000  12.800   5.727   0.521
17054SOL    HW153001  12.874   5.776   0.485
17054SOL    HW253002  12.749   5.792   0.569
17055SOL     OW53003   7.479   9.416   4.283
17055SOL    HW153004   7.463   9.377   4.197
17055SOL    HW253005   7.475   9.511   4.267
17056SOL     OW53006  13.716  14.336   4.053
17056SOL    HW153007  13.757  14.304   3.973
17056SOL    HW253008  13.741  14.272   4.120
17057SOL     OW53009  13.598  14.868   9.005
17057SOL    HW153010  13.657  14.794   9.011
17057SOL    HW253011  13.537  14.857   9.078
17058SOL     OW53012   8.408   8.050   6.156
17058SOL    HW153013   8.455   8.132   6.149
17058SOL    HW253014   8.325   8.065   6.111
17059SOL     OW53015   7.707  11.194   1.546
17059SOL    HW153016   7.734  11.148   1.467
17059SOL    HW253017   7.695  11.124   1.611
17060SOL     OW53018   4.966  11.092   3.432
17060SOL    HW153019   4.924  11.120   3.513
17060SOL    HW253020   4.960  11.167   3.374
17061SOL     OW53021  14.007  12.327  10.037
17061SOL    HW153022  14.064  12.298  10.108
17061SOL    HW253023  13.980  12.247   9.993
17062SOL     OW53024   7.035  11.175   6.004
17062SOL    HW153025   6.980  11.252   5.985
17062SOL    HW253026   7.108  11.183   5.943
17063SOL     OW53027   0.604   2.413  11.412
17063SOL    HW153028   0.559   2.497  11.426
17063SOL    HW253029   0.688   2.438  11.375
17064SOL     OW53030   6.733  13.740   6.075
17064SOL    HW153031   6.826  13.735   6.051
17064SOL    HW253032   6.705  13.649   6.078
17065SOL     OW53033   8.224   3.114  12.585
17065SOL    HW153034   8.139   3.130  12.544
17065SOL    HW253035   8.214   3.029  12.629
17066SOL     OW53036   7.232  11.960   7.715
17066SOL    HW153037   7.293  11.897   7.755
17066SOL    HW253038   7.211  11.923   7.630
17067SOL     OW53039   1.397   3.567  14.564
17067SOL    HW153040   1.453   3.645  14.563
17067SOL    HW253041   1.414   3.527  14.649
17068SOL     OW53042   8.724  14.022   6.611
17068SOL    HW153043   8.649  14.053   6.560
17068SOL    HW253044   8.750  13.940   6.569
17069SOL     OW53045   7.214   1.694   0.072
17069SOL    HW153046   7.129   1.667   0.106
17069SOL    HW253047   7.200   1.705  14.851
17070SOL     OW53048   6.367  11.620   2.300
17070SOL    HW153049   6.443  11.563   2.310
17070SOL    HW253050   6.403  11.706   2.279
17071SOL     OW53051   6.479   3.913   0.996
17071SOL    HW153052   6.445   3.828   1.022
17071SOL    HW253053   6.408   3.954   0.946
17072SOL     OW53054   9.030  14.606  12.598
17072SOL    HW153055   8.987  14.621  12.682
17072SOL    HW253056   9.074  14.521  12.608
17073SOL     OW53057   6.625  12.948   7.443
17073SOL    HW153058   6.547  13.003   7.451
17073SOL    HW253059   6.676  12.990   7.373
17074SOL     OW53060   5.279   3.044  13.416
17074SOL    HW153061   5.243   2.998  13.492
17074SOL    HW253062   5.269   2.982  13.344
17075SOL     OW53063   3.992  12.595   7.776
17075SOL    HW153064   3.939  12.653   7.722
17075SOL    HW253065   3.931  12.560   7.842
17076SOL     OW53066   6.610  11.183  10.966
17076SOL    HW153067   6.650  11.169  10.880
17076SOL    HW253068   6.649  11.264  10.998
17077SOL     OW53069   3.793   0.533  11.367
17077SOL    HW153070   3.781   0.440  11.347
17077SOL    HW253071   3.846   0.566  11.295
17078SOL     OW53072   6.555   2.366   0.370
17078SOL    HW153073   6.514   2.452   0.357
17078SOL    HW253074   6.578   2.337   0.282
17079SOL     OW53075  13.200  11.749   4.232
17079SOL    HW153076  13.188  11.764   4.326
17079SOL    HW253077  13.266  11.680   4.227
17080SOL     OW53078   7.861  13.471  12.353
17080SOL    HW153079   7.880  13.424  12.272
17080SOL    HW253080   7.846  13.402  12.418
17081SOL     OW53081  10.262   1.865   3.868
17081SOL    HW153082  10.270   1.772   3.848
17081SOL    HW253083  10.170   1.885   3.854
17082SOL     OW53084   2.376  12.984  11.064
17082SOL    HW153085   2.458  12.950  11.029
17082SOL    HW253086   2.338  12.912  11.113
17083SOL     OW53087   2.225   7.890   3.263
17083SOL    HW153088   2.206   7.982   3.244
17083SOL    HW253089   2.140   7.847   3.265
17084SOL     OW53090  13.910   9.450   8.923
17084SOL    HW153091  13.867   9.501   8.992
17084SOL    HW253092  14.001   9.446   8.949
17085SOL     OW53093  11.724  11.676   0.721
17085SOL    HW153094  11.767  11.707   0.801
17085SOL    HW253095  11.647  11.628   0.753
17086SOL     OW53096   7.964   9.080   9.350
17086SOL    HW153097   8.031   9.088   9.418
17086SOL    HW253098   7.918   8.999   9.371
17087SOL     OW53099   0.795   7.129  11.453
17087SOL    HW153100   0.746   7.206  11.485
17087SOL    HW253101   0.876   7.165  11.418
17088SOL     OW53102   8.807   3.023   2.713
17088SOL    HW153103   8.889   2.990   2.676
17088SOL    HW253104   8.831   3.109   2.750
17089SOL     OW53105  14.643   6.304   8.999
17089SOL    HW153106  14.576   6.325   9.063
17089SOL    HW253107  14.643   6.208   8.995
17090SOL     OW53108  12.559  13.014   6.766
17090SOL    HW153109  12.556  13.079   6.695
17090SOL    HW253110  12.587  12.933   6.723
17091SOL     OW53111   2.871  12.891   2.602
17091SOL    HW153112   2.776  12.877   2.595
17091SOL    HW253113   2.908  12.803   2.609
17092SOL     OW53114   6.031   4.256  12.864
17092SOL    HW153115   6.026   4.315  12.939
17092SOL    HW253116   6.117   4.271  12.827
17093SOL     OW53117  11.211  10.734   0.261
17093SOL    HW153118  11.181  10.822   0.237
17093SOL    HW253119  11.238  10.742   0.352
17094SOL     OW53120  11.511  13.971  12.180
17094SOL    HW153121  11.528  13.881  12.152
17094SOL    HW253122  11.560  13.980  12.262
17095SOL     OW53123  14.785   4.752  10.251
17095SOL    HW153124  14.766   4.835  10.293
17095SOL    HW253125  14.699   4.714  10.232
17096SOL     OW53126   6.896  10.736   9.117
17096SOL    HW153127   6.836  10.767   9.185
17096SOL    HW253128   6.975  10.788   9.130
17097SOL     OW53129   1.402  13.071  10.355
17097SOL    HW153130   1.316  13.060  10.395
17097SOL    HW253131   1.383  13.088  10.262
17098SOL     OW53132   7.757  12.847   1.491
17098SOL    HW153133   7.736  12.778   1.428
17098SOL    HW253134   7.806  12.911   1.440
17099SOL     OW53135   2.844   8.744  11.713
17099SOL    HW153136   2.762   8.698  11.730
17099SOL    HW253137   2.912   8.684  11.744
17100SOL     OW53138  14.713   1.045   7.184
17100SOL    HW153139  14.633   1.094   7.167
17100SOL    HW253140  14.784   1.104   7.157
17101SOL     OW53141   9.755   5.776  12.691
17101SOL    HW153142   9.662   5.795  12.707
17101SOL    HW253143   9.757   5.685  12.664
17102SOL     OW53144   5.096   3.681   0.404
17102SOL    HW153145   5.003   3.691   0.387
17102SOL    HW253146   5.124   3.767   0.437
17103SOL     OW53147   8.854   5.423   0.792
17103SOL    HW153148   8.832   5.332   0.775
17103SOL    HW253149   8.770   5.464   0.814
17104SOL     OW53150  12.343   8.475  11.438
17104SOL    HW153151  12.274   8.489  11.503
17104SOL    HW253152  12.347   8.380  11.429
17105SOL     OW53153   4.510   0.623   0.512
17105SOL    HW153154   4.417   0.622   0.489
17105SOL    HW253155   4.513   0.595   0.603
17106SOL     OW53156   6.577  11.379   4.412
17106SOL    HW153157   6.626  11.461   4.412
17106SOL    HW253158   6.512  11.390   4.481
17107SOL     OW53159   8.967   4.420   5.798
17107SOL    HW153160   9.012   4.418   5.713
17107SOL    HW253161   8.886   4.372   5.783
17108SOL     OW53162  14.806  12.276  13.967
17108SOL    HW153163  14.791  12.217  13.893
17108SOL    HW253164  14.865  12.228  14.025
17109SOL     OW53165   6.562  12.781  13.975
17109SOL    HW153166   6.517  12.863  13.954
17109SOL    HW253167   6.654  12.798  13.955
17110SOL     OW53168   3.272  13.997  11.548
17110SOL    HW153169   3.239  13.912  11.577
17110SOL    HW253170   3.257  14.055  11.623
17111SOL     OW53171   7.784  12.688   5.635
17111SOL    HW153172   7.842  12.699   5.559
17111SOL    HW253173   7.695  12.694   5.598
17112SOL     OW53174  13.439   3.178  11.491
17112SOL    HW153175  13.353   3.219  11.500
17112SOL    HW253176  13.501   3.246  11.516
17113SOL     OW53177   9.627   3.793   5.308
17113SOL    HW153178   9.537   3.824   5.298
17113SOL    HW253179   9.621   3.721   5.371
17114SOL     OW53180   2.562   1.167   3.167
17114SOL    HW153181   2.625   1.098   3.145
17114SOL    HW253182   2.477   1.130   3.144
17115SOL     OW53183   1.825   4.473   1.979
17115SOL    HW153184   1.829   4.380   1.999
17115SOL    HW253185   1.790   4.477   1.890
17116SOL     OW53186   1.532   7.648   6.940
17116SOL    HW153187   1.470   7.622   7.008
17116SOL    HW253188   1.592   7.709   6.984
17117SOL     OW53189   2.322  11.978  14.339
17117SOL    HW153190   2.292  11.946  14.424
17117SOL    HW253191   2.247  12.026  14.305
17118SOL     OW53192   4.177  12.982  11.662
17118SOL    HW153193   4.266  12.973  11.629
17118SOL    HW253194   4.129  13.024  11.590
17119SOL     OW53195   2.543   8.573   0.922
17119SOL    HW153196   2.515   8.655   0.962
17119SOL    HW253197   2.604   8.534   0.986
17120SOL     OW53198   0.985   0.097  12.023
17120SOL    HW153199   0.890   0.105  12.024
17120SOL    HW253200   1.007   0.082  11.931
17121SOL     OW53201  11.308   5.253   9.512
17121SOL    HW153202  11.230   5.198   9.510
17121SOL    HW253203  11.330   5.267   9.420
17122SOL     OW53204  11.616  12.606   0.483
17122SOL    HW153205  11.667  12.620   0.403
17122SOL    HW253206  11.681  12.595   0.552
17123SOL     OW53207  11.842   8.395  11.505
17123SOL    HW153208  11.840   8.387  11.600
17123SOL    HW253209  11.905   8.329  11.477
17124SOL     OW53210   9.660   5.936   5.625
17124SOL    HW153211   9.680   5.855   5.579
17124SOL    HW253212   9.687   5.920   5.716
17125SOL     OW53213   0.181  12.866  11.074
17125SOL    HW153214   0.253  12.803  11.080
17125SOL    HW253215   0.150  12.875  11.164
17126SOL     OW53216   2.329   2.869   8.223
17126SOL    HW153217   2.330   2.780   8.187
17126SOL    HW253218   2.367   2.923   8.153
17127SOL     OW53219  10.741   4.160   3.991
17127SOL    HW153220  10.809   4.093   3.982
17127SOL    HW253221  10.707   4.147   4.080
17128SOL     OW53222   0.844   2.792  11.226
17128SOL    HW153223   0.757   2.752  11.234
17128SOL    HW253224   0.867   2.819  11.315
17129SOL     OW53225   0.414  14.679  12.730
17129SOL    HW153226   0.372  14.614  12.787
17129SOL    HW253227   0.342  14.719  12.681
17130SOL     OW53228   6.115   8.654   4.192
17130SOL    HW153229   6.203   8.618   4.204
17130SOL    HW253230   6.065   8.621   4.267
17131SOL     OW53231   3.830   7.345   0.307
17131SOL    HW153232   3.924   7.334   0.297
17131SOL    HW253233   3.796   7.255   0.313
17132SOL     OW53234  14.833   7.525  10.404
17132SOL    HW153235  14.864   7.449  10.355
17132SOL    HW253236  14.748   7.545  10.365
17133SOL     OW53237  13.482   5.747   5.952
17133SOL    HW153238  13.452   5.744   6.042
17133SOL    HW253239  13.454   5.664   5.914
17134SOL     OW53240   4.483   1.364   0.673
17134SOL    HW153241   4.537   1.424   0.621
17134SOL    HW253242   4.533   1.283   0.675
17135SOL     OW53243   0.655  11.627   9.428
17135SOL    HW153244   0.639  11.666   9.342
17135SOL    HW253245   0.614  11.541   9.423
17136SOL     OW53246  10.600   9.313  14.419
17136SOL    HW153247  10.680   9.281  14.461
17136SOL    HW253248  10.552   9.358  14.488
17137SOL     OW53249   2.937   3.623   2.081
17137SOL    HW153250   2.891   3.553   2.127
17137SOL    HW253251   2.923   3.605   1.988
17138SOL     OW53252  11.132   3.212   4.624
17138SOL    HW153253  11.131   3.308   4.625
17138SOL    HW253254  11.184   3.187   4.701
17139SOL     OW53255   8.811   1.948   3.604
17139SOL    HW153256   8.828   1.869   3.552
17139SOL    HW253257   8.716   1.953   3.610
17140SOL     OW53258  12.365   6.809   7.760
17140SOL    HW153259  12.371   6.837   7.852
17140SOL    HW253260  12.379   6.715   7.763
17141SOL     OW53261   5.935   7.350   8.390
17141SOL    HW153262   5.858   7.384   8.344
17141SOL    HW253263   5.960   7.272   8.341
17142SOL     OW53264   2.587  11.907   4.301
17142SOL    HW153265   2.607  11.955   4.221
17142SOL    HW253266   2.668  11.862   4.323
17143SOL     OW53267  12.589   3.863   6.818
17143SOL    HW153268  12.525   3.932   6.802
17143SOL    HW253269  12.656   3.877   6.751
17144SOL     OW53270  12.828  14.677  10.449
17144SOL    HW153271  12.737  14.649  10.447
17144SOL    HW253272  12.878  14.598  10.432
17145SOL     OW53273  10.229   1.155   5.083
17145SOL    HW153274  10.169   1.180   5.012
17145SOL    HW253275  10.276   1.079   5.049
17146SOL     OW53276   5.955   9.408   1.762
17146SOL    HW153277   5.955   9.396   1.857
17146SOL    HW253278   6.014   9.482   1.748
17147SOL     OW53279  14.128  12.308   1.117
17147SOL    HW153280  14.041  12.306   1.076
17147SOL    HW253281  14.151  12.216   1.128
17148SOL     OW53282   3.792  12.531   4.823
17148SOL    HW153283   3.837  12.449   4.799
17148SOL    HW253284   3.806  12.589   4.749
17149SOL     OW53285  10.154   8.987  13.148
17149SOL    HW153286  10.098   8.937  13.089
17149SOL    HW253287  10.230   8.931  13.162
17150SOL     OW53288   8.445  13.470   6.397
17150SOL    HW153289   8.540  13.480   6.407
17150SOL    HW253290   8.426  13.506   6.311
17151SOL     OW53291   9.017   7.681   4.098
17151SOL    HW153292   8.968   7.730   4.165
17151SOL    HW253293   9.102   7.725   4.093
17152SOL     OW53294   5.036   5.975   3.227
17152SOL    HW153295   5.077   6.041   3.283
17152SOL    HW253296   5.076   5.988   3.141
17153SOL     OW53297   1.814   6.314   3.629
17153SOL    HW153298   1.879   6.376   3.661
17153SOL    HW253299   1.864   6.235   3.609
17154SOL     OW53300   8.380   8.227   7.865
17154SOL    HW153301   8.440   8.267   7.928
17154SOL    HW253302   8.301   8.207   7.916
17155SOL     OW53303  14.569   3.567   4.079
17155SOL    HW153304  14.480   3.533   4.074
17155SOL    HW253305  14.558   3.660   4.101
17156SOL     OW53306  10.790   6.412   3.202
17156SOL    HW153307  10.730   6.485   3.219
17156SOL    HW253308  10.758   6.341   3.258
17157SOL     OW53309  10.466   9.149   1.644
17157SOL    HW153310  10.491   9.100   1.565
17157SOL    HW253311  10.486   9.090   1.716
17158SOL     OW53312   8.693   0.676  14.622
17158SOL    HW153313   8.664   0.675  14.713
17158SOL    HW253314   8.673   0.765  14.592
17159SOL     OW53315   3.364   2.796   1.127
17159SOL    HW153316   3.316   2.736   1.071
17159SOL    HW253317   3.453   2.761   1.131
17160SOL     OW53318   7.358  13.723  14.367
17160SOL    HW153319   7.349  13.781  14.442
17160SOL    HW253320   7.437  13.672  14.385
17161SOL     OW53321   0.329  11.643   9.382
17161SOL    HW153322   0.378  11.677   9.307
17161SOL    HW253323   0.244  11.618   9.345
17162SOL     OW53324  14.760   2.518  10.475
17162SOL    HW153325  14.768   2.613  10.474
17162SOL    HW253326  14.675   2.500  10.434
17163SOL     OW53327  11.080  14.670   6.365
17163SOL    HW153328  11.088  14.742   6.303
17163SOL    HW253329  11.154  14.613   6.345
17164SOL     OW53330   1.784  11.438   8.821
17164SOL    HW153331   1.772  11.529   8.793
17164SOL    HW253332   1.873  11.435   8.855
17165SOL     OW53333   9.597  12.915   2.536
17165SOL    HW153334   9.558  12.910   2.449
17165SOL    HW253335   9.608  12.824   2.564
17166SOL     OW53336   5.953   4.455  11.035
17166SOL    HW153337   5.937   4.549  11.045
17166SOL    HW253338   5.989   4.429  11.120
17167SOL     OW53339   0.522  13.093  12.410
17167SOL    HW153340   0.472  13.037  12.469
17167SOL    HW253341   0.585  13.138  12.466
17168SOL     OW53342   6.672   6.584   1.776
17168SOL    HW153343   6.642   6.577   1.685
17168SOL    HW253344   6.762   6.617   1.769
17169SOL     OW53345  12.483   0.931   7.371
17169SOL    HW153346  12.574   0.949   7.348
17169SOL    HW253347  12.487   0.850   7.423
17170SOL     OW53348   7.367   2.532   8.634
17170SOL    HW153349   7.383   2.488   8.551
17170SOL    HW253350   7.342   2.462   8.694
17171SOL     OW53351   0.770   6.274   0.665
17171SOL    HW153352   0.714   6.271   0.587
17171SOL    HW253353   0.829   6.200   0.654
17172SOL     OW53354   4.412   3.710   6.359
17172SOL    HW153355   4.492   3.662   6.380
17172SOL    HW253356   4.388   3.754   6.441
17173SOL     OW53357   7.477  10.768  11.002
17173SOL    HW153358   7.446  10.857  11.014
17173SOL    HW253359   7.455  10.747  10.911
17174SOL     OW53360   9.529  14.825   8.874
17174SOL    HW153361   9.611  14.792   8.913
17174SOL    HW253362   9.509  14.762   8.805
17175SOL     OW53363   3.131   6.080   3.216
17175SOL    HW153364   3.059   6.140   3.198
17175SOL    HW253365   3.208   6.136   3.223
17176SOL     OW53366   0.096   7.153  14.413
17176SOL    HW153367   0.188   7.127  14.403
17176SOL    HW253368   0.057   7.136  14.327
17177SOL     OW53369   9.121   0.199   7.698
17177SOL    HW153370   9.186   0.132   7.679
17177SOL    HW253371   9.171   0.279   7.709
17178SOL     OW53372   9.118   8.463  14.217
17178SOL    HW153373   9.030   8.485  14.245
17178SOL    HW253374   9.174   8.527  14.261
17179SOL     OW53375   4.007   6.213  11.000
17179SOL    HW153376   3.911   6.208  10.998
17179SOL    HW253377   4.036   6.127  10.973
17180SOL     OW53378  11.589  12.835   1.204
17180SOL    HW153379  11.642  12.778   1.259
17180SOL    HW253380  11.613  12.813   1.114
17181SOL     OW53381   6.044   5.192   7.285
17181SOL    HW153382   6.120   5.194   7.226
17181SOL    HW253383   6.082   5.201   7.372
17182SOL     OW53384   4.455   4.578  13.277
17182SOL    HW153385   4.431   4.548  13.189
17182SOL    HW253386   4.547   4.552  13.287
17183SOL     OW53387  11.764   9.255   2.306
17183SOL    HW153388  11.714   9.174   2.312
17183SOL    HW253389  11.784   9.278   2.397
17184SOL     OW53390   1.934   2.004   9.951
17184SOL    HW153391   1.930   2.099   9.960
17184SOL    HW253392   1.853   1.973   9.991
17185SOL     OW53393   6.886   0.600   6.634
17185SOL    HW153394   6.949   0.542   6.591
17185SOL    HW253395   6.824   0.540   6.677
17186SOL     OW53396   8.909   8.352   6.661
17186SOL    HW153397   8.932   8.269   6.620
17186SOL    HW253398   8.845   8.328   6.728
17187SOL     OW53399   8.730   1.377   7.517
17187SOL    HW153400   8.787   1.384   7.441
17187SOL    HW253401   8.772   1.311   7.572
17188SOL     OW53402   8.773  11.202   4.599
17188SOL    HW153403   8.758  11.271   4.534
17188SOL    HW253404   8.789  11.249   4.681
17189SOL     OW53405  14.805   5.844   6.693
17189SOL    HW153406  14.828   5.894   6.771
17189SOL    HW253407  14.836   5.898   6.620
17190SOL     OW53408  12.044   0.561   1.153
17190SOL    HW153409  12.119   0.504   1.169
17190SOL    HW253410  12.006   0.528   1.071
17191SOL     OW53411  13.455   2.182  10.285
17191SOL    HW153412  13.452   2.274  10.256
17191SOL    HW253413  13.520   2.181  10.355
17192SOL     OW53414   8.298   3.695   5.488
17192SOL    HW153415   8.293   3.728   5.399
17192SOL    HW253416   8.339   3.609   5.480
17193SOL     OW53417   8.490   4.830   0.738
17193SOL    HW153418   8.563   4.881   0.702
17193SOL    HW253419   8.518   4.739   0.727
17194SOL     OW53420  10.796  12.906  13.659
17194SOL    HW153421  10.882  12.869  13.679
17194SOL    HW253422  10.813  12.971  13.591
17195SOL     OW53423   4.071   4.910  13.960
17195SOL    HW153424   4.090   4.856  14.036
17195SOL    HW253425   4.156   4.931  13.923
17196SOL     OW53426   3.458   1.543   3.740
17196SOL    HW153427   3.427   1.479   3.803
17196SOL    HW253428   3.552   1.528   3.734
17197SOL     OW53429  13.176  12.417   0.137
17197SOL    HW153430  13.224  12.489   0.178
17197SOL    HW253431  13.189  12.429   0.043
17198SOL     OW53432   7.029   7.919   5.836
17198SOL    HW153433   6.948   7.909   5.786
17198SOL    HW253434   7.007   7.981   5.905
17199SOL     OW53435   0.805   5.767   0.821
17199SOL    HW153436   0.828   5.747   0.912
17199SOL    HW253437   0.764   5.853   0.825
17200SOL     OW53438   7.588   3.745   2.865
17200SOL    HW153439   7.579   3.831   2.825
17200SOL    HW253440   7.545   3.685   2.803
17201SOL     OW53441  13.290  13.345  14.711
17201SOL    HW153442  13.244  13.397  14.645
17201SOL    HW253443  13.285  13.255  14.680
17202SOL     OW53444  13.176   4.827   8.186
17202SOL    HW153445  13.147   4.846   8.096
17202SOL    HW253446  13.235   4.899   8.207
17203SOL     OW53447  10.930   4.524   4.238
17203SOL    HW153448  10.960   4.589   4.175
17203SOL    HW253449  10.841   4.502   4.210
17204SOL     OW53450   1.117  10.672   5.183
17204SOL    HW153451   1.075  10.729   5.119
17204SOL    HW253452   1.062  10.594   5.185
17205SOL     OW53453   9.119   7.922  13.501
17205SOL    HW153454   9.138   7.928  13.408
17205SOL    HW253455   9.110   7.829  13.518
17206SOL     OW53456  11.963   4.874   4.865
17206SOL    HW153457  12.016   4.909   4.938
17206SOL    HW253458  12.027   4.856   4.797
17207SOL     OW53459  10.379   1.026   3.845
17207SOL    HW153460  10.391   1.099   3.906
17207SOL    HW253461  10.466   0.986   3.838
17208SOL     OW53462  13.093  10.182   1.526
17208SOL    HW153463  13.040  10.106   1.549
17208SOL    HW253464  13.059  10.253   1.581
17209SOL     OW53465  14.474  12.553   7.277
17209SOL    HW153466  14.532  12.480   7.300
17209SOL    HW253467  14.386  12.514   7.274
17210SOL     OW53468   7.760   3.174   6.671
17210SOL    HW153469   7.693   3.200   6.607
17210SOL    HW253470   7.841   3.169   6.620
17211SOL     OW53471   7.136   6.105  13.837
17211SOL    HW153472   7.135   6.013  13.864
17211SOL    HW253473   7.119   6.102  13.743
17212SOL     OW53474   6.443   8.753   8.827
17212SOL    HW153475   6.480   8.809   8.759
17212SOL    HW253476   6.387   8.691   8.781
17213SOL     OW53477  12.274   3.134   7.014
17213SOL    HW153478  12.302   3.218   7.051
17213SOL    HW253479  12.179   3.134   7.025
17214SOL     OW53480  11.037   2.144   8.984
17214SOL    HW153481  10.955   2.105   8.954
17214SOL    HW253482  11.018   2.176   9.072
17215SOL     OW53483  12.165   9.591   0.185
17215SOL    HW153484  12.226   9.535   0.233
17215SOL    HW253485  12.221   9.653   0.139
17216SOL     OW53486   7.202   2.572  11.522
17216SOL    HW153487   7.108   2.584  11.535
17216SOL    HW253488   7.240   2.655  11.549
17217SOL     OW53489   9.428  13.551   6.481
17217SOL    HW153490   9.407  13.520   6.569
17217SOL    HW253491   9.505  13.500   6.455
17218SOL     OW53492  14.765   8.568   7.618
17218SOL    HW153493  14.700   8.501   7.638
17218SOL    HW253494  14.725   8.621   7.549
17219SOL     OW53495   0.549  13.639  12.679
17219SOL    HW153496   0.635  13.670  12.652
17219SOL    HW253497   0.492  13.660  12.605
17220SOL     OW53498   4.437   9.364   6.269
17220SOL    HW153499   4.443   9.429   6.339
17220SOL    HW253500   4.472   9.284   6.308
17221SOL     OW53501  14.211  10.871  11.608
17221SOL    HW153502  14.136  10.926  11.631
17221SOL    HW253503  14.199  10.791  11.658
17222SOL     OW53504  10.934   4.903   1.737
17222SOL    HW153505  11.020   4.862   1.731
17222SOL    HW253506  10.929   4.937   1.827
17223SOL     OW53507   2.439   0.592  13.825
17223SOL    HW153508   2.406   0.672  13.784
17223SOL    HW253509   2.413   0.600  13.917
17224SOL     OW53510  12.084  12.371  12.158
17224SOL    HW153511  11.998  12.408  12.177
17224SOL    HW253512  12.070  12.277  12.157
17225SOL     OW53513   9.650   2.705   4.396
17225SOL    HW153514   9.582   2.637   4.390
17225SOL    HW253515   9.726   2.667   4.352
17226SOL     OW53516   3.776  12.949   6.060
17226SOL    HW153517   3.732  12.931   5.976
17226SOL    HW253518   3.824  12.869   6.080
17227SOL     OW53519  12.332   1.435  13.848
17227SOL    HW153520  12.366   1.406  13.763
17227SOL    HW253521  12.257   1.491  13.826
17228SOL     OW53522   1.585  12.944   9.664
17228SOL    HW153523   1.490  12.929   9.660
17228SOL    HW253524   1.609  12.914   9.752
17229SOL     OW53525  12.679  12.186   7.949
17229SOL    HW153526  12.586  12.171   7.968
17229SOL    HW253527  12.704  12.112   7.893
17230SOL     OW53528   7.816  10.819   9.961
17230SOL    HW153529   7.814  10.911   9.932
17230SOL    HW253530   7.893  10.782   9.917
17231SOL     OW53531   5.472   7.895  14.534
17231SOL    HW153532   5.515   7.964  14.584
17231SOL    HW253533   5.461   7.932  14.446
17232SOL     OW53534   3.786  12.050   6.359
17232SOL    HW153535   3.775  11.963   6.396
17232SOL    HW253536   3.706  12.066   6.309
17233SOL     OW53537   2.416   1.373   4.573
17233SOL    HW153538   2.330   1.404   4.545
17233SOL    HW253539   2.475   1.446   4.552
17234SOL     OW53540   4.075   0.982  10.820
17234SOL    HW153541   4.086   1.028  10.737
17234SOL    HW253542   4.090   0.890  10.798
17235SOL     OW53543  13.254   6.286   5.247
17235SOL    HW153544  13.234   6.195   5.267
17235SOL    HW253545  13.259   6.329   5.333
17236SOL     OW53546   2.061  11.330   6.593
17236SOL    HW153547   2.149  11.367   6.577
17236SOL    HW253548   2.071  11.236   6.577
17237SOL     OW53549   7.799   7.561   3.529
17237SOL    HW153550   7.875   7.616   3.545
17237SOL    HW253551   7.732   7.595   3.589
17238SOL     OW53552   2.202  12.594   8.447
17238SOL    HW153553   2.151  12.675   8.437
17238SOL    HW253554   2.151  12.542   8.509
17239SOL     OW53555   0.060   0.056   7.955
17239SOL    HW153556   0.024   0.049   8.044
17239SOL    HW253557   0.104   0.141   7.954
17240SOL     OW53558   4.606  13.685   5.255
17240SOL    HW153559   4.516  13.714   5.272
17240SOL    HW253560   4.610  13.675   5.160
17241SOL     OW53561   9.394   1.696  11.263
17241SOL    HW153562   9.423   1.763  11.200
17241SOL    HW253563   9.431   1.724  11.346
17242SOL     OW53564   5.047   5.554  14.062
17242SOL    HW153565   5.126   5.528  14.109
17242SOL    HW253566   5.077   5.570  13.972
17243SOL     OW53567  12.835   1.742  11.361
17243SOL    HW153568  12.794   1.777  11.440
17243SOL    HW253569  12.928   1.734  11.383
17244SOL     OW53570   7.903  13.926   6.210
17244SOL    HW153571   7.911  14.016   6.240
17244SOL    HW253572   7.961  13.920   6.134
17245SOL     OW53573  10.378   8.512  14.262
17245SOL    HW153574  10.405   8.422  14.284
17245SOL    HW253575  10.387   8.517  14.167
17246SOL     OW53576   2.513  11.885  12.304
17246SOL    HW153577   2.577  11.929  12.360
17246SOL    HW253578   2.433  11.938  12.313
17247SOL     OW53579   6.897  10.085   5.474
17247SOL    HW153580   6.822  10.056   5.421
17247SOL    HW253581   6.858  10.115   5.556
17248SOL     OW53582   0.718   8.608   7.820
17248SOL    HW153583   0.721   8.615   7.916
17248SOL    HW253584   0.790   8.550   7.798
17249SOL     OW53585  14.595   8.364   9.415
17249SOL    HW153586  14.553   8.448   9.431
17249SOL    HW253587  14.688   8.382   9.427
17250SOL     OW53588   6.836  10.982   4.948
17250SOL    HW153589   6.795  11.041   5.011
17250SOL    HW253590   6.888  10.922   5.002
17251SOL     OW53591   6.994   7.833   6.568
17251SOL    HW153592   6.911   7.787   6.573
17251SOL    HW253593   7.059   7.767   6.594
17252SOL     OW53594  14.515   9.696   5.501
17252SOL    HW153595  14.486   9.620   5.450
17252SOL    HW253596  14.520   9.663   5.591
17253SOL     OW53597   3.543  14.798   2.735
17253SOL    HW153598   3.528  14.715   2.690
17253SOL    HW253599   3.589  14.852   2.670
17254SOL     OW53600   4.942   7.584   3.602
17254SOL    HW153601   4.914   7.521   3.535
17254SOL    HW253602   5.025   7.549   3.635
17255SOL     OW53603   9.975  10.543   1.578
17255SOL    HW153604   9.901  10.513   1.525
17255SOL    HW253605   9.981  10.480   1.649
17256SOL     OW53606  14.256   9.947   1.127
17256SOL    HW153607  14.264   9.885   1.199
17256SOL    HW253608  14.231  10.029   1.169
17257SOL     OW53609  10.616  11.375   4.732
17257SOL    HW153610  10.570  11.305   4.778
17257SOL    HW253611  10.660  11.331   4.659
17258SOL     OW53612   6.454   4.022   7.077
17258SOL    HW153613   6.395   4.060   7.012
17258SOL    HW253614   6.518   3.973   7.025
17259SOL     OW53615   9.362   6.580   7.402
17259SOL    HW153616   9.435   6.541   7.354
17259SOL    HW253617   9.366   6.673   7.382
17260SOL     OW53618   7.551  11.145   9.563
17260SOL    HW153619   7.611  11.095   9.508
17260SOL    HW253620   7.529  11.222   9.511
17261SOL     OW53621  14.097   8.678   9.746
17261SOL    HW153622  14.075   8.604   9.690
17261SOL    HW253623  14.167   8.723   9.699
17262SOL     OW53624   0.425   9.943   1.769
17262SOL    HW153625   0.490   9.972   1.833
17262SOL    HW253626   0.462   9.862   1.733
17263SOL     OW53627   2.739   9.732   5.816
17263SOL    HW153628   2.661   9.776   5.849
17263SOL    HW253629   2.811   9.773   5.864
17264SOL     OW53630   8.399   7.197   4.531
17264SOL    HW153631   8.307   7.225   4.529
17264SOL    HW253632   8.441   7.248   4.462
17265SOL     OW53633   5.638   1.081   9.389
17265SOL    HW153634   5.602   1.168   9.404
17265SOL    HW253635   5.702   1.068   9.458
17266SOL     OW53636   4.054  13.438   3.741
17266SOL    HW153637   4.030  13.347   3.759
17266SOL    HW253638   3.982  13.489   3.778
17267SOL     OW53639   7.009   6.293  12.501
17267SOL    HW153640   7.071   6.311  12.430
17267SOL    HW253641   7.029   6.203  12.527
17268SOL     OW53642   0.072   1.961   2.584
17268SOL    HW153643   0.115   1.883   2.618
17268SOL    HW253644   0.141   2.006   2.535
17269SOL     OW53645  13.928  14.750   8.177
17269SOL    HW153646  14.013  14.794   8.180
17269SOL    HW253647  13.943  14.666   8.221
17270SOL     OW53648   8.418   9.327  14.314
17270SOL    HW153649   8.391   9.282  14.234
17270SOL    HW253650   8.472   9.400  14.284
17271SOL     OW53651   2.302  11.222   3.795
17271SOL    HW153652   2.209  11.199   3.802
17271SOL    HW253653   2.349  11.140   3.810
17272SOL     OW53654   3.152  14.403   9.620
17272SOL    HW153655   3.105  14.409   9.703
17272SOL    HW253656   3.198  14.319   9.625
17273SOL     OW53657   3.393  10.967  11.496
17273SOL    HW153658   3.376  10.880  11.532
17273SOL    HW253659   3.475  10.957  11.447
17274SOL     OW53660  10.352  13.384  12.896
17274SOL    HW153661  10.394  13.299  12.913
17274SOL    HW253662  10.369  13.435  12.975
17275SOL     OW53663   1.552  10.513  14.821
17275SOL    HW153664   1.547  10.558  14.737
17275SOL    HW253665   1.565  10.421  14.798
17276SOL     OW53666  10.653   2.938  11.616
17276SOL    HW153667  10.704   2.928  11.696
17276SOL    HW253668  10.590   3.006  11.636
17277SOL     OW53669   2.610  13.602  13.302
17277SOL    HW153670   2.547  13.601  13.373
17277SOL    HW253671   2.562  13.639  13.228
17278SOL     OW53672   9.284   5.272   9.932
17278SOL    HW153673   9.250   5.316   9.855
17278SOL    HW253674   9.220   5.290  10.001
17279SOL     OW53675   9.628   4.290   3.385
17279SOL    HW153676   9.696   4.228   3.411
17279SOL    HW253677   9.563   4.285   3.455
17280SOL     OW53678   5.922   3.464   1.428
17280SOL    HW153679   5.994   3.496   1.482
17280SOL    HW253680   5.944   3.491   1.339
17281SOL     OW53681   8.333   4.476  11.698
17281SOL    HW153682   8.324   4.544  11.631
17281SOL    HW253683   8.299   4.397  11.656
17282SOL     OW53684  13.755  12.979   6.856
17282SOL    HW153685  13.769  12.885   6.854
17282SOL    HW253686  13.835  13.015   6.894
17283SOL     OW53687  13.949   3.676  14.773
17283SOL    HW153688  13.891   3.691  14.698
17283SOL    HW253689  14.023   3.734  14.759
17284SOL     OW53690   1.867   7.889   0.793
17284SOL    HW153691   1.936   7.838   0.837
17284SOL    HW253692   1.900   7.902   0.704
17285SOL     OW53693   9.124  11.914   1.998
17285SOL    HW153694   9.115  11.872   2.084
17285SOL    HW253695   9.158  12.001   2.017
17286SOL     OW53696   4.911   0.496   6.933
17286SOL    HW153697   4.935   0.431   6.867
17286SOL    HW253698   4.990   0.510   6.983
17287SOL     OW53699   5.575   4.044   0.833
17287SOL    HW153700   5.661   4.025   0.870
17287SOL    HW253701   5.514   3.997   0.889
17288SOL     OW53702   0.066   0.437   9.067
17288SOL    HW153703   0.027   0.461   8.984
17288SOL    HW253704   0.160   0.449   9.054
17289SOL     OW53705   3.147  14.373   1.534
17289SOL    HW153706   3.233  14.358   1.573
17289SOL    HW253707   3.085  14.338   1.598
17290SOL     OW53708  14.591   8.709   1.372
17290SOL    HW153709  14.511   8.737   1.417
17290SOL    HW253710  14.654   8.778   1.390
17291SOL     OW53711   9.774   0.585  14.565
17291SOL    HW153712   9.798   0.565  14.474
17291SOL    HW253713   9.744   0.502  14.600
17292SOL     OW53714   6.073  11.238  14.171
17292SOL    HW153715   6.006  11.297  14.138
17292SOL    HW253716   6.066  11.160  14.116
17293SOL     OW53717   6.620  12.815   8.711
17293SOL    HW153718   6.674  12.807   8.790
17293SOL    HW253719   6.664  12.882   8.659
17294SOL     OW53720  11.262   4.020   9.960
17294SOL    HW153721  11.236   3.938  10.002
17294SOL    HW253722  11.204   4.028   9.884
17295SOL     OW53723   7.475  12.622  12.522
17295SOL    HW153724   7.482  12.688  12.453
17295SOL    HW253725   7.559  12.577  12.520
17296SOL     OW53726   6.042   4.727   3.378
17296SOL    HW153727   5.966   4.780   3.401
17296SOL    HW253728   6.083   4.707   3.463
17297SOL     OW53729  10.011   7.232  13.486
17297SOL    HW153730  10.073   7.226  13.413
17297SOL    HW253731  10.063   7.265  13.559
17298SOL     OW53732  11.060  13.563   6.619
17298SOL    HW153733  11.051  13.490   6.680
17298SOL    HW253734  11.139  13.608   6.649
17299SOL     OW53735  12.884  14.221   0.853
17299SOL    HW153736  12.886  14.315   0.868
17299SOL    HW253737  12.954  14.186   0.908
17300SOL     OW53738   9.385   3.644   0.178
17300SOL    HW153739   9.468   3.597   0.190
17300SOL    HW253740   9.319   3.575   0.177
17301SOL     OW53741   3.596   5.462  13.331
17301SOL    HW153742   3.597   5.366  13.339
17301SOL    HW253743   3.518   5.489  13.379
17302SOL     OW53744   7.959   3.941   4.230
17302SOL    HW153745   7.879   3.989   4.208
17302SOL    HW253746   7.930   3.851   4.243
17303SOL     OW53747   4.255  11.790  10.181
17303SOL    HW153748   4.262  11.768  10.273
17303SOL    HW253749   4.253  11.706  10.135
17304SOL     OW53750   2.579  14.037   7.781
17304SOL    HW153751   2.603  14.120   7.741
17304SOL    HW253752   2.590  13.972   7.712
17305SOL     OW53753   1.577  14.110   0.326
17305SOL    HW153754   1.586  14.024   0.286
17305SOL    HW253755   1.664  14.130   0.360
17306SOL     OW53756  12.119   6.992   3.428
17306SOL    HW153757  12.138   6.951   3.513
17306SOL    HW253758  12.079   6.922   3.376
17307SOL     OW53759  14.681   1.332   4.961
17307SOL    HW153760  14.615   1.373   5.016
17307SOL    HW253761  14.761   1.333   5.014
17308SOL     OW53762   6.059  13.105  10.485
17308SOL    HW153763   6.097  13.172  10.541
17308SOL    HW253764   5.969  13.134  10.470
17309SOL     OW53765   6.902   0.596  14.458
17309SOL    HW153766   6.871   0.662  14.396
17309SOL    HW253767   6.993   0.620  14.476
17310SOL     OW53768   8.055   8.169   5.276
17310SOL    HW153769   7.983   8.222   5.242
17310SOL    HW253770   8.069   8.102   5.209
17311SOL     OW53771  14.119   6.988   0.794
17311SOL    HW153772  14.129   6.899   0.827
17311SOL    HW253773  14.047   7.024   0.846
17312SOL     OW53774   3.070   5.488   7.215
17312SOL    HW153775   3.089   5.525   7.301
17312SOL    HW253776   3.015   5.553   7.172
17313SOL     OW53777  12.903  11.370  12.056
17313SOL    HW153778  12.838  11.388  11.988
17313SOL    HW253779  12.950  11.293  12.025
17314SOL     OW53780   4.833   8.263   4.736
17314SOL    HW153781   4.905   8.311   4.696
17314SOL    HW253782   4.754   8.312   4.711
17315SOL     OW53783   1.582  14.492   2.821
17315SOL    HW153784   1.531  14.551   2.876
17315SOL    HW253785   1.536  14.491   2.737
17316SOL     OW53786   5.230   5.763   3.154
17316SOL    HW153787   5.256   5.789   3.242
17316SOL    HW253788   5.187   5.840   3.118
17317SOL     OW53789   7.702   0.653   2.188
17317SOL    HW153790   7.792   0.686   2.200
17317SOL    HW253791   7.714   0.562   2.158
17318SOL     OW53792   8.125  14.103   3.664
17318SOL    HW153793   8.149  14.014   3.689
17318SOL    HW253794   8.167  14.158   3.731
17319SOL     OW53795  10.772   9.046   7.400
17319SOL    HW153796  10.794   9.044   7.307
17319SOL    HW253797  10.778   8.954   7.428
17320SOL     OW53798   5.834   0.189   7.466
17320SOL    HW153799   5.926   0.168   7.448
17320SOL    HW253800   5.814   0.262   7.408
17321SOL     OW53801  11.606   4.395  11.250
17321SOL    HW153802  11.691   4.428  11.219
17321SOL    HW253803  11.546   4.412  11.177
17322SOL     OW53804  10.639  14.689  13.226
17322SOL    HW153805  10.623  14.783  13.218
17322SOL    HW253806  10.567  14.649  13.177
17323SOL     OW53807  11.739   3.633  14.075
17323SOL    HW153808  11.774   3.584  14.000
17323SOL    HW253809  11.644   3.628  14.064
17324SOL     OW53810   7.377   8.850  10.988
17324SOL    HW153811   7.442   8.919  10.971
17324SOL    HW253812   7.303   8.872  10.930
17325SOL     OW53813  10.980   6.126   1.056
17325SOL    HW153814  11.048   6.190   1.078
17325SOL    HW253815  10.921   6.173   0.998
17326SOL     OW53816   9.410   6.355  10.279
17326SOL    HW153817   9.322   6.390  10.275
17326SOL    HW253818   9.418   6.319  10.368
17327SOL     OW53819  10.067  13.304   3.595
17327SOL    HW153820  10.138  13.362   3.620
17327SOL    HW253821  10.037  13.337   3.510
17328SOL     OW53822  11.321  13.783  10.559
17328SOL    HW153823  11.288  13.824  10.479
17328SOL    HW253824  11.411  13.815  10.567
17329SOL     OW53825   9.427   9.581  12.514
17329SOL    HW153826   9.338   9.603  12.540
17329SOL    HW253827   9.437   9.619  12.426
17330SOL     OW53828   3.918   2.682  13.133
17330SOL    HW153829   4.000   2.642  13.160
17330SOL    HW253830   3.851   2.640  13.187
17331SOL     OW53831   7.137   4.387   1.799
17331SOL    HW153832   7.111   4.364   1.710
17331SOL    HW253833   7.230   4.366   1.803
17332SOL     OW53834   7.874  11.520  11.986
17332SOL    HW153835   7.821  11.459  12.038
17332SOL    HW253836   7.939  11.464  11.944
17333SOL     OW53837   7.093   7.004  13.543
17333SOL    HW153838   7.123   7.022  13.454
17333SOL    HW253839   7.007   6.965  13.532
17334SOL     OW53840   3.495  12.011  11.553
17334SOL    HW153841   3.419  11.964  11.588
17334SOL    HW253842   3.483  12.101  11.581
17335SOL     OW53843   8.109  10.943   1.428
17335SOL    HW153844   8.114  11.038   1.427
17335SOL    HW253845   8.199  10.914   1.411
17336SOL     OW53846  10.173   3.398   1.650
17336SOL    HW153847  10.189   3.342   1.574
17336SOL    HW253848  10.156   3.485   1.614
17337SOL     OW53849   6.336   9.576   0.850
17337SOL    HW153850   6.293   9.660   0.833
17337SOL    HW253851   6.264   9.517   0.874
17338SOL     OW53852   5.214   2.786  10.508
17338SOL    HW153853   5.243   2.727  10.438
17338SOL    HW253854   5.149   2.735  10.557
17339SOL     OW53855   2.514  10.493   1.726
17339SOL    HW153856   2.432  10.526   1.690
17339SOL    HW253857   2.506  10.507   1.821
17340SOL     OW53858   2.660   9.851   7.464
17340SOL    HW153859   2.620   9.925   7.510
17340SOL    HW253860   2.606   9.775   7.489
17341SOL     OW53861  12.632   5.584  13.583
17341SOL    HW153862  12.687   5.590  13.505
17341SOL    HW253863  12.691   5.552  13.652
17342SOL     OW53864  14.253   5.590   5.241
17342SOL    HW153865  14.265   5.499   5.270
17342SOL    HW253866  14.338   5.614   5.203
17343SOL     OW53867   5.450   4.580   2.158
17343SOL    HW153868   5.427   4.573   2.251
17343SOL    HW253869   5.366   4.570   2.112
17344SOL     OW53870   4.201   7.267   6.837
17344SOL    HW153871   4.181   7.178   6.866
17344SOL    HW253872   4.294   7.264   6.814
17345SOL     OW53873   9.827  13.469   3.621
17345SOL    HW153874   9.887  13.449   3.693
17345SOL    HW253875   9.884  13.491   3.547
17346SOL     OW53876   6.986   8.211   1.417
17346SOL    HW153877   6.981   8.279   1.485
17346SOL    HW253878   6.900   8.213   1.376
17347SOL     OW53879  12.443   3.303   7.705
17347SOL    HW153880  12.496   3.223   7.699
17347SOL    HW253881  12.505   3.374   7.688
17348SOL     OW53882   9.867   1.191  14.347
17348SOL    HW153883   9.879   1.284  14.329
17348SOL    HW253884   9.772   1.178  14.341
17349SOL     OW53885   0.226  12.857   4.446
17349SOL    HW153886   0.133  12.865   4.425
17349SOL    HW253887   0.248  12.766   4.425
17350SOL     OW53888  12.242   7.096   0.846
17350SOL    HW153889  12.204   7.157   0.783
17350SOL    HW253890  12.298   7.038   0.794
17351SOL     OW53891   8.730   5.428   5.116
17351SOL    HW153892   8.664   5.453   5.051
17351SOL    HW253893   8.682   5.377   5.181
17352SOL     OW53894  12.011  14.016   7.431
17352SOL    HW153895  12.055  14.015   7.517
17352SOL    HW253896  12.030  13.931   7.393
17353SOL     OW53897  14.020  12.293   3.265
17353SOL    HW153898  14.082  12.235   3.221
17353SOL    HW253899  13.934  12.265   3.233
17354SOL     OW53900  13.966  14.285   0.441
17354SOL    HW153901  13.925  14.307   0.525
17354SOL    HW253902  14.037  14.349   0.432
17355SOL     OW53903  14.699   6.008  10.257
17355SOL    HW153904  14.731   6.065  10.326
17355SOL    HW253905  14.692   5.922  10.299
17356SOL     OW53906  12.644   3.497  12.567
17356SOL    HW153907  12.613   3.588  12.570
17356SOL    HW253908  12.739   3.504  12.576
17357SOL     OW53909   5.373   1.936   9.496
17357SOL    HW153910   5.308   1.872   9.466
17357SOL    HW253911   5.322   2.014   9.517
17358SOL     OW53912  12.783   3.945   9.901
17358SOL    HW153913  12.716   3.878   9.888
17358SOL    HW253914  12.775   4.002   9.825
17359SOL     OW53915   7.490  12.635   9.210
17359SOL    HW153916   7.422  12.579   9.171
17359SOL    HW253917   7.517  12.589   9.289
17360SOL     OW53918   9.177  14.340  11.305
17360SOL    HW153919   9.225  14.374  11.230
17360SOL    HW253920   9.169  14.415  11.364
17361SOL     OW53921   2.819   9.486   7.514
17361SOL    HW153922   2.830   9.504   7.421
17361SOL    HW253923   2.870   9.406   7.529
17362SOL     OW53924   1.979   7.482  11.853
17362SOL    HW153925   1.972   7.435  11.770
17362SOL    HW253926   1.903   7.453  11.903
17363SOL     OW53927  10.968   0.511  14.111
17363SOL    HW153928  11.050   0.498  14.062
17363SOL    HW253929  10.899   0.501  14.045
17364SOL     OW53930   6.297   2.006   6.974
17364SOL    HW153931   6.264   1.938   7.033
17364SOL    HW253932   6.283   1.970   6.886
17365SOL     OW53933  13.207  14.717   4.004
17365SOL    HW153934  13.269  14.785   3.977
17365SOL    HW253935  13.149  14.706   3.928
17366SOL     OW53936   8.419  12.292  14.005
17366SOL    HW153937   8.341  12.331  13.965
17366SOL    HW253938   8.395  12.279  14.097
17367SOL     OW53939   7.513   2.050   6.403
17367SOL    HW153940   7.591   2.019   6.449
17367SOL    HW253941   7.440   2.004   6.446
17368SOL     OW53942   7.729   6.744   7.764
17368SOL    HW153943   7.792   6.814   7.747
17368SOL    HW253944   7.646   6.776   7.728
17369SOL     OW53945   4.459   2.927   4.825
17369SOL    HW153946   4.367   2.921   4.798
17369SOL    HW253947   4.473   3.020   4.841
17370SOL     OW53948  11.294   5.488  11.304
17370SOL    HW153949  11.355   5.480  11.232
17370SOL    HW253950  11.217   5.530  11.266
17371SOL     OW53951   8.406  11.806   8.948
17371SOL    HW153952   8.451  11.789   8.866
17371SOL    HW253953   8.378  11.719   8.978
17372SOL     OW53954   9.433   6.216   9.712
17372SOL    HW153955   9.470   6.240   9.627
17372SOL    HW253956   9.396   6.297   9.746
17373SOL     OW53957   9.931  12.293  12.354
17373SOL    HW153958  10.013  12.308  12.400
17373SOL    HW253959   9.890  12.220  12.400
17374SOL     OW53960   1.804   7.232   1.497
17374SOL    HW153961   1.755   7.183   1.431
17374SOL    HW253962   1.799   7.323   1.467
17375SOL     OW53963   0.813   5.633   4.279
17375SOL    HW153964   0.726   5.606   4.252
17375SOL    HW253965   0.848   5.558   4.327
17376SOL     OW53966  14.365   1.536   9.333
17376SOL    HW153967  14.400   1.481   9.402
17376SOL    HW253968  14.370   1.483   9.254
17377SOL     OW53969   0.996   8.947   6.275
17377SOL    HW153970   0.902   8.952   6.255
17377SOL    HW253971   1.038   8.994   6.203
17378SOL     OW53972   2.533   9.579   8.930
17378SOL    HW153973   2.442   9.552   8.940
17378SOL    HW253974   2.550   9.573   8.836
17379SOL     OW53975   2.427   5.827  14.487
17379SOL    HW153976   2.388   5.744  14.461
17379SOL    HW253977   2.510   5.803  14.528
17380SOL     OW53978  14.536   8.617   1.858
17380SOL    HW153979  14.480   8.573   1.793
17380SOL    HW253980  14.622   8.578   1.847
17381SOL     OW53981  13.575  14.445   2.351
17381SOL    HW153982  13.637  14.495   2.298
17381SOL    HW253983  13.612  14.357   2.354
17382SOL     OW53984  14.260   5.962   0.651
17382SOL    HW153985  14.203   5.985   0.577
17382SOL    HW253986  14.289   5.873   0.632
17383SOL     OW53987   4.386   8.783   9.411
17383SOL    HW153988   4.416   8.815   9.326
17383SOL    HW253989   4.420   8.846   9.474
17384SOL     OW53990  14.144  10.400  12.103
17384SOL    HW153991  14.219  10.359  12.147
17384SOL    HW253992  14.174  10.489  12.084
17385SOL     OW53993   9.953  10.763   8.578
17385SOL    HW153994   9.960  10.741   8.485
17385SOL    HW253995   9.868  10.728   8.605
17386SOL     OW53996   7.106   4.686   8.151
17386SOL    HW153997   7.042   4.747   8.189
17386SOL    HW253998   7.183   4.696   8.206
17387SOL     OW53999   4.765   5.781   4.245
17387SOL    HW154000   4.741   5.735   4.325
17387SOL    HW254001   4.778   5.712   4.180
17388SOL     OW54002  10.019   8.184   6.509
17388SOL    HW154003   9.957   8.238   6.558
17388SOL    HW254004  10.104   8.225   6.525
17389SOL     OW54005  13.217   5.745   1.577
17389SOL    HW154006  13.195   5.838   1.570
17389SOL    HW254007  13.140   5.705   1.618
17390SOL     OW54008   8.663   9.081   5.680
17390SOL    HW154009   8.615   9.158   5.649
17390SOL    HW254010   8.606   9.007   5.659
17391SOL     OW54011   4.510   3.466   9.416
17391SOL    HW154012   4.585   3.446   9.360
17391SOL    HW254013   4.487   3.556   9.393
17392SOL     OW54014  12.436  13.975   5.607
17392SOL    HW154015  12.350  14.017   5.614
17392SOL    HW254016  12.485  14.008   5.683
17393SOL     OW54017  10.664   5.052  10.967
17393SOL    HW154018  10.677   4.968  11.011
17393SOL    HW254019  10.727   5.111  11.009
17394SOL     OW54020  13.626  14.370  12.786
17394SOL    HW154021  13.659  14.407  12.705
17394SOL    HW254022  13.534  14.398  12.789
17395SOL     OW54023  14.079   1.643  12.710
17395SOL    HW154024  14.144   1.611  12.772
17395SOL    HW254025  14.086   1.738  12.715
17396SOL     OW54026  13.691  10.486   8.841
17396SOL    HW154027  13.747  10.436   8.901
17396SOL    HW254028  13.695  10.438   8.759
17397SOL     OW54029   5.098   7.393  12.413
17397SOL    HW154030   5.084   7.458  12.344
17397SOL    HW254031   5.143   7.440  12.482
17398SOL     OW54032   8.425   4.346  12.113
17398SOL    HW154033   8.339   4.353  12.156
17398SOL    HW254034   8.455   4.257  12.133
17399SOL     OW54035  11.457   1.523   1.721
17399SOL    HW154036  11.469   1.428   1.712
17399SOL    HW254037  11.489   1.558   1.638
17400SOL     OW54038   8.604   2.662   6.810
17400SOL    HW154039   8.518   2.676   6.850
17400SOL    HW254040   8.587   2.655   6.717
17401SOL     OW54041   7.265   7.011   7.829
17401SOL    HW154042   7.184   6.978   7.791
17401SOL    HW254043   7.253   7.000   7.924
17402SOL     OW54044   9.232   2.831   6.255
17402SOL    HW154045   9.321   2.800   6.271
17402SOL    HW254046   9.243   2.923   6.232
17403SOL     OW54047   9.358   5.725   7.431
17403SOL    HW154048   9.427   5.700   7.493
17403SOL    HW254049   9.303   5.785   7.481
17404SOL     OW54050   1.253   5.543   9.406
17404SOL    HW154051   1.169   5.507   9.434
17404SOL    HW254052   1.313   5.469   9.407
17405SOL     OW54053   1.514  13.369   4.916
17405SOL    HW154054   1.580  13.300   4.925
17405SOL    HW254055   1.452  13.334   4.853
17406SOL     OW54056  13.335   2.835   7.853
17406SOL    HW154057  13.399   2.839   7.924
17406SOL    HW254058  13.291   2.920   7.855
17407SOL     OW54059  11.280  10.530   3.487
17407SOL    HW154060  11.354  10.484   3.528
17407SOL    HW254061  11.219  10.460   3.464
17408SOL     OW54062   0.181   3.722   1.702
17408SOL    HW154063   0.254   3.721   1.765
17408SOL    HW254064   0.210   3.782   1.634
17409SOL     OW54065   0.879   0.309   9.086
17409SOL    HW154066   0.945   0.377   9.071
17409SOL    HW254067   0.886   0.251   9.010
17410SOL     OW54068   1.856   0.546  11.897
17410SOL    HW154069   1.869   0.488  11.972
17410SOL    HW254070   1.932   0.603  11.898
17411SOL     OW54071   8.365  11.895   3.539
17411SOL    HW154072   8.274  11.907   3.566
17411SOL    HW254073   8.374  11.948   3.459
17412SOL     OW54074  11.943   3.864   4.983
17412SOL    HW154075  12.010   3.923   4.949
17412SOL    HW254076  11.860   3.906   4.961
17413SOL     OW54077   0.853  11.488   3.616
17413SOL    HW154078   0.939  11.507   3.578
17413SOL    HW254079   0.800  11.565   3.595
17414SOL     OW54080   6.694  12.021  10.697
17414SOL    HW154081   6.711  12.029  10.791
17414SOL    HW254082   6.767  12.066  10.655
17415SOL     OW54083   3.383   9.948   7.426
17415SOL    HW154084   3.457   9.914   7.476
17415SOL    HW254085   3.312   9.886   7.443
17416SOL     OW54086   9.479   2.758   2.792
17416SOL    HW154087   9.565   2.798   2.780
17416SOL    HW254088   9.488   2.671   2.753
17417SOL     OW54089   2.610   5.587   6.646
17417SOL    HW154090   2.645   5.578   6.558
17417SOL    HW254091   2.547   5.516   6.654
17418SOL     OW54092  10.331  12.498   0.011
17418SOL    HW154093  10.371  12.521  14.801
17418SOL    HW254094  10.360  12.408   0.027
17419SOL     OW54095   0.879   2.722   7.566
17419SOL    HW154096   0.822   2.645   7.562
17419SOL    HW254097   0.898   2.734   7.659
17420SOL     OW54098   9.989   9.044  14.149
17420SOL    HW154099  10.033   8.976  14.098
17420SOL    HW254100   9.903   9.054  14.108
17421SOL     OW54101   2.817   8.709   7.319
17421SOL    HW154102   2.861   8.713   7.404
17421SOL    HW254103   2.736   8.661   7.335
17422SOL     OW54104   8.272   4.527   0.025
17422SOL    HW154105   8.199   4.542  14.838
17422SOL    HW254106   8.330   4.602   0.011
17423SOL     OW54107   3.744  12.983  10.630
17423SOL    HW154108   3.789  12.904  10.659
17423SOL    HW254109   3.651  12.959  10.630
17424SOL     OW54110  13.985   8.134   9.834
17424SOL    HW154111  13.968   8.225   9.811
17424SOL    HW254112  13.932   8.118   9.912
17425SOL     OW54113  13.378   5.809  12.602
17425SOL    HW154114  13.319   5.880  12.577
17425SOL    HW254115  13.387   5.756  12.522
17426SOL     OW54116   9.115  13.929   3.705
17426SOL    HW154117   9.168  13.944   3.783
17426SOL    HW254118   9.104  13.834   3.700
17427SOL     OW54119  11.358   6.187   0.009
17427SOL    HW154120  11.435   6.150  14.839
17427SOL    HW254121  11.299   6.209  14.810
17428SOL     OW54122  12.754   7.933   2.827
17428SOL    HW154123  12.764   7.970   2.914
17428SOL    HW254124  12.660   7.938   2.809
17429SOL     OW54125   2.843   7.553   7.827
17429SOL    HW154126   2.820   7.588   7.741
17429SOL    HW254127   2.766   7.569   7.881
17430SOL     OW54128   5.277   7.427   3.124
17430SOL    HW154129   5.353   7.419   3.067
17430SOL    HW254130   5.280   7.517   3.156
17431SOL     OW54131   4.182   4.521   9.822
17431SOL    HW154132   4.214   4.598   9.775
17431SOL    HW254133   4.208   4.536   9.913
17432SOL     OW54134   8.892   2.370   3.887
17432SOL    HW154135   8.829   2.418   3.834
17432SOL    HW254136   8.857   2.281   3.891
17433SOL     OW54137   0.126  13.653   0.766
17433SOL    HW154138   0.199  13.595   0.745
17433SOL    HW254139   0.056  13.625   0.707
17434SOL     OW54140  14.543  13.413  12.656
17434SOL    HW154141  14.579  13.325  12.640
17434SOL    HW254142  14.542  13.454  12.570
17435SOL     OW54143   0.528   7.663  14.283
17435SOL    HW154144   0.570   7.706  14.208
17435SOL    HW254145   0.598   7.608  14.320
17436SOL     OW54146   3.821   0.763  13.467
17436SOL    HW154147   3.820   0.784  13.373
17436SOL    HW254148   3.770   0.833  13.508
17437SOL     OW54149   8.155  10.432   7.078
17437SOL    HW154150   8.063  10.437   7.103
17437SOL    HW254151   8.162  10.487   7.000
17438SOL     OW54152  14.624  14.170   2.149
17438SOL    HW154153  14.562  14.243   2.154
17438SOL    HW254154  14.614  14.137   2.060
17439SOL     OW54155  13.810   8.364  14.787
17439SOL    HW154156  13.863   8.322  14.855
17439SOL    HW254157  13.721   8.335  14.805
17440SOL     OW54158   8.360   9.928  14.819
17440SOL    HW154159   8.409   9.980   0.010
17440SOL    HW254160   8.324   9.855  14.869
17441SOL     OW54161  12.046  13.568   6.407
17441SOL    HW154162  11.955  13.565   6.379
17441SOL    HW254163  12.042  13.580   6.502
17442SOL     OW54164   3.051   1.076   5.584
17442SOL    HW154165   2.976   1.049   5.637
17442SOL    HW254166   3.128   1.054   5.637
17443SOL     OW54167   6.909   4.688  10.173
17443SOL    HW154168   6.897   4.698  10.267
17443SOL    HW254169   6.912   4.777  10.139
17444SOL     OW54170   5.731   2.531   6.705
17444SOL    HW154171   5.731   2.502   6.614
17444SOL    HW254172   5.666   2.476   6.748
17445SOL     OW54173   5.550  14.060   2.082
17445SOL    HW154174   5.487  14.125   2.050
17445SOL    HW254175   5.536  14.058   2.177
17446SOL     OW54176   6.948   2.947   5.737
17446SOL    HW154177   7.040   2.921   5.741
17446SOL    HW254178   6.945   3.011   5.666
17447SOL     OW54179   1.487   4.110   6.606
17447SOL    HW154180   1.533   4.053   6.545
17447SOL    HW254181   1.556   4.151   6.657
17448SOL     OW54182   9.454  13.768   6.875
17448SOL    HW154183   9.393  13.752   6.804
17448SOL    HW254184   9.418  13.721   6.950
17449SOL     OW54185  11.572  12.364  12.866
17449SOL    HW154186  11.628  12.438  12.845
17449SOL    HW254187  11.484  12.391  12.837
17450SOL     OW54188  14.628  12.048   5.657
17450SOL    HW154189  14.616  11.953   5.658
17450SOL    HW254190  14.546  12.083   5.621
17451SOL     OW54191   3.827   8.234  10.444
17451SOL    HW154192   3.827   8.303  10.510
17451SOL    HW254193   3.780   8.271  10.370
17452SOL     OW54194   3.775   4.136   1.068
17452SOL    HW154195   3.707   4.153   1.002
17452SOL    HW254196   3.749   4.191   1.142
17453SOL     OW54197   0.522  14.522  14.163
17453SOL    HW154198   0.464  14.589  14.199
17453SOL    HW254199   0.515  14.532  14.068
17454SOL     OW54200   0.484   5.913   4.511
17454SOL    HW154201   0.564   5.960   4.536
17454SOL    HW254202   0.413   5.967   4.544
17455SOL     OW54203   2.511   5.478   1.883
17455SOL    HW154204   2.571   5.419   1.836
17455SOL    HW254205   2.549   5.484   1.971
17456SOL     OW54206   6.865  11.824  14.164
17456SOL    HW154207   6.886  11.743  14.118
17456SOL    HW254208   6.870  11.801  14.257
17457SOL     OW54209   2.534   1.140   7.933
17457SOL    HW154210   2.619   1.096   7.934
17457SOL    HW254211   2.499   1.123   7.845
17458SOL     OW54212  10.953   1.587   7.542
17458SOL    HW154213  10.879   1.645   7.524
17458SOL    HW254214  10.977   1.551   7.457
17459SOL     OW54215   2.463   1.571   8.177
17459SOL    HW154216   2.485   1.532   8.261
17459SOL    HW254217   2.454   1.497   8.117
17460SOL     OW54218  11.534   0.186   0.207
17460SOL    HW154219  11.499   0.224   0.288
17460SOL    HW254220  11.472   0.116   0.185
17461SOL     OW54221   8.735  10.373   9.330
17461SOL    HW154222   8.730  10.468   9.340
17461SOL    HW254223   8.805  10.359   9.267
17462SOL     OW54224   1.083  10.628   5.879
17462SOL    HW154225   0.999  10.635   5.924
17462SOL    HW254226   1.124  10.714   5.891
17463SOL     OW54227  10.987   4.144   0.036
17463SOL    HW154228  10.975   4.070  14.850
17463SOL    HW254229  11.032   4.107   0.112
17464SOL     OW54230   5.036   4.124  11.354
17464SOL    HW154231   5.111   4.171  11.319
17464SOL    HW254232   5.054   4.116  11.448
17465SOL     OW54233  10.466   6.758   4.978
17465SOL    HW154234  10.387   6.791   5.021
17465SOL    HW254235  10.533   6.823   4.999
17466SOL     OW54236   3.681  11.053   3.830
17466SOL    HW154237   3.676  11.141   3.793
17466SOL    HW254238   3.699  11.067   3.923
17467SOL     OW54239  14.534   9.638   1.813
17467SOL    HW154240  14.493   9.573   1.756
17467SOL    HW254241  14.618   9.657   1.771
17468SOL     OW54242   1.656   4.548   6.695
17468SOL    HW154243   1.617   4.548   6.607
17468SOL    HW254244   1.670   4.455   6.714
17469SOL     OW54245   0.128  14.434  11.799
17469SOL    HW154246   0.178  14.453  11.879
17469SOL    HW254247   0.194  14.404  11.736
17470SOL     OW54248   5.426  10.392   8.296
17470SOL    HW154249   5.346  10.357   8.259
17470SOL    HW254250   5.431  10.482   8.264
17471SOL     OW54251  10.764  14.685   1.793
17471SOL    HW154252  10.732  14.757   1.739
17471SOL    HW254253  10.841  14.722   1.838
17472SOL     OW54254   3.001   6.742   6.238
17472SOL    HW154255   2.931   6.704   6.293
17472SOL    HW254256   2.979   6.715   6.149
17473SOL     OW54257  13.217  12.889   0.553
17473SOL    HW154258  13.197  12.884   0.460
17473SOL    HW254259  13.190  12.805   0.589
17474SOL     OW54260   0.728   9.489   8.278
17474SOL    HW154261   0.754   9.536   8.357
17474SOL    HW254262   0.635   9.510   8.267
17475SOL     OW54263   3.871  11.777   9.526
17475SOL    HW154264   3.929  11.701   9.524
17475SOL    HW254265   3.930  11.852   9.530
17476SOL     OW54266   8.510   0.162   5.382
17476SOL    HW154267   8.606   0.159   5.385
17476SOL    HW254268   8.486   0.208   5.462
17477SOL     OW54269  11.235   9.435   5.152
17477SOL    HW154270  11.291   9.511   5.133
17477SOL    HW254271  11.160   9.472   5.199
17478SOL     OW54272  12.683   0.961  12.976
17478SOL    HW154273  12.679   0.907  13.055
17478SOL    HW254274  12.765   1.010  12.985
17479SOL     OW54275   5.495   8.639   2.723
17479SOL    HW154276   5.536   8.557   2.696
17479SOL    HW254277   5.455   8.619   2.808
17480SOL     OW54278  10.890  11.053   9.426
17480SOL    HW154279  10.946  10.986   9.387
17480SOL    HW254280  10.873  11.115   9.355
17481SOL     OW54281   7.513   0.740   0.933
17481SOL    HW154282   7.441   0.744   0.996
17481SOL    HW254283   7.477   0.778   0.853
17482SOL     OW54284  11.239  11.125  13.825
17482SOL    HW154285  11.277  11.041  13.853
17482SOL    HW254286  11.260  11.130  13.731
17483SOL     OW54287   8.433   9.184   4.030
17483SOL    HW154288   8.353   9.190   4.081
17483SOL    HW254289   8.410   9.130   3.954
17484SOL     OW54290   7.863   0.769   3.126
17484SOL    HW154291   7.864   0.771   3.030
17484SOL    HW254292   7.949   0.802   3.152
17485SOL     OW54293  12.191   5.182  12.049
17485SOL    HW154294  12.280   5.153  12.069
17485SOL    HW254295  12.143   5.102  12.030
17486SOL     OW54296  11.861   1.324   7.424
17486SOL    HW154297  11.904   1.249   7.384
17486SOL    HW254298  11.805   1.359   7.355
17487SOL     OW54299   2.192  13.439   1.935
17487SOL    HW154300   2.169  13.469   2.023
17487SOL    HW254301   2.239  13.357   1.949
17488SOL     OW54302  13.130   4.873  12.186
17488SOL    HW154303  13.071   4.945  12.164
17488SOL    HW254304  13.081   4.794  12.161
17489SOL     OW54305   1.111   5.338  14.814
17489SOL    HW154306   1.110   5.431  14.791
17489SOL    HW254307   1.146   5.336   0.030
17490SOL     OW54308   9.100   1.362   5.559
17490SOL    HW154309   9.013   1.333   5.584
17490SOL    HW254310   9.085   1.429   5.493
17491SOL     OW54311  14.134   0.994  11.489
17491SOL    HW154312  14.116   0.963  11.400
17491SOL    HW254313  14.077   1.070  11.499
17492SOL     OW54314   2.195   4.760  12.986
17492SOL    HW154315   2.230   4.674  13.009
17492SOL    HW254316   2.256   4.823  13.025
17493SOL     OW54317   3.516   6.022   9.410
17493SOL    HW154318   3.574   6.051   9.339
17493SOL    HW254319   3.576   6.001   9.482
17494SOL     OW54320   8.614  14.267   6.223
17494SOL    HW154321   8.559  14.255   6.300
17494SOL    HW254322   8.704  14.263   6.258
17495SOL     OW54323  14.601  14.100   1.896
17495SOL    HW154324  14.621  14.057   1.813
17495SOL    HW254325  14.507  14.084   1.908
17496SOL     OW54326  13.070  12.719   1.386
17496SOL    HW154327  13.124  12.784   1.342
17496SOL    HW254328  13.120  12.693   1.463
17497SOL     OW54329  12.268  10.110   3.520
17497SOL    HW154330  12.177  10.105   3.549
17497SOL    HW254331  12.297  10.197   3.549
17498SOL     OW54332   6.513  11.722   6.618
17498SOL    HW154333   6.563  11.736   6.698
17498SOL    HW254334   6.436  11.779   6.626
17499SOL     OW54335  13.393  13.278   4.234
17499SOL    HW154336  13.446  13.246   4.161
17499SOL    HW254337  13.312  13.308   4.194
17500SOL     OW54338   3.271   3.938   6.108
17500SOL    HW154339   3.342   3.892   6.065
17500SOL    HW254340   3.208   3.870   6.130
17501SOL     OW54341  10.767   5.170  12.263
17501SOL    HW154342  10.735   5.259  12.246
17501SOL    HW254343  10.688   5.120  12.281
17502SOL     OW54344   8.209  11.396  12.699
17502SOL    HW154345   8.221  11.447  12.618
17502SOL    HW254346   8.284  11.337  12.701
17503SOL     OW54347  11.158   0.238  10.635
17503SOL    HW154348  11.113   0.213  10.554
17503SOL    HW254349  11.244   0.197  10.627
17504SOL     OW54350  12.497   3.569   1.297
17504SOL    HW154351  12.527   3.493   1.346
17504SOL    HW254352  12.527   3.644   1.348
17505SOL     OW54353   9.155  11.300   7.722
17505SOL    HW154354   9.064  11.303   7.750
17505SOL    HW254355   9.186  11.390   7.730
17506SOL     OW54356  13.326  11.282   9.774
17506SOL    HW154357  13.328  11.361   9.828
17506SOL    HW254358  13.323  11.210   9.837
17507SOL     OW54359   2.527  14.255  11.264
17507SOL    HW154360   2.523  14.163  11.288
17507SOL    HW254361   2.608  14.287  11.304
17508SOL     OW54362  11.330   7.580  11.497
17508SOL    HW154363  11.310   7.486  11.491
17508SOL    HW254364  11.337   7.597  11.591
17509SOL     OW54365   5.883   9.572   3.978
17509SOL    HW154366   5.938   9.598   4.051
17509SOL    HW254367   5.817   9.514   4.017
17510SOL     OW54368   5.689   8.101   7.637
17510SOL    HW154369   5.611   8.129   7.685
17510SOL    HW254370   5.679   8.007   7.629
17511SOL     OW54371   0.756  11.857  12.527
17511SOL    HW154372   0.761  11.946  12.563
17511SOL    HW254373   0.742  11.870  12.433
17512SOL     OW54374   2.729   4.380   0.096
17512SOL    HW154375   2.640   4.414   0.094
17512SOL    HW254376   2.742   4.342   0.009
17513SOL     OW54377   2.447   7.441   1.779
17513SOL    HW154378   2.453   7.484   1.864
17513SOL    HW254379   2.441   7.348   1.800
17514SOL     OW54380   6.410  14.344   2.053
17514SOL    HW154381   6.460  14.264   2.070
17514SOL    HW254382   6.475  14.414   2.053
17515SOL     OW54383  14.623   7.692   4.740
17515SOL    HW154384  14.668   7.614   4.774
17515SOL    HW254385  14.530   7.670   4.746
17516SOL     OW54386  12.139   9.975   4.027
17516SOL    HW154387  12.223   9.984   4.072
17516SOL    HW254388  12.075   9.968   4.097
17517SOL     OW54389   9.964   5.987   3.579
17517SOL    HW154390   9.894   6.049   3.601
17517SOL    HW254391   9.932   5.903   3.610
17518SOL     OW54392  12.682   8.576   6.331
17518SOL    HW154393  12.588   8.584   6.347
17518SOL    HW254394  12.723   8.598   6.415
17519SOL     OW54395   6.418   6.365   9.569
17519SOL    HW154396   6.480   6.305   9.610
17519SOL    HW254397   6.472   6.426   9.519
17520SOL     OW54398   8.425  12.077  13.391
17520SOL    HW154399   8.394  11.987  13.380
17520SOL    HW254400   8.517  12.074  13.365
17521SOL     OW54401   8.199   2.395   0.182
17521SOL    HW154402   8.241   2.329   0.127
17521SOL    HW254403   8.215   2.478   0.137
17522SOL     OW54404   9.401  11.178   1.976
17522SOL    HW154405   9.352  11.217   1.904
17522SOL    HW254406   9.393  11.241   2.047
17523SOL     OW54407   0.698  10.323   0.203
17523SOL    HW154408   0.628  10.323   0.137
17523SOL    HW254409   0.778  10.332   0.152
17524SOL     OW54410   1.790   8.254   6.628
17524SOL    HW154411   1.738   8.180   6.598
17524SOL    HW254412   1.789   8.247   6.723
17525SOL     OW54413  13.437   3.199   1.719
17525SOL    HW154414  13.412   3.210   1.811
17525SOL    HW254415  13.361   3.231   1.670
17526SOL     OW54416   4.330  11.807   1.775
17526SOL    HW154417   4.294  11.789   1.688
17526SOL    HW254418   4.256  11.844   1.824
17527SOL     OW54419   3.512   7.193   1.378
17527SOL    HW154420   3.471   7.108   1.396
17527SOL    HW254421   3.462   7.228   1.304
17528SOL     OW54422   5.644   1.754   1.350
17528SOL    HW154423   5.651   1.802   1.433
17528SOL    HW254424   5.644   1.822   1.283
17529SOL     OW54425   7.529   7.768  14.842
17529SOL    HW154426   7.459   7.774  14.777
17529SOL    HW254427   7.499   7.825   0.041
17530SOL     OW54428   9.409  13.108   4.294
17530SOL    HW154429   9.411  13.087   4.387
17530SOL    HW254430   9.500  13.127   4.272
17531SOL     OW54431   5.831   8.683  12.570
17531SOL    HW154432   5.891   8.631  12.516
17531SOL    HW254433   5.790   8.744  12.509
17532SOL     OW54434   1.924   9.580  10.588
17532SOL    HW154435   1.840   9.623  10.575
17532SOL    HW254436   1.929   9.565  10.682
17533SOL     OW54437   2.187  13.175  12.318
17533SOL    HW154438   2.195  13.125  12.237
17533SOL    HW254439   2.266  13.228  12.321
17534SOL     OW54440   2.409  12.588   6.349
17534SOL    HW154441   2.377  12.644   6.419
17534SOL    HW254442   2.449  12.648   6.286
17535SOL     OW54443   4.186  11.295   7.536
17535SOL    HW154444   4.183  11.201   7.554
17535SOL    HW254445   4.228  11.332   7.614
17536SOL     OW54446   9.573   9.159   3.672
17536SOL    HW154447   9.600   9.069   3.690
17536SOL    HW254448   9.547   9.194   3.758
17537SOL     OW54449   7.207   7.448  13.572
17537SOL    HW154450   7.292   7.447  13.615
17537SOL    HW254451   7.144   7.451  13.644
17538SOL     OW54452   5.495   1.571   5.531
17538SOL    HW154453   5.530   1.654   5.561
17538SOL    HW254454   5.427   1.549   5.594
17539SOL     OW54455  14.569  12.014  12.303
17539SOL    HW154456  14.547  12.006  12.210
17539SOL    HW254457  14.560  12.107  12.321
17540SOL     OW54458   8.403   5.874   3.406
17540SOL    HW154459   8.389   5.786   3.369
17540SOL    HW254460   8.453   5.859   3.486
17541SOL     OW54461   7.653  11.412  14.803
17541SOL    HW154462   7.575  11.371  14.839
17541SOL    HW254463   7.724  11.380  14.859
17542SOL     OW54464  13.349   7.299   8.121
17542SOL    HW154465  13.334   7.368   8.056
17542SOL    HW254466  13.417   7.244   8.082
17543SOL     OW54467   1.731  13.927   9.447
17543SOL    HW154468   1.733  13.952   9.539
17543SOL    HW254469   1.823  13.930   9.420
17544SOL     OW54470  12.301  13.265   0.895
17544SOL    HW154471  12.296  13.196   0.828
17544SOL    HW254472  12.371  13.236   0.953
17545SOL     OW54473   0.583   4.887   3.532
17545SOL    HW154474   0.510   4.868   3.473
17545SOL    HW254475   0.570   4.979   3.557
17546SOL     OW54476   9.090  12.233   9.606
17546SOL    HW154477   9.154  12.247   9.537
17546SOL    HW254478   9.125  12.279   9.682
17547SOL     OW54479   4.031   0.219  10.802
17547SOL    HW154480   4.048   0.128  10.781
17547SOL    HW254481   3.935   0.225  10.810
17548SOL     OW54482   1.554   5.620   0.055
17548SOL    HW154483   1.464   5.641   0.033
17548SOL    HW254484   1.606   5.689   0.016
17549SOL     OW54485  10.112   3.458   6.504
17549SOL    HW154486  10.144   3.511   6.430
17549SOL    HW254487  10.165   3.486   6.578
17550SOL     OW54488   4.463   6.055  12.896
17550SOL    HW154489   4.390   6.117  12.898
17550SOL    HW254490   4.452   6.007  12.814
17551SOL     OW54491  10.898   7.435  13.316
17551SOL    HW154492  10.856   7.379  13.251
17551SOL    HW254493  10.927   7.375  13.384
17552SOL     OW54494   3.997   0.763  11.433
17552SOL    HW154495   4.091   0.769  11.450
17552SOL    HW254496   3.991   0.736  11.342
17553SOL     OW54497   8.577   5.093  10.969
17553SOL    HW154498   8.613   5.120  10.885
17553SOL    HW254499   8.502   5.151  10.983
17554SOL     OW54500   0.419  11.107   4.663
17554SOL    HW154501   0.452  11.195   4.651
17554SOL    HW254502   0.427  11.065   4.577
17555SOL     OW54503   2.638  10.976  12.122
17555SOL    HW154504   2.574  11.046  12.129
17555SOL    HW254505   2.659  10.972  12.028
17556SOL     OW54506   1.446  13.524   7.436
17556SOL    HW154507   1.388  13.578   7.383
17556SOL    HW254508   1.528  13.573   7.438
17557SOL     OW54509  11.480   2.187  14.258
17557SOL    HW154510  11.511   2.199  14.168
17557SOL    HW254511  11.474   2.275  14.293
17558SOL     OW54512  13.960   4.187   6.324
17558SOL    HW154513  13.918   4.232   6.250
17558SOL    HW254514  13.969   4.096   6.294
17559SOL     OW54515   9.203   1.138   1.518
17559SOL    HW154516   9.247   1.201   1.575
17559SOL    HW254517   9.133   1.187   1.476
17560SOL     OW54518   9.581  12.816   4.618
17560SOL    HW154519   9.659  12.866   4.597
17560SOL    HW254520   9.508  12.875   4.598
17561SOL     OW54521   9.968   3.446   7.466
17561SOL    HW154522   9.952   3.540   7.475
17561SOL    HW254523   9.913   3.407   7.534
17562SOL     OW54524   5.069   9.400   3.648
17562SOL    HW154525   5.107   9.359   3.570
17562SOL    HW254526   5.071   9.494   3.629
17563SOL     OW54527   4.123   8.885   9.728
17563SOL    HW154528   4.058   8.863   9.661
17563SOL    HW254529   4.130   8.806   9.781
17564SOL     OW54530   8.720  10.858   8.068
17564SOL    HW154531   8.811  10.886   8.063
17564SOL    HW254532   8.684  10.878   7.982
17565SOL     OW54533   3.830   6.151  14.587
17565SOL    HW154534   3.899   6.215  14.570
17565SOL    HW254535   3.871   6.066  14.567
17566SOL     OW54536   2.576   0.944   6.009
17566SOL    HW154537   2.506   0.973   6.068
17566SOL    HW254538   2.577   1.009   5.939
17567SOL     OW54539   1.117   5.315   7.629
17567SOL    HW154540   1.185   5.376   7.601
17567SOL    HW254541   1.140   5.293   7.719
17568SOL     OW54542  13.497   4.463   5.753
17568SOL    HW154543  13.471   4.552   5.730
17568SOL    HW254544  13.537   4.428   5.673
17569SOL     OW54545   5.011  11.606  14.493
17569SOL    HW154546   5.013  11.693  14.453
17569SOL    HW254547   5.095  11.566  14.469
17570SOL     OW54548   3.190   5.894  13.747
17570SOL    HW154549   3.218   5.918  13.659
17570SOL    HW254550   3.241   5.951  13.805
17571SOL     OW54551  13.250   0.899   4.726
17571SOL    HW154552  13.200   0.979   4.714
17571SOL    HW254553  13.314   0.899   4.654
17572SOL     OW54554  12.516  10.116   3.012
17572SOL    HW154555  12.594  10.170   3.022
17572SOL    HW254556  12.545  10.027   3.033
17573SOL     OW54557   8.839  12.378   7.306
17573SOL    HW154558   8.884  12.402   7.387
17573SOL    HW254559   8.898  12.407   7.236
17574SOL     OW54560  11.663   8.482   1.784
17574SOL    HW154561  11.742   8.448   1.826
17574SOL    HW254562  11.591   8.454   1.841
17575SOL     OW54563  13.504  13.023   2.285
17575SOL    HW154564  13.458  13.050   2.365
17575SOL    HW254565  13.597  13.032   2.307
17576SOL     OW54566   1.505  11.478   5.972
17576SOL    HW154567   1.579  11.538   5.961
17576SOL    HW254568   1.546  11.392   5.983
17577SOL     OW54569   3.371   6.624   7.410
17577SOL    HW154570   3.398   6.591   7.495
17577SOL    HW254571   3.295   6.680   7.428
17578SOL     OW54572   2.261   0.246  11.359
17578SOL    HW154573   2.188   0.275  11.414
17578SOL    HW254574   2.266   0.152  11.374
17579SOL     OW54575   9.194  12.674   1.155
17579SOL    HW154576   9.192  12.716   1.240
17579SOL    HW254577   9.184  12.580   1.173
17580SOL     OW54578   8.459   3.581  11.827
17580SOL    HW154579   8.527   3.513  11.836
17580SOL    HW254580   8.497   3.658  11.868
17581SOL     OW54581   7.937   9.326   1.813
17581SOL    HW154582   7.859   9.279   1.781
17581SOL    HW254583   7.996   9.328   1.737
17582SOL     OW54584   5.390   6.155  12.140
17582SOL    HW154585   5.314   6.174  12.085
17582SOL    HW254586   5.444   6.234  12.135
17583SOL     OW54587   2.314  14.611   2.079
17583SOL    HW154588   2.392  14.644   2.124
17583SOL    HW254589   2.269  14.690   2.048
17584SOL     OW54590  13.592   8.427   0.892
17584SOL    HW154591  13.552   8.387   0.969
17584SOL    HW254592  13.650   8.360   0.856
17585SOL     OW54593   4.724   0.377  13.446
17585SOL    HW154594   4.677   0.295  13.466
17585SOL    HW254595   4.724   0.382  13.351
17586SOL     OW54596   5.472  11.654  10.063
17586SOL    HW154597   5.468  11.750  10.059
17586SOL    HW254598   5.396  11.625  10.013
17587SOL     OW54599   2.304   7.902   2.854
17587SOL    HW154600   2.290   7.838   2.923
17587SOL    HW254601   2.248   7.872   2.782
17588SOL     OW54602   7.765   1.031   1.871
17588SOL    HW154603   7.838   1.080   1.833
17588SOL    HW254604   7.690   1.054   1.817
17589SOL     OW54605  14.719  14.371   5.003
17589SOL    HW154606  14.746  14.435   4.937
17589SOL    HW254607  14.631  14.399   5.028
17590SOL     OW54608   4.116  13.154   1.420
17590SOL    HW154609   4.163  13.073   1.437
17590SOL    HW254610   4.048  13.158   1.487
17591SOL     OW54611   6.821   3.886   9.136
17591SOL    HW154612   6.874   3.821   9.090
17591SOL    HW254613   6.743   3.837   9.163
17592SOL     OW54614   9.115   2.620  13.059
17592SOL    HW154615   9.132   2.562  12.984
17592SOL    HW254616   9.024   2.603  13.083
17593SOL     OW54617   5.729   8.600  10.917
17593SOL    HW154618   5.742   8.694  10.902
17593SOL    HW254619   5.797   8.577  10.980
17594SOL     OW54620   1.918  14.243   5.876
17594SOL    HW154621   1.883  14.260   5.963
17594SOL    HW254622   1.902  14.149   5.861
17595SOL     OW54623   0.060   8.616   1.430
17595SOL    HW154624   0.129   8.675   1.458
17595SOL    HW254625   0.003   8.670   1.375
17596SOL     OW54626   8.279  12.245   9.202
17596SOL    HW154627   8.280  12.242   9.107
17596SOL    HW254628   8.253  12.157   9.229
17597SOL     OW54629   6.691   0.456   1.741
17597SOL    HW154630   6.648   0.511   1.675
17597SOL    HW254631   6.758   0.408   1.692
17598SOL     OW54632   3.875  12.305  10.261
17598SOL    HW154633   3.965  12.337  10.272
17598SOL    HW254634   3.842  12.352  10.185
17599SOL     OW54635   3.558  12.325  10.865
17599SOL    HW154636   3.500  12.256  10.834
17599SOL    HW254637   3.502  12.403  10.873
17600SOL     OW54638  13.982   4.823   0.814
17600SOL    HW154639  14.026   4.876   0.880
17600SOL    HW254640  13.992   4.733   0.844
17601SOL     OW54641  14.198   9.693  10.921
17601SOL    HW154642  14.149   9.700  10.839
17601SOL    HW254643  14.231   9.603  10.922
17602SOL     OW54644   7.607   7.489  14.833
17602SOL    HW154645   7.625   7.491  14.739
17602SOL    HW254646   7.570   7.576  14.852
17603SOL     OW54647   2.930   4.409   6.043
17603SOL    HW154648   2.927   4.350   6.118
17603SOL    HW254649   2.843   4.450   6.041
17604SOL     OW54650  10.337  12.272   5.071
17604SOL    HW154651  10.395  12.197   5.058
17604SOL    HW254652  10.294  12.255   5.156
17605SOL     OW54653   7.336   9.685   8.160
17605SOL    HW154654   7.329   9.770   8.202
17605SOL    HW254655   7.400   9.637   8.213
17606SOL     OW54656   0.041  10.840  14.845
17606SOL    HW154657   0.042  10.830  14.750
17606SOL    HW254658   0.129  10.869  14.868
17607SOL     OW54659   8.817   1.702   1.592
17607SOL    HW154660   8.831   1.751   1.511
17607SOL    HW254661   8.780   1.766   1.653
17608SOL     OW54662   9.982   6.332   2.930
17608SOL    HW154663  10.067   6.338   2.974
17608SOL    HW254664   9.954   6.423   2.920
17609SOL     OW54665  12.891   2.215   7.234
17609SOL    HW154666  12.884   2.121   7.249
17609SOL    HW254667  12.802   2.248   7.244
17610SOL     OW54668  14.101  13.687  11.710
17610SOL    HW154669  14.191  13.721  11.707
17610SOL    HW254670  14.091  13.653  11.799
17611SOL     OW54671   1.453   4.377   2.130
17611SOL    HW154672   1.401   4.384   2.211
17611SOL    HW254673   1.401   4.322   2.072
17612SOL     OW54674  14.819   8.910   9.610
17612SOL    HW154675  14.862   8.855   9.544
17612SOL    HW254676  14.727   8.883   9.607
17613SOL     OW54677   1.077   5.281   7.918
17613SOL    HW154678   1.012   5.212   7.906
17613SOL    HW254679   1.146   5.241   7.971
17614SOL     OW54680  10.672   0.868   9.851
17614SOL    HW154681  10.653   0.910   9.934
17614SOL    HW254682  10.718   0.787   9.875
17615SOL     OW54683  14.731   1.176  14.772
17615SOL    HW154684  14.758   1.263  14.802
17615SOL    HW254685  14.643   1.165  14.808
17616SOL     OW54686   6.526   2.011  11.565
17616SOL    HW154687   6.514   2.038  11.655
17616SOL    HW254688   6.451   1.954  11.546
17617SOL     OW54689  10.740  14.457   9.738
17617SOL    HW154690  10.695  14.379   9.768
17617SOL    HW254691  10.833  14.432   9.736
17618SOL     OW54692   4.308   3.400   5.573
17618SOL    HW154693   4.260   3.447   5.505
17618SOL    HW254694   4.267   3.429   5.655
17619SOL     OW54695   3.120   1.920   8.685
17619SOL    HW154696   3.069   1.999   8.702
17619SOL    HW254697   3.060   1.864   8.635
17620SOL     OW54698   2.108   5.630  11.154
17620SOL    HW154699   2.129   5.677  11.234
17620SOL    HW254700   2.173   5.660  11.091
17621SOL     OW54701   1.080  14.504   1.511
17621SOL    HW154702   1.112  14.519   1.422
17621SOL    HW254703   0.985  14.510   1.503
17622SOL     OW54704   0.434   0.005  13.668
17622SOL    HW154705   0.468  14.869  13.579
17622SOL    HW254706   0.457   0.094  13.694
17623SOL     OW54707   6.749  12.306  10.914
17623SOL    HW154708   6.839  12.338  10.917
17623SOL    HW254709   6.728  12.298  10.821
17624SOL     OW54710  11.856   9.206   9.156
17624SOL    HW154711  11.947   9.233   9.144
17624SOL    HW254712  11.808   9.252   9.087
17625SOL     OW54713   3.142   6.938   6.343
17625SOL    HW154714   3.085   6.873   6.302
17625SOL    HW254715   3.151   7.007   6.277
17626SOL     OW54716   9.218  14.406   1.520
17626SOL    HW154717   9.271  14.361   1.453
17626SOL    HW254718   9.259  14.492   1.528
17627SOL     OW54719   7.166   3.975   6.218
17627SOL    HW154720   7.150   3.951   6.309
17627SOL    HW254721   7.135   4.065   6.211
17628SOL     OW54722   8.531   6.214   1.734
17628SOL    HW154723   8.536   6.160   1.813
17628SOL    HW254724   8.497   6.298   1.764
17629SOL     OW54725   7.617  13.556   7.725
17629SOL    HW154726   7.641  13.549   7.817
17629SOL    HW254727   7.675  13.623   7.690
17630SOL     OW54728   9.845   2.746  12.226
17630SOL    HW154729   9.752   2.766  12.233
17630SOL    HW254730   9.874   2.733  12.316
17631SOL     OW54731   5.519  12.514   6.221
17631SOL    HW154732   5.601  12.556   6.245
17631SOL    HW254733   5.544  12.430   6.183
17632SOL     OW54734  10.355  13.563  13.108
17632SOL    HW154735  10.331  13.651  13.136
17632SOL    HW254736  10.301  13.505  13.162
17633SOL     OW54737   8.249   9.036   7.572
17633SOL    HW154738   8.286   8.969   7.515
17633SOL    HW254739   8.293   9.117   7.546
17634SOL     OW54740   7.190   8.050   2.589
17634SOL    HW154741   7.277   8.009   2.587
17634SOL    HW254742   7.167   8.062   2.497
17635SOL     OW54743   7.092   6.389   6.457
17635SOL    HW154744   7.182   6.404   6.486
17635SOL    HW254745   7.039   6.444   6.515
17636SOL     OW54746   1.179   4.270   4.930
17636SOL    HW154747   1.115   4.217   4.883
17636SOL    HW254748   1.222   4.322   4.862
17637SOL     OW54749   4.368   3.209  13.955
17637SOL    HW154750   4.453   3.253  13.942
17637SOL    HW254751   4.316   3.273  14.004
17638SOL     OW54752   1.208  13.195  13.000
17638SOL    HW154753   1.249  13.117  13.038
17638SOL    HW254754   1.121  13.166  12.972
17639SOL     OW54755  14.705   1.006  14.496
17639SOL    HW154756  14.647   1.003  14.419
17639SOL    HW254757  14.655   1.055  14.562
17640SOL     OW54758  13.063   6.279  12.160
17640SOL    HW154759  13.146   6.278  12.206
17640SOL    HW254760  13.009   6.342  12.207
17641SOL     OW54761   8.443   7.178   1.228
17641SOL    HW154762   8.528   7.148   1.260
17641SOL    HW254763   8.382   7.159   1.300
17642SOL     OW54764   2.064  10.911  12.920
17642SOL    HW154765   2.052  10.877  12.831
17642SOL    HW254766   2.058  11.006  12.910
17643SOL     OW54767   6.554  10.265   9.501
17643SOL    HW154768   6.495  10.211   9.553
17643SOL    HW254769   6.542  10.233   9.411
17644SOL     OW54770   3.181   9.698   9.465
17644SOL    HW154771   3.127   9.737   9.534
17644SOL    HW254772   3.222   9.773   9.421
17645SOL     OW54773   8.713   4.439  14.468
17645SOL    HW154774   8.750   4.480  14.546
17645SOL    HW254775   8.785   4.388  14.431
17646SOL     OW54776   5.612  14.249  12.250
17646SOL    HW154777   5.674  14.300  12.304
17646SOL    HW254778   5.610  14.163  12.292
17647SOL     OW54779  12.377   3.406   9.302
17647SOL    HW154780  12.394   3.355   9.381
17647SOL    HW254781  12.338   3.344   9.240
17648SOL     OW54782  12.492   3.612   6.835
17648SOL    HW154783  12.437   3.607   6.913
17648SOL    HW254784  12.539   3.695   6.845
17649SOL     OW54785   8.206  11.382   8.787
17649SOL    HW154786   8.268  11.311   8.802
17649SOL    HW254787   8.150  11.351   8.715
17650SOL     OW54788   0.024  13.675  11.408
17650SOL    HW154789   0.017  13.705  11.498
17650SOL    HW254790  14.828  13.724  11.361
17651SOL     OW54791   5.733   1.432   9.362
17651SOL    HW154792   5.742   1.434   9.267
17651SOL    HW254793   5.647   1.392   9.377
17652SOL     OW54794   7.876   2.636  14.067
17652SOL    HW154795   7.806   2.590  14.114
17652SOL    HW254796   7.953   2.626  14.123
17653SOL     OW54797   6.675   0.114   3.139
17653SOL    HW154798   6.679   0.025   3.103
17653SOL    HW254799   6.587   0.145   3.119
17654SOL     OW54800  14.524  11.648   4.596
17654SOL    HW154801  14.514  11.657   4.690
17654SOL    HW254802  14.617  11.630   4.583
17655SOL     OW54803   5.804  10.523  12.813
17655SOL    HW154804   5.876  10.520  12.876
17655SOL    HW254805   5.757  10.604  12.833
17656SOL     OW54806   6.817   9.557  14.175
17656SOL    HW154807   6.873   9.516  14.240
17656SOL    HW254808   6.755   9.610  14.225
17657SOL     OW54809   4.014  11.310  13.397
17657SOL    HW154810   3.923  11.331  13.415
17657SOL    HW254811   4.033  11.354  13.314
17658SOL     OW54812   4.997   3.671  11.551
17658SOL    HW154813   4.990   3.578  11.572
17658SOL    HW254814   4.938   3.683  11.477
17659SOL     OW54815  13.569   0.486   9.030
17659SOL    HW154816  13.603   0.400   9.055
17659SOL    HW254817  13.645   0.532   8.992
17660SOL     OW54818   9.300   7.683   8.227
17660SOL    HW154819   9.270   7.744   8.295
17660SOL    HW254820   9.378   7.725   8.190
17661SOL     OW54821   4.177   7.722   2.452
17661SOL    HW154822   4.212   7.811   2.445
17661SOL    HW254823   4.247   7.667   2.417
17662SOL     OW54824   4.650  10.360   6.074
17662SOL    HW154825   4.745  10.357   6.087
17662SOL    HW254826   4.616  10.285   6.123
17663SOL     OW54827   4.842  14.834   3.888
17663SOL    HW154828   4.782  14.816   3.960
17663SOL    HW254829   4.900  14.757   3.886
17664SOL     OW54830   1.820   7.717   2.786
17664SOL    HW154831   1.842   7.698   2.877
17664SOL    HW254832   1.852   7.806   2.772
17665SOL     OW54833   2.312  10.250   4.319
17665SOL    HW154834   2.356  10.195   4.254
17665SOL    HW254835   2.263  10.314   4.267
17666SOL     OW54836  13.002   5.914   0.795
17666SOL    HW154837  13.060   5.847   0.759
17666SOL    HW254838  13.037   5.997   0.763
17667SOL     OW54839   4.060  13.845   8.610
17667SOL    HW154840   4.082  13.860   8.518
17667SOL    HW254841   4.141  13.860   8.658
17668SOL     OW54842  11.264   6.488   6.988
17668SOL    HW154843  11.255   6.546   6.912
17668SOL    HW254844  11.176   6.453   7.002
17669SOL     OW54845   1.313   7.417   1.130
17669SOL    HW154846   1.227   7.389   1.161
17669SOL    HW254847   1.326   7.369   1.049
17670SOL     OW54848  12.022   9.007   5.778
17670SOL    HW154849  11.977   9.012   5.694
17670SOL    HW254850  12.112   9.031   5.758
17671SOL     OW54851   7.064   3.867   5.633
17671SOL    HW154852   7.138   3.903   5.584
17671SOL    HW254853   6.995   3.933   5.624
17672SOL     OW54854   4.265  11.781   3.394
17672SOL    HW154855   4.300  11.692   3.389
17672SOL    HW254856   4.171  11.769   3.404
17673SOL     OW54857   2.502   5.482   5.996
17673SOL    HW154858   2.569   5.529   5.946
17673SOL    HW254859   2.493   5.398   5.951
17674SOL     OW54860  14.043   7.878   6.644
17674SOL    HW154861  14.028   7.799   6.591
17674SOL    HW254862  13.956   7.911   6.663
17675SOL     OW54863  14.514   3.309   1.804
17675SOL    HW154864  14.443   3.364   1.772
17675SOL    HW254865  14.572   3.369   1.851
17676SOL     OW54866  11.991   1.393   7.944
17676SOL    HW154867  11.985   1.367   7.852
17676SOL    HW254868  11.906   1.432   7.964
17677SOL     OW54869   8.405   0.598   6.006
17677SOL    HW154870   8.491   0.591   6.049
17677SOL    HW254871   8.363   0.672   6.049
17678SOL     OW54872   3.482   4.457   2.139
17678SOL    HW154873   3.432   4.537   2.145
17678SOL    HW254874   3.546   4.462   2.210
17679SOL     OW54875   3.299   9.288   6.825
17679SOL    HW154876   3.378   9.253   6.784
17679SOL    HW254877   3.311   9.383   6.825
17680SOL     OW54878  14.166   3.352  14.512
17680SOL    HW154879  14.132   3.349  14.601
17680SOL    HW254880  14.174   3.260  14.486
17681SOL     OW54881   6.718  12.652  14.209
17681SOL    HW154882   6.706  12.611  14.124
17681SOL    HW254883   6.660  12.728  14.207
17682SOL     OW54884   0.584   7.896   9.442
17682SOL    HW154885   0.588   7.953   9.365
17682SOL    HW254886   0.503   7.921   9.486
17683SOL     OW54887   5.194  14.544   9.705
17683SOL    HW154888   5.180  14.475   9.640
17683SOL    HW254889   5.148  14.512   9.783
17684SOL     OW54890  12.121   6.111  11.875
17684SOL    HW154891  12.086   6.031  11.915
17684SOL    HW254892  12.088   6.109  11.785
17685SOL     OW54893  10.116   2.957   7.933
17685SOL    HW154894  10.150   2.919   7.852
17685SOL    HW254895  10.058   2.890   7.969
17686SOL     OW54896   9.474   1.427   4.745
17686SOL    HW154897   9.547   1.371   4.718
17686SOL    HW254898   9.400   1.397   4.692
17687SOL     OW54899  14.479  13.921   8.912
17687SOL    HW154900  14.567  13.884   8.920
17687SOL    HW254901  14.427  13.875   8.978
17688SOL     OW54902  11.488   2.837  12.029
17688SOL    HW154903  11.457   2.895  11.959
17688SOL    HW254904  11.510   2.755  11.984
17689SOL     OW54905   0.102   9.933  11.539
17689SOL    HW154906   0.173   9.938  11.603
17689SOL    HW254907   0.077  10.024  11.525
17690SOL     OW54908   3.339   2.107   1.525
17690SOL    HW154909   3.279   2.156   1.581
17690SOL    HW254910   3.340   2.155   1.443
17691SOL     OW54911  12.510  12.956   7.401
17691SOL    HW154912  12.443  12.887   7.398
17691SOL    HW254913  12.592  12.910   7.381
17692SOL     OW54914   8.909   7.522   3.085
17692SOL    HW154915   8.912   7.554   2.995
17692SOL    HW254916   8.833   7.565   3.124
17693SOL     OW54917  10.170   7.845   1.279
17693SOL    HW154918  10.141   7.899   1.205
17693SOL    HW254919  10.091   7.803   1.311
17694SOL     OW54920   8.429  12.323   1.779
17694SOL    HW154921   8.400  12.298   1.867
17694SOL    HW254922   8.421  12.419   1.777
17695SOL     OW54923   8.841   4.564   7.664
17695SOL    HW154924   8.778   4.554   7.592
17695SOL    HW254925   8.894   4.485   7.660
17696SOL     OW54926   0.700   9.089   1.583
17696SOL    HW154927   0.785   9.133   1.574
17696SOL    HW254928   0.682   9.093   1.677
17697SOL     OW54929   2.588  11.667   7.686
17697SOL    HW154930   2.626  11.609   7.752
17697SOL    HW254931   2.663  11.704   7.640
17698SOL     OW54932   0.147   8.348   5.645
17698SOL    HW154933   0.069   8.386   5.685
17698SOL    HW254934   0.214   8.355   5.712
17699SOL     OW54935  10.861   9.391   5.696
17699SOL    HW154936  10.810   9.316   5.728
17699SOL    HW254937  10.804   9.466   5.711
17700SOL     OW54938   5.193   8.171   6.735
17700SOL    HW154939   5.110   8.206   6.768
17700SOL    HW254940   5.200   8.084   6.774
17701SOL     OW54941   6.071  12.664   1.985
17701SOL    HW154942   6.027  12.686   2.067
17701SOL    HW254943   6.106  12.747   1.954
17702SOL     OW54944  10.494   4.785  10.861
17702SOL    HW154945  10.525   4.701  10.826
17702SOL    HW254946  10.475   4.838  10.783
17703SOL     OW54947   7.046   7.975   6.162
17703SOL    HW154948   6.952   7.973   6.141
17703SOL    HW254949   7.050   8.004   6.253
17704SOL     OW54950   8.054  13.337  14.547
17704SOL    HW154951   8.069  13.243  14.540
17704SOL    HW254952   8.006  13.348  14.629
17705SOL     OW54953  14.686   2.989  11.077
17705SOL    HW154954  14.636   2.911  11.057
17705SOL    HW254955  14.777   2.959  11.082
17706SOL     OW54956   0.113   5.268  10.708
17706SOL    HW154957   0.174   5.337  10.682
17706SOL    HW254958   0.051   5.262  10.636
17707SOL     OW54959  14.832   1.752   5.595
17707SOL    HW154960  14.839   1.809   5.672
17707SOL    HW254961  14.776   1.680   5.624
17708SOL     OW54962  12.177   5.475   5.471
17708SOL    HW154963  12.266   5.464   5.435
17708SOL    HW254964  12.185   5.547   5.533
17709SOL     OW54965  13.955   5.477   9.048
17709SOL    HW154966  13.996   5.556   9.015
17709SOL    HW254967  13.891   5.507   9.112
17710SOL     OW54968   6.316   9.950   7.902
17710SOL    HW154969   6.357  10.010   7.964
17710SOL    HW254970   6.381   9.883   7.885
17711SOL     OW54971   2.884   2.669   5.090
17711SOL    HW154972   2.803   2.693   5.047
17711SOL    HW254973   2.859   2.653   5.181
17712SOL     OW54974  11.780  13.208   3.056
17712SOL    HW154975  11.793  13.301   3.041
17712SOL    HW254976  11.690  13.201   3.087
17713SOL     OW54977   2.171   5.982  10.288
17713SOL    HW154978   2.203   5.945  10.371
17713SOL    HW254979   2.235   6.050  10.267
17714SOL     OW54980  12.358  11.587  11.654
17714SOL    HW154981  12.432  11.640  11.624
17714SOL    HW254982  12.303  11.579  11.576
17715SOL     OW54983   1.096   9.355  12.435
17715SOL    HW154984   1.163   9.300  12.394
17715SOL    HW254985   1.145   9.411  12.496
17716SOL     OW54986  11.509   1.960   1.192
17716SOL    HW154987  11.566   2.036   1.183
17716SOL    HW254988  11.569   1.887   1.211
17717SOL     OW54989   2.812  13.052  11.599
17717SOL    HW154990   2.837  13.109  11.527
17717SOL    HW254991   2.744  13.100  11.647
17718SOL     OW54992   5.209   3.229  13.174
17718SOL    HW154993   5.129   3.281  13.181
17718SOL    HW254994   5.178   3.138  13.171
17719SOL     OW54995   0.201   7.153   7.442
17719SOL    HW154996   0.218   7.060   7.454
17719SOL    HW254997   0.259   7.179   7.370
17720SOL     OW54998   5.395   8.222   9.567
17720SOL    HW154999   5.409   8.264   9.652
17720SOL    HW255000   5.444   8.276   9.505
17721SOL     OW55001   0.153  14.207   6.157
17721SOL    HW155002   0.076  14.262   6.172
17721SOL    HW255003   0.225  14.270   6.149
17722SOL     OW55004   8.814  12.340   3.332
17722SOL    HW155005   8.867  12.275   3.377
17722SOL    HW255006   8.799  12.408   3.398
17723SOL     OW55007   3.129   3.212   3.376
17723SOL    HW155008   3.209   3.264   3.365
17723SOL    HW255009   3.059   3.268   3.342
17724SOL     OW55010   1.783   8.844   3.022
17724SOL    HW155011   1.799   8.889   3.105
17724SOL    HW255012   1.710   8.892   2.982
17725SOL     OW55013   3.090  12.849   1.261
17725SOL    HW155014   3.148  12.882   1.193
17725SOL    HW255015   3.041  12.926   1.291
17726SOL     OW55016   6.058   0.831  13.673
17726SOL    HW155017   6.028   0.750  13.715
17726SOL    HW255018   6.035   0.819  13.580
17727SOL     OW55019  13.883   7.211  13.433
17727SOL    HW155020  13.827   7.289  13.436
17727SOL    HW255021  13.909   7.203  13.342
17728SOL     OW55022  12.583  14.047  14.257
17728SOL    HW155023  12.516  14.111  14.281
17728SOL    HW255024  12.617  14.078  14.173
17729SOL     OW55025   3.201  11.592   4.560
17729SOL    HW155026   3.261  11.550   4.498
17729SOL    HW255027   3.214  11.544   4.642
17730SOL     OW55028  12.937   9.697   2.331
17730SOL    HW155029  12.851   9.683   2.291
17730SOL    HW255030  12.921   9.690   2.425
17731SOL     OW55031   8.821   0.909  12.396
17731SOL    HW155032   8.812   1.000  12.424
17731SOL    HW255033   8.904   0.907  12.350
17732SOL     OW55034   5.208   8.165   7.685
17732SOL    HW155035   5.143   8.205   7.627
17732SOL    HW255036   5.162   8.091   7.724
17733SOL     OW55037  12.673   4.455  13.231
17733SOL    HW155038  12.641   4.493  13.149
17733SOL    HW255039  12.729   4.523  13.268
17734SOL     OW55040  11.529   1.677  13.304
17734SOL    HW155041  11.584   1.685  13.226
17734SOL    HW255042  11.556   1.750  13.360
17735SOL     OW55043   7.258   5.517   0.456
17735SOL    HW155044   7.344   5.535   0.420
17735SOL    HW255045   7.198   5.528   0.382
17736SOL     OW55046   1.807  13.884   0.384
17736SOL    HW155047   1.807  13.967   0.433
17736SOL    HW255048   1.739  13.897   0.317
17737SOL     OW55049  12.416  13.877   4.358
17737SOL    HW155050  12.423  13.970   4.335
17737SOL    HW255051  12.493  13.860   4.413
17738SOL     OW55052   1.580  10.546  10.012
17738SOL    HW155053   1.545  10.629   9.978
17738SOL    HW255054   1.670  10.543   9.981
17739SOL     OW55055  12.048   2.871   6.671
17739SOL    HW155056  11.968   2.868   6.723
17739SOL    HW255057  12.077   2.962   6.678
17740SOL     OW55058  10.645  10.226   9.675
17740SOL    HW155059  10.624  10.229   9.582
17740SOL    HW255060  10.664  10.133   9.691
17741SOL     OW55061  10.382   8.686   2.098
17741SOL    HW155062  10.312   8.696   2.034
17741SOL    HW255063  10.402   8.592   2.097
17742SOL     OW55064  12.756  13.263   6.452
17742SOL    HW155065  12.661  13.273   6.456
17742SOL    HW255066  12.773  13.232   6.363
17743SOL     OW55067   8.887   6.357   1.881
17743SOL    HW155068   8.834   6.362   1.961
17743SOL    HW255069   8.971   6.321   1.909
17744SOL     OW55070   4.159   3.480   6.988
17744SOL    HW155071   4.168   3.410   7.053
17744SOL    HW255072   4.181   3.438   6.905
17745SOL     OW55073   6.743   3.708  10.117
17745SOL    HW155074   6.681   3.663  10.175
17745SOL    HW255075   6.822   3.655  10.121
17746SOL     OW55076   2.702   8.662  10.825
17746SOL    HW155077   2.693   8.756  10.811
17746SOL    HW255078   2.615   8.627  10.810
17747SOL     OW55079   8.926  10.712  10.932
17747SOL    HW155080   9.018  10.735  10.920
17747SOL    HW255081   8.889  10.710  10.844
17748SOL     OW55082   1.569  13.193   9.402
17748SOL    HW155083   1.525  13.237   9.329
17748SOL    HW255084   1.622  13.262   9.443
17749SOL     OW55085   3.875  14.387   2.318
17749SOL    HW155086   3.925  14.318   2.362
17749SOL    HW255087   3.801  14.403   2.377
17750SOL     OW55088  12.156   3.861  12.637
17750SOL    HW155089  12.220   3.914  12.590
17750SOL    HW255090  12.111   3.811  12.568
17751SOL     OW55091   8.852  13.627   9.639
17751SOL    HW155092   8.807  13.647   9.721
17751SOL    HW255093   8.840  13.533   9.627
17752SOL     OW55094   7.286   3.666  10.948
17752SOL    HW155095   7.332   3.749  10.958
17752SOL    HW255096   7.310   3.615  11.026
17753SOL     OW55097   8.577  12.310  14.461
17753SOL    HW155098   8.670  12.289  14.459
17753SOL    HW255099   8.534  12.228  14.486
17754SOL     OW55100  12.667   0.682   5.655
17754SOL    HW155101  12.641   0.591   5.639
17754SOL    HW255102  12.702   0.683   5.744
17755SOL     OW55103  14.310   0.671   0.953
17755SOL    HW155104  14.262   0.734   0.899
17755SOL    HW255105  14.360   0.726   1.013
17756SOL     OW55106   7.343  12.441   6.278
17756SOL    HW155107   7.431  12.475   6.265
17756SOL    HW255108   7.287  12.519   6.284
17757SOL     OW55109   0.058   6.810   1.829
17757SOL    HW155110   0.130   6.859   1.787
17757SOL    HW255111   0.001   6.784   1.757
17758SOL     OW55112  10.796  11.509   3.834
17758SOL    HW155113  10.802  11.417   3.807
17758SOL    HW255114  10.882  11.528   3.871
17759SOL     OW55115  12.069  14.360   0.829
17759SOL    HW155116  12.115  14.301   0.769
17759SOL    HW255117  11.979  14.362   0.796
17760SOL     OW55118   1.309   9.829   2.714
17760SOL    HW155119   1.287   9.742   2.750
17760SOL    HW255120   1.386   9.814   2.659
17761SOL     OW55121   7.708   0.933  11.345
17761SOL    HW155122   7.621   0.898  11.364
17761SOL    HW255123   7.753   0.861  11.298
17762SOL     OW55124   1.130   2.189  13.385
17762SOL    HW155125   1.119   2.282  13.363
17762SOL    HW255126   1.140   2.146  13.300
17763SOL     OW55127   5.567   1.676  14.286
17763SOL    HW155128   5.656   1.669  14.322
17763SOL    HW255129   5.577   1.733  14.209
17764SOL     OW55130   9.521  12.072   6.367
17764SOL    HW155131   9.614  12.093   6.375
17764SOL    HW255132   9.498  12.032   6.451
17765SOL     OW55133   3.967   3.229   3.074
17765SOL    HW155134   4.029   3.174   3.122
17765SOL    HW255135   3.946   3.178   2.995
17766SOL     OW55136  13.578  12.395  11.944
17766SOL    HW155137  13.621  12.337  12.007
17766SOL    HW255138  13.588  12.483  11.981
17767SOL     OW55139   9.004   0.573   6.013
17767SOL    HW155140   9.017   0.498   6.072
17767SOL    HW255141   8.952   0.635   6.064
17768SOL     OW55142   3.919   7.763   3.266
17768SOL    HW155143   3.996   7.777   3.322
17768SOL    HW255144   3.848   7.746   3.328
17769SOL     OW55145   2.683   4.718   9.863
17769SOL    HW155146   2.719   4.802   9.889
17769SOL    HW255147   2.678   4.667   9.944
17770SOL     OW55148   7.091  13.922   5.756
17770SOL    HW155149   7.125  13.944   5.669
17770SOL    HW255150   7.168  13.926   5.813
17771SOL     OW55151  14.713   3.417   0.895
17771SOL    HW155152  14.718   3.461   0.811
17771SOL    HW255153  14.751   3.330   0.879
17772SOL     OW55154  11.527   5.535   1.782
17772SOL    HW155155  11.551   5.576   1.865
17772SOL    HW255156  11.600   5.476   1.762
17773SOL     OW55157   5.082   8.565   2.158
17773SOL    HW155158   5.162   8.566   2.106
17773SOL    HW255159   5.012   8.581   2.095
17774SOL     OW55160   8.140  14.227   2.646
17774SOL    HW155161   8.114  14.135   2.654
17774SOL    HW255162   8.186  14.245   2.729
17775SOL     OW55163   3.009  10.814   7.169
17775SOL    HW155164   3.061  10.890   7.195
17775SOL    HW255165   2.920  10.836   7.194
17776SOL     OW55166   3.201   7.598   0.303
17776SOL    HW155167   3.152   7.673   0.337
17776SOL    HW255168   3.186   7.528   0.367
17777SOL     OW55169  13.505  14.853   0.791
17777SOL    HW155170  13.454  14.774   0.774
17777SOL    HW255171  13.441   0.045   0.821
17778SOL     OW55172  13.091  14.395   5.636
17778SOL    HW155173  13.162  14.333   5.649
17778SOL    HW255174  13.108  14.465   5.698
17779SOL     OW55175   5.353  12.246   4.984
17779SOL    HW155176   5.395  12.277   4.903
17779SOL    HW255177   5.273  12.204   4.954
17780SOL     OW55178  12.449   8.342  10.636
17780SOL    HW155179  12.368   8.338  10.585
17780SOL    HW255180  12.480   8.252  10.639
17781SOL     OW55181   9.082   4.861  11.737
17781SOL    HW155182   9.146   4.800  11.773
17781SOL    HW255183   9.003   4.809  11.725
17782SOL     OW55184  11.393   3.759   5.773
17782SOL    HW155185  11.452   3.834   5.784
17782SOL    HW255186  11.448   3.692   5.732
17783SOL     OW55187  12.830  12.607   4.160
17783SOL    HW155188  12.884  12.678   4.126
17783SOL    HW255189  12.855  12.531   4.108
17784SOL     OW55190   2.499   3.338  10.905
17784SOL    HW155191   2.476   3.246  10.897
17784SOL    HW255192   2.479   3.360  10.996
17785SOL     OW55193   5.232  12.482   0.336
17785SOL    HW155194   5.208  12.464   0.245
17785SOL    HW255195   5.172  12.429   0.388
17786SOL     OW55196  14.208   1.922   0.989
17786SOL    HW155197  14.185   1.873   0.911
17786SOL    HW255198  14.304   1.921   0.991
17787SOL     OW55199   5.375   1.087   9.657
17787SOL    HW155200   5.410   1.005   9.622
17787SOL    HW255201   5.284   1.088   9.627
17788SOL     OW55202   9.746   1.372  10.532
17788SOL    HW155203   9.743   1.414  10.445
17788SOL    HW255204   9.770   1.281  10.514
17789SOL     OW55205   6.442   2.767   1.133
17789SOL    HW155206   6.410   2.824   1.202
17789SOL    HW255207   6.436   2.820   1.053
17790SOL     OW55208   6.202   9.467  13.449
17790SOL    HW155209   6.120   9.421  13.432
17790SOL    HW255210   6.178   9.534  13.513
17791SOL     OW55211   3.269  13.830  10.442
17791SOL    HW155212   3.363  13.814  10.452
17791SOL    HW255213   3.234  13.824  10.530
17792SOL     OW55214   0.980   8.443   8.734
17792SOL    HW155215   0.969   8.367   8.676
17792SOL    HW255216   0.953   8.412   8.820
17793SOL     OW55217   6.567  10.641   1.992
17793SOL    HW155218   6.560  10.610   1.902
17793SOL    HW255219   6.662  10.645   2.009
17794SOL     OW55220   7.906   4.881   2.039
17794SOL    HW155221   7.966   4.810   2.017
17794SOL    HW255222   7.833   4.870   1.978
17795SOL     OW55223  10.470   2.569   6.439
17795SOL    HW155224  10.444   2.650   6.483
17795SOL    HW255225  10.554   2.546   6.477
17796SOL     OW55226   2.217  14.348   8.779
17796SOL    HW155227   2.257  14.429   8.812
17796SOL    HW255228   2.257  14.334   8.694
17797SOL     OW55229   9.844   2.691   2.331
17797SOL    HW155230   9.817   2.629   2.398
17797SOL    HW255231   9.807   2.774   2.359
17798SOL     OW55232  13.779   3.580   3.397
17798SOL    HW155233  13.746   3.666   3.422
17798SOL    HW255234  13.847   3.561   3.462
17799SOL     OW55235   3.880   3.796   3.026
17799SOL    HW155236   3.936   3.831   2.957
17799SOL    HW255237   3.803   3.761   2.980
17800SOL     OW55238  13.992   2.124   6.501
17800SOL    HW155239  13.994   2.029   6.513
17800SOL    HW255240  13.911   2.152   6.544
17801SOL     OW55241  14.040   9.781   3.067
17801SOL    HW155242  14.059   9.854   3.007
17801SOL    HW255243  13.945   9.784   3.078
17802SOL     OW55244  14.616   1.604   7.676
17802SOL    HW155245  14.570   1.553   7.743
17802SOL    HW255246  14.555   1.674   7.654
17803SOL     OW55247   2.293   9.012  14.293
17803SOL    HW155248   2.201   8.986  14.287
17803SOL    HW255249   2.331   8.984  14.210
17804SOL     OW55250   1.049   9.773   6.408
17804SOL    HW155251   1.093   9.821   6.478
17804SOL    HW255252   0.992   9.711   6.454
17805SOL     OW55253   3.945  12.344   0.992
17805SOL    HW155254   3.931  12.356   1.086
17805SOL    HW255255   3.917  12.427   0.953
17806SOL     OW55256  14.042  10.704  11.949
17806SOL    HW155257  14.038  10.697  11.854
17806SOL    HW255258  13.950  10.708  11.976
17807SOL     OW55259   5.488   8.665   6.765
17807SOL    HW155260   5.573   8.690   6.802
17807SOL    HW255261   5.508   8.629   6.679
17808SOL     OW55262   3.626   4.017   2.020
17808SOL    HW155263   3.581   4.037   2.103
17808SOL    HW255264   3.613   4.096   1.967
17809SOL     OW55265   7.730  10.279   1.711
17809SOL    HW155266   7.756  10.189   1.729
17809SOL    HW255267   7.635  10.274   1.698
17810SOL     OW55268   7.321   4.516   5.861
17810SOL    HW155269   7.288   4.601   5.833
17810SOL    HW255270   7.362   4.533   5.946
17811SOL     OW55271  10.817  12.708   0.743
17811SOL    HW155272  10.738  12.708   0.797
17811SOL    HW255273  10.874  12.642   0.782
17812SOL     OW55274   4.750   5.103  12.357
17812SOL    HW155275   4.698   5.159  12.301
17812SOL    HW255276   4.791   5.040  12.297
17813SOL     OW55277  12.773   9.068  10.891
17813SOL    HW155278  12.866   9.073  10.871
17813SOL    HW255279  12.749   9.157  10.918
17814SOL     OW55280   3.025  10.338  13.701
17814SOL    HW155281   3.061  10.284  13.771
17814SOL    HW255282   3.049  10.427  13.725
17815SOL     OW55283   5.835   3.715   2.226
17815SOL    HW155284   5.902   3.655   2.262
17815SOL    HW255285   5.809   3.768   2.301
17816SOL     OW55286  14.197  11.217   2.736
17816SOL    HW155287  14.102  11.209   2.727
17816SOL    HW255288  14.216  11.186   2.824
17817SOL     OW55289   4.419   0.302   9.548
17817SOL    HW155290   4.504   0.267   9.522
17817SOL    HW255291   4.417   0.291   9.643
17818SOL     OW55292   5.265   3.830   1.087
17818SOL    HW155293   5.354   3.864   1.096
17818SOL    HW255294   5.210   3.895   1.132
17819SOL     OW55295   4.544  11.955   0.879
17819SOL    HW155296   4.570  12.026   0.937
17819SOL    HW255297   4.449  11.956   0.881
17820SOL     OW55298  14.836   6.341   0.883
17820SOL    HW155299  14.855   6.435   0.882
17820SOL    HW255300  14.743   6.336   0.858
17821SOL     OW55301   0.934   1.814   3.502
17821SOL    HW155302   0.924   1.833   3.595
17821SOL    HW255303   0.955   1.898   3.462
17822SOL     OW55304   2.665   3.273  10.651
17822SOL    HW155305   2.711   3.339  10.599
17822SOL    HW255306   2.615   3.324  10.715
17823SOL     OW55307   8.063  14.048   7.897
17823SOL    HW155308   7.999  14.058   7.826
17823SOL    HW255309   8.027  14.098   7.970
17824SOL     OW55310   7.349   3.517  12.717
17824SOL    HW155311   7.269   3.494  12.670
17824SOL    HW255312   7.402   3.565  12.653
17825SOL     OW55313   0.157  13.891   7.696
17825SOL    HW155314   0.170  13.865   7.605
17825SOL    HW255315   0.140  13.808   7.742
17826SOL     OW55316   6.911  10.651   0.754
17826SOL    HW155317   6.932  10.650   0.660
17826SOL    HW255318   6.818  10.674   0.757
17827SOL     OW55319   6.886   7.622   7.232
17827SOL    HW155320   6.846   7.617   7.146
17827SOL    HW255321   6.827   7.573   7.289
17828SOL     OW55322   4.502   9.741   4.282
17828SOL    HW155323   4.550   9.706   4.357
17828SOL    HW255324   4.410   9.738   4.309
17829SOL     OW55325   2.732   0.329  10.965
17829SOL    HW155326   2.820   0.309  10.934
17829SOL    HW255327   2.679   0.253  10.939
17830SOL     OW55328  11.944  11.621  11.172
17830SOL    HW155329  12.020  11.641  11.116
17830SOL    HW255330  11.873  11.672  11.135
17831SOL     OW55331   9.904   7.950   6.750
17831SOL    HW155332   9.839   7.970   6.817
17831SOL    HW255333   9.872   7.993   6.671
17832SOL     OW55334   9.225  11.914   0.810
17832SOL    HW155335   9.199  11.964   0.733
17832SOL    HW255336   9.143  11.879   0.844
17833SOL     OW55337  13.250   5.376  10.013
17833SOL    HW155338  13.333   5.336  10.036
17833SOL    HW255339  13.207   5.394  10.096
17834SOL     OW55340   8.598   4.062   3.395
17834SOL    HW155341   8.568   4.153   3.402
17834SOL    HW255342   8.631   4.041   3.483
17835SOL     OW55343   2.273   3.433   0.254
17835SOL    HW155344   2.289   3.516   0.208
17835SOL    HW255345   2.195   3.450   0.307
17836SOL     OW55346  12.972   4.823   9.668
17836SOL    HW155347  12.888   4.839   9.624
17836SOL    HW255348  12.981   4.895   9.730
17837SOL     OW55349   4.443   0.130   9.146
17837SOL    HW155350   4.399   0.051   9.113
17837SOL    HW255351   4.435   0.193   9.075
17838SOL     OW55352   9.670   0.908   1.753
17838SOL    HW155353   9.631   0.991   1.725
17838SOL    HW255354   9.611   0.876   1.821
17839SOL     OW55355   8.909   5.871   8.046
17839SOL    HW155356   8.887   5.798   8.103
17839SOL    HW255357   8.954   5.933   8.103
17840SOL     OW55358   7.402   3.518   5.444
17840SOL    HW155359   7.356   3.485   5.367
17840SOL    HW255360   7.474   3.457   5.457
17841SOL     OW55361  13.276  13.081   0.280
17841SOL    HW155362  13.226  13.152   0.320
17841SOL    HW255363  13.210  13.023   0.242
17842SOL     OW55364   8.624   9.683   2.266
17842SOL    HW155365   8.607   9.709   2.175
17842SOL    HW255366   8.683   9.609   2.258
17843SOL     OW55367   3.157   5.244  14.142
17843SOL    HW155368   3.084   5.306  14.133
17843SOL    HW255369   3.186   5.229  14.052
17844SOL     OW55370  13.027  11.975   3.390
17844SOL    HW155371  12.988  12.002   3.307
17844SOL    HW255372  13.114  11.943   3.366
17845SOL     OW55373   6.829   1.186  13.178
17845SOL    HW155374   6.886   1.110  13.190
17845SOL    HW255375   6.772   1.163  13.106
17846SOL     OW55376   7.745   6.456   3.636
17846SOL    HW155377   7.742   6.375   3.686
17846SOL    HW255378   7.753   6.428   3.545
17847SOL     OW55379   4.609   8.571  11.596
17847SOL    HW155380   4.545   8.631  11.558
17847SOL    HW255381   4.693   8.614  11.581
17848SOL     OW55382  10.724   5.055   8.630
17848SOL    HW155383  10.780   4.984   8.597
17848SOL    HW255384  10.774   5.134   8.613
17849SOL     OW55385   0.236   7.226  10.847
17849SOL    HW155386   0.173   7.274  10.794
17849SOL    HW255387   0.298   7.190  10.783
17850SOL     OW55388   7.484   0.937   8.657
17850SOL    HW155389   7.522   1.023   8.643
17850SOL    HW255390   7.412   0.932   8.594
17851SOL     OW55391   7.754  13.936  13.356
17851SOL    HW155392   7.828  13.977  13.310
17851SOL    HW255393   7.724  14.003  13.417
17852SOL     OW55394   1.787  14.425   6.930
17852SOL    HW155395   1.848  14.460   6.866
17852SOL    HW255396   1.705  14.414   6.882
17853SOL     OW55397  14.321   9.776   1.365
17853SOL    HW155398  14.338   9.847   1.427
17853SOL    HW255399  14.317   9.697   1.419
17854SOL     OW55400  14.185  10.704  10.957
17854SOL    HW155401  14.264  10.758  10.950
17854SOL    HW255402  14.160  10.684  10.867
17855SOL     OW55403   6.376   6.797   9.909
17855SOL    HW155404   6.451   6.808   9.851
17855SOL    HW255405   6.333   6.883   9.908
17856SOL     OW55406  10.133  13.819   6.568
17856SOL    HW155407  10.227  13.800   6.570
17856SOL    HW255408  10.126  13.896   6.512
17857SOL     OW55409   0.177  13.070   8.668
17857SOL    HW155410   0.154  13.162   8.675
17857SOL    HW255411   0.143  13.030   8.748
17858SOL     OW55412  11.863  10.951  12.037
17858SOL    HW155413  11.858  10.912  11.950
17858SOL    HW255414  11.775  10.984  12.054
17859SOL     OW55415   2.543  11.632  10.736
17859SOL    HW155416   2.609  11.625  10.804
17859SOL    HW255417   2.567  11.564  10.672
17860SOL     OW55418  14.024   6.611   2.746
17860SOL    HW155419  14.085   6.546   2.781
17860SOL    HW255420  14.037   6.607   2.651
17861SOL     OW55421   9.032  13.455   7.984
17861SOL    HW155422   9.050  13.483   8.073
17861SOL    HW255423   8.973  13.380   7.993
17862SOL     OW55424  13.864   4.632   4.975
17862SOL    HW155425  13.832   4.707   5.024
17862SOL    HW255426  13.958   4.630   4.992
17863SOL     OW55427   9.079   1.500   4.625
17863SOL    HW155428   9.064   1.546   4.707
17863SOL    HW255429   9.009   1.530   4.567
17864SOL     OW55430  14.700  14.303  13.140
17864SOL    HW155431  14.617  14.266  13.109
17864SOL    HW255432  14.738  14.344  13.063
17865SOL     OW55433   5.816  10.946  12.392
17865SOL    HW155434   5.756  10.927  12.320
17865SOL    HW255435   5.901  10.959  12.349
17866SOL     OW55436  12.429   5.339   0.832
17866SOL    HW155437  12.421   5.434   0.842
17866SOL    HW255438  12.382   5.319   0.750
17867SOL     OW55439   3.790   7.411   5.592
17867SOL    HW155440   3.748   7.336   5.634
17867SOL    HW255441   3.866   7.430   5.647
17868SOL     OW55442   0.235   7.434   8.429
17868SOL    HW155443   0.263   7.356   8.476
17868SOL    HW255444   0.210   7.496   8.497
17869SOL     OW55445   6.862  10.144   2.341
17869SOL    HW155446   6.905  10.228   2.357
17869SOL    HW255447   6.908  10.082   2.397
17870SOL     OW55448   3.977   4.036   9.687
17870SOL    HW155449   3.917   4.048   9.761
17870SOL    HW255450   4.028   4.117   9.683
17871SOL     OW55451   0.536  14.569   4.784
17871SOL    HW155452   0.526  14.630   4.857
17871SOL    HW255453   0.601  14.506   4.814
17872SOL     OW55454   0.597   6.334   2.777
17872SOL    HW155455   0.588   6.412   2.722
17872SOL    HW255456   0.636   6.367   2.859
17873SOL     OW55457   5.775  11.793  13.005
17873SOL    HW155458   5.833  11.777  13.080
17873SOL    HW255459   5.692  11.751  13.029
17874SOL     OW55460  10.226  14.808   7.283
17874SOL    HW155461  10.187  14.785   7.199
17874SOL    HW255462  10.269  14.728   7.312
17875SOL     OW55463  13.096  10.309  11.507
17875SOL    HW155464  13.054  10.273  11.429
17875SOL    HW255465  13.083  10.404  11.501
17876SOL     OW55466   5.595   5.785   4.584
17876SOL    HW155467   5.582   5.879   4.579
17876SOL    HW255468   5.690   5.774   4.584
17877SOL     OW55469  12.298   4.567  11.436
17877SOL    HW155470  12.342   4.650  11.417
17877SOL    HW255471  12.247   4.548  11.357
17878SOL     OW55472   8.754   6.082   4.650
17878SOL    HW155473   8.689   6.147   4.623
17878SOL    HW255474   8.712   6.033   4.721
17879SOL     OW55475  11.775   2.025   5.996
17879SOL    HW155476  11.703   1.964   6.012
17879SOL    HW255477  11.774   2.084   6.072
17880SOL     OW55478  13.232   7.180  11.124
17880SOL    HW155479  13.305   7.161  11.065
17880SOL    HW255480  13.266   7.161  11.211
17881SOL     OW55481  10.413   0.329   2.454
17881SOL    HW155482  10.340   0.278   2.489
17881SOL    HW255483  10.486   0.312   2.514
17882SOL     OW55484   4.237   1.764   7.653
17882SOL    HW155485   4.146   1.757   7.682
17882SOL    HW255486   4.288   1.724   7.724
17883SOL     OW55487   2.290   8.639  11.595
17883SOL    HW155488   2.363   8.603  11.546
17883SOL    HW255489   2.267   8.571  11.659
17884SOL     OW55490   8.299  13.995   7.781
17884SOL    HW155491   8.219  14.030   7.821
17884SOL    HW255492   8.270  13.916   7.736
17885SOL     OW55493   2.386  11.780   6.159
17885SOL    HW155494   2.308  11.822   6.122
17885SOL    HW255495   2.416  11.842   6.226
17886SOL     OW55496  11.098   0.037   4.069
17886SOL    HW155497  11.082   0.020   4.162
17886SOL    HW255498  11.189   0.011   4.055
17887SOL     OW55499  12.842  11.853   7.090
17887SOL    HW155500  12.840  11.788   7.021
17887SOL    HW255501  12.752  11.857   7.122
17888SOL     OW55502   7.196   1.039   0.510
17888SOL    HW155503   7.209   0.976   0.581
17888SOL    HW255504   7.108   1.019   0.476
17889SOL     OW55505   5.100   0.449   0.702
17889SOL    HW155506   5.194   0.460   0.714
17889SOL    HW255507   5.087   0.355   0.698
17890SOL     OW55508   3.274   1.564  10.637
17890SOL    HW155509   3.226   1.647  10.642
17890SOL    HW255510   3.222   1.504  10.691
17891SOL     OW55511   7.452   7.252   6.974
17891SOL    HW155512   7.379   7.193   6.993
17891SOL    HW255513   7.476   7.287   7.060
17892SOL     OW55514   3.497   4.482  13.931
17892SOL    HW155515   3.457   4.560  13.969
17892SOL    HW255516   3.429   4.446  13.874
17893SOL     OW55517   8.706   6.257  13.112
17893SOL    HW155518   8.694   6.248  13.017
17893SOL    HW255519   8.799   6.276  13.122
17894SOL     OW55520   5.107   7.980   8.985
17894SOL    HW155521   5.103   7.894   8.943
17894SOL    HW255522   5.164   7.967   9.060
17895SOL     OW55523   0.145  11.306   3.498
17895SOL    HW155524   0.060  11.320   3.457
17895SOL    HW255525   0.175  11.222   3.464
17896SOL     OW55526   5.895   4.733   5.178
17896SOL    HW155527   5.910   4.816   5.224
17896SOL    HW255528   5.975   4.683   5.193
17897SOL     OW55529   9.403  13.137   0.708
17897SOL    HW155530   9.382  13.190   0.786
17897SOL    HW255531   9.497  13.121   0.715
17898SOL     OW55532  12.046  11.241  10.450
17898SOL    HW155533  11.967  11.188  10.443
17898SOL    HW255534  12.040  11.304  10.377
17899SOL     OW55535   4.816   3.814   5.738
17899SOL    HW155536   4.772   3.842   5.818
17899SOL    HW255537   4.907   3.797   5.765
17900SOL     OW55538  11.911   7.624   3.079
17900SOL    HW155539  11.927   7.574   3.159
17900SOL    HW255540  11.964   7.704   3.091
17901SOL     OW55541   5.140  10.975  11.965
17901SOL    HW155542   5.178  10.965  11.878
17901SOL    HW255543   5.098  10.891  11.983
17902SOL     OW55544   2.903  13.632   7.635
17902SOL    HW155545   2.859  13.712   7.665
17902SOL    HW255546   2.993  13.659   7.619
17903SOL     OW55547   7.545   7.717  12.646
17903SOL    HW155548   7.633   7.684  12.668
17903SOL    HW255549   7.557   7.762  12.563
17904SOL     OW55550   9.826   1.646   9.336
17904SOL    HW155551   9.843   1.663   9.243
17904SOL    HW255552   9.904   1.679   9.381
17905SOL     OW55553   2.360  13.841   7.917
17905SOL    HW155554   2.311  13.860   7.836
17905SOL    HW255555   2.444  13.885   7.905
17906SOL     OW55556   8.450  11.865   4.283
17906SOL    HW155557   8.391  11.846   4.356
17906SOL    HW255558   8.532  11.889   4.324
17907SOL     OW55559   7.856   8.563   8.584
17907SOL    HW155560   7.798   8.597   8.516
17907SOL    HW255561   7.857   8.468   8.569
17908SOL     OW55562   4.765   2.732  14.453
17908SOL    HW155563   4.761   2.652  14.505
17908SOL    HW255564   4.850   2.771  14.477
17909SOL     OW55565   3.717   1.587   3.148
17909SOL    HW155566   3.659   1.660   3.170
17909SOL    HW255567   3.799   1.607   3.193
17910SOL     OW55568   3.604   7.385  13.262
17910SOL    HW155569   3.549   7.312  13.291
17910SOL    HW255570   3.587   7.391  13.168
17911SOL     OW55571  10.378   6.725   9.238
17911SOL    HW155572  10.293   6.705   9.277
17911SOL    HW255573  10.424   6.641   9.237
17912SOL     OW55574  13.203   5.231  14.866
17912SOL    HW155575  13.154   5.208  14.787
17912SOL    HW255576  13.136   5.257   0.056
17913SOL     OW55577   7.612  14.320   8.573
17913SOL    HW155578   7.687  14.345   8.519
17913SOL    HW255579   7.553  14.395   8.570
17914SOL     OW55580   5.924  11.130   5.025
17914SOL    HW155581   5.890  11.071   5.092
17914SOL    HW255582   5.847  11.153   4.973
17915SOL     OW55583  13.324  12.002   4.585
17915SOL    HW155584  13.358  12.090   4.605
17915SOL    HW255585  13.361  11.946   4.654
17916SOL     OW55586   6.741   3.926  12.464
17916SOL    HW155587   6.834   3.917  12.484
17916SOL    HW255588   6.710   3.995  12.523
17917SOL     OW55589   2.886   3.955   7.460
17917SOL    HW155590   2.959   3.992   7.410
17917SOL    HW255591   2.822   3.930   7.394
17918SOL     OW55592  11.252   2.653   1.393
17918SOL    HW155593  11.341   2.687   1.391
17918SOL    HW255594  11.231   2.647   1.487
17919SOL     OW55595   4.475   7.950   5.891
17919SOL    HW155596   4.506   7.926   5.979
17919SOL    HW255597   4.413   7.881   5.868
17920SOL     OW55598  11.080  11.762  11.808
17920SOL    HW155599  11.011  11.794  11.749
17920SOL    HW255600  11.125  11.694  11.758
17921SOL     OW55601   0.222   9.242   1.443
17921SOL    HW155602   0.317   9.236   1.458
17921SOL    HW255603   0.212   9.221   1.350
17922SOL     OW55604  14.200   2.409   0.100
17922SOL    HW155605  14.185   2.345   0.169
17922SOL    HW255606  14.112   2.430   0.068
17923SOL     OW55607   4.338   2.111   7.620
17923SOL    HW155608   4.246   2.083   7.622
17923SOL    HW255609   4.347   2.166   7.698
17924SOL     OW55610  10.210   8.435   8.971
17924SOL    HW155611  10.256   8.351   8.980
17924SOL    HW255612  10.262   8.483   8.906
17925SOL     OW55613   4.975   6.902   6.907
17925SOL    HW155614   5.053   6.958   6.900
17925SOL    HW255615   4.908   6.947   6.856
17926SOL     OW55616   4.096   9.946   5.227
17926SOL    HW155617   4.040   9.946   5.149
17926SOL    HW255618   4.107  10.038   5.249
17927SOL     OW55619   4.814  13.981   3.801
17927SOL    HW155620   4.844  13.893   3.820
17927SOL    HW255621   4.801  13.982   3.706
17928SOL     OW55622   5.098   6.407  13.471
17928SOL    HW155623   5.053   6.473  13.419
17928SOL    HW255624   5.185   6.443  13.486
17929SOL     OW55625   8.941   9.121  14.539
17929SOL    HW155626   8.880   9.054  14.570
17929SOL    HW255627   8.949   9.182  14.612
17930SOL     OW55628   2.444   2.344   8.496
17930SOL    HW155629   2.420   2.270   8.441
17930SOL    HW255630   2.501   2.307   8.563
17931SOL     OW55631   0.571   6.874   7.216
17931SOL    HW155632   0.641   6.850   7.156
17931SOL    HW255633   0.544   6.792   7.256
17932SOL     OW55634   2.246   3.759   0.435
17932SOL    HW155635   2.216   3.688   0.492
17932SOL    HW255636   2.334   3.778   0.465
17933SOL     OW55637   3.451   3.758   6.014
17933SOL    HW155638   3.480   3.716   5.933
17933SOL    HW255639   3.528   3.755   6.071
17934SOL     OW55640   6.492  13.942   9.839
17934SOL    HW155641   6.488  13.941   9.743
17934SOL    HW255642   6.550  14.015   9.860
17935SOL     OW55643  12.552   0.229   9.024
17935SOL    HW155644  12.535   0.272   8.940
17935SOL    HW255645  12.646   0.209   9.022
17936SOL     OW55646   0.399   8.042   9.037
17936SOL    HW155647   0.403   8.063   8.944
17936SOL    HW255648   0.421   7.949   9.042
17937SOL     OW55649  13.582   2.067   0.462
17937SOL    HW155650  13.635   2.121   0.521
17937SOL    HW255651  13.592   1.978   0.495
17938SOL     OW55652   1.305   3.944  13.519
17938SOL    HW155653   1.255   3.870  13.554
17938SOL    HW255654   1.267   4.021  13.561
17939SOL     OW55655   8.015  11.736   0.595
17939SOL    HW155656   8.047  11.787   0.521
17939SOL    HW255657   7.935  11.694   0.563
17940SOL     OW55658   6.952   1.250   8.609
17940SOL    HW155659   7.028   1.206   8.647
17940SOL    HW255660   6.896   1.179   8.577
17941SOL     OW55661   9.624  13.079   2.106
17941SOL    HW155662   9.585  13.158   2.067
17941SOL    HW255663   9.560  13.010   2.088
17942SOL     OW55664  13.647  12.838   9.001
17942SOL    HW155665  13.661  12.926   9.035
17942SOL    HW255666  13.668  12.844   8.908
17943SOL     OW55667   6.917  11.444  12.585
17943SOL    HW155668   7.009  11.470  12.591
17943SOL    HW255669   6.885  11.449  12.675
17944SOL     OW55670   3.626   8.651   6.913
17944SOL    HW155671   3.636   8.586   6.843
17944SOL    HW255672   3.551   8.620   6.964
17945SOL     OW55673   6.283  12.024   8.930
17945SOL    HW155674   6.253  12.057   9.015
17945SOL    HW255675   6.341  11.951   8.952
17946SOL     OW55676   7.997  14.035   0.131
17946SOL    HW155677   7.947  13.961   0.165
17946SOL    HW255678   8.061  14.054   0.199
17947SOL     OW55679   9.237  13.226  14.480
17947SOL    HW155680   9.179  13.297  14.456
17947SOL    HW255681   9.220  13.210  14.573
17948SOL     OW55682  10.089   1.788   7.859
17948SOL    HW155683  10.070   1.818   7.770
17948SOL    HW255684  10.134   1.704   7.848
17949SOL     OW55685   4.996   4.730   7.533
17949SOL    HW155686   5.012   4.823   7.550
17949SOL    HW255687   5.010   4.719   7.439
17950SOL     OW55688   8.029   2.466   9.657
17950SOL    HW155689   7.968   2.435   9.724
17950SOL    HW255690   8.097   2.399   9.654
17951SOL     OW55691   8.225  12.461  11.294
17951SOL    HW155692   8.232  12.495  11.205
17951SOL    HW255693   8.285  12.516  11.345
17952SOL     OW55694   6.772   8.183   4.577
17952SOL    HW155695   6.850   8.196   4.522
17952SOL    HW255696   6.704   8.154   4.517
17953SOL     OW55697   3.525   8.805  11.874
17953SOL    HW155698   3.570   8.725  11.904
17953SOL    HW255699   3.439   8.775  11.847
17954SOL     OW55700  12.119   3.458  12.655
17954SOL    HW155701  12.153   3.381  12.700
17954SOL    HW255702  12.179   3.529  12.680
17955SOL     OW55703   8.757  13.211   6.468
17955SOL    HW155704   8.801  13.190   6.550
17955SOL    HW255705   8.758  13.307   6.464
17956SOL     OW55706  13.097   6.023   1.550
17956SOL    HW155707  13.072   6.070   1.470
17956SOL    HW255708  13.113   6.092   1.615
17957SOL     OW55709   0.587   3.249   5.342
17957SOL    HW155710   0.507   3.289   5.308
17957SOL    HW255711   0.584   3.158   5.312
17958SOL     OW55712   0.846   3.274   0.889
17958SOL    HW155713   0.930   3.259   0.931
17958SOL    HW255714   0.790   3.204   0.923
17959SOL     OW55715  13.998   8.854  10.702
17959SOL    HW155716  13.978   8.763  10.723
17959SOL    HW255717  13.943   8.905  10.762
17960SOL     OW55718   7.237  11.744   2.002
17960SOL    HW155719   7.193  11.696   1.932
17960SOL    HW255720   7.168  11.763   2.065
17961SOL     OW55721   2.133   1.073   3.274
17961SOL    HW155722   2.094   1.021   3.344
17961SOL    HW255723   2.071   1.144   3.260
17962SOL     OW55724   8.755  10.826   7.288
17962SOL    HW155725   8.721  10.890   7.350
17962SOL    HW255726   8.847  10.818   7.310
17963SOL     OW55727   6.482   8.525  13.024
17963SOL    HW155728   6.515   8.474  12.950
17963SOL    HW255729   6.412   8.471  13.061
17964SOL     OW55730   7.494   0.583   8.506
17964SOL    HW155731   7.553   0.527   8.454
17964SOL    HW255732   7.489   0.540   8.591
17965SOL     OW55733  13.090  14.845   2.977
17965SOL    HW155734  13.164   0.006   2.926
17965SOL    HW255735  13.065   0.045   3.033
17966SOL     OW55736  13.594   6.835   8.066
17966SOL    HW155737  13.542   6.877   8.134
17966SOL    HW255738  13.583   6.741   8.083
17967SOL     OW55739   4.566  11.152   8.808
17967SOL    HW155740   4.590  11.066   8.771
17967SOL    HW255741   4.645  11.182   8.852
17968SOL     OW55742   1.672   9.196  10.070
17968SOL    HW155743   1.595   9.175  10.018
17968SOL    HW255744   1.737   9.225  10.007
17969SOL     OW55745  11.630  10.489   0.049
17969SOL    HW155746  11.562  10.468  14.858
17969SOL    HW255747  11.623  10.420   0.115
17970SOL     OW55748   9.062  10.567   1.698
17970SOL    HW155749   9.136  10.511   1.723
17970SOL    HW255750   9.067  10.643   1.756
17971SOL     OW55751   1.849   7.391   4.904
17971SOL    HW155752   1.792   7.316   4.922
17971SOL    HW255753   1.816   7.460   4.960
17972SOL     OW55754  13.131   5.778   6.583
17972SOL    HW155755  13.103   5.844   6.647
17972SOL    HW255756  13.184   5.827   6.520
17973SOL     OW55757  11.245   6.777  12.337
17973SOL    HW155758  11.273   6.829  12.262
17973SOL    HW255759  11.325   6.732  12.366
17974SOL     OW55760   3.084   8.212   7.263
17974SOL    HW155761   3.150   8.202   7.332
17974SOL    HW255762   3.071   8.307   7.256
17975SOL     OW55763   7.568  11.466   7.579
17975SOL    HW155764   7.597  11.384   7.539
17975SOL    HW255765   7.635  11.487   7.643
17976SOL     OW55766   6.690  10.065   6.627
17976SOL    HW155767   6.662  10.003   6.694
17976SOL    HW255768   6.760  10.018   6.580
17977SOL     OW55769   2.493   2.161   6.549
17977SOL    HW155770   2.524   2.176   6.460
17977SOL    HW255771   2.573   2.154   6.602
17978SOL     OW55772  11.233   5.765  10.614
17978SOL    HW155773  11.152   5.800  10.650
17978SOL    HW255774  11.236   5.674  10.645
17979SOL     OW55775  14.350   5.294  12.382
17979SOL    HW155776  14.387   5.273  12.467
17979SOL    HW255777  14.270   5.344  12.402
17980SOL     OW55778   5.500  12.819   1.748
17980SOL    HW155779   5.489  12.880   1.675
17980SOL    HW255780   5.420  12.828   1.799
17981SOL     OW55781   1.818   3.069   5.142
17981SOL    HW155782   1.838   3.018   5.221
17981SOL    HW255783   1.895   3.058   5.086
17982SOL     OW55784  14.192  14.156   7.865
17982SOL    HW155785  14.105  14.170   7.900
17982SOL    HW255786  14.178  14.105   7.785
17983SOL     OW55787   0.417   6.181   7.109
17983SOL    HW155788   0.420   6.198   7.203
17983SOL    HW255789   0.427   6.086   7.101
17984SOL     OW55790   5.809   5.055  10.345
17984SOL    HW155791   5.827   5.056  10.251
17984SOL    HW255792   5.714   5.059  10.352
17985SOL     OW55793   4.099   2.831   7.399
17985SOL    HW155794   4.181   2.820   7.447
17985SOL    HW255795   4.031   2.823   7.466
17986SOL     OW55796   7.583   4.751   9.523
17986SOL    HW155797   7.571   4.827   9.465
17986SOL    HW255798   7.592   4.789   9.610
17987SOL     OW55799   5.530   4.945  10.656
17987SOL    HW155800   5.452   4.999  10.669
17987SOL    HW255801   5.601   4.993  10.700
17988SOL     OW55802   4.590  14.832   0.911
17988SOL    HW155803   4.604  14.766   0.843
17988SOL    HW255804   4.678  14.848   0.946
17989SOL     OW55805  12.667   0.984   1.258
17989SOL    HW155806  12.746   0.938   1.289
17989SOL    HW255807  12.669   1.068   1.304
17990SOL     OW55808   2.568   4.744   9.165
17990SOL    HW155809   2.606   4.679   9.223
17990SOL    HW255810   2.596   4.828   9.201
17991SOL     OW55811  14.149  13.208   6.265
17991SOL    HW155812  14.231  13.202   6.215
17991SOL    HW255813  14.140  13.123   6.306
17992SOL     OW55814   0.009   2.470  11.695
17992SOL    HW155815   0.092   2.467  11.744
17992SOL    HW255816   0.031   2.433  11.610
17993SOL     OW55817  10.795  11.196   0.590
17993SOL    HW155818  10.767  11.280   0.553
17993SOL    HW255819  10.748  11.190   0.674
17994SOL     OW55820  14.730  10.258  12.211
17994SOL    HW155821  14.681  10.245  12.130
17994SOL    HW255822  14.746  10.169  12.244
17995SOL     OW55823   8.323   6.665   8.845
17995SOL    HW155824   8.370   6.639   8.925
17995SOL    HW255825   8.237   6.624   8.855
17996SOL     OW55826   2.564   9.677   9.888
17996SOL    HW155827   2.490   9.618   9.878
17996SOL    HW255828   2.627   9.628   9.941
17997SOL     OW55829  13.488   6.523   3.306
17997SOL    HW155830  13.496   6.434   3.339
17997SOL    HW255831  13.518   6.578   3.379
17998SOL     OW55832  11.281   2.492   3.124
17998SOL    HW155833  11.232   2.465   3.201
17998SOL    HW255834  11.322   2.575   3.149
17999SOL     OW55835   5.829   3.940   8.839
17999SOL    HW155836   5.818   3.903   8.927
17999SOL    HW255837   5.901   3.890   8.801
18000SOL     OW55838  14.561   7.874  13.509
18000SOL    HW155839  14.595   7.847  13.424
18000SOL    HW255840  14.554   7.793  13.560
18001SOL     OW55841   6.656  12.318   1.562
18001SOL    HW155842   6.743  12.320   1.523
18001SOL    HW255843   6.630  12.411   1.568
18002SOL     OW55844  13.117  11.726   7.109
18002SOL    HW155845  13.184  11.755   7.171
18002SOL    HW255846  13.059  11.802   7.100
18003SOL     OW55847   0.089   0.727   7.001
18003SOL    HW155848   0.119   0.688   7.084
18003SOL    HW255849  14.867   0.737   7.013
18004SOL     OW55850  10.276   7.858  11.494
18004SOL    HW155851  10.310   7.918  11.428
18004SOL    HW255852  10.247   7.915  11.565
18005SOL     OW55853   3.445  13.010   3.605
18005SOL    HW155854   3.419  13.101   3.623
18005SOL    HW255855   3.401  12.989   3.522
18006SOL     OW55856   6.873   1.900  12.881
18006SOL    HW155857   6.863   1.863  12.969
18006SOL    HW255858   6.931   1.974  12.892
18007SOL     OW55859   0.982   0.277  10.598
18007SOL    HW155860   0.943   0.197  10.562
18007SOL    HW255861   0.927   0.348  10.564
18008SOL     OW55862  13.052   8.122  11.300
18008SOL    HW155863  13.092   8.203  11.269
18008SOL    HW255864  13.118   8.055  11.283
18009SOL     OW55865   1.914   7.377   9.400
18009SOL    HW155866   1.903   7.446   9.466
18009SOL    HW255867   1.827   7.337   9.393
18010SOL     OW55868  11.224  12.276   1.991
18010SOL    HW155869  11.219  12.366   2.025
18010SOL    HW255870  11.178  12.224   2.057
18011SOL     OW55871  13.198   0.213   8.654
18011SOL    HW155872  13.186   0.291   8.600
18011SOL    HW255873  13.262   0.238   8.720
18012SOL     OW55874   3.946   6.604  11.318
18012SOL    HW155875   3.936   6.581  11.410
18012SOL    HW255876   3.864   6.648  11.295
18013SOL     OW55877   9.028   2.068   1.173
18013SOL    HW155878   9.067   2.020   1.246
18013SOL    HW255879   8.943   2.096   1.205
18014SOL     OW55880   1.964   0.199  14.252
18014SOL    HW155881   1.897   0.263  14.277
18014SOL    HW255882   2.047   0.240  14.277
18015SOL     OW55883   9.721  14.462   0.896
18015SOL    HW155884   9.697  14.540   0.945
18015SOL    HW255885   9.801  14.486   0.849
18016SOL     OW55886   2.603   6.463  13.296
18016SOL    HW155887   2.684   6.511  13.276
18016SOL    HW255888   2.557   6.456  13.212
18017SOL     OW55889   9.306  12.521  11.582
18017SOL    HW155890   9.221  12.481  11.603
18017SOL    HW255891   9.286  12.614  11.574
18018SOL     OW55892  10.064  11.720  13.922
18018SOL    HW155893   9.986  11.703  13.975
18018SOL    HW255894  10.135  11.730  13.985
18019SOL     OW55895  13.371   0.425   7.440
18019SOL    HW155896  13.313   0.384   7.375
18019SOL    HW255897  13.448   0.369   7.441
18020SOL     OW55898   8.254   9.746   2.694
18020SOL    HW155899   8.349   9.758   2.690
18020SOL    HW255900   8.218   9.834   2.680
18021SOL     OW55901   9.034  10.620   5.818
18021SOL    HW155902   8.985  10.561   5.875
18021SOL    HW255903   9.123  10.587   5.819
18022SOL     OW55904   2.560   6.511   1.887
18022SOL    HW155905   2.528   6.469   1.966
18022SOL    HW255906   2.527   6.600   1.892
18023SOL     OW55907  14.322   7.356   4.114
18023SOL    HW155908  14.352   7.442   4.140
18023SOL    HW255909  14.396   7.317   4.067
18024SOL     OW55910   2.002   9.210   1.746
18024SOL    HW155911   2.039   9.207   1.835
18024SOL    HW255912   1.957   9.126   1.737
18025SOL     OW55913  11.948  10.238   3.297
18025SOL    HW155914  12.035  10.204   3.320
18025SOL    HW255915  11.909  10.169   3.244
18026SOL     OW55916   4.723   7.520   3.934
18026SOL    HW155917   4.689   7.522   4.023
18026SOL    HW255918   4.739   7.612   3.912
18027SOL     OW55919  10.747  12.120   8.192
18027SOL    HW155920  10.721  12.029   8.205
18027SOL    HW255921  10.840  12.116   8.173
18028SOL     OW55922   7.334   8.022   8.897
18028SOL    HW155923   7.256   8.047   8.846
18028SOL    HW255924   7.328   8.076   8.976
18029SOL     OW55925   5.445  12.916   0.878
18029SOL    HW155926   5.505  12.946   0.946
18029SOL    HW255927   5.496  12.922   0.797
18030SOL     OW55928   8.250   2.503  11.329
18030SOL    HW155929   8.342   2.527  11.340
18030SOL    HW255930   8.211   2.519  11.415
18031SOL     OW55931   5.563   9.776   4.487
18031SOL    HW155932   5.549   9.871   4.480
18031SOL    HW255933   5.527   9.753   4.573
18032SOL     OW55934   4.159  10.185  12.262
18032SOL    HW155935   4.104  10.263  12.251
18032SOL    HW255936   4.204  10.175  12.178
18033SOL     OW55937   8.566   5.919   3.778
18033SOL    HW155938   8.595   5.917   3.869
18033SOL    HW255939   8.591   6.006   3.747
18034SOL     OW55940   9.124  10.532   1.018
18034SOL    HW155941   9.193  10.521   0.953
18034SOL    HW255942   9.169  10.534   1.102
18035SOL     OW55943  12.740   8.976   4.409
18035SOL    HW155944  12.680   8.994   4.482
18035SOL    HW255945  12.809   8.922   4.446
18036SOL     OW55946   1.235   2.598  13.833
18036SOL    HW155947   1.246   2.519  13.780
18036SOL    HW255948   1.314   2.602  13.887
18037SOL     OW55949   6.029   2.956   7.788
18037SOL    HW155950   5.967   2.959   7.860
18037SOL    HW255951   6.000   3.025   7.728
18038SOL     OW55952   3.473   3.178   7.772
18038SOL    HW155953   3.549   3.235   7.758
18038SOL    HW255954   3.439   3.160   7.684
18039SOL     OW55955  12.851  12.339   2.608
18039SOL    HW155956  12.777  12.388   2.573
18039SOL    HW255957  12.928  12.389   2.580
18040SOL     OW55958   1.532   9.101   7.872
18040SOL    HW155959   1.563   9.049   7.946
18040SOL    HW255960   1.603   9.164   7.856
18041SOL     OW55961   4.916   6.653   1.637
18041SOL    HW155962   4.995   6.696   1.604
18041SOL    HW255963   4.926   6.561   1.613
18042SOL     OW55964   4.094   6.289   8.711
18042SOL    HW155965   4.050   6.333   8.784
18042SOL    HW255966   4.170   6.344   8.691
18043SOL     OW55967   8.792   5.706  13.900
18043SOL    HW155968   8.801   5.691  13.806
18043SOL    HW255969   8.702   5.679  13.919
18044SOL     OW55970  11.581  12.332   7.412
18044SOL    HW155971  11.519  12.348   7.341
18044SOL    HW255972  11.529  12.336   7.492
18045SOL     OW55973   1.684   9.553   7.793
18045SOL    HW155974   1.636   9.610   7.733
18045SOL    HW255975   1.683   9.467   7.751
18046SOL     OW55976   5.339   7.782  11.879
18046SOL    HW155977   5.265   7.793  11.940
18046SOL    HW255978   5.326   7.695  11.841
18047SOL     OW55979   7.632  13.726   8.100
18047SOL    HW155980   7.546  13.747   8.136
18047SOL    HW255981   7.622  13.638   8.063
18048SOL     OW55982   8.490  14.507   8.973
18048SOL    HW155983   8.505  14.578   8.911
18048SOL    HW255984   8.395  14.503   8.983
18049SOL     OW55985  10.106   0.918   9.418
18049SOL    HW155986  10.128   0.968   9.339
18049SOL    HW255987  10.059   0.980   9.474
18050SOL     OW55988   4.120   9.184   5.762
18050SOL    HW155989   4.084   9.127   5.693
18050SOL    HW255990   4.215   9.174   5.754
18051SOL     OW55991  11.161  10.962   9.012
18051SOL    HW155992  11.123  11.023   8.949
18051SOL    HW255993  11.252  10.990   9.021
18052SOL     OW55994   5.102   9.313   0.100
18052SOL    HW155995   5.015   9.287   0.070
18052SOL    HW255996   5.127   9.245   0.163
18053SOL     OW55997   0.787   3.039   5.829
18053SOL    HW155998   0.878   3.034   5.798
18053SOL    HW255999   0.735   3.041   5.749
18054SOL     OW56000  14.702  14.745   3.978
18054SOL    HW156001  14.687  14.759   4.072
18054SOL    HW256002  14.775  14.684   3.975
18055SOL     OW56003   4.284  12.264   3.858
18055SOL    HW156004   4.241  12.350   3.859
18055SOL    HW256005   4.217  12.204   3.827
18056SOL     OW56006   3.998  14.819  10.678
18056SOL    HW156007   4.092  14.828  10.662
18056SOL    HW256008   3.991  14.751  10.745
18057SOL     OW56009   6.453  13.628   6.934
18057SOL    HW156010   6.384  13.563   6.951
18057SOL    HW256011   6.414  13.688   6.871
18058SOL     OW56012  12.656   1.600   8.466
18058SOL    HW156013  12.612   1.554   8.395
18058SOL    HW256014  12.592   1.601   8.537
18059SOL     OW56015  12.372   8.759   3.291
18059SOL    HW156016  12.385   8.762   3.196
18059SOL    HW256017  12.311   8.687   3.305
18060SOL     OW56018  12.441   7.012  12.308
18060SOL    HW156019  12.519   7.002  12.363
18060SOL    HW256020  12.368   7.015  12.370
18061SOL     OW56021   3.247   7.953   0.535
18061SOL    HW156022   3.192   7.896   0.481
18061SOL    HW256023   3.299   8.004   0.472
18062SOL     OW56024   7.116   5.298   2.365
18062SOL    HW156025   7.208   5.278   2.345
18062SOL    HW256026   7.076   5.213   2.383
18063SOL     OW56027   2.810   2.470  11.384
18063SOL    HW156028   2.852   2.555  11.396
18063SOL    HW256029   2.820   2.450  11.291
18064SOL     OW56030   4.514   7.743   0.531
18064SOL    HW156031   4.568   7.713   0.459
18064SOL    HW256032   4.479   7.827   0.502
18065SOL     OW56033   0.784   7.198   5.296
18065SOL    HW156034   0.724   7.138   5.340
18065SOL    HW256035   0.743   7.284   5.303
18066SOL     OW56036   5.326  12.181   2.985
18066SOL    HW156037   5.419  12.205   2.989
18066SOL    HW256038   5.320  12.101   3.036
18067SOL     OW56039   3.797   7.112   8.965
18067SOL    HW156040   3.780   7.020   8.986
18067SOL    HW256041   3.711   7.147   8.939
18068SOL     OW56042   0.242  14.862   8.693
18068SOL    HW156043   0.174   0.055   8.708
18068SOL    HW256044   0.305   0.032   8.636
18069SOL     OW56045   5.552   1.531   8.943
18069SOL    HW156046   5.626   1.515   8.885
18069SOL    HW256047   5.580   1.604   8.997
18070SOL     OW56048   5.274   2.482   3.282
18070SOL    HW156049   5.359   2.481   3.239
18070SOL    HW256050   5.274   2.564   3.332
18071SOL     OW56051   7.032   2.515   0.533
18071SOL    HW156052   6.991   2.596   0.564
18071SOL    HW256053   7.078   2.480   0.609
18072SOL     OW56054   1.030  10.600  11.824
18072SOL    HW156055   1.055  10.663  11.757
18072SOL    HW256056   0.936  10.614  11.837
18073SOL     OW56057   2.528  13.449   2.482
18073SOL    HW156058   2.616  13.461   2.518
18073SOL    HW256059   2.538  13.377   2.420
18074SOL     OW56060   4.630   8.676   6.842
18074SOL    HW156061   4.578   8.596   6.840
18074SOL    HW256062   4.690   8.664   6.916
18075SOL     OW56063   1.115   9.924   5.186
18075SOL    HW156064   1.206   9.895   5.173
18075SOL    HW256065   1.075   9.916   5.100
18076SOL     OW56066  13.028   7.063  11.355
18076SOL    HW156067  12.943   7.099  11.329
18076SOL    HW256068  13.076   7.054  11.272
18077SOL     OW56069   6.184  14.769   6.576
18077SOL    HW156070   6.215  14.736   6.660
18077SOL    HW256071   6.239  14.845   6.559
18078SOL     OW56072   8.039   6.925   0.922
18078SOL    HW156073   7.957   6.888   0.889
18078SOL    HW256074   8.027   6.929   1.017
18079SOL     OW56075  14.855   2.392  14.638
18079SOL    HW156076   0.071   2.373  14.608
18079SOL    HW256077  14.840   2.331  14.710
18080SOL     OW56078   5.537   1.214   2.275
18080SOL    HW156079   5.477   1.142   2.293
18080SOL    HW256080   5.532   1.226   2.180
18081SOL     OW56081   7.536   4.714   6.028
18081SOL    HW156082   7.550   4.720   6.123
18081SOL    HW256083   7.621   4.686   5.994
18082SOL     OW56084   3.845   8.884   9.984
18082SOL    HW156085   3.918   8.839   9.941
18082SOL    HW256086   3.827   8.833  10.063
18083SOL     OW56087   1.566   6.514   3.929
18083SOL    HW156088   1.567   6.584   3.995
18083SOL    HW256089   1.650   6.470   3.939
18084SOL     OW56090   7.070   9.191   4.919
18084SOL    HW156091   7.122   9.218   4.994
18084SOL    HW256092   7.095   9.251   4.849
18085SOL     OW56093   1.757  11.837   2.519
18085SOL    HW156094   1.681  11.887   2.489
18085SOL    HW256095   1.805  11.898   2.574
18086SOL     OW56096  13.234  10.151   3.802
18086SOL    HW156097  13.225  10.062   3.770
18086SOL    HW256098  13.143  10.181   3.813
18087SOL     OW56099   2.714  10.897  10.263
18087SOL    HW156100   2.779  10.829  10.278
18087SOL    HW256101   2.690  10.888  10.170
18088SOL     OW56102   1.023   5.561  11.641
18088SOL    HW156103   0.963   5.516  11.581
18088SOL    HW256104   1.079   5.492  11.676
18089SOL     OW56105   0.894   2.620   1.103
18089SOL    HW156106   0.870   2.612   1.010
18089SOL    HW256107   0.813   2.599   1.150
18090SOL     OW56108   4.496   7.036   9.896
18090SOL    HW156109   4.422   7.085   9.859
18090SOL    HW256110   4.528   7.091   9.968
18091SOL     OW56111   2.441   3.986   8.674
18091SOL    HW156112   2.474   3.973   8.763
18091SOL    HW256113   2.395   4.070   8.678
18092SOL     OW56114   1.741   9.671  11.623
18092SOL    HW156115   1.772   9.757  11.593
18092SOL    HW256116   1.813   9.638  11.677
18093SOL     OW56117  11.777   5.538   6.526
18093SOL    HW156118  11.791   5.467   6.589
18093SOL    HW256119  11.729   5.497   6.454
18094SOL     OW56120  11.516   2.902  14.833
18094SOL    HW156121  11.420   2.893  14.834
18094SOL    HW256122  11.535   2.952  14.754
18095SOL     OW56123  11.141  13.749   2.786
18095SOL    HW156124  11.155  13.841   2.763
18095SOL    HW256125  11.175  13.742   2.875
18096SOL     OW56126  10.120   7.278   1.283
18096SOL    HW156127  10.082   7.285   1.371
18096SOL    HW256128  10.174   7.357   1.275
18097SOL     OW56129   7.459   8.994   1.391
18097SOL    HW156130   7.380   8.943   1.369
18097SOL    HW256131   7.501   8.943   1.460
18098SOL     OW56132  12.609   6.810   9.480
18098SOL    HW156133  12.649   6.832   9.564
18098SOL    HW256134  12.550   6.737   9.500
18099SOL     OW56135   7.714   1.880  12.336
18099SOL    HW156136   7.725   1.975  12.334
18099SOL    HW256137   7.714   1.858  12.430
18100SOL     OW56138  13.919  10.169   0.491
18100SOL    HW156139  13.896  10.251   0.535
18100SOL    HW256140  13.973  10.122   0.554
18101SOL     OW56141   3.597  14.549   8.063
18101SOL    HW156142   3.606  14.483   8.131
18101SOL    HW256143   3.621  14.504   7.982
18102SOL     OW56144   7.661   7.763   6.993
18102SOL    HW156145   7.648   7.827   6.924
18102SOL    HW256146   7.621   7.802   7.071
18103SOL     OW56147   3.323   8.252   5.142
18103SOL    HW156148   3.414   8.281   5.146
18103SOL    HW256149   3.279   8.298   5.213
18104SOL     OW56150   1.102   1.064   1.605
18104SOL    HW156151   1.172   1.128   1.618
18104SOL    HW256152   1.122   0.994   1.666
18105SOL     OW56153   1.564   0.135  12.047
18105SOL    HW156154   1.641   0.122  11.992
18105SOL    HW256155   1.584   0.088  12.128
18106SOL     OW56156  14.252  11.436  11.674
18106SOL    HW156157  14.198  11.513  11.686
18106SOL    HW256158  14.315  11.440  11.746
18107SOL     OW56159   2.661  13.470  11.152
18107SOL    HW156160   2.711  13.550  11.132
18107SOL    HW256161   2.713  13.399  11.114
18108SOL     OW56162  12.134   0.617   8.419
18108SOL    HW156163  12.054   0.588   8.376
18108SOL    HW256164  12.123   0.592   8.510
18109SOL     OW56165  12.439   5.991   5.619
18109SOL    HW156166  12.495   6.068   5.617
18109SOL    HW256167  12.445   5.959   5.710
18110SOL     OW56168   9.140   9.577   4.955
18110SOL    HW156169   9.126   9.646   5.020
18110SOL    HW256170   9.234   9.577   4.939
18111SOL     OW56171   3.638   3.470  13.048
18111SOL    HW156172   3.563   3.412  13.058
18111SOL    HW256173   3.658   3.498  13.137
18112SOL     OW56174   5.807  10.065   3.579
18112SOL    HW156175   5.761  10.103   3.654
18112SOL    HW256176   5.795  10.129   3.509
18113SOL     OW56177   8.064   2.025  10.443
18113SOL    HW156178   7.982   2.071  10.428
18113SOL    HW256179   8.129   2.076  10.393
18114SOL     OW56180  11.638  11.493  11.692
18114SOL    HW156181  11.705  11.425  11.691
18114SOL    HW256182  11.633  11.523  11.601
18115SOL     OW56183  11.272   8.896  10.429
18115SOL    HW156184  11.349   8.929  10.383
18115SOL    HW256185  11.205   8.889  10.361
18116SOL     OW56186   6.346   3.167   0.727
18116SOL    HW156187   6.416   3.231   0.743
18116SOL    HW256188   6.268   3.221   0.710
18117SOL     OW56189   2.975   7.900   1.573
18117SOL    HW156190   3.064   7.932   1.582
18117SOL    HW256191   2.985   7.813   1.534
18118SOL     OW56192   3.134   2.460  12.882
18118SOL    HW156193   3.176   2.523  12.942
18118SOL    HW256194   3.172   2.376  12.906
18119SOL     OW56195   8.298   3.508  12.251
18119SOL    HW156196   8.256   3.564  12.185
18119SOL    HW256197   8.236   3.508  12.324
18120SOL     OW56198   9.825   8.532  13.157
18120SOL    HW156199   9.896   8.571  13.106
18120SOL    HW256200   9.783   8.606  13.200
18121SOL     OW56201  10.271  14.066   3.042
18121SOL    HW156202  10.254  14.107   3.127
18121SOL    HW256203  10.184  14.051   3.005
18122SOL     OW56204  11.193   2.195  12.812
18122SOL    HW156205  11.157   2.108  12.795
18122SOL    HW256206  11.218   2.194  12.904
18123SOL     OW56207   4.791   4.237   1.036
18123SOL    HW156208   4.736   4.159   1.031
18123SOL    HW256209   4.870   4.213   0.988
18124SOL     OW56210   3.287   5.711   0.014
18124SOL    HW156211   3.287   5.795   0.060
18124SOL    HW256212   3.309   5.733  14.797
18125SOL     OW56213   6.637  14.305   6.692
18125SOL    HW156214   6.561  14.298   6.749
18125SOL    HW256215   6.646  14.398   6.674
18126SOL     OW56216   4.502   8.398  10.150
18126SOL    HW156217   4.530   8.390  10.241
18126SOL    HW256218   4.556   8.335  10.102
18127SOL     OW56219   3.995   4.749   0.937
18127SOL    HW156220   4.066   4.758   1.001
18127SOL    HW256221   4.013   4.818   0.873
18128SOL     OW56222   7.325   8.475   9.049
18128SOL    HW156223   7.338   8.382   9.066
18128SOL    HW256224   7.413   8.511   9.041
18129SOL     OW56225  10.975   4.624   0.672
18129SOL    HW156226  11.010   4.536   0.659
18129SOL    HW256227  11.003   4.648   0.760
18130SOL     OW56228   7.673   2.078  14.148
18130SOL    HW156229   7.656   2.037  14.233
18130SOL    HW256230   7.748   2.136  14.164
18131SOL     OW56231   8.982  12.083   5.176
18131SOL    HW156232   9.041  12.083   5.251
18131SOL    HW256233   9.031  12.127   5.107
18132SOL     OW56234   3.110  13.445  11.837
18132SOL    HW156235   3.073  13.387  11.771
18132SOL    HW256236   3.167  13.389  11.889
18133SOL     OW56237   3.643   8.043   7.028
18133SOL    HW156238   3.563   8.004   7.063
18133SOL    HW256239   3.625   8.055   6.935
18134SOL     OW56240  12.464   7.189   8.107
18134SOL    HW156241  12.546   7.143   8.088
18134SOL    HW256242  12.442   7.161   8.196
18135SOL     OW56243   3.604  14.423   1.505
18135SOL    HW156244   3.625  14.515   1.488
18135SOL    HW256245   3.686  14.385   1.537
18136SOL     OW56246   2.682   9.180   9.695
18136SOL    HW156247   2.748   9.136   9.749
18136SOL    HW256248   2.651   9.112   9.636
18137SOL     OW56249  11.842   7.547   9.816
18137SOL    HW156250  11.765   7.550   9.759
18137SOL    HW256251  11.910   7.595   9.768
18138SOL     OW56252   1.979  12.703   9.443
18138SOL    HW156253   1.908  12.650   9.407
18138SOL    HW256254   2.055  12.645   9.443
18139SOL     OW56255   4.761  12.376   5.774
18139SOL    HW156256   4.676  12.402   5.810
18139SOL    HW256257   4.769  12.284   5.798
18140SOL     OW56258   9.545  11.852   6.874
18140SOL    HW156259   9.574  11.830   6.786
18140SOL    HW256260   9.452  11.833   6.874
18141SOL     OW56261  14.070   8.497   2.012
18141SOL    HW156262  14.084   8.545   2.094
18141SOL    HW256263  13.975   8.501   1.999
18142SOL     OW56264  10.310  11.262   9.704
18142SOL    HW156265  10.300  11.171   9.733
18142SOL    HW256266  10.404  11.272   9.688
18143SOL     OW56267  13.812   8.546   7.322
18143SOL    HW156268  13.863   8.465   7.327
18143SOL    HW256269  13.878   8.614   7.307
18144SOL     OW56270  14.857  11.321   4.667
18144SOL    HW156271   0.026  11.259   4.608
18144SOL    HW256272  14.862  11.279   4.753
18145SOL     OW56273   4.017  12.443  14.867
18145SOL    HW156274   4.001  12.453  14.774
18145SOL    HW256275   4.008  12.531   0.030
18146SOL     OW56276   3.257   4.921   4.149
18146SOL    HW156277   3.272   4.992   4.087
18146SOL    HW256278   3.162   4.919   4.161
18147SOL     OW56279   3.359   5.345   1.661
18147SOL    HW156280   3.324   5.417   1.609
18147SOL    HW256281   3.452   5.341   1.637
18148SOL     OW56282   5.658   9.745  10.100
18148SOL    HW156283   5.566   9.728  10.077
18148SOL    HW256284   5.700   9.761  10.016
18149SOL     OW56285   9.753   1.097  12.084
18149SOL    HW156286   9.696   1.068  12.155
18149SOL    HW256287   9.824   1.145  12.128
18150SOL     OW56288   5.775  11.165   3.971
18150SOL    HW156289   5.776  11.175   3.876
18150SOL    HW256290   5.823  11.084   3.988
18151SOL     OW56291  13.965  13.060  10.601
18151SOL    HW156292  14.033  12.994  10.594
18151SOL    HW256293  13.883  13.011  10.594
18152SOL     OW56294   9.474   9.571   9.043
18152SOL    HW156295   9.408   9.553   9.110
18152SOL    HW256296   9.544   9.508   9.062
18153SOL     OW56297   4.007   4.334   9.673
18153SOL    HW156298   4.062   4.410   9.691
18153SOL    HW256299   4.004   4.328   9.577
18154SOL     OW56300   5.080  13.036  11.233
18154SOL    HW156301   5.133  12.975  11.284
18154SOL    HW256302   4.989  13.010  11.251
18155SOL     OW56303   9.113  13.013   5.768
18155SOL    HW156304   9.120  13.089   5.710
18155SOL    HW256305   9.128  12.937   5.711
18156SOL     OW56306   9.969   0.837   2.607
18156SOL    HW156307  10.053   0.879   2.590
18156SOL    HW256308   9.941   0.874   2.691
18157SOL     OW56309  12.123  10.777  11.846
18157SOL    HW156310  12.150  10.866  11.869
18157SOL    HW256311  12.170  10.721  11.908
18158SOL     OW56312   9.710   9.615  12.049
18158SOL    HW156313   9.643   9.635  12.114
18158SOL    HW256314   9.667   9.558  11.986
18159SOL     OW56315   1.972   0.068   6.731
18159SOL    HW156316   2.029   0.006   6.685
18159SOL    HW256317   1.994   0.057   6.824
18160SOL     OW56318   6.646   9.909   5.082
18160SOL    HW156319   6.675   9.852   5.010
18160SOL    HW256320   6.586   9.971   5.041
18161SOL     OW56321  12.253  10.970   7.606
18161SOL    HW156322  12.274  10.988   7.698
18161SOL    HW256323  12.287  11.047   7.558
18162SOL     OW56324  13.080   4.101   7.681
18162SOL    HW156325  13.064   4.021   7.732
18162SOL    HW256326  13.153   4.144   7.727
18163SOL     OW56327  13.499   0.625   3.323
18163SOL    HW156328  13.500   0.626   3.418
18163SOL    HW256329  13.497   0.718   3.299
18164SOL     OW56330  11.997   5.749   2.088
18164SOL    HW156331  11.963   5.778   2.003
18164SOL    HW256332  11.971   5.818   2.149
18165SOL     OW56333   1.927   8.184   2.127
18165SOL    HW156334   1.913   8.091   2.144
18165SOL    HW256335   1.946   8.221   2.214
18166SOL     OW56336  14.523   4.713  10.196
18166SOL    HW156337  14.490   4.696  10.107
18166SOL    HW256338  14.446   4.741  10.245
18167SOL     OW56339  10.083  12.346   6.120
18167SOL    HW156340  10.179  12.346   6.129
18167SOL    HW256341  10.065  12.419   6.060
18168SOL     OW56342  10.150   7.441   4.213
18168SOL    HW156343  10.227   7.475   4.257
18168SOL    HW256344  10.166   7.458   4.120
18169SOL     OW56345   1.287  13.748   4.692
18169SOL    HW156346   1.275  13.832   4.736
18169SOL    HW256347   1.198  13.724   4.663
18170SOL     OW56348  13.867   0.751  10.910
18170SOL    HW156349  13.813   0.752  10.989
18170SOL    HW256350  13.927   0.825  10.922
18171SOL     OW56351  14.759   8.331   7.827
18171SOL    HW156352  14.829   8.267   7.838
18171SOL    HW256353  14.785   8.405   7.882
18172SOL     OW56354  13.489  14.546   2.827
18172SOL    HW156355  13.542  14.626   2.825
18172SOL    HW256356  13.402  14.575   2.801
18173SOL     OW56357  12.876   7.343   9.935
18173SOL    HW156358  12.813   7.276   9.908
18173SOL    HW256359  12.958   7.317   9.893
18174SOL     OW56360   1.442   0.502   0.937
18174SOL    HW156361   1.423   0.582   0.889
18174SOL    HW256362   1.411   0.432   0.879
18175SOL     OW56363   2.538   3.469   4.251
18175SOL    HW156364   2.614   3.485   4.196
18175SOL    HW256365   2.472   3.433   4.191
18176SOL     OW56366   9.463   6.218  11.936
18176SOL    HW156367   9.438   6.191  12.024
18176SOL    HW256368   9.383   6.257  11.899
18177SOL     OW56369   1.239   8.781  12.006
18177SOL    HW156370   1.170   8.822  12.057
18177SOL    HW256371   1.197   8.704  11.967
18178SOL     OW56372  14.855  14.807   6.977
18178SOL    HW156373   0.025   0.015   6.951
18178SOL    HW256374   0.038  14.770   7.045
18179SOL     OW56375   6.188   0.266   8.918
18179SOL    HW156376   6.154   0.254   9.007
18179SOL    HW256377   6.278   0.233   8.922
18180SOL     OW56378   1.405   5.239   6.988
18180SOL    HW156379   1.430   5.159   7.034
18180SOL    HW256380   1.360   5.292   7.054
18181SOL     OW56381   5.727   0.259   0.266
18181SOL    HW156382   5.759   0.348   0.252
18181SOL    HW256383   5.632   0.268   0.268
18182SOL     OW56384  12.076   7.691   9.212
18182SOL    HW156385  12.163   7.654   9.198
18182SOL    HW256386  12.092   7.780   9.243
18183SOL     OW56387   7.697   6.603   1.709
18183SOL    HW156388   7.726   6.693   1.722
18183SOL    HW256389   7.610   6.599   1.748
18184SOL     OW56390   2.968  10.182   6.942
18184SOL    HW156391   2.946  10.118   7.010
18184SOL    HW256392   3.055  10.155   6.911
18185SOL     OW56393   1.598   2.457   1.549
18185SOL    HW156394   1.507   2.470   1.523
18185SOL    HW256395   1.620   2.370   1.516
18186SOL     OW56396  13.138   6.731   4.606
18186SOL    HW156397  13.108   6.651   4.564
18186SOL    HW256398  13.209   6.763   4.550
18187SOL     OW56399  14.156   7.099   5.378
18187SOL    HW156400  14.091   7.055   5.433
18187SOL    HW256401  14.240   7.068   5.412
18188SOL     OW56402  12.873  14.760   0.523
18188SOL    HW156403  12.884  14.844   0.477
18188SOL    HW256404  12.806  14.714   0.473
18189SOL     OW56405   0.477  11.407   4.337
18189SOL    HW156406   0.471  11.390   4.431
18189SOL    HW256407   0.435  11.493   4.326
18190SOL     OW56408  14.490   0.802   1.984
18190SOL    HW156409  14.582   0.799   2.011
18190SOL    HW256410  14.484   0.743   1.909
18191SOL     OW56411  13.329   3.042   9.187
18191SOL    HW156412  13.310   3.090   9.107
18191SOL    HW256413  13.398   3.092   9.230
18192SOL     OW56414   6.982   2.607   7.867
18192SOL    HW156415   7.059   2.632   7.919
18192SOL    HW256416   6.953   2.688   7.826
18193SOL     OW56417  12.917  10.683   8.431
18193SOL    HW156418  12.881  10.630   8.359
18193SOL    HW256419  12.841  10.705   8.485
18194SOL     OW56420  14.268   7.334   0.992
18194SOL    HW156421  14.195   7.316   1.053
18194SOL    HW256422  14.338   7.367   1.048
18195SOL     OW56423   0.294   0.295   9.721
18195SOL    HW156424   0.368   0.303   9.661
18195SOL    HW256425   0.224   0.259   9.666
18196SOL     OW56426  11.687   7.645   9.369
18196SOL    HW156427  11.736   7.725   9.347
18196SOL    HW256428  11.615   7.643   9.307
18197SOL     OW56429   5.274   5.363   7.958
18197SOL    HW156430   5.344   5.297   7.962
18197SOL    HW256431   5.320   5.446   7.949
18198SOL     OW56432   2.771  11.815   5.377
18198SOL    HW156433   2.790  11.878   5.308
18198SOL    HW256434   2.804  11.732   5.344
18199SOL     OW56435   3.132   9.404  11.813
18199SOL    HW156436   3.217   9.380  11.775
18199SOL    HW256437   3.081   9.323  11.809
18200SOL     OW56438   4.772   0.536   4.305
18200SOL    HW156439   4.692   0.485   4.309
18200SOL    HW256440   4.797   0.535   4.212
18201SOL     OW56441   8.319  12.826  12.747
18201SOL    HW156442   8.285  12.865  12.667
18201SOL    HW256443   8.414  12.825  12.735
18202SOL     OW56444   5.255   2.823   7.113
18202SOL    HW156445   5.281   2.910   7.084
18202SOL    HW256446   5.161   2.819   7.099
18203SOL     OW56447   0.872   3.586  11.027
18203SOL    HW156448   0.811   3.612  11.096
18203SOL    HW256449   0.884   3.665  10.974
18204SOL     OW56450   9.424   5.495   6.217
18204SOL    HW156451   9.394   5.409   6.188
18204SOL    HW256452   9.425   5.488   6.313
18205SOL     OW56453   3.613   0.554   8.404
18205SOL    HW156454   3.694   0.603   8.410
18205SOL    HW256455   3.640   0.462   8.398
18206SOL     OW56456  11.095   9.999   9.886
18206SOL    HW156457  11.116  10.009   9.793
18206SOL    HW256458  11.020   9.939   9.886
18207SOL     OW56459   6.602   4.900  10.257
18207SOL    HW156460   6.568   4.886  10.169
18207SOL    HW256461   6.621   4.812  10.290
18208SOL     OW56462   0.494   7.139   7.356
18208SOL    HW156463   0.473   7.082   7.282
18208SOL    HW256464   0.588   7.128   7.369
18209SOL     OW56465  14.741   7.023  13.303
18209SOL    HW156466  14.769   7.058  13.219
18209SOL    HW256467  14.673   6.959  13.280
18210SOL     OW56468   3.281   6.863   8.534
18210SOL    HW156469   3.370   6.899   8.537
18210SOL    HW256470   3.247   6.876   8.622
18211SOL     OW56471   0.681  14.376   4.599
18211SOL    HW156472   0.654  14.334   4.517
18211SOL    HW256473   0.633  14.458   4.602
18212SOL     OW56474   0.897  13.432   6.269
18212SOL    HW156475   0.983  13.467   6.246
18212SOL    HW256476   0.873  13.377   6.195
18213SOL     OW56477  13.408   2.214   2.350
18213SOL    HW156478  13.402   2.261   2.433
18213SOL    HW256479  13.481   2.154   2.362
18214SOL     OW56480  12.983   0.997   3.760
18214SOL    HW156481  12.954   0.907   3.772
18214SOL    HW256482  12.998   1.005   3.666
18215SOL     OW56483  14.626   4.798  14.866
18215SOL    HW156484  14.563   4.849  14.816
18215SOL    HW256485  14.585   4.785   0.078
18216SOL     OW56486   6.068  12.909   7.685
18216SOL    HW156487   5.995  12.971   7.679
18216SOL    HW256488   6.137  12.958   7.731
18217SOL     OW56489   7.334   5.389  13.987
18217SOL    HW156490   7.314   5.297  13.972
18217SOL    HW256491   7.249   5.430  14.001
18218SOL     OW56492   8.751   1.438   2.613
18218SOL    HW156493   8.843   1.422   2.595
18218SOL    HW256494   8.710   1.445   2.527
18219SOL     OW56495   7.727   0.259   4.659
18219SOL    HW156496   7.787   0.319   4.615
18219SOL    HW256497   7.681   0.214   4.589
18220SOL     OW56498   5.806   7.140   3.899
18220SOL    HW156499   5.857   7.200   3.844
18220SOL    HW256500   5.781   7.069   3.840
18221SOL     OW56501   9.431   1.951  10.300
18221SOL    HW156502   9.370   1.877  10.304
18221SOL    HW256503   9.510   1.914  10.260
18222SOL     OW56504  11.011   0.018   7.641
18222SOL    HW156505  11.105   0.020   7.622
18222SOL    HW256506  10.970   0.052   7.561
18223SOL     OW56507  12.989  13.921   0.603
18223SOL    HW156508  12.952  13.890   0.685
18223SOL    HW256509  13.084  13.925   0.619
18224SOL     OW56510   3.762   0.704   5.690
18224SOL    HW156511   3.829   0.699   5.622
18224SOL    HW256512   3.806   0.673   5.769
18225SOL     OW56513   1.591   0.591  11.969
18225SOL    HW156514   1.539   0.529  12.020
18225SOL    HW256515   1.670   0.544  11.946
18226SOL     OW56516  10.077   2.921  10.138
18226SOL    HW156517  10.018   2.922  10.063
18226SOL    HW256518  10.019   2.927  10.214
18227SOL     OW56519   5.199   5.278   0.024
18227SOL    HW156520   5.265   5.328  14.850
18227SOL    HW256521   5.245   5.244   0.101
18228SOL     OW56522   4.402   7.120   0.077
18228SOL    HW156523   4.363   7.207   0.078
18228SOL    HW256524   4.336   7.064   0.119
18229SOL     OW56525  12.119   2.233   6.699
18229SOL    HW156526  12.173   2.282   6.636
18229SOL    HW256527  12.156   2.257   6.785
18230SOL     OW56528  11.272   5.677   0.250
18230SOL    HW156529  11.330   5.746   0.218
18230SOL    HW256530  11.207   5.667   0.181
18231SOL     OW56531  13.068   9.949  12.472
18231SOL    HW156532  13.147   9.994  12.503
18231SOL    HW256533  13.059   9.976  12.381
18232SOL     OW56534   0.458   1.852   2.852
18232SOL    HW156535   0.549   1.879   2.858
18232SOL    HW256536   0.408   1.922   2.893
18233SOL     OW56537  11.325   4.648   9.488
18233SOL    HW156538  11.344   4.681   9.400
18233SOL    HW256539  11.241   4.688   9.511
18234SOL     OW56540   9.476   2.144   4.974
18234SOL    HW156541   9.386   2.171   4.960
18234SOL    HW256542   9.526   2.226   4.978
18235SOL     OW56543   3.775   7.532   6.328
18235SOL    HW156544   3.681   7.519   6.316
18235SOL    HW256545   3.808   7.446   6.353
18236SOL     OW56546   4.316  14.046  11.164
18236SOL    HW156547   4.393  13.995  11.139
18236SOL    HW256548   4.267  13.988  11.222
18237SOL     OW56549   8.801   2.785   1.144
18237SOL    HW156550   8.856   2.848   1.098
18237SOL    HW256551   8.855   2.707   1.151
18238SOL     OW56552  11.203  10.621  13.101
18238SOL    HW156553  11.243  10.591  13.182
18238SOL    HW256554  11.163  10.543  13.063
18239SOL     OW56555  14.761  13.986  13.019
18239SOL    HW156556  14.839  13.974  12.965
18239SOL    HW256557  14.740  13.898  13.050
18240SOL     OW56558   2.043  14.180   7.978
18240SOL    HW156559   1.951  14.189   8.000
18240SOL    HW256560   2.090  14.211   8.056
18241SOL     OW56561   4.744  10.965  14.179
18241SOL    HW156562   4.709  10.899  14.119
18241SOL    HW256563   4.702  10.947  14.262
18242SOL     OW56564  11.046   0.245   9.676
18242SOL    HW156565  11.017   0.336   9.663
18242SOL    HW256566  11.043   0.207   9.589
18243SOL     OW56567   4.292   6.062  13.264
18243SOL    HW156568   4.209   6.035  13.225
18243SOL    HW256569   4.352   5.990  13.246
18244SOL     OW56570  11.357   6.525   4.441
18244SOL    HW156571  11.342   6.580   4.364
18244SOL    HW256572  11.435   6.563   4.482
18245SOL     OW56573   7.799   8.143  13.724
18245SOL    HW156574   7.804   8.172  13.633
18245SOL    HW256575   7.889   8.147  13.756
18246SOL     OW56576  13.214   2.370  14.261
18246SOL    HW156577  13.134   2.330  14.296
18246SOL    HW256578  13.255   2.301  14.209
18247SOL     OW56579   5.213  12.466   8.821
18247SOL    HW156580   5.227  12.481   8.915
18247SOL    HW256581   5.175  12.547   8.788
18248SOL     OW56582  14.362  12.021   7.270
18248SOL    HW156583  14.306  12.083   7.224
18248SOL    HW256584  14.353  11.939   7.220
18249SOL     OW56585   6.676  13.484   2.166
18249SOL    HW156586   6.672  13.567   2.118
18249SOL    HW256587   6.635  13.421   2.107
18250SOL     OW56588   7.135   8.313  10.353
18250SOL    HW156589   7.119   8.329  10.260
18250SOL    HW256590   7.118   8.219  10.364
18251SOL     OW56591   3.030   1.542  14.130
18251SOL    HW156592   3.121   1.542  14.158
18251SOL    HW256593   2.981   1.574  14.206
18252SOL     OW56594  14.370   4.506   7.945
18252SOL    HW156595  14.378   4.435   8.009
18252SOL    HW256596  14.279   4.535   7.953
18253SOL     OW56597  10.937   3.673   0.102
18253SOL    HW156598  10.958   3.582   0.122
18253SOL    HW256599  10.843   3.672   0.085
18254SOL     OW56600  13.816   3.657   3.974
18254SOL    HW156601  13.827   3.562   3.977
18254SOL    HW256602  13.782   3.674   3.886
18255SOL     OW56603  14.221   5.395   9.120
18255SOL    HW156604  14.128   5.404   9.141
18255SOL    HW256605  14.265   5.449   9.186
18256SOL     OW56606  10.841   0.642   8.851
18256SOL    HW156607  10.860   0.604   8.765
18256SOL    HW256608  10.926   0.641   8.896
18257SOL     OW56609  11.905  11.143  10.804
18257SOL    HW156610  11.882  11.221  10.752
18257SOL    HW256611  11.826  11.089  10.801
18258SOL     OW56612   2.725   6.794   7.890
18258SOL    HW156613   2.715   6.770   7.798
18258SOL    HW256614   2.745   6.888   7.888
18259SOL     OW56615   3.995  14.679   9.376
18259SOL    HW156616   4.059  14.705   9.442
18259SOL    HW256617   3.962  14.595   9.407
18260SOL     OW56618   0.570   2.563   0.882
18260SOL    HW156619   0.528   2.529   0.802
18260SOL    HW256620   0.659   2.583   0.856
18261SOL     OW56621  12.652   6.097  12.599
18261SOL    HW156622  12.605   6.020  12.569
18261SOL    HW256623  12.732   6.063  12.639
18262SOL     OW56624   4.456  14.484   9.385
18262SOL    HW156625   4.542  14.489   9.342
18262SOL    HW256626   4.414  14.567   9.363
18263SOL     OW56627   6.440   4.442   7.343
18263SOL    HW156628   6.477   4.510   7.400
18263SOL    HW256629   6.429   4.366   7.401
18264SOL     OW56630   5.404   0.412   4.158
18264SOL    HW156631   5.357   0.495   4.166
18264SOL    HW256632   5.487   0.427   4.204
18265SOL     OW56633  14.070   4.146   9.261
18265SOL    HW156634  14.159   4.176   9.242
18265SOL    HW256635  14.021   4.163   9.180
18266SOL     OW56636   7.094  10.307  12.935
18266SOL    HW156637   7.092  10.282  13.027
18266SOL    HW256638   7.123  10.228  12.889
18267SOL     OW56639   2.325  11.239   7.495
18267SOL    HW156640   2.297  11.227   7.404
18267SOL    HW256641   2.389  11.170   7.509
18268SOL     OW56642   9.011  13.621   3.407
18268SOL    HW156643   8.962  13.570   3.343
18268SOL    HW256644   8.960  13.702   3.417
18269SOL     OW56645  13.816   1.082   2.096
18269SOL    HW156646  13.756   1.011   2.073
18269SOL    HW256647  13.849   1.114   2.012
18270SOL     OW56648   6.765  13.664   8.821
18270SOL    HW156649   6.824  13.602   8.778
18270SOL    HW256650   6.823  13.722   8.870
18271SOL     OW56651   6.568   5.681  10.691
18271SOL    HW156652   6.479   5.712  10.678
18271SOL    HW256653   6.575   5.604  10.635
18272SOL     OW56654   5.644   1.867   8.156
18272SOL    HW156655   5.626   1.886   8.248
18272SOL    HW256656   5.675   1.950   8.119
18273SOL     OW56657  12.106   1.697   5.529
18273SOL    HW156658  12.179   1.693   5.591
18273SOL    HW256659  12.107   1.612   5.484
18274SOL     OW56660   3.175   3.632   7.153
18274SOL    HW156661   3.125   3.680   7.087
18274SOL    HW256662   3.221   3.564   7.104
18275SOL     OW56663   8.672   2.216   5.424
18275SOL    HW156664   8.580   2.224   5.451
18275SOL    HW256665   8.668   2.202   5.330
18276SOL     OW56666  13.227   2.512  14.833
18276SOL    HW156667  13.170   2.567  14.778
18276SOL    HW256668  13.175   2.494   0.038
18277SOL     OW56669   6.551  10.185   2.606
18277SOL    HW156670   6.592  10.244   2.542
18277SOL    HW256671   6.616  10.117   2.621
18278SOL     OW56672   3.886   0.116   0.590
18278SOL    HW156673   3.950   0.172   0.547
18278SOL    HW256674   3.938   0.043   0.625
18279SOL     OW56675   8.037   2.105  10.789
18279SOL    HW156676   8.124   2.142  10.775
18279SOL    HW256677   7.991   2.121  10.706
18280SOL     OW56678   7.008  10.249   7.814
18280SOL    HW156679   6.999  10.224   7.906
18280SOL    HW256680   7.102  10.254   7.800
18281SOL     OW56681   0.665   8.139   1.480
18281SOL    HW156682   0.760   8.135   1.467
18281SOL    HW256683   0.635   8.204   1.416
18282SOL     OW56684   1.599  10.248  14.797
18282SOL    HW156685   1.680  10.264  14.845
18282SOL    HW256686   1.567  10.165  14.832
18283SOL     OW56687  10.599  11.538  14.429
18283SOL    HW156688  10.531  11.604  14.415
18283SOL    HW256689  10.680  11.588  14.437
18284SOL     OW56690   5.638   8.218   5.161
18284SOL    HW156691   5.585   8.146   5.127
18284SOL    HW256692   5.723   8.207   5.118
18285SOL     OW56693   3.611   6.737  10.536
18285SOL    HW156694   3.629   6.671  10.470
18285SOL    HW256695   3.677   6.722  10.604
18286SOL     OW56696  12.357   8.658   7.007
18286SOL    HW156697  12.263   8.666   7.020
18286SOL    HW256698  12.376   8.716   6.933
18287SOL     OW56699  13.501  12.298  14.548
18287SOL    HW156700  13.553  12.230  14.591
18287SOL    HW256701  13.460  12.254  14.474
18288SOL     OW56702   6.878   3.853   7.736
18288SOL    HW156703   6.811   3.920   7.753
18288SOL    HW256704   6.914   3.877   7.651
18289SOL     OW56705  12.295   0.080  13.528
18289SOL    HW156706  12.233   0.022  13.573
18289SOL    HW256707  12.359   0.020  13.490
18290SOL     OW56708   8.245  12.275   8.099
18290SOL    HW156709   8.198  12.302   8.020
18290SOL    HW256710   8.224  12.182   8.108
18291SOL     OW56711   6.564   4.123   9.733
18291SOL    HW156712   6.606   4.207   9.717
18291SOL    HW256713   6.490   4.122   9.671
18292SOL     OW56714   8.547   2.356   0.287
18292SOL    HW156715   8.590   2.413   0.223
18292SOL    HW256716   8.499   2.415   0.344
18293SOL     OW56717   2.781   3.811   2.677
18293SOL    HW156718   2.747   3.898   2.657
18293SOL    HW256719   2.738   3.786   2.759
18294SOL     OW56720   0.222   4.569  10.442
18294SOL    HW156721   0.239   4.481  10.476
18294SOL    HW256722   0.308   4.611  10.440
18295SOL     OW56723  10.181  14.024   5.688
18295SOL    HW156724  10.087  14.019   5.671
18295SOL    HW256725  10.206  14.110   5.655
18296SOL     OW56726  14.103   1.405   0.426
18296SOL    HW156727  14.167   1.407   0.497
18296SOL    HW256728  14.076   1.496   0.416
18297SOL     OW56729  13.741   7.822   5.337
18297SOL    HW156730  13.691   7.816   5.418
18297SOL    HW256731  13.719   7.909   5.302
18298SOL     OW56732   9.133   8.076   0.954
18298SOL    HW156733   9.085   8.062   1.036
18298SOL    HW256734   9.223   8.050   0.974
18299SOL     OW56735   4.724   1.296   3.590
18299SOL    HW156736   4.638   1.311   3.552
18299SOL    HW256737   4.757   1.383   3.611
18300SOL     OW56738   3.816  13.149   1.256
18300SOL    HW156739   3.761  13.070   1.254
18300SOL    HW256740   3.831  13.165   1.349
18301SOL     OW56741  11.412   8.298   9.613
18301SOL    HW156742  11.477   8.358   9.649
18301SOL    HW256743  11.330   8.320   9.657
18302SOL     OW56744  13.242   1.624   6.963
18302SOL    HW156745  13.249   1.636   7.058
18302SOL    HW256746  13.286   1.700   6.925
18303SOL     OW56747  11.927   2.921   1.040
18303SOL    HW156748  11.859   2.928   1.107
18303SOL    HW256749  12.009   2.931   1.089
18304SOL     OW56750   2.765   3.264   8.636
18304SOL    HW156751   2.701   3.290   8.571
18304SOL    HW256752   2.714   3.220   8.704
18305SOL     OW56753   8.355  13.389  13.644
18305SOL    HW156754   8.381  13.333  13.571
18305SOL    HW256755   8.429  13.449  13.655
18306SOL     OW56756   9.684  11.417   2.901
18306SOL    HW156757   9.746  11.349   2.927
18306SOL    HW256758   9.707  11.493   2.955
18307SOL     OW56759  14.560   6.613  10.322
18307SOL    HW156760  14.506   6.590  10.398
18307SOL    HW256761  14.497   6.622  10.250
18308SOL     OW56762   3.448  11.283   9.540
18308SOL    HW156763   3.437  11.206   9.485
18308SOL    HW256764   3.450  11.250   9.629
18309SOL     OW56765   0.540  13.141   3.116
18309SOL    HW156766   0.597  13.164   3.189
18309SOL    HW256767   0.492  13.222   3.098
18310SOL     OW56768   4.085   0.971   0.959
18310SOL    HW156769   4.122   0.901   0.905
18310SOL    HW256770   3.991   0.952   0.961
18311SOL     OW56771   4.576   3.505   7.761
18311SOL    HW156772   4.642   3.509   7.830
18311SOL    HW256773   4.564   3.412   7.744
18312SOL     OW56774   1.166   9.078  14.652
18312SOL    HW156775   1.133   9.128  14.727
18312SOL    HW256776   1.143   9.132  14.576
18313SOL     OW56777   4.556   6.525   2.416
18313SOL    HW156778   4.619   6.583   2.459
18313SOL    HW256779   4.471   6.567   2.431
18314SOL     OW56780   8.667   3.135   8.456
18314SOL    HW156781   8.669   3.219   8.503
18314SOL    HW256782   8.732   3.081   8.501
18315SOL     OW56783  12.035  10.628  12.173
18315SOL    HW156784  12.110  10.654  12.120
18315SOL    HW256785  11.968  10.602  12.109
18316SOL     OW56786  11.170   2.919   7.724
18316SOL    HW156787  11.264   2.908   7.710
18316SOL    HW256788  11.135   2.830   7.727
18317SOL     OW56789   4.751   9.410   9.095
18317SOL    HW156790   4.807   9.467   9.043
18317SOL    HW256791   4.789   9.323   9.084
18318SOL     OW56792   5.046   5.594  13.428
18318SOL    HW156793   4.978   5.633  13.373
18318SOL    HW256794   5.126   5.601  13.376
18319SOL     OW56795   9.575   6.820   2.917
18319SOL    HW156796   9.551   6.892   2.858
18319SOL    HW256797   9.625   6.760   2.862
18320SOL     OW56798   1.670   2.713   4.585
18320SOL    HW156799   1.760   2.742   4.571
18320SOL    HW256800   1.635   2.698   4.497
18321SOL     OW56801   0.204   1.263   8.228
18321SOL    HW156802   0.133   1.209   8.194
18321SOL    HW256803   0.205   1.245   8.322
18322SOL     OW56804   8.479  10.226  14.745
18322SOL    HW156805   8.490  10.178  14.826
18322SOL    HW256806   8.555  10.201  14.692
18323SOL     OW56807  10.061  13.024   2.226
18323SOL    HW156808   9.984  13.061   2.269
18323SOL    HW256809  10.104  12.973   2.295
18324SOL     OW56810   5.774  12.723   2.719
18324SOL    HW156811   5.721  12.662   2.668
18324SOL    HW256812   5.835  12.668   2.768
18325SOL     OW56813  14.125   9.482  11.215
18325SOL    HW156814  14.202   9.510  11.165
18325SOL    HW256815  14.078   9.564  11.233
18326SOL     OW56816   5.444   3.246   3.109
18326SOL    HW156817   5.512   3.263   3.044
18326SOL    HW256818   5.389   3.179   3.069
18327SOL     OW56819   0.049  14.855  11.754
18327SOL    HW156820  14.863  14.780  11.756
18327SOL    HW256821   0.010   0.045  11.815
18328SOL     OW56822  11.669   3.029   2.682
18328SOL    HW156823  11.725   2.966   2.636
18328SOL    HW256824  11.691   3.018   2.775
18329SOL     OW56825  13.477  11.771   5.692
18329SOL    HW156826  13.412  11.814   5.636
18329SOL    HW256827  13.497  11.837   5.759
18330SOL     OW56828  11.526  14.115   4.044
18330SOL    HW156829  11.542  14.099   3.951
18330SOL    HW256830  11.583  14.054   4.090
18331SOL     OW56831  13.492   2.813  10.398
18331SOL    HW156832  13.552   2.791  10.327
18331SOL    HW256833  13.407   2.779  10.369
18332SOL     OW56834  13.673   9.819   3.972
18332SOL    HW156835  13.615   9.863   4.034
18332SOL    HW256836  13.756   9.865   3.980
18333SOL     OW56837   3.362   8.522   2.097
18333SOL    HW156838   3.335   8.608   2.129
18333SOL    HW256839   3.282   8.485   2.058
18334SOL     OW56840   1.951  12.213   8.317
18334SOL    HW156841   1.912  12.182   8.399
18334SOL    HW256842   1.919  12.303   8.309
18335SOL     OW56843   7.291   8.488   5.210
18335SOL    HW156844   7.324   8.454   5.293
18335SOL    HW256845   7.366   8.481   5.150
18336SOL     OW56846   7.474  14.434   9.440
18336SOL    HW156847   7.416  14.425   9.515
18336SOL    HW256848   7.469  14.349   9.396
18337SOL     OW56849   6.575  14.215   9.208
18337SOL    HW156850   6.510  14.264   9.158
18337SOL    HW256851   6.561  14.124   9.183
18338SOL     OW56852   8.262   8.353   1.960
18338SOL    HW156853   8.317   8.430   1.977
18338SOL    HW256854   8.276   8.333   1.868
18339SOL     OW56855   5.733  11.051   6.942
18339SOL    HW156856   5.647  11.089   6.961
18339SOL    HW256857   5.790  11.083   7.011
18340SOL     OW56858  13.934  14.334   5.781
18340SOL    HW156859  13.925  14.416   5.831
18340SOL    HW256860  13.911  14.265   5.843
18341SOL     OW56861  14.221   1.340  11.645
18341SOL    HW156862  14.269   1.288  11.581
18341SOL    HW256863  14.190   1.276  11.709
18342SOL     OW56864  11.657  14.326  14.413
18342SOL    HW156865  11.742  14.288  14.389
18342SOL    HW256866  11.635  14.285  14.496
18343SOL     OW56867  10.253   9.675   3.845
18343SOL    HW156868  10.315   9.731   3.799
18343SOL    HW256869  10.257   9.591   3.798
18344SOL     OW56870   4.042  10.202  13.331
18344SOL    HW156871   4.012  10.256  13.404
18344SOL    HW256872   4.124  10.242  13.302
18345SOL     OW56873  11.247  11.382   1.839
18345SOL    HW156874  11.233  11.296   1.880
18345SOL    HW256875  11.161  11.423   1.838
18346SOL     OW56876   2.023  12.438  11.688
18346SOL    HW156877   2.070  12.517  11.661
18346SOL    HW256878   2.083  12.367  11.668
18347SOL     OW56879   9.000  12.076  14.791
18347SOL    HW156880   8.928  12.048  14.848
18347SOL    HW256881   9.012  12.168  14.810
18348SOL     OW56882   9.446   6.895   1.815
18348SOL    HW156883   9.458   6.801   1.822
18348SOL    HW256884   9.525   6.927   1.771
18349SOL     OW56885   9.095   9.585   8.548
18349SOL    HW156886   9.149   9.638   8.607
18349SOL    HW256887   9.124   9.495   8.565
18350SOL     OW56888   3.430   2.831   2.223
18350SOL    HW156889   3.348   2.880   2.225
18350SOL    HW256890   3.487   2.881   2.164
18351SOL     OW56891  11.278  14.549  13.075
18351SOL    HW156892  11.338  14.476  13.088
18351SOL    HW256893  11.276  14.594  13.160
18352SOL     OW56894   8.937  14.321  14.624
18352SOL    HW156895   8.988  14.241  14.617
18352SOL    HW256896   9.000  14.391  14.611
18353SOL     OW56897   9.087   0.726   1.929
18353SOL    HW156898   9.054   0.739   2.018
18353SOL    HW256899   9.113   0.813   1.900
18354SOL     OW56900   1.674  13.304   3.791
18354SOL    HW156901   1.762  13.340   3.805
18354SOL    HW256902   1.658  13.318   3.698
18355SOL     OW56903   7.097   8.557  11.857
18355SOL    HW156904   7.140   8.529  11.938
18355SOL    HW256905   7.153   8.521  11.788
18356SOL     OW56906  10.542  14.435  11.958
18356SOL    HW156907  10.535  14.522  11.996
18356SOL    HW256908  10.475  14.433  11.889
18357SOL     OW56909  12.663   5.445   9.862
18357SOL    HW156910  12.745   5.492   9.871
18357SOL    HW256911  12.601   5.493   9.918
18358SOL     OW56912  14.187   6.529   1.979
18358SOL    HW156913  14.159   6.502   1.892
18358SOL    HW256914  14.130   6.602   2.002
18359SOL     OW56915   4.857  12.263   0.356
18359SOL    HW156916   4.764  12.242   0.359
18359SOL    HW256917   4.901  12.184   0.388
18360SOL     OW56918  10.747  13.208   9.561
18360SOL    HW156919  10.672  13.255   9.598
18360SOL    HW256920  10.774  13.148   9.630
18361SOL     OW56921  11.065   7.387   4.844
18361SOL    HW156922  10.982   7.432   4.825
18361SOL    HW256923  11.117   7.451   4.892
18362SOL     OW56924   3.063   1.159  11.771
18362SOL    HW156925   3.023   1.074  11.756
18362SOL    HW256926   3.110   1.150  11.853
18363SOL     OW56927   8.620  10.280  10.689
18363SOL    HW156928   8.584  10.332  10.617
18363SOL    HW256929   8.551  10.279  10.756
18364SOL     OW56930   7.689   3.708   6.113
18364SOL    HW156931   7.647   3.767   6.175
18364SOL    HW256932   7.778   3.740   6.105
18365SOL     OW56933  13.793   5.942   9.573
18365SOL    HW156934  13.825   5.937   9.482
18365SOL    HW256935  13.697   5.948   9.564
18366SOL     OW56936  12.810   9.569   5.688
18366SOL    HW156937  12.764   9.496   5.646
18366SOL    HW256938  12.795   9.557   5.781
18367SOL     OW56939  13.834   4.608  10.686
18367SOL    HW156940  13.830   4.699  10.657
18367SOL    HW256941  13.906   4.570  10.637
18368SOL     OW56942   5.279  10.649  10.812
18368SOL    HW156943   5.354  10.645  10.752
18368SOL    HW256944   5.219  10.712  10.772
18369SOL     OW56945   0.803   1.499   2.179
18369SOL    HW156946   0.727   1.441   2.170
18369SOL    HW256947   0.878   1.440   2.182
18370SOL     OW56948   4.766   2.555   0.687
18370SOL    HW156949   4.792   2.482   0.744
18370SOL    HW256950   4.785   2.633   0.738
18371SOL     OW56951  12.362   8.807  14.265
18371SOL    HW156952  12.440   8.752  14.273
18371SOL    HW256953  12.354   8.826  14.172
18372SOL     OW56954  10.598  10.412  14.216
18372SOL    HW156955  10.604  10.491  14.269
18372SOL    HW256956  10.518  10.423  14.165
18373SOL     OW56957   1.888  13.099  13.970
18373SOL    HW156958   1.941  13.036  13.921
18373SOL    HW256959   1.807  13.106  13.919
18374SOL     OW56960   5.710   7.392   5.434
18374SOL    HW156961   5.805   7.379   5.438
18374SOL    HW256962   5.698   7.458   5.366
18375SOL     OW56963   5.895   1.426   1.919
18375SOL    HW156964   5.870   1.449   1.829
18375SOL    HW256965   5.942   1.504   1.951
18376SOL     OW56966  12.181   8.161  14.377
18376SOL    HW156967  12.148   8.251  14.375
18376SOL    HW256968  12.169   8.129  14.287
18377SOL     OW56969   2.215  12.905   4.113
18377SOL    HW156970   2.216  12.976   4.178
18377SOL    HW256971   2.157  12.937   4.044
18378SOL     OW56972   3.066   2.801   5.959
18378SOL    HW156973   3.129   2.869   5.982
18378SOL    HW256974   3.071   2.796   5.864
18379SOL     OW56975   4.388   6.689  14.791
18379SOL    HW156976   4.426   6.601  14.800
18379SOL    HW256977   4.456   6.747  14.826
18380SOL     OW56978   4.386   7.267   7.183
18380SOL    HW156979   4.356   7.199   7.243
18380SOL    HW256980   4.479   7.248   7.169
18381SOL     OW56981   9.776   4.767   4.216
18381SOL    HW156982   9.801   4.674   4.213
18381SOL    HW256983   9.680   4.766   4.217
18382SOL     OW56984   1.144  12.701  10.596
18382SOL    HW156985   1.094  12.667  10.670
18382SOL    HW256986   1.223  12.646  10.593
18383SOL     OW56987   9.429   6.069  10.769
18383SOL    HW156988   9.496   6.031  10.827
18383SOL    HW256989   9.351   6.077  10.824
18384SOL     OW56990  11.404  13.949   2.091
18384SOL    HW156991  11.419  13.920   2.181
18384SOL    HW256992  11.492  13.955   2.053
18385SOL     OW56993   1.482   8.821   4.363
18385SOL    HW156994   1.501   8.739   4.408
18385SOL    HW256995   1.486   8.799   4.270
18386SOL     OW56996   0.422  14.225   1.385
18386SOL    HW156997   0.495  14.233   1.323
18386SOL    HW256998   0.393  14.135   1.376
18387SOL     OW56999   4.214   9.677  10.660
18387SOL    HW157000   4.179   9.656  10.746
18387SOL    HW257001   4.239   9.592  10.623
18388SOL     OW57002  10.285  11.756   6.593
18388SOL    HW157003  10.302  11.717   6.679
18388SOL    HW257004  10.362  11.732   6.541
18389SOL     OW57005   0.627   6.185  11.221
18389SOL    HW157006   0.535   6.209  11.220
18389SOL    HW257007   0.667   6.245  11.284
18390SOL     OW57008  10.994  14.168   8.067
18390SOL    HW157009  10.963  14.258   8.057
18390SOL    HW257010  10.945  14.134   8.141
18391SOL     OW57011  12.647   7.021   8.058
18391SOL    HW157012  12.615   6.952   8.116
18391SOL    HW257013  12.735   6.992   8.034
18392SOL     OW57014   2.591  13.480   7.152
18392SOL    HW157015   2.547  13.395   7.147
18392SOL    HW257016   2.683  13.458   7.169
18393SOL     OW57017   8.889   0.378  11.544
18393SOL    HW157018   8.973   0.397  11.586
18393SOL    HW257019   8.826   0.434  11.589
18394SOL     OW57020   1.931  12.097  12.454
18394SOL    HW157021   1.956  12.006  12.465
18394SOL    HW257022   1.862  12.095  12.387
18395SOL     OW57023  12.428   3.209   4.385
18395SOL    HW157024  12.490   3.281   4.375
18395SOL    HW257025  12.347   3.242   4.346
18396SOL     OW57026   2.182   8.588   8.852
18396SOL    HW157027   2.092   8.579   8.819
18396SOL    HW257028   2.191   8.681   8.873
18397SOL     OW57029   2.377  13.139   6.603
18397SOL    HW157030   2.305  13.151   6.542
18397SOL    HW257031   2.442  13.205   6.577
18398SOL     OW57032  11.246  13.742   6.728
18398SOL    HW157033  11.340  13.755   6.719
18398SOL    HW257034  11.228  13.760   6.821
18399SOL     OW57035   7.350   1.716   8.875
18399SOL    HW157036   7.297   1.783   8.832
18399SOL    HW257037   7.329   1.724   8.968
18400SOL     OW57038  13.022  11.880   9.168
18400SOL    HW157039  13.063  11.939   9.105
18400SOL    HW257040  13.073  11.799   9.161
18401SOL     OW57041  10.952  11.215  11.231
18401SOL    HW157042  11.040  11.188  11.206
18401SOL    HW257043  10.897  11.141  11.206
18402SOL     OW57044  11.553   2.558   8.673
18402SOL    HW157045  11.542   2.628   8.609
18402SOL    HW257046  11.504   2.484   8.636
18403SOL     OW57047   8.562  10.322   2.575
18403SOL    HW157048   8.527  10.235   2.594
18403SOL    HW257049   8.652  10.319   2.605
18404SOL     OW57050   9.245   6.612  13.603
18404SOL    HW157051   9.215   6.702  13.596
18404SOL    HW257052   9.166   6.559  13.597
18405SOL     OW57053   1.701   1.760  13.453
18405SOL    HW157054   1.722   1.667  13.459
18405SOL    HW257055   1.786   1.803  13.445
18406SOL     OW57056  11.182   6.162   6.105
18406SOL    HW157057  11.154   6.090   6.163
18406SOL    HW257058  11.268   6.187   6.139
18407SOL     OW57059  11.049   8.113  12.904
18407SOL    HW157060  11.012   8.036  12.946
18407SOL    HW257061  11.120   8.140  12.963
18408SOL     OW57062  10.477   1.327  10.272
18408SOL    HW157063  10.394   1.367  10.297
18408SOL    HW257064  10.463   1.233  10.279
18409SOL     OW57065  11.315   0.916   3.156
18409SOL    HW157066  11.266   0.998   3.160
18409SOL    HW257067  11.276   0.861   3.224
18410SOL     OW57068   5.423   5.796   4.135
18410SOL    HW157069   5.389   5.869   4.186
18410SOL    HW257070   5.455   5.734   4.200
18411SOL     OW57071   3.376  13.229   0.415
18411SOL    HW157072   3.410  13.277   0.490
18411SOL    HW257073   3.453  13.192   0.372
18412SOL     OW57074  12.056   2.651   2.071
18412SOL    HW157075  12.130   2.657   2.131
18412SOL    HW257076  11.985   2.613   2.124
18413SOL     OW57077   8.376  13.074  14.020
18413SOL    HW157078   8.453  13.018  14.010
18413SOL    HW257079   8.408  13.163  14.003
18414SOL     OW57080  12.341   5.414  11.822
18414SOL    HW157081  12.328   5.342  11.883
18414SOL    HW257082  12.260   5.464  11.825
18415SOL     OW57083  12.912  12.400   5.163
18415SOL    HW157084  12.960  12.345   5.100
18415SOL    HW257085  12.820  12.378   5.148
18416SOL     OW57086  13.215  12.164   6.868
18416SOL    HW157087  13.220  12.141   6.775
18416SOL    HW257088  13.121  12.160   6.888
18417SOL     OW57089  12.570   0.579   7.764
18417SOL    HW157090  12.494   0.636   7.773
18417SOL    HW257091  12.593   0.586   7.671
18418SOL     OW57092   9.820   3.176   3.190
18418SOL    HW157093   9.914   3.178   3.210
18418SOL    HW257094   9.794   3.085   3.209
18419SOL     OW57095   3.621   9.146   9.086
18419SOL    HW157096   3.655   9.099   9.009
18419SOL    HW257097   3.526   9.142   9.076
18420SOL     OW57098   7.279   1.251   6.132
18420SOL    HW157099   7.306   1.159   6.138
18420SOL    HW257100   7.357   1.301   6.154
18421SOL     OW57101  12.861  10.938   3.096
18421SOL    HW157102  12.890  11.024   3.127
18421SOL    HW257103  12.850  10.886   3.176
18422SOL     OW57104   8.426   7.950  13.688
18422SOL    HW157105   8.392   7.861  13.688
18422SOL    HW257106   8.366   7.999  13.745
18423SOL     OW57107   9.637   5.286   4.359
18423SOL    HW157108   9.716   5.236   4.379
18423SOL    HW257109   9.651   5.318   4.269
18424SOL     OW57110   0.415   0.747   5.238
18424SOL    HW157111   0.413   0.693   5.316
18424SOL    HW257112   0.481   0.706   5.182
18425SOL     OW57113   7.785  12.527   1.408
18425SOL    HW157114   7.850  12.540   1.477
18425SOL    HW257115   7.836  12.525   1.327
18426SOL     OW57116  13.478   0.877  13.046
18426SOL    HW157117  13.407   0.832  12.999
18426SOL    HW257118  13.512   0.940  12.983
18427SOL     OW57119   2.226   3.942   5.308
18427SOL    HW157120   2.191   4.014   5.360
18427SOL    HW257121   2.257   3.878   5.372
18428SOL     OW57122   9.985   7.202   2.738
18428SOL    HW157123   9.991   7.246   2.653
18428SOL    HW257124  10.074   7.204   2.772
18429SOL     OW57125   3.364   0.445   7.499
18429SOL    HW157126   3.345   0.354   7.478
18429SOL    HW257127   3.408   0.441   7.584
18430SOL     OW57128  13.257   6.782   3.907
18430SOL    HW157129  13.285   6.779   3.815
18430SOL    HW257130  13.235   6.691   3.929
18431SOL     OW57131   4.774   1.559  13.349
18431SOL    HW157132   4.728   1.627  13.399
18431SOL    HW257133   4.840   1.606  13.298
18432SOL     OW57134   2.409  13.374  11.208
18432SOL    HW157135   2.420  13.308  11.277
18432SOL    HW257136   2.499  13.399  11.185
18433SOL     OW57137   6.434  10.701  14.506
18433SOL    HW157138   6.413  10.641  14.434
18433SOL    HW257139   6.394  10.784  14.481
18434SOL     OW57140  12.071   9.883  14.031
18434SOL    HW157141  12.072   9.972  14.066
18434SOL    HW257142  12.155   9.873  13.986
18435SOL     OW57143   5.371   8.970  14.080
18435SOL    HW157144   5.455   8.979  14.125
18435SOL    HW257145   5.307   8.958  14.150
18436SOL     OW57146  11.894   0.302  10.031
18436SOL    HW157147  11.933   0.222  10.068
18436SOL    HW257148  11.840   0.270   9.958
18437SOL     OW57149   5.657   8.739  10.115
18437SOL    HW157150   5.579   8.778  10.154
18437SOL    HW257151   5.660   8.774  10.026
18438SOL     OW57152   3.234   0.523   8.317
18438SOL    HW157153   3.285   0.601   8.338
18438SOL    HW257154   3.144   0.554   8.310
18439SOL     OW57155   9.289   4.559   7.848
18439SOL    HW157156   9.301   4.544   7.941
18439SOL    HW257157   9.347   4.496   7.805
18440SOL     OW57158   2.953   4.721   3.392
18440SOL    HW157159   2.914   4.794   3.345
18440SOL    HW257160   2.989   4.665   3.323
18441SOL     OW57161   3.545  11.389  14.566
18441SOL    HW157162   3.562  11.366  14.657
18441SOL    HW257163   3.496  11.315  14.530
18442SOL     OW57164   6.528   1.611  11.222
18442SOL    HW157165   6.524   1.604  11.126
18442SOL    HW257166   6.513   1.704  11.239
18443SOL     OW57167   8.090   9.718  10.459
18443SOL    HW157168   8.057   9.776  10.527
18443SOL    HW257169   8.050   9.633  10.478
18444SOL     OW57170   4.284   9.292   9.488
18444SOL    HW157171   4.281   9.264   9.579
18444SOL    HW257172   4.328   9.377   9.490
18445SOL     OW57173  13.408   4.810   3.227
18445SOL    HW157174  13.337   4.804   3.163
18445SOL    HW257175  13.442   4.721   3.235
18446SOL     OW57176  13.345   1.082   9.903
18446SOL    HW157177  13.316   0.994   9.927
18446SOL    HW257178  13.311   1.138   9.974
18447SOL     OW57179  10.194  10.196   3.027
18447SOL    HW157180  10.189  10.196   3.123
18447SOL    HW257181  10.240  10.114   3.006
18448SOL     OW57182   5.937   1.260  13.647
18448SOL    HW157183   5.987   1.295  13.573
18448SOL    HW257184   6.002   1.213  13.699
18449SOL     OW57185   7.501  11.206   9.219
18449SOL    HW157186   7.489  11.295   9.249
18449SOL    HW257187   7.490  11.210   9.124
18450SOL     OW57188   1.954   1.939   0.339
18450SOL    HW157189   2.015   1.896   0.279
18450SOL    HW257190   2.005   2.008   0.380
18451SOL     OW57191   2.065   7.886  13.840
18451SOL    HW157192   2.005   7.915  13.772
18451SOL    HW257193   2.008   7.841  13.904
18452SOL     OW57194   6.371   8.753   2.550
18452SOL    HW157195   6.422   8.808   2.490
18452SOL    HW257196   6.332   8.815   2.612
18453SOL     OW57197  14.439  10.447   4.752
18453SOL    HW157198  14.356  10.485   4.721
18453SOL    HW257199  14.416  10.405   4.834
18454SOL     OW57200   1.657   2.696   9.903
18454SOL    HW157201   1.673   2.647   9.823
18454SOL    HW257202   1.679   2.786   9.882
18455SOL     OW57203   4.942   2.072   6.703
18455SOL    HW157204   4.891   2.018   6.643
18455SOL    HW257205   4.965   2.013   6.775
18456SOL     OW57206  12.724   1.825   4.252
18456SOL    HW157207  12.653   1.827   4.316
18456SOL    HW257208  12.771   1.744   4.271
18457SOL     OW57209   7.336   0.408   4.538
18457SOL    HW157210   7.323   0.490   4.585
18457SOL    HW257211   7.362   0.345   4.605
18458SOL     OW57212  11.011   6.033  14.198
18458SOL    HW157213  11.070   6.019  14.272
18458SOL    HW257214  11.052   5.983  14.126
18459SOL     OW57215   1.284   9.033   9.648
18459SOL    HW157216   1.228   9.049   9.724
18459SOL    HW257217   1.278   9.113   9.596
18460SOL     OW57218   6.580   2.985   3.138
18460SOL    HW157219   6.561   2.925   3.210
18460SOL    HW257220   6.653   3.037   3.169
18461SOL     OW57221  12.441   2.426  14.128
18461SOL    HW157222  12.505   2.413  14.198
18461SOL    HW257223  12.478   2.379  14.053
18462SOL     OW57224   1.806   3.363   1.969
18462SOL    HW157225   1.785   3.293   2.031
18462SOL    HW257226   1.730   3.421   1.972
18463SOL     OW57227   3.600  12.280   0.377
18463SOL    HW157228   3.578  12.322   0.461
18463SOL    HW257229   3.529  12.218   0.361
18464SOL     OW57230   6.550   8.857  10.092
18464SOL    HW157231   6.485   8.873  10.024
18464SOL    HW257232   6.617   8.803  10.049
18465SOL     OW57233   5.347   5.072   6.682
18465SOL    HW157234   5.340   5.090   6.589
18465SOL    HW257235   5.389   4.986   6.686
18466SOL     OW57236   0.074  11.879  14.674
18466SOL    HW157237   0.119  11.962  14.657
18466SOL    HW257238   0.105  11.853  14.761
18467SOL     OW57239   8.324  14.742  13.981
18467SOL    HW157240   8.268  14.746  13.904
18467SOL    HW257241   8.338  14.834  14.006
18468SOL     OW57242   4.602   7.505   0.382
18468SOL    HW157243   4.666   7.478   0.448
18468SOL    HW257244   4.518   7.476   0.417
18469SOL     OW57245   7.875   4.047  12.523
18469SOL    HW157246   7.794   4.062  12.570
18469SOL    HW257247   7.868   4.103  12.445
18470SOL     OW57248   7.503  10.895   6.511
18470SOL    HW157249   7.459  10.904   6.427
18470SOL    HW257250   7.434  10.862   6.570
18471SOL     OW57251   3.736   7.599  10.609
18471SOL    HW157252   3.652   7.595  10.562
18471SOL    HW257253   3.774   7.682  10.582
18472SOL     OW57254   4.711  13.680   3.614
18472SOL    HW157255   4.668  13.599   3.585
18472SOL    HW257256   4.764  13.707   3.539
18473SOL     OW57257   9.771  11.784  11.324
18473SOL    HW157258   9.849  11.812  11.276
18473SOL    HW257259   9.772  11.837  11.404
18474SOL     OW57260   1.934   2.244   7.326
18474SOL    HW157261   1.854   2.227   7.277
18474SOL    HW257262   1.977   2.159   7.331
18475SOL     OW57263   8.432  13.672   5.488
18475SOL    HW157264   8.400  13.630   5.568
18475SOL    HW257265   8.353  13.704   5.445
18476SOL     OW57266  13.593   8.571  10.167
18476SOL    HW157267  13.571   8.615  10.085
18476SOL    HW257268  13.560   8.631  10.235
18477SOL     OW57269   2.915   3.590   1.133
18477SOL    HW157270   2.975   3.664   1.120
18477SOL    HW257271   2.955   3.517   1.086
18478SOL     OW57272  11.636  12.319   7.062
18478SOL    HW157273  11.704  12.341   7.127
18478SOL    HW257274  11.648  12.225   7.047
18479SOL     OW57275   9.685   2.127   0.962
18479SOL    HW157276   9.765   2.115   1.015
18479SOL    HW257277   9.616   2.143   1.027
18480SOL     OW57278  10.665   0.868  13.331
18480SOL    HW157279  10.708   0.785  13.354
18480SOL    HW257280  10.688   0.882  13.239
18481SOL     OW57281  10.366   5.391  11.811
18481SOL    HW157282  10.367   5.336  11.890
18481SOL    HW257283  10.349   5.480  11.844
18482SOL     OW57284  12.879   2.763   6.708
18482SOL    HW157285  12.835   2.688   6.669
18482SOL    HW257286  12.970   2.753   6.683
18483SOL     OW57287   5.686  11.375   0.215
18483SOL    HW157288   5.601  11.418   0.216
18483SOL    HW257289   5.666  11.281   0.218
18484SOL     OW57290   0.895   7.174   6.258
18484SOL    HW157291   0.807   7.184   6.223
18484SOL    HW257292   0.906   7.249   6.317
18485SOL     OW57293   0.149   4.440  12.372
18485SOL    HW157294   0.069   4.407  12.331
18485SOL    HW257295   0.218   4.383  12.338
18486SOL     OW57296   7.462   4.729   3.965
18486SOL    HW157297   7.391   4.767   4.016
18486SOL    HW257298   7.538   4.732   4.024
18487SOL     OW57299   3.092   5.198   0.257
18487SOL    HW157300   3.135   5.242   0.330
18487SOL    HW257301   3.163   5.159   0.207
18488SOL     OW57302  11.471   6.832   4.006
18488SOL    HW157303  11.489   6.780   3.928
18488SOL    HW257304  11.463   6.768   4.077
18489SOL     OW57305  12.136  14.060   1.961
18489SOL    HW157306  12.099  13.996   2.022
18489SOL    HW257307  12.231  14.045   1.966
18490SOL     OW57308   9.821   9.969  14.624
18490SOL    HW157309   9.888  10.016  14.576
18490SOL    HW257310   9.858   9.881  14.638
18491SOL     OW57311  12.914   5.191   2.540
18491SOL    HW157312  12.917   5.273   2.590
18491SOL    HW257313  12.940   5.216   2.451
18492SOL     OW57314   2.939  10.639   9.012
18492SOL    HW157315   2.865  10.674   9.062
18492SOL    HW257316   2.939  10.690   8.931
18493SOL     OW57317  12.557   2.742   4.261
18493SOL    HW157318  12.583   2.790   4.340
18493SOL    HW257319  12.466   2.767   4.246
18494SOL     OW57320  14.442   0.808  10.627
18494SOL    HW157321  14.450   0.774  10.538
18494SOL    HW257322  14.490   0.745  10.682
18495SOL     OW57323   1.093   8.271  14.148
18495SOL    HW157324   1.134   8.350  14.182
18495SOL    HW257325   1.094   8.209  14.221
18496SOL     OW57326   9.863   1.617  14.064
18496SOL    HW157327   9.789   1.589  14.011
18496SOL    HW257328   9.824   1.669  14.135
18497SOL     OW57329   0.933  12.250  14.127
18497SOL    HW157330   0.862  12.191  14.100
18497SOL    HW257331   1.002  12.236  14.062
18498SOL     OW57332   8.823   7.097  12.247
18498SOL    HW157333   8.794   7.010  12.274
18498SOL    HW257334   8.861   7.135  12.326
18499SOL     OW57335   8.846   3.792   3.659
18499SOL    HW157336   8.836   3.886   3.645
18499SOL    HW257337   8.922   3.784   3.717
18500SOL     OW57338   8.502  11.061  11.119
18500SOL    HW157339   8.516  11.112  11.039
18500SOL    HW257340   8.573  10.998  11.119
18501SOL     OW57341   8.156  12.678  12.902
18501SOL    HW157342   8.201  12.750  12.858
18501SOL    HW257343   8.169  12.603  12.845
18502SOL     OW57344  11.651   6.489   6.430
18502SOL    HW157345  11.634   6.532   6.513
18502SOL    HW257346  11.578   6.516   6.373
18503SOL     OW57347   8.032   0.297   3.054
18503SOL    HW157348   7.976   0.219   3.052
18503SOL    HW257349   8.000   0.346   3.130
18504SOL     OW57350  12.885  13.006  11.440
18504SOL    HW157351  12.891  12.929  11.384
18504SOL    HW257352  12.888  12.971  11.529
18505SOL     OW57353   4.152  13.467  13.134
18505SOL    HW157354   4.101  13.546  13.152
18505SOL    HW257355   4.240  13.499  13.113
18506SOL     OW57356   9.654   9.878   5.892
18506SOL    HW157357   9.682   9.878   5.984
18506SOL    HW257358   9.603   9.798   5.883
18507SOL     OW57359  13.109  14.512   0.931
18507SOL    HW157360  13.160  14.431   0.936
18507SOL    HW257361  13.053  14.501   0.854
18508SOL     OW57362  12.926   0.330   7.311
18508SOL    HW157363  12.840   0.293   7.292
18508SOL    HW257364  12.927   0.413   7.263
18509SOL     OW57365  13.441   5.108   8.619
18509SOL    HW157366  13.376   5.175   8.638
18509SOL    HW257367  13.492   5.100   8.700
18510SOL     OW57368  11.794  14.046   7.614
18510SOL    HW157369  11.871  14.070   7.666
18510SOL    HW257370  11.830  14.020   7.529
18511SOL     OW57371  14.575   6.580  11.207
18511SOL    HW157372  14.653   6.636  11.213
18511SOL    HW257373  14.508   6.627  11.257
18512SOL     OW57374   7.682   0.910  10.312
18512SOL    HW157375   7.646   0.917  10.400
18512SOL    HW257376   7.766   0.955  10.316
18513SOL     OW57377   5.132   0.785   8.329
18513SOL    HW157378   5.131   0.811   8.237
18513SOL    HW257379   5.178   0.701   8.330
18514SOL     OW57380   8.849   1.510  12.965
18514SOL    HW157381   8.836   1.599  12.996
18514SOL    HW257382   8.900   1.468  13.035
18515SOL     OW57383   2.557   7.080   3.500
18515SOL    HW157384   2.493   7.101   3.431
18515SOL    HW257385   2.509   7.025   3.561
18516SOL     OW57386  10.619   7.138  10.709
18516SOL    HW157387  10.589   7.212  10.763
18516SOL    HW257388  10.573   7.149  10.626
18517SOL     OW57389   1.650  14.679   9.266
18517SOL    HW157390   1.704  14.602   9.246
18517SOL    HW257391   1.660  14.691   9.360
18518SOL     OW57392   9.220   5.432  12.132
18518SOL    HW157393   9.206   5.419  12.039
18518SOL    HW257394   9.272   5.357  12.161
18519SOL     OW57395   1.338   3.185  11.181
18519SOL    HW157396   1.357   3.106  11.130
18519SOL    HW257397   1.267   3.159  11.240
18520SOL     OW57398   4.082   3.816   7.151
18520SOL    HW157399   4.160   3.871   7.156
18520SOL    HW257400   4.107   3.735   7.195
18521SOL     OW57401   3.266   0.684   1.261
18521SOL    HW157402   3.287   0.612   1.202
18521SOL    HW257403   3.217   0.643   1.332
18522SOL     OW57404   9.609   2.720  14.316
18522SOL    HW157405   9.698   2.737  14.285
18522SOL    HW257406   9.618   2.711  14.411
18523SOL     OW57407   5.786   9.822   3.919
18523SOL    HW157408   5.823   9.736   3.937
18523SOL    HW257409   5.837   9.882   3.974
18524SOL     OW57410   0.997   7.220   0.412
18524SOL    HW157411   1.015   7.152   0.347
18524SOL    HW257412   0.935   7.279   0.368
18525SOL     OW57413   3.393  13.737  12.259
18525SOL    HW157414   3.393  13.799  12.332
18525SOL    HW257415   3.316  13.761  12.207
18526SOL     OW57416   0.684  13.368  11.832
18526SOL    HW157417   0.653  13.354  11.743
18526SOL    HW257418   0.668  13.284  11.876
18527SOL     OW57419   0.741   5.603   3.886
18527SOL    HW157420   0.753   5.561   3.801
18527SOL    HW257421   0.651   5.581   3.911
18528SOL     OW57422   3.921  10.734   6.280
18528SOL    HW157423   3.830  10.716   6.303
18528SOL    HW257424   3.937  10.823   6.312
18529SOL     OW57425   7.027  12.734   3.876
18529SOL    HW157426   7.005  12.654   3.828
18529SOL    HW257427   7.107  12.712   3.923
18530SOL     OW57428  10.842  14.014  13.253
18530SOL    HW157429  10.791  14.077  13.304
18530SOL    HW257430  10.825  13.930  13.295
18531SOL     OW57431   0.213  10.420  11.142
18531SOL    HW157432   0.124  10.388  11.160
18531SOL    HW257433   0.205  10.468  11.060
18532SOL     OW57434   4.183   7.287   5.882
18532SOL    HW157435   4.272   7.279   5.846
18532SOL    HW257436   4.197   7.290   5.977
18533SOL     OW57437  12.675   5.482   6.374
18533SOL    HW157438  12.601   5.484   6.314
18533SOL    HW257439  12.740   5.541   6.336
18534SOL     OW57440   9.398   3.919   4.896
18534SOL    HW157441   9.486   3.891   4.922
18534SOL    HW257442   9.369   3.852   4.834
18535SOL     OW57443  14.173   1.246   6.598
18535SOL    HW157444  14.137   1.266   6.685
18535SOL    HW257445  14.240   1.179   6.615
18536SOL     OW57446   4.792  11.547   4.736
18536SOL    HW157447   4.706  11.586   4.751
18536SOL    HW257448   4.830  11.539   4.824
18537SOL     OW57449   7.786   7.181   4.854
18537SOL    HW157450   7.741   7.099   4.878
18537SOL    HW257451   7.739   7.249   4.903
18538SOL     OW57452  11.897   6.389   5.686
18538SOL    HW157453  11.841   6.316   5.659
18538SOL    HW257454  11.982   6.348   5.704
18539SOL     OW57455   4.692  11.149   3.194
18539SOL    HW157456   4.643  11.106   3.125
18539SOL    HW257457   4.738  11.078   3.239
18540SOL     OW57458   4.741   5.933   1.874
18540SOL    HW157459   4.679   5.936   1.947
18540SOL    HW257460   4.826   5.947   1.915
18541SOL     OW57461   4.741   3.269   7.464
18541SOL    HW157462   4.788   3.190   7.438
18541SOL    HW257463   4.751   3.273   7.559
18542SOL     OW57464   9.609   6.355   0.026
18542SOL    HW157465   9.610   6.376   0.119
18542SOL    HW257466   9.635   6.436  14.856
18543SOL     OW57467   1.979   8.102  14.347
18543SOL    HW157468   2.066   8.137  14.330
18543SOL    HW257469   1.990   8.007  14.342
18544SOL     OW57470  12.380  12.507  11.676
18544SOL    HW157471  12.316  12.438  11.691
18544SOL    HW257472  12.383  12.516  11.580
18545SOL     OW57473   9.884   6.982   1.422
18545SOL    HW157474   9.912   6.982   1.513
18545SOL    HW257475   9.964   6.961   1.372
18546SOL     OW57476   7.853   1.907  10.628
18546SOL    HW157477   7.939   1.866  10.638
18546SOL    HW257478   7.837   1.949  10.712
18547SOL     OW57479  13.954   2.431   7.069
18547SOL    HW157480  13.928   2.364   7.005
18547SOL    HW257481  14.037   2.398   7.105
18548SOL     OW57482   6.621   9.925   0.060
18548SOL    HW157483   6.656   9.953   0.145
18548SOL    HW257484   6.648   9.994  14.872
18549SOL     OW57485  12.578   9.757  13.367
18549SOL    HW157486  12.493   9.716  13.385
18549SOL    HW257487  12.593   9.814  13.442
18550SOL     OW57488   5.736   7.979   6.005
18550SOL    HW157489   5.753   8.072   6.015
18550SOL    HW257490   5.713   7.968   5.913
18551SOL     OW57491   9.515   8.636  12.234
18551SOL    HW157492   9.531   8.706  12.297
18551SOL    HW257493   9.434   8.595  12.265
18552SOL     OW57494   5.505  10.566   2.034
18552SOL    HW157495   5.500  10.656   2.066
18552SOL    HW257496   5.510  10.574   1.939
18553SOL     OW57497   3.738   6.937  11.986
18553SOL    HW157498   3.693   6.949  12.070
18553SOL    HW257499   3.669   6.947  11.921
18554SOL     OW57500  11.108   7.495   4.441
18554SOL    HW157501  11.090   7.588   4.452
18554SOL    HW257502  11.075   7.474   4.353
18555SOL     OW57503  10.200   3.399   1.174
18555SOL    HW157504  10.116   3.437   1.150
18555SOL    HW257505  10.202   3.314   1.129
18556SOL     OW57506  11.396   1.465  14.131
18556SOL    HW157507  11.431   1.509  14.208
18556SOL    HW257508  11.333   1.528  14.095
18557SOL     OW57509  12.056  12.342  10.318
18557SOL    HW157510  12.030  12.398  10.391
18557SOL    HW257511  11.998  12.369  10.246
18558SOL     OW57512   9.363   9.399   0.565
18558SOL    HW157513   9.326   9.468   0.511
18558SOL    HW257514   9.326   9.318   0.530
18559SOL     OW57515   8.524  12.668   4.392
18559SOL    HW157516   8.433  12.666   4.422
18559SOL    HW257517   8.518  12.699   4.302
18560SOL     OW57518  12.004   7.958   1.008
18560SOL    HW157519  11.984   7.932   1.098
18560SOL    HW257520  11.993   8.053   1.007
18561SOL     OW57521   9.795   4.971   8.777
18561SOL    HW157522   9.801   5.059   8.742
18561SOL    HW257523   9.763   4.917   8.704
18562SOL     OW57524   6.060  14.128   5.664
18562SOL    HW157525   6.078  14.064   5.595
18562SOL    HW257526   6.097  14.091   5.743
18563SOL     OW57527   1.072   7.753   1.632
18563SOL    HW157528   0.992   7.758   1.685
18563SOL    HW257529   1.084   7.843   1.601
18564SOL     OW57530   3.239   7.523   5.185
18564SOL    HW157531   3.268   7.578   5.259
18564SOL    HW257532   3.163   7.569   5.149
18565SOL     OW57533  13.171   1.098   2.402
18565SOL    HW157534  13.231   1.079   2.329
18565SOL    HW257535  13.197   1.038   2.471
18566SOL     OW57536  12.676   5.465   1.255
18566SOL    HW157537  12.658   5.527   1.184
18566SOL    HW257538  12.590   5.428   1.276
18567SOL     OW57539   1.190   7.468   4.009
18567SOL    HW157540   1.233   7.385   4.030
18567SOL    HW257541   1.260   7.523   3.973
18568SOL     OW57542   9.215   0.480   6.290
18568SOL    HW157543   9.273   0.521   6.227
18568SOL    HW257544   9.229   0.528   6.371
18569SOL     OW57545  10.402   3.028   0.779
18569SOL    HW157546  10.390   2.946   0.825
18569SOL    HW257547  10.477   3.069   0.821
18570SOL     OW57548  13.564   3.194   6.910
18570SOL    HW157549  13.583   3.268   6.968
18570SOL    HW257550  13.495   3.227   6.852
18571SOL     OW57551   3.218   6.029   5.314
18571SOL    HW157552   3.308   6.006   5.289
18571SOL    HW257553   3.217   6.024   5.409
18572SOL     OW57554  11.252  12.936   0.935
18572SOL    HW157555  11.208  12.999   0.877
18572SOL    HW257556  11.339  12.975   0.950
18573SOL     OW57557  12.799   0.149  11.230
18573SOL    HW157558  12.886   0.185  11.248
18573SOL    HW257559  12.747   0.224  11.204
18574SOL     OW57560   8.436   1.310   6.397
18574SOL    HW157561   8.522   1.278   6.424
18574SOL    HW257562   8.391   1.332   6.479
18575SOL     OW57563  12.940   3.247  11.113
18575SOL    HW157564  12.957   3.198  11.032
18575SOL    HW257565  12.863   3.205  11.150
18576SOL     OW57566   3.048   3.798   7.885
18576SOL    HW157567   2.980   3.856   7.850
18576SOL    HW257568   3.130   3.838   7.855
18577SOL     OW57569   8.883   8.867  13.127
18577SOL    HW157570   8.859   8.947  13.080
18577SOL    HW257571   8.952   8.894  13.188
18578SOL     OW57572   7.064  11.361  14.255
18578SOL    HW157573   7.055  11.450  14.291
18578SOL    HW257574   7.146  11.365  14.205
18579SOL     OW57575  13.840   3.853   6.826
18579SOL    HW157576  13.863   3.772   6.870
18579SOL    HW257577  13.873   3.842   6.737
18580SOL     OW57578   6.484   6.295  10.357
18580SOL    HW157579   6.478   6.239  10.434
18580SOL    HW257580   6.506   6.382  10.391
18581SOL     OW57581   7.864   7.272  12.797
18581SOL    HW157582   7.775   7.280  12.831
18581SOL    HW257583   7.859   7.202  12.732
18582SOL     OW57584   2.086   4.100  10.298
18582SOL    HW157585   2.158   4.162  10.287
18582SOL    HW257586   2.007   4.152  10.281
18583SOL     OW57587   6.476   2.695   1.573
18583SOL    HW157588   6.386   2.722   1.588
18583SOL    HW257589   6.474   2.646   1.491
18584SOL     OW57590   4.049  13.681   9.150
18584SOL    HW157591   4.078  13.634   9.072
18584SOL    HW257592   3.968  13.725   9.123
18585SOL     OW57593  14.533   7.295   9.789
18585SOL    HW157594  14.486   7.276   9.870
18585SOL    HW257595  14.466   7.330   9.730
18586SOL     OW57596   0.403   1.630  13.494
18586SOL    HW157597   0.369   1.565  13.433
18586SOL    HW257598   0.344   1.705  13.486
18587SOL     OW57599  13.858   4.541  10.999
18587SOL    HW157600  13.840   4.592  10.920
18587SOL    HW257601  13.937   4.491  10.977
18588SOL     OW57602   5.479  11.013   3.251
18588SOL    HW157603   5.395  11.007   3.298
18588SOL    HW257604   5.543  11.032   3.319
18589SOL     OW57605  13.069  12.340  10.004
18589SOL    HW157606  13.061  12.364   9.912
18589SOL    HW257607  13.076  12.424  10.051
18590SOL     OW57608   7.661   5.677  12.596
18590SOL    HW157609   7.736   5.713  12.548
18590SOL    HW257610   7.691   5.592  12.627
18591SOL     OW57611   5.231   4.706   7.720
18591SOL    HW157612   5.301   4.747   7.669
18591SOL    HW257613   5.160   4.693   7.657
18592SOL     OW57614   5.603   8.632  11.766
18592SOL    HW157615   5.690   8.639  11.805
18592SOL    HW257616   5.581   8.539  11.771
18593SOL     OW57617   4.630  13.209   9.586
18593SOL    HW157618   4.627  13.197   9.491
18593SOL    HW257619   4.688  13.140   9.617
18594SOL     OW57620   3.612   8.661  10.172
18594SOL    HW157621   3.572   8.575  10.189
18594SOL    HW257622   3.623   8.664  10.077
18595SOL     OW57623  13.386   1.742   6.186
18595SOL    HW157624  13.476   1.775   6.193
18595SOL    HW257625  13.331   1.818   6.207
18596SOL     OW57626  12.879   9.324  13.450
18596SOL    HW157627  12.928   9.312  13.531
18596SOL    HW257628  12.853   9.416  13.452
18597SOL     OW57629   4.846   2.455   6.304
18597SOL    HW157630   4.859   2.389   6.372
18597SOL    HW257631   4.767   2.502   6.332
18598SOL     OW57632   1.609   7.958  10.294
18598SOL    HW157633   1.591   7.919  10.380
18598SOL    HW257634   1.545   8.029  10.287
18599SOL     OW57635   6.118   7.625   6.200
18599SOL    HW157636   6.167   7.695   6.157
18599SOL    HW257637   6.040   7.614   6.146
18600SOL     OW57638   2.246   9.906   8.349
18600SOL    HW157639   2.245   9.852   8.428
18600SOL    HW257640   2.160   9.947   8.347
18601SOL     OW57641   4.372   9.538  13.116
18601SOL    HW157642   4.401   9.569  13.030
18601SOL    HW257643   4.359   9.617  13.168
18602SOL     OW57644  12.002   9.127   2.824
18602SOL    HW157645  12.049   9.207   2.799
18602SOL    HW257646  12.015   9.067   2.750
18603SOL     OW57647   6.919   7.446   7.465
18603SOL    HW157648   6.938   7.408   7.551
18603SOL    HW257649   6.986   7.409   7.407
18604SOL     OW57650   5.295   8.282  10.310
18604SOL    HW157651   5.216   8.308  10.358
18604SOL    HW257652   5.316   8.195  10.345
18605SOL     OW57653   8.026   0.700   3.819
18605SOL    HW157654   7.969   0.624   3.826
18605SOL    HW257655   7.981   0.759   3.758
18606SOL     OW57656   1.951   3.752   8.424
18606SOL    HW157657   1.954   3.748   8.329
18606SOL    HW257658   2.011   3.683   8.453
18607SOL     OW57659   4.491   3.503  14.660
18607SOL    HW157660   4.578   3.516  14.697
18607SOL    HW257661   4.492   3.555  14.579
18608SOL     OW57662  14.097  13.859   8.454
18608SOL    HW157663  14.033  13.797   8.417
18608SOL    HW257664  14.071  13.944   8.419
18609SOL     OW57665   4.565  10.303   7.642
18609SOL    HW157666   4.656  10.332   7.633
18609SOL    HW257667   4.551  10.246   7.567
18610SOL     OW57668   7.157   7.808   0.943
18610SOL    HW157669   7.141   7.715   0.959
18610SOL    HW257670   7.212   7.835   1.017
18611SOL     OW57671   8.929   8.703   8.071
18611SOL    HW157672   8.988   8.629   8.058
18611SOL    HW257673   8.841   8.664   8.075
18612SOL     OW57674   0.391   9.531  11.312
18612SOL    HW157675   0.354   9.616  11.290
18612SOL    HW257676   0.445   9.548  11.390
18613SOL     OW57677   2.615   5.357   1.159
18613SOL    HW157678   2.650   5.377   1.072
18613SOL    HW257679   2.691   5.325   1.208
18614SOL     OW57680  14.173   0.212   2.579
18614SOL    HW157681  14.231   0.152   2.625
18614SOL    HW257682  14.122   0.155   2.520
18615SOL     OW57683   4.995   0.856  14.873
18615SOL    HW157684   5.049   0.780  14.851
18615SOL    HW257685   5.001   0.863   0.095
18616SOL     OW57686  11.789   9.164   3.243
18616SOL    HW157687  11.756   9.207   3.321
18616SOL    HW257688  11.711   9.130   3.199
18617SOL     OW57689   3.453   2.212  13.167
18617SOL    HW157690   3.362   2.193  13.144
18617SOL    HW257691   3.473   2.150  13.237
18618SOL     OW57692   8.567   9.598   5.842
18618SOL    HW157693   8.556   9.588   5.748
18618SOL    HW257694   8.551   9.691   5.859
18619SOL     OW57695   9.318  11.589   1.113
18619SOL    HW157696   9.294  11.681   1.125
18619SOL    HW257697   9.253  11.555   1.051
18620SOL     OW57698   8.087   4.206   8.936
18620SOL    HW157699   8.016   4.264   8.963
18620SOL    HW257700   8.049   4.118   8.940
18621SOL     OW57701  11.788   2.305   9.182
18621SOL    HW157702  11.744   2.230   9.223
18621SOL    HW257703  11.790   2.282   9.089
18622SOL     OW57704  14.516   4.059  13.765
18622SOL    HW157705  14.473   4.098  13.841
18622SOL    HW257706  14.465   4.090  13.690
18623SOL     OW57707   7.605  13.393  14.048
18623SOL    HW157708   7.603  13.366  13.956
18623SOL    HW257709   7.698  13.399  14.069
18624SOL     OW57710   9.586   0.300   3.096
18624SOL    HW157711   9.536   0.381   3.088
18624SOL    HW257712   9.588   0.282   3.190
18625SOL     OW57713  12.487  10.639   0.532
18625SOL    HW157714  12.469  10.686   0.451
18625SOL    HW257715  12.536  10.701   0.585
18626SOL     OW57716   0.668   2.008  14.388
18626SOL    HW157717   0.585   2.009  14.437
18626SOL    HW257718   0.659   2.078  14.323
18627SOL     OW57719   6.537   9.704  11.643
18627SOL    HW157720   6.541   9.799  11.654
18627SOL    HW257721   6.464   9.676  11.698
18628SOL     OW57722  13.705   9.710   5.830
18628SOL    HW157723  13.741   9.632   5.872
18628SOL    HW257724  13.618   9.721   5.870
18629SOL     OW57725  12.830  13.078   5.340
18629SOL    HW157726  12.786  12.994   5.352
18629SOL    HW257727  12.829  13.093   5.245
18630SOL     OW57728   2.769   2.279  13.174
18630SOL    HW157729   2.710   2.203  13.165
18630SOL    HW257730   2.711   2.352  13.194
18631SOL     OW57731   4.638   4.597   1.202
18631SOL    HW157732   4.653   4.688   1.178
18631SOL    HW257733   4.548   4.579   1.174
18632SOL     OW57734  13.391   0.901   9.426
18632SOL    HW157735  13.423   0.944   9.505
18632SOL    HW257736  13.449   0.934   9.356
18633SOL     OW57737  10.067  12.688  12.613
18633SOL    HW157738  10.030  12.718  12.531
18633SOL    HW257739  10.006  12.718  12.680
18634SOL     OW57740  12.827   9.605   3.836
18634SOL    HW157741  12.840   9.521   3.791
18634SOL    HW257742  12.854   9.587   3.926
18635SOL     OW57743   0.478  11.861   3.408
18635SOL    HW157744   0.406  11.905   3.453
18635SOL    HW257745   0.533  11.933   3.377
18636SOL     OW57746   8.461   5.550   5.674
18636SOL    HW157747   8.437   5.458   5.668
18636SOL    HW257748   8.468   5.567   5.768
18637SOL     OW57749  13.534  13.484   7.080
18637SOL    HW157750  13.476  13.464   7.006
18637SOL    HW257751  13.496  13.561   7.121
18638SOL     OW57752   3.747   1.306  11.134
18638SOL    HW157753   3.807   1.260  11.075
18638SOL    HW257754   3.673   1.246  11.145
18639SOL     OW57755  12.389  12.196   4.699
18639SOL    HW157756  12.484  12.204   4.697
18639SOL    HW257757  12.361  12.264   4.760
18640SOL     OW57758   4.778   9.591  12.893
18640SOL    HW157759   4.698   9.594  12.841
18640SOL    HW257760   4.793   9.498  12.909
18641SOL     OW57761   2.480   0.356   1.504
18641SOL    HW157762   2.427   0.384   1.579
18641SOL    HW257763   2.417   0.336   1.436
18642SOL     OW57764   9.881   2.934  10.324
18642SOL    HW157765   9.801   2.901  10.363
18642SOL    HW257766   9.874   3.030  10.332
18643SOL     OW57767   2.468   1.017  10.905
18643SOL    HW157768   2.381   1.053  10.922
18643SOL    HW257769   2.457   0.922  10.910
18644SOL     OW57770   3.699  12.809   9.745
18644SOL    HW157771   3.607  12.785   9.751
18644SOL    HW257772   3.728  12.772   9.662
18645SOL     OW57773   7.934  10.390   6.012
18645SOL    HW157774   7.951  10.307   5.968
18645SOL    HW257775   7.986  10.385   6.092
18646SOL     OW57776  12.760  11.359   1.507
18646SOL    HW157777  12.701  11.319   1.570
18646SOL    HW257778  12.728  11.449   1.498
18647SOL     OW57779   3.565  13.184   9.881
18647SOL    HW157780   3.476  13.178   9.916
18647SOL    HW257781   3.601  13.262   9.922
18648SOL     OW57782   0.184  13.458   7.171
18648SOL    HW157783   0.095  13.492   7.181
18648SOL    HW257784   0.239  13.516   7.224
18649SOL     OW57785   7.211  14.224  12.206
18649SOL    HW157786   7.231  14.143  12.159
18649SOL    HW257787   7.179  14.283  12.138
18650SOL     OW57788  10.694  10.518  11.147
18650SOL    HW157789  10.724  10.441  11.195
18650SOL    HW257790  10.599  10.512  11.148
18651SOL     OW57791  10.246   8.503   5.733
18651SOL    HW157792  10.328   8.530   5.774
18651SOL    HW257793  10.271   8.435   5.670
18652SOL     OW57794  10.161  12.977  14.577
18652SOL    HW157795  10.226  13.026  14.627
18652SOL    HW257796  10.208  12.899  14.547
18653SOL     OW57797   2.685   1.293   2.752
18653SOL    HW157798   2.617   1.248   2.802
18653SOL    HW257799   2.747   1.224   2.728
18654SOL     OW57800   2.462  10.695   6.994
18654SOL    HW157801   2.373  10.665   6.975
18654SOL    HW257802   2.509  10.615   7.021
18655SOL     OW57803  11.331   1.932  12.475
18655SOL    HW157804  11.417   1.903  12.445
18655SOL    HW257805  11.328   1.908  12.567
18656SOL     OW57806   4.578  13.132   6.353
18656SOL    HW157807   4.638  13.176   6.293
18656SOL    HW257808   4.594  13.173   6.437
18657SOL     OW57809   3.297   9.588   2.721
18657SOL    HW157810   3.355   9.588   2.797
18657SOL    HW257811   3.210   9.602   2.758
18658SOL     OW57812  12.243   2.940   0.275
18658SOL    HW157813  12.165   2.944   0.219
18658SOL    HW257814  12.249   3.027   0.313
18659SOL     OW57815   2.324  13.569  12.436
18659SOL    HW157816   2.241  13.591  12.479
18659SOL    HW257817   2.376  13.648  12.442
18660SOL     OW57818   1.577   7.154   7.464
18660SOL    HW157819   1.527   7.096   7.407
18660SOL    HW257820   1.512   7.211   7.505
18661SOL     OW57821   8.859  13.733  11.139
18661SOL    HW157822   8.777  13.692  11.113
18661SOL    HW257823   8.833  13.819  11.174
18662SOL     OW57824  10.614  13.154   4.224
18662SOL    HW157825  10.615  13.143   4.129
18662SOL    HW257826  10.599  13.248   4.237
18663SOL     OW57827  14.395   7.473   8.201
18663SOL    HW157828  14.482   7.438   8.215
18663SOL    HW257829  14.410   7.560   8.163
18664SOL     OW57830   9.870   7.390   3.246
18664SOL    HW157831   9.905   7.427   3.165
18664SOL    HW257832   9.945   7.387   3.305
18665SOL     OW57833  10.499   8.390  11.466
18665SOL    HW157834  10.431   8.409  11.401
18665SOL    HW257835  10.562   8.461  11.456
18666SOL     OW57836   6.479  10.717  11.714
18666SOL    HW157837   6.439  10.799  11.743
18666SOL    HW257838   6.568  10.720  11.747
18667SOL     OW57839   7.832  12.022   2.871
18667SOL    HW157840   7.896  12.016   2.942
18667SOL    HW257841   7.751  11.989   2.910
18668SOL     OW57842   7.777   9.948  14.389
18668SOL    HW157843   7.688   9.914  14.379
18668SOL    HW257844   7.775   9.993  14.473
18669SOL     OW57845  11.418   5.237   4.342
18669SOL    HW157846  11.402   5.162   4.399
18669SOL    HW257847  11.497   5.214   4.294
18670SOL     OW57848   7.609  13.016   5.202
18670SOL    HW157849   7.593  13.105   5.232
18670SOL    HW257850   7.525  12.971   5.213
18671SOL     OW57851   9.058   5.119   8.956
18671SOL    HW157852   9.140   5.087   8.994
18671SOL    HW257853   9.084   5.196   8.906
18672SOL     OW57854   5.706   6.771   0.517
18672SOL    HW157855   5.694   6.807   0.605
18672SOL    HW257856   5.618   6.746   0.490
18673SOL     OW57857   5.681   7.349   1.820
18673SOL    HW157858   5.724   7.435   1.816
18673SOL    HW257859   5.698   7.310   1.735
18674SOL     OW57860   2.102  14.856   9.011
18674SOL    HW157861   2.020   0.017   9.046
18674SOL    HW257862   2.075  14.792   8.945
18675SOL     OW57863   8.719  14.405   8.301
18675SOL    HW157864   8.760  14.479   8.347
18675SOL    HW257865   8.695  14.440   8.215
18676SOL     OW57866   6.998   9.702  14.482
18676SOL    HW157867   6.966   9.627  14.432
18676SOL    HW257868   6.921   9.737  14.526
18677SOL     OW57869  11.725   6.202   1.226
18677SOL    HW157870  11.793   6.157   1.177
18677SOL    HW257871  11.771   6.238   1.302
18678SOL     OW57872  10.477   4.529  11.460
18678SOL    HW157873  10.521   4.607  11.495
18678SOL    HW257874  10.385   4.554  11.456
18679SOL     OW57875  13.312  10.975   9.327
18679SOL    HW157876  13.221  11.000   9.345
18679SOL    HW257877  13.332  11.017   9.243
18680SOL     OW57878   6.209   6.353   4.017
18680SOL    HW157879   6.264   6.296   3.962
18680SOL    HW257880   6.257   6.436   4.020
18681SOL     OW57881  12.582   3.223  11.390
18681SOL    HW157882  12.666   3.179  11.378
18681SOL    HW257883  12.601   3.293  11.453
18682SOL     OW57884  11.182  11.785   8.811
18682SOL    HW157885  11.146  11.787   8.899
18682SOL    HW257886  11.200  11.876   8.790
18683SOL     OW57887   9.730  11.534   1.301
18683SOL    HW157888   9.740  11.490   1.386
18683SOL    HW257889   9.760  11.624   1.317
18684SOL     OW57890  12.400  13.794   0.471
18684SOL    HW157891  12.358  13.790   0.385
18684SOL    HW257892  12.449  13.713   0.478
18685SOL     OW57893  14.800   4.777   3.799
18685SOL    HW157894  14.826   4.744   3.713
18685SOL    HW257895   0.007   4.814   3.836
18686SOL     OW57896   7.582   2.719  11.695
18686SOL    HW157897   7.543   2.667  11.625
18686SOL    HW257898   7.663   2.673  11.717
18687SOL     OW57899  13.957   7.734   5.888
18687SOL    HW157900  13.994   7.752   5.802
18687SOL    HW257901  13.913   7.815   5.913
18688SOL     OW57902  13.680   2.502   3.373
18688SOL    HW157903  13.771   2.520   3.350
18688SOL    HW257904  13.630   2.571   3.331
18689SOL     OW57905   9.266   7.926  10.386
18689SOL    HW157906   9.278   7.984  10.310
18689SOL    HW257907   9.184   7.880  10.368
18690SOL     OW57908   6.167   0.990  13.004
18690SOL    HW157909   6.078   0.977  13.035
18690SOL    HW257910   6.203   1.058  13.062
18691SOL     OW57911   3.516   9.798   3.723
18691SOL    HW157912   3.584   9.747   3.680
18691SOL    HW257913   3.550   9.816   3.810
18692SOL     OW57914   2.791   2.023  10.564
18692SOL    HW157915   2.821   2.095  10.509
18692SOL    HW257916   2.756   2.065  10.642
18693SOL     OW57917  13.601   2.240   1.941
18693SOL    HW157918  13.662   2.184   1.893
18693SOL    HW257919  13.638   2.327   1.934
18694SOL     OW57920   3.048   8.879   4.222
18694SOL    HW157921   3.121   8.839   4.270
18694SOL    HW257922   3.042   8.828   4.141
18695SOL     OW57923   1.708   0.003  10.125
18695SOL    HW157924   1.713   0.094  10.153
18695SOL    HW257925   1.654  14.834  10.192
18696SOL     OW57926   3.808   6.030   5.150
18696SOL    HW157927   3.862   5.996   5.221
18696SOL    HW257928   3.786   5.953   5.098
18697SOL     OW57929   3.078   2.292  14.201
18697SOL    HW157930   3.097   2.358  14.266
18697SOL    HW257931   3.163   2.269  14.164
18698SOL     OW57932  14.584  10.194  11.985
18698SOL    HW157933  14.580  10.100  12.004
18698SOL    HW257934  14.586  10.200  11.890
18699SOL     OW57935  10.271   7.536   1.226
18699SOL    HW157936  10.257   7.609   1.286
18699SOL    HW257937  10.358   7.551   1.189
18700SOL     OW57938   4.343   1.962   7.937
18700SOL    HW157939   4.324   1.908   7.861
18700SOL    HW257940   4.313   2.049   7.913
18701SOL     OW57941  10.779  11.895   1.378
18701SOL    HW157942  10.863  11.941   1.369
18701SOL    HW257943  10.755  11.907   1.470
18702SOL     OW57944   8.850   4.045   8.293
18702SOL    HW157945   8.880   4.124   8.336
18702SOL    HW257946   8.785   4.008   8.353
18703SOL     OW57947   3.888   9.472   9.313
18703SOL    HW157948   3.817   9.453   9.252
18703SOL    HW257949   3.866   9.420   9.391
18704SOL     OW57950   8.774   0.370  12.804
18704SOL    HW157951   8.838   0.384  12.873
18704SOL    HW257952   8.695   0.343  12.850
18705SOL     OW57953   5.320   5.159   2.000
18705SOL    HW157954   5.247   5.182   2.058
18705SOL    HW257955   5.346   5.072   2.029
18706SOL     OW57956   1.764   1.196  14.175
18706SOL    HW157957   1.740   1.270  14.230
18706SOL    HW257958   1.713   1.208  14.095
18707SOL     OW57959  10.289   8.672   1.571
18707SOL    HW157960  10.338   8.596   1.538
18707SOL    HW257961  10.232   8.636   1.639
18708SOL     OW57962  11.635  10.492   6.767
18708SOL    HW157963  11.540  10.480   6.778
18708SOL    HW257964  11.643  10.539   6.684
18709SOL     OW57965   5.682   9.090  11.735
18709SOL    HW157966   5.640   9.128  11.658
18709SOL    HW257967   5.753   9.151  11.756
18710SOL     OW57968  14.540  11.104   4.319
18710SOL    HW157969  14.567  11.193   4.343
18710SOL    HW257970  14.595  11.047   4.372
18711SOL     OW57971   7.012   3.595  12.632
18711SOL    HW157972   7.098   3.586  12.590
18711SOL    HW257973   6.953   3.623  12.562
18712SOL     OW57974   2.296   0.079   9.195
18712SOL    HW157975   2.369   0.062   9.135
18712SOL    HW257976   2.220   0.044   9.150
18713SOL     OW57977   6.410  14.858   0.995
18713SOL    HW157978   6.389  14.765   0.998
18713SOL    HW257979   6.385   0.018   1.081
18714SOL     OW57980  10.650  13.594   8.908
18714SOL    HW157981  10.590  13.668   8.922
18714SOL    HW257982  10.737  13.633   8.917
18715SOL     OW57983  13.038  13.294   5.546
18715SOL    HW157984  13.114  13.352   5.537
18715SOL    HW257985  12.964  13.345   5.513
18716SOL     OW57986  11.104  12.994   1.895
18716SOL    HW157987  11.085  13.031   1.981
18716SOL    HW257988  11.018  12.975   1.857
18717SOL     OW57989   3.553   0.575   9.168
18717SOL    HW157990   3.601   0.495   9.186
18717SOL    HW257991   3.467   0.546   9.136
18718SOL     OW57992  10.574  13.530   6.854
18718SOL    HW157993  10.625  13.555   6.932
18718SOL    HW257994  10.616  13.578   6.782
18719SOL     OW57995   5.034  13.391   9.609
18719SOL    HW157996   5.022  13.467   9.552
18719SOL    HW257997   4.961  13.396   9.672
18720SOL     OW57998  14.760   3.559   2.403
18720SOL    HW157999  14.834   3.520   2.357
18720SOL    HW258000  14.723   3.487   2.455
18721SOL     OW58001   2.921   3.559  14.341
18721SOL    HW158002   2.855   3.623  14.366
18721SOL    HW258003   2.871   3.479  14.322
18722SOL     OW58004  13.824   2.515  10.417
18722SOL    HW158005  13.908   2.559  10.412
18722SOL    HW258006  13.846   2.422  10.423
18723SOL     OW58007  10.187   9.638   0.003
18723SOL    HW158008  10.200   9.544  14.870
18723SOL    HW258009  10.142   9.662  14.796
18724SOL     OW58010  10.475   2.751   7.957
18724SOL    HW158011  10.507   2.816   7.894
18724SOL    HW258012  10.446   2.678   7.903
18725SOL     OW58013   8.701  10.440   5.267
18725SOL    HW158014   8.709  10.488   5.184
18725SOL    HW258015   8.706  10.509   5.334
18726SOL     OW58016   5.838   8.361   0.304
18726SOL    HW158017   5.865   8.450   0.327
18726SOL    HW258018   5.906   8.330   0.244
18727SOL     OW58019   5.824   0.957   0.782
18727SOL    HW158020   5.881   0.930   0.853
18727SOL    HW258021   5.791   0.875   0.744
18728SOL     OW58022  11.199   3.423  10.403
18728SOL    HW158023  11.108   3.414  10.375
18728SOL    HW258024  11.250   3.413  10.322
18729SOL     OW58025   8.923   3.873   6.468
18729SOL    HW158026   8.991   3.893   6.403
18729SOL    HW258027   8.972   3.842   6.544
18730SOL     OW58028   2.054   3.458   5.000
18730SOL    HW158029   2.062   3.384   5.061
18730SOL    HW258030   2.094   3.531   5.046
18731SOL     OW58031   6.592   5.263   8.222
18731SOL    HW158032   6.542   5.264   8.304
18731SOL    HW258033   6.670   5.211   8.242
18732SOL     OW58034   2.311   2.948   2.020
18732SOL    HW158035   2.255   2.919   1.949
18732SOL    HW258036   2.398   2.959   1.980
18733SOL     OW58037  10.743   8.536   4.755
18733SOL    HW158038  10.724   8.442   4.761
18733SOL    HW258039  10.838   8.540   4.744
18734SOL     OW58040  11.317   9.362   8.232
18734SOL    HW158041  11.250   9.327   8.291
18734SOL    HW258042  11.364   9.426   8.285
18735SOL     OW58043   2.770   8.845  14.396
18735SOL    HW158044   2.772   8.786  14.471
18735SOL    HW258045   2.842   8.817  14.340
18736SOL     OW58046   1.295   7.133   9.962
18736SOL    HW158047   1.218   7.111   9.910
18736SOL    HW258048   1.317   7.222   9.935
18737SOL     OW58049   5.975  12.531   3.699
18737SOL    HW158050   5.916  12.517   3.624
18737SOL    HW258051   5.927  12.591   3.756
18738SOL     OW58052   2.709   3.368   6.583
18738SOL    HW158053   2.691   3.349   6.492
18738SOL    HW258054   2.760   3.293   6.614
18739SOL     OW58055   3.487  14.119   1.955
18739SOL    HW158056   3.548  14.191   1.972
18739SOL    HW258057   3.477  14.119   1.860
18740SOL     OW58058   3.074  10.524   5.336
18740SOL    HW158059   3.053  10.430   5.338
18740SOL    HW258060   3.069  10.551   5.428
18741SOL     OW58061   8.841   1.929  10.689
18741SOL    HW158062   8.775   1.933  10.759
18741SOL    HW258063   8.888   2.012  10.695
18742SOL     OW58064   4.340   8.325  11.921
18742SOL    HW158065   4.328   8.412  11.957
18742SOL    HW258066   4.373   8.340  11.832
18743SOL     OW58067   3.069  11.681  12.914
18743SOL    HW158068   3.127  11.690  12.839
18743SOL    HW258069   3.128  11.671  12.989
18744SOL     OW58070   2.455   8.262   7.720
18744SOL    HW158071   2.448   8.286   7.812
18744SOL    HW258072   2.548   8.275   7.698
18745SOL     OW58073  12.818   0.011  13.516
18745SOL    HW158074  12.907  14.849  13.511
18745SOL    HW258075  12.814   0.055  13.600
18746SOL     OW58076   2.485  10.742  14.763
18746SOL    HW158077   2.456  10.813  14.821
18746SOL    HW258078   2.580  10.738  14.776
18747SOL     OW58079  12.756   9.702   3.374
18747SOL    HW158080  12.707   9.622   3.358
18747SOL    HW258081  12.759   9.709   3.470
18748SOL     OW58082   5.233   2.112   6.677
18748SOL    HW158083   5.171   2.049   6.639
18748SOL    HW258084   5.200   2.126   6.766
18749SOL     OW58085   3.332   7.695  14.144
18749SOL    HW158086   3.404   7.643  14.109
18749SOL    HW258087   3.367   7.733  14.224
18750SOL     OW58088  10.813  10.111   5.603
18750SOL    HW158089  10.774  10.163   5.673
18750SOL    HW258090  10.865  10.044   5.648
18751SOL     OW58091  13.356   0.517  11.820
18751SOL    HW158092  13.438   0.555  11.790
18751SOL    HW258093  13.330   0.571  11.895
18752SOL     OW58094   5.427  14.002   0.694
18752SOL    HW158095   5.520  14.024   0.689
18752SOL    HW258096   5.425  13.911   0.724
18753SOL     OW58097   0.164  12.979   1.758
18753SOL    HW158098   0.072  13.004   1.771
18753SOL    HW258099   0.165  12.884   1.770
18754SOL     OW58100   1.201  14.618   2.910
18754SOL    HW158101   1.253  14.681   2.961
18754SOL    HW258102   1.199  14.540   2.965
18755SOL     OW58103   2.787  11.522   8.228
18755SOL    HW158104   2.832  11.522   8.313
18755SOL    HW258105   2.694  11.519   8.250
18756SOL     OW58106  10.716   8.602  11.155
18756SOL    HW158107  10.765   8.565  11.229
18756SOL    HW258108  10.783   8.620  11.089
18757SOL     OW58109  13.622   1.236   6.411
18757SOL    HW158110  13.706   1.241   6.458
18757SOL    HW258111  13.590   1.148   6.429
18758SOL     OW58112   8.936   4.379   7.152
18758SOL    HW158113   8.928   4.305   7.092
18758SOL    HW258114   9.026   4.409   7.141
18759SOL     OW58115   6.014   0.189   8.720
18759SOL    HW158116   6.077   0.225   8.782
18759SOL    HW258117   6.064   0.125   8.669
18760SOL     OW58118   9.751   2.417   9.035
18760SOL    HW158119   9.672   2.443   9.084
18760SOL    HW258120   9.820   2.471   9.072
18761SOL     OW58121   8.406   9.928  12.657
18761SOL    HW158122   8.438  10.016  12.636
18761SOL    HW258123   8.484   9.880  12.683
18762SOL     OW58124   2.744   9.550   7.042
18762SOL    HW158125   2.680   9.612   7.076
18762SOL    HW258126   2.797   9.526   7.119
18763SOL     OW58127   1.157  12.370   4.532
18763SOL    HW158128   1.079  12.406   4.573
18763SOL    HW258129   1.135  12.279   4.512
18764SOL     OW58130  14.007   4.016   7.266
18764SOL    HW158131  13.929   3.980   7.308
18764SOL    HW258132  14.007   4.109   7.290
18765SOL     OW58133  13.839   3.323  13.806
18765SOL    HW158134  13.900   3.370  13.863
18765SOL    HW258135  13.753   3.342  13.841
18766SOL     OW58136  12.856  12.061   1.192
18766SOL    HW158137  12.897  11.981   1.224
18766SOL    HW258138  12.803  12.032   1.117
18767SOL     OW58139   8.246   6.602  10.228
18767SOL    HW158140   8.185   6.673  10.247
18767SOL    HW258141   8.191   6.531  10.195
18768SOL     OW58142  12.658  10.206   9.210
18768SOL    HW158143  12.566  10.234   9.215
18768SOL    HW258144  12.694  10.230   9.295
18769SOL     OW58145   6.213   6.717   1.258
18769SOL    HW158146   6.158   6.790   1.228
18769SOL    HW258147   6.183   6.642   1.207
18770SOL     OW58148  11.203  12.979   3.731
18770SOL    HW158149  11.189  12.975   3.636
18770SOL    HW258150  11.295  13.005   3.740
18771SOL     OW58151   2.005  10.029  14.817
18771SOL    HW158152   2.088  10.045  14.863
18771SOL    HW258153   1.999  10.101  14.753
18772SOL     OW58154  13.391   6.267  14.068
18772SOL    HW158155  13.408   6.261  13.974
18772SOL    HW258156  13.310   6.318  14.074
18773SOL     OW58157   5.726  13.402  11.525
18773SOL    HW158158   5.765  13.488  11.540
18773SOL    HW258159   5.679  13.382  11.607
18774SOL     OW58160   8.149   7.743  13.185
18774SOL    HW158161   8.126   7.754  13.093
18774SOL    HW258162   8.239   7.774  13.192
18775SOL     OW58163  12.384   3.676  11.827
18775SOL    HW158164  12.373   3.688  11.921
18775SOL    HW258165  12.446   3.744  11.801
18776SOL     OW58166  12.325  10.503   8.689
18776SOL    HW158167  12.271  10.538   8.618
18776SOL    HW258168  12.278  10.527   8.769
18777SOL     OW58169  14.158  10.406  10.437
18777SOL    HW158170  14.165  10.420  10.342
18777SOL    HW258171  14.068  10.430  10.458
18778SOL     OW58172   1.484   2.487   2.518
18778SOL    HW158173   1.505   2.408   2.568
18778SOL    HW258174   1.481   2.459   2.427
18779SOL     OW58175  12.493  13.890   2.822
18779SOL    HW158176  12.456  13.803   2.811
18779SOL    HW258177  12.520  13.893   2.915
18780SOL     OW58178   7.711   8.129  13.026
18780SOL    HW158179   7.693   8.097  13.114
18780SOL    HW258180   7.640   8.094  12.973
18781SOL     OW58181   9.028   5.283   8.269
18781SOL    HW158182   8.956   5.220   8.284
18781SOL    HW258183   9.004   5.359   8.321
18782SOL     OW58184   4.014   6.726   8.441
18782SOL    HW158185   3.958   6.650   8.429
18782SOL    HW258186   4.029   6.758   8.352
18783SOL     OW58187  11.956   0.480   9.350
18783SOL    HW158188  12.006   0.561   9.340
18783SOL    HW258189  11.983   0.445   9.435
18784SOL     OW58190   7.714   6.330  13.601
18784SOL    HW158191   7.702   6.421  13.629
18784SOL    HW258192   7.651   6.318  13.531
18785SOL     OW58193   9.126  12.065   1.516
18785SOL    HW158194   9.051  12.089   1.462
18785SOL    HW258195   9.115  12.114   1.597
18786SOL     OW58196   6.129   4.311   2.721
18786SOL    HW158197   6.067   4.384   2.725
18786SOL    HW258198   6.183   4.329   2.644
18787SOL     OW58199   6.988  10.854   8.827
18787SOL    HW158200   6.984  10.834   8.920
18787SOL    HW258201   6.898  10.870   8.802
18788SOL     OW58202   2.214   2.500  12.937
18788SOL    HW158203   2.120   2.517  12.937
18788SOL    HW258204   2.222   2.408  12.912
18789SOL     OW58205   9.064   7.251   6.638
18789SOL    HW158206   9.149   7.286   6.612
18789SOL    HW258207   9.001   7.319   6.613
18790SOL     OW58208  10.225  11.875  11.020
18790SOL    HW158209  10.259  11.963  11.006
18790SOL    HW258210  10.292  11.831  11.072
18791SOL     OW58211  11.156   3.151   9.519
18791SOL    HW158212  11.226   3.115   9.574
18791SOL    HW258213  11.094   3.191   9.581
18792SOL     OW58214  11.064   6.259   8.274
18792SOL    HW158215  11.021   6.293   8.353
18792SOL    HW258216  10.992   6.243   8.213
18793SOL     OW58217  13.887  13.190  12.130
18793SOL    HW158218  13.926  13.153  12.209
18793SOL    HW258219  13.953  13.175  12.062
18794SOL     OW58220  13.674   1.902  14.049
18794SOL    HW158221  13.655   1.979  14.102
18794SOL    HW258222  13.668   1.828  14.110
18795SOL     OW58223  14.027   9.234   6.837
18795SOL    HW158224  14.086   9.292   6.885
18795SOL    HW258225  14.005   9.282   6.758
18796SOL     OW58226   7.073   1.643   7.030
18796SOL    HW158227   7.125   1.606   7.101
18796SOL    HW258228   7.127   1.633   6.952
18797SOL     OW58229   5.663   4.911  13.255
18797SOL    HW158230   5.679   4.850  13.183
18797SOL    HW258231   5.592   4.871  13.305
18798SOL     OW58232   1.229   7.801   9.161
18798SOL    HW158233   1.307   7.763   9.122
18798SOL    HW258234   1.262   7.868   9.221
18799SOL     OW58235   0.014   7.989  14.476
18799SOL    HW158236  14.838   7.951  14.403
18799SOL    HW258237  14.869   8.082  14.472
18800SOL     OW58238  10.425   5.768   7.096
18800SOL    HW158239  10.478   5.741   7.021
18800SOL    HW258240  10.339   5.730   7.078
18801SOL     OW58241   3.820   1.140  10.701
18801SOL    HW158242   3.867   1.069  10.657
18801SOL    HW258243   3.890   1.196  10.736
18802SOL     OW58244   8.878  12.648   9.648
18802SOL    HW158245   8.783  12.654   9.656
18802SOL    HW258246   8.892  12.601   9.565
18803SOL     OW58247   6.817  14.652   7.691
18803SOL    HW158248   6.859  14.666   7.606
18803SOL    HW258249   6.888  14.663   7.755
18804SOL     OW58250  12.380   5.601  12.071
18804SOL    HW158251  12.307   5.596  12.009
18804SOL    HW258252  12.368   5.525  12.128
18805SOL     OW58253  11.740   0.828  10.704
18805SOL    HW158254  11.682   0.821  10.780
18805SOL    HW258255  11.737   0.741  10.664
18806SOL     OW58256  10.321   2.871   6.965
18806SOL    HW158257  10.409   2.906   6.954
18806SOL    HW258258  10.281   2.879   6.878
18807SOL     OW58259   6.906   9.409  11.682
18807SOL    HW158260   6.830   9.426  11.625
18807SOL    HW258261   6.929   9.318  11.665
18808SOL     OW58262   6.428  11.339   1.311
18808SOL    HW158263   6.496  11.366   1.249
18808SOL    HW258264   6.451  11.384   1.392
18809SOL     OW58265   9.724   7.920   3.286
18809SOL    HW158266   9.634   7.898   3.262
18809SOL    HW258267   9.727   7.907   3.381
18810SOL     OW58268  14.567   7.885   1.755
18810SOL    HW158269  14.616   7.803   1.760
18810SOL    HW258270  14.624   7.944   1.705
18811SOL     OW58271   5.853  11.395  11.158
18811SOL    HW158272   5.934  11.357  11.191
18811SOL    HW258273   5.865  11.489  11.168
18812SOL     OW58274  13.707   8.002   1.566
18812SOL    HW158275  13.682   8.024   1.656
18812SOL    HW258276  13.764   8.073   1.539
18813SOL     OW58277   9.405  13.269  13.050
18813SOL    HW158278   9.487  13.227  13.074
18813SOL    HW258279   9.406  13.352  13.097
18814SOL     OW58280  10.995   6.269  12.091
18814SOL    HW158281  11.040   6.260  12.176
18814SOL    HW258282  10.986   6.179  12.060
18815SOL     OW58283   4.752   5.375   4.818
18815SOL    HW158284   4.672   5.322   4.813
18815SOL    HW258285   4.823   5.311   4.816
18816SOL     OW58286   6.728  13.165   1.209
18816SOL    HW158287   6.804  13.120   1.246
18816SOL    HW258288   6.707  13.234   1.272
18817SOL     OW58289  10.512   7.513   9.797
18817SOL    HW158290  10.601   7.514   9.831
18817SOL    HW258291  10.521   7.478   9.709
18818SOL     OW58292   7.526   4.290   8.729
18818SOL    HW158293   7.528   4.340   8.811
18818SOL    HW258294   7.530   4.356   8.661
18819SOL     OW58295   0.690   3.905   3.770
18819SOL    HW158296   0.779   3.917   3.804
18819SOL    HW258297   0.652   3.993   3.772
18820SOL     OW58298   4.410   2.879  10.546
18820SOL    HW158299   4.445   2.914  10.465
18820SOL    HW258300   4.379   2.956  10.594
18821SOL     OW58301  13.843   1.839   7.296
18821SOL    HW158302  13.761   1.796   7.318
18821SOL    HW258303  13.853   1.824   7.202
18822SOL     OW58304  13.856   5.169   8.360
18822SOL    HW158305  13.865   5.249   8.308
18822SOL    HW258306  13.944   5.131   8.362
18823SOL     OW58307   7.565   5.519   5.588
18823SOL    HW158308   7.503   5.508   5.516
18823SOL    HW258309   7.639   5.462   5.564
18824SOL     OW58310  13.064   8.429   0.820
18824SOL    HW158311  13.036   8.435   0.728
18824SOL    HW258312  13.157   8.450   0.818
18825SOL     OW58313  14.768   0.536   7.312
18825SOL    HW158314  14.672   0.528   7.307
18825SOL    HW258315  14.799   0.446   7.322
18826SOL     OW58316   8.757   5.717   4.300
18826SOL    HW158317   8.665   5.729   4.323
18826SOL    HW258318   8.805   5.728   4.382
18827SOL     OW58319  14.163  11.476   7.632
18827SOL    HW158320  14.084  11.499   7.582
18827SOL    HW258321  14.129  11.430   7.709
18828SOL     OW58322   7.899   6.636  13.980
18828SOL    HW158323   7.969   6.615  14.042
18828SOL    HW258324   7.849   6.705  14.022
18829SOL     OW58325   3.099   2.674   7.571
18829SOL    HW158326   3.099   2.651   7.478
18829SOL    HW258327   3.191   2.690   7.592
18830SOL     OW58328   3.289  11.892   9.422
18830SOL    HW158329   3.338  11.909   9.503
18830SOL    HW258330   3.262  11.978   9.391
18831SOL     OW58331   3.420   6.353   2.072
18831SOL    HW158332   3.347   6.384   2.126
18831SOL    HW258333   3.468   6.293   2.129
18832SOL     OW58334   6.286   2.452  11.146
18832SOL    HW158335   6.221   2.381  11.146
18832SOL    HW258336   6.334   2.441  11.063
18833SOL     OW58337  11.177   3.831   1.712
18833SOL    HW158338  11.110   3.804   1.775
18833SOL    HW258339  11.193   3.753   1.660
18834SOL     OW58340   5.020  11.199   1.065
18834SOL    HW158341   4.931  11.173   1.089
18834SOL    HW258342   5.042  11.268   1.129
18835SOL     OW58343   9.618  14.078   3.428
18835SOL    HW158344   9.693  14.123   3.466
18835SOL    HW258345   9.578  14.143   3.370
18836SOL     OW58346  14.098  12.287   9.154
18836SOL    HW158347  14.165  12.225   9.182
18836SOL    HW258348  14.064  12.324   9.236
18837SOL     OW58349   0.194  12.490  10.525
18837SOL    HW158350   0.105  12.505  10.555
18837SOL    HW258351   0.188  12.489  10.430
18838SOL     OW58352  12.523  11.026   6.796
18838SOL    HW158353  12.587  10.991   6.859
18838SOL    HW258354  12.488  10.948   6.752
18839SOL     OW58355   5.201   9.873   8.525
18839SOL    HW158356   5.250   9.942   8.481
18839SOL    HW258357   5.243   9.792   8.498
18840SOL     OW58358   6.206  13.304  14.351
18840SOL    HW158359   6.212  13.337  14.262
18840SOL    HW258360   6.114  13.316  14.375
18841SOL     OW58361   1.912   3.032  13.763
18841SOL    HW158362   1.954   2.951  13.732
18841SOL    HW258363   1.931   3.096  13.695
18842SOL     OW58364   9.613   8.822  10.108
18842SOL    HW158365   9.662   8.766  10.168
18842SOL    HW258366   9.581   8.762  10.040
18843SOL     OW58367  10.181  13.806  13.327
18843SOL    HW158368  10.157  13.773  13.240
18843SOL    HW258369  10.103  13.793  13.380
18844SOL     OW58370  12.462  10.528  11.432
18844SOL    HW158371  12.430  10.479  11.508
18844SOL    HW258372  12.557  10.528  11.442
18845SOL     OW58373   4.352   4.679   2.924
18845SOL    HW158374   4.352   4.607   2.986
18845SOL    HW258375   4.337   4.757   2.977
18846SOL     OW58376   8.892   1.898   8.539
18846SOL    HW158377   8.986   1.892   8.555
18846SOL    HW258378   8.860   1.957   8.607
18847SOL     OW58379  11.953   3.571  14.263
18847SOL    HW158380  11.873   3.567  14.210
18847SOL    HW258381  11.989   3.658  14.246
18848SOL     OW58382  13.663   4.543  11.258
18848SOL    HW158383  13.745   4.561  11.303
18848SOL    HW258384  13.686   4.542  11.165
18849SOL     OW58385   0.904  10.520   3.775
18849SOL    HW158386   0.840  10.457   3.744
18849SOL    HW258387   0.936  10.563   3.695
18850SOL     OW58388   3.723   7.235   8.210
18850SOL    HW158389   3.712   7.214   8.117
18850SOL    HW258390   3.770   7.159   8.246
18851SOL     OW58391  14.060  10.994   5.895
18851SOL    HW158392  13.981  10.975   5.844
18851SOL    HW258393  14.054  10.936   5.971
18852SOL     OW58394   0.805  10.967  12.012
18852SOL    HW158395   0.749  11.044  12.024
18852SOL    HW258396   0.746  10.893  12.028
18853SOL     OW58397   1.422   9.188   6.485
18853SOL    HW158398   1.353   9.231   6.433
18853SOL    HW258399   1.402   9.213   6.575
18854SOL     OW58400   6.648   8.072   7.099
18854SOL    HW158401   6.661   8.159   7.060
18854SOL    HW258402   6.660   8.085   7.193
18855SOL     OW58403  14.614   8.209   4.469
18855SOL    HW158404  14.683   8.200   4.403
18855SOL    HW258405  14.653   8.176   4.550
18856SOL     OW58406   0.106  10.378   3.194
18856SOL    HW158407   0.093  10.337   3.279
18856SOL    HW258408   0.026  10.428   3.179
18857SOL     OW58409   5.963  10.117   6.678
18857SOL    HW158410   5.987  10.191   6.734
18857SOL    HW258411   5.882  10.083   6.716
18858SOL     OW58412   5.500  11.274   3.509
18858SOL    HW158413   5.425  11.271   3.449
18858SOL    HW258414   5.462  11.291   3.595
18859SOL     OW58415   6.602  11.871   9.916
18859SOL    HW158416   6.579  11.778   9.913
18859SOL    HW258417   6.630  11.892   9.827
18860SOL     OW58418   1.783  10.456   6.316
18860SOL    HW158419   1.810  10.488   6.402
18860SOL    HW258420   1.865  10.436   6.271
18861SOL     OW58421  13.691   1.155   2.516
18861SOL    HW158422  13.675   1.087   2.451
18861SOL    HW258423  13.616   1.214   2.509
18862SOL     OW58424   1.264   7.234   0.118
18862SOL    HW158425   1.203   7.163   0.098
18862SOL    HW258426   1.212   7.314   0.103
18863SOL     OW58427  12.598  11.569   9.349
18863SOL    HW158428  12.635  11.600   9.266
18863SOL    HW258429  12.539  11.639   9.376
18864SOL     OW58430   3.659   5.235  13.706
18864SOL    HW158431   3.662   5.164  13.770
18864SOL    HW258432   3.739   5.284  13.721
18865SOL     OW58433   3.279  11.886  10.220
18865SOL    HW158434   3.369  11.913  10.236
18865SOL    HW258435   3.283  11.834  10.140
18866SOL     OW58436  13.267  13.189  12.250
18866SOL    HW158437  13.258  13.184  12.345
18866SOL    HW258438  13.181  13.216  12.218
18867SOL     OW58439   0.773   3.977   4.859
18867SOL    HW158440   0.719   3.939   4.790
18867SOL    HW258441   0.738   3.941   4.940
18868SOL     OW58442  11.199   1.662  14.050
18868SOL    HW158443  11.121   1.621  14.013
18868SOL    HW258444  11.225   1.727  13.984
18869SOL     OW58445   5.957   2.275   7.104
18869SOL    HW158446   6.002   2.233   7.031
18869SOL    HW258447   5.891   2.211   7.131
18870SOL     OW58448  12.369   2.336   1.328
18870SOL    HW158449  12.437   2.270   1.345
18870SOL    HW258450  12.345   2.369   1.414
18871SOL     OW58451  10.394   8.918   9.932
18871SOL    HW158452  10.449   8.934  10.009
18871SOL    HW258453  10.442   8.958   9.860
18872SOL     OW58454  11.042  12.476   2.851
18872SOL    HW158455  11.079  12.540   2.789
18872SOL    HW258456  10.983  12.528   2.905
18873SOL     OW58457   9.485   8.361   6.073
18873SOL    HW158458   9.400   8.323   6.095
18873SOL    HW258459   9.526   8.378   6.158
18874SOL     OW58460  11.742  14.537   7.123
18874SOL    HW158461  11.690  14.614   7.103
18874SOL    HW258462  11.746  14.488   7.040
18875SOL     OW58463  12.400  11.856   6.998
18875SOL    HW158464  12.476  11.892   7.043
18875SOL    HW258465  12.397  11.903   6.915
18876SOL     OW58466   0.072  11.922  11.524
18876SOL    HW158467  14.872  11.914  11.585
18876SOL    HW258468   0.127  11.991  11.561
18877SOL     OW58469   6.564   2.347   6.815
18877SOL    HW158470   6.496   2.334   6.882
18877SOL    HW258471   6.576   2.261   6.776
18878SOL     OW58472   8.826  10.402   8.763
18878SOL    HW158473   8.920  10.399   8.782
18878SOL    HW258474   8.810  10.324   8.709
18879SOL     OW58475  14.322  13.166   0.854
18879SOL    HW158476  14.360  13.253   0.864
18879SOL    HW258477  14.249  13.179   0.794
18880SOL     OW58478   1.469  11.075  10.925
18880SOL    HW158479   1.536  11.128  10.969
18880SOL    HW258480   1.397  11.137  10.907
18881SOL     OW58481  14.175   2.100  13.081
18881SOL    HW158482  14.168   2.194  13.064
18881SOL    HW258483  14.229   2.094  13.160
18882SOL     OW58484   8.864   2.164   0.443
18882SOL    HW158485   8.801   2.231   0.418
18882SOL    HW258486   8.916   2.149   0.364
18883SOL     OW58487   3.862  10.051   4.042
18883SOL    HW158488   3.908  10.020   3.964
18883SOL    HW258489   3.894  10.140   4.055
18884SOL     OW58490  10.050  13.431  14.220
18884SOL    HW158491  10.026  13.368  14.152
18884SOL    HW258492  10.001  13.403  14.297
18885SOL     OW58493   9.612   5.914  14.292
18885SOL    HW158494   9.603   6.009  14.300
18885SOL    HW258495   9.580   5.894  14.203
18886SOL     OW58496   4.115  10.622  13.516
18886SOL    HW158497   4.142  10.654  13.430
18886SOL    HW258498   4.080  10.699  13.561
18887SOL     OW58499   5.745   8.410   9.588
18887SOL    HW158500   5.745   8.314   9.580
18887SOL    HW258501   5.680   8.428   9.657
18888SOL     OW58502  11.172   2.054  11.645
18888SOL    HW158503  11.114   1.993  11.600
18888SOL    HW258504  11.196   2.119  11.578
18889SOL     OW58505   2.532   3.207   2.014
18889SOL    HW158506   2.492   3.283   1.972
18889SOL    HW258507   2.556   3.149   1.942
18890SOL     OW58508  10.012   9.753  14.360
18890SOL    HW158509  10.056   9.684  14.310
18890SOL    HW258510  10.066   9.831  14.344
18891SOL     OW58511   6.052  12.106   0.914
18891SOL    HW158512   6.029  12.016   0.939
18891SOL    HW258513   6.111  12.137   0.982
18892SOL     OW58514   2.267  14.614   9.625
18892SOL    HW158515   2.206  14.594   9.554
18892SOL    HW258516   2.212  14.623   9.703
18893SOL     OW58517   5.757   5.175   9.253
18893SOL    HW158518   5.842   5.134   9.236
18893SOL    HW258519   5.767   5.265   9.224
18894SOL     OW58520  12.007   6.306   9.690
18894SOL    HW158521  12.050   6.366   9.752
18894SOL    HW258522  12.072   6.239   9.672
18895SOL     OW58523  11.745   9.473   1.828
18895SOL    HW158524  11.704   9.555   1.856
18895SOL    HW258525  11.759   9.484   1.734
18896SOL     OW58526   6.600   7.714   2.383
18896SOL    HW158527   6.573   7.627   2.412
18896SOL    HW258528   6.518   7.758   2.357
18897SOL     OW58529   3.740  13.314  13.863
18897SOL    HW158530   3.803  13.263  13.914
18897SOL    HW258531   3.777  13.402  13.861
18898SOL     OW58532   5.437  12.890   5.501
18898SOL    HW158533   5.461  12.867   5.591
18898SOL    HW258534   5.427  12.806   5.456
18899SOL     OW58535  12.298  10.664   5.794
18899SOL    HW158536  12.230  10.618   5.843
18899SOL    HW258537  12.343  10.595   5.745
18900SOL     OW58538   6.022   7.216   6.593
18900SOL    HW158539   6.044   7.124   6.579
18900SOL    HW258540   5.967   7.216   6.672
18901SOL     OW58541  11.243   0.978   2.882
18901SOL    HW158542  11.209   0.980   2.793
18901SOL    HW258543  11.228   0.889   2.913
18902SOL     OW58544   0.971  13.384   4.669
18902SOL    HW158545   0.878  13.363   4.681
18902SOL    HW258546   1.001  13.325   4.601
18903SOL     OW58547  11.633  14.365  10.859
18903SOL    HW158548  11.694  14.427  10.819
18903SOL    HW258549  11.687  14.289  10.881
18904SOL     OW58550  10.102  12.005  14.787
18904SOL    HW158551  10.087  11.999   0.008
18904SOL    HW258552  10.146  12.090  14.775
18905SOL     OW58553  11.248  10.833   2.502
18905SOL    HW158554  11.205  10.770   2.560
18905SOL    HW258555  11.213  10.812   2.415
18906SOL     OW58556   8.042   0.358  11.513
18906SOL    HW158557   8.086   0.356  11.598
18906SOL    HW258558   8.060   0.272  11.474
18907SOL     OW58559   5.039   5.876   5.572
18907SOL    HW158560   5.114   5.822   5.596
18907SOL    HW258561   5.021   5.854   5.480
18908SOL     OW58562   7.305   6.137  10.090
18908SOL    HW158563   7.230   6.190  10.064
18908SOL    HW258564   7.372   6.201  10.115
18909SOL     OW58565   0.789  11.367  13.529
18909SOL    HW158566   0.798  11.455  13.565
18909SOL    HW258567   0.702  11.338  13.559
18910SOL     OW58568  14.334  11.468  12.507
18910SOL    HW158569  14.285  11.402  12.459
18910SOL    HW258570  14.358  11.425  12.589
18911SOL     OW58571  10.641   5.441  10.987
18911SOL    HW158572  10.546   5.454  10.997
18911SOL    HW258573  10.674   5.528  10.964
18912SOL     OW58574   8.612   5.224   0.297
18912SOL    HW158575   8.611   5.316   0.325
18912SOL    HW258576   8.692   5.216   0.245
18913SOL     OW58577   0.116   5.350  12.318
18913SOL    HW158578   0.151   5.285  12.256
18913SOL    HW258579   0.175   5.425  12.309
18914SOL     OW58580   6.816   2.065   3.452
18914SOL    HW158581   6.801   1.970   3.451
18914SOL    HW258582   6.793   2.092   3.541
18915SOL     OW58583   9.119  13.338   8.933
18915SOL    HW158584   9.194  13.372   8.983
18915SOL    HW258585   9.043  13.361   8.986
18916SOL     OW58586   9.482   8.134   6.684
18916SOL    HW158587   9.454   8.156   6.773
18916SOL    HW258588   9.526   8.049   6.694
18917SOL     OW58589  10.225  11.819   2.380
18917SOL    HW158590  10.248  11.895   2.326
18917SOL    HW258591  10.129  11.817   2.378
18918SOL     OW58592   8.162   6.340   6.419
18918SOL    HW158593   8.129   6.399   6.352
18918SOL    HW258594   8.088   6.281   6.439
18919SOL     OW58595  14.448   3.344   9.288
18919SOL    HW158596  14.377   3.300   9.336
18919SOL    HW258597  14.523   3.338   9.347
18920SOL     OW58598  12.542  13.550   8.215
18920SOL    HW158599  12.527  13.578   8.306
18920SOL    HW258600  12.564  13.631   8.169
18921SOL     OW58601   2.691   0.019   9.673
18921SOL    HW158602   2.672   0.021   9.767
18921SOL    HW258603   2.626  14.832   9.637
18922SOL     OW58604  12.877  10.329  11.769
18922SOL    HW158605  12.892  10.396  11.701
18922SOL    HW258606  12.956  10.275  11.767
18923SOL     OW58607  10.355   0.869  14.405
18923SOL    HW158608  10.307   0.920  14.340
18923SOL    HW258609  10.357   0.780  14.369
18924SOL     OW58610   3.925   7.208   3.700
18924SOL    HW158611   3.992   7.149   3.735
18924SOL    HW258612   3.863   7.150   3.655
18925SOL     OW58613   6.694   9.768   8.426
18925SOL    HW158614   6.623   9.832   8.425
18925SOL    HW258615   6.772   9.820   8.447
18926SOL     OW58616  14.732   4.286   9.027
18926SOL    HW158617  14.748   4.219   8.960
18926SOL    HW258618  14.771   4.249   9.107
18927SOL     OW58619   6.243   6.715   1.855
18927SOL    HW158620   6.192   6.670   1.788
18927SOL    HW258621   6.196   6.699   1.936
18928SOL     OW58622  10.717  13.550  11.264
18928SOL    HW158623  10.795  13.573  11.215
18928SOL    HW258624  10.676  13.635  11.285
18929SOL     OW58625   3.460  14.486   3.547
18929SOL    HW158626   3.437  14.579   3.540
18929SOL    HW258627   3.415  14.456   3.626
18930SOL     OW58628   3.737   6.041   7.486
18930SOL    HW158629   3.670   6.034   7.417
18930SOL    HW258630   3.712   5.974   7.550
18931SOL     OW58631  13.612   0.462   1.145
18931SOL    HW158632  13.609   0.465   1.049
18931SOL    HW258633  13.679   0.526   1.169
18932SOL     OW58634  12.518  13.238   2.616
18932SOL    HW158635  12.479  13.178   2.552
18932SOL    HW258636  12.607  13.252   2.584
18933SOL     OW58637   8.854  12.228   0.751
18933SOL    HW158638   8.879  12.260   0.664
18933SOL    HW258639   8.763  12.255   0.762
18934SOL     OW58640   8.489   0.520   6.858
18934SOL    HW158641   8.430   0.573   6.912
18934SOL    HW258642   8.482   0.558   6.771
18935SOL     OW58643   6.831   4.422  12.137
18935SOL    HW158644   6.798   4.478  12.208
18935SOL    HW258645   6.892   4.478  12.089
18936SOL     OW58646   5.331   4.875   2.128
18936SOL    HW158647   5.336   4.884   2.223
18936SOL    HW258648   5.413   4.832   2.103
18937SOL     OW58649   5.753  11.027   9.105
18937SOL    HW158650   5.783  11.094   9.167
18937SOL    HW258651   5.685  10.979   9.152
18938SOL     OW58652   3.011   7.392  10.849
18938SOL    HW158653   2.982   7.459  10.787
18938SOL    HW258654   3.009   7.311  10.799
18939SOL     OW58655   4.468  12.367   4.839
18939SOL    HW158656   4.416  12.309   4.894
18939SOL    HW258657   4.457  12.454   4.878
18940SOL     OW58658   4.150  12.559  12.713
18940SOL    HW158659   4.150  12.647  12.675
18940SOL    HW258660   4.095  12.507  12.654
18941SOL     OW58661   0.676   0.072   7.525
18941SOL    HW158662   0.608   0.014   7.558
18941SOL    HW258663   0.748   0.063   7.588
18942SOL     OW58664   0.140   3.446   2.556
18942SOL    HW158665   0.157   3.510   2.488
18942SOL    HW258666   0.166   3.489   2.637
18943SOL     OW58667   4.106  11.862   5.108
18943SOL    HW158668   4.192  11.906   5.107
18943SOL    HW258669   4.128  11.769   5.113
18944SOL     OW58670   2.630   8.247   9.877
18944SOL    HW158671   2.573   8.217   9.806
18944SOL    HW258672   2.683   8.171   9.900
18945SOL     OW58673  13.194   9.580   2.395
18945SOL    HW158674  13.115   9.622   2.362
18945SOL    HW258675  13.202   9.499   2.345
18946SOL     OW58676   2.292  14.063   5.896
18946SOL    HW158677   2.319  14.117   5.822
18946SOL    HW258678   2.236  14.120   5.948
18947SOL     OW58679   0.614   3.649   9.852
18947SOL    HW158680   0.612   3.745   9.852
18947SOL    HW258681   0.574   3.624   9.935
18948SOL     OW58682   6.153   5.803  11.833
18948SOL    HW158683   6.099   5.879  11.812
18948SOL    HW258684   6.186   5.773  11.748
18949SOL     OW58685   2.392   9.222   2.939
18949SOL    HW158686   2.431   9.258   2.859
18949SOL    HW258687   2.416   9.129   2.938
18950SOL     OW58688  11.973   9.240   7.633
18950SOL    HW158689  12.025   9.162   7.647
18950SOL    HW258690  12.032   9.300   7.586
18951SOL     OW58691  13.517   3.825   3.910
18951SOL    HW158692  13.439   3.836   3.965
18951SOL    HW258693  13.547   3.915   3.894
18952SOL     OW58694   6.204   6.785   2.245
18952SOL    HW158695   6.134   6.737   2.201
18952SOL    HW258696   6.285   6.750   2.207
18953SOL     OW58697   9.921   5.501  10.095
18953SOL    HW158698   9.852   5.470  10.153
18953SOL    HW258699   9.876   5.557  10.032
18954SOL     OW58700   3.512   2.158   5.738
18954SOL    HW158701   3.455   2.096   5.782
18954SOL    HW258702   3.468   2.176   5.654
18955SOL     OW58703  14.210   8.835   1.055
18955SOL    HW158704  14.234   8.780   1.130
18955SOL    HW258705  14.158   8.906   1.092
18956SOL     OW58706   1.587   1.643  12.766
18956SOL    HW158707   1.613   1.678  12.681
18956SOL    HW258708   1.492   1.651  12.767
18957SOL     OW58709   0.043  12.031   1.348
18957SOL    HW158710  14.871  11.972   1.287
18957SOL    HW258711  14.859  12.107   1.355
18958SOL     OW58712   7.757  10.667   2.431
18958SOL    HW158713   7.851  10.682   2.441
18958SOL    HW258714   7.718  10.704   2.510
18959SOL     OW58715   0.658   9.135  14.174
18959SOL    HW158716   0.753   9.119  14.177
18959SOL    HW258717   0.638   9.175  14.258
18960SOL     OW58718   4.727   0.526   5.749
18960SOL    HW158719   4.812   0.557   5.716
18960SOL    HW258720   4.690   0.601   5.796
18961SOL     OW58721   7.193   6.767   7.248
18961SOL    HW158722   7.185   6.844   7.191
18961SOL    HW258723   7.177   6.693   7.190
18962SOL     OW58724   6.145   0.150  12.603
18962SOL    HW158725   6.162   0.184  12.691
18962SOL    HW258726   6.071   0.202  12.571
18963SOL     OW58727   1.998   2.805  11.322
18963SOL    HW158728   2.021   2.822  11.413
18963SOL    HW258729   1.977   2.712  11.320
18964SOL     OW58730  12.714   6.771  11.545
18964SOL    HW158731  12.777   6.843  11.557
18964SOL    HW258732  12.767   6.692  11.553
18965SOL     OW58733  13.980   2.722   5.084
18965SOL    HW158734  14.033   2.646   5.107
18965SOL    HW258735  14.036   2.774   5.027
18966SOL     OW58736   4.018   2.741   6.151
18966SOL    HW158737   4.107   2.746   6.117
18966SOL    HW258738   4.026   2.698   6.236
18967SOL     OW58739  13.325   0.643  12.056
18967SOL    HW158740  13.338   0.731  12.020
18967SOL    HW258741  13.250   0.653  12.115
18968SOL     OW58742  11.848   3.560   8.111
18968SOL    HW158743  11.817   3.586   8.025
18968SOL    HW258744  11.943   3.569   8.106
18969SOL     OW58745  14.423   6.881   3.659
18969SOL    HW158746  14.468   6.802   3.629
18969SOL    HW258747  14.445   6.948   3.594
18970SOL     OW58748   0.905   4.173   2.148
18970SOL    HW158749   0.856   4.254   2.137
18970SOL    HW258750   0.897   4.128   2.064
18971SOL     OW58751   6.836   4.052  12.891
18971SOL    HW158752   6.763   4.093  12.844
18971SOL    HW258753   6.829   3.959  12.871
18972SOL     OW58754   4.846   0.797   5.093
18972SOL    HW158755   4.782   0.769   5.158
18972SOL    HW258756   4.799   0.795   5.010
18973SOL     OW58757   3.292  11.505   1.246
18973SOL    HW158758   3.272  11.442   1.315
18973SOL    HW258759   3.282  11.455   1.165
18974SOL     OW58760   6.941  14.072   9.946
18974SOL    HW158761   6.942  14.098  10.038
18974SOL    HW258762   6.861  14.020   9.937
18975SOL     OW58763   8.752  14.077   2.287
18975SOL    HW158764   8.836  14.041   2.258
18975SOL    HW258765   8.686  14.027   2.239
18976SOL     OW58766   9.388   8.808   9.391
18976SOL    HW158767   9.370   8.863   9.467
18976SOL    HW258768   9.308   8.755   9.380
18977SOL     OW58769   9.022   6.942   3.833
18977SOL    HW158770   9.018   6.847   3.818
18977SOL    HW258771   8.930   6.969   3.834
18978SOL     OW58772   2.286   1.250  10.358
18978SOL    HW158773   2.231   1.175  10.338
18978SOL    HW258774   2.226   1.324  10.366
18979SOL     OW58775   6.663   8.554  10.728
18979SOL    HW158776   6.617   8.540  10.645
18979SOL    HW258777   6.607   8.615  10.777
18980SOL     OW58778  13.183  11.243   0.873
18980SOL    HW158779  13.182  11.187   0.951
18980SOL    HW258780  13.269  11.285   0.875
18981SOL     OW58781   7.695   0.651   7.210
18981SOL    HW158782   7.633   0.674   7.141
18981SOL    HW258783   7.779   0.640   7.165
18982SOL     OW58784  10.333   0.523   3.743
18982SOL    HW158785  10.362   0.434   3.726
18982SOL    HW258786  10.297   0.554   3.660
18983SOL     OW58787   9.507  11.938   2.407
18983SOL    HW158788   9.449  11.863   2.419
18983SOL    HW258789   9.524  11.942   2.313
18984SOL     OW58790   4.641   3.144   9.895
18984SOL    HW158791   4.667   3.234   9.913
18984SOL    HW258792   4.628   3.142   9.800
18985SOL     OW58793  12.988  10.810  10.422
18985SOL    HW158794  12.933  10.733  10.412
18985SOL    HW258795  13.078  10.778  10.409
18986SOL     OW58796  11.668   9.421   4.558
18986SOL    HW158797  11.587   9.427   4.608
18986SOL    HW258798  11.701   9.511   4.555
18987SOL     OW58799  10.158   8.766  12.244
18987SOL    HW158800  10.106   8.686  12.252
18987SOL    HW258801  10.126   8.823  12.313
18988SOL     OW58802  12.777  11.003   5.846
18988SOL    HW158803  12.687  10.969   5.840
18988SOL    HW258804  12.803  11.018   5.755
18989SOL     OW58805   3.124   4.712   4.315
18989SOL    HW158806   3.085   4.790   4.277
18989SOL    HW258807   3.197   4.690   4.258
18990SOL     OW58808   7.465   2.169  12.400
18990SOL    HW158809   7.458   2.099  12.334
18990SOL    HW258810   7.376   2.178  12.434
18991SOL     OW58811   9.824   8.316   4.181
18991SOL    HW158812   9.913   8.345   4.200
18991SOL    HW258813   9.821   8.310   4.085
18992SOL     OW58814  12.255   0.231   0.870
18992SOL    HW158815  12.277   0.145   0.908
18992SOL    HW258816  12.332   0.285   0.887
18993SOL     OW58817  12.160   6.708  12.454
18993SOL    HW158818  12.144   6.695  12.361
18993SOL    HW258819  12.219   6.636  12.478
18994SOL     OW58820   3.448   3.929   7.940
18994SOL    HW158821   3.520   3.982   7.906
18994SOL    HW258822   3.391   3.916   7.865
18995SOL     OW58823  10.738   4.384   9.773
18995SOL    HW158824  10.823   4.345   9.755
18995SOL    HW258825  10.720   4.360   9.864
18996SOL     OW58826   6.385   8.894   8.336
18996SOL    HW158827   6.312   8.858   8.387
18996SOL    HW258828   6.379   8.988   8.348
18997SOL     OW58829   5.641   0.524  13.272
18997SOL    HW158830   5.604   0.444  13.234
18997SOL    HW258831   5.723   0.496  13.312
18998SOL     OW58832   1.285   9.581  13.538
18998SOL    HW158833   1.285   9.542  13.451
18998SOL    HW258834   1.372   9.561  13.574
18999SOL     OW58835  11.777   1.368   1.124
18999SOL    HW158836  11.815   1.455   1.111
18999SOL    HW258837  11.789   1.324   1.039
19000SOL     OW58838   7.841  11.939   6.642
19000SOL    HW158839   7.883  11.873   6.697
19000SOL    HW258840   7.804  12.001   6.705
19001SOL     OW58841   2.162  10.903  10.767
19001SOL    HW158842   2.227  10.896  10.696
19001SOL    HW258843   2.089  10.950  10.727
19002SOL     OW58844   6.482  14.068  10.873
19002SOL    HW158845   6.411  14.086  10.811
19002SOL    HW258846   6.528  14.151  10.881
19003SOL     OW58847  12.579  10.538   8.789
19003SOL    HW158848  12.494  10.505   8.758
19003SOL    HW258849  12.628  10.460   8.812
19004SOL     OW58850  10.904  14.290   9.496
19004SOL    HW158851  10.982  14.336   9.465
19004SOL    HW258852  10.850  14.280   9.418
19005SOL     OW58853  12.394   5.235   7.119
19005SOL    HW158854  12.307   5.268   7.097
19005SOL    HW258855  12.449   5.260   7.044
19006SOL     OW58856   9.756   1.295   7.727
19006SOL    HW158857   9.809   1.286   7.807
19006SOL    HW258858   9.678   1.344   7.755
19007SOL     OW58859   5.021  11.434  10.864
19007SOL    HW158860   4.966  11.358  10.882
19007SOL    HW258861   5.110  11.402  10.873
19008SOL     OW58862   1.086   7.047  14.629
19008SOL    HW158863   1.058   7.100  14.555
19008SOL    HW258864   1.005   7.020  14.672
19009SOL     OW58865  11.405   3.168  13.055
19009SOL    HW158866  11.472   3.236  13.066
19009SOL    HW258867  11.336   3.211  13.003
19010SOL     OW58868   9.495   9.402   6.441
19010SOL    HW158869   9.571   9.357   6.404
19010SOL    HW258870   9.477   9.473   6.379
19011SOL     OW58871   7.603   4.874   8.446
19011SOL    HW158872   7.662   4.875   8.371
19011SOL    HW258873   7.596   4.782   8.471
19012SOL     OW58874   6.398  10.884   9.739
19012SOL    HW158875   6.477  10.843   9.703
19012SOL    HW258876   6.388  10.844   9.825
19013SOL     OW58877   0.222  10.997   5.455
19013SOL    HW158878   0.301  11.024   5.409
19013SOL    HW258879   0.199  11.073   5.509
19014SOL     OW58880   4.391   6.291   7.065
19014SOL    HW158881   4.426   6.365   7.116
19014SOL    HW258882   4.306   6.323   7.033
19015SOL     OW58883   9.234   1.913  10.618
19015SOL    HW158884   9.214   2.005  10.637
19015SOL    HW258885   9.171   1.888  10.551
19016SOL     OW58886   9.752   6.540   4.733
19016SOL    HW158887   9.682   6.485   4.769
19016SOL    HW258888   9.785   6.589   4.808
19017SOL     OW58889   5.182  14.195  10.737
19017SOL    HW158890   5.147  14.123  10.789
19017SOL    HW258891   5.270  14.210  10.772
19018SOL     OW58892   4.692   2.213   1.603
19018SOL    HW158893   4.711   2.129   1.644
19018SOL    HW258894   4.655   2.190   1.518
19019SOL     OW58895  13.100   1.501   6.772
19019SOL    HW158896  13.169   1.476   6.710
19019SOL    HW258897  13.141   1.566   6.829
19020SOL     OW58898   8.309   2.908   9.406
19020SOL    HW158899   8.239   2.942   9.350
19020SOL    HW258900   8.298   2.954   9.489
19021SOL     OW58901   2.287  14.599   6.041
19021SOL    HW158902   2.319  14.548   5.966
19021SOL    HW258903   2.282  14.689   6.008
19022SOL     OW58904  11.220  14.345   7.072
19022SOL    HW158905  11.137  14.366   7.114
19022SOL    HW258906  11.280  14.412   7.102
19023SOL     OW58907   3.677  13.013   8.291
19023SOL    HW158908   3.714  13.076   8.352
19023SOL    HW258909   3.643  13.066   8.219
19024SOL     OW58910   8.191   2.354   8.246
19024SOL    HW158911   8.112   2.357   8.191
19024SOL    HW258912   8.226   2.265   8.232
19025SOL     OW58913   6.545  10.303  10.581
19025SOL    HW158914   6.623  10.282  10.530
19025SOL    HW258915   6.558  10.260  10.665
19026SOL     OW58916   8.141  13.812   4.009
19026SOL    HW158917   8.066  13.869   3.993
19026SOL    HW258918   8.125  13.776   4.097
19027SOL     OW58919   2.563   7.827   4.299
19027SOL    HW158920   2.548   7.918   4.324
19027SOL    HW258921   2.548   7.777   4.379
19028SOL     OW58922  11.968  10.649   0.220
19028SOL    HW158923  11.973  10.582   0.288
19028SOL    HW258924  11.993  10.604   0.140
19029SOL     OW58925   7.164   3.009  14.412
19029SOL    HW158926   7.190   3.011  14.504
19029SOL    HW258927   7.075   3.046  14.412
19030SOL     OW58928  14.616   7.658  11.798
19030SOL    HW158929  14.576   7.572  11.803
19030SOL    HW258930  14.554   7.711  11.748
19031SOL     OW58931   0.190   8.669  10.474
19031SOL    HW158932   0.099   8.657  10.500
19031SOL    HW258933   0.193   8.640  10.383
19032SOL     OW58934  10.713   0.020   9.825
19032SOL    HW158935  10.695   0.019   9.731
19032SOL    HW258936  10.628   0.007   9.866
19033SOL     OW58937   3.919   7.199   6.747
19033SOL    HW158938   3.966   7.145   6.684
19033SOL    HW258939   3.977   7.274   6.762
19034SOL     OW58940   1.218   6.465   9.228
19034SOL    HW158941   1.261   6.462   9.143
19034SOL    HW258942   1.288   6.452   9.292
19035SOL     OW58943   9.826  12.360   5.472
19035SOL    HW158944   9.878  12.412   5.411
19035SOL    HW258945   9.868  12.274   5.472
19036SOL     OW58946   1.129  14.809   4.728
19036SOL    HW158947   1.088  14.725   4.708
19036SOL    HW258948   1.057  14.870   4.738
19037SOL     OW58949  11.509  12.865   3.374
19037SOL    HW158950  11.507  12.808   3.452
19037SOL    HW258951  11.559  12.942   3.402
19038SOL     OW58952   1.257   2.402   9.489
19038SOL    HW158953   1.232   2.415   9.397
19038SOL    HW258954   1.184   2.438   9.539
19039SOL     OW58955   2.385  11.667  12.440
19039SOL    HW158956   2.357  11.757  12.422
19039SOL    HW258957   2.459  11.652  12.382
19040SOL     OW58958   0.089   5.933   8.533
19040SOL    HW158959   0.131   5.878   8.467
19040SOL    HW258960   0.150   5.933   8.606
19041SOL     OW58961  13.414  11.356   8.363
19041SOL    HW158962  13.455  11.271   8.378
19041SOL    HW258963  13.326  11.347   8.398
19042SOL     OW58964   3.104   2.419   3.436
19042SOL    HW158965   3.029   2.438   3.379
19042SOL    HW258966   3.132   2.331   3.410
19043SOL     OW58967   3.548   0.845   0.708
19043SOL    HW158968   3.498   0.912   0.661
19043SOL    HW258969   3.639   0.876   0.702
19044SOL     OW58970  14.444   5.420   7.360
19044SOL    HW158971  14.501   5.495   7.342
19044SOL    HW258972  14.504   5.348   7.376
19045SOL     OW58973   1.146  11.935  13.900
19045SOL    HW158974   1.134  11.926  13.994
19045SOL    HW258975   1.057  11.937  13.864
19046SOL     OW58976  14.462  13.571   3.158
19046SOL    HW158977  14.498  13.611   3.079
19046SOL    HW258978  14.368  13.587   3.152
19047SOL     OW58979   4.779   1.429   1.420
19047SOL    HW158980   4.849   1.494   1.410
19047SOL    HW258981   4.698   1.477   1.401
19048SOL     OW58982  12.082  12.785   3.069
19048SOL    HW158983  12.009  12.834   3.106
19048SOL    HW258984  12.069  12.695   3.099
19049SOL     OW58985   7.038   1.319   4.981
19049SOL    HW158986   7.073   1.390   4.926
19049SOL    HW258987   6.997   1.258   4.920
19050SOL     OW58988  14.811  12.544  10.591
19050SOL    HW158989  14.740  12.482  10.611
19050SOL    HW258990  14.776  12.597  10.520
19051SOL     OW58991   0.305   9.915  13.342
19051SOL    HW158992   0.241   9.973  13.385
19051SOL    HW258993   0.364   9.888  13.412
19052SOL     OW58994  12.167   7.772  11.084
19052SOL    HW158995  12.169   7.765  11.179
19052SOL    HW258996  12.076   7.753  11.061
19053SOL     OW58997   4.509   9.413   3.542
19053SOL    HW158998   4.573   9.350   3.509
19053SOL    HW258999   4.532   9.424   3.634
19054SOL     OW59000  11.261  11.746   2.960
19054SOL    HW159001  11.334  11.686   2.973
19054SOL    HW259002  11.238  11.738   2.868
19055SOL     OW59003  10.242   0.539   6.837
19055SOL    HW159004  10.191   0.466   6.875
19055SOL    HW259005  10.333   0.511   6.844
19056SOL     OW59006   5.607  12.349  13.669
19056SOL    HW159007   5.577  12.333  13.579
19056SOL    HW259008   5.527  12.346  13.721
19057SOL     OW59009   6.433  14.153   6.061
19057SOL    HW159010   6.342  14.171   6.042
19057SOL    HW259011   6.481  14.228   6.025
19058SOL     OW59012   3.880   9.197  14.607
19058SOL    HW159013   3.894   9.143  14.529
19058SOL    HW259014   3.886   9.287  14.575
19059SOL     OW59015   0.780   8.661   5.455
19059SOL    HW159016   0.805   8.676   5.364
19059SOL    HW259017   0.740   8.743   5.483
19060SOL     OW59018  14.371  12.290  11.824
19060SOL    HW159019  14.286  12.257  11.853
19060SOL    HW259020  14.420  12.306  11.904
19061SOL     OW59021  12.077   8.103  14.096
19061SOL    HW159022  12.147   8.060  14.046
19061SOL    HW259023  12.042   8.168  14.035
19062SOL     OW59024  14.747  11.842   5.372
19062SOL    HW159025  14.717  11.767   5.321
19062SOL    HW259026  14.690  11.843   5.449
19063SOL     OW59027   2.846   2.791  11.126
19063SOL    HW159028   2.927   2.836  11.103
19063SOL    HW259029   2.821   2.827  11.211
19064SOL     OW59030   9.863   7.856   0.000
19064SOL    HW159031   9.893   7.947  14.866
19064SOL    HW259032   9.915   7.819   0.072
19065SOL     OW59033  12.790   8.790   1.416
19065SOL    HW159034  12.808   8.718   1.476
19065SOL    HW259035  12.781   8.867   1.472
19066SOL     OW59036   8.131   9.532   1.639
19066SOL    HW159037   8.067   9.596   1.667
19066SOL    HW259038   8.100   9.501   1.554
19067SOL     OW59039   7.759  14.274  12.902
19067SOL    HW159040   7.722  14.239  12.983
19067SOL    HW259041   7.809  14.351  12.930
19068SOL     OW59042  10.473  14.405  13.250
19068SOL    HW159043  10.404  14.351  13.287
19068SOL    HW259044  10.431  14.450  13.176
19069SOL     OW59045   9.366  12.754  10.100
19069SOL    HW159046   9.281  12.723  10.069
19069SOL    HW259047   9.394  12.687  10.163
19070SOL     OW59048  10.400  12.355  14.222
19070SOL    HW159049  10.408  12.260  14.237
19070SOL    HW259050  10.488  12.382  14.197
19071SOL     OW59051  11.415   2.455   0.360
19071SOL    HW159052  11.331   2.491   0.386
19071SOL    HW259053  11.395   2.401   0.283
19072SOL     OW59054   1.187   8.060   7.979
19072SOL    HW159055   1.244   8.003   7.928
19072SOL    HW259056   1.130   8.101   7.914
19073SOL     OW59057  10.936   5.027  12.120
19073SOL    HW159058  10.906   5.024  12.029
19073SOL    HW259059  10.864   5.068  12.168
19074SOL     OW59060   3.449   3.867  13.027
19074SOL    HW159061   3.443   3.939  12.965
19074SOL    HW259062   3.362   3.863  13.067
19075SOL     OW59063   8.025   4.410  14.027
19075SOL    HW159064   8.108   4.452  14.051
19075SOL    HW259065   8.003   4.355  14.102
19076SOL     OW59066   3.444  10.249  12.723
19076SOL    HW159067   3.521  10.202  12.692
19076SOL    HW259068   3.376  10.230  12.659
19077SOL     OW59069  10.764   7.072   9.561
19077SOL    HW159070  10.810   7.033   9.487
19077SOL    HW259071  10.671   7.065   9.537
19078SOL     OW59072   5.139   6.218   7.546
19078SOL    HW159073   5.160   6.298   7.594
19078SOL    HW259074   5.178   6.230   7.460
19079SOL     OW59075   9.658  14.062   7.242
19079SOL    HW159076   9.587  14.050   7.179
19079SOL    HW259077   9.645  14.150   7.276
19080SOL     OW59078   8.223   4.853   4.982
19080SOL    HW159079   8.298   4.869   4.924
19080SOL    HW259080   8.253   4.786   5.043
19081SOL     OW59081  14.292  14.149   7.318
19081SOL    HW159082  14.328  14.218   7.375
19081SOL    HW259083  14.254  14.197   7.245
19082SOL     OW59084   5.749   3.593   4.061
19082SOL    HW159085   5.674   3.567   4.007
19082SOL    HW259086   5.759   3.687   4.045
19083SOL     OW59087  10.504   0.536   0.904
19083SOL    HW159088  10.520   0.455   0.857
19083SOL    HW259089  10.555   0.527   0.985
19084SOL     OW59090  11.926   7.531   5.086
19084SOL    HW159091  12.018   7.531   5.059
19084SOL    HW259092  11.879   7.570   5.012
19085SOL     OW59093  12.622   8.963  10.660
19085SOL    HW159094  12.664   8.991  10.742
19085SOL    HW259095  12.593   8.873  10.678
19086SOL     OW59096   4.173   6.894  13.975
19086SOL    HW159097   4.225   6.962  13.932
19086SOL    HW259098   4.200   6.898  14.067
19087SOL     OW59099   8.132   6.098   7.519
19087SOL    HW159100   8.199   6.047   7.563
19087SOL    HW259101   8.113   6.170   7.579
19088SOL     OW59102   4.621  14.571   1.727
19088SOL    HW159103   4.584  14.486   1.751
19088SOL    HW259104   4.612  14.624   1.806
19089SOL     OW59105   1.354   3.764   7.637
19089SOL    HW159106   1.415   3.692   7.653
19089SOL    HW259107   1.408   3.835   7.602
19090SOL     OW59108   6.140   0.220   6.192
19090SOL    HW159109   6.233   0.243   6.191
19090SOL    HW259110   6.116   0.210   6.100
19091SOL     OW59111  14.448   8.778  12.349
19091SOL    HW159112  14.514   8.712  12.328
19091SOL    HW259113  14.475   8.856  12.301
19092SOL     OW59114   3.928  11.824   6.121
19092SOL    HW159115   3.948  11.879   6.197
19092SOL    HW259116   4.003  11.837   6.063
19093SOL     OW59117   2.022   8.887   2.138
19093SOL    HW159118   1.933   8.915   2.117
19093SOL    HW259119   2.044   8.823   2.069
19094SOL     OW59120   0.822  13.012   4.799
19094SOL    HW159121   0.795  12.976   4.714
19094SOL    HW259122   0.743  13.011   4.852
19095SOL     OW59123  11.684   2.560  14.605
19095SOL    HW159124  11.693   2.478  14.557
19095SOL    HW259125  11.591   2.565  14.627
19096SOL     OW59126   3.208   7.452   1.577
19096SOL    HW159127   3.156   7.380   1.612
19096SOL    HW259128   3.265   7.411   1.512
19097SOL     OW59129   7.786  10.754   4.688
19097SOL    HW159130   7.774  10.721   4.777
19097SOL    HW259131   7.857  10.817   4.695
19098SOL     OW59132   4.790   4.797   8.192
19098SOL    HW159133   4.853   4.740   8.236
19098SOL    HW259134   4.821   4.886   8.211
19099SOL     OW59135   7.993   9.894  11.176
19099SOL    HW159136   8.038   9.946  11.242
19099SOL    HW259137   7.909   9.872  11.215
19100SOL     OW59138   5.709  12.672  12.506
19100SOL    HW159139   5.715  12.636  12.594
19100SOL    HW259140   5.737  12.600  12.449
19101SOL     OW59141   4.842  12.592   5.558
19101SOL    HW159142   4.780  12.536   5.604
19101SOL    HW259143   4.889  12.533   5.498
19102SOL     OW59144  11.911  13.838  12.023
19102SOL    HW159145  11.834  13.879  12.063
19102SOL    HW259146  11.917  13.878  11.937
19103SOL     OW59147   6.984  11.386  13.267
19103SOL    HW159148   6.980  11.294  13.242
19103SOL    HW259149   6.986  11.386  13.362
19104SOL     OW59150  14.410   3.271   2.740
19104SOL    HW159151  14.383   3.182   2.760
19104SOL    HW259152  14.454   3.302   2.819
19105SOL     OW59153  10.990   0.627   1.387
19105SOL    HW159154  11.008   0.547   1.339
19105SOL    HW259155  11.008   0.697   1.324
19106SOL     OW59156   3.602   7.998   0.685
19106SOL    HW159157   3.670   7.973   0.622
19106SOL    HW259158   3.625   8.086   0.713
19107SOL     OW59159   3.560   5.318   3.021
19107SOL    HW159160   3.470   5.350   3.021
19107SOL    HW259161   3.562   5.253   3.092
19108SOL     OW59162  14.498  10.774   6.685
19108SOL    HW159163  14.540  10.822   6.614
19108SOL    HW259164  14.568  10.720   6.723
19109SOL     OW59165   3.400   9.167  13.045
19109SOL    HW159166   3.464   9.139  13.111
19109SOL    HW259167   3.443   9.238  12.998
19110SOL     OW59168  12.970   5.880  11.955
19110SOL    HW159169  13.052   5.917  11.922
19110SOL    HW259170  12.925   5.954  11.995
19111SOL     OW59171   8.113   2.654   4.263
19111SOL    HW159172   8.097   2.570   4.219
19111SOL    HW259173   8.206   2.672   4.247
19112SOL     OW59174  14.289   4.938   2.553
19112SOL    HW159175  14.202   4.970   2.530
19112SOL    HW259176  14.274   4.852   2.591
19113SOL     OW59177   2.932   1.726   2.523
19113SOL    HW159178   2.922   1.631   2.523
19113SOL    HW259179   2.995   1.743   2.453
19114SOL     OW59180  12.700   4.567  12.323
19114SOL    HW159181  12.623   4.565  12.266
19114SOL    HW259182  12.730   4.476  12.326
19115SOL     OW59183   6.930   6.945  12.268
19115SOL    HW159184   7.018   6.980  12.276
19115SOL    HW259185   6.898   6.940  12.358
19116SOL     OW59186   8.802  13.820   0.078
19116SOL    HW159187   8.794  13.727   0.095
19116SOL    HW259188   8.833  13.857   0.161
19117SOL     OW59189   1.923   1.232   8.882
19117SOL    HW159190   1.954   1.144   8.903
19117SOL    HW259191   1.844   1.243   8.936
19118SOL     OW59192   5.883   9.979  10.677
19118SOL    HW159193   5.914   9.978  10.767
19118SOL    HW259194   5.948   9.929  10.628
19119SOL     OW59195  12.531   6.025   9.429
19119SOL    HW159196  12.465   5.956   9.417
19119SOL    HW259197  12.516   6.058   9.517
19120SOL     OW59198  14.005   4.318  12.657
19120SOL    HW159199  14.095   4.343  12.679
19120SOL    HW259200  13.969   4.394  12.612
19121SOL     OW59201  14.672   5.567   9.764
19121SOL    HW159202  14.616   5.498   9.799
19121SOL    HW259203  14.653   5.643   9.819
19122SOL     OW59204   8.287   3.057  13.322
19122SOL    HW159205   8.368   3.062  13.271
19122SOL    HW259206   8.219   3.090  13.263
19123SOL     OW59207   5.460   9.323   1.132
19123SOL    HW159208   5.466   9.396   1.194
19123SOL    HW259209   5.473   9.245   1.185
19124SOL     OW59210  14.105   6.942   2.578
19124SOL    HW159211  14.159   6.989   2.641
19124SOL    HW259212  14.167   6.893   2.525
19125SOL     OW59213   6.361   1.478   6.193
19125SOL    HW159214   6.330   1.531   6.267
19125SOL    HW259215   6.441   1.437   6.227
19126SOL     OW59216   9.239   2.944   1.601
19126SOL    HW159217   9.173   2.907   1.658
19126SOL    HW259218   9.204   3.029   1.573
19127SOL     OW59219  14.135   8.136  12.830
19127SOL    HW159220  14.091   8.057  12.864
19127SOL    HW259221  14.200   8.158  12.896
19128SOL     OW59222   5.544   4.581   4.733
19128SOL    HW159223   5.589   4.507   4.773
19128SOL    HW259224   5.614   4.640   4.705
19129SOL     OW59225  12.825   7.968   6.981
19129SOL    HW159226  12.809   7.916   7.060
19129SOL    HW259227  12.838   8.057   7.013
19130SOL     OW59228  10.419   4.343  12.466
19130SOL    HW159229  10.462   4.328  12.550
19130SOL    HW259230  10.470   4.413  12.426
19131SOL     OW59231   2.451   4.600   0.829
19131SOL    HW159232   2.499   4.542   0.888
19131SOL    HW259233   2.507   4.677   0.819
19132SOL     OW59234   4.725  14.466  14.672
19132SOL    HW159235   4.638  14.493  14.644
19132SOL    HW259236   4.743  14.520  14.749
19133SOL     OW59237   6.333  14.391   5.697
19133SOL    HW159238   6.381  14.309   5.708
19133SOL    HW259239   6.272  14.373   5.626
19134SOL     OW59240  13.871   9.861   5.644
19134SOL    HW159241  13.846   9.928   5.707
19134SOL    HW259242  13.836   9.779   5.680
19135SOL     OW59243   4.883   4.053   3.721
19135SOL    HW159244   4.922   3.976   3.762
19135SOL    HW259245   4.803   4.020   3.680
19136SOL     OW59246  14.805  14.614  11.720
19136SOL    HW159247  14.848  14.534  11.749
19136SOL    HW259248  14.728  14.584  11.672
19137SOL     OW59249  14.104   5.416   1.518
19137SOL    HW159250  14.106   5.496   1.570
19137SOL    HW259251  14.109   5.345   1.582
19138SOL     OW59252   8.769   6.626   1.351
19138SOL    HW159253   8.709   6.700   1.338
19138SOL    HW259254   8.722   6.551   1.314
19139SOL     OW59255   9.226  12.818   9.175
19139SOL    HW159256   9.169  12.861   9.239
19139SOL    HW259257   9.166  12.777   9.114
19140SOL     OW59258   3.390   2.942  11.446
19140SOL    HW159259   3.357   2.949  11.536
19140SOL    HW259260   3.485   2.956  11.454
19141SOL     OW59261   0.691   2.685   6.312
19141SOL    HW159262   0.736   2.606   6.341
19141SOL    HW259263   0.746   2.721   6.243
19142SOL     OW59264   7.528  10.833   2.910
19142SOL    HW159265   7.439  10.798   2.921
19142SOL    HW259266   7.571  10.817   2.994
19143SOL     OW59267   0.929   1.121   0.724
19143SOL    HW159268   0.902   1.139   0.814
19143SOL    HW259269   0.892   1.035   0.705
19144SOL     OW59270  13.376   0.907  11.687
19144SOL    HW159271  13.376   0.913  11.783
19144SOL    HW259272  13.305   0.845  11.668
19145SOL     OW59273  12.177   5.827   7.318
19145SOL    HW159274  12.177   5.812   7.223
19145SOL    HW259275  12.091   5.865   7.336
19146SOL     OW59276   6.715  14.581  13.767
19146SOL    HW159277   6.705  14.493  13.805
19146SOL    HW259278   6.700  14.568  13.674
19147SOL     OW59279  10.767  10.300   7.781
19147SOL    HW159280  10.863  10.299   7.773
19147SOL    HW259281  10.745  10.393   7.776
19148SOL     OW59282   4.712   1.641  12.166
19148SOL    HW159283   4.664   1.559  12.151
19148SOL    HW259284   4.663   1.684  12.237
19149SOL     OW59285   5.039  14.207   3.195
19149SOL    HW159286   5.031  14.269   3.267
19149SOL    HW259287   4.969  14.143   3.211
19150SOL     OW59288   2.783  10.730   5.474
19150SOL    HW159289   2.815  10.820   5.479
19150SOL    HW259290   2.703  10.730   5.527
19151SOL     OW59291  14.199  14.390   9.411
19151SOL    HW159292  14.227  14.299   9.424
19151SOL    HW259293  14.113  14.395   9.453
19152SOL     OW59294  10.824  14.024   4.686
19152SOL    HW159295  10.759  13.968   4.728
19152SOL    HW259296  10.819  14.001   4.593
19153SOL     OW59297   5.047   7.762  11.503
19153SOL    HW159298   5.030   7.749  11.597
19153SOL    HW259299   4.962   7.789  11.467
19154SOL     OW59300  11.058   1.264   6.712
19154SOL    HW159301  11.057   1.298   6.801
19154SOL    HW259302  11.027   1.337   6.658
19155SOL     OW59303   9.420  14.546   7.201
19155SOL    HW159304   9.407  14.552   7.106
19155SOL    HW259305   9.334  14.565   7.238
19156SOL     OW59306   1.242  11.201   9.678
19156SOL    HW159307   1.254  11.206   9.773
19156SOL    HW259308   1.292  11.122   9.653
19157SOL     OW59309   3.276   0.554  10.631
19157SOL    HW159310   3.356   0.563  10.684
19157SOL    HW259311   3.234   0.640  10.636
19158SOL     OW59312  12.154   8.573  11.676
19158SOL    HW159313  12.114   8.508  11.733
19158SOL    HW259314  12.236   8.597  11.719
19159SOL     OW59315   9.197   8.951   3.709
19159SOL    HW159316   9.276   8.934   3.759
19159SOL    HW259317   9.129   8.900   3.753
19160SOL     OW59318   3.891   1.399  14.642
19160SOL    HW159319   3.814   1.387  14.699
19160SOL    HW259320   3.862   1.464  14.578
19161SOL     OW59321   0.641  12.697   2.549
19161SOL    HW159322   0.716  12.752   2.527
19161SOL    HW259323   0.673  12.608   2.534
19162SOL     OW59324  14.361   2.653  11.057
19162SOL    HW159325  14.401   2.679  11.141
19162SOL    HW259326  14.420   2.585  11.023
19163SOL     OW59327  11.682   0.921  13.081
19163SOL    HW159328  11.660   0.868  13.157
19163SOL    HW259329  11.641   1.006  13.099
19164SOL     OW59330  14.701  12.955   1.416
19164SOL    HW159331  14.776  13.012   1.429
19164SOL    HW259332  14.660  12.947   1.502
19165SOL     OW59333   4.234   5.699   8.642
19165SOL    HW159334   4.139   5.689   8.635
19165SOL    HW259335   4.249   5.719   8.734
19166SOL     OW59336   7.550  13.452   5.689
19166SOL    HW159337   7.626  13.479   5.739
19166SOL    HW259338   7.534  13.523   5.627
19167SOL     OW59339   2.025   9.191  11.605
19167SOL    HW159340   1.943   9.161  11.643
19167SOL    HW259341   2.080   9.211  11.680
19168SOL     OW59342  10.111   4.186   6.322
19168SOL    HW159343  10.078   4.275   6.340
19168SOL    HW259344  10.193   4.180   6.370
19169SOL     OW59345  11.746   9.881  10.483
19169SOL    HW159346  11.827   9.922  10.513
19169SOL    HW259347  11.683   9.952  10.481
19170SOL     OW59348   1.418   2.968   8.740
19170SOL    HW159349   1.493   2.909   8.732
19170SOL    HW259350   1.457   3.052   8.765
19171SOL     OW59351   2.961   7.627  10.502
19171SOL    HW159352   3.018   7.649  10.575
19171SOL    HW259353   2.958   7.531  10.502
19172SOL     OW59354   2.399   3.466   7.111
19172SOL    HW159355   2.391   3.394   7.174
19172SOL    HW259356   2.310   3.500   7.102
19173SOL     OW59357  13.669  12.011   5.863
19173SOL    HW159358  13.632  12.060   5.936
19173SOL    HW259359  13.646  12.063   5.786
19174SOL     OW59360  13.262   4.545  11.982
19174SOL    HW159361  13.302   4.631  11.967
19174SOL    HW259362  13.219   4.523  11.900
19175SOL     OW59363  13.476   5.610  14.262
19175SOL    HW159364  13.418   5.537  14.241
19175SOL    HW259365  13.496   5.650  14.177
19176SOL     OW59366   2.183  13.936  10.040
19176SOL    HW159367   2.262  13.936  10.094
19176SOL    HW259368   2.191  14.015   9.985
19177SOL     OW59369   5.858  10.600   3.491
19177SOL    HW159370   5.887  10.674   3.436
19177SOL    HW259371   5.769  10.624   3.518
19178SOL     OW59372  10.562   7.228  12.528
19178SOL    HW159373  10.511   7.147  12.534
19178SOL    HW259374  10.608   7.233  12.611
19179SOL     OW59375   6.589   2.593  13.911
19179SOL    HW159376   6.495   2.594  13.897
19179SOL    HW259377   6.602   2.645  13.990
19180SOL     OW59378  13.823  14.829   9.409
19180SOL    HW159379  13.745   0.008   9.428
19180SOL    HW259380  13.873   0.010   9.347
19181SOL     OW59381  11.068   1.969  11.111
19181SOL    HW159382  11.076   2.060  11.080
19181SOL    HW259383  11.128   1.963  11.185
19182SOL     OW59384   3.050   4.156   3.228
19182SOL    HW159385   3.136   4.125   3.199
19182SOL    HW259386   3.000   4.077   3.245
19183SOL     OW59387  13.382   0.380   8.864
19183SOL    HW159388  13.450   0.422   8.917
19183SOL    HW259389  13.364   0.444   8.794
19184SOL     OW59390   0.814   2.742   5.247
19184SOL    HW159391   0.841   2.709   5.161
19184SOL    HW259392   0.894   2.740   5.300
19185SOL     OW59393   3.850  11.806   7.733
19185SOL    HW159394   3.822  11.846   7.651
19185SOL    HW259395   3.878  11.718   7.709
19186SOL     OW59396  13.114  11.235  11.139
19186SOL    HW159397  13.129  11.324  11.107
19186SOL    HW259398  13.024  11.215  11.115
19187SOL     OW59399  10.679   0.255   7.685
19187SOL    HW159400  10.657   0.330   7.630
19187SOL    HW259401  10.772   0.267   7.705
19188SOL     OW59402  12.734   6.939   0.359
19188SOL    HW159403  12.768   7.028   0.363
19188SOL    HW259404  12.700   6.922   0.447
19189SOL     OW59405   0.275   7.104   1.072
19189SOL    HW159406   0.253   7.048   0.998
19189SOL    HW259407   0.287   7.043   1.145
19190SOL     OW59408   8.426   6.040   6.650
19190SOL    HW159409   8.509   6.087   6.664
19190SOL    HW259410   8.451   5.949   6.639
19191SOL     OW59411   3.896   1.459  12.093
19191SOL    HW159412   3.801   1.471  12.101
19191SOL    HW259413   3.910   1.441  12.000
19192SOL     OW59414  14.032  14.542  13.415
19192SOL    HW159415  14.019  14.543  13.510
19192SOL    HW259416  13.977  14.613  13.383
19193SOL     OW59417  10.034   7.270   3.467
19193SOL    HW159418  10.059   7.200   3.407
19193SOL    HW259419   9.979   7.227   3.532
19194SOL     OW59420   5.770   7.792  11.149
19194SOL    HW159421   5.793   7.775  11.058
19194SOL    HW259422   5.833   7.741  11.200
19195SOL     OW59423  10.738   5.366   2.435
19195SOL    HW159424  10.651   5.330   2.449
19195SOL    HW259425  10.789   5.335   2.510
19196SOL     OW59426   0.737   5.614   9.933
19196SOL    HW159427   0.676   5.582   9.999
19196SOL    HW259428   0.689   5.607   9.851
19197SOL     OW59429   6.995   9.993   1.450
19197SOL    HW159430   7.080   9.953   1.469
19197SOL    HW259431   6.984   9.983   1.356
19198SOL     OW59432   1.811   9.584   9.963
19198SOL    HW159433   1.856   9.666   9.941
19198SOL    HW259434   1.811   9.581  10.058
19199SOL     OW59435  12.271   2.303  11.129
19199SOL    HW159436  12.229   2.240  11.070
19199SOL    HW259437  12.231   2.285  11.215
19200SOL     OW59438  11.428  10.826  10.593
19200SOL    HW159439  11.376  10.771  10.534
19200SOL    HW259440  11.365  10.860  10.657
19201SOL     OW59441   2.541   7.058  12.161
19201SOL    HW159442   2.525   7.142  12.204
19201SOL    HW259443   2.483   6.996  12.206
19202SOL     OW59444  12.739   3.626  14.457
19202SOL    HW159445  12.723   3.687  14.385
19202SOL    HW259446  12.778   3.549  14.415
19203SOL     OW59447   2.002   0.876   3.394
19203SOL    HW159448   1.960   0.907   3.475
19203SOL    HW259449   1.947   0.804   3.365
19204SOL     OW59450   7.162   0.027  14.624
19204SOL    HW159451   7.098  14.863  14.685
19204SOL    HW259452   7.168   0.119  14.649
19205SOL     OW59453   4.449   7.187   5.789
19205SOL    HW159454   4.446   7.144   5.875
19205SOL    HW259455   4.529   7.239   5.791
19206SOL     OW59456   2.991   6.721  11.878
19206SOL    HW159457   3.070   6.690  11.922
19206SOL    HW259458   2.975   6.655  11.809
19207SOL     OW59459  10.542   8.295   3.018
19207SOL    HW159460  10.583   8.380   3.001
19207SOL    HW259461  10.509   8.302   3.107
19208SOL     OW59462  13.319  12.604   7.122
19208SOL    HW159463  13.340  12.698   7.118
19208SOL    HW259464  13.258  12.595   7.195
19209SOL     OW59465   1.598  11.061  14.083
19209SOL    HW159466   1.538  10.990  14.061
19209SOL    HW259467   1.604  11.058  14.178
19210SOL     OW59468   9.262   0.304   9.124
19210SOL    HW159469   9.168   0.313   9.140
19210SOL    HW259470   9.273   0.212   9.099
19211SOL     OW59471   0.250   9.631   3.448
19211SOL    HW159472   0.321   9.596   3.502
19211SOL    HW259473   0.172   9.622   3.502
19212SOL     OW59474   7.975   8.351   1.701
19212SOL    HW159475   7.921   8.286   1.656
19212SOL    HW259476   7.913   8.416   1.734
19213SOL     OW59477   4.457   4.841  10.205
19213SOL    HW159478   4.510   4.886  10.140
19213SOL    HW259479   4.520   4.791  10.258
19214SOL     OW59480  13.514  11.790   6.698
19214SOL    HW159481  13.420  11.803   6.715
19214SOL    HW259482  13.531  11.700   6.725
19215SOL     OW59483   7.202   3.464  10.540
19215SOL    HW159484   7.207   3.525  10.466
19215SOL    HW259485   7.123   3.412  10.523
19216SOL     OW59486   6.728   8.943   0.214
19216SOL    HW159487   6.649   8.904   0.253
19216SOL    HW259488   6.713   9.037   0.220
19217SOL     OW59489   8.665  13.880  11.293
19217SOL    HW159490   8.603  13.822  11.248
19217SOL    HW259491   8.637  13.968  11.269
19218SOL     OW59492   4.556  12.119  11.773
19218SOL    HW159493   4.628  12.120  11.837
19218SOL    HW259494   4.489  12.064  11.813
19219SOL     OW59495  11.823   6.181   0.578
19219SOL    HW159496  11.864   6.173   0.664
19219SOL    HW259497  11.888   6.226   0.524
19220SOL     OW59498  12.966  12.551  12.522
19220SOL    HW159499  12.942  12.501  12.600
19220SOL    HW259500  13.041  12.604  12.548
19221SOL     OW59501  12.648  14.259   2.341
19221SOL    HW159502  12.654  14.335   2.399
19221SOL    HW259503  12.554  14.248   2.325
19222SOL     OW59504   0.060   2.802   8.562
19222SOL    HW159505  14.845   2.813   8.529
19222SOL    HW259506   0.051   2.809   8.657
19223SOL     OW59507  12.528   3.885  10.943
19223SOL    HW159508  12.548   3.792  10.935
19223SOL    HW259509  12.569   3.911  11.026
19224SOL     OW59510   4.359   3.124   7.868
19224SOL    HW159511   4.418   3.076   7.927
19224SOL    HW259512   4.312   3.056   7.820
19225SOL     OW59513   8.945  10.979   7.786
19225SOL    HW159514   8.983  10.969   7.874
19225SOL    HW259515   8.910  10.893   7.765
19226SOL     OW59516  11.855   4.450  13.456
19226SOL    HW159517  11.839   4.359  13.481
19226SOL    HW259518  11.813   4.459  13.371
19227SOL     OW59519   6.718  10.809   6.993
19227SOL    HW159520   6.705  10.900   6.965
19227SOL    HW259521   6.634  10.782   7.031
19228SOL     OW59522   0.296   7.289   1.956
19228SOL    HW159523   0.319   7.199   1.975
19228SOL    HW259524   0.242   7.284   1.877
19229SOL     OW59525   8.183  12.176  12.359
19229SOL    HW159526   8.157  12.256  12.312
19229SOL    HW259527   8.105  12.153  12.410
19230SOL     OW59528   4.507   9.590   9.800
19230SOL    HW159529   4.472   9.679   9.799
19230SOL    HW259530   4.594   9.599   9.838
19231SOL     OW59531   5.229   8.685   8.699
19231SOL    HW159532   5.170   8.612   8.684
19231SOL    HW259533   5.224   8.738   8.619
19232SOL     OW59534  11.263   2.883  14.823
19232SOL    HW159535  11.226   2.853  14.741
19232SOL    HW259536  11.202   2.950  14.854
19233SOL     OW59537  12.956   9.091   1.042
19233SOL    HW159538  12.939   9.000   1.068
19233SOL    HW259539  12.903   9.143   1.102
19234SOL     OW59540   6.518  12.376  13.389
19234SOL    HW159541   6.600  12.390  13.341
19234SOL    HW259542   6.459  12.339  13.324
19235SOL     OW59543   8.922  11.477  10.133
19235SOL    HW159544   8.967  11.491  10.216
19235SOL    HW259545   8.912  11.565  10.096
19236SOL     OW59546   6.528   1.204   2.914
19236SOL    HW159547   6.458   1.145   2.939
19236SOL    HW259548   6.494   1.292   2.933
19237SOL     OW59549  11.722   1.601   8.498
19237SOL    HW159550  11.675   1.549   8.433
19237SOL    HW259551  11.803   1.627   8.454
19238SOL     OW59552   6.376  14.486  11.512
19238SOL    HW159553   6.425  14.562  11.480
19238SOL    HW259554   6.293  14.523  11.542
19239SOL     OW59555  12.233  12.686   1.532
19239SOL    HW159556  12.198  12.655   1.616
19239SOL    HW259557  12.313  12.635   1.519
19240SOL     OW59558  11.903   5.419   2.438
19240SOL    HW159559  11.901   5.422   2.534
19240SOL    HW259560  11.995   5.403   2.417
19241SOL     OW59561  14.675   9.002   0.486
19241SOL    HW159562  14.706   8.914   0.503
19241SOL    HW259563  14.748   9.046   0.442
19242SOL     OW59564   4.802   2.346   0.231
19242SOL    HW159565   4.796   2.430   0.278
19242SOL    HW259566   4.896   2.329   0.226
19243SOL     OW59567  14.797   2.147  14.015
19243SOL    HW159568  14.793   2.175  13.924
19243SOL    HW259569  14.729   2.198  14.059
19244SOL     OW59570  11.108   9.991   1.606
19244SOL    HW159571  11.089  10.079   1.573
19244SOL    HW259572  11.035   9.971   1.664
19245SOL     OW59573   6.322   7.546  13.077
19245SOL    HW159574   6.372   7.538  12.996
19245SOL    HW259575   6.318   7.457  13.112
19246SOL     OW59576  13.498   4.253   6.200
19246SOL    HW159577  13.524   4.277   6.111
19246SOL    HW259578  13.453   4.329   6.234
19247SOL     OW59579   9.241   7.396  11.459
19247SOL    HW159580   9.183   7.329  11.421
19247SOL    HW259581   9.185   7.443  11.521
19248SOL     OW59582   1.130   0.387  11.963
19248SOL    HW159583   1.089   0.395  12.049
19248SOL    HW259584   1.197   0.320  11.974
19249SOL     OW59585   7.715   6.777   6.877
19249SOL    HW159586   7.782   6.740   6.819
19249SOL    HW259587   7.729   6.872   6.871
19250SOL     OW59588   4.346   4.349   6.765
19250SOL    HW159589   4.386   4.287   6.825
19250SOL    HW259590   4.411   4.419   6.756
19251SOL     OW59591  10.890   5.645   1.892
19251SOL    HW159592  10.846   5.691   1.962
19251SOL    HW259593  10.950   5.585   1.936
19252SOL     OW59594   5.124  10.357   5.368
19252SOL    HW159595   5.136  10.282   5.426
19252SOL    HW259596   5.092  10.320   5.286
19253SOL     OW59597  13.349  13.408   5.680
19253SOL    HW159598  13.268  13.425   5.729
19253SOL    HW259599  13.354  13.479   5.616
19254SOL     OW59600  10.760   0.880  12.247
19254SOL    HW159601  10.824   0.809  12.236
19254SOL    HW259602  10.807   0.958  12.218
19255SOL     OW59603  11.705   9.235   8.331
19255SOL    HW159604  11.734   9.291   8.403
19255SOL    HW259605  11.712   9.290   8.253
19256SOL     OW59606   0.033   7.878   1.168
19256SOL    HW159607   0.106   7.933   1.140
19256SOL    HW259608   0.075   7.800   1.205
19257SOL     OW59609   5.488  14.331   0.715
19257SOL    HW159610   5.557  14.334   0.781
19257SOL    HW259611   5.450  14.244   0.724
19258SOL     OW59612   1.615   4.638   7.987
19258SOL    HW159613   1.618   4.600   7.899
19258SOL    HW259614   1.702   4.675   8.001
19259SOL     OW59615  12.320  13.822  11.537
19259SOL    HW159616  12.408  13.860  11.537
19259SOL    HW259617  12.264  13.892  11.572
19260SOL     OW59618  12.588   3.486   8.333
19260SOL    HW159619  12.575   3.396   8.302
19260SOL    HW259620  12.501   3.526   8.330
19261SOL     OW59621  11.057   7.972   3.943
19261SOL    HW159622  11.107   7.946   3.865
19261SOL    HW259623  11.080   8.064   3.956
19262SOL     OW59624   5.624   7.171  11.615
19262SOL    HW159625   5.707   7.125  11.628
19262SOL    HW259626   5.583   7.172  11.701
19263SOL     OW59627   3.575   2.559   6.745
19263SOL    HW159628   3.552   2.635   6.691
19263SOL    HW259629   3.562   2.588   6.835
19264SOL     OW59630  10.880  10.427   1.415
19264SOL    HW159631  10.958  10.463   1.458
19264SOL    HW259632  10.902  10.427   1.322
19265SOL     OW59633   7.728   9.650   0.421
19265SOL    HW159634   7.786   9.714   0.380
19265SOL    HW259635   7.695   9.695   0.499
19266SOL     OW59636   4.279   6.630   2.387
19266SOL    HW159637   4.203   6.662   2.436
19266SOL    HW259638   4.243   6.568   2.324
19267SOL     OW59639  11.986   6.545  12.925
19267SOL    HW159640  12.006   6.455  12.948
19267SOL    HW259641  12.053   6.597  12.970
19268SOL     OW59642   1.695  10.948  10.794
19268SOL    HW159643   1.609  10.986  10.812
19268SOL    HW259644   1.689  10.915  10.704
19269SOL     OW59645   2.708   0.871  11.475
19269SOL    HW159646   2.796   0.865  11.440
19269SOL    HW259647   2.702   0.798  11.537
19270SOL     OW59648  12.492   6.207   6.900
19270SOL    HW159649  12.563   6.207   6.964
19270SOL    HW259650  12.412   6.211   6.953
19271SOL     OW59651  10.195  10.641   1.184
19271SOL    HW159652  10.174  10.624   1.092
19271SOL    HW259653  10.254  10.570   1.209
19272SOL     OW59654  11.655   6.462   3.819
19272SOL    HW159655  11.688   6.442   3.907
19272SOL    HW259656  11.733   6.479   3.767
19273SOL     OW59657   8.226   2.699  11.569
19273SOL    HW159658   8.264   2.697  11.657
19273SOL    HW259659   8.136   2.669  11.582
19274SOL     OW59660  12.190   1.036   7.804
19274SOL    HW159661  12.106   1.007   7.841
19274SOL    HW259662  12.255   0.992   7.859
19275SOL     OW59663   5.338   2.475   8.035
19275SOL    HW159664   5.277   2.419   7.989
19275SOL    HW259665   5.356   2.430   8.117
19276SOL     OW59666   3.841   2.434   7.965
19276SOL    HW159667   3.770   2.476   8.014
19276SOL    HW259668   3.921   2.466   8.007
19277SOL     OW59669   5.823   1.659  14.408
19277SOL    HW159670   5.896   1.621  14.457
19277SOL    HW259671   5.837   1.629  14.318
19278SOL     OW59672   8.415  13.207   3.338
19278SOL    HW159673   8.326  13.238   3.326
19278SOL    HW259674   8.466  13.286   3.357
19279SOL     OW59675  13.137  10.899  14.214
19279SOL    HW159676  13.145  10.828  14.150
19279SOL    HW259677  13.208  10.959  14.191
19280SOL     OW59678   2.896  14.524   5.648
19280SOL    HW159679   2.875  14.616   5.631
19280SOL    HW259680   2.992  14.521   5.646
19281SOL     OW59681   2.920   8.733  14.675
19281SOL    HW159682   3.011   8.746  14.701
19281SOL    HW259683   2.871   8.735  14.757
19282SOL     OW59684  11.475  12.061   6.382
19282SOL    HW159685  11.389  12.098   6.361
19282SOL    HW259686  11.487  11.990   6.318
19283SOL     OW59687  12.292  11.036  12.300
19283SOL    HW159688  12.274  10.973  12.370
19283SOL    HW259689  12.214  11.032  12.244
19284SOL     OW59690   3.120  14.267   0.236
19284SOL    HW159691   3.035  14.279   0.278
19284SOL    HW259692   3.115  14.180   0.196
19285SOL     OW59693   4.931   3.192   9.118
19285SOL    HW159694   4.946   3.124   9.184
19285SOL    HW259695   4.929   3.145   9.035
19286SOL     OW59696  10.485   6.009   8.242
19286SOL    HW159697  10.523   6.093   8.216
19286SOL    HW259698  10.392   6.028   8.256
19287SOL     OW59699  12.499  10.934   8.258
19287SOL    HW159700  12.536  10.890   8.334
19287SOL    HW259701  12.408  10.903   8.254
19288SOL     OW59702  13.604   2.304  12.525
19288SOL    HW159703  13.647   2.228  12.484
19288SOL    HW259704  13.555   2.267  12.598
19289SOL     OW59705  12.786   0.153   8.481
19289SOL    HW159706  12.695   0.137   8.507
19289SOL    HW259707  12.829   0.185   8.561
19290SOL     OW59708   9.422  12.464   4.725
19290SOL    HW159709   9.396  12.375   4.701
19290SOL    HW259710   9.382  12.519   4.657
19291SOL     OW59711  10.125   6.725   9.359
19291SOL    HW159712  10.070   6.673   9.301
19291SOL    HW259713  10.120   6.681   9.443
19292SOL     OW59714  11.370  12.353   5.107
19292SOL    HW159715  11.340  12.336   5.196
19292SOL    HW259716  11.313  12.298   5.052
19293SOL     OW59717   9.023  14.050   6.468
19293SOL    HW159718   9.118  14.056   6.457
19293SOL    HW259719   9.006  14.093   6.552
19294SOL     OW59720  12.203   6.077  10.708
19294SOL    HW159721  12.237   6.160  10.676
19294SOL    HW259722  12.121   6.100  10.753
19295SOL     OW59723   1.375  14.349   4.845
19295SOL    HW159724   1.456  14.368   4.796
19295SOL    HW259725   1.401  14.353   4.937
19296SOL     OW59726  14.170  10.399  11.659
19296SOL    HW159727  14.242  10.446  11.702
19296SOL    HW259728  14.212  10.348  11.590
19297SOL     OW59729  13.567  11.008   1.080
19297SOL    HW159730  13.507  10.939   1.110
19297SOL    HW259731  13.566  11.000   0.984
19298SOL     OW59732   0.696  10.814  13.284
19298SOL    HW159733   0.700  10.846  13.194
19298SOL    HW259734   0.781  10.835  13.321
19299SOL     OW59735   6.365   7.892   4.536
19299SOL    HW159736   6.272   7.905   4.520
19299SOL    HW259737   6.384   7.948   4.611
19300SOL     OW59738   7.494  12.475  11.526
19300SOL    HW159739   7.515  12.565  11.501
19300SOL    HW259740   7.526  12.422  11.454
19301SOL     OW59741   1.793  12.038   0.566
19301SOL    HW159742   1.826  12.097   0.634
19301SOL    HW259743   1.870  11.992   0.535
19302SOL     OW59744   0.816   1.632  14.711
19302SOL    HW159745   0.773   1.667  14.633
19302SOL    HW259746   0.768   1.552  14.731
19303SOL     OW59747   0.999   5.555   0.929
19303SOL    HW159748   1.001   5.612   1.006
19303SOL    HW259749   0.917   5.507   0.937
19304SOL     OW59750   1.489   9.912   0.717
19304SOL    HW159751   1.489  10.000   0.679
19304SOL    HW259752   1.415   9.913   0.778
19305SOL     OW59753   3.021  14.826  11.553
19305SOL    HW159754   3.049  14.743  11.513
19305SOL    HW259755   2.930  14.836  11.526
19306SOL     OW59756  13.233   2.496   1.514
19306SOL    HW159757  13.265   2.407   1.522
19306SOL    HW259758  13.226   2.512   1.420
19307SOL     OW59759   8.645   0.855   5.265
19307SOL    HW159760   8.669   0.818   5.180
19307SOL    HW259761   8.568   0.806   5.293
19308SOL     OW59762  12.361   9.694   9.185
19308SOL    HW159763  12.356   9.613   9.236
19308SOL    HW259764  12.383   9.762   9.248
19309SOL     OW59765   1.992   5.780   9.644
19309SOL    HW159766   2.072   5.771   9.696
19309SOL    HW259767   2.018   5.838   9.572
19310SOL     OW59768  10.146   6.039   5.983
19310SOL    HW159769  10.069   6.092   6.002
19310SOL    HW259770  10.200   6.094   5.926
19311SOL     OW59771  10.249   4.562   6.876
19311SOL    HW159772  10.323   4.563   6.936
19311SOL    HW259773  10.252   4.647   6.833
19312SOL     OW59774   3.960  14.768   6.241
19312SOL    HW159775   3.943  14.679   6.270
19312SOL    HW259776   4.021  14.758   6.168
19313SOL     OW59777   1.630  10.329   3.646
19313SOL    HW159778   1.587  10.385   3.581
19313SOL    HW259779   1.644  10.385   3.722
19314SOL     OW59780  11.383   6.253  11.903
19314SOL    HW159781  11.303   6.306  11.905
19314SOL    HW259782  11.453   6.314  11.923
19315SOL     OW59783   1.054   0.315   4.919
19315SOL    HW159784   1.062   0.300   5.013
19315SOL    HW259785   1.062   0.410   4.909
19316SOL     OW59786   3.897   1.603   3.348
19316SOL    HW159787   3.896   1.613   3.443
19316SOL    HW259788   3.953   1.527   3.333
19317SOL     OW59789   9.281   1.918   8.441
19317SOL    HW159790   9.359   1.938   8.389
19317SOL    HW259791   9.239   1.845   8.395
19318SOL     OW59792  12.969  10.000  12.212
19318SOL    HW159793  12.899  10.055  12.247
19318SOL    HW259794  13.037  10.061  12.183
19319SOL     OW59795   4.269   2.435   6.899
19319SOL    HW159796   4.205   2.495   6.938
19319SOL    HW259797   4.275   2.363   6.962
19320SOL     OW59798  14.362   5.517   4.834
19320SOL    HW159799  14.287   5.523   4.894
19320SOL    HW259800  14.405   5.435   4.859
19321SOL     OW59801   4.495   3.768   9.103
19321SOL    HW159802   4.529   3.758   9.191
19321SOL    HW259803   4.412   3.814   9.114
19322SOL     OW59804   7.972  13.242   3.207
19322SOL    HW159805   7.890  13.291   3.215
19322SOL    HW259806   8.029  13.299   3.156
19323SOL     OW59807   3.349   1.045   2.910
19323SOL    HW159808   3.321   1.133   2.887
19323SOL    HW259809   3.343   1.042   3.005
19324SOL     OW59810  14.608   3.963  12.928
19324SOL    HW159811  14.534   4.001  12.975
19324SOL    HW259812  14.574   3.882  12.890
19325SOL     OW59813   3.451   4.835  11.567
19325SOL    HW159814   3.408   4.869  11.489
19325SOL    HW259815   3.524   4.894  11.583
19326SOL     OW59816   5.974   5.905   5.934
19326SOL    HW159817   6.001   5.995   5.913
19326SOL    HW259818   5.917   5.880   5.862
19327SOL     OW59819   0.345   5.393   7.409
19327SOL    HW159820   0.403   5.425   7.478
19327SOL    HW259821   0.289   5.329   7.452
19328SOL     OW59822   5.651   5.083   7.689
19328SOL    HW159823   5.710   5.140   7.739
19328SOL    HW259824   5.635   5.008   7.748
19329SOL     OW59825  12.266   9.061   2.540
19329SOL    HW159826  12.215   9.076   2.461
19329SOL    HW259827  12.349   9.106   2.524
19330SOL     OW59828   5.575  11.179   0.815
19330SOL    HW159829   5.597  11.220   0.899
19330SOL    HW259830   5.659  11.157   0.776
19331SOL     OW59831   0.528   2.705  11.722
19331SOL    HW159832   0.547   2.759  11.645
19331SOL    HW259833   0.613   2.695  11.765
19332SOL     OW59834  13.749   1.393  11.314
19332SOL    HW159835  13.723   1.476  11.353
19332SOL    HW259836  13.698   1.327  11.361
19333SOL     OW59837  12.556  14.821   5.826
19333SOL    HW159838  12.630  14.867   5.787
19333SOL    HW259839  12.508  14.785   5.751
19334SOL     OW59840   3.978   9.642   4.273
19334SOL    HW159841   3.899   9.639   4.219
19334SOL    HW259842   3.948   9.617   4.361
19335SOL     OW59843  12.376   0.551   8.640
19335SOL    HW159844  12.392   0.638   8.678
19335SOL    HW259845  12.281   0.541   8.642
19336SOL     OW59846  13.906   1.398   5.937
19336SOL    HW159847  13.829   1.425   5.987
19336SOL    HW259848  13.872   1.335   5.873
19337SOL     OW59849   2.382   5.631  11.650
19337SOL    HW159850   2.332   5.710  11.628
19337SOL    HW259851   2.393   5.585  11.567
19338SOL     OW59852   9.703  12.849   5.322
19338SOL    HW159853   9.777  12.819   5.269
19338SOL    HW259854   9.680  12.934   5.286
19339SOL     OW59855   2.727   0.427   6.129
19339SOL    HW159856   2.741   0.509   6.176
19339SOL    HW259857   2.777   0.436   6.048
19340SOL     OW59858   8.017   0.548   9.090
19340SOL    HW159859   8.021   0.620   9.026
19340SOL    HW259860   7.923   0.533   9.103
19341SOL     OW59861   3.738  11.285  12.983
19341SOL    HW159862   3.765  11.261  13.071
19341SOL    HW259863   3.653  11.244  12.972
19342SOL     OW59864   6.159   4.138   2.952
19342SOL    HW159865   6.157   4.168   2.862
19342SOL    HW259866   6.180   4.216   3.003
19343SOL     OW59867   9.704   0.979  11.430
19343SOL    HW159868   9.628   1.021  11.389
19343SOL    HW259869   9.682   0.977  11.523
19344SOL     OW59870  11.857   3.385   3.938
19344SOL    HW159871  11.779   3.380   3.883
19344SOL    HW259872  11.852   3.471   3.979
19345SOL     OW59873  12.590  13.177   9.314
19345SOL    HW159874  12.511  13.192   9.262
19345SOL    HW259875  12.655  13.236   9.276
19346SOL     OW59876   6.532   0.368  10.861
19346SOL    HW159877   6.501   0.307  10.927
19346SOL    HW259878   6.454   0.414  10.831
19347SOL     OW59879   6.679  11.677   2.738
19347SOL    HW159880   6.588  11.672   2.710
19347SOL    HW259881   6.687  11.762   2.781
19348SOL     OW59882  13.695  13.163   0.519
19348SOL    HW159883  13.610  13.207   0.520
19348SOL    HW259884  13.679  13.080   0.474
19349SOL     OW59885  13.775   4.117  14.140
19349SOL    HW159886  13.845   4.108  14.205
19349SOL    HW259887  13.697   4.135  14.192
19350SOL     OW59888  14.758   0.971   9.734
19350SOL    HW159889  14.677   0.926   9.760
19350SOL    HW259890  14.731   1.060   9.714
19351SOL     OW59891   5.303  10.718   0.694
19351SOL    HW159892   5.223  10.737   0.743
19351SOL    HW259893   5.273  10.674   0.615
19352SOL     OW59894  11.463   8.452   1.966
19352SOL    HW159895  11.497   8.452   2.055
19352SOL    HW259896  11.367   8.452   1.977
19353SOL     OW59897   3.970   7.226   1.709
19353SOL    HW159898   3.949   7.301   1.654
19353SOL    HW259899   3.947   7.254   1.798
19354SOL     OW59900   0.791   5.463   8.518
19354SOL    HW159901   0.774   5.513   8.598
19354SOL    HW259902   0.726   5.393   8.519
19355SOL     OW59903   7.966  10.152   0.961
19355SOL    HW159904   8.027  10.189   0.896
19355SOL    HW259905   7.975  10.209   1.037
19356SOL     OW59906   7.994  10.492  10.132
19356SOL    HW159907   8.015  10.466  10.222
19356SOL    HW259908   7.930  10.563  10.143
19357SOL     OW59909  12.841   1.475   6.902
19357SOL    HW159910  12.793   1.511   6.828
19357SOL    HW259911  12.933   1.479   6.875
19358SOL     OW59912   1.430   4.856   2.071
19358SOL    HW159913   1.367   4.801   2.118
19358SOL    HW259914   1.515   4.816   2.091
19359SOL     OW59915  13.845   2.414   8.932
19359SOL    HW159916  13.823   2.498   8.972
19359SOL    HW259917  13.939   2.417   8.919
19360SOL     OW59918   3.383   9.790  10.477
19360SOL    HW159919   3.387   9.884  10.498
19360SOL    HW259920   3.352   9.787  10.387
19361SOL     OW59921   9.720   1.966   1.749
19361SOL    HW159922   9.679   2.037   1.700
19361SOL    HW259923   9.752   1.906   1.681
19362SOL     OW59924  10.730   2.816   2.994
19362SOL    HW159925  10.686   2.814   3.079
19362SOL    HW259926  10.709   2.902   2.958
19363SOL     OW59927   7.999   5.401   4.971
19363SOL    HW159928   7.978   5.381   5.062
19363SOL    HW259929   8.031   5.492   4.973
19364SOL     OW59930   5.849   8.559   9.147
19364SOL    HW159931   5.887   8.472   9.158
19364SOL    HW259932   5.825   8.563   9.055
19365SOL     OW59933   4.797  10.685  10.037
19365SOL    HW159934   4.845  10.680   9.954
19365SOL    HW259935   4.772  10.594  10.055
19366SOL     OW59936   1.493   8.332   8.971
19366SOL    HW159937   1.429   8.394   9.004
19366SOL    HW259938   1.466   8.248   9.008
19367SOL     OW59939  11.755   6.803  11.916
19367SOL    HW159940  11.811   6.866  11.872
19367SOL    HW259941  11.672   6.849  11.929
19368SOL     OW59942  11.528  14.448  13.412
19368SOL    HW159943  11.612  14.402  13.419
19368SOL    HW259944  11.497  14.429  13.324
19369SOL     OW59945   9.888   3.959   7.945
19369SOL    HW159946   9.801   3.923   7.930
19369SOL    HW259947   9.884   3.996   8.033
19370SOL     OW59948   0.225  14.579   4.260
19370SOL    HW159949   0.220  14.502   4.204
19370SOL    HW259950   0.268  14.549   4.340
19371SOL     OW59951  12.632   0.346   7.855
19371SOL    HW159952  12.608   0.432   7.820
19371SOL    HW259953  12.548   0.303   7.872
19372SOL     OW59954   2.175  12.927  10.711
19372SOL    HW159955   2.256  12.881  10.688
19372SOL    HW259956   2.120  12.859  10.750
19373SOL     OW59957  10.897  12.101   5.562
19373SOL    HW159958  10.977  12.102   5.509
19373SOL    HW259959  10.912  12.033   5.627
19374SOL     OW59960   3.836   9.940   7.932
19374SOL    HW159961   3.755   9.919   7.978
19374SOL    HW259962   3.880   9.856   7.920
19375SOL     OW59963  14.171  11.243   1.562
19375SOL    HW159964  14.150  11.166   1.614
19375SOL    HW259965  14.256  11.273   1.596
19376SOL     OW59966   0.264  12.554   4.303
19376SOL    HW159967   0.194  12.492   4.283
19376SOL    HW259968   0.345  12.505   4.289
19377SOL     OW59969   3.639  10.203   2.982
19377SOL    HW159970   3.680  10.142   2.921
19377SOL    HW259971   3.645  10.160   3.067
19378SOL     OW59972   0.927  12.612   2.946
19378SOL    HW159973   0.871  12.537   2.926
19378SOL    HW259974   0.870  12.670   2.997
19379SOL     OW59975  11.804   6.909   4.659
19379SOL    HW159976  11.818   6.831   4.712
19379SOL    HW259977  11.710   6.927   4.667
19380SOL     OW59978  12.797   5.230   4.149
19380SOL    HW159979  12.775   5.162   4.086
19380SOL    HW259980  12.798   5.311   4.098
19381SOL     OW59981   5.025   1.273   1.642
19381SOL    HW159982   5.049   1.188   1.605
19381SOL    HW259983   5.102   1.301   1.691
19382SOL     OW59984   0.319   7.237  14.727
19382SOL    HW159985   0.228   7.268  14.725
19382SOL    HW259986   0.364   7.292  14.663
19383SOL     OW59987   5.600   0.216   9.893
19383SOL    HW159988   5.528   0.208   9.955
19383SOL    HW259989   5.559   0.250   9.813
19384SOL     OW59990   4.085  12.708   8.180
19384SOL    HW159991   4.006  12.743   8.220
19384SOL    HW259992   4.054  12.640   8.120
19385SOL     OW59993   0.549  10.074   4.680
19385SOL    HW159994   0.525  10.103   4.769
19385SOL    HW259995   0.465  10.065   4.635
19386SOL     OW59996  11.502  14.219  11.379
19386SOL    HW159997  11.485  14.206  11.285
19386SOL    HW259998  11.448  14.152  11.422
19387SOL     OW59999  12.110   3.513  12.374
19387SOL    HW160000  12.088   3.489  12.464
19387SOL    HW260001  12.191   3.465  12.356
19388SOL     OW60002   2.425  12.794  10.072
19388SOL    HW160003   2.422  12.722  10.135
19388SOL    HW260004   2.410  12.752   9.987
19389SOL     OW60005   6.835   4.176   7.379
19389SOL    HW160006   6.909   4.230   7.349
19389SOL    HW260007   6.761   4.205   7.326
19390SOL     OW60008   4.228   7.977  14.571
19390SOL    HW160009   4.292   8.036  14.611
19390SOL    HW260010   4.205   7.915  14.640
19391SOL     OW60011   6.415   0.647   5.848
19391SOL    HW160012   6.455   0.729   5.877
19391SOL    HW260013   6.340   0.635   5.907
19392SOL     OW60014  12.831  13.979  10.718
19392SOL    HW160015  12.879  14.060  10.736
19392SOL    HW260016  12.876  13.913  10.770
19393SOL     OW60017   0.089  12.349   3.233
19393SOL    HW160018   0.103  12.261   3.199
19393SOL    HW260019   0.169  12.371   3.280
19394SOL     OW60020   3.789   1.749   6.962
19394SOL    HW160021   3.866   1.709   6.923
19394SOL    HW260022   3.752   1.803   6.893
19395SOL     OW60023   6.771   0.897   9.375
19395SOL    HW160024   6.711   0.831   9.341
19395SOL    HW260025   6.719   0.978   9.377
19396SOL     OW60026   6.669   9.316   8.051
19396SOL    HW160027   6.757   9.344   8.027
19396SOL    HW260028   6.682   9.245   8.113
19397SOL     OW60029   7.691  13.364   6.566
19397SOL    HW160030   7.754  13.300   6.601
19397SOL    HW260031   7.626  13.374   6.636
19398SOL     OW60032   4.552   8.480   2.521
19398SOL    HW160033   4.458   8.462   2.523
19398SOL    HW260034   4.575   8.473   2.428
19399SOL     OW60035   2.255  12.498   4.517
19399SOL    HW160036   2.272  12.535   4.604
19399SOL    HW260037   2.204  12.565   4.471
19400SOL     OW60038  13.307  12.267   6.572
19400SOL    HW160039  13.333  12.183   6.535
19400SOL    HW260040  13.306  12.327   6.497
19401SOL     OW60041   2.260   3.577  12.287
19401SOL    HW160042   2.194   3.545  12.349
19401SOL    HW260043   2.267   3.507  12.222
19402SOL     OW60044  13.586   8.788  14.611
19402SOL    HW160045  13.555   8.713  14.561
19402SOL    HW260046  13.531   8.861  14.581
19403SOL     OW60047   0.112   8.126   0.692
19403SOL    HW160048   0.076   8.202   0.647
19403SOL    HW260049   0.188   8.100   0.639
19404SOL     OW60050  11.229   8.394  12.154
19404SOL    HW160051  11.203   8.370  12.065
19404SOL    HW260052  11.233   8.490  12.153
19405SOL     OW60053   7.142   9.180  10.076
19405SOL    HW160054   7.126   9.110  10.012
19405SOL    HW260055   7.090   9.154  10.153
19406SOL     OW60056   2.454  13.284   1.233
19406SOL    HW160057   2.436  13.323   1.319
19406SOL    HW260058   2.437  13.354   1.171
19407SOL     OW60059   2.745   4.133   9.633
19407SOL    HW160060   2.759   4.120   9.539
19407SOL    HW260061   2.722   4.226   9.641
19408SOL     OW60062   8.238   1.532   3.394
19408SOL    HW160063   8.328   1.554   3.370
19408SOL    HW260064   8.223   1.446   3.355
19409SOL     OW60065   2.866  14.868   6.838
19409SOL    HW160066   2.932  14.819   6.790
19409SOL    HW260067   2.805   0.027   6.772
19410SOL     OW60068  10.851   1.384  14.651
19410SOL    HW160069  10.796   1.382  14.729
19410SOL    HW260070  10.941   1.385  14.684
19411SOL     OW60071   7.985   8.946   2.729
19411SOL    HW160072   8.029   9.010   2.785
19411SOL    HW260073   8.056   8.893   2.692
19412SOL     OW60074   8.614  14.121  12.597
19412SOL    HW160075   8.709  14.107  12.595
19412SOL    HW260076   8.577  14.033  12.589
19413SOL     OW60077   3.873  11.150   3.603
19413SOL    HW160078   3.884  11.202   3.523
19413SOL    HW260079   3.913  11.204   3.672
19414SOL     OW60080   5.228  12.633   9.560
19414SOL    HW160081   5.313  12.592   9.579
19414SOL    HW260082   5.222  12.705   9.623
19415SOL     OW60083   1.306  11.415   8.279
19415SOL    HW160084   1.240  11.484   8.271
19415SOL    HW260085   1.336  11.400   8.189
19416SOL     OW60086   1.484   5.589  11.633
19416SOL    HW160087   1.502   5.520  11.696
19416SOL    HW260088   1.530   5.666  11.667
19417SOL     OW60089   8.111  11.703   4.320
19417SOL    HW160090   8.045  11.651   4.274
19417SOL    HW260091   8.195  11.664   4.296
19418SOL     OW60092  11.434  12.782  14.156
19418SOL    HW160093  11.472  12.695  14.143
19418SOL    HW260094  11.366  12.768  14.222
19419SOL     OW60095  13.430   3.313   0.943
19419SOL    HW160096  13.442   3.260   0.863
19419SOL    HW260097  13.494   3.277   1.004
19420SOL     OW60098   9.222   8.782   9.613
19420SOL    HW160099   9.134   8.773   9.650
19420SOL    HW260100   9.267   8.702   9.640
19421SOL     OW60101   7.005   1.917   7.019
19421SOL    HW160102   7.014   1.822   7.011
19421SOL    HW260103   7.033   1.952   6.935
19422SOL     OW60104  14.187   1.888   4.151
19422SOL    HW160105  14.167   1.798   4.127
19422SOL    HW260106  14.102   1.926   4.173
19423SOL     OW60107  13.192  14.758  14.467
19423SOL    HW160108  13.211  14.765  14.561
19423SOL    HW260109  13.198  14.664  14.448
19424SOL     OW60110   6.395   7.008   4.261
19424SOL    HW160111   6.435   7.080   4.308
19424SOL    HW260112   6.376   7.043   4.174
19425SOL     OW60113  13.978   9.828   4.381
19425SOL    HW160114  13.913   9.898   4.391
19425SOL    HW260115  14.050   9.869   4.333
19426SOL     OW60116   9.054   6.922   5.752
19426SOL    HW160117   9.043   7.016   5.771
19426SOL    HW260118   9.116   6.892   5.819
19427SOL     OW60119  13.635   0.834  12.358
19427SOL    HW160120  13.613   0.814  12.267
19427SOL    HW260121  13.567   0.894  12.387
19428SOL     OW60122   1.273  13.701  12.812
19428SOL    HW160123   1.268  13.618  12.860
19428SOL    HW260124   1.285  13.767  12.880
19429SOL     OW60125  13.744   8.216  11.304
19429SOL    HW160126  13.763   8.123  11.313
19429SOL    HW260127  13.755   8.251  11.392
19430SOL     OW60128  10.530  11.714  11.085
19430SOL    HW160129  10.512  11.759  11.168
19430SOL    HW260130  10.539  11.784  11.021
19431SOL     OW60131   0.812   2.444   4.465
19431SOL    HW160132   0.905   2.425   4.459
19431SOL    HW260133   0.792   2.434   4.558
19432SOL     OW60134   3.126  11.178   1.697
19432SOL    HW160135   3.164  11.259   1.730
19432SOL    HW260136   3.054  11.158   1.758
19433SOL     OW60137  11.166   6.534   9.440
19433SOL    HW160138  11.113   6.539   9.360
19433SOL    HW260139  11.146   6.614   9.488
19434SOL     OW60140   3.547   5.650   3.002
19434SOL    HW160141   3.553   5.742   3.026
19434SOL    HW260142   3.625   5.610   3.040
19435SOL     OW60143   2.420   6.027   1.902
19435SOL    HW160144   2.365   5.973   1.959
19435SOL    HW260145   2.366   6.104   1.883
19436SOL     OW60146  13.440   9.697  11.316
19436SOL    HW160147  13.367   9.674  11.373
19436SOL    HW260148  13.408   9.771  11.264
19437SOL     OW60149  13.068  14.380   4.483
19437SOL    HW160150  13.111  14.346   4.561
19437SOL    HW260151  13.053  14.473   4.502
19438SOL     OW60152   9.851   3.541   0.967
19438SOL    HW160153   9.903   3.570   1.042
19438SOL    HW260154   9.807   3.462   0.998
19439SOL     OW60155  12.301   5.511  10.280
19439SOL    HW160156  12.357   5.500  10.357
19439SOL    HW260157  12.295   5.606  10.269
19440SOL     OW60158   7.747   8.076  12.450
19440SOL    HW160159   7.743   8.154  12.396
19440SOL    HW260160   7.728   8.107  12.539
19441SOL     OW60161  10.914   3.535   2.567
19441SOL    HW160162  10.860   3.464   2.601
19441SOL    HW260163  10.865   3.615   2.588
19442SOL     OW60164   8.777  12.979  12.835
19442SOL    HW160165   8.860  13.015  12.868
19442SOL    HW260166   8.776  12.888  12.866
19443SOL     OW60167   6.461   1.164   0.584
19443SOL    HW160168   6.423   1.076   0.593
19443SOL    HW260169   6.508   1.178   0.666
19444SOL     OW60170   6.128   0.518   9.681
19444SOL    HW160171   6.033   0.505   9.685
19444SOL    HW260172   6.153   0.537   9.772
19445SOL     OW60173   6.373   3.616  10.544
19445SOL    HW160174   6.290   3.623  10.497
19445SOL    HW260175   6.351   3.640  10.634
19446SOL     OW60176   7.531  10.631   5.084
19446SOL    HW160177   7.485  10.694   5.028
19446SOL    HW260178   7.522  10.667   5.172
19447SOL     OW60179   8.638  14.436   8.652
19447SOL    HW160180   8.614  14.508   8.710
19447SOL    HW260181   8.729  14.416   8.674
19448SOL     OW60182   3.261  10.269   5.214
19448SOL    HW160183   3.303  10.354   5.204
19448SOL    HW260184   3.333  10.208   5.230
19449SOL     OW60185  14.286   3.245   3.224
19449SOL    HW160186  14.283   3.149   3.221
19449SOL    HW260187  14.358   3.265   3.283
19450SOL     OW60188   1.585   0.280   7.806
19450SOL    HW160189   1.659   0.340   7.796
19450SOL    HW260190   1.575   0.240   7.720
19451SOL     OW60191   4.182   4.036   6.454
19451SOL    HW160192   4.190   4.036   6.359
19451SOL    HW260193   4.091   4.061   6.471
19452SOL     OW60194  12.566  12.862   7.712
19452SOL    HW160195  12.563  12.958   7.718
19452SOL    HW260196  12.487  12.839   7.663
19453SOL     OW60197   0.001  11.447  14.813
19453SOL    HW160198   0.064  11.473  14.746
19453SOL    HW260199   0.055  11.431   0.018
19454SOL     OW60200   4.995   7.120  11.293
19454SOL    HW160201   5.039   7.185  11.347
19454SOL    HW260202   4.999   7.039  11.344
19455SOL     OW60203   0.849   4.324   7.986
19455SOL    HW160204   0.870   4.231   7.974
19455SOL    HW260205   0.918   4.370   7.940
19456SOL     OW60206   7.473   8.333   2.535
19456SOL    HW160207   7.402   8.279   2.500
19456SOL    HW260208   7.550   8.277   2.529
19457SOL     OW60209   8.869   8.103  11.326
19457SOL    HW160210   8.890   8.136  11.238
19457SOL    HW260211   8.777   8.127  11.338
19458SOL     OW60212  11.227   2.776   9.086
19458SOL    HW160213  11.239   2.687   9.120
19458SOL    HW260214  11.283   2.779   9.008
19459SOL     OW60215   1.628  10.337   4.672
19459SOL    HW160216   1.584  10.412   4.713
19459SOL    HW260217   1.643  10.276   4.744
19460SOL     OW60218  14.662   9.371   7.539
19460SOL    HW160219  14.601   9.313   7.494
19460SOL    HW260220  14.725   9.311   7.581
19461SOL     OW60221   2.725  12.954   7.772
19461SOL    HW160222   2.793  12.915   7.717
19461SOL    HW260223   2.670  12.880   7.798
19462SOL     OW60224   6.384  13.442   0.139
19462SOL    HW160225   6.328  13.501   0.189
19462SOL    HW260226   6.370  13.355   0.178
19463SOL     OW60227  12.964  14.867  14.332
19463SOL    HW160228  13.001  14.857  14.244
19463SOL    HW260229  13.020  14.812  14.387
19464SOL     OW60230  13.202   9.474   0.667
19464SOL    HW160231  13.222   9.387   0.702
19464SOL    HW260232  13.107   9.478   0.666
19465SOL     OW60233  14.284   0.965   5.800
19465SOL    HW160234  14.316   0.903   5.736
19465SOL    HW260235  14.191   0.973   5.782
19466SOL     OW60236   3.487  10.676   0.632
19466SOL    HW160237   3.522  10.596   0.592
19466SOL    HW260238   3.393  10.668   0.621
19467SOL     OW60239   5.821   0.653   5.052
19467SOL    HW160240   5.893   0.591   5.064
19467SOL    HW260241   5.779   0.626   4.970
19468SOL     OW60242  13.354   7.543   0.954
19468SOL    HW160243  13.398   7.628   0.950
19468SOL    HW260244  13.423   7.482   0.979
19469SOL     OW60245   2.832  10.644   4.878
19469SOL    HW160246   2.751  10.623   4.925
19469SOL    HW260247   2.898  10.589   4.919
19470SOL     OW60248   7.687   2.896   8.607
19470SOL    HW160249   7.713   2.826   8.668
19470SOL    HW260250   7.769   2.939   8.584
19471SOL     OW60251   1.587   0.069  12.768
19471SOL    HW160252   1.555   0.025  12.689
19471SOL    HW260253   1.679   0.088  12.750
19472SOL     OW60254  10.832   8.655   3.123
19472SOL    HW160255  10.811   8.583   3.184
19472SOL    HW260256  10.908   8.623   3.074
19473SOL     OW60257   8.277   0.030   2.028
19473SOL    HW160258   8.358   0.046   2.076
19473SOL    HW260259   8.209   0.031   2.095
19474SOL     OW60260   8.654  14.588  10.011
19474SOL    HW160261   8.739  14.552  10.039
19474SOL    HW260262   8.641  14.664  10.068
19475SOL     OW60263  10.781   2.150   2.619
19475SOL    HW160264  10.818   2.236   2.639
19475SOL    HW260265  10.832   2.119   2.544
19476SOL     OW60266   6.324   3.789   5.154
19476SOL    HW160267   6.293   3.814   5.241
19476SOL    HW260268   6.244   3.765   5.106
19477SOL     OW60269   9.062  12.466  11.075
19477SOL    HW160270   9.041  12.555  11.102
19477SOL    HW260271   8.985  12.437  11.026
19478SOL     OW60272   7.970  12.800   5.455
19478SOL    HW160273   8.008  12.859   5.389
19478SOL    HW260274   8.043  12.778   5.512
19479SOL     OW60275   3.431   6.949  10.062
19479SOL    HW160276   3.406   6.874  10.117
19479SOL    HW260277   3.419   7.025  10.119
19480SOL     OW60278  11.814  13.402   5.409
19480SOL    HW160279  11.766  13.404   5.327
19480SOL    HW260280  11.766  13.341   5.464
19481SOL     OW60281   2.359  10.768   8.708
19481SOL    HW160282   2.363  10.828   8.783
19481SOL    HW260283   2.400  10.816   8.636
19482SOL     OW60284   6.857  10.235   0.454
19482SOL    HW160285   6.784  10.267   0.507
19482SOL    HW260286   6.866  10.300   0.385
19483SOL     OW60287   9.565  13.062   5.183
19483SOL    HW160288   9.501  13.118   5.227
19483SOL    HW260289   9.512  12.995   5.139
19484SOL     OW60290   3.402   0.979   5.168
19484SOL    HW160291   3.450   1.000   5.248
19484SOL    HW260292   3.469   0.948   5.107
19485SOL     OW60293  12.029  14.373   1.443
19485SOL    HW160294  12.085  14.311   1.490
19485SOL    HW260295  11.940  14.347   1.465
19486SOL     OW60296   8.135   5.324   0.034
19486SOL    HW160297   8.199   5.298  14.841
19486SOL    HW260298   8.057   5.348  14.856
19487SOL     OW60299   2.143   2.343   9.045
19487SOL    HW160300   2.100   2.359   9.130
19487SOL    HW260301   2.160   2.249   9.045
19488SOL     OW60302   0.287  13.252   1.408
19488SOL    HW160303   0.231  13.313   1.359
19488SOL    HW260304   0.327  13.306   1.476
19489SOL     OW60305   8.967   7.122   8.468
19489SOL    HW160306   8.874   7.109   8.485
19489SOL    HW260307   8.995   7.040   8.426
19490SOL     OW60308   3.573  11.671   7.310
19490SOL    HW160309   3.499  11.726   7.336
19490SOL    HW260310   3.650  11.719   7.340
19491SOL     OW60311   9.700   9.544   2.805
19491SOL    HW160312   9.731   9.551   2.895
19491SOL    HW260313   9.780   9.539   2.752
19492SOL     OW60314  10.038   8.881  13.682
19492SOL    HW160315   9.963   8.821  13.684
19492SOL    HW260316  10.053   8.897  13.589
19493SOL     OW60317   8.956  12.857   7.530
19493SOL    HW160318   8.948  12.882   7.438
19493SOL    HW260319   8.989  12.767   7.528
19494SOL     OW60320   3.450  12.616   8.051
19494SOL    HW160321   3.505  12.608   7.972
19494SOL    HW260322   3.408  12.701   8.042
19495SOL     OW60323  14.446   6.167   4.227
19495SOL    HW160324  14.362   6.150   4.270
19495SOL    HW260325  14.485   6.080   4.215
19496SOL     OW60326   6.194  12.783   8.680
19496SOL    HW160327   6.106  12.812   8.704
19496SOL    HW260328   6.232  12.858   8.634
19497SOL     OW60329  13.594   5.582   8.355
19497SOL    HW160330  13.606   5.487   8.357
19497SOL    HW260331  13.626   5.612   8.440
19498SOL     OW60332   9.719   2.084  10.150
19498SOL    HW160333   9.645   2.027  10.172
19498SOL    HW260334   9.779   2.029  10.101
19499SOL     OW60335   0.623   3.063  11.180
19499SOL    HW160336   0.660   3.138  11.134
19499SOL    HW260337   0.673   3.056  11.261
19500SOL     OW60338   3.997  10.086   3.786
19500SOL    HW160339   3.955  10.171   3.790
19500SOL    HW260340   4.078  10.097   3.836
19501SOL     OW60341   8.645  11.465   8.154
19501SOL    HW160342   8.619  11.550   8.117
19501SOL    HW260343   8.740  11.469   8.157
19502SOL     OW60344  10.391   1.831   2.761
19502SOL    HW160345  10.318   1.847   2.821
19502SOL    HW260346  10.464   1.880   2.798
19503SOL     OW60347   0.265  12.448  12.472
19503SOL    HW160348   0.335  12.392  12.506
19503SOL    HW260349   0.191  12.433  12.531
19504SOL     OW60350  14.749  13.612   2.399
19504SOL    HW160351  14.727  13.609   2.306
19504SOL    HW260352  14.763  13.705   2.417
19505SOL     OW60353   6.065   3.218  10.680
19505SOL    HW160354   6.008   3.266  10.619
19505SOL    HW260355   6.142   3.274  10.689
19506SOL     OW60356  11.767   6.296  10.212
19506SOL    HW160357  11.707   6.354  10.165
19506SOL    HW260358  11.838   6.280  10.150
19507SOL     OW60359  11.433   9.624  10.846
19507SOL    HW160360  11.419   9.539  10.804
19507SOL    HW260361  11.405   9.611  10.937
19508SOL     OW60362   1.175   0.819  11.128
19508SOL    HW160363   1.259   0.823  11.083
19508SOL    HW260364   1.192   0.856  11.215
19509SOL     OW60365   1.341   3.417   7.508
19509SOL    HW160366   1.252   3.428   7.475
19509SOL    HW260367   1.333   3.430   7.603
19510SOL     OW60368   6.804   6.463   8.964
19510SOL    HW160369   6.832   6.424   9.047
19510SOL    HW260370   6.720   6.504   8.984
19511SOL     OW60371   9.564   4.668   1.854
19511SOL    HW160372   9.490   4.629   1.900
19511SOL    HW260373   9.596   4.598   1.797
19512SOL     OW60374  12.432   4.970  10.549
19512SOL    HW160375  12.404   5.026  10.476
19512SOL    HW260376  12.367   4.986  10.618
19513SOL     OW60377   5.314   5.450   4.890
19513SOL    HW160378   5.315   5.525   4.831
19513SOL    HW260379   5.259   5.477   4.963
19514SOL     OW60380   0.029   4.440  12.008
19514SOL    HW160381  14.822   4.488  11.987
19514SOL    HW260382   0.013   4.402  12.094
19515SOL     OW60383   6.776   1.889   4.904
19515SOL    HW160384   6.733   1.860   4.984
19515SOL    HW260385   6.780   1.984   4.911
19516SOL     OW60386  14.046   0.806  11.681
19516SOL    HW160387  14.095   0.860  11.620
19516SOL    HW260388  13.987   0.868  11.725
19517SOL     OW60389   8.825   3.976   1.476
19517SOL    HW160390   8.834   3.913   1.404
19517SOL    HW260391   8.819   3.922   1.555
19518SOL     OW60392   2.747   2.380  12.521
19518SOL    HW160393   2.830   2.402  12.562
19518SOL    HW260394   2.754   2.286  12.502
19519SOL     OW60395   6.625  14.332   0.410
19519SOL    HW160396   6.672  14.305   0.489
19519SOL    HW260397   6.553  14.387   0.443
19520SOL     OW60398  11.638   3.838   3.824
19520SOL    HW160399  11.718   3.840   3.771
19520SOL    HW260400  11.641   3.919   3.874
19521SOL     OW60401   7.102   4.146   8.802
19521SOL    HW160402   7.135   4.064   8.767
19521SOL    HW260403   7.163   4.169   8.872
19522SOL     OW60404  14.765   6.105   4.477
19522SOL    HW160405  14.777   6.066   4.564
19522SOL    HW260406  14.854   6.120   4.445
19523SOL     OW60407   2.263  10.902   0.727
19523SOL    HW160408   2.286  10.881   0.818
19523SOL    HW260409   2.168  10.893   0.724
19524SOL     OW60410   8.029   6.166  13.287
19524SOL    HW160411   7.987   6.093  13.332
19524SOL    HW260412   7.964   6.196  13.223
19525SOL     OW60413  13.904   0.256   7.927
19525SOL    HW160414  13.878   0.299   7.845
19525SOL    HW260415  13.875   0.166   7.916
19526SOL     OW60416   3.939   3.508   5.305
19526SOL    HW160417   3.946   3.413   5.296
19526SOL    HW260418   3.845   3.525   5.307
19527SOL     OW60419   3.977   9.602  11.546
19527SOL    HW160420   4.054   9.549  11.523
19527SOL    HW260421   3.926   9.607  11.466
19528SOL     OW60422  10.082   8.924   1.567
19528SOL    HW160423  10.093   8.835   1.600
19528SOL    HW260424  10.020   8.915   1.495
19529SOL     OW60425  11.925   9.142   0.275
19529SOL    HW160426  11.914   9.153   0.370
19529SOL    HW260427  12.018   9.155   0.260
19530SOL     OW60428   1.007   5.796   7.909
19530SOL    HW160429   1.100   5.818   7.904
19530SOL    HW260430   1.003   5.725   7.974
19531SOL     OW60431   1.983  14.086   9.692
19531SOL    HW160432   1.891  14.082   9.717
19531SOL    HW260433   2.019  14.001   9.720
19532SOL     OW60434   4.815   7.882   5.878
19532SOL    HW160435   4.799   7.960   5.826
19532SOL    HW260436   4.892   7.842   5.837
19533SOL     OW60437   1.468   0.792  13.047
19533SOL    HW160438   1.560   0.770  13.061
19533SOL    HW260439   1.431   0.717  13.002
19534SOL     OW60440   6.961  10.789   5.663
19534SOL    HW160441   7.046  10.832   5.661
19534SOL    HW260442   6.898  10.861   5.666
19535SOL     OW60443  14.624   3.619  10.715
19535SOL    HW160444  14.662   3.625  10.802
19535SOL    HW260445  14.532   3.598  10.731
19536SOL     OW60446   7.549   0.321   6.178
19536SOL    HW160447   7.582   0.401   6.219
19536SOL    HW260448   7.571   0.252   6.240
19537SOL     OW60449   1.985   4.601  11.721
19537SOL    HW160450   1.953   4.627  11.807
19537SOL    HW260451   2.060   4.659  11.705
19538SOL     OW60452   8.789  12.027   2.853
19538SOL    HW160453   8.808  12.009   2.945
19538SOL    HW260454   8.728  11.959   2.827
19539SOL     OW60455   0.741   6.936   9.608
19539SOL    HW160456   0.709   6.952   9.520
19539SOL    HW260457   0.836   6.926   9.598
19540SOL     OW60458   6.477   6.513   6.944
19540SOL    HW160459   6.384   6.527   6.960
19540SOL    HW260460   6.499   6.577   6.876
19541SOL     OW60461   3.690  12.907   3.544
19541SOL    HW160462   3.609  12.921   3.592
19541SOL    HW260463   3.663  12.860   3.465
19542SOL     OW60464   4.920  13.963   4.888
19542SOL    HW160465   4.910  14.039   4.945
19542SOL    HW260466   4.901  13.996   4.800
19543SOL     OW60467   2.950  10.157   0.871
19543SOL    HW160468   2.904  10.079   0.841
19543SOL    HW260469   3.034  10.124   0.903
19544SOL     OW60470  13.395  11.591   4.159
19544SOL    HW160471  13.457  11.661   4.177
19544SOL    HW260472  13.377  11.597   4.065
19545SOL     OW60473   4.359   9.687   4.841
19545SOL    HW160474   4.430   9.743   4.872
19545SOL    HW260475   4.377   9.675   4.748
19546SOL     OW60476  11.780   0.995   7.489
19546SOL    HW160477  11.754   0.922   7.545
19546SOL    HW260478  11.734   1.071   7.525
19547SOL     OW60479  14.444  13.574   3.993
19547SOL    HW160480  14.508  13.514   3.956
19547SOL    HW260481  14.496  13.643   4.035
19548SOL     OW60482   1.265  12.988  11.087
19548SOL    HW160483   1.219  12.954  11.164
19548SOL    HW260484   1.280  13.080  11.106
19549SOL     OW60485   6.021  11.144  13.037
19549SOL    HW160486   6.105  11.187  13.024
19549SOL    HW260487   6.028  11.062  12.988
19550SOL     OW60488   3.344   0.908  13.290
19550SOL    HW160489   3.327   0.850  13.215
19550SOL    HW260490   3.408   0.971  13.257
19551SOL     OW60491  14.049   8.596  11.326
19551SOL    HW160492  14.126   8.543  11.303
19551SOL    HW260493  14.014   8.554  11.405
19552SOL     OW60494   0.987   5.392   2.575
19552SOL    HW160495   0.970   5.422   2.485
19552SOL    HW260496   1.061   5.446   2.604
19553SOL     OW60497   3.057   0.491  14.559
19553SOL    HW160498   3.008   0.431  14.615
19553SOL    HW260499   3.144   0.451  14.552
19554SOL     OW60500   4.429   4.649   6.294
19554SOL    HW160501   4.423   4.554   6.307
19554SOL    HW260502   4.443   4.685   6.381
19555SOL     OW60503   9.232  10.243   4.931
19555SOL    HW160504   9.281  10.325   4.933
19555SOL    HW260505   9.141  10.270   4.941
19556SOL     OW60506   1.565  10.787   4.349
19556SOL    HW160507   1.498  10.853   4.333
19556SOL    HW260508   1.595  10.761   4.262
19557SOL     OW60509   2.183   8.427   9.077
19557SOL    HW160510   2.191   8.513   9.035
19557SOL    HW260511   2.247   8.372   9.033
19558SOL     OW60512   8.938   5.101   2.348
19558SOL    HW160513   8.974   5.061   2.269
19558SOL    HW260514   8.874   5.164   2.316
19559SOL     OW60515  10.728  11.892   2.430
19559SOL    HW160516  10.724  11.825   2.498
19559SOL    HW260517  10.819  11.922   2.431
19560SOL     OW60518   2.715   3.084   3.842
19560SOL    HW160519   2.690   3.126   3.760
19560SOL    HW260520   2.648   3.017   3.857
19561SOL     OW60521   1.847  12.846   1.545
19561SOL    HW160522   1.867  12.870   1.635
19561SOL    HW260523   1.837  12.751   1.547
19562SOL     OW60524  14.173   6.817   9.742
19562SOL    HW160525  14.258   6.855   9.763
19562SOL    HW260526  14.138   6.874   9.673
19563SOL     OW60527   6.443   5.193  14.716
19563SOL    HW160528   6.428   5.146  14.799
19563SOL    HW260529   6.356   5.197  14.676
19564SOL     OW60530  13.750  11.352  14.658
19564SOL    HW160531  13.758  11.447  14.672
19564SOL    HW260532  13.832  11.316  14.690
19565SOL     OW60533   6.611   8.282   5.507
19565SOL    HW160534   6.693   8.261   5.553
19565SOL    HW260535   6.601   8.377   5.518
19566SOL     OW60536   1.833   1.292   5.018
19566SOL    HW160537   1.864   1.237   5.090
19566SOL    HW260538   1.815   1.377   5.057
19567SOL     OW60539   4.434  10.014  13.232
19567SOL    HW160540   4.471  10.093  13.271
19567SOL    HW260541   4.342  10.016  13.257
19568SOL     OW60542   5.972  11.712  13.175
19568SOL    HW160543   6.018  11.793  13.199
19568SOL    HW260544   6.041  11.653  13.145
19569SOL     OW60545   9.011  14.625   1.759
19569SOL    HW160546   9.089  14.659   1.715
19569SOL    HW260547   9.044  14.592   1.843
19570SOL     OW60548  11.323  13.017  14.453
19570SOL    HW160549  11.280  13.038  14.370
19570SOL    HW260550  11.258  13.041  14.520
19571SOL     OW60551  12.837  12.525   0.816
19571SOL    HW160552  12.868  12.528   0.907
19571SOL    HW260553  12.828  12.431   0.797
19572SOL     OW60554   9.648   0.746   6.402
19572SOL    HW160555   9.693   0.748   6.487
19572SOL    HW260556   9.657   0.835   6.368
19573SOL     OW60557   9.168  13.988   5.086
19573SOL    HW160558   9.144  13.904   5.048
19573SOL    HW260559   9.250  13.971   5.133
19574SOL     OW60560   4.662   8.538  11.278
19574SOL    HW160561   4.744   8.526  11.327
19574SOL    HW260562   4.690   8.561  11.190
19575SOL     OW60563   1.494  10.709  13.952
19575SOL    HW160564   1.576  10.673  13.917
19575SOL    HW260565   1.480  10.790  13.904
19576SOL     OW60566  14.019   1.911   6.870
19576SOL    HW160567  13.973   1.905   6.786
19576SOL    HW260568  14.106   1.943   6.847
19577SOL     OW60569   7.662   4.814  10.589
19577SOL    HW160570   7.645   4.754  10.662
19577SOL    HW260571   7.694   4.758  10.519
19578SOL     OW60572  13.667   4.934   2.209
19578SOL    HW160573  13.696   4.957   2.121
19578SOL    HW260574  13.575   4.961   2.212
19579SOL     OW60575  11.900   6.662   3.092
19579SOL    HW160576  11.917   6.710   3.011
19579SOL    HW260577  11.841   6.591   3.065
19580SOL     OW60578   8.979  13.765   9.414
19580SOL    HW160579   8.946  13.853   9.397
19580SOL    HW260580   8.929  13.734   9.490
19581SOL     OW60581  14.460  13.433   6.207
19581SOL    HW160582  14.436  13.364   6.269
19581SOL    HW260583  14.550  13.413   6.182
19582SOL     OW60584   9.565   1.474  10.718
19582SOL    HW160585   9.605   1.449  10.634
19582SOL    HW260586   9.591   1.404  10.778
19583SOL     OW60587   6.558   2.925   4.037
19583SOL    HW160588   6.628   2.931   3.971
19583SOL    HW260589   6.602   2.890   4.115
19584SOL     OW60590  11.554   9.310   3.364
19584SOL    HW160591  11.517   9.302   3.276
19584SOL    HW260592  11.481   9.288   3.423
19585SOL     OW60593   1.222  14.071   7.061
19585SOL    HW160594   1.130  14.047   7.075
19585SOL    HW260595   1.269  14.023   7.129
19586SOL     OW60596   0.980   7.918  12.204
19586SOL    HW160597   1.017   7.879  12.283
19586SOL    HW260598   1.011   7.862  12.133
19587SOL     OW60599  12.515  10.752   9.873
19587SOL    HW160600  12.461  10.721   9.945
19587SOL    HW260601  12.565  10.825   9.910
19588SOL     OW60602   2.772   6.128  10.934
19588SOL    HW160603   2.726   6.141  11.016
19588SOL    HW260604   2.718   6.171  10.868
19589SOL     OW60605  14.310   8.956   5.777
19589SOL    HW160606  14.353   9.042   5.779
19589SOL    HW260607  14.383   8.894   5.769
19590SOL     OW60608   4.371   2.096   0.241
19590SOL    HW160609   4.431   2.148   0.188
19590SOL    HW260610   4.298   2.077   0.183
19591SOL     OW60611  13.345   1.497   7.900
19591SOL    HW160612  13.289   1.555   7.951
19591SOL    HW260613  13.428   1.545   7.892
19592SOL     OW60614   8.196   2.871  10.536
19592SOL    HW160615   8.166   2.960  10.555
19592SOL    HW260616   8.116   2.821  10.519
19593SOL     OW60617   8.688  12.452   9.030
19593SOL    HW160618   8.750  12.519   9.001
19593SOL    HW260619   8.742  12.387   9.076
19594SOL     OW60620   9.999   9.794   3.980
19594SOL    HW160621  10.077   9.797   3.925
19594SOL    HW260622   9.951   9.874   3.960
19595SOL     OW60623   0.865   4.035   4.032
19595SOL    HW160624   0.940   3.998   3.984
19595SOL    HW260625   0.864   3.988   4.115
19596SOL     OW60626  12.301   8.708   0.875
19596SOL    HW160627  12.380   8.654   0.884
19596SOL    HW260628  12.278   8.702   0.782
19597SOL     OW60629   5.368   6.051   4.597
19597SOL    HW160630   5.462   6.048   4.579
19597SOL    HW260631   5.334   6.121   4.540
19598SOL     OW60632  12.114   6.414   0.666
19598SOL    HW160633  12.111   6.500   0.623
19598SOL    HW260634  12.156   6.357   0.602
19599SOL     OW60635   9.438   3.803  10.180
19599SOL    HW160636   9.509   3.752  10.139
19599SOL    HW260637   9.380   3.737  10.218
19600SOL     OW60638   4.818  14.071  14.544
19600SOL    HW160639   4.728  14.103  14.542
19600SOL    HW260640   4.810  13.976  14.539
19601SOL     OW60641   1.541   2.563   3.808
19601SOL    HW160642   1.473   2.496   3.796
19601SOL    HW260643   1.557   2.597   3.719
19602SOL     OW60644  14.692   6.401  13.355
19602SOL    HW160645  14.674   6.490  13.385
19602SOL    HW260646  14.653   6.344  13.421
19603SOL     OW60647   1.297  11.625  14.335
19603SOL    HW160648   1.287  11.564  14.408
19603SOL    HW260649   1.386  11.658  14.344
19604SOL     OW60650  10.520   4.252  11.540
19604SOL    HW160651  10.501   4.345  11.527
19604SOL    HW260652  10.567   4.226  11.461
19605SOL     OW60653   1.387   8.321   5.347
19605SOL    HW160654   1.472   8.358   5.371
19605SOL    HW260655   1.360   8.273   5.424
19606SOL     OW60656   0.104   1.450   7.901
19606SOL    HW160657   0.156   1.433   7.979
19606SOL    HW260658   0.150   1.520   7.855
19607SOL     OW60659   8.895   4.762   7.324
19607SOL    HW160660   8.822   4.722   7.372
19607SOL    HW260661   8.924   4.834   7.381
19608SOL     OW60662   2.416  12.614   1.442
19608SOL    HW160663   2.452  12.554   1.508
19608SOL    HW260664   2.442  12.701   1.471
19609SOL     OW60665   7.877   9.634   8.478
19609SOL    HW160666   7.953   9.634   8.536
19609SOL    HW260667   7.889   9.559   8.421
19610SOL     OW60668   5.540   9.118  10.492
19610SOL    HW160669   5.592   9.195  10.471
19610SOL    HW260670   5.604   9.053  10.521
19611SOL     OW60671   4.414   2.847   6.954
19611SOL    HW160672   4.418   2.935   6.989
19611SOL    HW260673   4.351   2.853   6.882
19612SOL     OW60674   2.605   9.983   4.084
19612SOL    HW160675   2.679   9.925   4.103
19612SOL    HW260676   2.550   9.933   4.023
19613SOL     OW60677  12.714   9.021  13.079
19613SOL    HW160678  12.677   8.933  13.089
19613SOL    HW260679  12.650   9.078  13.122
19614SOL     OW60680  14.299  14.606   3.324
19614SOL    HW160681  14.220  14.660   3.327
19614SOL    HW260682  14.366  14.660   3.365
19615SOL     OW60683   1.889   7.674   4.233
19615SOL    HW160684   1.913   7.690   4.324
19615SOL    HW260685   1.936   7.740   4.183
19616SOL     OW60686  14.111   5.911  12.052
19616SOL    HW160687  14.203   5.888  12.038
19616SOL    HW260688  14.105   5.927  12.147
19617SOL     OW60689   5.436   7.109   7.683
19617SOL    HW160690   5.437   7.180   7.748
19617SOL    HW260691   5.480   7.036   7.725
19618SOL     OW60692  12.943   0.948   0.293
19618SOL    HW160693  12.962   0.876   0.233
19618SOL    HW260694  13.008   0.940   0.363
19619SOL     OW60695   5.727  13.990   4.627
19619SOL    HW160696   5.795  13.924   4.638
19619SOL    HW260697   5.656  13.960   4.684
19620SOL     OW60698   6.557  12.658   9.344
19620SOL    HW160699   6.506  12.581   9.320
19620SOL    HW260700   6.648  12.632   9.332
19621SOL     OW60701   2.014  10.776   9.826
19621SOL    HW160702   2.058  10.838   9.885
19621SOL    HW260703   2.071  10.699   9.825
19622SOL     OW60704   9.598   5.500  11.695
19622SOL    HW160705   9.593   5.552  11.775
19622SOL    HW260706   9.662   5.432  11.715
19623SOL     OW60707   7.609   6.472  12.736
19623SOL    HW160708   7.588   6.533  12.807
19623SOL    HW260709   7.526   6.430  12.715
19624SOL     OW60710   1.877   2.721   1.202
19624SOL    HW160711   1.958   2.748   1.158
19624SOL    HW260712   1.906   2.674   1.280
19625SOL     OW60713   1.252   2.087   2.454
19625SOL    HW160714   1.333   2.079   2.505
19625SOL    HW260715   1.200   2.010   2.479
19626SOL     OW60716  11.081  12.041   1.088
19626SOL    HW160717  11.101  12.006   1.175
19626SOL    HW260718  11.034  11.970   1.044
19627SOL     OW60719   5.594   5.660   9.315
19627SOL    HW160720   5.625   5.725   9.378
19627SOL    HW260721   5.527   5.706   9.264
19628SOL     OW60722   3.182  11.582   8.439
19628SOL    HW160723   3.254  11.532   8.402
19628SOL    HW260724   3.221  11.634   8.508
19629SOL     OW60725  13.863   1.707  13.526
19629SOL    HW160726  13.866   1.711  13.430
19629SOL    HW260727  13.770   1.712  13.547
19630SOL     OW60728  12.570   0.319   9.740
19630SOL    HW160729  12.507   0.266   9.690
19630SOL    HW260730  12.571   0.403   9.695
19631SOL     OW60731   8.494   9.254   8.796
19631SOL    HW160732   8.434   9.181   8.811
19631SOL    HW260733   8.576   9.226   8.838
19632SOL     OW60734   9.524   6.592  10.883
19632SOL    HW160735   9.552   6.672  10.838
19632SOL    HW260736   9.522   6.526  10.815
19633SOL     OW60737   8.629   4.465   5.975
19633SOL    HW160738   8.707   4.426   6.014
19633SOL    HW260739   8.594   4.398   5.917
19634SOL     OW60740   9.350   3.951   8.723
19634SOL    HW160741   9.362   3.923   8.632
19634SOL    HW260742   9.426   4.006   8.742
19635SOL     OW60743  10.854   8.185   4.303
19635SOL    HW160744  10.820   8.260   4.351
19635SOL    HW260745  10.836   8.110   4.360
19636SOL     OW60746  10.243   2.594  10.661
19636SOL    HW160747  10.288   2.549  10.733
19636SOL    HW260748  10.171   2.641  10.702
19637SOL     OW60749   6.004   1.952   7.151
19637SOL    HW160750   5.965   1.913   7.073
19637SOL    HW260751   6.087   1.905   7.163
19638SOL     OW60752   6.774   0.422   4.637
19638SOL    HW160753   6.758   0.328   4.634
19638SOL    HW260754   6.854   0.435   4.586
19639SOL     OW60755   9.056  14.659  10.321
19639SOL    HW160756   9.088  14.592  10.382
19639SOL    HW260757   9.135  14.708  10.296
19640SOL     OW60758   2.699   3.263   1.066
19640SOL    HW160759   2.689   3.174   1.100
19640SOL    HW260760   2.671   3.319   1.138
19641SOL     OW60761   6.621  14.156  13.374
19641SOL    HW160762   6.627  14.065  13.346
19641SOL    HW260763   6.711  14.188  13.369
19642SOL     OW60764   7.904   3.820  11.923
19642SOL    HW160765   7.849   3.744  11.945
19642SOL    HW260766   7.907   3.820  11.828
19643SOL     OW60767   9.303   1.983   2.685
19643SOL    HW160768   9.358   1.944   2.753
19643SOL    HW260769   9.214   1.969   2.716
19644SOL     OW60770   9.669  10.821  14.336
19644SOL    HW160771   9.623  10.876  14.400
19644SOL    HW260772   9.604  10.757  14.309
19645SOL     OW60773  14.017   4.558   4.162
19645SOL    HW160774  13.926   4.563   4.134
19645SOL    HW260775  14.017   4.590   4.252
19646SOL     OW60776   8.510  13.641  14.361
19646SOL    HW160777   8.547  13.582  14.295
19646SOL    HW260778   8.441  13.591  14.402
19647SOL     OW60779  10.807  12.464   6.091
19647SOL    HW160780  10.832  12.445   6.182
19647SOL    HW260781  10.760  12.547   6.096
19648SOL     OW60782   9.054   9.064  10.603
19648SOL    HW160783   9.030   9.000  10.536
19648SOL    HW260784   9.074   9.011  10.680
19649SOL     OW60785   2.866   8.188   1.074
19649SOL    HW160786   2.894   8.205   1.165
19649SOL    HW260787   2.938   8.137   1.037
19650SOL     OW60788   0.637  12.901   8.815
19650SOL    HW160789   0.713  12.955   8.792
19650SOL    HW260790   0.563  12.961   8.810
19651SOL     OW60791  13.412  12.148   8.922
19651SOL    HW160792  13.481  12.083   8.906
19651SOL    HW260793  13.456  12.218   8.971
19652SOL     OW60794   3.437   7.075   9.777
19652SOL    HW160795   3.426   7.014   9.850
19652SOL    HW260796   3.366   7.052   9.717
19653SOL     OW60797   9.221  14.812   1.015
19653SOL    HW160798   9.193  14.835   1.104
19653SOL    HW260799   9.296  14.755   1.028
19654SOL     OW60800   2.542  11.026   6.669
19654SOL    HW160801   2.447  11.015   6.661
19654SOL    HW260802   2.567  10.964   6.737
19655SOL     OW60803  14.602   1.099   6.452
19655SOL    HW160804  14.669   1.040   6.416
19655SOL    HW260805  14.651   1.174   6.485
19656SOL     OW60806   7.932   1.808   3.368
19656SOL    HW160807   7.876   1.832   3.294
19656SOL    HW260808   7.905   1.867   3.438
19657SOL     OW60809   0.568  13.923   0.375
19657SOL    HW160810   0.531  13.847   0.331
19657SOL    HW260811   0.493  13.961   0.422
19658SOL     OW60812  11.627  12.110  12.813
19658SOL    HW160813  11.650  12.069  12.897
19658SOL    HW260814  11.615  12.202  12.834
19659SOL     OW60815   6.197  13.689  14.397
19659SOL    HW160816   6.232  13.648  14.476
19659SOL    HW260817   6.214  13.626  14.328
19660SOL     OW60818  13.050   8.076   2.227
19660SOL    HW160819  13.120   8.033   2.276
19660SOL    HW260820  12.971   8.057   2.278
19661SOL     OW60821   6.173   5.715  10.296
19661SOL    HW160822   6.234   5.789  10.301
19661SOL    HW260823   6.086   5.756  10.293
19662SOL     OW60824  13.830  11.237   3.846
19662SOL    HW160825  13.763  11.281   3.898
19662SOL    HW260826  13.781  11.193   3.776
19663SOL     OW60827   3.224   2.148   7.674
19663SOL    HW160828   3.272   2.230   7.664
19663SOL    HW260829   3.227   2.129   7.768
19664SOL     OW60830  14.139   3.795   7.171
19664SOL    HW160831  14.113   3.883   7.198
19664SOL    HW260832  14.174   3.806   7.082
19665SOL     OW60833  11.626  14.494   4.966
19665SOL    HW160834  11.711  14.475   4.926
19665SOL    HW260835  11.564  14.442   4.915
19666SOL     OW60836  10.711   7.905   8.745
19666SOL    HW160837  10.666   7.865   8.671
19666SOL    HW260838  10.804   7.893   8.727
19667SOL     OW60839   4.550  11.170  14.547
19667SOL    HW160840   4.460  11.169  14.580
19667SOL    HW260841   4.544  11.217  14.464
19668SOL     OW60842   6.371  12.337   8.134
19668SOL    HW160843   6.384  12.429   8.158
19668SOL    HW260844   6.451  12.313   8.088
19669SOL     OW60845  10.276   7.466  10.959
19669SOL    HW160846  10.325   7.437  11.036
19669SOL    HW260847  10.184   7.460  10.986
19670SOL     OW60848   6.111  11.486  10.036
19670SOL    HW160849   6.182  11.468   9.974
19670SOL    HW260850   6.073  11.400  10.055
19671SOL     OW60851   2.012   1.910   7.223
19671SOL    HW160852   2.104   1.902   7.197
19671SOL    HW260853   2.012   1.889   7.317
19672SOL     OW60854   9.324  13.980  14.156
19672SOL    HW160855   9.366  13.940  14.232
19672SOL    HW260856   9.357  13.930  14.082
19673SOL     OW60857  10.786   4.311   0.000
19673SOL    HW160858  10.710   4.285   0.053
19673SOL    HW260859  10.851   4.243   0.018
19674SOL     OW60860   9.316   5.213   4.663
19674SOL    HW160861   9.356   5.292   4.627
19674SOL    HW260862   9.389   5.161   4.695
19675SOL     OW60863  10.985   9.070   7.712
19675SOL    HW160864  11.048   9.142   7.713
19675SOL    HW260865  10.912   9.101   7.765
19676SOL     OW60866  12.533  11.557  11.874
19676SOL    HW160867  12.450  11.556  11.827
19676SOL    HW260868  12.598  11.528  11.809
19677SOL     OW60869  11.250   3.989   6.377
19677SOL    HW160870  11.302   3.934   6.319
19677SOL    HW260871  11.159   3.973   6.348
19678SOL     OW60872   0.897   2.907  12.329
19678SOL    HW160873   0.879   2.831  12.386
19678SOL    HW260874   0.831   2.972  12.354
19679SOL     OW60875   7.425  13.642   0.224
19679SOL    HW160876   7.385  13.558   0.201
19679SOL    HW260877   7.483  13.621   0.297
19680SOL     OW60878   1.277  13.775   0.996
19680SOL    HW160879   1.298  13.695   0.949
19680SOL    HW260880   1.241  13.834   0.930
19681SOL     OW60881  10.510   1.599   8.021
19681SOL    HW160882  10.504   1.506   8.001
19681SOL    HW260883  10.604   1.618   8.018
19682SOL     OW60884  12.543   7.402  12.153
19682SOL    HW160885  12.579   7.342  12.088
19682SOL    HW260886  12.616   7.421  12.212
19683SOL     OW60887   1.483   7.924   7.464
19683SOL    HW160888   1.462   7.856   7.528
19683SOL    HW260889   1.578   7.933   7.469
19684SOL     OW60890  11.370  11.886   3.678
19684SOL    HW160891  11.391  11.837   3.757
19684SOL    HW260892  11.292  11.844   3.643
19685SOL     OW60893   2.457   6.212   9.925
19685SOL    HW160894   2.494   6.140   9.874
19685SOL    HW260895   2.478   6.290   9.874
19686SOL     OW60896   0.139   7.168   5.779
19686SOL    HW160897   0.232   7.183   5.796
19686SOL    HW260898   0.131   7.182   5.684
19687SOL     OW60899   1.748  10.578   3.939
19687SOL    HW160900   1.738  10.603   3.847
19687SOL    HW260901   1.837  10.545   3.945
19688SOL     OW60902  11.398  12.349  13.287
19688SOL    HW160903  11.359  12.263  13.269
19688SOL    HW260904  11.362  12.406  13.219
19689SOL     OW60905  11.254  12.480  11.323
19689SOL    HW160906  11.321  12.449  11.262
19689SOL    HW260907  11.301  12.490  11.406
19690SOL     OW60908  13.558   7.639   6.770
19690SOL    HW160909  13.624   7.708   6.777
19690SOL    HW260910  13.534   7.619   6.861
19691SOL     OW60911   9.572   6.538   2.649
19691SOL    HW160912   9.590   6.513   2.558
19691SOL    HW260913   9.542   6.629   2.643
19692SOL     OW60914  11.748   2.985   0.460
19692SOL    HW160915  11.679   3.014   0.519
19692SOL    HW260916  11.707   2.980   0.374
19693SOL     OW60917  13.268  12.640   1.618
19693SOL    HW160918  13.264  12.728   1.656
19693SOL    HW260919  13.202  12.590   1.666
19694SOL     OW60920   8.977   5.469   1.950
19694SOL    HW160921   8.884   5.451   1.941
19694SOL    HW260922   8.982   5.550   2.000
19695SOL     OW60923  10.211   8.837   5.706
19695SOL    HW160924  10.281   8.835   5.642
19695SOL    HW260925  10.184   8.745   5.715
19696SOL     OW60926   6.354   1.338   3.783
19696SOL    HW160927   6.353   1.347   3.878
19696SOL    HW260928   6.433   1.384   3.755
19697SOL     OW60929   7.431   7.884  14.223
19697SOL    HW160930   7.516   7.915  14.252
19697SOL    HW260931   7.430   7.901  14.129
19698SOL     OW60932  14.358   8.286   7.771
19698SOL    HW160933  14.309   8.368   7.762
19698SOL    HW260934  14.369   8.275   7.865
19699SOL     OW60935  13.048  13.334  12.182
19699SOL    HW160936  12.964  13.346  12.226
19699SOL    HW260937  13.078  13.423  12.161
19700SOL     OW60938   0.656   7.047   9.348
19700SOL    HW160939   0.592   6.991   9.304
19700SOL    HW260940   0.672   7.118   9.285
19701SOL     OW60941  13.941   6.322   3.255
19701SOL    HW160942  13.999   6.247   3.244
19701SOL    HW260943  13.854   6.284   3.271
19702SOL     OW60944   1.774  11.783   2.920
19702SOL    HW160945   1.745  11.788   2.829
19702SOL    HW260946   1.859  11.740   2.917
19703SOL     OW60947   6.956   2.026   3.780
19703SOL    HW160948   6.957   1.989   3.868
19703SOL    HW260949   7.022   1.977   3.731
19704SOL     OW60950  12.227   5.829   1.327
19704SOL    HW160951  12.245   5.862   1.239
19704SOL    HW260952  12.300   5.770   1.346
19705SOL     OW60953   6.040   1.467   8.923
19705SOL    HW160954   6.102   1.531   8.889
19705SOL    HW260955   6.080   1.382   8.905
19706SOL     OW60956   0.407  10.673   4.238
19706SOL    HW160957   0.323  10.712   4.258
19706SOL    HW260958   0.464  10.747   4.216
19707SOL     OW60959   8.957   0.939  13.643
19707SOL    HW160960   9.040   0.942  13.691
19707SOL    HW260961   8.924   1.029  13.648
19708SOL     OW60962  14.021   0.236   1.926
19708SOL    HW160963  14.020   0.264   1.834
19708SOL    HW260964  13.942   0.274   1.964
19709SOL     OW60965   9.808   1.110   3.133
19709SOL    HW160966   9.792   1.016   3.125
19709SOL    HW260967   9.878   1.116   3.198
19710SOL     OW60968   2.097   2.586  13.997
19710SOL    HW160969   2.166   2.652  14.008
19710SOL    HW260970   2.140   2.502  14.014
19711SOL     OW60971   4.947  14.360  14.594
19711SOL    HW160972   4.940  14.355  14.499
19711SOL    HW260973   4.868  14.407  14.621
19712SOL     OW60974  14.459   0.811   7.677
19712SOL    HW160975  14.435   0.718   7.682
19712SOL    HW260976  14.521   0.824   7.748
19713SOL     OW60977   7.041   3.006   2.336
19713SOL    HW160978   6.947   3.022   2.320
19713SOL    HW260979   7.061   2.930   2.281
19714SOL     OW60980  12.313   8.191   8.593
19714SOL    HW160981  12.322   8.238   8.510
19714SOL    HW260982  12.395   8.144   8.603
19715SOL     OW60983   7.529   1.294   1.493
19715SOL    HW160984   7.449   1.346   1.490
19715SOL    HW260985   7.500   1.206   1.516
19716SOL     OW60986   5.074   3.872   9.964
19716SOL    HW160987   5.062   3.953   9.915
19716SOL    HW260988   5.014   3.879  10.038
19717SOL     OW60989  13.591  14.618  13.062
19717SOL    HW160990  13.657  14.568  13.013
19717SOL    HW260991  13.640  14.692  13.098
19718SOL     OW60992   1.023   3.608  12.440
19718SOL    HW160993   1.112   3.637  12.421
19718SOL    HW260994   0.970   3.647  12.370
19719SOL     OW60995   7.052   5.022   6.475
19719SOL    HW160996   7.068   5.115   6.458
19719SOL    HW260997   7.019   4.988   6.393
19720SOL     OW60998  14.516   2.058  12.938
19720SOL    HW160999  14.460   1.995  12.893
19720SOL    HW261000  14.465   2.139  12.939
19721SOL     OW61001   8.320   2.686  12.378
19721SOL    HW161002   8.283   2.742  12.311
19721SOL    HW261003   8.252   2.681  12.445
19722SOL     OW61004   0.015   6.939   7.647
19722SOL    HW161005   0.077   6.996   7.693
19722SOL    HW261006   0.068   6.893   7.582
19723SOL     OW61007   5.775   4.912   8.029
19723SOL    HW161008   5.751   4.932   8.120
19723SOL    HW261009   5.850   4.968   8.011
19724SOL     OW61010   1.114   8.039  11.317
19724SOL    HW161011   1.029   8.082  11.326
19724SOL    HW261012   1.162   8.064  11.396
19725SOL     OW61013   6.840   2.573  11.925
19725SOL    HW161014   6.844   2.631  12.002
19725SOL    HW261015   6.905   2.610  11.864
19726SOL     OW61016   1.790   0.584   3.051
19726SOL    HW161017   1.809   0.665   3.004
19726SOL    HW261018   1.721   0.607   3.113
19727SOL     OW61019  13.747   3.075   7.229
19727SOL    HW161020  13.665   3.124   7.222
19727SOL    HW261021  13.723   2.994   7.274
19728SOL     OW61022   5.761   5.363  14.149
19728SOL    HW161023   5.855   5.375  14.163
19728SOL    HW261024   5.752   5.271  14.124
19729SOL     OW61025   5.983   5.969   3.387
19729SOL    HW161026   5.953   5.902   3.325
19729SOL    HW261027   6.029   5.919   3.455
19730SOL     OW61028  10.874   8.950   8.128
19730SOL    HW161029  10.961   8.968   8.093
19730SOL    HW261030  10.890   8.904   8.211
19731SOL     OW61031   3.836   7.714  13.517
19731SOL    HW161032   3.915   7.687  13.564
19731SOL    HW261033   3.865   7.781  13.456
19732SOL     OW61034   8.767   4.063   3.632
19732SOL    HW161035   8.746   4.139   3.686
19732SOL    HW261036   8.822   4.098   3.562
19733SOL     OW61037   3.335   9.087  14.113
19733SOL    HW161038   3.288   9.004  14.116
19733SOL    HW261039   3.349   9.110  14.205
19734SOL     OW61040   4.194   0.235  11.961
19734SOL    HW161041   4.205   0.279  12.045
19734SOL    HW261042   4.174   0.144  11.984
19735SOL     OW61043   6.633   2.215   1.273
19735SOL    HW161044   6.666   2.126   1.259
19735SOL    HW261045   6.586   2.211   1.357
19736SOL     OW61046   3.731   1.346   8.123
19736SOL    HW161047   3.688   1.362   8.039
19736SOL    HW261048   3.659   1.327   8.183
19737SOL     OW61049   7.815  13.034   2.806
19737SOL    HW161050   7.905  13.061   2.788
19737SOL    HW261051   7.817  13.003   2.897
19738SOL     OW61052   9.883   9.525   6.343
19738SOL    HW161053   9.826   9.487   6.276
19738SOL    HW261054   9.926   9.450   6.383
19739SOL     OW61055   7.906   8.749   1.273
19739SOL    HW161056   7.829   8.698   1.299
19739SOL    HW261057   7.975   8.685   1.262
19740SOL     OW61058   4.269   3.846   7.538
19740SOL    HW161059   4.235   3.918   7.485
19740SOL    HW261060   4.314   3.889   7.611
19741SOL     OW61061   1.660   3.719  14.014
19741SOL    HW161062   1.646   3.760  14.099
19741SOL    HW261063   1.575   3.726  13.970
19742SOL     OW61064   7.078  12.744   6.558
19742SOL    HW161065   7.027  12.670   6.524
19742SOL    HW261066   7.037  12.821   6.519
19743SOL     OW61067  14.048   6.190   9.842
19743SOL    HW161068  13.963   6.230   9.855
19743SOL    HW261069  14.033   6.122   9.776
19744SOL     OW61070   4.470   8.667  13.751
19744SOL    HW161071   4.433   8.710  13.828
19744SOL    HW261072   4.540   8.726  13.722
19745SOL     OW61073   1.947  10.937   7.156
19745SOL    HW161074   1.923  11.028   7.172
19745SOL    HW261075   1.901  10.888   7.225
19746SOL     OW61076   7.903   6.944   1.435
19746SOL    HW161077   7.903   7.027   1.481
19746SOL    HW261078   7.811   6.915   1.437
19747SOL     OW61079   8.346   2.138   8.115
19747SOL    HW161080   8.427   2.187   8.098
19747SOL    HW261081   8.319   2.106   8.029
19748SOL     OW61082  10.206  10.717   3.333
19748SOL    HW161083  10.279  10.658   3.349
19748SOL    HW261084  10.148  10.705   3.408
19749SOL     OW61085   0.795   9.246   8.148
19749SOL    HW161086   0.884   9.250   8.184
19749SOL    HW261087   0.748   9.316   8.192
19750SOL     OW61088   8.417  12.862   9.093
19750SOL    HW161089   8.485  12.880   9.157
19750SOL    HW261090   8.430  12.770   9.069
19751SOL     OW61091   8.134   1.750   4.797
19751SOL    HW161092   8.156   1.659   4.818
19751SOL    HW261093   8.174   1.801   4.867
19752SOL     OW61094  14.383   7.971  13.735
19752SOL    HW161095  14.445   7.939  13.669
19752SOL    HW261096  14.439   8.015  13.800
19753SOL     OW61097   4.414   1.031   5.091
19753SOL    HW161098   4.402   1.123   5.066
19753SOL    HW261099   4.460   1.035   5.175
19754SOL     OW61100   1.985  11.163   3.491
19754SOL    HW161101   2.077  11.150   3.470
19754SOL    HW261102   1.946  11.076   3.482
19755SOL     OW61103   4.925   9.739   7.917
19755SOL    HW161104   4.846   9.779   7.880
19755SOL    HW261105   4.915   9.747   8.011
19756SOL     OW61106   1.141   5.931   3.938
19756SOL    HW161107   1.123   5.852   3.989
19756SOL    HW261108   1.236   5.933   3.929
19757SOL     OW61109  10.328   4.139   7.029
19757SOL    HW161110  10.353   4.155   7.120
19757SOL    HW261111  10.335   4.225   6.987
19758SOL     OW61112   8.942  13.619  12.449
19758SOL    HW161113   8.923  13.610  12.543
19758SOL    HW261114   8.888  13.551  12.407
19759SOL     OW61115   9.445  13.689   7.158
19759SOL    HW161116   9.509  13.628   7.195
19759SOL    HW261117   9.367  13.678   7.213
19760SOL     OW61118  13.843   2.862   8.577
19760SOL    HW161119  13.799   2.823   8.502
19760SOL    HW261120  13.803   2.949   8.586
19761SOL     OW61121  10.511   0.621  11.838
19761SOL    HW161122  10.458   0.674  11.778
19761SOL    HW261123  10.579   0.680  11.869
19762SOL     OW61124   5.656   2.179   9.920
19762SOL    HW161125   5.659   2.175   9.825
19762SOL    HW261126   5.585   2.240   9.940
19763SOL     OW61127   2.147   0.291  12.665
19763SOL    HW161128   2.158   0.270  12.572
19763SOL    HW261129   2.192   0.374  12.676
19764SOL     OW61130   9.829   3.035   0.124
19764SOL    HW161131   9.897   3.086   0.081
19764SOL    HW261132   9.815   3.079   0.208
19765SOL     OW61133   9.247   7.297   1.768
19765SOL    HW161134   9.315   7.301   1.836
19765SOL    HW261135   9.258   7.210   1.729
19766SOL     OW61136  14.078   4.540  11.811
19766SOL    HW161137  14.052   4.632  11.803
19766SOL    HW261138  14.168   4.544  11.845
19767SOL     OW61139   3.953  11.014   6.335
19767SOL    HW161140   3.890  11.080   6.306
19767SOL    HW261141   4.032  11.034   6.286
19768SOL     OW61142  10.334   7.342  10.704
19768SOL    HW161143  10.378   7.378  10.781
19768SOL    HW261144  10.392   7.363  10.631
19769SOL     OW61145   8.486   4.993   7.301
19769SOL    HW161146   8.541   4.941   7.242
19769SOL    HW261147   8.532   4.994   7.384
19770SOL     OW61148  14.521   4.682   0.880
19770SOL    HW161149  14.596   4.708   0.933
19770SOL    HW261150  14.464   4.636   0.941
19771SOL     OW61151   4.118   8.615   2.318
19771SOL    HW161152   4.049   8.677   2.340
19771SOL    HW261153   4.199   8.660   2.343
19772SOL     OW61154   5.450   6.570   8.822
19772SOL    HW161155   5.392   6.502   8.856
19772SOL    HW261156   5.513   6.585   8.893
19773SOL     OW61157   4.503   3.137   2.331
19773SOL    HW161158   4.558   3.074   2.376
19773SOL    HW261159   4.473   3.091   2.253
19774SOL     OW61160   7.257  12.350   4.920
19774SOL    HW161161   7.241  12.289   4.848
19774SOL    HW261162   7.317  12.304   4.978
19775SOL     OW61163  10.171   6.806  14.421
19775SOL    HW161164  10.241   6.783  14.483
19775SOL    HW261165  10.157   6.900  14.434
19776SOL     OW61166  11.537  14.614   3.498
19776SOL    HW161167  11.614  14.663   3.468
19776SOL    HW261168  11.556  14.594   3.590
19777SOL     OW61169   2.288   6.963   7.176
19777SOL    HW161170   2.339   6.967   7.257
19777SOL    HW261171   2.199   6.985   7.202
19778SOL     OW61172   6.955   6.409  13.642
19778SOL    HW161173   6.889   6.477  13.652
19778SOL    HW261174   7.038   6.458  13.635
19779SOL     OW61175   3.145  12.341   6.811
19779SOL    HW161176   3.134  12.357   6.717
19779SOL    HW261177   3.220  12.282   6.817
19780SOL     OW61178   0.255   8.669  13.758
19780SOL    HW161179   0.266   8.762  13.780
19780SOL    HW261180   0.200   8.669  13.681
19781SOL     OW61181   6.622   1.606   3.948
19781SOL    HW161182   6.696   1.633   4.002
19781SOL    HW261183   6.546   1.644   3.990
19782SOL     OW61184   6.037  10.054  14.843
19782SOL    HW161185   6.052  10.136  14.796
19782SOL    HW261186   5.954  10.068   0.016
19783SOL     OW61187   6.328   3.847   6.087
19783SOL    HW161188   6.362   3.928   6.125
19783SOL    HW261189   6.266   3.813   6.152
19784SOL     OW61190   2.412   2.539   3.058
19784SOL    HW161191   2.339   2.502   3.108
19784SOL    HW261192   2.427   2.476   2.988
19785SOL     OW61193   1.514   6.624   7.860
19785SOL    HW161194   1.547   6.554   7.804
19785SOL    HW261195   1.420   6.605   7.869
19786SOL     OW61196   9.425  14.790  13.026
19786SOL    HW161197   9.377  14.710  13.007
19786SOL    HW261198   9.386  14.856  12.969
19787SOL     OW61199   2.334   6.313   4.117
19787SOL    HW161200   2.370   6.342   4.201
19787SOL    HW261201   2.315   6.220   4.129
19788SOL     OW61202  11.426   4.596   4.392
19788SOL    HW161203  11.377   4.675   4.371
19788SOL    HW261204  11.372   4.524   4.360
19789SOL     OW61205  10.803   9.889   0.284
19789SOL    HW161206  10.801   9.984   0.275
19789SOL    HW261207  10.893   9.865   0.262
19790SOL     OW61208   0.383  10.822   7.736
19790SOL    HW161209   0.370  10.743   7.682
19790SOL    HW261210   0.295  10.851   7.758
19791SOL     OW61211   2.843   4.267  13.208
19791SOL    HW161212   2.924   4.314  13.229
19791SOL    HW261213   2.773   4.331  13.222
19792SOL     OW61214   8.965   3.872   1.943
19792SOL    HW161215   8.937   3.873   2.034
19792SOL    HW261216   9.060   3.877   1.947
19793SOL     OW61217  11.730  14.521   1.680
19793SOL    HW161218  11.733  14.531   1.775
19793SOL    HW261219  11.670  14.589   1.651
19794SOL     OW61220  11.595   4.703  12.681
19794SOL    HW161221  11.564   4.634  12.740
19794SOL    HW261222  11.527   4.770  12.685
19795SOL     OW61223  11.579   6.175   8.421
19795SOL    HW161224  11.567   6.267   8.398
19795SOL    HW261225  11.632   6.176   8.500
19796SOL     OW61226   3.508  13.584  13.187
19796SOL    HW161227   3.533  13.506  13.236
19796SOL    HW261228   3.529  13.562  13.096
19797SOL     OW61229   0.461   3.238  11.542
19797SOL    HW161230   0.537   3.277  11.585
19797SOL    HW261231   0.391   3.303  11.551
19798SOL     OW61232   4.066   9.350   6.249
19798SOL    HW161233   4.147   9.393   6.221
19798SOL    HW261234   4.059   9.369   6.342
19799SOL     OW61235   4.033   4.527   8.465
19799SOL    HW161236   3.970   4.592   8.433
19799SOL    HW261237   3.979   4.451   8.487
19800SOL     OW61238   5.315  11.015   1.420
19800SOL    HW161239   5.237  10.990   1.471
19800SOL    HW261240   5.281  11.037   1.333
19801SOL     OW61241  11.499   5.131   8.517
19801SOL    HW161242  11.555   5.081   8.576
19801SOL    HW261243  11.553   5.204   8.488
19802SOL     OW61244   7.015   4.427   6.876
19802SOL    HW161245   6.989   4.513   6.843
19802SOL    HW261246   7.068   4.447   6.953
19803SOL     OW61247  10.344  14.231   8.383
19803SOL    HW161248  10.286  14.302   8.413
19803SOL    HW261249  10.311  14.153   8.427
19804SOL     OW61250   3.222  14.401   2.718
19804SOL    HW161251   3.307  14.357   2.712
19804SOL    HW261252   3.182  14.387   2.632
19805SOL     OW61253   0.322  11.078   0.946
19805SOL    HW161254   0.253  11.120   0.895
19805SOL    HW261255   0.322  11.125   1.029
19806SOL     OW61256   6.641   9.463   9.666
19806SOL    HW161257   6.728   9.499   9.677
19806SOL    HW261258   6.654   9.379   9.622
19807SOL     OW61259   1.890   3.996   1.613
19807SOL    HW161260   1.800   4.014   1.586
19807SOL    HW261261   1.940   3.992   1.532
19808SOL     OW61262   7.237   9.025   6.393
19808SOL    HW161263   7.188   8.991   6.318
19808SOL    HW261264   7.326   9.037   6.360
19809SOL     OW61265   7.876   8.320   3.170
19809SOL    HW161266   7.793   8.367   3.179
19809SOL    HW261267   7.851   8.228   3.163
19810SOL     OW61268  13.575   2.421   3.622
19810SOL    HW161269  13.648   2.372   3.658
19810SOL    HW261270  13.611   2.465   3.545
19811SOL     OW61271  14.541  11.113   9.577
19811SOL    HW161272  14.593  11.117   9.497
19811SOL    HW261273  14.575  11.038   9.625
19812SOL     OW61274   2.538   5.862   6.645
19812SOL    HW161275   2.590   5.782   6.655
19812SOL    HW261276   2.480   5.862   6.721
19813SOL     OW61277  11.764   8.489   3.364
19813SOL    HW161278  11.714   8.439   3.429
19813SOL    HW261279  11.854   8.459   3.374
19814SOL     OW61280   5.006   5.019   3.560
19814SOL    HW161281   4.987   4.941   3.508
19814SOL    HW261282   5.012   4.986   3.650
19815SOL     OW61283   3.094   2.514  14.428
19815SOL    HW161284   3.002   2.505  14.452
19815SOL    HW261285   3.113   2.607  14.438
19816SOL     OW61286  11.152   1.866   9.664
19816SOL    HW161287  11.131   1.956   9.637
19816SOL    HW261288  11.100   1.810   9.606
19817SOL     OW61289   8.846   4.752   3.865
19817SOL    HW161290   8.857   4.666   3.906
19817SOL    HW261291   8.765   4.786   3.902
19818SOL     OW61292   1.673   6.966  14.159
19818SOL    HW161293   1.630   6.930  14.237
19818SOL    HW261294   1.668   7.061  14.171
19819SOL     OW61295   0.119  12.542  14.297
19819SOL    HW161296   0.092  12.633  14.309
19819SOL    HW261297   0.050  12.504  14.242
19820SOL     OW61298   4.628   7.280   0.894
19820SOL    HW161299   4.691   7.263   0.964
19820SOL    HW261300   4.658   7.362   0.854
19821SOL     OW61301   6.634   4.571   7.898
19821SOL    HW161302   6.709   4.513   7.888
19821SOL    HW261303   6.667   4.645   7.949
19822SOL     OW61304   9.322   7.256   1.062
19822SOL    HW161305   9.310   7.171   1.105
19822SOL    HW261306   9.233   7.291   1.053
19823SOL     OW61307   8.512   7.154  12.352
19823SOL    HW161308   8.420   7.168  12.372
19823SOL    HW261309   8.544   7.099  12.424
19824SOL     OW61310  10.239   3.183   5.521
19824SOL    HW161311  10.177   3.234   5.468
19824SOL    HW261312  10.211   3.092   5.509
19825SOL     OW61313   6.198   4.144   0.531
19825SOL    HW161314   6.288   4.178   0.522
19825SOL    HW261315   6.170   4.128   0.441
19826SOL     OW61316  14.001   6.376   0.091
19826SOL    HW161317  14.018   6.459   0.046
19826SOL    HW261318  14.021   6.394   0.183
19827SOL     OW61319   1.534  12.033   6.359
19827SOL    HW161320   1.629  12.023   6.364
19827SOL    HW261321   1.514  12.023   6.266
19828SOL     OW61322   2.396  14.371   9.735
19828SOL    HW161323   2.307  14.340   9.752
19828SOL    HW261324   2.384  14.452   9.684
19829SOL     OW61325   6.285   3.173   7.284
19829SOL    HW161326   6.226   3.100   7.302
19829SOL    HW261327   6.226   3.249   7.276
19830SOL     OW61328   5.746   6.933   0.041
19830SOL    HW161329   5.653   6.911   0.048
19830SOL    HW261330   5.791   6.852   0.061
19831SOL     OW61331   1.544   6.531   1.857
19831SOL    HW161332   1.531   6.494   1.944
19831SOL    HW261333   1.623   6.488   1.824
19832SOL     OW61334   7.444   6.947  14.299
19832SOL    HW161335   7.517   6.991  14.342
19832SOL    HW261336   7.486   6.892  14.232
19833SOL     OW61337   0.681   2.362   4.018
19833SOL    HW161338   0.709   2.421   3.948
19833SOL    HW261339   0.599   2.399   4.050
19834SOL     OW61340   6.537  14.573   4.015
19834SOL    HW161341   6.616  14.519   4.002
19834SOL    HW261342   6.468  14.526   3.967
19835SOL     OW61343   8.736   6.457   3.957
19835SOL    HW161344   8.776   6.467   4.043
19835SOL    HW261345   8.810   6.442   3.898
19836SOL     OW61346  13.289   4.392   1.532
19836SOL    HW161347  13.211   4.443   1.555
19836SOL    HW261348  13.355   4.419   1.594
19837SOL     OW61349   7.994  12.545   9.185
19837SOL    HW161350   8.006  12.581   9.097
19837SOL    HW261351   8.083  12.524   9.214
19838SOL     OW61352  11.767   8.047  13.241
19838SOL    HW161353  11.805   7.968  13.280
19838SOL    HW261354  11.686   8.016  13.200
19839SOL     OW61355   8.114   3.340   1.338
19839SOL    HW161356   8.050   3.370   1.273
19839SOL    HW261357   8.068   3.272   1.387
19840SOL     OW61358   4.383  11.995   6.450
19840SOL    HW161359   4.447  12.048   6.498
19840SOL    HW261360   4.405  11.905   6.473
19841SOL     OW61361   5.736   1.242   0.376
19841SOL    HW161362   5.735   1.309   0.445
19841SOL    HW261363   5.713   1.290   0.296
19842SOL     OW61364   5.676   2.160   9.178
19842SOL    HW161365   5.756   2.114   9.202
19842SOL    HW261366   5.665   2.227   9.246
19843SOL     OW61367  10.350   0.858  13.446
19843SOL    HW161368  10.424   0.801  13.424
19843SOL    HW261369  10.304   0.870  13.363
19844SOL     OW61370  13.927   2.397  10.697
19844SOL    HW161371  14.002   2.421  10.641
19844SOL    HW261372  13.951   2.430  10.783
19845SOL     OW61373   2.062   4.782   9.715
19845SOL    HW161374   2.007   4.762   9.791
19845SOL    HW261375   2.085   4.697   9.678
19846SOL     OW61376   5.964   1.587  10.799
19846SOL    HW161377   6.017   1.581  10.720
19846SOL    HW261378   5.891   1.528  10.783
19847SOL     OW61379  12.431   7.209   3.941
19847SOL    HW161380  12.478   7.130   3.967
19847SOL    HW261381  12.439   7.267   4.016
19848SOL     OW61382   8.806  14.457   5.192
19848SOL    HW161383   8.847  14.446   5.107
19848SOL    HW261384   8.850  14.534   5.230
19849SOL     OW61385   5.854   8.411  12.889
19849SOL    HW161386   5.923   8.401  12.823
19849SOL    HW261387   5.787   8.348  12.863
19850SOL     OW61388   5.381   3.143   9.764
19850SOL    HW161389   5.314   3.099   9.712
19850SOL    HW261390   5.411   3.215   9.708
19851SOL     OW61391  12.192  10.306   5.240
19851SOL    HW161392  12.251  10.332   5.312
19851SOL    HW261393  12.105  10.309   5.279
19852SOL     OW61394  12.086   6.718   4.363
19852SOL    HW161395  12.127   6.757   4.286
19852SOL    HW261396  12.159   6.694   4.420
19853SOL     OW61397   3.114   0.616   8.626
19853SOL    HW161398   3.133   0.703   8.591
19853SOL    HW261399   3.100   0.561   8.549
19854SOL     OW61400   7.109  11.531   0.725
19854SOL    HW161401   7.063  11.613   0.705
19854SOL    HW261402   7.142  11.500   0.641
19855SOL     OW61403  14.124   2.107  10.219
19855SOL    HW161404  14.181   2.144  10.152
19855SOL    HW261405  14.055   2.061  10.170
19856SOL     OW61406   9.023  11.308   4.382
19856SOL    HW161407   9.027  11.221   4.423
19856SOL    HW261408   8.948  11.351   4.423
19857SOL     OW61409   7.657   5.821  10.590
19857SOL    HW161410   7.697   5.887  10.647
19857SOL    HW261411   7.563   5.841  10.593
19858SOL     OW61412  12.604   5.408  14.445
19858SOL    HW161413  12.649   5.327  14.469
19858SOL    HW261414  12.640   5.431  14.359
19859SOL     OW61415   2.871   7.510   4.777
19859SOL    HW161416   2.890   7.424   4.739
19859SOL    HW261417   2.943   7.565   4.748
19860SOL     OW61418   7.784   2.731   8.788
19860SOL    HW161419   7.869   2.747   8.829
19860SOL    HW261420   7.724   2.722   8.862
19861SOL     OW61421  14.678  14.374  12.332
19861SOL    HW161422  14.595  14.359  12.287
19861SOL    HW261423  14.686  14.300  12.393
19862SOL     OW61424   2.280   1.466   5.514
19862SOL    HW161425   2.273   1.388   5.569
19862SOL    HW261426   2.316   1.434   5.431
19863SOL     OW61427   8.620   5.447   9.622
19863SOL    HW161428   8.714   5.460   9.606
19863SOL    HW261429   8.611   5.450   9.717
19864SOL     OW61430   9.519  13.607   2.525
19864SOL    HW161431   9.558  13.630   2.609
19864SOL    HW261432   9.509  13.511   2.528
19865SOL     OW61433   9.137   9.114   7.007
19865SOL    HW161434   9.144   9.020   7.026
19865SOL    HW261435   9.151   9.120   6.913
19866SOL     OW61436  13.110   8.419   3.151
19866SOL    HW161437  13.200   8.445   3.132
19866SOL    HW261438  13.097   8.443   3.243
19867SOL     OW61439  14.259   6.265   0.233
19867SOL    HW161440  14.248   6.360   0.238
19867SOL    HW261441  14.196   6.237   0.166
19868SOL     OW61442   7.705  11.591   2.634
19868SOL    HW161443   7.715  11.682   2.604
19868SOL    HW261444   7.778  11.545   2.593
19869SOL     OW61445  13.679   2.873   9.417
19869SOL    HW161446  13.625   2.794   9.421
19869SOL    HW261447  13.763   2.843   9.381
19870SOL     OW61448   4.093   6.258  14.779
19870SOL    HW161449   4.025   6.243  14.844
19870SOL    HW261450   4.165   6.201  14.806
19871SOL     OW61451  10.637   3.194  10.452
19871SOL    HW161452  10.587   3.125  10.496
19871SOL    HW261453  10.708   3.214  10.512
19872SOL     OW61454  10.368   7.989   0.399
19872SOL    HW161455  10.436   7.997   0.332
19872SOL    HW261456  10.290   8.027   0.358
19873SOL     OW61457   1.625   1.257  13.953
19873SOL    HW161458   1.569   1.199  13.903
19873SOL    HW261459   1.710   1.254  13.909
19874SOL     OW61460   0.674  14.245  12.884
19874SOL    HW161461   0.603  14.197  12.925
19874SOL    HW261462   0.631  14.311  12.829
19875SOL     OW61463   7.873  11.710   6.082
19875SOL    HW161464   7.779  11.701   6.099
19875SOL    HW261465   7.882  11.688   5.990
19876SOL     OW61466  14.623   3.893   0.281
19876SOL    HW161467  14.667   3.808   0.277
19876SOL    HW261468  14.552   3.880   0.345
19877SOL     OW61469   1.777   9.326  14.836
19877SOL    HW161470   1.754   9.405   0.012
19877SOL    HW261471   1.836   9.278   0.020
19878SOL     OW61472   0.345  10.531  12.507
19878SOL    HW161473   0.254  10.555  12.526
19878SOL    HW261474   0.354  10.545  12.413
19879SOL     OW61475  12.702   0.664   8.334
19879SOL    HW161476  12.635   0.667   8.265
19879SOL    HW261477  12.781   0.633   8.289
19880SOL     OW61478  14.208   3.761   3.407
19880SOL    HW161479  14.264   3.751   3.330
19880SOL    HW261480  14.193   3.672   3.438
19881SOL     OW61481  11.928   8.660   1.982
19881SOL    HW161482  11.871   8.721   1.936
19881SOL    HW261483  11.969   8.609   1.912
19882SOL     OW61484  11.178  14.298   4.259
19882SOL    HW161485  11.209  14.379   4.218
19882SOL    HW261486  11.190  14.232   4.191
19883SOL     OW61487   9.509  13.266  11.963
19883SOL    HW161488   9.456  13.191  11.936
19883SOL    HW261489   9.571  13.280  11.892
19884SOL     OW61490   2.113   0.854   1.069
19884SOL    HW161491   2.133   0.933   1.019
19884SOL    HW261492   2.199   0.813   1.083
19885SOL     OW61493   5.743   4.559  12.368
19885SOL    HW161494   5.652   4.575  12.343
19885SOL    HW261495   5.745   4.574  12.462
19886SOL     OW61496  10.050   9.416   6.002
19886SOL    HW161497  10.115   9.365   6.051
19886SOL    HW261498  10.094   9.437   5.920
19887SOL     OW61499   6.065   2.108   1.775
19887SOL    HW161500   6.127   2.098   1.702
19887SOL    HW261501   6.044   2.202   1.776
19888SOL     OW61502   5.872   6.555   4.365
19888SOL    HW161503   5.795   6.610   4.379
19888SOL    HW261504   5.910   6.587   4.284
19889SOL     OW61505   9.388  11.055  11.764
19889SOL    HW161506   9.332  11.113  11.815
19889SOL    HW261507   9.398  11.098  11.680
19890SOL     OW61508   7.748   7.150   7.304
19890SOL    HW161509   7.745   7.224   7.365
19890SOL    HW261510   7.784   7.078   7.356
19891SOL     OW61511   7.061  12.674   8.585
19891SOL    HW161512   7.122  12.747   8.572
19891SOL    HW261513   7.071  12.621   8.506
19892SOL     OW61514   1.665  13.654   7.707
19892SOL    HW161515   1.687  13.658   7.614
19892SOL    HW261516   1.579  13.695   7.714
19893SOL     OW61517  14.110   8.570  10.480
19893SOL    HW161518  14.041   8.510  10.507
19893SOL    HW261519  14.081   8.605  10.396
19894SOL     OW61520   0.831  12.679   4.043
19894SOL    HW161521   0.906  12.639   4.088
19894SOL    HW261522   0.763  12.685   4.111
19895SOL     OW61523  10.190   3.681  12.866
19895SOL    HW161524  10.131   3.709  12.796
19895SOL    HW261525  10.252   3.753  12.874
19896SOL     OW61526  11.175   2.327   3.317
19896SOL    HW161527  11.191   2.254   3.257
19896SOL    HW261528  11.242   2.316   3.385
19897SOL     OW61529   7.721  13.183   8.977
19897SOL    HW161530   7.656  13.112   8.977
19897SOL    HW261531   7.706  13.228   8.894
19898SOL     OW61532   1.292   3.551  12.249
19898SOL    HW161533   1.328   3.610  12.316
19898SOL    HW261534   1.358   3.483  12.239
19899SOL     OW61535   0.416  14.180   0.044
19899SOL    HW161536   0.487  14.117   0.030
19899SOL    HW261537   0.428  14.245  14.847
19900SOL     OW61538   5.226   9.185   0.649
19900SOL    HW161539   5.278   9.260   0.618
19900SOL    HW261540   5.190   9.146   0.569
19901SOL     OW61541   1.468   9.359   7.443
19901SOL    HW161542   1.395   9.367   7.504
19901SOL    HW261543   1.486   9.265   7.440
19902SOL     OW61544   1.194   9.330   9.042
19902SOL    HW161545   1.109   9.310   9.083
19902SOL    HW261546   1.219   9.414   9.080
19903SOL     OW61547   4.662   8.573  11.886
19903SOL    HW161548   4.567   8.567  11.894
19903SOL    HW261549   4.682   8.525  11.806
19904SOL     OW61550  12.383  12.176   9.428
19904SOL    HW161551  12.393  12.109   9.495
19904SOL    HW261552  12.472  12.207   9.411
19905SOL     OW61553   8.840   6.829   8.475
19905SOL    HW161554   8.798   6.901   8.521
19905SOL    HW261555   8.777   6.757   8.483
19906SOL     OW61556   1.780   0.962  12.925
19906SOL    HW161557   1.809   0.893  12.865
19906SOL    HW261558   1.774   0.919  13.010
19907SOL     OW61559   7.119   5.995   1.445
19907SOL    HW161560   7.033   6.029   1.470
19907SOL    HW261561   7.100   5.924   1.384
19908SOL     OW61562   0.975   7.495   3.132
19908SOL    HW161563   1.038   7.565   3.150
19908SOL    HW261564   1.018   7.416   3.165
19909SOL     OW61565   8.442  13.432   8.723
19909SOL    HW161566   8.502  13.399   8.656
19909SOL    HW261567   8.476  13.395   8.805
19910SOL     OW61568  10.032  14.014   6.892
19910SOL    HW161569  10.043  14.060   6.809
19910SOL    HW261570  10.110  13.959   6.900
19911SOL     OW61571   7.329   6.761   4.740
19911SOL    HW161572   7.381   6.767   4.821
19911SOL    HW261573   7.240   6.782   4.768
19912SOL     OW61574   5.159   6.150   8.371
19912SOL    HW161575   5.187   6.238   8.345
19912SOL    HW261576   5.203   6.092   8.310
19913SOL     OW61577   6.676   8.808  14.682
19913SOL    HW161578   6.745   8.874  14.676
19913SOL    HW261579   6.682   8.775  14.772
19914SOL     OW61580   1.462  10.522   1.927
19914SOL    HW161581   1.384  10.572   1.901
19914SOL    HW261582   1.517  10.585   1.972
19915SOL     OW61583   7.184   8.243   5.422
19915SOL    HW161584   7.215   8.158   5.455
19915SOL    HW261585   7.264   8.293   5.406
19916SOL     OW61586   4.787   1.061   2.284
19916SOL    HW161587   4.882   1.066   2.291
19916SOL    HW261588   4.755   1.091   2.369
19917SOL     OW61589   0.500   1.104  14.538
19917SOL    HW161590   0.563   1.080  14.470
19917SOL    HW261591   0.533   1.062  14.617
19918SOL     OW61592   7.053   3.613  14.025
19918SOL    HW161593   7.108   3.561  13.968
19918SOL    HW261594   6.969   3.566  14.028
19919SOL     OW61595   7.345   1.660   0.665
19919SOL    HW161596   7.338   1.662   0.570
19919SOL    HW261597   7.315   1.746   0.693
19920SOL     OW61598  10.993  11.123   8.610
19920SOL    HW161599  11.021  11.144   8.521
19920SOL    HW261600  10.983  11.028   8.611
19921SOL     OW61601   4.823   8.636  10.573
19921SOL    HW161602   4.913   8.670  10.576
19921SOL    HW261603   4.771   8.708  10.539
19922SOL     OW61604   2.494   8.648   8.592
19922SOL    HW161605   2.576   8.636   8.544
19922SOL    HW261606   2.520   8.638   8.684
19923SOL     OW61607   8.119   1.032   0.449
19923SOL    HW161608   8.030   1.006   0.472
19923SOL    HW261609   8.144   1.093   0.518
19924SOL     OW61610   8.262   5.593   5.153
19924SOL    HW161611   8.292   5.682   5.174
19924SOL    HW261612   8.178   5.606   5.111
19925SOL     OW61613   2.489  12.961  13.003
19925SOL    HW161614   2.516  12.901  13.073
19925SOL    HW261615   2.570  12.988  12.961
19926SOL     OW61616   5.725   5.438   2.670
19926SOL    HW161617   5.632   5.415   2.664
19926SOL    HW261618   5.769   5.369   2.621
19927SOL     OW61619   1.931   7.260   4.292
19927SOL    HW161620   1.854   7.277   4.346
19927SOL    HW261621   1.962   7.174   4.321
19928SOL     OW61622   3.284   1.888   1.839
19928SOL    HW161623   3.210   1.879   1.899
19928SOL    HW261624   3.245   1.921   1.758
19929SOL     OW61625  10.541  14.674   7.882
19929SOL    HW161626  10.566  14.627   7.962
19929SOL    HW261627  10.575  14.763   7.895
19930SOL     OW61628   6.266   8.764   3.143
19930SOL    HW161629   6.176   8.784   3.170
19930SOL    HW261630   6.256   8.712   3.064
19931SOL     OW61631   9.577   6.467   8.169
19931SOL    HW161632   9.549   6.397   8.228
19931SOL    HW261633   9.608   6.536   8.227
19932SOL     OW61634   2.797  14.479  10.137
19932SOL    HW161635   2.781  14.541  10.207
19932SOL    HW261636   2.853  14.412  10.176
19933SOL     OW61637   4.808  12.964   1.538
19933SOL    HW161638   4.880  13.026   1.549
19933SOL    HW261639   4.847  12.889   1.494
19934SOL     OW61640  14.716   1.080   5.750
19934SOL    HW161641  14.643   1.139   5.770
19934SOL    HW261642  14.679   0.993   5.756
19935SOL     OW61643   7.737  12.999   3.347
19935SOL    HW161644   7.757  13.078   3.397
19935SOL    HW261645   7.661  12.961   3.391
19936SOL     OW61646   7.769   0.094   5.142
19936SOL    HW161647   7.732   0.182   5.151
19936SOL    HW261648   7.704   0.045   5.092
19937SOL     OW61649   8.936   8.887   5.583
19937SOL    HW161650   8.905   8.896   5.673
19937SOL    HW261651   8.894   8.958   5.535
19938SOL     OW61652  14.810   1.936   4.382
19938SOL    HW161653  14.773   1.849   4.392
19938SOL    HW261654   0.010   1.925   4.320
19939SOL     OW61655   9.459   9.831  11.858
19939SOL    HW161656   9.493   9.826  11.769
19939SOL    HW261657   9.465   9.741  11.891
19940SOL     OW61658   0.425   4.872  14.053
19940SOL    HW161659   0.372   4.820  14.113
19940SOL    HW261660   0.361   4.926  14.007
19941SOL     OW61661   3.389   1.090   2.511
19941SOL    HW161662   3.447   1.014   2.521
19941SOL    HW261663   3.304   1.052   2.490
19942SOL     OW61664  14.067   3.192   0.522
19942SOL    HW161665  14.042   3.154   0.438
19942SOL    HW261666  14.066   3.119   0.584
19943SOL     OW61667   2.658  12.391  13.290
19943SOL    HW161668   2.723  12.320  13.283
19943SOL    HW261669   2.650  12.425  13.202
19944SOL     OW61670  14.843  10.632   5.680
19944SOL    HW161671   0.021  10.705   5.716
19944SOL    HW261672   0.021  10.602   5.605
19945SOL     OW61673   4.881   6.026   7.836
19945SOL    HW161674   4.911   6.002   7.924
19945SOL    HW261675   4.951   5.995   7.778
19946SOL     OW61676   8.722   0.560   7.270
19946SOL    HW161677   8.784   0.492   7.244
19946SOL    HW261678   8.751   0.638   7.221
19947SOL     OW61679   3.858  10.031   0.863
19947SOL    HW161680   3.945  10.000   0.837
19947SOL    HW261681   3.825   9.965   0.923
19948SOL     OW61682   9.349   7.543   4.388
19948SOL    HW161683   9.384   7.613   4.334
19948SOL    HW261684   9.359   7.464   4.335
19949SOL     OW61685   8.169  10.557   9.282
19949SOL    HW161686   8.102  10.602   9.334
19949SOL    HW261687   8.239  10.621   9.271
19950SOL     OW61688   1.011   3.531   9.052
19950SOL    HW161689   1.019   3.588   8.975
19950SOL    HW261690   0.987   3.590   9.123
19951SOL     OW61691   5.088   4.804   2.340
19951SOL    HW161692   5.170   4.757   2.328
19951SOL    HW261693   5.030   4.768   2.272
19952SOL     OW61694   0.167   0.145   4.203
19952SOL    HW161695   0.161   0.053   4.177
19952SOL    HW261696   0.238   0.147   4.267
19953SOL     OW61697   1.064   3.793  10.300
19953SOL    HW161698   0.978   3.786  10.259
19953SOL    HW261699   1.106   3.708  10.283
19954SOL     OW61700  12.888   3.644   9.723
19954SOL    HW161701  12.959   3.580   9.712
19954SOL    HW261702  12.926   3.726   9.692
19955SOL     OW61703   5.011  14.324   0.550
19955SOL    HW161704   5.091  14.374   0.567
19955SOL    HW261705   5.017  14.300   0.457
19956SOL     OW61706   1.754   8.883  12.595
19956SOL    HW161707   1.841   8.846  12.581
19956SOL    HW261708   1.733   8.862  12.686
19957SOL     OW61709   1.820   2.309   8.969
19957SOL    HW161710   1.745   2.359   9.002
19957SOL    HW261711   1.854   2.264   9.046
19958SOL     OW61712   3.275   9.785  12.530
19958SOL    HW161713   3.329   9.845  12.583
19958SOL    HW261714   3.247   9.838  12.455
19959SOL     OW61715   2.765  12.481   2.679
19959SOL    HW161716   2.744  12.405   2.625
19959SOL    HW261717   2.699  12.480   2.749
19960SOL     OW61718  11.420  12.197   2.274
19960SOL    HW161719  11.435  12.290   2.288
19960SOL    HW261720  11.327  12.190   2.255
19961SOL     OW61721  10.716  13.125   6.276
19961SOL    HW161722  10.796  13.129   6.328
19961SOL    HW261723  10.681  13.214   6.277
19962SOL     OW61724  13.285   7.991   6.455
19962SOL    HW161725  13.295   8.084   6.475
19962SOL    HW261726  13.196   7.969   6.484
19963SOL     OW61727   2.162   0.197   8.642
19963SOL    HW161728   2.135   0.288   8.653
19963SOL    HW261729   2.192   0.192   8.551
19964SOL     OW61730  14.829  12.789   7.480
19964SOL    HW161731  14.837  12.878   7.446
19964SOL    HW261732  14.735  12.776   7.489
19965SOL     OW61733   0.151   2.498   6.510
19965SOL    HW161734   0.229   2.527   6.463
19965SOL    HW261735   0.079   2.550   6.474
19966SOL     OW61736  11.665  11.614   3.428
19966SOL    HW161737  11.651  11.699   3.469
19966SOL    HW261738  11.665  11.632   3.334
19967SOL     OW61739   8.687   1.680  13.525
19967SOL    HW161740   8.736   1.749  13.569
19967SOL    HW261741   8.750   1.609  13.514
19968SOL     OW61742   6.847  12.540   2.211
19968SOL    HW161743   6.938  12.563   2.229
19968SOL    HW261744   6.850  12.493   2.128
19969SOL     OW61745  11.416   5.150  13.454
19969SOL    HW161746  11.385   5.231  13.494
19969SOL    HW261747  11.508   5.167  13.433
19970SOL     OW61748   4.859   8.592  14.013
19970SOL    HW161749   4.803   8.670  14.006
19970SOL    HW261750   4.802   8.523  14.046
19971SOL     OW61751  10.044  12.029  11.872
19971SOL    HW161752   9.985  11.959  11.900
19971SOL    HW261753  10.072  12.071  11.953
19972SOL     OW61754   5.090   5.114   7.249
19972SOL    HW161755   5.004   5.143   7.277
19972SOL    HW261756   5.075   5.072   7.164
19973SOL     OW61757  11.582   9.669  10.454
19973SOL    HW161758  11.514   9.696  10.515
19973SOL    HW261759  11.660   9.717  10.482
19974SOL     OW61760  11.202  14.428  12.062
19974SOL    HW161761  11.124  14.454  12.110
19974SOL    HW261762  11.243  14.510  12.035
19975SOL     OW61763   8.078   0.538  10.735
19975SOL    HW161764   8.094   0.518  10.827
19975SOL    HW261765   8.163   0.564  10.701
19976SOL     OW61766   2.544   6.027  13.256
19976SOL    HW161767   2.488   5.967  13.304
19976SOL    HW261768   2.578   6.087  13.322
19977SOL     OW61769   1.230   6.293   0.404
19977SOL    HW161770   1.265   6.317   0.489
19977SOL    HW261771   1.149   6.245   0.424
19978SOL     OW61772   9.156   3.174   2.571
19978SOL    HW161773   9.112   3.230   2.507
19978SOL    HW261774   9.230   3.137   2.524
19979SOL     OW61775  13.226   7.254   4.791
19979SOL    HW161776  13.186   7.309   4.724
19979SOL    HW261777  13.151   7.218   4.840
19980SOL     OW61778   9.153  13.855   0.392
19980SOL    HW161779   9.248  13.850   0.385
19980SOL    HW261780   9.137  13.927   0.453
19981SOL     OW61781  10.046   7.401  13.179
19981SOL    HW161782  10.085   7.454  13.110
19981SOL    HW261783  10.097   7.422  13.257
19982SOL     OW61784   7.591   6.499  12.321
19982SOL    HW161785   7.625   6.451  12.246
19982SOL    HW261786   7.505   6.531  12.293
19983SOL     OW61787   3.668   7.927   7.446
19983SOL    HW161788   3.590   7.872   7.453
19983SOL    HW261789   3.733   7.882   7.500
19984SOL     OW61790   3.556   0.330   6.880
19984SOL    HW161791   3.589   0.296   6.963
19984SOL    HW261792   3.611   0.290   6.814
19985SOL     OW61793   5.364   5.924  11.788
19985SOL    HW161794   5.432   5.922  11.855
19985SOL    HW261795   5.363   6.015  11.758
19986SOL     OW61796   3.645  13.250   7.806
19986SOL    HW161797   3.638  13.262   7.712
19986SOL    HW261798   3.611  13.332   7.843
19987SOL     OW61799   8.687   2.730   6.263
19987SOL    HW161800   8.779   2.754   6.277
19987SOL    HW261801   8.640   2.813   6.266
19988SOL     OW61802  13.421   1.987   9.093
19988SOL    HW161803  13.408   2.030   9.177
19988SOL    HW261804  13.350   2.019   9.038
19989SOL     OW61805   5.530   7.965   6.189
19989SOL    HW161806   5.598   7.978   6.123
19989SOL    HW261807   5.514   7.871   6.189
19990SOL     OW61808   5.509   0.497  11.770
19990SOL    HW161809   5.558   0.416  11.785
19990SOL    HW261810   5.502   0.537  11.857
19991SOL     OW61811  12.988   2.351  10.124
19991SOL    HW161812  12.996   2.363  10.218
19991SOL    HW261813  12.929   2.420  10.096
19992SOL     OW61814   2.533   5.821   8.414
19992SOL    HW161815   2.580   5.835   8.332
19992SOL    HW261816   2.442   5.806   8.387
19993SOL     OW61817   4.468   2.636   3.571
19993SOL    HW161818   4.474   2.730   3.586
19993SOL    HW261819   4.452   2.599   3.658
19994SOL     OW61820   0.270   2.700  11.608
19994SOL    HW161821   0.218   2.635  11.656
19994SOL    HW261822   0.353   2.705  11.656
19995SOL     OW61823   1.832   2.485   3.798
19995SOL    HW161824   1.753   2.479   3.743
19995SOL    HW261825   1.816   2.560   3.855
19996SOL     OW61826  10.714   3.386  10.930
19996SOL    HW161827  10.674   3.336  11.001
19996SOL    HW261828  10.806   3.392  10.953
19997SOL     OW61829   7.483   8.785   5.631
19997SOL    HW161830   7.569   8.770   5.670
19997SOL    HW261831   7.502   8.815   5.542
19998SOL     OW61832   8.016  10.982   6.728
19998SOL    HW161833   7.938  10.991   6.674
19998SOL    HW261834   8.049  11.071   6.739
19999SOL     OW61835   1.751   1.860  10.902
19999SOL    HW161836   1.786   1.867  10.991
19999SOL    HW261837   1.762   1.768  10.879
20000SOL     OW61838   0.310   5.461  14.054
20000SOL    HW161839   0.301   5.507  14.137
20000SOL    HW261840   0.330   5.370  14.079
20001SOL     OW61841   1.850   9.268  13.413
20001SOL    HW161842   1.804   9.230  13.338
20001SOL    HW261843   1.847   9.362  13.397
20002SOL     OW61844  11.690  14.761   8.452
20002SOL    HW161845  11.710  14.768   8.359
20002SOL    HW261846  11.752  14.695   8.485
20003SOL     OW61847   7.257   3.676   4.094
20003SOL    HW161848   7.216   3.745   4.146
20003SOL    HW261849   7.250   3.706   4.004
20004SOL     OW61850  12.743  12.568  13.778
20004SOL    HW161851  12.656  12.531  13.764
20004SOL    HW261852  12.728  12.644  13.834
20005SOL     OW61853  12.924   0.919  14.790
20005SOL    HW161854  12.979   0.843  14.777
20005SOL    HW261855  12.976   0.978  14.846
20006SOL     OW61856   0.122  14.272  12.554
20006SOL    HW161857   0.206  14.248  12.514
20006SOL    HW261858   0.116  14.367  12.541
20007SOL     OW61859   9.840   5.732   8.910
20007SOL    HW161860   9.868   5.804   8.854
20007SOL    HW261861   9.754   5.708   8.878
20008SOL     OW61862   3.628  14.372   6.305
20008SOL    HW161863   3.634  14.337   6.216
20008SOL    HW261864   3.714  14.352   6.344
20009SOL     OW61865   4.228   4.760   1.143
20009SOL    HW161866   4.307   4.756   1.196
20009SOL    HW261867   4.172   4.823   1.188
20010SOL     OW61868   0.174   6.432   1.896
20010SOL    HW161869   0.183   6.502   1.830
20010SOL    HW261870   0.261   6.425   1.934
20011SOL     OW61871   3.486   7.022   0.719
20011SOL    HW161872   3.564   6.971   0.742
20011SOL    HW261873   3.498   7.044   0.627
20012SOL     OW61874   7.260   2.824   8.358
20012SOL    HW161875   7.195   2.771   8.404
20012SOL    HW261876   7.342   2.807   8.404
20013SOL     OW61877   9.595   5.264   6.265
20013SOL    HW161878   9.576   5.352   6.298
20013SOL    HW261879   9.530   5.250   6.196
20014SOL     OW61880   1.098   0.144   0.100
20014SOL    HW161881   1.127   0.058   0.069
20014SOL    HW261882   1.015   0.159   0.054
20015SOL     OW61883   1.541   5.657   0.405
20015SOL    HW161884   1.481   5.584   0.392
20015SOL    HW261885   1.495   5.733   0.368
20016SOL     OW61886  10.281   9.865   4.519
20016SOL    HW161887  10.193   9.834   4.499
20016SOL    HW261888  10.276   9.960   4.511
20017SOL     OW61889   5.416  13.297   2.855
20017SOL    HW161890   5.475  13.279   2.928
20017SOL    HW261891   5.409  13.213   2.809
20018SOL     OW61892   3.757   6.822  11.277
20018SOL    HW161893   3.729   6.862  11.360
20018SOL    HW261894   3.678   6.821  11.224
20019SOL     OW61895   8.119  14.030   5.800
20019SOL    HW161896   8.138  13.974   5.875
20019SOL    HW261897   8.036  14.073   5.821
20020SOL     OW61898   9.202   3.788   8.297
20020SOL    HW161899   9.197   3.765   8.390
20020SOL    HW261900   9.181   3.707   8.250
20021SOL     OW61901   2.992  11.227   4.612
20021SOL    HW161902   2.976  11.138   4.581
20021SOL    HW261903   3.086  11.230   4.629
20022SOL     OW61904   2.203   5.150  13.753
20022SOL    HW161905   2.120   5.103  13.762
20022SOL    HW261906   2.179   5.243  13.763
20023SOL     OW61907   3.725   1.648  10.630
20023SOL    HW161908   3.651   1.653  10.569
20023SOL    HW261909   3.770   1.732  10.620
20024SOL     OW61910   0.023  13.264   7.512
20024SOL    HW161911  14.863  13.241   7.599
20024SOL    HW261912   0.045  13.357   7.519
20025SOL     OW61913   5.460   7.596   7.414
20025SOL    HW161914   5.531   7.567   7.471
20025SOL    HW261915   5.503   7.628   7.335
20026SOL     OW61916   6.478   4.545   6.589
20026SOL    HW161917   6.569   4.572   6.580
20026SOL    HW261918   6.432   4.595   6.521
20027SOL     OW61919  11.409  14.858  12.174
20027SOL    HW161920  11.494  14.827  12.143
20027SOL    HW261921  11.398   0.070  12.131
20028SOL     OW61922   3.127   8.425  12.192
20028SOL    HW161923   3.133   8.501  12.133
20028SOL    HW261924   3.217   8.394  12.201
20029SOL     OW61925   0.150   9.012  11.942
20029SOL    HW161926   0.207   9.089  11.936
20029SOL    HW261927   0.207   8.944  11.978
20030SOL     OW61928  12.009   4.021  11.287
20030SOL    HW161929  12.014   3.928  11.265
20030SOL    HW261930  12.098   4.043  11.316
20031SOL     OW61931   8.413  12.432   0.950
20031SOL    HW161932   8.410  12.516   0.905
20031SOL    HW261933   8.321  12.407   0.961
20032SOL     OW61934   9.839   1.987   5.858
20032SOL    HW161935   9.910   2.036   5.817
20032SOL    HW261936   9.760   2.038   5.840
20033SOL     OW61937   5.414  14.746   2.736
20033SOL    HW161938   5.339  14.690   2.757
20033SOL    HW261939   5.486  14.712   2.789
20034SOL     OW61940   1.875   7.782  10.776
20034SOL    HW161941   1.876   7.770  10.871
20034SOL    HW261942   1.829   7.865  10.763
20035SOL     OW61943   2.137   3.246   9.507
20035SOL    HW161944   2.131   3.217   9.416
20035SOL    HW261945   2.060   3.301   9.520
20036SOL     OW61946  12.543  11.841  10.971
20036SOL    HW161947  12.631  11.873  10.953
20036SOL    HW261948  12.485  11.910  10.940
20037SOL     OW61949   5.874  10.200   4.907
20037SOL    HW161950   5.902  10.285   4.872
20037SOL    HW261951   5.922  10.136   4.855
20038SOL     OW61952  12.057   4.121  10.290
20038SOL    HW161953  12.068   4.144  10.382
20038SOL    HW261954  12.084   4.199  10.242
20039SOL     OW61955   7.298  11.615   2.408
20039SOL    HW161956   7.358  11.683   2.378
20039SOL    HW261957   7.347  11.567   2.475
20040SOL     OW61958   3.709   3.803   1.872
20040SOL    HW161959   3.756   3.826   1.792
20040SOL    HW261960   3.680   3.886   1.908
20041SOL     OW61961   8.478  10.110  12.968
20041SOL    HW161962   8.563  10.092  13.009
20041SOL    HW261963   8.500  10.133  12.877
20042SOL     OW61964   2.789  10.697   7.545
20042SOL    HW161965   2.728  10.631   7.578
20042SOL    HW261966   2.849  10.649   7.488
20043SOL     OW61967   5.267   4.944  10.068
20043SOL    HW161968   5.305   5.029  10.048
20043SOL    HW261969   5.228   4.954  10.155
20044SOL     OW61970   3.069  12.432   8.579
20044SOL    HW161971   2.996  12.482   8.541
20044SOL    HW261972   3.147  12.480   8.551
20045SOL     OW61973   1.707   8.177   5.639
20045SOL    HW161974   1.698   8.272   5.631
20045SOL    HW261975   1.767   8.153   5.568
20046SOL     OW61976   8.377   8.924  10.952
20046SOL    HW161977   8.414   8.842  10.917
20046SOL    HW261978   8.283   8.909  10.954
20047SOL     OW61979   4.350   3.895  14.608
20047SOL    HW161980   4.340   3.837  14.533
20047SOL    HW261981   4.321   3.843  14.682
20048SOL     OW61982   0.477   9.084   9.114
20048SOL    HW161983   0.409   9.149   9.094
20048SOL    HW261984   0.468   9.068   9.208
20049SOL     OW61985  10.222   5.227  14.184
20049SOL    HW161986  10.162   5.210  14.256
20049SOL    HW261987  10.165   5.237  14.107
20050SOL     OW61988  12.286   0.723   5.582
20050SOL    HW161989  12.225   0.707   5.510
20050SOL    HW261990  12.347   0.788   5.547
20051SOL     OW61991  12.938  13.266  10.977
20051SOL    HW161992  12.873  13.252  10.909
20051SOL    HW261993  12.888  13.263  11.059
20052SOL     OW61994   0.486  11.754  12.592
20052SOL    HW161995   0.456  11.803  12.668
20052SOL    HW261996   0.560  11.805  12.559
20053SOL     OW61997  11.052   4.417   5.197
20053SOL    HW161998  10.960   4.390   5.200
20053SOL    HW261999  11.051   4.496   5.143
20054SOL     OW62000  12.044   6.666   6.385
20054SOL    HW162001  12.084   6.586   6.351
20054SOL    HW262002  12.030   6.720   6.308
20055SOL     OW62003  14.822   3.088  10.758
20055SOL    HW162004   0.035   3.097  10.797
20055SOL    HW262005  14.784   3.176  10.763
20056SOL     OW62006   5.875   9.258   3.759
20056SOL    HW162007   5.792   9.212   3.749
20056SOL    HW262008   5.940   9.201   3.718
20057SOL     OW62009   7.377   8.118  13.158
20057SOL    HW162010   7.294   8.092  13.197
20057SOL    HW262011   7.374   8.214  13.157
20058SOL     OW62012  12.047   6.423   7.917
20058SOL    HW162013  12.106   6.487   7.956
20058SOL    HW262014  12.103   6.365   7.866
20059SOL     OW62015   6.073   7.408  11.158
20059SOL    HW162016   6.031   7.475  11.212
20059SOL    HW262017   6.111   7.346  11.221
20060SOL     OW62018   0.292   5.907   9.321
20060SOL    HW162019   0.266   5.855   9.397
20060SOL    HW262020   0.275   5.850   9.246
20061SOL     OW62021  13.004  14.846   3.787
20061SOL    HW162022  12.992  14.804   3.702
20061SOL    HW262023  12.919  14.837   3.831
20062SOL     OW62024   5.494  14.108  10.782
20062SOL    HW162025   5.444  14.115  10.863
20062SOL    HW262026   5.519  14.015  10.778
20063SOL     OW62027   5.446  11.403   0.762
20063SOL    HW162028   5.517  11.466   0.770
20063SOL    HW262029   5.489  11.318   0.758
20064SOL     OW62030  10.045   0.104   6.149
20064SOL    HW162031  10.121   0.121   6.094
20064SOL    HW262032  10.052   0.011   6.170
20065SOL     OW62033  10.778   0.981   4.550
20065SOL    HW162034  10.747   0.892   4.535
20065SOL    HW262035  10.865   0.983   4.510
20066SOL     OW62036   4.965   4.229   7.393
20066SOL    HW162037   5.052   4.199   7.419
20066SOL    HW262038   4.916   4.235   7.475
20067SOL     OW62039   3.072   3.814   1.142
20067SOL    HW162040   3.063   3.897   1.095
20067SOL    HW262041   3.112   3.837   1.225
20068SOL     OW62042   6.138   3.286   4.961
20068SOL    HW162043   6.056   3.271   5.008
20068SOL    HW262044   6.116   3.268   4.869
20069SOL     OW62045   2.878  12.889   0.177
20069SOL    HW162046   2.924  12.972   0.188
20069SOL    HW262047   2.796  12.912   0.133
20070SOL     OW62048   7.373   5.139  11.147
20070SOL    HW162049   7.406   5.213  11.096
20070SOL    HW262050   7.290   5.170  11.184
20071SOL     OW62051  13.935  14.145   5.993
20071SOL    HW162052  13.966  14.058   5.967
20071SOL    HW262053  13.889  14.130   6.076
20072SOL     OW62054  10.148   8.103  11.999
20072SOL    HW162055  10.146   8.078  11.906
20072SOL    HW262056  10.082   8.171  12.007
20073SOL     OW62057   1.845   9.523   0.680
20073SOL    HW162058   1.897   9.600   0.704
20073SOL    HW262059   1.764   9.559   0.645
20074SOL     OW62060   4.492   4.630   1.886
20074SOL    HW162061   4.432   4.608   1.814
20074SOL    HW262062   4.442   4.692   1.940
20075SOL     OW62063  14.110  11.536   3.396
20075SOL    HW162064  14.191  11.513   3.441
20075SOL    HW262065  14.110  11.632   3.395
20076SOL     OW62066   2.929   3.054   0.016
20076SOL    HW162067   2.869   3.127   0.002
20076SOL    HW262068   2.896   2.985  14.833
20077SOL     OW62069   4.718   3.627   2.110
20077SOL    HW162070   4.769   3.549   2.088
20077SOL    HW262071   4.633   3.593   2.139
20078SOL     OW62072   6.984  13.288   4.420
20078SOL    HW162073   6.894  13.316   4.403
20078SOL    HW262074   6.983  13.193   4.406
20079SOL     OW62075   9.581  12.629   4.391
20079SOL    HW162076   9.606  12.679   4.468
20079SOL    HW262077   9.498  12.667   4.364
20080SOL     OW62078   3.690   9.659  14.352
20080SOL    HW162079   3.657   9.616  14.431
20080SOL    HW262080   3.783   9.638  14.351
20081SOL     OW62081  10.078   1.118   3.227
20081SOL    HW162082  10.153   1.080   3.181
20081SOL    HW262083  10.074   1.069   3.310
20082SOL     OW62084  13.173   0.849   2.257
20082SOL    HW162085  13.212   0.762   2.259
20082SOL    HW262086  13.245   0.906   2.227
20083SOL     OW62087   4.784  11.482   3.349
20083SOL    HW162088   4.855  11.436   3.307
20083SOL    HW262089   4.767  11.433   3.429
20084SOL     OW62090   9.576   5.235  13.964
20084SOL    HW162091   9.583   5.330  13.954
20084SOL    HW262092   9.506   5.223  14.029
20085SOL     OW62093  14.833   0.957  11.790
20085SOL    HW162094  14.791   0.874  11.766
20085SOL    HW262095  14.824   1.011  11.711
20086SOL     OW62096   2.288   0.997  12.140
20086SOL    HW162097   2.318   1.085  12.116
20086SOL    HW262098   2.320   0.941  12.070
20087SOL     OW62099  11.082   2.556   9.191
20087SOL    HW162100  11.084   2.510   9.107
20087SOL    HW262101  11.018   2.508   9.243
20088SOL     OW62102  12.276   0.234   3.771
20088SOL    HW162103  12.233   0.285   3.840
20088SOL    HW262104  12.205   0.181   3.734
20089SOL     OW62105   0.601   9.889   6.234
20089SOL    HW162106   0.624   9.865   6.323
20089SOL    HW262107   0.524   9.836   6.213
20090SOL     OW62108   2.755  11.123   3.120
20090SOL    HW162109   2.797  11.140   3.036
20090SOL    HW262110   2.706  11.042   3.107
20091SOL     OW62111   9.101   5.973   3.377
20091SOL    HW162112   9.188   5.971   3.338
20091SOL    HW262113   9.040   5.973   3.303
20092SOL     OW62114  12.474  14.144   9.182
20092SOL    HW162115  12.468  14.209   9.112
20092SOL    HW262116  12.567  14.124   9.189
20093SOL     OW62117   8.099   0.475   9.354
20093SOL    HW162118   8.185   0.437   9.336
20093SOL    HW262119   8.072   0.513   9.271
20094SOL     OW62120   4.111   9.630   4.014
20094SOL    HW162121   4.043   9.647   3.949
20094SOL    HW262122   4.067   9.640   4.099
20095SOL     OW62123   0.275  11.697   7.914
20095SOL    HW162124   0.214  11.770   7.921
20095SOL    HW262125   0.226  11.628   7.868
20096SOL     OW62126  10.972   6.997   9.383
20096SOL    HW162127  10.954   6.903   9.381
20096SOL    HW262128  11.061   7.004   9.349
20097SOL     OW62129   4.808  10.903   6.367
20097SOL    HW162130   4.792  10.942   6.281
20097SOL    HW262131   4.899  10.872   6.363
20098SOL     OW62132   1.859   0.899  10.682
20098SOL    HW162133   1.775   0.895  10.728
20098SOL    HW262134   1.924   0.902  10.752
20099SOL     OW62135   9.127   7.376   3.117
20099SOL    HW162136   9.060   7.438   3.089
20099SOL    HW262137   9.182   7.425   3.178
20100SOL     OW62138   4.135  12.360  10.304
20100SOL    HW162139   4.210  12.312  10.337
20100SOL    HW262140   4.141  12.353  10.209
20101SOL     OW62141   8.903  10.286  12.870
20101SOL    HW162142   8.872  10.288  12.779
20101SOL    HW262143   8.902  10.377  12.898
20102SOL     OW62144   7.189  13.810  11.777
20102SOL    HW162145   7.121  13.747  11.752
20102SOL    HW262146   7.261  13.756  11.809
20103SOL     OW62147   3.086  14.623   3.451
20103SOL    HW162148   3.058  14.598   3.363
20103SOL    HW262149   3.182  14.626   3.446
20104SOL     OW62150  12.713   9.064   9.114
20104SOL    HW162151  12.686   9.005   9.044
20104SOL    HW262152  12.632   9.089   9.157
20105SOL     OW62153  11.834  14.236   2.926
20105SOL    HW162154  11.867  14.256   3.013
20105SOL    HW262155  11.912  14.234   2.870
20106SOL     OW62156   8.634  12.852   9.746
20106SOL    HW162157   8.547  12.842   9.785
20106SOL    HW262158   8.651  12.768   9.703
20107SOL     OW62159   1.749   0.277  10.645
20107SOL    HW162160   1.665   0.279  10.691
20107SOL    HW262161   1.792   0.199  10.678
20108SOL     OW62162   8.407   9.235   7.494
20108SOL    HW162163   8.478   9.299   7.503
20108SOL    HW262164   8.387   9.235   7.401
20109SOL     OW62165   4.217  14.122   8.659
20109SOL    HW162166   4.155  14.188   8.629
20109SOL    HW262167   4.281  14.116   8.588
20110SOL     OW62168   2.891  11.530   0.641
20110SOL    HW162169   2.854  11.616   0.619
20110SOL    HW262170   2.985  11.542   0.633
20111SOL     OW62171   7.514   5.690   0.023
20111SOL    HW162172   7.502   5.637  14.818
20111SOL    HW262173   7.425   5.703   0.057
20112SOL     OW62174   1.332   7.834  11.369
20112SOL    HW162175   1.261   7.809  11.310
20112SOL    HW262176   1.289   7.861  11.449
20113SOL     OW62177   5.367   5.567   6.598
20113SOL    HW162178   5.332   5.656   6.610
20113SOL    HW262179   5.462   5.578   6.604
20114SOL     OW62180  12.049   7.307   9.455
20114SOL    HW162181  12.033   7.214   9.438
20114SOL    HW262182  11.969   7.350   9.426
20115SOL     OW62183  10.826   6.606   0.667
20115SOL    HW162184  10.738   6.637   0.647
20115SOL    HW262185  10.823   6.585   0.761
20116SOL     OW62186   8.517   5.473  14.811
20116SOL    HW162187   8.533   5.550  14.755
20116SOL    HW262188   8.570   5.490   0.016
20117SOL     OW62189   5.330   7.478   7.071
20117SOL    HW162190   5.275   7.402   7.053
20117SOL    HW262191   5.280   7.553   7.038
20118SOL     OW62192   2.841   9.465  13.850
20118SOL    HW162193   2.827   9.406  13.776
20118SOL    HW262194   2.929   9.501  13.836
20119SOL     OW62195   4.016   9.760  12.703
20119SOL    HW162196   3.982   9.846  12.682
20119SOL    HW262197   4.094   9.777  12.756
20120SOL     OW62198   0.003  13.708  11.039
20120SOL    HW162199   0.065  13.648  10.999
20120SOL    HW262200  14.817  13.733  10.967
20121SOL     OW62201   4.229  10.584  14.010
20121SOL    HW162202   4.154  10.525  14.018
20121SOL    HW262203   4.305  10.527  14.000
20122SOL     OW62204   1.344   1.921   0.620
20122SOL    HW162205   1.363   2.015   0.622
20122SOL    HW262206   1.326   1.898   0.711
20123SOL     OW62207  14.574   9.062   9.749
20123SOL    HW162208  14.638   9.068   9.820
20123SOL    HW262209  14.527   8.981   9.765
20124SOL     OW62210   6.433  11.736   5.552
20124SOL    HW162211   6.388  11.810   5.511
20124SOL    HW262212   6.382  11.718   5.631
20125SOL     OW62213   3.019   9.583   8.455
20125SOL    HW162214   2.946   9.610   8.511
20125SOL    HW262215   3.024   9.488   8.466
20126SOL     OW62216  10.782   7.188   4.982
20126SOL    HW162217  10.789   7.191   4.886
20126SOL    HW262218  10.867   7.217   5.013
20127SOL     OW62219   5.918   9.240  11.821
20127SOL    HW162220   5.932   9.316  11.877
20127SOL    HW262221   5.971   9.171  11.861
20128SOL     OW62222   8.375  10.369  12.045
20128SOL    HW162223   8.451  10.415  12.081
20128SOL    HW262224   8.410  10.286  12.013
20129SOL     OW62225   2.248   0.206  12.420
20129SOL    HW162226   2.225   0.254  12.340
20129SOL    HW262227   2.203   0.122  12.411
20130SOL     OW62228  11.305  10.338   4.917
20130SOL    HW162229  11.390  10.296   4.903
20130SOL    HW262230  11.285  10.380   4.833
20131SOL     OW62231  10.645  10.094  11.588
20131SOL    HW162232  10.588  10.117  11.515
20131SOL    HW262233  10.586  10.091  11.664
20132SOL     OW62234   3.528  12.847   6.654
20132SOL    HW162235   3.571  12.883   6.732
20132SOL    HW262236   3.456  12.908   6.636
20133SOL     OW62237   4.350   9.692   8.438
20133SOL    HW162238   4.376   9.743   8.362
20133SOL    HW262239   4.408   9.616   8.438
20134SOL     OW62240   5.182   2.158   6.949
20134SOL    HW162241   5.158   2.244   6.983
20134SOL    HW262242   5.107   2.103   6.969
20135SOL     OW62243  14.213   2.768  13.754
20135SOL    HW162244  14.155   2.823  13.701
20135SOL    HW262245  14.210   2.682  13.711
20136SOL     OW62246   1.785   7.286   7.360
20136SOL    HW162247   1.759   7.377   7.350
20136SOL    HW262248   1.711   7.245   7.405
20137SOL     OW62249   8.846   2.418  13.568
20137SOL    HW162250   8.753   2.441  13.579
20137SOL    HW262251   8.844   2.334  13.522
20138SOL     OW62252  12.850   1.974  14.086
20138SOL    HW162253  12.781   1.910  14.070
20138SOL    HW262254  12.875   1.960  14.177
20139SOL     OW62255   9.081   8.397   5.368
20139SOL    HW162256   9.158   8.372   5.419
20139SOL    HW262257   9.074   8.492   5.380
20140SOL     OW62258  14.250   7.002  12.731
20140SOL    HW162259  14.164   7.035  12.755
20140SOL    HW262260  14.246   6.908  12.748
20141SOL     OW62261   4.785   0.161   7.001
20141SOL    HW162262   4.789   0.075   6.958
20141SOL    HW262263   4.850   0.214   6.954
20142SOL     OW62264   7.399   3.793   1.618
20142SOL    HW162265   7.376   3.711   1.663
20142SOL    HW262266   7.385   3.861   1.685
20143SOL     OW62267  13.789  14.467  12.969
20143SOL    HW162268  13.877  14.444  12.938
20143SOL    HW262269  13.730  14.423  12.907
20144SOL     OW62270  11.266  13.850   2.430
20144SOL    HW162271  11.215  13.814   2.502
20144SOL    HW262272  11.204  13.902   2.379
20145SOL     OW62273  13.469   0.305   9.877
20145SOL    HW162274  13.513   0.224   9.853
20145SOL    HW262275  13.379   0.293   9.845
20146SOL     OW62276  12.036   4.863   2.947
20146SOL    HW162277  11.977   4.836   2.876
20146SOL    HW262278  12.120   4.823   2.925
20147SOL     OW62279   9.303   8.030   1.340
20147SOL    HW162280   9.329   7.957   1.396
20147SOL    HW262281   9.215   8.053   1.369
20148SOL     OW62282   1.716   8.254   7.207
20148SOL    HW162283   1.774   8.295   7.272
20148SOL    HW262284   1.628   8.271   7.240
20149SOL     OW62285  12.210   8.749   7.816
20149SOL    HW162286  12.208   8.691   7.740
20149SOL    HW262287  12.198   8.691   7.891
20150SOL     OW62288   4.602   2.385  14.361
20150SOL    HW162289   4.561   2.471  14.366
20150SOL    HW262290   4.538   2.325  14.399
20151SOL     OW62291   5.514   8.987   5.180
20151SOL    HW162292   5.539   9.045   5.108
20151SOL    HW262293   5.419   8.978   5.171
20152SOL     OW62294   5.357  12.237   2.008
20152SOL    HW162295   5.375  12.167   1.946
20152SOL    HW262296   5.315  12.305   1.955
20153SOL     OW62297  11.894   4.969   8.357
20153SOL    HW162298  11.957   4.900   8.335
20153SOL    HW262299  11.940   5.051   8.339
20154SOL     OW62300  14.636  11.046  12.604
20154SOL    HW162301  14.643  11.128  12.556
20154SOL    HW262302  14.591  10.987  12.544
20155SOL     OW62303   9.372   4.828  11.121
20155SOL    HW162304   9.356   4.922  11.129
20155SOL    HW262305   9.379   4.813  11.026
20156SOL     OW62306  10.461  13.598   5.653
20156SOL    HW162307  10.521  13.653   5.603
20156SOL    HW262308  10.431  13.654   5.725
20157SOL     OW62309  14.456   7.863   6.960
20157SOL    HW162310  14.428   7.955   6.965
20157SOL    HW262311  14.412   7.830   6.882
20158SOL     OW62312  11.561   2.186   9.243
20158SOL    HW162313  11.539   2.109   9.191
20158SOL    HW262314  11.496   2.187   9.313
20159SOL     OW62315   2.336   0.156  11.850
20159SOL    HW162316   2.388   0.137  11.772
20159SOL    HW262317   2.286   0.234  11.828
20160SOL     OW62318   0.994   5.689  10.596
20160SOL    HW162319   0.927   5.648  10.541
20160SOL    HW262320   0.964   5.779  10.606
20161SOL     OW62321   1.057  10.180  13.542
20161SOL    HW162322   1.104  10.187  13.460
20161SOL    HW262323   1.074  10.262  13.587
20162SOL     OW62324   8.761  11.107  14.840
20162SOL    HW162325   8.815  11.031  14.861
20162SOL    HW262326   8.819  11.166  14.792
20163SOL     OW62327   3.264   8.831  11.518
20163SOL    HW162328   3.205   8.890  11.564
20163SOL    HW262329   3.223   8.815  11.433
20164SOL     OW62330  14.610   5.482   9.437
20164SOL    HW162331  14.643   5.394   9.452
20164SOL    HW262332  14.676   5.540   9.476
20165SOL     OW62333   8.828   9.952   7.277
20165SOL    HW162334   8.748   9.900   7.274
20165SOL    HW262335   8.899   9.888   7.276
20166SOL     OW62336   9.615   2.100  14.797
20166SOL    HW162337   9.665   2.021  14.773
20166SOL    HW262338   9.593   2.140  14.713
20167SOL     OW62339   4.346   3.091   0.811
20167SOL    HW162340   4.258   3.126   0.800
20167SOL    HW262341   4.371   3.058   0.724
20168SOL     OW62342   0.126  13.266   5.616
20168SOL    HW162343   0.142  13.186   5.667
20168SOL    HW262344   0.041  13.297   5.645
20169SOL     OW62345   8.389   4.834  10.331
20169SOL    HW162346   8.344   4.828  10.247
20169SOL    HW262347   8.427   4.921  10.332
20170SOL     OW62348   7.924   6.860  12.092
20170SOL    HW162349   7.922   6.955  12.099
20170SOL    HW262350   7.832   6.834  12.086
20171SOL     OW62351   5.621  11.902   2.884
20171SOL    HW162352   5.695  11.857   2.844
20171SOL    HW262353   5.577  11.945   2.810
20172SOL     OW62354   0.741  13.217   3.290
20172SOL    HW162355   0.783  13.135   3.265
20172SOL    HW262356   0.791  13.248   3.365
20173SOL     OW62357   6.965   7.933   6.889
20173SOL    HW162358   6.996   8.024   6.888
20173SOL    HW262359   7.044   7.881   6.878
20174SOL     OW62360   0.996   6.746  13.143
20174SOL    HW162361   1.014   6.652  13.131
20174SOL    HW262362   0.922   6.748  13.204
20175SOL     OW62363  10.150   3.243  10.279
20175SOL    HW162364  10.127   3.246  10.186
20175SOL    HW262365  10.068   3.260  10.324
20176SOL     OW62366   8.568   4.871  10.641
20176SOL    HW162367   8.639   4.934  10.626
20176SOL    HW262368   8.556   4.870  10.736
20177SOL     OW62369   7.237   1.430  14.583
20177SOL    HW162370   7.280   1.346  14.572
20177SOL    HW262371   7.163   1.411  14.642
20178SOL     OW62372   2.628   9.703   2.115
20178SOL    HW162373   2.613   9.729   2.024
20178SOL    HW262374   2.721   9.681   2.119
20179SOL     OW62375   2.596  10.501   4.708
20179SOL    HW162376   2.596  10.528   4.800
20179SOL    HW262377   2.508  10.524   4.676
20180SOL     OW62378  13.067  14.142   6.581
20180SOL    HW162379  13.142  14.085   6.566
20180SOL    HW262380  13.096  14.229   6.554
20181SOL     OW62381   1.404   8.171  12.116
20181SOL    HW162382   1.335   8.194  12.177
20181SOL    HW262383   1.362   8.175  12.030
20182SOL     OW62384  13.241   0.039  12.702
20182SOL    HW162385  13.305  14.850  12.738
20182SOL    HW262386  13.168   0.035  12.764
20183SOL     OW62387  10.789  12.464   4.577
20183SOL    HW162388  10.742  12.478   4.659
20183SOL    HW262389  10.876  12.434   4.605
20184SOL     OW62390   9.900  10.456  10.493
20184SOL    HW162391   9.874  10.372  10.533
20184SOL    HW262392   9.819  10.504  10.484
20185SOL     OW62393  12.205   4.098   5.366
20185SOL    HW162394  12.247   4.136   5.443
20185SOL    HW262395  12.122   4.145   5.359
20186SOL     OW62396   1.662   3.895   3.158
20186SOL    HW162397   1.613   3.973   3.131
20186SOL    HW262398   1.596   3.837   3.196
20187SOL     OW62399   4.136   0.972   3.110
20187SOL    HW162400   4.175   0.918   3.179
20187SOL    HW262401   4.044   0.946   3.109
20188SOL     OW62402   0.526   9.189   2.241
20188SOL    HW162403   0.450   9.189   2.299
20188SOL    HW262404   0.598   9.221   2.295
20189SOL     OW62405  12.734  10.409   3.977
20189SOL    HW162406  12.675  10.472   4.018
20189SOL    HW262407  12.789  10.378   4.049
20190SOL     OW62408   8.403   4.976   6.853
20190SOL    HW162409   8.353   4.919   6.912
20190SOL    HW262410   8.367   4.956   6.766
20191SOL     OW62411   7.086   9.609   4.963
20191SOL    HW162412   7.042   9.646   5.040
20191SOL    HW262413   7.039   9.647   4.888
20192SOL     OW62414   5.791  11.535   3.339
20192SOL    HW162415   5.883  11.537   3.315
20192SOL    HW262416   5.744  11.560   3.259
20193SOL     OW62417   1.349  11.702   0.306
20193SOL    HW162418   1.439  11.732   0.307
20193SOL    HW262419   1.319  11.708   0.397
20194SOL     OW62420   7.321   2.812  12.992
20194SOL    HW162421   7.403   2.829  12.946
20194SOL    HW262422   7.307   2.718  12.984
20195SOL     OW62423   2.979  14.856   3.625
20195SOL    HW162424   2.911  14.822   3.684
20195SOL    HW262425   2.985  14.791   3.555
20196SOL     OW62426   6.451  12.015   4.168
20196SOL    HW162427   6.359  12.008   4.191
20196SOL    HW262428   6.452  12.055   4.081
20197SOL     OW62429  10.645   3.054  13.154
20197SOL    HW162430  10.680   2.976  13.111
20197SOL    HW262431  10.701   3.125  13.122
20198SOL     OW62432  10.867   6.438  13.614
20198SOL    HW162433  10.788   6.490  13.597
20198SOL    HW262434  10.932   6.501  13.644
20199SOL     OW62435   7.871  13.221   1.395
20199SOL    HW162436   7.866  13.141   1.343
20199SOL    HW262437   7.951  13.210   1.447
20200SOL     OW62438   6.045   7.772  14.724
20200SOL    HW162439   6.001   7.857  14.732
20200SOL    HW262440   6.018   7.724  14.802
20201SOL     OW62441   1.079   6.702   2.967
20201SOL    HW162442   1.170   6.676   2.977
20201SOL    HW262443   1.056   6.741   3.051
20202SOL     OW62444   1.111  12.426   1.875
20202SOL    HW162445   1.029  12.476   1.871
20202SOL    HW262446   1.117  12.382   1.791
20203SOL     OW62447  11.250   8.393   8.689
20203SOL    HW162448  11.180   8.369   8.628
20203SOL    HW262449  11.239   8.487   8.702
20204SOL     OW62450  11.159   7.128  13.459
20204SOL    HW162451  11.199   7.169  13.383
20204SOL    HW262452  11.217   7.151  13.532
20205SOL     OW62453   0.639   3.539   7.931
20205SOL    HW162454   0.669   3.451   7.955
20205SOL    HW262455   0.546   3.528   7.912
20206SOL     OW62456   2.629   8.097   1.422
20206SOL    HW162457   2.618   8.085   1.327
20206SOL    HW262458   2.545   8.072   1.459
20207SOL     OW62459  13.526  13.105  13.108
20207SOL    HW162460  13.449  13.066  13.149
20207SOL    HW262461  13.574  13.031  13.071
20208SOL     OW62462  10.592   0.656  12.157
20208SOL    HW162463  10.629   0.723  12.214
20208SOL    HW262464  10.522   0.616  12.210
20209SOL     OW62465  14.848   2.748   4.472
20209SOL    HW162466   0.017   2.715   4.393
20209SOL    HW262467  14.756   2.760   4.448
20210SOL     OW62468   5.425  10.343  11.964
20210SOL    HW162469   5.488  10.415  11.967
20210SOL    HW262470   5.345  10.384  11.929
20211SOL     OW62471  12.127   9.537  12.446
20211SOL    HW162472  12.214   9.515  12.481
20211SOL    HW262473  12.117   9.631  12.466
20212SOL     OW62474  10.077   0.267  14.177
20212SOL    HW162475  10.079   0.234  14.266
20212SOL    HW262476   9.995   0.235  14.140
20213SOL     OW62477  14.308   0.856   8.898
20213SOL    HW162478  14.321   0.950   8.890
20213SOL    HW262479  14.358   0.819   8.825
20214SOL     OW62480  10.821   6.789  13.659
20214SOL    HW162481  10.861   6.742  13.586
20214SOL    HW262482  10.735   6.815  13.627
20215SOL     OW62483   4.517   4.599   3.239
20215SOL    HW162484   4.493   4.571   3.151
20215SOL    HW262485   4.487   4.529   3.296
20216SOL     OW62486   7.721  10.886   6.246
20216SOL    HW162487   7.635  10.845   6.245
20216SOL    HW262488   7.757  10.868   6.159
20217SOL     OW62489   5.050   3.933  10.489
20217SOL    HW162490   5.092   4.004  10.442
20217SOL    HW262491   4.965   3.922  10.445
20218SOL     OW62492   0.921   5.927   2.492
20218SOL    HW162493   0.832   5.960   2.506
20218SOL    HW262494   0.938   5.871   2.568
20219SOL     OW62495  11.360  12.086   3.488
20219SOL    HW162496  11.361  12.003   3.440
20219SOL    HW262497  11.340  12.061   3.578
20220SOL     OW62498  13.110   4.177  11.661
20220SOL    HW162499  13.042   4.117  11.630
20220SOL    HW262500  13.192   4.138  11.631
20221SOL     OW62501   1.142   2.355   8.459
20221SOL    HW162502   1.079   2.392   8.521
20221SOL    HW262503   1.096   2.356   8.375
20222SOL     OW62504   5.618   6.823   2.945
20222SOL    HW162505   5.673   6.772   2.886
20222SOL    HW262506   5.555   6.867   2.887
20223SOL     OW62507  10.137   4.039  14.833
20223SOL    HW162508  10.169   3.988   0.034
20223SOL    HW262509  10.157   3.986  14.756
20224SOL     OW62510   1.735   2.989   1.916
20224SOL    HW162511   1.780   2.966   1.998
20224SOL    HW262512   1.791   2.954   1.847
20225SOL     OW62513   6.394   1.738   0.776
20225SOL    HW162514   6.387   1.827   0.810
20225SOL    HW262515   6.473   1.738   0.723
20226SOL     OW62516   1.113   1.329  11.291
20226SOL    HW162517   1.110   1.269  11.216
20226SOL    HW262518   1.022   1.339  11.318
20227SOL     OW62519  13.672   4.016   2.524
20227SOL    HW162520  13.700   3.971   2.444
20227SOL    HW262521  13.745   4.075   2.545
20228SOL     OW62522   0.706   6.032   0.840
20228SOL    HW162523   0.732   6.090   0.912
20228SOL    HW262524   0.780   6.036   0.779
20229SOL     OW62525  12.312   4.827   0.305
20229SOL    HW162526  12.385   4.785   0.259
20229SOL    HW262527  12.266   4.755   0.347
20230SOL     OW62528   0.652   7.296   0.475
20230SOL    HW162529   0.582   7.241   0.439
20230SOL    HW262530   0.616   7.330   0.557
20231SOL     OW62531  13.906   6.175  10.702
20231SOL    HW162532  13.965   6.157  10.629
20231SOL    HW262533  13.910   6.270  10.714
20232SOL     OW62534  10.421  14.680  14.077
20232SOL    HW162535  10.454  14.735  14.148
20232SOL    HW262536  10.343  14.726  14.046
20233SOL     OW62537  11.743  12.897   3.959
20233SOL    HW162538  11.693  12.977   3.976
20233SOL    HW262539  11.731  12.882   3.865
20234SOL     OW62540   1.097   3.878   1.587
20234SOL    HW162541   1.079   3.786   1.570
20234SOL    HW262542   1.025   3.907   1.643
20235SOL     OW62543   4.297  12.072   0.894
20235SOL    HW162544   4.287  12.082   0.988
20235SOL    HW262545   4.241  12.140   0.856
20236SOL     OW62546  10.716   9.701  12.785
20236SOL    HW162547  10.777   9.714  12.858
20236SOL    HW262548  10.632   9.730  12.820
20237SOL     OW62549   3.691   8.258  14.226
20237SOL    HW162550   3.596   8.263  14.217
20237SOL    HW262551   3.717   8.182  14.175
20238SOL     OW62552   1.090   8.189   5.316
20238SOL    HW162553   1.116   8.282   5.314
20238SOL    HW262554   0.996   8.191   5.298
20239SOL     OW62555   8.686   8.496  14.667
20239SOL    HW162556   8.702   8.408  14.703
20239SOL    HW262557   8.620   8.534  14.725
20240SOL     OW62558   0.107  10.666   9.605
20240SOL    HW162559   0.018  10.658   9.571
20240SOL    HW262560   0.152  10.723   9.542
20241SOL     OW62561   0.801   2.821  12.590
20241SOL    HW162562   0.787   2.761  12.663
20241SOL    HW262563   0.745   2.788  12.520
20242SOL     OW62564   4.893   4.241   9.349
20242SOL    HW162565   4.934   4.319   9.311
20242SOL    HW262566   4.801   4.266   9.361
20243SOL     OW62567   3.359   2.196   4.197
20243SOL    HW162568   3.302   2.271   4.182
20243SOL    HW262569   3.325   2.128   4.138
20244SOL     OW62570   4.875   5.296   5.915
20244SOL    HW162571   4.867   5.391   5.906
20244SOL    HW262572   4.845   5.278   6.004
20245SOL     OW62573   6.339   4.184  14.504
20245SOL    HW162574   6.322   4.258  14.446
20245SOL    HW262575   6.259   4.131  14.499
20246SOL     OW62576  10.180   9.178   1.560
20246SOL    HW162577  10.160   9.094   1.520
20246SOL    HW262578  10.249   9.160   1.623
20247SOL     OW62579  10.405   5.964   4.703
20247SOL    HW162580  10.483   6.016   4.720
20247SOL    HW262581  10.437   5.876   4.686
20248SOL     OW62582   5.943   2.363   0.884
20248SOL    HW162583   6.019   2.310   0.861
20248SOL    HW262584   5.869   2.316   0.845
20249SOL     OW62585   9.060   3.173   8.173
20249SOL    HW162586   8.966   3.189   8.163
20249SOL    HW262587   9.075   3.087   8.135
20250SOL     OW62588  12.900   3.480  10.674
20250SOL    HW162589  12.942   3.447  10.594
20250SOL    HW262590  12.965   3.465  10.742
20251SOL     OW62591  13.835   1.869   9.610
20251SOL    HW162592  13.789   1.851   9.528
20251SOL    HW262593  13.905   1.804   9.614
20252SOL     OW62594   5.667   0.675  13.009
20252SOL    HW162595   5.669   0.628  13.093
20252SOL    HW262596   5.573   0.682  12.988
20253SOL     OW62597   7.612   4.231   2.690
20253SOL    HW162598   7.594   4.312   2.737
20253SOL    HW262599   7.558   4.165   2.734
20254SOL     OW62600   7.290   6.996   3.742
20254SOL    HW162601   7.347   6.954   3.807
20254SOL    HW262602   7.346   7.062   3.701
20255SOL     OW62603   8.871   7.977  11.616
20255SOL    HW162604   8.867   7.946  11.526
20255SOL    HW262605   8.942   7.926  11.655
20256SOL     OW62606  14.124   4.764   9.647
20256SOL    HW162607  14.048   4.774   9.590
20256SOL    HW262608  14.194   4.737   9.587
20257SOL     OW62609   9.438   9.072  14.748
20257SOL    HW162610   9.518   9.020  14.748
20257SOL    HW262611   9.389   9.041  14.824
20258SOL     OW62612   4.959  11.710   8.950
20258SOL    HW162613   4.866  11.695   8.963
20258SOL    HW262614   4.963  11.784   8.889
20259SOL     OW62615  12.094   7.370  11.495
20259SOL    HW162616  12.124   7.370  11.585
20259SOL    HW262617  12.160   7.319  11.448
20260SOL     OW62618   0.505   9.621  14.349
20260SOL    HW162619   0.584   9.569  14.336
20260SOL    HW262620   0.537   9.709  14.372
20261SOL     OW62621   3.230   5.562   1.557
20261SOL    HW162622   3.161   5.614   1.597
20261SOL    HW262623   3.261   5.614   1.483
20262SOL     OW62624   1.149   8.304   4.360
20262SOL    HW162625   1.213   8.354   4.310
20262SOL    HW262626   1.070   8.305   4.308
20263SOL     OW62627  10.282   4.792   6.264
20263SOL    HW162628  10.232   4.758   6.339
20263SOL    HW262629  10.232   4.766   6.187
20264SOL     OW62630   6.274  10.201   4.827
20264SOL    HW162631   6.230  10.267   4.774
20264SOL    HW262632   6.270  10.121   4.773
20265SOL     OW62633   6.565   0.020  13.529
20265SOL    HW162634   6.569  14.802  13.498
20265SOL    HW262635   6.628   0.024  13.600
20266SOL     OW62636  12.547   6.196   9.209
20266SOL    HW162637  12.642   6.199   9.200
20266SOL    HW262638  12.531   6.141   9.286
20267SOL     OW62639   3.924   6.422   0.966
20267SOL    HW162640   4.003   6.369   0.957
20267SOL    HW262641   3.954   6.513   0.955
20268SOL     OW62642   0.183   7.446  12.787
20268SOL    HW162643   0.240   7.399  12.847
20268SOL    HW262644   0.140   7.378  12.735
20269SOL     OW62645   9.222  11.468   3.086
20269SOL    HW162646   9.155  11.410   3.122
20269SOL    HW262647   9.297  11.458   3.145
20270SOL     OW62648   9.610   9.858   9.835
20270SOL    HW162649   9.627   9.790   9.900
20270SOL    HW262650   9.540   9.822   9.781
20271SOL     OW62651   1.683   0.222   1.867
20271SOL    HW162652   1.740   0.225   1.791
20271SOL    HW262653   1.597   0.248   1.834
20272SOL     OW62654  12.391  11.977   5.581
20272SOL    HW162655  12.418  11.888   5.604
20272SOL    HW262656  12.461  12.010   5.525
20273SOL     OW62657  14.864   3.234   5.797
20273SOL    HW162658  14.840   3.172   5.867
20273SOL    HW262659   0.084   3.220   5.783
20274SOL     OW62660   7.200  14.583   8.642
20274SOL    HW162661   7.231  14.505   8.595
20274SOL    HW262662   7.145  14.548   8.712
20275SOL     OW62663   6.589  12.612   3.436
20275SOL    HW162664   6.554  12.524   3.423
20275SOL    HW262665   6.598  12.648   3.347
20276SOL     OW62666  12.563   2.101   3.068
20276SOL    HW162667  12.511   2.074   2.992
20276SOL    HW262668  12.598   2.187   3.043
20277SOL     OW62669  10.642   7.581   2.807
20277SOL    HW162670  10.598   7.573   2.891
20277SOL    HW262671  10.717   7.522   2.814
20278SOL     OW62672   1.649   1.488   8.903
20278SOL    HW162673   1.632   1.460   8.813
20278SOL    HW262674   1.719   1.554   8.894
20279SOL     OW62675   3.178  10.782   8.133
20279SOL    HW162676   3.117  10.800   8.205
20279SOL    HW262677   3.264  10.806   8.168
20280SOL     OW62678  13.569  13.782   7.914
20280SOL    HW162679  13.562  13.794   7.820
20280SOL    HW262680  13.606  13.865   7.946
20281SOL     OW62681   9.819   8.078   3.740
20281SOL    HW162682   9.739   8.077   3.792
20281SOL    HW262683   9.890   8.072   3.805
20282SOL     OW62684   4.013  12.586   0.548
20282SOL    HW162685   4.096  12.633   0.548
20282SOL    HW262686   4.033  12.501   0.509
20283SOL     OW62687   9.875   3.527   3.403
20283SOL    HW162688   9.882   3.583   3.326
20283SOL    HW262689   9.795   3.476   3.388
20284SOL     OW62690   3.702  10.308   1.784
20284SOL    HW162691   3.647  10.230   1.793
20284SOL    HW262692   3.739  10.321   1.871
20285SOL     OW62693  13.863   7.206  11.507
20285SOL    HW162694  13.903   7.119  11.508
20285SOL    HW262695  13.781   7.194  11.459
20286SOL     OW62696   9.226   8.939   2.587
20286SOL    HW162697   9.305   8.885   2.578
20286SOL    HW262698   9.174   8.917   2.510
20287SOL     OW62699   2.504   5.715   2.214
20287SOL    HW162700   2.534   5.646   2.155
20287SOL    HW262701   2.581   5.737   2.267
20288SOL     OW62702   5.213   2.497   9.282
20288SOL    HW162703   5.190   2.478   9.191
20288SOL    HW262704   5.144   2.557   9.312
20289SOL     OW62705   8.892   4.449   6.296
20289SOL    HW162706   8.859   4.530   6.335
20289SOL    HW262707   8.931   4.401   6.369
20290SOL     OW62708  10.556  13.886  10.106
20290SOL    HW162709  10.540  13.930  10.189
20290SOL    HW262710  10.514  13.801  10.116
20291SOL     OW62711   8.683  10.454   4.814
20291SOL    HW162712   8.674  10.499   4.730
20291SOL    HW262713   8.608  10.394   4.817
20292SOL     OW62714   3.025   0.349   1.695
20292SOL    HW162715   2.939   0.346   1.652
20292SOL    HW262716   3.056   0.259   1.693
20293SOL     OW62717   6.956   4.444   2.364
20293SOL    HW162718   6.926   4.524   2.320
20293SOL    HW262719   6.896   4.376   2.335
20294SOL     OW62720  14.004   0.991   9.952
20294SOL    HW162721  13.962   0.906   9.966
20294SOL    HW262722  14.097   0.971   9.948
20295SOL     OW62723   2.637   0.821  14.603
20295SOL    HW162724   2.557   0.788  14.644
20295SOL    HW262725   2.615   0.830  14.510
20296SOL     OW62726   4.424  14.592  14.814
20296SOL    HW162727   4.474  14.574   0.020
20296SOL    HW262728   4.462  14.673  14.780
20297SOL     OW62729   5.312   9.920   6.630
20297SOL    HW162730   5.403   9.893   6.618
20297SOL    HW262731   5.266   9.887   6.553
20298SOL     OW62732  12.820  13.274   1.966
20298SOL    HW162733  12.823  13.199   2.026
20298SOL    HW262734  12.814  13.350   2.024
20299SOL     OW62735  12.967  12.040   0.504
20299SOL    HW162736  13.024  11.987   0.448
20299SOL    HW262737  12.974  12.129   0.467
20300SOL     OW62738   4.987  11.283   3.229
20300SOL    HW162739   4.925  11.300   3.158
20300SOL    HW262740   5.058  11.234   3.188
20301SOL     OW62741   6.203  14.001   4.220
20301SOL    HW162742   6.292  14.009   4.255
20301SOL    HW262743   6.160  14.081   4.249
20302SOL     OW62744   2.520   6.074   3.430
20302SOL    HW162745   2.438   6.115   3.402
20302SOL    HW262746   2.585   6.104   3.367
20303SOL     OW62747   9.664   5.460   7.672
20303SOL    HW162748   9.721   5.502   7.737
20303SOL    HW262749   9.597   5.526   7.653
20304SOL     OW62750  12.436   1.790   0.504
20304SOL    HW162751  12.402   1.701   0.517
20304SOL    HW262752  12.358   1.845   0.506
20305SOL     OW62753   1.453  13.086  12.113
20305SOL    HW162754   1.460  13.127  12.199
20305SOL    HW262755   1.463  12.992  12.131
20306SOL     OW62756   3.170   5.311   8.186
20306SOL    HW162757   3.160   5.239   8.248
20306SOL    HW262758   3.082   5.350   8.181
20307SOL     OW62759   6.649   9.161  12.898
20307SOL    HW162760   6.729   9.138  12.945
20307SOL    HW262761   6.578   9.128  12.954
20308SOL     OW62762  13.336  12.965  13.864
20308SOL    HW162763  13.277  12.961  13.789
20308SOL    HW262764  13.417  13.002  13.829
20309SOL     OW62765   5.655   3.760  13.445
20309SOL    HW162766   5.620   3.829  13.501
20309SOL    HW262767   5.750   3.764  13.457
20310SOL     OW62768   2.480   2.848   6.270
20310SOL    HW162769   2.560   2.894   6.247
20310SOL    HW262770   2.443   2.822   6.185
20311SOL     OW62771  11.161   5.858   9.167
20311SOL    HW162772  11.124   5.777   9.133
20311SOL    HW262773  11.238   5.830   9.217
20312SOL     OW62774   7.227   3.130  12.279
20312SOL    HW162775   7.228   3.189  12.204
20312SOL    HW262776   7.283   3.058  12.254
20313SOL     OW62777   4.441   9.648   3.395
20313SOL    HW162778   4.429   9.685   3.482
20313SOL    HW262779   4.459   9.555   3.409
20314SOL     OW62780  13.599   4.329   5.969
20314SOL    HW162781  13.608   4.254   5.911
20314SOL    HW262782  13.558   4.397   5.915
20315SOL     OW62783   5.957   9.193   5.040
20315SOL    HW162784   5.993   9.125   4.983
20315SOL    HW262785   6.008   9.185   5.121
20316SOL     OW62786  10.972   8.943   9.856
20316SOL    HW162787  10.907   8.985   9.912
20316SOL    HW262788  10.932   8.860   9.829
20317SOL     OW62789  11.989   0.629   7.987
20317SOL    HW162790  11.980   0.595   8.076
20317SOL    HW262791  11.946   0.564   7.932
20318SOL     OW62792   4.564   5.039   0.314
20318SOL    HW162793   4.475   5.051   0.280
20318SOL    HW262794   4.615   5.107   0.270
20319SOL     OW62795  14.539  10.239   0.353
20319SOL    HW162796  14.519  10.247   0.446
20319SOL    HW262797  14.493  10.160   0.325
20320SOL     OW62798   0.002   3.769  12.809
20320SOL    HW162799   0.097   3.767  12.804
20320SOL    HW262800  14.851   3.685  12.848
20321SOL     OW62801  14.165  12.729   3.727
20321SOL    HW162802  14.133  12.643   3.757
20321SOL    HW262803  14.196  12.771   3.807
20322SOL     OW62804   4.704   7.311   6.194
20322SOL    HW162805   4.646   7.280   6.125
20322SOL    HW262806   4.776   7.249   6.195
20323SOL     OW62807   8.079   5.133  13.610
20323SOL    HW162808   8.043   5.167  13.691
20323SOL    HW262809   8.092   5.040  13.627
20324SOL     OW62810  11.553  13.282  11.910
20324SOL    HW162811  11.571  13.188  11.907
20324SOL    HW262812  11.459  13.289  11.895
20325SOL     OW62813   9.499   3.913  14.835
20325SOL    HW162814   9.503   3.948  14.746
20325SOL    HW262815   9.501   3.991   0.018
20326SOL     OW62816  10.617   8.781   3.796
20326SOL    HW162817  10.667   8.708   3.833
20326SOL    HW262818  10.637   8.779   3.703
20327SOL     OW62819  11.248   7.181   7.829
20327SOL    HW162820  11.254   7.277   7.823
20327SOL    HW262821  11.224   7.153   7.741
20328SOL     OW62822  12.655  11.604   8.577
20328SOL    HW162823  12.658  11.665   8.503
20328SOL    HW262824  12.716  11.534   8.553
20329SOL     OW62825   2.653   8.279   0.619
20329SOL    HW162826   2.733   8.308   0.662
20329SOL    HW262827   2.631   8.197   0.662
20330SOL     OW62828   9.597  12.879   5.558
20330SOL    HW162829   9.637  12.853   5.475
20330SOL    HW262830   9.545  12.956   5.536
20331SOL     OW62831   8.806  10.448   7.395
20331SOL    HW162832   8.762  10.499   7.327
20331SOL    HW262833   8.786  10.357   7.374
20332SOL     OW62834   7.657  14.061   3.931
20332SOL    HW162835   7.563  14.070   3.919
20332SOL    HW262836   7.667  13.981   3.983
20333SOL     OW62837   1.260   1.946   8.420
20333SOL    HW162838   1.240   1.877   8.357
20333SOL    HW262839   1.243   1.906   8.505
20334SOL     OW62840   2.216   3.763   5.511
20334SOL    HW162841   2.240   3.671   5.525
20334SOL    HW262842   2.239   3.807   5.593
20335SOL     OW62843   5.628   5.121   5.453
20335SOL    HW162844   5.565   5.182   5.415
20335SOL    HW262845   5.576   5.047   5.482
20336SOL     OW62846  10.559   3.099   4.119
20336SOL    HW162847  10.592   3.060   4.200
20336SOL    HW262848  10.627   3.162   4.093
20337SOL     OW62849   2.617  11.331   2.215
20337SOL    HW162850   2.606  11.286   2.131
20337SOL    HW262851   2.711  11.335   2.229
20338SOL     OW62852  14.118   8.892   8.370
20338SOL    HW162853  14.072   8.809   8.358
20338SOL    HW262854  14.050   8.958   8.358
20339SOL     OW62855  10.095  10.948   7.403
20339SOL    HW162856  10.064  10.931   7.492
20339SOL    HW262857  10.121  11.040   7.404
20340SOL     OW62858   7.800  12.761  11.471
20340SOL    HW162859   7.844  12.734  11.391
20340SOL    HW262860   7.870  12.782  11.532
20341SOL     OW62861  10.035   9.258   5.294
20341SOL    HW162862  10.125   9.232   5.313
20341SOL    HW262863   9.999   9.285   5.379
20342SOL     OW62864   2.281   1.365   1.388
20342SOL    HW162865   2.342   1.363   1.314
20342SOL    HW262866   2.216   1.298   1.368
20343SOL     OW62867  14.395  13.885   6.303
20343SOL    HW162868  14.379  13.874   6.210
20343SOL    HW262869  14.445  13.967   6.310
20344SOL     OW62870   1.074  13.132   8.364
20344SOL    HW162871   1.125  13.098   8.290
20344SOL    HW262872   1.136  13.137   8.436
20345SOL     OW62873   5.602  10.624   9.730
20345SOL    HW162874   5.600  10.697   9.793
20345SOL    HW262875   5.573  10.548   9.780
20346SOL     OW62876  11.466  11.629   5.235
20346SOL    HW162877  11.391  11.595   5.284
20346SOL    HW262878  11.543  11.597   5.283
20347SOL     OW62879   7.691  10.634  12.588
20347SOL    HW162880   7.608  10.677  12.606
20347SOL    HW262881   7.672  10.571  12.519
20348SOL     OW62882  11.795  13.320   4.697
20348SOL    HW162883  11.750  13.360   4.622
20348SOL    HW262884  11.751  13.357   4.774
20349SOL     OW62885   4.200   7.179   5.110
20349SOL    HW162886   4.136   7.108   5.102
20349SOL    HW262887   4.154   7.247   5.160
20350SOL     OW62888   5.624   4.409   8.459
20350SOL    HW162889   5.620   4.412   8.554
20350SOL    HW262890   5.560   4.343   8.433
20351SOL     OW62891   8.540  13.693   8.815
20351SOL    HW162892   8.490  13.702   8.897
20351SOL    HW262893   8.532  13.601   8.793
20352SOL     OW62894  14.206   4.605  13.007
20352SOL    HW162895  14.288   4.562  12.981
20352SOL    HW262896  14.213   4.694  12.972
20353SOL     OW62897  13.491  14.847   1.757
20353SOL    HW162898  13.444  14.764   1.746
20353SOL    HW262899  13.573  14.822   1.799
20354SOL     OW62900   3.801  10.183   0.421
20354SOL    HW162901   3.792  10.122   0.494
20354SOL    HW262902   3.845  10.132   0.352
20355SOL     OW62903   4.817   3.327  10.514
20355SOL    HW162904   4.884   3.382  10.473
20355SOL    HW262905   4.801   3.257  10.450
20356SOL     OW62906  10.997   6.515   9.097
20356SOL    HW162907  10.948   6.435   9.081
20356SOL    HW262908  10.936   6.586   9.076
20357SOL     OW62909   7.779   3.375   4.635
20357SOL    HW162910   7.707   3.314   4.620
20357SOL    HW262911   7.855   3.332   4.595
20358SOL     OW62912  10.313   7.962   4.833
20358SOL    HW162913  10.245   7.960   4.766
20358SOL    HW262914  10.329   7.869   4.854
20359SOL     OW62915  11.644  10.091   7.313
20359SOL    HW162916  11.570  10.075   7.256
20359SOL    HW262917  11.666  10.004   7.348
20360SOL     OW62918   8.062  14.620   8.248
20360SOL    HW162919   8.134  14.557   8.252
20360SOL    HW262920   7.987  14.569   8.219
20361SOL     OW62921   3.804  14.205   0.390
20361SOL    HW162922   3.809  14.267   0.318
20361SOL    HW262923   3.740  14.244   0.451
20362SOL     OW62924  12.482   8.567   2.983
20362SOL    HW162925  12.481   8.475   3.009
20362SOL    HW262926  12.406   8.576   2.926
20363SOL     OW62927  10.299   1.975  12.861
20363SOL    HW162928  10.377   2.029  12.848
20363SOL    HW262929  10.330   1.899  12.909
20364SOL     OW62930  14.675  13.014   1.171
20364SOL    HW162931  14.743  12.951   1.145
20364SOL    HW262932  14.663  12.998   1.265
20365SOL     OW62933   2.838  14.709   5.256
20365SOL    HW162934   2.780  14.634   5.242
20365SOL    HW262935   2.880  14.724   5.171
20366SOL     OW62936   8.210  14.174  13.744
20366SOL    HW162937   8.149  14.101  13.735
20366SOL    HW262938   8.206  14.198  13.836
20367SOL     OW62939   8.546   9.202   0.050
20367SOL    HW162940   8.513   9.291   0.045
20367SOL    HW262941   8.557   9.175  14.832
20368SOL     OW62942   9.576  14.405  12.955
20368SOL    HW162943   9.524  14.392  13.034
20368SOL    HW262944   9.566  14.323  12.906
20369SOL     OW62945   0.319  10.179  14.749
20369SOL    HW162946   0.300  10.272  14.737
20369SOL    HW262947   0.383  10.176  14.820
20370SOL     OW62948  13.774  14.249  12.103
20370SOL    HW162949  13.753  14.338  12.132
20370SOL    HW262950  13.853  14.259  12.051
20371SOL     OW62951  10.458  14.107  14.671
20371SOL    HW162952  10.542  14.115  14.717
20371SOL    HW262953  10.415  14.031  14.710
20372SOL     OW62954   8.859   9.692  10.349
20372SOL    HW162955   8.796   9.622  10.368
20372SOL    HW262956   8.938   9.647  10.320
20373SOL     OW62957   8.960   4.418   5.096
20373SOL    HW162958   9.045   4.426   5.138
20373SOL    HW262959   8.965   4.475   5.020
20374SOL     OW62960   4.597  12.085   4.863
20374SOL    HW162961   4.605  12.180   4.859
20374SOL    HW262962   4.686  12.054   4.879
20375SOL     OW62963   5.872  13.256   2.319
20375SOL    HW162964   5.853  13.342   2.281
20375SOL    HW262965   5.794  13.232   2.368
20376SOL     OW62966  13.892   7.369   1.351
20376SOL    HW162967  13.910   7.397   1.441
20376SOL    HW262968  13.862   7.448   1.307
20377SOL     OW62969  14.755   5.927   0.700
20377SOL    HW162970  14.766   5.986   0.625
20377SOL    HW262971  14.843   5.891   0.714
20378SOL     OW62972   0.835  14.169  14.838
20378SOL    HW162973   0.789  14.192  14.757
20378SOL    HW262974   0.783  14.098   0.003
20379SOL     OW62975   6.224   5.829   6.570
20379SOL    HW162976   6.297   5.800   6.515
20379SOL    HW262977   6.185   5.901   6.521
20380SOL     OW62978   9.072  10.529   1.403
20380SOL    HW162979   9.130  10.604   1.387
20380SOL    HW262980   9.063  10.526   1.498
20381SOL     OW62981   6.727   2.763   1.659
20381SOL    HW162982   6.649   2.720   1.623
20381SOL    HW262983   6.699   2.796   1.744
20382SOL     OW62984   0.670   8.427   3.400
20382SOL    HW162985   0.601   8.415   3.465
20382SOL    HW262986   0.690   8.520   3.402
20383SOL     OW62987   6.122   5.084  10.798
20383SOL    HW162988   6.208   5.077  10.840
20383SOL    HW262989   6.103   4.995  10.768
20384SOL     OW62990  13.759   9.830  14.442
20384SOL    HW162991  13.688   9.864  14.387
20384SOL    HW262992  13.825   9.900  14.440
20385SOL     OW62993   6.066  13.161  13.749
20385SOL    HW162994   6.037  13.235  13.695
20385SOL    HW262995   5.989  13.136  13.799
20386SOL     OW62996   4.851   4.908   8.630
20386SOL    HW162997   4.858   4.972   8.701
20386SOL    HW262998   4.925   4.850   8.643
20387SOL     OW62999  12.455   9.304  13.792
20387SOL    HW163000  12.400   9.320  13.868
20387SOL    HW263001  12.542   9.289  13.827
20388SOL     OW63002   6.103  11.124  12.013
20388SOL    HW163003   6.035  11.065  11.983
20388SOL    HW263004   6.069  11.162  12.094
20389SOL     OW63005   9.892  10.541   7.607
20389SOL    HW163006   9.885  10.473   7.540
20389SOL    HW263007   9.986  10.551   7.620
20390SOL     OW63008   1.204  11.907   7.358
20390SOL    HW163009   1.239  11.942   7.440
20390SOL    HW263010   1.120  11.953   7.346
20391SOL     OW63011  14.258   3.744  10.870
20391SOL    HW163012  14.185   3.762  10.810
20391SOL    HW263013  14.324   3.809  10.848
20392SOL     OW63014   4.212  14.079  11.501
20392SOL    HW163015   4.169  14.039  11.426
20392SOL    HW263016   4.237  14.006  11.557
20393SOL     OW63017   1.862   9.279   4.553
20393SOL    HW163018   1.899   9.317   4.633
20393SOL    HW263019   1.889   9.187   4.556
20394SOL     OW63020   6.335   2.660   0.631
20394SOL    HW163021   6.421   2.680   0.668
20394SOL    HW263022   6.292   2.745   0.621
20395SOL     OW63023  11.596   4.130  11.357
20395SOL    HW163024  11.635   4.085  11.282
20395SOL    HW263025  11.589   4.221  11.330
20396SOL     OW63026   6.821  11.282  11.215
20396SOL    HW163027   6.834  11.363  11.165
20396SOL    HW263028   6.900  11.230  11.196
20397SOL     OW63029   0.997  11.999   8.666
20397SOL    HW163030   0.993  12.020   8.573
20397SOL    HW263031   1.062  11.929   8.672
20398SOL     OW63032   4.071   4.017  12.883
20398SOL    HW163033   4.134   3.990  12.816
20398SOL    HW263034   4.042   3.935  12.923
20399SOL     OW63035   9.488   2.017   2.246
20399SOL    HW163036   9.521   2.100   2.211
20399SOL    HW263037   9.474   2.034   2.339
20400SOL     OW63038   7.948   9.305   8.733
20400SOL    HW163039   7.921   9.260   8.813
20400SOL    HW263040   7.920   9.246   8.663
20401SOL     OW63041   9.842   8.701  13.687
20401SOL    HW163042   9.787   8.649  13.745
20401SOL    HW263043   9.843   8.652  13.605
20402SOL     OW63044   3.585   6.157  14.433
20402SOL    HW163045   3.613   6.187  14.346
20402SOL    HW263046   3.664   6.166  14.487
20403SOL     OW63047   4.419   0.575   2.015
20403SOL    HW163048   4.393   0.545   2.102
20403SOL    HW263049   4.509   0.543   2.004
20404SOL     OW63050   6.723  11.368  13.839
20404SOL    HW163051   6.721  11.360  13.934
20404SOL    HW263052   6.632  11.358  13.811
20405SOL     OW63053   9.247   8.164  10.573
20405SOL    HW163054   9.158   8.196  10.590
20405SOL    HW263055   9.237   8.099  10.505
20406SOL     OW63056   3.969   1.168   5.610
20406SOL    HW163057   3.933   1.251   5.578
20406SOL    HW263058   4.062   1.173   5.589
20407SOL     OW63059  11.312   0.857  14.316
20407SOL    HW163060  11.318   0.771  14.276
20407SOL    HW263061  11.239   0.900  14.272
20408SOL     OW63062  11.180  12.788   5.499
20408SOL    HW163063  11.251  12.847   5.475
20408SOL    HW263064  11.216  12.700   5.484
20409SOL     OW63065   5.450   1.436   4.943
20409SOL    HW163066   5.521   1.485   4.901
20409SOL    HW263067   5.407   1.389   4.872
20410SOL     OW63068  13.564   7.528   5.673
20410SOL    HW163069  13.634   7.565   5.620
20410SOL    HW263070  13.569   7.434   5.656
20411SOL     OW63071   3.923  12.917   7.104
20411SOL    HW163072   3.843  12.867   7.117
20411SOL    HW263073   3.994  12.853   7.112
20412SOL     OW63074  13.961   6.106  14.296
20412SOL    HW163075  13.959   6.197  14.325
20412SOL    HW263076  14.000   6.109  14.209
20413SOL     OW63077   0.148   8.256   6.975
20413SOL    HW163078   0.218   8.302   6.929
20413SOL    HW263079   0.125   8.183   6.917
20414SOL     OW63080   2.083   1.880   8.287
20414SOL    HW163081   2.160   1.866   8.232
20414SOL    HW263082   2.116   1.925   8.364
20415SOL     OW63083  12.687  11.219   2.399
20415SOL    HW163084  12.749  11.224   2.472
20415SOL    HW263085  12.609  11.178   2.437
20416SOL     OW63086   9.882   5.471   7.418
20416SOL    HW163087   9.797   5.461   7.376
20416SOL    HW263088   9.861   5.503   7.506
20417SOL     OW63089   6.176   8.425   3.265
20417SOL    HW163090   6.168   8.447   3.358
20417SOL    HW263091   6.196   8.509   3.223
20418SOL     OW63092  12.665  12.425   4.898
20418SOL    HW163093  12.657  12.378   4.981
20418SOL    HW263094  12.697  12.512   4.922
20419SOL     OW63095   9.326   6.363   2.712
20419SOL    HW163096   9.366   6.438   2.668
20419SOL    HW263097   9.361   6.367   2.801
20420SOL     OW63098   6.448  10.887   6.714
20420SOL    HW163099   6.456  10.869   6.808
20420SOL    HW263100   6.530  10.931   6.691
20421SOL     OW63101   1.181   1.608   9.775
20421SOL    HW163102   1.217   1.557   9.703
20421SOL    HW263103   1.112   1.662   9.735
20422SOL     OW63104   0.386   8.154  14.528
20422SOL    HW163105   0.365   8.090  14.460
20422SOL    HW263106   0.383   8.239  14.484
20423SOL     OW63107   0.208   5.415   4.762
20423SOL    HW163108   0.246   5.469   4.830
20423SOL    HW263109   0.125   5.458   4.740
20424SOL     OW63110   5.651   5.895  10.947
20424SOL    HW163111   5.719   5.936  11.000
20424SOL    HW263112   5.610   5.967  10.899
20425SOL     OW63113  11.534   3.353  10.917
20425SOL    HW163114  11.465   3.419  10.910
20425SOL    HW263115  11.487   3.270  10.932
20426SOL     OW63116   3.401  11.964  13.063
20426SOL    HW163117   3.392  11.883  13.112
20426SOL    HW263118   3.478  12.007  13.100
20427SOL     OW63119   9.860  13.149   1.474
20427SOL    HW163120   9.936  13.090   1.466
20427SOL    HW263121   9.894  13.235   1.451
20428SOL     OW63122   7.394   1.204  11.645
20428SOL    HW163123   7.458   1.133  11.648
20428SOL    HW263124   7.380   1.220  11.551
20429SOL     OW63125  10.776  10.376   0.405
20429SOL    HW163126  10.784  10.393   0.311
20429SOL    HW263127  10.696  10.422   0.431
20430SOL     OW63128   3.110   1.942   1.604
20430SOL    HW163129   3.182   1.973   1.549
20430SOL    HW263130   3.068   1.874   1.552
20431SOL     OW63131  11.384   9.462   3.813
20431SOL    HW163132  11.449   9.460   3.743
20431SOL    HW263133  11.373   9.555   3.834
20432SOL     OW63134  13.947   0.241   4.689
20432SOL    HW163135  14.004   0.165   4.701
20432SOL    HW263136  13.863   0.205   4.661
20433SOL     OW63137  12.638   6.087   0.873
20433SOL    HW163138  12.547   6.113   0.857
20433SOL    HW263139  12.632   6.021   0.942
20434SOL     OW63140   3.358   9.707   1.040
20434SOL    HW163141   3.308   9.746   1.111
20434SOL    HW263142   3.434   9.765   1.030
20435SOL     OW63143  14.669  14.174  11.803
20435SOL    HW163144  14.687  14.192  11.711
20435SOL    HW263145  14.750  14.136  11.837
20436SOL     OW63146   7.853   2.947   2.567
20436SOL    HW163147   7.826   2.919   2.655
20436SOL    HW263148   7.776   2.933   2.512
20437SOL     OW63149   6.819   4.182  11.272
20437SOL    HW163150   6.810   4.097  11.229
20437SOL    HW263151   6.786   4.244  11.207
20438SOL     OW63152   3.886   4.055   6.072
20438SOL    HW163153   3.796   4.030   6.053
20438SOL    HW263154   3.882   4.103   6.155
20439SOL     OW63155   8.198   0.649   5.303
20439SOL    HW163156   8.177   0.626   5.394
20439SOL    HW263157   8.144   0.726   5.286
20440SOL     OW63158   0.710   7.948  11.141
20440SOL    HW163159   0.669   8.012  11.199
20440SOL    HW263160   0.692   7.863  11.181
20441SOL     OW63161   5.094   7.883  10.396
20441SOL    HW163162   5.163   7.903  10.333
20441SOL    HW263163   5.089   7.788  10.397
20442SOL     OW63164   8.272   7.641   5.969
20442SOL    HW163165   8.339   7.594   5.919
20442SOL    HW263166   8.277   7.731   5.937
20443SOL     OW63167   5.320   2.911   2.572
20443SOL    HW163168   5.232   2.877   2.590
20443SOL    HW263169   5.374   2.875   2.643
20444SOL     OW63170  13.540   0.355  11.204
20444SOL    HW163171  13.547   0.266  11.238
20444SOL    HW263172  13.452   0.383  11.228
20445SOL     OW63173   9.886   2.482   1.798
20445SOL    HW163174   9.903   2.543   1.870
20445SOL    HW263175   9.798   2.505   1.768
20446SOL     OW63176   5.794  10.664  11.535
20446SOL    HW163177   5.772  10.718  11.459
20446SOL    HW263178   5.880  10.696  11.563
20447SOL     OW63179  13.719  13.845   7.369
20447SOL    HW163180  13.646  13.789   7.342
20447SOL    HW263181  13.792  13.784   7.380
20448SOL     OW63182  11.756   1.786   4.628
20448SOL    HW163183  11.811   1.859   4.599
20448SOL    HW263184  11.675   1.794   4.579
20449SOL     OW63185   6.558   6.264   0.523
20449SOL    HW163186   6.611   6.339   0.549
20449SOL    HW263187   6.569   6.259   0.428
20450SOL     OW63188   3.837  11.978   4.229
20450SOL    HW163189   3.925  12.011   4.247
20450SOL    HW263190   3.851  11.889   4.196
20451SOL     OW63191  11.865  10.221  11.037
20451SOL    HW163192  11.799  10.176  10.984
20451SOL    HW263193  11.890  10.297  10.984
20452SOL     OW63194   9.722   7.633  10.255
20452SOL    HW163195   9.709   7.606  10.164
20452SOL    HW263196   9.697   7.557  10.307
20453SOL     OW63197   2.447   1.744   0.207
20453SOL    HW163198   2.450   1.742   0.302
20453SOL    HW263199   2.539   1.752   0.180
20454SOL     OW63200   3.677  14.364   5.138
20454SOL    HW163201   3.766  14.333   5.121
20454SOL    HW263202   3.690  14.451   5.177
20455SOL     OW63203  14.831   2.636   7.975
20455SOL    HW163204   0.034   2.694   7.981
20455SOL    HW263205  14.864   2.558   7.932
20456SOL     OW63206   6.506   8.601  10.507
20456SOL    HW163207   6.418   8.631  10.528
20456SOL    HW263208   6.498   8.563  10.419
20457SOL     OW63209   8.111  10.469  11.971
20457SOL    HW163210   8.058  10.393  11.947
20457SOL    HW263211   8.198  10.434  11.988
20458SOL     OW63212   0.722   6.405  13.825
20458SOL    HW163213   0.673   6.396  13.907
20458SOL    HW263214   0.654   6.404  13.757
20459SOL     OW63215   6.758   5.901  10.970
20459SOL    HW163216   6.731   5.821  11.015
20459SOL    HW263217   6.853   5.906  10.984
20460SOL     OW63218   1.054   3.957   9.074
20460SOL    HW163219   1.081   3.866   9.070
20460SOL    HW263220   1.126   4.006   9.034
20461SOL     OW63221   6.546   1.844   2.081
20461SOL    HW163222   6.464   1.874   2.120
20461SOL    HW263223   6.523   1.763   2.035
20462SOL     OW63224  11.729  12.087  13.411
20462SOL    HW163225  11.728  11.994  13.432
20462SOL    HW263226  11.781  12.094  13.331
20463SOL     OW63227   4.818   5.045   8.362
20463SOL    HW163228   4.863   5.028   8.445
20463SOL    HW263229   4.735   5.086   8.387
20464SOL     OW63230  14.295   5.322   5.362
20464SOL    HW163231  14.372   5.312   5.418
20464SOL    HW263232  14.284   5.236   5.321
20465SOL     OW63233   9.727   9.243   1.274
20465SOL    HW163234   9.702   9.272   1.361
20465SOL    HW263235   9.798   9.302   1.248
20466SOL     OW63236   3.092   6.831   1.402
20466SOL    HW163237   3.130   6.918   1.394
20466SOL    HW263238   3.080   6.801   1.312
20467SOL     OW63239   3.795   9.000   7.686
20467SOL    HW163240   3.744   8.944   7.628
20467SOL    HW263241   3.838   8.940   7.747
20468SOL     OW63242  12.327   1.034   4.119
20468SOL    HW163243  12.322   1.072   4.031
20468SOL    HW263244  12.237   1.036   4.152
20469SOL     OW63245   5.772  12.953   2.204
20469SOL    HW163246   5.809  12.867   2.184
20469SOL    HW263247   5.783  12.962   2.299
20470SOL     OW63248   3.575  10.940  12.810
20470SOL    HW163249   3.633  10.883  12.860
20470SOL    HW263250   3.633  11.003  12.767
20471SOL     OW63251   9.665  11.266   3.574
20471SOL    HW163252   9.652  11.177   3.542
20471SOL    HW263253   9.760  11.278   3.575
20472SOL     OW63254   4.242   3.879  11.528
20472SOL    HW163255   4.202   3.960  11.561
20472SOL    HW263256   4.282   3.839  11.606
20473SOL     OW63257   3.468   3.942  10.480
20473SOL    HW163258   3.466   3.984  10.566
20473SOL    HW263259   3.546   3.979  10.437
20474SOL     OW63260  12.859  13.677   3.390
20474SOL    HW163261  12.829  13.730   3.464
20474SOL    HW263262  12.904  13.603   3.430
20475SOL     OW63263   7.667   0.321   3.150
20475SOL    HW163264   7.720   0.361   3.218
20475SOL    HW263265   7.720   0.249   3.116
20476SOL     OW63266  14.457  12.728  13.770
20476SOL    HW163267  14.534  12.779  13.795
20476SOL    HW263268  14.386  12.764  13.823
20477SOL     OW63269   7.534  10.010  10.562
20477SOL    HW163270   7.622  10.035  10.533
20477SOL    HW263271   7.498   9.962  10.488
20478SOL     OW63272  10.430   9.650  14.386
20478SOL    HW163273  10.448   9.615  14.299
20478SOL    HW263274  10.377   9.728  14.371
20479SOL     OW63275   6.678   2.284   6.247
20479SOL    HW163276   6.706   2.198   6.215
20479SOL    HW263277   6.620   2.317   6.178
20480SOL     OW63278   3.718   7.741   2.236
20480SOL    HW163279   3.645   7.724   2.295
20480SOL    HW263280   3.776   7.798   2.286
20481SOL     OW63281  13.042   3.672   6.722
20481SOL    HW163282  13.019   3.742   6.782
20481SOL    HW263283  13.137   3.662   6.730
20482SOL     OW63284   9.073   2.414   0.652
20482SOL    HW163285   9.004   2.391   0.714
20482SOL    HW263286   9.123   2.334   0.639
20483SOL     OW63287   7.799   1.755  14.430
20483SOL    HW163288   7.805   1.676  14.484
20483SOL    HW263289   7.847   1.821  14.479
20484SOL     OW63290   1.200   8.798  12.659
20484SOL    HW163291   1.219   8.888  12.685
20484SOL    HW263292   1.248   8.744  12.722
20485SOL     OW63293   5.732  14.596   1.315
20485SOL    HW163294   5.672  14.669   1.332
20485SOL    HW263295   5.765  14.572   1.402
20486SOL     OW63296   5.634  10.966   1.011
20486SOL    HW163297   5.545  10.935   0.996
20486SOL    HW263298   5.680  10.948   0.929
20487SOL     OW63299   1.914   2.286   3.622
20487SOL    HW163300   1.821   2.263   3.618
20487SOL    HW263301   1.916   2.370   3.668
20488SOL     OW63302   5.839  11.230   0.743
20488SOL    HW163303   5.870  11.246   0.832
20488SOL    HW263304   5.867  11.307   0.694
20489SOL     OW63305   4.926   1.960   4.023
20489SOL    HW163306   4.882   2.031   4.070
20489SOL    HW263307   4.990   1.926   4.085
20490SOL     OW63308   2.179   9.695  10.489
20490SOL    HW163309   2.173   9.697  10.584
20490SOL    HW263310   2.093   9.665  10.460
20491SOL     OW63311   4.629  13.906   5.805
20491SOL    HW163312   4.669  13.820   5.823
20491SOL    HW263313   4.702  13.967   5.811
20492SOL     OW63314   3.317   2.037   6.498
20492SOL    HW163315   3.328   1.987   6.579
20492SOL    HW263316   3.376   1.996   6.436
20493SOL     OW63317  14.499   0.137  11.344
20493SOL    HW163318  14.484   0.219  11.391
20493SOL    HW263319  14.478   0.069  11.408
20494SOL     OW63320   6.019   3.949  12.870
20494SOL    HW163321   6.008   3.858  12.894
20494SOL    HW263322   6.112   3.956  12.845
20495SOL     OW63323   8.927  12.595   0.222
20495SOL    HW163324   9.019  12.613   0.202
20495SOL    HW263325   8.888  12.574   0.137
20496SOL     OW63326   8.985   4.413   7.870
20496SOL    HW163327   8.900   4.381   7.901
20496SOL    HW263328   8.988   4.504   7.899
20497SOL     OW63329  13.361  14.602   1.674
20497SOL    HW163330  13.382  14.518   1.715
20497SOL    HW263331  13.395  14.594   1.584
20498SOL     OW63332  14.720   1.367   4.002
20498SOL    HW163333  14.709   1.272   4.008
20498SOL    HW263334  14.641   1.398   3.958
20499SOL     OW63335   8.678  10.867  11.118
20499SOL    HW163336   8.701  10.777  11.142
20499SOL    HW263337   8.746  10.894  11.057
20500SOL     OW63338   8.025  13.707   2.171
20500SOL    HW163339   8.047  13.614   2.159
20500SOL    HW263340   7.951  13.706   2.231
20501SOL     OW63341  12.656   1.958  13.820
20501SOL    HW163342  12.708   2.013  13.762
20501SOL    HW263343  12.718   1.894  13.855
20502SOL     OW63344  11.965  11.101  13.257
20502SOL    HW163345  11.871  11.087  13.268
20502SOL    HW263346  12.006  11.028  13.304
20503SOL     OW63347   9.651  10.440   5.041
20503SOL    HW163348   9.738  10.461   5.075
20503SOL    HW263349   9.667  10.375   4.973
20504SOL     OW63350   1.390   1.971   1.768
20504SOL    HW163351   1.362   1.895   1.719
20504SOL    HW263352   1.352   1.960   1.855
20505SOL     OW63353   7.179  13.957   0.266
20505SOL    HW163354   7.093  13.916   0.256
20505SOL    HW263355   7.185  13.977   0.360
20506SOL     OW63356   6.839   3.865  14.318
20506SOL    HW163357   6.752   3.903  14.303
20506SOL    HW263358   6.828   3.772  14.300
20507SOL     OW63359   4.050   4.385   2.013
20507SOL    HW163360   4.089   4.360   1.929
20507SOL    HW263361   4.121   4.430   2.059
20508SOL     OW63362   9.115  11.575   0.250
20508SOL    HW163363   9.079  11.556   0.337
20508SOL    HW263364   9.207  11.550   0.257
20509SOL     OW63365  12.291   2.518  10.432
20509SOL    HW163366  12.278   2.599  10.383
20509SOL    HW263367  12.282   2.448  10.367
20510SOL     OW63368   0.224   9.707   6.063
20510SOL    HW163369   0.288   9.757   6.013
20510SOL    HW263370   0.244   9.727   6.154
20511SOL     OW63371   8.196   6.664   2.652
20511SOL    HW163372   8.251   6.595   2.689
20511SOL    HW263373   8.166   6.714   2.728
20512SOL     OW63374  14.518   9.862   0.508
20512SOL    HW163375  14.433   9.858   0.553
20512SOL    HW263376  14.497   9.893   0.420
20513SOL     OW63377   4.381   6.218  14.595
20513SOL    HW163378   4.446   6.157  14.562
20513SOL    HW263379   4.349   6.264  14.518
20514SOL     OW63380  12.963   5.624  13.674
20514SOL    HW163381  12.914   5.544  13.696
20514SOL    HW263382  12.912   5.695  13.713
20515SOL     OW63383   1.413   0.642   2.243
20515SOL    HW163384   1.344   0.580   2.219
20515SOL    HW263385   1.406   0.650   2.338
20516SOL     OW63386   2.233  11.370  10.369
20516SOL    HW163387   2.245  11.322  10.287
20516SOL    HW263388   2.288  11.323  10.432
20517SOL     OW63389  11.635   6.595  13.546
20517SOL    HW163390  11.631   6.499  13.554
20517SOL    HW263391  11.585   6.627  13.622
20518SOL     OW63392   5.183   2.375  14.618
20518SOL    HW163393   5.237   2.366  14.697
20518SOL    HW263394   5.165   2.285  14.591
20519SOL     OW63395   1.454   5.260   3.750
20519SOL    HW163396   1.379   5.239   3.805
20519SOL    HW263397   1.530   5.252   3.809
20520SOL     OW63398   7.864   6.820  14.565
20520SOL    HW163399   7.853   6.874  14.486
20520SOL    HW263400   7.777   6.786  14.583
20521SOL     OW63401  11.871   3.614   3.219
20521SOL    HW163402  11.903   3.579   3.136
20521SOL    HW263403  11.806   3.680   3.194
20522SOL     OW63404  11.617  10.089  11.273
20522SOL    HW163405  11.692  10.030  11.274
20522SOL    HW263406  11.653  10.175  11.251
20523SOL     OW63407   3.217   3.874   4.651
20523SOL    HW163408   3.257   3.893   4.737
20523SOL    HW263409   3.140   3.931   4.647
20524SOL     OW63410  12.772   1.813   9.088
20524SOL    HW163411  12.843   1.764   9.045
20524SOL    HW263412  12.751   1.883   9.028
20525SOL     OW63413   8.810   7.877   3.327
20525SOL    HW163414   8.819   7.859   3.421
20525SOL    HW263415   8.888   7.927   3.305
20526SOL     OW63416   3.125   9.232   5.304
20526SOL    HW163417   3.087   9.285   5.375
20526SOL    HW263418   3.056   9.169   5.283
20527SOL     OW63419  13.708   0.424   1.539
20527SOL    HW163420  13.680   0.372   1.615
20527SOL    HW263421  13.711   0.361   1.467
20528SOL     OW63422   9.826  13.864  13.285
20528SOL    HW163423   9.857  13.946  13.323
20528SOL    HW263424   9.767  13.827  13.351
20529SOL     OW63425  13.418   2.305  10.612
20529SOL    HW163426  13.370   2.381  10.581
20529SOL    HW263427  13.504   2.339  10.636
20530SOL     OW63428   4.135   8.204   9.751
20530SOL    HW163429   4.206   8.161   9.704
20530SOL    HW263430   4.108   8.139   9.817
20531SOL     OW63431   8.280  10.081   3.739
20531SOL    HW163432   8.197  10.052   3.776
20531SOL    HW263433   8.325   9.999   3.716
20532SOL     OW63434   7.030  14.493   5.726
20532SOL    HW163435   7.059  14.516   5.814
20532SOL    HW263436   7.024  14.576   5.681
20533SOL     OW63437  13.933  11.081   8.046
20533SOL    HW163438  13.876  11.123   8.110
20533SOL    HW263439  13.884  11.085   7.963
20534SOL     OW63440   4.116   3.270   3.938
20534SOL    HW163441   4.024   3.292   3.951
20534SOL    HW263442   4.147   3.331   3.871
20535SOL     OW63443   7.124   1.861   3.620
20535SOL    HW163444   7.181   1.898   3.553
20535SOL    HW263445   7.182   1.809   3.676
20536SOL     OW63446   1.551   2.143   5.456
20536SOL    HW163447   1.501   2.075   5.410
20536SOL    HW263448   1.502   2.159   5.536
20537SOL     OW63449   9.579   4.703  12.717
20537SOL    HW163450   9.498   4.696  12.667
20537SOL    HW263451   9.647   4.674  12.657
20538SOL     OW63452  14.853   7.400   6.600
20538SOL    HW163453  14.842   7.490   6.633
20538SOL    HW263454   0.032   7.356   6.668
20539SOL     OW63455  12.706   1.712  14.158
20539SOL    HW163456  12.623   1.677  14.126
20539SOL    HW263457  12.768   1.640  14.150
20540SOL     OW63458  11.300   3.025  11.345
20540SOL    HW163459  11.329   2.943  11.305
20540SOL    HW263460  11.204   3.020  11.343
20541SOL     OW63461   9.775  10.755   3.018
20541SOL    HW163462   9.820  10.677   3.052
20541SOL    HW263463   9.726  10.788   3.093
20542SOL     OW63464  13.592   4.613  11.663
20542SOL    HW163465  13.627   4.524  11.657
20542SOL    HW263466  13.529   4.619  11.592
20543SOL     OW63467   1.192   4.977   3.631
20543SOL    HW163468   1.174   4.930   3.712
20543SOL    HW263469   1.200   5.069   3.658
20544SOL     OW63470   7.016   3.741   2.645
20544SOL    HW163471   7.004   3.654   2.607
20544SOL    HW263472   7.012   3.726   2.740
20545SOL     OW63473   4.471   0.851   2.023
20545SOL    HW163474   4.472   0.818   1.933
20545SOL    HW263475   4.424   0.783   2.072
20546SOL     OW63476   5.641   1.781  13.451
20546SOL    HW163477   5.671   1.737  13.530
20546SOL    HW263478   5.570   1.726  13.418
20547SOL     OW63479  12.562   9.776   9.009
20547SOL    HW163480  12.536   9.741   8.925
20547SOL    HW263481  12.494   9.746   9.070
20548SOL     OW63482   6.889  12.502  13.426
20548SOL    HW163483   6.814  12.493  13.366
20548SOL    HW263484   6.920  12.591  13.410
20549SOL     OW63485   6.089  14.676   7.622
20549SOL    HW163486   6.173  14.677   7.667
20549SOL    HW263487   6.074  14.583   7.603
20550SOL     OW63488   2.631   8.323  10.946
20550SOL    HW163489   2.646   8.293  11.036
20550SOL    HW263490   2.698   8.279  10.894
20551SOL     OW63491   3.845  13.160  12.405
20551SOL    HW163492   3.812  13.226  12.344
20551SOL    HW263493   3.910  13.206  12.457
20552SOL     OW63494   2.142   4.621   4.123
20552SOL    HW163495   2.235   4.600   4.120
20552SOL    HW263496   2.136   4.694   4.185
20553SOL     OW63497  10.219  10.306  10.652
20553SOL    HW163498  10.294  10.260  10.690
20553SOL    HW263499  10.144  10.271  10.699
20554SOL     OW63500   0.130  10.181  10.223
20554SOL    HW163501   0.117  10.271  10.251
20554SOL    HW263502   0.138  10.186  10.128
20555SOL     OW63503   9.047  13.601  13.085
20555SOL    HW163504   9.054  13.617  13.180
20555SOL    HW263505   9.136  13.614  13.052
20556SOL     OW63506  13.987  12.233  12.835
20556SOL    HW163507  14.057  12.263  12.777
20556SOL    HW263508  13.997  12.138  12.837
20557SOL     OW63509  12.012   9.552  14.485
20557SOL    HW163510  12.074   9.499  14.535
20557SOL    HW263511  12.068   9.611  14.434
20558SOL     OW63512   2.320   8.375   5.331
20558SOL    HW163513   2.269   8.381   5.250
20558SOL    HW263514   2.392   8.315   5.310
20559SOL     OW63515   6.642   1.518  14.047
20559SOL    HW163516   6.611   1.592  14.098
20559SOL    HW263517   6.726   1.494  14.086
20560SOL     OW63518  10.484  13.790  12.703
20560SOL    HW163519  10.495  13.744  12.786
20560SOL    HW263520  10.452  13.877  12.727
20561SOL     OW63521   4.272  13.000   3.427
20561SOL    HW163522   4.326  12.925   3.449
20561SOL    HW263523   4.321  13.075   3.462
20562SOL     OW63524   2.373   4.146  10.045
20562SOL    HW163525   2.298   4.186  10.090
20562SOL    HW263526   2.337   4.115   9.961
20563SOL     OW63527   2.054   2.726  10.886
20563SOL    HW163528   2.025   2.684  10.805
20563SOL    HW263529   2.109   2.660  10.929
20564SOL     OW63530  12.807  11.891  14.525
20564SOL    HW163531  12.726  11.850  14.554
20564SOL    HW263532  12.842  11.830  14.460
20565SOL     OW63533   0.350   3.621   2.408
20565SOL    HW163534   0.310   3.658   2.329
20565SOL    HW263535   0.343   3.690   2.473
20566SOL     OW63536   8.071   4.141  14.392
20566SOL    HW163537   8.044   4.051  14.409
20566SOL    HW263538   7.998   4.195  14.422
20567SOL     OW63539  13.244   9.085   0.475
20567SOL    HW163540  13.197   9.018   0.425
20567SOL    HW263541  13.331   9.088   0.435
20568SOL     OW63542  14.326   6.471  12.210
20568SOL    HW163543  14.273   6.395  12.183
20568SOL    HW263544  14.262   6.537  12.236
20569SOL     OW63545   3.204   3.197   6.089
20569SOL    HW163546   3.215   3.110   6.128
20569SOL    HW263547   3.247   3.191   6.004
20570SOL     OW63548   1.137   2.084  11.404
20570SOL    HW163549   1.150   1.993  11.377
20570SOL    HW263550   1.079   2.078  11.480
20571SOL     OW63551   2.806   5.432  10.606
20571SOL    HW163552   2.769   5.492  10.542
20571SOL    HW263553   2.812   5.348  10.559
20572SOL     OW63554   4.264   2.509   2.978
20572SOL    HW163555   4.336   2.520   2.915
20572SOL    HW263556   4.211   2.589   2.968
20573SOL     OW63557   1.822   0.007  10.438
20573SOL    HW163558   1.758  14.815  10.410
20573SOL    HW263559   1.809   0.015  10.532
20574SOL     OW63560   7.277   4.695  13.552
20574SOL    HW163561   7.360   4.683  13.506
20574SOL    HW263562   7.285   4.641  13.631
20575SOL     OW63563   0.392   5.021  13.207
20575SOL    HW163564   0.393   4.966  13.129
20575SOL    HW263565   0.376   4.960  13.279
20576SOL     OW63566  10.671   5.743  11.715
20576SOL    HW163567  10.632   5.818  11.670
20576SOL    HW263568  10.730   5.704  11.650
20577SOL     OW63569   5.147  14.062  13.855
20577SOL    HW163570   5.100  14.075  13.773
20577SOL    HW263571   5.230  14.109  13.843
20578SOL     OW63572   7.167   0.491   9.802
20578SOL    HW163573   7.232   0.543   9.756
20578SOL    HW263574   7.113   0.452   9.733
20579SOL     OW63575   6.224   2.776   2.187
20579SOL    HW163576   6.253   2.863   2.217
20579SOL    HW263577   6.305   2.729   2.168
20580SOL     OW63578   8.390   0.195  13.701
20580SOL    HW163579   8.410   0.266  13.761
20580SOL    HW263580   8.447   0.123  13.729
20581SOL     OW63581  11.377   7.039   9.530
20581SOL    HW163582  11.295   7.018   9.575
20581SOL    HW263583  11.390   6.967   9.469
20582SOL     OW63584   9.211   3.661   1.824
20582SOL    HW163585   9.128   3.614   1.825
20582SOL    HW263586   9.194   3.739   1.771
20583SOL     OW63587  11.725   8.456   6.144
20583SOL    HW163588  11.795   8.522   6.143
20583SOL    HW263589  11.772   8.373   6.143
20584SOL     OW63590   8.878  14.566   3.433
20584SOL    HW163591   8.793  14.541   3.397
20584SOL    HW263592   8.940  14.508   3.390
20585SOL     OW63593  12.742   9.408   2.442
20585SOL    HW163594  12.733   9.502   2.457
20585SOL    HW263595  12.752   9.371   2.530
20586SOL     OW63596  12.771  11.196   3.564
20586SOL    HW163597  12.784  11.102   3.578
20586SOL    HW263598  12.848  11.237   3.604
20587SOL     OW63599   6.982   1.297   0.134
20587SOL    HW163600   7.041   1.332   0.200
20587SOL    HW263601   6.981   1.202   0.151
20588SOL     OW63602  12.587  12.735  13.939
20588SOL    HW163603  12.496  12.705  13.935
20588SOL    HW263604  12.581  12.826  13.966
20589SOL     OW63605   0.959   4.376   3.099
20589SOL    HW163606   0.989   4.317   3.030
20589SOL    HW263607   1.027   4.371   3.166
20590SOL     OW63608   4.795  14.498   6.462
20590SOL    HW163609   4.879  14.474   6.499
20590SOL    HW263610   4.807  14.587   6.428
20591SOL     OW63611   0.803   1.967   2.362
20591SOL    HW163612   0.843   2.018   2.292
20591SOL    HW263613   0.804   1.877   2.329
20592SOL     OW63614   5.579   5.185   3.681
20592SOL    HW163615   5.533   5.237   3.747
20592SOL    HW263616   5.671   5.208   3.694
20593SOL     OW63617  11.457  11.308  12.058
20593SOL    HW163618  11.449  11.362  11.980
20593SOL    HW263619  11.367  11.288  12.084
20594SOL     OW63620   2.047   4.914  14.831
20594SOL    HW163621   2.132   4.917   0.001
20594SOL    HW263622   1.996   4.852   0.009
20595SOL     OW63623  12.325   3.943   7.272
20595SOL    HW163624  12.239   3.935   7.231
20595SOL    HW263625  12.308   3.989   7.355
20596SOL     OW63626  10.173   3.852   4.329
20596SOL    HW163627  10.232   3.812   4.265
20596SOL    HW263628  10.101   3.790   4.336
20597SOL     OW63629   9.186   2.585  10.595
20597SOL    HW163630   9.138   2.654  10.549
20597SOL    HW263631   9.277   2.599  10.570
20598SOL     OW63632  11.699  14.551   4.102
20598SOL    HW163633  11.700  14.644   4.126
20598SOL    HW263634  11.773  14.514   4.149
20599SOL     OW63635  13.141   9.607   3.635
20599SOL    HW163636  13.208   9.655   3.684
20599SOL    HW263637  13.079   9.578   3.702
20600SOL     OW63638   4.303   9.029  14.849
20600SOL    HW163639   4.287   8.953   0.032
20600SOL    HW263640   4.227   9.086  14.864
20601SOL     OW63641  12.887   6.977  11.574
20601SOL    HW163642  12.966   6.971  11.520
20601SOL    HW263643  12.846   7.059  11.547
20602SOL     OW63644  10.629   6.036   8.597
20602SOL    HW163645  10.601   5.947   8.574
20602SOL    HW263646  10.672   6.069   8.518
20603SOL     OW63647   4.255  13.137   6.728
20603SOL    HW163648   4.324  13.097   6.781
20603SOL    HW263649   4.179  13.080   6.741
20604SOL     OW63650   6.660   3.216  13.320
20604SOL    HW163651   6.738   3.270  13.333
20604SOL    HW263652   6.691   3.126  13.325
20605SOL     OW63653   8.839  10.568   6.022
20605SOL    HW163654   8.754  10.555   5.979
20605SOL    HW263655   8.820  10.560   6.116
20606SOL     OW63656   5.392   6.928   5.907
20606SOL    HW163657   5.369   7.013   5.872
20606SOL    HW263658   5.484   6.937   5.933
20607SOL     OW63659   1.381   0.715  14.386
20607SOL    HW163660   1.415   0.744  14.470
20607SOL    HW263661   1.330   0.789  14.353
20608SOL     OW63662  13.229  10.436   7.040
20608SOL    HW163663  13.264  10.436   7.129
20608SOL    HW263664  13.260  10.518   7.002
20609SOL     OW63665   5.616   0.850   2.217
20609SOL    HW163666   5.644   0.793   2.289
20609SOL    HW263667   5.536   0.892   2.250
20610SOL     OW63668  11.210   4.903  10.284
20610SOL    HW163669  11.234   4.972  10.223
20610SOL    HW263670  11.117   4.917  10.302
20611SOL     OW63671   5.248  11.126   6.094
20611SOL    HW163672   5.176  11.141   6.155
20611SOL    HW263673   5.270  11.033   6.105
20612SOL     OW63674   4.246  10.299   0.037
20612SOL    HW163675   4.191  10.355   0.092
20612SOL    HW263676   4.318  10.274   0.094
20613SOL     OW63677   0.523   2.236  12.403
20613SOL    HW163678   0.503   2.235  12.309
20613SOL    HW263679   0.534   2.144  12.425
20614SOL     OW63680   3.566  10.920   4.119
20614SOL    HW163681   3.511  10.896   4.193
20614SOL    HW263682   3.528  11.002   4.087
20615SOL     OW63683   8.321   3.123   1.896
20615SOL    HW163684   8.355   3.114   1.985
20615SOL    HW263685   8.226   3.130   1.907
20616SOL     OW63686  10.023  11.804   4.804
20616SOL    HW163687  10.101  11.793   4.858
20616SOL    HW263688   9.950  11.799   4.865
20617SOL     OW63689  10.656  14.049   3.947
20617SOL    HW163690  10.561  14.037   3.946
20617SOL    HW263691  10.676  14.086   3.861
20618SOL     OW63692  13.686   5.063  10.579
20618SOL    HW163693  13.724   5.082  10.665
20618SOL    HW263694  13.748   5.100  10.517
20619SOL     OW63695  11.354  11.777   2.156
20619SOL    HW163696  11.375  11.826   2.236
20619SOL    HW263697  11.424  11.712   2.148
20620SOL     OW63698  13.008   2.060   3.446
20620SOL    HW163699  12.982   2.076   3.537
20620SOL    HW263700  13.103   2.062   3.448
20621SOL     OW63701   6.737   7.296   2.329
20621SOL    HW163702   6.797   7.343   2.388
20621SOL    HW263703   6.734   7.207   2.365
20622SOL     OW63704   1.317   2.833  13.692
20622SOL    HW163705   1.262   2.772  13.740
20622SOL    HW263706   1.289   2.920  13.723
20623SOL     OW63707   1.026  12.190   5.528
20623SOL    HW163708   0.941  12.210   5.568
20623SOL    HW263709   1.036  12.258   5.461
20624SOL     OW63710   0.776  14.367  13.953
20624SOL    HW163711   0.822  14.300  14.003
20624SOL    HW263712   0.828  14.447  13.967
20625SOL     OW63713   8.086  10.767   9.818
20625SOL    HW163714   8.119  10.832   9.880
20625SOL    HW263715   8.145  10.692   9.827
20626SOL     OW63716   4.673  14.868   1.379
20626SOL    HW163717   4.690   0.072   1.432
20626SOL    HW263718   4.614   0.026   1.310
20627SOL     OW63719  13.073  11.644   9.308
20627SOL    HW163720  13.067  11.587   9.232
20627SOL    HW263721  13.075  11.584   9.383
20628SOL     OW63722  14.197  11.007   8.934
20628SOL    HW163723  14.161  10.980   9.018
20628SOL    HW263724  14.142  11.080   8.907
20629SOL     OW63725   7.172   3.181   4.637
20629SOL    HW163726   7.212   3.215   4.716
20629SOL    HW263727   7.211   3.232   4.566
20630SOL     OW63728  13.648  12.053   8.193
20630SOL    HW163729  13.586  12.052   8.266
20630SOL    HW263730  13.614  12.120   8.133
20631SOL     OW63731   9.249   9.169  10.006
20631SOL    HW163732   9.211   9.083   9.988
20631SOL    HW263733   9.343   9.156   9.997
20632SOL     OW63734  12.710   6.193   8.295
20632SOL    HW163735  12.719   6.207   8.389
20632SOL    HW263736  12.749   6.107   8.280
20633SOL     OW63737   9.671  10.745   7.311
20633SOL    HW163738   9.686  10.804   7.237
20633SOL    HW263739   9.758  10.713   7.335
20634SOL     OW63740   1.905   6.231   5.231
20634SOL    HW163741   1.817   6.248   5.198
20634SOL    HW263742   1.929   6.146   5.195
20635SOL     OW63743   9.902   7.014  11.486
20635SOL    HW163744   9.806   7.013  11.478
20635SOL    HW263745   9.933   7.040  11.400
20636SOL     OW63746  12.003   5.238   5.663
20636SOL    HW163747  11.983   5.153   5.702
20636SOL    HW263748  11.918   5.276   5.644
20637SOL     OW63749  14.164   8.179   3.281
20637SOL    HW163750  14.181   8.248   3.218
20637SOL    HW263751  14.171   8.098   3.230
20638SOL     OW63752  13.381   6.195  10.583
20638SOL    HW163753  13.407   6.115  10.628
20638SOL    HW263754  13.330   6.244  10.647
20639SOL     OW63755   4.587   6.135   2.737
20639SOL    HW163756   4.644   6.068   2.697
20639SOL    HW263757   4.505   6.129   2.688
20640SOL     OW63758   6.052  13.703   9.333
20640SOL    HW163759   6.138  13.671   9.306
20640SOL    HW263760   6.027  13.648   9.407
20641SOL     OW63761   2.012   8.906  12.961
20641SOL    HW163762   1.938   8.849  12.940
20641SOL    HW263763   2.017   8.967  12.888
20642SOL     OW63764   2.024  11.284   6.021
20642SOL    HW163765   2.062  11.337   6.091
20642SOL    HW263766   2.099  11.236   5.984
20643SOL     OW63767   9.777   6.432   1.670
20643SOL    HW163768   9.804   6.393   1.586
20643SOL    HW263769   9.695   6.388   1.691
20644SOL     OW63770   1.562   3.318   7.762
20644SOL    HW163771   1.633   3.277   7.811
20644SOL    HW263772   1.502   3.247   7.743
20645SOL     OW63773  14.806   9.771  12.445
20645SOL    HW163774   0.015   9.740  12.408
20645SOL    HW263775  14.754   9.692  12.459
20646SOL     OW63776  12.382   3.003   4.172
20646SOL    HW163777  12.368   3.077   4.231
20646SOL    HW263778  12.477   2.990   4.172
20647SOL     OW63779   0.847   1.001   4.272
20647SOL    HW163780   0.878   0.955   4.350
20647SOL    HW263781   0.763   1.038   4.297
20648SOL     OW63782   0.688   5.905  14.558
20648SOL    HW163783   0.712   5.978  14.615
20648SOL    HW263784   0.599   5.924  14.529
20649SOL     OW63785   0.168   0.493  13.950
20649SOL    HW163786   0.156   0.574  14.000
20649SOL    HW263787   0.254   0.460  13.978
20650SOL     OW63788  10.879   9.715   1.024
20650SOL    HW163789  10.866   9.781   0.956
20650SOL    HW263790  10.804   9.726   1.082
20651SOL     OW63791   8.524   7.594   2.903
20651SOL    HW163792   8.531   7.625   2.994
20651SOL    HW263793   8.614   7.583   2.874
20652SOL     OW63794  12.199   8.148   7.700
20652SOL    HW163795  12.182   8.054   7.693
20652SOL    HW263796  12.182   8.182   7.612
20653SOL     OW63797   8.951   5.370  11.182
20653SOL    HW163798   8.912   5.453  11.155
20653SOL    HW263799   8.974   5.326  11.100
20654SOL     OW63800   0.866   1.039  11.294
20654SOL    HW163801   0.908   0.986  11.361
20654SOL    HW263802   0.937   1.064  11.235
20655SOL     OW63803  14.165  10.624   6.911
20655SOL    HW163804  14.171  10.719   6.926
20655SOL    HW263805  14.178  10.614   6.817
20656SOL     OW63806   4.974   1.579  12.257
20656SOL    HW163807   5.013   1.659  12.221
20656SOL    HW263808   4.887   1.575  12.217
20657SOL     OW63809  10.676   0.674   6.177
20657SOL    HW163810  10.693   0.618   6.101
20657SOL    HW263811  10.728   0.637   6.247
20658SOL     OW63812   1.910   1.364   1.123
20658SOL    HW163813   1.844   1.383   1.057
20658SOL    HW263814   1.864   1.308   1.186
20659SOL     OW63815  10.963  11.822   6.417
20659SOL    HW163816  11.051  11.788   6.404
20659SOL    HW263817  10.946  11.877   6.340
20660SOL     OW63818  13.199  12.004   8.985
20660SOL    HW163819  13.254  12.066   8.938
20660SOL    HW263820  13.261  11.949   9.033
20661SOL     OW63821  14.820  13.542   1.838
20661SOL    HW163822  14.832  13.636   1.848
20661SOL    HW263823   0.031  13.504   1.861
20662SOL     OW63824   8.038   5.542   9.229
20662SOL    HW163825   8.009   5.593   9.304
20662SOL    HW263826   8.083   5.467   9.267
20663SOL     OW63827   3.024  14.753   0.791
20663SOL    HW163828   3.090  14.706   0.842
20663SOL    HW263829   2.956  14.688   0.773
20664SOL     OW63830  13.442   1.659   3.487
20664SOL    HW163831  13.356   1.646   3.447
20664SOL    HW263832  13.425   1.657   3.581
20665SOL     OW63833   3.166   4.240   4.084
20665SOL    HW163834   3.100   4.309   4.091
20665SOL    HW263835   3.197   4.245   3.994
20666SOL     OW63836  12.796   5.937  14.423
20666SOL    HW163837  12.805   5.849  14.385
20666SOL    HW263838  12.766   5.921  14.513
20667SOL     OW63839   2.197  10.625  14.695
20667SOL    HW163840   2.115  10.583  14.716
20667SOL    HW263841   2.218  10.677  14.772
20668SOL     OW63842   0.478   9.706   7.867
20668SOL    HW163843   0.491   9.614   7.888
20668SOL    HW263844   0.559   9.733   7.824
20669SOL     OW63845   5.983  11.319   4.638
20669SOL    HW163846   5.933  11.392   4.601
20669SOL    HW263847   6.009  11.350   4.725
20670SOL     OW63848  13.305   7.884   9.350
20670SOL    HW163849  13.350   7.955   9.305
20670SOL    HW263850  13.266   7.925   9.427
20671SOL     OW63851  12.317   1.462  14.215
20671SOL    HW163852  12.347   1.390  14.160
20671SOL    HW263853  12.289   1.420  14.296
20672SOL     OW63854   6.543   2.716  12.959
20672SOL    HW163855   6.536   2.620  12.959
20672SOL    HW263856   6.637   2.733  12.958
20673SOL     OW63857   7.795  11.731   0.039
20673SOL    HW163858   7.737  11.695  14.846
20673SOL    HW263859   7.745  11.803   0.078
20674SOL     OW63860   9.741  11.257   7.051
20674SOL    HW163861   9.818  11.201   7.062
20674SOL    HW263862   9.688  11.213   6.985
20675SOL     OW63863   2.883  13.311  13.891
20675SOL    HW163864   2.885  13.224  13.851
20675SOL    HW263865   2.891  13.294  13.985
20676SOL     OW63866  14.015  14.151   8.662
20676SOL    HW163867  13.981  14.076   8.711
20676SOL    HW263868  14.050  14.114   8.581
20677SOL     OW63869   3.886  10.014  12.592
20677SOL    HW163870   3.929  10.095  12.621
20677SOL    HW263871   3.891  10.017  12.496
20678SOL     OW63872   2.069  10.622   5.892
20678SOL    HW163873   2.060  10.700   5.947
20678SOL    HW263874   1.985  10.614   5.848
20679SOL     OW63875  14.848   3.196  13.800
20679SOL    HW163876   0.055   3.172  13.754
20679SOL    HW263877  14.833   3.125  13.863
20680SOL     OW63878   1.426   1.864  11.599
20680SOL    HW163879   1.380   1.780  11.606
20680SOL    HW263880   1.519   1.841  11.601
20681SOL     OW63881   2.674   2.169   1.285
20681SOL    HW163882   2.742   2.118   1.239
20681SOL    HW263883   2.690   2.259   1.258
20682SOL     OW63884   9.668   3.361   9.403
20682SOL    HW163885   9.609   3.295   9.438
20682SOL    HW263886   9.756   3.326   9.417
20683SOL     OW63887   9.425   2.704   8.802
20683SOL    HW163888   9.470   2.786   8.780
20683SOL    HW263889   9.493   2.637   8.798
20684SOL     OW63890  11.680   0.312  11.308
20684SOL    HW163891  11.717   0.357  11.233
20684SOL    HW263892  11.637   0.235  11.271
20685SOL     OW63893  14.334   8.206   0.864
20685SOL    HW163894  14.369   8.126   0.826
20685SOL    HW263895  14.306   8.181   0.952
20686SOL     OW63896   3.199  10.328   0.957
20686SOL    HW163897   3.202  10.397   0.890
20686SOL    HW263898   3.115  10.341   1.001
20687SOL     OW63899   3.748  13.187   8.684
20687SOL    HW163900   3.790  13.183   8.599
20687SOL    HW263901   3.739  13.281   8.702
20688SOL     OW63902   3.206  13.392   2.565
20688SOL    HW163903   3.208  13.485   2.541
20688SOL    HW263904   3.277  13.383   2.629
20689SOL     OW63905   6.842  10.554  12.853
20689SOL    HW163906   6.865  10.630  12.801
20689SOL    HW263907   6.813  10.590  12.937
20690SOL     OW63908   5.136   9.326   8.546
20690SOL    HW163909   5.169   9.236   8.546
20690SOL    HW263910   5.042   9.317   8.528
20691SOL     OW63911   7.768   4.437  14.866
20691SOL    HW163912   7.697   4.374   0.002
20691SOL    HW263913   7.794   4.456   0.083
20692SOL     OW63914   5.746   2.447  12.172
20692SOL    HW163915   5.839   2.427  12.159
20692SOL    HW263916   5.736   2.454  12.267
20693SOL     OW63917  10.968   1.755   0.892
20693SOL    HW163918  10.925   1.816   0.952
20693SOL    HW263919  11.060   1.760   0.914
20694SOL     OW63920  13.238   1.433   4.058
20694SOL    HW163921  13.186   1.447   3.979
20694SOL    HW263922  13.289   1.513   4.068
20695SOL     OW63923   5.987   9.773   0.274
20695SOL    HW163924   5.976   9.771   0.369
20695SOL    HW263925   6.050   9.844   0.259
20696SOL     OW63926   8.847   6.929   5.379
20696SOL    HW163927   8.926   6.959   5.334
20696SOL    HW263928   8.781   6.923   5.311
20697SOL     OW63929   7.026   2.481   4.770
20697SOL    HW163930   7.017   2.386   4.780
20697SOL    HW263931   6.936   2.512   4.759
20698SOL     OW63932  13.537  12.809  11.127
20698SOL    HW163933  13.454  12.803  11.174
20698SOL    HW263934  13.517  12.861  11.050
20699SOL     OW63935   9.129   9.877  10.601
20699SOL    HW163936   9.124   9.816  10.528
20699SOL    HW263937   9.189   9.835  10.663
20700SOL     OW63938   6.096   4.038   5.586
20700SOL    HW163939   6.002   4.052   5.599
20700SOL    HW263940   6.125   3.996   5.667
20701SOL     OW63941   9.285   7.725  11.498
20701SOL    HW163942   9.241   7.657  11.548
20701SOL    HW263943   9.376   7.696  11.492
20702SOL     OW63944   2.873  14.325   7.829
20702SOL    HW163945   2.800  14.290   7.779
20702SOL    HW263946   2.930  14.366   7.763
20703SOL     OW63947   9.485   7.530  11.607
20703SOL    HW163948   9.491   7.486  11.692
20703SOL    HW263949   9.422   7.478  11.557
20704SOL     OW63950   6.600  10.691  13.987
20704SOL    HW163951   6.576  10.659  13.900
20704SOL    HW263952   6.522  10.737  14.018
20705SOL     OW63953   8.710   6.011  10.230
20705SOL    HW163954   8.698   6.097  10.272
20705SOL    HW263955   8.798   5.984  10.258
20706SOL     OW63956  14.798   8.083   4.979
20706SOL    HW163957  14.742   8.157   4.999
20706SOL    HW263958  14.829   8.052   5.064
20707SOL     OW63959   6.364   1.408   7.942
20707SOL    HW163960   6.342   1.466   7.870
20707SOL    HW263961   6.441   1.448   7.983
20708SOL     OW63962   2.526   1.116   4.130
20708SOL    HW163963   2.573   1.162   4.199
20708SOL    HW263964   2.435   1.116   4.160
20709SOL     OW63965  13.134  11.245   3.212
20709SOL    HW163966  13.108  11.245   3.120
20709SOL    HW263967  13.052  11.242   3.261
20710SOL     OW63968   4.604   3.246   8.250
20710SOL    HW163969   4.521   3.199   8.237
20710SOL    HW263970   4.581   3.322   8.302
20711SOL     OW63971   5.035   8.129   1.913
20711SOL    HW163972   4.983   8.206   1.937
20711SOL    HW263973   5.037   8.075   1.993
20712SOL     OW63974   3.649  11.516   0.776
20712SOL    HW163975   3.624  11.605   0.801
20712SOL    HW263976   3.707  11.486   0.847
20713SOL     OW63977  13.592   2.921  12.604
20713SOL    HW163978  13.630   2.837  12.580
20713SOL    HW263979  13.499   2.902  12.619
20714SOL     OW63980   4.548   3.084   8.921
20714SOL    HW163981   4.508   3.052   9.002
20714SOL    HW263982   4.474   3.096   8.861
20715SOL     OW63983  14.609  11.397   7.311
20715SOL    HW163984  14.654  11.478   7.335
20715SOL    HW263985  14.676  11.329   7.318
20716SOL     OW63986   8.548   0.181  10.687
20716SOL    HW163987   8.640   0.158  10.670
20716SOL    HW263988   8.542   0.273  10.664
20717SOL     OW63989   9.842   3.272   3.616
20717SOL    HW163990   9.764   3.292   3.564
20717SOL    HW263991   9.876   3.191   3.578
20718SOL     OW63992   2.058   7.873   4.111
20718SOL    HW163993   2.048   7.945   4.172
20718SOL    HW263994   2.146   7.883   4.076
20719SOL     OW63995  13.185  11.947   9.713
20719SOL    HW163996  13.172  11.876   9.650
20719SOL    HW263997  13.098  11.984   9.726
20720SOL     OW63998   8.948   6.226  12.386
20720SOL    HW163999   8.953   6.179  12.469
20720SOL    HW264000   9.039   6.237  12.358
20721SOL     OW64001  12.981  13.399   0.066
20721SOL    HW164002  13.015  13.488   0.065
20721SOL    HW264003  12.940  13.390   0.152
20722SOL     OW64004   1.035  10.035   8.338
20722SOL    HW164005   1.123  10.067   8.358
20722SOL    HW264006   1.042   9.940   8.346
20723SOL     OW64007   4.247  10.475  10.475
20723SOL    HW164008   4.210  10.480  10.564
20723SOL    HW264009   4.184  10.522  10.420
20724SOL     OW64010   3.915   7.724  14.004
20724SOL    HW164011   3.972   7.692  14.074
20724SOL    HW264012   3.865   7.647  13.978
20725SOL     OW64013  11.909   3.688   0.349
20725SOL    HW164014  11.863   3.769   0.330
20725SOL    HW264015  11.997   3.702   0.314
20726SOL     OW64016  11.305   9.236   5.837
20726SOL    HW164017  11.268   9.153   5.866
20726SOL    HW264018  11.242   9.270   5.773
20727SOL     OW64019  14.643   1.748   1.889
20727SOL    HW164020  14.563   1.794   1.915
20727SOL    HW264021  14.678   1.711   1.970
20728SOL     OW64022  11.406   2.528   4.325
20728SOL    HW164023  11.427   2.619   4.343
20728SOL    HW264024  11.490   2.482   4.333
20729SOL     OW64025   5.441   9.611   6.445
20729SOL    HW164026   5.418   9.519   6.438
20729SOL    HW264027   5.384   9.645   6.514
20730SOL     OW64028  14.034  10.571   9.653
20730SOL    HW164029  14.038  10.657   9.696
20730SOL    HW264030  13.965  10.524   9.700
20731SOL     OW64031   1.774   2.944   9.938
20731SOL    HW164032   1.863   2.979   9.941
20731SOL    HW264033   1.727   2.994  10.005
20732SOL     OW64034  10.635   0.022  11.002
20732SOL    HW164035  10.554  14.845  11.011
20732SOL    HW264036  10.651   0.059  11.089
20733SOL     OW64037   4.433   2.010   2.965
20733SOL    HW164038   4.467   2.022   2.876
20733SOL    HW264039   4.502   2.046   3.022
20734SOL     OW64040   3.455   8.378  13.701
20734SOL    HW164041   3.427   8.451  13.756
20734SOL    HW264042   3.548   8.395  13.684
20735SOL     OW64043  13.283   7.266   0.892
20735SOL    HW164044  13.251   7.233   0.976
20735SOL    HW264045  13.285   7.361   0.903
20736SOL     OW64046  13.416   6.442  11.870
20736SOL    HW164047  13.375   6.486  11.795
20736SOL    HW264048  13.366   6.361  11.881
20737SOL     OW64049   8.537   0.302   8.120
20737SOL    HW164050   8.589   0.330   8.195
20737SOL    HW264051   8.452   0.280   8.156
20738SOL     OW64052   9.169  10.537   0.044
20738SOL    HW164053   9.230  10.468   0.069
20738SOL    HW264054   9.185  10.550  14.823
20739SOL     OW64055   2.054   2.059   5.442
20739SOL    HW164056   2.121   2.125   5.458
20739SOL    HW264057   2.089   2.006   5.371
20740SOL     OW64058  10.961  13.054  11.421
20740SOL    HW164059  10.890  13.118  11.429
20740SOL    HW264060  11.024  13.095  11.362
20741SOL     OW64061   6.346   6.574  14.108
20741SOL    HW164062   6.300   6.658  14.109
20741SOL    HW264063   6.350   6.549  14.201
20742SOL     OW64064  10.328   9.754   0.430
20742SOL    HW164065  10.377   9.774   0.510
20742SOL    HW264066  10.395   9.728   0.366
20743SOL     OW64067   5.509   0.588   7.288
20743SOL    HW164068   5.551   0.639   7.219
20743SOL    HW264069   5.501   0.500   7.251
20744SOL     OW64070  11.242  11.806   0.805
20744SOL    HW164071  11.206  11.754   0.878
20744SOL    HW264072  11.316  11.852   0.844
20745SOL     OW64073   6.784   4.011   8.861
20745SOL    HW164074   6.824   4.084   8.907
20745SOL    HW264075   6.702   3.994   8.908
20746SOL     OW64076  14.350  14.677   3.719
20746SOL    HW164077  14.438  14.692   3.683
20746SOL    HW264078  14.305  14.760   3.707
20747SOL     OW64079   6.504   4.580   4.720
20747SOL    HW164080   6.501   4.527   4.800
20747SOL    HW264081   6.416   4.616   4.712
20748SOL     OW64082   6.913   6.513  10.398
20748SOL    HW164083   6.885   6.466  10.320
20748SOL    HW264084   6.997   6.552  10.374
20749SOL     OW64085   7.718   6.720   5.363
20749SOL    HW164086   7.687   6.701   5.452
20749SOL    HW264087   7.723   6.634   5.321
20750SOL     OW64088   4.170   0.233   4.337
20750SOL    HW164089   4.222   0.167   4.383
20750SOL    HW264090   4.221   0.254   4.259
20751SOL     OW64091  10.158   5.070   1.883
20751SOL    HW164092  10.231   5.013   1.859
20751SOL    HW264093  10.136   5.117   1.802
20752SOL     OW64094   5.662  12.594   1.264
20752SOL    HW164095   5.661  12.656   1.338
20752SOL    HW264096   5.572  12.596   1.231
20753SOL     OW64097   6.231   9.996  10.345
20753SOL    HW164098   6.176  10.075  10.348
20753SOL    HW264099   6.259   9.984  10.436
20754SOL     OW64100   8.323   2.413  12.382
20754SOL    HW164101   8.335   2.507  12.393
20754SOL    HW264102   8.262   2.388  12.452
20755SOL     OW64103  14.511  10.255   1.637
20755SOL    HW164104  14.567  10.301   1.574
20755SOL    HW264105  14.487  10.321   1.701
20756SOL     OW64106   0.746   2.126   1.956
20756SOL    HW164107   0.654   2.099   1.964
20756SOL    HW264108   0.776   2.086   1.875
20757SOL     OW64109   5.231  10.272   1.524
20757SOL    HW164110   5.161  10.308   1.469
20757SOL    HW264111   5.236  10.180   1.497
20758SOL     OW64112   2.416   7.245   9.685
20758SOL    HW164113   2.344   7.268   9.742
20758SOL    HW264114   2.449   7.162   9.720
20759SOL     OW64115   2.703   6.551  11.924
20759SOL    HW164116   2.726   6.568  12.016
20759SOL    HW264117   2.662   6.633  11.895
20760SOL     OW64118  10.739  11.733   2.987
20760SOL    HW164119  10.797  11.691   3.051
20760SOL    HW264120  10.695  11.802   3.036
20761SOL     OW64121   1.882   3.119   3.849
20761SOL    HW164122   1.972   3.140   3.823
20761SOL    HW264123   1.865   3.034   3.808
20762SOL     OW64124   5.600   2.696   9.070
20762SOL    HW164125   5.634   2.670   8.984
20762SOL    HW264126   5.509   2.721   9.054
20763SOL     OW64127   9.180  11.667   3.783
20763SOL    HW164128   9.221  11.603   3.724
20763SOL    HW264129   9.205  11.637   3.870
20764SOL     OW64130  14.456   6.094  14.820
20764SOL    HW164131  14.550   6.109  14.816
20764SOL    HW264132  14.418   6.182  14.830
20765SOL     OW64133   5.426   4.089   1.929
20765SOL    HW164134   5.377   4.060   2.006
20765SOL    HW264135   5.371   4.157   1.890
20766SOL     OW64136   1.614   7.479   4.693
20766SOL    HW164137   1.567   7.533   4.755
20766SOL    HW264138   1.558   7.403   4.680
20767SOL     OW64139   4.854   1.447   2.950
20767SOL    HW164140   4.930   1.396   2.978
20767SOL    HW264141   4.875   1.537   2.974
20768SOL     OW64142  13.003  11.879  13.213
20768SOL    HW164143  13.025  11.926  13.133
20768SOL    HW264144  13.031  11.936  13.283
20769SOL     OW64145  11.437   9.122   1.848
20769SOL    HW164146  11.379   9.191   1.815
20769SOL    HW264147  11.500   9.169   1.903
20770SOL     OW64148   0.799   0.781  12.807
20770SOL    HW164149   0.742   0.762  12.732
20770SOL    HW264150   0.855   0.704  12.814
20771SOL     OW64151   5.659  14.280   0.927
20771SOL    HW164152   5.630  14.254   1.015
20771SOL    HW264153   5.685  14.199   0.885
20772SOL     OW64154   0.627   5.837   4.104
20772SOL    HW164155   0.562   5.838   4.034
20772SOL    HW264156   0.705   5.874   4.065
20773SOL     OW64157   0.297   1.618   8.484
20773SOL    HW164158   0.224   1.667   8.522
20773SOL    HW264159   0.373   1.643   8.537
20774SOL     OW64160  12.931   9.434   4.813
20774SOL    HW164161  12.901   9.345   4.797
20774SOL    HW264162  13.027   9.427   4.815
20775SOL     OW64163   4.147   2.342   9.814
20775SOL    HW164164   4.079   2.387   9.763
20775SOL    HW264165   4.120   2.250   9.815
20776SOL     OW64166   5.831   5.873   5.711
20776SOL    HW164167   5.812   5.800   5.651
20776SOL    HW264168   5.791   5.949   5.670
20777SOL     OW64169  10.545  14.833  10.136
20777SOL    HW164170  10.490   0.033  10.111
20777SOL    HW264171  10.499  14.792  10.209
20778SOL     OW64172   1.818  13.166   9.216
20778SOL    HW164173   1.789  13.074   9.209
20778SOL    HW264174   1.797  13.204   9.131
20779SOL     OW64175  14.831   9.051  10.478
20779SOL    HW164176   0.005   9.001  10.411
20779SOL    HW264177  14.840   8.998  10.557
20780SOL     OW64178   8.660   4.266   0.033
20780SOL    HW164179   8.617   4.284  14.823
20780SOL    HW264180   8.644   4.343   0.086
20781SOL     OW64181  14.255   3.858   0.131
20781SOL    HW164182  14.251   3.937   0.184
20781SOL    HW264183  14.188   3.870   0.064
20782SOL     OW64184  14.711   6.033   1.585
20782SOL    HW164185  14.660   6.034   1.504
20782SOL    HW264186  14.646   6.040   1.655
20783SOL     OW64187  12.739   1.526   4.289
20783SOL    HW164188  12.828   1.562   4.292
20783SOL    HW264189  12.752   1.432   4.282
20784SOL     OW64190  10.135  12.915  10.148
20784SOL    HW164191  10.086  12.992  10.119
20784SOL    HW264192  10.226  12.943  10.148
20785SOL     OW64193  12.127   2.686   6.973
20785SOL    HW164194  12.150   2.764   7.024
20785SOL    HW264195  12.152   2.708   6.884
20786SOL     OW64196   9.097   7.750  13.214
20786SOL    HW164197   9.094   7.786  13.125
20786SOL    HW264198   9.010   7.768  13.250
20787SOL     OW64199  10.955  14.416   8.340
20787SOL    HW164200  11.015  14.345   8.320
20787SOL    HW264201  11.003  14.496   8.319
20788SOL     OW64202  14.218   6.779  12.887
20788SOL    HW164203  14.273   6.701  12.889
20788SOL    HW264204  14.136   6.751  12.928
20789SOL     OW64205  11.082  13.026  13.505
20789SOL    HW164206  11.059  12.968  13.578
20789SOL    HW264207  11.163  12.990  13.469
20790SOL     OW64208   8.958   4.462   6.579
20790SOL    HW164209   8.957   4.536   6.639
20790SOL    HW264210   9.043   4.469   6.534
20791SOL     OW64211   8.561   8.933   7.957
20791SOL    HW164212   8.540   8.991   7.884
20791SOL    HW264213   8.572   8.847   7.916
20792SOL     OW64214   2.760   2.048   0.310
20792SOL    HW164215   2.815   1.971   0.326
20792SOL    HW264216   2.768   2.100   0.389
20793SOL     OW64217  14.794  12.906  14.418
20793SOL    HW164218  14.751  12.874  14.338
20793SOL    HW264219   0.013  12.885  14.405
20794SOL     OW64220   0.845   7.292   3.682
20794SOL    HW164221   0.831   7.256   3.769
20794SOL    HW264222   0.814   7.224   3.622
20795SOL     OW64223  10.562   0.941   7.045
20795SOL    HW164224  10.545   0.938   6.951
20795SOL    HW264225  10.596   0.854   7.066
20796SOL     OW64226  13.836   4.884  13.198
20796SOL    HW164227  13.840   4.822  13.125
20796SOL    HW264228  13.912   4.862  13.252
20797SOL     OW64229   1.887  11.079   6.134
20797SOL    HW164230   1.928  11.153   6.089
20797SOL    HW264231   1.904  11.095   6.227
20798SOL     OW64232   2.620   5.316  14.347
20798SOL    HW164233   2.574   5.354  14.272
20798SOL    HW264234   2.710   5.305  14.317
20799SOL     OW64235  12.344   4.934   6.012
20799SOL    HW164236  12.416   4.877   5.986
20799SOL    HW264237  12.320   4.905   6.100
20800SOL     OW64238  14.610  14.489   9.599
20800SOL    HW164239  14.647  14.468   9.513
20800SOL    HW264240  14.676  14.461   9.662
20801SOL     OW64241   4.283   1.452  10.363
20801SOL    HW164242   4.342   1.413  10.428
20801SOL    HW264243   4.305   1.409  10.281
20802SOL     OW64244   2.412   7.621   5.690
20802SOL    HW164245   2.323   7.610   5.657
20802SOL    HW264246   2.446   7.696   5.641
20803SOL     OW64247   6.562  11.596   9.067
20803SOL    HW164248   6.654  11.571   9.069
20803SOL    HW264249   6.519  11.534   9.126
20804SOL     OW64250   2.525   4.186  11.123
20804SOL    HW164251   2.541   4.274  11.089
20804SOL    HW264252   2.432   4.172  11.109
20805SOL     OW64253   7.158   2.703   1.474
20805SOL    HW164254   7.222   2.674   1.410
20805SOL    HW264255   7.079   2.651   1.455
20806SOL     OW64256  13.983   5.136   3.734
20806SOL    HW164257  13.989   5.229   3.710
20806SOL    HW264258  13.967   5.091   3.651
20807SOL     OW64259   3.775  13.350   2.131
20807SOL    HW164260   3.694  13.386   2.096
20807SOL    HW264261   3.765  13.355   2.226
20808SOL     OW64262   7.355   1.744   1.722
20808SOL    HW164263   7.385   1.666   1.769
20808SOL    HW264264   7.271   1.766   1.763
20809SOL     OW64265   4.068  12.174  12.593
20809SOL    HW164266   4.146  12.120  12.579
20809SOL    HW264267   4.008  12.117  12.643
20810SOL     OW64268  10.640   2.901  13.652
20810SOL    HW164269  10.675   2.953  13.580
20810SOL    HW264270  10.654   2.810  13.625
20811SOL     OW64271  12.413   5.149  13.119
20811SOL    HW164272  12.378   5.231  13.153
20811SOL    HW264273  12.426   5.094  13.196
20812SOL     OW64274  14.822  12.333  13.216
20812SOL    HW164275  14.858  12.420  13.198
20812SOL    HW264276  14.844  12.318  13.308
20813SOL     OW64277   2.497   7.624   0.759
20813SOL    HW164278   2.546   7.706   0.752
20813SOL    HW264279   2.471   7.620   0.851
20814SOL     OW64280   9.177   6.623   5.438
20814SOL    HW164281   9.250   6.664   5.484
20814SOL    HW264282   9.202   6.626   5.345
20815SOL     OW64283   4.743   9.854  14.719
20815SOL    HW164284   4.664   9.880  14.767
20815SOL    HW264285   4.810   9.917  14.749
20816SOL     OW64286   2.559   9.591   4.665
20816SOL    HW164287   2.624   9.552   4.724
20816SOL    HW264288   2.610   9.620   4.589
20817SOL     OW64289   2.311   3.334   4.433
20817SOL    HW164290   2.372   3.264   4.456
20817SOL    HW264291   2.363   3.393   4.378
20818SOL     OW64292   5.746  12.574   4.247
20818SOL    HW164293   5.673  12.553   4.189
20818SOL    HW264294   5.740  12.669   4.260
20819SOL     OW64295   2.845   2.786  14.800
20819SOL    HW164296   2.928   2.744  14.823
20819SOL    HW264297   2.791   2.715  14.765
20820SOL     OW64298   6.920   6.210   2.850
20820SOL    HW164299   6.862   6.206   2.774
20820SOL    HW264300   6.869   6.171   2.922
20821SOL     OW64301  10.782   6.047   0.603
20821SOL    HW164302  10.780   5.987   0.529
20821SOL    HW264303  10.722   6.118   0.579
20822SOL     OW64304   8.973   1.294  14.625
20822SOL    HW164305   9.006   1.253  14.545
20822SOL    HW264306   8.879   1.304  14.610
20823SOL     OW64307   1.526  10.246   4.452
20823SOL    HW164308   1.565  10.297   4.523
20823SOL    HW264309   1.600  10.224   4.395
20824SOL     OW64310   1.871  12.620  10.156
20824SOL    HW164311   1.854  12.535  10.198
20824SOL    HW264312   1.799  12.676  10.186
20825SOL     OW64313   7.477  14.233  11.961
20825SOL    HW164314   7.461  14.314  12.010
20825SOL    HW264315   7.561  14.201  11.994
20826SOL     OW64316   5.376   0.528   0.699
20826SOL    HW164317   5.400   0.589   0.770
20826SOL    HW264318   5.460   0.498   0.664
20827SOL     OW64319   0.072   8.213   0.956
20827SOL    HW164320   0.160   8.221   0.992
20827SOL    HW264321   0.083   8.160   0.877
20828SOL     OW64322   2.018   6.822   0.980
20828SOL    HW164323   1.978   6.896   0.934
20828SOL    HW264324   2.054   6.767   0.911
20829SOL     OW64325   4.603  11.913   9.223
20829SOL    HW164326   4.685  11.864   9.228
20829SOL    HW264327   4.623  11.998   9.263
20830SOL     OW64328   7.611   1.020  10.554
20830SOL    HW164329   7.688   1.017  10.611
20830SOL    HW264330   7.567   1.102  10.576
20831SOL     OW64331   5.270   4.977  11.563
20831SOL    HW164332   5.278   5.072  11.557
20831SOL    HW264333   5.358   4.947  11.585
20832SOL     OW64334   4.159   5.663   4.142
20832SOL    HW164335   4.147   5.728   4.073
20832SOL    HW264336   4.074   5.659   4.186
20833SOL     OW64337  11.322   3.823   3.364
20833SOL    HW164338  11.263   3.748   3.370
20833SOL    HW264339  11.405   3.791   3.396
20834SOL     OW64340   1.983   2.371  12.760
20834SOL    HW164341   2.056   2.326  12.803
20834SOL    HW264342   1.972   2.323  12.678
20835SOL     OW64343   2.609   6.770  11.819
20835SOL    HW164344   2.625   6.772  11.725
20835SOL    HW264345   2.607   6.862  11.846
20836SOL     OW64346   0.946  12.467   2.642
20836SOL    HW164347   0.998  12.387   2.639
20836SOL    HW264348   0.857  12.440   2.618
20837SOL     OW64349   3.534  11.659  10.208
20837SOL    HW164350   3.537  11.734  10.268
20837SOL    HW264351   3.514  11.697  10.123
20838SOL     OW64352   2.801   3.228  11.271
20838SOL    HW164353   2.827   3.138  11.293
20838SOL    HW264354   2.860   3.252  11.200
20839SOL     OW64355  10.631   7.914  12.581
20839SOL    HW164356  10.550   7.937  12.536
20839SOL    HW264357  10.661   7.834  12.537
20840SOL     OW64358   2.112  13.559   4.868
20840SOL    HW164359   2.196  13.593   4.899
20840SOL    HW264360   2.057  13.637   4.857
20841SOL     OW64361  10.072  13.143   9.001
20841SOL    HW164362  10.138  13.112   9.064
20841SOL    HW264363  10.091  13.095   8.921
20842SOL     OW64364   7.216   9.671   3.912
20842SOL    HW164365   7.151   9.626   3.857
20842SOL    HW264366   7.295   9.672   3.859
20843SOL     OW64367   5.309   8.520   0.173
20843SOL    HW164368   5.387   8.464   0.171
20843SOL    HW264369   5.344   8.608   0.186
20844SOL     OW64370  12.207  12.402  14.469
20844SOL    HW164371  12.167  12.389  14.555
20844SOL    HW264372  12.141  12.372  14.407
20845SOL     OW64373  11.848   4.764   8.693
20845SOL    HW164374  11.811   4.731   8.775
20845SOL    HW264375  11.910   4.696   8.666
20846SOL     OW64376   6.284   0.733   8.792
20846SOL    HW164377   6.362   0.726   8.736
20846SOL    HW264378   6.212   0.749   8.731
20847SOL     OW64379   1.903  13.158  14.695
20847SOL    HW164380   1.988  13.133  14.657
20847SOL    HW264381   1.840  13.099  14.653
20848SOL     OW64382  11.077   1.239  11.761
20848SOL    HW164383  11.013   1.228  11.690
20848SOL    HW264384  11.026   1.279  11.832
20849SOL     OW64385   0.549   0.696   4.069
20849SOL    HW164386   0.525   0.653   3.987
20849SOL    HW264387   0.466   0.729   4.104
20850SOL     OW64388   0.014  12.585   4.496
20850SOL    HW164389   0.096  12.574   4.545
20850SOL    HW264390   0.042  12.593   4.405
20851SOL     OW64391   3.714   4.593  13.747
20851SOL    HW164392   3.719   4.512  13.797
20851SOL    HW264393   3.751   4.659  13.806
20852SOL     OW64394   1.756   4.991   5.112
20852SOL    HW164395   1.670   4.950   5.104
20852SOL    HW264396   1.776   4.987   5.206
20853SOL     OW64397   6.919  11.264   0.516
20853SOL    HW164398   6.917  11.321   0.439
20853SOL    HW264399   6.890  11.319   0.588
20854SOL     OW64400   3.929  10.279  12.864
20854SOL    HW164401   3.957  10.364  12.899
20854SOL    HW264402   3.903  10.298  12.774
20855SOL     OW64403   8.416   8.551   1.741
20855SOL    HW164404   8.460   8.479   1.695
20855SOL    HW264405   8.478   8.625   1.733
20856SOL     OW64406  14.075   7.385   9.397
20856SOL    HW164407  14.116   7.470   9.382
20856SOL    HW264408  14.007   7.402   9.462
20857SOL     OW64409   4.904   1.864  11.118
20857SOL    HW164410   4.960   1.790  11.097
20857SOL    HW264411   4.963   1.939  11.123
20858SOL     OW64412   2.609   3.896   6.323
20858SOL    HW164413   2.618   3.834   6.395
20858SOL    HW264414   2.570   3.845   6.252
20859SOL     OW64415   7.769   8.039   5.262
20859SOL    HW164416   7.730   8.113   5.217
20859SOL    HW264417   7.733   8.041   5.350
20860SOL     OW64418   8.851   5.432  14.031
20860SOL    HW164419   8.873   5.486  14.107
20860SOL    HW264420   8.836   5.496  13.961
20861SOL     OW64421   0.393   5.990   1.794
20861SOL    HW164422   0.311   5.968   1.838
20861SOL    HW264423   0.380   6.078   1.759
20862SOL     OW64424  12.026   5.885   4.281
20862SOL    HW164425  11.969   5.940   4.335
20862SOL    HW264426  11.972   5.810   4.259
20863SOL     OW64427  10.255  10.395   8.840
20863SOL    HW164428  10.199  10.388   8.917
20863SOL    HW264429  10.313  10.470   8.860
20864SOL     OW64430   7.870  12.308   3.214
20864SOL    HW164431   7.904  12.225   3.183
20864SOL    HW264432   7.920  12.327   3.293
20865SOL     OW64433   3.033   4.915   7.976
20865SOL    HW164434   2.964   4.980   7.985
20865SOL    HW264435   3.002   4.840   8.026
20866SOL     OW64436   7.028  14.259  10.286
20866SOL    HW164437   6.938  14.290  10.274
20866SOL    HW264438   7.077  14.300  10.215
20867SOL     OW64439  10.508   0.199  12.922
20867SOL    HW164440  10.573   0.267  12.939
20867SOL    HW264441  10.447   0.239  12.860
20868SOL     OW64442   0.015  14.533   3.951
20868SOL    HW164443  14.857  14.495   3.869
20868SOL    HW264444   0.074  14.467   3.988
20869SOL     OW64445   0.800  12.688  14.362
20869SOL    HW164446   0.804  12.624  14.292
20869SOL    HW264447   0.715  12.675  14.403
20870SOL     OW64448   6.433  12.772   6.055
20870SOL    HW164449   6.388  12.717   5.990
20870SOL    HW264450   6.375  12.772   6.131
20871SOL     OW64451   7.687   5.117   5.763
20871SOL    HW164452   7.770   5.082   5.796
20871SOL    HW264453   7.710   5.157   5.679
20872SOL     OW64454  11.764   5.058  12.141
20872SOL    HW164455  11.689   5.071  12.199
20872SOL    HW264456  11.725   5.049  12.054
20873SOL     OW64457   2.968   0.551   3.302
20873SOL    HW164458   3.025   0.628   3.313
20873SOL    HW264459   2.903   0.560   3.372
20874SOL     OW64460   7.861  10.208  10.682
20874SOL    HW164461   7.853  10.201  10.777
20874SOL    HW264462   7.949  10.242  10.666
20875SOL     OW64463   4.823   4.396   2.456
20875SOL    HW164464   4.884   4.370   2.524
20875SOL    HW264465   4.759   4.325   2.452
20876SOL     OW64466   0.508   7.006   5.957
20876SOL    HW164467   0.513   6.923   5.909
20876SOL    HW264468   0.525   6.982   6.048
20877SOL     OW64469   7.886   8.302  14.112
20877SOL    HW164470   7.890   8.350  14.195
20877SOL    HW264471   7.823   8.350  14.059
20878SOL     OW64472  11.516   7.120  11.587
20878SOL    HW164473  11.441   7.060  11.591
20878SOL    HW264474  11.514   7.167  11.670
20879SOL     OW64475  14.009   1.711   1.391
20879SOL    HW164476  13.944   1.782   1.398
20879SOL    HW264477  13.958   1.632   1.408
20880SOL     OW64478  13.102   3.608   8.066
20880SOL    HW164479  13.091   3.703   8.073
20880SOL    HW264480  13.015   3.575   8.043
20881SOL     OW64481  12.212  13.306  14.405
20881SOL    HW164482  12.164  13.340  14.329
20881SOL    HW264483  12.169  13.345  14.480
20882SOL     OW64484  13.975   8.643   8.196
20882SOL    HW164485  13.911   8.573   8.180
20882SOL    HW264486  13.959   8.707   8.127
20883SOL     OW64487   1.615  14.344   9.562
20883SOL    HW164488   1.545  14.285   9.533
20883SOL    HW264489   1.605  14.422   9.507
20884SOL     OW64490   5.670  11.291   8.670
20884SOL    HW164491   5.653  11.273   8.577
20884SOL    HW264492   5.583  11.305   8.707
20885SOL     OW64493   6.577   8.552   7.050
20885SOL    HW164494   6.481   8.549   7.052
20885SOL    HW264495   6.598   8.644   7.066
20886SOL     OW64496   5.803   2.193   8.434
20886SOL    HW164497   5.711   2.202   8.460
20886SOL    HW264498   5.819   2.270   8.379
20887SOL     OW64499   3.055   7.691   5.084
20887SOL    HW164500   3.092   7.743   5.013
20887SOL    HW264501   2.964   7.718   5.089
20888SOL     OW64502   9.794   5.293   2.424
20888SOL    HW164503   9.730   5.289   2.495
20888SOL    HW264504   9.742   5.309   2.346
20889SOL     OW64505  13.975   4.874  12.915
20889SOL    HW164506  13.975   4.970  12.904
20889SOL    HW264507  13.890   4.846  12.882
20890SOL     OW64508   7.835   2.220  10.621
20890SOL    HW164509   7.760   2.272  10.651
20890SOL    HW264510   7.797   2.154  10.563
20891SOL     OW64511   5.450   3.674  10.095
20891SOL    HW164512   5.433   3.589  10.135
20891SOL    HW264513   5.529   3.706  10.138
20892SOL     OW64514   3.203  11.354  13.524
20892SOL    HW164515   3.254  11.295  13.579
20892SOL    HW264516   3.201  11.311  13.438
20893SOL     OW64517  13.975  13.815  10.086
20893SOL    HW164518  13.916  13.782  10.018
20893SOL    HW264519  13.974  13.910  10.074
20894SOL     OW64520   4.799   4.229   5.602
20894SOL    HW164521   4.765   4.143   5.577
20894SOL    HW264522   4.830   4.268   5.520
20895SOL     OW64523   7.916  14.287   0.907
20895SOL    HW164524   7.948  14.204   0.871
20895SOL    HW264525   7.826  14.268   0.934
20896SOL     OW64526   0.946   4.707   1.937
20896SOL    HW164527   0.924   4.766   2.009
20896SOL    HW264528   0.868   4.653   1.926
20897SOL     OW64529  12.283   6.286   5.461
20897SOL    HW164530  12.357   6.251   5.511
20897SOL    HW264531  12.210   6.227   5.481
20898SOL     OW64532  14.335   9.159   3.984
20898SOL    HW164533  14.431   9.158   3.990
20898SOL    HW264534  14.312   9.068   3.963
20899SOL     OW64535   6.958   5.280  14.639
20899SOL    HW164536   6.970   5.207  14.700
20899SOL    HW264537   6.866   5.275  14.613
20900SOL     OW64538   8.926   1.808  12.510
20900SOL    HW164539   8.958   1.845  12.428
20900SOL    HW264540   8.984   1.734  12.527
20901SOL     OW64541  11.011   2.500  13.292
20901SOL    HW164542  10.967   2.438  13.350
20901SOL    HW264543  10.951   2.575  13.288
20902SOL     OW64544   5.731   3.972   7.311
20902SOL    HW164545   5.662   3.996   7.250
20902SOL    HW264546   5.808   3.960   7.256
20903SOL     OW64547   6.741   8.201  10.258
20903SOL    HW164548   6.780   8.262  10.321
20903SOL    HW264549   6.649   8.196  10.284
20904SOL     OW64550  12.379   4.234  11.717
20904SOL    HW164551  12.471   4.215  11.699
20904SOL    HW264552  12.380   4.276  11.803
20905SOL     OW64553  11.055   1.138   9.473
20905SOL    HW164554  11.002   1.096   9.406
20905SOL    HW264555  10.992   1.178   9.533
20906SOL     OW64556   1.117   9.368   3.753
20906SOL    HW164557   1.064   9.376   3.832
20906SOL    HW264558   1.207   9.381   3.783
20907SOL     OW64559  13.193  11.921   2.339
20907SOL    HW164560  13.196  11.908   2.434
20907SOL    HW264561  13.282  11.948   2.316
20908SOL     OW64562  10.764  10.905  10.674
20908SOL    HW164563  10.686  10.949  10.640
20908SOL    HW264564  10.737  10.814  10.685
20909SOL     OW64565   9.258  13.565   3.858
20909SOL    HW164566   9.270  13.570   3.763
20909SOL    HW264567   9.198  13.638   3.878
20910SOL     OW64568   7.021  11.731  11.715
20910SOL    HW164569   6.990  11.789  11.646
20910SOL    HW264570   7.065  11.660  11.669
20911SOL     OW64571   1.143   3.966   5.224
20911SOL    HW164572   1.189   4.010   5.152
20911SOL    HW264573   1.213   3.932   5.279
20912SOL     OW64574  12.944   2.990   7.104
20912SOL    HW164575  12.951   2.944   7.188
20912SOL    HW264576  13.031   2.983   7.066
20913SOL     OW64577  11.386  10.342   9.590
20913SOL    HW164578  11.382  10.413   9.653
20913SOL    HW264579  11.325  10.276   9.624
20914SOL     OW64580   5.779   6.193  13.954
20914SOL    HW164581   5.803   6.100  13.964
20914SOL    HW264582   5.736   6.197  13.869
20915SOL     OW64583   9.314   3.881  13.797
20915SOL    HW164584   9.311   3.868  13.891
20915SOL    HW264585   9.302   3.975  13.785
20916SOL     OW64586   1.696   2.749   5.248
20916SOL    HW164587   1.705   2.767   5.341
20916SOL    HW264588   1.613   2.789   5.223
20917SOL     OW64589   9.864  13.851   2.063
20917SOL    HW164590   9.892  13.811   1.981
20917SOL    HW264591   9.942  13.896   2.096
20918SOL     OW64592   9.940  10.276   7.481
20918SOL    HW164593   9.990  10.340   7.431
20918SOL    HW264594   9.956  10.193   7.436
20919SOL     OW64595   4.689   2.786   4.776
20919SOL    HW164596   4.601   2.823   4.783
20919SOL    HW264597   4.688   2.736   4.694
20920SOL     OW64598  12.574  13.476  13.358
20920SOL    HW164599  12.616  13.478  13.272
20920SOL    HW264600  12.503  13.412  13.349
20921SOL     OW64601  12.701   4.616   2.804
20921SOL    HW164602  12.705   4.582   2.715
20921SOL    HW264603  12.613   4.592   2.835
20922SOL     OW64604   8.636   8.397   1.376
20922SOL    HW164605   8.682   8.338   1.316
20922SOL    HW264606   8.569   8.438   1.321
20923SOL     OW64607   1.625  12.042   2.003
20923SOL    HW164608   1.695  12.005   1.950
20923SOL    HW264609   1.635  12.137   1.992
20924SOL     OW64610   3.404   9.270   3.414
20924SOL    HW164611   3.316   9.301   3.393
20924SOL    HW264612   3.394   9.222   3.496
20925SOL     OW64613   0.976  11.880   0.486
20925SOL    HW164614   1.031  11.929   0.548
20925SOL    HW264615   1.018  11.893   0.401
20926SOL     OW64616  12.699   3.263   6.275
20926SOL    HW164617  12.764   3.260   6.205
20926SOL    HW264618  12.688   3.172   6.302
20927SOL     OW64619  12.698  12.243   5.111
20927SOL    HW164620  12.622  12.193   5.141
20927SOL    HW264621  12.772  12.183   5.121
20928SOL     OW64622  10.615   4.649  13.265
20928SOL    HW164623  10.650   4.669  13.178
20928SOL    HW264624  10.599   4.735  13.305
20929SOL     OW64625   0.804   6.679  11.720
20929SOL    HW164626   0.887   6.725  11.712
20929SOL    HW264627   0.828   6.586  11.722
20930SOL     OW64628  12.469   7.797   1.946
20930SOL    HW164629  12.475   7.739   2.022
20930SOL    HW264630  12.524   7.755   1.879
20931SOL     OW64631  11.645  10.434   0.997
20931SOL    HW164632  11.719  10.493   0.982
20931SOL    HW264633  11.685  10.354   1.030
20932SOL     OW64634  11.938   7.856   4.420
20932SOL    HW164635  11.912   7.829   4.331
20932SOL    HW264636  12.030   7.880   4.411
20933SOL     OW64637   0.239   8.574   9.540
20933SOL    HW164638   0.173   8.621   9.489
20933SOL    HW264639   0.297   8.536   9.473
20934SOL     OW64640  13.786   4.579   3.579
20934SOL    HW164641  13.808   4.660   3.625
20934SOL    HW264642  13.765   4.607   3.490
20935SOL     OW64643   9.421  14.314  14.669
20935SOL    HW164644   9.450  14.365  14.593
20935SOL    HW264645   9.358  14.371  14.713
20936SOL     OW64646  12.931   9.541  11.555
20936SOL    HW164647  12.860   9.580  11.606
20936SOL    HW264648  12.919   9.446  11.566
20937SOL     OW64649   9.973   9.329  14.854
20937SOL    HW164650  10.030   9.264  14.813
20937SOL    HW264651  10.018   9.352   0.063
20938SOL     OW64652   2.041  10.206   4.770
20938SOL    HW164653   2.098  10.198   4.693
20938SOL    HW264654   2.046  10.298   4.794
20939SOL     OW64655  14.286   1.315   8.707
20939SOL    HW164656  14.377   1.336   8.684
20939SOL    HW264657  14.243   1.297   8.624
20940SOL     OW64658  12.525  12.042   5.185
20940SOL    HW164659  12.517  12.014   5.093
20940SOL    HW264660  12.456  11.994   5.230
20941SOL     OW64661  11.558   3.118   5.142
20941SOL    HW164662  11.466   3.127   5.164
20941SOL    HW264663  11.604   3.169   5.208
20942SOL     OW64664   1.149  13.461  14.641
20942SOL    HW164665   1.094  13.508  14.704
20942SOL    HW264666   1.088  13.410  14.588
20943SOL     OW64667  10.417  13.684  11.786
20943SOL    HW164668  10.384  13.713  11.871
20943SOL    HW264669  10.340  13.677  11.731
20944SOL     OW64670   5.699  11.006  12.132
20944SOL    HW164671   5.607  11.001  12.106
20944SOL    HW264672   5.744  10.952  12.067
20945SOL     OW64673   2.097  14.586   2.305
20945SOL    HW164674   2.049  14.569   2.386
20945SOL    HW264675   2.039  14.642   2.254
20946SOL     OW64676   0.414   0.851   9.186
20946SOL    HW164677   0.473   0.846   9.111
20946SOL    HW264678   0.337   0.897   9.152
20947SOL     OW64679   0.758   7.768   2.865
20947SOL    HW164680   0.813   7.697   2.832
20947SOL    HW264681   0.814   7.814   2.928
20948SOL     OW64682  10.399  13.264   9.119
20948SOL    HW164683  10.446  13.265   9.203
20948SOL    HW264684  10.369  13.355   9.107
20949SOL     OW64685   1.013   2.277   5.388
20949SOL    HW164686   1.094   2.324   5.370
20949SOL    HW264687   0.954   2.299   5.316
20950SOL     OW64688   6.895   6.444   7.389
20950SOL    HW164689   6.962   6.378   7.402
20950SOL    HW264690   6.812   6.398   7.402
20951SOL     OW64691   3.534   1.928  14.319
20951SOL    HW164692   3.441   1.923  14.296
20951SOL    HW264693   3.542   2.007  14.372
20952SOL     OW64694   7.003   1.900   9.311
20952SOL    HW164695   7.050   1.983   9.323
20952SOL    HW264696   6.916   1.918   9.345
20953SOL     OW64697  13.155   3.459   2.075
20953SOL    HW164698  13.127   3.511   2.000
20953SOL    HW264699  13.180   3.523   2.142
20954SOL     OW64700   1.891   6.321  11.915
20954SOL    HW164701   1.845   6.399  11.884
20954SOL    HW264702   1.977   6.353  11.944
20955SOL     OW64703   4.490   8.864  11.135
20955SOL    HW164704   4.570   8.847  11.185
20955SOL    HW264705   4.420   8.858  11.200
20956SOL     OW64706  12.828   2.303   0.594
20956SOL    HW164707  12.842   2.318   0.688
20956SOL    HW264708  12.785   2.218   0.589
20957SOL     OW64709   8.707   1.230   6.409
20957SOL    HW164710   8.763   1.304   6.383
20957SOL    HW264711   8.727   1.216   6.501
20958SOL     OW64712  12.435  12.433   5.553
20958SOL    HW164713  12.438  12.380   5.473
20958SOL    HW264714  12.360  12.491   5.541
20959SOL     OW64715   3.799  10.093   3.552
20959SOL    HW164716   3.859  10.111   3.624
20959SOL    HW264717   3.843  10.127   3.474
20960SOL     OW64718   0.116  11.615  13.955
20960SOL    HW164719   0.157  11.636  14.039
20960SOL    HW264720   0.064  11.536  13.972
20961SOL     OW64721   8.407   4.657  12.765
20961SOL    HW164722   8.401   4.567  12.734
20961SOL    HW264723   8.342   4.704  12.713
20962SOL     OW64724   0.776   4.557   7.525
20962SOL    HW164725   0.867   4.554   7.555
20962SOL    HW264726   0.736   4.478   7.560
20963SOL     OW64727  12.871   1.971  10.354
20963SOL    HW164728  12.886   1.986  10.261
20963SOL    HW264729  12.793   2.023  10.375
20964SOL     OW64730   1.578  12.890  11.701
20964SOL    HW164731   1.576  12.974  11.747
20964SOL    HW264732   1.662  12.852  11.725
20965SOL     OW64733   0.385  14.439   4.495
20965SOL    HW164734   0.409  14.530   4.513
20965SOL    HW264735   0.387  14.397   4.581
20966SOL     OW64736  11.958   4.998  11.182
20966SOL    HW164737  11.920   4.951  11.108
20966SOL    HW264738  11.921   5.086  11.176
20967SOL     OW64739   9.308   4.264   3.195
20967SOL    HW164740   9.382   4.203   3.189
20967SOL    HW264741   9.299   4.300   3.107
20968SOL     OW64742   7.775   5.529   2.775
20968SOL    HW164743   7.721   5.495   2.703
20968SOL    HW264744   7.729   5.608   2.803
20969SOL     OW64745   6.085   8.301  14.868
20969SOL    HW164746   6.104   8.278   0.086
20969SOL    HW264747   6.079   8.217  14.823
20970SOL     OW64748   1.596   1.637   5.507
20970SOL    HW164749   1.516   1.657   5.555
20970SOL    HW264750   1.569   1.574   5.440
20971SOL     OW64751  12.224  10.578   2.938
20971SOL    HW164752  12.144  10.533   2.911
20971SOL    HW264753  12.240  10.546   3.027
20972SOL     OW64754  10.606  14.372   1.160
20972SOL    HW164755  10.650  14.353   1.243
20972SOL    HW264756  10.513  14.362   1.179
20973SOL     OW64757   9.812   3.852   3.637
20973SOL    HW164758   9.892   3.855   3.688
20973SOL    HW264759   9.838   3.814   3.553
20974SOL     OW64760   8.556   1.804   1.166
20974SOL    HW164761   8.590   1.718   1.189
20974SOL    HW264762   8.461   1.793   1.167
20975SOL     OW64763   0.395   8.203  10.357
20975SOL    HW164764   0.458   8.213  10.428
20975SOL    HW264765   0.374   8.110  10.355
20976SOL     OW64766  13.938   2.954  10.110
20976SOL    HW164767  13.881   2.877  10.111
20976SOL    HW264768  13.901   3.012  10.177
20977SOL     OW64769   8.420   1.657   9.503
20977SOL    HW164770   8.492   1.626   9.448
20977SOL    HW264771   8.357   1.586   9.502
20978SOL     OW64772  11.517   5.398  14.728
20978SOL    HW164773  11.576   5.403  14.803
20978SOL    HW264774  11.564   5.347  14.662
20979SOL     OW64775   5.864   2.934  10.341
20979SOL    HW164776   5.904   3.021  10.334
20979SOL    HW264777   5.782   2.949  10.388
20980SOL     OW64778   3.322   1.401   5.531
20980SOL    HW164779   3.247   1.365   5.484
20980SOL    HW264780   3.395   1.397   5.469
20981SOL     OW64781   9.858   9.846   7.714
20981SOL    HW164782   9.811   9.780   7.663
20981SOL    HW264783   9.944   9.852   7.674
20982SOL     OW64784  12.151  14.511   9.488
20982SOL    HW164785  12.208  14.584   9.467
20982SOL    HW264786  12.079  14.517   9.425
20983SOL     OW64787  13.147  10.361  14.236
20983SOL    HW164788  13.062  10.340  14.197
20983SOL    HW264789  13.128  10.377  14.328
20984SOL     OW64790  14.461   4.997  12.209
20984SOL    HW164791  14.429   4.964  12.293
20984SOL    HW264792  14.391   5.055  12.179
20985SOL     OW64793  12.064   2.450  13.291
20985SOL    HW164794  12.132   2.440  13.358
20985SOL    HW264795  12.112   2.443  13.208
20986SOL     OW64796   7.008   1.090   3.852
20986SOL    HW164797   7.052   1.023   3.904
20986SOL    HW264798   6.921   1.097   3.892
20987SOL     OW64799   7.973  12.732   0.205
20987SOL    HW164800   8.037  12.662   0.216
20987SOL    HW264801   8.023  12.807   0.172
20988SOL     OW64802   8.729   5.227   3.880
20988SOL    HW164803   8.678   5.305   3.856
20988SOL    HW264804   8.667   5.172   3.929
20989SOL     OW64805   3.243   0.483  13.255
20989SOL    HW164806   3.324   0.519  13.291
20989SOL    HW264807   3.226   0.404  13.306
20990SOL     OW64808   6.456   2.578   1.336
20990SOL    HW164809   6.370   2.536   1.327
20990SOL    HW264810   6.460   2.638   1.261
20991SOL     OW64811  13.630   9.674   8.278
20991SOL    HW164812  13.594   9.601   8.329
20991SOL    HW264813  13.557   9.703   8.222
20992SOL     OW64814  14.596   7.668   9.334
20992SOL    HW164815  14.640   7.715   9.263
20992SOL    HW264816  14.534   7.732   9.370
20993SOL     OW64817  11.090   9.989  12.052
20993SOL    HW164818  11.172   9.953  12.085
20993SOL    HW264819  11.044   9.914  12.014
20994SOL     OW64820  12.496  13.372   3.321
20994SOL    HW164821  12.575  13.323   3.347
20994SOL    HW264822  12.456  13.318   3.252
20995SOL     OW64823  12.176   0.824   9.934
20995SOL    HW164824  12.143   0.913   9.948
20995SOL    HW264825  12.111   0.768   9.977
20996SOL     OW64826  14.604   7.857   0.518
20996SOL    HW164827  14.533   7.918   0.538
20996SOL    HW264828  14.676   7.913   0.490
20997SOL     OW64829   7.102  10.336   7.320
20997SOL    HW164830   7.174  10.391   7.290
20997SOL    HW264831   7.129  10.304   7.406
20998SOL     OW64832  11.409   4.222  12.992
20998SOL    HW164833  11.410   4.242  12.899
20998SOL    HW264834  11.383   4.303  13.035
20999SOL     OW64835  13.761   0.120   2.491
20999SOL    HW164836  13.836   0.061   2.491
20999SOL    HW264837  13.775   0.177   2.415
21000SOL     OW64838  14.097   8.347   6.229
21000SOL    HW164839  14.102   8.257   6.197
21000SOL    HW264840  14.048   8.342   6.311
21001SOL     OW64841   6.915   5.530  13.645
21001SOL    HW164842   6.873   5.570  13.569
21001SOL    HW264843   6.967   5.458  13.609
21002SOL     OW64844  14.074   5.048  12.617
21002SOL    HW164845  14.103   5.103  12.689
21002SOL    HW264846  13.978   5.046  12.625
21003SOL     OW64847  11.291   8.790   3.908
21003SOL    HW164848  11.210   8.833   3.932
21003SOL    HW264849  11.342   8.787   3.988
21004SOL     OW64850  12.682   5.763   0.069
21004SOL    HW164851  12.709   5.783  14.852
21004SOL    HW264852  12.761   5.776   0.121
21005SOL     OW64853  13.575   0.439  14.538
21005SOL    HW164854  13.648   0.474  14.589
21005SOL    HW264855  13.577   0.345  14.556
21006SOL     OW64856  11.393   9.584   1.796
21006SOL    HW164857  11.436   9.617   1.875
21006SOL    HW264858  11.458   9.597   1.727
21007SOL     OW64859  14.241   8.443  13.336
21007SOL    HW164860  14.235   8.413  13.427
21007SOL    HW264861  14.180   8.387  13.288
21008SOL     OW64862  11.741   5.548  14.303
21008SOL    HW164863  11.800   5.522  14.232
21008SOL    HW264864  11.691   5.469  14.323
21009SOL     OW64865   6.705   8.502   2.938
21009SOL    HW164866   6.794   8.478   2.911
21009SOL    HW264867   6.679   8.570   2.875
21010SOL     OW64868   6.646   5.188   5.742
21010SOL    HW164869   6.669   5.166   5.652
21010SOL    HW264870   6.563   5.234   5.734
21011SOL     OW64871   5.929   6.451   0.382
21011SOL    HW164872   5.926   6.357   0.363
21011SOL    HW264873   5.858   6.489   0.330
21012SOL     OW64874  12.907   9.889  14.115
21012SOL    HW164875  12.849   9.922  14.183
21012SOL    HW264876  12.991   9.875  14.159
21013SOL     OW64877  12.689   3.058   6.488
21013SOL    HW164878  12.691   2.964   6.505
21013SOL    HW264879  12.754   3.095   6.547
21014SOL     OW64880  11.815   6.075  14.040
21014SOL    HW164881  11.871   6.123  14.101
21014SOL    HW264882  11.802   5.990  14.081
21015SOL     OW64883   8.529   7.752   8.082
21015SOL    HW164884   8.531   7.846   8.102
21015SOL    HW264885   8.522   7.709   8.167
21016SOL     OW64886  10.491   8.496  11.099
21016SOL    HW164887  10.576   8.541  11.103
21016SOL    HW264888  10.443   8.529  11.175
21017SOL     OW64889  13.772   8.678   2.046
21017SOL    HW164890  13.681   8.651   2.059
21017SOL    HW264891  13.768   8.742   1.975
21018SOL     OW64892  11.828   5.125   5.116
21018SOL    HW164893  11.760   5.085   5.062
21018SOL    HW264894  11.856   5.201   5.065
21019SOL     OW64895   7.773   6.445   7.224
21019SOL    HW164896   7.744   6.494   7.301
21019SOL    HW264897   7.750   6.354   7.244
21020SOL     OW64898   5.844   7.973  11.652
21020SOL    HW164899   5.793   7.895  11.675
21020SOL    HW264900   5.934   7.942  11.648
21021SOL     OW64901  14.725  13.669   5.259
21021SOL    HW164902  14.694  13.756   5.283
21021SOL    HW264903  14.785  13.685   5.185
21022SOL     OW64904  13.356   5.501  10.350
21022SOL    HW164905  13.334   5.509  10.442
21022SOL    HW264906  13.280   5.460  10.310
21023SOL     OW64907   2.724   5.222   4.859
21023SOL    HW164908   2.798   5.164   4.877
21023SOL    HW264909   2.755   5.309   4.882
21024SOL     OW64910   9.797   3.803   6.592
21024SOL    HW164911   9.854   3.874   6.565
21024SOL    HW264912   9.737   3.844   6.655
21025SOL     OW64913   3.152   1.001   7.870
21025SOL    HW164914   3.075   1.003   7.927
21025SOL    HW264915   3.183   0.911   7.876
21026SOL     OW64916   4.294  10.048   7.190
21026SOL    HW164917   4.389  10.060   7.194
21026SOL    HW264918   4.266  10.101   7.116
21027SOL     OW64919  11.651   4.570  14.855
21027SOL    HW164920  11.558   4.554  14.839
21027SOL    HW264921  11.672   4.648  14.803
21028SOL     OW64922   4.810   7.451   3.407
21028SOL    HW164923   4.820   7.361   3.439
21028SOL    HW264924   4.867   7.456   3.330
21029SOL     OW64925   0.349   0.076  10.958
21029SOL    HW164926   0.306   0.042  11.037
21029SOL    HW264927   0.436   0.037  10.960
21030SOL     OW64928   2.431   8.833   0.355
21030SOL    HW164929   2.526   8.840   0.348
21030SOL    HW264930   2.407   8.768   0.289
21031SOL     OW64931  11.658  10.621  14.016
21031SOL    HW164932  11.695  10.703  13.983
21031SOL    HW264933  11.723  10.554  13.993
21032SOL     OW64934  14.098   2.393  14.513
21032SOL    HW164935  14.106   2.339  14.435
21032SOL    HW264936  14.138   2.342  14.583
21033SOL     OW64937   6.084   3.526   0.121
21033SOL    HW164938   6.022   3.579   0.072
21033SOL    HW264939   6.054   3.531   0.211
21034SOL     OW64940   3.791   9.025   0.297
21034SOL    HW164941   3.780   9.077   0.218
21034SOL    HW264942   3.720   9.053   0.354
21035SOL     OW64943   2.882   7.625   3.246
21035SOL    HW164944   2.848   7.592   3.163
21035SOL    HW264945   2.941   7.696   3.221
21036SOL     OW64946   4.650  13.657   7.786
21036SOL    HW164947   4.733  13.663   7.739
21036SOL    HW264948   4.674  13.665   7.879
21037SOL     OW64949  11.319  11.893   9.985
21037SOL    HW164950  11.404  11.886   9.943
21037SOL    HW264951  11.283  11.975   9.952
21038SOL     OW64952  14.118   5.720   8.451
21038SOL    HW164953  14.183   5.653   8.431
21038SOL    HW264954  14.169   5.798   8.472
21039SOL     OW64955   8.510   9.776   2.689
21039SOL    HW164956   8.603   9.776   2.711
21039SOL    HW264957   8.505   9.724   2.609
21040SOL     OW64958   3.108   1.728   3.230
21040SOL    HW164959   3.077   1.818   3.232
21040SOL    HW264960   3.042   1.679   3.280
21041SOL     OW64961   0.879   6.656   2.785
21041SOL    HW164962   0.826   6.585   2.749
21041SOL    HW264963   0.903   6.626   2.872
21042SOL     OW64964  11.121   4.918  12.573
21042SOL    HW164965  11.130   4.938  12.480
21042SOL    HW264966  11.028   4.929  12.591
21043SOL     OW64967   9.920   9.369   1.125
21043SOL    HW164968   9.883   9.395   1.041
21043SOL    HW264969  10.006   9.335   1.104
21044SOL     OW64970   0.607   1.085   2.073
21044SOL    HW164971   0.531   1.045   2.030
21044SOL    HW264972   0.677   1.080   2.007
21045SOL     OW64973  11.471  10.713   7.330
21045SOL    HW164974  11.393  10.768   7.335
21045SOL    HW264975  11.529  10.759   7.269
21046SOL     OW64976   4.475  12.769   8.487
21046SOL    HW164977   4.415  12.794   8.417
21046SOL    HW264978   4.490  12.675   8.473
21047SOL     OW64979   0.420  13.530  10.117
21047SOL    HW164980   0.477  13.603  10.090
21047SOL    HW264981   0.447  13.510  10.206
21048SOL     OW64982   0.432  12.958   7.744
21048SOL    HW164983   0.444  12.880   7.798
21048SOL    HW264984   0.421  12.923   7.655
21049SOL     OW64985  14.171   1.949   9.623
21049SOL    HW164986  14.134   1.861   9.622
21049SOL    HW264987  14.243   1.944   9.687
21050SOL     OW64988   0.103  13.627   6.751
21050SOL    HW164989   0.168  13.622   6.681
21050SOL    HW264990   0.129  13.559   6.813
21051SOL     OW64991  10.325  11.380   3.226
21051SOL    HW164992  10.284  11.295   3.240
21051SOL    HW264993  10.295  11.433   3.300
21052SOL     OW64994  10.837  10.383   2.996
21052SOL    HW164995  10.887  10.417   2.922
21052SOL    HW264996  10.901  10.378   3.067
21053SOL     OW64997   0.760   4.312  11.710
21053SOL    HW164998   0.727   4.399  11.733
21053SOL    HW264999   0.723   4.254  11.777
21054SOL     OW65000   5.992   5.163   8.389
21054SOL    HW165001   6.067   5.106   8.371
21054SOL    HW265002   6.010   5.243   8.340
21055SOL     OW65003   3.352   8.313   0.911
21055SOL    HW165004   3.395   8.229   0.894
21055SOL    HW265005   3.331   8.311   1.004
21056SOL     OW65006   4.822  13.012  13.274
21056SOL    HW165007   4.814  13.070  13.198
21056SOL    HW265008   4.735  12.973  13.283
21057SOL     OW65009  14.162  13.090  14.286
21057SOL    HW165010  14.250  13.067  14.313
21057SOL    HW265011  14.106  13.022  14.323
21058SOL     OW65012  10.651   5.213  10.483
21058SOL    HW165013  10.659   5.161  10.562
21058SOL    HW265014  10.679   5.301  10.509
21059SOL     OW65015   7.378  11.139   7.500
21059SOL    HW165016   7.399  11.131   7.593
21059SOL    HW265017   7.396  11.052   7.464
21060SOL     OW65018   9.202   2.355   2.839
21060SOL    HW165019   9.179   2.418   2.907
21060SOL    HW265020   9.159   2.388   2.760
21061SOL     OW65021   3.747   9.340  14.255
21061SOL    HW165022   3.815   9.365  14.318
21061SOL    HW265023   3.666   9.376  14.291
21062SOL     OW65024   2.127   7.672  10.309
21062SOL    HW165025   2.035   7.688  10.325
21062SOL    HW265026   2.172   7.711  10.384
21063SOL     OW65027   2.385   0.779   5.262
21063SOL    HW165028   2.351   0.836   5.193
21063SOL    HW265029   2.385   0.692   5.223
21064SOL     OW65030   9.478   8.442  10.617
21064SOL    HW165031   9.384   8.461  10.615
21064SOL    HW265032   9.486   8.372  10.681
21065SOL     OW65033   6.521   0.470   9.603
21065SOL    HW165034   6.464   0.398   9.629
21065SOL    HW265035   6.571   0.491   9.683
21066SOL     OW65036   2.126  13.357  12.683
21066SOL    HW165037   2.058  13.319  12.627
21066SOL    HW265038   2.099  13.448  12.694
21067SOL     OW65039   8.960  11.463   8.125
21067SOL    HW165040   8.963  11.514   8.206
21067SOL    HW265041   9.051  11.449   8.101
21068SOL     OW65042  11.850   8.006  12.886
21068SOL    HW165043  11.870   8.096  12.911
21068SOL    HW265044  11.852   8.007  12.790
21069SOL     OW65045   4.400   9.011  10.695
21069SOL    HW165046   4.468   8.971  10.640
21069SOL    HW265047   4.420   9.105  10.692
21070SOL     OW65048   7.712   2.550  10.490
21070SOL    HW165049   7.637   2.585  10.443
21070SOL    HW265050   7.768   2.512  10.422
21071SOL     OW65051   7.411   4.636  12.427
21071SOL    HW165052   7.454   4.574  12.486
21071SOL    HW265053   7.450   4.619  12.341
21072SOL     OW65054   1.632   3.924   9.101
21072SOL    HW165055   1.601   3.838   9.071
21072SOL    HW265056   1.560   3.983   9.083
21073SOL     OW65057  10.719   2.367   7.098
21073SOL    HW165058  10.739   2.276   7.122
21073SOL    HW265059  10.650   2.359   7.033
21074SOL     OW65060   6.180   8.819   7.621
21074SOL    HW165061   6.270   8.805   7.591
21074SOL    HW265062   6.127   8.767   7.560
21075SOL     OW65063   1.803   5.525   4.528
21075SOL    HW165064   1.808   5.542   4.434
21075SOL    HW265065   1.711   5.504   4.543
21076SOL     OW65066  14.723  10.620   2.673
21076SOL    HW165067  14.714  10.686   2.605
21076SOL    HW265068  14.807  10.578   2.656
21077SOL     OW65069   5.926  13.015   1.669
21077SOL    HW165070   5.850  13.068   1.645
21077SOL    HW265071   5.896  12.963   1.744
21078SOL     OW65072  12.961   4.873  13.202
21078SOL    HW165073  12.992   4.850  13.115
21078SOL    HW265074  12.907   4.798  13.228
21079SOL     OW65075   1.162  12.439   6.173
21079SOL    HW165076   1.093  12.389   6.217
21079SOL    HW265077   1.140  12.433   6.080
21080SOL     OW65078  14.551  10.667   1.873
21080SOL    HW165079  14.631  10.671   1.925
21080SOL    HW265080  14.503  10.592   1.909
21081SOL     OW65081   9.081  10.399   9.802
21081SOL    HW165082   9.028  10.398   9.723
21081SOL    HW265083   9.165  10.361   9.775
21082SOL     OW65084   8.621  12.960   8.438
21082SOL    HW165085   8.542  12.915   8.465
21082SOL    HW265086   8.627  13.037   8.495
21083SOL     OW65087   1.206   1.360   3.355
21083SOL    HW165088   1.229   1.400   3.271
21083SOL    HW265089   1.148   1.423   3.397
21084SOL     OW65090   4.149   3.510  13.832
21084SOL    HW165091   4.061   3.483  13.857
21084SOL    HW265092   4.163   3.593  13.879
21085SOL     OW65093  10.230  12.474   4.753
21085SOL    HW165094  10.218  12.380   4.742
21085SOL    HW265095  10.324  12.488   4.740
21086SOL     OW65096   3.564  13.824   3.235
21086SOL    HW165097   3.494  13.764   3.260
21086SOL    HW265098   3.610  13.842   3.316
21087SOL     OW65099  14.833   8.003   6.092
21087SOL    HW165100   0.015   7.925   6.101
21087SOL    HW265101  14.754   7.982   6.142
21088SOL     OW65102   8.379  12.513   6.806
21088SOL    HW165103   8.427  12.445   6.853
21088SOL    HW265104   8.392  12.493   6.713
21089SOL     OW65105   5.464  12.939  13.716
21089SOL    HW165106   5.511  12.997  13.656
21089SOL    HW265107   5.421  12.875  13.659
21090SOL     OW65108   9.464   0.061   6.517
21090SOL    HW165109   9.547   0.035   6.558
21090SOL    HW265110   9.487   0.073   6.424
21091SOL     OW65111  14.373  10.640   9.836
21091SOL    HW165112  14.309  10.708   9.859
21091SOL    HW265113  14.380  10.586   9.915
21092SOL     OW65114  12.440   9.397   7.234
21092SOL    HW165115  12.396   9.327   7.282
21092SOL    HW265116  12.396   9.398   7.149
21093SOL     OW65117   2.277   3.833  11.715
21093SOL    HW165118   2.200   3.890  11.724
21093SOL    HW265119   2.320   3.864  11.635
21094SOL     OW65120  10.014   6.722   5.885
21094SOL    HW165121  10.106   6.742   5.871
21094SOL    HW265122   9.967   6.789   5.836
21095SOL     OW65123  12.261   3.506  14.770
21095SOL    HW165124  12.237   3.425  14.725
21095SOL    HW265125  12.355   3.499  14.784
21096SOL     OW65126   5.451   2.153   5.624
21096SOL    HW165127   5.440   2.182   5.715
21096SOL    HW265128   5.377   2.193   5.578
21097SOL     OW65129   0.954  13.669   3.722
21097SOL    HW165130   0.876  13.724   3.713
21097SOL    HW265131   0.946  13.605   3.651
21098SOL     OW65132   4.644   6.981  14.400
21098SOL    HW165133   4.724   6.942  14.365
21098SOL    HW265134   4.587   6.907  14.417
21099SOL     OW65135   0.890   3.809  14.413
21099SOL    HW165136   0.917   3.717  14.415
21099SOL    HW265137   0.941   3.848  14.342
21100SOL     OW65138   5.299   9.570  11.844
21100SOL    HW165139   5.316   9.507  11.774
21100SOL    HW265140   5.365   9.638  11.831
21101SOL     OW65141   3.239  11.992   3.495
21101SOL    HW165142   3.212  11.972   3.406
21101SOL    HW265143   3.183  12.064   3.522
21102SOL     OW65144   1.700  11.172  13.013
21102SOL    HW165145   1.610  11.205  13.003
21102SOL    HW265146   1.733  11.218  13.090
21103SOL     OW65147   5.803   1.006   3.595
21103SOL    HW165148   5.872   0.941   3.608
21103SOL    HW265149   5.843   1.073   3.541
21104SOL     OW65150  13.188   9.623   9.683
21104SOL    HW165151  13.094   9.633   9.701
21104SOL    HW265152  13.195   9.622   9.588
21105SOL     OW65153  13.779   8.301   1.160
21105SOL    HW165154  13.719   8.292   1.086
21105SOL    HW265155  13.762   8.389   1.194
21106SOL     OW65156   8.575   1.929  14.722
21106SOL    HW165157   8.506   1.879  14.679
21106SOL    HW265158   8.655   1.879  14.705
21107SOL     OW65159  12.706   7.213   0.466
21107SOL    HW165160  12.730   7.289   0.518
21107SOL    HW265161  12.610   7.212   0.468
21108SOL     OW65162   4.984   7.937   5.567
21108SOL    HW165163   4.995   7.874   5.639
21108SOL    HW265164   4.891   7.934   5.546
21109SOL     OW65165   8.745   7.256   1.764
21109SOL    HW165166   8.826   7.223   1.803
21109SOL    HW265167   8.730   7.340   1.807
21110SOL     OW65168   3.311   0.382   5.635
21110SOL    HW165169   3.322   0.292   5.604
21110SOL    HW265170   3.376   0.432   5.587
21111SOL     OW65171   3.989  10.241   8.732
21111SOL    HW165172   3.894  10.234   8.730
21111SOL    HW265173   4.011  10.233   8.825
21112SOL     OW65174   5.408   7.243   8.290
21112SOL    HW165175   5.402   7.327   8.244
21112SOL    HW265176   5.457   7.264   8.370
21113SOL     OW65177   2.334   0.320   9.363
21113SOL    HW165178   2.304   0.254   9.300
21113SOL    HW265179   2.380   0.269   9.430
21114SOL     OW65180   8.210   0.814   3.972
21114SOL    HW165181   8.146   0.766   3.920
21114SOL    HW265182   8.187   0.906   3.962
21115SOL     OW65183   5.881   3.976   8.390
21115SOL    HW165184   5.906   4.066   8.371
21115SOL    HW265185   5.960   3.924   8.371
21116SOL     OW65186  14.676   8.597  12.260
21116SOL    HW165187  14.699   8.636  12.176
21116SOL    HW265188  14.633   8.515  12.237
21117SOL     OW65189   8.396   8.220   6.799
21117SOL    HW165190   8.382   8.314   6.806
21117SOL    HW265191   8.345   8.182   6.871
21118SOL     OW65192  14.428   5.975  12.997
21118SOL    HW165193  14.463   5.993  12.910
21118SOL    HW265194  14.496   5.923  13.040
21119SOL     OW65195  12.263   3.481  10.871
21119SOL    HW165196  12.217   3.412  10.918
21119SOL    HW265197  12.200   3.553  10.867
21120SOL     OW65198   3.825   0.458   4.703
21120SOL    HW165199   3.891   0.440   4.770
21120SOL    HW265200   3.865   0.427   4.622
21121SOL     OW65201  11.968   0.235   1.150
21121SOL    HW165202  11.983   0.140   1.148
21121SOL    HW265203  11.880   0.244   1.188
21122SOL     OW65204  10.259   0.263   0.809
21122SOL    HW165205  10.284   0.222   0.892
21122SOL    HW265206  10.225   0.349   0.833
21123SOL     OW65207   7.359   4.980  12.337
21123SOL    HW165208   7.350   4.918  12.410
21123SOL    HW265209   7.442   5.024  12.353
21124SOL     OW65210   3.950   1.554  12.864
21124SOL    HW165211   3.977   1.640  12.898
21124SOL    HW265212   3.855   1.560  12.858
21125SOL     OW65213   5.278  14.316   9.290
21125SOL    HW165214   5.335  14.240   9.296
21125SOL    HW265215   5.240  14.312   9.203
21126SOL     OW65216   0.007  10.154   6.141
21126SOL    HW165217   0.010  10.104   6.222
21126SOL    HW265218  14.854  10.091   6.074
21127SOL     OW65219  12.357  14.791   7.246
21127SOL    HW165220  12.292  14.729   7.280
21127SOL    HW265221  12.441  14.759   7.278
21128SOL     OW65222  14.687   2.896   9.587
21128SOL    HW165223  14.682   2.803   9.564
21128SOL    HW265224  14.773   2.906   9.629
21129SOL     OW65225   7.076  11.087   4.557
21129SOL    HW165226   7.008  11.109   4.620
21129SOL    HW265227   7.033  11.029   4.494
21130SOL     OW65228   7.256  12.175   8.567
21130SOL    HW165229   7.305  12.103   8.607
21130SOL    HW265230   7.212  12.218   8.640
21131SOL     OW65231  10.738  14.318   0.770
21131SOL    HW165232  10.774  14.330   0.682
21131SOL    HW265233  10.746  14.404   0.811
21132SOL     OW65234   6.799   8.089   3.012
21132SOL    HW165235   6.717   8.133   2.989
21132SOL    HW265236   6.839   8.144   3.079
21133SOL     OW65237   9.719   6.408   2.115
21133SOL    HW165238   9.624   6.420   2.105
21133SOL    HW265239   9.727   6.329   2.169
21134SOL     OW65240   0.619   4.285   6.713
21134SOL    HW165241   0.678   4.350   6.673
21134SOL    HW265242   0.650   4.201   6.679
21135SOL     OW65243   4.548   7.789   4.822
21135SOL    HW165244   4.469   7.816   4.776
21135SOL    HW265245   4.604   7.867   4.822
21136SOL     OW65246   4.472   9.436   7.238
21136SOL    HW165247   4.547   9.446   7.181
21136SOL    HW265248   4.408   9.386   7.187
21137SOL     OW65249   8.312   4.887   0.449
21137SOL    HW165250   8.264   4.961   0.486
21137SOL    HW265251   8.258   4.858   0.375
21138SOL     OW65252  11.132  10.632  14.138
21138SOL    HW165253  11.167  10.617  14.051
21138SOL    HW265254  11.127  10.544  14.177
21139SOL     OW65255   7.397  13.276   3.595
21139SOL    HW165256   7.320  13.332   3.597
21139SOL    HW265257   7.447  13.307   3.519
21140SOL     OW65258   2.644   6.096   7.705
21140SOL    HW165259   2.557   6.062   7.683
21140SOL    HW265260   2.704   6.023   7.687
21141SOL     OW65261   6.068   5.989  10.790
21141SOL    HW165262   6.114   5.960  10.869
21141SOL    HW265263   5.997   6.044  10.824
21142SOL     OW65264   1.911  13.579   9.917
21142SOL    HW165265   1.830  13.623   9.890
21142SOL    HW265266   1.888  13.487   9.923
21143SOL     OW65267   2.708   3.899   9.389
21143SOL    HW165268   2.753   3.817   9.370
21143SOL    HW265269   2.778   3.964   9.394
21144SOL     OW65270   1.042   9.294  13.583
21144SOL    HW165271   1.105   9.323  13.649
21144SOL    HW265272   1.096   9.268  13.508
21145SOL     OW65273  12.744   7.405   6.889
21145SOL    HW165274  12.832   7.373   6.866
21145SOL    HW265275  12.725   7.362   6.972
21146SOL     OW65276   4.028  12.406   8.141
21146SOL    HW165277   4.015  12.319   8.103
21146SOL    HW265278   4.097  12.445   8.088
21147SOL     OW65279   9.125  13.024  12.237
21147SOL    HW165280   9.142  12.935  12.206
21147SOL    HW265281   9.158  13.024  12.327
21148SOL     OW65282   2.534  12.814   8.686
21148SOL    HW165283   2.567  12.903   8.674
21148SOL    HW265284   2.468  12.822   8.755
21149SOL     OW65285   1.618  11.655   1.244
21149SOL    HW165286   1.639  11.563   1.261
21149SOL    HW265287   1.603  11.693   1.331
21150SOL     OW65288   7.641  10.103  10.320
21150SOL    HW165289   7.676  10.192  10.328
21150SOL    HW265290   7.716  10.046  10.334
21151SOL     OW65291   4.568   5.112   2.997
21151SOL    HW165292   4.472   5.103   2.998
21151SOL    HW265293   4.583   5.205   2.979
21152SOL     OW65294  10.246   0.115   1.375
21152SOL    HW165295  10.150   0.125   1.376
21152SOL    HW265296  10.261   0.034   1.326
21153SOL     OW65297   4.601   5.863  10.940
21153SOL    HW165298   4.637   5.914  11.012
21153SOL    HW265299   4.677   5.842  10.885
21154SOL     OW65300   8.804   7.561   2.828
21154SOL    HW165301   8.862   7.627   2.789
21154SOL    HW265302   8.855   7.481   2.826
21155SOL     OW65303   2.275  10.102   0.386
21155SOL    HW165304   2.364  10.069   0.373
21155SOL    HW265305   2.262  10.099   0.481
21156SOL     OW65306  14.870   8.906   7.038
21156SOL    HW165307   0.020   8.946   6.953
21156SOL    HW265308   0.079   8.909   7.088
21157SOL     OW65309   9.431   3.287  14.321
21157SOL    HW165310   9.460   3.208  14.276
21157SOL    HW265311   9.474   3.358  14.275
21158SOL     OW65312  14.697  13.164  11.690
21158SOL    HW165313  14.638  13.107  11.741
21158SOL    HW265314  14.753  13.103  11.642
21159SOL     OW65315   8.817   3.426  13.687
21159SOL    HW165316   8.849   3.340  13.660
21159SOL    HW265317   8.886   3.487  13.660
21160SOL     OW65318   7.861   9.943   5.171
21160SOL    HW165319   7.840  10.000   5.245
21160SOL    HW265320   7.806   9.975   5.099
21161SOL     OW65321  10.258   6.240  11.812
21161SOL    HW165322  10.238   6.196  11.895
21161SOL    HW265323  10.254   6.333  11.833
21162SOL     OW65324   2.753  12.481   2.297
21162SOL    HW165325   2.824  12.471   2.234
21162SOL    HW265326   2.743  12.576   2.307
21163SOL     OW65327   9.006  11.840   4.246
21163SOL    HW165328   9.083  11.829   4.191
21163SOL    HW265329   8.933  11.842   4.184
21164SOL     OW65330  11.958   0.413  10.711
21164SOL    HW165331  11.899   0.364  10.768
21164SOL    HW265332  12.013   0.347  10.670
21165SOL     OW65333   7.612   5.459   3.266
21165SOL    HW165334   7.576   5.512   3.337
21165SOL    HW265335   7.707   5.464   3.278
21166SOL     OW65336  11.386   8.776   2.686
21166SOL    HW165337  11.422   8.829   2.757
21166SOL    HW265338  11.374   8.839   2.614
21167SOL     OW65339   0.213  11.659   2.912
21167SOL    HW165340   0.186  11.733   2.858
21167SOL    HW265341   0.241  11.593   2.849
21168SOL     OW65342  14.124   8.476  14.265
21168SOL    HW165343  14.066   8.446  14.196
21168SOL    HW265344  14.204   8.502  14.220
21169SOL     OW65345   0.134   4.834  11.063
21169SOL    HW165346   0.166   4.797  11.145
21169SOL    HW265347   0.109   4.923  11.084
21170SOL     OW65348   3.636   4.449  11.843
21170SOL    HW165349   3.597   4.436  11.929
21170SOL    HW265350   3.568   4.421  11.781
21171SOL     OW65351   3.339   7.288   5.060
21171SOL    HW165352   3.281   7.353   5.099
21171SOL    HW265353   3.289   7.207   5.060
21172SOL     OW65354   4.361  12.331   5.632
21172SOL    HW165355   4.272  12.361   5.612
21172SOL    HW265356   4.418  12.390   5.582
21173SOL     OW65357  13.075   4.445   5.578
21173SOL    HW165358  13.072   4.352   5.554
21173SOL    HW265359  12.998   4.459   5.633
21174SOL     OW65360   5.835   0.524  11.433
21174SOL    HW165361   5.892   0.596  11.461
21174SOL    HW265362   5.857   0.511  11.341
21175SOL     OW65363  12.716   1.949   1.457
21175SOL    HW165364  12.811   1.962   1.449
21175SOL    HW265365  12.698   1.871   1.404
21176SOL     OW65366   1.872   1.874   1.895
21176SOL    HW165367   1.873   1.895   1.802
21176SOL    HW265368   1.857   1.779   1.898
21177SOL     OW65369   6.245  12.711   3.698
21177SOL    HW165370   6.289  12.684   3.778
21177SOL    HW265371   6.182  12.640   3.681
21178SOL     OW65372  14.241   3.187   4.073
21178SOL    HW165373  14.303   3.114   4.082
21178SOL    HW265374  14.158   3.153   4.106
21179SOL     OW65375  14.762   7.080   6.627
21179SOL    HW165376  14.831   7.133   6.587
21179SOL    HW265377  14.758   7.001   6.574
21180SOL     OW65378   8.480   6.448  10.137
21180SOL    HW165379   8.422   6.498  10.195
21180SOL    HW265380   8.442   6.361  10.135
21181SOL     OW65381   7.961   4.347   5.780
21181SOL    HW165382   7.925   4.347   5.868
21181SOL    HW265383   8.042   4.397   5.787
21182SOL     OW65384  12.169   3.096  13.906
21182SOL    HW165385  12.261   3.120  13.910
21182SOL    HW265386  12.139   3.128  13.821
21183SOL     OW65387   2.503   2.769   6.532
21183SOL    HW165388   2.551   2.687   6.520
21183SOL    HW265389   2.484   2.799   6.443
21184SOL     OW65390   8.497   1.685  12.944
21184SOL    HW165391   8.563   1.660  13.009
21184SOL    HW265392   8.443   1.607  12.933
21185SOL     OW65393  12.505   7.012  11.289
21185SOL    HW165394  12.528   6.919  11.296
21185SOL    HW265395  12.410   7.014  11.298
21186SOL     OW65396   7.739   6.230   2.887
21186SOL    HW165397   7.657   6.239   2.935
21186SOL    HW265398   7.783   6.314   2.899
21187SOL     OW65399   6.889  11.175   4.746
21187SOL    HW165400   6.878  11.089   4.785
21187SOL    HW265401   6.801  11.213   4.747
21188SOL     OW65402  12.889  11.160  11.046
21188SOL    HW165403  12.861  11.244  11.009
21188SOL    HW265404  12.918  11.109  10.970
21189SOL     OW65405  10.224  11.140   3.511
21189SOL    HW165406  10.146  11.180   3.550
21189SOL    HW265407  10.296  11.193   3.545
21190SOL     OW65408  13.856  13.266   0.078
21190SOL    HW165409  13.876  13.253   0.170
21190SOL    HW265410  13.843  13.360   0.069
21191SOL     OW65411  14.033  12.823  10.933
21191SOL    HW165412  14.043  12.822  10.837
21191SOL    HW265413  14.008  12.734  10.955
21192SOL     OW65414  10.725   5.311   3.429
21192SOL    HW165415  10.744   5.261   3.509
21192SOL    HW265416  10.805   5.302   3.376
21193SOL     OW65417   8.371   0.198   3.097
21193SOL    HW165418   8.462   0.225   3.113
21193SOL    HW265419   8.328   0.207   3.183
21194SOL     OW65420   9.713   5.042  13.405
21194SOL    HW165421   9.661   4.969  13.441
21194SOL    HW265422   9.731   5.098  13.481
21195SOL     OW65423   1.261   0.899   5.645
21195SOL    HW165424   1.214   0.958   5.585
21195SOL    HW265425   1.239   0.811   5.614
21196SOL     OW65426   4.214   4.710  11.858
21196SOL    HW165427   4.174   4.640  11.805
21196SOL    HW265428   4.236   4.778  11.794
21197SOL     OW65429  11.093   7.504   3.388
21197SOL    HW165430  11.078   7.489   3.295
21197SOL    HW265431  11.167   7.565   3.391
21198SOL     OW65432   2.083   1.830   4.089
21198SOL    HW165433   2.060   1.921   4.072
21198SOL    HW265434   2.033   1.780   4.024
21199SOL     OW65435   4.303  11.241   8.503
21199SOL    HW165436   4.245  11.180   8.550
21199SOL    HW265437   4.378  11.252   8.562
21200SOL     OW65438  12.867   2.394  11.754
21200SOL    HW165439  12.893   2.416  11.844
21200SOL    HW265440  12.945   2.354  11.716
21201SOL     OW65441   9.142   0.489   5.592
21201SOL    HW165442   9.125   0.527   5.678
21201SOL    HW265443   9.062   0.506   5.541
21202SOL     OW65444   5.356   5.542   1.579
21202SOL    HW165445   5.334   5.481   1.649
21202SOL    HW265446   5.418   5.495   1.524
21203SOL     OW65447   8.472   4.096  12.837
21203SOL    HW165448   8.422   4.115  12.758
21203SOL    HW265449   8.458   4.002  12.852
21204SOL     OW65450   2.809  13.350   7.253
21204SOL    HW165451   2.866  13.427   7.253
21204SOL    HW265452   2.784  13.339   7.345
21205SOL     OW65453   3.325   2.898  13.588
21205SOL    HW165454   3.330   2.852  13.672
21205SOL    HW265455   3.242   2.870  13.550
21206SOL     OW65456   2.360   6.367  13.101
21206SOL    HW165457   2.289   6.357  13.165
21206SOL    HW265458   2.360   6.461  13.080
21207SOL     OW65459  10.909   6.975  13.405
21207SOL    HW165460  10.996   7.015  13.411
21207SOL    HW265461  10.926   6.881  13.416
21208SOL     OW65462  10.819  13.773   0.865
21208SOL    HW165463  10.825  13.806   0.955
21208SOL    HW265464  10.776  13.844   0.817
21209SOL     OW65465  11.539  11.787   8.834
21209SOL    HW165466  11.474  11.825   8.893
21209SOL    HW265467  11.611  11.762   8.892
21210SOL     OW65468   4.709  10.429   3.420
21210SOL    HW165469   4.635  10.412   3.479
21210SOL    HW265470   4.672  10.486   3.352
21211SOL     OW65471  14.365   0.345   3.555
21211SOL    HW165472  14.286   0.392   3.581
21211SOL    HW265473  14.434   0.382   3.610
21212SOL     OW65474   5.993   2.475   6.773
21212SOL    HW165475   5.999   2.404   6.837
21212SOL    HW265476   5.900   2.496   6.768
21213SOL     OW65477   6.852   4.542  11.712
21213SOL    HW165478   6.807   4.616  11.672
21213SOL    HW265479   6.933   4.533  11.661
21214SOL     OW65480   4.934   2.551   3.449
21214SOL    HW165481   4.953   2.463   3.481
21214SOL    HW265482   4.880   2.591   3.518
21215SOL     OW65483   4.871  11.410  14.365
21215SOL    HW165484   4.933  11.479  14.392
21215SOL    HW265485   4.867  11.351  14.441
21216SOL     OW65486  11.836   9.036   7.356
21216SOL    HW165487  11.925   9.069   7.344
21216SOL    HW265488  11.833   8.956   7.304
21217SOL     OW65489   9.990  13.732   5.062
21217SOL    HW165490   9.983  13.687   4.977
21217SOL    HW265491   9.992  13.825   5.039
21218SOL     OW65492   4.103   9.482   0.930
21218SOL    HW165493   4.100   9.498   1.024
21218SOL    HW265494   4.107   9.387   0.922
21219SOL     OW65495   2.717   9.111   7.314
21219SOL    HW165496   2.788   9.157   7.269
21219SOL    HW265497   2.760   9.068   7.388
21220SOL     OW65498  14.634  12.795   6.140
21220SOL    HW165499  14.606  12.804   6.048
21220SOL    HW265500  14.659  12.704   6.148
21221SOL     OW65501   4.190   1.376   9.062
21221SOL    HW165502   4.176   1.284   9.039
21221SOL    HW265503   4.234   1.373   9.146
21222SOL     OW65504   5.366   6.840   2.045
21222SOL    HW165505   5.271   6.831   2.053
21222SOL    HW265506   5.381   6.935   2.046
21223SOL     OW65507   3.413   5.548   7.525
21223SOL    HW165508   3.480   5.616   7.529
21223SOL    HW265509   3.403   5.531   7.431
21224SOL     OW65510   7.083  14.659   4.840
21224SOL    HW165511   7.163  14.618   4.806
21224SOL    HW265512   7.110  14.696   4.925
21225SOL     OW65513   3.816  13.772   7.097
21225SOL    HW165514   3.789  13.713   7.167
21225SOL    HW265515   3.735  13.815   7.070
21226SOL     OW65516   3.138   3.727   1.738
21226SOL    HW165517   3.177   3.640   1.737
21226SOL    HW265518   3.044   3.711   1.744
21227SOL     OW65519  10.040  13.707   8.947
21227SOL    HW165520  10.074  13.777   8.891
21227SOL    HW265521   9.995  13.753   9.018
21228SOL     OW65522  11.994   7.760   9.468
21228SOL    HW165523  12.064   7.715   9.419
21228SOL    HW265524  11.944   7.806   9.401
21229SOL     OW65525  14.007   0.174   6.226
21229SOL    HW165526  13.965   0.089   6.212
21229SOL    HW265527  14.100   0.157   6.217
21230SOL     OW65528   4.538   5.772   4.088
21230SOL    HW165529   4.622   5.751   4.047
21230SOL    HW265530   4.560   5.832   4.159
21231SOL     OW65531   9.934  11.661   1.882
21231SOL    HW165532   9.907  11.616   1.963
21231SOL    HW265533   9.969  11.592   1.827
21232SOL     OW65534   5.979  14.720   5.048
21232SOL    HW165535   6.003  14.668   4.972
21232SOL    HW265536   5.994  14.662   5.123
21233SOL     OW65537  12.430  12.647   6.899
21233SOL    HW165538  12.482  12.622   6.975
21233SOL    HW265539  12.349  12.596   6.908
21234SOL     OW65540   4.671  10.450   0.777
21234SOL    HW165541   4.754  10.477   0.816
21234SOL    HW265542   4.659  10.360   0.806
21235SOL     OW65543   5.137  10.392  12.154
21235SOL    HW165544   5.198  10.459  12.183
21235SOL    HW265545   5.127  10.408  12.060
21236SOL     OW65546  12.991  10.430   4.435
21236SOL    HW165547  12.970  10.497   4.501
21236SOL    HW265548  13.058  10.376   4.477
21237SOL     OW65549   2.822   1.089   0.457
21237SOL    HW165550   2.905   1.048   0.434
21237SOL    HW265551   2.757   1.021   0.440
21238SOL     OW65552  13.341  10.095   0.334
21238SOL    HW165553  13.414  10.035   0.348
21238SOL    HW265554  13.266  10.051   0.373
21239SOL     OW65555   0.245  14.080   3.874
21239SOL    HW165556   0.154  14.074   3.846
21239SOL    HW265557   0.294  14.097   3.794
21240SOL     OW65558   1.537   5.508  11.370
21240SOL    HW165559   1.544   5.590  11.321
21240SOL    HW265560   1.533   5.535  11.462
21241SOL     OW65561  13.042  10.028   9.666
21241SOL    HW165562  12.961  10.073   9.640
21241SOL    HW265563  13.108  10.061   9.605
21242SOL     OW65564   9.156   7.173  11.962
21242SOL    HW165565   9.120   7.251  12.006
21242SOL    HW265566   9.080   7.119  11.942
21243SOL     OW65567  14.361   9.121  14.669
21243SOL    HW165568  14.359   9.123  14.765
21243SOL    HW265569  14.276   9.084  14.644
21244SOL     OW65570   3.978  11.382  12.150
21244SOL    HW165571   3.900  11.434  12.133
21244SOL    HW265572   3.961  11.338  12.233
21245SOL     OW65573   3.649   4.787  12.550
21245SOL    HW165574   3.591   4.831  12.487
21245SOL    HW265575   3.719   4.750  12.496
21246SOL     OW65576  13.135  12.917   5.435
21246SOL    HW165577  13.092  12.975   5.499
21246SOL    HW265578  13.103  12.830   5.457
21247SOL     OW65579   4.620  13.577  11.496
21247SOL    HW165580   4.633  13.668  11.522
21247SOL    HW265581   4.569  13.538  11.567
21248SOL     OW65582   5.954   0.697   8.800
21248SOL    HW165583   5.941   0.611   8.761
21248SOL    HW265584   5.968   0.680   8.893
21249SOL     OW65585  12.865   8.628   3.339
21249SOL    HW165586  12.800   8.558   3.333
21249SOL    HW265587  12.942   8.586   3.376
21250SOL     OW65588   9.296   6.202   3.951
21250SOL    HW165589   9.338   6.191   3.866
21250SOL    HW265590   9.260   6.291   3.948
21251SOL     OW65591   5.611   6.421   3.204
21251SOL    HW165592   5.592   6.357   3.136
21251SOL    HW265593   5.705   6.434   3.201
21252SOL     OW65594   6.368   4.951  12.548
21252SOL    HW165595   6.335   4.942  12.637
21252SOL    HW265596   6.451   4.998  12.557
21253SOL     OW65597  12.290   4.301   9.145
21253SOL    HW165598  12.218   4.342   9.192
21253SOL    HW265599  12.344   4.260   9.212
21254SOL     OW65600  13.710   7.641   3.221
21254SOL    HW165601  13.773   7.698   3.176
21254SOL    HW265602  13.764   7.579   3.270
21255SOL     OW65603   8.876  14.573   6.802
21255SOL    HW165604   8.837  14.554   6.717
21255SOL    HW265605   8.967  14.596   6.782
21256SOL     OW65606  13.758  10.227   0.004
21256SOL    HW165607  13.762  10.322   0.003
21256SOL    HW265608  13.728  10.206   0.093
21257SOL     OW65609   0.551   8.674  14.050
21257SOL    HW165610   0.558   8.761  14.011
21257SOL    HW265611   0.611   8.677  14.125
21258SOL     OW65612  10.345  13.684   5.002
21258SOL    HW165613  10.281  13.650   5.065
21258SOL    HW265614  10.415  13.620   5.002
21259SOL     OW65615   7.121   9.992   7.453
21259SOL    HW165616   7.026   9.993   7.464
21259SOL    HW265617   7.149   9.908   7.489
21260SOL     OW65618   2.168  11.834  10.616
21260SOL    HW165619   2.252  11.826  10.662
21260SOL    HW265620   2.137  11.922  10.638
21261SOL     OW65621  12.209  10.938   7.955
21261SOL    HW165622  12.228  10.887   8.034
21261SOL    HW265623  12.123  10.907   7.927
21262SOL     OW65624  13.708   6.340   1.692
21262SOL    HW165625  13.719   6.309   1.782
21262SOL    HW265626  13.730   6.264   1.638
21263SOL     OW65627   4.320   8.674   1.824
21263SOL    HW165628   4.261   8.661   1.898
21263SOL    HW265629   4.293   8.759   1.787
21264SOL     OW65630   1.131   0.069  11.500
21264SOL    HW165631   1.190   0.021  11.443
21264SOL    HW265632   1.104   0.145  11.448
21265SOL     OW65633  13.162   0.086   7.553
21265SOL    HW165634  13.241   0.085   7.499
21265SOL    HW265635  13.191   0.122   7.637
21266SOL     OW65636  11.753   0.979   0.251
21266SOL    HW165637  11.813   0.910   0.222
21266SOL    HW265638  11.806   1.058   0.252
21267SOL     OW65639  10.085  11.079  14.232
21267SOL    HW165640  10.028  11.043  14.299
21267SOL    HW265641  10.096  11.008  14.169
21268SOL     OW65642   1.888  14.627  14.335
21268SOL    HW165643   1.982  14.616  14.320
21268SOL    HW265644   1.861  14.546  14.377
21269SOL     OW65645   5.009   4.546  14.185
21269SOL    HW165646   5.067   4.562  14.260
21269SOL    HW265647   4.922   4.569  14.217
21270SOL     OW65648  11.900   4.529   8.968
21270SOL    HW165649  11.815   4.534   8.925
21270SOL    HW265650  11.892   4.457   9.031
21271SOL     OW65651  11.564   0.020   1.785
21271SOL    HW165652  11.587  14.845   1.865
21271SOL    HW265653  11.484   0.067   1.807
21272SOL     OW65654  10.660   8.742  13.953
21272SOL    HW165655  10.678   8.757  14.046
21272SOL    HW265656  10.731   8.687  13.922
21273SOL     OW65657   2.349  12.495  10.971
21273SOL    HW165658   2.432  12.457  10.999
21273SOL    HW265659   2.357  12.503  10.876
21274SOL     OW65660   6.248   0.538  13.975
21274SOL    HW165661   6.310   0.520  13.905
21274SOL    HW265662   6.178   0.588  13.933
21275SOL     OW65663  14.534  14.541   6.730
21275SOL    HW165664  14.623  14.567   6.753
21275SOL    HW265665  14.493  14.520   6.814
21276SOL     OW65666   7.012  12.590   6.851
21276SOL    HW165667   6.965  12.507   6.853
21276SOL    HW265668   6.999  12.624   6.763
21277SOL     OW65669  13.623   0.370   3.511
21277SOL    HW165670  13.681   0.405   3.444
21277SOL    HW265671  13.649   0.416   3.591
21278SOL     OW65672   1.262   5.154   4.658
21278SOL    HW165673   1.225   5.068   4.638
21278SOL    HW265674   1.186   5.211   4.670
21279SOL     OW65675   4.498  10.478  13.434
21279SOL    HW165676   4.512  10.568  13.406
21279SOL    HW265677   4.457  10.435  13.359
21280SOL     OW65678   6.922   0.443   5.279
21280SOL    HW165679   6.910   0.523   5.226
21280SOL    HW265680   6.892   0.468   5.366
21281SOL     OW65681  14.061   1.679  11.384
21281SOL    HW165682  14.069   1.716  11.297
21281SOL    HW265683  14.127   1.610  11.387
21282SOL     OW65684   8.185   7.751  12.152
21282SOL    HW165685   8.120   7.808  12.193
21282SOL    HW265686   8.137   7.672  12.130
21283SOL     OW65687  13.506  10.286   0.528
21283SOL    HW165688  13.488  10.374   0.495
21283SOL    HW265689  13.420  10.245   0.536
21284SOL     OW65690  11.122  14.080   9.195
21284SOL    HW165691  11.039  14.125   9.210
21284SOL    HW265692  11.097  13.993   9.163
21285SOL     OW65693   1.718   6.307  13.039
21285SOL    HW165694   1.723   6.313  13.134
21285SOL    HW265695   1.787   6.245  13.015
21286SOL     OW65696  12.728   8.355   7.369
21286SOL    HW165697  12.674   8.387   7.441
21286SOL    HW265698  12.671   8.295   7.321
21287SOL     OW65699   1.902  11.210  10.072
21287SOL    HW165700   1.886  11.298  10.036
21287SOL    HW265701   1.945  11.163  10.001
21288SOL     OW65702   4.928  14.558   1.869
21288SOL    HW165703   4.966  14.556   1.781
21288SOL    HW265704   4.853  14.500   1.865
21289SOL     OW65705  10.966  10.978   1.023
21289SOL    HW165706  10.949  10.967   0.929
21289SOL    HW265707  10.906  11.049   1.049
21290SOL     OW65708   6.374  14.776  14.227
21290SOL    HW165709   6.339  14.821  14.150
21290SOL    HW265710   6.464  14.754  14.203
21291SOL     OW65711   6.159   2.795  14.130
21291SOL    HW165712   6.227   2.761  14.072
21291SOL    HW265713   6.193   2.779  14.218
21292SOL     OW65714  10.132   6.642  12.218
21292SOL    HW165715  10.111   6.688  12.299
21292SOL    HW265716  10.048   6.633  12.172
21293SOL     OW65717   7.276  10.255   7.502
21293SOL    HW165718   7.239  10.177   7.460
21293SOL    HW265719   7.370  10.239   7.502
21294SOL     OW65720   2.365  13.725   8.587
21294SOL    HW165721   2.302  13.738   8.658
21294SOL    HW265722   2.408  13.810   8.577
21295SOL     OW65723   2.624   6.093   2.119
21295SOL    HW165724   2.558   6.146   2.164
21295SOL    HW265725   2.582   6.067   2.037
21296SOL     OW65726  11.286   3.167   5.219
21296SOL    HW165727  11.298   3.161   5.313
21296SOL    HW265728  11.199   3.130   5.202
21297SOL     OW65729   4.632   3.563   5.239
21297SOL    HW165730   4.545   3.550   5.200
21297SOL    HW265731   4.683   3.488   5.208
21298SOL     OW65732   6.194   8.384   3.961
21298SOL    HW165733   6.273   8.357   4.008
21298SOL    HW265734   6.224   8.455   3.905
21299SOL     OW65735   4.926  14.343   0.812
21299SOL    HW165736   4.941  14.433   0.842
21299SOL    HW265737   4.951  14.344   0.720
21300SOL     OW65738   7.768   9.290   7.487
21300SOL    HW165739   7.745   9.204   7.453
21300SOL    HW265740   7.831   9.325   7.423
21301SOL     OW65741  13.534   2.060  10.754
21301SOL    HW165742  13.457   2.118  10.757
21301SOL    HW265743  13.608   2.119  10.766
21302SOL     OW65744   2.595  14.773  14.269
21302SOL    HW165745   2.665  14.827  14.307
21302SOL    HW265746   2.524  14.778  14.333
21303SOL     OW65747   8.051  14.766   8.730
21303SOL    HW165748   8.105  14.839   8.758
21303SOL    HW265749   8.113  14.702   8.695
21304SOL     OW65750  10.323  12.870   0.676
21304SOL    HW165751  10.298  12.941   0.616
21304SOL    HW265752  10.241  12.844   0.718
21305SOL     OW65753   5.369  11.414   2.570
21305SOL    HW165754   5.382  11.364   2.651
21305SOL    HW265755   5.304  11.480   2.592
21306SOL     OW65756   8.324  10.598  11.290
21306SOL    HW165757   8.274  10.603  11.371
21306SOL    HW265758   8.280  10.658  11.230
21307SOL     OW65759  11.834  11.734   7.963
21307SOL    HW165760  11.800  11.690   7.885
21307SOL    HW265761  11.817  11.673   8.034
21308SOL     OW65762   6.465   1.792   8.977
21308SOL    HW165763   6.499   1.752   8.896
21308SOL    HW265764   6.384   1.835   8.950
21309SOL     OW65765  12.803   7.370  10.298
21309SOL    HW165766  12.878   7.358  10.355
21309SOL    HW265767  12.830   7.438  10.236
21310SOL     OW65768   9.927  13.154   9.645
21310SOL    HW165769   9.951  13.125   9.734
21310SOL    HW265770  10.011  13.174   9.604
21311SOL     OW65771   7.293   9.788  12.467
21311SOL    HW165772   7.378   9.785  12.423
21311SOL    HW265773   7.241   9.720  12.423
21312SOL     OW65774   0.492  14.382   5.390
21312SOL    HW165775   0.553  14.327   5.439
21312SOL    HW265776   0.444  14.430   5.458
21313SOL     OW65777  14.625  12.596  12.983
21313SOL    HW165778  14.686  12.602  13.057
21313SOL    HW265779  14.679  12.611  12.906
21314SOL     OW65780   7.279   5.911   4.024
21314SOL    HW165781   7.235   5.921   3.940
21314SOL    HW265782   7.314   5.822   4.022
21315SOL     OW65783   2.906   1.871   6.983
21315SOL    HW165784   2.882   1.961   7.007
21315SOL    HW265785   2.852   1.851   6.906
21316SOL     OW65786  12.808   3.857   8.748
21316SOL    HW165787  12.900   3.877   8.736
21316SOL    HW265788  12.784   3.903   8.829
21317SOL     OW65789   8.929  14.835   2.186
21317SOL    HW165790   8.930  14.798   2.274
21317SOL    HW265791   8.928  14.759   2.128
21318SOL     OW65792   7.275  11.296   0.259
21318SOL    HW165793   7.335  11.317   0.187
21318SOL    HW265794   7.252  11.204   0.244
21319SOL     OW65795  11.868   7.101   7.223
21319SOL    HW165796  11.801   7.075   7.160
21319SOL    HW265797  11.861   7.196   7.228
21320SOL     OW65798   9.463   9.205   9.666
21320SOL    HW165799   9.440   9.122   9.709
21320SOL    HW265800   9.532   9.241   9.721
21321SOL     OW65801  14.281   5.071   3.146
21321SOL    HW165802  14.319   5.068   3.058
21321SOL    HW265803  14.308   4.989   3.187
21322SOL     OW65804   7.558   8.483   2.313
21322SOL    HW165805   7.541   8.455   2.403
21322SOL    HW265806   7.642   8.443   2.291
21323SOL     OW65807   9.265  10.691   6.804
21323SOL    HW165808   9.236  10.708   6.894
21323SOL    HW265809   9.333  10.624   6.813
21324SOL     OW65810  12.491  13.331   6.503
21324SOL    HW165811  12.434  13.408   6.504
21324SOL    HW265812  12.432  13.257   6.504
21325SOL     OW65813  10.769   2.973   5.009
21325SOL    HW165814  10.690   2.964   5.063
21325SOL    HW265815  10.840   2.949   5.068
21326SOL     OW65816   5.999   6.100   9.506
21326SOL    HW165817   6.016   6.178   9.453
21326SOL    HW265818   5.905   6.084   9.495
21327SOL     OW65819  10.264   7.071   3.784
21327SOL    HW165820  10.316   7.031   3.853
21327SOL    HW265821  10.197   7.006   3.763
21328SOL     OW65822  13.622   8.554  12.136
21328SOL    HW165823  13.653   8.643  12.153
21328SOL    HW265824  13.680   8.498  12.188
21329SOL     OW65825  12.243   2.276   0.213
21329SOL    HW165826  12.194   2.293   0.293
21329SOL    HW265827  12.311   2.344   0.212
21330SOL     OW65828   0.912  11.341  12.112
21330SOL    HW165829   0.960  11.423  12.095
21330SOL    HW265830   0.906  11.299  12.026
21331SOL     OW65831   0.367  10.937   3.094
21331SOL    HW165832   0.296  10.873   3.099
21331SOL    HW265833   0.334  11.006   3.037
21332SOL     OW65834   6.208   7.530   7.905
21332SOL    HW165835   6.221   7.617   7.942
21332SOL    HW265836   6.247   7.534   7.818
21333SOL     OW65837   0.763   2.070  13.236
21333SOL    HW165838   0.787   2.119  13.315
21333SOL    HW265839   0.707   2.130  13.187
21334SOL     OW65840   6.487   2.460  12.521
21334SOL    HW165841   6.446   2.545  12.534
21334SOL    HW265842   6.556   2.456  12.587
21335SOL     OW65843   7.173   9.441  10.483
21335SOL    HW165844   7.229   9.408  10.412
21335SOL    HW265845   7.198   9.388  10.559
21336SOL     OW65846  10.625   2.542  14.487
21336SOL    HW165847  10.555   2.526  14.423
21336SOL    HW265848  10.600   2.624  14.529
21337SOL     OW65849  11.867   6.678   4.752
21337SOL    HW165850  11.897   6.623   4.680
21337SOL    HW265851  11.827   6.617   4.814
21338SOL     OW65852  14.264   9.637   9.161
21338SOL    HW165853  14.332   9.571   9.175
21338SOL    HW265854  14.302   9.718   9.196
21339SOL     OW65855   1.925  11.858   8.619
21339SOL    HW165856   1.985  11.794   8.581
21339SOL    HW265857   1.918  11.832   8.711
21340SOL     OW65858   5.003   9.534  10.489
21340SOL    HW165859   5.098   9.547  10.494
21340SOL    HW265860   4.971   9.564  10.574
21341SOL     OW65861   9.727   8.771   0.424
21341SOL    HW165862   9.748   8.864   0.432
21341SOL    HW265863   9.713   8.741   0.514
21342SOL     OW65864  13.158   7.593  12.475
21342SOL    HW165865  13.105   7.641  12.539
21342SOL    HW265866  13.226   7.656  12.450
21343SOL     OW65867   5.580   1.028   5.320
21343SOL    HW165868   5.490   1.045   5.294
21343SOL    HW265869   5.618   0.981   5.246
21344SOL     OW65870  14.198   6.401   5.318
21344SOL    HW165871  14.163   6.490   5.322
21344SOL    HW265872  14.259   6.395   5.392
21345SOL     OW65873  14.842  10.797  13.045
21345SOL    HW165874  14.838  10.843  12.961
21345SOL    HW265875   0.011  10.714  13.025
21346SOL     OW65876   4.505   1.917   4.125
21346SOL    HW165877   4.437   1.899   4.190
21346SOL    HW265878   4.561   1.982   4.167
21347SOL     OW65879   7.752  11.129  11.065
21347SOL    HW165880   7.746  11.223  11.050
21347SOL    HW265881   7.838  11.116  11.106
21348SOL     OW65882   4.835   0.202  12.359
21348SOL    HW165883   4.776   0.245  12.297
21348SOL    HW265884   4.922   0.238  12.337
21349SOL     OW65885  14.596   1.553  13.953
21349SOL    HW165886  14.633   1.513  14.031
21349SOL    HW265887  14.666   1.611  13.920
21350SOL     OW65888   2.841  13.960   3.566
21350SOL    HW165889   2.855  13.867   3.581
21350SOL    HW265890   2.757  13.964   3.520
21351SOL     OW65891  13.298   7.914   8.614
21351SOL    HW165892  13.257   7.979   8.671
21351SOL    HW265893  13.298   7.955   8.527
21352SOL     OW65894  12.233   5.522  11.204
21352SOL    HW165895  12.311   5.466  11.213
21352SOL    HW265896  12.250   5.596  11.263
21353SOL     OW65897   2.911   5.087   9.755
21353SOL    HW165898   2.955   5.087   9.670
21353SOL    HW265899   2.836   5.145   9.743
21354SOL     OW65900   9.769  12.120   7.583
21354SOL    HW165901   9.775  12.191   7.519
21354SOL    HW265902   9.839  12.060   7.559
21355SOL     OW65903   3.434  10.282  12.001
21355SOL    HW165904   3.367  10.240  12.056
21355SOL    HW265905   3.466  10.355  12.054
21356SOL     OW65906   9.364   1.155   0.715
21356SOL    HW165907   9.338   1.247   0.711
21356SOL    HW265908   9.457   1.156   0.736
21357SOL     OW65909   4.454   9.718   0.060
21357SOL    HW165910   4.484   9.639   0.016
21357SOL    HW265911   4.495   9.790   0.011
21358SOL     OW65912  14.008  10.672  12.232
21358SOL    HW165913  14.050  10.742  12.283
21358SOL    HW265914  14.024  10.697  12.141
21359SOL     OW65915   4.372   4.917   6.750
21359SOL    HW165916   4.279   4.895   6.750
21359SOL    HW265917   4.398   4.913   6.842
21360SOL     OW65918  12.204  11.678   4.028
21360SOL    HW165919  12.227  11.757   3.980
21360SOL    HW265920  12.161  11.622   3.964
21361SOL     OW65921   2.295   1.936   2.471
21361SOL    HW165922   2.374   1.989   2.467
21361SOL    HW265923   2.237   1.973   2.405
21362SOL     OW65924   8.523   8.168  11.947
21362SOL    HW165925   8.543   8.111  12.022
21362SOL    HW265926   8.567   8.126  11.873
21363SOL     OW65927  10.007   6.360   4.456
21363SOL    HW165928  10.094   6.395   4.437
21363SOL    HW265929  10.018   6.309   4.536
21364SOL     OW65930   3.893  11.813   4.622
21364SOL    HW165931   3.823  11.845   4.565
21364SOL    HW265932   3.884  11.863   4.703
21365SOL     OW65933   0.661   4.571  13.968
21365SOL    HW165934   0.684   4.648  14.020
21365SOL    HW265935   0.588   4.531  14.014
21366SOL     OW65936   6.677  13.353   9.998
21366SOL    HW165937   6.748  13.405   9.961
21366SOL    HW265938   6.603  13.366   9.938
21367SOL     OW65939  12.612   5.735   9.175
21367SOL    HW165940  12.539   5.703   9.229
21367SOL    HW265941  12.594   5.700   9.088
21368SOL     OW65942  12.343   1.071  10.731
21368SOL    HW165943  12.333   0.985  10.771
21368SOL    HW265944  12.436   1.090  10.737
21369SOL     OW65945  11.802  14.857   9.224
21369SOL    HW165946  11.848   0.024   9.150
21369SOL    HW265947  11.735   0.048   9.247
21370SOL     OW65948   4.355  10.987  13.358
21370SOL    HW165949   4.323  10.990  13.268
21370SOL    HW265950   4.284  11.026  13.409
21371SOL     OW65951   1.159  11.519   0.224
21371SOL    HW165952   1.078  11.561   0.253
21371SOL    HW265953   1.226  11.587   0.236
21372SOL     OW65954   2.709  14.746   8.673
21372SOL    HW165955   2.646  14.676   8.657
21372SOL    HW265956   2.668  14.824   8.635
21373SOL     OW65957   0.885   1.667   0.614
21373SOL    HW165958   0.865   1.576   0.635
21373SOL    HW265959   0.858   1.677   0.522
21374SOL     OW65960   9.925   8.716  12.707
21374SOL    HW165961   9.914   8.792  12.650
21374SOL    HW265962   9.995   8.665  12.667
21375SOL     OW65963  12.294   1.619   8.526
21375SOL    HW165964  12.218   1.587   8.476
21375SOL    HW265965  12.288   1.715   8.518
21376SOL     OW65966   3.197  13.838   8.008
21376SOL    HW165967   3.285  13.876   7.999
21376SOL    HW265968   3.152  13.862   7.927
21377SOL     OW65969   0.189  13.979   2.109
21377SOL    HW165970   0.108  13.929   2.099
21377SOL    HW265971   0.255  13.928   2.062
21378SOL     OW65972   9.909  14.473   7.752
21378SOL    HW165973   9.949  14.522   7.680
21378SOL    HW265974   9.974  14.476   7.822
21379SOL     OW65975   0.150   4.589   7.247
21379SOL    HW165976   0.112   4.626   7.167
21379SOL    HW265977   0.075   4.557   7.297
21380SOL     OW65978   3.832  13.430   5.605
21380SOL    HW165979   3.834  13.526   5.601
21380SOL    HW265980   3.918  13.406   5.640
21381SOL     OW65981  11.437  10.102   5.692
21381SOL    HW165982  11.350  10.140   5.681
21381SOL    HW265983  11.476  10.106   5.605
21382SOL     OW65984   3.678   7.074  13.031
21382SOL    HW165985   3.700   7.030  13.113
21382SOL    HW265986   3.622   7.147  13.058
21383SOL     OW65987   0.062   0.529  14.266
21383SOL    HW165988   0.069   0.622  14.246
21383SOL    HW265989   0.023   0.525  14.353
21384SOL     OW65990   5.511   5.337   5.332
21384SOL    HW165991   5.476   5.348   5.244
21384SOL    HW265992   5.444   5.374   5.389
21385SOL     OW65993  14.838  11.325   7.405
21385SOL    HW165994   0.029  11.267   7.365
21385SOL    HW265995   0.013  11.407   7.421
21386SOL     OW65996  12.322   6.253  10.917
21386SOL    HW165997  12.278   6.337  10.926
21386SOL    HW265998  12.392   6.269  10.854
21387SOL     OW65999   7.412   2.914   2.703
21387SOL    HW166000   7.379   2.848   2.764
21387SOL    HW266001   7.353   2.909   2.628
21388SOL     OW66002  14.150  12.890   5.889
21388SOL    HW166003  14.130  12.979   5.920
21388SOL    HW266004  14.220  12.860   5.946
21389SOL     OW66005   8.723  14.495  14.380
21389SOL    HW166006   8.712  14.402  14.399
21389SOL    HW266007   8.769  14.498  14.296
21390SOL     OW66008   6.646   7.362   3.096
21390SOL    HW166009   6.612   7.447   3.069
21390SOL    HW266010   6.571   7.303   3.091
21391SOL     OW66011   9.299   3.577  10.243
21391SOL    HW166012   9.331   3.540  10.161
21391SOL    HW266013   9.220   3.527  10.263
21392SOL     OW66014  13.718   7.411  10.955
21392SOL    HW166015  13.723   7.429  11.049
21392SOL    HW266016  13.796   7.454  10.919
21393SOL     OW66017   5.832   7.457  10.774
21393SOL    HW166018   5.903   7.394  10.765
21393SOL    HW266019   5.852   7.525  10.710
21394SOL     OW66020  12.692   1.771  14.683
21394SOL    HW166021  12.700   1.727  14.599
21394SOL    HW266022  12.761   1.838  14.683
21395SOL     OW66023   0.087  13.075   9.903
21395SOL    HW166024   0.104  13.090   9.996
21395SOL    HW266025   0.167  13.032   9.871
21396SOL     OW66026  11.353   9.955   8.830
21396SOL    HW166027  11.349   9.943   8.735
21396SOL    HW266028  11.304  10.036   8.846
21397SOL     OW66029   2.596   6.961  13.462
21397SOL    HW166030   2.554   7.035  13.419
21397SOL    HW266031   2.662   7.001  13.519
21398SOL     OW66032   4.802   4.123   7.193
21398SOL    HW166033   4.825   4.032   7.174
21398SOL    HW266034   4.870   4.153   7.254
21399SOL     OW66035   7.384  11.943  11.691
21399SOL    HW166036   7.389  11.898  11.607
21399SOL    HW266037   7.380  12.036  11.669
21400SOL     OW66038   7.762   4.636   4.488
21400SOL    HW166039   7.843   4.660   4.533
21400SOL    HW266040   7.699   4.704   4.513
21401SOL     OW66041   3.008   0.869   2.560
21401SOL    HW166042   2.924   0.837   2.528
21401SOL    HW266043   3.054   0.790   2.589
21402SOL     OW66044  14.074   1.692   9.585
21402SOL    HW166045  14.052   1.635   9.512
21402SOL    HW266046  14.107   1.633   9.653
21403SOL     OW66047  12.517  12.687  11.418
21403SOL    HW166048  12.475  12.601  11.417
21403SOL    HW266049  12.529  12.710  11.326
21404SOL     OW66050   9.182   2.085   3.587
21404SOL    HW166051   9.211   2.174   3.604
21404SOL    HW266052   9.120   2.066   3.658
21405SOL     OW66053   0.792   5.052  10.649
21405SOL    HW166054   0.770   5.072  10.558
21405SOL    HW266055   0.774   4.959  10.658
21406SOL     OW66056   3.800   4.415   4.754
21406SOL    HW166057   3.738   4.358   4.798
21406SOL    HW266058   3.749   4.460   4.687
21407SOL     OW66059  14.709   4.532   8.914
21407SOL    HW166060  14.712   4.450   8.963
21407SOL    HW266061  14.783   4.527   8.854
21408SOL     OW66062  10.941   4.559   1.659
21408SOL    HW166063  10.995   4.578   1.735
21408SOL    HW266064  10.863   4.612   1.670
21409SOL     OW66065   8.584  10.449   9.829
21409SOL    HW166066   8.638  10.514   9.784
21409SOL    HW266067   8.583  10.373   9.770
21410SOL     OW66068  13.983   5.372   5.664
21410SOL    HW166069  14.064   5.405   5.702
21410SOL    HW266070  14.000   5.369   5.570
21411SOL     OW66071   6.498  12.960  10.852
21411SOL    HW166072   6.560  12.957  10.779
21411SOL    HW266073   6.413  12.939  10.813
21412SOL     OW66074   6.966   6.859   5.628
21412SOL    HW166075   6.871   6.859   5.615
21412SOL    HW266076   7.000   6.802   5.559
21413SOL     OW66077  12.304  14.511   8.035
21413SOL    HW166078  12.350  14.435   8.071
21413SOL    HW266079  12.235  14.473   7.980
21414SOL     OW66080   7.979   5.482  12.810
21414SOL    HW166081   8.061   5.437  12.788
21414SOL    HW266082   8.001   5.575  12.802
21415SOL     OW66083   2.710   6.218   2.654
21415SOL    HW166084   2.791   6.178   2.686
21415SOL    HW266085   2.705   6.302   2.701
21416SOL     OW66086  10.364   4.404  10.305
21416SOL    HW166087  10.412   4.481  10.335
21416SOL    HW266088  10.430   4.351  10.261
21417SOL     OW66089   5.592  13.280  12.808
21417SOL    HW166090   5.636  13.250  12.729
21417SOL    HW266091   5.570  13.371  12.790
21418SOL     OW66092   5.597  11.802   3.219
21418SOL    HW166093   5.650  11.744   3.165
21418SOL    HW266094   5.647  11.883   3.223
21419SOL     OW66095  11.634   2.630   6.101
21419SOL    HW166096  11.590   2.650   6.019
21419SOL    HW266097  11.699   2.564   6.077
21420SOL     OW66098   4.721   1.584   8.571
21420SOL    HW166099   4.639   1.536   8.565
21420SOL    HW266100   4.719   1.644   8.497
21421SOL     OW66101   3.369   3.874   5.665
21421SOL    HW166102   3.376   3.847   5.573
21421SOL    HW266103   3.412   3.960   5.667
21422SOL     OW66104   4.018   8.520   8.709
21422SOL    HW166105   3.988   8.555   8.793
21422SOL    HW266106   4.113   8.515   8.717
21423SOL     OW66107   4.676  12.084  13.468
21423SOL    HW166108   4.643  12.036  13.544
21423SOL    HW266109   4.627  12.166  13.469
21424SOL     OW66110   1.172  12.111   1.099
21424SOL    HW166111   1.117  12.181   1.066
21424SOL    HW266112   1.168  12.044   1.030
21425SOL     OW66113   8.823  13.578   0.201
21425SOL    HW166114   8.833  13.517   0.274
21425SOL    HW266115   8.816  13.523   0.124
21426SOL     OW66116  11.584   8.631   3.552
21426SOL    HW166117  11.605   8.720   3.584
21426SOL    HW266118  11.669   8.595   3.526
21427SOL     OW66119   6.656   5.052   2.653
21427SOL    HW166120   6.596   5.123   2.631
21427SOL    HW266121   6.743   5.092   2.649
21428SOL     OW66122   8.763   1.009   4.985
21428SOL    HW166123   8.784   0.917   5.003
21428SOL    HW266124   8.845   1.048   4.956
21429SOL     OW66125   3.308  12.338   7.398
21429SOL    HW166126   3.238  12.276   7.418
21429SOL    HW266127   3.276  12.387   7.322
21430SOL     OW66128  14.863   2.120   5.953
21430SOL    HW166129  14.857   2.208   5.990
21430SOL    HW266130  14.868   2.062   6.030
21431SOL     OW66131   4.292  10.148  12.514
21431SOL    HW166132   4.235  10.141  12.438
21431SOL    HW266133   4.360  10.082  12.499
21432SOL     OW66134   8.701   4.554  12.889
21432SOL    HW166135   8.742   4.567  12.803
21432SOL    HW266136   8.681   4.461  12.892
21433SOL     OW66137   6.087   6.999   0.857
21433SOL    HW166138   6.054   7.077   0.812
21433SOL    HW266139   6.097   6.934   0.786
21434SOL     OW66140   8.193  13.539   4.336
21434SOL    HW166141   8.179  13.459   4.387
21434SOL    HW266142   8.260  13.516   4.272
21435SOL     OW66143  13.092   7.620   6.962
21435SOL    HW166144  13.106   7.550   7.026
21435SOL    HW266145  13.179   7.635   6.923
21436SOL     OW66146   4.176   8.148  11.328
21436SOL    HW166147   4.174   8.138  11.423
21436SOL    HW266148   4.269   8.148  11.306
21437SOL     OW66149   9.242  12.356  11.291
21437SOL    HW166150   9.313  12.413  11.261
21437SOL    HW266151   9.168  12.377  11.234
21438SOL     OW66152   7.547  10.647   5.680
21438SOL    HW166153   7.509  10.622   5.764
21438SOL    HW266154   7.637  10.673   5.701
21439SOL     OW66155   3.339  13.245   4.021
21439SOL    HW166156   3.245  13.244   4.004
21439SOL    HW266157   3.359  13.157   4.052
21440SOL     OW66158   7.108   0.793   8.627
21440SOL    HW166159   7.064   0.768   8.545
21440SOL    HW266160   7.194   0.825   8.599
21441SOL     OW66161   6.687   4.289   6.483
21441SOL    HW166162   6.733   4.300   6.400
21441SOL    HW266163   6.745   4.329   6.548
21442SOL     OW66164   1.576   8.650   2.850
21442SOL    HW166165   1.604   8.568   2.890
21442SOL    HW266166   1.658   8.697   2.833
21443SOL     OW66167  11.687   7.716   2.711
21443SOL    HW166168  11.750   7.656   2.750
21443SOL    HW266169  11.638   7.662   2.649
21444SOL     OW66170  14.149  13.409   4.691
21444SOL    HW166171  14.157  13.475   4.760
21444SOL    HW266172  14.227  13.354   4.701
21445SOL     OW66173   5.682   6.206   1.796
21445SOL    HW166174   5.687   6.301   1.782
21445SOL    HW266175   5.768   6.174   1.770
21446SOL     OW66176  12.021  11.689  13.791
21446SOL    HW166177  11.991  11.640  13.714
21446SOL    HW266178  11.974  11.650  13.864
21447SOL     OW66179   1.061   0.942   1.371
21447SOL    HW166180   1.081   0.975   1.459
21447SOL    HW266181   1.001   0.869   1.386
21448SOL     OW66182  14.585   9.375   6.362
21448SOL    HW166183  14.541   9.296   6.394
21448SOL    HW266184  14.540   9.447   6.406
21449SOL     OW66185   0.435   0.348  11.926
21449SOL    HW166186   0.422   0.405  12.002
21449SOL    HW266187   0.378   0.385  11.858
21450SOL     OW66188   5.933   6.972  11.098
21450SOL    HW166189   5.842   6.979  11.126
21450SOL    HW266190   5.962   7.062  11.085
21451SOL     OW66191   3.477   4.923   4.326
21451SOL    HW166192   3.450   4.975   4.402
21451SOL    HW266193   3.410   4.940   4.260
21452SOL     OW66194   8.401   7.995   4.317
21452SOL    HW166195   8.354   8.044   4.249
21452SOL    HW266196   8.353   8.013   4.397
21453SOL     OW66197  11.810  12.598   2.825
21453SOL    HW166198  11.778  12.644   2.903
21453SOL    HW266199  11.860  12.664   2.777
21454SOL     OW66200   3.408   1.409   6.337
21454SOL    HW166201   3.365   1.437   6.256
21454SOL    HW266202   3.385   1.476   6.400
21455SOL     OW66203   6.417   8.130  13.289
21455SOL    HW166204   6.460   8.208  13.253
21455SOL    HW266205   6.324   8.153  13.290
21456SOL     OW66206   5.231   5.696   5.571
21456SOL    HW166207   5.198   5.622   5.521
21456SOL    HW266208   5.274   5.657   5.647
21457SOL     OW66209   7.367  14.270  10.525
21457SOL    HW166210   7.387  14.188  10.480
21457SOL    HW266211   7.352  14.245  10.616
21458SOL     OW66212  12.482   3.389  11.008
21458SOL    HW166213  12.465   3.300  11.039
21458SOL    HW266214  12.420   3.401  10.936
21459SOL     OW66215   1.096  13.458  12.940
21459SOL    HW166216   1.136  13.371  12.945
21459SOL    HW266217   1.014  13.449  12.988
21460SOL     OW66218  12.002  10.279   9.467
21460SOL    HW166219  11.994  10.197   9.516
21460SOL    HW266220  11.917  10.323   9.479
21461SOL     OW66221   0.332   4.006   8.829
21461SOL    HW166222   0.347   3.913   8.845
21461SOL    HW266223   0.357   4.019   8.738
21462SOL     OW66224   6.539  12.594   5.777
21462SOL    HW166225   6.635  12.597   5.783
21462SOL    HW266226   6.512  12.553   5.859
21463SOL     OW66227   5.589   8.984   4.834
21463SOL    HW166228   5.599   8.890   4.824
21463SOL    HW266229   5.520   9.008   4.772
21464SOL     OW66230   1.926   2.257   9.973
21464SOL    HW166231   1.927   2.295   9.885
21464SOL    HW266232   1.849   2.295  10.016
21465SOL     OW66233  12.884   1.770   2.792
21465SOL    HW166234  12.870   1.694   2.735
21465SOL    HW266235  12.803   1.777   2.843
21466SOL     OW66236   4.789   0.710   8.163
21466SOL    HW166237   4.807   0.709   8.257
21466SOL    HW266238   4.697   0.684   8.156
21467SOL     OW66239  13.987  13.246   3.768
21467SOL    HW166240  14.039  13.282   3.696
21467SOL    HW266241  14.023  13.287   3.846
21468SOL     OW66242  14.629  14.679  10.196
21468SOL    HW166243  14.699  14.744  10.200
21468SOL    HW266244  14.619  14.660  10.103
21469SOL     OW66245   1.211  12.164  10.557
21469SOL    HW166246   1.196  12.235  10.495
21469SOL    HW266247   1.125  12.144  10.593
21470SOL     OW66248   6.849  11.749   6.702
21470SOL    HW166249   6.894  11.748   6.617
21470SOL    HW266250   6.885  11.673   6.748
21471SOL     OW66251  10.785   7.012  13.152
21471SOL    HW166252  10.697   7.002  13.188
21471SOL    HW266253  10.842   6.977  13.220
21472SOL     OW66254  12.246  12.786   6.240
21472SOL    HW166255  12.279  12.792   6.330
21472SOL    HW266256  12.309  12.730   6.195
21473SOL     OW66257   0.474   0.842  11.239
21473SOL    HW166258   0.402   0.904  11.228
21473SOL    HW266259   0.542   0.874  11.180
21474SOL     OW66260  13.943   6.684  10.465
21474SOL    HW166261  13.924   6.755  10.404
21474SOL    HW266262  13.929   6.722  10.552
21475SOL     OW66263  14.813  13.784  13.721
21475SOL    HW166264  14.864  13.707  13.747
21475SOL    HW266265  14.867  13.859  13.745
21476SOL     OW66266  11.844   2.630   4.237
21476SOL    HW166267  11.901   2.558   4.264
21476SOL    HW266268  11.903   2.704   4.226
21477SOL     OW66269  12.602   7.570   3.001
21477SOL    HW166270  12.695   7.591   3.007
21477SOL    HW266271  12.597   7.478   3.027
21478SOL     OW66272  13.186  11.312   6.805
21478SOL    HW166273  13.278  11.319   6.831
21478SOL    HW266274  13.182  11.230   6.755
21479SOL     OW66275   1.071  12.868   3.711
21479SOL    HW166276   1.147  12.816   3.736
21479SOL    HW266277   1.024  12.881   3.793
21480SOL     OW66278  14.291   2.580   0.728
21480SOL    HW166279  14.347   2.596   0.804
21480SOL    HW266280  14.209   2.548   0.766
21481SOL     OW66281   9.358  12.078  10.897
21481SOL    HW166282   9.330  12.061  10.808
21481SOL    HW266283   9.278  12.107  10.942
21482SOL     OW66284   2.196   0.656   4.142
21482SOL    HW166285   2.113   0.699   4.163
21482SOL    HW266286   2.255   0.728   4.119
21483SOL     OW66287  12.402   6.338   4.964
21483SOL    HW166288  12.393   6.304   4.875
21483SOL    HW266289  12.461   6.412   4.955
21484SOL     OW66290  11.386   5.097  10.501
21484SOL    HW166291  11.347   5.029  10.555
21484SOL    HW266292  11.380   5.064  10.411
21485SOL     OW66293   0.053   5.297  14.697
21485SOL    HW166294  14.849   5.298  14.639
21485SOL    HW266295   0.127   5.316  14.639
21486SOL     OW66296   7.492  12.324   3.531
21486SOL    HW166297   7.587  12.330   3.542
21486SOL    HW266298   7.468  12.240   3.571
21487SOL     OW66299   5.090   8.374   3.867
21487SOL    HW166300   5.173   8.411   3.834
21487SOL    HW266301   5.081   8.291   3.821
21488SOL     OW66302   9.865   5.219   1.847
21488SOL    HW166303   9.919   5.212   1.926
21488SOL    HW266304   9.899   5.151   1.789
21489SOL     OW66305   1.648  14.161   3.961
21489SOL    HW166306   1.681  14.151   3.872
21489SOL    HW266307   1.700  14.233   3.998
21490SOL     OW66308   1.201   9.106   4.500
21490SOL    HW166309   1.181   9.012   4.506
21490SOL    HW266310   1.162   9.143   4.579
21491SOL     OW66311   3.297   1.536   6.124
21491SOL    HW166312   3.283   1.442   6.109
21491SOL    HW266313   3.209   1.573   6.125
21492SOL     OW66314   0.628  10.417   2.334
21492SOL    HW166315   0.648  10.331   2.372
21492SOL    HW266316   0.549  10.401   2.281
21493SOL     OW66317   7.574   7.326   2.205
21493SOL    HW166318   7.531   7.386   2.145
21493SOL    HW266319   7.503   7.274   2.242
21494SOL     OW66320   3.958   9.549  14.293
21494SOL    HW166321   3.950   9.573  14.200
21494SOL    HW266322   4.045   9.509  14.299
21495SOL     OW66323  13.607  13.623   1.255
21495SOL    HW166324  13.608  13.566   1.332
21495SOL    HW266325  13.668  13.583   1.194
21496SOL     OW66326   0.990  10.793   2.629
21496SOL    HW166327   0.977  10.712   2.579
21496SOL    HW266328   1.045  10.847   2.572
21497SOL     OW66329  13.076  12.729   3.641
21497SOL    HW166330  13.130  12.791   3.689
21497SOL    HW266331  13.105  12.738   3.550
21498SOL     OW66332   1.702   0.332   9.812
21498SOL    HW166333   1.763   0.268   9.849
21498SOL    HW266334   1.704   0.315   9.718
21499SOL     OW66335   5.286  11.045   4.805
21499SOL    HW166336   5.296  11.030   4.899
21499SOL    HW266337   5.303  11.138   4.793
21500SOL     OW66338  10.709   9.420  10.965
21500SOL    HW166339  10.769   9.348  10.948
21500SOL    HW266340  10.627   9.378  10.992
21501SOL     OW66341   8.153   0.774   4.319
21501SOL    HW166342   8.183   0.864   4.327
21501SOL    HW266343   8.183   0.732   4.400
21502SOL     OW66344   3.862   2.685   4.655
21502SOL    HW166345   3.906   2.621   4.713
21502SOL    HW266346   3.906   2.768   4.674
21503SOL     OW66347   6.883   5.166   6.151
21503SOL    HW166348   6.889   5.179   6.056
21503SOL    HW266349   6.811   5.222   6.179
21504SOL     OW66350   9.430   1.031  13.879
21504SOL    HW166351   9.526   1.021  13.878
21504SOL    HW266352   9.415   1.110  13.931
21505SOL     OW66353   6.138   6.484   9.610
21505SOL    HW166354   6.111   6.477   9.701
21505SOL    HW266355   6.234   6.491   9.613
21506SOL     OW66356   0.295  13.727   9.163
21506SOL    HW166357   0.306  13.644   9.118
21506SOL    HW266358   0.368  13.730   9.225
21507SOL     OW66359   8.572   7.861  14.690
21507SOL    HW166360   8.617   7.786  14.729
21507SOL    HW266361   8.510   7.822  14.627
21508SOL     OW66362   7.171   0.011   4.332
21508SOL    HW166363   7.225  14.809   4.357
21508SOL    HW266364   7.227   0.087   4.344
21509SOL     OW66365   1.327   7.642  10.560
21509SOL    HW166366   1.344   7.616  10.651
21509SOL    HW266367   1.296   7.562  10.518
21510SOL     OW66368   3.556   8.675   9.195
21510SOL    HW166369   3.637   8.623   9.198
21510SOL    HW266370   3.556   8.724   9.277
21511SOL     OW66371   4.075   4.504   6.332
21511SOL    HW166372   4.057   4.595   6.354
21511SOL    HW266373   4.138   4.475   6.398
21512SOL     OW66374  10.086  12.040  14.181
21512SOL    HW166375  10.053  12.127  14.201
21512SOL    HW266376  10.067  12.028  14.088
21513SOL     OW66377   1.352   1.943  12.112
21513SOL    HW166378   1.268   1.900  12.095
21513SOL    HW266379   1.339   2.032  12.081
21514SOL     OW66380   0.966  12.990   6.635
21514SOL    HW166381   0.939  12.945   6.715
21514SOL    HW266382   0.910  12.953   6.567
21515SOL     OW66383  12.227  10.721   3.468
21515SOL    HW166384  12.157  10.672   3.426
21515SOL    HW266385  12.287  10.744   3.397
21516SOL     OW66386   4.864   1.884  14.526
21516SOL    HW166387   4.774   1.916  14.526
21516SOL    HW266388   4.892   1.890  14.434
21517SOL     OW66389   7.556   7.953   3.482
21517SOL    HW166390   7.521   7.873   3.521
21517SOL    HW266391   7.649   7.951   3.504
21518SOL     OW66392   9.211  13.520   4.464
21518SOL    HW166393   9.257  13.574   4.399
21518SOL    HW266394   9.125  13.560   4.472
21519SOL     OW66395   9.283   0.082   1.531
21519SOL    HW166396   9.189   0.100   1.535
21519SOL    HW266397   9.322   0.146   1.591
21520SOL     OW66398  14.333   8.983  14.335
21520SOL    HW166399  14.257   9.041  14.335
21520SOL    HW266400  14.313   8.918  14.402
21521SOL     OW66401   4.976   0.403   8.489
21521SOL    HW166402   4.954   0.314   8.518
21521SOL    HW266403   5.027   0.390   8.409
21522SOL     OW66404   7.947   9.770  10.211
21522SOL    HW166405   7.939   9.842  10.274
21522SOL    HW266406   7.995   9.702  10.258
21523SOL     OW66407   1.036  12.554   4.176
21523SOL    HW166408   0.994  12.578   4.259
21523SOL    HW266409   1.128  12.576   4.189
21524SOL     OW66410  12.412  11.526   8.374
21524SOL    HW166411  12.352  11.518   8.300
21524SOL    HW266412  12.447  11.615   8.367
21525SOL     OW66413   2.577   3.621   6.239
21525SOL    HW166414   2.549   3.612   6.148
21525SOL    HW266415   2.672   3.616   6.236
21526SOL     OW66416   5.372   8.283   1.546
21526SOL    HW166417   5.345   8.366   1.507
21526SOL    HW266418   5.361   8.296   1.640
21527SOL     OW66419   6.697   7.252   0.150
21527SOL    HW166420   6.777   7.201   0.158
21527SOL    HW266421   6.687   7.267   0.056
21528SOL     OW66422   1.031  13.626  11.029
21528SOL    HW166423   1.101  13.689  11.011
21528SOL    HW266424   1.038  13.609  11.123
21529SOL     OW66425   7.835   1.976  12.980
21529SOL    HW166426   7.844   1.969  13.075
21529SOL    HW266427   7.752   2.021  12.966
21530SOL     OW66428   4.772   1.555   0.956
21530SOL    HW166429   4.707   1.484   0.955
21530SOL    HW266430   4.825   1.540   0.878
21531SOL     OW66431   3.713  10.795  11.974
21531SOL    HW166432   3.655  10.727  11.940
21531SOL    HW266433   3.662  10.837  12.044
21532SOL     OW66434   6.547   9.430   2.624
21532SOL    HW166435   6.457   9.448   2.652
21532SOL    HW266436   6.539   9.401   2.533
21533SOL     OW66437  14.829   0.515   7.622
21533SOL    HW166438   0.027   0.451   7.612
21533SOL    HW266439  14.831   0.567   7.542
21534SOL     OW66440   9.850  13.936  13.968
21534SOL    HW166441   9.782  13.887  14.014
21534SOL    HW266442   9.856  14.019  14.016
21535SOL     OW66443   4.761  12.419   3.554
21535SOL    HW166444   4.678  12.378   3.531
21535SOL    HW266445   4.744  12.463   3.637
21536SOL     OW66446   8.557  10.095   4.619
21536SOL    HW166447   8.509  10.149   4.682
21536SOL    HW266448   8.557  10.146   4.538
21537SOL     OW66449  12.532  12.760  14.685
21537SOL    HW166450  12.536  12.855  14.675
21537SOL    HW266451  12.609  12.728  14.638
21538SOL     OW66452   4.204   5.449   1.955
21538SOL    HW166453   4.267   5.399   1.903
21538SOL    HW266454   4.210   5.412   2.043
21539SOL     OW66455   4.578  11.454  13.171
21539SOL    HW166456   4.570  11.388  13.240
21539SOL    HW266457   4.661  11.497  13.189
21540SOL     OW66458   5.091   7.751   2.143
21540SOL    HW166459   5.102   7.845   2.151
21540SOL    HW266460   5.176   7.718   2.116
21541SOL     OW66461   8.628   5.449  12.152
21541SOL    HW166462   8.613   5.504  12.074
21541SOL    HW266463   8.583   5.367  12.132
21542SOL     OW66464   0.194  12.144  11.002
21542SOL    HW166465   0.136  12.215  10.974
21542SOL    HW266466   0.164  12.122  11.090
21543SOL     OW66467   4.819   6.265  11.002
21543SOL    HW166468   4.791   6.338  10.948
21543SOL    HW266469   4.872   6.305  11.072
21544SOL     OW66470   5.662   6.537  12.928
21544SOL    HW166471   5.608   6.458  12.927
21544SOL    HW266472   5.702   6.541  12.841
21545SOL     OW66473   6.966   9.723   9.367
21545SOL    HW166474   7.046   9.759   9.405
21545SOL    HW266475   6.997   9.661   9.301
21546SOL     OW66476   3.908  12.383   8.380
21546SOL    HW166477   3.954  12.420   8.305
21546SOL    HW266478   3.975  12.333   8.426
21547SOL     OW66479   0.506   7.047   0.224
21547SOL    HW166480   0.474   7.073   0.311
21547SOL    HW266481   0.562   6.971   0.240
21548SOL     OW66482  12.282   0.161   7.959
21548SOL    HW166483  12.300   0.144   7.866
21548SOL    HW266484  12.363   0.135   8.004
21549SOL     OW66485  13.299  11.717  10.541
21549SOL    HW166486  13.366  11.687  10.603
21549SOL    HW266487  13.334  11.799  10.506
21550SOL     OW66488  11.818   1.263   0.265
21550SOL    HW166489  11.899   1.304   0.296
21550SOL    HW266490  11.748   1.311   0.310
21551SOL     OW66491   3.188   0.087   6.863
21551SOL    HW166492   3.229   0.031   6.798
21551SOL    HW266493   3.094   0.078   6.846
21552SOL     OW66494   2.713  12.394   7.028
21552SOL    HW166495   2.741  12.405   7.119
21552SOL    HW266496   2.784  12.346   6.986
21553SOL     OW66497  13.576  11.043   6.450
21553SOL    HW166498  13.612  11.087   6.373
21553SOL    HW266499  13.482  11.062   6.446
21554SOL     OW66500   8.247   0.863   4.668
21554SOL    HW166501   8.159   0.877   4.631
21554SOL    HW266502   8.300   0.934   4.631
21555SOL     OW66503   8.099   5.929   3.654
21555SOL    HW166504   8.046   5.986   3.710
21555SOL    HW266505   8.036   5.871   3.612
21556SOL     OW66506  11.655   2.324  13.429
21556SOL    HW166507  11.652   2.379  13.507
21556SOL    HW266508  11.697   2.379  13.362
21557SOL     OW66509   0.846   3.368   7.675
21557SOL    HW166510   0.787   3.355   7.749
21557SOL    HW266511   0.828   3.457   7.645
21558SOL     OW66512   1.056   0.278   5.173
21558SOL    HW166513   1.131   0.232   5.210
21558SOL    HW266514   0.982   0.221   5.189
21559SOL     OW66515   9.965   3.278   0.839
21559SOL    HW166516   9.970   3.183   0.840
21559SOL    HW266517   9.871   3.297   0.848
21560SOL     OW66518   1.816  13.158   8.407
21560SOL    HW166519   1.883  13.212   8.449
21560SOL    HW266520   1.767  13.219   8.351
21561SOL     OW66521   2.878   4.623   3.987
21561SOL    HW166522   2.785   4.638   3.968
21561SOL    HW266523   2.918   4.710   3.982
21562SOL     OW66524  11.876   9.088  12.776
21562SOL    HW166525  11.831   9.167  12.807
21562SOL    HW266526  11.966   9.116  12.760
21563SOL     OW66527  13.399   9.432   1.072
21563SOL    HW166528  13.359   9.511   1.036
21563SOL    HW266529  13.328   9.368   1.074
21564SOL     OW66530   9.670  10.914   7.092
21564SOL    HW166531   9.632  10.989   7.047
21564SOL    HW266532   9.636  10.838   7.044
21565SOL     OW66533  13.569  10.352   0.974
21565SOL    HW166534  13.489  10.374   0.927
21565SOL    HW266535  13.597  10.268   0.937
21566SOL     OW66536   2.114   2.910   0.296
21566SOL    HW166537   2.026   2.929   0.266
21566SOL    HW266538   2.117   2.814   0.303
21567SOL     OW66539  12.190   4.974   4.056
21567SOL    HW166540  12.190   4.907   3.988
21567SOL    HW266541  12.097   4.993   4.070
21568SOL     OW66542   1.734   4.134   8.668
21568SOL    HW166543   1.723   4.215   8.717
21568SOL    HW266544   1.798   4.155   8.600
21569SOL     OW66545   2.752   5.590  11.156
21569SOL    HW166546   2.719   5.543  11.079
21569SOL    HW266547   2.846   5.602  11.139
21570SOL     OW66548  12.071  14.799   0.263
21570SOL    HW166549  11.989  14.761   0.232
21570SOL    HW266550  12.057   0.020   0.261
21571SOL     OW66551   5.194   4.677  11.360
21571SOL    HW166552   5.175   4.599  11.308
21571SOL    HW266553   5.284   4.700  11.338
21572SOL     OW66554   7.204  14.421   3.723
21572SOL    HW166555   7.284  14.461   3.690
21572SOL    HW266556   7.178  14.359   3.655
21573SOL     OW66557   9.154   6.834   2.232
21573SOL    HW166558   9.238   6.864   2.198
21573SOL    HW266559   9.100   6.912   2.236
21574SOL     OW66560  10.952   1.721  14.650
21574SOL    HW166561  10.951   1.629  14.624
21574SOL    HW266562  11.022   1.760  14.598
21575SOL     OW66563  10.885  11.332  13.363
21575SOL    HW166564  10.812  11.389  13.388
21575SOL    HW266565  10.904  11.281  13.442
21576SOL     OW66566  14.133   9.206   1.979
21576SOL    HW166567  14.194   9.147   1.936
21576SOL    HW266568  14.065   9.149   2.014
21577SOL     OW66569   0.088   7.729   9.798
21577SOL    HW166570   0.014   7.789   9.811
21577SOL    HW266571   0.117   7.746   9.708
21578SOL     OW66572   6.209   4.805   0.079
21578SOL    HW166573   6.223   4.736   0.144
21578SOL    HW266574   6.119   4.833   0.093
21579SOL     OW66575  13.079  11.695   6.515
21579SOL    HW166576  13.031  11.645   6.449
21579SOL    HW266577  13.070  11.644   6.595
21580SOL     OW66578   8.557  13.721  10.370
21580SOL    HW166579   8.601  13.641  10.341
21580SOL    HW266580   8.528  13.763  10.289
21581SOL     OW66581  14.629   0.842  14.804
21581SOL    HW166582  14.668   0.929  14.810
21581SOL    HW266583  14.598   0.824   0.020
21582SOL     OW66584   5.459   2.994  14.364
21582SOL    HW166585   5.422   2.952  14.286
21582SOL    HW266586   5.455   2.927  14.432
21583SOL     OW66587   2.356   0.428   8.259
21583SOL    HW166588   2.330   0.350   8.307
21583SOL    HW266589   2.368   0.398   8.169
21584SOL     OW66590   2.544  12.184   0.176
21584SOL    HW166591   2.496  12.163   0.096
21584SOL    HW266592   2.598  12.259   0.153
21585SOL     OW66593   9.962  13.972   0.099
21585SOL    HW166594   9.965  13.998   0.191
21585SOL    HW266595   9.877  14.003   0.068
21586SOL     OW66596   3.225   8.297   3.964
21586SOL    HW166597   3.241   8.348   3.885
21586SOL    HW266598   3.308   8.255   3.983
21587SOL     OW66599   0.432  12.882   3.697
21587SOL    HW166600   0.396  12.948   3.638
21587SOL    HW266601   0.508  12.847   3.649
21588SOL     OW66602   4.436   1.233   4.329
21588SOL    HW166603   4.382   1.241   4.408
21588SOL    HW266604   4.505   1.171   4.353
21589SOL     OW66605   2.495  12.558   8.046
21589SOL    HW166606   2.445  12.493   8.096
21589SOL    HW266607   2.516  12.513   7.964
21590SOL     OW66608   6.933   7.895   9.464
21590SOL    HW166609   7.027   7.907   9.473
21590SOL    HW266610   6.894   7.962   9.519
21591SOL     OW66611   0.040  14.083  14.847
21591SOL    HW166612   0.014  14.175  14.846
21591SOL    HW266613   0.135  14.084  14.841
21592SOL     OW66614   3.507   3.883   8.360
21592SOL    HW166615   3.487   3.897   8.452
21592SOL    HW266616   3.588   3.832   8.360
21593SOL     OW66617  13.897   8.210  14.440
21593SOL    HW166618  13.949   8.253  14.509
21593SOL    HW266619  13.960   8.193  14.370
21594SOL     OW66620   5.213   1.993  12.960
21594SOL    HW166621   5.298   1.996  13.004
21594SOL    HW266622   5.182   2.084  12.962
21595SOL     OW66623   5.438  10.709  14.125
21595SOL    HW166624   5.471  10.760  14.199
21595SOL    HW266625   5.369  10.763  14.088
21596SOL     OW66626  13.079   7.737  13.158
21596SOL    HW166627  13.168   7.765  13.136
21596SOL    HW266628  13.030   7.818  13.170
21597SOL     OW66629  13.173   7.977   4.496
21597SOL    HW166630  13.088   8.019   4.482
21597SOL    HW266631  13.218   7.984   4.412
21598SOL     OW66632   8.246  10.516   2.705
21598SOL    HW166633   8.259  10.500   2.612
21598SOL    HW266634   8.261  10.431   2.746
21599SOL     OW66635   1.362   0.816   4.299
21599SOL    HW166636   1.391   0.889   4.353
21599SOL    HW266637   1.267   0.826   4.294
21600SOL     OW66638   1.909   1.076   1.861
21600SOL    HW166639   1.834   1.048   1.808
21600SOL    HW266640   1.888   1.165   1.887
21601SOL     OW66641   2.780   2.850  10.599
21601SOL    HW166642   2.830   2.853  10.517
21601SOL    HW266643   2.816   2.921  10.651
21602SOL     OW66644  11.680   1.055   4.048
21602SOL    HW166645  11.591   1.026   4.028
21602SOL    HW266646  11.725   0.975   4.077
21603SOL     OW66647   1.018  13.722  14.394
21603SOL    HW166648   1.075  13.750  14.465
21603SOL    HW266649   0.942  13.683  14.438
21604SOL     OW66650  12.779   1.365  12.034
21604SOL    HW166651  12.802   1.289  11.981
21604SOL    HW266652  12.693   1.344  12.070
21605SOL     OW66653  11.013  10.509   0.209
21605SOL    HW166654  11.087  10.570   0.217
21605SOL    HW266655  10.936  10.565   0.215
21606SOL     OW66656  13.188   2.429   8.258
21606SOL    HW166657  13.150   2.416   8.171
21606SOL    HW266658  13.245   2.353   8.271
21607SOL     OW66659  12.283  12.376  14.866
21607SOL    HW166660  12.346  12.447   0.008
21607SOL    HW266661  12.221  12.412  14.802
21608SOL     OW66662   5.256   0.375   8.541
21608SOL    HW166663   5.292   0.434   8.475
21608SOL    HW266664   5.162   0.394   8.541
21609SOL     OW66665   7.926  11.558   2.360
21609SOL    HW166666   7.886  11.622   2.419
21609SOL    HW266667   7.985  11.609   2.305
21610SOL     OW66668  10.640   7.265  10.348
21610SOL    HW166669  10.635   7.276  10.253
21610SOL    HW266670  10.733   7.256  10.367
21611SOL     OW66671   5.969   3.736   5.701
21611SOL    HW166672   6.064   3.725   5.713
21611SOL    HW266673   5.960   3.771   5.612
21612SOL     OW66674  10.826   8.835   2.893
21612SOL    HW166675  10.814   8.844   2.987
21612SOL    HW266676  10.741   8.860   2.855
21613SOL     OW66677   4.322   5.912   1.748
21613SOL    HW166678   4.245   5.966   1.733
21613SOL    HW266679   4.344   5.925   1.840
21614SOL     OW66680   0.022  10.811   9.827
21614SOL    HW166681   0.041  10.749   9.756
21614SOL    HW266682   0.053  10.766   9.906
21615SOL     OW66683  11.684  14.396  11.673
21615SOL    HW166684  11.704  14.304  11.654
21615SOL    HW266685  11.767  14.432  11.705
21616SOL     OW66686   7.762   4.652   1.679
21616SOL    HW166687   7.695   4.641   1.611
21616SOL    HW266688   7.843   4.670   1.630
21617SOL     OW66689   7.386  12.545   2.405
21617SOL    HW166690   7.449  12.599   2.358
21617SOL    HW266691   7.422  12.456   2.401
21618SOL     OW66692   5.111   1.488   6.437
21618SOL    HW166693   5.078   1.558   6.493
21618SOL    HW266694   5.125   1.415   6.498
21619SOL     OW66695  14.050   3.394  13.980
21619SOL    HW166696  14.054   3.400  14.076
21619SOL    HW266697  14.059   3.300  13.962
21620SOL     OW66698   6.738   3.179   2.849
21620SOL    HW166699   6.663   3.125   2.825
21620SOL    HW266700   6.757   3.156   2.940
21621SOL     OW66701  11.818   2.569   8.721
21621SOL    HW166702  11.725   2.548   8.716
21621SOL    HW266703  11.822   2.664   8.714
21622SOL     OW66704   4.894  13.525   2.693
21622SOL    HW166705   4.914  13.447   2.745
21622SOL    HW266706   4.854  13.491   2.613
21623SOL     OW66707  11.214  12.055   8.705
21623SOL    HW166708  11.226  12.138   8.752
21623SOL    HW266709  11.301  12.035   8.670
21624SOL     OW66710  13.402  11.764  13.637
21624SOL    HW166711  13.434  11.854  13.637
21624SOL    HW266712  13.370  11.749  13.548
21625SOL     OW66713   2.940   9.544   8.940
21625SOL    HW166714   2.940   9.458   8.982
21625SOL    HW266715   2.856   9.582   8.962
21626SOL     OW66716   0.760   7.506  12.564
21626SOL    HW166717   0.756   7.488  12.658
21626SOL    HW266718   0.669   7.504  12.535
21627SOL     OW66719   2.874   8.270   7.499
21627SOL    HW166720   2.925   8.336   7.452
21627SOL    HW266721   2.933   8.196   7.508
21628SOL     OW66722   7.636   4.725   0.600
21628SOL    HW166723   7.606   4.794   0.541
21628SOL    HW266724   7.667   4.771   0.678
21629SOL     OW66725   1.219  12.972   4.112
21629SOL    HW166726   1.258  12.964   4.199
21629SOL    HW266727   1.293  12.961   4.052
21630SOL     OW66728  12.732   2.890   6.189
21630SOL    HW166729  12.689   2.899   6.104
21630SOL    HW266730  12.670   2.929   6.251
21631SOL     OW66731  13.874   8.015   8.261
21631SOL    HW166732  13.966   8.013   8.288
21631SOL    HW266733  13.872   8.071   8.183
21632SOL     OW66734   9.976   7.889  13.446
21632SOL    HW166735   9.911   7.853  13.386
21632SOL    HW266736  10.037   7.817  13.461
21633SOL     OW66737  11.129   0.369   5.731
21633SOL    HW166738  11.203   0.382   5.790
21633SOL    HW266739  11.061   0.428   5.765
21634SOL     OW66740   9.271  10.523   5.826
21634SOL    HW166741   9.350  10.566   5.795
21634SOL    HW266742   9.268  10.440   5.777
21635SOL     OW66743  14.207   3.023  10.093
21635SOL    HW166744  14.121   2.981  10.099
21635SOL    HW266745  14.191   3.113  10.123
21636SOL     OW66746   2.078   2.419   8.376
21636SOL    HW166747   2.040   2.506   8.367
21636SOL    HW266748   2.047   2.371   8.299
21637SOL     OW66749   3.575  13.727   9.280
21637SOL    HW166750   3.493  13.739   9.328
21637SOL    HW266751   3.631  13.797   9.313
21638SOL     OW66752   7.143   6.539   7.985
21638SOL    HW166753   7.223   6.546   7.933
21638SOL    HW266754   7.147   6.613   8.045
21639SOL     OW66755   8.758   0.144   0.173
21639SOL    HW166756   8.752   0.062   0.123
21639SOL    HW266757   8.732   0.119   0.262
21640SOL     OW66758   6.550  10.867  13.624
21640SOL    HW166759   6.458  10.889  13.639
21640SOL    HW266760   6.570  10.907  13.539
21641SOL     OW66761  12.986  11.502   7.050
21641SOL    HW166762  13.035  11.582   7.069
21641SOL    HW266763  13.030  11.435   7.103
21642SOL     OW66764   3.618   8.542   4.000
21642SOL    HW166765   3.669   8.486   4.058
21642SOL    HW266766   3.596   8.487   3.925
21643SOL     OW66767   8.838  13.985   4.095
21643SOL    HW166768   8.821  13.898   4.059
21643SOL    HW266769   8.765  14.039   4.063
21644SOL     OW66770   7.495   2.898  10.195
21644SOL    HW166771   7.489   2.992  10.208
21644SOL    HW266772   7.433   2.861  10.259
21645SOL     OW66773   4.778   9.661   0.810
21645SOL    HW166774   4.761   9.589   0.749
21645SOL    HW266775   4.866   9.692   0.786
21646SOL     OW66776  12.937  12.823  14.859
21646SOL    HW166777  12.941  12.741  14.809
21646SOL    HW266778  13.017  12.870  14.834
21647SOL     OW66779   6.255   4.746   2.296
21647SOL    HW166780   6.289   4.701   2.219
21647SOL    HW266781   6.311   4.823   2.305
21648SOL     OW66782   3.861  14.545   9.118
21648SOL    HW166783   3.905  14.599   9.183
21648SOL    HW266784   3.872  14.456   9.149
21649SOL     OW66785  11.652   2.290   6.927
21649SOL    HW166786  11.588   2.251   6.868
21649SOL    HW266787  11.737   2.270   6.888
21650SOL     OW66788  11.430  10.180  11.502
21650SOL    HW166789  11.490  10.117  11.463
21650SOL    HW266790  11.431  10.255  11.443
21651SOL     OW66791  13.250  10.103  10.754
21651SOL    HW166792  13.176  10.115  10.814
21651SOL    HW266793  13.262  10.008  10.750
21652SOL     OW66794   9.736  12.110   9.968
21652SOL    HW166795   9.814  12.060   9.990
21652SOL    HW266796   9.667  12.072  10.022
21653SOL     OW66797  13.528   0.037  11.648
21653SOL    HW166798  13.496   0.125  11.629
21653SOL    HW266799  13.465  14.852  11.606
21654SOL     OW66800   4.109  10.145   7.740
21654SOL    HW166801   4.132  10.070   7.685
21654SOL    HW266802   4.133  10.117   7.829
21655SOL     OW66803   1.223   9.360   3.259
21655SOL    HW166804   1.141   9.402   3.236
21655SOL    HW266805   1.198   9.274   3.294
21656SOL     OW66806  12.422   6.151  13.797
21656SOL    HW166807  12.495   6.207  13.770
21656SOL    HW266808  12.387   6.195  13.875
21657SOL     OW66809   4.710   5.520   8.746
21657SOL    HW166810   4.660   5.596   8.773
21657SOL    HW266811   4.648   5.467   8.696
21658SOL     OW66812   6.569   6.027   4.019
21658SOL    HW166813   6.596   6.020   3.927
21658SOL    HW266814   6.632   6.088   4.058
21659SOL     OW66815   0.838   5.875   6.569
21659SOL    HW166816   0.852   5.964   6.538
21659SOL    HW266817   0.866   5.877   6.660
21660SOL     OW66818   0.817   0.270  14.503
21660SOL    HW166819   0.764   0.222  14.567
21660SOL    HW266820   0.873   0.203  14.464
21661SOL     OW66821  10.993  13.478  10.889
21661SOL    HW166822  11.026  13.420  10.820
21661SOL    HW266823  11.069  13.492  10.946
21662SOL     OW66824  12.653  10.053   3.262
21662SOL    HW166825  12.699  10.049   3.346
21662SOL    HW266826  12.561  10.037   3.283
21663SOL     OW66827  13.015   4.206   9.574
21663SOL    HW166828  12.948   4.152   9.533
21663SOL    HW266829  13.072   4.144   9.619
21664SOL     OW66830   1.023   2.040  14.745
21664SOL    HW166831   1.011   1.950  14.776
21664SOL    HW266832   1.038   2.032  14.651
21665SOL     OW66833   9.567   5.528  13.946
21665SOL    HW166834   9.568   5.543  13.852
21665SOL    HW266835   9.584   5.614  13.985
21666SOL     OW66836  13.074   5.876   0.442
21666SOL    HW166837  13.115   5.889   0.356
21666SOL    HW266838  13.056   5.965   0.473
21667SOL     OW66839  10.332  13.152  14.260
21667SOL    HW166840  10.244  13.139  14.224
21667SOL    HW266841  10.326  13.235  14.308
21668SOL     OW66842   6.833  11.273   1.820
21668SOL    HW166843   6.917  11.270   1.867
21668SOL    HW266844   6.822  11.364   1.795
21669SOL     OW66845  14.028   0.581  14.223
21669SOL    HW166846  14.065   0.552  14.140
21669SOL    HW266847  14.012   0.501  14.273
21670SOL     OW66848   5.439  10.835  14.404
21670SOL    HW166849   5.473  10.817  14.492
21670SOL    HW266850   5.403  10.923  14.410
21671SOL     OW66851   0.048   9.681  14.267
21671SOL    HW166852  14.855   9.630  14.221
21671SOL    HW266853  14.873   9.755  14.304
21672SOL     OW66854   1.944   6.512   4.562
21672SOL    HW166855   1.965   6.556   4.479
21672SOL    HW266856   1.848   6.511   4.564
21673SOL     OW66857   4.842   8.296   4.396
21673SOL    HW166858   4.884   8.357   4.457
21673SOL    HW266859   4.902   8.222   4.391
21674SOL     OW66860   3.968   6.563   7.619
21674SOL    HW166861   3.940   6.472   7.612
21674SOL    HW266862   3.971   6.594   7.529
21675SOL     OW66863   5.679  12.081   1.870
21675SOL    HW166864   5.706  12.002   1.823
21675SOL    HW266865   5.618  12.050   1.937
21676SOL     OW66866  14.137   0.681   1.420
21676SOL    HW166867  14.165   0.643   1.337
21676SOL    HW266868  14.126   0.606   1.478
21677SOL     OW66869   9.240   7.571  11.213
21677SOL    HW166870   9.165   7.631  11.208
21677SOL    HW266871   9.238   7.537  11.303
21678SOL     OW66872  14.494   5.576  11.126
21678SOL    HW166873  14.471   5.574  11.033
21678SOL    HW266874  14.411   5.586  11.171
21679SOL     OW66875  12.378   7.881   3.238
21679SOL    HW166876  12.404   7.789   3.241
21679SOL    HW266877  12.461   7.929   3.241
21680SOL     OW66878  13.538   4.453   4.624
21680SOL    HW166879  13.458   4.439   4.573
21680SOL    HW266880  13.571   4.537   4.594
21681SOL     OW66881   1.752   9.149  10.352
21681SOL    HW166882   1.706   9.196  10.282
21681SOL    HW266883   1.840   9.134  10.318
21682SOL     OW66884   8.242  13.636  13.044
21682SOL    HW166885   8.195  13.689  12.979
21682SOL    HW266886   8.315  13.692  13.072
21683SOL     OW66887  10.729   2.676   8.082
21683SOL    HW166888  10.657   2.699   8.023
21683SOL    HW266889  10.686   2.642   8.160
21684SOL     OW66890  11.019   6.955   8.422
21684SOL    HW166891  10.995   6.962   8.329
21684SOL    HW266892  10.953   7.008   8.467
21685SOL     OW66893   7.507   2.059  13.648
21685SOL    HW166894   7.506   2.025  13.737
21685SOL    HW266895   7.548   2.145  13.655
21686SOL     OW66896   6.912   8.626   7.783
21686SOL    HW166897   6.886   8.638   7.874
21686SOL    HW266898   6.949   8.711   7.758
21687SOL     OW66899   6.755   9.325   7.283
21687SOL    HW166900   6.709   9.375   7.350
21687SOL    HW266901   6.806   9.260   7.332
21688SOL     OW66902  13.666  11.234   5.620
21688SOL    HW166903  13.622  11.315   5.593
21688SOL    HW266904  13.627  11.213   5.705
21689SOL     OW66905   0.631  10.579   5.030
21689SOL    HW166906   0.537  10.568   5.047
21689SOL    HW266907   0.656  10.499   4.984
21690SOL     OW66908  14.154   3.051   8.619
21690SOL    HW166909  14.247   3.041   8.597
21690SOL    HW266910  14.112   3.074   8.536
21691SOL     OW66911   4.274   7.800  10.085
21691SOL    HW166912   4.334   7.797  10.010
21691SOL    HW266913   4.332   7.800  10.162
21692SOL     OW66914   5.243   6.948   0.246
21692SOL    HW166915   5.167   6.975   0.196
21692SOL    HW266916   5.248   7.010   0.319
21693SOL     OW66917   6.050  11.564   3.255
21693SOL    HW166918   6.026  11.499   3.189
21693SOL    HW266919   6.145  11.558   3.263
21694SOL     OW66920   7.499   4.516  14.030
21694SOL    HW166921   7.579   4.504  13.978
21694SOL    HW266922   7.469   4.428  14.049
21695SOL     OW66923   5.487   1.286  14.750
21695SOL    HW166924   5.558   1.258  14.808
21695SOL    HW266925   5.407   1.264  14.798
21696SOL     OW66926  11.654   3.318   5.366
21696SOL    HW166927  11.574   3.372   5.361
21696SOL    HW266928  11.724   3.382   5.380
21697SOL     OW66929  12.869   4.251   4.520
21697SOL    HW166930  12.897   4.327   4.571
21697SOL    HW266931  12.799   4.285   4.464
21698SOL     OW66932  11.538   1.622   3.245
21698SOL    HW166933  11.505   1.553   3.187
21698SOL    HW266934  11.631   1.604   3.253
21699SOL     OW66935  14.069   7.434   4.160
21699SOL    HW166936  14.151   7.396   4.129
21699SOL    HW266937  14.084   7.529   4.157
21700SOL     OW66938   1.295   8.434   0.194
21700SOL    HW166939   1.384   8.407   0.215
21700SOL    HW266940   1.270   8.491   0.266
21701SOL     OW66941  12.069  10.267  13.245
21701SOL    HW166942  12.016  10.207  13.192
21701SOL    HW266943  12.018  10.348  13.247
21702SOL     OW66944   6.141  13.536   0.357
21702SOL    HW166945   6.076  13.477   0.319
21702SOL    HW266946   6.094  13.618   0.371
21703SOL     OW66947  11.367   2.741   8.554
21703SOL    HW166948  11.298   2.806   8.540
21703SOL    HW266949  11.321   2.657   8.555
21704SOL     OW66950   6.541   8.547   2.652
21704SOL    HW166951   6.485   8.617   2.616
21704SOL    HW266952   6.625   8.589   2.668
21705SOL     OW66953   9.793   1.872  12.973
21705SOL    HW166954   9.762   1.864  13.063
21705SOL    HW266955   9.867   1.932  12.978
21706SOL     OW66956   7.829   4.817   5.348
21706SOL    HW166957   7.848   4.774   5.432
21706SOL    HW266958   7.852   4.751   5.282
21707SOL     OW66959  13.727   0.063   0.242
21707SOL    HW166960  13.794   0.005   0.277
21707SOL    HW266961  13.727   0.046   0.148
21708SOL     OW66962  12.727   7.242   6.100
21708SOL    HW166963  12.774   7.299   6.161
21708SOL    HW266964  12.643   7.225   6.142
21709SOL     OW66965   6.243  13.705   9.570
21709SOL    HW166966   6.180  13.656   9.623
21709SOL    HW266967   6.216  13.796   9.577
21710SOL     OW66968   6.499   1.976   4.757
21710SOL    HW166969   6.572   1.935   4.710
21710SOL    HW266970   6.496   1.930   4.841
21711SOL     OW66971  12.258   6.948   8.032
21711SOL    HW166972  12.209   6.983   8.106
21711SOL    HW266973  12.208   6.871   8.004
21712SOL     OW66974  12.067  13.018   8.024
21712SOL    HW166975  12.002  13.035   7.955
21712SOL    HW266976  12.129  12.956   7.985
21713SOL     OW66977  10.219   7.453   7.020
21713SOL    HW166978  10.147   7.393   7.039
21713SOL    HW266979  10.276   7.447   7.097
21714SOL     OW66980  14.008   7.244  10.988
21714SOL    HW166981  13.937   7.251  11.052
21714SOL    HW266982  14.054   7.164  11.012
21715SOL     OW66983   1.023  11.439   1.573
21715SOL    HW166984   0.966  11.371   1.540
21715SOL    HW266985   1.084  11.393   1.632
21716SOL     OW66986   2.935   3.482   8.085
21716SOL    HW166987   3.010   3.516   8.036
21716SOL    HW266988   2.967   3.401   8.125
21717SOL     OW66989  12.671   6.544   9.677
21717SOL    HW166990  12.713   6.599   9.743
21717SOL    HW266991  12.731   6.546   9.602
21718SOL     OW66992  11.631  11.196   4.427
21718SOL    HW166993  11.542  11.225   4.409
21718SOL    HW266994  11.620  11.131   4.497
21719SOL     OW66995   8.082   4.634   0.972
21719SOL    HW166996   7.991   4.616   0.997
21719SOL    HW266997   8.134   4.593   1.042
21720SOL     OW66998   8.588   2.722   7.482
21720SOL    HW166999   8.539   2.723   7.565
21720SOL    HW267000   8.641   2.643   7.486
21721SOL     OW67001  13.749  12.459   9.654
21721SOL    HW167002  13.720  12.473   9.744
21721SOL    HW267003  13.698  12.522   9.603
21722SOL     OW67004   3.110  11.420   0.303
21722SOL    HW167005   3.199  11.446   0.277
21722SOL    HW267006   3.055  11.494   0.278
21723SOL     OW67007   2.288  13.586  10.582
21723SOL    HW167008   2.230  13.592  10.658
21723SOL    HW267009   2.244  13.638  10.514
21724SOL     OW67010   5.983  14.188   9.952
21724SOL    HW167011   5.945  14.172  10.038
21724SOL    HW267012   6.071  14.221   9.970
21725SOL     OW67013  12.315   1.867   4.248
21725SOL    HW167014  12.254   1.830   4.184
21725SOL    HW267015  12.376   1.797   4.267
21726SOL     OW67016  10.646   2.375   8.896
21726SOL    HW167017  10.733   2.411   8.910
21726SOL    HW267018  10.586   2.447   8.915
21727SOL     OW67019   8.584   5.179   6.060
21727SOL    HW167020   8.677   5.162   6.047
21727SOL    HW267021   8.580   5.266   6.099
21728SOL     OW67022  12.875   4.510   7.771
21728SOL    HW167023  12.920   4.527   7.688
21728SOL    HW267024  12.794   4.465   7.745
21729SOL     OW67025   9.389  12.291   8.056
21729SOL    HW167026   9.447  12.223   8.089
21729SOL    HW267027   9.312  12.288   8.113
21730SOL     OW67028   3.548  12.371   4.547
21730SOL    HW167029   3.481  12.317   4.589
21730SOL    HW267030   3.530  12.460   4.579
21731SOL     OW67031  14.434  13.079  14.376
21731SOL    HW167032  14.460  13.163  14.339
21731SOL    HW267033  14.489  13.068  14.454
21732SOL     OW67034   6.691   1.827   8.072
21732SOL    HW167035   6.596   1.837   8.071
21732SOL    HW267036   6.713   1.820   8.165
21733SOL     OW67037  14.010  13.264   8.887
21733SOL    HW167038  14.070  13.256   8.812
21733SOL    HW267039  14.059  13.229   8.961
21734SOL     OW67040   3.491   1.615  12.617
21734SOL    HW167041   3.442   1.697  12.615
21734SOL    HW267042   3.554   1.623  12.545
21735SOL     OW67043   0.061   6.427  11.373
21735SOL    HW167044   0.140   6.445  11.321
21735SOL    HW267045   0.086   6.352  11.428
21736SOL     OW67046   4.151   7.607   3.709
21736SOL    HW167047   4.099   7.574   3.783
21736SOL    HW267048   4.121   7.697   3.698
21737SOL     OW67049   7.856  10.372   2.709
21737SOL    HW167050   7.832  10.331   2.626
21737SOL    HW267051   7.776  10.413   2.741
21738SOL     OW67052  12.778  11.529  14.760
21738SOL    HW167053  12.711  11.593  14.740
21738SOL    HW267054  12.839  11.534  14.686
21739SOL     OW67055  12.256   5.290   2.797
21739SOL    HW167056  12.271   5.384   2.807
21739SOL    HW267057  12.244   5.277   2.703
21740SOL     OW67058   3.854   6.875   1.002
21740SOL    HW167059   3.886   6.938   1.066
21740SOL    HW267060   3.907   6.797   1.017
21741SOL     OW67061  12.342   4.561  13.914
21741SOL    HW167062  12.251   4.534  13.907
21741SOL    HW267063  12.389   4.500  13.856
21742SOL     OW67064   4.414  12.016   6.022
21742SOL    HW167065   4.371  11.948   6.074
21742SOL    HW267066   4.343  12.054   5.969
21743SOL     OW67067  11.744  11.870  14.189
21743SOL    HW167068  11.671  11.837  14.135
21743SOL    HW267069  11.732  11.965  14.190
21744SOL     OW67070   4.886   4.613   4.955
21744SOL    HW167071   4.889   4.673   4.880
21744SOL    HW267072   4.967   4.630   5.002
21745SOL     OW67073   4.940   9.012  12.448
21745SOL    HW167074   4.888   8.934  12.429
21745SOL    HW267075   4.971   8.999  12.538
21746SOL     OW67076  11.364  14.278   3.618
21746SOL    HW167077  11.318  14.345   3.668
21746SOL    HW267078  11.297  14.241   3.560
21747SOL     OW67079   3.012   1.164   9.517
21747SOL    HW167080   2.944   1.204   9.571
21747SOL    HW267081   2.963   1.115   9.450
21748SOL     OW67082   2.962   3.097   5.883
21748SOL    HW167083   3.043   3.135   5.850
21748SOL    HW267084   2.943   3.024   5.825
21749SOL     OW67085   9.849   9.692   3.577
21749SOL    HW167086   9.931   9.642   3.582
21749SOL    HW267087   9.877   9.782   3.558
21750SOL     OW67088   8.139  12.390  12.172
21750SOL    HW167089   8.043  12.388  12.181
21750SOL    HW267090   8.155  12.453  12.102
21751SOL     OW67091   7.270   2.674   2.680
21751SOL    HW167092   7.184   2.706   2.708
21751SOL    HW267093   7.258   2.650   2.589
21752SOL     OW67094   4.017   3.268  11.066
21752SOL    HW167095   4.101   3.243  11.028
21752SOL    HW267096   4.035   3.348  11.115
21753SOL     OW67097   1.836   2.840   0.717
21753SOL    HW167098   1.768   2.792   0.765
21753SOL    HW267099   1.794   2.866   0.635
21754SOL     OW67100   8.382   5.423  12.557
21754SOL    HW167101   8.401   5.332  12.534
21754SOL    HW267102   8.443   5.474  12.503
21755SOL     OW67103  12.244  11.419  10.057
21755SOL    HW167104  12.338  11.413  10.070
21755SOL    HW267105  12.234  11.447   9.966
21756SOL     OW67106  14.787   0.919   5.102
21756SOL    HW167107  14.776   0.974   5.024
21756SOL    HW267108   0.002   0.940   5.134
21757SOL     OW67109  10.655   7.416   6.926
21757SOL    HW167110  10.635   7.498   6.971
21757SOL    HW267111  10.746   7.398   6.947
21758SOL     OW67112  12.719   7.704   7.575
21758SOL    HW167113  12.674   7.743   7.649
21758SOL    HW267114  12.719   7.773   7.508
21759SOL     OW67115   1.928  13.450  13.136
21759SOL    HW167116   1.951  13.397  13.212
21759SOL    HW267117   1.838  13.424  13.115
21760SOL     OW67118  12.863  14.496   1.205
21760SOL    HW167119  12.886  14.525   1.294
21760SOL    HW267120  12.946  14.498   1.157
21761SOL     OW67121   3.151   6.905  11.719
21761SOL    HW167122   3.101   6.935  11.795
21761SOL    HW267123   3.205   6.834  11.752
21762SOL     OW67124  11.388   5.829   1.636
21762SOL    HW167125  11.469   5.848   1.589
21762SOL    HW267126  11.381   5.734   1.634
21763SOL     OW67127   9.840  10.604   9.813
21763SOL    HW167128   9.765  10.659   9.835
21763SOL    HW267129   9.878  10.580   9.897
21764SOL     OW67130  14.759   3.992  11.995
21764SOL    HW167131  14.710   3.913  11.973
21764SOL    HW267132  14.709   4.033  12.065
21765SOL     OW67133  13.447  13.222   6.685
21765SOL    HW167134  13.393  13.148   6.713
21765SOL    HW267135  13.444  13.219   6.589
21766SOL     OW67136  10.572  10.796   7.714
21766SOL    HW167137  10.484  10.759   7.724
21766SOL    HW267138  10.572  10.834   7.627
21767SOL     OW67139   6.053  12.944   7.004
21767SOL    HW167140   6.059  13.012   6.937
21767SOL    HW267141   6.018  12.868   6.958
21768SOL     OW67142  13.420   1.989   7.109
21768SOL    HW167143  13.421   2.066   7.052
21768SOL    HW267144  13.331   1.984   7.143
21769SOL     OW67145   6.359   6.532   4.252
21769SOL    HW167146   6.409   6.460   4.213
21769SOL    HW267147   6.307   6.491   4.320
21770SOL     OW67148   1.441   7.501  13.104
21770SOL    HW167149   1.395   7.507  13.020
21770SOL    HW267150   1.459   7.408  13.114
21771SOL     OW67151  13.856  13.816   0.969
21771SOL    HW167152  13.885  13.895   0.924
21771SOL    HW267153  13.909  13.813   1.048
21772SOL     OW67154  13.460  13.465  12.476
21772SOL    HW167155  13.490  13.386  12.432
21772SOL    HW267156  13.421  13.518  12.407
21773SOL     OW67157   3.645  10.251   1.389
21773SOL    HW167158   3.569  10.216   1.435
21773SOL    HW267159   3.609  10.310   1.323
21774SOL     OW67160   4.830   9.234  12.688
21774SOL    HW167161   4.875   9.157  12.721
21774SOL    HW267162   4.754   9.200  12.642
21775SOL     OW67163   1.922   9.596  11.792
21775SOL    HW167164   1.957   9.529  11.851
21775SOL    HW267165   1.872   9.655  11.849
21776SOL     OW67166   6.749   1.287  11.722
21776SOL    HW167167   6.709   1.211  11.681
21776SOL    HW267168   6.698   1.303  11.801
21777SOL     OW67169   3.901  12.779  10.399
21777SOL    HW167170   3.996  12.790  10.395
21777SOL    HW267171   3.887  12.705  10.458
21778SOL     OW67172   3.208   5.368   0.433
21778SOL    HW167173   3.241   5.426   0.365
21778SOL    HW267174   3.264   5.385   0.509
21779SOL     OW67175  12.246   2.926   7.690
21779SOL    HW167176  12.261   2.932   7.784
21779SOL    HW267177  12.151   2.936   7.680
21780SOL     OW67178   0.841   8.752  13.972
21780SOL    HW167179   0.841   8.732  14.066
21780SOL    HW267180   0.761   8.803  13.959
21781SOL     OW67181  12.975  10.553   0.209
21781SOL    HW167182  13.063  10.525   0.183
21781SOL    HW267183  12.977  10.649   0.202
21782SOL     OW67184  12.340  11.991   2.182
21782SOL    HW167185  12.265  12.030   2.228
21782SOL    HW267186  12.356  11.909   2.228
21783SOL     OW67187   8.006   4.637  13.815
21783SOL    HW167188   8.100   4.651  13.813
21783SOL    HW267189   7.973   4.698  13.881
21784SOL     OW67190  12.598  10.709   3.401
21784SOL    HW167191  12.574  10.735   3.490
21784SOL    HW267192  12.542  10.762   3.345
21785SOL     OW67193  14.354   2.321   5.863
21785SOL    HW167194  14.281   2.377   5.838
21785SOL    HW267195  14.404   2.374   5.924
21786SOL     OW67196   4.065   3.900   1.783
21786SOL    HW167197   4.039   3.920   1.693
21786SOL    HW267198   4.136   3.837   1.775
21787SOL     OW67199   3.356  13.539   0.309
21787SOL    HW167200   3.299  13.553   0.385
21787SOL    HW267201   3.443  13.523   0.346
21788SOL     OW67202   2.139  13.351   7.160
21788SOL    HW167203   2.095  13.291   7.220
21788SOL    HW267204   2.152  13.300   7.081
21789SOL     OW67205   2.368   3.774  12.469
21789SOL    HW167206   2.331   3.717  12.402
21789SOL    HW267207   2.418   3.839  12.420
21790SOL     OW67208   4.802   4.920   9.195
21790SOL    HW167209   4.746   4.902   9.271
21790SOL    HW267210   4.742   4.953   9.128
21791SOL     OW67211   1.603  12.097   3.880
21791SOL    HW167212   1.674  12.061   3.827
21791SOL    HW267213   1.646  12.159   3.939
21792SOL     OW67214  10.725   6.930   0.867
21792SOL    HW167215  10.641   6.927   0.821
21792SOL    HW267216  10.789   6.944   0.798
21793SOL     OW67217   2.434   0.205   9.614
21793SOL    HW167218   2.441   0.154   9.695
21793SOL    HW267219   2.511   0.180   9.563
21794SOL     OW67220  13.495   8.206  14.037
21794SOL    HW167221  13.469   8.297  14.023
21794SOL    HW267222  13.568   8.210  14.098
21795SOL     OW67223   8.308   6.451  11.203
21795SOL    HW167224   8.301   6.449  11.107
21795SOL    HW267225   8.227   6.493  11.232
21796SOL     OW67226   6.298   6.179   9.360
21796SOL    HW167227   6.375   6.218   9.317
21796SOL    HW267228   6.303   6.209   9.450
21797SOL     OW67229   2.734  10.695   2.466
21797SOL    HW167230   2.746  10.750   2.544
21797SOL    HW267231   2.716  10.608   2.500
21798SOL     OW67232   9.886  11.684   2.870
21798SOL    HW167233   9.894  11.602   2.821
21798SOL    HW267234   9.831  11.662   2.945
21799SOL     OW67235   8.430  14.393  13.722
21799SOL    HW167236   8.436  14.354  13.809
21799SOL    HW267237   8.339  14.424  13.717
21800SOL     OW67238  11.675   3.038  14.105
21800SOL    HW167239  11.694   2.979  14.032
21800SOL    HW267240  11.616   3.104  14.068
21801SOL     OW67241   4.080   7.211   8.251
21801SOL    HW167242   4.047   7.151   8.317
21801SOL    HW267243   4.071   7.298   8.290
21802SOL     OW67244   5.444   0.509   9.264
21802SOL    HW167245   5.444   0.575   9.194
21802SOL    HW267246   5.486   0.433   9.224
21803SOL     OW67247   3.536   0.372  13.146
21803SOL    HW167248   3.552   0.301  13.084
21803SOL    HW267249   3.493   0.329  13.220
21804SOL     OW67250  14.767   7.422  13.870
21804SOL    HW167251  14.716   7.502  13.885
21804SOL    HW267252  14.759   7.405  13.776
21805SOL     OW67253   5.697   2.768   4.627
21805SOL    HW167254   5.698   2.685   4.579
21805SOL    HW267255   5.743   2.829   4.571
21806SOL     OW67256   3.600   7.352  12.995
21806SOL    HW167257   3.545   7.371  12.919
21806SOL    HW267258   3.670   7.417  12.991
21807SOL     OW67259  13.578  14.737   5.424
21807SOL    HW167260  13.561  14.829   5.444
21807SOL    HW267261  13.494  14.702   5.396
21808SOL     OW67262   2.251   4.318  10.284
21808SOL    HW167263   2.307   4.343  10.358
21808SOL    HW267264   2.250   4.396  10.228
21809SOL     OW67265   7.251   9.681   7.903
21809SOL    HW167266   7.186   9.614   7.925
21809SOL    HW267267   7.301   9.693   7.983
21810SOL     OW67268   7.665   5.332  13.763
21810SOL    HW167269   7.586   5.352  13.712
21810SOL    HW267270   7.731   5.391  13.727
21811SOL     OW67271   2.765   2.958  11.707
21811SOL    HW167272   2.809   2.945  11.791
21811SOL    HW267273   2.822   3.019  11.659
21812SOL     OW67274  12.867   1.399   5.133
21812SOL    HW167275  12.794   1.340   5.115
21812SOL    HW267276  12.832   1.462   5.197
21813SOL     OW67277   8.635   7.495  12.942
21813SOL    HW167278   8.626   7.590  12.949
21813SOL    HW267279   8.727   7.482  12.919
21814SOL     OW67280   8.823   5.161   5.056
21814SOL    HW167281   8.803   5.140   5.148
21814SOL    HW267282   8.825   5.257   5.054
21815SOL     OW67283   2.477   7.610  12.184
21815SOL    HW167284   2.414   7.663  12.136
21815SOL    HW267285   2.563   7.639  12.153
21816SOL     OW67286   5.851   3.891   9.129
21816SOL    HW167287   5.762   3.899   9.164
21816SOL    HW267288   5.885   3.980   9.129
21817SOL     OW67289  14.263  10.981   8.292
21817SOL    HW167290  14.304  11.042   8.354
21817SOL    HW267291  14.170  10.985   8.312
21818SOL     OW67292   0.077   9.558   4.957
21818SOL    HW167293   0.006   9.609   4.996
21818SOL    HW267294   0.035   9.512   4.883
21819SOL     OW67295  13.964  14.828   3.957
21819SOL    HW167296  13.918  14.859   4.035
21819SOL    HW267297  13.924   0.002   3.884
21820SOL     OW67298   0.577   8.093  11.309
21820SOL    HW167299   0.586   8.076  11.402
21820SOL    HW267300   0.576   8.188  11.302
21821SOL     OW67301   9.156   9.561   4.319
21821SOL    HW167302   9.214   9.487   4.338
21821SOL    HW267303   9.215   9.635   4.306
21822SOL     OW67304  14.804   7.030   7.290
21822SOL    HW167305  14.817   7.104   7.231
21822SOL    HW267306  14.773   7.069   7.372
21823SOL     OW67307   4.734   7.252   4.950
21823SOL    HW167308   4.747   7.176   4.894
21823SOL    HW267309   4.639   7.266   4.950
21824SOL     OW67310   3.689  14.572   4.105
21824SOL    HW167311   3.700  14.572   4.200
21824SOL    HW267312   3.752  14.637   4.073
21825SOL     OW67313   3.293   9.456   6.556
21825SOL    HW167314   3.199   9.458   6.536
21825SOL    HW267315   3.326   9.381   6.508
21826SOL     OW67316  11.350   0.959   0.702
21826SOL    HW167317  11.320   1.025   0.640
21826SOL    HW267318  11.320   0.990   0.787
21827SOL     OW67319   1.072   4.592  13.007
21827SOL    HW167320   1.118   4.578  12.925
21827SOL    HW267321   1.132   4.644  13.060
21828SOL     OW67322   3.652   9.933  10.866
21828SOL    HW167323   3.702  10.011  10.889
21828SOL    HW267324   3.574   9.937  10.922
21829SOL     OW67325  13.382  12.616   5.791
21829SOL    HW167326  13.362  12.585   5.879
21829SOL    HW267327  13.456  12.676   5.803
21830SOL     OW67328   4.988  13.818   7.405
21830SOL    HW167329   4.992  13.745   7.343
21830SOL    HW267330   4.943  13.887   7.356
21831SOL     OW67331  13.656  12.683   5.871
21831SOL    HW167332  13.661  12.775   5.845
21831SOL    HW267333  13.668  12.634   5.789
21832SOL     OW67334   7.255  14.397  14.185
21832SOL    HW167335   7.171  14.383  14.227
21832SOL    HW267336   7.317  14.411  14.257
21833SOL     OW67337  13.973  11.771   6.936
21833SOL    HW167338  13.902  11.828   6.964
21833SOL    HW267339  14.048  11.830   6.925
21834SOL     OW67340   7.770  11.977   0.615
21834SOL    HW167341   7.801  11.963   0.705
21834SOL    HW267342   7.851  11.986   0.564
21835SOL     OW67343   6.611   6.709   2.998
21835SOL    HW167344   6.554   6.652   3.051
21835SOL    HW267345   6.642   6.653   2.927
21836SOL     OW67346  14.228   8.973   2.203
21836SOL    HW167347  14.140   8.968   2.166
21836SOL    HW267348  14.214   8.976   2.297
21837SOL     OW67349   3.513   3.030   1.229
21837SOL    HW167350   3.498   3.113   1.184
21837SOL    HW267351   3.452   2.969   1.188
21838SOL     OW67352   7.462   0.815  11.318
21838SOL    HW167353   7.429   0.807  11.228
21838SOL    HW267354   7.480   0.725  11.345
21839SOL     OW67355   9.390   5.951   5.665
21839SOL    HW167356   9.364   6.041   5.684
21839SOL    HW267357   9.485   5.954   5.661
21840SOL     OW67358  10.385   2.900   2.699
21840SOL    HW167359  10.363   2.984   2.740
21840SOL    HW267360  10.301   2.868   2.666
21841SOL     OW67361   3.377   4.684   8.552
21841SOL    HW167362   3.429   4.658   8.476
21841SOL    HW267363   3.440   4.728   8.610
21842SOL     OW67364  11.659   6.998  14.385
21842SOL    HW167365  11.715   7.020  14.459
21842SOL    HW267366  11.712   7.014  14.308
21843SOL     OW67367   1.999   7.046   7.182
21843SOL    HW167368   1.982   6.965   7.135
21843SOL    HW267369   1.960   7.033   7.268
21844SOL     OW67370   6.069  14.671   0.529
21844SOL    HW167371   6.076  14.722   0.610
21844SOL    HW267372   6.117  14.721   0.464
21845SOL     OW67373  10.954   6.501   7.653
21845SOL    HW167374  10.954   6.596   7.658
21845SOL    HW267375  11.018   6.473   7.719
21846SOL     OW67376   7.435  11.597  14.319
21846SOL    HW167377   7.351  11.624  14.281
21846SOL    HW267378   7.488  11.677  14.317
21847SOL     OW67379   1.266   7.620   9.989
21847SOL    HW167380   1.317   7.643  10.067
21847SOL    HW267381   1.186   7.672   9.996
21848SOL     OW67382   0.174   2.425   4.068
21848SOL    HW167383   0.179   2.352   4.129
21848SOL    HW267384   0.158   2.385   3.983
21849SOL     OW67385   7.121  14.421   8.893
21849SOL    HW167386   7.116  14.344   8.949
21849SOL    HW267387   7.067  14.486   8.936
21850SOL     OW67388  13.444  13.243   3.713
21850SOL    HW167389  13.460  13.251   3.619
21850SOL    HW267390  13.527  13.267   3.753
21851SOL     OW67391   5.016  12.163  11.672
21851SOL    HW167392   4.998  12.206  11.755
21851SOL    HW267393   5.076  12.092  11.694
21852SOL     OW67394   9.907  10.190   0.503
21852SOL    HW167395   9.999  10.174   0.480
21852SOL    HW267396   9.902  10.167   0.596
21853SOL     OW67397   4.570   5.299   0.987
21853SOL    HW167398   4.658   5.273   0.960
21853SOL    HW267399   4.575   5.395   0.993
21854SOL     OW67400   3.845  14.796   8.763
21854SOL    HW167401   3.936  14.802   8.793
21854SOL    HW267402   3.841  14.856   8.689
21855SOL     OW67403   8.401   6.371   8.326
21855SOL    HW167404   8.432   6.451   8.368
21855SOL    HW267405   8.481   6.323   8.304
21856SOL     OW67406  11.000  11.657   4.005
21856SOL    HW167407  11.004  11.743   4.046
21856SOL    HW267408  10.979  11.597   4.077
21857SOL     OW67409  11.609  11.591   2.121
21857SOL    HW167410  11.563  11.586   2.037
21857SOL    HW267411  11.649  11.505   2.132
21858SOL     OW67412   0.143  14.278   5.638
21858SOL    HW167413   0.214  14.219   5.663
21858SOL    HW267414   0.139  14.343   5.708
21859SOL     OW67415  10.670   8.930  12.771
21859SOL    HW167416  10.764   8.917  12.784
21859SOL    HW267417  10.654   9.018  12.805
21860SOL     OW67418   6.858   7.582   4.968
21860SOL    HW167419   6.943   7.581   5.012
21860SOL    HW267420   6.824   7.670   4.984
21861SOL     OW67421  10.728   1.638   5.162
21861SOL    HW167422  10.772   1.702   5.105
21861SOL    HW267423  10.752   1.666   5.250
21862SOL     OW67424  12.567   3.629   1.689
21862SOL    HW167425  12.602   3.541   1.705
21862SOL    HW267426  12.473   3.615   1.674
21863SOL     OW67427   1.188  12.450   1.436
21863SOL    HW167428   1.224  12.419   1.353
21863SOL    HW267429   1.245  12.412   1.503
21864SOL     OW67430   8.176  10.199   8.235
21864SOL    HW167431   8.202  10.143   8.309
21864SOL    HW267432   8.259  10.220   8.192
21865SOL     OW67433  11.290   6.493   8.965
21865SOL    HW167434  11.223   6.491   9.034
21865SOL    HW267435  11.240   6.510   8.885
21866SOL     OW67436   9.523  10.491   3.740
21866SOL    HW167437   9.498  10.515   3.829
21866SOL    HW267438   9.463  10.421   3.716
21867SOL     OW67439   3.019  10.481   0.593
21867SOL    HW167440   3.091  10.505   0.652
21867SOL    HW267441   3.013  10.555   0.532
21868SOL     OW67442   2.793   1.334   7.932
21868SOL    HW167443   2.751   1.337   7.846
21868SOL    HW267444   2.857   1.405   7.930
21869SOL     OW67445   0.821   3.812   5.664
21869SOL    HW167446   0.781   3.789   5.748
21869SOL    HW267447   0.840   3.905   5.671
21870SOL     OW67448   6.400  11.087  14.233
21870SOL    HW167449   6.378  11.172  14.196
21870SOL    HW267450   6.476  11.057  14.183
21871SOL     OW67451   0.846   9.999   1.596
21871SOL    HW167452   0.823  10.092   1.592
21871SOL    HW267453   0.818   9.965   1.511
21872SOL     OW67454   0.853   6.723   6.496
21872SOL    HW167455   0.897   6.805   6.472
21872SOL    HW267456   0.924   6.660   6.506
21873SOL     OW67457   8.175   8.098   5.994
21873SOL    HW167458   8.103   8.047   5.956
21873SOL    HW267459   8.137   8.185   6.007
21874SOL     OW67460  10.044  10.438   2.419
21874SOL    HW167461   9.977  10.435   2.488
21874SOL    HW267462  10.067  10.346   2.405
21875SOL     OW67463   5.095   6.877   6.354
21875SOL    HW167464   5.109   6.827   6.434
21875SOL    HW267465   5.179   6.872   6.308
21876SOL     OW67466   1.628  14.318   5.341
21876SOL    HW167467   1.708  14.368   5.327
21876SOL    HW267468   1.659  14.232   5.371
21877SOL     OW67469   5.464   0.684  12.489
21877SOL    HW167470   5.381   0.723  12.462
21877SOL    HW267471   5.486   0.730  12.571
21878SOL     OW67472  10.964  11.896   5.744
21878SOL    HW167473  11.059  11.902   5.757
21878SOL    HW267474  10.926  11.931   5.825
21879SOL     OW67475   3.016   5.019   0.702
21879SOL    HW167476   3.036   5.016   0.609
21879SOL    HW267477   3.010   4.926   0.728
21880SOL     OW67478  10.494   4.957   5.347
21880SOL    HW167479  10.406   4.954   5.385
21880SOL    HW267480  10.518   4.865   5.333
21881SOL     OW67481  10.715  13.000  12.468
21881SOL    HW167482  10.793  13.045  12.500
21881SOL    HW267483  10.642  13.052  12.500
21882SOL     OW67484   6.655   5.558   4.026
21882SOL    HW167485   6.602   5.528   3.951
21882SOL    HW267486   6.629   5.500   4.098
21883SOL     OW67487  11.703   5.143  13.493
21883SOL    HW167488  11.778   5.114  13.441
21883SOL    HW267489  11.737   5.150  13.582
21884SOL     OW67490   6.192   7.212   9.241
21884SOL    HW167491   6.269   7.194   9.187
21884SOL    HW267492   6.207   7.299   9.277
21885SOL     OW67493   9.335   6.903  12.183
21885SOL    HW167494   9.357   6.818  12.146
21885SOL    HW267495   9.401   6.963  12.148
21886SOL     OW67496   3.455   2.694   9.100
21886SOL    HW167497   3.513   2.715   9.174
21886SOL    HW267498   3.409   2.776   9.082
21887SOL     OW67499   4.018   9.149  12.667
21887SOL    HW167500   4.096   9.123  12.716
21887SOL    HW267501   4.003   9.240  12.692
21888SOL     OW67502   1.649   5.891   1.351
21888SOL    HW167503   1.574   5.934   1.391
21888SOL    HW267504   1.706   5.870   1.425
21889SOL     OW67505   2.456   4.281  14.815
21889SOL    HW167506   2.399   4.212  14.781
21889SOL    HW267507   2.448   4.352  14.751
21890SOL     OW67508   3.716   7.817   3.094
21890SOL    HW167509   3.662   7.753   3.142
21890SOL    HW267510   3.793   7.829   3.150
21891SOL     OW67511  13.047  12.106  10.161
21891SOL    HW167512  13.101  12.144  10.230
21891SOL    HW267513  13.042  12.174  10.094
21892SOL     OW67514  12.672   5.426   7.152
21892SOL    HW167515  12.638   5.461   7.070
21892SOL    HW267516  12.717   5.345   7.127
21893SOL     OW67517  13.335   9.669   7.043
21893SOL    HW167518  13.395   9.681   6.969
21893SOL    HW267519  13.390   9.679   7.120
21894SOL     OW67520   8.294   2.410   7.867
21894SOL    HW167521   8.314   2.437   7.956
21894SOL    HW267522   8.217   2.462   7.843
21895SOL     OW67523   5.580   7.508  10.823
21895SOL    HW167524   5.526   7.443  10.780
21895SOL    HW267525   5.670   7.486  10.797
21896SOL     OW67526   5.319   2.113   4.558
21896SOL    HW167527   5.332   2.201   4.592
21896SOL    HW267528   5.253   2.123   4.489
21897SOL     OW67529  11.280  10.146  10.482
21897SOL    HW167530  11.214  10.110  10.423
21897SOL    HW267531  11.267  10.241  10.478
21898SOL     OW67532   5.799   4.161   6.125
21898SOL    HW167533   5.717   4.206   6.106
21898SOL    HW267534   5.853   4.175   6.048
21899SOL     OW67535   4.228  12.761  11.295
21899SOL    HW167536   4.290  12.791  11.362
21899SOL    HW267537   4.179  12.690  11.338
21900SOL     OW67538   8.183  11.647   2.645
21900SOL    HW167539   8.150  11.557   2.645
21900SOL    HW267540   8.105  11.701   2.658
21901SOL     OW67541   8.321  10.628   6.530
21901SOL    HW167542   8.314  10.610   6.623
21901SOL    HW267543   8.310  10.723   6.523
21902SOL     OW67544   7.358   6.463   1.692
21902SOL    HW167545   7.371   6.540   1.748
21902SOL    HW267546   7.395   6.488   1.608
21903SOL     OW67547   5.848   8.244  14.353
21903SOL    HW167548   5.940   8.252  14.327
21903SOL    HW267549   5.849   8.246  14.448
21904SOL     OW67550   6.807   7.070   9.310
21904SOL    HW167551   6.892   7.026   9.318
21904SOL    HW267552   6.758   7.040   9.386
21905SOL     OW67553   4.033  14.133   2.944
21905SOL    HW167554   3.965  14.169   3.000
21905SOL    HW267555   4.110  14.187   2.961
21906SOL     OW67556   8.899   0.609  12.703
21906SOL    HW167557   8.880   0.681  12.643
21906SOL    HW267558   8.831   0.544  12.684
21907SOL     OW67559  14.189  14.655   5.877
21907SOL    HW167560  14.207  14.651   5.783
21907SOL    HW267561  14.275  14.666   5.918
21908SOL     OW67562  14.548  12.991   1.639
21908SOL    HW167563  14.481  13.025   1.580
21908SOL    HW267564  14.500  12.969   1.719
21909SOL     OW67565   3.203  12.580   0.873
21909SOL    HW167566   3.118  12.563   0.833
21909SOL    HW267567   3.251  12.631   0.808
21910SOL     OW67568   5.459  11.233   7.120
21910SOL    HW167569   5.520  11.181   7.172
21910SOL    HW267570   5.380  11.179   7.114
21911SOL     OW67571  12.888  11.319   5.457
21911SOL    HW167572  12.855  11.344   5.543
21911SOL    HW267573  12.957  11.255   5.476
21912SOL     OW67574   3.616   2.385  14.407
21912SOL    HW167575   3.646   2.423  14.489
21912SOL    HW267576   3.695   2.350  14.366
21913SOL     OW67577   7.279  10.054   5.636
21913SOL    HW167578   7.227   9.975   5.653
21913SOL    HW267579   7.256  10.112   5.708
21914SOL     OW67580  11.169   1.037   6.325
21914SOL    HW167581  11.199   1.039   6.416
21914SOL    HW267582  11.089   1.089   6.325
21915SOL     OW67583  13.361   3.365   6.569
21915SOL    HW167584  13.370   3.285   6.620
21915SOL    HW267585  13.267   3.384   6.569
21916SOL     OW67586  12.613   5.967   1.978
21916SOL    HW167587  12.558   5.968   1.900
21916SOL    HW267588  12.695   5.927   1.950
21917SOL     OW67589   1.104   1.329   6.564
21917SOL    HW167590   1.079   1.274   6.638
21917SOL    HW267591   1.192   1.300   6.541
21918SOL     OW67592   9.273   5.767   3.739
21918SOL    HW167593   9.210   5.774   3.667
21918SOL    HW267594   9.344   5.826   3.713
21919SOL     OW67595  10.041   0.111   5.753
21919SOL    HW167596   9.995   0.186   5.791
21919SOL    HW267597  10.112   0.093   5.815
21920SOL     OW67598   0.330   1.287  12.384
21920SOL    HW167599   0.419   1.272  12.417
21920SOL    HW267600   0.307   1.374  12.417
21921SOL     OW67601   6.327   1.946   0.946
21921SOL    HW167602   6.364   1.957   1.034
21921SOL    HW267603   6.374   2.010   0.892
21922SOL     OW67604   0.868   8.464   4.949
21922SOL    HW167605   0.925   8.388   4.963
21922SOL    HW267606   0.797   8.430   4.894
21923SOL     OW67607   5.796  13.321   9.161
21923SOL    HW167608   5.839  13.393   9.115
21923SOL    HW267609   5.831  13.325   9.250
21924SOL     OW67610   7.855  10.707   9.645
21924SOL    HW167611   7.806  10.784   9.674
21924SOL    HW267612   7.930  10.702   9.704
21925SOL     OW67613   1.216   6.252   6.150
21925SOL    HW167614   1.200   6.186   6.083
21925SOL    HW267615   1.308   6.240   6.175
21926SOL     OW67616   1.848  10.555   2.194
21926SOL    HW167617   1.913  10.571   2.125
21926SOL    HW267618   1.896  10.505   2.260
21927SOL     OW67619   5.564   8.666  14.086
21927SOL    HW167620   5.635   8.602  14.089
21927SOL    HW267621   5.579   8.722  14.162
21928SOL     OW67622   8.112   5.519   3.385
21928SOL    HW167623   8.144   5.475   3.464
21928SOL    HW267624   8.191   5.547   3.339
21929SOL     OW67625   1.437   9.747   2.309
21929SOL    HW167626   1.389   9.814   2.261
21929SOL    HW267627   1.386   9.667   2.297
21930SOL     OW67628   8.195   7.641  14.770
21930SOL    HW167629   8.223   7.606  14.686
21930SOL    HW267630   8.234   7.582  14.835
21931SOL     OW67631   0.048   3.718   3.478
21931SOL    HW167632   0.142   3.698   3.484
21931SOL    HW267633   0.044   3.813   3.484
21932SOL     OW67634   3.981   2.075   0.957
21932SOL    HW167635   3.988   1.980   0.967
21932SOL    HW267636   3.918   2.102   1.024
21933SOL     OW67637   0.942   5.109   0.987
21933SOL    HW167638   0.961   5.187   1.040
21933SOL    HW267639   0.942   5.141   0.897
21934SOL     OW67640  11.994   5.055   0.566
21934SOL    HW167641  12.042   5.003   0.630
21934SOL    HW267642  12.045   5.047   0.485
21935SOL     OW67643   0.710   4.787   9.607
21935SOL    HW167644   0.624   4.790   9.650
21935SOL    HW267645   0.766   4.742   9.669
21936SOL     OW67646   4.363   0.166   8.600
21936SOL    HW167647   4.331   0.249   8.637
21936SOL    HW267648   4.361   0.105   8.674
21937SOL     OW67649  10.468   4.082   5.683
21937SOL    HW167650  10.526   4.012   5.712
21937SOL    HW267651  10.523   4.161   5.689
21938SOL     OW67652  13.576  11.104  11.218
21938SOL    HW167653  13.620  11.073  11.139
21938SOL    HW267654  13.645  11.145  11.269
21939SOL     OW67655   3.291   2.529  10.799
21939SOL    HW167656   3.223   2.477  10.843
21939SOL    HW267657   3.254   2.547  10.712
21940SOL     OW67658  10.776   1.912  11.049
21940SOL    HW167659  10.727   1.914  11.131
21940SOL    HW267660  10.867   1.930  11.074
21941SOL     OW67661  13.479   1.200   0.203
21941SOL    HW167662  13.534   1.178   0.278
21941SOL    HW267663  13.528   1.167   0.127
21942SOL     OW67664   4.486  12.082  12.770
21942SOL    HW167665   4.576  12.059  12.746
21942SOL    HW267666   4.496  12.153  12.834
21943SOL     OW67667  11.771   8.122   8.306
21943SOL    HW167668  11.768   8.027   8.308
21943SOL    HW267669  11.703   8.147   8.243
21944SOL     OW67670   6.102  11.257  11.188
21944SOL    HW167671   6.180  11.246  11.133
21944SOL    HW267672   6.035  11.205  11.144
21945SOL     OW67673   4.877   1.885   4.498
21945SOL    HW167674   4.881   1.827   4.573
21945SOL    HW267675   4.786   1.911   4.492
21946SOL     OW67676   4.063   1.354   3.031
21946SOL    HW167677   4.016   1.288   3.081
21946SOL    HW267678   4.047   1.331   2.939
21947SOL     OW67679  10.727  14.766  11.710
21947SOL    HW167680  10.784  14.691  11.728
21947SOL    HW267681  10.776  14.842  11.742
21948SOL     OW67682   6.645   1.699   3.100
21948SOL    HW167683   6.567   1.648   3.120
21948SOL    HW267684   6.689   1.648   3.032
21949SOL     OW67685   4.036   8.608   0.673
21949SOL    HW167686   4.091   8.685   0.687
21949SOL    HW267687   4.053   8.552   0.748
21950SOL     OW67688   7.292   4.260  14.826
21950SOL    HW167689   7.224   4.309  14.873
21950SOL    HW267690   7.315   4.189   0.013
21951SOL     OW67691  13.323   8.578   3.533
21951SOL    HW167692  13.408   8.596   3.572
21951SOL    HW267693  13.335   8.495   3.487
21952SOL     OW67694   7.957   0.268  14.688
21952SOL    HW167695   8.006   0.276  14.606
21952SOL    HW267696   7.939   0.175  14.696
21953SOL     OW67697  13.659   8.618   8.958
21953SOL    HW167698  13.679   8.644   8.868
21953SOL    HW267699  13.587   8.556   8.950
21954SOL     OW67700   8.811  12.597   6.848
21954SOL    HW167701   8.888  12.627   6.799
21954SOL    HW267702   8.845  12.531   6.908
21955SOL     OW67703   6.248   1.277   5.226
21955SOL    HW167704   6.153   1.277   5.214
21955SOL    HW267705   6.270   1.368   5.247
21956SOL     OW67706   1.601  12.980   7.505
21956SOL    HW167707   1.612  13.073   7.520
21956SOL    HW267708   1.540  12.951   7.573
21957SOL     OW67709   9.385  12.492   0.389
21957SOL    HW167710   9.444  12.423   0.418
21957SOL    HW267711   9.443  12.564   0.365
21958SOL     OW67712   4.160   5.343   0.598
21958SOL    HW167713   4.234   5.351   0.658
21958SOL    HW267714   4.123   5.257   0.618
21959SOL     OW67715   0.323  10.109  12.238
21959SOL    HW167716   0.319  10.205  12.241
21959SOL    HW267717   0.416  10.089  12.222
21960SOL     OW67718   9.545  10.048   0.809
21960SOL    HW167719   9.611   9.993   0.852
21960SOL    HW267720   9.581  10.136   0.815
21961SOL     OW67721   8.970  11.540  10.395
21961SOL    HW167722   9.039  11.512  10.455
21961SOL    HW267723   8.888  11.520  10.441
21962SOL     OW67724   1.887  14.673   0.740
21962SOL    HW167725   1.953  14.631   0.794
21962SOL    HW267726   1.916  14.764   0.734
21963SOL     OW67727   9.481  14.629   6.684
21963SOL    HW167728   9.456  14.645   6.593
21963SOL    HW267729   9.571  14.660   6.691
21964SOL     OW67730   9.405   5.623   9.175
21964SOL    HW167731   9.363   5.704   9.205
21964SOL    HW267732   9.366   5.554   9.228
21965SOL     OW67733   8.054  13.421   1.264
21965SOL    HW167734   7.998  13.345   1.243
21965SOL    HW267735   8.097  13.442   1.182
21966SOL     OW67736  12.046   7.352   0.290
21966SOL    HW167737  12.022   7.437   0.253
21966SOL    HW267738  12.084   7.374   0.375
21967SOL     OW67739  13.222   9.557   9.128
21967SOL    HW167740  13.225   9.461   9.128
21967SOL    HW267741  13.160   9.579   9.197
21968SOL     OW67742   5.672  11.307   1.052
21968SOL    HW167743   5.672  11.359   1.133
21968SOL    HW267744   5.765  11.299   1.030
21969SOL     OW67745   3.394  13.017   8.501
21969SOL    HW167746   3.474  12.993   8.456
21969SOL    HW267747   3.341  12.937   8.501
21970SOL     OW67748  12.183   5.748  11.361
21970SOL    HW167749  12.187   5.753  11.457
21970SOL    HW267750  12.090   5.748  11.341
21971SOL     OW67751  14.604   0.090  11.601
21971SOL    HW167752  14.546   0.164  11.617
21971SOL    HW267753  14.609   0.044  11.685
21972SOL     OW67754   2.457  11.491   5.477
21972SOL    HW167755   2.387  11.556   5.484
21972SOL    HW267756   2.525  11.522   5.538
21973SOL     OW67757  13.183  12.471  13.641
21973SOL    HW167758  13.204  12.454  13.549
21973SOL    HW267759  13.094  12.505  13.640
21974SOL     OW67760  12.292  14.348   9.800
21974SOL    HW167761  12.281  14.406   9.875
21974SOL    HW267762  12.380  14.366   9.768
21975SOL     OW67763   4.078  13.460  12.861
21975SOL    HW167764   4.162  13.474  12.818
21975SOL    HW267765   4.083  13.512  12.941
21976SOL     OW67766  13.498   7.887   3.915
21976SOL    HW167767  13.509   7.806   3.865
21976SOL    HW267768  13.501   7.860   4.006
21977SOL     OW67769   3.190   2.983   8.795
21977SOL    HW167770   3.258   2.999   8.729
21977SOL    HW267771   3.123   3.048   8.776
21978SOL     OW67772  14.427   6.038   6.296
21978SOL    HW167773  14.452   6.087   6.374
21978SOL    HW267774  14.406   5.951   6.328
21979SOL     OW67775   1.447   9.438   6.921
21979SOL    HW167776   1.478   9.373   6.985
21979SOL    HW267777   1.524   9.490   6.900
21980SOL     OW67778   7.683   5.387   6.765
21980SOL    HW167779   7.599   5.349   6.740
21980SOL    HW267780   7.716   5.330   6.834
21981SOL     OW67781   3.303   9.937   9.356
21981SOL    HW167782   3.333   9.985   9.279
21981SOL    HW267783   3.301  10.002   9.426
21982SOL     OW67784   0.333  13.643   5.751
21982SOL    HW167785   0.243  13.675   5.758
21982SOL    HW267786   0.351  13.604   5.836
21983SOL     OW67787   3.207  10.582   6.475
21983SOL    HW167788   3.209  10.491   6.507
21983SOL    HW267789   3.147  10.580   6.401
21984SOL     OW67790   5.254   0.840   0.515
21984SOL    HW167791   5.346   0.821   0.497
21984SOL    HW267792   5.217   0.756   0.541
21985SOL     OW67793  10.587   2.242   6.682
21985SOL    HW167794  10.569   2.211   6.593
21985SOL    HW267795  10.680   2.226   6.694
21986SOL     OW67796   2.594  14.751  10.664
21986SOL    HW167797   2.592  14.685  10.595
21986SOL    HW267798   2.546  14.825  10.627
21987SOL     OW67799   3.778   8.117   8.816
21987SOL    HW167800   3.842   8.102   8.885
21987SOL    HW267801   3.721   8.040   8.820
21988SOL     OW67802   0.298  14.732   1.115
21988SOL    HW167803   0.370  14.718   1.053
21988SOL    HW267804   0.225  14.684   1.077
21989SOL     OW67805  13.990   4.232   0.467
21989SOL    HW167806  14.081   4.258   0.476
21989SOL    HW267807  13.983   4.149   0.514
21990SOL     OW67808   3.560  12.592  14.348
21990SOL    HW167809   3.540  12.649  14.422
21990SOL    HW267810   3.491  12.611  14.284
21991SOL     OW67811   8.840   3.267  10.044
21991SOL    HW167812   8.810   3.221   9.966
21991SOL    HW267813   8.846   3.199  10.111
21992SOL     OW67814   1.586   1.337  13.640
21992SOL    HW167815   1.567   1.252  13.679
21992SOL    HW267816   1.522   1.347  13.570
21993SOL     OW67817   2.528   3.917   7.533
21993SOL    HW167818   2.534   3.849   7.600
21993SOL    HW267819   2.434   3.932   7.524
21994SOL     OW67820   9.414   7.226  12.936
21994SOL    HW167821   9.364   7.147  12.956
21994SOL    HW267822   9.445   7.256  13.022
21995SOL     OW67823   8.331   9.841  13.309
21995SOL    HW167824   8.272   9.885  13.248
21995SOL    HW267825   8.320   9.887  13.392
21996SOL     OW67826  13.612   0.647   2.512
21996SOL    HW167827  13.680   0.612   2.569
21996SOL    HW267828  13.557   0.571   2.490
21997SOL     OW67829  14.773  11.386   0.645
21997SOL    HW167830  14.803  11.439   0.718
21997SOL    HW267831  14.679  11.403   0.640
21998SOL     OW67832   9.055  10.212   8.170
21998SOL    HW167833   9.056  10.297   8.214
21998SOL    HW267834   8.987  10.220   8.103
21999SOL     OW67835   8.418   6.099   7.964
21999SOL    HW167836   8.325   6.076   7.967
21999SOL    HW267837   8.429   6.143   7.880
22000SOL     OW67838   4.047   9.370   4.472
22000SOL    HW167839   4.091   9.287   4.493
22000SOL    HW267840   4.116   9.425   4.435
22001SOL     OW67841  14.337  13.737  14.642
22001SOL    HW167842  14.323  13.681  14.566
22001SOL    HW267843  14.256  13.729  14.693
22002SOL     OW67844   3.666   2.496   0.014
22002SOL    HW167845   3.753   2.529   0.038
22002SOL    HW267846   3.658   2.413   0.061
22003SOL     OW67847   6.950   1.868   4.004
22003SOL    HW167848   7.016   1.839   4.068
22003SOL    HW267849   6.902   1.788   3.981
22004SOL     OW67850   7.062   1.610   8.862
22004SOL    HW167851   7.014   1.676   8.911
22004SOL    HW267852   7.151   1.616   8.894
22005SOL     OW67853   7.497  11.502   2.806
22005SOL    HW167854   7.574  11.550   2.776
22005SOL    HW267855   7.463  11.459   2.728
22006SOL     OW67856  11.127   0.440   1.788
22006SOL    HW167857  11.131   0.409   1.697
22006SOL    HW267858  11.056   0.504   1.788
22007SOL     OW67859  13.261   4.172   5.817
22007SOL    HW167860  13.172   4.153   5.847
22007SOL    HW267861  13.249   4.209   5.730
22008SOL     OW67862   7.948  10.738   3.745
22008SOL    HW167863   7.970  10.663   3.800
22008SOL    HW267864   7.852  10.740   3.743
22009SOL     OW67865   6.726   0.265  11.596
22009SOL    HW167866   6.804   0.318  11.584
22009SOL    HW267867   6.699   0.240  11.508
22010SOL     OW67868   7.051   7.181   7.896
22010SOL    HW167869   7.142   7.157   7.915
22010SOL    HW267870   7.017   7.108   7.845
22011SOL     OW67871  12.367   1.419   3.342
22011SOL    HW167872  12.332   1.449   3.426
22011SOL    HW267873  12.461   1.437   3.347
22012SOL     OW67874  12.039  12.360  14.682
22012SOL    HW167875  11.996  12.443  14.703
22012SOL    HW267876  12.006  12.298  14.748
22013SOL     OW67877   0.467  10.901   0.746
22013SOL    HW167878   0.411  10.845   0.693
22013SOL    HW267879   0.409  10.936   0.814
22014SOL     OW67880  10.614   8.271  14.792
22014SOL    HW167881  10.616   8.175  14.799
22014SOL    HW267882  10.607   8.301   0.009
22015SOL     OW67883  10.453   3.077   2.037
22015SOL    HW167884  10.432   3.111   2.124
22015SOL    HW267885  10.426   2.985   2.040
22016SOL     OW67886   8.602   9.771   8.200
22016SOL    HW167887   8.664   9.706   8.233
22016SOL    HW267888   8.516   9.734   8.219
22017SOL     OW67889   3.631   1.030   5.635
22017SOL    HW167890   3.674   0.950   5.663
22017SOL    HW267891   3.649   1.093   5.705
22018SOL     OW67892   9.852   9.365   3.848
22018SOL    HW167893   9.922   9.301   3.835
22018SOL    HW267894   9.877   9.414   3.926
22019SOL     OW67895  11.731  11.701   1.854
22019SOL    HW167896  11.762  11.769   1.915
22019SOL    HW267897  11.636  11.699   1.868
22020SOL     OW67898  10.950   8.251   2.596
22020SOL    HW167899  10.928   8.343   2.610
22020SOL    HW267900  11.033   8.254   2.548
22021SOL     OW67901   7.742  12.040   1.264
22021SOL    HW167902   7.750  11.972   1.197
22021SOL    HW267903   7.826  12.087   1.260
22022SOL     OW67904  11.677   6.949   3.844
22022SOL    HW167905  11.749   6.941   3.906
22022SOL    HW267906  11.598   6.947   3.898
22023SOL     OW67907   7.966   1.978   6.742
22023SOL    HW167908   8.029   2.013   6.805
22023SOL    HW267909   8.011   1.985   6.658
22024SOL     OW67910   3.667   5.622  12.820
22024SOL    HW167911   3.623   5.574  12.890
22024SOL    HW267912   3.668   5.561  12.746
22025SOL     OW67913  14.599  14.254  14.683
22025SOL    HW167914  14.534  14.323  14.666
22025SOL    HW267915  14.676  14.300  14.715
22026SOL     OW67916   2.867  10.680   3.694
22026SOL    HW167917   2.866  10.772   3.665
22026SOL    HW267918   2.945  10.643   3.652
22027SOL     OW67919   4.488   2.551   0.312
22027SOL    HW167920   4.580   2.544   0.335
22027SOL    HW267921   4.444   2.573   0.394
22028SOL     OW67922   7.177   8.968  11.708
22028SOL    HW167923   7.155   9.060  11.718
22028SOL    HW267924   7.115   8.922  11.765
22029SOL     OW67925   9.459   3.606   7.937
22029SOL    HW167926   9.367   3.622   7.956
22029SOL    HW267927   9.460   3.580   7.845
22030SOL     OW67928   2.760  14.800   4.467
22030SOL    HW167929   2.845  14.787   4.509
22030SOL    HW267930   2.698  14.755   4.525
22031SOL     OW67931   1.560   0.689   9.581
22031SOL    HW167932   1.473   0.651   9.566
22031SOL    HW267933   1.569   0.754   9.512
22032SOL     OW67934   7.524   3.133   5.819
22032SOL    HW167935   7.542   3.040   5.832
22032SOL    HW267936   7.451   3.151   5.879
22033SOL     OW67937  13.897  14.661  14.837
22033SOL    HW167938  13.906  14.579   0.012
22033SOL    HW267939  13.848  14.637  14.759
22034SOL     OW67940   6.764  11.300   2.613
22034SOL    HW167941   6.814  11.262   2.540
22034SOL    HW267942   6.689  11.242   2.624
22035SOL     OW67943   3.936   7.058  11.672
22035SOL    HW167944   3.968   7.104  11.594
22035SOL    HW267945   3.841   7.072  11.671
22036SOL     OW67946  11.669   0.454   9.387
22036SOL    HW167947  11.758   0.466   9.419
22036SOL    HW267948  11.678   0.393   9.313
22037SOL     OW67949   2.544  13.504   4.383
22037SOL    HW167950   2.527  13.588   4.425
22037SOL    HW267951   2.547  13.524   4.289
22038SOL     OW67952   7.687   1.333   8.413
22038SOL    HW167953   7.718   1.293   8.331
22038SOL    HW267954   7.695   1.427   8.398
22039SOL     OW67955  13.674   4.817  12.565
22039SOL    HW167956  13.586   4.837  12.596
22039SOL    HW267957  13.671   4.839  12.471
22040SOL     OW67958  14.318   0.465   0.800
22040SOL    HW167959  14.273   0.516   0.732
22040SOL    HW267960  14.326   0.525   0.874
22041SOL     OW67961   8.885   3.626   9.952
22041SOL    HW167962   8.816   3.611  10.017
22041SOL    HW267963   8.934   3.701   9.986
22042SOL     OW67964   9.943   0.270   9.330
22042SOL    HW167965   9.932   0.193   9.275
22042SOL    HW267966   9.865   0.323   9.313
22043SOL     OW67967   3.292   4.508   9.763
22043SOL    HW167968   3.374   4.553   9.785
22043SOL    HW267969   3.265   4.466   9.845
22044SOL     OW67970   3.084  14.019  14.142
22044SOL    HW167971   3.092  14.097  14.087
22044SOL    HW267972   3.113  13.947  14.086
22045SOL     OW67973  11.846   6.708  11.321
22045SOL    HW167974  11.938   6.714  11.349
22045SOL    HW267975  11.828   6.791  11.279
22046SOL     OW67976   2.308  12.254   4.408
22046SOL    HW167977   2.279  12.306   4.484
22046SOL    HW267978   2.273  12.300   4.333
22047SOL     OW67979   4.807  12.428   9.696
22047SOL    HW167980   4.742  12.421   9.627
22047SOL    HW267981   4.891  12.422   9.651
22048SOL     OW67982   1.578   4.147   6.277
22048SOL    HW167983   1.597   4.134   6.184
22048SOL    HW267984   1.493   4.192   6.277
22049SOL     OW67985   0.528   6.037  10.242
22049SOL    HW167986   0.450   5.982  10.235
22049SOL    HW267987   0.579   6.015  10.164
22050SOL     OW67988   8.449   0.428   9.906
22050SOL    HW167989   8.356   0.420   9.885
22050SOL    HW267990   8.461   0.374   9.984
22051SOL     OW67991   8.714  10.001   1.560
22051SOL    HW167992   8.757  10.027   1.478
22051SOL    HW267993   8.723  10.078   1.617
22052SOL     OW67994   6.768   3.998   4.372
22052SOL    HW167995   6.833   4.031   4.434
22052SOL    HW267996   6.692   3.976   4.426
22053SOL     OW67997   6.335   0.836   5.498
22053SOL    HW167998   6.261   0.804   5.549
22053SOL    HW267999   6.297   0.885   5.426
22054SOL     OW68000  13.397   4.750  11.014
22054SOL    HW168001  13.401   4.802  11.095
22054SOL    HW268002  13.303   4.741  10.996
22055SOL     OW68003  14.823  10.876   2.160
22055SOL    HW168004  14.735  10.866   2.125
22055SOL    HW268005  14.862  10.948   2.110
22056SOL     OW68006  14.112   4.701   3.621
22056SOL    HW168007  14.022   4.699   3.655
22056SOL    HW268008  14.154   4.625   3.660
22057SOL     OW68009   5.890   3.061  14.123
22057SOL    HW168010   5.909   3.068  14.030
22057SOL    HW268011   5.795   3.057  14.128
22058SOL     OW68012  13.843   8.476   5.262
22058SOL    HW168013  13.861   8.476   5.168
22058SOL    HW268014  13.790   8.555   5.276
22059SOL     OW68015   0.405   9.295  10.810
22059SOL    HW168016   0.459   9.226  10.851
22059SOL    HW268017   0.342   9.247  10.757
22060SOL     OW68018  13.218  14.112   2.759
22060SOL    HW168019  13.276  14.167   2.812
22060SOL    HW268020  13.275  14.044   2.723
22061SOL     OW68021   6.679   8.636  13.256
22061SOL    HW168022   6.763   8.620  13.298
22061SOL    HW268023   6.685   8.591  13.171
22062SOL     OW68024  14.597   1.299  10.283
22062SOL    HW168025  14.648   1.364  10.331
22062SOL    HW268026  14.506   1.318  10.304
22063SOL     OW68027   0.450  13.127  10.654
22063SOL    HW168028   0.474  13.035  10.643
22063SOL    HW268029   0.498  13.156  10.732
22064SOL     OW68030  13.306   9.114   2.617
22064SOL    HW168031  13.224   9.159   2.638
22064SOL    HW268032  13.373   9.164   2.664
22065SOL     OW68033   5.188   9.081   3.802
22065SOL    HW168034   5.175   9.122   3.887
22065SOL    HW268035   5.252   9.137   3.758
22066SOL     OW68036  14.018   2.554   1.224
22066SOL    HW168037  13.975   2.478   1.183
22066SOL    HW268038  14.109   2.525   1.237
22067SOL     OW68039   8.296   9.577   4.051
22067SOL    HW168040   8.366   9.521   4.018
22067SOL    HW268041   8.264   9.624   3.974
22068SOL     OW68042   7.555   8.177   2.218
22068SOL    HW168043   7.513   8.099   2.182
22068SOL    HW268044   7.506   8.250   2.181
22069SOL     OW68045  11.457  12.210   8.701
22069SOL    HW168046  11.459  12.194   8.607
22069SOL    HW268047  11.544  12.247   8.720
22070SOL     OW68048  11.479  10.619   4.324
22070SOL    HW168049  11.457  10.695   4.270
22070SOL    HW268050  11.497  10.656   4.410
22071SOL     OW68051   2.806  12.408  11.706
22071SOL    HW168052   2.763  12.476  11.757
22071SOL    HW268053   2.860  12.455  11.642
22072SOL     OW68054  11.806  11.211   0.604
22072SOL    HW168055  11.896  11.192   0.631
22072SOL    HW268056  11.813  11.294   0.556
22073SOL     OW68057   3.597   0.129  10.358
22073SOL    HW168058   3.650   0.093  10.287
22073SOL    HW268059   3.584   0.056  10.418
22074SOL     OW68060   9.214   2.628   0.538
22074SOL    HW168061   9.168   2.548   0.563
22074SOL    HW268062   9.223   2.621   0.443
22075SOL     OW68063   6.728   0.618   1.206
22075SOL    HW168064   6.723   0.567   1.287
22075SOL    HW268065   6.660   0.582   1.150
22076SOL     OW68066   1.394  11.570   1.465
22076SOL    HW168067   1.429  11.650   1.504
22076SOL    HW268068   1.471  11.518   1.444
22077SOL     OW68069   8.562   6.895  13.510
22077SOL    HW168070   8.562   6.956  13.437
22077SOL    HW268071   8.469   6.883  13.531
22078SOL     OW68072  13.794   0.102   5.648
22078SOL    HW168073  13.879   0.099   5.604
22078SOL    HW268074  13.815   0.112   5.741
22079SOL     OW68075  14.225   0.404   2.743
22079SOL    HW168076  14.198   0.342   2.675
22079SOL    HW268077  14.257   0.348   2.814
22080SOL     OW68078  14.830   5.923   5.859
22080SOL    HW168079  14.794   6.007   5.829
22080SOL    HW268080   0.002   5.888   5.782
22081SOL     OW68081  11.959  12.928   6.319
22081SOL    HW168082  11.894  12.991   6.286
22081SOL    HW268083  12.033  12.939   6.260
22082SOL     OW68084  10.355   2.226  14.855
22082SOL    HW168085  10.439   2.226   0.027
22082SOL    HW268086  10.376   2.199  14.766
22083SOL     OW68087   7.275   4.261  14.237
22083SOL    HW168088   7.301   4.295  14.322
22083SOL    HW268089   7.191   4.302  14.219
22084SOL     OW68090  13.483   2.025  12.373
22084SOL    HW168091  13.388   2.036  12.363
22084SOL    HW268092  13.494   1.931  12.392
22085SOL     OW68093   6.910   4.518   7.859
22085SOL    HW168094   6.957   4.598   7.837
22085SOL    HW268095   6.937   4.499   7.950
22086SOL     OW68096   8.519   3.292   3.810
22086SOL    HW168097   8.549   3.245   3.732
22086SOL    HW268098   8.582   3.363   3.821
22087SOL     OW68099  11.151   5.204  14.588
22087SOL    HW168100  11.156   5.296  14.561
22087SOL    HW268101  11.201   5.200  14.669
22088SOL     OW68102   5.401   0.459  14.864
22088SOL    HW168103   5.421   0.389   0.053
22088SOL    HW268104   5.371   0.413  14.785
22089SOL     OW68105   6.051   8.206  13.079
22089SOL    HW168106   6.033   8.124  13.031
22089SOL    HW268107   5.965   8.246  13.090
22090SOL     OW68108  14.804  14.187   7.735
22090SOL    HW168109  14.776  14.123   7.670
22090SOL    HW268110  14.744  14.261   7.725
22091SOL     OW68111   2.367   9.419  10.778
22091SOL    HW168112   2.343   9.346  10.721
22091SOL    HW268113   2.362   9.382  10.867
22092SOL     OW68114   5.119   8.653  13.483
22092SOL    HW168115   5.047   8.658  13.420
22092SOL    HW268116   5.191   8.700  13.441
22093SOL     OW68117   0.207   8.725   2.001
22093SOL    HW168118   0.171   8.779   2.072
22093SOL    HW268119   0.238   8.789   1.937
22094SOL     OW68120   0.009  13.817   3.184
22094SOL    HW168121  14.822  13.885   3.216
22094SOL    HW268122  14.828  13.763   3.126
22095SOL     OW68123   1.106   2.554  14.448
22095SOL    HW168124   1.079   2.645  14.463
22095SOL    HW268125   1.090   2.541  14.354
22096SOL     OW68126  11.431  10.856   9.680
22096SOL    HW168127  11.475  10.909   9.612
22096SOL    HW268128  11.396  10.781   9.633
22097SOL     OW68129  14.348   5.721   0.564
22097SOL    HW168130  14.337   5.626   0.555
22097SOL    HW268131  14.430   5.731   0.612
22098SOL     OW68132   8.442  11.552   9.332
22098SOL    HW168133   8.517  11.593   9.377
22098SOL    HW268134   8.482  11.487   9.274
22099SOL     OW68135   1.390  10.535   6.401
22099SOL    HW168136   1.346  10.538   6.315
22099SOL    HW268137   1.482  10.550   6.381
22100SOL     OW68138   5.792   5.354  11.122
22100SOL    HW168139   5.846   5.369  11.044
22100SOL    HW268140   5.854   5.329  11.190
22101SOL     OW68141  13.491   2.492   1.131
22101SOL    HW168142  13.402   2.483   1.166
22101SOL    HW268143  13.509   2.586   1.136
22102SOL     OW68144  12.097  11.134   4.750
22102SOL    HW168145  12.029  11.165   4.690
22102SOL    HW268146  12.175  11.126   4.695
22103SOL     OW68147  12.115   0.774  12.348
22103SOL    HW168148  12.040   0.734  12.392
22103SOL    HW268149  12.119   0.863  12.383
22104SOL     OW68150   4.164  10.168  10.429
22104SOL    HW168151   4.068  10.175  10.432
22104SOL    HW268152   4.190  10.223  10.356
22105SOL     OW68153   4.556   7.921   3.170
22105SOL    HW168154   4.531   7.835   3.204
22105SOL    HW268155   4.495   7.982   3.210
22106SOL     OW68156  13.332  12.688   2.597
22106SOL    HW168157  13.321  12.783   2.608
22106SOL    HW268158  13.347  12.655   2.685
22107SOL     OW68159   0.370  11.544  11.832
22107SOL    HW168160   0.379  11.638  11.849
22107SOL    HW268161   0.280  11.534  11.802
22108SOL     OW68162   2.550  10.810   5.751
22108SOL    HW168163   2.473  10.762   5.719
22108SOL    HW268164   2.591  10.749   5.813
22109SOL     OW68165   3.327   7.218   7.033
22109SOL    HW168166   3.398   7.232   6.970
22109SOL    HW268167   3.325   7.298   7.085
22110SOL     OW68168   1.408   1.413  14.076
22110SOL    HW168169   1.465   1.411  13.999
22110SOL    HW268170   1.326   1.451  14.044
22111SOL     OW68171  14.259  10.983   0.100
22111SOL    HW168172  14.346  10.983   0.060
22111SOL    HW268173  14.271  10.932   0.181
22112SOL     OW68174  12.522   7.498   8.692
22112SOL    HW168175  12.513   7.404   8.710
22112SOL    HW268176  12.616   7.513   8.695
22113SOL     OW68177   1.914   5.560  14.795
22113SOL    HW168178   1.998   5.604  14.781
22113SOL    HW268179   1.934   5.467  14.783
22114SOL     OW68180  11.889  12.361  13.372
22114SOL    HW168181  11.808  12.368  13.322
22114SOL    HW268182  11.937  12.441  13.352
22115SOL     OW68183   0.216   7.379   2.919
22115SOL    HW168184   0.300   7.361   2.961
22115SOL    HW268185   0.191   7.295   2.879
22116SOL     OW68186   0.369  10.260  12.795
22116SOL    HW168187   0.317  10.219  12.727
22116SOL    HW268188   0.418  10.188  12.835
22117SOL     OW68189   7.661   3.003   5.567
22117SOL    HW168190   7.656   2.973   5.658
22117SOL    HW268191   7.571   2.998   5.535
22118SOL     OW68192   8.459   7.755   2.252
22118SOL    HW168193   8.532   7.804   2.289
22118SOL    HW268194   8.425   7.811   2.182
22119SOL     OW68195   5.925   2.995   9.446
22119SOL    HW168196   5.853   2.954   9.399
22119SOL    HW268197   5.883   3.047   9.515
22120SOL     OW68198   4.196   5.935  13.623
22120SOL    HW168199   4.199   5.898  13.535
22120SOL    HW268200   4.230   5.865  13.679
22121SOL     OW68201   3.424  12.308   2.656
22121SOL    HW168202   3.359  12.252   2.613
22121SOL    HW268203   3.446  12.374   2.590
22122SOL     OW68204   6.813   1.013   0.810
22122SOL    HW168205   6.834   0.976   0.896
22122SOL    HW268206   6.765   1.094   0.829
22123SOL     OW68207   4.408  10.511   8.296
22123SOL    HW168208   4.378  10.576   8.232
22123SOL    HW268209   4.350  10.436   8.282
22124SOL     OW68210   7.435   6.188   3.966
22124SOL    HW168211   7.441   6.218   3.875
22124SOL    HW268212   7.342   6.171   3.980
22125SOL     OW68213  13.911  13.847  13.238
22125SOL    HW168214  13.881  13.763  13.204
22125SOL    HW268215  14.004  13.850  13.217
22126SOL     OW68216  14.340   4.662   2.346
22126SOL    HW168217  14.255   4.697   2.372
22126SOL    HW268218  14.333   4.651   2.251
22127SOL     OW68219   5.139  13.735  14.854
22127SOL    HW168220   5.126  13.830  14.856
22127SOL    HW268221   5.231  13.723   0.004
22128SOL     OW68222   9.870   8.129   0.714
22128SOL    HW168223   9.806   8.130   0.785
22128SOL    HW268224   9.817   8.128   0.634
22129SOL     OW68225   5.705   6.618   9.477
22129SOL    HW168226   5.628   6.658   9.517
22129SOL    HW268227   5.732   6.681   9.410
22130SOL     OW68228  11.377   3.136   7.957
22130SOL    HW168229  11.358   3.106   8.046
22130SOL    HW268230  11.291   3.147   7.917
22131SOL     OW68231  11.513   9.543   5.484
22131SOL    HW168232  11.592   9.587   5.516
22131SOL    HW268233  11.473   9.505   5.562
22132SOL     OW68234  14.083  13.071   2.915
22132SOL    HW168235  14.102  12.992   2.865
22132SOL    HW268236  14.169  13.102   2.944
22133SOL     OW68237   0.243   7.971  10.672
22133SOL    HW168238   0.183   8.025  10.619
22133SOL    HW268239   0.258   7.893  10.618
22134SOL     OW68240   9.604   8.516   0.015
22134SOL    HW168241   9.577   8.471   0.095
22134SOL    HW268242   9.584   8.455  14.818
22135SOL     OW68243   0.541   8.765  10.639
22135SOL    HW168244   0.505   8.686  10.598
22135SOL    HW268245   0.622   8.735  10.681
22136SOL     OW68246   1.732   7.566  12.528
22136SOL    HW168247   1.681   7.617  12.591
22136SOL    HW268248   1.667   7.521  12.475
22137SOL     OW68249  10.154  10.163   3.289
22137SOL    HW168250  10.140  10.069   3.302
22137SOL    HW268251  10.070  10.203   3.311
22138SOL     OW68252  13.803   7.352  12.963
22138SOL    HW168253  13.761   7.303  12.892
22138SOL    HW268254  13.854   7.419  12.918
22139SOL     OW68255  11.555   3.836   7.210
22139SOL    HW168256  11.490   3.803   7.148
22139SOL    HW268257  11.574   3.762   7.267
22140SOL     OW68258   1.075   7.423   3.751
22140SOL    HW168259   0.998   7.376   3.717
22140SOL    HW268260   1.064   7.421   3.846
22141SOL     OW68261  10.809  13.291   0.542
22141SOL    HW168262  10.767  13.348   0.606
22141SOL    HW268263  10.835  13.214   0.591
22142SOL     OW68264   9.844  12.611   2.675
22142SOL    HW168265   9.761  12.629   2.631
22142SOL    HW268266   9.890  12.695   2.673
22143SOL     OW68267  10.310   9.572   1.324
22143SOL    HW168268  10.297   9.646   1.264
22143SOL    HW268269  10.297   9.609   1.411
22144SOL     OW68270   9.963  11.826   6.611
22144SOL    HW168271  10.027  11.826   6.683
22144SOL    HW268272  10.001  11.885   6.546
22145SOL     OW68273  14.742   1.327  10.775
22145SOL    HW168274  14.682   1.272  10.824
22145SOL    HW268275  14.829   1.292  10.795
22146SOL     OW68276   5.096   8.068   3.185
22146SOL    HW168277   5.031   8.062   3.115
22146SOL    HW268278   5.113   7.977   3.211
22147SOL     OW68279   7.778   7.559  12.716
22147SOL    HW168280   7.838   7.529  12.784
22147SOL    HW268281   7.756   7.480  12.667
22148SOL     OW68282  11.203   6.043  11.212
22148SOL    HW168283  11.261   5.988  11.265
22148SOL    HW268284  11.215   6.131  11.247
22149SOL     OW68285   5.227   3.405  10.978
22149SOL    HW168286   5.147   3.409  11.030
22149SOL    HW268287   5.259   3.495  10.977
22150SOL     OW68288   6.669  10.764  14.604
22150SOL    HW168289   6.587  10.723  14.576
22150SOL    HW268290   6.696  10.817  14.529
22151SOL     OW68291   2.483   3.612   5.972
22151SOL    HW168292   2.400   3.568   5.951
22151SOL    HW268293   2.461   3.705   5.973
22152SOL     OW68294  12.687   1.229  11.172
22152SOL    HW168295  12.688   1.310  11.122
22152SOL    HW268296  12.718   1.254  11.260
22153SOL     OW68297   6.353  11.546  10.697
22153SOL    HW168298   6.360  11.600  10.618
22153SOL    HW268299   6.269  11.502  10.689
22154SOL     OW68300  12.018   6.079  12.453
22154SOL    HW168301  12.091   6.048  12.506
22154SOL    HW268302  12.052   6.080  12.363
22155SOL     OW68303   2.569   6.798  11.548
22155SOL    HW168304   2.635   6.730  11.531
22155SOL    HW268305   2.557   6.842  11.464
22156SOL     OW68306   3.471   1.917   6.305
22156SOL    HW168307   3.452   1.827   6.281
22156SOL    HW268308   3.566   1.925   6.295
22157SOL     OW68309   1.168  13.358   5.235
22157SOL    HW168310   1.220  13.295   5.285
22157SOL    HW268311   1.232  13.418   5.198
22158SOL     OW68312  11.220   8.994   3.376
22158SOL    HW168313  11.258   8.983   3.463
22158SOL    HW268314  11.274   8.941   3.319
22159SOL     OW68315   6.473   6.111  14.820
22159SOL    HW168316   6.400   6.167  14.794
22159SOL    HW268317   6.451   6.080   0.035
22160SOL     OW68318  11.231   1.517  14.496
22160SOL    HW168319  11.250   1.607  14.470
22160SOL    HW268320  11.164   1.488  14.435
22161SOL     OW68321   4.196  14.570   5.521
22161SOL    HW168322   4.132  14.507   5.487
22161SOL    HW268323   4.210  14.541   5.612
22162SOL     OW68324   5.299   7.879  14.739
22162SOL    HW168325   5.366   7.860  14.674
22162SOL    HW268326   5.346   7.924  14.810
22163SOL     OW68327   9.460  11.364  11.214
22163SOL    HW168328   9.544  11.397  11.182
22163SOL    HW268329   9.433  11.300  11.148
22164SOL     OW68330   6.097   7.858  11.605
22164SOL    HW168331   6.118   7.765  11.612
22164SOL    HW268332   6.082   7.873  11.512
22165SOL     OW68333  13.677   0.719  14.556
22165SOL    HW168334  13.626   0.762  14.624
22165SOL    HW268335  13.613   0.666  14.508
22166SOL     OW68336  14.397   3.262  14.758
22166SOL    HW168337  14.479   3.307  14.778
22166SOL    HW268338  14.421   3.169  14.753
22167SOL     OW68339   3.157   1.478   4.694
22167SOL    HW168340   3.153   1.447   4.604
22167SOL    HW268341   3.173   1.572   4.687
22168SOL     OW68342   5.143   9.745  11.646
22168SOL    HW168343   5.131   9.695  11.565
22168SOL    HW268344   5.142   9.680  11.716
22169SOL     OW68345  14.086  13.991  10.499
22169SOL    HW168346  14.095  13.897  10.513
22169SOL    HW268347  14.118  14.031  10.580
22170SOL     OW68348  13.565   9.813   9.096
22170SOL    HW168349  13.511   9.857   9.162
22170SOL    HW268350  13.506   9.750   9.055
22171SOL     OW68351   4.330   2.986   5.453
22171SOL    HW168352   4.328   3.004   5.547
22171SOL    HW268353   4.387   3.055   5.417
22172SOL     OW68354  11.716   5.047   8.891
22172SOL    HW168355  11.625   5.076   8.897
22172SOL    HW268356  11.710   4.951   8.889
22173SOL     OW68357  10.492  14.673   1.087
22173SOL    HW168358  10.557  14.720   1.139
22173SOL    HW268359  10.530  14.586   1.073
22174SOL     OW68360  13.157   0.960  13.236
22174SOL    HW168361  13.234   0.911  13.266
22174SOL    HW268362  13.104   0.973  13.314
22175SOL     OW68363   5.159   5.876  10.988
22175SOL    HW168364   5.219   5.848  10.919
22175SOL    HW268365   5.122   5.959  10.957
22176SOL     OW68366   3.260   5.363  11.668
22176SOL    HW168367   3.282   5.284  11.718
22176SOL    HW268368   3.262   5.334  11.576
22177SOL     OW68369   6.189   4.399   8.575
22177SOL    HW168370   6.147   4.477   8.538
22177SOL    HW268371   6.128   4.327   8.554
22178SOL     OW68372   0.826   7.111  12.671
22178SOL    HW168373   0.837   7.161  12.590
22178SOL    HW268374   0.915   7.101  12.705
22179SOL     OW68375   4.838   8.160  12.429
22179SOL    HW168376   4.896   8.235  12.441
22179SOL    HW268377   4.766   8.194  12.376
22180SOL     OW68378  13.390   6.989   2.027
22180SOL    HW168379  13.394   7.084   2.025
22180SOL    HW268380  13.481   6.961   2.035
22181SOL     OW68381   4.678  10.436   8.240
22181SOL    HW168382   4.705  10.453   8.330
22181SOL    HW268383   4.582  10.444   8.242
22182SOL     OW68384  14.732   6.064  12.289
22182SOL    HW168385  14.751   6.158  12.283
22182SOL    HW268386  14.795   6.023  12.230
22183SOL     OW68387   3.221  11.579   3.405
22183SOL    HW168388   3.226  11.575   3.500
22183SOL    HW268389   3.306  11.546   3.375
22184SOL     OW68390   0.696  14.203   6.204
22184SOL    HW168391   0.606  14.169   6.201
22184SOL    HW268392   0.730  14.172   6.289
22185SOL     OW68393   7.662   7.110   9.134
22185SOL    HW168394   7.626   7.153   9.057
22185SOL    HW268395   7.597   7.126   9.203
22186SOL     OW68396   1.514   4.705  14.825
22186SOL    HW168397   1.598   4.712  14.781
22186SOL    HW268398   1.486   4.614  14.811
22187SOL     OW68399   4.777   2.982   4.264
22187SOL    HW168400   4.707   2.960   4.203
22187SOL    HW268401   4.802   2.898   4.303
22188SOL     OW68402   4.241  11.862  12.081
22188SOL    HW168403   4.227  11.769  12.065
22188SOL    HW268404   4.318  11.865  12.137
22189SOL     OW68405   9.754  14.734  10.510
22189SOL    HW168406   9.717  14.697  10.590
22189SOL    HW268407   9.794  14.660  10.465
22190SOL     OW68408   4.295  11.177  14.668
22190SOL    HW168409   4.262  11.267  14.673
22190SOL    HW268410   4.217  11.122  14.681
22191SOL     OW68411   1.993  14.387  10.515
22191SOL    HW168412   1.947  14.442  10.451
22191SOL    HW268413   1.924  14.360  10.577
22192SOL     OW68414  10.975   1.410   8.442
22192SOL    HW168415  11.037   1.482   8.427
22192SOL    HW268416  10.891   1.445   8.415
22193SOL     OW68417  14.837  13.274  14.806
22193SOL    HW168418  14.846  13.263  14.712
22193SOL    HW268419  14.848  13.368  14.820
22194SOL     OW68420  14.285   0.686   6.328
22194SOL    HW168421  14.264   0.606   6.279
22194SOL    HW268422  14.289   0.754   6.261
22195SOL     OW68423  12.616   8.736   6.115
22195SOL    HW168424  12.611   8.651   6.159
22195SOL    HW268425  12.640   8.798   6.184
22196SOL     OW68426   0.495  10.586   9.696
22196SOL    HW168427   0.557  10.516   9.713
22196SOL    HW268428   0.437  10.550   9.629
22197SOL     OW68429  10.080  12.604   6.434
22197SOL    HW168430  10.075  12.697   6.455
22197SOL    HW268431  10.096  12.561   6.518
22198SOL     OW68432  12.851   9.049   3.355
22198SOL    HW168433  12.923   9.018   3.410
22198SOL    HW268434  12.773   9.036   3.408
22199SOL     OW68435   9.716   4.385   2.268
22199SOL    HW168436   9.678   4.413   2.351
22199SOL    HW268437   9.808   4.369   2.288
22200SOL     OW68438   8.018  13.236  12.723
22200SOL    HW168439   8.014  13.197  12.811
22200SOL    HW268440   7.997  13.329  12.738
22201SOL     OW68441   8.923   5.517   4.765
22201SOL    HW168442   8.938   5.588   4.703
22201SOL    HW268443   9.010   5.494   4.797
22202SOL     OW68444   1.693   0.806   5.169
22202SOL    HW168445   1.704   0.834   5.078
22202SOL    HW268446   1.639   0.727   5.164
22203SOL     OW68447   3.863   8.000   9.255
22203SOL    HW168448   3.928   7.982   9.323
22203SOL    HW268449   3.832   8.088   9.274
22204SOL     OW68450   8.620   4.405  11.739
22204SOL    HW168451   8.607   4.310  11.748
22204SOL    HW268452   8.536   4.443  11.762
22205SOL     OW68453   7.467  14.437   2.214
22205SOL    HW168454   7.374  14.420   2.199
22205SOL    HW268455   7.510  14.356   2.189
22206SOL     OW68456   1.000   1.456   9.963
22206SOL    HW168457   0.975   1.526  10.023
22206SOL    HW268458   1.037   1.501   9.887
22207SOL     OW68459   8.337   5.008  13.522
22207SOL    HW168460   8.260   5.058  13.548
22207SOL    HW268461   8.302   4.935  13.471
22208SOL     OW68462   0.732  12.099  12.638
22208SOL    HW168463   0.716  12.174  12.581
22208SOL    HW268464   0.665  12.105  12.706
22209SOL     OW68465   9.171   2.273   6.083
22209SOL    HW168466   9.088   2.322   6.086
22209SOL    HW268467   9.147   2.184   6.111
22210SOL     OW68468  12.048   0.564  11.854
22210SOL    HW168469  11.984   0.594  11.919
22210SOL    HW268470  12.105   0.639  11.839
22211SOL     OW68471  14.034   2.102  11.896
22211SOL    HW168472  13.957   2.074  11.945
22211SOL    HW268473  14.073   2.020  11.864
22212SOL     OW68474   8.429  11.736   5.981
22212SOL    HW168475   8.489  11.742   6.055
22212SOL    HW268476   8.452  11.654   5.938
22213SOL     OW68477   6.304   7.247   5.420
22213SOL    HW168478   6.268   7.227   5.334
22213SOL    HW268479   6.389   7.288   5.401
22214SOL     OW68480  10.733   7.492   5.517
22214SOL    HW168481  10.772   7.456   5.437
22214SOL    HW268482  10.696   7.576   5.490
22215SOL     OW68483   2.394   9.303   8.009
22215SOL    HW168484   2.357   9.229   7.962
22215SOL    HW268485   2.364   9.380   7.961
22216SOL     OW68486   3.974   8.049   0.314
22216SOL    HW168487   3.989   8.132   0.270
22216SOL    HW268488   4.020   7.985   0.260
22217SOL     OW68489   0.712   4.163   3.847
22217SOL    HW168490   0.774   4.125   3.909
22217SOL    HW268491   0.746   4.251   3.830
22218SOL     OW68492  14.239   7.100  10.307
22218SOL    HW168493  14.266   7.025  10.254
22218SOL    HW268494  14.313   7.116  10.366
22219SOL     OW68495   9.176  14.105   5.468
22219SOL    HW168496   9.130  14.061   5.396
22219SOL    HW268497   9.225  14.036   5.512
22220SOL     OW68498   4.666  13.301  14.744
22220SOL    HW168499   4.680  13.311  14.650
22220SOL    HW268500   4.754  13.310  14.781
22221SOL     OW68501   1.970   7.597  12.875
22221SOL    HW168502   1.944   7.681  12.836
22221SOL    HW268503   1.893   7.541  12.864
22222SOL     OW68504  13.561   2.041   5.862
22222SOL    HW168505  13.655   2.049   5.877
22222SOL    HW268506  13.548   1.948   5.842
22223SOL     OW68507   9.676   1.337   1.295
22223SOL    HW168508   9.629   1.354   1.213
22223SOL    HW268509   9.671   1.242   1.306
22224SOL     OW68510   1.906   2.030   3.150
22224SOL    HW168511   1.977   1.967   3.164
22224SOL    HW268512   1.863   2.036   3.235
22225SOL     OW68513   3.171  13.746  14.733
22225SOL    HW168514   3.105  13.809  14.705
22225SOL    HW268515   3.169  13.677  14.667
22226SOL     OW68516   2.538   6.219   0.559
22226SOL    HW168517   2.497   6.304   0.574
22226SOL    HW268518   2.538   6.209   0.464
22227SOL     OW68519   2.662   4.310  14.063
22227SOL    HW168520   2.651   4.402  14.085
22227SOL    HW268521   2.575   4.273  14.072
22228SOL     OW68522  14.188   7.398   7.285
22228SOL    HW168523  14.194   7.306   7.259
22228SOL    HW268524  14.111   7.401   7.342
22229SOL     OW68525  11.953   1.864   4.101
22229SOL    HW168526  11.994   1.876   4.187
22229SOL    HW268527  12.022   1.823   4.048
22230SOL     OW68528   7.752   5.632  13.736
22230SOL    HW168529   7.763   5.662  13.826
22230SOL    HW268530   7.828   5.576  13.720
22231SOL     OW68531  10.951  14.431   6.065
22231SOL    HW168532  11.033  14.478   6.049
22231SOL    HW268533  10.927  14.395   5.980
22232SOL     OW68534   2.970  11.388  10.096
22232SOL    HW168535   2.967  11.444  10.019
22232SOL    HW268536   2.887  11.403  10.141
22233SOL     OW68537  13.276   1.098   3.589
22233SOL    HW168538  13.233   1.040   3.526
22233SOL    HW268539  13.247   1.186   3.564
22234SOL     OW68540   6.920   4.955  10.075
22234SOL    HW168541   6.995   4.984  10.127
22234SOL    HW268542   6.855   5.024  10.087
22235SOL     OW68543   4.995  10.122   6.309
22235SOL    HW168544   4.940  10.181   6.362
22235SOL    HW268545   5.077  10.170   6.298
22236SOL     OW68546   1.362   7.988  14.785
22236SOL    HW168547   1.385   8.067  14.735
22236SOL    HW268548   1.394   8.006  14.873
22237SOL     OW68549   1.660   6.166  11.362
22237SOL    HW168550   1.679   6.230  11.431
22237SOL    HW268551   1.571   6.135  11.382
22238SOL     OW68552  12.401   3.045  12.429
22238SOL    HW168553  12.442   3.128  12.451
22238SOL    HW268554  12.308   3.058  12.447
22239SOL     OW68555  11.422   4.163   0.834
22239SOL    HW168556  11.497   4.104   0.837
22239SOL    HW268557  11.457   4.246   0.800
22240SOL     OW68558   4.447   7.701  13.862
22240SOL    HW168559   4.362   7.746  13.864
22240SOL    HW268560   4.435   7.626  13.921
22241SOL     OW68561   7.260   5.124   3.570
22241SOL    HW168562   7.255   5.113   3.665
22241SOL    HW268563   7.269   5.035   3.536
22242SOL     OW68564   4.044   9.362   1.696
22242SOL    HW168565   3.948   9.363   1.697
22242SOL    HW268566   4.069   9.441   1.649
22243SOL     OW68567   5.949  10.443  12.094
22243SOL    HW168568   5.988  10.474  12.176
22243SOL    HW268569   5.870  10.396  12.121
22244SOL     OW68570   9.134   3.881   1.186
22244SOL    HW168571   9.105   3.955   1.132
22244SOL    HW268572   9.054   3.835   1.209
22245SOL     OW68573   5.855   5.315  10.484
22245SOL    HW168574   5.833   5.241  10.428
22245SOL    HW268575   5.945   5.297  10.513
22246SOL     OW68576   7.515   2.551  13.784
22246SOL    HW168577   7.562   2.635  13.789
22246SOL    HW268578   7.428   2.574  13.751
22247SOL     OW68579  13.330  11.099  10.996
22247SOL    HW168580  13.381  11.180  10.991
22247SOL    HW268581  13.259  11.119  11.058
22248SOL     OW68582  13.097  14.800   3.355
22248SOL    HW168583  13.083   0.007   3.305
22248SOL    HW268584  13.161  14.823   3.422
22249SOL     OW68585   0.190   9.587   0.900
22249SOL    HW168586   0.279   9.620   0.907
22249SOL    HW268587   0.135   9.666   0.897
22250SOL     OW68588   3.700   0.169   3.679
22250SOL    HW168589   3.649   0.210   3.749
22250SOL    HW268590   3.680   0.076   3.685
22251SOL     OW68591   1.525   6.578   8.145
22251SOL    HW168592   1.500   6.656   8.195
22251SOL    HW268593   1.534   6.608   8.055
22252SOL     OW68594   8.006   1.705   9.940
22252SOL    HW168595   7.978   1.708  10.031
22252SOL    HW268596   7.933   1.742   9.891
22253SOL     OW68597  14.582   8.985   3.391
22253SOL    HW168598  14.608   8.894   3.406
22253SOL    HW268599  14.525   9.006   3.464
22254SOL     OW68600   3.923   1.155  11.001
22254SOL    HW168601   3.960   1.083  10.950
22254SOL    HW268602   3.994   1.182  11.059
22255SOL     OW68603   6.606   8.065   4.424
22255SOL    HW168604   6.600   8.029   4.336
22255SOL    HW268605   6.525   8.035   4.467
22256SOL     OW68606   1.657  12.947   7.837
22256SOL    HW168607   1.620  12.989   7.915
22256SOL    HW268608   1.581  12.923   7.785
22257SOL     OW68609   9.631  13.189   3.565
22257SOL    HW168610   9.558  13.160   3.620
22257SOL    HW268611   9.602  13.274   3.530
22258SOL     OW68612   4.462  11.383  11.139
22258SOL    HW168613   4.471  11.294  11.174
22258SOL    HW268614   4.527  11.387  11.068
22259SOL     OW68615   4.276  12.313  11.881
22259SOL    HW168616   4.288  12.218  11.871
22259SOL    HW268617   4.355  12.341  11.928
22260SOL     OW68618   8.161  14.610   0.379
22260SOL    HW168619   8.104  14.672   0.334
22260SOL    HW268620   8.101  14.546   0.418
22261SOL     OW68621   7.606   2.885  13.542
22261SOL    HW168622   7.599   2.980  13.542
22261SOL    HW268623   7.696   2.867  13.573
22262SOL     OW68624   9.596   8.780   7.608
22262SOL    HW168625   9.673   8.749   7.656
22262SOL    HW268626   9.559   8.849   7.664
22263SOL     OW68627   4.248   2.041  14.526
22263SOL    HW168628   4.249   1.952  14.561
22263SOL    HW268629   4.208   2.033  14.439
22264SOL     OW68630   5.360   9.754   1.863
22264SOL    HW168631   5.454   9.735   1.853
22264SOL    HW268632   5.348   9.763   1.958
22265SOL     OW68633   7.348  13.496  14.061
22265SOL    HW168634   7.439  13.468  14.047
22265SOL    HW268635   7.296  13.425  14.023
22266SOL     OW68636  14.341   2.066  13.290
22266SOL    HW168637  14.434   2.042  13.290
22266SOL    HW268638  14.334   2.134  13.357
22267SOL     OW68639   0.707  11.294  13.094
22267SOL    HW168640   0.642  11.228  13.120
22267SOL    HW268641   0.666  11.378  13.114
22268SOL     OW68642  11.402  13.825   9.530
22268SOL    HW168643  11.324  13.876   9.507
22268SOL    HW268644  11.393  13.807   9.623
22269SOL     OW68645   6.307   3.476   4.334
22269SOL    HW168646   6.330   3.536   4.263
22269SOL    HW268647   6.339   3.391   4.304
22270SOL     OW68648   9.679   9.028   3.440
22270SOL    HW168649   9.674   9.104   3.498
22270SOL    HW268650   9.750   8.975   3.476
22271SOL     OW68651  11.660   8.318  12.855
22271SOL    HW168652  11.702   8.373  12.789
22271SOL    HW268653  11.730   8.297  12.917
22272SOL     OW68654  12.930  11.046   3.888
22272SOL    HW168655  12.856  11.069   3.945
22272SOL    HW268656  12.990  10.999   3.945
22273SOL     OW68657  11.320  13.442   3.365
22273SOL    HW168658  11.256  13.372   3.358
22273SOL    HW268659  11.304  13.482   3.450
22274SOL     OW68660   1.994   0.214   4.410
22274SOL    HW168661   1.954   0.127   4.418
22274SOL    HW268662   1.947   0.255   4.337
22275SOL     OW68663   3.637  14.189  11.002
22275SOL    HW168664   3.617  14.208  11.094
22275SOL    HW268665   3.650  14.275  10.962
22276SOL     OW68666   9.535  10.646   9.423
22276SOL    HW168667   9.598  10.586   9.464
22276SOL    HW268668   9.582  10.729   9.417
22277SOL     OW68669   6.629  11.717   6.167
22277SOL    HW168670   6.700  11.760   6.119
22277SOL    HW268671   6.656  11.722   6.259
22278SOL     OW68672   7.242   5.942   7.251
22278SOL    HW168673   7.282   5.861   7.221
22278SOL    HW268674   7.279   5.957   7.338
22279SOL     OW68675   1.580   7.700   1.797
22279SOL    HW168676   1.486   7.693   1.778
22279SOL    HW268677   1.612   7.766   1.736
22280SOL     OW68678   4.226  10.419   6.346
22280SOL    HW168679   4.266  10.344   6.302
22280SOL    HW268680   4.223  10.394   6.438
22281SOL     OW68681  12.146  10.118   8.983
22281SOL    HW168682  12.129  10.027   9.008
22281SOL    HW268683  12.060  10.156   8.970
22282SOL     OW68684   3.796   7.706  14.404
22282SOL    HW168685   3.846   7.770  14.455
22282SOL    HW268686   3.841   7.623  14.419
22283SOL     OW68687  11.163  14.135   4.461
22283SOL    HW168688  11.256  14.135   4.485
22283SOL    HW268689  11.154  14.212   4.404
22284SOL     OW68690   0.896  14.383   0.119
22284SOL    HW168691   0.987  14.356   0.134
22284SOL    HW268692   0.869  14.334   0.041
22285SOL     OW68693   0.742   8.855  12.835
22285SOL    HW168694   0.734   8.866  12.930
22285SOL    HW268695   0.714   8.939  12.799
22286SOL     OW68696   6.684   9.218   0.198
22286SOL    HW168697   6.617   9.178   0.143
22286SOL    HW268698   6.662   9.311   0.198
22287SOL     OW68699   3.419   0.350  10.914
22287SOL    HW168700   3.432   0.375  11.006
22287SOL    HW268701   3.326   0.329  10.908
22288SOL     OW68702   9.234  12.639   4.602
22288SOL    HW168703   9.163  12.652   4.665
22288SOL    HW268704   9.283  12.721   4.605
22289SOL     OW68705   4.226  10.140  10.730
22289SOL    HW168706   4.159  10.204  10.756
22289SOL    HW268707   4.215  10.131  10.635
22290SOL     OW68708   5.740   5.009  12.560
22290SOL    HW168709   5.710   4.918  12.560
22290SOL    HW268710   5.663   5.059  12.530
22291SOL     OW68711  13.764   1.377   4.991
22291SOL    HW168712  13.801   1.346   5.074
22291SOL    HW268713  13.819   1.338   4.924
22292SOL     OW68714  10.537   7.045   5.462
22292SOL    HW168715  10.611   7.090   5.421
22292SOL    HW268716  10.568   6.955   5.473
22293SOL     OW68717   5.629   7.953   3.070
22293SOL    HW168718   5.661   7.895   3.140
22293SOL    HW268719   5.648   8.041   3.102
22294SOL     OW68720   7.316  14.733   0.094
22294SOL    HW168721   7.335  14.643   0.068
22294SOL    HW268722   7.222  14.735   0.109
22295SOL     OW68723   2.649  10.330  12.500
22295SOL    HW168724   2.711  10.281  12.447
22295SOL    HW268725   2.567  10.282  12.492
22296SOL     OW68726  12.238   3.250   7.486
22296SOL    HW168727  12.280   3.193   7.421
22296SOL    HW268728  12.309   3.279   7.542
22297SOL     OW68729   4.086   5.319   8.720
22297SOL    HW168730   4.127   5.359   8.643
22297SOL    HW268731   4.124   5.231   8.724
22298SOL     OW68732   2.785  13.299  14.620
22298SOL    HW168733   2.819  13.266  14.703
22298SOL    HW268734   2.810  13.391  14.619
22299SOL     OW68735   5.925   4.205   3.773
22299SOL    HW168736   5.861   4.135   3.757
22299SOL    HW268737   5.964   4.182   3.857
22300SOL     OW68738   6.547  12.648  13.536
22300SOL    HW168739   6.636  12.674  13.561
22300SOL    HW268740   6.547  12.552  13.547
22301SOL     OW68741   9.203   6.630   5.175
22301SOL    HW168742   9.211   6.695   5.105
22301SOL    HW268743   9.193   6.547   5.129
22302SOL     OW68744   8.172   6.783  12.047
22302SOL    HW168745   8.237   6.834  12.096
22302SOL    HW268746   8.095   6.839  12.046
22303SOL     OW68747   3.750   4.950   4.197
22303SOL    HW168748   3.686   5.021   4.194
22303SOL    HW268749   3.756   4.919   4.106
22304SOL     OW68750   7.363  10.886   4.568
22304SOL    HW168751   7.295  10.890   4.500
22304SOL    HW268752   7.445  10.887   4.520
22305SOL     OW68753  14.239   7.272   2.369
22305SOL    HW168754  14.219   7.196   2.314
22305SOL    HW268755  14.278   7.336   2.309
22306SOL     OW68756   4.308  10.915   6.994
22306SOL    HW168757   4.312  10.978   7.066
22306SOL    HW268758   4.217  10.918   6.965
22307SOL     OW68759   3.961   7.009   5.864
22307SOL    HW168760   4.051   7.011   5.896
22307SOL    HW268761   3.964   7.055   5.780
22308SOL     OW68762   3.881   2.329  14.356
22308SOL    HW168763   3.970   2.363  14.356
22308SOL    HW268764   3.890   2.238  14.384
22309SOL     OW68765   3.984  10.291  11.371
22309SOL    HW168766   3.987  10.334  11.456
22309SOL    HW268767   4.075  10.268  11.352
22310SOL     OW68768   3.159   1.699   0.549
22310SOL    HW168769   3.109   1.629   0.591
22310SOL    HW268770   3.244   1.660   0.530
22311SOL     OW68771   1.705  10.533  13.970
22311SOL    HW168772   1.688  10.499  14.058
22311SOL    HW268773   1.740  10.458  13.922
22312SOL     OW68774   7.922   0.496   0.140
22312SOL    HW168775   7.992   0.533   0.085
22312SOL    HW268776   7.953   0.408   0.161
22313SOL     OW68777  13.182   5.425  13.412
22313SOL    HW168778  13.268   5.464  13.394
22313SOL    HW268779  13.188   5.396  13.503
22314SOL     OW68780   0.257   4.912   5.629
22314SOL    HW168781   0.342   4.955   5.623
22314SOL    HW268782   0.220   4.920   5.540
22315SOL     OW68783   8.023   1.279   3.189
22315SOL    HW168784   7.973   1.275   3.270
22315SOL    HW268785   7.957   1.295   3.121
22316SOL     OW68786   6.811   6.454  12.607
22316SOL    HW168787   6.732   6.418  12.567
22316SOL    HW268788   6.883   6.409  12.563
22317SOL     OW68789   9.796   8.190   1.619
22317SOL    HW168790   9.818   8.119   1.559
22317SOL    HW268791   9.721   8.157   1.669
22318SOL     OW68792   1.120  10.968   3.403
22318SOL    HW168793   1.158  11.002   3.484
22318SOL    HW268794   1.095  11.047   3.355
22319SOL     OW68795   5.265   0.406  11.640
22319SOL    HW168796   5.224   0.487  11.610
22319SOL    HW268797   5.347   0.434  11.681
22320SOL     OW68798   7.530   0.541   1.308
22320SOL    HW168799   7.492   0.626   1.286
22320SOL    HW268800   7.464   0.499   1.363
22321SOL     OW68801   1.445   6.472  12.746
22321SOL    HW168802   1.539   6.480  12.729
22321SOL    HW268803   1.404   6.527  12.678
22322SOL     OW68804   8.819   8.480   3.326
22322SOL    HW168805   8.772   8.398   3.308
22322SOL    HW268806   8.801   8.535   3.251
22323SOL     OW68807   3.150   2.784   9.936
22323SOL    HW168808   3.190   2.869   9.922
22323SOL    HW268809   3.143   2.745   9.848
22324SOL     OW68810   3.015   5.605  11.079
22324SOL    HW168811   3.066   5.635  11.155
22324SOL    HW268812   3.020   5.677  11.017
22325SOL     OW68813  10.798   6.360  12.991
22325SOL    HW168814  10.765   6.414  13.062
22325SOL    HW268815  10.889   6.341  13.014
22326SOL     OW68816   3.437  10.439  13.733
22326SOL    HW168817   3.465  10.383  13.805
22326SOL    HW268818   3.515  10.450  13.679
22327SOL     OW68819  14.684   9.499   3.816
22327SOL    HW168820  14.645   9.425   3.770
22327SOL    HW268821  14.649   9.576   3.772
22328SOL     OW68822   2.771   8.724   9.281
22328SOL    HW168823   2.682   8.693   9.263
22328SOL    HW268824   2.828   8.650   9.259
22329SOL     OW68825   0.517  12.794   7.940
22329SOL    HW168826   0.540  12.845   8.018
22329SOL    HW268827   0.511  12.703   7.972
22330SOL     OW68828   4.409   3.700  11.247
22330SOL    HW168829   4.340   3.650  11.292
22330SOL    HW268830   4.453   3.748  11.317
22331SOL     OW68831   5.885   4.261  12.230
22331SOL    HW168832   5.912   4.186  12.284
22331SOL    HW268833   5.936   4.334  12.263
22332SOL     OW68834   7.082   9.661   3.530
22332SOL    HW168835   7.161   9.665   3.478
22332SOL    HW268836   7.019   9.716   3.483
22333SOL     OW68837  11.005   5.891   2.557
22333SOL    HW168838  11.078   5.948   2.581
22333SOL    HW268839  10.927   5.940   2.583
22334SOL     OW68840   4.105   1.397   5.954
22334SOL    HW168841   4.164   1.431   6.022
22334SOL    HW268842   4.024   1.447   5.966
22335SOL     OW68843   8.570  10.860  11.533
22335SOL    HW168844   8.639  10.794  11.540
22335SOL    HW268845   8.551  10.865  11.439
22336SOL     OW68846   4.684  14.159   4.260
22336SOL    HW168847   4.766  14.110   4.251
22336SOL    HW268848   4.617  14.098   4.230
22337SOL     OW68849   3.589  12.943  13.655
22337SOL    HW168850   3.603  12.849  13.651
22337SOL    HW268851   3.560  12.967  13.567
22338SOL     OW68852   3.891   5.298  12.218
22338SOL    HW168853   3.955   5.364  12.243
22338SOL    HW268854   3.910   5.223  12.274
22339SOL     OW68855   4.248   0.984   8.992
22339SOL    HW168856   4.206   1.068   9.011
22339SOL    HW268857   4.200   0.950   8.917
22340SOL     OW68858  14.624   0.646   9.220
22340SOL    HW168859  14.662   0.704   9.286
22340SOL    HW268860  14.531   0.644   9.240
22341SOL     OW68861   5.085   6.432   9.121
22341SOL    HW168862   5.156   6.490   9.095
22341SOL    HW268863   5.079   6.443   9.217
22342SOL     OW68864   9.544   3.628   8.760
22342SOL    HW168865   9.468   3.584   8.723
22342SOL    HW268866   9.591   3.560   8.808
22343SOL     OW68867  10.136   4.804   9.383
22343SOL    HW168868  10.220   4.835   9.418
22343SOL    HW268869  10.114   4.729   9.439
22344SOL     OW68870   2.455  12.587   0.203
22344SOL    HW168871   2.419  12.542   0.127
22344SOL    HW268872   2.436  12.528   0.276
22345SOL     OW68873   6.426  13.805   0.549
22345SOL    HW168874   6.429  13.835   0.458
22345SOL    HW268875   6.468  13.876   0.599
22346SOL     OW68876   2.823   2.255   2.733
22346SOL    HW168877   2.799   2.335   2.780
22346SOL    HW268878   2.864   2.286   2.652
22347SOL     OW68879   2.860   1.631  13.643
22347SOL    HW168880   2.834   1.628  13.735
22347SOL    HW268881   2.780   1.654  13.596
22348SOL     OW68882   9.772   8.857   4.626
22348SOL    HW168883   9.745   8.928   4.684
22348SOL    HW268884   9.761   8.777   4.679
22349SOL     OW68885  12.737   9.402   8.197
22349SOL    HW168886  12.777   9.394   8.283
22349SOL    HW268887  12.700   9.490   8.195
22350SOL     OW68888   6.637   7.280   9.802
22350SOL    HW168889   6.704   7.255   9.739
22350SOL    HW268890   6.596   7.358   9.764
22351SOL     OW68891   3.089   4.914   3.075
22351SOL    HW168892   3.098   4.830   3.031
22351SOL    HW268893   3.174   4.929   3.116
22352SOL     OW68894   2.326   8.163  12.262
22352SOL    HW168895   2.333   8.073  12.293
22352SOL    HW268896   2.252   8.199  12.310
22353SOL     OW68897   4.438   5.682   9.680
22353SOL    HW168898   4.454   5.761   9.732
22353SOL    HW268899   4.355   5.699   9.635
22354SOL     OW68900   0.396   6.020   0.806
22354SOL    HW168901   0.320   6.079   0.814
22354SOL    HW268902   0.467   6.067   0.849
22355SOL     OW68903   9.843   5.119  13.769
22355SOL    HW168904   9.852   5.200  13.819
22355SOL    HW268905   9.837   5.148  13.678
22356SOL     OW68906   3.076   5.986   3.605
22356SOL    HW168907   3.083   5.937   3.523
22356SOL    HW268908   3.116   5.929   3.670
22357SOL     OW68909  10.378  11.971   2.209
22357SOL    HW168910  10.301  11.957   2.155
22357SOL    HW268911  10.418  12.051   2.173
22358SOL     OW68912   3.890  12.683  13.709
22358SOL    HW168913   3.800  12.664  13.683
22358SOL    HW268914   3.888  12.775  13.735
22359SOL     OW68915   2.920   3.458   3.039
22359SOL    HW168916   2.972   3.532   3.070
22359SOL    HW268917   2.908   3.403   3.117
22360SOL     OW68918   8.919   6.083   9.093
22360SOL    HW168919   8.891   6.163   9.137
22360SOL    HW268920   8.860   6.016   9.126
22361SOL     OW68921   5.171   6.933  10.376
22361SOL    HW168922   5.128   6.893  10.301
22361SOL    HW268923   5.179   6.862  10.440
22362SOL     OW68924   8.986  12.398  10.574
22362SOL    HW168925   9.003  12.423  10.483
22362SOL    HW268926   9.061  12.434  10.623
22363SOL     OW68927  14.709   8.815  11.045
22363SOL    HW168928  14.695   8.756  11.120
22363SOL    HW268929  14.677   8.900  11.076
22364SOL     OW68930   8.121   0.150  10.998
22364SOL    HW168931   8.042   0.160  10.944
22364SOL    HW268932   8.189   0.127  10.935
22365SOL     OW68933   0.343   6.100   3.832
22365SOL    HW168934   0.276   6.143   3.886
22365SOL    HW268935   0.375   6.170   3.774
22366SOL     OW68936  14.504   7.634  13.630
22366SOL    HW168937  14.416   7.628  13.593
22366SOL    HW268938  14.525   7.545  13.657
22367SOL     OW68939   8.924   6.754   5.129
22367SOL    HW168940   9.020   6.752   5.129
22367SOL    HW268941   8.903   6.845   5.106
22368SOL     OW68942   7.149   1.837   8.595
22368SOL    HW168943   7.168   1.823   8.502
22368SOL    HW268944   7.197   1.917   8.618
22369SOL     OW68945   4.624   7.966   9.956
22369SOL    HW168946   4.713   7.930   9.955
22369SOL    HW268947   4.569   7.896   9.923
22370SOL     OW68948   5.841  11.389   1.835
22370SOL    HW168949   5.920  11.342   1.806
22370SOL    HW268950   5.773  11.363   1.773
22371SOL     OW68951   7.831   5.694   7.939
22371SOL    HW168952   7.822   5.631   8.010
22371SOL    HW268953   7.823   5.642   7.859
22372SOL     OW68954  13.915   0.683   6.000
22372SOL    HW168955  13.900   0.588   6.003
22372SOL    HW268956  13.835   0.721   6.036
22373SOL     OW68957   1.065   6.275  10.943
22373SOL    HW168958   1.040   6.251  10.854
22373SOL    HW268959   1.053   6.196  10.995
22374SOL     OW68960  11.445   5.180   6.055
22374SOL    HW168961  11.391   5.241   6.005
22374SOL    HW268962  11.404   5.095   6.042
22375SOL     OW68963  11.561  10.520  12.666
22375SOL    HW168964  11.544  10.563  12.750
22375SOL    HW268965  11.507  10.441  12.669
22376SOL     OW68966  13.647   4.774  10.883
22376SOL    HW168967  13.587   4.774  10.958
22376SOL    HW268968  13.592   4.795  10.808
22377SOL     OW68969  10.538   8.477  12.810
22377SOL    HW168970  10.620   8.434  12.832
22377SOL    HW268971  10.564   8.551  12.755
22378SOL     OW68972   6.479   2.047   4.225
22378SOL    HW168973   6.552   2.084   4.274
22378SOL    HW268974   6.478   1.954   4.249
22379SOL     OW68975   8.789   9.051  13.988
22379SOL    HW168976   8.807   8.974  13.934
22379SOL    HW268977   8.774   9.121  13.926
22380SOL     OW68978   2.118  10.724   8.555
22380SOL    HW168979   2.196  10.681   8.590
22380SOL    HW268980   2.107  10.685   8.468
22381SOL     OW68981   5.999  12.582  14.266
22381SOL    HW168982   6.029  12.491  14.268
22381SOL    HW268983   6.015  12.611  14.176
22382SOL     OW68984   6.680   7.953  12.989
22382SOL    HW168985   6.626   7.915  13.058
22382SOL    HW268986   6.747   7.887  12.971
22383SOL     OW68987   1.695   6.361   2.438
22383SOL    HW168988   1.725   6.297   2.374
22383SOL    HW268989   1.750   6.345   2.515
22384SOL     OW68990  14.674  14.617   0.461
22384SOL    HW168991  14.759  14.579   0.440
22384SOL    HW268992  14.634  14.636   0.376
22385SOL     OW68993   3.020   9.904  12.736
22385SOL    HW168994   3.000   9.842  12.666
22385SOL    HW268995   2.960   9.881  12.806
22386SOL     OW68996   5.969   3.390   9.842
22386SOL    HW168997   5.917   3.454   9.891
22386SOL    HW268998   6.052   3.385   9.890
22387SOL     OW68999  10.143   3.967   7.636
22387SOL    HW169000  10.175   3.888   7.591
22387SOL    HW269001  10.222   4.016   7.657
22388SOL     OW69002   1.067   6.760   3.224
22388SOL    HW169003   0.975   6.739   3.238
22388SOL    HW269004   1.107   6.754   3.311
22389SOL     OW69005   4.888  12.003   6.264
22389SOL    HW169006   4.836  11.937   6.217
22389SOL    HW269007   4.915  11.959   6.344
22390SOL     OW69008   0.212   2.757   9.363
22390SOL    HW169009   0.224   2.833   9.419
22390SOL    HW269010   0.120   2.761   9.337
22391SOL     OW69011   0.743   8.459   0.859
22391SOL    HW169012   0.743   8.363   0.858
22391SOL    HW269013   0.782   8.484   0.775
22392SOL     OW69014  11.229  11.191  10.220
22392SOL    HW169015  11.267  11.117  10.268
22392SOL    HW269016  11.305  11.241  10.190
22393SOL     OW69017  10.016   6.642   5.537
22393SOL    HW169018  10.094   6.692   5.562
22393SOL    HW269019  10.023   6.633   5.442
22394SOL     OW69020   9.567   2.948   7.088
22394SOL    HW169021   9.495   2.922   7.031
22394SOL    HW269022   9.581   2.873   7.145
22395SOL     OW69023   7.632   0.807   4.479
22395SOL    HW169024   7.571   0.800   4.406
22395SOL    HW269025   7.597   0.747   4.545
22396SOL     OW69026   4.368  12.177   8.397
22396SOL    HW169027   4.453  12.211   8.423
22396SOL    HW269028   4.387  12.091   8.358
22397SOL     OW69029   7.959   5.156   3.441
22397SOL    HW169030   7.944   5.072   3.484
22397SOL    HW269031   7.905   5.218   3.490
22398SOL     OW69032   2.457   7.703   5.370
22398SOL    HW169033   2.477   7.793   5.345
22398SOL    HW269034   2.438   7.659   5.287
22399SOL     OW69035   3.103   4.733   8.585
22399SOL    HW169036   3.191   4.698   8.600
22399SOL    HW269037   3.086   4.789   8.661
22400SOL     OW69038   4.894   6.991   0.003
22400SOL    HW169039   4.826   7.038   0.051
22400SOL    HW269040   4.857   6.978  14.788
22401SOL     OW69041   8.122   8.726   4.292
22401SOL    HW169042   8.129   8.760   4.381
22401SOL    HW269043   8.169   8.789   4.238
22402SOL     OW69044  13.948   2.416   4.315
22402SOL    HW169045  13.955   2.483   4.384
22402SOL    HW269046  13.888   2.453   4.251
22403SOL     OW69047   7.940   4.153  10.491
22403SOL    HW169048   7.949   4.230  10.436
22403SOL    HW269049   7.987   4.084  10.445
22404SOL     OW69050   6.570   6.243   4.893
22404SOL    HW169051   6.499   6.295   4.931
22404SOL    HW269052   6.649   6.295   4.908
22405SOL     OW69053   3.053   2.239   8.380
22405SOL    HW169054   2.971   2.287   8.364
22405SOL    HW269055   3.026   2.148   8.387
22406SOL     OW69056   2.134  10.875  11.814
22406SOL    HW169057   2.089  10.793  11.836
22406SOL    HW269058   2.064  10.941  11.815
22407SOL     OW69059  14.312   3.311   7.044
22407SOL    HW169060  14.393   3.271   7.012
22407SOL    HW269061  14.274   3.246   7.103
22408SOL     OW69062   8.287   2.133   9.386
22408SOL    HW169063   8.295   2.052   9.336
22408SOL    HW269064   8.376   2.169   9.388
22409SOL     OW69065  10.034   5.900   3.041
22409SOL    HW169066  10.032   5.836   3.111
22409SOL    HW269067   9.946   5.900   3.004
22410SOL     OW69068  11.078   5.428   5.138
22410SOL    HW169069  11.019   5.482   5.086
22410SOL    HW269070  11.157   5.421   5.085
22411SOL     OW69071   2.839   2.316  14.703
22411SOL    HW169072   2.840   2.392  14.645
22411SOL    HW269073   2.768   2.261  14.669
22412SOL     OW69074  11.784  12.276   2.103
22412SOL    HW169075  11.741  12.193   2.082
22412SOL    HW269076  11.712  12.335   2.125
22413SOL     OW69077   8.488  14.260  12.832
22413SOL    HW169078   8.507  14.183  12.885
22413SOL    HW269079   8.535  14.246  12.750
22414SOL     OW69080   6.932  12.114  12.101
22414SOL    HW169081   7.011  12.163  12.120
22414SOL    HW269082   6.930  12.107  12.005
22415SOL     OW69083  13.753  11.223   6.307
22415SOL    HW169084  13.806  11.210   6.385
22415SOL    HW269085  13.715  11.310   6.318
22416SOL     OW69086   2.908   0.948   9.856
22416SOL    HW169087   2.820   0.929   9.824
22416SOL    HW269088   2.903   0.935   9.950
22417SOL     OW69089   7.385   7.704   9.219
22417SOL    HW169090   7.473   7.742   9.225
22417SOL    HW269091   7.391   7.642   9.145
22418SOL     OW69092   5.256  12.764   8.954
22418SOL    HW169093   5.300  12.840   8.915
22418SOL    HW269094   5.326  12.703   8.974
22419SOL     OW69095   9.762   7.409  12.251
22419SOL    HW169096   9.826   7.404  12.180
22419SOL    HW269097   9.749   7.502  12.265
22420SOL     OW69098   7.427   5.111   8.132
22420SOL    HW169099   7.384   5.107   8.218
22420SOL    HW269100   7.444   5.019   8.110
22421SOL     OW69101   5.825  12.737   8.814
22421SOL    HW169102   5.891  12.724   8.883
22421SOL    HW269103   5.874  12.775   8.742
22422SOL     OW69104  12.423  13.977   8.350
22422SOL    HW169105  12.445  13.968   8.443
22422SOL    HW269106  12.504  13.959   8.304
22423SOL     OW69107  14.601   7.429   0.757
22423SOL    HW169108  14.581   7.484   0.833
22423SOL    HW269109  14.655   7.485   0.701
22424SOL     OW69110  12.952   4.442  11.420
22424SOL    HW169111  12.938   4.348  11.412
22424SOL    HW269112  12.867   4.481  11.399
22425SOL     OW69113  10.006   7.003   6.763
22425SOL    HW169114  10.051   7.080   6.797
22425SOL    HW269115  10.009   7.014   6.668
22426SOL     OW69116  12.781   8.811   7.379
22426SOL    HW169117  12.782   8.794   7.285
22426SOL    HW269118  12.689   8.825   7.400
22427SOL     OW69119   0.503   5.567   1.479
22427SOL    HW169120   0.520   5.658   1.505
22427SOL    HW269121   0.422   5.544   1.523
22428SOL     OW69122  14.560  11.683  14.354
22428SOL    HW169123  14.602  11.637  14.427
22428SOL    HW269124  14.630  11.692  14.289
22429SOL     OW69125   8.191   1.457   1.794
22429SOL    HW169126   8.182   1.552   1.806
22429SOL    HW269127   8.278   1.437   1.830
22430SOL     OW69128   9.396   2.437  11.324
22430SOL    HW169129   9.314   2.463  11.367
22430SOL    HW269130   9.413   2.506  11.261
22431SOL     OW69131   0.174  10.742   3.116
22431SOL    HW169132   0.082  10.730   3.095
22431SOL    HW269133   0.217  10.664   3.081
22432SOL     OW69134   4.865   0.330  10.727
22432SOL    HW169135   4.876   0.423  10.705
22432SOL    HW269136   4.844   0.288  10.643
22433SOL     OW69137   3.404   6.014   6.339
22433SOL    HW169138   3.396   6.085   6.275
22433SOL    HW269139   3.332   5.954   6.318
22434SOL     OW69140   3.124   7.097  14.594
22434SOL    HW169141   3.169   7.088  14.510
22434SOL    HW269142   3.188   7.136  14.652
22435SOL     OW69143  12.153  14.004   6.806
22435SOL    HW169144  12.082  14.068   6.812
22435SOL    HW269145  12.174  13.983   6.897
22436SOL     OW69146   0.578   6.964  10.853
22436SOL    HW169147   0.606   6.887  10.802
22436SOL    HW269148   0.550   7.027  10.787
22437SOL     OW69149  12.009   7.202  12.915
22437SOL    HW169150  11.962   7.120  12.932
22437SOL    HW269151  12.093   7.191  12.958
22438SOL     OW69152   2.294  10.801   2.588
22438SOL    HW169153   2.323  10.880   2.635
22438SOL    HW269154   2.329  10.812   2.499
22439SOL     OW69155   9.033   9.961   3.846
22439SOL    HW169156   8.958   9.975   3.905
22439SOL    HW269157   8.996   9.973   3.759
22440SOL     OW69158   4.301  12.050  11.908
22440SOL    HW169159   4.270  11.983  11.970
22440SOL    HW269160   4.265  12.022  11.824
22441SOL     OW69161  14.099   5.703   0.452
22441SOL    HW169162  14.102   5.739   0.363
22441SOL    HW269163  14.185   5.721   0.489
22442SOL     OW69164   6.870   9.734   9.060
22442SOL    HW169165   6.807   9.718   9.130
22442SOL    HW269166   6.817   9.741   8.981
22443SOL     OW69167   4.775   9.001   1.955
22443SOL    HW169168   4.823   9.082   1.968
22443SOL    HW269169   4.796   8.974   1.866
22444SOL     OW69170   9.806   5.912   8.238
22444SOL    HW169171   9.745   5.867   8.181
22444SOL    HW269172   9.786   5.879   8.326
22445SOL     OW69173   1.766   4.878   7.240
22445SOL    HW169174   1.783   4.972   7.242
22445SOL    HW269175   1.682   4.868   7.285
22446SOL     OW69176   3.473  10.176   4.863
22446SOL    HW169177   3.483  10.217   4.949
22446SOL    HW269178   3.406  10.229   4.819
22447SOL     OW69179   0.364   3.970   6.835
22447SOL    HW169180   0.390   3.929   6.753
22447SOL    HW269181   0.332   4.057   6.810
22448SOL     OW69182   5.911  10.765   7.462
22448SOL    HW169183   5.965  10.796   7.535
22448SOL    HW269184   5.824  10.801   7.480
22449SOL     OW69185   0.650   2.489   9.237
22449SOL    HW169186   0.655   2.584   9.237
22449SOL    HW269187   0.683   2.463   9.323
22450SOL     OW69188  12.781   2.760   6.984
22450SOL    HW169189  12.822   2.837   7.023
22450SOL    HW269190  12.820   2.753   6.897
22451SOL     OW69191   0.682   0.349   7.620
22451SOL    HW169192   0.631   0.357   7.701
22451SOL    HW269193   0.683   0.255   7.601
22452SOL     OW69194  12.324  14.684   3.927
22452SOL    HW169195  12.391  14.753   3.920
22452SOL    HW269196  12.244  14.730   3.949
22453SOL     OW69197   5.255   5.046   6.421
22453SOL    HW169198   5.211   4.979   6.473
22453SOL    HW269199   5.202   5.054   6.342
22454SOL     OW69200   1.453   2.211   1.647
22454SOL    HW169201   1.483   2.281   1.705
22454SOL    HW269202   1.421   2.143   1.707
22455SOL     OW69203   9.085  12.963   3.525
22455SOL    HW169204   9.135  12.971   3.606
22455SOL    HW269205   9.029  12.886   3.540
22456SOL     OW69206   4.718   3.486   2.507
22456SOL    HW169207   4.751   3.459   2.421
22456SOL    HW269208   4.640   3.433   2.521
22457SOL     OW69209   4.907   3.414  11.577
22457SOL    HW169210   4.941   3.380  11.660
22457SOL    HW269211   4.840   3.350  11.551
22458SOL     OW69212   8.313   3.480  11.324
22458SOL    HW169213   8.287   3.497  11.415
22458SOL    HW269214   8.408   3.496  11.323
22459SOL     OW69215  14.494  14.382   1.699
22459SOL    HW169216  14.417  14.423   1.658
22459SOL    HW269217  14.494  14.416   1.788
22460SOL     OW69218   5.231   1.866  11.793
22460SOL    HW169219   5.214   1.785  11.745
22460SOL    HW269220   5.157   1.923  11.771
22461SOL     OW69221   9.547  14.313   0.021
22461SOL    HW169222   9.518  14.305  14.803
22461SOL    HW269223   9.481  14.266   0.072
22462SOL     OW69224   9.128   9.006  14.362
22462SOL    HW169225   9.115   8.979  14.271
22462SOL    HW269226   9.047   9.051  14.386
22463SOL     OW69227  12.468   7.433   5.573
22463SOL    HW169228  12.529   7.410   5.642
22463SOL    HW269229  12.398   7.480   5.617
22464SOL     OW69230   3.651  11.013   5.423
22464SOL    HW169231   3.590  10.950   5.383
22464SOL    HW269232   3.731  11.006   5.371
22465SOL     OW69233  12.661   4.832   4.522
22465SOL    HW169234  12.632   4.920   4.546
22465SOL    HW269235  12.665   4.785   4.606
22466SOL     OW69236   5.132   1.572   9.211
22466SOL    HW169237   5.074   1.497   9.223
22466SOL    HW269238   5.186   1.550   9.136
22467SOL     OW69239   8.784  13.591   5.027
22467SOL    HW169240   8.825  13.638   5.099
22467SOL    HW269241   8.740  13.517   5.069
22468SOL     OW69242   7.197   5.585   7.810
22468SOL    HW169243   7.179   5.607   7.719
22468SOL    HW269244   7.290   5.605   7.822
22469SOL     OW69245  12.714   4.519   4.625
22469SOL    HW169246  12.696   4.602   4.668
22469SOL    HW269247  12.797   4.490   4.662
22470SOL     OW69248   1.652  12.557   1.000
22470SOL    HW169249   1.706  12.606   1.063
22470SOL    HW269250   1.626  12.478   1.048
22471SOL     OW69251   9.648   9.561   0.510
22471SOL    HW169252   9.727   9.574   0.457
22471SOL    HW269253   9.639   9.465   0.515
22472SOL     OW69254   1.239   4.330   9.643
22472SOL    HW169255   1.258   4.287   9.559
22472SOL    HW269256   1.242   4.260   9.708
22473SOL     OW69257   2.930   4.393  11.529
22473SOL    HW169258   2.973   4.320  11.484
22473SOL    HW269259   2.958   4.384  11.620
22474SOL     OW69260   0.946   5.706   4.032
22474SOL    HW169261   0.919   5.696   4.123
22474SOL    HW269262   0.865   5.697   3.981
22475SOL     OW69263   6.754  12.080   3.443
22475SOL    HW169264   6.759  12.060   3.349
22475SOL    HW269265   6.760  12.175   3.447
22476SOL     OW69266   0.692  14.482   3.592
22476SOL    HW169267   0.781  14.481   3.628
22476SOL    HW269268   0.640  14.433   3.656
22477SOL     OW69269  11.575  13.730   6.317
22477SOL    HW169270  11.526  13.662   6.271
22477SOL    HW269271  11.602  13.791   6.249
22478SOL     OW69272  11.426  12.211  10.158
22478SOL    HW169273  11.474  12.293  10.147
22478SOL    HW269274  11.468  12.150  10.097
22479SOL     OW69275   9.762   9.182   5.371
22479SOL    HW169276   9.758   9.121   5.445
22479SOL    HW269277   9.679   9.229   5.373
22480SOL     OW69278  12.158  10.441   4.791
22480SOL    HW169279  12.079  10.490   4.767
22480SOL    HW269280  12.228  10.506   4.794
22481SOL     OW69281  10.925   6.316   8.691
22481SOL    HW169282  10.852   6.336   8.749
22481SOL    HW269283  10.972   6.245   8.735
22482SOL     OW69284   3.599   6.878   3.830
22482SOL    HW169285   3.518   6.925   3.852
22482SOL    HW269286   3.580   6.787   3.851
22483SOL     OW69287   8.404   0.045  12.854
22483SOL    HW169288   8.454  14.867  12.918
22483SOL    HW269289   8.470   0.076  12.791
22484SOL     OW69290   0.006   2.596   2.285
22484SOL    HW169291   0.027   2.627   2.373
22484SOL    HW269292   0.084   2.548   2.257
22485SOL     OW69293   7.341   0.675   1.797
22485SOL    HW169294   7.415   0.698   1.854
22485SOL    HW269295   7.365   0.590   1.760
22486SOL     OW69296   8.374   4.307   6.575
22486SOL    HW169297   8.453   4.252   6.564
22486SOL    HW269298   8.388   4.380   6.515
22487SOL     OW69299  13.262  13.012  10.441
22487SOL    HW169300  13.190  12.967  10.398
22487SOL    HW269301  13.256  13.102  10.409
22488SOL     OW69302   9.808  12.615  13.958
22488SOL    HW169303   9.720  12.612  13.996
22488SOL    HW269304   9.856  12.544  14.003
22489SOL     OW69305   4.966   0.058   2.944
22489SOL    HW169306   5.060   0.044   2.930
22489SOL    HW269307   4.928   0.057   2.856
22490SOL     OW69308   9.387  13.632   2.999
22490SOL    HW169309   9.463  13.601   3.049
22490SOL    HW269310   9.367  13.560   2.939
22491SOL     OW69311  11.468  11.577  10.909
22491SOL    HW169312  11.563  11.576  10.895
22491SOL    HW269313  11.449  11.492  10.949
22492SOL     OW69314  14.480   8.603   2.521
22492SOL    HW169315  14.505   8.616   2.429
22492SOL    HW269316  14.524   8.674   2.568
22493SOL     OW69317   1.540  14.350   6.856
22493SOL    HW169318   1.523  14.413   6.786
22493SOL    HW269319   1.490  14.273   6.832
22494SOL     OW69320   1.319   0.458  10.387
22494SOL    HW169321   1.397   0.512  10.377
22494SOL    HW269322   1.292   0.471  10.478
22495SOL     OW69323  11.679  10.962   3.186
22495SOL    HW169324  11.744  10.984   3.253
22495SOL    HW269325  11.689  11.030   3.119
22496SOL     OW69326   0.792   8.903   5.945
22496SOL    HW169327   0.755   8.887   6.033
22496SOL    HW269328   0.756   8.833   5.891
22497SOL     OW69329   6.188   8.194   1.372
22497SOL    HW169330   6.244   8.252   1.424
22497SOL    HW269331   6.137   8.145   1.437
22498SOL     OW69332  10.016  13.597   3.790
22498SOL    HW169333  10.061  13.633   3.714
22498SOL    HW269334  10.081  13.603   3.861
22499SOL     OW69335   9.112  10.246   2.289
22499SOL    HW169336   9.106  10.327   2.340
22499SOL    HW269337   9.206  10.237   2.271
22500SOL     OW69338   2.037   3.718   4.512
22500SOL    HW169339   1.984   3.731   4.591
22500SOL    HW269340   2.116   3.673   4.543
22501SOL     OW69341   0.498   5.481   5.033
22501SOL    HW169342   0.592   5.500   5.034
22501SOL    HW269343   0.492   5.391   5.001
22502SOL     OW69344   3.583   6.144   6.493
22502SOL    HW169345   3.533   6.084   6.437
22502SOL    HW269346   3.576   6.229   6.449
22503SOL     OW69347  11.362   7.345   6.349
22503SOL    HW169348  11.416   7.353   6.428
22503SOL    HW269349  11.293   7.410   6.361
22504SOL     OW69350   2.998   9.249  12.780
22504SOL    HW169351   2.985   9.278  12.690
22504SOL    HW269352   2.909   9.231  12.812
22505SOL     OW69353  14.823   7.926   7.901
22505SOL    HW169354   0.015   7.996   7.893
22505SOL    HW269355  14.762   7.958   7.968
22506SOL     OW69356  12.259   5.226  14.112
22506SOL    HW169357  12.334   5.190  14.065
22506SOL    HW269358  12.195   5.247  14.044
22507SOL     OW69359   0.557   7.520   5.145
22507SOL    HW169360   0.583   7.477   5.064
22507SOL    HW269361   0.639   7.543   5.188
22508SOL     OW69362   2.989   2.956   3.526
22508SOL    HW169363   2.991   2.942   3.432
22508SOL    HW269364   2.896   2.959   3.548
22509SOL     OW69365  10.808   9.308   4.919
22509SOL    HW169366  10.780   9.360   4.994
22509SOL    HW269367  10.803   9.217   4.949
22510SOL     OW69368   4.168  11.548   8.723
22510SOL    HW169369   4.251  11.557   8.676
22510SOL    HW269370   4.160  11.630   8.773
22511SOL     OW69371   3.911   6.565   1.955
22511SOL    HW169372   3.886   6.475   1.933
22511SOL    HW269373   3.855   6.589   2.029
22512SOL     OW69374  13.126   3.190  11.805
22512SOL    HW169375  13.140   3.270  11.754
22512SOL    HW269376  13.040   3.159  11.775
22513SOL     OW69377   2.999   0.352  11.638
22513SOL    HW169378   2.959   0.312  11.715
22513SOL    HW269379   2.925   0.395  11.593
22514SOL     OW69380   5.283  12.552  13.925
22514SOL    HW169381   5.347  12.480  13.924
22514SOL    HW269382   5.276  12.579  13.834
22515SOL     OW69383  13.836   1.709   5.818
22515SOL    HW169384  13.928   1.714   5.841
22515SOL    HW269385  13.823   1.777   5.752
22516SOL     OW69386   7.232   8.968  13.645
22516SOL    HW169387   7.265   9.021  13.572
22516SOL    HW269388   7.247   9.022  13.722
22517SOL     OW69389   4.190   6.795  11.350
22517SOL    HW169390   4.115   6.745  11.383
22517SOL    HW269391   4.150   6.865  11.297
22518SOL     OW69392  13.017   3.396   8.290
22518SOL    HW169393  13.091   3.423   8.235
22518SOL    HW269394  13.009   3.466   8.355
22519SOL     OW69395   2.092   1.388   1.754
22519SOL    HW169396   2.183   1.392   1.724
22519SOL    HW269397   2.052   1.320   1.700
22520SOL     OW69398  14.021  13.127  11.841
22520SOL    HW169399  14.023  13.034  11.819
22520SOL    HW269400  13.979  13.169  11.766
22521SOL     OW69401   7.272   4.732   2.832
22521SOL    HW169402   7.249   4.697   2.918
22521SOL    HW269403   7.188   4.734   2.785
22522SOL     OW69404  10.714   4.311  12.479
22522SOL    HW169405  10.773   4.239  12.457
22522SOL    HW269406  10.631   4.268  12.501
22523SOL     OW69407   6.770  10.873  11.550
22523SOL    HW169408   6.753  10.966  11.564
22523SOL    HW269409   6.697  10.843  11.496
22524SOL     OW69410   1.536  13.587  14.421
22524SOL    HW169411   1.552  13.539  14.340
22524SOL    HW269412   1.529  13.519  14.488
22525SOL     OW69413  11.572  12.120   9.899
22525SOL    HW169414  11.639  12.183   9.871
22525SOL    HW269415  11.607  12.035   9.873
22526SOL     OW69416  11.640  10.019   9.257
22526SOL    HW169417  11.590   9.957   9.204
22526SOL    HW269418  11.587  10.099   9.256
22527SOL     OW69419   1.512  11.678  10.477
22527SOL    HW169420   1.450  11.750  10.464
22527SOL    HW269421   1.592  11.708  10.432
22528SOL     OW69422  10.350   7.352  10.331
22528SOL    HW169423  10.300   7.416  10.380
22528SOL    HW269424  10.440   7.362  10.362
22529SOL     OW69425   2.985  11.966   8.838
22529SOL    HW169426   2.990  11.942   8.745
22529SOL    HW269427   3.016  12.057   8.841
22530SOL     OW69428   1.741  14.587   7.291
22530SOL    HW169429   1.777  14.531   7.223
22530SOL    HW269430   1.684  14.648   7.243
22531SOL     OW69431  14.114   6.614  12.000
22531SOL    HW169432  14.103   6.636  12.092
22531SOL    HW269433  14.044   6.552  11.981
22532SOL     OW69434   2.380   8.370  13.771
22532SOL    HW169435   2.434   8.424  13.714
22532SOL    HW269436   2.440   8.302  13.803
22533SOL     OW69437   3.690   1.827   2.579
22533SOL    HW169438   3.741   1.813   2.658
22533SOL    HW269439   3.748   1.877   2.521
22534SOL     OW69440  12.630  13.489  14.669
22534SOL    HW169441  12.709  13.438  14.686
22534SOL    HW269442  12.627  13.498  14.574
22535SOL     OW69443  14.544  11.933   0.776
22535SOL    HW169444  14.591  11.995   0.832
22535SOL    HW269445  14.585  11.943   0.690
22536SOL     OW69446  12.734  12.231  10.087
22536SOL    HW169447  12.725  12.267   9.999
22536SOL    HW269448  12.649  12.190  10.105
22537SOL     OW69449   2.386   3.710  10.403
22537SOL    HW169450   2.323   3.657  10.452
22537SOL    HW269451   2.333   3.776  10.359
22538SOL     OW69452  14.645   8.815   8.373
22538SOL    HW169453  14.641   8.826   8.468
22538SOL    HW269454  14.738   8.818   8.353
22539SOL     OW69455   6.982   3.430   3.706
22539SOL    HW169456   7.050   3.478   3.659
22539SOL    HW269457   6.936   3.381   3.638
22540SOL     OW69458   4.576   2.708  10.205
22540SOL    HW169459   4.596   2.791  10.247
22540SOL    HW269460   4.529   2.732  10.125
22541SOL     OW69461   6.864   6.877  10.603
22541SOL    HW169462   6.829   6.917  10.523
22541SOL    HW269463   6.835   6.786  10.599
22542SOL     OW69464  11.719   2.140   1.208
22542SOL    HW169465  11.676   2.225   1.196
22542SOL    HW269466  11.789   2.138   1.143
22543SOL     OW69467  14.026  12.662   0.943
22543SOL    HW169468  14.114  12.698   0.931
22543SOL    HW269469  13.973  12.705   0.876
22544SOL     OW69470   0.720   0.933   9.968
22544SOL    HW169471   0.645   0.951   9.910
22544SOL    HW269472   0.796   0.959   9.917
22545SOL     OW69473   3.502  12.213   4.881
22545SOL    HW169474   3.429  12.238   4.938
22545SOL    HW269475   3.517  12.291   4.827
22546SOL     OW69476  10.785  11.107   5.295
22546SOL    HW169477  10.839  11.186   5.294
22546SOL    HW269478  10.844  11.037   5.270
22547SOL     OW69479  12.712  13.199   3.417
22547SOL    HW169480  12.779  13.203   3.349
22547SOL    HW269481  12.658  13.124   3.394
22548SOL     OW69482   0.997   1.332   1.536
22548SOL    HW169483   0.940   1.265   1.573
22548SOL    HW269484   0.972   1.336   1.443
22549SOL     OW69485   6.207   4.229   5.392
22549SOL    HW169486   6.155   4.190   5.322
22549SOL    HW269487   6.188   4.175   5.469
22550SOL     OW69488   4.932  11.166   8.660
22550SOL    HW169489   4.984  11.104   8.609
22550SOL    HW269490   4.997  11.224   8.699
22551SOL     OW69491  13.385  11.770   0.051
22551SOL    HW169492  13.443  11.821  14.868
22551SOL    HW269493  13.443  11.719   0.107
22552SOL     OW69494   6.559  11.766   1.093
22552SOL    HW169495   6.610  11.772   1.174
22552SOL    HW269496   6.494  11.836   1.101
22553SOL     OW69497  10.999  13.804   2.405
22553SOL    HW169498  10.925  13.841   2.358
22553SOL    HW269499  11.032  13.735   2.348
22554SOL     OW69500   8.979   7.180   5.777
22554SOL    HW169501   8.915   7.161   5.845
22554SOL    HW269502   8.994   7.275   5.785
22555SOL     OW69503   0.863   9.745   0.853
22555SOL    HW169504   0.848   9.667   0.800
22555SOL    HW269505   0.927   9.796   0.803
22556SOL     OW69506  12.005   0.933   7.988
22556SOL    HW169507  11.956   0.913   8.068
22556SOL    HW269508  11.972   0.869   7.925
22557SOL     OW69509   2.513  11.732   3.962
22557SOL    HW169510   2.437  11.737   4.021
22557SOL    HW269511   2.545  11.643   3.972
22558SOL     OW69512  12.066   3.973   2.217
22558SOL    HW169513  12.129   4.027   2.169
22558SOL    HW269514  12.102   3.968   2.306
22559SOL     OW69515  10.015  10.677   8.935
22559SOL    HW169516   9.953  10.745   8.961
22559SOL    HW269517  10.080  10.723   8.881
22560SOL     OW69518   1.166  13.879   8.046
22560SOL    HW169519   1.099  13.934   8.087
22560SOL    HW269520   1.134  13.790   8.056
22561SOL     OW69521  10.584   4.374   9.133
22561SOL    HW169522  10.624   4.406   9.053
22561SOL    HW269523  10.588   4.279   9.125
22562SOL     OW69524   0.914   0.394   5.698
22562SOL    HW169525   0.960   0.436   5.625
22562SOL    HW269526   0.980   0.340   5.740
22563SOL     OW69527  14.870  14.042   6.769
22563SOL    HW169528   0.068  14.049   6.705
22563SOL    HW269529  14.844  13.950   6.765
22564SOL     OW69530   7.754   8.058  14.497
22564SOL    HW169531   7.731   7.998  14.568
22564SOL    HW269532   7.833   8.102  14.527
22565SOL     OW69533   7.412   4.261   4.203
22565SOL    HW169534   7.413   4.256   4.107
22565SOL    HW269535   7.406   4.170   4.232
22566SOL     OW69536   1.147  14.757   0.017
22566SOL    HW169537   1.081  14.709   0.066
22566SOL    HW269538   1.229  14.709   0.034
22567SOL     OW69539   4.129  12.798   2.225
22567SOL    HW169540   4.191  12.863   2.193
22567SOL    HW269541   4.088  12.762   2.146
22568SOL     OW69542   0.349   5.975   7.359
22568SOL    HW169543   0.313   6.048   7.308
22568SOL    HW269544   0.279   5.909   7.360
22569SOL     OW69545  11.977   7.320  14.780
22569SOL    HW169546  11.891   7.280  14.769
22569SOL    HW269547  11.969   7.405  14.736
22570SOL     OW69548  14.810   5.801   3.660
22570SOL    HW169549  14.816   5.817   3.754
22570SOL    HW269550  14.719   5.821   3.638
22571SOL     OW69551   2.751   6.101  14.452
22571SOL    HW169552   2.785   6.017  14.421
22571SOL    HW269553   2.828   6.156  14.465
22572SOL     OW69554   3.003   0.353  12.911
22572SOL    HW169555   3.013   0.396  12.996
22572SOL    HW269556   3.092   0.336  12.882
22573SOL     OW69557  10.180   7.844   4.615
22573SOL    HW169558  10.089   7.820   4.634
22573SOL    HW269559  10.228   7.762   4.616
22574SOL     OW69560   0.615  14.426   9.594
22574SOL    HW169561   0.570  14.364   9.651
22574SOL    HW269562   0.708  14.407   9.606
22575SOL     OW69563  11.495   1.558   1.471
22575SOL    HW169564  11.514   1.480   1.420
22575SOL    HW269565  11.405   1.580   1.448
22576SOL     OW69566   5.658   5.897  14.287
22576SOL    HW169567   5.660   5.991  14.271
22576SOL    HW269568   5.616   5.888  14.372
22577SOL     OW69569   6.425   6.605   8.929
22577SOL    HW169570   6.339   6.647   8.923
22577SOL    HW269571   6.475   6.661   8.988
22578SOL     OW69572   5.530   1.438   7.438
22578SOL    HW169573   5.603   1.471   7.385
22578SOL    HW269574   5.572   1.384   7.505
22579SOL     OW69575   0.065   6.566  14.043
22579SOL    HW169576   0.019   6.645  14.012
22579SOL    HW269577   0.158   6.589  14.035
22580SOL     OW69578   5.774   4.869   2.433
22580SOL    HW169579   5.832   4.793   2.443
22580SOL    HW269580   5.832   4.942   2.414
22581SOL     OW69581   9.571   2.777   7.308
22581SOL    HW169582   9.476   2.773   7.292
22581SOL    HW269583   9.590   2.697   7.356
22582SOL     OW69584  13.403  13.237   7.313
22582SOL    HW169585  13.458  13.185   7.372
22582SOL    HW269586  13.360  13.300   7.370
22583SOL     OW69587   2.261   0.353  11.098
22583SOL    HW169588   2.274   0.317  11.186
22583SOL    HW269589   2.288   0.445  11.106
22584SOL     OW69590   3.554   2.703  11.624
22584SOL    HW169591   3.569   2.774  11.562
22584SOL    HW269592   3.588   2.736  11.707
22585SOL     OW69593   8.176  11.122   0.530
22585SOL    HW169594   8.143  11.212   0.522
22585SOL    HW269595   8.236  11.112   0.457
22586SOL     OW69596   1.554   3.506  13.724
22586SOL    HW169597   1.502   3.487  13.646
22586SOL    HW269598   1.570   3.600  13.720
22587SOL     OW69599  10.578   2.343   2.196
22587SOL    HW169600  10.646   2.282   2.167
22587SOL    HW269601  10.562   2.319   2.287
22588SOL     OW69602   7.999   9.920   5.713
22588SOL    HW169603   7.958   9.834   5.701
22588SOL    HW269604   8.025   9.946   5.625
22589SOL     OW69605   7.720  10.465   9.689
22589SOL    HW169606   7.638  10.462   9.737
22589SOL    HW269607   7.741  10.558   9.684
22590SOL     OW69608   8.950  10.902   6.385
22590SOL    HW169609   8.893  10.878   6.312
22590SOL    HW269610   8.935  10.833   6.450
22591SOL     OW69611  11.042   3.180   0.493
22591SOL    HW169612  11.084   3.153   0.412
22591SOL    HW269613  11.112   3.220   0.545
22592SOL     OW69614   7.015  10.524   5.283
22592SOL    HW169615   6.990  10.533   5.375
22592SOL    HW269616   6.993  10.434   5.261
22593SOL     OW69617   7.560  14.307  11.516
22593SOL    HW169618   7.472  14.271  11.522
22593SOL    HW269619   7.591  14.280  11.429
22594SOL     OW69620   7.320  14.202  10.772
22594SOL    HW169621   7.328  14.266  10.842
22594SOL    HW269622   7.278  14.127  10.813
22595SOL     OW69623   8.614   9.445  10.690
22595SOL    HW169624   8.557   9.500  10.744
22595SOL    HW269625   8.678   9.506  10.654
22596SOL     OW69626   9.212  10.931   9.871
22596SOL    HW169627   9.126  10.912   9.909
22596SOL    HW269628   9.265  10.855   9.895
22597SOL     OW69629   8.726  12.128   6.583
22597SOL    HW169630   8.715  12.221   6.567
22597SOL    HW269631   8.816  12.119   6.614
22598SOL     OW69632   0.142  10.580   0.808
22598SOL    HW169633   0.225  10.599   0.764
22598SOL    HW269634   0.162  10.507   0.867
22599SOL     OW69635  12.054  11.386  13.226
22599SOL    HW169636  11.982  11.449  13.237
22599SOL    HW269637  12.011  11.300  13.227
22600SOL     OW69638   3.441  14.283   2.642
22600SOL    HW169639   3.510  14.337   2.603
22600SOL    HW269640   3.432  14.209   2.583
22601SOL     OW69641  12.987  11.835   4.861
22601SOL    HW169642  12.893  11.816   4.850
22601SOL    HW269643  12.993  11.876   4.947
22602SOL     OW69644   2.213   3.872  10.237
22602SOL    HW169645   2.225   3.867  10.142
22602SOL    HW269646   2.136   3.928  10.248
22603SOL     OW69647  10.720  14.616  14.649
22603SOL    HW169648  10.666  14.539  14.634
22603SOL    HW269649  10.662  14.678  14.694
22604SOL     OW69650   5.696   9.139  10.205
22604SOL    HW169651   5.753   9.176  10.137
22604SOL    HW269652   5.694   9.206  10.273
22605SOL     OW69653   1.299   5.890  13.052
22605SOL    HW169654   1.233   5.958  13.065
22605SOL    HW269655   1.248   5.812  13.030
22606SOL     OW69656   1.608  10.298   2.972
22606SOL    HW169657   1.693  10.263   2.997
22606SOL    HW269658   1.606  10.386   3.010
22607SOL     OW69659   6.203   2.340   6.152
22607SOL    HW169660   6.268   2.395   6.109
22607SOL    HW269661   6.239   2.325   6.239
22608SOL     OW69662   5.130  13.737   8.429
22608SOL    HW169663   5.079  13.816   8.445
22608SOL    HW269664   5.089  13.670   8.484
22609SOL     OW69665   1.481   9.941   1.151
22609SOL    HW169666   1.413   9.961   1.216
22609SOL    HW269667   1.561   9.931   1.202
22610SOL     OW69668   0.031  14.468   7.099
22610SOL    HW169669  14.826  14.513   7.131
22610SOL    HW269670   0.011  14.375   7.107
22611SOL     OW69671   4.903   9.953   8.452
22611SOL    HW169672   4.819   9.907   8.444
22611SOL    HW269673   4.938   9.925   8.536
22612SOL     OW69674  13.757   4.441   2.298
22612SOL    HW169675  13.791   4.352   2.300
22612SOL    HW269676  13.723   4.451   2.209
22613SOL     OW69677   0.790  13.276   2.471
22613SOL    HW169678   0.842  13.337   2.419
22613SOL    HW269679   0.848  13.246   2.541
22614SOL     OW69680   3.913   5.647   4.316
22614SOL    HW169681   3.901   5.736   4.349
22614SOL    HW269682   3.962   5.602   4.385
22615SOL     OW69683  11.073   6.059  10.733
22615SOL    HW169684  11.128   6.008  10.792
22615SOL    HW269685  11.096   6.150  10.751
22616SOL     OW69686   7.625   3.506   6.350
22616SOL    HW169687   7.700   3.538   6.400
22616SOL    HW269688   7.664   3.450   6.283
22617SOL     OW69689   9.242   0.805  11.672
22617SOL    HW169690   9.215   0.768  11.589
22617SOL    HW269691   9.172   0.865  11.696
22618SOL     OW69692   0.148   0.262  14.222
22618SOL    HW169693   0.072   0.212  14.251
22618SOL    HW269694   0.140   0.347  14.267
22619SOL     OW69695   3.730   6.204  12.017
22619SOL    HW169696   3.804   6.231  12.072
22619SOL    HW269697   3.770   6.180  11.933
22620SOL     OW69698   6.001   3.085  12.632
22620SOL    HW169699   5.913   3.121  12.637
22620SOL    HW269700   6.050   3.131  12.701
22621SOL     OW69701   6.316   4.358   0.050
22621SOL    HW169702   6.343   4.284   0.105
22621SOL    HW269703   6.315   4.432   0.110
22622SOL     OW69704   1.808  11.861   3.184
22622SOL    HW169705   1.797  11.832   3.093
22622SOL    HW269706   1.850  11.788   3.228
22623SOL     OW69707   2.365   6.334  14.466
22623SOL    HW169708   2.355   6.423  14.431
22623SOL    HW269709   2.276   6.303  14.479
22624SOL     OW69710  10.690   8.080  13.031
22624SOL    HW169711  10.776   8.074  13.071
22624SOL    HW269712  10.690   8.165  12.987
22625SOL     OW69713   4.554   4.300   5.707
22625SOL    HW169714   4.527   4.219   5.751
22625SOL    HW269715   4.642   4.280   5.674
22626SOL     OW69716   8.411   5.282   2.067
22626SOL    HW169717   8.346   5.215   2.092
22626SOL    HW269718   8.472   5.235   2.010
22627SOL     OW69719  13.324   4.445   6.348
22627SOL    HW169720  13.236   4.479   6.366
22627SOL    HW269721  13.381   4.521   6.352
22628SOL     OW69722  10.754   4.083   1.729
22628SOL    HW169723  10.807   4.156   1.761
22628SOL    HW269724  10.738   4.029   1.806
22629SOL     OW69725   9.236   8.946  11.437
22629SOL    HW169726   9.320   8.912  11.405
22629SOL    HW269727   9.188   8.868  11.466
22630SOL     OW69728   4.215   4.931   6.399
22630SOL    HW169729   4.149   4.863   6.385
22630SOL    HW269730   4.294   4.882   6.424
22631SOL     OW69731   5.126   5.325   6.802
22631SOL    HW169732   5.159   5.342   6.890
22631SOL    HW269733   5.112   5.230   6.800
22632SOL     OW69734   9.943   4.176   3.381
22632SOL    HW169735   9.974   4.258   3.342
22632SOL    HW269736   9.982   4.175   3.468
22633SOL     OW69737  10.504  10.414   1.789
22633SOL    HW169738  10.502  10.463   1.706
22633SOL    HW269739  10.452  10.468   1.849
22634SOL     OW69740   2.505   4.018   9.769
22634SOL    HW169741   2.570   4.063   9.716
22634SOL    HW269742   2.434   4.081   9.779
22635SOL     OW69743   0.723   0.419  13.347
22635SOL    HW169744   0.726   0.323  13.348
22635SOL    HW269745   0.637   0.441  13.311
22636SOL     OW69746   9.431  12.907   6.395
22636SOL    HW169747   9.402  12.994   6.423
22636SOL    HW269748   9.397  12.897   6.307
22637SOL     OW69749  11.946   8.252   2.626
22637SOL    HW169750  11.879   8.197   2.666
22637SOL    HW269751  11.912   8.274   2.540
22638SOL     OW69752   0.965   3.222  14.587
22638SOL    HW169753   0.916   3.197  14.665
22638SOL    HW269754   1.040   3.162  14.586
22639SOL     OW69755  10.394   3.332  14.701
22639SOL    HW169756  10.386   3.271  14.627
22639SOL    HW269757  10.304   3.345  14.731
22640SOL     OW69758   2.914   2.078  13.790
22640SOL    HW169759   2.872   2.021  13.854
22640SOL    HW269760   2.880   2.049  13.706
22641SOL     OW69761  13.225   2.059  13.412
22641SOL    HW169762  13.265   2.114  13.345
22641SOL    HW269763  13.131   2.072  13.401
22642SOL     OW69764   2.252   7.868   0.759
22642SOL    HW169765   2.228   7.902   0.672
22642SOL    HW269766   2.213   7.780   0.761
22643SOL     OW69767   1.393   3.614   1.337
22643SOL    HW169768   1.397   3.574   1.424
22643SOL    HW269769   1.382   3.708   1.354
22644SOL     OW69770   2.602   0.332   5.548
22644SOL    HW169771   2.675   0.273   5.565
22644SOL    HW269772   2.641   0.419   5.542
22645SOL     OW69773  11.156   0.087   0.073
22645SOL    HW169774  11.064   0.062   0.085
22645SOL    HW269775  11.206   0.013   0.107
22646SOL     OW69776  13.255   5.320   8.564
22646SOL    HW169777  13.169   5.287   8.592
22646SOL    HW269778  13.249   5.324   8.468
22647SOL     OW69779   1.663  14.515   6.663
22647SOL    HW169780   1.718  14.456   6.612
22647SOL    HW269781   1.709  14.599   6.660
22648SOL     OW69782   1.558   3.429   5.716
22648SOL    HW169783   1.490   3.431   5.783
22648SOL    HW269784   1.600   3.343   5.726
22649SOL     OW69785  11.350  12.305   7.587
22649SOL    HW169786  11.310  12.263   7.663
22649SOL    HW269787  11.325  12.249   7.513
22650SOL     OW69788   1.932   7.582   8.715
22650SOL    HW169789   1.876   7.587   8.792
22650SOL    HW269790   2.021   7.583   8.749
22651SOL     OW69791   4.402  10.733   2.854
22651SOL    HW169792   4.484  10.778   2.873
22651SOL    HW269793   4.335  10.801   2.864
22652SOL     OW69794   0.202   5.852   4.876
22652SOL    HW169795   0.130   5.869   4.937
22652SOL    HW269796   0.267   5.805   4.929
22653SOL     OW69797   9.910   4.333   3.705
22653SOL    HW169798   9.981   4.321   3.768
22653SOL    HW269799   9.900   4.428   3.698
22654SOL     OW69800   3.113   2.316   0.237
22654SOL    HW169801   3.020   2.319   0.214
22654SOL    HW269802   3.146   2.403   0.215
22655SOL     OW69803  14.425   3.743   0.403
22655SOL    HW169804  14.334   3.736   0.374
22655SOL    HW269805  14.444   3.659   0.444
22656SOL     OW69806   1.301   5.659   3.809
22656SOL    HW169807   1.358   5.735   3.814
22656SOL    HW269808   1.312   5.615   3.893
22657SOL     OW69809  13.169   4.156   5.489
22657SOL    HW169810  13.164   4.129   5.397
22657SOL    HW269811  13.161   4.075   5.538
22658SOL     OW69812   4.429   9.140   8.160
22658SOL    HW169813   4.421   9.089   8.240
22658SOL    HW269814   4.522   9.161   8.154
22659SOL     OW69815  10.768   6.758   2.980
22659SOL    HW169816  10.857   6.749   3.012
22659SOL    HW269817  10.769   6.717   2.894
22660SOL     OW69818   4.373  11.960   5.130
22660SOL    HW169819   4.426  11.903   5.075
22660SOL    HW269820   4.435  12.001   5.189
22661SOL     OW69821  10.089  13.374  11.289
22661SOL    HW169822  10.049  13.459  11.309
22661SOL    HW269823  10.059  13.354  11.200
22662SOL     OW69824   8.743   4.224  11.037
22662SOL    HW169825   8.660   4.187  11.009
22662SOL    HW269826   8.721   4.281  11.111
22663SOL     OW69827  14.077   1.377  14.208
22663SOL    HW169828  14.026   1.370  14.289
22663SOL    HW269829  14.135   1.301  14.210
22664SOL     OW69830  12.516  13.053   5.212
22664SOL    HW169831  12.558  13.046   5.126
22664SOL    HW269832  12.559  12.986   5.265
22665SOL     OW69833   4.956  13.185  14.174
22665SOL    HW169834   4.968  13.235  14.094
22665SOL    HW269835   4.958  13.093  14.145
22666SOL     OW69836   9.035  12.651   0.930
22666SOL    HW169837   9.023  12.742   0.902
22666SOL    HW269838   9.073  12.658   1.018
22667SOL     OW69839   9.230   9.675   6.353
22667SOL    HW169840   9.305   9.631   6.314
22667SOL    HW269841   9.210   9.624   6.431
22668SOL     OW69842  10.477  10.594   8.958
22668SOL    HW169843  10.495  10.666   8.897
22668SOL    HW269844  10.541  10.527   8.935
22669SOL     OW69845  10.051   1.275   4.141
22669SOL    HW169846  10.015   1.200   4.096
22669SOL    HW269847  10.088   1.239   4.222
22670SOL     OW69848   7.681   5.369   1.435
22670SOL    HW169849   7.769   5.378   1.472
22670SOL    HW269850   7.634   5.312   1.496
22671SOL     OW69851   4.128   6.505  13.515
22671SOL    HW169852   4.183   6.574  13.479
22671SOL    HW269853   4.139   6.513  13.610
22672SOL     OW69854   9.917   8.171   3.312
22672SOL    HW169855   9.881   8.085   3.293
22672SOL    HW269856   9.876   8.198   3.394
22673SOL     OW69857  14.792  12.145   5.373
22673SOL    HW169858  14.803  12.050   5.377
22673SOL    HW269859  14.708  12.157   5.329
22674SOL     OW69860   2.511   5.199  14.578
22674SOL    HW169861   2.530   5.219  14.486
22674SOL    HW269862   2.576   5.248  14.627
22675SOL     OW69863   2.799   6.121   9.373
22675SOL    HW169864   2.890   6.105   9.349
22675SOL    HW269865   2.782   6.211   9.345
22676SOL     OW69866   2.552   3.944   3.874
22676SOL    HW169867   2.486   3.885   3.910
22676SOL    HW269868   2.592   3.985   3.950
22677SOL     OW69869   7.119  13.642   9.642
22677SOL    HW169870   7.104  13.642   9.737
22677SOL    HW269871   7.031  13.641   9.604
22678SOL     OW69872   1.849   3.717   0.143
22678SOL    HW169873   1.787   3.716   0.216
22678SOL    HW269874   1.902   3.638   0.157
22679SOL     OW69875  13.050   7.305  11.564
22679SOL    HW169876  13.029   7.319  11.471
22679SOL    HW269877  13.063   7.393  11.599
22680SOL     OW69878   3.848   5.647   2.252
22680SOL    HW169879   3.909   5.715   2.224
22680SOL    HW269880   3.769   5.663   2.201
22681SOL     OW69881  13.936  13.224   0.347
22681SOL    HW169882  14.026  13.191   0.338
22681SOL    HW269883  13.894  13.165   0.409
22682SOL     OW69884   3.810  11.051   2.884
22682SOL    HW169885   3.896  11.083   2.910
22682SOL    HW269886   3.813  10.957   2.903
22683SOL     OW69887  14.397   8.957  13.730
22683SOL    HW169888  14.435   8.995  13.809
22683SOL    HW269889  14.473   8.933  13.676
22684SOL     OW69890   7.703  10.894   8.865
22684SOL    HW169891   7.608  10.901   8.854
22684SOL    HW269892   7.716  10.889   8.960
22685SOL     OW69893  11.351   7.664  11.759
22685SOL    HW169894  11.320   7.753  11.743
22685SOL    HW269895  11.385   7.667  11.849
22686SOL     OW69896   1.207  14.560   8.233
22686SOL    HW169897   1.262  14.539   8.308
22686SOL    HW269898   1.239  14.645   8.202
22687SOL     OW69899  13.086  12.464   2.433
22687SOL    HW169900  13.091  12.418   2.349
22687SOL    HW269901  13.019  12.531   2.420
22688SOL     OW69902   5.466  10.534  12.456
22688SOL    HW169903   5.410  10.465  12.491
22688SOL    HW269904   5.555  10.504  12.475
22689SOL     OW69905  11.454  10.823   4.150
22689SOL    HW169906  11.529  10.822   4.091
22689SOL    HW269907  11.431  10.915   4.159
22690SOL     OW69908   2.511   2.891  13.537
22690SOL    HW169909   2.479   2.801  13.532
22690SOL    HW269910   2.432   2.944  13.550
22691SOL     OW69911   7.813  12.096   5.110
22691SOL    HW169912   7.808  12.190   5.123
22691SOL    HW269913   7.787  12.058   5.194
22692SOL     OW69914  11.967  11.954  14.601
22692SOL    HW169915  11.911  11.896  14.550
22692SOL    HW269916  11.957  11.923  14.691
22693SOL     OW69917   8.562  13.297   4.172
22693SOL    HW169918   8.563  13.297   4.076
22693SOL    HW269919   8.556  13.205   4.196
22694SOL     OW69920   1.803  12.251   6.273
22694SOL    HW169921   1.886  12.291   6.250
22694SOL    HW269922   1.737  12.316   6.248
22695SOL     OW69923  13.418   2.943   3.625
22695SOL    HW169924  13.489   2.898   3.673
22695SOL    HW269925  13.460   2.974   3.545
22696SOL     OW69926  11.914   4.077  11.924
22696SOL    HW169927  11.888   4.110  11.838
22696SOL    HW269928  11.968   4.000  11.905
22697SOL     OW69929  12.289   9.031   5.677
22697SOL    HW169930  12.284   8.944   5.636
22697SOL    HW269931  12.379   9.038   5.708
22698SOL     OW69932   3.666   4.441  12.411
22698SOL    HW169933   3.640   4.439  12.503
22698SOL    HW269934   3.584   4.433  12.362
22699SOL     OW69935   6.523  12.152   2.729
22699SOL    HW169936   6.506  12.238   2.768
22699SOL    HW269937   6.540  12.170   2.637
22700SOL     OW69938   4.701   9.858   6.479
22700SOL    HW169939   4.650   9.824   6.552
22700SOL    HW269940   4.655   9.937   6.452
22701SOL     OW69941  11.031   1.184  14.290
22701SOL    HW169942  11.001   1.128  14.362
22701SOL    HW269943  11.014   1.132  14.211
22702SOL     OW69944  14.279   6.378   2.927
22702SOL    HW169945  14.323   6.293   2.928
22702SOL    HW269946  14.240   6.387   3.014
22703SOL     OW69947   6.316   8.840  13.688
22703SOL    HW169948   6.384   8.881  13.743
22703SOL    HW269949   6.361   8.767  13.646
22704SOL     OW69950   1.952  10.748   1.894
22704SOL    HW169951   1.948  10.673   1.835
22704SOL    HW269952   1.992  10.818   1.842
22705SOL     OW69953   9.972   5.980   4.375
22705SOL    HW169954   9.993   6.069   4.404
22705SOL    HW269955   9.916   5.944   4.444
22706SOL     OW69956   1.677   4.978   1.265
22706SOL    HW169957   1.742   4.991   1.196
22706SOL    HW269958   1.699   5.043   1.332
22707SOL     OW69959   4.451   4.611  14.207
22707SOL    HW169960   4.495   4.554  14.145
22707SOL    HW269961   4.474   4.700  14.179
22708SOL     OW69962  10.990   3.107   4.006
22708SOL    HW169963  11.044   3.052   3.950
22708SOL    HW269964  11.038   3.190   4.011
22709SOL     OW69965   2.500   6.187   9.544
22709SOL    HW169966   2.485   6.277   9.517
22709SOL    HW269967   2.438   6.136   9.491
22710SOL     OW69968   7.171  11.789   6.063
22710SOL    HW169969   7.236  11.727   6.096
22710SOL    HW269970   7.118  11.739   6.001
22711SOL     OW69971  12.902   2.533  14.222
22711SOL    HW169972  12.831   2.507  14.163
22711SOL    HW269973  12.937   2.450  14.254
22712SOL     OW69974  11.652  12.342  10.419
22712SOL    HW169975  11.589  12.270  10.427
22712SOL    HW269976  11.601  12.420  10.440
22713SOL     OW69977  14.034   9.099  13.990
22713SOL    HW169978  13.949   9.087  13.947
22713SOL    HW269979  14.052   9.015  14.032
22714SOL     OW69980  10.801   8.010   4.523
22714SOL    HW169981  10.726   7.950   4.516
22714SOL    HW269982  10.820   8.014   4.616
22715SOL     OW69983   2.626  14.808   6.991
22715SOL    HW169984   2.656  14.783   7.078
22715SOL    HW269985   2.698  14.860   6.955
22716SOL     OW69986  14.626   7.403   7.479
22716SOL    HW169987  14.714   7.371   7.498
22716SOL    HW269988  14.568   7.340   7.521
22717SOL     OW69989   0.559   1.102  11.470
22717SOL    HW169990   0.542   1.114  11.563
22717SOL    HW269991   0.616   1.025  11.465
22718SOL     OW69992   6.539  13.696   6.511
22718SOL    HW169993   6.634  13.687   6.503
22718SOL    HW269994   6.512  13.740   6.432
22719SOL     OW69995  13.983   5.407   3.728
22719SOL    HW169996  13.915   5.463   3.766
22719SOL    HW269997  14.059   5.419   3.785
22720SOL     OW69998  13.959   6.491   2.418
22720SOL    HW169999  13.992   6.404   2.397
22720SOL    HW270000  13.864   6.483   2.416
22721SOL     OW70001  10.587  10.067   8.074
22721SOL    HW170002  10.638  10.125   8.131
22721SOL    HW270003  10.637  10.065   7.992
22722SOL     OW70004   8.709   5.425   1.924
22722SOL    HW170005   8.702   5.347   1.869
22722SOL    HW270006   8.642   5.485   1.890
22723SOL     OW70007   1.014  14.138  13.981
22723SOL    HW170008   1.104  14.161  14.002
22723SOL    HW270009   0.992  14.068  14.043
22724SOL     OW70010   6.521  12.506  13.969
22724SOL    HW170011   6.508  12.444  13.898
22724SOL    HW270012   6.565  12.581  13.929
22725SOL     OW70013   3.497  13.824   1.034
22725SOL    HW170014   3.586  13.795   1.057
22725SOL    HW270015   3.507  13.917   1.014
22726SOL     OW70016  11.054  10.418   9.775
22726SOL    HW170017  11.014  10.347   9.825
22726SOL    HW270018  11.017  10.497   9.813
22727SOL     OW70019   9.998  11.615  12.310
22727SOL    HW170020  10.015  11.669  12.387
22727SOL    HW270021  10.065  11.547  12.314
22728SOL     OW70022  11.053   6.061  11.870
22728SOL    HW170023  11.090   6.025  11.789
22728SOL    HW270024  10.996   5.991  11.903
22729SOL     OW70025   9.246  11.259  11.895
22729SOL    HW170026   9.171  11.295  11.848
22729SOL    HW270027   9.225  11.271  11.988
22730SOL     OW70028  10.816   7.300  13.101
22730SOL    HW170029  10.804   7.212  13.135
22730SOL    HW270030  10.743   7.312  13.040
22731SOL     OW70031  11.400  13.673   1.231
22731SOL    HW170032  11.469  13.734   1.258
22731SOL    HW270033  11.440  13.621   1.162
22732SOL     OW70034   1.156   7.800   9.581
22732SOL    HW170035   1.203   7.842   9.509
22732SOL    HW270036   1.222   7.748   9.626
22733SOL     OW70037   2.184   6.805   7.474
22733SOL    HW170038   2.138   6.735   7.521
22733SOL    HW270039   2.277   6.784   7.485
22734SOL     OW70040  11.772  10.399   5.815
22734SOL    HW170041  11.677  10.409   5.816
22734SOL    HW270042  11.804  10.464   5.877
22735SOL     OW70043   8.375   8.522  11.084
22735SOL    HW170044   8.407   8.580  11.154
22735SOL    HW270045   8.309   8.467  11.127
22736SOL     OW70046   2.852   9.808   2.380
22736SOL    HW170047   2.825   9.727   2.423
22736SOL    HW270048   2.807   9.877   2.429
22737SOL     OW70049   2.013   0.689   1.361
22737SOL    HW170050   1.967   0.642   1.430
22737SOL    HW270051   1.982   0.649   1.280
22738SOL     OW70052  14.620   4.081   7.501
22738SOL    HW170053  14.694   4.026   7.477
22738SOL    HW270054  14.548   4.048   7.446
22739SOL     OW70055   5.718   7.389   5.050
22739SOL    HW170056   5.775   7.421   4.979
22739SOL    HW270057   5.737   7.296   5.055
22740SOL     OW70058   7.104   4.863   1.564
22740SOL    HW170059   7.093   4.944   1.614
22740SOL    HW270060   7.045   4.801   1.605
22741SOL     OW70061   7.800   6.712  13.590
22741SOL    HW170062   7.731   6.768  13.555
22741SOL    HW270063   7.762   6.674  13.669
22742SOL     OW70064   3.511   0.033   4.992
22742SOL    HW170065   3.438   0.091   4.972
22742SOL    HW270066   3.567   0.083   5.051
22743SOL     OW70067   6.800  14.409   0.608
22743SOL    HW170068   6.837  14.417   0.696
22743SOL    HW270069   6.735  14.480   0.603
22744SOL     OW70070   4.657  12.769  10.388
22744SOL    HW170071   4.647  12.744  10.479
22744SOL    HW270072   4.615  12.699  10.339
22745SOL     OW70073  13.607   6.099  14.554
22745SOL    HW170074  13.589   6.084  14.462
22745SOL    HW270075  13.702   6.110  14.559
22746SOL     OW70076  11.586   6.285   3.163
22746SOL    HW170077  11.546   6.328   3.087
22746SOL    HW270078  11.514   6.274   3.224
22747SOL     OW70079   3.543   5.963   4.197
22747SOL    HW170080   3.471   5.978   4.258
22747SOL    HW270081   3.570   5.872   4.214
22748SOL     OW70082   9.285  11.529   7.577
22748SOL    HW170083   9.228  11.529   7.500
22748SOL    HW270084   9.374  11.539   7.541
22749SOL     OW70085  11.716  10.231   8.444
22749SOL    HW170086  11.659  10.283   8.388
22749SOL    HW270087  11.796  10.219   8.393
22750SOL     OW70088   9.970   9.590   1.678
22750SOL    HW170089   9.879   9.573   1.703
22750SOL    HW270090   9.984   9.535   1.601
22751SOL     OW70091  13.631   6.770   4.036
22751SOL    HW170092  13.559   6.829   4.056
22751SOL    HW270093  13.709   6.826   4.039
22752SOL     OW70094   5.168   6.448   5.750
22752SOL    HW170095   5.215   6.530   5.733
22752SOL    HW270096   5.076   6.474   5.753
22753SOL     OW70097   1.918  11.334   6.921
22753SOL    HW170098   1.966  11.417   6.913
22753SOL    HW270099   1.895  11.312   6.831
22754SOL     OW70100  12.548  13.502   0.913
22754SOL    HW170101  12.508  13.429   0.959
22754SOL    HW270102  12.546  13.574   0.976
22755SOL     OW70103   1.358   8.346  13.450
22755SOL    HW170104   1.342   8.258  13.486
22755SOL    HW270105   1.276   8.392  13.465
22756SOL     OW70106   5.932   9.852  13.034
22756SOL    HW170107   5.929   9.774  12.980
22756SOL    HW270108   5.977   9.917  12.980
22757SOL     OW70109   7.660   1.609  13.622
22757SOL    HW170110   7.635   1.694  13.660
22757SOL    HW270111   7.730   1.578  13.678
22758SOL     OW70112   5.564  11.670   4.051
22758SOL    HW170113   5.612  11.592   4.024
22758SOL    HW270114   5.515  11.642   4.129
22759SOL     OW70115  10.892   4.049  13.703
22759SOL    HW170116  10.830   4.122  13.709
22759SOL    HW270117  10.839   3.974  13.678
22760SOL     OW70118   5.753  14.379   5.048
22760SOL    HW170119   5.745  14.387   5.143
22760SOL    HW270120   5.677  14.424   5.013
22761SOL     OW70121  13.125   2.825   6.553
22761SOL    HW170122  13.116   2.804   6.460
22761SOL    HW270123  13.123   2.921   6.557
22762SOL     OW70124   2.924  12.028   2.763
22762SOL    HW170125   2.943  11.981   2.682
22762SOL    HW270126   2.834  12.005   2.784
22763SOL     OW70127   2.495   6.122  12.497
22763SOL    HW170128   2.403   6.113  12.472
22763SOL    HW270129   2.513   6.045  12.551
22764SOL     OW70130   9.375   6.127   6.210
22764SOL    HW170131   9.399   6.219   6.224
22764SOL    HW270132   9.280   6.125   6.225
22765SOL     OW70133   9.752   4.861   2.265
22765SOL    HW170134   9.717   4.853   2.353
22765SOL    HW270135   9.794   4.947   2.264
22766SOL     OW70136  13.247   6.258   6.308
22766SOL    HW170137  13.156   6.268   6.283
22766SOL    HW270138  13.277   6.347   6.326
22767SOL     OW70139   9.695   2.435  10.651
22767SOL    HW170140   9.695   2.344  10.680
22767SOL    HW270141   9.609   2.447  10.610
22768SOL     OW70142   9.186  11.192   5.291
22768SOL    HW170143   9.227  11.114   5.256
22768SOL    HW270144   9.093  11.172   5.293
22769SOL     OW70145   6.266   4.539   7.161
22769SOL    HW170146   6.184   4.575   7.194
22769SOL    HW270147   6.322   4.531   7.238
22770SOL     OW70148   2.621  10.936   8.242
22770SOL    HW170149   2.624  10.845   8.272
22770SOL    HW270150   2.590  10.931   8.152
22771SOL     OW70151   3.621   2.950  14.573
22771SOL    HW170152   3.631   2.965  14.479
22771SOL    HW270153   3.577   3.028  14.606
22772SOL     OW70154   2.491  14.322   5.992
22772SOL    HW170155   2.548  14.286   6.060
22772SOL    HW270156   2.517  14.277   5.912
22773SOL     OW70157   9.450  13.007   6.720
22773SOL    HW170158   9.449  13.013   6.816
22773SOL    HW270159   9.422  12.917   6.702
22774SOL     OW70160   3.362   8.753   6.482
22774SOL    HW170161   3.348   8.792   6.568
22774SOL    HW270162   3.284   8.776   6.432
22775SOL     OW70163   1.099   2.458   3.680
22775SOL    HW170164   1.048   2.420   3.608
22775SOL    HW270165   1.166   2.510   3.636
22776SOL     OW70166   4.730   8.415   5.177
22776SOL    HW170167   4.776   8.431   5.095
22776SOL    HW270168   4.646   8.460   5.167
22777SOL     OW70169  12.464   6.149   8.957
22777SOL    HW170170  12.507   6.151   9.042
22777SOL    HW270171  12.372   6.128   8.977
22778SOL     OW70172   6.083  14.271   8.736
22778SOL    HW170173   6.007  14.231   8.694
22778SOL    HW270174   6.117  14.203   8.795
22779SOL     OW70175  10.250   1.687   6.060
22779SOL    HW170176  10.265   1.780   6.042
22779SOL    HW270177  10.180   1.662   6.000
22780SOL     OW70178  11.141   4.834   7.074
22780SOL    HW170179  11.101   4.895   7.136
22780SOL    HW270180  11.234   4.858   7.073
22781SOL     OW70181   0.918   8.300   1.283
22781SOL    HW170182   0.946   8.244   1.356
22781SOL    HW270183   0.823   8.298   1.286
22782SOL     OW70184  11.327   2.680  13.836
22782SOL    HW170185  11.348   2.605  13.780
22782SOL    HW270186  11.370   2.754  13.793
22783SOL     OW70187  10.804   5.513   1.483
22783SOL    HW170188  10.737   5.521   1.550
22783SOL    HW270189  10.868   5.580   1.504
22784SOL     OW70190   3.788   8.730   6.478
22784SOL    HW170191   3.789   8.639   6.505
22784SOL    HW270192   3.827   8.778   6.550
22785SOL     OW70193  12.840  13.096   8.527
22785SOL    HW170194  12.756  13.069   8.489
22785SOL    HW270195  12.894  13.017   8.524
22786SOL     OW70196   4.380   7.944   8.617
22786SOL    HW170197   4.425   7.889   8.681
22786SOL    HW270198   4.315   7.992   8.668
22787SOL     OW70199   2.848   3.802   1.362
22787SOL    HW170200   2.826   3.893   1.340
22787SOL    HW270201   2.852   3.757   1.278
22788SOL     OW70202  12.524  13.993  11.487
22788SOL    HW170203  12.609  13.983  11.444
22788SOL    HW270204  12.522  14.084  11.517
22789SOL     OW70205   9.704  13.772  11.028
22789SOL    HW170206   9.720  13.838  10.962
22789SOL    HW270207   9.730  13.813  11.111
22790SOL     OW70208   3.709  11.983  10.890
22790SOL    HW170209   3.639  12.009  10.949
22790SOL    HW270210   3.745  11.903  10.930
22791SOL     OW70211   1.584   6.869  14.400
22791SOL    HW170212   1.554   6.778  14.407
22791SOL    HW270213   1.524   6.918  14.457
22792SOL     OW70214   0.723  12.034   0.459
22792SOL    HW170215   0.802  11.982   0.444
22792SOL    HW270216   0.684  11.995   0.537
22793SOL     OW70217  14.580   2.500  10.987
22793SOL    HW170218  14.570   2.427  10.926
22793SOL    HW270219  14.649   2.554  10.949
22794SOL     OW70220   1.148   5.594   0.335
22794SOL    HW170221   1.184   5.597   0.423
22794SOL    HW270222   1.185   5.670   0.291
22795SOL     OW70223   7.503   4.174   0.328
22795SOL    HW170224   7.439   4.133   0.385
22795SOL    HW270225   7.471   4.156   0.239
22796SOL     OW70226  12.699   9.472   3.546
22796SOL    HW170227  12.634   9.414   3.505
22796SOL    HW270228  12.651   9.551   3.568
22797SOL     OW70229   0.219   0.050  13.958
22797SOL    HW170230   0.295   0.101  13.984
22797SOL    HW270231   0.253  14.836  13.940
22798SOL     OW70232  13.813   3.145   4.885
22798SOL    HW170233  13.752   3.118   4.953
22798SOL    HW270234  13.787   3.234   4.862
22799SOL     OW70235  10.451   9.405  10.382
22799SOL    HW170236  10.384   9.457  10.339
22799SOL    HW270237  10.441   9.317  10.344
22800SOL     OW70238   4.600   1.916   8.005
22800SOL    HW170239   4.624   1.834   7.963
22800SOL    HW270240   4.514   1.937   7.969
22801SOL     OW70241  14.672   8.574   8.558
22801SOL    HW170242  14.766   8.579   8.537
22801SOL    HW270243  14.638   8.509   8.496
22802SOL     OW70244   3.991  12.139  14.522
22802SOL    HW170245   3.958  12.225  14.548
22802SOL    HW270246   4.060  12.158  14.458
22803SOL     OW70247  12.547   3.555   9.648
22803SOL    HW170248  12.578   3.600   9.568
22803SOL    HW270249  12.620   3.564   9.709
22804SOL     OW70250   0.160  13.968   5.960
22804SOL    HW170251   0.217  14.034   5.998
22804SOL    HW270252   0.185  13.887   6.003
22805SOL     OW70253   3.697  13.220  11.671
22805SOL    HW170254   3.689  13.127  11.647
22805SOL    HW270255   3.617  13.240  11.719
22806SOL     OW70256  14.483   0.771  10.087
22806SOL    HW170257  14.456   0.850  10.135
22806SOL    HW270258  14.422   0.704  10.115
22807SOL     OW70259   3.517   0.279   8.455
22807SOL    HW170260   3.480   0.212   8.397
22807SOL    HW270261   3.484   0.362   8.421
22808SOL     OW70262   7.783   9.676   2.216
22808SOL    HW170263   7.689   9.669   2.235
22808SOL    HW270264   7.797   9.615   2.144
22809SOL     OW70265  11.166   5.981   0.149
22809SOL    HW170266  11.170   6.070   0.183
22809SOL    HW270267  11.256   5.960   0.125
22810SOL     OW70268   9.192  10.120  11.070
22810SOL    HW170269   9.239  10.080  11.142
22810SOL    HW270270   9.111  10.070  11.063
22811SOL     OW70271   3.342   0.205   4.841
22811SOL    HW170272   3.296   0.242   4.766
22811SOL    HW270273   3.423   0.256   4.847
22812SOL     OW70274  11.121   2.468   0.227
22812SOL    HW170275  11.093   2.421   0.149
22812SOL    HW270276  11.191   2.526   0.196
22813SOL     OW70277  13.127   2.423   4.691
22813SOL    HW170278  13.139   2.503   4.640
22813SOL    HW270279  13.068   2.370   4.638
22814SOL     OW70280   9.159   1.617  11.164
22814SOL    HW170281   9.111   1.582  11.239
22814SOL    HW270282   9.245   1.641  11.199
22815SOL     OW70283   1.087   4.864   5.523
22815SOL    HW170284   1.113   4.785   5.475
22815SOL    HW270285   1.018   4.903   5.469
22816SOL     OW70286  13.665   9.159   9.306
22816SOL    HW170287  13.751   9.199   9.322
22816SOL    HW270288  13.622   9.161   9.391
22817SOL     OW70289   7.588   9.604  13.997
22817SOL    HW170290   7.668   9.608  14.049
22817SOL    HW270291   7.519   9.588  14.062
22818SOL     OW70292   7.984   2.662   2.207
22818SOL    HW170293   8.009   2.662   2.115
22818SOL    HW270294   7.904   2.715   2.210
22819SOL     OW70295   7.994  11.309   5.384
22819SOL    HW170296   7.926  11.356   5.433
22819SOL    HW270297   7.968  11.217   5.389
22820SOL     OW70298   5.988  11.867   4.842
22820SOL    HW170299   6.079  11.895   4.855
22820SOL    HW270300   5.979  11.860   4.747
22821SOL     OW70301   2.118   9.219   6.397
22821SOL    HW170302   2.188   9.269   6.438
22821SOL    HW270303   2.066   9.187   6.471
22822SOL     OW70304  13.879   7.425   9.848
22822SOL    HW170305  13.888   7.435   9.943
22822SOL    HW270306  13.828   7.345   9.837
22823SOL     OW70307  11.118   2.532  12.124
22823SOL    HW170308  11.079   2.460  12.172
22823SOL    HW270309  11.172   2.490  12.057
22824SOL     OW70310   4.182  14.461  12.975
22824SOL    HW170311   4.110  14.405  12.946
22824SOL    HW270312   4.215  14.501  12.895
22825SOL     OW70313  13.594   9.814   1.982
22825SOL    HW170314  13.542   9.733   1.977
22825SOL    HW270315  13.554   9.864   2.053
22826SOL     OW70316   6.161   8.377   7.577
22826SOL    HW170317   6.118   8.361   7.661
22826SOL    HW270318   6.187   8.291   7.546
22827SOL     OW70319  14.327   1.894  10.650
22827SOL    HW170320  14.379   1.952  10.594
22827SOL    HW270321  14.383   1.878  10.726
22828SOL     OW70322   3.501   7.848  12.830
22828SOL    HW170323   3.409   7.852  12.856
22828SOL    HW270324   3.549   7.851  12.913
22829SOL     OW70325   0.696   6.142   5.717
22829SOL    HW170326   0.723   6.116   5.628
22829SOL    HW270327   0.602   6.157   5.709
22830SOL     OW70328   0.633  11.281   9.277
22830SOL    HW170329   0.581  11.303   9.200
22830SOL    HW270330   0.721  11.312   9.257
22831SOL     OW70331   7.609  14.768  11.094
22831SOL    HW170332   7.519  14.762  11.062
22831SOL    HW270333   7.610  14.846  11.149
22832SOL     OW70334   9.481  12.339   9.721
22832SOL    HW170335   9.506  12.429   9.699
22832SOL    HW270336   9.457  12.343   9.814
22833SOL     OW70337   3.979  12.496   6.648
22833SOL    HW170338   3.966  12.588   6.670
22833SOL    HW270339   4.035  12.497   6.570
22834SOL     OW70340   0.466   0.058   8.895
22834SOL    HW170341   0.444   0.033   8.805
22834SOL    HW270342   0.535  14.869   8.920
22835SOL     OW70343  11.435   0.454   9.708
22835SOL    HW170344  11.359   0.503   9.740
22835SOL    HW270345  11.400   0.369   9.683
22836SOL     OW70346   2.623   1.673  10.437
22836SOL    HW170347   2.631   1.716  10.522
22836SOL    HW270348   2.603   1.582  10.458
22837SOL     OW70349  13.467   0.311  11.589
22837SOL    HW170350  13.475   0.336  11.681
22837SOL    HW270351  13.548   0.343  11.549
22838SOL     OW70352   9.912   5.936  10.743
22838SOL    HW170353   9.955   5.866  10.693
22838SOL    HW270354   9.978   6.005  10.748
22839SOL     OW70355   4.919   7.556   9.279
22839SOL    HW170356   4.856   7.562   9.207
22839SOL    HW270357   4.998   7.599   9.245
22840SOL     OW70358   0.204   8.804   7.426
22840SOL    HW170359   0.206   8.722   7.474
22840SOL    HW270360   0.287   8.847   7.447
22841SOL     OW70361   7.474   8.984   5.034
22841SOL    HW170362   7.421   8.972   4.955
22841SOL    HW270363   7.419   8.952   5.105
22842SOL     OW70364   7.781  14.119  12.342
22842SOL    HW170365   7.734  14.162  12.270
22842SOL    HW270366   7.861  14.171  12.352
22843SOL     OW70367   6.095   4.865   1.058
22843SOL    HW170368   6.077   4.910   1.141
22843SOL    HW270369   6.107   4.936   0.995
22844SOL     OW70370  13.331   5.369  12.556
22844SOL    HW170371  13.297   5.409  12.475
22844SOL    HW270372  13.412   5.326  12.529
22845SOL     OW70373   2.453  13.348   6.421
22845SOL    HW170374   2.484  13.339   6.331
22845SOL    HW270375   2.475  13.438   6.445
22846SOL     OW70376   5.533  11.648   6.030
22846SOL    HW170377   5.553  11.555   6.022
22846SOL    HW270378   5.439  11.651   6.047
22847SOL     OW70379   5.010   4.104   1.634
22847SOL    HW170380   5.044   4.132   1.719
22847SOL    HW270381   4.930   4.056   1.655
22848SOL     OW70382   4.575  14.374  11.474
22848SOL    HW170383   4.601  14.378  11.566
22848SOL    HW270384   4.543  14.285  11.462
22849SOL     OW70385   0.853  13.159  10.386
22849SOL    HW170386   0.924  13.172  10.449
22849SOL    HW270387   0.839  13.064  10.385
22850SOL     OW70388   2.079   8.796  11.473
22850SOL    HW170389   2.131   8.721  11.500
22850SOL    HW270390   1.992   8.780  11.510
22851SOL     OW70391   6.219  12.797   0.267
22851SOL    HW170392   6.313  12.783   0.256
22851SOL    HW270393   6.190  12.723   0.321
22852SOL     OW70394   9.075   2.042  10.189
22852SOL    HW170395   9.132   1.980  10.144
22852SOL    HW270396   9.076   2.015  10.280
22853SOL     OW70397   1.057  11.355   0.031
22853SOL    HW170398   0.963  11.361   0.048
22853SOL    HW270399   1.098  11.394   0.107
22854SOL     OW70400  13.804  14.693   5.701
22854SOL    HW170401  13.798  14.786   5.680
22854SOL    HW270402  13.816  14.651   5.616
22855SOL     OW70403   1.156   6.530   2.394
22855SOL    HW170404   1.207   6.592   2.342
22855SOL    HW270405   1.119   6.583   2.465
22856SOL     OW70406   8.410  11.776   7.645
22856SOL    HW170407   8.453  11.860   7.627
22856SOL    HW270408   8.354  11.761   7.569
22857SOL     OW70409   3.829  14.727   0.358
22857SOL    HW170410   3.813  14.795   0.424
22857SOL    HW270411   3.755  14.733   0.298
22858SOL     OW70412   0.387   4.752   2.297
22858SOL    HW170413   0.438   4.724   2.372
22858SOL    HW270414   0.338   4.829   2.328
22859SOL     OW70415   4.243  14.527   7.472
22859SOL    HW170416   4.222  14.435   7.487
22859SOL    HW270417   4.337  14.534   7.488
22860SOL     OW70418   0.130  11.644   2.511
22860SOL    HW170419   0.094  11.580   2.450
22860SOL    HW270420   0.212  11.671   2.470
22861SOL     OW70421   2.267   7.043   7.561
22861SOL    HW170422   2.219   6.965   7.532
22861SOL    HW270423   2.263   7.039   7.657
22862SOL     OW70424  13.170   6.460   0.683
22862SOL    HW170425  13.132   6.534   0.636
22862SOL    HW270426  13.147   6.384   0.629
22863SOL     OW70427   7.062   9.023   6.977
22863SOL    HW170428   7.082   9.082   7.048
22863SOL    HW270429   7.032   9.079   6.906
22864SOL     OW70430   2.684   6.204   4.729
22864SOL    HW170431   2.658   6.296   4.726
22864SOL    HW270432   2.768   6.201   4.683
22865SOL     OW70433  12.164   0.813   7.552
22865SOL    HW170434  12.132   0.842   7.638
22865SOL    HW270435  12.164   0.893   7.499
22866SOL     OW70436   8.882   6.367   7.950
22866SOL    HW170437   8.827   6.290   7.964
22866SOL    HW270438   8.936   6.373   8.029
22867SOL     OW70439  11.679   7.537  13.473
22867SOL    HW170440  11.601   7.486  13.496
22867SOL    HW270441  11.721   7.487  13.403
22868SOL     OW70442   4.627   8.278   8.390
22868SOL    HW170443   4.633   8.345   8.458
22868SOL    HW270444   4.539   8.289   8.354
22869SOL     OW70445  12.988   7.706   3.487
22869SOL    HW170446  12.942   7.623   3.477
22869SOL    HW270447  12.920   7.772   3.474
22870SOL     OW70448   7.598  11.245  14.086
22870SOL    HW170449   7.610  11.304  14.160
22870SOL    HW270450   7.584  11.303  14.011
22871SOL     OW70451  14.354   9.809   1.964
22871SOL    HW170452  14.408   9.734   1.938
22871SOL    HW270453  14.400   9.848   2.038
22872SOL     OW70454   3.914   7.637   0.271
22872SOL    HW170455   3.944   7.613   0.359
22872SOL    HW270456   3.856   7.565   0.245
22873SOL     OW70457   3.976   9.451  10.130
22873SOL    HW170458   3.906   9.390  10.152
22873SOL    HW270459   3.935   9.537  10.131
22874SOL     OW70460  10.254   1.390   1.403
22874SOL    HW170461  10.272   1.328   1.474
22874SOL    HW270462  10.159   1.393   1.396
22875SOL     OW70463  10.623  11.954  13.050
22875SOL    HW170464  10.598  11.864  13.072
22875SOL    HW270465  10.709  11.966  13.093
22876SOL     OW70466   2.685  10.251  10.460
22876SOL    HW170467   2.644  10.330  10.425
22876SOL    HW270468   2.681  10.188  10.388
22877SOL     OW70469  14.393  11.526  11.235
22877SOL    HW170470  14.401  11.558  11.325
22877SOL    HW270471  14.480  11.495  11.212
22878SOL     OW70472  11.679   9.581   0.897
22878SOL    HW170473  11.755   9.631   0.866
22878SOL    HW270474  11.632   9.558   0.817
22879SOL     OW70475   9.017   7.460   1.761
22879SOL    HW170476   9.100   7.413   1.747
22879SOL    HW270477   9.014   7.475   1.856
22880SOL     OW70478   7.654   5.665   1.993
22880SOL    HW170479   7.613   5.645   2.077
22880SOL    HW270480   7.716   5.735   2.012
22881SOL     OW70481  10.225   3.878   6.459
22881SOL    HW170482  10.292   3.946   6.453
22881SOL    HW270483  10.182   3.894   6.543
22882SOL     OW70484   9.519   7.549   6.438
22882SOL    HW170485   9.558   7.600   6.367
22882SOL    HW270486   9.561   7.582   6.517
22883SOL     OW70487   9.292  10.712   1.365
22883SOL    HW170488   9.307  10.738   1.274
22883SOL    HW270489   9.355  10.642   1.380
22884SOL     OW70490   2.383   4.369   6.018
22884SOL    HW170491   2.393   4.276   5.998
22884SOL    HW270492   2.317   4.400   5.955
22885SOL     OW70493   0.734  10.354   7.483
22885SOL    HW170494   0.781  10.278   7.518
22885SOL    HW270495   0.654  10.318   7.446
22886SOL     OW70496   7.487  12.169   1.546
22886SOL    HW170497   7.445  12.084   1.558
22886SOL    HW270498   7.457  12.199   1.461
22887SOL     OW70499   8.838   9.833   5.466
22887SOL    HW170500   8.868   9.783   5.541
22887SOL    HW270501   8.747   9.856   5.487
22888SOL     OW70502  11.427   0.654   3.006
22888SOL    HW170503  11.461   0.738   3.035
22888SOL    HW270504  11.359   0.676   2.942
22889SOL     OW70505  10.606   5.159  14.787
22889SOL    HW170506  10.672   5.146  14.719
22889SOL    HW270507  10.541   5.217  14.746
22890SOL     OW70508  14.126   9.956   3.876
22890SOL    HW170509  14.215   9.924   3.865
22890SOL    HW270510  14.088   9.952   3.788
22891SOL     OW70511   1.275   2.591   3.277
22891SOL    HW170512   1.223   2.671   3.269
22891SOL    HW270513   1.249   2.538   3.202
22892SOL     OW70514  11.044   4.263   3.007
22892SOL    HW170515  11.049   4.359   3.013
22892SOL    HW270516  10.981   4.248   2.937
22893SOL     OW70517  10.515   6.841   3.040
22893SOL    HW170518  10.604   6.810   3.029
22893SOL    HW270519  10.510   6.870   3.131
22894SOL     OW70520   3.752   2.263  11.402
22894SOL    HW170521   3.723   2.340  11.354
22894SOL    HW270522   3.703   2.190  11.364
22895SOL     OW70523  14.090   5.804  12.346
22895SOL    HW170524  14.147   5.880  12.348
22895SOL    HW270525  14.106   5.760  12.430
22896SOL     OW70526  13.715  12.821   1.867
22896SOL    HW170527  13.677  12.906   1.844
22896SOL    HW270528  13.741  12.783   1.783
22897SOL     OW70529   7.359   3.288   8.494
22897SOL    HW170530   7.327   3.319   8.409
22897SOL    HW270531   7.357   3.365   8.550
22898SOL     OW70532   2.935   1.403   0.035
22898SOL    HW170533   2.848   1.443   0.044
22898SOL    HW270534   2.970   1.402   0.124
22899SOL     OW70535  14.791   9.279   9.965
22899SOL    HW170536   0.003   9.253   9.999
22899SOL    HW270537  14.728   9.241  10.026
22900SOL     OW70538   2.616   6.847   1.606
22900SOL    HW170539   2.629   6.770   1.551
22900SOL    HW270540   2.601   6.919   1.544
22901SOL     OW70541   7.239   2.169  13.604
22901SOL    HW170542   7.227   2.160  13.699
22901SOL    HW270543   7.321   2.122  13.586
22902SOL     OW70544   9.991  14.055   6.035
22902SOL    HW170545   9.962  13.984   6.092
22902SOL    HW270546  10.071  14.088   6.077
22903SOL     OW70547  13.936  12.272   8.340
22903SOL    HW170548  13.980  12.357   8.329
22903SOL    HW270549  13.860  12.276   8.282
22904SOL     OW70550  10.941  11.797  12.740
22904SOL    HW170551  10.876  11.861  12.709
22904SOL    HW270552  10.935  11.725  12.678
22905SOL     OW70553   0.462  10.872   3.433
22905SOL    HW170554   0.455  10.777   3.420
22905SOL    HW270555   0.498  10.882   3.521
22906SOL     OW70556  11.800   9.704  13.000
22906SOL    HW170557  11.757   9.781  12.964
22906SOL    HW270558  11.893   9.725  12.999
22907SOL     OW70559   1.970   1.552   7.878
22907SOL    HW170560   1.938   1.517   7.961
22907SOL    HW270561   1.895   1.546   7.819
22908SOL     OW70562  14.404  13.105   6.124
22908SOL    HW170563  14.365  13.018   6.122
22908SOL    HW270564  14.474  13.099   6.189
22909SOL     OW70565   3.847  10.834   4.149
22909SOL    HW170566   3.760  10.874   4.155
22909SOL    HW270567   3.890  10.883   4.079
22910SOL     OW70568   7.611   9.912   0.038
22910SOL    HW170569   7.586   9.948  14.826
22910SOL    HW270570   7.552   9.955   0.101
22911SOL     OW70571  11.471  12.462   2.268
22911SOL    HW170572  11.406  12.522   2.304
22911SOL    HW270573  11.547  12.518   2.248
22912SOL     OW70574   7.249   9.396  14.148
22912SOL    HW170575   7.308   9.456  14.101
22912SOL    HW270576   7.173   9.388  14.090
22913SOL     OW70577  12.726   8.634   7.659
22913SOL    HW170578  12.721   8.711   7.602
22913SOL    HW270579  12.819   8.629   7.684
22914SOL     OW70580   9.899   0.693   5.209
22914SOL    HW170581   9.976   0.643   5.185
22914SOL    HW270582   9.930   0.784   5.214
22915SOL     OW70583   2.767   8.363   3.682
22915SOL    HW170584   2.862   8.360   3.675
22915SOL    HW270585   2.739   8.272   3.677
22916SOL     OW70586   9.265  13.246   9.322
22916SOL    HW170587   9.206  13.297   9.378
22916SOL    HW270588   9.289  13.306   9.251
22917SOL     OW70589  12.375   0.593   9.006
22917SOL    HW170590  12.358   0.520   9.066
22917SOL    HW270591  12.464   0.577   8.973
22918SOL     OW70592  12.356   3.917   9.708
22918SOL    HW170593  12.327   3.872   9.788
22918SOL    HW270594  12.286   3.899   9.645
22919SOL     OW70595   4.051  13.373   5.729
22919SOL    HW170596   4.064  13.402   5.820
22919SOL    HW270597   4.076  13.280   5.730
22920SOL     OW70598   2.812  13.655   5.262
22920SOL    HW170599   2.897  13.700   5.269
22920SOL    HW270600   2.834  13.569   5.228
22921SOL     OW70601   3.929   7.736   5.586
22921SOL    HW170602   3.956   7.803   5.649
22921SOL    HW270603   3.840   7.712   5.612
22922SOL     OW70604  12.941   1.834  10.039
22922SOL    HW170605  13.010   1.840   9.973
22922SOL    HW270606  12.913   1.925  10.052
22923SOL     OW70607  14.236   3.223   5.147
22923SOL    HW170608  14.206   3.182   5.066
22923SOL    HW270609  14.162   3.277   5.175
22924SOL     OW70610   2.580   1.320   4.295
22924SOL    HW170611   2.559   1.376   4.370
22924SOL    HW270612   2.675   1.327   4.286
22925SOL     OW70613  13.792  13.104   4.415
22925SOL    HW170614  13.838  13.164   4.357
22925SOL    HW270615  13.842  13.107   4.497
22926SOL     OW70616   0.457  13.338  14.032
22926SOL    HW170617   0.453  13.419  14.083
22926SOL    HW270618   0.450  13.366  13.941
22927SOL     OW70619  12.562   5.345   7.429
22927SOL    HW170620  12.600   5.337   7.341
22927SOL    HW270621  12.485   5.400   7.417
22928SOL     OW70622   2.229   7.690   6.491
22928SOL    HW170623   2.272   7.720   6.410
22928SOL    HW270624   2.158   7.634   6.461
22929SOL     OW70625   3.856   5.878   6.718
22929SOL    HW170626   3.898   5.817   6.778
22929SOL    HW270627   3.763   5.875   6.743
22930SOL     OW70628  13.345  13.601  11.375
22930SOL    HW170629  13.317  13.518  11.335
22930SOL    HW270630  13.440  13.603  11.362
22931SOL     OW70631   3.902   3.670   9.305
22931SOL    HW170632   3.840   3.647   9.374
22931SOL    HW270633   3.949   3.588   9.287
22932SOL     OW70634   9.365  10.117  13.574
22932SOL    HW170635   9.275  10.122  13.609
22932SOL    HW270636   9.383  10.024  13.569
22933SOL     OW70637   0.352   0.414   9.061
22933SOL    HW170638   0.439   0.407   9.102
22933SOL    HW270639   0.366   0.471   8.986
22934SOL     OW70640   6.682   9.045   3.797
22934SOL    HW170641   6.743   8.979   3.763
22934SOL    HW270642   6.723   9.076   3.878
22935SOL     OW70643   4.441  10.158  14.478
22935SOL    HW170644   4.486  10.222  14.533
22935SOL    HW270645   4.511  10.104  14.441
22936SOL     OW70646   3.896   0.057   8.507
22936SOL    HW170647   3.942   0.138   8.527
22936SOL    HW270648   3.879   0.061   8.413
22937SOL     OW70649  10.370  11.278   7.792
22937SOL    HW170650  10.407  11.265   7.704
22937SOL    HW270651  10.387  11.370   7.811
22938SOL     OW70652  10.259   0.939   5.950
22938SOL    HW170653  10.198   0.953   5.878
22938SOL    HW270654  10.213   0.970   6.027
22939SOL     OW70655   5.471   8.454   9.313
22939SOL    HW170656   5.547   8.445   9.371
22939SOL    HW270657   5.466   8.548   9.296
22940SOL     OW70658   0.766   2.737  13.548
22940SOL    HW170659   0.718   2.655  13.562
22940SOL    HW270660   0.697   2.802  13.534
22941SOL     OW70661   3.330   3.505   1.429
22941SOL    HW170662   3.350   3.597   1.410
22941SOL    HW270663   3.317   3.466   1.343
22942SOL     OW70664   7.537  12.848  12.381
22942SOL    HW170665   7.493  12.933  12.395
22942SOL    HW270666   7.525  12.831  12.287
22943SOL     OW70667   4.902  10.401   6.167
22943SOL    HW170668   4.910  10.376   6.259
22943SOL    HW270669   4.912  10.496   6.167
22944SOL     OW70670   7.870   2.427  13.720
22944SOL    HW170671   7.917   2.459  13.643
22944SOL    HW270672   7.896   2.486  13.791
22945SOL     OW70673   4.669   6.811  10.449
22945SOL    HW170674   4.740   6.800  10.385
22945SOL    HW270675   4.676   6.902  10.477
22946SOL     OW70676   8.754  14.594  10.642
22946SOL    HW170677   8.706  14.599  10.724
22946SOL    HW270678   8.845  14.583  10.667
22947SOL     OW70679  11.116  13.018  14.626
22947SOL    HW170680  11.143  12.930  14.653
22947SOL    HW270681  11.024  13.007  14.601
22948SOL     OW70682  14.376  13.134  10.564
22948SOL    HW170683  14.359  13.136  10.470
22948SOL    HW270684  14.446  13.197  10.578
22949SOL     OW70685   7.212   5.733   8.502
22949SOL    HW170686   7.296   5.716   8.544
22949SOL    HW270687   7.211   5.676   8.425
22950SOL     OW70688   1.883   8.279   0.406
22950SOL    HW170689   1.830   8.206   0.374
22950SOL    HW270690   1.972   8.243   0.414
22951SOL     OW70691   5.434   2.641  10.918
22951SOL    HW170692   5.482   2.583  10.858
22951SOL    HW270693   5.501   2.698  10.954
22952SOL     OW70694   5.962   5.972  11.800
22952SOL    HW170695   5.887   5.971  11.860
22952SOL    HW270696   6.010   6.052  11.822
22953SOL     OW70697   7.408  12.896   9.238
22953SOL    HW170698   7.457  12.813   9.238
22953SOL    HW270699   7.371  12.903   9.325
22954SOL     OW70700   7.906  14.362   0.308
22954SOL    HW170701   7.868  14.389   0.224
22954SOL    HW270702   7.849  14.401   0.374
22955SOL     OW70703   8.574   3.851   9.461
22955SOL    HW170704   8.502   3.866   9.400
22955SOL    HW270705   8.556   3.908   9.535
22956SOL     OW70706   4.519   5.889   1.567
22956SOL    HW170707   4.573   5.960   1.602
22956SOL    HW270708   4.457   5.869   1.636
22957SOL     OW70709   5.437   9.467   1.618
22957SOL    HW170710   5.530   9.459   1.636
22957SOL    HW270711   5.430   9.460   1.522
22958SOL     OW70712  14.286   1.345  13.018
22958SOL    HW170713  14.247   1.421  12.977
22958SOL    HW270714  14.333   1.300  12.948
22959SOL     OW70715   0.704  13.647   7.064
22959SOL    HW170716   0.730  13.603   6.983
22959SOL    HW270717   0.704  13.740   7.043
22960SOL     OW70718  14.170   7.655   8.768
22960SOL    HW170719  14.079   7.628   8.753
22960SOL    HW270720  14.222   7.597   8.712
22961SOL     OW70721   4.340   3.227   9.851
22961SOL    HW170722   4.400   3.284   9.803
22961SOL    HW270723   4.258   3.231   9.802
22962SOL     OW70724   9.650   6.632  14.856
22962SOL    HW170725   9.587   6.665  14.792
22962SOL    HW270726   9.708   6.707  14.873
22963SOL     OW70727  10.191   6.436   8.816
22963SOL    HW170728  10.276   6.396   8.833
22963SOL    HW270729  10.204   6.529   8.835
22964SOL     OW70730   9.982   8.777   9.734
22964SOL    HW170731   9.998   8.869   9.714
22964SOL    HW270732   9.920   8.748   9.667
22965SOL     OW70733   2.547   9.903   5.918
22965SOL    HW170734   2.473   9.841   5.917
22965SOL    HW270735   2.519   9.973   5.859
22966SOL     OW70736   8.392   7.605   2.625
22966SOL    HW170737   8.432   7.650   2.700
22966SOL    HW270738   8.419   7.514   2.636
22967SOL     OW70739   7.730   1.085   2.128
22967SOL    HW170740   7.745   1.031   2.050
22967SOL    HW270741   7.787   1.160   2.116
22968SOL     OW70742   6.311  11.950   2.018
22968SOL    HW170743   6.372  12.001   1.964
22968SOL    HW270744   6.367  11.892   2.070
22969SOL     OW70745   4.614   3.633   0.612
22969SOL    HW170746   4.595   3.541   0.596
22969SOL    HW270747   4.707   3.636   0.634
22970SOL     OW70748  10.541   8.378   0.159
22970SOL    HW170749  10.491   8.315   0.211
22970SOL    HW270750  10.480   8.450   0.143
22971SOL     OW70751  12.189   4.346   9.793
22971SOL    HW170752  12.262   4.314   9.845
22971SOL    HW270753  12.168   4.431   9.830
22972SOL     OW70754  10.479   5.718   0.113
22972SOL    HW170755  10.421   5.664   0.165
22972SOL    HW270756  10.493   5.667   0.033
22973SOL     OW70757   8.754  14.463   8.035
22973SOL    HW170758   8.840  14.458   7.993
22973SOL    HW270759   8.701  14.399   7.988
22974SOL     OW70760  12.788   7.786   1.225
22974SOL    HW170761  12.731   7.796   1.301
22974SOL    HW270762  12.773   7.865   1.174
22975SOL     OW70763   2.660   7.713  12.641
22975SOL    HW170764   2.652   7.796  12.595
22975SOL    HW270765   2.612   7.725  12.723
22976SOL     OW70766   2.063  11.100   7.409
22976SOL    HW170767   2.028  11.133   7.326
22976SOL    HW270768   2.105  11.176   7.448
22977SOL     OW70769   7.807  14.771   5.401
22977SOL    HW170770   7.784  14.679   5.390
22977SOL    HW270771   7.826  14.802   5.312
22978SOL     OW70772   9.759   2.048   6.488
22978SOL    HW170773   9.840   2.049   6.539
22978SOL    HW270774   9.757   1.961   6.448
22979SOL     OW70775  12.703   7.658  11.930
22979SOL    HW170776  12.623   7.696  11.968
22979SOL    HW270777  12.773   7.682  11.990
22980SOL     OW70778  11.057   0.983  11.310
22980SOL    HW170779  11.148   1.011  11.306
22980SOL    HW270780  11.053   0.904  11.255
22981SOL     OW70781   5.027   0.825   2.510
22981SOL    HW170782   5.053   0.850   2.599
22981SOL    HW270783   5.027   0.730   2.511
22982SOL     OW70784   9.499  13.374  10.519
22982SOL    HW170785   9.438  13.335  10.582
22982SOL    HW270786   9.515  13.303  10.456
22983SOL     OW70787   7.664   5.445   9.424
22983SOL    HW170788   7.686   5.525   9.473
22983SOL    HW270789   7.696   5.374   9.480
22984SOL     OW70790   1.272  10.391   3.657
22984SOL    HW170791   1.315  10.394   3.571
22984SOL    HW270792   1.342  10.367   3.718
22985SOL     OW70793  13.982   9.939  11.949
22985SOL    HW170794  13.906   9.891  11.919
22985SOL    HW270795  14.035   9.953  11.871
22986SOL     OW70796  12.974   1.850   4.820
22986SOL    HW170797  12.882   1.875   4.824
22986SOL    HW270798  12.993   1.810   4.905
22987SOL     OW70799   3.480  10.509  12.170
22987SOL    HW170800   3.423  10.518  12.246
22987SOL    HW270801   3.463  10.587  12.117
22988SOL     OW70802   8.317   1.563   0.303
22988SOL    HW170803   8.234   1.522   0.277
22988SOL    HW270804   8.378   1.490   0.313
22989SOL     OW70805   0.416   5.238  14.162
22989SOL    HW170806   0.364   5.181  14.218
22989SOL    HW270807   0.436   5.185  14.085
22990SOL     OW70808   3.623   7.560  12.447
22990SOL    HW170809   3.681   7.625  12.408
22990SOL    HW270810   3.615   7.586  12.539
22991SOL     OW70811  11.212   0.763   3.389
22991SOL    HW170812  11.232   0.765   3.482
22991SOL    HW270813  11.201   0.671   3.369
22992SOL     OW70814  10.091  14.379  10.921
22992SOL    HW170815  10.024  14.350  10.860
22992SOL    HW270816  10.099  14.306  10.984
22993SOL     OW70817   9.497   5.063   2.734
22993SOL    HW170818   9.437   5.134   2.752
22993SOL    HW270819   9.450   5.006   2.672
22994SOL     OW70820   5.290  10.218   3.819
22994SOL    HW170821   5.237  10.153   3.773
22994SOL    HW270822   5.284  10.193   3.911
22995SOL     OW70823   4.274  14.677   9.240
22995SOL    HW170824   4.228  14.651   9.320
22995SOL    HW270825   4.212  14.658   9.170
22996SOL     OW70826   7.355   1.301   3.733
22996SOL    HW170827   7.272   1.258   3.714
22996SOL    HW270828   7.347   1.387   3.691
22997SOL     OW70829   4.977   7.648  11.742
22997SOL    HW170830   5.048   7.650  11.806
22997SOL    HW270831   4.933   7.565  11.758
22998SOL     OW70832   2.906   6.212   0.106
22998SOL    HW170833   2.949   6.264   0.174
22998SOL    HW270834   2.978   6.178   0.053
22999SOL     OW70835   1.105   5.892  10.812
22999SOL    HW170836   1.102   5.805  10.772
22999SOL    HW270837   1.116   5.952  10.739
23000SOL     OW70838   0.751   0.238   3.705
23000SOL    HW170839   0.721   0.294   3.776
23000SOL    HW270840   0.674   0.185   3.682
23001SOL     OW70841   3.215  13.689   0.497
23001SOL    HW170842   3.152  13.761   0.500
23001SOL    HW270843   3.301  13.731   0.502
23002SOL     OW70844  12.747  12.190   7.268
23002SOL    HW170845  12.739  12.148   7.353
23002SOL    HW270846  12.683  12.144   7.213
23003SOL     OW70847   8.380  11.232   1.995
23003SOL    HW170848   8.434  11.309   1.977
23003SOL    HW270849   8.323  11.224   1.919
23004SOL     OW70850   7.587  13.879  14.296
23004SOL    HW170851   7.507  13.849  14.255
23004SOL    HW270852   7.643  13.801  14.300
23005SOL     OW70853   3.279   1.410   3.515
23005SOL    HW170854   3.337   1.444   3.582
23005SOL    HW270855   3.325   1.334   3.479
23006SOL     OW70856  14.493   8.633   0.243
23006SOL    HW170857  14.539   8.554   0.213
23006SOL    HW270858  14.500   8.694   0.170
23007SOL     OW70859   8.434   4.348  11.348
23007SOL    HW170860   8.435   4.375  11.440
23007SOL    HW270861   8.363   4.399  11.309
23008SOL     OW70862   2.952   3.410   3.330
23008SOL    HW170863   2.993   3.492   3.356
23008SOL    HW270864   2.859   3.432   3.322
23009SOL     OW70865   3.409  13.761   1.668
23009SOL    HW170866   3.482  13.706   1.639
23009SOL    HW270867   3.437  13.793   1.754
23010SOL     OW70868   1.675  14.634  10.743
23010SOL    HW170869   1.751  14.578  10.757
23010SOL    HW270870   1.609  14.575  10.706
23011SOL     OW70871   3.310   9.358   7.920
23011SOL    HW170872   3.339   9.443   7.888
23011SOL    HW270873   3.381   9.327   7.976
23012SOL     OW70874  13.582  12.419  13.975
23012SOL    HW170875  13.546  12.340  14.016
23012SOL    HW270876  13.510  12.454  13.922
23013SOL     OW70877   5.142  13.545  11.570
23013SOL    HW170878   5.053  13.529  11.601
23013SOL    HW270879   5.191  13.467  11.596
23014SOL     OW70880   5.537   4.428   2.549
23014SOL    HW170881   5.606   4.453   2.487
23014SOL    HW270882   5.455   4.448   2.503
23015SOL     OW70883  10.222   2.077  14.315
23015SOL    HW170884  10.315   2.056  14.309
23015SOL    HW270885  10.215   2.135  14.391
23016SOL     OW70886   3.355   7.290   2.378
23016SOL    HW170887   3.334   7.212   2.326
23016SOL    HW270888   3.376   7.357   2.314
23017SOL     OW70889   1.139  12.419  10.790
23017SOL    HW170890   1.083  12.489  10.824
23017SOL    HW270891   1.205  12.405  10.858
23018SOL     OW70892   1.212   4.388   7.389
23018SOL    HW170893   1.213   4.294   7.371
23018SOL    HW270894   1.290   4.423   7.346
23019SOL     OW70895  12.531   5.594   1.939
23019SOL    HW170896  12.445   5.552   1.947
23019SOL    HW270897  12.514   5.674   1.890
23020SOL     OW70898   2.047   4.912   3.674
23020SOL    HW170899   2.067   5.004   3.690
23020SOL    HW270900   2.132   4.869   3.672
23021SOL     OW70901   4.120   0.061   9.755
23021SOL    HW170902   4.030   0.036   9.732
23021SOL    HW270903   4.139   0.008   9.833
23022SOL     OW70904   2.256  11.430  14.810
23022SOL    HW170905   2.193  11.490  14.850
23022SOL    HW270906   2.251  11.448  14.717
23023SOL     OW70907   9.272   5.309   6.868
23023SOL    HW170908   9.186   5.308   6.909
23023SOL    HW270909   9.254   5.317   6.774
23024SOL     OW70910   4.970   7.229   5.868
23024SOL    HW170911   4.935   7.171   5.936
23024SOL    HW270912   4.975   7.174   5.790
23025SOL     OW70913   5.149  11.778   7.235
23025SOL    HW170914   5.118  11.830   7.160
23025SOL    HW270915   5.167  11.692   7.198
23026SOL     OW70916   1.233   2.763   0.731
23026SOL    HW170917   1.252   2.748   0.824
23026SOL    HW270918   1.202   2.678   0.699
23027SOL     OW70919  14.501   1.041  14.336
23027SOL    HW170920  14.450   0.969  14.300
23027SOL    HW270921  14.435   1.104  14.367
23028SOL     OW70922  13.362   6.316  12.259
23028SOL    HW170923  13.434   6.340  12.201
23028SOL    HW270924  13.387   6.231  12.295
23029SOL     OW70925   5.569  14.089   5.729
23029SOL    HW170926   5.560  13.994   5.718
23029SOL    HW270927   5.663  14.103   5.740
23030SOL     OW70928  14.027   0.490   4.903
23030SOL    HW170929  13.996   0.402   4.925
23030SOL    HW270930  13.947   0.538   4.882
23031SOL     OW70931  12.808   3.296  13.640
23031SOL    HW170932  12.850   3.382  13.645
23031SOL    HW270933  12.755   3.291  13.720
23032SOL     OW70934   6.207  13.910   3.954
23032SOL    HW170935   6.275  13.932   3.890
23032SOL    HW270936   6.241  13.941   4.038
23033SOL     OW70937  11.203  12.256   2.895
23033SOL    HW170938  11.288  12.291   2.869
23033SOL    HW270939  11.142  12.329   2.881
23034SOL     OW70940   1.051   5.609   6.714
23034SOL    HW170941   1.032   5.518   6.688
23034SOL    HW270942   1.009   5.618   6.800
23035SOL     OW70943   1.241   1.643   7.444
23035SOL    HW170944   1.290   1.606   7.371
23035SOL    HW270945   1.157   1.598   7.443
23036SOL     OW70946   8.527   2.048   1.026
23036SOL    HW170947   8.443   2.023   0.988
23036SOL    HW270948   8.558   1.969   1.071
23037SOL     OW70949   2.993   3.216   8.093
23037SOL    HW170950   2.933   3.143   8.112
23037SOL    HW270951   3.077   3.174   8.073
23038SOL     OW70952   6.407  14.496   6.883
23038SOL    HW170953   6.399  14.401   6.888
23038SOL    HW270954   6.501  14.513   6.882
23039SOL     OW70955   3.483  13.600  14.808
23039SOL    HW170956   3.486  13.637  14.719
23039SOL    HW270957   3.395  13.562  14.814
23040SOL     OW70958   5.217   2.901   7.570
23040SOL    HW170959   5.222   2.988   7.530
23040SOL    HW270960   5.177   2.846   7.503
23041SOL     OW70961  14.082   6.854   4.049
23041SOL    HW170962  14.018   6.859   3.979
23041SOL    HW270963  14.047   6.909   4.119
23042SOL     OW70964   1.051   7.753   0.355
23042SOL    HW170965   1.120   7.796   0.305
23042SOL    HW270966   0.972   7.766   0.302
23043SOL     OW70967   8.839   7.746   0.951
23043SOL    HW170968   8.811   7.686   0.882
23043SOL    HW270969   8.924   7.713   0.979
23044SOL     OW70970   7.369   0.104   8.467
23044SOL    HW170971   7.312   0.130   8.539
23044SOL    HW270972   7.457   0.131   8.495
23045SOL     OW70973  13.378   8.670   7.830
23045SOL    HW170974  13.290   8.647   7.857
23045SOL    HW270975  13.421   8.586   7.812
23046SOL     OW70976  13.218   1.262  14.749
23046SOL    HW170977  13.127   1.274  14.722
23046SOL    HW270978  13.268   1.322  14.693
23047SOL     OW70979   9.238   8.453   2.973
23047SOL    HW170980   9.307   8.447   2.907
23047SOL    HW270981   9.239   8.544   3.001
23048SOL     OW70982  12.749   9.566  11.765
23048SOL    HW170983  12.757   9.474  11.789
23048SOL    HW270984  12.821   9.609  11.810
23049SOL     OW70985   5.824   6.016   1.374
23049SOL    HW170986   5.737   5.993   1.341
23049SOL    HW270987   5.865   5.933   1.393
23050SOL     OW70988  12.770  11.424  13.720
23050SOL    HW170989  12.687  11.421  13.673
23050SOL    HW270990  12.812  11.504  13.688
23051SOL     OW70991   5.112  10.856  13.066
23051SOL    HW170992   5.112  10.791  13.136
23051SOL    HW270993   5.093  10.806  12.986
23052SOL     OW70994   5.010   6.185   8.049
23052SOL    HW170995   4.997   6.093   8.074
23052SOL    HW270996   4.987   6.187   7.956
23053SOL     OW70997   4.308   8.187  12.485
23053SOL    HW170998   4.233   8.160  12.433
23053SOL    HW270999   4.295   8.281  12.500
23054SOL     OW71000   6.531   0.273   1.537
23054SOL    HW171001   6.595   0.233   1.479
23054SOL    HW271002   6.538   0.367   1.520
23055SOL     OW71003  11.633   3.217   8.987
23055SOL    HW171004  11.672   3.137   8.952
23055SOL    HW271005  11.550   3.188   9.024
23056SOL     OW71006  11.473   9.299   4.892
23056SOL    HW171007  11.382   9.275   4.906
23056SOL    HW271008  11.469   9.364   4.822
23057SOL     OW71009  13.513  14.062   2.419
23057SOL    HW171010  13.542  14.140   2.466
23057SOL    HW271011  13.473  14.007   2.486
23058SOL     OW71012   5.449  13.670   8.868
23058SOL    HW171013   5.458  13.760   8.838
23058SOL    HW271014   5.467  13.674   8.962
23059SOL     OW71015   1.259   9.372   6.329
23059SOL    HW171016   1.192   9.432   6.295
23059SOL    HW271017   1.273   9.309   6.259
23060SOL     OW71018   8.137   7.016   5.013
23060SOL    HW171019   8.214   6.968   5.043
23060SOL    HW271020   8.070   6.949   5.002
23061SOL     OW71021   6.234   7.003   7.852
23061SOL    HW171022   6.191   7.086   7.828
23061SOL    HW271023   6.189   6.937   7.800
23062SOL     OW71024   1.666   0.704   2.345
23062SOL    HW171025   1.619   0.717   2.263
23062SOL    HW271026   1.598   0.695   2.411
23063SOL     OW71027  13.051  10.464  12.209
23063SOL    HW171028  13.034  10.429  12.296
23063SOL    HW271029  13.094  10.548  12.225
23064SOL     OW71030   1.300   4.604  11.377
23064SOL    HW171031   1.342   4.637  11.297
23064SOL    HW271032   1.209   4.587  11.351
23065SOL     OW71033  14.334   6.992   3.881
23065SOL    HW171034  14.268   6.929   3.910
23065SOL    HW271035  14.358   6.963   3.793
23066SOL     OW71036   2.689   0.828   4.037
23066SOL    HW171037   2.633   0.840   3.960
23066SOL    HW271038   2.643   0.764   4.090
23067SOL     OW71039   2.492   6.571   5.713
23067SOL    HW171040   2.422   6.635   5.699
23067SOL    HW271041   2.511   6.576   5.807
23068SOL     OW71042  12.842  11.148   4.908
23068SOL    HW171043  12.914  11.089   4.884
23068SOL    HW271044  12.836  11.141   5.003
23069SOL     OW71045   5.728   6.302   9.861
23069SOL    HW171046   5.797   6.355   9.819
23069SOL    HW271047   5.751   6.212   9.840
23070SOL     OW71048   4.834   9.584   5.456
23070SOL    HW171049   4.887   9.637   5.515
23070SOL    HW271050   4.809   9.644   5.386
23071SOL     OW71051   4.495   6.390   0.589
23071SOL    HW171052   4.519   6.302   0.559
23071SOL    HW271053   4.419   6.414   0.536
23072SOL     OW71054   4.646  11.351   5.059
23072SOL    HW171055   4.559  11.383   5.035
23072SOL    HW271056   4.683  11.320   4.977
23073SOL     OW71057   4.405  11.955   7.600
23073SOL    HW171058   4.475  11.999   7.648
23073SOL    HW271059   4.449  11.909   7.529
23074SOL     OW71060  14.812   2.116  13.306
23074SOL    HW171061  14.761   2.128  13.387
23074SOL    HW271062   0.027   2.093  13.336
23075SOL     OW71063   9.793   5.407   2.764
23075SOL    HW171064   9.788   5.476   2.830
23075SOL    HW271065   9.815   5.453   2.683
23076SOL     OW71066   7.183   5.159   4.431
23076SOL    HW171067   7.093   5.186   4.449
23076SOL    HW271068   7.230   5.179   4.512
23077SOL     OW71069   0.211   9.611   4.689
23077SOL    HW171070   0.223   9.692   4.739
23077SOL    HW271071   0.232   9.542   4.752
23078SOL     OW71072   5.222   6.743   1.432
23078SOL    HW171073   5.211   6.657   1.473
23078SOL    HW271074   5.312   6.769   1.455
23079SOL     OW71075   9.599   2.553   2.053
23079SOL    HW171076   9.563   2.579   2.138
23079SOL    HW271077   9.524   2.550   1.995
23080SOL     OW71078   0.058  10.488   8.290
23080SOL    HW171079  14.846  10.519   8.259
23080SOL    HW271080   0.096  10.444   8.213
23081SOL     OW71081   9.913  13.540   7.633
23081SOL    HW171082   9.953  13.517   7.717
23081SOL    HW271083   9.949  13.627   7.612
23082SOL     OW71084  10.145   1.563   6.897
23082SOL    HW171085  10.076   1.577   6.831
23082SOL    HW271086  10.114   1.489   6.949
23083SOL     OW71087  11.940   5.555   5.156
23083SOL    HW171088  11.867   5.573   5.097
23083SOL    HW271089  12.000   5.628   5.143
23084SOL     OW71090   8.435   0.073  10.444
23084SOL    HW171091   8.456   0.082  10.537
23084SOL    HW271092   8.515   0.099  10.399
23085SOL     OW71093   7.187   9.940  10.542
23085SOL    HW171094   7.144  10.004  10.485
23085SOL    HW271095   7.260   9.905  10.490
23086SOL     OW71096   5.334  14.204  11.845
23086SOL    HW171097   5.397  14.132  11.836
23086SOL    HW271098   5.367  14.255  11.919
23087SOL     OW71099  13.830   5.826   5.620
23087SOL    HW171100  13.775   5.899   5.593
23087SOL    HW271101  13.842   5.838   5.715
23088SOL     OW71102   3.555   4.396   5.762
23088SOL    HW171103   3.612   4.377   5.836
23088SOL    HW271104   3.486   4.451   5.798
23089SOL     OW71105   4.710   2.840  10.653
23089SOL    HW171106   4.691   2.756  10.610
23089SOL    HW271107   4.667   2.905  10.598
23090SOL     OW71108   5.393  11.575   1.686
23090SOL    HW171109   5.375  11.643   1.752
23090SOL    HW271110   5.337  11.502   1.712
23091SOL     OW71111   1.255  12.385   7.797
23091SOL    HW171112   1.333  12.432   7.769
23091SOL    HW271113   1.279  12.292   7.791
23092SOL     OW71114   1.819  14.300   3.410
23092SOL    HW171115   1.766  14.377   3.432
23092SOL    HW271116   1.909  14.327   3.425
23093SOL     OW71117  14.681   0.119  10.735
23093SOL    HW171118  14.738   0.179  10.783
23093SOL    HW271119  14.679   0.154  10.646
23094SOL     OW71120   1.364   3.408   4.596
23094SOL    HW171121   1.336   3.457   4.673
23094SOL    HW271122   1.456   3.430   4.585
23095SOL     OW71123   0.844   4.453  11.467
23095SOL    HW171124   0.825   4.369  11.423
23095SOL    HW271125   0.853   4.430  11.559
23096SOL     OW71126   6.782   2.325   3.727
23096SOL    HW171127   6.773   2.409   3.772
23096SOL    HW271128   6.865   2.289   3.761
23097SOL     OW71129   2.665   9.623   1.520
23097SOL    HW171130   2.760   9.638   1.514
23097SOL    HW271131   2.627   9.711   1.517
23098SOL     OW71132  12.621  11.180  10.848
23098SOL    HW171133  12.616  11.084  10.851
23098SOL    HW271134  12.589  11.208  10.934
23099SOL     OW71135  13.995   5.304   2.843
23099SOL    HW171136  13.985   5.380   2.900
23099SOL    HW271137  13.906   5.277   2.821
23100SOL     OW71138   7.580   9.481   5.256
23100SOL    HW171139   7.568   9.575   5.244
23100SOL    HW271140   7.592   9.447   5.167
23101SOL     OW71141   1.016   9.617   2.417
23101SOL    HW171142   0.960   9.596   2.492
23101SOL    HW271143   1.105   9.601   2.449
23102SOL     OW71144   0.608   0.062   6.205
23102SOL    HW171145   0.610  14.860   6.263
23102SOL    HW271146   0.528   0.110   6.229
23103SOL     OW71147  10.783  13.244   3.965
23103SOL    HW171148  10.806  13.329   4.003
23103SOL    HW271149  10.735  13.266   3.885
23104SOL     OW71150  11.220   3.914  14.003
23104SOL    HW171151  11.190   4.001  14.029
23104SOL    HW271152  11.288   3.930  13.938
23105SOL     OW71153   4.968  11.297   0.515
23105SOL    HW171154   5.062  11.309   0.525
23105SOL    HW271155   4.939  11.369   0.460
23106SOL     OW71156   4.498   6.395   3.433
23106SOL    HW171157   4.460   6.479   3.458
23106SOL    HW271158   4.592   6.412   3.426
23107SOL     OW71159  13.917  10.043   7.872
23107SOL    HW171160  14.001  10.071   7.906
23107SOL    HW271161  13.862  10.032   7.950
23108SOL     OW71162   9.192   3.611  11.825
23108SOL    HW171163   9.127   3.650  11.884
23108SOL    HW271164   9.179   3.656  11.742
23109SOL     OW71165  10.374  10.874  13.468
23109SOL    HW171166  10.400  10.964  13.450
23109SOL    HW271167  10.279  10.873  13.452
23110SOL     OW71168   8.524   2.301   4.482
23110SOL    HW171169   8.595   2.239   4.494
23110SOL    HW271170   8.480   2.272   4.401
23111SOL     OW71171   9.014   5.499  12.945
23111SOL    HW171172   8.943   5.442  12.916
23111SOL    HW271173   9.010   5.496  13.040
23112SOL     OW71174   0.934  10.321   3.276
23112SOL    HW171175   0.948  10.233   3.311
23112SOL    HW271176   0.917  10.307   3.183
23113SOL     OW71177  11.163   5.587   0.493
23113SOL    HW171178  11.114   5.656   0.538
23113SOL    HW271179  11.170   5.618   0.403
23114SOL     OW71180   2.315   7.215  10.191
23114SOL    HW171181   2.256   7.141  10.180
23114SOL    HW271182   2.277   7.266  10.263
23115SOL     OW71183   0.514   6.523   1.554
23115SOL    HW171184   0.599   6.539   1.595
23115SOL    HW271185   0.533   6.520   1.460
23116SOL     OW71186  13.837   2.968   8.237
23116SOL    HW171187  13.745   2.986   8.258
23116SOL    HW271188  13.872   3.053   8.209
23117SOL     OW71189   6.651  14.740   6.718
23117SOL    HW171190   6.667  14.692   6.800
23117SOL    HW271191   6.679  14.829   6.737
23118SOL     OW71192   8.697  10.369  12.044
23118SOL    HW171193   8.688  10.383  11.950
23118SOL    HW271194   8.744  10.446  12.076
23119SOL     OW71195   9.082   6.433   9.708
23119SOL    HW171196   9.082   6.474   9.795
23119SOL    HW271197   9.001   6.382   9.706
23120SOL     OW71198   3.090   3.190  13.618
23120SOL    HW171199   3.074   3.107  13.663
23120SOL    HW271200   3.035   3.185  13.540
23121SOL     OW71201   3.294   3.943  12.832
23121SOL    HW171202   3.266   3.861  12.791
23121SOL    HW271203   3.218   4.001  12.826
23122SOL     OW71204  12.123   3.350  11.517
23122SOL    HW171205  12.140   3.444  11.509
23122SOL    HW271206  12.146   3.314  11.431
23123SOL     OW71207  11.578   6.249   8.041
23123SOL    HW171208  11.529   6.276   7.964
23123SOL    HW271209  11.582   6.327   8.096
23124SOL     OW71210   1.253   1.482   1.400
23124SOL    HW171211   1.198   1.440   1.335
23124SOL    HW271212   1.215   1.570   1.411
23125SOL     OW71213  12.197  14.677   6.882
23125SOL    HW171214  12.180  14.759   6.929
23125SOL    HW271215  12.132  14.676   6.812
23126SOL     OW71216  13.739   4.466   6.942
23126SOL    HW171217  13.813   4.471   6.882
23126SOL    HW271218  13.775   4.429   7.022
23127SOL     OW71219   8.867  10.318   6.448
23127SOL    HW171220   8.834  10.378   6.382
23127SOL    HW271221   8.938  10.271   6.404
23128SOL     OW71222  12.502  11.768  13.160
23128SOL    HW171223  12.535  11.683  13.190
23128SOL    HW271224  12.417  11.777  13.204
23129SOL     OW71225   7.162   8.527  12.340
23129SOL    HW171226   7.203   8.595  12.394
23129SOL    HW271227   7.153   8.453  12.400
23130SOL     OW71228  14.231  12.850   8.746
23130SOL    HW171229  14.288  12.915   8.788
23130SOL    HW271230  14.284  12.771   8.743
23131SOL     OW71231   9.830  14.153   9.573
23131SOL    HW171232   9.786  14.236   9.557
23131SOL    HW271233   9.803  14.128   9.662
23132SOL     OW71234   9.238   0.515  11.315
23132SOL    HW171235   9.193   0.589  11.356
23132SOL    HW271236   9.306   0.490  11.378
23133SOL     OW71237  14.235   8.881   3.233
23133SOL    HW171238  14.184   8.961   3.219
23133SOL    HW271239  14.170   8.811   3.234
23134SOL     OW71240   4.239  12.856   2.785
23134SOL    HW171241   4.324  12.880   2.822
23134SOL    HW271242   4.261  12.800   2.710
23135SOL     OW71243   4.910   5.152   0.706
23135SOL    HW171244   4.982   5.089   0.707
23135SOL    HW271245   4.885   5.162   0.798
23136SOL     OW71246  11.393   7.853   2.529
23136SOL    HW171247  11.367   7.910   2.456
23136SOL    HW271248  11.342   7.885   2.603
23137SOL     OW71249   9.759  12.620   1.397
23137SOL    HW171250   9.815  12.698   1.402
23137SOL    HW271251   9.775  12.585   1.309
23138SOL     OW71252   6.880   8.611   3.642
23138SOL    HW171253   6.830   8.536   3.676
23138SOL    HW271254   6.946   8.572   3.586
23139SOL     OW71255  11.227   7.839   3.758
23139SOL    HW171256  11.176   7.866   3.681
23139SOL    HW271257  11.301   7.791   3.722
23140SOL     OW71258   9.856   9.122   3.948
23140SOL    HW171259   9.853   9.135   4.043
23140SOL    HW271260   9.777   9.166   3.916
23141SOL     OW71261   7.463   2.758   4.989
23141SOL    HW171262   7.490   2.774   4.899
23141SOL    HW271263   7.519   2.686   5.019
23142SOL     OW71264  12.562   8.686  12.767
23142SOL    HW171265  12.565   8.622  12.696
23142SOL    HW271266  12.595   8.640  12.844
23143SOL     OW71267  13.761  11.554   7.183
23143SOL    HW171268  13.728  11.478   7.231
23143SOL    HW271269  13.690  11.577   7.123
23144SOL     OW71270   4.153   9.619  14.745
23144SOL    HW171271   4.204   9.542  14.719
23144SOL    HW271272   4.106   9.645  14.665
23145SOL     OW71273   7.668  14.346  12.552
23145SOL    HW171274   7.587  14.309  12.519
23145SOL    HW271275   7.674  14.432  12.511
23146SOL     OW71276   1.896   4.282  14.235
23146SOL    HW171277   1.840   4.359  14.246
23146SOL    HW271278   1.840   4.216  14.195
23147SOL     OW71279   7.911   1.366   3.793
23147SOL    HW171280   7.823   1.396   3.769
23147SOL    HW271281   7.908   1.355   3.888
23148SOL     OW71282   2.715   2.382   2.445
23148SOL    HW171283   2.795   2.330   2.458
23148SOL    HW271284   2.729   2.427   2.361
23149SOL     OW71285  13.885   2.635   3.207
23149SOL    HW171286  13.852   2.725   3.202
23149SOL    HW271287  13.864   2.596   3.122
23150SOL     OW71288   9.966  12.007  13.599
23150SOL    HW171289   9.943  12.063  13.673
23150SOL    HW271290   9.991  12.068  13.530
23151SOL     OW71291  10.997   0.460  13.084
23151SOL    HW171292  11.038   0.517  13.149
23151SOL    HW271293  11.038   0.374  13.097
23152SOL     OW71294   7.788   5.299   9.241
23152SOL    HW171295   7.842   5.239   9.292
23152SOL    HW271296   7.766   5.369   9.302
23153SOL     OW71297   0.179   7.645   7.226
23153SOL    HW171298   0.250   7.581   7.235
23153SOL    HW271299   0.155   7.667   7.316
23154SOL     OW71300   1.645  14.706   7.758
23154SOL    HW171301   1.710  14.763   7.799
23154SOL    HW271302   1.687  14.679   7.676
23155SOL     OW71303  13.543   3.904   1.275
23155SOL    HW171304  13.544   3.993   1.239
23155SOL    HW271305  13.519   3.915   1.367
23156SOL     OW71306   8.009   8.808  10.412
23156SOL    HW171307   7.990   8.739  10.348
23156SOL    HW271308   7.924   8.829  10.450
23157SOL     OW71309   2.209   4.766   7.792
23157SOL    HW171310   2.270   4.824   7.746
23157SOL    HW271311   2.127   4.776   7.744
23158SOL     OW71312   4.520   7.508   4.161
23158SOL    HW171313   4.488   7.597   4.175
23158SOL    HW271314   4.527   7.471   4.250
23159SOL     OW71315   4.778   9.899   7.738
23159SOL    HW171316   4.705   9.903   7.676
23159SOL    HW271317   4.803   9.991   7.751
23160SOL     OW71318   2.427  11.802   9.476
23160SOL    HW171319   2.499  11.754   9.516
23160SOL    HW271320   2.349  11.772   9.522
23161SOL     OW71321   7.733   7.703   8.521
23161SOL    HW171322   7.722   7.704   8.616
23161SOL    HW271323   7.648   7.731   8.487
23162SOL     OW71324  14.110  12.331  14.559
23162SOL    HW171325  14.112  12.251  14.506
23162SOL    HW271326  14.027  12.372  14.537
23163SOL     OW71327  11.897   7.000   4.009
23163SOL    HW171328  11.992   6.996   4.017
23163SOL    HW271329  11.875   7.090   4.030
23164SOL     OW71330  12.708   0.494   3.362
23164SOL    HW171331  12.618   0.476   3.335
23164SOL    HW271332  12.762   0.458   3.292
23165SOL     OW71333   1.256  14.345   0.857
23165SOL    HW171334   1.205  14.421   0.883
23165SOL    HW271335   1.285  14.307   0.940
23166SOL     OW71336   1.787  12.896   8.306
23166SOL    HW171337   1.791  12.983   8.344
23166SOL    HW271338   1.694  12.874   8.305
23167SOL     OW71339  10.464   7.993   2.594
23167SOL    HW171340  10.370   7.998   2.575
23167SOL    HW271341  10.471   8.013   2.687
23168SOL     OW71342   7.075   7.277   0.420
23168SOL    HW171343   7.076   7.311   0.510
23168SOL    HW271344   7.085   7.182   0.430
23169SOL     OW71345   9.047  13.971   4.528
23169SOL    HW171346   9.099  13.980   4.608
23169SOL    HW271347   8.959  13.949   4.560
23170SOL     OW71348   8.238   2.163   3.286
23170SOL    HW171349   8.159   2.209   3.313
23170SOL    HW271350   8.256   2.102   3.358
23171SOL     OW71351   4.855   4.264   3.525
23171SOL    HW171352   4.856   4.211   3.605
23171SOL    HW271353   4.769   4.306   3.526
23172SOL     OW71354   5.831   3.061   1.012
23172SOL    HW171355   5.763   3.050   1.079
23172SOL    HW271356   5.782   3.085   0.933
23173SOL     OW71357   0.700   5.368  14.305
23173SOL    HW171358   0.608   5.393  14.296
23173SOL    HW271359   0.719   5.381  14.398
23174SOL     OW71360   0.353   3.970  10.455
23174SOL    HW171361   0.258   3.961  10.443
23174SOL    HW271362   0.388   3.968  10.366
23175SOL     OW71363   3.084   3.853  11.214
23175SOL    HW171364   3.004   3.891  11.177
23175SOL    HW271365   3.125   3.924  11.262
23176SOL     OW71366   1.832  14.248   1.621
23176SOL    HW171367   1.777  14.283   1.551
23176SOL    HW271368   1.777  14.252   1.699
23177SOL     OW71369   0.636   8.129  13.419
23177SOL    HW171370   0.698   8.201  13.422
23177SOL    HW271371   0.551   8.171  13.404
23178SOL     OW71372   1.405   0.293   4.295
23178SOL    HW171373   1.337   0.325   4.354
23178SOL    HW271374   1.413   0.360   4.228
23179SOL     OW71375  14.004  11.124   9.658
23179SOL    HW171376  14.012  11.142   9.565
23179SOL    HW271377  14.042  11.037   9.669
23180SOL     OW71378   9.281   2.866   6.577
23180SOL    HW171379   9.283   2.797   6.511
23180SOL    HW271380   9.349   2.841   6.639
23181SOL     OW71381   8.701   6.195  14.649
23181SOL    HW171382   8.761   6.122  14.640
23181SOL    HW271383   8.619   6.164  14.610
23182SOL     OW71384   2.122   0.869  11.523
23182SOL    HW171385   2.124   0.916  11.607
23182SOL    HW271386   2.035   0.887  11.488
23183SOL     OW71387   6.803  14.606  12.652
23183SOL    HW171388   6.869  14.565  12.597
23183SOL    HW271389   6.825  14.700  12.649
23184SOL     OW71390  11.507  10.793   6.953
23184SOL    HW171391  11.533  10.859   7.018
23184SOL    HW271392  11.533  10.710   6.992
23185SOL     OW71393  12.844   3.198   9.932
23185SOL    HW171394  12.867   3.111   9.964
23185SOL    HW271395  12.928   3.241   9.918
23186SOL     OW71396  13.469   1.941   8.690
23186SOL    HW171397  13.534   2.002   8.725
23186SOL    HW271398  13.444   1.887   8.765
23187SOL     OW71399   9.306   1.005   0.942
23187SOL    HW171400   9.248   1.045   1.008
23187SOL    HW271401   9.309   1.070   0.871
23188SOL     OW71402   4.969   1.543   2.100
23188SOL    HW171403   4.912   1.580   2.033
23188SOL    HW271404   4.978   1.613   2.165
23189SOL     OW71405   8.137   6.233   1.640
23189SOL    HW171406   8.196   6.210   1.567
23189SOL    HW271407   8.079   6.157   1.648
23190SOL     OW71408   5.626   3.251   5.308
23190SOL    HW171409   5.666   3.212   5.386
23190SOL    HW271410   5.627   3.345   5.325
23191SOL     OW71411  10.301   5.512   4.866
23191SOL    HW171412  10.266   5.429   4.897
23191SOL    HW271413  10.365   5.488   4.799
23192SOL     OW71414   7.376  10.372  11.295
23192SOL    HW171415   7.303  10.431  11.278
23192SOL    HW271416   7.373  10.357  11.389
23193SOL     OW71417   7.811  11.296   2.340
23193SOL    HW171418   7.838  11.378   2.298
23193SOL    HW271419   7.822  11.313   2.434
23194SOL     OW71420   3.317   1.866   8.837
23194SOL    HW171421   3.283   1.866   8.926
23194SOL    HW271422   3.240   1.871   8.781
23195SOL     OW71423  12.214   4.024   8.614
23195SOL    HW171424  12.211   3.931   8.595
23195SOL    HW271425  12.124   4.046   8.640
23196SOL     OW71426   8.975  11.849   5.843
23196SOL    HW171427   9.041  11.797   5.888
23196SOL    HW271428   8.959  11.802   5.761
23197SOL     OW71429  10.059  13.548  12.541
23197SOL    HW171430  10.144  13.552  12.498
23197SOL    HW271431  10.079  13.521  12.631
23198SOL     OW71432   7.340   8.898   0.523
23198SOL    HW171433   7.269   8.857   0.573
23198SOL    HW271434   7.368   8.831   0.461
23199SOL     OW71435   4.369  14.112   3.480
23199SOL    HW171436   4.364  14.062   3.398
23199SOL    HW271437   4.433  14.065   3.533
23200SOL     OW71438  13.555   7.004   0.740
23200SOL    HW171439  13.641   7.028   0.704
23200SOL    HW271440  13.540   7.068   0.810
23201SOL     OW71441  13.412   3.995   1.790
23201SOL    HW171442  13.483   3.990   1.854
23201SOL    HW271443  13.333   4.004   1.843
23202SOL     OW71444   3.603  14.774   8.231
23202SOL    HW171445   3.596  14.718   8.154
23202SOL    HW271446   3.512  14.793   8.255
23203SOL     OW71447   9.390  11.096   2.693
23203SOL    HW171448   9.442  11.148   2.754
23203SOL    HW271449   9.351  11.027   2.746
23204SOL     OW71450   1.593   0.499   1.521
23204SOL    HW171451   1.603   0.574   1.462
23204SOL    HW271452   1.506   0.464   1.501
23205SOL     OW71453   4.883  14.010   7.191
23205SOL    HW171454   4.884  13.915   7.181
23205SOL    HW271455   4.939  14.042   7.121
23206SOL     OW71456   0.861  10.198   7.983
23206SOL    HW171457   0.768  10.209   7.961
23206SOL    HW271458   0.903  10.277   7.950
23207SOL     OW71459   9.830   6.425  10.141
23207SOL    HW171460   9.799   6.477  10.215
23207SOL    HW271461   9.891   6.362  10.180
23208SOL     OW71462   3.029  13.592   0.326
23208SOL    HW171463   3.098  13.638   0.375
23208SOL    HW271464   2.967  13.563   0.393
23209SOL     OW71465   0.676   4.635   4.625
23209SOL    HW171466   0.724   4.677   4.697
23209SOL    HW271467   0.608   4.584   4.668
23210SOL     OW71468   7.989  12.972   8.584
23210SOL    HW171469   8.012  12.913   8.512
23210SOL    HW271470   7.895  12.988   8.573
23211SOL     OW71471   7.844  13.670  10.947
23211SOL    HW171472   7.842  13.734  11.018
23211SOL    HW271473   7.863  13.722  10.868
23212SOL     OW71474   1.097   4.691   5.083
23212SOL    HW171475   1.150   4.612   5.084
23212SOL    HW271476   1.007   4.661   5.081
23213SOL     OW71477  12.338  12.230  13.060
23213SOL    HW171478  12.283  12.161  13.024
23213SOL    HW271479  12.427  12.194  13.056
23214SOL     OW71480   7.853   7.112   5.470
23214SOL    HW171481   7.805   7.088   5.549
23214SOL    HW271482   7.916   7.178   5.499
23215SOL     OW71483   4.491  14.112   9.509
23215SOL    HW171484   4.403  14.103   9.546
23215SOL    HW271485   4.541  14.155   9.579
23216SOL     OW71486   6.329   2.674   5.110
23216SOL    HW171487   6.397   2.719   5.060
23216SOL    HW271488   6.303   2.737   5.178
23217SOL     OW71489   4.972   4.528   0.924
23217SOL    HW171490   4.941   4.487   0.844
23217SOL    HW271491   5.040   4.469   0.957
23218SOL     OW71492   8.295   5.476   7.261
23218SOL    HW171493   8.200   5.477   7.253
23218SOL    HW271494   8.322   5.566   7.244
23219SOL     OW71495   1.112   8.100  14.358
23219SOL    HW171496   1.040   8.048  14.393
23219SOL    HW271497   1.164   8.124  14.434
23220SOL     OW71498   3.934   0.944  12.636
23220SOL    HW171499   3.980   0.938  12.552
23220SOL    HW271500   3.969   0.871  12.688
23221SOL     OW71501  13.808   2.676   5.574
23221SOL    HW171502  13.733   2.649   5.520
23221SOL    HW271503  13.849   2.746   5.524
23222SOL     OW71504   1.245   7.641   6.432
23222SOL    HW171505   1.249   7.717   6.375
23222SOL    HW271506   1.327   7.644   6.482
23223SOL     OW71507  11.315   3.198  14.476
23223SOL    HW171508  11.308   3.291  14.494
23223SOL    HW271509  11.266   3.185  14.395
23224SOL     OW71510   3.067  13.533  13.991
23224SOL    HW171511   3.046  13.457  13.936
23224SOL    HW271512   3.001  13.530  14.061
23225SOL     OW71513   2.253   7.478  14.197
23225SOL    HW171514   2.286   7.394  14.231
23225SOL    HW271515   2.188   7.453  14.132
23226SOL     OW71516  14.421   7.850   5.778
23226SOL    HW171517  14.404   7.890   5.864
23226SOL    HW271518  14.429   7.924   5.718
23227SOL     OW71519   6.835  12.219   8.469
23227SOL    HW171520   6.800  12.135   8.498
23227SOL    HW271521   6.836  12.214   8.374
23228SOL     OW71522   6.448   5.144  10.716
23228SOL    HW171523   6.429   5.235  10.739
23228SOL    HW271524   6.447   5.098  10.800
23229SOL     OW71525   3.066  12.233   8.836
23229SOL    HW171526   2.996  12.269   8.782
23229SOL    HW271527   3.136  12.212   8.774
23230SOL     OW71528  13.114   8.489   9.475
23230SOL    HW171529  13.075   8.410   9.512
23230SOL    HW271530  13.208   8.480   9.493
23231SOL     OW71531   5.325   6.986  13.318
23231SOL    HW171532   5.369   7.065  13.286
23231SOL    HW271533   5.275   6.955  13.242
23232SOL     OW71534   1.896  11.321  11.737
23232SOL    HW171535   1.891  11.407  11.696
23232SOL    HW271536   1.848  11.330  11.819
23233SOL     OW71537   9.134  14.227   0.629
23233SOL    HW171538   9.055  14.232   0.682
23233SOL    HW271539   9.184  14.305   0.652
23234SOL     OW71540   1.793   3.693   9.323
23234SOL    HW171541   1.749   3.776   9.308
23234SOL    HW271542   1.730   3.626   9.294
23235SOL     OW71543   3.958   1.301   0.363
23235SOL    HW171544   4.011   1.222   0.365
23235SOL    HW271545   3.912   1.302   0.447
23236SOL     OW71546   7.203   8.980  10.813
23236SOL    HW171547   7.123   8.931  10.833
23236SOL    HW271548   7.247   8.928  10.746
23237SOL     OW71549   1.279   5.233   3.099
23237SOL    HW171550   1.322   5.150   3.119
23237SOL    HW271551   1.287   5.241   3.004
23238SOL     OW71552  11.264   7.268  13.245
23238SOL    HW171553  11.310   7.221  13.177
23238SOL    HW271554  11.327   7.333  13.277
23239SOL     OW71555   6.044   1.144  12.155
23239SOL    HW171556   6.104   1.199  12.104
23239SOL    HW271557   6.075   1.154  12.245
23240SOL     OW71558   6.613   0.055  13.158
23240SOL    HW171559   6.527   0.021  13.135
23240SOL    HW271560   6.605   0.150  13.146
23241SOL     OW71561   2.339   7.525  13.386
23241SOL    HW171562   2.336   7.449  13.327
23241SOL    HW271563   2.433   7.542  13.399
23242SOL     OW71564  11.871   8.676   0.082
23242SOL    HW171565  11.889   8.609   0.148
23242SOL    HW271566  11.834   8.749   0.132
23243SOL     OW71567   9.867   3.236  10.339
23243SOL    HW171568   9.774   3.215  10.333
23243SOL    HW271569   9.869   3.330  10.358
23244SOL     OW71570  11.161  11.662  12.808
23244SOL    HW171571  11.138  11.587  12.863
23244SOL    HW271572  11.083  11.716  12.807
23245SOL     OW71573   8.632  12.417   9.440
23245SOL    HW171574   8.601  12.367   9.364
23245SOL    HW271575   8.726  12.403   9.442
23246SOL     OW71576  13.377   8.521   9.512
23246SOL    HW171577  13.434   8.528   9.436
23246SOL    HW271578  13.408   8.588   9.572
23247SOL     OW71579   8.277  10.248  10.167
23247SOL    HW171580   8.361  10.237  10.123
23247SOL    HW271581   8.212  10.245  10.097
23248SOL     OW71582   2.295   8.096  11.732
23248SOL    HW171583   2.341   8.072  11.812
23248SOL    HW271584   2.212   8.049  11.738
23249SOL     OW71585   2.003   3.995   6.001
23249SOL    HW171586   2.032   4.060   6.066
23249SOL    HW271587   2.053   3.916   6.022
23250SOL     OW71588   4.656   7.961   2.590
23250SOL    HW171589   4.619   7.873   2.592
23250SOL    HW271590   4.613   8.004   2.517
23251SOL     OW71591  10.364  10.974   7.043
23251SOL    HW171592  10.374  10.928   6.960
23251SOL    HW271593  10.414  11.055   7.033
23252SOL     OW71594   1.124   5.600   3.619
23252SOL    HW171595   1.183   5.623   3.548
23252SOL    HW271596   1.176   5.609   3.699
23253SOL     OW71597   1.671  13.129  13.845
23253SOL    HW171598   1.607  13.189  13.806
23253SOL    HW271599   1.618  13.069  13.898
23254SOL     OW71600  14.334   3.636  10.537
23254SOL    HW171601  14.257   3.592  10.573
23254SOL    HW271602  14.318   3.729  10.549
23255SOL     OW71603   7.792   2.487   0.737
23255SOL    HW171604   7.774   2.567   0.688
23255SOL    HW271605   7.787   2.417   0.672
23256SOL     OW71606   0.842  13.055   8.732
23256SOL    HW171607   0.879  13.141   8.750
23256SOL    HW271608   0.813  13.060   8.641
23257SOL     OW71609  11.272   2.191  10.222
23257SOL    HW171610  11.323   2.207  10.301
23257SOL    HW271611  11.245   2.099  10.228
23258SOL     OW71612   7.236  10.014   4.629
23258SOL    HW171613   7.280  10.009   4.713
23258SOL    HW271614   7.215   9.923   4.607
23259SOL     OW71615   0.659  11.175   6.369
23259SOL    HW171616   0.746  11.195   6.335
23259SOL    HW271617   0.673  11.165   6.464
23260SOL     OW71618   2.917   4.317  12.391
23260SOL    HW171619   2.960   4.368  12.323
23260SOL    HW271620   2.977   4.245  12.410
23261SOL     OW71621   4.707   0.013   2.484
23261SOL    HW171622   4.633  14.825   2.476
23261SOL    HW271623   4.764  14.864   2.410
23262SOL     OW71624  10.977   3.687   4.804
23262SOL    HW171625  11.037   3.692   4.879
23262SOL    HW271626  10.918   3.615   4.826
23263SOL     OW71627   9.697   9.030   3.155
23263SOL    HW171628   9.715   9.007   3.246
23263SOL    HW271629   9.640   9.107   3.160
23264SOL     OW71630  13.272  11.539  11.126
23264SOL    HW171631  13.247  11.623  11.164
23264SOL    HW271632  13.193  11.508  11.082
23265SOL     OW71633   8.691  10.593  11.788
23265SOL    HW171634   8.763  10.533  11.808
23265SOL    HW271635   8.710  10.625  11.700
23266SOL     OW71636   7.815   6.745   2.918
23266SOL    HW171637   7.834   6.734   3.011
23266SOL    HW271638   7.877   6.811   2.888
23267SOL     OW71639   2.225   5.207  14.614
23267SOL    HW171640   2.209   5.279  14.553
23267SOL    HW271641   2.319   5.210  14.631
23268SOL     OW71642  14.653   6.753   4.323
23268SOL    HW171643  14.735   6.738   4.276
23268SOL    HW271644  14.656   6.846   4.347
23269SOL     OW71645  13.576  10.910   8.929
23269SOL    HW171646  13.588  11.000   8.901
23269SOL    HW271647  13.643  10.860   8.882
23270SOL     OW71648   0.722   0.533  13.792
23270SOL    HW171649   0.817   0.532  13.781
23270SOL    HW271650   0.689   0.566  13.709
23271SOL     OW71651  11.773   6.513   3.315
23271SOL    HW171652  11.736   6.426   3.329
23271SOL    HW271653  11.749   6.536   3.226
23272SOL     OW71654   0.534   1.678   5.587
23272SOL    HW171655   0.507   1.760   5.546
23272SOL    HW271656   0.460   1.619   5.572
23273SOL     OW71657   3.376  11.337   5.825
23273SOL    HW171658   3.350  11.370   5.911
23273SOL    HW271659   3.422  11.255   5.844
23274SOL     OW71660   2.884   1.635   7.396
23274SOL    HW171661   2.896   1.546   7.362
23274SOL    HW271662   2.877   1.624   7.491
23275SOL     OW71663   9.971   2.379   5.038
23275SOL    HW171664   9.888   2.419   5.011
23275SOL    HW271665  10.033   2.404   4.970
23276SOL     OW71666   7.486  14.464  12.819
23276SOL    HW171667   7.567  14.456  12.768
23276SOL    HW271668   7.416  14.452  12.754
23277SOL     OW71669   9.394  13.905   2.928
23277SOL    HW171670   9.313  13.951   2.948
23277SOL    HW271671   9.374  13.813   2.948
23278SOL     OW71672  12.017   3.336   9.466
23278SOL    HW171673  12.052   3.414   9.509
23278SOL    HW271674  12.073   3.265   9.498
23279SOL     OW71675   9.289   1.305  13.799
23279SOL    HW171676   9.218   1.275  13.856
23279SOL    HW271677   9.304   1.232  13.739
23280SOL     OW71678   5.577   1.749   2.776
23280SOL    HW171679   5.593   1.737   2.870
23280SOL    HW271680   5.536   1.667   2.748
23281SOL     OW71681   0.192   6.848  14.165
23281SOL    HW171682   0.126   6.918  14.162
23281SOL    HW271683   0.273   6.893  14.189
23282SOL     OW71684  12.875   6.791   5.352
23282SOL    HW171685  12.800   6.848   5.373
23282SOL    HW271686  12.863   6.771   5.260
23283SOL     OW71687   2.640   8.917  10.555
23283SOL    HW171688   2.694   8.943  10.630
23283SOL    HW271689   2.701   8.878  10.493
23284SOL     OW71690   9.594   9.794  10.745
23284SOL    HW171691   9.616   9.709  10.705
23284SOL    HW271692   9.654   9.803  10.818
23285SOL     OW71693   6.340  13.416  10.477
23285SOL    HW171694   6.417  13.366  10.447
23285SOL    HW271695   6.337  13.400  10.571
23286SOL     OW71696   7.289   8.867   8.765
23286SOL    HW171697   7.308   8.783   8.808
23286SOL    HW271698   7.343   8.865   8.686
23287SOL     OW71699  14.561   3.655   3.314
23287SOL    HW171700  14.608   3.598   3.375
23287SOL    HW271701  14.585   3.622   3.227
23288SOL     OW71702  10.015   4.860   5.362
23288SOL    HW171703   9.926   4.895   5.361
23288SOL    HW271704  10.042   4.860   5.270
23289SOL     OW71705   1.652  11.959   6.627
23289SOL    HW171706   1.566  11.971   6.586
23289SOL    HW271707   1.696  12.043   6.614
23290SOL     OW71708   4.268   4.008   4.033
23290SOL    HW171709   4.212   4.044   3.963
23290SOL    HW271710   4.297   3.923   4.000
23291SOL     OW71711  14.128  14.399   9.874
23291SOL    HW171712  14.214  14.439   9.868
23291SOL    HW271713  14.141  14.309   9.845
23292SOL     OW71714  11.647  12.467  11.612
23292SOL    HW171715  11.710  12.499  11.676
23292SOL    HW271716  11.643  12.372  11.627
23293SOL     OW71717   6.368   9.401   6.107
23293SOL    HW171718   6.382   9.443   6.022
23293SOL    HW271719   6.456   9.376   6.135
23294SOL     OW71720  13.524   5.481   0.360
23294SOL    HW171721  13.589   5.427   0.314
23294SOL    HW271722  13.460   5.505   0.292
23295SOL     OW71723   5.902   2.625  11.969
23295SOL    HW171724   5.998   2.624  11.977
23295SOL    HW271725   5.882   2.547  11.917
23296SOL     OW71726  10.655   7.622   6.675
23296SOL    HW171727  10.621   7.697   6.626
23296SOL    HW271728  10.690   7.660   6.756
23297SOL     OW71729   6.627  12.621   2.888
23297SOL    HW171730   6.665  12.629   2.976
23297SOL    HW271731   6.604  12.711   2.864
23298SOL     OW71732   4.380  14.053  12.377
23298SOL    HW171733   4.344  14.093  12.297
23298SOL    HW271734   4.348  14.109  12.448
23299SOL     OW71735   3.200   5.715  10.838
23299SOL    HW171736   3.193   5.798  10.791
23299SOL    HW271737   3.119   5.669  10.819
23300SOL     OW71738  13.221   6.279   2.933
23300SOL    HW171739  13.264   6.345   2.878
23300SOL    HW271740  13.267   6.284   3.016
23301SOL     OW71741   8.243   0.403  10.212
23301SOL    HW171742   8.325   0.376  10.169
23301SOL    HW271743   8.218   0.328  10.265
23302SOL     OW71744   7.310   4.529   6.158
23302SOL    HW171745   7.375   4.474   6.202
23302SOL    HW271746   7.329   4.618   6.189
23303SOL     OW71747   2.114  12.522   1.749
23303SOL    HW171748   2.134  12.568   1.668
23303SOL    HW271749   2.190  12.538   1.805
23304SOL     OW71750  11.103   9.724   3.070
23304SOL    HW171751  11.149   9.758   3.147
23304SOL    HW271752  11.113   9.792   3.004
23305SOL     OW71753   5.263   4.232  11.246
23305SOL    HW171754   5.287   4.203  11.158
23305SOL    HW271755   5.347   4.257  11.286
23306SOL     OW71756   4.966   2.553   7.861
23306SOL    HW171757   5.026   2.489   7.899
23306SOL    HW271758   4.913   2.502   7.799
23307SOL     OW71759   5.728   0.960  11.336
23307SOL    HW171760   5.646   0.910  11.334
23307SOL    HW271761   5.768   0.936  11.420
23308SOL     OW71762   5.815   3.880   0.923
23308SOL    HW171763   5.844   3.810   0.982
23308SOL    HW271764   5.798   3.835   0.840
23309SOL     OW71765   6.209  14.756   1.916
23309SOL    HW171766   6.201  14.844   1.952
23309SOL    HW271767   6.274  14.713   1.972
23310SOL     OW71768   0.527   5.684  11.331
23310SOL    HW171769   0.587   5.614  11.302
23310SOL    HW271770   0.509   5.734  11.251
23311SOL     OW71771  11.207   7.471   3.896
23311SOL    HW171772  11.118   7.472   3.861
23311SOL    HW271773  11.245   7.390   3.860
23312SOL     OW71774   0.142  13.452   8.745
23312SOL    HW171775   0.086  13.463   8.669
23312SOL    HW271776   0.164  13.541   8.772
23313SOL     OW71777   9.922  11.093  10.605
23313SOL    HW171778   9.907  11.123  10.695
23313SOL    HW271779   9.923  11.174  10.553
23314SOL     OW71780   0.508   0.285  11.323
23314SOL    HW171781   0.567   0.311  11.393
23314SOL    HW271782   0.421   0.285  11.363
23315SOL     OW71783  12.909  12.168  12.828
23315SOL    HW171784  12.897  12.091  12.773
23315SOL    HW271785  13.004  12.174  12.841
23316SOL     OW71786  14.133  13.038  14.631
23316SOL    HW171787  14.102  13.111  14.686
23316SOL    HW271788  14.144  12.965  14.692
23317SOL     OW71789  11.480  13.500  11.242
23317SOL    HW171790  11.556  13.532  11.192
23317SOL    HW271791  11.404  13.537  11.197
23318SOL     OW71792  11.350   0.242   7.412
23318SOL    HW171793  11.304   0.181   7.470
23318SOL    HW271794  11.327   0.213   7.323
23319SOL     OW71795  12.356   1.490   0.686
23319SOL    HW171796  12.338   1.578   0.718
23319SOL    HW271797  12.273   1.444   0.695
23320SOL     OW71798   2.053  10.766  10.505
23320SOL    HW171799   2.015  10.850  10.480
23320SOL    HW271800   1.990  10.701  10.472
23321SOL     OW71801   8.111   2.587   6.785
23321SOL    HW171802   8.187   2.541   6.750
23321SOL    HW271803   8.036   2.540   6.749
23322SOL     OW71804   3.538   7.037  12.180
23322SOL    HW171805   3.448   7.025  12.150
23322SOL    HW271806   3.529   7.067  12.270
23323SOL     OW71807   2.102   4.117   4.608
23323SOL    HW171808   2.074   4.208   4.593
23323SOL    HW271809   2.046   4.087   4.680
23324SOL     OW71810   2.964  10.115   3.362
23324SOL    HW171811   2.966  10.096   3.268
23324SOL    HW271812   3.056  10.132   3.385
23325SOL     OW71813   4.738   8.520   8.501
23325SOL    HW171814   4.745   8.455   8.571
23325SOL    HW271815   4.754   8.604   8.544
23326SOL     OW71816   9.902   4.825  14.449
23326SOL    HW171817   9.879   4.743  14.492
23326SOL    HW271818   9.890   4.808  14.355
23327SOL     OW71819  11.059  12.016  13.720
23327SOL    HW171820  11.113  12.095  13.721
23327SOL    HW271821  10.991  12.032  13.785
23328SOL     OW71822   1.884   9.722   4.396
23328SOL    HW171823   1.910   9.678   4.315
23328SOL    HW271824   1.967   9.747   4.437
23329SOL     OW71825   6.479   8.458   6.528
23329SOL    HW171826   6.567   8.496   6.524
23329SOL    HW271827   6.426   8.525   6.571
23330SOL     OW71828  12.388   0.873   1.585
23330SOL    HW171829  12.406   0.914   1.501
23330SOL    HW271830  12.298   0.842   1.579
23331SOL     OW71831   1.423   9.664  10.769
23331SOL    HW171832   1.484   9.735  10.750
23331SOL    HW271833   1.468   9.612  10.836
23332SOL     OW71834  12.097   0.753   5.756
23332SOL    HW171835  12.135   0.795   5.833
23332SOL    HW271836  12.170   0.742   5.695
23333SOL     OW71837   8.718   2.864   2.187
23333SOL    HW171838   8.692   2.821   2.269
23333SOL    HW271839   8.813   2.871   2.193
23334SOL     OW71840   6.798   6.273  10.232
23334SOL    HW171841   6.733   6.233  10.174
23334SOL    HW271842   6.829   6.201  10.287
23335SOL     OW71843  14.633   0.504   2.966
23335SOL    HW171844  14.542   0.520   2.989
23335SOL    HW271845  14.672   0.468   3.045
23336SOL     OW71846  11.629   1.627  14.778
23336SOL    HW171847  11.586   1.690  14.836
23336SOL    HW271848  11.608   1.542  14.816
23337SOL     OW71849   1.958   9.374   2.928
23337SOL    HW171850   2.006   9.447   2.889
23337SOL    HW271851   1.877   9.413   2.961
23338SOL     OW71852   1.810   7.515   6.191
23338SOL    HW171853   1.882   7.484   6.136
23338SOL    HW271854   1.741   7.539   6.129
23339SOL     OW71855  11.129   2.480  10.416
23339SOL    HW171856  11.075   2.416  10.372
23339SOL    HW271857  11.069   2.550  10.441
23340SOL     OW71858   7.935   3.204   2.688
23340SOL    HW171859   7.918   3.128   2.631
23340SOL    HW271860   7.939   3.166   2.776
23341SOL     OW71861   5.879   2.751   4.215
23341SOL    HW171862   5.788   2.728   4.237
23341SOL    HW271863   5.889   2.722   4.125
23342SOL     OW71864  11.427   6.996   9.179
23342SOL    HW171865  11.508   7.004   9.230
23342SOL    HW271866  11.454   7.014   9.089
23343SOL     OW71867  14.762   9.418   9.728
23343SOL    HW171868  14.767   9.346   9.666
23343SOL    HW271869  14.762   9.376   9.814
23344SOL     OW71870   4.735   5.280   3.309
23344SOL    HW171871   4.753   5.373   3.298
23344SOL    HW271872   4.784   5.255   3.388
23345SOL     OW71873   8.185  11.006   5.566
23345SOL    HW171874   8.205  11.076   5.629
23345SOL    HW271875   8.256  11.012   5.501
23346SOL     OW71876   6.934   0.349   3.787
23346SOL    HW171877   7.018   0.394   3.780
23346SOL    HW271878   6.879   0.409   3.837
23347SOL     OW71879  12.417   6.097   1.228
23347SOL    HW171880  12.450   6.030   1.168
23347SOL    HW271881  12.363   6.154   1.173
23348SOL     OW71882   4.777   2.103   0.361
23348SOL    HW171883   4.786   2.140   0.449
23348SOL    HW271884   4.796   2.176   0.302
23349SOL     OW71885   3.765  12.498   9.286
23349SOL    HW171886   3.789  12.587   9.260
23349SOL    HW271887   3.694  12.510   9.349
23350SOL     OW71888   5.503   0.113   8.876
23350SOL    HW171889   5.593   0.082   8.870
23350SOL    HW271890   5.471   0.113   8.786
23351SOL     OW71891  10.125   4.058   2.911
23351SOL    HW171892  10.083   4.045   2.996
23351SOL    HW271893  10.096   4.145   2.883
23352SOL     OW71894   3.973   6.386   6.314
23352SOL    HW171895   3.992   6.456   6.251
23352SOL    HW271896   3.883   6.361   6.295
23353SOL     OW71897   8.636   7.185  11.902
23353SOL    HW171898   8.549   7.163  11.867
23353SOL    HW271899   8.668   7.254  11.844
23354SOL     OW71900   3.747  12.953   2.775
23354SOL    HW171901   3.804  13.026   2.749
23354SOL    HW271902   3.754  12.951   2.871
23355SOL     OW71903  12.311  12.937   0.370
23355SOL    HW171904  12.319  12.847   0.339
23355SOL    HW271905  12.332  12.991   0.294
23356SOL     OW71906   0.168   0.043  14.669
23356SOL    HW171907   0.227   0.070  14.598
23356SOL    HW271908   0.082   0.035  14.627
23357SOL     OW71909   6.215   8.100  11.630
23357SOL    HW171910   6.278   8.094  11.702
23357SOL    HW271911   6.163   8.020  11.636
23358SOL     OW71912   0.792  12.273  11.328
23358SOL    HW171913   0.722  12.252  11.266
23358SOL    HW271914   0.749  12.275  11.414
23359SOL     OW71915  12.753   1.214   7.817
23359SOL    HW171916  12.686   1.278   7.842
23359SOL    HW271917  12.705   1.148   7.766
23360SOL     OW71918   0.779  13.017   1.889
23360SOL    HW171919   0.688  13.023   1.861
23360SOL    HW271920   0.828  13.003   1.808
23361SOL     OW71921   1.384   0.192   1.178
23361SOL    HW171922   1.436   0.178   1.099
23361SOL    HW271923   1.446   0.184   1.250
23362SOL     OW71924   0.158  11.077   8.950
23362SOL    HW171925   0.157  11.115   9.038
23362SOL    HW271926   0.244  11.101   8.915
23363SOL     OW71927   2.354   0.873   7.916
23363SOL    HW171928   2.330   0.952   7.966
23363SOL    HW271929   2.440   0.894   7.880
23364SOL     OW71930  12.691   4.088  12.171
23364SOL    HW171931  12.760   4.072  12.235
23364SOL    HW271932  12.611   4.061  12.215
23365SOL     OW71933   3.306   7.448   3.663
23365SOL    HW171934   3.340   7.431   3.751
23365SOL    HW271935   3.383   7.448   3.607
23366SOL     OW71936   1.247  12.826   5.653
23366SOL    HW171937   1.234  12.880   5.731
23366SOL    HW271938   1.244  12.736   5.685
23367SOL     OW71939   7.329   8.291  14.365
23367SOL    HW171940   7.387   8.310  14.291
23367SOL    HW271941   7.276   8.217  14.336
23368SOL     OW71942   4.901  11.172   7.910
23368SOL    HW171943   4.845  11.114   7.962
23368SOL    HW271944   4.984  11.125   7.902
23369SOL     OW71945   6.168   7.551  12.581
23369SOL    HW171946   6.246   7.606  12.591
23369SOL    HW271947   6.131   7.578  12.497
23370SOL     OW71948  10.429   3.139   6.378
23370SOL    HW171949  10.484   3.083   6.323
23370SOL    HW271950  10.392   3.203   6.318
23371SOL     OW71951  10.937   2.028   2.413
23371SOL    HW171952  10.962   2.109   2.370
23371SOL    HW271953  10.916   1.968   2.341
23372SOL     OW71954   9.022   9.827  13.587
23372SOL    HW171955   9.098   9.831  13.645
23372SOL    HW271956   9.042   9.758  13.525
23373SOL     OW71957   6.400   8.146   9.103
23373SOL    HW171958   6.370   8.124   9.191
23373SOL    HW271959   6.495   8.157   9.112
23374SOL     OW71960   6.230  14.718   3.195
23374SOL    HW171961   6.279  14.696   3.275
23374SOL    HW271962   6.281  14.678   3.124
23375SOL     OW71963   2.737   5.022  10.761
23375SOL    HW171964   2.787   5.095  10.725
23375SOL    HW271965   2.771   4.945  10.715
23376SOL     OW71966  11.432   6.492   0.716
23376SOL    HW171967  11.510   6.545   0.731
23376SOL    HW271968  11.466   6.404   0.697
23377SOL     OW71969   1.175  12.933   7.181
23377SOL    HW171970   1.166  12.913   7.275
23377SOL    HW271971   1.092  12.976   7.158
23378SOL     OW71972   4.920  11.547   7.718
23378SOL    HW171973   5.003  11.501   7.702
23378SOL    HW271974   4.941  11.611   7.786
23379SOL     OW71975   4.965   4.287   2.688
23379SOL    HW171976   4.958   4.319   2.778
23379SOL    HW271977   5.011   4.203   2.696
23380SOL     OW71978   1.357   1.384   6.146
23380SOL    HW171979   1.326   1.461   6.193
23380SOL    HW271980   1.447   1.404   6.122
23381SOL     OW71981   7.541  11.883   9.296
23381SOL    HW171982   7.475  11.814   9.294
23381SOL    HW271983   7.495  11.961   9.263
23382SOL     OW71984   5.273  11.828   4.128
23382SOL    HW171985   5.271  11.779   4.047
23382SOL    HW271986   5.180  11.840   4.150
23383SOL     OW71987   4.547   4.837  11.621
23383SOL    HW171988   4.564   4.763  11.679
23383SOL    HW271989   4.578   4.913  11.671
23384SOL     OW71990  14.568   1.646   4.827
23384SOL    HW171991  14.544   1.569   4.776
23384SOL    HW271992  14.515   1.640   4.907
23385SOL     OW71993   9.725   1.532   8.751
23385SOL    HW171994   9.756   1.497   8.834
23385SOL    HW271995   9.776   1.612   8.738
23386SOL     OW71996  11.517   9.245  13.530
23386SOL    HW171997  11.610   9.227  13.545
23386SOL    HW271998  11.517   9.322  13.473
23387SOL     OW71999  12.568  13.779  10.234
23387SOL    HW172000  12.613  13.803  10.153
23387SOL    HW272001  12.618  13.824  10.303
23388SOL     OW72002   7.131  14.544   5.986
23388SOL    HW172003   7.226  14.545   5.997
23388SOL    HW272004   7.105  14.456   6.012
23389SOL     OW72005  12.302   9.393  13.260
23389SOL    HW172006  12.245   9.424  13.190
23389SOL    HW272007  12.310   9.299  13.245
23390SOL     OW72008   4.532   2.422   7.264
23390SOL    HW172009   4.469   2.427   7.192
23390SOL    HW272010   4.512   2.497   7.319
23391SOL     OW72011   3.731   0.108  13.714
23391SOL    HW172012   3.652   0.094  13.767
23391SOL    HW272013   3.799   0.130  13.777
23392SOL     OW72014   8.523   2.645   3.978
23392SOL    HW172015   8.488   2.612   3.895
23392SOL    HW272016   8.609   2.681   3.955
23393SOL     OW72017  14.277  11.844  13.514
23393SOL    HW172018  14.273  11.922  13.570
23393SOL    HW272019  14.328  11.871  13.438
23394SOL     OW72020   1.701  12.377   1.477
23394SOL    HW172021   1.760  12.436   1.523
23394SOL    HW272022   1.753  12.298   1.462
23395SOL     OW72023   2.290   2.404  13.658
23395SOL    HW172024   2.377   2.417  13.694
23395SOL    HW272025   2.255   2.329  13.706
23396SOL     OW72026   0.686  12.237   7.070
23396SOL    HW172027   0.757  12.271   7.017
23396SOL    HW272028   0.637  12.180   7.011
23397SOL     OW72029  10.822   6.423   3.878
23397SOL    HW172030  10.758   6.362   3.840
23397SOL    HW272031  10.810   6.414   3.973
23398SOL     OW72032   6.024   1.562   4.080
23398SOL    HW172033   6.031   1.627   4.011
23398SOL    HW272034   5.945   1.512   4.057
23399SOL     OW72035   2.335  10.233  12.201
23399SOL    HW172036   2.317  10.308  12.144
23399SOL    HW272037   2.259  10.177  12.190
23400SOL     OW72038   8.792   6.695   2.047
23400SOL    HW172039   8.762   6.650   2.125
23400SOL    HW272040   8.830   6.777   2.079
23401SOL     OW72041   8.729   4.450  12.388
23401SOL    HW172042   8.678   4.482  12.314
23401SOL    HW272043   8.820   4.468  12.364
23402SOL     OW72044   1.562  12.522   0.423
23402SOL    HW172045   1.606  12.589   0.474
23402SOL    HW272046   1.623  12.448   0.421
23403SOL     OW72047   8.974   6.304  10.003
23403SOL    HW172048   9.031   6.377  10.025
23403SOL    HW272049   8.886   6.341  10.002
23404SOL     OW72050   7.391   1.518   0.167
23404SOL    HW172051   7.387   1.427   0.137
23404SOL    HW272052   7.319   1.561   0.120
23405SOL     OW72053   2.810   9.107   2.124
23405SOL    HW172054   2.757   9.159   2.064
23405SOL    HW272055   2.763   9.024   2.133
23406SOL     OW72056  13.406   5.568   1.512
23406SOL    HW172057  13.342   5.633   1.538
23406SOL    HW272058  13.479   5.619   1.476
23407SOL     OW72059  11.835   6.672   3.561
23407SOL    HW172060  11.924   6.647   3.587
23407SOL    HW272061  11.805   6.601   3.504
23408SOL     OW72062  14.397   4.896  11.172
23408SOL    HW172063  14.437   4.918  11.088
23408SOL    HW272064  14.417   4.971  11.228
23409SOL     OW72065   2.095  12.190  11.358
23409SOL    HW172066   2.047  12.116  11.320
23409SOL    HW272067   2.140  12.154  11.434
23410SOL     OW72068   6.213   0.114   0.553
23410SOL    HW172069   6.178   0.189   0.599
23410SOL    HW272070   6.242   0.148   0.469
23411SOL     OW72071  14.339   1.603  12.014
23411SOL    HW172072  14.430   1.592  12.040
23411SOL    HW272073  14.310   1.681  12.062
23412SOL     OW72074   5.842   2.137   8.896
23412SOL    HW172075   5.926   2.162   8.858
23412SOL    HW272076   5.842   2.175   8.984
23413SOL     OW72077  10.153  11.750  13.161
23413SOL    HW172078  10.063  11.773  13.138
23413SOL    HW272079  10.145  11.670  13.213
23414SOL     OW72080   6.438   2.985   6.338
23414SOL    HW172081   6.441   3.035   6.420
23414SOL    HW272082   6.479   2.901   6.360
23415SOL     OW72083   5.668  12.250   4.193
23415SOL    HW172084   5.605  12.179   4.203
23415SOL    HW272085   5.616  12.324   4.161
23416SOL     OW72086  11.078   7.127   4.934
23416SOL    HW172087  11.057   7.073   4.857
23416SOL    HW272088  11.098   7.213   4.897
23417SOL     OW72089   5.892  11.214   8.245
23417SOL    HW172090   5.938  11.295   8.270
23417SOL    HW272091   5.955  11.144   8.262
23418SOL     OW72092   0.511   3.343   3.930
23418SOL    HW172093   0.481   3.377   4.014
23418SOL    HW272094   0.445   3.373   3.867
23419SOL     OW72095   2.150   2.638  13.569
23419SOL    HW172096   2.209   2.664  13.498
23419SOL    HW272097   2.192   2.561  13.608
23420SOL     OW72098   3.292   2.877   5.484
23420SOL    HW172099   3.300   2.783   5.467
23420SOL    HW272100   3.379   2.905   5.509
23421SOL     OW72101  12.002   5.966   7.824
23421SOL    HW172102  12.037   5.998   7.907
23421SOL    HW272103  11.926   6.022   7.808
23422SOL     OW72104   5.249  10.865   2.391
23422SOL    HW172105   5.339  10.887   2.416
23422SOL    HW272106   5.205  10.949   2.384
23423SOL     OW72107   3.960   9.955   4.985
23423SOL    HW172108   3.964  10.045   4.956
23423SOL    HW272109   3.913   9.908   4.916
23424SOL     OW72110   0.933  14.513   4.898
23424SOL    HW172111   0.863  14.457   4.932
23424SOL    HW272112   0.896  14.552   4.819
23425SOL     OW72113   2.660   9.411  11.212
23425SOL    HW172114   2.649   9.351  11.138
23425SOL    HW272115   2.642   9.357  11.289
23426SOL     OW72116   9.250  13.396   8.507
23426SOL    HW172117   9.308  13.423   8.579
23426SOL    HW272118   9.194  13.329   8.546
23427SOL     OW72119  10.160  10.480   7.941
23427SOL    HW172120  10.244  10.435   7.930
23427SOL    HW272121  10.144  10.521   7.855
23428SOL     OW72122  10.001   1.707   8.123
23428SOL    HW172123  10.069   1.641   8.105
23428SOL    HW272124  10.029   1.784   8.073
23429SOL     OW72125   6.405   2.564   0.022
23429SOL    HW172126   6.479   2.624   0.035
23429SOL    HW272127   6.440   2.495  14.840
23430SOL     OW72128   7.696   2.062  10.131
23430SOL    HW172129   7.730   2.007  10.202
23430SOL    HW272130   7.742   2.032  10.053
23431SOL     OW72131  12.113   3.178   9.680
23431SOL    HW172132  12.110   3.241   9.752
23431SOL    HW272133  12.050   3.110   9.705
23432SOL     OW72134   3.655  13.658   5.679
23432SOL    HW172135   3.610  13.574   5.678
23432SOL    HW272136   3.709  13.656   5.759
23433SOL     OW72137   8.104  14.244   9.735
23433SOL    HW172138   8.062  14.210   9.814
23433SOL    HW272139   8.034  14.243   9.669
23434SOL     OW72140  10.205   2.016   3.203
23434SOL    HW172141  10.214   2.083   3.135
23434SOL    HW272142  10.250   2.053   3.279
23435SOL     OW72143  11.445   4.545   1.203
23435SOL    HW172144  11.420   4.452   1.207
23435SOL    HW272145  11.516   4.554   1.266
23436SOL     OW72146   0.860  10.249   2.100
23436SOL    HW172147   0.879  10.282   2.013
23436SOL    HW272148   0.926  10.181   2.116
23437SOL     OW72149   7.909  13.879   4.469
23437SOL    HW172150   7.950  13.831   4.397
23437SOL    HW272151   7.875  13.958   4.428
23438SOL     OW72152   5.830   3.889   3.476
23438SOL    HW172153   5.888   3.961   3.454
23438SOL    HW272154   5.872   3.812   3.436
23439SOL     OW72155   0.659   9.257   8.964
23439SOL    HW172156   0.751   9.231   8.958
23439SOL    HW272157   0.617   9.188   9.015
23440SOL     OW72158   0.384   3.235   6.215
23440SOL    HW172159   0.407   3.235   6.308
23440SOL    HW272160   0.449   3.176   6.176
23441SOL     OW72161  10.607   9.646   6.332
23441SOL    HW172162  10.577   9.656   6.241
23441SOL    HW272163  10.559   9.569   6.364
23442SOL     OW72164   6.111  11.951  13.232
23442SOL    HW172165   6.070  12.037  13.242
23442SOL    HW272166   6.198  11.971  13.197
23443SOL     OW72167   3.579   6.235  13.620
23443SOL    HW172168   3.662   6.234  13.666
23443SOL    HW272169   3.516   6.268  13.684
23444SOL     OW72170   0.985   9.297   4.384
23444SOL    HW172171   0.964   9.355   4.457
23444SOL    HW272172   1.012   9.355   4.313
23445SOL     OW72173  13.661  13.610   6.157
23445SOL    HW172174  13.577  13.576   6.128
23445SOL    HW272175  13.725  13.572   6.096
23446SOL     OW72176   1.465  11.400   5.212
23446SOL    HW172177   1.459  11.451   5.292
23446SOL    HW272178   1.472  11.465   5.142
23447SOL     OW72179  13.317   0.778  12.856
23447SOL    HW172180  13.305   0.867  12.825
23447SOL    HW272181  13.235   0.757  12.901
23448SOL     OW72182   9.972   0.135   8.882
23448SOL    HW172183   9.980   0.040   8.889
23448SOL    HW272184  10.048   0.168   8.930
23449SOL     OW72185   7.869   2.837   5.787
23449SOL    HW172186   7.880   2.779   5.862
23449SOL    HW272187   7.840   2.920   5.824
23450SOL     OW72188  10.935  14.281   2.763
23450SOL    HW172189  11.000  14.262   2.830
23450SOL    HW272190  10.877  14.205   2.762
23451SOL     OW72191  10.121  11.521   6.229
23451SOL    HW172192  10.196  11.575   6.257
23451SOL    HW272193  10.159  11.457   6.168
23452SOL     OW72194   0.376   9.845   4.973
23452SOL    HW172195   0.366   9.811   5.062
23452SOL    HW272196   0.420   9.929   4.985
23453SOL     OW72197   4.224   9.253  13.589
23453SOL    HW172198   4.163   9.241  13.661
23453SOL    HW272199   4.210   9.342  13.559
23454SOL     OW72200  10.594   8.851   9.073
23454SOL    HW172201  10.599   8.835   9.167
23454SOL    HW272202  10.555   8.771   9.037
23455SOL     OW72203  11.227  10.254   8.773
23455SOL    HW172204  11.182  10.176   8.742
23455SOL    HW272205  11.195  10.266   8.863
23456SOL     OW72206  13.050   6.026   5.603
23456SOL    HW172207  13.089   5.987   5.682
23456SOL    HW272208  13.015   5.952   5.554
23457SOL     OW72209  11.913   2.669   0.761
23457SOL    HW172210  11.999   2.629   0.752
23457SOL    HW272211  11.902   2.683   0.855
23458SOL     OW72212   7.600   6.757   7.149
23458SOL    HW172213   7.636   6.759   7.060
23458SOL    HW272214   7.537   6.684   7.148
23459SOL     OW72215   1.446   5.707  13.227
23459SOL    HW172216   1.396   5.769  13.174
23459SOL    HW272217   1.400   5.705  13.311
23460SOL     OW72218   6.123   1.849   7.814
23460SOL    HW172219   6.040   1.841   7.768
23460SOL    HW272220   6.115   1.792   7.890
23461SOL     OW72221  10.932   7.819   0.497
23461SOL    HW172222  10.838   7.831   0.481
23461SOL    HW272223  10.963   7.773   0.419
23462SOL     OW72224  11.039   2.979   6.472
23462SOL    HW172225  11.020   2.912   6.538
23462SOL    HW272226  10.965   3.040   6.479
23463SOL     OW72227  12.814   3.374   1.118
23463SOL    HW172228  12.887   3.314   1.126
23463SOL    HW272229  12.737   3.317   1.112
23464SOL     OW72230   5.952   9.080   8.689
23464SOL    HW172231   6.024   9.019   8.705
23464SOL    HW272232   5.960   9.146   8.757
23465SOL     OW72233   7.746  10.330   8.252
23465SOL    HW172234   7.834  10.344   8.217
23465SOL    HW272235   7.695  10.403   8.218
23466SOL     OW72236   6.130   9.105   6.664
23466SOL    HW172237   6.126   9.035   6.598
23466SOL    HW272238   6.089   9.180   6.621
23467SOL     OW72239  10.188   0.694  12.998
23467SOL    HW172240  10.160   0.666  13.085
23467SOL    HW272241  10.140   0.638  12.938
23468SOL     OW72242   7.981   2.792   7.514
23468SOL    HW172243   7.893   2.755   7.507
23468SOL    HW272244   7.997   2.833   7.429
23469SOL     OW72245  14.420   2.367   9.747
23469SOL    HW172246  14.453   2.457   9.749
23469SOL    HW272247  14.331   2.373   9.780
23470SOL     OW72248  13.495   9.364   2.102
23470SOL    HW172249  13.543   9.367   2.185
23470SOL    HW272250  13.545   9.304   2.047
23471SOL     OW72251   5.098   9.994  11.758
23471SOL    HW172252   5.075   9.911  11.716
23471SOL    HW272253   5.168   9.971  11.820
23472SOL     OW72254   5.448   2.778   7.649
23472SOL    HW172255   5.380   2.841   7.624
23472SOL    HW272256   5.409   2.693   7.629
23473SOL     OW72257   2.134  13.155  13.194
23473SOL    HW172258   2.098  13.193  13.114
23473SOL    HW272259   2.108  13.216  13.263
23474SOL     OW72260  12.333  13.754  13.294
23474SOL    HW172261  12.255  13.800  13.264
23474SOL    HW272262  12.301  13.668  13.320
23475SOL     OW72263  10.060   6.887   8.906
23475SOL    HW172264  10.097   6.934   8.831
23475SOL    HW272265  10.024   6.956   8.962
23476SOL     OW72266  13.173   4.683  10.367
23476SOL    HW172267  13.136   4.726  10.290
23476SOL    HW272268  13.119   4.606  10.381
23477SOL     OW72269   8.385  11.992   0.199
23477SOL    HW172270   8.477  12.011   0.217
23477SOL    HW272271   8.356  12.063   0.143
23478SOL     OW72272  12.947  12.131   7.016
23478SOL    HW172273  12.959  12.162   7.105
23478SOL    HW272274  12.884  12.059   7.024
23479SOL     OW72275   0.357   1.172  13.466
23479SOL    HW172276   0.280   1.126  13.433
23479SOL    HW272277   0.322   1.237  13.526
23480SOL     OW72278   5.888  10.834  14.680
23480SOL    HW172279   5.884  10.741  14.658
23480SOL    HW272280   5.963  10.867  14.631
23481SOL     OW72281  14.192   1.062   3.591
23481SOL    HW172282  14.116   1.051   3.535
23481SOL    HW272283  14.251   1.118   3.541
23482SOL     OW72284  13.392   9.847   4.176
23482SOL    HW172285  13.364   9.882   4.261
23482SOL    HW272286  13.347   9.763   4.169
23483SOL     OW72287   3.383   6.246   0.351
23483SOL    HW172288   3.351   6.195   0.425
23483SOL    HW272289   3.304   6.285   0.312
23484SOL     OW72290   6.916   6.806   3.477
23484SOL    HW172291   6.973   6.812   3.554
23484SOL    HW272292   6.918   6.893   3.438
23485SOL     OW72293   7.441   7.070   0.439
23485SOL    HW172294   7.419   7.134   0.507
23485SOL    HW272295   7.532   7.089   0.416
23486SOL     OW72296  14.073   3.643   8.432
23486SOL    HW172297  13.987   3.627   8.392
23486SOL    HW272298  14.136   3.621   8.363
23487SOL     OW72299  11.006   3.961  11.546
23487SOL    HW172300  10.979   4.050  11.567
23487SOL    HW272301  11.052   3.931  11.624
23488SOL     OW72302   9.681   6.045   2.464
23488SOL    HW172303   9.738   5.979   2.504
23488SOL    HW272304   9.740   6.119   2.447
23489SOL     OW72305   3.291   5.494  12.854
23489SOL    HW172306   3.277   5.552  12.929
23489SOL    HW272307   3.360   5.434  12.883
23490SOL     OW72308   0.148  14.715  12.592
23490SOL    HW172309   0.081  14.685  12.530
23490SOL    HW272310   0.103  14.778  12.648
23491SOL     OW72311   8.040   8.089   6.423
23491SOL    HW172312   8.108   8.032   6.385
23491SOL    HW272313   8.041   8.167   6.367
23492SOL     OW72314   5.171  13.121  10.724
23492SOL    HW172315   5.257  13.095  10.692
23492SOL    HW272316   5.182  13.126  10.819
23493SOL     OW72317   6.484   1.377   6.418
23493SOL    HW172318   6.561   1.430   6.437
23493SOL    HW272319   6.463   1.333   6.500
23494SOL     OW72320   9.467   5.555   3.632
23494SOL    HW172321   9.517   5.605   3.568
23494SOL    HW272322   9.385   5.603   3.642
23495SOL     OW72323  14.491   7.673   4.423
23495SOL    HW172324  14.434   7.727   4.478
23495SOL    HW272325  14.501   7.591   4.471
23496SOL     OW72326  11.603   6.505   1.829
23496SOL    HW172327  11.561   6.506   1.915
23496SOL    HW272328  11.639   6.416   1.820
23497SOL     OW72329   8.757   8.402  12.305
23497SOL    HW172330   8.692   8.444  12.362
23497SOL    HW272331   8.798   8.474  12.259
23498SOL     OW72332   1.918  11.118  11.288
23498SOL    HW172333   1.958  11.094  11.205
23498SOL    HW272334   1.965  11.066  11.353
23499SOL     OW72335   6.272   4.148  11.094
23499SOL    HW172336   6.340   4.158  11.028
23499SOL    HW272337   6.297   4.209  11.164
23500SOL     OW72338  14.600  12.609  10.396
23500SOL    HW172339  14.602  12.574  10.307
23500SOL    HW272340  14.579  12.702  10.385
23501SOL     OW72341   2.202   5.715  10.152
23501SOL    HW172342   2.128   5.673  10.196
23501SOL    HW272343   2.199   5.806  10.180
23502SOL     OW72344   6.075   8.814   4.620
23502SOL    HW172345   6.089   8.832   4.527
23502SOL    HW272346   6.140   8.747   4.641
23503SOL     OW72347   9.405   7.051   2.455
23503SOL    HW172348   9.348   7.117   2.415
23503SOL    HW272349   9.346   6.983   2.487
23504SOL     OW72350   1.376   1.145  12.347
23504SOL    HW172351   1.459   1.144  12.299
23504SOL    HW272352   1.357   1.237  12.362
23505SOL     OW72353   4.880   6.807  11.851
23505SOL    HW172354   4.899   6.737  11.789
23505SOL    HW272355   4.908   6.772  11.936
23506SOL     OW72356   3.244   0.658  11.572
23506SOL    HW172357   3.201   0.743  11.562
23506SOL    HW272358   3.279   0.639  11.486
23507SOL     OW72359   8.232  12.336  12.562
23507SOL    HW172360   8.248  12.424  12.527
23507SOL    HW272361   8.228  12.280  12.485
23508SOL     OW72362  11.931  14.710  14.025
23508SOL    HW172363  11.896  14.624  14.050
23508SOL    HW272364  11.927  14.711  13.930
23509SOL     OW72365  10.517  10.225  10.312
23509SOL    HW172366  10.537  10.138  10.347
23509SOL    HW272367  10.520  10.215  10.217
23510SOL     OW72368   5.269   3.433   9.756
23510SOL    HW172369   5.221   3.500   9.708
23510SOL    HW272370   5.324   3.391   9.690
23511SOL     OW72371   5.545   0.621   8.578
23511SOL    HW172372   5.543   0.548   8.639
23511SOL    HW272373   5.626   0.609   8.529
23512SOL     OW72374  11.401   6.166  13.665
23512SOL    HW172375  11.352   6.248  13.658
23512SOL    HW272376  11.452   6.175  13.746
23513SOL     OW72377  12.427  11.602  10.925
23513SOL    HW172378  12.475  11.605  10.842
23513SOL    HW272379  12.458  11.678  10.973
23514SOL     OW72380  10.250   2.591  14.092
23514SOL    HW172381  10.272   2.666  14.037
23514SOL    HW272382  10.163   2.563  14.061
23515SOL     OW72383   8.819  10.643   0.096
23515SOL    HW172384   8.769  10.585   0.153
23515SOL    HW272385   8.811  10.604   0.009
23516SOL     OW72386   2.175   9.118   1.933
23516SOL    HW172387   2.142   9.062   2.004
23516SOL    HW272388   2.204   9.197   1.978
23517SOL     OW72389  13.398  13.017   0.713
23517SOL    HW172390  13.475  13.023   0.657
23517SOL    HW272391  13.336  12.964   0.662
23518SOL     OW72392   8.394   9.361   9.562
23518SOL    HW172393   8.395   9.423   9.489
23518SOL    HW272394   8.361   9.411   9.636
23519SOL     OW72395   2.791  13.878  13.981
23519SOL    HW172396   2.800  13.906  13.890
23519SOL    HW272397   2.701  13.845  13.987
23520SOL     OW72398   9.522  12.981  11.143
23520SOL    HW172399   9.457  13.050  11.158
23520SOL    HW272400   9.555  12.960  11.231
23521SOL     OW72401  14.492  11.974   6.639
23521SOL    HW172402  14.463  11.920   6.713
23521SOL    HW272403  14.462  12.062   6.660
23522SOL     OW72404  12.279   8.037   7.088
23522SOL    HW172405  12.304   8.129   7.090
23522SOL    HW272406  12.245   8.024   7.000
23523SOL     OW72407   7.328   1.065   5.589
23523SOL    HW172408   7.246   1.019   5.604
23523SOL    HW272409   7.330   1.082   5.495
23524SOL     OW72410   2.335   4.476   4.279
23524SOL    HW172411   2.391   4.427   4.340
23524SOL    HW272412   2.268   4.516   4.334
23525SOL     OW72413  10.293   5.586  12.343
23525SOL    HW172414  10.245   5.622  12.417
23525SOL    HW272415  10.274   5.492  12.346
23526SOL     OW72416   5.466   2.756   1.545
23526SOL    HW172417   5.404   2.748   1.473
23526SOL    HW272418   5.415   2.795   1.616
23527SOL     OW72419   6.308   2.998   4.073
23527SOL    HW172420   6.265   2.913   4.080
23527SOL    HW272421   6.399   2.977   4.049
23528SOL     OW72422  10.800   7.478   4.808
23528SOL    HW172423  10.771   7.508   4.894
23528SOL    HW272424  10.720   7.475   4.755
23529SOL     OW72425   6.284   6.842   6.384
23529SOL    HW172426   6.254   6.863   6.295
23529SOL    HW272427   6.258   6.751   6.397
23530SOL     OW72428   3.236   2.594   5.439
23530SOL    HW172429   3.200   2.593   5.351
23530SOL    HW272430   3.160   2.581   5.496
23531SOL     OW72431   6.067   7.332  13.748
23531SOL    HW172432   6.134   7.400  13.744
23531SOL    HW272433   6.090   7.273  13.676
23532SOL     OW72434  14.161   1.610   3.028
23532SOL    HW172435  14.252   1.626   3.056
23532SOL    HW272436  14.124   1.698   3.020
23533SOL     OW72437   5.648  13.142  11.377
23533SOL    HW172438   5.586  13.155  11.306
23533SOL    HW272439   5.653  13.226  11.422
23534SOL     OW72440  12.946   4.306   0.972
23534SOL    HW172441  12.971   4.251   0.898
23534SOL    HW272442  12.888   4.250   1.025
23535SOL     OW72443   6.759   5.064   5.512
23535SOL    HW172444   6.820   5.134   5.534
23535SOL    HW272445   6.812   5.001   5.463
23536SOL     OW72446  11.788   0.347   7.737
23536SOL    HW172447  11.782   0.287   7.812
23536SOL    HW272448  11.825   0.293   7.667
23537SOL     OW72449   4.960  12.948  14.044
23537SOL    HW172450   4.892  12.979  13.984
23537SOL    HW272451   5.001  12.875  13.997
23538SOL     OW72452  11.600  13.705  12.142
23538SOL    HW172453  11.548  13.664  12.212
23538SOL    HW272454  11.680  13.653  12.138
23539SOL     OW72455  11.952   7.175   2.193
23539SOL    HW172456  11.923   7.166   2.102
23539SOL    HW272457  11.911   7.256   2.224
23540SOL     OW72458   2.799  10.052   3.555
23540SOL    HW172459   2.709  10.077   3.536
23540SOL    HW272460   2.849  10.081   3.479
23541SOL     OW72461   4.560   5.189  14.272
23541SOL    HW172462   4.623   5.133  14.226
23541SOL    HW272463   4.569   5.164  14.364
23542SOL     OW72464   3.388  14.468  14.392
23542SOL    HW172465   3.463  14.447  14.336
23542SOL    HW272466   3.385  14.398  14.457
23543SOL     OW72467  14.616   7.047  13.871
23543SOL    HW172468  14.700   7.003  13.857
23543SOL    HW272469  14.564   7.023  13.795
23544SOL     OW72470  13.890  13.354  11.310
23544SOL    HW172471  13.861  13.439  11.277
23544SOL    HW272472  13.875  13.293  11.237
23545SOL     OW72473   7.779  12.999   7.250
23545SOL    HW172474   7.763  12.914   7.208
23545SOL    HW272475   7.787  12.979   7.343
23546SOL     OW72476   8.797   0.380  12.331
23546SOL    HW172477   8.813   0.314  12.399
23546SOL    HW272478   8.722   0.430  12.364
23547SOL     OW72479  14.311  12.729   8.352
23547SOL    HW172480  14.306  12.651   8.408
23547SOL    HW272481  14.332  12.694   8.265
23548SOL     OW72482  14.296   3.427   6.581
23548SOL    HW172483  14.245   3.434   6.662
23548SOL    HW272484  14.267   3.501   6.528
23549SOL     OW72485  12.946  14.614  10.758
23549SOL    HW172486  12.956  14.623  10.663
23549SOL    HW272487  12.865  14.565  10.770
23550SOL     OW72488   4.263  13.421   3.953
23550SOL    HW172489   4.188  13.462   3.911
23550SOL    HW272490   4.225  13.355   4.011
23551SOL     OW72491   1.773   8.268   2.783
23551SOL    HW172492   1.687   8.304   2.760
23551SOL    HW272493   1.831   8.344   2.787
23552SOL     OW72494   8.434  13.680   0.678
23552SOL    HW172495   8.527  13.677   0.655
23552SOL    HW272496   8.427  13.626   0.757
23553SOL     OW72497   2.614   0.438   4.025
23553SOL    HW172498   2.568   0.506   4.074
23553SOL    HW272499   2.579   0.356   4.060
23554SOL     OW72500   9.997   9.589  12.331
23554SOL    HW172501  10.072   9.548  12.289
23554SOL    HW272502  10.018   9.682  12.334
23555SOL     OW72503  14.255   8.031   6.726
23555SOL    HW172504  14.246   8.072   6.812
23555SOL    HW272505  14.168   7.997   6.707
23556SOL     OW72506  10.839  11.735   1.849
23556SOL    HW172507  10.870  11.776   1.930
23556SOL    HW272508  10.784  11.801   1.808
23557SOL     OW72509  14.405  11.408   8.452
23557SOL    HW172510  14.328  11.392   8.398
23557SOL    HW272511  14.389  11.358   8.532
23558SOL     OW72512   8.592  10.140   5.037
23558SOL    HW172513   8.662  10.081   5.067
23558SOL    HW272514   8.595  10.214   5.098
23559SOL     OW72515   3.963   0.898   9.207
23559SOL    HW172516   4.026   0.832   9.179
23559SOL    HW272517   3.909   0.853   9.272
23560SOL     OW72518   5.928  13.801  12.971
23560SOL    HW172519   5.856  13.791  12.909
23560SOL    HW272520   5.954  13.894  12.963
23561SOL     OW72521   4.868   9.955   6.117
23561SOL    HW172522   4.927   9.994   6.182
23561SOL    HW272523   4.893   9.996   6.034
23562SOL     OW72524   4.781  13.438   4.370
23562SOL    HW172525   4.771  13.500   4.298
23562SOL    HW272526   4.853  13.472   4.423
23563SOL     OW72527   2.080   7.850  12.735
23563SOL    HW172528   2.073   7.914  12.665
23563SOL    HW272529   2.079   7.902  12.815
23564SOL     OW72530   2.430   6.632   0.328
23564SOL    HW172531   2.453   6.550   0.284
23564SOL    HW272532   2.355   6.665   0.279
23565SOL     OW72533  10.595  11.658   0.209
23565SOL    HW172534  10.520  11.684   0.156
23565SOL    HW272535  10.659  11.626   0.147
23566SOL     OW72536  11.348  12.976  10.154
23566SOL    HW172537  11.431  12.962  10.200
23566SOL    HW272538  11.290  12.909  10.189
23567SOL     OW72539  14.608  12.548   4.264
23567SOL    HW172540  14.568  12.615   4.209
23567SOL    HW272541  14.536  12.510   4.313
23568SOL     OW72542   6.886  12.049   9.079
23568SOL    HW172543   6.795  12.046   9.049
23568SOL    HW272544   6.938  12.055   8.999
23569SOL     OW72545   1.315   5.765  13.501
23569SOL    HW172546   1.356   5.763  13.588
23569SOL    HW272547   1.226   5.797  13.519
23570SOL     OW72548   1.359   7.456  10.758
23570SOL    HW172549   1.324   7.368  10.748
23570SOL    HW272550   1.440   7.444  10.808
23571SOL     OW72551   7.159   6.768  12.988
23571SOL    HW172552   7.172   6.845  12.933
23571SOL    HW272553   7.064   6.761  12.997
23572SOL     OW72554  13.159   3.480   8.868
23572SOL    HW172555  13.091   3.543   8.890
23572SOL    HW272556  13.143   3.458   8.776
23573SOL     OW72557   9.900   5.922   6.945
23573SOL    HW172558   9.934   5.977   6.875
23573SOL    HW272559   9.834   5.976   6.989
23574SOL     OW72560   7.680   6.481   6.154
23574SOL    HW172561   7.612   6.469   6.088
23574SOL    HW272562   7.649   6.554   6.208
23575SOL     OW72563   2.350   6.887   1.278
23575SOL    HW172564   2.403   6.967   1.275
23575SOL    HW272565   2.281   6.906   1.341
23576SOL     OW72566  11.495  10.004   7.107
23576SOL    HW172567  11.434  10.070   7.075
23576SOL    HW272568  11.482   9.929   7.047
23577SOL     OW72569   4.228   1.647   8.939
23577SOL    HW172570   4.195   1.583   9.003
23577SOL    HW272571   4.298   1.602   8.893
23578SOL     OW72572   0.988  13.415   5.809
23578SOL    HW172573   0.954  13.356   5.742
23578SOL    HW272574   1.083  13.413   5.797
23579SOL     OW72575  12.192  10.394  12.866
23579SOL    HW172576  12.098  10.414  12.861
23579SOL    HW272577  12.218  10.429  12.951
23580SOL     OW72578   2.960   0.028   0.148
23580SOL    HW172579   2.870   0.012   0.176
23580SOL    HW272580   3.007  14.822   0.172
23581SOL     OW72581  12.806  11.085  11.335
23581SOL    HW172582  12.782  11.015  11.274
23581SOL    HW272583  12.828  11.159  11.278
23582SOL     OW72584  12.027   8.231  13.505
23582SOL    HW172585  12.062   8.319  13.519
23582SOL    HW272586  12.035   8.188  13.590
23583SOL     OW72587  11.180   1.481   8.735
23583SOL    HW172588  11.218   1.525   8.658
23583SOL    HW272589  11.087   1.504   8.732
23584SOL     OW72590  11.511  14.483   2.369
23584SOL    HW172591  11.549  14.569   2.387
23584SOL    HW272592  11.585  14.423   2.366
23585SOL     OW72593  14.635  10.742  11.061
23585SOL    HW172594  14.550  10.776  11.034
23585SOL    HW272595  14.652  10.669  11.002
23586SOL     OW72596   0.894   2.387   4.894
23586SOL    HW172597   0.915   2.295   4.877
23586SOL    HW272598   0.816   2.404   4.842
23587SOL     OW72599   9.849   2.702   1.212
23587SOL    HW172600   9.867   2.672   1.123
23587SOL    HW272601   9.866   2.625   1.266
23588SOL     OW72602   1.808   5.987   8.537
23588SOL    HW172603   1.831   6.035   8.617
23588SOL    HW272604   1.733   6.035   8.501
23589SOL     OW72605   4.627   6.081  11.092
23589SOL    HW172606   4.700   6.140  11.070
23589SOL    HW272607   4.557   6.106  11.032
23590SOL     OW72608   7.869  10.429   1.559
23590SOL    HW172609   7.882  10.386   1.474
23590SOL    HW272610   7.826  10.362   1.613
23591SOL     OW72611  11.527   9.077  11.662
23591SOL    HW172612  11.604   9.022  11.648
23591SOL    HW272613  11.530   9.141  11.591
23592SOL     OW72614  13.326   4.784   7.232
23592SOL    HW172615  13.403   4.756   7.181
23592SOL    HW272616  13.319   4.878   7.216
23593SOL     OW72617   9.390   9.581   9.304
23593SOL    HW172618   9.421   9.577   9.395
23593SOL    HW272619   9.439   9.653   9.265
23594SOL     OW72620  11.107   8.198   4.230
23594SOL    HW172621  11.148   8.284   4.235
23594SOL    HW272622  11.013   8.216   4.235
23595SOL     OW72623  11.294   1.341   5.633
23595SOL    HW172624  11.313   1.434   5.641
23595SOL    HW272625  11.219   1.336   5.573
23596SOL     OW72626   3.829   5.673   8.410
23596SOL    HW172627   3.833   5.750   8.353
23596SOL    HW272628   3.739   5.642   8.402
23597SOL     OW72629   3.056  13.204   7.984
23597SOL    HW172630   2.973  13.161   8.005
23597SOL    HW272631   3.030  13.285   7.939
23598SOL     OW72632   2.992   1.271   2.578
23598SOL    HW172633   2.963   1.218   2.503
23598SOL    HW272634   2.966   1.360   2.556
23599SOL     OW72635  12.451  13.969   2.332
23599SOL    HW172636  12.526  13.987   2.388
23599SOL    HW272637  12.467  14.020   2.253
23600SOL     OW72638   0.340   8.932   4.498
23600SOL    HW172639   0.320   9.023   4.479
23600SOL    HW272640   0.255   8.889   4.505
23601SOL     OW72641   1.362   9.208   6.135
23601SOL    HW172642   1.378   9.155   6.057
23601SOL    HW272643   1.427   9.279   6.128
23602SOL     OW72644   8.088   9.311  13.697
23602SOL    HW172645   8.021   9.318  13.764
23602SOL    HW272646   8.073   9.226  13.657
23603SOL     OW72647  14.301   4.562  10.605
23603SOL    HW172648  14.325   4.653  10.588
23603SOL    HW272649  14.367   4.531  10.667
23604SOL     OW72650  11.526   8.720  11.780
23604SOL    HW172651  11.582   8.662  11.830
23604SOL    HW272652  11.566   8.807  11.790
23605SOL     OW72653   9.514  14.151   1.584
23605SOL    HW172654   9.511  14.131   1.678
23605SOL    HW272655   9.536  14.244   1.579
23606SOL     OW72656   4.762  13.802   9.637
23606SOL    HW172657   4.718  13.845   9.563
23606SOL    HW272658   4.697  13.742   9.672
23607SOL     OW72659  14.321  12.529  11.678
23607SOL    HW172660  14.300  12.442  11.711
23607SOL    HW272661  14.255  12.544  11.610
23608SOL     OW72662  10.967   1.707   8.816
23608SOL    HW172663  11.040   1.759   8.850
23608SOL    HW272664  10.917   1.769   8.762
23609SOL     OW72665  12.013   6.084   6.441
23609SOL    HW172666  11.958   6.163   6.433
23609SOL    HW272667  11.968   6.018   6.388
23610SOL     OW72668   4.390   0.655   1.040
23610SOL    HW172669   4.475   0.682   1.077
23610SOL    HW272670   4.334   0.641   1.117
23611SOL     OW72671  10.351  13.724   7.999
23611SOL    HW172672  10.404  13.803   8.009
23611SOL    HW272673  10.273  13.752   7.951
23612SOL     OW72674   3.721   3.475   3.629
23612SOL    HW172675   3.800   3.425   3.606
23612SOL    HW272676   3.752   3.539   3.693
23613SOL     OW72677  13.816  13.410   8.781
23613SOL    HW172678  13.900  13.382   8.818
23613SOL    HW272679  13.750  13.361   8.831
23614SOL     OW72680  11.900   5.449   5.402
23614SOL    HW172681  11.994   5.444   5.422
23614SOL    HW272682  11.897   5.488   5.315
23615SOL     OW72683   6.517  10.714   2.614
23615SOL    HW172684   6.454  10.645   2.633
23615SOL    HW272685   6.470  10.774   2.555
23616SOL     OW72686   8.218  13.861   1.756
23616SOL    HW172687   8.167  13.894   1.682
23616SOL    HW272688   8.156  13.855   1.828
23617SOL     OW72689   7.410   5.079   2.706
23617SOL    HW172690   7.317   5.104   2.709
23617SOL    HW272691   7.436   5.097   2.615
23618SOL     OW72692  12.093   6.898   0.323
23618SOL    HW172693  12.172   6.937   0.284
23618SOL    HW272694  12.061   6.965   0.383
23619SOL     OW72695   2.281   7.033   9.836
23619SOL    HW172696   2.203   7.069   9.878
23619SOL    HW272697   2.350   7.043   9.901
23620SOL     OW72698   5.486   9.375   9.733
23620SOL    HW172699   5.525   9.439   9.792
23620SOL    HW272700   5.522   9.396   9.647
23621SOL     OW72701   0.374   1.688  14.354
23621SOL    HW172702   0.303   1.681  14.418
23621SOL    HW272703   0.449   1.646  14.396
23622SOL     OW72704   5.228   6.332  12.887
23622SOL    HW172705   5.175   6.347  12.808
23622SOL    HW272706   5.209   6.406  12.943
23623SOL     OW72707   0.390   0.839   3.637
23623SOL    HW172708   0.336   0.812   3.712
23623SOL    HW272709   0.355   0.789   3.563
23624SOL     OW72710   1.690  12.162  14.287
23624SOL    HW172711   1.648  12.244  14.314
23624SOL    HW272712   1.625  12.118  14.234
23625SOL     OW72713   2.343   0.615  11.090
23625SOL    HW172714   2.398   0.637  11.014
23625SOL    HW272715   2.406   0.601  11.161
23626SOL     OW72716   7.813   1.836   2.886
23626SOL    HW172717   7.868   1.896   2.936
23626SOL    HW272718   7.863   1.755   2.881
23627SOL     OW72719  14.521  13.478   4.937
23627SOL    HW172720  14.525  13.489   4.842
23627SOL    HW272721  14.429  13.455   4.954
23628SOL     OW72722   5.286  13.172   4.370
23628SOL    HW172723   5.309  13.239   4.435
23628SOL    HW272724   5.191  13.169   4.372
23629SOL     OW72725   5.560   2.438   9.878
23629SOL    HW172726   5.594   2.460   9.792
23629SOL    HW272727   5.478   2.392   9.861
23630SOL     OW72728   9.091  12.503   7.163
23630SOL    HW172729   9.132  12.416   7.159
23630SOL    HW272730   9.019  12.497   7.100
23631SOL     OW72731   6.202   3.030  11.224
23631SOL    HW172732   6.120   2.985  11.203
23631SOL    HW272733   6.176   3.103  11.280
23632SOL     OW72734  12.771   5.708  12.594
23632SOL    HW172735  12.823   5.646  12.646
23632SOL    HW272736  12.808   5.704  12.506
23633SOL     OW72737   7.910   2.700   6.004
23633SOL    HW172738   8.004   2.702   6.023
23633SOL    HW272739   7.873   2.647   6.075
23634SOL     OW72740   6.148   6.921   9.290
23634SOL    HW172741   6.086   6.938   9.361
23634SOL    HW272742   6.186   7.007   9.270
23635SOL     OW72743  14.244  13.241   4.308
23635SOL    HW172744  14.283  13.323   4.277
23635SOL    HW272745  14.263  13.178   4.239
23636SOL     OW72746  14.820   4.795  12.420
23636SOL    HW172747  14.743   4.739  12.436
23636SOL    HW272748  14.784   4.875  12.382
23637SOL     OW72749   8.873   1.470   4.207
23637SOL    HW172750   8.892   1.402   4.273
23637SOL    HW272751   8.951   1.472   4.152
23638SOL     OW72752   0.250   7.601   5.592
23638SOL    HW172753   0.192   7.662   5.638
23638SOL    HW272754   0.319   7.581   5.656
23639SOL     OW72755   0.287  11.367   8.600
23639SOL    HW172756   0.336  11.440   8.562
23639SOL    HW272757   0.245  11.324   8.525
23640SOL     OW72758   6.528  12.030   1.851
23640SOL    HW172759   6.545  12.090   1.923
23640SOL    HW272760   6.614  12.016   1.810
23641SOL     OW72761  14.271  13.437  10.521
23641SOL    HW172762  14.212  13.379  10.569
23641SOL    HW272763  14.267  13.408  10.430
23642SOL     OW72764   7.189   6.276  11.574
23642SOL    HW172765   7.103   6.243  11.602
23642SOL    HW272766   7.211   6.223  11.498
23643SOL     OW72767   0.954   4.747   3.434
23643SOL    HW172768   1.010   4.723   3.508
23643SOL    HW272769   1.001   4.818   3.391
23644SOL     OW72770   8.841  11.467   1.626
23644SOL    HW172771   8.745  11.463   1.627
23644SOL    HW272772   8.866  11.438   1.539
23645SOL     OW72773   9.739  11.636   3.089
23645SOL    HW172774   9.649  11.637   3.056
23645SOL    HW272775   9.731  11.615   3.182
23646SOL     OW72776   7.136  10.869   9.187
23646SOL    HW172777   7.181  10.938   9.236
23646SOL    HW272778   7.206  10.819   9.146
23647SOL     OW72779  14.672   7.248   1.541
23647SOL    HW172780  14.727   7.228   1.617
23647SOL    HW272781  14.704   7.333   1.510
23648SOL     OW72782   3.456   0.620   6.923
23648SOL    HW172783   3.516   0.624   6.997
23648SOL    HW272784   3.443   0.527   6.908
23649SOL     OW72785  11.854   5.743   8.736
23649SOL    HW172786  11.878   5.835   8.745
23649SOL    HW272787  11.858   5.726   8.642
23650SOL     OW72788  11.177   6.552   5.693
23650SOL    HW172789  11.193   6.542   5.787
23650SOL    HW272790  11.249   6.503   5.651
23651SOL     OW72791  10.492  11.973  14.378
23651SOL    HW172792  10.467  12.033  14.308
23651SOL    HW272793  10.419  11.911  14.385
23652SOL     OW72794   8.176   9.189  10.585
23652SOL    HW172795   8.204   9.107  10.546
23652SOL    HW272796   8.203   9.256  10.522
23653SOL     OW72797   0.022  12.338  10.926
23653SOL    HW172798  14.827  12.397  10.956
23653SOL    HW272799  14.853  12.284  10.859
23654SOL     OW72800  11.941   8.270   1.814
23654SOL    HW172801  11.937   8.343   1.752
23654SOL    HW272802  11.904   8.305   1.895
23655SOL     OW72803  11.747  10.451   6.133
23655SOL    HW172804  11.684  10.384   6.162
23655SOL    HW272805  11.695  10.530   6.124
23656SOL     OW72806   6.053   8.037   1.533
23656SOL    HW172807   5.960   8.037   1.554
23656SOL    HW272808   6.080   7.945   1.542
23657SOL     OW72809  12.606   8.887   8.878
23657SOL    HW172810  12.604   8.946   8.803
23657SOL    HW272811  12.521   8.897   8.920
23658SOL     OW72812  10.413  12.362   7.196
23658SOL    HW172813  10.337  12.320   7.237
23658SOL    HW272814  10.399  12.350   7.102
23659SOL     OW72815   8.869  10.025   8.791
23659SOL    HW172816   8.874  10.078   8.711
23659SOL    HW272817   8.936  10.061   8.849
23660SOL     OW72818   5.007  14.799   5.599
23660SOL    HW172819   4.917  14.829   5.590
23660SOL    HW272820   5.060   0.005   5.587
23661SOL     OW72821   8.839   7.939   2.119
23661SOL    HW172822   8.780   7.875   2.158
23661SOL    HW272823   8.874   7.989   2.194
23662SOL     OW72824  10.762   9.936   5.276
23662SOL    HW172825  10.837   9.918   5.333
23662SOL    HW272826  10.749   9.855   5.227
23663SOL     OW72827  13.884   9.854  13.442
23663SOL    HW172828  13.825   9.805  13.499
23663SOL    HW272829  13.827   9.901  13.382
23664SOL     OW72830   8.338   5.968   5.730
23664SOL    HW172831   8.346   5.872   5.725
23664SOL    HW272832   8.314   5.985   5.821
23665SOL     OW72833   3.893   9.876   8.995
23665SOL    HW172834   3.974   9.833   9.021
23665SOL    HW272835   3.829   9.848   9.061
23666SOL     OW72836   8.927   0.876   0.113
23666SOL    HW172837   8.845   0.827   0.112
23666SOL    HW272838   8.905   0.959   0.070
23667SOL     OW72839   5.615   5.231  11.477
23667SOL    HW172840   5.566   5.313  11.476
23667SOL    HW272841   5.649   5.224  11.566
23668SOL     OW72842   8.700  14.248   4.377
23668SOL    HW172843   8.693  14.246   4.473
23668SOL    HW272844   8.782  14.294   4.361
23669SOL     OW72845  11.250   1.351   3.485
23669SOL    HW172846  11.317   1.301   3.439
23669SOL    HW272847  11.294   1.382   3.564
23670SOL     OW72848   5.519   8.787   7.115
23670SOL    HW172849   5.541   8.753   7.029
23670SOL    HW272850   5.496   8.879   7.099
23671SOL     OW72851  13.261   8.486   0.420
23671SOL    HW172852  13.276   8.448   0.507
23671SOL    HW272853  13.349   8.507   0.388
23672SOL     OW72854   9.023   2.745  12.584
23672SOL    HW172855   9.020   2.840  12.580
23672SOL    HW272856   8.932   2.717  12.583
23673SOL     OW72857   1.811   1.089   2.158
23673SOL    HW172858   1.902   1.073   2.184
23673SOL    HW272859   1.808   1.183   2.139
23674SOL     OW72860   4.507  14.224   5.956
23674SOL    HW172861   4.442  14.160   5.927
23674SOL    HW272862   4.460  14.307   5.960
23675SOL     OW72863   9.617  13.241  12.317
23675SOL    HW172864   9.683  13.289  12.367
23675SOL    HW272865   9.667  13.189  12.255
23676SOL     OW72866  11.860   1.742   7.743
23676SOL    HW172867  11.788   1.803   7.759
23676SOL    HW272868  11.840   1.705   7.657
23677SOL     OW72869   5.206   8.618  13.764
23677SOL    HW172870   5.167   8.675  13.697
23677SOL    HW272871   5.284   8.666  13.793
23678SOL     OW72872  14.037   0.798  14.816
23678SOL    HW172873  13.979   0.826  14.745
23678SOL    HW272874  14.079   0.719  14.783
23679SOL     OW72875   8.762   3.571   2.248
23679SOL    HW172876   8.674   3.572   2.210
23679SOL    HW272877   8.819   3.544   2.176
23680SOL     OW72878   5.675  14.443  10.246
23680SOL    HW172879   5.713  14.363  10.282
23680SOL    HW272880   5.608  14.468  10.309
23681SOL     OW72881  10.538   3.194   1.595
23681SOL    HW172882  10.509   3.284   1.578
23681SOL    HW272883  10.550   3.191   1.690
23682SOL     OW72884   5.981   1.549   6.794
23682SOL    HW172885   5.929   1.490   6.849
23682SOL    HW272886   6.069   1.512   6.794
23683SOL     OW72887   6.177   6.139   6.472
23683SOL    HW172888   6.228   6.187   6.537
23683SOL    HW272889   6.190   6.188   6.391
23684SOL     OW72890   6.897  10.253   6.646
23684SOL    HW172891   6.956  10.296   6.584
23684SOL    HW272892   6.841  10.198   6.592
23685SOL     OW72893  12.504   9.820   1.116
23685SOL    HW172894  12.595   9.792   1.101
23685SOL    HW272895  12.502   9.912   1.090
23686SOL     OW72896   9.310   0.388   4.076
23686SOL    HW172897   9.225   0.371   4.119
23686SOL    HW272898   9.342   0.468   4.118
23687SOL     OW72899  11.645  14.016   3.221
23687SOL    HW172900  11.719  14.001   3.163
23687SOL    HW272901  11.616  13.929   3.248
23688SOL     OW72902   8.495   5.239   8.223
23688SOL    HW172903   8.468   5.331   8.226
23688SOL    HW272904   8.547   5.231   8.143
23689SOL     OW72905  14.617   4.699   2.067
23689SOL    HW172906  14.642   4.651   1.988
23689SOL    HW272907  14.601   4.631   2.132
23690SOL     OW72908   1.426   0.114   4.097
23690SOL    HW172909   1.449   0.184   4.158
23690SOL    HW272910   1.455   0.146   4.012
23691SOL     OW72911   9.270   8.128  11.353
23691SOL    HW172912   9.330   8.068  11.310
23691SOL    HW272913   9.186   8.082  11.354
23692SOL     OW72914   8.556   1.505  10.567
23692SOL    HW172915   8.637   1.478  10.525
23692SOL    HW272916   8.571   1.490  10.660
23693SOL     OW72917   6.667  10.281  10.020
23693SOL    HW172918   6.703  10.357  10.066
23693SOL    HW272919   6.573  10.299  10.015
23694SOL     OW72920   1.953  14.686   5.612
23694SOL    HW172921   1.910  14.638   5.541
23694SOL    HW272922   1.961  14.623   5.683
23695SOL     OW72923   4.117   0.068   2.181
23695SOL    HW172924   4.046   0.122   2.145
23695SOL    HW272925   4.127  14.870   2.118
23696SOL     OW72926   0.895  11.963   1.445
23696SOL    HW172927   0.817  11.929   1.400
23696SOL    HW272928   0.946  12.005   1.376
23697SOL     OW72929   0.861   3.643   8.302
23697SOL    HW172930   0.896   3.660   8.389
23697SOL    HW272931   0.786   3.702   8.294
23698SOL     OW72932  14.500   7.031   5.759
23698SOL    HW172933  14.506   7.122   5.788
23698SOL    HW272934  14.553   7.028   5.679
23699SOL     OW72935   7.276   6.738  10.117
23699SOL    HW172936   7.331   6.764  10.042
23699SOL    HW272937   7.206   6.803  10.119
23700SOL     OW72938  11.311   9.301   4.486
23700SOL    HW172939  11.296   9.227   4.544
23700SOL    HW272940  11.284   9.270   4.399
23701SOL     OW72941   2.187   5.924   7.446
23701SOL    HW172942   2.133   5.879   7.510
23701SOL    HW272943   2.202   6.011   7.484
23702SOL     OW72944   9.442   9.574   4.931
23702SOL    HW172945   9.474   9.573   4.841
23702SOL    HW272946   9.464   9.487   4.966
23703SOL     OW72947   6.397  10.483   3.858
23703SOL    HW172948   6.473  10.425   3.850
23703SOL    HW272949   6.406  10.523   3.945
23704SOL     OW72950   0.848  13.476  10.349
23704SOL    HW172951   0.856  13.555  10.296
23704SOL    HW272952   0.891  13.408  10.297
23705SOL     OW72953   1.392  10.380   4.162
23705SOL    HW172954   1.475  10.333   4.172
23705SOL    HW272955   1.417  10.468   4.133
23706SOL     OW72956   7.857   1.984   0.003
23706SOL    HW172957   7.905   1.967   0.084
23706SOL    HW272958   7.781   1.925   0.008
23707SOL     OW72959   9.068   4.085  12.072
23707SOL    HW172960   9.037   4.033  12.146
23707SOL    HW272961   8.989   4.100  12.019
23708SOL     OW72962  14.805  12.846  10.130
23708SOL    HW172963  14.843  12.784  10.192
23708SOL    HW272964  14.823  12.808  10.044
23709SOL     OW72965   0.008   6.900  11.898
23709SOL    HW172966   0.085   6.944  11.863
23709SOL    HW272967  14.870   6.823  11.843
23710SOL     OW72968  13.784   8.941   1.899
23710SOL    HW172969  13.715   9.002   1.925
23710SOL    HW272970  13.826   8.983   1.824
23711SOL     OW72971   2.476   9.955   4.601
23711SOL    HW172972   2.436   9.889   4.658
23711SOL    HW272973   2.477  10.035   4.653
23712SOL     OW72974  10.549   5.728   3.646
23712SOL    HW172975  10.488   5.772   3.586
23712SOL    HW272976  10.632   5.774   3.632
23713SOL     OW72977   9.825   4.087  10.998
23713SOL    HW172978   9.877   4.088  11.078
23713SOL    HW272979   9.734   4.077  11.029
23714SOL     OW72980   1.444   8.905  14.180
23714SOL    HW172981   1.436   9.001  14.173
23714SOL    HW272982   1.443   8.875  14.090
23715SOL     OW72983   8.991  14.048   7.676
23715SOL    HW172984   8.953  14.136   7.675
23715SOL    HW272985   9.066  14.056   7.735
23716SOL     OW72986   7.175  14.785   4.011
23716SOL    HW172987   7.147  14.805   4.100
23716SOL    HW272988   7.183  14.871   3.969
23717SOL     OW72989   7.879  14.044   7.678
23717SOL    HW172990   7.787  14.067   7.686
23717SOL    HW272991   7.908  14.087   7.597
23718SOL     OW72992   3.631   0.659   1.136
23718SOL    HW172993   3.582   0.582   1.164
23718SOL    HW272994   3.636   0.651   1.040
23719SOL     OW72995  12.249  12.389  14.002
23719SOL    HW172996  12.253  12.315  13.941
23719SOL    HW272997  12.271  12.465  13.948
23720SOL     OW72998  11.732   5.083   7.106
23720SOL    HW172999  11.757   5.118   7.192
23720SOL    HW273000  11.713   5.161   7.053
23721SOL     OW73001  13.083   6.291  13.549
23721SOL    HW173002  13.140   6.366  13.567
23721SOL    HW273003  13.058   6.301  13.458
23722SOL     OW73004   2.684   4.696   4.180
23722SOL    HW173005   2.601   4.667   4.142
23722SOL    HW273006   2.662   4.776   4.228
23723SOL     OW73007   7.679   6.448   2.232
23723SOL    HW173008   7.737   6.462   2.306
23723SOL    HW273009   7.670   6.353   2.226
23724SOL     OW73010  12.460   2.528   2.077
23724SOL    HW173011  12.497   2.611   2.045
23724SOL    HW273012  12.382   2.555   2.126
23725SOL     OW73013  10.804  12.458  13.905
23725SOL    HW173014  10.877  12.519  13.914
23725SOL    HW273015  10.769  12.474  13.818
23726SOL     OW73016   9.966  10.811  11.573
23726SOL    HW173017   9.921  10.895  11.563
23726SOL    HW273018  10.014  10.800  11.491
23727SOL     OW73019  13.853  10.229  10.152
23727SOL    HW173020  13.762  10.200  10.147
23727SOL    HW273021  13.882  10.202  10.240
23728SOL     OW73022   4.199   8.584   6.435
23728SOL    HW173023   4.126   8.547   6.385
23728SOL    HW273024   4.213   8.671   6.397
23729SOL     OW73025   8.487   3.793  11.982
23729SOL    HW173026   8.544   3.869  11.967
23729SOL    HW273027   8.400   3.831  11.995
23730SOL     OW73028  11.223  14.406   2.117
23730SOL    HW173029  11.279  14.464   2.168
23730SOL    HW273030  11.189  14.460   2.046
23731SOL     OW73031  14.348   0.342   6.287
23731SOL    HW173032  14.374   0.341   6.379
23731SOL    HW273033  14.257   0.372   6.289
23732SOL     OW73034   9.460  13.412   0.595
23732SOL    HW173035   9.497  13.479   0.652
23732SOL    HW273036   9.502  13.331   0.623
23733SOL     OW73037  13.504   2.964  11.681
23733SOL    HW173038  13.428   2.969  11.739
23733SOL    HW273039  13.472   2.999  11.597
23734SOL     OW73040   5.053   8.305  10.468
23734SOL    HW173041   4.979   8.274  10.520
23734SOL    HW273042   5.067   8.395  10.498
23735SOL     OW73043   8.935   4.559   0.675
23735SOL    HW173044   8.962   4.636   0.625
23735SOL    HW273045   8.992   4.489   0.642
23736SOL     OW73046   0.060   0.565  10.923
23736SOL    HW173047   0.010   0.619  10.984
23736SOL    HW273048   0.148   0.560  10.961
23737SOL     OW73049   3.850   6.526   8.371
23737SOL    HW173050   3.812   6.503   8.456
23737SOL    HW273051   3.842   6.445   8.319
23738SOL     OW73052  11.031   4.408   7.629
23738SOL    HW173053  11.022   4.378   7.538
23738SOL    HW273054  11.084   4.341   7.671
23739SOL     OW73055   2.491   3.151  13.375
23739SOL    HW173056   2.450   3.066  13.363
23739SOL    HW273057   2.566   3.150  13.315
23740SOL     OW73058   0.403   7.055  14.357
23740SOL    HW173059   0.386   7.090  14.270
23740SOL    HW273060   0.489   7.090  14.380
23741SOL     OW73061   7.555   2.536  10.106
23741SOL    HW173062   7.635   2.525  10.157
23741SOL    HW273063   7.573   2.609  10.048
23742SOL     OW73064   9.643   7.088  11.817
23742SOL    HW173065   9.578   7.085  11.747
23742SOL    HW273066   9.678   6.999  11.820
23743SOL     OW73067   0.588   5.971   9.953
23743SOL    HW173068   0.616   6.018   9.874
23743SOL    HW273069   0.596   5.879   9.929
23744SOL     OW73070  13.711  11.589  12.903
23744SOL    HW173071  13.710  11.540  12.986
23744SOL    HW273072  13.662  11.669  12.923
23745SOL     OW73073  10.733  12.873   5.404
23745SOL    HW173074  10.646  12.836   5.391
23745SOL    HW273075  10.728  12.913   5.491
23746SOL     OW73076   3.354  11.924   8.832
23746SOL    HW173077   3.441  11.938   8.869
23746SOL    HW273078   3.297  11.985   8.879
23747SOL     OW73079   7.079   1.318   3.744
23747SOL    HW173080   7.063   1.232   3.782
23747SOL    HW273081   6.993   1.348   3.715
23748SOL     OW73082   2.836   8.370   2.949
23748SOL    HW173083   2.889   8.449   2.959
23748SOL    HW273084   2.788   8.363   3.031
23749SOL     OW73085   8.489   0.653   2.071
23749SOL    HW173086   8.457   0.705   2.144
23749SOL    HW273087   8.450   0.695   1.994
23750SOL     OW73088   9.440   1.084  10.173
23750SOL    HW173089   9.416   1.123  10.089
23750SOL    HW273090   9.461   0.993  10.152
23751SOL     OW73091   0.409  13.193  13.646
23751SOL    HW173092   0.430  13.186  13.553
23751SOL    HW273093   0.422  13.105  13.681
23752SOL     OW73094   4.083   4.662   0.262
23752SOL    HW173095   4.027   4.738   0.246
23752SOL    HW273096   4.156   4.697   0.313
23753SOL     OW73097   0.287  14.179   4.947
23753SOL    HW173098   0.236  14.229   5.010
23753SOL    HW273099   0.355  14.136   4.999
23754SOL     OW73100   8.130   3.100   4.566
23754SOL    HW173101   8.184   3.134   4.637
23754SOL    HW273102   8.185   3.033   4.525
23755SOL     OW73103  10.128   3.426   8.939
23755SOL    HW173104  10.036   3.449   8.950
23755SOL    HW273105  10.137   3.341   8.983
23756SOL     OW73106   6.344   3.360   5.280
23756SOL    HW173107   6.390   3.350   5.363
23756SOL    HW273108   6.381   3.440   5.241
23757SOL     OW73109   5.182   8.512  12.601
23757SOL    HW173110   5.269   8.551  12.594
23757SOL    HW273111   5.131   8.554  12.532
23758SOL     OW73112   9.922  12.509  10.369
23758SOL    HW173113   9.904  12.603  10.377
23758SOL    HW273114   9.941  12.480  10.458
23759SOL     OW73115  14.459  10.813   3.351
23759SOL    HW173116  14.409  10.892   3.369
23759SOL    HW273117  14.440  10.755   3.425
23760SOL     OW73118   9.550   8.411  14.117
23760SOL    HW173119   9.621   8.388  14.057
23760SOL    HW273120   9.595   8.445  14.195
23761SOL     OW73121   2.270   2.628  11.509
23761SOL    HW173122   2.207   2.691  11.543
23761SOL    HW273123   2.344   2.682  11.478
23762SOL     OW73124   9.249  12.741   0.658
23762SOL    HW173125   9.342  12.733   0.640
23762SOL    HW273126   9.243  12.807   0.728
23763SOL     OW73127   2.218   7.943   4.851
23763SOL    HW173128   2.249   7.998   4.779
23763SOL    HW273129   2.251   7.985   4.930
23764SOL     OW73130  11.281   3.506  10.655
23764SOL    HW173131  11.267   3.501  10.560
23764SOL    HW273132  11.195   3.486  10.692
23765SOL     OW73133   6.797   9.108   2.487
23765SOL    HW173134   6.887   9.120   2.516
23765SOL    HW273135   6.783   9.014   2.485
23766SOL     OW73136   2.263  14.389  11.023
23766SOL    HW173137   2.348  14.353  11.049
23766SOL    HW273138   2.283  14.441  10.944
23767SOL     OW73139  14.696   6.621   5.792
23767SOL    HW173140  14.725   6.577   5.713
23767SOL    HW273141  14.751   6.586   5.861
23768SOL     OW73142  12.230   3.307  14.585
23768SOL    HW173143  12.301   3.255  14.545
23768SOL    HW273144  12.176   3.334  14.510
23769SOL     OW73145   7.828  14.091   5.587
23769SOL    HW173146   7.839  14.055   5.675
23769SOL    HW273147   7.833  14.186   5.600
23770SOL     OW73148   9.181   3.014  12.459
23770SOL    HW173149   9.109   3.072  12.435
23770SOL    HW273150   9.257   3.049  12.414
23771SOL     OW73151   3.222  10.012   2.951
23771SOL    HW173152   3.243  10.105   2.943
23771SOL    HW273153   3.304   9.971   2.977
23772SOL     OW73154  11.829   6.976  11.098
23772SOL    HW173155  11.746   7.023  11.096
23772SOL    HW273156  11.896   7.044  11.091
23773SOL     OW73157  14.235  14.132   5.902
23773SOL    HW173158  14.296  14.068   5.940
23773SOL    HW273159  14.168  14.144   5.970
23774SOL     OW73160  14.620   6.832   9.915
23774SOL    HW173161  14.667   6.886   9.979
23774SOL    HW273162  14.538   6.879   9.901
23775SOL     OW73163   3.674   6.566   6.913
23775SOL    HW173164   3.659   6.483   6.959
23775SOL    HW273165   3.587   6.596   6.889
23776SOL     OW73166   0.240   3.364   8.115
23776SOL    HW173167   0.148   3.355   8.138
23776SOL    HW273168   0.282   3.393   8.196
23777SOL     OW73169   6.143   0.872   5.882
23777SOL    HW173170   6.211   0.936   5.860
23777SOL    HW273171   6.068   0.926   5.907
23778SOL     OW73172   0.306  11.483  10.647
23778SOL    HW173173   0.261  11.415  10.697
23778SOL    HW273174   0.292  11.563  10.697
23779SOL     OW73175   7.460  11.613  10.167
23779SOL    HW173176   7.547  11.594  10.201
23779SOL    HW273177   7.401  11.580  10.235
23780SOL     OW73178   1.573   2.498  10.325
23780SOL    HW173179   1.525   2.505  10.408
23780SOL    HW273180   1.521   2.549  10.263
23781SOL     OW73181   5.469  12.504   6.566
23781SOL    HW173182   5.486  12.528   6.657
23781SOL    HW273183   5.385  12.546   6.546
23782SOL     OW73184   2.867   0.939  10.115
23782SOL    HW173185   2.955   0.971  10.132
23782SOL    HW273186   2.847   0.882  10.190
23783SOL     OW73187  12.208   7.695   1.322
23783SOL    HW173188  12.217   7.787   1.297
23783SOL    HW273189  12.284   7.677   1.378
23784SOL     OW73190  14.641   2.728  13.997
23784SOL    HW173191  14.606   2.792  13.936
23784SOL    HW273192  14.719   2.770  14.034
23785SOL     OW73193   8.965  14.463   7.044
23785SOL    HW173194   8.945  14.523   6.972
23785SOL    HW273195   8.995  14.519   7.115
23786SOL     OW73196  11.924   4.114   4.085
23786SOL    HW173197  11.931   4.182   4.152
23786SOL    HW273198  11.959   4.155   4.005
23787SOL     OW73199   9.824   7.482   9.953
23787SOL    HW173200   9.743   7.444   9.920
23787SOL    HW273201   9.854   7.539   9.881
23788SOL     OW73202  11.113  14.785  13.891
23788SOL    HW173203  11.144  14.766  13.979
23788SOL    HW273204  11.178  14.846  13.856
23789SOL     OW73205   4.288   5.487   9.152
23789SOL    HW173206   4.227   5.501   9.079
23789SOL    HW273207   4.373   5.518   9.119
23790SOL     OW73208  12.506   3.780   7.772
23790SOL    HW173209  12.527   3.872   7.753
23790SOL    HW273210  12.420   3.783   7.813
23791SOL     OW73211   5.128   6.467   9.392
23791SOL    HW173212   5.084   6.458   9.477
23791SOL    HW273213   5.219   6.441   9.410
23792SOL     OW73214  14.500   5.196   5.482
23792SOL    HW173215  14.508   5.110   5.523
23792SOL    HW273216  14.581   5.207   5.433
23793SOL     OW73217  10.536   8.448   2.091
23793SOL    HW173218  10.546   8.354   2.075
23793SOL    HW273219  10.568   8.490   2.011
23794SOL     OW73220  10.811   7.334   0.412
23794SOL    HW173221  10.725   7.371   0.428
23794SOL    HW273222  10.870   7.384   0.468
23795SOL     OW73223   4.737  11.692   9.328
23795SOL    HW173224   4.657  11.659   9.370
23795SOL    HW273225   4.774  11.616   9.284
23796SOL     OW73226  14.511   8.496  11.807
23796SOL    HW173227  14.420   8.467  11.802
23796SOL    HW273228  14.550   8.466  11.725
23797SOL     OW73229  14.337   0.520   5.904
23797SOL    HW173230  14.418   0.523   5.853
23797SOL    HW273231  14.341   0.437   5.951
23798SOL     OW73232   6.855   3.935   2.564
23798SOL    HW173233   6.887   3.989   2.493
23798SOL    HW273234   6.920   3.866   2.574
23799SOL     OW73235   6.557  13.206  10.915
23799SOL    HW173236   6.512  13.125  10.893
23799SOL    HW273237   6.633  13.178  10.966
23800SOL     OW73238   5.085   5.164   9.367
23800SOL    HW173239   4.994   5.178   9.390
23800SOL    HW273240   5.094   5.199   9.279
23801SOL     OW73241  13.173   4.657   1.367
23801SOL    HW173242  13.111   4.664   1.440
23801SOL    HW273243  13.159   4.569   1.333
23802SOL     OW73244   7.938   0.122   4.509
23802SOL    HW173245   7.973   0.082   4.430
23802SOL    HW273246   7.997   0.194   4.528
23803SOL     OW73247   8.730   6.584   2.314
23803SOL    HW173248   8.678   6.508   2.289
23803SOL    HW273249   8.698   6.607   2.401
23804SOL     OW73250   2.134   5.893   1.642
23804SOL    HW173251   2.214   5.867   1.688
23804SOL    HW273252   2.159   5.973   1.595
23805SOL     OW73253   5.460   5.179  10.804
23805SOL    HW173254   5.521   5.240  10.762
23805SOL    HW273255   5.494   5.168  10.893
23806SOL     OW73256   0.019   3.359   1.827
23806SOL    HW173257  14.836   3.415   1.880
23806SOL    HW273258   0.080   3.320   1.889
23807SOL     OW73259   8.327   9.084   6.237
23807SOL    HW173260   8.351   8.997   6.270
23807SOL    HW273261   8.371   9.090   6.152
23808SOL     OW73262  11.237   1.874   1.231
23808SOL    HW173263  11.239   1.834   1.144
23808SOL    HW273264  11.323   1.915   1.240
23809SOL     OW73265  10.707  10.421   0.141
23809SOL    HW173266  10.629  10.427   0.196
23809SOL    HW273267  10.684  10.468   0.061
23810SOL     OW73268  10.959   1.227  10.902
23810SOL    HW173269  10.916   1.297  10.853
23810SOL    HW273270  11.046   1.262  10.923
23811SOL     OW73271   5.105  14.392  13.107
23811SOL    HW173272   5.113  14.487  13.114
23811SOL    HW273273   5.090  14.362  13.196
23812SOL     OW73274  14.126   3.347  10.347
23812SOL    HW173275  14.045   3.398  10.355
23812SOL    HW273276  14.110   3.268  10.397
23813SOL     OW73277   0.325  13.687   0.561
23813SOL    HW173278   0.420  13.674   0.558
23813SOL    HW273279   0.315  13.780   0.583
23814SOL     OW73280   2.532   1.469   5.217
23814SOL    HW173281   2.489   1.498   5.137
23814SOL    HW273282   2.553   1.377   5.201
23815SOL     OW73283  14.798   1.717   0.903
23815SOL    HW173284   0.001   1.732   0.847
23815SOL    HW273285  14.724   1.713   0.842
23816SOL     OW73286   1.078  11.125   7.159
23816SOL    HW173287   1.062  11.105   7.251
23816SOL    HW273288   0.997  11.100   7.115
23817SOL     OW73289   2.488   3.764  10.810
23817SOL    HW173290   2.415   3.821  10.783
23817SOL    HW273291   2.559   3.788  10.752
23818SOL     OW73292  10.920  13.672   5.665
23818SOL    HW173293  10.981  13.701   5.733
23818SOL    HW273294  10.896  13.583   5.691
23819SOL     OW73295  12.637   9.654   1.731
23819SOL    HW173296  12.664   9.574   1.775
23819SOL    HW273297  12.679   9.724   1.782
23820SOL     OW73298   4.366   5.464   5.641
23820SOL    HW173299   4.294   5.403   5.652
23820SOL    HW273300   4.402   5.444   5.554
23821SOL     OW73301  11.016   2.298   6.086
23821SOL    HW173302  10.997   2.328   5.997
23821SOL    HW273303  11.063   2.371   6.127
23822SOL     OW73304   0.611   3.692   6.966
23822SOL    HW173305   0.635   3.659   6.879
23822SOL    HW273306   0.686   3.671   7.021
23823SOL     OW73307   9.742   2.262   7.372
23823SOL    HW173308   9.709   2.315   7.300
23823SOL    HW273309   9.695   2.179   7.365
23824SOL     OW73310  10.354   5.989   0.022
23824SOL    HW173311  10.416   5.939   0.075
23824SOL    HW273312  10.298   6.034   0.086
23825SOL     OW73313   8.687   9.892   1.046
23825SOL    HW173314   8.737   9.814   1.070
23825SOL    HW273315   8.662   9.877   0.954
23826SOL     OW73316   8.017  12.618   0.648
23826SOL    HW173317   7.938  12.624   0.595
23826SOL    HW273318   8.086  12.656   0.594
23827SOL     OW73319  10.810   8.695   4.404
23827SOL    HW173320  10.839   8.774   4.358
23827SOL    HW273321  10.886   8.638   4.404
23828SOL     OW73322  12.901  10.305   0.015
23828SOL    HW173323  12.882  10.373   0.081
23828SOL    HW273324  12.940  10.353  14.815
23829SOL     OW73325   4.242   1.868   1.102
23829SOL    HW173326   4.148   1.855   1.097
23829SOL    HW273327   4.272   1.863   1.011
23830SOL     OW73328  13.625   6.832   3.723
23830SOL    HW173329  13.676   6.837   3.804
23830SOL    HW273330  13.641   6.917   3.680
23831SOL     OW73331   5.433   6.310   8.580
23831SOL    HW173332   5.505   6.266   8.534
23831SOL    HW273333   5.364   6.318   8.514
23832SOL     OW73334   8.556  10.394  13.163
23832SOL    HW173335   8.527  10.315  13.119
23832SOL    HW273336   8.542  10.377  13.256
23833SOL     OW73337  13.426  13.726   7.187
23833SOL    HW173338  13.384  13.695   7.267
23833SOL    HW273339  13.366  13.793   7.154
23834SOL     OW73340   5.269   0.291   0.445
23834SOL    HW173341   5.327   0.307   0.519
23834SOL    HW273342   5.195   0.243   0.482
23835SOL     OW73343  12.843   9.496  14.712
23835SOL    HW173344  12.882   9.471  14.628
23835SOL    HW273345  12.819   9.588  14.700
23836SOL     OW73346   2.117   9.343  12.457
23836SOL    HW173347   2.203   9.385  12.445
23836SOL    HW273348   2.060   9.386  12.393
23837SOL     OW73349  14.717   4.009  11.408
23837SOL    HW173350  14.771   3.931  11.389
23837SOL    HW273351  14.750   4.041  11.492
23838SOL     OW73352   4.263  12.625   7.625
23838SOL    HW173353   4.298  12.538   7.608
23838SOL    HW273354   4.179  12.609   7.670
23839SOL     OW73355   1.914  12.941   1.886
23839SOL    HW173356   1.901  13.034   1.906
23839SOL    HW273357   1.834  12.899   1.917
23840SOL     OW73358   7.956  10.573   5.658
23840SOL    HW173359   8.004  10.493   5.679
23840SOL    HW273360   7.986  10.596   5.570
23841SOL     OW73361  12.093  14.740   8.763
23841SOL    HW173362  12.181  14.744   8.726
23841SOL    HW273363  12.087  14.653   8.802
23842SOL     OW73364   5.020  12.843   1.973
23842SOL    HW173365   4.980  12.930   1.965
23842SOL    HW273366   4.951  12.788   2.008
23843SOL     OW73367  11.535   8.615   4.425
23843SOL    HW173368  11.550   8.520   4.432
23843SOL    HW273369  11.538   8.646   4.516
23844SOL     OW73370   0.897  14.668  11.610
23844SOL    HW173371   0.881  14.761  11.597
23844SOL    HW273372   0.896  14.631  11.522
23845SOL     OW73373   8.161  11.851   5.944
23845SOL    HW173374   8.224  11.920   5.960
23845SOL    HW273375   8.212  11.770   5.948
23846SOL     OW73376  11.811   8.558   4.440
23846SOL    HW173377  11.718   8.581   4.447
23846SOL    HW273378  11.853   8.639   4.410
23847SOL     OW73379   3.916   9.854   8.617
23847SOL    HW173380   3.830   9.827   8.647
23847SOL    HW273381   3.977   9.817   8.682
23848SOL     OW73382   0.581   5.232   1.027
23848SOL    HW173383   0.659   5.196   0.984
23848SOL    HW273384   0.556   5.165   1.090
23849SOL     OW73385   3.793   4.602  13.498
23849SOL    HW173386   3.766   4.590  13.589
23849SOL    HW273387   3.723   4.654  13.459
23850SOL     OW73388   3.321   6.115  14.186
23850SOL    HW173389   3.311   6.176  14.260
23850SOL    HW273390   3.380   6.160  14.126
23851SOL     OW73391   4.140   7.603   8.557
23851SOL    HW173392   4.173   7.531   8.611
23851SOL    HW273393   4.061   7.632   8.601
23852SOL     OW73394  14.439   2.946   8.525
23852SOL    HW173395  14.488   2.870   8.496
23852SOL    HW273396  14.435   2.938   8.620
23853SOL     OW73397   6.733   8.915   3.066
23853SOL    HW173398   6.764   8.921   2.976
23853SOL    HW273399   6.736   9.005   3.098
23854SOL     OW73400  11.406   0.801  11.188
23854SOL    HW173401  11.403   0.706  11.198
23854SOL    HW273402  11.499   0.823  11.199
23855SOL     OW73403   7.598  14.191  13.437
23855SOL    HW173404   7.594  14.283  13.410
23855SOL    HW273405   7.643  14.192  13.521
23856SOL     OW73406  13.585   8.633   5.582
23856SOL    HW173407  13.654   8.567   5.585
23856SOL    HW273408  13.504   8.583   5.572
23857SOL     OW73409   0.819   5.659   0.543
23857SOL    HW173410   0.838   5.645   0.636
23857SOL    HW273411   0.766   5.739   0.541
23858SOL     OW73412  10.372   0.999   3.462
23858SOL    HW173413  10.304   1.016   3.528
23858SOL    HW273414  10.328   0.948   3.394
23859SOL     OW73415   8.228   6.127  12.550
23859SOL    HW173416   8.190   6.069  12.484
23859SOL    HW273417   8.174   6.115  12.628
23860SOL     OW73418   8.004  13.697   4.220
23860SOL    HW173419   7.951  13.621   4.197
23860SOL    HW273420   8.076  13.662   4.271
23861SOL     OW73421  13.283   0.469   7.833
23861SOL    HW173422  13.241   0.427   7.908
23861SOL    HW273423  13.376   0.460   7.849
23862SOL     OW73424  10.148  10.230  13.260
23862SOL    HW173425  10.070  10.241  13.315
23862SOL    HW273426  10.114  10.230  13.171
23863SOL     OW73427  14.452  10.937  12.410
23863SOL    HW173428  14.415  10.859  12.452
23863SOL    HW273429  14.539  10.909  12.382
23864SOL     OW73430   8.487   6.689  11.345
23864SOL    HW173431   8.447   6.760  11.395
23864SOL    HW273432   8.435   6.612  11.367
23865SOL     OW73433   2.204   3.002   4.007
23865SOL    HW173434   2.213   3.063   3.934
23865SOL    HW273435   2.113   2.973   4.003
23866SOL     OW73436   3.053   1.931  14.101
23866SOL    HW173437   3.026   2.020  14.125
23866SOL    HW273438   2.972   1.887  14.075
23867SOL     OW73439   0.131  12.793  10.553
23867SOL    HW173440   0.091  12.714  10.590
23867SOL    HW273441   0.192  12.823  10.621
23868SOL     OW73442   9.620   3.168  10.922
23868SOL    HW173443   9.603   3.233  10.991
23868SOL    HW273444   9.674   3.102  10.965
23869SOL     OW73445   6.822   5.339   4.300
23869SOL    HW173446   6.745   5.282   4.304
23869SOL    HW273447   6.875   5.313   4.375
23870SOL     OW73448   2.502   7.602   6.951
23870SOL    HW173449   2.426   7.608   7.009
23870SOL    HW273450   2.466   7.608   6.863
23871SOL     OW73451   0.169   3.899  10.762
23871SOL    HW173452   0.127   3.922  10.680
23871SOL    HW273453   0.098   3.873  10.820
23872SOL     OW73454   3.065   1.480   0.665
23872SOL    HW173455   3.066   1.482   0.761
23872SOL    HW273456   2.978   1.447   0.643
23873SOL     OW73457   8.505   9.996   6.339
23873SOL    HW173458   8.548   9.910   6.339
23873SOL    HW273459   8.493  10.017   6.247
23874SOL     OW73460   9.724  11.540  14.502
23874SOL    HW173461   9.675  11.459  14.517
23874SOL    HW273462   9.658  11.609  14.503
23875SOL     OW73463   2.419   4.584  14.151
23875SOL    HW173464   2.381   4.596  14.063
23875SOL    HW273465   2.513   4.594  14.137
23876SOL     OW73466   3.904  10.540   2.834
23876SOL    HW173467   3.856  10.472   2.788
23876SOL    HW273468   3.995  10.512   2.831
23877SOL     OW73469   2.731   0.991   3.020
23877SOL    HW173470   2.756   1.004   2.928
23877SOL    HW273471   2.730   0.896   3.031
23878SOL     OW73472  13.981   8.592   4.301
23878SOL    HW173473  13.950   8.602   4.391
23878SOL    HW273474  13.934   8.516   4.267
23879SOL     OW73475   6.746  10.072   2.914
23879SOL    HW173476   6.829  10.120   2.915
23879SOL    HW273477   6.743  10.032   2.827
23880SOL     OW73478   3.261   6.153   5.731
23880SOL    HW173479   3.281   6.075   5.679
23880SOL    HW273480   3.184   6.129   5.782
23881SOL     OW73481   6.501   4.789   6.189
23881SOL    HW173482   6.531   4.865   6.139
23881SOL    HW273483   6.473   4.726   6.123
23882SOL     OW73484   9.505   4.558   3.093
23882SOL    HW173485   9.440   4.593   3.154
23882SOL    HW273486   9.470   4.580   3.006
23883SOL     OW73487   3.942  12.487   3.985
23883SOL    HW173488   3.919  12.575   3.953
23883SOL    HW273489   3.882  12.428   3.939
23884SOL     OW73490  13.169   9.836   5.140
23884SOL    HW173491  13.243   9.798   5.093
23884SOL    HW273492  13.092   9.805   5.091
23885SOL     OW73493  11.835   2.200   6.216
23885SOL    HW173494  11.786   2.278   6.187
23885SOL    HW273495  11.927   2.228   6.214
23886SOL     OW73496   8.208  10.695   3.623
23886SOL    HW173497   8.125  10.736   3.646
23886SOL    HW273498   8.229  10.638   3.697
23887SOL     OW73499   7.555   7.414   0.447
23887SOL    HW173500   7.565   7.508   0.460
23887SOL    HW273501   7.473   7.404   0.399
23888SOL     OW73502  11.559   9.407  11.118
23888SOL    HW173503  11.648   9.395  11.151
23888SOL    HW273504  11.524   9.480  11.168
23889SOL     OW73505   3.076   7.482   9.710
23889SOL    HW173506   3.072   7.565   9.663
23889SOL    HW273507   3.169   7.466   9.723
23890SOL     OW73508  13.503   0.647  14.243
23890SOL    HW173509  13.574   0.584  14.231
23890SOL    HW273510  13.547   0.730  14.261
23891SOL     OW73511  12.742   5.551  10.729
23891SOL    HW173512  12.712   5.462  10.743
23891SOL    HW273513  12.778   5.551  10.640
23892SOL     OW73514   6.750  13.902  10.052
23892SOL    HW173515   6.726  13.981  10.101
23892SOL    HW273516   6.741  13.832  10.116
23893SOL     OW73517   7.559  11.786   1.817
23893SOL    HW173518   7.644  11.829   1.803
23893SOL    HW273519   7.581  11.693   1.822
23894SOL     OW73520   0.449   7.537   0.149
23894SOL    HW173521   0.527   7.556   0.097
23894SOL    HW273522   0.440   7.442   0.147
23895SOL     OW73523  13.152   7.574   4.393
23895SOL    HW173524  13.094   7.506   4.359
23895SOL    HW273525  13.174   7.544   4.481
23896SOL     OW73526   3.002   4.683   7.507
23896SOL    HW173527   2.938   4.660   7.574
23896SOL    HW273528   2.964   4.759   7.462
23897SOL     OW73529   8.461  12.270  12.285
23897SOL    HW173530   8.379  12.235  12.319
23897SOL    HW273531   8.502  12.312  12.361
23898SOL     OW73532   0.988   6.055  13.790
23898SOL    HW173533   0.908   6.049  13.842
23898SOL    HW273534   0.991   6.146  13.759
23899SOL     OW73535   4.043   4.249   6.215
23899SOL    HW173536   4.052   4.327   6.270
23899SOL    HW273537   3.977   4.274   6.150
23900SOL     OW73538  13.274   9.572   2.675
23900SOL    HW173539  13.324   9.653   2.683
23900SOL    HW273540  13.242   9.572   2.584
23901SOL     OW73541   2.726   1.537   5.774
23901SOL    HW173542   2.741   1.453   5.730
23901SOL    HW273543   2.812   1.577   5.780
23902SOL     OW73544   3.829  11.363   2.933
23902SOL    HW173545   3.849  11.384   2.842
23902SOL    HW273546   3.884  11.422   2.984
23903SOL     OW73547   1.264   4.835   1.296
23903SOL    HW173548   1.187   4.783   1.318
23903SOL    HW273549   1.337   4.774   1.298
23904SOL     OW73550   5.318  12.583   8.533
23904SOL    HW173551   5.360  12.642   8.597
23904SOL    HW273552   5.372  12.504   8.534
23905SOL     OW73553   5.377   8.114   0.985
23905SOL    HW173554   5.461   8.121   0.941
23905SOL    HW273555   5.399   8.079   1.072
23906SOL     OW73556   5.938  10.363   8.763
23906SOL    HW173557   5.961  10.399   8.678
23906SOL    HW273558   5.843  10.373   8.769
23907SOL     OW73559   8.715   6.899   4.434
23907SOL    HW173560   8.712   6.816   4.483
23907SOL    HW273561   8.805   6.929   4.444
23908SOL     OW73562   3.816  14.026   2.130
23908SOL    HW173563   3.873  14.021   2.206
23908SOL    HW273564   3.782  14.116   2.131
23909SOL     OW73565  13.690  12.039   0.722
23909SOL    HW173566  13.601  12.028   0.689
23909SOL    HW273567  13.679  12.075   0.810
23910SOL     OW73568   1.460   4.545  12.968
23910SOL    HW173569   1.477   4.542  13.062
23910SOL    HW273570   1.485   4.634  12.941
23911SOL     OW73571   7.545  10.836  10.565
23911SOL    HW173572   7.549  10.820  10.471
23911SOL    HW273573   7.517  10.928  10.572
23912SOL     OW73574   7.183  12.135   8.906
23912SOL    HW173575   7.278  12.125   8.912
23912SOL    HW273576   7.170  12.224   8.875
23913SOL     OW73577   5.825   2.069   2.196
23913SOL    HW173578   5.804   1.995   2.140
23913SOL    HW273579   5.789   2.046   2.282
23914SOL     OW73580  13.069  11.019  14.463
23914SOL    HW173581  12.992  10.984  14.507
23914SOL    HW273582  13.073  10.971  14.381
23915SOL     OW73583   3.271   8.237   4.869
23915SOL    HW173584   3.288   8.277   4.954
23915SOL    HW273585   3.298   8.146   4.879
23916SOL     OW73586  11.663  10.862  12.452
23916SOL    HW173587  11.735  10.859  12.388
23916SOL    HW273588  11.705  10.889  12.534
23917SOL     OW73589   0.233   2.910   0.464
23917SOL    HW173590   0.197   2.841   0.409
23917SOL    HW273591   0.162   2.973   0.474
23918SOL     OW73592   2.380   8.912   2.043
23918SOL    HW173593   2.303   8.873   2.000
23918SOL    HW273594   2.395   8.994   1.995
23919SOL     OW73595   1.056  13.890   5.737
23919SOL    HW173596   0.983  13.829   5.749
23919SOL    HW273597   1.124  13.838   5.696
23920SOL     OW73598   8.812  13.474  11.368
23920SOL    HW173599   8.839  13.385  11.348
23920SOL    HW273600   8.891  13.527  11.355
23921SOL     OW73601  10.906   1.385   4.736
23921SOL    HW173602  10.831   1.327   4.727
23921SOL    HW273603  10.930   1.409   4.646
23922SOL     OW73604  11.173   4.230   7.787
23922SOL    HW173605  11.246   4.178   7.756
23922SOL    HW273606  11.213   4.308   7.825
23923SOL     OW73607  14.025  11.345   5.096
23923SOL    HW173608  13.982  11.402   5.160
23923SOL    HW273609  14.117  11.344   5.123
23924SOL     OW73610   0.752   2.277   9.717
23924SOL    HW173611   0.840   2.242   9.702
23924SOL    HW273612   0.761   2.331   9.796
23925SOL     OW73613   5.543  13.384  13.358
23925SOL    HW173614   5.615  13.363  13.298
23925SOL    HW273615   5.580  13.370  13.445
23926SOL     OW73616  11.436  10.259  14.789
23926SOL    HW173617  11.395  10.318  14.726
23926SOL    HW273618  11.501  10.211  14.738
23927SOL     OW73619   0.350   9.254   2.439
23927SOL    HW173620   0.420   9.245   2.503
23927SOL    HW273621   0.306   9.336   2.463
23928SOL     OW73622   6.926   6.087   7.486
23928SOL    HW173623   6.840   6.113   7.520
23928SOL    HW273624   6.931   5.993   7.503
23929SOL     OW73625   7.995   3.186   1.547
23929SOL    HW173626   8.005   3.187   1.642
23929SOL    HW273627   7.936   3.113   1.530
23930SOL     OW73628   6.565   8.860   4.739
23930SOL    HW173629   6.488   8.895   4.785
23930SOL    HW273630   6.633   8.854   4.806
23931SOL     OW73631   6.287   7.323  12.860
23931SOL    HW173632   6.309   7.293  12.772
23931SOL    HW273633   6.372   7.327  12.905
23932SOL     OW73634   8.440   9.994  11.541
23932SOL    HW173635   8.518  10.037  11.576
23932SOL    HW273636   8.380   9.986  11.616
23933SOL     OW73637  10.977  14.742   8.556
23933SOL    HW173638  10.959  14.675   8.621
23933SOL    HW273639  11.030  14.697   8.489
23934SOL     OW73640   3.616   6.692   8.562
23934SOL    HW173641   3.648   6.627   8.624
23934SOL    HW273642   3.652   6.775   8.593
23935SOL     OW73643   8.517   0.343   7.277
23935SOL    HW173644   8.579   0.415   7.284
23935SOL    HW273645   8.567   0.271   7.239
23936SOL     OW73646  12.116  10.262   1.251
23936SOL    HW173647  12.171  10.210   1.310
23936SOL    HW273648  12.028  10.254   1.287
23937SOL     OW73649   8.107   9.673   9.828
23937SOL    HW173650   8.023   9.704   9.796
23937SOL    HW273651   8.171   9.732   9.789
23938SOL     OW73652   0.895   8.483  11.239
23938SOL    HW173653   0.849   8.567  11.240
23938SOL    HW273654   0.988   8.506  11.234
23939SOL     OW73655   1.704   9.894   2.219
23939SOL    HW173656   1.704   9.989   2.231
23939SOL    HW273657   1.628   9.864   2.268
23940SOL     OW73658  11.881   4.522   6.958
23940SOL    HW173659  11.867   4.563   6.873
23940SOL    HW273660  11.794   4.497   6.988
23941SOL     OW73661  14.727  13.798   6.737
23941SOL    HW173662  14.785  13.724   6.756
23941SOL    HW273663  14.675  13.809   6.817
23942SOL     OW73664   3.984   2.974  14.845
23942SOL    HW173665   4.058   2.913  14.845
23942SOL    HW273666   3.913   2.926   0.015
23943SOL     OW73667   4.811   4.545   7.607
23943SOL    HW173668   4.741   4.544   7.541
23943SOL    HW273669   4.868   4.616   7.579
23944SOL     OW73670   4.460   7.451  14.119
23944SOL    HW173671   4.473   7.367  14.162
23944SOL    HW273672   4.377   7.442  14.073
23945SOL     OW73673   4.866  12.806   6.020
23945SOL    HW173674   4.813  12.805   6.100
23945SOL    HW273675   4.930  12.736   6.032
23946SOL     OW73676   4.367  14.651   4.836
23946SOL    HW173677   4.403  14.733   4.802
23946SOL    HW273678   4.355  14.597   4.758
23947SOL     OW73679   8.971   2.524  12.009
23947SOL    HW173680   9.011   2.439  11.992
23947SOL    HW273681   8.877   2.510  11.996
23948SOL     OW73682   0.378   6.227   6.665
23948SOL    HW173683   0.307   6.209   6.726
23948SOL    HW273684   0.433   6.291   6.710
23949SOL     OW73685  14.345   6.471  10.612
23949SOL    HW173686  14.312   6.449  10.699
23949SOL    HW273687  14.438   6.448  10.616
23950SOL     OW73688  10.554   2.277   5.916
23950SOL    HW173689  10.495   2.290   5.990
23950SOL    HW273690  10.641   2.296   5.950
23951SOL     OW73691  10.882  10.900   7.909
23951SOL    HW173692  10.924  10.820   7.942
23951SOL    HW273693  10.797  10.902   7.953
23952SOL     OW73694   9.960   5.499   5.302
23952SOL    HW173695   9.967   5.425   5.363
23952SOL    HW273696   9.926   5.460   5.221
23953SOL     OW73697   9.488   6.593   8.639
23953SOL    HW173698   9.534   6.518   8.601
23953SOL    HW273699   9.551   6.665   8.635
23954SOL     OW73700  10.607   4.298   3.533
23954SOL    HW173701  10.518   4.309   3.501
23954SOL    HW273702  10.634   4.385   3.562
23955SOL     OW73703  11.642   2.797   9.037
23955SOL    HW173704  11.601   2.717   9.005
23955SOL    HW273705  11.583   2.829   9.106
23956SOL     OW73706   7.386   5.977   9.615
23956SOL    HW173707   7.428   5.893   9.599
23956SOL    HW273708   7.298   5.954   9.645
23957SOL     OW73709   2.022   2.185   0.600
23957SOL    HW173710   2.048   2.152   0.686
23957SOL    HW273711   2.105   2.204   0.556
23958SOL     OW73712   1.848  14.150  10.796
23958SOL    HW173713   1.939  14.167  10.820
23958SOL    HW273714   1.801  14.146  10.879
23959SOL     OW73715  12.938   7.616  10.569
23959SOL    HW173716  12.882   7.597  10.644
23959SOL    HW273717  12.888   7.677  10.515
23960SOL     OW73718   2.742   8.133  14.814
23960SOL    HW173719   2.794   8.157   0.018
23960SOL    HW273720   2.662   8.095  14.850
23961SOL     OW73721  10.020   9.105  11.528
23961SOL    HW173722  10.084   9.099  11.458
23961SOL    HW273723  10.065   9.153  11.598
23962SOL     OW73724   6.482   3.823   7.985
23962SOL    HW173725   6.518   3.871   8.059
23962SOL    HW273726   6.464   3.891   7.919
23963SOL     OW73727  12.858  13.406   0.325
23963SOL    HW173728  12.775  13.361   0.342
23963SOL    HW273729  12.838  13.499   0.332
23964SOL     OW73730   0.492  13.211   1.173
23964SOL    HW173731   0.558  13.166   1.225
23964SOL    HW273732   0.426  13.240   1.236
23965SOL     OW73733   7.326   5.352  12.116
23965SOL    HW173734   7.325   5.263  12.083
23965SOL    HW273735   7.267   5.400  12.058
23966SOL     OW73736  10.615   8.047   6.074
23966SOL    HW173737  10.621   8.142   6.080
23966SOL    HW273738  10.687   8.015   6.128
23967SOL     OW73739  12.338   6.893   0.002
23967SOL    HW173740  12.322   6.814  14.824
23967SOL    HW273741  12.328   6.965  14.812
23968SOL     OW73742  14.739  13.376   3.089
23968SOL    HW173743  14.734  13.446   3.154
23968SOL    HW273744  14.711  13.416   3.007
23969SOL     OW73745   7.107   4.340   7.249
23969SOL    HW173746   7.039   4.407   7.262
23969SOL    HW273747   7.181   4.371   7.301
23970SOL     OW73748   7.271   8.255  12.103
23970SOL    HW173749   7.321   8.199  12.162
23970SOL    HW273750   7.285   8.343  12.137
23971SOL     OW73751   5.273  12.907   1.512
23971SOL    HW173752   5.246  12.828   1.465
23971SOL    HW273753   5.208  12.917   1.582
23972SOL     OW73754   1.501   6.123   9.922
23972SOL    HW173755   1.469   6.099   9.835
23972SOL    HW273756   1.437   6.083   9.982
23973SOL     OW73757  12.381   5.620   9.316
23973SOL    HW173758  12.345   5.546   9.267
23973SOL    HW273759  12.364   5.598   9.408
23974SOL     OW73760   8.569  10.793   5.638
23974SOL    HW173761   8.635  10.863   5.642
23974SOL    HW273762   8.534  10.789   5.727
23975SOL     OW73763   8.046  14.241   4.421
23975SOL    HW173764   7.989  14.169   4.448
23975SOL    HW273765   8.041  14.241   4.325
23976SOL     OW73766   3.401   5.530  12.584
23976SOL    HW173767   3.489   5.493  12.584
23976SOL    HW273768   3.387   5.562  12.673
23977SOL     OW73769   5.666   6.440  11.619
23977SOL    HW173770   5.571   6.453  11.615
23977SOL    HW273771   5.701   6.525  11.644
23978SOL     OW73772  11.229  14.260   8.382
23978SOL    HW173773  11.211  14.224   8.469
23978SOL    HW273774  11.257  14.350   8.398
23979SOL     OW73775   0.340   6.224   1.682
23979SOL    HW173776   0.332   6.248   1.590
23979SOL    HW273777   0.250   6.225   1.715
23980SOL     OW73778   8.874   8.806   3.720
23980SOL    HW173779   8.820   8.807   3.641
23980SOL    HW273780   8.890   8.714   3.738
23981SOL     OW73781  11.488   5.874   6.175
23981SOL    HW173782  11.555   5.832   6.230
23981SOL    HW273783  11.523   5.868   6.086
23982SOL     OW73784  13.533   1.132   4.432
23982SOL    HW173785  13.518   1.136   4.337
23982SOL    HW273786  13.489   1.052   4.460
23983SOL     OW73787   1.479   2.361   7.281
23983SOL    HW173788   1.511   2.278   7.245
23983SOL    HW273789   1.554   2.397   7.329
23984SOL     OW73790  13.257  11.126   4.940
23984SOL    HW173791  13.332  11.084   4.899
23984SOL    HW273792  13.182  11.074   4.912
23985SOL     OW73793  10.542  13.390  13.946
23985SOL    HW173794  10.531  13.409  14.040
23985SOL    HW273795  10.542  13.294  13.941
23986SOL     OW73796  14.815   7.031  10.982
23986SOL    HW173797  14.744   7.010  11.043
23986SOL    HW273798   0.000   7.088  11.032
23987SOL     OW73799  14.853   3.472  13.813
23987SOL    HW173800  14.832   3.380  13.828
23987SOL    HW273801   0.061   3.487  13.861
23988SOL     OW73802  14.430  12.239  12.581
23988SOL    HW173803  14.403  12.149  12.599
23988SOL    HW273804  14.480  12.265  12.659
23989SOL     OW73805  12.561   1.423   9.329
23989SOL    HW173806  12.638   1.429   9.385
23989SOL    HW273807  12.491   1.462   9.381
23990SOL     OW73808   9.827  11.944  11.553
23990SOL    HW173809   9.872  11.884  11.613
23990SOL    HW273810   9.785  12.008  11.610
23991SOL     OW73811  13.972   6.142   6.459
23991SOL    HW173812  13.985   6.084   6.384
23991SOL    HW273813  13.917   6.091   6.519
23992SOL     OW73814   6.021   2.839  13.897
23992SOL    HW173815   6.062   2.811  13.979
23992SOL    HW273816   6.094   2.861  13.840
23993SOL     OW73817   1.537   5.026   2.529
23993SOL    HW173818   1.581   5.025   2.614
23993SOL    HW273819   1.538   5.118   2.503
23994SOL     OW73820   5.061   4.496   4.196
23994SOL    HW173821   5.074   4.588   4.219
23994SOL    HW273822   4.993   4.499   4.128
23995SOL     OW73823   5.430   9.487   3.825
23995SOL    HW173824   5.420   9.486   3.920
23995SOL    HW273825   5.438   9.580   3.803
23996SOL     OW73826  11.140  12.904  12.394
23996SOL    HW173827  11.169  12.986  12.434
23996SOL    HW273828  11.221  12.863  12.362
23997SOL     OW73829   3.612   2.577   8.071
23997SOL    HW173830   3.599   2.614   8.158
23997SOL    HW273831   3.542   2.615   8.018
23998SOL     OW73832  11.809   6.753  10.931
23998SOL    HW173833  11.823   6.825  10.993
23998SOL    HW273834  11.778   6.681  10.985
23999SOL     OW73835   0.109  14.390   6.532
23999SOL    HW173836   0.088  14.368   6.623
23999SOL    HW273837   0.029  14.429   6.498
24000SOL     OW73838   9.791   6.232   5.952
24000SOL    HW173839   9.841   6.308   5.980
24000SOL    HW273840   9.704   6.266   5.931
24001SOL     OW73841   9.070   8.267   3.057
24001SOL    HW173842   9.065   8.211   2.979
24001SOL    HW273843   9.120   8.343   3.028
24002SOL     OW73844  11.103  14.612   1.391
24002SOL    HW173845  11.022  14.569   1.365
24002SOL    HW273846  11.172  14.563   1.346
24003SOL     OW73847  11.759  12.319   4.156
24003SOL    HW173848  11.783  12.391   4.214
24003SOL    HW273849  11.715  12.361   4.082
24004SOL     OW73850  10.769  13.397   2.920
24004SOL    HW173851  10.742  13.488   2.905
24004SOL    HW273852  10.865  13.401   2.922
24005SOL     OW73853   4.221   6.570  14.592
24005SOL    HW173854   4.260   6.484  14.609
24005SOL    HW273855   4.250   6.624  14.666
24006SOL     OW73856   1.105   2.710   4.486
24006SOL    HW173857   1.188   2.736   4.447
24006SOL    HW273858   1.128   2.641   4.548
24007SOL     OW73859  14.026   4.912   1.617
24007SOL    HW173860  14.042   4.999   1.653
24007SOL    HW273861  14.036   4.923   1.523
24008SOL     OW73862   3.862   7.417  13.391
24008SOL    HW173863   3.771   7.391  13.379
24008SOL    HW273864   3.866   7.507  13.360
24009SOL     OW73865  12.338   0.596   5.985
24009SOL    HW173866  12.288   0.669   6.022
24009SOL    HW273867  12.362   0.543   6.061
24010SOL     OW73868   3.878   8.871   4.352
24010SOL    HW173869   3.905   8.920   4.429
24010SOL    HW273870   3.816   8.806   4.385
24011SOL     OW73871   3.072  14.194  14.347
24011SOL    HW173872   3.062  14.126  14.280
24011SOL    HW273873   3.063  14.276  14.299
24012SOL     OW73874   8.224  13.620  14.794
24012SOL    HW173875   8.169  13.605  14.716
24012SOL    HW273876   8.170  13.590  14.867
24013SOL     OW73877  12.834   6.821   7.377
24013SOL    HW173878  12.898   6.756   7.350
24013SOL    HW273879  12.753   6.772   7.388
24014SOL     OW73880   0.729   0.715  11.837
24014SOL    HW173881   0.767   0.659  11.905
24014SOL    HW273882   0.803   0.740  11.782
24015SOL     OW73883  11.412   1.875   9.865
24015SOL    HW173884  11.323   1.889   9.834
24015SOL    HW273885  11.413   1.785   9.897
24016SOL     OW73886  13.748   2.720   0.225
24016SOL    HW173887  13.775   2.640   0.269
24016SOL    HW273888  13.817   2.783   0.244
24017SOL     OW73889   1.411   0.324   8.256
24017SOL    HW173890   1.373   0.243   8.289
24017SOL    HW273891   1.467   0.296   8.183
24018SOL     OW73892   1.259   8.625  14.506
24018SOL    HW173893   1.335   8.683  14.497
24018SOL    HW273894   1.257   8.603  14.599
24019SOL     OW73895   2.499  13.591  10.255
24019SOL    HW173896   2.460  13.666  10.300
24019SOL    HW273897   2.448  13.581  10.175
24020SOL     OW73898   5.743   0.373   3.381
24020SOL    HW173899   5.793   0.455   3.376
24020SOL    HW273900   5.655   0.401   3.407
24021SOL     OW73901  10.222  11.763   5.279
24021SOL    HW173902  10.185  11.677   5.302
24021SOL    HW273903  10.316  11.754   5.295
24022SOL     OW73904   1.074  11.545  13.679
24022SOL    HW173905   1.120  11.528  13.761
24022SOL    HW273906   1.135  11.516  13.611
24023SOL     OW73907  11.030  11.773  10.661
24023SOL    HW173908  11.116  11.732  10.658
24023SOL    HW273909  10.975  11.718  10.605
24024SOL     OW73910  13.564   3.371  12.872
24024SOL    HW173911  13.498   3.310  12.840
24024SOL    HW273912  13.606   3.325  12.945
24025SOL     OW73913   0.840  10.036  13.525
24025SOL    HW173914   0.809  10.029  13.435
24025SOL    HW273915   0.929  10.069  13.518
24026SOL     OW73916   3.959   6.298   2.690
24026SOL    HW173917   3.994   6.346   2.614
24026SOL    HW273918   4.034   6.248   2.722
24027SOL     OW73919   5.945   0.541   5.948
24027SOL    HW173920   5.982   0.479   5.885
24027SOL    HW273921   5.935   0.622   5.899
24028SOL     OW73922   3.829   7.462   1.161
24028SOL    HW173923   3.893   7.423   1.220
24028SOL    HW273924   3.846   7.421   1.076
24029SOL     OW73925  14.391  12.905   5.538
24029SOL    HW173926  14.430  12.823   5.567
24029SOL    HW273927  14.463  12.954   5.497
24030SOL     OW73928   6.844   0.997  11.264
24030SOL    HW173929   6.811   0.912  11.235
24030SOL    HW273930   6.878   1.038  11.185
24031SOL     OW73931   0.190  12.177  12.670
24031SOL    HW173932   0.232  12.096  12.641
24031SOL    HW273933   0.098  12.166  12.646
24032SOL     OW73934   5.600   1.206   4.863
24032SOL    HW173935   5.590   1.266   4.937
24032SOL    HW273936   5.577   1.120   4.900
24033SOL     OW73937  10.018   6.454   4.024
24033SOL    HW173938  10.023   6.439   3.930
24033SOL    HW273939   9.992   6.546   4.032
24034SOL     OW73940   3.501  12.887  13.374
24034SOL    HW173941   3.476  12.928  13.291
24034SOL    HW273942   3.423  12.838  13.401
24035SOL     OW73943  10.400   1.703  11.499
24035SOL    HW173944  10.393   1.624  11.445
24035SOL    HW273945  10.445   1.766  11.443
24036SOL     OW73946   5.292  10.169   4.423
24036SOL    HW173947   5.339  10.145   4.343
24036SOL    HW273948   5.309  10.263   4.432
24037SOL     OW73949  11.221   8.344   5.789
24037SOL    HW173950  11.288   8.299   5.737
24037SOL    HW273951  11.270   8.399   5.850
24038SOL     OW73952   8.915   2.372   6.120
24038SOL    HW173953   8.889   2.299   6.177
24038SOL    HW273954   8.840   2.432   6.123
24039SOL     OW73955   7.929  11.574   7.101
24039SOL    HW173956   7.857  11.529   7.146
24039SOL    HW273957   7.961  11.637   7.165
24040SOL     OW73958  13.950   1.904   9.026
24040SOL    HW173959  13.996   1.983   8.995
24040SOL    HW273960  13.882   1.888   8.960
24041SOL     OW73961  13.823   6.438  14.768
24041SOL    HW173962  13.822   6.531  14.792
24041SOL    HW273963  13.882   6.397  14.831
24042SOL     OW73964  11.432  12.082  13.899
24042SOL    HW173965  11.496  12.073  13.969
24042SOL    HW273966  11.444  12.004  13.845
24043SOL     OW73967   4.109   9.846   9.926
24043SOL    HW173968   4.050   9.874   9.997
24043SOL    HW273969   4.141   9.761   9.955
24044SOL     OW73970   9.213   6.257   4.860
24044SOL    HW173971   9.119   6.263   4.843
24044SOL    HW273972   9.252   6.241   4.774
24045SOL     OW73973   8.723   8.141  12.786
24045SOL    HW173974   8.680   8.097  12.713
24045SOL    HW273975   8.789   8.079  12.817
24046SOL     OW73976   1.969   2.669   7.696
24046SOL    HW173977   1.930   2.750   7.665
24046SOL    HW273978   2.023   2.638   7.622
24047SOL     OW73979   4.088  14.503   0.833
24047SOL    HW173980   4.046  14.419   0.813
24047SOL    HW273981   4.050  14.564   0.769
24048SOL     OW73982  14.371   5.133  14.778
24048SOL    HW173983  14.314   5.113  14.852
24048SOL    HW273984  14.379   5.050  14.730
24049SOL     OW73985   0.791   1.132   4.617
24049SOL    HW173986   0.884   1.148   4.633
24049SOL    HW273987   0.762   1.206   4.563
24050SOL     OW73988   8.679   4.046   0.349
24050SOL    HW173989   8.661   4.140   0.351
24050SOL    HW273990   8.719   4.032   0.263
24051SOL     OW73991   2.484  10.965   0.055
24051SOL    HW173992   2.404  11.009   0.083
24051SOL    HW273993   2.551  11.033   0.058
24052SOL     OW73994   7.753   1.220   9.572
24052SOL    HW173995   7.708   1.300   9.543
24052SOL    HW273996   7.775   1.237   9.663
24053SOL     OW73997   5.685   4.048  12.311
24053SOL    HW173998   5.669   4.108  12.384
24053SOL    HW273999   5.654   4.095  12.234
24054SOL     OW74000   3.288   1.194  12.921
24054SOL    HW174001   3.290   1.112  12.871
24054SOL    HW274002   3.320   1.261  12.860
24055SOL     OW74003  14.140   6.044   0.885
24055SOL    HW174004  14.131   5.951   0.905
24055SOL    HW274005  14.183   6.047   0.799
24056SOL     OW74006   5.826  13.552  14.600
24056SOL    HW174007   5.857  13.594  14.680
24056SOL    HW274008   5.740  13.589  14.585
24057SOL     OW74009   0.465  13.413   3.689
24057SOL    HW174010   0.551  13.447   3.716
24057SOL    HW274011   0.469  13.415   3.593
24058SOL     OW74012   6.347   0.486   1.335
24058SOL    HW174013   6.289   0.561   1.345
24058SOL    HW274014   6.290   0.409   1.344
24059SOL     OW74015   4.453  10.201   5.453
24059SOL    HW174016   4.519  10.252   5.499
24059SOL    HW274017   4.503  10.139   5.400
24060SOL     OW74018   5.160  11.914   4.539
24060SOL    HW174019   5.086  11.973   4.523
24060SOL    HW274020   5.236  11.961   4.505
24061SOL     OW74021   0.179   6.532   0.551
24061SOL    HW174022   0.132   6.517   0.469
24061SOL    HW274023   0.246   6.464   0.553
24062SOL     OW74024   1.459   2.478   8.671
24062SOL    HW174025   1.528   2.502   8.733
24062SOL    HW274026   1.377   2.498   8.717
24063SOL     OW74027  12.903  11.354   0.247
24063SOL    HW174028  12.873  11.317   0.164
24063SOL    HW274029  12.971  11.417   0.222
24064SOL     OW74030  13.931   0.161   9.229
24064SOL    HW174031  14.017   0.200   9.248
24064SOL    HW274032  13.869   0.216   9.276
24065SOL     OW74033  14.037   7.933   3.564
24065SOL    HW174034  14.036   7.874   3.489
24065SOL    HW274035  14.109   7.993   3.546
24066SOL     OW74036   6.885   3.206   9.049
24066SOL    HW174037   6.874   3.297   9.075
24066SOL    HW274038   6.893   3.158   9.132
24067SOL     OW74039   0.009  12.682  13.460
24067SOL    HW174040   0.077  12.619  13.484
24067SOL    HW274041   0.035  12.763  13.505
24068SOL     OW74042   6.130   3.333  14.387
24068SOL    HW174043   6.114   3.274  14.313
24068SOL    HW274044   6.049   3.331  14.437
24069SOL     OW74045  14.114  10.347   5.458
24069SOL    HW174046  14.114  10.253   5.443
24069SOL    HW274047  14.141  10.357   5.549
24070SOL     OW74048   7.046   2.176   7.361
24070SOL    HW174049   6.951   2.186   7.360
24070SOL    HW274050   7.079   2.261   7.390
24071SOL     OW74051   2.908   2.830   9.550
24071SOL    HW174052   2.919   2.896   9.481
24071SOL    HW274053   2.853   2.871   9.615
24072SOL     OW74054   4.344   3.602   2.977
24072SOL    HW174055   4.271   3.542   2.968
24072SOL    HW274056   4.374   3.618   2.887
24073SOL     OW74057  10.367   0.572   7.169
24073SOL    HW174058  10.410   0.532   7.245
24073SOL    HW274059  10.423   0.549   7.095
24074SOL     OW74060  13.616   9.428  10.017
24074SOL    HW174061  13.578   9.356   9.967
24074SOL    HW274062  13.707   9.433   9.988
24075SOL     OW74063   2.786  10.306   4.681
24075SOL    HW174064   2.700  10.341   4.655
24075SOL    HW274065   2.787  10.318   4.776
24076SOL     OW74066   6.628   8.626   0.747
24076SOL    HW174067   6.574   8.705   0.749
24076SOL    HW274068   6.645   8.607   0.839
24077SOL     OW74069  11.721   2.157   3.392
24077SOL    HW174070  11.660   2.183   3.322
24077SOL    HW274071  11.789   2.224   3.389
24078SOL     OW74072   6.209   2.663   6.740
24078SOL    HW174073   6.146   2.591   6.749
24078SOL    HW274074   6.269   2.651   6.814
24079SOL     OW74075   8.402   1.638   7.862
24079SOL    HW174076   8.476   1.693   7.886
24079SOL    HW274077   8.337   1.699   7.828
24080SOL     OW74078   2.054   6.843   8.668
24080SOL    HW174079   1.981   6.819   8.611
24080SOL    HW274080   2.127   6.857   8.607
24081SOL     OW74081  13.825   7.209   3.827
24081SOL    HW174082  13.911   7.195   3.867
24081SOL    HW274083  13.825   7.155   3.749
24082SOL     OW74084   5.893  13.668   7.226
24082SOL    HW174085   5.900  13.652   7.320
24082SOL    HW274086   5.983  13.667   7.194
24083SOL     OW74087  12.665   2.583   8.374
24083SOL    HW174088  12.642   2.599   8.283
24083SOL    HW274089  12.688   2.670   8.408
24084SOL     OW74090   2.980  13.349  10.503
24084SOL    HW174091   2.911  13.339  10.568
24084SOL    HW274092   2.934  13.356  10.419
24085SOL     OW74093   7.695   1.756   5.099
24085SOL    HW174094   7.610   1.791   5.128
24085SOL    HW274095   7.693   1.765   5.004
24086SOL     OW74096   0.488   2.019   4.576
24086SOL    HW174097   0.478   1.939   4.627
24086SOL    HW274098   0.566   2.004   4.522
24087SOL     OW74099  13.520   8.997  13.785
24087SOL    HW174100  13.580   8.935  13.744
24087SOL    HW274101  13.454   8.941  13.827
24088SOL     OW74102  11.600   6.569   7.692
24088SOL    HW174103  11.544   6.588   7.617
24088SOL    HW274104  11.654   6.648   7.701
24089SOL     OW74105  12.856   1.251  13.242
24089SOL    HW174106  12.769   1.216  13.261
24089SOL    HW274107  12.848   1.345  13.259
24090SOL     OW74108  11.876   2.638   1.033
24090SOL    HW174109  11.867   2.733   1.039
24090SOL    HW274110  11.959   2.619   1.075
24091SOL     OW74111   7.189  11.552   8.680
24091SOL    HW174112   7.277  11.518   8.693
24091SOL    HW274113   7.176  11.549   8.585
24092SOL     OW74114  13.060   7.217  11.821
24092SOL    HW174115  13.153   7.238  11.828
24092SOL    HW274116  13.047   7.197  11.728
24093SOL     OW74117   2.197   8.656   3.171
24093SOL    HW174118   2.137   8.614   3.232
24093SOL    HW274119   2.170   8.748   3.170
24094SOL     OW74120   2.974   3.271   1.150
24094SOL    HW174121   2.879   3.270   1.136
24094SOL    HW274122   3.003   3.186   1.119
24095SOL     OW74123  13.965  13.248  13.147
24095SOL    HW174124  14.061  13.250  13.146
24095SOL    HW274125  13.943  13.163  13.185
24096SOL     OW74126  12.739   7.167  11.345
24096SOL    HW174127  12.747   7.213  11.261
24096SOL    HW274128  12.658   7.117  11.337
24097SOL     OW74129  14.242   9.732  10.108
24097SOL    HW174130  14.297   9.767  10.038
24097SOL    HW274131  14.165   9.789  10.109
24098SOL     OW74132   0.593   1.518   1.543
24098SOL    HW174133   0.534   1.443   1.538
24098SOL    HW274134   0.607   1.531   1.637
24099SOL     OW74135   0.831   3.829   8.786
24099SOL    HW174136   0.856   3.920   8.771
24099SOL    HW274137   0.905   3.777   8.755
24100SOL     OW74138   2.177   1.593   3.829
24100SOL    HW174139   2.094   1.609   3.785
24100SOL    HW274140   2.235   1.562   3.759
24101SOL     OW74141  11.071   3.509   7.615
24101SOL    HW174142  11.144   3.570   7.628
24101SOL    HW274143  11.018   3.549   7.547
24102SOL     OW74144   3.198   1.598  14.444
24102SOL    HW174145   3.233   1.638  14.365
24102SOL    HW274146   3.234   1.651  14.516
24103SOL     OW74147   3.172   8.478   4.753
24103SOL    HW174148   3.210   8.391   4.763
24103SOL    HW274149   3.140   8.500   4.841
24104SOL     OW74150  11.604   6.559   9.318
24104SOL    HW174151  11.617   6.531   9.227
24104SOL    HW274152  11.552   6.488   9.357
24105SOL     OW74153  13.580   2.824   0.935
24105SOL    HW174154  13.621   2.741   0.960
24105SOL    HW274155  13.492   2.800   0.907
24106SOL     OW74156  14.345  14.130   9.460
24106SOL    HW174157  14.379  14.099   9.376
24106SOL    HW274158  14.422  14.153   9.511
24107SOL     OW74159  13.886   8.128   4.154
24107SOL    HW174160  13.848   8.136   4.067
24107SOL    HW274161  13.855   8.205   4.202
24108SOL     OW74162  10.585  14.694   4.841
24108SOL    HW174163  10.490  14.689   4.853
24108SOL    HW274164  10.599  14.661   4.752
24109SOL     OW74165   1.349  11.138  14.633
24109SOL    HW174166   1.299  11.144  14.714
24109SOL    HW274167   1.435  11.105  14.660
24110SOL     OW74168   3.120   7.760   5.685
24110SOL    HW174169   3.135   7.773   5.779
24110SOL    HW274170   3.081   7.673   5.679
24111SOL     OW74171   2.041   6.694  13.662
24111SOL    HW174172   2.031   6.780  13.622
24111SOL    HW274173   2.003   6.703  13.749
24112SOL     OW74174  11.470   3.913  14.230
24112SOL    HW174175  11.399   3.960  14.273
24112SOL    HW274176  11.444   3.910  14.138
24113SOL     OW74177   6.131  10.971  10.568
24113SOL    HW174178   6.068  11.036  10.535
24113SOL    HW274179   6.140  10.992  10.661
24114SOL     OW74180  14.231   9.661   8.099
24114SOL    HW174181  14.320   9.677   8.132
24114SOL    HW274182  14.223   9.566   8.099
24115SOL     OW74183  13.138   9.005   6.161
24115SOL    HW174184  13.121   9.004   6.255
24115SOL    HW274185  13.051   9.008   6.121
24116SOL     OW74186   8.339   7.448   4.098
24116SOL    HW174187   8.335   7.543   4.102
24116SOL    HW274188   8.395   7.428   4.023
24117SOL     OW74189  11.040  10.882   7.453
24117SOL    HW174190  10.998  10.797   7.441
24117SOL    HW274191  11.064  10.884   7.546
24118SOL     OW74192  10.675   2.886   0.356
24118SOL    HW174193  10.628   2.883   0.440
24118SOL    HW274194  10.621   2.942   0.301
24119SOL     OW74195   1.313  11.388  14.566
24119SOL    HW174196   1.325  11.296  14.593
24119SOL    HW274197   1.219  11.404  14.576
24120SOL     OW74198  12.387  12.074   2.555
24120SOL    HW174199  12.309  12.061   2.501
24120SOL    HW274200  12.387  12.001   2.617
24121SOL     OW74201  14.280   2.194   6.432
24121SOL    HW174202  14.328   2.116   6.406
24121SOL    HW274203  14.192   2.162   6.453
24122SOL     OW74204   9.048   1.722   3.545
24122SOL    HW174205   9.050   1.662   3.620
24122SOL    HW274206   8.977   1.690   3.489
24123SOL     OW74207   0.172   3.627   6.545
24123SOL    HW174208   0.234   3.693   6.577
24123SOL    HW274209   0.111   3.677   6.490
24124SOL     OW74210   4.457   6.508   7.619
24124SOL    HW174211   4.484   6.426   7.662
24124SOL    HW274212   4.524   6.523   7.553
24125SOL     OW74213   5.291   1.343   0.439
24125SOL    HW174214   5.313   1.384   0.355
24125SOL    HW274215   5.279   1.250   0.418
24126SOL     OW74216  13.823  14.253  11.094
24126SOL    HW174217  13.764  14.325  11.116
24126SOL    HW274218  13.878  14.288  11.024
24127SOL     OW74219   2.947  10.289   1.099
24127SOL    HW174220   2.963  10.219   1.162
24127SOL    HW274221   2.940  10.244   1.014
24128SOL     OW74222   4.613   1.072   0.679
24128SOL    HW174223   4.577   1.007   0.618
24128SOL    HW274224   4.664   1.021   0.741
24129SOL     OW74225   6.695  14.720   2.655
24129SOL    HW174226   6.665  14.670   2.579
24129SOL    HW274227   6.704  14.810   2.623
24130SOL     OW74228   6.787  14.643   4.404
24130SOL    HW174229   6.832  14.621   4.486
24130SOL    HW274230   6.829  14.724   4.375
24131SOL     OW74231   9.639   7.441   5.130
24131SOL    HW174232   9.712   7.491   5.094
24131SOL    HW274233   9.566   7.459   5.070
24132SOL     OW74234  13.604   7.122   1.256
24132SOL    HW174235  13.686   7.106   1.304
24132SOL    HW274236  13.538   7.072   1.303
24133SOL     OW74237  12.772   2.313  11.035
24133SOL    HW174238  12.850   2.284  11.081
24133SOL    HW274239  12.742   2.390  11.084
24134SOL     OW74240   4.440   5.983  13.500
24134SOL    HW174241   4.375   5.988  13.430
24134SOL    HW274242   4.512   6.038  13.470
24135SOL     OW74243   1.152  13.032  13.340
24135SOL    HW174244   1.087  13.081  13.391
24135SOL    HW274245   1.106  12.953  13.311
24136SOL     OW74246  12.985   9.011   4.140
24136SOL    HW174247  12.957   8.982   4.227
24136SOL    HW274248  12.972   9.106   4.142
24137SOL     OW74249  12.500   8.255   9.343
24137SOL    HW174250  12.487   8.161   9.353
24137SOL    HW274251  12.419   8.285   9.300
24138SOL     OW74252   1.690  13.956   7.394
24138SOL    HW174253   1.643  14.039   7.392
24138SOL    HW274254   1.780  13.980   7.417
24139SOL     OW74255   9.213   5.626   0.196
24139SOL    HW174256   9.196   5.624   0.290
24139SOL    HW274257   9.143   5.681   0.160
24140SOL     OW74258   9.071   7.550  12.296
24140SOL    HW174259   9.078   7.454  12.287
24140SOL    HW274260   9.160   7.578  12.316
24141SOL     OW74261   4.074  13.173   7.740
24141SOL    HW174262   4.057  13.124   7.659
24141SOL    HW274263   4.023  13.253   7.731
24142SOL     OW74264   9.714  12.861  13.895
24142SOL    HW174265   9.720  12.925  13.966
24142SOL    HW274266   9.775  12.792  13.919
24143SOL     OW74267   5.232   1.734   4.555
24143SOL    HW174268   5.299   1.764   4.494
24143SOL    HW274269   5.214   1.811   4.610
24144SOL     OW74270   4.744  13.588   4.105
24144SOL    HW174271   4.766  13.524   4.036
24144SOL    HW274272   4.828  13.628   4.127
24145SOL     OW74273   4.937   9.154   6.995
24145SOL    HW174274   4.984   9.162   7.079
24145SOL    HW274275   4.959   9.235   6.948
24146SOL     OW74276   7.097  11.929   6.539
24146SOL    HW174277   7.152  11.851   6.528
24146SOL    HW274278   7.135  11.974   6.614
24147SOL     OW74279   2.158   2.850   6.339
24147SOL    HW174280   2.127   2.939   6.352
24147SOL    HW274281   2.254   2.858   6.339
24148SOL     OW74282   1.032  10.236   5.164
24148SOL    HW174283   1.128  10.236   5.165
24148SOL    HW274284   1.008  10.328   5.171
24149SOL     OW74285  12.576  12.975  11.912
24149SOL    HW174286  12.501  12.925  11.880
24149SOL    HW274287  12.617  13.009  11.832
24150SOL     OW74288   8.588   6.815   5.309
24150SOL    HW174289   8.643   6.736   5.308
24150SOL    HW274290   8.544   6.811   5.394
24151SOL     OW74291   2.886  10.275   5.775
24151SOL    HW174292   2.834  10.251   5.851
24151SOL    HW274293   2.936  10.195   5.754
24152SOL     OW74294   4.094   2.003  11.016
24152SOL    HW174295   4.168   1.997  10.956
24152SOL    HW274296   4.127   1.969  11.099
24153SOL     OW74297   5.578   7.585   8.860
24153SOL    HW174298   5.641   7.544   8.800
24153SOL    HW274299   5.494   7.548   8.835
24154SOL     OW74300  14.728  14.777  12.523
24154SOL    HW174301  14.747  14.854  12.470
24154SOL    HW274302  14.713  14.707  12.460
24155SOL     OW74303   5.708   8.821   2.689
24155SOL    HW174304   5.627   8.771   2.696
24155SOL    HW274305   5.755   8.804   2.771
24156SOL     OW74306   0.116   7.065   2.483
24156SOL    HW174307   0.178   7.108   2.542
24156SOL    HW274308   0.166   7.050   2.402
24157SOL     OW74309   6.402   3.801   3.437
24157SOL    HW174310   6.369   3.877   3.389
24157SOL    HW274311   6.452   3.838   3.509
24158SOL     OW74312  12.038  14.113  10.693
24158SOL    HW174313  12.077  14.055  10.759
24158SOL    HW274314  12.054  14.069  10.610
24159SOL     OW74315   4.453   0.746   4.569
24159SOL    HW174316   4.461   0.831   4.526
24159SOL    HW274317   4.393   0.697   4.514
24160SOL     OW74318  10.947   0.601   7.070
24160SOL    HW174319  10.903   0.598   7.155
24160SOL    HW274320  11.032   0.642   7.089
24161SOL     OW74321   5.487  13.661   4.701
24161SOL    HW174322   5.477  13.574   4.740
24161SOL    HW274323   5.423  13.716   4.746
24162SOL     OW74324   0.060   8.617   8.449
24162SOL    HW174325   0.109   8.555   8.395
24162SOL    HW274326   0.058   8.697   8.396
24163SOL     OW74327   6.826   3.451   4.713
24163SOL    HW174328   6.892   3.413   4.770
24163SOL    HW274329   6.788   3.522   4.765
24164SOL     OW74330   8.655  12.356  13.489
24164SOL    HW174331   8.672  12.304  13.568
24164SOL    HW274332   8.598  12.426  13.518
24165SOL     OW74333   2.023   3.884  14.407
24165SOL    HW174334   1.990   3.888  14.496
24165SOL    HW274335   2.011   3.793  14.381
24166SOL     OW74336   5.730  11.655  14.026
24166SOL    HW174337   5.763  11.738  13.990
24166SOL    HW274338   5.714  11.675  14.118
24167SOL     OW74339  11.681   1.012   7.935
24167SOL    HW174340  11.623   1.088   7.926
24167SOL    HW274341  11.648   0.966   8.013
24168SOL     OW74342   8.567   3.747   0.693
24168SOL    HW174343   8.534   3.659   0.675
24168SOL    HW274344   8.538   3.800   0.619
24169SOL     OW74345   6.604  11.546  13.043
24169SOL    HW174346   6.671  11.533  13.111
24169SOL    HW274347   6.521  11.550  13.090
24170SOL     OW74348  11.433   3.629   2.291
24170SOL    HW174349  11.385   3.681   2.356
24170SOL    HW274350  11.367   3.601   2.229
24171SOL     OW74351  12.281   9.928   8.053
24171SOL    HW174352  12.264   9.922   7.959
24171SOL    HW274353  12.202   9.969   8.089
24172SOL     OW74354   4.514  13.529   2.628
24172SOL    HW174355   4.589  13.472   2.646
24172SOL    HW274356   4.501  13.578   2.709
24173SOL     OW74357  10.303   3.897  11.828
24173SOL    HW174358  10.226   3.945  11.860
24173SOL    HW274359  10.333   3.948  11.752
24174SOL     OW74360  12.949  14.825  13.041
24174SOL    HW174361  12.967  14.750  13.099
24174SOL    HW274362  12.967   0.028  13.096
24175SOL     OW74363   3.233  11.068   3.875
24175SOL    HW174364   3.242  10.980   3.839
24175SOL    HW274365   3.144  11.095   3.850
24176SOL     OW74366  11.135  10.727   4.761
24176SOL    HW174367  11.140  10.816   4.797
24176SOL    HW274368  11.202  10.725   4.693
24177SOL     OW74369   4.896  11.510   7.338
24177SOL    HW174370   4.929  11.576   7.277
24177SOL    HW274371   4.953  11.435   7.326
24178SOL     OW74372  11.341  12.863   7.583
24178SOL    HW174373  11.338  12.819   7.668
24178SOL    HW274374  11.262  12.917   7.582
24179SOL     OW74375   6.467  14.278   2.847
24179SOL    HW174376   6.380  14.259   2.883
24179SOL    HW274377   6.492  14.361   2.889
24180SOL     OW74378  10.865   6.844  12.931
24180SOL    HW174379  10.772   6.836  12.953
24180SOL    HW274380  10.866   6.893  12.849
24181SOL     OW74381   2.119   0.741  14.173
24181SOL    HW174382   2.159   0.747  14.260
24181SOL    HW274383   2.040   0.795  14.180
24182SOL     OW74384   6.457   6.797   4.419
24182SOL    HW174385   6.375   6.831   4.455
24182SOL    HW274386   6.480   6.860   4.350
24183SOL     OW74387  11.772   9.097   5.287
24183SOL    HW174388  11.734   9.144   5.213
24183SOL    HW274389  11.748   9.149   5.364
24184SOL     OW74390   4.610   1.405   2.865
24184SOL    HW174391   4.558   1.426   2.942
24184SOL    HW274392   4.700   1.424   2.891
24185SOL     OW74393  10.434   0.629  11.121
24185SOL    HW174394  10.526   0.633  11.146
24185SOL    HW274395  10.424   0.542  11.081
24186SOL     OW74396  12.876  14.389   1.856
24186SOL    HW174397  12.888  14.365   1.764
24186SOL    HW274398  12.905  14.312   1.905
24187SOL     OW74399  10.439  14.383  12.229
24187SOL    HW174400  10.498  14.364  12.302
24187SOL    HW274401  10.495  14.424  12.163
24188SOL     OW74402   3.250   0.647  14.789
24188SOL    HW174403   3.223   0.565  14.747
24188SOL    HW274404   3.210   0.644   0.003
24189SOL     OW74405  14.513  14.117  13.029
24189SOL    HW174406  14.484  14.084  12.943
24189SOL    HW274407  14.604  14.089  13.036
24190SOL     OW74408  14.782   7.285   9.888
24190SOL    HW174409  14.699   7.287   9.841
24190SOL    HW274410  14.787   7.370   9.931
24191SOL     OW74411  10.800  11.211   2.705
24191SOL    HW174412  10.847  11.129   2.721
24191SOL    HW274413  10.756  11.229   2.788
24192SOL     OW74414  11.281   7.430  12.560
24192SOL    HW174415  11.231   7.494  12.509
24192SOL    HW274416  11.314   7.479  12.636
24193SOL     OW74417   0.053   7.866   4.107
24193SOL    HW174418  14.867   7.931   4.146
24193SOL    HW274419  14.870   7.810   4.054
24194SOL     OW74420   0.011   2.967   2.117
24194SOL    HW174421   0.026   2.903   2.187
24194SOL    HW274422  14.841   2.917   2.048
24195SOL     OW74423   3.377   2.128   2.514
24195SOL    HW174424   3.366   2.094   2.602
24195SOL    HW274425   3.379   2.223   2.525
24196SOL     OW74426   7.228   7.346   8.476
24196SOL    HW174427   7.185   7.346   8.562
24196SOL    HW274428   7.274   7.430   8.473
24197SOL     OW74429   4.901  12.584  12.761
24197SOL    HW174430   4.987  12.624  12.746
24197SOL    HW274431   4.850  12.653  12.804
24198SOL     OW74432   1.337   1.405   7.961
24198SOL    HW174433   1.283   1.384   8.037
24198SOL    HW274434   1.415   1.351   7.971
24199SOL     OW74435   6.190  14.850   9.183
24199SOL    HW174436   6.197  14.825   9.091
24199SOL    HW274437   6.144   0.061   9.182
24200SOL     OW74438  11.297   4.395  10.540
24200SOL    HW174439  11.243   4.340  10.482
24200SOL    HW274440  11.260   4.482  10.529
24201SOL     OW74441  14.778   4.001   0.741
24201SOL    HW174442  14.827   4.060   0.799
24201SOL    HW274443  14.730   4.059   0.682
24202SOL     OW74444   0.215  10.562   5.962
24202SOL    HW174445   0.274  10.621   5.916
24202SOL    HW274446   0.246  10.474   5.940
24203SOL     OW74447   1.668   1.770  11.504
24203SOL    HW174448   1.764   1.777  11.503
24203SOL    HW274449   1.640   1.812  11.422
24204SOL     OW74450   6.308  14.741  10.997
24204SOL    HW174451   6.329  14.757  11.089
24204SOL    HW274452   6.382  14.778  10.949
24205SOL     OW74453  14.517   9.548  14.017
24205SOL    HW174454  14.480   9.469  13.977
24205SOL    HW274455  14.461   9.564  14.093
24206SOL     OW74456   5.743  14.869   9.924
24206SOL    HW174457   5.680   0.065   9.906
24206SOL    HW274458   5.720  14.837  10.012
24207SOL     OW74459   2.622  13.399   9.112
24207SOL    HW174460   2.691  13.449   9.069
24207SOL    HW274461   2.600  13.330   9.050
24208SOL     OW74462   4.546  11.480   7.258
24208SOL    HW174463   4.478  11.417   7.285
24208SOL    HW274464   4.588  11.506   7.340
24209SOL     OW74465   6.177  10.700   6.937
24209SOL    HW174466   6.138  10.696   6.850
24209SOL    HW274467   6.131  10.633   6.987
24210SOL     OW74468  13.470  11.927  13.153
24210SOL    HW174469  13.484  11.994  13.086
24210SOL    HW274470  13.470  11.975  13.236
24211SOL     OW74471  11.673  12.435   9.041
24211SOL    HW174472  11.645  12.526   9.039
24211SOL    HW274473  11.731  12.429   9.117
24212SOL     OW74474   1.091  10.343   6.005
24212SOL    HW174475   1.069  10.310   5.918
24212SOL    HW274476   1.120  10.433   5.989
24213SOL     OW74477   2.375   9.720  13.313
24213SOL    HW174478   2.445   9.775  13.277
24213SOL    HW274479   2.318   9.782  13.360
24214SOL     OW74480   0.031   0.604   3.980
24214SOL    HW174481   0.023   0.612   4.075
24214SOL    HW274482   0.081   0.523   3.967
24215SOL     OW74483   7.739   9.389   9.800
24215SOL    HW174484   7.748   9.431   9.885
24215SOL    HW274485   7.724   9.461   9.739
24216SOL     OW74486   8.315   0.756   0.703
24216SOL    HW174487   8.290   0.741   0.611
24216SOL    HW274488   8.274   0.683   0.750
24217SOL     OW74489   9.979   2.509  14.056
24217SOL    HW174490   9.945   2.439  14.112
24217SOL    HW274491   9.911   2.577  14.059
24218SOL     OW74492   6.206  12.271   0.184
24218SOL    HW174493   6.271  12.336   0.157
24218SOL    HW274494   6.234  12.190   0.142
24219SOL     OW74495   2.723  12.169  10.415
24219SOL    HW174496   2.783  12.136  10.482
24219SOL    HW274497   2.705  12.092  10.359
24220SOL     OW74498   8.652   4.075  10.518
24220SOL    HW174499   8.620   4.164  10.503
24220SOL    HW274500   8.747   4.084  10.518
24221SOL     OW74501  14.063  12.416   8.042
24221SOL    HW174502  13.992  12.445   7.985
24221SOL    HW274503  14.106  12.346   7.993
24222SOL     OW74504   3.609  12.544   1.299
24222SOL    HW174505   3.611  12.566   1.392
24222SOL    HW274506   3.621  12.449   1.297
24223SOL     OW74507  10.871  13.218   0.281
24223SOL    HW174508  10.803  13.274   0.244
24223SOL    HW274509  10.874  13.240   0.374
24224SOL     OW74510   5.667   5.643   4.056
24224SOL    HW174511   5.746   5.677   4.013
24224SOL    HW274512   5.612   5.720   4.070
24225SOL     OW74513   3.654  12.559   8.971
24225SOL    HW174514   3.743  12.538   8.944
24225SOL    HW274515   3.651  12.654   8.971
24226SOL     OW74516  11.879  12.549  14.761
24226SOL    HW174517  11.843  12.630  14.725
24226SOL    HW274518  11.802  12.497  14.786
24227SOL     OW74519  13.642   2.879   2.008
24227SOL    HW174520  13.592   2.800   1.989
24227SOL    HW274521  13.601   2.947   1.955
24228SOL     OW74522   6.753  11.562  10.033
24228SOL    HW174523   6.830  11.618  10.018
24228SOL    HW274524   6.745  11.512   9.952
24229SOL     OW74525   4.729  14.165   8.507
24229SOL    HW174526   4.693  14.139   8.422
24229SOL    HW274527   4.779  14.089   8.536
24230SOL     OW74528  14.117  14.867   4.829
24230SOL    HW174529  14.183   0.017   4.763
24230SOL    HW274530  14.044  14.831   4.778
24231SOL     OW74531   4.033  13.101   0.600
24231SOL    HW174532   4.108  13.126   0.654
24231SOL    HW274533   3.980  13.181   0.594
24232SOL     OW74534   0.629   6.938   9.849
24232SOL    HW174535   0.675   6.956   9.767
24232SOL    HW274536   0.591   6.851   9.835
24233SOL     OW74537  13.409  10.419   4.638
24233SOL    HW174538  13.391  10.409   4.732
24233SOL    HW274539  13.489  10.369   4.623
24234SOL     OW74540  13.434   2.250   0.672
24234SOL    HW174541  13.450   2.343   0.655
24234SOL    HW274542  13.502   2.225   0.735
24235SOL     OW74543  11.090  11.337  10.411
24235SOL    HW174544  11.156  11.309  10.348
24235SOL    HW274545  11.008  11.298  10.379
24236SOL     OW74546   4.505   5.922   5.375
24236SOL    HW174547   4.445   5.871   5.429
24236SOL    HW274548   4.588   5.873   5.377
24237SOL     OW74549   1.215   5.374   0.187
24237SOL    HW174550   1.202   5.314   0.260
24237SOL    HW274551   1.219   5.461   0.228
24238SOL     OW74552   0.617   1.756   0.393
24238SOL    HW174553   0.579   1.782   0.309
24238SOL    HW274554   0.711   1.758   0.378
24239SOL     OW74555  14.057   1.847  14.743
24239SOL    HW174556  14.041   1.788  14.817
24239SOL    HW274557  14.067   1.788  14.667
24240SOL     OW74558   6.535   1.561   5.186
24240SOL    HW174559   6.588   1.513   5.250
24240SOL    HW274560   6.463   1.597   5.237
24241SOL     OW74561   0.221   2.761   2.524
24241SOL    HW174562   0.281   2.771   2.597
24241SOL    HW274563   0.270   2.795   2.448
24242SOL     OW74564   1.541   7.715  12.665
24242SOL    HW174565   1.449   7.725  12.690
24242SOL    HW274566   1.545   7.750  12.576
24243SOL     OW74567   2.954   0.729  13.388
24243SOL    HW174568   2.951   0.716  13.294
24243SOL    HW274569   3.013   0.803  13.401
24244SOL     OW74570   1.882   2.235   2.498
24244SOL    HW174571   1.836   2.183   2.564
24244SOL    HW274572   1.974   2.212   2.509
24245SOL     OW74573   7.282   9.337   9.307
24245SOL    HW174574   7.240   9.414   9.267
24245SOL    HW274575   7.210   9.276   9.323
24246SOL     OW74576   1.083   3.847  13.081
24246SOL    HW174577   1.135   3.919  13.118
24246SOL    HW274578   1.027   3.889  13.016
24247SOL     OW74579   3.008  10.649  14.718
24247SOL    HW174580   3.022  10.572  14.773
24247SOL    HW274581   3.091  10.661  14.672
24248SOL     OW74582   6.027  12.808   2.383
24248SOL    HW174583   6.107  12.806   2.436
24248SOL    HW274584   5.967  12.864   2.433
24249SOL     OW74585   8.228   2.409  10.940
24249SOL    HW174586   8.223   2.330  10.994
24249SOL    HW274587   8.175   2.388  10.863
24250SOL     OW74588   5.108   6.474  11.786
24250SOL    HW174589   5.189   6.438  11.823
24250SOL    HW274590   5.038   6.437  11.839
24251SOL     OW74591  11.704   5.288   1.133
24251SOL    HW174592  11.791   5.300   1.094
24251SOL    HW274593  11.661   5.373   1.123
24252SOL     OW74594   9.026   5.340   6.056
24252SOL    HW174595   8.977   5.270   6.098
24252SOL    HW274596   9.050   5.304   5.970
24253SOL     OW74597   2.157   9.638  10.807
24253SOL    HW174598   2.210   9.561  10.788
24253SOL    HW274599   2.140   9.632  10.901
24254SOL     OW74600   6.140  11.512   8.937
24254SOL    HW174601   6.099  11.429   8.910
24254SOL    HW274602   6.080  11.550   9.000
24255SOL     OW74603   7.878   8.665  11.354
24255SOL    HW174604   7.872   8.758  11.375
24255SOL    HW274605   7.883   8.621  11.439
24256SOL     OW74606   5.625   9.088   2.007
24256SOL    HW174607   5.621   9.166   2.062
24256SOL    HW274608   5.559   9.103   1.940
24257SOL     OW74609   2.700   9.327   3.365
24257SOL    HW174610   2.670   9.259   3.425
24257SOL    HW274611   2.781   9.359   3.404
24258SOL     OW74612  13.311   8.646   6.484
24258SOL    HW174613  13.341   8.737   6.480
24258SOL    HW274614  13.262   8.634   6.403
24259SOL     OW74615   8.766   3.570   1.258
24259SOL    HW174616   8.772   3.571   1.162
24259SOL    HW274617   8.719   3.490   1.278
24260SOL     OW74618  14.618   0.614   3.808
24260SOL    HW174619  14.552   0.680   3.789
24260SOL    HW274620  14.697   0.646   3.766
24261SOL     OW74621  12.716   1.331   6.526
24261SOL    HW174622  12.783   1.370   6.583
24261SOL    HW274623  12.634   1.347   6.572
24262SOL     OW74624  11.664   9.641   9.610
24262SOL    HW174625  11.706   9.618   9.527
24262SOL    HW274626  11.702   9.582   9.674
24263SOL     OW74627  13.955   3.314   8.168
24263SOL    HW174628  13.974   3.265   8.088
24263SOL    HW274629  13.922   3.398   8.137
24264SOL     OW74630  12.107   6.579   3.476
24264SOL    HW174631  12.061   6.498   3.456
24264SOL    HW274632  12.178   6.583   3.412
24265SOL     OW74633  11.629  13.434   4.504
24265SOL    HW174634  11.629  13.529   4.519
24265SOL    HW274635  11.582  13.423   4.421
24266SOL     OW74636  12.760  14.528   7.318
24266SOL    HW174637  12.717  14.508   7.234
24266SOL    HW274638  12.810  14.449   7.339
24267SOL     OW74639   6.499   2.686   7.837
24267SOL    HW174640   6.569   2.705   7.900
24267SOL    HW274641   6.544   2.672   7.754
24268SOL     OW74642   5.260  10.304   0.706
24268SOL    HW174643   5.300  10.361   0.771
24268SOL    HW274644   5.322  10.232   0.694
24269SOL     OW74645  11.495   5.887  10.726
24269SOL    HW174646  11.491   5.872  10.820
24269SOL    HW274647  11.404   5.892  10.698
24270SOL     OW74648   1.570   6.652   6.849
24270SOL    HW174649   1.579   6.630   6.942
24270SOL    HW274650   1.484   6.693   6.842
24271SOL     OW74651   7.701  14.107   6.078
24271SOL    HW174652   7.650  14.085   6.157
24271SOL    HW274653   7.713  14.202   6.083
24272SOL     OW74654   9.580  14.752  13.780
24272SOL    HW174655   9.528  14.758  13.860
24272SOL    HW274656   9.541  14.817  13.721
24273SOL     OW74657   5.302   4.122   9.139
24273SOL    HW174658   5.320   4.056   9.205
24273SOL    HW274659   5.385   4.171   9.131
24274SOL     OW74660   4.378   7.186   0.873
24274SOL    HW174661   4.462   7.229   0.889
24274SOL    HW274662   4.402   7.099   0.840
24275SOL     OW74663   5.461  12.234   6.851
24275SOL    HW174664   5.476  12.328   6.858
24275SOL    HW274665   5.367  12.225   6.838
24276SOL     OW74666   8.793   8.198   3.405
24276SOL    HW174667   8.749   8.237   3.481
24276SOL    HW274668   8.739   8.122   3.384
24277SOL     OW74669   5.021   6.520  14.648
24277SOL    HW174670   5.115   6.525  14.630
24277SOL    HW274671   4.984   6.594  14.600
24278SOL     OW74672   7.694   5.265   2.860
24278SOL    HW174673   7.774   5.300   2.901
24278SOL    HW274674   7.724   5.192   2.807
24279SOL     OW74675  12.619   0.809  14.544
24279SOL    HW174676  12.648   0.750  14.614
24279SOL    HW274677  12.666   0.779  14.467
24280SOL     OW74678   4.689  13.308   8.189
24280SOL    HW174679   4.734  13.392   8.180
24280SOL    HW274680   4.712  13.260   8.110
24281SOL     OW74681  10.608   5.900   0.381
24281SOL    HW174682  10.530   5.939   0.419
24281SOL    HW274683  10.604   5.807   0.406
24282SOL     OW74684   5.094   6.635   4.560
24282SOL    HW174685   5.063   6.549   4.589
24282SOL    HW274686   5.086   6.632   4.465
24283SOL     OW74687  12.837   8.283  11.358
24283SOL    HW174688  12.797   8.251  11.277
24283SOL    HW274689  12.910   8.223  11.374
24284SOL     OW74690  12.194   6.627  14.010
24284SOL    HW174691  12.156   6.709  13.980
24284SOL    HW274692  12.120   6.568  14.020
24285SOL     OW74693  10.174   0.051   0.218
24285SOL    HW174694  10.159  14.841   0.262
24285SOL    HW274695  10.258   0.081   0.252
24286SOL     OW74696   0.142   7.457  10.681
24286SOL    HW174697   0.135   7.522  10.750
24286SOL    HW274698   0.200   7.496  10.616
24287SOL     OW74699  14.284  12.005   8.971
24287SOL    HW174700  14.221  12.070   8.941
24287SOL    HW274701  14.298  12.025   9.064
24288SOL     OW74702   0.981   5.624  12.316
24288SOL    HW174703   0.897   5.582  12.299
24288SOL    HW274704   0.971   5.663  12.403
24289SOL     OW74705  12.109  11.225  13.723
24289SOL    HW174706  12.170  11.151  13.730
24289SOL    HW274707  12.153  11.286  13.664
24290SOL     OW74708   0.715   1.068  12.833
24290SOL    HW174709   0.767   1.120  12.772
24290SOL    HW274710   0.714   0.980  12.795
24291SOL     OW74711   6.796   4.227   2.242
24291SOL    HW174712   6.748   4.241   2.160
24291SOL    HW274713   6.728   4.213   2.308
24292SOL     OW74714  10.544   5.215   9.620
24292SOL    HW174715  10.580   5.300   9.646
24292SOL    HW274716  10.585   5.153   9.680
24293SOL     OW74717   3.890  14.582  14.500
24293SOL    HW174718   3.832  14.560  14.428
24293SOL    HW274719   3.972  14.608  14.457
24294SOL     OW74720   8.174   1.048   2.644
24294SOL    HW174721   8.147   1.021   2.556
24294SOL    HW274722   8.177   0.967   2.694
24295SOL     OW74723   8.463  13.244   9.736
24295SOL    HW174724   8.455  13.212   9.647
24295SOL    HW274725   8.375  13.271   9.761
24296SOL     OW74726   5.108  13.873  11.207
24296SOL    HW174727   5.077  13.793  11.250
24296SOL    HW274728   5.174  13.841  11.144
24297SOL     OW74729   9.171   5.724  12.904
24297SOL    HW174730   9.219   5.685  12.831
24297SOL    HW274731   9.090   5.673  12.909
24298SOL     OW74732   1.217  14.703  10.925
24298SOL    HW174733   1.184  14.614  10.929
24298SOL    HW274734   1.139  14.758  10.935
24299SOL     OW74735   8.481   0.483   3.319
24299SOL    HW174736   8.575   0.480   3.338
24299SOL    HW274737   8.451   0.392   3.331
24300SOL     OW74738   8.992   2.719   9.900
24300SOL    HW174739   8.977   2.720   9.994
24300SOL    HW274740   8.905   2.707   9.862
24301SOL     OW74741   2.715   3.223   2.760
24301SOL    HW174742   2.657   3.237   2.685
24301SOL    HW274743   2.690   3.290   2.823
24302SOL     OW74744   7.556  12.741  11.516
24302SOL    HW174745   7.651  12.740  11.499
24302SOL    HW274746   7.545  12.802  11.588
24303SOL     OW74747  12.871   0.237   4.843
24303SOL    HW174748  12.807   0.195   4.786
24303SOL    HW274749  12.865   0.330   4.823
24304SOL     OW74750   3.199   8.066  13.542
24304SOL    HW174751   3.262   8.135  13.523
24304SOL    HW274752   3.239   8.016  13.614
24305SOL     OW74753   5.973   5.015  12.439
24305SOL    HW174754   5.896   5.013  12.495
24305SOL    HW274755   5.990   5.108  12.424
24306SOL     OW74756   2.247   9.755   4.313
24306SOL    HW174757   2.341   9.757   4.330
24306SOL    HW274758   2.230   9.665   4.283
24307SOL     OW74759   6.561  12.265   5.045
24307SOL    HW174760   6.551  12.281   5.138
24307SOL    HW274761   6.500  12.193   5.026
24308SOL     OW74762   4.108  10.486  10.757
24308SOL    HW174763   4.038  10.422  10.747
24308SOL    HW274764   4.066  10.561  10.799
24309SOL     OW74765   1.256   7.426   0.352
24309SOL    HW174766   1.267   7.373   0.430
24309SOL    HW274767   1.249   7.363   0.280
24310SOL     OW74768  10.875   3.676  11.850
24310SOL    HW174769  10.946   3.695  11.789
24310SOL    HW274770  10.912   3.696  11.936
24311SOL     OW74771   5.316   2.736   6.154
24311SOL    HW174772   5.324   2.645   6.126
24311SOL    HW274773   5.246   2.735   6.220
24312SOL     OW74774   3.414  10.149  12.447
24312SOL    HW174775   3.329  10.111  12.471
24312SOL    HW274776   3.411  10.156  12.352
24313SOL     OW74777  12.923   6.934   8.246
24313SOL    HW174778  13.009   6.920   8.205
24313SOL    HW274779  12.923   6.875   8.321
24314SOL     OW74780   2.482   7.929   7.993
24314SOL    HW174781   2.427   7.877   8.052
24314SOL    HW274782   2.572   7.907   8.019
24315SOL     OW74783   1.188   2.672   4.947
24315SOL    HW174784   1.222   2.750   4.903
24315SOL    HW274785   1.260   2.641   5.001
24316SOL     OW74786   3.179   6.014   6.545
24316SOL    HW174787   3.239   5.941   6.531
24316SOL    HW274788   3.180   6.061   6.462
24317SOL     OW74789   0.257  12.637   5.562
24317SOL    HW174790   0.187  12.573   5.544
24317SOL    HW274791   0.253  12.651   5.656
24318SOL     OW74792  12.142   5.908   9.583
24318SOL    HW174793  12.176   5.856   9.510
24318SOL    HW274794  12.211   5.972   9.600
24319SOL     OW74795  13.623  10.784   9.167
24319SOL    HW174796  13.597  10.697   9.137
24319SOL    HW274797  13.626  10.837   9.088
24320SOL     OW74798  10.974   1.554   1.854
24320SOL    HW174799  10.979   1.556   1.950
24320SOL    HW274800  10.882   1.539   1.835
24321SOL     OW74801   8.518   4.566   7.716
24321SOL    HW174802   8.510   4.505   7.790
24321SOL    HW274803   8.605   4.605   7.728
24322SOL     OW74804  11.471   7.058   8.590
24322SOL    HW174805  11.498   7.129   8.647
24322SOL    HW274806  11.386   7.085   8.556
24323SOL     OW74807  13.716   2.994   2.246
24323SOL    HW174808  13.709   2.970   2.153
24323SOL    HW274809  13.810   3.007   2.260
24324SOL     OW74810   0.741  14.387   1.694
24324SOL    HW174811   0.659  14.337   1.691
24324SOL    HW274812   0.745  14.432   1.610
24325SOL     OW74813  11.984   0.621  13.771
24325SOL    HW174814  11.979   0.587  13.861
24325SOL    HW274815  11.948   0.709  13.777
24326SOL     OW74816   0.611   9.276  14.403
24326SOL    HW174817   0.536   9.306  14.454
24326SOL    HW274818   0.676   9.250  14.468
24327SOL     OW74819   2.479   8.600   9.987
24327SOL    HW174820   2.551   8.632   9.933
24327SOL    HW274821   2.466   8.669  10.052
24328SOL     OW74822   3.289  11.385   0.821
24328SOL    HW174823   3.272  11.389   0.727
24328SOL    HW274824   3.231  11.451   0.859
24329SOL     OW74825   3.976  10.959   9.507
24329SOL    HW174826   3.930  10.875   9.503
24329SOL    HW274827   4.009  10.964   9.597
24330SOL     OW74828   8.245   1.384   9.746
24330SOL    HW174829   8.290   1.330   9.681
24330SOL    HW274830   8.221   1.323   9.816
24331SOL     OW74831   2.274   6.547   6.448
24331SOL    HW174832   2.340   6.517   6.510
24331SOL    HW274833   2.262   6.640   6.468
24332SOL     OW74834   0.775  12.370   2.195
24332SOL    HW174835   0.785  12.348   2.102
24332SOL    HW274836   0.818  12.299   2.241
24333SOL     OW74837   9.701  14.149   2.426
24333SOL    HW174838   9.615  14.172   2.463
24333SOL    HW274839   9.681  14.097   2.348
24334SOL     OW74840  14.681   5.677   0.588
24334SOL    HW174841  14.746   5.659   0.520
24334SOL    HW274842  14.706   5.764   0.622
24335SOL     OW74843  11.255   5.959  10.430
24335SOL    HW174844  11.243   5.896  10.501
24335SOL    HW274845  11.180   5.944  10.372
24336SOL     OW74846   2.581  12.254   4.515
24336SOL    HW174847   2.517  12.276   4.583
24336SOL    HW274848   2.528  12.214   4.445
24337SOL     OW74849  13.392  14.733  12.836
24337SOL    HW174850  13.387  14.781  12.919
24337SOL    HW274851  13.480  14.695  12.836
24338SOL     OW74852   0.848  12.722   8.040
24338SOL    HW174853   0.921  12.676   7.999
24338SOL    HW274854   0.797  12.653   8.082
24339SOL     OW74855   0.534   8.604   1.305
24339SOL    HW174856   0.454   8.649   1.331
24339SOL    HW274857   0.591   8.674   1.272
24340SOL     OW74858   9.000   8.414  13.851
24340SOL    HW174859   9.072   8.398  13.791
24340SOL    HW274860   8.931   8.355  13.823
24341SOL     OW74861   3.912  11.433   8.776
24341SOL    HW174862   4.005  11.452   8.785
24341SOL    HW274863   3.903  11.342   8.803
24342SOL     OW74864   2.237   5.301   6.503
24342SOL    HW174865   2.331   5.299   6.517
24342SOL    HW274866   2.223   5.375   6.444
24343SOL     OW74867   4.792   9.160  14.782
24343SOL    HW174868   4.753   9.244  14.807
24343SOL    HW274869   4.805   9.167  14.687
24344SOL     OW74870   6.082   5.891   0.835
24344SOL    HW174871   6.008   5.902   0.775
24344SOL    HW274872   6.145   5.956   0.806
24345SOL     OW74873  12.555   1.341   0.753
24345SOL    HW174874  12.488   1.404   0.726
24345SOL    HW274875  12.506   1.260   0.767
24346SOL     OW74876  10.724  14.683  12.093
24346SOL    HW174877  10.800  14.684  12.034
24346SOL    HW274878  10.760  14.705  12.179
24347SOL     OW74879   2.579  11.999   1.338
24347SOL    HW174880   2.487  11.977   1.351
24347SOL    HW274881   2.593  11.989   1.244
24348SOL     OW74882   5.067   3.873   9.050
24348SOL    HW174883   4.977   3.881   9.080
24348SOL    HW274884   5.117   3.927   9.110
24349SOL     OW74885   8.209   8.788   6.074
24349SOL    HW174886   8.194   8.694   6.062
24349SOL    HW274887   8.304   8.796   6.086
24350SOL     OW74888   3.881   3.848   6.369
24350SOL    HW174889   3.919   3.923   6.415
24350SOL    HW274890   3.953   3.787   6.359
24351SOL     OW74891  10.234  11.619   8.204
24351SOL    HW174892  10.287  11.542   8.224
24351SOL    HW274893  10.256  11.641   8.113
24352SOL     OW74894  12.366   5.978   3.990
24352SOL    HW174895  12.397   6.055   3.942
24352SOL    HW274896  12.279   6.002   4.019
24353SOL     OW74897   5.063   8.147   9.864
24353SOL    HW174898   5.006   8.204   9.813
24353SOL    HW274899   5.016   8.131   9.946
24354SOL     OW74900  13.863   6.879   8.042
24354SOL    HW174901  13.877   6.973   8.052
24354SOL    HW274902  13.769   6.867   8.046
24355SOL     OW74903   7.303  11.809   3.656
24355SOL    HW174904   7.243  11.832   3.727
24355SOL    HW274905   7.345  11.728   3.685
24356SOL     OW74906   1.140   6.780   5.600
24356SOL    HW174907   1.232   6.778   5.625
24356SOL    HW274908   1.094   6.810   5.678
24357SOL     OW74909   6.717  11.369  12.365
24357SOL    HW174910   6.770  11.401  12.292
24357SOL    HW274911   6.763  11.400  12.443
24358SOL     OW74912   4.488   2.546   8.514
24358SOL    HW174913   4.554   2.482   8.488
24358SOL    HW274914   4.533   2.630   8.510
24359SOL     OW74915   7.237   4.695  10.367
24359SOL    HW174916   7.216   4.686  10.460
24359SOL    HW274917   7.270   4.784  10.358
24360SOL     OW74918   0.145   2.415   1.851
24360SOL    HW174919   0.076   2.357   1.884
24360SOL    HW274920   0.218   2.402   1.912
24361SOL     OW74921   6.382  13.583   8.208
24361SOL    HW174922   6.417  13.503   8.247
24361SOL    HW274923   6.403  13.576   8.115
24362SOL     OW74924  13.210   9.301   3.023
24362SOL    HW174925  13.283   9.280   3.080
24362SOL    HW274926  13.167   9.375   3.065
24363SOL     OW74927   4.542  13.970   0.622
24363SOL    HW174928   4.615  14.016   0.663
24363SOL    HW274929   4.571  13.952   0.532
24364SOL     OW74930   3.643   0.188   5.177
24364SOL    HW174931   3.700   0.260   5.153
24364SOL    HW274932   3.647   0.185   5.273
24365SOL     OW74933   2.751   4.095   8.625
24365SOL    HW174934   2.826   4.139   8.584
24365SOL    HW274935   2.779   4.004   8.633
24366SOL     OW74936   5.400   4.815  12.150
24366SOL    HW174937   5.454   4.889  12.176
24366SOL    HW274938   5.429   4.794  12.062
24367SOL     OW74939   4.673   1.705   1.167
24367SOL    HW174940   4.689   1.664   1.082
24367SOL    HW274941   4.641   1.793   1.147
24368SOL     OW74942  13.051   6.272   8.215
24368SOL    HW174943  13.140   6.295   8.241
24368SOL    HW274944  13.001   6.273   8.297
24369SOL     OW74945  13.895  12.849   5.317
24369SOL    HW174946  13.951  12.904   5.372
24369SOL    HW274947  13.939  12.764   5.317
24370SOL     OW74948  13.886   6.724   7.814
24370SOL    HW174949  13.886   6.783   7.890
24370SOL    HW274950  13.951   6.762   7.755
24371SOL     OW74951   7.888  11.478  11.321
24371SOL    HW174952   7.959  11.480  11.385
24371SOL    HW274953   7.884  11.386  11.293
24372SOL     OW74954   6.961   4.387  14.170
24372SOL    HW174955   6.942   4.411  14.080
24372SOL    HW274956   6.875   4.379  14.212
24373SOL     OW74957  13.984   2.746   0.916
24373SOL    HW174958  13.930   2.798   0.974
24373SOL    HW274959  13.923   2.704   0.856
24374SOL     OW74960   4.721  11.174   4.824
24374SOL    HW174961   4.664  11.099   4.841
24374SOL    HW274962   4.781  11.143   4.756
24375SOL     OW74963   2.014   9.290   6.146
24375SOL    HW174964   2.052   9.267   6.230
24375SOL    HW274965   1.962   9.369   6.164
24376SOL     OW74966   2.413  13.077   3.006
24376SOL    HW174967   2.444  13.161   2.972
24376SOL    HW274968   2.466  13.011   2.962
24377SOL     OW74969   1.270   9.656   3.863
24377SOL    HW174970   1.351   9.679   3.908
24377SOL    HW274971   1.241   9.575   3.905
24378SOL     OW74972   4.023   1.070  13.805
24378SOL    HW174973   4.086   1.096  13.872
24378SOL    HW274974   4.074   1.069  13.724
24379SOL     OW74975   0.296   8.467   7.084
24379SOL    HW174976   0.254   8.523   7.019
24379SOL    HW274977   0.225   8.413   7.119
24380SOL     OW74978   3.138   4.567  14.773
24380SOL    HW174979   3.117   4.521  14.691
24380SOL    HW274980   3.155   4.498  14.836
24381SOL     OW74981   4.744  12.503   7.128
24381SOL    HW174982   4.650  12.516   7.113
24381SOL    HW274983   4.769  12.437   7.063
24382SOL     OW74984   9.571  14.305   9.415
24382SOL    HW174985   9.518  14.227   9.396
24382SOL    HW274986   9.599  14.335   9.329
24383SOL     OW74987   4.050   1.643   3.055
24383SOL    HW174988   4.047   1.550   3.032
24383SOL    HW274989   4.133   1.674   3.021
24384SOL     OW74990  11.796   0.510   6.517
24384SOL    HW174991  11.823   0.486   6.605
24384SOL    HW274992  11.718   0.456   6.500
24385SOL     OW74993  12.248   4.627   6.308
24385SOL    HW174994  12.237   4.722   6.297
24385SOL    HW274995  12.280   4.617   6.398
24386SOL     OW74996   2.496   1.934  10.372
24386SOL    HW174997   2.536   1.973  10.449
24386SOL    HW274998   2.522   1.842  10.375
24387SOL     OW74999  12.821  10.909   8.234
24387SOL    HW175000  12.762  10.869   8.298
24387SOL    HW275001  12.818  10.850   8.159
24388SOL     OW75002  14.841   3.717  12.183
24388SOL    HW175003  14.762   3.760  12.217
24388SOL    HW275004   0.000   3.665  12.257
24389SOL     OW75005   5.780   5.573  14.623
24389SOL    HW175006   5.834   5.497  14.643
24389SOL    HW275007   5.824   5.615  14.549
24390SOL     OW75008  11.032   2.284  13.639
24390SOL    HW175009  10.988   2.268  13.555
24390SOL    HW275010  10.964   2.268  13.705
24391SOL     OW75011   4.740   9.882  12.200
24391SOL    HW175012   4.779   9.837  12.125
24391SOL    HW275013   4.665   9.827  12.224
24392SOL     OW75014   7.711   3.193   3.112
24392SOL    HW175015   7.707   3.260   3.044
24392SOL    HW275016   7.752   3.238   3.186
24393SOL     OW75017   3.166   3.808   4.210
24393SOL    HW175018   3.152   3.856   4.292
24393SOL    HW275019   3.087   3.824   4.160
24394SOL     OW75020   5.918  14.097   1.585
24394SOL    HW175021   5.938  14.004   1.579
24394SOL    HW275022   5.880  14.119   1.500
24395SOL     OW75023   5.918  13.111  14.439
24395SOL    HW175024   5.974  13.112  14.362
24395SOL    HW275025   5.869  13.029  14.433
24396SOL     OW75026  12.592   9.541   0.528
24396SOL    HW175027  12.592   9.446   0.541
24396SOL    HW275028  12.528   9.573   0.591
24397SOL     OW75029   4.402   0.129  13.292
24397SOL    HW175030   4.451   0.106  13.371
24397SOL    HW275031   4.458   0.100  13.219
24398SOL     OW75032  14.560   3.337   3.288
24398SOL    HW175033  14.599   3.380   3.211
24398SOL    HW275034  14.605   3.376   3.363
24399SOL     OW75035   5.424   6.962  14.352
24399SOL    HW175036   5.504   6.966  14.300
24399SOL    HW275037   5.359   7.009  14.299
24400SOL     OW75038  10.737   0.437   5.078
24400SOL    HW175039  10.778   0.456   4.994
24400SOL    HW275040  10.655   0.487   5.077
24401SOL     OW75041  11.081   9.385   9.879
24401SOL    HW175042  11.109   9.465   9.924
24401SOL    HW275043  11.138   9.379   9.802
24402SOL     OW75044  11.682   3.455   5.003
24402SOL    HW175045  11.639   3.507   5.070
24402SOL    HW275046  11.776   3.466   5.020
24403SOL     OW75047   8.121   3.500  12.464
24403SOL    HW175048   8.036   3.471  12.430
24403SOL    HW275049   8.121   3.474  12.556
24404SOL     OW75050   6.078   2.112   0.261
24404SOL    HW175051   6.042   2.072   0.182
24404SOL    HW275052   6.026   2.191   0.275
24405SOL     OW75053   3.549   4.697   4.169
24405SOL    HW175054   3.524   4.772   4.223
24405SOL    HW275055   3.592   4.735   4.093
24406SOL     OW75056   0.514  11.493   7.261
24406SOL    HW175057   0.419  11.482   7.262
24406SOL    HW275058   0.541  11.474   7.351
24407SOL     OW75059   6.065  12.864  10.368
24407SOL    HW175060   6.054  12.956  10.393
24407SOL    HW275061   6.149  12.839  10.407
24408SOL     OW75062   0.778   3.215   9.332
24408SOL    HW175063   0.828   3.294   9.352
24408SOL    HW275064   0.731   3.236   9.252
24409SOL     OW75065   0.272   6.946   3.403
24409SOL    HW175066   0.307   6.858   3.410
24409SOL    HW275067   0.236   6.951   3.314
24410SOL     OW75068   2.600   0.868  12.707
24410SOL    HW175069   2.656   0.941  12.734
24410SOL    HW275070   2.546   0.849  12.784
24411SOL     OW75071  14.555   6.308  12.672
24411SOL    HW175072  14.613   6.247  12.717
24411SOL    HW275073  14.515   6.359  12.743
24412SOL     OW75074   1.498   3.217  10.315
24412SOL    HW175075   1.524   3.273  10.389
24412SOL    HW275076   1.409   3.189  10.337
24413SOL     OW75077  13.541  12.339   0.191
24413SOL    HW175078  13.564  12.287   0.114
24413SOL    HW275079  13.458  12.302   0.221
24414SOL     OW75080  11.590   6.192   5.591
24414SOL    HW175081  11.585   6.287   5.578
24414SOL    HW275082  11.639   6.182   5.673
24415SOL     OW75083   2.728   0.830   7.441
24415SOL    HW175084   2.698   0.918   7.465
24415SOL    HW275085   2.812   0.820   7.484
24416SOL     OW75086  11.990  11.797   2.368
24416SOL    HW175087  11.956  11.713   2.398
24416SOL    HW275088  11.914  11.854   2.365
24417SOL     OW75089   6.022   3.031   7.394
24417SOL    HW175090   5.986   3.017   7.307
24417SOL    HW275091   5.972   2.972   7.450
24418SOL     OW75092   8.467   0.483   8.910
24418SOL    HW175093   8.510   0.566   8.889
24418SOL    HW275094   8.459   0.438   8.825
24419SOL     OW75095   9.976   0.215   5.494
24419SOL    HW175096   9.939   0.292   5.538
24419SOL    HW275097  10.002   0.157   5.566
24420SOL     OW75098  12.347   6.576  11.885
24420SOL    HW175099  12.385   6.597  11.970
24420SOL    HW275100  12.333   6.481  11.888
24421SOL     OW75101   3.224  12.946   5.622
24421SOL    HW175102   3.199  12.899   5.543
24421SOL    HW275103   3.283  12.885   5.668
24422SOL     OW75104   0.756  14.423   2.244
24422SOL    HW175105   0.776  14.511   2.212
24422SOL    HW275106   0.790  14.364   2.176
24423SOL     OW75107  12.934   0.953  10.502
24423SOL    HW175108  12.932   0.963  10.407
24423SOL    HW275109  12.861   1.006  10.534
24424SOL     OW75110   1.073   7.405   5.587
24424SOL    HW175111   1.051   7.392   5.495
24424SOL    HW275112   1.043   7.494   5.606
24425SOL     OW75113   4.598  10.629  14.606
24425SOL    HW175114   4.561  10.562  14.549
24425SOL    HW275115   4.541  10.705  14.593
24426SOL     OW75116  11.672   9.684  13.594
24426SOL    HW175117  11.752   9.702  13.544
24426SOL    HW275118  11.642   9.770  13.623
24427SOL     OW75119  11.811   9.386   8.022
24427SOL    HW175120  11.718   9.379   8.000
24427SOL    HW275121  11.854   9.323   7.964
24428SOL     OW75122  12.195   4.548  12.573
24428SOL    HW175123  12.107   4.521  12.597
24428SOL    HW275124  12.252   4.510  12.640
24429SOL     OW75125   4.937   4.518   1.927
24429SOL    HW175126   5.025   4.499   1.959
24429SOL    HW275127   4.930   4.469   1.845
24430SOL     OW75128   2.877   9.470   6.815
24430SOL    HW175129   2.834   9.500   6.895
24430SOL    HW275130   2.956   9.424   6.846
24431SOL     OW75131  13.890  11.737   5.942
24431SOL    HW175132  13.831  11.678   5.989
24431SOL    HW275133  13.835  11.812   5.919
24432SOL     OW75134  10.866   2.527  11.765
24432SOL    HW175135  10.956   2.496  11.756
24432SOL    HW275136  10.814   2.447  11.770
24433SOL     OW75137  12.970   0.150  12.810
24433SOL    HW175138  12.924   0.151  12.727
24433SOL    HW275139  12.951   0.065  12.848
24434SOL     OW75140   1.850   6.122   1.354
24434SOL    HW175141   1.814   6.206   1.325
24434SOL    HW275142   1.772   6.067   1.367
24435SOL     OW75143   3.781   3.574   1.460
24435SOL    HW175144   3.846   3.525   1.410
24435SOL    HW275145   3.720   3.508   1.492
24436SOL     OW75146   8.152   0.409   7.002
24436SOL    HW175147   8.159   0.333   7.060
24436SOL    HW275148   8.208   0.475   7.042
24437SOL     OW75149   7.865   7.062  13.035
24437SOL    HW175150   7.860   7.025  12.946
24437SOL    HW275151   7.899   7.150  13.022
24438SOL     OW75152   2.431   3.054   4.163
24438SOL    HW175153   2.430   3.082   4.254
24438SOL    HW275154   2.339   3.057   4.135
24439SOL     OW75155   6.011   9.253  10.756
24439SOL    HW175156   6.032   9.283  10.844
24439SOL    HW275157   5.998   9.159  10.765
24440SOL     OW75158   2.997   8.462   7.317
24440SOL    HW175159   3.081   8.507   7.310
24440SOL    HW275160   2.934   8.523   7.279
24441SOL     OW75161   5.423   4.976   5.571
24441SOL    HW175162   5.342   5.006   5.530
24441SOL    HW275163   5.433   4.885   5.541
24442SOL     OW75164   1.483   0.396   7.212
24442SOL    HW175165   1.571   0.426   7.192
24442SOL    HW275166   1.426   0.451   7.158
24443SOL     OW75167   4.437   0.719   3.148
24443SOL    HW175168   4.353   0.759   3.171
24443SOL    HW275169   4.467   0.678   3.230
24444SOL     OW75170   2.541  11.401  13.325
24444SOL    HW175171   2.581  11.376  13.241
24444SOL    HW275172   2.548  11.496  13.326
24445SOL     OW75173   4.022  10.405  12.075
24445SOL    HW175174   3.971  10.482  12.099
24445SOL    HW275175   4.113  10.437  12.071
24446SOL     OW75176   4.003   9.689   5.725
24446SOL    HW175177   3.910   9.709   5.723
24446SOL    HW275178   4.007   9.593   5.724
24447SOL     OW75179  13.538  14.003   7.075
24447SOL    HW175180  13.475  13.978   7.007
24447SOL    HW275181  13.616  14.029   7.027
24448SOL     OW75182  10.276  10.372   5.560
24448SOL    HW175183  10.275  10.300   5.623
24448SOL    HW275184  10.190  10.413   5.570
24449SOL     OW75185  12.064   6.886  14.068
24449SOL    HW175186  11.990   6.835  14.100
24449SOL    HW275187  12.067   6.963  14.126
24450SOL     OW75188   6.648   3.033   8.724
24450SOL    HW175189   6.631   3.127   8.727
24450SOL    HW275190   6.647   3.011   8.631
24451SOL     OW75191   0.331  13.800  10.679
24451SOL    HW175192   0.247  13.827  10.717
24451SOL    HW275193   0.331  13.705  10.686
24452SOL     OW75194   1.820   4.684   9.897
24452SOL    HW175195   1.807   4.620   9.966
24452SOL    HW275196   1.767   4.652   9.824
24453SOL     OW75197  10.144   8.112  13.334
24453SOL    HW175198  10.117   8.200  13.308
24453SOL    HW275199  10.063   8.071  13.364
24454SOL     OW75200  13.383   7.772  12.503
24454SOL    HW175201  13.372   7.865  12.523
24454SOL    HW275202  13.449   7.742  12.566
24455SOL     OW75203   4.611  14.368   4.096
24455SOL    HW175204   4.685  14.426   4.078
24455SOL    HW275205   4.649  14.295   4.146
24456SOL     OW75206  11.132   4.021  11.809
24456SOL    HW175207  11.176   3.946  11.848
24456SOL    HW275208  11.100   4.072  11.885
24457SOL     OW75209   9.569   1.995  13.781
24457SOL    HW175210   9.523   1.913  13.799
24457SOL    HW275211   9.650   1.988  13.831
24458SOL     OW75212   6.649   2.927   6.158
24458SOL    HW175213   6.579   2.984   6.190
24458SOL    HW275214   6.723   2.946   6.215
24459SOL     OW75215   9.308  10.311   3.086
24459SOL    HW175216   9.326  10.347   3.173
24459SOL    HW275217   9.309  10.216   3.099
24460SOL     OW75218   8.419   6.069   2.361
24460SOL    HW175219   8.338   6.100   2.401
24460SOL    HW275220   8.425   6.118   2.279
24461SOL     OW75221   5.298   8.471  11.524
24461SOL    HW175222   5.315   8.400  11.585
24461SOL    HW275223   5.296   8.550  11.578
24462SOL     OW75224   2.299   2.420  13.173
24462SOL    HW175225   2.297   2.437  13.079
24462SOL    HW275226   2.207   2.420  13.200
24463SOL     OW75227   5.334   2.662   6.499
24463SOL    HW175228   5.289   2.590   6.455
24463SOL    HW275229   5.426   2.637   6.500
24464SOL     OW75230   4.336   4.439   3.079
24464SOL    HW175231   4.363   4.358   3.122
24464SOL    HW275232   4.241   4.431   3.069
24465SOL     OW75233   4.149   2.513   3.976
24465SOL    HW175234   4.162   2.461   3.896
24465SOL    HW275235   4.179   2.601   3.953
24466SOL     OW75236   9.301  12.259  12.827
24466SOL    HW175237   9.214  12.271  12.788
24466SOL    HW275238   9.290  12.184  12.886
24467SOL     OW75239  12.301  12.993   5.786
24467SOL    HW175240  12.386  13.029   5.813
24467SOL    HW275241  12.318  12.950   5.703
24468SOL     OW75242  11.660   2.925  12.772
24468SOL    HW175243  11.644   2.880  12.689
24468SOL    HW275244  11.742   2.971  12.759
24469SOL     OW75245   0.387   0.643   9.707
24469SOL    HW175246   0.308   0.591   9.720
24469SOL    HW275247   0.371   0.723   9.757
24470SOL     OW75248  13.278   7.154   4.490
24470SOL    HW175249  13.242   7.132   4.576
24470SOL    HW275250  13.221   7.110   4.428
24471SOL     OW75251   1.322   8.672  13.686
24471SOL    HW175252   1.277   8.591  13.711
24471SOL    HW275253   1.414   8.656  13.710
24472SOL     OW75254   2.263   3.738  14.083
24472SOL    HW175255   2.236   3.669  14.143
24472SOL    HW275256   2.213   3.815  14.110
24473SOL     OW75257  14.307   2.920   4.746
24473SOL    HW175258  14.380   2.978   4.765
24473SOL    HW275259  14.345   2.849   4.694
24474SOL     OW75260  12.788   2.054   7.479
24474SOL    HW175261  12.743   2.032   7.560
24474SOL    HW275262  12.846   2.126   7.502
24475SOL     OW75263  10.341   3.545   4.898
24475SOL    HW175264  10.402   3.614   4.871
24475SOL    HW275265  10.364   3.528   4.990
24476SOL     OW75266  10.432   4.086  14.750
24476SOL    HW175267  10.384   4.014  14.708
24476SOL    HW275268  10.397   4.165  14.710
24477SOL     OW75269   6.984  12.510  12.899
24477SOL    HW175270   7.018  12.424  12.872
24477SOL    HW275271   7.042  12.536  12.971
24478SOL     OW75272   1.976  10.262   8.951
24478SOL    HW175273   2.031  10.192   8.915
24478SOL    HW275274   2.019  10.343   8.923
24479SOL     OW75275   9.843   7.850   4.189
24479SOL    HW175276   9.788   7.774   4.171
24479SOL    HW275277   9.781   7.922   4.202
24480SOL     OW75278  11.171  11.688   7.622
24480SOL    HW175279  11.197  11.754   7.687
24480SOL    HW275280  11.154  11.609   7.674
24481SOL     OW75281   2.224   1.527   4.822
24481SOL    HW175282   2.152   1.467   4.805
24481SOL    HW275283   2.226   1.584   4.745
24482SOL     OW75284   6.299   4.020   8.518
24482SOL    HW175285   6.346   4.099   8.494
24482SOL    HW275286   6.262   3.988   8.436
24483SOL     OW75287   2.656   2.741  12.876
24483SOL    HW175288   2.720   2.716  12.809
24483SOL    HW275289   2.665   2.837  12.883
24484SOL     OW75290  14.695  13.684   8.896
24484SOL    HW175291  14.786  13.676   8.925
24484SOL    HW275292  14.644  13.645   8.967
24485SOL     OW75293   9.158   3.357   7.118
24485SOL    HW175294   9.163   3.355   7.213
24485SOL    HW275295   9.183   3.447   7.095
24486SOL     OW75296  13.799   2.198   6.652
24486SOL    HW175297  13.737   2.271   6.655
24486SOL    HW275298  13.821   2.182   6.743
24487SOL     OW75299   8.888   6.897  13.569
24487SOL    HW175300   8.795   6.900  13.594
24487SOL    HW275301   8.896   6.961  13.498
24488SOL     OW75302   3.831   4.033  11.993
24488SOL    HW175303   3.747   4.069  11.964
24488SOL    HW275304   3.831   3.943  11.959
24489SOL     OW75305  11.530  10.318   9.867
24489SOL    HW175306  11.441  10.351   9.856
24489SOL    HW275307  11.586  10.387   9.832
24490SOL     OW75308   2.839   3.447  10.502
24490SOL    HW175309   2.893   3.521  10.530
24490SOL    HW275310   2.761   3.487  10.464
24491SOL     OW75311   2.245   3.210   1.751
24491SOL    HW175312   2.266   3.118   1.764
24491SOL    HW275313   2.150   3.215   1.759
24492SOL     OW75314   3.097  13.081  14.829
24492SOL    HW175315   3.180  13.115  14.864
24492SOL    HW275316   3.118  13.054  14.739
24493SOL     OW75317   5.466   3.736   8.986
24493SOL    HW175318   5.381   3.742   9.030
24493SOL    HW275319   5.503   3.653   9.017
24494SOL     OW75320   8.952   0.913  13.366
24494SOL    HW175321   8.980   0.998  13.333
24494SOL    HW275322   8.949   0.924  13.461
24495SOL     OW75323   5.241   0.602  13.424
24495SOL    HW175324   5.226   0.509  13.440
24495SOL    HW275325   5.154   0.641  13.423
24496SOL     OW75326   5.090   0.963   7.593
24496SOL    HW175327   5.074   0.981   7.500
24496SOL    HW275328   5.003   0.947   7.630
24497SOL     OW75329   6.862   9.381   1.244
24497SOL    HW175330   6.858   9.372   1.148
24497SOL    HW275331   6.953   9.405   1.262
24498SOL     OW75332   2.107   5.586   0.576
24498SOL    HW175333   2.153   5.639   0.511
24498SOL    HW275334   2.119   5.633   0.658
24499SOL     OW75335   4.588  13.350  13.248
24499SOL    HW175336   4.669  13.368  13.294
24499SOL    HW275337   4.519  13.375  13.309
24500SOL     OW75338   3.885  13.687   3.562
24500SOL    HW175339   3.850  13.601   3.539
24500SOL    HW275340   3.881  13.689   3.658
24501SOL     OW75341  14.867   5.172  10.445
24501SOL    HW175342   0.063   5.107  10.439
24501SOL    HW275343  14.873   5.221  10.363
24502SOL     OW75344   5.208   9.021   2.813
24502SOL    HW175345   5.292   8.996   2.852
24502SOL    HW275346   5.232   9.076   2.739
24503SOL     OW75347   8.239   0.602   4.519
24503SOL    HW175348   8.275   0.515   4.536
24503SOL    HW275349   8.214   0.635   4.605
24504SOL     OW75350   0.538  11.103  10.834
24504SOL    HW175351   0.462  11.157  10.854
24504SOL    HW275352   0.613  11.161  10.852
24505SOL     OW75353   3.073  14.770   6.678
24505SOL    HW175354   3.138  14.811   6.621
24505SOL    HW275355   3.121  14.702   6.725
24506SOL     OW75356   2.085   0.296   2.049
24506SOL    HW175357   2.029   0.370   2.072
24506SOL    HW275358   2.023   0.225   2.030
24507SOL     OW75359  11.389  14.126   9.575
24507SOL    HW175360  11.333  14.079   9.514
24507SOL    HW275361  11.449  14.177   9.520
24508SOL     OW75362   6.691   2.933  10.051
24508SOL    HW175363   6.597   2.939  10.034
24508SOL    HW275364   6.710   3.010  10.104
24509SOL     OW75365   7.096   9.084   8.664
24509SOL    HW175366   7.166   9.051   8.608
24509SOL    HW275367   7.062   9.007   8.710
24510SOL     OW75368  13.352   0.873   7.078
24510SOL    HW175369  13.443   0.887   7.050
24510SOL    HW275370  13.355   0.793   7.130
24511SOL     OW75371   4.151   9.912  13.306
24511SOL    HW175372   4.098   9.853  13.252
24511SOL    HW275373   4.100   9.993  13.311
24512SOL     OW75374   0.583   3.351  11.309
24512SOL    HW175375   0.542   3.287  11.367
24512SOL    HW275376   0.549   3.435  11.339
24513SOL     OW75377   7.956   0.229   9.363
24513SOL    HW175378   7.868   0.259   9.384
24513SOL    HW275379   8.011   0.307   9.373
24514SOL     OW75380   4.982   1.275   4.832
24514SOL    HW175381   5.020   1.205   4.885
24514SOL    HW275382   4.891   1.281   4.861
24515SOL     OW75383  11.346   3.059   8.468
24515SOL    HW175384  11.279   3.022   8.525
24515SOL    HW275385  11.419   3.080   8.527
24516SOL     OW75386   8.644   1.617  11.575
24516SOL    HW175387   8.595   1.547  11.619
24516SOL    HW275388   8.595   1.633  11.494
24517SOL     OW75389   0.185   8.201  14.212
24517SOL    HW175390   0.215   8.123  14.258
24517SOL    HW275391   0.225   8.195  14.125
24518SOL     OW75392   3.926   3.622   6.679
24518SOL    HW175393   3.939   3.665   6.763
24518SOL    HW275394   3.887   3.688   6.622
24519SOL     OW75395   5.744   8.188   3.151
24519SOL    HW175396   5.836   8.213   3.149
24519SOL    HW275397   5.718   8.187   3.059
24520SOL     OW75398   6.665   5.643   5.706
24520SOL    HW175399   6.609   5.566   5.700
24520SOL    HW275400   6.609   5.711   5.744
24521SOL     OW75401   1.915   6.147  12.234
24521SOL    HW175402   1.943   6.058  12.212
24521SOL    HW275403   1.919   6.194  12.150
24522SOL     OW75404   7.343   3.860  10.014
24522SOL    HW175405   7.432   3.879  10.043
24522SOL    HW275406   7.350   3.780   9.963
24523SOL     OW75407   5.114   5.847   4.404
24523SOL    HW175408   5.063   5.927   4.386
24523SOL    HW275409   5.116   5.841   4.499
24524SOL     OW75410   3.851   3.849   2.237
24524SOL    HW175411   3.899   3.929   2.212
24524SOL    HW275412   3.863   3.844   2.332
24525SOL     OW75413  11.359   3.314   4.466
24525SOL    HW175414  11.371   3.220   4.454
24525SOL    HW275415  11.268   3.323   4.492
24526SOL     OW75416  13.945   2.409  13.978
24526SOL    HW175417  13.890   2.441  13.906
24526SOL    HW275418  13.999   2.484  14.002
24527SOL     OW75419   0.760   0.891  14.615
24527SOL    HW175420   0.718   0.830  14.555
24527SOL    HW275421   0.782   0.838  14.691
24528SOL     OW75422   1.337   6.640   3.002
24528SOL    HW175423   1.366   6.661   3.090
24528SOL    HW275424   1.329   6.544   3.001
24529SOL     OW75425  14.135  10.972  12.075
24529SOL    HW175426  14.103  10.886  12.047
24529SOL    HW275427  14.158  11.017  11.994
24530SOL     OW75428  11.174  13.205  11.797
24530SOL    HW175429  11.244  13.266  11.774
24530SOL    HW275430  11.096  13.240  11.752
24531SOL     OW75431  14.622   2.293  10.797
24531SOL    HW175432  14.696   2.306  10.738
24531SOL    HW275433  14.550   2.268  10.740
24532SOL     OW75434   7.783   4.459   9.644
24532SOL    HW175435   7.806   4.552   9.645
24532SOL    HW275436   7.854   4.416   9.692
24533SOL     OW75437  12.036   3.304   5.966
24533SOL    HW175438  11.941   3.300   5.953
24533SOL    HW275439  12.066   3.371   5.906
24534SOL     OW75440   1.186  12.837   6.849
24534SOL    HW175441   1.143  12.784   6.916
24534SOL    HW275442   1.271  12.795   6.836
24535SOL     OW75443   1.058  10.000  12.979
24535SOL    HW175444   0.978   9.976  12.932
24535SOL    HW275445   1.028  10.054  13.053
24536SOL     OW75446   1.216   5.599   8.792
24536SOL    HW175447   1.288   5.582   8.853
24536SOL    HW275448   1.251   5.572   8.707
24537SOL     OW75449   8.157   1.033   7.516
24537SOL    HW175450   8.165   1.128   7.505
24537SOL    HW275451   8.171   0.997   7.429
24538SOL     OW75452   3.305   2.101  11.417
24538SOL    HW175453   3.310   2.195  11.400
24538SOL    HW275454   3.213   2.078  11.400
24539SOL     OW75455  13.907   7.456   9.578
24539SOL    HW175456  13.819   7.493   9.573
24539SOL    HW275457  13.919   7.434   9.671
24540SOL     OW75458   1.094   8.704   2.206
24540SOL    HW175459   1.036   8.715   2.282
24540SOL    HW275460   1.175   8.668   2.244
24541SOL     OW75461   8.458  13.044   4.745
24541SOL    HW175462   8.387  12.995   4.704
24541SOL    HW275463   8.477  13.116   4.685
24542SOL     OW75464  13.084   7.706   9.182
24542SOL    HW175465  13.166   7.665   9.209
24542SOL    HW275466  13.044   7.736   9.264
24543SOL     OW75467   0.053  13.780   1.846
24543SOL    HW175468   0.101  13.850   1.802
24543SOL    HW275469   0.090  13.778   1.935
24544SOL     OW75470   2.557   1.885  11.574
24544SOL    HW175471   2.559   1.918  11.484
24544SOL    HW275472   2.616   1.943  11.622
24545SOL     OW75473   5.952   1.741  10.266
24545SOL    HW175474   5.970   1.647  10.267
24545SOL    HW275475   5.861   1.747  10.236
24546SOL     OW75476   3.084   0.282   8.356
24546SOL    HW175477   3.065   0.370   8.325
24546SOL    HW275478   3.179   0.272   8.344
24547SOL     OW75479   0.032   3.909  10.009
24547SOL    HW175480  14.810   3.916   9.999
24547SOL    HW275481   0.064   3.999  10.001
24548SOL     OW75482  14.592   0.607  11.982
24548SOL    HW175483  14.501   0.577  11.976
24548SOL    HW275484  14.634   0.544  12.041
24549SOL     OW75485   7.869  10.019   0.118
24549SOL    HW175486   7.906  10.003   0.205
24549SOL    HW275487   7.789   9.966   0.116
24550SOL     OW75488  12.877   3.992   4.578
24550SOL    HW175489  12.866   4.086   4.560
24550SOL    HW275490  12.795   3.966   4.621
24551SOL     OW75491  13.836   3.915   3.410
24551SOL    HW175492  13.770   3.858   3.370
24551SOL    HW275493  13.807   3.924   3.501
24552SOL     OW75494   0.548   6.921   1.641
24552SOL    HW175495   0.522   6.858   1.574
24552SOL    HW275496   0.613   6.977   1.597
24553SOL     OW75497   3.257   7.272  10.371
24553SOL    HW175498   3.322   7.232  10.314
24553SOL    HW275499   3.273   7.232  10.457
24554SOL     OW75500   2.560   1.287  12.552
24554SOL    HW175501   2.548   1.287  12.646
24554SOL    HW275502   2.583   1.377  12.531
24555SOL     OW75503  13.214   6.489  11.187
24555SOL    HW175504  13.156   6.566  11.186
24555SOL    HW275505  13.190   6.440  11.108
24556SOL     OW75506   5.585   4.083   5.977
24556SOL    HW175507   5.676   4.059   5.964
24556SOL    HW275508   5.567   4.062   6.069
24557SOL     OW75509   1.611   2.902   5.494
24557SOL    HW175510   1.537   2.957   5.467
24557SOL    HW275511   1.571   2.824   5.532
24558SOL     OW75512   6.273   1.906   9.588
24558SOL    HW175513   6.195   1.852   9.600
24558SOL    HW275514   6.301   1.927   9.677
24559SOL     OW75515   1.154   3.399   0.202
24559SOL    HW175516   1.223   3.342   0.168
24559SOL    HW275517   1.151   3.473   0.141
24560SOL     OW75518   7.080  14.492  13.813
24560SOL    HW175519   7.097  14.564  13.752
24560SOL    HW275520   6.993  14.460  13.788
24561SOL     OW75521   6.682   6.419  14.718
24561SOL    HW175522   6.636   6.429  14.801
24561SOL    HW275523   6.762   6.469  14.728
24562SOL     OW75524  14.365  14.026   4.230
24562SOL    HW175525  14.348  13.969   4.305
24562SOL    HW275526  14.286  14.078   4.221
24563SOL     OW75527   1.347  12.043  13.758
24563SOL    HW175528   1.402  11.979  13.712
24563SOL    HW275529   1.288  11.991  13.812
24564SOL     OW75530   5.511   9.545  12.416
24564SOL    HW175531   5.485   9.475  12.356
24564SOL    HW275532   5.606   9.538  12.421
24565SOL     OW75533   4.861   8.597   9.935
24565SOL    HW175534   4.867   8.690   9.912
24565SOL    HW275535   4.829   8.596  10.025
24566SOL     OW75536   8.390  10.163  14.309
24566SOL    HW175537   8.384  10.245  14.357
24566SOL    HW275538   8.456  10.180  14.241
24567SOL     OW75539   2.070   7.229   5.304
24567SOL    HW175540   2.073   7.263   5.215
24567SOL    HW275541   2.085   7.135   5.295
24568SOL     OW75542  13.114   5.314   4.193
24568SOL    HW175543  13.082   5.349   4.110
24568SOL    HW275544  13.045   5.255   4.223
24569SOL     OW75545   3.690  10.554   4.327
24569SOL    HW175546   3.640  10.578   4.405
24569SOL    HW275547   3.757  10.622   4.319
24570SOL     OW75548   8.526   5.700   2.147
24570SOL    HW175549   8.577   5.745   2.214
24570SOL    HW275550   8.538   5.607   2.166
24571SOL     OW75551  10.228   3.761  10.730
24571SOL    HW175552  10.238   3.681  10.782
24571SOL    HW275553  10.166   3.814  10.781
24572SOL     OW75554   7.630   1.852  11.523
24572SOL    HW175555   7.693   1.780  11.524
24572SOL    HW275556   7.621   1.878  11.615
24573SOL     OW75557   6.121   2.698   7.700
24573SOL    HW175558   6.095   2.786   7.727
24573SOL    HW275559   6.040   2.648   7.700
24574SOL     OW75560  14.221   4.823  12.809
24574SOL    HW175561  14.190   4.755  12.750
24574SOL    HW275562  14.142   4.854  12.854
24575SOL     OW75563  13.978  10.786   0.473
24575SOL    HW175564  14.025  10.736   0.540
24575SOL    HW275565  14.024  10.766   0.392
24576SOL     OW75566   4.789   9.280   4.695
24576SOL    HW175567   4.834   9.349   4.744
24576SOL    HW275568   4.755   9.221   4.762
24577SOL     OW75569   0.698  10.801   1.951
24577SOL    HW175570   0.682  10.754   2.032
24577SOL    HW275571   0.740  10.883   1.979
24578SOL     OW75572   9.990  10.918   4.329
24578SOL    HW175573   9.911  10.909   4.381
24578SOL    HW275574  10.052  10.856   4.368
24579SOL     OW75575  12.080  11.812   7.321
24579SOL    HW175576  12.111  11.814   7.231
24579SOL    HW275577  12.003  11.755   7.319
24580SOL     OW75578  13.397   4.282  14.256
24580SOL    HW175579  13.427   4.369  14.281
24580SOL    HW275580  13.350   4.296  14.173
24581SOL     OW75581   3.077   6.070   1.885
24581SOL    HW175582   3.074   6.076   1.980
24581SOL    HW275583   3.106   5.980   1.867
24582SOL     OW75584   9.208  14.843  10.651
24582SOL    HW175585   9.273  14.854  10.721
24582SOL    HW275586   9.260  14.833  10.572
24583SOL     OW75587  13.811   3.889  10.196
24583SOL    HW175588  13.849   3.839  10.124
24583SOL    HW275589  13.749   3.949  10.153
24584SOL     OW75590   7.749  13.124   2.540
24584SOL    HW175591   7.673  13.068   2.521
24584SOL    HW275592   7.795  13.078   2.611
24585SOL     OW75593   8.772  13.930   7.235
24585SOL    HW175594   8.816  13.982   7.167
24585SOL    HW275595   8.839  13.916   7.302
24586SOL     OW75596   9.423   7.342   0.506
24586SOL    HW175597   9.430   7.358   0.412
24586SOL    HW275598   9.514   7.336   0.536
24587SOL     OW75599   5.930   4.426   3.462
24587SOL    HW175600   5.873   4.498   3.488
24587SOL    HW275601   6.017   4.451   3.495
24588SOL     OW75602   8.474   3.476   3.448
24588SOL    HW175603   8.531   3.457   3.373
24588SOL    HW275604   8.526   3.534   3.503
24589SOL     OW75605   5.965  11.338  12.184
24589SOL    HW175606   5.956  11.393  12.106
24589SOL    HW275607   5.876  11.308  12.203
24590SOL     OW75608  12.194  12.176  13.778
24590SOL    HW175609  12.166  12.088  13.804
24590SOL    HW275610  12.151  12.191  13.694
24591SOL     OW75611  13.045  12.830  10.096
24591SOL    HW175612  12.959  12.869  10.081
24591SOL    HW275613  13.026  12.750  10.145
24592SOL     OW75614   1.492   8.396   2.679
24592SOL    HW175615   1.439   8.387   2.600
24592SOL    HW275616   1.428   8.407   2.750
24593SOL     OW75617   4.265   8.675   8.371
24593SOL    HW175618   4.176   8.684   8.406
24593SOL    HW275619   4.320   8.729   8.427
24594SOL     OW75620   2.618   2.603   1.179
24594SOL    HW175621   2.568   2.649   1.246
24594SOL    HW275622   2.626   2.665   1.107
24595SOL     OW75623   3.108   4.155  12.429
24595SOL    HW175624   3.162   4.166  12.351
24595SOL    HW275625   3.104   4.060  12.441
24596SOL     OW75626  13.959   7.091   6.909
24596SOL    HW175627  13.945   7.024   6.843
24596SOL    HW275628  13.886   7.153   6.897
24597SOL     OW75629   8.500   2.171   1.285
24597SOL    HW175630   8.517   2.134   1.198
24597SOL    HW275631   8.441   2.108   1.327
24598SOL     OW75632   5.896   5.345   4.507
24598SOL    HW175633   5.865   5.320   4.420
24598SOL    HW275634   5.817   5.346   4.561
24599SOL     OW75635   6.076   0.809   8.307
24599SOL    HW175636   6.138   0.784   8.376
24599SOL    HW275637   6.067   0.903   8.316
24600SOL     OW75638   3.954   5.858   3.778
24600SOL    HW175639   4.020   5.915   3.739
24600SOL    HW275640   3.954   5.880   3.871
24601SOL     OW75641   0.729   7.687   3.568
24601SOL    HW175642   0.806   7.716   3.616
24601SOL    HW275643   0.763   7.634   3.497
24602SOL     OW75644  14.162  14.031   3.288
24602SOL    HW175645  14.097  14.095   3.316
24602SOL    HW275646  14.113  13.948   3.285
24603SOL     OW75647  14.672  10.719   8.434
24603SOL    HW175648  14.626  10.798   8.462
24603SOL    HW275649  14.761  10.749   8.416
24604SOL     OW75650   0.697   8.898   3.220
24604SOL    HW175651   0.607   8.871   3.200
24604SOL    HW275652   0.730   8.828   3.277
24605SOL     OW75653   8.326   6.415   8.656
24605SOL    HW175654   8.347   6.323   8.637
24605SOL    HW275655   8.380   6.436   8.732
24606SOL     OW75656   1.414  11.432   8.670
24606SOL    HW175657   1.351  11.369   8.705
24606SOL    HW275658   1.466  11.458   8.746
24607SOL     OW75659   3.880  10.565   1.977
24607SOL    HW175660   3.864  10.658   1.996
24607SOL    HW275661   3.950  10.540   2.037
24608SOL     OW75662   0.147   3.182   2.003
24608SOL    HW175663   0.078   3.122   2.033
24608SOL    HW275664   0.204   3.192   2.080
24609SOL     OW75665  12.510   4.302   9.665
24609SOL    HW175666  12.485   4.381   9.616
24609SOL    HW275667  12.464   4.312   9.749
24610SOL     OW75668   2.845   0.540  10.371
24610SOL    HW175669   2.809   0.463  10.327
24610SOL    HW275670   2.938   0.520  10.384
24611SOL     OW75671  12.561   4.203   6.278
24611SOL    HW175672  12.523   4.257   6.348
24611SOL    HW275673  12.489   4.189   6.217
24612SOL     OW75674  13.621   8.980   4.108
24612SOL    HW175675  13.580   8.934   4.181
24612SOL    HW275676  13.709   9.002   4.140
24613SOL     OW75677   9.083   7.275  12.954
24613SOL    HW175678   9.069   7.181  12.962
24613SOL    HW275679   9.062   7.310  13.040
24614SOL     OW75680   3.341   9.253   3.914
24614SOL    HW175681   3.282   9.313   3.958
24614SOL    HW275682   3.427   9.272   3.951
24615SOL     OW75683  13.234   3.744   9.959
24615SOL    HW175684  13.224   3.708   9.871
24615SOL    HW275685  13.207   3.835   9.952
24616SOL     OW75686  12.633   2.839  13.039
24616SOL    HW175687  12.644   2.929  13.007
24616SOL    HW275688  12.722   2.806  13.049
24617SOL     OW75689   2.475  11.032   7.416
24617SOL    HW175690   2.569  11.044   7.426
24617SOL    HW275691   2.464  11.003   7.325
24618SOL     OW75692  13.756   5.655   0.785
24618SOL    HW175693  13.821   5.589   0.763
24618SOL    HW275694  13.673   5.619   0.753
24619SOL     OW75695   5.305   7.763  11.554
24619SOL    HW175696   5.224   7.801  11.520
24619SOL    HW275697   5.293   7.762  11.649
24620SOL     OW75698   8.346  10.067   3.357
24620SOL    HW175699   8.353  10.038   3.267
24620SOL    HW275700   8.331  10.161   3.351
24621SOL     OW75701  12.858  10.018  14.834
24621SOL    HW175702  12.851  10.104  14.794
24621SOL    HW275703  12.927  10.027   0.027
24622SOL     OW75704  11.603   4.589   7.077
24622SOL    HW175705  11.639   4.657   7.020
24622SOL    HW275706  11.555   4.638   7.145
24623SOL     OW75707  10.412  12.700   6.078
24623SOL    HW175708  10.452  12.614   6.084
24623SOL    HW275709  10.324  12.688   6.113
24624SOL     OW75710  13.757  14.732  10.315
24624SOL    HW175711  13.829  14.676  10.345
24624SOL    HW275712  13.746  14.709  10.223
24625SOL     OW75713   7.213   1.389  11.032
24625SOL    HW175714   7.141   1.443  11.066
24625SOL    HW275715   7.229   1.422  10.944
24626SOL     OW75716  12.492   6.056  11.765
24626SOL    HW175717  12.502   6.055  11.670
24626SOL    HW275718  12.463   5.967  11.787
24627SOL     OW75719   7.562   9.767   0.607
24627SOL    HW175720   7.584   9.859   0.619
24627SOL    HW275721   7.522   9.763   0.520
24628SOL     OW75722   6.070   1.831  10.038
24628SOL    HW175723   6.105   1.916  10.067
24628SOL    HW275724   6.025   1.797  10.116
24629SOL     OW75725   6.910   8.481  12.534
24629SOL    HW175726   6.979   8.414  12.529
24629SOL    HW275727   6.856   8.465  12.457
24630SOL     OW75728   6.912   6.616   2.857
24630SOL    HW175729   6.943   6.564   2.784
24630SOL    HW275730   6.886   6.552   2.923
24631SOL     OW75731   5.505  13.109   3.942
24631SOL    HW175732   5.550  13.127   3.860
24631SOL    HW275733   5.419  13.149   3.932
24632SOL     OW75734  11.593  10.662  13.471
24632SOL    HW175735  11.570  10.716  13.395
24632SOL    HW275736  11.540  10.698  13.542
24633SOL     OW75737  10.400   4.218  11.929
24633SOL    HW175738  10.380   4.300  11.884
24633SOL    HW275739  10.372   4.150  11.867
24634SOL     OW75740   0.144   4.161   9.993
24634SOL    HW175741   0.180   4.204   9.916
24634SOL    HW275742   0.116   4.234  10.049
24635SOL     OW75743   3.104   7.145   2.038
24635SOL    HW175744   3.062   7.085   1.977
24635SOL    HW275745   3.194   7.112   2.047
24636SOL     OW75746   7.764   9.392   3.001
24636SOL    HW175747   7.806   9.439   2.929
24636SOL    HW275748   7.728   9.461   3.057
24637SOL     OW75749  13.498   0.632   4.819
24637SOL    HW175750  13.480   0.696   4.887
24637SOL    HW275751  13.414   0.616   4.778
24638SOL     OW75752   2.538   5.601   4.395
24638SOL    HW175753   2.590   5.632   4.320
24638SOL    HW275754   2.563   5.658   4.467
24639SOL     OW75755   1.243   1.946   7.445
24639SOL    HW175756   1.302   1.934   7.519
24639SOL    HW275757   1.264   1.874   7.385
24640SOL     OW75758   5.991   5.804   8.800
24640SOL    HW175759   6.025   5.777   8.885
24640SOL    HW275760   6.018   5.895   8.791
24641SOL     OW75761   5.592  13.391   6.756
24641SOL    HW175762   5.605  13.330   6.829
24641SOL    HW275763   5.501  13.419   6.765
24642SOL     OW75764   1.050  14.646   7.888
24642SOL    HW175765   1.042  14.731   7.846
24642SOL    HW275766   1.082  14.588   7.819
24643SOL     OW75767  11.530   3.504   3.153
24643SOL    HW175768  11.458   3.562   3.127
24643SOL    HW275769  11.545   3.523   3.245
24644SOL     OW75770   8.018   1.128  11.528
24644SOL    HW175771   8.015   1.032  11.526
24644SOL    HW275772   7.968   1.156  11.452
24645SOL     OW75773   5.478   7.186   9.851
24645SOL    HW175774   5.570   7.166   9.867
24645SOL    HW275775   5.461   7.264   9.902
24646SOL     OW75776   6.884   0.541   7.596
24646SOL    HW175777   6.942   0.565   7.523
24646SOL    HW275778   6.804   0.510   7.553
24647SOL     OW75779  10.650   8.014   2.361
24647SOL    HW175780  10.684   7.965   2.436
24647SOL    HW275781  10.560   8.034   2.384
24648SOL     OW75782   7.890  11.997   2.279
24648SOL    HW175783   7.825  12.046   2.228
24648SOL    HW275784   7.941  12.065   2.323
24649SOL     OW75785  14.658   5.739  12.284
24649SOL    HW175786  14.640   5.649  12.313
24649SOL    HW275787  14.622   5.744  12.196
24650SOL     OW75788   7.853   5.502   1.842
24650SOL    HW175789   7.783   5.567   1.842
24650SOL    HW275790   7.897   5.514   1.926
24651SOL     OW75791  13.478   1.120  12.123
24651SOL    HW175792  13.519   1.175  12.055
24651SOL    HW275793  13.517   1.150  12.205
24652SOL     OW75794   3.086  13.740   5.267
24652SOL    HW175795   3.174  13.766   5.294
24652SOL    HW275796   3.074  13.784   5.182
24653SOL     OW75797   0.205   8.184   4.970
24653SOL    HW175798   0.228   8.277   4.971
24653SOL    HW275799   0.113   8.182   4.947
24654SOL     OW75800   2.768  12.656   0.496
24654SOL    HW175801   2.760  12.720   0.566
24654SOL    HW275802   2.858  12.665   0.464
24655SOL     OW75803   6.647   5.058   2.117
24655SOL    HW175804   6.684   5.137   2.079
24655SOL    HW275805   6.608   5.012   2.043
24656SOL     OW75806  11.372  14.492   8.350
24656SOL    HW175807  11.461  14.490   8.315
24656SOL    HW275808  11.371  14.568   8.408
24657SOL     OW75809   0.376   7.657   0.809
24657SOL    HW175810   0.338   7.745   0.815
24657SOL    HW275811   0.317   7.609   0.752
24658SOL     OW75812  12.921  10.689   7.526
24658SOL    HW175813  12.947  10.652   7.610
24658SOL    HW275814  12.938  10.619   7.463
24659SOL     OW75815   5.108   8.643   5.230
24659SOL    HW175816   5.128   8.584   5.157
24659SOL    HW275817   5.116   8.589   5.308
24660SOL     OW75818  14.581  12.692   7.481
24660SOL    HW175819  14.500  12.738   7.503
24660SOL    HW275820  14.556  12.630   7.413
24661SOL     OW75821   5.312   8.762  14.557
24661SOL    HW175822   5.405   8.752  14.575
24661SOL    HW275823   5.292   8.693  14.493
24662SOL     OW75824   4.057   6.625   4.979
24662SOL    HW175825   3.981   6.588   5.024
24662SOL    HW275826   4.111   6.549   4.957
24663SOL     OW75827   3.723   0.524   8.053
24663SOL    HW175828   3.646   0.581   8.052
24663SOL    HW275829   3.708   0.463   8.124
24664SOL     OW75830   1.474  13.289   4.197
24664SOL    HW175831   1.458  13.383   4.197
24664SOL    HW275832   1.396  13.251   4.157
24665SOL     OW75833   0.341   5.341  11.647
24665SOL    HW175834   0.284   5.320  11.572
24665SOL    HW275835   0.303   5.421  11.684
24666SOL     OW75836  12.306   1.521   3.674
24666SOL    HW175837  12.310   1.584   3.745
24666SOL    HW275838  12.379   1.461   3.690
24667SOL     OW75839   5.690   2.674  14.640
24667SOL    HW175840   5.772   2.723  14.630
24667SOL    HW275841   5.693   2.608  14.571
24668SOL     OW75842   6.505   4.068   9.243
24668SOL    HW175843   6.510   4.008   9.317
24668SOL    HW275844   6.417   4.105   9.249
24669SOL     OW75845   4.662   4.192   2.499
24669SOL    HW175846   4.699   4.149   2.575
24669SOL    HW275847   4.579   4.146   2.483
24670SOL     OW75848  12.326   9.137  13.138
24670SOL    HW175849  12.236   9.104  13.141
24670SOL    HW275850  12.373   9.075  13.083
24671SOL     OW75851  10.410   8.530   0.581
24671SOL    HW175852  10.367   8.592   0.522
24671SOL    HW275853  10.428   8.581   0.660
24672SOL     OW75854   1.357   6.323   3.965
24672SOL    HW175855   1.269   6.356   3.947
24672SOL    HW275856   1.412   6.401   3.969
24673SOL     OW75857   9.741   6.239  11.736
24673SOL    HW175858   9.706   6.282  11.659
24673SOL    HW275859   9.680   6.168  11.754
24674SOL     OW75860  10.147   5.335   3.585
24674SOL    HW175861  10.147   5.335   3.681
24674SOL    HW275862  10.154   5.428   3.562
24675SOL     OW75863  14.481  10.392   5.151
24675SOL    HW175864  14.525  10.476   5.141
24675SOL    HW275865  14.410  10.395   5.086
24676SOL     OW75866   2.184  14.470   5.426
24676SOL    HW175867   2.241  14.393   5.419
24676SOL    HW275868   2.096  14.433   5.436
24677SOL     OW75869   2.050  10.532   5.477
24677SOL    HW175870   1.963  10.556   5.508
24677SOL    HW275871   2.067  10.446   5.515
24678SOL     OW75872   3.744   0.347   8.291
24678SOL    HW175873   3.715   0.266   8.332
24678SOL    HW275874   3.835   0.329   8.264
24679SOL     OW75875   3.685   7.273  12.130
24679SOL    HW175876   3.761   7.246  12.077
24679SOL    HW275877   3.648   7.191  12.163
24680SOL     OW75878   3.377   3.741   4.028
24680SOL    HW175879   3.294   3.764   4.069
24680SOL    HW275880   3.430   3.705   4.100
24681SOL     OW75881  11.312   2.277   2.957
24681SOL    HW175882  11.320   2.359   3.006
24681SOL    HW275883  11.241   2.230   3.001
24682SOL     OW75884   9.099  11.235   0.813
24682SOL    HW175885   9.105  11.249   0.718
24682SOL    HW275886   9.013  11.195   0.826
24683SOL     OW75887   0.424   2.568   8.381
24683SOL    HW175888   0.359   2.595   8.446
24683SOL    HW275889   0.447   2.648   8.335
24684SOL     OW75890   7.735  13.643   1.954
24684SOL    HW175891   7.702  13.689   1.877
24684SOL    HW275892   7.660  13.594   1.987
24685SOL     OW75893   8.593   7.486   3.628
24685SOL    HW175894   8.537   7.561   3.609
24685SOL    HW275895   8.664   7.493   3.563
24686SOL     OW75896   7.974   1.370  10.880
24686SOL    HW175897   8.065   1.375  10.909
24686SOL    HW275898   7.978   1.379  10.785
24687SOL     OW75899  12.672   4.734   4.779
24687SOL    HW175900  12.602   4.721   4.843
24687SOL    HW275901  12.746   4.765   4.830
24688SOL     OW75902   8.382   5.599   9.457
24688SOL    HW175903   8.416   5.598   9.367
24688SOL    HW275904   8.415   5.518   9.496
24689SOL     OW75905   7.842   8.675  10.189
24689SOL    HW175906   7.781   8.736  10.230
24689SOL    HW275907   7.795   8.642  10.113
24690SOL     OW75908  11.691   5.690   3.459
24690SOL    HW175909  11.638   5.748   3.514
24690SOL    HW275910  11.747   5.643   3.521
24691SOL     OW75911   4.453   7.323  12.916
24691SOL    HW175912   4.362   7.331  12.885
24691SOL    HW275913   4.483   7.414  12.926
24692SOL     OW75914  11.526  13.204   5.444
24692SOL    HW175915  11.570  13.120   5.453
24692SOL    HW275916  11.548  13.251   5.525
24693SOL     OW75917   1.277  14.742   0.708
24693SOL    HW175918   1.304  14.821   0.661
24693SOL    HW275919   1.186  14.759   0.733
24694SOL     OW75920   4.416   8.275   7.300
24694SOL    HW175921   4.391   8.186   7.272
24694SOL    HW275922   4.435   8.266   7.393
24695SOL     OW75923   8.168  11.389  13.110
24695SOL    HW175924   8.193  11.335  13.035
24695SOL    HW275925   8.139  11.472  13.071
24696SOL     OW75926  14.546   6.570   0.624
24696SOL    HW175927  14.498   6.572   0.707
24696SOL    HW275928  14.559   6.662   0.603
24697SOL     OW75929   5.572   6.105   4.958
24697SOL    HW175930   5.653   6.087   4.910
24697SOL    HW275931   5.534   6.181   4.914
24698SOL     OW75932   8.056  10.015  12.052
24698SOL    HW175933   8.034   9.999  12.143
24698SOL    HW275934   8.090   9.931  12.020
24699SOL     OW75935   4.577   8.789   2.927
24699SOL    HW175936   4.484   8.804   2.910
24699SOL    HW275937   4.607   8.736   2.853
24700SOL     OW75938   8.830   9.111  13.039
24700SOL    HW175939   8.781   9.107  12.956
24700SOL    HW275940   8.797   9.189  13.082
24701SOL     OW75941  12.858   2.997   4.861
24701SOL    HW175942  12.931   3.028   4.914
24701SOL    HW275943  12.874   3.035   4.774
24702SOL     OW75944   6.353   3.283  12.869
24702SOL    HW175945   6.362   3.366  12.824
24702SOL    HW275946   6.422   3.283  12.935
24703SOL     OW75947   4.949   5.474   8.037
24703SOL    HW175948   4.869   5.495   8.086
24703SOL    HW275949   4.991   5.404   8.087
24704SOL     OW75950   0.214   1.014   4.279
24704SOL    HW175951   0.186   1.081   4.216
24704SOL    HW275952   0.248   1.065   4.353
24705SOL     OW75953   1.618   0.253   7.438
24705SOL    HW175954   1.581   0.287   7.357
24705SOL    HW275955   1.708   0.228   7.415
24706SOL     OW75956  14.266   7.739   1.347
24706SOL    HW175957  14.187   7.746   1.294
24706SOL    HW275958  14.248   7.791   1.425
24707SOL     OW75959   0.574   4.615   8.096
24707SOL    HW175960   0.649   4.607   8.037
24707SOL    HW275961   0.512   4.669   8.048
24708SOL     OW75962   4.382   8.634  12.296
24708SOL    HW175963   4.474   8.618  12.313
24708SOL    HW275964   4.337   8.595  12.371
24709SOL     OW75965   4.465  14.432   9.691
24709SOL    HW175966   4.534  14.368   9.708
24709SOL    HW275967   4.480  14.460   9.600
24710SOL     OW75968  13.444   6.000   0.401
24710SOL    HW175969  13.418   5.922   0.450
24710SOL    HW275970  13.535   6.015   0.426
24711SOL     OW75971   9.499   3.426   7.402
24711SOL    HW175972   9.487   3.463   7.315
24711SOL    HW275973   9.492   3.331   7.389
24712SOL     OW75974   7.435   8.029   6.253
24712SOL    HW175975   7.431   8.124   6.244
24712SOL    HW275976   7.402   7.995   6.169
24713SOL     OW75977   2.874   0.621   8.966
24713SOL    HW175978   2.920   0.703   8.983
24713SOL    HW275979   2.911   0.559   9.029
24714SOL     OW75980   3.623  10.947   7.891
24714SOL    HW175981   3.632  11.007   7.965
24714SOL    HW275982   3.663  10.866   7.921
24715SOL     OW75983   4.487  14.231  13.972
24715SOL    HW175984   4.410  14.284  13.950
24715SOL    HW275985   4.513  14.190  13.889
24716SOL     OW75986   4.883  10.358   1.777
24716SOL    HW175987   4.830  10.373   1.855
24716SOL    HW275988   4.847  10.419   1.712
24717SOL     OW75989   6.801   9.129   1.355
24717SOL    HW175990   6.799   9.216   1.314
24717SOL    HW275991   6.759   9.142   1.440
24718SOL     OW75992   4.531  14.178   2.264
24718SOL    HW175993   4.460  14.168   2.327
24718SOL    HW275994   4.534  14.095   2.217
24719SOL     OW75995  11.553  11.979   5.591
24719SOL    HW175996  11.596  12.057   5.556
24719SOL    HW275997  11.624  11.924   5.622
24720SOL     OW75998  10.758   7.424   2.336
24720SOL    HW175999  10.710   7.499   2.370
24720SOL    HW276000  10.810   7.393   2.411
24721SOL     OW76001   0.813  11.339   3.364
24721SOL    HW176002   0.718  11.345   3.353
24721SOL    HW276003   0.832  11.398   3.437
24722SOL     OW76004  12.534  13.562   9.546
24722SOL    HW176005  12.609  13.621   9.550
24722SOL    HW276006  12.569  13.476   9.570
24723SOL     OW76007  11.292  11.699   1.224
24723SOL    HW176008  11.202  11.701   1.258
24723SOL    HW276009  11.347  11.716   1.300
24724SOL     OW76010  14.110  12.879   7.463
24724SOL    HW176011  14.053  12.801   7.461
24724SOL    HW276012  14.063  12.941   7.519
24725SOL     OW76013   8.501   3.683   4.705
24725SOL    HW176014   8.571   3.731   4.748
24725SOL    HW276015   8.421   3.730   4.729
24726SOL     OW76016   8.152   8.482   5.155
24726SOL    HW176017   8.200   8.417   5.104
24726SOL    HW276018   8.219   8.539   5.191
24727SOL     OW76019  10.740   5.277   0.381
24727SOL    HW176020  10.711   5.189   0.358
24727SOL    HW276021  10.816   5.264   0.437
24728SOL     OW76022  13.157   8.466   1.661
24728SOL    HW176023  13.190   8.477   1.751
24728SOL    HW276024  13.188   8.380   1.634
24729SOL     OW76025   7.073  14.452   7.428
24729SOL    HW176026   7.099  14.366   7.395
24729SOL    HW276027   7.084  14.444   7.523
24730SOL     OW76028   7.694   3.963  12.873
24730SOL    HW176029   7.687   3.912  12.792
24730SOL    HW276030   7.619   3.935  12.925
24731SOL     OW76031  13.983   9.958   5.919
24731SOL    HW176032  14.043  10.027   5.889
24731SOL    HW276033  13.896   9.997   5.909
24732SOL     OW76034   8.577   3.584  11.329
24732SOL    HW176035   8.593   3.635  11.249
24732SOL    HW276036   8.665   3.556  11.357
24733SOL     OW76037   8.903  13.496  11.995
24733SOL    HW176038   8.937  13.408  11.976
24733SOL    HW276039   8.981  13.551  12.001
24734SOL     OW76040   3.754   4.000  10.380
24734SOL    HW176041   3.840   3.956  10.384
24734SOL    HW276042   3.770   4.079  10.329
24735SOL     OW76043   3.181  12.940  11.925
24735SOL    HW176044   3.265  12.984  11.912
24735SOL    HW276045   3.191  12.893  12.008
24736SOL     OW76046  10.401   1.541   7.654
24736SOL    HW176047  10.353   1.539   7.571
24736SOL    HW276048  10.492   1.525   7.629
24737SOL     OW76049  10.509   2.817   3.221
24737SOL    HW176050  10.496   2.771   3.303
24737SOL    HW276051  10.422   2.824   3.182
24738SOL     OW76052  14.642   3.533  13.149
24738SOL    HW176053  14.617   3.601  13.212
24738SOL    HW276054  14.560   3.486  13.133
24739SOL     OW76055  10.193   5.564  13.766
24739SOL    HW176056  10.207   5.601  13.679
24739SOL    HW276057  10.108   5.599  13.793
24740SOL     OW76058  11.817   7.185   0.769
24740SOL    HW176059  11.730   7.218   0.792
24740SOL    HW276060  11.801   7.099   0.732
24741SOL     OW76061   1.205   0.692   3.603
24741SOL    HW176062   1.124   0.727   3.640
24741SOL    HW276063   1.265   0.685   3.677
24742SOL     OW76064   3.211   2.554  10.528
24742SOL    HW176065   3.148   2.625  10.538
24742SOL    HW276066   3.291   2.598  10.498
24743SOL     OW76067  11.801   8.041   4.604
24743SOL    HW176068  11.855   8.120   4.594
24743SOL    HW276069  11.856   7.969   4.574
24744SOL     OW76070   9.924   8.406   9.671
24744SOL    HW176071   9.998   8.414   9.731
24744SOL    HW276072   9.847   8.400   9.729
24745SOL     OW76073   1.106   4.978   0.659
24745SOL    HW176074   1.138   4.935   0.580
24745SOL    HW276075   1.142   5.067   0.654
24746SOL     OW76076   5.485   5.107  12.474
24746SOL    HW176077   5.431   5.045  12.524
24746SOL    HW276078   5.442   5.192  12.488
24747SOL     OW76079  13.090  10.637  13.101
24747SOL    HW176080  13.033  10.615  13.174
24747SOL    HW276081  13.153  10.565  13.097
24748SOL     OW76082  13.267  11.147   9.110
24748SOL    HW176083  13.220  11.203   9.050
24748SOL    HW276084  13.279  11.200   9.189
24749SOL     OW76085  11.012   5.437  13.255
24749SOL    HW176086  10.934   5.489  13.276
24749SOL    HW276087  10.993   5.399  13.169
24750SOL     OW76088  13.260  10.197   2.287
24750SOL    HW176089  13.248  10.131   2.218
24750SOL    HW276090  13.302  10.271   2.242
24751SOL     OW76091  11.182  13.764   6.988
24751SOL    HW176092  11.103  13.774   7.040
24751SOL    HW276093  11.218  13.853   6.982
24752SOL     OW76094   7.690   3.790  12.675
24752SOL    HW176095   7.759   3.814  12.612
24752SOL    HW276096   7.722   3.712  12.718
24753SOL     OW76097  10.583   8.106   4.818
24753SOL    HW176098  10.572   8.197   4.847
24753SOL    HW276099  10.497   8.081   4.783
24754SOL     OW76100   4.995   1.091   5.340
24754SOL    HW176101   5.069   1.132   5.295
24754SOL    HW276102   4.923   1.095   5.278
24755SOL     OW76103   6.939  10.769  12.716
24755SOL    HW176104   6.927  10.833  12.786
24755SOL    HW276105   6.988  10.815  12.648
24756SOL     OW76106   5.675  11.661  10.974
24756SOL    HW176107   5.638  11.575  10.996
24756SOL    HW276108   5.749  11.671  11.033
24757SOL     OW76109   4.138   1.851   3.467
24757SOL    HW176110   4.079   1.804   3.525
24757SOL    HW276111   4.088   1.864   3.387
24758SOL     OW76112   7.781  11.259  13.420
24758SOL    HW176113   7.789  11.268  13.515
24758SOL    HW276114   7.869  11.275  13.386
24759SOL     OW76115   8.413  12.004  13.867
24759SOL    HW176116   8.334  11.989  13.816
24759SOL    HW276117   8.412  12.099  13.884
24760SOL     OW76118   6.622   2.170   5.229
24760SOL    HW176119   6.593   2.249   5.274
24760SOL    HW276120   6.687   2.131   5.288
24761SOL     OW76121   7.681   9.523   8.102
24761SOL    HW176122   7.623   9.555   8.172
24761SOL    HW276123   7.719   9.443   8.138
24762SOL     OW76124  10.597   7.327   5.107
24762SOL    HW176125  10.604   7.292   5.196
24762SOL    HW276126  10.659   7.276   5.055
24763SOL     OW76127   4.556   8.489  13.162
24763SOL    HW176128   4.558   8.444  13.078
24763SOL    HW276129   4.500   8.565  13.147
24764SOL     OW76130   6.841  13.627   5.720
24764SOL    HW176131   6.877  13.632   5.808
24764SOL    HW276132   6.917  13.635   5.662
24765SOL     OW76133   4.752  11.029   0.252
24765SOL    HW176134   4.749  11.067   0.339
24765SOL    HW276135   4.844  11.009   0.237
24766SOL     OW76136   8.752   4.746   5.039
24766SOL    HW176137   8.730   4.820   4.984
24766SOL    HW276138   8.845   4.757   5.060
24767SOL     OW76139   0.607  10.791   3.676
24767SOL    HW176140   0.578  10.785   3.767
24767SOL    HW276141   0.681  10.852   3.679
24768SOL     OW76142  10.327  10.615   7.029
24768SOL    HW176143  10.418  10.585   7.035
24768SOL    HW276144  10.289  10.593   7.114
24769SOL     OW76145   8.682   5.262   8.023
24769SOL    HW176146   8.734   5.335   8.056
24769SOL    HW276147   8.733   5.228   7.949
24770SOL     OW76148   4.171   8.037   6.964
24770SOL    HW176149   4.140   8.000   7.046
24770SOL    HW276150   4.179   7.962   6.905
24771SOL     OW76151   4.758   7.484   6.811
24771SOL    HW176152   4.733   7.558   6.755
24771SOL    HW276153   4.842   7.511   6.849
24772SOL     OW76154  11.190  13.601   7.721
24772SOL    HW176155  11.229  13.550   7.650
24772SOL    HW276156  11.105  13.629   7.687
24773SOL     OW76157   6.018  12.681   6.327
24773SOL    HW176158   5.924  12.697   6.328
24773SOL    HW276159   6.038  12.647   6.414
24774SOL     OW76160   1.284  10.547   5.532
24774SOL    HW176161   1.343  10.619   5.554
24774SOL    HW276162   1.306  10.479   5.595
24775SOL     OW76163   9.234   3.029   9.953
24775SOL    HW176164   9.175   3.031   9.877
24775SOL    HW276165   9.200   2.959  10.008
24776SOL     OW76166   0.480   0.526  12.144
24776SOL    HW176167   0.437   0.562  12.221
24776SOL    HW276168   0.479   0.597  12.080
24777SOL     OW76169   8.112   3.414   1.727
24777SOL    HW176170   8.092   3.402   1.819
24777SOL    HW276171   8.027   3.417   1.683
24778SOL     OW76172   4.742  12.762  12.873
24778SOL    HW176173   4.652  12.760  12.839
24778SOL    HW276174   4.780  12.842  12.836
24779SOL     OW76175   8.805   1.399   4.980
24779SOL    HW176176   8.795   1.436   5.068
24779SOL    HW276177   8.745   1.449   4.926
24780SOL     OW76178   2.089  11.750  13.977
24780SOL    HW176179   2.136  11.833  13.962
24780SOL    HW276180   2.085  11.710  13.891
24781SOL     OW76181  14.461   8.466   6.704
24781SOL    HW176182  14.393   8.400   6.691
24781SOL    HW276183  14.534   8.436   6.649
24782SOL     OW76184   6.530   0.416   1.130
24782SOL    HW176185   6.518   0.330   1.090
24782SOL    HW276186   6.457   0.424   1.192
24783SOL     OW76187  12.352   9.999   4.249
24783SOL    HW176188  12.440  10.009   4.213
24783SOL    HW276189  12.352  10.055   4.327
24784SOL     OW76190  10.047   9.918   4.752
24784SOL    HW176191  10.131   9.890   4.790
24784SOL    HW276192  10.058  10.012   4.737
24785SOL     OW76193   4.838   7.356  12.528
24785SOL    HW176194   4.821   7.262  12.528
24785SOL    HW276195   4.921   7.365  12.481
24786SOL     OW76196   9.656   8.021  12.841
24786SOL    HW176197   9.634   8.107  12.804
24786SOL    HW276198   9.572   7.987  12.872
24787SOL     OW76199  11.994   7.226  13.460
24787SOL    HW176200  12.034   7.202  13.376
24787SOL    HW276201  11.968   7.318  13.448
24788SOL     OW76202  14.314   8.859   9.734
24788SOL    HW176203  14.269   8.942   9.750
24788SOL    HW276204  14.371   8.847   9.810
24789SOL     OW76205   8.916   4.317   2.508
24789SOL    HW176206   8.892   4.340   2.418
24789SOL    HW276207   8.927   4.222   2.507
24790SOL     OW76208   7.884   3.957   7.205
24790SOL    HW176209   7.903   3.962   7.111
24790SOL    HW276210   7.889   4.048   7.235
24791SOL     OW76211   1.732   3.081   0.516
24791SOL    HW176212   1.663   3.109   0.575
24791SOL    HW276213   1.705   2.995   0.485
24792SOL     OW76214   5.909  11.777   6.741
24792SOL    HW176215   5.927  11.868   6.720
24792SOL    HW276216   5.820  11.778   6.777
24793SOL     OW76217   0.978   0.580   6.663
24793SOL    HW176218   0.975   0.616   6.574
24793SOL    HW276219   1.060   0.531   6.666
24794SOL     OW76220   6.600  13.858   5.119
24794SOL    HW176221   6.691  13.887   5.112
24794SOL    HW276222   6.580  13.867   5.212
24795SOL     OW76223   6.974   5.844   4.880
24795SOL    HW176224   6.948   5.771   4.823
24795SOL    HW276225   6.985   5.804   4.967
24796SOL     OW76226  11.440   6.759   9.906
24796SOL    HW176227  11.445   6.855   9.909
24796SOL    HW276228  11.402   6.740   9.821
24797SOL     OW76229   6.895  10.186  11.215
24797SOL    HW176230   6.879  10.101  11.256
24797SOL    HW276231   6.909  10.165  11.122
24798SOL     OW76232   7.171   7.055  10.978
24798SOL    HW176233   7.204   7.130  11.028
24798SOL    HW276234   7.231   7.047  10.904
24799SOL     OW76235   7.049   6.193   6.840
24799SOL    HW176236   7.000   6.267   6.803
24799SOL    HW276237   7.131   6.231   6.869
24800SOL     OW76238   6.832   2.720   2.066
24800SOL    HW176239   6.803   2.797   2.114
24800SOL    HW276240   6.920   2.742   2.036
24801SOL     OW76241   4.208   6.635  12.985
24801SOL    HW176242   4.270   6.660  12.917
24801SOL    HW276243   4.124   6.627  12.940
24802SOL     OW76244  13.213   0.321  11.925
24802SOL    HW176245  13.229   0.240  11.876
24802SOL    HW276246  13.278   0.382  11.892
24803SOL     OW76247  11.601  11.465  10.583
24803SOL    HW176248  11.667  11.416  10.632
24803SOL    HW276249  11.522  11.457  10.637
24804SOL     OW76250  13.225  10.861   7.734
24804SOL    HW176251  13.283  10.878   7.808
24804SOL    HW276252  13.143  10.905   7.757
24805SOL     OW76253   2.902   0.188   4.236
24805SOL    HW176254   2.993   0.211   4.250
24805SOL    HW276255   2.866   0.261   4.185
24806SOL     OW76256   5.648   8.791   2.048
24806SOL    HW176257   5.708   8.765   2.119
24806SOL    HW276258   5.661   8.885   2.039
24807SOL     OW76259   2.849   0.987   5.751
24807SOL    HW176260   2.853   0.896   5.721
24807SOL    HW276261   2.757   1.011   5.742
24808SOL     OW76262  10.261  14.473   7.196
24808SOL    HW176263  10.187  14.418   7.170
24808SOL    HW276264  10.315  14.416   7.251
24809SOL     OW76265   8.337   4.840   2.140
24809SOL    HW176266   8.260   4.786   2.124
24809SOL    HW276267   8.410   4.788   2.106
24810SOL     OW76268   8.370   8.018   8.166
24810SOL    HW176269   8.304   7.988   8.229
24810SOL    HW276270   8.320   8.039   8.087
24811SOL     OW76271  10.813  13.353  13.463
24811SOL    HW176272  10.764  13.426  13.425
24811SOL    HW276273  10.751  13.280  13.463
24812SOL     OW76274   5.203   5.640   8.400
24812SOL    HW176275   5.130   5.579   8.411
24812SOL    HW276276   5.174   5.720   8.444
24813SOL     OW76277   0.124   2.190   1.191
24813SOL    HW176278   0.073   2.265   1.159
24813SOL    HW276279   0.099   2.183   1.283
24814SOL     OW76280  10.125   3.186   9.046
24814SOL    HW176281  10.078   3.112   9.008
24814SOL    HW276282  10.217   3.163   9.036
24815SOL     OW76283  10.928  11.837   0.950
24815SOL    HW176284  10.848  11.791   0.974
24815SOL    HW276285  10.998  11.774   0.965
24816SOL     OW76286   9.492   7.169   4.321
24816SOL    HW176287   9.467   7.077   4.325
24816SOL    HW276288   9.504   7.195   4.412
24817SOL     OW76289   8.158   7.053   2.681
24817SOL    HW176290   8.176   7.024   2.591
24817SOL    HW276291   8.229   7.016   2.733
24818SOL     OW76292   4.699   1.726   8.797
24818SOL    HW176293   4.714   1.672   8.720
24818SOL    HW276294   4.620   1.776   8.777
24819SOL     OW76295   7.518  10.678   9.026
24819SOL    HW176296   7.445  10.673   9.087
24819SOL    HW276297   7.590  10.632   9.070
24820SOL     OW76298  12.509   0.252   5.297
24820SOL    HW176299  12.467   0.255   5.383
24820SOL    HW276300  12.565   0.174   5.300
24821SOL     OW76301   6.384   1.774   6.165
24821SOL    HW176302   6.305   1.821   6.139
24821SOL    HW276303   6.367   1.683   6.140
24822SOL     OW76304   3.041   1.328   1.105
24822SOL    HW176305   3.002   1.293   1.185
24822SOL    HW276306   3.103   1.260   1.077
24823SOL     OW76307   9.917  13.275  11.047
24823SOL    HW176308   9.857  13.243  11.115
24823SOL    HW276309   9.860  13.301  10.975
24824SOL     OW76310   5.748   0.097   8.714
24824SOL    HW176311   5.752   0.012   8.757
24824SOL    HW276312   5.830   0.140   8.739
24825SOL     OW76313   8.180   8.087   2.717
24825SOL    HW176314   8.276   8.080   2.721
24825SOL    HW276315   8.159   8.154   2.782
24826SOL     OW76316   8.413  10.988  12.866
24826SOL    HW176317   8.488  11.012  12.921
24826SOL    HW276318   8.432  10.899  12.837
24827SOL     OW76319  14.264   2.901  13.981
24827SOL    HW176320  14.304   2.978  13.940
24827SOL    HW276321  14.262   2.835  13.911
24828SOL     OW76322   1.524   1.323  14.295
24828SOL    HW176323   1.596   1.386  14.296
24828SOL    HW276324   1.470   1.350  14.221
24829SOL     OW76325   5.075  13.961   7.634
24829SOL    HW176326   5.148  14.009   7.595
24829SOL    HW276327   5.095  13.869   7.614
24830SOL     OW76328   6.978  12.503   5.824
24830SOL    HW176329   7.073  12.496   5.811
24830SOL    HW276330   6.940  12.445   5.759
24831SOL     OW76331   4.781  10.182   0.643
24831SOL    HW176332   4.746  10.093   0.646
24831SOL    HW276333   4.833  10.190   0.723
24832SOL     OW76334   9.386   8.483  13.911
24832SOL    HW176335   9.301   8.440  13.918
24832SOL    HW276336   9.430   8.462  13.993
24833SOL     OW76337   6.356   2.030   8.647
24833SOL    HW176338   6.403   2.113   8.655
24833SOL    HW276339   6.358   2.010   8.553
24834SOL     OW76340  14.803   6.285   7.068
24834SOL    HW176341  14.734   6.341   7.104
24834SOL    HW276342  14.791   6.289   6.973
24835SOL     OW76343   5.522   3.342  14.807
24835SOL    HW176344   5.521   3.311   0.024
24835SOL    HW276345   5.472   3.276  14.758
24836SOL     OW76346   0.357  14.626   0.597
24836SOL    HW176347   0.336  14.580   0.516
24836SOL    HW276348   0.419  14.694   0.570
24837SOL     OW76349  11.752  12.943   7.048
24837SOL    HW176350  11.680  12.890   7.014
24837SOL    HW276351  11.710  13.017   7.091
24838SOL     OW76352   4.725   0.277   9.487
24838SOL    HW176353   4.693   0.193   9.519
24838SOL    HW276354   4.781   0.310   9.557
24839SOL     OW76355  11.466   7.379   9.333
24839SOL    HW176356  11.380   7.350   9.303
24839SOL    HW276357  11.480   7.332   9.415
24840SOL     OW76358  12.726  13.969  13.814
24840SOL    HW176359  12.701  13.878  13.830
24840SOL    HW276360  12.719  13.980  13.719
24841SOL     OW76361  14.306   0.049   8.537
24841SOL    HW176362  14.298   0.024   8.629
24841SOL    HW276363  14.240  14.868   8.492
24842SOL     OW76364  13.121   9.367  14.166
24842SOL    HW176365  13.124   9.456  14.202
24842SOL    HW276366  13.208   9.332  14.184
24843SOL     OW76367  14.004  13.322   6.790
24843SOL    HW176368  13.931  13.339   6.850
24843SOL    HW276369  14.079  13.306   6.848
24844SOL     OW76370   6.444  12.081   9.210
24844SOL    HW176371   6.406  12.001   9.246
24844SOL    HW276372   6.371  12.142   9.203
24845SOL     OW76373  12.120   1.304   3.544
24845SOL    HW176374  12.047   1.362   3.521
24845SOL    HW276375  12.174   1.356   3.604
24846SOL     OW76376  13.246  13.624   9.743
24846SOL    HW176377  13.334  13.642   9.709
24846SOL    HW276378  13.256  13.627   9.838
24847SOL     OW76379   7.090   9.595   6.791
24847SOL    HW176380   7.025   9.656   6.757
24847SOL    HW276381   7.084   9.519   6.733
24848SOL     OW76382   2.149   2.615  10.213
24848SOL    HW176383   2.186   2.564  10.141
24848SOL    HW276384   2.057   2.590  10.215
24849SOL     OW76385  12.918   0.400   5.475
24849SOL    HW176386  12.993   0.459   5.473
24849SOL    HW276387  12.955   0.312   5.477
24850SOL     OW76388  12.938   9.351   9.614
24850SOL    HW176389  12.914   9.261   9.593
24850SOL    HW276390  12.858   9.391   9.648
24851SOL     OW76391   4.116   3.004  10.826
24851SOL    HW176392   4.044   3.054  10.787
24851SOL    HW276393   4.074   2.924  10.858
24852SOL     OW76394  11.540  12.900   5.805
24852SOL    HW176395  11.498  12.957   5.740
24852SOL    HW276396  11.492  12.817   5.798
24853SOL     OW76397   9.337   0.615  12.595
24853SOL    HW176398   9.388   0.648  12.520
24853SOL    HW276399   9.253   0.589  12.557
24854SOL     OW76400  12.429   0.459  13.687
24854SOL    HW176401  12.450   0.537  13.738
24854SOL    HW276402  12.490   0.461  13.614
24855SOL     OW76403   8.886   3.657   8.790
24855SOL    HW176404   8.975   3.692   8.801
24855SOL    HW276405   8.893   3.566   8.820
24856SOL     OW76406   5.628   7.127   4.504
24856SOL    HW176407   5.639   7.221   4.520
24856SOL    HW276408   5.607   7.091   4.590
24857SOL     OW76409  10.405   6.339  13.848
24857SOL    HW176410  10.375   6.349  13.938
24857SOL    HW276411  10.498   6.315  13.856
24858SOL     OW76412   0.916  12.292  10.980
24858SOL    HW176413   0.964  12.261  11.057
24858SOL    HW276414   0.862  12.218  10.953
24859SOL     OW76415  12.831   8.107   9.692
24859SOL    HW176416  12.759   8.062   9.648
24859SOL    HW276417  12.843   8.059   9.774
24860SOL     OW76418   3.206  10.088  12.622
24860SOL    HW176419   3.151  10.011  12.636
24860SOL    HW276420   3.287  10.069  12.670
24861SOL     OW76421  11.547  10.649   2.299
24861SOL    HW176422  11.639  10.641   2.275
24861SOL    HW276423  11.532  10.744   2.308
24862SOL     OW76424   3.267  10.625  13.471
24862SOL    HW176425   3.298  10.668  13.391
24862SOL    HW276426   3.305  10.537  13.467
24863SOL     OW76427  14.745   2.198   8.265
24863SOL    HW176428  14.666   2.159   8.228
24863SOL    HW276429  14.740   2.290   8.241
24864SOL     OW76430  12.321   4.314   5.030
24864SOL    HW176431  12.261   4.373   4.986
24864SOL    HW276432  12.402   4.364   5.039
24865SOL     OW76433   2.638   8.165  11.965
24865SOL    HW176434   2.620   8.216  11.886
24865SOL    HW276435   2.717   8.204  12.001
24866SOL     OW76436  10.962  10.155  11.850
24866SOL    HW176437  10.890  10.187  11.904
24866SOL    HW276438  11.005  10.087  11.902
24867SOL     OW76439   2.532  14.555   6.544
24867SOL    HW176440   2.577  14.472   6.525
24867SOL    HW276441   2.479  14.572   6.466
24868SOL     OW76442   7.759   0.931   8.837
24868SOL    HW176443   7.837   0.889   8.800
24868SOL    HW276444   7.790   1.016   8.866
24869SOL     OW76445   9.785   7.055   8.792
24869SOL    HW176446   9.843   7.063   8.717
24869SOL    HW276447   9.844   7.053   8.868
24870SOL     OW76448   3.739   1.082  14.601
24870SOL    HW176449   3.681   1.153  14.575
24870SOL    HW276450   3.697   1.044  14.678
24871SOL     OW76451   6.934  13.261  12.850
24871SOL    HW176452   6.987  13.281  12.773
24871SOL    HW276453   6.882  13.185  12.824
24872SOL     OW76454  13.390   0.274   3.403
24872SOL    HW176455  13.477   0.297   3.435
24872SOL    HW276456  13.337   0.351   3.420
24873SOL     OW76457   3.042  13.194  11.230
24873SOL    HW176458   3.109  13.260  11.212
24873SOL    HW276459   2.965  13.244  11.255
24874SOL     OW76460  10.739   2.641   0.593
24874SOL    HW176461  10.780   2.657   0.508
24874SOL    HW276462  10.797   2.683   0.656
24875SOL     OW76463  14.110  12.373  10.471
24875SOL    HW176464  14.051  12.385  10.545
24875SOL    HW276465  14.093  12.448  10.414
24876SOL     OW76466   2.028   4.572  12.793
24876SOL    HW176467   2.064   4.487  12.820
24876SOL    HW276468   2.028   4.625  12.873
24877SOL     OW76469   4.775   4.708   1.816
24877SOL    HW176470   4.824   4.629   1.838
24877SOL    HW276471   4.687   4.692   1.848
24878SOL     OW76472  12.527   5.310  12.202
24878SOL    HW176473  12.527   5.236  12.141
24878SOL    HW276474  12.606   5.360  12.179
24879SOL     OW76475   6.944   7.627   4.673
24879SOL    HW176476   6.986   7.550   4.634
24879SOL    HW276477   6.850   7.608   4.669
24880SOL     OW76478   4.903   7.585   8.639
24880SOL    HW176479   4.827   7.526   8.643
24880SOL    HW276480   4.878   7.653   8.576
24881SOL     OW76481   7.337   2.201   6.874
24881SOL    HW176482   7.335   2.237   6.963
24881SOL    HW276483   7.400   2.256   6.828
24882SOL     OW76484  14.365   3.850  10.097
24882SOL    HW176485  14.337   3.779  10.154
24882SOL    HW276486  14.301   3.850  10.025
24883SOL     OW76487   9.564   2.563  12.372
24883SOL    HW176488   9.550   2.597  12.461
24883SOL    HW276489   9.579   2.642  12.319
24884SOL     OW76490   2.021   4.086   1.860
24884SOL    HW176491   2.004   3.999   1.898
24884SOL    HW276492   1.988   4.079   1.770
24885SOL     OW76493   2.380   8.989   0.067
24885SOL    HW176494   2.327   8.910   0.062
24885SOL    HW276495   2.365   9.023   0.155
24886SOL     OW76496  11.158   0.567  13.333
24886SOL    HW176497  11.176   0.649  13.286
24886SOL    HW276498  11.179   0.587  13.424
24887SOL     OW76499   9.219  11.580   5.447
24887SOL    HW176500   9.291  11.518   5.439
24887SOL    HW276501   9.220  11.607   5.539
24888SOL     OW76502   2.437   2.606   3.367
24888SOL    HW176503   2.425   2.515   3.342
24888SOL    HW276504   2.531   2.622   3.355
24889SOL     OW76505   6.264   1.024   5.318
24889SOL    HW176506   6.171   1.001   5.312
24889SOL    HW276507   6.267   1.116   5.295
24890SOL     OW76508   6.335   4.730   4.959
24890SOL    HW176509   6.368   4.655   5.009
24890SOL    HW276510   6.414   4.773   4.926
24891SOL     OW76511  10.271   2.960   1.429
24891SOL    HW176512  10.348   2.947   1.485
24891SOL    HW276513  10.300   2.929   1.343
24892SOL     OW76514  10.711  13.610   3.665
24892SOL    HW176515  10.693  13.670   3.593
24892SOL    HW276516  10.807  13.604   3.667
24893SOL     OW76517  13.251   5.633   8.824
24893SOL    HW176518  13.222   5.720   8.795
24893SOL    HW276519  13.302   5.599   8.750
24894SOL     OW76520   8.238  10.496   7.856
24894SOL    HW176521   8.259  10.512   7.948
24894SOL    HW276522   8.290  10.561   7.808
24895SOL     OW76523   7.971   3.486   5.310
24895SOL    HW176524   7.960   3.394   5.334
24895SOL    HW276525   7.882   3.521   5.309
24896SOL     OW76526   5.923  13.581   3.433
24896SOL    HW176527   5.851  13.637   3.461
24896SOL    HW276528   6.001  13.620   3.472
24897SOL     OW76529   8.349   0.766   9.975
24897SOL    HW176530   8.339   0.736   9.884
24897SOL    HW276531   8.359   0.861   9.968
24898SOL     OW76532  13.376   2.148   6.888
24898SOL    HW176533  13.382   2.123   6.795
24898SOL    HW276534  13.286   2.179   6.899
24899SOL     OW76535   1.488   0.358  11.145
24899SOL    HW176536   1.485   0.439  11.196
24899SOL    HW276537   1.575   0.322  11.163
24900SOL     OW76538   9.965   0.304   5.976
24900SOL    HW176539   9.955   0.234   6.040
24900SOL    HW276540  10.013   0.372   6.022
24901SOL     OW76541   4.932   7.760  10.677
24901SOL    HW176542   4.883   7.694  10.726
24901SOL    HW276543   4.972   7.711  10.605
24902SOL     OW76544   9.296   5.174   9.388
24902SOL    HW176545   9.340   5.204   9.467
24902SOL    HW276546   9.356   5.197   9.317
24903SOL     OW76547  14.746  13.018   7.118
24903SOL    HW176548  14.669  12.964   7.104
24903SOL    HW276549  14.775  12.996   7.207
24904SOL     OW76550   6.092   0.128   4.285
24904SOL    HW176551   6.149   0.131   4.208
24904SOL    HW276552   6.004   0.120   4.248
24905SOL     OW76553   1.291   0.738   5.209
24905SOL    HW176554   1.322   0.826   5.229
24905SOL    HW276555   1.221   0.751   5.145
24906SOL     OW76556   4.289   9.000  11.761
24906SOL    HW176557   4.321   9.089  11.748
24906SOL    HW276558   4.276   8.992  11.855
24907SOL     OW76559   8.703  12.098  13.329
24907SOL    HW176560   8.724  12.144  13.410
24907SOL    HW276561   8.663  12.164  13.272
24908SOL     OW76562   2.339  12.594  13.160
24908SOL    HW176563   2.246  12.578  13.177
24908SOL    HW276564   2.378  12.604  13.247
24909SOL     OW76565   1.757   8.562   5.067
24909SOL    HW176566   1.841   8.519   5.082
24909SOL    HW276567   1.768   8.649   5.105
24910SOL     OW76568   5.156   5.267  11.587
24910SOL    HW176569   5.198   5.281  11.672
24910SOL    HW276570   5.213   5.312  11.525
24911SOL     OW76571  11.177   5.184  11.231
24911SOL    HW176572  11.238   5.227  11.291
24911SOL    HW276573  11.131   5.120  11.286
24912SOL     OW76574   6.514   1.935  13.400
24912SOL    HW176575   6.509   2.018  13.449
24912SOL    HW276576   6.584   1.949  13.337
24913SOL     OW76577  11.470   5.559   8.616
24913SOL    HW176578  11.414   5.573   8.693
24913SOL    HW276579  11.424   5.604   8.545
24914SOL     OW76580   0.774  13.174   5.083
24914SOL    HW176581   0.840  13.118   5.125
24914SOL    HW276582   0.826  13.242   5.040
24915SOL     OW76583  10.275  11.000   0.063
24915SOL    HW176584  10.269  11.068   0.130
24915SOL    HW276585  10.369  10.986   0.052
24916SOL     OW76586   3.117   2.514   2.338
24916SOL    HW176587   3.101   2.520   2.244
24916SOL    HW276588   3.212   2.519   2.347
24917SOL     OW76589   0.330  12.441   7.903
24917SOL    HW176590   0.358  12.489   7.825
24917SOL    HW276591   0.383  12.478   7.974
24918SOL     OW76592   9.249   5.769  11.462
24918SOL    HW176593   9.243   5.827  11.386
24918SOL    HW276594   9.188   5.698  11.443
24919SOL     OW76595   5.872   6.580   5.031
24919SOL    HW176596   5.782   6.550   5.044
24919SOL    HW276597   5.893   6.628   5.112
24920SOL     OW76598   8.770  14.417   2.758
24920SOL    HW176599   8.749  14.498   2.711
24920SOL    HW276600   8.710  14.417   2.832
24921SOL     OW76601   7.427  10.431   3.923
24921SOL    HW176602   7.432  10.385   4.006
24921SOL    HW276603   7.333  10.441   3.907
24922SOL     OW76604  13.784   0.225  11.503
24922SOL    HW176605  13.863   0.186  11.467
24922SOL    HW276606  13.797   0.222  11.598
24923SOL     OW76607  12.633  10.338  12.226
24923SOL    HW176608  12.709  10.362  12.173
24923SOL    HW276609  12.580  10.418  12.229
24924SOL     OW76610   2.091   5.886   9.189
24924SOL    HW176611   2.088   5.935   9.107
24924SOL    HW276612   2.044   5.805   9.170
24925SOL     OW76613   6.927   9.334   7.968
24925SOL    HW176614   6.923   9.416   7.918
24925SOL    HW276615   7.017   9.330   8.001
24926SOL     OW76616   6.120   3.627   7.347
24926SOL    HW176617   6.128   3.723   7.341
24926SOL    HW276618   6.161   3.605   7.431
24927SOL     OW76619  14.086   6.441   4.946
24927SOL    HW176620  14.163   6.433   4.890
24927SOL    HW276621  14.068   6.351   4.974
24928SOL     OW76622   7.271   7.420   6.102
24928SOL    HW176623   7.268   7.478   6.178
24928SOL    HW276624   7.278   7.479   6.027
24929SOL     OW76625   6.873   4.025   3.407
24929SOL    HW176626   6.886   4.098   3.468
24929SOL    HW276627   6.778   4.018   3.398
24930SOL     OW76628   9.542   0.544   3.612
24930SOL    HW176629   9.496   0.626   3.634
24930SOL    HW276630   9.507   0.480   3.674
24931SOL     OW76631   2.276   6.226   5.023
24931SOL    HW176632   2.199   6.195   4.976
24931SOL    HW276633   2.348   6.174   4.988
24932SOL     OW76634   7.331  11.898   7.107
24932SOL    HW176635   7.358  11.917   7.017
24932SOL    HW276636   7.277  11.819   7.100
24933SOL     OW76637  11.411  12.541  10.429
24933SOL    HW176638  11.383  12.571  10.516
24933SOL    HW276639  11.336  12.492  10.395
24934SOL     OW76640   6.963  13.160  11.140
24934SOL    HW176641   6.966  13.230  11.075
24934SOL    HW276642   7.054  13.147  11.167
24935SOL     OW76643   2.749  14.279   2.256
24935SOL    HW176644   2.702  14.208   2.298
24935SOL    HW276645   2.719  14.358   2.302
24936SOL     OW76646  14.425   0.269  11.878
24936SOL    HW176647  14.399   0.345  11.931
24936SOL    HW276648  14.416   0.298  11.788
24937SOL     OW76649  14.054   7.861  14.331
24937SOL    HW176650  13.966   7.843  14.297
24937SOL    HW276651  14.075   7.948  14.298
24938SOL     OW76652  10.556  11.176   0.771
24938SOL    HW176653  10.481  11.175   0.830
24938SOL    HW276654  10.530  11.120   0.698
24939SOL     OW76655  11.304  10.494   4.687
24939SOL    HW176656  11.351  10.424   4.641
24939SOL    HW276657  11.233  10.519   4.627
24940SOL     OW76658   9.642   5.781  12.033
24940SOL    HW176659   9.623   5.700  11.986
24940SOL    HW276660   9.556   5.821  12.047
24941SOL     OW76661   7.213   9.226   5.157
24941SOL    HW176662   7.249   9.146   5.194
24941SOL    HW276663   7.251   9.296   5.210
24942SOL     OW76664   6.998   7.639   8.901
24942SOL    HW176665   7.088   7.607   8.891
24942SOL    HW276666   6.945   7.578   8.851
24943SOL     OW76667  11.686  13.088   3.438
24943SOL    HW176668  11.635  13.157   3.395
24943SOL    HW276669  11.770  13.088   3.392
24944SOL     OW76670  13.895  14.725   3.566
24944SOL    HW176671  13.982  14.757   3.589
24944SOL    HW276672  13.849  14.719   3.650
24945SOL     OW76673   8.100   7.978   3.605
24945SOL    HW176674   8.041   7.930   3.663
24945SOL    HW276675   8.153   8.031   3.663
24946SOL     OW76676   5.920   8.276   9.094
24946SOL    HW176677   5.858   8.268   9.021
24946SOL    HW276678   5.882   8.223   9.164
24947SOL     OW76679   8.440  11.673   2.683
24947SOL    HW176680   8.443  11.580   2.706
24947SOL    HW276681   8.349  11.688   2.658
24948SOL     OW76682  11.047  13.323   6.750
24948SOL    HW176683  10.993  13.251   6.716
24948SOL    HW276684  11.001  13.353   6.828
24949SOL     OW76685  14.159   6.610   9.150
24949SOL    HW176686  14.136   6.702   9.160
24949SOL    HW276687  14.179   6.580   9.239
24950SOL     OW76688   6.901   5.032   3.986
24950SOL    HW176689   6.957   5.028   4.064
24950SOL    HW276690   6.886   4.940   3.963
24951SOL     OW76691   6.282   7.358   9.739
24951SOL    HW176692   6.345   7.426   9.716
24951SOL    HW276693   6.282   7.357   9.835
24952SOL     OW76694  14.151  14.320   7.128
24952SOL    HW176695  14.213  14.326   7.056
24952SOL    HW276696  14.071  14.284   7.088
24953SOL     OW76697  13.988   5.432   6.143
24953SOL    HW176698  13.920   5.368   6.125
24953SOL    HW276699  14.067   5.381   6.160
24954SOL     OW76700   8.397   7.930  10.692
24954SOL    HW176701   8.408   7.936  10.787
24954SOL    HW276702   8.429   7.842  10.670
24955SOL     OW76703  13.978   1.933   8.155
24955SOL    HW176704  14.071   1.911   8.165
24955SOL    HW276705  13.951   1.962   8.242
24956SOL     OW76706   5.228   2.508   2.779
24956SOL    HW176707   5.258   2.450   2.849
24956SOL    HW276708   5.254   2.595   2.807
24957SOL     OW76709   7.816  13.018  12.123
24957SOL    HW176710   7.745  12.962  12.153
24957SOL    HW276711   7.841  12.983  12.038
24958SOL     OW76712  13.530   6.742  13.511
24958SOL    HW176713  13.439   6.773  13.511
24958SOL    HW276714  13.567   6.778  13.592
24959SOL     OW76715   1.474   6.180   3.021
24959SOL    HW176716   1.434   6.093   3.022
24959SOL    HW276717   1.525   6.185   3.101
24960SOL     OW76718  10.200   9.122   7.497
24960SOL    HW176719  10.293   9.137   7.513
24960SOL    HW276720  10.159   9.207   7.515
24961SOL     OW76721   4.744   3.693  14.497
24961SOL    HW176722   4.742   3.640  14.576
24961SOL    HW276723   4.792   3.772  14.522
24962SOL     OW76724   8.236   5.902   8.297
24962SOL    HW176725   8.160   5.914   8.239
24962SOL    HW276726   8.218   5.959   8.372
24963SOL     OW76727   7.569   8.597   2.692
24963SOL    HW176728   7.515   8.607   2.614
24963SOL    HW276729   7.617   8.515   2.677
24964SOL     OW76730   6.245   4.454   0.684
24964SOL    HW176731   6.246   4.514   0.759
24964SOL    HW276732   6.210   4.507   0.612
24965SOL     OW76733   6.996  13.590  11.463
24965SOL    HW176734   7.031  13.511  11.423
24965SOL    HW276735   7.023  13.584  11.555
24966SOL     OW76736   8.229  13.937  11.446
24966SOL    HW176737   8.218  13.971  11.535
24966SOL    HW276738   8.322  13.914  11.440
24967SOL     OW76739   2.454   2.354   0.706
24967SOL    HW176740   2.360   2.335   0.705
24967SOL    HW276741   2.463   2.426   0.768
24968SOL     OW76742   0.754   2.429  12.875
24968SOL    HW176743   0.826   2.372  12.847
24968SOL    HW276744   0.675   2.381  12.851
24969SOL     OW76745   2.986   9.375   1.290
24969SOL    HW176746   3.055   9.319   1.254
24969SOL    HW276747   3.015   9.394   1.380
24970SOL     OW76748  13.943   6.493  12.972
24970SOL    HW176749  14.028   6.482  12.930
24970SOL    HW276750  13.900   6.563  12.923
24971SOL     OW76751   1.987   4.699   5.465
24971SOL    HW176752   1.904   4.746   5.469
24971SOL    HW276753   2.021   4.716   5.377
24972SOL     OW76754  14.270   6.405   6.440
24972SOL    HW176755  14.243   6.349   6.513
24972SOL    HW276756  14.188   6.445   6.409
24973SOL     OW76757   8.173  13.650  12.657
24973SOL    HW176758   8.234  13.715  12.620
24973SOL    HW276759   8.156  13.589  12.585
24974SOL     OW76760   5.310  13.054  13.462
24974SOL    HW176761   5.384  13.096  13.417
24974SOL    HW276762   5.282  13.118  13.528
24975SOL     OW76763  11.288   9.671   0.221
24975SOL    HW176764  11.296   9.577   0.201
24975SOL    HW276765  11.372   9.708   0.195
24976SOL     OW76766   2.409   0.411   4.349
24976SOL    HW176767   2.416   0.323   4.311
24976SOL    HW276768   2.319   0.438   4.330
24977SOL     OW76769   8.219  12.463  13.576
24977SOL    HW176770   8.256  12.375  13.578
24977SOL    HW276771   8.129  12.450  13.544
24978SOL     OW76772   5.776   9.352  12.885
24978SOL    HW176773   5.707   9.418  12.881
24978SOL    HW276774   5.753   9.297  12.960
24979SOL     OW76775   9.786  12.200   8.382
24979SOL    HW176776   9.779  12.274   8.443
24979SOL    HW276777   9.879  12.197   8.359
24980SOL     OW76778   7.652   8.413  10.906
24980SOL    HW176779   7.709   8.379  10.975
24980SOL    HW276780   7.667   8.355  10.832
24981SOL     OW76781  13.000  11.162   8.525
24981SOL    HW176782  12.920  11.137   8.571
24981SOL    HW276783  13.011  11.095   8.459
24982SOL     OW76784   6.125   7.360  14.612
24982SOL    HW176785   6.177   7.326  14.685
24982SOL    HW276786   6.043   7.389  14.652
24983SOL     OW76787   4.966   9.421   6.949
24983SOL    HW176788   5.017   9.463   6.880
24983SOL    HW276789   4.959   9.488   7.018
24984SOL     OW76790   8.057   0.071   1.634
24984SOL    HW176791   8.099   0.153   1.660
24984SOL    HW276792   8.123   0.004   1.651
24985SOL     OW76793   5.635   1.890   9.995
24985SOL    HW176794   5.653   1.926   9.908
24985SOL    HW276795   5.599   1.965  10.044
24986SOL     OW76796   2.635  13.063   8.610
24986SOL    HW176797   2.662  13.010   8.535
24986SOL    HW276798   2.554  13.105   8.582
24987SOL     OW76799  13.161  10.930   3.982
24987SOL    HW176800  13.212  10.864   4.029
24987SOL    HW276801  13.179  10.912   3.889
24988SOL     OW76802  12.764   3.174  14.137
24988SOL    HW176803  12.700   3.202  14.203
24988SOL    HW276804  12.815   3.252  14.118
24989SOL     OW76805   1.217  13.053   2.769
24989SOL    HW176806   1.135  13.060   2.818
24989SOL    HW276807   1.238  13.143   2.744
24990SOL     OW76808   5.991   3.182   3.539
24990SOL    HW176809   6.058   3.156   3.475
24990SOL    HW276810   5.937   3.245   3.491
24991SOL     OW76811   9.522   9.448  14.843
24991SOL    HW176812   9.611   9.432  14.814
24991SOL    HW276813   9.523   9.427   0.063
24992SOL     OW76814   8.082   0.731  13.658
24992SOL    HW176815   8.020   0.781  13.710
24992SOL    HW276816   8.163   0.731  13.708
24993SOL     OW76817   0.185  13.710  14.495
24993SOL    HW176818   0.190  13.627  14.449
24993SOL    HW276819   0.105  13.751  14.462
24994SOL     OW76820   2.777   7.108  10.048
24994SOL    HW176821   2.697   7.101   9.997
24994SOL    HW276822   2.751   7.082  10.137
24995SOL     OW76823   8.393   4.279   7.303
24995SOL    HW176824   8.471   4.226   7.287
24995SOL    HW276825   8.322   4.216   7.309
24996SOL     OW76826  13.020   8.724  13.479
24996SOL    HW176827  13.080   8.763  13.416
24996SOL    HW276828  12.991   8.798  13.533
24997SOL     OW76829  10.107  14.277   7.068
24997SOL    HW176830  10.087  14.349   7.009
24997SOL    HW276831  10.051  14.205   7.039
24998SOL     OW76832  11.624   4.786   9.827
24998SOL    HW176833  11.637   4.857   9.763
24998SOL    HW276834  11.559   4.820   9.887
24999SOL     OW76835   4.506   2.098   4.985
24999SOL    HW176836   4.425   2.144   5.008
24999SOL    HW276837   4.576   2.153   5.019
25000SOL     OW76838   3.546   3.523   3.442
25000SOL    HW176839   3.494   3.444   3.428
25000SOL    HW276840   3.599   3.503   3.520
25001SOL     OW76841  10.746  14.775  12.890
25001SOL    HW176842  10.673  14.762  12.830
25001SOL    HW276843  10.718  14.848  12.946
25002SOL     OW76844   7.159   5.528   1.215
25002SOL    HW176845   7.099   5.499   1.284
25002SOL    HW276846   7.103   5.540   1.138
25003SOL     OW76847   0.376   9.417  12.346
25003SOL    HW176848   0.304   9.354  12.348
25003SOL    HW276849   0.448   9.372  12.391
25004SOL     OW76850  13.823   1.778   8.769
25004SOL    HW176851  13.770   1.799   8.692
25004SOL    HW276852  13.760   1.749   8.835
25005SOL     OW76853   8.317   5.668   6.671
25005SOL    HW176854   8.313   5.682   6.766
25005SOL    HW276855   8.229   5.688   6.639
25006SOL     OW76856   1.613   5.024   0.765
25006SOL    HW176857   1.694   4.990   0.804
25006SOL    HW276858   1.547   5.012   0.833
25007SOL     OW76859  14.404   4.692   2.984
25007SOL    HW176860  14.414   4.608   3.030
25007SOL    HW276861  14.433   4.674   2.895
25008SOL     OW76862   7.031   3.418  10.967
25008SOL    HW176863   7.065   3.345  10.916
25008SOL    HW276864   7.012   3.486  10.903
25009SOL     OW76865   5.354   3.154   8.610
25009SOL    HW176866   5.392   3.165   8.697
25009SOL    HW276867   5.409   3.209   8.553
25010SOL     OW76868   8.473   2.008   8.766
25010SOL    HW176869   8.378   2.020   8.769
25010SOL    HW276870   8.506   2.059   8.841
25011SOL     OW76871   9.066  13.271  11.853
25011SOL    HW176872   9.126  13.345  11.865
25011SOL    HW276873   9.110  13.197  11.895
25012SOL     OW76874   0.330   3.671   3.526
25012SOL    HW176875   0.329   3.577   3.545
25012SOL    HW276876   0.307   3.713   3.609
25013SOL     OW76877   6.896   5.931   9.719
25013SOL    HW176878   6.866   6.000   9.778
25013SOL    HW276879   6.816   5.903   9.674
25014SOL     OW76880   5.264   7.865   8.129
25014SOL    HW176881   5.319   7.873   8.050
25014SOL    HW276882   5.325   7.875   8.202
25015SOL     OW76883  14.782   5.317  11.092
25015SOL    HW176884  14.863   5.364  11.110
25015SOL    HW276885  14.810   5.226  11.077
25016SOL     OW76886   4.027   2.153  10.210
25016SOL    HW176887   3.937   2.138  10.179
25016SOL    HW276888   4.082   2.120  10.139
25017SOL     OW76889   0.334   5.533   3.164
25017SOL    HW176890   0.348   5.477   3.088
25017SOL    HW276891   0.241   5.522   3.184
25018SOL     OW76892   1.883   3.244  10.183
25018SOL    HW176893   1.862   3.294  10.262
25018SOL    HW276894   1.972   3.211  10.199
25019SOL     OW76895  11.958  13.337   6.987
25019SOL    HW176896  11.929  13.247   7.003
25019SOL    HW276897  12.025  13.329   6.919
25020SOL     OW76898   6.125  10.446  11.417
25020SOL    HW176899   6.088  10.358  11.405
25020SOL    HW276900   6.165  10.467  11.332
25021SOL     OW76901   4.117   0.311   5.867
25021SOL    HW176902   4.086   0.223   5.886
25021SOL    HW276903   4.047   0.350   5.814
25022SOL     OW76904   9.290   4.536   9.742
25022SOL    HW176905   9.206   4.494   9.724
25022SOL    HW276906   9.285   4.620   9.695
25023SOL     OW76907   1.051   4.010  12.494
25023SOL    HW176908   1.046   4.004  12.399
25023SOL    HW276909   1.076   4.101  12.512
25024SOL     OW76910   9.057   2.525  10.832
25024SOL    HW176911   9.010   2.606  10.852
25024SOL    HW276912   9.097   2.541  10.747
25025SOL     OW76913   6.650  12.349  11.179
25025SOL    HW176914   6.684  12.345  11.090
25025SOL    HW276915   6.566  12.395  11.171
25026SOL     OW76916  14.360   7.903   6.089
25026SOL    HW176917  14.330   7.818   6.057
25026SOL    HW276918  14.281   7.945   6.124
25027SOL     OW76919  12.826   0.607  13.104
25027SOL    HW176920  12.740   0.581  13.137
25027SOL    HW276921  12.869   0.648  13.179
25028SOL     OW76922  10.141   6.589  12.549
25028SOL    HW176923  10.090   6.519  12.507
25028SOL    HW276924  10.101   6.670  12.518
25029SOL     OW76925   6.486  10.345   4.881
25029SOL    HW176926   6.493  10.391   4.797
25029SOL    HW276927   6.419  10.279   4.866
25030SOL     OW76928  11.826   3.063   5.039
25030SOL    HW176929  11.852   3.145   4.997
25030SOL    HW276930  11.750   3.085   5.092
25031SOL     OW76931   6.377   7.622   7.689
25031SOL    HW176932   6.433   7.679   7.741
25031SOL    HW276933   6.437   7.563   7.643
25032SOL     OW76934   3.764   6.260  12.465
25032SOL    HW176935   3.785   6.167  12.461
25032SOL    HW276936   3.748   6.285  12.374
25033SOL     OW76937   7.236   9.705   0.199
25033SOL    HW176938   7.228   9.610   0.200
25033SOL    HW276939   7.154   9.736   0.159
25034SOL     OW76940   6.576   7.833   0.964
25034SOL    HW176941   6.540   7.902   0.909
25034SOL    HW276942   6.671   7.845   0.957
25035SOL     OW76943   2.567   9.637  12.595
25035SOL    HW176944   2.524   9.650  12.511
25035SOL    HW276945   2.560   9.721  12.639
25036SOL     OW76946  14.381   0.988  13.481
25036SOL    HW176947  14.440   0.951  13.546
25036SOL    HW276948  14.324   0.916  13.455
25037SOL     OW76949  13.227  11.640   5.474
25037SOL    HW176950  13.218  11.708   5.407
25037SOL    HW276951  13.244  11.560   5.424
25038SOL     OW76952   2.932  12.091   1.273
25038SOL    HW176953   3.024  12.109   1.253
25038SOL    HW276954   2.934  12.050   1.359
25039SOL     OW76955   8.081  14.368   9.375
25039SOL    HW176956   8.146  14.321   9.323
25039SOL    HW276957   8.133  14.410   9.444
25040SOL     OW76958  13.275  11.207   1.771
25040SOL    HW176959  13.298  11.252   1.690
25040SOL    HW276960  13.342  11.234   1.833
25041SOL     OW76961   3.192  11.725  11.837
25041SOL    HW176962   3.200  11.688  11.749
25041SOL    HW276963   3.184  11.650  11.895
25042SOL     OW76964  12.756  13.690   2.378
25042SOL    HW176965  12.697  13.732   2.441
25042SOL    HW276966  12.837  13.675   2.426
25043SOL     OW76967  14.560   9.207  10.526
25043SOL    HW176968  14.517   9.227  10.609
25043SOL    HW276969  14.489   9.181  10.468
25044SOL     OW76970  11.965  13.910   9.733
25044SOL    HW176971  11.994  13.949   9.650
25044SOL    HW276972  11.881  13.869   9.711
25045SOL     OW76973  11.906   4.803   5.490
25045SOL    HW176974  11.855   4.852   5.555
25045SOL    HW276975  11.996   4.834   5.502
25046SOL     OW76976   1.456  11.800   7.974
25046SOL    HW176977   1.443  11.810   8.069
25046SOL    HW276978   1.372  11.823   7.936
25047SOL     OW76979   6.134   7.532   5.403
25047SOL    HW176980   6.206   7.478   5.436
25047SOL    HW276981   6.055   7.482   5.426
25048SOL     OW76982   4.784   7.703   6.660
25048SOL    HW176983   4.819   7.682   6.573
25048SOL    HW276984   4.846   7.767   6.696
25049SOL     OW76985   3.550   9.055  12.782
25049SOL    HW176986   3.612   9.097  12.841
25049SOL    HW276987   3.588   9.068  12.695
25050SOL     OW76988   3.763   2.930   3.234
25050SOL    HW176989   3.826   2.985   3.280
25050SOL    HW276990   3.746   2.858   3.295
25051SOL     OW76991   9.587  12.057  13.002
25051SOL    HW176992   9.573  12.122  13.071
25051SOL    HW276993   9.501  12.015  12.992
25052SOL     OW76994   8.834  11.092   2.813
25052SOL    HW176995   8.846  11.184   2.788
25052SOL    HW276996   8.818  11.047   2.730
25053SOL     OW76997   1.393   2.081   9.398
25053SOL    HW176998   1.418   2.124   9.317
25053SOL    HW276999   1.449   2.003   9.402
25054SOL     OW77000   6.664   4.490   5.263
25054SOL    HW177001   6.663   4.401   5.227
25054SOL    HW277002   6.706   4.481   5.348
25055SOL     OW77003   1.336   8.684   9.442
25055SOL    HW177004   1.350   8.702   9.535
25055SOL    HW277005   1.245   8.711   9.425
25056SOL     OW77006   1.811   5.209  14.122
25056SOL    HW177007   1.745   5.158  14.169
25056SOL    HW277008   1.854   5.146  14.064
25057SOL     OW77009  13.642   1.685   9.932
25057SOL    HW177010  13.721   1.738   9.918
25057SOL    HW277011  13.597   1.727  10.005
25058SOL     OW77012   1.746   2.947   5.752
25058SOL    HW177013   1.823   2.949   5.809
25058SOL    HW277014   1.749   2.859   5.712
25059SOL     OW77015  10.230   3.504   7.910
25059SOL    HW177016  10.230   3.593   7.874
25059SOL    HW277017  10.319   3.473   7.896
25060SOL     OW77018   1.192  14.547   9.966
25060SOL    HW177019   1.228  14.549  10.055
25060SOL    HW277020   1.186  14.639   9.941
25061SOL     OW77021  10.306   3.944  12.927
25061SOL    HW177022  10.315   3.998  12.848
25061SOL    HW277023  10.352   3.993  12.995
25062SOL     OW77024   4.961   9.340   5.370
25062SOL    HW177025   5.055   9.353   5.386
25062SOL    HW277026   4.927   9.429   5.358
25063SOL     OW77027  12.404   2.786  13.224
25063SOL    HW177028  12.450   2.813  13.144
25063SOL    HW277029  12.464   2.811  13.295
25064SOL     OW77030  10.722   6.905  10.781
25064SOL    HW177031  10.778   6.914  10.704
25064SOL    HW277032  10.672   6.987  10.784
25065SOL     OW77033   6.295   0.143   3.536
25065SOL    HW177034   6.234   0.132   3.609
25065SOL    HW277035   6.334   0.229   3.550
25066SOL     OW77036   0.928  13.966  12.516
25066SOL    HW177037   0.947  14.053  12.552
25066SOL    HW277038   0.994  13.909  12.556
25067SOL     OW77039  13.171   5.629   9.860
25067SOL    HW177040  13.180   5.534   9.866
25067SOL    HW277041  13.237   5.663   9.920
25068SOL     OW77042  13.539   1.007   9.209
25068SOL    HW177043  13.502   0.977   9.126
25068SOL    HW277044  13.601   1.075   9.184
25069SOL     OW77045  14.359  11.894   9.599
25069SOL    HW177046  14.394  11.848   9.676
25069SOL    HW277047  14.269  11.915   9.623
25070SOL     OW77048   2.351   3.905   5.688
25070SOL    HW177049   2.376   3.989   5.725
25070SOL    HW277050   2.341   3.847   5.764
25071SOL     OW77051  10.204   0.302   9.753
25071SOL    HW177052  10.126   0.300   9.697
25071SOL    HW277053  10.193   0.379   9.808
25072SOL     OW77054   7.461  10.991   5.753
25072SOL    HW177055   7.473  11.010   5.660
25072SOL    HW277056   7.417  10.907   5.755
25073SOL     OW77057  10.725   8.403  13.689
25073SOL    HW177058  10.765   8.480  13.730
25073SOL    HW277059  10.696   8.349  13.762
25074SOL     OW77060  10.002   9.449  11.670
25074SOL    HW177061   9.988   9.363  11.708
25074SOL    HW277062  10.079   9.483  11.717
25075SOL     OW77063  11.660   5.329   6.991
25075SOL    HW177064  11.626   5.381   6.918
25075SOL    HW277065  11.677   5.393   7.060
25076SOL     OW77066  12.666   5.921  13.560
25076SOL    HW177067  12.730   5.867  13.606
25076SOL    HW277068  12.637   5.867  13.487
25077SOL     OW77069  10.349   0.945  14.657
25077SOL    HW177070  10.436   0.964  14.691
25077SOL    HW277071  10.361   0.936  14.563
25078SOL     OW77072  14.046   2.879  10.870
25078SOL    HW177073  14.029   2.831  10.950
25078SOL    HW277074  14.123   2.837  10.832
25079SOL     OW77075  13.851  14.112   2.969
25079SOL    HW177076  13.837  14.204   2.947
25079SOL    HW277077  13.940  14.109   3.006
25080SOL     OW77078   3.611   7.533   5.402
25080SOL    HW177079   3.560   7.461   5.364
25080SOL    HW277080   3.682   7.490   5.450
25081SOL     OW77081   5.145   8.879   9.680
25081SOL    HW177082   5.212   8.914   9.622
25081SOL    HW277083   5.187   8.804   9.722
25082SOL     OW77084   3.002   7.922   9.772
25082SOL    HW177085   3.003   7.849   9.711
25082SOL    HW277086   3.061   7.895   9.844
25083SOL     OW77087  11.986  12.459   2.095
25083SOL    HW177088  11.918  12.397   2.117
25083SOL    HW277089  11.976  12.474   2.001
25084SOL     OW77090   6.696  12.289  12.091
25084SOL    HW177091   6.646  12.223  12.140
25084SOL    HW277092   6.774  12.242  12.061
25085SOL     OW77093   2.968  11.489   5.626
25085SOL    HW177094   3.046  11.434   5.620
25085SOL    HW277095   2.999  11.578   5.610
25086SOL     OW77096   1.600   4.717   8.328
25086SOL    HW177097   1.542   4.739   8.401
25086SOL    HW277098   1.650   4.797   8.312
25087SOL     OW77099  13.362   5.729  11.768
25087SOL    HW177100  13.312   5.762  11.843
25087SOL    HW277101  13.362   5.634  11.779
25088SOL     OW77102   0.989   7.722   3.678
25088SOL    HW177103   0.996   7.638   3.723
25088SOL    HW277104   1.018   7.704   3.589
25089SOL     OW77105  11.425   5.753  13.780
25089SOL    HW177106  11.459   5.758  13.691
25089SOL    HW277107  11.348   5.697  13.773
25090SOL     OW77108   5.722   5.389   8.928
25090SOL    HW177109   5.733   5.400   9.023
25090SOL    HW277110   5.803   5.349   8.899
25091SOL     OW77111   7.215  13.482   8.616
25091SOL    HW177112   7.218  13.574   8.592
25091SOL    HW277113   7.265  13.477   8.698
25092SOL     OW77114  13.461   7.608   2.023
25092SOL    HW177115  13.459   7.614   1.927
25092SOL    HW277116  13.373   7.634   2.050
25093SOL     OW77117   8.883   6.645   7.453
25093SOL    HW177118   8.837   6.728   7.441
25093SOL    HW277119   8.924   6.652   7.539
25094SOL     OW77120   6.600   8.962   8.010
25094SOL    HW177121   6.603   9.017   8.088
25094SOL    HW277122   6.508   8.963   7.984
25095SOL     OW77123  13.593  12.118   6.540
25095SOL    HW177124  13.668  12.065   6.566
25095SOL    HW277125  13.630  12.204   6.519
25096SOL     OW77126   0.854   9.346  10.190
25096SOL    HW177127   0.946   9.366  10.177
25096SOL    HW277128   0.851   9.302  10.275
25097SOL     OW77129   1.176   0.922   4.665
25097SOL    HW177130   1.150   0.955   4.751
25097SOL    HW277131   1.270   0.937   4.660
25098SOL     OW77132   7.193   6.949   1.302
25098SOL    HW177133   7.177   7.022   1.363
25098SOL    HW277134   7.126   6.884   1.325
25099SOL     OW77135   5.842   2.080   7.819
25099SOL    HW177136   5.834   2.108   7.728
25099SOL    HW277137   5.930   2.107   7.845
25100SOL     OW77138  11.846   2.819  12.324
25100SOL    HW177139  11.827   2.818  12.230
25100SOL    HW277140  11.942   2.818  12.328
25101SOL     OW77141  10.302   2.767   1.741
25101SOL    HW177142  10.371   2.823   1.704
25101SOL    HW277143  10.300   2.691   1.683
25102SOL     OW77144   1.792   6.914  13.262
25102SOL    HW177145   1.810   6.929  13.169
25102SOL    HW277146   1.786   6.819  13.270
25103SOL     OW77147  12.257  14.769  13.305
25103SOL    HW177148  12.306  14.842  13.343
25103SOL    HW277149  12.322  14.722  13.253
25104SOL     OW77150   1.917  11.602  11.647
25104SOL    HW177151   1.903  11.689  11.685
25104SOL    HW277152   1.912  11.616  11.553
25105SOL     OW77153   1.420  11.764   3.979
25105SOL    HW177154   1.333  11.796   3.952
25105SOL    HW277155   1.475  11.779   3.902
25106SOL     OW77156  11.920   5.500  11.179
25106SOL    HW177157  11.974   5.529  11.253
25106SOL    HW277158  11.965   5.534  11.102
25107SOL     OW77159   4.502  12.650   2.099
25107SOL    HW177160   4.464  12.737   2.092
25107SOL    HW277161   4.595  12.663   2.080
25108SOL     OW77162  11.736   5.286   5.658
25108SOL    HW177163  11.684   5.219   5.614
25108SOL    HW277164  11.707   5.368   5.619
25109SOL     OW77165   3.238   9.556  14.257
25109SOL    HW177166   3.256   9.543  14.164
25109SOL    HW277167   3.159   9.504  14.273
25110SOL     OW77168   2.364  14.559   8.857
25110SOL    HW177169   2.372  14.650   8.828
25110SOL    HW277170   2.454  14.528   8.864
25111SOL     OW77171   6.836   5.848  11.326
25111SOL    HW177172   6.765   5.910  11.309
25111SOL    HW277173   6.794   5.762  11.327
25112SOL     OW77174   2.005   9.487   0.201
25112SOL    HW177175   2.065   9.434   0.149
25112SOL    HW277176   2.061   9.551   0.245
25113SOL     OW77177   4.023   6.844   0.485
25113SOL    HW177178   4.014   6.932   0.522
25113SOL    HW277179   3.984   6.786   0.551
25114SOL     OW77180   3.833  13.076   8.903
25114SOL    HW177181   3.779  13.098   8.827
25114SOL    HW277182   3.912  13.129   8.892
25115SOL     OW77183  11.353   5.919   8.925
25115SOL    HW177184  11.271   5.873   8.904
25115SOL    HW277185  11.387   5.872   9.001
25116SOL     OW77186  13.435   7.594   3.136
25116SOL    HW177187  13.525   7.614   3.162
25116SOL    HW277188  13.383   7.666   3.173
25117SOL     OW77189  12.497  14.612  12.487
25117SOL    HW177190  12.456  14.663  12.556
25117SOL    HW277191  12.466  14.522  12.501
25118SOL     OW77192   4.331  13.704   1.055
25118SOL    HW177193   4.344  13.611   1.034
25118SOL    HW277194   4.346  13.749   0.971
25119SOL     OW77195   1.674  14.328   1.068
25119SOL    HW177196   1.696  14.410   1.025
25119SOL    HW277197   1.750  14.309   1.123
25120SOL     OW77198   7.818   7.382   0.451
25120SOL    HW177199   7.837   7.369   0.358
25120SOL    HW277200   7.723   7.379   0.457
25121SOL     OW77201   5.123   9.786   5.401
25121SOL    HW177202   5.191   9.838   5.444
25121SOL    HW277203   5.060   9.767   5.471
25122SOL     OW77204   7.561   0.558   3.934
25122SOL    HW177205   7.507   0.561   4.013
25122SOL    HW277206   7.506   0.594   3.865
25123SOL     OW77207   2.843   6.270  12.452
25123SOL    HW177208   2.784   6.250  12.524
25123SOL    HW277209   2.839   6.193  12.395
25124SOL     OW77210  12.155   4.809   4.685
25124SOL    HW177211  12.162   4.722   4.646
25124SOL    HW277212  12.221   4.861   4.640
25125SOL     OW77213   3.330   5.731   3.180
25125SOL    HW177214   3.408   5.783   3.202
25125SOL    HW277215   3.357   5.680   3.103
25126SOL     OW77216  10.966   3.467   0.292
25126SOL    HW177217  10.951   3.436   0.381
25126SOL    HW277218  10.945   3.391   0.236
25127SOL     OW77219  11.720   8.509  12.343
25127SOL    HW177220  11.755   8.420  12.346
25127SOL    HW277221  11.633   8.502  12.383
25128SOL     OW77222   8.934   0.107   6.961
25128SOL    HW177223   8.858   0.049   6.954
25128SOL    HW277224   8.948   0.139   6.873
25129SOL     OW77225  11.619  11.800   4.051
25129SOL    HW177226  11.565  11.877   4.034
25129SOL    HW277227  11.679  11.796   3.977
25130SOL     OW77228   6.933  10.594   5.874
25130SOL    HW177229   6.937  10.664   5.810
25130SOL    HW277230   6.857  10.614   5.928
25131SOL     OW77231  10.450  10.434   5.361
25131SOL    HW177232  10.388  10.406   5.293
25131SOL    HW277233  10.396  10.445   5.439
25132SOL     OW77234   6.188  14.748  11.481
25132SOL    HW177235   6.240  14.798  11.544
25132SOL    HW277236   6.166  14.667  11.526
25133SOL     OW77237   0.414   9.138   6.867
25133SOL    HW177238   0.438   9.079   6.795
25133SOL    HW277239   0.495   9.149   6.917
25134SOL     OW77240  11.685   7.700  11.585
25134SOL    HW177241  11.605   7.747  11.563
25134SOL    HW277242  11.702   7.644  11.509
25135SOL     OW77243   0.891   5.908  11.310
25135SOL    HW177244   0.875   5.822  11.348
25135SOL    HW277245   0.811   5.928  11.261
25136SOL     OW77246   8.365   3.735   6.882
25136SOL    HW177247   8.345   3.786   6.961
25136SOL    HW277248   8.285   3.685   6.865
25137SOL     OW77249   6.478   5.290   2.596
25137SOL    HW177250   6.400   5.346   2.597
25137SOL    HW277251   6.487   5.263   2.505
25138SOL     OW77252   4.314  13.032   3.993
25138SOL    HW177253   4.394  12.981   4.003
25138SOL    HW277254   4.252  12.992   4.054
25139SOL     OW77255   0.995   6.932   7.205
25139SOL    HW177256   1.056   6.886   7.264
25139SOL    HW277257   0.942   6.862   7.166
25140SOL     OW77258   4.951   8.085   4.009
25140SOL    HW177259   4.961   8.027   4.084
25140SOL    HW277260   4.925   8.169   4.046
25141SOL     OW77261   0.489   9.780   2.639
25141SOL    HW177262   0.474   9.687   2.657
25141SOL    HW277263   0.445   9.826   2.710
25142SOL     OW77264   4.413  14.449   4.348
25142SOL    HW177265   4.469  14.434   4.271
25142SOL    HW277266   4.406  14.363   4.389
25143SOL     OW77267   5.321   7.594   8.763
25143SOL    HW177268   5.260   7.534   8.805
25143SOL    HW277269   5.329   7.561   8.673
25144SOL     OW77270   4.926  12.111  10.111
25144SOL    HW177271   4.969  12.102  10.196
25144SOL    HW277272   4.990  12.158  10.057
25145SOL     OW77273   5.669   5.717  11.610
25145SOL    HW177274   5.673   5.712  11.705
25145SOL    HW277275   5.739   5.778  11.586
25146SOL     OW77276   8.854   5.353   9.865
25146SOL    HW177277   8.832   5.443   9.890
25146SOL    HW277278   8.933   5.361   9.812
25147SOL     OW77279   0.389  10.191   3.763
25147SOL    HW177280   0.473  10.211   3.804
25147SOL    HW277281   0.339  10.272   3.771
25148SOL     OW77282   3.223  13.074  13.700
25148SOL    HW177283   3.180  13.034  13.624
25148SOL    HW277284   3.184  13.160  13.707
25149SOL     OW77285  12.733   4.551  12.019
25149SOL    HW177286  12.652   4.586  12.055
25149SOL    HW277287  12.761   4.615  11.954
25150SOL     OW77288   2.880   5.727   6.468
25150SOL    HW177289   2.872   5.668   6.543
25150SOL    HW277290   2.791   5.732   6.432
25151SOL     OW77291  11.189   4.990   0.678
25151SOL    HW177292  11.219   5.079   0.663
25151SOL    HW277293  11.110   4.982   0.626
25152SOL     OW77294   5.812   0.023   1.376
25152SOL    HW177295   5.857  14.847   1.445
25152SOL    HW277296   5.862   0.004   1.297
25153SOL     OW77297   7.773  10.879   5.960
25153SOL    HW177298   7.727  10.912   5.883
25153SOL    HW277299   7.775  10.784   5.948
25154SOL     OW77300  13.760   5.603   9.175
25154SOL    HW177301  13.679   5.643   9.144
25154SOL    HW277302  13.827   5.670   9.161
25155SOL     OW77303  14.137   8.115   1.388
25155SOL    HW177304  14.202   8.185   1.394
25155SOL    HW277305  14.156   8.058   1.462
25156SOL     OW77306   3.550   5.530   1.810
25156SOL    HW177307   3.484   5.471   1.774
25156SOL    HW277308   3.634   5.491   1.784
25157SOL     OW77309   9.990  12.390  14.028
25157SOL    HW177310  10.069  12.440  14.048
25157SOL    HW277311   9.978  12.333  14.104
25158SOL     OW77312   1.138  14.573   6.774
25158SOL    HW177313   1.192  14.652   6.771
25158SOL    HW277314   1.147  14.534   6.687
25159SOL     OW77315   4.661   8.700   3.828
25159SOL    HW177316   4.698   8.644   3.896
25159SOL    HW277317   4.601   8.758   3.875
25160SOL     OW77318   4.048   6.729   7.430
25160SOL    HW177319   4.072   6.682   7.350
25160SOL    HW277320   4.129   6.773   7.456
25161SOL     OW77321  13.594  14.022   0.988
25161SOL    HW177322  13.564  14.033   1.078
25161SOL    HW277323  13.661  13.954   0.992
25162SOL     OW77324   1.125   8.646   0.366
25162SOL    HW177325   1.211   8.681   0.343
25162SOL    HW277326   1.144   8.575   0.427
25163SOL     OW77327   2.826  11.328   4.107
25163SOL    HW177328   2.831  11.238   4.076
25163SOL    HW277329   2.776  11.323   4.188
25164SOL     OW77330   1.630   9.732   8.096
25164SOL    HW177331   1.617   9.652   8.046
25164SOL    HW277332   1.725   9.748   8.091
25165SOL     OW77333   8.483   0.186   0.765
25165SOL    HW177334   8.462   0.115   0.705
25165SOL    HW277335   8.522   0.143   0.841
25166SOL     OW77336   9.633  13.503  11.747
25166SOL    HW177337   9.541  13.528  11.756
25166SOL    HW277338   9.679  13.559  11.810
25167SOL     OW77339   5.558   7.978  11.235
25167SOL    HW177340   5.490   7.912  11.222
25167SOL    HW277341   5.635   7.942  11.191
25168SOL     OW77342   8.437   6.403   5.500
25168SOL    HW177343   8.457   6.344   5.573
25168SOL    HW277344   8.519   6.411   5.451
25169SOL     OW77345   7.147  13.067  10.517
25169SOL    HW177346   7.166  13.094  10.427
25169SOL    HW277347   7.221  13.100  10.569
25170SOL     OW77348  12.398   6.643   9.546
25170SOL    HW177349  12.383   6.684   9.631
25170SOL    HW277350  12.317   6.657   9.497
25171SOL     OW77351   5.512  14.615   7.075
25171SOL    HW177352   5.526  14.654   7.161
25171SOL    HW277353   5.467  14.533   7.094
25172SOL     OW77354  10.931   2.654   4.356
25172SOL    HW177355  10.851   2.633   4.308
25172SOL    HW277356  10.921   2.746   4.380
25173SOL     OW77357   3.386   5.495  13.517
25173SOL    HW177358   3.383   5.586  13.546
25173SOL    HW277359   3.410   5.445  13.595
25174SOL     OW77360   4.261   0.452   5.405
25174SOL    HW177361   4.169   0.428   5.409
25174SOL    HW277362   4.302   0.403   5.477
25175SOL     OW77363   8.010  10.917   4.657
25175SOL    HW177364   8.092  10.893   4.701
25175SOL    HW277365   8.006  11.012   4.665
25176SOL     OW77366   3.967  14.303   5.184
25176SOL    HW177367   4.049  14.276   5.225
25176SOL    HW277368   3.967  14.260   5.098
25177SOL     OW77369   3.424   7.669   3.472
25177SOL    HW177370   3.423   7.707   3.560
25177SOL    HW277371   3.333   7.649   3.453
25178SOL     OW77372  11.504  14.830   9.307
25178SOL    HW177373  11.497  14.790   9.394
25178SOL    HW277374  11.555  14.767   9.256
25179SOL     OW77375   4.853   9.819  10.062
25179SOL    HW177376   4.769   9.865  10.074
25179SOL    HW277377   4.872   9.782  10.148
25180SOL     OW77378  11.567  14.169   0.890
25180SOL    HW177379  11.550  14.180   0.796
25180SOL    HW277380  11.659  14.192   0.901
25181SOL     OW77381   8.745   7.146   1.025
25181SOL    HW177382   8.666   7.199   1.035
25181SOL    HW277383   8.816   7.210   1.018
25182SOL     OW77384   4.547   6.627  12.918
25182SOL    HW177385   4.515   6.704  12.966
25182SOL    HW277386   4.487   6.618  12.845
25183SOL     OW77387   2.758  13.546   4.668
25183SOL    HW177388   2.667  13.524   4.650
25183SOL    HW277389   2.796  13.563   4.582
25184SOL     OW77390   3.191   5.298   1.213
25184SOL    HW177391   3.163   5.356   1.283
25184SOL    HW277392   3.135   5.221   1.221
25185SOL     OW77393   5.725   9.762  14.224
25185SOL    HW177394   5.719   9.856  14.239
25185SOL    HW277395   5.678   9.748  14.142
25186SOL     OW77396   8.963   5.555   8.423
25186SOL    HW177397   9.031   5.616   8.394
25186SOL    HW277398   8.960   5.566   8.518
25187SOL     OW77399   1.704   4.086  14.741
25187SOL    HW177400   1.632   4.059  14.798
25187SOL    HW277401   1.726   4.174  14.769
25188SOL     OW77402   7.205  10.638   0.495
25188SOL    HW177403   7.288  10.684   0.480
25188SOL    HW277404   7.143  10.708   0.518
25189SOL     OW77405   4.365   4.671  12.085
25189SOL    HW177406   4.407   4.756  12.069
25189SOL    HW277407   4.295   4.667  12.021
25190SOL     OW77408   1.579  12.521   3.457
25190SOL    HW177409   1.660  12.542   3.505
25190SOL    HW277410   1.569  12.593   3.395
25191SOL     OW77411   0.995  10.019  10.280
25191SOL    HW177412   0.952   9.948  10.232
25191SOL    HW277413   1.009   9.983  10.368
25192SOL     OW77414   8.118   9.538   1.312
25192SOL    HW177415   8.077   9.465   1.265
25192SOL    HW277416   8.212   9.525   1.300
25193SOL     OW77417   9.994   1.806   0.532
25193SOL    HW177418  10.039   1.757   0.602
25193SOL    HW277419   9.902   1.806   0.558
25194SOL     OW77420   6.767  12.955   1.547
25194SOL    HW177421   6.744  12.881   1.490
25194SOL    HW277422   6.825  13.009   1.494
25195SOL     OW77423   5.341   5.666  11.286
25195SOL    HW177424   5.391   5.710  11.356
25195SOL    HW277425   5.384   5.693  11.205
25196SOL     OW77426  10.697  12.892  10.932
25196SOL    HW177427  10.738  12.869  11.015
25196SOL    HW277428  10.603  12.895  10.951
25197SOL     OW77429   6.788  13.036   0.728
25197SOL    HW177430   6.755  12.946   0.719
25197SOL    HW277431   6.768  13.059   0.819
25198SOL     OW77432   9.384  11.669  11.465
25198SOL    HW177433   9.407  11.733  11.398
25198SOL    HW277434   9.457  11.673  11.527
25199SOL     OW77435   0.844   3.601  12.649
25199SOL    HW177436   0.835   3.692  12.675
25199SOL    HW277437   0.904   3.602  12.575
25200SOL     OW77438   9.518   5.543  13.168
25200SOL    HW177439   9.448   5.607  13.178
25200SOL    HW277440   9.477   5.468  13.126
25201SOL     OW77441  12.119   4.723  13.628
25201SOL    HW177442  12.035   4.719  13.582
25201SOL    HW277443  12.145   4.631  13.638
25202SOL     OW77444   8.677   9.086   4.169
25202SOL    HW177445   8.724   9.168   4.184
25202SOL    HW277446   8.591   9.099   4.208
25203SOL     OW77447  12.898   2.322   1.732
25203SOL    HW177448  12.926   2.287   1.647
25203SOL    HW277449  12.846   2.252   1.771
25204SOL     OW77450  10.160  11.152  13.621
25204SOL    HW177451  10.247  11.147  13.581
25204SOL    HW277452  10.154  11.072  13.673
25205SOL     OW77453   8.722  12.091   5.232
25205SOL    HW177454   8.814  12.091   5.204
25205SOL    HW277455   8.678  12.146   5.168
25206SOL     OW77456   8.176   1.973   6.048
25206SOL    HW177457   8.243   1.905   6.058
25206SOL    HW277458   8.112   1.935   5.988
25207SOL     OW77459  13.892   3.531   2.345
25207SOL    HW177460  13.903   3.601   2.281
25207SOL    HW277461  13.950   3.462   2.315
25208SOL     OW77462   9.613   3.813   7.177
25208SOL    HW177463   9.633   3.720   7.167
25208SOL    HW277464   9.633   3.832   7.269
25209SOL     OW77465   9.414   6.296   7.198
25209SOL    HW177466   9.421   6.326   7.107
25209SOL    HW277467   9.486   6.233   7.208
25210SOL     OW77468   5.762   2.505   4.502
25210SOL    HW177469   5.839   2.558   4.484
25210SOL    HW277470   5.787   2.452   4.578
25211SOL     OW77471  10.885   0.080   8.707
25211SOL    HW177472  10.852   0.041   8.626
25211SOL    HW277473  10.915   0.005   8.759
25212SOL     OW77474  12.302   7.691  14.355
25212SOL    HW177475  12.307   7.619  14.418
25212SOL    HW277476  12.359   7.664  14.283
25213SOL     OW77477   7.334  12.374   8.387
25213SOL    HW177478   7.320  12.294   8.437
25213SOL    HW277479   7.393  12.347   8.316
25214SOL     OW77480  10.027   1.870  11.622
25214SOL    HW177481  10.001   1.779  11.610
25214SOL    HW277482  10.114   1.866  11.660
25215SOL     OW77483  13.308   9.147   8.898
25215SOL    HW177484  13.364   9.097   8.957
25215SOL    HW277485  13.261   9.081   8.847
25216SOL     OW77486  12.217   7.529   9.484
25216SOL    HW177487  12.263   7.543   9.402
25216SOL    HW277488  12.154   7.460   9.464
25217SOL     OW77489   4.778   4.485  14.687
25217SOL    HW177490   4.683   4.477  14.694
25217SOL    HW277491   4.809   4.478  14.777
25218SOL     OW77492   6.430   8.444   9.735
25218SOL    HW177493   6.385   8.478   9.658
25218SOL    HW277494   6.413   8.508   9.803
25219SOL     OW77495  13.851  14.692  12.226
25219SOL    HW177496  13.761  14.714  12.250
25219SOL    HW277497  13.892  14.776  12.207
25220SOL     OW77498  10.935   6.317  11.403
25220SOL    HW177499  10.932   6.319  11.498
25220SOL    HW277500  10.929   6.409  11.376
25221SOL     OW77501   9.729   1.283   1.799
25221SOL    HW177502   9.756   1.302   1.709
25221SOL    HW277503   9.790   1.216   1.829
25222SOL     OW77504   5.746   7.356  11.016
25222SOL    HW177505   5.692   7.410  10.959
25222SOL    HW277506   5.834   7.361  10.979
25223SOL     OW77507   6.600   7.575   3.730
25223SOL    HW177508   6.662   7.574   3.656
25223SOL    HW277509   6.642   7.521   3.797
25224SOL     OW77510   3.857   7.685  11.395
25224SOL    HW177511   3.809   7.751  11.445
25224SOL    HW277512   3.850   7.715  11.304
25225SOL     OW77513  12.514   9.524  14.290
25225SOL    HW177514  12.534   9.588  14.358
25225SOL    HW277515  12.525   9.439  14.332
25226SOL     OW77516   1.443   2.633  12.561
25226SOL    HW177517   1.449   2.680  12.644
25226SOL    HW277518   1.370   2.675  12.515
25227SOL     OW77519   7.026  13.346   7.638
25227SOL    HW177520   7.112  13.335   7.599
25227SOL    HW277521   7.015  13.269   7.693
25228SOL     OW77522   4.778  11.935  13.831
25228SOL    HW177523   4.846  11.882  13.790
25228SOL    HW277524   4.826  11.996  13.887
25229SOL     OW77525  12.405  11.732   4.889
25229SOL    HW177526  12.419  11.677   4.813
25229SOL    HW277527  12.362  11.675   4.953
25230SOL     OW77528   4.507   3.183   3.610
25230SOL    HW177529   4.423   3.219   3.581
25230SOL    HW277530   4.549   3.256   3.656
25231SOL     OW77531   6.398  14.828   4.344
25231SOL    HW177532   6.332  14.827   4.276
25231SOL    HW277533   6.476  14.789   4.303
25232SOL     OW77534  13.984  11.453   2.533
25232SOL    HW177535  13.911  11.402   2.498
25232SOL    HW277536  14.062  11.413   2.496
25233SOL     OW77537   1.959   7.230  12.290
25233SOL    HW177538   1.929   7.163  12.351
25233SOL    HW277539   2.004   7.294  12.344
25234SOL     OW77540   0.046  13.905  12.706
25234SOL    HW177541   0.044  13.818  12.744
25234SOL    HW277542   0.122  13.904  12.647
25235SOL     OW77543   1.822   1.953   6.601
25235SOL    HW177544   1.834   1.867   6.560
25235SOL    HW277545   1.899   1.964   6.656
25236SOL     OW77546   5.539   9.264  13.944
25236SOL    HW177547   5.599   9.210  13.893
25236SOL    HW277548   5.493   9.317  13.879
25237SOL     OW77549   6.588   5.840   1.752
25237SOL    HW177550   6.612   5.758   1.795
25237SOL    HW277551   6.615   5.908   1.814
25238SOL     OW77552  11.692   5.649   4.132
25238SOL    HW177553  11.731   5.664   4.218
25238SOL    HW277554  11.761   5.674   4.070
25239SOL     OW77555   4.975  11.710   8.086
25239SOL    HW177556   4.917  11.770   8.037
25239SOL    HW277557   5.016  11.766   8.152
25240SOL     OW77558   8.528   8.826   2.086
25240SOL    HW177559   8.535   8.877   2.005
25240SOL    HW277560   8.606   8.849   2.136
25241SOL     OW77561  13.032  13.205   7.498
25241SOL    HW177562  12.954  13.256   7.475
25241SOL    HW277563  13.000  13.138   7.558
25242SOL     OW77564   9.113   2.192   7.913
25242SOL    HW177565   9.043   2.143   7.957
25242SOL    HW277566   9.098   2.177   7.820
25243SOL     OW77567   3.450   8.858   3.414
25243SOL    HW177568   3.500   8.926   3.371
25243SOL    HW277569   3.489   8.849   3.501
25244SOL     OW77570   1.697  14.719   0.534
25244SOL    HW177571   1.717  14.809   0.509
25244SOL    HW277572   1.773  14.691   0.585
25245SOL     OW77573   8.946  12.059   1.108
25245SOL    HW177574   8.922  12.024   1.022
25245SOL    HW277575   9.021  12.115   1.091
25246SOL     OW77576   6.908   6.363   8.079
25246SOL    HW177577   6.981   6.422   8.057
25246SOL    HW277578   6.871   6.401   8.159
25247SOL     OW77579   0.316   1.778  12.219
25247SOL    HW177580   0.313   1.871  12.195
25247SOL    HW277581   0.228   1.746  12.201
25248SOL     OW77582  13.008   3.947   3.087
25248SOL    HW177583  12.932   3.942   3.029
25248SOL    HW277584  13.063   3.872   3.062
25249SOL     OW77585  11.585   4.243  11.605
25249SOL    HW177586  11.597   4.215  11.514
25249SOL    HW277587  11.502   4.204  11.632
25250SOL     OW77588  13.975   2.824  13.984
25250SOL    HW177589  14.043   2.758  14.000
25250SOL    HW277590  14.024   2.906  13.977
25251SOL     OW77591  11.415   7.882  13.395
25251SOL    HW177592  11.456   7.885  13.481
25251SOL    HW277593  11.477   7.924  13.337
25252SOL     OW77594   3.945   9.401  12.787
25252SOL    HW177595   3.953   9.471  12.722
25252SOL    HW277596   4.034   9.388  12.820
25253SOL     OW77597  11.828  14.530   4.391
25253SOL    HW177598  11.807  14.437   4.402
25253SOL    HW277599  11.743  14.573   4.396
25254SOL     OW77600  11.131  11.081   0.313
25254SOL    HW177601  11.213  11.053   0.273
25254SOL    HW277602  11.128  11.175   0.299
25255SOL     OW77603  13.767  14.588   7.413
25255SOL    HW177604  13.688  14.642   7.420
25255SOL    HW277605  13.734  14.502   7.386
25256SOL     OW77606  14.576  13.718   1.604
25256SOL    HW177607  14.483  13.733   1.620
25256SOL    HW277608  14.588  13.737   1.511
25257SOL     OW77609  10.029   1.169   1.746
25257SOL    HW177610  10.009   1.083   1.783
25257SOL    HW277611  10.117   1.158   1.708
25258SOL     OW77612   3.165   6.661   5.154
25258SOL    HW177613   3.116   6.584   5.182
25258SOL    HW277614   3.200   6.698   5.234
25259SOL     OW77615   7.518  13.167   8.045
25259SOL    HW177616   7.534  13.125   7.960
25259SOL    HW277617   7.502  13.094   8.105
25260SOL     OW77618   8.622   9.200  11.909
25260SOL    HW177619   8.569   9.138  11.858
25260SOL    HW277620   8.636   9.274  11.850
25261SOL     OW77621  12.234  13.459  13.843
25261SOL    HW177622  12.298  13.512  13.796
25261SOL    HW277623  12.246  13.370  13.808
25262SOL     OW77624   8.104  11.560  10.424
25262SOL    HW177625   8.134  11.578  10.335
25262SOL    HW277626   8.185  11.550  10.475
25263SOL     OW77627   5.927   9.923   8.535
25263SOL    HW177628   5.965   9.908   8.448
25263SOL    HW277629   5.912  10.018   8.538
25264SOL     OW77630   6.023   0.729   3.871
25264SOL    HW177631   6.094   0.667   3.893
25264SOL    HW277632   6.007   0.714   3.778
25265SOL     OW77633   5.322   3.241   1.998
25265SOL    HW177634   5.383   3.231   2.071
25265SOL    HW277635   5.270   3.318   2.021
25266SOL     OW77636   4.988  11.571  12.434
25266SOL    HW177637   4.944  11.655  12.448
25266SOL    HW277638   4.994  11.532  12.521
25267SOL     OW77639   3.264   3.893   9.553
25267SOL    HW177640   3.349   3.849   9.555
25267SOL    HW277641   3.200   3.822   9.558
25268SOL     OW77642  11.727   8.487  11.046
25268SOL    HW177643  11.635   8.489  11.021
25268SOL    HW277644  11.774   8.521  10.970
25269SOL     OW77645  13.545   7.292  13.873
25269SOL    HW177646  13.510   7.222  13.928
25269SOL    HW277647  13.495   7.286  13.792
25270SOL     OW77648  11.667  11.512   0.373
25270SOL    HW177649  11.663  11.580   0.305
25270SOL    HW277650  11.593  11.532   0.431
25271SOL     OW77651   3.338   5.209  13.946
25271SOL    HW177652   3.402   5.230  14.014
25271SOL    HW277653   3.368   5.255  13.868
25272SOL     OW77654  13.898  12.162   3.840
25272SOL    HW177655  13.858  12.210   3.767
25272SOL    HW277656  13.951  12.094   3.798
25273SOL     OW77657   6.208   0.727  10.892
25273SOL    HW177658   6.145   0.702  10.960
25273SOL    HW277659   6.254   0.802  10.928
25274SOL     OW77660   3.255  12.685   4.674
25274SOL    HW177661   3.184  12.716   4.731
25274SOL    HW277662   3.310  12.633   4.732
25275SOL     OW77663   1.890   9.397   4.803
25275SOL    HW177664   1.841   9.477   4.787
25275SOL    HW277665   1.948   9.418   4.877
25276SOL     OW77666   0.191  10.018   2.012
25276SOL    HW177667   0.212  10.105   1.978
25276SOL    HW277668   0.095  10.014   2.008
25277SOL     OW77669   6.920   0.918  12.354
25277SOL    HW177670   6.863   0.964  12.293
25277SOL    HW277671   6.963   0.988  12.403
25278SOL     OW77672   0.407  12.196  12.339
25278SOL    HW177673   0.444  12.283  12.355
25278SOL    HW277674   0.478  12.147  12.297
25279SOL     OW77675  14.713   9.929   9.156
25279SOL    HW177676  14.664   9.957   9.079
25279SOL    HW277677  14.677   9.981   9.228
25280SOL     OW77678  12.781   2.958  13.819
25280SOL    HW177679  12.744   3.044  13.839
25280SOL    HW277680  12.839   2.940  13.893
25281SOL     OW77681   5.011  11.521   4.584
25281SOL    HW177682   4.930  11.562   4.613
25281SOL    HW277683   5.000  11.428   4.607
25282SOL     OW77684   5.337   6.548   3.732
25282SOL    HW177685   5.414   6.592   3.697
25282SOL    HW277686   5.270   6.559   3.665
25283SOL     OW77687   2.140  10.001  12.247
25283SOL    HW177688   2.148   9.928  12.186
25283SOL    HW277689   2.181   9.970  12.328
25284SOL     OW77690  11.999   0.339   9.121
25284SOL    HW177691  12.073   0.291   9.158
25284SOL    HW277692  11.975   0.402   9.189
25285SOL     OW77693   4.364   7.044  14.668
25285SOL    HW177694   4.417   7.091  14.603
25285SOL    HW277695   4.419   7.040  14.746
25286SOL     OW77696   1.102   4.995   6.078
25286SOL    HW177697   1.197   4.987   6.073
25286SOL    HW277698   1.079   4.966   6.166
25287SOL     OW77699   4.210   4.315  14.377
25287SOL    HW177700   4.116   4.299  14.391
25287SOL    HW277701   4.218   4.411  14.375
25288SOL     OW77702  14.067  10.250   1.683
25288SOL    HW177703  14.106  10.288   1.604
25288SOL    HW277704  13.973  10.246   1.664
25289SOL     OW77705   8.496   0.972   9.713
25289SOL    HW177706   8.444   0.895   9.689
25289SOL    HW277707   8.445   1.046   9.680
25290SOL     OW77708  13.346  10.643  10.980
25290SOL    HW177709  13.431  10.629  10.937
25290SOL    HW277710  13.321  10.732  10.954
25291SOL     OW77711   7.274   7.229  14.579
25291SOL    HW177712   7.299   7.304  14.524
25291SOL    HW277713   7.264   7.266  14.667
25292SOL     OW77714  13.047  13.899   9.805
25292SOL    HW177715  13.101  13.891   9.726
25292SOL    HW277716  13.001  13.815   9.812
25293SOL     OW77717   9.910   3.301   4.652
25293SOL    HW177718   9.939   3.310   4.562
25293SOL    HW277719   9.979   3.342   4.704
25294SOL     OW77720  13.596   5.127   8.858
25294SOL    HW177721  13.527   5.115   8.923
25294SOL    HW277722  13.645   5.203   8.888
25295SOL     OW77723  12.677  14.714   3.036
25295SOL    HW177724  12.752  14.773   3.030
25295SOL    HW277725  12.618  14.742   2.966
25296SOL     OW77726   8.281  13.446   7.543
25296SOL    HW177727   8.374  13.452   7.519
25296SOL    HW277728   8.246  13.532   7.522
25297SOL     OW77729   4.173  14.833   1.540
25297SOL    HW177730   4.266  14.854   1.542
25297SOL    HW277731   4.162  14.779   1.462
25298SOL     OW77732   4.158   6.668   1.744
25298SOL    HW177733   4.249   6.642   1.725
25298SOL    HW277734   4.165   6.731   1.816
25299SOL     OW77735   6.917  10.815   4.715
25299SOL    HW177736   6.873  10.766   4.784
25299SOL    HW277737   6.958  10.748   4.661
25300SOL     OW77738   4.685   5.667   0.374
25300SOL    HW177739   4.779   5.685   0.375
25300SOL    HW277740   4.679   5.572   0.376
25301SOL     OW77741  11.308   4.454  13.106
25301SOL    HW177742  11.290   4.540  13.144
25301SOL    HW277743  11.276   4.392  13.171
25302SOL     OW77744  13.987   4.968   4.359
25302SOL    HW177745  14.041   5.019   4.298
25302SOL    HW277746  13.986   5.020   4.439
25303SOL     OW77747  10.715   5.101   4.905
25303SOL    HW177748  10.707   5.075   4.997
25303SOL    HW277749  10.666   5.035   4.857
25304SOL     OW77750   3.726   8.580   2.194
25304SOL    HW177751   3.658   8.643   2.219
25304SOL    HW277752   3.750   8.536   2.275
25305SOL     OW77753   4.142  10.214   2.793
25305SOL    HW177754   4.230  10.177   2.785
25305SOL    HW277755   4.089  10.142   2.828
25306SOL     OW77756  14.042   4.362  11.237
25306SOL    HW177757  14.129   4.325  11.246
25306SOL    HW277758  14.035   4.385  11.144
25307SOL     OW77759   0.145   1.875  14.459
25307SOL    HW177760   0.055   1.896  14.436
25307SOL    HW277761   0.195   1.894  14.380
25308SOL     OW77762  12.484   2.971  12.791
25308SOL    HW177763  12.402   2.934  12.758
25308SOL    HW277764  12.461   3.010  12.875
25309SOL     OW77765   8.435  10.576   2.983
25309SOL    HW177766   8.358  10.524   3.008
25309SOL    HW277767   8.498  10.560   3.053
25310SOL     OW77768   4.965  11.697   5.731
25310SOL    HW177769   4.938  11.677   5.641
25310SOL    HW277770   5.055  11.666   5.737
25311SOL     OW77771   2.264   3.357  13.982
25311SOL    HW177772   2.270   3.313  13.897
25311SOL    HW277773   2.240   3.448  13.960
25312SOL     OW77774  12.275   0.325   5.115
25312SOL    HW177775  12.222   0.250   5.087
25312SOL    HW277776  12.358   0.286   5.144
25313SOL     OW77777   6.233   6.023  11.192
25313SOL    HW177778   6.213   6.116  11.192
25313SOL    HW277779   6.315   6.015  11.144
25314SOL     OW77780   8.743   1.772  11.203
25314SOL    HW177781   8.828   1.812  11.222
25314SOL    HW277782   8.756   1.724  11.122
25315SOL     OW77783  14.156   8.275  13.129
25315SOL    HW177784  14.216   8.202  13.112
25315SOL    HW277785  14.069   8.235  13.122
25316SOL     OW77786   8.918   8.344   4.614
25316SOL    HW177787   8.859   8.380   4.548
25316SOL    HW277788   8.889   8.383   4.696
25317SOL     OW77789  10.942   2.494   4.573
25317SOL    HW177790  10.922   2.540   4.491
25317SOL    HW277791  11.036   2.477   4.569
25318SOL     OW77792   4.683  14.682   0.471
25318SOL    HW177793   4.670  14.674   0.376
25318SOL    HW277794   4.614  14.741   0.500
25319SOL     OW77795   9.996  10.607   2.217
25319SOL    HW177796  10.077  10.611   2.167
25319SOL    HW277797  10.018  10.555   2.294
25320SOL     OW77798   7.749   6.832   8.166
25320SOL    HW177799   7.775   6.875   8.247
25320SOL    HW277800   7.814   6.762   8.155
25321SOL     OW77801   0.230   9.171  12.295
25321SOL    HW177802   0.167   9.120  12.245
25321SOL    HW277803   0.223   9.138  12.385
25322SOL     OW77804   4.496   5.370   6.136
25322SOL    HW177805   4.589   5.359   6.155
25322SOL    HW277806   4.479   5.314   6.061
25323SOL     OW77807   1.147   1.083  10.468
25323SOL    HW177808   1.114   1.164  10.428
25323SOL    HW277809   1.242   1.094  10.469
25324SOL     OW77810   0.725  11.784   6.232
25324SOL    HW177811   0.761  11.821   6.313
25324SOL    HW277812   0.709  11.692   6.254
25325SOL     OW77813  10.254  13.602  14.190
25325SOL    HW177814  10.238  13.678  14.246
25325SOL    HW277815  10.174  13.550  14.196
25326SOL     OW77816   9.758   0.623   5.704
25326SOL    HW177817   9.702   0.657   5.773
25326SOL    HW277818   9.749   0.686   5.632
25327SOL     OW77819  13.030   9.803   4.330
25327SOL    HW177820  12.983   9.724   4.357
25327SOL    HW277821  13.056   9.786   4.239
25328SOL     OW77822  11.280   7.851   9.850
25328SOL    HW177823  11.239   7.913   9.790
25328SOL    HW277824  11.354   7.815   9.801
25329SOL     OW77825   6.393   9.749  13.968
25329SOL    HW177826   6.304   9.725  13.991
25329SOL    HW277827   6.405   9.716  13.879
25330SOL     OW77828  13.052   9.841   2.861
25330SOL    HW177829  13.087   9.884   2.783
25330SOL    HW277830  13.118   9.856   2.928
25331SOL     OW77831   6.721   5.090   6.775
25331SOL    HW177832   6.626   5.087   6.792
25331SOL    HW277833   6.758   5.128   6.854
25332SOL     OW77834   0.873   8.166  12.426
25332SOL    HW177835   0.869   8.080  12.466
25332SOL    HW277836   0.858   8.228  12.498
25333SOL     OW77837   9.936   5.342   7.010
25333SOL    HW177838  10.015   5.300   7.043
25333SOL    HW277839   9.864   5.301   7.059
25334SOL     OW77840   1.032   2.360   3.223
25334SOL    HW177841   1.019   2.303   3.147
25334SOL    HW277842   0.982   2.439   3.203
25335SOL     OW77843   5.832   3.309   5.501
25335SOL    HW177844   5.880   3.382   5.540
25335SOL    HW277845   5.892   3.271   5.437
25336SOL     OW77846   2.871   7.684   9.101
25336SOL    HW177847   2.833   7.598   9.081
25336SOL    HW277848   2.803   7.747   9.075
25337SOL     OW77849   6.725   4.054   6.648
25337SOL    HW177850   6.736   4.125   6.585
25337SOL    HW277851   6.697   4.098   6.729
25338SOL     OW77852   1.571  13.683  13.033
25338SOL    HW177853   1.610  13.670  12.947
25338SOL    HW277854   1.581  13.598  13.077
25339SOL     OW77855   9.458  13.840  12.221
25339SOL    HW177856   9.441  13.870  12.132
25339SOL    HW277857   9.529  13.777  12.212
25340SOL     OW77858  10.999   9.317   8.071
25340SOL    HW177859  11.084   9.313   8.116
25340SOL    HW277860  10.945   9.374   8.126
25341SOL     OW77861  11.390  14.268  13.814
25341SOL    HW177862  11.430  14.308  13.891
25341SOL    HW277863  11.410  14.328  13.742
25342SOL     OW77864   9.533   7.158   3.228
25342SOL    HW177865   9.624   7.169   3.255
25342SOL    HW277866   9.488   7.128   3.307
25343SOL     OW77867  13.965   8.239   0.121
25343SOL    HW177868  13.975   8.169   0.056
25343SOL    HW277869  14.053   8.275   0.131
25344SOL     OW77870   3.533  10.003   8.353
25344SOL    HW177871   3.452  10.043   8.320
25344SOL    HW277872   3.522   9.909   8.337
25345SOL     OW77873  11.508   8.179   7.168
25345SOL    HW177874  11.444   8.217   7.228
25345SOL    HW277875  11.481   8.088   7.157
25346SOL     OW77876  11.143  14.432   9.978
25346SOL    HW177877  11.148  14.527   9.980
25346SOL    HW277878  11.123  14.412   9.886
25347SOL     OW77879   7.049   1.287   2.405
25347SOL    HW177880   7.076   1.261   2.317
25347SOL    HW277881   7.130   1.288   2.456
25348SOL     OW77882   8.506   0.867   4.232
25348SOL    HW177883   8.470   0.897   4.149
25348SOL    HW277884   8.539   0.947   4.275
25349SOL     OW77885   1.324   7.797   2.765
25349SOL    HW177886   1.327   7.867   2.700
25349SOL    HW277887   1.359   7.837   2.845
25350SOL     OW77888  12.792  12.652   4.936
25350SOL    HW177889  12.837  12.667   4.853
25350SOL    HW277890  12.835  12.711   4.997
25351SOL     OW77891  10.447   8.297  12.187
25351SOL    HW177892  10.489   8.296  12.101
25351SOL    HW277893  10.476   8.379  12.227
25352SOL     OW77894   3.466   1.301  13.746
25352SOL    HW177895   3.462   1.394  13.725
25352SOL    HW277896   3.548   1.271  13.705
25353SOL     OW77897  13.149  13.563  12.694
25353SOL    HW177898  13.237  13.600  12.708
25353SOL    HW277899  13.156  13.473  12.725
25354SOL     OW77900   7.540   6.451   9.886
25354SOL    HW177901   7.567   6.528   9.836
25354SOL    HW277902   7.598   6.381   9.855
25355SOL     OW77903  14.128   7.397   3.622
25355SOL    HW177904  14.088   7.398   3.535
25355SOL    HW277905  14.203   7.339   3.613
25356SOL     OW77906   4.895   1.596   0.712
25356SOL    HW177907   4.965   1.586   0.647
25356SOL    HW277908   4.816   1.611   0.661
25357SOL     OW77909  13.244   7.116  13.465
25357SOL    HW177910  13.217   7.178  13.399
25357SOL    HW277911  13.171   7.112  13.527
25358SOL     OW77912  12.025  12.794   5.538
25358SOL    HW177913  11.930  12.785   5.545
25358SOL    HW277914  12.039  12.837   5.453
25359SOL     OW77915  13.174   3.024  14.515
25359SOL    HW177916  13.079   3.023  14.511
25359SOL    HW277917  13.196   3.109  14.554
25360SOL     OW77918   0.876  11.235  11.331
25360SOL    HW177919   0.895  11.206  11.420
25360SOL    HW277920   0.957  11.220  11.283
25361SOL     OW77921  12.512   5.002  11.948
25361SOL    HW177922  12.562   5.061  11.893
25361SOL    HW277923  12.516   4.918  11.904
25362SOL     OW77924  13.865   7.771   1.099
25362SOL    HW177925  13.867   7.734   1.187
25362SOL    HW277926  13.891   7.862   1.110
25363SOL     OW77927   1.163   8.347   9.758
25363SOL    HW177928   1.122   8.411   9.817
25363SOL    HW277929   1.252   8.335   9.794
25364SOL     OW77930   4.056   8.511  12.781
25364SOL    HW177931   4.103   8.587  12.749
25364SOL    HW277932   3.966   8.523  12.750
25365SOL     OW77933   1.737   6.214  11.089
25365SOL    HW177934   1.703   6.211  11.179
25365SOL    HW277935   1.812   6.273  11.094
25366SOL     OW77936  14.544  10.937   0.552
25366SOL    HW177937  14.554  10.914   0.460
25366SOL    HW277938  14.458  10.977   0.558
25367SOL     OW77939   4.800   0.223   9.080
25367SOL    HW177940   4.740   0.277   9.029
25367SOL    HW277941   4.861   0.286   9.120
25368SOL     OW77942   7.587   5.276   6.022
25368SOL    HW177943   7.582   5.220   5.944
25368SOL    HW277944   7.673   5.256   6.060
25369SOL     OW77945   3.357   5.595   6.337
25369SOL    HW177946   3.427   5.531   6.343
25369SOL    HW277947   3.312   5.589   6.421
25370SOL     OW77948   7.411   0.950  13.839
25370SOL    HW177949   7.382   0.901  13.916
25370SOL    HW277950   7.492   0.992  13.866
25371SOL     OW77951   2.853  11.084   4.345
25371SOL    HW177952   2.931  11.136   4.325
25371SOL    HW277953   2.886  10.996   4.362
25372SOL     OW77954  12.116   3.253  10.990
25372SOL    HW177955  12.112   3.159  10.970
25372SOL    HW277956  12.029   3.274  11.024
25373SOL     OW77957  12.936   7.307   5.678
25373SOL    HW177958  12.943   7.282   5.770
25373SOL    HW277959  13.014   7.269   5.636
25374SOL     OW77960  10.425  13.531  12.179
25374SOL    HW177961  10.499  13.492  12.227
25374SOL    HW277962  10.398  13.463  12.118
25375SOL     OW77963   5.329   6.158  10.027
25375SOL    HW177964   5.292   6.146  10.115
25375SOL    HW277965   5.256   6.192   9.975
25376SOL     OW77966  12.541   4.773   5.904
25376SOL    HW177967  12.536   4.703   5.839
25376SOL    HW277968  12.575   4.730   5.983
25377SOL     OW77969   8.724   6.320  13.830
25377SOL    HW177970   8.813   6.310  13.798
25377SOL    HW277971   8.699   6.232  13.859
25378SOL     OW77972   8.406  12.203   4.414
25378SOL    HW177973   8.344  12.242   4.353
25378SOL    HW277974   8.393  12.108   4.405
25379SOL     OW77975   9.622   2.277  10.986
25379SOL    HW177976   9.541   2.293  10.938
25379SOL    HW277977   9.642   2.185  10.971
25380SOL     OW77978   1.792  11.672   7.111
25380SOL    HW177979   1.802  11.758   7.153
25380SOL    HW277980   1.867  11.621   7.143
25381SOL     OW77981   1.858  13.311  14.255
25381SOL    HW177982   1.882  13.219  14.264
25381SOL    HW277983   1.942  13.357  14.247
25382SOL     OW77984   1.542   8.336  12.925
25382SOL    HW177985   1.508   8.287  13.000
25382SOL    HW277986   1.628   8.368  12.954
25383SOL     OW77987   7.010  11.061   5.648
25383SOL    HW177988   6.949  11.127   5.613
25383SOL    HW277989   7.050  11.103   5.724
25384SOL     OW77990   6.119  13.063  14.230
25384SOL    HW177991   6.195  13.058  14.288
25384SOL    HW277992   6.150  13.115  14.156
25385SOL     OW77993   9.148  11.080   8.379
25385SOL    HW177994   9.237  11.111   8.360
25385SOL    HW277995   9.161  10.998   8.427
25386SOL     OW77996  12.954   6.875  11.855
25386SOL    HW177997  12.918   6.905  11.771
25386SOL    HW277998  13.034   6.925  11.867
25387SOL     OW77999  10.441  14.307   4.989
25387SOL    HW178000  10.379  14.275   4.925
25387SOL    HW278001  10.519  14.329   4.938
25388SOL     OW78002   6.869   1.615  14.497
25388SOL    HW178003   6.914   1.581  14.420
25388SOL    HW278004   6.824   1.539  14.535
25389SOL     OW78005  12.062  13.095   5.653
25389SOL    HW178006  12.137  13.154   5.664
25389SOL    HW278007  12.100  13.007   5.656
25390SOL     OW78008   2.329   9.309   6.548
25390SOL    HW178009   2.315   9.311   6.643
25390SOL    HW278010   2.413   9.263   6.538
25391SOL     OW78011  11.833   5.450   0.300
25391SOL    HW178012  11.865   5.521   0.356
25391SOL    HW278013  11.798   5.385   0.361
25392SOL     OW78014   0.790   9.908   1.066
25392SOL    HW178015   0.697   9.929   1.053
25392SOL    HW278016   0.808   9.839   1.001
25393SOL     OW78017   6.425   7.559   3.472
25393SOL    HW178018   6.345   7.509   3.454
25393SOL    HW278019   6.456   7.525   3.556
25394SOL     OW78020  14.351   2.702   3.254
25394SOL    HW178021  14.373   2.613   3.226
25394SOL    HW278022  14.378   2.706   3.346
25395SOL     OW78023   3.841   5.626  13.789
25395SOL    HW178024   3.912   5.621  13.854
25395SOL    HW278025   3.844   5.541  13.744
25396SOL     OW78026   3.079   3.744   0.286
25396SOL    HW178027   3.010   3.678   0.276
25396SOL    HW278028   3.147   3.700   0.337
25397SOL     OW78029  13.457  14.017   9.943
25397SOL    HW178030  13.489  13.983   9.859
25397SOL    HW278031  13.495  14.105   9.948
25398SOL     OW78032   1.529  10.594  14.570
25398SOL    HW178033   1.547  10.686  14.589
25398SOL    HW278034   1.500  10.594  14.479
25399SOL     OW78035   5.576  12.217   8.057
25399SOL    HW178036   5.613  12.228   7.970
25399SOL    HW278037   5.651  12.213   8.116
25400SOL     OW78038   8.552   1.672   9.989
25400SOL    HW178039   8.497   1.647   9.915
25400SOL    HW278040   8.491   1.678  10.063
25401SOL     OW78041   3.738   1.578   0.123
25401SOL    HW178042   3.783   1.614   0.047
25401SOL    HW278043   3.679   1.647   0.151
25402SOL     OW78044   2.756  12.099  12.988
25402SOL    HW178045   2.669  12.069  12.961
25402SOL    HW278046   2.813  12.024  12.970
25403SOL     OW78047   7.884   6.511   7.504
25403SOL    HW178048   7.946   6.473   7.566
25403SOL    HW278049   7.827   6.567   7.557
25404SOL     OW78050  13.406   4.374   6.680
25404SOL    HW178051  13.390   4.293   6.631
25404SOL    HW278052  13.426   4.439   6.613
25405SOL     OW78053   9.491   4.109   0.885
25405SOL    HW178054   9.568   4.085   0.936
25405SOL    HW278055   9.449   4.026   0.864
25406SOL     OW78056   7.399  13.983   3.662
25406SOL    HW178057   7.444  14.064   3.640
25406SOL    HW278058   7.381  13.991   3.756
25407SOL     OW78059   7.447   4.333   6.998
25407SOL    HW178060   7.536   4.298   6.986
25407SOL    HW278061   7.390   4.265   6.961
25408SOL     OW78062  11.130   9.210   4.290
25408SOL    HW178063  11.057   9.148   4.279
25408SOL    HW278064  11.104   9.286   4.238
25409SOL     OW78065  11.723   2.211   5.226
25409SOL    HW178066  11.701   2.147   5.293
25409SOL    HW278067  11.648   2.270   5.224
25410SOL     OW78068  13.914   0.697   3.619
25410SOL    HW178069  13.960   0.734   3.694
25410SOL    HW278070  13.984   0.675   3.557
25411SOL     OW78071   9.298   9.961  10.344
25411SOL    HW178072   9.263  10.042  10.380
25411SOL    HW278073   9.377   9.944  10.394
25412SOL     OW78074  13.259   5.922   5.000
25412SOL    HW178075  13.349   5.913   5.030
25412SOL    HW278076  13.227   5.832   4.992
25413SOL     OW78077   8.886  12.187   4.096
25413SOL    HW178078   8.918  12.260   4.042
25413SOL    HW278079   8.883  12.221   4.185
25414SOL     OW78080  13.758   7.892   7.355
25414SOL    HW178081  13.663   7.885   7.363
25414SOL    HW278082  13.775   7.986   7.364
25415SOL     OW78083   9.858   0.055   9.216
25415SOL    HW178084   9.829  14.870   9.147
25415SOL    HW278085   9.778   0.075   9.266
25416SOL     OW78086   0.362   9.044   7.987
25416SOL    HW178087   0.440   8.990   8.002
25416SOL    HW278088   0.347   9.040   7.893
25417SOL     OW78089   8.812  13.158   5.760
25417SOL    HW178090   8.898  13.138   5.798
25417SOL    HW278091   8.812  13.112   5.677
25418SOL     OW78092   0.625  12.906   6.541
25418SOL    HW178093   0.634  12.996   6.512
25418SOL    HW278094   0.631  12.853   6.461
25419SOL     OW78095   1.304  13.598   1.831
25419SOL    HW178096   1.289  13.671   1.771
25419SOL    HW278097   1.241  13.611   1.902
25420SOL     OW78098   2.682   5.296  10.086
25420SOL    HW178099   2.594   5.317  10.055
25420SOL    HW278100   2.669   5.253  10.171
25421SOL     OW78101   9.628   4.282  13.322
25421SOL    HW178102   9.545   4.250  13.286
25421SOL    HW278103   9.670   4.204  13.358
25422SOL     OW78104  12.402   9.412   6.137
25422SOL    HW178105  12.461   9.341   6.164
25422SOL    HW278106  12.461   9.481   6.105
25423SOL     OW78107   9.798  10.805  13.488
25423SOL    HW178108   9.856  10.789  13.563
25423SOL    HW278109   9.742  10.728  13.484
25424SOL     OW78110  12.026  12.461  11.470
25424SOL    HW178111  12.085  12.427  11.537
25424SOL    HW278112  12.006  12.550  11.499
25425SOL     OW78113   5.647   6.192   8.406
25425SOL    HW178114   5.728   6.235   8.435
25425SOL    HW278115   5.659   6.178   8.312
25426SOL     OW78116   2.458  11.897  11.992
25426SOL    HW178117   2.378  11.944  12.014
25426SOL    HW278118   2.448  11.812  12.035
25427SOL     OW78119   6.502   3.392   0.746
25427SOL    HW178120   6.589   3.363   0.775
25427SOL    HW278121   6.516   3.483   0.718
25428SOL     OW78122  14.729   7.347   9.173
25428SOL    HW178123  14.760   7.425   9.220
25428SOL    HW278124  14.786   7.343   9.096
25429SOL     OW78125  13.973   3.137   4.127
25429SOL    HW178126  13.957   3.139   4.033
25429SOL    HW278127  13.949   3.048   4.154
25430SOL     OW78128  14.652   1.709   4.350
25430SOL    HW178129  14.611   1.691   4.265
25430SOL    HW278130  14.712   1.637   4.364
25431SOL     OW78131   3.622  11.920   7.176
25431SOL    HW178132   3.644  11.834   7.214
25431SOL    HW278133   3.536  11.907   7.136
25432SOL     OW78134   2.197   1.529   4.499
25432SOL    HW178135   2.217   1.546   4.407
25432SOL    HW278136   2.172   1.615   4.534
25433SOL     OW78137   0.261   0.060  11.374
25433SOL    HW178138   0.202   0.094  11.441
25433SOL    HW278139   0.223  14.849  11.349
25434SOL     OW78140   4.411   5.534   8.460
25434SOL    HW178141   4.381   5.589   8.388
25434SOL    HW278142   4.364   5.567   8.537
25435SOL     OW78143   1.713   6.114  11.951
25435SOL    HW178144   1.769   6.190  11.967
25435SOL    HW278145   1.771   6.049  11.911
25436SOL     OW78146   1.383   2.129   9.730
25436SOL    HW178147   1.390   2.126   9.635
25436SOL    HW278148   1.354   2.041   9.755
25437SOL     OW78149   4.505   3.851   5.606
25437SOL    HW178150   4.518   3.832   5.513
25437SOL    HW278151   4.576   3.910   5.629
25438SOL     OW78152   4.390   8.427   1.186
25438SOL    HW178153   4.452   8.474   1.241
25438SOL    HW278154   4.337   8.377   1.248
25439SOL     OW78155   4.815   7.683   2.068
25439SOL    HW178156   4.820   7.588   2.056
25439SOL    HW278157   4.906   7.710   2.081
25440SOL     OW78158   8.272   9.085   4.396
25440SOL    HW178159   8.344   9.147   4.387
25440SOL    HW278160   8.198   9.138   4.426
25441SOL     OW78161   8.796   3.606   4.531
25441SOL    HW178162   8.780   3.631   4.440
25441SOL    HW278163   8.731   3.538   4.549
25442SOL     OW78164   2.193   2.872  14.018
25442SOL    HW178165   2.247   2.949  14.036
25442SOL    HW278166   2.105   2.899  14.045
25443SOL     OW78167   3.712   2.261   6.374
25443SOL    HW178168   3.670   2.281   6.458
25443SOL    HW278169   3.750   2.344   6.345
25444SOL     OW78170  11.472  13.986   5.938
25444SOL    HW178171  11.454  14.078   5.956
25444SOL    HW278172  11.466  13.978   5.843
25445SOL     OW78173   0.162   2.740   9.957
25445SOL    HW178174   0.159   2.719  10.050
25445SOL    HW278175   0.254   2.757   9.938
25446SOL     OW78176  12.032   5.891   9.849
25446SOL    HW178177  11.999   5.869   9.762
25446SOL    HW278178  11.955   5.919   9.898
25447SOL     OW78179  13.923   5.609  10.268
25447SOL    HW178180  13.991   5.673  10.250
25447SOL    HW278181  13.887   5.634  10.353
25448SOL     OW78182   6.152  12.847  12.471
25448SOL    HW178183   6.121  12.884  12.553
25448SOL    HW278184   6.072  12.827  12.422
25449SOL     OW78185   8.704  11.595  13.107
25449SOL    HW178186   8.672  11.530  13.168
25449SOL    HW278187   8.661  11.573  13.024
25450SOL     OW78188  14.305   1.579  10.625
25450SOL    HW178189  14.210   1.588  10.630
25450SOL    HW278190  14.321   1.544  10.537
25451SOL     OW78191   9.262   2.559   8.631
25451SOL    HW178192   9.317   2.556   8.553
25451SOL    HW278193   9.306   2.622   8.689
25452SOL     OW78194   5.947   1.983  14.492
25452SOL    HW178195   5.950   1.999  14.398
25452SOL    HW278196   6.035   2.004  14.523
25453SOL     OW78197   8.142   9.949   1.337
25453SOL    HW178198   8.234   9.925   1.351
25453SOL    HW278199   8.122  10.007   1.411
25454SOL     OW78200   0.498   5.017   7.882
25454SOL    HW178201   0.511   5.110   7.864
25454SOL    HW278202   0.564   4.973   7.827
25455SOL     OW78203   6.965   1.331  12.694
25455SOL    HW178204   6.947   1.241  12.721
25455SOL    HW278205   6.929   1.337  12.606
25456SOL     OW78206   7.585   3.650   2.421
25456SOL    HW178207   7.651   3.686   2.362
25456SOL    HW278208   7.603   3.693   2.505
25457SOL     OW78209   2.464   5.047  13.298
25457SOL    HW178210   2.500   5.133  13.280
25457SOL    HW278211   2.397   5.063  13.365
25458SOL     OW78212   1.148   2.478   6.681
25458SOL    HW178213   1.192   2.521   6.609
25458SOL    HW278214   1.213   2.473   6.751
25459SOL     OW78215   6.563   0.650   3.715
25459SOL    HW178216   6.506   0.700   3.773
25459SOL    HW278217   6.611   0.716   3.665
25460SOL     OW78218   9.843  13.636   7.370
25460SOL    HW178219   9.857  13.574   7.441
25460SOL    HW278220   9.932  13.666   7.347
25461SOL     OW78221   8.769  10.082  10.578
25461SOL    HW178222   8.773  10.013  10.644
25461SOL    HW278223   8.700  10.141  10.608
25462SOL     OW78224   6.709   2.053   8.734
25462SOL    HW178225   6.706   1.960   8.712
25462SOL    HW278226   6.637   2.092   8.683
25463SOL     OW78227  10.723  11.739   5.462
25463SOL    HW178228  10.771  11.818   5.438
25463SOL    HW278229  10.707  11.694   5.379
25464SOL     OW78230  12.885  12.070   8.285
25464SOL    HW178231  12.878  11.983   8.245
25464SOL    HW278232  12.796  12.089   8.316
25465SOL     OW78233   1.400   3.545   8.430
25465SOL    HW178234   1.356   3.617   8.476
25465SOL    HW278235   1.384   3.563   8.337
25466SOL     OW78236   5.668   5.292  14.481
25466SOL    HW178237   5.685   5.268  14.572
25466SOL    HW278238   5.746   5.265  14.434
25467SOL     OW78239   6.989  12.998  10.744
25467SOL    HW178240   7.067  12.970  10.793
25467SOL    HW278241   7.022  13.022  10.658
25468SOL     OW78242   7.305   3.770   9.690
25468SOL    HW178243   7.235   3.806   9.636
25468SOL    HW278244   7.375   3.836   9.685
25469SOL     OW78245   5.661   4.412   8.727
25469SOL    HW178246   5.622   4.334   8.767
25469SOL    HW278247   5.751   4.414   8.761
25470SOL     OW78248   1.159  10.558  14.274
25470SOL    HW178249   1.132  10.542  14.184
25470SOL    HW278250   1.106  10.633  14.302
25471SOL     OW78251  13.243   7.934  11.295
25471SOL    HW178252  13.277   7.911  11.382
25471SOL    HW278253  13.316   7.979  11.252
25472SOL     OW78254   8.973   5.500   4.055
25472SOL    HW178255   8.892   5.546   4.032
25472SOL    HW278256   9.036   5.527   3.988
25473SOL     OW78257  13.498   4.663  14.854
25473SOL    HW178258  13.454   4.602   0.038
25473SOL    HW278259  13.448   4.745  14.862
25474SOL     OW78260  13.947   0.503   2.168
25474SOL    HW178261  13.899   0.501   2.085
25474SOL    HW278262  13.940   0.594   2.197
25475SOL     OW78263  12.046  10.533   2.228
25475SOL    HW178264  12.068  10.572   2.312
25475SOL    HW278265  12.129  10.499   2.194
25476SOL     OW78266   0.575   4.107   9.669
25476SOL    HW178267   0.583   4.031   9.726
25476SOL    HW278268   0.548   4.071   9.585
25477SOL     OW78269   0.033  10.007  13.226
25477SOL    HW178270   0.115   9.974  13.187
25477SOL    HW278271   0.062  10.064  13.297
25478SOL     OW78272   9.366   9.391   4.666
25478SOL    HW178273   9.452   9.427   4.650
25478SOL    HW278274   9.306   9.466   4.659
25479SOL     OW78275   5.450  14.137   9.557
25479SOL    HW178276   5.471  14.124   9.465
25479SOL    HW278277   5.398  14.060   9.581
25480SOL     OW78278   0.215  10.742   0.475
25480SOL    HW178279   0.236  10.710   0.387
25480SOL    HW278280   0.126  10.710   0.492
25481SOL     OW78281   8.134   0.242  12.550
25481SOL    HW178282   8.060   0.264  12.606
25481SOL    HW278283   8.170   0.162  12.589
25482SOL     OW78284  11.243  13.032   6.484
25482SOL    HW178285  11.335  13.055   6.496
25482SOL    HW278286  11.199  13.117   6.472
25483SOL     OW78287   0.343   3.091   7.425
25483SOL    HW178288   0.346   3.183   7.397
25483SOL    HW278289   0.410   3.084   7.492
25484SOL     OW78290  10.908   7.082   8.199
25484SOL    HW178291  10.952   7.073   8.114
25484SOL    HW278292  10.816   7.098   8.177
25485SOL     OW78293   9.353  10.451   8.936
25485SOL    HW178294   9.381  10.362   8.920
25485SOL    HW278295   9.431  10.505   8.921
25486SOL     OW78296   7.923   2.705   9.846
25486SOL    HW178297   7.887   2.758   9.775
25486SOL    HW278298   7.919   2.615   9.813
25487SOL     OW78299   8.090  11.119   6.459
25487SOL    HW178300   8.091  11.023   6.459
25487SOL    HW278301   8.123  11.143   6.373
25488SOL     OW78302   5.533   3.360   0.350
25488SOL    HW178303   5.496   3.308   0.278
25488SOL    HW278304   5.491   3.326   0.429
25489SOL     OW78305   1.071   4.972  10.338
25489SOL    HW178306   1.135   4.913  10.375
25489SOL    HW278307   1.123   5.044  10.301
25490SOL     OW78308   5.230  10.642  11.691
25490SOL    HW178309   5.173  10.702  11.641
25490SOL    HW278310   5.300  10.619  11.629
25491SOL     OW78311   4.557   1.427   5.349
25491SOL    HW178312   4.501   1.488   5.397
25491SOL    HW278313   4.593   1.479   5.277
25492SOL     OW78314   0.587   4.593   6.794
25492SOL    HW178315   0.524   4.535   6.838
25492SOL    HW278316   0.561   4.591   6.702
25493SOL     OW78317   3.252   8.970   2.873
25493SOL    HW178318   3.329   8.948   2.926
25493SOL    HW278319   3.207   8.887   2.859
25494SOL     OW78320  11.178   0.056   3.335
25494SOL    HW178321  11.240   0.048   3.408
25494SOL    HW278322  11.141  14.842   3.325
25495SOL     OW78323  11.274   6.776  10.976
25495SOL    HW178324  11.292   6.786  11.070
25495SOL    HW278325  11.355   6.802  10.933
25496SOL     OW78326  11.277   6.313  10.865
25496SOL    HW178327  11.242   6.402  10.854
25496SOL    HW278328  11.281   6.302  10.960
25497SOL     OW78329  11.364   1.165   4.164
25497SOL    HW178330  11.405   1.206   4.241
25497SOL    HW278331  11.359   1.234   4.099
25498SOL     OW78332  13.938   2.707   1.908
25498SOL    HW178333  13.856   2.739   1.869
25498SOL    HW278334  13.999   2.704   1.835
25499SOL     OW78335   2.349   6.030  13.748
25499SOL    HW178336   2.371   6.116  13.711
25499SOL    HW278337   2.386   6.033  13.837
25500SOL     OW78338   7.319   4.962   2.376
25500SOL    HW178339   7.374   5.031   2.414
25500SOL    HW278340   7.376   4.917   2.315
25501SOL     OW78341   9.611   2.166   5.813
25501SOL    HW178342   9.559   2.138   5.738
25501SOL    HW278343   9.594   2.259   5.821
25502SOL     OW78344   4.833  11.785  10.561
25502SOL    HW178345   4.878  11.780  10.477
25502SOL    HW278346   4.899  11.817  10.622
25503SOL     OW78347  13.269  10.057  14.739
25503SOL    HW178348  13.365  10.058  14.745
25503SOL    HW278349  13.240  10.041  14.829
25504SOL     OW78350   8.131   6.578   5.258
25504SOL    HW178351   8.207   6.626   5.289
25504SOL    HW278352   8.102   6.526   5.333
25505SOL     OW78353  13.746   5.617   4.624
25505SOL    HW178354  13.785   5.664   4.550
25505SOL    HW278355  13.737   5.684   4.692
25506SOL     OW78356   9.187  11.389   4.186
25506SOL    HW178357   9.149  11.468   4.147
25506SOL    HW278358   9.122  11.362   4.251
25507SOL     OW78359   5.308  14.093   7.933
25507SOL    HW178360   5.342  14.166   7.882
25507SOL    HW278361   5.351  14.101   8.018
25508SOL     OW78362   8.373   6.047  10.362
25508SOL    HW178363   8.390   6.112  10.430
25508SOL    HW278364   8.341   6.098  10.287
25509SOL     OW78365   8.186  13.607  11.697
25509SOL    HW178366   8.252  13.606  11.766
25509SOL    HW278367   8.235  13.624  11.617
25510SOL     OW78368   4.216   1.005  14.442
25510SOL    HW178369   4.153   1.070  14.472
25510SOL    HW278370   4.297   1.026  14.488
25511SOL     OW78371   5.010   2.284   3.156
25511SOL    HW178372   5.077   2.342   3.120
25511SOL    HW278373   4.933   2.340   3.167
25512SOL     OW78374   6.387   4.257   6.389
25512SOL    HW178375   6.482   4.261   6.399
25512SOL    HW278376   6.365   4.335   6.339
25513SOL     OW78377   1.498   4.004  11.495
25513SOL    HW178378   1.497   3.971  11.405
25513SOL    HW278379   1.591   4.011  11.518
25514SOL     OW78380  14.861   5.736   1.523
25514SOL    HW178381   0.068   5.775   1.488
25514SOL    HW278382  14.848   5.780   1.607
25515SOL     OW78383   5.752   1.503   9.909
25515SOL    HW178384   5.749   1.414   9.944
25515SOL    HW278385   5.753   1.560   9.986
25516SOL     OW78386   6.700   1.142  10.963
25516SOL    HW178387   6.630   1.103  11.016
25516SOL    HW278388   6.750   1.195  11.025
25517SOL     OW78389   4.014   7.457   8.330
25517SOL    HW178390   3.920   7.468   8.346
25517SOL    HW278391   4.056   7.511   8.398
25518SOL     OW78392  11.943   4.360   5.989
25518SOL    HW178393  11.995   4.399   6.059
25518SOL    HW278394  11.904   4.435   5.944
25519SOL     OW78395  14.343   6.697  13.389
25519SOL    HW178396  14.254   6.666  13.406
25519SOL    HW278397  14.341   6.727  13.298
25520SOL     OW78398  14.533   8.648   9.368
25520SOL    HW178399  14.561   8.678   9.282
25520SOL    HW278400  14.440   8.673   9.374
25521SOL     OW78401   2.932   7.356  11.233
25521SOL    HW178402   2.972   7.435  11.270
25521SOL    HW278403   2.869   7.327  11.300
25522SOL     OW78404  13.126   6.084   2.480
25522SOL    HW178405  13.166   6.044   2.557
25522SOL    HW278406  13.043   6.120   2.512
25523SOL     OW78407   3.185   5.469   0.716
25523SOL    HW178408   3.239   5.546   0.732
25523SOL    HW278409   3.151   5.444   0.802
25524SOL     OW78410  11.797   3.076   3.715
25524SOL    HW178411  11.842   3.149   3.674
25524SOL    HW278412  11.825   2.999   3.664
25525SOL     OW78413   4.503   5.781  14.594
25525SOL    HW178414   4.476   5.740  14.512
25525SOL    HW278415   4.460   5.729  14.662
25526SOL     OW78416  12.521  10.948  11.631
25526SOL    HW178417  12.448  11.007  11.649
25526SOL    HW278418  12.487  10.861  11.652
25527SOL     OW78419  10.440  12.886   3.997
25527SOL    HW178420  10.374  12.821   3.972
25527SOL    HW278421  10.425  12.900   4.091
25528SOL     OW78422   2.421   3.728   5.268
25528SOL    HW178423   2.457   3.738   5.356
25528SOL    HW278424   2.380   3.813   5.249
25529SOL     OW78425  14.102  12.085  13.272
25529SOL    HW178426  14.033  12.145  13.300
25529SOL    HW278427  14.169  12.142  13.235
25530SOL     OW78428   3.314  10.595   8.977
25530SOL    HW178429   3.242  10.549   9.020
25530SOL    HW278430   3.369  10.628   9.048
25531SOL     OW78431   8.434   3.380   6.137
25531SOL    HW178432   8.479   3.445   6.192
25531SOL    HW278433   8.504   3.337   6.088
25532SOL     OW78434  10.413  11.122   8.674
25532SOL    HW178435  10.331  11.142   8.628
25532SOL    HW278436  10.393  11.140   8.766
25533SOL     OW78437   9.455   4.579   7.430
25533SOL    HW178438   9.380   4.630   7.461
25533SOL    HW278439   9.421   4.490   7.421
25534SOL     OW78440  13.746   0.990  13.980
25534SOL    HW178441  13.791   1.074  13.988
25534SOL    HW278442  13.750   0.952  14.067
25535SOL     OW78443  11.112   5.109   1.569
25535SOL    HW178444  11.061   5.189   1.580
25535SOL    HW278445  11.080   5.050   1.637
25536SOL     OW78446   2.009   4.086   4.860
25536SOL    HW178447   2.070   4.015   4.879
25536SOL    HW278448   1.941   4.078   4.927
25537SOL     OW78449  11.168   3.760   9.659
25537SOL    HW178450  11.126   3.774   9.744
25537SOL    HW278451  11.101   3.784   9.595
25538SOL     OW78452   7.886  10.445  12.951
25538SOL    HW178453   7.981  10.436  12.959
25538SOL    HW278454   7.861  10.503  13.024
25539SOL     OW78455   0.327   4.815   6.087
25539SOL    HW178456   0.363   4.885   6.141
25539SOL    HW278457   0.253   4.854   6.042
25540SOL     OW78458   1.681   7.594  13.866
25540SOL    HW178459   1.737   7.670  13.879
25540SOL    HW278460   1.625   7.592  13.943
25541SOL     OW78461   1.101   7.733  12.020
25541SOL    HW178462   1.033   7.666  12.006
25541SOL    HW278463   1.168   7.713  11.954
25542SOL     OW78464   3.269   4.256  14.756
25542SOL    HW178465   3.288   4.164  14.773
25542SOL    HW278466   3.187   4.272  14.803
25543SOL     OW78467   9.661  13.498   7.741
25543SOL    HW178468   9.657  13.504   7.836
25543SOL    HW278469   9.754  13.503   7.720
25544SOL     OW78470  11.608  14.468   7.573
25544SOL    HW178471  11.617  14.420   7.656
25544SOL    HW278472  11.698  14.491   7.549
25545SOL     OW78473   0.042   3.844   1.179
25545SOL    HW178474  14.857   3.779   1.218
25545SOL    HW278475   0.025   3.924   1.229
25546SOL     OW78476   9.647   6.199   5.593
25546SOL    HW178477   9.642   6.103   5.589
25546SOL    HW278478   9.582   6.224   5.659
25547SOL     OW78479   1.338   3.283   2.855
25547SOL    HW178480   1.377   3.320   2.775
25547SOL    HW278481   1.312   3.195   2.830
25548SOL     OW78482   2.039   7.903   9.458
25548SOL    HW178483   2.039   7.994   9.428
25548SOL    HW278484   1.953   7.869   9.435
25549SOL     OW78485   3.010  13.010  10.272
25549SOL    HW178486   3.006  13.041  10.362
25549SOL    HW278487   2.925  13.034  10.234
25550SOL     OW78488  10.969   5.991   5.609
25550SOL    HW178489  11.030   6.059   5.579
25550SOL    HW278490  10.961   5.932   5.534
25551SOL     OW78491  12.621   4.951   7.447
25551SOL    HW178492  12.590   4.999   7.524
25551SOL    HW278493  12.702   4.909   7.476
25552SOL     OW78494   0.770  11.660   0.763
25552SOL    HW178495   0.775  11.593   0.832
25552SOL    HW278496   0.855  11.655   0.719
25553SOL     OW78497   4.872   3.158  12.490
25553SOL    HW178498   4.915   3.239  12.465
25553SOL    HW278499   4.932   3.089  12.462
25554SOL     OW78500  13.750   0.922   9.799
25554SOL    HW178501  13.691   0.932   9.873
25554SOL    HW278502  13.835   0.955   9.832
25555SOL     OW78503  12.306   6.146  14.301
25555SOL    HW178504  12.334   6.092  14.227
25555SOL    HW278505  12.361   6.224  14.296
25556SOL     OW78506   3.495   3.826  14.262
25556SOL    HW178507   3.562   3.813  14.195
25556SOL    HW278508   3.414   3.839  14.212
25557SOL     OW78509   5.694   7.912   8.202
25557SOL    HW178510   5.712   7.844   8.267
25557SOL    HW278511   5.699   7.867   8.118
25558SOL     OW78512   5.686   4.052   8.049
25558SOL    HW178513   5.679   3.971   8.101
25558SOL    HW278514   5.663   4.122   8.110
25559SOL     OW78515   6.766  10.428  14.412
25559SOL    HW178516   6.680  10.387  14.415
25559SOL    HW278517   6.754  10.507  14.359
25560SOL     OW78518   9.701   0.786   2.201
25560SOL    HW178519   9.704   0.750   2.290
25560SOL    HW278520   9.692   0.710   2.144
25561SOL     OW78521   2.461   2.589   1.608
25561SOL    HW178522   2.411   2.563   1.686
25561SOL    HW278523   2.552   2.592   1.637
25562SOL     OW78524  11.513   5.001   0.870
25562SOL    HW178525  11.486   5.074   0.925
25562SOL    HW278526  11.542   4.934   0.931
25563SOL     OW78527  14.769   0.502   8.823
25563SOL    HW178528  14.711   0.578   8.816
25563SOL    HW278529  14.711   0.427   8.817
25564SOL     OW78530  10.397  10.946  12.318
25564SOL    HW178531  10.317  10.973  12.274
25564SOL    HW278532  10.449  10.902  12.250
25565SOL     OW78533   3.076   4.450  12.197
25565SOL    HW178534   3.075   4.506  12.119
25565SOL    HW278535   3.150   4.391  12.183
25566SOL     OW78536   7.726   8.770  12.120
25566SOL    HW178537   7.792   8.807  12.180
25566SOL    HW278538   7.643   8.808  12.150
25567SOL     OW78539   3.237   1.956   3.663
25567SOL    HW178540   3.277   1.932   3.747
25567SOL    HW278541   3.148   1.920   3.668
25568SOL     OW78542   7.334   0.726   0.396
25568SOL    HW178543   7.420   0.684   0.404
25568SOL    HW278544   7.327   0.781   0.474
25569SOL     OW78545   0.370   3.478   6.427
25569SOL    HW178546   0.390   3.530   6.349
25569SOL    HW278547   0.282   3.505   6.451
25570SOL     OW78548  11.317   6.873   5.718
25570SOL    HW178549  11.234   6.847   5.679
25570SOL    HW278550  11.338   6.957   5.677
25571SOL     OW78551  13.067   3.804   8.398
25571SOL    HW178552  12.993   3.778   8.344
25571SOL    HW278553  13.092   3.723   8.443
25572SOL     OW78554  10.377   3.534   0.976
25572SOL    HW178555  10.334   3.522   1.061
25572SOL    HW278556  10.311   3.508   0.912
25573SOL     OW78557  12.982  11.264   9.336
25573SOL    HW178558  12.969  11.222   9.421
25573SOL    HW278559  12.911  11.230   9.282
25574SOL     OW78560  12.273   4.514  12.282
25574SOL    HW178561  12.270   4.479  12.371
25574SOL    HW278562  12.190   4.561  12.272
25575SOL     OW78563   7.229   0.260   7.240
25575SOL    HW178564   7.300   0.273   7.302
25575SOL    HW278565   7.274   0.250   7.155
25576SOL     OW78566   2.569  13.172   8.994
25576SOL    HW178567   2.565  13.132   9.080
25576SOL    HW278568   2.499  13.131   8.944
25577SOL     OW78569  14.016  12.493   3.802
25577SOL    HW178570  13.942  12.464   3.854
25577SOL    HW278571  14.088  12.436   3.828
25578SOL     OW78572   4.693   2.786   5.466
25578SOL    HW178573   4.739   2.703   5.479
25578SOL    HW278574   4.617   2.763   5.412
25579SOL     OW78575   6.629   2.565   5.149
25579SOL    HW178576   6.591   2.531   5.229
25579SOL    HW278577   6.720   2.534   5.150
25580SOL     OW78578   4.408   5.404   9.678
25580SOL    HW178579   4.377   5.494   9.678
25580SOL    HW278580   4.482   5.404   9.739
25581SOL     OW78581  10.807   9.956   2.000
25581SOL    HW178582  10.798   9.868   2.038
25581SOL    HW278583  10.848   9.941   1.915
25582SOL     OW78584   0.920  11.509   7.695
25582SOL    HW178585   0.917  11.473   7.606
25582SOL    HW278586   0.859  11.454   7.745
25583SOL     OW78587   5.612   1.683   1.815
25583SOL    HW178588   5.604   1.600   1.769
25583SOL    HW278589   5.683   1.669   1.877
25584SOL     OW78590   0.667   1.538  14.434
25584SOL    HW178591   0.591   1.490  14.469
25584SOL    HW278592   0.742   1.482  14.455
25585SOL     OW78593  12.027   5.676   0.677
25585SOL    HW178594  11.983   5.592   0.689
25585SOL    HW278595  11.956   5.740   0.674
25586SOL     OW78596  13.775   7.126   2.649
25586SOL    HW178597  13.834   7.100   2.578
25586SOL    HW278598  13.815   7.204   2.686
25587SOL     OW78599   2.353  13.398   8.732
25587SOL    HW178600   2.419  13.451   8.776
25587SOL    HW278601   2.279  13.395   8.794
25588SOL     OW78602   6.822  13.687  12.705
25588SOL    HW178603   6.795  13.766  12.657
25588SOL    HW278604   6.828  13.619  12.638
25589SOL     OW78605  12.285   7.796   0.918
25589SOL    HW178606  12.264   7.881   0.879
25589SOL    HW278607  12.203   7.767   0.957
25590SOL     OW78608   2.882   9.629  13.563
25590SOL    HW178609   2.809   9.690  13.567
25590SOL    HW278610   2.843   9.543  13.577
25591SOL     OW78611  13.572  12.835   5.466
25591SOL    HW178612  13.504  12.784   5.422
25591SOL    HW278613  13.594  12.905   5.404
25592SOL     OW78614   7.333   8.432   4.518
25592SOL    HW178615   7.332   8.387   4.434
25592SOL    HW278616   7.241   8.444   4.541
25593SOL     OW78617  13.566   7.830   2.986
25593SOL    HW178618  13.603   7.895   2.925
25593SOL    HW278619  13.551   7.753   2.931
25594SOL     OW78620   4.453  12.686  13.231
25594SOL    HW178621   4.470  12.643  13.147
25594SOL    HW278622   4.359  12.675  13.244
25595SOL     OW78623   4.445   8.304  14.019
25595SOL    HW178624   4.491   8.220  14.022
25595SOL    HW278625   4.362   8.283  13.976
25596SOL     OW78626  12.935   6.298   5.060
25596SOL    HW178627  12.975   6.213   5.040
25596SOL    HW278628  12.875   6.314   4.987
25597SOL     OW78629   0.985  11.493  10.980
25597SOL    HW178630   0.953  11.523  10.894
25597SOL    HW278631   0.930  11.541  11.043
25598SOL     OW78632  11.379  13.343   6.413
25598SOL    HW178633  11.433  13.264   6.423
25598SOL    HW278634  11.409  13.401   6.484
25599SOL     OW78635   7.555  13.945  12.527
25599SOL    HW178636   7.535  13.982  12.613
25599SOL    HW278637   7.472  13.950  12.479
25600SOL     OW78638   5.945  10.605  13.871
25600SOL    HW178639   5.945  10.563  13.957
25600SOL    HW278640   5.878  10.673  13.876
25601SOL     OW78641   1.135   4.786   8.116
25601SOL    HW178642   1.147   4.877   8.142
25601SOL    HW278643   1.220   4.760   8.081
25602SOL     OW78644  11.300  10.234   5.295
25602SOL    HW178645  11.289  10.322   5.259
25602SOL    HW278646  11.217  10.215   5.340
25603SOL     OW78647   4.545  12.521  10.010
25603SOL    HW178648   4.603  12.445   9.998
25603SOL    HW278649   4.461  12.493   9.974
25604SOL     OW78650   1.520   0.602   5.134
25604SOL    HW178651   1.504   0.624   5.042
25604SOL    HW278652   1.436   0.615   5.177
25605SOL     OW78653   1.250   6.622   7.868
25605SOL    HW178654   1.173   6.568   7.848
25605SOL    HW278655   1.218   6.688   7.930
25606SOL     OW78656  10.125  11.768   2.921
25606SOL    HW178657  10.174  11.718   2.855
25606SOL    HW278658  10.033  11.746   2.904
25607SOL     OW78659   6.788   8.507   4.864
25607SOL    HW178660   6.745   8.537   4.944
25607SOL    HW278661   6.866   8.461   4.895
25608SOL     OW78662  14.233   4.080  11.734
25608SOL    HW178663  14.284   4.145  11.686
25608SOL    HW278664  14.175   4.131  11.790
25609SOL     OW78665   8.536   9.534   8.847
25609SOL    HW178666   8.531   9.441   8.826
25609SOL    HW278667   8.553   9.577   8.762
25610SOL     OW78668   9.215   5.079   6.515
25610SOL    HW178669   9.185   5.167   6.539
25610SOL    HW278670   9.154   5.052   6.446
25611SOL     OW78671   5.020   6.240   9.670
25611SOL    HW178672   4.962   6.216   9.598
25611SOL    HW278673   5.094   6.181   9.662
25612SOL     OW78674   7.756  13.677  14.625
25612SOL    HW178675   7.731  13.651  14.714
25612SOL    HW278676   7.736  13.601  14.571
25613SOL     OW78677   7.065   0.469   0.116
25613SOL    HW178678   6.984   0.427   0.089
25613SOL    HW278679   7.126   0.397   0.131
25614SOL     OW78680  10.586   4.544  13.627
25614SOL    HW178681  10.623   4.535  13.539
25614SOL    HW278682  10.625   4.471  13.676
25615SOL     OW78683  10.623   9.820   1.691
25615SOL    HW178684  10.586   9.904   1.716
25615SOL    HW278685  10.548   9.768   1.662
25616SOL     OW78686   9.746  12.986   1.865
25616SOL    HW178687   9.681  12.995   1.935
25616SOL    HW278688   9.710  13.039   1.793
25617SOL     OW78689  11.909   3.410   6.360
25617SOL    HW178690  11.909   3.321   6.394
25617SOL    HW278691  11.985   3.414   6.301
25618SOL     OW78692   8.487  12.276   6.867
25618SOL    HW178693   8.574  12.268   6.904
25618SOL    HW278694   8.477  12.197   6.813
25619SOL     OW78695   7.520  11.233   4.939
25619SOL    HW178696   7.437  11.199   4.973
25619SOL    HW278697   7.508  11.328   4.936
25620SOL     OW78698   7.323   7.201   9.139
25620SOL    HW178699   7.317   7.118   9.091
25620SOL    HW278700   7.393   7.188   9.202
25621SOL     OW78701  13.063   2.237   5.687
25621SOL    HW178702  13.140   2.194   5.725
25621SOL    HW278703  13.008   2.258   5.762
25622SOL     OW78704   4.231  13.586   3.294
25622SOL    HW178705   4.240  13.540   3.378
25622SOL    HW278706   4.162  13.651   3.309
25623SOL     OW78707   1.414   0.211   1.812
25623SOL    HW178708   1.459   0.132   1.842
25623SOL    HW278709   1.326   0.181   1.788
25624SOL     OW78710   8.589  10.296  11.718
25624SOL    HW178711   8.545  10.224  11.763
25624SOL    HW278712   8.542  10.374  11.748
25625SOL     OW78713   8.121  11.027  12.482
25625SOL    HW178714   8.074  10.944  12.491
25625SOL    HW278715   8.055  11.095  12.495
25626SOL     OW78716   8.868   3.497   5.941
25626SOL    HW178717   8.782   3.486   5.982
25626SOL    HW278718   8.891   3.411   5.907
25627SOL     OW78719  12.121   5.810  14.241
25627SOL    HW178720  12.150   5.793  14.331
25627SOL    HW278721  12.190   5.866  14.204
25628SOL     OW78722   5.364   6.933  12.542
25628SOL    HW178723   5.375   6.891  12.628
25628SOL    HW278724   5.271   6.921  12.522
25629SOL     OW78725   0.115   1.108   0.227
25629SOL    HW178726   0.143   1.017   0.240
25629SOL    HW278727   0.109   1.118   0.132
25630SOL     OW78728   1.736   0.226   3.274
25630SOL    HW178729   1.762   0.162   3.340
25630SOL    HW278730   1.796   0.211   3.201
25631SOL     OW78731   9.072  10.480   9.424
25631SOL    HW178732   9.008  10.545   9.451
25631SOL    HW278733   9.060  10.407   9.485
25632SOL     OW78734   5.295   5.092  10.375
25632SOL    HW178735   5.237   5.156  10.332
25632SOL    HW278736   5.236   5.026  10.411
25633SOL     OW78737  14.623   1.978   0.950
25633SOL    HW178738  14.557   2.034   0.909
25633SOL    HW278739  14.685   1.959   0.880
25634SOL     OW78740   9.277   8.169  10.242
25634SOL    HW178741   9.247   8.197  10.156
25634SOL    HW278742   9.341   8.236  10.268
25635SOL     OW78743   8.366   7.326  13.847
25635SOL    HW178744   8.450   7.312  13.892
25635SOL    HW278745   8.365   7.259  13.779
25636SOL     OW78746   9.149   0.951   2.548
25636SOL    HW178747   9.128   1.010   2.620
25636SOL    HW278748   9.243   0.935   2.557
25637SOL     OW78749   2.319   0.870   7.158
25637SOL    HW178750   2.338   0.818   7.080
25637SOL    HW278751   2.257   0.816   7.208
25638SOL     OW78752   1.679   3.414   4.311
25638SOL    HW178753   1.638   3.331   4.335
25638SOL    HW278754   1.762   3.414   4.359
25639SOL     OW78755   3.534   0.418   1.222
25639SOL    HW178756   3.460   0.383   1.271
25639SOL    HW278757   3.602   0.351   1.228
25640SOL     OW78758   0.834  12.826   2.404
25640SOL    HW178759   0.895  12.871   2.462
25640SOL    HW278760   0.841  12.873   2.321
25641SOL     OW78761  10.788  11.000   2.995
25641SOL    HW178762  10.761  11.090   2.979
25641SOL    HW278763  10.780  10.989   3.089
25642SOL     OW78764   4.532   6.076  10.352
25642SOL    HW178765   4.514   6.166  10.378
25642SOL    HW278766   4.448   6.030  10.361
25643SOL     OW78767   4.929  11.377  13.731
25643SOL    HW178768   4.911  11.288  13.701
25643SOL    HW278769   4.845  11.409  13.764
25644SOL     OW78770  13.129   1.996   4.326
25644SOL    HW178771  13.176   2.079   4.315
25644SOL    HW278772  13.104   1.995   4.418
25645SOL     OW78773  10.173   4.497  13.893
25645SOL    HW178774  10.152   4.494  13.800
25645SOL    HW278775  10.089   4.490  13.937
25646SOL     OW78776   6.177   9.498  14.472
25646SOL    HW178777   6.164   9.584  14.431
25646SOL    HW278778   6.096   9.451  14.455
25647SOL     OW78779   4.036  13.229  13.507
25647SOL    HW178780   4.007  13.319  13.493
25647SOL    HW278781   4.034  13.189  13.420
25648SOL     OW78782   9.505   6.355   3.677
25648SOL    HW178783   9.469   6.431   3.723
25648SOL    HW278784   9.475   6.366   3.586
25649SOL     OW78785  11.596   5.577  10.886
25649SOL    HW178786  11.555   5.663  10.900
25649SOL    HW278787  11.682   5.597  10.849
25650SOL     OW78788  10.654   4.179   6.931
25650SOL    HW178789  10.643   4.267   6.965
25650SOL    HW278790  10.580   4.167   6.872
25651SOL     OW78791  10.359   2.718   5.306
25651SOL    HW178792  10.445   2.716   5.263
25651SOL    HW278793  10.317   2.796   5.270
25652SOL     OW78794   5.957   3.640   7.697
25652SOL    HW178795   5.872   3.665   7.661
25652SOL    HW278796   5.969   3.697   7.772
25653SOL     OW78797   8.105   3.171  10.525
25653SOL    HW178798   8.041   3.221  10.474
25653SOL    HW278799   8.115   3.220  10.606
25654SOL     OW78800   2.091  11.864   1.246
25654SOL    HW178801   2.186  11.876   1.236
25654SOL    HW278802   2.053  11.940   1.203
25655SOL     OW78803  13.767   9.387   5.362
25655SOL    HW178804  13.745   9.370   5.454
25655SOL    HW278805  13.860   9.409   5.364
25656SOL     OW78806  14.412   9.914   2.939
25656SOL    HW178807  14.339   9.876   2.891
25656SOL    HW278808  14.437   9.846   3.002
25657SOL     OW78809   0.301   9.744  11.669
25657SOL    HW178810   0.325   9.747  11.761
25657SOL    HW278811   0.232   9.678  11.664
25658SOL     OW78812   8.906   7.974   5.236
25658SOL    HW178813   8.968   8.029   5.283
25658SOL    HW278814   8.954   7.893   5.218
25659SOL     OW78815  11.753  12.621  12.839
25659SOL    HW178816  11.693  12.685  12.801
25659SOL    HW278817  11.835  12.632  12.790
25660SOL     OW78818  14.137   6.906   3.434
25660SOL    HW178819  14.209   6.911   3.498
25660SOL    HW278820  14.071   6.851   3.477
25661SOL     OW78821   9.602   9.784  11.621
25661SOL    HW178822   9.608   9.808  11.529
25661SOL    HW278823   9.563   9.697  11.621
25662SOL     OW78824   6.462   9.849   9.578
25662SOL    HW178825   6.477   9.759   9.606
25662SOL    HW278826   6.540   9.896   9.608
25663SOL     OW78827  13.355   7.932   5.856
25663SOL    HW178828  13.421   7.927   5.924
25663SOL    HW278829  13.344   7.842   5.826
25664SOL     OW78830   4.798  11.213   9.230
25664SOL    HW178831   4.724  11.175   9.184
25664SOL    HW278832   4.796  11.173   9.317
25665SOL     OW78833   1.290   6.415  11.389
25665SOL    HW178834   1.217   6.477  11.392
25665SOL    HW278835   1.307   6.393  11.481
25666SOL     OW78836  13.626  13.094  14.232
25666SOL    HW178837  13.683  13.137  14.297
25666SOL    HW278838  13.592  13.018  14.278
25667SOL     OW78839   6.787   7.518   0.819
25667SOL    HW178840   6.844   7.469   0.759
25667SOL    HW278841   6.700   7.480   0.805
25668SOL     OW78842  13.125  11.411   9.148
25668SOL    HW178843  13.082  11.368   9.222
25668SOL    HW278844  13.076  11.382   9.071
25669SOL     OW78845   3.695   5.839  13.734
25669SOL    HW178846   3.735   5.752  13.737
25669SOL    HW278847   3.762   5.894  13.694
25670SOL     OW78848   2.279   4.994   2.230
25670SOL    HW178849   2.303   4.931   2.161
25670SOL    HW278850   2.255   4.940   2.305
25671SOL     OW78851   5.489   5.430  12.147
25671SOL    HW178852   5.512   5.464  12.061
25671SOL    HW278853   5.556   5.364  12.166
25672SOL     OW78854   8.258   4.068   0.539
25672SOL    HW178855   8.290   3.983   0.510
25672SOL    HW278856   8.286   4.075   0.630
25673SOL     OW78857   4.355   7.230   1.344
25673SOL    HW178858   4.344   7.135   1.332
25673SOL    HW278859   4.316   7.248   1.429
25674SOL     OW78860   4.523   4.899  14.141
25674SOL    HW178861   4.473   4.910  14.060
25674SOL    HW278862   4.612   4.922  14.117
25675SOL     OW78863  11.796   8.202  14.344
25675SOL    HW178864  11.716   8.173  14.388
25675SOL    HW278865  11.805   8.144  14.269
25676SOL     OW78866   9.876   2.153  10.747
25676SOL    HW178867   9.886   2.162  10.842
25676SOL    HW278868   9.953   2.197  10.711
25677SOL     OW78869   4.715   5.435  11.946
25677SOL    HW178870   4.696   5.461  11.855
25677SOL    HW278871   4.796   5.385  11.940
25678SOL     OW78872   8.300   5.616   2.348
25678SOL    HW178873   8.227   5.677   2.352
25678SOL    HW278874   8.268   5.543   2.294
25679SOL     OW78875   2.854  11.794   0.611
25679SOL    HW178876   2.856  11.887   0.589
25679SOL    HW278877   2.905  11.787   0.692
25680SOL     OW78878   5.237   6.256  12.375
25680SOL    HW178879   5.306   6.320  12.392
25680SOL    HW278880   5.275   6.196  12.311
25681SOL     OW78881   3.290   9.673   6.404
25681SOL    HW178882   3.302   9.604   6.469
25681SOL    HW278883   3.315   9.632   6.321
25682SOL     OW78884   2.001   4.669   1.515
25682SOL    HW178885   1.972   4.738   1.575
25682SOL    HW278886   1.929   4.660   1.452
25683SOL     OW78887   3.843   4.246  13.162
25683SOL    HW178888   3.770   4.273  13.217
25683SOL    HW278889   3.803   4.197  13.090
25684SOL     OW78890  11.440   9.605  14.379
25684SOL    HW178891  11.455   9.531  14.320
25684SOL    HW278892  11.471   9.575  14.464
25685SOL     OW78893   1.512   3.725  11.932
25685SOL    HW178894   1.456   3.723  12.009
25685SOL    HW278895   1.597   3.756  11.965
25686SOL     OW78896   5.526   2.007   2.745
25686SOL    HW178897   5.572   2.002   2.662
25686SOL    HW278898   5.536   1.920   2.783
25687SOL     OW78899   0.827   6.631   3.238
25687SOL    HW178900   0.739   6.665   3.227
25687SOL    HW278901   0.814   6.541   3.268
25688SOL     OW78902   3.364   9.917   2.234
25688SOL    HW178903   3.286   9.880   2.193
25688SOL    HW278904   3.432   9.852   2.221
25689SOL     OW78905   0.198  14.052  14.383
25689SOL    HW178906   0.280  14.042  14.334
25689SOL    HW278907   0.140  13.984  14.348
25690SOL     OW78908   6.781   0.508   3.930
25690SOL    HW178909   6.787   0.589   3.980
25690SOL    HW278910   6.712   0.525   3.866
25691SOL     OW78911   6.955  10.539   5.556
25691SOL    HW178912   6.957  10.634   5.571
25691SOL    HW278913   7.024  10.505   5.613
25692SOL     OW78914   5.022   4.114  13.545
25692SOL    HW178915   5.032   4.054  13.619
25692SOL    HW278916   5.076   4.190  13.568
25693SOL     OW78917   6.585  13.437   7.611
25693SOL    HW178918   6.601  13.412   7.520
25693SOL    HW278919   6.497  13.406   7.629
25694SOL     OW78920   3.764   7.088  12.400
25694SOL    HW178921   3.717   7.165  12.429
25694SOL    HW278922   3.821   7.065  12.473
25695SOL     OW78923  11.839   0.097  14.044
25695SOL    HW178924  11.842   0.112  13.949
25695SOL    HW278925  11.844   0.002  14.054
25696SOL     OW78926   5.706  14.358   8.029
25696SOL    HW178927   5.744  14.443   8.011
25696SOL    HW278928   5.775  14.309   8.073
25697SOL     OW78929   7.113   0.714   1.367
25697SOL    HW178930   7.192   0.721   1.314
25697SOL    HW278931   7.081   0.805   1.374
25698SOL     OW78932  11.442   2.312   8.570
25698SOL    HW178933  11.355   2.293   8.536
25698SOL    HW278934  11.465   2.234   8.620
25699SOL     OW78935  11.629   6.978   7.133
25699SOL    HW178936  11.647   6.910   7.068
25699SOL    HW278937  11.644   6.935   7.217
25700SOL     OW78938   8.705   6.317   8.527
25700SOL    HW178939   8.623   6.280   8.560
25700SOL    HW278940   8.756   6.336   8.606
25701SOL     OW78941  12.860   2.062   8.080
25701SOL    HW178942  12.885   2.122   8.010
25701SOL    HW278943  12.866   2.114   8.160
25702SOL     OW78944   3.639   6.051   4.609
25702SOL    HW178945   3.576   5.983   4.634
25702SOL    HW278946   3.585   6.129   4.595
25703SOL     OW78947   0.604  13.971   9.509
25703SOL    HW178948   0.606  13.921   9.591
25703SOL    HW278949   0.696  13.982   9.486
25704SOL     OW78950   2.041   1.492   5.112
25704SOL    HW178951   1.992   1.573   5.130
25704SOL    HW278952   2.056   1.494   5.017
25705SOL     OW78953  12.269   6.574   0.868
25705SOL    HW178954  12.219   6.651   0.841
25705SOL    HW278955  12.239   6.504   0.810
25706SOL     OW78956   3.740  12.491  13.466
25706SOL    HW178957   3.667  12.453  13.417
25706SOL    HW278958   3.798  12.418  13.484
25707SOL     OW78959   4.884   6.251   1.124
25707SOL    HW178960   4.927   6.167   1.113
25707SOL    HW278961   4.817   6.253   1.055
25708SOL     OW78962  10.279  13.513   0.217
25708SOL    HW178963  10.351  13.558   0.174
25708SOL    HW278964  10.238  13.579   0.272
25709SOL     OW78965  12.759   5.553  13.345
25709SOL    HW178966  12.845   5.516  13.323
25709SOL    HW278967  12.697   5.491  13.307
25710SOL     OW78968   3.171   7.317   8.255
25710SOL    HW178969   3.120   7.291   8.178
25710SOL    HW278970   3.248   7.361   8.219
25711SOL     OW78971   5.116   9.312   1.142
25711SOL    HW178972   5.156   9.261   1.213
25711SOL    HW278973   5.171   9.293   1.066
25712SOL     OW78974   5.400  13.044  12.810
25712SOL    HW178975   5.464  13.114  12.802
25712SOL    HW278976   5.378  13.020  12.720
25713SOL     OW78977   9.202  12.731   5.359
25713SOL    HW178978   9.217  12.818   5.321
25713SOL    HW278979   9.290  12.698   5.377
25714SOL     OW78980  13.398   0.697   6.246
25714SOL    HW178981  13.342   0.663   6.316
25714SOL    HW278982  13.372   0.789   6.237
25715SOL     OW78983   2.089   8.784   3.508
25715SOL    HW178984   2.180   8.755   3.508
25715SOL    HW278985   2.094   8.878   3.527
25716SOL     OW78986   5.116   4.775   9.152
25716SOL    HW178987   5.027   4.742   9.139
25716SOL    HW278988   5.170   4.723   9.092
25717SOL     OW78989   9.365  14.592  11.386
25717SOL    HW178990   9.332  14.636  11.308
25717SOL    HW278991   9.417  14.519  11.352
25718SOL     OW78992  13.204  10.965  11.846
25718SOL    HW178993  13.142  10.895  11.865
25718SOL    HW278994  13.289  10.920  11.840
25719SOL     OW78995  11.830   1.480   8.723
25719SOL    HW178996  11.786   1.558   8.691
25719SOL    HW278997  11.778   1.407   8.689
25720SOL     OW78998   3.456  10.058   9.158
25720SOL    HW178999   3.489  10.143   9.188
25720SOL    HW279000   3.447  10.068   9.063
25721SOL     OW79001  10.218  11.501   4.246
25721SOL    HW179002  10.190  11.450   4.170
25721SOL    HW279003  10.252  11.582   4.208
25722SOL     OW79004  13.215  14.263  13.206
25722SOL    HW179005  13.236  14.171  13.186
25722SOL    HW279006  13.247  14.311  13.129
25723SOL     OW79007   4.560   9.379   7.926
25723SOL    HW179008   4.556   9.429   7.844
25723SOL    HW279009   4.635   9.415   7.972
25724SOL     OW79010   4.659   3.339   8.716
25724SOL    HW179011   4.584   3.385   8.678
25724SOL    HW279012   4.647   3.247   8.690
25725SOL     OW79013   1.991  14.118   2.748
25725SOL    HW179014   1.967  14.141   2.659
25725SOL    HW279015   1.985  14.200   2.797
25726SOL     OW79016   8.121  10.614   8.417
25726SOL    HW179017   8.194  10.673   8.433
25726SOL    HW279018   8.072  10.612   8.499
25727SOL     OW79019   5.500  10.839   2.175
25727SOL    HW179020   5.469  10.916   2.222
25727SOL    HW279021   5.583  10.866   2.136
25728SOL     OW79022   3.223  13.963  12.967
25728SOL    HW179023   3.141  13.991  12.926
25728SOL    HW279024   3.287  14.029  12.940
25729SOL     OW79025   0.628   0.378   2.606
25729SOL    HW179026   0.598   0.332   2.685
25729SOL    HW279027   0.613   0.471   2.626
25730SOL     OW79028   1.912   2.305   1.528
25730SOL    HW179029   1.869   2.313   1.613
25730SOL    HW279030   1.978   2.237   1.540
25731SOL     OW79031   8.729  11.642   7.884
25731SOL    HW179032   8.752  11.711   7.821
25731SOL    HW279033   8.656  11.596   7.843
25732SOL     OW79034   5.626   2.926   2.161
25732SOL    HW179035   5.607   2.860   2.094
25732SOL    HW279036   5.540   2.948   2.198
25733SOL     OW79037   8.438   1.489   8.201
25733SOL    HW179038   8.532   1.507   8.209
25733SOL    HW279039   8.401   1.571   8.168
25734SOL     OW79040  10.684   4.449   0.241
25734SOL    HW179041  10.719   4.362   0.263
25734SOL    HW279042  10.590   4.442   0.256
25735SOL     OW79043  10.934   6.971   2.162
25735SOL    HW179044  10.973   7.006   2.081
25735SOL    HW279045  10.859   7.028   2.179
25736SOL     OW79046   6.038   5.094  14.810
25736SOL    HW179047   6.085   5.082  14.727
25736SOL    HW279048   6.012   5.006  14.836
25737SOL     OW79049   3.165   8.644  10.278
25737SOL    HW179050   3.072   8.620  10.276
25737SOL    HW279051   3.177   8.697  10.200
25738SOL     OW79052   3.058   6.718   0.655
25738SOL    HW179053   3.125   6.697   0.591
25738SOL    HW279054   3.021   6.801   0.626
25739SOL     OW79055  10.977  13.523   3.691
25739SOL    HW179056  11.068  13.505   3.670
25739SOL    HW279057  10.960  13.473   3.771
25740SOL     OW79058   4.226   3.195   4.624
25740SOL    HW179059   4.155   3.132   4.613
25740SOL    HW279060   4.302   3.152   4.585
25741SOL     OW79061   4.133   2.624  11.229
25741SOL    HW179062   4.154   2.604  11.138
25741SOL    HW279063   4.194   2.571  11.280
25742SOL     OW79064   1.595  10.042   0.933
25742SOL    HW179065   1.576   9.973   0.869
25742SOL    HW279066   1.549  10.014   1.012
25743SOL     OW79067   1.222   9.300   1.688
25743SOL    HW179068   1.316   9.317   1.692
25743SOL    HW279069   1.202   9.258   1.771
25744SOL     OW79070   0.058  10.115  11.151
25744SOL    HW179071   0.086  10.180  11.217
25744SOL    HW279072  14.836  10.111  11.160
25745SOL     OW79073   5.646   4.267   1.711
25745SOL    HW179074   5.678   4.201   1.650
25745SOL    HW279075   5.550   4.261   1.704
25746SOL     OW79076   7.746  10.588  13.167
25746SOL    HW179077   7.780  10.661  13.218
25746SOL    HW279078   7.670  10.624  13.120
25747SOL     OW79079   7.813   8.749   2.880
25747SOL    HW179080   7.814   8.844   2.879
25747SOL    HW279081   7.839   8.724   2.791
25748SOL     OW79082   1.436   7.027   8.487
25748SOL    HW179083   1.489   7.103   8.465
25748SOL    HW279084   1.349   7.063   8.505
25749SOL     OW79085   3.346   7.751   9.320
25749SOL    HW179086   3.285   7.822   9.343
25749SOL    HW279087   3.428   7.775   9.363
25750SOL     OW79088  10.483   8.971  14.380
25750SOL    HW179089  10.468   9.000  14.469
25750SOL    HW279090  10.560   8.914  14.386
25751SOL     OW79091   0.702   7.132   0.019
25751SOL    HW179092   0.649   7.105   0.094
25751SOL    HW279093   0.690   7.227   0.015
25752SOL     OW79094  14.228  11.504  12.819
25752SOL    HW179095  14.153  11.480  12.764
25752SOL    HW279096  14.192  11.515  12.906
25753SOL     OW79097  11.702  12.222   0.529
25753SOL    HW179098  11.752  12.195   0.452
25753SOL    HW279099  11.768  12.247   0.593
25754SOL     OW79100   7.304   9.991   8.512
25754SOL    HW179101   7.265   9.987   8.425
25754SOL    HW279102   7.377  10.052   8.503
25755SOL     OW79103  12.726   9.634   4.147
25755SOL    HW179104  12.707   9.555   4.198
25755SOL    HW279105  12.646   9.686   4.152
25756SOL     OW79106  10.211   1.781   4.906
25756SOL    HW179107  10.141   1.844   4.889
25756SOL    HW279108  10.272   1.828   4.963
25757SOL     OW79109   0.589   3.963   4.293
25757SOL    HW179110   0.538   4.044   4.303
25757SOL    HW279111   0.524   3.894   4.285
25758SOL     OW79112  13.650   8.727  12.814
25758SOL    HW179113  13.588   8.764  12.877
25758SOL    HW279114  13.636   8.632  12.820
25759SOL     OW79115   3.515   1.727   0.158
25759SOL    HW179116   3.508   1.772   0.242
25759SOL    HW279117   3.526   1.798   0.094
25760SOL     OW79118   7.495  10.161   8.463
25760SOL    HW179119   7.539  10.169   8.378
25760SOL    HW279120   7.518  10.242   8.509
25761SOL     OW79121   2.471   3.670   8.047
25761SOL    HW179122   2.480   3.732   8.119
25761SOL    HW279123   2.468   3.584   8.089
25762SOL     OW79124  13.283  10.829   1.001
25762SOL    HW179125  13.330  10.746   1.008
25762SOL    HW279126  13.293  10.870   1.087
25763SOL     OW79127   6.895   7.650   5.720
25763SOL    HW179128   6.880   7.744   5.717
25763SOL    HW279129   6.849   7.621   5.799
25764SOL     OW79130   8.080  14.030  14.171
25764SOL    HW179131   8.166  14.030  14.213
25764SOL    HW279132   8.020  14.000  14.239
25765SOL     OW79133  14.805   3.053   6.423
25765SOL    HW179134  14.740   3.122   6.407
25765SOL    HW279135   0.016   3.098   6.416
25766SOL     OW79136   0.856   2.818   9.914
25766SOL    HW179137   0.836   2.780   9.999
25766SOL    HW279138   0.798   2.894   9.906
25767SOL     OW79139   0.176   1.165   7.897
25767SOL    HW179140   0.159   1.217   7.818
25767SOL    HW279141   0.096   1.173   7.949
25768SOL     OW79142   7.805   4.407   5.562
25768SOL    HW179143   7.865   4.394   5.635
25768SOL    HW279144   7.776   4.318   5.539
25769SOL     OW79145   8.224  14.250   9.188
25769SOL    HW179146   8.245  14.161   9.160
25769SOL    HW279147   8.168  14.284   9.119
25770SOL     OW79148   2.542   1.344   6.386
25770SOL    HW179149   2.465   1.350   6.329
25770SOL    HW279150   2.556   1.250   6.398
25771SOL     OW79151  10.485  12.327   9.745
25771SOL    HW179152  10.497  12.233   9.751
25771SOL    HW279153  10.528  12.362   9.823
25772SOL     OW79154   3.330   9.051   5.266
25772SOL    HW179155   3.262   9.115   5.281
25772SOL    HW279156   3.398   9.098   5.218
25773SOL     OW79157   1.895   7.166   6.297
25773SOL    HW179158   1.932   7.084   6.331
25773SOL    HW279159   1.801   7.159   6.314
25774SOL     OW79160   6.347   8.114   7.528
25774SOL    HW179161   6.430   8.158   7.542
25774SOL    HW279162   6.371   8.030   7.487
25775SOL     OW79163   6.668  13.892  13.712
25775SOL    HW179164   6.587  13.875  13.664
25775SOL    HW279165   6.641  13.953  13.781
25776SOL     OW79166   7.050   9.926  10.163
25776SOL    HW179167   7.124   9.914  10.103
25776SOL    HW279168   6.976   9.946  10.105
25777SOL     OW79169   0.058   1.535  11.791
25777SOL    HW179170   0.141   1.568  11.826
25777SOL    HW279171   0.014   1.613  11.755
25778SOL     OW79172   4.027   9.673   6.509
25778SOL    HW179173   3.972   9.741   6.548
25778SOL    HW279174   4.080   9.640   6.582
25779SOL     OW79175  11.079   4.750   1.458
25779SOL    HW179176  11.025   4.681   1.495
25779SOL    HW279177  11.094   4.810   1.531
25780SOL     OW79178   0.358   9.683  12.456
25780SOL    HW179179   0.304   9.658  12.531
25780SOL    HW279180   0.391   9.601  12.421
25781SOL     OW79181   6.117  10.516  10.447
25781SOL    HW179182   6.185  10.557  10.392
25781SOL    HW279183   6.165  10.452  10.500
25782SOL     OW79184   8.395   6.564  13.752
25782SOL    HW179185   8.399   6.474  13.784
25782SOL    HW279186   8.486   6.593  13.752
25783SOL     OW79187   1.963   6.775  14.796
25783SOL    HW179188   1.884   6.732  14.764
25783SOL    HW279189   1.930   6.852  14.843
25784SOL     OW79190  12.839   9.895   6.695
25784SOL    HW179191  12.883   9.939   6.768
25784SOL    HW279192  12.901   9.828   6.665
25785SOL     OW79193   1.919   0.698   1.620
25785SOL    HW179194   1.969   0.729   1.696
25785SOL    HW279195   1.854   0.767   1.605
25786SOL     OW79196  12.373  13.770   0.887
25786SOL    HW179197  12.280  13.792   0.894
25786SOL    HW279198  12.413  13.845   0.842
25787SOL     OW79199   7.956  12.420   2.746
25787SOL    HW179200   7.883  12.393   2.802
25787SOL    HW279201   8.012  12.343   2.741
25788SOL     OW79202  11.451   1.513  10.398
25788SOL    HW179203  11.388   1.527  10.469
25788SOL    HW279204  11.536   1.538  10.437
25789SOL     OW79205  11.244   3.800   5.555
25789SOL    HW179206  11.243   3.894   5.539
25789SOL    HW279207  11.300   3.789   5.632
25790SOL     OW79208  12.596  10.091   2.164
25790SOL    HW179209  12.657  10.047   2.223
25790SOL    HW279210  12.604  10.184   2.188
25791SOL     OW79211  10.551  13.139   5.923
25791SOL    HW179212  10.482  13.203   5.904
25791SOL    HW279213  10.518  13.090   5.999
25792SOL     OW79214  14.314   3.806   0.912
25792SOL    HW179215  14.278   3.725   0.949
25792SOL    HW279216  14.266   3.819   0.830
25793SOL     OW79217   4.318  10.139   8.354
25793SOL    HW179218   4.274  10.080   8.414
25793SOL    HW279219   4.404  10.154   8.394
25794SOL     OW79220   9.565   3.440  10.301
25794SOL    HW179221   9.574   3.488  10.219
25794SOL    HW279222   9.541   3.351  10.274
25795SOL     OW79223  14.411  10.529   4.173
25795SOL    HW179224  14.438  10.594   4.109
25795SOL    HW279225  14.347  10.475   4.126
25796SOL     OW79226  11.810   4.055   3.625
25796SOL    HW179227  11.842   3.984   3.681
25796SOL    HW279228  11.788   4.012   3.543
25797SOL     OW79229   9.338   5.594  10.038
25797SOL    HW179230   9.243   5.582  10.044
25797SOL    HW279231   9.359   5.567   9.948
25798SOL     OW79232  13.728  13.975  12.496
25798SOL    HW179233  13.793  13.998  12.430
25798SOL    HW279234  13.737  13.880  12.507
25799SOL     OW79235   3.979   2.699   9.758
25799SOL    HW179236   3.996   2.671   9.668
25799SOL    HW279237   3.911   2.766   9.751
25800SOL     OW79238   3.887  14.843  11.117
25800SOL    HW179239   3.944  14.772  11.146
25800SOL    HW279240   3.805  14.800  11.093
25801SOL     OW79241   3.623   4.237   0.435
25801SOL    HW179242   3.643   4.150   0.471
25801SOL    HW279243   3.646   4.298   0.506
25802SOL     OW79244   8.568   0.574   0.514
25802SOL    HW179245   8.498   0.514   0.539
25802SOL    HW279246   8.648   0.529   0.540
25803SOL     OW79247  12.187   9.849   2.110
25803SOL    HW179248  12.170   9.818   2.199
25803SOL    HW279249  12.240   9.928   2.122
25804SOL     OW79250   9.034   0.870  14.408
25804SOL    HW179251   9.121   0.847  14.440
25804SOL    HW279252   9.049   0.903  14.319
25805SOL     OW79253  14.160  14.198   9.684
25805SOL    HW179254  14.218  14.272   9.702
25805SOL    HW279255  14.207  14.147   9.618
25806SOL     OW79256   0.563   0.752   0.602
25806SOL    HW179257   0.522   0.682   0.551
25806SOL    HW279258   0.503   0.766   0.675
25807SOL     OW79259  11.629   8.337   1.074
25807SOL    HW179260  11.540   8.319   1.103
25807SOL    HW279261  11.619   8.396   0.999
25808SOL     OW79262   4.872   1.601   7.328
25808SOL    HW179263   4.810   1.531   7.349
25808SOL    HW279264   4.951   1.577   7.376
25809SOL     OW79265   9.192   9.208   8.111
25809SOL    HW179266   9.206   9.293   8.069
25809SOL    HW279267   9.260   9.203   8.178
25810SOL     OW79268  12.460   5.477   0.513
25810SOL    HW179269  12.401   5.427   0.456
25810SOL    HW279270  12.547   5.447   0.489
25811SOL     OW79271   3.299   8.314   0.327
25811SOL    HW179272   3.240   8.257   0.277
25811SOL    HW279273   3.365   8.255   0.362
25812SOL     OW79274   8.071   6.969   7.108
25812SOL    HW179275   8.037   6.885   7.140
25812SOL    HW279276   8.086   7.020   7.187
25813SOL     OW79277   4.604   9.078   5.550
25813SOL    HW179278   4.619   8.995   5.506
25813SOL    HW279279   4.517   9.070   5.588
25814SOL     OW79280   3.179  11.412   1.794
25814SOL    HW179281   3.261  11.417   1.746
25814SOL    HW279282   3.198  11.450   1.880
25815SOL     OW79283   5.880   7.032   2.344
25815SOL    HW179284   5.932   6.961   2.381
25815SOL    HW279285   5.791   6.997   2.338
25816SOL     OW79286  11.694  11.934   4.950
25816SOL    HW179287  11.748  11.948   5.027
25816SOL    HW279288  11.702  11.841   4.930
25817SOL     OW79289   4.874  10.369   2.988
25817SOL    HW179290   4.911  10.408   3.067
25817SOL    HW279291   4.911  10.281   2.986
25818SOL     OW79292   1.985  14.119  11.160
25818SOL    HW179293   1.906  14.077  11.195
25818SOL    HW279294   2.057  14.074  11.203
25819SOL     OW79295   0.261  14.175   7.090
25819SOL    HW179296   0.328  14.240   7.111
25819SOL    HW279297   0.283  14.147   7.001
25820SOL     OW79298   6.326   0.720  11.934
25820SOL    HW179299   6.310   0.813  11.917
25820SOL    HW279300   6.383   0.719  12.010
25821SOL     OW79301   5.239   1.053  12.745
25821SOL    HW179302   5.313   1.093  12.790
25821SOL    HW279303   5.163   1.073  12.801
25822SOL     OW79304   3.948  14.631  10.211
25822SOL    HW179305   4.019  14.649  10.273
25822SOL    HW279306   3.940  14.536  10.211
25823SOL     OW79307  12.363  13.941  10.385
25823SOL    HW179308  12.340  14.001  10.314
25823SOL    HW279309  12.392  13.861  10.340
25824SOL     OW79310   6.700   7.216   0.662
25824SOL    HW179311   6.667   7.187   0.576
25824SOL    HW279312   6.792   7.189   0.663
25825SOL     OW79313   9.175  10.883  14.636
25825SOL    HW179314   9.150  10.958  14.584
25825SOL    HW279315   9.171  10.914  14.727
25826SOL     OW79316   0.434   1.742   4.631
25826SOL    HW179317   0.338   1.735   4.634
25826SOL    HW279318   0.459   1.692   4.554
25827SOL     OW79319  11.571  13.240  11.646
25827SOL    HW179320  11.590  13.148  11.663
25827SOL    HW279321  11.478  13.242  11.625
25828SOL     OW79322  10.900  13.624   6.409
25828SOL    HW179323  10.920  13.553   6.347
25828SOL    HW279324  10.960  13.610   6.482
25829SOL     OW79325   7.403   3.456   4.742
25829SOL    HW179326   7.324   3.417   4.779
25829SOL    HW279327   7.472   3.437   4.806
25830SOL     OW79328   5.438   2.340   0.991
25830SOL    HW179329   5.460   2.349   0.899
25830SOL    HW279330   5.510   2.381   1.038
25831SOL     OW79331  10.575  14.110   2.047
25831SOL    HW179332  10.622  14.040   2.002
25831SOL    HW279333  10.540  14.165   1.977
25832SOL     OW79334   9.786   5.091   4.513
25832SOL    HW179335   9.840   5.030   4.563
25832SOL    HW279336   9.828   5.095   4.427
25833SOL     OW79337   5.027  12.027   9.417
25833SOL    HW179338   5.014  12.076   9.498
25833SOL    HW279339   5.039  12.095   9.350
25834SOL     OW79340  12.155   9.513  11.802
25834SOL    HW179341  12.107   9.432  11.818
25834SOL    HW279342  12.213   9.494  11.729
25835SOL     OW79343  12.946   8.078   1.525
25835SOL    HW179344  12.923   8.076   1.432
25835SOL    HW279345  12.966   7.987   1.547
25836SOL     OW79346   9.551   3.781   0.472
25836SOL    HW179347   9.534   3.698   0.518
25836SOL    HW279348   9.646   3.781   0.457
25837SOL     OW79349   8.101   6.618  14.690
25837SOL    HW179350   8.181   6.656  14.654
25837SOL    HW279351   8.037   6.689  14.685
25838SOL     OW79352   4.979  12.991   4.870
25838SOL    HW179353   4.926  13.045   4.929
25838SOL    HW279354   5.030  12.935   4.928
25839SOL     OW79355   8.543   5.925   2.549
25839SOL    HW179356   8.529   5.834   2.521
25839SOL    HW279357   8.512   5.977   2.475
25840SOL     OW79358  14.148   6.529  10.439
25840SOL    HW179359  14.209   6.542  10.511
25840SOL    HW279360  14.074   6.587  10.460
25841SOL     OW79361   1.667   0.243   9.175
25841SOL    HW179362   1.618   0.284   9.104
25841SOL    HW279363   1.749   0.293   9.180
25842SOL     OW79364  10.408   6.318  14.105
25842SOL    HW179365  10.423   6.394  14.161
25842SOL    HW279366  10.486   6.264  14.116
25843SOL     OW79367   0.315  13.473   9.083
25843SOL    HW179368   0.233  13.430   9.107
25843SOL    HW279369   0.383  13.410   9.104
25844SOL     OW79370   5.497  11.388   2.021
25844SOL    HW179371   5.532  11.338   1.947
25844SOL    HW279372   5.571  11.438   2.054
25845SOL     OW79373   8.670   8.848   3.573
25845SOL    HW179374   8.622   8.860   3.655
25845SOL    HW279375   8.702   8.936   3.551
25846SOL     OW79376   5.836   3.901   4.016
25846SOL    HW179377   5.930   3.913   4.030
25846SOL    HW279378   5.817   3.948   3.935
25847SOL     OW79379  13.274  13.538   1.671
25847SOL    HW179380  13.246  13.588   1.747
25847SOL    HW279381  13.221  13.458   1.673
25848SOL     OW79382   1.602  10.261   6.424
25848SOL    HW179383   1.560  10.230   6.344
25848SOL    HW279384   1.675  10.315   6.395
25849SOL     OW79385   2.578   9.548  14.430
25849SOL    HW179386   2.522   9.525  14.504
25849SOL    HW279387   2.625   9.468  14.409
25850SOL     OW79388   9.580   2.808  12.232
25850SOL    HW179389   9.487   2.829  12.239
25850SOL    HW279390   9.606   2.842  12.147
25851SOL     OW79391   0.269   3.171  12.399
25851SOL    HW179392   0.298   3.259  12.425
25851SOL    HW279393   0.173   3.175  12.408
25852SOL     OW79394   2.338   6.428  10.419
25852SOL    HW179395   2.329   6.422  10.323
25852SOL    HW279396   2.308   6.343  10.450
25853SOL     OW79397  14.711  11.502   3.143
25853SOL    HW179398  14.722  11.558   3.066
25853SOL    HW279399  14.625  11.527   3.178
25854SOL     OW79400   3.117   7.186   7.627
25854SOL    HW179401   3.063   7.224   7.557
25854SOL    HW279402   3.202   7.170   7.585
25855SOL     OW79403   0.515   3.835   3.955
25855SOL    HW179404   0.553   3.765   4.008
25855SOL    HW279405   0.584   3.860   3.894
25856SOL     OW79406  14.179   1.560   2.562
25856SOL    HW179407  14.170   1.508   2.482
25856SOL    HW279408  14.188   1.495   2.632
25857SOL     OW79409   9.867  14.564   0.544
25857SOL    HW179410   9.771  14.568   0.542
25857SOL    HW279411   9.895  14.654   0.523
25858SOL     OW79412  13.516   5.970  11.236
25858SOL    HW179413  13.434   5.969  11.185
25858SOL    HW279414  13.514   6.053  11.283
25859SOL     OW79415   6.424   4.314  13.370
25859SOL    HW179416   6.456   4.304  13.459
25859SOL    HW279417   6.495   4.359  13.324
25860SOL     OW79418   4.362   7.235   7.758
25860SOL    HW179419   4.441   7.280   7.786
25860SOL    HW279420   4.327   7.196   7.838
25861SOL     OW79421   1.966   0.433   6.546
25861SOL    HW179422   2.041   0.467   6.498
25861SOL    HW279423   1.895   0.495   6.525
25862SOL     OW79424  12.946   3.704   0.053
25862SOL    HW179425  13.007   3.777   0.037
25862SOL    HW279426  12.939   3.661  14.841
25863SOL     OW79427   7.800   7.029  14.319
25863SOL    HW179428   7.881   7.080  14.327
25863SOL    HW279429   7.744   7.063  14.388
25864SOL     OW79430  11.380  12.572   1.113
25864SOL    HW179431  11.339  12.574   1.027
25864SOL    HW279432  11.469  12.603   1.098
25865SOL     OW79433   4.893  13.736   3.872
25865SOL    HW179434   4.850  13.660   3.834
25865SOL    HW279435   4.986  13.711   3.876
25866SOL     OW79436  13.704   5.269   0.867
25866SOL    HW179437  13.613   5.299   0.869
25866SOL    HW279438  13.735   5.280   0.957
25867SOL     OW79439   8.883   9.982   6.218
25867SOL    HW179440   8.934  10.062   6.231
25867SOL    HW279441   8.828  10.000   6.142
25868SOL     OW79442   3.426   8.611   9.700
25868SOL    HW179443   3.367   8.604   9.775
25868SOL    HW279444   3.513   8.619   9.739
25869SOL     OW79445  14.691  13.431  10.900
25869SOL    HW179446  14.617  13.491  10.892
25869SOL    HW279447  14.746  13.450  10.824
25870SOL     OW79448   4.283   7.066  12.436
25870SOL    HW179449   4.218   7.136  12.428
25870SOL    HW279450   4.367   7.112  12.437
25871SOL     OW79451   6.500   9.123   7.018
25871SOL    HW179452   6.430   9.138   6.955
25871SOL    HW279453   6.544   9.207   7.028
25872SOL     OW79454   4.142  12.806   4.035
25872SOL    HW179455   4.169  12.800   3.943
25872SOL    HW279456   4.182  12.730   4.077
25873SOL     OW79457   0.547   1.902   7.306
25873SOL    HW179458   0.562   1.850   7.227
25873SOL    HW279459   0.496   1.977   7.276
25874SOL     OW79460   7.374  14.629   4.417
25874SOL    HW179461   7.389  14.704   4.475
25874SOL    HW279462   7.377  14.553   4.475
25875SOL     OW79463  13.009   4.245   8.306
25875SOL    HW179464  13.091   4.292   8.322
25875SOL    HW279465  12.943   4.296   8.352
25876SOL     OW79466   0.881   8.471   9.353
25876SOL    HW179467   0.909   8.560   9.329
25876SOL    HW279468   0.959   8.432   9.394
25877SOL     OW79469   4.247   7.179   8.028
25877SOL    HW179470   4.187   7.154   7.957
25877SOL    HW279471   4.191   7.182   8.106
25878SOL     OW79472  11.852  12.031  10.511
25878SOL    HW179473  11.843  12.120  10.547
25878SOL    HW279474  11.879  12.044  10.420
25879SOL     OW79475   5.108   7.687   1.820
25879SOL    HW179476   5.190   7.638   1.812
25879SOL    HW279477   5.057   7.637   1.883
25880SOL     OW79478   9.954  10.323   5.250
25880SOL    HW179479  10.019  10.261   5.283
25880SOL    HW279480   9.918  10.280   5.172
25881SOL     OW79481   7.825   1.672   8.399
25881SOL    HW179482   7.865   1.686   8.484
25881SOL    HW279483   7.838   1.754   8.352
25882SOL     OW79484   5.347  14.604   8.564
25882SOL    HW179485   5.417  14.668   8.577
25882SOL    HW279486   5.282  14.626   8.631
25883SOL     OW79487  13.094   0.588  12.989
25883SOL    HW179488  13.008   0.602  13.028
25883SOL    HW279489  13.076   0.568  12.897
25884SOL     OW79490   4.288  12.024  12.585
25884SOL    HW179491   4.354  12.016  12.517
25884SOL    HW279492   4.336  12.058  12.661
25885SOL     OW79493   6.363   5.499  14.025
25885SOL    HW179494   6.415   5.478  14.102
25885SOL    HW279495   6.302   5.566  14.055
25886SOL     OW79496   9.318   1.610  12.875
25886SOL    HW179497   9.361   1.696  12.874
25886SOL    HW279498   9.238   1.622  12.823
25887SOL     OW79499   9.028   1.252   2.877
25887SOL    HW179500   9.120   1.255   2.906
25887SOL    HW279501   9.014   1.337   2.835
25888SOL     OW79502   7.948   5.544  11.053
25888SOL    HW179503   8.027   5.496  11.025
25888SOL    HW279504   7.876   5.492  11.018
25889SOL     OW79505   4.375   1.452   4.609
25889SOL    HW179506   4.418   1.502   4.679
25889SOL    HW279507   4.408   1.491   4.528
25890SOL     OW79508   0.713   0.146  13.392
25890SOL    HW179509   0.635   0.091  13.391
25890SOL    HW279510   0.751   0.132  13.479
25891SOL     OW79511   8.909   1.602   6.718
25891SOL    HW179512   8.971   1.658   6.765
25891SOL    HW279513   8.823   1.639   6.737
25892SOL     OW79514   7.818  13.411  13.321
25892SOL    HW179515   7.768  13.489  13.344
25892SOL    HW279516   7.901  13.444  13.286
25893SOL     OW79517  12.553   5.107   8.581
25893SOL    HW179518  12.574   5.201   8.582
25893SOL    HW279519  12.461   5.103   8.556
25894SOL     OW79520   1.263   3.752  12.470
25894SOL    HW179521   1.183   3.799  12.495
25894SOL    HW279522   1.314   3.817  12.422
25895SOL     OW79523   6.263   0.878  12.224
25895SOL    HW179524   6.195   0.829  12.177
25895SOL    HW279525   6.292   0.818  12.292
25896SOL     OW79526   9.153   1.342   6.293
25896SOL    HW179527   9.128   1.249   6.300
25896SOL    HW279528   9.070   1.388   6.285
25897SOL     OW79529  13.636   7.330  10.175
25897SOL    HW179530  13.725   7.297  10.184
25897SOL    HW279531  13.615   7.365  10.262
25898SOL     OW79532  10.243   6.976  13.044
25898SOL    HW179533  10.204   7.020  12.969
25898SOL    HW279534  10.234   6.883  13.024
25899SOL     OW79535   9.027  10.777   8.274
25899SOL    HW179536   9.047  10.854   8.220
25899SOL    HW279537   9.090  10.782   8.346
25900SOL     OW79538  12.474   7.986   9.385
25900SOL    HW179539  12.490   7.960   9.476
25900SOL    HW279540  12.533   7.932   9.334
25901SOL     OW79541  12.499   2.285   5.246
25901SOL    HW179542  12.457   2.337   5.177
25901SOL    HW279543  12.449   2.203   5.248
25902SOL     OW79544   1.745   7.976   7.308
25902SOL    HW179545   1.832   7.978   7.349
25902SOL    HW279546   1.738   8.060   7.263
25903SOL     OW79547  11.954  12.458   9.674
25903SOL    HW179548  11.997  12.379   9.706
25903SOL    HW279549  12.019  12.498   9.615
25904SOL     OW79550   5.437   1.980  11.273
25904SOL    HW179551   5.382   1.952  11.346
25904SOL    HW279552   5.509   1.916  11.272
25905SOL     OW79553   1.332  10.444   0.712
25905SOL    HW179554   1.309  10.400   0.630
25905SOL    HW279555   1.386  10.518   0.685
25906SOL     OW79556   7.279   9.078   7.454
25906SOL    HW179557   7.207   9.072   7.517
25906SOL    HW279558   7.354   9.039   7.499
25907SOL     OW79559   6.828   3.667   7.243
25907SOL    HW179560   6.753   3.615   7.214
25907SOL    HW279561   6.894   3.601   7.267
25908SOL     OW79562  11.049  13.860   0.178
25908SOL    HW179563  10.991  13.805   0.230
25908SOL    HW279564  10.991  13.906   0.118
25909SOL     OW79565  12.852  11.176  12.791
25909SOL    HW179566  12.887  11.087  12.794
25909SOL    HW279567  12.764  11.168  12.829
25910SOL     OW79568   7.757   6.193   0.349
25910SOL    HW179569   7.733   6.257   0.282
25910SOL    HW279570   7.851   6.206   0.362
25911SOL     OW79571   1.762  10.713   4.824
25911SOL    HW179572   1.737  10.741   4.736
25911SOL    HW279573   1.715  10.772   4.882
25912SOL     OW79574   0.994  10.712   2.271
25912SOL    HW179575   1.005  10.639   2.331
25912SOL    HW279576   0.899  10.720   2.260
25913SOL     OW79577  13.884   8.955   7.953
25913SOL    HW179578  13.822   8.954   8.026
25913SOL    HW279579  13.829   8.944   7.875
25914SOL     OW79580   7.045   3.713   8.326
25914SOL    HW179581   7.004   3.657   8.260
25914SOL    HW279582   7.006   3.684   8.409
25915SOL     OW79583   1.872  12.893  10.769
25915SOL    HW179584   1.906  12.852  10.689
25915SOL    HW279585   1.777  12.883  10.763
25916SOL     OW79586   9.084  14.605   9.428
25916SOL    HW179587   9.037  14.558   9.359
25916SOL    HW279588   9.041  14.691   9.432
25917SOL     OW79589   1.936   0.019   1.938
25917SOL    HW179590   2.015  14.840   1.922
25917SOL    HW279591   1.915   0.056   1.852
25918SOL     OW79592   9.369   7.531  10.588
25918SOL    HW179593   9.455   7.571  10.583
25918SOL    HW279594   9.386   7.437  10.580
25919SOL     OW79595  12.597   9.528   6.851
25919SOL    HW179596  12.554   9.473   6.786
25919SOL    HW279597  12.593   9.616   6.813
25920SOL     OW79598   8.203   1.194   2.925
25920SOL    HW179599   8.181   1.104   2.948
25920SOL    HW279600   8.277   1.216   2.981
25921SOL     OW79601   9.715  14.797   6.683
25921SOL    HW179602   9.780  14.836   6.743
25921SOL    HW279603   9.732  14.838   6.599
25922SOL     OW79604   8.765   3.939  12.941
25922SOL    HW179605   8.848   3.951  12.987
25922SOL    HW279606   8.700   3.980  12.999
25923SOL     OW79607  10.421  10.107   5.805
25923SOL    HW179608  10.457  10.182   5.760
25923SOL    HW279609  10.498  10.058   5.837
25924SOL     OW79610  14.554  12.057   2.676
25924SOL    HW179611  14.615  12.080   2.606
25924SOL    HW279612  14.591  11.978   2.714
25925SOL     OW79613  10.927   8.127   1.162
25925SOL    HW179614  10.832   8.115   1.155
25925SOL    HW279615  10.938   8.220   1.182
25926SOL     OW79616   7.167  12.186   5.619
25926SOL    HW179617   7.169  12.093   5.594
25926SOL    HW279618   7.256  12.203   5.650
25927SOL     OW79619   3.007   8.663   1.557
25927SOL    HW179620   3.017   8.681   1.464
25927SOL    HW279621   2.924   8.616   1.564
25928SOL     OW79622   0.319  11.025  10.604
25928SOL    HW179623   0.240  11.011  10.552
25928SOL    HW279624   0.288  11.029  10.694
25929SOL     OW79625   2.182  10.795   8.007
25929SOL    HW179626   2.222  10.708   8.011
25929SOL    HW279627   2.150  10.802   7.917
25930SOL     OW79628  14.788   2.090   3.267
25930SOL    HW179629  14.838   2.081   3.186
25930SOL    HW279630  14.836   2.036   3.331
25931SOL     OW79631  13.577   7.941  14.268
25931SOL    HW179632  13.536   7.979  14.346
25931SOL    HW279633  13.578   8.012  14.205
25932SOL     OW79634   7.344   0.013   7.855
25932SOL    HW179635   7.281   0.076   7.890
25932SOL    HW279636   7.293  14.832   7.794
25933SOL     OW79637   7.734   4.470   8.597
25933SOL    HW179638   7.748   4.389   8.646
25933SOL    HW279639   7.744   4.540   8.662
25934SOL     OW79640   8.685  13.243   8.526
25934SOL    HW179641   8.715  13.332   8.542
25934SOL    HW279642   8.630  13.250   8.448
25935SOL     OW79643   1.538   0.399  13.299
25935SOL    HW179644   1.524   0.384  13.392
25935SOL    HW279645   1.616   0.454  13.296
25936SOL     OW79646   9.011   6.902   9.677
25936SOL    HW179647   8.981   6.846   9.748
25936SOL    HW279648   9.019   6.989   9.717
25937SOL     OW79649   3.612  13.471  12.936
25937SOL    HW179650   3.634  13.407  12.868
25937SOL    HW279651   3.674  13.453  13.006
25938SOL     OW79652   7.393  10.198   8.945
25938SOL    HW179653   7.387  10.226   9.036
25938SOL    HW279654   7.485  10.176   8.933
25939SOL     OW79655  10.839  11.748  12.423
25939SOL    HW179656  10.881  11.665  12.445
25939SOL    HW279657  10.759  11.750  12.476
25940SOL     OW79658   7.060   8.078  14.382
25940SOL    HW179659   7.114   8.058  14.459
25940SOL    HW279660   7.062   7.998  14.330
25941SOL     OW79661  11.916  14.511  12.432
25941SOL    HW179662  11.821  14.517  12.421
25941SOL    HW279663  11.947  14.476  12.349
25942SOL     OW79664   3.625   5.878  11.123
25942SOL    HW179665   3.714   5.845  11.133
25942SOL    HW279666   3.594   5.838  11.042
25943SOL     OW79667   1.440   1.803   2.527
25943SOL    HW179668   1.382   1.792   2.603
25943SOL    HW279669   1.510   1.740   2.541
25944SOL     OW79670  12.146   2.356  13.030
25944SOL    HW179671  12.149   2.440  12.983
25944SOL    HW279672  12.199   2.297  12.976
25945SOL     OW79673  12.528   8.038  11.239
25945SOL    HW179674  12.608   8.075  11.202
25945SOL    HW279675  12.527   7.947  11.208
25946SOL     OW79676  13.664  13.377  14.147
25946SOL    HW179677  13.606  13.374  14.224
25946SOL    HW279678  13.725  13.305  14.161
25947SOL     OW79679   1.702   1.640   1.906
25947SOL    HW179680   1.677   1.688   1.827
25947SOL    HW279681   1.637   1.570   1.914
25948SOL     OW79682  12.977   3.180   0.919
25948SOL    HW179683  13.062   3.202   0.958
25948SOL    HW279684  12.928   3.141   0.991
25949SOL     OW79685   4.192   5.201  11.545
25949SOL    HW179686   4.266   5.193  11.484
25949SOL    HW279687   4.136   5.126  11.525
25950SOL     OW79688   8.113   8.244  12.210
25950SOL    HW179689   8.038   8.268  12.156
25950SOL    HW279690   8.079   8.176  12.269
25951SOL     OW79691  14.315   6.408   4.803
25951SOL    HW179692  14.328   6.407   4.897
25951SOL    HW279693  14.403   6.404   4.766
25952SOL     OW79694  13.672   1.058   7.506
25952SOL    HW179695  13.625   1.068   7.588
25952SOL    HW279696  13.621   1.109   7.443
25953SOL     OW79697   5.804  13.552  14.174
25953SOL    HW179698   5.721  13.507  14.191
25953SOL    HW279699   5.866  13.510  14.234
25954SOL     OW79700  14.024  10.138   2.879
25954SOL    HW179701  14.120  10.147   2.880
25954SOL    HW279702  13.999  10.152   2.970
25955SOL     OW79703  11.214  12.240   1.458
25955SOL    HW179704  11.125  12.268   1.479
25955SOL    HW279705  11.239  12.293   1.382
25956SOL     OW79706  13.534   7.782   9.098
25956SOL    HW179707  13.487   7.703   9.125
25956SOL    HW279708  13.487   7.812   9.021
25957SOL     OW79709  14.095   4.006   3.764
25957SOL    HW179710  14.163   4.073   3.755
25957SOL    HW279711  14.078   3.977   3.674
25958SOL     OW79712   8.789   1.102  11.380
25958SOL    HW179713   8.762   1.011  11.367
25958SOL    HW279714   8.797   1.138  11.291
25959SOL     OW79715   2.674  12.084   3.826
25959SOL    HW179716   2.634  12.003   3.793
25959SOL    HW279717   2.654  12.149   3.759
25960SOL     OW79718   9.412   4.863   3.034
25960SOL    HW179719   9.460   4.898   3.108
25960SOL    HW279720   9.320   4.887   3.051
25961SOL     OW79721   6.304   2.237  13.011
25961SOL    HW179722   6.250   2.300  12.963
25961SOL    HW279723   6.317   2.165  12.950
25962SOL     OW79724  11.916  12.539  13.604
25962SOL    HW179725  11.926  12.487  13.524
25962SOL    HW279726  11.823  12.531  13.625
25963SOL     OW79727  10.373   4.336  14.560
25963SOL    HW179728  10.459   4.363  14.528
25963SOL    HW279729  10.354   4.396  14.632
25964SOL     OW79730   1.113   9.890   9.794
25964SOL    HW179731   1.022   9.863   9.783
25964SOL    HW279732   1.143   9.911   9.706
25965SOL     OW79733   6.197   1.191   3.624
25965SOL    HW179734   6.250   1.253   3.675
25965SOL    HW279735   6.186   1.116   3.683
25966SOL     OW79736   9.977   0.709  12.346
25966SOL    HW179737  10.003   0.726  12.437
25966SOL    HW279738   9.976   0.613  12.339
25967SOL     OW79739   1.145  13.405   3.322
25967SOL    HW179740   1.187  13.410   3.408
25967SOL    HW279741   1.217  13.388   3.262
25968SOL     OW79742   4.367   2.337   3.148
25968SOL    HW179743   4.339   2.384   3.071
25968SOL    HW279744   4.378   2.404   3.215
25969SOL     OW79745   0.937  11.771   2.628
25969SOL    HW179746   0.947  11.684   2.666
25969SOL    HW279747   0.842  11.782   2.619
25970SOL     OW79748   1.296  12.414   0.211
25970SOL    HW179749   1.304  12.320   0.227
25970SOL    HW279750   1.284  12.452   0.298
25971SOL     OW79751  14.451   3.976   0.695
25971SOL    HW179752  14.478   4.031   0.768
25971SOL    HW279753  14.490   3.891   0.712
25972SOL     OW79754   6.502   4.279   1.715
25972SOL    HW179755   6.489   4.234   1.799
25972SOL    HW279756   6.538   4.211   1.657
25973SOL     OW79757   1.405   4.507  11.048
25973SOL    HW179758   1.417   4.478  10.958
25973SOL    HW279759   1.493   4.513  11.084
25974SOL     OW79760   5.592  13.028   3.101
25974SOL    HW179761   5.669  13.085   3.100
25974SOL    HW279762   5.589  12.991   3.013
25975SOL     OW79763   2.192   2.317   2.808
25975SOL    HW179764   2.105   2.281   2.827
25975SOL    HW279765   2.181   2.363   2.725
25976SOL     OW79766  10.979   7.252  11.729
25976SOL    HW179767  10.983   7.339  11.768
25976SOL    HW279768  10.955   7.194  11.802
25977SOL     OW79769   6.967  11.587   4.679
25977SOL    HW179770   6.943  11.549   4.763
25977SOL    HW279771   6.944  11.519   4.615
25978SOL     OW79772  12.571   3.202   7.944
25978SOL    HW179773  12.638   3.219   7.878
25978SOL    HW279774  12.507   3.273   7.932
25979SOL     OW79775   0.021  10.094   8.224
25979SOL    HW179776   0.070  10.061   8.299
25979SOL    HW279777   0.075  10.166   8.190
25980SOL     OW79778   8.399  10.307   4.426
25980SOL    HW179779   8.388  10.402   4.438
25980SOL    HW279780   8.454  10.299   4.349
25981SOL     OW79781   7.185  10.813   9.517
25981SOL    HW179782   7.209  10.847   9.431
25981SOL    HW279783   7.246  10.856   9.577
25982SOL     OW79784   3.172   8.383  10.750
25982SOL    HW179785   3.150   8.355  10.839
25982SOL    HW279786   3.225   8.311  10.715
25983SOL     OW79787  13.272  10.303   9.666
25983SOL    HW179788  13.253  10.265   9.580
25983SOL    HW279789  13.251  10.233   9.728
25984SOL     OW79790   7.203   9.919  13.962
25984SOL    HW179791   7.108   9.933  13.955
25984SOL    HW279792   7.241  10.006  13.947
25985SOL     OW79793   3.389   3.895   4.869
25985SOL    HW179794   3.390   3.856   4.957
25985SOL    HW279795   3.450   3.968   4.875
25986SOL     OW79796  10.957  12.257   2.682
25986SOL    HW179797  10.862  12.253   2.673
25986SOL    HW279798  10.972  12.328   2.745
25987SOL     OW79799  12.262   9.568   7.874
25987SOL    HW179800  12.239   9.476   7.863
25987SOL    HW279801  12.259   9.604   7.786
25988SOL     OW79802   1.560   5.575   9.783
25988SOL    HW179803   1.540   5.485   9.809
25988SOL    HW279804   1.607   5.566   9.700
25989SOL     OW79805   5.721  13.710   6.719
25989SOL    HW179806   5.672  13.727   6.799
25989SOL    HW279807   5.653  13.694   6.652
25990SOL     OW79808  10.949   6.833   1.048
25990SOL    HW179809  11.005   6.892   0.998
25990SOL    HW279810  10.869   6.827   0.996
25991SOL     OW79811   4.709   9.415   5.704
25991SOL    HW179812   4.702   9.475   5.629
25991SOL    HW279813   4.761   9.462   5.768
25992SOL     OW79814   5.357   1.676   3.287
25992SOL    HW179815   5.331   1.754   3.237
25992SOL    HW279816   5.425   1.635   3.234
25993SOL     OW79817   2.527   0.739   9.540
25993SOL    HW179818   2.557   0.660   9.496
25993SOL    HW279819   2.464   0.708   9.605
25994SOL     OW79820   9.780   1.600   3.513
25994SOL    HW179821   9.848   1.594   3.446
25994SOL    HW279822   9.706   1.551   3.477
25995SOL     OW79823   1.195   2.502   2.241
25995SOL    HW179824   1.159   2.415   2.227
25995SOL    HW279825   1.155   2.531   2.324
25996SOL     OW79826  13.283   6.335  10.365
25996SOL    HW179827  13.201   6.299  10.332
25996SOL    HW279828  13.311   6.274  10.433
25997SOL     OW79829  14.024  12.872   5.651
25997SOL    HW179830  13.954  12.918   5.698
25997SOL    HW279831  14.095  12.866   5.714
25998SOL     OW79832   9.625   8.726   3.937
25998SOL    HW179833   9.676   8.734   4.018
25998SOL    HW279834   9.662   8.648   3.894
25999SOL     OW79835  13.078   4.331   6.607
25999SOL    HW179836  13.049   4.391   6.676
25999SOL    HW279837  13.150   4.377   6.564
26000SOL     OW79838   9.279   7.924   6.864
26000SOL    HW179839   9.254   7.833   6.882
26000SOL    HW279840   9.353   7.940   6.922
26001SOL     OW79841   5.704   3.848   8.566
26001SOL    HW179842   5.757   3.798   8.504
26001SOL    HW279843   5.753   3.930   8.579
26002SOL     OW79844   7.650   8.741   1.634
26002SOL    HW179845   7.596   8.780   1.703
26002SOL    HW279846   7.721   8.804   1.620
26003SOL     OW79847   0.680   6.098  10.959
26003SOL    HW179848   0.592   6.060  10.961
26003SOL    HW279849   0.690   6.140  11.045
26004SOL     OW79850  13.055   6.956  14.010
26004SOL    HW179851  13.099   7.039  14.028
26004SOL    HW279852  13.115   6.889  14.044
26005SOL     OW79853   9.937   5.721   8.515
26005SOL    HW179854   9.842   5.721   8.528
26005SOL    HW279855   9.959   5.629   8.499
26006SOL     OW79856   2.381   5.988   2.785
26006SOL    HW179857   2.460   5.940   2.810
26006SOL    HW279858   2.403   6.027   2.700
26007SOL     OW79859   4.232   2.679   2.572
26007SOL    HW179860   4.225   2.631   2.489
26007SOL    HW279861   4.305   2.637   2.618
26008SOL     OW79862   4.511  10.062   2.080
26008SOL    HW179863   4.457  10.039   2.156
26008SOL    HW279864   4.593  10.014   2.093
26009SOL     OW79865   6.029   0.484   6.355
26009SOL    HW179866   6.078   0.456   6.432
26009SOL    HW279867   6.063   0.428   6.284
26010SOL     OW79868   2.152   1.731  11.265
26010SOL    HW179869   2.175   1.761  11.353
26010SOL    HW279870   2.061   1.703  11.271
26011SOL     OW79871  11.390   4.833  12.382
26011SOL    HW179872  11.361   4.843  12.472
26011SOL    HW279873  11.446   4.909  12.366
26012SOL     OW79874  13.663  11.933   1.594
26012SOL    HW179875  13.712  12.007   1.559
26012SOL    HW279876  13.595  11.972   1.650
26013SOL     OW79877   9.276   2.488   3.262
26013SOL    HW179878   9.199   2.485   3.205
26013SOL    HW279879   9.347   2.519   3.206
26014SOL     OW79880   4.411   9.577   9.481
26014SOL    HW179881   4.500   9.605   9.506
26014SOL    HW279882   4.418   9.553   9.389
26015SOL     OW79883  12.667   6.138   2.564
26015SOL    HW179884  12.743   6.120   2.620
26015SOL    HW279885  12.607   6.186   2.621
26016SOL     OW79886  13.627  11.384   0.370
26016SOL    HW179887  13.604  11.317   0.434
26016SOL    HW279888  13.719  11.405   0.388
26017SOL     OW79889   1.792   0.723  13.585
26017SOL    HW179890   1.832   0.687  13.664
26017SOL    HW279891   1.833   0.809  13.575
26018SOL     OW79892   3.170   1.184   7.201
26018SOL    HW179893   3.162   1.268   7.155
26018SOL    HW279894   3.150   1.206   7.292
26019SOL     OW79895  13.521   5.547   7.394
26019SOL    HW179896  13.514   5.624   7.338
26019SOL    HW279897  13.562   5.580   7.474
26020SOL     OW79898   6.150   4.790  10.430
26020SOL    HW179899   6.204   4.844  10.487
26020SOL    HW279900   6.074   4.767  10.484
26021SOL     OW79901  12.243  12.547  10.284
26021SOL    HW179902  12.185  12.477  10.255
26021SOL    HW279903  12.195  12.589  10.356
26022SOL     OW79904   6.492   8.511  12.315
26022SOL    HW179905   6.433   8.441  12.344
26022SOL    HW279906   6.470   8.586  12.370
26023SOL     OW79907  14.578   3.646   7.074
26023SOL    HW179908  14.585   3.678   6.984
26023SOL    HW279909  14.604   3.721   7.127
26024SOL     OW79910  10.509   7.540   1.070
26024SOL    HW179911  10.598   7.516   1.095
26024SOL    HW279912  10.461   7.457   1.068
26025SOL     OW79913  11.327   1.006  10.992
26025SOL    HW179914  11.338   0.948  11.068
26025SOL    HW279915  11.253   0.968  10.945
26026SOL     OW79916   7.553  10.518  12.118
26026SOL    HW179917   7.495  10.456  12.163
26026SOL    HW279918   7.497  10.594  12.101
26027SOL     OW79919   3.970  11.918   4.860
26027SOL    HW179920   3.915  11.995   4.872
26027SOL    HW279921   4.007  11.901   4.947
26028SOL     OW79922  10.209  10.835   7.846
26028SOL    HW179923  10.132  10.807   7.895
26028SOL    HW279924  10.214  10.930   7.862
26029SOL     OW79925  10.541   7.233   7.599
26029SOL    HW179926  10.465   7.265   7.549
26029SOL    HW279927  10.585   7.313   7.628
26030SOL     OW79928   2.893   2.002   8.401
26030SOL    HW179929   2.894   1.928   8.462
26030SOL    HW279930   2.802   2.009   8.373
26031SOL     OW79931  10.476  11.663   1.588
26031SOL    HW179932  10.404  11.724   1.602
26031SOL    HW279933  10.500  11.675   1.496
26032SOL     OW79934   8.266  11.720   1.832
26032SOL    HW179935   8.180  11.759   1.844
26032SOL    HW279936   8.281  11.722   1.738
26033SOL     OW79937   5.376   8.526   2.066
26033SOL    HW179938   5.382   8.507   2.160
26033SOL    HW279939   5.376   8.622   2.061
26034SOL     OW79940  11.499   4.656  13.800
26034SOL    HW179941  11.419   4.647  13.850
26034SOL    HW279942  11.519   4.750  13.803
26035SOL     OW79943   1.859   8.791   1.198
26035SOL    HW179944   1.935   8.740   1.172
26035SOL    HW279945   1.894   8.862   1.252
26036SOL     OW79946   7.585   6.064  11.769
26036SOL    HW179947   7.560   6.156  11.764
26036SOL    HW279948   7.658   6.062  11.830
26037SOL     OW79949  11.511  10.694   8.164
26037SOL    HW179950  11.597  10.654   8.176
26037SOL    HW279951  11.454  10.621   8.138
26038SOL     OW79952   5.828   4.654   8.881
26038SOL    HW179953   5.843   4.747   8.899
26038SOL    HW279954   5.820   4.614   8.967
26039SOL     OW79955  14.685  13.088   8.382
26039SOL    HW179956  14.594  13.093   8.410
26039SOL    HW279957  14.681  13.077   8.287
26040SOL     OW79958  13.373   1.517   6.064
26040SOL    HW179959  13.374   1.600   6.112
26040SOL    HW279960  13.289   1.516   6.018
26041SOL     OW79961   1.661   0.807   3.141
26041SOL    HW179962   1.722   0.878   3.157
26041SOL    HW279963   1.653   0.802   3.046
26042SOL     OW79964   7.416  11.895   4.732
26042SOL    HW179965   7.429  11.804   4.706
26042SOL    HW279966   7.390  11.939   4.651
26043SOL     OW79967  13.459   0.313  10.943
26043SOL    HW179968  13.497   0.312  11.030
26043SOL    HW279969  13.397   0.240  10.943
26044SOL     OW79970   8.269   2.383  12.638
26044SOL    HW179971   8.326   2.424  12.703
26044SOL    HW279972   8.214   2.324  12.690
26045SOL     OW79973   2.443   9.220   7.336
26045SOL    HW179974   2.514   9.158   7.348
26045SOL    HW279975   2.430   9.260   7.422
26046SOL     OW79976  12.669   4.243   9.939
26046SOL    HW179977  12.701   4.223   9.852
26046SOL    HW279978  12.706   4.329   9.959
26047SOL     OW79979  10.494   6.375   5.867
26047SOL    HW179980  10.570   6.346   5.816
26047SOL    HW279981  10.493   6.470   5.857
26048SOL     OW79982  13.976  14.362   1.312
26048SOL    HW179983  14.024  14.283   1.286
26048SOL    HW279984  14.044  14.422   1.342
26049SOL     OW79985   2.184   7.155   2.439
26049SOL    HW179986   2.139   7.111   2.511
26049SOL    HW279987   2.188   7.247   2.466
26050SOL     OW79988   4.861   5.725   6.680
26050SOL    HW179989   4.831   5.717   6.770
26050SOL    HW279990   4.904   5.641   6.662
26051SOL     OW79991   8.119   2.149  12.375
26051SOL    HW179992   8.179   2.195  12.316
26051SOL    HW279993   8.090   2.073  12.324
26052SOL     OW79994   0.067   6.955   4.568
26052SOL    HW179995   0.065   6.898   4.644
26052SOL    HW279996   0.099   7.039   4.601
26053SOL     OW79997   3.992   4.811   1.722
26053SOL    HW179998   3.942   4.748   1.773
26053SOL    HW279999   3.936   4.831   1.647
26054SOL     OW80000  14.410  10.084   3.593
26054SOL    HW180001  14.419  10.035   3.511
26054SOL    HW280002  14.316  10.103   3.599
26055SOL     OW80003  14.186   9.580   5.911
26055SOL    HW180004  14.102   9.625   5.917
26055SOL    HW280005  14.236   9.611   5.987
26056SOL     OW80006   3.161   5.111   8.379
26056SOL    HW180007   3.154   5.020   8.349
26056SOL    HW280008   3.217   5.106   8.457
26057SOL     OW80009  10.722  10.340   6.005
26057SOL    HW180010  10.676  10.348   6.089
26057SOL    HW280011  10.749  10.248   6.001
26058SOL     OW80012   3.361   5.072  12.663
26058SOL    HW180013   3.298   5.144  12.667
26058SOL    HW280014   3.445   5.114  12.685
26059SOL     OW80015   9.490   8.549  10.089
26059SOL    HW180016   9.463   8.462  10.059
26059SOL    HW280017   9.409   8.601  10.088
26060SOL     OW80018   0.061   8.221   6.474
26060SOL    HW180019   0.060   8.243   6.567
26060SOL    HW280020   0.071   8.305   6.429
26061SOL     OW80021   5.415  11.228   1.190
26061SOL    HW180022   5.482  11.228   1.259
26061SOL    HW280023   5.422  11.314   1.150
26062SOL     OW80024  13.345   4.127  11.464
26062SOL    HW180025  13.321   4.202  11.411
26062SOL    HW280026  13.403   4.075  11.408
26063SOL     OW80027   1.312   4.640   1.574
26063SOL    HW180028   1.374   4.704   1.540
26063SOL    HW280029   1.336   4.629   1.666
26064SOL     OW80030   5.408  10.476  11.110
26064SOL    HW180031   5.423  10.408  11.175
26064SOL    HW280032   5.494  10.492  11.071
26065SOL     OW80033   8.161  10.797   6.901
26065SOL    HW180034   8.120  10.855   6.837
26065SOL    HW280035   8.246  10.837   6.919
26066SOL     OW80036   3.430  14.766  11.966
26066SOL    HW180037   3.361  14.727  12.019
26066SOL    HW280038   3.501  14.781  12.028
26067SOL     OW80039   1.176   4.581   9.405
26067SOL    HW180040   1.113   4.611   9.340
26067SOL    HW280041   1.123   4.562   9.483
26068SOL     OW80042   3.787   8.567   5.838
26068SOL    HW180043   3.700   8.587   5.804
26068SOL    HW280044   3.772   8.546   5.931
26069SOL     OW80045  12.678   9.780  12.910
26069SOL    HW180046  12.622   9.757  12.985
26069SOL    HW280047  12.754   9.722  12.918
26070SOL     OW80048   1.649  13.628   0.151
26070SOL    HW180049   1.639  13.624   0.056
26070SOL    HW280050   1.613  13.545   0.183
26071SOL     OW80051   1.002   6.246   4.937
26071SOL    HW180052   1.075   6.260   4.998
26071SOL    HW280053   0.924   6.256   4.992
26072SOL     OW80054   4.433  13.429   5.102
26072SOL    HW180055   4.444  13.418   5.197
26072SOL    HW280056   4.508  13.482   5.076
26073SOL     OW80057  11.044   3.567   6.168
26073SOL    HW180058  11.118   3.587   6.111
26073SOL    HW280059  11.085   3.535   6.249
26074SOL     OW80060   1.780   3.002  12.625
26074SOL    HW180061   1.851   3.063  12.643
26074SOL    HW280062   1.700   3.054  12.636
26075SOL     OW80063   3.426   9.207  12.290
26075SOL    HW180064   3.416   9.223  12.197
26075SOL    HW280065   3.418   9.112  12.299
26076SOL     OW80066   5.004  12.132   8.023
26076SOL    HW180067   5.040  12.135   8.111
26076SOL    HW280068   5.081  12.127   7.966
26077SOL     OW80069  13.477   4.527   6.916
26077SOL    HW180070  13.449   4.466   6.847
26077SOL    HW280071  13.571   4.512   6.924
26078SOL     OW80072   5.648  12.400   0.899
26078SOL    HW180073   5.610  12.312   0.890
26078SOL    HW280074   5.708  12.393   0.973
26079SOL     OW80075   0.363   2.605   9.107
26079SOL    HW180076   0.366   2.697   9.134
26079SOL    HW280077   0.414   2.603   9.026
26080SOL     OW80078  10.146   9.817  13.663
26080SOL    HW180079  10.155   9.882  13.593
26080SOL    HW280080  10.210   9.749  13.641
26081SOL     OW80081   5.019   8.818  11.681
26081SOL    HW180082   5.075   8.852  11.750
26081SOL    HW280083   4.930   8.840  11.710
26082SOL     OW80084  11.454   0.886   2.238
26082SOL    HW180085  11.514   0.859   2.309
26082SOL    HW280086  11.502   0.954   2.191
26083SOL     OW80087  13.454   5.656   9.450
26083SOL    HW180088  13.519   5.727   9.453
26083SOL    HW280089  13.439   5.641   9.357
26084SOL     OW80090   7.336   7.971  10.211
26084SOL    HW180091   7.384   7.917  10.274
26084SOL    HW280092   7.403   8.003  10.151
26085SOL     OW80093   7.053  13.573  13.957
26085SOL    HW180094   6.979  13.632  13.946
26085SOL    HW280095   7.112  13.621  14.015
26086SOL     OW80096   1.197   0.433  10.643
26086SOL    HW180097   1.176   0.524  10.664
26086SOL    HW280098   1.113   0.387  10.643
26087SOL     OW80099  10.811  13.403  12.707
26087SOL    HW180100  10.772  13.325  12.747
26087SOL    HW280101  10.861  13.443  12.778
26088SOL     OW80102  13.056   8.153   1.817
26088SOL    HW180103  13.068   8.148   1.722
26088SOL    HW280104  13.138   8.189   1.850
26089SOL     OW80105  12.632  10.727   9.194
26089SOL    HW180106  12.701  10.664   9.215
26089SOL    HW280107  12.561  10.706   9.256
26090SOL     OW80108   5.060   9.907   7.605
26090SOL    HW180109   4.991   9.852   7.569
26090SOL    HW280110   5.054   9.894   7.700
26091SOL     OW80111   0.678  12.537  13.739
26091SOL    HW180112   0.757  12.484  13.748
26091SOL    HW280113   0.710  12.625  13.721
26092SOL     OW80114   8.317  11.290   3.910
26092SOL    HW180115   8.279  11.316   3.994
26092SOL    HW280116   8.264  11.336   3.845
26093SOL     OW80117  13.364  11.459   2.853
26093SOL    HW180118  13.294  11.500   2.904
26093SOL    HW280119  13.381  11.376   2.898
26094SOL     OW80120   0.721   1.330  14.113
26094SOL    HW180121   0.700   1.293  14.027
26094SOL    HW280122   0.685   1.419  14.110
26095SOL     OW80123   6.260   2.574   7.886
26095SOL    HW180124   6.208   2.620   7.821
26095SOL    HW280125   6.349   2.605   7.874
26096SOL     OW80126  11.535   3.243   1.558
26096SOL    HW180127  11.463   3.259   1.496
26096SOL    HW280128  11.614   3.262   1.508
26097SOL     OW80129   3.741   0.458   5.391
26097SOL    HW180130   3.678   0.525   5.417
26097SOL    HW280131   3.825   0.504   5.390
26098SOL     OW80132   8.562   6.752  14.158
26098SOL    HW180133   8.615   6.696  14.101
26098SOL    HW280134   8.531   6.822  14.101
26099SOL     OW80135   4.984   8.851   3.900
26099SOL    HW180136   5.074   8.875   3.882
26099SOL    HW280137   4.989   8.797   3.980
26100SOL     OW80138   9.775   5.257  10.390
26100SOL    HW180139   9.754   5.344  10.357
26100SOL    HW280140   9.860   5.236  10.350
26101SOL     OW80141   7.516  13.160   0.661
26101SOL    HW180142   7.601  13.119   0.642
26101SOL    HW280143   7.495  13.210   0.582
26102SOL     OW80144   2.027  14.860   9.440
26102SOL    HW180145   2.066  14.773   9.450
26102SOL    HW280146   2.080   0.044   9.496
26103SOL     OW80147   8.697   9.048  12.812
26103SOL    HW180148   8.611   9.069  12.776
26103SOL    HW280149   8.757   9.110  12.770
26104SOL     OW80150  12.049   4.510   4.024
26104SOL    HW180151  11.984   4.441   4.036
26104SOL    HW280152  12.038   4.567   4.101
26105SOL     OW80153   2.574   7.802  14.839
26105SOL    HW180154   2.614   7.866  14.780
26105SOL    HW280155   2.501   7.765  14.789
26106SOL     OW80156   7.600  10.107   6.928
26106SOL    HW180157   7.602  10.202   6.937
26106SOL    HW280158   7.568  10.091   6.839
26107SOL     OW80159   4.809   0.791   0.675
26107SOL    HW180160   4.821   0.712   0.622
26107SOL    HW280161   4.836   0.765   0.763
26108SOL     OW80162  10.001  10.014   7.353
26108SOL    HW180163   9.929  10.057   7.308
26108SOL    HW280164   9.958   9.959   7.419
26109SOL     OW80165  11.462   7.128  10.446
26109SOL    HW180166  11.454   7.170  10.531
26109SOL    HW280167  11.547   7.085  10.448
26110SOL     OW80168  10.241  13.991   2.410
26110SOL    HW180169  10.249  14.076   2.455
26110SOL    HW280170  10.320  13.985   2.357
26111SOL     OW80171  11.553   4.259  10.233
26111SOL    HW180172  11.551   4.286  10.325
26111SOL    HW280173  11.509   4.329  10.186
26112SOL     OW80174   9.449  13.923  10.445
26112SOL    HW180175   9.418  13.832  10.452
26112SOL    HW280176   9.406  13.968  10.518
26113SOL     OW80177   1.666   6.310   5.114
26113SOL    HW180178   1.688   6.388   5.164
26113SOL    HW280179   1.637   6.343   5.029
26114SOL     OW80180  10.948   4.702   8.815
26114SOL    HW180181  10.901   4.636   8.763
26114SOL    HW280182  11.037   4.699   8.782
26115SOL     OW80183  11.043   8.641   8.207
26115SOL    HW180184  10.950   8.659   8.195
26115SOL    HW280185  11.086   8.725   8.188
26116SOL     OW80186   5.268  12.743   9.825
26116SOL    HW180187   5.358  12.735   9.794
26116SOL    HW280188   5.260  12.834   9.852
26117SOL     OW80189   3.350   4.204   6.156
26117SOL    HW180190   3.295   4.250   6.093
26117SOL    HW280191   3.300   4.126   6.179
26118SOL     OW80192   0.371   1.453   4.759
26118SOL    HW180193   0.325   1.439   4.677
26118SOL    HW280194   0.429   1.528   4.741
26119SOL     OW80195   9.310  12.131   3.578
26119SOL    HW180196   9.319  12.207   3.636
26119SOL    HW280197   9.400  12.108   3.555
26120SOL     OW80198   9.944  12.491   3.508
26120SOL    HW180199   9.933  12.548   3.584
26120SOL    HW280200   9.873  12.427   3.514
26121SOL     OW80201   1.945   5.365   9.705
26121SOL    HW180202   1.900   5.418   9.771
26121SOL    HW280203   1.944   5.419   9.626
26122SOL     OW80204  12.833   4.815   5.153
26122SOL    HW180205  12.925   4.808   5.125
26122SOL    HW280206  12.813   4.729   5.189
26123SOL     OW80207   3.156  10.186   8.102
26123SOL    HW180208   3.153  10.234   8.184
26123SOL    HW280209   3.073  10.138   8.099
26124SOL     OW80210  12.311   1.638   2.061
26124SOL    HW180211  12.401   1.643   2.029
26124SOL    HW280212  12.278   1.554   2.028
26125SOL     OW80213  13.049   8.706   0.007
26125SOL    HW180214  13.087   8.621  14.861
26125SOL    HW280215  12.955   8.691   0.006
26126SOL     OW80216   6.021   0.659  12.629
26126SOL    HW180217   6.026   0.749  12.659
26126SOL    HW280218   5.930   0.633  12.645
26127SOL     OW80219   3.596   1.387   8.695
26127SOL    HW180220   3.675   1.386   8.749
26127SOL    HW280221   3.619   1.440   8.619
26128SOL     OW80222   9.924  11.889   5.997
26128SOL    HW180223   9.853  11.914   6.056
26128SOL    HW280224   9.994  11.952   6.015
26129SOL     OW80225   8.213   5.745   7.265
26129SOL    HW180226   8.222   5.839   7.255
26129SOL    HW280227   8.125   5.733   7.301
26130SOL     OW80228   2.823  14.062   9.756
26130SOL    HW180229   2.876  14.120   9.811
26130SOL    HW280230   2.739  14.107   9.748
26131SOL     OW80231   8.493   9.343  12.156
26131SOL    HW180232   8.586   9.362  12.138
26131SOL    HW280233   8.464   9.294  12.079
26132SOL     OW80234  10.999   1.679   4.505
26132SOL    HW180235  11.010   1.696   4.412
26132SOL    HW280236  10.991   1.584   4.512
26133SOL     OW80237   2.962  12.608   0.766
26133SOL    HW180238   2.961  12.607   0.670
26133SOL    HW280239   2.929  12.696   0.788
26134SOL     OW80240   0.652   1.806   4.225
26134SOL    HW180241   0.635   1.873   4.293
26134SOL    HW280242   0.726   1.756   4.259
26135SOL     OW80243   4.607  11.732   5.844
26135SOL    HW180244   4.618  11.826   5.831
26135SOL    HW280245   4.695  11.701   5.869
26136SOL     OW80246   8.864  11.169   7.461
26136SOL    HW180247   8.802  11.234   7.493
26136SOL    HW280248   8.847  11.163   7.367
26137SOL     OW80249   2.062   3.123   9.779
26137SOL    HW180250   2.054   3.218   9.778
26137SOL    HW280251   2.022   3.094   9.697
26138SOL     OW80252   6.801   0.813  10.965
26138SOL    HW180253   6.792   0.779  11.054
26138SOL    HW280254   6.870   0.879  10.972
26139SOL     OW80255   9.921   4.303   0.583
26139SOL    HW180256   9.862   4.244   0.630
26139SOL    HW280257   9.970   4.349   0.651
26140SOL     OW80258   1.355   4.987  10.585
26140SOL    HW180259   1.330   4.918  10.524
26140SOL    HW280260   1.273   5.031  10.608
26141SOL     OW80261   0.371   2.632   7.240
26141SOL    HW180262   0.459   2.595   7.239
26141SOL    HW280263   0.318   2.568   7.288
26142SOL     OW80264   2.144   8.057  10.176
26142SOL    HW180265   2.217   8.098  10.131
26142SOL    HW280266   2.167   8.063  10.269
26143SOL     OW80267   3.831   5.253   7.058
26143SOL    HW180268   3.741   5.276   7.080
26143SOL    HW280269   3.879   5.336   7.066
26144SOL     OW80270  12.024  13.273   1.873
26144SOL    HW180271  12.075  13.214   1.818
26144SOL    HW280272  12.008  13.224   1.954
26145SOL     OW80273   4.336  11.790   1.073
26145SOL    HW180274   4.275  11.781   1.001
26145SOL    HW280275   4.407  11.728   1.053
26146SOL     OW80276   4.476   4.836   6.502
26146SOL    HW180277   4.500   4.920   6.463
26146SOL    HW280278   4.435   4.859   6.585
26147SOL     OW80279  11.566  13.270  13.506
26147SOL    HW180280  11.657  13.300  13.495
26147SOL    HW280281  11.558  13.196  13.446
26148SOL     OW80282   9.344   3.263   3.547
26148SOL    HW180283   9.394   3.185   3.570
26148SOL    HW280284   9.272   3.230   3.494
26149SOL     OW80285   3.144  14.699   2.822
26149SOL    HW180286   3.084  14.668   2.754
26149SOL    HW280287   3.210  14.750   2.774
26150SOL     OW80288  13.631  10.661   1.469
26150SOL    HW180289  13.541  10.644   1.443
26150SOL    HW280290  13.651  10.747   1.433
26151SOL     OW80291   6.766   6.772  14.727
26151SOL    HW180292   6.744   6.747  14.638
26151SOL    HW280293   6.803   6.860  14.719
26152SOL     OW80294  14.483  13.268   9.965
26152SOL    HW180295  14.568  13.288   9.925
26152SOL    HW280296  14.501  13.264  10.059
26153SOL     OW80297  14.653   8.476  10.112
26153SOL    HW180298  14.657   8.424  10.032
26153SOL    HW280299  14.571   8.525  10.105
26154SOL     OW80300   3.815   5.411  11.985
26154SOL    HW180301   3.822   5.353  12.061
26154SOL    HW280302   3.872   5.485  12.006
26155SOL     OW80303  11.033   8.373   1.020
26155SOL    HW180304  11.042   8.465   1.046
26155SOL    HW280305  11.005   8.377   0.929
26156SOL     OW80306  13.429   6.345   9.863
26156SOL    HW180307  13.356   6.285   9.845
26156SOL    HW280308  13.459   6.373   9.776
26157SOL     OW80309   7.744  10.655  13.712
26157SOL    HW180310   7.806  10.703  13.657
26157SOL    HW280311   7.760  10.563  13.693
26158SOL     OW80312  12.673   1.028   3.233
26158SOL    HW180313  12.709   1.103   3.281
26158SOL    HW280314  12.700   1.043   3.142
26159SOL     OW80315   5.808   7.999   5.324
26159SOL    HW180316   5.874   8.016   5.257
26159SOL    HW280317   5.857   7.966   5.399
26160SOL     OW80318   4.548   8.072   9.330
26160SOL    HW180319   4.485   8.116   9.386
26160SOL    HW280320   4.631   8.076   9.379
26161SOL     OW80321   4.315   0.658   1.305
26161SOL    HW180322   4.393   0.697   1.344
26161SOL    HW280323   4.242   0.708   1.342
26162SOL     OW80324   0.184  10.808  11.398
26162SOL    HW180325   0.205  10.716  11.384
26162SOL    HW280326   0.139  10.835  11.319
26163SOL     OW80327   6.880   1.852  13.172
26163SOL    HW180328   6.943   1.784  13.149
26163SOL    HW280329   6.907   1.881  13.259
26164SOL     OW80330   5.607   5.496   3.705
26164SOL    HW180331   5.605   5.585   3.669
26164SOL    HW280332   5.685   5.495   3.760
26165SOL     OW80333   3.320   0.789   0.276
26165SOL    HW180334   3.413   0.776   0.294
26165SOL    HW280335   3.314   0.880   0.247
26166SOL     OW80336  13.299   5.441   7.311
26166SOL    HW180337  13.256   5.410   7.391
26166SOL    HW280338  13.380   5.481   7.341
26167SOL     OW80339   6.304   8.481   7.093
26167SOL    HW180340   6.328   8.398   7.133
26167SOL    HW280341   6.281   8.459   7.003
26168SOL     OW80342   4.483   1.204   5.633
26168SOL    HW180343   4.518   1.153   5.706
26168SOL    HW280344   4.531   1.287   5.636
26169SOL     OW80345   7.439   6.233   5.533
26169SOL    HW180346   7.414   6.195   5.449
26169SOL    HW280347   7.362   6.221   5.589
26170SOL     OW80348   0.639   5.117  14.706
26170SOL    HW180349   0.729   5.085  14.714
26170SOL    HW280350   0.584   5.040  14.721
26171SOL     OW80351  11.219   5.173   3.875
26171SOL    HW180352  11.230   5.263   3.907
26171SOL    HW280353  11.188   5.184   3.785
26172SOL     OW80354  10.231  12.045   8.046
26172SOL    HW180355  10.257  12.044   8.139
26172SOL    HW280356  10.254  11.958   8.014
26173SOL     OW80357   8.455  14.343   0.910
26173SOL    HW180358   8.372  14.385   0.931
26173SOL    HW280359   8.515  14.371   0.979
26174SOL     OW80360   0.914   2.033  12.456
26174SOL    HW180361   0.998   2.039  12.409
26174SOL    HW280362   0.857   2.096  12.412
26175SOL     OW80363  12.938  11.688  13.476
26175SOL    HW180364  12.898  11.735  13.403
26175SOL    HW280365  12.890  11.606  13.481
26176SOL     OW80366  10.174   4.445  11.494
26176SOL    HW180367  10.160   4.460  11.400
26176SOL    HW280368  10.169   4.350  11.504
26177SOL     OW80369  12.792   0.919   6.194
26177SOL    HW180370  12.781   0.972   6.273
26177SOL    HW280371  12.858   0.854   6.217
26178SOL     OW80372  11.558   1.384  13.373
26178SOL    HW180373  11.653   1.379  13.369
26178SOL    HW280374  11.540   1.476  13.393
26179SOL     OW80375   2.331  10.501   8.696
26179SOL    HW180376   2.413  10.461   8.667
26179SOL    HW280377   2.347  10.596   8.689
26180SOL     OW80378   4.139   4.092   3.791
26180SOL    HW180379   4.167   4.164   3.847
26180SOL    HW280380   4.197   4.096   3.715
26181SOL     OW80381   4.317   5.848   3.955
26181SOL    HW180382   4.398   5.837   4.005
26181SOL    HW280383   4.347   5.863   3.865
26182SOL     OW80384   6.230   7.613   0.904
26182SOL    HW180385   6.273   7.649   0.982
26182SOL    HW280386   6.186   7.688   0.864
26183SOL     OW80387   6.719  11.089  14.404
26183SOL    HW180388   6.766  11.172  14.413
26183SOL    HW280389   6.704  11.080  14.310
26184SOL     OW80390   3.215   9.001   8.159
26184SOL    HW180391   3.251   9.065   8.220
26184SOL    HW280392   3.273   8.925   8.167
26185SOL     OW80393  11.263   6.134   4.756
26185SOL    HW180394  11.168   6.122   4.750
26185SOL    HW280395  11.274   6.196   4.829
26186SOL     OW80396   9.182   2.843   4.870
26186SOL    HW180397   9.189   2.779   4.799
26186SOL    HW280398   9.261   2.896   4.861
26187SOL     OW80399   2.215   1.896   1.535
26187SOL    HW180400   2.310   1.906   1.528
26187SOL    HW280401   2.202   1.843   1.613
26188SOL     OW80402   3.444   2.248  14.845
26188SOL    HW180403   3.416   2.326  14.797
26188SOL    HW280404   3.535   2.235  14.819
26189SOL     OW80405   6.346   4.951  10.556
26189SOL    HW180406   6.348   5.021  10.621
26189SOL    HW280407   6.369   4.872  10.605
26190SOL     OW80408   9.458  11.245   5.134
26190SOL    HW180409   9.515  11.322   5.132
26190SOL    HW280410   9.485  11.198   5.212
26191SOL     OW80411  10.824   2.624  11.419
26191SOL    HW180412  10.777   2.558  11.471
26191SOL    HW280413  10.844   2.694  11.481
26192SOL     OW80414  10.441   5.945   2.186
26192SOL    HW180415  10.508   5.903   2.240
26192SOL    HW280416  10.365   5.952   2.243
26193SOL     OW80417  13.785   4.200  14.583
26193SOL    HW180418  13.827   4.226  14.665
26193SOL    HW280419  13.725   4.272  14.564
26194SOL     OW80420  14.110  14.845   6.610
26194SOL    HW180421  14.158  14.806   6.536
26194SOL    HW280422  14.175   0.028   6.653
26195SOL     OW80423   2.029   5.155  14.312
26195SOL    HW180424   2.025   5.118  14.400
26195SOL    HW280425   1.945   5.200  14.301
26196SOL     OW80426   8.079  10.294   0.271
26196SOL    HW180427   7.988  10.318   0.253
26196SOL    HW280428   8.131  10.347   0.212
26197SOL     OW80429  11.741   2.394  12.219
26197SOL    HW180430  11.718   2.442  12.139
26197SOL    HW280431  11.680   2.426  12.285
26198SOL     OW80432   4.111   1.984  10.425
26198SOL    HW180433   4.206   1.990  10.428
26198SOL    HW280434   4.084   2.055  10.365
26199SOL     OW80435  13.983  13.735   7.679
26199SOL    HW180436  13.952  13.825   7.668
26199SOL    HW280437  13.967  13.716   7.771
26200SOL     OW80438  12.747   4.435   8.564
26200SOL    HW180439  12.723   4.520   8.601
26200SOL    HW280440  12.803   4.457   8.489
26201SOL     OW80441   4.275   0.330   1.260
26201SOL    HW180442   4.186   0.295   1.263
26201SOL    HW280443   4.300   0.323   1.167
26202SOL     OW80444   6.451   0.145   7.586
26202SOL    HW180445   6.470   0.139   7.680
26202SOL    HW280446   6.410   0.231   7.576
26203SOL     OW80447   6.299  12.100   7.371
26203SOL    HW180448   6.340  12.014   7.384
26203SOL    HW280449   6.232  12.105   7.439
26204SOL     OW80450  11.539   9.875  14.348
26204SOL    HW180451  11.467   9.929  14.381
26204SOL    HW280452  11.504   9.786  14.348
26205SOL     OW80453  14.331   3.513  14.165
26205SOL    HW180454  14.338   3.507  14.069
26205SOL    HW280455  14.338   3.606  14.184
26206SOL     OW80456   2.795  12.778   4.315
26206SOL    HW180457   2.703  12.799   4.299
26206SOL    HW280458   2.817  12.823   4.396
26207SOL     OW80459   3.165   0.124   8.035
26207SOL    HW180460   3.207   0.127   7.949
26207SOL    HW280461   3.078   0.086   8.018
26208SOL     OW80462  10.251   2.489   3.228
26208SOL    HW180463  10.180   2.522   3.281
26208SOL    HW280464  10.258   2.551   3.155
26209SOL     OW80465   2.845   7.504  12.394
26209SOL    HW180466   2.799   7.452  12.460
26209SOL    HW280467   2.899   7.440  12.347
26210SOL     OW80468   9.555   9.814  14.375
26210SOL    HW180469   9.504   9.743  14.335
26210SOL    HW280470   9.621   9.836  14.309
26211SOL     OW80471  12.456   8.617   9.341
26211SOL    HW180472  12.498   8.697   9.371
26211SOL    HW280473  12.393   8.596   9.409
26212SOL     OW80474   7.235  11.599   9.513
26212SOL    HW180475   7.154  11.621   9.558
26212SOL    HW280476   7.218  11.513   9.473
26213SOL     OW80477   0.043  12.488   9.469
26213SOL    HW180478   0.055  12.581   9.448
26213SOL    HW280479   0.041  12.485   9.565
26214SOL     OW80480   2.075  13.609  12.577
26214SOL    HW180481   1.998  13.566  12.541
26214SOL    HW280482   2.041  13.685  12.623
26215SOL     OW80483   2.448   0.645   4.605
26215SOL    HW180484   2.383   0.661   4.537
26215SOL    HW280485   2.500   0.572   4.572
26216SOL     OW80486   7.728  12.621   6.019
26216SOL    HW180487   7.805  12.566   6.037
26216SOL    HW280488   7.765  12.702   5.983
26217SOL     OW80489  14.410  14.769   7.092
26217SOL    HW180490  14.478  14.718   7.047
26217SOL    HW280491  14.370  14.706   7.152
26218SOL     OW80492  14.571   6.317   4.425
26218SOL    HW180493  14.645   6.261   4.449
26218SOL    HW280494  14.521   6.264   4.362
26219SOL     OW80495   7.356  11.852  13.901
26219SOL    HW180496   7.393  11.820  13.819
26219SOL    HW280497   7.278  11.902  13.875
26220SOL     OW80498  14.288  14.833   7.400
26220SOL    HW180499  14.325  14.746   7.382
26220SOL    HW280500  14.299  14.844   7.494
26221SOL     OW80501   6.260  13.218  14.042
26221SOL    HW180502   6.183  13.267  14.015
26221SOL    HW280503   6.327  13.284  14.056
26222SOL     OW80504  11.058   7.772   4.487
26222SOL    HW180505  11.052   7.865   4.467
26222SOL    HW280506  10.967   7.742   4.490
26223SOL     OW80507  11.879  10.668  13.813
26223SOL    HW180508  11.833  10.628  13.740
26223SOL    HW280509  11.955  10.612  13.829
26224SOL     OW80510   5.941   7.905  13.761
26224SOL    HW180511   5.927   7.989  13.716
26224SOL    HW280512   5.853   7.875  13.782
26225SOL     OW80513  13.960  11.272   5.503
26225SOL    HW180514  14.012  11.202   5.542
26225SOL    HW280515  13.927  11.322   5.578
26226SOL     OW80516  13.613   6.666  13.270
26226SOL    HW180517  13.580   6.692  13.356
26226SOL    HW280518  13.702   6.636  13.287
26227SOL     OW80519   8.277   8.813   4.935
26227SOL    HW180520   8.305   8.846   4.850
26227SOL    HW280521   8.237   8.889   4.978
26228SOL     OW80522  13.078   1.736   3.024
26228SOL    HW180523  13.164   1.750   2.984
26228SOL    HW280524  13.015   1.768   2.960
26229SOL     OW80525   0.880  11.405   9.188
26229SOL    HW180526   0.848  11.466   9.121
26229SOL    HW280527   0.930  11.461   9.248
26230SOL     OW80528  13.423   0.831   1.468
26230SOL    HW180529  13.474   0.831   1.386
26230SOL    HW280530  13.390   0.741   1.476
26231SOL     OW80531  10.772   6.649   3.705
26231SOL    HW180532  10.683   6.679   3.723
26231SOL    HW280533  10.795   6.594   3.780
26232SOL     OW80534   6.193   5.038   9.824
26232SOL    HW180535   6.274   5.019   9.871
26232SOL    HW280536   6.219   5.040   9.732
26233SOL     OW80537   3.231   7.065   1.695
26233SOL    HW180538   3.281   7.026   1.623
26233SOL    HW280539   3.184   6.991   1.733
26234SOL     OW80540   9.308   9.258   5.161
26234SOL    HW180541   9.379   9.277   5.100
26234SOL    HW280542   9.352   9.217   5.236
26235SOL     OW80543   8.228   3.305   2.271
26235SOL    HW180544   8.172   3.269   2.340
26235SOL    HW280545   8.249   3.393   2.300
26236SOL     OW80546   7.020   2.425  14.285
26236SOL    HW180547   7.086   2.451  14.221
26236SOL    HW280548   6.937   2.430  14.238
26237SOL     OW80549  13.922  13.019   2.054
26237SOL    HW180550  14.002  12.973   2.029
26237SOL    HW280551  13.893  13.063   1.974
26238SOL     OW80552  11.260  10.350   6.077
26238SOL    HW180553  11.263  10.444   6.062
26238SOL    HW280554  11.336  10.333   6.133
26239SOL     OW80555   5.456  13.857  11.213
26239SOL    HW180556   5.489  13.778  11.257
26239SOL    HW280557   5.477  13.928  11.274
26240SOL     OW80558  13.094   4.310   3.444
26240SOL    HW180559  13.039   4.302   3.522
26240SOL    HW280560  13.120   4.221   3.423
26241SOL     OW80561  12.982  13.885  11.897
26241SOL    HW180562  12.937  13.955  11.849
26241SOL    HW280563  12.912  13.824  11.921
26242SOL     OW80564   4.731   8.851  11.310
26242SOL    HW180565   4.790   8.857  11.234
26242SOL    HW280566   4.756   8.769  11.353
26243SOL     OW80567  10.939  12.216  10.524
26243SOL    HW180568  10.932  12.144  10.586
26243SOL    HW280569  11.031  12.215  10.497
26244SOL     OW80570   7.287   4.869   6.829
26244SOL    HW180571   7.251   4.841   6.913
26244SOL    HW280572   7.379   4.890   6.847
26245SOL     OW80573  13.573   6.600   1.970
26245SOL    HW180574  13.665   6.589   1.946
26245SOL    HW280575  13.539   6.511   1.976
26246SOL     OW80576   0.616   2.256   0.636
26246SOL    HW180577   0.686   2.306   0.592
26246SOL    HW280578   0.654   2.230   0.719
26247SOL     OW80579   5.447   6.059   7.971
26247SOL    HW180580   5.517   6.040   7.909
26247SOL    HW280581   5.407   6.139   7.937
26248SOL     OW80582   7.392   1.461   2.739
26248SOL    HW180583   7.330   1.531   2.760
26248SOL    HW280584   7.371   1.436   2.649
26249SOL     OW80585  10.737   9.887   4.266
26249SOL    HW180586  10.649   9.851   4.257
26249SOL    HW280587  10.724   9.976   4.299
26250SOL     OW80588   6.423  11.772   5.934
26250SOL    HW180589   6.440  11.697   5.991
26250SOL    HW280590   6.427  11.848   5.993
26251SOL     OW80591   6.808   7.012  13.882
26251SOL    HW180592   6.726   7.018  13.931
26251SOL    HW280593   6.786   7.044  13.794
26252SOL     OW80594   0.910   3.752   4.498
26252SOL    HW180595   0.955   3.685   4.447
26252SOL    HW280596   0.948   3.744   4.586
26253SOL     OW80597   2.496   0.632   8.888
26253SOL    HW180598   2.421   0.680   8.925
26253SOL    HW280599   2.478   0.541   8.910
26254SOL     OW80600  10.696  14.647   5.126
26254SOL    HW180601  10.788  14.626   5.115
26254SOL    HW280602  10.671  14.689   5.043
26255SOL     OW80603   3.328   2.694  10.167
26255SOL    HW180604   3.263   2.724  10.104
26255SOL    HW280605   3.403   2.667  10.114
26256SOL     OW80606   0.347  13.579  12.127
26256SOL    HW180607   0.301  13.663  12.133
26256SOL    HW280608   0.281  13.514  12.149
26257SOL     OW80609   7.170   5.750   6.013
26257SOL    HW180610   7.133   5.761   5.925
26257SOL    HW280611   7.119   5.809   6.068
26258SOL     OW80612  13.843   9.664   3.422
26258SOL    HW180613  13.843   9.588   3.364
26258SOL    HW280614  13.820   9.629   3.508
26259SOL     OW80615   6.609   9.020  10.334
26259SOL    HW180616   6.588   8.968  10.257
26259SOL    HW280617   6.688   8.980  10.369
26260SOL     OW80618  10.563   5.051   9.399
26260SOL    HW180619  10.533   5.106   9.327
26260SOL    HW280620  10.579   5.112   9.471
26261SOL     OW80621   6.427   2.486   6.595
26261SOL    HW180622   6.477   2.440   6.664
26261SOL    HW280623   6.342   2.504   6.635
26262SOL     OW80624   1.107   2.553  14.858
26262SOL    HW180625   1.031   2.495  14.862
26262SOL    HW280626   1.079   2.633   0.029
26263SOL     OW80627   1.388   3.506   3.592
26263SOL    HW180628   1.475   3.515   3.630
26263SOL    HW280629   1.402   3.457   3.511
26264SOL     OW80630  10.866   5.651  14.511
26264SOL    HW180631  10.809   5.633  14.436
26264SOL    HW280632  10.857   5.575  14.568
26265SOL     OW80633  11.313   0.917   8.908
26265SOL    HW180634  11.293   0.987   8.846
26265SOL    HW280635  11.238   0.915   8.968
26266SOL     OW80636   8.982  13.120   8.841
26266SOL    HW180637   8.887  13.130   8.835
26266SOL    HW280638   9.011  13.191   8.898
26267SOL     OW80639  14.466   3.250   4.906
26267SOL    HW180640  14.476   3.251   5.002
26267SOL    HW280641  14.395   3.313   4.890
26268SOL     OW80642   1.899  11.763  10.054
26268SOL    HW180643   1.808  11.791  10.068
26268SOL    HW280644   1.918  11.707  10.130
26269SOL     OW80645  11.193   4.581   0.112
26269SOL    HW180646  11.130   4.530   0.163
26269SOL    HW280647  11.193   4.667   0.153
26270SOL     OW80648   1.653   2.590   8.179
26270SOL    HW180649   1.729   2.641   8.207
26270SOL    HW280650   1.595   2.588   8.255
26271SOL     OW80651  10.267   1.847  12.611
26271SOL    HW180652  10.259   1.892  12.695
26271SOL    HW280653  10.321   1.770  12.630
26272SOL     OW80654  10.649   2.976   9.752
26272SOL    HW180655  10.678   2.950   9.665
26272SOL    HW280656  10.682   2.907   9.810
26273SOL     OW80657   7.031  13.502   9.884
26273SOL    HW180658   7.127  13.506   9.883
26273SOL    HW280659   7.003  13.593   9.879
26274SOL     OW80660   5.091   2.876   3.966
26274SOL    HW180661   5.180   2.858   3.936
26274SOL    HW280662   5.062   2.794   4.006
26275SOL     OW80663   2.358   9.803   6.284
26275SOL    HW180664   2.396   9.716   6.288
26275SOL    HW280665   2.293   9.798   6.214
26276SOL     OW80666  14.871   7.302  13.459
26276SOL    HW180667   0.054   7.340  13.525
26276SOL    HW280668  14.873   7.208  13.476
26277SOL     OW80669   7.987  11.217  14.072
26277SOL    HW180670   8.001  11.145  14.134
26277SOL    HW280671   7.917  11.186  14.015
26278SOL     OW80672   4.378  14.580  10.191
26278SOL    HW180673   4.330  14.552  10.113
26278SOL    HW280674   4.463  14.536  10.184
26279SOL     OW80675  10.307  14.331   4.519
26279SOL    HW180676  10.285  14.377   4.438
26279SOL    HW280677  10.403  14.323   4.516
26280SOL     OW80678  11.188   8.645   8.760
26280SOL    HW180679  11.275   8.668   8.792
26280SOL    HW280680  11.146   8.728   8.742
26281SOL     OW80681   0.090   6.876  12.531
26281SOL    HW180682   0.087   6.858  12.625
26281SOL    HW280683   0.018   6.937  12.515
26282SOL     OW80684   9.052   7.362   3.540
26282SOL    HW180685   9.008   7.400   3.616
26282SOL    HW280686   9.119   7.426   3.516
26283SOL     OW80687   2.577   9.440   7.303
26283SOL    HW180688   2.552   9.349   7.289
26283SOL    HW280689   2.572   9.480   7.216
26284SOL     OW80690  11.453   0.424   5.532
26284SOL    HW180691  11.472   0.507   5.577
26284SOL    HW280692  11.531   0.408   5.479
26285SOL     OW80693  11.208   7.641  12.423
26285SOL    HW180694  11.296   7.641  12.387
26285SOL    HW280695  11.189   7.733  12.442
26286SOL     OW80696   3.861  13.899   2.840
26286SOL    HW180697   3.953  13.913   2.864
26286SOL    HW280698   3.836  13.978   2.792
26287SOL     OW80699   9.445  11.155   9.064
26287SOL    HW180700   9.360  11.188   9.094
26287SOL    HW280701   9.474  11.219   8.999
26288SOL     OW80702   0.714   2.029   4.409
26288SOL    HW180703   0.717   2.108   4.355
26288SOL    HW280704   0.797   2.030   4.457
26289SOL     OW80705  14.430   1.895   8.883
26289SOL    HW180706  14.359   1.955   8.861
26289SOL    HW280707  14.407   1.814   8.837
26290SOL     OW80708  13.788   8.863  13.045
26290SOL    HW180709  13.855   8.882  13.111
26290SOL    HW280710  13.836   8.818  12.975
26291SOL     OW80711   0.206   8.895   8.488
26291SOL    HW180712   0.234   8.823   8.544
26291SOL    HW280713   0.268   8.965   8.505
26292SOL     OW80714   6.134  12.403   6.397
26292SOL    HW180715   6.125  12.470   6.465
26292SOL    HW280716   6.052  12.409   6.347
26293SOL     OW80717  11.468   1.488  11.064
26293SOL    HW180718  11.513   1.570  11.085
26293SOL    HW280719  11.399   1.481  11.130
26294SOL     OW80720   5.444   2.985   3.579
26294SOL    HW180721   5.477   3.066   3.539
26294SOL    HW280722   5.514   2.921   3.566
26295SOL     OW80723  12.742   7.958   6.401
26295SOL    HW180724  12.768   8.032   6.456
26295SOL    HW280725  12.647   7.966   6.392
26296SOL     OW80726   4.682   8.983  12.119
26296SOL    HW180727   4.626   9.024  12.053
26296SOL    HW280728   4.739   9.054  12.149
26297SOL     OW80729   4.524   2.058   6.048
26297SOL    HW180730   4.514   1.995   6.119
26297SOL    HW280731   4.526   2.143   6.092
26298SOL     OW80732  11.712  14.025  12.016
26298SOL    HW180733  11.657  14.052  12.090
26298SOL    HW280734  11.652  13.981  11.956
26299SOL     OW80735   8.884   6.016  14.241
26299SOL    HW180736   8.952   6.045  14.302
26299SOL    HW280737   8.913   5.930  14.211
26300SOL     OW80738   2.169   6.508   3.450
26300SOL    HW180739   2.138   6.589   3.491
26300SOL    HW280740   2.089   6.461   3.425
26301SOL     OW80741   7.014   2.984   8.424
26301SOL    HW180742   7.081   2.938   8.475
26301SOL    HW280743   6.991   3.060   8.478
26302SOL     OW80744   6.316  10.145  12.349
26302SOL    HW180745   6.345  10.090  12.422
26302SOL    HW280746   6.308  10.233  12.387
26303SOL     OW80747   4.109  14.171  10.230
26303SOL    HW180748   4.199  14.140  10.232
26303SOL    HW280749   4.113  14.256  10.187
26304SOL     OW80750  12.010  14.784  12.443
26304SOL    HW180751  11.922  14.819  12.460
26304SOL    HW280752  11.995  14.692  12.422
26305SOL     OW80753   4.779   3.217   6.536
26305SOL    HW180754   4.810   3.186   6.451
26305SOL    HW280755   4.726   3.294   6.515
26306SOL     OW80756   1.921   6.905  12.080
26306SOL    HW180757   1.825   6.899  12.081
26306SOL    HW280758   1.939   6.992  12.045
26307SOL     OW80759   6.189   4.729   2.861
26307SOL    HW180760   6.151   4.816   2.872
26307SOL    HW280761   6.265   4.728   2.919
26308SOL     OW80762   2.790   6.621   6.382
26308SOL    HW180763   2.721   6.558   6.405
26308SOL    HW280764   2.770   6.698   6.434
26309SOL     OW80765  12.759   6.259   9.513
26309SOL    HW180766  12.772   6.239   9.420
26309SOL    HW280767  12.800   6.344   9.525
26310SOL     OW80768   0.155   1.415   1.714
26310SOL    HW180769   0.080   1.474   1.723
26310SOL    HW280770   0.219   1.465   1.664
26311SOL     OW80771   8.028  12.407   5.140
26311SOL    HW180772   7.945  12.363   5.157
26311SOL    HW280773   8.007  12.500   5.144
26312SOL     OW80774   3.040  13.930  11.142
26312SOL    HW180775   3.063  13.998  11.205
26312SOL    HW280776   2.944  13.927  11.145
26313SOL     OW80777   2.080  11.586   4.262
26313SOL    HW180778   2.129  11.614   4.184
26313SOL    HW280779   2.146  11.546   4.318
26314SOL     OW80780   6.375   1.117   9.907
26314SOL    HW180781   6.335   1.031   9.921
26314SOL    HW280782   6.448   1.119   9.968
26315SOL     OW80783  12.248   5.909   2.526
26315SOL    HW180784  12.175   5.927   2.467
26315SOL    HW280785  12.305   5.851   2.475
26316SOL     OW80786   0.501   8.059  11.763
26316SOL    HW180787   0.504   8.149  11.731
26316SOL    HW280788   0.571   8.053  11.827
26317SOL     OW80789   0.212  14.232  13.509
26317SOL    HW180790   0.119  14.223  13.532
26317SOL    HW280791   0.256  14.171  13.568
26318SOL     OW80792  10.001   2.563   9.435
26318SOL    HW180793  10.032   2.650   9.412
26318SOL    HW280794   9.969   2.571   9.525
26319SOL     OW80795   2.278   8.103   7.054
26319SOL    HW180796   2.364   8.065   7.036
26319SOL    HW280797   2.247   8.133   6.969
26320SOL     OW80798  10.832  14.300   4.420
26320SOL    HW180799  10.894  14.372   4.404
26320SOL    HW280800  10.887  14.230   4.455
26321SOL     OW80801  10.217  11.883   4.002
26321SOL    HW180802  10.279  11.812   4.016
26321SOL    HW280803  10.222  11.901   3.908
26322SOL     OW80804  13.497  12.885  10.342
26322SOL    HW180805  13.433  12.943  10.384
26322SOL    HW280806  13.582  12.924  10.363
26323SOL     OW80807   1.979   8.955   2.807
26323SOL    HW180808   2.053   8.997   2.850
26323SOL    HW280809   1.931   8.912   2.878
26324SOL     OW80810  10.317   3.711   7.757
26324SOL    HW180811  10.258   3.768   7.805
26324SOL    HW280812  10.405   3.740   7.782
26325SOL     OW80813   5.903   7.438   7.004
26325SOL    HW180814   5.960   7.485   7.065
26325SOL    HW280815   5.847   7.506   6.967
26326SOL     OW80816   1.448   0.449   3.053
26326SOL    HW180817   1.499   0.440   3.134
26326SOL    HW280818   1.410   0.362   3.040
26327SOL     OW80819  11.709  14.673   5.874
26327SOL    HW180820  11.798  14.685   5.907
26327SOL    HW280821  11.707  14.720   5.791
26328SOL     OW80822   5.524   6.637  10.809
26328SOL    HW180823   5.580   6.710  10.833
26328SOL    HW280824   5.570   6.593  10.738
26329SOL     OW80825   1.303   4.052   5.003
26329SOL    HW180826   1.256   4.134   4.987
26329SOL    HW280827   1.384   4.080   5.047
26330SOL     OW80828  10.954   1.136   9.791
26330SOL    HW180829  10.874   1.149   9.842
26330SOL    HW280830  10.971   1.042   9.795
26331SOL     OW80831  12.274   1.473   9.708
26331SOL    HW180832  12.178   1.483   9.712
26331SOL    HW280833  12.296   1.496   9.617
26332SOL     OW80834  12.637   7.312   9.158
26332SOL    HW180835  12.667   7.226   9.187
26332SOL    HW280836  12.689   7.330   9.080
26333SOL     OW80837   5.596  14.248   6.897
26333SOL    HW180838   5.658  14.246   6.970
26333SOL    HW280839   5.520  14.295   6.931
26334SOL     OW80840  14.358  10.961  13.940
26334SOL    HW180841  14.435  10.984  13.993
26334SOL    HW280842  14.337  10.871  13.965
26335SOL     OW80843   1.524  12.388  14.323
26335SOL    HW180844   1.475  12.383  14.405
26335SOL    HW280845   1.458  12.400  14.255
26336SOL     OW80846   8.355  11.655   5.215
26336SOL    HW180847   8.428  11.705   5.177
26336SOL    HW280848   8.362  11.671   5.309
26337SOL     OW80849   8.159  12.540   0.258
26337SOL    HW180850   8.205  12.564   0.338
26337SOL    HW280851   8.224  12.494   0.205
26338SOL     OW80852   6.670  12.787   0.721
26338SOL    HW180853   6.644  12.717   0.780
26338SOL    HW280854   6.591  12.808   0.671
26339SOL     OW80855   5.958  13.330   6.998
26339SOL    HW180856   5.875  13.376   7.005
26339SOL    HW280857   5.980  13.306   7.088
26340SOL     OW80858  11.437   8.835   4.141
26340SOL    HW180859  11.405   8.915   4.100
26340SOL    HW280860  11.467   8.863   4.227
26341SOL     OW80861  12.934  10.669   6.353
26341SOL    HW180862  12.982  10.629   6.280
26341SOL    HW280863  12.977  10.635   6.431
26342SOL     OW80864  10.020  13.565   6.258
26342SOL    HW180865  10.114  13.565   6.276
26342SOL    HW280866  10.009  13.505   6.185
26343SOL     OW80867   3.693   8.628   9.486
26343SOL    HW180868   3.771   8.621   9.542
26343SOL    HW280869   3.635   8.559   9.517
26344SOL     OW80870  13.162  12.531  10.155
26344SOL    HW180871  13.242  12.583  10.165
26344SOL    HW280872  13.102  12.566  10.221
26345SOL     OW80873   4.625   7.504  12.350
26345SOL    HW180874   4.710   7.474  12.382
26345SOL    HW280875   4.591   7.560  12.420
26346SOL     OW80876   7.421   6.290   6.624
26346SOL    HW180877   7.510   6.322   6.639
26346SOL    HW280878   7.397   6.326   6.539
26347SOL     OW80879   1.227   1.298   7.511
26347SOL    HW180880   1.186   1.308   7.597
26347SOL    HW280881   1.165   1.339   7.450
26348SOL     OW80882  12.109  12.256   9.817
26348SOL    HW180883  12.073  12.173   9.848
26348SOL    HW280884  12.181  12.231   9.760
26349SOL     OW80885   7.333   1.402  13.305
26349SOL    HW180886   7.392   1.405  13.381
26349SOL    HW280887   7.276   1.328  13.322
26350SOL     OW80888   1.369   2.475   8.130
26350SOL    HW180889   1.328   2.485   8.215
26350SOL    HW280890   1.463   2.480   8.147
26351SOL     OW80891   3.882   1.538   8.614
26351SOL    HW180892   3.971   1.525   8.648
26351SOL    HW280893   3.892   1.538   8.519
26352SOL     OW80894  11.541   4.340   7.161
26352SOL    HW180895  11.578   4.416   7.115
26352SOL    HW280896  11.500   4.377   7.239
26353SOL     OW80897   3.855   7.986   8.264
26353SOL    HW180898   3.796   7.916   8.290
26353SOL    HW280899   3.906   8.005   8.343
26354SOL     OW80900   8.750   8.643   5.707
26354SOL    HW180901   8.706   8.711   5.656
26354SOL    HW280902   8.804   8.691   5.769
26355SOL     OW80903   2.914   1.293   3.810
26355SOL    HW180904   2.849   1.285   3.879
26355SOL    HW280905   2.863   1.315   3.732
26356SOL     OW80906  12.937   8.237   4.413
26356SOL    HW180907  13.008   8.296   4.440
26356SOL    HW280908  12.885   8.224   4.493
26357SOL     OW80909  12.737   5.352  14.869
26357SOL    HW180910  12.744   5.397  14.785
26357SOL    HW280911  12.645   5.358   0.020
26358SOL     OW80912   3.363   6.279   9.653
26358SOL    HW180913   3.302   6.295   9.724
26358SOL    HW280914   3.382   6.186   9.657
26359SOL     OW80915   7.900  11.884   9.949
26359SOL    HW180916   7.958  11.808   9.949
26359SOL    HW280917   7.812  11.848   9.950
26360SOL     OW80918   8.538   2.412   7.318
26360SOL    HW180919   8.479   2.464   7.263
26360SOL    HW280920   8.613   2.469   7.334
26361SOL     OW80921  11.063   7.949   1.298
26361SOL    HW180922  11.009   8.020   1.263
26361SOL    HW280923  11.056   7.879   1.233
26362SOL     OW80924   5.687   8.551   3.777
26362SOL    HW180925   5.711   8.643   3.764
26362SOL    HW280926   5.594   8.553   3.797
26363SOL     OW80927   4.778   7.350  13.496
26363SOL    HW180928   4.786   7.374  13.404
26363SOL    HW280929   4.838   7.409  13.541
26364SOL     OW80930   1.527   7.014   9.890
26364SOL    HW180931   1.434   7.033   9.904
26364SOL    HW280932   1.539   6.925   9.923
26365SOL     OW80933  13.810  14.640   3.837
26365SOL    HW180934  13.871  14.685   3.895
26365SOL    HW280935  13.838  14.548   3.840
26366SOL     OW80936  10.318   1.870   2.012
26366SOL    HW180937  10.253   1.877   2.081
26366SOL    HW280938  10.279   1.810   1.948
26367SOL     OW80939  12.865   8.589  12.208
26367SOL    HW180940  12.774   8.590  12.239
26367SOL    HW280941  12.916   8.610  12.286
26368SOL     OW80942   5.922   2.589  14.130
26368SOL    HW180943   5.997   2.648  14.126
26368SOL    HW280944   5.958   2.503  14.107
26369SOL     OW80945   9.507   5.443  12.782
26369SOL    HW180946   9.560   5.420  12.859
26369SOL    HW280947   9.419   5.413  12.803
26370SOL     OW80948   8.190   5.040  12.676
26370SOL    HW180949   8.113   5.015  12.727
26370SOL    HW280950   8.199   4.971  12.611
26371SOL     OW80951   4.508  12.327   3.681
26371SOL    HW180952   4.430  12.311   3.628
26371SOL    HW280953   4.476  12.328   3.771
26372SOL     OW80954  12.791   2.762   5.092
26372SOL    HW180955  12.744   2.698   5.146
26372SOL    HW280956  12.755   2.847   5.118
26373SOL     OW80957   2.336   4.783  12.217
26373SOL    HW180958   2.378   4.833  12.288
26373SOL    HW280959   2.372   4.695  12.225
26374SOL     OW80960   2.417  14.787   8.354
26374SOL    HW180961   2.331  14.751   8.335
26374SOL    HW280962   2.477  14.712   8.350
26375SOL     OW80963  13.861   0.968   0.776
26375SOL    HW180964  13.831   0.899   0.836
26375SOL    HW280965  13.828   0.941   0.691
26376SOL     OW80966  11.026   3.766  10.713
26376SOL    HW180967  10.997   3.675  10.715
26376SOL    HW280968  11.115   3.763  10.750
26377SOL     OW80969   6.882  12.720   0.535
26377SOL    HW180970   6.854  12.633   0.506
26377SOL    HW280971   6.811  12.751   0.591
26378SOL     OW80972   5.995   0.136   7.090
26378SOL    HW180973   6.028   0.187   7.016
26378SOL    HW280974   6.007   0.045   7.064
26379SOL     OW80975  11.113   7.954  10.281
26379SOL    HW180976  11.192   7.923  10.237
26379SOL    HW280977  11.076   8.018  10.220
26380SOL     OW80978   6.275   6.587   6.095
26380SOL    HW180979   6.326   6.658   6.136
26380SOL    HW280980   6.281   6.605   6.001
26381SOL     OW80981   3.592   3.234  14.761
26381SOL    HW180982   3.676   3.243  14.717
26381SOL    HW280983   3.588   3.307  14.822
26382SOL     OW80984   7.540   0.243  13.275
26382SOL    HW180985   7.463   0.248  13.331
26382SOL    HW280986   7.523   0.170  13.216
26383SOL     OW80987   8.412  10.991  10.225
26383SOL    HW180988   8.478  11.051  10.189
26383SOL    HW280989   8.461  10.914  10.251
26384SOL     OW80990  14.150   4.499   3.830
26384SOL    HW180991  14.178   4.465   3.915
26384SOL    HW280992  14.086   4.435   3.799
26385SOL     OW80993   1.383  11.314   7.016
26385SOL    HW180994   1.475  11.338   7.030
26385SOL    HW280995   1.385  11.261   6.937
26386SOL     OW80996   3.085   4.308  13.531
26386SOL    HW180997   3.095   4.337  13.441
26386SOL    HW280998   2.990   4.299  13.543
26387SOL     OW80999  14.088   6.559   9.650
26387SOL    HW181000  14.106   6.651   9.669
26387SOL    HW281001  14.114   6.512   9.730
26388SOL     OW81002   7.610   9.914   2.521
26388SOL    HW181003   7.635   9.993   2.474
26388SOL    HW281004   7.521   9.932   2.551
26389SOL     OW81005  10.605   2.132   2.403
26389SOL    HW181006  10.529   2.139   2.460
26389SOL    HW281007  10.680   2.143   2.461
26390SOL     OW81008  13.877   6.768  12.492
26390SOL    HW181009  13.880   6.842  12.552
26390SOL    HW281010  13.791   6.775  12.450
26391SOL     OW81011  14.139   2.621   4.775
26391SOL    HW181012  14.053   2.659   4.796
26391SOL    HW281013  14.197   2.697   4.766
26392SOL     OW81014   0.458   2.478   3.307
26392SOL    HW181015   0.485   2.388   3.292
26392SOL    HW281016   0.481   2.525   3.227
26393SOL     OW81017  14.770   3.375  10.820
26393SOL    HW181018  14.734   3.447  10.873
26393SOL    HW281019  14.820   3.419  10.751
26394SOL     OW81020   6.724   7.637   4.036
26394SOL    HW181021   6.737   7.622   4.129
26394SOL    HW281022   6.698   7.551   4.001
26395SOL     OW81023  10.157   9.995   0.609
26395SOL    HW181024  10.144   9.901   0.618
26395SOL    HW281025  10.095  10.034   0.671
26396SOL     OW81026  11.796   3.224  13.157
26396SOL    HW181027  11.855   3.195  13.087
26396SOL    HW281028  11.853   3.237  13.232
26397SOL     OW81029  10.612   8.854  10.894
26397SOL    HW181030  10.701   8.860  10.860
26397SOL    HW281031  10.589   8.762  10.884
26398SOL     OW81032  11.901  13.212   9.330
26398SOL    HW181033  11.820  13.260   9.350
26398SOL    HW281034  11.970  13.261   9.375
26399SOL     OW81035   4.878  13.019   8.492
26399SOL    HW181036   4.950  12.986   8.546
26399SOL    HW281037   4.871  13.111   8.515
26400SOL     OW81038   6.796   6.456   4.889
26400SOL    HW181039   6.887   6.441   4.863
26400SOL    HW281040   6.752   6.482   4.808
26401SOL     OW81041   9.490   1.491  11.705
26401SOL    HW181042   9.399   1.518  11.716
26401SOL    HW281043   9.525   1.550  11.638
26402SOL     OW81044   8.149   6.035   5.954
26402SOL    HW181045   8.061   6.065   5.978
26402SOL    HW281046   8.164   5.958   6.009
26403SOL     OW81047  10.555  12.935  12.248
26403SOL    HW181048  10.624  12.951  12.313
26403SOL    HW281049  10.576  12.995  12.176
26404SOL     OW81050   5.832  13.478   2.136
26404SOL    HW181051   5.821  13.412   2.068
26404SOL    HW281052   5.926  13.498   2.135
26405SOL     OW81053   8.816   5.837  12.429
26405SOL    HW181054   8.800   5.920  12.475
26405SOL    HW281055   8.755   5.838  12.355
26406SOL     OW81056  10.715  12.522   2.747
26406SOL    HW181057  10.697  12.450   2.807
26406SOL    HW281058  10.777  12.578   2.795
26407SOL     OW81059  13.034   9.630   8.518
26407SOL    HW181060  13.101   9.599   8.580
26407SOL    HW281061  13.040   9.725   8.521
26408SOL     OW81062   9.354   3.139   6.562
26408SOL    HW181063   9.448   3.125   6.556
26408SOL    HW281064   9.315   3.053   6.548
26409SOL     OW81065  14.167   8.027  13.964
26409SOL    HW181066  14.219   8.097  14.004
26409SOL    HW281067  14.232   7.967  13.928
26410SOL     OW81068  11.291  12.644  12.003
26410SOL    HW181069  11.273  12.724  11.955
26410SOL    HW281070  11.347  12.593  11.945
26411SOL     OW81071   1.186   5.094  11.847
26411SOL    HW181072   1.244   5.075  11.920
26411SOL    HW281073   1.147   5.009  11.825
26412SOL     OW81074   2.208   7.808  11.430
26412SOL    HW181075   2.258   7.728  11.451
26412SOL    HW281076   2.207   7.810  11.334
26413SOL     OW81077  10.807   7.488   1.073
26413SOL    HW181078  10.805   7.394   1.056
26413SOL    HW281079  10.888   7.501   1.124
26414SOL     OW81080   0.564   7.989   1.694
26414SOL    HW181081   0.478   7.951   1.674
26414SOL    HW281082   0.585   8.040   1.616
26415SOL     OW81083  12.083  11.973   1.118
26415SOL    HW181084  11.987  11.976   1.113
26415SOL    HW281085  12.110  11.959   1.027
26416SOL     OW81086   5.568   8.372  11.838
26416SOL    HW181087   5.631   8.322  11.786
26416SOL    HW281088   5.486   8.325  11.827
26417SOL     OW81089   5.724   5.245  12.682
26417SOL    HW181090   5.710   5.152  12.662
26417SOL    HW281091   5.734   5.286  12.596
26418SOL     OW81092   0.791  13.346  11.213
26418SOL    HW181093   0.787  13.424  11.268
26418SOL    HW281094   0.794  13.380  11.123
26419SOL     OW81095   3.441   6.298   5.565
26419SOL    HW181096   3.365   6.352   5.542
26419SOL    HW281097   3.411   6.246   5.639
26420SOL     OW81098   4.228   1.602  11.332
26420SOL    HW181099   4.282   1.611  11.253
26420SOL    HW281100   4.273   1.536  11.384
26421SOL     OW81101   8.531   2.795  14.151
26421SOL    HW181102   8.497   2.883  14.163
26421SOL    HW281103   8.482   2.741  14.213
26422SOL     OW81104  14.077   7.587  14.417
26422SOL    HW181105  14.160   7.550  14.388
26422SOL    HW281106  14.081   7.678  14.389
26423SOL     OW81107   9.928  10.631   4.732
26423SOL    HW181108   9.872  10.709   4.734
26423SOL    HW281109  10.013  10.663   4.704
26424SOL     OW81110   3.127   7.556   3.482
26424SOL    HW181111   3.168   7.512   3.557
26424SOL    HW281112   3.053   7.501   3.458
26425SOL     OW81113   7.706   4.694  13.770
26425SOL    HW181114   7.763   4.728  13.700
26425SOL    HW281115   7.640   4.762  13.782
26426SOL     OW81116  12.475   5.780   2.424
26426SOL    HW181117  12.476   5.851   2.361
26426SOL    HW281118  12.504   5.703   2.375
26427SOL     OW81119  14.067   8.984  13.215
26427SOL    HW181120  14.103   9.033  13.141
26427SOL    HW281121  14.065   8.893  13.185
26428SOL     OW81122  11.825   5.576  11.559
26428SOL    HW181123  11.837   5.592  11.652
26428SOL    HW281124  11.730   5.575  11.546
26429SOL     OW81125  14.239   6.173  14.590
26429SOL    HW181126  14.270   6.118  14.662
26429SOL    HW281127  14.188   6.242  14.632
26430SOL     OW81128  13.397   4.559  10.821
26430SOL    HW181129  13.380   4.628  10.757
26430SOL    HW281130  13.400   4.604  10.905
26431SOL     OW81131   7.811  13.919   8.927
26431SOL    HW181132   7.758  13.980   8.876
26431SOL    HW281133   7.747  13.860   8.967
26432SOL     OW81134   2.190   2.979  10.474
26432SOL    HW181135   2.247   2.927  10.418
26432SOL    HW281136   2.101   2.948  10.455
26433SOL     OW81137  14.734  12.936   9.817
26433SOL    HW181138  14.808  12.996   9.824
26433SOL    HW281139  14.769  12.851   9.842
26434SOL     OW81140   0.384   9.656  13.121
26434SOL    HW181141   0.410   9.638  13.031
26434SOL    HW281142   0.289   9.652  13.121
26435SOL     OW81143   2.872   7.984  12.960
26435SOL    HW181144   2.965   7.964  12.975
26435SOL    HW281145   2.829   7.898  12.957
26436SOL     OW81146   6.474   8.908   6.769
26436SOL    HW181147   6.546   8.929   6.828
26436SOL    HW281148   6.421   8.988   6.766
26437SOL     OW81149  10.717   6.727   6.995
26437SOL    HW181150  10.713   6.804   6.939
26437SOL    HW281151  10.654   6.745   7.065
26438SOL     OW81152  14.845   9.250   4.153
26438SOL    HW181153   0.022   9.322   4.114
26438SOL    HW281154   0.036   9.181   4.167
26439SOL     OW81155  10.676   3.887   1.906
26439SOL    HW181156  10.722   3.848   1.981
26439SOL    HW281157  10.671   3.816   1.842
26440SOL     OW81158   1.358   3.652   9.206
26440SOL    HW181159   1.303   3.593   9.258
26440SOL    HW281160   1.314   3.658   9.121
26441SOL     OW81161   3.689  14.490   3.700
26441SOL    HW181162   3.740  14.412   3.721
26441SOL    HW281163   3.615  14.457   3.650
26442SOL     OW81164  12.062   0.947   8.971
26442SOL    HW181165  12.147   0.963   8.930
26442SOL    HW281166  12.045   1.027   9.021
26443SOL     OW81167   8.591   8.406  12.674
26443SOL    HW181168   8.521   8.341  12.675
26443SOL    HW281169   8.653   8.376  12.741
26444SOL     OW81170   5.106   0.634  10.433
26444SOL    HW181171   5.125   0.540  10.428
26444SOL    HW281172   5.192   0.674  10.449
26445SOL     OW81173   1.215   0.350   3.363
26445SOL    HW181174   1.184   0.321   3.278
26445SOL    HW281175   1.136   0.383   3.407
26446SOL     OW81176   7.168   7.863   1.838
26446SOL    HW181177   7.199   7.814   1.914
26446SOL    HW281178   7.073   7.856   1.841
26447SOL     OW81179   7.030   6.429  14.234
26447SOL    HW181180   7.033   6.497  14.301
26447SOL    HW281181   7.063   6.351  14.278
26448SOL     OW81182  12.774  11.981  10.485
26448SOL    HW181183  12.789  11.910  10.422
26448SOL    HW281184  12.839  11.968  10.553
26449SOL     OW81185   3.997  12.991   5.070
26449SOL    HW181186   3.936  13.032   5.131
26449SOL    HW281187   4.071  13.051   5.067
26450SOL     OW81188  14.588  10.403  14.360
26450SOL    HW181189  14.638  10.348  14.420
26450SOL    HW281190  14.644  10.479  14.345
26451SOL     OW81191   6.793  12.417   4.650
26451SOL    HW181192   6.770  12.500   4.609
26451SOL    HW281193   6.730  12.407   4.721
26452SOL     OW81194   1.049   2.963   7.423
26452SOL    HW181195   0.961   2.933   7.400
26452SOL    HW281196   1.102   2.884   7.427
26453SOL     OW81197   0.336   9.283   0.588
26453SOL    HW181198   0.423   9.257   0.620
26453SOL    HW281199   0.299   9.333   0.660
26454SOL     OW81200   7.842  10.539   3.340
26454SOL    HW181201   7.907  10.594   3.295
26454SOL    HW281202   7.884  10.515   3.422
26455SOL     OW81203  10.032   1.869   7.610
26455SOL    HW181204   9.947   1.866   7.566
26455SOL    HW281205  10.095   1.838   7.545
26456SOL     OW81206  11.171  13.868  11.980
26456SOL    HW181207  11.237  13.802  12.004
26456SOL    HW281208  11.116  13.824  11.915
26457SOL     OW81209  13.468  10.256   3.177
26457SOL    HW181210  13.380  10.289   3.163
26457SOL    HW281211  13.503  10.307   3.250
26458SOL     OW81212   1.245   3.966   8.588
26458SOL    HW181213   1.335   3.955   8.618
26458SOL    HW281214   1.252   4.025   8.513
26459SOL     OW81215  10.917   4.995   2.432
26459SOL    HW181216  10.968   5.037   2.501
26459SOL    HW281217  10.829   5.030   2.443
26460SOL     OW81218   1.828   2.545   0.986
26460SOL    HW181219   1.857   2.595   1.063
26460SOL    HW281220   1.816   2.456   1.019
26461SOL     OW81221   4.212  13.374  14.708
26461SOL    HW181222   4.177  13.407  14.625
26461SOL    HW281223   4.139  13.326  14.747
26462SOL     OW81224   9.168   8.519   7.444
26462SOL    HW181225   9.261   8.533   7.466
26462SOL    HW281226   9.130   8.485   7.525
26463SOL     OW81227   3.477   0.041  14.260
26463SOL    HW181228   3.449   0.130  14.242
26463SOL    HW281229   3.538   0.020  14.189
26464SOL     OW81230   5.724   4.557   3.560
26464SOL    HW181231   5.686   4.481   3.603
26464SOL    HW281232   5.752   4.613   3.632
26465SOL     OW81233  11.823  11.429  11.470
26465SOL    HW181234  11.887  11.387  11.412
26465SOL    HW281235  11.806  11.362  11.537
26466SOL     OW81236   1.791  13.489   2.590
26466SOL    HW181237   1.844  13.566   2.569
26466SOL    HW281238   1.830  13.418   2.539
26467SOL     OW81239   1.260   4.651   2.153
26467SOL    HW181240   1.165   4.643   2.156
26467SOL    HW281241   1.290   4.617   2.237
26468SOL     OW81242   2.646   4.076  14.629
26468SOL    HW181243   2.567   4.103  14.676
26468SOL    HW281244   2.689   4.159  14.605
26469SOL     OW81245  14.136   8.451  13.890
26469SOL    HW181246  14.194   8.513  13.845
26469SOL    HW281247  14.059   8.504  13.913
26470SOL     OW81248  13.303  14.626  13.286
26470SOL    HW181249  13.346  14.708  13.264
26470SOL    HW281250  13.221  14.628  13.237
26471SOL     OW81251   3.691  14.652   8.929
26471SOL    HW181252   3.746  14.708   8.874
26471SOL    HW281253   3.752  14.613   8.992
26472SOL     OW81254  12.391   1.071  10.402
26472SOL    HW181255  12.303   1.035  10.387
26472SOL    HW281256  12.390   1.156  10.356
26473SOL     OW81257   2.124   9.635   4.747
26473SOL    HW181258   2.032   9.651   4.770
26473SOL    HW281259   2.173   9.698   4.800
26474SOL     OW81260   3.973   3.995   1.495
26474SOL    HW181261   4.058   4.026   1.463
26474SOL    HW281262   3.911   4.063   1.467
26475SOL     OW81263  13.442  10.423   6.703
26475SOL    HW181264  13.526  10.431   6.749
26475SOL    HW281265  13.390  10.364   6.757
26476SOL     OW81266   1.060   1.922   1.936
26476SOL    HW181267   1.037   1.832   1.956
26476SOL    HW281268   1.111   1.951   2.012
26477SOL     OW81269   8.653  13.449  14.219
26477SOL    HW181270   8.668  13.355  14.228
26477SOL    HW281271   8.704  13.473  14.141
26478SOL     OW81272   5.960   0.964   8.895
26478SOL    HW181273   6.042   0.963   8.944
26478SOL    HW281274   5.954   0.876   8.859
26479SOL     OW81275   8.348  10.846   1.362
26479SOL    HW181276   8.442  10.851   1.379
26479SOL    HW281277   8.337  10.768   1.308
26480SOL     OW81278  13.440   9.698   1.551
26480SOL    HW181279  13.461   9.635   1.621
26480SOL    HW281280  13.503   9.768   1.562
26481SOL     OW81281  10.288   1.027   0.747
26481SOL    HW181282  10.200   1.058   0.728
26481SOL    HW281283  10.346   1.097   0.718
26482SOL     OW81284  10.937   1.511  14.048
26482SOL    HW181285  10.860   1.564  14.025
26482SOL    HW281286  10.913   1.422  14.022
26483SOL     OW81287  13.778   5.660   6.001
26483SOL    HW181288  13.820   5.578   6.026
26483SOL    HW281289  13.767   5.654   5.906
26484SOL     OW81290   1.708   2.322  13.926
26484SOL    HW181291   1.653   2.357  13.996
26484SOL    HW281292   1.700   2.385  13.855
26485SOL     OW81293  13.147   6.522   1.925
26485SOL    HW181294  13.077   6.585   1.906
26485SOL    HW281295  13.228   6.569   1.905
26486SOL     OW81296  10.423  10.534   7.666
26486SOL    HW181297  10.434  10.464   7.602
26486SOL    HW281298  10.479  10.508   7.739
26487SOL     OW81299   3.762   3.830  14.752
26487SOL    HW181300   3.669   3.833  14.774
26487SOL    HW281301   3.763   3.817  14.657
26488SOL     OW81302  10.424  14.151   5.262
26488SOL    HW181303  10.435  14.068   5.307
26488SOL    HW281304  10.512  14.174   5.232
26489SOL     OW81305  11.584   1.703  11.730
26489SOL    HW181306  11.494   1.731  11.746
26489SOL    HW281307  11.589   1.616  11.770
26490SOL     OW81308  14.679  12.796   3.214
26490SOL    HW181309  14.589  12.781   3.245
26490SOL    HW281310  14.685  12.891   3.203
26491SOL     OW81311   3.094   3.188   0.802
26491SOL    HW181312   3.157   3.184   0.730
26491SOL    HW281313   3.008   3.188   0.759
26492SOL     OW81314  10.096  11.782  12.102
26492SOL    HW181315  10.070  11.725  12.174
26492SOL    HW281316  10.014  11.819  12.070
26493SOL     OW81317   6.030   8.004   9.166
26493SOL    HW181318   5.997   7.960   9.087
26493SOL    HW281319   6.058   8.090   9.135
26494SOL     OW81320  12.629   3.788  14.184
26494SOL    HW181321  12.545   3.831  14.169
26494SOL    HW281322  12.620   3.702  14.144
26495SOL     OW81323   1.905   3.173   2.900
26495SOL    HW181324   1.923   3.209   2.986
26495SOL    HW281325   1.824   3.216   2.872
26496SOL     OW81326   9.776   0.750  12.079
26496SOL    HW181327   9.829   0.764  12.157
26496SOL    HW281328   9.820   0.681  12.031
26497SOL     OW81329   8.204  12.913   6.324
26497SOL    HW181330   8.160  12.870   6.250
26497SOL    HW281331   8.296  12.889   6.313
26498SOL     OW81332   6.226   6.383   2.063
26498SOL    HW181333   6.150   6.399   2.007
26498SOL    HW281334   6.191   6.334   2.138
26499SOL     OW81335  13.211   1.620  13.796
26499SOL    HW181336  13.217   1.608  13.701
26499SOL    HW281337  13.300   1.603  13.828
26500SOL     OW81338  13.741  13.829   5.844
26500SOL    HW181339  13.826  13.828   5.888
26500SOL    HW281340  13.744  13.754   5.785
26501SOL     OW81341   8.709  14.416   4.087
26501SOL    HW181342   8.783  14.470   4.061
26501SOL    HW281343   8.715  14.409   4.182
26502SOL     OW81344   4.905   0.222  14.327
26502SOL    HW181345   4.995   0.192  14.342
26502SOL    HW281346   4.900   0.306  14.373
26503SOL     OW81347   4.341  14.085  10.580
26503SOL    HW181348   4.403  14.088  10.507
26503SOL    HW281349   4.263  14.131  10.548
26504SOL     OW81350  10.578   4.480   7.577
26504SOL    HW181351  10.657   4.532   7.588
26504SOL    HW281352  10.592   4.431   7.496
26505SOL     OW81353   5.717  10.930   5.869
26505SOL    HW181354   5.664  10.933   5.949
26505SOL    HW281355   5.786  10.994   5.885
26506SOL     OW81356  11.752  14.602   1.926
26506SOL    HW181357  11.802  14.559   1.996
26506SOL    HW281358  11.813  14.666   1.889
26507SOL     OW81359   0.380  12.479  10.320
26507SOL    HW181360   0.358  12.476  10.413
26507SOL    HW281361   0.387  12.387  10.294
26508SOL     OW81362   4.707  10.719  14.062
26508SOL    HW181363   4.692  10.704  13.969
26508SOL    HW281364   4.770  10.652  14.087
26509SOL     OW81365   9.828   1.325   8.561
26509SOL    HW181366   9.822   1.402   8.618
26509SOL    HW281367   9.762   1.265   8.596
26510SOL     OW81368   3.950   4.019   7.006
26510SOL    HW181369   3.987   3.940   7.047
26510SOL    HW281370   3.868   4.034   7.053
26511SOL     OW81371  12.195   1.733   6.035
26511SOL    HW181372  12.150   1.696   6.111
26511SOL    HW281373  12.137   1.803   6.005
26512SOL     OW81374  14.245   0.535   7.051
26512SOL    HW181375  14.268   0.622   7.084
26512SOL    HW281376  14.324   0.507   7.004
26513SOL     OW81377   4.031  13.840   8.095
26513SOL    HW181378   4.077  13.921   8.073
26513SOL    HW281379   3.952  13.870   8.140
26514SOL     OW81380  14.821   8.377   2.281
26514SOL    HW181381   0.014   8.414   2.222
26514SOL    HW281382  14.739   8.384   2.232
26515SOL     OW81383   9.387   7.224   8.882
26515SOL    HW181384   9.423   7.312   8.883
26515SOL    HW281385   9.299   7.234   8.846
26516SOL     OW81386   9.272   3.317   8.072
26516SOL    HW181387   9.241   3.390   8.018
26516SOL    HW281388   9.192   3.281   8.112
26517SOL     OW81389  11.250   5.425   7.234
26517SOL    HW181390  11.177   5.438   7.295
26517SOL    HW281391  11.225   5.477   7.157
26518SOL     OW81392  12.768  10.734   5.068
26518SOL    HW181393  12.758  10.648   5.109
26518SOL    HW281394  12.860  10.737   5.042
26519SOL     OW81395   0.261   2.065   7.868
26519SOL    HW181396   0.288   2.155   7.852
26519SOL    HW281397   0.343   2.016   7.878
26520SOL     OW81398   7.574   5.706   6.593
26520SOL    HW181399   7.632   5.773   6.558
26520SOL    HW281400   7.548   5.738   6.679
26521SOL     OW81401  14.517  10.319   3.233
26521SOL    HW181402  14.544  10.283   3.148
26521SOL    HW281403  14.422  10.313   3.232
26522SOL     OW81404   8.135  10.657   4.328
26522SOL    HW181405   8.104  10.571   4.300
26522SOL    HW281406   8.168  10.697   4.248
26523SOL     OW81407  13.215   9.732   1.412
26523SOL    HW181408  13.275   9.741   1.485
26523SOL    HW281409  13.234   9.645   1.376
26524SOL     OW81410  14.360   9.538  12.483
26524SOL    HW181411  14.316   9.622  12.497
26524SOL    HW281412  14.293   9.473  12.501
26525SOL     OW81413  14.490   8.907  12.742
26525SOL    HW181414  14.519   8.820  12.713
26525SOL    HW281415  14.457   8.893  12.831
26526SOL     OW81416   4.733   0.909  10.559
26526SOL    HW181417   4.799   0.895  10.491
26526SOL    HW281418   4.674   0.834  10.551
26527SOL     OW81419   7.839   5.905  14.732
26527SOL    HW181420   7.909   5.842  14.747
26527SOL    HW281421   7.828   5.949  14.817
26528SOL     OW81422  11.801  10.372  10.738
26528SOL    HW181423  11.734  10.375  10.670
26528SOL    HW281424  11.794  10.457  10.782
26529SOL     OW81425   1.525   3.713   6.143
26529SOL    HW181426   1.461   3.658   6.188
26529SOL    HW281427   1.492   3.802   6.152
26530SOL     OW81428   7.370   9.362   6.390
26530SOL    HW181429   7.444   9.415   6.419
26530SOL    HW281430   7.409   9.285   6.350
26531SOL     OW81431   0.325   6.921   1.848
26531SOL    HW181432   0.404   6.955   1.807
26531SOL    HW281433   0.353   6.840   1.891
26532SOL     OW81434  10.710   6.989   6.934
26532SOL    HW181435  10.642   7.049   6.964
26532SOL    HW281436  10.730   7.019   6.845
26533SOL     OW81437  10.041   3.435  12.222
26533SOL    HW181438  10.089   3.365  12.178
26533SOL    HW281439  10.104   3.473  12.284
26534SOL     OW81440   3.109   0.503  10.408
26534SOL    HW181441   3.164   0.518  10.485
26534SOL    HW281442   3.133   0.415  10.379
26535SOL     OW81443   4.349   5.136  13.696
26535SOL    HW181444   4.390   5.090  13.622
26535SOL    HW281445   4.385   5.225  13.691
26536SOL     OW81446   0.606  12.038  12.066
26536SOL    HW181447   0.575  12.128  12.074
26536SOL    HW281448   0.701  12.044  12.074
26537SOL     OW81449  12.851   9.242   3.970
26537SOL    HW181450  12.756   9.250   3.979
26537SOL    HW281451  12.872   9.291   3.890
26538SOL     OW81452   6.478   7.600   8.624
26538SOL    HW181453   6.541   7.530   8.636
26538SOL    HW281454   6.505   7.668   8.686
26539SOL     OW81455  10.352   7.331   3.800
26539SOL    HW181456  10.286   7.382   3.847
26539SOL    HW281457  10.308   7.250   3.776
26540SOL     OW81458   2.150   9.788  14.552
26540SOL    HW181459   2.142   9.693  14.546
26540SOL    HW281460   2.186   9.804  14.639
26541SOL     OW81461   9.150   6.841   4.541
26541SOL    HW181462   9.175   6.930   4.564
26541SOL    HW281463   9.089   6.851   4.468
26542SOL     OW81464   1.242  10.430   1.272
26542SOL    HW181465   1.278  10.417   1.185
26542SOL    HW281466   1.179  10.502   1.262
26543SOL     OW81467  13.195   4.915   4.840
26543SOL    HW181468  13.214   4.902   4.747
26543SOL    HW281469  13.153   5.001   4.845
26544SOL     OW81470  11.913   4.715  13.437
26544SOL    HW181471  11.904   4.620  13.433
26544SOL    HW281472  11.824   4.748  13.430
26545SOL     OW81473   9.279   2.822   9.633
26545SOL    HW181474   9.281   2.763   9.708
26545SOL    HW281475   9.275   2.764   9.557
26546SOL     OW81476   6.143   7.367  10.120
26546SOL    HW181477   6.199   7.290  10.109
26546SOL    HW281478   6.094   7.350  10.201
26547SOL     OW81479   8.371   6.021   0.697
26547SOL    HW181480   8.376   6.091   0.632
26547SOL    HW281481   8.459   6.015   0.733
26548SOL     OW81482   9.777   7.626  11.165
26548SOL    HW181483   9.831   7.618  11.243
26548SOL    HW281484   9.688   7.643  11.198
26549SOL     OW81485  12.614   9.037   3.504
26549SOL    HW181486  12.605   9.034   3.600
26549SOL    HW281487  12.564   8.962   3.473
26550SOL     OW81488  10.422   2.981   4.407
26550SOL    HW181489  10.379   3.000   4.490
26550SOL    HW281490  10.465   2.897   4.421
26551SOL     OW81491   1.712   6.863   6.369
26551SOL    HW181492   1.751   6.886   6.454
26551SOL    HW281493   1.618   6.870   6.383
26552SOL     OW81494   3.584  11.333   7.592
26552SOL    HW181495   3.493  11.354   7.570
26552SOL    HW281496   3.589  11.238   7.583
26553SOL     OW81497   2.183   9.545   9.448
26553SOL    HW181498   2.257   9.605   9.454
26553SOL    HW281499   2.171   9.512   9.538
26554SOL     OW81500  11.102   5.263  12.706
26554SOL    HW181501  11.181   5.210  12.694
26554SOL    HW281502  11.063   5.268  12.619
26555SOL     OW81503   7.454   1.671   5.555
26555SOL    HW181504   7.390   1.636   5.493
26555SOL    HW281505   7.419   1.756   5.579
26556SOL     OW81506   5.885   3.228  14.785
26556SOL    HW181507   5.842   3.298  14.834
26556SOL    HW281508   5.853   3.148  14.826
26557SOL     OW81509  14.099   4.719   6.960
26557SOL    HW181510  14.122   4.628   6.944
26557SOL    HW281511  14.158   4.747   7.030
26558SOL     OW81512  10.821   4.930  11.709
26558SOL    HW181513  10.782   4.955  11.625
26558SOL    HW281514  10.915   4.943  11.696
26559SOL     OW81515  12.567  14.702   7.386
26559SOL    HW181516  12.642  14.652   7.355
26559SOL    HW281517  12.593  14.733   7.473
26560SOL     OW81518  10.633   0.570   6.567
26560SOL    HW181519  10.697   0.619   6.515
26560SOL    HW281520  10.589   0.513   6.503
26561SOL     OW81521   6.889   8.346   6.379
26561SOL    HW181522   6.808   8.396   6.381
26561SOL    HW281523   6.889   8.304   6.293
26562SOL     OW81524   6.689   2.463   2.807
26562SOL    HW181525   6.720   2.504   2.887
26562SOL    HW281526   6.695   2.369   2.824
26563SOL     OW81527  10.486  10.676  14.802
26563SOL    HW181528  10.459  10.625   0.005
26563SOL    HW281529  10.481  10.615  14.729
26564SOL     OW81530  11.098   8.873  11.013
26564SOL    HW181531  11.067   8.943  11.071
26564SOL    HW281532  11.172   8.912  10.966
26565SOL     OW81533  11.276   5.483   4.649
26565SOL    HW181534  11.251   5.542   4.578
26565SOL    HW281535  11.366   5.508   4.670
26566SOL     OW81536   0.052   3.091   4.176
26566SOL    HW181537   0.023   3.015   4.126
26566SOL    HW281538   0.145   3.099   4.156
26567SOL     OW81539   0.862  11.177   6.806
26567SOL    HW181540   0.848  11.270   6.821
26567SOL    HW281541   0.858  11.137   6.893
26568SOL     OW81542  12.143  10.034   2.513
26568SOL    HW181543  12.190   9.988   2.582
26568SOL    HW281544  12.050  10.020   2.533
26569SOL     OW81545   5.982   4.409  11.542
26569SOL    HW181546   5.941   4.339  11.593
26569SOL    HW281547   6.060   4.433  11.593
26570SOL     OW81548   6.547   6.802   7.086
26570SOL    HW181549   6.610   6.744   7.043
26570SOL    HW281550   6.485   6.826   7.017
26571SOL     OW81551   3.913   1.605   3.632
26571SOL    HW181552   3.969   1.606   3.710
26571SOL    HW281553   3.866   1.522   3.637
26572SOL     OW81554   2.404   0.127   2.551
26572SOL    HW181555   2.370   0.110   2.463
26572SOL    HW281556   2.350   0.074   2.609
26573SOL     OW81557   4.163   0.717   9.158
26573SOL    HW181558   4.213   0.781   9.107
26573SOL    HW281559   4.210   0.635   9.148
26574SOL     OW81560  11.201   3.155  10.009
26574SOL    HW181561  11.285   3.166   9.964
26574SOL    HW281562  11.203   3.220  10.079
26575SOL     OW81563   6.256   2.709  12.982
26575SOL    HW181564   6.238   2.789  13.032
26575SOL    HW281565   6.349   2.693  12.994
26576SOL     OW81566  10.569  13.156  14.114
26576SOL    HW181567  10.576  13.067  14.080
26576SOL    HW281568  10.481  13.160  14.152
26577SOL     OW81569   6.018   6.543   6.071
26577SOL    HW181570   6.004   6.475   6.005
26577SOL    HW281571   6.112   6.562   6.066
26578SOL     OW81572   5.179   9.867   0.596
26578SOL    HW181573   5.148   9.948   0.637
26578SOL    HW281574   5.114   9.801   0.621
26579SOL     OW81575   2.404  13.019   1.113
26579SOL    HW181576   2.471  12.952   1.100
26579SOL    HW281577   2.453  13.100   1.122
26580SOL     OW81578  10.809  10.039   7.940
26580SOL    HW181579  10.885  10.015   7.993
26580SOL    HW281580  10.840  10.112   7.886
26581SOL     OW81581  10.067   4.765  10.884
26581SOL    HW181582  10.036   4.737  10.798
26581SOL    HW281583  10.124   4.840  10.866
26582SOL     OW81584   4.506   7.597   9.519
26582SOL    HW181585   4.562   7.526   9.550
26582SOL    HW281586   4.568   7.666   9.492
26583SOL     OW81587   7.556   8.777   4.008
26583SOL    HW181588   7.507   8.744   4.083
26583SOL    HW281589   7.626   8.830   4.047
26584SOL     OW81590   4.237  12.737   0.501
26584SOL    HW181591   4.238  12.777   0.588
26584SOL    HW281592   4.248  12.810   0.440
26585SOL     OW81593  10.799  10.510   0.679
26585SOL    HW181594  10.813  10.460   0.598
26585SOL    HW281595  10.784  10.600   0.650
26586SOL     OW81596   8.026   3.564  13.247
26586SOL    HW181597   8.060   3.572  13.158
26586SOL    HW281598   8.102   3.543  13.301
26587SOL     OW81599   7.220   7.612   2.171
26587SOL    HW181600   7.197   7.575   2.256
26587SOL    HW281601   7.141   7.600   2.118
26588SOL     OW81602   0.384  11.361   9.378
26588SOL    HW181603   0.362  11.454   9.379
26588SOL    HW281604   0.473  11.357   9.341
26589SOL     OW81605  14.497   9.598   0.374
26589SOL    HW181606  14.513   9.686   0.408
26589SOL    HW281607  14.435   9.611   0.302
26590SOL     OW81608   2.056   0.268   3.406
26590SOL    HW181609   2.020   0.279   3.494
26590SOL    HW281610   2.018   0.340   3.355
26591SOL     OW81611   5.087   7.255  12.883
26591SOL    HW181612   5.030   7.215  12.818
26591SOL    HW281613   5.173   7.214  12.868
26592SOL     OW81614  11.420  10.275  12.611
26592SOL    HW181615  11.368  10.326  12.548
26592SOL    HW281616  11.360  10.206  12.640
26593SOL     OW81617   2.945   6.814   1.163
26593SOL    HW181618   2.854   6.804   1.135
26593SOL    HW281619   2.997   6.791   1.087
26594SOL     OW81620   0.484  12.252   9.372
26594SOL    HW181621   0.427  12.322   9.401
26594SOL    HW281622   0.436  12.172   9.392
26595SOL     OW81623   5.779   4.738  10.055
26595SOL    HW181624   5.725   4.725   9.977
26595SOL    HW281625   5.858   4.780  10.023
26596SOL     OW81626   0.586   1.370   2.480
26596SOL    HW181627   0.504   1.410   2.451
26596SOL    HW281628   0.630   1.344   2.399
26597SOL     OW81629  14.327   7.194  12.966
26597SOL    HW181630  14.316   7.111  12.920
26597SOL    HW281631  14.365   7.253  12.901
26598SOL     OW81632   6.027  12.830   5.883
26598SOL    HW181633   6.031  12.894   5.811
26598SOL    HW281634   5.978  12.875   5.952
26599SOL     OW81635  13.425   2.921  12.188
26599SOL    HW181636  13.517   2.910  12.214
26599SOL    HW281637  13.419   2.875  12.104
26600SOL     OW81638   2.183   4.436  11.716
26600SOL    HW181639   2.156   4.368  11.654
26600SOL    HW281640   2.107   4.494  11.722
26601SOL     OW81641   7.109   2.433  10.062
26601SOL    HW181642   7.056   2.449   9.984
26601SOL    HW281643   7.181   2.378  10.032
26602SOL     OW81644  11.720   6.111   7.139
26602SOL    HW181645  11.774   6.189   7.154
26602SOL    HW281646  11.706   6.075   7.226
26603SOL     OW81647  12.118   8.736   0.214
26603SOL    HW181648  12.144   8.659   0.162
26603SOL    HW281649  12.027   8.718   0.239
26604SOL     OW81650   4.904   1.182   4.582
26604SOL    HW181651   4.945   1.224   4.658
26604SOL    HW281652   4.848   1.250   4.545
26605SOL     OW81653   1.534  12.147   9.583
26605SOL    HW181654   1.622  12.108   9.590
26605SOL    HW281655   1.522  12.163   9.490
26606SOL     OW81656   8.961   7.443   5.711
26606SOL    HW181657   8.957   7.422   5.617
26606SOL    HW281658   8.884   7.499   5.726
26607SOL     OW81659  14.540   8.010  10.749
26607SOL    HW181660  14.628   7.977  10.734
26607SOL    HW281661  14.498   8.005  10.664
26608SOL     OW81662   5.513   6.021   6.341
26608SOL    HW181663   5.593   6.058   6.302
26608SOL    HW281664   5.513   5.929   6.312
26609SOL     OW81665   9.781   7.300   0.266
26609SOL    HW181666   9.708   7.241   0.288
26609SOL    HW281667   9.751   7.386   0.295
26610SOL     OW81668   4.761   8.347   1.370
26610SOL    HW181669   4.712   8.289   1.428
26610SOL    HW281670   4.839   8.297   1.347
26611SOL     OW81671   8.567   9.902   5.510
26611SOL    HW181672   8.547   9.906   5.603
26611SOL    HW281673   8.518   9.975   5.471
26612SOL     OW81674   9.482   5.519  11.967
26612SOL    HW181675   9.536   5.495  12.042
26612SOL    HW281676   9.409   5.458  11.970
26613SOL     OW81677   5.083   2.804   8.734
26613SOL    HW181678   5.099   2.846   8.819
26613SOL    HW281679   5.094   2.874   8.670
26614SOL     OW81680   7.175   0.204   9.358
26614SOL    HW181681   7.166   0.218   9.452
26614SOL    HW281682   7.102   0.254   9.320
26615SOL     OW81683   9.827   0.350   4.439
26615SOL    HW181684   9.799   0.393   4.521
26615SOL    HW281685   9.772   0.272   4.433
26616SOL     OW81686   7.514   6.599  13.459
26616SOL    HW181687   7.473   6.513  13.469
26616SOL    HW281688   7.465   6.655  13.519
26617SOL     OW81689   3.705   1.252  12.195
26617SOL    HW181690   3.769   1.287  12.257
26617SOL    HW281691   3.667   1.330  12.154
26618SOL     OW81692   6.789  14.683   5.544
26618SOL    HW181693   6.695  14.673   5.564
26618SOL    HW281694   6.793  14.683   5.449
26619SOL     OW81695  11.078   9.119   0.062
26619SOL    HW181696  11.120   9.111  14.850
26619SOL    HW281697  11.119   9.050   0.115
26620SOL     OW81698   9.961   4.698  13.431
26620SOL    HW181699   9.997   4.782  13.403
26620SOL    HW281700   9.916   4.664  13.354
26621SOL     OW81701   3.915  11.283   1.331
26621SOL    HW181702   3.897  11.321   1.417
26621SOL    HW281703   3.897  11.354   1.270
26622SOL     OW81704   3.761  12.263  14.155
26622SOL    HW181705   3.828  12.287  14.219
26622SOL    HW281706   3.678  12.275  14.202
26623SOL     OW81707   1.536   6.880   6.007
26623SOL    HW181708   1.565   6.962   5.968
26623SOL    HW281709   1.598   6.814   5.975
26624SOL     OW81710   0.704   8.640   6.515
26624SOL    HW181711   0.636   8.699   6.484
26624SOL    HW281712   0.661   8.587   6.582
26625SOL     OW81713  13.062   5.293  11.827
26625SOL    HW181714  13.012   5.361  11.782
26625SOL    HW281715  13.033   5.211  11.786
26626SOL     OW81716   1.439   8.508  13.240
26626SOL    HW181717   1.416   8.469  13.324
26626SOL    HW281718   1.464   8.434  13.185
26627SOL     OW81719   5.708  14.306  14.063
26627SOL    HW181720   5.689  14.251  14.138
26627SOL    HW281721   5.631  14.363  14.054
26628SOL     OW81722   7.582   4.216   7.995
26628SOL    HW181723   7.534   4.287   8.037
26628SOL    HW281724   7.543   4.136   8.032
26629SOL     OW81725  14.037  14.062   7.363
26629SOL    HW181726  14.127  14.084   7.340
26629SOL    HW281727  13.985  14.136   7.333
26630SOL     OW81728   3.093  13.303  13.667
26630SOL    HW181729   3.110  13.397  13.656
26630SOL    HW281730   3.045  13.278  13.588
26631SOL     OW81731  12.545   3.358   4.653
26631SOL    HW181732  12.543   3.437   4.707
26631SOL    HW281733  12.581   3.387   4.569
26632SOL     OW81734   2.180   6.076  11.373
26632SOL    HW181735   2.133   6.148  11.416
26632SOL    HW281736   2.129   5.998  11.396
26633SOL     OW81737   2.495  13.464   6.790
26633SOL    HW181738   2.528  13.530   6.852
26633SOL    HW281739   2.532  13.489   6.706
26634SOL     OW81740   9.955  10.263   7.909
26634SOL    HW181741  10.036  10.309   7.932
26634SOL    HW281742   9.941  10.284   7.817
26635SOL     OW81743   9.630   5.955   1.950
26635SOL    HW181744   9.722   5.936   1.968
26635SOL    HW281745   9.583   5.880   1.985
26636SOL     OW81746  10.790   7.323  14.462
26636SOL    HW181747  10.867   7.334  14.518
26636SOL    HW281748  10.788   7.229  14.443
26637SOL     OW81749   1.572  13.504  10.225
26637SOL    HW181750   1.476  13.512  10.223
26637SOL    HW281751   1.600  13.530  10.137
26638SOL     OW81752  10.402   9.925  14.289
26638SOL    HW181753  10.392   9.963  14.202
26638SOL    HW281754  10.314   9.925  14.326
26639SOL     OW81755   1.080  12.646  13.644
26639SOL    HW181756   1.108  12.555  13.653
26639SOL    HW281757   1.125  12.677  13.565
26640SOL     OW81758  10.594  11.847   8.974
26640SOL    HW181759  10.504  11.846   8.941
26640SOL    HW281760  10.586  11.819   9.065
26641SOL     OW81761  12.247   7.182  13.015
26641SOL    HW181762  12.298   7.250  13.060
26641SOL    HW281763  12.311   7.116  12.990
26642SOL     OW81764   2.146   5.905  12.393
26642SOL    HW181765   2.146   5.993  12.430
26642SOL    HW281766   2.239   5.884  12.381
26643SOL     OW81767   5.527  11.193  11.487
26643SOL    HW181768   5.571  11.271  11.452
26643SOL    HW281769   5.545  11.196  11.581
26644SOL     OW81770   8.639   7.064   8.129
26644SOL    HW181771   8.639   7.106   8.043
26644SOL    HW281772   8.593   6.981   8.116
26645SOL     OW81773  10.786   6.345   1.080
26645SOL    HW181774  10.769   6.299   0.998
26645SOL    HW281775  10.868   6.309   1.113
26646SOL     OW81776   9.509   3.408   1.380
26646SOL    HW181777   9.445   3.343   1.351
26646SOL    HW281778   9.585   3.357   1.406
26647SOL     OW81779   6.789  13.732   2.635
26647SOL    HW181780   6.824  13.658   2.586
26647SOL    HW281781   6.731  13.693   2.700
26648SOL     OW81782   4.300   3.936   5.317
26648SOL    HW181783   4.363   4.005   5.298
26648SOL    HW281784   4.225   3.981   5.355
26649SOL     OW81785  14.531   1.358  13.216
26649SOL    HW181786  14.488   1.356  13.302
26649SOL    HW281787  14.475   1.304  13.161
26650SOL     OW81788  11.891   7.160  14.230
26650SOL    HW181789  11.966   7.164  14.170
26650SOL    HW281790  11.902   7.237  14.286
26651SOL     OW81791  11.927   5.751  11.295
26651SOL    HW181792  11.877   5.735  11.215
26651SOL    HW281793  11.873   5.713  11.365
26652SOL     OW81794   3.616  12.109   3.013
26652SOL    HW181795   3.626  12.045   3.083
26652SOL    HW281796   3.524  12.103   2.988
26653SOL     OW81797   5.369  10.391   9.708
26653SOL    HW181798   5.317  10.471   9.697
26653SOL    HW281799   5.397  10.368   9.619
26654SOL     OW81800   8.245   4.902   0.822
26654SOL    HW181801   8.238   4.857   0.906
26654SOL    HW281802   8.332   4.878   0.789
26655SOL     OW81803  11.650  14.006   5.191
26655SOL    HW181804  11.588  13.936   5.171
26655SOL    HW281805  11.699  14.018   5.110
26656SOL     OW81806  11.602   2.137   4.431
26656SOL    HW181807  11.550   2.077   4.378
26656SOL    HW281808  11.687   2.093   4.439
26657SOL     OW81809   6.794   9.462  12.599
26657SOL    HW181810   6.814   9.391  12.537
26657SOL    HW281811   6.752   9.529  12.545
26658SOL     OW81812  11.408   6.770  10.655
26658SOL    HW181813  11.478   6.827  10.688
26658SOL    HW281814  11.343   6.831  10.620
26659SOL     OW81815   7.881  13.426   3.467
26659SOL    HW181816   7.794  13.467   3.466
26659SOL    HW281817   7.939  13.494   3.433
26660SOL     OW81818  10.702   5.232  13.960
26660SOL    HW181819  10.725   5.177  14.035
26660SOL    HW281820  10.628   5.186  13.919
26661SOL     OW81821  11.515  14.794   3.169
26661SOL    HW181822  11.512   0.016   3.179
26661SOL    HW281823  11.503  14.760   3.258
26662SOL     OW81824   3.771  10.996   6.698
26662SOL    HW181825   3.746  11.038   6.780
26662SOL    HW281826   3.689  10.960   6.663
26663SOL     OW81827  12.900  14.679   3.552
26663SOL    HW181828  12.918  14.587   3.568
26663SOL    HW281829  12.947  14.699   3.471
26664SOL     OW81830   0.946  10.954  12.320
26664SOL    HW181831   0.862  10.941  12.364
26664SOL    HW281832   0.997  11.008  12.382
26665SOL     OW81833   5.593  11.983   3.754
26665SOL    HW181834   5.628  11.948   3.836
26665SOL    HW281835   5.521  11.924   3.732
26666SOL     OW81836   0.530   1.023  14.811
26666SOL    HW181837   0.487   0.940  14.831
26666SOL    HW281838   0.598   1.031   0.005
26667SOL     OW81839  10.295   4.178   7.422
26667SOL    HW181840  10.340   4.169   7.507
26667SOL    HW281841  10.206   4.205   7.445
26668SOL     OW81842   4.886  11.421   2.992
26668SOL    HW181843   4.926  11.504   3.018
26668SOL    HW281844   4.806  11.445   2.946
26669SOL     OW81845  10.658   2.155   8.362
26669SOL    HW181846  10.584   2.204   8.328
26669SOL    HW281847  10.709   2.130   8.285
26670SOL     OW81848   0.308   4.395   4.978
26670SOL    HW181849   0.273   4.359   5.059
26670SOL    HW281850   0.238   4.383   4.914
26671SOL     OW81851   6.735   0.448   8.418
26671SOL    HW181852   6.792   0.380   8.455
26671SOL    HW281853   6.661   0.401   8.381
26672SOL     OW81854   8.445   8.394  10.132
26672SOL    HW181855   8.483   8.455  10.070
26672SOL    HW281856   8.375   8.350  10.084
26673SOL     OW81857  11.230   0.599  11.837
26673SOL    HW181858  11.256   0.535  11.904
26673SOL    HW281859  11.200   0.675  11.887
26674SOL     OW81860   7.333  14.844   9.871
26674SOL    HW181861   7.326  14.836   9.776
26674SOL    HW281862   7.420  14.809   9.892
26675SOL     OW81863   8.701   9.874   4.602
26675SOL    HW181864   8.641   9.944   4.628
26675SOL    HW281865   8.708   9.818   4.679
26676SOL     OW81866   1.472   5.769   4.654
26676SOL    HW181867   1.480   5.838   4.721
26676SOL    HW281868   1.401   5.799   4.598
26677SOL     OW81869   9.393   6.723   5.569
26677SOL    HW181870   9.470   6.669   5.553
26677SOL    HW281871   9.398   6.745   5.662
26678SOL     OW81872   9.993   6.427   3.753
26678SOL    HW181873   9.975   6.333   3.753
26678SOL    HW281874   9.907   6.468   3.755
26679SOL     OW81875   1.395   6.289   5.529
26679SOL    HW181876   1.350   6.264   5.609
26679SOL    HW281877   1.378   6.217   5.469
26680SOL     OW81878  12.137   7.174  14.097
26680SOL    HW181879  12.113   7.239  14.032
26680SOL    HW281880  12.215   7.130  14.061
26681SOL     OW81881   6.725   9.158   3.194
26681SOL    HW181882   6.632   9.152   3.219
26681SOL    HW281883   6.764   9.214   3.261
26682SOL     OW81884   6.327  11.557  10.370
26682SOL    HW181885   6.335  11.473  10.414
26682SOL    HW281886   6.331  11.536  10.277
26683SOL     OW81887  12.783   6.562   2.582
26683SOL    HW181888  12.801   6.637   2.526
26683SOL    HW281889  12.850   6.567   2.651
26684SOL     OW81890   0.281   0.875   2.837
26684SOL    HW181891   0.352   0.931   2.803
26684SOL    HW281892   0.295   0.874   2.932
26685SOL     OW81893   2.904   2.595   3.194
26685SOL    HW181894   2.965   2.564   3.127
26685SOL    HW281895   2.822   2.549   3.175
26686SOL     OW81896   4.829   6.448   9.440
26686SOL    HW181897   4.870   6.524   9.399
26686SOL    HW281898   4.758   6.424   9.381
26687SOL     OW81899  13.955  13.502   3.436
26687SOL    HW181900  13.977  13.448   3.360
26687SOL    HW281901  13.864  13.479   3.456
26688SOL     OW81902  12.663   5.335   2.935
26688SOL    HW181903  12.670   5.409   2.875
26688SOL    HW281904  12.674   5.374   3.022
26689SOL     OW81905   3.337   1.573   8.441
26689SOL    HW181906   3.422   1.547   8.476
26689SOL    HW281907   3.346   1.667   8.424
26690SOL     OW81908   6.974   7.374   0.679
26690SOL    HW181909   7.035   7.446   0.699
26690SOL    HW281910   6.988   7.311   0.749
26691SOL     OW81911   8.294   8.333  12.041
26691SOL    HW181912   8.237   8.294  12.107
26691SOL    HW281913   8.329   8.259  11.993
26692SOL     OW81914   7.522  14.508   7.411
26692SOL    HW181915   7.562  14.595   7.408
26692SOL    HW281916   7.498  14.495   7.503
26693SOL     OW81917  13.678   4.284   8.323
26693SOL    HW181918  13.638   4.355   8.374
26693SOL    HW281919  13.674   4.208   8.381
26694SOL     OW81920   6.654   6.161   1.051
26694SOL    HW181921   6.595   6.189   1.121
26694SOL    HW281922   6.633   6.218   0.977
26695SOL     OW81923   8.206   4.137   7.933
26695SOL    HW181924   8.259   4.130   7.854
26695SOL    HW281925   8.224   4.225   7.967
26696SOL     OW81926   7.299   8.176   9.124
26696SOL    HW181927   7.333   8.200   9.210
26696SOL    HW281928   7.292   8.080   9.127
26697SOL     OW81929   9.703   8.891   3.690
26697SOL    HW181930   9.655   8.832   3.748
26697SOL    HW281931   9.795   8.877   3.712
26698SOL     OW81932   0.929  13.897   5.396
26698SOL    HW181933   0.870  13.940   5.335
26698SOL    HW281934   0.942  13.960   5.467
26699SOL     OW81935  12.364   6.110   2.667
26699SOL    HW181936  12.335   6.038   2.610
26699SOL    HW281937  12.306   6.182   2.645
26700SOL     OW81938  11.177   3.264  11.666
26700SOL    HW181939  11.252   3.248  11.724
26700SOL    HW281940  11.116   3.313  11.720
26701SOL     OW81941   4.879   7.096   3.863
26701SOL    HW181942   4.842   7.008   3.868
26701SOL    HW281943   4.973   7.083   3.875
26702SOL     OW81944   1.658   7.434   1.727
26702SOL    HW181945   1.683   7.453   1.637
26702SOL    HW281946   1.628   7.518   1.762
26703SOL     OW81947  11.258  14.620   1.660
26703SOL    HW181948  11.265  14.534   1.701
26703SOL    HW281949  11.211  14.604   1.579
26704SOL     OW81950  13.523   7.061   3.568
26704SOL    HW181951  13.470   7.134   3.603
26704SOL    HW281952  13.503   7.060   3.475
26705SOL     OW81953  12.046   7.140   0.493
26705SOL    HW181954  12.070   7.180   0.576
26705SOL    HW281955  11.999   7.208   0.446
26706SOL     OW81956   8.278   2.647  13.563
26706SOL    HW181957   8.321   2.711  13.507
26706SOL    HW281958   8.308   2.667  13.651
26707SOL     OW81959   9.478   3.993   2.472
26707SOL    HW181960   9.492   3.940   2.551
26707SOL    HW281961   9.480   3.930   2.400
26708SOL     OW81962  13.603   0.219   3.919
26708SOL    HW181963  13.610   0.251   4.009
26708SOL    HW281964  13.581   0.296   3.868
26709SOL     OW81965   7.883   5.443  14.809
26709SOL    HW181966   7.904   5.435  14.715
26709SOL    HW281967   7.806   5.387  14.821
26710SOL     OW81968  12.188  13.626  11.750
26710SOL    HW181969  12.188  13.666  11.663
26710SOL    HW281970  12.130  13.681  11.802
26711SOL     OW81971  13.246  10.793   6.532
26711SOL    HW181972  13.335  10.762   6.515
26711SOL    HW281973  13.206  10.724   6.584
26712SOL     OW81974   5.469  13.350   5.889
26712SOL    HW181975   5.428  13.277   5.935
26712SOL    HW281976   5.495  13.313   5.804
26713SOL     OW81977  13.270   6.023   8.877
26713SOL    HW181978  13.185   6.066   8.889
26713SOL    HW281979  13.258   5.968   8.800
26714SOL     OW81980  10.123   7.487   9.857
26714SOL    HW181981  10.028   7.501   9.865
26714SOL    HW281982  10.135   7.458   9.767
26715SOL     OW81983   0.909   6.509  10.880
26715SOL    HW181984   0.961   6.562  10.821
26715SOL    HW281985   0.968   6.438  10.907
26716SOL     OW81986   0.305  10.453   8.384
26716SOL    HW181987   0.269  10.394   8.449
26716SOL    HW281988   0.229  10.493   8.343
26717SOL     OW81989   8.179   6.192   7.061
26717SOL    HW181990   8.182   6.259   6.993
26717SOL    HW281991   8.238   6.124   7.031
26718SOL     OW81992   3.508   2.589   3.162
26718SOL    HW181993   3.475   2.581   3.251
26718SOL    HW281994   3.602   2.576   3.170
26719SOL     OW81995   0.188   0.362  14.548
26719SOL    HW181996   0.257   0.425  14.528
26719SOL    HW281997   0.223   0.278  14.518
26720SOL     OW81998  12.026   6.642   1.338
26720SOL    HW181999  11.933   6.623   1.324
26720SOL    HW282000  12.063   6.557   1.364
26721SOL     OW82001  10.576   3.665   6.478
26721SOL    HW182002  10.548   3.670   6.569
26721SOL    HW282003  10.494   3.669   6.428
26722SOL     OW82004   6.274   5.240   7.179
26722SOL    HW182005   6.355   5.233   7.129
26722SOL    HW282006   6.284   5.319   7.231
26723SOL     OW82007   4.471  14.210   4.438
26723SOL    HW182008   4.541  14.206   4.372
26723SOL    HW282009   4.409  14.142   4.411
26724SOL     OW82010   4.143   3.071  11.759
26724SOL    HW182011   4.140   2.977  11.742
26724SOL    HW282012   4.113   3.080  11.850
26725SOL     OW82013   4.300   6.986   4.863
26725SOL    HW182014   4.275   6.918   4.925
26725SOL    HW282015   4.235   7.056   4.878
26726SOL     OW82016  13.125   1.576   1.022
26726SOL    HW182017  13.102   1.548   1.111
26726SOL    HW282018  13.106   1.499   0.968
26727SOL     OW82019   2.599   7.879   7.747
26727SOL    HW182020   2.548   7.866   7.827
26727SOL    HW282021   2.654   7.801   7.742
26728SOL     OW82022  10.642  14.381  12.408
26728SOL    HW182023  10.692  14.304  12.380
26728SOL    HW282024  10.682  14.406  12.490
26729SOL     OW82025   2.654   3.629  14.414
26729SOL    HW182026   2.662   3.534  14.404
26729SOL    HW282027   2.564   3.642  14.443
26730SOL     OW82028  12.945  10.484  10.655
26730SOL    HW182029  12.972  10.402  10.615
26730SOL    HW282030  13.024  10.538  10.657
26731SOL     OW82031   5.152  12.007   7.578
26731SOL    HW182032   5.205  12.037   7.504
26731SOL    HW282033   5.180  11.917   7.594
26732SOL     OW82034   3.935   0.198  13.903
26732SOL    HW182035   4.016   0.164  13.865
26732SOL    HW282036   3.963   0.267  13.962
26733SOL     OW82037   1.390   8.599  12.140
26733SOL    HW182038   1.437   8.576  12.060
26733SOL    HW282039   1.324   8.663  12.112
26734SOL     OW82040   9.141   4.709   6.605
26734SOL    HW182041   9.206   4.683   6.539
26734SOL    HW282042   9.185   4.694   6.689
26735SOL     OW82043  13.414   7.613   6.395
26735SOL    HW182044  13.436   7.552   6.465
26735SOL    HW282045  13.324   7.590   6.370
26736SOL     OW82046   7.244   4.713  11.389
26736SOL    HW182047   7.294   4.754  11.318
26736SOL    HW282048   7.306   4.706  11.461
26737SOL     OW82049  12.204  10.271   7.911
26737SOL    HW182050  12.143  10.199   7.928
26737SOL    HW282051  12.212  10.316   7.995
26738SOL     OW82052  14.385   7.574  10.896
26738SOL    HW182053  14.367   7.553  10.988
26738SOL    HW282054  14.346   7.501  10.847
26739SOL     OW82055   7.594   6.374   9.476
26739SOL    HW182056   7.605   6.462   9.513
26739SOL    HW282057   7.626   6.381   9.387
26740SOL     OW82058  13.355   6.366   8.074
26740SOL    HW182059  13.273   6.356   8.025
26740SOL    HW282060  13.415   6.407   8.012
26741SOL     OW82061   9.144   2.423   8.847
26741SOL    HW182062   9.200   2.433   8.769
26741SOL    HW282063   9.098   2.340   8.833
26742SOL     OW82064   9.989   5.265   5.511
26742SOL    HW182065   9.929   5.193   5.491
26742SOL    HW282066  10.003   5.259   5.606
26743SOL     OW82067  11.723   8.202  12.468
26743SOL    HW182068  11.714   8.107  12.470
26743SOL    HW282069  11.810   8.218  12.432
26744SOL     OW82070   9.392   3.210   2.073
26744SOL    HW182071   9.372   3.151   2.001
26744SOL    HW282072   9.487   3.211   2.079
26745SOL     OW82073  10.215   5.067   6.703
26745SOL    HW182074  10.153   5.069   6.630
26745SOL    HW282075  10.273   5.141   6.687
26746SOL     OW82076   2.473   4.744   3.110
26746SOL    HW182077   2.504   4.774   3.196
26746SOL    HW282078   2.553   4.725   3.061
26747SOL     OW82079   0.473  12.533  12.800
26747SOL    HW182080   0.549  12.487  12.834
26747SOL    HW282081   0.427  12.564  12.878
26748SOL     OW82082   4.289  13.634   3.022
26748SOL    HW182083   4.283  13.646   3.117
26748SOL    HW282084   4.304  13.540   3.011
26749SOL     OW82085   8.405  10.644   9.920
26749SOL    HW182086   8.324  10.592   9.924
26749SOL    HW282087   8.470  10.585   9.883
26750SOL     OW82088   9.650   9.810   1.498
26750SOL    HW182089   9.677   9.765   1.417
26750SOL    HW282090   9.668   9.746   1.567
26751SOL     OW82091   9.701   5.631  14.816
26751SOL    HW182092   9.717   5.721  14.847
26751SOL    HW282093   9.606   5.620  14.826
26752SOL     OW82094  12.067   6.978  14.335
26752SOL    HW182095  11.988   7.030  14.319
26752SOL    HW282096  12.127   7.038  14.379
26753SOL     OW82097   3.137   8.392   5.694
26753SOL    HW182098   3.152   8.301   5.670
26753SOL    HW282099   3.189   8.442   5.630
26754SOL     OW82100   0.645   8.104   7.258
26754SOL    HW182101   0.655   8.192   7.222
26754SOL    HW282102   0.560   8.106   7.303
26755SOL     OW82103   6.640   7.147  14.737
26755SOL    HW182104   6.641   7.197  14.655
26755SOL    HW282105   6.714   7.087  14.729
26756SOL     OW82106  11.491  12.115   8.415
26756SOL    HW182107  11.581  12.124   8.384
26756SOL    HW282108  11.482  12.023   8.438
26757SOL     OW82109  11.520  12.225  14.488
26757SOL    HW182110  11.457  12.154  14.502
26757SOL    HW282111  11.469  12.293  14.444
26758SOL     OW82112   6.622   3.255   2.404
26758SOL    HW182113   6.641   3.171   2.447
26758SOL    HW282114   6.551   3.293   2.457
26759SOL     OW82115   5.474   7.955   8.344
26759SOL    HW182116   5.550   7.948   8.286
26759SOL    HW282117   5.509   7.995   8.424
26760SOL     OW82118  14.132   4.651   5.044
26760SOL    HW182119  14.206   4.627   4.988
26760SOL    HW282120  14.164   4.638   5.133
26761SOL     OW82121   1.451  13.569   7.916
26761SOL    HW182122   1.534  13.544   7.875
26761SOL    HW282123   1.397  13.599   7.843
26762SOL     OW82124   0.601   2.814   2.197
26762SOL    HW182125   0.523   2.846   2.151
26762SOL    HW282126   0.661   2.889   2.197
26763SOL     OW82127   1.147   0.812   7.697
26763SOL    HW182128   1.078   0.877   7.704
26763SOL    HW282129   1.139   0.759   7.777
26764SOL     OW82130  13.017   4.737  11.879
26764SOL    HW182131  13.053   4.654  11.847
26764SOL    HW282132  12.922   4.729  11.866
26765SOL     OW82133   6.244   1.736   4.986
26765SOL    HW182134   6.167   1.736   4.929
26765SOL    HW282135   6.215   1.781   5.065
26766SOL     OW82136  10.473  14.407  14.086
26766SOL    HW182137  10.565  14.431  14.102
26766SOL    HW282138  10.424  14.488  14.098
26767SOL     OW82139   4.521   7.064   3.755
26767SOL    HW182140   4.464   7.064   3.678
26767SOL    HW282141   4.559   7.152   3.757
26768SOL     OW82142   3.835  14.445   8.255
26768SOL    HW182143   3.757  14.392   8.267
26768SOL    HW282144   3.818  14.525   8.305
26769SOL     OW82145  11.546   3.301  14.013
26769SOL    HW182146  11.508   3.376  13.966
26769SOL    HW282147  11.535   3.323  14.105
26770SOL     OW82148   4.927   0.836  10.369
26770SOL    HW182149   4.934   0.805  10.279
26770SOL    HW282150   4.989   0.782  10.418
26771SOL     OW82151   4.628   2.922   2.189
26771SOL    HW182152   4.685   2.964   2.125
26771SOL    HW282153   4.541   2.925   2.148
26772SOL     OW82154   5.503  11.652   2.955
26772SOL    HW182155   5.509  11.747   2.945
26772SOL    HW282156   5.593  11.623   2.969
26773SOL     OW82157   4.662  12.716  10.684
26773SOL    HW182158   4.600  12.777  10.725
26773SOL    HW282159   4.713  12.682  10.757
26774SOL     OW82160  13.153   4.821   0.306
26774SOL    HW182161  13.131   4.740   0.352
26774SOL    HW282162  13.125   4.891   0.366
26775SOL     OW82163   4.701   5.003   7.438
26775SOL    HW182164   4.750   4.975   7.516
26775SOL    HW282165   4.610   4.984   7.459
26776SOL     OW82166   2.372  13.353   8.213
26776SOL    HW182167   2.389  13.421   8.279
26776SOL    HW282168   2.458  13.319   8.191
26777SOL     OW82169  13.414   1.903  10.146
26777SOL    HW182170  13.413   1.951  10.229
26777SOL    HW282171  13.348   1.946  10.092
26778SOL     OW82172   0.347   2.475   2.503
26778SOL    HW182173   0.356   2.548   2.565
26778SOL    HW282174   0.368   2.397   2.554
26779SOL     OW82175   4.186  11.044   6.171
26779SOL    HW182176   4.268  11.022   6.214
26779SOL    HW282177   4.156  10.962   6.133
26780SOL     OW82178   1.741   0.462   7.196
26780SOL    HW182179   1.797   0.526   7.239
26780SOL    HW282180   1.796   0.385   7.184
26781SOL     OW82181   6.136  11.364   4.406
26781SOL    HW182182   6.097  11.336   4.489
26781SOL    HW282183   6.229  11.343   4.415
26782SOL     OW82184  11.727   7.222   4.038
26782SOL    HW182185  11.632   7.233   4.035
26782SOL    HW282186  11.747   7.214   4.131
26783SOL     OW82187   9.937   3.091   0.372
26783SOL    HW182188   9.967   3.165   0.425
26783SOL    HW282189   9.983   3.015   0.409
26784SOL     OW82190  10.748  14.416   3.772
26784SOL    HW182191  10.724  14.336   3.725
26784SOL    HW282192  10.796  14.468   3.707
26785SOL     OW82193  13.476   5.272  10.135
26785SOL    HW182194  13.497   5.223  10.214
26785SOL    HW282195  13.532   5.350  10.140
26786SOL     OW82196  12.394   9.572  12.489
26786SOL    HW182197  12.374   9.641  12.551
26786SOL    HW282198  12.436   9.617  12.415
26787SOL     OW82199   0.654   5.672   1.831
26787SOL    HW182200   0.605   5.709   1.905
26787SOL    HW282201   0.619   5.583   1.823
26788SOL     OW82202   0.497  10.535   6.722
26788SOL    HW182203   0.588  10.532   6.751
26788SOL    HW282204   0.502  10.522   6.627
26789SOL     OW82205   0.187   5.953   0.033
26789SOL    HW182206   0.209   5.894   0.104
26789SOL    HW282207   0.150   5.896  14.838
26790SOL     OW82208  11.426   5.389   5.613
26790SOL    HW182209  11.374   5.454   5.565
26790SOL    HW282210  11.507   5.436   5.635
26791SOL     OW82211   3.158   0.140   3.757
26791SOL    HW182212   3.089   0.084   3.721
26791SOL    HW282213   3.240   0.100   3.728
26792SOL     OW82214   7.158   8.595   1.675
26792SOL    HW182215   7.167   8.600   1.770
26792SOL    HW282216   7.244   8.565   1.644
26793SOL     OW82217  14.839  14.263  14.131
26793SOL    HW182218  14.814  14.310  14.051
26793SOL    HW282219  14.769  14.199  14.144
26794SOL     OW82220   2.566  14.068   1.448
26794SOL    HW182221   2.489  14.116   1.418
26794SOL    HW282222   2.600  14.118   1.522
26795SOL     OW82223  10.650  14.569   4.484
26795SOL    HW182224  10.673  14.540   4.396
26795SOL    HW282225  10.563  14.607   4.475
26796SOL     OW82226  12.862  14.670  11.765
26796SOL    HW182227  12.903  14.595  11.809
26796SOL    HW282228  12.768  14.650  11.765
26797SOL     OW82229   5.543   1.290   2.742
26797SOL    HW182230   5.582   1.349   2.806
26797SOL    HW282231   5.554   1.334   2.658
26798SOL     OW82232  12.947   7.827   2.628
26798SOL    HW182233  12.903   7.843   2.711
26798SOL    HW282234  12.889   7.866   2.562
26799SOL     OW82235   5.566  10.157   0.343
26799SOL    HW182236   5.530  10.239   0.309
26799SOL    HW282237   5.591  10.178   0.434
26800SOL     OW82238   1.420   8.157   9.851
26800SOL    HW182239   1.477   8.101   9.904
26800SOL    HW282240   1.454   8.245   9.864
26801SOL     OW82241   6.499   1.936  11.936
26801SOL    HW182242   6.501   2.011  11.878
26801SOL    HW282243   6.591   1.915  11.953
26802SOL     OW82244   5.197  13.227   9.764
26802SOL    HW182245   5.148  13.292   9.713
26802SOL    HW282246   5.253  13.279   9.821
26803SOL     OW82247   0.895   5.116  13.653
26803SOL    HW182248   0.857   5.029  13.661
26803SOL    HW282249   0.877   5.159  13.737
26804SOL     OW82250   4.207   9.390   5.970
26804SOL    HW182251   4.247   9.362   5.887
26804SOL    HW282252   4.228   9.483   5.976
26805SOL     OW82253  12.180  14.109  13.392
26805SOL    HW182254  12.154  14.029  13.347
26805SOL    HW282255  12.149  14.098  13.482
26806SOL     OW82256   9.417  12.909   8.776
26806SOL    HW182257   9.358  12.961   8.830
26806SOL    HW282258   9.375  12.907   8.690
26807SOL     OW82259   1.830   8.139  12.578
26807SOL    HW182260   1.783   8.221  12.591
26807SOL    HW282261   1.826   8.095  12.662
26808SOL     OW82262  11.354   6.115  13.232
26808SOL    HW182263  11.404   6.116  13.150
26808SOL    HW282264  11.352   6.022  13.257
26809SOL     OW82265   8.617   7.060  12.590
26809SOL    HW182266   8.628   7.153  12.610
26809SOL    HW282267   8.694   7.017  12.627
26810SOL     OW82268   8.866   2.706   7.824
26810SOL    HW182269   8.785   2.685   7.870
26810SOL    HW282270   8.903   2.620   7.801
26811SOL     OW82271   8.744   8.684   6.875
26811SOL    HW182272   8.660   8.710   6.835
26811SOL    HW282273   8.723   8.669   6.967
26812SOL     OW82274  11.218   8.453   4.133
26812SOL    HW182275  11.303   8.443   4.091
26812SOL    HW282276  11.223   8.538   4.177
26813SOL     OW82277  14.319   3.786  14.238
26813SOL    HW182278  14.314   3.816  14.328
26813SOL    HW282279  14.296   3.862  14.185
26814SOL     OW82280   4.611  12.897   3.689
26814SOL    HW182281   4.628  12.883   3.596
26814SOL    HW282282   4.602  12.992   3.699
26815SOL     OW82283   3.158  12.472   3.280
26815SOL    HW182284   3.151  12.403   3.214
26815SOL    HW282285   3.246  12.463   3.316
26816SOL     OW82286  12.283  13.587  11.421
26816SOL    HW182287  12.286  13.669  11.471
26816SOL    HW282288  12.346  13.530  11.466
26817SOL     OW82289   5.106  12.521   9.854
26817SOL    HW182290   5.017  12.538   9.825
26817SOL    HW282291   5.158  12.593   9.817
26818SOL     OW82292  13.616  13.766   2.516
26818SOL    HW182293  13.561  13.714   2.575
26818SOL    HW282294  13.563  13.777   2.438
26819SOL     OW82295  14.321  12.064  13.697
26819SOL    HW182296  14.374  12.010  13.756
26819SOL    HW282297  14.232  12.055  13.730
26820SOL     OW82298  14.823   5.379   0.937
26820SOL    HW182299  14.825   5.313   0.868
26820SOL    HW282300  14.773   5.338   1.008
26821SOL     OW82301   7.653   6.569   8.351
26821SOL    HW182302   7.589   6.563   8.280
26821SOL    HW282303   7.738   6.565   8.308
26822SOL     OW82304  14.040   3.879   1.534
26822SOL    HW182305  14.060   3.792   1.568
26822SOL    HW282306  13.955   3.869   1.491
26823SOL     OW82307   5.642  10.139   1.575
26823SOL    HW182308   5.658  10.045   1.587
26823SOL    HW282309   5.708  10.182   1.630
26824SOL     OW82310  13.524   1.617  10.275
26824SOL    HW182311  13.490   1.660  10.354
26824SOL    HW282312  13.602   1.571  10.306
26825SOL     OW82313   3.781   3.811   1.595
26825SOL    HW182314   3.769   3.725   1.555
26825SOL    HW282315   3.854   3.850   1.547
26826SOL     OW82316   1.636   0.738  11.129
26826SOL    HW182317   1.691   0.816  11.133
26826SOL    HW282318   1.659   0.697  11.046
26827SOL     OW82319   5.676   2.071   1.394
26827SOL    HW182320   5.642   2.044   1.480
26827SOL    HW282321   5.766   2.098   1.413
26828SOL     OW82322   7.263   3.098  10.579
26828SOL    HW182323   7.237   3.136  10.495
26828SOL    HW282324   7.356   3.119  10.587
26829SOL     OW82325   8.872  10.830   4.628
26829SOL    HW182326   8.792  10.836   4.680
26829SOL    HW282327   8.894  10.737   4.629
26830SOL     OW82328   8.486   5.481  13.534
26830SOL    HW182329   8.489   5.390  13.504
26830SOL    HW282330   8.553   5.525  13.481
26831SOL     OW82331   1.046   2.437   9.648
26831SOL    HW182332   1.013   2.519   9.611
26831SOL    HW282333   0.989   2.369   9.611
26832SOL     OW82334   7.151   5.663   0.945
26832SOL    HW182335   7.186   5.644   0.858
26832SOL    HW282336   7.212   5.728   0.981
26833SOL     OW82337  10.210   3.792   3.794
26833SOL    HW182338  10.135   3.840   3.829
26833SOL    HW282339  10.171   3.718   3.748
26834SOL     OW82340   0.531   0.634  11.658
26834SOL    HW182341   0.542   0.713  11.605
26834SOL    HW282342   0.568   0.657  11.743
26835SOL     OW82343   7.118  12.839  11.474
26835SOL    HW182344   7.162  12.793  11.546
26835SOL    HW282345   7.108  12.772  11.406
26836SOL     OW82346  12.539   7.132   4.519
26836SOL    HW182347  12.581   7.209   4.480
26836SOL    HW282348  12.523   7.157   4.610
26837SOL     OW82349   2.829   1.327   8.637
26837SOL    HW182350   2.917   1.366   8.644
26837SOL    HW282351   2.796   1.327   8.727
26838SOL     OW82352   5.082  11.409   9.864
26838SOL    HW182353   5.054  11.428   9.953
26838SOL    HW282354   5.178  11.414   9.867
26839SOL     OW82355   6.885  12.910   4.049
26839SOL    HW182356   6.926  12.838   4.001
26839SOL    HW282357   6.853  12.969   3.981
26840SOL     OW82358   0.568   3.442   4.583
26840SOL    HW182359   0.611   3.384   4.520
26840SOL    HW282360   0.542   3.384   4.655
26841SOL     OW82361  10.016   3.643   5.324
26841SOL    HW182362  10.014   3.727   5.279
26841SOL    HW282363   9.924   3.616   5.330
26842SOL     OW82364  12.807  11.180   1.780
26842SOL    HW182365  12.856  11.229   1.846
26842SOL    HW282366  12.867  11.172   1.706
26843SOL     OW82367   2.946   3.945   7.084
26843SOL    HW182368   2.954   3.876   7.019
26843SOL    HW282369   2.866   3.923   7.132
26844SOL     OW82370   5.931   0.371   1.522
26844SOL    HW182371   5.924   0.402   1.612
26844SOL    HW282372   5.848   0.325   1.507
26845SOL     OW82373   7.617  11.197  10.542
26845SOL    HW182374   7.709  11.197  10.516
26845SOL    HW282375   7.568  11.180  10.461
26846SOL     OW82376   6.408   0.191   4.952
26846SOL    HW182377   6.352   0.121   4.917
26846SOL    HW282378   6.481   0.145   4.992
26847SOL     OW82379   3.724   4.119   4.074
26847SOL    HW182380   3.634   4.101   4.047
26847SOL    HW282381   3.751   4.194   4.021
26848SOL     OW82382   4.895   1.203  13.279
26848SOL    HW182383   4.961   1.262  13.244
26848SOL    HW282384   4.834   1.188  13.207
26849SOL     OW82385  11.029   6.653   0.446
26849SOL    HW182386  11.110   6.655   0.497
26849SOL    HW282387  10.959   6.661   0.511
26850SOL     OW82388   3.904   4.590   4.015
26850SOL    HW182389   3.813   4.621   4.009
26850SOL    HW282390   3.956   4.670   4.022
26851SOL     OW82391   3.263   3.193   0.566
26851SOL    HW182392   3.339   3.152   0.608
26851SOL    HW282393   3.268   3.165   0.475
26852SOL     OW82394   8.415   8.765   5.366
26852SOL    HW182395   8.387   8.722   5.285
26852SOL    HW282396   8.452   8.695   5.419
26853SOL     OW82397   2.655   3.669  10.424
26853SOL    HW182398   2.566   3.679  10.392
26853SOL    HW282399   2.648   3.676  10.520
26854SOL     OW82400  11.358   3.422   1.398
26854SOL    HW182401  11.327   3.349   1.345
26854SOL    HW282402  11.357   3.497   1.338
26855SOL     OW82403   5.227   3.308  13.493
26855SOL    HW182404   5.222   3.376  13.425
26855SOL    HW282405   5.242   3.227  13.444
26856SOL     OW82406   8.842   3.912   7.260
26856SOL    HW182407   8.805   3.846   7.202
26856SOL    HW282408   8.935   3.914   7.238
26857SOL     OW82409   4.650   7.064  13.044
26857SOL    HW182410   4.692   7.087  13.127
26857SOL    HW282411   4.653   7.144  12.992
26858SOL     OW82412   0.910   3.847   6.171
26858SOL    HW182413   0.963   3.768   6.173
26858SOL    HW282414   0.869   3.850   6.258
26859SOL     OW82415   7.774  14.280   1.705
26859SOL    HW182416   7.773  14.375   1.693
26859SOL    HW282417   7.695  14.261   1.755
26860SOL     OW82418   9.581   2.982   0.843
26860SOL    HW182419   9.506   2.965   0.787
26860SOL    HW282420   9.548   2.971   0.932
26861SOL     OW82421   5.743   3.094   4.746
26861SOL    HW182422   5.759   3.186   4.764
26861SOL    HW282423   5.714   3.058   4.830
26862SOL     OW82424  12.166   5.560  14.130
26862SOL    HW182425  12.203   5.580  14.044
26862SOL    HW282426  12.145   5.646  14.167
26863SOL     OW82427  10.292  10.416   9.330
26863SOL    HW182428  10.365  10.473   9.306
26863SOL    HW282429  10.313  10.332   9.289
26864SOL     OW82430  10.984   4.061   7.701
26864SOL    HW182431  10.912   4.075   7.762
26864SOL    HW282432  11.052   4.122   7.730
26865SOL     OW82433  10.476  13.721   1.882
26865SOL    HW182434  10.547  13.784   1.872
26865SOL    HW282435  10.463  13.684   1.795
26866SOL     OW82436   0.415   6.223   6.057
26866SOL    HW182437   0.443   6.264   6.139
26866SOL    HW282438   0.455   6.136   6.060
26867SOL     OW82439   3.180   4.963   4.700
26867SOL    HW182440   3.241   4.947   4.771
26867SOL    HW282441   3.234   5.002   4.631
26868SOL     OW82442  14.321   3.333   4.625
26868SOL    HW182443  14.412   3.349   4.599
26868SOL    HW282444  14.305   3.394   4.697
26869SOL     OW82445  14.791   5.085   0.931
26869SOL    HW182446  14.777   5.013   0.870
26869SOL    HW282447   0.013   5.088   0.943
26870SOL     OW82448  13.896  14.863   6.768
26870SOL    HW182449  13.974  14.867   6.712
26870SOL    HW282450  13.850   0.072   6.751
26871SOL     OW82451  10.727  10.026  10.705
26871SOL    HW182452  10.692   9.937  10.713
26871SOL    HW282453  10.819  10.017  10.729
26872SOL     OW82454   2.625   4.379   9.604
26872SOL    HW182455   2.554   4.421   9.555
26872SOL    HW282456   2.590   4.369   9.693
26873SOL     OW82457  10.517   4.372   8.136
26873SOL    HW182458  10.527   4.399   8.227
26873SOL    HW282459  10.424   4.389   8.116
26874SOL     OW82460  13.933   0.250  13.460
26874SOL    HW182461  13.948   0.243  13.555
26874SOL    HW282462  13.905   0.341  13.447
26875SOL     OW82463   2.274  14.224   4.586
26875SOL    HW182464   2.268  14.156   4.654
26875SOL    HW282465   2.238  14.302   4.627
26876SOL     OW82466   0.152   5.061   6.463
26876SOL    HW182467   0.073   5.030   6.507
26876SOL    HW282468   0.210   4.985   6.462
26877SOL     OW82469   6.720  13.182   7.631
26877SOL    HW182470   6.723  13.127   7.552
26877SOL    HW282471   6.681  13.265   7.600
26878SOL     OW82472   0.680  10.374   6.091
26878SOL    HW182473   0.626  10.379   6.013
26878SOL    HW282474   0.675  10.282   6.118
26879SOL     OW82475   6.315  14.367   8.624
26879SOL    HW182476   6.243  14.304   8.615
26879SOL    HW282477   6.272  14.452   8.626
26880SOL     OW82478  11.179  12.336   2.522
26880SOL    HW182479  11.116  12.313   2.590
26880SOL    HW282480  11.261  12.353   2.569
26881SOL     OW82481   1.870   7.588  11.487
26881SOL    HW182482   1.907   7.509  11.524
26881SOL    HW282483   1.844   7.563  11.398
26882SOL     OW82484  11.227   3.819   0.159
26882SOL    HW182485  11.271   3.788   0.080
26882SOL    HW282486  11.232   3.915   0.153
26883SOL     OW82487  14.738  11.831  10.143
26883SOL    HW182488  14.806  11.768  10.165
26883SOL    HW282489  14.753  11.853  10.051
26884SOL     OW82490   8.356   7.789   6.669
26884SOL    HW182491   8.407   7.854   6.717
26884SOL    HW282492   8.410   7.768   6.592
26885SOL     OW82493  13.532  13.541  14.739
26885SOL    HW182494  13.456  13.597  14.757
26885SOL    HW282495  13.504  13.453  14.764
26886SOL     OW82496   4.745   1.208  13.057
26886SOL    HW182497   4.651   1.219  13.044
26886SOL    HW282498   4.784   1.279  13.006
26887SOL     OW82499  14.544   6.300  10.774
26887SOL    HW182500  14.512   6.297  10.863
26887SOL    HW282501  14.627   6.348  10.780
26888SOL     OW82502  10.496   2.917   1.585
26888SOL    HW182503  10.566   2.879   1.532
26888SOL    HW282504  10.519   3.009   1.594
26889SOL     OW82505  13.771  14.656   2.360
26889SOL    HW182506  13.687  14.701   2.372
26889SOL    HW282507  13.803  14.641   2.449
26890SOL     OW82508   8.738  13.201  10.701
26890SOL    HW182509   8.771  13.290  10.711
26890SOL    HW282510   8.750  13.180  10.609
26891SOL     OW82511  13.948  11.191   1.285
26891SOL    HW182512  13.939  11.204   1.190
26891SOL    HW282513  13.992  11.270   1.315
26892SOL     OW82514   4.644   0.580   4.012
26892SOL    HW182515   4.575   0.619   4.066
26892SOL    HW282516   4.714   0.644   4.011
26893SOL     OW82517   9.638   5.030  12.809
26893SOL    HW182518   9.658   5.098  12.874
26893SOL    HW282519   9.679   4.951  12.843
26894SOL     OW82520   8.856  11.322   8.812
26894SOL    HW182521   8.794  11.380   8.766
26894SOL    HW282522   8.821  11.314   8.901
26895SOL     OW82523  10.386   6.708   7.455
26895SOL    HW182524  10.310   6.686   7.510
26895SOL    HW282525  10.449   6.746   7.516
26896SOL     OW82526   5.533   6.251   2.971
26896SOL    HW182527   5.440   6.248   2.991
26896SOL    HW282528   5.561   6.160   2.970
26897SOL     OW82529   6.185  12.223  10.759
26897SOL    HW182530   6.240  12.275  10.701
26897SOL    HW282531   6.248  12.176  10.815
26898SOL     OW82532  13.110   4.634   1.915
26898SOL    HW182533  13.056   4.698   1.868
26898SOL    HW282534  13.077   4.637   2.005
26899SOL     OW82535   1.224   7.512   5.014
26899SOL    HW182536   1.188   7.599   5.029
26899SOL    HW282537   1.300   7.527   4.956
26900SOL     OW82538   7.575  14.144   2.183
26900SOL    HW182539   7.659  14.165   2.224
26900SOL    HW282540   7.579  14.050   2.167
26901SOL     OW82541   8.846   6.989   2.982
26901SOL    HW182542   8.812   7.066   3.026
26901SOL    HW282543   8.807   6.915   3.029
26902SOL     OW82544   8.130   1.460  13.143
26902SOL    HW182545   8.178   1.537  13.173
26902SOL    HW282546   8.041   1.493  13.127
26903SOL     OW82547  12.726  11.033  13.327
26903SOL    HW182548  12.656  11.096  13.308
26903SOL    HW282549  12.742  11.044  13.421
26904SOL     OW82550  11.362   7.144   2.008
26904SOL    HW182551  11.393   7.151   2.098
26904SOL    HW282552  11.404   7.216   1.962
26905SOL     OW82553   2.741   0.775  12.060
26905SOL    HW182554   2.801   0.737  12.124
26905SOL    HW282555   2.671   0.814  12.112
26906SOL     OW82556   4.450  11.017   7.663
26906SOL    HW182557   4.512  10.947   7.684
26906SOL    HW282558   4.505  11.091   7.637
26907SOL     OW82559   0.460   9.983   7.375
26907SOL    HW182560   0.481  10.076   7.383
26907SOL    HW282561   0.428   9.974   7.286
26908SOL     OW82562  12.350   2.415   2.394
26908SOL    HW182563  12.384   2.325   2.389
26908SOL    HW282564  12.406   2.458   2.458
26909SOL     OW82565  13.446  11.300   1.533
26909SOL    HW182566  13.503  11.294   1.457
26909SOL    HW282567  13.478  11.376   1.581
26910SOL     OW82568   2.470   6.475   3.967
26910SOL    HW182569   2.408   6.485   3.895
26910SOL    HW282570   2.427   6.415   4.028
26911SOL     OW82571  10.312   7.770  13.698
26911SOL    HW182572  10.325   7.849  13.645
26911SOL    HW282573  10.227   7.736  13.671
26912SOL     OW82574  12.125   2.757   6.040
26912SOL    HW182575  12.079   2.836   6.012
26912SOL    HW282576  12.061   2.710   6.094
26913SOL     OW82577   5.908   8.374  11.506
26913SOL    HW182578   5.942   8.367  11.595
26913SOL    HW282579   5.825   8.421  11.515
26914SOL     OW82580   5.316   9.019   0.386
26914SOL    HW182581   5.315   8.947   0.449
26914SOL    HW282582   5.404   9.016   0.349
26915SOL     OW82583  10.819   5.018  13.682
26915SOL    HW182584  10.745   5.033  13.741
26915SOL    HW282585  10.826   4.923  13.677
26916SOL     OW82586   8.433  11.140   8.727
26916SOL    HW182587   8.477  11.224   8.723
26916SOL    HW282588   8.407  11.122   8.636
26917SOL     OW82589   6.277   7.882   3.054
26917SOL    HW182590   6.359   7.891   3.103
26917SOL    HW282591   6.280   7.954   2.991
26918SOL     OW82592   2.842   5.976   6.213
26918SOL    HW182593   2.747   5.966   6.221
26918SOL    HW282594   2.859   6.067   6.234
26919SOL     OW82595   6.166  11.325  12.362
26919SOL    HW182596   6.096  11.323  12.296
26919SOL    HW282597   6.243  11.355  12.314
26920SOL     OW82598  14.716   0.632  13.113
26920SOL    HW182599  14.712   0.692  13.187
26920SOL    HW282600  14.624   0.616  13.090
26921SOL     OW82601   6.112   7.826   3.556
26921SOL    HW182602   6.133   7.744   3.510
26921SOL    HW282603   6.193   7.850   3.600
26922SOL     OW82604   6.921   6.383   6.233
26922SOL    HW182605   6.912   6.289   6.248
26922SOL    HW282606   6.991   6.411   6.292
26923SOL     OW82607  11.072   9.999  10.387
26923SOL    HW182608  11.112   9.913  10.402
26923SOL    HW282609  11.073  10.010  10.292
26924SOL     OW82610   3.139   0.965  13.448
26924SOL    HW182611   3.116   1.049  13.409
26924SOL    HW282612   3.221   0.940  13.406
26925SOL     OW82613  11.508   2.702   2.933
26925SOL    HW182614  11.533   2.710   3.025
26925SOL    HW282615  11.590   2.710   2.885
26926SOL     OW82616  14.115   6.463   1.732
26926SOL    HW182617  14.179   6.466   1.661
26926SOL    HW282618  14.060   6.540   1.718
26927SOL     OW82619   2.885   9.603   7.880
26927SOL    HW182620   2.796   9.630   7.856
26927SOL    HW282621   2.875   9.513   7.911
26928SOL     OW82622   9.168   7.365   8.804
26928SOL    HW182623   9.076   7.344   8.819
26928SOL    HW282624   9.176   7.458   8.826
26929SOL     OW82625   7.084  11.758   4.508
26929SOL    HW182626   6.997  11.754   4.468
26929SOL    HW282627   7.076  11.707   4.588
26930SOL     OW82628  11.091   3.117  10.513
26930SOL    HW182629  11.101   3.153  10.425
26930SOL    HW282630  11.168   3.149  10.561
26931SOL     OW82631  10.552   7.665   3.041
26931SOL    HW182632  10.644   7.667   3.070
26931SOL    HW282633  10.533   7.755   3.015
26932SOL     OW82634   1.356   3.657   6.377
26932SOL    HW182635   1.409   3.607   6.438
26932SOL    HW282636   1.374   3.749   6.399
26933SOL     OW82637   2.090   4.917  12.760
26933SOL    HW182638   2.010   4.868  12.780
26933SOL    HW282639   2.150   4.894  12.831
26934SOL     OW82640   6.991   9.951   2.506
26934SOL    HW182641   7.042  10.022   2.545
26934SOL    HW282642   7.054   9.880   2.492
26935SOL     OW82643   4.169   5.840   6.186
26935SOL    HW182644   4.179   5.778   6.114
26935SOL    HW282645   4.234   5.813   6.251
26936SOL     OW82646  11.007   5.154   9.499
26936SOL    HW182647  11.032   5.191   9.584
26936SOL    HW282648  10.957   5.075   9.521
26937SOL     OW82649   5.799   9.400  11.497
26937SOL    HW182650   5.893   9.408  11.480
26937SOL    HW282651   5.771   9.327  11.442
26938SOL     OW82652  10.320  12.913   8.681
26938SOL    HW182653  10.387  12.972   8.717
26938SOL    HW282654  10.366  12.863   8.614
26939SOL     OW82655   9.432   3.037   5.883
26939SOL    HW182656   9.523   3.019   5.856
26939SOL    HW282657   9.440   3.069   5.973
26940SOL     OW82658  12.353   0.499   5.744
26940SOL    HW182659  12.342   0.574   5.686
26940SOL    HW282660  12.337   0.533   5.831
26941SOL     OW82661   1.041   3.778   7.836
26941SOL    HW182662   1.024   3.738   7.751
26941SOL    HW282663   0.960   3.763   7.886
26942SOL     OW82664   3.016   7.319  12.212
26942SOL    HW182665   2.995   7.230  12.240
26942SOL    HW282666   3.108   7.331  12.236
26943SOL     OW82667   4.106   3.490   2.958
26943SOL    HW182668   4.046   3.440   3.013
26943SOL    HW282669   4.050   3.529   2.891
26944SOL     OW82670  12.703  10.902  13.045
26944SOL    HW182671  12.702  10.973  12.981
26944SOL    HW282672  12.761  10.934  13.115
26945SOL     OW82673   3.619   4.708   0.919
26945SOL    HW182674   3.649   4.694   0.829
26945SOL    HW282675   3.542   4.652   0.927
26946SOL     OW82676   2.821   1.815   1.726
26946SOL    HW182677   2.806   1.837   1.634
26946SOL    HW282678   2.776   1.884   1.774
26947SOL     OW82679   7.606   3.416   5.771
26947SOL    HW182680   7.666   3.434   5.698
26947SOL    HW282681   7.570   3.329   5.751
26948SOL     OW82682  10.745   1.174   7.004
26948SOL    HW182683  10.706   1.091   7.029
26948SOL    HW282684  10.673   1.223   6.963
26949SOL     OW82685  10.531   6.535  11.304
26949SOL    HW182686  10.568   6.603  11.360
26949SOL    HW282687  10.606   6.479  11.282
26950SOL     OW82688   0.503   3.036   3.053
26950SOL    HW182689   0.435   3.048   2.986
26950SOL    HW282690   0.456   2.997   3.127
26951SOL     OW82691  12.408  14.147  10.611
26951SOL    HW182692  12.363  14.130  10.694
26951SOL    HW282693  12.405  14.063  10.565
26952SOL     OW82694  10.721   2.249  14.477
26952SOL    HW182695  10.663   2.316  14.513
26952SOL    HW282696  10.789   2.298  14.432
26953SOL     OW82697   0.553   8.354  12.309
26953SOL    HW182698   0.464   8.329  12.287
26953SOL    HW282699   0.559   8.345  12.404
26954SOL     OW82700  10.676   7.776  13.112
26954SOL    HW182701  10.667   7.860  13.158
26954SOL    HW282702  10.681   7.799  13.020
26955SOL     OW82703  10.248   0.367   6.387
26955SOL    HW182704  10.238   0.381   6.292
26955SOL    HW282705  10.291   0.281   6.394
26956SOL     OW82706  13.029  12.416  13.350
26956SOL    HW182707  13.124  12.424  13.357
26956SOL    HW282708  13.011  12.412  13.256
26957SOL     OW82709  10.785   3.641   6.040
26957SOL    HW182710  10.858   3.619   6.097
26957SOL    HW282711  10.823   3.699   5.973
26958SOL     OW82712   3.084   9.885   2.739
26958SOL    HW182713   3.034   9.956   2.699
26958SOL    HW282714   3.144   9.929   2.799
26959SOL     OW82715   1.649   8.978   8.095
26959SOL    HW182716   1.743   8.956   8.095
26959SOL    HW282717   1.607   8.902   8.136
26960SOL     OW82718   6.571  13.374   8.091
26960SOL    HW182719   6.522  13.338   8.165
26960SOL    HW282720   6.637  13.431   8.132
26961SOL     OW82721  10.080   9.567   3.570
26961SOL    HW182722  10.060   9.474   3.581
26961SOL    HW282723  10.171   9.568   3.542
26962SOL     OW82724  11.715   0.331   1.215
26962SOL    HW182725  11.709   0.418   1.175
26962SOL    HW282726  11.662   0.275   1.157
26963SOL     OW82727  13.079  10.583  11.515
26963SOL    HW182728  13.100  10.666  11.559
26963SOL    HW282729  13.022  10.608  11.442
26964SOL     OW82730  13.677   8.279  13.789
26964SOL    HW182731  13.647   8.255  13.876
26964SOL    HW282732  13.771   8.261  13.789
26965SOL     OW82733   2.164   7.681   5.223
26965SOL    HW182734   2.170   7.747   5.292
26965SOL    HW282735   2.110   7.612   5.261
26966SOL     OW82736   2.418   4.849  12.499
26966SOL    HW182737   2.387   4.796  12.573
26966SOL    HW282738   2.361   4.926  12.499
26967SOL     OW82739   1.706  13.294   8.984
26967SOL    HW182740   1.688  13.254   8.899
26967SOL    HW282741   1.621  13.329   9.013
26968SOL     OW82742  12.335   7.016   1.337
26968SOL    HW182743  12.274   7.042   1.267
26968SOL    HW282744  12.280   6.967   1.398
26969SOL     OW82745  12.273   5.119   8.961
26969SOL    HW182746  12.206   5.175   9.000
26969SOL    HW282747  12.227   5.071   8.892
26970SOL     OW82748  14.420   3.973  12.283
26970SOL    HW182749  14.361   4.048  12.292
26970SOL    HW282750  14.371   3.909  12.232
26971SOL     OW82751  13.779   5.953   8.464
26971SOL    HW182752  13.807   5.899   8.390
26971SOL    HW282753  13.713   5.900   8.509
26972SOL     OW82754  14.596  12.347  10.648
26972SOL    HW182755  14.546  12.296  10.584
26972SOL    HW282756  14.647  12.283  10.696
26973SOL     OW82757   3.583   2.597   1.180
26973SOL    HW182758   3.649   2.635   1.237
26973SOL    HW282759   3.570   2.508   1.214
26974SOL     OW82760   7.369  14.342   9.714
26974SOL    HW182761   7.353  14.247   9.716
26974SOL    HW282762   7.454  14.353   9.758
26975SOL     OW82763   1.178   0.411   7.677
26975SOL    HW182764   1.086   0.429   7.694
26975SOL    HW282765   1.181   0.385   7.585
26976SOL     OW82766   7.113   6.819   2.767
26976SOL    HW182767   7.035   6.824   2.712
26976SOL    HW282768   7.087   6.858   2.850
26977SOL     OW82769   2.976   9.206   5.871
26977SOL    HW182770   2.896   9.185   5.920
26977SOL    HW282771   2.986   9.300   5.881
26978SOL     OW82772  14.201  13.546   1.429
26978SOL    HW182773  14.130  13.484   1.411
26978SOL    HW282774  14.234  13.521   1.515
26979SOL     OW82775   5.171  12.512   1.148
26979SOL    HW182776   5.172  12.607   1.136
26979SOL    HW282777   5.248  12.482   1.099
26980SOL     OW82778  11.789   3.847   3.416
26980SOL    HW182779  11.701   3.820   3.443
26980SOL    HW282780  11.840   3.767   3.419
26981SOL     OW82781   5.669   3.582  10.443
26981SOL    HW182782   5.715   3.543  10.517
26981SOL    HW282783   5.630   3.662  10.478
26982SOL     OW82784   3.133   2.522   6.049
26982SOL    HW182785   3.226   2.507   6.066
26982SOL    HW282786   3.127   2.616   6.034
26983SOL     OW82787   5.110   7.877   3.409
26983SOL    HW182788   5.014   7.877   3.404
26983SOL    HW282789   5.129   7.847   3.497
26984SOL     OW82790  14.342   2.861   2.259
26984SOL    HW182791  14.434   2.837   2.272
26984SOL    HW282792  14.344   2.923   2.186
26985SOL     OW82793  10.280   6.035   8.053
26985SOL    HW182794  10.345   5.985   8.003
26985SOL    HW282795  10.197   6.018   8.009
26986SOL     OW82796  13.179   7.418  14.452
26986SOL    HW182797  13.130   7.485  14.500
26986SOL    HW282798  13.259   7.462  14.423
26987SOL     OW82799   6.291  12.687   7.233
26987SOL    HW182800   6.243  12.732   7.302
26987SOL    HW282801   6.376  12.668   7.273
26988SOL     OW82802   6.492   0.097   2.083
26988SOL    HW182803   6.561   0.144   2.130
26988SOL    HW282804   6.422   0.160   2.072
26989SOL     OW82805   5.058   0.038  14.001
26989SOL    HW182806   5.037   0.021  13.909
26989SOL    HW282807   4.983   0.004  14.049
26990SOL     OW82808   6.176  13.535   3.980
26990SOL    HW182809   6.173  13.624   4.015
26990SOL    HW282810   6.232  13.542   3.903
26991SOL     OW82811   9.632  12.242  10.918
26991SOL    HW182812   9.717  12.245  10.961
26991SOL    HW282813   9.569  12.263  10.987
26992SOL     OW82814   5.968   6.416   7.979
26992SOL    HW182815   5.928   6.483   8.035
26992SOL    HW282816   5.895   6.356   7.958
26993SOL     OW82817   0.401  11.851   4.894
26993SOL    HW182818   0.401  11.870   4.988
26993SOL    HW282819   0.443  11.766   4.887
26994SOL     OW82820   7.478   9.213   9.061
26994SOL    HW182821   7.490   9.212   9.156
26994SOL    HW282822   7.388   9.182   9.048
26995SOL     OW82823   9.283  12.899   8.554
26995SOL    HW182824   9.196  12.869   8.528
26995SOL    HW282825   9.284  12.992   8.530
26996SOL     OW82826   7.790  11.063  13.690
26996SOL    HW182827   7.874  11.086  13.652
26996SOL    HW282828   7.811  11.036  13.780
26997SOL     OW82829  13.166  13.651  13.538
26997SOL    HW182830  13.183  13.631  13.630
26997SOL    HW282831  13.216  13.731  13.521
26998SOL     OW82832  12.824   3.007  14.666
26998SOL    HW182833  12.853   2.962  14.745
26998SOL    HW282834  12.728   3.004  14.671
26999SOL     OW82835  10.130   3.382  14.764
26999SOL    HW182836  10.095   3.395  14.676
26999SOL    HW282837  10.054   3.388  14.822
27000SOL     OW82838   3.159   6.019   4.028
27000SOL    HW182839   3.250   6.003   4.005
27000SOL    HW282840   3.121   6.061   3.951
27001SOL     OW82841   3.584  10.120  10.068
27001SOL    HW182842   3.622  10.208  10.072
27001SOL    HW282843   3.593  10.095   9.976
27002SOL     OW82844   0.208  11.163   8.272
27002SOL    HW182845   0.175  11.249   8.299
27002SOL    HW282846   0.192  11.107   8.348
27003SOL     OW82847   5.839  14.244   5.775
27003SOL    HW182848   5.825  14.219   5.867
27003SOL    HW282849   5.917  14.194   5.749
27004SOL     OW82850   6.831  11.365  10.241
27004SOL    HW182851   6.736  11.369  10.246
27004SOL    HW282852   6.858  11.453  10.215
27005SOL     OW82853   5.274  13.107   5.947
27005SOL    HW182854   5.272  13.092   6.042
27005SOL    HW282855   5.313  13.027   5.911
27006SOL     OW82856  10.778  11.580   6.441
27006SOL    HW182857  10.847  11.513   6.442
27006SOL    HW282858  10.825  11.662   6.427
27007SOL     OW82859   3.962   0.471  10.513
27007SOL    HW182860   3.995   0.398  10.461
27007SOL    HW282861   3.870   0.479  10.488
27008SOL     OW82862  12.505   1.986   1.171
27008SOL    HW182863  12.556   1.905   1.169
27008SOL    HW282864  12.508   2.014   1.263
27009SOL     OW82865   6.051   6.264   9.263
27009SOL    HW182866   6.140   6.235   9.284
27009SOL    HW282867   6.049   6.356   9.289
27010SOL     OW82868   7.340   9.708   6.840
27010SOL    HW182869   7.259   9.668   6.808
27010SOL    HW282870   7.311   9.778   6.898
27011SOL     OW82871  10.357  13.042   9.449
27011SOL    HW182872  10.370  12.949   9.432
27011SOL    HW282873  10.445  13.079   9.450
27012SOL     OW82874  12.964  13.722  12.796
27012SOL    HW182875  13.016  13.676  12.729
27012SOL    HW282876  13.008  13.700  12.878
27013SOL     OW82877   6.090   0.161   3.343
27013SOL    HW182878   6.032   0.094   3.379
27013SOL    HW282879   6.178   0.125   3.353
27014SOL     OW82880  11.095   4.570   4.605
27014SOL    HW182881  11.085   4.562   4.700
27014SOL    HW282882  11.165   4.633   4.592
27015SOL     OW82883   8.541  14.828   9.149
27015SOL    HW182884   8.558  14.776   9.227
27015SOL    HW282885   8.447  14.818   9.133
27016SOL     OW82886   1.585   6.471   8.449
27016SOL    HW182887   1.566   6.526   8.373
27016SOL    HW282888   1.521   6.400   8.445
27017SOL     OW82889  12.753   0.448  14.318
27017SOL    HW182890  12.806   0.380  14.277
27017SOL    HW282891  12.768   0.438  14.412
27018SOL     OW82892   5.561   6.594   4.061
27018SOL    HW182893   5.552   6.547   4.144
27018SOL    HW282894   5.492   6.558   4.006
27019SOL     OW82895   8.182   8.941   7.273
27019SOL    HW182896   8.087   8.939   7.284
27019SOL    HW282897   8.213   8.864   7.321
27020SOL     OW82898   2.873  11.945   9.092
27020SOL    HW182899   2.881  12.037   9.116
27020SOL    HW282900   2.914  11.939   9.006
27021SOL     OW82901   4.737  14.311   2.163
27021SOL    HW182902   4.680  14.260   2.221
27021SOL    HW282903   4.730  14.268   2.078
27022SOL     OW82904  10.725   4.483   8.775
27022SOL    HW182905  10.644   4.484   8.724
27022SOL    HW282906  10.741   4.390   8.792
27023SOL     OW82907  11.892   0.609   9.654
27023SOL    HW182908  11.901   0.608   9.749
27023SOL    HW282909  11.800   0.632   9.640
27024SOL     OW82910   8.086   6.592   9.536
27024SOL    HW182911   7.993   6.612   9.552
27024SOL    HW282912   8.119   6.668   9.490
27025SOL     OW82913   8.220   5.552  13.841
27025SOL    HW182914   8.137   5.559  13.887
27025SOL    HW282915   8.202   5.585  13.753
27026SOL     OW82916   4.849  11.863   5.932
27026SOL    HW182917   4.903  11.830   5.860
27026SOL    HW282918   4.858  11.958   5.927
27027SOL     OW82919   2.081   0.263   7.876
27027SOL    HW182920   2.127   0.340   7.842
27027SOL    HW282921   2.148   0.214   7.924
27028SOL     OW82922   0.144   3.092   9.252
27028SOL    HW182923   0.130   3.020   9.191
27028SOL    HW282924   0.172   3.049   9.333
27029SOL     OW82925  11.581   9.932   1.816
27029SOL    HW182926  11.490   9.934   1.846
27029SOL    HW282927  11.598  10.020   1.785
27030SOL     OW82928   6.561   9.710  11.360
27030SOL    HW182929   6.581   9.801  11.336
27030SOL    HW282930   6.566   9.709  11.456
27031SOL     OW82931  12.660   8.146   7.867
27031SOL    HW182932  12.732   8.178   7.921
27031SOL    HW282933  12.650   8.211   7.798
27032SOL     OW82934   5.893   7.610  14.226
27032SOL    HW182935   5.975   7.596  14.273
27032SOL    HW282936   5.902   7.557  14.147
27033SOL     OW82937  12.794  10.194   9.706
27033SOL    HW182938  12.722  10.245   9.742
27033SOL    HW282939  12.792  10.111   9.754
27034SOL     OW82940   6.734   2.408  10.713
27034SOL    HW182941   6.800   2.339  10.707
27034SOL    HW282942   6.651   2.362  10.720
27035SOL     OW82943   1.390   3.455  11.698
27035SOL    HW182944   1.357   3.540  11.668
27035SOL    HW282945   1.335   3.435  11.774
27036SOL     OW82946   8.524   8.195  11.510
27036SOL    HW182947   8.468   8.268  11.537
27036SOL    HW282948   8.466   8.119  11.506
27037SOL     OW82949   1.601   2.892   7.003
27037SOL    HW182950   1.538   2.927   6.941
27037SOL    HW282951   1.548   2.850   7.070
27038SOL     OW82952   0.633   3.451   8.335
27038SOL    HW182953   0.620   3.471   8.428
27038SOL    HW282954   0.637   3.536   8.292
27039SOL     OW82955   4.307  10.647   7.370
27039SOL    HW182956   4.352  10.615   7.449
27039SOL    HW282957   4.369  10.708   7.330
27040SOL     OW82958  12.636  13.955   5.422
27040SOL    HW182959  12.569  13.968   5.490
27040SOL    HW282960  12.598  13.888   5.364
27041SOL     OW82961   5.297  12.415   0.807
27041SOL    HW182962   5.309  12.382   0.718
27041SOL    HW282963   5.378  12.392   0.852
27042SOL     OW82964  14.429   5.645   6.122
27042SOL    HW182965  14.488   5.649   6.047
27042SOL    HW282966  14.351   5.693   6.095
27043SOL     OW82967  11.597   2.118   8.676
27043SOL    HW182968  11.693   2.124   8.678
27043SOL    HW282969  11.570   2.133   8.766
27044SOL     OW82970  11.810   7.282  12.329
27044SOL    HW182971  11.764   7.362  12.305
27044SOL    HW282972  11.871   7.267  12.258
27045SOL     OW82973   4.048   8.985  13.470
27045SOL    HW182974   3.953   8.995  13.480
27045SOL    HW282975   4.059   8.951  13.381
27046SOL     OW82976  12.001  14.086   8.487
27046SOL    HW182977  11.927  14.059   8.541
27046SOL    HW282978  12.076  14.042   8.526
27047SOL     OW82979   9.473   8.190   1.703
27047SOL    HW182980   9.475   8.251   1.629
27047SOL    HW282981   9.405   8.225   1.761
27048SOL     OW82982   8.354   2.773   4.202
27048SOL    HW182983   8.419   2.761   4.272
27048SOL    HW282984   8.401   2.748   4.122
27049SOL     OW82985   9.120   1.492  10.491
27049SOL    HW182986   9.050   1.543  10.532
27049SOL    HW282987   9.181   1.475  10.562
27050SOL     OW82988  10.481  11.494   1.065
27050SOL    HW182989  10.436  11.523   0.986
27050SOL    HW282990  10.413  11.449   1.116
27051SOL     OW82991   3.224  10.686  10.395
27051SOL    HW182992   3.265  10.609  10.436
27051SOL    HW282993   3.174  10.726  10.466
27052SOL     OW82994   1.238   7.066   3.419
27052SOL    HW182995   1.267   7.037   3.333
27052SOL    HW282996   1.299   7.137   3.442
27053SOL     OW82997   8.464  10.641   2.330
27053SOL    HW182998   8.530  10.676   2.390
27053SOL    HW282999   8.506  10.642   2.244
27054SOL     OW83000  10.713   6.909  12.492
27054SOL    HW183001  10.697   6.949  12.407
27054SOL    HW283002  10.742   6.820  12.472
27055SOL     OW83003   1.972   5.858  10.601
27055SOL    HW183004   1.974   5.867  10.696
27055SOL    HW283005   2.063   5.873  10.574
27056SOL     OW83006   4.751  10.036   1.095
27056SOL    HW183007   4.728  10.040   1.187
27056SOL    HW283008   4.725   9.948   1.067
27057SOL     OW83009   2.202   1.794   1.835
27057SOL    HW183010   2.270   1.728   1.846
27057SOL    HW283011   2.120   1.744   1.828
27058SOL     OW83012  13.525   9.063   2.967
27058SOL    HW183013  13.493   9.135   2.912
27058SOL    HW283014  13.578   9.010   2.908
27059SOL     OW83015   4.618  12.658   9.797
27059SOL    HW183016   4.586  12.621   9.880
27059SOL    HW283017   4.697  12.608   9.777
27060SOL     OW83018  13.752   5.827   4.781
27060SOL    HW183019  13.811   5.899   4.759
27060SOL    HW283020  13.802   5.773   4.843
27061SOL     OW83021  10.573  11.666   1.340
27061SOL    HW183022  10.650  11.720   1.359
27061SOL    HW283023  10.592  11.581   1.380
27062SOL     OW83024  14.451   9.643   2.800
27062SOL    HW183025  14.425   9.555   2.774
27062SOL    HW283026  14.458   9.692   2.718
27063SOL     OW83027   6.987   6.506   9.264
27063SOL    HW183028   7.014   6.416   9.246
27063SOL    HW283029   6.941   6.501   9.348
27064SOL     OW83030  10.909   7.252   7.084
27064SOL    HW183031  10.887   7.163   7.058
27064SOL    HW283032  10.979   7.241   7.148
27065SOL     OW83033   3.507   9.477   2.444
27065SOL    HW183034   3.565   9.533   2.494
27065SOL    HW283035   3.549   9.469   2.358
27066SOL     OW83036   9.754   5.882   4.941
27066SOL    HW183037   9.843   5.892   4.974
27066SOL    HW283038   9.698   5.900   5.016
27067SOL     OW83039  12.401   8.370  14.556
27067SOL    HW183040  12.376   8.455  14.521
27067SOL    HW283041  12.414   8.315  14.479
27068SOL     OW83042   8.060  14.753  11.936
27068SOL    HW183043   8.001  14.729  11.864
27068SOL    HW283044   8.111  14.673  11.952
27069SOL     OW83045   9.888   6.609  13.376
27069SOL    HW183046   9.914   6.699  13.393
27069SOL    HW283047   9.798   6.614  13.346
27070SOL     OW83048   7.320  11.981   2.479
27070SOL    HW183049   7.345  12.014   2.393
27070SOL    HW283050   7.377  11.906   2.494
27071SOL     OW83051   1.549   0.957   6.001
27071SOL    HW183052   1.616   1.019   6.029
27071SOL    HW283053   1.532   0.904   6.079
27072SOL     OW83054  13.049   0.656  10.167
27072SOL    HW183055  13.069   0.563  10.178
27072SOL    HW283056  13.132   0.696  10.141
27073SOL     OW83057  11.376   3.850   6.153
27073SOL    HW183058  11.462   3.884   6.127
27073SOL    HW283059  11.389   3.756   6.160
27074SOL     OW83060  12.523   6.726  11.368
27074SOL    HW183061  12.591   6.762  11.425
27074SOL    HW283062  12.497   6.644  11.409
27075SOL     OW83063   0.888   0.069  10.442
27075SOL    HW183064   0.868   0.044  10.352
27075SOL    HW283065   0.909  14.860  10.486
27076SOL     OW83066   2.090   7.495  12.100
27076SOL    HW183067   2.020   7.535  12.150
27076SOL    HW283068   2.064   7.507  12.009
27077SOL     OW83069   1.122   9.724   7.788
27077SOL    HW183070   1.195   9.747   7.731
27077SOL    HW283071   1.112   9.629   7.778
27078SOL     OW83072   8.556   8.451   2.645
27078SOL    HW183073   8.610   8.375   2.663
27078SOL    HW283074   8.502   8.426   2.570
27079SOL     OW83075   2.770  10.967   8.544
27079SOL    HW183076   2.739  11.003   8.461
27079SOL    HW283077   2.720  10.886   8.555
27080SOL     OW83078   7.319   1.457   0.850
27080SOL    HW183079   7.281   1.504   0.924
27080SOL    HW283080   7.309   1.516   0.775
27081SOL     OW83081  13.894  13.284  10.255
27081SOL    HW183082  13.990  13.284  10.253
27081SOL    HW283083  13.872  13.287  10.348
27082SOL     OW83084  12.258   6.867  12.977
27082SOL    HW183085  12.327   6.840  13.037
27082SOL    HW283086  12.254   6.797  12.912
27083SOL     OW83087  12.931   1.941   8.786
27083SOL    HW183088  12.931   1.936   8.690
27083SOL    HW283089  12.838   1.947   8.809
27084SOL     OW83090   9.852   9.058   7.594
27084SOL    HW183091   9.803   8.989   7.640
27084SOL    HW283092   9.840   9.039   7.502
27085SOL     OW83093  14.614   5.701   5.014
27085SOL    HW183094  14.579   5.655   5.090
27085SOL    HW283095  14.537   5.724   4.962
27086SOL     OW83096   3.010  14.799   5.640
27086SOL    HW183097   3.029  14.851   5.561
27086SOL    HW283098   3.095  14.787   5.682
27087SOL     OW83099   6.702  13.486  13.311
27087SOL    HW183100   6.757  13.419  13.351
27087SOL    HW283101   6.748  13.512  13.231
27088SOL     OW83102   0.771   7.265  10.058
27088SOL    HW183103   0.759   7.233  10.148
27088SOL    HW283104   0.685   7.253  10.017
27089SOL     OW83105   4.659  12.313   4.200
27089SOL    HW183106   4.668  12.219   4.213
27089SOL    HW283107   4.566  12.327   4.186
27090SOL     OW83108   9.771   1.705  14.598
27090SOL    HW183109   9.721   1.626  14.579
27090SOL    HW283110   9.861   1.684  14.574
27091SOL     OW83111  11.375   3.390   5.891
27091SOL    HW183112  11.455   3.401   5.941
27091SOL    HW283113  11.343   3.303   5.916
27092SOL     OW83114   6.511  14.201   7.924
27092SOL    HW183115   6.595  14.225   7.963
27092SOL    HW283116   6.534  14.146   7.849
27093SOL     OW83117  10.574   9.635   0.326
27093SOL    HW183118  10.544   9.565   0.268
27093SOL    HW283119  10.670   9.634   0.317
27094SOL     OW83120  13.967   0.893   8.238
27094SOL    HW183121  14.059   0.867   8.247
27094SOL    HW283122  13.935   0.840   8.165
27095SOL     OW83123   5.229   1.632   3.511
27095SOL    HW183124   5.261   1.645   3.422
27095SOL    HW283125   5.164   1.563   3.504
27096SOL     OW83126  12.466   7.283   7.243
27096SOL    HW183127  12.441   7.336   7.320
27096SOL    HW283128  12.424   7.328   7.169
27097SOL     OW83129   6.055  10.176   9.760
27097SOL    HW183130   6.035  10.155   9.668
27097SOL    HW283131   6.075  10.091   9.799
27098SOL     OW83132   0.721  14.024   8.691
27098SOL    HW183133   0.794  13.998   8.634
27098SOL    HW283134   0.658  14.066   8.633
27099SOL     OW83135   3.899   0.827   4.953
27099SOL    HW183136   3.930   0.752   5.005
27099SOL    HW283137   3.905   0.797   4.862
27100SOL     OW83138  12.910  13.320  12.865
27100SOL    HW183139  12.998  13.356  12.880
27100SOL    HW283140  12.861  13.392  12.825
27101SOL     OW83141   0.896   3.259  10.462
27101SOL    HW183142   0.844   3.248  10.541
27101SOL    HW283143   0.897   3.172  10.422
27102SOL     OW83144  14.411  13.570  10.208
27102SOL    HW183145  14.395  13.659  10.176
27102SOL    HW283146  14.325  13.535  10.228
27103SOL     OW83147   5.899   0.279   5.767
27103SOL    HW183148   5.823   0.241   5.811
27103SOL    HW283149   5.948   0.204   5.734
27104SOL     OW83150   5.830  12.282   2.779
27104SOL    HW183151   5.861  12.256   2.692
27104SOL    HW283152   5.867  12.369   2.791
27105SOL     OW83153  10.918   7.464   0.615
27105SOL    HW183154  10.974   7.484   0.690
27105SOL    HW283155  10.831   7.452   0.653
27106SOL     OW83156   9.004   5.216  14.526
27106SOL    HW183157   8.928   5.190  14.578
27106SOL    HW283158   9.059   5.266  14.586
27107SOL     OW83159  14.536   0.516   6.953
27107SOL    HW183160  14.536   0.543   7.045
27107SOL    HW283161  14.505   0.594   6.906
27108SOL     OW83162  13.651  12.844   2.914
27108SOL    HW183163  13.732  12.807   2.879
27108SOL    HW283164  13.597  12.768   2.937
27109SOL     OW83165  11.437   8.795   5.778
27109SOL    HW183166  11.439   8.884   5.815
27109SOL    HW283167  11.479   8.741   5.845
27110SOL     OW83168  12.815  13.076   7.249
27110SOL    HW183169  12.780  13.021   7.179
27110SOL    HW283170  12.897  13.110   7.214
27111SOL     OW83171  11.617  13.883  10.514
27111SOL    HW183172  11.608  13.978  10.512
27111SOL    HW283173  11.684  13.863  10.448
27112SOL     OW83174   7.317   8.299   6.230
27112SOL    HW183175   7.233   8.314   6.187
27112SOL    HW283176   7.301   8.316   6.322
27113SOL     OW83177   0.669  12.071   6.809
27113SOL    HW183178   0.729  12.113   6.748
27113SOL    HW283179   0.605  12.027   6.753
27114SOL     OW83180   5.011  14.669   9.005
27114SOL    HW183181   4.930  14.621   9.021
27114SOL    HW283182   4.982  14.757   8.982
27115SOL     OW83183  10.823  12.181  13.555
27115SOL    HW183184  10.899  12.217  13.509
27115SOL    HW283185  10.838  12.087  13.557
27116SOL     OW83186   1.241  14.728   3.452
27116SOL    HW183187   1.254  14.822   3.462
27116SOL    HW283188   1.147  14.719   3.439
27117SOL     OW83189   2.594  12.053   1.626
27117SOL    HW183190   2.570  12.072   1.535
27117SOL    HW283191   2.688  12.070   1.630
27118SOL     OW83192  11.541   9.213  14.462
27118SOL    HW183193  11.521   9.136  14.409
27118SOL    HW283194  11.615   9.186  14.517
27119SOL     OW83195  14.846   1.849   5.858
27119SOL    HW183196   0.007   1.939   5.853
27119SOL    HW283197  14.753   1.859   5.876
27120SOL     OW83198   8.641   4.114  13.524
27120SOL    HW183199   8.680   4.126  13.438
27120SOL    HW283200   8.549   4.137  13.513
27121SOL     OW83201  12.054  12.661  10.817
27121SOL    HW183202  12.033  12.640  10.908
27121SOL    HW283203  11.986  12.618  10.766
27122SOL     OW83204   2.895  12.657   5.445
27122SOL    HW183205   2.930  12.569   5.459
27122SOL    HW283206   2.971  12.714   5.448
27123SOL     OW83207   7.251   8.811   5.471
27123SOL    HW183208   7.189   8.872   5.511
27123SOL    HW283209   7.300   8.774   5.545
27124SOL     OW83210   0.651   7.317   2.567
27124SOL    HW183211   0.676   7.258   2.637
27124SOL    HW283212   0.715   7.301   2.497
27125SOL     OW83213  10.158  14.770   4.555
27125SOL    HW183214  10.066  14.793   4.571
27125SOL    HW283215  10.166  14.680   4.586
27126SOL     OW83216   3.330   8.879  12.803
27126SOL    HW183217   3.262   8.901  12.866
27126SOL    HW283218   3.400   8.942  12.821
27127SOL     OW83219   3.371   9.507  13.070
27127SOL    HW183220   3.436   9.465  13.126
27127SOL    HW283221   3.410   9.506  12.983
27128SOL     OW83222   2.041  14.447  13.070
27128SOL    HW183223   1.957  14.464  13.114
27128SOL    HW283224   2.103  14.504  13.115
27129SOL     OW83225   9.745  13.494   2.961
27129SOL    HW183226   9.733  13.524   3.051
27129SOL    HW283227   9.713  13.566   2.907
27130SOL     OW83228   6.761  10.031   0.259
27130SOL    HW183229   6.700  10.068   0.322
27130SOL    HW283230   6.844  10.025   0.306
27131SOL     OW83231   9.636   4.352  12.434
27131SOL    HW183232   9.655   4.318  12.346
27131SOL    HW283233   9.722   4.355  12.477
27132SOL     OW83234   1.574   2.895   4.790
27132SOL    HW183235   1.490   2.850   4.777
27132SOL    HW283236   1.634   2.849   4.732
27133SOL     OW83237   4.728  13.980  11.900
27133SOL    HW183238   4.705  13.950  11.988
27133SOL    HW283239   4.728  14.076  11.907
27134SOL     OW83240  14.588  11.152   2.495
27134SOL    HW183241  14.507  11.203   2.499
27134SOL    HW283242  14.630  11.167   2.580
27135SOL     OW83243   1.852   2.807  14.426
27135SOL    HW183244   1.789   2.857  14.375
27135SOL    HW283245   1.913   2.771  14.362
27136SOL     OW83246  12.871  13.058   7.725
27136SOL    HW183247  12.797  13.062   7.786
27136SOL    HW283248  12.842  13.000   7.656
27137SOL     OW83249   2.409  14.073  12.562
27137SOL    HW183250   2.368  14.018  12.629
27137SOL    HW283251   2.414  14.017  12.485
27138SOL     OW83252   8.890   5.255   4.192
27138SOL    HW183253   8.920   5.331   4.143
27138SOL    HW283254   8.967   5.198   4.198
27139SOL     OW83255   9.286   5.247   2.276
27139SOL    HW183256   9.297   5.340   2.257
27139SOL    HW283257   9.253   5.209   2.195
27140SOL     OW83258  10.169   9.962  11.040
27140SOL    HW183259  10.097   9.929  11.094
27140SOL    HW283260  10.136   9.959  10.950
27141SOL     OW83261   0.963  11.137   9.279
27141SOL    HW183262   1.049  11.174   9.259
27141SOL    HW283263   0.902  11.209   9.264
27142SOL     OW83264   1.786   3.257   5.387
27142SOL    HW183265   1.736   3.302   5.318
27142SOL    HW283266   1.828   3.184   5.342
27143SOL     OW83267  10.379   4.107  12.331
27143SOL    HW183268  10.380   4.186  12.386
27143SOL    HW283269  10.442   4.125  12.262
27144SOL     OW83270   2.844  10.688   1.409
27144SOL    HW183271   2.829  10.599   1.440
27144SOL    HW283272   2.894  10.677   1.328
27145SOL     OW83273  14.173   2.544  10.701
27145SOL    HW183274  14.230   2.519  10.628
27145SOL    HW283275  14.200   2.633  10.723
27146SOL     OW83276   6.883   8.247   6.626
27146SOL    HW183277   6.978   8.246   6.638
27146SOL    HW283278   6.870   8.290   6.542
27147SOL     OW83279  14.714   1.260   4.438
27147SOL    HW183280  14.662   1.339   4.421
27147SOL    HW283281  14.655   1.187   4.420
27148SOL     OW83282   3.436   5.190  11.111
27148SOL    HW183283   3.461   5.167  11.022
27148SOL    HW283284   3.352   5.146  11.126
27149SOL     OW83285  13.758   1.760   0.999
27149SOL    HW183286  13.685   1.820   0.984
27149SOL    HW283287  13.737   1.683   0.946
27150SOL     OW83288   1.742   2.439   8.442
27150SOL    HW183289   1.818   2.498   8.441
27150SOL    HW283290   1.693   2.465   8.521
27151SOL     OW83291  12.949  14.394   6.397
27151SOL    HW183292  12.972  14.429   6.311
27151SOL    HW283293  13.032  14.381   6.442
27152SOL     OW83294   0.045   7.113   4.991
27152SOL    HW183295   0.018   7.089   5.080
27152SOL    HW283296   0.121   7.057   4.973
27153SOL     OW83297  11.614   8.395  11.343
27153SOL    HW183298  11.693   8.382  11.395
27153SOL    HW283299  11.598   8.489  11.346
27154SOL     OW83300  14.091   9.381   0.161
27154SOL    HW183301  14.097   9.382   0.066
27154SOL    HW283302  14.008   9.424   0.181
27155SOL     OW83303   0.468   1.042   4.067
27155SOL    HW183304   0.384   1.034   4.113
27155SOL    HW283305   0.534   1.027   4.135
27156SOL     OW83306  11.372   1.152  12.569
27156SOL    HW183307  11.363   1.096  12.492
27156SOL    HW283308  11.287   1.196  12.576
27157SOL     OW83309   5.669   4.470  13.225
27157SOL    HW183310   5.576   4.453  13.241
27157SOL    HW283311   5.669   4.549  13.170
27158SOL     OW83312   7.185  11.970   1.382
27158SOL    HW183313   7.184  12.026   1.460
27158SOL    HW283314   7.255  12.006   1.328
27159SOL     OW83315   1.331   2.352   7.566
27159SOL    HW183316   1.376   2.339   7.483
27159SOL    HW283317   1.386   2.305   7.630
27160SOL     OW83318  14.585  12.282  12.779
27160SOL    HW183319  14.537  12.332  12.845
27160SOL    HW283320  14.656  12.240  12.828
27161SOL     OW83321  12.072  11.208   2.445
27161SOL    HW183322  12.119  11.156   2.510
27161SOL    HW283323  12.106  11.297   2.457
27162SOL     OW83324  14.504  10.257   9.093
27162SOL    HW183325  14.547  10.277   9.177
27162SOL    HW283326  14.411  10.261   9.112
27163SOL     OW83327  10.417   5.122  13.969
27163SOL    HW183328  10.348   5.171  13.924
27163SOL    HW283329  10.399   5.135  14.062
27164SOL     OW83330   2.839  12.223  11.330
27164SOL    HW183331   2.823  12.283  11.257
27164SOL    HW283332   2.910  12.166  11.299
27165SOL     OW83333   8.389  13.305  12.354
27165SOL    HW183334   8.334  13.256  12.415
27165SOL    HW283335   8.476  13.303  12.394
27166SOL     OW83336  13.841   4.855  13.793
27166SOL    HW183337  13.913   4.843  13.731
27166SOL    HW283338  13.766   4.881  13.738
27167SOL     OW83339  12.270   6.580   4.786
27167SOL    HW183340  12.219   6.501   4.805
27167SOL    HW283341  12.224   6.650   4.832
27168SOL     OW83342   6.496  11.301   7.160
27168SOL    HW183343   6.506  11.395   7.147
27168SOL    HW283344   6.544  11.282   7.241
27169SOL     OW83345  11.564   5.991   2.994
27169SOL    HW183346  11.566   5.962   3.085
27169SOL    HW283347  11.471   5.989   2.971
27170SOL     OW83348   2.639  12.010   8.274
27170SOL    HW183349   2.722  11.993   8.319
27170SOL    HW283350   2.572  11.980   8.335
27171SOL     OW83351   8.301   7.429   8.250
27171SOL    HW183352   8.322   7.415   8.157
27171SOL    HW283353   8.355   7.504   8.275
27172SOL     OW83354   8.991  12.183  13.521
27172SOL    HW183355   9.033  12.268  13.515
27172SOL    HW283356   9.060  12.120  13.500
27173SOL     OW83357   5.391  10.014   6.922
27173SOL    HW183358   5.364   9.984   7.010
27173SOL    HW283359   5.329   9.972   6.863
27174SOL     OW83360  11.530   3.021   9.994
27174SOL    HW183361  11.556   2.954   9.930
27174SOL    HW283362  11.572   3.101   9.964
27175SOL     OW83363  11.428   5.061   5.143
27175SOL    HW183364  11.446   5.113   5.222
27175SOL    HW283365  11.353   5.007   5.165
27176SOL     OW83366   3.777   7.855   1.262
27176SOL    HW183367   3.697   7.885   1.218
27176SOL    HW283368   3.793   7.921   1.329
27177SOL     OW83369   7.413   6.799   0.567
27177SOL    HW183370   7.431   6.770   0.478
27177SOL    HW283371   7.428   6.894   0.566
27178SOL     OW83372   7.991   7.799  12.512
27178SOL    HW183373   7.967   7.711  12.481
27178SOL    HW283374   8.086   7.801  12.509
27179SOL     OW83375   0.562  11.272   0.682
27179SOL    HW183376   0.634  11.238   0.736
27179SOL    HW283377   0.603  11.289   0.597
27180SOL     OW83378   9.796   6.271   6.767
27180SOL    HW183379   9.877   6.230   6.800
27180SOL    HW283380   9.823   6.360   6.742
27181SOL     OW83381  13.544   8.434   7.712
27181SOL    HW183382  13.466   8.380   7.721
27181SOL    HW283383  13.541   8.467   7.622
27182SOL     OW83384   2.534   0.916   2.126
27182SOL    HW183385   2.547   0.984   2.060
27182SOL    HW283386   2.621   0.898   2.160
27183SOL     OW83387   8.625   2.881   5.812
27183SOL    HW183388   8.688   2.948   5.839
27183SOL    HW283389   8.658   2.800   5.851
27184SOL     OW83390  12.846   7.446   6.268
27184SOL    HW183391  12.853   7.539   6.246
27184SOL    HW283392  12.791   7.443   6.346
27185SOL     OW83393  14.711   8.505   4.756
27185SOL    HW183394  14.797   8.463   4.765
27185SOL    HW283395  14.693   8.541   4.843
27186SOL     OW83396   5.399   7.741   5.179
27186SOL    HW183397   5.357   7.797   5.113
27186SOL    HW283398   5.406   7.655   5.137
27187SOL     OW83399   4.815   0.629   3.153
27187SOL    HW183400   4.812   0.649   3.246
27187SOL    HW283401   4.741   0.571   3.138
27188SOL     OW83402  13.009   8.139   4.783
27188SOL    HW183403  13.018   8.203   4.853
27188SOL    HW283404  13.019   8.054   4.825
27189SOL     OW83405   2.769   6.135   2.973
27189SOL    HW183406   2.680   6.130   2.938
27189SOL    HW283407   2.824   6.155   2.897
27190SOL     OW83408   9.930   2.727   3.253
27190SOL    HW183409   9.844   2.742   3.293
27190SOL    HW283410   9.968   2.656   3.305
27191SOL     OW83411   7.173   5.018  12.750
27191SOL    HW183412   7.179   5.013  12.846
27191SOL    HW283413   7.110   5.089  12.734
27192SOL     OW83414   4.085   0.017   7.760
27192SOL    HW183415   4.029   0.075   7.708
27192SOL    HW283416   4.161   0.071   7.783
27193SOL     OW83417   9.301   2.410  12.235
27193SOL    HW183418   9.340   2.405  12.322
27193SOL    HW283419   9.262   2.497  12.230
27194SOL     OW83420  13.802   8.135   5.580
27194SOL    HW183421  13.830   8.115   5.490
27194SOL    HW283422  13.707   8.149   5.573
27195SOL     OW83423   8.956  10.750  11.847
27195SOL    HW183424   8.993  10.710  11.768
27195SOL    HW283425   8.938  10.841  11.821
27196SOL     OW83426   3.611   1.079   7.175
27196SOL    HW183427   3.519   1.069   7.154
27196SOL    HW283428   3.618   1.168   7.212
27197SOL     OW83429   6.574   4.223  12.355
27197SOL    HW183430   6.619   4.297  12.316
27197SOL    HW283431   6.625   4.201  12.433
27198SOL     OW83432   0.390  13.870   3.260
27198SOL    HW183433   0.318  13.820   3.297
27198SOL    HW283434   0.446  13.890   3.336
27199SOL     OW83435   7.431   3.439   3.321
27199SOL    HW183436   7.408   3.450   3.229
27199SOL    HW283437   7.348   3.450   3.368
27200SOL     OW83438   9.550  12.648   9.125
27200SOL    HW183439   9.512  12.661   9.212
27200SOL    HW283440   9.642  12.626   9.142
27201SOL     OW83441   8.916   0.518   4.685
27201SOL    HW183442   8.838   0.515   4.631
27201SOL    HW283443   8.986   0.487   4.628
27202SOL     OW83444   3.045   1.645  12.503
27202SOL    HW183445   3.093   1.725  12.483
27202SOL    HW283446   3.093   1.576  12.457
27203SOL     OW83447   6.630   5.666  14.122
27203SOL    HW183448   6.634   5.741  14.063
27203SOL    HW283449   6.686   5.600  14.081
27204SOL     OW83450   5.896   9.040  12.208
27204SOL    HW183451   5.986   9.008  12.195
27204SOL    HW283452   5.852   9.022  12.125
27205SOL     OW83453  13.909   1.321   3.359
27205SOL    HW183454  13.872   1.278   3.282
27205SOL    HW283455  13.915   1.413   3.334
27206SOL     OW83456  13.966   7.660   5.342
27206SOL    HW183457  13.898   7.725   5.324
27206SOL    HW283458  14.034   7.678   5.276
27207SOL     OW83459   3.054   4.162   8.796
27207SOL    HW183460   3.030   4.207   8.715
27207SOL    HW283461   3.118   4.097   8.769
27208SOL     OW83462  10.671  13.627   4.607
27208SOL    HW183463  10.705  13.539   4.593
27208SOL    HW283464  10.666  13.665   4.519
27209SOL     OW83465   1.690   8.387   4.644
27209SOL    HW183466   1.617   8.346   4.692
27209SOL    HW283467   1.692   8.477   4.675
27210SOL     OW83468  11.990  10.429  13.724
27210SOL    HW183469  12.012  10.440  13.632
27210SOL    HW283470  11.895  10.424  13.725
27211SOL     OW83471   6.576  11.240   0.249
27211SOL    HW183472   6.580  11.182   0.173
27211SOL    HW283473   6.663  11.279   0.254
27212SOL     OW83474   6.967   4.689  12.970
27212SOL    HW183475   7.062   4.679  12.970
27212SOL    HW283476   6.953   4.783  12.984
27213SOL     OW83477   7.770   6.159   1.970
27213SOL    HW183478   7.812   6.182   2.053
27213SOL    HW283479   7.685   6.203   1.973
27214SOL     OW83480  12.949   5.204   0.088
27214SOL    HW183481  12.942   5.129   0.028
27214SOL    HW283482  12.880   5.264   0.059
27215SOL     OW83483   8.092   7.643   4.211
27215SOL    HW183484   8.080   7.644   4.306
27215SOL    HW283485   8.181   7.676   4.198
27216SOL     OW83486   5.721   4.827   5.631
27216SOL    HW183487   5.782   4.785   5.692
27216SOL    HW283488   5.653   4.865   5.688
27217SOL     OW83489   6.157   4.192   1.786
27217SOL    HW183490   6.089   4.130   1.812
27217SOL    HW283491   6.228   4.138   1.752
27218SOL     OW83492   0.169  12.377   5.477
27218SOL    HW183493   0.074  12.392   5.470
27218SOL    HW283494   0.176  12.300   5.534
27219SOL     OW83495   9.798   7.700   2.479
27219SOL    HW183496   9.885   7.661   2.467
27219SOL    HW283497   9.810   7.766   2.547
27220SOL     OW83498  14.711  10.433   9.581
27220SOL    HW183499  14.698  10.522   9.614
27220SOL    HW283500  14.689  10.376   9.656
27221SOL     OW83501  12.901   9.182   2.446
27221SOL    HW183502  12.842   9.245   2.406
27221SOL    HW283503  12.971   9.235   2.483
27222SOL     OW83504   6.701   0.483  10.416
27222SOL    HW183505   6.606   0.487  10.428
27222SOL    HW283506   6.735   0.545  10.481
27223SOL     OW83507   6.772  13.723   2.023
27223SOL    HW183508   6.783  13.659   1.954
27223SOL    HW283509   6.682  13.754   2.013
27224SOL     OW83510   0.502  14.808   4.046
27224SOL    HW183511   0.541  14.781   3.963
27224SOL    HW283512   0.409  14.818   4.026
27225SOL     OW83513   1.435  10.124   9.174
27225SOL    HW183514   1.406  10.213   9.191
27225SOL    HW283515   1.529  10.131   9.157
27226SOL     OW83516   6.417   7.962   3.339
27226SOL    HW183517   6.365   8.009   3.404
27226SOL    HW283518   6.435   8.028   3.271
27227SOL     OW83519   0.643   5.019   8.905
27227SOL    HW183520   0.658   5.113   8.891
27227SOL    HW283521   0.731   4.983   8.917
27228SOL     OW83522   9.123   8.742  11.537
27228SOL    HW183523   9.156   8.666  11.489
27228SOL    HW283524   9.038   8.714  11.571
27229SOL     OW83525   7.681   2.162  10.874
27229SOL    HW183526   7.650   2.236  10.822
27229SOL    HW283527   7.762   2.192  10.913
27230SOL     OW83528   4.919   1.233  13.713
27230SOL    HW183529   4.850   1.261  13.654
27230SOL    HW283530   4.952   1.151  13.674
27231SOL     OW83531   6.557  12.713   7.351
27231SOL    HW183532   6.586  12.791   7.398
27231SOL    HW283533   6.586  12.726   7.261
27232SOL     OW83534   1.206   9.895   6.905
27232SOL    HW183535   1.210   9.800   6.890
27232SOL    HW283536   1.144   9.905   6.977
27233SOL     OW83537  14.847   2.910  11.712
27233SOL    HW183538  14.768   2.961  11.729
27233SOL    HW283539  14.816   2.821  11.699
27234SOL     OW83540   8.392   5.218   3.768
27234SOL    HW183541   8.417   5.206   3.859
27234SOL    HW283542   8.415   5.136   3.724
27235SOL     OW83543   2.613  14.462   8.830
27235SOL    HW183544   2.704  14.464   8.860
27235SOL    HW283545   2.567  14.412   8.897
27236SOL     OW83546   2.272   2.385  14.405
27236SOL    HW183547   2.226   2.469  14.402
27236SOL    HW283548   2.252   2.350  14.492
27237SOL     OW83549   3.811   0.795  14.516
27237SOL    HW183550   3.866   0.826  14.444
27237SOL    HW283551   3.733   0.850  14.512
27238SOL     OW83552   7.745   5.505   8.169
27238SOL    HW183553   7.697   5.422   8.166
27238SOL    HW283554   7.822   5.485   8.221
27239SOL     OW83555   4.325   4.938   2.816
27239SOL    HW183556   4.418   4.956   2.804
27239SOL    HW283557   4.323   4.851   2.858
27240SOL     OW83558   3.951   4.951   3.629
27240SOL    HW183559   3.901   4.993   3.559
27240SOL    HW283560   3.936   4.857   3.616
27241SOL     OW83561   2.318   3.094   7.013
27241SOL    HW183562   2.223   3.081   7.012
27241SOL    HW283563   2.335   3.134   7.098
27242SOL     OW83564   3.363  12.702   0.698
27242SOL    HW183565   3.343  12.750   0.618
27242SOL    HW283566   3.459  12.698   0.701
27243SOL     OW83567   5.010   2.568  13.714
27243SOL    HW183568   5.081   2.629  13.731
27243SOL    HW283569   4.981   2.589  13.625
27244SOL     OW83570   3.266   5.248   9.664
27244SOL    HW183571   3.227   5.335   9.653
27244SOL    HW283572   3.350   5.254   9.618
27245SOL     OW83573   1.231  10.000   0.822
27245SOL    HW183574   1.141   9.967   0.821
27245SOL    HW283575   1.229  10.072   0.885
27246SOL     OW83576   6.356   6.343   1.606
27246SOL    HW183577   6.402   6.392   1.539
27246SOL    HW283578   6.334   6.260   1.565
27247SOL     OW83579   8.912  13.363   1.654
27247SOL    HW183580   8.985  13.403   1.607
27247SOL    HW283581   8.924  13.391   1.745
27248SOL     OW83582   1.804  11.249  14.005
27248SOL    HW183583   1.751  11.192  14.061
27248SOL    HW283584   1.808  11.332  14.053
27249SOL     OW83585   3.425  14.277   9.134
27249SOL    HW183586   3.431  14.328   9.214
27249SOL    HW283587   3.349  14.311   9.088
27250SOL     OW83588  10.811   3.761   7.600
27250SOL    HW183589  10.897   3.768   7.642
27250SOL    HW283590  10.828   3.721   7.516
27251SOL     OW83591   4.393   9.049   6.928
27251SOL    HW183592   4.374   8.962   6.965
27251SOL    HW283593   4.480   9.040   6.890
27252SOL     OW83594   7.099  11.137  12.361
27252SOL    HW183595   7.082  11.225  12.328
27252SOL    HW283596   7.189  11.118  12.333
27253SOL     OW83597   2.724   7.572  10.391
27253SOL    HW183598   2.711   7.486  10.431
27253SOL    HW283599   2.801   7.608  10.436
27254SOL     OW83600   5.905   6.925  13.785
27254SOL    HW183601   5.854   6.845  13.771
27254SOL    HW283602   5.995   6.899  13.765
27255SOL     OW83603  12.487  11.174   3.477
27255SOL    HW183604  12.568  11.220   3.496
27255SOL    HW283605  12.515  11.095   3.429
27256SOL     OW83606   2.162   8.155  12.784
27256SOL    HW183607   2.241   8.197  12.751
27256SOL    HW283608   2.108   8.139  12.707
27257SOL     OW83609   4.182  13.567   0.327
27257SOL    HW183610   4.224  13.497   0.377
27257SOL    HW283611   4.219  13.559   0.239
27258SOL     OW83612   5.770  14.633   9.778
27258SOL    HW183613   5.799  14.544   9.757
27258SOL    HW283614   5.733  14.626   9.866
27259SOL     OW83615   4.780  13.960   2.632
27259SOL    HW183616   4.769  14.053   2.652
27259SOL    HW283617   4.711  13.942   2.567
27260SOL     OW83618  10.896   7.674   9.706
27260SOL    HW183619  10.881   7.691   9.613
27260SOL    HW283620  10.982   7.633   9.710
27261SOL     OW83621  11.862   6.536  11.864
27261SOL    HW183622  11.843   6.626  11.890
27261SOL    HW283623  11.897   6.544  11.775
27262SOL     OW83624   7.622   9.378   1.493
27262SOL    HW183625   7.709   9.375   1.534
27262SOL    HW283626   7.563   9.406   1.562
27263SOL     OW83627  12.383   5.730   6.895
27263SOL    HW183628  12.445   5.778   6.949
27263SOL    HW283629  12.299   5.740   6.940
27264SOL     OW83630   7.679  10.408  12.788
27264SOL    HW183631   7.748  10.409  12.854
27264SOL    HW283632   7.726  10.403  12.704
27265SOL     OW83633   7.729  13.535  10.488
27265SOL    HW183634   7.822  13.510  10.482
27265SOL    HW283635   7.730  13.622  10.526
27266SOL     OW83636   3.164   4.126  14.396
27266SOL    HW183637   3.081   4.135  14.442
27266SOL    HW283638   3.144   4.150  14.305
27267SOL     OW83639  12.832   0.217  10.229
27267SOL    HW183640  12.807   0.132  10.193
27267SOL    HW283641  12.776   0.280  10.183
27268SOL     OW83642  10.260   5.614  10.078
27268SOL    HW183643  10.218   5.696  10.104
27268SOL    HW283644  10.238   5.553  10.147
27269SOL     OW83645  12.335   4.500   0.656
27269SOL    HW183646  12.272   4.569   0.674
27269SOL    HW283647  12.339   4.495   0.560
27270SOL     OW83648  11.800  13.496  14.597
27270SOL    HW183649  11.751  13.414  14.587
27270SOL    HW283650  11.784  13.543  14.515
27271SOL     OW83651  11.683   0.741  13.285
27271SOL    HW183652  11.779   0.738  13.280
27271SOL    HW283653  11.664   0.774  13.373
27272SOL     OW83654   6.230   6.011   8.744
27272SOL    HW183655   6.197   5.968   8.665
27272SOL    HW283656   6.290   5.948   8.782
27273SOL     OW83657  13.258  10.909   8.991
27273SOL    HW183658  13.352  10.893   8.990
27273SOL    HW283659  13.249  10.999   9.024
27274SOL     OW83660  14.332   1.264  13.473
27274SOL    HW183661  14.349   1.171  13.484
27274SOL    HW283662  14.316   1.297  13.562
27275SOL     OW83663  14.206   3.105   7.153
27275SOL    HW183664  14.130   3.129   7.207
27275SOL    HW283665  14.169   3.086   7.067
27276SOL     OW83666  14.738  10.617  11.524
27276SOL    HW183667  14.746  10.708  11.555
27276SOL    HW283668  14.677  10.622  11.450
27277SOL     OW83669   5.281   7.688   4.912
27277SOL    HW183670   5.205   7.639   4.880
27277SOL    HW283671   5.346   7.680   4.842
27278SOL     OW83672  11.262  11.661   9.863
27278SOL    HW183673  11.282  11.733   9.923
27278SOL    HW283674  11.176  11.683   9.827
27279SOL     OW83675   0.845   7.842   6.387
27279SOL    HW183676   0.884   7.758   6.362
27279SOL    HW283677   0.911   7.883   6.443
27280SOL     OW83678   3.918   1.849   6.071
27280SOL    HW183679   3.862   1.781   6.035
27280SOL    HW283680   4.003   1.835   6.029
27281SOL     OW83681  12.234   6.998  11.166
27281SOL    HW183682  12.260   6.914  11.128
27281SOL    HW283683  12.181   7.040  11.098
27282SOL     OW83684   7.439   6.914   9.429
27282SOL    HW183685   7.437   7.001   9.390
27282SOL    HW283686   7.406   6.857   9.360
27283SOL     OW83687  11.585  11.319   6.019
27283SOL    HW183688  11.643  11.343   5.947
27283SOL    HW283689  11.638  11.327   6.098
27284SOL     OW83690   4.709   5.741   5.347
27284SOL    HW183691   4.801   5.749   5.371
27284SOL    HW283692   4.685   5.652   5.374
27285SOL     OW83693   2.102   0.782  13.463
27285SOL    HW183694   2.087   0.706  13.407
27285SOL    HW283695   2.176   0.827  13.422
27286SOL     OW83696   6.428   5.180   6.337
27286SOL    HW183697   6.386   5.131   6.408
27286SOL    HW283698   6.521   5.178   6.359
27287SOL     OW83699   2.516   6.672  11.083
27287SOL    HW183700   2.592   6.614  11.086
27287SOL    HW283701   2.442   6.613  11.069
27288SOL     OW83702   4.917   1.641   8.947
27288SOL    HW183703   4.881   1.553   8.947
27288SOL    HW283704   4.858   1.691   8.890
27289SOL     OW83705  11.053  14.484   5.629
27289SOL    HW183706  11.132  14.500   5.577
27289SOL    HW283707  10.997  14.560   5.611
27290SOL     OW83708  10.987  10.565   4.931
27290SOL    HW183709  11.014  10.606   4.849
27290SOL    HW283710  11.023  10.621   4.999
27291SOL     OW83711  12.197   1.019   5.973
27291SOL    HW183712  12.106   1.041   5.955
27291SOL    HW283713  12.248   1.091   5.936
27292SOL     OW83714   6.026   4.908   6.926
27292SOL    HW183715   6.066   4.993   6.908
27292SOL    HW283716   6.062   4.849   6.859
27293SOL     OW83717  11.536   9.282  12.469
27293SOL    HW183718  11.541   9.378  12.467
27293SOL    HW283719  11.526   9.261  12.562
27294SOL     OW83720  13.049   4.408   9.324
27294SOL    HW183721  13.116   4.417   9.391
27294SOL    HW283722  12.970   4.443   9.365
27295SOL     OW83723  13.432   6.637  11.566
27295SOL    HW183724  13.520   6.612  11.595
27295SOL    HW283725  13.440   6.645  11.471
27296SOL     OW83726   9.218   6.526   5.958
27296SOL    HW183727   9.211   6.513   6.052
27296SOL    HW283728   9.177   6.449   5.919
27297SOL     OW83729   2.492  10.238   4.536
27297SOL    HW183730   2.441  10.221   4.457
27297SOL    HW283731   2.427  10.266   4.600
27298SOL     OW83732   0.411  10.966  11.740
27298SOL    HW183733   0.358  11.045  11.753
27298SOL    HW283734   0.501  10.994  11.757
27299SOL     OW83735  14.249   4.527  10.194
27299SOL    HW183736  14.223   4.606  10.242
27299SOL    HW283737  14.328   4.497  10.240
27300SOL     OW83738  13.106  14.214   6.898
27300SOL    HW183739  13.156  14.261   6.832
27300SOL    HW283740  13.155  14.226   6.980
27301SOL     OW83741   0.054   1.537   2.918
27301SOL    HW183742   0.146   1.562   2.911
27301SOL    HW283743   0.036   1.489   2.837
27302SOL     OW83744  12.609  10.169  14.147
27302SOL    HW183745  12.514  10.157  14.153
27302SOL    HW283746  12.622  10.210  14.061
27303SOL     OW83747   1.666   8.051   1.922
27303SOL    HW183748   1.614   8.014   1.993
27303SOL    HW283749   1.746   7.999   1.921
27304SOL     OW83750   8.345   5.065   9.520
27304SOL    HW183751   8.316   5.001   9.455
27304SOL    HW283752   8.439   5.049   9.529
27305SOL     OW83753   8.844   1.750  10.945
27305SOL    HW183754   8.900   1.811  10.992
27305SOL    HW283755   8.770   1.803  10.916
27306SOL     OW83756  14.140   0.388  11.521
27306SOL    HW183757  14.056   0.378  11.476
27306SOL    HW283758  14.159   0.300  11.554
27307SOL     OW83759   6.135   7.696   5.705
27307SOL    HW183760   6.182   7.757   5.761
27307SOL    HW283761   6.191   7.619   5.701
27308SOL     OW83762  10.812  14.445   8.927
27308SOL    HW183763  10.766  14.459   9.009
27308SOL    HW283764  10.842  14.354   8.931
27309SOL     OW83765  13.079   3.225   6.812
27309SOL    HW183766  13.004   3.166   6.818
27309SOL    HW283767  13.056   3.299   6.868
27310SOL     OW83768   8.401  10.092   2.614
27310SOL    HW183769   8.338  10.099   2.543
27310SOL    HW283770   8.414   9.998   2.625
27311SOL     OW83771   8.757   0.208  11.276
27311SOL    HW183772   8.838   0.256  11.256
27311SOL    HW283773   8.687   0.270  11.255
27312SOL     OW83774  10.459   4.855   2.469
27312SOL    HW183775  10.395   4.924   2.455
27312SOL    HW283776  10.410   4.785   2.513
27313SOL     OW83777   1.852   4.976   6.101
27313SOL    HW183778   1.786   4.988   6.033
27313SOL    HW283779   1.814   4.912   6.161
27314SOL     OW83780   3.870   3.671   2.037
27314SOL    HW183781   3.892   3.726   2.112
27314SOL    HW283782   3.810   3.723   1.985
27315SOL     OW83783  11.666   3.507  11.112
27315SOL    HW183784  11.605   3.451  11.064
27315SOL    HW283785  11.648   3.595  11.081
27316SOL     OW83786   8.746   8.440   3.870
27316SOL    HW183787   8.746   8.508   3.938
27316SOL    HW283788   8.820   8.462   3.814
27317SOL     OW83789   2.574   8.962  14.226
27317SOL    HW183790   2.633   8.919  14.288
27317SOL    HW283791   2.503   8.997  14.280
27318SOL     OW83792   2.297   9.054   7.838
27318SOL    HW183793   2.384   9.014   7.837
27318SOL    HW283794   2.262   9.039   7.750
27319SOL     OW83795   0.544   6.181  11.694
27319SOL    HW183796   0.634   6.154  11.712
27319SOL    HW283797   0.498   6.099  11.674
27320SOL     OW83798   8.095   2.716   0.729
27320SOL    HW183799   8.120   2.753   0.813
27320SOL    HW283800   8.034   2.646   0.750
27321SOL     OW83801   6.728   4.020  10.617
27321SOL    HW183802   6.637   3.998  10.637
27321SOL    HW283803   6.728   4.037  10.523
27322SOL     OW83804   6.051  11.984  10.427
27322SOL    HW183805   5.971  11.937  10.404
27322SOL    HW283806   6.122  11.932  10.390
27323SOL     OW83807   3.712   9.827   5.432
27323SOL    HW183808   3.737   9.807   5.342
27323SOL    HW283809   3.739   9.919   5.444
27324SOL     OW83810   8.950   4.306  10.290
27324SOL    HW183811   9.021   4.289  10.228
27324SOL    HW283812   8.967   4.247  10.363
27325SOL     OW83813   5.443   4.604  14.049
27325SOL    HW183814   5.373   4.545  14.023
27325SOL    HW283815   5.448   4.668  13.978
27326SOL     OW83816   0.452  12.586  13.913
27326SOL    HW183817   0.360  12.561  13.903
27326SOL    HW283818   0.490  12.573  13.827
27327SOL     OW83819   2.857  14.082   6.887
27327SOL    HW183820   2.784  14.020   6.882
27327SOL    HW283821   2.838  14.147   6.819
27328SOL     OW83822  11.966  12.768   6.776
27328SOL    HW183823  12.061  12.780   6.772
27328SOL    HW283824  11.932  12.824   6.706
27329SOL     OW83825   0.601  14.198   4.787
27329SOL    HW183826   0.631  14.110   4.764
27329SOL    HW283827   0.637  14.254   4.719
27330SOL     OW83828   8.739   2.785  13.560
27330SOL    HW183829   8.729   2.700  13.604
27330SOL    HW283830   8.660   2.793  13.506
27331SOL     OW83831   0.759   9.154   0.985
27331SOL    HW183832   0.776   9.071   0.941
27331SOL    HW283833   0.667   9.172   0.969
27332SOL     OW83834   1.078   5.596   1.232
27332SOL    HW183835   1.138   5.525   1.255
27332SOL    HW283836   1.004   5.585   1.292
27333SOL     OW83837   2.477  12.875  12.660
27333SOL    HW183838   2.464  12.928  12.582
27333SOL    HW283839   2.544  12.812  12.635
27334SOL     OW83840  11.411   7.376   5.504
27334SOL    HW183841  11.452   7.364   5.418
27334SOL    HW283842  11.477   7.423   5.555
27335SOL     OW83843   7.500   9.383   1.751
27335SOL    HW183844   7.414   9.351   1.724
27335SOL    HW283845   7.487   9.477   1.764
27336SOL     OW83846   0.446   9.260   5.473
27336SOL    HW183847   0.417   9.221   5.391
27336SOL    HW283848   0.540   9.271   5.464
27337SOL     OW83849   9.069   6.429   8.161
27337SOL    HW183850   9.116   6.512   8.150
27337SOL    HW283851   9.041   6.430   8.253
27338SOL     OW83852  13.627   1.471   0.533
27338SOL    HW183853  13.602   1.504   0.620
27338SOL    HW283854  13.709   1.516   0.513
27339SOL     OW83855   3.914  10.492  11.199
27339SOL    HW183856   3.986  10.486  11.136
27339SOL    HW283857   3.935  10.427  11.266
27340SOL     OW83858   9.161  12.222   3.338
27340SOL    HW183859   9.081  12.177   3.313
27340SOL    HW283860   9.209  12.158   3.391
27341SOL     OW83861   3.393  10.299   9.743
27341SOL    HW183862   3.385  10.339   9.830
27341SOL    HW283863   3.370  10.370   9.683
27342SOL     OW83864  10.229   1.679   0.366
27342SOL    HW183865  10.176   1.669   0.287
27342SOL    HW283866  10.169   1.660   0.438
27343SOL     OW83867   2.625  14.397  10.871
27343SOL    HW183868   2.578  14.316  10.853
27343SOL    HW283869   2.635  14.439  10.785
27344SOL     OW83870   7.232  13.325  14.363
27344SOL    HW183871   7.292  13.269  14.313
27344SOL    HW283872   7.263  13.319  14.453
27345SOL     OW83873  12.005   8.454   6.304
27345SOL    HW183874  12.034   8.401   6.378
27345SOL    HW283875  12.063   8.428   6.232
27346SOL     OW83876   9.529  12.077   8.491
27346SOL    HW183877   9.598  12.121   8.440
27346SOL    HW283878   9.482  12.149   8.534
27347SOL     OW83879   0.990   4.906   2.595
27347SOL    HW183880   1.085   4.917   2.599
27347SOL    HW283881   0.955   4.987   2.631
27348SOL     OW83882  10.808   1.329  13.848
27348SOL    HW183883  10.776   1.415  13.821
27348SOL    HW283884  10.741   1.268  13.817
27349SOL     OW83885   5.700  13.790   6.124
27349SOL    HW183886   5.735  13.722   6.066
27349SOL    HW283887   5.697  13.869   6.070
27350SOL     OW83888  10.320   1.885  11.001
27350SOL    HW183889  10.340   1.791  10.998
27350SOL    HW283890  10.245   1.896  10.942
27351SOL     OW83891   0.209   3.106  13.632
27351SOL    HW183892   0.202   3.192  13.591
27351SOL    HW283893   0.227   3.046  13.560
27352SOL     OW83894   0.071   9.549  11.737
27352SOL    HW183895   0.035   9.554  11.649
27352SOL    HW283896   0.022   9.615  11.787
27353SOL     OW83897   3.031   5.098   5.988
27353SOL    HW183898   2.993   5.066   6.069
27353SOL    HW283899   3.090   5.028   5.959
27354SOL     OW83900   0.420  11.311  11.971
27354SOL    HW183901   0.372  11.251  11.913
27354SOL    HW283902   0.416  11.395  11.926
27355SOL     OW83903  11.814   8.153   3.714
27355SOL    HW183904  11.838   8.089   3.648
27355SOL    HW283905  11.889   8.157   3.773
27356SOL     OW83906  10.324   9.340   1.993
27356SOL    HW183907  10.318   9.396   2.070
27356SOL    HW283908  10.414   9.353   1.961
27357SOL     OW83909   4.104   1.326   7.573
27357SOL    HW183910   4.060   1.271   7.508
27357SOL    HW283911   4.108   1.272   7.652
27358SOL     OW83912  12.885  13.226  13.974
27358SOL    HW183913  12.915  13.185  14.055
27358SOL    HW283914  12.838  13.156  13.927
27359SOL     OW83915  12.789   5.617   3.082
27359SOL    HW183916  12.724   5.670   3.127
27359SOL    HW283917  12.844   5.680   3.036
27360SOL     OW83918   1.340   1.580  11.791
27360SOL    HW183919   1.432   1.562  11.770
27360SOL    HW283920   1.310   1.638  11.722
27361SOL     OW83921  14.295   5.593  12.219
27361SOL    HW183922  14.255   5.507  12.230
27361SOL    HW283923  14.230   5.644  12.170
27362SOL     OW83924   8.617   5.986  11.850
27362SOL    HW183925   8.659   5.924  11.909
27362SOL    HW283926   8.547   6.026  11.902
27363SOL     OW83927   9.020   2.399   3.588
27363SOL    HW183928   8.949   2.431   3.643
27363SOL    HW283929   8.982   2.324   3.541
27364SOL     OW83930   5.716  11.742   0.705
27364SOL    HW183931   5.724  11.765   0.613
27364SOL    HW283932   5.744  11.820   0.752
27365SOL     OW83933   7.300   0.600  12.955
27365SOL    HW183934   7.283   0.598  13.049
27365SOL    HW283935   7.373   0.539  12.942
27366SOL     OW83936   5.495   6.488   7.616
27366SOL    HW183937   5.432   6.559   7.629
27366SOL    HW283938   5.577   6.533   7.594
27367SOL     OW83939   6.728   9.644   5.396
27367SOL    HW183940   6.797   9.580   5.380
27367SOL    HW283941   6.769   9.729   5.379
27368SOL     OW83942   7.447  10.648   4.286
27368SOL    HW183943   7.451  10.683   4.197
27368SOL    HW283944   7.498  10.709   4.338
27369SOL     OW83945  10.853  14.596   2.827
27369SOL    HW183946  10.935  14.644   2.840
27369SOL    HW283947  10.874  14.529   2.761
27370SOL     OW83948   9.781   9.499   6.743
27370SOL    HW183949   9.793   9.410   6.708
27370SOL    HW283950   9.693   9.524   6.715
27371SOL     OW83951   3.784  11.435   1.581
27371SOL    HW183952   3.833  11.516   1.570
27371SOL    HW283953   3.707  11.459   1.631
27372SOL     OW83954   2.391  14.460  11.715
27372SOL    HW183955   2.442  14.468  11.796
27372SOL    HW283956   2.323  14.527  11.723
27373SOL     OW83957  10.605   4.022   8.771
27373SOL    HW183958  10.581   3.950   8.711
27373SOL    HW283959  10.698   4.038   8.752
27374SOL     OW83960  14.790  12.722  13.173
27374SOL    HW183961  14.815  12.735  13.265
27374SOL    HW283962  14.772  12.810  13.140
27375SOL     OW83963   4.569   9.965   1.812
27375SOL    HW183964   4.528  10.025   1.873
27375SOL    HW283965   4.503   9.897   1.797
27376SOL     OW83966  12.329  13.584  14.102
27376SOL    HW183967  12.354  13.667  14.060
27376SOL    HW283968  12.327  13.521  14.031
27377SOL     OW83969   6.550   9.688  12.703
27377SOL    HW183970   6.557   9.599  12.737
27377SOL    HW283971   6.562   9.744  12.780
27378SOL     OW83972   3.403   9.170  13.828
27378SOL    HW183973   3.373   9.089  13.784
27378SOL    HW283974   3.349   9.175  13.907
27379SOL     OW83975  14.222   2.485   4.556
27379SOL    HW183976  14.308   2.448   4.577
27379SOL    HW283977  14.197   2.533   4.635
27380SOL     OW83978  10.552  12.522   6.219
27380SOL    HW183979  10.609  12.593   6.191
27380SOL    HW283980  10.570  12.511   6.312
27381SOL     OW83981   8.268   0.257   3.344
27381SOL    HW183982   8.276   0.215   3.430
27381SOL    HW283983   8.174   0.273   3.333
27382SOL     OW83984   9.477  10.350  12.536
27382SOL    HW183985   9.462  10.378  12.446
27382SOL    HW283986   9.572  10.342  12.544
27383SOL     OW83987   1.372  14.420  10.810
27383SOL    HW183988   1.291  14.373  10.828
27383SOL    HW283989   1.406  14.381  10.729
27384SOL     OW83990  14.118   3.673   9.268
27384SOL    HW183991  14.122   3.661   9.173
27384SOL    HW283992  14.190   3.619   9.301
27385SOL     OW83993   5.796  10.088  13.631
27385SOL    HW183994   5.707  10.080  13.596
27385SOL    HW283995   5.816  10.181  13.624
27386SOL     OW83996   8.989  12.338   2.002
27386SOL    HW183997   8.957  12.249   2.017
27386SOL    HW283998   9.018  12.368   2.089
27387SOL     OW83999   0.087  10.124   3.989
27387SOL    HW184000   0.064  10.031   3.988
27387SOL    HW284001   0.066  10.155   3.901
27388SOL     OW84002   6.908   1.814   1.107
27388SOL    HW184003   7.001   1.835   1.113
27388SOL    HW284004   6.867   1.892   1.070
27389SOL     OW84005  13.475   9.943  13.110
27389SOL    HW184006  13.438   9.875  13.055
27389SOL    HW284007  13.516  10.004  13.049
27390SOL     OW84008   6.391   6.470   2.450
27390SOL    HW184009   6.346   6.501   2.529
27390SOL    HW284010   6.392   6.375   2.460
27391SOL     OW84011  13.951   0.107   5.377
27391SOL    HW184012  14.023   0.091   5.437
27391SOL    HW284013  13.940   0.024   5.330
27392SOL     OW84014   1.349  14.782   8.798
27392SOL    HW184015   1.358  14.776   8.893
27392SOL    HW284016   1.271  14.836   8.784
27393SOL     OW84017   8.622   4.629   7.417
27393SOL    HW184018   8.652   4.540   7.396
27393SOL    HW284019   8.528   4.619   7.435
27394SOL     OW84020   5.009   9.662   0.661
27394SOL    HW184021   4.985   9.639   0.571
27394SOL    HW284022   5.076   9.599   0.686
27395SOL     OW84023   4.820   8.439   3.837
27395SOL    HW184024   4.787   8.480   3.917
27395SOL    HW284025   4.908   8.409   3.859
27396SOL     OW84026   8.837  14.148   8.318
27396SOL    HW184027   8.914  14.187   8.359
27396SOL    HW284028   8.777  14.221   8.303
27397SOL     OW84029  10.658   2.128   3.997
27397SOL    HW184030  10.636   2.066   4.067
27397SOL    HW284031  10.724   2.084   3.945
27398SOL     OW84032   7.242  10.905   1.006
27398SOL    HW184033   7.157  10.911   0.961
27398SOL    HW284034   7.256  10.993   1.042
27399SOL     OW84035   7.352   8.644   2.138
27399SOL    HW184036   7.371   8.619   2.228
27399SOL    HW284037   7.389   8.732   2.129
27400SOL     OW84038   5.567   1.044   0.477
27400SOL    HW184039   5.632   1.112   0.459
27400SOL    HW284040   5.511   1.043   0.399
27401SOL     OW84041   7.817   6.955  12.758
27401SOL    HW184042   7.792   6.921  12.672
27401SOL    HW284043   7.908   6.982  12.748
27402SOL     OW84044   3.739  12.737  14.184
27402SOL    HW184045   3.692  12.703  14.260
27402SOL    HW284046   3.775  12.659  14.142
27403SOL     OW84047   1.925   1.659   6.501
27403SOL    HW184048   1.897   1.615   6.581
27403SOL    HW284049   2.020   1.643   6.497
27404SOL     OW84050  14.620   2.335  14.092
27404SOL    HW184051  14.577   2.370  14.014
27404SOL    HW284052  14.559   2.355  14.163
27405SOL     OW84053   3.609  14.247  11.270
27405SOL    HW184054   3.679  14.257  11.334
27405SOL    HW284055   3.569  14.163  11.291
27406SOL     OW84056   7.387  14.109   9.392
27406SOL    HW184057   7.296  14.113   9.363
27406SOL    HW284058   7.382  14.088   9.485
27407SOL     OW84059   5.557   1.465   2.425
27407SOL    HW184060   5.536   1.527   2.355
27407SOL    HW284061   5.567   1.381   2.381
27408SOL     OW84062  10.934   0.898  10.451
27408SOL    HW184063  10.868   0.832  10.472
27408SOL    HW284064  10.886   0.964  10.401
27409SOL     OW84065  12.099  13.442   8.538
27409SOL    HW184066  12.024  13.393   8.573
27409SOL    HW284067  12.120  13.399   8.455
27410SOL     OW84068   4.567   3.526  10.845
27410SOL    HW184069   4.577   3.435  10.816
27410SOL    HW284070   4.618   3.532  10.925
27411SOL     OW84071   9.041  10.859  14.207
27411SOL    HW184072   9.048  10.829  14.298
27411SOL    HW284073   9.093  10.940  14.206
27412SOL     OW84074   0.315   3.352  12.112
27412SOL    HW184075   0.346   3.262  12.115
27412SOL    HW284076   0.277   3.367  12.199
27413SOL     OW84077   7.431   5.379   7.371
27413SOL    HW184078   7.381   5.417   7.443
27413SOL    HW284079   7.366   5.355   7.306
27414SOL     OW84080  13.355   1.621   6.534
27414SOL    HW184081  13.395   1.611   6.448
27414SOL    HW284082  13.369   1.537   6.577
27415SOL     OW84083   9.837  10.349   5.896
27415SOL    HW184084   9.879  10.282   5.842
27415SOL    HW284085   9.810  10.303   5.975
27416SOL     OW84086  10.636  13.262   2.230
27416SOL    HW184087  10.654  13.331   2.167
27416SOL    HW284088  10.638  13.181   2.179
27417SOL     OW84089  13.324   9.112   2.348
27417SOL    HW184090  13.283   9.032   2.315
27417SOL    HW284091  13.318   9.104   2.444
27418SOL     OW84092  14.384   8.492  12.841
27418SOL    HW184093  14.316   8.518  12.779
27418SOL    HW284094  14.466   8.501  12.791
27419SOL     OW84095   8.996  11.305   0.288
27419SOL    HW184096   8.951  11.389   0.298
27419SOL    HW284097   8.927  11.240   0.299
27420SOL     OW84098   8.000  14.837   8.437
27420SOL    HW184099   8.043  14.847   8.522
27420SOL    HW284100   8.025  14.750   8.408
27421SOL     OW84101   7.318   2.932   3.644
27421SOL    HW184102   7.303   2.952   3.737
27421SOL    HW284103   7.321   2.836   3.641
27422SOL     OW84104   2.052   3.941  13.399
27422SOL    HW184105   1.972   3.985  13.372
27422SOL    HW284106   2.081   3.895  13.321
27423SOL     OW84107   5.953   6.971  10.454
27423SOL    HW184108   5.962   7.035  10.383
27423SOL    HW284109   5.949   6.887  10.410
27424SOL     OW84110   7.179   8.481  12.816
27424SOL    HW184111   7.265   8.523  12.811
27424SOL    HW284112   7.162   8.448  12.728
27425SOL     OW84113  10.228   6.068  14.084
27425SOL    HW184114  10.148   6.060  14.031
27425SOL    HW284115  10.250   6.161  14.080
27426SOL     OW84116   9.473   0.135   1.121
27426SOL    HW184117   9.527   0.100   1.192
27426SOL    HW284118   9.522   0.115   1.041
27427SOL     OW84119  11.403  13.409   9.214
27427SOL    HW184120  11.376  13.413   9.122
27427SOL    HW284121  11.416  13.501   9.238
27428SOL     OW84122  12.555   1.728   7.986
27428SOL    HW184123  12.601   1.661   7.934
27428SOL    HW284124  12.511   1.678   8.055
27429SOL     OW84125   1.369  11.091   0.243
27429SOL    HW184126   1.308  11.115   0.313
27429SOL    HW284127   1.320  11.030   0.188
27430SOL     OW84128  14.169   1.523   3.462
27430SOL    HW184129  14.089   1.513   3.411
27430SOL    HW284130  14.167   1.614   3.493
27431SOL     OW84131  14.839  10.138   7.548
27431SOL    HW184132  14.860  10.229   7.528
27431SOL    HW284133   0.015  10.119   7.628
27432SOL     OW84134  10.546   1.111  11.212
27432SOL    HW184135  10.635   1.135  11.238
27432SOL    HW284136  10.555   1.082  11.121
27433SOL     OW84137   1.066   1.599   3.419
27433SOL    HW184138   1.009   1.672   3.441
27433SOL    HW284139   1.030   1.565   3.337
27434SOL     OW84140   2.037   5.521  13.948
27434SOL    HW184141   2.001   5.609  13.948
27434SOL    HW284142   2.099   5.520  14.021
27435SOL     OW84143   1.347   7.699   7.569
27435SOL    HW184144   1.399   7.626   7.600
27435SOL    HW284145   1.273   7.658   7.524
27436SOL     OW84146   0.904   1.633   5.319
27436SOL    HW184147   0.848   1.704   5.351
27436SOL    HW284148   0.890   1.561   5.381
27437SOL     OW84149   1.190   5.832   5.656
27437SOL    HW184150   1.232   5.777   5.590
27437SOL    HW284151   1.236   5.812   5.737
27438SOL     OW84152   9.653   4.306  11.731
27438SOL    HW184153   9.744   4.329  11.712
27438SOL    HW284154   9.655   4.212  11.750
27439SOL     OW84155   0.404   2.345   1.294
27439SOL    HW184156   0.342   2.404   1.252
27439SOL    HW284157   0.359   2.316   1.374
27440SOL     OW84158  11.453   8.753  12.608
27440SOL    HW184159  11.455   8.661  12.583
27440SOL    HW284160  11.425   8.799  12.528
27441SOL     OW84161   4.862  13.043   2.972
27441SOL    HW184162   4.802  12.978   3.007
27441SOL    HW284163   4.863  13.026   2.878
27442SOL     OW84164  10.209   8.659  11.770
27442SOL    HW184165  10.238   8.576  11.808
27442SOL    HW284166  10.123   8.639  11.732
27443SOL     OW84167   4.818   4.454   4.019
27443SOL    HW184168   4.733   4.493   3.996
27443SOL    HW284169   4.847   4.411   3.940
27444SOL     OW84170  14.273   1.156   2.518
27444SOL    HW184171  14.186   1.174   2.556
27444SOL    HW284172  14.299   1.240   2.480
27445SOL     OW84173   7.110   0.448   7.433
27445SOL    HW184174   7.187   0.504   7.443
27445SOL    HW284175   7.123   0.404   7.349
27446SOL     OW84176  14.804  14.456   5.949
27446SOL    HW184177  14.730  14.396   5.941
27446SOL    HW284178  14.836  14.443   6.038
27447SOL     OW84179  11.874  11.181   6.880
27447SOL    HW184180  11.797  11.199   6.826
27447SOL    HW284181  11.871  11.086   6.895
27448SOL     OW84182  14.537   2.532   3.620
27448SOL    HW184183  14.532   2.525   3.525
27448SOL    HW284184  14.616   2.483   3.643
27449SOL     OW84185   7.430   9.608   9.920
27449SOL    HW184186   7.335   9.592   9.918
27449SOL    HW284187   7.469   9.522   9.935
27450SOL     OW84188   3.915  13.468   2.552
27450SOL    HW184189   3.874  13.532   2.609
27450SOL    HW284190   4.000  13.450   2.592
27451SOL     OW84191   9.548   2.688   3.482
27451SOL    HW184192   9.489   2.751   3.523
27451SOL    HW284193   9.500   2.656   3.406
27452SOL     OW84194   0.162  10.471   2.062
27452SOL    HW184195   0.161  10.395   2.004
27452SOL    HW284196   0.150  10.435   2.150
27453SOL     OW84197   1.410   6.072   7.275
27453SOL    HW184198   1.502   6.071   7.250
27453SOL    HW284199   1.387   5.979   7.285
27454SOL     OW84200  10.250   3.207   8.227
27454SOL    HW184201  10.284   3.182   8.140
27454SOL    HW284202  10.228   3.300   8.218
27455SOL     OW84203  14.013  12.970   0.823
27455SOL    HW184204  14.026  13.028   0.898
27455SOL    HW284205  13.929  12.928   0.838
27456SOL     OW84206  12.552   1.810   0.888
27456SOL    HW184207  12.464   1.796   0.854
27456SOL    HW284208  12.591   1.722   0.890
27457SOL     OW84209   1.912   9.255  12.617
27457SOL    HW184210   1.987   9.276  12.562
27457SOL    HW284211   1.904   9.329  12.677
27458SOL     OW84212   0.537   5.807   0.650
27458SOL    HW184213   0.587   5.738   0.694
27458SOL    HW284214   0.512   5.867   0.720
27459SOL     OW84215  12.921  10.853  12.232
27459SOL    HW184216  12.879  10.797  12.167
27459SOL    HW284217  12.996  10.803  12.263
27460SOL     OW84218   7.577   8.861  13.183
27460SOL    HW184219   7.488   8.885  13.156
27460SOL    HW284220   7.570   8.843  13.277
27461SOL     OW84221   6.163   4.526  13.439
27461SOL    HW184222   6.100   4.498  13.372
27461SOL    HW284223   6.240   4.471  13.425
27462SOL     OW84224  13.289  12.857  11.266
27462SOL    HW184225  13.289  12.907  11.348
27462SOL    HW284226  13.242  12.776  11.288
27463SOL     OW84227  13.247   7.497   5.971
27463SOL    HW184228  13.171   7.441   5.961
27463SOL    HW284229  13.212   7.586   5.965
27464SOL     OW84230   9.060   8.744  11.200
27464SOL    HW184231   9.153   8.752  11.179
27464SOL    HW284232   9.045   8.811  11.267
27465SOL     OW84233   5.278  14.341   3.118
27465SOL    HW184234   5.201  14.286   3.136
27465SOL    HW284235   5.241  14.428   3.098
27466SOL     OW84236  10.068   7.156   5.284
27466SOL    HW184237  10.147   7.102   5.273
27466SOL    HW284238  10.022   7.116   5.358
27467SOL     OW84239   1.432  12.547   8.195
27467SOL    HW184240   1.514  12.516   8.156
27467SOL    HW284241   1.380  12.467   8.207
27468SOL     OW84242   5.791   8.048   8.711
27468SOL    HW184243   5.749   7.962   8.711
27468SOL    HW284244   5.843   8.049   8.631
27469SOL     OW84245  12.538  12.602   9.512
27469SOL    HW184246  12.532  12.550   9.592
27469SOL    HW284247  12.616  12.570   9.468
27470SOL     OW84248  10.550   3.841   7.624
27470SOL    HW184249  10.510   3.826   7.538
27470SOL    HW284250  10.637   3.801   7.618
27471SOL     OW84251   0.597   1.058   8.259
27471SOL    HW184252   0.605   0.969   8.292
27471SOL    HW284253   0.565   1.048   8.169
27472SOL     OW84254   6.920   5.927   0.836
27472SOL    HW184255   6.975   5.946   0.912
27472SOL    HW284256   6.888   6.013   0.808
27473SOL     OW84257   7.360  10.852   5.461
27473SOL    HW184258   7.339  10.765   5.428
27473SOL    HW284259   7.320  10.912   5.399
27474SOL     OW84260  13.737   9.401   1.845
27474SOL    HW184261  13.688   9.465   1.793
27474SOL    HW284262  13.825   9.402   1.808
27475SOL     OW84263  11.234   6.978   1.162
27475SOL    HW184264  11.209   6.915   1.229
27475SOL    HW284265  11.329   6.986   1.170
27476SOL     OW84266  13.502   5.230   5.689
27476SOL    HW184267  13.536   5.285   5.759
27476SOL    HW284268  13.416   5.201   5.720
27477SOL     OW84269   9.800  14.729   6.099
27477SOL    HW184270   9.851  14.778   6.035
27477SOL    HW284271   9.720  14.704   6.052
27478SOL     OW84272  14.730  14.659   5.281
27478SOL    HW184273  14.716  14.571   5.316
27478SOL    HW284274  14.642  14.691   5.258
27479SOL     OW84275  14.455   4.224  14.682
27479SOL    HW184276  14.443   4.130  14.695
27479SOL    HW284277  14.550   4.235  14.674
27480SOL     OW84278   9.513   0.650  14.680
27480SOL    HW184279   9.490   0.557  14.668
27480SOL    HW284280   9.609   0.650  14.682
27481SOL     OW84281  13.036   9.396   6.437
27481SOL    HW184282  13.024   9.370   6.528
27481SOL    HW284283  13.121   9.360   6.412
27482SOL     OW84284  10.550   4.190  12.679
27482SOL    HW184285  10.623   4.164  12.734
27482SOL    HW284286  10.482   4.124  12.695
27483SOL     OW84287   3.193   4.377  11.836
27483SOL    HW184288   3.227   4.425  11.912
27483SOL    HW284289   3.265   4.379  11.773
27484SOL     OW84290   2.912   3.903   0.417
27484SOL    HW184291   2.974   3.873   0.350
27484SOL    HW284292   2.967   3.936   0.488
27485SOL     OW84293  11.778  12.634   6.038
27485SOL    HW184294  11.826  12.713   6.063
27485SOL    HW284295  11.846  12.571   6.016
27486SOL     OW84296   6.148   7.366  13.278
27486SOL    HW184297   6.170   7.287  13.229
27486SOL    HW284298   6.079   7.408  13.226
27487SOL     OW84299   0.893   0.768  11.048
27487SOL    HW184300   0.976   0.813  11.067
27487SOL    HW284301   0.885   0.704  11.118
27488SOL     OW84302   9.253  13.816   3.302
27488SOL    HW184303   9.289  13.904   3.298
27488SOL    HW284304   9.162  13.826   3.272
27489SOL     OW84305  14.685  12.633   7.739
27489SOL    HW184306  14.758  12.572   7.745
27489SOL    HW284307  14.686  12.663   7.648
27490SOL     OW84308   7.479   5.396   4.207
27490SOL    HW184309   7.440   5.312   4.231
27490SOL    HW284310   7.572   5.378   4.197
27491SOL     OW84311   9.950   7.089   3.979
27491SOL    HW184312   9.962   7.115   4.070
27491SOL    HW284313   9.913   7.167   3.936
27492SOL     OW84314   7.947   0.395  10.538
27492SOL    HW184315   7.960   0.442  10.621
27492SOL    HW284316   7.921   0.463  10.476
27493SOL     OW84317   5.752   7.214   7.452
27493SOL    HW184318   5.665   7.204   7.490
27493SOL    HW284319   5.780   7.302   7.477
27494SOL     OW84320   5.147   6.326   0.009
27494SOL    HW184321   5.080   6.371  14.831
27494SOL    HW284322   5.220   6.388   0.013
27495SOL     OW84323   0.608   8.561  12.105
27495SOL    HW184324   0.647   8.501  12.169
27495SOL    HW284325   0.574   8.633  12.159
27496SOL     OW84326   9.486  10.299   9.240
27496SOL    HW184327   9.411  10.250   9.207
27496SOL    HW284328   9.460  10.326   9.329
27497SOL     OW84329   2.982   1.014   1.539
27497SOL    HW184330   3.049   0.948   1.523
27497SOL    HW284331   2.918   0.970   1.594
27498SOL     OW84332  13.875   5.928   9.274
27498SOL    HW184333  13.953   5.983   9.266
27498SOL    HW284334  13.805   5.989   9.298
27499SOL     OW84335   2.971   0.730   4.027
27499SOL    HW184336   3.023   0.802   3.991
27499SOL    HW284337   2.887   0.738   3.982
27500SOL     OW84338   9.337   6.962   8.586
27500SOL    HW184339   9.424   6.958   8.547
27500SOL    HW284340   9.316   7.055   8.589
27501SOL     OW84341   0.636  13.307   2.772
27501SOL    HW184342   0.653  13.255   2.851
27501SOL    HW284343   0.598  13.244   2.711
27502SOL     OW84344  13.315   9.370  10.426
27502SOL    HW184345  13.289   9.347  10.337
27502SOL    HW284346  13.334   9.464  10.422
27503SOL     OW84347   5.682  11.113  10.047
27503SOL    HW184348   5.632  11.049  10.097
27503SOL    HW284349   5.684  11.078   9.958
27504SOL     OW84350   7.031  14.317   6.901
27504SOL    HW184351   6.982  14.369   6.837
27504SOL    HW284352   7.043  14.377   6.975
27505SOL     OW84353   9.948  12.802   5.861
27505SOL    HW184354   9.903  12.875   5.817
27505SOL    HW284355   9.900  12.791   5.942
27506SOL     OW84356  13.997  14.230  14.088
27506SOL    HW184357  14.022  14.317  14.119
27506SOL    HW284358  14.079  14.183  14.079
27507SOL     OW84359   6.308   6.706  10.492
27507SOL    HW184360   6.255   6.705  10.412
27507SOL    HW284361   6.245   6.696  10.563
27508SOL     OW84362   9.753   0.534   4.639
27508SOL    HW184363   9.731   0.473   4.709
27508SOL    HW284364   9.702   0.612   4.658
27509SOL     OW84365   3.011   0.452   0.263
27509SOL    HW184366   2.932   0.401   0.247
27509SOL    HW284367   3.032   0.436   0.355
27510SOL     OW84368   1.710   8.343   2.380
27510SOL    HW184369   1.805   8.342   2.366
27510SOL    HW284370   1.695   8.277   2.447
27511SOL     OW84371   5.348   3.009   1.373
27511SOL    HW184372   5.346   3.045   1.461
27511SOL    HW284373   5.270   3.044   1.330
27512SOL     OW84374   2.208   9.169   6.000
27512SOL    HW184375   2.167   9.083   6.002
27512SOL    HW284376   2.139   9.229   6.027
27513SOL     OW84377   9.999   9.170   7.823
27513SOL    HW184378   9.966   9.136   7.741
27513SOL    HW284379   9.932   9.232   7.852
27514SOL     OW84380   1.390   8.986  11.935
27514SOL    HW184381   1.333   9.056  11.903
27514SOL    HW284382   1.330   8.917  11.963
27515SOL     OW84383   3.973   3.766   9.602
27515SOL    HW184384   3.960   3.861   9.610
27515SOL    HW284385   3.926   3.729   9.677
27516SOL     OW84386   2.281  13.560   5.851
27516SOL    HW184387   2.274  13.478   5.802
27516SOL    HW284388   2.237  13.542   5.934
27517SOL     OW84389   1.759   9.751   6.147
27517SOL    HW184390   1.686   9.694   6.124
27517SOL    HW284391   1.759   9.752   6.243
27518SOL     OW84392   0.401  13.531   6.002
27518SOL    HW184393   0.466  13.466   5.976
27518SOL    HW284394   0.373  13.504   6.090
27519SOL     OW84395   3.563  11.676   3.618
27519SOL    HW184396   3.482  11.725   3.634
27519SOL    HW284397   3.535  11.585   3.610
27520SOL     OW84398   0.925  14.251  13.196
27520SOL    HW184399   1.010  14.281  13.226
27520SOL    HW284400   0.879  14.330  13.168
27521SOL     OW84401   3.863   8.722   3.885
27521SOL    HW184402   3.850   8.668   3.807
27521SOL    HW284403   3.815   8.677   3.954
27522SOL     OW84404   3.011   8.784   1.235
27522SOL    HW184405   3.037   8.871   1.206
27522SOL    HW284406   2.920   8.776   1.208
27523SOL     OW84407   1.204   4.105  11.071
27523SOL    HW184408   1.181   4.044  11.141
27523SOL    HW284409   1.207   4.190  11.115
27524SOL     OW84410   9.990  14.134  12.400
27524SOL    HW184411  10.074  14.140  12.445
27524SOL    HW284412   9.925  14.124  12.469
27525SOL     OW84413  12.533   4.047   7.644
27525SOL    HW184414  12.461   4.082   7.590
27525SOL    HW284415  12.596   4.013   7.581
27526SOL     OW84416   8.810   6.188   2.753
27526SOL    HW184417   8.724   6.212   2.718
27526SOL    HW284418   8.872   6.231   2.694
27527SOL     OW84419   7.106  14.756  11.204
27527SOL    HW184420   7.113  14.666  11.234
27527SOL    HW284421   7.075  14.750  11.114
27528SOL     OW84422   3.851   1.190  13.240
27528SOL    HW184423   3.762   1.166  13.219
27528SOL    HW284424   3.895   1.107  13.259
27529SOL     OW84425   8.315  11.917   2.264
27529SOL    HW184426   8.349  11.828   2.273
27529SOL    HW284427   8.392  11.973   2.274
27530SOL     OW84428   1.292   8.502  11.723
27530SOL    HW184429   1.251   8.588  11.709
27530SOL    HW284430   1.348   8.515  11.799
27531SOL     OW84431   3.486   8.105   8.990
27531SOL    HW184432   3.493   8.049   8.913
27531SOL    HW284433   3.520   8.189   8.963
27532SOL     OW84434   6.696  10.158   9.077
27532SOL    HW184435   6.652  10.227   9.027
27532SOL    HW284436   6.626  10.119   9.130
27533SOL     OW84437  13.742  10.632  11.618
27533SOL    HW184438  13.757  10.584  11.699
27533SOL    HW284439  13.756  10.568  11.549
27534SOL     OW84440  10.306  13.468   2.027
27534SOL    HW184441  10.311  13.375   2.050
27534SOL    HW284442  10.220  13.495   2.057
27535SOL     OW84443   7.880   1.399   6.338
27535SOL    HW184444   7.810   1.379   6.401
27535SOL    HW284445   7.867   1.335   6.267
27536SOL     OW84446   4.861   9.599   3.015
27536SOL    HW184447   4.863   9.638   3.103
27536SOL    HW284448   4.889   9.509   3.028
27537SOL     OW84449   5.751  12.563   9.542
27537SOL    HW184450   5.783  12.619   9.472
27537SOL    HW284451   5.731  12.480   9.499
27538SOL     OW84452   9.591   3.616   8.333
27538SOL    HW184453   9.632   3.645   8.251
27538SOL    HW284454   9.508   3.577   8.306
27539SOL     OW84455   2.537  14.554   8.598
27539SOL    HW184456   2.580  14.510   8.671
27539SOL    HW284457   2.452  14.510   8.591
27540SOL     OW84458  12.476   4.899  12.985
27540SOL    HW184459  12.561   4.913  12.944
27540SOL    HW284460  12.445   4.987  13.008
27541SOL     OW84461  12.975  11.033  10.807
27541SOL    HW184462  12.931  10.964  10.757
27541SOL    HW284463  13.067  11.010  10.803
27542SOL     OW84464   8.166   1.448   4.112
27542SOL    HW184465   8.180   1.486   4.199
27542SOL    HW284466   8.254   1.438   4.076
27543SOL     OW84467   5.679  11.740   8.848
27543SOL    HW184468   5.623  11.758   8.773
27543SOL    HW284469   5.718  11.655   8.829
27544SOL     OW84470  11.295   6.291   9.739
27544SOL    HW184471  11.255   6.207   9.716
27544SOL    HW284472  11.231   6.332   9.798
27545SOL     OW84473  12.486   9.949   3.927
27545SOL    HW184474  12.544   9.959   4.002
27545SOL    HW284475  12.460   9.856   3.928
27546SOL     OW84476   5.874  14.355   9.770
27546SOL    HW184477   5.914  14.292   9.829
27546SOL    HW284478   5.786  14.320   9.754
27547SOL     OW84479   4.721  10.490   9.349
27547SOL    HW184480   4.777  10.508   9.424
27547SOL    HW284481   4.779  10.448   9.285
27548SOL     OW84482  14.243   6.944   5.819
27548SOL    HW184483  14.330   6.983   5.804
27548SOL    HW284484  14.188   7.018   5.842
27549SOL     OW84485  12.031  13.718   8.692
27549SOL    HW184486  11.951  13.737   8.642
27549SOL    HW284487  12.070  13.643   8.648
27550SOL     OW84488  10.444   2.623   3.431
27550SOL    HW184489  10.465   2.583   3.515
27550SOL    HW284490  10.366   2.576   3.400
27551SOL     OW84491  14.846  12.164   1.908
27551SOL    HW184492   0.045  12.213   1.948
27551SOL    HW284493  14.859  12.176   1.813
27552SOL     OW84494  13.525   7.780   4.864
27552SOL    HW184495  13.457   7.714   4.880
27552SOL    HW284496  13.477   7.862   4.854
27553SOL     OW84497   7.909   4.218   6.542
27553SOL    HW184498   7.816   4.204   6.529
27553SOL    HW284499   7.945   4.224   6.453
27554SOL     OW84500   1.838   4.359   5.109
27554SOL    HW184501   1.922   4.320   5.134
27554SOL    HW284502   1.820   4.423   5.177
27555SOL     OW84503   2.690   2.760   8.077
27555SOL    HW184504   2.697   2.706   7.998
27555SOL    HW284505   2.637   2.707   8.137
27556SOL     OW84506   6.823   8.440   6.039
27556SOL    HW184507   6.773   8.468   6.115
27556SOL    HW284508   6.801   8.503   5.971
27557SOL     OW84509  11.541   9.248   5.939
27557SOL    HW184510  11.455   9.236   5.900
27557SOL    HW284511  11.591   9.171   5.911
27558SOL     OW84512   1.333  11.431  11.480
27558SOL    HW184513   1.277  11.493  11.432
27558SOL    HW284514   1.272  11.372  11.523
27559SOL     OW84515   9.084  10.839   0.776
27559SOL    HW184516   9.088  10.772   0.708
27559SOL    HW284517   9.034  10.910   0.736
27560SOL     OW84518  11.223   1.119   1.341
27560SOL    HW184519  11.160   1.138   1.410
27560SOL    HW284520  11.229   1.024   1.340
27561SOL     OW84521   1.135  11.086   0.550
27561SOL    HW184522   1.224  11.118   0.538
27561SOL    HW284523   1.117  11.034   0.471
27562SOL     OW84524  10.841   5.868   9.366
27562SOL    HW184525  10.790   5.799   9.408
27562SOL    HW284526  10.811   5.868   9.275
27563SOL     OW84527   0.615   3.679   9.569
27563SOL    HW184528   0.641   3.771   9.560
27563SOL    HW284529   0.631   3.659   9.662
27564SOL     OW84530  14.857   0.169   9.131
27564SOL    HW184531  14.866   0.263   9.120
27564SOL    HW284532   0.068   0.133   9.101
27565SOL     OW84533   1.823   8.780  13.744
27565SOL    HW184534   1.889   8.712  13.759
27565SOL    HW284535   1.865   8.841  13.684
27566SOL     OW84536   8.809   5.662   3.023
27566SOL    HW184537   8.718   5.632   3.017
27566SOL    HW284538   8.840   5.664   2.932
27567SOL     OW84539  11.929   7.901  11.529
27567SOL    HW184540  11.935   7.806  11.535
27567SOL    HW284541  11.971   7.923  11.446
27568SOL     OW84542   1.163  10.413  13.627
27568SOL    HW184543   1.232  10.425  13.692
27568SOL    HW284544   1.136  10.502  13.603
27569SOL     OW84545  12.592   8.276   1.633
27569SOL    HW184546  12.599   8.296   1.727
27569SOL    HW284547  12.588   8.180   1.629
27570SOL     OW84548  11.959   9.729   7.688
27570SOL    HW184549  11.885   9.703   7.633
27570SOL    HW284550  12.028   9.665   7.667
27571SOL     OW84551   0.561  14.497   6.901
27571SOL    HW184552   0.596  14.439   6.969
27571SOL    HW284553   0.470  14.512   6.928
27572SOL     OW84554   3.144  13.443   8.803
27572SOL    HW184555   3.109  13.364   8.762
27572SOL    HW284556   3.084  13.513   8.774
27573SOL     OW84557   6.621   4.689   2.279
27573SOL    HW184558   6.561   4.623   2.313
27573SOL    HW284559   6.657   4.732   2.356
27574SOL     OW84560   1.473  12.473  14.001
27574SOL    HW184561   1.501  12.549  14.053
27574SOL    HW284562   1.377  12.473  14.008
27575SOL     OW84563   4.418   3.504   2.294
27575SOL    HW184564   4.354   3.459   2.239
27575SOL    HW284565   4.483   3.436   2.315
27576SOL     OW84566  14.386   4.951   7.648
27576SOL    HW184567  14.453   4.883   7.653
27576SOL    HW284568  14.397   5.001   7.729
27577SOL     OW84569   4.387   4.085  11.037
27577SOL    HW184570   4.472   4.045  11.020
27577SOL    HW284571   4.370   4.066  11.130
27578SOL     OW84572  13.372   4.223  11.890
27578SOL    HW184573  13.312   4.240  11.817
27578SOL    HW284574  13.330   4.264  11.965
27579SOL     OW84575   3.096  10.519   4.926
27579SOL    HW184576   3.043  10.454   4.970
27579SOL    HW284577   3.123  10.477   4.844
27580SOL     OW84578   3.635   9.410   0.901
27580SOL    HW184579   3.631   9.442   0.811
27580SOL    HW284580   3.547   9.377   0.918
27581SOL     OW84581   0.819   9.353   3.412
27581SOL    HW184582   0.792   9.319   3.497
27581SOL    HW284583   0.754   9.318   3.351
27582SOL     OW84584   2.564   3.728   7.777
27582SOL    HW184585   2.547   3.712   7.870
27582SOL    HW284586   2.638   3.671   7.756
27583SOL     OW84587   2.529   5.084  12.675
27583SOL    HW184588   2.522   5.053  12.585
27583SOL    HW284589   2.470   5.160  12.678
27584SOL     OW84590   0.042   1.402  11.434
27584SOL    HW184591   0.093   1.475  11.398
27584SOL    HW284592  14.837   1.443  11.470
27585SOL     OW84593   6.929   7.138   5.352
27585SOL    HW184594   6.875   7.123   5.430
27585SOL    HW284595   6.918   7.232   5.333
27586SOL     OW84596  12.881   7.143   0.062
27586SOL    HW184597  12.787   7.163   0.067
27586SOL    HW284598  12.888   7.053   0.094
27587SOL     OW84599   0.680  11.472   4.944
27587SOL    HW184600   0.695  11.560   4.908
27587SOL    HW284601   0.608  11.484   5.005
27588SOL     OW84602  14.662  10.911   9.731
27588SOL    HW184603  14.595  10.871   9.787
27588SOL    HW284604  14.745  10.888   9.773
27589SOL     OW84605  12.642   2.054   5.952
27589SOL    HW184606  12.574   1.988   5.966
27589SOL    HW284607  12.690   2.057   6.034
27590SOL     OW84608   2.262   4.624   5.553
27590SOL    HW184609   2.201   4.649   5.484
27590SOL    HW284610   2.275   4.704   5.604
27591SOL     OW84611  10.212   6.324   6.174
27591SOL    HW184612  10.194   6.324   6.080
27591SOL    HW284613  10.169   6.402   6.208
27592SOL     OW84614   9.145  10.233   6.069
27592SOL    HW184615   9.197  10.190   6.001
27592SOL    HW284616   9.067  10.265   6.024
27593SOL     OW84617   4.374  14.842   0.213
27593SOL    HW184618   4.278  14.837   0.205
27593SOL    HW284619   4.403  14.867   0.125
27594SOL     OW84620   6.021  14.217  10.658
27594SOL    HW184621   5.965  14.234  10.734
27594SOL    HW284622   5.968  14.161  10.601
27595SOL     OW84623  10.270  13.417   7.564
27595SOL    HW184624  10.226  13.445   7.484
27595SOL    HW284625  10.236  13.329   7.581
27596SOL     OW84626  13.725  11.644  12.441
27596SOL    HW184627  13.711  11.600  12.525
27596SOL    HW284628  13.740  11.736  12.465
27597SOL     OW84629   6.123   4.354   1.275
27597SOL    HW184630   6.062   4.349   1.201
27597SOL    HW284631   6.144   4.447   1.283
27598SOL     OW84632  12.974  11.170   0.558
27598SOL    HW184633  12.933  11.132   0.480
27598SOL    HW284634  12.908  11.161   0.626
27599SOL     OW84635   9.317   2.923  11.757
27599SOL    HW184636   9.385   2.857  11.746
27599SOL    HW284637   9.297   2.923  11.850
27600SOL     OW84638   6.557   7.606   7.420
27600SOL    HW184639   6.546   7.555   7.339
27600SOL    HW284640   6.605   7.548   7.478
27601SOL     OW84641   5.742   1.496  12.904
27601SOL    HW184642   5.685   1.492  12.981
27601SOL    HW284643   5.823   1.454  12.932
27602SOL     OW84644   7.634   4.195   6.472
27602SOL    HW184645   7.560   4.231   6.521
27602SOL    HW284646   7.607   4.106   6.449
27603SOL     OW84647   2.314   4.984   3.080
27603SOL    HW184648   2.249   4.994   3.149
27603SOL    HW284649   2.335   4.891   3.080
27604SOL     OW84650   2.626   5.563  12.437
27604SOL    HW184651   2.614   5.479  12.393
27604SOL    HW284652   2.537   5.598  12.445
27605SOL     OW84653   9.696   1.015  13.870
27605SOL    HW184654   9.709   1.037  13.778
27605SOL    HW284655   9.774   1.048  13.914
27606SOL     OW84656   0.149   3.511   8.589
27606SOL    HW184657   0.150   3.606   8.596
27606SOL    HW284658   0.075   3.483   8.643
27607SOL     OW84659   1.794   9.412   2.681
27607SOL    HW184660   1.777   9.385   2.771
27607SOL    HW284661   1.851   9.344   2.645
27608SOL     OW84662  10.948  14.379   1.720
27608SOL    HW184663  10.854  14.387   1.706
27608SOL    HW284664  10.983  14.352   1.635
27609SOL     OW84665  10.895   8.327  10.669
27609SOL    HW184666  10.967   8.287  10.620
27609SOL    HW284667  10.841   8.253  10.696
27610SOL     OW84668   9.283   4.404  13.977
27610SOL    HW184669   9.249   4.382  14.064
27610SOL    HW284670   9.343   4.476  13.992
27611SOL     OW84671  10.350   7.553   3.191
27611SOL    HW184672  10.365   7.459   3.190
27611SOL    HW284673  10.416   7.589   3.131
27612SOL     OW84674   8.737   3.506   7.383
27612SOL    HW184675   8.678   3.498   7.458
27612SOL    HW284676   8.690   3.562   7.322
27613SOL     OW84677   2.100   8.817   4.537
27613SOL    HW184678   2.171   8.756   4.515
27613SOL    HW284679   2.050   8.772   4.604
27614SOL     OW84680   3.377   1.867  12.635
27614SOL    HW184681   3.437   1.940  12.616
27614SOL    HW284682   3.337   1.890  12.719
27615SOL     OW84683  13.780  13.777  10.845
27615SOL    HW184684  13.701  13.723  10.848
27615SOL    HW284685  13.755  13.858  10.890
27616SOL     OW84686   7.215   7.877   5.315
27616SOL    HW184687   7.262   7.893   5.397
27616SOL    HW284688   7.224   7.959   5.266
27617SOL     OW84689   4.623   2.354   9.676
27617SOL    HW184690   4.654   2.385   9.761
27617SOL    HW284691   4.569   2.277   9.696
27618SOL     OW84692   4.625   9.628  12.033
27618SOL    HW184693   4.562   9.655  12.100
27618SOL    HW284694   4.700   9.593  12.083
27619SOL     OW84695   4.137   8.247  13.263
27619SOL    HW184696   4.135   8.246  13.358
27619SOL    HW284697   4.155   8.338  13.239
27620SOL     OW84698  13.998  12.475  11.952
27620SOL    HW184699  13.931  12.416  11.986
27620SOL    HW284700  13.953  12.557  11.935
27621SOL     OW84701   2.174  12.560  11.480
27621SOL    HW184702   2.199  12.490  11.420
27621SOL    HW284703   2.099  12.603  11.439
27622SOL     OW84704   2.724  11.591   2.568
27622SOL    HW184705   2.689  11.637   2.644
27622SOL    HW284706   2.649  11.582   2.508
27623SOL     OW84707  10.290   6.783  10.736
27623SOL    HW184708  10.239   6.702  10.745
27623SOL    HW284709  10.233   6.841  10.685
27624SOL     OW84710   0.037   5.491   1.363
27624SOL    HW184711   0.043   5.437   1.442
27624SOL    HW284712   0.011   5.577   1.394
27625SOL     OW84713   5.746   2.057   2.495
27625SOL    HW184714   5.811   2.119   2.529
27625SOL    HW284715   5.682   2.113   2.451
27626SOL     OW84716   5.687   6.034   7.038
27626SOL    HW184717   5.681   5.965   6.972
27626SOL    HW284718   5.722   6.110   6.991
27627SOL     OW84719  10.598   0.413   5.960
27627SOL    HW184720  10.594   0.333   5.909
27627SOL    HW284721  10.692   0.428   5.973
27628SOL     OW84722   3.640   3.003  13.253
27628SOL    HW184723   3.694   2.962  13.320
27628SOL    HW284724   3.553   2.964  13.264
27629SOL     OW84725   1.240   7.001  14.286
27629SOL    HW184726   1.280   6.938  14.225
27629SOL    HW284727   1.276   6.977  14.371
27630SOL     OW84728   8.555   4.784  12.075
27630SOL    HW184729   8.584   4.875  12.082
27630SOL    HW284730   8.627   4.739  12.030
27631SOL     OW84731   1.260   0.683   5.469
27631SOL    HW184732   1.253   0.687   5.373
27631SOL    HW284733   1.319   0.610   5.486
27632SOL     OW84734   6.758  10.263   1.986
27632SOL    HW184735   6.728  10.296   1.901
27632SOL    HW284736   6.695  10.298   2.049
27633SOL     OW84737   3.801   6.281   2.113
27633SOL    HW184738   3.734   6.243   2.170
27633SOL    HW284739   3.883   6.237   2.140
27634SOL     OW84740   7.722   1.486   4.792
27634SOL    HW184741   7.672   1.451   4.718
27634SOL    HW284742   7.686   1.444   4.869
27635SOL     OW84743   0.206  11.311  10.836
27635SOL    HW184744   0.126  11.281  10.792
27635SOL    HW284745   0.228  11.239  10.896
27636SOL     OW84746   0.503   9.244   6.396
27636SOL    HW184747   0.578   9.206   6.442
27636SOL    HW284748   0.517   9.221   6.304
27637SOL     OW84749  12.891  13.508  11.715
27637SOL    HW184750  12.950  13.432  11.721
27637SOL    HW284751  12.947  13.580  11.687
27638SOL     OW84752  13.010  11.437   8.227
27638SOL    HW184753  12.962  11.484   8.159
27638SOL    HW284754  13.101  11.465   8.215
27639SOL     OW84755   2.738   7.182  14.406
27639SOL    HW184756   2.808   7.224  14.456
27639SOL    HW284757   2.715   7.105  14.459
27640SOL     OW84758   9.704   3.495   4.584
27640SOL    HW184759   9.765   3.451   4.643
27640SOL    HW284760   9.701   3.440   4.506
27641SOL     OW84761   4.616   1.196   8.402
27641SOL    HW184762   4.619   1.101   8.388
27641SOL    HW284763   4.696   1.229   8.361
27642SOL     OW84764  10.477  12.599   1.125
27642SOL    HW184765  10.400  12.604   1.183
27642SOL    HW284766  10.552  12.599   1.185
27643SOL     OW84767   7.081   9.364   6.425
27643SOL    HW184768   7.174   9.353   6.403
27643SOL    HW284769   7.055   9.445   6.381
27644SOL     OW84770   9.168   6.832  10.714
27644SOL    HW184771   9.219   6.823  10.794
27644SOL    HW284772   9.079   6.853  10.743
27645SOL     OW84773   6.636  14.734   8.072
27645SOL    HW184774   6.655  14.654   8.120
27645SOL    HW284775   6.567  14.777   8.123
27646SOL     OW84776   3.819   1.329   7.376
27646SOL    HW184777   3.841   1.372   7.459
27646SOL    HW284778   3.832   1.397   7.310
27647SOL     OW84779   0.953  10.571   6.794
27647SOL    HW184780   1.004  10.578   6.875
27647SOL    HW284781   0.936  10.662   6.768
27648SOL     OW84782  10.983   1.364   2.798
27648SOL    HW184783  10.946   1.427   2.860
27648SOL    HW284784  11.003   1.287   2.851
27649SOL     OW84785  12.607   6.690   1.317
27649SOL    HW184786  12.537   6.685   1.381
27649SOL    HW284787  12.563   6.685   1.232
27650SOL     OW84788   5.298   0.837  12.166
27650SOL    HW184789   5.229   0.883  12.118
27650SOL    HW284790   5.290   0.870  12.256
27651SOL     OW84791  12.169  11.115   0.152
27651SOL    HW184792  12.196  11.091   0.241
27651SOL    HW284793  12.152  11.032   0.108
27652SOL     OW84794  10.344   9.934   6.207
27652SOL    HW184795  10.422   9.989   6.216
27652SOL    HW284796  10.332   9.894   6.293
27653SOL     OW84797   7.062   2.903   4.008
27653SOL    HW184798   7.069   2.885   4.102
27653SOL    HW284799   7.149   2.935   3.983
27654SOL     OW84800   2.553  11.439  10.567
27654SOL    HW184801   2.495  11.363  10.572
27654SOL    HW284802   2.580  11.441  10.475
27655SOL     OW84803   4.116  14.148  14.198
27655SOL    HW184804   4.136  14.189  14.282
27655SOL    HW284805   4.046  14.201  14.161
27656SOL     OW84806   5.551   7.812  10.736
27656SOL    HW184807   5.458   7.817  10.761
27656SOL    HW284808   5.580   7.726  10.766
27657SOL     OW84809   1.308  11.653   7.522
27657SOL    HW184810   1.243  11.635   7.454
27657SOL    HW284811   1.392  11.645   7.478
27658SOL     OW84812  12.062   3.825  14.170
27658SOL    HW184813  12.148   3.806  14.135
27658SOL    HW284814  12.049   3.918  14.152
27659SOL     OW84815   1.787   0.693   9.711
27659SOL    HW184816   1.845   0.620   9.687
27659SOL    HW284817   1.700   0.665   9.681
27660SOL     OW84818   3.740  11.057   8.142
27660SOL    HW184819   3.832  11.081   8.149
27660SOL    HW284820   3.735  10.972   8.186
27661SOL     OW84821  14.095   9.170   9.205
27661SOL    HW184822  14.145   9.105   9.155
27661SOL    HW284823  14.102   9.250   9.153
27662SOL     OW84824   7.565  13.509   4.381
27662SOL    HW184825   7.484  13.507   4.433
27662SOL    HW284826   7.570  13.422   4.342
27663SOL     OW84827   6.314  11.655  14.129
27663SOL    HW184828   6.264  11.575  14.108
27663SOL    HW284829   6.404  11.633  14.107
27664SOL     OW84830   4.085   9.540  11.190
27664SOL    HW184831   4.094   9.455  11.234
27664SOL    HW284832   4.042   9.520  11.107
27665SOL     OW84833   2.609   8.573  11.093
27665SOL    HW184834   2.567   8.506  11.040
27665SOL    HW284835   2.653   8.630  11.030
27666SOL     OW84836   4.069  13.050   2.674
27666SOL    HW184837   4.104  12.991   2.740
27666SOL    HW284838   4.041  12.992   2.603
27667SOL     OW84839   7.886   5.804  12.509
27667SOL    HW184840   7.923   5.867  12.447
27667SOL    HW284841   7.955   5.792  12.575
27668SOL     OW84842   3.437  14.443   5.499
27668SOL    HW184843   3.494  14.516   5.523
27668SOL    HW284844   3.385  14.476   5.426
27669SOL     OW84845   4.312   4.285  13.926
27669SOL    HW184846   4.361   4.366  13.935
27669SOL    HW284847   4.275   4.289  13.838
27670SOL     OW84848   7.095   1.257   0.696
27670SOL    HW184849   7.155   1.255   0.770
27670SOL    HW284850   7.143   1.214   0.625
27671SOL     OW84851   9.755   2.806   8.691
27671SOL    HW184852   9.845   2.790   8.662
27671SOL    HW284853   9.723   2.720   8.718
27672SOL     OW84854   6.806  12.112   5.971
27672SOL    HW184855   6.733  12.100   5.910
27672SOL    HW284856   6.883  12.115   5.915
27673SOL     OW84857   4.538  10.255   4.142
27673SOL    HW184858   4.477  10.181   4.143
27673SOL    HW284859   4.596  10.239   4.216
27674SOL     OW84860   0.774  12.333   8.683
27674SOL    HW184861   0.714  12.297   8.618
27674SOL    HW284862   0.721  12.346   8.761
27675SOL     OW84863   4.505  11.661   2.352
27675SOL    HW184864   4.514  11.567   2.367
27675SOL    HW284865   4.437  11.689   2.414
27676SOL     OW84866   8.562  11.421   1.898
27676SOL    HW184867   8.529  11.461   1.817
27676SOL    HW284868   8.627  11.357   1.869
27677SOL     OW84869   1.424   6.402   2.459
27677SOL    HW184870   1.515   6.377   2.473
27677SOL    HW284871   1.429   6.491   2.425
27678SOL     OW84872   5.464   9.617   2.776
27678SOL    HW184873   5.397   9.684   2.760
27678SOL    HW284874   5.438   9.578   2.859
27679SOL     OW84875   0.185   5.643   8.560
27679SOL    HW184876   0.243   5.647   8.637
27679SOL    HW284877   0.216   5.566   8.511
27680SOL     OW84878   0.514  10.282  12.500
27680SOL    HW184879   0.498  10.343  12.572
27680SOL    HW284880   0.496  10.332  12.421
27681SOL     OW84881   2.866   6.614  12.728
27681SOL    HW184882   2.918   6.610  12.647
27681SOL    HW284883   2.801   6.683  12.711
27682SOL     OW84884   9.751  10.745   0.886
27682SOL    HW184885   9.774  10.670   0.941
27682SOL    HW284886   9.718  10.707   0.805
27683SOL     OW84887   8.365  13.371   5.942
27683SOL    HW184888   8.395  13.280   5.946
27683SOL    HW284889   8.402  13.405   5.860
27684SOL     OW84890   8.856   6.515  12.054
27684SOL    HW184891   8.886   6.591  12.103
27684SOL    HW284892   8.819   6.551  11.973
27685SOL     OW84893   0.819   2.964  11.001
27685SOL    HW184894   0.851   2.946  11.089
27685SOL    HW284895   0.755   3.034  11.013
27686SOL     OW84896   4.886   0.708   9.754
27686SOL    HW184897   4.917   0.670   9.671
27686SOL    HW284898   4.888   0.802   9.739
27687SOL     OW84899   7.701  10.009  13.992
27687SOL    HW184900   7.630  10.010  14.057
27687SOL    HW284901   7.763   9.945  14.026
27688SOL     OW84902  13.973  12.524   3.539
27688SOL    HW184903  14.065  12.524   3.511
27688SOL    HW284904  13.976  12.524   3.634
27689SOL     OW84905   6.764  12.836   0.212
27689SOL    HW184906   6.831  12.873   0.155
27689SOL    HW284907   6.813  12.806   0.289
27690SOL     OW84908   6.191   3.475  14.712
27690SOL    HW184909   6.115   3.518  14.673
27690SOL    HW284910   6.159   3.442  14.796
27691SOL     OW84911   0.905   3.612  11.645
27691SOL    HW184912   0.816   3.628  11.615
27691SOL    HW284913   0.956   3.683  11.608
27692SOL     OW84914  11.243   1.629   1.407
27692SOL    HW184915  11.233   1.710   1.356
27692SOL    HW284916  11.228   1.656   1.498
27693SOL     OW84917  13.254   8.816   0.181
27693SOL    HW184918  13.198   8.753   0.135
27693SOL    HW284919  13.200   8.850   0.252
27694SOL     OW84920   4.565  13.040  10.436
27694SOL    HW184921   4.581  12.948  10.419
27694SOL    HW284922   4.499  13.066  10.372
27695SOL     OW84923   1.646   0.839   0.295
27695SOL    HW184924   1.635   0.781   0.370
27695SOL    HW284925   1.684   0.919   0.332
27696SOL     OW84926   2.205   9.816   1.903
27696SOL    HW184927   2.140   9.886   1.912
27696SOL    HW284928   2.237   9.802   1.992
27697SOL     OW84929   0.421   8.969  12.760
27697SOL    HW184930   0.423   8.874  12.771
27697SOL    HW284931   0.338   8.997  12.798
27698SOL     OW84932   2.378  11.248  11.403
27698SOL    HW184933   2.342  11.248  11.492
27698SOL    HW284934   2.385  11.341  11.380
27699SOL     OW84935  11.682   1.239   7.624
27699SOL    HW184936  11.632   1.297   7.682
27699SOL    HW284937  11.726   1.298   7.563
27700SOL     OW84938   8.418   7.669  13.481
27700SOL    HW184939   8.341   7.702  13.435
27700SOL    HW284940   8.391   7.583  13.514
27701SOL     OW84941   7.438  10.534  12.854
27701SOL    HW184942   7.354  10.544  12.809
27701SOL    HW284943   7.497  10.500  12.787
27702SOL     OW84944   3.949   7.467   2.671
27702SOL    HW184945   3.877   7.514   2.628
27702SOL    HW284946   3.906   7.399   2.722
27703SOL     OW84947   5.333  10.860   6.133
27703SOL    HW184948   5.251  10.810   6.130
27703SOL    HW284949   5.367  10.845   6.221
27704SOL     OW84950   3.734   4.006   0.513
27704SOL    HW184951   3.800   3.958   0.463
27704SOL    HW284952   3.731   3.961   0.598
27705SOL     OW84953   7.400   1.916   2.878
27705SOL    HW184954   7.468   1.875   2.824
27705SOL    HW284955   7.401   2.008   2.852
27706SOL     OW84956  11.232  14.020   1.718
27706SOL    HW184957  11.209  14.074   1.793
27706SOL    HW284958  11.324  14.042   1.700
27707SOL     OW84959   3.163   3.714   7.433
27707SOL    HW184960   3.173   3.678   7.345
27707SOL    HW284961   3.107   3.791   7.420
27708SOL     OW84962   8.068   0.640   5.546
27708SOL    HW184963   8.081   0.588   5.625
27708SOL    HW284964   7.997   0.595   5.499
27709SOL     OW84965   7.499  13.239   0.929
27709SOL    HW184966   7.483  13.328   0.899
27709SOL    HW284967   7.498  13.186   0.849
27710SOL     OW84968   9.331  14.271   6.733
27710SOL    HW184969   9.352  14.303   6.820
27710SOL    HW284970   9.299  14.348   6.686
27711SOL     OW84971   3.169  12.485  14.198
27711SOL    HW184972   3.217  12.428  14.258
27711SOL    HW284973   3.114  12.538  14.256
27712SOL     OW84974   2.327   0.403   0.609
27712SOL    HW184975   2.379   0.462   0.553
27712SOL    HW284976   2.265   0.462   0.652
27713SOL     OW84977   2.793   4.916   1.341
27713SOL    HW184978   2.775   4.835   1.295
27713SOL    HW284979   2.797   4.983   1.272
27714SOL     OW84980  11.460   7.762  12.168
27714SOL    HW184981  11.473   7.725  12.255
27714SOL    HW284982  11.430   7.852  12.184
27715SOL     OW84983  14.584   2.705   9.126
27715SOL    HW184984  14.521   2.769   9.159
27715SOL    HW284985  14.535   2.653   9.063
27716SOL     OW84986  13.859   1.996   5.267
27716SOL    HW184987  13.925   2.059   5.295
27716SOL    HW284988  13.779   2.023   5.313
27717SOL     OW84989   9.975  11.329   0.896
27717SOL    HW184990   9.914  11.346   0.968
27717SOL    HW284991  10.024  11.411   0.887
27718SOL     OW84992   8.814   5.017  12.881
27718SOL    HW184993   8.732   4.968  12.873
27718SOL    HW284994   8.871   4.980  12.813
27719SOL     OW84995   5.754   3.033   6.758
27719SOL    HW184996   5.757   2.937   6.753
27719SOL    HW284997   5.692   3.051   6.829
27720SOL     OW84998   4.537   1.968  10.869
27720SOL    HW184999   4.456   2.019  10.873
27720SOL    HW285000   4.554   1.940  10.959
27721SOL     OW85001   6.835  14.675  10.773
27721SOL    HW185002   6.803  14.701  10.686
27721SOL    HW285003   6.850  14.581  10.765
27722SOL     OW85004  12.625   0.193  10.462
27722SOL    HW185005  12.652   0.262  10.402
27722SOL    HW285006  12.705   0.144  10.480
27723SOL     OW85007   4.766   3.768  13.142
27723SOL    HW185008   4.784   3.862  13.151
27723SOL    HW285009   4.846   3.731  13.103
27724SOL     OW85010   2.616   4.175   4.732
27724SOL    HW185011   2.613   4.265   4.700
27724SOL    HW285012   2.526   4.155   4.756
27725SOL     OW85013   4.592   1.804   4.999
27725SOL    HW185014   4.683   1.806   4.969
27725SOL    HW285015   4.569   1.896   5.013
27726SOL     OW85016  11.316   6.511   6.268
27726SOL    HW185017  11.332   6.523   6.174
27726SOL    HW285018  11.237   6.458   6.273
27727SOL     OW85019   7.259   2.549   8.282
27727SOL    HW185020   7.354   2.552   8.273
27727SOL    HW285021   7.231   2.640   8.276
27728SOL     OW85022   3.046  12.515   6.243
27728SOL    HW185023   3.133  12.557   6.244
27728SOL    HW285024   3.016  12.525   6.153
27729SOL     OW85025  10.705   7.940   2.080
27729SOL    HW185026  10.657   7.955   2.162
27729SOL    HW285027  10.791   7.979   2.095
27730SOL     OW85028   9.425   6.817   6.888
27730SOL    HW185029   9.397   6.817   6.797
27730SOL    HW285030   9.347   6.791   6.937
27731SOL     OW85031   5.162   9.493   1.433
27731SOL    HW185032   5.146   9.453   1.519
27731SOL    HW285033   5.153   9.421   1.371
27732SOL     OW85034  14.612   9.926   8.439
27732SOL    HW185035  14.668   9.883   8.374
27732SOL    HW285036  14.525   9.892   8.422
27733SOL     OW85037   7.569  12.189   8.714
27733SOL    HW185038   7.657  12.161   8.739
27733SOL    HW285039   7.582  12.257   8.648
27734SOL     OW85040   7.371  14.068   2.629
27734SOL    HW185041   7.386  14.141   2.689
27734SOL    HW285042   7.318  14.006   2.678
27735SOL     OW85043  11.706  11.829   3.780
27735SOL    HW185044  11.792  11.869   3.768
27735SOL    HW285045  11.656  11.855   3.703
27736SOL     OW85046  13.604   5.419   7.952
27736SOL    HW185047  13.651   5.373   7.882
27736SOL    HW285048  13.552   5.485   7.906
27737SOL     OW85049  13.841   4.477   6.273
27737SOL    HW185050  13.804   4.419   6.207
27737SOL    HW285051  13.796   4.453   6.354
27738SOL     OW85052   7.757   6.214   1.022
27738SOL    HW185053   7.826   6.159   0.983
27738SOL    HW285054   7.788   6.231   1.111
27739SOL     OW85055  10.840   7.916   9.828
27739SOL    HW185056  10.782   7.956   9.764
27739SOL    HW285057  10.870   7.835   9.786
27740SOL     OW85058   1.103  14.421   7.705
27740SOL    HW185059   1.018  14.406   7.663
27740SOL    HW285060   1.119  14.341   7.756
27741SOL     OW85061   4.843  11.727  14.070
27741SOL    HW185062   4.825  11.688  14.155
27741SOL    HW285063   4.762  11.716  14.021
27742SOL     OW85064  12.504   4.668  10.790
27742SOL    HW185065  12.589   4.627  10.806
27742SOL    HW285066  12.440   4.603  10.820
27743SOL     OW85067   4.958   1.824  14.810
27743SOL    HW185068   5.036   1.860  14.769
27743SOL    HW285069   4.917   1.770  14.742
27744SOL     OW85070   0.082   0.640  11.727
27744SOL    HW185071   0.159   0.586  11.710
27744SOL    HW285072   0.094   0.717  11.671
27745SOL     OW85073   3.358  11.539   0.194
27745SOL    HW185074   3.390  11.594   0.123
27745SOL    HW285075   3.437  11.501   0.234
27746SOL     OW85076   4.894   9.721  10.304
27746SOL    HW185077   4.884   9.797  10.361
27746SOL    HW285078   4.880   9.646  10.361
27747SOL     OW85079  11.519   0.660  12.079
27747SOL    HW185080  11.610   0.644  12.104
27747SOL    HW285081  11.504   0.599  12.006
27748SOL     OW85082  14.757   8.990   8.778
27748SOL    HW185083  14.695   8.922   8.806
27748SOL    HW285084  14.842   8.947   8.780
27749SOL     OW85085  11.104   0.003   6.206
27749SOL    HW185086  11.157   0.035   6.278
27749SOL    HW285087  11.097   0.077   6.146
27750SOL     OW85088   4.558   9.245  14.579
27750SOL    HW185089   4.573   9.316  14.517
27750SOL    HW285090   4.603   9.170  14.540
27751SOL     OW85091  14.579   0.243   6.954
27751SOL    HW185092  14.517   0.216   7.021
27751SOL    HW285093  14.579   0.339   6.958
27752SOL     OW85094  10.141   3.028   0.689
27752SOL    HW185095  10.235   3.045   0.694
27752SOL    HW285096  10.126   2.955   0.749
27753SOL     OW85097   8.460   2.309  14.027
27753SOL    HW185098   8.538   2.360  14.005
27753SOL    HW285099   8.473   2.225  13.983
27754SOL     OW85100  10.404   2.959   7.513
27754SOL    HW185101  10.314   2.984   7.532
27754SOL    HW285102  10.416   2.977   7.420
27755SOL     OW85103   8.349   5.280  14.748
27755SOL    HW185104   8.417   5.335  14.788
27755SOL    HW285105   8.328   5.325  14.666
27756SOL     OW85106   5.086   5.212  12.643
27756SOL    HW185107   5.089   5.174  12.731
27756SOL    HW285108   5.143   5.288  12.647
27757SOL     OW85109   7.987   2.861   5.540
27757SOL    HW185110   7.959   2.938   5.490
27757SOL    HW285111   7.924   2.856   5.612
27758SOL     OW85112   9.633   0.642   4.336
27758SOL    HW185113   9.659   0.731   4.311
27758SOL    HW285114   9.576   0.655   4.412
27759SOL     OW85115  12.033   0.469   4.943
27759SOL    HW185116  12.127   0.453   4.941
27759SOL    HW285117  11.994   0.382   4.954
27760SOL     OW85118   2.497  12.787   4.228
27760SOL    HW185119   2.529  12.875   4.210
27760SOL    HW285120   2.402  12.793   4.219
27761SOL     OW85121   0.226  13.603   2.803
27761SOL    HW185122   0.178  13.672   2.758
27761SOL    HW285123   0.167  13.528   2.801
27762SOL     OW85124   7.924   1.309   4.090
27762SOL    HW185125   8.007   1.357   4.091
27762SOL    HW285126   7.886   1.324   4.177
27763SOL     OW85127   5.811  12.068  10.003
27763SOL    HW185128   5.797  11.989   9.952
27763SOL    HW285129   5.888  12.109   9.963
27764SOL     OW85130  11.244  13.710   5.611
27764SOL    HW185131  11.167  13.694   5.556
27764SOL    HW285132  11.276  13.622   5.633
27765SOL     OW85133   9.426   8.245   9.052
27765SOL    HW185134   9.384   8.171   9.096
27765SOL    HW285135   9.510   8.211   9.022
27766SOL     OW85136  11.586   3.268  13.686
27766SOL    HW185137  11.497   3.303  13.693
27766SOL    HW285138  11.574   3.178  13.655
27767SOL     OW85139   8.874   1.386   0.886
27767SOL    HW185140   8.805   1.332   0.924
27767SOL    HW285141   8.849   1.395   0.794
27768SOL     OW85142  13.876   6.873   1.223
27768SOL    HW185143  13.879   6.947   1.284
27768SOL    HW285144  13.816   6.811   1.264
27769SOL     OW85145  11.278   2.969   1.561
27769SOL    HW185146  11.201   2.914   1.550
27769SOL    HW285147  11.349   2.908   1.580
27770SOL     OW85148   9.172  10.038   6.723
27770SOL    HW185149   9.120  10.081   6.656
27770SOL    HW285150   9.115   9.971   6.759
27771SOL     OW85151   8.465   6.843   8.039
27771SOL    HW185152   8.518   6.764   8.026
27771SOL    HW285153   8.380   6.820   8.001
27772SOL     OW85154   9.498   9.261   7.544
27772SOL    HW185155   9.551   9.326   7.498
27772SOL    HW285156   9.525   9.177   7.506
27773SOL     OW85157  14.654   4.618   1.347
27773SOL    HW185158  14.624   4.540   1.393
27773SOL    HW285159  14.741   4.595   1.315
27774SOL     OW85160   0.828  12.958   9.189
27774SOL    HW185161   0.885  12.890   9.153
27774SOL    HW285162   0.878  12.998   9.260
27775SOL     OW85163   3.755  13.074   6.388
27775SOL    HW185164   3.808  13.136   6.439
27775SOL    HW285165   3.674  13.123   6.368
27776SOL     OW85166   5.110  13.759   4.526
27776SOL    HW185167   5.023  13.727   4.502
27776SOL    HW285168   5.127  13.832   4.467
27777SOL     OW85169   1.781   6.394   2.735
27777SOL    HW185170   1.814   6.418   2.822
27777SOL    HW285171   1.701   6.345   2.752
27778SOL     OW85172  12.174   0.218  12.683
27778SOL    HW185173  12.253   0.243  12.731
27778SOL    HW285174  12.199   0.140  12.634
27779SOL     OW85175   1.899   7.176   3.863
27779SOL    HW185176   1.864   7.249   3.812
27779SOL    HW285177   1.930   7.114   3.798
27780SOL     OW85178  12.154  13.006   3.752
27780SOL    HW185179  12.194  13.082   3.793
27780SOL    HW285180  12.176  13.014   3.659
27781SOL     OW85181   7.260   4.886  10.661
27781SOL    HW185182   7.304   4.838  10.732
27781SOL    HW285183   7.179   4.837  10.646
27782SOL     OW85184   1.976  13.287   3.583
27782SOL    HW185185   1.979  13.370   3.536
27782SOL    HW285186   2.000  13.221   3.518
27783SOL     OW85187   2.034   5.289  14.786
27783SOL    HW185188   2.090   5.297  14.708
27783SOL    HW285189   2.096   5.278  14.858
27784SOL     OW85190  10.135  14.769  11.530
27784SOL    HW185191  10.123  14.815  11.613
27784SOL    HW285192  10.106  14.832  11.464
27785SOL     OW85193  11.469   4.495   7.363
27785SOL    HW185194  11.528   4.566   7.387
27785SOL    HW285195  11.390   4.510   7.415
27786SOL     OW85196   2.563  11.777   7.335
27786SOL    HW185197   2.483  11.741   7.298
27786SOL    HW285198   2.532  11.838   7.402
27787SOL     OW85199  11.978  13.293  14.822
27787SOL    HW185200  11.961  13.331   0.035
27787SOL    HW285201  11.893  13.260  14.794
27788SOL     OW85202   2.204   5.381  12.785
27788SOL    HW185203   2.218   5.335  12.702
27788SOL    HW285204   2.216   5.474  12.764
27789SOL     OW85205  12.357  14.265   8.330
27789SOL    HW185206  12.326  14.176   8.313
27789SOL    HW285207  12.301  14.297   8.401
27790SOL     OW85208  11.478   3.923   6.834
27790SOL    HW185209  11.550   3.865   6.859
27790SOL    HW285210  11.513   3.976   6.763
27791SOL     OW85211   3.083  10.796   9.510
27791SOL    HW185212   3.052  10.803   9.419
27791SOL    HW285213   3.004  10.807   9.563
27792SOL     OW85214  10.157  14.474   8.351
27792SOL    HW185215  10.236  14.465   8.297
27792SOL    HW285216  10.133  14.567   8.344
27793SOL     OW85217  13.212   5.037  11.609
27793SOL    HW185218  13.204   5.075  11.697
27793SOL    HW285219  13.145   5.082  11.557
27794SOL     OW85220  13.294  12.023   7.959
27794SOL    HW185221  13.346  12.101   7.938
27794SOL    HW285222  13.246  12.046   8.039
27795SOL     OW85223  13.567   1.159   3.411
27795SOL    HW185224  13.562   1.120   3.498
27795SOL    HW285225  13.589   1.251   3.427
27796SOL     OW85226   1.010   9.542   3.347
27796SOL    HW185227   1.094   9.554   3.392
27796SOL    HW285228   0.969   9.469   3.393
27797SOL     OW85229  14.743  11.227   4.935
27797SOL    HW185230  14.707  11.139   4.927
27797SOL    HW285231  14.797  11.224   5.014
27798SOL     OW85232   1.264  10.212   6.674
27798SOL    HW185233   1.333  10.150   6.650
27798SOL    HW285234   1.200  10.206   6.603
27799SOL     OW85235  10.676  11.487  14.150
27799SOL    HW185236  10.696  11.393  14.147
27799SOL    HW285237  10.685  11.510  14.242
27800SOL     OW85238   6.514  11.288   4.986
27800SOL    HW185239   6.493  11.358   5.048
27800SOL    HW285240   6.593  11.247   5.021
27801SOL     OW85241  12.042   6.088   2.799
27801SOL    HW185242  12.027   6.179   2.824
27801SOL    HW285243  12.079   6.047   2.878
27802SOL     OW85244   7.199  14.074   2.093
27802SOL    HW185245   7.234  14.092   2.181
27802SOL    HW285246   7.166  13.985   2.099
27803SOL     OW85247  12.682   4.563  14.147
27803SOL    HW185248  12.732   4.527  14.221
27803SOL    HW285249  12.615   4.497  14.130
27804SOL     OW85250   6.431   7.138   9.114
27804SOL    HW185251   6.434   7.192   9.035
27804SOL    HW285252   6.466   7.053   9.086
27805SOL     OW85253   7.653   5.635   4.862
27805SOL    HW185254   7.656   5.587   4.779
27805SOL    HW285255   7.701   5.716   4.843
27806SOL     OW85256   8.637   3.489  10.060
27806SOL    HW185257   8.582   3.487  10.138
27806SOL    HW285258   8.714   3.436  10.084
27807SOL     OW85259   8.740   6.270  10.314
27807SOL    HW185260   8.690   6.310  10.385
27807SOL    HW285261   8.717   6.320  10.236
27808SOL     OW85262   5.827  12.143   8.159
27808SOL    HW185263   5.865  12.114   8.242
27808SOL    HW285264   5.868  12.088   8.093
27809SOL     OW85265   9.074   5.828   1.540
27809SOL    HW185266   9.099   5.865   1.455
27809SOL    HW285267   9.086   5.733   1.529
27810SOL     OW85268  12.828   8.143  12.135
27810SOL    HW185269  12.906   8.116  12.086
27810SOL    HW285270  12.782   8.203  12.077
27811SOL     OW85271   0.045  13.657   4.755
27811SOL    HW185272  14.865  13.670   4.834
27811SOL    HW285273   0.045  13.742   4.712
27812SOL     OW85274  10.427  11.234   7.042
27812SOL    HW185275  10.433  11.259   6.949
27812SOL    HW285276  10.478  11.301   7.088
27813SOL     OW85277   3.918  12.159   8.110
27813SOL    HW185278   3.963  12.075   8.106
27813SOL    HW285279   3.836  12.141   8.157
27814SOL     OW85280   0.850   4.660   9.827
27814SOL    HW185281   0.897   4.627   9.904
27814SOL    HW285282   0.829   4.582   9.776
27815SOL     OW85283  14.126   7.049   8.263
27815SOL    HW185284  14.062   7.044   8.333
27815SOL    HW285285  14.075   7.066   8.184
27816SOL     OW85286   3.702  14.235   7.222
27816SOL    HW185287   3.782  14.218   7.271
27816SOL    HW285288   3.695  14.162   7.160
27817SOL     OW85289  10.138   2.841  13.353
27817SOL    HW185290  10.121   2.893  13.274
27817SOL    HW285291  10.093   2.889  13.423
27818SOL     OW85292   5.846  14.361   7.733
27818SOL    HW185293   5.906  14.393   7.800
27818SOL    HW285294   5.845  14.266   7.745
27819SOL     OW85295   3.810   0.414   7.495
27819SOL    HW185296   3.715   0.429   7.497
27819SOL    HW285297   3.831   0.406   7.402
27820SOL     OW85298   8.159  12.154   6.042
27820SOL    HW185299   8.097  12.099   6.091
27820SOL    HW285300   8.106  12.226   6.009
27821SOL     OW85301   5.526  13.299   9.189
27821SOL    HW185302   5.511  13.360   9.261
27821SOL    HW285303   5.618  13.311   9.166
27822SOL     OW85304   5.038   0.856   9.122
27822SOL    HW185305   5.065   0.814   9.040
27822SOL    HW285306   5.120   0.889   9.159
27823SOL     OW85307   5.256  11.851  11.023
27823SOL    HW185308   5.197  11.910  11.070
27823SOL    HW285309   5.231  11.763  11.053
27824SOL     OW85310  11.247   1.199   4.968
27824SOL    HW185311  11.197   1.281   4.959
27824SOL    HW285312  11.197   1.148   5.032
27825SOL     OW85313  14.501   2.596   0.349
27825SOL    HW185314  14.566   2.604   0.420
27825SOL    HW285315  14.548   2.550   0.279
27826SOL     OW85316   7.853  13.865   1.671
27826SOL    HW185317   7.765  13.891   1.642
27826SOL    HW285318   7.887  13.942   1.716
27827SOL     OW85319  12.142   5.776  10.784
27827SOL    HW185320  12.176   5.782  10.873
27827SOL    HW285321  12.085   5.853  10.775
27828SOL     OW85322   8.309   5.783   8.697
27828SOL    HW185323   8.214   5.793   8.701
27828SOL    HW285324   8.343   5.841   8.765
27829SOL     OW85325  10.462  14.501   2.906
27829SOL    HW185326  10.368  14.493   2.892
27829SOL    HW285327  10.489  14.569   2.845
27830SOL     OW85328   5.249   4.313   4.229
27830SOL    HW185329   5.326   4.364   4.254
27830SOL    HW285330   5.180   4.378   4.218
27831SOL     OW85331   7.837   1.521  13.127
27831SOL    HW185332   7.789   1.570  13.061
27831SOL    HW285333   7.793   1.542  13.210
27832SOL     OW85334   0.988   9.686   4.610
27832SOL    HW185335   0.969   9.777   4.635
27832SOL    HW285336   1.020   9.692   4.520
27833SOL     OW85337  12.840   1.558   0.295
27833SOL    HW185338  12.935   1.566   0.308
27833SOL    HW285339  12.829   1.551   0.200
27834SOL     OW85340   3.702   7.087   3.547
27834SOL    HW185341   3.747   7.061   3.467
27834SOL    HW285342   3.633   7.022   3.559
27835SOL     OW85343   8.149   5.736   9.509
27835SOL    HW185344   8.151   5.779   9.424
27835SOL    HW285345   8.222   5.675   9.507
27836SOL     OW85346   2.685   0.598   6.789
27836SOL    HW185347   2.735   0.626   6.867
27836SOL    HW285348   2.618   0.665   6.778
27837SOL     OW85349   3.379   5.992  14.525
27837SOL    HW185350   3.427   6.065  14.485
27837SOL    HW285351   3.313   6.034  14.580
27838SOL     OW85352   0.919   6.221   3.304
27838SOL    HW185353   0.830   6.193   3.280
27838SOL    HW285354   0.949   6.271   3.228
27839SOL     OW85355   0.539   8.384  13.988
27839SOL    HW185356   0.547   8.376  13.893
27839SOL    HW285357   0.539   8.478  14.004
27840SOL     OW85358   7.588   1.092   6.627
27840SOL    HW185359   7.517   1.114   6.566
27840SOL    HW285360   7.658   1.154   6.604
27841SOL     OW85361   6.843   1.201   8.223
27841SOL    HW185362   6.826   1.118   8.267
27841SOL    HW285363   6.882   1.177   8.139
27842SOL     OW85364   9.388   5.367  11.422
27842SOL    HW185365   9.397   5.443  11.364
27842SOL    HW285366   9.300   5.334  11.404
27843SOL     OW85367   2.227   9.080  12.081
27843SOL    HW185368   2.243   9.125  12.163
27843SOL    HW285369   2.298   9.016  12.074
27844SOL     OW85370  12.071   7.266   9.723
27844SOL    HW185371  12.160   7.301   9.732
27844SOL    HW285372  12.042   7.298   9.637
27845SOL     OW85373   9.338   2.845  12.649
27845SOL    HW185374   9.295   2.883  12.573
27845SOL    HW285375   9.266   2.824  12.709
27846SOL     OW85376   3.163   5.966  10.670
27846SOL    HW185377   3.110   6.044  10.652
27846SOL    HW285378   3.254   5.998  10.666
27847SOL     OW85379   6.401   2.079   5.602
27847SOL    HW185380   6.380   2.157   5.550
27847SOL    HW285381   6.333   2.076   5.669
27848SOL     OW85382   6.039   8.655  13.014
27848SOL    HW185383   5.970   8.617  13.068
27848SOL    HW285384   6.022   8.621  12.926
27849SOL     OW85385   9.905   0.113  14.404
27849SOL    HW185386   9.902   0.100  14.499
27849SOL    HW285387   9.934   0.028  14.369
27850SOL     OW85388  12.136  10.528  11.715
27850SOL    HW185389  12.048  10.558  11.694
27850SOL    HW285390  12.194  10.589  11.668
27851SOL     OW85391   3.419   0.503   6.650
27851SOL    HW185392   3.473   0.439   6.604
27851SOL    HW285393   3.400   0.462   6.735
27852SOL     OW85394   9.003   5.719   4.561
27852SOL    HW185395   8.963   5.796   4.522
27852SOL    HW285396   9.005   5.654   4.491
27853SOL     OW85397   9.207   4.986  10.318
27853SOL    HW185398   9.232   5.008  10.228
27853SOL    HW285399   9.139   4.919  10.309
27854SOL     OW85400   3.882   9.034   3.452
27854SOL    HW185401   3.848   8.951   3.486
27854SOL    HW285402   3.882   9.092   3.527
27855SOL     OW85403   9.001  11.401  11.253
27855SOL    HW185404   9.082  11.407  11.304
27855SOL    HW285405   8.974  11.310  11.263
27856SOL     OW85406   3.882  10.092   1.782
27856SOL    HW185407   3.815  10.139   1.732
27856SOL    HW285408   3.950  10.070   1.718
27857SOL     OW85409  11.238   0.554   8.598
27857SOL    HW185410  11.302   0.553   8.526
27857SOL    HW285411  11.283   0.601   8.669
27858SOL     OW85412  10.182   8.088   0.224
27858SOL    HW185413  10.177   8.021   0.156
27858SOL    HW285414  10.251   8.147   0.193
27859SOL     OW85415  10.617   8.680   9.978
27859SOL    HW185416  10.550   8.652   9.916
27859SOL    HW285417  10.592   8.769  10.002
27860SOL     OW85418   6.021  14.708   0.802
27860SOL    HW185419   6.051  14.649   0.871
27860SOL    HW285420   5.929  14.686   0.789
27861SOL     OW85421   4.522   1.509  10.974
27861SOL    HW185422   4.495   1.446  11.040
27861SOL    HW285423   4.615   1.491  10.960
27862SOL     OW85424   0.507  10.858   1.195
27862SOL    HW185425   0.568  10.918   1.151
27862SOL    HW285426   0.466  10.810   1.124
27863SOL     OW85427  11.064   7.721   0.727
27863SOL    HW185428  11.021   7.716   0.642
27863SOL    HW285429  10.993   7.719   0.790
27864SOL     OW85430   7.878  12.204  11.935
27864SOL    HW185431   7.789  12.230  11.912
27864SOL    HW285432   7.932  12.281  11.914
27865SOL     OW85433  14.730  11.313  11.523
27865SOL    HW185434  14.646  11.272  11.501
27865SOL    HW285435  14.720  11.405  11.498
27866SOL     OW85436  12.565  10.548  14.361
27866SOL    HW185437  12.487  10.527  14.310
27866SOL    HW285438  12.566  10.482  14.430
27867SOL     OW85439  12.778   7.921  14.466
27867SOL    HW185440  12.701   7.978  14.466
27867SOL    HW285441  12.824   7.941  14.384
27868SOL     OW85442  13.251   7.444  14.114
27868SOL    HW185443  13.333   7.448  14.163
27868SOL    HW285444  13.194   7.508  14.159
27869SOL     OW85445  12.582  13.922  12.246
27869SOL    HW185446  12.535  13.961  12.319
27869SOL    HW285447  12.537  13.839  12.229
27870SOL     OW85448  14.663  12.334   6.239
27870SOL    HW185449  14.698  12.297   6.320
27870SOL    HW285450  14.674  12.263   6.175
27871SOL     OW85451  13.793   1.781   4.334
27871SOL    HW185452  13.835   1.777   4.420
27871SOL    HW285453  13.702   1.801   4.353
27872SOL     OW85454   6.159   0.689   4.486
27872SOL    HW185455   6.134   0.597   4.496
27872SOL    HW285456   6.245   0.686   4.446
27873SOL     OW85457   8.560   4.103   0.623
27873SOL    HW185458   8.535   4.056   0.543
27873SOL    HW285459   8.615   4.175   0.592
27874SOL     OW85460   6.908  13.700   4.548
27874SOL    HW185461   6.835  13.714   4.488
27874SOL    HW285462   6.979  13.668   4.492
27875SOL     OW85463  13.689   2.266  12.810
27875SOL    HW185464  13.778   2.235  12.825
27875SOL    HW285465  13.700   2.358  12.786
27876SOL     OW85466   5.738  13.171  12.283
27876SOL    HW185467   5.730  13.265  12.268
27876SOL    HW285468   5.664  13.132  12.237
27877SOL     OW85469  13.049  10.425   2.008
27877SOL    HW185470  13.128  10.431   2.062
27877SOL    HW285471  12.981  10.469   2.058
27878SOL     OW85472   2.972   8.054  11.746
27878SOL    HW185473   2.890   8.016  11.777
27878SOL    HW285474   2.991   8.125  11.807
27879SOL     OW85475   0.209   2.003   8.850
27879SOL    HW185476   0.257   1.952   8.785
27879SOL    HW285477   0.221   1.954   8.932
27880SOL     OW85478  12.845  13.451  12.360
27880SOL    HW185479  12.878  13.540  12.375
27880SOL    HW285480  12.750  13.459  12.369
27881SOL     OW85481  13.578   5.725  10.048
27881SOL    HW185482  13.589   5.707   9.955
27881SOL    HW285483  13.483   5.724  10.061
27882SOL     OW85484   5.105   8.916   9.115
27882SOL    HW185485   5.190   8.927   9.157
27882SOL    HW285486   5.120   8.942   9.024
27883SOL     OW85487  14.173   9.219   7.219
27883SOL    HW185488  14.173   9.124   7.209
27883SOL    HW285489  14.233   9.251   7.151
27884SOL     OW85490   7.123  10.227  12.127
27884SOL    HW185491   7.114  10.136  12.154
27884SOL    HW285492   7.145  10.222  12.034
27885SOL     OW85493  14.091   7.246   1.199
27885SOL    HW185494  14.006   7.277   1.231
27885SOL    HW285495  14.127   7.197   1.272
27886SOL     OW85496  10.531  13.601  10.038
27886SOL    HW185497  10.528  13.643   9.952
27886SOL    HW285498  10.623  13.578  10.051
27887SOL     OW85499   6.318   4.563   0.245
27887SOL    HW185500   6.396   4.609   0.274
27887SOL    HW285501   6.265   4.554   0.324
27888SOL     OW85502   1.758   9.067   6.392
27888SOL    HW185503   1.780   9.148   6.437
27888SOL    HW285504   1.662   9.064   6.393
27889SOL     OW85505   4.503  14.094   5.136
27889SOL    HW185506   4.461  14.177   5.117
27889SOL    HW285507   4.433  14.038   5.170
27890SOL     OW85508   4.515   8.472   1.973
27890SOL    HW185509   4.589   8.504   2.025
27890SOL    HW285510   4.538   8.493   1.883
27891SOL     OW85511   5.840   5.742   5.295
27891SOL    HW185512   5.926   5.726   5.255
27891SOL    HW285513   5.809   5.655   5.320
27892SOL     OW85514   6.983   1.614  13.911
27892SOL    HW185515   7.030   1.691  13.940
27892SOL    HW285516   7.022   1.542  13.960
27893SOL     OW85517   0.613   0.504   4.505
27893SOL    HW185518   0.592   0.423   4.552
27893SOL    HW285519   0.605   0.481   4.413
27894SOL     OW85520  11.559   7.535  10.485
27894SOL    HW185521  11.648   7.537  10.450
27894SOL    HW285522  11.534   7.627  10.491
27895SOL     OW85523   5.361  14.852  14.359
27895SOL    HW185524   5.442  14.812  14.393
27895SOL    HW285525   5.391   0.055  14.309
27896SOL     OW85526   3.976  11.129   7.851
27896SOL    HW185527   4.053  11.187   7.848
27896SOL    HW285528   3.903  11.188   7.869
27897SOL     OW85529   8.154   4.129   7.299
27897SOL    HW185530   8.082   4.179   7.259
27897SOL    HW285531   8.122   4.109   7.387
27898SOL     OW85532   8.763   9.915   9.520
27898SOL    HW185533   8.840   9.930   9.574
27898SOL    HW285534   8.731  10.003   9.499
27899SOL     OW85535   6.796   5.345   3.712
27899SOL    HW185536   6.787   5.437   3.689
27899SOL    HW285537   6.803   5.344   3.807
27900SOL     OW85538   7.090   0.701  11.516
27900SOL    HW185539   7.100   0.795  11.505
27900SOL    HW285540   7.003   0.691  11.554
27901SOL     OW85541   8.977   8.398  12.554
27901SOL    HW185542   8.923   8.393  12.633
27901SOL    HW285543   8.983   8.492  12.535
27902SOL     OW85544   4.663   2.803   9.025
27902SOL    HW185545   4.592   2.743   9.047
27902SOL    HW285546   4.641   2.884   9.072
27903SOL     OW85547   2.673   5.814   0.517
27903SOL    HW185548   2.696   5.730   0.476
27903SOL    HW285549   2.616   5.790   0.589
27904SOL     OW85550  12.439  13.949   1.904
27904SOL    HW185551  12.405  13.929   1.817
27904SOL    HW285552  12.493  14.027   1.891
27905SOL     OW85553   0.579   0.589   7.767
27905SOL    HW185554   0.506   0.626   7.718
27905SOL    HW285555   0.657   0.629   7.728
27906SOL     OW85556  10.451   3.130  13.728
27906SOL    HW185557  10.374   3.148  13.781
27906SOL    HW285558  10.443   3.037  13.705
27907SOL     OW85559  12.314  10.960   5.769
27907SOL    HW185560  12.311  10.868   5.795
27907SOL    HW285561  12.325  10.958   5.674
27908SOL     OW85562   4.945   9.036  12.948
27908SOL    HW185563   5.021   9.093  12.962
27908SOL    HW285564   4.963   8.990  12.866
27909SOL     OW85565  12.744   2.242   8.903
27909SOL    HW185566  12.698   2.229   8.985
27909SOL    HW285567  12.677   2.276   8.843
27910SOL     OW85568   3.234   5.904  12.775
27910SOL    HW185569   3.175   5.835  12.743
27910SOL    HW285570   3.288   5.861  12.841
27911SOL     OW85571  10.457  12.738   2.202
27911SOL    HW185572  10.467  12.811   2.263
27911SOL    HW285573  10.404  12.773   2.131
27912SOL     OW85574   2.791  12.185  14.302
27912SOL    HW185575   2.842  12.259  14.333
27912SOL    HW285576   2.736  12.220  14.232
27913SOL     OW85577   1.998  12.930  13.806
27913SOL    HW185578   1.980  12.889  13.721
27913SOL    HW285579   2.064  12.874  13.846
27914SOL     OW85580   1.742   0.762  13.150
27914SOL    HW185581   1.726   0.704  13.225
27914SOL    HW285582   1.821   0.726  13.109
27915SOL     OW85583  14.390   2.270   8.155
27915SOL    HW185584  14.415   2.276   8.247
27915SOL    HW285585  14.303   2.229   8.157
27916SOL     OW85586  14.693   8.871   5.414
27916SOL    HW185587  14.760   8.884   5.346
27916SOL    HW285588  14.713   8.785   5.451
27917SOL     OW85589   2.752   8.020   4.092
27917SOL    HW185590   2.767   7.930   4.063
27917SOL    HW285591   2.834   8.066   4.075
27918SOL     OW85592  11.004   5.025   7.583
27918SOL    HW185593  10.946   4.955   7.554
27918SOL    HW285594  10.962   5.060   7.662
27919SOL     OW85595   7.869   7.625   3.256
27919SOL    HW185596   7.838   7.599   3.343
27919SOL    HW285597   7.887   7.542   3.212
27920SOL     OW85598  11.841   8.853  12.002
27920SOL    HW185599  11.881   8.939  11.986
27920SOL    HW285600  11.748   8.872  12.014
27921SOL     OW85601   7.751   0.242   0.078
27921SOL    HW185602   7.766   0.318   0.022
27921SOL    HW285603   7.837   0.224   0.116
27922SOL     OW85604   2.204   5.674   4.683
27922SOL    HW185605   2.251   5.600   4.721
27922SOL    HW285606   2.155   5.636   4.609
27923SOL     OW85607  12.008   3.188   7.841
27923SOL    HW185608  12.008   3.197   7.746
27923SOL    HW285609  12.071   3.118   7.858
27924SOL     OW85610   3.979   1.581  10.736
27924SOL    HW185611   3.884   1.581  10.736
27924SOL    HW285612   4.003   1.579  10.829
27925SOL     OW85613   8.311  14.217   5.286
27925SOL    HW185614   8.396  14.172   5.285
27925SOL    HW285615   8.319  14.286   5.221
27926SOL     OW85616   5.133   0.821   3.498
27926SOL    HW185617   5.202   0.886   3.509
27926SOL    HW285618   5.062   0.868   3.453
27927SOL     OW85619   1.606   4.730   7.620
27927SOL    HW185620   1.534   4.762   7.675
27927SOL    HW285621   1.655   4.809   7.596
27928SOL     OW85622  13.256   2.908  14.013
27928SOL    HW185623  13.253   2.813  14.022
27928SOL    HW285624  13.244   2.941  14.102
27929SOL     OW85625  11.074   2.057  13.196
27929SOL    HW185626  11.128   2.020  13.266
27929SOL    HW285627  11.118   2.138  13.171
27930SOL     OW85628   7.334   9.895   2.318
27930SOL    HW185629   7.361   9.916   2.407
27930SOL    HW285630   7.411   9.852   2.279
27931SOL     OW85631  10.401   0.221  10.878
27931SOL    HW185632  10.418   0.135  10.838
27931SOL    HW285633  10.458   0.281  10.830
27932SOL     OW85634   8.707   6.251   1.527
27932SOL    HW185635   8.690   6.188   1.457
27932SOL    HW285636   8.688   6.204   1.608
27933SOL     OW85637   2.605  12.497  13.979
27933SOL    HW185638   2.619  12.589  14.002
27933SOL    HW285639   2.526  12.498  13.926
27934SOL     OW85640   8.408   7.543  12.518
27934SOL    HW185641   8.492   7.582  12.541
27934SOL    HW285642   8.401   7.465  12.574
27935SOL     OW85643   2.888   1.742   2.233
27935SOL    HW185644   2.876   1.651   2.260
27935SOL    HW285645   2.909   1.737   2.140
27936SOL     OW85646   4.159   5.074   2.189
27936SOL    HW185647   4.154   4.995   2.134
27936SOL    HW285648   4.168   5.040   2.278
27937SOL     OW85649  10.081  11.917   3.476
27937SOL    HW185650  10.047  11.848   3.419
27937SOL    HW285651  10.071  11.997   3.426
27938SOL     OW85652   5.209  10.537   4.460
27938SOL    HW185653   5.149  10.525   4.387
27938SOL    HW285654   5.294  10.507   4.427
27939SOL     OW85655   1.294   0.292   4.727
27939SOL    HW185656   1.351   0.225   4.765
27939SOL    HW285657   1.206   0.268   4.757
27940SOL     OW85658  13.801   2.250   8.586
27940SOL    HW185659  13.732   2.204   8.539
27940SOL    HW285660  13.766   2.338   8.600
27941SOL     OW85661  14.458  10.383   1.895
27941SOL    HW185662  14.381  10.426   1.931
27941SOL    HW285663  14.506  10.351   1.972
27942SOL     OW85664   5.040   4.970  10.859
27942SOL    HW185665   4.990   5.048  10.835
27942SOL    HW285666   5.114   4.970  10.798
27943SOL     OW85667   8.763  14.462   6.580
27943SOL    HW185668   8.804  14.389   6.534
27943SOL    HW285669   8.694  14.422   6.633
27944SOL     OW85670  12.493   4.606  12.155
27944SOL    HW185671  12.468   4.679  12.097
27944SOL    HW285672  12.413   4.585  12.203
27945SOL     OW85673   6.387   8.376  13.689
27945SOL    HW185674   6.420   8.394  13.601
27945SOL    HW285675   6.441   8.303  13.720
27946SOL     OW85676  13.692   4.413   6.484
27946SOL    HW185677  13.686   4.494   6.536
27946SOL    HW285678  13.672   4.344   6.547
27947SOL     OW85679   8.595  13.013  12.303
27947SOL    HW185680   8.672  12.956  12.302
27947SOL    HW285681   8.530  12.964  12.353
27948SOL     OW85682   3.888   3.934   3.460
27948SOL    HW185683   3.818   3.916   3.523
27948SOL    HW285684   3.969   3.914   3.507
27949SOL     OW85685   1.450   7.352  10.129
27949SOL    HW185686   1.525   7.357  10.069
27949SOL    HW285687   1.373   7.363  10.073
27950SOL     OW85688  11.139   3.560  12.290
27950SOL    HW185689  11.059   3.573  12.340
27950SOL    HW285690  11.110   3.525  12.206
27951SOL     OW85691  14.646   2.397   5.584
27951SOL    HW185692  14.731   2.361   5.559
27951SOL    HW285693  14.663   2.445   5.665
27952SOL     OW85694  10.066  14.534   9.274
27952SOL    HW185695  10.086  14.627   9.260
27952SOL    HW285696  10.053  14.526   9.369
27953SOL     OW85697   9.446  14.151   8.356
27953SOL    HW185698   9.382  14.128   8.424
27953SOL    HW285699   9.462  14.069   8.310
27954SOL     OW85700  10.671   5.007   9.717
27954SOL    HW185701  10.732   4.960   9.774
27954SOL    HW285702  10.601   4.944   9.701
27955SOL     OW85703   3.299   6.669  11.797
27955SOL    HW185704   3.391   6.677  11.774
27955SOL    HW285705   3.282   6.575  11.797
27956SOL     OW85706   9.494   9.871   9.506
27956SOL    HW185707   9.574   9.820   9.492
27956SOL    HW285708   9.435   9.811   9.551
27957SOL     OW85709   5.005   2.627   1.657
27957SOL    HW185710   5.096   2.597   1.648
27957SOL    HW285711   5.012   2.713   1.696
27958SOL     OW85712   8.621   5.649  14.273
27958SOL    HW185713   8.562   5.582  14.237
27958SOL    HW285714   8.701   5.601  14.292
27959SOL     OW85715  12.845   6.254   4.035
27959SOL    HW185716  12.788   6.203   4.092
27959SOL    HW285717  12.933   6.239   4.068
27960SOL     OW85718   7.231  11.444   0.966
27960SOL    HW185719   7.197  11.478   0.884
27960SOL    HW285720   7.233  11.520   1.024
27961SOL     OW85721  13.781   8.435   7.891
27961SOL    HW185722  13.707   8.448   7.832
27961SOL    HW285723  13.744   8.389   7.966
27962SOL     OW85724   6.416   2.628   0.372
27962SOL    HW185725   6.378   2.653   0.456
27962SOL    HW285726   6.341   2.606   0.317
27963SOL     OW85727   9.327   2.209   7.142
27963SOL    HW185728   9.299   2.288   7.097
27963SOL    HW285729   9.301   2.138   7.083
27964SOL     OW85730   0.014  11.286  10.289
27964SOL    HW185731   0.108  11.303  10.295
27964SOL    HW285732   0.007  11.209  10.233
27965SOL     OW85733   6.893  10.026   2.069
27965SOL    HW185734   6.849  10.105   2.037
27965SOL    HW285735   6.974  10.058   2.108
27966SOL     OW85736   2.874   6.918  12.894
27966SOL    HW185737   2.812   6.869  12.840
27966SOL    HW285738   2.829   7.000  12.914
27967SOL     OW85739  14.038   4.481   6.488
27967SOL    HW185740  14.069   4.392   6.503
27967SOL    HW285741  13.987   4.475   6.407
27968SOL     OW85742   0.983   5.660  10.954
27968SOL    HW185743   1.064   5.638  10.909
27968SOL    HW285744   1.010   5.725  11.020
27969SOL     OW85745   8.452  11.032   1.630
27969SOL    HW185746   8.457  11.051   1.536
27969SOL    HW285747   8.465  10.938   1.636
27970SOL     OW85748  10.633  11.010   4.710
27970SOL    HW185749  10.582  11.062   4.773
27970SOL    HW285750  10.703  10.971   4.763
27971SOL     OW85751   3.789   5.963  11.382
27971SOL    HW185752   3.832   5.949  11.297
27971SOL    HW285753   3.695   5.961  11.361
27972SOL     OW85754  13.624  10.438   4.445
27972SOL    HW185755  13.640  10.453   4.538
27972SOL    HW285756  13.554  10.498   4.422
27973SOL     OW85757   9.633   0.019   1.306
27973SOL    HW185758   9.688   0.093   1.330
27973SOL    HW285759   9.611  14.850   1.389
27974SOL     OW85760   9.935  10.156  11.239
27974SOL    HW185761   9.889  10.134  11.320
27974SOL    HW285762   9.896  10.239  11.211
27975SOL     OW85763  13.762   7.472  11.209
27975SOL    HW185764  13.833   7.515  11.255
27975SOL    HW285765  13.686   7.528  11.224
27976SOL     OW85766  13.238   1.397   6.295
27976SOL    HW185767  13.329   1.415   6.317
27976SOL    HW285768  13.239   1.378   6.201
27977SOL     OW85769   7.635   4.117  11.815
27977SOL    HW185770   7.576   4.061  11.766
27977SOL    HW285771   7.633   4.082  11.904
27978SOL     OW85772   9.291  11.497  12.720
27978SOL    HW185773   9.284  11.407  12.751
27978SOL    HW285774   9.338  11.490  12.636
27979SOL     OW85775   9.379   2.857   7.758
27979SOL    HW185776   9.379   2.942   7.803
27979SOL    HW285777   9.464   2.853   7.715
27980SOL     OW85778   0.615   8.793   0.885
27980SOL    HW185779   0.654   8.710   0.912
27980SOL    HW285780   0.690   8.849   0.864
27981SOL     OW85781   4.650   8.818  10.009
27981SOL    HW185782   4.616   8.895   9.963
27981SOL    HW285783   4.575   8.759  10.016
27982SOL     OW85784   9.220   9.240   7.377
27982SOL    HW185785   9.256   9.152   7.393
27982SOL    HW285786   9.260   9.268   7.295
27983SOL     OW85787  12.170   8.681   2.999
27983SOL    HW185788  12.211   8.658   2.916
27983SOL    HW285789  12.082   8.643   2.994
27984SOL     OW85790   1.853   2.981   5.400
27984SOL    HW185791   1.782   2.968   5.463
27984SOL    HW285792   1.909   2.904   5.412
27985SOL     OW85793  12.561   5.721   8.166
27985SOL    HW185794  12.514   5.683   8.240
27985SOL    HW285795  12.507   5.795   8.138
27986SOL     OW85796   3.460   8.722   5.229
27986SOL    HW185797   3.468   8.764   5.315
27986SOL    HW285798   3.497   8.785   5.168
27987SOL     OW85799  10.401   3.268   5.202
27987SOL    HW185800  10.332   3.335   5.193
27987SOL    HW285801  10.433   3.280   5.292
27988SOL     OW85802  11.828   8.256  14.849
27988SOL    HW185803  11.911   8.237  14.805
27988SOL    HW285804  11.787   8.171  14.860
27989SOL     OW85805   2.323  11.116   3.094
27989SOL    HW185806   2.257  11.058   3.057
27989SOL    HW285807   2.402  11.063   3.099
27990SOL     OW85808   1.757   5.377  13.108
27990SOL    HW185809   1.717   5.462  13.093
27990SOL    HW285810   1.842   5.382  13.064
27991SOL     OW85811   2.874   8.509  11.504
27991SOL    HW185812   2.805   8.524  11.569
27991SOL    HW285813   2.829   8.517  11.420
27992SOL     OW85814  14.413   9.191   9.551
27992SOL    HW185815  14.446   9.280   9.557
27992SOL    HW285816  14.444   9.147   9.630
27993SOL     OW85817  12.517  11.546  11.394
27993SOL    HW185818  12.546  11.552  11.302
27993SOL    HW285819  12.561  11.619  11.437
27994SOL     OW85820  12.610   2.342  12.955
27994SOL    HW185821  12.589   2.326  13.047
27994SOL    HW285822  12.654   2.427  12.955
27995SOL     OW85823   6.114   7.361   1.879
27995SOL    HW185824   6.021   7.373   1.860
27995SOL    HW285825   6.152   7.448   1.866
27996SOL     OW85826  14.378  10.144   5.221
27996SOL    HW185827  14.438  10.218   5.219
27996SOL    HW285828  14.409  10.086   5.152
27997SOL     OW85829   2.573   5.709  11.840
27997SOL    HW185830   2.512   5.659  11.786
27997SOL    HW285831   2.609   5.775  11.780
27998SOL     OW85832  11.543  10.331  13.844
27998SOL    HW185833  11.605  10.264  13.873
27998SOL    HW285834  11.524  10.382  13.922
27999SOL     OW85835   6.422   4.636  13.580
27999SOL    HW185836   6.370   4.597  13.650
27999SOL    HW285837   6.361   4.692  13.532
28000SOL     OW85838   8.099   9.519  13.252
28000SOL    HW185839   8.088   9.528  13.158
28000SOL    HW285840   8.140   9.434  13.264
28001SOL     OW85841  11.075   7.211   4.032
28001SOL    HW185842  11.088   7.224   4.126
28001SOL    HW285843  11.098   7.295   3.992
28002SOL     OW85844   0.775   8.201   4.521
28002SOL    HW185845   0.813   8.133   4.466
28002SOL    HW285846   0.709   8.157   4.574
28003SOL     OW85847  14.359  11.920  12.005
28003SOL    HW185848  14.295  11.851  12.020
28003SOL    HW285849  14.307  11.995  11.977
28004SOL     OW85850  13.299   4.362   8.323
28004SOL    HW185851  13.256   4.413   8.254
28004SOL    HW285852  13.364   4.422   8.360
28005SOL     OW85853   8.829   4.154  14.173
28005SOL    HW185854   8.738   4.156  14.204
28005SOL    HW285855   8.880   4.129  14.251
28006SOL     OW85856   0.844  11.986   8.880
28006SOL    HW185857   0.765  11.944   8.846
28006SOL    HW285858   0.897  12.003   8.802
28007SOL     OW85859   2.469  13.807   9.941
28007SOL    HW185860   2.475  13.893   9.984
28007SOL    HW285861   2.527  13.814   9.866
28008SOL     OW85862   0.110   5.345   1.609
28008SOL    HW185863   0.163   5.269   1.633
28008SOL    HW285864   0.037   5.344   1.671
28009SOL     OW85865   0.418  12.754   1.807
28009SOL    HW185866   0.330  12.726   1.782
28009SOL    HW285867   0.462  12.673   1.831
28010SOL     OW85868   1.044  13.408   6.523
28010SOL    HW185869   1.014  13.362   6.446
28010SOL    HW285870   0.989  13.375   6.594
28011SOL     OW85871   9.106   7.393  13.446
28011SOL    HW185872   9.188   7.349  13.470
28011SOL    HW285873   9.043   7.365  13.513
28012SOL     OW85874   6.958   5.853   0.115
28012SOL    HW185875   6.935   5.923   0.054
28012SOL    HW285876   6.958   5.894   0.201
28013SOL     OW85877  12.653  10.250   0.618
28013SOL    HW185878  12.604  10.323   0.580
28013SOL    HW285879  12.651  10.265   0.712
28014SOL     OW85880  13.733   9.255  10.464
28014SOL    HW185881  13.762   9.255  10.556
28014SOL    HW285882  13.813   9.244  10.414
28015SOL     OW85883   7.646   9.483  12.108
28015SOL    HW185884   7.693   9.417  12.158
28015SOL    HW285885   7.704   9.503  12.035
28016SOL     OW85886   3.861  12.349  11.337
28016SOL    HW185887   3.837  12.437  11.368
28016SOL    HW285888   3.810  12.337  11.257
28017SOL     OW85889   9.963   7.792   3.239
28017SOL    HW185890   9.878   7.835   3.232
28017SOL    HW285891   9.968   7.733   3.164
28018SOL     OW85892   1.521   0.325   8.968
28018SOL    HW185893   1.436   0.331   8.925
28018SOL    HW285894   1.583   0.358   8.902
28019SOL     OW85895  12.380   4.820  11.310
28019SOL    HW185896  12.379   4.890  11.375
28019SOL    HW285897  12.323   4.852  11.240
28020SOL     OW85898  14.618   6.487   7.108
28020SOL    HW185899  14.620   6.558   7.043
28020SOL    HW285900  14.588   6.530   7.189
28021SOL     OW85901   7.586   9.815   7.108
28021SOL    HW185902   7.627   9.864   7.179
28021SOL    HW285903   7.532   9.880   7.062
28022SOL     OW85904  12.011   9.921  11.386
28022SOL    HW185905  12.103   9.894  11.377
28022SOL    HW285906  11.968   9.846  11.427
28023SOL     OW85907   3.669  10.318   5.205
28023SOL    HW185908   3.763  10.302   5.196
28023SOL    HW285909   3.663  10.393   5.264
28024SOL     OW85910   6.678   6.423   7.102
28024SOL    HW185911   6.736   6.349   7.081
28024SOL    HW285912   6.626   6.435   7.022
28025SOL     OW85913   9.819   8.307  14.036
28025SOL    HW185914   9.788   8.236  13.980
28025SOL    HW285915   9.896   8.270  14.079
28026SOL     OW85916   7.213  14.777   7.629
28026SOL    HW185917   7.128  14.750   7.593
28026SOL    HW285918   7.234  14.858   7.583
28027SOL     OW85919  10.677  13.739   6.549
28027SOL    HW185920  10.723  13.789   6.616
28027SOL    HW285921  10.746  13.701   6.495
28028SOL     OW85922  14.706   8.582  10.878
28028SOL    HW185923  14.737   8.538  10.957
28028SOL    HW285924  14.684   8.671  10.907
28029SOL     OW85925   0.735  10.109   6.183
28029SOL    HW185926   0.815  10.064   6.211
28029SOL    HW285927   0.668  10.040   6.183
28030SOL     OW85928  14.745  11.207   1.059
28030SOL    HW185929  14.798  11.155   1.119
28030SOL    HW285930  14.770  11.298   1.077
28031SOL     OW85931   0.067  10.735  11.931
28031SOL    HW185932  14.844  10.730  11.933
28031SOL    HW285933   0.093  10.653  11.889
28032SOL     OW85934   4.317   1.139   0.271
28032SOL    HW185935   4.313   1.139   0.175
28032SOL    HW285936   4.397   1.187   0.291
28033SOL     OW85937   1.208   5.904   4.278
28033SOL    HW185938   1.201   5.999   4.264
28033SOL    HW285939   1.264   5.873   4.206
28034SOL     OW85940   1.306  11.866   9.699
28034SOL    HW185941   1.264  11.901   9.620
28034SOL    HW285942   1.298  11.936   9.763
28035SOL     OW85943   2.975   8.959   1.773
28035SOL    HW185944   2.977   8.875   1.818
28035SOL    HW285945   2.930   8.941   1.691
28036SOL     OW85946   0.101   2.727  12.415
28036SOL    HW185947   0.017   2.772  12.419
28036SOL    HW285948   0.097   2.663  12.487
28037SOL     OW85949  10.880   2.743  13.280
28037SOL    HW185950  10.852   2.785  13.362
28037SOL    HW285951  10.807   2.757  13.220
28038SOL     OW85952   0.779  13.277   3.578
28038SOL    HW185953   0.832  13.259   3.656
28038SOL    HW285954   0.719  13.203   3.572
28039SOL     OW85955   4.735   3.216  11.473
28039SOL    HW185956   4.705   3.246  11.559
28039SOL    HW285957   4.725   3.121  11.476
28040SOL     OW85958   8.602   4.585   3.754
28040SOL    HW185959   8.669   4.573   3.821
28040SOL    HW285960   8.644   4.556   3.673
28041SOL     OW85961   5.772   5.305  12.006
28041SOL    HW185962   5.737   5.243  12.070
28041SOL    HW285963   5.847   5.345  12.049
28042SOL     OW85964  11.898   8.882   9.539
28042SOL    HW185965  11.822   8.829   9.514
28042SOL    HW285966  11.927   8.922   9.457
28043SOL     OW85967   4.744   5.562   2.059
28043SOL    HW185968   4.814   5.501   2.083
28043SOL    HW285969   4.789   5.637   2.020
28044SOL     OW85970  11.003  12.812   9.651
28044SOL    HW185971  10.948  12.734   9.642
28044SOL    HW285972  11.074  12.799   9.588
28045SOL     OW85973  14.489   1.015   4.741
28045SOL    HW185974  14.426   0.951   4.773
28045SOL    HW285975  14.436   1.078   4.692
28046SOL     OW85976  11.404   2.422   7.320
28046SOL    HW185977  11.478   2.481   7.334
28046SOL    HW285978  11.375   2.442   7.231
28047SOL     OW85979  10.953  12.105   1.933
28047SOL    HW185980  10.964  12.199   1.946
28047SOL    HW285981  10.880  12.097   1.872
28048SOL     OW85982  14.372  14.105   1.598
28048SOL    HW185983  14.447  14.046   1.602
28048SOL    HW285984  14.404  14.188   1.634
28049SOL     OW85985   5.788   6.327   2.875
28049SOL    HW185986   5.706   6.289   2.909
28049SOL    HW285987   5.839   6.251   2.847
28050SOL     OW85988   3.789  13.016   0.962
28050SOL    HW185989   3.875  13.021   0.920
28050SOL    HW285990   3.748  12.937   0.925
28051SOL     OW85991  10.313   5.928  13.516
28051SOL    HW185992  10.370   5.951  13.443
28051SOL    HW285993  10.359   5.962  13.593
28052SOL     OW85994   2.568   7.055   1.407
28052SOL    HW185995   2.644   7.021   1.359
28052SOL    HW285996   2.586   7.149   1.415
28053SOL     OW85997  12.196   4.693   3.469
28053SOL    HW185998  12.222   4.784   3.457
28053SOL    HW285999  12.279   4.646   3.479
28054SOL     OW86000   9.178  11.378   5.677
28054SOL    HW186001   9.195  11.452   5.735
28054SOL    HW286002   9.198  11.301   5.731
28055SOL     OW86003   9.645  12.850   7.400
28055SOL    HW186004   9.599  12.836   7.317
28055SOL    HW286005   9.682  12.765   7.422
28056SOL     OW86006   7.656   1.997  14.495
28056SOL    HW186007   7.712   1.928  14.458
28056SOL    HW286008   7.569   1.978  14.462
28057SOL     OW86009   4.444  11.458   7.602
28057SOL    HW186010   4.359  11.501   7.601
28057SOL    HW286011   4.507  11.529   7.593
28058SOL     OW86012  13.265   1.354   0.127
28058SOL    HW186013  13.338   1.292   0.138
28058SOL    HW286014  13.225   1.327   0.044
28059SOL     OW86015   3.095   9.537   3.818
28059SOL    HW186016   3.180   9.558   3.855
28059SOL    HW286017   3.095   9.582   3.733
28060SOL     OW86018   5.920  10.934   6.330
28060SOL    HW186019   5.840  10.978   6.305
28060SOL    HW286020   5.971  11.000   6.377
28061SOL     OW86021   6.917   9.838   3.418
28061SOL    HW186022   6.881   9.863   3.503
28061SOL    HW286023   6.850   9.867   3.355
28062SOL     OW86024   1.358   8.679   7.185
28062SOL    HW186025   1.313   8.696   7.102
28062SOL    HW286026   1.427   8.616   7.163
28063SOL     OW86027  13.124   4.647   2.812
28063SOL    HW186028  13.191   4.665   2.746
28063SOL    HW286029  13.041   4.655   2.764
28064SOL     OW86030   6.916   3.628   8.554
28064SOL    HW186031   6.844   3.565   8.549
28064SOL    HW286032   6.900   3.676   8.635
28065SOL     OW86033   9.883   1.440   0.664
28065SOL    HW186034   9.968   1.417   0.700
28065SOL    HW286035   9.900   1.515   0.607
28066SOL     OW86036   8.591   4.090   6.869
28066SOL    HW186037   8.509   4.136   6.851
28066SOL    HW286038   8.655   4.160   6.884
28067SOL     OW86039   7.202  13.508  11.146
28067SOL    HW186040   7.184  13.440  11.210
28067SOL    HW286041   7.258  13.570  11.193
28068SOL     OW86042   3.077  13.916  11.855
28068SOL    HW186043   3.058  13.963  11.936
28068SOL    HW286044   3.043  13.972  11.785
28069SOL     OW86045   4.235   3.640   8.606
28069SOL    HW186046   4.279   3.725   8.599
28069SOL    HW286047   4.142   3.662   8.612
28070SOL     OW86048   5.770   6.458   1.746
28070SOL    HW186049   5.810   6.406   1.676
28070SOL    HW286050   5.774   6.548   1.715
28071SOL     OW86051   2.364   6.694   8.512
28071SOL    HW186052   2.435   6.633   8.534
28071SOL    HW286053   2.292   6.638   8.485
28072SOL     OW86054   2.930   8.417  10.976
28072SOL    HW186055   2.895   8.464  10.900
28072SOL    HW286056   2.915   8.325  10.956
28073SOL     OW86057  14.566  13.358  10.223
28073SOL    HW186058  14.527  13.445  10.228
28073SOL    HW286059  14.660  13.375  10.218
28074SOL     OW86060   0.075   3.784   4.995
28074SOL    HW186061   0.113   3.703   4.963
28074SOL    HW286062   0.148   3.845   5.001
28075SOL     OW86063   8.073   5.681   8.386
28075SOL    HW186064   8.068   5.685   8.290
28075SOL    HW286065   8.066   5.588   8.406
28076SOL     OW86066  13.833   6.350  13.167
28076SOL    HW186067  13.752   6.331  13.118
28076SOL    HW286068  13.898   6.368  13.099
28077SOL     OW86069   8.835   4.311   0.743
28077SOL    HW186070   8.751   4.289   0.784
28077SOL    HW286071   8.855   4.399   0.775
28078SOL     OW86072   5.568   1.187  14.513
28078SOL    HW186073   5.565   1.247  14.588
28078SOL    HW286074   5.588   1.102  14.552
28079SOL     OW86075   5.406  14.655  14.614
28079SOL    HW186076   5.434  14.746  14.620
28079SOL    HW286077   5.312  14.659  14.599
28080SOL     OW86078   5.235  11.047   7.103
28080SOL    HW186079   5.224  11.057   7.009
28080SOL    HW286080   5.292  10.972   7.114
28081SOL     OW86081  11.821   1.746  10.738
28081SOL    HW186082  11.840   1.834  10.705
28081SOL    HW286083  11.789   1.760  10.827
28082SOL     OW86084  12.180   4.348   1.513
28082SOL    HW186085  12.212   4.437   1.497
28082SOL    HW286086  12.184   4.305   1.427
28083SOL     OW86087  14.178   3.994   7.592
28083SOL    HW186088  14.221   3.954   7.517
28083SOL    HW286089  14.251   4.021   7.649
28084SOL     OW86090   6.607  12.203  10.424
28084SOL    HW186091   6.566  12.262  10.361
28084SOL    HW286092   6.690  12.179  10.383
28085SOL     OW86093  14.063  12.651  12.863
28085SOL    HW186094  14.004  12.725  12.852
28085SOL    HW286095  14.041  12.591  12.791
28086SOL     OW86096   9.458   8.874   3.416
28086SOL    HW186097   9.546   8.907   3.434
28086SOL    HW286098   9.401   8.951   3.427
28087SOL     OW86099   0.606  12.780  10.347
28087SOL    HW186100   0.634  12.688  10.353
28087SOL    HW286101   0.688  12.829  10.349
28088SOL     OW86102   5.725   5.307   4.844
28088SOL    HW186103   5.758   5.390   4.810
28088SOL    HW286104   5.677   5.268   4.771
28089SOL     OW86105   2.860  13.132   8.875
28089SOL    HW186106   2.834  13.192   8.945
28089SOL    HW286107   2.788  13.135   8.813
28090SOL     OW86108   7.196  13.987   7.138
28090SOL    HW186109   7.210  13.893   7.142
28090SOL    HW286110   7.270  14.020   7.088
28091SOL     OW86111  12.188   9.163   2.242
28091SOL    HW186112  12.123   9.231   2.221
28091SOL    HW286113  12.180   9.100   2.170
28092SOL     OW86114   7.774  14.507   5.376
28092SOL    HW186115   7.837  14.506   5.304
28092SOL    HW286116   7.692  14.476   5.336
28093SOL     OW86117   0.133  14.861   3.066
28093SOL    HW186118   0.133   0.057   3.001
28093SOL    HW286119   0.119  14.780   3.016
28094SOL     OW86120   2.083   6.453   5.608
28094SOL    HW186121   1.996   6.492   5.615
28094SOL    HW286122   2.120   6.490   5.528
28095SOL     OW86123   6.292   9.684   2.300
28095SOL    HW186124   6.260   9.764   2.342
28095SOL    HW286125   6.385   9.700   2.286
28096SOL     OW86126  12.157   4.058   1.567
28096SOL    HW186127  12.084   3.998   1.584
28096SOL    HW286128  12.116   4.144   1.561
28097SOL     OW86129   2.632   5.574   0.384
28097SOL    HW186130   2.579   5.563   0.305
28097SOL    HW286131   2.704   5.512   0.373
28098SOL     OW86132   9.153  11.481  13.404
28098SOL    HW186133   9.243  11.509  13.388
28098SOL    HW286134   9.138  11.411  13.340
28099SOL     OW86135  14.170  13.517  13.429
28099SOL    HW186136  14.218  13.472  13.499
28099SOL    HW286137  14.237  13.569  13.384
28100SOL     OW86138   7.887   6.166   9.055
28100SOL    HW186139   7.946   6.170   8.979
28100SOL    HW286140   7.870   6.258   9.076
28101SOL     OW86141   4.628  12.434  10.837
28101SOL    HW186142   4.568  12.482  10.894
28101SOL    HW286143   4.715  12.466  10.861
28102SOL     OW86144   4.595  12.591  11.127
28102SOL    HW186145   4.539  12.541  11.185
28102SOL    HW286146   4.665  12.624  11.183
28103SOL     OW86147  11.588   2.630   9.297
28103SOL    HW186148  11.517   2.693   9.308
28103SOL    HW286149  11.580   2.571   9.372
28104SOL     OW86150   2.827   9.756   0.273
28104SOL    HW186151   2.795   9.684   0.218
28104SOL    HW286152   2.771   9.830   0.251
28105SOL     OW86153   6.833   9.439   4.808
28105SOL    HW186154   6.897   9.439   4.737
28105SOL    HW286155   6.801   9.349   4.811
28106SOL     OW86156   3.111   8.662   9.126
28106SOL    HW186157   3.085   8.612   9.203
28106SOL    HW286158   3.166   8.602   9.075
28107SOL     OW86159   7.263  11.783  10.813
28107SOL    HW186160   7.232  11.701  10.851
28107SOL    HW286161   7.328  11.815  10.875
28108SOL     OW86162   5.300   0.765   7.292
28108SOL    HW186163   5.308   0.785   7.386
28108SOL    HW286164   5.351   0.685   7.280
28109SOL     OW86165   2.608   0.386  14.557
28109SOL    HW186166   2.548   0.458  14.539
28109SOL    HW286167   2.649   0.407  14.640
28110SOL     OW86168   2.769   1.881   7.632
28110SOL    HW186169   2.809   1.794   7.631
28110SOL    HW286170   2.843   1.941   7.619
28111SOL     OW86171  11.725   2.440  11.678
28111SOL    HW186172  11.740   2.534  11.669
28111SOL    HW286173  11.666   2.432  11.752
28112SOL     OW86174   9.611  13.873   9.239
28112SOL    HW186175   9.571  13.902   9.157
28112SOL    HW286176   9.543  13.822   9.283
28113SOL     OW86177   4.318   4.583  10.056
28113SOL    HW186178   4.279   4.614  10.138
28113SOL    HW286179   4.367   4.659  10.023
28114SOL     OW86180   9.169   5.863   2.067
28114SOL    HW186181   9.234   5.839   2.132
28114SOL    HW286182   9.210   5.844   1.983
28115SOL     OW86183   5.100   0.400  12.470
28115SOL    HW186184   5.189   0.426  12.491
28115SOL    HW286185   5.097   0.398  12.374
28116SOL     OW86186   1.968   4.221   6.542
28116SOL    HW186187   1.930   4.233   6.455
28116SOL    HW286188   2.023   4.298   6.555
28117SOL     OW86189   9.870   3.301   2.043
28117SOL    HW186190   9.926   3.371   2.076
28117SOL    HW286191   9.862   3.318   1.950
28118SOL     OW86192  14.472   3.965   5.350
28118SOL    HW186193  14.429   3.964   5.435
28118SOL    HW286194  14.504   3.876   5.337
28119SOL     OW86195   4.940   9.917   3.522
28119SOL    HW186196   4.872   9.973   3.559
28119SOL    HW286197   4.928   9.923   3.427
28120SOL     OW86198   1.674  14.044  12.213
28120SOL    HW186199   1.585  14.027  12.244
28120SOL    HW286200   1.666  14.046  12.118
28121SOL     OW86201   8.622  11.853  11.727
28121SOL    HW186202   8.583  11.921  11.782
28121SOL    HW286203   8.552  11.789  11.714
28122SOL     OW86204   1.824   8.280   6.958
28122SOL    HW186205   1.776   8.262   7.039
28122SOL    HW286206   1.789   8.363   6.927
28123SOL     OW86207  12.272  12.456   4.313
28123SOL    HW186208  12.356  12.464   4.358
28123SOL    HW286209  12.207  12.453   4.383
28124SOL     OW86210  12.503  11.201  12.435
28124SOL    HW186211  12.430  11.153  12.396
28124SOL    HW286212  12.467  11.287  12.457
28125SOL     OW86213   9.920   1.689   4.575
28125SOL    HW186214   9.851   1.634   4.612
28125SOL    HW286215   9.999   1.665   4.624
28126SOL     OW86216  14.213   4.534   0.388
28126SOL    HW186217  14.260   4.576   0.460
28126SOL    HW286218  14.227   4.441   0.401
28127SOL     OW86219   5.027   5.557   5.397
28127SOL    HW186220   4.979   5.538   5.477
28127SOL    HW286221   5.048   5.650   5.403
28128SOL     OW86222   8.710   9.365  11.015
28128SOL    HW186223   8.731   9.275  10.989
28128SOL    HW286224   8.686   9.409  10.934
28129SOL     OW86225  10.329   9.796   5.089
28129SOL    HW186226  10.403   9.828   5.142
28129SOL    HW286227  10.255   9.797   5.149
28130SOL     OW86228  13.407  10.628   6.064
28130SOL    HW186229  13.484  10.686   6.067
28130SOL    HW286230  13.393  10.602   6.155
28131SOL     OW86231   3.275   6.608  12.820
28131SOL    HW186232   3.299   6.516  12.821
28131SOL    HW286233   3.190   6.611  12.864
28132SOL     OW86234   2.908   5.368   2.972
28132SOL    HW186235   2.901   5.275   2.949
28132SOL    HW286236   2.919   5.370   3.067
28133SOL     OW86237   2.323   2.168   4.193
28133SOL    HW186238   2.300   2.127   4.110
28133SOL    HW286239   2.346   2.258   4.170
28134SOL     OW86240   3.373   4.623  12.471
28134SOL    HW186241   3.443   4.650  12.530
28134SOL    HW286242   3.295   4.665  12.505
28135SOL     OW86243   6.139   9.225   5.782
28135SOL    HW186244   6.105   9.136   5.796
28135SOL    HW286245   6.232   9.219   5.806
28136SOL     OW86246  10.496  10.694  10.546
28136SOL    HW186247  10.443  10.765  10.510
28136SOL    HW286248  10.465  10.615  10.501
28137SOL     OW86249   6.328   1.938  11.037
28137SOL    HW186250   6.367   2.024  11.021
28137SOL    HW286251   6.239   1.957  11.066
28138SOL     OW86252  13.717   9.527   3.988
28138SOL    HW186253  13.696   9.620   3.986
28138SOL    HW286254  13.789   9.520   4.051
28139SOL     OW86255   6.934   7.304   3.916
28139SOL    HW186256   6.988   7.225   3.923
28139SOL    HW286257   6.973   7.366   3.978
28140SOL     OW86258  10.470   4.118   8.263
28140SOL    HW186259  10.519   4.174   8.322
28140SOL    HW286260  10.447   4.042   8.316
28141SOL     OW86261   7.525   3.924  10.682
28141SOL    HW186262   7.604   3.888  10.722
28141SOL    HW286263   7.557   3.989  10.619
28142SOL     OW86264   0.434  13.416   0.290
28142SOL    HW186265   0.365  13.380   0.233
28142SOL    HW286266   0.389  13.437   0.371
28143SOL     OW86267   2.751  12.722   3.029
28143SOL    HW186268   2.684  12.657   3.011
28143SOL    HW286269   2.801  12.686   3.102
28144SOL     OW86270   2.077  12.299   1.967
28144SOL    HW186271   2.118  12.321   1.883
28144SOL    HW286272   1.984  12.291   1.946
28145SOL     OW86273   0.987   3.134  10.851
28145SOL    HW186274   0.937   3.077  10.910
28145SOL    HW286275   1.059   3.166  10.904
28146SOL     OW86276   5.815  13.808  11.870
28146SOL    HW186277   5.809  13.846  11.958
28146SOL    HW286278   5.906  13.823  11.844
28147SOL     OW86279   7.294   3.202   1.571
28147SOL    HW186280   7.289   3.107   1.557
28147SOL    HW286281   7.303   3.238   1.482
28148SOL     OW86282   6.279  13.214   3.102
28148SOL    HW186283   6.244  13.173   3.181
28148SOL    HW286284   6.205  13.216   3.040
28149SOL     OW86285   3.762   0.773   4.266
28149SOL    HW186286   3.668   0.776   4.283
28149SOL    HW286287   3.798   0.846   4.316
28150SOL     OW86288  11.213  12.419  10.302
28150SOL    HW186289  11.232  12.392  10.213
28150SOL    HW286290  11.171  12.342  10.342
28151SOL     OW86291  14.463  12.760  11.687
28151SOL    HW186292  14.399  12.817  11.730
28151SOL    HW286293  14.415  12.678  11.670
28152SOL     OW86294  14.163  14.467   2.411
28152SOL    HW186295  14.116  14.464   2.495
28152SOL    HW286296  14.097  14.441   2.346
28153SOL     OW86297   8.414   3.043  13.747
28153SOL    HW186298   8.501   3.082  13.760
28153SOL    HW286299   8.377   3.092  13.674
28154SOL     OW86300   0.329   8.122   6.465
28154SOL    HW186301   0.362   8.105   6.376
28154SOL    HW286302   0.241   8.155   6.451
28155SOL     OW86303   1.231   8.954   1.471
28155SOL    HW186304   1.255   8.866   1.442
28155SOL    HW286305   1.214   8.944   1.565
28156SOL     OW86306  14.171   6.668   3.056
28156SOL    HW186307  14.092   6.722   3.056
28156SOL    HW286308  14.243   6.731   3.049
28157SOL     OW86309   0.407   6.419   6.378
28157SOL    HW186310   0.491   6.374   6.369
28157SOL    HW286311   0.414   6.465   6.462
28158SOL     OW86312  11.383  10.063  13.519
28158SOL    HW186313  11.422  10.008  13.588
28158SOL    HW286314  11.365  10.002  13.448
28159SOL     OW86315   8.071   5.230   6.519
28159SOL    HW186316   8.119   5.280   6.586
28159SOL    HW286317   8.079   5.283   6.440
28160SOL     OW86318  10.177   2.416   9.728
28160SOL    HW186319  10.085   2.428   9.754
28160SOL    HW286320  10.226   2.472   9.788
28161SOL     OW86321   8.689  14.816   3.500
28161SOL    HW186322   8.784  14.811   3.492
28161SOL    HW286323   8.674   0.015   3.560
28162SOL     OW86324   4.551   7.912   6.145
28162SOL    HW186325   4.501   7.870   6.216
28162SOL    HW286326   4.572   7.999   6.179
28163SOL     OW86327  12.553   8.860   5.896
28163SOL    HW186328  12.580   8.807   5.821
28163SOL    HW286329  12.607   8.827   5.968
28164SOL     OW86330  11.368  14.339  12.806
28164SOL    HW186331  11.343  14.402  12.739
28164SOL    HW286332  11.305  14.267  12.798
28165SOL     OW86333  13.446  10.124   8.803
28165SOL    HW186334  13.420  10.034   8.784
28165SOL    HW286335  13.540  10.119   8.817
28166SOL     OW86336   4.394  14.712   4.383
28166SOL    HW186337   4.382  14.620   4.403
28166SOL    HW286338   4.409  14.715   4.288
28167SOL     OW86339   0.017   4.638   7.900
28167SOL    HW186340   0.105   4.659   7.869
28167SOL    HW286341  14.852   4.584   7.830
28168SOL     OW86342  10.348   9.817  13.323
28168SOL    HW186343  10.421   9.839  13.381
28168SOL    HW286344  10.351   9.884  13.254
28169SOL     OW86345   6.473   0.790   6.221
28169SOL    HW186346   6.455   0.789   6.127
28169SOL    HW286347   6.524   0.870   6.235
28170SOL     OW86348  11.863   4.674   0.928
28170SOL    HW186349  11.850   4.755   0.978
28170SOL    HW286350  11.827   4.694   0.842
28171SOL     OW86351  12.625   3.539   6.567
28171SOL    HW186352  12.601   3.579   6.651
28171SOL    HW286353  12.609   3.446   6.580
28172SOL     OW86354   8.493   4.177   1.592
28172SOL    HW186355   8.479   4.083   1.605
28172SOL    HW286356   8.540   4.205   1.670
28173SOL     OW86357   0.185   5.507   2.743
28173SOL    HW186358   0.157   5.506   2.652
28173SOL    HW286359   0.107   5.533   2.792
28174SOL     OW86360   3.780  10.728   3.412
28174SOL    HW186361   3.786  10.777   3.493
28174SOL    HW286362   3.716  10.776   3.359
28175SOL     OW86363   2.798   3.904  10.386
28175SOL    HW186364   2.717   3.933  10.345
28175SOL    HW286365   2.786   3.810  10.400
28176SOL     OW86366  11.734   2.605  11.028
28176SOL    HW186367  11.670   2.578  10.962
28176SOL    HW286368  11.807   2.641  10.978
28177SOL     OW86369  12.418   9.867   0.672
28177SOL    HW186370  12.379   9.945   0.633
28177SOL    HW286371  12.512   9.878   0.659
28178SOL     OW86372  14.452   2.128   0.131
28178SOL    HW186373  14.448   2.156   0.222
28178SOL    HW286374  14.360   2.112   0.107
28179SOL     OW86375   9.426   0.388   6.851
28179SOL    HW186376   9.493   0.332   6.890
28179SOL    HW286377   9.385   0.333   6.784
28180SOL     OW86378   2.878   6.376   1.009
28180SOL    HW186379   2.939   6.418   1.069
28180SOL    HW286380   2.792   6.386   1.050
28181SOL     OW86381   5.229   2.185   9.673
28181SOL    HW186382   5.135   2.177   9.683
28181SOL    HW286383   5.241   2.224   9.586
28182SOL     OW86384  10.601   5.439   7.115
28182SOL    HW186385  10.668   5.487   7.165
28182SOL    HW286386  10.651   5.390   7.049
28183SOL     OW86387   4.961   3.399   3.086
28183SOL    HW186388   4.896   3.463   3.056
28183SOL    HW286389   4.915   3.350   3.155
28184SOL     OW86390  13.011   2.451   4.150
28184SOL    HW186391  13.047   2.449   4.239
28184SOL    HW286392  12.963   2.369   4.142
28185SOL     OW86393  11.720  12.481   5.452
28185SOL    HW186394  11.735  12.521   5.367
28185SOL    HW286395  11.727  12.554   5.514
28186SOL     OW86396   2.032   4.982   9.518
28186SOL    HW186397   2.033   4.887   9.527
28186SOL    HW286398   1.968   5.012   9.583
28187SOL     OW86399   5.343   1.155  10.991
28187SOL    HW186400   5.387   1.121  11.069
28187SOL    HW286401   5.407   1.214  10.951
28188SOL     OW86402   5.733  11.034   1.964
28188SOL    HW186403   5.654  11.078   1.932
28188SOL    HW286404   5.718  10.942   1.946
28189SOL     OW86405   7.785   9.587   9.992
28189SOL    HW186406   7.726   9.651  10.031
28189SOL    HW286407   7.870   9.631   9.989
28190SOL     OW86408   0.526   8.563   0.647
28190SOL    HW186409   0.469   8.487   0.642
28190SOL    HW286410   0.609   8.529   0.680
28191SOL     OW86411   9.952   0.320  13.487
28191SOL    HW186412   9.878   0.304  13.545
28191SOL    HW286413   9.960   0.240  13.436
28192SOL     OW86414   5.002  12.129   1.619
28192SOL    HW186415   4.907  12.132   1.611
28192SOL    HW286416   5.019  12.134   1.713
28193SOL     OW86417   8.579  13.777   0.950
28193SOL    HW186418   8.600  13.834   0.876
28193SOL    HW286419   8.628  13.814   1.024
28194SOL     OW86420  11.887  13.779   1.331
28194SOL    HW186421  11.798  13.749   1.347
28194SOL    HW286422  11.903  13.844   1.399
28195SOL     OW86423   0.600  10.302   8.039
28195SOL    HW186424   0.580  10.219   8.083
28195SOL    HW286425   0.588  10.369   8.107
28196SOL     OW86426   3.650  11.608   9.659
28196SOL    HW186427   3.658  11.527   9.608
28196SOL    HW286428   3.723  11.662   9.629
28197SOL     OW86429   2.687   9.153   3.145
28197SOL    HW186430   2.749   9.081   3.136
28197SOL    HW286431   2.705   9.191   3.231
28198SOL     OW86432   8.369  10.607   8.701
28198SOL    HW186433   8.275  10.603   8.686
28198SOL    HW286434   8.386  10.540   8.767
28199SOL     OW86435   2.472   6.528   7.099
28199SOL    HW186436   2.533   6.478   7.044
28199SOL    HW286437   2.461   6.611   7.053
28200SOL     OW86438   7.127   9.733  12.920
28200SOL    HW186439   7.066   9.686  12.863
28200SOL    HW286440   7.183   9.782  12.859
28201SOL     OW86441  12.144   3.354   9.012
28201SOL    HW186442  12.213   3.291   9.029
28201SOL    HW286443  12.075   3.333   9.076
28202SOL     OW86444   1.947   1.810  10.259
28202SOL    HW186445   2.030   1.804  10.212
28202SOL    HW286446   1.964   1.769  10.343
28203SOL     OW86447   3.200   8.844  10.051
28203SOL    HW186448   3.140   8.915  10.026
28203SOL    HW286449   3.287   8.881  10.042
28204SOL     OW86450   0.916  11.096   1.769
28204SOL    HW186451   1.007  11.070   1.784
28204SOL    HW286452   0.905  11.089   1.674
28205SOL     OW86453  10.414   4.418   0.297
28205SOL    HW186454  10.393   4.338   0.248
28205SOL    HW286455  10.346   4.480   0.272
28206SOL     OW86456   6.980   3.677   4.817
28206SOL    HW186457   6.914   3.716   4.875
28206SOL    HW286458   6.976   3.730   4.737
28207SOL     OW86459   4.880  10.967   2.265
28207SOL    HW186460   4.891  10.911   2.341
28207SOL    HW286461   4.958  10.952   2.212
28208SOL     OW86462   7.955   9.163  13.149
28208SOL    HW186463   8.046   9.176  13.172
28208SOL    HW286464   7.906   9.200  13.222
28209SOL     OW86465  14.659  11.790  13.482
28209SOL    HW186466  14.655  11.699  13.513
28209SOL    HW286467  14.613  11.789  13.398
28210SOL     OW86468   9.115   6.560   9.983
28210SOL    HW186469   9.116   6.605  10.067
28210SOL    HW286470   9.070   6.620   9.924
28211SOL     OW86471  10.194   9.877  10.242
28211SOL    HW186472  10.128   9.809  10.228
28211SOL    HW286473  10.254   9.840  10.306
28212SOL     OW86474   0.209  12.158  10.570
28212SOL    HW186475   0.147  12.095  10.533
28212SOL    HW286476   0.163  12.241  10.570
28213SOL     OW86477   9.567   6.597   9.449
28213SOL    HW186478   9.636   6.659   9.467
28213SOL    HW286479   9.502   6.647   9.399
28214SOL     OW86480   7.036  13.043   2.826
28214SOL    HW186481   7.116  13.094   2.833
28214SOL    HW286482   7.009  13.053   2.735
28215SOL     OW86483   4.373   1.014   7.204
28215SOL    HW186484   4.284   1.037   7.177
28215SOL    HW286485   4.361   0.968   7.287
28216SOL     OW86486   0.693   2.032   7.564
28216SOL    HW186487   0.773   2.042   7.616
28216SOL    HW286488   0.692   1.939   7.541
28217SOL     OW86489  12.289   2.114  14.411
28217SOL    HW186490  12.270   2.128  14.504
28217SOL    HW286491  12.319   2.024  14.405
28218SOL     OW86492   7.248   9.443   0.206
28218SOL    HW186493   7.316   9.426   0.142
28218SOL    HW286494   7.217   9.356   0.232
28219SOL     OW86495   5.199   7.463   1.243
28219SOL    HW186496   5.146   7.437   1.318
28219SOL    HW286497   5.150   7.536   1.204
28220SOL     OW86498   2.813  10.383   0.767
28220SOL    HW186499   2.868  10.422   0.699
28220SOL    HW286500   2.865  10.310   0.801
28221SOL     OW86501   7.040   2.471   8.917
28221SOL    HW186502   7.027   2.416   8.840
28221SOL    HW286503   6.958   2.463   8.966
28222SOL     OW86504  14.327  14.860   7.677
28222SOL    HW186505  14.391   0.054   7.701
28222SOL    HW286506  14.330  14.798   7.750
28223SOL     OW86507  11.284   6.937  11.581
28223SOL    HW186508  11.236   6.903  11.505
28223SOL    HW286509  11.225   6.925  11.654
28224SOL     OW86510   3.221  11.108   4.765
28224SOL    HW186511   3.303  11.088   4.809
28224SOL    HW286512   3.171  11.027   4.769
28225SOL     OW86513   1.695   6.210   6.094
28225SOL    HW186514   1.731   6.297   6.115
28225SOL    HW286515   1.769   6.150   6.109
28226SOL     OW86516   3.522   6.979   5.583
28226SOL    HW186517   3.503   6.941   5.498
28226SOL    HW286518   3.443   7.029   5.606
28227SOL     OW86519  13.206   4.790   9.943
28227SOL    HW186520  13.158   4.795  10.026
28227SOL    HW286521  13.217   4.881   9.917
28228SOL     OW86522   1.992   3.194   4.872
28228SOL    HW186523   2.083   3.223   4.866
28228SOL    HW286524   1.942   3.260   4.823
28229SOL     OW86525   1.610   4.964  12.348
28229SOL    HW186526   1.535   4.980  12.290
28229SOL    HW286527   1.611   4.869  12.360
28230SOL     OW86528   7.970   9.252   2.295
28230SOL    HW186529   8.016   9.183   2.342
28230SOL    HW286530   8.030   9.278   2.226
28231SOL     OW86531   3.292   5.989   7.907
28231SOL    HW186532   3.297   5.894   7.897
28231SOL    HW286533   3.380   6.020   7.884
28232SOL     OW86534   2.873   2.923   5.442
28232SOL    HW186535   2.834   2.943   5.357
28232SOL    HW286536   2.831   2.984   5.503
28233SOL     OW86537   2.508   5.198  10.912
28233SOL    HW186538   2.431   5.227  10.961
28233SOL    HW286539   2.533   5.116  10.955
28234SOL     OW86540  10.555   4.182  12.146
28234SOL    HW186541  10.560   4.274  12.171
28234SOL    HW286542  10.504   4.182  12.065
28235SOL     OW86543   1.279  10.421  13.129
28235SOL    HW186544   1.278  10.351  13.193
28235SOL    HW286545   1.189  10.425  13.096
28236SOL     OW86546   6.043   9.886   7.940
28236SOL    HW186547   6.116   9.947   7.928
28236SOL    HW286548   6.079   9.815   7.994
28237SOL     OW86549   2.418   8.075   9.441
28237SOL    HW186550   2.467   8.157   9.432
28237SOL    HW286551   2.361   8.072   9.364
28238SOL     OW86552   9.486   7.306   7.456
28238SOL    HW186553   9.541   7.384   7.442
28238SOL    HW286554   9.544   7.244   7.499
28239SOL     OW86555   9.348   4.650   1.484
28239SOL    HW186556   9.301   4.570   1.509
28239SOL    HW286557   9.394   4.626   1.403
28240SOL     OW86558   5.953  14.425  14.094
28240SOL    HW186559   5.875  14.372  14.080
28240SOL    HW286560   5.953  14.487  14.021
28241SOL     OW86561  10.094  14.100   8.182
28241SOL    HW186562  10.117  14.141   8.266
28241SOL    HW286563  10.023  14.154   8.148
28242SOL     OW86564  10.107   0.742  14.623
28242SOL    HW186565  10.039   0.775  14.565
28242SOL    HW286566  10.188   0.782  14.591
28243SOL     OW86567  13.273   4.158  12.150
28243SOL    HW186568  13.201   4.178  12.090
28243SOL    HW286569  13.300   4.244  12.185
28244SOL     OW86570   3.447   1.084   7.463
28244SOL    HW186571   3.405   1.008   7.422
28244SOL    HW286572   3.540   1.061   7.466
28245SOL     OW86573  13.572   2.756   8.718
28245SOL    HW186574  13.489   2.724   8.755
28245SOL    HW286575  13.576   2.848   8.743
28246SOL     OW86576   6.509   9.140   9.640
28246SOL    HW186577   6.599   9.146   9.673
28246SOL    HW286578   6.517   9.095   9.556
28247SOL     OW86579  14.439   5.074   7.893
28247SOL    HW186580  14.380   5.122   7.950
28247SOL    HW286581  14.496   5.025   7.952
28248SOL     OW86582  10.681   9.451  13.559
28248SOL    HW186583  10.694   9.439  13.653
28248SOL    HW286584  10.767   9.477  13.525
28249SOL     OW86585   5.910   8.664   5.015
28249SOL    HW186586   5.966   8.707   5.080
28249SOL    HW286587   5.822   8.669   5.053
28250SOL     OW86588   5.391   8.451   3.320
28250SOL    HW186589   5.431   8.365   3.333
28250SOL    HW286590   5.297   8.432   3.311
28251SOL     OW86591   4.173  11.139   2.287
28251SOL    HW186592   4.170  11.201   2.214
28251SOL    HW286593   4.258  11.096   2.278
28252SOL     OW86594   4.621  14.769   8.460
28252SOL    HW186595   4.631  14.856   8.497
28252SOL    HW286596   4.589  14.783   8.371
28253SOL     OW86597  11.497   0.207   5.271
28253SOL    HW186598  11.494   0.186   5.178
28253SOL    HW286599  11.405   0.213   5.297
28254SOL     OW86600   2.248  12.806   6.001
28254SOL    HW186601   2.172  12.785   5.946
28254SOL    HW286602   2.298  12.725   6.006
28255SOL     OW86603  10.579  14.169   7.731
28255SOL    HW186604  10.608  14.256   7.761
28255SOL    HW286605  10.660  14.121   7.717
28256SOL     OW86606   7.718   8.815   4.710
28256SOL    HW186607   7.794   8.872   4.726
28256SOL    HW286608   7.756   8.733   4.677
28257SOL     OW86609  10.851   9.360  12.968
28257SOL    HW186610  10.786   9.290  12.978
28257SOL    HW286611  10.931   9.324  13.006
28258SOL     OW86612  14.572   8.352  14.116
28258SOL    HW186613  14.557   8.443  14.093
28258SOL    HW286614  14.667   8.341  14.109
28259SOL     OW86615   9.498  10.318  14.444
28259SOL    HW186616   9.415  10.285  14.477
28259SOL    HW286617   9.510  10.274  14.360
28260SOL     OW86618  10.032   1.690  10.221
28260SOL    HW186619  10.096   1.723  10.284
28260SOL    HW286620  10.012   1.766  10.165
28261SOL     OW86621  14.504   3.713  14.701
28261SOL    HW186622  14.448   3.660  14.644
28261SOL    HW286623  14.523   3.791  14.650
28262SOL     OW86624   0.817  11.490   6.941
28262SOL    HW186625   0.847  11.580   6.931
28262SOL    HW286626   0.897  11.438   6.949
28263SOL     OW86627   0.515   4.203  10.025
28263SOL    HW186628   0.529   4.278   9.968
28263SOL    HW286629   0.567   4.224  10.104
28264SOL     OW86630  12.115   0.330  10.316
28264SOL    HW186631  12.166   0.375  10.249
28264SOL    HW286632  12.121   0.237  10.293
28265SOL     OW86633   2.631  12.688   1.798
28265SOL    HW186634   2.692  12.617   1.818
28265SOL    HW286635   2.634  12.745   1.875
28266SOL     OW86636   7.928  14.854   4.265
28266SOL    HW186637   7.878  14.797   4.324
28266SOL    HW286638   7.951  14.799   4.191
28267SOL     OW86639  11.267   6.293   4.323
28267SOL    HW186640  11.296   6.372   4.369
28267SOL    HW286641  11.319   6.222   4.361
28268SOL     OW86642   3.350   9.872   1.293
28268SOL    HW186643   3.326   9.962   1.270
28268SOL    HW286644   3.445   9.873   1.297
28269SOL     OW86645   2.092   0.059   6.973
28269SOL    HW186646   2.053   0.139   7.009
28269SOL    HW286647   2.185   0.080   6.963
28270SOL     OW86648   4.082  10.219   0.422
28270SOL    HW186649   4.065  10.177   0.338
28270SOL    HW286650   3.997  10.226   0.464
28271SOL     OW86651   5.816   0.681   0.703
28271SOL    HW186652   5.878   0.642   0.641
28271SOL    HW286653   5.752   0.727   0.647
28272SOL     OW86654   7.461  10.192   8.172
28272SOL    HW186655   7.423  10.110   8.139
28272SOL    HW286656   7.554  10.175   8.180
28273SOL     OW86657  11.369   2.984  14.011
28273SOL    HW186658  11.420   2.904  14.022
28273SOL    HW286659  11.390   3.015  13.923
28274SOL     OW86660   6.008  10.513   7.044
28274SOL    HW186661   6.034  10.526   7.135
28274SOL    HW286662   5.913  10.500   7.047
28275SOL     OW86663   1.135   0.888   8.453
28275SOL    HW186664   1.167   0.968   8.496
28275SOL    HW286665   1.171   0.817   8.505
28276SOL     OW86666  13.220   3.745   3.968
28276SOL    HW186667  13.212   3.649   3.972
28276SOL    HW286668  13.172   3.776   4.044
28277SOL     OW86669  12.003  12.493   0.902
28277SOL    HW186670  11.980  12.580   0.870
28277SOL    HW286671  12.099  12.490   0.895
28278SOL     OW86672   1.017   4.022   3.406
28278SOL    HW186673   0.984   4.092   3.462
28278SOL    HW286674   1.038   4.064   3.323
28279SOL     OW86675   5.760   2.687   0.986
28279SOL    HW186676   5.827   2.755   0.990
28279SOL    HW286677   5.787   2.631   0.913
28280SOL     OW86678   7.681   8.181  10.746
28280SOL    HW186679   7.587   8.191  10.729
28280SOL    HW286680   7.723   8.197  10.662
28281SOL     OW86681   9.680   6.949   5.791
28281SOL    HW186682   9.623   7.003   5.736
28281SOL    HW286683   9.759   6.938   5.740
28282SOL     OW86684  11.339   1.335  13.534
28282SOL    HW186685  11.412   1.334  13.471
28282SOL    HW286686  11.294   1.417  13.517
28283SOL     OW86687   8.649   4.274   7.608
28283SOL    HW186688   8.738   4.239   7.604
28283SOL    HW286689   8.647   4.324   7.690
28284SOL     OW86690   3.225   4.284   2.934
28284SOL    HW186691   3.194   4.195   2.952
28284SOL    HW286692   3.147   4.339   2.940
28285SOL     OW86693   2.207   5.614  12.004
28285SOL    HW186694   2.243   5.547  11.947
28285SOL    HW286695   2.125   5.577  12.037
28286SOL     OW86696   7.506   5.628   2.976
28286SOL    HW186697   7.428   5.666   3.018
28286SOL    HW286698   7.577   5.644   3.038
28287SOL     OW86699   5.204  14.435  13.643
28287SOL    HW186700   5.289  14.479  13.636
28287SOL    HW286701   5.155  14.488  13.707
28288SOL     OW86702   7.300  14.103   0.543
28288SOL    HW186703   7.261  14.186   0.513
28288SOL    HW286704   7.371  14.130   0.601
28289SOL     OW86705   6.071   4.438  13.673
28289SOL    HW186706   5.976   4.430  13.661
28289SOL    HW286707   6.103   4.464  13.587
28290SOL     OW86708  10.589   5.622   1.222
28290SOL    HW186709  10.607   5.531   1.246
28290SOL    HW286710  10.578   5.620   1.127
28291SOL     OW86711   7.365   9.767   2.768
28291SOL    HW186712   7.447   9.804   2.801
28291SOL    HW286713   7.336   9.708   2.838
28292SOL     OW86714  14.608   7.872   3.954
28292SOL    HW186715  14.683   7.857   3.896
28292SOL    HW286716  14.600   7.791   4.004
28293SOL     OW86717   7.871   9.803   2.982
28293SOL    HW186718   7.825   9.857   2.918
28293SOL    HW286719   7.904   9.866   3.047
28294SOL     OW86720  13.720  11.143   2.704
28294SOL    HW186721  13.669  11.219   2.733
28294SOL    HW286722  13.781  11.126   2.776
28295SOL     OW86723   4.861   5.669   7.298
28295SOL    HW186724   4.885   5.576   7.294
28295SOL    HW286725   4.855   5.688   7.391
28296SOL     OW86726  12.859   0.520   2.571
28296SOL    HW186727  12.811   0.561   2.499
28296SOL    HW286728  12.792   0.473   2.621
28297SOL     OW86729  12.347   0.604   7.531
28297SOL    HW186730  12.337   0.512   7.557
28297SOL    HW286731  12.261   0.643   7.547
28298SOL     OW86732   9.913  14.625  10.146
28298SOL    HW186733   9.914  14.600  10.053
28298SOL    HW286734   9.872  14.711  10.147
28299SOL     OW86735  10.463   4.587   3.103
28299SOL    HW186736  10.404   4.516   3.129
28299SOL    HW286737  10.544   4.570   3.150
28300SOL     OW86738  14.551  12.146   9.699
28300SOL    HW186739  14.467  12.115   9.666
28300SOL    HW286740  14.595  12.067   9.730
28301SOL     OW86741   1.232  13.889   4.275
28301SOL    HW186742   1.260  13.976   4.248
28301SOL    HW286743   1.136  13.894   4.279
28302SOL     OW86744   6.964   5.430   3.011
28302SOL    HW186745   7.050   5.392   3.029
28302SOL    HW286746   6.981   5.524   3.001
28303SOL     OW86747  14.480   3.161  14.413
28303SOL    HW186748  14.491   3.066  14.407
28303SOL    HW286749  14.394   3.173  14.454
28304SOL     OW86750   1.987  14.866  10.915
28304SOL    HW186751   1.911  14.836  10.965
28304SOL    HW286752   2.056  14.804  10.938
28305SOL     OW86753  11.285   9.729   1.304
28305SOL    HW186754  11.230   9.702   1.377
28305SOL    HW286755  11.267   9.664   1.235
28306SOL     OW86756   2.085   4.221   3.183
28306SOL    HW186757   2.169   4.175   3.185
28306SOL    HW286758   2.021   4.155   3.157
28307SOL     OW86759   3.505  14.678   1.236
28307SOL    HW186760   3.595  14.663   1.264
28307SOL    HW286761   3.451  14.629   1.297
28308SOL     OW86762   2.488   0.410  11.443
28308SOL    HW186763   2.568   0.359  11.459
28308SOL    HW286764   2.427   0.348  11.403
28309SOL     OW86765   5.413  10.184   4.163
28309SOL    HW186766   5.487  10.220   4.112
28309SOL    HW286767   5.338  10.235   4.134
28310SOL     OW86768   9.728   3.256   1.423
28310SOL    HW186769   9.720   3.171   1.379
28310SOL    HW286770   9.741   3.234   1.515
28311SOL     OW86771  12.694   8.171   5.105
28311SOL    HW186772  12.638   8.183   5.182
28311SOL    HW286773  12.777   8.210   5.129
28312SOL     OW86774  11.016  12.036  14.192
28312SOL    HW186775  11.032  12.116  14.142
28312SOL    HW286776  10.989  12.067  14.278
28313SOL     OW86777  11.742  14.335  13.924
28313SOL    HW186778  11.688  14.287  13.986
28313SOL    HW286779  11.706  14.424  13.924
28314SOL     OW86780   9.479  12.831  13.758
28314SOL    HW186781   9.462  12.740  13.784
28314SOL    HW286782   9.563  12.851  13.799
28315SOL     OW86783   3.615  11.542   0.363
28315SOL    HW186784   3.695  11.567   0.409
28315SOL    HW286785   3.579  11.469   0.413
28316SOL     OW86786   5.280   6.388   8.288
28316SOL    HW186787   5.366   6.425   8.267
28316SOL    HW286788   5.241   6.451   8.349
28317SOL     OW86789   7.110  13.850  12.730
28317SOL    HW186790   7.087  13.776  12.786
28317SOL    HW286791   7.202  13.869  12.752
28318SOL     OW86792   5.250   7.782   5.879
28318SOL    HW186793   5.259   7.692   5.912
28318SOL    HW286794   5.316   7.789   5.811
28319SOL     OW86795   5.377   1.063  11.250
28319SOL    HW186796   5.392   0.977  11.288
28319SOL    HW286797   5.367   1.121  11.325
28320SOL     OW86798   1.252   3.842   4.826
28320SOL    HW186799   1.156   3.835   4.828
28320SOL    HW286800   1.271   3.919   4.880
28321SOL     OW86801   5.058  12.122  10.649
28321SOL    HW186802   4.979  12.150  10.695
28321SOL    HW286803   5.056  12.026  10.654
28322SOL     OW86804  14.213  13.346  12.247
28322SOL    HW186805  14.196  13.347  12.153
28322SOL    HW286806  14.146  13.289  12.283
28323SOL     OW86807  11.593   5.122   3.878
28323SOL    HW186808  11.651   5.175   3.824
28323SOL    HW286809  11.547   5.065   3.816
28324SOL     OW86810  12.194   4.070   8.193
28324SOL    HW186811  12.141   3.997   8.223
28324SOL    HW286812  12.174   4.079   8.100
28325SOL     OW86813  10.822   7.903  11.144
28325SOL    HW186814  10.773   7.945  11.073
28325SOL    HW286815  10.803   7.809  11.134
28326SOL     OW86816   1.180   5.285   6.136
28326SOL    HW186817   1.140   5.199   6.149
28326SOL    HW286818   1.114   5.335   6.088
28327SOL     OW86819   2.775  13.257  10.979
28327SOL    HW186820   2.831  13.298  10.913
28327SOL    HW286821   2.686  13.288  10.958
28328SOL     OW86822  10.528  10.426  11.494
28328SOL    HW186823  10.495  10.337  11.495
28328SOL    HW286824  10.450  10.480  11.480
28329SOL     OW86825   0.545   3.943  12.582
28329SOL    HW186826   0.512   3.981  12.663
28329SOL    HW286827   0.474   3.885  12.552
28330SOL     OW86828   2.107   3.662   3.843
28330SOL    HW186829   2.025   3.708   3.858
28330SOL    HW286830   2.139   3.696   3.760
28331SOL     OW86831   6.353   7.807   5.465
28331SOL    HW186832   6.368   7.773   5.377
28331SOL    HW286833   6.270   7.853   5.459
28332SOL     OW86834   2.076   6.671   8.201
28332SOL    HW186835   2.011   6.601   8.195
28332SOL    HW286836   2.160   6.626   8.197
28333SOL     OW86837  10.426  10.851   6.332
28333SOL    HW186838  10.414  10.781   6.267
28333SOL    HW286839  10.352  10.841   6.392
28334SOL     OW86840   1.913   4.598   6.763
28334SOL    HW186841   1.820   4.586   6.746
28334SOL    HW286842   1.956   4.569   6.683
28335SOL     OW86843   3.535   9.717   2.104
28335SOL    HW186844   3.470   9.727   2.035
28335SOL    HW286845   3.617   9.744   2.064
28336SOL     OW86846   7.080  13.082   8.434
28336SOL    HW186847   7.156  13.137   8.453
28336SOL    HW286848   7.018  13.142   8.392
28337SOL     OW86849   6.934   1.811   7.285
28337SOL    HW186850   6.987   1.862   7.223
28337SOL    HW286851   6.867   1.769   7.232
28338SOL     OW86852   6.696  13.366   0.999
28338SOL    HW186853   6.733  13.317   1.072
28338SOL    HW286854   6.608  13.391   1.028
28339SOL     OW86855   0.150   4.572   2.119
28339SOL    HW186856   0.235   4.546   2.084
28339SOL    HW286857   0.130   4.655   2.075
28340SOL     OW86858   3.439   2.323   8.869
28340SOL    HW186859   3.463   2.251   8.811
28340SOL    HW286860   3.377   2.375   8.818
28341SOL     OW86861   6.043   8.203   2.059
28341SOL    HW186862   6.068   8.210   1.967
28341SOL    HW286863   6.103   8.139   2.096
28342SOL     OW86864  13.708  11.906  11.596
28342SOL    HW186865  13.652  11.950  11.659
28342SOL    HW286866  13.716  11.967  11.523
28343SOL     OW86867   3.941  12.157  10.926
28343SOL    HW186868   3.932  12.252  10.917
28343SOL    HW286869   3.854  12.123  10.904
28344SOL     OW86870   4.019  12.268   1.698
28344SOL    HW186871   3.970  12.309   1.768
28344SOL    HW286872   4.108  12.257   1.734
28345SOL     OW86873   6.526   5.059  10.964
28345SOL    HW186874   6.546   5.083  11.054
28345SOL    HW286875   6.583   4.984  10.947
28346SOL     OW86876   3.499   2.543   8.667
28346SOL    HW186877   3.534   2.465   8.624
28346SOL    HW286878   3.409   2.519   8.690
28347SOL     OW86879   4.667   3.981   3.552
28347SOL    HW186880   4.653   4.049   3.487
28347SOL    HW286881   4.721   3.915   3.508
28348SOL     OW86882  10.963   4.651  12.682
28348SOL    HW186883  10.985   4.650  12.589
28348SOL    HW286884  10.909   4.573  12.695
28349SOL     OW86885   9.492  13.797   0.673
28349SOL    HW186886   9.493  13.738   0.748
28349SOL    HW286887   9.569  13.852   0.685
28350SOL     OW86888  11.946   6.851   3.274
28350SOL    HW186889  11.855   6.838   3.300
28350SOL    HW286890  11.968   6.775   3.220
28351SOL     OW86891  11.937  10.911   8.849
28351SOL    HW186892  11.954  11.003   8.826
28351SOL    HW286893  11.907  10.914   8.940
28352SOL     OW86894   7.896  11.062   5.728
28352SOL    HW186895   7.866  11.066   5.819
28352SOL    HW286896   7.959  11.133   5.720
28353SOL     OW86897  14.388  13.093   9.471
28353SOL    HW186898  14.302  13.131   9.491
28353SOL    HW286899  14.450  13.164   9.488
28354SOL     OW86900   2.281   4.015  10.510
28354SOL    HW186901   2.333   3.935  10.512
28354SOL    HW286902   2.273   4.037  10.417
28355SOL     OW86903   4.349   7.280   2.162
28355SOL    HW186904   4.290   7.354   2.171
28355SOL    HW286905   4.299   7.205   2.196
28356SOL     OW86906  12.656   0.354   2.682
28356SOL    HW186907  12.562   0.356   2.701
28356SOL    HW286908  12.694   0.308   2.758
28357SOL     OW86909   6.188   4.161  10.658
28357SOL    HW186910   6.138   4.224  10.710
28357SOL    HW286911   6.140   4.079  10.667
28358SOL     OW86912   6.137  14.006  10.980
28358SOL    HW186913   6.097  14.060  11.049
28358SOL    HW286914   6.217  13.971  11.020
28359SOL     OW86915   3.758  11.115   1.193
28359SOL    HW186916   3.670  11.149   1.209
28359SOL    HW286917   3.811  11.154   1.263
28360SOL     OW86918   7.708  10.585  11.296
28360SOL    HW186919   7.743  10.642  11.227
28360SOL    HW286920   7.785  10.563  11.349
28361SOL     OW86921  13.391   1.653   4.807
28361SOL    HW186922  13.464   1.715   4.805
28361SOL    HW286923  13.432   1.568   4.787
28362SOL     OW86924   4.153   2.347   6.390
28362SOL    HW186925   4.095   2.271   6.401
28362SOL    HW286926   4.235   2.321   6.432
28363SOL     OW86927  12.543   8.062   7.593
28363SOL    HW186928  12.546   8.075   7.687
28363SOL    HW286929  12.512   7.972   7.582
28364SOL     OW86930  10.351   7.630   4.335
28364SOL    HW186931  10.392   7.714   4.354
28364SOL    HW286932  10.385   7.605   4.249
28365SOL     OW86933   7.220   1.740  12.010
28365SOL    HW186934   7.214   1.732  11.915
28365SOL    HW286935   7.193   1.655  12.044
28366SOL     OW86936  12.167   1.976   2.666
28366SOL    HW186937  12.180   1.896   2.716
28366SOL    HW286938  12.167   1.947   2.574
28367SOL     OW86939   4.100  11.214   2.030
28367SOL    HW186940   4.137  11.128   2.012
28367SOL    HW286941   4.110  11.262   1.947
28368SOL     OW86942   1.002   7.511  10.413
28368SOL    HW186943   1.095   7.490  10.404
28368SOL    HW286944   0.959   7.426  10.421
28369SOL     OW86945   0.849  11.209  12.330
28369SOL    HW186946   0.887  11.127  12.300
28369SOL    HW286947   0.856  11.268  12.255
28370SOL     OW86948   8.282   7.945  14.201
28370SOL    HW186949   8.219   7.873  14.202
28370SOL    HW286950   8.229   8.024  14.191
28371SOL     OW86951   0.176   2.366   3.780
28371SOL    HW186952   0.171   2.458   3.757
28371SOL    HW286953   0.269   2.346   3.780
28372SOL     OW86954   4.261   4.629   1.684
28372SOL    HW186955   4.193   4.696   1.676
28372SOL    HW286956   4.217   4.557   1.729
28373SOL     OW86957  14.592   5.874  13.198
28373SOL    HW186958  14.592   5.952  13.253
28373SOL    HW286959  14.679   5.836  13.209
28374SOL     OW86960   8.952   0.819   7.664
28374SOL    HW186961   8.865   0.859   7.666
28374SOL    HW286962   8.937   0.730   7.698
28375SOL     OW86963  10.257   8.714  13.702
28375SOL    HW186964  10.233   8.757  13.784
28375SOL    HW286965  10.188   8.649  13.688
28376SOL     OW86966   3.932  11.565   2.715
28376SOL    HW186967   3.956  11.600   2.801
28376SOL    HW286968   3.901  11.642   2.667
28377SOL     OW86969   7.559   5.089   0.726
28377SOL    HW186970   7.626   5.023   0.746
28377SOL    HW286971   7.587   5.167   0.774
28378SOL     OW86972   1.471  11.929  14.613
28378SOL    HW186973   1.527  11.997  14.651
28378SOL    HW286974   1.391  11.976  14.589
28379SOL     OW86975   5.126   9.648  12.030
28379SOL    HW186976   5.168   9.600  11.959
28379SOL    HW286977   5.135   9.591  12.107
28380SOL     OW86978   5.408  11.718  11.276
28380SOL    HW186979   5.388  11.752  11.189
28380SOL    HW286980   5.501  11.739  11.288
28381SOL     OW86981  10.778   1.234   9.486
28381SOL    HW186982  10.730   1.152   9.477
28381SOL    HW286983  10.779   1.272   9.398
28382SOL     OW86984   7.527  13.195  11.950
28382SOL    HW186985   7.618  13.165  11.944
28382SOL    HW286986   7.493  13.152  12.029
28383SOL     OW86987  12.793   5.742   9.532
28383SOL    HW186988  12.869   5.713   9.481
28383SOL    HW286989  12.803   5.837   9.539
28384SOL     OW86990  13.525  14.329  10.908
28384SOL    HW186991  13.584  14.267  10.865
28384SOL    HW286992  13.570  14.352  10.990
28385SOL     OW86993   3.070   7.452   4.173
28385SOL    HW186994   2.976   7.465   4.159
28385SOL    HW286995   3.111   7.517   4.115
28386SOL     OW86996   4.612   0.707  14.415
28386SOL    HW186997   4.604   0.630  14.359
28386SOL    HW286998   4.522   0.739  14.424
28387SOL     OW86999   8.541  10.532  14.724
28387SOL    HW187000   8.481  10.463  14.752
28387SOL    HW287001   8.628  10.494  14.735
28388SOL     OW87002   4.357   1.544   6.839
28388SOL    HW187003   4.298   1.539   6.764
28388SOL    HW287004   4.300   1.570   6.912
28389SOL     OW87005  11.911   0.808  14.615
28389SOL    HW187006  11.953   0.740  14.668
28389SOL    HW287007  11.971   0.883  14.620
28390SOL     OW87008   9.734   1.558  11.215
28390SOL    HW187009   9.782   1.475  11.219
28390SOL    HW287010   9.712   1.578  11.306
28391SOL     OW87011   2.540   4.737   1.695
28391SOL    HW187012   2.524   4.740   1.600
28391SOL    HW287013   2.600   4.663   1.706
28392SOL     OW87014   2.256  10.327   5.955
28392SOL    HW187015   2.314  10.297   5.886
28392SOL    HW287016   2.216  10.246   5.990
28393SOL     OW87017   6.033   6.004   8.330
28393SOL    HW187018   6.074   6.066   8.269
28393SOL    HW287019   6.058   6.036   8.416
28394SOL     OW87020   2.187  13.580   4.041
28394SOL    HW187021   2.170  13.647   3.976
28394SOL    HW287022   2.119  13.593   4.108
28395SOL     OW87023  11.212   4.428   3.616
28395SOL    HW187024  11.231   4.456   3.527
28395SOL    HW287025  11.285   4.462   3.668
28396SOL     OW87026   9.942  12.140   3.083
28396SOL    HW187027   9.887  12.191   3.023
28396SOL    HW287028  10.017  12.113   3.029
28397SOL     OW87029   8.772   4.309   1.075
28397SOL    HW187030   8.836   4.373   1.044
28397SOL    HW287031   8.711   4.297   1.002
28398SOL     OW87032  10.597   1.367   3.863
28398SOL    HW187033  10.562   1.443   3.817
28398SOL    HW287034  10.692   1.374   3.852
28399SOL     OW87035   2.690   1.381   7.436
28399SOL    HW187036   2.740   1.374   7.355
28399SOL    HW287037   2.608   1.424   7.410
28400SOL     OW87038   9.321  10.325   2.695
28400SOL    HW187039   9.255  10.359   2.756
28400SOL    HW287040   9.404  10.347   2.736
28401SOL     OW87041  13.301   5.691   7.641
28401SOL    HW187042  13.299   5.761   7.576
28401SOL    HW287043  13.247   5.621   7.603
28402SOL     OW87044   1.639  10.271  11.972
28402SOL    HW187045   1.605  10.309  11.892
28402SOL    HW287046   1.675  10.187  11.946
28403SOL     OW87047   4.659   5.676  12.046
28403SOL    HW187048   4.617   5.705  11.965
28403SOL    HW287049   4.680   5.584  12.031
28404SOL     OW87050   6.215   3.899  11.202
28404SOL    HW187051   6.296   3.871  11.246
28404SOL    HW287052   6.234   3.987  11.170
28405SOL     OW87053   2.494   9.732   5.010
28405SOL    HW187054   2.408   9.691   5.000
28405SOL    HW287055   2.500   9.751   5.104
28406SOL     OW87056  10.131   0.545  13.226
28406SOL    HW187057  10.060   0.485  13.247
28406SOL    HW287058  10.197   0.491  13.183
28407SOL     OW87059   8.004   2.000  12.763
28407SOL    HW187060   8.028   1.912  12.738
28407SOL    HW287061   7.952   1.989  12.843
28408SOL     OW87062  11.889   0.966   5.489
28408SOL    HW187063  11.859   0.930   5.405
28408SOL    HW287064  11.983   0.948   5.491
28409SOL     OW87065  11.433   6.137  10.294
28409SOL    HW187066  11.348   6.104  10.324
28409SOL    HW287067  11.490   6.061  10.292
28410SOL     OW87068  12.394   3.782   0.051
28410SOL    HW187069  12.324   3.717   0.063
28410SOL    HW287070  12.442   3.751  14.847
28411SOL     OW87071   9.233   1.716   3.181
28411SOL    HW187072   9.262   1.783   3.242
28411SOL    HW287073   9.147   1.747   3.151
28412SOL     OW87074  12.629   8.644   5.199
28412SOL    HW187075  12.672   8.583   5.139
28412SOL    HW287076  12.536   8.624   5.191
28413SOL     OW87077   9.183  12.906   3.778
28413SOL    HW187078   9.164  12.989   3.822
28413SOL    HW287079   9.178  12.840   3.847
28414SOL     OW87080   5.335   8.374   0.824
28414SOL    HW187081   5.325   8.291   0.871
28414SOL    HW287082   5.424   8.371   0.789
28415SOL     OW87083   2.966   5.844  11.992
28415SOL    HW187084   3.041   5.800  11.951
28415SOL    HW287085   3.004   5.921  12.034
28416SOL     OW87086  11.274   4.904   8.818
28416SOL    HW187087  11.245   4.824   8.774
28416SOL    HW287088  11.202   4.926   8.878
28417SOL     OW87089   1.446   3.918   2.838
28417SOL    HW187090   1.459   3.971   2.917
28417SOL    HW287091   1.534   3.902   2.804
28418SOL     OW87092  14.565   8.475  13.259
28418SOL    HW187093  14.611   8.433  13.186
28418SOL    HW287094  14.495   8.525  13.218
28419SOL     OW87095  13.902  14.433   3.259
28419SOL    HW187096  13.875  14.505   3.203
28419SOL    HW287097  13.962  14.381   3.205
28420SOL     OW87098  10.248  12.204  13.485
28420SOL    HW187099  10.152  12.207  13.479
28420SOL    HW287100  10.273  12.127  13.435
28421SOL     OW87101   8.762  10.273   8.320
28421SOL    HW187102   8.761  10.190   8.273
28421SOL    HW287103   8.681  10.272   8.372
28422SOL     OW87104   8.550  14.065   4.198
28422SOL    HW187105   8.621  14.121   4.230
28422SOL    HW287106   8.511  14.029   4.277
28423SOL     OW87107  14.461   5.280   4.906
28423SOL    HW187108  14.402   5.205   4.901
28423SOL    HW287109  14.483   5.286   4.999
28424SOL     OW87110  11.158   2.384  13.964
28424SOL    HW187111  11.231   2.356  13.909
28424SOL    HW287112  11.197   2.404  14.049
28425SOL     OW87113  13.170   4.971  11.880
28425SOL    HW187114  13.085   5.015  11.883
28425SOL    HW287115  13.150   4.880  11.901
28426SOL     OW87116  14.063   3.882  11.882
28426SOL    HW187117  14.099   3.924  11.805
28426SOL    HW287118  14.136   3.878  11.944
28427SOL     OW87119  14.127   2.519   5.174
28427SOL    HW187120  14.164   2.527   5.262
28427SOL    HW287121  14.198   2.485   5.120
28428SOL     OW87122   1.418   5.389   6.234
28428SOL    HW187123   1.332   5.362   6.200
28428SOL    HW287124   1.409   5.383   6.329
28429SOL     OW87125  12.914   8.881  10.072
28429SOL    HW187126  12.956   8.825  10.007
28429SOL    HW287127  12.851   8.933  10.022
28430SOL     OW87128   7.221   2.425  14.105
28430SOL    HW187129   7.209   2.336  14.071
28430SOL    HW287130   7.316   2.436  14.109
28431SOL     OW87131  11.189  12.840   7.227
28431SOL    HW187132  11.256  12.776   7.251
28431SOL    HW287133  11.131  12.793   7.168
28432SOL     OW87134   7.691  11.635   2.131
28432SOL    HW187135   7.664  11.662   2.218
28432SOL    HW287136   7.759  11.698   2.106
28433SOL     OW87137   1.282   2.773   3.650
28433SOL    HW187138   1.200   2.796   3.604
28433SOL    HW287139   1.298   2.682   3.626
28434SOL     OW87140   1.268  10.117   2.870
28434SOL    HW187141   1.349  10.104   2.919
28434SOL    HW287142   1.275  10.058   2.795
28435SOL     OW87143  10.376   9.355   8.524
28435SOL    HW187144  10.367   9.270   8.481
28435SOL    HW287145  10.332   9.417   8.465
28436SOL     OW87146   8.921   6.883   6.358
28436SOL    HW187147   8.929   6.827   6.280
28436SOL    HW287148   8.830   6.912   6.356
28437SOL     OW87149   7.719   7.161   7.643
28437SOL    HW187150   7.760   7.230   7.695
28437SOL    HW287151   7.652   7.124   7.701
28438SOL     OW87152  10.397   2.081   9.668
28438SOL    HW187153  10.304   2.070   9.689
28438SOL    HW287154  10.400   2.155   9.608
28439SOL     OW87155   8.415   7.860   5.078
28439SOL    HW187156   8.392   7.771   5.052
28439SOL    HW287157   8.497   7.878   5.031
28440SOL     OW87158  11.400  14.189  14.293
28440SOL    HW187159  11.432  14.162  14.379
28440SOL    HW287160  11.305  14.189  14.302
28441SOL     OW87161   1.668  12.104   2.878
28441SOL    HW187162   1.609  12.048   2.828
28441SOL    HW287163   1.635  12.101   2.968
28442SOL     OW87164   2.078   6.093  13.718
28442SOL    HW187165   2.100   6.171  13.667
28442SOL    HW287166   2.160   6.043  13.722
28443SOL     OW87167   8.320   8.762   3.928
28443SOL    HW187168   8.332   8.819   4.003
28443SOL    HW287169   8.379   8.688   3.944
28444SOL     OW87170   4.141  10.109  12.865
28444SOL    HW187171   4.188  10.165  12.803
28444SOL    HW287172   4.059  10.156  12.882
28445SOL     OW87173   7.208  13.921   4.830
28445SOL    HW187174   7.149  13.930   4.756
28445SOL    HW287175   7.150  13.917   4.906
28446SOL     OW87176   9.045  13.429   5.276
28446SOL    HW187177   9.056  13.403   5.368
28446SOL    HW287178   9.031  13.524   5.280
28447SOL     OW87179   6.887   3.147   4.838
28447SOL    HW187180   6.962   3.092   4.813
28447SOL    HW287181   6.818   3.123   4.777
28448SOL     OW87182  14.067   3.400   2.186
28448SOL    HW187183  14.073   3.306   2.201
28448SOL    HW287184  14.131   3.417   2.116
28449SOL     OW87185   6.060   8.545  12.748
28449SOL    HW187186   5.999   8.551  12.674
28449SOL    HW287187   6.119   8.473  12.724
28450SOL     OW87188   7.954   2.690  10.833
28450SOL    HW187189   7.929   2.598  10.824
28450SOL    HW287190   7.879   2.730  10.877
28451SOL     OW87191   0.341   5.655  14.685
28451SOL    HW187192   0.346   5.699  14.600
28451SOL    HW287193   0.252   5.674  14.716
28452SOL     OW87194   5.990   8.308   3.103
28452SOL    HW187195   6.058   8.338   3.163
28452SOL    HW287196   6.038   8.272   3.028
28453SOL     OW87197  12.161   4.489   5.517
28453SOL    HW187198  12.126   4.400   5.508
28453SOL    HW287199  12.152   4.509   5.610
28454SOL     OW87200   2.176   0.608   0.685
28454SOL    HW187201   2.179   0.646   0.597
28454SOL    HW287202   2.220   0.672   0.741
28455SOL     OW87203   2.397  12.393   0.386
28455SOL    HW187204   2.449  12.314   0.393
28455SOL    HW287205   2.314  12.364   0.348
28456SOL     OW87206  10.732   2.037  11.933
28456SOL    HW187207  10.707   2.103  11.997
28456SOL    HW287208  10.826   2.026  11.945
28457SOL     OW87209   2.570  10.706  12.675
28457SOL    HW187210   2.660  10.689  12.648
28457SOL    HW287211   2.525  10.731  12.594
28458SOL     OW87212  10.548   6.645   0.624
28458SOL    HW187213  10.529   6.721   0.678
28458SOL    HW287214  10.551   6.679   0.535
28459SOL     OW87215   7.187   6.448   6.126
28459SOL    HW187216   7.211   6.403   6.045
28459SOL    HW287217   7.131   6.521   6.097
28460SOL     OW87218  12.219  13.624   5.605
28460SOL    HW187219  12.270  13.661   5.677
28460SOL    HW287220  12.232  13.685   5.532
28461SOL     OW87221  11.827  14.253   1.045
28461SOL    HW187222  11.838  14.194   1.119
28461SOL    HW287223  11.843  14.199   0.968
28462SOL     OW87224  14.778   9.091   7.491
28462SOL    HW187225  14.799   9.066   7.581
28462SOL    HW287226  14.863   9.109   7.451
28463SOL     OW87227   8.096   5.706   7.620
28463SOL    HW187228   8.008   5.721   7.588
28463SOL    HW287229   8.107   5.611   7.620
28464SOL     OW87230   0.609   3.987  11.693
28464SOL    HW187231   0.703   4.003  11.686
28464SOL    HW287232   0.583   4.031  11.774
28465SOL     OW87233   1.609   3.564   1.129
28465SOL    HW187234   1.525   3.528   1.101
28465SOL    HW287235   1.586   3.638   1.185
28466SOL     OW87236   7.673  12.758   9.053
28466SOL    HW187237   7.722  12.688   9.009
28466SOL    HW287238   7.600  12.713   9.096
28467SOL     OW87239   6.925  11.879  12.464
28467SOL    HW187240   6.964  11.858  12.548
28467SOL    HW287241   6.920  11.795  12.418
28468SOL     OW87242   2.388   8.604   5.739
28468SOL    HW187243   2.379   8.632   5.648
28468SOL    HW287244   2.339   8.668   5.790
28469SOL     OW87245   6.278   1.205  13.691
28469SOL    HW187246   6.293   1.282  13.747
28469SOL    HW287247   6.357   1.198  13.638
28470SOL     OW87248  12.794   2.279   3.572
28470SOL    HW187249  12.843   2.214   3.624
28470SOL    HW287250  12.775   2.349   3.635
28471SOL     OW87251   6.334   7.046   4.791
28471SOL    HW187252   6.419   7.046   4.747
28471SOL    HW287253   6.291   6.966   4.763
28472SOL     OW87254   2.582   4.435   8.583
28472SOL    HW187255   2.592   4.340   8.581
28472SOL    HW287256   2.654   4.468   8.528
28473SOL     OW87257   1.868   9.402   8.309
28473SOL    HW187258   1.924   9.326   8.290
28473SOL    HW287259   1.849   9.440   8.223
28474SOL     OW87260   5.214   9.056   8.581
28474SOL    HW187261   5.249   9.006   8.508
28474SOL    HW287262   5.235   9.005   8.659
28475SOL     OW87263  11.340   0.660   0.715
28475SOL    HW187264  11.366   0.751   0.727
28475SOL    HW287265  11.350   0.645   0.621
28476SOL     OW87266  13.260   9.286   4.977
28476SOL    HW187267  13.243   9.199   5.014
28476SOL    HW287268  13.214   9.286   4.893
28477SOL     OW87269   0.157  12.922  13.530
28477SOL    HW187270   0.190  12.904  13.618
28477SOL    HW287271   0.226  12.891  13.471
28478SOL     OW87272   6.657   1.428   7.020
28478SOL    HW187273   6.703   1.483   6.956
28478SOL    HW287274   6.722   1.366   7.050
28479SOL     OW87275   9.189   5.565   0.452
28479SOL    HW187276   9.103   5.526   0.472
28479SOL    HW287277   9.246   5.533   0.521
28480SOL     OW87278   3.529   3.745   4.243
28480SOL    HW187279   3.497   3.807   4.309
28480SOL    HW287280   3.618   3.723   4.272
28481SOL     OW87281  14.831  10.594  13.557
28481SOL    HW187282  14.840  10.549  13.473
28481SOL    HW287283  14.740  10.621  13.561
28482SOL     OW87284  11.665   1.731  11.392
28482SOL    HW187285  11.758   1.723  11.415
28482SOL    HW287286  11.619   1.693  11.467
28483SOL     OW87287   8.055   0.119  11.348
28483SOL    HW187288   8.079   0.065  11.273
28483SOL    HW287289   8.129   0.111  11.408
28484SOL     OW87290  11.030  10.981   6.863
28484SOL    HW187291  10.998  10.911   6.806
28484SOL    HW287292  11.102  10.940   6.912
28485SOL     OW87293  11.096   1.655  10.160
28485SOL    HW187294  11.079   1.687  10.072
28485SOL    HW287295  11.189   1.635  10.162
28486SOL     OW87296  13.357  13.684   0.465
28486SOL    HW187297  13.396  13.667   0.551
28486SOL    HW287298  13.423  13.654   0.402
28487SOL     OW87299  11.518  10.589   4.813
28487SOL    HW187300  11.442  10.578   4.757
28487SOL    HW287301  11.515  10.681   4.840
28488SOL     OW87302   8.443   2.612   8.706
28488SOL    HW187303   8.450   2.707   8.714
28488SOL    HW287304   8.465   2.579   8.793
28489SOL     OW87305   2.177  14.283  13.405
28489SOL    HW187306   2.133  14.367  13.397
28489SOL    HW287307   2.118  14.221  13.363
28490SOL     OW87308   1.243   0.603   6.317
28490SOL    HW187309   1.200   0.517   6.311
28490SOL    HW287310   1.328   0.584   6.356
28491SOL     OW87311   1.916   6.442  13.515
28491SOL    HW187312   1.957   6.402  13.591
28491SOL    HW287313   1.952   6.530  13.511
28492SOL     OW87314   5.630   2.894  11.423
28492SOL    HW187315   5.704   2.852  11.468
28492SOL    HW287316   5.670   2.965  11.374
28493SOL     OW87317   8.854  10.612  10.617
28493SOL    HW187318   8.865  10.556  10.541
28493SOL    HW287319   8.938  10.656  10.627
28494SOL     OW87320  10.849  10.720   2.878
28494SOL    HW187321  10.769  10.676   2.848
28494SOL    HW287322  10.823  10.811   2.892
28495SOL     OW87323  12.473   9.658  12.236
28495SOL    HW187324  12.546   9.649  12.176
28495SOL    HW287325  12.398   9.624  12.187
28496SOL     OW87326   1.379   5.526   8.580
28496SOL    HW187327   1.466   5.513   8.619
28496SOL    HW287328   1.381   5.474   8.500
28497SOL     OW87329  13.913   6.077   2.071
28497SOL    HW187330  13.986   6.111   2.020
28497SOL    HW287331  13.918   5.982   2.061
28498SOL     OW87332   7.724   7.932  14.737
28498SOL    HW187333   7.649   7.879  14.765
28498SOL    HW287334   7.800   7.883  14.767
28499SOL     OW87335   2.863   3.247   5.320
28499SOL    HW187336   2.943   3.243   5.373
28499SOL    HW287337   2.888   3.209   5.236
28500SOL     OW87338  12.733  12.776   8.607
28500SOL    HW187339  12.744  12.691   8.564
28500SOL    HW287340  12.716  12.837   8.535
28501SOL     OW87341   3.062   7.261   8.502
28501SOL    HW187342   3.013   7.336   8.535
28501SOL    HW287343   3.089   7.287   8.414
28502SOL     OW87344  13.625   7.414   7.803
28502SOL    HW187345  13.677   7.492   7.820
28502SOL    HW287346  13.623   7.407   7.707
28503SOL     OW87347   9.472   2.303   0.040
28503SOL    HW187348   9.531   2.373   0.067
28503SOL    HW287349   9.528   2.238  14.870
28504SOL     OW87350   7.395   9.228  10.550
28504SOL    HW187351   7.469   9.270  10.505
28504SOL    HW287352   7.429   9.143  10.577
28505SOL     OW87353   3.305   0.091   7.763
28505SOL    HW187354   3.370   0.021   7.763
28505SOL    HW287355   3.354   0.168   7.733
28506SOL     OW87356   5.191   5.618   4.262
28506SOL    HW187357   5.151   5.670   4.331
28506SOL    HW287358   5.284   5.636   4.268
28507SOL     OW87359   4.217  12.788   1.912
28507SOL    HW187360   4.212  12.698   1.943
28507SOL    HW287361   4.276  12.785   1.836
28508SOL     OW87362   0.526   2.291   2.252
28508SOL    HW187363   0.610   2.321   2.218
28508SOL    HW287364   0.470   2.368   2.248
28509SOL     OW87365   5.082   7.453  14.005
28509SOL    HW187366   5.168   7.412  14.008
28509SOL    HW287367   5.093   7.535  14.053
28510SOL     OW87368   4.430   9.853  13.008
28510SOL    HW187369   4.524   9.836  13.002
28510SOL    HW287370   4.424   9.934  13.059
28511SOL     OW87371   4.390  10.529   7.636
28511SOL    HW187372   4.310  10.489   7.671
28511SOL    HW287373   4.459  10.465   7.654
28512SOL     OW87374   2.134   9.346   2.668
28512SOL    HW187375   2.074   9.274   2.691
28512SOL    HW287376   2.185   9.312   2.595
28513SOL     OW87377  12.895  13.563   7.933
28513SOL    HW187378  12.904  13.491   7.995
28513SOL    HW287379  12.985  13.581   7.904
28514SOL     OW87380   3.033   4.106   1.641
28514SOL    HW187381   3.028   4.042   1.570
28514SOL    HW287382   3.031   4.052   1.721
28515SOL     OW87383   3.574   5.704   2.063
28515SOL    HW187384   3.624   5.784   2.052
28515SOL    HW287385   3.590   5.654   1.982
28516SOL     OW87386  10.639   1.021   9.402
28516SOL    HW187387  10.648   0.936   9.359
28516SOL    HW287388  10.599   1.078   9.336
28517SOL     OW87389   9.818  12.809   9.352
28517SOL    HW187390   9.813  12.854   9.267
28517SOL    HW287391   9.804  12.717   9.330
28518SOL     OW87392   8.639   5.908   6.410
28518SOL    HW187393   8.612   5.833   6.464
28518SOL    HW287394   8.707   5.951   6.461
28519SOL     OW87395  13.579   3.398  10.435
28519SOL    HW187396  13.486   3.376  10.441
28519SOL    HW287397  13.588   3.477  10.489
28520SOL     OW87398   4.080   4.208  10.655
28520SOL    HW187399   4.150   4.187  10.594
28520SOL    HW287400   4.041   4.124  10.679
28521SOL     OW87401   9.474  10.880   4.320
28521SOL    HW187402   9.423  10.900   4.398
28521SOL    HW287403   9.463  10.958   4.264
28522SOL     OW87404  14.821   5.811   0.354
28522SOL    HW187405  14.828   5.756   0.276
28522SOL    HW287406  14.732   5.846   0.351
28523SOL     OW87407  11.264  13.001   9.245
28523SOL    HW187408  11.323  13.007   9.170
28523SOL    HW287409  11.299  13.064   9.308
28524SOL     OW87410  13.203  11.009   0.644
28524SOL    HW187411  13.279  11.066   0.656
28524SOL    HW287412  13.133  11.067   0.614
28525SOL     OW87413   6.522   6.733  13.302
28525SOL    HW187414   6.493   6.703  13.388
28525SOL    HW287415   6.467   6.808  13.283
28526SOL     OW87416   3.870  13.693   1.774
28526SOL    HW187417   3.926  13.707   1.851
28526SOL    HW287418   3.805  13.763   1.779
28527SOL     OW87419  11.749   2.754   9.713
28527SOL    HW187420  11.696   2.810   9.657
28527SOL    HW287421  11.717   2.665   9.696
28528SOL     OW87422  14.592  10.562  11.295
28528SOL    HW187423  14.521  10.497  11.297
28528SOL    HW287424  14.568  10.621  11.224
28529SOL     OW87425   2.545   1.979   3.216
28529SOL    HW187426   2.576   1.917   3.150
28529SOL    HW287427   2.564   1.936   3.300
28530SOL     OW87428  12.573  11.338  11.563
28530SOL    HW187429  12.650  11.315  11.511
28530SOL    HW287430  12.543  11.421  11.527
28531SOL     OW87431   6.494  14.505  14.815
28531SOL    HW187432   6.443  14.425  14.805
28531SOL    HW287433   6.435  14.567  14.857
28532SOL     OW87434  12.660   4.244   1.327
28532SOL    HW187435  12.693   4.315   1.383
28532SOL    HW287436  12.581   4.281   1.287
28533SOL     OW87437   7.409  13.467   0.868
28533SOL    HW187438   7.331  13.441   0.820
28533SOL    HW287439   7.380  13.540   0.923
28534SOL     OW87440  12.771   7.098   5.274
28534SOL    HW187441  12.854   7.051   5.277
28534SOL    HW287442  12.709   7.040   5.318
28535SOL     OW87443   8.309  11.469   4.751
28535SOL    HW187444   8.348  11.543   4.798
28535SOL    HW287445   8.260  11.422   4.818
28536SOL     OW87446   5.381  12.014   7.971
28536SOL    HW187447   5.307  12.062   7.932
28536SOL    HW287448   5.447  12.081   7.987
28537SOL     OW87449   1.773   4.210   0.281
28537SOL    HW187450   1.809   4.189   0.367
28537SOL    HW287451   1.778   4.128   0.232
28538SOL     OW87452   7.500   5.008  13.280
28538SOL    HW187453   7.485   5.089  13.232
28538SOL    HW287454   7.538   5.036  13.363
28539SOL     OW87455  13.669   3.861   1.614
28539SOL    HW187456  13.700   3.811   1.538
28539SOL    HW287457  13.592   3.908   1.582
28540SOL     OW87458   1.660   2.062  12.399
28540SOL    HW187459   1.653   2.136  12.339
28540SOL    HW287460   1.700   2.100  12.478
28541SOL     OW87461   4.509  12.443   5.888
28541SOL    HW187462   4.521  12.538   5.896
28541SOL    HW287463   4.415  12.430   5.891
28542SOL     OW87464   0.601  11.381   8.562
28542SOL    HW187465   0.530  11.318   8.567
28542SOL    HW287466   0.574  11.443   8.494
28543SOL     OW87467  11.639   0.604   0.668
28543SOL    HW187468  11.567   0.557   0.626
28543SOL    HW287469  11.705   0.614   0.600
28544SOL     OW87470  13.705   4.400   1.123
28544SOL    HW187471  13.633   4.377   1.065
28544SOL    HW287472  13.685   4.488   1.155
28545SOL     OW87473   2.977   8.624   8.789
28545SOL    HW187474   3.072   8.634   8.788
28545SOL    HW287475   2.945   8.708   8.822
28546SOL     OW87476   7.520  14.066  12.770
28546SOL    HW187477   7.590  14.132  12.770
28546SOL    HW287478   7.442  14.115  12.798
28547SOL     OW87479   0.986   7.456   0.754
28547SOL    HW187480   1.061   7.491   0.706
28547SOL    HW287481   0.994   7.361   0.745
28548SOL     OW87482   1.386   7.035  11.808
28548SOL    HW187483   1.363   7.023  11.716
28548SOL    HW287484   1.471   7.079  11.805
28549SOL     OW87485   1.357   2.201  12.321
28549SOL    HW187486   1.372   2.214  12.414
28549SOL    HW287487   1.430   2.246  12.278
28550SOL     OW87488   0.739   9.237  12.084
28550SOL    HW187489   0.750   9.168  12.018
28550SOL    HW287490   0.656   9.216  12.127
28551SOL     OW87491  10.414   8.347   6.329
28551SOL    HW187492  10.402   8.439   6.354
28551SOL    HW287493  10.370   8.339   6.245
28552SOL     OW87494   4.852   1.960   2.469
28552SOL    HW187495   4.826   2.040   2.424
28552SOL    HW287496   4.879   1.989   2.556
28553SOL     OW87497   6.850   4.035  11.890
28553SOL    HW187498   6.903   4.082  11.826
28553SOL    HW287499   6.787   4.101  11.921
28554SOL     OW87500   5.199   6.737   2.605
28554SOL    HW187501   5.197   6.700   2.517
28554SOL    HW287502   5.142   6.814   2.600
28555SOL     OW87503   1.542  14.820  14.670
28555SOL    HW187504   1.615  14.804  14.610
28555SOL    HW287505   1.525   0.041  14.661
28556SOL     OW87506   1.790   9.773   6.453
28556SOL    HW187507   1.866   9.723   6.481
28556SOL    HW287508   1.815   9.864   6.465
28557SOL     OW87509   7.667  13.479   9.635
28557SOL    HW187510   7.710  13.565   9.634
28557SOL    HW287511   7.619  13.478   9.718
28558SOL     OW87512   5.307   1.572   0.776
28558SOL    HW187513   5.246   1.526   0.718
28558SOL    HW287514   5.358   1.629   0.718
28559SOL     OW87515   3.606   3.801  12.314
28559SOL    HW187516   3.685   3.807  12.260
28559SOL    HW287517   3.560   3.724  12.280
28560SOL     OW87518   4.693   8.485   7.558
28560SOL    HW187519   4.673   8.497   7.651
28560SOL    HW287520   4.704   8.574   7.524
28561SOL     OW87521   3.810  12.600  11.940
28561SOL    HW187522   3.881  12.536  11.934
28561SOL    HW287523   3.732  12.553  11.912
28562SOL     OW87524   2.697   6.354   7.408
28562SOL    HW187525   2.787   6.322   7.399
28562SOL    HW287526   2.674   6.337   7.499
28563SOL     OW87527   5.261   9.842  13.329
28563SOL    HW187528   5.356   9.828  13.334
28563SOL    HW287529   5.236   9.806  13.244
28564SOL     OW87530  12.519  11.734  12.099
28564SOL    HW187531  12.570  11.790  12.157
28564SOL    HW287532  12.582  11.698  12.038
28565SOL     OW87533  10.244  10.641   5.083
28565SOL    HW187534  10.166  10.691   5.062
28565SOL    HW287535  10.230  10.611   5.173
28566SOL     OW87536   8.863   1.704   5.858
28566SOL    HW187537   8.774   1.689   5.824
28566SOL    HW287538   8.921   1.665   5.792
28567SOL     OW87539   5.334   3.623   4.767
28567SOL    HW187540   5.335   3.535   4.804
28567SOL    HW287541   5.309   3.680   4.839
28568SOL     OW87542  11.445   2.830  12.318
28568SOL    HW187543  11.471   2.833  12.226
28568SOL    HW287544  11.361   2.784  12.318
28569SOL     OW87545   9.393   5.949   7.197
28569SOL    HW187546   9.418   5.940   7.105
28569SOL    HW287547   9.428   5.870   7.240
28570SOL     OW87548  11.733  13.879   3.732
28570SOL    HW187549  11.804  13.927   3.775
28570SOL    HW287550  11.746  13.896   3.639
28571SOL     OW87551  14.622  10.073   1.403
28571SOL    HW187552  14.658  10.141   1.346
28571SOL    HW287553  14.696  10.044   1.456
28572SOL     OW87554  11.425   1.334   8.784
28572SOL    HW187555  11.435   1.309   8.692
28572SOL    HW287556  11.386   1.422   8.781
28573SOL     OW87557   1.668  14.302   7.143
28573SOL    HW187558   1.592  14.361   7.137
28573SOL    HW287559   1.718  14.320   7.064
28574SOL     OW87560   5.327   6.167  11.667
28574SOL    HW187561   5.385   6.193  11.596
28574SOL    HW287562   5.336   6.236  11.733
28575SOL     OW87563   8.221   3.455   5.699
28575SOL    HW187564   8.181   3.531   5.656
28575SOL    HW287565   8.277   3.493   5.767
28576SOL     OW87566   1.445  11.210   4.890
28576SOL    HW187567   1.353  11.237   4.893
28576SOL    HW287568   1.494  11.292   4.889
28577SOL     OW87569   8.088  10.005  11.416
28577SOL    HW187570   8.183   9.999  11.426
28577SOL    HW287571   8.053   9.967  11.497
28578SOL     OW87572   0.382   5.049  10.953
28578SOL    HW187573   0.290   5.070  10.967
28578SOL    HW287574   0.409   5.106  10.881
28579SOL     OW87575   2.950   5.899   7.733
28579SOL    HW187576   2.883   5.875   7.670
28579SOL    HW287577   2.930   5.847   7.811
28580SOL     OW87578  10.381  13.341   0.867
28580SOL    HW187579  10.297  13.349   0.822
28580SOL    HW287580  10.358  13.314   0.956
28581SOL     OW87581   3.989   5.723   6.895
28581SOL    HW187582   3.963   5.801   6.944
28581SOL    HW287583   4.071   5.748   6.852
28582SOL     OW87584   3.123   8.358   1.574
28582SOL    HW187585   3.135   8.453   1.578
28582SOL    HW287586   3.120   8.330   1.665
28583SOL     OW87587   6.173   1.963   6.144
28583SOL    HW187588   6.173   2.037   6.084
28583SOL    HW287589   6.083   1.956   6.175
28584SOL     OW87590   9.060  13.890   8.863
28584SOL    HW187591   9.017  13.822   8.914
28584SOL    HW287592   9.016  13.888   8.778
28585SOL     OW87593   1.066   6.851  11.580
28585SOL    HW187594   1.052   6.943  11.562
28585SOL    HW287595   1.152   6.847  11.622
28586SOL     OW87596   3.829   3.936   8.773
28586SOL    HW187597   3.884   3.980   8.839
28586SOL    HW287598   3.840   3.989   8.694
28587SOL     OW87599   8.289   6.403  11.988
28587SOL    HW187600   8.285   6.395  11.893
28587SOL    HW287601   8.348   6.333  12.015
28588SOL     OW87602  14.452   4.986   1.022
28588SOL    HW187603  14.463   4.918   1.088
28588SOL    HW287604  14.387   5.046   1.059
28589SOL     OW87605   0.862   7.013   3.535
28589SOL    HW187606   0.834   7.043   3.449
28589SOL    HW287607   0.955   7.034   3.539
28590SOL     OW87608  13.059   8.016   7.977
28590SOL    HW187609  13.006   8.009   7.897
28590SOL    HW287610  13.060   7.928   8.013
28591SOL     OW87611   4.300  10.861   4.785
28591SOL    HW187612   4.386  10.877   4.824
28591SOL    HW287613   4.296  10.920   4.710
28592SOL     OW87614  14.147   4.342  14.038
28592SOL    HW187615  14.112   4.320  14.124
28592SOL    HW287616  14.142   4.437  14.033
28593SOL     OW87617  14.757   6.588   3.420
28593SOL    HW187618  14.807   6.643   3.360
28593SOL    HW287619  14.678   6.638   3.439
28594SOL     OW87620   0.175  11.696   3.941
28594SOL    HW187621   0.153  11.699   3.847
28594SOL    HW287622   0.240  11.626   3.948
28595SOL     OW87623   6.657  10.699   3.225
28595SOL    HW187624   6.681  10.694   3.317
28595SOL    HW287625   6.587  10.764   3.221
28596SOL     OW87626   7.871  11.791   2.488
28596SOL    HW187627   7.915  11.850   2.549
28596SOL    HW287628   7.862  11.841   2.407
28597SOL     OW87629   9.448   0.991  12.669
28597SOL    HW187630   9.426   1.044  12.593
28597SOL    HW287631   9.422   1.045  12.744
28598SOL     OW87632  11.677  11.556   6.667
28598SOL    HW187633  11.614  11.627   6.657
28598SOL    HW287634  11.692  11.550   6.761
28599SOL     OW87635   1.533  11.964   4.116
28599SOL    HW187636   1.488  11.890   4.075
28599SOL    HW287637   1.535  12.032   4.048
28600SOL     OW87638  12.344   5.674   8.389
28600SOL    HW187639  12.292   5.672   8.469
28600SOL    HW287640  12.283   5.700   8.320
28601SOL     OW87641  11.200   8.468  11.381
28601SOL    HW187642  11.270   8.513  11.427
28601SOL    HW287643  11.239   8.441  11.298
28602SOL     OW87644   5.741   6.681  10.604
28602SOL    HW187645   5.783   6.636  10.531
28602SOL    HW287646   5.813   6.718  10.655
28603SOL     OW87647   4.623  11.252   1.093
28603SOL    HW187648   4.655  11.164   1.113
28603SOL    HW287649   4.643  11.303   1.171
28604SOL     OW87650   3.942   6.435  13.027
28604SOL    HW187651   3.853   6.447  12.992
28604SOL    HW287652   3.994   6.408  12.951
28605SOL     OW87653   5.937  13.233  11.671
28605SOL    HW187654   5.864  13.288  11.642
28605SOL    HW287655   6.013  13.266  11.623
28606SOL     OW87656   5.070   4.678   5.799
28606SOL    HW187657   5.120   4.639   5.870
28606SOL    HW287658   4.978   4.668   5.824
28607SOL     OW87659  10.718  13.176  10.877
28607SOL    HW187660  10.700  13.082  10.874
28607SOL    HW287661  10.768  13.188  10.958
28608SOL     OW87662   3.951   0.322   1.471
28608SOL    HW187663   3.990   0.263   1.536
28608SOL    HW287664   3.860   0.294   1.465
28609SOL     OW87665   3.197   3.044   7.958
28609SOL    HW187666   3.267   2.992   7.998
28609SOL    HW287667   3.133   2.978   7.929
28610SOL     OW87668   7.208   2.862   5.725
28610SOL    HW187669   7.232   2.786   5.778
28610SOL    HW287670   7.290   2.890   5.685
28611SOL     OW87671  14.675   3.854   7.360
28611SOL    HW187672  14.670   3.772   7.408
28611SOL    HW287673  14.730   3.834   7.284
28612SOL     OW87674   8.902   8.356   9.172
28612SOL    HW187675   8.852   8.282   9.206
28612SOL    HW287676   8.916   8.335   9.080
28613SOL     OW87677   1.966   4.883   1.669
28613SOL    HW187678   1.893   4.902   1.728
28613SOL    HW287679   2.041   4.871   1.727
28614SOL     OW87680  13.022  14.174   3.816
28614SOL    HW187681  13.082  14.108   3.782
28614SOL    HW287682  13.038  14.175   3.911
28615SOL     OW87683  12.355   0.149   2.687
28615SOL    HW187684  12.346   0.228   2.740
28615SOL    HW287685  12.332   0.178   2.599
28616SOL     OW87686   6.610   9.833   6.762
28616SOL    HW187687   6.539   9.820   6.825
28616SOL    HW287688   6.579   9.793   6.681
28617SOL     OW87689  12.227  10.299  10.285
28617SOL    HW187690  12.282  10.361  10.237
28617SOL    HW287691  12.240  10.323  10.377
28618SOL     OW87692   0.303  12.333  14.195
28618SOL    HW187693   0.248  12.255  14.191
28618SOL    HW287694   0.242  12.406  14.205
28619SOL     OW87695   6.520  14.849   5.130
28619SOL    HW187696   6.552   0.027   5.205
28619SOL    HW287697   6.506  14.762   5.166
28620SOL     OW87698   6.490   0.498   4.180
28620SOL    HW187699   6.471   0.404   4.184
28620SOL    HW287700   6.586   0.502   4.172
28621SOL     OW87701   9.788   3.354  14.223
28621SOL    HW187702   9.710   3.405  14.204
28621SOL    HW287703   9.858   3.419  14.231
28622SOL     OW87704   2.287   2.994   9.679
28622SOL    HW187705   2.253   2.959   9.596
28622SOL    HW287706   2.212   3.034   9.721
28623SOL     OW87707   1.255  11.878   2.938
28623SOL    HW187708   1.204  11.798   2.929
28623SOL    HW287709   1.198  11.947   2.904
28624SOL     OW87710  12.747  13.231   8.806
28624SOL    HW187711  12.768  13.203   8.717
28624SOL    HW287712  12.711  13.319   8.795
28625SOL     OW87713   3.935  13.193   7.160
28625SOL    HW187714   4.018  13.222   7.122
28625SOL    HW287715   3.929  13.100   7.136
28626SOL     OW87716   0.347   3.955   4.122
28626SOL    HW187717   0.375   4.034   4.168
28626SOL    HW287718   0.424   3.928   4.071
28627SOL     OW87719  11.326   7.919  14.576
28627SOL    HW187720  11.266   7.984  14.612
28627SOL    HW287721  11.366   7.878  14.653
28628SOL     OW87722   6.523   0.971  11.428
28628SOL    HW187723   6.600   1.027  11.438
28628SOL    HW287724   6.451   1.022  11.467
28629SOL     OW87725   1.314   7.957   6.083
28629SOL    HW187726   1.297   7.928   6.173
28629SOL    HW287727   1.348   7.879   6.039
28630SOL     OW87728  10.062   2.143   1.766
28630SOL    HW187729   9.997   2.142   1.696
28630SOL    HW287730  10.027   2.084   1.833
28631SOL     OW87731   8.102   0.789   8.893
28631SOL    HW187732   8.115   0.853   8.963
28631SOL    HW287733   8.163   0.816   8.825
28632SOL     OW87734   6.549   7.264   8.896
28632SOL    HW187735   6.572   7.352   8.925
28632SOL    HW287736   6.621   7.239   8.837
28633SOL     OW87737  10.964  12.472   2.145
28633SOL    HW187738  10.870  12.461   2.157
28633SOL    HW287739  10.987  12.408   2.078
28634SOL     OW87740  13.080   3.919   8.867
28634SOL    HW187741  13.122   3.910   8.952
28634SOL    HW287742  13.151   3.911   8.804
28635SOL     OW87743   6.584   1.417   9.000
28635SOL    HW187744   6.510   1.393   9.057
28635SOL    HW287745   6.661   1.402   9.054
28636SOL     OW87746   8.489   5.388  10.173
28636SOL    HW187747   8.448   5.332  10.239
28636SOL    HW287748   8.545   5.329  10.123
28637SOL     OW87749  11.919   9.725   8.622
28637SOL    HW187750  11.954   9.793   8.680
28637SOL    HW287751  11.872   9.666   8.680
28638SOL     OW87752  12.279   6.576   1.493
28638SOL    HW187753  12.277   6.540   1.405
28638SOL    HW287754  12.210   6.529   1.540
28639SOL     OW87755   9.594   1.508   5.562
28639SOL    HW187756   9.587   1.427   5.511
28639SOL    HW287757   9.680   1.502   5.604
28640SOL     OW87758   8.070   4.524   9.538
28640SOL    HW187759   8.149   4.493   9.583
28640SOL    HW287760   8.038   4.596   9.593
28641SOL     OW87761   3.545   2.387   7.436
28641SOL    HW187762   3.579   2.362   7.522
28641SOL    HW287763   3.614   2.361   7.375
28642SOL     OW87764  11.739   9.692   4.533
28642SOL    HW187765  11.804   9.692   4.462
28642SOL    HW287766  11.675   9.757   4.506
28643SOL     OW87767  10.616  10.433   4.055
28643SOL    HW187768  10.692  10.419   3.999
28643SOL    HW287769  10.568  10.505   4.013
28644SOL     OW87770   0.423   0.326   7.143
28644SOL    HW187771   0.421   0.422   7.143
28644SOL    HW287772   0.434   0.302   7.051
28645SOL     OW87773   9.691   7.217   7.955
28645SOL    HW187774   9.770   7.164   7.960
28645SOL    HW287775   9.666   7.231   8.047
28646SOL     OW87776   0.694  12.324   0.452
28646SOL    HW187777   0.713  12.354   0.540
28646SOL    HW287778   0.691  12.229   0.458
28647SOL     OW87779   3.677  12.917  11.875
28647SOL    HW187780   3.771  12.900  11.871
28647SOL    HW287781   3.649  12.917  11.784
28648SOL     OW87782   9.947  10.325  13.551
28648SOL    HW187783   9.927  10.231  13.551
28648SOL    HW287784   9.914  10.356  13.635
28649SOL     OW87785   5.149   4.007   8.788
28649SOL    HW187786   5.153   3.924   8.740
28649SOL    HW287787   5.121   3.982   8.876
28650SOL     OW87788   4.031   1.147  12.026
28650SOL    HW187789   3.983   1.101  11.957
28650SOL    HW287790   3.964   1.173  12.089
28651SOL     OW87791   6.535  11.906  11.848
28651SOL    HW187792   6.535  12.001  11.851
28651SOL    HW287793   6.524  11.879  11.940
28652SOL     OW87794   5.461   0.320   7.868
28652SOL    HW187795   5.409   0.246   7.901
28652SOL    HW287796   5.548   0.307   7.906
28653SOL     OW87797   9.810   7.326  10.728
28653SOL    HW187798   9.787   7.373  10.807
28653SOL    HW287799   9.897   7.357  10.705
28654SOL     OW87800   9.625   9.629  13.731
28654SOL    HW187801   9.598   9.672  13.812
28654SOL    HW287802   9.591   9.540  13.739
28655SOL     OW87803   3.546  10.242  14.356
28655SOL    HW187804   3.621  10.294  14.329
28655SOL    HW287805   3.580  10.153  14.365
28656SOL     OW87806   6.030  12.501   7.196
28656SOL    HW187807   6.031  12.560   7.272
28656SOL    HW287808   6.079  12.424   7.226
28657SOL     OW87809   2.941   3.486  10.233
28657SOL    HW187810   2.890   3.443  10.302
28657SOL    HW287811   2.876   3.527  10.176
28658SOL     OW87812  10.596  12.326  12.902
28658SOL    HW187813  10.649  12.307  12.979
28658SOL    HW287814  10.584  12.240  12.859
28659SOL     OW87815  11.315   3.504  10.946
28659SOL    HW187816  11.330   3.596  10.969
28659SOL    HW287817  11.278   3.507  10.858
28660SOL     OW87818  11.227   2.877   4.963
28660SOL    HW187819  11.169   2.865   4.888
28660SOL    HW287820  11.308   2.833   4.938
28661SOL     OW87821   3.870  11.914  11.759
28661SOL    HW187822   3.816  11.883  11.686
28661SOL    HW287823   3.959  11.884  11.737
28662SOL     OW87824   7.437   2.287  10.044
28662SOL    HW187825   7.448   2.382  10.044
28662SOL    HW287826   7.526   2.253  10.047
28663SOL     OW87827  12.540   2.079   4.840
28663SOL    HW187828  12.450   2.092   4.869
28663SOL    HW287829  12.533   2.038   4.754
28664SOL     OW87830   3.135  13.678  14.325
28664SOL    HW187831   3.048  13.663  14.287
28664SOL    HW287832   3.169  13.754  14.277
28665SOL     OW87833   9.848   3.241   6.227
28665SOL    HW187834   9.875   3.151   6.245
28665SOL    HW287835   9.826   3.243   6.134
28666SOL     OW87836   3.450  12.346   6.151
28666SOL    HW187837   3.473  12.284   6.081
28666SOL    HW287838   3.479  12.304   6.231
28667SOL     OW87839   9.090   1.915   9.715
28667SOL    HW187840   9.171   1.867   9.699
28667SOL    HW287841   9.104   1.960   9.798
28668SOL     OW87842  13.420   2.992   2.229
28668SOL    HW187843  13.409   2.956   2.142
28668SOL    HW287844  13.507   2.964   2.257
28669SOL     OW87845  12.190   2.925   2.052
28669SOL    HW187846  12.120   2.957   2.108
28669SOL    HW287847  12.150   2.853   2.002
28670SOL     OW87848  13.890   9.311   2.250
28670SOL    HW187849  13.853   9.397   2.235
28670SOL    HW287850  13.980   9.317   2.217
28671SOL     OW87851  14.511  12.893  10.361
28671SOL    HW187852  14.575  12.959  10.389
28671SOL    HW287853  14.496  12.913  10.269
28672SOL     OW87854   7.638  13.771   8.591
28672SOL    HW187855   7.708  13.835   8.579
28672SOL    HW287856   7.572  13.795   8.525
28673SOL     OW87857   5.703  10.633  12.294
28673SOL    HW187858   5.676  10.574  12.364
28673SOL    HW287859   5.639  10.619  12.224
28674SOL     OW87860   6.060  10.456   0.903
28674SOL    HW187861   6.042  10.498   0.819
28674SOL    HW287862   6.044  10.363   0.887
28675SOL     OW87863   9.356   5.095  14.515
28675SOL    HW187864   9.330   5.004  14.528
28675SOL    HW287865   9.307   5.144  14.580
28676SOL     OW87866   1.214  10.582   4.241
28676SOL    HW187867   1.277  10.653   4.235
28676SOL    HW287868   1.256  10.508   4.196
28677SOL     OW87869   1.662  12.929   9.059
28677SOL    HW187870   1.724  12.857   9.045
28677SOL    HW287871   1.594  12.915   8.992
28678SOL     OW87872  10.896   4.012   5.592
28678SOL    HW187873  10.977   4.003   5.642
28678SOL    HW287874  10.882   3.926   5.553
28679SOL     OW87875   6.382  13.086   8.066
28679SOL    HW187876   6.450  13.079   7.999
28679SOL    HW287877   6.427  13.062   8.148
28680SOL     OW87878   3.715   1.287   1.707
28680SOL    HW187879   3.765   1.208   1.688
28680SOL    HW287880   3.701   1.285   1.802
28681SOL     OW87881   8.328   2.230  14.869
28681SOL    HW187882   8.396   2.294  14.849
28681SOL    HW287883   8.369   2.169   0.058
28682SOL     OW87884   3.441   3.454   0.513
28682SOL    HW187885   3.436   3.389   0.443
28682SOL    HW287886   3.353   3.456   0.550
28683SOL     OW87887   1.282   5.843  12.108
28683SOL    HW187888   1.375   5.822  12.102
28683SOL    HW287889   1.273   5.925  12.059
28684SOL     OW87890   6.118  10.565   1.575
28684SOL    HW187891   6.075  10.523   1.501
28684SOL    HW287892   6.056  10.631   1.605
28685SOL     OW87893   8.060   7.251   2.362
28685SOL    HW187894   7.980   7.285   2.321
28685SOL    HW287895   8.063   7.159   2.337
28686SOL     OW87896   3.863   7.266   6.012
28686SOL    HW187897   3.803   7.340   6.002
28686SOL    HW287898   3.834   7.203   5.946
28687SOL     OW87899  13.404  14.624  10.164
28687SOL    HW187900  13.343  14.696  10.146
28687SOL    HW287901  13.414  14.624  10.259
28688SOL     OW87902   5.771   1.646   2.276
28688SOL    HW187903   5.823   1.567   2.262
28688SOL    HW287904   5.824   1.700   2.335
28689SOL     OW87905  13.630  10.974   0.797
28689SOL    HW187906  13.592  11.033   0.732
28689SOL    HW287907  13.689  10.918   0.747
28690SOL     OW87908  12.657   7.152  13.218
28690SOL    HW187909  12.730   7.096  13.245
28690SOL    HW287910  12.582   7.092  13.213
28691SOL     OW87911   0.713   0.879   9.644
28691SOL    HW187912   0.644   0.929   9.688
28691SOL    HW287913   0.681   0.869   9.555
28692SOL     OW87914   3.304  10.579  12.375
28692SOL    HW187915   3.335  10.567  12.465
28692SOL    HW287916   3.214  10.546  12.376
28693SOL     OW87917   5.673   7.685   1.951
28693SOL    HW187918   5.758   7.672   1.993
28693SOL    HW287919   5.690   7.747   1.881
28694SOL     OW87920   9.405  13.964  10.866
28694SOL    HW187921   9.320  14.004  10.847
28694SOL    HW287922   9.399  13.939  10.959
28695SOL     OW87923  12.398  12.906  11.110
28695SOL    HW187924  12.305  12.915  11.132
28695SOL    HW287925  12.431  12.996  11.108
28696SOL     OW87926   8.481   5.174   0.847
28696SOL    HW187927   8.442   5.261   0.833
28696SOL    HW287928   8.553   5.169   0.785
28697SOL     OW87929   9.018  11.738  14.706
28697SOL    HW187930   8.931  11.767  14.734
28697SOL    HW287931   9.056  11.815  14.663
28698SOL     OW87932   7.155  12.518   7.421
28698SOL    HW187933   7.082  12.540   7.363
28698SOL    HW287934   7.233  12.542   7.372
28699SOL     OW87935   0.740  13.880   1.887
28699SOL    HW187936   0.829  13.857   1.860
28699SOL    HW287937   0.713  13.808   1.944
28700SOL     OW87938   1.169   8.971  10.835
28700SOL    HW187939   1.213   8.888  10.815
28700SOL    HW287940   1.151   9.009  10.749
28701SOL     OW87941   1.569  13.967   4.630
28701SOL    HW187942   1.574  13.873   4.650
28701SOL    HW287943   1.657  14.000   4.647
28702SOL     OW87944   9.801   9.089  13.533
28702SOL    HW187945   9.885   9.049  13.513
28702SOL    HW287946   9.810   9.180  13.503
28703SOL     OW87947  11.549  10.589  12.947
28703SOL    HW187948  11.521  10.660  13.005
28703SOL    HW287949  11.507  10.511  12.982
28704SOL     OW87950   4.640   4.064  13.623
28704SOL    HW187951   4.558   4.017  13.605
28704SOL    HW287952   4.627   4.105  13.708
28705SOL     OW87953   4.985   6.212   9.322
28705SOL    HW187954   4.990   6.302   9.356
28705SOL    HW287955   5.076   6.186   9.310
28706SOL     OW87956  12.115   8.571   7.253
28706SOL    HW187957  12.126   8.666   7.257
28706SOL    HW287958  12.086   8.546   7.340
28707SOL     OW87959  13.480   9.519  11.109
28707SOL    HW187960  13.476   9.582  11.181
28707SOL    HW287961  13.396   9.528  11.064
28708SOL     OW87962   3.550   1.292   8.324
28708SOL    HW187963   3.592   1.248   8.399
28708SOL    HW287964   3.461   1.310   8.354
28709SOL     OW87965   4.795   7.651   9.036
28709SOL    HW187966   4.705   7.647   9.005
28709SOL    HW287967   4.831   7.565   9.016
28710SOL     OW87968  14.040   2.305   9.421
28710SOL    HW187969  14.099   2.232   9.403
28710SOL    HW287970  13.976   2.303   9.350
28711SOL     OW87971   6.797   0.886  12.828
28711SOL    HW187972   6.805   0.963  12.771
28711SOL    HW287973   6.776   0.814  12.768
28712SOL     OW87974  13.402   6.707   2.753
28712SOL    HW187975  13.370   6.763   2.824
28712SOL    HW287976  13.356   6.739   2.676
28713SOL     OW87977   6.543   3.680   1.845
28713SOL    HW187978   6.550   3.597   1.893
28713SOL    HW287979   6.613   3.734   1.880
28714SOL     OW87980   3.487  10.118   5.290
28714SOL    HW187981   3.565  10.173   5.287
28714SOL    HW287982   3.507  10.044   5.233
28715SOL     OW87983  12.051  11.372   6.945
28715SOL    HW187984  12.094  11.394   6.863
28715SOL    HW287985  12.008  11.288   6.927
28716SOL     OW87986  11.794  14.784   7.765
28716SOL    HW187987  11.750  14.706   7.798
28716SOL    HW287988  11.766  14.790   7.673
28717SOL     OW87989   1.360   5.456   1.799
28717SOL    HW187990   1.369   5.368   1.835
28717SOL    HW287991   1.290   5.449   1.735
28718SOL     OW87992   0.708   7.037   3.069
28718SOL    HW187993   0.628   6.985   3.064
28718SOL    HW287994   0.754   7.019   2.986
28719SOL     OW87995   6.842  10.043   4.763
28719SOL    HW187996   6.746  10.048   4.760
28719SOL    HW287997   6.872  10.115   4.707
28720SOL     OW87998   4.721   5.898   3.553
28720SOL    HW187999   4.719   5.831   3.484
28720SOL    HW288000   4.766   5.972   3.513
28721SOL     OW88001   7.567   9.752  10.104
28721SOL    HW188002   7.542   9.843  10.118
28721SOL    HW288003   7.530   9.730  10.018
28722SOL     OW88004  13.643   5.192   4.836
28722SOL    HW188005  13.633   5.101   4.865
28722SOL    HW288006  13.664   5.240   4.916
28723SOL     OW88007   4.231  10.953   2.025
28723SOL    HW188008   4.271  10.883   2.077
28723SOL    HW288009   4.183  10.907   1.956
28724SOL     OW88010   7.382  13.025   4.023
28724SOL    HW188011   7.329  13.060   4.096
28724SOL    HW288012   7.337  13.056   3.945
28725SOL     OW88013   1.978  10.583   0.040
28725SOL    HW188014   2.070  10.581   0.065
28725SOL    HW288015   1.931  10.600   0.122
28726SOL     OW88016   8.688  13.494   2.883
28726SOL    HW188017   8.639  13.490   2.801
28726SOL    HW288018   8.720  13.405   2.896
28727SOL     OW88019   5.270  12.159   4.460
28727SOL    HW188020   5.238  12.211   4.386
28727SOL    HW288021   5.286  12.223   4.529
28728SOL     OW88022   6.118   5.273   3.066
28728SOL    HW188023   6.143   5.342   3.004
28728SOL    HW288024   6.023   5.280   3.073
28729SOL     OW88025  10.195  14.504   2.854
28729SOL    HW188026  10.157  14.564   2.790
28729SOL    HW288027  10.140  14.425   2.848
28730SOL     OW88028   2.677  13.728  12.805
28730SOL    HW188029   2.746  13.666  12.830
28730SOL    HW288030   2.724  13.809  12.786
28731SOL     OW88031  11.378   7.208   5.792
28731SOL    HW188032  11.324   7.227   5.716
28731SOL    HW288033  11.458   7.170   5.755
28732SOL     OW88034   5.776   8.323   9.896
28732SOL    HW188035   5.774   8.369   9.980
28732SOL    HW288036   5.869   8.309   9.879
28733SOL     OW88037   9.019   1.454   3.643
28733SOL    HW188038   8.990   1.454   3.552
28733SOL    HW288039   9.002   1.365   3.674
28734SOL     OW88040   9.120   0.984   2.870
28734SOL    HW188041   9.124   1.080   2.876
28734SOL    HW288042   9.032   0.962   2.901
28735SOL     OW88043  11.135   8.035   4.469
28735SOL    HW188044  11.089   8.106   4.423
28735SOL    HW288045  11.095   8.033   4.556
28736SOL     OW88046   1.932   7.713   1.689
28736SOL    HW188047   1.874   7.745   1.758
28736SOL    HW288048   1.976   7.638   1.728
28737SOL     OW88049   3.208   3.419  13.726
28737SOL    HW188050   3.143   3.455  13.666
28737SOL    HW288051   3.214   3.326  13.703
28738SOL     OW88052   5.883   3.340  14.501
28738SOL    HW188053   5.899   3.387  14.583
28738SOL    HW288054   5.825   3.268  14.525
28739SOL     OW88055   3.798   0.157  10.921
28739SOL    HW188056   3.817   0.086  10.982
28739SOL    HW288057   3.703   0.157  10.912
28740SOL     OW88058   0.946  12.403   4.703
28740SOL    HW188059   0.868  12.452   4.678
28740SOL    HW288060   0.913  12.330   4.755
28741SOL     OW88061   2.163   5.764   6.202
28741SOL    HW188062   2.099   5.824   6.240
28741SOL    HW288063   2.218   5.819   6.146
28742SOL     OW88064   2.672   2.965   4.701
28742SOL    HW188065   2.751   3.015   4.720
28742SOL    HW288066   2.704   2.877   4.680
28743SOL     OW88067   6.746   5.421   9.683
28743SOL    HW188068   6.780   5.361   9.750
28743SOL    HW288069   6.808   5.493   9.682
28744SOL     OW88070  12.973   9.685   4.087
28744SOL    HW188071  12.893   9.651   4.128
28744SOL    HW288072  12.956   9.779   4.077
28745SOL     OW88073  10.333   8.525  12.579
28745SOL    HW188074  10.391   8.585  12.626
28745SOL    HW288075  10.383   8.444  12.571
28746SOL     OW88076   1.003  13.557   7.060
28746SOL    HW188077   0.914  13.521   7.057
28746SOL    HW288078   1.057  13.484   7.088
28747SOL     OW88079  13.753   5.828   6.245
28747SOL    HW188080  13.687   5.779   6.293
28747SOL    HW288081  13.749   5.793   6.156
28748SOL     OW88082   6.800   5.605   3.738
28748SOL    HW188083   6.706   5.608   3.757
28748SOL    HW288084   6.841   5.649   3.813
28749SOL     OW88085  12.246  14.175  12.889
28749SOL    HW188086  12.251  14.086  12.923
28749SOL    HW288087  12.152  14.191  12.880
28750SOL     OW88088   7.628  11.372  14.315
28750SOL    HW188089   7.578  11.452  14.325
28750SOL    HW288090   7.656  11.350  14.404
28751SOL     OW88091   7.852   4.244   1.555
28751SOL    HW188092   7.872   4.319   1.499
28751SOL    HW288093   7.771   4.209   1.519
28752SOL     OW88094   9.937  12.769   0.218
28752SOL    HW188095   9.967  12.801   0.133
28752SOL    HW288096   9.856  12.817   0.235
28753SOL     OW88097   7.940   4.116  13.256
28753SOL    HW188098   7.881   4.187  13.280
28753SOL    HW288099   8.015   4.125  13.315
28754SOL     OW88100   3.816  14.012   0.580
28754SOL    HW188101   3.820  14.081   0.513
28754SOL    HW288102   3.762  14.049   0.649
28755SOL     OW88103   2.244   7.968   7.381
28755SOL    HW188104   2.254   7.987   7.287
28755SOL    HW288105   2.313   8.018   7.423
28756SOL     OW88106   9.790  12.307   2.906
28756SOL    HW188107   9.819  12.309   2.815
28756SOL    HW288108   9.812  12.394   2.940
28757SOL     OW88109   9.371  12.988   9.419
28757SOL    HW188110   9.386  13.078   9.390
28757SOL    HW288111   9.437  12.974   9.486
28758SOL     OW88112  12.998   4.227  10.527
28758SOL    HW188113  12.971   4.146  10.485
28758SOL    HW288114  12.920   4.255  10.576
28759SOL     OW88115   2.061   4.291   8.054
28759SOL    HW188116   2.057   4.197   8.037
28759SOL    HW288117   2.120   4.325   7.987
28760SOL     OW88118   9.744   5.411  11.222
28760SOL    HW188119   9.732   5.487  11.278
28760SOL    HW288120   9.798   5.443  11.149
28761SOL     OW88121  13.975  12.886   8.124
28761SOL    HW188122  13.887  12.854   8.107
28761SOL    HW288123  13.962  12.971   8.167
28762SOL     OW88124   3.153  10.125   2.088
28762SOL    HW188125   3.211  10.061   2.047
28762SOL    HW288126   3.208  10.203   2.099
28763SOL     OW88127   8.633   1.422  11.241
28763SOL    HW188128   8.584   1.497  11.275
28763SOL    HW288129   8.597   1.347  11.288
28764SOL     OW88130   2.852   6.663   9.766
28764SOL    HW188131   2.772   6.713   9.770
28764SOL    HW288132   2.836   6.597   9.699
28765SOL     OW88133   3.011   2.616   7.063
28765SOL    HW188134   3.057   2.660   6.992
28765SOL    HW288135   2.936   2.671   7.082
28766SOL     OW88136   6.576   6.027  10.265
28766SOL    HW188137   6.545   6.114  10.240
28766SOL    HW288138   6.656   6.043  10.314
28767SOL     OW88139  13.474   7.271   1.989
28767SOL    HW188140  13.408   7.300   1.925
28767SOL    HW288141  13.467   7.335   2.060
28768SOL     OW88142  11.660   4.258   3.718
28768SOL    HW188143  11.705   4.184   3.676
28768SOL    HW288144  11.691   4.335   3.671
28769SOL     OW88145   8.631  14.504   3.281
28769SOL    HW188146   8.602  14.419   3.250
28769SOL    HW288147   8.586  14.516   3.365
28770SOL     OW88148   1.676  10.373  14.453
28770SOL    HW188149   1.730  10.424  14.513
28770SOL    HW288150   1.680  10.420  14.370
28771SOL     OW88151  12.571   1.405   7.930
28771SOL    HW188152  12.505   1.434   7.867
28771SOL    HW288153  12.525   1.341   7.985
28772SOL     OW88154  11.658   7.259   8.046
28772SOL    HW188155  11.568   7.246   8.076
28772SOL    HW288156  11.655   7.340   7.995
28773SOL     OW88157  14.331   2.743  10.806
28773SOL    HW188158  14.388   2.818  10.816
28773SOL    HW288159  14.342   2.693  10.887
28774SOL     OW88160  11.415  12.652   4.309
28774SOL    HW188161  11.411  12.745   4.332
28774SOL    HW288162  11.486  12.646   4.245
28775SOL     OW88163   1.982   4.861  11.006
28775SOL    HW188164   2.045   4.798  11.040
28775SOL    HW288165   2.031   4.911  10.940
28776SOL     OW88166   9.956   1.026   6.509
28776SOL    HW188167  10.038   0.981   6.488
28776SOL    HW288168   9.973   1.118   6.485
28777SOL     OW88169   8.938  11.954  12.843
28777SOL    HW188170   9.023  11.993  12.823
28777SOL    HW288171   8.959  11.884  12.906
28778SOL     OW88172  14.811   6.610   6.772
28778SOL    HW188173  14.787   6.643   6.858
28778SOL    HW288174  14.830   6.688   6.720
28779SOL     OW88175   1.834   7.078   8.348
28779SOL    HW188176   1.911   7.123   8.312
28779SOL    HW288177   1.778   7.063   8.272
28780SOL     OW88178  10.831   4.778  14.827
28780SOL    HW188179  10.891   4.850  14.811
28780SOL    HW288180  10.767   4.812   0.016
28781SOL     OW88181  10.656  10.931  14.279
28781SOL    HW188182  10.580  10.988  14.268
28781SOL    HW288183  10.652  10.871  14.204
28782SOL     OW88184   3.144   2.422   6.882
28782SOL    HW188185   3.223   2.378   6.848
28782SOL    HW288186   3.133   2.386   6.970
28783SOL     OW88187   2.178   3.495   6.327
28783SOL    HW188188   2.170   3.407   6.365
28783SOL    HW288189   2.266   3.523   6.350
28784SOL     OW88190  10.579  12.166  14.577
28784SOL    HW188191  10.598  12.228  14.507
28784SOL    HW288192  10.568  12.082  14.532
28785SOL     OW88193   5.649   3.256  11.895
28785SOL    HW188194   5.661   3.212  11.979
28785SOL    HW288195   5.723   3.225  11.842
28786SOL     OW88196   4.009   7.055   7.567
28786SOL    HW188197   3.969   6.973   7.595
28786SOL    HW288198   3.953   7.123   7.605
28787SOL     OW88199   6.759   1.438  11.471
28787SOL    HW188200   6.682   1.495  11.466
28787SOL    HW288201   6.771   1.421  11.564
28788SOL     OW88202   6.647  11.277   6.731
28788SOL    HW188203   6.736  11.265   6.763
28788SOL    HW288204   6.653  11.347   6.667
28789SOL     OW88205   2.937   7.308   7.877
28789SOL    HW188206   2.889   7.390   7.884
28789SOL    HW288207   2.982   7.314   7.793
28790SOL     OW88208   1.029   2.504  11.836
28790SOL    HW188209   0.995   2.579  11.787
28790SOL    HW288210   1.124   2.513  11.831
28791SOL     OW88211  13.624   6.314   9.555
28791SOL    HW188212  13.542   6.292   9.510
28791SOL    HW288213  13.601   6.389   9.609
28792SOL     OW88214  14.194   9.427   0.469
28792SOL    HW188215  14.155   9.430   0.382
28792SOL    HW288216  14.234   9.340   0.475
28793SOL     OW88217   9.434   3.086  14.147
28793SOL    HW188218   9.475   2.999  14.147
28793SOL    HW288219   9.345   3.070  14.115
28794SOL     OW88220  10.644   8.571  14.254
28794SOL    HW188221  10.649   8.667  14.259
28794SOL    HW288222  10.550   8.553  14.244
28795SOL     OW88223   3.807   5.002  12.084
28795SOL    HW188224   3.841   5.091  12.096
28795SOL    HW288225   3.884   4.949  12.063
28796SOL     OW88226  12.524   6.142  12.862
28796SOL    HW188227  12.584   6.140  12.787
28796SOL    HW288228  12.578   6.173  12.934
28797SOL     OW88229   8.877   5.564   8.135
28797SOL    HW188230   8.915   5.553   8.222
28797SOL    HW288231   8.797   5.614   8.150
28798SOL     OW88232  13.854   8.299   6.385
28798SOL    HW188233  13.781   8.237   6.378
28798SOL    HW288234  13.813   8.385   6.381
28799SOL     OW88235   3.646   9.292  11.574
28799SOL    HW188236   3.733   9.332  11.581
28799SOL    HW288237   3.662   9.198  11.580
28800SOL     OW88238   0.556  10.517   8.216
28800SOL    HW188239   0.471  10.498   8.257
28800SOL    HW288240   0.568  10.611   8.230
28801SOL     OW88241  13.287  11.393   4.528
28801SOL    HW188242  13.208  11.358   4.570
28801SOL    HW288243  13.287  11.353   4.441
28802SOL     OW88244  10.958   4.104  13.418
28802SOL    HW188245  10.870   4.076  13.391
28802SOL    HW288246  10.995   4.028  13.461
28803SOL     OW88247   3.627  14.371   2.107
28803SOL    HW188248   3.598  14.460   2.088
28803SOL    HW288249   3.577  14.344   2.183
28804SOL     OW88250   0.532   1.709  13.897
28804SOL    HW188251   0.601   1.762  13.857
28804SOL    HW288252   0.574   1.626  13.918
28805SOL     OW88253   6.775   0.998  10.692
28805SOL    HW188254   6.779   1.075  10.749
28805SOL    HW288255   6.774   0.924  10.753
28806SOL     OW88256  11.174   1.196   5.327
28806SOL    HW188257  11.202   1.109   5.353
28806SOL    HW288258  11.081   1.186   5.306
28807SOL     OW88259   9.009   8.920   7.413
28807SOL    HW188260   8.992   8.846   7.355
28807SOL    HW288261   8.957   8.901   7.491
28808SOL     OW88262   4.148  10.491   0.210
28808SOL    HW188263   4.109  10.446   0.285
28808SOL    HW288264   4.232  10.522   0.242
28809SOL     OW88265   8.548   4.014   6.194
28809SOL    HW188266   8.499   3.934   6.216
28809SOL    HW288267   8.605   4.028   6.270
28810SOL     OW88268   1.624   7.432  10.895
28810SOL    HW188269   1.613   7.452  10.988
28810SOL    HW288270   1.656   7.342  10.894
28811SOL     OW88271   7.970  11.244   1.218
28811SOL    HW188272   7.929  11.313   1.166
28811SOL    HW288273   7.905  11.222   1.284
28812SOL     OW88274  11.961  11.955   7.915
28812SOL    HW188275  11.928  11.949   7.826
28812SOL    HW288276  11.914  11.887   7.963
28813SOL     OW88277   9.813   3.631   8.639
28813SOL    HW188278   9.851   3.688   8.706
28813SOL    HW288279   9.719   3.649   8.642
28814SOL     OW88280   6.872  12.797   7.005
28814SOL    HW188281   6.927  12.741   6.951
28814SOL    HW288282   6.785  12.791   6.964
28815SOL     OW88283   1.798  13.112   7.654
28815SOL    HW188284   1.791  13.060   7.575
28815SOL    HW288285   1.734  13.074   7.714
28816SOL     OW88286   8.862  10.061   0.564
28816SOL    HW188287   8.957  10.075   0.561
28816SOL    HW288288   8.826  10.147   0.585
28817SOL     OW88289   5.321   3.444   5.679
28817SOL    HW188290   5.384   3.514   5.659
28817SOL    HW288291   5.363   3.364   5.649
28818SOL     OW88292   7.994   6.129   3.829
28818SOL    HW188293   8.083   6.132   3.862
28818SOL    HW288294   7.947   6.073   3.891
28819SOL     OW88295  12.419   1.732   9.143
28819SOL    HW188296  12.476   1.656   9.130
28819SOL    HW288297  12.461   1.782   9.213
28820SOL     OW88298  11.489   0.397   1.504
28820SOL    HW188299  11.524   0.315   1.471
28820SOL    HW288300  11.515   0.463   1.439
28821SOL     OW88301   5.910  13.345   5.441
28821SOL    HW188302   5.934  13.283   5.373
28821SOL    HW288303   5.993  13.371   5.480
28822SOL     OW88304   1.289  14.631  10.203
28822SOL    HW188305   1.260  14.670  10.285
28822SOL    HW288306   1.347  14.697  10.164
28823SOL     OW88307   8.624  13.196   2.230
28823SOL    HW188308   8.613  13.166   2.320
28823SOL    HW288309   8.603  13.119   2.176
28824SOL     OW88310   2.143  11.321  14.369
28824SOL    HW188311   2.156  11.396  14.427
28824SOL    HW288312   2.230  11.306  14.331
28825SOL     OW88313   4.923  13.795   6.597
28825SOL    HW188314   4.862  13.826   6.532
28825SOL    HW288315   4.924  13.863   6.665
28826SOL     OW88316   5.441   4.801   6.686
28826SOL    HW188317   5.472   4.729   6.632
28826SOL    HW288318   5.463   4.776   6.775
28827SOL     OW88319   6.727   5.655   7.750
28827SOL    HW188320   6.801   5.601   7.779
28827SOL    HW288321   6.687   5.686   7.830
28828SOL     OW88322  13.094   2.761   8.226
28828SOL    HW188323  13.171   2.736   8.277
28828SOL    HW288324  13.084   2.693   8.161
28829SOL     OW88325   9.627   3.693   3.114
28829SOL    HW188326   9.579   3.732   3.041
28829SOL    HW288327   9.719   3.714   3.095
28830SOL     OW88328   0.377  10.507   4.461
28830SOL    HW188329   0.424  10.552   4.391
28830SOL    HW288330   0.287  10.500   4.428
28831SOL     OW88331   4.080   4.179   0.346
28831SOL    HW188332   4.168   4.207   0.372
28831SOL    HW288333   4.093   4.108   0.284
28832SOL     OW88334  10.405  13.641   8.259
28832SOL    HW188335  10.361  13.686   8.331
28832SOL    HW288336  10.382  13.692   8.181
28833SOL     OW88337   2.993   2.310   1.594
28833SOL    HW188338   2.926   2.286   1.659
28833SOL    HW288339   2.986   2.242   1.527
28834SOL     OW88340   2.665   6.943   5.416
28834SOL    HW188341   2.691   7.035   5.415
28834SOL    HW288342   2.720   6.902   5.349
28835SOL     OW88343   0.521   7.879  13.784
28835SOL    HW188344   0.493   7.817  13.851
28835SOL    HW288345   0.605   7.912  13.815
28836SOL     OW88346   6.026  12.199   7.689
28836SOL    HW188347   5.955  12.237   7.636
28836SOL    HW288348   6.043  12.115   7.647
28837SOL     OW88349  12.823   6.837   6.733
28837SOL    HW188350  12.731   6.811   6.725
28837SOL    HW288351  12.821   6.933   6.735
28838SOL     OW88352   7.463   8.718  14.318
28838SOL    HW188353   7.463   8.752  14.228
28838SOL    HW288354   7.373   8.726  14.348
28839SOL     OW88355  11.765  10.039   6.994
28839SOL    HW188356  11.669  10.039   6.998
28839SOL    HW288357  11.793  10.020   7.083
28840SOL     OW88358   2.235  14.718  14.700
28840SOL    HW188359   2.266  14.684  14.616
28840SOL    HW288360   2.308  14.771  14.733
28841SOL     OW88361   0.779   9.872   4.772
28841SOL    HW188362   0.755   9.924   4.696
28841SOL    HW288363   0.715   9.800   4.773
28842SOL     OW88364  13.361   2.694   4.536
28842SOL    HW188365  13.332   2.734   4.454
28842SOL    HW288366  13.311   2.739   4.603
28843SOL     OW88367   2.695  12.239  13.740
28843SOL    HW188368   2.714  12.318  13.791
28843SOL    HW288369   2.781  12.206  13.713
28844SOL     OW88370   4.170   4.151  11.950
28844SOL    HW188371   4.084   4.193  11.949
28844SOL    HW288372   4.232   4.222  11.966
28845SOL     OW88373   6.382   6.079   7.007
28845SOL    HW188374   6.438   6.095   7.083
28845SOL    HW288375   6.442   6.069   6.934
28846SOL     OW88376   1.677  14.544   0.861
28846SOL    HW188377   1.751  14.592   0.824
28846SOL    HW288378   1.661  14.473   0.798
28847SOL     OW88379   1.617   8.160  13.619
28847SOL    HW188380   1.570   8.230  13.663
28847SOL    HW288381   1.709   8.175  13.640
28848SOL     OW88382  12.318   5.018   0.048
28848SOL    HW188383  12.334   4.925   0.033
28848SOL    HW288384  12.223   5.027   0.041
28849SOL     OW88385   0.374  12.904   8.298
28849SOL    HW188386   0.309  12.971   8.278
28849SOL    HW288387   0.442  12.950   8.347
28850SOL     OW88388   6.763  11.243  13.584
28850SOL    HW188389   6.747  11.327  13.541
28850SOL    HW288390   6.759  11.262  13.677
28851SOL     OW88391   2.571   0.063   8.554
28851SOL    HW188392   2.591   0.154   8.536
28851SOL    HW288393   2.523   0.033   8.477
28852SOL     OW88394  13.413  14.380   9.637
28852SOL    HW188395  13.397  14.448   9.572
28852SOL    HW288396  13.343  14.317   9.625
28853SOL     OW88397  13.501   7.118  12.867
28853SOL    HW188398  13.458   7.034  12.878
28853SOL    HW288399  13.470   7.171  12.940
28854SOL     OW88400  14.064   3.617  13.529
28854SOL    HW188401  13.978   3.639  13.564
28854SOL    HW288402  14.115   3.588  13.606
28855SOL     OW88403   4.063   4.365  10.251
28855SOL    HW188404   4.097   4.337  10.165
28855SOL    HW288405   4.020   4.448  10.233
28856SOL     OW88406   6.353  10.038   5.769
28856SOL    HW188407   6.387  10.072   5.686
28856SOL    HW288408   6.335   9.946   5.751
28857SOL     OW88409   9.704  13.692   3.822
28857SOL    HW188410   9.782  13.692   3.877
28857SOL    HW288411   9.711  13.772   3.770
28858SOL     OW88412   5.329   7.026   7.024
28858SOL    HW188413   5.293   7.100   7.072
28858SOL    HW288414   5.382   6.979   7.089
28859SOL     OW88415   8.122  13.072   9.770
28859SOL    HW188416   8.157  13.038   9.688
28859SOL    HW288417   8.106  12.994   9.823
28860SOL     OW88418   8.812  10.036  12.076
28860SOL    HW188419   8.844  10.081  11.998
28860SOL    HW288420   8.856  10.081  12.149
28861SOL     OW88421   3.851   2.090   5.947
28861SOL    HW188422   3.876   2.011   5.995
28861SOL    HW288423   3.809   2.057   5.868
28862SOL     OW88424  14.216   1.398   8.420
28862SOL    HW188425  14.306   1.429   8.424
28862SOL    HW288426  14.164   1.472   8.453
28863SOL     OW88427  13.918   7.232  10.696
28863SOL    HW188428  13.825   7.214  10.706
28863SOL    HW288429  13.957   7.205  10.779
28864SOL     OW88430   7.123   6.023  10.301
28864SOL    HW188431   7.194   6.056  10.245
28864SOL    HW288432   7.128   5.928  10.293
28865SOL     OW88433   7.943  11.279   3.217
28865SOL    HW188434   8.033  11.301   3.193
28865SOL    HW288435   7.930  11.191   3.182
28866SOL     OW88436  12.311  10.729  14.523
28866SOL    HW188437  12.378  10.670  14.557
28866SOL    HW288438  12.310  10.802  14.585
28867SOL     OW88439   6.630   5.280   0.873
28867SOL    HW188440   6.596   5.357   0.826
28867SOL    HW288441   6.696   5.244   0.814
28868SOL     OW88442  14.340   9.105   8.011
28868SOL    HW188443  14.284   9.032   7.987
28868SOL    HW288444  14.363   9.146   7.928
28869SOL     OW88445   2.159  11.594   2.519
28869SOL    HW188446   2.113  11.662   2.470
28869SOL    HW288447   2.090  11.549   2.567
28870SOL     OW88448  12.860  13.985   3.206
28870SOL    HW188449  12.943  13.977   3.252
28870SOL    HW288450  12.794  13.984   3.276
28871SOL     OW88451   0.987  13.608   8.426
28871SOL    HW188452   1.078  13.614   8.454
28871SOL    HW288453   0.978  13.519   8.392
28872SOL     OW88454   5.272  11.442  13.167
28872SOL    HW188455   5.249  11.402  13.251
28872SOL    HW288456   5.245  11.533  13.175
28873SOL     OW88457   7.559   8.964  14.449
28873SOL    HW188458   7.649   8.994  14.434
28873SOL    HW288459   7.539   8.910  14.373
28874SOL     OW88460  11.415   4.116   7.674
28874SOL    HW188461  11.402   4.106   7.580
28874SOL    HW288462  11.471   4.194   7.682
28875SOL     OW88463  11.985  11.547   9.590
28875SOL    HW188464  11.979  11.631   9.545
28875SOL    HW288465  11.899  11.507   9.577
28876SOL     OW88466  10.524   7.565  13.217
28876SOL    HW188467  10.537   7.474  13.190
28876SOL    HW288468  10.595   7.613  13.175
28877SOL     OW88469   7.175   3.833  12.332
28877SOL    HW188470   7.170   3.739  12.352
28877SOL    HW288471   7.146   3.840  12.241
28878SOL     OW88472   3.092   7.097   8.755
28878SOL    HW188473   3.169   7.103   8.812
28878SOL    HW288474   3.113   7.155   8.682
28879SOL     OW88475   6.790  10.933   2.226
28879SOL    HW188476   6.880  10.908   2.247
28879SOL    HW288477   6.772  10.890   2.142
28880SOL     OW88478  11.818   3.826  11.569
28880SOL    HW188479  11.912   3.844  11.574
28880SOL    HW288480  11.811   3.752  11.509
28881SOL     OW88481   2.838  11.708   4.311
28881SOL    HW188482   2.881  11.743   4.390
28881SOL    HW288483   2.854  11.614   4.315
28882SOL     OW88484   2.963  11.702   3.514
28882SOL    HW188485   2.896  11.743   3.461
28882SOL    HW288486   3.043  11.710   3.462
28883SOL     OW88487   5.297   8.696  11.367
28883SOL    HW188488   5.284   8.611  11.409
28883SOL    HW288489   5.257   8.759  11.428
28884SOL     OW88490   9.430  11.901   9.904
28884SOL    HW188491   9.442  11.938   9.817
28884SOL    HW288492   9.416  11.808   9.889
28885SOL     OW88493  12.491  14.752   0.830
28885SOL    HW188494  12.522  14.701   0.905
28885SOL    HW288495  12.571  14.775   0.782
28886SOL     OW88496  14.000   0.958  10.264
28886SOL    HW188497  13.999   0.947  10.169
28886SOL    HW288498  13.945   1.034  10.280
28887SOL     OW88499   9.918   0.497  14.330
28887SOL    HW188500   9.883   0.424  14.278
28887SOL    HW288501   9.978   0.542  14.270
28888SOL     OW88502   0.530   1.327   7.977
28888SOL    HW188503   0.603   1.357   7.923
28888SOL    HW288504   0.502   1.245   7.937
28889SOL     OW88505   7.202  10.759   2.675
28889SOL    HW188506   7.165  10.722   2.755
28889SOL    HW288507   7.268  10.696   2.648
28890SOL     OW88508   8.614   3.557  11.005
28890SOL    HW188509   8.582   3.475  11.043
28890SOL    HW288510   8.547   3.621  11.028
28891SOL     OW88511   2.485   1.820   9.315
28891SOL    HW188512   2.514   1.804   9.225
28891SOL    HW288513   2.563   1.855   9.359
28892SOL     OW88514   9.934   4.699   9.760
28892SOL    HW188515   9.999   4.752   9.714
28892SOL    HW288516   9.960   4.609   9.743
28893SOL     OW88517  11.598  14.809  14.761
28893SOL    HW188518  11.539  14.738  14.787
28893SOL    HW288519  11.544  14.865  14.705
28894SOL     OW88520   2.423  11.915   8.448
28894SOL    HW188521   2.380  11.864   8.379
28894SOL    HW288522   2.374  11.996   8.453
28895SOL     OW88523   0.792  13.995   4.068
28895SOL    HW188524   0.725  14.062   4.055
28895SOL    HW288525   0.820  14.007   4.159
28896SOL     OW88526  11.048   2.616   5.104
28896SOL    HW188527  11.060   2.625   5.009
28896SOL    HW288528  11.126   2.654   5.142
28897SOL     OW88529  10.043   5.408   6.407
28897SOL    HW188530  10.123   5.458   6.422
28897SOL    HW288531  10.022   5.370   6.493
28898SOL     OW88532   5.467   4.304   9.389
28898SOL    HW188533   5.457   4.222   9.438
28898SOL    HW288534   5.388   4.354   9.412
28899SOL     OW88535  14.250   6.204   9.589
28899SOL    HW188536  14.228   6.264   9.519
28899SOL    HW288537  14.168   6.159   9.609
28900SOL     OW88538   6.227   7.691   4.808
28900SOL    HW188539   6.299   7.754   4.804
28900SOL    HW288540   6.229   7.658   4.897
28901SOL     OW88541   9.368  11.412  13.700
28901SOL    HW188542   9.360  11.346  13.631
28901SOL    HW288543   9.456  11.447  13.690
28902SOL     OW88544   1.920   1.009  13.255
28902SOL    HW188545   1.912   0.937  13.192
28902SOL    HW288546   2.004   1.050  13.234
28903SOL     OW88547   8.537   7.282   5.882
28903SOL    HW188548   8.498   7.304   5.967
28903SOL    HW288549   8.628   7.259   5.903
28904SOL     OW88550   6.865  12.361   0.552
28904SOL    HW188551   6.808  12.417   0.498
28904SOL    HW288552   6.882  12.413   0.630
28905SOL     OW88553  11.596   4.936  10.825
28905SOL    HW188554  11.505   4.911  10.805
28905SOL    HW288555  11.647   4.899  10.753
28906SOL     OW88556   0.137   8.758   3.037
28906SOL    HW188557   0.218   8.803   3.013
28906SOL    HW288558   0.068   8.823   3.024
28907SOL     OW88559   5.629   8.872   5.401
28907SOL    HW188560   5.576   8.793   5.394
28907SOL    HW288561   5.591   8.933   5.338
28908SOL     OW88562  14.150   8.891   7.982
28908SOL    HW188563  14.103   8.812   7.955
28908SOL    HW288564  14.081   8.956   7.995
28909SOL     OW88565   9.818  11.768   9.513
28909SOL    HW188566   9.827  11.814   9.597
28909SOL    HW288567   9.754  11.820   9.464
28910SOL     OW88568   3.206  12.396   1.084
28910SOL    HW188569   3.203  12.463   1.016
28910SOL    HW288570   3.116  12.362   1.088
28911SOL     OW88571   3.727  12.744   2.557
28911SOL    HW188572   3.743  12.794   2.477
28911SOL    HW288573   3.742  12.806   2.628
28912SOL     OW88574  13.286   1.072  14.397
28912SOL    HW188575  13.251   0.983  14.402
28912SOL    HW288576  13.210   1.127  14.380
28913SOL     OW88577  11.824   9.339  11.693
28913SOL    HW188578  11.918   9.325  11.707
28913SOL    HW288579  11.808   9.303  11.605
28914SOL     OW88580   6.619   5.793   0.532
28914SOL    HW188581   6.700   5.815   0.487
28914SOL    HW288582   6.611   5.860   0.600
28915SOL     OW88583   2.384   8.066  11.995
28915SOL    HW188584   2.322   8.111  12.053
28915SOL    HW288585   2.464   8.118  11.999
28916SOL     OW88586   9.651   0.879   9.616
28916SOL    HW188587   9.589   0.951   9.608
28916SOL    HW288588   9.737   0.919   9.610
28917SOL     OW88589   1.290   6.288  14.141
28917SOL    HW188590   1.199   6.296  14.168
28917SOL    HW288591   1.286   6.266  14.048
28918SOL     OW88592   8.367   0.709   7.341
28918SOL    HW188593   8.441   0.693   7.399
28918SOL    HW288594   8.326   0.788   7.376
28919SOL     OW88595   2.309  13.239  10.979
28919SOL    HW188596   2.321  13.290  11.059
28919SOL    HW288597   2.342  13.152  11.001
28920SOL     OW88598   2.729  13.085  12.926
28920SOL    HW188599   2.783  13.028  12.871
28920SOL    HW288600   2.684  13.143  12.865
28921SOL     OW88601  10.889   3.395   0.560
28921SOL    HW188602  10.931   3.313   0.534
28921SOL    HW288603  10.879   3.388   0.655
28922SOL     OW88604  11.068   0.840   2.440
28922SOL    HW188605  10.980   0.849   2.477
28922SOL    HW288606  11.056   0.845   2.346
28923SOL     OW88607   6.350   8.701   6.653
28923SOL    HW188608   6.393   8.775   6.697
28923SOL    HW288609   6.256   8.719   6.664
28924SOL     OW88610  10.118   0.832  10.455
28924SOL    HW188611  10.055   0.765  10.482
28924SOL    HW288612  10.172   0.846  10.533
28925SOL     OW88613  10.146   2.400   8.021
28925SOL    HW188614  10.209   2.379   7.951
28925SOL    HW288615  10.063   2.412   7.975
28926SOL     OW88616  10.619  12.274   4.856
28926SOL    HW188617  10.568  12.223   4.792
28926SOL    HW288618  10.645  12.210   4.922
28927SOL     OW88619   9.770   4.455   0.248
28927SOL    HW188620   9.741   4.469   0.338
28927SOL    HW288621   9.820   4.534   0.226
28928SOL     OW88622   4.529   7.514  11.426
28928SOL    HW188623   4.510   7.421  11.415
28928SOL    HW288624   4.453   7.548  11.474
28929SOL     OW88625   0.560   7.700   5.501
28929SOL    HW188626   0.571   7.791   5.527
28929SOL    HW288627   0.493   7.703   5.432
28930SOL     OW88628   4.375  12.409   2.452
28930SOL    HW188629   4.446  12.465   2.423
28930SOL    HW288630   4.334  12.377   2.372
28931SOL     OW88631  14.140   5.405   8.163
28931SOL    HW188632  14.058   5.403   8.114
28931SOL    HW288633  14.174   5.316   8.157
28932SOL     OW88634  10.055  12.175   2.678
28932SOL    HW188635  10.082  12.111   2.744
28932SOL    HW288636   9.994  12.128   2.621
28933SOL     OW88637   6.751   1.012   2.946
28933SOL    HW188638   6.815   1.066   2.899
28933SOL    HW288639   6.677   1.071   2.961
28934SOL     OW88640  12.052   1.186   5.281
28934SOL    HW188641  12.018   1.104   5.317
28934SOL    HW288642  11.976   1.228   5.240
28935SOL     OW88643   4.691  14.751  13.469
28935SOL    HW188644   4.715  14.688  13.537
28935SOL    HW288645   4.764  14.749  13.408
28936SOL     OW88646  11.667  13.320   3.639
28936SOL    HW188647  11.687  13.403   3.594
28936SOL    HW288648  11.745  13.267   3.626
28937SOL     OW88649  10.445  13.787   4.136
28937SOL    HW188650  10.434  13.797   4.230
28937SOL    HW288651  10.445  13.876   4.102
28938SOL     OW88652  13.336  11.755   8.111
28938SOL    HW188653  13.365  11.741   8.201
28938SOL    HW288654  13.344  11.850   8.098
28939SOL     OW88655   2.417   2.928   3.348
28939SOL    HW188656   2.394   2.862   3.413
28939SOL    HW288657   2.336   2.975   3.331
28940SOL     OW88658   8.129   5.887   0.178
28940SOL    HW188659   8.221   5.907   0.196
28940SOL    HW288660   8.097   5.846   0.258
28941SOL     OW88661   0.003  11.075   7.882
28941SOL    HW188662  14.863  11.079   7.976
28941SOL    HW288663  14.809  11.014   7.850
28942SOL     OW88664  14.708   3.623   7.503
28942SOL    HW188665  14.800   3.637   7.526
28942SOL    HW288666  14.704   3.531   7.478
28943SOL     OW88667  14.113   7.468  11.115
28943SOL    HW188668  14.062   7.437  11.190
28943SOL    HW288669  14.114   7.394  11.055
28944SOL     OW88670   8.986   4.337   9.060
28944SOL    HW188671   8.968   4.390   8.982
28944SOL    HW288672   8.970   4.247   9.032
28945SOL     OW88673   5.374   9.497   2.283
28945SOL    HW188674   5.355   9.480   2.376
28945SOL    HW288675   5.432   9.572   2.284
28946SOL     OW88676   4.765   4.764   3.890
28946SOL    HW188677   4.703   4.702   3.927
28946SOL    HW288678   4.780   4.828   3.960
28947SOL     OW88679  12.661  11.601   1.528
28947SOL    HW188680  12.663  11.687   1.570
28947SOL    HW288681  12.587  11.556   1.568
28948SOL     OW88682  10.306   5.942   2.964
28948SOL    HW188683  10.325   6.035   2.978
28948SOL    HW288684  10.234   5.922   3.024
28949SOL     OW88685   0.881  12.121   8.141
28949SOL    HW188686   0.897  12.042   8.089
28949SOL    HW288687   0.960  12.175   8.127
28950SOL     OW88688   8.604   5.565   0.839
28950SOL    HW188689   8.569   5.563   0.928
28950SOL    HW288690   8.534   5.529   0.785
28951SOL     OW88691  10.954   0.038   3.854
28951SOL    HW188692  11.021   0.039   3.922
28951SOL    HW288693  10.964  14.826   3.812
28952SOL     OW88694   2.024   7.860   5.885
28952SOL    HW188695   2.025   7.950   5.918
28952SOL    HW288696   1.932   7.842   5.868
28953SOL     OW88697   7.203   6.208   5.650
28953SOL    HW188698   7.162   6.123   5.633
28953SOL    HW288699   7.130   6.269   5.657
28954SOL     OW88700   2.139  12.802   4.721
28954SOL    HW188701   2.153  12.838   4.633
28954SOL    HW288702   2.202  12.849   4.776
28955SOL     OW88703   2.443  11.039   8.510
28955SOL    HW188704   2.424  10.951   8.477
28955SOL    HW288705   2.374  11.056   8.573
28956SOL     OW88706   5.021   1.389   3.853
28956SOL    HW188707   5.079   1.324   3.893
28956SOL    HW288708   4.992   1.444   3.925
28957SOL     OW88709  10.301   0.089  13.174
28957SOL    HW188710  10.303   0.045  13.089
28957SOL    HW288711  10.336   0.025  13.235
28958SOL     OW88712  10.798   2.605   8.701
28958SOL    HW188713  10.787   2.688   8.653
28958SOL    HW288714  10.711   2.586   8.735
28959SOL     OW88715   5.580   3.181   5.061
28959SOL    HW188716   5.573   3.205   5.153
28959SOL    HW288717   5.575   3.085   5.060
28960SOL     OW88718  12.068   1.664  10.054
28960SOL    HW188719  12.159   1.635  10.051
28960SOL    HW288720  12.017   1.583  10.059
28961SOL     OW88721   6.211  12.497   1.845
28961SOL    HW188722   6.177  12.411   1.868
28961SOL    HW288723   6.160  12.558   1.897
28962SOL     OW88724   9.398   5.794   0.535
28962SOL    HW188725   9.399   5.699   0.527
28962SOL    HW288726   9.309   5.815   0.563
28963SOL     OW88727  10.854  10.380   8.495
28963SOL    HW188728  10.924  10.411   8.553
28963SOL    HW288729  10.778  10.370   8.551
28964SOL     OW88730   6.493  10.355   7.452
28964SOL    HW188731   6.514  10.442   7.486
28964SOL    HW288732   6.473  10.370   7.359
28965SOL     OW88733   9.625   1.268   2.933
28965SOL    HW188734   9.592   1.275   3.023
28965SOL    HW288735   9.664   1.181   2.928
28966SOL     OW88736   9.699   4.913   1.416
28966SOL    HW188737   9.620   4.921   1.363
28966SOL    HW288738   9.673   4.946   1.502
28967SOL     OW88739   1.545   5.047  11.527
28967SOL    HW188740   1.544   5.102  11.605
28967SOL    HW288741   1.539   4.957  11.561
28968SOL     OW88742   3.952   3.183  13.381
28968SOL    HW188743   3.889   3.179  13.453
28968SOL    HW288744   3.927   3.260  13.331
28969SOL     OW88745   9.148  13.659  10.613
28969SOL    HW188746   9.057  13.685  10.630
28969SOL    HW288747   9.144  13.612  10.529
28970SOL     OW88748  12.508  10.810  10.182
28970SOL    HW188749  12.550  10.724  10.184
28970SOL    HW288750  12.523  10.847  10.269
28971SOL     OW88751   0.203  14.861  12.937
28971SOL    HW188752   0.287  14.823  12.909
28971SOL    HW288753   0.226   0.077  12.964
28972SOL     OW88754  14.481  13.302  12.153
28972SOL    HW188755  14.410  13.341  12.204
28972SOL    HW288756  14.516  13.374  12.102
28973SOL     OW88757   8.978   5.527   5.221
28973SOL    HW188758   8.894   5.497   5.186
28973SOL    HW288759   8.955   5.593   5.286
28974SOL     OW88760   6.738   4.344  10.279
28974SOL    HW188761   6.782   4.370  10.361
28974SOL    HW288762   6.710   4.254  10.295
28975SOL     OW88763  11.546  14.679   1.577
28975SOL    HW188764  11.454  14.659   1.562
28975SOL    HW288765  11.545  14.748   1.644
28976SOL     OW88766   4.740  10.636   3.694
28976SOL    HW188767   4.792  10.620   3.772
28976SOL    HW288768   4.803  10.640   3.623
28977SOL     OW88769   1.678  14.115   6.708
28977SOL    HW188770   1.598  14.079   6.668
28977SOL    HW288771   1.660  14.115   6.802
28978SOL     OW88772  11.459  12.750  14.609
28978SOL    HW188773  11.372  12.712  14.617
28978SOL    HW288774  11.448  12.824  14.550
28979SOL     OW88775  11.310  11.662   4.747
28979SOL    HW188776  11.400  11.668   4.713
28979SOL    HW288777  11.296  11.744   4.792
28980SOL     OW88778  14.632   9.989   3.755
28980SOL    HW188779  14.542  10.010   3.727
28980SOL    HW288780  14.632  10.006   3.849
28981SOL     OW88781  11.718   5.939   7.358
28981SOL    HW188782  11.787   5.899   7.411
28981SOL    HW288783  11.655   5.869   7.343
28982SOL     OW88784   4.589  13.333   7.489
28982SOL    HW188785   4.552  13.383   7.562
28982SOL    HW288786   4.681  13.361   7.486
28983SOL     OW88787   1.506   7.741  12.412
28983SOL    HW188788   1.548   7.764  12.329
28983SOL    HW288789   1.426   7.696  12.386
28984SOL     OW88790  11.335  10.549   0.078
28984SOL    HW188791  11.289  10.471   0.110
28984SOL    HW288792  11.314  10.617   0.142
28985SOL     OW88793   8.785   0.110  14.038
28985SOL    HW188794   8.800   0.039  14.100
28985SOL    HW288795   8.840   0.182  14.070
28986SOL     OW88796  11.445   7.367   6.825
28986SOL    HW188797  11.389   7.442   6.847
28986SOL    HW288798  11.438   7.310   6.901
28987SOL     OW88799   9.439  10.109  11.588
28987SOL    HW188800   9.500  10.173  11.552
28987SOL    HW288801   9.487  10.065  11.658
28988SOL     OW88802   5.521   5.773   2.122
28988SOL    HW188803   5.548   5.730   2.041
28988SOL    HW288804   5.428   5.788   2.112
28989SOL     OW88805   4.431   8.162   0.104
28989SOL    HW188806   4.453   8.136   0.194
28989SOL    HW288807   4.420   8.257   0.109
28990SOL     OW88808   2.002  11.936   6.709
28990SOL    HW188809   1.925  11.890   6.676
28990SOL    HW288810   2.076  11.890   6.671
28991SOL     OW88811   0.328   0.441   6.465
28991SOL    HW188812   0.371   0.525   6.479
28991SOL    HW288813   0.238   0.463   6.440
28992SOL     OW88814   0.172   2.354  11.482
28992SOL    HW188815   0.128   2.397  11.409
28992SOL    HW288816   0.247   2.310  11.441
28993SOL     OW88817   4.196   4.673  10.338
28993SOL    HW188818   4.211   4.738  10.407
28993SOL    HW288819   4.214   4.589  10.379
28994SOL     OW88820   1.162   3.151   8.788
28994SOL    HW188821   1.151   3.173   8.695
28994SOL    HW288822   1.243   3.195   8.813
28995SOL     OW88823   1.293  10.675   9.165
28995SOL    HW188824   1.200  10.666   9.185
28995SOL    HW288825   1.324  10.745   9.222
28996SOL     OW88826   4.466   6.324  10.525
28996SOL    HW188827   4.509   6.249  10.565
28996SOL    HW288828   4.532   6.393  10.524
28997SOL     OW88829   8.656   9.818  12.724
28997SOL    HW188830   8.593   9.817  12.796
28997SOL    HW288831   8.741   9.830  12.766
28998SOL     OW88832   0.918  11.188   5.672
28998SOL    HW188833   0.987  11.180   5.739
28998SOL    HW288834   0.895  11.281   5.672
28999SOL     OW88835  14.018  11.062   8.364
28999SOL    HW188836  13.950  11.024   8.307
28999SOL    HW288837  13.979  11.059   8.452
29000SOL     OW88838  12.908   0.071  11.775
29000SOL    HW188839  12.891  14.851  11.789
29000SOL    HW288840  12.911   0.109  11.863
29001SOL     OW88841   7.051   8.911   9.624
29001SOL    HW188842   6.973   8.865   9.592
29001SOL    HW288843   7.121   8.846   9.618
29002SOL     OW88844  13.866   8.774   0.596
29002SOL    HW188845  13.887   8.685   0.622
29002SOL    HW288846  13.846   8.768   0.503
29003SOL     OW88847   8.302  10.795   7.792
29003SOL    HW188848   8.231  10.834   7.842
29003SOL    HW288849   8.372  10.781   7.855
29004SOL     OW88850   9.717  14.161   0.330
29004SOL    HW188851   9.728  14.161   0.235
29004SOL    HW288852   9.690  14.071   0.351
29005SOL     OW88853  12.855   4.186   7.554
29005SOL    HW188854  12.812   4.101   7.568
29005SOL    HW288855  12.945   4.172   7.584
29006SOL     OW88856   9.487   0.035  12.183
29006SOL    HW188857   9.417   0.056  12.245
29006SOL    HW288858   9.442   0.024  12.099
29007SOL     OW88859   7.069   8.412   2.255
29007SOL    HW188860   7.009   8.350   2.295
29007SOL    HW288861   7.122   8.360   2.194
29008SOL     OW88862  13.915   7.070   8.461
29008SOL    HW188863  13.893   7.160   8.436
29008SOL    HW288864  13.891   7.063   8.553
29009SOL     OW88865  14.782   0.242   6.328
29009SOL    HW188866  14.797   0.258   6.421
29009SOL    HW288867  14.724   0.166   6.326
29010SOL     OW88868   0.090   7.503   9.194
29010SOL    HW188869   0.097   7.549   9.277
29010SOL    HW288870   0.145   7.424   9.205
29011SOL     OW88871   0.924   6.702  14.237
29011SOL    HW188872   0.861   6.725  14.305
29011SOL    HW288873   0.872   6.696  14.157
29012SOL     OW88874   0.155   8.733   4.439
29012SOL    HW188875   0.229   8.698   4.389
29012SOL    HW288876   0.100   8.776   4.374
29013SOL     OW88877   6.097   3.600   1.624
29013SOL    HW188878   6.020   3.657   1.618
29013SOL    HW288879   6.164   3.656   1.665
29014SOL     OW88880   9.643   4.059  12.471
29014SOL    HW188881   9.608   4.034  12.385
29014SOL    HW288882   9.634   4.154  12.474
29015SOL     OW88883   4.366   3.255  11.966
29015SOL    HW188884   4.308   3.289  12.034
29015SOL    HW288885   4.312   3.194  11.916
29016SOL     OW88886  13.292   8.786   1.585
29016SOL    HW188887  13.368   8.729   1.580
29016SOL    HW288888  13.218   8.727   1.600
29017SOL     OW88889   4.726  14.414   5.079
29017SOL    HW188890   4.632  14.403   5.069
29017SOL    HW288891   4.739  14.509   5.074
29018SOL     OW88892  14.242   8.504   5.164
29018SOL    HW188893  14.307   8.466   5.222
29018SOL    HW288894  14.248   8.452   5.084
29019SOL     OW88895   8.663   5.288   6.688
29019SOL    HW188896   8.625   5.265   6.773
29019SOL    HW288897   8.699   5.375   6.700
29020SOL     OW88898  14.348  11.982  12.529
29020SOL    HW188899  14.349  11.965  12.435
29020SOL    HW288900  14.355  11.896  12.569
29021SOL     OW88901  13.771  11.493  12.174
29021SOL    HW188902  13.766  11.414  12.227
29021SOL    HW288903  13.731  11.561  12.227
29022SOL     OW88904   7.959   2.423  12.190
29022SOL    HW188905   7.866   2.420  12.170
29022SOL    HW288906   7.964   2.451  12.281
29023SOL     OW88907   8.777   4.308   2.284
29023SOL    HW188908   8.845   4.299   2.216
29023SOL    HW288909   8.695   4.290   2.238
29024SOL     OW88910   8.153   8.884  13.954
29024SOL    HW188911   8.132   8.978  13.951
29024SOL    HW288912   8.216   8.877  14.026
29025SOL     OW88913  11.623   2.282  14.708
29025SOL    HW188914  11.591   2.312  14.793
29025SOL    HW288915  11.559   2.217  14.680
29026SOL     OW88916  13.626  13.005   4.220
29026SOL    HW188917  13.681  13.008   4.142
29026SOL    HW288918  13.680  13.045   4.289
29027SOL     OW88919  12.037   7.583  10.538
29027SOL    HW188920  12.104   7.514  10.542
29027SOL    HW288921  12.043   7.616  10.449
29028SOL     OW88922   7.393   6.463  10.865
29028SOL    HW188923   7.363   6.377  10.836
29028SOL    HW288924   7.484   6.448  10.893
29029SOL     OW88925   2.798   3.114  13.472
29029SOL    HW188926   2.786   3.021  13.452
29029SOL    HW288927   2.733   3.132  13.539
29030SOL     OW88928   3.311  12.205   7.051
29030SOL    HW188929   3.242  12.142   7.073
29030SOL    HW288930   3.330  12.187   6.959
29031SOL     OW88931  12.257  12.684   3.848
29031SOL    HW188932  12.271  12.632   3.928
29031SOL    HW288933  12.169  12.719   3.858
29032SOL     OW88934   9.853   2.250  14.153
29032SOL    HW188935   9.794   2.237  14.079
29032SOL    HW288936   9.912   2.174  14.151
29033SOL     OW88937   2.827  10.786   3.275
29033SOL    HW188938   2.809  10.807   3.366
29033SOL    HW288939   2.814  10.692   3.269
29034SOL     OW88940  10.558  12.565  11.082
29034SOL    HW188941  10.603  12.612  11.153
29034SOL    HW288942  10.565  12.622  11.006
29035SOL     OW88943  12.764  12.780   3.754
29035SOL    HW188944  12.802  12.868   3.764
29035SOL    HW288945  12.751  12.771   3.660
29036SOL     OW88946  10.274  14.450   0.152
29036SOL    HW188947  10.274  14.413   0.240
29036SOL    HW288948  10.187  14.431   0.117
29037SOL     OW88949   0.932  14.687   5.526
29037SOL    HW188950   0.906  14.649   5.442
29037SOL    HW288951   1.027  14.695   5.521
29038SOL     OW88952  11.118   3.800   7.679
29038SOL    HW188953  11.206   3.804   7.717
29038SOL    HW288954  11.134   3.792   7.585
29039SOL     OW88955   0.375   6.701  11.379
29039SOL    HW188956   0.388   6.631  11.444
29039SOL    HW288957   0.463   6.734  11.362
29040SOL     OW88958   8.088   7.635   3.511
29040SOL    HW188959   8.102   7.583   3.591
29040SOL    HW288960   8.090   7.726   3.541
29041SOL     OW88961  12.655   9.513   8.499
29041SOL    HW188962  12.580   9.460   8.473
29041SOL    HW288963  12.646   9.594   8.449
29042SOL     OW88964   4.895   4.753  14.672
29042SOL    HW188965   4.851   4.796  14.599
29042SOL    HW288966   4.859   4.664  14.672
29043SOL     OW88967   8.126   8.804   7.987
29043SOL    HW188968   8.181   8.744   8.038
29043SOL    HW288969   8.186   8.874   7.961
29044SOL     OW88970  10.083  13.128   0.100
29044SOL    HW188971  10.057  13.051   0.049
29044SOL    HW288972  10.135  13.092   0.172
29045SOL     OW88973  10.811   6.786  11.278
29045SOL    HW188974  10.725   6.786  11.320
29045SOL    HW288975  10.801   6.846  11.204
29046SOL     OW88976   9.824   6.798  13.746
29046SOL    HW188977   9.817   6.768  13.837
29046SOL    HW288978   9.734   6.822  13.722
29047SOL     OW88979  10.609  11.471   9.983
29047SOL    HW188980  10.673  11.539   9.962
29047SOL    HW288981  10.527  11.518   9.996
29048SOL     OW88982  11.122   6.583  11.145
29048SOL    HW188983  11.148   6.580  11.053
29048SOL    HW288984  11.182   6.645  11.186
29049SOL     OW88985  12.376   0.249  13.292
29049SOL    HW188986  12.359   0.202  13.374
29049SOL    HW288987  12.464   0.222  13.266
29050SOL     OW88988   7.663   8.360   5.919
29050SOL    HW188989   7.661   8.291   5.986
29050SOL    HW288990   7.727   8.423   5.951
29051SOL     OW88991   4.536   4.016   6.301
29051SOL    HW188992   4.454   4.061   6.282
29051SOL    HW288993   4.516   3.923   6.291
29052SOL     OW88994   7.403  13.675   1.500
29052SOL    HW188995   7.375  13.599   1.551
29052SOL    HW288996   7.495  13.659   1.481
29053SOL     OW88997   7.331   1.998  11.665
29053SOL    HW188998   7.421   1.976  11.689
29053SOL    HW288999   7.329   2.094  11.665
29054SOL     OW89000  11.758   9.621   9.362
29054SOL    HW189001  11.850   9.625   9.337
29054SOL    HW289002  11.711   9.608   9.279
29055SOL     OW89003   5.588   0.360   5.568
29055SOL    HW189004   5.585   0.427   5.636
29055SOL    HW289005   5.681   0.350   5.548
29056SOL     OW89006   8.369  13.722   2.487
29056SOL    HW189007   8.316  13.800   2.468
29056SOL    HW289008   8.410  13.700   2.404
29057SOL     OW89009   1.506  10.386   8.215
29057SOL    HW189010   1.411  10.381   8.214
29057SOL    HW289011   1.529  10.447   8.145
29058SOL     OW89012  13.329   1.397   0.370
29058SOL    HW189013  13.325   1.388   0.275
29058SOL    HW289014  13.419   1.422   0.389
29059SOL     OW89015  12.901  12.787  14.125
29059SOL    HW189016  12.825  12.735  14.149
29059SOL    HW289017  12.950  12.732  14.064
29060SOL     OW89018   5.628   1.547  13.162
29060SOL    HW189019   5.596   1.637  13.154
29060SOL    HW289020   5.552   1.497  13.191
29061SOL     OW89021   5.289   4.861   8.426
29061SOL    HW189022   5.353   4.808   8.378
29061SOL    HW289023   5.211   4.861   8.369
29062SOL     OW89024  13.833  13.740   5.497
29062SOL    HW189025  13.857  13.826   5.533
29062SOL    HW289026  13.872  13.740   5.410
29063SOL     OW89027   9.073   7.991   3.323
29063SOL    HW189028   9.096   8.083   3.335
29063SOL    HW289029   9.026   7.989   3.239
29064SOL     OW89030   8.312   6.974  11.080
29064SOL    HW189031   8.362   6.893  11.090
29064SOL    HW289032   8.290   6.977  10.987
29065SOL     OW89033   0.665   0.614   3.797
29065SOL    HW189034   0.657   0.620   3.702
29065SOL    HW289035   0.623   0.532   3.820
29066SOL     OW89036   5.451   3.306   1.758
29066SOL    HW189037   5.527   3.250   1.745
29066SOL    HW289038   5.412   3.274   1.840
29067SOL     OW89039   3.523  13.960   7.368
29067SOL    HW189040   3.526  14.016   7.289
29067SOL    HW289041   3.489  13.876   7.336
29068SOL     OW89042   0.128   4.853  13.246
29068SOL    HW189043   0.078   4.830  13.167
29068SOL    HW289044   0.207   4.799  13.241
29069SOL     OW89045   6.948  11.721   0.011
29069SOL    HW189046   6.943  11.802  14.835
29069SOL    HW289047   7.036  11.722   0.049
29070SOL     OW89048   5.801   2.558   0.710
29070SOL    HW189049   5.843   2.559   0.623
29070SOL    HW289050   5.851   2.492   0.759
29071SOL     OW89051  14.744  14.684  10.796
29071SOL    HW189052  14.782  14.743  10.861
29071SOL    HW289053  14.740  14.736  10.716
29072SOL     OW89054   2.387  13.542   3.353
29072SOL    HW189055   2.438  13.618   3.324
29072SOL    HW289056   2.356  13.502   3.272
29073SOL     OW89057   1.088   4.089   3.784
29073SOL    HW189058   1.039   4.162   3.747
29073SOL    HW289059   1.174   4.095   3.743
29074SOL     OW89060  11.920   7.387   3.903
29074SOL    HW189061  11.852   7.337   3.949
29074SOL    HW289062  11.872   7.458   3.860
29075SOL     OW89063   3.387  12.602   4.176
29075SOL    HW189064   3.470  12.555   4.185
29075SOL    HW289065   3.360  12.619   4.266
29076SOL     OW89066  14.807   7.109   8.958
29076SOL    HW189067   0.007   7.096   9.019
29076SOL    HW289068  14.806   7.204   8.941
29077SOL     OW89069  12.963   8.477  14.760
29077SOL    HW189070  12.924   8.530  14.829
29077SOL    HW289071  12.900   8.483  14.687
29078SOL     OW89072   8.000   0.435  10.112
29078SOL    HW189073   8.095   0.437  10.119
29078SOL    HW289074   7.983   0.456  10.020
29079SOL     OW89075   9.455   8.472   2.793
29079SOL    HW189076   9.410   8.515   2.721
29079SOL    HW289077   9.464   8.381   2.765
29080SOL     OW89078   7.381  11.378   2.264
29080SOL    HW189079   7.360  11.453   2.320
29080SOL    HW289080   7.476  11.375   2.262
29081SOL     OW89081  14.807   0.747  11.059
29081SOL    HW189082  14.806   0.735  11.154
29081SOL    HW289083  14.756   0.827  11.045
29082SOL     OW89084   5.373   7.238   3.632
29082SOL    HW189085   5.353   7.146   3.652
29082SOL    HW289086   5.308   7.288   3.682
29083SOL     OW89087   3.972   0.360   9.191
29083SOL    HW189088   3.911   0.384   9.261
29083SOL    HW289089   4.047   0.418   9.203
29084SOL     OW89090  11.940   1.728   6.702
29084SOL    HW189091  12.019   1.697   6.657
29084SOL    HW289092  11.926   1.816   6.669
29085SOL     OW89093  12.319   6.471  13.719
29085SOL    HW189094  12.380   6.491  13.791
29085SOL    HW289095  12.363   6.506  13.641
29086SOL     OW89096   0.719   8.154  12.197
29086SOL    HW189097   0.778   8.133  12.269
29086SOL    HW289098   0.664   8.225  12.230
29087SOL     OW89099  10.242   5.613   9.815
29087SOL    HW189100  10.150   5.604   9.788
29087SOL    HW289101  10.237   5.617   9.911
29088SOL     OW89102   8.416   9.214   1.824
29088SOL    HW189103   8.338   9.160   1.835
29088SOL    HW289104   8.382   9.298   1.793
29089SOL     OW89105  14.005   4.933  10.297
29089SOL    HW189106  13.921   4.977  10.283
29089SOL    HW289107  13.982   4.841  10.309
29090SOL     OW89108   4.283  11.315   9.688
29090SOL    HW189109   4.320  11.227   9.690
29090SOL    HW289110   4.345  11.368   9.738
29091SOL     OW89111   5.499   0.307   9.594
29091SOL    HW189112   5.504   0.402   9.604
29091SOL    HW289113   5.407   0.287   9.610
29092SOL     OW89114   6.191   9.965  13.229
29092SOL    HW189115   6.234  10.008  13.155
29092SOL    HW289116   6.199   9.872  13.210
29093SOL     OW89117   2.904  12.300   6.472
29093SOL    HW189118   2.842  12.358   6.426
29093SOL    HW289119   2.848  12.235   6.515
29094SOL     OW89120   0.367   9.219  10.110
29094SOL    HW189121   0.380   9.254  10.198
29094SOL    HW289122   0.280   9.178  10.113
29095SOL     OW89123   7.967   0.963  11.198
29095SOL    HW189124   7.886   0.930  11.157
29095SOL    HW289125   7.940   1.042  11.244
29096SOL     OW89126   6.791   4.196   8.415
29096SOL    HW189127   6.838   4.129   8.366
29096SOL    HW289128   6.859   4.239   8.468
29097SOL     OW89129   2.894   8.853   3.147
29097SOL    HW189130   2.821   8.847   3.208
29097SOL    HW289131   2.947   8.775   3.165
29098SOL     OW89132  12.009   1.064   1.729
29098SOL    HW189133  12.022   0.980   1.686
29098SOL    HW289134  11.917   1.086   1.711
29099SOL     OW89135  13.158   2.822   1.462
29099SOL    HW189136  13.144   2.737   1.504
29099SOL    HW289137  13.127   2.809   1.373
29100SOL     OW89138  12.187   0.898   3.279
29100SOL    HW189139  12.270   0.874   3.238
29100SOL    HW289140  12.204   0.892   3.373
29101SOL     OW89141  13.266   8.598  10.879
29101SOL    HW189142  13.204   8.546  10.929
29101SOL    HW289143  13.264   8.560  10.791
29102SOL     OW89144  10.317   9.508   5.571
29102SOL    HW189145  10.374   9.436   5.599
29102SOL    HW289146  10.245   9.507   5.634
29103SOL     OW89147   0.051   2.703   0.703
29103SOL    HW189148   0.129   2.740   0.662
29103SOL    HW289149   0.017   2.773   0.759
29104SOL     OW89150   8.233   7.118   9.394
29104SOL    HW189151   8.323   7.138   9.420
29104SOL    HW289152   8.211   7.185   9.330
29105SOL     OW89153   2.473   9.700   2.379
29105SOL    HW189154   2.483   9.776   2.436
29105SOL    HW289155   2.526   9.720   2.302
29106SOL     OW89156   3.052   3.012  12.816
29106SOL    HW189157   3.012   3.025  12.730
29106SOL    HW289158   3.041   2.919  12.834
29107SOL     OW89159   7.988  11.604   8.680
29107SOL    HW189160   8.067  11.600   8.733
29107SOL    HW289161   8.011  11.664   8.608
29108SOL     OW89162   4.910   9.489  11.760
29108SOL    HW189163   4.893   9.406  11.804
29108SOL    HW289164   4.920   9.465  11.668
29109SOL     OW89165  14.777   6.299  13.113
29109SOL    HW189166  14.776   6.340  13.199
29109SOL    HW289167  14.866   6.267  13.102
29110SOL     OW89168   4.994  13.094   6.184
29110SOL    HW189169   4.993  13.085   6.089
29110SOL    HW289170   5.010  13.006   6.217
29111SOL     OW89171   0.529  11.893   4.627
29111SOL    HW189172   0.479  11.921   4.703
29111SOL    HW289173   0.489  11.939   4.553
29112SOL     OW89174  11.642  11.918   6.162
29112SOL    HW189175  11.644  11.997   6.109
29112SOL    HW289176  11.733  11.886   6.161
29113SOL     OW89177   7.717   4.228   7.019
29113SOL    HW189178   7.705   4.133   7.014
29113SOL    HW289179   7.789   4.246   6.959
29114SOL     OW89180   0.995   8.170   8.136
29114SOL    HW189181   0.929   8.101   8.141
29114SOL    HW289182   1.072   8.126   8.099
29115SOL     OW89183  10.569   6.643   9.468
29115SOL    HW189184  10.569   6.548   9.483
29115SOL    HW289185  10.477   6.667   9.466
29116SOL     OW89186   2.497   4.479   2.327
29116SOL    HW189187   2.577   4.511   2.366
29116SOL    HW289188   2.508   4.384   2.323
29117SOL     OW89189   4.192   4.899   2.395
29117SOL    HW189190   4.098   4.885   2.383
29117SOL    HW289191   4.212   4.852   2.476
29118SOL     OW89192   3.302  10.376   1.578
29118SOL    HW189193   3.243  10.374   1.503
29118SOL    HW289194   3.303  10.468   1.605
29119SOL     OW89195   4.643   6.618   3.236
29119SOL    HW189196   4.559   6.642   3.197
29119SOL    HW289197   4.704   6.618   3.162
29120SOL     OW89198  12.975   4.117   1.605
29120SOL    HW189199  12.966   4.112   1.510
29120SOL    HW289200  13.063   4.153   1.618
29121SOL     OW89201   2.503   3.130   4.461
29121SOL    HW189202   2.596   3.142   4.441
29121SOL    HW289203   2.500   3.047   4.510
29122SOL     OW89204   8.145   4.825  10.956
29122SOL    HW189205   8.052   4.811  10.939
29122SOL    HW289206   8.172   4.891  10.892
29123SOL     OW89207   0.838  12.150  10.505
29123SOL    HW189208   0.896  12.218  10.539
29123SOL    HW289209   0.758  12.159  10.555
29124SOL     OW89210   9.065   5.590  11.416
29124SOL    HW189211   9.000   5.601  11.486
29124SOL    HW289212   9.090   5.498  11.421
29125SOL     OW89213   3.252  14.494   2.219
29125SOL    HW189214   3.232  14.403   2.198
29125SOL    HW289215   3.347  14.498   2.219
29126SOL     OW89216   3.831   5.648   1.909
29126SOL    HW189217   3.800   5.653   1.819
29126SOL    HW289218   3.823   5.555   1.932
29127SOL     OW89219  13.263   3.419  14.018
29127SOL    HW189220  13.290   3.507  14.044
29127SOL    HW289221  13.299   3.408  13.930
29128SOL     OW89222  12.706  13.586   1.280
29128SOL    HW189223  12.637  13.555   1.339
29128SOL    HW289224  12.666  13.658   1.232
29129SOL     OW89225   1.788  12.424   9.575
29129SOL    HW189226   1.828  12.436   9.661
29129SOL    HW289227   1.727  12.497   9.566
29130SOL     OW89228   5.941   0.330  14.282
29130SOL    HW189229   5.976   0.243  14.263
29130SOL    HW289230   6.002   0.366  14.347
29131SOL     OW89231   3.729   0.543  14.555
29131SOL    HW189232   3.762   0.633  14.553
29131SOL    HW289233   3.793   0.494  14.503
29132SOL     OW89234   6.838  12.145  12.687
29132SOL    HW189235   6.776  12.080  12.722
29132SOL    HW289236   6.783  12.218  12.658
29133SOL     OW89237   9.733   9.327   0.372
29133SOL    HW189238   9.816   9.313   0.326
29133SOL    HW289239   9.710   9.241   0.407
29134SOL     OW89240   0.223  12.133  12.120
29134SOL    HW189241   0.269  12.172  12.046
29134SOL    HW289242   0.282  12.148  12.195
29135SOL     OW89243   2.860   1.613   7.670
29135SOL    HW189244   2.794   1.593   7.737
29135SOL    HW289245   2.942   1.580   7.706
29136SOL     OW89246   5.561   7.539  12.186
29136SOL    HW189247   5.572   7.465  12.245
29136SOL    HW289248   5.626   7.603  12.214
29137SOL     OW89249   8.133  10.319   1.150
29137SOL    HW189250   8.160  10.391   1.094
29137SOL    HW289251   8.194  10.320   1.223
29138SOL     OW89252  12.192  10.186   3.803
29138SOL    HW189253  12.149  10.113   3.847
29138SOL    HW289254  12.151  10.264   3.839
29139SOL     OW89255  13.459   7.545   4.600
29139SOL    HW189256  13.504   7.554   4.515
29139SOL    HW289257  13.445   7.451   4.610
29140SOL     OW89258   7.909   6.955   7.665
29140SOL    HW189259   7.831   7.010   7.670
29140SOL    HW289260   7.978   7.014   7.635
29141SOL     OW89261   8.036   3.455   2.487
29141SOL    HW189262   8.043   3.534   2.541
29141SOL    HW289263   7.977   3.398   2.537
29142SOL     OW89264  10.263   2.543  11.390
29142SOL    HW189265  10.249   2.598  11.467
29142SOL    HW289266  10.287   2.457  11.425
29143SOL     OW89267   6.053  11.991   2.599
29143SOL    HW189268   6.135  12.040   2.606
29143SOL    HW289269   6.077  11.913   2.549
29144SOL     OW89270   4.471   5.273   3.530
29144SOL    HW189271   4.485   5.222   3.450
29144SOL    HW289272   4.433   5.210   3.592
29145SOL     OW89273  14.199   3.460   9.872
29145SOL    HW189274  14.265   3.457   9.803
29145SOL    HW289275  14.246   3.440   9.953
29146SOL     OW89276   9.362   2.799   5.740
29146SOL    HW189277   9.295   2.742   5.779
29146SOL    HW289278   9.358   2.879   5.793
29147SOL     OW89279  13.036   4.165  13.919
29147SOL    HW189280  13.041   4.071  13.900
29147SOL    HW289281  12.948   4.190  13.890
29148SOL     OW89282   7.597   0.511   7.420
29148SOL    HW189283   7.627   0.557   7.342
29148SOL    HW289284   7.507   0.542   7.433
29149SOL     OW89285   7.770   6.500  11.554
29149SOL    HW189286   7.834   6.552  11.602
29149SOL    HW289287   7.822   6.446  11.494
29150SOL     OW89288   3.203  12.424   4.407
29150SOL    HW189289   3.220  12.508   4.364
29150SOL    HW289290   3.111  12.428   4.431
29151SOL     OW89291  12.195   0.022   6.311
29151SOL    HW189292  12.165   0.112   6.299
29151SOL    HW289293  12.215  14.865   6.222
29152SOL     OW89294   7.820   0.170  13.290
29152SOL    HW189295   7.731   0.203  13.275
29152SOL    HW289296   7.817   0.080  13.257
29153SOL     OW89297   4.116   3.826   8.190
29153SOL    HW189298   4.193   3.811   8.245
29153SOL    HW289299   4.149   3.877   8.116
29154SOL     OW89300   0.204  11.621   6.103
29154SOL    HW189301   0.153  11.638   6.183
29154SOL    HW289302   0.187  11.529   6.084
29155SOL     OW89303   9.200   4.642  11.882
29155SOL    HW189304   9.293   4.658  11.899
29155SOL    HW289305   9.199   4.567  11.821
29156SOL     OW89306   3.717  12.322   5.146
29156SOL    HW189307   3.647  12.271   5.187
29156SOL    HW289308   3.788  12.320   5.210
29157SOL     OW89309  10.240  12.765  13.397
29157SOL    HW189310  10.256  12.672  13.414
29157SOL    HW289311  10.147  12.770  13.377
29158SOL     OW89312   6.639   1.149   9.466
29158SOL    HW189313   6.728   1.173   9.439
29158SOL    HW289314   6.648   1.123   9.558
29159SOL     OW89315  10.586  12.526   8.033
29159SOL    HW189316  10.573  12.489   7.945
29159SOL    HW289317  10.674  12.562   8.031
29160SOL     OW89318  11.655   0.453   9.876
29160SOL    HW189319  11.651   0.542   9.911
29160SOL    HW289320  11.574   0.444   9.825
29161SOL     OW89321  12.743   0.576  12.172
29161SOL    HW189322  12.827   0.581  12.218
29161SOL    HW289323  12.702   0.497  12.205
29162SOL     OW89324   2.294   0.661   8.607
29162SOL    HW189325   2.387   0.682   8.604
29162SOL    HW289326   2.291   0.575   8.651
29163SOL     OW89327   3.038   6.974   3.073
29163SOL    HW189328   3.008   6.890   3.038
29163SOL    HW289329   2.995   7.040   3.018
29164SOL     OW89330  13.533   3.708   9.891
29164SOL    HW189331  13.567   3.619   9.906
29164SOL    HW289332  13.461   3.717   9.954
29165SOL     OW89333   4.693   9.596   9.491
29165SOL    HW189334   4.730   9.509   9.475
29165SOL    HW289335   4.716   9.616   9.581
29166SOL     OW89336   5.409   1.258   5.605
29166SOL    HW189337   5.495   1.296   5.591
29166SOL    HW289338   5.353   1.299   5.539
29167SOL     OW89339   0.256  13.493  13.324
29167SOL    HW189340   0.174  13.456  13.289
29167SOL    HW289341   0.302  13.526  13.248
29168SOL     OW89342   2.478   6.013  11.675
29168SOL    HW189343   2.468   6.039  11.767
29168SOL    HW289344   2.550   5.950  11.675
29169SOL     OW89345   0.057  10.606  10.672
29169SOL    HW189346  14.870  10.678  10.653
29169SOL    HW289347   0.128  10.616  10.609
29170SOL     OW89348   8.873   3.059   1.505
29170SOL    HW189349   8.816   3.133   1.529
29170SOL    HW289350   8.830   3.020   1.429
29171SOL     OW89351   9.443   5.237   9.661
29171SOL    HW189352   9.498   5.160   9.652
29171SOL    HW289353   9.412   5.234   9.752
29172SOL     OW89354   5.434   3.400   4.561
29172SOL    HW189355   5.414   3.487   4.525
29172SOL    HW289356   5.493   3.360   4.498
29173SOL     OW89357   6.772  11.968   5.252
29173SOL    HW189358   6.693  11.929   5.292
29173SOL    HW289359   6.753  11.969   5.158
29174SOL     OW89360   8.158   6.616  13.626
29174SOL    HW189361   8.101   6.659  13.689
29174SOL    HW289362   8.239   6.599  13.674
29175SOL     OW89363   2.695   0.449  13.614
29175SOL    HW189364   2.714   0.501  13.692
29175SOL    HW289365   2.645   0.374  13.648
29176SOL     OW89366   2.194   5.097   5.136
29176SOL    HW189367   2.125   5.077   5.199
29176SOL    HW289368   2.162   5.173   5.088
29177SOL     OW89369   7.129   2.055   2.240
29177SOL    HW189370   7.051   2.010   2.209
29177SOL    HW289371   7.189   1.985   2.266
29178SOL     OW89372  12.994   7.368  14.839
29178SOL    HW189373  12.972   7.280  14.870
29178SOL    HW289374  13.075   7.391   0.013
29179SOL     OW89375   6.462   0.810   2.133
29179SOL    HW189376   6.458   0.748   2.061
29179SOL    HW289377   6.391   0.783   2.192
29180SOL     OW89378   7.764   3.313   8.113
29180SOL    HW189379   7.695   3.268   8.065
29180SOL    HW289380   7.845   3.274   8.080
29181SOL     OW89381   6.008   1.806   6.320
29181SOL    HW189382   5.985   1.778   6.408
29181SOL    HW289383   5.947   1.877   6.300
29182SOL     OW89384   7.406   1.791  10.640
29182SOL    HW189385   7.367   1.720  10.590
29182SOL    HW289386   7.404   1.866  10.581
29183SOL     OW89387  11.118  10.660   3.204
29183SOL    HW189388  11.185  10.699   3.148
29183SOL    HW289389  11.058  10.733   3.223
29184SOL     OW89390  12.770  14.395   7.593
29184SOL    HW189391  12.825  14.333   7.544
29184SOL    HW289392  12.691  14.403   7.540
29185SOL     OW89393  14.089   2.488   7.421
29185SOL    HW189394  14.060   2.579   7.420
29185SOL    HW289395  14.164   2.487   7.480
29186SOL     OW89396   0.920   3.122   3.122
29186SOL    HW189397   0.953   3.107   3.033
29186SOL    HW289398   0.992   3.096   3.179
29187SOL     OW89399   4.156   9.356   8.847
29187SOL    HW189400   4.248   9.381   8.860
29187SOL    HW289401   4.148   9.270   8.886
29188SOL     OW89402   5.502   6.710  12.456
29188SOL    HW189403   5.451   6.787  12.429
29188SOL    HW289404   5.565   6.744  12.519
29189SOL     OW89405   0.151   2.052   4.773
29189SOL    HW189406   0.065   2.095   4.783
29189SOL    HW289407   0.136   1.962   4.802
29190SOL     OW89408   8.861   8.278  10.039
29190SOL    HW189409   8.797   8.333  10.085
29190SOL    HW289410   8.810   8.233   9.972
29191SOL     OW89411   5.684   4.414   3.876
29191SOL    HW189412   5.644   4.367   3.804
29191SOL    HW289413   5.727   4.346   3.928
29192SOL     OW89414   9.206   5.214   7.646
29192SOL    HW189415   9.214   5.262   7.564
29192SOL    HW289416   9.248   5.130   7.629
29193SOL     OW89417   7.197   7.927   9.450
29193SOL    HW189418   7.229   7.956   9.365
29193SOL    HW289419   7.254   7.970   9.514
29194SOL     OW89420   7.932  12.571   7.636
29194SOL    HW189421   7.967  12.503   7.578
29194SOL    HW289422   7.851  12.533   7.671
29195SOL     OW89423   5.271   4.329  12.976
29195SOL    HW189424   5.221   4.395  13.024
29195SOL    HW289425   5.210   4.296  12.910
29196SOL     OW89426   9.845  12.040   1.577
29196SOL    HW189427   9.890  11.992   1.647
29196SOL    HW289428   9.915  12.066   1.517
29197SOL     OW89429  11.496   3.854   4.857
29197SOL    HW189430  11.441   3.885   4.785
29197SOL    HW289431  11.434   3.815   4.919
29198SOL     OW89432  14.456  14.584   4.440
29198SOL    HW189433  14.410  14.652   4.390
29198SOL    HW289434  14.435  14.503   4.394
29199SOL     OW89435  10.710   5.575  13.704
29199SOL    HW189436  10.732   5.482  13.702
29199SOL    HW289437  10.690   5.594  13.795
29200SOL     OW89438  12.392  14.219   1.606
29200SOL    HW189439  12.459  14.152   1.616
29200SOL    HW289440  12.425  14.276   1.536
29201SOL     OW89441   7.177   2.128   9.393
29201SOL    HW189442   7.198   2.161   9.481
29201SOL    HW289443   7.222   2.189   9.334
29202SOL     OW89444  14.416   5.566   3.923
29202SOL    HW189445  14.502   5.536   3.894
29202SOL    HW289446  14.432   5.655   3.954
29203SOL     OW89447  13.571   8.195   6.632
29203SOL    HW189448  13.522   8.274   6.609
29203SOL    HW289449  13.503   8.129   6.647
29204SOL     OW89450   6.894   3.229   6.718
29204SOL    HW189451   6.825   3.170   6.689
29204SOL    HW289452   6.917   3.280   6.640
29205SOL     OW89453  11.793  11.992  11.034
29205SOL    HW189454  11.764  12.083  11.043
29205SOL    HW289455  11.778  11.971  10.942
29206SOL     OW89456   7.066   2.715  11.095
29206SOL    HW189457   7.103   2.759  11.019
29206SOL    HW289458   7.142   2.695  11.150
29207SOL     OW89459   8.699   8.511  10.155
29207SOL    HW189460   8.716   8.578  10.221
29207SOL    HW289461   8.615   8.473  10.179
29208SOL     OW89462   6.489  13.161   9.117
29208SOL    HW189463   6.567  13.176   9.063
29208SOL    HW289464   6.441  13.093   9.071
29209SOL     OW89465   7.597  13.512   8.560
29209SOL    HW189466   7.633  13.600   8.567
29209SOL    HW289467   7.513  13.516   8.606
29210SOL     OW89468  13.918  12.304  12.399
29210SOL    HW189469  13.840  12.251  12.410
29210SOL    HW289470  13.981  12.266  12.461
29211SOL     OW89471  14.222   3.327  10.839
29211SOL    HW189472  14.261   3.253  10.791
29211SOL    HW289473  14.187   3.384  10.771
29212SOL     OW89474  12.937   9.772   4.970
29212SOL    HW189475  12.894   9.690   4.990
29212SOL    HW289476  12.871   9.823   4.922
29213SOL     OW89477   0.738  13.507   9.375
29213SOL    HW189478   0.810  13.463   9.329
29213SOL    HW289479   0.780  13.571   9.431
29214SOL     OW89480   9.895  12.124   8.685
29214SOL    HW189481   9.820  12.102   8.740
29214SOL    HW289482   9.876  12.213   8.653
29215SOL     OW89483   0.639   7.210  14.426
29215SOL    HW189484   0.601   7.295  14.406
29215SOL    HW289485   0.695   7.225  14.502
29216SOL     OW89486   0.793   5.850  10.870
29216SOL    HW189487   0.867   5.793  10.891
29216SOL    HW289488   0.797   5.920  10.935
29217SOL     OW89489   1.377   4.375   8.329
29217SOL    HW189490   1.419   4.401   8.247
29217SOL    HW289491   1.370   4.456   8.379
29218SOL     OW89492   6.852   9.654   5.782
29218SOL    HW189493   6.927   9.648   5.841
29218SOL    HW289494   6.869   9.586   5.716
29219SOL     OW89495  14.415   9.919   5.021
29219SOL    HW189496  14.339   9.937   5.078
29219SOL    HW289497  14.469   9.858   5.072
29220SOL     OW89498  10.560   5.639   6.161
29220SOL    HW189499  10.526   5.693   6.089
29220SOL    HW289500  10.651   5.665   6.170
29221SOL     OW89501  13.447   0.050   6.502
29221SOL    HW189502  13.527   0.078   6.546
29221SOL    HW289503  13.386   0.028   6.573
29222SOL     OW89504  14.166   0.767  14.398
29222SOL    HW189505  14.225   0.770  14.323
29222SOL    HW289506  14.110   0.690  14.382
29223SOL     OW89507   0.675   1.250  11.259
29223SOL    HW189508   0.708   1.161  11.267
29223SOL    HW289509   0.588   1.247  11.300
29224SOL     OW89510  14.255   7.659  13.528
29224SOL    HW189511  14.203   7.592  13.485
29224SOL    HW289512  14.194   7.732  13.542
29225SOL     OW89513  11.214  10.002  10.140
29225SOL    HW189514  11.176   9.990  10.053
29225SOL    HW289515  11.252  10.089  10.138
29226SOL     OW89516  12.936   0.110  12.229
29226SOL    HW189517  12.842   0.105  12.212
29226SOL    HW289518  12.952   0.203  12.244
29227SOL     OW89519  12.451  14.168  13.538
29227SOL    HW189520  12.397  14.134  13.467
29227SOL    HW289521  12.536  14.187  13.498
29228SOL     OW89522  13.262   1.122   4.310
29228SOL    HW189523  13.306   1.120   4.395
29228SOL    HW289524  13.300   1.049   4.261
29229SOL     OW89525   2.285   5.610   7.636
29229SOL    HW189526   2.365   5.648   7.598
29229SOL    HW289527   2.259   5.542   7.574
29230SOL     OW89528  11.023  13.705  13.634
29230SOL    HW189529  11.051  13.782  13.584
29230SOL    HW289530  11.051  13.630  13.582
29231SOL     OW89531   5.146   2.286   5.178
29231SOL    HW189532   5.235   2.302   5.146
29231SOL    HW289533   5.105   2.232   5.111
29232SOL     OW89534  11.479   7.948  10.955
29232SOL    HW189535  11.562   7.964  10.910
29232SOL    HW289536  11.432   8.032  10.949
29233SOL     OW89537   1.400   6.669   9.409
29233SOL    HW189538   1.447   6.703   9.485
29233SOL    HW289539   1.433   6.721   9.335
29234SOL     OW89540   4.419   0.128   1.682
29234SOL    HW189541   4.513   0.132   1.665
29234SOL    HW289542   4.385   0.211   1.648
29235SOL     OW89543  12.991   7.374  12.193
29235SOL    HW189544  12.986   7.288  12.151
29235SOL    HW289545  12.904   7.411  12.181
29236SOL     OW89546  14.308   4.025   3.058
29236SOL    HW189547  14.214   4.029   3.074
29236SOL    HW289548  14.338   4.115   3.067
29237SOL     OW89549  13.642  10.348   5.186
29237SOL    HW189550  13.733  10.374   5.170
29237SOL    HW289551  13.647  10.293   5.265
29238SOL     OW89552   3.855  13.643  11.395
29238SOL    HW189553   3.923  13.576  11.402
29238SOL    HW289554   3.834  13.665  11.485
29239SOL     OW89555   1.663   0.230  14.440
29239SOL    HW189556   1.728   0.164  14.463
29239SOL    HW289557   1.595   0.221  14.507
29240SOL     OW89558   1.034  12.120   4.543
29240SOL    HW189559   0.947  12.106   4.505
29240SOL    HW289560   1.030  12.074   4.627
29241SOL     OW89561   9.470  12.879  12.005
29241SOL    HW189562   9.494  12.910  12.092
29241SOL    HW289563   9.421  12.799  12.020
29242SOL     OW89564  13.245   2.578   3.599
29242SOL    HW189565  13.194   2.653   3.631
29242SOL    HW289566  13.334   2.594   3.632
29243SOL     OW89567   4.912   9.862  14.314
29243SOL    HW189568   4.974   9.838  14.244
29243SOL    HW289569   4.950   9.939  14.354
29244SOL     OW89570   4.639  11.497   0.637
29244SOL    HW189571   4.678  11.570   0.590
29244SOL    HW289572   4.566  11.536   0.685
29245SOL     OW89573   2.186  13.475   4.631
29245SOL    HW189574   2.140  13.491   4.714
29245SOL    HW289575   2.124  13.502   4.564
29246SOL     OW89576  12.279   6.606   6.555
29246SOL    HW189577  12.222   6.530   6.539
29246SOL    HW289578  12.235   6.678   6.511
29247SOL     OW89579  10.692   3.960  14.853
29247SOL    HW189580  10.655   3.926   0.061
29247SOL    HW289581  10.615   3.989  14.803
29248SOL     OW89582   9.769  14.370  11.384
29248SOL    HW189583   9.824  14.348  11.309
29248SOL    HW289584   9.814  14.443  11.427
29249SOL     OW89585   9.998   8.588  12.945
29249SOL    HW189586   9.973   8.599  12.853
29249SOL    HW289587  10.039   8.501  12.948
29250SOL     OW89588   2.501   3.528   6.513
29250SOL    HW189589   2.571   3.466   6.534
29250SOL    HW289590   2.520   3.557   6.424
29251SOL     OW89591  14.139  11.728   8.211
29251SOL    HW189592  14.192  11.651   8.191
29251SOL    HW289593  14.049  11.700   8.191
29252SOL     OW89594   7.725   7.294   3.500
29252SOL    HW189595   7.770   7.376   3.480
29252SOL    HW289596   7.760   7.268   3.586
29253SOL     OW89597  12.247   1.947   6.311
29253SOL    HW189598  12.249   1.869   6.257
29253SOL    HW289599  12.310   1.931   6.381
29254SOL     OW89600  13.635   8.787   5.963
29254SOL    HW189601  13.568   8.830   6.015
29254SOL    HW289602  13.708   8.773   6.025
29255SOL     OW89603   1.450  14.798   8.485
29255SOL    HW189604   1.545  14.798   8.483
29255SOL    HW289605   1.427  14.844   8.566
29256SOL     OW89606   0.090   0.863   5.333
29256SOL    HW189607   0.032   0.931   5.367
29256SOL    HW289608   0.165   0.911   5.298
29257SOL     OW89609  10.835   0.359   8.644
29257SOL    HW189610  10.872   0.273   8.662
29257SOL    HW289611  10.741   0.343   8.632
29258SOL     OW89612   2.937   6.715  13.586
29258SOL    HW189613   2.994   6.741  13.658
29258SOL    HW289614   2.874   6.655  13.625
29259SOL     OW89615   4.482   2.426  10.563
29259SOL    HW189616   4.462   2.442  10.471
29259SOL    HW289617   4.415   2.475  10.611
29260SOL     OW89618  14.268   8.573   8.199
29260SOL    HW189619  14.192   8.624   8.227
29260SOL    HW289620  14.340   8.605   8.253
29261SOL     OW89621   4.166  14.853  12.015
29261SOL    HW189622   4.086  14.810  11.985
29261SOL    HW289623   4.236  14.793  11.989
29262SOL     OW89624   9.610  10.703   9.988
29262SOL    HW189625   9.615  10.681  10.081
29262SOL    HW289626   9.612  10.798   9.985
29263SOL     OW89627   4.658  13.288   2.779
29263SOL    HW189628   4.584  13.228   2.766
29263SOL    HW289629   4.668  13.292   2.874
29264SOL     OW89630   5.424   4.531   9.784
29264SOL    HW189631   5.431   4.608   9.840
29264SOL    HW289632   5.445   4.563   9.696
29265SOL     OW89633  12.985  12.822  13.717
29265SOL    HW189634  13.046  12.853  13.651
29265SOL    HW289635  12.952  12.739  13.682
29266SOL     OW89636   9.752   1.228   6.070
29266SOL    HW189637   9.718   1.237   6.159
29266SOL    HW289638   9.693   1.165   6.028
29267SOL     OW89639  11.397   0.043   9.841
29267SOL    HW189640  11.488   0.053   9.870
29267SOL    HW289641  11.359   0.130   9.851
29268SOL     OW89642  13.179   4.335  12.726
29268SOL    HW189643  13.170   4.410  12.785
29268SOL    HW289644  13.169   4.371  12.638
29269SOL     OW89645   7.821   9.988   1.284
29269SOL    HW189646   7.844   9.969   1.193
29269SOL    HW289647   7.842   9.907   1.331
29270SOL     OW89648   1.306  13.662   5.923
29270SOL    HW189649   1.354  13.661   6.006
29270SOL    HW289650   1.371  13.684   5.857
29271SOL     OW89651  12.606  11.208   1.262
29271SOL    HW189652  12.662  11.282   1.286
29271SOL    HW289653  12.666  11.134   1.255
29272SOL     OW89654  10.823   7.591   1.595
29272SOL    HW189655  10.828   7.686   1.583
29272SOL    HW289656  10.905   7.568   1.639
29273SOL     OW89657   7.179   7.185   4.485
29273SOL    HW189658   7.269   7.182   4.451
29273SOL    HW289659   7.145   7.097   4.471
29274SOL     OW89660  10.814   1.312   9.195
29274SOL    HW189661  10.902   1.304   9.158
29274SOL    HW289662  10.762   1.246   9.148
29275SOL     OW89663   9.681   9.712  10.203
29275SOL    HW189664   9.726   9.665  10.273
29275SOL    HW289665   9.701   9.804  10.219
29276SOL     OW89666   4.307  11.803  13.258
29276SOL    HW189667   4.335  11.837  13.344
29276SOL    HW289668   4.336  11.712  13.258
29277SOL     OW89669   7.522   6.546   1.484
29277SOL    HW189670   7.589   6.614   1.485
29277SOL    HW289671   7.495   6.541   1.392
29278SOL     OW89672   2.654   2.212   4.811
29278SOL    HW189673   2.734   2.210   4.759
29278SOL    HW289674   2.651   2.301   4.846
29279SOL     OW89675  10.821   9.340   8.926
29279SOL    HW189676  10.734   9.358   8.962
29279SOL    HW289677  10.823   9.387   8.843
29280SOL     OW89678   8.453   2.001   6.169
29280SOL    HW189679   8.379   2.055   6.139
29280SOL    HW289680   8.517   2.064   6.201
29281SOL     OW89681   0.677   4.658  13.154
29281SOL    HW189682   0.739   4.731  13.148
29281SOL    HW289683   0.695   4.619  13.240
29282SOL     OW89684   7.362   4.060   6.821
29282SOL    HW189685   7.266   4.063   6.815
29282SOL    HW289686   7.391   4.141   6.778
29283SOL     OW89687  12.466   7.970   6.406
29283SOL    HW189688  12.398   7.911   6.438
29283SOL    HW289689  12.439   8.056   6.437
29284SOL     OW89690   3.512  13.980  14.137
29284SOL    HW189691   3.478  14.009  14.053
29284SOL    HW289692   3.451  13.912  14.166
29285SOL     OW89693   8.418   3.916  10.469
29285SOL    HW189694   8.338   3.949  10.509
29285SOL    HW289695   8.489   3.962  10.514
29286SOL     OW89696   8.608   0.084  12.073
29286SOL    HW189697   8.576   0.013  12.018
29286SOL    HW289698   8.564   0.071  12.157
29287SOL     OW89699   5.737   0.948   3.166
29287SOL    HW189700   5.687   0.871   3.190
29287SOL    HW289701   5.829   0.924   3.181
29288SOL     OW89702  13.476  11.292  14.644
29288SOL    HW189703  13.571  11.294  14.632
29288SOL    HW289704  13.454  11.377  14.681
29289SOL     OW89705  10.936  13.789   7.127
29289SOL    HW189706  10.930  13.884   7.137
29289SOL    HW289707  10.861  13.766   7.073
29290SOL     OW89708   3.764  13.102   5.275
29290SOL    HW189709   3.680  13.058   5.270
29290SOL    HW289710   3.797  13.081   5.362
29291SOL     OW89711   9.346  10.277   4.622
29291SOL    HW189712   9.412  10.225   4.577
29291SOL    HW289713   9.393  10.353   4.656
29292SOL     OW89714   1.012   7.679  12.911
29292SOL    HW189715   0.930   7.727  12.921
29292SOL    HW289716   1.076   7.731  12.961
29293SOL     OW89717   2.489   5.189   6.484
29293SOL    HW189718   2.439   5.130   6.541
29293SOL    HW289719   2.580   5.168   6.503
29294SOL     OW89720   3.004   8.447  14.367
29294SOL    HW189721   3.079   8.426  14.423
29294SOL    HW289722   2.945   8.495  14.424
29295SOL     OW89723   0.462   4.660   1.228
29295SOL    HW189724   0.397   4.630   1.292
29295SOL    HW289725   0.546   4.636   1.266
29296SOL     OW89726   9.107  11.565   8.379
29296SOL    HW189727   9.095  11.556   8.474
29296SOL    HW289728   9.079  11.655   8.360
29297SOL     OW89729  10.070  13.957  13.606
29297SOL    HW189730  10.138  14.020  13.629
29297SOL    HW289731  10.118  13.878  13.581
29298SOL     OW89732   6.912   3.418  11.626
29298SOL    HW189733   6.877   3.492  11.674
29298SOL    HW289734   6.902   3.344  11.686
29299SOL     OW89735   9.858   8.360   4.801
29299SOL    HW189736   9.835   8.268   4.790
29299SOL    HW289737   9.775   8.407   4.789
29300SOL     OW89738   4.040   6.587  11.626
29300SOL    HW189739   3.959   6.637  11.637
29300SOL    HW289740   4.108   6.642  11.665
29301SOL     OW89741  13.435   6.437   7.574
29301SOL    HW189742  13.395   6.383   7.641
29301SOL    HW289743  13.524   6.454   7.607
29302SOL     OW89744  14.325   9.259   3.649
29302SOL    HW189745  14.240   9.304   3.654
29302SOL    HW289746  14.322   9.195   3.720
29303SOL     OW89747   2.629  13.944  11.809
29303SOL    HW189748   2.712  13.966  11.766
29303SOL    HW289749   2.570  14.016  11.787
29304SOL     OW89750  10.963   3.225   9.940
29304SOL    HW189751  10.914   3.156   9.985
29304SOL    HW289752  11.055   3.201   9.952
29305SOL     OW89753   5.899   4.499   0.451
29305SOL    HW189754   5.886   4.479   0.544
29305SOL    HW289755   5.871   4.420   0.405
29306SOL     OW89756   1.894   2.899   8.811
29306SOL    HW189757   1.962   2.901   8.744
29306SOL    HW289758   1.942   2.885   8.893
29307SOL     OW89759  12.381   5.613   3.124
29307SOL    HW189760  12.307   5.674   3.124
29307SOL    HW289761  12.455   5.665   3.156
29308SOL     OW89762   7.063   7.319   5.711
29308SOL    HW189763   7.012   7.399   5.704
29308SOL    HW289764   7.002   7.249   5.689
29309SOL     OW89765  14.335   8.507   1.083
29309SOL    HW189766  14.348   8.429   1.139
29309SOL    HW289767  14.286   8.568   1.138
29310SOL     OW89768  11.796  14.840  13.545
29310SOL    HW189769  11.720  14.796  13.506
29310SOL    HW289770  11.819   0.034  13.481
29311SOL     OW89771   4.075   9.049  10.185
29311SOL    HW189772   4.038   9.119  10.131
29311SOL    HW289773   3.998   9.000  10.216
29312SOL     OW89774   9.780   6.855  11.144
29312SOL    HW189775   9.771   6.950  11.152
29312SOL    HW289776   9.835   6.829  11.218
29313SOL     OW89777  12.758   8.465   1.110
29313SOL    HW189778  12.780   8.374   1.093
29313SOL    HW289779  12.824   8.494   1.173
29314SOL     OW89780   0.488  13.237  10.885
29314SOL    HW189781   0.407  13.256  10.933
29314SOL    HW289782   0.547  13.309  10.908
29315SOL     OW89783   4.117   9.791  11.351
29315SOL    HW189784   4.040   9.768  11.403
29315SOL    HW289785   4.117   9.728  11.279
29316SOL     OW89786  10.846  12.420  14.654
29316SOL    HW189787  10.903  12.497  14.660
29316SOL    HW289788  10.889  12.363  14.590
29317SOL     OW89789   4.423   2.543  14.579
29317SOL    HW189790   4.415   2.537  14.484
29317SOL    HW289791   4.410   2.453  14.609
29318SOL     OW89792   4.192   5.975   0.805
29318SOL    HW189793   4.221   5.905   0.863
29318SOL    HW289794   4.259   6.043   0.814
29319SOL     OW89795   2.775   1.591  14.339
29319SOL    HW189796   2.717   1.559  14.407
29319SOL    HW289797   2.769   1.686  14.343
29320SOL     OW89798   5.748   6.668   6.454
29320SOL    HW189799   5.654   6.675   6.475
29320SOL    HW289800   5.762   6.733   6.385
29321SOL     OW89801   3.264  11.819  12.713
29321SOL    HW189802   3.310  11.898  12.743
29321SOL    HW289803   3.298  11.749  12.768
29322SOL     OW89804   5.087   5.035   9.043
29322SOL    HW189805   5.143   4.993   9.109
29322SOL    HW289806   5.013   4.976   9.033
29323SOL     OW89807   2.206   2.839   8.496
29323SOL    HW189808   2.257   2.823   8.417
29323SOL    HW289809   2.248   2.786   8.563
29324SOL     OW89810   9.540  13.255   3.269
29324SOL    HW189811   9.547  13.338   3.315
29324SOL    HW289812   9.473  13.206   3.317
29325SOL     OW89813   1.855   5.543   5.958
29325SOL    HW189814   1.768   5.536   5.997
29325SOL    HW289815   1.838   5.572   5.868
29326SOL     OW89816   3.497   1.169   0.347
29326SOL    HW189817   3.564   1.229   0.315
29326SOL    HW289818   3.414   1.210   0.323
29327SOL     OW89819   6.332   2.357  12.324
29327SOL    HW189820   6.370   2.380  12.409
29327SOL    HW289821   6.360   2.428  12.266
29328SOL     OW89822  14.389  10.834  11.850
29328SOL    HW189823  14.474  10.869  11.874
29328SOL    HW289824  14.351  10.899  11.792
29329SOL     OW89825   6.600  13.460   5.983
29329SOL    HW189826   6.662  13.388   5.996
29329SOL    HW289827   6.601  13.476   5.889
29330SOL     OW89828   3.710   0.723   6.803
29330SOL    HW189829   3.657   0.803   6.794
29330SOL    HW289830   3.648   0.651   6.790
29331SOL     OW89831   3.204  10.415   9.162
29331SOL    HW189832   3.188  10.458   9.246
29331SOL    HW289833   3.153  10.335   9.166
29332SOL     OW89834   0.648   7.785   4.554
29332SOL    HW189835   0.563   7.742   4.558
29332SOL    HW289836   0.684   7.758   4.470
29333SOL     OW89837   8.517  12.593  10.912
29333SOL    HW189838   8.526  12.540  10.991
29333SOL    HW289839   8.575  12.668  10.927
29334SOL     OW89840   6.102   3.195   2.062
29334SOL    HW189841   6.017   3.190   2.107
29334SOL    HW289842   6.142   3.275   2.095
29335SOL     OW89843   6.487  10.544   7.693
29335SOL    HW189844   6.550  10.473   7.705
29335SOL    HW289845   6.510  10.607   7.761
29336SOL     OW89846  13.893   9.506   7.107
29336SOL    HW189847  13.879   9.480   7.198
29336SOL    HW289848  13.818   9.470   7.059
29337SOL     OW89849   0.133   8.622  13.521
29337SOL    HW189850   0.160   8.530  13.514
29337SOL    HW289851   0.065   8.632  13.455
29338SOL     OW89852   1.249   0.904   0.751
29338SOL    HW189853   1.172   0.910   0.695
29338SOL    HW289854   1.264   0.993   0.781
29339SOL     OW89855  13.017   5.178   8.183
29339SOL    HW189856  13.013   5.135   8.098
29339SOL    HW289857  13.009   5.107   8.246
29340SOL     OW89858   7.223   2.457   4.047
29340SOL    HW189859   7.218   2.473   3.952
29340SOL    HW289860   7.308   2.492   4.073
29341SOL     OW89861  11.825  14.501   1.133
29341SOL    HW189862  11.829  14.414   1.092
29341SOL    HW289863  11.794  14.484   1.222
29342SOL     OW89864   7.972   0.129  10.420
29342SOL    HW189865   7.962   0.207  10.474
29342SOL    HW289866   8.020   0.158  10.343
29343SOL     OW89867  10.666  13.722  11.697
29343SOL    HW189868  10.690  13.718  11.790
29343SOL    HW289869  10.575  13.693  11.694
29344SOL     OW89870   5.965  14.361   6.123
29344SOL    HW189871   5.921  14.319   6.198
29344SOL    HW289872   6.041  14.305   6.107
29345SOL     OW89873   1.924  11.122  12.665
29345SOL    HW189874   2.017  11.145  12.656
29345SOL    HW289875   1.909  11.125  12.760
29346SOL     OW89876   5.882   0.307   2.456
29346SOL    HW189877   5.876   0.314   2.361
29346SOL    HW289878   5.804   0.353   2.488
29347SOL     OW89879   4.585   4.032  14.499
29347SOL    HW189880   4.563   4.021  14.406
29347SOL    HW289881   4.506   4.005  14.546
29348SOL     OW89882   3.258  13.362   3.151
29348SOL    HW189883   3.324  13.311   3.105
29348SOL    HW289884   3.269  13.452   3.118
29349SOL     OW89885   2.069   7.403   2.538
29349SOL    HW189886   2.081   7.395   2.633
29349SOL    HW289887   1.977   7.426   2.527
29350SOL     OW89888   7.325  13.092   2.285
29350SOL    HW189889   7.356  13.138   2.207
29350SOL    HW289890   7.281  13.014   2.251
29351SOL     OW89891   3.120   4.133   2.310
29351SOL    HW189892   3.062   4.057   2.306
29351SOL    HW289893   3.116   4.172   2.223
29352SOL     OW89894   5.025   4.798  10.014
29352SOL    HW189895   5.114   4.812  10.046
29352SOL    HW289896   5.029   4.828   9.923
29353SOL     OW89897  10.399   7.821   1.528
29353SOL    HW189898  10.346   7.866   1.463
29353SOL    HW289899  10.450   7.890   1.570
29354SOL     OW89900   3.884  12.824   0.038
29354SOL    HW189901   3.973  12.787   0.033
29354SOL    HW289902   3.896  12.905   0.088
29355SOL     OW89903   1.593   3.861   1.236
29355SOL    HW189904   1.581   3.954   1.219
29355SOL    HW289905   1.687   3.850   1.251
29356SOL     OW89906  12.402   3.136   3.937
29356SOL    HW189907  12.325   3.190   3.915
29356SOL    HW289908  12.389   3.112   4.029
29357SOL     OW89909   3.443  13.845   1.935
29357SOL    HW189910   3.524  13.813   1.974
29357SOL    HW289911   3.445  13.940   1.948
29358SOL     OW89912   5.134   2.181   4.148
29358SOL    HW189913   5.125   2.275   4.130
29358SOL    HW289914   5.224   2.160   4.125
29359SOL     OW89915   9.746   4.106   8.179
29359SOL    HW189916   9.676   4.151   8.133
29359SOL    HW289917   9.703   4.060   8.251
29360SOL     OW89918   9.088  12.401  11.652
29360SOL    HW189919   9.124  12.315  11.628
29360SOL    HW289920   8.993  12.389  11.649
29361SOL     OW89921  14.163  13.913   0.715
29361SOL    HW189922  14.180  13.958   0.632
29361SOL    HW289923  14.070  13.931   0.733
29362SOL     OW89924   6.837  10.622  13.106
29362SOL    HW189925   6.755  10.618  13.155
29362SOL    HW289926   6.904  10.593  13.169
29363SOL     OW89927   9.843   5.242   7.718
29363SOL    HW189928   9.786   5.166   7.708
29363SOL    HW289929   9.793   5.315   7.682
29364SOL     OW89930   1.785   5.993   3.331
29364SOL    HW189931   1.791   6.079   3.291
29364SOL    HW289932   1.852   5.941   3.286
29365SOL     OW89933   2.916   8.774   9.542
29365SOL    HW189934   2.823   8.775   9.566
29365SOL    HW289935   2.916   8.770   9.446
29366SOL     OW89936  12.008   5.614   4.733
29366SOL    HW189937  11.935   5.562   4.701
29366SOL    HW289938  12.073   5.550   4.762
29367SOL     OW89939  11.263   1.166  11.240
29367SOL    HW189940  11.349   1.187  11.276
29367SOL    HW289941  11.282   1.131  11.152
29368SOL     OW89942   0.311  14.827   1.576
29368SOL    HW189943   0.287  14.820   1.484
29368SOL    HW289944   0.315  14.736   1.607
29369SOL     OW89945  12.783  13.276   0.924
29369SOL    HW189946  12.802  13.228   1.004
29369SOL    HW289947  12.821  13.363   0.938
29370SOL     OW89948   7.303   7.655  11.954
29370SOL    HW189949   7.342   7.613  11.877
29370SOL    HW289950   7.216   7.614  11.961
29371SOL     OW89951   8.643   4.009   8.474
29371SOL    HW189952   8.713   3.974   8.529
29371SOL    HW289953   8.563   3.978   8.515
29372SOL     OW89954   5.998   7.700  13.561
29372SOL    HW189955   5.946   7.638  13.611
29372SOL    HW289956   5.980   7.785  13.602
29373SOL     OW89957   1.854   8.720  12.852
29373SOL    HW189958   1.870   8.659  12.780
29373SOL    HW289959   1.795   8.672  12.911
29374SOL     OW89960   6.322  13.239   0.328
29374SOL    HW189961   6.254  13.283   0.378
29374SOL    HW289962   6.288  13.151   0.312
29375SOL     OW89963   1.647   4.360   0.590
29375SOL    HW189964   1.661   4.453   0.576
29375SOL    HW289965   1.732   4.320   0.574
29376SOL     OW89966  10.763   8.620   8.261
29376SOL    HW189967  10.809   8.629   8.344
29376SOL    HW289968  10.671   8.634   8.283
29377SOL     OW89969   7.611   5.029  10.380
29377SOL    HW189970   7.698   5.020  10.342
29377SOL    HW289971   7.619   4.992  10.468
29378SOL     OW89972   1.353   9.827   7.657
29378SOL    HW189973   1.447   9.846   7.658
29378SOL    HW289974   1.316   9.893   7.599
29379SOL     OW89975   7.125  14.390   3.108
29379SOL    HW189976   7.062  14.406   3.179
29379SOL    HW289977   7.147  14.477   3.075
29380SOL     OW89978   9.991  10.317  14.624
29380SOL    HW189979   9.961  10.406  14.643
29380SOL    HW289980   9.950  10.296  14.540
29381SOL     OW89981   7.013   0.449  12.979
29381SOL    HW189982   6.967   0.464  13.061
29381SOL    HW289983   7.080   0.518  12.976
29382SOL     OW89984  13.509   9.209   9.925
29382SOL    HW189985  13.477   9.195   9.836
29382SOL    HW289986  13.488   9.127   9.971
29383SOL     OW89987   8.756  13.003   4.455
29383SOL    HW189988   8.827  13.057   4.488
29383SOL    HW289989   8.799  12.936   4.403
29384SOL     OW89990   5.296   4.853   8.068
29384SOL    HW189991   5.227   4.820   8.012
29384SOL    HW289992   5.373   4.860   8.011
29385SOL     OW89993   9.794  14.660  12.226
29385SOL    HW189994   9.775  14.731  12.286
29385SOL    HW289995   9.824  14.588  12.282
29386SOL     OW89996  11.841   0.855  12.846
29386SOL    HW189997  11.799   0.849  12.931
29386SOL    HW289998  11.793   0.923  12.800
29387SOL     OW89999   6.606   5.565   2.660
29387SOL    HW190000   6.595   5.643   2.605
29387SOL    HW290001   6.688   5.526   2.629
29388SOL     OW90002  12.417  11.875   5.968
29388SOL    HW190003  12.508  11.896   5.950
29388SOL    HW290004  12.387  11.943   6.027
29389SOL     OW90005   0.030  13.302  11.359
29389SOL    HW190006   0.066  13.388  11.377
29389SOL    HW290007  14.831  13.318  11.298
29390SOL     OW90008  14.757   6.575   1.963
29390SOL    HW190009  14.814   6.499   1.951
29390SOL    HW290010  14.816   6.650   1.966
29391SOL     OW90011  12.930   4.446  10.710
29391SOL    HW190012  12.851   4.414  10.753
29391SOL    HW290013  12.986   4.478  10.781
29392SOL     OW90014   6.954   2.038   6.748
29392SOL    HW190015   6.995   2.124   6.758
29392SOL    HW290016   6.874   2.056   6.697
29393SOL     OW90017   2.883   2.545   1.904
29393SOL    HW190018   2.897   2.554   1.810
29393SOL    HW290019   2.843   2.458   1.914
29394SOL     OW90020   4.827   4.272   7.616
29394SOL    HW190021   4.824   4.368   7.609
29394SOL    HW290022   4.825   4.255   7.710
29395SOL     OW90023   4.419   5.949   9.119
29395SOL    HW190024   4.422   5.908   9.205
29395SOL    HW290025   4.346   6.010   9.123
29396SOL     OW90026  13.576   8.565   7.486
29396SOL    HW190027  13.502   8.553   7.426
29396SOL    HW290028  13.654   8.553   7.431
29397SOL     OW90029   5.393   4.995   3.352
29397SOL    HW190030   5.359   4.906   3.349
29397SOL    HW290031   5.473   4.988   3.404
29398SOL     OW90032   1.761   1.506   5.272
29398SOL    HW190033   1.776   1.456   5.352
29398SOL    HW290034   1.817   1.583   5.280
29399SOL     OW90035   7.611  14.758   7.484
29399SOL    HW190036   7.687  14.817   7.486
29399SOL    HW290037   7.548  14.799   7.543
29400SOL     OW90038   2.485  14.476   7.199
29400SOL    HW190039   2.476  14.515   7.286
29400SOL    HW290040   2.402  14.493   7.155
29401SOL     OW90041   1.675   2.611   6.434
29401SOL    HW190042   1.705   2.587   6.347
29401SOL    HW290043   1.604   2.550   6.453
29402SOL     OW90044  13.881  11.746   9.344
29402SOL    HW190045  13.828  11.685   9.397
29402SOL    HW290046  13.957  11.695   9.318
29403SOL     OW90047  13.945   1.678   4.104
29403SOL    HW190048  13.905   1.705   4.187
29403SOL    HW290049  14.023   1.630   4.130
29404SOL     OW90050   1.591   1.244  10.726
29404SOL    HW190051   1.654   1.263  10.656
29404SOL    HW290052   1.614   1.156  10.756
29405SOL     OW90053   9.509   7.571   7.266
29405SOL    HW190054   9.482   7.661   7.287
29405SOL    HW290055   9.587   7.556   7.320
29406SOL     OW90056  10.469   0.090   0.881
29406SOL    HW190057  10.442   0.141   0.957
29406SOL    HW290058  10.400   0.024   0.871
29407SOL     OW90059   0.919  10.502   3.450
29407SOL    HW190060   0.907  10.594   3.427
29407SOL    HW290061   0.916  10.455   3.367
29408SOL     OW90062   8.180  14.760  13.740
29408SOL    HW190063   8.089  14.733  13.753
29408SOL    HW290064   8.182  14.798  13.652
29409SOL     OW90065   8.391   2.956   6.983
29409SOL    HW190066   8.410   2.991   6.896
29409SOL    HW290067   8.437   3.015   7.043
29410SOL     OW90068   8.551   0.062   5.965
29410SOL    HW190069   8.602   0.026   6.038
29410SOL    HW290070   8.544   0.156   5.985
29411SOL     OW90071   7.840   0.192  10.960
29411SOL    HW190072   7.807   0.180  11.049
29411SOL    HW290073   7.770   0.160  10.904
29412SOL     OW90074  10.815   4.278   2.848
29412SOL    HW190075  10.877   4.298   2.778
29412SOL    HW290076  10.732   4.315   2.818
29413SOL     OW90077   8.951  11.305   5.542
29413SOL    HW190078   8.952  11.223   5.591
29413SOL    HW290079   9.029  11.352   5.571
29414SOL     OW90080  13.988   2.485   7.734
29414SOL    HW190081  14.079   2.478   7.762
29414SOL    HW290082  13.956   2.395   7.731
29415SOL     OW90083  11.107  13.515  10.115
29415SOL    HW190084  11.134  13.566  10.038
29415SOL    HW290085  11.176  13.450  10.125
29416SOL     OW90086  12.203   5.698  12.702
29416SOL    HW190087  12.205   5.775  12.645
29416SOL    HW290088  12.273   5.714  12.766
29417SOL     OW90089   3.524   1.430   6.769
29417SOL    HW190090   3.563   1.488   6.704
29417SOL    HW290091   3.462   1.485   6.817
29418SOL     OW90092   0.986   0.440  14.674
29418SOL    HW190093   1.074   0.457  14.643
29418SOL    HW290094   0.934   0.429  14.594
29419SOL     OW90095   1.735   1.280   9.053
29419SOL    HW190096   1.688   1.359   9.027
29419SOL    HW290097   1.728   1.278   9.148
29420SOL     OW90098   5.130   7.098  10.607
29420SOL    HW190099   5.134   7.044  10.529
29420SOL    HW290100   5.102   7.039  10.676
29421SOL     OW90101   1.683  10.732  10.431
29421SOL    HW190102   1.707  10.720  10.523
29421SOL    HW290103   1.589  10.751  10.433
29422SOL     OW90104   5.169   2.287   7.636
29422SOL    HW190105   5.185   2.251   7.724
29422SOL    HW290106   5.111   2.223   7.594
29423SOL     OW90107   5.294   9.615   4.424
29423SOL    HW190108   5.209   9.574   4.436
29423SOL    HW290109   5.275   9.707   4.406
29424SOL     OW90110  11.578   2.509  10.803
29424SOL    HW190111  11.645   2.510  10.735
29424SOL    HW290112  11.556   2.416  10.814
29425SOL     OW90113  11.060  14.667   7.063
29425SOL    HW190114  10.970  14.642   7.084
29425SOL    HW290115  11.106  14.664   7.147
29426SOL     OW90116  13.537  13.648   9.281
29426SOL    HW190117  13.625  13.679   9.304
29426SOL    HW290118  13.483  13.727   9.283
29427SOL     OW90119   2.707   3.196   2.193
29427SOL    HW190120   2.661   3.211   2.111
29427SOL    HW290121   2.686   3.106   2.216
29428SOL     OW90122  12.490  13.367  13.974
29428SOL    HW190123  12.533  13.355  13.889
29428SOL    HW290124  12.562  13.384  14.035
29429SOL     OW90125   8.304   9.984  13.538
29429SOL    HW190126   8.386  10.029  13.519
29429SOL    HW290127   8.264  10.034  13.609
29430SOL     OW90128  13.482   4.933   4.914
29430SOL    HW190129  13.524   4.913   4.831
29430SOL    HW290130  13.393   4.899   4.906
29431SOL     OW90131  13.036   9.082  10.294
29431SOL    HW190132  13.013   8.993  10.265
29431SOL    HW290133  13.095   9.114  10.225
29432SOL     OW90134  11.424   8.484   5.973
29432SOL    HW190135  11.478   8.539   6.029
29432SOL    HW290136  11.442   8.394   6.002
29433SOL     OW90137   9.577  14.555   4.202
29433SOL    HW190138   9.540  14.531   4.117
29433SOL    HW290139   9.668  14.577   4.183
29434SOL     OW90140   1.392   2.135  10.975
29434SOL    HW190141   1.366   2.162  11.062
29434SOL    HW290142   1.416   2.043  10.985
29435SOL     OW90143   3.997  12.180   2.416
29435SOL    HW190144   4.006  12.254   2.477
29435SOL    HW290145   4.008  12.102   2.471
29436SOL     OW90146   9.862  10.131   5.042
29436SOL    HW190147   9.897  10.042   5.032
29436SOL    HW290148   9.783  10.119   5.095
29437SOL     OW90149   9.477   4.618  14.084
29437SOL    HW190150   9.446   4.708  14.094
29437SOL    HW290151   9.523   4.618  14.000
29438SOL     OW90152  10.310   8.860  11.570
29438SOL    HW190153  10.346   8.894  11.652
29438SOL    HW290154  10.248   8.793  11.598
29439SOL     OW90155   4.131   3.565   2.047
29439SOL    HW190156   4.182   3.646   2.041
29439SOL    HW290157   4.040   3.593   2.035
29440SOL     OW90158  11.395   8.644   8.985
29440SOL    HW190159  11.376   8.638   9.078
29440SOL    HW290160  11.337   8.580   8.944
29441SOL     OW90161   2.222   1.645   5.310
29441SOL    HW190162   2.180   1.583   5.250
29441SOL    HW290163   2.222   1.599   5.394
29442SOL     OW90164  10.229   5.876  12.290
29442SOL    HW190165  10.295   5.932  12.251
29442SOL    HW290166  10.278   5.819  12.350
29443SOL     OW90167   0.410   3.854  10.907
29443SOL    HW190168   0.331   3.862  10.853
29443SOL    HW290169   0.393   3.910  10.982
29444SOL     OW90170   1.365   9.429   7.919
29444SOL    HW190171   1.303   9.465   7.983
29444SOL    HW290172   1.450   9.433   7.963
29445SOL     OW90173   5.526  13.114   3.342
29445SOL    HW190174   5.553  13.092   3.253
29445SOL    HW290175   5.599  13.167   3.376
29446SOL     OW90176   3.738  12.351   6.902
29446SOL    HW190177   3.679  12.386   6.969
29446SOL    HW290178   3.769  12.427   6.854
29447SOL     OW90179  14.749   3.249  10.084
29447SOL    HW190180  14.817   3.308  10.117
29447SOL    HW290181  14.731   3.189  10.157
29448SOL     OW90182   1.206   0.667  13.081
29448SOL    HW190183   1.176   0.642  13.168
29448SOL    HW290184   1.270   0.600  13.058
29449SOL     OW90185  14.121  12.142  14.141
29449SOL    HW190186  14.083  12.066  14.097
29449SOL    HW290187  14.210  12.147  14.107
29450SOL     OW90188   5.037   4.869   5.310
29450SOL    HW190189   5.080   4.814   5.244
29450SOL    HW290190   5.037   4.816   5.389
29451SOL     OW90191   9.591   8.458   0.292
29451SOL    HW190192   9.528   8.452   0.364
29451SOL    HW290193   9.675   8.437   0.333
29452SOL     OW90194   8.469   8.826   6.030
29452SOL    HW190195   8.450   8.917   6.009
29452SOL    HW290196   8.564   8.820   6.027
29453SOL     OW90197  14.441   7.468   3.214
29453SOL    HW190198  14.536   7.469   3.199
29453SOL    HW290199  14.430   7.518   3.295
29454SOL     OW90200   9.736  11.841   1.922
29454SOL    HW190201   9.818  11.796   1.900
29454SOL    HW290202   9.672  11.805   1.861
29455SOL     OW90203   4.866   3.591   5.904
29455SOL    HW190204   4.909   3.536   5.970
29455SOL    HW290205   4.920   3.580   5.826
29456SOL     OW90206   6.235   0.300   1.048
29456SOL    HW190207   6.173   0.239   1.010
29456SOL    HW290208   6.221   0.293   1.142
29457SOL     OW90209  10.367   4.091   1.266
29457SOL    HW190210  10.451   4.077   1.310
29457SOL    HW290211  10.301   4.063   1.329
29458SOL     OW90212  10.520  10.255   6.312
29458SOL    HW190213  10.595  10.195   6.314
29458SOL    HW290214  10.463  10.224   6.382
29459SOL     OW90215  13.178  12.146  12.685
29459SOL    HW190216  13.140  12.196  12.613
29459SOL    HW290217  13.273  12.155  12.673
29460SOL     OW90218  14.713  11.678  13.840
29460SOL    HW190219  14.739  11.587  13.823
29460SOL    HW290220  14.627  11.686  13.800
29461SOL     OW90221  11.233  14.088   0.944
29461SOL    HW190222  11.201  14.000   0.927
29461SOL    HW290223  11.211  14.138   0.865
29462SOL     OW90224   6.841   7.257   9.064
29462SOL    HW190225   6.778   7.197   9.103
29462SOL    HW290226   6.877   7.306   9.138
29463SOL     OW90227   2.867  13.864   2.195
29463SOL    HW190228   2.916  13.798   2.147
29463SOL    HW290229   2.830  13.921   2.127
29464SOL     OW90230   7.019   4.997   9.673
29464SOL    HW190231   6.982   4.917   9.636
29464SOL    HW290232   7.081   4.967   9.740
29465SOL     OW90233  14.807   5.246   7.158
29465SOL    HW190234  14.866   5.174   7.135
29465SOL    HW290235  14.720   5.205   7.161
29466SOL     OW90236   4.387  11.701  14.236
29466SOL    HW190237   4.357  11.792  14.226
29466SOL    HW290238   4.316  11.657  14.283
29467SOL     OW90239   0.253   4.853  10.658
29467SOL    HW190240   0.247   4.890  10.746
29467SOL    HW290241   0.331   4.798  10.660
29468SOL     OW90242  12.924  13.631  13.814
29468SOL    HW190243  13.000  13.634  13.756
29468SOL    HW290244  12.952  13.579  13.890
29469SOL     OW90245   0.236  14.036   2.773
29469SOL    HW190246   0.186  13.968   2.729
29469SOL    HW290247   0.234  14.012   2.865
29470SOL     OW90248  14.228   9.586   5.626
29470SOL    HW190249  14.306   9.549   5.585
29470SOL    HW290250  14.244   9.578   5.720
29471SOL     OW90251  12.344   9.429  11.653
29471SOL    HW190252  12.345   9.449  11.560
29471SOL    HW290253  12.341   9.334  11.658
29472SOL     OW90254   6.099   1.939  10.827
29472SOL    HW190255   6.121   2.032  10.815
29472SOL    HW290256   6.155   1.893  10.764
29473SOL     OW90257   1.895  10.254   2.991
29473SOL    HW190258   1.906  10.169   2.950
29473SOL    HW290259   1.968  10.307   2.957
29474SOL     OW90260   7.064   9.151   4.590
29474SOL    HW190261   7.058   9.161   4.685
29474SOL    HW290262   7.052   9.239   4.556
29475SOL     OW90263   4.507   6.402  11.408
29475SOL    HW190264   4.470   6.330  11.357
29475SOL    HW290265   4.602   6.393  11.398
29476SOL     OW90266  11.143  11.199   3.059
29476SOL    HW190267  11.089  11.241   3.126
29476SOL    HW290268  11.109  11.109   3.054
29477SOL     OW90269   3.414   4.028  12.393
29477SOL    HW190270   3.446   3.956  12.337
29477SOL    HW290271   3.328   3.998  12.423
29478SOL     OW90272  10.336  12.395   7.651
29478SOL    HW190273  10.251  12.404   7.608
29478SOL    HW290274  10.388  12.468   7.616
29479SOL     OW90275  11.416   2.799  10.970
29479SOL    HW190276  11.387   2.835  10.886
29479SOL    HW290277  11.511   2.796  10.963
29480SOL     OW90278  13.341  10.433   0.788
29480SOL    HW190279  13.312  10.358   0.737
29480SOL    HW290280  13.295  10.508   0.751
29481SOL     OW90281   9.536  11.533   5.122
29481SOL    HW190282   9.627  11.558   5.104
29481SOL    HW290283   9.533  11.520   5.216
29482SOL     OW90284   5.851   4.654   0.998
29482SOL    HW190285   5.802   4.657   1.080
29482SOL    HW290286   5.800   4.708   0.938
29483SOL     OW90287  10.768   9.202  10.297
29483SOL    HW190288  10.782   9.217  10.391
29483SOL    HW290289  10.856   9.192  10.261
29484SOL     OW90290  11.539   6.987   4.377
29484SOL    HW190291  11.602   6.945   4.318
29484SOL    HW290292  11.486   7.043   4.321
29485SOL     OW90293   5.969   5.740   9.324
29485SOL    HW190294   5.896   5.755   9.384
29485SOL    HW290295   6.015   5.824   9.322
29486SOL     OW90296  10.733   2.238   7.750
29486SOL    HW190297  10.709   2.286   7.671
29486SOL    HW290298  10.820   2.270   7.772
29487SOL     OW90299   1.298   6.985  13.848
29487SOL    HW190300   1.232   6.993  13.778
29487SOL    HW290301   1.278   7.057  13.908
29488SOL     OW90302   5.886   1.847   4.230
29488SOL    HW190303   5.887   1.794   4.310
29488SOL    HW290304   5.976   1.843   4.197
29489SOL     OW90305  12.337  14.402  11.317
29489SOL    HW190306  12.371  14.313  11.315
29489SOL    HW290307  12.281  14.405  11.395
29490SOL     OW90308  12.503  10.805   0.328
29490SOL    HW190309  12.430  10.796   0.267
29490SOL    HW290310  12.530  10.897   0.321
29491SOL     OW90311   8.065   6.842   9.824
29491SOL    HW190312   8.028   6.767   9.871
29491SOL    HW290313   8.008   6.852   9.747
29492SOL     OW90314   7.319  12.677   1.436
29492SOL    HW190315   7.340  12.593   1.394
29492SOL    HW290316   7.354  12.669   1.525
29493SOL     OW90317   5.360   6.113  10.315
29493SOL    HW190318   5.335   6.021  10.305
29493SOL    HW290319   5.277   6.159  10.328
29494SOL     OW90320   2.047   9.448   7.289
29494SOL    HW190321   2.121   9.415   7.238
29494SOL    HW290322   2.084   9.517   7.343
29495SOL     OW90323  11.230  14.330  14.501
29495SOL    HW190324  11.181  14.398  14.548
29495SOL    HW290325  11.184  14.249  14.523
29496SOL     OW90326   2.273   7.646  13.777
29496SOL    HW190327   2.210   7.596  13.725
29496SOL    HW290328   2.227   7.727  13.799
29497SOL     OW90329   6.311  13.940   7.982
29497SOL    HW190330   6.296  14.021   7.932
29497SOL    HW290331   6.264  13.873   7.933
29498SOL     OW90332  13.547   7.414   1.285
29498SOL    HW190333  13.593   7.341   1.328
29498SOL    HW290334  13.585   7.416   1.197
29499SOL     OW90335   9.073   2.962   0.252
29499SOL    HW190336   9.158   2.946   0.211
29499SOL    HW290337   9.093   3.014   0.330
29500SOL     OW90338  11.734   5.965  13.112
29500SOL    HW190339  11.694   6.052  13.104
29500SOL    HW290340  11.812   5.970  13.057
29501SOL     OW90341  10.695   1.346  11.510
29501SOL    HW190342  10.666   1.419  11.565
29501SOL    HW290343  10.629   1.278  11.524
29502SOL     OW90344   8.482   2.976   8.329
29502SOL    HW190345   8.526   2.893   8.348
29502SOL    HW290346   8.543   3.043   8.359
29503SOL     OW90347   0.737   7.980  10.874
29503SOL    HW190348   0.653   8.019  10.848
29503SOL    HW290349   0.728   7.963  10.968
29504SOL     OW90350   4.996  12.409   3.847
29504SOL    HW190351   4.951  12.470   3.789
29504SOL    HW290352   4.926  12.355   3.885
29505SOL     OW90353   1.793   2.894   3.728
29505SOL    HW190354   1.809   2.843   3.649
29505SOL    HW290355   1.699   2.886   3.744
29506SOL     OW90356  13.624   5.042   7.191
29506SOL    HW190357  13.601   5.000   7.108
29506SOL    HW290358  13.661   4.971   7.244
29507SOL     OW90359   2.473  13.351   2.972
29507SOL    HW190360   2.397  13.405   2.995
29507SOL    HW290361   2.548  13.411   2.976
29508SOL     OW90362   0.981   9.491   5.617
29508SOL    HW190363   0.934   9.544   5.681
29508SOL    HW290364   1.065   9.472   5.659
29509SOL     OW90365  11.296   8.547  13.056
29509SOL    HW190366  11.357   8.561  12.984
29509SOL    HW290367  11.334   8.474  13.106
29510SOL     OW90368  12.552  10.440   4.827
29510SOL    HW190369  12.509  10.494   4.894
29510SOL    HW290370  12.561  10.498   4.751
29511SOL     OW90371   5.462   8.414  11.189
29511SOL    HW190372   5.521   8.445  11.258
29511SOL    HW290373   5.401   8.355  11.234
29512SOL     OW90374   2.828  10.910   3.519
29512SOL    HW190375   2.871  10.993   3.497
29512SOL    HW290376   2.742  10.936   3.553
29513SOL     OW90377   1.303   5.758   5.896
29513SOL    HW190378   1.271   5.713   5.974
29513SOL    HW290379   1.323   5.688   5.834
29514SOL     OW90380  13.277  12.931   3.700
29514SOL    HW190381  13.333  12.932   3.623
29514SOL    HW290382  13.212  12.999   3.683
29515SOL     OW90383  14.694  12.232   0.510
29515SOL    HW190384  14.694  12.137   0.496
29515SOL    HW290385  14.784  12.258   0.491
29516SOL     OW90386   9.301   0.714   8.647
29516SOL    HW190387   9.264   0.779   8.706
29516SOL    HW290388   9.377   0.679   8.694
29517SOL     OW90389   8.917  13.532   4.085
29517SOL    HW190390   8.928  13.464   4.152
29517SOL    HW290391   8.955  13.494   4.006
29518SOL     OW90392  11.299   4.130   8.179
29518SOL    HW190393  11.322   4.096   8.092
29518SOL    HW290394  11.293   4.051   8.234
29519SOL     OW90395  10.413  12.524  11.308
29519SOL    HW190396  10.425  12.525  11.213
29519SOL    HW290397  10.478  12.587  11.340
29520SOL     OW90398   2.180  14.094   8.906
29520SOL    HW190399   2.265  14.093   8.951
29520SOL    HW290400   2.171  14.184   8.874
29521SOL     OW90401  13.413   4.164   4.827
29521SOL    HW190402  13.468   4.127   4.759
29521SOL    HW290403  13.375   4.089   4.871
29522SOL     OW90404   4.160  14.033   4.443
29522SOL    HW190405   4.110  13.962   4.482
29522SOL    HW290406   4.141  14.109   4.498
29523SOL     OW90407  12.207   9.282   8.742
29523SOL    HW190408  12.237   9.226   8.670
29523SOL    HW290409  12.203   9.370   8.703
29524SOL     OW90410   3.453   5.035   9.008
29524SOL    HW190411   3.536   5.073   8.980
29524SOL    HW290412   3.459   4.943   8.982
29525SOL     OW90413   1.535   0.157   8.047
29525SOL    HW190414   1.555   0.227   7.984
29525SOL    HW290415   1.620   0.117   8.065
29526SOL     OW90416   6.293   5.084  11.795
29526SOL    HW190417   6.230   5.031  11.844
29526SOL    HW290418   6.333   5.141  11.860
29527SOL     OW90419   2.145   7.411   2.810
29527SOL    HW190420   2.183   7.493   2.838
29527SOL    HW290421   2.074   7.394   2.872
29528SOL     OW90422   3.366   2.713  10.998
29528SOL    HW190423   3.358   2.649  10.928
29528SOL    HW290424   3.366   2.798  10.954
29529SOL     OW90425  13.209  14.768   6.368
29529SOL    HW190426  13.243  14.854   6.346
29529SOL    HW290427  13.244  14.751   6.456
29530SOL     OW90428   4.956  12.436   5.370
29530SOL    HW190429   5.021  12.446   5.300
29530SOL    HW290430   4.958  12.343   5.391
29531SOL     OW90431  14.411   3.004  10.821
29531SOL    HW190432  14.445   3.079  10.870
29531SOL    HW290433  14.358   3.044  10.751
29532SOL     OW90434  11.112  13.245   2.381
29532SOL    HW190435  11.016  13.241   2.382
29532SOL    HW290436  11.133  13.333   2.352
29533SOL     OW90437   9.481  11.310   9.661
29533SOL    HW190438   9.413  11.244   9.645
29533SOL    HW290439   9.554  11.260   9.699
29534SOL     OW90440  14.055   9.913  11.688
29534SOL    HW190441  13.997   9.924  11.612
29534SOL    HW290442  14.132   9.966  11.667
29535SOL     OW90443  12.208   7.652   2.631
29535SOL    HW190444  12.294   7.640   2.671
29535SOL    HW290445  12.186   7.566   2.595
29536SOL     OW90446   5.444   6.084   1.891
29536SOL    HW190447   5.537   6.104   1.898
29536SOL    HW290448   5.417   6.125   1.809
29537SOL     OW90449   1.123  13.909   8.553
29537SOL    HW190450   1.136  13.854   8.475
29537SOL    HW290451   1.198  13.888   8.609
29538SOL     OW90452   5.654   9.956  11.773
29538SOL    HW190453   5.726  10.004  11.814
29538SOL    HW290454   5.577  10.011  11.787
29539SOL     OW90455   1.996   4.927   5.709
29539SOL    HW190456   1.957   4.842   5.688
29539SOL    HW290457   2.061   4.909   5.776
29540SOL     OW90458  13.747   0.957   0.525
29540SOL    HW190459  13.683   0.895   0.489
29540SOL    HW290460  13.706   1.043   0.515
29541SOL     OW90461   7.043  10.839   0.561
29541SOL    HW190462   6.960  10.881   0.584
29541SOL    HW290463   7.110  10.898   0.595
29542SOL     OW90464   2.936   4.077   9.340
29542SOL    HW190465   2.990   4.103   9.415
29542SOL    HW290466   2.976   4.123   9.265
29543SOL     OW90467   0.238  12.668   2.194
29543SOL    HW190468   0.309  12.697   2.250
29543SOL    HW290469   0.161  12.665   2.252
29544SOL     OW90470  11.834  14.038   2.492
29544SOL    HW190471  11.887  14.090   2.432
29544SOL    HW290472  11.873  13.951   2.488
29545SOL     OW90473   9.160   1.397  10.239
29545SOL    HW190474   9.245   1.354  10.248
29545SOL    HW290475   9.144   1.436  10.325
29546SOL     OW90476  14.377  11.051   3.830
29546SOL    HW190477  14.375  10.955   3.823
29546SOL    HW290478  14.418  11.068   3.914
29547SOL     OW90479   0.934   4.578   7.285
29547SOL    HW190480   0.956   4.485   7.284
29547SOL    HW290481   0.863   4.586   7.348
29548SOL     OW90482  11.962   7.304   9.121
29548SOL    HW190483  11.953   7.365   9.195
29548SOL    HW290484  11.874   7.295   9.086
29549SOL     OW90485   6.313   3.511   1.426
29549SOL    HW190486   6.250   3.564   1.476
29549SOL    HW290487   6.394   3.516   1.476
29550SOL     OW90488  12.991  10.584   0.785
29550SOL    HW190489  12.950  10.577   0.699
29550SOL    HW290490  13.023  10.674   0.788
29551SOL     OW90491   4.810   8.823   3.280
29551SOL    HW190492   4.824   8.886   3.351
29551SOL    HW290493   4.718   8.799   3.287
29552SOL     OW90494  12.727   1.101  10.565
29552SOL    HW190495  12.673   1.091  10.644
29552SOL    HW290496  12.664   1.114  10.494
29553SOL     OW90497   6.453   9.669   7.210
29553SOL    HW190498   6.501   9.750   7.190
29553SOL    HW290499   6.441   9.626   7.126
29554SOL     OW90500   8.091   7.215   3.468
29554SOL    HW190501   8.047   7.291   3.429
29554SOL    HW290502   8.184   7.237   3.462
29555SOL     OW90503  14.073   7.862  14.616
29555SOL    HW190504  14.093   7.879  14.524
29555SOL    HW290505  14.152   7.824  14.652
29556SOL     OW90506  12.667   7.486   3.994
29556SOL    HW190507  12.657   7.410   4.053
29556SOL    HW290508  12.612   7.554   4.034
29557SOL     OW90509   8.506   2.081   3.229
29557SOL    HW190510   8.420   2.118   3.248
29557SOL    HW290511   8.564   2.157   3.223
29558SOL     OW90512   9.522   5.551  14.540
29558SOL    HW190513   9.616   5.535  14.552
29558SOL    HW290514   9.514   5.646  14.535
29559SOL     OW90515   3.070   0.825   6.180
29559SOL    HW190516   3.156   0.822   6.139
29559SOL    HW290517   3.088   0.823   6.274
29560SOL     OW90518   7.592   5.096  13.512
29560SOL    HW190519   7.532   5.045  13.567
29560SOL    HW290520   7.567   5.187  13.527
29561SOL     OW90521   1.980   6.371  14.168
29561SOL    HW190522   1.945   6.317  14.096
29561SOL    HW290523   2.014   6.308  14.231
29562SOL     OW90524  11.797   2.911   9.915
29562SOL    HW190525  11.780   2.860   9.836
29562SOL    HW290526  11.787   2.848   9.987
29563SOL     OW90527   1.022   9.035   5.806
29563SOL    HW190528   0.963   9.009   5.876
29563SOL    HW290529   0.966   9.072   5.738
29564SOL     OW90530   6.478   3.082   2.092
29564SOL    HW190531   6.550   3.139   2.120
29564SOL    HW290532   6.435   3.131   2.022
29565SOL     OW90533  14.003  12.477  12.675
29565SOL    HW190534  14.076  12.443  12.623
29565SOL    HW290535  13.943  12.403  12.683
29566SOL     OW90536   2.541   9.067  13.849
29566SOL    HW190537   2.622   9.064  13.899
29566SOL    HW290538   2.474   9.094  13.912
29567SOL     OW90539   0.955   0.146  12.617
29567SOL    HW190540   1.035   0.104  12.586
29567SOL    HW290541   0.943   0.113  12.706
29568SOL     OW90542   5.017   7.755   5.752
29568SOL    HW190543   5.095   7.750   5.808
29568SOL    HW290544   5.003   7.664   5.723
29569SOL     OW90545   8.508   4.863   4.595
29569SOL    HW190546   8.478   4.823   4.514
29569SOL    HW290547   8.469   4.951   4.594
29570SOL     OW90548  14.265   5.171  12.161
29570SOL    HW190549  14.304   5.214  12.237
29570SOL    HW290550  14.170   5.179  12.176
29571SOL     OW90551   7.928   3.272  14.624
29571SOL    HW190552   7.938   3.204  14.558
29571SOL    HW290553   7.889   3.346  14.577
29572SOL     OW90554   5.492  11.357   6.868
29572SOL    HW190555   5.494  11.452   6.871
29572SOL    HW290556   5.489  11.330   6.959
29573SOL     OW90557   9.612   1.064   7.188
29573SOL    HW190558   9.527   1.107   7.178
29573SOL    HW290559   9.591   0.976   7.220
29574SOL     OW90560  14.820   9.992   5.882
29574SOL    HW190561  14.768   9.924   5.839
29574SOL    HW290562   0.035   9.981   5.847
29575SOL     OW90563   3.108   7.729  13.939
29575SOL    HW190564   3.178   7.693  13.993
29575SOL    HW290565   3.124   7.823  13.938
29576SOL     OW90566   9.586  12.654   2.622
29576SOL    HW190567   9.561  12.658   2.714
29576SOL    HW290568   9.525  12.590   2.584
29577SOL     OW90569   7.681   6.887   0.949
29577SOL    HW190570   7.613   6.843   0.897
29577SOL    HW290571   7.694   6.971   0.905
29578SOL     OW90572   5.952  10.611  13.482
29578SOL    HW190573   5.977  10.686  13.537
29578SOL    HW290574   5.966  10.643  13.392
29579SOL     OW90575   4.763   2.645   7.160
29579SOL    HW190576   4.754   2.653   7.065
29579SOL    HW290577   4.675   2.661   7.194
29580SOL     OW90578  13.791   7.082   9.294
29580SOL    HW190579  13.792   7.136   9.216
29580SOL    HW290580  13.871   7.028   9.287
29581SOL     OW90581  11.253   0.472   6.668
29581SOL    HW190582  11.179   0.508   6.717
29581SOL    HW290583  11.213   0.421   6.597
29582SOL     OW90584   1.894  11.781   6.257
29582SOL    HW190585   1.981  11.742   6.261
29582SOL    HW290586   1.838  11.719   6.303
29583SOL     OW90587   0.874   5.844  10.262
29583SOL    HW190588   0.959   5.890  10.267
29583SOL    HW290589   0.853   5.843  10.169
29584SOL     OW90590   6.454   7.232  13.391
29584SOL    HW190591   6.515   7.278  13.448
29584SOL    HW290592   6.452   7.285  13.311
29585SOL     OW90593  11.403  10.175   3.166
29585SOL    HW190594  11.479  10.222   3.201
29585SOL    HW290595  11.436  10.130   3.089
29586SOL     OW90596   4.955   7.380   3.832
29586SOL    HW190597   4.899   7.303   3.825
29586SOL    HW290598   4.914   7.434   3.900
29587SOL     OW90599   9.101   9.990  14.052
29587SOL    HW190600   9.046  10.042  13.993
29587SOL    HW290601   9.066   9.901  14.044
29588SOL     OW90602   2.499   6.765  12.271
29588SOL    HW190603   2.579   6.722  12.239
29588SOL    HW290604   2.441   6.693  12.294
29589SOL     OW90605   0.640   1.251   5.124
29589SOL    HW190606   0.574   1.240   5.056
29589SOL    HW290607   0.622   1.337   5.162
29590SOL     OW90608   9.368  10.286   4.078
29590SOL    HW190609   9.292  10.267   4.023
29590SOL    HW290610   9.429  10.215   4.060
29591SOL     OW90611   8.194   2.185   5.255
29591SOL    HW190612   8.159   2.238   5.327
29591SOL    HW290613   8.151   2.220   5.177
29592SOL     OW90614   8.519  13.910   9.142
29592SOL    HW190615   8.581  13.960   9.089
29592SOL    HW290616   8.435  13.923   9.098
29593SOL     OW90617   3.324   5.070   2.247
29593SOL    HW190618   3.260   5.121   2.296
29593SOL    HW290619   3.365   5.014   2.312
29594SOL     OW90620   7.732  12.531   7.354
29594SOL    HW190621   7.757  12.598   7.418
29594SOL    HW290622   7.728  12.577   7.271
29595SOL     OW90623   6.781   7.114   5.598
29595SOL    HW190624   6.709   7.110   5.535
29595SOL    HW290625   6.738   7.122   5.683
29596SOL     OW90626   3.933   5.085   8.879
29596SOL    HW190627   3.949   5.005   8.829
29596SOL    HW290628   4.013   5.137   8.867
29597SOL     OW90629   3.881   0.273   1.904
29597SOL    HW190630   3.796   0.241   1.873
29597SOL    HW290631   3.865   0.300   1.994
29598SOL     OW90632   8.744   7.382   6.161
29598SOL    HW190633   8.804   7.384   6.235
29598SOL    HW290634   8.657   7.387   6.201
29599SOL     OW90635   3.324   1.494   1.592
29599SOL    HW190636   3.404   1.533   1.627
29599SOL    HW290637   3.336   1.400   1.605
29600SOL     OW90638  13.113   1.264   2.959
29600SOL    HW190639  13.119   1.226   2.871
29600SOL    HW290640  13.033   1.225   2.996
29601SOL     OW90641   0.842  12.994   8.091
29601SOL    HW190642   0.866  12.904   8.070
29601SOL    HW290643   0.751  12.988   8.121
29602SOL     OW90644   9.974   2.871   5.811
29602SOL    HW190645  10.028   2.830   5.744
29602SOL    HW290646  10.022   2.855   5.893
29603SOL     OW90647   8.504  14.659  13.661
29603SOL    HW190648   8.497  14.565  13.677
29603SOL    HW290649   8.413  14.688  13.650
29604SOL     OW90650  14.747  11.856   4.318
29604SOL    HW190651  14.745  11.853   4.222
29604SOL    HW290652  14.822  11.912   4.339
29605SOL     OW90653   6.343   5.708   1.293
29605SOL    HW190654   6.375   5.797   1.311
29605SOL    HW290655   6.386   5.654   1.360
29606SOL     OW90656  13.802   3.435   1.311
29606SOL    HW190657  13.729   3.454   1.370
29606SOL    HW290658  13.870   3.398   1.367
29607SOL     OW90659   9.208   8.986   5.521
29607SOL    HW190660   9.116   8.969   5.501
29607SOL    HW290661   9.207   9.067   5.573
29608SOL     OW90662   5.630  10.029   7.911
29608SOL    HW190663   5.638   9.970   7.836
29608SOL    HW290664   5.560  10.090   7.886
29609SOL     OW90665   9.941   3.090  14.612
29609SOL    HW190666   9.930   2.998  14.640
29609SOL    HW290667   9.911   3.091  14.521
29610SOL     OW90668   0.684  10.709   0.363
29610SOL    HW190669   0.735  10.674   0.290
29610SOL    HW290670   0.747  10.756   0.417
29611SOL     OW90671   5.007   0.188  13.262
29611SOL    HW190672   4.971   0.123  13.201
29611SOL    HW290673   4.934   0.247  13.279
29612SOL     OW90674  14.819   8.906  10.730
29612SOL    HW190675  14.733   8.906  10.689
29612SOL    HW290676  14.803   8.939  10.819
29613SOL     OW90677  10.067   8.435  11.664
29613SOL    HW190678  10.064   8.365  11.599
29613SOL    HW290679   9.975   8.452  11.684
29614SOL     OW90680   9.766  13.375   1.932
29614SOL    HW190681   9.708  13.402   1.861
29614SOL    HW290682   9.811  13.298   1.898
29615SOL     OW90683   2.462  11.077   1.043
29615SOL    HW190684   2.508  11.095   0.961
29615SOL    HW290685   2.370  11.088   1.023
29616SOL     OW90686   4.624   9.074   4.827
29616SOL    HW190687   4.549   9.122   4.790
29616SOL    HW290688   4.631   9.107   4.916
29617SOL     OW90689   3.899   2.741  10.159
29617SOL    HW190690   3.920   2.676  10.092
29617SOL    HW290691   3.974   2.801  10.157
29618SOL     OW90692  13.797  13.077   2.274
29618SOL    HW190693  13.820  13.169   2.286
29618SOL    HW290694  13.837  13.053   2.190
29619SOL     OW90695   1.332   0.706  12.229
29619SOL    HW190696   1.367   0.766  12.295
29619SOL    HW290697   1.324   0.623  12.275
29620SOL     OW90698  13.988   0.345  14.377
29620SOL    HW190699  14.027   0.290  14.310
29620SOL    HW290700  13.921   0.290  14.418
29621SOL     OW90701  14.589  12.187  13.267
29621SOL    HW190702  14.639  12.106  13.274
29621SOL    HW290703  14.650  12.250  13.229
29622SOL     OW90704   2.458   9.687   2.874
29622SOL    HW190705   2.423   9.768   2.838
29622SOL    HW290706   2.391   9.621   2.855
29623SOL     OW90707  10.979   0.654   6.680
29623SOL    HW190708  10.906   0.638   6.621
29623SOL    HW290709  11.045   0.698   6.627
29624SOL     OW90710  10.344   6.595   3.351
29624SOL    HW190711  10.273   6.608   3.289
29624SOL    HW290712  10.330   6.661   3.418
29625SOL     OW90713  12.125  12.947  11.632
29625SOL    HW190714  12.123  13.021  11.692
29625SOL    HW290715  12.214  12.912  11.641
29626SOL     OW90716   9.604  10.930   0.568
29626SOL    HW190717   9.656  10.933   0.488
29626SOL    HW290718   9.567  10.842   0.569
29627SOL     OW90719  13.357  12.274   7.816
29627SOL    HW190720  13.277  12.299   7.771
29627SOL    HW290721  13.427  12.316   7.766
29628SOL     OW90722   3.084  14.385   7.190
29628SOL    HW190723   3.033  14.460   7.221
29628SOL    HW290724   3.027  14.309   7.205
29629SOL     OW90725   6.663   1.709   9.837
29629SOL    HW190726   6.608   1.742   9.908
29629SOL    HW290727   6.615   1.634   9.801
29630SOL     OW90728   7.285  12.340   7.818
29630SOL    HW190729   7.298  12.433   7.835
29630SOL    HW290730   7.193  12.324   7.837
29631SOL     OW90731  13.883   4.855   6.286
29631SOL    HW190732  13.811   4.795   6.268
29631SOL    HW290733  13.955   4.823   6.233
29632SOL     OW90734  14.113   3.925   0.391
29632SOL    HW190735  14.043   3.939   0.454
29632SOL    HW290736  14.113   3.831   0.375
29633SOL     OW90737  13.252   5.882  14.442
29633SOL    HW190738  13.191   5.811  14.422
29633SOL    HW290739  13.197   5.959  14.454
29634SOL     OW90740   6.812   6.838   9.116
29634SOL    HW190741   6.882   6.775   9.100
29634SOL    HW290742   6.848   6.896   9.183
29635SOL     OW90743  10.030   7.567   5.832
29635SOL    HW190744  10.025   7.498   5.898
29635SOL    HW290745   9.956   7.624   5.851
29636SOL     OW90746   7.457  10.443  11.624
29636SOL    HW190747   7.453  10.533  11.593
29636SOL    HW290748   7.366  10.419  11.642
29637SOL     OW90749  13.708   9.682   6.725
29637SOL    HW190750  13.795   9.666   6.690
29637SOL    HW290751  13.699   9.620   6.797
29638SOL     OW90752   7.192   0.004  14.337
29638SOL    HW190753   7.188  14.783  14.320
29638SOL    HW290754   7.137   0.017  14.414
29639SOL     OW90755  12.832   6.541   1.346
29639SOL    HW190756  12.740   6.562   1.333
29639SOL    HW290757  12.861   6.602   1.414
29640SOL     OW90758   2.044   0.964  10.886
29640SOL    HW190759   2.088   0.917  10.957
29640SOL    HW290760   2.016   1.047  10.925
29641SOL     OW90761   2.135   1.108  11.737
29641SOL    HW190762   2.171   1.141  11.655
29641SOL    HW290763   2.175   1.161  11.805
29642SOL     OW90764  14.013   9.895  11.024
29642SOL    HW190765  14.056   9.969  11.066
29642SOL    HW290766  14.080   9.828  11.017
29643SOL     OW90767   4.786  10.432   7.538
29643SOL    HW190768   4.860  10.435   7.599
29643SOL    HW290769   4.764  10.523   7.522
29644SOL     OW90770   7.349   2.449  14.415
29644SOL    HW190771   7.438   2.424  14.388
29644SOL    HW290772   7.297   2.370  14.402
29645SOL     OW90773   5.721  11.615   8.530
29645SOL    HW190774   5.666  11.693   8.535
29645SOL    HW290775   5.678  11.560   8.464
29646SOL     OW90776   9.141   0.724   4.600
29646SOL    HW190777   9.166   0.640   4.640
29646SOL    HW290778   9.083   0.765   4.663
29647SOL     OW90779   1.524   5.844   1.672
29647SOL    HW190780   1.480   5.918   1.630
29647SOL    HW290781   1.473   5.767   1.646
29648SOL     OW90782   5.254   3.396  10.028
29648SOL    HW190783   5.242   3.420   9.936
29648SOL    HW290784   5.182   3.440  10.074
29649SOL     OW90785  11.397   8.545   3.365
29649SOL    HW190786  11.415   8.452   3.352
29649SOL    HW290787  11.472   8.578   3.414
29650SOL     OW90788  12.772   0.432  11.294
29650SOL    HW190789  12.825   0.354  11.311
29650SOL    HW290790  12.800   0.461  11.208
29651SOL     OW90791   8.107  11.039   7.498
29651SOL    HW190792   8.084  10.946   7.488
29651SOL    HW290793   8.183  11.040   7.555
29652SOL     OW90794  12.854   9.536  12.828
29652SOL    HW190795  12.807   9.549  12.747
29652SOL    HW290796  12.820   9.453  12.862
29653SOL     OW90797   3.581   2.799   3.654
29653SOL    HW190798   3.515   2.731   3.670
29653SOL    HW290799   3.581   2.851   3.735
29654SOL     OW90800   3.484  10.597   3.728
29654SOL    HW190801   3.428  10.523   3.751
29654SOL    HW290802   3.507  10.635   3.813
29655SOL     OW90803   7.113  12.167  11.049
29655SOL    HW190804   7.071  12.218  10.980
29655SOL    HW290805   7.184  12.121  11.005
29656SOL     OW90806  11.478   8.763   0.742
29656SOL    HW190807  11.471   8.805   0.828
29656SOL    HW290808  11.436   8.678   0.754
29657SOL     OW90809   7.288   7.544  13.960
29657SOL    HW190810   7.345   7.467  13.962
29657SOL    HW290811   7.242   7.541  14.044
29658SOL     OW90812  10.963   9.279   1.567
29658SOL    HW190813  11.028   9.209   1.560
29658SOL    HW290814  11.013   9.360   1.553
29659SOL     OW90815   7.857   9.219   5.078
29659SOL    HW190816   7.857   9.127   5.104
29659SOL    HW290817   7.939   9.231   5.031
29660SOL     OW90818  12.293   9.596  10.534
29660SOL    HW190819  12.223   9.648  10.574
29660SOL    HW290820  12.306   9.523  10.594
29661SOL     OW90821  13.658  11.830   8.061
29661SOL    HW190822  13.653  11.911   8.111
29661SOL    HW290823  13.752  11.816   8.048
29662SOL     OW90824  11.626  14.089  11.163
29662SOL    HW190825  11.675  14.125  11.236
29662SOL    HW290826  11.687  14.091  11.089
29663SOL     OW90827   6.631  13.214  13.717
29663SOL    HW190828   6.665  13.296  13.752
29663SOL    HW290829   6.537  13.218  13.734
29664SOL     OW90830   6.743   5.526  12.986
29664SOL    HW190831   6.662   5.491  13.024
29664SOL    HW290832   6.714   5.600  12.933
29665SOL     OW90833   1.192  11.493   6.814
29665SOL    HW190834   1.146  11.504   6.731
29665SOL    HW290835   1.234  11.577   6.830
29666SOL     OW90836   6.882  10.562  11.681
29666SOL    HW190837   6.919  10.627  11.621
29666SOL    HW290838   6.887  10.480  11.632
29667SOL     OW90839  10.282   2.485   5.212
29667SOL    HW190840  10.296   2.559   5.270
29667SOL    HW290841  10.189   2.464   5.221
29668SOL     OW90842   0.903   7.593   2.714
29668SOL    HW190843   0.995   7.569   2.729
29668SOL    HW290844   0.900   7.622   2.623
29669SOL     OW90845   7.170   7.516   1.789
29669SOL    HW190846   7.149   7.560   1.872
29669SOL    HW290847   7.110   7.554   1.726
29670SOL     OW90848   6.942   2.962   6.896
29670SOL    HW190849   6.878   2.897   6.867
29670SOL    HW290850   7.019   2.946   6.840
29671SOL     OW90851  11.129   9.005   8.841
29671SOL    HW190852  11.069   9.022   8.913
29671SOL    HW290853  11.208   8.970   8.883
29672SOL     OW90854   6.406   7.531   2.801
29672SOL    HW190855   6.470   7.464   2.778
29672SOL    HW290856   6.442   7.574   2.879
29673SOL     OW90857  14.010   2.162  13.714
29673SOL    HW190858  14.070   2.090  13.693
29673SOL    HW290859  14.010   2.166  13.810
29674SOL     OW90860   4.355   5.960  12.079
29674SOL    HW190861   4.431   6.011  12.106
29674SOL    HW290862   4.281   6.001  12.124
29675SOL     OW90863   2.656  12.045   7.628
29675SOL    HW190864   2.609  11.996   7.696
29675SOL    HW290865   2.742  12.004   7.624
29676SOL     OW90866   4.403   1.284   7.551
29676SOL    HW190867   4.315   1.256   7.527
29676SOL    HW290868   4.407   1.376   7.525
29677SOL     OW90869   4.181  10.516  11.067
29677SOL    HW190870   4.248  10.483  11.127
29677SOL    HW290871   4.217  10.502  10.980
29678SOL     OW90872   8.818   1.162   2.027
29678SOL    HW190873   8.856   1.216   1.958
29678SOL    HW290874   8.877   1.174   2.102
29679SOL     OW90875   2.908  13.577   4.420
29679SOL    HW190876   2.979  13.514   4.430
29679SOL    HW290877   2.880  13.567   4.329
29680SOL     OW90878  13.901   9.344   9.450
29680SOL    HW190879  13.986   9.383   9.432
29680SOL    HW290880  13.921   9.258   9.488
29681SOL     OW90881   7.648  11.959   3.195
29681SOL    HW190882   7.605  11.938   3.112
29681SOL    HW290883   7.702  11.882   3.214
29682SOL     OW90884   2.446   4.745   1.944
29682SOL    HW190885   2.461   4.734   1.851
29682SOL    HW290886   2.504   4.817   1.969
29683SOL     OW90887   4.298  13.866   8.743
29683SOL    HW190888   4.281  13.959   8.728
29683SOL    HW290889   4.359  13.865   8.816
29684SOL     OW90890   5.966   8.019   8.488
29684SOL    HW190891   5.950   8.022   8.393
29684SOL    HW290892   5.989   7.928   8.505
29685SOL     OW90893   4.436  13.370   8.236
29685SOL    HW190894   4.525  13.370   8.200
29685SOL    HW290895   4.446  13.333   8.323
29686SOL     OW90896   2.831   1.599   5.188
29686SOL    HW190897   2.757   1.653   5.216
29686SOL    HW290898   2.800   1.509   5.198
29687SOL     OW90899  10.189   4.497   4.395
29687SOL    HW190900  10.140   4.469   4.472
29687SOL    HW290901  10.159   4.586   4.377
29688SOL     OW90902   2.967  12.646   5.757
29688SOL    HW190903   2.959  12.588   5.833
29688SOL    HW290904   2.908  12.609   5.692
29689SOL     OW90905  13.437   9.708   4.904
29689SOL    HW190906  13.507   9.664   4.856
29689SOL    HW290907  13.398   9.639   4.957
29690SOL     OW90908  10.767   9.568   3.584
29690SOL    HW190909  10.770   9.610   3.498
29690SOL    HW290910  10.849   9.593   3.626
29691SOL     OW90911  12.882   4.189   2.360
29691SOL    HW190912  12.814   4.124   2.377
29691SOL    HW290913  12.899   4.182   2.266
29692SOL     OW90914   9.574   4.716  13.830
29692SOL    HW190915   9.656   4.712  13.782
29692SOL    HW290916   9.549   4.809  13.829
29693SOL     OW90917   4.230   5.366  10.698
29693SOL    HW190918   4.259   5.455  10.680
29693SOL    HW290919   4.134   5.372  10.698
29694SOL     OW90920  14.742   1.055   4.837
29694SOL    HW190921  14.754   1.146   4.812
29694SOL    HW290922  14.649   1.039   4.822
29695SOL     OW90923   1.378   8.743   0.303
29695SOL    HW190924   1.464   8.707   0.284
29695SOL    HW290925   1.350   8.784   0.222
29696SOL     OW90926   2.947   2.576   1.658
29696SOL    HW190927   2.996   2.499   1.631
29696SOL    HW290928   2.993   2.650   1.617
29697SOL     OW90929  12.370   4.987   4.557
29697SOL    HW190930  12.454   5.031   4.546
29697SOL    HW290931  12.306   5.049   4.523
29698SOL     OW90932   2.542  10.125  11.240
29698SOL    HW190933   2.458  10.129  11.285
29698SOL    HW290934   2.520  10.094  11.152
29699SOL     OW90935  10.815   9.529  14.171
29699SOL    HW190936  10.854   9.492  14.092
29699SOL    HW290937  10.889   9.549  14.228
29700SOL     OW90938   0.211  11.522  11.538
29700SOL    HW190939   0.232  11.604  11.494
29700SOL    HW290940   0.226  11.455  11.472
29701SOL     OW90941   5.459   2.402  13.774
29701SOL    HW190942   5.442   2.470  13.839
29701SOL    HW290943   5.414   2.324  13.810
29702SOL     OW90944  13.804  10.423   3.555
29702SOL    HW190945  13.851  10.470   3.624
29702SOL    HW290946  13.790  10.489   3.487
29703SOL     OW90947   0.700   0.225   8.476
29703SOL    HW190948   0.759   0.163   8.433
29703SOL    HW290949   0.743   0.310   8.466
29704SOL     OW90950   2.758   3.561   7.702
29704SOL    HW190951   2.787   3.565   7.611
29704SOL    HW290952   2.835   3.532   7.751
29705SOL     OW90953   2.366   7.172   3.890
29705SOL    HW190954   2.294   7.159   3.953
29705SOL    HW290955   2.359   7.264   3.865
29706SOL     OW90956  14.394   8.056   0.613
29706SOL    HW190957  14.359   8.137   0.575
29706SOL    HW290958  14.478   8.082   0.650
29707SOL     OW90959  10.629  11.364   6.589
29707SOL    HW190960  10.644  11.447   6.543
29707SOL    HW290961  10.657  11.381   6.679
29708SOL     OW90962  13.086  12.877  12.432
29708SOL    HW190963  13.053  12.938  12.366
29708SOL    HW290964  13.169  12.916  12.460
29709SOL     OW90965   7.403  12.270   1.777
29709SOL    HW190966   7.362  12.190   1.810
29709SOL    HW290967   7.456  12.241   1.703
29710SOL     OW90968  12.586  11.570   0.262
29710SOL    HW190969  12.569  11.643   0.202
29710SOL    HW290970  12.679  11.549   0.247
29711SOL     OW90971   9.893  14.626   1.940
29711SOL    HW190972   9.923  14.542   1.976
29711SOL    HW290973   9.963  14.653   1.880
29712SOL     OW90974   1.091   1.135   2.904
29712SOL    HW190975   1.176   1.178   2.910
29712SOL    HW290976   1.105   1.047   2.938
29713SOL     OW90977   2.823   6.448   8.899
29713SOL    HW190978   2.731   6.441   8.926
29713SOL    HW290979   2.821   6.424   8.806
29714SOL     OW90980   3.062   8.883   5.304
29714SOL    HW190981   2.998   8.954   5.311
29714SOL    HW290982   3.137   8.923   5.260
29715SOL     OW90983  13.532  14.544   1.931
29715SOL    HW190984  13.480  14.477   1.977
29715SOL    HW290985  13.563  14.500   1.852
29716SOL     OW90986   0.542   3.587   8.560
29716SOL    HW190987   0.511   3.676   8.547
29716SOL    HW290988   0.516   3.565   8.650
29717SOL     OW90989  10.655  12.995   1.305
29717SOL    HW190990  10.727  13.001   1.242
29717SOL    HW290991  10.592  13.060   1.276
29718SOL     OW90992  13.582   4.259  10.378
29718SOL    HW190993  13.534   4.216  10.448
29718SOL    HW290994  13.668   4.277  10.416
29719SOL     OW90995   7.601   2.078   6.992
29719SOL    HW190996   7.589   2.157   6.939
29719SOL    HW290997   7.566   2.007   6.939
29720SOL     OW90998  11.091   0.224   6.054
29720SOL    HW190999  11.028   0.281   6.010
29720SOL    HW291000  11.176   0.266   6.040
29721SOL     OW91001  13.169  13.806   3.940
29721SOL    HW191002  13.189  13.712   3.936
29721SOL    HW291003  13.198  13.840   3.855
29722SOL     OW91004   4.337   2.410   8.063
29722SOL    HW191005   4.406   2.464   8.025
29722SOL    HW291006   4.383   2.339   8.107
29723SOL     OW91007   3.770  10.217  13.265
29723SOL    HW191008   3.729  10.151  13.209
29723SOL    HW291009   3.862  10.193  13.266
29724SOL     OW91010   6.095   0.859   0.903
29724SOL    HW191011   6.176   0.811   0.919
29724SOL    HW291012   6.052   0.861   0.989
29725SOL     OW91013  13.172   7.415   0.357
29725SOL    HW191014  13.077   7.418   0.368
29725SOL    HW291015  13.186   7.428   0.263
29726SOL     OW91016   9.236   4.906   5.008
29726SOL    HW191017   9.246   4.877   4.917
29726SOL    HW291018   9.177   4.981   5.003
29727SOL     OW91019  13.657   5.550   6.786
29727SOL    HW191020  13.592   5.619   6.776
29727SOL    HW291021  13.673   5.545   6.880
29728SOL     OW91022   5.042  10.344  11.230
29728SOL    HW191023   5.071  10.396  11.155
29728SOL    HW291024   5.091  10.262  11.223
29729SOL     OW91025   9.003  13.406   7.341
29729SOL    HW191026   9.079  13.389   7.398
29729SOL    HW291027   8.947  13.329   7.353
29730SOL     OW91028   8.031   1.661   2.263
29730SOL    HW191029   8.096   1.593   2.243
29730SOL    HW291030   7.954   1.636   2.213
29731SOL     OW91031   1.201   7.975  10.049
29731SOL    HW191032   1.272   7.916  10.025
29731SOL    HW291033   1.179   8.020   9.967
29732SOL     OW91034   6.104   3.636  14.280
29732SOL    HW191035   6.076   3.545  14.292
29732SOL    HW291036   6.075   3.658  14.191
29733SOL     OW91037   0.481   5.394  11.023
29733SOL    HW191038   0.521   5.467  10.975
29733SOL    HW291039   0.487   5.319  10.963
29734SOL     OW91040  10.113   5.902   5.594
29734SOL    HW191041  10.110   5.819   5.640
29734SOL    HW291042  10.081   5.966   5.657
29735SOL     OW91043   0.634   1.714   2.406
29735SOL    HW191044   0.577   1.744   2.335
29735SOL    HW291045   0.659   1.625   2.381
29736SOL     OW91046  10.373   5.491   9.576
29736SOL    HW191047  10.340   5.543   9.650
29736SOL    HW291048  10.307   5.504   9.507
29737SOL     OW91049  14.459  12.062   8.598
29737SOL    HW191050  14.419  11.986   8.641
29737SOL    HW291051  14.539  12.028   8.558
29738SOL     OW91052  11.539   3.417   0.453
29738SOL    HW191053  11.487   3.462   0.386
29738SOL    HW291054  11.626   3.410   0.415
29739SOL     OW91055  14.736   5.180   5.348
29739SOL    HW191056  14.831   5.192   5.359
29739SOL    HW291057  14.725   5.085   5.341
29740SOL     OW91058   3.886   3.408  13.240
29740SOL    HW191059   3.976   3.441  13.243
29740SOL    HW291060   3.831   3.486  13.241
29741SOL     OW91061   1.156   3.478  11.238
29741SOL    HW191062   1.165   3.570  11.211
29741SOL    HW291063   1.207   3.472  11.319
29742SOL     OW91064   5.068  11.235   1.515
29742SOL    HW191065   5.073  11.314   1.462
29742SOL    HW291066   4.977  11.230   1.544
29743SOL     OW91067   4.646   0.994  11.980
29743SOL    HW191068   4.648   1.054  11.906
29743SOL    HW291069   4.725   0.941  11.970
29744SOL     OW91070  11.427   4.887  12.093
29744SOL    HW191071  11.480   4.837  12.031
29744SOL    HW291072  11.412   4.826  12.166
29745SOL     OW91073  12.356   5.108  14.683
29745SOL    HW191074  12.358   5.082  14.775
29745SOL    HW291075  12.421   5.053  14.640
29746SOL     OW91076  11.525  11.132   7.822
29746SOL    HW191077  11.558  11.127   7.733
29746SOL    HW291078  11.494  11.044   7.842
29747SOL     OW91079   3.271   9.446   5.693
29747SOL    HW191080   3.326   9.396   5.754
29747SOL    HW291081   3.332   9.502   5.646
29748SOL     OW91082   6.854   5.372   8.062
29748SOL    HW191083   6.877   5.413   7.979
29748SOL    HW291084   6.829   5.444   8.119
29749SOL     OW91085   8.942  12.962   7.218
29749SOL    HW191086   8.901  13.032   7.268
29749SOL    HW291087   8.942  12.993   7.128
29750SOL     OW91088  14.233   4.142   8.539
29750SOL    HW191089  14.165   4.156   8.472
29750SOL    HW291090  14.247   4.229   8.576
29751SOL     OW91091   2.779  13.210   4.617
29751SOL    HW191092   2.739  13.202   4.703
29751SOL    HW291093   2.862  13.255   4.633
29752SOL     OW91094   2.372   8.162  10.093
29752SOL    HW191095   2.386   8.119  10.009
29752SOL    HW291096   2.439   8.230  10.096
29753SOL     OW91097   7.009   4.585  11.326
29753SOL    HW191098   7.100   4.609  11.345
29753SOL    HW291099   7.001   4.596  11.231
29754SOL     OW91100   8.066  12.744   4.035
29754SOL    HW191101   7.980  12.782   4.049
29754SOL    HW291102   8.113  12.758   4.118
29755SOL     OW91103   4.705  13.332   0.834
29755SOL    HW191104   4.796  13.318   0.807
29755SOL    HW291105   4.654  13.312   0.755
29756SOL     OW91106   8.610   9.066   3.299
29756SOL    HW191107   8.523   9.093   3.326
29756SOL    HW291108   8.607   8.970   3.298
29757SOL     OW91109   3.213   2.120  10.015
29757SOL    HW191110   3.126   2.113  10.052
29757SOL    HW291111   3.266   2.057  10.064
29758SOL     OW91112  13.821   3.925   5.375
29758SOL    HW191113  13.743   3.924   5.431
29758SOL    HW291114  13.875   3.996   5.410
29759SOL     OW91115  14.280   6.590   8.672
29759SOL    HW191116  14.319   6.513   8.629
29759SOL    HW291117  14.314   6.588   8.761
29760SOL     OW91118  10.094  11.088   0.933
29760SOL    HW191119  10.062  11.174   0.905
29760SOL    HW291120  10.025  11.054   0.989
29761SOL     OW91121   0.462   8.604   5.715
29761SOL    HW191122   0.382   8.647   5.745
29761SOL    HW291123   0.445   8.511   5.727
29762SOL     OW91124   3.542  11.047  14.656
29762SOL    HW191125   3.473  10.993  14.694
29762SOL    HW291126   3.591  11.079  14.732
29763SOL     OW91127   7.917   1.397  12.761
29763SOL    HW191128   7.912   1.343  12.839
29763SOL    HW291129   7.827   1.408  12.732
29764SOL     OW91130  13.416   9.466   1.724
29764SOL    HW191131  13.408   9.394   1.662
29764SOL    HW291132  13.455   9.425   1.802
29765SOL     OW91133   6.932  14.279   8.711
29765SOL    HW191134   6.858  14.305   8.767
29765SOL    HW291135   7.009  14.318   8.753
29766SOL     OW91136   3.593   3.470  14.873
29766SOL    HW191137   3.631   3.503  14.791
29766SOL    HW291138   3.594   3.545   0.059
29767SOL     OW91139   0.909   0.488   7.704
29767SOL    HW191140   0.845   0.423   7.673
29767SOL    HW291141   0.884   0.569   7.659
29768SOL     OW91142   8.740   1.675  12.324
29768SOL    HW191143   8.766   1.731  12.251
29768SOL    HW291144   8.784   1.713  12.400
29769SOL     OW91145  12.737   9.178   0.118
29769SOL    HW191146  12.763   9.086   0.122
29769SOL    HW291147  12.819   9.226   0.108
29770SOL     OW91148  10.181   8.059   6.181
29770SOL    HW191149  10.219   8.077   6.095
29770SOL    HW291150  10.098   8.108   6.181
29771SOL     OW91151  12.233  11.659  10.339
29771SOL    HW191152  12.281  11.576  10.341
29771SOL    HW291153  12.290  11.720  10.386
29772SOL     OW91154   1.461   1.259   1.127
29772SOL    HW191155   1.377   1.265   1.174
29772SOL    HW291156   1.522   1.226   1.193
29773SOL     OW91157   3.200   0.007  12.419
29773SOL    HW191158   3.293   0.000  12.394
29773SOL    HW291159   3.174   0.094  12.388
29774SOL     OW91160   9.174   5.371   7.361
29774SOL    HW191161   9.104   5.406   7.415
29774SOL    HW291162   9.136   5.294   7.319
29775SOL     OW91163  13.505  10.025  14.226
29775SOL    HW191164  13.524   9.960  14.159
29775SOL    HW291165  13.415  10.052  14.208
29776SOL     OW91166  10.494   3.608   4.626
29776SOL    HW191167  10.472   3.517   4.607
29776SOL    HW291168  10.493   3.651   4.540
29777SOL     OW91169  10.494  14.282  10.822
29777SOL    HW191170  10.577  14.252  10.860
29777SOL    HW291171  10.475  14.365  10.867
29778SOL     OW91172   6.201  11.088  11.611
29778SOL    HW191173   6.248  11.016  11.653
29778SOL    HW291174   6.253  11.110  11.534
29779SOL     OW91175  13.996  12.313   6.058
29779SOL    HW191176  13.909  12.341   6.029
29779SOL    HW291177  14.055  12.381   6.026
29780SOL     OW91178   4.246   3.338   8.058
29780SOL    HW191179   4.315   3.305   8.000
29780SOL    HW291180   4.220   3.262   8.110
29781SOL     OW91181   7.980   5.326  12.438
29781SOL    HW191182   7.968   5.233  12.458
29781SOL    HW291183   7.949   5.372  12.516
29782SOL     OW91184  12.017  14.213   5.208
29782SOL    HW191185  11.967  14.293   5.194
29782SOL    HW291186  12.006  14.163   5.127
29783SOL     OW91187  10.802   8.280   1.401
29783SOL    HW191188  10.807   8.321   1.488
29783SOL    HW291189  10.812   8.353   1.340
29784SOL     OW91190   1.243  12.213  14.793
29784SOL    HW191191   1.224  12.238   0.010
29784SOL    HW291192   1.338  12.224  14.784
29785SOL     OW91193   0.169   8.876   0.458
29785SOL    HW191194   0.084   8.842   0.485
29785SOL    HW291195   0.171   8.966   0.492
29786SOL     OW91196   1.371  14.643   9.394
29786SOL    HW191197   1.449  14.659   9.341
29786SOL    HW291198   1.366  14.547   9.400
29787SOL     OW91199   6.376  13.196  13.400
29787SOL    HW191200   6.285  13.181  13.376
29787SOL    HW291201   6.405  13.113  13.438
29788SOL     OW91202   4.041   6.037   5.641
29788SOL    HW191203   3.984   5.960   5.630
29788SOL    HW291204   4.091   6.019   5.721
29789SOL     OW91205  14.668   5.073  13.170
29789SOL    HW191206  14.623   4.995  13.204
29789SOL    HW291207  14.633   5.145  13.223
29790SOL     OW91208   8.936   6.375   3.789
29790SOL    HW191209   8.955   6.282   3.803
29790SOL    HW291210   8.922   6.383   3.694
29791SOL     OW91211   4.459   9.558   6.450
29791SOL    HW191212   4.367   9.538   6.466
29791SOL    HW291213   4.469   9.649   6.476
29792SOL     OW91214  11.519  13.288   4.277
29792SOL    HW191215  11.549  13.272   4.187
29792SOL    HW291216  11.426  13.264   4.275
29793SOL     OW91217   9.945   3.779   4.630
29793SOL    HW191218  10.034   3.809   4.650
29793SOL    HW291219   9.917   3.834   4.557
29794SOL     OW91220   7.656   0.417   4.335
29794SOL    HW191221   7.696   0.478   4.273
29794SOL    HW291222   7.675   0.331   4.299
29795SOL     OW91223   9.801   3.738   7.672
29795SOL    HW191224   9.806   3.655   7.719
29795SOL    HW291225   9.794   3.804   7.741
29796SOL     OW91226  12.155   2.054  14.708
29796SOL    HW191227  12.087   2.089  14.765
29796SOL    HW291228  12.185   1.975  14.753
29797SOL     OW91229   7.348   5.653  10.653
29797SOL    HW191230   7.300   5.694  10.580
29797SOL    HW291231   7.403   5.588  10.611
29798SOL     OW91232   8.473   3.091   5.899
29798SOL    HW191233   8.509   3.010   5.863
29798SOL    HW291234   8.378   3.083   5.886
29799SOL     OW91235   9.454  13.796  13.301
29799SOL    HW191236   9.475  13.839  13.384
29799SOL    HW291237   9.421  13.866  13.246
29800SOL     OW91238   9.902   7.728   4.537
29800SOL    HW191239   9.834   7.795   4.542
29800SOL    HW291240   9.887   7.685   4.452
29801SOL     OW91241   2.663   9.274   6.913
29801SOL    HW191242   2.741   9.219   6.908
29801SOL    HW291243   2.696   9.363   6.926
29802SOL     OW91244   8.743  10.013   3.931
29802SOL    HW191245   8.688  10.071   3.878
29802SOL    HW291246   8.691   9.933   3.939
29803SOL     OW91247   3.265   8.903  11.239
29803SOL    HW191248   3.237   8.991  11.263
29803SOL    HW291249   3.184   8.859  11.213
29804SOL     OW91250  12.321   0.886   9.559
29804SOL    HW191251  12.416   0.894   9.571
29804SOL    HW291252  12.284   0.943   9.626
29805SOL     OW91253  10.249   2.079   8.674
29805SOL    HW191254  10.192   2.087   8.598
29805SOL    HW291255  10.338   2.078   8.638
29806SOL     OW91256  12.700  14.506  10.854
29806SOL    HW191257  12.654  14.422  10.857
29806SOL    HW291258  12.663  14.556  10.927
29807SOL     OW91259   0.668  13.176  12.184
29807SOL    HW191260   0.644  13.268  12.193
29807SOL    HW291261   0.629  13.133  12.260
29808SOL     OW91262   8.473   4.643   0.461
29808SOL    HW191263   8.545   4.667   0.402
29808SOL    HW291264   8.447   4.725   0.501
29809SOL     OW91265   0.454   8.249   1.772
29809SOL    HW191266   0.512   8.182   1.737
29809SOL    HW291267   0.408   8.284   1.695
29810SOL     OW91268   3.786   4.796  14.539
29810SOL    HW191269   3.774   4.863  14.473
29810SOL    HW291270   3.862   4.746  14.510
29811SOL     OW91271  14.132   3.607   8.036
29811SOL    HW191272  14.175   3.543   7.979
29811SOL    HW291273  14.184   3.606   8.117
29812SOL     OW91274   2.822   5.340   1.367
29812SOL    HW191275   2.903   5.391   1.367
29812SOL    HW291276   2.810   5.315   1.459
29813SOL     OW91277   3.804   5.348   8.653
29813SOL    HW191278   3.889   5.347   8.698
29813SOL    HW291279   3.761   5.427   8.685
29814SOL     OW91280  10.273  11.336  10.814
29814SOL    HW191281  10.181  11.359  10.825
29814SOL    HW291282  10.281  11.315  10.721
29815SOL     OW91283  11.498  10.440  14.098
29815SOL    HW191284  11.511  10.402  14.185
29815SOL    HW291285  11.571  10.501  14.088
29816SOL     OW91286   6.023  13.291   4.672
29816SOL    HW191287   6.091  13.240   4.628
29816SOL    HW291288   6.062  13.377   4.684
29817SOL     OW91289   5.133   0.829   8.080
29817SOL    HW191290   5.059   0.842   8.021
29817SOL    HW291291   5.196   0.897   8.055
29818SOL     OW91292   8.506  10.218   3.009
29818SOL    HW191293   8.463  10.250   2.930
29818SOL    HW291294   8.597  10.204   2.983
29819SOL     OW91295   6.893   3.132  12.329
29819SOL    HW191296   6.979   3.102  12.299
29819SOL    HW291297   6.902   3.227  12.334
29820SOL     OW91298   8.310   4.870   1.247
29820SOL    HW191299   8.372   4.835   1.183
29820SOL    HW291300   8.272   4.946   1.205
29821SOL     OW91301   3.446   5.372  13.747
29821SOL    HW191302   3.470   5.427  13.822
29821SOL    HW291303   3.525   5.323  13.726
29822SOL     OW91304   5.925   6.020   6.516
29822SOL    HW191305   5.932   6.002   6.609
29822SOL    HW291306   6.014   6.045   6.489
29823SOL     OW91307   3.431   0.806   7.301
29823SOL    HW191308   3.373   0.736   7.329
29823SOL    HW291309   3.516   0.784   7.340
29824SOL     OW91310   6.534   8.798   3.699
29824SOL    HW191311   6.592   8.874   3.698
29824SOL    HW291312   6.449   8.833   3.724
29825SOL     OW91313  13.093   1.717   1.912
29825SOL    HW191314  13.063   1.711   1.822
29825SOL    HW291315  13.187   1.697   1.908
29826SOL     OW91316   2.993   1.405   0.294
29826SOL    HW191317   3.073   1.451   0.320
29826SOL    HW291318   2.944   1.394   0.376
29827SOL     OW91319   3.240  11.526  12.015
29827SOL    HW191320   3.275  11.500  12.099
29827SOL    HW291321   3.220  11.444  11.970
29828SOL     OW91322  11.847   9.299   2.561
29828SOL    HW191323  11.925   9.263   2.603
29828SOL    HW291324  11.869   9.391   2.543
29829SOL     OW91325  10.688   3.542  13.598
29829SOL    HW191326  10.643   3.538  13.514
29829SOL    HW291327  10.764   3.599  13.583
29830SOL     OW91328   3.957   3.485   0.159
29830SOL    HW191329   3.931   3.434   0.236
29830SOL    HW291330   4.052   3.492   0.166
29831SOL     OW91331   2.389  14.773   4.945
29831SOL    HW191332   2.411  14.681   4.927
29831SOL    HW291333   2.422  14.788   5.033
29832SOL     OW91334   3.946  13.616   0.679
29832SOL    HW191335   4.010  13.688   0.680
29832SOL    HW291336   3.940  13.587   0.770
29833SOL     OW91337   6.721   2.961  13.179
29833SOL    HW191338   6.806   3.000  13.161
29833SOL    HW291339   6.738   2.889  13.239
29834SOL     OW91340  10.073   3.313  10.614
29834SOL    HW191341  10.034   3.377  10.555
29834SOL    HW291342  10.013   3.309  10.689
29835SOL     OW91343   9.250  10.952   4.080
29835SOL    HW191344   9.318  11.000   4.126
29835SOL    HW291345   9.188  11.019   4.050
29836SOL     OW91346   3.845   1.080   8.131
29836SOL    HW191347   3.818   1.171   8.117
29836SOL    HW291348   3.932   1.087   8.171
29837SOL     OW91349   0.233  10.597  13.164
29837SOL    HW191350   0.260  10.567  13.078
29837SOL    HW291351   0.313  10.633  13.202
29838SOL     OW91352   1.694   9.741   4.001
29838SOL    HW191353   1.747   9.662   3.996
29838SOL    HW291354   1.752   9.807   4.039
29839SOL     OW91355   5.045  13.578   6.955
29839SOL    HW191356   5.077  13.490   6.976
29839SOL    HW291357   5.046  13.581   6.859
29840SOL     OW91358  14.646   5.844  11.094
29840SOL    HW191359  14.664   5.763  11.142
29840SOL    HW291360  14.558   5.833  11.059
29841SOL     OW91361  11.543   9.250   0.129
29841SOL    HW191362  11.474   9.294   0.078
29841SOL    HW291363  11.568   9.175   0.075
29842SOL     OW91364  12.788   7.696   0.639
29842SOL    HW191365  12.707   7.736   0.607
29842SOL    HW291366  12.771   7.677   0.731
29843SOL     OW91367   1.719   9.976   2.793
29843SOL    HW191368   1.694   9.899   2.741
29843SOL    HW291369   1.636  10.022   2.810
29844SOL     OW91370  11.136   9.107   5.511
29844SOL    HW191371  11.076   9.049   5.558
29844SOL    HW291372  11.139   9.186   5.564
29845SOL     OW91373   4.468   8.035   5.486
29845SOL    HW191374   4.376   8.009   5.499
29845SOL    HW291375   4.468   8.079   5.401
29846SOL     OW91376  12.668   2.312   2.914
29846SOL    HW191377  12.671   2.408   2.921
29846SOL    HW291378  12.592   2.294   2.859
29847SOL     OW91379   1.953   5.959   9.935
29847SOL    HW191380   1.912   5.954  10.022
29847SOL    HW291381   1.879   5.959   9.874
29848SOL     OW91382   9.691  14.228   8.237
29848SOL    HW191383   9.625  14.177   8.284
29848SOL    HW291384   9.689  14.314   8.279
29849SOL     OW91385  13.041  14.050  10.402
29849SOL    HW191386  13.090  14.084  10.477
29849SOL    HW291387  13.091  14.078  10.326
29850SOL     OW91388   0.582   4.692  14.482
29850SOL    HW191389   0.596   4.634  14.557
29850SOL    HW291390   0.670   4.705  14.445
29851SOL     OW91391   8.373  13.286   1.824
29851SOL    HW191392   8.430  13.325   1.890
29851SOL    HW291393   8.425  13.287   1.743
29852SOL     OW91394   1.069   3.694   7.039
29852SOL    HW191395   1.046   3.601   7.043
29852SOL    HW291396   0.985   3.740   7.050
29853SOL     OW91397   7.653   2.683   1.482
29853SOL    HW191398   7.697   2.685   1.396
29853SOL    HW291399   7.567   2.646   1.463
29854SOL     OW91400   4.856   9.989  10.400
29854SOL    HW191401   4.913  10.065  10.408
29854SOL    HW291402   4.781  10.009  10.457
29855SOL     OW91403  12.807   2.435   7.777
29855SOL    HW191404  12.856   2.517   7.767
29855SOL    HW291405  12.723   2.461   7.814
29856SOL     OW91406  10.233   5.972   9.864
29856SOL    HW191407  10.223   5.999   9.772
29856SOL    HW291408  10.238   6.054   9.913
29857SOL     OW91409   0.026   3.526   3.674
29857SOL    HW191410  14.843   3.527   3.752
29857SOL    HW291411  14.871   3.603   3.623
29858SOL     OW91412   9.595   8.237   2.994
29858SOL    HW191413   9.567   8.246   2.903
29858SOL    HW291414   9.541   8.300   3.042
29859SOL     OW91415   7.006  10.217   0.685
29859SOL    HW191416   6.973  10.233   0.597
29859SOL    HW291417   6.931  10.179   0.732
29860SOL     OW91418   9.693   0.648   9.453
29860SOL    HW191419   9.748   0.698   9.392
29860SOL    HW291420   9.660   0.713   9.514
29861SOL     OW91421   5.750  10.473   0.444
29861SOL    HW191422   5.757  10.450   0.351
29861SOL    HW291423   5.744  10.568   0.445
29862SOL     OW91424   0.829   8.895   6.563
29862SOL    HW191425   0.821   8.800   6.548
29862SOL    HW291426   0.869   8.928   6.483
29863SOL     OW91427  13.174  11.658   4.784
29863SOL    HW191428  13.106  11.718   4.816
29863SOL    HW291429  13.143  11.571   4.811
29864SOL     OW91430   9.884   4.643   0.914
29864SOL    HW191431   9.933   4.661   0.994
29864SOL    HW291432   9.833   4.565   0.934
29865SOL     OW91433   7.795   5.905  12.866
29865SOL    HW191434   7.764   5.983  12.819
29865SOL    HW291435   7.731   5.838  12.846
29866SOL     OW91436   5.998   3.252   4.397
29866SOL    HW191437   5.996   3.291   4.310
29866SOL    HW291438   6.015   3.159   4.381
29867SOL     OW91439   9.765  10.738   8.304
29867SOL    HW191440   9.756  10.661   8.248
29867SOL    HW291441   9.851  10.775   8.281
29868SOL     OW91442   7.971  11.907   7.658
29868SOL    HW191443   7.958  11.942   7.569
29868SOL    HW291444   8.031  11.834   7.646
29869SOL     OW91445  11.148   4.242  14.619
29869SOL    HW191446  11.073   4.184  14.621
29869SOL    HW291447  11.115   4.324  14.657
29870SOL     OW91448   9.976  11.710   3.273
29870SOL    HW191449   9.967  11.711   3.178
29870SOL    HW291450   9.891  11.682   3.306
29871SOL     OW91451  10.761   6.405   7.146
29871SOL    HW191452  10.734   6.372   7.231
29871SOL    HW291453  10.721   6.491   7.140
29872SOL     OW91454   0.739  10.565  11.254
29872SOL    HW191455   0.660  10.615  11.234
29872SOL    HW291456   0.749  10.504  11.180
29873SOL     OW91457   0.120  10.331  13.725
29873SOL    HW191458   0.136  10.376  13.807
29873SOL    HW291459   0.132  10.238  13.746
29874SOL     OW91460   4.153   1.509   7.284
29874SOL    HW191461   4.105   1.549   7.357
29874SOL    HW291462   4.242   1.500   7.316
29875SOL     OW91463   3.685   8.666   9.877
29875SOL    HW191464   3.765   8.681   9.826
29875SOL    HW291465   3.630   8.741   9.857
29876SOL     OW91466  11.692   9.979  10.076
29876SOL    HW191467  11.754   9.916  10.112
29876SOL    HW291468  11.610   9.960  10.122
29877SOL     OW91469   0.252   9.436   7.127
29877SOL    HW191470   0.298   9.457   7.208
29877SOL    HW291471   0.160   9.430   7.152
29878SOL     OW91472   1.064   0.235   2.727
29878SOL    HW191473   1.051   0.329   2.728
29878SOL    HW291474   0.982   0.199   2.692
29879SOL     OW91475   2.900   7.948   2.349
29879SOL    HW191476   2.928   7.987   2.432
29879SOL    HW291477   2.816   7.990   2.330
29880SOL     OW91478   4.585   0.452  10.323
29880SOL    HW191479   4.533   0.387  10.276
29880SOL    HW291480   4.659   0.470  10.265
29881SOL     OW91481  12.769  13.537  12.798
29881SOL    HW191482  12.687  13.586  12.789
29881SOL    HW291483  12.837  13.604  12.790
29882SOL     OW91484   3.515   5.523   8.101
29882SOL    HW191485   3.535   5.557   8.188
29882SOL    HW291486   3.581   5.455   8.086
29883SOL     OW91487   1.386   0.086  13.987
29883SOL    HW191488   1.458   0.080  14.049
29883SOL    HW291489   1.382  14.873  13.945
29884SOL     OW91490   0.211   4.693  11.300
29884SOL    HW191491   0.284   4.647  11.340
29884SOL    HW291492   0.137   4.633  11.308
29885SOL     OW91493   7.730  12.560   0.930
29885SOL    HW191494   7.673  12.543   1.005
29885SOL    HW291495   7.683  12.522   0.856
29886SOL     OW91496  10.712  11.622   4.117
29886SOL    HW191497  10.792  11.589   4.159
29886SOL    HW291498  10.683  11.549   4.062
29887SOL     OW91499   2.298   2.468  10.015
29887SOL    HW191500   2.247   2.499   9.940
29887SOL    HW291501   2.270   2.378  10.028
29888SOL     OW91502   9.567   8.424   3.235
29888SOL    HW191503   9.525   8.499   3.277
29888SOL    HW291504   9.618   8.382   3.305
29889SOL     OW91505   0.566  12.954   1.708
29889SOL    HW191506   0.513  12.887   1.752
29889SOL    HW291507   0.504  12.998   1.650
29890SOL     OW91508  14.124   7.867   0.702
29890SOL    HW191509  14.189   7.804   0.671
29890SOL    HW291510  14.157   7.952   0.673
29891SOL     OW91511   8.531  12.331   2.298
29891SOL    HW191512   8.448  12.315   2.343
29891SOL    HW291513   8.586  12.375   2.363
29892SOL     OW91514  11.868   7.975   3.027
29892SOL    HW191515  11.801   7.908   3.030
29892SOL    HW291516  11.940   7.941   3.080
29893SOL     OW91517   0.941   0.943   0.075
29893SOL    HW191518   1.029   0.980   0.068
29893SOL    HW291519   0.948   0.857   0.033
29894SOL     OW91520   7.594   5.327  13.281
29894SOL    HW191521   7.593   5.419  13.257
29894SOL    HW291522   7.679   5.295  13.249
29895SOL     OW91523   0.349   3.515  10.692
29895SOL    HW191524   0.399   3.434  10.681
29895SOL    HW291525   0.402   3.569  10.750
29896SOL     OW91526   8.750   6.097  12.537
29896SOL    HW191527   8.781   6.121  12.449
29896SOL    HW291528   8.687   6.166  12.560
29897SOL     OW91529   4.837   2.461  14.183
29897SOL    HW191530   4.762   2.462  14.241
29897SOL    HW291531   4.808   2.412  14.106
29898SOL     OW91532   7.030   2.674   3.166
29898SOL    HW191533   7.100   2.725   3.207
29898SOL    HW291534   7.017   2.599   3.224
29899SOL     OW91535   5.079  11.337   9.323
29899SOL    HW191536   5.087  11.417   9.376
29899SOL    HW291537   4.993  11.346   9.280
29900SOL     OW91538  14.382   0.325  12.981
29900SOL    HW191539  14.353   0.239  13.010
29900SOL    HW291540  14.473   0.331  13.009
29901SOL     OW91541  13.035   1.623   7.490
29901SOL    HW191542  13.065   1.537   7.520
29901SOL    HW291543  13.048   1.681   7.565
29902SOL     OW91544   5.583   4.502  11.344
29902SOL    HW191545   5.572   4.408  11.334
29902SOL    HW291546   5.676   4.514  11.360
29903SOL     OW91547   7.929   8.708  12.566
29903SOL    HW191548   8.021   8.712  12.592
29903SOL    HW291549   7.883   8.762  12.630
29904SOL     OW91550   2.669   7.516   5.474
29904SOL    HW191551   2.605   7.580   5.444
29904SOL    HW291552   2.733   7.511   5.403
29905SOL     OW91553  10.165  10.988  12.564
29905SOL    HW191554  10.190  10.921  12.501
29905SOL    HW291555  10.118  10.940  12.632
29906SOL     OW91556  12.469   4.907   4.147
29906SOL    HW191557  12.503   4.850   4.216
29906SOL    HW291558  12.379   4.925   4.173
29907SOL     OW91559   1.635  10.913  12.404
29907SOL    HW191560   1.588  10.960  12.335
29907SOL    HW291561   1.681  10.981  12.453
29908SOL     OW91562   7.581   8.297   3.064
29908SOL    HW191563   7.508   8.280   3.004
29908SOL    HW291564   7.631   8.215   3.065
29909SOL     OW91565   7.050   9.461  10.855
29909SOL    HW191566   7.107   9.386  10.839
29909SOL    HW291567   7.097   9.535  10.817
29910SOL     OW91568   3.473   8.108   0.421
29910SOL    HW191569   3.525   8.093   0.500
29910SOL    HW291570   3.535   8.143   0.357
29911SOL     OW91571   6.483   9.686   6.571
29911SOL    HW191572   6.439   9.626   6.511
29911SOL    HW291573   6.464   9.773   6.537
29912SOL     OW91574   7.535   3.754  11.950
29912SOL    HW191575   7.530   3.843  11.915
29912SOL    HW291576   7.538   3.766  12.045
29913SOL     OW91577   8.657   5.719  10.592
29913SOL    HW191578   8.632   5.811  10.593
29913SOL    HW291579   8.666   5.698  10.499
29914SOL     OW91580   2.960   6.137   2.753
29914SOL    HW191581   3.046   6.165   2.784
29914SOL    HW291582   2.971   6.044   2.733
29915SOL     OW91583   2.147   0.751   7.794
29915SOL    HW191584   2.124   0.803   7.717
29915SOL    HW291585   2.228   0.790   7.827
29916SOL     OW91586  14.772   5.976   1.228
29916SOL    HW191587  14.848   6.032   1.243
29916SOL    HW291588  14.790   5.932   1.145
29917SOL     OW91589  12.472   1.662   4.370
29917SOL    HW191590  12.536   1.593   4.351
29917SOL    HW291591  12.416   1.625   4.439
29918SOL     OW91592  13.286   4.718   8.700
29918SOL    HW191593  13.299   4.643   8.758
29918SOL    HW291594  13.227   4.775   8.748
29919SOL     OW91595  12.779  13.057  13.721
29919SOL    HW191596  12.764  13.106  13.640
29919SOL    HW291597  12.816  12.973  13.692
29920SOL     OW91598  12.600  14.399   5.241
29920SOL    HW191599  12.688  14.437   5.239
29920SOL    HW291600  12.602  14.330   5.176
29921SOL     OW91601   9.690   6.663  12.203
29921SOL    HW191602   9.698   6.748  12.246
29921SOL    HW291603   9.599   6.638  12.218
29922SOL     OW91604  12.248  12.888  11.932
29922SOL    HW191605  12.162  12.846  11.927
29922SOL    HW291606  12.310  12.818  11.917
29923SOL     OW91607   6.830   7.457  14.223
29923SOL    HW191608   6.830   7.419  14.135
29923SOL    HW291609   6.807   7.548  14.210
29924SOL     OW91610  10.253   3.952   0.192
29924SOL    HW191611  10.297   3.888   0.248
29924SOL    HW291612  10.295   4.036   0.213
29925SOL     OW91613  10.672   2.084   4.952
29925SOL    HW191614  10.593   2.137   4.968
29925SOL    HW291615  10.656   2.041   4.868
29926SOL     OW91616   8.008   0.890   1.382
29926SOL    HW191617   8.014   0.980   1.415
29926SOL    HW291618   7.918   0.864   1.399
29927SOL     OW91619   9.010  14.395   2.134
29927SOL    HW191620   9.000  14.310   2.091
29927SOL    HW291621   8.964  14.386   2.217
29928SOL     OW91622   4.325   1.252  10.172
29928SOL    HW191623   4.241   1.212  10.196
29928SOL    HW291624   4.317   1.270  10.079
29929SOL     OW91625   9.115   6.781   2.616
29929SOL    HW191626   9.067   6.862   2.631
29929SOL    HW291627   9.067   6.737   2.546
29930SOL     OW91628   3.588  13.236   7.535
29930SOL    HW191629   3.567  13.329   7.541
29930SOL    HW291630   3.504  13.194   7.519
29931SOL     OW91631   5.649   7.982   2.227
29931SOL    HW191632   5.669   8.064   2.181
29931SOL    HW291633   5.557   7.965   2.206
29932SOL     OW91634  12.092   8.527  12.737
29932SOL    HW191635  12.182   8.496  12.728
29932SOL    HW291636  12.094   8.589  12.810
29933SOL     OW91637   3.597   0.779   2.822
29933SOL    HW191638   3.506   0.802   2.802
29933SOL    HW291639   3.645   0.860   2.810
29934SOL     OW91640  12.104   8.405   3.643
29934SOL    HW191641  12.044   8.389   3.570
29934SOL    HW291642  12.047   8.440   3.712
29935SOL     OW91643  14.617  14.257   5.900
29935SOL    HW191644  14.583  14.238   5.813
29935SOL    HW291645  14.539  14.267   5.954
29936SOL     OW91646  13.516   5.614   3.141
29936SOL    HW191647  13.530   5.659   3.224
29936SOL    HW291648  13.518   5.521   3.162
29937SOL     OW91649  10.100   0.329   4.435
29937SOL    HW191650  10.113   0.260   4.370
29937SOL    HW291651  10.006   0.348   4.432
29938SOL     OW91652   7.778   0.022   9.793
29938SOL    HW191653   7.751   0.111   9.771
29938SOL    HW291654   7.721  14.870   9.866
29939SOL     OW91655  13.864   7.532   0.955
29939SOL    HW191656  13.887   7.564   0.868
29939SOL    HW291657  13.849   7.611   1.007
29940SOL     OW91658   2.611   0.582  11.929
29940SOL    HW191659   2.636   0.514  11.991
29940SOL    HW291660   2.656   0.661  11.961
29941SOL     OW91661   3.183   6.231  11.310
29941SOL    HW191662   3.238   6.204  11.237
29941SOL    HW291663   3.235   6.296  11.357
29942SOL     OW91664   9.701  14.583   9.185
29942SOL    HW191665   9.671  14.629   9.264
29942SOL    HW291666   9.647  14.505   9.180
29943SOL     OW91667   9.993  12.283   3.949
29943SOL    HW191668   9.927  12.350   3.970
29943SOL    HW291669  10.069  12.307   4.001
29944SOL     OW91670   7.892  13.291   4.556
29944SOL    HW191671   7.838  13.234   4.502
29944SOL    HW291672   7.830  13.335   4.615
29945SOL     OW91673  11.779  12.725   5.692
29945SOL    HW191674  11.735  12.773   5.762
29945SOL    HW291675  11.793  12.637   5.729
29946SOL     OW91676  11.335   9.142   8.644
29946SOL    HW191677  11.301   9.130   8.732
29946SOL    HW291678  11.268   9.193   8.599
29947SOL     OW91679  11.739  11.437   9.594
29947SOL    HW191680  11.670  11.404   9.536
29947SOL    HW291681  11.760  11.364   9.651
29948SOL     OW91682   5.313  11.961   6.559
29948SOL    HW191683   5.371  11.891   6.529
29948SOL    HW291684   5.349  12.040   6.519
29949SOL     OW91685   4.744   8.748   7.500
29949SOL    HW191686   4.765   8.796   7.420
29949SOL    HW291687   4.725   8.816   7.564
29950SOL     OW91688   2.999   9.228   7.486
29950SOL    HW191689   3.010   9.170   7.411
29950SOL    HW291690   3.016   9.171   7.562
29951SOL     OW91691   3.904  10.738   0.432
29951SOL    HW191692   3.854  10.810   0.469
29951SOL    HW291693   3.849  10.661   0.449
29952SOL     OW91694  14.777   6.517  14.246
29952SOL    HW191695  14.823   6.534  14.164
29952SOL    HW291696  14.781   6.422  14.257
29953SOL     OW91697   9.240   0.533   3.828
29953SOL    HW191698   9.220   0.622   3.857
29953SOL    HW291699   9.297   0.497   3.897
29954SOL     OW91700   0.127   6.385  10.611
29954SOL    HW191701   0.187   6.370  10.684
29954SOL    HW291702   0.163   6.332  10.540
29955SOL     OW91703   1.278  11.431   7.266
29955SOL    HW191704   1.300  11.414   7.174
29955SOL    HW291705   1.234  11.515   7.265
29956SOL     OW91706   5.948   2.868  10.653
29956SOL    HW191707   5.950   2.842  10.561
29956SOL    HW291708   5.996   2.951  10.656
29957SOL     OW91709   3.207   5.253  13.636
29957SOL    HW191710   3.174   5.193  13.703
29957SOL    HW291711   3.271   5.307  13.682
29958SOL     OW91712  11.954  10.138  12.993
29958SOL    HW191713  11.885  10.174  12.937
29958SOL    HW291714  12.034  10.146  12.941
29959SOL     OW91715   0.474  13.065  10.294
29959SOL    HW191716   0.492  12.972  10.277
29959SOL    HW291717   0.516  13.083  10.377
29960SOL     OW91718   0.844   6.835   8.620
29960SOL    HW191719   0.852   6.740   8.612
29960SOL    HW291720   0.930   6.868   8.597
29961SOL     OW91721   9.706   7.086  14.636
29961SOL    HW191722   9.725   7.180  14.633
29961SOL    HW291723   9.736   7.053  14.552
29962SOL     OW91724  12.755   7.809   4.888
29962SOL    HW191725  12.758   7.905   4.893
29962SOL    HW291726  12.755   7.781   4.979
29963SOL     OW91727   3.158  13.041   3.441
29963SOL    HW191728   3.072  13.081   3.454
29963SOL    HW291729   3.220  13.114   3.449
29964SOL     OW91730   3.632   7.290  12.543
29964SOL    HW191731   3.688   7.309  12.618
29964SOL    HW291732   3.625   7.373  12.496
29965SOL     OW91733  10.204  10.651   2.442
29965SOL    HW191734  10.153  10.571   2.431
29965SOL    HW291735  10.175  10.686   2.526
29966SOL     OW91736   5.392   2.714   4.930
29966SOL    HW191737   5.316   2.754   4.972
29966SOL    HW291738   5.372   2.620   4.927
29967SOL     OW91739  13.096   0.362   6.895
29967SOL    HW191740  13.103   0.331   6.986
29967SOL    HW291741  13.019   0.418   6.895
29968SOL     OW91742  14.763   7.635   4.341
29968SOL    HW191743  14.780   7.651   4.249
29968SOL    HW291744  14.668   7.644   4.350
29969SOL     OW91745   2.949   2.497  13.203
29969SOL    HW191746   2.973   2.466  13.290
29969SOL    HW291747   2.879   2.438  13.174
29970SOL     OW91748   6.853  12.639   8.129
29970SOL    HW191749   6.865  12.578   8.202
29970SOL    HW291750   6.884  12.591   8.052
29971SOL     OW91751   8.759   4.924   0.881
29971SOL    HW191752   8.779   4.907   0.973
29971SOL    HW291753   8.711   4.846   0.852
29972SOL     OW91754   3.487   2.666   9.762
29972SOL    HW191755   3.468   2.670   9.855
29972SOL    HW291756   3.409   2.625   9.723
29973SOL     OW91757  12.909   4.751   1.765
29973SOL    HW191758  12.886   4.816   1.698
29973SOL    HW291759  12.825   4.710   1.788
29974SOL     OW91760   7.753   9.249   9.293
29974SOL    HW191761   7.809   9.180   9.330
29974SOL    HW291762   7.664   9.224   9.320
29975SOL     OW91763   3.960  10.512   3.467
29975SOL    HW191764   4.032  10.522   3.405
29975SOL    HW291765   3.911  10.594   3.461
29976SOL     OW91766  12.549  11.752   0.054
29976SOL    HW191767  12.625  11.770  14.873
29976SOL    HW291768  12.474  11.776  14.872
29977SOL     OW91769   3.937   5.531   7.076
29977SOL    HW191770   4.029   5.507   7.089
29977SOL    HW291771   3.938   5.595   7.006
29978SOL     OW91772   6.021   1.030  14.052
29978SOL    HW191773   6.054   1.044  13.963
29978SOL    HW291774   6.001   1.119  14.084
29979SOL     OW91775  12.386   7.191   8.664
29979SOL    HW191776  12.301   7.199   8.620
29979SOL    HW291777  12.370   7.128   8.734
29980SOL     OW91778   7.383   3.011   5.495
29980SOL    HW191779   7.336   2.996   5.413
29980SOL    HW291780   7.345   3.092   5.530
29981SOL     OW91781   9.195   4.578   8.830
29981SOL    HW191782   9.206   4.619   8.744
29981SOL    HW291783   9.279   4.594   8.875
29982SOL     OW91784   1.274  10.259  13.353
29982SOL    HW191785   1.292  10.337  13.407
29982SOL    HW291786   1.356  10.210  13.354
29983SOL     OW91787  12.412   5.204  13.607
29983SOL    HW191788  12.330   5.209  13.656
29983SOL    HW291789  12.430   5.294  13.582
29984SOL     OW91790  14.685  11.004   4.540
29984SOL    HW191791  14.691  10.957   4.624
29984SOL    HW291792  14.775  11.010   4.509
29985SOL     OW91793   2.005   9.518   1.677
29985SOL    HW191794   2.027   9.511   1.584
29985SOL    HW291795   1.988   9.428   1.704
29986SOL     OW91796  13.320  10.955   4.297
29986SOL    HW191797  13.286  11.028   4.348
29986SOL    HW291798  13.253  10.887   4.304
29987SOL     OW91799  11.721   5.477   2.204
29987SOL    HW191800  11.773   5.461   2.283
29987SOL    HW291801  11.719   5.393   2.159
29988SOL     OW91802   5.257   7.831   5.522
29988SOL    HW191803   5.247   7.850   5.429
29988SOL    HW291804   5.167   7.831   5.556
29989SOL     OW91805   5.034   2.092  11.837
29989SOL    HW191806   4.998   2.160  11.779
29989SOL    HW291807   4.959   2.064  11.889
29990SOL     OW91808   5.035   8.390  11.797
29990SOL    HW191809   4.949   8.353  11.777
29990SOL    HW291810   5.021   8.442  11.877
29991SOL     OW91811   0.247   3.054   8.813
29991SOL    HW191812   0.319   3.022   8.868
29991SOL    HW291813   0.268   3.146   8.796
29992SOL     OW91814  11.180   1.603   8.482
29992SOL    HW191815  11.178   1.697   8.498
29992SOL    HW291816  11.245   1.592   8.413
29993SOL     OW91817   0.378   3.735  12.487
29993SOL    HW191818   0.358   3.749  12.395
29993SOL    HW291819   0.456   3.679  12.487
29994SOL     OW91820   1.481   3.721  11.665
29994SOL    HW191821   1.506   3.714  11.757
29994SOL    HW291822   1.537   3.791  11.631
29995SOL     OW91823  14.491   1.087   9.452
29995SOL    HW191824  14.439   1.093   9.372
29995SOL    HW291825  14.465   1.003   9.492
29996SOL     OW91826   1.469   7.219   2.900
29996SOL    HW191827   1.528   7.197   2.827
29996SOL    HW291828   1.384   7.184   2.873
29997SOL     OW91829   3.252   5.322   5.186
29997SOL    HW191830   3.293   5.237   5.196
29997SOL    HW291831   3.318   5.385   5.215
29998SOL     OW91832   2.888   4.500   7.055
29998SOL    HW191833   2.875   4.593   7.077
29998SOL    HW291834   2.809   4.457   7.087
29999SOL     OW91835  11.868  14.466   7.520
29999SOL    HW191836  11.864  14.416   7.439
29999SOL    HW291837  11.948  14.436   7.563
30000SOL     OW91838  12.642   0.326   3.607
30000SOL    HW191839  12.697   0.378   3.666
30000SOL    HW291840  12.665   0.357   3.519
30001SOL     OW91841   7.194   9.162  13.205
30001SOL    HW191842   7.191   9.257  13.220
30001SOL    HW291843   7.185   9.153  13.110
30002SOL     OW91844   3.703   3.033  12.441
30002SOL    HW191845   3.733   3.114  12.483
30002SOL    HW291846   3.621   3.012  12.487
30003SOL     OW91847   6.193   9.161   7.198
30003SOL    HW191848   6.277   9.160   7.153
30003SOL    HW291849   6.184   9.250   7.230
30004SOL     OW91850  13.057   0.321   2.633
30004SOL    HW191851  13.004   0.382   2.582
30004SOL    HW291852  13.011   0.237   2.626
30005SOL     OW91853   8.391  12.416   6.487
30005SOL    HW191854   8.411  12.509   6.481
30005SOL    HW291855   8.371  12.389   6.397
30006SOL     OW91856   2.245  14.624   9.119
30006SOL    HW191857   2.257  14.585   9.032
30006SOL    HW291858   2.199  14.706   9.102
30007SOL     OW91859  12.624   1.509   3.317
30007SOL    HW191860  12.688   1.554   3.372
30007SOL    HW291861  12.623   1.559   3.235
30008SOL     OW91862   0.861   4.841  13.735
30008SOL    HW191863   0.889   4.798  13.655
30008SOL    HW291864   0.930   4.823  13.798
30009SOL     OW91865  13.923   0.774   0.207
30009SOL    HW191866  13.844   0.720   0.198
30009SOL    HW291867  13.959   0.779   0.119
30010SOL     OW91868  13.985   4.680   0.493
30010SOL    HW191869  13.942   4.618   0.551
30010SOL    HW291870  14.065   4.635   0.465
30011SOL     OW91871  14.682   9.206   6.803
30011SOL    HW191872  14.691   9.138   6.736
30011SOL    HW291873  14.673   9.287   6.754
30012SOL     OW91874  12.546   4.730   0.461
30012SOL    HW191875  12.632   4.756   0.492
30012SOL    HW291876  12.485   4.792   0.502
30013SOL     OW91877  14.396   9.480   3.327
30013SOL    HW191878  14.309   9.486   3.289
30013SOL    HW291879  14.380   9.472   3.421
30014SOL     OW91880   7.736   8.811   2.345
30014SOL    HW191881   7.645   8.782   2.344
30014SOL    HW291882   7.778   8.759   2.277
30015SOL     OW91883   1.513   6.055  14.259
30015SOL    HW191884   1.500   6.022  14.348
30015SOL    HW291885   1.428   6.089  14.233
30016SOL     OW91886  10.476   9.929  10.872
30016SOL    HW191887  10.436   9.857  10.824
30016SOL    HW291888  10.525   9.887  10.942
30017SOL     OW91889   8.395  13.982   2.626
30017SOL    HW191890   8.418  13.892   2.651
30017SOL    HW291891   8.470  14.035   2.654
30018SOL     OW91892  10.413  14.698   7.653
30018SOL    HW191893  10.458  14.679   7.736
30018SOL    HW291894  10.403  14.793   7.652
30019SOL     OW91895   7.015   8.754   2.732
30019SOL    HW191896   7.031   8.786   2.643
30019SOL    HW291897   7.094   8.779   2.780
30020SOL     OW91898   5.882   9.052  10.012
30020SOL    HW191899   5.921   9.096  10.088
30020SOL    HW291900   5.940   8.979   9.994
30021SOL     OW91901   2.348   4.157   4.830
30021SOL    HW191902   2.349   4.153   4.925
30021SOL    HW291903   2.258   4.138   4.805
30022SOL     OW91904   9.810   0.155  13.173
30022SOL    HW191905   9.887   0.106  13.202
30022SOL    HW291906   9.803   0.227  13.235
30023SOL     OW91907  13.014  14.301   2.806
30023SOL    HW191908  13.058  14.264   2.729
30023SOL    HW291909  12.992  14.224   2.859
30024SOL     OW91910  14.378   5.853  12.041
30024SOL    HW191911  14.420   5.769  12.024
30024SOL    HW291912  14.429   5.916  11.988
30025SOL     OW91913   1.730   4.748  10.932
30025SOL    HW191914   1.774   4.714  10.855
30025SOL    HW291915   1.797   4.797  10.979
30026SOL     OW91916   8.347   8.391   5.992
30026SOL    HW191917   8.415   8.337   6.033
30026SOL    HW291918   8.347   8.364   5.900
30027SOL     OW91919   7.036   8.358   0.005
30027SOL    HW191920   7.123   8.357   0.045
30027SOL    HW291921   6.975   8.359   0.078
30028SOL     OW91922  13.627   7.962   0.014
30028SOL    HW191923  13.717   7.984  14.863
30028SOL    HW291924  13.623   7.977   0.109
30029SOL     OW91925   9.569  10.907   3.238
30029SOL    HW191926   9.511  10.833   3.218
30029SOL    HW291927   9.523  10.984   3.204
30030SOL     OW91928   4.179  13.187   5.041
30030SOL    HW191929   4.160  13.189   4.947
30030SOL    HW291930   4.274  13.189   5.046
30031SOL     OW91931  10.452   4.046   2.053
30031SOL    HW191932  10.522   3.986   2.027
30031SOL    HW291933  10.416   4.077   1.970
30032SOL     OW91934  12.808   3.221   8.707
30032SOL    HW191935  12.745   3.193   8.774
30032SOL    HW291936  12.799   3.155   8.638
30033SOL     OW91937   9.297  10.883   0.353
30033SOL    HW191938   9.268  10.972   0.330
30033SOL    HW291939   9.222  10.828   0.331
30034SOL     OW91940   7.545  12.688   5.536
30034SOL    HW191941   7.456  12.695   5.571
30034SOL    HW291942   7.532  12.683   5.441
30035SOL     OW91943  12.578   2.023  12.032
30035SOL    HW191944  12.545   1.939  12.066
30035SOL    HW291945  12.560   2.019  11.939
30036SOL     OW91946   5.369   1.393   8.596
30036SOL    HW191947   5.445   1.335   8.606
30036SOL    HW291948   5.398   1.460   8.534
30037SOL     OW91949  13.367   2.721   6.152
30037SOL    HW191950  13.446   2.774   6.152
30037SOL    HW291951  13.396   2.634   6.125
30038SOL     OW91952   3.129   9.271  13.646
30038SOL    HW191953   3.155   9.185  13.611
30038SOL    HW291954   3.141   9.262  13.740
30039SOL     OW91955  10.124   1.611   0.108
30039SOL    HW191956  10.035   1.576   0.113
30039SOL    HW291957  10.180   1.533   0.108
30040SOL     OW91958   7.859   9.831   4.811
30040SOL    HW191959   7.854   9.830   4.715
30040SOL    HW291960   7.953   9.825   4.830
30041SOL     OW91961  13.311   2.193   8.275
30041SOL    HW191962  13.345   2.133   8.208
30041SOL    HW291963  13.363   2.174   8.353
30042SOL     OW91964  13.027   9.474   3.154
30042SOL    HW191965  13.025   9.569   3.157
30042SOL    HW291966  12.949   9.446   3.203
30043SOL     OW91967   2.901   0.334  12.512
30043SOL    HW191968   2.899   0.336  12.608
30043SOL    HW291969   2.862   0.250  12.489
30044SOL     OW91970   7.699  11.727  13.221
30044SOL    HW191971   7.733  11.671  13.152
30044SOL    HW291972   7.696  11.814  13.183
30045SOL     OW91973  10.543  12.069   5.734
30045SOL    HW191974  10.610  12.001   5.739
30045SOL    HW291975  10.577  12.140   5.789
30046SOL     OW91976  10.144   0.542   5.165
30046SOL    HW191977  10.149   0.471   5.229
30046SOL    HW291978  10.175   0.502   5.083
30047SOL     OW91979  14.795   0.908   6.355
30047SOL    HW191980  14.713   0.865   6.381
30047SOL    HW291981  14.813   0.874   6.267
30048SOL     OW91982  10.973   5.944   3.216
30048SOL    HW191983  10.977   5.957   3.121
30048SOL    HW291984  10.888   5.903   3.231
30049SOL     OW91985  12.605  10.755  12.650
30049SOL    HW191986  12.640  10.701  12.580
30049SOL    HW291987  12.606  10.844  12.615
30050SOL     OW91988   5.265   7.119  12.199
30050SOL    HW191989   5.355   7.141  12.175
30050SOL    HW291990   5.237   7.055  12.132
30051SOL     OW91991  13.959   7.223  13.153
30051SOL    HW191992  13.891   7.252  13.092
30051SOL    HW291993  14.010   7.302  13.171
30052SOL     OW91994   6.385   8.804   0.641
30052SOL    HW191995   6.301   8.759   0.632
30052SOL    HW291996   6.365   8.884   0.689
30053SOL     OW91997  12.957  14.730  14.052
30053SOL    HW191998  12.986  14.670  13.983
30053SOL    HW291999  12.869  14.700  14.074
30054SOL     OW92000   5.003   1.024   4.931
30054SOL    HW192001   4.957   0.974   4.999
30054SOL    HW292002   5.007   0.964   4.856
30055SOL     OW92003   4.135  14.203   6.453
30055SOL    HW192004   4.145  14.173   6.362
30055SOL    HW292005   4.114  14.123   6.502
30056SOL     OW92006   2.170   4.898   9.183
30056SOL    HW192007   2.204   4.956   9.114
30056SOL    HW292008   2.101   4.948   9.225
30057SOL     OW92009   0.304  11.725   2.088
30057SOL    HW192010   0.249  11.803   2.094
30057SOL    HW292011   0.391  11.753   2.116
30058SOL     OW92012   7.742   8.480   5.357
30058SOL    HW192013   7.804   8.449   5.423
30058SOL    HW292014   7.754   8.421   5.282
30059SOL     OW92015   2.733  14.071   1.045
30059SOL    HW192016   2.699  13.984   1.066
30059SOL    HW292017   2.826  14.056   1.029
30060SOL     OW92018   6.946  12.573   7.240
30060SOL    HW192019   6.890  12.496   7.253
30060SOL    HW292020   6.890  12.635   7.192
30061SOL     OW92021  13.954  12.023  10.618
30061SOL    HW192022  13.999  11.944  10.648
30061SOL    HW292023  13.913  11.997  10.535
30062SOL     OW92024   7.286   2.341   9.769
30062SOL    HW192025   7.276   2.286   9.691
30062SOL    HW292026   7.260   2.285   9.842
30063SOL     OW92027   2.126  14.044   8.546
30063SOL    HW192028   2.031  14.048   8.550
30063SOL    HW292029   2.155  14.131   8.573
30064SOL     OW92030   2.109  12.452  13.972
30064SOL    HW192031   2.079  12.441  14.063
30064SOL    HW292032   2.029  12.449  13.920
30065SOL     OW92033   7.745  10.022   1.803
30065SOL    HW192034   7.796   9.981   1.873
30065SOL    HW292035   7.728   9.951   1.741
30066SOL     OW92036   6.768   3.951   9.586
30066SOL    HW192037   6.845   4.008   9.580
30066SOL    HW292038   6.709   3.997   9.646
30067SOL     OW92039   1.541   7.289   0.079
30067SOL    HW192040   1.610   7.222   0.083
30067SOL    HW292041   1.459   7.239   0.078
30068SOL     OW92042   9.571  14.457  13.616
30068SOL    HW192043   9.586  14.386  13.554
30068SOL    HW292044   9.519  14.521  13.568
30069SOL     OW92045  13.211   6.375   2.154
30069SOL    HW192046  13.189   6.432   2.227
30069SOL    HW292047  13.183   6.423   2.076
30070SOL     OW92048   2.788  10.699  12.971
30070SOL    HW192049   2.722  10.715  13.039
30070SOL    HW292050   2.866  10.671  13.019
30071SOL     OW92051   7.801   3.278   1.933
30071SOL    HW192052   7.761   3.360   1.961
30071SOL    HW292053   7.843   3.298   1.850
30072SOL     OW92054   4.299  11.240   7.789
30072SOL    HW192055   4.331  11.154   7.765
30072SOL    HW292056   4.374  11.283   7.830
30073SOL     OW92057  13.168  13.219  10.300
30073SOL    HW192058  13.077  13.193  10.314
30073SOL    HW292059  13.170  13.250  10.209
30074SOL     OW92060   2.050  12.450   5.469
30074SOL    HW192061   1.961  12.467   5.500
30074SOL    HW292062   2.041  12.436   5.375
30075SOL     OW92063  14.206  11.509   2.056
30075SOL    HW192064  14.121  11.478   2.025
30075SOL    HW292065  14.185  11.577   2.120
30076SOL     OW92066   1.044   3.859   0.700
30076SOL    HW192067   1.021   3.948   0.673
30076SOL    HW292068   1.052   3.809   0.619
30077SOL     OW92069   4.550   2.862   1.631
30077SOL    HW192070   4.497   2.802   1.580
30077SOL    HW292071   4.573   2.932   1.569
30078SOL     OW92072   8.178  13.375  12.981
30078SOL    HW192073   8.206  13.466  12.987
30078SOL    HW292074   8.249  13.324  13.020
30079SOL     OW92075   7.430   1.839   4.231
30079SOL    HW192076   7.524   1.818   4.228
30079SOL    HW292077   7.427   1.932   4.253
30080SOL     OW92078   6.995  10.764   9.797
30080SOL    HW192079   7.030  10.852   9.812
30080SOL    HW292080   6.925  10.755   9.862
30081SOL     OW92081   3.690  10.534   6.817
30081SOL    HW192082   3.646  10.602   6.765
30081SOL    HW292083   3.622  10.470   6.835
30082SOL     OW92084   7.586   9.659   0.135
30082SOL    HW192085   7.605   9.746   0.100
30082SOL    HW292086   7.624   9.659   0.223
30083SOL     OW92087   2.551   2.121  12.868
30083SOL    HW192088   2.566   2.190  12.804
30083SOL    HW292089   2.515   2.048  12.817
30084SOL     OW92090   4.837   2.553   9.054
30084SOL    HW192091   4.840   2.602   8.972
30084SOL    HW292092   4.757   2.583   9.097
30085SOL     OW92093   4.953   2.686   5.690
30085SOL    HW192094   4.985   2.760   5.639
30085SOL    HW292095   4.993   2.697   5.776
30086SOL     OW92096   5.272   6.304   7.955
30086SOL    HW192097   5.196   6.286   8.010
30086SOL    HW292098   5.306   6.388   7.986
30087SOL     OW92099   0.627  10.325   2.833
30087SOL    HW192100   0.714  10.285   2.825
30087SOL    HW292101   0.581  10.298   2.753
30088SOL     OW92102   5.129   1.998  11.370
30088SOL    HW192103   5.132   2.000  11.274
30088SOL    HW292104   5.167   2.081  11.397
30089SOL     OW92105   1.379  12.479  11.120
30089SOL    HW192106   1.449  12.456  11.181
30089SOL    HW292107   1.313  12.522  11.175
30090SOL     OW92108   0.139   3.514   9.583
30090SOL    HW192109   0.197   3.438   9.590
30090SOL    HW292110   0.068   3.495   9.645
30091SOL     OW92111   3.967   5.621   5.458
30091SOL    HW192112   3.930   5.535   5.438
30091SOL    HW292113   3.966   5.625   5.554
30092SOL     OW92114   3.851  12.171   8.613
30092SOL    HW192115   3.923  12.183   8.551
30092SOL    HW292116   3.883  12.212   8.694
30093SOL     OW92117   1.755  11.550  13.136
30093SOL    HW192118   1.662  11.530  13.123
30093SOL    HW292119   1.760  11.645  13.126
30094SOL     OW92120  10.725   1.160   6.448
30094SOL    HW192121  10.793   1.172   6.382
30094SOL    HW292122  10.645   1.144   6.397
30095SOL     OW92123  12.110   3.168   6.646
30095SOL    HW192124  12.185   3.220   6.674
30095SOL    HW292125  12.036   3.206   6.693
30096SOL     OW92126   1.483   8.236   7.371
30096SOL    HW192127   1.392   8.267   7.368
30096SOL    HW292128   1.478   8.150   7.413
30097SOL     OW92129  11.258   0.274   9.863
30097SOL    HW192130  11.251   0.368   9.880
30097SOL    HW292131  11.181   0.254   9.811
30098SOL     OW92132  14.519   4.937   5.589
30098SOL    HW192133  14.429   4.905   5.585
30098SOL    HW292134  14.548   4.916   5.678
30099SOL     OW92135   8.749  12.768  10.423
30099SOL    HW192136   8.673  12.725  10.383
30099SOL    HW292137   8.758  12.727  10.509
30100SOL     OW92138   9.823   1.867  10.777
30100SOL    HW192139   9.840   1.957  10.748
30100SOL    HW292140   9.802   1.820  10.696
30101SOL     OW92141   4.039  12.322   9.687
30101SOL    HW192142   4.068  12.403   9.729
30101SOL    HW292143   3.972  12.287   9.746
30102SOL     OW92144   3.668  14.009   9.310
30102SOL    HW192145   3.694  14.054   9.390
30102SOL    HW292146   3.739  14.026   9.248
30103SOL     OW92147  14.296   6.680  14.703
30103SOL    HW192148  14.252   6.762  14.678
30103SOL    HW292149  14.267   6.616  14.639
30104SOL     OW92150   6.426  10.557  10.726
30104SOL    HW192151   6.488  10.552  10.799
30104SOL    HW292152   6.456  10.489  10.665
30105SOL     OW92153   5.069  11.860   6.960
30105SOL    HW192154   4.977  11.836   6.949
30105SOL    HW292155   5.099  11.882   6.872
30106SOL     OW92156   4.232   9.083   6.087
30106SOL    HW192157   4.220   9.178   6.080
30106SOL    HW292158   4.144   9.048   6.101
30107SOL     OW92159   5.777  13.788   9.219
30107SOL    HW192160   5.854  13.764   9.270
30107SOL    HW292161   5.720  13.833   9.281
30108SOL     OW92162  10.030  14.667   9.873
30108SOL    HW192163  10.105  14.612   9.896
30108SOL    HW292164  10.064  14.756   9.874
30109SOL     OW92165  12.144   9.724   9.923
30109SOL    HW192166  12.052   9.720   9.897
30109SOL    HW292167  12.192   9.705   9.843
30110SOL     OW92168   4.897   7.029   5.363
30110SOL    HW192169   4.968   7.090   5.341
30110SOL    HW292170   4.830   7.046   5.298
30111SOL     OW92171   2.688   9.609   5.420
30111SOL    HW192172   2.755   9.598   5.488
30111SOL    HW292173   2.605   9.607   5.467
30112SOL     OW92174   6.291   7.184   0.319
30112SOL    HW192175   6.320   7.169   0.229
30112SOL    HW292176   6.364   7.155   0.373
30113SOL     OW92177   7.115   8.080   8.729
30113SOL    HW192178   7.031   8.041   8.705
30113SOL    HW292179   7.104   8.173   8.708
30114SOL     OW92180  13.386   5.752  12.995
30114SOL    HW192181  13.355   5.687  12.932
30114SOL    HW292182  13.470   5.781  12.961
30115SOL     OW92183  12.803  14.122   5.184
30115SOL    HW192184  12.810  14.132   5.279
30115SOL    HW292185  12.889  14.147   5.151
30116SOL     OW92186   0.217   1.905  10.594
30116SOL    HW192187   0.205   1.934  10.684
30116SOL    HW292188   0.158   1.830  10.585
30117SOL     OW92189  12.461   5.513  13.946
30117SOL    HW192190  12.371   5.482  13.940
30117SOL    HW292191  12.513   5.433  13.958
30118SOL     OW92192  11.749  11.130  12.647
30118SOL    HW192193  11.757  11.226  12.642
30118SOL    HW292194  11.664  11.115  12.689
30119SOL     OW92195   2.127  10.272   9.896
30119SOL    HW192196   2.194  10.205   9.909
30119SOL    HW292197   2.085  10.249   9.814
30120SOL     OW92198   1.936   0.944  14.114
30120SOL    HW192199   2.013   0.997  14.094
30120SOL    HW292200   1.877   0.959  14.040
30121SOL     OW92201   5.224   6.758   4.758
30121SOL    HW192202   5.182   6.705   4.691
30121SOL    HW292203   5.290   6.809   4.711
30122SOL     OW92204  10.590   6.263  13.246
30122SOL    HW192205  10.551   6.331  13.300
30122SOL    HW292206  10.669   6.237  13.294
30123SOL     OW92207  11.845  12.876   1.699
30123SOL    HW192208  11.907  12.918   1.640
30123SOL    HW292209  11.784  12.947   1.723
30124SOL     OW92210   7.354   4.967   7.584
30124SOL    HW192211   7.396   4.882   7.569
30124SOL    HW292212   7.412   5.030   7.542
30125SOL     OW92213   2.253   9.215  12.812
30125SOL    HW192214   2.298   9.226  12.728
30125SOL    HW292215   2.277   9.127  12.840
30126SOL     OW92216   5.799   9.459   6.112
30126SOL    HW192217   5.815   9.527   6.047
30126SOL    HW292218   5.786   9.507   6.194
30127SOL     OW92219   1.617   5.538   7.503
30127SOL    HW192220   1.697   5.522   7.553
30127SOL    HW292221   1.638   5.504   7.415
30128SOL     OW92222   9.118   2.460   4.647
30128SOL    HW192223   9.077   2.512   4.579
30128SOL    HW292224   9.052   2.451   4.715
30129SOL     OW92225   1.066   3.597   8.105
30129SOL    HW192226   0.978   3.634   8.106
30129SOL    HW292227   1.074   3.553   8.190
30130SOL     OW92228  12.931  12.062   4.285
30130SOL    HW192229  12.960  12.114   4.210
30130SOL    HW292230  12.875  12.120   4.335
30131SOL     OW92231  10.761  11.626   1.031
30131SOL    HW192232  10.684  11.626   1.088
30131SOL    HW292233  10.737  11.568   0.959
30132SOL     OW92234   4.659  13.713   8.880
30132SOL    HW192235   4.676  13.710   8.786
30132SOL    HW292236   4.734  13.668   8.920
30133SOL     OW92237   4.285  11.483   4.175
30133SOL    HW192238   4.234  11.503   4.253
30133SOL    HW292239   4.362  11.435   4.209
30134SOL     OW92240  10.654  13.009   9.073
30134SOL    HW192241  10.617  13.084   9.026
30134SOL    HW292242  10.662  13.039   9.164
30135SOL     OW92243  11.451  10.820   6.469
30135SOL    HW192244  11.424  10.858   6.552
30135SOL    HW292245  11.371  10.819   6.416
30136SOL     OW92246   5.171   1.894   8.124
30136SOL    HW192247   5.214   1.949   8.189
30136SOL    HW292248   5.229   1.819   8.113
30137SOL     OW92249   9.546  10.273   3.365
30137SOL    HW192250   9.609  10.247   3.298
30137SOL    HW292251   9.599  10.295   3.441
30138SOL     OW92252   4.058   7.138   0.579
30138SOL    HW192253   4.102   7.149   0.494
30138SOL    HW292254   4.102   7.200   0.637
30139SOL     OW92255   8.090   0.147   4.756
30139SOL    HW192256   8.057   0.122   4.842
30139SOL    HW292257   8.043   0.092   4.695
30140SOL     OW92258  12.764   3.155   1.818
30140SOL    HW192259  12.860   3.159   1.814
30140SOL    HW292260  12.744   3.061   1.824
30141SOL     OW92261  13.212  11.115  14.692
30141SOL    HW192262  13.261  11.197  14.683
30141SOL    HW292263  13.163  11.106  14.611
30142SOL     OW92264   6.879   0.624   5.097
30142SOL    HW192265   6.903   0.689   5.030
30142SOL    HW292266   6.810   0.572   5.055
30143SOL     OW92267   7.600  13.776   3.558
30143SOL    HW192268   7.561  13.842   3.615
30143SOL    HW292269   7.627  13.706   3.617
30144SOL     OW92270   8.759  13.190   1.508
30144SOL    HW192271   8.802  13.105   1.508
30144SOL    HW292272   8.818  13.246   1.558
30145SOL     OW92273   3.563   7.633   3.209
30145SOL    HW192274   3.492   7.620   3.271
30145SOL    HW292275   3.571   7.549   3.164
30146SOL     OW92276   6.927   1.004   4.315
30146SOL    HW192277   6.935   0.924   4.264
30146SOL    HW292278   6.862   1.056   4.267
30147SOL     OW92279  11.575  12.430   5.776
30147SOL    HW192280  11.671  12.428   5.773
30147SOL    HW292281  11.547  12.352   5.730
30148SOL     OW92282  11.040  13.651  14.616
30148SOL    HW192283  11.113  13.623  14.560
30148SOL    HW292284  11.072  13.641  14.705
30149SOL     OW92285   0.773  10.315   6.905
30149SOL    HW192286   0.710  10.368   6.953
30149SOL    HW292287   0.853  10.368   6.904
30150SOL     OW92288   2.576   0.711   5.000
30150SOL    HW192289   2.590   0.618   5.018
30150SOL    HW292290   2.512   0.712   4.929
30151SOL     OW92291   3.737  12.591  11.377
30151SOL    HW192292   3.644  12.586  11.396
30151SOL    HW292293   3.748  12.673  11.329
30152SOL     OW92294   3.207   8.623   5.216
30152SOL    HW192295   3.160   8.693   5.261
30152SOL    HW292296   3.299   8.635   5.241
30153SOL     OW92297  10.390   7.899  10.433
30153SOL    HW192298  10.373   7.960  10.506
30153SOL    HW292299  10.324   7.921  10.367
30154SOL     OW92300  11.751   2.714  14.296
30154SOL    HW192301  11.754   2.648  14.226
30154SOL    HW292302  11.837   2.755  14.294
30155SOL     OW92303   8.825  12.569  12.221
30155SOL    HW192304   8.744  12.531  12.186
30155SOL    HW292305   8.883  12.494  12.232
30156SOL     OW92306   7.681   0.163   7.234
30156SOL    HW192307   7.711   0.216   7.160
30156SOL    HW292308   7.633   0.091   7.194
30157SOL     OW92309  14.754   3.273   0.083
30157SOL    HW192310  14.705   3.327   0.021
30157SOL    HW292311  14.776   3.333   0.155
30158SOL     OW92312   4.965   1.948   6.948
30158SOL    HW192313   4.879   1.980   6.976
30158SOL    HW292314   4.997   1.896   7.021
30159SOL     OW92315   9.124   6.991   9.214
30159SOL    HW192316   9.065   6.942   9.272
30159SOL    HW292317   9.081   6.988   9.128
30160SOL     OW92318   1.850  10.595   4.187
30160SOL    HW192319   1.812  10.567   4.104
30160SOL    HW292320   1.895  10.518   4.221
30161SOL     OW92321   6.716   2.955   8.454
30161SOL    HW192322   6.750   3.030   8.406
30161SOL    HW292323   6.648   2.919   8.398
30162SOL     OW92324   3.085  14.664   2.368
30162SOL    HW192325   3.109  14.608   2.294
30162SOL    HW292326   3.161  14.721   2.380
30163SOL     OW92327  12.576   6.386   9.881
30163SOL    HW192328  12.610   6.435   9.807
30163SOL    HW292329  12.510   6.445   9.920
30164SOL     OW92330   2.119   3.040   5.226
30164SOL    HW192331   2.084   2.951   5.234
30164SOL    HW292332   2.203   3.037   5.272
30165SOL     OW92333   3.577  14.069   5.640
30165SOL    HW192334   3.560  13.976   5.622
30165SOL    HW292335   3.660  14.069   5.688
30166SOL     OW92336   0.584  10.423  14.769
30166SOL    HW192337   0.651  10.488  14.748
30166SOL    HW292338   0.516  10.436  14.702
30167SOL     OW92339  13.329  11.056   3.256
30167SOL    HW192340  13.264  11.125   3.245
30167SOL    HW292341  13.308  11.016   3.341
30168SOL     OW92342   9.582   3.683   1.391
30168SOL    HW192343   9.560   3.591   1.405
30168SOL    HW292344   9.498   3.728   1.393
30169SOL     OW92345   6.119   4.661   5.954
30169SOL    HW192346   6.163   4.582   5.985
30169SOL    HW292347   6.036   4.662   6.001
30170SOL     OW92348  14.460   5.736   9.233
30170SOL    HW192349  14.467   5.643   9.213
30170SOL    HW292350  14.550   5.766   9.240
30171SOL     OW92351   2.829  12.937   5.722
30171SOL    HW192352   2.869  12.973   5.802
30171SOL    HW292353   2.898  12.882   5.685
30172SOL     OW92354   0.380   9.264   0.287
30172SOL    HW192355   0.290   9.262   0.255
30172SOL    HW292356   0.375   9.223   0.373
30173SOL     OW92357  10.363   3.087   7.939
30173SOL    HW192358  10.419   3.034   7.882
30173SOL    HW292359  10.286   3.031   7.956
30174SOL     OW92360   6.302  10.679   0.538
30174SOL    HW192361   6.223  10.717   0.498
30174SOL    HW292362   6.374  10.713   0.485
30175SOL     OW92363  13.275  14.003   6.070
30175SOL    HW192364  13.326  13.939   6.021
30175SOL    HW292365  13.318  14.087   6.052
30176SOL     OW92366   3.890   7.265   7.699
30176SOL    HW192367   3.874   7.269   7.793
30176SOL    HW292368   3.955   7.333   7.682
30177SOL     OW92369   6.980  11.435   7.430
30177SOL    HW192370   6.948  11.495   7.497
30177SOL    HW292371   7.069  11.413   7.458
30178SOL     OW92372   0.130   1.261  11.731
30178SOL    HW192373   0.062   1.254  11.664
30178SOL    HW292374   0.178   1.340  11.709
30179SOL     OW92375  14.215   6.660   5.118
30179SOL    HW192376  14.162   6.657   5.198
30179SOL    HW292377  14.179   6.590   5.063
30180SOL     OW92378  12.723  13.308   3.025
30180SOL    HW192379  12.796  13.313   3.088
30180SOL    HW292380  12.653  13.265   3.074
30181SOL     OW92381   3.949   3.650  14.403
30181SOL    HW192382   4.010   3.700  14.349
30181SOL    HW292383   3.876   3.711  14.417
30182SOL     OW92384  11.435   4.567  12.342
30182SOL    HW192385  11.415   4.547  12.251
30182SOL    HW292386  11.404   4.657  12.354
30183SOL     OW92387   6.332   8.300  12.336
30183SOL    HW192388   6.351   8.213  12.301
30183SOL    HW292389   6.250   8.325  12.295
30184SOL     OW92390   3.829   6.586  11.898
30184SOL    HW192391   3.826   6.632  11.814
30184SOL    HW292392   3.805   6.652  11.962
30185SOL     OW92393   0.571   1.881  11.621
30185SOL    HW192394   0.544   1.940  11.691
30185SOL    HW292395   0.492   1.868  11.568
30186SOL     OW92396   9.121   4.608   9.425
30186SOL    HW192397   9.050   4.622   9.363
30186SOL    HW292398   9.134   4.513   9.426
30187SOL     OW92399   2.636   1.778   8.093
30187SOL    HW192400   2.619   1.750   8.003
30187SOL    HW292401   2.589   1.714   8.148
30188SOL     OW92402   4.728   2.159  10.831
30188SOL    HW192403   4.812   2.170  10.876
30188SOL    HW292404   4.689   2.082  10.872
30189SOL     OW92405   6.999   9.689   0.047
30189SOL    HW192406   7.017   9.781   0.028
30189SOL    HW292407   6.922   9.691   0.103
30190SOL     OW92408  14.293   2.645  10.224
30190SOL    HW192409  14.320   2.702  10.153
30190SOL    HW292410  14.367   2.586  10.237
30191SOL     OW92411  10.356   3.501   9.457
30191SOL    HW192412  10.343   3.441   9.530
30191SOL    HW292413  10.446   3.531   9.466
30192SOL     OW92414   5.432   4.445  11.074
30192SOL    HW192415   5.437   4.523  11.129
30192SOL    HW292416   5.522   4.416  11.064
30193SOL     OW92417   1.663  13.634   8.564
30193SOL    HW192418   1.727  13.641   8.493
30193SOL    HW292419   1.601  13.705   8.548
30194SOL     OW92420  11.086   9.607   6.509
30194SOL    HW192421  11.068   9.613   6.415
30194SOL    HW292422  11.167   9.557   6.515
30195SOL     OW92423   3.091  14.364  10.541
30195SOL    HW192424   3.051  14.386  10.625
30195SOL    HW292425   3.082  14.269  10.534
30196SOL     OW92426   5.740   7.551   3.010
30196SOL    HW192427   5.786   7.497   2.946
30196SOL    HW292428   5.806   7.610   3.045
30197SOL     OW92429   8.065  13.933   1.991
30197SOL    HW192430   8.029  13.860   2.042
30197SOL    HW292431   8.001  14.003   2.001
30198SOL     OW92432  14.231   8.254  14.848
30198SOL    HW192433  14.257   8.174   0.020
30198SOL    HW292434  14.210   8.316   0.045
30199SOL     OW92435  10.094  13.196   3.017
30199SOL    HW192436  10.188  13.181   3.026
30199SOL    HW292437  10.058  13.169   3.101
30200SOL     OW92438   6.243   9.645   9.050
30200SOL    HW192439   6.269   9.725   9.004
30200SOL    HW292440   6.292   9.647   9.132
30201SOL     OW92441   7.352   4.581  14.399
30201SOL    HW192442   7.285   4.574  14.331
30201SOL    HW292443   7.325   4.518  14.466
30202SOL     OW92444   5.885   8.405   0.873
30202SOL    HW192445   5.856   8.404   0.782
30202SOL    HW292446   5.978   8.424   0.869
30203SOL     OW92447   7.195   3.969   2.662
30203SOL    HW192448   7.141   3.901   2.622
30203SOL    HW292449   7.178   4.047   2.610
30204SOL     OW92450   2.861   4.744   8.477
30204SOL    HW192451   2.951   4.730   8.508
30204SOL    HW292452   2.816   4.783   8.551
30205SOL     OW92453   7.203   0.140   8.684
30205SOL    HW192454   7.257   0.138   8.764
30205SOL    HW292455   7.195   0.233   8.663
30206SOL     OW92456   0.918  11.672  14.108
30206SOL    HW192457   0.994  11.730  14.114
30206SOL    HW292458   0.889  11.661  14.199
30207SOL     OW92459   3.771   6.518   8.708
30207SOL    HW192460   3.820   6.597   8.731
30207SOL    HW292461   3.793   6.455   8.776
30208SOL     OW92462   8.720   2.754  10.307
30208SOL    HW192463   8.714   2.667  10.268
30208SOL    HW292464   8.629   2.779  10.324
30209SOL     OW92465   9.734   1.843  11.391
30209SOL    HW192466   9.705   1.904  11.459
30209SOL    HW292467   9.688   1.762  11.409
30210SOL     OW92468   7.651   0.394   1.083
30210SOL    HW192469   7.730   0.341   1.094
30210SOL    HW292470   7.642   0.440   1.166
30211SOL     OW92471   5.410   9.183  12.922
30211SOL    HW192472   5.447   9.237  12.993
30211SOL    HW292473   5.459   9.101  12.927
30212SOL     OW92474   6.298   4.486  13.795
30212SOL    HW192475   6.206   4.470  13.773
30212SOL    HW292476   6.296   4.523  13.883
30213SOL     OW92477  13.834   1.464   5.286
30213SOL    HW192478  13.849   1.554   5.315
30213SOL    HW292479  13.894   1.412   5.340
30214SOL     OW92480   8.650   0.982   1.897
30214SOL    HW192481   8.703   0.903   1.887
30214SOL    HW292482   8.703   1.038   1.954
30215SOL     OW92483   2.463   6.485   7.376
30215SOL    HW192484   2.546   6.455   7.412
30215SOL    HW292485   2.478   6.492   7.282
30216SOL     OW92486   7.679   4.524  12.263
30216SOL    HW192487   7.707   4.434  12.283
30216SOL    HW292488   7.750   4.560  12.210
30217SOL     OW92489   7.439  13.602  11.307
30217SOL    HW192490   7.506  13.663  11.338
30217SOL    HW292491   7.414  13.552  11.384
30218SOL     OW92492   0.323   2.584   0.621
30218SOL    HW192493   0.362   2.657   0.668
30218SOL    HW292494   0.232   2.581   0.652
30219SOL     OW92495  11.533   4.786   4.943
30219SOL    HW192496  11.540   4.869   4.989
30219SOL    HW292497  11.595   4.728   4.986
30220SOL     OW92498  13.937   0.154   4.145
30220SOL    HW192499  14.002   0.167   4.076
30220SOL    HW292500  13.942   0.234   4.198
30221SOL     OW92501  14.182   4.734  10.874
30221SOL    HW192502  14.199   4.766  10.786
30221SOL    HW292503  14.236   4.654  10.881
30222SOL     OW92504  11.751   4.038  11.165
30222SOL    HW192505  11.760   4.009  11.074
30222SOL    HW292506  11.826   3.999  11.210
30223SOL     OW92507   9.760   2.068   8.611
30223SOL    HW192508   9.837   2.038   8.659
30223SOL    HW292509   9.688   2.014   8.644
30224SOL     OW92510  13.429   2.629  13.495
30224SOL    HW192511  13.344   2.622  13.539
30224SOL    HW292512  13.471   2.704  13.538
30225SOL     OW92513  14.594   3.335  13.971
30225SOL    HW192514  14.674   3.295  14.005
30225SOL    HW292515  14.525   3.305  14.030
30226SOL     OW92516   2.327   6.217  11.129
30226SOL    HW192517   2.313   6.275  11.204
30226SOL    HW292518   2.416   6.234  11.100
30227SOL     OW92519   8.844  14.307   6.349
30227SOL    HW192520   8.878  14.365   6.281
30227SOL    HW292521   8.912  14.241   6.361
30228SOL     OW92522   4.604  13.887   1.213
30228SOL    HW192523   4.649  13.959   1.257
30228SOL    HW292524   4.518  13.883   1.255
30229SOL     OW92525   0.665   0.603   6.977
30229SOL    HW192526   0.660   0.697   6.995
30229SOL    HW292527   0.635   0.562   7.057
30230SOL     OW92528   2.236  10.214   6.827
30230SOL    HW192529   2.229  10.224   6.732
30230SOL    HW292530   2.146  10.201   6.856
30231SOL     OW92531   2.598   0.627   7.629
30231SOL    HW192532   2.666   0.627   7.562
30231SOL    HW292533   2.519   0.657   7.583
30232SOL     OW92534  14.366   4.664   4.891
30232SOL    HW192535  14.378   4.697   4.801
30232SOL    HW292536  14.454   4.637   4.918
30233SOL     OW92537   2.345   1.568  12.147
30233SOL    HW192538   2.371   1.659  12.161
30233SOL    HW292539   2.387   1.543  12.065
30234SOL     OW92540   7.852   4.318   0.854
30234SOL    HW192541   7.882   4.297   0.766
30234SOL    HW292542   7.771   4.367   0.841
30235SOL     OW92543  12.955  11.875   4.530
30235SOL    HW192544  12.971  11.917   4.446
30235SOL    HW292545  13.032  11.820   4.545
30236SOL     OW92546   3.304  12.001   8.553
30236SOL    HW192547   3.377  11.974   8.497
30236SOL    HW292548   3.334  11.979   8.642
30237SOL     OW92549   4.780   7.359   7.414
30237SOL    HW192550   4.742   7.347   7.327
30237SOL    HW292551   4.862   7.405   7.398
30238SOL     OW92552  10.792   5.099  14.193
30238SOL    HW192553  10.710   5.101  14.242
30238SOL    HW292554  10.803   5.007  14.169
30239SOL     OW92555  11.736   3.223   9.510
30239SOL    HW192556  11.672   3.273   9.459
30239SOL    HW292557  11.818   3.272   9.500
30240SOL     OW92558   3.774   7.785   7.655
30240SOL    HW192559   3.853   7.773   7.603
30240SOL    HW292560   3.755   7.699   7.691
30241SOL     OW92561  11.643   3.002  10.277
30241SOL    HW192562  11.599   3.033  10.198
30241SOL    HW292563  11.733   2.985  10.249
30242SOL     OW92564  11.673   9.618   2.593
30242SOL    HW192565  11.712   9.552   2.650
30242SOL    HW292566  11.747   9.659   2.549
30243SOL     OW92567  10.908   2.094  14.308
30243SOL    HW192568  10.992   2.127  14.340
30243SOL    HW292569  10.845   2.118  14.376
30244SOL     OW92570   2.017   4.710   8.990
30244SOL    HW192571   2.089   4.737   9.047
30244SOL    HW292572   2.019   4.773   8.917
30245SOL     OW92573   4.453  12.296  12.913
30245SOL    HW192574   4.378  12.267  12.862
30245SOL    HW292575   4.434  12.387  12.935
30246SOL     OW92576   0.021  10.597  10.968
30246SOL    HW192577  14.853  10.514  10.992
30246SOL    HW292578   0.067  10.578  10.886
30247SOL     OW92579   6.812  10.136  14.112
30247SOL    HW192580   6.822  10.064  14.049
30247SOL    HW292581   6.786  10.211  14.059
30248SOL     OW92582  14.030   1.014   7.695
30248SOL    HW192583  14.027   1.078   7.767
30248SOL    HW292584  14.123   1.007   7.673
30249SOL     OW92585  12.239   9.225  14.238
30249SOL    HW192586  12.207   9.257  14.323
30249SOL    HW292587  12.326   9.191  14.256
30250SOL     OW92588   3.773   8.763   5.315
30250SOL    HW192589   3.742   8.673   5.326
30250SOL    HW292590   3.708   8.804   5.258
30251SOL     OW92591   6.706   3.914   0.856
30251SOL    HW192592   6.624   3.927   0.904
30251SOL    HW292593   6.768   3.974   0.899
30252SOL     OW92594   8.395   2.510   4.362
30252SOL    HW192595   8.370   2.578   4.426
30252SOL    HW292596   8.450   2.450   4.412
30253SOL     OW92597   7.004   0.894   8.975
30253SOL    HW192598   6.915   0.926   8.959
30253SOL    HW292599   7.016   0.904   9.070
30254SOL     OW92600   1.352   3.876   5.411
30254SOL    HW192601   1.399   3.818   5.351
30254SOL    HW292602   1.368   3.839   5.498
30255SOL     OW92603   3.064   8.604   3.116
30255SOL    HW192604   3.105   8.607   3.030
30255SOL    HW292605   3.137   8.603   3.178
30256SOL     OW92606  14.745  10.625   1.499
30256SOL    HW192607  14.811  10.673   1.550
30256SOL    HW292608  14.771  10.638   1.408
30257SOL     OW92609  13.065  11.252  12.629
30257SOL    HW192610  13.089  11.162  12.611
30257SOL    HW292611  12.990  11.246  12.688
30258SOL     OW92612   1.050   6.991   1.545
30258SOL    HW192613   1.102   7.024   1.472
30258SOL    HW292614   1.039   7.066   1.604
30259SOL     OW92615   0.628   3.786   8.325
30259SOL    HW192616   0.674   3.863   8.292
30259SOL    HW292617   0.539   3.795   8.290
30260SOL     OW92618   2.762   7.260   8.497
30260SOL    HW192619   2.789   7.170   8.477
30260SOL    HW292620   2.777   7.269   8.591
30261SOL     OW92621   7.147   9.978  11.328
30261SOL    HW192622   7.207   9.968  11.401
30261SOL    HW292623   7.071   9.924  11.351
30262SOL     OW92624   0.733  10.248   0.839
30262SOL    HW192625   0.733  10.224   0.746
30262SOL    HW292626   0.668  10.190   0.879
30263SOL     OW92627   9.351   7.936   9.959
30263SOL    HW192628   9.403   7.920  10.037
30263SOL    HW292629   9.376   8.024   9.931
30264SOL     OW92630  11.750   3.980  10.883
30264SOL    HW192631  11.667   4.016  10.851
30264SOL    HW292632  11.817   4.024  10.830
30265SOL     OW92633   7.468   5.850   5.960
30265SOL    HW192634   7.398   5.788   5.941
30265SOL    HW292635   7.449   5.883   6.048
30266SOL     OW92636   9.188   6.323  13.199
30266SOL    HW192637   9.117   6.259  13.191
30266SOL    HW292638   9.240   6.313  13.120
30267SOL     OW92639   3.653   5.841   6.242
30267SOL    HW192640   3.611   5.918   6.201
30267SOL    HW292641   3.747   5.858   6.234
30268SOL     OW92642   8.134   2.914   1.456
30268SOL    HW192643   8.117   2.848   1.523
30268SOL    HW292644   8.066   2.900   1.390
30269SOL     OW92645   5.359  11.301   4.861
30269SOL    HW192646   5.379  11.355   4.937
30269SOL    HW292647   5.264  11.307   4.852
30270SOL     OW92648   6.675   9.492  11.533
30270SOL    HW192649   6.649   9.562  11.593
30270SOL    HW292650   6.725   9.536  11.464
30271SOL     OW92651   9.115  12.650  12.964
30271SOL    HW192652   9.202  12.682  12.986
30271SOL    HW292653   9.118  12.632  12.870
30272SOL     OW92654   0.546  13.448   2.375
30272SOL    HW192655   0.452  13.461   2.385
30272SOL    HW292656   0.569  13.383   2.441
30273SOL     OW92657   4.720  14.247   0.200
30273SOL    HW192658   4.727  14.244   0.105
30273SOL    HW292659   4.758  14.332   0.224
30274SOL     OW92660   9.175   6.915   3.334
30274SOL    HW192661   9.257   6.885   3.295
30274SOL    HW292662   9.151   6.992   3.283
30275SOL     OW92663   6.107   1.815  12.477
30275SOL    HW192664   6.170   1.853  12.539
30275SOL    HW292665   6.160   1.757  12.422
30276SOL     OW92666   4.927  10.708  10.753
30276SOL    HW192667   4.865  10.780  10.738
30276SOL    HW292668   5.013  10.748  10.740
30277SOL     OW92669   1.298  11.419   1.130
30277SOL    HW192670   1.275  11.334   1.167
30277SOL    HW292671   1.386  11.407   1.094
30278SOL     OW92672  11.895   9.064   9.959
30278SOL    HW192673  11.947   9.141   9.980
30278SOL    HW292674  11.952   9.011   9.902
30279SOL     OW92675  13.701   9.753   9.625
30279SOL    HW192676  13.718   9.661   9.605
30279SOL    HW292677  13.606   9.759   9.631
30280SOL     OW92678   0.871  10.784   7.393
30280SOL    HW192679   0.885  10.744   7.479
30280SOL    HW292680   0.900  10.874   7.404
30281SOL     OW92681   9.464   6.955  12.518
30281SOL    HW192682   9.555   6.944  12.489
30281SOL    HW292683   9.464   7.040  12.562
30282SOL     OW92684  13.501   7.073  10.145
30282SOL    HW192685  13.551   7.021  10.207
30282SOL    HW292686  13.551   7.154  10.135
30283SOL     OW92687   3.060   7.607   1.735
30283SOL    HW192688   3.106   7.572   1.659
30283SOL    HW292689   3.053   7.533   1.795
30284SOL     OW92690  11.512   1.648   4.732
30284SOL    HW192691  11.520   1.703   4.654
30284SOL    HW292692  11.463   1.701   4.794
30285SOL     OW92693   0.879  14.412   9.185
30285SOL    HW192694   0.962  14.424   9.231
30285SOL    HW292695   0.905  14.396   9.094
30286SOL     OW92696   7.130  13.957   2.785
30286SOL    HW192697   7.140  14.012   2.863
30286SOL    HW292698   7.038  13.969   2.759
30287SOL     OW92699  14.482   1.847   0.220
30287SOL    HW192700  14.499   1.938   0.193
30287SOL    HW292701  14.409   1.819   0.165
30288SOL     OW92702   6.660   1.984   2.748
30288SOL    HW192703   6.580   1.935   2.729
30288SOL    HW292704   6.722   1.954   2.683
30289SOL     OW92705   0.103   4.862   7.310
30289SOL    HW192706   0.146   4.777   7.301
30289SOL    HW292707   0.018   4.851   7.267
30290SOL     OW92708   4.279   8.951  12.021
30290SOL    HW192709   4.326   9.004  12.086
30290SOL    HW292710   4.195   8.930  12.063
30291SOL     OW92711   4.641   0.642  10.816
30291SOL    HW192712   4.654   0.548  10.832
30291SOL    HW292713   4.559   0.646  10.767
30292SOL     OW92714   2.896  11.460   2.391
30292SOL    HW192715   2.928  11.550   2.398
30292SOL    HW292716   2.824  11.456   2.454
30293SOL     OW92717   9.061  12.271  12.726
30293SOL    HW192718   9.025  12.279  12.638
30293SOL    HW292719   8.985  12.253  12.782
30294SOL     OW92720   5.361   3.124  10.042
30294SOL    HW192721   5.364   3.104   9.948
30294SOL    HW292722   5.320   3.210  10.048
30295SOL     OW92723  14.687  10.609   6.772
30295SOL    HW192724  14.702  10.546   6.843
30295SOL    HW292725  14.732  10.571   6.697
30296SOL     OW92726   7.128  13.099   6.252
30296SOL    HW192727   7.073  13.060   6.320
30296SOL    HW292728   7.081  13.178   6.225
30297SOL     OW92729   5.623  12.237   3.038
30297SOL    HW192730   5.702  12.186   3.022
30297SOL    HW292731   5.647  12.298   3.107
30298SOL     OW92732   2.394  11.868   2.164
30298SOL    HW192733   2.390  11.949   2.113
30298SOL    HW292734   2.342  11.805   2.114
30299SOL     OW92735   1.107  10.322   9.860
30299SOL    HW192736   1.091  10.398   9.917
30299SOL    HW292737   1.121  10.360   9.774
30300SOL     OW92738   7.472   5.626   9.891
30300SOL    HW192739   7.478   5.558   9.824
30300SOL    HW292740   7.394   5.676   9.868
30301SOL     OW92741   0.405   0.748   6.862
30301SOL    HW192742   0.490   0.710   6.839
30301SOL    HW292743   0.363   0.765   6.777
30302SOL     OW92744   6.888   9.371  14.629
30302SOL    HW192745   6.972   9.372  14.674
30302SOL    HW292746   6.904   9.419  14.548
30303SOL     OW92747   1.857   9.559  13.855
30303SOL    HW192748   1.764   9.578  13.843
30303SOL    HW292749   1.899   9.598  13.778
30304SOL     OW92750  14.558   4.198  14.338
30304SOL    HW192751  14.468   4.208  14.369
30304SOL    HW292752  14.584   4.111  14.369
30305SOL     OW92753   8.325  12.487  13.273
30305SOL    HW192754   8.286  12.401  13.260
30305SOL    HW292755   8.252  12.543  13.298
30306SOL     OW92756  13.609   0.932   8.213
30306SOL    HW192757  13.674   0.933   8.143
30306SOL    HW292758  13.584   1.023   8.224
30307SOL     OW92759  13.396  14.499   9.395
30307SOL    HW192760  13.322  14.513   9.335
30307SOL    HW292761  13.457  14.570   9.375
30308SOL     OW92762   7.616   8.655   2.017
30308SOL    HW192763   7.567   8.633   2.096
30308SOL    HW292764   7.708   8.656   2.045
30309SOL     OW92765   0.848   8.331  12.644
30309SOL    HW192766   0.849   8.427  12.642
30309SOL    HW292767   0.926   8.308  12.695
30310SOL     OW92768   5.781  11.299   6.591
30310SOL    HW192769   5.827  11.367   6.640
30310SOL    HW292770   5.688  11.314   6.612
30311SOL     OW92771   1.981   0.968   0.690
30311SOL    HW192772   2.074   0.950   0.680
30311SOL    HW292773   1.952   0.908   0.759
30312SOL     OW92774   6.780   0.965  13.886
30312SOL    HW192775   6.686   0.956  13.874
30312SOL    HW292776   6.804   1.043  13.836
30313SOL     OW92777   2.445  13.591   4.706
30313SOL    HW192778   2.363  13.570   4.663
30313SOL    HW292779   2.461  13.518   4.766
30314SOL     OW92780  12.804  10.499  13.934
30314SOL    HW192781  12.825  10.559  14.005
30314SOL    HW292782  12.776  10.555  13.862
30315SOL     OW92783   4.798  12.470   7.615
30315SOL    HW192784   4.800  12.374   7.613
30315SOL    HW292785   4.766  12.491   7.703
30316SOL     OW92786   8.916   2.987   3.605
30316SOL    HW192787   8.905   3.053   3.673
30316SOL    HW292788   8.985   2.930   3.638
30317SOL     OW92789  11.744  10.830   9.532
30317SOL    HW192790  11.821  10.861   9.579
30317SOL    HW292791  11.708  10.908   9.490
30318SOL     OW92792  11.184  12.052   5.854
30318SOL    HW192793  11.175  12.103   5.935
30318SOL    HW292794  11.223  12.113   5.791
30319SOL     OW92795   8.784   8.878  11.153
30319SOL    HW192796   8.785   8.957  11.206
30319SOL    HW292797   8.876   8.865  11.127
30320SOL     OW92798   3.678   1.920   9.599
30320SOL    HW192799   3.763   1.881   9.619
30320SOL    HW292800   3.683   1.941   9.506
30321SOL     OW92801   7.580   0.314   4.910
30321SOL    HW192802   7.672   0.317   4.885
30321SOL    HW292803   7.559   0.403   4.938
30322SOL     OW92804   8.484  11.626   9.756
30322SOL    HW192805   8.498  11.588   9.670
30322SOL    HW292806   8.524  11.564   9.817
30323SOL     OW92807  12.111   5.093   1.097
30323SOL    HW192808  12.199   5.063   1.117
30323SOL    HW292809  12.062   5.013   1.079
30324SOL     OW92810   2.415   7.511  12.799
30324SOL    HW192811   2.486   7.500  12.863
30324SOL    HW292812   2.380   7.598  12.819
30325SOL     OW92813   6.926   5.016   7.470
30325SOL    HW192814   7.015   5.041   7.443
30325SOL    HW292815   6.891   5.094   7.513
30326SOL     OW92816   4.631   8.730   6.560
30326SOL    HW192817   4.650   8.706   6.651
30326SOL    HW292818   4.568   8.664   6.531
30327SOL     OW92819   6.613  14.258   5.189
30327SOL    HW192820   6.615  14.166   5.162
30327SOL    HW292821   6.635  14.255   5.283
30328SOL     OW92822   7.037   6.505   0.222
30328SOL    HW192823   7.026   6.597   0.199
30328SOL    HW292824   7.084   6.506   0.305
30329SOL     OW92825  10.240   9.573   5.836
30329SOL    HW192826  10.326   9.611   5.821
30329SOL    HW292827  10.192   9.640   5.885
30330SOL     OW92828   0.837   1.366  11.990
30330SOL    HW192829   0.889   1.390  12.067
30330SOL    HW292830   0.784   1.292  12.019
30331SOL     OW92831   8.498  13.491   4.515
30331SOL    HW192832   8.572  13.516   4.459
30331SOL    HW292833   8.508  13.396   4.525
30332SOL     OW92834   7.077   1.753   1.418
30332SOL    HW192835   7.093   1.663   1.448
30332SOL    HW292836   7.117   1.756   1.331
30333SOL     OW92837   1.450   1.760  14.826
30333SOL    HW192838   1.537   1.738  14.795
30333SOL    HW292839   1.464   1.804   0.036
30334SOL     OW92840  10.043   8.889   7.686
30334SOL    HW192841   9.966   8.848   7.728
30334SOL    HW292842  10.006   8.953   7.626
30335SOL     OW92843   5.953   2.337   1.818
30335SOL    HW192844   5.927   2.332   1.910
30335SOL    HW292845   5.871   2.336   1.769
30336SOL     OW92846   2.147   4.897   6.930
30336SOL    HW192847   2.123   4.989   6.936
30336SOL    HW292848   2.181   4.875   7.016
30337SOL     OW92849   4.214   8.128   5.225
30337SOL    HW192850   4.157   8.144   5.150
30337SOL    HW292851   4.280   8.066   5.192
30338SOL     OW92852  11.203   5.855  14.012
30338SOL    HW192853  11.290   5.834  14.046
30338SOL    HW292854  11.220   5.898  13.928
30339SOL     OW92855   7.646   4.914   2.469
30339SOL    HW192856   7.585   4.870   2.528
30339SOL    HW292857   7.626   4.878   2.382
30340SOL     OW92858   1.254  14.247  10.608
30340SOL    HW192859   1.196  14.243  10.532
30340SOL    HW292860   1.277  14.156  10.626
30341SOL     OW92861   8.583   9.462  10.379
30341SOL    HW192862   8.590   9.425  10.467
30341SOL    HW292863   8.563   9.387  10.323
30342SOL     OW92864   4.344   8.012   3.708
30342SOL    HW192865   4.343   7.970   3.795
30342SOL    HW292866   4.324   7.941   3.647
30343SOL     OW92867   0.602   6.939   8.183
30343SOL    HW192868   0.585   6.945   8.278
30343SOL    HW292869   0.516   6.918   8.146
30344SOL     OW92870   3.655  10.182   6.937
30344SOL    HW192871   3.738  10.229   6.952
30344SOL    HW292872   3.658  10.157   6.845
30345SOL     OW92873  12.837   6.686  10.911
30345SOL    HW192874  12.756   6.726  10.879
30345SOL    HW292875  12.809   6.602  10.947
30346SOL     OW92876   3.497  12.728  14.582
30346SOL    HW192877   3.426  12.789  14.601
30346SOL    HW292878   3.566  12.751  14.645
30347SOL     OW92879  13.189   5.792   5.666
30347SOL    HW192880  13.204   5.759   5.577
30347SOL    HW292881  13.268   5.842   5.687
30348SOL     OW92882   6.006  14.753   3.593
30348SOL    HW192883   5.982  14.786   3.506
30348SOL    HW292884   6.040  14.830   3.639
30349SOL     OW92885   0.780  14.439   6.465
30349SOL    HW192886   0.814  14.528   6.473
30349SOL    HW292887   0.706  14.446   6.405
30350SOL     OW92888   3.187  11.288   2.076
30350SOL    HW192889   3.243  11.344   2.130
30350SOL    HW292890   3.248  11.236   2.024
30351SOL     OW92891   0.256  14.327   4.714
30351SOL    HW192892   0.288  14.270   4.783
30351SOL    HW292893   0.223  14.404   4.760
30352SOL     OW92894   4.666   4.613   2.405
30352SOL    HW192895   4.728   4.541   2.423
30352SOL    HW292896   4.708   4.690   2.442
30353SOL     OW92897   1.232   0.907   2.981
30353SOL    HW192898   1.156   0.854   2.956
30353SOL    HW292899   1.290   0.846   3.026
30354SOL     OW92900  13.019  13.901   1.824
30354SOL    HW192901  12.994  13.829   1.766
30354SOL    HW292902  12.987  13.875   1.911
30355SOL     OW92903   5.366   7.617   5.436
30355SOL    HW192904   5.317   7.687   5.477
30355SOL    HW292905   5.403   7.656   5.356
30356SOL     OW92906   9.485  10.522   1.747
30356SOL    HW192907   9.580  10.509   1.742
30356SOL    HW292908   9.475  10.614   1.772
30357SOL     OW92909   6.387   3.179   9.270
30357SOL    HW192910   6.410   3.267   9.298
30357SOL    HW292911   6.457   3.123   9.305
30358SOL     OW92912   0.080  13.049  10.511
30358SOL    HW192913   0.104  12.959  10.490
30358SOL    HW292914  14.857  13.046  10.520
30359SOL     OW92915  13.899  10.365  11.958
30359SOL    HW192916  13.969  10.411  12.004
30359SOL    HW292917  13.888  10.283  12.006
30360SOL     OW92918   2.621   4.747   2.653
30360SOL    HW192919   2.567   4.749   2.732
30360SOL    HW292920   2.575   4.804   2.591
30361SOL     OW92921   7.795   3.469   8.739
30361SOL    HW192922   7.727   3.530   8.768
30361SOL    HW292923   7.855   3.522   8.687
30362SOL     OW92924   2.245   7.403   7.375
30362SOL    HW192925   2.163   7.375   7.334
30362SOL    HW292926   2.222   7.480   7.426
30363SOL     OW92927   3.702  11.594   5.589
30363SOL    HW192928   3.746  11.583   5.673
30363SOL    HW292929   3.657  11.678   5.596
30364SOL     OW92930  11.855   2.613   9.301
30364SOL    HW192931  11.858   2.519   9.283
30364SOL    HW292932  11.768   2.640   9.272
30365SOL     OW92933   8.641  13.002   7.082
30365SOL    HW192934   8.613  13.000   6.990
30365SOL    HW292935   8.736  13.014   7.076
30366SOL     OW92936  10.209   6.254   9.861
30366SOL    HW192937  10.243   6.325   9.915
30366SOL    HW292938  10.114   6.260   9.870
30367SOL     OW92939  10.119   9.060   7.084
30367SOL    HW192940  10.155   9.144   7.114
30367SOL    HW292941  10.106   9.072   6.990
30368SOL     OW92942   1.231   3.331  13.230
30368SOL    HW192943   1.205   3.406  13.283
30368SOL    HW292944   1.150   3.301  13.189
30369SOL     OW92945   4.860   2.970  11.690
30369SOL    HW192946   4.876   2.894  11.634
30369SOL    HW292947   4.939   3.024  11.680
30370SOL     OW92948  10.543  14.324   8.229
30370SOL    HW192949  10.499  14.297   8.310
30370SOL    HW292950  10.496  14.278   8.160
30371SOL     OW92951   7.891   8.164   6.893
30371SOL    HW192952   7.937   8.097   6.843
30371SOL    HW292953   7.884   8.238   6.833
30372SOL     OW92954   8.006   3.824   8.922
30372SOL    HW192955   8.079   3.807   8.981
30372SOL    HW292956   7.930   3.832   8.979
30373SOL     OW92957  11.589   3.552   1.174
30373SOL    HW192958  11.637   3.613   1.119
30373SOL    HW292959  11.580   3.473   1.121
30374SOL     OW92960   9.114   2.990   5.947
30374SOL    HW192961   9.178   2.920   5.946
30374SOL    HW292962   9.138   3.045   6.022
30375SOL     OW92963   0.188  14.013  12.316
30375SOL    HW192964   0.125  14.036  12.248
30375SOL    HW292965   0.274  14.024  12.274
30376SOL     OW92966  12.342   3.017   8.331
30376SOL    HW192967  12.349   2.922   8.333
30376SOL    HW292968  12.412   3.045   8.272
30377SOL     OW92969   6.106   2.929   4.710
30377SOL    HW192970   6.017   2.941   4.678
30377SOL    HW292971   6.161   2.945   4.633
30378SOL     OW92972  11.704   4.993   1.896
30378SOL    HW192973  11.718   4.899   1.903
30378SOL    HW292974  11.742   5.016   1.811
30379SOL     OW92975   7.053   7.117  10.681
30379SOL    HW192976   6.964   7.153  10.679
30379SOL    HW292977   7.039   7.022  10.692
30380SOL     OW92978  12.576  13.440   7.272
30380SOL    HW192979  12.526  13.361   7.295
30380SOL    HW292980  12.630  13.458   7.349
30381SOL     OW92981  14.688  14.381   3.146
30381SOL    HW192982  14.633  14.376   3.224
30381SOL    HW292983  14.653  14.314   3.088
30382SOL     OW92984   1.439   3.177   7.388
30382SOL    HW192985   1.512   3.140   7.437
30382SOL    HW292986   1.424   3.263   7.428
30383SOL     OW92987   4.616   7.733   7.101
30383SOL    HW192988   4.598   7.732   7.007
30383SOL    HW292989   4.688   7.671   7.112
30384SOL     OW92990   8.827  10.686   6.506
30384SOL    HW192991   8.914  10.679   6.546
30384SOL    HW292992   8.771  10.633   6.562
30385SOL     OW92993   0.386  13.774   7.903
30385SOL    HW192994   0.382  13.835   7.829
30385SOL    HW292995   0.309  13.718   7.891
30386SOL     OW92996   5.506   3.649   7.756
30386SOL    HW192997   5.418   3.684   7.768
30386SOL    HW292998   5.527   3.607   7.840
30387SOL     OW92999   8.216  13.729   6.904
30387SOL    HW193000   8.211  13.777   6.987
30387SOL    HW293001   8.182  13.642   6.924
30388SOL     OW93002   9.128   0.580  14.783
30388SOL    HW193003   9.062   0.630  14.736
30388SOL    HW293004   9.094   0.490  14.784
30389SOL     OW93005   7.484  14.739  13.288
30389SOL    HW193006   7.472  14.815  13.231
30389SOL    HW293007   7.395  14.713  13.311
30390SOL     OW93008  13.551  14.118  12.144
30390SOL    HW193009  13.512  14.102  12.058
30390SOL    HW293010  13.645  14.126  12.126
30391SOL     OW93011   8.311   8.974  13.678
30391SOL    HW193012   8.278   8.886  13.660
30391SOL    HW293013   8.341   8.969  13.769
30392SOL     OW93014  11.246  11.856   3.391
30392SOL    HW193015  11.238  11.773   3.439
30392SOL    HW293016  11.186  11.846   3.317
30393SOL     OW93017  12.427   9.020  13.419
30393SOL    HW193018  12.454   9.069  13.341
30393SOL    HW293019  12.480   8.940  13.417
30394SOL     OW93020   2.963  14.631   0.310
30394SOL    HW193021   3.009  14.586   0.239
30394SOL    HW293022   3.032  14.656   0.370
30395SOL     OW93023  12.158   9.028   5.007
30395SOL    HW193024  12.193   8.951   4.963
30395SOL    HW293025  12.090   9.060   4.948
30396SOL     OW93026   1.534   2.176   3.430
30396SOL    HW193027   1.450   2.130   3.417
30396SOL    HW293028   1.519   2.264   3.395
30397SOL     OW93029   7.854   9.258   6.507
30397SOL    HW193030   7.864   9.188   6.571
30397SOL    HW293031   7.872   9.338   6.555
30398SOL     OW93032  10.680  14.011   0.789
30398SOL    HW193033  10.749  14.068   0.755
30398SOL    HW293034  10.656  14.050   0.873
30399SOL     OW93035  11.573   8.613  10.130
30399SOL    HW193036  11.485   8.650  10.119
30399SOL    HW293037  11.600   8.587  10.042
30400SOL     OW93038   9.922   0.884   0.833
30400SOL    HW193039   9.912   0.893   0.738
30400SOL    HW293040   9.841   0.923   0.869
30401SOL     OW93041  11.294  10.816   1.672
30401SOL    HW193042  11.211  10.858   1.647
30401SOL    HW293043  11.320  10.767   1.594
30402SOL     OW93044   9.541  11.232   0.417
30402SOL    HW193045   9.614  11.190   0.461
30402SOL    HW293046   9.547  11.202   0.326
30403SOL     OW93047   8.707  10.462  13.673
30403SOL    HW193048   8.706  10.445  13.578
30403SOL    HW293049   8.648  10.396  13.710
30404SOL     OW93050   4.632   4.711  12.518
30404SOL    HW193051   4.573   4.666  12.457
30404SOL    HW293052   4.657   4.791  12.473
30405SOL     OW93053  13.021  11.396   9.984
30405SOL    HW193054  13.100  11.449   9.973
30405SOL    HW293055  13.031  11.356  10.070
30406SOL     OW93056  12.944   6.435  12.662
30406SOL    HW193057  12.861   6.467  12.698
30406SOL    HW293058  13.001   6.512  12.664
30407SOL     OW93059   3.377   7.169   7.534
30407SOL    HW193060   3.425   7.086   7.536
30407SOL    HW293061   3.407   7.212   7.454
30408SOL     OW93062  14.497  12.798   9.804
30408SOL    HW193063  14.566  12.865   9.805
30408SOL    HW293064  14.420  12.844   9.838
30409SOL     OW93065   9.184   6.650   0.793
30409SOL    HW193066   9.254   6.707   0.762
30409SOL    HW293067   9.207   6.563   0.758
30410SOL     OW93068  10.520   8.419  11.745
30410SOL    HW193069  10.426   8.410  11.761
30410SOL    HW293070  10.530   8.404  11.651
30411SOL     OW93071   8.329   8.295  14.400
30411SOL    HW193072   8.397   8.314  14.334
30411SOL    HW293073   8.378   8.265  14.476
30412SOL     OW93074  12.168  12.148   2.362
30412SOL    HW193075  12.089  12.123   2.313
30412SOL    HW293076  12.136  12.211   2.427
30413SOL     OW93077   8.148   7.432   0.699
30413SOL    HW193078   8.205   7.498   0.738
30413SOL    HW293079   8.106   7.477   0.626
30414SOL     OW93080   1.378   7.922   5.678
30414SOL    HW193081   1.366   8.014   5.701
30414SOL    HW293082   1.325   7.910   5.599
30415SOL     OW93083  11.347   1.824  12.743
30415SOL    HW193084  11.331   1.732  12.720
30415SOL    HW293085  11.416   1.819  12.810
30416SOL     OW93086   5.776   3.645   9.437
30416SOL    HW193087   5.843   3.616   9.499
30416SOL    HW293088   5.732   3.564   9.410
30417SOL     OW93089   4.103   3.055   2.114
30417SOL    HW193090   4.039   3.001   2.069
30417SOL    HW293091   4.100   3.139   2.068
30418SOL     OW93092  11.106  13.326   6.453
30418SOL    HW193093  11.197  13.356   6.450
30418SOL    HW293094  11.060  13.395   6.502
30419SOL     OW93095  12.994   8.242   1.017
30419SOL    HW193096  13.028   8.309   0.958
30419SOL    HW293097  12.954   8.177   0.959
30420SOL     OW93098   4.024   1.473  14.000
30420SOL    HW193099   4.018   1.433  13.913
30420SOL    HW293100   3.976   1.414  14.058
30421SOL     OW93101   7.295   4.298  12.992
30421SOL    HW193102   7.360   4.229  13.005
30421SOL    HW293103   7.346   4.376  12.970
30422SOL     OW93104   9.494  10.324  10.733
30422SOL    HW193105   9.477  10.418  10.737
30422SOL    HW293106   9.417  10.284  10.772
30423SOL     OW93107   1.041   9.414  10.806
30423SOL    HW193108   0.958   9.387  10.845
30423SOL    HW293109   1.057   9.349  10.736
30424SOL     OW93110   3.835   1.511   8.308
30424SOL    HW193111   3.871   1.586   8.261
30424SOL    HW293112   3.812   1.448   8.239
30425SOL     OW93113  13.461   3.082   6.454
30425SOL    HW193114  13.398   3.071   6.382
30425SOL    HW293115  13.408   3.106   6.530
30426SOL     OW93116   8.235   9.584  13.880
30426SOL    HW193117   8.280   9.512  13.837
30426SOL    HW293118   8.257   9.661  13.827
30427SOL     OW93119   8.981   1.054  12.046
30427SOL    HW193120   8.913   0.994  12.077
30427SOL    HW293121   8.977   1.128  12.106
30428SOL     OW93122   3.031   7.873  10.468
30428SOL    HW193123   2.990   7.788  10.482
30428SOL    HW293124   2.958   7.932  10.445
30429SOL     OW93125   2.531  10.365   0.423
30429SOL    HW193126   2.439  10.391   0.429
30429SOL    HW293127   2.575  10.441   0.386
30430SOL     OW93128   8.675   5.762  11.206
30430SOL    HW193129   8.613   5.833  11.223
30430SOL    HW293130   8.665   5.703  11.281
30431SOL     OW93131   5.215  11.625   5.713
30431SOL    HW193132   5.231  11.533   5.731
30431SOL    HW293133   5.300  11.659   5.686
30432SOL     OW93134   1.072   9.592  11.931
30432SOL    HW193135   1.128   9.650  11.983
30432SOL    HW293136   1.129   9.518  11.908
30433SOL     OW93137   2.994   4.434   9.177
30433SOL    HW193138   3.031   4.349   9.156
30433SOL    HW293139   3.015   4.448   9.270
30434SOL     OW93140   8.817   5.622   9.908
30434SOL    HW193141   8.834   5.706   9.951
30434SOL    HW293142   8.722   5.619   9.899
30435SOL     OW93143   1.858   7.564  12.295
30435SOL    HW193144   1.914   7.638  12.321
30435SOL    HW293145   1.836   7.521  12.378
30436SOL     OW93146   3.437   5.495   5.945
30436SOL    HW193147   3.529   5.495   5.970
30436SOL    HW293148   3.419   5.585   5.918
30437SOL     OW93149   4.047   2.760   7.796
30437SOL    HW193150   3.962   2.740   7.757
30437SOL    HW293151   4.028   2.777   7.888
30438SOL     OW93152   9.391  13.625  11.848
30438SOL    HW193153   9.423  13.712  11.873
30438SOL    HW293154   9.373  13.580  11.930
30439SOL     OW93155   9.590  10.432   7.433
30439SOL    HW193156   9.674  10.425   7.479
30439SOL    HW293157   9.529  10.464   7.499
30440SOL     OW93158   0.688   5.156   5.272
30440SOL    HW193159   0.725   5.243   5.287
30440SOL    HW293160   0.611   5.153   5.329
30441SOL     OW93161   9.614   8.240  11.635
30441SOL    HW193162   9.620   8.324  11.591
30441SOL    HW293163   9.615   8.176  11.564
30442SOL     OW93164   8.714   4.759   1.693
30442SOL    HW193165   8.785   4.821   1.708
30442SOL    HW293166   8.635   4.812   1.694
30443SOL     OW93167   3.842  11.568  13.236
30443SOL    HW193168   3.770  11.551  13.176
30443SOL    HW293169   3.874  11.655  13.211
30444SOL     OW93170  10.081   4.882   2.122
30444SOL    HW193171  10.108   4.888   2.030
30444SOL    HW293172  10.142   4.818   2.161
30445SOL     OW93173   2.574   1.939   8.591
30445SOL    HW193174   2.657   1.973   8.624
30445SOL    HW293175   2.509   2.004   8.617
30446SOL     OW93176  11.413   1.798   3.408
30446SOL    HW193177  11.334   1.744   3.409
30446SOL    HW293178  11.475   1.750   3.353
30447SOL     OW93179  13.101   4.394  12.437
30447SOL    HW193180  13.031   4.443  12.393
30447SOL    HW293181  13.175   4.399  12.376
30448SOL     OW93182   6.066  12.530  12.583
30448SOL    HW193183   6.137  12.481  12.542
30448SOL    HW293184   5.988  12.506  12.533
30449SOL     OW93185   7.783   8.715  14.777
30449SOL    HW193186   7.773   8.654  14.704
30449SOL    HW293187   7.709   8.775  14.767
30450SOL     OW93188  12.973   6.041   4.285
30450SOL    HW193189  13.013   6.110   4.232
30450SOL    HW293190  12.894   6.082   4.321
30451SOL     OW93191   9.278   8.665   0.305
30451SOL    HW193192   9.223   8.648   0.229
30451SOL    HW293193   9.356   8.708   0.269
30452SOL     OW93194   9.514   2.416   6.921
30452SOL    HW193195   9.561   2.484   6.872
30452SOL    HW293196   9.458   2.374   6.855
30453SOL     OW93197   0.277   5.705   5.478
30453SOL    HW193198   0.264   5.766   5.405
30453SOL    HW293199   0.329   5.634   5.441
30454SOL     OW93200   5.798  10.274  10.399
30454SOL    HW193201   5.736  10.286  10.327
30454SOL    HW293202   5.753  10.214  10.458
30455SOL     OW93203   7.100  10.150   9.380
30455SOL    HW193204   7.010  10.116   9.382
30455SOL    HW293205   7.105  10.209   9.456
30456SOL     OW93206   0.135   0.711  12.278
30456SOL    HW193207   0.157   0.659  12.200
30456SOL    HW293208   0.156   0.801  12.254
30457SOL     OW93209   2.060   2.730   6.580
30457SOL    HW193210   2.125   2.772   6.635
30457SOL    HW293211   2.075   2.765   6.492
30458SOL     OW93212  14.323   8.079   4.699
30458SOL    HW193213  14.227   8.069   4.697
30458SOL    HW293214  14.342   8.143   4.630
30459SOL     OW93215   4.732   2.484  14.654
30459SOL    HW193216   4.639   2.462  14.649
30459SOL    HW293217   4.738   2.545  14.728
30460SOL     OW93218  14.269   5.109  10.084
30460SOL    HW193219  14.256   5.039  10.021
30460SOL    HW293220  14.211   5.179  10.055
30461SOL     OW93221   6.341  11.327  10.499
30461SOL    HW193222   6.261  11.347  10.549
30461SOL    HW293223   6.393  11.273  10.558
30462SOL     OW93224   0.608   0.268   9.135
30462SOL    HW193225   0.604   0.181   9.175
30462SOL    HW293226   0.701   0.281   9.117
30463SOL     OW93227   9.700   2.178  13.486
30463SOL    HW193228   9.761   2.106  13.498
30463SOL    HW293229   9.701   2.226  13.569
30464SOL     OW93230   7.279  14.529  13.169
30464SOL    HW193231   7.337  14.584  13.117
30464SOL    HW293232   7.204  14.512  13.112
30465SOL     OW93233  12.049  13.561   3.882
30465SOL    HW193234  11.970  13.590   3.836
30465SOL    HW293235  12.022  13.553   3.974
30466SOL     OW93236   3.704   9.356   0.431
30466SOL    HW193237   3.712   9.268   0.468
30466SOL    HW293238   3.632   9.350   0.369
30467SOL     OW93239   6.154  11.456   0.988
30467SOL    HW193240   6.191  11.544   0.994
30467SOL    HW293241   6.227  11.401   0.959
30468SOL     OW93242  10.664   1.891   4.168
30468SOL    HW193243  10.622   1.834   4.104
30468SOL    HW293244  10.725   1.834   4.215
30469SOL     OW93245   3.994   1.884   3.215
30469SOL    HW193246   3.971   1.931   3.135
30469SOL    HW293247   4.017   1.796   3.186
30470SOL     OW93248   9.105   5.151   3.279
30470SOL    HW193249   9.076   5.126   3.366
30470SOL    HW293250   9.040   5.216   3.249
30471SOL     OW93251   9.315   6.353   7.716
30471SOL    HW193252   9.252   6.388   7.653
30471SOL    HW293253   9.338   6.427   7.772
30472SOL     OW93254   1.039   5.333   8.514
30472SOL    HW193255   1.030   5.334   8.609
30472SOL    HW293256   0.977   5.399   8.483
30473SOL     OW93257   5.579   3.927  11.710
30473SOL    HW193258   5.654   3.882  11.750
30473SOL    HW293259   5.585   4.017  11.743
30474SOL     OW93260   9.495  14.239   3.210
30474SOL    HW193261   9.530  14.222   3.123
30474SOL    HW293262   9.502  14.334   3.221
30475SOL     OW93263  12.604  14.549  10.312
30475SOL    HW193264  12.544  14.493  10.262
30475SOL    HW293265  12.588  14.526  10.403
30476SOL     OW93266   5.043   1.505  11.846
30476SOL    HW193267   5.036   1.570  11.915
30476SOL    HW293268   4.987   1.433  11.875
30477SOL     OW93269   2.840  11.725   7.558
30477SOL    HW193270   2.922  11.772   7.576
30477SOL    HW293271   2.834  11.722   7.463
30478SOL     OW93272   2.156   5.612   8.856
30478SOL    HW193273   2.176   5.526   8.821
30478SOL    HW293274   2.227   5.630   8.918
30479SOL     OW93275   6.229  12.503  12.051
30479SOL    HW193276   6.252  12.569  11.986
30479SOL    HW293277   6.215  12.552  12.132
30480SOL     OW93278   2.932   5.730   3.660
30480SOL    HW193279   2.896   5.749   3.573
30480SOL    HW293280   2.936   5.634   3.664
30481SOL     OW93281   6.725   1.289   9.766
30481SOL    HW193282   6.730   1.199   9.732
30481SOL    HW293283   6.812   1.305   9.802
30482SOL     OW93284  10.115   4.174  11.955
30482SOL    HW193285  10.206   4.192  11.976
30482SOL    HW293286  10.078   4.260  11.934
30483SOL     OW93287  14.813   3.307  10.489
30483SOL    HW193288   0.004   3.346  10.549
30483SOL    HW293289  14.760   3.381  10.461
30484SOL     OW93290  12.958  13.832   2.081
30484SOL    HW193291  12.875  13.863   2.046
30484SOL    HW293292  12.966  13.877   2.166
30485SOL     OW93293   3.352   4.178  14.116
30485SOL    HW193294   3.294   4.251  14.094
30485SOL    HW293295   3.408   4.168  14.039
30486SOL     OW93296   2.506   3.546  11.893
30486SOL    HW193297   2.573   3.509  11.835
30486SOL    HW293298   2.513   3.640  11.880
30487SOL     OW93299   8.018   1.455  10.314
30487SOL    HW193300   8.013   1.427  10.405
30487SOL    HW293301   8.111   1.467  10.297
30488SOL     OW93302   5.382   1.518  13.966
30488SOL    HW193303   5.350   1.437  14.006
30488SOL    HW293304   5.314   1.583  13.983
30489SOL     OW93305   1.999  12.639   0.537
30489SOL    HW193306   1.955  12.616   0.619
30489SOL    HW293307   2.090  12.612   0.551
30490SOL     OW93308  10.813  11.250  10.406
30490SOL    HW193309  10.755  11.277  10.477
30490SOL    HW293310  10.790  11.308  10.333
30491SOL     OW93311   4.316   5.167   4.010
30491SOL    HW193312   4.286   5.257   4.022
30491SOL    HW293313   4.264   5.135   3.936
30492SOL     OW93314  13.355   5.946   8.437
30492SOL    HW193315  13.339   6.038   8.417
30492SOL    HW293316  13.269   5.904   8.434
30493SOL     OW93317   4.797  11.282   1.805
30493SOL    HW193318   4.706  11.264   1.779
30493SOL    HW293319   4.802  11.250   1.895
30494SOL     OW93320  10.280  13.730  14.453
30494SOL    HW193321  10.245  13.703  14.538
30494SOL    HW293322  10.374  13.710  14.458
30495SOL     OW93323  13.423  10.615  12.055
30495SOL    HW193324  13.459  10.700  12.078
30495SOL    HW293325  13.480  10.582  11.986
30496SOL     OW93326   4.064   4.788   9.137
30496SOL    HW193327   4.116   4.763   9.060
30496SOL    HW293328   4.128   4.826   9.197
30497SOL     OW93329  11.630   7.474   8.476
30497SOL    HW193330  11.546   7.454   8.517
30497SOL    HW293331  11.668   7.389   8.455
30498SOL     OW93332  10.105   4.744   3.527
30498SOL    HW193333  10.188   4.773   3.563
30498SOL    HW293334  10.126   4.710   3.440
30499SOL     OW93335   8.534  13.794   7.947
30499SOL    HW193336   8.626  13.771   7.932
30499SOL    HW293337   8.531  13.889   7.944
30500SOL     OW93338   9.671   7.113  10.358
30500SOL    HW193339   9.589   7.090  10.403
30500SOL    HW293340   9.682   7.044  10.292
30501SOL     OW93341   9.092   5.080  12.134
30501SOL    HW193342   9.050   5.118  12.057
30501SOL    HW293343   9.114   4.991  12.108
30502SOL     OW93344  11.881   2.963   3.386
30502SOL    HW193345  11.960   3.006   3.351
30502SOL    HW293346  11.915   2.887   3.434
30503SOL     OW93347   7.879   0.603  12.957
30503SOL    HW193348   7.948   0.537  12.963
30503SOL    HW293349   7.807   0.569  13.010
30504SOL     OW93350  12.548   1.337   7.608
30504SOL    HW193351  12.460   1.298   7.608
30504SOL    HW293352  12.540   1.415   7.663
30505SOL     OW93353   1.611   9.152   8.299
30505SOL    HW193354   1.535   9.160   8.241
30505SOL    HW293355   1.678   9.110   8.246
30506SOL     OW93356   0.976  12.915   7.588
30506SOL    HW193357   1.006  12.900   7.678
30506SOL    HW293358   0.959  13.010   7.584
30507SOL     OW93359   5.135   5.008  13.970
30507SOL    HW193360   5.182   5.039  14.048
30507SOL    HW293361   5.064   5.072  13.959
30508SOL     OW93362   3.405   2.366   5.516
30508SOL    HW193363   3.409   2.433   5.447
30508SOL    HW293364   3.472   2.393   5.579
30509SOL     OW93365  13.001  11.250  13.930
30509SOL    HW193366  13.050  11.284  14.006
30509SOL    HW293367  12.910  11.270  13.950
30510SOL     OW93368   8.527   1.421   3.432
30510SOL    HW193369   8.588   1.429   3.505
30510SOL    HW293370   8.443   1.400   3.474
30511SOL     OW93371   5.958   1.860   8.871
30511SOL    HW193372   5.894   1.930   8.875
30511SOL    HW293373   5.954   1.819   8.958
30512SOL     OW93374  10.859   1.619   0.626
30512SOL    HW193375  10.802   1.681   0.581
30512SOL    HW293376  10.892   1.667   0.702
30513SOL     OW93377   7.018   4.532   6.083
30513SOL    HW193378   7.110   4.541   6.107
30513SOL    HW293379   7.011   4.444   6.046
30514SOL     OW93380   4.588   3.398  11.267
30514SOL    HW193381   4.547   3.312  11.258
30514SOL    HW293382   4.605   3.406  11.361
30515SOL     OW93383   7.011   2.003   3.057
30515SOL    HW193384   6.923   1.975   3.034
30515SOL    HW293385   7.037   2.062   2.986
30516SOL     OW93386  12.867   8.383  10.774
30516SOL    HW193387  12.780   8.384  10.813
30516SOL    HW293388  12.854   8.348  10.686
30517SOL     OW93389  14.583  13.781  13.907
30517SOL    HW193390  14.625  13.845  13.849
30517SOL    HW293391  14.526  13.730  13.849
30518SOL     OW93392   8.311  14.231  13.146
30518SOL    HW193393   8.320  14.147  13.100
30518SOL    HW293394   8.383  14.285  13.114
30519SOL     OW93395   1.658   6.405   1.063
30519SOL    HW193396   1.731   6.461   1.037
30519SOL    HW293397   1.648   6.343   0.991
30520SOL     OW93398  10.642   6.311  14.716
30520SOL    HW193399  10.577   6.290  14.783
30520SOL    HW293400  10.590   6.333  14.638
30521SOL     OW93401   3.565   2.013   1.993
30521SOL    HW193402   3.527   2.034   2.078
30521SOL    HW293403   3.515   2.066   1.930
30522SOL     OW93404  14.552   4.428  13.910
30522SOL    HW193405  14.637   4.461  13.940
30522SOL    HW293406  14.490   4.497  13.931
30523SOL     OW93407   3.176  11.299   0.558
30523SOL    HW193408   3.131  11.343   0.486
30523SOL    HW293409   3.192  11.211   0.526
30524SOL     OW93410  13.140  13.677   4.317
30524SOL    HW193411  13.116  13.753   4.264
30524SOL    HW293412  13.067  13.617   4.307
30525SOL     OW93413   1.690   2.792  12.454
30525SOL    HW193414   1.603   2.828  12.442
30525SOL    HW293415   1.736   2.856  12.508
30526SOL     OW93416  11.182   8.904   7.829
30526SOL    HW193417  11.123   8.975   7.801
30526SOL    HW293418  11.177   8.840   7.759
30527SOL     OW93419  14.757   9.087   3.232
30527SOL    HW193420  14.709   9.045   3.304
30527SOL    HW293421  14.821   9.143   3.275
30528SOL     OW93422   4.785   2.470   5.470
30528SOL    HW193423   4.745   2.474   5.383
30528SOL    HW293424   4.713   2.489   5.531
30529SOL     OW93425   9.642  11.008   9.170
30529SOL    HW193426   9.622  11.035   9.259
30529SOL    HW293427   9.591  11.067   9.114
30530SOL     OW93428   2.746  10.846   7.240
30530SOL    HW193429   2.714  10.758   7.258
30530SOL    HW293430   2.750  10.888   7.327
30531SOL     OW93431   8.097   6.542  12.118
30531SOL    HW193432   8.162   6.486  12.075
30531SOL    HW293433   8.127   6.631  12.101
30532SOL     OW93434  11.273  10.842  13.907
30532SOL    HW193435  11.302  10.755  13.936
30532SOL    HW293436  11.179  10.833  13.896
30533SOL     OW93437  14.679   6.280   0.013
30533SOL    HW193438  14.755   6.325   0.051
30533SOL    HW293439  14.625   6.256   0.088
30534SOL     OW93440  13.099   4.366   2.218
30534SOL    HW193441  13.160   4.341   2.288
30534SOL    HW293442  13.066   4.282   2.185
30535SOL     OW93443   1.572   8.188   9.364
30535SOL    HW193444   1.571   8.178   9.459
30535SOL    HW293445   1.506   8.255   9.346
30536SOL     OW93446   3.005  12.001  13.956
30536SOL    HW193447   3.059  12.080  13.964
30536SOL    HW293448   3.005  11.964  14.044
30537SOL     OW93449  14.184   8.537  12.666
30537SOL    HW193450  14.193   8.598  12.593
30537SOL    HW293451  14.090   8.533  12.683
30538SOL     OW93452  12.064   6.854   6.196
30538SOL    HW193453  12.105   6.864   6.110
30538SOL    HW293454  12.030   6.941   6.215
30539SOL     OW93455  12.192   3.730  10.483
30539SOL    HW193456  12.197   3.637  10.506
30539SOL    HW293457  12.181   3.730  10.388
30540SOL     OW93458   9.319  14.049  11.524
30540SOL    HW193459   9.232  14.018  11.547
30540SOL    HW293460   9.336  14.009  11.438
30541SOL     OW93461  13.376   8.400  13.478
30541SOL    HW193462  13.332   8.331  13.429
30541SOL    HW293463  13.349   8.481  13.435
30542SOL     OW93464   8.933   6.913   1.376
30542SOL    HW193465   8.917   6.846   1.442
30542SOL    HW293466   9.022   6.943   1.394
30543SOL     OW93467  13.480   9.325   0.618
30543SOL    HW193468  13.552   9.369   0.663
30543SOL    HW293469  13.463   9.246   0.669
30544SOL     OW93470   7.527   5.525   6.398
30544SOL    HW193471   7.445   5.543   6.353
30544SOL    HW293472   7.529   5.589   6.470
30545SOL     OW93473  11.414  14.442  14.082
30545SOL    HW193474  11.450  14.366  14.128
30545SOL    HW293475  11.329  14.458  14.123
30546SOL     OW93476   2.698   9.640   4.417
30546SOL    HW193477   2.628   9.619   4.355
30546SOL    HW293478   2.777   9.602   4.377
30547SOL     OW93479   6.345   3.452  11.787
30547SOL    HW193480   6.439   3.434  11.789
30547SOL    HW293481   6.339   3.543  11.757
30548SOL     OW93482  13.057   4.630   0.954
30548SOL    HW193483  13.114   4.585   1.017
30548SOL    HW293484  13.094   4.609   0.869
30549SOL     OW93485   1.097   4.659  12.037
30549SOL    HW193486   1.096   4.736  11.980
30549SOL    HW293487   1.080   4.695  12.124
30550SOL     OW93488  12.719   8.145   1.205
30550SOL    HW193489  12.808   8.114   1.190
30550SOL    HW293490  12.726   8.204   1.280
30551SOL     OW93491   9.267  13.606   4.226
30551SOL    HW193492   9.315  13.529   4.198
30551SOL    HW293493   9.318  13.680   4.191
30552SOL     OW93494   3.742   4.223   6.270
30552SOL    HW193495   3.662   4.227   6.321
30552SOL    HW293496   3.775   4.313   6.269
30553SOL     OW93497  12.337  10.983  11.863
30553SOL    HW193498  12.370  11.060  11.816
30553SOL    HW293499  12.380  10.986  11.948
30554SOL     OW93500   7.475   4.908   4.974
30554SOL    HW193501   7.563   4.930   4.943
30554SOL    HW293502   7.450   4.831   4.922
30555SOL     OW93503   6.699  13.005   2.628
30555SOL    HW193504   6.681  13.099   2.627
30555SOL    HW293505   6.790  12.997   2.602
30556SOL     OW93506  10.562   7.340  12.969
30556SOL    HW193507  10.563   7.413  12.906
30556SOL    HW293508  10.469   7.323  12.983
30557SOL     OW93509   0.885   5.091   6.510
30557SOL    HW193510   0.798   5.080   6.474
30557SOL    HW293511   0.914   5.177   6.479
30558SOL     OW93512   6.142  14.494   0.975
30558SOL    HW193513   6.199  14.427   0.939
30558SOL    HW293514   6.070  14.446   1.016
30559SOL     OW93515  13.572  12.730  12.852
30559SOL    HW193516  13.607  12.763  12.934
30559SOL    HW293517  13.574  12.635  12.862
30560SOL     OW93518  13.576   6.430   0.290
30560SOL    HW193519  13.530   6.402   0.211
30560SOL    HW293520  13.651   6.480   0.257
30561SOL     OW93521   1.470   6.972   4.134
30561SOL    HW193522   1.534   7.038   4.110
30561SOL    HW293523   1.386   7.017   4.131
30562SOL     OW93524   9.289  11.285   0.534
30562SOL    HW193525   9.278  11.192   0.556
30562SOL    HW293526   9.376  11.291   0.496
30563SOL     OW93527   5.018   6.205   7.003
30563SOL    HW193528   4.952   6.225   7.069
30563SOL    HW293529   4.969   6.205   6.920
30564SOL     OW93530   4.692  13.810  14.052
30564SOL    HW193531   4.633  13.756  13.999
30564SOL    HW293532   4.767  13.826  13.995
30565SOL     OW93533   0.972   2.080   4.542
30565SOL    HW193534   1.067   2.082   4.557
30565SOL    HW293535   0.941   2.007   4.596
30566SOL     OW93536  12.794  13.119  10.777
30566SOL    HW193537  12.858  13.057  10.813
30566SOL    HW293538  12.712  13.096  10.821
30567SOL     OW93539   7.505   6.108  14.042
30567SOL    HW193540   7.567   6.039  14.066
30567SOL    HW293541   7.479   6.146  14.126
30568SOL     OW93542  10.137  13.670   3.236
30568SOL    HW193543  10.113  13.608   3.168
30568SOL    HW293544  10.054  13.696   3.277
30569SOL     OW93545   4.042   8.899  10.817
30569SOL    HW193546   3.982   8.906  10.743
30569SOL    HW293547   3.992   8.853  10.884
30570SOL     OW93548   4.109   4.943   3.294
30570SOL    HW193549   4.156   4.866   3.324
30570SOL    HW293550   4.125   5.010   3.360
30571SOL     OW93551   3.706  14.296   6.767
30571SOL    HW193552   3.775  14.362   6.779
30571SOL    HW293553   3.677  14.308   6.676
30572SOL     OW93554   7.294   1.951   6.760
30572SOL    HW193555   7.377   1.914   6.789
30572SOL    HW293556   7.278   2.024   6.820
30573SOL     OW93557   6.804   2.034   4.192
30573SOL    HW193558   6.820   1.956   4.138
30573SOL    HW293559   6.892   2.066   4.214
30574SOL     OW93560  11.512   9.511  13.441
30574SOL    HW193561  11.586   9.567  13.462
30574SOL    HW293562  11.439   9.571  13.427
30575SOL     OW93563  13.895   0.778   2.281
30575SOL    HW193564  13.950   0.742   2.351
30575SOL    HW293565  13.955   0.831   2.229
30576SOL     OW93566   7.111   1.474   6.484
30576SOL    HW193567   7.076   1.448   6.569
30576SOL    HW293568   7.055   1.548   6.458
30577SOL     OW93569   0.072  12.942  12.976
30577SOL    HW193570  14.863  12.962  13.019
30577SOL    HW293571   0.048  12.921  12.886
30578SOL     OW93572   5.822   5.872   8.195
30578SOL    HW193573   5.891   5.899   8.257
30578SOL    HW293574   5.836   5.927   8.119
30579SOL     OW93575   6.849  13.682   6.796
30579SOL    HW193576   6.789  13.749   6.827
30579SOL    HW293577   6.856  13.698   6.702
30580SOL     OW93578  13.261   6.960   3.417
30580SOL    HW193579  13.317   6.999   3.349
30580SOL    HW293580  13.259   6.867   3.396
30581SOL     OW93581   4.693   1.791  10.324
30581SOL    HW193582   4.634   1.731  10.369
30581SOL    HW293583   4.776   1.743  10.320
30582SOL     OW93584  13.633  11.239   5.958
30582SOL    HW193585  13.544  11.207   5.946
30582SOL    HW293586  13.686  11.159   5.968
30583SOL     OW93587   4.844  13.142   2.630
30583SOL    HW193588   4.776  13.195   2.671
30583SOL    HW293589   4.900  13.206   2.586
30584SOL     OW93590   9.298  14.114   3.604
30584SOL    HW193591   9.222  14.171   3.615
30584SOL    HW293592   9.266  14.026   3.621
30585SOL     OW93593   7.731   9.621   1.239
30585SOL    HW193594   7.659   9.655   1.293
30585SOL    HW293595   7.807   9.671   1.267
30586SOL     OW93596   6.331  14.753  13.327
30586SOL    HW193597   6.420  14.720  13.339
30586SOL    HW293598   6.324  14.772  13.234
30587SOL     OW93599  14.695  11.489  12.905
30587SOL    HW193600  14.751  11.476  12.982
30587SOL    HW293601  14.614  11.524  12.940
30588SOL     OW93602   9.399   9.754   7.234
30588SOL    HW193603   9.337   9.793   7.171
30588SOL    HW293604   9.482   9.749   7.186
30589SOL     OW93605   9.583  14.005   6.428
30589SOL    HW193606   9.658  13.974   6.478
30589SOL    HW293607   9.621  14.040   6.348
30590SOL     OW93608   7.938  14.715  12.945
30590SOL    HW193609   7.920  14.758  12.861
30590SOL    HW293610   7.933  14.622  12.925
30591SOL     OW93611  10.461   6.368  12.027
30591SOL    HW193612  10.412   6.355  12.108
30591SOL    HW293613  10.444   6.289  11.976
30592SOL     OW93614   7.119  12.924   0.898
30592SOL    HW193615   7.118  12.924   0.994
30592SOL    HW293616   7.209  12.948   0.875
30593SOL     OW93617  11.443   9.279   3.112
30593SOL    HW193618  11.378   9.232   3.059
30593SOL    HW293619  11.495   9.328   3.048
30594SOL     OW93620   3.843  12.493  14.056
30594SOL    HW193621   3.808  12.412  14.091
30594SOL    HW293622   3.882  12.468  13.972
30595SOL     OW93623   4.220   0.666   0.472
30595SOL    HW193624   4.125   0.658   0.474
30595SOL    HW293625   4.240   0.741   0.528
30596SOL     OW93626   6.654   1.271   1.122
30596SOL    HW193627   6.605   1.344   1.159
30596SOL    HW293628   6.648   1.284   1.027
30597SOL     OW93629   9.248  11.445  11.370
30597SOL    HW193630   9.305  11.498  11.426
30597SOL    HW293631   9.306  11.413  11.301
30598SOL     OW93632   9.162  11.558   9.048
30598SOL    HW193633   9.247  11.580   9.009
30598SOL    HW293634   9.154  11.463   9.034
30599SOL     OW93635   9.582  11.618   8.505
30599SOL    HW193636   9.621  11.576   8.429
30599SOL    HW293637   9.529  11.690   8.469
30600SOL     OW93638  14.157   0.721   5.025
30600SOL    HW193639  14.102   0.643   5.013
30600SOL    HW293640  14.210   0.701   5.102
30601SOL     OW93641   9.531   4.960   3.251
30601SOL    HW193642   9.468   4.966   3.323
30601SOL    HW293643   9.593   5.031   3.267
30602SOL     OW93644   7.913   3.833  10.172
30602SOL    HW193645   8.001   3.806  10.144
30602SOL    HW293646   7.855   3.770  10.131
30603SOL     OW93647   9.991  11.757   7.810
30603SOL    HW193648   9.977  11.849   7.829
30603SOL    HW293649   9.906  11.725   7.779
30604SOL     OW93650   4.588   7.790  14.595
30604SOL    HW193651   4.496   7.784  14.620
30604SOL    HW293652   4.614   7.878  14.624
30605SOL     OW93653   2.294   8.193   5.034
30605SOL    HW193654   2.358   8.166   4.969
30605SOL    HW293655   2.267   8.281   5.007
30606SOL     OW93656   8.862   0.283   7.627
30606SOL    HW193657   8.949   0.287   7.667
30606SOL    HW293658   8.831   0.194   7.645
30607SOL     OW93659   6.165  14.176   2.436
30607SOL    HW193660   6.069  14.174   2.435
30607SOL    HW293661   6.189  14.193   2.345
30608SOL     OW93662   9.254  14.670   1.639
30608SOL    HW193663   9.305  14.726   1.581
30608SOL    HW293664   9.294  14.683   1.725
30609SOL     OW93665   1.157  10.959   2.813
30609SOL    HW193666   1.119  10.890   2.758
30609SOL    HW293667   1.136  10.933   2.902
30610SOL     OW93668  11.445  13.007   2.303
30610SOL    HW193669  11.410  13.033   2.218
30610SOL    HW293670  11.473  12.917   2.291
30611SOL     OW93671  12.861  14.284   7.329
30611SOL    HW193672  12.844  14.200   7.288
30611SOL    HW293673  12.952  14.303   7.308
30612SOL     OW93674   0.084   8.268   2.796
30612SOL    HW193675   0.049   8.317   2.871
30612SOL    HW293676   0.047   8.312   2.720
30613SOL     OW93677  12.444   2.507  13.161
30613SOL    HW193678  12.420   2.532  13.072
30613SOL    HW293679  12.407   2.575  13.216
30614SOL     OW93680   5.237   6.496   1.557
30614SOL    HW193681   5.151   6.454   1.568
30614SOL    HW293682   5.270   6.507   1.645
30615SOL     OW93683   2.434   8.799  13.048
30615SOL    HW193684   2.473   8.882  13.076
30615SOL    HW293685   2.446   8.798  12.953
30616SOL     OW93686   3.767   2.072   4.985
30616SOL    HW193687   3.851   2.114   5.001
30616SOL    HW293688   3.732   2.053   5.072
30617SOL     OW93689   4.795  10.785   3.388
30617SOL    HW193690   4.813  10.694   3.411
30617SOL    HW293691   4.747  10.781   3.305
30618SOL     OW93692  13.876   5.757   1.609
30618SOL    HW193693  13.893   5.842   1.568
30618SOL    HW293694  13.960   5.729   1.643
30619SOL     OW93695   3.688   8.051   5.888
30619SOL    HW193696   3.732   7.969   5.867
30619SOL    HW293697   3.751   8.100   5.941
30620SOL     OW93698  11.352  12.724  12.992
30620SOL    HW193699  11.415  12.791  13.017
30620SOL    HW293700  11.284  12.771  12.944
30621SOL     OW93701   6.679  12.287   6.157
30621SOL    HW193702   6.682  12.372   6.114
30621SOL    HW293703   6.705  12.224   6.089
30622SOL     OW93704   4.031  11.413   6.285
30622SOL    HW193705   4.024  11.340   6.346
30622SOL    HW293706   4.116  11.401   6.242
30623SOL     OW93707   7.478   6.607   6.605
30623SOL    HW193708   7.571   6.609   6.581
30623SOL    HW293709   7.432   6.587   6.524
30624SOL     OW93710  10.157  12.116   1.834
30624SOL    HW193711  10.126  12.026   1.819
30624SOL    HW293712  10.224  12.130   1.767
30625SOL     OW93713   7.919   4.886   9.095
30625SOL    HW193714   7.962   4.955   9.146
30625SOL    HW293715   7.981   4.812   9.099
30626SOL     OW93716   1.884   6.100   0.798
30626SOL    HW193717   1.848   6.012   0.797
30626SOL    HW293718   1.936   6.104   0.878
30627SOL     OW93719   2.958   6.979   8.219
30627SOL    HW193720   2.950   7.012   8.308
30627SOL    HW293721   2.911   6.896   8.219
30628SOL     OW93722   4.161   5.873   8.420
30628SOL    HW193723   4.107   5.941   8.459
30628SOL    HW293724   4.174   5.809   8.490
30629SOL     OW93725   8.240   2.075  12.646
30629SOL    HW193726   8.208   2.088  12.556
30629SOL    HW293727   8.161   2.080  12.700
30630SOL     OW93728   6.306   3.568  11.367
30630SOL    HW193729   6.271   3.560  11.278
30630SOL    HW293730   6.353   3.651  11.367
30631SOL     OW93731   7.574  10.151   4.902
30631SOL    HW193732   7.594  10.199   4.822
30631SOL    HW293733   7.589  10.214   4.972
30632SOL     OW93734  10.127   3.663  11.200
30632SOL    HW193735  10.086   3.750  11.200
30632SOL    HW293736  10.057   3.603  11.176
30633SOL     OW93737   3.296   4.189   5.322
30633SOL    HW193738   3.212   4.236   5.328
30633SOL    HW293739   3.352   4.232   5.386
30634SOL     OW93740  13.548  11.344   9.027
30634SOL    HW193741  13.480  11.410   9.024
30634SOL    HW293742  13.627  11.389   8.996
30635SOL     OW93743   8.499   2.785   5.268
30635SOL    HW193744   8.574   2.845   5.261
30635SOL    HW293745   8.533   2.710   5.317
30636SOL     OW93746   5.700   3.943   2.078
30636SOL    HW193747   5.745   3.990   2.008
30636SOL    HW293748   5.608   3.942   2.051
30637SOL     OW93749   0.181   9.476   8.081
30637SOL    HW193750   0.099   9.434   8.108
30637SOL    HW293751   0.223   9.411   8.025
30638SOL     OW93752   5.724  13.940   9.912
30638SOL    HW193753   5.652  13.880   9.931
30638SOL    HW293754   5.700  14.021   9.958
30639SOL     OW93755  11.546   9.895  10.700
30639SOL    HW193756  11.623   9.869  10.649
30639SOL    HW293757  11.578   9.964  10.759
30640SOL     OW93758   4.655   4.775  13.007
30640SOL    HW193759   4.651   4.738  12.919
30640SOL    HW293760   4.593   4.848  13.005
30641SOL     OW93761   0.097   9.799  12.061
30641SOL    HW193762   0.185   9.778  12.031
30641SOL    HW293763   0.108   9.828  12.151
30642SOL     OW93764   4.373  14.154   1.371
30642SOL    HW193765   4.354  14.240   1.334
30642SOL    HW293766   4.392  14.171   1.463
30643SOL     OW93767   9.516  14.445  14.206
30643SOL    HW193768   9.501  14.385  14.132
30643SOL    HW293769   9.612  14.447  14.215
30644SOL     OW93770   2.456   7.591  10.315
30644SOL    HW193771   2.542   7.578  10.356
30644SOL    HW293772   2.459   7.537  10.236
30645SOL     OW93773   9.479   4.984   8.533
30645SOL    HW193774   9.487   5.067   8.580
30645SOL    HW293775   9.489   5.006   8.441
30646SOL     OW93776   3.085  11.258  10.422
30646SOL    HW193777   3.169  11.258  10.468
30646SOL    HW293778   3.086  11.177  10.371
30647SOL     OW93779   9.555   7.757  14.305
30647SOL    HW193780   9.472   7.772  14.351
30647SOL    HW293781   9.539   7.788  14.216
30648SOL     OW93782   7.723   4.298  10.708
30648SOL    HW193783   7.713   4.227  10.645
30648SOL    HW293784   7.725   4.254  10.793
30649SOL     OW93785   6.378  13.000   5.392
30649SOL    HW193786   6.454  12.949   5.365
30649SOL    HW293787   6.394  13.020   5.485
30650SOL     OW93788  11.042   7.759  14.646
30650SOL    HW193789  10.999   7.801  14.572
30650SOL    HW293790  11.076   7.677  14.611
30651SOL     OW93791   8.148   6.388   9.364
30651SOL    HW193792   8.064   6.383   9.320
30651SOL    HW293793   8.134   6.449   9.437
30652SOL     OW93794   2.646   9.604  10.330
30652SOL    HW193795   2.564   9.579  10.372
30652SOL    HW293796   2.709   9.538  10.358
30653SOL     OW93797  10.024   1.115   4.820
30653SOL    HW193798  10.110   1.075   4.832
30653SOL    HW293799  10.042   1.209   4.807
30654SOL     OW93800  13.976   7.800   9.485
30654SOL    HW193801  14.005   7.722   9.438
30654SOL    HW293802  14.009   7.873   9.432
30655SOL     OW93803   9.529   3.522   0.592
30655SOL    HW193804   9.535   3.427   0.606
30655SOL    HW293805   9.544   3.559   0.679
30656SOL     OW93806  13.956  12.606  13.734
30656SOL    HW193807  14.051  12.604  13.747
30656SOL    HW293808  13.924  12.671  13.797
30657SOL     OW93809  10.815   8.631  12.867
30657SOL    HW193810  10.892   8.685  12.844
30657SOL    HW293811  10.846   8.574  12.937
30658SOL     OW93812   2.591   9.109   4.831
30658SOL    HW193813   2.586   9.195   4.872
30658SOL    HW293814   2.585   9.047   4.904
30659SOL     OW93815   0.505   1.169   5.686
30659SOL    HW193816   0.479   1.254   5.721
30659SOL    HW293817   0.600   1.166   5.694
30660SOL     OW93818  14.633   4.560   5.286
30660SOL    HW193819  14.676   4.483   5.321
30660SOL    HW293820  14.554   4.571   5.339
30661SOL     OW93821   1.642   1.455   0.029
30661SOL    HW193822   1.636   1.531  14.844
30661SOL    HW293823   1.722   1.469   0.079
30662SOL     OW93824   9.272   8.684   9.947
30662SOL    HW193825   9.303   8.641   9.868
30662SOL    HW293826   9.199   8.629   9.977
30663SOL     OW93827  14.283   1.971   6.806
30663SOL    HW193828  14.365   1.976   6.855
30663SOL    HW293829  14.303   1.916   6.731
30664SOL     OW93830  11.882  13.147   2.079
30664SOL    HW193831  11.808  13.145   2.141
30664SOL    HW293832  11.918  13.059   2.082
30665SOL     OW93833   4.762   7.286  14.224
30665SOL    HW193834   4.828   7.236  14.272
30665SOL    HW293835   4.790   7.377  14.232
30666SOL     OW93836   9.125   4.615  10.512
30666SOL    HW193837   9.100   4.651  10.426
30666SOL    HW293838   9.046   4.625  10.565
30667SOL     OW93839   5.300   1.662   0.286
30667SOL    HW193840   5.311   1.749   0.248
30667SOL    HW293841   5.211   1.636   0.262
30668SOL     OW93842  12.559   6.076   3.179
30668SOL    HW193843  12.617   6.081   3.103
30668SOL    HW293844  12.617   6.085   3.254
30669SOL     OW93845   4.668   2.584  11.706
30669SOL    HW193846   4.644   2.641  11.779
30669SOL    HW293847   4.755   2.615  11.679
30670SOL     OW93848  13.551  12.204  14.175
30670SOL    HW193849  13.479  12.235  14.230
30670SOL    HW293850  13.558  12.110  14.195
30671SOL     OW93851   5.365   8.576  10.407
30671SOL    HW193852   5.293   8.549  10.464
30671SOL    HW293853   5.351   8.670  10.395
30672SOL     OW93854   0.079   9.607   0.331
30672SOL    HW193855   0.007   9.607   0.394
30672SOL    HW293856   0.086   9.516   0.303
30673SOL     OW93857   8.611  10.559   6.670
30673SOL    HW193858   8.603  10.643   6.714
30673SOL    HW293859   8.628  10.496   6.741
30674SOL     OW93860  10.650   8.525   3.300
30674SOL    HW193861  10.561   8.523   3.265
30674SOL    HW293862  10.658   8.611   3.340
30675SOL     OW93863   9.931   3.171   6.836
30675SOL    HW193864   9.998   3.147   6.901
30675SOL    HW293865   9.978   3.169   6.752
30676SOL     OW93866   2.752  14.008   5.252
30676SOL    HW193867   2.835  13.963   5.263
30676SOL    HW293868   2.766  14.068   5.179
30677SOL     OW93869  11.434   2.522   4.982
30677SOL    HW193870  11.372   2.575   5.032
30677SOL    HW293871  11.445   2.569   4.900
30678SOL     OW93872   9.842  12.268  14.547
30678SOL    HW193873   9.932  12.298  14.535
30678SOL    HW293874   9.847  12.206  14.620
30679SOL     OW93875   7.371   5.154  10.331
30679SOL    HW193876   7.398   5.240  10.299
30679SOL    HW293877   7.452   5.105  10.340
30680SOL     OW93878   4.672   3.019  13.325
30680SOL    HW193879   4.732   3.089  13.351
30680SOL    HW293880   4.646   3.042  13.236
30681SOL     OW93881  13.261  13.809  14.818
30681SOL    HW193882  13.317  13.849  14.752
30681SOL    HW293883  13.172  13.835  14.793
30682SOL     OW93884   9.630  12.299  12.076
30682SOL    HW193885   9.665  12.363  12.013
30682SOL    HW293886   9.656  12.214  12.041
30683SOL     OW93887   1.652   4.929   4.121
30683SOL    HW193888   1.737   4.917   4.165
30683SOL    HW293889   1.669   4.904   4.030
30684SOL     OW93890  14.364  12.006  10.419
30684SOL    HW193891  14.305  11.957  10.362
30684SOL    HW293892  14.402  11.940  10.477
30685SOL     OW93893   1.591  11.674  14.717
30685SOL    HW193894   1.549  11.760  14.712
30685SOL    HW293895   1.682  11.691  14.691
30686SOL     OW93896   6.439  10.138  11.295
30686SOL    HW193897   6.473  10.225  11.276
30686SOL    HW293898   6.399  10.109  11.212
30687SOL     OW93899   2.617   1.354   9.332
30687SOL    HW193900   2.653   1.418   9.393
30687SOL    HW293901   2.688   1.338   9.270
30688SOL     OW93902   6.894   0.109  14.281
30688SOL    HW193903   6.961   0.105  14.213
30688SOL    HW293904   6.883   0.203  14.298
30689SOL     OW93905   1.600  11.483   0.327
30689SOL    HW193906   1.619  11.474   0.233
30689SOL    HW293907   1.593  11.577   0.341
30690SOL     OW93908   4.959   2.863   6.456
30690SOL    HW193909   4.901   2.793   6.426
30690SOL    HW293910   4.945   2.934   6.393
30691SOL     OW93911  11.849   9.651  11.219
30691SOL    HW193912  11.771   9.644  11.275
30691SOL    HW293913  11.815   9.676  11.133
30692SOL     OW93914   1.348   5.389   6.494
30692SOL    HW193915   1.338   5.306   6.541
30692SOL    HW293916   1.306   5.454   6.550
30693SOL     OW93917   0.051  13.054   2.174
30693SOL    HW193918   0.137  13.096   2.177
30693SOL    HW293919   0.064  12.976   2.120
30694SOL     OW93920   5.231   9.223  11.499
30694SOL    HW193921   5.235   9.128  11.492
30694SOL    HW293922   5.229   9.254  11.408
30695SOL     OW93923   3.220   9.990   8.329
30695SOL    HW193924   3.251   9.958   8.245
30695SOL    HW293925   3.135  10.030   8.310
30696SOL     OW93926  14.715   3.002   6.828
30696SOL    HW193927  14.745   3.073   6.771
30696SOL    HW293928  14.645   3.041   6.880
30697SOL     OW93929   8.777   1.068  14.859
30697SOL    HW193930   8.744   1.038  14.774
30697SOL    HW293931   8.746   1.158  14.867
30698SOL     OW93932   3.919  10.509  12.988
30698SOL    HW193933   3.854  10.527  13.056
30698SOL    HW293934   3.889  10.559  12.912
30699SOL     OW93935  10.876  13.032   1.171
30699SOL    HW193936  10.822  13.007   1.096
30699SOL    HW293937  10.912  13.117   1.148
30700SOL     OW93938   4.537   5.803   9.963
30700SOL    HW193939   4.571   5.779  10.049
30700SOL    HW293940   4.442   5.801   9.974
30701SOL     OW93941  11.200  12.263  13.729
30701SOL    HW193942  11.286  12.299  13.710
30701SOL    HW293943  11.146  12.290  13.655
30702SOL     OW93944  12.651   5.832  14.622
30702SOL    HW193945  12.585   5.878  14.571
30702SOL    HW293946  12.610   5.749  14.645
30703SOL     OW93947  13.349   8.266   3.469
30703SOL    HW193948  13.396   8.262   3.553
30703SOL    HW293949  13.323   8.175   3.453
30704SOL     OW93950   1.774   4.406  10.919
30704SOL    HW193951   1.794   4.411  11.013
30704SOL    HW293952   1.852   4.442  10.876
30705SOL     OW93953   3.462   6.450   8.488
30705SOL    HW193954   3.382   6.493   8.456
30705SOL    HW293955   3.525   6.522   8.498
30706SOL     OW93956   1.049   0.360  11.504
30706SOL    HW193957   1.127   0.416  11.493
30706SOL    HW293958   1.034   0.358  11.599
30707SOL     OW93959   3.282   6.552  13.907
30707SOL    HW193960   3.274   6.627  13.965
30707SOL    HW293961   3.247   6.478  13.957
30708SOL     OW93962   5.933   5.839  14.228
30708SOL    HW193963   5.946   5.923  14.271
30708SOL    HW293964   5.848   5.847  14.184
30709SOL     OW93965   8.364   9.319   3.295
30709SOL    HW193966   8.269   9.324   3.289
30709SOL    HW293967   8.396   9.371   3.221
30710SOL     OW93968  12.252  10.756  10.544
30710SOL    HW193969  12.232  10.715  10.460
30710SOL    HW293970  12.267  10.848  10.523
30711SOL     OW93971   2.119   5.961  11.106
30711SOL    HW193972   2.106   5.988  11.197
30711SOL    HW293973   2.213   5.973  11.091
30712SOL     OW93974   8.413   1.823   0.375
30712SOL    HW193975   8.442   1.869   0.297
30712SOL    HW293976   8.352   1.757   0.343
30713SOL     OW93977   2.821   8.286   7.837
30713SOL    HW193978   2.858   8.366   7.800
30713SOL    HW293979   2.853   8.216   7.781
30714SOL     OW93980   7.499   4.585  14.697
30714SOL    HW193981   7.461   4.537  14.771
30714SOL    HW293982   7.562   4.644  14.737
30715SOL     OW93983   7.392   8.189  12.570
30715SOL    HW193984   7.359   8.099  12.582
30715SOL    HW293985   7.439   8.208  12.652
30716SOL     OW93986   0.337  12.550   3.638
30716SOL    HW193987   0.377  12.623   3.591
30716SOL    HW293988   0.255  12.585   3.672
30717SOL     OW93989  11.710   8.660  11.506
30717SOL    HW193990  11.776   8.592  11.493
30717SOL    HW293991  11.740   8.708  11.583
30718SOL     OW93992  14.836   7.273   5.949
30718SOL    HW193993  14.856   7.357   5.907
30718SOL    HW293994   0.021   7.210   5.906
30719SOL     OW93995  11.716  10.355  10.461
30719SOL    HW193996  11.802  10.326  10.430
30719SOL    HW293997  11.691  10.425  10.400
30720SOL     OW93998   7.975   4.668   3.227
30720SOL    HW193999   7.941   4.601   3.286
30720SOL    HW294000   7.924   4.657   3.146
30721SOL     OW94001   7.999   0.223   2.141
30721SOL    HW194002   7.954   0.146   2.174
30721SOL    HW294003   8.065   0.243   2.207
30722SOL     OW94004   9.578   5.354  14.248
30722SOL    HW194005   9.601   5.446  14.262
30722SOL    HW294006   9.661   5.311  14.227
30723SOL     OW94007   1.614  13.434  11.291
30723SOL    HW194008   1.587  13.353  11.332
30723SOL    HW294009   1.689  13.410  11.237
30724SOL     OW94010   7.294  14.188   1.873
30724SOL    HW194011   7.265  14.156   1.958
30724SOL    HW294012   7.219  14.177   1.815
30725SOL     OW94013   6.776   3.697   9.761
30725SOL    HW194014   6.849   3.668   9.706
30725SOL    HW294015   6.763   3.789   9.739
30726SOL     OW94016   5.712   5.369  10.740
30726SOL    HW194017   5.758   5.375  10.656
30726SOL    HW294018   5.731   5.452  10.784
30727SOL     OW94019  13.101   2.777   1.195
30727SOL    HW194020  13.019   2.772   1.147
30727SOL    HW294021  13.153   2.843   1.149
30728SOL     OW94022   4.494  14.727   8.801
30728SOL    HW194023   4.444  14.800   8.838
30728SOL    HW294024   4.431  14.679   8.748
30729SOL     OW94025   2.903   6.375   4.661
30729SOL    HW194026   2.869   6.461   4.635
30729SOL    HW294027   2.998   6.386   4.663
30730SOL     OW94028   0.476  11.874   1.409
30730SOL    HW194029   0.483  11.871   1.313
30730SOL    HW294030   0.444  11.962   1.428
30731SOL     OW94031  13.075   3.098   8.561
30731SOL    HW194032  13.029   3.098   8.477
30731SOL    HW294033  13.031   3.031   8.612
30732SOL     OW94034   5.080   9.825  10.676
30732SOL    HW194035   5.145   9.762  10.645
30732SOL    HW294036   5.066   9.801  10.768
30733SOL     OW94037   4.541  10.836   1.283
30733SOL    HW194038   4.596  10.765   1.251
30733SOL    HW294039   4.525  10.890   1.205
30734SOL     OW94040   0.696   9.549   3.700
30734SOL    HW194041   0.662   9.620   3.755
30734SOL    HW294042   0.790   9.547   3.718
30735SOL     OW94043  11.263   3.115   5.893
30735SOL    HW194044  11.265   3.039   5.952
30735SOL    HW294045  11.325   3.092   5.823
30736SOL     OW94046   9.643   8.801   7.179
30736SOL    HW194047   9.552   8.782   7.199
30736SOL    HW294048   9.668   8.733   7.116
30737SOL     OW94049   8.852   0.470   8.845
30737SOL    HW194050   8.780   0.520   8.883
30737SOL    HW294051   8.894   0.530   8.783
30738SOL     OW94052  11.828   9.815   3.650
30738SOL    HW194053  11.765   9.835   3.720
30738SOL    HW294054  11.913   9.835   3.688
30739SOL     OW94055  10.686   7.283   3.206
30739SOL    HW194056  10.754   7.228   3.244
30739SOL    HW294057  10.722   7.371   3.207
30740SOL     OW94058   6.885  13.253  11.799
30740SOL    HW194059   6.850  13.190  11.861
30740SOL    HW294060   6.906  13.330  11.852
30741SOL     OW94061   3.361  10.484   6.943
30741SOL    HW194062   3.397  10.560   6.990
30741SOL    HW294063   3.267  10.497   6.944
30742SOL     OW94064  13.360   7.996   4.911
30742SOL    HW194065  13.364   8.006   5.006
30742SOL    HW294066  13.283   7.940   4.896
30743SOL     OW94067  13.147   6.611   9.649
30743SOL    HW194068  13.198   6.666   9.590
30743SOL    HW294069  13.157   6.652   9.735
30744SOL     OW94070   4.407   3.773   0.518
30744SOL    HW194071   4.474   3.721   0.562
30744SOL    HW294072   4.445   3.861   0.512
30745SOL     OW94073   3.393   3.644   4.722
30745SOL    HW194074   3.348   3.714   4.673
30745SOL    HW294075   3.479   3.679   4.741
30746SOL     OW94076   2.228   9.108   7.559
30746SOL    HW194077   2.278   9.188   7.570
30746SOL    HW294078   2.139   9.137   7.540
30747SOL     OW94079  12.594   2.907  10.716
30747SOL    HW194080  12.633   2.992  10.696
30747SOL    HW294081  12.512   2.929  10.761
30748SOL     OW94082   3.618  12.898   8.934
30748SOL    HW194083   3.542  12.956   8.943
30748SOL    HW294084   3.693  12.952   8.960
30749SOL     OW94085   4.743   1.324   8.050
30749SOL    HW194086   4.751   1.232   8.075
30749SOL    HW294087   4.652   1.333   8.020
30750SOL     OW94088   3.890   2.683   8.215
30750SOL    HW194089   3.967   2.635   8.185
30750SOL    HW294090   3.847   2.713   8.134
30751SOL     OW94091   1.349   9.085   5.902
30751SOL    HW194092   1.437   9.099   5.867
30751SOL    HW294093   1.315   9.009   5.854
30752SOL     OW94094  12.873  10.623  12.726
30752SOL    HW194095  12.816  10.601  12.652
30752SOL    HW294096  12.912  10.539  12.752
30753SOL     OW94097  13.745   6.933   2.184
30753SOL    HW194098  13.726   6.840   2.196
30753SOL    HW294099  13.827   6.946   2.233
30754SOL     OW94100   6.412   8.292  14.372
30754SOL    HW194101   6.401   8.386  14.357
30754SOL    HW294102   6.479   8.265  14.310
30755SOL     OW94103   1.103   6.467  13.094
30755SOL    HW194104   1.138   6.388  13.135
30755SOL    HW294105   1.181   6.515  13.066
30756SOL     OW94106   2.583   1.080   6.360
30756SOL    HW194107   2.576   1.015   6.429
30756SOL    HW294108   2.666   1.058   6.316
30757SOL     OW94109   5.402  10.525   4.751
30757SOL    HW194110   5.428  10.447   4.703
30757SOL    HW294111   5.484  10.560   4.786
30758SOL     OW94112   6.616   4.437   2.665
30758SOL    HW194113   6.607   4.503   2.733
30758SOL    HW294114   6.633   4.356   2.713
30759SOL     OW94115   6.909   9.174  13.917
30759SOL    HW194116   6.869   9.087  13.922
30759SOL    HW294117   6.902   9.198  13.825
30760SOL     OW94118   5.001   2.332   8.179
30760SOL    HW194119   5.076   2.349   8.236
30760SOL    HW294120   4.927   2.326   8.239
30761SOL     OW94121   2.696   8.665   6.942
30761SOL    HW194122   2.775   8.686   6.894
30761SOL    HW294123   2.723   8.663   7.034
30762SOL     OW94124   4.753   4.351  14.262
30762SOL    HW194125   4.798   4.409  14.323
30762SOL    HW294126   4.660   4.362  14.283
30763SOL     OW94127   2.416  10.676  10.968
30763SOL    HW194128   2.462  10.596  10.996
30763SOL    HW294129   2.482  10.745  10.973
30764SOL     OW94130   4.843  13.948   8.672
30764SOL    HW194131   4.807  13.860   8.669
30764SOL    HW294132   4.802  13.988   8.749
30765SOL     OW94133  11.044   1.483   0.936
30765SOL    HW194134  11.035   1.429   1.015
30765SOL    HW294135  11.010   1.569   0.961
30766SOL     OW94136  13.098  10.612  14.451
30766SOL    HW194137  13.027  10.584  14.394
30766SOL    HW294138  13.135  10.688  14.407
30767SOL     OW94139   2.279   8.120   1.935
30767SOL    HW194140   2.365   8.087   1.961
30767SOL    HW294141   2.234   8.137   2.018
30768SOL     OW94142   9.348   4.285   0.721
30768SOL    HW194143   9.406   4.218   0.756
30768SOL    HW294144   9.405   4.357   0.694
30769SOL     OW94145   4.224   1.867   0.728
30769SOL    HW194146   4.317   1.852   0.749
30769SOL    HW294147   4.206   1.956   0.757
30770SOL     OW94148   5.444   9.786   0.609
30770SOL    HW194149   5.352   9.810   0.618
30770SOL    HW294150   5.465   9.807   0.518
30771SOL     OW94151   5.466   6.546   5.391
30771SOL    HW194152   5.423   6.546   5.306
30771SOL    HW294153   5.431   6.622   5.437
30772SOL     OW94154   5.794  14.015   3.244
30772SOL    HW194155   5.788  14.063   3.162
30772SOL    HW294156   5.768  14.079   3.311
30773SOL     OW94157   0.631  11.100  10.503
30773SOL    HW194158   0.638  11.006  10.487
30773SOL    HW294159   0.553  11.110  10.557
30774SOL     OW94160  14.239  12.449  12.511
30774SOL    HW194161  14.236  12.475  12.419
30774SOL    HW294162  14.328  12.416  12.523
30775SOL     OW94163   7.800  13.258   9.484
30775SOL    HW194164   7.776  13.334   9.536
30775SOL    HW294165   7.787  13.285   9.394
30776SOL     OW94166   9.450   9.845  12.906
30776SOL    HW194167   9.361   9.879  12.920
30776SOL    HW294168   9.439   9.776  12.840
30777SOL     OW94169   5.184   8.915   0.850
30777SOL    HW194170   5.224   8.977   0.911
30777SOL    HW294171   5.146   8.848   0.907
30778SOL     OW94172  13.884   6.018   0.266
30778SOL    HW194173  13.876   5.957   0.192
30778SOL    HW294174  13.844   6.099   0.233
30779SOL     OW94175   6.516   1.830   5.023
30779SOL    HW194176   6.550   1.760   5.078
30779SOL    HW294177   6.421   1.815   5.020
30780SOL     OW94178   9.803   3.031   2.862
30780SOL    HW194179   9.768   2.951   2.901
30780SOL    HW294180   9.805   3.094   2.934
30781SOL     OW94181   7.211   3.581  12.427
30781SOL    HW194182   7.242   3.515  12.366
30781SOL    HW294183   7.290   3.628  12.455
30782SOL     OW94184  12.232   0.837   4.323
30782SOL    HW194185  12.161   0.885   4.280
30782SOL    HW294186  12.194   0.751   4.343
30783SOL     OW94187   4.996  11.768   9.391
30783SOL    HW194188   4.901  11.760   9.380
30783SOL    HW294189   5.012  11.862   9.399
30784SOL     OW94190  12.951   1.992   4.551
30784SOL    HW194191  12.996   1.937   4.615
30784SOL    HW294192  12.872   1.943   4.528
30785SOL     OW94193   0.751   6.108   1.102
30785SOL    HW194194   0.790   6.024   1.126
30785SOL    HW294195   0.657   6.090   1.094
30786SOL     OW94196  13.661   0.529   9.594
30786SOL    HW194197  13.733   0.577   9.636
30786SOL    HW294198  13.670   0.549   9.501
30787SOL     OW94199  11.554  10.982   8.748
30787SOL    HW194200  11.479  10.990   8.806
30787SOL    HW294201  11.555  10.890   8.722
30788SOL     OW94202  12.130   1.689   2.239
30788SOL    HW194203  12.200   1.662   2.179
30788SOL    HW294204  12.056   1.708   2.181
30789SOL     OW94205  14.745  14.149  10.597
30789SOL    HW194206  14.806  14.128  10.668
30789SOL    HW294207  14.720  14.240  10.613
30790SOL     OW94208   1.273   2.855   1.016
30790SOL    HW194209   1.228   2.880   1.097
30790SOL    HW294210   1.270   2.934   0.962
30791SOL     OW94211   8.524  14.584  12.879
30791SOL    HW194212   8.526  14.496  12.914
30791SOL    HW294213   8.532  14.572  12.784
30792SOL     OW94214   4.520   9.191  11.638
30792SOL    HW194215   4.501   9.282  11.616
30792SOL    HW294216   4.555   9.153  11.558
30793SOL     OW94217   9.646   1.836   9.791
30793SOL    HW194218   9.726   1.800   9.830
30793SOL    HW294219   9.676   1.876   9.709
30794SOL     OW94220   9.804  10.360  10.246
30794SOL    HW194221   9.863  10.361  10.321
30794SOL    HW294222   9.719  10.385  10.282
30795SOL     OW94223   6.245   3.582   2.517
30795SOL    HW194224   6.168   3.628   2.551
30795SOL    HW294225   6.291   3.648   2.465
30796SOL     OW94226   0.773  10.000  11.048
30796SOL    HW194227   0.744   9.910  11.040
30796SOL    HW294228   0.851   9.997  11.103
30797SOL     OW94229   1.598   5.785  13.632
30797SOL    HW194230   1.634   5.777  13.544
30797SOL    HW294231   1.637   5.712  13.680
30798SOL     OW94232   0.999   0.302  13.857
30798SOL    HW194233   0.995   0.361  13.933
30798SOL    HW294234   0.933   0.336  13.797
30799SOL     OW94235  12.083  12.918   1.544
30799SOL    HW194236  12.056  12.946   1.457
30799SOL    HW294237  12.124  12.832   1.531
30800SOL     OW94238   6.409   3.126   7.649
30800SOL    HW194239   6.451   3.212   7.658
30800SOL    HW294240   6.479   3.069   7.617
30801SOL     OW94241   9.093  14.601   0.571
30801SOL    HW194242   9.146  14.635   0.498
30801SOL    HW294243   9.061  14.680   0.615
30802SOL     OW94244   9.190  11.911   3.328
30802SOL    HW194245   9.160  11.941   3.414
30802SOL    HW294246   9.175  11.816   3.329
30803SOL     OW94247  13.953   7.288   7.817
30803SOL    HW194248  13.990   7.283   7.729
30803SOL    HW294249  13.906   7.372   7.819
30804SOL     OW94250   5.114   6.040   0.494
30804SOL    HW194251   5.054   6.083   0.555
30804SOL    HW294252   5.186   6.102   0.483
30805SOL     OW94253  12.271   6.265   8.692
30805SOL    HW194254  12.208   6.214   8.640
30805SOL    HW294255  12.225   6.281   8.775
30806SOL     OW94256   7.027  11.249   7.781
30806SOL    HW194257   7.046  11.212   7.868
30806SOL    HW294258   6.975  11.327   7.799
30807SOL     OW94259   1.349   1.761   5.638
30807SOL    HW194260   1.354   1.821   5.712
30807SOL    HW294261   1.263   1.720   5.646
30808SOL     OW94262   9.479  14.211  12.193
30808SOL    HW194263   9.394  14.255  12.190
30808SOL    HW294264   9.501  14.197  12.101
30809SOL     OW94265  13.393  10.531  12.335
30809SOL    HW194266  13.299  10.542  12.352
30809SOL    HW294267  13.406  10.567  12.247
30810SOL     OW94268  14.465   3.398   5.747
30810SOL    HW194269  14.537   3.343   5.716
30810SOL    HW294270  14.388   3.365   5.700
30811SOL     OW94271   3.960   7.190  10.191
30811SOL    HW194272   3.948   7.231  10.105
30811SOL    HW294273   4.022   7.119  10.175
30812SOL     OW94274  12.223   1.859   5.085
30812SOL    HW194275  12.145   1.881   5.136
30812SOL    HW294276  12.213   1.766   5.065
30813SOL     OW94277   5.622   3.562   9.690
30813SOL    HW194278   5.610   3.519   9.775
30813SOL    HW294279   5.649   3.651   9.712
30814SOL     OW94280  14.662  12.875  13.812
30814SOL    HW194281  14.756  12.894  13.822
30814SOL    HW294282  14.619  12.940  13.867
30815SOL     OW94283   4.319  10.487   1.801
30815SOL    HW194284   4.277  10.402   1.809
30815SOL    HW294285   4.392  10.483   1.862
30816SOL     OW94286   2.721   1.534  13.265
30816SOL    HW194287   2.647   1.538  13.326
30816SOL    HW294288   2.796   1.509  13.319
30817SOL     OW94289  10.312  14.742  13.435
30817SOL    HW194290  10.268  14.659  13.454
30817SOL    HW294291  10.404  14.726  13.457
30818SOL     OW94292   8.923   4.146   7.004
30818SOL    HW194293   8.941   4.055   7.026
30818SOL    HW294294   8.906   4.145   6.909
30819SOL     OW94295  14.752   1.996   7.069
30819SOL    HW194296  14.763   1.901   7.071
30819SOL    HW294297  14.826   2.027   7.016
30820SOL     OW94298   0.188   6.990  10.524
30820SOL    HW194299   0.101   6.959  10.498
30820SOL    HW294300   0.190   7.082  10.496
30821SOL     OW94301   7.902   2.059   2.354
30821SOL    HW194302   7.951   1.994   2.304
30821SOL    HW294303   7.950   2.069   2.436
30822SOL     OW94304  11.787   7.734  13.864
30822SOL    HW194305  11.881   7.713  13.866
30822SOL    HW294306  11.777   7.790  13.787
30823SOL     OW94307   0.010   9.435  12.975
30823SOL    HW194308  14.837   9.405  13.053
30823SOL    HW294309   0.039   9.524  12.997
30824SOL     OW94310  12.405   4.324   9.932
30824SOL    HW194311  12.491   4.286   9.950
30824SOL    HW294312  12.402   4.402   9.988
30825SOL     OW94313  11.280   2.955   7.066
30825SOL    HW194314  11.349   3.000   7.018
30825SOL    HW294315  11.227   3.025   7.104
30826SOL     OW94316   0.485   4.395   1.018
30826SOL    HW194317   0.485   4.299   1.015
30826SOL    HW294318   0.555   4.417   1.079
30827SOL     OW94319   3.587   3.123   9.624
30827SOL    HW194320   3.580   3.055   9.692
30827SOL    HW294321   3.513   3.106   9.566
30828SOL     OW94322   0.772   4.623   6.370
30828SOL    HW194323   0.815   4.571   6.437
30828SOL    HW294324   0.721   4.560   6.319
30829SOL     OW94325   2.067  12.970   9.502
30829SOL    HW194326   2.143  12.977   9.445
30829SOL    HW294327   2.005  12.915   9.453
30830SOL     OW94328  13.431   5.051  10.872
30830SOL    HW194329  13.526   5.066  10.869
30830SOL    HW294330  13.412   5.003  10.792
30831SOL     OW94331   0.494   8.562   8.297
30831SOL    HW194332   0.564   8.615   8.337
30831SOL    HW294333   0.433   8.546   8.369
30832SOL     OW94334   8.160   8.684   6.801
30832SOL    HW194335   8.165   8.778   6.785
30832SOL    HW294336   8.075   8.658   6.766
30833SOL     OW94337   6.691   2.911   5.802
30833SOL    HW194338   6.680   2.994   5.850
30833SOL    HW294339   6.779   2.917   5.765
30834SOL     OW94340   2.448   5.666  10.562
30834SOL    HW194341   2.473   5.589  10.613
30834SOL    HW294342   2.461   5.641  10.471
30835SOL     OW94343  13.345   0.544  14.454
30835SOL    HW194344  13.423   0.517  14.503
30835SOL    HW294345  13.379   0.567  14.367
30836SOL     OW94346  12.882  10.899  14.621
30836SOL    HW194347  12.939  10.859  14.687
30836SOL    HW294348  12.805  10.926  14.670
30837SOL     OW94349  10.127   7.268  11.349
30837SOL    HW194350  10.037   7.293  11.371
30837SOL    HW294351  10.122   7.175  11.328
30838SOL     OW94352   2.859   5.201   6.881
30838SOL    HW194353   2.916   5.174   6.953
30838SOL    HW294354   2.828   5.288   6.905
30839SOL     OW94355   6.984   1.826   6.018
30839SOL    HW194356   6.986   1.731   6.007
30839SOL    HW294357   6.924   1.857   5.950
30840SOL     OW94358   3.111   3.641  11.700
30840SOL    HW194359   3.088   3.663  11.791
30840SOL    HW294360   3.054   3.698  11.647
30841SOL     OW94361   6.590   2.830  11.370
30841SOL    HW194362   6.567   2.919  11.342
30841SOL    HW294363   6.615   2.785  11.290
30842SOL     OW94364  11.591   0.924  10.301
30842SOL    HW194365  11.576   0.863  10.229
30842SOL    HW294366  11.667   0.888  10.347
30843SOL     OW94367   2.154   2.176  13.702
30843SOL    HW194368   2.068   2.206  13.672
30843SOL    HW294369   2.135   2.125  13.781
30844SOL     OW94370   1.366   9.827   5.151
30844SOL    HW194371   1.389   9.750   5.203
30844SOL    HW294372   1.421   9.821   5.073
30845SOL     OW94373   0.342  14.626  12.392
30845SOL    HW194374   0.345  14.542  12.345
30845SOL    HW294375   0.264  14.620  12.447
30846SOL     OW94376  13.223   3.772   3.691
30846SOL    HW194377  13.166   3.849   3.696
30846SOL    HW294378  13.235   3.745   3.782
30847SOL     OW94379   6.767  12.105   0.489
30847SOL    HW194380   6.852  12.062   0.500
30847SOL    HW294381   6.784  12.198   0.508
30848SOL     OW94382  11.125   7.514  10.527
30848SOL    HW194383  11.206   7.518  10.578
30848SOL    HW294384  11.099   7.606  10.518
30849SOL     OW94385   9.105   3.906   1.682
30849SOL    HW194386   9.045   3.936   1.750
30849SOL    HW294387   9.152   3.985   1.655
30850SOL     OW94388   5.315  13.529   2.315
30850SOL    HW194389   5.239  13.553   2.369
30850SOL    HW294390   5.385  13.586   2.347
30851SOL     OW94391   7.919  11.241  12.498
30851SOL    HW194392   7.835  11.286  12.509
30851SOL    HW294393   7.937  11.248  12.404
30852SOL     OW94394   2.301   0.763   2.058
30852SOL    HW194395   2.382   0.784   2.104
30852SOL    HW294396   2.255   0.847   2.052
30853SOL     OW94397   6.186   3.523  10.006
30853SOL    HW194398   6.240   3.594  10.041
30853SOL    HW294399   6.235   3.491   9.931
30854SOL     OW94400   5.199   8.428   9.871
30854SOL    HW194401   5.113   8.400   9.840
30854SOL    HW294402   5.188   8.438   9.966
30855SOL     OW94403  10.775   6.770   6.419
30855SOL    HW194404  10.829   6.842   6.452
30855SOL    HW294405  10.685   6.803   6.425
30856SOL     OW94406   4.474   9.477   2.097
30856SOL    HW194407   4.395   9.514   2.059
30856SOL    HW294408   4.545   9.508   2.040
30857SOL     OW94409   5.368   1.163   1.326
30857SOL    HW194410   5.409   1.084   1.291
30857SOL    HW294411   5.417   1.235   1.287
30858SOL     OW94412  14.560   4.436   9.247
30858SOL    HW194413  14.546   4.387   9.165
30858SOL    HW294414  14.518   4.383   9.314
30859SOL     OW94415  11.197  13.046   1.613
30859SOL    HW194416  11.282  13.012   1.641
30859SOL    HW294417  11.162  13.088   1.692
30860SOL     OW94418  13.756   5.362   4.316
30860SOL    HW194419  13.758   5.305   4.393
30860SOL    HW294420  13.687   5.426   4.335
30861SOL     OW94421   4.226   9.981  14.436
30861SOL    HW194422   4.273  10.044  14.491
30861SOL    HW294423   4.233  10.016  14.347
30862SOL     OW94424   0.370   0.761   0.845
30862SOL    HW194425   0.367   0.784   0.938
30862SOL    HW294426   0.293   0.705   0.832
30863SOL     OW94427   8.769   4.942   8.925
30863SOL    HW194428   8.704   4.920   8.858
30863SOL    HW294429   8.840   4.983   8.876
30864SOL     OW94430  10.830  10.444  14.078
30864SOL    HW194431  10.754  10.403  14.119
30864SOL    HW294432  10.882  10.477  14.151
30865SOL     OW94433  14.140   2.291   2.297
30865SOL    HW194434  14.224   2.337   2.288
30865SOL    HW294435  14.101   2.293   2.209
30866SOL     OW94436   3.129  11.970   5.086
30866SOL    HW194437   3.206  11.914   5.073
30866SOL    HW294438   3.088  11.974   5.000
30867SOL     OW94439   5.534  13.718   6.965
30867SOL    HW194440   5.445  13.744   6.942
30867SOL    HW294441   5.568  13.792   7.016
30868SOL     OW94442   0.446  12.351  11.731
30868SOL    HW194443   0.374  12.304  11.774
30868SOL    HW294444   0.402  12.420  11.681
30869SOL     OW94445  14.622   7.642  10.785
30869SOL    HW194446  14.686   7.635  10.857
30869SOL    HW294447  14.537   7.638  10.829
30870SOL     OW94448   3.659   4.004   5.215
30870SOL    HW194449   3.748   4.033   5.237
30870SOL    HW294450   3.669   3.913   5.190
30871SOL     OW94451   8.976   8.431  13.167
30871SOL    HW194452   9.049   8.380  13.202
30871SOL    HW294453   9.013   8.473  13.088
30872SOL     OW94454  12.808   1.305   5.880
30872SOL    HW194455  12.805   1.349   5.795
30872SOL    HW294456  12.745   1.352   5.934
30873SOL     OW94457   8.023  12.965   1.008
30873SOL    HW194458   8.083  12.992   1.078
30873SOL    HW294459   8.051  12.876   0.986
30874SOL     OW94460   6.008   7.241  10.658
30874SOL    HW194461   6.098   7.253  10.689
30874SOL    HW294462   6.007   7.152  10.623
30875SOL     OW94463   3.642   4.831   1.762
30875SOL    HW194464   3.600   4.747   1.779
30875SOL    HW294465   3.582   4.895   1.800
30876SOL     OW94466  12.809   6.778   5.079
30876SOL    HW194467  12.880   6.740   5.027
30876SOL    HW294468  12.736   6.786   5.018
30877SOL     OW94469  10.847  11.442   8.326
30877SOL    HW194470  10.837  11.362   8.275
30877SOL    HW294471  10.757  11.474   8.338
30878SOL     OW94472   5.566   7.019   2.368
30878SOL    HW194473   5.511   6.946   2.340
30878SOL    HW294474   5.533   7.043   2.454
30879SOL     OW94475   6.020  13.608   6.267
30879SOL    HW194476   6.073  13.632   6.191
30879SOL    HW294477   6.001  13.515   6.255
30880SOL     OW94478   0.534   9.535   0.710
30880SOL    HW194479   0.488   9.556   0.629
30880SOL    HW294480   0.541   9.618   0.756
30881SOL     OW94481   0.731   9.858   1.795
30881SOL    HW194482   0.780   9.919   1.740
30881SOL    HW294483   0.742   9.892   1.884
30882SOL     OW94484  12.565   6.224  11.034
30882SOL    HW194485  12.619   6.160  10.986
30882SOL    HW294486  12.482   6.226  10.987
30883SOL     OW94487   4.355   5.720   8.276
30883SOL    HW194488   4.354   5.754   8.186
30883SOL    HW294489   4.321   5.792   8.329
30884SOL     OW94490  10.259   5.945   0.869
30884SOL    HW194491  10.310   5.885   0.923
30884SOL    HW294492  10.296   6.031   0.887
30885SOL     OW94493   0.621   7.867  11.578
30885SOL    HW194494   0.590   7.918  11.653
30885SOL    HW294495   0.553   7.877  11.512
30886SOL     OW94496  11.617  12.483   8.608
30886SOL    HW194497  11.639  12.435   8.688
30886SOL    HW294498  11.521  12.485   8.607
30887SOL     OW94499   3.020   0.067  10.794
30887SOL    HW194500   3.089   0.086  10.731
30887SOL    HW294501   3.050   0.107  10.876
30888SOL     OW94502  10.064   2.708   5.025
30888SOL    HW194503  10.108   2.645   4.967
30888SOL    HW294504  10.129   2.727   5.093
30889SOL     OW94505   5.684   4.320   3.053
30889SOL    HW194506   5.609   4.331   3.112
30889SOL    HW294507   5.757   4.360   3.099
30890SOL     OW94508  13.539  12.310   5.342
30890SOL    HW194509  13.469  12.330   5.404
30890SOL    HW294510  13.561  12.395   5.303
30891SOL     OW94511   1.897   7.754   0.278
30891SOL    HW194512   1.805   7.747   0.253
30891SOL    HW294513   1.940   7.798   0.204
30892SOL     OW94514  11.575   5.049  11.242
30892SOL    HW194515  11.585   5.077  11.333
30892SOL    HW294516  11.637   4.976  11.233
30893SOL     OW94517   2.697  10.921   9.540
30893SOL    HW194518   2.698  10.838   9.492
30893SOL    HW294519   2.612  10.921   9.585
30894SOL     OW94520   3.401   0.397   8.140
30894SOL    HW194521   3.379   0.308   8.166
30894SOL    HW294522   3.338   0.452   8.187
30895SOL     OW94523  14.687  12.342   3.139
30895SOL    HW194524  14.706  12.317   3.049
30895SOL    HW294525  14.770  12.375   3.173
30896SOL     OW94526  10.116   1.388   5.714
30896SOL    HW194527  10.078   1.319   5.660
30896SOL    HW294528  10.177   1.433   5.656
30897SOL     OW94529   0.327   4.802   4.710
30897SOL    HW194530   0.329   4.713   4.675
30897SOL    HW294531   0.413   4.839   4.688
30898SOL     OW94532   5.387   6.780   9.962
30898SOL    HW194533   5.457   6.715   9.972
30898SOL    HW294534   5.432   6.864   9.969
30899SOL     OW94535   0.466   5.471   3.395
30899SOL    HW194536   0.423   5.506   3.317
30899SOL    HW294537   0.491   5.382   3.372
30900SOL     OW94538  14.390   2.973   9.168
30900SOL    HW194539  14.312   2.921   9.188
30900SOL    HW294540  14.374   3.008   9.081
30901SOL     OW94541  12.209  11.108   8.341
30901SOL    HW194542  12.228  11.018   8.315
30901SOL    HW294543  12.237  11.161   8.266
30902SOL     OW94544   3.057  12.676   1.500
30902SOL    HW194545   3.068  12.683   1.405
30902SOL    HW294546   3.089  12.588   1.521
30903SOL     OW94547   5.426   5.608   7.859
30903SOL    HW194548   5.384   5.633   7.776
30903SOL    HW294549   5.481   5.683   7.881
30904SOL     OW94550   4.168  13.460   6.382
30904SOL    HW194551   4.184  13.536   6.439
30904SOL    HW294552   4.074  13.465   6.362
30905SOL     OW94553   7.092   0.415  13.517
30905SOL    HW194554   7.097   0.510  13.511
30905SOL    HW294555   7.012   0.393  13.469
30906SOL     OW94556   3.843   4.298   7.937
30906SOL    HW194557   3.910   4.266   7.998
30906SOL    HW294558   3.816   4.382   7.974
30907SOL     OW94559   0.041   9.313   3.794
30907SOL    HW194560   0.003   9.267   3.719
30907SOL    HW294561  14.856   9.388   3.807
30908SOL     OW94562   1.396  13.865   9.626
30908SOL    HW194563   1.388  13.779   9.585
30908SOL    HW294564   1.402  13.846   9.720
30909SOL     OW94565   6.185   8.793   8.484
30909SOL    HW194566   6.207   8.855   8.552
30909SOL    HW294567   6.159   8.713   8.531
30910SOL     OW94568  11.887  14.182   9.972
30910SOL    HW194569  11.933  14.247  10.026
30910SOL    HW294570  11.956  14.141   9.920
30911SOL     OW94571  14.351  14.345  14.073
30911SOL    HW194572  14.424  14.400  14.099
30911SOL    HW294573  14.318  14.384  13.993
30912SOL     OW94574  13.932   8.823   2.946
30912SOL    HW194575  13.926   8.902   2.893
30912SOL    HW294576  13.892   8.755   2.891
30913SOL     OW94577  10.449   5.769  14.313
30913SOL    HW194578  10.448   5.710  14.388
30913SOL    HW294579  10.468   5.712  14.238
30914SOL     OW94580  12.121  10.141  10.629
30914SOL    HW194581  12.116  10.215  10.567
30914SOL    HW294582  12.173  10.174  10.701
30915SOL     OW94583  10.576   1.497  12.690
30915SOL    HW194584  10.623   1.468  12.612
30915SOL    HW294585  10.553   1.588  12.671
30916SOL     OW94586   9.319   3.333   1.719
30916SOL    HW194587   9.390   3.345   1.655
30916SOL    HW294588   9.353   3.370   1.800
30917SOL     OW94589  10.973   3.353  10.983
30917SOL    HW194590  11.033   3.347  11.057
30917SOL    HW294591  10.942   3.263  10.970
30918SOL     OW94592   3.113   5.432   4.990
30918SOL    HW194593   3.150   5.387   5.066
30918SOL    HW294594   3.062   5.366   4.944
30919SOL     OW94595   5.585   2.071   4.364
30919SOL    HW194596   5.505   2.065   4.415
30919SOL    HW294597   5.654   2.084   4.429
30920SOL     OW94598   3.816   7.065  13.276
30920SOL    HW194599   3.803   7.117  13.355
30920SOL    HW294600   3.904   7.029  13.285
30921SOL     OW94601   8.663   6.465   7.571
30921SOL    HW194602   8.582   6.504   7.603
30921SOL    HW294603   8.732   6.519   7.610
30922SOL     OW94604   9.899   6.542   6.764
30922SOL    HW194605   9.977   6.596   6.752
30922SOL    HW294606   9.855   6.580   6.840
30923SOL     OW94607   3.911   4.366   8.900
30923SOL    HW194608   3.990   4.413   8.928
30923SOL    HW294609   3.917   4.282   8.945
30924SOL     OW94610   3.215  10.816   6.285
30924SOL    HW194611   3.295  10.841   6.238
30924SOL    HW294612   3.240  10.820   6.377
30925SOL     OW94613  12.744   0.559   6.425
30925SOL    HW194614  12.716   0.479   6.469
30925SOL    HW294615  12.664   0.593   6.385
30926SOL     OW94616   5.414  11.487   1.067
30926SOL    HW194617   5.353  11.504   0.995
30926SOL    HW294618   5.497  11.467   1.024
30927SOL     OW94619  11.955   2.825   0.541
30927SOL    HW194620  11.925   2.774   0.617
30927SOL    HW294621  11.876   2.869   0.510
30928SOL     OW94622   4.458   4.056  11.909
30928SOL    HW194623   4.479   3.969  11.945
30928SOL    HW294624   4.371   4.076  11.943
30929SOL     OW94625  11.438   0.442  10.738
30929SOL    HW194626  11.490   0.364  10.717
30929SOL    HW294627  11.489   0.488  10.805
30930SOL     OW94628   5.232   0.639   5.278
30930SOL    HW194629   5.320   0.674   5.291
30930SOL    HW294630   5.214   0.654   5.185
30931SOL     OW94631   6.881  10.122   8.083
30931SOL    HW194632   6.894  10.157   8.171
30931SOL    HW294633   6.904  10.029   8.091
30932SOL     OW94634   0.885   4.527  14.676
30932SOL    HW194635   0.959   4.577  14.643
30932SOL    HW294636   0.916   4.490  14.759
30933SOL     OW94637   3.950  11.353   3.851
30933SOL    HW194638   3.874  11.386   3.899
30933SOL    HW294639   3.986  11.285   3.907
30934SOL     OW94640   0.180   0.213   7.227
30934SOL    HW194641   0.137   0.291   7.194
30934SOL    HW294642   0.270   0.220   7.196
30935SOL     OW94643   9.195  13.918  12.952
30935SOL    HW194644   9.217  13.906  12.860
30935SOL    HW294645   9.248  13.853  12.998
30936SOL     OW94646  14.777   0.887   6.659
30936SOL    HW194647  14.805   0.925   6.576
30936SOL    HW294648  14.716   0.818   6.634
30937SOL     OW94649   3.626   4.299  10.563
30937SOL    HW194650   3.661   4.274  10.478
30937SOL    HW294651   3.696   4.349  10.605
30938SOL     OW94652  14.416  11.348  10.992
30938SOL    HW194653  14.494  11.341  11.047
30938SOL    HW294654  14.374  11.262  10.999
30939SOL     OW94655   3.889   6.321   7.017
30939SOL    HW194656   3.828   6.281   6.954
30939SOL    HW294657   3.832   6.363   7.082
30940SOL     OW94658   2.137  10.784   5.571
30940SOL    HW194659   2.129  10.737   5.488
30940SOL    HW294660   2.203  10.733   5.619
30941SOL     OW94661  12.852   3.439   6.415
30941SOL    HW194662  12.798   3.491   6.476
30941SOL    HW294663  12.790   3.381   6.372
30942SOL     OW94664   0.192   8.501  14.054
30942SOL    HW194665   0.195   8.408  14.032
30942SOL    HW294666   0.213   8.545  13.971
30943SOL     OW94667  14.589   7.731  10.503
30943SOL    HW194668  14.572   7.822  10.527
30943SOL    HW294669  14.602   7.686  10.586
30944SOL     OW94670  12.302   9.986  13.185
30944SOL    HW194671  12.216  10.026  13.174
30944SOL    HW294672  12.364  10.056  13.166
30945SOL     OW94673   1.825   5.302   6.666
30945SOL    HW194674   1.845   5.209   6.664
30945SOL    HW294675   1.818   5.327   6.574
30946SOL     OW94676   1.144   5.438  13.733
30946SOL    HW194677   1.156   5.476  13.646
30946SOL    HW294678   1.164   5.509  13.794
30947SOL     OW94679   1.528   7.637  11.325
30947SOL    HW194680   1.605   7.692  11.339
30947SOL    HW294681   1.456   7.699  11.315
30948SOL     OW94682   4.112   2.043   0.407
30948SOL    HW194683   4.207   2.048   0.405
30948SOL    HW294684   4.083   2.109   0.344
30949SOL     OW94685   0.318  14.861   9.844
30949SOL    HW194686   0.305  14.769   9.868
30949SOL    HW294687   0.413   0.000   9.849
30950SOL     OW94688   3.176   9.285   4.196
30950SOL    HW194689   3.089   9.248   4.179
30950SOL    HW294690   3.161   9.380   4.196
30951SOL     OW94691  13.869   6.408  14.341
30951SOL    HW194692  13.827   6.476  14.288
30951SOL    HW294693  13.832   6.420  14.428
30952SOL     OW94694   2.003  10.310   3.682
30952SOL    HW194695   1.969  10.269   3.762
30952SOL    HW294696   1.935  10.295   3.617
30953SOL     OW94697  11.362   4.856   9.307
30953SOL    HW194698  11.444   4.854   9.356
30953SOL    HW294699  11.371   4.931   9.249
30954SOL     OW94700  14.718  12.038  14.397
30954SOL    HW194701  14.692  12.102  14.331
30954SOL    HW294702  14.778  11.979  14.351
30955SOL     OW94703   0.329  11.181   8.040
30955SOL    HW194704   0.345  11.090   8.014
30955SOL    HW294705   0.259  11.175   8.105
30956SOL     OW94706  14.649   4.101  12.208
30956SOL    HW194707  14.590   4.169  12.178
30956SOL    HW294708  14.598   4.050  12.271
30957SOL     OW94709  13.592   8.478  12.868
30957SOL    HW194710  13.645   8.418  12.920
30957SOL    HW294711  13.504   8.469  12.903
30958SOL     OW94712   5.395  11.035  12.681
30958SOL    HW194713   5.473  11.087  12.702
30958SOL    HW294714   5.347  11.029  12.764
30959SOL     OW94715  10.396  11.224   1.264
30959SOL    HW194716  10.302  11.205   1.269
30959SOL    HW294717  10.422  11.239   1.355
30960SOL     OW94718  10.892   6.333   5.976
30960SOL    HW194719  10.845   6.270   5.920
30960SOL    HW294720  10.963   6.283   6.014
30961SOL     OW94721  14.354   9.441   3.956
30961SOL    HW194722  14.429   9.444   4.015
30961SOL    HW294723  14.359   9.355   3.915
30962SOL     OW94724   2.202   1.513   6.497
30962SOL    HW194725   2.279   1.570   6.497
30962SOL    HW294726   2.235   1.429   6.530
30963SOL     OW94727   3.222   5.814   3.774
30963SOL    HW194728   3.220   5.788   3.866
30963SOL    HW294729   3.266   5.742   3.729
30964SOL     OW94730   5.027  13.105   0.451
30964SOL    HW194731   5.027  13.009   0.458
30964SOL    HW294732   5.094  13.124   0.385
30965SOL     OW94733   2.087  12.765  10.393
30965SOL    HW194734   2.096  12.684  10.343
30965SOL    HW294735   2.020  12.746  10.458
30966SOL     OW94736   0.416  10.465   9.967
30966SOL    HW194737   0.411  10.529   9.896
30966SOL    HW294738   0.507  10.434   9.965
30967SOL     OW94739  11.892  13.589  13.175
30967SOL    HW194740  11.875  13.495  13.164
30967SOL    HW294741  11.809  13.624  13.208
30968SOL     OW94742   6.975  12.968   0.067
30968SOL    HW194743   7.029  13.041   0.095
30968SOL    HW294744   7.035  12.894   0.063
30969SOL     OW94745   7.666  14.815   3.236
30969SOL    HW194746   7.710  14.872   3.300
30969SOL    HW294747   7.580  14.855   3.224
30970SOL     OW94748   7.820   7.928   3.510
30970SOL    HW194749   7.907   7.965   3.496
30970SOL    HW294750   7.827   7.878   3.591
30971SOL     OW94751   7.845   3.442  14.428
30971SOL    HW194752   7.848   3.529  14.468
30971SOL    HW294753   7.762   3.440  14.381
30972SOL     OW94754  10.978   0.606   7.639
30972SOL    HW194755  11.050   0.544   7.651
30972SOL    HW294756  11.021   0.692   7.637
30973SOL     OW94757   0.767  13.704  13.007
30973SOL    HW194758   0.831  13.741  12.947
30973SOL    HW294759   0.734  13.779  13.056
30974SOL     OW94760   8.080   6.240  12.247
30974SOL    HW194761   8.014   6.310  12.247
30974SOL    HW294762   8.065   6.194  12.164
30975SOL     OW94763   6.593   7.533   8.973
30975SOL    HW194764   6.522   7.591   8.945
30975SOL    HW294765   6.620   7.568   9.058
30976SOL     OW94766   0.032   4.573   3.287
30976SOL    HW194767  14.849   4.546   3.214
30976SOL    HW294768   0.084   4.495   3.307
30977SOL     OW94769   3.630  11.337   8.570
30977SOL    HW194770   3.625  11.346   8.475
30977SOL    HW294771   3.623  11.427   8.603
30978SOL     OW94772   6.219   2.149  14.812
30978SOL    HW194773   6.230   2.055  14.799
30978SOL    HW294774   6.126   2.159  14.834
30979SOL     OW94775  13.725  12.884  13.044
30979SOL    HW194776  13.797  12.907  13.102
30979SOL    HW294777  13.763  12.889  12.956
30980SOL     OW94778  12.073  13.577   0.925
30980SOL    HW194779  12.102  13.637   0.994
30980SOL    HW294780  11.978  13.573   0.935
30981SOL     OW94781  12.997   7.364   3.008
30981SOL    HW194782  13.021   7.298   3.074
30981SOL    HW294783  13.080   7.404   2.983
30982SOL     OW94784  10.850   6.635   2.711
30982SOL    HW194785  10.943   6.659   2.717
30982SOL    HW294786  10.850   6.545   2.680
30983SOL     OW94787   5.558  11.927  14.717
30983SOL    HW194788   5.574  11.975  14.636
30983SOL    HW294789   5.592  11.983  14.786
30984SOL     OW94790   5.022  12.765   7.233
30984SOL    HW194791   4.962  12.755   7.307
30984SOL    HW294792   5.100  12.715   7.258
30985SOL     OW94793   0.051   4.434   4.148
30985SOL    HW194794   0.045   4.340   4.137
30985SOL    HW294795  14.856   4.455   4.212
30986SOL     OW94796   4.711  10.072   1.613
30986SOL    HW194797   4.805  10.090   1.613
30986SOL    HW294798   4.697  10.018   1.691
30987SOL     OW94799   6.188   9.451   6.725
30987SOL    HW194800   6.273   9.483   6.697
30987SOL    HW294801   6.175   9.492   6.811
30988SOL     OW94802   5.754   8.460  10.145
30988SOL    HW194803   5.685   8.409  10.187
30988SOL    HW294804   5.715   8.546  10.130
30989SOL     OW94805   7.194   3.819   2.904
30989SOL    HW194806   7.184   3.894   2.846
30989SOL    HW294807   7.244   3.852   2.979
30990SOL     OW94808  10.759   3.961  10.060
30990SOL    HW194809  10.728   3.959  10.150
30990SOL    HW294810  10.814   4.039  10.056
30991SOL     OW94811   3.015   4.374   9.442
30991SOL    HW194812   2.994   4.417   9.524
30991SOL    HW294813   3.064   4.296   9.467
30992SOL     OW94814  10.447  14.093  10.584
30992SOL    HW194815  10.381  14.143  10.633
30992SOL    HW294816  10.517  14.077  10.647
30993SOL     OW94817  13.659   6.532  11.241
30993SOL    HW194818  13.702   6.527  11.155
30993SOL    HW294819  13.578   6.581  11.224
30994SOL     OW94820   3.262  12.555  10.292
30994SOL    HW194821   3.195  12.623  10.284
30994SOL    HW294822   3.248  12.518  10.380
30995SOL     OW94823   7.999  12.807   3.044
30995SOL    HW194824   7.974  12.719   3.070
30995SOL    HW294825   8.087  12.797   3.008
30996SOL     OW94826   9.982   9.689   3.198
30996SOL    HW194827  10.021   9.602   3.202
30996SOL    HW294828   9.891   9.673   3.176
30997SOL     OW94829   4.227   6.945  14.230
30997SOL    HW194830   4.300   7.003  14.208
30997SOL    HW294831   4.210   6.961  14.323
30998SOL     OW94832  10.462  11.495   5.408
30998SOL    HW194833  10.396  11.494   5.477
30998SOL    HW294834  10.473  11.403   5.385
30999SOL     OW94835  13.950   9.863   2.305
30999SOL    HW194836  13.856   9.852   2.324
30999SOL    HW294837  13.956   9.950   2.266
31000SOL     OW94838   5.085   3.496   6.979
31000SOL    HW194839   5.026   3.446   7.036
31000SOL    HW294840   5.061   3.467   6.890
31001SOL     OW94841   5.159   8.614   2.972
31001SOL    HW194842   5.136   8.522   2.966
31001SOL    HW294843   5.094   8.659   2.918
31002SOL     OW94844   6.521   0.747  10.969
31002SOL    HW194845   6.481   0.763  11.055
31002SOL    HW294846   6.610   0.780  10.978
31003SOL     OW94847  13.650   0.879  14.273
31003SOL    HW194848  13.663   0.892  14.367
31003SOL    HW294849  13.739   0.867  14.239
31004SOL     OW94850   3.899   4.235   5.782
31004SOL    HW194851   3.992   4.245   5.804
31004SOL    HW294852   3.886   4.291   5.705
31005SOL     OW94853  14.310   9.949   8.709
31005SOL    HW194854  14.239   9.999   8.749
31005SOL    HW294855  14.338   9.887   8.776
31006SOL     OW94856   8.698  12.500   5.133
31006SOL    HW194857   8.616  12.550   5.135
31006SOL    HW294858   8.721  12.488   5.225
31007SOL     OW94859   5.690   2.604  11.202
31007SOL    HW194860   5.782   2.604  11.226
31007SOL    HW294861   5.680   2.676  11.141
31008SOL     OW94862  12.887  12.431   5.873
31008SOL    HW194863  12.917  12.426   5.782
31008SOL    HW294864  12.791  12.437   5.865
31009SOL     OW94865   4.672   4.015   6.549
31009SOL    HW194866   4.613   4.039   6.478
31009SOL    HW294867   4.728   3.946   6.512
31010SOL     OW94868   9.723   4.938   8.106
31010SOL    HW194869   9.647   4.925   8.049
31010SOL    HW294870   9.713   4.871   8.174
31011SOL     OW94871   5.176   3.985  12.942
31011SOL    HW194872   5.164   4.072  12.905
31011SOL    HW294873   5.267   3.983  12.971
31012SOL     OW94874   2.789   0.536  10.025
31012SOL    HW194875   2.717   0.584   9.982
31012SOL    HW294876   2.868   0.567   9.981
31013SOL     OW94877   5.299   8.832   0.584
31013SOL    HW194878   5.268   8.888   0.656
31013SOL    HW294879   5.275   8.744   0.611
31014SOL     OW94880  11.706   2.650   2.754
31014SOL    HW194881  11.649   2.597   2.699
31014SOL    HW294882  11.767   2.692   2.692
31015SOL     OW94883   0.827   0.952  13.252
31015SOL    HW194884   0.739   0.935  13.219
31015SOL    HW294885   0.875   0.984  13.175
31016SOL     OW94886   0.866  12.137   6.623
31016SOL    HW194887   0.921  12.208   6.656
31016SOL    HW294888   0.923  12.089   6.563
31017SOL     OW94889   8.030   5.109  10.200
31017SOL    HW194890   7.960   5.050  10.173
31017SOL    HW294891   8.077   5.131  10.120
31018SOL     OW94892   8.590   6.917   1.108
31018SOL    HW194893   8.649   6.955   1.044
31018SOL    HW294894   8.503   6.926   1.070
31019SOL     OW94895   4.875   6.737  10.676
31019SOL    HW194896   4.821   6.800  10.724
31019SOL    HW294897   4.931   6.697  10.742
31020SOL     OW94898   8.426  11.914  14.361
31020SOL    HW194899   8.360  11.981  14.379
31020SOL    HW294900   8.425  11.904  14.266
31021SOL     OW94901   5.454  13.898  12.819
31021SOL    HW194902   5.394  13.823  12.822
31021SOL    HW294903   5.416  13.957  12.754
31022SOL     OW94904   5.577   4.714   9.527
31022SOL    HW194905   5.481   4.704   9.526
31022SOL    HW294906   5.599   4.750   9.441
31023SOL     OW94907   2.990   0.627   1.811
31023SOL    HW194908   3.035   0.549   1.779
31023SOL    HW294909   2.960   0.672   1.732
31024SOL     OW94910  13.311  11.784   1.104
31024SOL    HW194911  13.323  11.777   1.198
31024SOL    HW294912  13.225  11.825   1.094
31025SOL     OW94913   7.695   1.615  11.058
31025SOL    HW194914   7.751   1.658  11.123
31025SOL    HW294915   7.752   1.604  10.982
31026SOL     OW94916   6.052   6.861   7.638
31026SOL    HW194917   5.961   6.835   7.648
31026SOL    HW294918   6.049   6.942   7.588
31027SOL     OW94919   8.695   4.670  10.477
31027SOL    HW194920   8.775   4.684  10.528
31027SOL    HW294921   8.633   4.733  10.512
31028SOL     OW94922   4.316   0.387  13.380
31028SOL    HW194923   4.220   0.385  13.376
31028SOL    HW294924   4.343   0.309  13.332
31029SOL     OW94925   1.381  13.213  12.752
31029SOL    HW194926   1.327  13.191  12.828
31029SOL    HW294927   1.348  13.158  12.681
31030SOL     OW94928   2.606   8.597   4.710
31030SOL    HW194929   2.616   8.690   4.695
31030SOL    HW294930   2.670   8.577   4.779
31031SOL     OW94931   5.235   5.572  14.268
31031SOL    HW194932   5.192   5.544  14.349
31031SOL    HW294933   5.328   5.568  14.288
31032SOL     OW94934  11.659   7.654  10.905
31032SOL    HW194935  11.568   7.649  10.877
31032SOL    HW294936  11.681   7.747  10.901
31033SOL     OW94937   8.958   6.267  12.095
31033SOL    HW194938   8.927   6.245  12.183
31033SOL    HW294939   8.926   6.356  12.080
31034SOL     OW94940   3.990   0.898   0.234
31034SOL    HW194941   4.007   0.922   0.325
31034SOL    HW294942   4.032   0.968   0.183
31035SOL     OW94943  10.266  14.278  13.393
31035SOL    HW194944  10.228  14.210  13.337
31035SOL    HW294945  10.292  14.231  13.472
31036SOL     OW94946   2.180  13.077  14.614
31036SOL    HW194947   2.226  13.037  14.541
31036SOL    HW294948   2.225  13.161  14.627
31037SOL     OW94949   8.192   1.346   7.512
31037SOL    HW194950   8.141   1.422   7.481
31037SOL    HW294951   8.186   1.351   7.607
31038SOL     OW94952   0.835  14.058   5.972
31038SOL    HW194953   0.819  14.101   6.056
31038SOL    HW294954   0.908  14.106   5.934
31039SOL     OW94955   3.184   9.675   0.041
31039SOL    HW194956   3.162   9.693   0.132
31039SOL    HW294957   3.120   9.725  14.864
31040SOL     OW94958   7.799   7.680  14.246
31040SOL    HW194959   7.745   7.687  14.168
31040SOL    HW294960   7.785   7.763  14.293
31041SOL     OW94961  14.085   1.765  11.633
31041SOL    HW194962  14.178   1.785  11.620
31041SOL    HW294963  14.048   1.766  11.545
31042SOL     OW94964  11.614  12.571   7.937
31042SOL    HW194965  11.549  12.595   7.871
31042SOL    HW294966  11.589  12.482   7.963
31043SOL     OW94967  11.471  14.313   7.376
31043SOL    HW194968  11.508  14.342   7.459
31043SOL    HW294969  11.386  14.356   7.371
31044SOL     OW94970  13.234   1.670  11.886
31044SOL    HW194971  13.279   1.601  11.937
31044SOL    HW294972  13.280   1.750  11.909
31045SOL     OW94973   3.031   0.387  10.013
31045SOL    HW194974   3.104   0.368   9.954
31045SOL    HW294975   3.063   0.361  10.100
31046SOL     OW94976  11.100   3.091   2.513
31046SOL    HW194977  11.139   3.172   2.547
31046SOL    HW294978  11.160   3.062   2.444
31047SOL     OW94979  13.072  13.100   3.070
31047SOL    HW194980  13.164  13.116   3.047
31047SOL    HW294981  13.077  13.057   3.156
31048SOL     OW94982   0.453   5.962   8.768
31048SOL    HW194983   0.358   5.958   8.758
31048SOL    HW294984   0.485   5.883   8.726
31049SOL     OW94985   8.566  11.745   5.416
31049SOL    HW194986   8.658  11.758   5.391
31049SOL    HW294987   8.566  11.753   5.512
31050SOL     OW94988  12.628   0.123  12.877
31050SOL    HW194989  12.675   0.054  12.830
31050SOL    HW294990  12.625   0.196  12.815
31051SOL     OW94991  10.027   4.330   2.326
31051SOL    HW194992  10.045   4.255   2.382
31051SOL    HW294993  10.092   4.324   2.256
31052SOL     OW94994  14.397   0.700  13.783
31052SOL    HW194995  14.305   0.721  13.768
31052SOL    HW294996  14.395   0.630  13.848
31053SOL     OW94997   8.483   1.171  11.047
31053SOL    HW194998   8.563   1.155  11.098
31053SOL    HW294999   8.473   1.091  10.994
31054SOL     OW95000   7.076  14.254   6.535
31054SOL    HW195001   7.099  14.217   6.620
31054SOL    HW295002   6.996  14.207   6.510
31055SOL     OW95003  12.556   0.978  11.088
31055SOL    HW195004  12.462   0.996  11.093
31055SOL    HW295005  12.597   1.050  11.136
31056SOL     OW95006   7.182   5.511   8.338
31056SOL    HW195007   7.204   5.476   8.251
31056SOL    HW295008   7.089   5.491   8.349
31057SOL     OW95009   7.263   2.687  13.769
31057SOL    HW195010   7.254   2.762  13.828
31057SOL    HW295011   7.201   2.705  13.698
31058SOL     OW95012  13.146  11.956   6.373
31058SOL    HW195013  13.152  11.884   6.436
31058SOL    HW295014  13.237  11.977   6.352
31059SOL     OW95015   2.717   9.320  14.307
31059SOL    HW195016   2.811   9.334  14.319
31059SOL    HW295017   2.698   9.358  14.221
31060SOL     OW95018   1.652  11.217   2.459
31060SOL    HW195019   1.734  11.185   2.421
31060SOL    HW295020   1.586  11.202   2.392
31061SOL     OW95021  11.261   0.192  13.476
31061SOL    HW195022  11.355   0.209  13.479
31061SOL    HW295023  11.232   0.202  13.567
31062SOL     OW95024   0.234   0.936   6.956
31062SOL    HW195025   0.177   0.860   6.963
31062SOL    HW295026   0.316   0.902   6.921
31063SOL     OW95027   2.943   2.924  10.061
31063SOL    HW195028   3.013   2.898  10.000
31063SOL    HW295029   2.881   2.851  10.057
31064SOL     OW95030  14.580  13.200   0.067
31064SOL    HW195031  14.623  13.285   0.074
31064SOL    HW295032  14.489  13.220   0.044
31065SOL     OW95033   0.924   8.217   5.976
31065SOL    HW195034   0.896   8.125   5.986
31065SOL    HW295035   0.946   8.245   6.064
31066SOL     OW95036   4.549  11.948  13.686
31066SOL    HW195037   4.629  11.954  13.737
31066SOL    HW295038   4.499  11.878  13.729
31067SOL     OW95039   2.216   1.658   7.983
31067SOL    HW195040   2.123   1.637   7.991
31067SOL    HW295041   2.259   1.591   8.036
31068SOL     OW95042   2.899  12.360   0.871
31068SOL    HW195043   2.921  12.358   0.964
31068SOL    HW295044   2.932  12.445   0.840
31069SOL     OW95045   0.902  13.471   1.397
31069SOL    HW195046   0.928  13.522   1.320
31069SOL    HW295047   0.893  13.537   1.467
31070SOL     OW95048   3.822   9.427   5.506
31070SOL    HW195049   3.906   9.427   5.552
31070SOL    HW295050   3.840   9.384   5.423
31071SOL     OW95051  14.495   5.904   7.176
31071SOL    HW195052  14.544   5.875   7.099
31071SOL    HW295053  14.475   5.996   7.158
31072SOL     OW95054   8.699  13.409   6.904
31072SOL    HW195055   8.672  13.317   6.905
31072SOL    HW295056   8.734  13.425   6.991
31073SOL     OW95057   8.870   9.210   1.451
31073SOL    HW195058   8.802   9.228   1.387
31073SOL    HW295059   8.847   9.262   1.528
31074SOL     OW95060  13.375   4.055   3.591
31074SOL    HW195061  13.305   4.046   3.526
31074SOL    HW295062  13.331   4.090   3.668
31075SOL     OW95063   3.526   5.042   6.492
31075SOL    HW195064   3.443   5.080   6.465
31075SOL    HW295065   3.507   4.996   6.574
31076SOL     OW95066  11.639   3.950  10.295
31076SOL    HW195067  11.701   4.003  10.245
31076SOL    HW295068  11.599   3.892  10.229
31077SOL     OW95069  14.349  11.262   9.861
31077SOL    HW195070  14.381  11.283   9.773
31077SOL    HW295071  14.258  11.290   9.861
31078SOL     OW95072   3.621  10.517   2.249
31078SOL    HW195073   3.575  10.517   2.333
31078SOL    HW295074   3.714  10.522   2.273
31079SOL     OW95075   4.573   7.326   3.808
31079SOL    HW195076   4.478   7.321   3.792
31079SOL    HW295077   4.583   7.399   3.869
31080SOL     OW95078  11.796   6.556  14.370
31080SOL    HW195079  11.864   6.509  14.420
31080SOL    HW295080  11.754   6.613  14.435
31081SOL     OW95081   0.509   3.703  13.331
31081SOL    HW195082   0.556   3.624  13.302
31081SOL    HW295083   0.577   3.760  13.367
31082SOL     OW95084  13.203   3.804  11.601
31082SOL    HW195085  13.270   3.835  11.663
31082SOL    HW295086  13.249   3.799  11.517
31083SOL     OW95087   2.085   3.986  12.962
31083SOL    HW195088   2.165   4.034  12.939
31083SOL    HW295089   2.047   3.961  12.877
31084SOL     OW95090   7.680   4.073   4.283
31084SOL    HW195091   7.613   4.124   4.329
31084SOL    HW295092   7.672   3.985   4.320
31085SOL     OW95093   7.925  14.112   6.443
31085SOL    HW195094   7.988  14.164   6.493
31085SOL    HW295095   7.861  14.176   6.412
31086SOL     OW95096   4.064   6.762   2.760
31086SOL    HW195097   4.159   6.762   2.770
31086SOL    HW295098   4.032   6.812   2.835
31087SOL     OW95099   6.976   6.754   6.874
31087SOL    HW195100   6.978   6.661   6.898
31087SOL    HW295101   7.067   6.779   6.868
31088SOL     OW95102   9.094  10.271   6.322
31088SOL    HW195103   9.122  10.239   6.237
31088SOL    HW295104   9.161  10.334   6.348
31089SOL     OW95105   6.842  11.798   4.347
31089SOL    HW195106   6.765  11.823   4.398
31089SOL    HW295107   6.809  11.790   4.257
31090SOL     OW95108   3.877   8.918  10.312
31090SOL    HW195109   3.790   8.955  10.326
31090SOL    HW295110   3.909   8.897  10.400
31091SOL     OW95111   1.441   7.425   0.805
31091SOL    HW195112   1.479   7.492   0.863
31091SOL    HW295113   1.463   7.455   0.717
31092SOL     OW95114   9.452  13.317  14.176
31092SOL    HW195115   9.382  13.313  14.111
31092SOL    HW295116   9.433  13.246  14.237
31093SOL     OW95117  12.995  10.866   2.867
31093SOL    HW195118  12.946  10.888   2.946
31093SOL    HW295119  12.932  10.876   2.796
31094SOL     OW95120  10.483   7.742  12.309
31094SOL    HW195121  10.467   7.654  12.344
31094SOL    HW295122  10.401   7.789  12.327
31095SOL     OW95123  12.630   6.865   0.584
31095SOL    HW195124  12.547   6.913   0.585
31095SOL    HW295125  12.667   6.878   0.671
31096SOL     OW95126   8.504   2.464   5.091
31096SOL    HW195127   8.522   2.377   5.127
31096SOL    HW295128   8.408   2.469   5.087
31097SOL     OW95129   0.899   7.693   9.563
31097SOL    HW195130   0.976   7.749   9.556
31097SOL    HW295131   0.927   7.609   9.526
31098SOL     OW95132  12.727   2.518   7.130
31098SOL    HW195133  12.792   2.525   7.200
31098SOL    HW295134  12.747   2.590   7.070
31099SOL     OW95135   8.524  13.310   1.576
31099SOL    HW195136   8.556  13.397   1.555
31099SOL    HW295137   8.602  13.254   1.573
31100SOL     OW95138   7.061  10.314   6.420
31100SOL    HW195139   7.141  10.325   6.368
31100SOL    HW295140   7.009  10.392   6.400
31101SOL     OW95141   3.267  10.831   6.565
31101SOL    HW195142   3.266  10.735   6.567
31101SOL    HW295143   3.174  10.855   6.572
31102SOL     OW95144   3.176  14.493  11.981
31102SOL    HW195145   3.236  14.550  12.029
31102SOL    HW295146   3.231  14.450  11.916
31103SOL     OW95147   9.198   6.880   1.353
31103SOL    HW195148   9.154   6.795   1.345
31103SOL    HW295149   9.256   6.871   1.429
31104SOL     OW95150   4.246   7.439  13.954
31104SOL    HW195151   4.217   7.531  13.948
31104SOL    HW295152   4.169   7.389  13.928
31105SOL     OW95153   8.687  13.287  14.493
31105SOL    HW195154   8.717  13.338  14.418
31105SOL    HW295155   8.594  13.270  14.474
31106SOL     OW95156   0.835   3.898   7.464
31106SOL    HW195157   0.867   3.985   7.487
31106SOL    HW295158   0.746   3.913   7.433
31107SOL     OW95159  13.712  14.866  14.810
31107SOL    HW195160  13.766  14.790  14.829
31107SOL    HW295161  13.677  14.850  14.723
31108SOL     OW95162  12.264   4.187  14.570
31108SOL    HW195163  12.257   4.154  14.660
31108SOL    HW295164  12.288   4.279  14.580
31109SOL     OW95165   8.119   9.104   4.701
31109SOL    HW195166   8.034   9.071   4.731
31109SOL    HW295167   8.098   9.159   4.625
31110SOL     OW95168  10.716   9.111   3.967
31110SOL    HW195169  10.648   9.044   3.969
31110SOL    HW295170  10.685   9.178   4.029
31111SOL     OW95171   2.926   9.810   9.239
31111SOL    HW195172   2.939   9.864   9.317
31111SOL    HW295173   2.897   9.726   9.272
31112SOL     OW95174  10.187   1.676   0.937
31112SOL    HW195175  10.212   1.766   0.917
31112SOL    HW295176  10.270   1.627   0.935
31113SOL     OW95177   7.113   2.814  14.105
31113SOL    HW195178   7.195   2.847  14.070
31113SOL    HW295179   7.048   2.879  14.080
31114SOL     OW95180   6.746   1.397  12.887
31114SOL    HW195181   6.784   1.422  12.803
31114SOL    HW295182   6.817   1.410  12.950
31115SOL     OW95183   6.124   0.504  12.430
31115SOL    HW195184   6.211   0.540  12.445
31115SOL    HW295185   6.067   0.555  12.486
31116SOL     OW95186   3.938   4.299   8.605
31116SOL    HW195187   3.866   4.304   8.543
31116SOL    HW295188   3.896   4.295   8.691
31117SOL     OW95189  11.532   8.894  13.392
31117SOL    HW195190  11.550   8.851  13.309
31117SOL    HW295191  11.584   8.974  13.390
31118SOL     OW95192  10.447   5.713   2.986
31118SOL    HW195193  10.521   5.772   3.000
31118SOL    HW295194  10.372   5.772   2.977
31119SOL     OW95195   5.164   7.107  11.061
31119SOL    HW195196   5.107   7.111  11.138
31119SOL    HW295197   5.104   7.097  10.988
31120SOL     OW95198  13.632   1.076   0.027
31120SOL    HW195199  13.617   1.031  14.817
31120SOL    HW295200  13.701   1.140   0.007
31121SOL     OW95201  11.050   3.761  13.844
31121SOL    HW195202  10.992   3.837  13.854
31121SOL    HW295203  11.110   3.767  13.919
31122SOL     OW95204  10.112  14.300   8.833
31122SOL    HW195205  10.156  14.286   8.917
31122SOL    HW295206  10.061  14.380   8.845
31123SOL     OW95207   9.308   9.741   3.451
31123SOL    HW195208   9.290   9.674   3.384
31123SOL    HW295209   9.221   9.771   3.477
31124SOL     OW95210   9.658   2.458   5.694
31124SOL    HW195211   9.619   2.408   5.621
31124SOL    HW295212   9.688   2.540   5.654
31125SOL     OW95213   9.892  14.113   0.733
31125SOL    HW195214   9.894  14.155   0.819
31125SOL    HW295215   9.806  14.135   0.698
31126SOL     OW95216   6.635  14.243   8.604
31126SOL    HW195217   6.587  14.321   8.577
31126SOL    HW295218   6.727  14.266   8.592
31127SOL     OW95219   3.264   6.804   2.806
31127SOL    HW195220   3.302   6.729   2.851
31127SOL    HW295221   3.268   6.876   2.870
31128SOL     OW95222   0.115  14.243  10.371
31128SOL    HW195223   0.147  14.192  10.446
31128SOL    HW295224   0.167  14.212  10.297
31129SOL     OW95225   5.443  14.480   9.854
31129SOL    HW195226   5.490  14.553   9.896
31129SOL    HW295227   5.367  14.521   9.814
31130SOL     OW95228  10.351   4.636   2.605
31130SOL    HW195229  10.283   4.620   2.540
31130SOL    HW295230  10.304   4.652   2.686
31131SOL     OW95231   0.998   8.844  13.750
31131SOL    HW195232   0.965   8.931  13.770
31131SOL    HW295233   0.959   8.787  13.817
31132SOL     OW95234  12.528   4.055   9.551
31132SOL    HW195235  12.458   4.016   9.604
31132SOL    HW295236  12.536   4.145   9.585
31133SOL     OW95237   3.906  13.833   3.814
31133SOL    HW195238   3.872  13.922   3.802
31133SOL    HW295239   3.987  13.832   3.763
31134SOL     OW95240   1.824   0.651   3.351
31134SOL    HW195241   1.797   0.657   3.443
31134SOL    HW295242   1.749   0.610   3.307
31135SOL     OW95243   2.213   4.724  10.554
31135SOL    HW195244   2.241   4.731  10.645
31135SOL    HW295245   2.295   4.729  10.504
31136SOL     OW95246   1.431  13.170   0.490
31136SOL    HW195247   1.526  13.173   0.484
31136SOL    HW295248   1.413  13.122   0.571
31137SOL     OW95249   1.644   2.962   8.933
31137SOL    HW195250   1.670   3.050   8.957
31137SOL    HW295251   1.715   2.930   8.877
31138SOL     OW95252   6.537  11.665   4.450
31138SOL    HW195253   6.534  11.760   4.460
31138SOL    HW295254   6.481  11.647   4.375
31139SOL     OW95255   9.822   0.216   2.466
31139SOL    HW195256   9.895   0.242   2.410
31139SOL    HW295257   9.750   0.273   2.438
31140SOL     OW95258   5.843   3.484   3.785
31140SOL    HW195259   5.921   3.536   3.765
31140SOL    HW295260   5.787   3.542   3.837
31141SOL     OW95261  10.255   6.786   1.115
31141SOL    HW195262  10.203   6.859   1.150
31141SOL    HW295263  10.202   6.709   1.132
31142SOL     OW95264   9.596   0.774  10.829
31142SOL    HW195265   9.536   0.777  10.755
31142SOL    HW295266   9.541   0.796  10.905
31143SOL     OW95267   8.209   9.831   1.752
31143SOL    HW195268   8.181   9.922   1.757
31143SOL    HW295269   8.132   9.783   1.721
31144SOL     OW95270   7.000   1.057   4.576
31144SOL    HW195271   6.965   1.045   4.487
31144SOL    HW295272   7.091   1.028   4.570
31145SOL     OW95273   0.902   5.949   3.028
31145SOL    HW195274   0.868   5.872   3.075
31145SOL    HW295275   0.825   6.003   3.011
31146SOL     OW95276  10.587   9.177   4.517
31146SOL    HW195277  10.525   9.158   4.588
31146SOL    HW295278  10.664   9.213   4.562
31147SOL     OW95279   5.723   7.280   7.928
31147SOL    HW195280   5.773   7.198   7.930
31147SOL    HW295281   5.788   7.348   7.910
31148SOL     OW95282  11.012   8.014  12.646
31148SOL    HW195283  11.039   8.042  12.733
31148SOL    HW295284  10.961   7.934  12.661
31149SOL     OW95285  13.111   7.708   7.375
31149SOL    HW195286  13.192   7.674   7.411
31149SOL    HW295287  13.137   7.784   7.322
31150SOL     OW95288   8.451   3.911   8.662
31150SOL    HW195289   8.400   3.946   8.736
31150SOL    HW295290   8.469   3.820   8.686
31151SOL     OW95291   2.795  10.332   4.997
31151SOL    HW195292   2.876  10.304   5.040
31151SOL    HW295293   2.775  10.417   5.036
31152SOL     OW95294   2.987   0.322   1.243
31152SOL    HW195295   2.975   0.232   1.276
31152SOL    HW295296   2.969   0.316   1.149
31153SOL     OW95297   3.706  10.443   5.790
31153SOL    HW195298   3.799  10.429   5.773
31153SOL    HW295299   3.697  10.538   5.799
31154SOL     OW95300   5.558   9.539   5.348
31154SOL    HW195301   5.542   9.622   5.303
31154SOL    HW295302   5.603   9.486   5.283
31155SOL     OW95303   9.957   4.740   2.466
31155SOL    HW195304   9.904   4.771   2.393
31155SOL    HW295305   9.901   4.751   2.543
31156SOL     OW95306  12.186   8.072   6.348
31156SOL    HW195307  12.255   8.108   6.292
31156SOL    HW295308  12.146   8.150   6.388
31157SOL     OW95309   8.518  11.827  12.279
31157SOL    HW195310   8.428  11.859  12.284
31157SOL    HW295311   8.572  11.906  12.287
31158SOL     OW95312   7.027  12.210  11.478
31158SOL    HW195313   7.078  12.290  11.493
31158SOL    HW295314   7.069  12.169  11.402
31159SOL     OW95315  10.194  13.131   7.492
31159SOL    HW195316  10.225  13.079   7.566
31159SOL    HW295317  10.222  13.082   7.415
31160SOL     OW95318   5.901  14.708  12.894
31160SOL    HW195319   5.882  14.764  12.819
31160SOL    HW295320   5.816  14.669  12.917
31161SOL     OW95321   0.073   6.238   2.966
31161SOL    HW195322   0.074   6.197   2.879
31161SOL    HW295323  14.856   6.266   2.978
31162SOL     OW95324   2.713   9.194  13.229
31162SOL    HW195325   2.684   9.227  13.315
31162SOL    HW295326   2.745   9.272  13.183
31163SOL     OW95327   3.674   6.666  12.121
31163SOL    HW195328   3.671   6.730  12.193
31163SOL    HW295329   3.583   6.644  12.104
31164SOL     OW95330   7.648  10.950  11.531
31164SOL    HW195331   7.599  10.935  11.612
31164SOL    HW295332   7.735  10.913  11.549
31165SOL     OW95333  13.501   9.571   8.529
31165SOL    HW195334  13.436   9.500   8.531
31165SOL    HW295335  13.561   9.551   8.600
31166SOL     OW95336   0.690   2.742   5.513
31166SOL    HW195337   0.690   2.735   5.417
31166SOL    HW295338   0.778   2.715   5.539
31167SOL     OW95339   1.107  11.152   5.908
31167SOL    HW195340   1.155  11.217   5.857
31167SOL    HW295341   1.150  11.151   5.993
31168SOL     OW95342   1.638   9.206   9.064
31168SOL    HW195343   1.664   9.128   9.015
31168SOL    HW295344   1.588   9.259   9.001
31169SOL     OW95345  12.824   1.947   2.273
31169SOL    HW195346  12.862   1.982   2.353
31169SOL    HW295347  12.888   1.882   2.243
31170SOL     OW95348   7.410  14.733   8.767
31170SOL    HW195349   7.385  14.821   8.793
31170SOL    HW295350   7.328  14.693   8.737
31171SOL     OW95351  13.733   1.460   2.198
31171SOL    HW195352  13.686   1.533   2.238
31171SOL    HW295353  13.824   1.473   2.224
31172SOL     OW95354  10.188  13.723   0.352
31172SOL    HW195355  10.221  13.751   0.437
31172SOL    HW295356  10.093  13.735   0.358
31173SOL     OW95357   8.783   2.614   8.931
31173SOL    HW195358   8.761   2.532   8.975
31173SOL    HW295359   8.740   2.608   8.846
31174SOL     OW95360   9.927  11.858   7.487
31174SOL    HW195361   9.842  11.828   7.457
31174SOL    HW295362   9.968  11.781   7.527
31175SOL     OW95363   3.499   0.067   1.398
31175SOL    HW195364   3.422   0.119   1.375
31175SOL    HW295365   3.486  14.856   1.354
31176SOL     OW95366  11.890  14.032   1.456
31176SOL    HW195367  11.848  14.104   1.502
31176SOL    HW295368  11.958  14.073   1.402
31177SOL     OW95369   1.902   5.608   8.018
31177SOL    HW195370   1.821   5.558   8.031
31177SOL    HW295371   1.938   5.619   8.106
31178SOL     OW95372  14.479   5.339   8.566
31178SOL    HW195373  14.386   5.347   8.543
31178SOL    HW295374  14.498   5.418   8.616
31179SOL     OW95375  10.215   7.427  12.679
31179SOL    HW195376  10.217   7.333  12.662
31179SOL    HW295377  10.300   7.459  12.650
31180SOL     OW95378  12.281   8.824   5.945
31180SOL    HW195379  12.373   8.830   5.921
31180SOL    HW295380  12.248   8.749   5.896
31181SOL     OW95381  11.672  11.528  12.514
31181SOL    HW195382  11.662  11.610  12.467
31181SOL    HW295383  11.629  11.463  12.459
31182SOL     OW95384   5.947   5.283  10.903
31182SOL    HW195385   5.973   5.361  10.855
31182SOL    HW295386   5.989   5.210  10.856
31183SOL     OW95387  12.390   5.328   3.125
31183SOL    HW195388  12.387   5.424   3.122
31183SOL    HW295389  12.473   5.306   3.081
31184SOL     OW95390   3.658  13.594   2.275
31184SOL    HW195391   3.594  13.602   2.346
31184SOL    HW295392   3.608  13.562   2.200
31185SOL     OW95393  14.712  13.412   2.065
31185SOL    HW195394  14.665  13.329   2.064
31185SOL    HW295395  14.755  13.416   1.980
31186SOL     OW95396   7.547   5.743  13.576
31186SOL    HW195397   7.595   5.825  13.578
31186SOL    HW295398   7.598   5.683  13.631
31187SOL     OW95399   8.491   2.271  12.838
31187SOL    HW195400   8.564   2.309  12.790
31187SOL    HW295401   8.461   2.198  12.783
31188SOL     OW95402   9.197  12.904  12.783
31188SOL    HW195403   9.289  12.904  12.756
31188SOL    HW295404   9.163  12.819  12.755
31189SOL     OW95405   9.494   0.211   5.184
31189SOL    HW195406   9.524   0.145   5.121
31189SOL    HW295407   9.554   0.202   5.258
31190SOL     OW95408  14.449  13.764   9.896
31190SOL    HW195409  14.400  13.762   9.978
31190SOL    HW295410  14.433  13.678   9.856
31191SOL     OW95411   5.175  14.033   1.973
31191SOL    HW195412   5.209  14.114   2.012
31191SOL    HW295413   5.247  13.971   1.979
31192SOL     OW95414  10.366   1.122   3.208
31192SOL    HW195415  10.388   1.085   3.294
31192SOL    HW295416  10.387   1.053   3.146
31193SOL     OW95417   4.403  14.003   0.089
31193SOL    HW195418   4.478  14.051   0.054
31193SOL    HW295419   4.327  14.043   0.047
31194SOL     OW95420  10.082   7.326  10.622
31194SOL    HW195421  10.100   7.271  10.545
31194SOL    HW295422  10.167   7.337  10.664
31195SOL     OW95423  10.724   8.778   2.214
31195SOL    HW195424  10.633   8.762   2.241
31195SOL    HW295425  10.741   8.869   2.238
31196SOL     OW95426   6.978   9.135  11.607
31196SOL    HW195427   6.902   9.080  11.624
31196SOL    HW295428   6.989   9.134  11.512
31197SOL     OW95429   4.986  12.324   8.567
31197SOL    HW195430   4.936  12.242   8.572
31197SOL    HW295431   4.940  12.376   8.502
31198SOL     OW95432   0.724   8.140   8.715
31198SOL    HW195433   0.702   8.048   8.726
31198SOL    HW295434   0.783   8.143   8.640
31199SOL     OW95435   6.273   9.177   4.443
31199SOL    HW195436   6.251   9.194   4.534
31199SOL    HW295437   6.200   9.213   4.393
31200SOL     OW95438   7.801  10.480  11.015
31200SOL    HW195439   7.727  10.446  11.066
31200SOL    HW295440   7.878  10.438  11.053
31201SOL     OW95441   5.177   9.873   4.394
31201SOL    HW195442   5.216   9.931   4.460
31201SOL    HW295443   5.084   9.894   4.395
31202SOL     OW95444  14.448   7.873   2.589
31202SOL    HW195445  14.429   7.830   2.506
31202SOL    HW295446  14.527   7.924   2.574
31203SOL     OW95447  10.523   2.088  12.787
31203SOL    HW195448  10.497   2.165  12.837
31203SOL    HW295449  10.567   2.124  12.710
31204SOL     OW95450   3.389   8.436  12.781
31204SOL    HW195451   3.306   8.387  12.787
31204SOL    HW295452   3.405   8.443  12.687
31205SOL     OW95453  14.767   8.825   0.943
31205SOL    HW195454  14.805   8.771   0.874
31205SOL    HW295455  14.717   8.764   0.997
31206SOL     OW95456  10.564   0.356   3.838
31206SOL    HW195457  10.652   0.339   3.804
31206SOL    HW295458  10.513   0.280   3.812
31207SOL     OW95459   0.110   7.222   0.101
31207SOL    HW195460   0.063   7.193   0.023
31207SOL    HW295461   0.202   7.205   0.080
31208SOL     OW95462  10.368  14.724   8.257
31208SOL    HW195463  10.375  14.684   8.170
31208SOL    HW295464  10.393  14.815   8.243
31209SOL     OW95465  13.124  11.929   7.750
31209SOL    HW195466  13.139  11.990   7.678
31209SOL    HW295467  13.202  11.939   7.806
31210SOL     OW95468   1.470   6.014  14.809
31210SOL    HW195469   1.406   6.054  14.750
31210SOL    HW295470   1.549   6.067  14.799
31211SOL     OW95471   5.031   8.442  13.150
31211SOL    HW195472   5.018   8.348  13.164
31211SOL    HW295473   5.081   8.470  13.226
31212SOL     OW95474   2.786   0.056   1.888
31212SOL    HW195475   2.704   0.016   1.856
31212SOL    HW295476   2.787   0.143   1.849
31213SOL     OW95477  10.350   3.053  10.007
31213SOL    HW195478  10.265   3.009  10.004
31213SOL    HW295479  10.383   3.046   9.917
31214SOL     OW95480   3.896   0.929   8.936
31214SOL    HW195481   3.832   0.862   8.915
31214SOL    HW295482   3.900   0.929   9.032
31215SOL     OW95483   9.996   2.376   1.153
31215SOL    HW195484   9.952   2.359   1.236
31215SOL    HW295485  10.069   2.315   1.152
31216SOL     OW95486   5.418   5.732  10.980
31216SOL    HW195487   5.412   5.636  10.978
31216SOL    HW295488   5.511   5.750  10.970
31217SOL     OW95489   7.976  12.696   8.738
31217SOL    HW195490   7.947  12.627   8.797
31217SOL    HW295491   7.918  12.770   8.756
31218SOL     OW95492  14.221   9.435  11.480
31218SOL    HW195493  14.200   9.460  11.390
31218SOL    HW295494  14.294   9.374  11.472
31219SOL     OW95495   7.685   4.619   9.270
31219SOL    HW195496   7.687   4.676   9.347
31219SOL    HW295497   7.693   4.530   9.305
31220SOL     OW95498  12.696  13.732   4.220
31220SOL    HW195499  12.662  13.681   4.294
31220SOL    HW295500  12.717  13.666   4.154
31221SOL     OW95501   6.138   6.587   1.630
31221SOL    HW195502   6.095   6.549   1.554
31221SOL    HW295503   6.211   6.529   1.649
31222SOL     OW95504   2.146   1.014   9.282
31222SOL    HW195505   2.103   0.961   9.349
31222SOL    HW295506   2.167   1.096   9.326
31223SOL     OW95507   6.453  13.043  11.700
31223SOL    HW195508   6.451  13.004  11.787
31223SOL    HW295509   6.544  13.066  11.686
31224SOL     OW95510   4.088  10.755  11.250
31224SOL    HW195511   4.088  10.671  11.204
31224SOL    HW295512   4.040  10.738  11.331
31225SOL     OW95513   2.510  13.146   7.381
31225SOL    HW195514   2.584  13.175   7.434
31225SOL    HW295515   2.437  13.142   7.443
31226SOL     OW95516   2.418   8.996  12.768
31226SOL    HW195517   2.465   8.915  12.748
31226SOL    HW295518   2.485   9.064  12.767
31227SOL     OW95519  10.156   2.863  11.907
31227SOL    HW195520  10.094   2.936  11.916
31227SOL    HW295521  10.142   2.810  11.985
31228SOL     OW95522   4.454  13.498   7.261
31228SOL    HW195523   4.375  13.494   7.314
31228SOL    HW295524   4.513  13.557   7.309
31229SOL     OW95525  11.019   4.206  12.629
31229SOL    HW195526  11.097   4.212  12.684
31229SOL    HW295527  10.946   4.222  12.690
31230SOL     OW95528  10.853  13.428   5.803
31230SOL    HW195529  10.847  13.343   5.847
31230SOL    HW295530  10.857  13.491   5.875
31231SOL     OW95531   9.833   2.332   2.877
31231SOL    HW195532   9.759   2.273   2.889
31231SOL    HW295533   9.872   2.340   2.964
31232SOL     OW95534  14.574   3.343   4.492
31232SOL    HW195535  14.596   3.260   4.534
31232SOL    HW295536  14.632   3.348   4.416
31233SOL     OW95537   6.061  11.978   5.781
31233SOL    HW195538   6.068  11.958   5.687
31233SOL    HW295539   6.110  11.908   5.823
31234SOL     OW95540   1.203   4.096  11.808
31234SOL    HW195541   1.181   4.170  11.864
31234SOL    HW295542   1.296   4.082  11.821
31235SOL     OW95543   1.163   1.312   7.765
31235SOL    HW195544   1.245   1.329   7.811
31235SOL    HW295545   1.096   1.352   7.821
31236SOL     OW95546   2.267   0.714   9.289
31236SOL    HW195547   2.355   0.678   9.272
31236SOL    HW295548   2.263   0.792   9.233
31237SOL     OW95549   8.940  14.265  13.835
31237SOL    HW195550   8.851  14.255  13.866
31237SOL    HW295551   8.995  14.254  13.913
31238SOL     OW95552   6.008   1.173   1.877
31238SOL    HW195553   5.945   1.244   1.872
31238SOL    HW295554   6.060   1.193   1.955
31239SOL     OW95555   6.622   8.291   2.619
31239SOL    HW195556   6.575   8.371   2.643
31239SOL    HW295557   6.556   8.236   2.577
31240SOL     OW95558   8.997   1.247  10.735
31240SOL    HW195559   9.035   1.244  10.648
31240SOL    HW295560   8.989   1.341  10.755
31241SOL     OW95561   3.507  13.447   4.606
31241SOL    HW195562   3.546  13.431   4.520
31241SOL    HW295563   3.545  13.380   4.663
31242SOL     OW95564   0.848   6.238   6.766
31242SOL    HW195565   0.882   6.326   6.783
31242SOL    HW295566   0.903   6.204   6.695
31243SOL     OW95567   5.060   5.228   3.829
31243SOL    HW195568   5.044   5.290   3.757
31243SOL    HW295569   5.149   5.249   3.858
31244SOL     OW95570   1.757  12.002   6.164
31244SOL    HW195571   1.809  11.924   6.185
31244SOL    HW295572   1.806  12.075   6.201
31245SOL     OW95573   4.402   4.824   4.563
31245SOL    HW195574   4.331   4.772   4.601
31245SOL    HW295575   4.362   4.867   4.488
31246SOL     OW95576  14.778   0.773   1.994
31246SOL    HW195577  14.831   0.711   1.943
31246SOL    HW295578  14.837   0.848   2.008
31247SOL     OW95579   0.988   9.125   6.905
31247SOL    HW195580   0.896   9.141   6.886
31247SOL    HW295581   0.991   9.107   6.998
31248SOL     OW95582   5.074  11.777   7.844
31248SOL    HW195583   5.136  11.849   7.857
31248SOL    HW295584   5.106  11.707   7.900
31249SOL     OW95585   3.329   3.665   9.888
31249SOL    HW195586   3.342   3.760   9.883
31249SOL    HW295587   3.234   3.654   9.893
31250SOL     OW95588  12.206  10.305   5.727
31250SOL    HW195589  12.203  10.368   5.800
31250SOL    HW295590  12.116  10.273   5.719
31251SOL     OW95591   3.723   2.364   8.810
31251SOL    HW195592   3.655   2.426   8.833
31251SOL    HW295593   3.680   2.300   8.753
31252SOL     OW95594   2.676  11.557   5.654
31252SOL    HW195595   2.659  11.553   5.748
31252SOL    HW295596   2.770  11.539   5.646
31253SOL     OW95597   5.955   1.823   6.914
31253SOL    HW195598   5.903   1.747   6.941
31253SOL    HW295599   6.034   1.786   6.876
31254SOL     OW95600   7.145  10.755  10.689
31254SOL    HW195601   7.230  10.725  10.720
31254SOL    HW295602   7.149  10.745  10.594
31255SOL     OW95603  12.228   7.176   6.236
31255SOL    HW195604  12.272   7.198   6.154
31255SOL    HW295605  12.217   7.081   6.232
31256SOL     OW95606   6.797   3.412   5.673
31256SOL    HW195607   6.842   3.496   5.667
31256SOL    HW295608   6.866   3.347   5.663
31257SOL     OW95609   2.417   7.955  10.776
31257SOL    HW195610   2.453   7.999  10.699
31257SOL    HW295611   2.393   7.868  10.744
31258SOL     OW95612   4.307  12.750   6.108
31258SOL    HW195613   4.323  12.805   6.184
31258SOL    HW295614   4.353  12.668   6.127
31259SOL     OW95615   4.988   1.304   9.129
31259SOL    HW195616   4.941   1.326   9.048
31259SOL    HW295617   4.924   1.319   9.198
31260SOL     OW95618  12.871   7.912   8.911
31260SOL    HW195619  12.944   7.947   8.961
31260SOL    HW295620  12.803   7.979   8.918
31261SOL     OW95621   2.122   8.929   5.939
31261SOL    HW195622   2.135   8.851   5.993
31261SOL    HW295623   2.045   8.908   5.885
31262SOL     OW95624   9.243   5.370   5.364
31262SOL    HW195625   9.229   5.357   5.270
31262SOL    HW295626   9.159   5.404   5.396
31263SOL     OW95627  12.919   0.097   2.608
31263SOL    HW195628  12.838   0.053   2.634
31263SOL    HW295629  12.927   0.080   2.514
31264SOL     OW95630   5.191   7.533  11.370
31264SOL    HW195631   5.123   7.601  11.378
31264SOL    HW295632   5.168   7.468  11.436
31265SOL     OW95633  13.734   8.344  12.530
31265SOL    HW195634  13.816   8.303  12.558
31265SOL    HW295635  13.695   8.280  12.471
31266SOL     OW95636   9.097  10.491   1.983
31266SOL    HW195637   9.134  10.425   2.042
31266SOL    HW295638   9.101  10.450   1.896
31267SOL     OW95639   9.201   5.504   8.959
31267SOL    HW195640   9.256   5.425   8.963
31267SOL    HW295641   9.231   5.550   8.881
31268SOL     OW95642  14.221  12.657   2.866
31268SOL    HW195643  14.162  12.646   2.941
31268SOL    HW295644  14.301  12.612   2.892
31269SOL     OW95645   4.328  14.763   6.486
31269SOL    HW195646   4.349  14.685   6.538
31269SOL    HW295647   4.366  14.746   6.400
31270SOL     OW95648  12.152   9.208   1.251
31270SOL    HW195649  12.199   9.210   1.168
31270SOL    HW295650  12.063   9.181   1.228
31271SOL     OW95651   9.080  14.844   2.487
31271SOL    HW195652   9.100  14.771   2.428
31271SOL    HW295653   9.097   0.049   2.434
31272SOL     OW95654  12.437  11.743   8.677
31272SOL    HW195655  12.527  11.718   8.656
31272SOL    HW295656  12.418  11.816   8.618
31273SOL     OW95657   5.960  13.330   3.994
31273SOL    HW195658   5.884  13.386   3.980
31273SOL    HW295659   6.032  13.391   4.012
31274SOL     OW95660   5.554  14.784   8.581
31274SOL    HW195661   5.578   0.003   8.581
31274SOL    HW295662   5.637  14.737   8.579
31275SOL     OW95663   6.506   6.581   3.294
31275SOL    HW195664   6.484   6.621   3.378
31275SOL    HW295665   6.423   6.546   3.261
31276SOL     OW95666  12.620   6.465   1.992
31276SOL    HW195667  12.568   6.462   2.072
31276SOL    HW295668  12.568   6.516   1.931
31277SOL     OW95669  10.537  10.799   4.970
31277SOL    HW195670  10.551  10.885   5.010
31277SOL    HW295671  10.464  10.812   4.910
31278SOL     OW95672   9.508   1.270   6.497
31278SOL    HW195673   9.452   1.339   6.461
31278SOL    HW295674   9.590   1.279   6.450
31279SOL     OW95675   3.733   8.990   3.974
31279SOL    HW195676   3.758   8.906   3.934
31279SOL    HW295677   3.795   9.002   4.045
31280SOL     OW95678   9.611  14.010  14.086
31280SOL    HW195679   9.562  13.938  14.046
31280SOL    HW295680   9.563  14.089  14.060
31281SOL     OW95681  11.064   5.020   8.959
31281SOL    HW195682  11.022   5.025   9.045
31281SOL    HW295683  11.002   4.971   8.906
31282SOL     OW95684  13.008   6.004  12.335
31282SOL    HW195685  13.004   6.030  12.427
31282SOL    HW295686  13.039   5.914  12.337
31283SOL     OW95687   3.515   3.173  10.065
31283SOL    HW195688   3.599   3.147  10.028
31283SOL    HW295689   3.499   3.260  10.027
31284SOL     OW95690   2.462  14.513  12.205
31284SOL    HW195691   2.388  14.479  12.255
31284SOL    HW295692   2.469  14.605  12.232
31285SOL     OW95693   3.370   6.945  13.245
31285SOL    HW195694   3.425   6.866  13.236
31285SOL    HW295695   3.306   6.938  13.174
31286SOL     OW95696   7.984   2.514  14.417
31286SOL    HW195697   7.943   2.474  14.341
31286SOL    HW295698   7.964   2.607  14.410
31287SOL     OW95699   6.967   7.493   7.974
31287SOL    HW195700   7.012   7.564   8.020
31287SOL    HW295701   6.959   7.423   8.039
31288SOL     OW95702   6.437  13.851  11.600
31288SOL    HW195703   6.520  13.853  11.553
31288SOL    HW295704   6.378  13.801  11.543
31289SOL     OW95705   0.941   4.802   8.675
31289SOL    HW195706   0.911   4.868   8.613
31289SOL    HW295707   0.876   4.732   8.671
31290SOL     OW95708   5.547   3.569   3.460
31290SOL    HW195709   5.478   3.526   3.409
31290SOL    HW295710   5.574   3.643   3.406
31291SOL     OW95711  13.967   3.670   1.019
31291SOL    HW195712  14.003   3.734   0.957
31291SOL    HW295713  13.904   3.620   0.967
31292SOL     OW95714  12.277   2.604   1.353
31292SOL    HW195715  12.211   2.542   1.322
31292SOL    HW295716  12.259   2.614   1.446
31293SOL     OW95717   9.784  10.841   1.307
31293SOL    HW195718   9.724  10.859   1.380
31293SOL    HW295719   9.850  10.783   1.344
31294SOL     OW95720   2.773  10.530   6.769
31294SOL    HW195721   2.692  10.579   6.772
31294SOL    HW295722   2.784  10.496   6.858
31295SOL     OW95723  12.049   9.486   5.826
31295SOL    HW195724  12.034   9.536   5.746
31295SOL    HW295725  11.962   9.480   5.867
31296SOL     OW95726  11.371  13.508  13.832
31296SOL    HW195727  11.368  13.478  13.741
31296SOL    HW295728  11.382  13.428  13.883
31297SOL     OW95729  10.789  13.396   9.291
31297SOL    HW195730  10.857  13.376   9.227
31297SOL    HW295731  10.759  13.484   9.268
31298SOL     OW95732   1.854   6.653   4.817
31298SOL    HW195733   1.828   6.709   4.744
31298SOL    HW295734   1.781   6.591   4.827
31299SOL     OW95735  10.946   4.498  14.489
31299SOL    HW195736  10.970   4.468  14.577
31299SOL    HW295737  10.875   4.560  14.503
31300SOL     OW95738  10.186  12.358   3.193
31300SOL    HW195739  10.193  12.391   3.283
31300SOL    HW295740  10.152  12.269   3.203
31301SOL     OW95741   5.790   8.229   6.078
31301SOL    HW195742   5.770   8.271   6.162
31301SOL    HW295743   5.761   8.293   6.012
31302SOL     OW95744  12.469   4.397  12.489
31302SOL    HW195745  12.561   4.378  12.471
31302SOL    HW295746  12.470   4.445  12.571
31303SOL     OW95747   0.883   7.954   1.132
31303SOL    HW195748   0.945   7.993   1.071
31303SOL    HW295749   0.936   7.924   1.205
31304SOL     OW95750   3.462   2.616  14.333
31304SOL    HW195751   3.397   2.594  14.266
31304SOL    HW295752   3.506   2.533  14.350
31305SOL     OW95753   8.415   9.035   5.331
31305SOL    HW195754   8.503   9.062   5.358
31305SOL    HW295755   8.418   8.940   5.330
31306SOL     OW95756  10.756   0.440  10.909
31306SOL    HW195757  10.820   0.369  10.912
31306SOL    HW295758  10.672   0.395  10.897
31307SOL     OW95759   0.639   3.998   4.569
31307SOL    HW195760   0.608   3.955   4.490
31307SOL    HW295761   0.733   4.009   4.555
31308SOL     OW95762   5.363  13.056   6.558
31308SOL    HW195763   5.332  13.087   6.643
31308SOL    HW295764   5.345  13.128   6.498
31309SOL     OW95765   7.209   7.781  14.355
31309SOL    HW195766   7.230   7.815  14.442
31309SOL    HW295767   7.290   7.791  14.305
31310SOL     OW95768   7.542   9.835  10.979
31310SOL    HW195769   7.517   9.919  10.939
31310SOL    HW295770   7.555   9.856  11.071
31311SOL     OW95771   6.465   3.806  11.274
31311SOL    HW195772   6.539   3.783  11.218
31311SOL    HW295773   6.504   3.857  11.345
31312SOL     OW95774   0.857  10.584   7.575
31312SOL    HW195775   0.792  10.587   7.644
31312SOL    HW295776   0.829  10.512   7.518
31313SOL     OW95777   6.090   8.270   6.834
31313SOL    HW195778   6.008   8.309   6.806
31313SOL    HW295779   6.151   8.343   6.840
31314SOL     OW95780   9.647   1.733  12.380
31314SOL    HW195781   9.725   1.754  12.431
31314SOL    HW295782   9.633   1.811  12.326
31315SOL     OW95783   5.693   9.330   2.772
31315SOL    HW195784   5.777   9.299   2.806
31315SOL    HW295785   5.627   9.291   2.830
31316SOL     OW95786   2.198   1.784   7.739
31316SOL    HW195787   2.190   1.726   7.814
31316SOL    HW295788   2.179   1.871   7.774
31317SOL     OW95789   0.469   1.722   9.405
31317SOL    HW195790   0.420   1.772   9.340
31317SOL    HW295791   0.440   1.756   9.489
31318SOL     OW95792   5.000  12.468  11.325
31318SOL    HW195793   4.922  12.420  11.296
31318SOL    HW295794   4.997  12.461  11.420
31319SOL     OW95795   6.816   6.026   6.547
31319SOL    HW195796   6.750   6.091   6.572
31319SOL    HW295797   6.769   5.965   6.491
31320SOL     OW95798   2.082   4.561   6.523
31320SOL    HW195799   2.170   4.547   6.559
31320SOL    HW295800   2.098   4.601   6.438
31321SOL     OW95801  12.422   9.373   6.691
31321SOL    HW195802  12.358   9.403   6.627
31321SOL    HW295803  12.371   9.322   6.754
31322SOL     OW95804   2.399   2.277   6.976
31322SOL    HW195805   2.391   2.259   6.882
31322SOL    HW295806   2.310   2.298   7.004
31323SOL     OW95807   8.426  13.636   1.641
31323SOL    HW195808   8.371  13.693   1.695
31323SOL    HW295809   8.516  13.661   1.664
31324SOL     OW95810  13.559   3.967   2.022
31324SOL    HW195811  13.552   4.014   2.106
31324SOL    HW295812  13.552   3.875   2.045
31325SOL     OW95813   1.761   8.996  11.250
31325SOL    HW195814   1.717   8.990  11.165
31325SOL    HW295815   1.751   9.087  11.277
31326SOL     OW95816   2.519  14.411   8.052
31326SOL    HW195817   2.605  14.373   8.071
31326SOL    HW295818   2.474  14.344   8.000
31327SOL     OW95819   3.026  12.008   4.149
31327SOL    HW195820   3.084  11.931   4.151
31327SOL    HW295821   2.938  11.971   4.156
31328SOL     OW95822   0.326   2.881   7.762
31328SOL    HW195823   0.389   2.945   7.794
31328SOL    HW295824   0.279   2.852   7.841
31329SOL     OW95825  10.728  14.135   7.210
31329SOL    HW195826  10.694  14.047   7.221
31329SOL    HW295827  10.789  14.147   7.282
31330SOL     OW95828   0.151   7.199   1.728
31330SOL    HW195829   0.145   7.269   1.663
31330SOL    HW295830   0.144   7.119   1.676
31331SOL     OW95831   9.914   2.368  13.835
31331SOL    HW195832   9.912   2.420  13.916
31331SOL    HW295833  10.006   2.344  13.825
31332SOL     OW95834  13.102  12.360   7.675
31332SOL    HW195835  13.085  12.413   7.753
31332SOL    HW295836  13.055  12.405   7.605
31333SOL     OW95837  10.659  11.298  10.622
31333SOL    HW195838  10.611  11.250  10.689
31333SOL    HW295839  10.733  11.338  10.669
31334SOL     OW95840   1.059   4.867  14.817
31334SOL    HW195841   0.968   4.844  14.835
31334SOL    HW295842   1.057   4.906  14.729
31335SOL     OW95843  14.603   9.270   4.587
31335SOL    HW195844  14.513   9.276   4.555
31335SOL    HW295845  14.603   9.194   4.645
31336SOL     OW95846   1.988  13.794   3.501
31336SOL    HW195847   2.059  13.841   3.458
31336SOL    HW295848   2.029  13.714   3.535
31337SOL     OW95849   3.976   3.825   5.900
31337SOL    HW195850   3.908   3.771   5.859
31337SOL    HW295851   3.928   3.897   5.941
31338SOL     OW95852   9.776   0.751   4.008
31338SOL    HW195853   9.866   0.719   4.001
31338SOL    HW295854   9.777   0.813   4.081
31339SOL     OW95855  11.030  12.413   5.017
31339SOL    HW195856  10.934  12.418   5.022
31339SOL    HW295857  11.059  12.501   5.041
31340SOL     OW95858   3.863  14.768   3.989
31340SOL    HW195859   3.812  14.848   4.001
31340SOL    HW295860   3.848  14.744   3.897
31341SOL     OW95861   2.303  14.606   5.624
31341SOL    HW195862   2.262  14.552   5.557
31341SOL    HW295863   2.269  14.694   5.609
31342SOL     OW95864  10.253  14.522  11.565
31342SOL    HW195865  10.232  14.612  11.538
31342SOL    HW295866  10.272  14.529  11.658
31343SOL     OW95867   1.812   7.713   5.335
31343SOL    HW195868   1.788   7.707   5.428
31343SOL    HW295869   1.892   7.766   5.334
31344SOL     OW95870   6.845   6.464   8.350
31344SOL    HW195871   6.813   6.545   8.391
31344SOL    HW295872   6.917   6.435   8.406
31345SOL     OW95873  12.403   3.622  10.605
31345SOL    HW195874  12.369   3.694  10.551
31345SOL    HW295875  12.327   3.590  10.653
31346SOL     OW95876   1.926  12.268  13.176
31346SOL    HW195877   1.884  12.188  13.208
31346SOL    HW295878   1.856  12.315  13.132
31347SOL     OW95879   5.014   5.517   1.672
31347SOL    HW195880   5.046   5.537   1.584
31347SOL    HW295881   4.967   5.595   1.699
31348SOL     OW95882   6.209   9.760   4.946
31348SOL    HW195883   6.115   9.756   4.965
31348SOL    HW295884   6.249   9.706   5.015
31349SOL     OW95885  11.082  11.344   0.768
31349SOL    HW195886  11.132  11.341   0.687
31349SOL    HW295887  11.147  11.363   0.836
31350SOL     OW95888   5.121   8.442   3.324
31350SOL    HW195889   5.113   8.413   3.233
31350SOL    HW295890   5.102   8.536   3.321
31351SOL     OW95891   9.322   4.440  12.689
31351SOL    HW195892   9.369   4.516  12.655
31351SOL    HW295893   9.234   4.474  12.707
31352SOL     OW95894   4.263   7.343   6.154
31352SOL    HW195895   4.284   7.435   6.140
31352SOL    HW295896   4.336   7.308   6.205
31353SOL     OW95897  12.230   8.634   3.731
31353SOL    HW195898  12.225   8.583   3.651
31353SOL    HW295899  12.209   8.572   3.801
31354SOL     OW95900   2.740   7.225   5.382
31354SOL    HW195901   2.805   7.259   5.444
31354SOL    HW295902   2.657   7.261   5.412
31355SOL     OW95903   7.355   9.339   8.804
31355SOL    HW195904   7.317   9.388   8.876
31355SOL    HW295905   7.327   9.386   8.725
31356SOL     OW95906   8.333  10.583   4.506
31356SOL    HW195907   8.290  10.645   4.447
31356SOL    HW295908   8.274  10.575   4.581
31357SOL     OW95909   0.249   4.313   4.600
31357SOL    HW195910   0.211   4.257   4.668
31357SOL    HW295911   0.211   4.282   4.519
31358SOL     OW95912   9.715   5.271  13.545
31358SOL    HW195913   9.761   5.354  13.536
31358SOL    HW295914   9.622   5.294  13.540
31359SOL     OW95915   6.547   1.649  10.462
31359SOL    HW195916   6.505   1.589  10.401
31359SOL    HW295917   6.519   1.619  10.549
31360SOL     OW95918   9.960  11.989   0.729
31360SOL    HW195919   9.938  12.030   0.813
31360SOL    HW295920   9.907  11.910   0.727
31361SOL     OW95921   6.004   6.940   1.474
31361SOL    HW195922   5.908   6.949   1.469
31361SOL    HW295923   6.022   6.931   1.567
31362SOL     OW95924   8.378   8.786   8.922
31362SOL    HW195925   8.384   8.697   8.887
31362SOL    HW295926   8.292   8.789   8.964
31363SOL     OW95927  13.081   7.372   7.146
31363SOL    HW195928  12.992   7.406   7.136
31363SOL    HW295929  13.072   7.297   7.205
31364SOL     OW95930   2.335  11.753  11.131
31364SOL    HW195931   2.318  11.834  11.177
31364SOL    HW295932   2.408  11.773  11.073
31365SOL     OW95933  10.023  14.128   6.651
31365SOL    HW195934   9.956  14.190   6.622
31365SOL    HW295935  10.084  14.122   6.577
31366SOL     OW95936  14.215   5.383  10.692
31366SOL    HW195937  14.277   5.329  10.643
31366SOL    HW295938  14.138   5.389  10.635
31367SOL     OW95939   8.459   9.386   5.981
31367SOL    HW195940   8.479   9.463   5.927
31367SOL    HW295941   8.479   9.414   6.070
31368SOL     OW95942   7.087  14.637  13.550
31368SOL    HW195943   7.143  14.706  13.513
31368SOL    HW295944   7.094  14.564  13.489
31369SOL     OW95945  14.068  10.267   7.680
31369SOL    HW195946  14.159  10.272   7.708
31369SOL    HW295947  14.028  10.201   7.736
31370SOL     OW95948  11.823   1.677   3.164
31370SOL    HW195949  11.915   1.690   3.141
31370SOL    HW295950  11.775   1.731   3.102
31371SOL     OW95951   7.502   5.145   9.793
31371SOL    HW195952   7.510   5.124   9.700
31371SOL    HW295953   7.477   5.237   9.795
31372SOL     OW95954   7.837   8.352   0.967
31372SOL    HW195955   7.813   8.270   0.924
31372SOL    HW295956   7.908   8.328   1.026
31373SOL     OW95957   7.690   2.954   3.241
31373SOL    HW195958   7.763   2.919   3.292
31373SOL    HW295959   7.724   3.036   3.205
31374SOL     OW95960   8.503   3.467   7.181
31374SOL    HW195961   8.440   3.453   7.252
31374SOL    HW295962   8.489   3.393   7.121
31375SOL     OW95963   1.585   0.940   0.006
31375SOL    HW195964   1.610   0.875   0.071
31375SOL    HW295965   1.575   1.021   0.055
31376SOL     OW95966  13.387   5.046  13.465
31376SOL    HW195967  13.310   5.037  13.409
31376SOL    HW295968  13.434   4.963  13.455
31377SOL     OW95969   3.778  13.147   4.350
31377SOL    HW195970   3.707  13.083   4.344
31377SOL    HW295971   3.844  13.116   4.288
31378SOL     OW95972   5.274  14.063   7.489
31378SOL    HW195973   5.348  14.104   7.534
31378SOL    HW295974   5.253  14.124   7.417
31379SOL     OW95975   0.058   2.317  11.028
31379SOL    HW195976   0.117   2.242  11.025
31379SOL    HW295977   0.059   2.351  10.938
31380SOL     OW95978   5.986   1.646   3.214
31380SOL    HW195979   5.986   1.739   3.234
31380SOL    HW295980   5.975   1.603   3.300
31381SOL     OW95981   4.732  14.851   8.699
31381SOL    HW195982   4.805  14.801   8.662
31381SOL    HW295983   4.666  14.785   8.719
31382SOL     OW95984   6.090   4.996   0.685
31382SOL    HW195985   6.023   4.975   0.750
31382SOL    HW295986   6.171   5.001   0.735
31383SOL     OW95987   3.751   3.889   9.945
31383SOL    HW195988   3.787   3.821   9.889
31383SOL    HW295989   3.827   3.934   9.981
31384SOL     OW95990   0.666   0.463  10.999
31384SOL    HW195991   0.685   0.474  10.906
31384SOL    HW295992   0.576   0.430  11.002
31385SOL     OW95993   7.646   5.832  14.523
31385SOL    HW195994   7.694   5.759  14.482
31385SOL    HW295995   7.702   5.860  14.595
31386SOL     OW95996   2.561   8.887   7.206
31386SOL    HW195997   2.635   8.829   7.217
31386SOL    HW295998   2.597   8.975   7.218
31387SOL     OW95999  14.088   4.811   6.091
31387SOL    HW196000  14.156   4.875   6.114
31387SOL    HW296001  14.078   4.820   5.996
31388SOL     OW96002   0.876  10.133   9.815
31388SOL    HW196003   0.957  10.175   9.841
31388SOL    HW296004   0.895  10.091   9.731
31389SOL     OW96005  10.921  13.984  14.473
31389SOL    HW196006  10.881  13.899  14.457
31389SOL    HW296007  10.937  14.020  14.386
31390SOL     OW96008  14.122  11.629   2.328
31390SOL    HW196009  14.182  11.641   2.401
31390SOL    HW296010  14.066  11.555   2.354
31391SOL     OW96011   8.558  10.334  12.798
31391SOL    HW196012   8.526  10.407  12.851
31391SOL    HW296013   8.646  10.360  12.771
31392SOL     OW96014   9.803   6.532   5.236
31392SOL    HW196015   9.781   6.598   5.301
31392SOL    HW296016   9.738   6.463   5.249
31393SOL     OW96017   1.238   3.188   5.712
31393SOL    HW196018   1.296   3.161   5.640
31393SOL    HW296019   1.291   3.177   5.791
31394SOL     OW96020   4.060  10.926  10.428
31394SOL    HW196021   4.060  10.830  10.425
31394SOL    HW296022   4.132  10.948  10.487
31395SOL     OW96023   9.851  11.405   5.869
31395SOL    HW196024   9.884  11.495   5.878
31395SOL    HW296025   9.919  11.359   5.819
31396SOL     OW96026   2.678   5.726  14.576
31396SOL    HW196027   2.642   5.765  14.656
31396SOL    HW296028   2.757   5.681  14.605
31397SOL     OW96029   1.873  10.547  13.127
31397SOL    HW196030   1.867  10.578  13.037
31397SOL    HW296031   1.968  10.542  13.145
31398SOL     OW96032  11.172   3.592   3.388
31398SOL    HW196033  11.128   3.525   3.334
31398SOL    HW296034  11.127   3.586   3.473
31399SOL     OW96035  13.851   1.460   2.774
31399SOL    HW196036  13.926   1.519   2.761
31399SOL    HW296037  13.886   1.373   2.760
31400SOL     OW96038   8.959   5.303   0.248
31400SOL    HW196039   8.884   5.292   0.190
31400SOL    HW296040   9.033   5.319   0.189
31401SOL     OW96041   4.189   6.971   3.163
31401SOL    HW196042   4.280   6.987   3.138
31401SOL    HW296043   4.153   7.058   3.179
31402SOL     OW96044   9.696  13.888  10.337
31402SOL    HW196045   9.612  13.871  10.379
31402SOL    HW296046   9.753  13.917  10.408
31403SOL     OW96047   2.455  14.353   1.447
31403SOL    HW196048   2.466  14.385   1.537
31403SOL    HW296049   2.422  14.429   1.398
31404SOL     OW96050  11.617  11.529   4.579
31404SOL    HW196051  11.532  11.496   4.550
31404SOL    HW296052  11.664  11.551   4.499
31405SOL     OW96053   3.556   0.431   5.858
31405SOL    HW196054   3.506   0.462   5.933
31405SOL    HW296055   3.532   0.490   5.786
31406SOL     OW96056   6.656   6.570   6.038
31406SOL    HW196057   6.592   6.550   6.105
31406SOL    HW296058   6.711   6.639   6.077
31407SOL     OW96059   5.700   9.226  13.120
31407SOL    HW196060   5.673   9.154  13.177
31407SOL    HW296061   5.698   9.303  13.176
31408SOL     OW96062   0.293  11.982  12.474
31408SOL    HW196063   0.366  11.926  12.447
31408SOL    HW296064   0.309  12.065  12.429
31409SOL     OW96065  13.505   8.496   9.290
31409SOL    HW196066  13.590   8.493   9.247
31409SOL    HW296067  13.442   8.484   9.220
31410SOL     OW96068   3.457  13.721   3.584
31410SOL    HW196069   3.449  13.655   3.652
31410SOL    HW296070   3.485  13.800   3.630
31411SOL     OW96071  12.754   3.534   8.730
31411SOL    HW196072  12.703   3.461   8.693
31411SOL    HW296073  12.716   3.612   8.689
31412SOL     OW96074  13.552   4.065  14.299
31412SOL    HW196075  13.501   4.145  14.284
31412SOL    HW296076  13.501   3.996  14.257
31413SOL     OW96077  13.690   0.244   4.416
31413SOL    HW196078  13.630   0.280   4.350
31413SOL    HW296079  13.631   0.207   4.483
31414SOL     OW96080   0.178   0.156  12.243
31414SOL    HW196081   0.204   0.176  12.332
31414SOL    HW296082   0.224   0.075  12.222
31415SOL     OW96083  11.849  10.453  11.714
31415SOL    HW196084  11.845  10.448  11.810
31415SOL    HW296085  11.804  10.375  11.684
31416SOL     OW96086   2.721   7.127   0.576
31416SOL    HW196087   2.811   7.127   0.545
31416SOL    HW296088   2.708   7.038   0.610
31417SOL     OW96089  12.341  14.663   9.324
31417SOL    HW196090  12.396  14.736   9.297
31417SOL    HW296091  12.261  14.673   9.272
31418SOL     OW96092   0.831   1.654  12.043
31418SOL    HW196093   0.749   1.695  12.016
31418SOL    HW296094   0.828   1.567  12.002
31419SOL     OW96095  12.101   4.382   6.945
31419SOL    HW196096  12.023   4.435   6.962
31419SOL    HW296097  12.174   4.442   6.959
31420SOL     OW96098  11.807   9.264  13.552
31420SOL    HW196099  11.824   9.358  13.562
31420SOL    HW296100  11.876   9.223  13.605
31421SOL     OW96101   8.076  13.844   5.585
31421SOL    HW196102   7.986  13.876   5.589
31421SOL    HW296103   8.110  13.854   5.674
31422SOL     OW96104   5.623   4.636  13.569
31422SOL    HW196105   5.592   4.689  13.643
31422SOL    HW296106   5.576   4.672  13.494
31423SOL     OW96107   7.475   6.460   5.972
31423SOL    HW196108   7.402   6.400   5.964
31423SOL    HW296109   7.484   6.499   5.885
31424SOL     OW96110   1.992  13.094   3.990
31424SOL    HW196111   1.993  13.114   3.897
31424SOL    HW296112   2.027  13.172   4.032
31425SOL     OW96113   2.022  14.618   6.727
31425SOL    HW196114   1.949  14.675   6.703
31425SOL    HW296115   2.100  14.666   6.698
31426SOL     OW96116   3.360  11.972   7.538
31426SOL    HW196117   3.285  12.032   7.540
31426SOL    HW296118   3.335  11.905   7.475
31427SOL     OW96119   1.536   2.719   8.924
31427SOL    HW196120   1.561   2.811   8.923
31427SOL    HW296121   1.593   2.677   8.859
31428SOL     OW96122   1.719   7.001  10.471
31428SOL    HW196123   1.706   7.087  10.431
31428SOL    HW296124   1.714   7.018  10.565
31429SOL     OW96125   9.799   6.799   7.074
31429SOL    HW196126   9.816   6.879   7.024
31429SOL    HW296127   9.883   6.777   7.114
31430SOL     OW96128   6.371  12.245  13.774
31430SOL    HW196129   6.428  12.229  13.850
31430SOL    HW296130   6.333  12.160  13.754
31431SOL     OW96131   9.199   9.077   4.540
31431SOL    HW196132   9.292   9.069   4.516
31431SOL    HW296133   9.190   9.022   4.618
31432SOL     OW96134   7.830   0.092   3.057
31432SOL    HW196135   7.853   0.038   2.981
31432SOL    HW296136   7.776   0.035   3.112
31433SOL     OW96137  10.563  13.369   8.750
31433SOL    HW196138  10.578  13.439   8.813
31433SOL    HW296139  10.468  13.369   8.738
31434SOL     OW96140   2.981   0.012  12.138
31434SOL    HW196141   2.946  14.796  12.140
31434SOL    HW296142   3.013   0.023  12.048
31435SOL     OW96143   6.946  11.684   2.582
31435SOL    HW196144   6.976  11.766   2.541
31435SOL    HW296145   6.850  11.691   2.582
31436SOL     OW96146  14.735   3.454   4.882
31436SOL    HW196147  14.707   3.438   4.791
31436SOL    HW296148  14.726   3.548   4.893
31437SOL     OW96149  12.863  12.900  11.701
31437SOL    HW196150  12.822  12.979  11.734
31437SOL    HW296151  12.790  12.840  11.685
31438SOL     OW96152   0.082   1.621   2.534
31438SOL    HW196153   0.166   1.659   2.558
31438SOL    HW296154   0.072   1.546   2.593
31439SOL     OW96155  14.139   6.845  11.822
31439SOL    HW196156  14.230   6.817  11.820
31439SOL    HW296157  14.099   6.792  11.892
31440SOL     OW96158   5.570   0.900   4.889
31440SOL    HW196159   5.537   0.882   4.801
31440SOL    HW296160   5.525   0.836   4.945
31441SOL     OW96161   4.000   1.111   7.402
31441SOL    HW196162   4.037   1.063   7.328
31441SOL    HW296163   3.921   1.152   7.367
31442SOL     OW96164   8.259   6.907  10.139
31442SOL    HW196165   8.223   6.957  10.212
31442SOL    HW296166   8.351   6.893  10.161
31443SOL     OW96167   6.418  12.678   1.101
31443SOL    HW196168   6.379  12.758   1.065
31443SOL    HW296169   6.494  12.710   1.150
31444SOL     OW96170   7.966  11.754   2.019
31444SOL    HW196171   8.018  11.749   2.100
31444SOL    HW296172   7.995  11.679   1.968
31445SOL     OW96173   4.798  10.228   8.608
31445SOL    HW196174   4.860  10.160   8.583
31445SOL    HW296175   4.715  10.182   8.619
31446SOL     OW96176   9.736  10.845   9.470
31446SOL    HW196177   9.807  10.787   9.444
31446SOL    HW296178   9.774  10.932   9.469
31447SOL     OW96179   0.509   1.230   9.517
31447SOL    HW196180   0.596   1.229   9.559
31447SOL    HW296181   0.457   1.287   9.573
31448SOL     OW96182  11.480   1.869   6.034
31448SOL    HW196183  11.466   1.784   6.077
31448SOL    HW296184  11.467   1.851   5.941
31449SOL     OW96185  14.472  14.078   7.095
31449SOL    HW196186  14.477  14.109   7.186
31449SOL    HW296187  14.549  14.115   7.052
31450SOL     OW96188   0.273  14.024  14.634
31450SOL    HW196189   0.312  14.111  14.641
31450SOL    HW296190   0.256  14.013  14.540
31451SOL     OW96191  12.181   4.777  11.083
31451SOL    HW196192  12.130   4.792  11.163
31451SOL    HW296193  12.131   4.711  11.035
31452SOL     OW96194   2.761   6.508   4.980
31452SOL    HW196195   2.713   6.561   5.044
31452SOL    HW296196   2.697   6.488   4.912
31453SOL     OW96197   0.940   8.264   8.526
31453SOL    HW196198   0.978   8.194   8.472
31453SOL    HW296199   0.940   8.341   8.470
31454SOL     OW96200  11.769   2.322   7.188
31454SOL    HW196201  11.738   2.236   7.160
31454SOL    HW296202  11.852   2.334   7.143
31455SOL     OW96203   6.514  11.573   7.287
31455SOL    HW196204   6.487  11.550   7.375
31455SOL    HW296205   6.608  11.590   7.294
31456SOL     OW96206  11.766  10.297   7.446
31456SOL    HW196207  11.716  10.217   7.429
31456SOL    HW296208  11.701  10.367   7.444
31457SOL     OW96209   0.750  10.422  12.026
31457SOL    HW196210   0.781  10.487  12.089
31457SOL    HW296211   0.810  10.348  12.035
31458SOL     OW96212   0.739  11.839   9.100
31458SOL    HW196213   0.743  11.895   9.178
31458SOL    HW296214   0.766  11.897   9.028
31459SOL     OW96215   1.280   2.692  11.530
31459SOL    HW196216   1.299   2.610  11.486
31459SOL    HW296217   1.288   2.758  11.461
31460SOL     OW96218   8.757   8.888   2.234
31460SOL    HW196219   8.803   8.884   2.318
31460SOL    HW296220   8.702   8.967   2.241
31461SOL     OW96221   1.185  10.964   8.553
31461SOL    HW196222   1.129  11.032   8.515
31461SOL    HW296223   1.261  11.012   8.586
31462SOL     OW96224  13.182   8.160   0.629
31462SOL    HW196225  13.272   8.169   0.596
31462SOL    HW296226  13.177   8.222   0.701
31463SOL     OW96227   3.182  10.101   7.850
31463SOL    HW196228   3.207  10.123   7.939
31463SOL    HW296229   3.103  10.152   7.833
31464SOL     OW96230   1.143   6.790   4.456
31464SOL    HW196231   1.100   6.706   4.438
31464SOL    HW296232   1.226   6.765   4.498
31465SOL     OW96233   5.014   4.345   0.348
31465SOL    HW196234   4.941   4.331   0.288
31465SOL    HW296235   5.041   4.256   0.374
31466SOL     OW96236   7.502   4.696   8.612
31466SOL    HW196237   7.471   4.716   8.700
31466SOL    HW296238   7.460   4.613   8.590
31467SOL     OW96239   3.736   1.204  13.744
31467SOL    HW196240   3.825   1.242  13.746
31467SOL    HW296241   3.717   1.183  13.835
31468SOL     OW96242   1.243  13.858  10.380
31468SOL    HW196243   1.216  13.948  10.398
31468SOL    HW296244   1.309  13.839  10.448
31469SOL     OW96245  13.949   0.724   0.498
31469SOL    HW196246  13.946   0.758   0.409
31469SOL    HW296247  13.876   0.766   0.542
31470SOL     OW96248  11.736   3.397  14.399
31470SOL    HW196249  11.816   3.445  14.378
31470SOL    HW296250  11.734   3.394  14.495
31471SOL     OW96251   8.227  11.406   0.499
31471SOL    HW196252   8.135  11.398   0.523
31471SOL    HW296253   8.266  11.455   0.571
31472SOL     OW96254  10.467   9.313   9.206
31472SOL    HW196255  10.508   9.231   9.235
31472SOL    HW296256  10.537   9.359   9.160
31473SOL     OW96257   7.893  13.495  14.068
31473SOL    HW196258   7.964  13.510  14.005
31473SOL    HW296259   7.830  13.565  14.051
31474SOL     OW96260   8.217   0.231   7.452
31474SOL    HW196261   8.287   0.296   7.465
31474SOL    HW296262   8.263   0.150   7.432
31475SOL     OW96263   5.843  10.121   4.259
31475SOL    HW196264   5.886  10.157   4.182
31475SOL    HW296265   5.768  10.073   4.225
31476SOL     OW96266   0.975   0.362  13.323
31476SOL    HW196267   0.889   0.391  13.352
31476SOL    HW296268   1.037   0.408  13.380
31477SOL     OW96269   9.675  14.695   1.803
31477SOL    HW196270   9.590  14.669   1.840
31477SOL    HW296271   9.737  14.684   1.875
31478SOL     OW96272  10.828  10.080  10.189
31478SOL    HW196273  10.761  10.060  10.254
31478SOL    HW296274  10.875   9.997  10.177
31479SOL     OW96275   8.108   9.022  13.386
31479SOL    HW196276   8.163   8.945  13.399
31479SOL    HW296277   8.042   8.993  13.322
31480SOL     OW96278   9.088   8.850   2.385
31480SOL    HW196279   9.157   8.829   2.322
31480SOL    HW296280   9.030   8.775   2.383
31481SOL     OW96281  11.180  11.732   2.708
31481SOL    HW196282  11.253  11.725   2.647
31481SOL    HW296283  11.133  11.811   2.679
31482SOL     OW96284   0.542   2.320   8.945
31482SOL    HW196285   0.616   2.274   8.904
31482SOL    HW296286   0.486   2.345   8.871
31483SOL     OW96287   0.929   3.467   6.990
31483SOL    HW196288   0.925   3.407   6.916
31483SOL    HW296289   0.851   3.523   6.981
31484SOL     OW96290   5.416   5.793  11.525
31484SOL    HW196291   5.494   5.761  11.570
31484SOL    HW296292   5.376   5.855  11.586
31485SOL     OW96293  14.213  12.301  13.575
31485SOL    HW196294  14.254  12.223  13.614
31485SOL    HW296295  14.283  12.344  13.528
31486SOL     OW96296  11.941   7.897   3.873
31486SOL    HW196297  12.035   7.878   3.877
31486SOL    HW296298  11.922   7.938   3.958
31487SOL     OW96299  13.625  14.685   9.280
31487SOL    HW196300  13.554  14.744   9.255
31487SOL    HW296301  13.678  14.736   9.341
31488SOL     OW96302   6.880  10.876  12.960
31488SOL    HW196303   6.919  10.944  13.015
31488SOL    HW296304   6.879  10.798  13.016
31489SOL     OW96305  14.098  10.101  12.343
31489SOL    HW196306  14.064  10.169  12.285
31489SOL    HW296307  14.094  10.021  12.292
31490SOL     OW96308   3.482   8.794   1.933
31490SOL    HW196309   3.475   8.809   2.027
31490SOL    HW296310   3.573   8.767   1.920
31491SOL     OW96311   4.902  12.931   2.264
31491SOL    HW196312   4.869  12.859   2.317
31491SOL    HW296313   4.857  12.922   2.180
31492SOL     OW96314   8.552   0.143  13.918
31492SOL    HW196315   8.624   0.107  13.970
31492SOL    HW296316   8.492   0.180  13.983
31493SOL     OW96317   3.651   1.776   7.265
31493SOL    HW196318   3.651   1.787   7.169
31493SOL    HW296319   3.564   1.742   7.285
31494SOL     OW96320  12.277   9.160   2.982
31494SOL    HW196321  12.231   9.083   3.016
31494SOL    HW296322  12.352   9.124   2.935
31495SOL     OW96323   8.882   0.017   8.912
31495SOL    HW196324   8.847   0.047   8.996
31495SOL    HW296325   8.953   0.078   8.892
31496SOL     OW96326  12.969  11.693   2.444
31496SOL    HW196327  13.012  11.765   2.490
31496SOL    HW296328  13.037  11.659   2.385
31497SOL     OW96329  11.178   3.915   9.276
31497SOL    HW196330  11.208   3.997   9.237
31497SOL    HW296331  11.185   3.851   9.205
31498SOL     OW96332   0.375   5.536   9.480
31498SOL    HW196333   0.330   5.467   9.430
31498SOL    HW296334   0.467   5.510   9.481
31499SOL     OW96335   2.275   4.580   4.536
31499SOL    HW196336   2.271   4.597   4.630
31499SOL    HW296337   2.291   4.486   4.530
31500SOL     OW96338   9.728   4.713   3.271
31500SOL    HW196339   9.742   4.791   3.217
31500SOL    HW296340   9.635   4.693   3.261
31501SOL     OW96341   9.325  10.554   8.319
31501SOL    HW196342   9.368  10.475   8.286
31501SOL    HW296343   9.380  10.582   8.392
31502SOL     OW96344  10.635  10.970   2.768
31502SOL    HW196345  10.562  10.937   2.821
31502SOL    HW296346  10.706  10.983   2.830
31503SOL     OW96347  14.503  14.510   2.797
31503SOL    HW196348  14.518  14.445   2.729
31503SOL    HW296349  14.581  14.565   2.796
31504SOL     OW96350  10.764   7.984   9.539
31504SOL    HW196351  10.733   8.025   9.459
31504SOL    HW296352  10.743   7.891   9.528
31505SOL     OW96353   0.720   9.154   4.856
31505SOL    HW196354   0.810   9.123   4.862
31505SOL    HW296355   0.697   9.142   4.764
31506SOL     OW96356  13.838   0.310  12.581
31506SOL    HW196357  13.770   0.366  12.542
31506SOL    HW296358  13.894   0.372  12.628
31507SOL     OW96359   9.819  10.199  11.520
31507SOL    HW196360   9.763  10.273  11.545
31507SOL    HW296361   9.908  10.232  11.529
31508SOL     OW96362   6.347   8.199   9.874
31508SOL    HW196363   6.377   8.285   9.843
31508SOL    HW296364   6.418   8.139   9.851
31509SOL     OW96365   2.622   5.451   9.087
31509SOL    HW196366   2.697   5.510   9.081
31509SOL    HW296367   2.619   5.426   9.180
31510SOL     OW96368   9.025  11.076   4.599
31510SOL    HW196369   9.002  10.985   4.618
31510SOL    HW296370   8.941  11.117   4.578
31511SOL     OW96371   6.851   5.620  13.384
31511SOL    HW196372   6.946   5.607  13.384
31511SOL    HW296373   6.838   5.705  13.341
31512SOL     OW96374   4.301   6.202  11.116
31512SOL    HW196375   4.257   6.287  11.110
31512SOL    HW296376   4.292   6.176  11.207
31513SOL     OW96377  12.811   2.896  10.905
31513SOL    HW196378  12.860   2.976  10.887
31513SOL    HW296379  12.729   2.906  10.857
31514SOL     OW96380   3.792   9.270  13.660
31514SOL    HW196381   3.749   9.185  13.667
31514SOL    HW296382   3.871   9.262  13.714
31515SOL     OW96383   5.212   8.407   2.549
31515SOL    HW196384   5.288   8.384   2.603
31515SOL    HW296385   5.150   8.336   2.565
31516SOL     OW96386   3.944  10.687  10.885
31516SOL    HW196387   3.887  10.661  10.813
31516SOL    HW296388   3.884  10.699  10.959
31517SOL     OW96389   7.251   9.496  12.968
31517SOL    HW196390   7.218   9.483  12.879
31517SOL    HW296391   7.221   9.584  12.992
31518SOL     OW96392   3.117   3.883   0.619
31518SOL    HW196393   3.189   3.838   0.574
31518SOL    HW296394   3.114   3.842   0.705
31519SOL     OW96395  11.850   3.402   3.374
31519SOL    HW196396  11.758   3.420   3.394
31519SOL    HW296397  11.880   3.479   3.326
31520SOL     OW96398   9.387   0.079   8.224
31520SOL    HW196399   9.324   0.029   8.172
31520SOL    HW296400   9.367   0.171   8.203
31521SOL     OW96401  13.508  11.471   5.878
31521SOL    HW196402  13.567  11.395   5.882
31521SOL    HW296403  13.516  11.503   5.788
31522SOL     OW96404  12.127   1.364   7.222
31522SOL    HW196405  12.197   1.376   7.286
31522SOL    HW296406  12.099   1.274   7.233
31523SOL     OW96407   6.189   2.763   4.076
31523SOL    HW196408   6.171   2.721   4.160
31523SOL    HW296409   6.104   2.769   4.033
31524SOL     OW96410   7.460   8.687   4.317
31524SOL    HW196411   7.499   8.600   4.316
31524SOL    HW296412   7.367   8.672   4.337
31525SOL     OW96413   0.277   9.992   6.102
31525SOL    HW196414   0.341  10.063   6.102
31525SOL    HW296415   0.232  10.001   6.017
31526SOL     OW96416  12.111   4.187   7.950
31526SOL    HW196417  12.020   4.178   7.979
31526SOL    HW296418  12.109   4.254   7.882
31527SOL     OW96419   9.761  10.197   9.449
31527SOL    HW196420   9.791  10.271   9.501
31527SOL    HW296421   9.689  10.232   9.397
31528SOL     OW96422   2.028   9.350   5.382
31528SOL    HW196423   2.021   9.289   5.308
31528SOL    HW296424   1.979   9.427   5.354
31529SOL     OW96425   6.414  11.332   4.645
31529SOL    HW196426   6.387  11.421   4.669
31529SOL    HW296427   6.375  11.276   4.712
31530SOL     OW96428  10.876   0.867   7.282
31530SOL    HW196429  10.910   0.930   7.347
31530SOL    HW296430  10.801   0.827   7.326
31531SOL     OW96431   0.910   4.128  11.542
31531SOL    HW196432   0.913   4.067  11.616
31531SOL    HW296433   0.879   4.210  11.580
31532SOL     OW96434   4.571   0.219  11.623
31532SOL    HW196435   4.605   0.307  11.634
31532SOL    HW296436   4.486   0.231  11.579
31533SOL     OW96437   8.672   5.939   9.666
31533SOL    HW196438   8.577   5.929   9.656
31533SOL    HW296439   8.682   5.995   9.743
31534SOL     OW96440  12.306   0.910  13.628
31534SOL    HW196441  12.219   0.900  13.591
31534SOL    HW296442  12.308   0.851  13.703
31535SOL     OW96443   6.923  12.088   6.218
31535SOL    HW196444   6.878  12.080   6.134
31535SOL    HW296445   7.016  12.090   6.196
31536SOL     OW96446   8.819   9.249  12.655
31536SOL    HW196447   8.906   9.239  12.617
31536SOL    HW296448   8.824   9.329  12.707
31537SOL     OW96449  13.230   3.687  13.360
31537SOL    HW196450  13.184   3.704  13.278
31537SOL    HW296451  13.308   3.639  13.334
31538SOL     OW96452   8.592   2.470   4.188
31538SOL    HW196453   8.570   2.534   4.120
31538SOL    HW296454   8.528   2.485   4.257
31539SOL     OW96455   7.051   7.724   4.038
31539SOL    HW196456   7.143   7.751   4.046
31539SOL    HW296457   7.012   7.790   3.980
31540SOL     OW96458   7.400   1.804   6.464
31540SOL    HW196459   7.421   1.715   6.491
31540SOL    HW296460   7.416   1.806   6.370
31541SOL     OW96461  11.780   7.234   9.837
31541SOL    HW196462  11.835   7.291   9.784
31541SOL    HW296463  11.697   7.282   9.847
31542SOL     OW96464  10.656  14.433   7.796
31542SOL    HW196465  10.631  14.524   7.804
31542SOL    HW296466  10.709  14.415   7.874
31543SOL     OW96467   1.302  13.580  12.190
31543SOL    HW196468   1.372  13.636  12.156
31543SOL    HW296469   1.276  13.526  12.116
31544SOL     OW96470  12.075   0.927  13.461
31544SOL    HW196471  12.000   0.966  13.507
31544SOL    HW296472  12.038   0.894  13.379
31545SOL     OW96473   0.065  11.679   3.686
31545SOL    HW196474   0.135  11.635   3.638
31545SOL    HW296475  14.859  11.632   3.661
31546SOL     OW96476   3.360   3.709   9.056
31546SOL    HW196477   3.427   3.740   8.995
31546SOL    HW296478   3.384   3.749   9.140
31547SOL     OW96479   3.412  14.270   5.714
31547SOL    HW196480   3.427  14.335   5.645
31547SOL    HW296481   3.458  14.192   5.684
31548SOL     OW96482  13.174  11.200   9.576
31548SOL    HW196483  13.221  11.236   9.651
31548SOL    HW296484  13.238  11.203   9.505
31549SOL     OW96485   8.942  13.556   2.712
31549SOL    HW196486   8.993  13.489   2.666
31549SOL    HW296487   8.872  13.508   2.756
31550SOL     OW96488   5.171  13.170   3.505
31550SOL    HW196489   5.235  13.106   3.535
31550SOL    HW296490   5.123  13.125   3.435
31551SOL     OW96491  11.465   3.066   6.920
31551SOL    HW196492  11.534   3.091   6.982
31551SOL    HW296493  11.491   3.106   6.837
31552SOL     OW96494   9.040   2.363  14.066
31552SOL    HW196495   9.048   2.279  14.111
31552SOL    HW296496   9.130   2.393  14.055
31553SOL     OW96497  11.432   0.525   0.483
31553SOL    HW196498  11.348   0.481   0.497
31553SOL    HW296499  11.435   0.541   0.388
31554SOL     OW96500   3.541   8.147   5.464
31554SOL    HW196501   3.535   8.225   5.409
31554SOL    HW296502   3.604   8.091   5.421
31555SOL     OW96503   4.752   8.585  11.020
31555SOL    HW196504   4.817   8.532  10.973
31555SOL    HW296505   4.711   8.638  10.952
31556SOL     OW96506   7.952   8.492  10.395
31556SOL    HW196507   7.957   8.529  10.306
31556SOL    HW296508   8.041   8.464  10.414
31557SOL     OW96509   5.894   5.814  10.338
31557SOL    HW196510   5.849   5.733  10.361
31557SOL    HW296511   5.866   5.833  10.249
31558SOL     OW96512  10.999  10.240  11.496
31558SOL    HW196513  10.962  10.152  11.495
31558SOL    HW296514  10.931  10.295  11.458
31559SOL     OW96515   4.699  11.197  10.615
31559SOL    HW196516   4.640  11.161  10.549
31559SOL    HW296517   4.660  11.281  10.638
31560SOL     OW96518   5.753   1.607  12.261
31560SOL    HW196519   5.763   1.683  12.319
31560SOL    HW296520   5.660   1.609  12.236
31561SOL     OW96521  10.880   2.460  14.364
31561SOL    HW196522  10.804   2.485  14.416
31561SOL    HW296523  10.919   2.543  14.336
31562SOL     OW96524   9.624  14.743   1.553
31562SOL    HW196525   9.699  14.717   1.500
31562SOL    HW296526   9.646  14.715   1.642
31563SOL     OW96527   1.308   6.364  14.539
31563SOL    HW196528   1.403   6.360  14.529
31563SOL    HW296529   1.277   6.397  14.455
31564SOL     OW96530  10.630  10.140   7.622
31564SOL    HW196531  10.672  10.201   7.682
31564SOL    HW296532  10.695  10.071   7.608
31565SOL     OW96533  14.843  11.140   2.077
31565SOL    HW196534  14.763  11.191   2.079
31565SOL    HW296535   0.005  11.148   2.166
31566SOL     OW96536   7.178  12.382   9.434
31566SOL    HW196537   7.085  12.390   9.457
31566SOL    HW296538   7.218  12.460   9.471
31567SOL     OW96539   4.305  10.782   2.255
31567SOL    HW196540   4.396  10.768   2.230
31567SOL    HW296541   4.284  10.709   2.313
31568SOL     OW96542   8.957   8.011  14.665
31568SOL    HW196543   8.955   8.074  14.593
31568SOL    HW296544   8.865   7.991  14.682
31569SOL     OW96545  12.408   3.805  11.373
31569SOL    HW196546  12.485   3.749  11.379
31569SOL    HW296547  12.375   3.790  11.285
31570SOL     OW96548  12.931  12.258  11.173
31570SOL    HW196549  12.879  12.337  11.161
31570SOL    HW296550  12.954  12.258  11.266
31571SOL     OW96551   5.721   8.481   2.321
31571SOL    HW196552   5.808   8.442   2.335
31571SOL    HW296553   5.737   8.556   2.264
31572SOL     OW96554   9.811   3.161   5.388
31572SOL    HW196555   9.716   3.150   5.393
31572SOL    HW296556   9.844   3.115   5.465
31573SOL     OW96557   7.765  12.883  10.245
31573SOL    HW196558   7.713  12.947  10.198
31573SOL    HW296559   7.795  12.821  10.178
31574SOL     OW96560  14.490   6.931  12.879
31574SOL    HW196561  14.400   6.934  12.847
31574SOL    HW296562  14.540   6.896  12.806
31575SOL     OW96563   3.325  11.496  12.407
31575SOL    HW196564   3.415  11.475  12.430
31575SOL    HW296565   3.331  11.576  12.355
31576SOL     OW96566  10.198  11.401   5.994
31576SOL    HW196567  10.250  11.321   6.002
31576SOL    HW296568  10.125  11.377   5.937
31577SOL     OW96569   6.386   2.275   3.719
31577SOL    HW196570   6.445   2.211   3.680
31577SOL    HW296571   6.433   2.308   3.795
31578SOL     OW96572   3.757   1.115   4.382
31578SOL    HW196573   3.694   1.150   4.318
31578SOL    HW296574   3.842   1.146   4.351
31579SOL     OW96575   0.662   2.936   4.937
31579SOL    HW196576   0.746   2.915   4.896
31579SOL    HW296577   0.611   2.978   4.868
31580SOL     OW96578   1.985   3.561  10.082
31580SOL    HW196579   1.943   3.536  10.165
31580SOL    HW296580   2.019   3.478  10.048
31581SOL     OW96581  11.692   7.199   8.393
31581SOL    HW196582  11.706   7.164   8.481
31581SOL    HW296583  11.635   7.135   8.351
31582SOL     OW96584  11.898   3.909  13.939
31582SOL    HW196585  11.845   3.848  13.887
31582SOL    HW296586  11.848   3.919  14.020
31583SOL     OW96587   7.828  14.315   9.442
31583SOL    HW196588   7.921  14.338   9.431
31583SOL    HW296589   7.790  14.327   9.355
31584SOL     OW96590   2.593  14.038   3.453
31584SOL    HW196591   2.649  14.084   3.391
31584SOL    HW296592   2.532  13.988   3.399
31585SOL     OW96593  12.924  10.472  13.651
31585SOL    HW196594  12.901  10.402  13.712
31585SOL    HW296595  13.016  10.455  13.630
31586SOL     OW96596   3.756   9.257   2.346
31586SOL    HW196597   3.849   9.262   2.323
31586SOL    HW296598   3.719   9.338   2.312
31587SOL     OW96599   4.263  13.166   8.380
31587SOL    HW196600   4.357  13.170   8.399
31587SOL    HW296601   4.256  13.191   8.288
31588SOL     OW96602   3.069   9.824  10.775
31588SOL    HW196603   3.077   9.776  10.857
31588SOL    HW296604   3.000   9.778  10.726
31589SOL     OW96605   7.768   6.265   8.691
31589SOL    HW196606   7.854   6.307   8.679
31589SOL    HW296607   7.732   6.308   8.768
31590SOL     OW96608   4.281  14.010   0.503
31590SOL    HW196609   4.295  13.921   0.470
31590SOL    HW296610   4.361  14.032   0.550
31591SOL     OW96611   0.914   7.935   8.836
31591SOL    HW196612   0.871   8.015   8.867
31591SOL    HW296613   0.999   7.965   8.803
31592SOL     OW96614   9.067   9.957  11.850
31592SOL    HW196615   9.137   9.954  11.785
31592SOL    HW296616   8.999  10.012  11.810
31593SOL     OW96617   6.652   6.835   9.883
31593SOL    HW196618   6.634   6.888   9.960
31593SOL    HW296619   6.746   6.849   9.866
31594SOL     OW96620  10.197  13.753   1.975
31594SOL    HW196621  10.291  13.758   1.954
31594SOL    HW296622  10.193  13.701   2.054
31595SOL     OW96623   2.458   9.061  11.745
31595SOL    HW196624   2.402   9.072  11.668
31595SOL    HW296625   2.443   8.971  11.774
31596SOL     OW96626  13.925  12.932   4.127
31596SOL    HW196627  14.000  12.898   4.176
31596SOL    HW296628  13.934  13.027   4.130
31597SOL     OW96629   6.043  13.239  12.480
31597SOL    HW196630   6.054  13.180  12.555
31597SOL    HW296631   6.067  13.185  12.405
31598SOL     OW96632  12.192  14.551   7.707
31598SOL    HW196633  12.140  14.553   7.787
31598SOL    HW296634  12.170  14.468   7.665
31599SOL     OW96635   9.882   0.076   7.704
31599SOL    HW196636   9.790   0.102   7.694
31599SOL    HW296637   9.914   0.127   7.778
31600SOL     OW96638   4.081   3.569  10.612
31600SOL    HW196639   4.077   3.653  10.658
31600SOL    HW296640   4.156   3.525  10.651
31601SOL     OW96641   1.911  11.921   7.912
31601SOL    HW196642   1.888  11.828   7.919
31601SOL    HW296643   1.946  11.943   7.999
31602SOL     OW96644   2.220   7.480   0.768
31602SOL    HW196645   2.313   7.499   0.780
31602SOL    HW296646   2.211   7.387   0.789
31603SOL     OW96647   1.155  11.127  14.824
31603SOL    HW196648   1.090  11.061  14.847
31603SOL    HW296649   1.127  11.205  14.871
31604SOL     OW96650   0.563  11.698  11.575
31604SOL    HW196651   0.560  11.603  11.577
31604SOL    HW296652   0.593  11.723  11.662
31605SOL     OW96653   4.632   8.631   2.188
31605SOL    HW196654   4.616   8.721   2.158
31605SOL    HW296655   4.700   8.640   2.254
31606SOL     OW96656  12.560   2.744   4.805
31606SOL    HW196657  12.518   2.800   4.739
31606SOL    HW296658  12.496   2.675   4.821
31607SOL     OW96659   7.339  14.160   4.270
31607SOL    HW196660   7.413  14.154   4.209
31607SOL    HW296661   7.290  14.237   4.241
31608SOL     OW96662  14.547   9.703   1.163
31608SOL    HW196663  14.477   9.704   1.229
31608SOL    HW296664  14.500   9.708   1.080
31609SOL     OW96665   4.671   2.111   5.775
31609SOL    HW196666   4.597   2.105   5.836
31609SOL    HW296667   4.668   2.030   5.725
31610SOL     OW96668  11.613   9.051  14.837
31610SOL    HW196669  11.552   8.980  14.856
31610SOL    HW296670  11.644   9.033  14.749
31611SOL     OW96671   5.954  10.908   2.238
31611SOL    HW196672   5.860  10.907   2.258
31611SOL    HW296673   5.997  10.900   2.323
31612SOL     OW96674  14.580  14.621   0.717
31612SOL    HW196675  14.515  14.690   0.729
31612SOL    HW296676  14.600  14.622   0.623
31613SOL     OW96677  10.218   9.465   9.371
31613SOL    HW196678  10.303   9.423   9.358
31613SOL    HW296679  10.190   9.490   9.283
31614SOL     OW96680  10.753   7.084   6.695
31614SOL    HW196681  10.798   7.046   6.620
31614SOL    HW296682  10.759   7.179   6.682
31615SOL     OW96683   2.497   5.093   1.207
31615SOL    HW196684   2.581   5.130   1.235
31615SOL    HW296685   2.440   5.170   1.195
31616SOL     OW96686  10.272   3.630  14.725
31616SOL    HW196687  10.217   3.577  14.783
31616SOL    HW296688  10.286   3.575  14.648
31617SOL     OW96689   4.860   0.431   2.714
31617SOL    HW196690   4.880   0.370   2.643
31617SOL    HW296691   4.768   0.417   2.733
31618SOL     OW96692   7.403   3.558   0.080
31618SOL    HW196693   7.380   3.640   0.036
31618SOL    HW296694   7.379   3.572   0.171
31619SOL     OW96695   5.324  10.620  12.133
31619SOL    HW196696   5.378  10.599  12.056
31619SOL    HW296697   5.241  10.650  12.096
31620SOL     OW96698   5.553   2.948   8.067
31620SOL    HW196699   5.572   3.015   8.133
31620SOL    HW296700   5.573   2.865   8.111
31621SOL     OW96701   5.455   9.445  10.643
31621SOL    HW196702   5.421   9.495  10.717
31621SOL    HW296703   5.496   9.368  10.682
31622SOL     OW96704   2.740  11.580  11.467
31622SOL    HW196705   2.775  11.512  11.524
31622SOL    HW296706   2.734  11.538  11.381
31623SOL     OW96707   9.787   7.678  10.756
31623SOL    HW196708   9.874   7.661  10.720
31623SOL    HW296709   9.728   7.666  10.681
31624SOL     OW96710   7.505  12.905  10.873
31624SOL    HW196711   7.581  12.948  10.913
31624SOL    HW296712   7.519  12.812  10.890
31625SOL     OW96713  11.850   2.394  13.000
31625SOL    HW196714  11.813   2.414  13.086
31625SOL    HW296715  11.942   2.372  13.018
31626SOL     OW96716   8.716   0.914   6.278
31626SOL    HW196717   8.667   0.926   6.359
31626SOL    HW296718   8.792   0.972   6.287
31627SOL     OW96719   5.836  10.761   8.639
31627SOL    HW196720   5.878  10.810   8.710
31627SOL    HW296721   5.745  10.753   8.666
31628SOL     OW96722   9.865   2.546  12.926
31628SOL    HW196723   9.895   2.455  12.932
31628SOL    HW296724   9.869   2.578  13.016
31629SOL     OW96725   1.898   4.659   7.332
31629SOL    HW196726   1.847   4.740   7.331
31629SOL    HW296727   1.875   4.615   7.250
31630SOL     OW96728  11.322   5.687   6.838
31630SOL    HW196729  11.318   5.696   6.743
31630SOL    HW296730  11.297   5.773   6.872
31631SOL     OW96731   3.090   9.984   5.805
31631SOL    HW196732   3.049   9.950   5.884
31631SOL    HW296733   3.018   9.989   5.742
31632SOL     OW96734   5.225   8.453   7.779
31632SOL    HW196735   5.170   8.393   7.831
31632SOL    HW296736   5.310   8.450   7.823
31633SOL     OW96737   7.295   8.066   5.102
31633SOL    HW196738   7.388   8.047   5.113
31633SOL    HW296739   7.292   8.126   5.027
31634SOL     OW96740   4.612   3.344   2.165
31634SOL    HW196741   4.610   3.280   2.236
31634SOL    HW296742   4.583   3.295   2.088
31635SOL     OW96743  11.932   2.873  12.022
31635SOL    HW196744  11.918   2.909  11.935
31635SOL    HW296745  12.016   2.911  12.050
31636SOL     OW96746  11.128   7.079  14.722
31636SOL    HW196747  11.133   7.169  14.756
31636SOL    HW296748  11.122   7.025  14.801
31637SOL     OW96749  13.944   8.763   3.859
31637SOL    HW196750  13.899   8.841   3.827
31637SOL    HW296751  14.015   8.798   3.913
31638SOL     OW96752   5.984   7.700   4.655
31638SOL    HW196753   6.002   7.751   4.576
31638SOL    HW296754   6.067   7.697   4.701
31639SOL     OW96755   0.010   9.125  12.569
31639SOL    HW196756  14.830   9.098  12.644
31639SOL    HW296757   0.055   9.045  12.541
31640SOL     OW96758  13.795   7.000   7.287
31640SOL    HW196759  13.771   6.912   7.313
31640SOL    HW296760  13.881   7.015   7.326
31641SOL     OW96761   6.675   6.053  10.740
31641SOL    HW196762   6.721   6.128  10.700
31641SOL    HW296763   6.732   6.027  10.812
31642SOL     OW96764   7.701  11.172   6.283
31642SOL    HW196765   7.708  11.077   6.284
31642SOL    HW296766   7.714  11.198   6.374
31643SOL     OW96767   0.889  11.304  11.844
31643SOL    HW196768   0.905  11.288  11.751
31643SOL    HW296769   0.817  11.367  11.846
31644SOL     OW96770  11.825   9.875   2.430
31644SOL    HW196771  11.799   9.893   2.520
31644SOL    HW296772  11.748   9.900   2.378
31645SOL     OW96773  11.465  10.722   8.692
31645SOL    HW196774  11.476  10.747   8.600
31645SOL    HW296775  11.458  10.627   8.690
31646SOL     OW96776  11.991  13.593  13.802
31646SOL    HW196777  11.933  13.553  13.867
31646SOL    HW296778  12.076  13.553  13.819
31647SOL     OW96779   8.345   1.767   8.175
31647SOL    HW196780   8.322   1.832   8.242
31647SOL    HW296781   8.262   1.734   8.143
31648SOL     OW96782  10.162   2.093   4.163
31648SOL    HW196783  10.229   2.026   4.178
31648SOL    HW296784  10.087   2.044   4.128
31649SOL     OW96785   7.321   7.727   6.872
31649SOL    HW196786   7.383   7.655   6.858
31649SOL    HW296787   7.315   7.735   6.968
31650SOL     OW96788   9.006  13.069  11.073
31650SOL    HW196789   9.052  12.986  11.091
31650SOL    HW296790   9.055  13.134  11.123
31651SOL     OW96791   4.548   0.478   1.311
31651SOL    HW196792   4.459   0.442   1.309
31651SOL    HW296793   4.547   0.539   1.385
31652SOL     OW96794   4.520   4.436  14.714
31652SOL    HW196795   4.459   4.488  14.661
31652SOL    HW296796   4.463   4.384  14.772
31653SOL     OW96797  14.608  12.807   5.069
31653SOL    HW196798  14.522  12.805   5.110
31653SOL    HW296799  14.609  12.730   5.012
31654SOL     OW96800   8.242   7.579  13.726
31654SOL    HW196801   8.292   7.531  13.661
31654SOL    HW296802   8.177   7.516  13.759
31655SOL     OW96803   9.676   8.616  10.999
31655SOL    HW196804   9.633   8.558  11.062
31655SOL    HW296805   9.752   8.650  11.045
31656SOL     OW96806   4.610   7.884   0.790
31656SOL    HW196807   4.606   7.979   0.793
31656SOL    HW296808   4.537   7.855   0.845
31657SOL     OW96809   8.828   1.028   6.650
31657SOL    HW196810   8.882   0.950   6.645
31657SOL    HW296811   8.839   1.059   6.741
31658SOL     OW96812   6.606   9.511  10.562
31658SOL    HW196813   6.604   9.487  10.655
31658SOL    HW296814   6.699   9.506  10.538
31659SOL     OW96815  13.642   3.703   9.210
31659SOL    HW196816  13.703   3.765   9.251
31659SOL    HW296817  13.584   3.757   9.157
31660SOL     OW96818   3.417   8.218   8.379
31660SOL    HW196819   3.482   8.175   8.323
31660SOL    HW296820   3.454   8.215   8.467
31661SOL     OW96821   5.297   3.815  11.430
31661SOL    HW196822   5.281   3.726  11.399
31661SOL    HW296823   5.231   3.829  11.498
31662SOL     OW96824   1.416   0.550  10.813
31662SOL    HW196825   1.343   0.506  10.768
31662SOL    HW296826   1.488   0.548  10.750
31663SOL     OW96827  13.432  10.547   5.808
31663SOL    HW196828  13.356  10.577   5.758
31663SOL    HW296829  13.406  10.555   5.900
31664SOL     OW96830   8.542  13.147   6.865
31664SOL    HW196831   8.534  13.194   6.782
31664SOL    HW296832   8.456  13.108   6.880
31665SOL     OW96833  13.894  14.200   0.174
31665SOL    HW196834  13.875  14.221   0.265
31665SOL    HW296835  13.808  14.202   0.131
31666SOL     OW96836   5.341   4.145   3.741
31666SOL    HW196837   5.305   4.169   3.826
31666SOL    HW296838   5.282   4.185   3.677
31667SOL     OW96839   9.580  14.393   1.833
31667SOL    HW196840   9.658  14.338   1.843
31667SOL    HW296841   9.597  14.444   1.753
31668SOL     OW96842   4.774   2.236   6.816
31668SOL    HW196843   4.840   2.181   6.775
31668SOL    HW296844   4.787   2.323   6.778
31669SOL     OW96845   4.407  10.733  13.665
31669SOL    HW196846   4.377  10.643  13.676
31669SOL    HW296847   4.418  10.744  13.571
31670SOL     OW96848   0.878   8.055   2.450
31670SOL    HW196849   0.838   8.097   2.373
31670SOL    HW296850   0.937   7.989   2.413
31671SOL     OW96851  11.730   6.133   2.843
31671SOL    HW196852  11.791   6.064   2.814
31671SOL    HW296853  11.670   6.087   2.902
31672SOL     OW96854   9.131   3.072   1.830
31672SOL    HW196855   9.140   3.160   1.794
31672SOL    HW296856   9.061   3.080   1.894
31673SOL     OW96857   0.163   1.704   5.264
31673SOL    HW196858   0.155   1.799   5.274
31673SOL    HW296859   0.218   1.692   5.188
31674SOL     OW96860   5.013   0.450   6.452
31674SOL    HW196861   5.057   0.417   6.374
31674SOL    HW296862   5.078   0.438   6.522
31675SOL     OW96863   4.377  11.267  13.616
31675SOL    HW196864   4.427  11.246  13.695
31675SOL    HW296865   4.342  11.354  13.631
31676SOL     OW96866  11.500  12.188  12.048
31676SOL    HW196867  11.556  12.110  12.049
31676SOL    HW296868  11.499  12.218  12.139
31677SOL     OW96869   4.765   1.041  10.070
31677SOL    HW196870   4.744   0.951  10.094
31677SOL    HW296871   4.700   1.094  10.117
31678SOL     OW96872  13.186   6.647  11.504
31678SOL    HW196873  13.154   6.596  11.578
31678SOL    HW296874  13.281   6.645  11.512
31679SOL     OW96875   0.927   1.618  11.272
31679SOL    HW196876   0.924   1.531  11.312
31679SOL    HW296877   0.850   1.663  11.308
31680SOL     OW96878   8.770   3.291   3.529
31680SOL    HW196879   8.851   3.265   3.573
31680SOL    HW296880   8.787   3.273   3.436
31681SOL     OW96881   6.070   0.114   3.706
31681SOL    HW196882   6.091   0.202   3.738
31681SOL    HW296883   6.026   0.072   3.780
31682SOL     OW96884  13.260   7.172   2.455
31682SOL    HW196885  13.218   7.132   2.379
31682SOL    HW296886  13.272   7.100   2.516
31683SOL     OW96887   1.909   2.045  11.290
31683SOL    HW196888   1.938   1.968  11.241
31683SOL    HW296889   1.885   2.109  11.223
31684SOL     OW96890   2.715   2.629   8.423
31684SOL    HW196891   2.799   2.588   8.439
31684SOL    HW296892   2.736   2.721   8.405
31685SOL     OW96893  12.809  14.721   5.071
31685SOL    HW196894  12.722  14.681   5.069
31685SOL    HW296895  12.792  14.815   5.072
31686SOL     OW96896  10.396   4.357   7.756
31686SOL    HW196897  10.439   4.425   7.703
31686SOL    HW296898  10.436   4.275   7.726
31687SOL     OW96899  10.376  10.135  12.244
31687SOL    HW196900  10.362  10.051  12.287
31687SOL    HW296901  10.419  10.189  12.311
31688SOL     OW96902  10.436   3.802   9.550
31688SOL    HW196903  10.465   3.758   9.630
31688SOL    HW296904  10.430   3.732   9.485
31689SOL     OW96905  12.439   8.163   1.312
31689SOL    HW196906  12.524   8.178   1.270
31689SOL    HW296907  12.423   8.243   1.362
31690SOL     OW96908   2.277   8.103   4.647
31690SOL    HW196909   2.366   8.111   4.612
31690SOL    HW296910   2.230   8.051   4.581
31691SOL     OW96911  14.652   4.910   5.328
31691SOL    HW196912  14.720   4.844   5.311
31691SOL    HW296913  14.624   4.892   5.418
31692SOL     OW96914   6.496  10.288  13.010
31692SOL    HW196915   6.488  10.370  12.961
31692SOL    HW296916   6.591  10.274  13.018
31693SOL     OW96917   0.829  13.108  11.105
31693SOL    HW196918   0.831  13.198  11.140
31693SOL    HW296919   0.872  13.055  11.173
31694SOL     OW96920  11.214   2.599   9.419
31694SOL    HW196921  11.299   2.637   9.398
31694SOL    HW296922  11.167   2.597   9.336
31695SOL     OW96923   2.876  11.435   5.353
31695SOL    HW196924   2.896  11.484   5.433
31695SOL    HW296925   2.905  11.493   5.282
31696SOL     OW96926   1.956   1.134   8.497
31696SOL    HW196927   1.882   1.133   8.436
31696SOL    HW296928   2.006   1.056   8.475
31697SOL     OW96929  10.077   5.191   9.711
31697SOL    HW196930  10.074   5.111   9.764
31697SOL    HW296931  10.150   5.176   9.650
31698SOL     OW96932   2.197  14.161   7.684
31698SOL    HW196933   2.249  14.086   7.657
31698SOL    HW296934   2.116  14.123   7.720
31699SOL     OW96935  10.640   9.185  11.346
31699SOL    HW196936  10.578   9.185  11.419
31699SOL    HW296937  10.673   9.095  11.343
31700SOL     OW96938   8.487  10.229   8.763
31700SOL    HW196939   8.494  10.292   8.834
31700SOL    HW296940   8.541  10.155   8.791
31701SOL     OW96941   2.343   4.380   1.432
31701SOL    HW196942   2.326   4.383   1.526
31701SOL    HW296943   2.439   4.386   1.425
31702SOL     OW96944   4.014  12.006   9.468
31702SOL    HW196945   4.017  11.975   9.378
31702SOL    HW296946   3.960  12.085   9.464
31703SOL     OW96947   6.768   3.916   0.547
31703SOL    HW196948   6.854   3.903   0.508
31703SOL    HW296949   6.722   3.833   0.531
31704SOL     OW96950   0.583  10.099   6.872
31704SOL    HW196951   0.658  10.124   6.817
31704SOL    HW296952   0.508  10.101   6.813
31705SOL     OW96953   3.829   7.797   8.027
31705SOL    HW196954   3.849   7.806   8.121
31705SOL    HW296955   3.760   7.861   8.011
31706SOL     OW96956   0.024   9.262   2.667
31706SOL    HW196957   0.085   9.332   2.643
31706SOL    HW296958   0.079   9.195   2.707
31707SOL     OW96959   1.215   3.200  11.548
31707SOL    HW196960   1.174   3.268  11.601
31707SOL    HW296961   1.298   3.239  11.520
31708SOL     OW96962  10.146   7.093  14.431
31708SOL    HW196963  10.136   7.106  14.525
31708SOL    HW296964  10.104   7.170  14.392
31709SOL     OW96965   9.500  12.062   9.642
31709SOL    HW196966   9.491  12.151   9.677
31709SOL    HW296967   9.576  12.066   9.584
31710SOL     OW96968   0.677  14.155   0.319
31710SOL    HW196969   0.770  14.153   0.340
31710SOL    HW296970   0.643  14.072   0.351
31711SOL     OW96971  10.229   2.922   5.177
31711SOL    HW196972  10.148   2.973   5.180
31711SOL    HW296973  10.279   2.961   5.106
31712SOL     OW96974  10.832   7.667   4.572
31712SOL    HW196975  10.740   7.643   4.561
31712SOL    HW296976  10.860   7.619   4.650
31713SOL     OW96977   9.675  14.165  11.542
31713SOL    HW196978   9.704  14.252  11.517
31713SOL    HW296979   9.680  14.114  11.461
31714SOL     OW96980  10.016   7.764   0.201
31714SOL    HW196981  10.106   7.779   0.231
31714SOL    HW296982   9.964   7.761   0.281
31715SOL     OW96983   9.190   0.381   8.695
31715SOL    HW196984   9.266   0.414   8.742
31715SOL    HW296985   9.213   0.385   8.603
31716SOL     OW96986  10.240   9.709   2.336
31716SOL    HW196987  10.305   9.760   2.288
31716SOL    HW296988  10.260   9.727   2.428
31717SOL     OW96989   0.467   1.550   8.871
31717SOL    HW196990   0.479   1.575   8.780
31717SOL    HW296991   0.536   1.486   8.888
31718SOL     OW96992   7.053   9.359   6.060
31718SOL    HW196993   7.043   9.289   5.994
31718SOL    HW296994   7.137   9.340   6.102
31719SOL     OW96995   5.465   5.824   0.690
31719SOL    HW196996   5.514   5.870   0.622
31719SOL    HW296997   5.476   5.879   0.768
31720SOL     OW96998   9.011   9.671  10.001
31720SOL    HW196999   9.087   9.618  10.024
31720SOL    HW297000   8.936   9.624  10.038
31721SOL     OW97001  13.720  10.059   5.824
31721SOL    HW197002  13.644  10.033   5.771
31721SOL    HW297003  13.688  10.060   5.914
31722SOL     OW97004   8.475   0.417   4.657
31722SOL    HW197005   8.481   0.362   4.735
31722SOL    HW297006   8.546   0.480   4.666
31723SOL     OW97007   7.343   6.263   9.574
31723SOL    HW197008   7.430   6.297   9.553
31723SOL    HW297009   7.355   6.168   9.576
31724SOL     OW97010   5.315   0.558   0.311
31724SOL    HW197011   5.225   0.591   0.310
31724SOL    HW297012   5.305   0.463   0.314
31725SOL     OW97013   9.916   9.169   0.250
31725SOL    HW197014   9.996   9.148   0.298
31725SOL    HW297015   9.913   9.104   0.179
31726SOL     OW97016   0.318  11.605   9.641
31726SOL    HW197017   0.315  11.510   9.656
31726SOL    HW297018   0.317  11.614   9.546
31727SOL     OW97019   4.895  12.449  12.234
31727SOL    HW197020   4.825  12.436  12.298
31727SOL    HW297021   4.851  12.478  12.155
31728SOL     OW97022   5.894   2.965   5.596
31728SOL    HW197023   5.854   2.886   5.561
31728SOL    HW297024   5.917   3.017   5.519
31729SOL     OW97025   2.824   2.265   5.879
31729SOL    HW197026   2.862   2.330   5.939
31729SOL    HW297027   2.771   2.209   5.936
31730SOL     OW97028   2.712   6.686   4.646
31730SOL    HW197029   2.647   6.728   4.589
31730SOL    HW297030   2.786   6.666   4.588
31731SOL     OW97031   9.961  11.769   2.355
31731SOL    HW197032   9.935  11.797   2.267
31731SOL    HW297033   9.932  11.678   2.361
31732SOL     OW97034  13.961  13.805   1.878
31732SOL    HW197035  13.874  13.793   1.839
31732SOL    HW297036  13.990  13.891   1.847
31733SOL     OW97037   7.643  11.826   6.468
31733SOL    HW197038   7.638  11.732   6.488
31733SOL    HW297039   7.714  11.859   6.523
31734SOL     OW97040   4.051  14.227   4.594
31734SOL    HW197041   4.007  14.303   4.556
31734SOL    HW297042   4.097  14.262   4.671
31735SOL     OW97043  13.937   4.970   7.699
31735SOL    HW197044  13.850   4.944   7.670
31735SOL    HW297045  13.939   5.065   7.687
31736SOL     OW97046  14.174  14.549   4.682
31736SOL    HW197047  14.170  14.601   4.602
31736SOL    HW297048  14.115  14.476   4.666
31737SOL     OW97049   6.660  11.146   9.102
31737SOL    HW197050   6.751  11.129   9.078
31737SOL    HW297051   6.649  11.102   9.187
31738SOL     OW97052  11.469   5.799   5.404
31738SOL    HW197053  11.513   5.884   5.395
31738SOL    HW297054  11.485   5.755   5.321
31739SOL     OW97055  12.091   2.179   4.412
31739SOL    HW197056  12.154   2.150   4.478
31739SOL    HW297057  12.139   2.175   4.329
31740SOL     OW97058   2.443   3.212   0.235
31740SOL    HW197059   2.379   3.153   0.195
31740SOL    HW297060   2.402   3.298   0.231
31741SOL     OW97061  13.494   1.957   8.425
31741SOL    HW197062  13.480   1.930   8.516
31741SOL    HW297063  13.526   2.047   8.431
31742SOL     OW97064  11.472   5.714   4.279
31742SOL    HW197065  11.531   5.663   4.224
31742SOL    HW297066  11.475   5.802   4.242
31743SOL     OW97067   0.092   1.853   0.432
31743SOL    HW197068   0.188   1.856   0.431
31743SOL    HW297069   0.071   1.763   0.456
31744SOL     OW97070  14.784   8.737   0.554
31744SOL    HW197071  14.794   8.669   0.487
31744SOL    HW297072  14.808   8.694   0.636
31745SOL     OW97073  12.722   2.620   2.899
31745SOL    HW197074  12.742   2.711   2.921
31745SOL    HW297075  12.739   2.613   2.805
31746SOL     OW97076   6.298   9.415  10.902
31746SOL    HW197077   6.359   9.460  10.960
31746SOL    HW297078   6.214   9.420  10.948
31747SOL     OW97079   8.844   6.186   6.389
31747SOL    HW197080   8.786   6.246   6.436
31747SOL    HW297081   8.923   6.237   6.373
31748SOL     OW97082   8.744   8.335   5.339
31748SOL    HW197083   8.723   8.427   5.325
31748SOL    HW297084   8.793   8.334   5.422
31749SOL     OW97085  11.873   7.901  10.184
31749SOL    HW197086  11.899   7.923  10.095
31749SOL    HW297087  11.792   7.851  10.173
31750SOL     OW97088  14.056  14.646  10.511
31750SOL    HW197089  14.058  14.709  10.439
31750SOL    HW297090  13.991  14.581  10.484
31751SOL     OW97091  11.062  11.737   9.386
31751SOL    HW197092  10.981  11.782   9.409
31751SOL    HW297093  11.042  11.694   9.303
31752SOL     OW97094  11.650   8.467   6.827
31752SOL    HW197095  11.588   8.443   6.757
31752SOL    HW297096  11.679   8.383   6.863
31753SOL     OW97097   0.353   9.489  10.628
31753SOL    HW197098   0.311   9.403  10.619
31753SOL    HW297099   0.441   9.476  10.593
31754SOL     OW97100   5.385  10.042   5.984
31754SOL    HW197101   5.315  10.013   6.043
31754SOL    HW297102   5.409   9.963   5.934
31755SOL     OW97103  14.825  13.724   8.033
31755SOL    HW197104  14.814  13.819   8.026
31755SOL    HW297105  14.810  13.705   8.125
31756SOL     OW97106   1.924   1.256  11.618
31756SOL    HW197107   1.997   1.209  11.660
31756SOL    HW297108   1.846   1.213  11.651
31757SOL     OW97109   3.450   1.371   7.148
31757SOL    HW197110   3.430   1.458   7.113
31757SOL    HW297111   3.405   1.311   7.089
31758SOL     OW97112   6.580   8.504  10.158
31758SOL    HW197113   6.638   8.578  10.138
31758SOL    HW297114   6.598   8.440  10.088
31759SOL     OW97115   2.165  13.885   0.320
31759SOL    HW197116   2.169  13.941   0.397
31759SOL    HW297117   2.081  13.839   0.329
31760SOL     OW97118   8.988  10.892   5.399
31760SOL    HW197119   8.969  10.874   5.307
31760SOL    HW297120   8.983  10.807   5.442
31761SOL     OW97121   9.021   5.093   1.236
31761SOL    HW197122   9.006   5.069   1.328
31761SOL    HW297123   8.934   5.098   1.198
31762SOL     OW97124   3.090   2.538  12.433
31762SOL    HW197125   3.050   2.625  12.440
31762SOL    HW297126   3.054   2.490  12.507
31763SOL     OW97127  12.024   5.942  14.523
31763SOL    HW197128  12.101   5.886  14.523
31763SOL    HW297129  11.951   5.883  14.503
31764SOL     OW97130   0.175  12.066   0.655
31764SOL    HW197131   0.171  12.029   0.566
31764SOL    HW297132   0.220  11.999   0.707
31765SOL     OW97133   4.886   5.757   6.225
31765SOL    HW197134   4.961   5.713   6.264
31765SOL    HW297135   4.924   5.821   6.164
31766SOL     OW97136  13.865  10.811  14.246
31766SOL    HW197137  13.857  10.726  14.203
31766SOL    HW297138  13.953  10.841  14.222
31767SOL     OW97139   7.885   2.823  13.587
31767SOL    HW197140   7.955   2.865  13.536
31767SOL    HW297141   7.930   2.784  13.662
31768SOL     OW97142  11.057   6.890  13.110
31768SOL    HW197143  11.052   6.981  13.079
31768SOL    HW297144  10.987   6.845  13.064
31769SOL     OW97145  10.109  12.539   6.706
31769SOL    HW197146  10.173  12.606   6.731
31769SOL    HW297147  10.091  12.493   6.788
31770SOL     OW97148   9.602  14.450   8.379
31770SOL    HW197149   9.673  14.509   8.404
31770SOL    HW297150   9.527  14.507   8.365
31771SOL     OW97151   6.049   0.929   4.371
31771SOL    HW197152   5.981   0.916   4.436
31771SOL    HW297153   6.094   0.844   4.365
31772SOL     OW97154   1.089  14.508  10.436
31772SOL    HW197155   1.033  14.444  10.479
31772SOL    HW297156   1.170  14.507  10.486
31773SOL     OW97157   9.799   3.420   5.176
31773SOL    HW197158   9.745   3.364   5.231
31773SOL    HW297159   9.736   3.467   5.121
31774SOL     OW97160   6.153   7.048   2.191
31774SOL    HW197161   6.097   7.056   2.114
31774SOL    HW297162   6.176   6.955   2.195
31775SOL     OW97163   2.116   8.851   6.433
31775SOL    HW197164   2.071   8.906   6.369
31775SOL    HW297165   2.208   8.875   6.426
31776SOL     OW97166  11.571  13.464   2.937
31776SOL    HW197167  11.652  13.483   2.891
31776SOL    HW297168  11.576  13.516   3.017
31777SOL     OW97169   9.944  14.637   2.838
31777SOL    HW197170   9.936  14.649   2.932
31777SOL    HW297171   9.895  14.557   2.820
31778SOL     OW97172   5.967   9.872   9.598
31778SOL    HW197173   6.015   9.933   9.543
31778SOL    HW297174   6.029   9.800   9.613
31779SOL     OW97175   5.879   4.294  13.259
31779SOL    HW197176   5.816   4.360  13.230
31779SOL    HW297177   5.875   4.227  13.191
31780SOL     OW97178   6.135  10.290   9.313
31780SOL    HW197179   6.213  10.314   9.264
31780SOL    HW297180   6.106  10.371   9.355
31781SOL     OW97181  11.729  13.608   5.613
31781SOL    HW197182  11.704  13.679   5.672
31781SOL    HW297183  11.823  13.618   5.601
31782SOL     OW97184   4.524   4.340  14.393
31782SOL    HW197185   4.440   4.374  14.361
31782SOL    HW297186   4.501   4.281  14.464
31783SOL     OW97187  11.480   7.070   5.208
31783SOL    HW197188  11.387   7.082   5.191
31783SOL    HW297189  11.487   7.059   5.303
31784SOL     OW97190   9.382  12.382   6.530
31784SOL    HW197191   9.300  12.430   6.533
31784SOL    HW297192   9.450  12.449   6.534
31785SOL     OW97193   6.494   2.275  10.745
31785SOL    HW197194   6.521   2.184  10.736
31785SOL    HW297195   6.463   2.300  10.657
31786SOL     OW97196   4.347   6.168   9.934
31786SOL    HW197197   4.431   6.126   9.914
31786SOL    HW297198   4.365   6.262   9.927
31787SOL     OW97199   4.444  10.406   5.247
31787SOL    HW197200   4.380  10.445   5.307
31787SOL    HW297201   4.512  10.472   5.237
31788SOL     OW97202   4.827   1.895  13.121
31788SOL    HW197203   4.820   1.987  13.095
31788SOL    HW297204   4.749   1.854  13.083
31789SOL     OW97205   6.848  13.160   8.004
31789SOL    HW197206   6.935  13.192   8.026
31789SOL    HW297207   6.820  13.109   8.079
31790SOL     OW97208   8.918   6.781  10.847
31790SOL    HW197209   8.875   6.824  10.920
31790SOL    HW297210   8.864   6.803  10.771
31791SOL     OW97211  11.364   1.868   7.679
31791SOL    HW197212  11.362   1.941   7.741
31791SOL    HW297213  11.285   1.818   7.698
31792SOL     OW97214  10.994   9.154   8.659
31792SOL    HW197215  10.905   9.159   8.695
31792SOL    HW297216  11.044   9.106   8.724
31793SOL     OW97217   0.226   1.021   9.673
31793SOL    HW197218   0.185   1.102   9.702
31793SOL    HW297219   0.319   1.042   9.663
31794SOL     OW97220  11.924   8.346   4.569
31794SOL    HW197221  11.875   8.413   4.522
31794SOL    HW297222  11.898   8.356   4.660
31795SOL     OW97223   9.524   6.318  12.308
31795SOL    HW197224   9.556   6.253  12.371
31795SOL    HW297225   9.597   6.379  12.298
31796SOL     OW97226  14.592   3.188   8.140
31796SOL    HW197227  14.518   3.128   8.130
31796SOL    HW297228  14.625   3.171   8.229
31797SOL     OW97229   0.482  12.990   0.542
31797SOL    HW197230   0.534  12.958   0.616
31797SOL    HW297231   0.391  12.977   0.568
31798SOL     OW97232   9.423   5.824   0.195
31798SOL    HW197233   9.397   5.889   0.260
31798SOL    HW297234   9.353   5.759   0.196
31799SOL     OW97235  10.234   5.805  10.445
31799SOL    HW197236  10.240   5.899  10.461
31799SOL    HW297237  10.200   5.798  10.356
31800SOL     OW97238   5.243   9.612  10.569
31800SOL    HW197239   5.323   9.664  10.577
31800SOL    HW297240   5.255   9.539  10.630
31801SOL     OW97241  11.620  10.299   8.666
31801SOL    HW197242  11.655  10.233   8.727
31801SOL    HW297243  11.631  10.259   8.580
31802SOL     OW97244   1.788   6.359   4.078
31802SOL    HW197245   1.865   6.343   4.025
31802SOL    HW297246   1.761   6.273   4.109
31803SOL     OW97247   0.760   8.985   0.310
31803SOL    HW197248   0.805   8.989   0.225
31803SOL    HW297249   0.816   8.930   0.364
31804SOL     OW97250   8.071   5.472  10.261
31804SOL    HW197251   8.129   5.456  10.187
31804SOL    HW297252   8.033   5.559  10.243
31805SOL     OW97253  12.694   2.823   2.409
31805SOL    HW197254  12.732   2.786   2.488
31805SOL    HW297255  12.717   2.761   2.340
31806SOL     OW97256  12.606   2.898   0.475
31806SOL    HW197257  12.540   2.966   0.492
31806SOL    HW297258  12.649   2.926   0.395
31807SOL     OW97259   8.220   7.928   0.768
31807SOL    HW197260   8.241   8.019   0.747
31807SOL    HW297261   8.153   7.903   0.704
31808SOL     OW97262   3.039   2.518   8.400
31808SOL    HW197263   2.961   2.490   8.352
31808SOL    HW297264   3.092   2.439   8.407
31809SOL     OW97265   0.990   8.151   4.746
31809SOL    HW197266   1.002   8.194   4.830
31809SOL    HW297267   0.916   8.196   4.706
31810SOL     OW97268   0.895   8.868  10.051
31810SOL    HW197269   0.818   8.830  10.009
31810SOL    HW297270   0.967   8.848   9.992
31811SOL     OW97271   7.493  10.109   4.327
31811SOL    HW197272   7.468  10.023   4.295
31811SOL    HW297273   7.570  10.133   4.276
31812SOL     OW97274   9.048  13.987  11.524
31812SOL    HW197275   8.967  13.991  11.575
31812SOL    HW297276   9.030  14.042  11.447
31813SOL     OW97277   8.266  11.923  11.973
31813SOL    HW197278   8.180  11.954  12.000
31813SOL    HW297279   8.249  11.855  11.909
31814SOL     OW97280  10.843   7.488   6.111
31814SOL    HW197281  10.911   7.421   6.112
31814SOL    HW297282  10.854   7.531   6.026
31815SOL     OW97283   5.798   4.301   2.152
31815SOL    HW197284   5.775   4.232   2.215
31815SOL    HW297285   5.814   4.254   2.070
31816SOL     OW97286   7.473   7.130  13.525
31816SOL    HW197287   7.395   7.107  13.473
31816SOL    HW297288   7.512   7.204  13.478
31817SOL     OW97289  12.249   1.997  13.632
31817SOL    HW197290  12.161   1.982  13.667
31817SOL    HW297291  12.307   1.961  13.699
31818SOL     OW97292   9.944  10.549   3.119
31818SOL    HW197293   9.900  10.474   3.158
31818SOL    HW297294  10.036  10.540   3.146
31819SOL     OW97295  11.951   1.904   1.741
31819SOL    HW197296  11.973   1.939   1.655
31819SOL    HW297297  12.029   1.855   1.768
31820SOL     OW97298  12.948   4.012   6.290
31820SOL    HW197299  13.023   4.021   6.349
31820SOL    HW297300  12.875   4.052   6.338
31821SOL     OW97301   9.207   8.624   9.306
31821SOL    HW197302   9.113   8.641   9.297
31821SOL    HW297303   9.217   8.532   9.281
31822SOL     OW97304   9.230   6.687   7.076
31822SOL    HW197305   9.305   6.694   7.135
31822SOL    HW297306   9.156   6.721   7.126
31823SOL     OW97307   1.184  14.415   3.111
31823SOL    HW197308   1.207  14.422   3.204
31823SOL    HW297309   1.173  14.321   3.096
31824SOL     OW97310   2.359   2.212   3.239
31824SOL    HW197311   2.377   2.120   3.260
31824SOL    HW297312   2.426   2.261   3.287
31825SOL     OW97313   1.943   2.630   0.104
31825SOL    HW197314   1.974   2.626   0.195
31825SOL    HW297315   1.956   2.542   0.070
31826SOL     OW97316  13.562   6.853  13.783
31826SOL    HW197317  13.543   6.926  13.843
31826SOL    HW297318  13.651   6.828  13.805
31827SOL     OW97319   4.450   6.362   5.030
31827SOL    HW197320   4.430   6.319   5.113
31827SOL    HW297321   4.507   6.435   5.053
31828SOL     OW97322   4.394   5.298   8.342
31828SOL    HW197323   4.319   5.318   8.286
31828SOL    HW297324   4.416   5.382   8.383
31829SOL     OW97325   6.759   6.194   2.634
31829SOL    HW197326   6.740   6.165   2.544
31829SOL    HW297327   6.745   6.288   2.632
31830SOL     OW97328   2.684  12.869   1.026
31830SOL    HW197329   2.681  12.780   1.062
31830SOL    HW297330   2.706  12.924   1.101
31831SOL     OW97331  14.020  11.370  14.831
31831SOL    HW197332  14.099  11.318  14.842
31831SOL    HW297333  14.050  11.450  14.787
31832SOL     OW97334  13.207   3.095   7.781
31832SOL    HW197335  13.163   3.133   7.704
31832SOL    HW297336  13.221   3.170   7.839
31833SOL     OW97337   3.369   7.488   5.887
31833SOL    HW197338   3.312   7.556   5.923
31833SOL    HW297339   3.410   7.528   5.810
31834SOL     OW97340   2.737  14.289   6.761
31834SOL    HW197341   2.736  14.374   6.806
31834SOL    HW297342   2.674  14.298   6.690
31835SOL     OW97343   5.492   3.828   5.827
31835SOL    HW197344   5.439   3.890   5.777
31835SOL    HW297345   5.569   3.879   5.855
31836SOL     OW97346   7.163   9.818   5.705
31836SOL    HW197347   7.195   9.834   5.794
31836SOL    HW297348   7.112   9.737   5.713
31837SOL     OW97349   1.404   0.414   8.572
31837SOL    HW197350   1.381   0.504   8.548
31837SOL    HW297351   1.320   0.370   8.584
31838SOL     OW97352   4.541   9.235   2.239
31838SOL    HW197353   4.630   9.216   2.266
31838SOL    HW297354   4.545   9.321   2.198
31839SOL     OW97355   3.868   9.659   3.854
31839SOL    HW197356   3.892   9.687   3.766
31839SOL    HW297357   3.788   9.708   3.873
31840SOL     OW97358  12.529  14.016   1.443
31840SOL    HW197359  12.551  14.018   1.350
31840SOL    HW297360  12.614  14.016   1.487
31841SOL     OW97361   9.654   3.909  10.556
31841SOL    HW197362   9.590   3.969  10.518
31841SOL    HW297363   9.705   3.964  10.616
31842SOL     OW97364  11.760   4.315  14.800
31842SOL    HW197365  11.739   4.399  14.841
31842SOL    HW297366  11.830   4.278  14.854
31843SOL     OW97367   5.592   1.400   5.364
31843SOL    HW197368   5.569   1.444   5.446
31843SOL    HW297369   5.514   1.406   5.310
31844SOL     OW97370   7.778   2.252   4.734
31844SOL    HW197371   7.696   2.272   4.780
31844SOL    HW297372   7.810   2.173   4.776
31845SOL     OW97373   2.439   8.042   6.584
31845SOL    HW197374   2.431   8.138   6.588
31845SOL    HW297375   2.353   8.010   6.611
31846SOL     OW97376   9.370  11.526   1.400
31846SOL    HW197377   9.351  11.579   1.323
31846SOL    HW297378   9.290  11.478   1.417
31847SOL     OW97379   9.366  13.560   7.468
31847SOL    HW197380   9.376  13.479   7.418
31847SOL    HW297381   9.348  13.531   7.558
31848SOL     OW97382   6.697   3.897   5.859
31848SOL    HW197383   6.740   3.858   5.935
31848SOL    HW297384   6.615   3.848   5.850
31849SOL     OW97385  13.101  10.551   7.823
31849SOL    HW197386  13.064  10.546   7.912
31849SOL    HW297387  13.196  10.556   7.837
31850SOL     OW97388  12.344   3.640  11.135
31850SOL    HW197389  12.280   3.685  11.079
31850SOL    HW297390  12.365   3.560  11.087
31851SOL     OW97391   0.190  13.670   3.318
31851SOL    HW197392   0.136  13.598   3.347
31851SOL    HW297393   0.130  13.728   3.271
31852SOL     OW97394   4.120   6.066   1.405
31852SOL    HW197395   4.053   6.008   1.369
31852SOL    HW297396   4.195   6.056   1.347
31853SOL     OW97397   7.610   6.477   1.072
31853SOL    HW197398   7.597   6.383   1.057
31853SOL    HW297399   7.601   6.516   0.985
31854SOL     OW97400  14.134  10.338   2.493
31854SOL    HW197401  14.056  10.302   2.535
31854SOL    HW297402  14.116  10.431   2.483
31855SOL     OW97403   0.544   7.448   6.463
31855SOL    HW197404   0.583   7.388   6.527
31855SOL    HW297405   0.494   7.510   6.515
31856SOL     OW97406   0.722   6.792   2.421
31856SOL    HW197407   0.801   6.839   2.392
31856SOL    HW297408   0.748   6.700   2.422
31857SOL     OW97409  10.918  14.354  13.637
31857SOL    HW197410  10.833  14.394  13.652
31857SOL    HW297411  10.973  14.386  13.709
31858SOL     OW97412   9.317   2.813   0.184
31858SOL    HW197413   9.396   2.797   0.236
31858SOL    HW297414   9.296   2.728   0.145
31859SOL     OW97415  10.328   1.444   0.577
31859SOL    HW197416  10.423   1.437   0.572
31859SOL    HW297417  10.298   1.423   0.489
31860SOL     OW97418   8.106  11.332   2.171
31860SOL    HW197419   8.065  11.269   2.112
31860SOL    HW297420   8.173  11.375   2.118
31861SOL     OW97421  13.324   0.510   6.873
31861SOL    HW197422  13.292   0.592   6.836
31861SOL    HW297423  13.246   0.457   6.887
31862SOL     OW97424   0.990   3.875  14.174
31862SOL    HW197425   1.086   3.881  14.178
31862SOL    HW297426   0.974   3.792  14.128
31863SOL     OW97427  10.559   9.860  13.944
31863SOL    HW197428  10.613   9.939  13.956
31863SOL    HW297429  10.473   9.884  13.977
31864SOL     OW97430   7.691   8.548  10.501
31864SOL    HW197431   7.697   8.627  10.554
31864SOL    HW297432   7.780   8.537  10.465
31865SOL     OW97433   2.860   8.218  10.806
31865SOL    HW197434   2.854   8.124  10.787
31865SOL    HW297435   2.868   8.259  10.721
31866SOL     OW97436   0.616  11.392  12.239
31866SOL    HW197437   0.549  11.456  12.264
31866SOL    HW297438   0.696  11.424  12.282
31867SOL     OW97439  14.266   0.695   4.255
31867SOL    HW197440  14.287   0.618   4.308
31867SOL    HW297441  14.348   0.744   4.249
31868SOL     OW97442  10.715   4.371  10.045
31868SOL    HW197443  10.787   4.310  10.059
31868SOL    HW297444  10.735   4.446  10.101
31869SOL     OW97445  12.841   1.652   3.434
31869SOL    HW197446  12.897   1.622   3.506
31869SOL    HW297447  12.889   1.629   3.355
31870SOL     OW97448   3.847   1.012   1.659
31870SOL    HW197449   3.920   1.027   1.719
31870SOL    HW297450   3.794   0.944   1.700
31871SOL     OW97451   5.365  13.050  11.536
31871SOL    HW197452   5.354  13.108  11.461
31871SOL    HW297453   5.432  12.987  11.509
31872SOL     OW97454   9.141   2.928   3.176
31872SOL    HW197455   9.226   2.958   3.143
31872SOL    HW297456   9.114   2.995   3.238
31873SOL     OW97457  10.918  10.739  11.762
31873SOL    HW197458  10.877  10.818  11.725
31873SOL    HW297459  10.962  10.698  11.688
31874SOL     OW97460  13.663   6.573  10.136
31874SOL    HW197461  13.662   6.502  10.200
31874SOL    HW297462  13.618   6.645  10.179
31875SOL     OW97463   5.946   8.381   2.575
31875SOL    HW197464   5.987   8.299   2.601
31875SOL    HW297465   5.963   8.387   2.481
31876SOL     OW97466   5.446   0.210   1.166
31876SOL    HW197467   5.539   0.234   1.166
31876SOL    HW297468   5.441   0.133   1.110
31877SOL     OW97469   1.048   6.998  13.743
31877SOL    HW197470   1.064   6.941  13.668
31877SOL    HW297471   0.989   7.066  13.710
31878SOL     OW97472   4.848   2.282  14.511
31878SOL    HW197473   4.872   2.370  14.540
31878SOL    HW297474   4.786   2.296  14.439
31879SOL     OW97475   5.431  11.858   1.563
31879SOL    HW197476   5.403  11.833   1.475
31879SOL    HW297477   5.525  11.872   1.555
31880SOL     OW97478   6.219   1.448  14.142
31880SOL    HW197479   6.127   1.422  14.140
31880SOL    HW297480   6.228   1.509  14.068
31881SOL     OW97481   1.383  12.577   1.843
31881SOL    HW197482   1.306  12.523   1.862
31881SOL    HW297483   1.366  12.660   1.889
31882SOL     OW97484   0.960   0.361   4.189
31882SOL    HW197485   0.944   0.301   4.262
31882SOL    HW297486   1.021   0.315   4.132
31883SOL     OW97487   4.537   8.959  14.303
31883SOL    HW197488   4.565   9.003  14.223
31883SOL    HW297489   4.448   8.929  14.285
31884SOL     OW97490  10.868  11.697  13.873
31884SOL    HW197491  10.927  11.700  13.798
31884SOL    HW297492  10.917  11.740  13.944
31885SOL     OW97493  10.481   3.301   5.449
31885SOL    HW197494  10.466   3.375   5.508
31885SOL    HW297495  10.400   3.250   5.453
31886SOL     OW97496   3.715  12.610   5.491
31886SOL    HW197497   3.737  12.642   5.404
31886SOL    HW297498   3.707  12.516   5.481
31887SOL     OW97499   8.408   3.817   3.743
31887SOL    HW197500   8.338   3.753   3.728
31887SOL    HW297501   8.414   3.865   3.660
31888SOL     OW97502   1.543   7.480   7.626
31888SOL    HW197503   1.488   7.404   7.605
31888SOL    HW297504   1.610   7.445   7.685
31889SOL     OW97505  14.380  13.092   9.803
31889SOL    HW197506  14.414  13.143   9.876
31889SOL    HW297507  14.370  13.156   9.732
31890SOL     OW97508   3.551   8.485  11.085
31890SOL    HW197509   3.630   8.538  11.095
31890SOL    HW297510   3.485   8.546  11.051
31891SOL     OW97511   0.395   5.376  12.998
31891SOL    HW197512   0.422   5.429  13.072
31891SOL    HW297513   0.339   5.309  13.036
31892SOL     OW97514   5.091   6.211  10.308
31892SOL    HW197515   5.018   6.155  10.335
31892SOL    HW297516   5.088   6.285  10.369
31893SOL     OW97517   8.594  10.574   0.824
31893SOL    HW197518   8.638  10.492   0.802
31893SOL    HW297519   8.621  10.593   0.914
31894SOL     OW97520   2.268   7.192  14.566
31894SOL    HW197521   2.285   7.286  14.572
31894SOL    HW297522   2.224   7.181  14.481
31895SOL     OW97523   4.168  12.951  11.931
31895SOL    HW197524   4.155  12.966  11.837
31895SOL    HW297525   4.178  12.856  11.939
31896SOL     OW97526   3.740   4.404   0.628
31896SOL    HW197527   3.779   4.451   0.702
31896SOL    HW297528   3.800   4.330   0.613
31897SOL     OW97529  11.450   0.869   6.415
31897SOL    HW197530  11.528   0.817   6.435
31897SOL    HW297531  11.426   0.842   6.327
31898SOL     OW97532  14.492  11.862   9.864
31898SOL    HW197533  14.472  11.810   9.942
31898SOL    HW297534  14.587  11.873   9.865
31899SOL     OW97535   7.999   6.523   4.714
31899SOL    HW197536   8.084   6.568   4.710
31899SOL    HW297537   7.974   6.513   4.622
31900SOL     OW97538  10.275   3.220   0.184
31900SOL    HW197539  10.273   3.316   0.176
31900SOL    HW297540  10.198   3.191   0.136
31901SOL     OW97541   7.578   4.987  14.721
31901SOL    HW197542   7.527   4.947  14.651
31901SOL    HW297543   7.539   4.954  14.802
31902SOL     OW97544  10.451   8.867  11.325
31902SOL    HW197545  10.415   8.852  11.412
31902SOL    HW297546  10.544   8.845  11.334
31903SOL     OW97547  10.193   7.966   3.476
31903SOL    HW197548  10.152   7.883   3.502
31903SOL    HW297549  10.247   7.991   3.551
31904SOL     OW97550   2.949  14.022   9.525
31904SOL    HW197551   2.889  14.036   9.598
31904SOL    HW297552   3.003  13.949   9.553
31905SOL     OW97553  11.263   2.644   3.589
31905SOL    HW197554  11.191   2.630   3.650
31905SOL    HW297555  11.333   2.680   3.642
31906SOL     OW97556   6.200   2.226  13.580
31906SOL    HW197557   6.279   2.233  13.526
31906SOL    HW297558   6.232   2.192  13.663
31907SOL     OW97559   4.926   9.721   7.391
31907SOL    HW197560   4.877   9.640   7.405
31907SOL    HW297561   4.997   9.696   7.331
31908SOL     OW97562   0.601  13.848   6.697
31908SOL    HW197563   0.533  13.863   6.631
31908SOL    HW297564   0.629  13.758   6.682
31909SOL     OW97565   1.363  14.766   1.892
31909SOL    HW197566   1.418  14.718   1.955
31909SOL    HW297567   1.339  14.700   1.827
31910SOL     OW97568  13.877   5.349   8.075
31910SOL    HW197569  13.867   5.416   8.143
31910SOL    HW297570  13.794   5.350   8.028
31911SOL     OW97571  12.707   2.651   5.528
31911SOL    HW197572  12.683   2.610   5.446
31911SOL    HW297573  12.772   2.592   5.566
31912SOL     OW97574  11.956   1.771  12.903
31912SOL    HW197575  12.045   1.806  12.915
31912SOL    HW297576  11.933   1.735  12.988
31913SOL     OW97577   6.192   2.461   9.382
31913SOL    HW197578   6.176   2.482   9.474
31913SOL    HW297579   6.171   2.368   9.374
31914SOL     OW97580   0.290   6.681  13.730
31914SOL    HW197581   0.253   6.759  13.689
31914SOL    HW297582   0.253   6.608  13.680
31915SOL     OW97583   3.891   6.250   0.394
31915SOL    HW197584   3.855   6.168   0.431
31915SOL    HW297585   3.831   6.273   0.323
31916SOL     OW97586   2.625   1.127   6.760
31916SOL    HW197587   2.662   1.196   6.814
31916SOL    HW297588   2.645   1.154   6.670
31917SOL     OW97589   6.061   6.635  13.030
31917SOL    HW197590   6.126   6.573  13.063
31917SOL    HW297591   6.017   6.667  13.109
31918SOL     OW97592   4.817   1.287  11.911
31918SOL    HW197593   4.788   1.306  11.822
31918SOL    HW297594   4.745   1.316  11.967
31919SOL     OW97595   2.962   4.291   1.938
31919SOL    HW197596   3.046   4.251   1.915
31919SOL    HW297597   2.899   4.253   1.877
31920SOL     OW97598   9.908  10.854   7.597
31920SOL    HW197599   9.858  10.775   7.620
31920SOL    HW297600   9.923  10.898   7.681
31921SOL     OW97601   5.312   5.565   3.699
31921SOL    HW197602   5.296   5.602   3.785
31921SOL    HW297603   5.389   5.508   3.711
31922SOL     OW97604   0.089   9.487   8.975
31922SOL    HW197605   0.031   9.563   8.972
31922SOL    HW297606   0.036   9.416   8.937
31923SOL     OW97607   1.227  12.280   7.206
31923SOL    HW197608   1.163  12.274   7.278
31923SOL    HW297609   1.298  12.334   7.242
31924SOL     OW97610   5.095   1.891   8.725
31924SOL    HW197611   5.145   1.851   8.795
31924SOL    HW297612   5.050   1.965   8.767
31925SOL     OW97613  10.332  13.875  14.150
31925SOL    HW197614  10.369  13.888  14.063
31925SOL    HW297615  10.406  13.845  14.203
31926SOL     OW97616   6.297  11.122   2.537
31926SOL    HW197617   6.254  11.043   2.504
31926SOL    HW297618   6.226  11.183   2.553
31927SOL     OW97619  11.430   1.731   2.872
31927SOL    HW197620  11.369   1.796   2.908
31927SOL    HW297621  11.514   1.751   2.915
31928SOL     OW97622  11.456   2.921  13.745
31928SOL    HW197623  11.544   2.945  13.716
31928SOL    HW297624  11.407   2.910  13.664
31929SOL     OW97625   6.860   0.399   5.750
31929SOL    HW197626   6.862   0.304   5.739
31929SOL    HW297627   6.947   0.429   5.725
31930SOL     OW97628   5.143   8.858   6.214
31930SOL    HW197629   5.075   8.850   6.281
31930SOL    HW297630   5.103   8.821   6.135
31931SOL     OW97631  12.601   9.004  10.369
31931SOL    HW197632  12.618   8.983  10.461
31931SOL    HW297633  12.626   9.096  10.361
31932SOL     OW97634   3.436   5.654   8.550
31932SOL    HW197635   3.362   5.593   8.558
31932SOL    HW297636   3.399   5.739   8.571
31933SOL     OW97637  10.115   7.002  11.294
31933SOL    HW197638  10.198   6.982  11.336
31933SOL    HW297639  10.134   7.000  11.201
31934SOL     OW97640   9.920  13.025   1.001
31934SOL    HW197641   9.851  12.987   0.947
31934SOL    HW297642   9.873  13.078   1.066
31935SOL     OW97643   9.431  13.027   6.995
31935SOL    HW197644   9.497  13.043   7.062
31935SOL    HW297645   9.352  13.006   7.044
31936SOL     OW97646   0.437   8.769   6.079
31936SOL    HW197647   0.401   8.687   6.112
31936SOL    HW297648   0.402   8.778   5.991
31937SOL     OW97649   8.531  12.499   3.755
31937SOL    HW197650   8.457  12.447   3.724
31937SOL    HW297651   8.527  12.579   3.703
31938SOL     OW97652  14.623   3.061   9.307
31938SOL    HW197653  14.529   3.048   9.306
31938SOL    HW297654  14.648   3.048   9.398
31939SOL     OW97655   7.741   2.529  14.603
31939SOL    HW197656   7.786   2.556  14.523
31939SOL    HW297657   7.767   2.437  14.615
31940SOL     OW97658   0.520  12.402   7.227
31940SOL    HW197659   0.570  12.464   7.281
31940SOL    HW297660   0.584  12.369   7.164
31941SOL     OW97661   6.804   2.048   6.486
31941SOL    HW197662   6.723   2.008   6.518
31941SOL    HW297663   6.821   2.002   6.403
31942SOL     OW97664   8.003   1.810   0.738
31942SOL    HW197665   8.085   1.766   0.761
31942SOL    HW297666   8.028   1.876   0.674
31943SOL     OW97667   0.828   7.719   7.390
31943SOL    HW197668   0.809   7.665   7.467
31943SOL    HW297669   0.779   7.800   7.405
31944SOL     OW97670   9.581   8.746   9.755
31944SOL    HW197671   9.505   8.691   9.736
31944SOL    HW297672   9.656   8.693   9.726
31945SOL     OW97673   3.857   5.637   5.847
31945SOL    HW197674   3.878   5.558   5.796
31945SOL    HW297675   3.847   5.605   5.937
31946SOL     OW97676  10.356   3.829   2.261
31946SOL    HW197677  10.372   3.755   2.203
31946SOL    HW297678  10.397   3.903   2.217
31947SOL     OW97679  13.313   4.887  14.283
31947SOL    HW197680  13.235   4.910  14.234
31947SOL    HW297681  13.299   4.797  14.311
31948SOL     OW97682   7.794   1.688   2.081
31948SOL    HW197683   7.833   1.644   2.005
31948SOL    HW297684   7.828   1.777   2.076
31949SOL     OW97685   0.334  11.151   5.881
31949SOL    HW197686   0.425  11.169   5.856
31949SOL    HW297687   0.341  11.096   5.959
31950SOL     OW97688  10.042  10.641   1.866
31950SOL    HW197689   9.998  10.561   1.894
31950SOL    HW297690   9.990  10.673   1.793
31951SOL     OW97691  13.703  13.282   8.318
31951SOL    HW197692  13.625  13.226   8.315
31951SOL    HW297693  13.684  13.345   8.387
31952SOL     OW97694   4.165   8.036   5.495
31952SOL    HW197695   4.168   8.059   5.402
31952SOL    HW297696   4.076   8.060   5.522
31953SOL     OW97697   1.932   5.538  12.291
31953SOL    HW197698   1.983   5.517  12.213
31953SOL    HW297699   1.857   5.587  12.258
31954SOL     OW97700   5.194  11.749   9.970
31954SOL    HW197701   5.126  11.755  10.037
31954SOL    HW297702   5.260  11.813   9.996
31955SOL     OW97703   1.561   5.066   8.898
31955SOL    HW197704   1.614   5.019   8.834
31955SOL    HW297705   1.484   5.094   8.849
31956SOL     OW97706  12.841   6.098   7.811
31956SOL    HW197707  12.808   6.042   7.882
31956SOL    HW297708  12.866   6.180   7.854
31957SOL     OW97709   7.172   5.004  10.198
31957SOL    HW197710   7.216   5.004  10.113
31957SOL    HW297711   7.230   5.054  10.256
31958SOL     OW97712   6.430   8.186   6.552
31958SOL    HW197713   6.452   8.279   6.544
31958SOL    HW297714   6.348   8.176   6.502
31959SOL     OW97715   4.478   5.071  11.121
31959SOL    HW197716   4.393   5.029  11.115
31959SOL    HW297717   4.540   4.999  11.130
31960SOL     OW97718   3.621   5.305  11.699
31960SOL    HW197719   3.577   5.349  11.772
31960SOL    HW297720   3.697   5.360  11.680
31961SOL     OW97721   4.526   5.368   7.605
31961SOL    HW197722   4.540   5.299   7.670
31961SOL    HW297723   4.468   5.431   7.648
31962SOL     OW97724  12.726   8.464   0.257
31962SOL    HW197725  12.652   8.412   0.228
31962SOL    HW297726  12.778   8.405   0.310
31963SOL     OW97727  11.236  13.631  11.125
31963SOL    HW197728  11.193  13.637  11.210
31963SOL    HW297729  11.227  13.719  11.087
31964SOL     OW97730   8.979   3.896   6.962
31964SOL    HW197731   9.015   3.875   6.875
31964SOL    HW297732   8.950   3.813   6.997
31965SOL     OW97733  11.133  13.611   0.845
31965SOL    HW197734  11.109  13.661   0.767
31965SOL    HW297735  11.055  13.558   0.863
31966SOL     OW97736   7.436  13.640  11.787
31966SOL    HW197737   7.513  13.680  11.827
31966SOL    HW297738   7.465  13.617  11.698
31967SOL     OW97739   8.399   5.491  11.454
31967SOL    HW197740   8.396   5.540  11.536
31967SOL    HW297741   8.482   5.516  11.414
31968SOL     OW97742   7.179  12.156   3.572
31968SOL    HW197743   7.137  12.123   3.651
31968SOL    HW297744   7.273  12.158   3.594
31969SOL     OW97745   3.447   9.720   6.931
31969SOL    HW197746   3.374   9.775   6.905
31969SOL    HW297747   3.445   9.722   7.027
31970SOL     OW97748   7.814   1.487   0.087
31970SOL    HW197749   7.783   1.538   0.162
31970SOL    HW297750   7.854   1.409   0.125
31971SOL     OW97751  13.577   9.985   3.346
31971SOL    HW197752  13.490  10.019   3.369
31971SOL    HW297753  13.631  10.063   3.334
31972SOL     OW97754   8.125  10.667   4.849
31972SOL    HW197755   8.212  10.696   4.823
31972SOL    HW297756   8.096  10.610   4.777
31973SOL     OW97757  11.180   2.632   1.875
31973SOL    HW197758  11.162   2.712   1.827
31973SOL    HW297759  11.225   2.576   1.811
31974SOL     OW97760   1.994   0.873   8.321
31974SOL    HW197761   2.041   0.794   8.347
31974SOL    HW297762   2.017   0.886   8.229
31975SOL     OW97763   2.136  10.123   4.499
31975SOL    HW197764   2.209  10.123   4.437
31975SOL    HW297765   2.136  10.035   4.536
31976SOL     OW97766   9.713  11.454   6.431
31976SOL    HW197767   9.706  11.411   6.346
31976SOL    HW297768   9.785  11.517   6.421
31977SOL     OW97769   1.100   4.389   8.507
31977SOL    HW197770   1.150   4.361   8.430
31977SOL    HW297771   1.009   4.377   8.482
31978SOL     OW97772  12.915  11.167   2.157
31978SOL    HW197773  12.835  11.218   2.147
31978SOL    HW297774  12.942  11.146   2.068
31979SOL     OW97775   6.345  12.600   5.233
31979SOL    HW197776   6.437  12.576   5.229
31979SOL    HW297777   6.341  12.688   5.196
31980SOL     OW97778   2.486   6.928   8.670
31980SOL    HW197779   2.468   6.902   8.760
31980SOL    HW297780   2.410   6.897   8.621
31981SOL     OW97781   1.546   7.725   2.465
31981SOL    HW197782   1.583   7.667   2.398
31981SOL    HW297783   1.607   7.799   2.469
31982SOL     OW97784   4.699   0.223  10.955
31982SOL    HW197785   4.608   0.252  10.945
31982SOL    HW297786   4.743   0.255  10.876
31983SOL     OW97787  11.780  10.197   1.083
31983SOL    HW197788  11.803  10.137   1.012
31983SOL    HW297789  11.795  10.147   1.163
31984SOL     OW97790   1.166   1.975   0.206
31984SOL    HW197791   1.115   1.914   0.154
31984SOL    HW297792   1.207   1.921   0.274
31985SOL     OW97793   8.304   0.681   6.416
31985SOL    HW197794   8.261   0.611   6.367
31985SOL    HW297795   8.368   0.636   6.472
31986SOL     OW97796   4.731   3.499   9.294
31986SOL    HW197797   4.736   3.469   9.203
31986SOL    HW297798   4.820   3.527   9.315
31987SOL     OW97799   0.992   2.440   8.239
31987SOL    HW197800   1.046   2.499   8.187
31987SOL    HW297801   0.922   2.495   8.274
31988SOL     OW97802   0.897  11.550  10.725
31988SOL    HW197803   0.907  11.526  10.633
31988SOL    HW297804   0.847  11.631  10.723
31989SOL     OW97805   8.115   2.383  11.955
31989SOL    HW197806   8.202   2.379  11.996
31989SOL    HW297807   8.061   2.429  12.018
31990SOL     OW97808   5.122   3.161   8.867
31990SOL    HW197809   5.154   3.148   8.957
31990SOL    HW297810   5.031   3.132   8.870
31991SOL     OW97811   6.475   3.021   9.545
31991SOL    HW197812   6.502   2.956   9.610
31991SOL    HW297813   6.433   2.970   9.476
31992SOL     OW97814  13.223   9.088   5.254
31992SOL    HW197815  13.264   9.002   5.245
31992SOL    HW297816  13.286   9.140   5.304
31993SOL     OW97817  14.411   2.834   7.692
31993SOL    HW197818  14.496   2.859   7.730
31993SOL    HW297819  14.422   2.848   7.598
31994SOL     OW97820  13.509   9.345  14.606
31994SOL    HW197821  13.535   9.340  14.514
31994SOL    HW297822  13.501   9.439  14.624
31995SOL     OW97823  14.813  14.065   0.627
31995SOL    HW197824   0.022  14.027   0.659
31995SOL    HW297825  14.819  14.158   0.648
31996SOL     OW97826   2.783  11.338  12.119
31996SOL    HW197827   2.798  11.247  12.092
31996SOL    HW297828   2.865  11.382  12.100
31997SOL     OW97829   9.006  11.379  11.762
31997SOL    HW197830   9.018  11.463  11.718
31997SOL    HW297831   9.003  11.315  11.692
31998SOL     OW97832   6.045   2.414  10.262
31998SOL    HW197833   6.066   2.497  10.219
31998SOL    HW297834   6.071   2.347  10.198
31999SOL     OW97835   4.272  13.281  12.579
31999SOL    HW197836   4.322  13.200  12.578
31999SOL    HW297837   4.333  13.347  12.611
32000SOL     OW97838   5.877   6.701   3.831
32000SOL    HW197839   5.945   6.729   3.770
32000SOL    HW297840   5.795   6.715   3.783
32001SOL     OW97841   5.065   9.405   4.227
32001SOL    HW197842   5.104   9.437   4.145
32001SOL    HW297843   5.131   9.346   4.263
32002SOL     OW97844   7.519   5.873   6.262
32002SOL    HW197845   7.599   5.880   6.209
32002SOL    HW297846   7.526   5.787   6.304
32003SOL     OW97847   9.415  10.374   0.897
32003SOL    HW197848   9.499  10.345   0.862
32003SOL    HW297849   9.406  10.465   0.867
32004SOL     OW97850  12.254   6.910   6.500
32004SOL    HW197851  12.263   7.001   6.472
32004SOL    HW297852  12.187   6.912   6.569
32005SOL     OW97853   6.550  11.434   3.501
32005SOL    HW197854   6.458  11.460   3.495
32005SOL    HW297855   6.596  11.497   3.446
32006SOL     OW97856   7.193   1.823  12.616
32006SOL    HW197857   7.152   1.740  12.595
32006SOL    HW297858   7.278   1.819  12.572
32007SOL     OW97859   8.119   7.956   5.120
32007SOL    HW197860   8.212   7.931   5.118
32007SOL    HW297861   8.074   7.878   5.153
32008SOL     OW97862   8.829   8.153  14.227
32008SOL    HW197863   8.845   8.123  14.317
32008SOL    HW297864   8.734   8.155  14.219
32009SOL     OW97865   5.994   4.268   0.755
32009SOL    HW197866   5.899   4.265   0.759
32009SOL    HW297867   6.016   4.236   0.667
32010SOL     OW97868   8.521  12.754   3.638
32010SOL    HW197869   8.496  12.797   3.720
32010SOL    HW297870   8.488  12.811   3.569
32011SOL     OW97871   5.382   1.108   7.710
32011SOL    HW197872   5.452   1.172   7.718
32011SOL    HW297873   5.427   1.024   7.704
32012SOL     OW97874   4.587  12.936   3.990
32012SOL    HW197875   4.640  13.011   4.018
32012SOL    HW297876   4.625  12.909   3.907
32013SOL     OW97877   7.911  11.069   9.885
32013SOL    HW197878   7.832  11.122   9.891
32013SOL    HW297879   7.950  11.093   9.801
32014SOL     OW97880   1.353   9.221  12.184
32014SOL    HW197881   1.427   9.167  12.156
32014SOL    HW297882   1.349   9.291  12.119
32015SOL     OW97883   1.383  14.261  13.169
32015SOL    HW197884   1.476  14.242  13.181
32015SOL    HW297885   1.357  14.209  13.093
32016SOL     OW97886   7.199   8.834   1.316
32016SOL    HW197887   7.258   8.772   1.359
32016SOL    HW297888   7.112   8.813   1.351
32017SOL     OW97889   9.680  10.678   6.414
32017SOL    HW197890   9.585  10.670   6.403
32017SOL    HW297891   9.703  10.756   6.364
32018SOL     OW97892   7.184   4.444   9.236
32018SOL    HW197893   7.250   4.508   9.260
32018SOL    HW297894   7.125   4.440   9.311
32019SOL     OW97895   4.803   7.567  11.972
32019SOL    HW197896   4.779   7.504  12.039
32019SOL    HW297897   4.772   7.651  12.006
32020SOL     OW97898  13.807   6.138   1.167
32020SOL    HW197899  13.798   6.136   1.071
32020SOL    HW297900  13.894   6.102   1.184
32021SOL     OW97901  14.097   6.875   9.164
32021SOL    HW197902  14.108   6.971   9.168
32021SOL    HW297903  14.007   6.862   9.135
32022SOL     OW97904  11.313   0.561   1.177
32022SOL    HW197905  11.351   0.518   1.100
32022SOL    HW297906  11.229   0.517   1.190
32023SOL     OW97907   3.025   6.255  13.278
32023SOL    HW197908   3.089   6.280  13.212
32023SOL    HW297909   3.014   6.161  13.268
32024SOL     OW97910   3.320  13.807  12.603
32024SOL    HW197911   3.258  13.757  12.549
32024SOL    HW297912   3.303  13.778  12.692
32025SOL     OW97913  12.098  12.029   8.137
32025SOL    HW197914  12.167  12.090   8.113
32025SOL    HW297915  12.055  12.007   8.054
32026SOL     OW97916  13.281  11.881   2.903
32026SOL    HW197917  13.367  11.884   2.944
32026SOL    HW297918  13.236  11.960   2.934
32027SOL     OW97919   4.629   7.522   3.113
32027SOL    HW197920   4.700   7.584   3.129
32027SOL    HW297921   4.673   7.438   3.101
32028SOL     OW97922   9.749   9.609  14.605
32028SOL    HW197923   9.703   9.661  14.539
32028SOL    HW297924   9.767   9.525  14.562
32029SOL     OW97925   9.674   4.504   3.521
32029SOL    HW197926   9.598   4.562   3.509
32029SOL    HW297927   9.655   4.428   3.466
32030SOL     OW97928  13.985   1.150  10.543
32030SOL    HW197929  13.963   1.059  10.559
32030SOL    HW297930  13.953   1.197  10.620
32031SOL     OW97931  13.478   0.709   3.918
32031SOL    HW197932  13.467   0.777   3.851
32031SOL    HW297933  13.422   0.738   3.990
32032SOL     OW97934  10.656  10.614   3.617
32032SOL    HW197935  10.576  10.567   3.592
32032SOL    HW297936  10.720  10.589   3.550
32033SOL     OW97937  11.167   0.787  13.929
32033SOL    HW197938  11.206   0.849  13.867
32033SOL    HW297939  11.224   0.710  13.925
32034SOL     OW97940   5.069  10.379  13.651
32034SOL    HW197941   5.026  10.398  13.735
32034SOL    HW297942   5.057  10.285  13.638
32035SOL     OW97943   8.251  13.032   1.473
32035SOL    HW197944   8.319  12.996   1.531
32035SOL    HW297945   8.280  13.122   1.456
32036SOL     OW97946   3.576   0.332   4.219
32036SOL    HW197947   3.638   0.377   4.161
32036SOL    HW297948   3.500   0.313   4.163
32037SOL     OW97949  13.885   7.551   7.812
32037SOL    HW197950  13.848   7.585   7.731
32037SOL    HW297951  13.879   7.623   7.874
32038SOL     OW97952   8.183   6.138   4.990
32038SOL    HW197953   8.126   6.106   4.921
32038SOL    HW297954   8.151   6.226   5.009
32039SOL     OW97955   7.184   6.680   0.727
32039SOL    HW197956   7.256   6.715   0.673
32039SOL    HW297957   7.203   6.712   0.815
32040SOL     OW97958   4.706  12.578   4.959
32040SOL    HW197959   4.642  12.641   4.994
32040SOL    HW297960   4.754  12.628   4.893
32041SOL     OW97961   8.454  11.648   2.318
32041SOL    HW197962   8.530  11.695   2.353
32041SOL    HW297963   8.439  11.577   2.380
32042SOL     OW97964  12.441   4.102  11.430
32042SOL    HW197965  12.428   4.019  11.384
32042SOL    HW297966  12.353   4.126  11.460
32043SOL     OW97967  13.142   8.300   2.667
32043SOL    HW197968  13.057   8.263   2.645
32043SOL    HW297969  13.124   8.367   2.733
32044SOL     OW97970  14.148  11.567  13.043
32044SOL    HW197971  14.196  11.579  13.125
32044SOL    HW297972  14.124  11.655  13.017
32045SOL     OW97973   9.140   8.269   9.990
32045SOL    HW197974   9.050   8.302   9.992
32045SOL    HW297975   9.178   8.307   9.911
32046SOL     OW97976   4.649   9.697   1.953
32046SOL    HW197977   4.676   9.691   1.861
32046SOL    HW297978   4.635   9.790   1.968
32047SOL     OW97979  14.275   3.699   1.922
32047SOL    HW197980  14.261   3.754   1.845
32047SOL    HW297981  14.229   3.618   1.903
32048SOL     OW97982  14.131   4.393   2.870
32048SOL    HW197983  14.100   4.308   2.838
32048SOL    HW297984  14.178   4.372   2.951
32049SOL     OW97985  12.132   1.327   5.927
32049SOL    HW197986  12.139   1.301   6.019
32049SOL    HW297987  12.047   1.372   5.921
32050SOL     OW97988  11.300   5.801   8.244
32050SOL    HW197989  11.268   5.876   8.295
32050SOL    HW297990  11.392   5.822   8.228
32051SOL     OW97991   9.794  14.355   3.000
32051SOL    HW197992   9.714  14.306   2.981
32051SOL    HW297993   9.766  14.446   3.002
32052SOL     OW97994  10.065   3.695   1.831
32052SOL    HW197995  10.090   3.689   1.739
32052SOL    HW297996  10.139   3.656   1.878
32053SOL     OW97997   3.567   8.908  10.290
32053SOL    HW197998   3.510   8.956  10.230
32053SOL    HW297999   3.602   8.836  10.238
32054SOL     OW98000   4.775   1.640   5.771
32054SOL    HW198001   4.847   1.632   5.835
32054SOL    HW298002   4.811   1.696   5.702
32055SOL     OW98003   4.745  12.369  14.615
32055SOL    HW198004   4.700  12.421  14.681
32055SOL    HW298005   4.762  12.431  14.544
32056SOL     OW98006  10.084   3.796  13.372
32056SOL    HW198007  10.071   3.888  13.350
32056SOL    HW298008  10.111   3.755  13.289
32057SOL     OW98009  10.180  12.724   6.995
32057SOL    HW198010  10.119  12.795   7.016
32057SOL    HW298011  10.165  12.659   7.063
32058SOL     OW98012   3.219  13.548  13.608
32058SOL    HW198013   3.229  13.604  13.530
32058SOL    HW298014   3.290  13.575  13.666
32059SOL     OW98015   6.958   7.350   7.707
32059SOL    HW198016   6.995   7.372   7.792
32059SOL    HW298017   6.943   7.255   7.711
32060SOL     OW98018   7.799   6.716  12.901
32060SOL    HW198019   7.796   6.805  12.866
32060SOL    HW298020   7.707   6.688  12.902
32061SOL     OW98021   1.049  12.634   8.677
32061SOL    HW198022   1.106  12.622   8.753
32061SOL    HW298023   0.969  12.672   8.713
32062SOL     OW98024   1.273  12.594   8.495
32062SOL    HW198025   1.220  12.594   8.574
32062SOL    HW298026   1.322  12.512   8.499
32063SOL     OW98027  11.195  13.660  12.710
32063SOL    HW198028  11.214  13.753  12.712
32063SOL    HW298029  11.268  13.619  12.757
32064SOL     OW98030   8.318  12.784   7.915
32064SOL    HW198031   8.408  12.780   7.947
32064SOL    HW298032   8.299  12.695   7.885
32065SOL     OW98033   5.517  13.844   5.309
32065SOL    HW198034   5.543  13.785   5.239
32065SOL    HW298035   5.431  13.876   5.282
32066SOL     OW98036   4.894   2.541   2.873
32066SOL    HW198037   4.963   2.562   2.935
32066SOL    HW298038   4.830   2.492   2.924
32067SOL     OW98039   8.471  10.446   3.402
32067SOL    HW198040   8.425  10.393   3.336
32067SOL    HW298041   8.478  10.389   3.478
32068SOL     OW98042   2.122   5.154   3.663
32068SOL    HW198043   2.214   5.180   3.673
32068SOL    HW298044   2.074   5.237   3.669
32069SOL     OW98045   2.639  14.468   2.419
32069SOL    HW198046   2.566  14.416   2.452
32069SOL    HW298047   2.624  14.556   2.455
32070SOL     OW98048   0.801   1.402   4.130
32070SOL    HW198049   0.731   1.452   4.087
32070SOL    HW298050   0.800   1.318   4.084
32071SOL     OW98051  14.657   6.735   6.965
32071SOL    HW198052  14.647   6.822   7.002
32071SOL    HW298053  14.580   6.723   6.910
32072SOL     OW98054  13.862   9.611   0.848
32072SOL    HW198055  13.889   9.682   0.906
32072SOL    HW298056  13.911   9.535   0.878
32073SOL     OW98057   2.868   7.759   2.547
32073SOL    HW198058   2.949   7.729   2.587
32073SOL    HW298059   2.893   7.785   2.458
32074SOL     OW98060   3.507   9.724   4.606
32074SOL    HW198061   3.499   9.759   4.695
32074SOL    HW298062   3.419   9.691   4.585
32075SOL     OW98063   7.424   9.842   8.756
32075SOL    HW198064   7.351   9.886   8.713
32075SOL    HW298065   7.425   9.754   8.719
32076SOL     OW98066   0.484   0.066   0.518
32076SOL    HW198067   0.425   0.033   0.450
32076SOL    HW298068   0.451   0.154   0.537
32077SOL     OW98069  14.646   5.469  13.709
32077SOL    HW198070  14.604   5.501  13.629
32077SOL    HW298071  14.738   5.458  13.685
32078SOL     OW98072   3.205   2.297  14.515
32078SOL    HW198073   3.178   2.388  14.506
32078SOL    HW298074   3.211   2.283  14.609
32079SOL     OW98075   7.105   0.814   1.793
32079SOL    HW198076   7.064   0.800   1.879
32079SOL    HW298077   7.182   0.756   1.793
32080SOL     OW98078   1.042   6.384   0.628
32080SOL    HW198079   0.994   6.448   0.681
32080SOL    HW298080   0.974   6.324   0.596
32081SOL     OW98081   1.666   6.270  11.624
32081SOL    HW198082   1.751   6.228  11.614
32081SOL    HW298083   1.605   6.198  11.637
32082SOL     OW98084   5.172   2.059   2.254
32082SOL    HW198085   5.258   2.101   2.246
32082SOL    HW298086   5.179   2.007   2.334
32083SOL     OW98087  13.677   1.017   5.988
32083SOL    HW198088  13.691   1.086   6.052
32083SOL    HW298089  13.583   1.019   5.972
32084SOL     OW98090   7.877   7.571   4.057
32084SOL    HW198091   7.964   7.583   4.095
32084SOL    HW298092   7.886   7.493   4.002
32085SOL     OW98093   1.399  14.099   3.267
32085SOL    HW198094   1.378  14.009   3.294
32085SOL    HW298095   1.419  14.144   3.348
32086SOL     OW98096   4.431  14.732   1.448
32086SOL    HW198097   4.395  14.737   1.359
32086SOL    HW298098   4.518  14.771   1.441
32087SOL     OW98099  12.812   4.256   4.892
32087SOL    HW198100  12.772   4.184   4.942
32087SOL    HW298101  12.906   4.240   4.897
32088SOL     OW98102   9.200   8.558  12.263
32088SOL    HW198103   9.210   8.651  12.282
32088SOL    HW298104   9.160   8.556  12.176
32089SOL     OW98105  12.543  13.138  14.407
32089SOL    HW198106  12.509  13.225  14.384
32089SOL    HW298107  12.540  13.089  14.325
32090SOL     OW98108   2.126   6.429   6.042
32090SOL    HW198109   2.045   6.420   5.992
32090SOL    HW298110   2.195   6.399   5.982
32091SOL     OW98111  11.188   6.925  10.567
32091SOL    HW198112  11.102   6.906  10.605
32091SOL    HW298113  11.218   7.003  10.614
32092SOL     OW98114   1.192   1.475   2.896
32092SOL    HW198115   1.246   1.399   2.879
32092SOL    HW298116   1.107   1.454   2.855
32093SOL     OW98117   2.031   1.159   2.965
32093SOL    HW198118   2.088   1.193   2.896
32093SOL    HW298119   2.044   1.065   2.962
32094SOL     OW98120   4.652   3.779   2.333
32094SOL    HW198121   4.557   3.785   2.324
32094SOL    HW298122   4.680   3.725   2.259
32095SOL     OW98123   6.713   8.633   7.980
32095SOL    HW198124   6.675   8.711   8.020
32095SOL    HW298125   6.654   8.610   7.909
32096SOL     OW98126   7.305  11.131   2.109
32096SOL    HW198127   7.333  11.212   2.151
32096SOL    HW298128   7.365  11.120   2.035
32097SOL     OW98129   2.577  11.727   6.655
32097SOL    HW198130   2.640  11.763   6.593
32097SOL    HW298131   2.565  11.795   6.720
32098SOL     OW98132  11.887   6.000   3.145
32098SOL    HW198133  11.794   6.016   3.133
32098SOL    HW298134  11.924   6.087   3.162
32099SOL     OW98135   4.701   6.396  13.264
32099SOL    HW198136   4.623   6.380  13.211
32099SOL    HW298137   4.770   6.346  13.221
32100SOL     OW98138   5.385  10.116  12.221
32100SOL    HW198139   5.381  10.209  12.243
32100SOL    HW298140   5.304  10.080  12.258
32101SOL     OW98141   4.564   9.609   5.115
32101SOL    HW198142   4.646   9.658   5.110
32101SOL    HW298143   4.496   9.671   5.087
32102SOL     OW98144   0.205   8.398  10.253
32102SOL    HW198145   0.253   8.370  10.175
32102SOL    HW298146   0.253   8.360  10.327
32103SOL     OW98147   5.896   3.324   7.086
32103SOL    HW198148   5.987   3.334   7.114
32103SOL    HW298149   5.852   3.404   7.114
32104SOL     OW98150   9.121   1.691   4.417
32104SOL    HW198151   9.186   1.630   4.382
32104SOL    HW298152   9.136   1.690   4.512
32105SOL     OW98153   5.143  10.745   1.287
32105SOL    HW198154   5.177  10.803   1.355
32105SOL    HW298155   5.216  10.688   1.265
32106SOL     OW98156   1.640  13.151   4.055
32106SOL    HW198157   1.718  13.206   4.062
32106SOL    HW298158   1.580  13.185   4.121
32107SOL     OW98159   0.636  10.793  10.499
32107SOL    HW198160   0.658  10.701  10.515
32107SOL    HW298161   0.628  10.799  10.404
32108SOL     OW98162   2.324   4.676  12.707
32108SOL    HW198163   2.377   4.736  12.760
32108SOL    HW298164   2.245   4.662  12.758
32109SOL     OW98165  10.032   6.152   6.786
32109SOL    HW198166  10.050   6.101   6.707
32109SOL    HW298167  10.106   6.211   6.794
32110SOL     OW98168   5.998   8.964   3.621
32110SOL    HW198169   5.933   8.924   3.563
32110SOL    HW298170   6.031   9.040   3.572
32111SOL     OW98171   3.605  11.251   2.000
32111SOL    HW198172   3.643  11.225   2.084
32111SOL    HW298173   3.666  11.218   1.934
32112SOL     OW98174  13.478   1.752  12.468
32112SOL    HW198175  13.539   1.717  12.403
32112SOL    HW298176  13.525   1.744  12.551
32113SOL     OW98177   6.507   7.391   9.255
32113SOL    HW198178   6.503   7.300   9.226
32113SOL    HW298179   6.444   7.397   9.326
32114SOL     OW98180   0.957  11.162  11.589
32114SOL    HW198181   0.932  11.070  11.600
32114SOL    HW298182   1.052  11.159  11.572
32115SOL     OW98183   9.135   0.415   5.160
32115SOL    HW198184   9.080   0.393   5.084
32115SOL    HW298185   9.076   0.460   5.220
32116SOL     OW98186  11.246  10.852   8.206
32116SOL    HW198187  11.305  10.780   8.226
32116SOL    HW298188  11.182  10.851   8.277
32117SOL     OW98189  13.257  10.228   0.603
32117SOL    HW198190  13.198  10.290   0.559
32117SOL    HW298191  13.223  10.142   0.580
32118SOL     OW98192   0.464  12.677   8.673
32118SOL    HW198193   0.503  12.654   8.757
32118SOL    HW298194   0.491  12.767   8.657
32119SOL     OW98195  10.547   8.392  12.521
32119SOL    HW198196  10.583   8.312  12.561
32119SOL    HW298197  10.621   8.452  12.517
32120SOL     OW98198   6.940   9.201   5.300
32120SOL    HW198199   6.982   9.160   5.225
32120SOL    HW298200   6.850   9.167   5.299
32121SOL     OW98201   5.310  14.683   3.842
32121SOL    HW198202   5.376  14.654   3.779
32121SOL    HW298203   5.290  14.604   3.893
32122SOL     OW98204   1.977   6.105   3.539
32122SOL    HW198205   2.027   6.056   3.605
32122SOL    HW298206   1.981   6.051   3.461
32123SOL     OW98207   1.378   2.418  10.934
32123SOL    HW198208   1.379   2.326  10.906
32123SOL    HW298209   1.432   2.463  10.869
32124SOL     OW98210   6.288   8.743   6.262
32124SOL    HW198211   6.377   8.739   6.298
32124SOL    HW298212   6.236   8.781   6.333
32125SOL     OW98213  10.348   0.993   8.143
32125SOL    HW198214  10.336   0.910   8.189
32125SOL    HW298215  10.279   1.049   8.178
32126SOL     OW98216  10.765   8.983  11.938
32126SOL    HW198217  10.679   8.943  11.946
32126SOL    HW298218  10.749   9.077  11.945
32127SOL     OW98219  11.447  10.439   7.625
32127SOL    HW198220  11.478  10.389   7.701
32127SOL    HW298221  11.477  10.388   7.550
32128SOL     OW98222  10.237   4.343   2.173
32128SOL    HW198223  10.324   4.320   2.206
32128SOL    HW298224  10.252   4.365   2.081
32129SOL     OW98225   8.193   5.527  13.526
32129SOL    HW198226   8.286   5.507  13.516
32129SOL    HW298227   8.186   5.620  13.508
32130SOL     OW98228   5.303   2.768   5.355
32130SOL    HW198229   5.228   2.715   5.328
32130SOL    HW298230   5.265   2.852   5.381
32131SOL     OW98231   8.072   7.036   3.030
32131SOL    HW198232   8.156   7.068   3.064
32131SOL    HW298233   8.008   7.059   3.098
32132SOL     OW98234  12.644  10.937  13.816
32132SOL    HW198235  12.638  10.842  13.828
32132SOL    HW298236  12.702  10.967  13.885
32133SOL     OW98237   2.267   6.816   6.533
32133SOL    HW198238   2.348   6.865   6.548
32133SOL    HW298239   2.230   6.803   6.620
32134SOL     OW98240   2.677   4.857   3.450
32134SOL    HW198241   2.712   4.800   3.381
32134SOL    HW298242   2.749   4.914   3.473
32135SOL     OW98243   3.693   5.040  11.327
32135SOL    HW198244   3.639   5.118  11.314
32135SOL    HW298245   3.674   4.985  11.250
32136SOL     OW98246  10.871   2.030   3.853
32136SOL    HW198247  10.925   2.008   3.928
32136SOL    HW298248  10.910   2.110   3.817
32137SOL     OW98249   4.281   6.357  12.965
32137SOL    HW198250   4.229   6.329  12.890
32137SOL    HW298251   4.243   6.441  12.991
32138SOL     OW98252  11.735   7.370  10.349
32138SOL    HW198253  11.711   7.373  10.257
32138SOL    HW298254  11.831   7.361  10.349
32139SOL     OW98255  13.767   6.663  14.194
32139SOL    HW198256  13.705   6.605  14.148
32139SOL    HW298257  13.748   6.750  14.159
32140SOL     OW98258   3.787   8.864  13.555
32140SOL    HW198259   3.713   8.890  13.610
32140SOL    HW298260   3.748   8.848  13.469
32141SOL     OW98261   3.412  13.349   1.065
32141SOL    HW198262   3.378  13.419   1.008
32141SOL    HW298263   3.458  13.290   1.005
32142SOL     OW98264  13.729   7.235  12.746
32142SOL    HW198265  13.785   7.181  12.691
32142SOL    HW298266  13.673   7.172  12.792
32143SOL     OW98267   8.255  14.820   2.518
32143SOL    HW198268   8.337  14.808   2.566
32143SOL    HW298269   8.279   0.001   2.443
32144SOL     OW98270   2.023   4.355   1.567
32144SOL    HW198271   1.993   4.264   1.560
32144SOL    HW298272   2.000   4.394   1.483
32145SOL     OW98273   9.722   4.428   1.774
32145SOL    HW198274   9.636   4.386   1.778
32145SOL    HW298275   9.759   4.415   1.861
32146SOL     OW98276   6.124  12.180   8.184
32146SOL    HW198277   6.210  12.213   8.158
32146SOL    HW298278   6.067  12.204   8.111
32147SOL     OW98279   8.914  11.898  13.339
32147SOL    HW198280   8.878  11.842  13.407
32147SOL    HW298281   8.848  11.966  13.326
32148SOL     OW98282  10.256   5.588   8.073
32148SOL    HW198283  10.293   5.558   8.155
32148SOL    HW298284  10.194   5.657   8.098
32149SOL     OW98285  13.044   0.853   9.756
32149SOL    HW198286  13.131   0.845   9.716
32149SOL    HW298287  13.061   0.863   9.850
32150SOL     OW98288  12.950   2.699  11.499
32150SOL    HW198289  12.945   2.675  11.406
32150SOL    HW298290  12.991   2.623  11.541
32151SOL     OW98291  14.567   6.411  11.935
32151SOL    HW198292  14.493   6.443  11.986
32151SOL    HW298293  14.639   6.404  11.998
32152SOL     OW98294   6.582  10.094   7.353
32152SOL    HW198295   6.639  10.168   7.332
32152SOL    HW298296   6.536  10.120   7.432
32153SOL     OW98297   5.275  10.507   6.862
32153SOL    HW198298   5.339  10.548   6.920
32153SOL    HW298299   5.197  10.496   6.916
32154SOL     OW98300   1.922  10.027   3.851
32154SOL    HW198301   1.927  10.001   3.943
32154SOL    HW298302   1.988   9.973   3.808
32155SOL     OW98303   3.216  11.982   7.833
32155SOL    HW198304   3.309  11.959   7.842
32155SOL    HW298305   3.183  11.983   7.923
32156SOL     OW98306   9.476  12.362   5.878
32156SOL    HW198307   9.548  12.401   5.927
32156SOL    HW298308   9.407  12.348   5.943
32157SOL     OW98309   4.403  14.254   6.454
32157SOL    HW198310   4.318  14.219   6.479
32157SOL    HW298311   4.445  14.184   6.403
32158SOL     OW98312   5.742   9.996   1.280
32158SOL    HW198313   5.784  10.062   1.335
32158SOL    HW298314   5.651  10.026   1.271
32159SOL     OW98315  10.618  12.512   4.134
32159SOL    HW198316  10.524  12.524   4.127
32159SOL    HW298317  10.654  12.601   4.134
32160SOL     OW98318  14.714   4.807   7.195
32160SOL    HW198319  14.633   4.766   7.223
32160SOL    HW298320  14.687   4.890   7.155
32161SOL     OW98321   2.225   7.766   2.610
32161SOL    HW198322   2.259   7.682   2.581
32161SOL    HW298323   2.133   7.764   2.584
32162SOL     OW98324   6.402   1.487   4.906
32162SOL    HW198325   6.448   1.462   4.986
32162SOL    HW298326   6.348   1.561   4.932
32163SOL     OW98327  10.814  11.228   3.805
32163SOL    HW198328  10.776  11.150   3.766
32163SOL    HW298329  10.756  11.249   3.879
32164SOL     OW98330   6.539  14.273   0.917
32164SOL    HW198331   6.591  14.228   0.982
32164SOL    HW298332   6.521  14.208   0.850
32165SOL     OW98333   2.651   4.333  11.535
32165SOL    HW198334   2.740   4.367  11.543
32165SOL    HW298335   2.599   4.410  11.510
32166SOL     OW98336   4.385   1.211   3.958
32166SOL    HW198337   4.315   1.277   3.958
32166SOL    HW298338   4.388   1.179   3.868
32167SOL     OW98339   6.695  14.369   8.896
32167SOL    HW198340   6.693  14.405   8.984
32167SOL    HW298341   6.698  14.445   8.838
32168SOL     OW98342  14.362   8.761   8.388
32168SOL    HW198343  14.314   8.843   8.394
32168SOL    HW298344  14.450   8.787   8.361
32169SOL     OW98345  11.617   6.011  11.624
32169SOL    HW198346  11.692   5.993  11.568
32169SOL    HW298347  11.558   6.062  11.569
32170SOL     OW98348  12.539   7.430  11.562
32170SOL    HW198349  12.514   7.340  11.540
32170SOL    HW298350  12.456   7.472  11.584
32171SOL     OW98351  12.668  12.182   8.375
32171SOL    HW198352  12.651  12.178   8.469
32171SOL    HW298353  12.586  12.211   8.337
32172SOL     OW98354   3.555   5.446   9.848
32172SOL    HW198355   3.587   5.533   9.871
32172SOL    HW298356   3.514   5.457   9.762
32173SOL     OW98357   6.875   0.286   3.053
32173SOL    HW198358   6.924   0.317   3.129
32173SOL    HW298359   6.793   0.251   3.088
32174SOL     OW98360   6.098  12.479   0.990
32174SOL    HW198361   6.027  12.507   1.048
32174SOL    HW298362   6.174  12.470   1.047
32175SOL     OW98363  11.882  14.572   3.844
32175SOL    HW198364  11.825  14.496   3.834
32175SOL    HW298365  11.905  14.573   3.937
32176SOL     OW98366   6.214  10.594  13.056
32176SOL    HW198367   6.261  10.549  12.986
32176SOL    HW298368   6.122  10.578  13.037
32177SOL     OW98369   3.077   2.696  13.061
32177SOL    HW198370   3.018   2.627  13.092
32177SOL    HW298371   3.075   2.689  12.966
32178SOL     OW98372   4.281   0.727   0.218
32178SOL    HW198373   4.321   0.649   0.181
32178SOL    HW298374   4.246   0.699   0.302
32179SOL     OW98375   8.062   4.604   5.479
32179SOL    HW198376   8.058   4.513   5.450
32179SOL    HW298377   8.147   4.612   5.523
32180SOL     OW98378   1.055  14.443   0.636
32180SOL    HW198379   0.981  14.425   0.694
32180SOL    HW298380   1.132  14.436   0.692
32181SOL     OW98381  14.235  14.103  14.062
32181SOL    HW198382  14.295  14.175  14.041
32181SOL    HW298383  14.287  14.044  14.118
32182SOL     OW98384  13.200   3.499   9.735
32182SOL    HW198385  13.296   3.495   9.734
32182SOL    HW298386  13.174   3.423   9.788
32183SOL     OW98387  12.910   2.009  11.674
32183SOL    HW198388  12.939   1.925  11.710
32183SOL    HW298389  12.821   2.020  11.707
32184SOL     OW98390   4.463  11.074   0.454
32184SOL    HW198391   4.538  11.124   0.486
32184SOL    HW298392   4.423  11.038   0.533
32185SOL     OW98393   8.295  10.855  11.083
32185SOL    HW198394   8.297  10.876  11.177
32185SOL    HW298395   8.377  10.891  11.049
32186SOL     OW98396   7.472  11.644   3.180
32186SOL    HW198397   7.512  11.610   3.100
32186SOL    HW298398   7.516  11.598   3.251
32187SOL     OW98399  12.818  10.171   3.070
32187SOL    HW198400  12.761  10.123   3.129
32187SOL    HW298401  12.787  10.262   3.075
32188SOL     OW98402   0.340  11.816   7.013
32188SOL    HW198403   0.434  11.797   7.021
32188SOL    HW298404   0.326  11.833   6.920
32189SOL     OW98405   4.485   0.262   5.147
32189SOL    HW198406   4.414   0.315   5.184
32189SOL    HW298407   4.565   0.308   5.173
32190SOL     OW98408   7.906   3.710   4.492
32190SOL    HW198409   7.848   3.686   4.565
32190SOL    HW298410   7.993   3.713   4.532
32191SOL     OW98411  10.409   7.027   1.223
32191SOL    HW198412  10.314   7.029   1.232
32191SOL    HW298413  10.434   6.940   1.253
32192SOL     OW98414   5.587   5.366   3.992
32192SOL    HW198415   5.619   5.446   4.035
32192SOL    HW298416   5.533   5.398   3.920
32193SOL     OW98417  13.272  14.301   8.133
32193SOL    HW198418  13.197  14.361   8.132
32193SOL    HW298419  13.235  14.216   8.156
32194SOL     OW98420  10.714   4.903   0.156
32194SOL    HW198421  10.636   4.874   0.203
32194SOL    HW298422  10.685   4.980   0.107
32195SOL     OW98423   8.961  10.653   5.053
32195SOL    HW198424   8.870  10.639   5.026
32195SOL    HW298425   9.010  10.655   4.971
32196SOL     OW98426   3.782   4.308   2.913
32196SOL    HW198427   3.820   4.228   2.875
32196SOL    HW298428   3.731   4.277   2.988
32197SOL     OW98429  12.162   5.566   7.111
32197SOL    HW198430  12.251   5.563   7.147
32197SOL    HW298431  12.155   5.654   7.073
32198SOL     OW98432  10.242  11.710  11.720
32198SOL    HW198433  10.276  11.775  11.782
32198SOL    HW298434  10.273  11.626  11.754
32199SOL     OW98435   2.826   0.656   6.298
32199SOL    HW198436   2.901   0.596   6.293
32199SOL    HW298437   2.777   0.627   6.374
32200SOL     OW98438   9.560  12.801   7.662
32200SOL    HW198439   9.470  12.771   7.652
32200SOL    HW298440   9.600  12.787   7.576
32201SOL     OW98441   1.552   1.370   5.759
32201SOL    HW198442   1.641   1.349   5.733
32201SOL    HW298443   1.556   1.379   5.854
32202SOL     OW98444  10.358  14.801  11.123
32202SOL    HW198445  10.275  14.795  11.075
32202SOL    HW298446  10.351  14.734  11.192
32203SOL     OW98447   1.391  12.747  10.961
32203SOL    HW198448   1.358  12.690  11.031
32203SOL    HW298449   1.343  12.829  10.972
32204SOL     OW98450  13.032   9.987   9.215
32204SOL    HW198451  12.998  10.059   9.162
32204SOL    HW298452  12.997   9.908   9.174
32205SOL     OW98453   8.136   7.326   6.381
32205SOL    HW198454   8.216   7.362   6.420
32205SOL    HW298455   8.068   7.388   6.405
32206SOL     OW98456  13.532   7.478  10.374
32206SOL    HW198457  13.537   7.570  10.400
32206SOL    HW298458  13.553   7.429  10.453
32207SOL     OW98459   2.989   0.459   5.631
32207SOL    HW198460   2.957   0.523   5.568
32207SOL    HW298461   3.085   0.463   5.623
32208SOL     OW98462   3.160  10.895   6.907
32208SOL    HW198463   3.135  10.956   6.976
32208SOL    HW298464   3.078  10.854   6.880
32209SOL     OW98465   5.711   3.201   9.943
32209SOL    HW198466   5.649   3.273   9.933
32209SOL    HW298467   5.664   3.125   9.908
32210SOL     OW98468   4.687   5.669   4.503
32210SOL    HW198469   4.730   5.668   4.589
32210SOL    HW298470   4.632   5.590   4.504
32211SOL     OW98471   7.352   9.702   3.686
32211SOL    HW198472   7.359   9.760   3.610
32211SOL    HW298473   7.344   9.614   3.649
32212SOL     OW98474   1.577   2.737  11.693
32212SOL    HW198475   1.623   2.766  11.615
32212SOL    HW298476   1.486   2.764  11.679
32213SOL     OW98477   1.447  11.792   4.856
32213SOL    HW198478   1.451  11.867   4.796
32213SOL    HW298479   1.531  11.748   4.845
32214SOL     OW98480   2.219   0.581   5.755
32214SOL    HW198481   2.181   0.561   5.669
32214SOL    HW298482   2.311   0.602   5.736
32215SOL     OW98483  11.979   0.145   8.456
32215SOL    HW198484  12.038   0.195   8.512
32215SOL    HW298485  12.032   0.072   8.424
32216SOL     OW98486  10.219   8.886   8.318
32216SOL    HW198487  10.159   8.838   8.262
32216SOL    HW298488  10.305   8.875   8.276
32217SOL     OW98489   2.490  12.015   6.660
32217SOL    HW198490   2.522  12.068   6.733
32217SOL    HW298491   2.406  12.055   6.636
32218SOL     OW98492   0.662   8.290   6.183
32218SOL    HW198493   0.717   8.213   6.168
32218SOL    HW298494   0.656   8.333   6.098
32219SOL     OW98495   2.124   8.008   1.420
32219SOL    HW198496   2.137   8.050   1.505
32219SOL    HW298497   2.099   7.918   1.441
32220SOL     OW98498   3.110   1.542   7.745
32220SOL    HW198499   3.098   1.584   7.830
32220SOL    HW298500   3.198   1.504   7.750
32221SOL     OW98501   3.112  11.749   3.876
32221SOL    HW198502   3.030  11.777   3.836
32221SOL    HW298503   3.085  11.685   3.942
32222SOL     OW98504   0.475   8.073  10.788
32222SOL    HW198505   0.392   8.038  10.758
32222SOL    HW298506   0.453   8.126  10.865
32223SOL     OW98507   6.078   6.707  14.602
32223SOL    HW198508   5.994   6.685  14.642
32223SOL    HW298509   6.057   6.732  14.512
32224SOL     OW98510  11.686   4.191   5.317
32224SOL    HW198511  11.621   4.121   5.318
32224SOL    HW298512  11.733   4.181   5.400
32225SOL     OW98513   3.877  12.072  12.769
32225SOL    HW198514   3.894  12.132  12.842
32225SOL    HW298515   3.910  11.988  12.799
32226SOL     OW98516   3.451  14.686   7.188
32226SOL    HW198517   3.420  14.608   7.142
32226SOL    HW298518   3.414  14.759   7.139
32227SOL     OW98519   0.357  13.489   1.525
32227SOL    HW198520   0.360  13.534   1.441
32227SOL    HW298521   0.283  13.530   1.571
32228SOL     OW98522   2.048   6.507  11.560
32228SOL    HW198523   2.137   6.527  11.587
32228SOL    HW298524   1.992   6.549  11.625
32229SOL     OW98525  11.280  13.071   2.816
32229SOL    HW198526  11.312  13.160   2.801
32229SOL    HW298527  11.354  13.015   2.793
32230SOL     OW98528   7.864   9.104  12.502
32230SOL    HW198529   7.811   9.184  12.500
32230SOL    HW298530   7.944   9.128  12.454
32231SOL     OW98531  11.475   4.660  10.794
32231SOL    HW198532  11.417   4.721  10.839
32231SOL    HW298533  11.425   4.632  10.717
32232SOL     OW98534  12.975   8.021   1.240
32232SOL    HW198535  13.052   7.968   1.262
32232SOL    HW298536  13.006   8.081   1.172
32233SOL     OW98537   7.733  12.982   0.632
32233SOL    HW198538   7.757  12.942   0.548
32233SOL    HW298539   7.816  12.990   0.679
32234SOL     OW98540  11.818  11.704  14.733
32234SOL    HW198541  11.777  11.643  14.794
32234SOL    HW298542  11.866  11.766  14.788
32235SOL     OW98543   1.163   0.344   5.493
32235SOL    HW198544   1.102   0.416   5.511
32235SOL    HW298545   1.160   0.334   5.398
32236SOL     OW98546   2.835   5.490   9.514
32236SOL    HW198547   2.891   5.418   9.485
32236SOL    HW298548   2.827   5.476   9.609
32237SOL     OW98549  10.921  14.727  10.919
32237SOL    HW198550  11.011  14.741  10.948
32237SOL    HW298551  10.870  14.791  10.968
32238SOL     OW98552   6.710   3.615  10.867
32238SOL    HW198553   6.748   3.567  10.941
32238SOL    HW298554   6.688   3.547  10.803
32239SOL     OW98555   9.628   5.446   3.160
32239SOL    HW198556   9.689   5.438   3.233
32239SOL    HW298557   9.684   5.441   3.082
32240SOL     OW98558  11.522   4.450   6.423
32240SOL    HW198559  11.606   4.420   6.388
32240SOL    HW298560  11.459   4.385   6.392
32241SOL     OW98561   4.575  10.256  12.474
32241SOL    HW198562   4.639  10.231  12.407
32241SOL    HW298563   4.624  10.249  12.557
32242SOL     OW98564   4.611   7.599   5.666
32242SOL    HW198565   4.682   7.535   5.678
32242SOL    HW298566   4.541   7.549   5.623
32243SOL     OW98567  13.967   8.884   9.601
32243SOL    HW198568  13.902   8.889   9.671
32243SOL    HW298569  14.025   8.813   9.626
32244SOL     OW98570  12.718   1.139   9.605
32244SOL    HW198571  12.664   1.215   9.623
32244SOL    HW298572  12.807   1.167   9.627
32245SOL     OW98573  12.300  12.081   6.136
32245SOL    HW198574  12.308  12.138   6.059
32245SOL    HW298575  12.239  12.127   6.194
32246SOL     OW98576   2.019   1.693  12.001
32246SOL    HW198577   1.929   1.715  11.975
32246SOL    HW298578   2.011   1.658  12.089
32247SOL     OW98579   0.454  13.957   5.018
32247SOL    HW198580   0.506  13.919   4.948
32247SOL    HW298581   0.516  13.971   5.090
32248SOL     OW98582   8.305   7.961  11.457
32248SOL    HW198583   8.239   8.026  11.484
32248SOL    HW298584   8.297   7.956  11.362
32249SOL     OW98585   0.939  14.855   6.031
32249SOL    HW198586   1.016  14.807   6.000
32249SOL    HW298587   0.871  14.834   5.967
32250SOL     OW98588   3.466   7.902  13.418
32250SOL    HW198589   3.492   7.812  13.439
32250SOL    HW298590   3.431   7.937  13.500
32251SOL     OW98591   4.689   3.977   6.017
32251SOL    HW198592   4.744   4.041   6.062
32251SOL    HW298593   4.722   3.892   6.048
32252SOL     OW98594   5.301   2.509   4.109
32252SOL    HW198595   5.305   2.556   4.193
32252SOL    HW298596   5.369   2.443   4.116
32253SOL     OW98597  11.507   2.206  12.040
32253SOL    HW198598  11.549   2.223  11.956
32253SOL    HW298599  11.463   2.121  12.029
32254SOL     OW98600  10.905   5.307   1.667
32254SOL    HW198601  10.868   5.287   1.753
32254SOL    HW298602  10.849   5.377   1.633
32255SOL     OW98603  13.064   0.645  12.180
32255SOL    HW198604  13.009   0.699  12.237
32255SOL    HW298605  13.069   0.560  12.224
32256SOL     OW98606   8.651  11.854   1.835
32256SOL    HW198607   8.599  11.803   1.773
32256SOL    HW298608   8.659  11.797   1.912
32257SOL     OW98609  12.968   7.377   1.296
32257SOL    HW198610  13.022   7.300   1.283
32257SOL    HW298611  12.881   7.343   1.317
32258SOL     OW98612   7.147   4.312  13.471
32258SOL    HW198613   7.129   4.357  13.554
32258SOL    HW298614   7.118   4.374  13.404
32259SOL     OW98615   0.009   8.773   6.655
32259SOL    HW198616  14.852   8.806   6.571
32259SOL    HW298617   0.038   8.851   6.703
32260SOL     OW98618   9.697  12.009  10.694
32260SOL    HW198619   9.741  12.051  10.769
32260SOL    HW298620   9.644  12.079  10.656
32261SOL     OW98621   0.891  10.628   1.555
32261SOL    HW198622   0.834  10.643   1.630
32261SOL    HW298623   0.953  10.702   1.557
32262SOL     OW98624  12.635   3.205   9.740
32262SOL    HW198625  12.566   3.207   9.807
32262SOL    HW298626  12.714   3.233   9.787
32263SOL     OW98627  14.812   9.142  10.934
32263SOL    HW198628  14.791   9.198  11.008
32263SOL    HW298629  14.786   9.192  10.857
32264SOL     OW98630  13.594   9.253   3.869
32264SOL    HW198631  13.502   9.253   3.896
32264SOL    HW298632  13.644   9.252   3.951
32265SOL     OW98633   9.114  13.445   8.237
32265SOL    HW198634   9.104  13.355   8.209
32265SOL    HW298635   9.147  13.439   8.327
32266SOL     OW98636  10.956  14.338   7.157
32266SOL    HW198637  10.900  14.391   7.099
32266SOL    HW298638  10.895  14.298   7.219
32267SOL     OW98639   0.966  11.469   5.800
32267SOL    HW198640   0.996  11.542   5.746
32267SOL    HW298641   0.968  11.504   5.890
32268SOL     OW98642   3.721   1.683   5.063
32268SOL    HW198643   3.717   1.606   5.120
32268SOL    HW298644   3.764   1.653   4.984
32269SOL     OW98645   4.746   8.371   8.728
32269SOL    HW198646   4.755   8.279   8.749
32269SOL    HW298647   4.713   8.411   8.808
32270SOL     OW98648   3.895   0.015   7.136
32270SOL    HW198649   3.972   0.026   7.080
32270SOL    HW298650   3.930   0.015   7.225
32271SOL     OW98651  11.342   1.060   7.312
32271SOL    HW198652  11.412   0.995   7.324
32271SOL    HW298653  11.311   1.046   7.223
32272SOL     OW98654   7.224   6.579  11.066
32272SOL    HW198655   7.256   6.553  10.979
32272SOL    HW298656   7.221   6.498  11.115
32273SOL     OW98657   0.569  11.218   5.778
32273SOL    HW198658   0.568  11.259   5.691
32273SOL    HW298659   0.630  11.271   5.829
32274SOL     OW98660   9.829  13.251   3.197
32274SOL    HW198661   9.746  13.243   3.244
32274SOL    HW298662   9.805  13.240   3.105
32275SOL     OW98663   7.348   6.573  12.206
32275SOL    HW198664   7.287   6.541  12.139
32275SOL    HW298665   7.343   6.668  12.200
32276SOL     OW98666  14.117  10.062   1.368
32276SOL    HW198667  14.089   9.975   1.399
32276SOL    HW298668  14.201  10.077   1.411
32277SOL     OW98669   1.388   3.637   8.172
32277SOL    HW198670   1.341   3.640   8.089
32277SOL    HW298671   1.417   3.727   8.187
32278SOL     OW98672   1.329   7.572  12.293
32278SOL    HW198673   1.275   7.524  12.356
32278SOL    HW298674   1.308   7.532  12.208
32279SOL     OW98675   8.441  13.250  14.395
32279SOL    HW198676   8.393  13.303  14.331
32279SOL    HW298677   8.380  13.181  14.420
32280SOL     OW98678  14.791   0.235   3.994
32280SOL    HW198679  14.730   0.195   3.933
32280SOL    HW298680  14.781   0.184   4.075
32281SOL     OW98681   1.332  10.353   5.751
32281SOL    HW198682   1.274  10.276   5.745
32281SOL    HW298683   1.325  10.381   5.842
32282SOL     OW98684  11.637   8.638   8.100
32282SOL    HW198685  11.637   8.575   8.173
32282SOL    HW298686  11.545   8.654   8.082
32283SOL     OW98687  11.606   0.076   2.274
32283SOL    HW198688  11.603   0.021   2.195
32283SOL    HW298689  11.608   0.165   2.241
32284SOL     OW98690   5.273   4.030  12.560
32284SOL    HW198691   5.314   3.979  12.489
32284SOL    HW298692   5.312   3.996  12.640
32285SOL     OW98693  12.689  13.306   5.099
32285SOL    HW198694  12.762  13.310   5.160
32285SOL    HW298695  12.686  13.215   5.070
32286SOL     OW98696   6.081   9.114  11.630
32286SOL    HW198697   6.156   9.114  11.689
32286SOL    HW298698   6.055   9.206  11.624
32287SOL     OW98699   8.677   9.910  11.021
32287SOL    HW198700   8.611   9.870  10.965
32287SOL    HW298701   8.683   9.852  11.097
32288SOL     OW98702   2.520   2.714   4.071
32288SOL    HW198703   2.615   2.717   4.078
32288SOL    HW298704   2.494   2.806   4.063
32289SOL     OW98705   0.771   6.173   6.005
32289SOL    HW198706   0.841   6.238   5.998
32289SOL    HW298707   0.742   6.159   5.915
32290SOL     OW98708   4.737  14.206  14.806
32290SOL    HW198709   4.728  14.297  14.780
32290SOL    HW298710   4.796  14.168  14.740
32291SOL     OW98711   0.598  13.425  12.172
32291SOL    HW198712   0.671  13.486  12.180
32291SOL    HW298713   0.521  13.481  12.160
32292SOL     OW98714   0.048  12.171   9.473
32292SOL    HW198715   0.099  12.208   9.401
32292SOL    HW298716   0.112  12.154   9.542
32293SOL     OW98717  11.066   6.238   2.144
32293SOL    HW198718  11.027   6.320   2.174
32293SOL    HW298719  11.160   6.249   2.160
32294SOL     OW98720  12.338   3.439   4.007
32294SOL    HW198721  12.414   3.399   3.966
32294SOL    HW298722  12.350   3.533   3.995
32295SOL     OW98723   8.576   4.018   9.684
32295SOL    HW198724   8.559   3.945   9.744
32295SOL    HW298725   8.536   4.094   9.727
32296SOL     OW98726   3.883  14.367   1.995
32296SOL    HW198727   3.822  14.359   1.920
32296SOL    HW298728   3.826  14.382   2.070
32297SOL     OW98729  13.820  13.014   6.504
32297SOL    HW198730  13.855  13.093   6.461
32297SOL    HW298731  13.894  12.980   6.554
32298SOL     OW98732   0.730  13.518   4.168
32298SOL    HW198733   0.700  13.439   4.213
32298SOL    HW298734   0.756  13.488   4.081
32299SOL     OW98735   9.424   7.070  14.629
32299SOL    HW198736   9.510   7.054  14.668
32299SOL    HW298737   9.436   7.052  14.536
32300SOL     OW98738   4.137   9.377   7.395
32300SOL    HW198739   4.057   9.326   7.383
32300SOL    HW298740   4.135   9.442   7.325
32301SOL     OW98741   9.670   8.533   4.243
32301SOL    HW198742   9.669   8.531   4.339
32301SOL    HW298743   9.727   8.461   4.218
32302SOL     OW98744   2.681   5.960  14.170
32302SOL    HW198745   2.686   5.889  14.235
32302SOL    HW298746   2.757   5.945  14.113
32303SOL     OW98747  14.590   3.186  11.344
32303SOL    HW198748  14.640   3.114  11.306
32303SOL    HW298749  14.500   3.156  11.343
32304SOL     OW98750   4.154   0.105  13.797
32304SOL    HW198751   4.130   0.036  13.735
32304SOL    HW298752   4.221   0.065  13.853
32305SOL     OW98753   4.974  11.053   1.737
32305SOL    HW198754   5.065  11.069   1.715
32305SOL    HW298755   4.934  11.140   1.742
32306SOL     OW98756  10.509  12.071  12.829
32306SOL    HW198757  10.532  12.001  12.891
32306SOL    HW298758  10.418  12.053  12.807
32307SOL     OW98759   9.311  12.906  10.816
32307SOL    HW198760   9.220  12.927  10.794
32307SOL    HW298761   9.349  12.876  10.733
32308SOL     OW98762   1.142  12.251   9.224
32308SOL    HW198763   1.202  12.264   9.298
32308SOL    HW298764   1.157  12.327   9.167
32309SOL     OW98765   9.954  10.773   7.252
32309SOL    HW198766   9.992  10.832   7.318
32309SOL    HW298767  10.008  10.788   7.174
32310SOL     OW98768  13.389   6.578   1.626
32310SOL    HW198769  13.339   6.497   1.635
32310SOL    HW298770  13.361   6.614   1.542
32311SOL     OW98771   4.986   9.248   7.488
32311SOL    HW198772   4.937   9.218   7.564
32311SOL    HW298773   5.066   9.285   7.524
32312SOL     OW98774  10.935   7.068   6.482
32312SOL    HW198775  10.996   7.127   6.438
32312SOL    HW298776  10.874   7.042   6.414
32313SOL     OW98777   6.576  13.945  11.283
32313SOL    HW198778   6.643  13.925  11.348
32313SOL    HW298779   6.516  14.005  11.328
32314SOL     OW98780   0.857   0.890  13.956
32314SOL    HW198781   0.903   0.963  13.997
32314SOL    HW298782   0.914   0.814  13.972
32315SOL     OW98783   5.209  11.299   5.230
32315SOL    HW198784   5.146  11.369   5.248
32315SOL    HW298785   5.161  11.237   5.176
32316SOL     OW98786  14.288   2.091   4.303
32316SOL    HW198787  14.265   2.050   4.386
32316SOL    HW298788  14.265   2.026   4.237
32317SOL     OW98789   1.682   3.437   6.285
32317SOL    HW198790   1.658   3.344   6.281
32317SOL    HW298791   1.731   3.452   6.204
32318SOL     OW98792   1.215   7.105  12.931
32318SOL    HW198793   1.282   7.037  12.923
32318SOL    HW298794   1.153   7.087  12.860
32319SOL     OW98795   8.064  13.350  11.629
32319SOL    HW198796   8.110  13.433  11.631
32319SOL    HW298797   7.972  13.373  11.642
32320SOL     OW98798   8.178  13.393  10.163
32320SOL    HW198799   8.204  13.464  10.221
32320SOL    HW298800   8.233  13.319  10.190
32321SOL     OW98801   5.792  12.878   6.347
32321SOL    HW198802   5.708  12.860   6.304
32321SOL    HW298803   5.771  12.885   6.440
32322SOL     OW98804   7.180  10.553   8.893
32322SOL    HW198805   7.105  10.524   8.945
32322SOL    HW298806   7.204  10.477   8.841
32323SOL     OW98807   4.035   6.081   7.181
32323SOL    HW198808   4.016   6.175   7.183
32323SOL    HW298809   4.068   6.061   7.268
32324SOL     OW98810   5.551   8.425   8.520
32324SOL    HW198811   5.639   8.450   8.548
32324SOL    HW298812   5.531   8.486   8.449
32325SOL     OW98813   0.879  13.324   5.329
32325SOL    HW198814   0.880  13.262   5.401
32325SOL    HW298815   0.967  13.321   5.293
32326SOL     OW98816   1.482   4.194  11.030
32326SOL    HW198817   1.427   4.266  11.059
32326SOL    HW298818   1.421   4.127  11.000
32327SOL     OW98819  10.114  10.797   7.045
32327SOL    HW198820  10.156  10.883   7.040
32327SOL    HW298821  10.178  10.736   7.008
32328SOL     OW98822   5.997  11.947   0.106
32328SOL    HW198823   6.009  11.948   0.201
32328SOL    HW298824   5.986  11.855   0.084
32329SOL     OW98825   9.476   6.587  11.135
32329SOL    HW198826   9.491   6.570  11.042
32329SOL    HW298827   9.386   6.558  11.150
32330SOL     OW98828   0.689   8.911  10.917
32330SOL    HW198829   0.613   8.948  10.961
32330SOL    HW298830   0.714   8.977  10.852
32331SOL     OW98831   0.738  12.752  10.774
32331SOL    HW198832   0.750  12.833  10.823
32331SOL    HW298833   0.654  12.764  10.729
32332SOL     OW98834   2.039  14.457   1.580
32332SOL    HW198835   2.077  14.500   1.504
32332SOL    HW298836   1.967  14.405   1.545
32333SOL     OW98837  14.755  10.459   6.973
32333SOL    HW198838  14.850  10.454   6.960
32333SOL    HW298839  14.736  10.390   7.036
32334SOL     OW98840   2.170  13.779   3.049
32334SOL    HW198841   2.076  13.800   3.050
32334SOL    HW298842   2.210  13.854   3.005
32335SOL     OW98843  14.697  10.085   6.689
32335SOL    HW198844  14.629  10.017   6.695
32335SOL    HW298845  14.722  10.086   6.597
32336SOL     OW98846  14.019   2.938   3.064
32336SOL    HW198847  13.943   2.950   3.120
32336SOL    HW298848  14.023   3.019   3.013
32337SOL     OW98849   9.635   6.220   4.241
32337SOL    HW198850   9.625   6.187   4.152
32337SOL    HW298851   9.710   6.280   4.237
32338SOL     OW98852   2.879   9.666  13.307
32338SOL    HW198853   2.875   9.663  13.402
32338SOL    HW298854   2.935   9.741  13.287
32339SOL     OW98855  11.505  14.388   9.975
32339SOL    HW198856  11.578  14.412  10.031
32339SOL    HW298857  11.473  14.471   9.939
32340SOL     OW98858   3.770   5.339   3.277
32340SOL    HW198859   3.728   5.266   3.231
32340SOL    HW298860   3.716   5.415   3.257
32341SOL     OW98861  14.660  11.440   7.855
32341SOL    HW198862  14.655  11.345   7.850
32341SOL    HW298863  14.583  11.471   7.807
32342SOL     OW98864   1.261   6.629   0.058
32342SOL    HW198865   1.248   6.637  14.837
32342SOL    HW298866   1.329   6.693   0.078
32343SOL     OW98867   5.247   5.309   7.056
32343SOL    HW198868   5.341   5.287   7.056
32343SOL    HW298869   5.212   5.262   7.132
32344SOL     OW98870  10.049   2.809   1.768
32344SOL    HW198871  10.019   2.758   1.692
32344SOL    HW298872  10.143   2.793   1.772
32345SOL     OW98873  11.942  14.226   5.848
32345SOL    HW198874  11.997  14.159   5.808
32345SOL    HW298875  11.989  14.308   5.833
32346SOL     OW98876   4.752  10.660   4.354
32346SOL    HW198877   4.680  10.626   4.299
32346SOL    HW298878   4.822  10.678   4.292
32347SOL     OW98879   4.993   1.305  10.924
32347SOL    HW198880   5.064   1.366  10.905
32347SOL    HW298881   5.027   1.249  10.993
32348SOL     OW98882   0.461   7.558   2.892
32348SOL    HW198883   0.426   7.643   2.864
32348SOL    HW298884   0.494   7.518   2.812
32349SOL     OW98885   6.854   3.074   1.677
32349SOL    HW198886   6.919   3.010   1.649
32349SOL    HW298887   6.770   3.029   1.667
32350SOL     OW98888  11.505   8.050  13.148
32350SOL    HW198889  11.490   8.071  13.055
32350SOL    HW298890  11.492   8.134  13.193
32351SOL     OW98891  14.825   9.285   0.463
32351SOL    HW198892  14.798   9.376   0.479
32351SOL    HW298893  14.802   9.269   0.371
32352SOL     OW98894   2.044   2.236   8.557
32352SOL    HW198895   2.034   2.306   8.492
32352SOL    HW298896   1.976   2.173   8.535
32353SOL     OW98897   2.945  11.299  14.814
32353SOL    HW198898   2.909  11.245  14.743
32353SOL    HW298899   2.974  11.379  14.770
32354SOL     OW98900   7.935   0.407   3.277
32354SOL    HW198901   7.939   0.338   3.343
32354SOL    HW298902   7.953   0.488   3.326
32355SOL     OW98903   1.021  12.776   9.473
32355SOL    HW198904   0.959  12.749   9.540
32355SOL    HW298905   1.103  12.731   9.496
32356SOL     OW98906   5.401  14.601  12.438
32356SOL    HW198907   5.457  14.534  12.477
32356SOL    HW298908   5.378  14.566  12.353
32357SOL     OW98909   1.562  13.387   5.968
32357SOL    HW198910   1.474  13.398   6.002
32357SOL    HW298911   1.605  13.330   6.033
32358SOL     OW98912   5.284   0.171   5.914
32358SOL    HW198913   5.255   0.250   5.958
32358SOL    HW298914   5.379   0.172   5.923
32359SOL     OW98915   7.064  12.792  12.310
32359SOL    HW198916   7.101  12.705  12.326
32359SOL    HW298917   7.091  12.844  12.386
32360SOL     OW98918   0.744   6.068   2.720
32360SOL    HW198919   0.816   6.122   2.753
32360SOL    HW298920   0.666   6.123   2.728
32361SOL     OW98921  13.560   2.636  13.948
32361SOL    HW198922  13.541   2.723  13.913
32361SOL    HW298923  13.475   2.594  13.954
32362SOL     OW98924   0.849   8.226  10.779
32362SOL    HW198925   0.865   8.292  10.846
32362SOL    HW298926   0.827   8.147  10.827
32363SOL     OW98927  12.221  11.151   2.674
32363SOL    HW198928  12.249  11.226   2.727
32363SOL    HW298929  12.158  11.105   2.730
32364SOL     OW98930   5.412  13.726   0.133
32364SOL    HW198931   5.405  13.718   0.228
32364SOL    HW298932   5.447  13.641   0.104
32365SOL     OW98933   6.001  10.191   5.220
32365SOL    HW198934   5.911  10.160   5.221
32365SOL    HW298935   6.048  10.129   5.164
32366SOL     OW98936   7.697   1.838   0.170
32366SOL    HW198937   7.687   1.750   0.208
32366SOL    HW298938   7.642   1.894   0.226
32367SOL     OW98939  13.911  10.694   9.194
32367SOL    HW198940  13.830  10.745   9.194
32367SOL    HW298941  13.947  10.705   9.282
32368SOL     OW98942   7.041   2.303   3.078
32368SOL    HW198943   6.960   2.255   3.095
32368SOL    HW298944   7.043   2.371   3.145
32369SOL     OW98945   5.159  10.713   2.723
32369SOL    HW198946   5.131  10.628   2.759
32369SOL    HW298947   5.192  10.692   2.636
32370SOL     OW98948  11.672   2.524   7.350
32370SOL    HW198949  11.727   2.602   7.340
32370SOL    HW298950  11.716   2.456   7.299
32371SOL     OW98951   9.891  11.895   2.136
32371SOL    HW198952   9.867  11.984   2.162
32371SOL    HW298953   9.828  11.871   2.069
32372SOL     OW98954   7.482   5.862   5.375
32372SOL    HW198955   7.523   5.810   5.444
32372SOL    HW298956   7.390   5.870   5.402
32373SOL     OW98957   0.688  13.876   8.317
32373SOL    HW198958   0.653  13.928   8.390
32373SOL    HW298959   0.614  13.868   8.256
32374SOL     OW98960   7.771   9.786  13.447
32374SOL    HW198961   7.841   9.750  13.393
32374SOL    HW298962   7.726   9.848  13.390
32375SOL     OW98963   4.633   9.864   8.391
32375SOL    HW198964   4.596   9.876   8.304
32375SOL    HW298965   4.613   9.773   8.413
32376SOL     OW98966   4.249   7.924   4.641
32376SOL    HW198967   4.172   7.868   4.640
32376SOL    HW298968   4.258   7.951   4.732
32377SOL     OW98969   2.606   1.845   2.781
32377SOL    HW198970   2.599   1.756   2.746
32377SOL    HW298971   2.662   1.891   2.718
32378SOL     OW98972   6.752  10.510  12.530
32378SOL    HW198973   6.788  10.442  12.587
32378SOL    HW298974   6.811  10.511  12.454
32379SOL     OW98975   3.929  10.630   1.697
32379SOL    HW198976   3.920  10.543   1.660
32379SOL    HW298977   3.908  10.619   1.790
32380SOL     OW98978   5.470   3.252   8.892
32380SOL    HW198979   5.458   3.183   8.957
32380SOL    HW298980   5.561   3.281   8.904
32381SOL     OW98981   7.400  11.474   4.165
32381SOL    HW198982   7.454  11.422   4.105
32381SOL    HW298983   7.447  11.469   4.249
32382SOL     OW98984   1.716   8.356  12.689
32382SOL    HW198985   1.671   8.422  12.637
32382SOL    HW298986   1.660   8.344  12.766
32383SOL     OW98987   6.787  10.965   3.762
32383SOL    HW198988   6.793  11.043   3.817
32383SOL    HW298989   6.861  10.973   3.702
32384SOL     OW98990   9.542   5.830   8.788
32384SOL    HW198991   9.505   5.915   8.764
32384SOL    HW298992   9.503   5.811   8.873
32385SOL     OW98993   4.416   3.417   3.985
32385SOL    HW198994   4.380   3.360   3.918
32385SOL    HW298995   4.345   3.479   4.004
32386SOL     OW98996   2.498  13.700   6.006
32386SOL    HW198997   2.459  13.731   6.088
32386SOL    HW298998   2.435  13.637   5.971
32387SOL     OW98999  13.630   8.415   4.997
32387SOL    HW199000  13.724   8.435   5.001
32387SOL    HW299001  13.601   8.449   4.913
32388SOL     OW99002   4.729   9.200  10.899
32388SOL    HW199003   4.705   9.282  10.856
32388SOL    HW299004   4.650   9.175  10.947
32389SOL     OW99005  12.241  10.038   0.202
32389SOL    HW199006  12.322  10.083   0.227
32389SOL    HW299007  12.176  10.068   0.266
32390SOL     OW99008   1.241   2.102   1.038
32390SOL    HW199009   1.185   2.121   1.113
32390SOL    HW299010   1.330   2.116   1.070
32391SOL     OW99011   3.362   0.112   0.285
32391SOL    HW199012   3.284   0.167   0.280
32391SOL    HW299013   3.424   0.152   0.223
32392SOL     OW99014   5.551   7.470   5.637
32392SOL    HW199015   5.505   7.539   5.590
32392SOL    HW299016   5.611   7.433   5.572
32393SOL     OW99017   6.494  11.295   7.676
32393SOL    HW199018   6.448  11.296   7.760
32393SOL    HW299019   6.429  11.264   7.614
32394SOL     OW99020  10.623  13.803  12.467
32394SOL    HW199021  10.611  13.790  12.561
32394SOL    HW299022  10.593  13.721  12.427
32395SOL     OW99023   1.896  10.102   4.319
32395SOL    HW199024   1.821  10.044   4.331
32395SOL    HW299025   1.956  10.078   4.389
32396SOL     OW99026   1.225   7.290   2.744
32396SOL    HW199027   1.158   7.275   2.678
32396SOL    HW299028   1.212   7.380   2.773
32397SOL     OW99029   8.507  12.702   5.898
32397SOL    HW199030   8.512  12.760   5.822
32397SOL    HW299031   8.579  12.639   5.885
32398SOL     OW99032  11.733  10.396   8.086
32398SOL    HW199033  11.819  10.430   8.109
32398SOL    HW299034  11.741  10.301   8.095
32399SOL     OW99035  10.289   1.215  13.453
32399SOL    HW199036  10.355   1.186  13.391
32399SOL    HW299037  10.338   1.247  13.528
32400SOL     OW99038  12.299   3.831   1.089
32400SOL    HW199039  12.300   3.777   1.011
32400SOL    HW299040  12.244   3.784   1.151
32401SOL     OW99041  12.170   1.016   2.920
32401SOL    HW199042  12.087   1.040   2.878
32401SOL    HW299043  12.151   0.932   2.962
32402SOL     OW99044  12.212   8.594   5.810
32402SOL    HW199045  12.214   8.506   5.848
32402SOL    HW299046  12.125   8.602   5.771
32403SOL     OW99047   3.221   3.639   7.691
32403SOL    HW199048   3.156   3.571   7.709
32403SOL    HW299049   3.196   3.673   7.605
32404SOL     OW99050   1.797   1.431  11.052
32404SOL    HW199051   1.746   1.394  11.125
32404SOL    HW299052   1.888   1.417  11.077
32405SOL     OW99053   5.095   4.050   5.546
32405SOL    HW199054   5.072   3.964   5.513
32405SOL    HW299055   5.049   4.057   5.630
32406SOL     OW99056   4.961  10.574   3.522
32406SOL    HW199057   5.014  10.613   3.453
32406SOL    HW299058   4.942  10.485   3.490
32407SOL     OW99059   2.626   0.202   4.859
32407SOL    HW199060   2.541   0.190   4.817
32407SOL    HW299061   2.689   0.178   4.791
32408SOL     OW99062  12.224   8.922  10.977
32408SOL    HW199063  12.249   8.859  10.909
32408SOL    HW299064  12.129   8.917  10.982
32409SOL     OW99065   8.336  13.874   9.550
32409SOL    HW199066   8.264  13.918   9.506
32409SOL    HW299067   8.413  13.926   9.527
32410SOL     OW99068   6.902  10.824  10.255
32410SOL    HW199069   6.960  10.872  10.197
32410SOL    HW299070   6.857  10.762  10.198
32411SOL     OW99071  13.564   4.090   3.846
32411SOL    HW199072  13.618   4.070   3.769
32411SOL    HW299073  13.528   4.177   3.828
32412SOL     OW99074   9.890  10.068   0.769
32412SOL    HW199075   9.936   9.996   0.812
32412SOL    HW299076   9.869  10.129   0.840
32413SOL     OW99077   7.827   4.428   9.010
32413SOL    HW199078   7.834   4.400   9.101
32413SOL    HW299079   7.917   4.450   8.985
32414SOL     OW99080   1.547   0.124  12.346
32414SOL    HW199081   1.560   0.057  12.414
32414SOL    HW299082   1.516   0.201  12.393
32415SOL     OW99083   9.278  14.375   9.297
32415SOL    HW199084   9.342  14.447   9.301
32415SOL    HW299085   9.315  14.307   9.352
32416SOL     OW99086  14.304  12.075   0.697
32416SOL    HW199087  14.363  12.001   0.683
32416SOL    HW299088  14.316  12.130   0.619
32417SOL     OW99089   3.986   5.157   9.427
32417SOL    HW199090   3.999   5.246   9.396
32417SOL    HW299091   4.054   5.106   9.383
32418SOL     OW99092   6.607   9.861   7.720
32418SOL    HW199093   6.623   9.867   7.814
32418SOL    HW299094   6.561   9.777   7.709
32419SOL     OW99095   1.373  10.470  12.594
32419SOL    HW199096   1.434  10.543  12.605
32419SOL    HW299097   1.429  10.395  12.575
32420SOL     OW99098   1.261  11.322   0.399
32420SOL    HW199099   1.331  11.375   0.439
32420SOL    HW299100   1.202  11.386   0.359
32421SOL     OW99101   0.564   3.393   0.622
32421SOL    HW199102   0.563   3.356   0.710
32421SOL    HW299103   0.516   3.475   0.629
32422SOL     OW99104  13.722   9.047  10.989
32422SOL    HW199105  13.632   9.017  10.978
32422SOL    HW299106  13.737   9.104  10.914
32423SOL     OW99107  10.091   0.461   7.206
32423SOL    HW199108  10.174   0.509   7.211
32423SOL    HW299109  10.085   0.432   7.115
32424SOL     OW99110   7.851   9.963  10.390
32424SOL    HW199111   7.928  10.020  10.380
32424SOL    HW299112   7.859   9.928  10.479
32425SOL     OW99113   0.063   1.165   6.263
32425SOL    HW199114   0.052   1.229   6.192
32425SOL    HW299115   0.017   1.087   6.232
32426SOL     OW99116   0.189  13.820   9.949
32426SOL    HW199117   0.118  13.758   9.935
32426SOL    HW299118   0.152  13.906   9.929
32427SOL     OW99119   6.602  11.292   5.734
32427SOL    HW199120   6.592  11.265   5.825
32427SOL    HW299121   6.557  11.376   5.728
32428SOL     OW99122   2.203   3.408  11.377
32428SOL    HW199123   2.110   3.419  11.399
32428SOL    HW299124   2.247   3.479  11.422
32429SOL     OW99125   7.781  11.968   1.908
32429SOL    HW199126   7.845  11.910   1.948
32429SOL    HW299127   7.758  12.030   1.978
32430SOL     OW99128  11.900   1.735   0.003
32430SOL    HW199129  11.847   1.695  14.807
32430SOL    HW299130  11.874   1.689   0.083
32431SOL     OW99131   7.636  14.370   9.721
32431SOL    HW199132   7.654  14.448   9.668
32431SOL    HW299133   7.641  14.297   9.659
32432SOL     OW99134  13.481   3.538   0.763
32432SOL    HW199135  13.441   3.493   0.837
32432SOL    HW299136  13.475   3.476   0.691
32433SOL     OW99137  13.495  10.070   6.978
32433SOL    HW199138  13.466  10.088   6.888
32433SOL    HW299139  13.489  10.155   7.022
32434SOL     OW99140   1.826   1.867   2.920
32434SOL    HW199141   1.820   1.783   2.965
32434SOL    HW299142   1.840   1.932   2.989
32435SOL     OW99143   8.022   5.681   4.968
32435SOL    HW199144   8.080   5.756   4.970
32435SOL    HW299145   7.999   5.669   4.876
32436SOL     OW99146  13.513   6.186   6.769
32436SOL    HW199147  13.595   6.218   6.806
32436SOL    HW299148  13.458   6.169   6.845
32437SOL     OW99149   0.308   5.192   0.095
32437SOL    HW199150   0.214   5.175   0.096
32437SOL    HW299151   0.315   5.286   0.108
32438SOL     OW99152   5.630   9.311  10.827
32438SOL    HW199153   5.671   9.224  10.831
32438SOL    HW299154   5.695   9.370  10.864
32439SOL     OW99155   8.988   3.589  12.453
32439SOL    HW199156   8.959   3.635  12.532
32439SOL    HW299157   8.920   3.607  12.389
32440SOL     OW99158   3.754  12.227   4.455
32440SOL    HW199159   3.675  12.276   4.480
32440SOL    HW299160   3.721  12.155   4.401
32441SOL     OW99161   8.797   0.174   1.138
32441SOL    HW199162   8.867   0.149   1.199
32441SOL    HW299163   8.775   0.093   1.093
32442SOL     OW99164  11.610   7.717   5.330
32442SOL    HW199165  11.660   7.797   5.341
32442SOL    HW299166  11.536   7.727   5.390
32443SOL     OW99167   9.686   7.136   3.529
32443SOL    HW199168   9.771   7.160   3.566
32443SOL    HW299169   9.625   7.201   3.565
32444SOL     OW99170   3.910  10.524   4.511
32444SOL    HW199171   3.948  10.479   4.587
32444SOL    HW299172   3.880  10.608   4.545
32445SOL     OW99173   0.169  10.472  14.002
32445SOL    HW199174   0.086  10.510  14.030
32445SOL    HW299175   0.169  10.384  14.039
32446SOL     OW99176   7.475   5.238  11.790
32446SOL    HW199177   7.381   5.253  11.781
32446SOL    HW299178   7.490   5.154  11.747
32447SOL     OW99179   4.659  12.352  13.510
32447SOL    HW199180   4.596  12.424  13.502
32447SOL    HW299181   4.682  12.350  13.603
32448SOL     OW99182   0.877  14.610   7.169
32448SOL    HW199183   0.837  14.677   7.225
32448SOL    HW299184   0.881  14.651   7.082
32449SOL     OW99185   8.579   5.769  13.026
32449SOL    HW199186   8.540   5.791  12.942
32449SOL    HW299187   8.514   5.798  13.091
32450SOL     OW99188   1.338  13.592   9.556
32450SOL    HW199189   1.355  13.512   9.506
32450SOL    HW299190   1.248  13.581   9.589
32451SOL     OW99191   8.938  12.524   9.382
32451SOL    HW199192   8.926  12.481   9.298
32451SOL    HW299193   8.989  12.463   9.434
32452SOL     OW99194   8.684   0.421   8.339
32452SOL    HW199195   8.740   0.412   8.416
32452SOL    HW299196   8.604   0.461   8.372
32453SOL     OW99197   6.004  11.483   6.695
32453SOL    HW199198   5.963  11.558   6.740
32453SOL    HW299199   6.023  11.421   6.765
32454SOL     OW99200   4.530   3.446   1.137
32454SOL    HW199201   4.535   3.498   1.056
32454SOL    HW299202   4.543   3.356   1.108
32455SOL     OW99203   0.085   0.911   7.816
32455SOL    HW199204   0.136   0.906   7.897
32455SOL    HW299205   0.088   1.003   7.792
32456SOL     OW99206   5.284  12.754   3.874
32456SOL    HW199207   5.284  12.672   3.923
32456SOL    HW299208   5.197  12.759   3.835
32457SOL     OW99209  11.700   6.118   2.054
32457SOL    HW199210  11.614   6.088   2.023
32457SOL    HW299211  11.681   6.198   2.102
32458SOL     OW99212   2.457  10.586   6.689
32458SOL    HW199213   2.388  10.553   6.748
32458SOL    HW299214   2.434  10.549   6.604
32459SOL     OW99215   7.117   9.341   3.700
32459SOL    HW199216   7.064   9.402   3.752
32459SOL    HW299217   7.064   9.325   3.622
32460SOL     OW99218   0.749   3.740   5.932
32460SOL    HW199219   0.737   3.648   5.957
32460SOL    HW299220   0.802   3.777   6.002
32461SOL     OW99221   9.490   4.895   8.900
32461SOL    HW199222   9.578   4.920   8.872
32461SOL    HW299223   9.494   4.801   8.913
32462SOL     OW99224   6.024   9.096  10.415
32462SOL    HW199225   6.066   9.054  10.490
32462SOL    HW299226   5.969   9.028  10.377
32463SOL     OW99227   5.872   3.472   0.647
32463SOL    HW199228   5.811   3.419   0.698
32463SOL    HW299229   5.863   3.560   0.684
32464SOL     OW99230   3.493   6.074   3.570
32464SOL    HW199231   3.413   6.120   3.597
32464SOL    HW299232   3.557   6.144   3.558
32465SOL     OW99233   1.540   9.888   9.759
32465SOL    HW199234   1.473   9.820   9.755
32465SOL    HW299235   1.500   9.963   9.714
32466SOL     OW99236  14.818   9.211   7.044
32466SOL    HW199237  14.764   9.191   6.968
32466SOL    HW299238  14.868   9.131   7.060
32467SOL     OW99239   9.261   2.155   0.207
32467SOL    HW199240   9.328   2.211   0.245
32467SOL    HW299241   9.305   2.111   0.134
32468SOL     OW99242   3.454   8.812   8.989
32468SOL    HW199243   3.494   8.776   9.068
32468SOL    HW299244   3.514   8.786   8.918
32469SOL     OW99245   7.736   4.843  13.159
32469SOL    HW199246   7.705   4.848  13.249
32469SOL    HW299247   7.747   4.934  13.132
32470SOL     OW99248   9.225   8.362   6.555
32470SOL    HW199249   9.203   8.433   6.615
32470SOL    HW299250   9.199   8.283   6.602
32471SOL     OW99251   3.893   5.889   2.879
32471SOL    HW199252   3.843   5.837   2.816
32471SOL    HW299253   3.968   5.921   2.829
32472SOL     OW99254  13.936   8.765  14.268
32472SOL    HW199255  13.952   8.742  14.359
32472SOL    HW299256  13.897   8.853  14.272
32473SOL     OW99257   1.299   9.892   9.150
32473SOL    HW199258   1.242   9.932   9.084
32473SOL    HW299259   1.339   9.967   9.194
32474SOL     OW99260  13.535  11.829   6.183
32474SOL    HW199261  13.491  11.801   6.263
32474SOL    HW299262  13.566  11.748   6.143
32475SOL     OW99263   4.008   7.568   3.938
32475SOL    HW199264   3.950   7.615   3.997
32475SOL    HW299265   4.056   7.507   3.995
32476SOL     OW99266   5.338   6.564   0.702
32476SOL    HW199267   5.365   6.476   0.730
32476SOL    HW299268   5.401   6.589   0.635
32477SOL     OW99269   3.915   0.636   5.907
32477SOL    HW199270   4.010   0.646   5.917
32477SOL    HW299271   3.896   0.553   5.951
32478SOL     OW99272   3.379   5.757  11.511
32478SOL    HW199273   3.336   5.842  11.521
32478SOL    HW299274   3.366   5.714  11.595
32479SOL     OW99275  12.664   6.745   2.128
32479SOL    HW199276  12.590   6.735   2.188
32479SOL    HW299277  12.624   6.761   2.043
32480SOL     OW99278   1.444   9.864   8.858
32480SOL    HW199279   1.453   9.834   8.949
32480SOL    HW299280   1.490   9.948   8.856
32481SOL     OW99281  10.851  14.638   7.655
32481SOL    HW199282  10.905  14.716   7.664
32481SOL    HW299283  10.793  14.642   7.731
32482SOL     OW99284  10.460  13.326   3.981
32482SOL    HW199285  10.378  13.278   3.993
32482SOL    HW299286  10.494  13.295   3.897
32483SOL     OW99287   4.043   0.180  11.156
32483SOL    HW199288   4.019   0.246  11.090
32483SOL    HW299289   3.986   0.105  11.136
32484SOL     OW99290   5.268  13.011   9.215
32484SOL    HW199291   5.306  12.924   9.222
32484SOL    HW299292   5.337  13.065   9.177
32485SOL     OW99293   7.762   8.469   7.558
32485SOL    HW199294   7.845   8.478   7.606
32485SOL    HW299295   7.789   8.457   7.467
32486SOL     OW99296   1.598   3.289  13.908
32486SOL    HW199297   1.625   3.220  13.847
32486SOL    HW299298   1.577   3.364  13.851
32487SOL     OW99299   1.245  11.229  12.051
32487SOL    HW199300   1.210  11.143  12.027
32487SOL    HW299301   1.232  11.234  12.146
32488SOL     OW99302   6.435   8.970  13.031
32488SOL    HW199303   6.414   9.055  13.070
32488SOL    HW299304   6.359   8.950  12.977
32489SOL     OW99305  14.637  10.912   3.922
32489SOL    HW199306  14.655  10.915   3.828
32489SOL    HW299307  14.632  11.004   3.948
32490SOL     OW99308  12.179   9.126  13.455
32490SOL    HW199309  12.199   9.204  13.508
32490SOL    HW299310  12.264   9.084  13.441
32491SOL     OW99311   5.183   0.896   9.884
32491SOL    HW199312   5.145   0.962   9.942
32491SOL    HW299313   5.245   0.944   9.830
32492SOL     OW99314   6.454  12.775   9.552
32492SOL    HW199315   6.465  12.869   9.569
32492SOL    HW299316   6.509  12.757   9.476
32493SOL     OW99317   3.706   1.019   3.361
32493SOL    HW199318   3.641   1.033   3.429
32493SOL    HW299319   3.775   1.082   3.379
32494SOL     OW99320   8.888   2.117   9.999
32494SOL    HW199321   8.965   2.104  10.054
32494SOL    HW299322   8.880   2.213   9.992
32495SOL     OW99323  13.946  11.418   1.715
32495SOL    HW199324  13.952  11.505   1.675
32495SOL    HW299325  13.981  11.358   1.649
32496SOL     OW99326   5.840  10.314   9.271
32496SOL    HW199327   5.932  10.291   9.287
32496SOL    HW299328   5.806  10.336   9.358
32497SOL     OW99329  12.402  14.035   7.840
32497SOL    HW199330  12.474  14.037   7.777
32497SOL    HW299331  12.430  14.093   7.911
32498SOL     OW99332   2.409  11.023   2.720
32498SOL    HW199333   2.324  11.069   2.720
32498SOL    HW299334   2.473  11.094   2.722
32499SOL     OW99335  10.763   3.729  14.538
32499SOL    HW199336  10.683   3.698  14.495
32499SOL    HW299337  10.736   3.808  14.585
32500SOL     OW99338   5.290   4.791  10.349
32500SOL    HW199339   5.327   4.775  10.435
32500SOL    HW299340   5.365   4.802  10.291
32501SOL     OW99341  11.143   4.563   4.857
32501SOL    HW199342  11.086   4.568   4.934
32501SOL    HW299343  11.194   4.483   4.869
32502SOL     OW99344   4.594  10.244   0.998
32502SOL    HW199345   4.642  10.165   1.023
32502SOL    HW299346   4.530  10.214   0.933
32503SOL     OW99347   5.859   4.086  13.059
32503SOL    HW199348   5.938   4.071  13.007
32503SOL    HW299349   5.826   3.999  13.078
32504SOL     OW99350   3.968   5.930  14.533
32504SOL    HW199351   4.056   5.918  14.567
32504SOL    HW299352   3.928   5.843  14.537
32505SOL     OW99353  13.594   0.614  11.743
32505SOL    HW199354  13.645   0.601  11.822
32505SOL    HW299355  13.623   0.699  11.710
32506SOL     OW99356   5.902   1.828   0.648
32506SOL    HW199357   5.875   1.916   0.622
32506SOL    HW299358   5.976   1.807   0.590
32507SOL     OW99359   7.868   2.442  12.834
32507SOL    HW199360   7.830   2.413  12.916
32507SOL    HW299361   7.797   2.436  12.770
32508SOL     OW99362   9.123  13.426   9.561
32508SOL    HW199363   9.047  13.406   9.615
32508SOL    HW299364   9.198  13.392   9.610
32509SOL     OW99365   3.000   0.644  10.643
32509SOL    HW199366   3.048   0.726  10.634
32509SOL    HW299367   2.909   0.667  10.626
32510SOL     OW99368   6.829   8.187   7.458
32510SOL    HW199369   6.858   8.127   7.389
32510SOL    HW299370   6.792   8.262   7.411
32511SOL     OW99371  13.595  14.641   7.715
32511SOL    HW199372  13.604  14.731   7.746
32511SOL    HW299373  13.573  14.649   7.622
32512SOL     OW99374   3.252   2.958   7.670
32512SOL    HW199375   3.270   3.028   7.733
32512SOL    HW299376   3.159   2.965   7.652
32513SOL     OW99377  11.145   5.373  11.008
32513SOL    HW199378  11.134   5.314  11.084
32513SOL    HW299379  11.219   5.337  10.960
32514SOL     OW99380  10.202  11.447  12.304
32514SOL    HW199381  10.246  11.378  12.355
32514SOL    HW299382  10.271  11.511  12.287
32515SOL     OW99383   5.137   5.104  11.974
32515SOL    HW199384   5.135   5.054  12.056
32515SOL    HW299385   5.226   5.141  11.971
32516SOL     OW99386   1.532   7.377  13.454
32516SOL    HW199387   1.581   7.300  13.424
32516SOL    HW299388   1.580   7.451  13.417
32517SOL     OW99389   0.074  11.619  12.876
32517SOL    HW199390   0.039  11.537  12.910
32517SOL    HW299391   0.078  11.607  12.781
32518SOL     OW99392   1.578   7.386   5.147
32518SOL    HW199393   1.497   7.391   5.197
32518SOL    HW299394   1.596   7.293   5.139
32519SOL     OW99395   5.986   4.552   2.742
32519SOL    HW199396   6.058   4.606   2.775
32519SOL    HW299397   5.908   4.607   2.749
32520SOL     OW99398  11.066   4.655   7.365
32520SOL    HW199399  11.008   4.624   7.295
32520SOL    HW299400  11.117   4.578   7.389
32521SOL     OW99401   3.295   0.352  14.507
32521SOL    HW199402   3.390   0.354  14.513
32521SOL    HW299403   3.273   0.259  14.498
32522SOL     OW99404  12.429  14.815   6.125
32522SOL    HW199405  12.464   0.011   6.181
32522SOL    HW299406  12.457  14.840   6.037
32523SOL     OW99407   7.153   9.133   2.955
32523SOL    HW199408   7.108   9.074   2.895
32523SOL    HW299409   7.244   9.135   2.924
32524SOL     OW99410  11.808  13.838   0.334
32524SOL    HW199411  11.861  13.770   0.293
32524SOL    HW299412  11.813  13.820   0.428
32525SOL     OW99413  12.110  10.612   4.468
32525SOL    HW199414  12.199  10.632   4.496
32525SOL    HW299415  12.054  10.671   4.519
32526SOL     OW99416   6.877   2.184   5.660
32526SOL    HW199417   6.792   2.154   5.691
32526SOL    HW299418   6.884   2.274   5.690
32527SOL     OW99419  13.844   1.634   0.186
32527SOL    HW199420  13.821   1.721   0.154
32527SOL    HW299421  13.769   1.579   0.162
32528SOL     OW99422  13.351   5.293   2.150
32528SOL    HW199423  13.343   5.248   2.066
32528SOL    HW299424  13.300   5.373   2.139
32529SOL     OW99425   9.887   4.073   7.668
32529SOL    HW199426   9.961   4.026   7.629
32529SOL    HW299427   9.889   4.048   7.761
32530SOL     OW99428  12.186   8.498  12.336
32530SOL    HW199429  12.269   8.456  12.313
32530SOL    HW299430  12.210   8.589  12.353
32531SOL     OW99431  13.059  11.382  12.365
32531SOL    HW199432  13.052  11.351  12.456
32531SOL    HW299433  12.981  11.347  12.322
32532SOL     OW99434  12.362   4.994   7.893
32532SOL    HW199435  12.418   5.036   7.958
32532SOL    HW299436  12.422   4.942   7.839
32533SOL     OW99437   7.894   6.903   4.490
32533SOL    HW199438   7.891   6.998   4.507
32533SOL    HW299439   7.886   6.863   4.576
32534SOL     OW99440   4.848  14.301  10.389
32534SOL    HW199441   4.867  14.371  10.451
32534SOL    HW299442   4.867  14.221  10.438
32535SOL     OW99443   2.470   5.666   1.355
32535SOL    HW199444   2.542   5.617   1.394
32535SOL    HW299445   2.401   5.601   1.342
32536SOL     OW99446   2.045   0.967   5.009
32536SOL    HW199447   2.047   0.898   4.943
32536SOL    HW299448   2.105   1.033   4.976
32537SOL     OW99449   4.555   8.747  12.539
32537SOL    HW199450   4.558   8.755  12.634
32537SOL    HW299451   4.505   8.667  12.523
32538SOL     OW99452   7.094  14.814   0.618
32538SOL    HW199453   7.081  14.775   0.704
32538SOL    HW299454   7.059  14.750   0.556
32539SOL     OW99455   5.624   0.706  12.705
32539SOL    HW199456   5.708   0.686  12.745
32539SOL    HW299457   5.584   0.770  12.763
32540SOL     OW99458   9.429   2.110   3.104
32540SOL    HW199459   9.341   2.132   3.074
32540SOL    HW299460   9.417   2.031   3.157
32541SOL     OW99461  11.473  12.126  10.405
32541SOL    HW199462  11.492  12.034  10.387
32541SOL    HW299463  11.443  12.162  10.321
32542SOL     OW99464  14.502  10.117  11.726
32542SOL    HW199465  14.473  10.030  11.699
32542SOL    HW299466  14.441  10.143  11.795
32543SOL     OW99467   4.831   5.822   3.279
32543SOL    HW199468   4.908   5.869   3.246
32543SOL    HW299469   4.756   5.874   3.250
32544SOL     OW99470  14.457   7.082   5.107
32544SOL    HW199471  14.443   6.991   5.081
32544SOL    HW299472  14.462   7.130   5.024
32545SOL     OW99473   1.573   4.210   9.733
32545SOL    HW199474   1.522   4.131   9.751
32545SOL    HW299475   1.543   4.239   9.647
32546SOL     OW99476   0.142   6.278  14.608
32546SOL    HW199477   0.179   6.220  14.675
32546SOL    HW299478   0.180   6.248  14.526
32547SOL     OW99479   8.979   0.826   5.065
32547SOL    HW199480   8.922   0.755   5.094
32547SOL    HW299481   8.972   0.892   5.134
32548SOL     OW99482   4.377   5.071   5.453
32548SOL    HW199483   4.391   5.165   5.461
32548SOL    HW299484   4.465   5.033   5.462
32549SOL     OW99485   3.617  12.629   1.026
32549SOL    HW199486   3.634  12.600   1.116
32549SOL    HW299487   3.527  12.663   1.029
32550SOL     OW99488   7.142  11.949   9.236
32550SOL    HW199489   7.113  12.002   9.310
32550SOL    HW299490   7.071  11.956   9.172
32551SOL     OW99491   7.233  13.420   5.921
32551SOL    HW199492   7.326  13.428   5.945
32551SOL    HW299493   7.208  13.509   5.895
32552SOL     OW99494  13.036   2.051   6.419
32552SOL    HW199495  12.989   2.039   6.501
32552SOL    HW299496  13.038   2.146   6.406
32553SOL     OW99497  11.762   9.557  14.573
32553SOL    HW199498  11.750   9.471  14.614
32553SOL    HW299499  11.856   9.564  14.557
32554SOL     OW99500   2.361   1.990   0.707
32554SOL    HW199501   2.335   2.061   0.765
32554SOL    HW299502   2.295   1.922   0.720
32555SOL     OW99503  11.198   7.918   6.033
32555SOL    HW199504  11.146   7.958   6.103
32555SOL    HW299505  11.239   7.842   6.073
32556SOL     OW99506   2.624   3.881  12.861
32556SOL    HW199507   2.718   3.899  12.856
32556SOL    HW299508   2.586   3.929  12.787
32557SOL     OW99509  13.007   2.465   2.767
32557SOL    HW199510  13.042   2.504   2.847
32557SOL    HW299511  12.992   2.540   2.708
32558SOL     OW99512   1.365   2.722   5.177
32558SOL    HW199513   1.427   2.781   5.134
32558SOL    HW299514   1.419   2.653   5.215
32559SOL     OW99515  10.850  13.106   1.492
32559SOL    HW199516  10.937  13.090   1.456
32559SOL    HW299517  10.791  13.066   1.429
32560SOL     OW99518  10.853   2.519   7.875
32560SOL    HW199519  10.794   2.543   7.804
32560SOL    HW299520  10.833   2.581   7.945
32561SOL     OW99521   1.845  13.406   1.013
32561SOL    HW199522   1.876  13.380   1.100
32561SOL    HW299523   1.858  13.501   1.011
32562SOL     OW99524   2.542   1.236  13.522
32562SOL    HW199525   2.624   1.222  13.569
32562SOL    HW299526   2.475   1.193  13.575
32563SOL     OW99527   7.613   5.821  11.252
32563SOL    HW199528   7.579   5.813  11.341
32563SOL    HW299529   7.541   5.791  11.196
32564SOL     OW99530  13.467   6.276   9.178
32564SOL    HW199531  13.492   6.348   9.235
32564SOL    HW299532  13.538   6.271   9.114
32565SOL     OW99533  13.317   4.873   0.088
32565SOL    HW199534  13.394   4.862   0.144
32565SOL    HW299535  13.245   4.887   0.149
32566SOL     OW99536   3.736  10.854   2.551
32566SOL    HW199537   3.680  10.925   2.583
32566SOL    HW299538   3.686  10.774   2.568
32567SOL     OW99539   1.250   4.690  10.138
32567SOL    HW199540   1.247   4.599  10.110
32567SOL    HW299541   1.315   4.731  10.081
32568SOL     OW99542   3.486   8.151   7.372
32568SOL    HW199543   3.545   8.080   7.396
32568SOL    HW299544   3.448   8.123   7.289
32569SOL     OW99545   1.316   2.332  14.771
32569SOL    HW199546   1.315   2.241  14.802
32569SOL    HW299547   1.351   2.382  14.845
32570SOL     OW99548   0.972   4.493   9.623
32570SOL    HW199549   0.910   4.452   9.563
32570SOL    HW299550   1.007   4.420   9.675
32571SOL     OW99551   1.777   0.971  11.494
32571SOL    HW199552   1.751   0.879  11.502
32571SOL    HW299553   1.786   1.001  11.585
32572SOL     OW99554   4.805  14.114   9.455
32572SOL    HW199555   4.714  14.127   9.480
32572SOL    HW299556   4.807  14.025   9.418
32573SOL     OW99557   1.976   4.158   7.711
32573SOL    HW199558   2.048   4.218   7.729
32573SOL    HW299559   2.003   4.075   7.751
32574SOL     OW99560   3.980   5.416  13.245
32574SOL    HW199561   3.969   5.453  13.332
32574SOL    HW299562   4.072   5.431  13.224
32575SOL     OW99563   5.530   2.412   6.910
32575SOL    HW199564   5.468   2.485   6.910
32575SOL    HW299565   5.508   2.363   6.830
32576SOL     OW99566   3.128   7.598  13.011
32576SOL    HW199567   3.121   7.573  13.103
32576SOL    HW299568   3.141   7.515  12.965
32577SOL     OW99569   7.589  14.547   8.093
32577SOL    HW199570   7.632  14.478   8.041
32577SOL    HW299571   7.620  14.629   8.055
32578SOL     OW99572   6.152   4.875   9.325
32578SOL    HW199573   6.224   4.870   9.388
32578SOL    HW299574   6.093   4.804   9.350
32579SOL     OW99575   7.980   1.466   2.744
32579SOL    HW199576   8.029   1.537   2.784
32579SOL    HW299577   7.937   1.422   2.818
32580SOL     OW99578   5.385  14.206   6.375
32580SOL    HW199579   5.445  14.250   6.315
32580SOL    HW299580   5.305  14.259   6.372
32581SOL     OW99581  14.255   9.957   4.341
32581SOL    HW199582  14.282   9.868   4.363
32581SOL    HW299583  14.293  10.011   4.410
32582SOL     OW99584   6.646   9.782   3.642
32582SOL    HW199585   6.597   9.746   3.567
32582SOL    HW299586   6.587   9.772   3.716
32583SOL     OW99587   5.828  11.279   1.363
32583SOL    HW199588   5.910  11.319   1.335
32583SOL    HW299589   5.765  11.351   1.363
32584SOL     OW99590  11.467   7.779  12.459
32584SOL    HW199591  11.482   7.739  12.544
32584SOL    HW299592  11.381   7.820  12.466
32585SOL     OW99593   8.019   0.231   0.099
32585SOL    HW199594   8.113   0.215   0.109
32585SOL    HW299595   8.008   0.250   0.006
32586SOL     OW99596   5.289   0.157   1.381
32586SOL    HW199597   5.322   0.231   1.431
32586SOL    HW299598   5.337   0.160   1.298
32587SOL     OW99599   9.115  14.361   7.771
32587SOL    HW199600   9.197  14.322   7.741
32587SOL    HW299601   9.049  14.323   7.713
32588SOL     OW99602   8.739   8.863   6.086
32588SOL    HW199603   8.821   8.820   6.111
32588SOL    HW299604   8.706   8.901   6.167
32589SOL     OW99605   8.159   7.900   7.394
32589SOL    HW199606   8.074   7.865   7.420
32589SOL    HW299607   8.210   7.900   7.475
32590SOL     OW99608  12.530   3.779   7.301
32590SOL    HW199609  12.578   3.839   7.359
32590SOL    HW299610  12.451   3.826   7.277
32591SOL     OW99611  13.229   6.709  13.250
32591SOL    HW199612  13.258   6.637  13.194
32591SOL    HW299613  13.133   6.709  13.242
32592SOL     OW99614   4.403   1.615  14.418
32592SOL    HW199615   4.392   1.592  14.326
32592SOL    HW299616   4.462   1.690  14.418
32593SOL     OW99617   2.425   6.341   3.174
32593SOL    HW199618   2.431   6.358   3.268
32593SOL    HW299619   2.481   6.407   3.134
32594SOL     OW99620   1.499   5.941   2.766
32594SOL    HW199621   1.404   5.938   2.760
32594SOL    HW299622   1.525   6.007   2.701
32595SOL     OW99623  14.769   1.380  12.356
32595SOL    HW199624  14.776   1.439  12.281
32595SOL    HW299625  14.690   1.408  12.401
32596SOL     OW99626   6.742  14.158   7.032
32596SOL    HW199627   6.664  14.169   6.978
32596SOL    HW299628   6.810  14.208   6.986
32597SOL     OW99629  14.852  10.256  14.293
32597SOL    HW199630  14.788  10.285  14.227
32597SOL    HW299631  14.857  10.161  14.280
32598SOL     OW99632   1.453  13.478   5.176
32598SOL    HW199633   1.450  13.572   5.160
32598SOL    HW299634   1.427  13.439   5.092
32599SOL     OW99635   9.193   8.838  10.757
32599SOL    HW199636   9.195   8.798  10.670
32599SOL    HW299637   9.260   8.791  10.807
32600SOL     OW99638  13.951   1.210   2.469
32600SOL    HW199639  13.857   1.193   2.477
32600SOL    HW299640  13.982   1.212   2.560
32601SOL     OW99641  12.541  10.678   2.825
32601SOL    HW199642  12.581  10.715   2.904
32601SOL    HW299643  12.525  10.586   2.846
32602SOL     OW99644  12.380  12.420   2.741
32602SOL    HW199645  12.366  12.336   2.784
32602SOL    HW299646  12.416  12.398   2.655
32603SOL     OW99647   1.186  13.583   2.635
32603SOL    HW199648   1.121  13.622   2.693
32603SOL    HW299649   1.268  13.589   2.683
32604SOL     OW99650   1.745   7.981   9.351
32604SOL    HW199651   1.777   7.934   9.274
32604SOL    HW299652   1.678   8.040   9.317
32605SOL     OW99653  13.662  13.545  13.723
32605SOL    HW199654  13.753  13.546  13.751
32605SOL    HW299655  13.666  13.543  13.628
32606SOL     OW99656   0.065   9.569   4.292
32606SOL    HW199657   0.147   9.567   4.243
32606SOL    HW299658  14.870   9.559   4.226
32607SOL     OW99659  14.043  14.539  12.575
32607SOL    HW199660  14.090  14.609  12.529
32607SOL    HW299661  14.015  14.480  12.505
32608SOL     OW99662   1.273  11.138   1.740
32608SOL    HW199663   1.278  11.182   1.655
32608SOL    HW299664   1.262  11.045   1.719
32609SOL     OW99665   4.062   4.753  11.624
32609SOL    HW199666   4.016   4.692  11.682
32609SOL    HW299667   4.049   4.839  11.665
32610SOL     OW99668  10.953  12.673   4.447
32610SOL    HW199669  10.883  12.614   4.472
32610SOL    HW299670  11.011  12.620   4.392
32611SOL     OW99671   7.981   0.032   6.967
32611SOL    HW199672   7.979  14.809   6.967
32611SOL    HW299673   7.975   0.056   7.059
32612SOL     OW99674   1.433   1.281   5.284
32612SOL    HW199675   1.458   1.352   5.225
32612SOL    HW299676   1.387   1.324   5.356
32613SOL     OW99677   0.734  11.115   5.197
32613SOL    HW199678   0.765  11.093   5.285
32613SOL    HW299679   0.759  11.041   5.143
32614SOL     OW99680  14.775   8.823  10.029
32614SOL    HW199681  14.780   8.823  10.124
32614SOL    HW299682  14.862   8.852  10.000
32615SOL     OW99683   0.044  13.129   2.636
32615SOL    HW199684   0.106  13.057   2.649
32615SOL    HW299685  14.864  13.101   2.562
32616SOL     OW99686   3.929   9.026   4.666
32616SOL    HW199687   3.884   9.082   4.730
32616SOL    HW299688   3.954   8.949   4.717
32617SOL     OW99689   6.054  10.327   9.017
32617SOL    HW199690   6.007  10.313   8.935
32617SOL    HW299691   5.987  10.353   9.080
32618SOL     OW99692  14.787  14.020  10.359
32618SOL    HW199693  14.777  14.066  10.442
32618SOL    HW299694  14.863  13.963  10.371
32619SOL     OW99695  12.281   7.665   7.233
32619SOL    HW199696  12.375   7.649   7.231
32619SOL    HW299697  12.255   7.672   7.141
32620SOL     OW99698   7.466   3.927   2.067
32620SOL    HW199699   7.510   4.007   2.093
32620SOL    HW299700   7.535   3.872   2.030
32621SOL     OW99701  14.130   2.713   1.711
32621SOL    HW199702  14.173   2.708   1.625
32621SOL    HW299703  14.163   2.637   1.759
32622SOL     OW99704   5.165   9.985  12.313
32622SOL    HW199705   5.212   9.902  12.311
32622SOL    HW299706   5.121   9.990  12.228
32623SOL     OW99707  12.943   2.820  13.069
32623SOL    HW199708  12.931   2.841  13.162
32623SOL    HW299709  13.007   2.884  13.038
32624SOL     OW99710   5.352  11.617   9.764
32624SOL    HW199711   5.286  11.676   9.802
32624SOL    HW299712   5.367  11.552   9.832
32625SOL     OW99713   7.432  13.117  12.393
32625SOL    HW199714   7.498  13.161  12.340
32625SOL    HW299715   7.413  13.178  12.464
32626SOL     OW99716   1.977  12.129  10.587
32626SOL    HW199717   1.964  12.193  10.658
32626SOL    HW299718   1.933  12.050  10.619
32627SOL     OW99719   3.391   4.386   9.269
32627SOL    HW199720   3.307   4.422   9.242
32627SOL    HW299721   3.388   4.389   9.365
32628SOL     OW99722   6.928   5.166   4.782
32628SOL    HW199723   6.874   5.135   4.856
32628SOL    HW299724   7.008   5.115   4.788
32629SOL     OW99725   8.451   6.200  12.074
32629SOL    HW199726   8.408   6.150  12.144
32629SOL    HW299727   8.538   6.219  12.108
32630SOL     OW99728   0.263   6.896   7.504
32630SOL    HW199729   0.299   6.814   7.537
32630SOL    HW299730   0.212   6.871   7.427
32631SOL     OW99731   0.759  13.868  10.434
32631SOL    HW199732   0.725  13.831  10.516
32631SOL    HW299733   0.768  13.961  10.452
32632SOL     OW99734  14.680   4.387   4.322
32632SOL    HW199735  14.692   4.459   4.384
32632SOL    HW299736  14.599   4.409   4.276
32633SOL     OW99737   1.390   8.764   9.994
32633SOL    HW199738   1.347   8.727  10.071
32633SOL    HW299739   1.483   8.747  10.008
32634SOL     OW99740  12.186   4.706  12.016
32634SOL    HW199741  12.162   4.614  12.005
32634SOL    HW299742  12.118   4.754  11.968
32635SOL     OW99743   1.369   5.804   7.698
32635SOL    HW199744   1.404   5.884   7.659
32635SOL    HW299745   1.324   5.834   7.777
32636SOL     OW99746   3.410  10.566   0.146
32636SOL    HW199747   3.427  10.582   0.238
32636SOL    HW299748   3.483  10.512   0.116
32637SOL     OW99749   4.407   6.690   2.781
32637SOL    HW199750   4.373   6.779   2.790
32637SOL    HW299751   4.334   6.634   2.807
32638SOL     OW99752   1.754   0.768   0.571
32638SOL    HW199753   1.791   0.746   0.657
32638SOL    HW299754   1.791   0.854   0.551
32639SOL     OW99755   5.581   8.992  12.635
32639SOL    HW199756   5.639   9.066  12.614
32639SOL    HW299757   5.618   8.956  12.715
32640SOL     OW99758   0.131  12.277   6.495
32640SOL    HW199759   0.179  12.293   6.414
32640SOL    HW299760   0.088  12.193   6.482
32641SOL     OW99761  13.136   5.487   7.524
32641SOL    HW199762  13.084   5.555   7.481
32641SOL    HW299763  13.073   5.438   7.577
32642SOL     OW99764   1.354   5.137  10.008
32642SOL    HW199765   1.293   5.093   9.948
32642SOL    HW299766   1.424   5.169   9.952
32643SOL     OW99767   4.469   3.714  13.516
32643SOL    HW199768   4.550   3.681  13.555
32643SOL    HW299769   4.410   3.638  13.515
32644SOL     OW99770   3.341  10.845  14.775
32644SOL    HW199771   3.287  10.835  14.697
32644SOL    HW299772   3.291  10.801  14.844
32645SOL     OW99773   0.797   7.544   6.075
32645SOL    HW199774   0.807   7.457   6.037
32645SOL    HW299775   0.870   7.553   6.135
32646SOL     OW99776  10.911   6.546   3.496
32646SOL    HW199777  10.846   6.583   3.555
32646SOL    HW299778  10.871   6.465   3.465
32647SOL     OW99779   1.940   0.600   2.655
32647SOL    HW199780   1.863   0.552   2.622
32647SOL    HW299781   2.007   0.586   2.588
32648SOL     OW99782   2.177   3.876   6.232
32648SOL    HW199783   2.256   3.925   6.208
32648SOL    HW299784   2.117   3.942   6.265
32649SOL     OW99785   7.074  13.210   5.845
32649SOL    HW199786   7.139  13.141   5.827
32649SOL    HW299787   7.126  13.282   5.881
32650SOL     OW99788   0.417   3.860   6.582
32650SOL    HW199789   0.341   3.877   6.527
32650SOL    HW299790   0.473   3.803   6.530
32651SOL     OW99791  12.688   9.412   6.552
32651SOL    HW199792  12.677   9.505   6.573
32651SOL    HW299793  12.601   9.374   6.569
32652SOL     OW99794   4.391   5.263   0.741
32652SOL    HW199795   4.388   5.224   0.828
32652SOL    HW299796   4.478   5.241   0.708
32653SOL     OW99797   0.759   9.292   7.398
32653SOL    HW199798   0.756   9.319   7.307
32653SOL    HW299799   0.679   9.328   7.436
32654SOL     OW99800  11.350   5.732   2.481
32654SOL    HW199801  11.291   5.698   2.413
32654SOL    HW299802  11.299   5.726   2.562
32655SOL     OW99803  13.820   5.750   2.243
32655SOL    HW199804  13.856   5.661   2.244
32655SOL    HW299805  13.891   5.805   2.275
32656SOL     OW99806   6.492   0.394   4.458
32656SOL    HW199807   6.497   0.411   4.552
32656SOL    HW299808   6.402   0.365   4.444
32657SOL     OW99809   3.938   3.042   8.702
32657SOL    HW199810   3.945   2.977   8.632
32657SOL    HW299811   3.853   3.083   8.688
32658SOL     OW99812  11.803   0.246  10.928
32658SOL    HW199813  11.893   0.248  10.961
32658SOL    HW299814  11.749   0.253  11.007
32659SOL     OW99815   1.610  12.881   3.028
32659SOL    HW199816   1.515  12.894   3.025
32659SOL    HW299817   1.623  12.821   3.101
32660SOL     OW99818  13.667   2.899   9.769
32660SOL    HW199819  13.761   2.891   9.753
32660SOL    HW299820  13.660   2.967   9.837
32661SOL     OW99821  10.635  12.823   5.903
32661SOL    HW199822  10.589  12.907   5.906
32661SOL    HW299823  10.572  12.763   5.862
32662SOL     OW99824   6.424  10.991   5.868
32662SOL    HW199825   6.500  10.949   5.826
32662SOL    HW299826   6.458  11.074   5.901
32663SOL     OW99827   8.367   5.015   5.496
32663SOL    HW199828   8.415   4.971   5.566
32663SOL    HW299829   8.276   4.991   5.510
32664SOL     OW99830   0.284   4.903  12.142
32664SOL    HW199831   0.228   4.858  12.079
32664SOL    HW299832   0.306   4.836  12.207
32665SOL     OW99833   1.920   3.023   9.560
32665SOL    HW199834   1.892   2.934   9.581
32665SOL    HW299835   1.886   3.038   9.471
32666SOL     OW99836   1.796   0.531   4.972
32666SOL    HW199837   1.725   0.551   4.912
32666SOL    HW299838   1.802   0.436   4.972
32667SOL     OW99839   5.445   7.705  10.154
32667SOL    HW199840   5.361   7.716  10.109
32667SOL    HW299841   5.481   7.793  10.159
32668SOL     OW99842   6.210   2.789   1.628
32668SOL    HW199843   6.123   2.754   1.648
32668SOL    HW299844   6.193   2.870   1.580
32669SOL     OW99845   1.255   9.058   4.814
32669SOL    HW199846   1.212   9.142   4.799
32669SOL    HW299847   1.327   9.078   4.874
32670SOL     OW99848  14.179   0.258   7.981
32670SOL    HW199849  14.098   0.223   7.942
32670SOL    HW299850  14.156   0.346   8.007
32671SOL     OW99851   3.987   6.694   6.471
32671SOL    HW199852   4.042   6.646   6.533
32671SOL    HW299853   3.899   6.687   6.508
32672SOL     OW99854   1.541   3.614   2.674
32672SOL    HW199855   1.497   3.534   2.645
32672SOL    HW299856   1.570   3.656   2.593
32673SOL     OW99857   9.746  11.821  13.599
32673SOL    HW199858   9.817  11.878  13.570
32673SOL    HW299859   9.672  11.845  13.544
32674SOL     OW99860   8.293  13.242  11.057
32674SOL    HW199861   8.227  13.198  11.110
32674SOL    HW299862   8.373  13.192  11.072
32675SOL     OW99863  10.055   2.309  10.659
32675SOL    HW199864  10.050   2.351  10.745
32675SOL    HW299865  10.149   2.308  10.639
32676SOL     OW99866   8.026  13.890  11.182
32676SOL    HW199867   8.099  13.913  11.124
32676SOL    HW299868   8.065  13.832  11.247
32677SOL     OW99869  10.634   8.707  13.048
32677SOL    HW199870  10.637   8.619  13.086
32677SOL    HW299871  10.681   8.698  12.965
32678SOL     OW99872   7.410   6.546   1.247
32678SOL    HW199873   7.480   6.503   1.197
32678SOL    HW299874   7.330   6.500   1.221
32679SOL     OW99875   9.941   2.231   9.377
32679SOL    HW199876  10.016   2.241   9.318
32679SOL    HW299877   9.885   2.306   9.356
32680SOL     OW99878   0.108  10.863   5.806
32680SOL    HW199879   0.075  10.949   5.779
32680SOL    HW299880   0.194  10.856   5.764
32681SOL     OW99881  11.377   7.001   1.581
32681SOL    HW199882  11.360   7.092   1.560
32681SOL    HW299883  11.313   6.952   1.529
32682SOL     OW99884   8.248   8.565   9.663
32682SOL    HW199885   8.307   8.640   9.665
32682SOL    HW299886   8.206   8.569   9.577
32683SOL     OW99887  10.999  11.259  10.060
32683SOL    HW199888  10.986  11.347  10.095
32683SOL    HW299889  11.075  11.225  10.107
32684SOL     OW99890   0.019  11.365   9.980
32684SOL    HW199891  14.815  11.333   9.933
32684SOL    HW299892  14.859  11.384  10.068
32685SOL     OW99893   7.979  13.359   2.227
32685SOL    HW199894   7.980  13.393   2.138
32685SOL    HW299895   7.887  13.360   2.252
32686SOL     OW99896  14.414   1.703  14.569
32686SOL    HW199897  14.504   1.671  14.572
32686SOL    HW299898  14.383   1.680  14.482
32687SOL     OW99899   1.080  11.324   3.846
32687SOL    HW199900   1.167  11.314   3.807
32687SOL    HW299901   1.050  11.409   3.813
32688SOL     OW99902   8.391  11.291   7.429
32688SOL    HW199903   8.329  11.322   7.496
32688SOL    HW299904   8.357  11.326   7.347
32689SOL     OW99905   7.906   9.046   8.544
32689SOL    HW199906   7.925   8.984   8.473
32689SOL    HW299907   7.957   9.013   8.618
32690SOL     OW99908   0.179   8.340   1.788
32690SOL    HW199909   0.101   8.331   1.843
32690SOL    HW299910   0.240   8.275   1.823
32691SOL     OW99911  12.318   2.185   0.501
32691SOL    HW199912  12.377   2.195   0.575
32691SOL    HW299913  12.373   2.152   0.430
32692SOL     OW99914   8.248   9.295  13.273
32692SOL    HW199915   8.278   9.260  13.357
32692SOL    HW299916   8.277   9.230  13.208
32693SOL     OW99917   2.529   3.605  12.904
32693SOL    HW199918   2.593   3.536  12.924
32693SOL    HW299919   2.579   3.686  12.908
32694SOL     OW99920   1.511   4.814   0.438
32694SOL    HW199921   1.449   4.770   0.380
32694SOL    HW299922   1.519   4.903   0.403
32695SOL     OW99923   0.307   8.398   8.433
32695SOL    HW199924   0.357   8.321   8.459
32695SOL    HW299925   0.216   8.367   8.425
32696SOL     OW99926   8.910   2.692   5.396
32696SOL    HW199927   8.839   2.648   5.350
32696SOL    HW299928   8.979   2.702   5.329
32697SOL     OW99929  10.895  13.064   6.654
32697SOL    HW199930  10.809  13.023   6.648
32697SOL    HW299931  10.904  13.112   6.571
32698SOL     OW99932  12.389   1.963  11.817
32698SOL    HW199933  12.334   2.011  11.878
32698SOL    HW299934  12.344   1.969  11.733
32699SOL     OW99935   6.288  11.841   4.584
32699SOL    HW199936   6.347  11.789   4.530
32699SOL    HW299937   6.208  11.850   4.531
32700SOL     OW99938   9.957   2.711  10.827
32700SOL    HW199939   9.931   2.709  10.919
32700SOL    HW299940  10.014   2.787  10.819
32701SOL     OW99941   3.474   3.315  12.681
32701SOL    HW199942   3.559   3.273  12.693
32701SOL    HW299943   3.411   3.255  12.723
32702SOL     OW99944   7.999   1.229   5.581
32702SOL    HW199945   8.033   1.143   5.607
32702SOL    HW299946   8.074   1.273   5.541
32703SOL     OW99947   9.953  13.109   5.489
32703SOL    HW199948   9.975  13.098   5.397
32703SOL    HW299949  10.035  13.093   5.536
32704SOL     OW99950   8.987  14.688  13.702
32704SOL    HW199951   8.907  14.734  13.728
32704SOL    HW299952   8.959  14.598  13.688
32705SOL     OW99953   9.254   3.634   6.992
32705SOL    HW199954   9.298   3.695   7.052
32705SOL    HW299955   9.218   3.689   6.923
32706SOL     OW99956   8.091   3.589  12.986
32706SOL    HW199957   8.010   3.635  12.964
32706SOL    HW299958   8.159   3.638  12.940
32707SOL     OW99959  10.828   8.978   1.265
32707SOL    HW199960  10.857   8.966   1.174
32707SOL    HW299961  10.897   9.030   1.306
32708SOL     OW99962  14.499   2.222   4.421
32708SOL    HW199963  14.439   2.176   4.363
32708SOL    HW299964  14.536   2.153   4.476
32709SOL     OW99965   9.647   0.001  14.677
32709SOL    HW199966   9.716   0.066  14.694
32709SOL    HW299967   9.612  14.853  14.764
32710SOL     OW99968   2.795   5.860   9.514
32710SOL    HW199969   2.701   5.846   9.500
32710SOL    HW299970   2.814   5.942   9.469
32711SOL     OW99971   5.822  12.437  10.016
32711SOL    HW199972   5.797  12.390   9.936
32711SOL    HW299973   5.766  12.514  10.017
32712SOL     OW99974  14.844   9.858   6.293
32712SOL    HW199975  14.769   9.798   6.288
32712SOL    HW299976   0.030   9.828   6.223
32713SOL     OW99977  12.746   2.987   1.555
32713SOL    HW199978  12.744   2.895   1.526
32713SOL    HW299979  12.655   3.008   1.574
32714SOL     OW99980   4.876   7.143   7.531
32714SOL    HW199981   4.970   7.149   7.515
32714SOL    HW299982   4.841   7.223   7.492
32715SOL     OW99983  11.753   5.084   7.647
32715SOL    HW199984  11.724   5.161   7.696
32715SOL    HW299985  11.694   5.078   7.572
32716SOL     OW99986   8.871  11.309  13.746
32716SOL    HW199987   8.915  11.314  13.831
32716SOL    HW299988   8.909  11.380  13.695
32717SOL     OW99989  12.720   2.631  12.774
32717SOL    HW199990  12.626   2.616  12.764
32717SOL    HW299991  12.738   2.606  12.865
32718SOL     OW99992   3.829   1.480   6.036
32718SOL    HW199993   3.847   1.436   6.119
32718SOL    HW299994   3.739   1.456   6.015
32719SOL     OW99995   8.033  11.952  11.167
32719SOL    HW199996   7.959  11.917  11.119
32719SOL    HW299997   8.102  11.961  11.102
32720SOL     OW99998  11.836  12.140   3.442
32720SOL    HW199999  11.810  12.121   3.532
32720SOL    HW2    0  11.768  12.099   3.389
32721SOL     OW    1  12.087  10.768  11.464
32721SOL    HW1    2  12.139  10.847  11.480
32721SOL    HW2    3  12.147  10.709  11.419
32722SOL     OW    4   2.447   6.866   7.972
32722SOL    HW1    5   2.444   6.855   8.067
32722SOL    HW2    6   2.528   6.914   7.955
32723SOL     OW    7   5.746   9.609   2.090
32723SOL    HW1    8   5.683   9.555   2.042
32723SOL    HW2    9   5.779   9.671   2.025
32724SOL     OW   10  10.919  12.062  11.629
32724SOL    HW1   11  11.012  12.043  11.643
32724SOL    HW2   12  10.909  12.060  11.534
32725SOL     OW   13  10.892   6.981  12.691
32725SOL    HW1   14  10.851   6.968  12.605
32725SOL    HW2   15  10.986   6.987  12.672
32726SOL     OW   16   5.497   3.031   9.503
32726SOL    HW1   17   5.503   3.046   9.409
32726SOL    HW2   18   5.404   3.012   9.519
32727SOL     OW   19  12.680   8.840  12.396
32727SOL    HW1   20  12.621   8.807  12.329
32727SOL    HW2   21  12.736   8.902  12.350
32728SOL     OW   22   6.403   6.225   2.555
32728SOL    HW1   23   6.425   6.207   2.647
32728SOL    HW2   24   6.441   6.150   2.507
32729SOL     OW   25   0.504   1.163   8.939
32729SOL    HW1   26   0.564   1.088   8.941
32729SOL    HW2   27   0.505   1.197   9.028
32730SOL     OW   28   3.454   7.096  12.427
32730SOL    HW1   29   3.495   7.171  12.471
32730SOL    HW2   30   3.370   7.086  12.472
32731SOL     OW   31   0.788   4.450   0.496
32731SOL    HW1   32   0.860   4.491   0.545
32731SOL    HW2   33   0.814   4.358   0.487
32732SOL     OW   34   4.795   7.088   2.941
32732SOL    HW1   35   4.814   7.165   2.995
32732SOL    HW2   36   4.881   7.051   2.922
32733SOL     OW   37   7.012   2.207  11.914
32733SOL    HW1   38   6.919   2.205  11.894
32733SOL    HW2   39   7.025   2.135  11.976
32734SOL     OW   40   6.737   6.487   0.572
32734SOL    HW1   41   6.789   6.452   0.645
32734SOL    HW2   42   6.730   6.580   0.590
32735SOL     OW   43  11.882   0.740   2.041
32735SOL    HW1   44  11.974   0.764   2.025
32735SOL    HW2   45  11.835   0.823   2.038
32736SOL     OW   46   8.660   1.543   2.359
32736SOL    HW1   47   8.725   1.545   2.289
32736SOL    HW2   48   8.581   1.581   2.321
32737SOL     OW   49   8.065   3.409   1.996
32737SOL    HW1   50   8.032   3.460   2.070
32737SOL    HW2   51   8.052   3.318   2.023
32738SOL     OW   52  11.156   1.923   1.834
32738SOL    HW1   53  11.190   1.876   1.910
32738SOL    HW2   54  11.172   1.863   1.761
32739SOL     OW   55   5.918  11.500   0.697
32739SOL    HW1   56   5.835  11.509   0.651
32739SOL    HW2   57   5.900  11.531   0.786
32740SOL     OW   58   3.175   6.195  13.715
32740SOL    HW1   59   3.085   6.167  13.726
32740SOL    HW2   60   3.169   6.285  13.683
32741SOL     OW   61  12.426   5.753  12.876
32741SOL    HW1   62  12.397   5.834  12.917
32741SOL    HW2   63  12.470   5.705  12.946
32742SOL     OW   64  12.726   1.538  12.691
32742SOL    HW1   65  12.669   1.463  12.676
32742SOL    HW2   66  12.682   1.588  12.761
32743SOL     OW   67   2.228   0.295   3.012
32743SOL    HW1   68   2.190   0.382   3.021
32743SOL    HW2   69   2.190   0.261   2.931
32744SOL     OW   70  13.730  14.625  13.815
32744SOL    HW1   71  13.680  14.618  13.896
32744SOL    HW2   72  13.665  14.610  13.746
32745SOL     OW   73   5.002   7.208   8.554
32745SOL    HW1   74   4.987   7.295   8.516
32745SOL    HW2   75   5.000   7.223   8.648
32746SOL     OW   76   1.915  12.701  12.225
32746SOL    HW1   77   1.899  12.633  12.290
32746SOL    HW2   78   1.961  12.655  12.154
32747SOL     OW   79   8.513  14.433   9.661
32747SOL    HW1   80   8.423  14.416   9.632
32747SOL    HW2   81   8.504  14.466   9.750
32748SOL     OW   82  10.294   6.528   8.135
32748SOL    HW1   83  10.227   6.565   8.193
32748SOL    HW2   84  10.289   6.434   8.151
32749SOL     OW   85  13.974   2.208  10.978
32749SOL    HW1   86  14.023   2.161  10.911
32749SOL    HW2   87  13.883   2.182  10.964
32750SOL     OW   88  12.163   4.123   6.675
32750SOL    HW1   89  12.081   4.172   6.674
32750SOL    HW2   90  12.140   4.036   6.643
32751SOL     OW   91   0.710  11.953   0.989
32751SOL    HW1   92   0.761  11.910   0.920
32751SOL    HW2   93   0.773  11.967   1.060
32752SOL     OW   94   0.101   2.169   8.070
32752SOL    HW1   95   0.057   2.123   7.998
32752SOL    HW2   96   0.033   2.180   8.137
32753SOL     OW   97  13.744  12.868   7.505
32753SOL    HW1   98  13.744  12.823   7.589
32753SOL    HW2   99  13.800  12.814   7.449
32754SOL     OW  100   6.648   2.992   0.690
32754SOL    HW1  101   6.603   3.029   0.614
32754SOL    HW2  102   6.604   2.909   0.706
32755SOL     OW  103   8.956   6.273   4.747
32755SOL    HW1  104   8.893   6.216   4.703
32755SOL    HW2  105   8.918   6.360   4.743
32756SOL     OW  106  10.532   8.011   9.778
32756SOL    HW1  107  10.483   8.059   9.711
32756SOL    HW2  108  10.579   8.078   9.827
32757SOL     OW  109   4.740   6.950   7.166
32757SOL    HW1  110   4.717   6.935   7.257
32757SOL    HW2  111   4.800   6.878   7.144
32758SOL     OW  112  10.506  10.706   9.851
32758SOL    HW1  113  10.541  10.656   9.778
32758SOL    HW2  114  10.559  10.785   9.854
32759SOL     OW  115   7.331   0.827   8.446
32759SOL    HW1  116   7.353   0.741   8.481
32759SOL    HW2  117   7.309   0.811   8.354
32760SOL     OW  118  12.996  11.300   1.932
32760SOL    HW1  119  13.019  11.392   1.933
32760SOL    HW2  120  13.075  11.255   1.904
32761SOL     OW  121   7.279  10.502  13.762
32761SOL    HW1  122   7.270  10.460  13.847
32761SOL    HW2  123   7.356  10.558  13.770
32762SOL     OW  124   3.751   0.422   2.696
32762SOL    HW1  125   3.744   0.492   2.760
32762SOL    HW2  126   3.830   0.375   2.719
32763SOL     OW  127  14.118  13.368   2.981
32763SOL    HW1  128  14.171  13.328   2.911
32763SOL    HW2  129  14.073  13.440   2.938
32764SOL     OW  130   5.740   6.825  11.507
32764SOL    HW1  131   5.775   6.775  11.581
32764SOL    HW2  132   5.815   6.836  11.448
32765SOL     OW  133   9.901  14.181  13.623
32765SOL    HW1  134   9.933  14.091  13.619
32765SOL    HW2  135   9.972  14.230  13.666
32766SOL     OW  136   6.310  11.085  12.550
32766SOL    HW1  137   6.221  11.109  12.525
32766SOL    HW2  138   6.366  11.142  12.497
32767SOL     OW  139   5.060   2.146   0.059
32767SOL    HW1  140   5.097   2.067   0.098
32767SOL    HW2  141   5.136   2.194   0.026
32768SOL     OW  142   3.304  13.209   7.841
32768SOL    HW1  143   3.233  13.193   7.903
32768SOL    HW2  144   3.379  13.163   7.878
32769SOL     OW  145  13.977   1.386  14.753
32769SOL    HW1  146  13.971   1.429  14.838
32769SOL    HW2  147  13.960   1.294  14.772
32770SOL     OW  148   4.917   6.581   9.779
32770SOL    HW1  149   4.936   6.675   9.769
32770SOL    HW2  150   4.830   6.578   9.817
32771SOL     OW  151   7.982   8.626   3.475
32771SOL    HW1  152   8.052   8.637   3.540
32771SOL    HW2  153   7.970   8.714   3.438
32772SOL     OW  154  11.020  12.933   9.333
32772SOL    HW1  155  11.097  12.956   9.282
32772SOL    HW2  156  11.055  12.903   9.418
32773SOL     OW  157   8.999   2.783   9.316
32773SOL    HW1  158   9.075   2.831   9.285
32773SOL    HW2  159   8.996   2.801   9.410
32774SOL     OW  160  10.411  13.365   5.835
32774SOL    HW1  161  10.406  13.405   5.748
32774SOL    HW2  162  10.470  13.421   5.884
32775SOL     OW  163  12.443  13.693  12.319
32775SOL    HW1  164  12.356  13.709  12.355
32775SOL    HW2  165  12.453  13.598  12.322
32776SOL     OW  166   3.009  13.943   8.160
32776SOL    HW1  167   2.968  13.872   8.210
32776SOL    HW2  168   3.073  13.899   8.105
32777SOL     OW  169   7.758   5.261  11.519
32777SOL    HW1  170   7.712   5.222  11.444
32777SOL    HW2  171   7.835   5.303  11.481
32778SOL     OW  172  12.342   5.114  10.358
32778SOL    HW1  173  12.301   5.191  10.397
32778SOL    HW2  174  12.318   5.119  10.265
32779SOL     OW  175   6.876   4.465   2.027
32779SOL    HW1  176   6.887   4.488   1.935
32779SOL    HW2  177   6.928   4.386   2.038
32780SOL     OW  178   9.238  11.737   4.747
32780SOL    HW1  179   9.230  11.655   4.698
32780SOL    HW2  180   9.197  11.802   4.690
32781SOL     OW  181  14.366   9.006   0.871
32781SOL    HW1  182  14.456   9.038   0.878
32781SOL    HW2  183  14.341   8.986   0.962
32782SOL     OW  184   5.358   3.042   2.951
32782SOL    HW1  185   5.408   2.961   2.943
32782SOL    HW2  186   5.266   3.013   2.953
32783SOL     OW  187   6.859   0.584   3.131
32783SOL    HW1  188   6.801   0.519   3.091
32783SOL    HW2  189   6.926   0.533   3.176
32784SOL     OW  190   7.955   9.192   3.620
32784SOL    HW1  191   7.904   9.266   3.652
32784SOL    HW2  192   7.964   9.209   3.526
32785SOL     OW  193   3.971   0.434  11.043
32785SOL    HW1  194   3.990   0.448  10.950
32785SOL    HW2  195   3.877   0.452  11.051
32786SOL     OW  196  10.577   3.712   8.265
32786SOL    HW1  197  10.569   3.644   8.197
32786SOL    HW2  198  10.657   3.759   8.243
32787SOL     OW  199   9.647  12.564   7.417
32787SOL    HW1  200   9.582  12.513   7.369
32787SOL    HW2  201   9.725  12.562   7.361
32788SOL     OW  202   2.546   3.996   8.992
32788SOL    HW1  203   2.583   4.008   9.079
32788SOL    HW2  204   2.507   3.909   8.994
32789SOL     OW  205  11.517   7.258   9.572
32789SOL    HW1  206  11.488   7.274   9.662
32789SOL    HW2  207  11.475   7.176   9.547
32790SOL     OW  208   5.100  10.506   1.664
32790SOL    HW1  209   5.067  10.424   1.626
32790SOL    HW2  210   5.021  10.555   1.686
32791SOL     OW  211   8.545  10.241   8.471
32791SOL    HW1  212   8.540  10.146   8.468
32791SOL    HW2  213   8.513  10.264   8.559
32792SOL     OW  214  14.759   2.759   7.295
32792SOL    HW1  215  14.754   2.670   7.259
32792SOL    HW2  216  14.754   2.747   7.390
32793SOL     OW  217   2.521   3.450   0.842
32793SOL    HW1  218   2.442   3.396   0.845
32793SOL    HW2  219   2.491   3.538   0.864
32794SOL     OW  220   0.450  14.134   6.334
32794SOL    HW1  221   0.354  14.138   6.338
32794SOL    HW2  222   0.479  14.224   6.343
32795SOL     OW  223   2.301   8.778   5.135
32795SOL    HW1  224   2.334   8.690   5.117
32795SOL    HW2  225   2.275   8.812   5.050
32796SOL     OW  226   0.450  11.208   9.917
32796SOL    HW1  227   0.416  11.122   9.891
32796SOL    HW2  228   0.542  11.191   9.940
32797SOL     OW  229  11.202  12.631   1.641
32797SOL    HW1  230  11.275  12.654   1.698
32797SOL    HW2  231  11.178  12.542   1.667
32798SOL     OW  232  13.634  14.597   9.808
32798SOL    HW1  233  13.559  14.545   9.838
32798SOL    HW2  234  13.672  14.546   9.737
32799SOL     OW  235   6.822   9.171  12.504
32799SOL    HW1  236   6.838   9.097  12.445
32799SOL    HW2  237   6.728   9.187  12.498
32800SOL     OW  238   3.944   8.390   4.764
32800SOL    HW1  239   3.882   8.328   4.802
32800SOL    HW2  240   3.935   8.379   4.670
32801SOL     OW  241   3.276   0.220   8.966
32801SOL    HW1  242   3.193   0.234   8.920
32801SOL    HW2  243   3.295   0.127   8.954
32802SOL     OW  244   0.690   0.933   7.904
32802SOL    HW1  245   0.607   0.887   7.916
32802SOL    HW2  246   0.723   0.902   7.820
32803SOL     OW  247  10.749  14.143   6.151
32803SOL    HW1  248  10.819  14.192   6.107
32803SOL    HW2  249  10.672  14.156   6.095
32804SOL     OW  250   0.625   3.119   4.079
32804SOL    HW1  251   0.613   3.129   4.174
32804SOL    HW2  252   0.567   3.184   4.041
32805SOL     OW  253   3.317  14.288  13.262
32805SOL    HW1  254   3.334  14.196  13.240
32805SOL    HW2  255   3.267  14.284  13.343
32806SOL     OW  256   4.438   9.156   2.499
32806SOL    HW1  257   4.497   9.183   2.429
32806SOL    HW2  258   4.357   9.131   2.455
32807SOL     OW  259   1.507  10.069  11.665
32807SOL    HW1  260   1.514  10.035  11.575
32807SOL    HW2  261   1.431  10.025  11.702
32808SOL     OW  262   3.556   8.936   6.842
32808SOL    HW1  263   3.592   8.848   6.852
32808SOL    HW2  264   3.600   8.972   6.766
32809SOL     OW  265   3.335   0.502   0.438
32809SOL    HW1  266   3.377   0.522   0.354
32809SOL    HW2  267   3.407   0.477   0.495
32810SOL     OW  268   5.239  11.134  12.227
32810SOL    HW1  269   5.295  11.092  12.293
32810SOL    HW2  270   5.182  11.064  12.195
32811SOL     OW  271   1.330   1.862   8.951
32811SOL    HW1  272   1.338   1.768   8.935
32811SOL    HW2  273   1.284   1.868   9.035
32812SOL     OW  274   4.316  11.741   2.584
32812SOL    HW1  275   4.373  11.749   2.661
32812SOL    HW2  276   4.266  11.823   2.582
32813SOL     OW  277   8.532  12.753  12.447
32813SOL    HW1  278   8.456  12.809  12.462
32813SOL    HW2  279   8.534  12.695  12.524
32814SOL     OW  280  13.838   5.476   8.300
32814SOL    HW1  281  13.868   5.463   8.390
32814SOL    HW2  282  13.828   5.571   8.292
32815SOL     OW  283   3.423   8.405   6.427
32815SOL    HW1  284   3.381   8.403   6.341
32815SOL    HW2  285   3.506   8.359   6.415
32816SOL     OW  286  14.016  10.545   7.136
32816SOL    HW1  287  13.984  10.632   7.159
32816SOL    HW2  288  14.065  10.557   7.055
32817SOL     OW  289  14.804   7.965   7.297
32817SOL    HW1  290   0.004   8.017   7.264
32817SOL    HW2  291  14.726   8.012   7.266
32818SOL     OW  292  10.347   4.105  11.666
32818SOL    HW1  293  10.418   4.148  11.620
32818SOL    HW2  294  10.267   4.139  11.627
32819SOL     OW  295  11.239   2.257   5.365
32819SOL    HW1  296  11.256   2.339   5.412
32819SOL    HW2  297  11.156   2.272   5.320
32820SOL     OW  298   8.635   8.759   5.019
32820SOL    HW1  299   8.596   8.846   5.014
32820SOL    HW2  300   8.709   8.762   4.958
32821SOL     OW  301  10.483   9.842   2.775
32821SOL    HW1  302  10.564   9.809   2.816
32821SOL    HW2  303  10.513   9.907   2.712
32822SOL     OW  304   8.515   7.117  13.354
32822SOL    HW1  305   8.427   7.090  13.324
32822SOL    HW2  306   8.526   7.205  13.319
32823SOL     OW  307   8.682  11.787   2.342
32823SOL    HW1  308   8.630  11.859   2.308
32823SOL    HW2  309   8.732  11.825   2.414
32824SOL     OW  310  14.591   9.031   7.806
32824SOL    HW1  311  14.509   9.074   7.782
32824SOL    HW2  312  14.624   8.994   7.724
32825SOL     OW  313  13.045   2.291   5.111
32825SOL    HW1  314  12.964   2.243   5.130
32825SOL    HW2  315  13.114   2.230   5.136
32826SOL     OW  316  10.268   9.165   8.157
32826SOL    HW1  317  10.215   9.230   8.204
32826SOL    HW2  318  10.207   9.095   8.136
32827SOL     OW  319  12.388   1.875  14.450
32827SOL    HW1  320  12.466   1.856  14.397
32827SOL    HW2  321  12.371   1.794  14.498
32828SOL     OW  322   6.330  13.321  10.757
32828SOL    HW1  323   6.400  13.264  10.724
32828SOL    HW2  324   6.353  13.336  10.849
32829SOL     OW  325   8.949   8.484   1.761
32829SOL    HW1  326   8.938   8.498   1.855
32829SOL    HW2  327   8.895   8.551   1.720
32830SOL     OW  328   5.134   7.803   0.822
32830SOL    HW1  329   5.041   7.793   0.841
32830SOL    HW2  330   5.168   7.853   0.896
32831SOL     OW  331  11.534  13.347   2.119
32831SOL    HW1  332  11.585  13.290   2.178
32831SOL    HW2  333  11.599  13.382   2.058
32832SOL     OW  334   0.450   5.997   8.407
32832SOL    HW1  335   0.467   5.937   8.479
32832SOL    HW2  336   0.462   6.084   8.445
32833SOL     OW  337   4.973   1.492   8.642
32833SOL    HW1  338   5.050   1.513   8.590
32833SOL    HW2  339   4.905   1.551   8.608
32834SOL     OW  340  10.640  11.825  13.684
32834SOL    HW1  341  10.613  11.916  13.669
32834SOL    HW2  342  10.729  11.820  13.651
32835SOL     OW  343   6.998   5.934   6.756
32835SOL    HW1  344   7.045   5.994   6.815
32835SOL    HW2  345   6.942   5.992   6.704
32836SOL     OW  346  14.176   0.626  10.343
32836SOL    HW1  347  14.222   0.707  10.363
32836SOL    HW2  348  14.122   0.610  10.420
32837SOL     OW  349   1.361   9.859  11.512
32837SOL    HW1  350   1.363   9.767  11.487
32837SOL    HW2  351   1.357   9.906  11.428
32838SOL     OW  352   4.409  10.871   6.439
32838SOL    HW1  353   4.366  10.796   6.399
32838SOL    HW2  354   4.342  10.911   6.495
32839SOL     OW  355   2.560  14.747   2.469
32839SOL    HW1  356   2.539  14.785   2.384
32839SOL    HW2  357   2.548  14.818   2.531
32840SOL     OW  358   0.799   7.842   1.694
32840SOL    HW1  359   0.805   7.867   1.602
32840SOL    HW2  360   0.714   7.877   1.723
32841SOL     OW  361   0.760   8.382  13.385
32841SOL    HW1  362   0.718   8.438  13.320
32841SOL    HW2  363   0.780   8.441  13.458
32842SOL     OW  364   6.332  13.728   8.469
32842SOL    HW1  365   6.376  13.748   8.386
32842SOL    HW2  366   6.239  13.724   8.446
32843SOL     OW  367   8.033   9.177   4.060
32843SOL    HW1  368   8.101   9.225   4.108
32843SOL    HW2  369   8.064   9.175   3.970
32844SOL     OW  370   4.447   9.832  10.610
32844SOL    HW1  371   4.365   9.783  10.616
32844SOL    HW2  372   4.486   9.803  10.528
32845SOL     OW  373   1.153   6.808   8.033
32845SOL    HW1  374   1.225   6.870   8.048
32845SOL    HW2  375   1.090   6.857   7.979
32846SOL     OW  376   9.898   7.506   2.924
32846SOL    HW1  377   9.882   7.413   2.911
32846SOL    HW2  378   9.993   7.513   2.934
32847SOL     OW  379   2.055  11.057   0.363
32847SOL    HW1  380   2.085  11.131   0.417
32847SOL    HW2  381   2.135  11.012   0.337
32848SOL     OW  382  11.069   0.499  12.656
32848SOL    HW1  383  11.003   0.523  12.722
32848SOL    HW2  384  11.115   0.581  12.637
32849SOL     OW  385  10.838   1.894   2.187
32849SOL    HW1  386  10.859   1.940   2.106
32849SOL    HW2  387  10.744   1.879   2.182
32850SOL     OW  388   6.908   5.317  10.376
32850SOL    HW1  389   6.874   5.248  10.319
32850SOL    HW2  390   6.830   5.362  10.409
32851SOL     OW  391   9.281   2.401   5.418
32851SOL    HW1  392   9.277   2.477   5.475
32851SOL    HW2  393   9.224   2.336   5.460
32852SOL     OW  394  13.291   8.199  13.306
32852SOL    HW1  395  13.353   8.127  13.292
32852SOL    HW2  396  13.205   8.158  13.302
32853SOL     OW  397   5.162  13.739  14.298
32853SOL    HW1  398   5.155  13.793  14.378
32853SOL    HW2  399   5.094  13.775  14.240
32854SOL     OW  400   0.773  12.430   7.897
32854SOL    HW1  401   0.740  12.377   7.825
32854SOL    HW2  402   0.738  12.390   7.976
32855SOL     OW  403   3.863   3.834  12.194
32855SOL    HW1  404   3.902   3.894  12.131
32855SOL    HW2  405   3.885   3.746  12.161
32856SOL     OW  406   5.808   0.533   7.645
32856SOL    HW1  407   5.714   0.536   7.664
32856SOL    HW2  408   5.847   0.501   7.726
32857SOL     OW  409  14.692   6.544   3.131
32857SOL    HW1  410  14.704   6.510   3.220
32857SOL    HW2  411  14.659   6.634   3.144
32858SOL     OW  412   3.971   0.709   2.347
32858SOL    HW1  413   4.051   0.695   2.398
32858SOL    HW2  414   3.940   0.795   2.374
32859SOL     OW  415  12.680   9.384  10.145
32859SOL    HW1  416  12.672   9.332  10.225
32859SOL    HW2  417  12.772   9.380  10.121
32860SOL     OW  418  12.607   3.529   7.672
32860SOL    HW1  419  12.583   3.604   7.726
32860SOL    HW2  420  12.701   3.518   7.686
32861SOL     OW  421   8.372   3.708  13.941
32861SOL    HW1  422   8.293   3.755  13.967
32861SOL    HW2  423   8.443   3.755  13.985
32862SOL     OW  424   7.561   0.220   7.708
32862SOL    HW1  425   7.552   0.227   7.613
32862SOL    HW2  426   7.472   0.203   7.739
32863SOL     OW  427   1.246   2.892   9.567
32863SOL    HW1  428   1.179   2.939   9.617
32863SOL    HW2  429   1.274   2.822   9.626
32864SOL     OW  430  14.217  10.007  13.894
32864SOL    HW1  431  14.155  10.080  13.898
32864SOL    HW2  432  14.163   9.930  13.878
32865SOL     OW  433   3.360  11.904  14.664
32865SOL    HW1  434   3.383  11.992  14.634
32865SOL    HW2  435   3.385  11.847  14.592
32866SOL     OW  436  11.448   6.989   2.588
32866SOL    HW1  437  11.453   6.937   2.507
32866SOL    HW2  438  11.528   7.042   2.586
32867SOL     OW  439   0.238  14.506  14.474
32867SOL    HW1  440   0.279  14.542  14.396
32867SOL    HW2  441   0.189  14.430  14.443
32868SOL     OW  442  14.180   9.821  13.388
32868SOL    HW1  443  14.094   9.865  13.385
32868SOL    HW2  444  14.222   9.857  13.466
32869SOL     OW  445   8.924   8.977   8.975
32869SOL    HW1  446   8.890   8.902   9.024
32869SOL    HW2  447   9.010   8.994   9.013
32870SOL     OW  448  14.204  11.383   7.913
32870SOL    HW1  449  14.265  11.431   7.970
32870SOL    HW2  450  14.118  11.412   7.942
32871SOL     OW  451   6.591   7.881  13.254
32871SOL    HW1  452   6.499   7.887  13.276
32871SOL    HW2  453   6.627   7.967  13.275
32872SOL     OW  454   9.314   5.242   2.847
32872SOL    HW1  455   9.263   5.310   2.803
32872SOL    HW2  456   9.331   5.277   2.934
32873SOL     OW  457   6.299   8.536   8.705
32873SOL    HW1  458   6.341   8.484   8.636
32873SOL    HW2  459   6.220   8.486   8.726
32874SOL     OW  460   1.924  12.159  10.322
32874SOL    HW1  461   1.952  12.124  10.407
32874SOL    HW2  462   1.837  12.122  10.309
32875SOL     OW  463   8.355   4.471   4.410
32875SOL    HW1  464   8.383   4.392   4.365
32875SOL    HW2  465   8.273   4.447   4.454
32876SOL     OW  466  11.827   4.239   8.020
32876SOL    HW1  467  11.754   4.204   7.969
32876SOL    HW2  468  11.820   4.334   8.011
32877SOL     OW  469  14.592   0.584  10.696
32877SOL    HW1  470  14.590   0.490  10.714
32877SOL    HW2  471  14.594   0.590  10.600
32878SOL     OW  472   7.490   8.637  14.573
32878SOL    HW1  473   7.474   8.678  14.488
32878SOL    HW2  474   7.501   8.710  14.633
32879SOL     OW  475   7.418   9.426   2.148
32879SOL    HW1  476   7.513   9.410   2.151
32879SOL    HW2  477   7.383   9.351   2.100
32880SOL     OW  478  11.681   7.584   8.972
32880SOL    HW1  479  11.586   7.575   8.964
32880SOL    HW2  480  11.717   7.505   8.931
32881SOL     OW  481   2.670   8.769  10.170
32881SOL    HW1  482   2.617   8.720  10.233
32881SOL    HW2  483   2.609   8.833  10.132
32882SOL     OW  484   7.003  10.950   3.631
32882SOL    HW1  485   7.083  10.918   3.672
32882SOL    HW2  486   7.032  11.023   3.576
32883SOL     OW  487   2.169   1.293   5.267
32883SOL    HW1  488   2.099   1.228   5.258
32883SOL    HW2  489   2.157   1.352   5.193
32884SOL     OW  490  11.282  13.358  14.131
32884SOL    HW1  491  11.221  13.428  14.152
32884SOL    HW2  492  11.367  13.392  14.159
32885SOL     OW  493  13.611   9.903   5.451
32885SOL    HW1  494  13.693   9.853   5.444
32885SOL    HW2  495  13.633   9.990   5.417
32886SOL     OW  496   6.424   0.991   2.687
32886SOL    HW1  497   6.380   0.994   2.772
32886SOL    HW2  498   6.506   1.038   2.701
32887SOL     OW  499   5.359   3.249   9.203
32887SOL    HW1  500   5.276   3.295   9.188
32887SOL    HW2  501   5.421   3.319   9.222
32888SOL     OW  502  11.898  12.778   8.617
32888SOL    HW1  503  11.866  12.868   8.628
32888SOL    HW2  504  11.907  12.745   8.706
32889SOL     OW  505   8.100   9.837   8.256
32889SOL    HW1  506   8.065   9.897   8.322
32889SOL    HW2  507   8.023   9.804   8.210
32890SOL     OW  508  13.818   4.041   7.941
32890SOL    HW1  509  13.893   4.046   7.882
32890SOL    HW2  510  13.823   4.122   7.993
32891SOL     OW  511   8.113   2.379   4.224
32891SOL    HW1  512   8.077   2.367   4.312
32891SOL    HW2  513   8.197   2.334   4.227
32892SOL     OW  514   3.815   5.162   7.517
32892SOL    HW1  515   3.900   5.192   7.484
32892SOL    HW2  516   3.774   5.119   7.442
32893SOL     OW  517   4.571  11.654   4.623
32893SOL    HW1  518   4.478  11.659   4.646
32893SOL    HW2  519   4.581  11.712   4.547
32894SOL     OW  520  14.658   6.889  12.646
32894SOL    HW1  521  14.588   6.852  12.593
32894SOL    HW2  522  14.731   6.828  12.635
32895SOL     OW  523  11.349   8.088   7.841
32895SOL    HW1  524  11.280   8.060   7.901
32895SOL    HW2  525  11.427   8.042   7.871
32896SOL     OW  526  10.529   8.013   5.447
32896SOL    HW1  527  10.543   8.031   5.353
32896SOL    HW2  528  10.438   8.037   5.462
32897SOL     OW  529   2.766   5.990   7.104
32897SOL    HW1  530   2.766   5.978   7.009
32897SOL    HW2  531   2.857   5.975   7.130
32898SOL     OW  532   0.449   3.162   0.253
32898SOL    HW1  533   0.395   3.234   0.284
32898SOL    HW2  534   0.512   3.203   0.194
32899SOL     OW  535   6.110   1.426   7.694
32899SOL    HW1  536   6.124   1.367   7.619
32899SOL    HW2  537   6.036   1.388   7.741
32900SOL     OW  538  12.209  11.191   0.909
32900SOL    HW1  539  12.270  11.122   0.938
32900SOL    HW2  540  12.217  11.259   0.975
32901SOL     OW  541   1.417   2.305  12.793
32901SOL    HW1  542   1.483   2.240  12.815
32901SOL    HW2  543   1.429   2.321  12.699
32902SOL     OW  544  11.424   9.707   2.882
32902SOL    HW1  545  11.359   9.764   2.840
32902SOL    HW2  546  11.501   9.763   2.893
32903SOL     OW  547  11.672  14.844  14.327
32903SOL    HW1  548  11.763  14.846  14.356
32903SOL    HW2  549  11.667  14.770  14.266
32904SOL     OW  550  12.654  11.591  12.391
32904SOL    HW1  551  12.673  11.531  12.319
32904SOL    HW2  552  12.560  11.583  12.406
32905SOL     OW  553   4.686   3.583   4.528
32905SOL    HW1  554   4.732   3.606   4.448
32905SOL    HW2  555   4.674   3.488   4.523
32906SOL     OW  556  10.914   1.504   3.325
32906SOL    HW1  557  10.924   1.422   3.372
32906SOL    HW2  558  10.821   1.510   3.304
32907SOL     OW  559  14.216   3.292   3.791
32907SOL    HW1  560  14.216   3.243   3.874
32907SOL    HW2  561  14.205   3.225   3.724
32908SOL     OW  562   9.818  13.835   4.631
32908SOL    HW1  563   9.879  13.827   4.558
32908SOL    HW2  564   9.743  13.780   4.607
32909SOL     OW  565   6.816  10.752   0.294
32909SOL    HW1  566   6.823  10.845   0.315
32909SOL    HW2  567   6.855  10.707   0.369
32910SOL     OW  568  14.664   8.587   9.039
32910SOL    HW1  569  14.623   8.667   9.072
32910SOL    HW2  570  14.739   8.618   8.989
32911SOL     OW  571  14.845   6.624  12.451
32911SOL    HW1  572   0.057   6.651  12.486
32911SOL    HW2  573  14.836   6.671  12.368
32912SOL     OW  574  12.284   0.572   2.241
32912SOL    HW1  575  12.251   0.610   2.322
32912SOL    HW2  576  12.356   0.629   2.214
32913SOL     OW  577   8.237   5.949   9.016
32913SOL    HW1  578   8.179   5.872   9.011
32913SOL    HW2  579   8.177   6.023   9.030
32914SOL     OW  580  14.252  11.714  10.483
32914SOL    HW1  581  14.216  11.725  10.395
32914SOL    HW2  582  14.326  11.654  10.472
32915SOL     OW  583   4.991   6.455  11.158
32915SOL    HW1  584   5.058   6.387  11.171
32915SOL    HW2  585   5.035   6.537  11.181
32916SOL     OW  586  12.631  10.536  10.166
32916SOL    HW1  587  12.710  10.570  10.125
32916SOL    HW2  588  12.662  10.472  10.229
32917SOL     OW  589   2.470   9.915   2.537
32917SOL    HW1  590   2.564   9.935   2.531
32917SOL    HW2  591   2.441   9.958   2.617
32918SOL     OW  592   5.112  11.911   9.752
32918SOL    HW1  593   5.190  11.898   9.698
32918SOL    HW2  594   5.120  11.846   9.822
32919SOL     OW  595   2.332   3.838   5.959
32919SOL    HW1  596   2.330   3.933   5.965
32919SOL    HW2  597   2.275   3.808   6.029
32920SOL     OW  598   4.103  10.066   4.381
32920SOL    HW1  599   4.076  10.124   4.310
32920SOL    HW2  600   4.024  10.056   4.435
32921SOL     OW  601   1.529   8.268  10.519
32921SOL    HW1  602   1.464   8.214  10.563
32921SOL    HW2  603   1.479   8.317  10.453
32922SOL     OW  604   9.521   9.306   3.903
32922SOL    HW1  605   9.447   9.366   3.901
32922SOL    HW2  606   9.540   9.295   3.996
32923SOL     OW  607   0.013   6.764   3.253
32923SOL    HW1  608   0.063   6.687   3.228
32923SOL    HW2  609  14.841   6.790   3.173
32924SOL     OW  610   5.121   2.694   1.955
32924SOL    HW1  611   5.076   2.622   2.000
32924SOL    HW2  612   5.161   2.745   2.026
32925SOL     OW  613   3.911   3.380   6.025
32925SOL    HW1  614   3.985   3.321   6.010
32925SOL    HW2  615   3.896   3.420   5.939
32926SOL     OW  616   6.923   2.258   4.001
32926SOL    HW1  617   7.015   2.246   4.025
32926SOL    HW2  618   6.896   2.173   3.966
32927SOL     OW  619  13.321   8.838   8.319
32927SOL    HW1  620  13.242   8.784   8.313
32927SOL    HW2  621  13.387   8.789   8.269
32928SOL     OW  622   6.531   4.945  13.159
32928SOL    HW1  623   6.551   4.875  13.097
32928SOL    HW2  624   6.542   5.026  13.109
32929SOL     OW  625  10.227   9.462   2.231
32929SOL    HW1  626  10.157   9.461   2.166
32929SOL    HW2  627  10.212   9.541   2.282
32930SOL     OW  628  10.141  14.738  14.698
32930SOL    HW1  629  10.184  14.774  14.776
32930SOL    HW2  630  10.187  14.778  14.624
32931SOL     OW  631   1.319   0.184  11.971
32931SOL    HW1  632   1.270   0.113  12.012
32931SOL    HW2  633   1.410   0.167  11.996
32932SOL     OW  634  14.497   8.007  10.484
32932SOL    HW1  635  14.474   7.999  10.391
32932SOL    HW2  636  14.540   8.092  10.490
32933SOL     OW  637  12.116   1.300   0.334
32933SOL    HW1  638  12.109   1.206   0.318
32933SOL    HW2  639  12.086   1.341   0.253
32934SOL     OW  640   7.173   7.637   8.102
32934SOL    HW1  641   7.252   7.605   8.144
32934SOL    HW2  642   7.114   7.660   8.174
32935SOL     OW  643   6.882   2.872   2.715
32935SOL    HW1  644   6.897   2.803   2.650
32935SOL    HW2  645   6.787   2.876   2.724
32936SOL     OW  646  13.899  14.337   9.347
32936SOL    HW1  647  13.909  14.398   9.420
32936SOL    HW2  648  13.918  14.389   9.269
32937SOL     OW  649  14.383   8.089  14.405
32937SOL    HW1  650  14.442   8.028  14.449
32937SOL    HW2  651  14.412   8.176  14.435
32938SOL     OW  652  13.160   4.655   5.819
32938SOL    HW1  653  13.098   4.722   5.849
32938SOL    HW2  654  13.139   4.578   5.871
32939SOL     OW  655   1.076  12.308   9.794
32939SOL    HW1  656   1.162  12.347   9.782
32939SOL    HW2  657   1.020  12.381   9.821
32940SOL     OW  658  11.133   9.146   0.598
32940SOL    HW1  659  11.200   9.174   0.659
32940SOL    HW2  660  11.181   9.113   0.523
32941SOL     OW  661   2.146  13.264  11.378
32941SOL    HW1  662   2.117  13.333  11.319
32941SOL    HW2  663   2.151  13.186  11.323
32942SOL     OW  664  10.264   3.251   1.907
32942SOL    HW1  665  10.299   3.291   1.828
32942SOL    HW2  666  10.334   3.193   1.938
32943SOL     OW  667  11.117   4.803  14.615
32943SOL    HW1  668  11.096   4.864  14.685
32943SOL    HW2  669  11.047   4.814  14.551
32944SOL     OW  670   4.765   7.003   7.746
32944SOL    HW1  671   4.809   7.035   7.668
32944SOL    HW2  672   4.691   6.952   7.713
32945SOL     OW  673   9.899   3.785   7.047
32945SOL    HW1  674   9.893   3.733   6.966
32945SOL    HW2  675   9.912   3.875   7.017
32946SOL     OW  676  13.208   5.965  11.860
32946SOL    HW1  677  13.281   6.026  11.874
32946SOL    HW2  678  13.185   5.976  11.768
32947SOL     OW  679   5.284   5.195   2.833
32947SOL    HW1  680   5.213   5.242   2.877
32947SOL    HW2  681   5.250   5.106   2.821
32948SOL     OW  682  13.990   4.670   9.403
32948SOL    HW1  683  13.995   4.593   9.458
32948SOL    HW2  684  14.045   4.650   9.327
32949SOL     OW  685  10.004   4.628  11.122
32949SOL    HW1  686   9.911   4.616  11.107
32949SOL    HW2  687  10.037   4.665  11.040
32950SOL     OW  688   5.479   1.109   4.613
32950SOL    HW1  689   5.534   1.154   4.678
32950SOL    HW2  690   5.445   1.179   4.558
32951SOL     OW  691   0.188  13.429  11.866
32951SOL    HW1  692   0.277  13.440  11.832
32951SOL    HW2  693   0.199  13.374  11.943
32952SOL     OW  694   3.585   9.476   0.646
32952SOL    HW1  695   3.569   9.570   0.641
32952SOL    HW2  696   3.613   9.452   0.557
32953SOL     OW  697  14.475  12.237   9.350
32953SOL    HW1  698  14.558  12.271   9.383
32953SOL    HW2  699  14.420  12.314   9.337
32954SOL     OW  700   8.262   6.176  14.401
32954SOL    HW1  701   8.246   6.162  14.307
32954SOL    HW2  702   8.175   6.191  14.438
32955SOL     OW  703   2.054  11.256   5.613
32955SOL    HW1  704   2.004  11.176   5.600
32955SOL    HW2  705   2.132  11.228   5.662
32956SOL     OW  706   8.659  10.491   2.003
32956SOL    HW1  707   8.695  10.422   2.058
32956SOL    HW2  708   8.704  10.570   2.031
32957SOL     OW  709  12.512   3.551   8.974
32957SOL    HW1  710  12.583   3.574   8.914
32957SOL    HW2  711  12.547   3.569   9.061
32958SOL     OW  712   5.162   3.416   7.301
32958SOL    HW1  713   5.088   3.389   7.247
32958SOL    HW2  714   5.132   3.495   7.346
32959SOL     OW  715   9.872   0.923   7.781
32959SOL    HW1  716   9.826   0.989   7.729
32959SOL    HW2  717   9.811   0.900   7.851
32960SOL     OW  718  11.003  10.259   0.542
32960SOL    HW1  719  10.920  10.293   0.508
32960SOL    HW2  720  11.060  10.255   0.465
32961SOL     OW  721   7.278   9.831   4.120
32961SOL    HW1  722   7.264   9.760   4.058
32961SOL    HW2  723   7.346   9.885   4.079
32962SOL     OW  724   8.961   5.969   6.468
32962SOL    HW1  725   8.911   6.046   6.442
32962SOL    HW2  726   9.038   6.004   6.513
32963SOL     OW  727   4.177  13.146  12.108
32963SOL    HW1  728   4.182  13.062  12.064
32963SOL    HW2  729   4.088  13.176  12.093
32964SOL     OW  730  11.979   0.699   5.420
32964SOL    HW1  731  11.941   0.738   5.341
32964SOL    HW2  732  12.011   0.614   5.391
32965SOL     OW  733  13.267  10.442   3.063
32965SOL    HW1  734  13.266  10.516   3.003
32965SOL    HW2  735  13.190  10.391   3.040
32966SOL     OW  736   0.590   6.356   7.010
32966SOL    HW1  737   0.536   6.285   7.044
32966SOL    HW2  738   0.678   6.339   7.046
32967SOL     OW  739  10.086   2.538   2.533
32967SOL    HW1  740  10.123   2.522   2.446
32967SOL    HW2  741   9.991   2.537   2.520
32968SOL     OW  742  10.436   6.565   2.306
32968SOL    HW1  743  10.357   6.602   2.345
32968SOL    HW2  744  10.500   6.564   2.377
32969SOL     OW  745   0.576  13.998   7.803
32969SOL    HW1  746   0.561  14.074   7.858
32969SOL    HW2  747   0.649  13.951   7.844
32970SOL     OW  748  12.835  11.731  10.331
32970SOL    HW1  749  12.749  11.705  10.363
32970SOL    HW2  750  12.896  11.679  10.384
32971SOL     OW  751  10.445   0.083   7.599
32971SOL    HW1  752  10.361   0.091   7.645
32971SOL    HW2  753  10.503   0.143   7.644
32972SOL     OW  754   1.036   7.304   5.337
32972SOL    HW1  755   1.098   7.239   5.302
32972SOL    HW2  756   0.950   7.264   5.326
32973SOL     OW  757   3.155   3.233   8.464
32973SOL    HW1  758   3.221   3.301   8.476
32973SOL    HW2  759   3.112   3.225   8.549
32974SOL     OW  760  10.064   0.505  12.829
32974SOL    HW1  761  10.048   0.438  12.762
32974SOL    HW2  762   9.996   0.489  12.895
32975SOL     OW  763   2.229   3.507   5.827
32975SOL    HW1  764   2.195   3.487   5.740
32975SOL    HW2  765   2.152   3.536   5.877
32976SOL     OW  766   3.509  11.671  10.808
32976SOL    HW1  767   3.441  11.631  10.754
32976SOL    HW2  768   3.532  11.752  10.762
32977SOL     OW  769   1.077   0.579  10.964
32977SOL    HW1  770   1.120   0.572  11.049
32977SOL    HW2  771   1.081   0.672  10.943
32978SOL     OW  772   7.242  11.865   3.155
32978SOL    HW1  773   7.287  11.922   3.093
32978SOL    HW2  774   7.297  11.787   3.161
32979SOL     OW  775   1.997   0.436   2.422
32979SOL    HW1  776   1.982   0.516   2.371
32979SOL    HW2  777   2.092   0.427   2.424
32980SOL     OW  778   3.500   4.145   0.935
32980SOL    HW1  779   3.470   4.137   0.845
32980SOL    HW2  780   3.506   4.239   0.951
32981SOL     OW  781  14.514   5.958   4.564
32981SOL    HW1  782  14.587   6.002   4.519
32981SOL    HW2  783  14.549   5.873   4.589
32982SOL     OW  784   1.717   1.829   5.049
32982SOL    HW1  785   1.756   1.804   5.132
32982SOL    HW2  786   1.679   1.915   5.064
32983SOL     OW  787   2.259  14.568   0.918
32983SOL    HW1  788   2.338  14.547   0.868
32983SOL    HW2  789   2.278  14.653   0.957
32984SOL     OW  790  13.799  14.388   6.078
32984SOL    HW1  791  13.837  14.467   6.039
32984SOL    HW2  792  13.846  14.316   6.036
32985SOL     OW  793  12.403  11.593   9.760
32985SOL    HW1  794  12.442  11.635   9.837
32985SOL    HW2  795  12.443  11.507   9.757
32986SOL     OW  796   3.302   8.882   0.112
32986SOL    HW1  797   3.390   8.916   0.096
32986SOL    HW2  798   3.307   8.843   0.199
32987SOL     OW  799   8.883  14.209   8.637
32987SOL    HW1  800   8.965  14.172   8.668
32987SOL    HW2  801   8.823  14.199   8.711
32988SOL     OW  802   6.926  13.743   8.114
32988SOL    HW1  803   6.989  13.688   8.067
32988SOL    HW2  804   6.869  13.778   8.047
32989SOL     OW  805   6.608  14.234   5.494
32989SOL    HW1  806   6.534  14.224   5.555
32989SOL    HW2  807   6.667  14.295   5.538
32990SOL     OW  808   3.861  14.718  13.782
32990SOL    HW1  809   3.813  14.649  13.735
32990SOL    HW2  810   3.875  14.786  13.717
32991SOL     OW  811   0.370  12.982  14.056
32991SOL    HW1  812   0.362  12.905  14.113
32991SOL    HW2  813   0.338  13.055  14.108
32992SOL     OW  814   5.532   0.054   5.560
32992SOL    HW1  815   5.564   0.143   5.573
32992SOL    HW2  816   5.476   0.037   5.636
32993SOL     OW  817   1.933   8.072   4.458
32993SOL    HW1  818   1.935   8.168   4.452
32993SOL    HW2  819   1.871   8.054   4.528
32994SOL     OW  820  10.456  13.857   7.055
32994SOL    HW1  821  10.406  13.885   6.978
32994SOL    HW2  822  10.438  13.924   7.120
32995SOL     OW  823   6.201  10.162  10.774
32995SOL    HW1  824   6.217  10.228  10.841
32995SOL    HW2  825   6.118  10.122  10.800
32996SOL     OW  826   1.602   1.569  13.840
32996SOL    HW1  827   1.509   1.551  13.849
32996SOL    HW2  828   1.637   1.496  13.789
32997SOL     OW  829   0.355   9.218   4.514
32997SOL    HW1  830   0.413   9.291   4.535
32997SOL    HW2  831   0.281   9.258   4.468
32998SOL     OW  832  13.622   6.925   5.455
32998SOL    HW1  833  13.598   6.864   5.386
32998SOL    HW2  834  13.648   7.005   5.409
32999SOL     OW  835  14.050   1.188   2.210
32999SOL    HW1  836  14.026   1.222   2.297
32999SOL    HW2  837  13.974   1.137   2.184
33000SOL     OW  838   8.191  11.164  10.334
33000SOL    HW1  839   8.269  11.108  10.330
33000SOL    HW2  840   8.123  11.114  10.289
33001SOL     OW  841  10.100   2.295   0.027
33001SOL    HW1  842  10.071   2.301  14.809
33001SOL    HW2  843  10.187   2.256   0.023
33002SOL     OW  844   8.598   1.316  12.421
33002SOL    HW1  845   8.584   1.230  12.463
33002SOL    HW2  846   8.515   1.334  12.375
33003SOL     OW  847   1.379   5.197  12.221
33003SOL    HW1  848   1.304   5.189  12.279
33003SOL    HW2  849   1.417   5.282  12.242
33004SOL     OW  850   8.182  14.158  13.372
33004SOL    HW1  851   8.257  14.148  13.430
33004SOL    HW2  852   8.213  14.213  13.301
33005SOL     OW  853   6.419   7.669  14.865
33005SOL    HW1  854   6.396   7.611   0.065
33005SOL    HW2  855   6.497   7.629  14.826
33006SOL     OW  856  13.646   6.582   1.564
33006SOL    HW1  857  13.560   6.584   1.606
33006SOL    HW2  858  13.682   6.496   1.587
33007SOL     OW  859  10.521  10.787   8.761
33007SOL    HW1  860  10.479  10.834   8.689
33007SOL    HW2  861  10.608  10.827   8.767
33008SOL     OW  862   7.548   7.363   3.778
33008SOL    HW1  863   7.559   7.362   3.873
33008SOL    HW2  864   7.455   7.380   3.764
33009SOL     OW  865   8.532  11.653  12.060
33009SOL    HW1  866   8.494  11.612  12.138
33009SOL    HW2  867   8.584  11.726  12.094
33010SOL     OW  868   3.059  11.020   1.060
33010SOL    HW1  869   3.129  11.053   1.003
33010SOL    HW2  870   3.039  10.933   1.026
33011SOL     OW  871   4.752   2.765  13.882
33011SOL    HW1  872   4.741   2.769  13.977
33011SOL    HW2  873   4.841   2.733  13.869
33012SOL     OW  874  13.314   1.117   8.373
33012SOL    HW1  875  13.257   1.059   8.423
33012SOL    HW2  876  13.358   1.170   8.440
33013SOL     OW  877  11.663   7.888   1.494
33013SOL    HW1  878  11.684   7.796   1.509
33013SOL    HW2  879  11.718   7.936   1.555
33014SOL     OW  880   3.666   8.536  13.508
33014SOL    HW1  881   3.759   8.558  13.499
33014SOL    HW2  882   3.651   8.467  13.443
33015SOL     OW  883   2.790  13.084   8.016
33015SOL    HW1  884   2.787  13.063   7.923
33015SOL    HW2  885   2.788  13.000   8.060
33016SOL     OW  886  10.786   8.411  14.633
33016SOL    HW1  887  10.730   8.473  14.586
33016SOL    HW2  888  10.726   8.367  14.693
33017SOL     OW  889   3.527   0.629   8.671
33017SOL    HW1  890   3.462   0.669   8.613
33017SOL    HW2  891   3.586   0.582   8.612
33018SOL     OW  892   0.840   1.283   4.406
33018SOL    HW1  893   0.915   1.230   4.379
33018SOL    HW2  894   0.834   1.351   4.338
33019SOL     OW  895   3.230   6.682   9.377
33019SOL    HW1  896   3.234   6.645   9.465
33019SOL    HW2  897   3.168   6.754   9.384
33020SOL     OW  898   1.481  12.887   8.865
33020SOL    HW1  899   1.516  12.895   8.776
33020SOL    HW2  900   1.422  12.811   8.861
33021SOL     OW  901  13.539   9.623   9.342
33021SOL    HW1  902  13.544   9.716   9.363
33021SOL    HW2  903  13.465   9.617   9.281
33022SOL     OW  904  14.691  13.027  13.505
33022SOL    HW1  905  14.752  12.990  13.568
33022SOL    HW2  906  14.641  12.951  13.473
33023SOL     OW  907  13.310   5.290  12.820
33023SOL    HW1  908  13.333   5.333  12.737
33023SOL    HW2  909  13.252   5.218  12.795
33024SOL     OW  910   3.858  12.500   2.442
33024SOL    HW1  911   3.856  12.591   2.473
33024SOL    HW2  912   3.854  12.447   2.522
33025SOL     OW  913   8.080   6.530   1.147
33025SOL    HW1  914   8.008   6.531   1.084
33025SOL    HW2  915   8.052   6.590   1.216
33026SOL     OW  916   5.486   9.736   5.135
33026SOL    HW1  917   5.547   9.722   5.062
33026SOL    HW2  918   5.517   9.816   5.177
33027SOL     OW  919  11.442   6.819   2.333
33027SOL    HW1  920  11.376   6.840   2.267
33027SOL    HW2  921  11.524   6.813   2.284
33028SOL     OW  922  12.298   1.994   5.894
33028SOL    HW1  923  12.210   1.964   5.874
33028SOL    HW2  924  12.305   2.079   5.851
33029SOL     OW  925   8.977  14.843   5.528
33029SOL    HW1  926   8.965   0.054   5.574
33029SOL    HW2  927   9.072  14.834   5.521
33030SOL     OW  928  10.624  13.792   7.945
33030SOL    HW1  929  10.629  13.834   7.859
33030SOL    HW2  930  10.581  13.708   7.928
33031SOL     OW  931  12.777   4.214   3.465
33031SOL    HW1  932  12.834   4.250   3.533
33031SOL    HW2  933  12.835   4.200   3.390
33032SOL     OW  934   5.201   1.836   7.117
33032SOL    HW1  935   5.114   1.833   7.158
33032SOL    HW2  936   5.262   1.821   7.189
33033SOL     OW  937   3.399  10.434  11.763
33033SOL    HW1  938   3.315  10.417  11.720
33033SOL    HW2  939   3.407  10.365  11.829
33034SOL     OW  940  10.828   2.091  13.082
33034SOL    HW1  941  10.917   2.073  13.111
33034SOL    HW2  942  10.838   2.151  13.008
33035SOL     OW  943   1.805   6.401   0.703
33035SOL    HW1  944   1.887   6.411   0.752
33035SOL    HW2  945   1.748   6.352   0.762
33036SOL     OW  946  10.262  13.377  13.272
33036SOL    HW1  947  10.308  13.341  13.348
33036SOL    HW2  948  10.239  13.301  13.219
33037SOL     OW  949   4.116   9.887   7.307
33037SOL    HW1  950   4.192   9.917   7.258
33037SOL    HW2  951   4.098   9.799   7.271
33038SOL     OW  952  12.412   9.475   3.529
33038SOL    HW1  953  12.414   9.392   3.577
33038SOL    HW2  954  12.364   9.455   3.449
33039SOL     OW  955   6.876   4.442  10.050
33039SOL    HW1  956   6.845   4.391  10.125
33039SOL    HW2  957   6.888   4.530  10.085
33040SOL     OW  958  12.212   3.210  12.755
33040SOL    HW1  959  12.227   3.172  12.669
33040SOL    HW2  960  12.281   3.173  12.810
33041SOL     OW  961  13.253   9.983  12.803
33041SOL    HW1  962  13.296  10.054  12.755
33041SOL    HW2  963  13.161  10.010  12.809
33042SOL     OW  964   4.568  12.475   9.036
33042SOL    HW1  965   4.508  12.538   8.996
33042SOL    HW2  966   4.655  12.511   9.019
33043SOL     OW  967   0.727  14.203  14.567
33043SOL    HW1  968   0.642  14.188  14.527
33043SOL    HW2  969   0.737  14.298  14.568
33044SOL     OW  970   5.853   0.365  13.457
33044SOL    HW1  971   5.933   0.334  13.501
33044SOL    HW2  972   5.840   0.454  13.490
33045SOL     OW  973   0.921  11.580  11.657
33045SOL    HW1  974   0.894  11.553  11.569
33045SOL    HW2  975   0.991  11.644  11.642
33046SOL     OW  976   0.846  14.355   2.533
33046SOL    HW1  977   0.822  14.275   2.580
33046SOL    HW2  978   0.787  14.358   2.458
33047SOL     OW  979  11.596   0.763   4.866
33047SOL    HW1  980  11.626   0.676   4.891
33047SOL    HW2  981  11.663   0.822   4.900
33048SOL     OW  982  12.655  10.714  14.855
33048SOL    HW1  983  12.686  10.804  14.850
33048SOL    HW2  984  12.561  10.720  14.841
33049SOL     OW  985  11.672   0.146  11.810
33049SOL    HW1  986  11.578   0.153  11.829
33049SOL    HW2  987  11.684   0.196  11.729
33050SOL     OW  988   5.212   8.927   5.746
33050SOL    HW1  989   5.118   8.932   5.768
33050SOL    HW2  990   5.242   9.017   5.752
33051SOL     OW  991   0.950  12.314   3.972
33051SOL    HW1  992   0.999  12.374   4.028
33051SOL    HW2  993   0.895  12.371   3.918
33052SOL     OW  994   4.486   8.026   4.178
33052SOL    HW1  995   4.481   8.103   4.121
33052SOL    HW2  996   4.449   8.055   4.261
33053SOL     OW  997  10.001   6.963   1.674
33053SOL    HW1  998  10.029   6.894   1.735
33053SOL    HW2  999  10.049   7.041   1.702
33054SOL     OW 1000   4.453   2.790   7.692
33054SOL    HW1 1001   4.455   2.762   7.600
33054SOL    HW2 1002   4.545   2.809   7.713
33055SOL     OW 1003   8.773   1.976   8.803
33055SOL    HW1 1004   8.746   1.991   8.894
33055SOL    HW2 1005   8.690   1.975   8.754
33056SOL     OW 1006  13.641   5.379  14.727
33056SOL    HW1 1007  13.721   5.404  14.681
33056SOL    HW2 1008  13.590   5.330  14.662
33057SOL     OW 1009  13.025   2.262   9.306
33057SOL    HW1 1010  13.009   2.314   9.228
33057SOL    HW2 1011  12.946   2.271   9.358
33058SOL     OW 1012   4.605  13.596   3.240
33058SOL    HW1 1013   4.697  13.618   3.229
33058SOL    HW2 1014   4.576  13.569   3.153
33059SOL     OW 1015   1.549   8.485   0.007
33059SOL    HW1 1016   1.546   8.401   0.052
33059SOL    HW2 1017   1.630   8.482  14.829
33060SOL     OW 1018   5.970   5.605  11.833
33060SOL    HW1 1019   5.879   5.632  11.823
33060SOL    HW2 1020   6.020   5.686  11.829
33061SOL     OW 1021  12.043   0.207  13.780
33061SOL    HW1 1022  12.079   0.254  13.704
33061SOL    HW2 1023  12.098   0.234  13.853
33062SOL     OW 1024   7.513   7.428   5.512
33062SOL    HW1 1025   7.541   7.396   5.597
33062SOL    HW2 1026   7.577   7.392   5.450
33063SOL     OW 1027   5.065   2.814  14.460
33063SOL    HW1 1028   5.135   2.756  14.490
33063SOL    HW2 1029   5.084   2.828  14.367
33064SOL     OW 1030  13.268   9.622  13.270
33064SOL    HW1 1031  13.251   9.680  13.196
33064SOL    HW2 1032  13.214   9.545  13.253
33065SOL     OW 1033   1.321  12.442   2.857
33065SOL    HW1 1034   1.405  12.398   2.845
33065SOL    HW2 1035   1.308  12.492   2.776
33066SOL     OW 1036   0.519  13.818  13.667
33066SOL    HW1 1037   0.591  13.851  13.721
33066SOL    HW2 1038   0.562  13.786  13.588
33067SOL     OW 1039  14.501   0.114   3.957
33067SOL    HW1 1040  14.527   0.022   3.963
33067SOL    HW2 1041  14.461   0.134   4.041
33068SOL     OW 1042  10.953   0.839   9.773
33068SOL    HW1 1043  10.938   0.750   9.803
33068SOL    HW2 1044  10.866   0.873   9.752
33069SOL     OW 1045   9.860  10.631   4.280
33069SOL    HW1 1046   9.789  10.603   4.222
33069SOL    HW2 1047   9.817  10.648   4.364
33070SOL     OW 1048   0.744   1.457   9.440
33070SOL    HW1 1049   0.737   1.540   9.392
33070SOL    HW2 1050   0.722   1.390   9.376
33071SOL     OW 1051   8.949   1.519  10.857
33071SOL    HW1 1052   9.021   1.577  10.832
33071SOL    HW2 1053   8.881   1.578  10.889
33072SOL     OW 1054   1.649   8.809   7.126
33072SOL    HW1 1055   1.703   8.789   7.050
33072SOL    HW2 1056   1.626   8.723   7.162
33073SOL     OW 1057  10.521  13.882  12.150
33073SOL    HW1 1058  10.576  13.884  12.229
33073SOL    HW2 1059  10.527  13.971  12.116
33074SOL     OW 1060   2.273  12.128   6.543
33074SOL    HW1 1061   2.319  12.197   6.495
33074SOL    HW2 1062   2.198  12.173   6.583
33075SOL     OW 1063   8.757   4.391   8.215
33075SOL    HW1 1064   8.810   4.335   8.271
33075SOL    HW2 1065   8.780   4.480   8.242
33076SOL     OW 1066   9.659  14.254  13.447
33076SOL    HW1 1067   9.731  14.198  13.478
33076SOL    HW2 1068   9.699  14.311  13.382
33077SOL     OW 1069  13.722   7.678  13.240
33077SOL    HW1 1070  13.694   7.766  13.266
33077SOL    HW2 1071  13.815   7.687  13.219
33078SOL     OW 1072  10.483   9.785  12.934
33078SOL    HW1 1073  10.430   9.735  12.872
33078SOL    HW2 1074  10.446   9.874  12.930
33079SOL     OW 1075  10.508   1.748   3.986
33079SOL    HW1 1076  10.441   1.802   3.944
33079SOL    HW2 1077  10.529   1.681   3.921
33080SOL     OW 1078   0.367   8.148   0.213
33080SOL    HW1 1079   0.407   8.226   0.251
33080SOL    HW2 1080   0.385   8.154   0.119
33081SOL     OW 1081   6.300   8.324   1.070
33081SOL    HW1 1082   6.223   8.331   1.127
33081SOL    HW2 1083   6.293   8.237   1.031
33082SOL     OW 1084   3.469  11.126   3.488
33082SOL    HW1 1085   3.547  11.072   3.497
33082SOL    HW2 1086   3.409  11.092   3.555
33083SOL     OW 1087  14.613  11.584   2.349
33083SOL    HW1 1088  14.677  11.629   2.295
33083SOL    HW2 1089  14.602  11.641   2.426
33084SOL     OW 1090   4.467   4.924   7.012
33084SOL    HW1 1091   4.525   4.851   7.034
33084SOL    HW2 1092   4.515   5.002   7.040
33085SOL     OW 1093  12.942   6.307   8.972
33085SOL    HW1 1094  13.028   6.313   9.012
33085SOL    HW2 1095  12.954   6.248   8.898
33086SOL     OW 1096   9.648   2.560   8.799
33086SOL    HW1 1097   9.643   2.521   8.886
33086SOL    HW2 1098   9.663   2.487   8.740
33087SOL     OW 1099  14.198  10.071   0.115
33087SOL    HW1 1100  14.146  10.148   0.138
33087SOL    HW2 1101  14.181  10.057   0.022
33088SOL     OW 1102   7.741   3.306   9.717
33088SOL    HW1 1103   7.776   3.324   9.630
33088SOL    HW2 1104   7.733   3.211   9.720
33089SOL     OW 1105   4.787   7.469  14.808
33089SOL    HW1 1106   4.816   7.408  14.740
33089SOL    HW2 1107   4.794   7.555  14.768
33090SOL     OW 1108   4.161  14.086   8.079
33090SOL    HW1 1109   4.146  14.162   8.136
33090SOL    HW2 1110   4.254  14.067   8.089
33091SOL     OW 1111   5.473   5.868   5.104
33091SOL    HW1 1112   5.515   5.787   5.074
33091SOL    HW2 1113   5.486   5.930   5.032
33092SOL     OW 1114   7.898   3.658   0.814
33092SOL    HW1 1115   7.853   3.737   0.845
33092SOL    HW2 1116   7.987   3.687   0.795
33093SOL     OW 1117   5.827   0.663   8.438
33093SOL    HW1 1118   5.841   0.683   8.345
33093SOL    HW2 1119   5.905   0.615   8.464
33094SOL     OW 1120  13.869   7.892  13.918
33094SOL    HW1 1121  13.777   7.919  13.923
33094SOL    HW2 1122  13.885   7.848  14.002
33095SOL     OW 1123   3.106   8.618  11.355
33095SOL    HW1 1124   3.033   8.564  11.384
33095SOL    HW2 1125   3.132   8.580  11.271
33096SOL     OW 1126   8.711  11.151  11.466
33096SOL    HW1 1127   8.639  11.122  11.409
33096SOL    HW2 1128   8.696  11.104  11.548
33097SOL     OW 1129   3.033   9.080   9.277
33097SOL    HW1 1130   3.072   9.127   9.351
33097SOL    HW2 1131   3.103   9.025   9.244
33098SOL     OW 1132  13.378  12.957   3.999
33098SOL    HW1 1133  13.353  12.909   3.921
33098SOL    HW2 1134  13.473  12.968   3.992
33099SOL     OW 1135   3.797   1.951   3.391
33099SOL    HW1 1136   3.724   1.985   3.340
33099SOL    HW2 1137   3.862   1.924   3.326
33100SOL     OW 1138   6.523   8.468  13.407
33100SOL    HW1 1139   6.584   8.528  13.365
33100SOL    HW2 1140   6.530   8.387  13.356
33101SOL     OW 1141  11.457   0.591   0.195
33101SOL    HW1 1142  11.423   0.679   0.209
33101SOL    HW2 1143  11.552   0.602   0.186
33102SOL     OW 1144   4.169  13.868   8.350
33102SOL    HW1 1145   4.220  13.788   8.336
33102SOL    HW2 1146   4.130  13.887   8.265
33103SOL     OW 1147   1.120   5.405   3.295
33103SOL    HW1 1148   1.141   5.498   3.300
33103SOL    HW2 1149   1.195   5.366   3.250
33104SOL     OW 1150   4.952   0.339  14.077
33104SOL    HW1 1151   4.902   0.326  14.157
33104SOL    HW2 1152   4.982   0.251  14.053
33105SOL     OW 1153   5.988   5.950   3.936
33105SOL    HW1 1154   6.039   5.967   4.015
33105SOL    HW2 1155   5.902   5.925   3.968
33106SOL     OW 1156   0.134  10.472   4.366
33106SOL    HW1 1157   0.150  10.394   4.312
33106SOL    HW2 1158   0.051  10.455   4.410
33107SOL     OW 1159  12.979  11.556   2.077
33107SOL    HW1 1160  12.921  11.501   2.130
33107SOL    HW2 1161  12.922  11.624   2.042
33108SOL     OW 1162   8.994  12.353  12.192
33108SOL    HW1 1163   9.026  12.363  12.102
33108SOL    HW2 1164   9.063  12.305  12.237
33109SOL     OW 1165   3.812   5.654  13.396
33109SOL    HW1 1166   3.890   5.626  13.443
33109SOL    HW2 1167   3.742   5.597  13.429
33110SOL     OW 1168   3.485   6.730  13.817
33110SOL    HW1 1169   3.442   6.812  13.842
33110SOL    HW2 1170   3.421   6.662  13.837
33111SOL     OW 1171   5.235   6.763  10.597
33111SOL    HW1 1172   5.242   6.775  10.692
33111SOL    HW2 1173   5.210   6.672  10.586
33112SOL     OW 1174  13.018  14.638   6.237
33112SOL    HW1 1175  13.087  14.684   6.286
33112SOL    HW2 1176  12.945  14.699   6.236
33113SOL     OW 1177   7.562   3.821   5.630
33113SOL    HW1 1178   7.630   3.845   5.693
33113SOL    HW2 1179   7.497   3.774   5.682
33114SOL     OW 1180  11.942   6.010   8.753
33114SOL    HW1 1181  11.984   6.096   8.749
33114SOL    HW2 1182  11.905   5.999   8.665
33115SOL     OW 1183  12.349   9.999  13.456
33115SOL    HW1 1184  12.327   9.987  13.364
33115SOL    HW2 1185  12.427  10.053  13.455
33116SOL     OW 1186   7.940  12.351   9.393
33116SOL    HW1 1187   7.856  12.316   9.365
33116SOL    HW2 1188   7.945  12.437   9.351
33117SOL     OW 1189   4.582   1.342   6.991
33117SOL    HW1 1190   4.543   1.255   6.979
33117SOL    HW2 1191   4.525   1.400   6.941
33118SOL     OW 1192  14.318   0.193   2.917
33118SOL    HW1 1193  14.297   0.127   2.983
33118SOL    HW2 1194  14.348   0.143   2.841
33119SOL     OW 1195  11.226   9.822  11.367
33119SOL    HW1 1196  11.272   9.858  11.291
33119SOL    HW2 1197  11.264   9.868  11.442
33120SOL     OW 1198   3.874  10.634   4.834
33120SOL    HW1 1199   3.873  10.632   4.929
33120SOL    HW2 1200   3.835  10.551   4.807
33121SOL     OW 1201  12.811   5.535   7.485
33121SOL    HW1 1202  12.816   5.561   7.576
33121SOL    HW2 1203  12.734   5.479   7.480
33122SOL     OW 1204   5.784   3.690  11.376
33122SOL    HW1 1205   5.875   3.707  11.399
33122SOL    HW2 1206   5.764   3.754  11.309
33123SOL     OW 1207  14.682  13.556   3.324
33123SOL    HW1 1208  14.613  13.551   3.257
33123SOL    HW2 1209  14.652  13.625   3.384
33124SOL     OW 1210  13.735   1.473  14.018
33124SOL    HW1 1211  13.760   1.448  13.929
33124SOL    HW2 1212  13.808   1.526  14.050
33125SOL     OW 1213   5.969   2.731  10.904
33125SOL    HW1 1214   6.024   2.662  10.868
33125SOL    HW2 1215   5.972   2.801  10.838
33126SOL     OW 1216  14.032   1.515   6.214
33126SOL    HW1 1217  14.009   1.478   6.130
33126SOL    HW2 1218  14.074   1.444   6.262
33127SOL     OW 1219   5.718   8.944   1.015
33127SOL    HW1 1220   5.715   8.934   0.920
33127SOL    HW2 1221   5.655   8.879   1.048
33128SOL     OW 1222   2.215   0.656  12.719
33128SOL    HW1 1223   2.288   0.668  12.659
33128SOL    HW2 1224   2.190   0.744  12.745
33129SOL     OW 1225   7.893   3.728   6.723
33129SOL    HW1 1226   7.976   3.762   6.690
33129SOL    HW2 1227   7.900   3.634   6.713
33130SOL     OW 1228   4.981   6.780  11.113
33130SOL    HW1 1229   4.926   6.765  11.190
33130SOL    HW2 1230   5.050   6.839  11.144
33131SOL     OW 1231   2.335   7.569   7.680
33131SOL    HW1 1232   2.315   7.601   7.768
33131SOL    HW2 1233   2.299   7.636   7.622
33132SOL     OW 1234  12.164   3.466  11.964
33132SOL    HW1 1235  12.219   3.491  11.889
33132SOL    HW2 1236  12.132   3.379  11.942
33133SOL     OW 1237   8.665   2.108  10.324
33133SOL    HW1 1238   8.665   2.074  10.235
33133SOL    HW2 1239   8.753   2.143  10.337
33134SOL     OW 1240   8.418  13.845   6.343
33134SOL    HW1 1241   8.416  13.835   6.248
33134SOL    HW2 1242   8.355  13.780   6.375
33135SOL     OW 1243   1.829  13.531  13.407
33135SOL    HW1 1244   1.736  13.518  13.386
33135SOL    HW2 1245   1.830  13.610  13.461
33136SOL     OW 1246   3.755   9.896   7.163
33136SOL    HW1 1247   3.813   9.820   7.166
33136SOL    HW2 1248   3.808   9.969   7.195
33137SOL     OW 1249   9.009   5.763  13.435
33137SOL    HW1 1250   9.072   5.752  13.364
33137SOL    HW2 1251   9.033   5.696  13.499
33138SOL     OW 1252   2.234   6.385   4.577
33138SOL    HW1 1253   2.149   6.429   4.569
33138SOL    HW2 1254   2.264   6.407   4.665
33139SOL     OW 1255   9.565   4.862   6.373
33139SOL    HW1 1256   9.605   4.850   6.286
33139SOL    HW2 1257   9.635   4.899   6.426
33140SOL     OW 1258   3.910   4.065   6.503
33140SOL    HW1 1259   3.953   4.136   6.552
33140SOL    HW2 1260   3.850   4.109   6.443
33141SOL     OW 1261  10.880   0.092  13.490
33141SOL    HW1 1262  10.894   0.143  13.411
33141SOL    HW2 1263  10.785   0.083  13.496
33142SOL     OW 1264   1.531   3.441   0.735
33142SOL    HW1 1265   1.459   3.421   0.794
33142SOL    HW2 1266   1.565   3.355   0.709
33143SOL     OW 1267   8.414  10.700  13.633
33143SOL    HW1 1268   8.430  10.612  13.666
33143SOL    HW2 1269   8.414  10.755  13.712
33144SOL     OW 1270   9.191   4.029   6.640
33144SOL    HW1 1271   9.272   4.028   6.588
33144SOL    HW2 1272   9.132   4.087   6.592
33145SOL     OW 1273  13.928   2.520  12.712
33145SOL    HW1 1274  13.956   2.611  12.715
33145SOL    HW2 1275  14.009   2.469  12.721
33146SOL     OW 1276  14.043  12.550   5.063
33146SOL    HW1 1277  14.080  12.491   4.997
33146SOL    HW2 1278  14.029  12.494   5.139
33147SOL     OW 1279  14.390   5.181   3.860
33147SOL    HW1 1280  14.376   5.163   3.767
33147SOL    HW2 1281  14.475   5.141   3.879
33148SOL     OW 1282   0.486  14.665   7.164
33148SOL    HW1 1283   0.572  14.644   7.200
33148SOL    HW2 1284   0.497  14.750   7.123
33149SOL     OW 1285  10.097   0.058   9.911
33149SOL    HW1 1286  10.153   0.098   9.844
33149SOL    HW2 1287  10.060   0.132   9.958
33150SOL     OW 1288   6.660   7.510   7.983
33150SOL    HW1 1289   6.753   7.530   7.989
33150SOL    HW2 1290   6.654   7.418   8.009
33151SOL     OW 1291   3.185   9.084   7.863
33151SOL    HW1 1292   3.222   9.172   7.853
33151SOL    HW2 1293   3.204   9.060   7.954
33152SOL     OW 1294   2.032   3.734   1.081
33152SOL    HW1 1295   2.015   3.797   1.011
33152SOL    HW2 1296   1.979   3.658   1.057
33153SOL     OW 1297   8.519   1.487  10.905
33153SOL    HW1 1298   8.584   1.436  10.858
33153SOL    HW2 1299   8.549   1.487  10.996
33154SOL     OW 1300   9.763   4.366  13.727
33154SOL    HW1 1301   9.730   4.277  13.732
33154SOL    HW2 1302   9.824   4.364  13.653
33155SOL     OW 1303   6.474   4.496   4.180
33155SOL    HW1 1304   6.492   4.516   4.272
33155SOL    HW2 1305   6.557   4.461   4.147
33156SOL     OW 1306   2.579   9.655   4.157
33156SOL    HW1 1307   2.520   9.671   4.083
33156SOL    HW2 1308   2.657   9.707   4.137
33157SOL     OW 1309   3.000   2.487   4.159
33157SOL    HW1 1310   2.910   2.488   4.127
33157SOL    HW2 1311   3.042   2.562   4.117
33158SOL     OW 1312   4.186   8.755  10.170
33158SOL    HW1 1313   4.174   8.849  10.162
33158SOL    HW2 1314   4.147   8.732  10.254
33159SOL     OW 1315  10.823   2.728   5.235
33159SOL    HW1 1316  10.890   2.690   5.177
33159SOL    HW2 1317  10.873   2.780   5.298
33160SOL     OW 1318   6.722   8.809   4.084
33160SOL    HW1 1319   6.669   8.873   4.131
33160SOL    HW2 1320   6.809   8.817   4.122
33161SOL     OW 1321   3.514   0.343  11.195
33161SOL    HW1 1322   3.566   0.280  11.245
33161SOL    HW2 1323   3.441   0.365  11.253
33162SOL     OW 1324   4.630   8.103   6.702
33162SOL    HW1 1325   4.705   8.065   6.656
33162SOL    HW2 1326   4.669   8.153   6.774
33163SOL     OW 1327   6.492  10.591   8.432
33163SOL    HW1 1328   6.558  10.651   8.467
33163SOL    HW2 1329   6.509  10.508   8.477
33164SOL     OW 1330  13.410  10.855  12.686
33164SOL    HW1 1331  13.373  10.844  12.773
33164SOL    HW2 1332  13.489  10.800  12.687
33165SOL     OW 1333   0.464  12.250   4.768
33165SOL    HW1 1334   0.488  12.174   4.822
33165SOL    HW2 1335   0.462  12.323   4.830
33166SOL     OW 1336   1.478   1.576   8.437
33166SOL    HW1 1337   1.541   1.507   8.418
33166SOL    HW2 1338   1.523   1.657   8.413
33167SOL     OW 1339   4.879  14.019   5.786
33167SOL    HW1 1340   4.889  14.005   5.692
33167SOL    HW2 1341   4.960  13.983   5.824
33168SOL     OW 1342  13.518   9.758   7.238
33168SOL    HW1 1343  13.558   9.818   7.301
33168SOL    HW2 1344  13.590   9.701   7.211
33169SOL     OW 1345  14.037   1.925   5.004
33169SOL    HW1 1346  13.970   1.857   5.008
33169SOL    HW2 1347  13.993   2.004   5.038
33170SOL     OW 1348   3.637  10.249   7.267
33170SOL    HW1 1349   3.596  10.203   7.194
33170SOL    HW2 1350   3.652  10.338   7.233
33171SOL     OW 1351  11.499   2.821   1.073
33171SOL    HW1 1352  11.430   2.851   1.014
33171SOL    HW2 1353  11.562   2.893   1.073
33172SOL     OW 1354   2.684   7.505   9.966
33172SOL    HW1 1355   2.748   7.464  10.024
33172SOL    HW2 1356   2.684   7.451   9.888
33173SOL     OW 1357  13.593   1.066   6.797
33173SOL    HW1 1358  13.514   1.103   6.836
33173SOL    HW2 1359  13.564   1.024   6.717
33174SOL     OW 1360   4.112  10.264  11.860
33174SOL    HW1 1361   4.053  10.310  11.919
33174SOL    HW2 1362   4.181  10.230  11.917
33175SOL     OW 1363   5.710  10.903  11.334
33175SOL    HW1 1364   5.805  10.905  11.342
33175SOL    HW2 1365   5.688  10.984  11.288
33176SOL     OW 1366   0.754   7.002   0.465
33176SOL    HW1 1367   0.786   6.981   0.553
33176SOL    HW2 1368   0.699   7.079   0.478
33177SOL     OW 1369  13.806   7.497   5.501
33177SOL    HW1 1370  13.868   7.563   5.468
33177SOL    HW2 1371  13.759   7.467   5.423
33178SOL     OW 1372  13.651   0.168  13.393
33178SOL    HW1 1373  13.738   0.201  13.414
33178SOL    HW2 1374  13.593   0.209  13.457
33179SOL     OW 1375   1.035  10.679  13.646
33179SOL    HW1 1376   0.983  10.607  13.682
33179SOL    HW2 1377   0.972  10.751  13.637
33180SOL     OW 1378   5.538   4.286   4.786
33180SOL    HW1 1379   5.501   4.292   4.698
33180SOL    HW2 1380   5.463   4.271   4.844
33181SOL     OW 1381   9.198   4.876   1.395
33181SOL    HW1 1382   9.260   4.925   1.342
33181SOL    HW2 1383   9.246   4.798   1.423
33182SOL     OW 1384  10.863   4.779   4.820
33182SOL    HW1 1385  10.955   4.808   4.824
33182SOL    HW2 1386  10.846   4.765   4.727
33183SOL     OW 1387  11.763   0.049   5.011
33183SOL    HW1 1388  11.726  14.841   5.047
33183SOL    HW2 1389  11.688   0.098   4.979
33184SOL     OW 1390   5.004   8.434   4.599
33184SOL    HW1 1391   5.003   8.526   4.626
33184SOL    HW2 1392   5.097   8.411   4.596
33185SOL     OW 1393  10.893   0.822   4.844
33185SOL    HW1 1394  10.955   0.849   4.777
33185SOL    HW2 1395  10.809   0.857   4.815
33186SOL     OW 1396   6.404  12.400   4.013
33186SOL    HW1 1397   6.348  12.422   4.087
33186SOL    HW2 1398   6.427  12.484   3.973
33187SOL     OW 1399   7.387   9.729   1.862
33187SOL    HW1 1400   7.391   9.821   1.888
33187SOL    HW2 1401   7.465   9.690   1.901
33188SOL     OW 1402   1.459   1.504   1.594
33188SOL    HW1 1403   1.413   1.488   1.512
33188SOL    HW2 1404   1.466   1.599   1.601
33189SOL     OW 1405  13.131   3.057  11.224
33189SOL    HW1 1406  13.081   3.134  11.199
33189SOL    HW2 1407  13.223   3.082  11.211
33190SOL     OW 1408   8.082   3.513  10.933
33190SOL    HW1 1409   8.035   3.459  10.997
33190SOL    HW2 1410   8.038   3.598  10.935
33191SOL     OW 1411   0.906   5.455  13.249
33191SOL    HW1 1412   0.906   5.431  13.342
33191SOL    HW2 1413   0.906   5.371  13.203
33192SOL     OW 1414   8.514   3.188   0.778
33192SOL    HW1 1415   8.467   3.142   0.847
33192SOL    HW2 1416   8.464   3.170   0.698
33193SOL     OW 1417   5.231   1.970   4.756
33193SOL    HW1 1418   5.257   2.027   4.684
33193SOL    HW2 1419   5.138   1.989   4.769
33194SOL     OW 1420   9.038   0.286   9.996
33194SOL    HW1 1421   9.018   0.192   9.994
33194SOL    HW2 1422   8.965   0.326   9.948
33195SOL     OW 1423   9.279   9.804   5.839
33195SOL    HW1 1424   9.364   9.763   5.854
33195SOL    HW2 1425   9.215   9.736   5.859
33196SOL     OW 1426  13.228   1.461   3.076
33196SOL    HW1 1427  13.229   1.514   2.996
33196SOL    HW2 1428  13.198   1.375   3.047
33197SOL     OW 1429  12.145  12.423   6.578
33197SOL    HW1 1430  12.194  12.448   6.499
33197SOL    HW2 1431  12.206  12.367   6.627
33198SOL     OW 1432   7.667  13.286   6.261
33198SOL    HW1 1433   7.623  13.202   6.272
33198SOL    HW2 1434   7.686  13.315   6.351
33199SOL     OW 1435   9.145   0.893  14.795
33199SOL    HW1 1436   9.052   0.883  14.778
33199SOL    HW2 1437   9.173   0.808  14.829
33200SOL     OW 1438   4.153   2.608   7.115
33200SOL    HW1 1439   4.069   2.561   7.119
33200SOL    HW2 1440   4.130   2.700   7.129
33201SOL     OW 1441   6.064   0.280  14.844
33201SOL    HW1 1442   6.088   0.209  14.785
33201SOL    HW2 1443   6.037   0.351  14.785
33202SOL     OW 1444   3.442   1.628   0.444
33202SOL    HW1 1445   3.520   1.594   0.399
33202SOL    HW2 1446   3.477   1.669   0.523
33203SOL     OW 1447   6.191  12.394   3.803
33203SOL    HW1 1448   6.154  12.312   3.836
33203SOL    HW2 1449   6.114  12.446   3.777
33204SOL     OW 1450  14.380   0.212  14.535
33204SOL    HW1 1451  14.379   0.137  14.476
33204SOL    HW2 1452  14.403   0.175  14.620
33205SOL     OW 1453   9.884   7.762   2.767
33205SOL    HW1 1454   9.845   7.846   2.793
33205SOL    HW2 1455   9.841   7.698   2.824
33206SOL     OW 1456   6.132   9.651  13.614
33206SOL    HW1 1457   6.073   9.727  13.616
33206SOL    HW2 1458   6.215   9.685  13.647
33207SOL     OW 1459   0.907   8.431  10.941
33207SOL    HW1 1460   0.928   8.520  10.912
33207SOL    HW2 1461   0.858   8.444  11.022
33208SOL     OW 1462  12.600   3.417  12.869
33208SOL    HW1 1463  12.609   3.339  12.815
33208SOL    HW2 1464  12.598   3.490  12.807
33209SOL     OW 1465  14.536  12.783   2.675
33209SOL    HW1 1466  14.487  12.838   2.736
33209SOL    HW2 1467  14.481  12.705   2.663
33210SOL     OW 1468  12.997   3.730   0.632
33210SOL    HW1 1469  12.949   3.647   0.641
33210SOL    HW2 1470  12.977   3.778   0.712
33211SOL     OW 1471  11.818  11.085  10.454
33211SOL    HW1 1472  11.806  11.021  10.525
33211SOL    HW2 1473  11.731  11.123  10.442
33212SOL     OW 1474  12.882   2.569  11.251
33212SOL    HW1 1475  12.917   2.635  11.192
33212SOL    HW2 1476  12.926   2.488  11.225
33213SOL     OW 1477   3.440   3.327  12.402
33213SOL    HW1 1478   3.485   3.360  12.480
33213SOL    HW2 1479   3.362   3.284  12.437
33214SOL     OW 1480  14.603   2.447   3.360
33214SOL    HW1 1481  14.676   2.460   3.299
33214SOL    HW2 1482  14.599   2.352   3.373
33215SOL     OW 1483  11.776   4.916   6.282
33215SOL    HW1 1484  11.713   4.890   6.349
33215SOL    HW2 1485  11.732   4.986   6.234
33216SOL     OW 1486   6.194   2.369   7.204
33216SOL    HW1 1487   6.165   2.455   7.235
33216SOL    HW2 1488   6.113   2.322   7.184
33217SOL     OW 1489  10.334   8.283   9.966
33217SOL    HW1 1490  10.292   8.198   9.953
33217SOL    HW2 1491  10.374   8.278  10.052
33218SOL     OW 1492  11.331  14.125  13.574
33218SOL    HW1 1493  11.263  14.189  13.551
33218SOL    HW2 1494  11.360  14.153  13.661
33219SOL     OW 1495   4.463   0.986   4.079
33219SOL    HW1 1496   4.468   1.077   4.052
33219SOL    HW2 1497   4.535   0.975   4.141
33220SOL     OW 1498   0.547  11.737   4.187
33220SOL    HW1 1499   0.642  11.732   4.204
33220SOL    HW2 1500   0.539  11.802   4.118
33221SOL     OW 1501  13.422   5.629   9.175
33221SOL    HW1 1502  13.435   5.706   9.120
33221SOL    HW2 1503  13.418   5.556   9.113
33222SOL     OW 1504   8.802   9.810  12.483
33222SOL    HW1 1505   8.771   9.811  12.573
33222SOL    HW2 1506   8.873   9.746  12.482
33223SOL     OW 1507   9.991  14.099   7.232
33223SOL    HW1 1508   9.947  14.021   7.266
33223SOL    HW2 1509   9.925  14.168   7.238
33224SOL     OW 1510  13.186   6.323   6.582
33224SOL    HW1 1511  13.152   6.373   6.508
33224SOL    HW2 1512  13.122   6.336   6.652
33225SOL     OW 1513   6.808   1.351   5.881
33225SOL    HW1 1514   6.895   1.390   5.871
33225SOL    HW2 1515   6.755   1.421   5.917
33226SOL     OW 1516   3.716   8.340   9.803
33226SOL    HW1 1517   3.709   8.432   9.827
33226SOL    HW2 1518   3.774   8.303   9.870
33227SOL     OW 1519   8.397   2.048   2.385
33227SOL    HW1 1520   8.353   2.021   2.466
33227SOL    HW2 1521   8.382   2.143   2.380
33228SOL     OW 1522   4.062   2.695   3.445
33228SOL    HW1 1523   4.022   2.632   3.505
33228SOL    HW2 1524   4.048   2.657   3.358
33229SOL     OW 1525  13.871  10.549   1.410
33229SOL    HW1 1526  13.788  10.595   1.415
33229SOL    HW2 1527  13.850  10.465   1.369
33230SOL     OW 1528  13.852  12.334  13.993
33230SOL    HW1 1529  13.791  12.407  14.004
33230SOL    HW2 1530  13.832  12.276  14.067
33231SOL     OW 1531  10.708   6.320   5.695
33231SOL    HW1 1532  10.799   6.349   5.694
33231SOL    HW2 1533  10.710   6.232   5.657
33232SOL     OW 1534  13.087  14.679   7.596
33232SOL    HW1 1535  13.109  14.765   7.634
33232SOL    HW2 1536  13.158  14.662   7.534
33233SOL     OW 1537   6.706   6.961   1.785
33233SOL    HW1 1538   6.670   6.901   1.851
33233SOL    HW2 1539   6.782   7.000   1.828
33234SOL     OW 1540  11.487   5.695   9.060
33234SOL    HW1 1541  11.582   5.686   9.048
33234SOL    HW2 1542  11.475   5.696   9.155
33235SOL     OW 1543   3.413  13.298   3.768
33235SOL    HW1 1544   3.406  13.392   3.788
33235SOL    HW2 1545   3.419  13.256   3.854
33236SOL     OW 1546   6.453   7.146  10.268
33236SOL    HW1 1547   6.376   7.113  10.314
33236SOL    HW2 1548   6.462   7.237  10.297
33237SOL     OW 1549   1.084   6.849   9.269
33237SOL    HW1 1550   1.103   6.808   9.184
33237SOL    HW2 1551   1.077   6.776   9.330
33238SOL     OW 1552   6.230   7.636  10.070
33238SOL    HW1 1553   6.224   7.670  10.159
33238SOL    HW2 1554   6.234   7.541  10.082
33239SOL     OW 1555   5.565   4.856   3.578
33239SOL    HW1 1556   5.561   4.935   3.632
33239SOL    HW2 1557   5.489   4.804   3.605
33240SOL     OW 1558   4.404  10.457  11.231
33240SOL    HW1 1559   4.493  10.421  11.222
33240SOL    HW2 1560   4.366  10.408  11.304
33241SOL     OW 1561  10.176   2.897   6.725
33241SOL    HW1 1562  10.099   2.857   6.685
33241SOL    HW2 1563  10.200   2.968   6.665
33242SOL     OW 1564   4.917   5.726  13.196
33242SOL    HW1 1565   4.967   5.706  13.117
33242SOL    HW2 1566   4.961   5.803  13.233
33243SOL     OW 1567  14.068  13.234   7.975
33243SOL    HW1 1568  14.055  13.142   8.000
33243SOL    HW2 1569  13.994  13.280   8.013
33244SOL     OW 1570  13.915   1.270  13.090
33244SOL    HW1 1571  13.950   1.326  13.021
33244SOL    HW2 1572  13.987   1.258  13.151
33245SOL     OW 1573   2.256  13.825   7.663
33245SOL    HW1 1574   2.200  13.748   7.667
33245SOL    HW2 1575   2.263  13.845   7.570
33246SOL     OW 1576  12.306  12.257   5.391
33246SOL    HW1 1577  12.221  12.299   5.383
33246SOL    HW2 1578  12.316  12.206   5.310
33247SOL     OW 1579   9.346   4.114   9.386
33247SOL    HW1 1580   9.356   4.027   9.423
33247SOL    HW2 1581   9.436   4.144   9.370
33248SOL     OW 1582   7.546   7.951   7.815
33248SOL    HW1 1583   7.591   8.001   7.748
33248SOL    HW2 1584   7.547   8.008   7.892
33249SOL     OW 1585   2.434   1.256   3.660
33249SOL    HW1 1586   2.483   1.306   3.725
33249SOL    HW2 1587   2.499   1.236   3.592
33250SOL     OW 1588  14.330   1.427   0.554
33250SOL    HW1 1589  14.391   1.353   0.548
33250SOL    HW2 1590  14.347   1.465   0.640
33251SOL     OW 1591  13.750   1.168   3.198
33251SOL    HW1 1592  13.680   1.146   3.259
33251SOL    HW2 1593  13.720   1.249   3.156
33252SOL     OW 1594   1.833   2.387   4.278
33252SOL    HW1 1595   1.754   2.397   4.225
33252SOL    HW2 1596   1.868   2.301   4.254
33253SOL     OW 1597   4.603   7.179  14.617
33253SOL    HW1 1598   4.688   7.179  14.661
33253SOL    HW2 1599   4.618   7.132  14.535
33254SOL     OW 1600   0.043   3.589   3.120
33254SOL    HW1 1601  14.823   3.572   3.126
33254SOL    HW2 1602   0.084   3.517   3.170
33255SOL     OW 1603   9.364   3.144  12.290
33255SOL    HW1 1604   9.380   3.238  12.289
33255SOL    HW2 1605   9.450   3.105  12.304
33256SOL     OW 1606   7.965   1.881  14.645
33256SOL    HW1 1607   7.929   1.916  14.726
33256SOL    HW2 1608   8.006   1.798  14.672
33257SOL     OW 1609  11.815   2.361  13.889
33257SOL    HW1 1610  11.879   2.346  13.959
33257SOL    HW2 1611  11.865   2.350  13.808
33258SOL     OW 1612   1.513  12.775  12.574
33258SOL    HW1 1613   1.609  12.771  12.572
33258SOL    HW2 1614   1.490  12.751  12.664
33259SOL     OW 1615  13.930   9.248   5.135
33259SOL    HW1 1616  13.845   9.204   5.130
33259SOL    HW2 1617  13.957   9.237   5.226
33260SOL     OW 1618   0.626  10.208   3.332
33260SOL    HW1 1619   0.706  10.257   3.346
33260SOL    HW2 1620   0.615  10.155   3.411
33261SOL     OW 1621  12.464  10.439   3.381
33261SOL    HW1 1622  12.512  10.369   3.425
33261SOL    HW2 1623  12.527  10.512   3.377
33262SOL     OW 1624  13.624  12.783   6.130
33262SOL    HW1 1625  13.703  12.768   6.183
33262SOL    HW2 1626  13.657  12.788   6.040
33263SOL     OW 1627   6.117  12.082   9.454
33263SOL    HW1 1628   6.047  12.018   9.467
33263SOL    HW2 1629   6.192  12.044   9.499
33264SOL     OW 1630   6.857   2.154   9.783
33264SOL    HW1 1631   6.800   2.081   9.756
33264SOL    HW2 1632   6.849   2.156   9.878
33265SOL     OW 1633  11.948   2.169   1.050
33265SOL    HW1 1634  11.916   2.195   0.964
33265SOL    HW2 1635  12.031   2.216   1.059
33266SOL     OW 1636  11.638   8.898   0.573
33266SOL    HW1 1637  11.569   8.869   0.632
33266SOL    HW2 1638  11.591   8.936   0.498
33267SOL     OW 1639   6.654   1.638   0.951
33267SOL    HW1 1640   6.682   1.677   0.869
33267SOL    HW2 1641   6.736   1.613   0.995
33268SOL     OW 1642  10.009  11.707  10.296
33268SOL    HW1 1643   9.930  11.762  10.299
33268SOL    HW2 1644  10.080  11.768  10.276
33269SOL     OW 1645  13.993   0.533   6.992
33269SOL    HW1 1646  13.975   0.602   7.056
33269SOL    HW2 1647  14.087   0.520   6.996
33270SOL     OW 1648  11.569   3.190  14.838
33270SOL    HW1 1649  11.484   3.191   0.009
33270SOL    HW2 1650  11.549   3.164  14.748
33271SOL     OW 1651  10.950   1.901   9.190
33271SOL    HW1 1652  10.881   1.934   9.248
33271SOL    HW2 1653  11.026   1.956   9.211
33272SOL     OW 1654   0.503  13.377   9.413
33272SOL    HW1 1655   0.594  13.399   9.396
33272SOL    HW2 1656   0.476  13.439   9.481
33273SOL     OW 1657  12.532   0.675  13.929
33273SOL    HW1 1658  12.619   0.713  13.938
33273SOL    HW2 1659  12.533   0.598  13.987
33274SOL     OW 1660   5.276   3.547  11.341
33274SOL    HW1 1661   5.326   3.476  11.382
33274SOL    HW2 1662   5.187   3.512  11.335
33275SOL     OW 1663   1.760   8.633   1.908
33275SOL    HW1 1664   1.820   8.609   1.837
33275SOL    HW2 1665   1.810   8.621   1.988
33276SOL     OW 1666   2.951   6.490  11.338
33276SOL    HW1 1667   2.888   6.503  11.409
33276SOL    HW2 1668   3.035   6.481  11.382
33277SOL     OW 1669  13.469   5.434   1.174
33277SOL    HW1 1670  13.394   5.382   1.204
33277SOL    HW2 1671  13.454   5.521   1.211
33278SOL     OW 1672   8.837   8.940   5.816
33278SOL    HW1 1673   8.784   9.007   5.772
33278SOL    HW2 1674   8.793   8.926   5.899
33279SOL     OW 1675   4.060   9.430   5.696
33279SOL    HW1 1676   4.067   9.343   5.734
33279SOL    HW2 1677   4.145   9.443   5.652
33280SOL     OW 1678   5.373   9.401   0.561
33280SOL    HW1 1679   5.295   9.420   0.509
33280SOL    HW2 1680   5.434   9.361   0.499
33281SOL     OW 1681   1.296   2.849   4.757
33281SOL    HW1 1682   1.235   2.836   4.684
33281SOL    HW2 1683   1.297   2.943   4.772
33282SOL     OW 1684   6.168   3.541   8.114
33282SOL    HW1 1685   6.086   3.532   8.065
33282SOL    HW2 1686   6.208   3.454   8.110
33283SOL     OW 1687  14.444   6.843   6.449
33283SOL    HW1 1688  14.415   6.881   6.532
33283SOL    HW2 1689  14.365   6.801   6.414
33284SOL     OW 1690  10.628   1.339  12.154
33284SOL    HW1 1691  10.544   1.295  12.157
33284SOL    HW2 1692  10.618   1.415  12.211
33285SOL     OW 1693  12.955   6.180  10.975
33285SOL    HW1 1694  13.012   6.108  10.947
33285SOL    HW2 1695  12.987   6.205  11.062
33286SOL     OW 1696  10.570  12.366   8.972
33286SOL    HW1 1697  10.524  12.448   8.953
33286SOL    HW2 1698  10.593  12.373   9.065
33287SOL     OW 1699   3.141  10.561   5.898
33287SOL    HW1 1700   3.196  10.497   5.852
33287SOL    HW2 1701   3.084  10.508   5.954
33288SOL     OW 1702   1.431   7.772   7.993
33288SOL    HW1 1703   1.377   7.772   7.914
33288SOL    HW2 1704   1.442   7.680   8.015
33289SOL     OW 1705   4.126  13.981   1.447
33289SOL    HW1 1706   4.112  13.996   1.540
33289SOL    HW2 1707   4.182  14.053   1.419
33290SOL     OW 1708  14.310   1.388   2.379
33290SOL    HW1 1709  14.388   1.439   2.400
33290SOL    HW2 1710  14.328   1.352   2.292
33291SOL     OW 1711   5.409   1.671  10.959
33291SOL    HW1 1712   5.482   1.717  10.916
33291SOL    HW2 1713   5.439   1.659  11.049
33292SOL     OW 1714   3.455   2.721  14.589
33292SOL    HW1 1715   3.525   2.786  14.591
33292SOL    HW2 1716   3.458   2.684  14.501
33293SOL     OW 1717  10.942   5.765  14.020
33293SOL    HW1 1718  10.962   5.673  14.037
33293SOL    HW2 1719  11.028   5.806  14.009
33294SOL     OW 1720  11.790   6.483   0.444
33294SOL    HW1 1721  11.862   6.421   0.432
33294SOL    HW2 1722  11.753   6.495   0.357
33295SOL     OW 1723  10.424   1.116   1.131
33295SOL    HW1 1724  10.449   1.089   1.042
33295SOL    HW2 1725  10.506   1.146   1.170
33296SOL     OW 1726   9.398  11.701  11.078
33296SOL    HW1 1727   9.429  11.760  11.010
33296SOL    HW2 1728   9.427  11.741  11.160
33297SOL     OW 1729   9.175   5.463   1.255
33297SOL    HW1 1730   9.148   5.456   1.164
33297SOL    HW2 1731   9.258   5.415   1.259
33298SOL     OW 1732  12.668   6.002  14.163
33298SOL    HW1 1733  12.718   6.005  14.081
33298SOL    HW2 1734  12.713   6.065  14.220
33299SOL     OW 1735   3.030  10.723   0.425
33299SOL    HW1 1736   3.040  10.806   0.471
33299SOL    HW2 1737   2.969  10.742   0.354
33300SOL     OW 1738   6.671  11.118   4.001
33300SOL    HW1 1739   6.578  11.141   3.998
33300SOL    HW2 1740   6.697  11.135   4.091
33301SOL     OW 1741   2.566   2.696  10.796
33301SOL    HW1 1742   2.539   2.643  10.721
33301SOL    HW2 1743   2.619   2.766  10.757
33302SOL     OW 1744  12.667  10.385   5.880
33302SOL    HW1 1745  12.722  10.463   5.871
33302SOL    HW2 1746  12.658  10.372   5.975
33303SOL     OW 1747   0.443   9.839   9.755
33303SOL    HW1 1748   0.388   9.899   9.805
33303SOL    HW2 1749   0.462   9.767   9.815
33304SOL     OW 1750   4.193   2.894   8.155
33304SOL    HW1 1751   4.243   2.860   8.081
33304SOL    HW2 1752   4.212   2.833   8.227
33305SOL     OW 1753   4.305  13.740  10.610
33305SOL    HW1 1754   4.314  13.655  10.565
33305SOL    HW2 1755   4.229  13.781  10.569
33306SOL     OW 1756   0.959   1.819  13.207
33306SOL    HW1 1757   0.908   1.891  13.171
33306SOL    HW2 1758   1.045   1.827  13.165
33307SOL     OW 1759   9.547   2.956   9.682
33307SOL    HW1 1760   9.524   2.979   9.772
33307SOL    HW2 1761   9.472   2.907   9.649
33308SOL     OW 1762   5.949   1.118  10.781
33308SOL    HW1 1763   5.924   1.032  10.814
33308SOL    HW2 1764   5.871   1.172  10.791
33309SOL     OW 1765   3.441   4.573  12.797
33309SOL    HW1 1766   3.391   4.654  12.785
33309SOL    HW2 1767   3.376   4.508  12.823
33310SOL     OW 1768   1.151   0.942  12.663
33310SOL    HW1 1769   1.175   0.850  12.653
33310SOL    HW2 1770   1.188   0.968  12.748
33311SOL     OW 1771   6.387  12.439   3.629
33311SOL    HW1 1772   6.320  12.448   3.697
33311SOL    HW2 1773   6.450  12.376   3.666
33312SOL     OW 1774   7.787  10.815   5.655
33312SOL    HW1 1775   7.833  10.767   5.586
33312SOL    HW2 1776   7.839  10.895   5.667
33313SOL     OW 1777  10.035   5.335  12.980
33313SOL    HW1 1778   9.989   5.419  12.983
33313SOL    HW2 1779  10.119   5.353  13.022
33314SOL     OW 1780   2.364   2.999  12.593
33314SOL    HW1 1781   2.275   3.026  12.572
33314SOL    HW2 1782   2.383   2.928  12.532
33315SOL     OW 1783  14.410  10.275  10.978
33315SOL    HW1 1784  14.412  10.196  10.924
33315SOL    HW2 1785  14.409  10.347  10.916
33316SOL     OW 1786   9.748   4.118   3.594
33316SOL    HW1 1787   9.829   4.161   3.619
33316SOL    HW2 1788   9.756   4.030   3.631
33317SOL     OW 1789   7.603  11.998   8.346
33317SOL    HW1 1790   7.622  11.946   8.424
33317SOL    HW2 1791   7.513  12.028   8.358
33318SOL     OW 1792  10.215  12.602   9.394
33318SOL    HW1 1793  10.155  12.583   9.467
33318SOL    HW2 1794  10.261  12.519   9.380
33319SOL     OW 1795  13.879  10.108   9.511
33319SOL    HW1 1796  13.828  10.110   9.430
33319SOL    HW2 1797  13.919  10.195   9.517
33320SOL     OW 1798   1.694   9.538   6.897
33320SOL    HW1 1799   1.736   9.558   6.980
33320SOL    HW2 1800   1.762   9.494   6.845
33321SOL     OW 1801  13.318  13.962   3.382
33321SOL    HW1 1802  13.323  14.045   3.333
33321SOL    HW2 1803  13.234  13.924   3.357
33322SOL     OW 1804   3.681   4.243   6.799
33322SOL    HW1 1805   3.623   4.318   6.790
33322SOL    HW2 1806   3.643   4.176   6.741
33323SOL     OW 1807  14.471   9.762   3.178
33323SOL    HW1 1808  14.563   9.737   3.162
33323SOL    HW2 1809  14.421   9.684   3.156
33324SOL     OW 1810   2.262   6.555  11.059
33324SOL    HW1 1811   2.252   6.545  11.154
33324SOL    HW2 1812   2.184   6.602  11.031
33325SOL     OW 1813   3.266  11.842   5.741
33325SOL    HW1 1814   3.352  11.884   5.737
33325SOL    HW2 1815   3.280  11.765   5.796
33326SOL     OW 1816  13.398   1.676   2.641
33326SOL    HW1 1817  13.485   1.698   2.607
33326SOL    HW2 1818  13.339   1.698   2.569
33327SOL     OW 1819   0.484   0.059  10.651
33327SOL    HW1 1820   0.528   0.053  10.736
33327SOL    HW2 1821   0.436   0.142  10.654
33328SOL     OW 1822  14.152   4.245   3.356
33328SOL    HW1 1823  14.155   4.156   3.392
33328SOL    HW2 1824  14.065   4.277   3.378
33329SOL     OW 1825  13.847   4.505   0.686
33329SOL    HW1 1826  13.808   4.432   0.638
33329SOL    HW2 1827  13.776   4.569   0.694
33330SOL     OW 1828  13.181   7.193  14.004
33330SOL    HW1 1829  13.220   7.268  14.049
33330SOL    HW2 1830  13.100   7.228  13.966
33331SOL     OW 1831   5.777   3.922   9.440
33331SOL    HW1 1832   5.760   3.833   9.469
33331SOL    HW2 1833   5.737   3.927   9.353
33332SOL     OW 1834   1.895   4.812   4.952
33332SOL    HW1 1835   1.874   4.858   5.033
33332SOL    HW2 1836   1.892   4.880   4.884
33333SOL     OW 1837   9.306   3.330   4.986
33333SOL    HW1 1838   9.212   3.345   4.977
33333SOL    HW2 1839   9.334   3.394   5.052
33334SOL     OW 1840   8.938   8.185   0.451
33334SOL    HW1 1841   8.941   8.150   0.540
33334SOL    HW2 1842   8.854   8.156   0.417
33335SOL     OW 1843   2.000   3.499   2.625
33335SOL    HW1 1844   2.077   3.449   2.651
33335SOL    HW2 1845   2.031   3.554   2.553
33336SOL     OW 1846   2.605   8.446  14.331
33336SOL    HW1 1847   2.644   8.525  14.370
33336SOL    HW2 1848   2.598   8.384  14.404
33337SOL     OW 1849   0.522  11.372   4.670
33337SOL    HW1 1850   0.499  11.457   4.633
33337SOL    HW2 1851   0.604  11.389   4.717
33338SOL     OW 1852  10.491  13.084   0.768
33338SOL    HW1 1853  10.420  13.029   0.735
33338SOL    HW2 1854  10.448  13.166   0.795
33339SOL     OW 1855  14.381  12.306  14.518
33339SOL    HW1 1856  14.291  12.337  14.514
33339SOL    HW2 1857  14.400  12.276  14.429
33340SOL     OW 1858   8.789  12.164   4.490
33340SOL    HW1 1859   8.776  12.250   4.451
33340SOL    HW2 1860   8.844  12.179   4.566
33341SOL     OW 1861   3.018   3.336  12.893
33341SOL    HW1 1862   3.067   3.382  12.825
33341SOL    HW2 1863   2.980   3.260  12.848
33342SOL     OW 1864   7.623  12.218   0.848
33342SOL    HW1 1865   7.615  12.284   0.778
33342SOL    HW2 1866   7.580  12.140   0.812
33343SOL     OW 1867   0.672   7.221   1.231
33343SOL    HW1 1868   0.725   7.289   1.190
33343SOL    HW2 1869   0.644   7.165   1.158
33344SOL     OW 1870   1.517  11.575   3.584
33344SOL    HW1 1871   1.603  11.618   3.582
33344SOL    HW2 1872   1.533  11.488   3.547
33345SOL     OW 1873  14.726  11.236  13.124
33345SOL    HW1 1874  14.688  11.151  13.099
33345SOL    HW2 1875  14.784  11.257  13.051
33346SOL     OW 1876   7.036   1.812   4.528
33346SOL    HW1 1877   6.978   1.799   4.603
33346SOL    HW2 1878   7.046   1.725   4.490
33347SOL     OW 1879   8.866   2.475   4.174
33347SOL    HW1 1880   8.897   2.423   4.099
33347SOL    HW2 1881   8.771   2.467   4.171
33348SOL     OW 1882  10.804  14.689  14.261
33348SOL    HW1 1883  10.805  14.622  14.330
33348SOL    HW2 1884  10.869  14.753  14.289
33349SOL     OW 1885   9.035   7.148  10.097
33349SOL    HW1 1886   9.069   7.233  10.127
33349SOL    HW2 1887   9.050   7.089  10.170
33350SOL     OW 1888   8.096  12.436  10.424
33350SOL    HW1 1889   8.041  12.498  10.376
33350SOL    HW2 1890   8.103  12.360  10.366
33351SOL     OW 1891   9.266   3.323   7.675
33351SOL    HW1 1892   9.225   3.253   7.726
33351SOL    HW2 1893   9.200   3.393   7.674
33352SOL     OW 1894   1.855  12.244   4.902
33352SOL    HW1 1895   1.862  12.192   4.982
33352SOL    HW2 1896   1.879  12.184   4.831
33353SOL     OW 1897  14.839   4.482  13.932
33353SOL    HW1 1898  14.872   4.405  13.885
33353SOL    HW2 1899  14.838   4.456  14.024
33354SOL     OW 1900  11.076  12.665  13.243
33354SOL    HW1 1901  11.031  12.718  13.177
33354SOL    HW2 1902  11.142  12.617  13.193
33355SOL     OW 1903   4.697   7.638   7.743
33355SOL    HW1 1904   4.762   7.588   7.793
33355SOL    HW2 1905   4.699   7.599   7.656
33356SOL     OW 1906  12.114   4.718   1.929
33356SOL    HW1 1907  12.127   4.632   1.889
33356SOL    HW2 1908  12.019   4.731   1.925
33357SOL     OW 1909   6.774   1.458   8.541
33357SOL    HW1 1910   6.838   1.399   8.582
33357SOL    HW2 1911   6.790   1.543   8.582
33358SOL     OW 1912  14.315  10.594  14.611
33358SOL    HW1 1913  14.361  10.582  14.694
33358SOL    HW2 1914  14.252  10.664  14.628
33359SOL     OW 1915   9.234   2.569  11.530
33359SOL    HW1 1916   9.175   2.521  11.588
33359SOL    HW2 1917   9.219   2.661  11.552
33360SOL     OW 1918   4.329   3.131  11.572
33360SOL    HW1 1919   4.269   3.117  11.644
33360SOL    HW2 1920   4.282   3.099  11.495
33361SOL     OW 1921   1.496   5.243   7.754
33361SOL    HW1 1922   1.420   5.295   7.730
33361SOL    HW2 1923   1.561   5.307   7.783
33362SOL     OW 1924  12.783  10.538  14.571
33362SOL    HW1 1925  12.689  10.519  14.577
33362SOL    HW2 1926  12.801  10.596  14.645
33363SOL     OW 1927   8.653   1.302   3.251
33363SOL    HW1 1928   8.578   1.275   3.197
33363SOL    HW2 1929   8.614   1.355   3.321
33364SOL     OW 1930  14.454   6.378  11.057
33364SOL    HW1 1931  14.414   6.316  11.117
33364SOL    HW2 1932  14.503   6.438  11.114
33365SOL     OW 1933   1.292   1.165   8.517
33365SOL    HW1 1934   1.287   1.197   8.427
33365SOL    HW2 1935   1.361   1.099   8.515
33366SOL     OW 1936  14.570   3.501   0.269
33366SOL    HW1 1937  14.630   3.577   0.267
33366SOL    HW2 1938  14.495   3.529   0.218
33367SOL     OW 1939   8.117  11.916  13.914
33367SOL    HW1 1940   8.065  11.873  13.846
33367SOL    HW2 1941   8.087  12.007  13.912
33368SOL     OW 1942   7.714  12.475   4.851
33368SOL    HW1 1943   7.789  12.533   4.837
33368SOL    HW2 1944   7.647  12.531   4.890
33369SOL     OW 1945  14.572   3.178   6.284
33369SOL    HW1 1946  14.532   3.187   6.198
33369SOL    HW2 1947  14.575   3.266   6.319
33370SOL     OW 1948   5.194  14.148   4.616
33370SOL    HW1 1949   5.246  14.088   4.670
33370SOL    HW2 1950   5.105  14.115   4.623
33371SOL     OW 1951   5.844  13.960  10.843
33371SOL    HW1 1952   5.939  13.948  10.841
33371SOL    HW2 1953   5.809  13.873  10.827
33372SOL     OW 1954   5.621   8.106   4.267
33372SOL    HW1 1955   5.703   8.058   4.283
33372SOL    HW2 1956   5.562   8.041   4.229
33373SOL     OW 1957  10.898   3.171   8.919
33373SOL    HW1 1958  10.824   3.133   8.870
33373SOL    HW2 1959  10.962   3.194   8.851
33374SOL     OW 1960  12.916   5.227  11.161
33374SOL    HW1 1961  12.912   5.175  11.082
33374SOL    HW2 1962  12.837   5.281  11.158
33375SOL     OW 1963   7.210   5.285   4.925
33375SOL    HW1 1964   7.261   5.254   5.000
33375SOL    HW2 1965   7.161   5.359   4.959
33376SOL     OW 1966   8.996  13.979  10.458
33376SOL    HW1 1967   8.942  13.917  10.409
33376SOL    HW2 1968   9.074  13.991  10.404
33377SOL     OW 1969  10.447   3.070   0.509
33377SOL    HW1 1970  10.410   3.149   0.470
33377SOL    HW2 1971  10.417   3.071   0.600
33378SOL     OW 1972   2.847  13.566  14.655
33378SOL    HW1 1973   2.838  13.646  14.603
33378SOL    HW2 1974   2.813  13.590  14.742
33379SOL     OW 1975  14.809   3.734  13.926
33379SOL    HW1 1976  14.802   3.642  13.903
33379SOL    HW2 1977  14.732   3.752  13.980
33380SOL     OW 1978   6.817   9.183  13.677
33380SOL    HW1 1979   6.864   9.140  13.605
33380SOL    HW2 1980   6.737   9.131  13.688
33381SOL     OW 1981  12.212   0.847   3.546
33381SOL    HW1 1982  12.176   0.926   3.586
33381SOL    HW2 1983  12.287   0.824   3.600
33382SOL     OW 1984   4.927  11.158   4.609
33382SOL    HW1 1985   4.979  11.213   4.667
33382SOL    HW2 1986   4.985  11.087   4.584
33383SOL     OW 1987   2.887  12.228  12.401
33383SOL    HW1 1988   2.939  12.230  12.321
33383SOL    HW2 1989   2.816  12.289  12.385
33384SOL     OW 1990   7.531  13.960  13.756
33384SOL    HW1 1991   7.577  13.883  13.791
33384SOL    HW2 1992   7.473  13.925  13.689
33385SOL     OW 1993   6.607   0.589  14.253
33385SOL    HW1 1994   6.555   0.647  14.197
33385SOL    HW2 1995   6.650   0.649  14.315
33386SOL     OW 1996  11.971  13.377   3.589
33386SOL    HW1 1997  12.017  13.440   3.534
33386SOL    HW2 1998  11.953  13.425   3.670
33387SOL     OW 1999   7.758   0.509   9.203
33387SOL    HW1 2000   7.732   0.555   9.123
33387SOL    HW2 2001   7.685   0.451   9.223
33388SOL     OW 2002   5.232   3.998   2.976
33388SOL    HW1 2003   5.224   3.922   3.033
33388SOL    HW2 2004   5.326   4.008   2.961
33389SOL     OW 2005   5.249   1.152   4.890
33389SOL    HW1 2006   5.163   1.110   4.883
33389SOL    HW2 2007   5.262   1.193   4.804
33390SOL     OW 2008   1.716  11.660   5.149
33390SOL    HW1 2009   1.681  11.748   5.165
33390SOL    HW2 2010   1.673  11.606   5.216
33391SOL     OW 2011  14.509   3.047   5.554
33391SOL    HW1 2012  14.458   3.042   5.473
33391SOL    HW2 2013  14.569   3.119   5.540
33392SOL     OW 2014   6.579  14.385   4.669
33392SOL    HW1 2015   6.532  14.455   4.624
33392SOL    HW2 2016   6.574  14.311   4.609
33393SOL     OW 2017   7.549   7.814  10.345
33393SOL    HW1 2018   7.601   7.893  10.339
33393SOL    HW2 2019   7.612   7.745  10.366
33394SOL     OW 2020   3.247   3.507   5.180
33394SOL    HW1 2021   3.211   3.549   5.103
33394SOL    HW2 2022   3.171   3.491   5.237
33395SOL     OW 2023  14.370   6.732   0.399
33395SOL    HW1 2024  14.324   6.685   0.329
33395SOL    HW2 2025  14.447   6.770   0.357
33396SOL     OW 2026  10.176   9.554   5.248
33396SOL    HW1 2027  10.239   9.482   5.235
33396SOL    HW2 2028  10.216   9.609   5.315
33397SOL     OW 2029   8.345   3.211   1.189
33397SOL    HW1 2030   8.264   3.259   1.170
33397SOL    HW2 2031   8.335   3.180   1.278
33398SOL     OW 2032  14.571   6.240   2.358
33398SOL    HW1 2033  14.621   6.249   2.277
33398SOL    HW2 2034  14.581   6.325   2.402
33399SOL     OW 2035   9.142  11.128   7.495
33399SOL    HW1 2036   9.050  11.131   7.522
33399SOL    HW2 2037   9.186  11.189   7.555
33400SOL     OW 2038   9.798  14.518   7.424
33400SOL    HW1 2039   9.739  14.548   7.355
33400SOL    HW2 2040   9.885  14.548   7.397
33401SOL     OW 2041   4.215  12.134   9.082
33401SOL    HW1 2042   4.196  12.153   8.990
33401SOL    HW2 2043   4.301  12.091   9.080
33402SOL     OW 2044  14.311   5.452   3.232
33402SOL    HW1 2045  14.376   5.520   3.216
33402SOL    HW2 2046  14.336   5.380   3.175
33403SOL     OW 2047   3.777  11.986   5.224
33403SOL    HW1 2048   3.768  11.902   5.181
33403SOL    HW2 2049   3.687  12.014   5.241
33404SOL     OW 2050  14.483   4.730  14.262
33404SOL    HW1 2051  14.434   4.754  14.183
33404SOL    HW2 2052  14.475   4.635  14.267
33405SOL     OW 2053  11.373   6.819   3.135
33405SOL    HW1 2054  11.389   6.725   3.125
33405SOL    HW2 2055  11.388   6.856   3.048
33406SOL     OW 2056  10.489  12.106  11.298
33406SOL    HW1 2057  10.513  12.158  11.221
33406SOL    HW2 2058  10.502  12.164  11.372
33407SOL     OW 2059   0.727   7.975   4.729
33407SOL    HW1 2060   0.817   7.950   4.711
33407SOL    HW2 2061   0.675   7.930   4.663
33408SOL     OW 2062  13.178  10.222   2.554
33408SOL    HW1 2063  13.177  10.134   2.591
33408SOL    HW2 2064  13.199  10.209   2.462
33409SOL     OW 2065   1.134  13.288   0.780
33409SOL    HW1 2066   1.100  13.255   0.697
33409SOL    HW2 2067   1.124  13.215   0.841
33410SOL     OW 2068   1.841   3.566   0.976
33410SOL    HW1 2069   1.839   3.587   0.883
33410SOL    HW2 2070   1.756   3.595   1.009
33411SOL     OW 2071   2.044   8.728  12.038
33411SOL    HW1 2072   2.023   8.680  11.957
33411SOL    HW2 2073   2.004   8.814  12.026
33412SOL     OW 2074   7.202   1.287   2.903
33412SOL    HW1 2075   7.257   1.332   2.838
33412SOL    HW2 2076   7.264   1.239   2.957
33413SOL     OW 2077  13.566   5.829   8.561
33413SOL    HW1 2078  13.498   5.884   8.523
33413SOL    HW2 2079  13.536   5.811   8.651
33414SOL     OW 2080   5.196   5.643  13.778
33414SOL    HW1 2081   5.194   5.547  13.776
33414SOL    HW2 2082   5.286   5.665  13.803
33415SOL     OW 2083  12.077   2.560  14.758
33415SOL    HW1 2084  12.138   2.495  14.723
33415SOL    HW2 2085  12.133   2.621  14.807
33416SOL     OW 2086   9.576   7.246  11.557
33416SOL    HW1 2087   9.504   7.223  11.498
33416SOL    HW2 2088   9.640   7.176  11.546
33417SOL     OW 2089   3.838   6.848   7.956
33417SOL    HW1 2090   3.864   6.861   7.865
33417SOL    HW2 2091   3.742   6.848   7.954
33418SOL     OW 2092   7.840   3.878  14.106
33418SOL    HW1 2093   7.874   3.967  14.094
33418SOL    HW2 2094   7.811   3.851  14.019
33419SOL     OW 2095   7.046   8.789  10.901
33419SOL    HW1 2096   7.040   8.697  10.875
33419SOL    HW2 2097   6.958   8.810  10.934
33420SOL     OW 2098   0.205  13.033   0.341
33420SOL    HW1 2099   0.281  13.051   0.286
33420SOL    HW2 2100   0.157  12.965   0.294
33421SOL     OW 2101  12.728  12.415   9.148
33421SOL    HW1 2102  12.764  12.448   9.066
33421SOL    HW2 2103  12.731  12.490   9.208
33422SOL     OW 2104   6.365  12.950  13.081
33422SOL    HW1 2105   6.273  12.933  13.101
33422SOL    HW2 2106   6.370  12.944  12.986
33423SOL     OW 2107  10.386  10.026  11.168
33423SOL    HW1 2108  10.416   9.939  11.196
33423SOL    HW2 2109  10.302  10.009  11.125
33424SOL     OW 2110   9.021   4.599   1.852
33424SOL    HW1 2111   9.014   4.535   1.781
33424SOL    HW2 2112   8.952   4.662   1.834
33425SOL     OW 2113   8.398   8.998   3.796
33425SOL    HW1 2114   8.347   8.925   3.831
33425SOL    HW2 2115   8.398   8.984   3.702
33426SOL     OW 2116   5.854   8.574  13.244
33426SOL    HW1 2117   5.796   8.529  13.184
33426SOL    HW2 2118   5.808   8.655  13.267
33427SOL     OW 2119  14.073  12.242   4.472
33427SOL    HW1 2120  13.985  12.275   4.453
33427SOL    HW2 2121  14.117  12.315   4.514
33428SOL     OW 2122   9.944   7.349   3.851
33428SOL    HW1 2123  10.006   7.417   3.876
33428SOL    HW2 2124   9.858   7.387   3.867
33429SOL     OW 2125   8.057   8.691   9.838
33429SOL    HW1 2126   8.108   8.635   9.779
33429SOL    HW2 2127   8.040   8.770   9.787
33430SOL     OW 2128   2.389  12.592   2.691
33430SOL    HW1 2129   2.303  12.615   2.655
33430SOL    HW2 2130   2.419  12.519   2.637
33431SOL     OW 2131  14.796   1.754   8.995
33431SOL    HW1 2132  14.863   1.766   9.061
33431SOL    HW2 2133  14.713   1.752   9.043
33432SOL     OW 2134  13.153  10.369  13.515
33432SOL    HW1 2135  13.246  10.357  13.530
33432SOL    HW2 2136  13.119  10.281  13.500
33433SOL     OW 2137   8.106   6.753   8.548
33433SOL    HW1 2138   8.187   6.714   8.515
33433SOL    HW2 2139   8.125   6.775   8.639
33434SOL     OW 2140   1.526   4.454  12.212
33434SOL    HW1 2141   1.491   4.427  12.296
33434SOL    HW2 2142   1.449   4.471  12.158
33435SOL     OW 2143   7.633   6.400  10.964
33435SOL    HW1 2144   7.613   6.439  11.050
33435SOL    HW2 2145   7.723   6.426  10.946
33436SOL     OW 2146  11.955   9.207   0.547
33436SOL    HW1 2147  11.990   9.295   0.535
33436SOL    HW2 2148  12.018   9.163   0.603
33437SOL     OW 2149   4.367   2.101   7.338
33437SOL    HW1 2150   4.356   2.006   7.348
33437SOL    HW2 2151   4.319   2.138   7.413
33438SOL     OW 2152   1.910   6.872   0.450
33438SOL    HW1 2153   1.872   6.951   0.490
33438SOL    HW2 2154   1.920   6.810   0.522
33439SOL     OW 2155  11.429   0.423   7.869
33439SOL    HW1 2156  11.504   0.471   7.836
33439SOL    HW2 2157  11.390   0.481   7.935
33440SOL     OW 2158  13.846  13.522  12.383
33440SOL    HW1 2159  13.912  13.539  12.451
33440SOL    HW2 2160  13.837  13.426  12.384
33441SOL     OW 2161   2.320   0.077  10.964
33441SOL    HW1 2162   2.276   0.153  11.002
33441SOL    HW2 2163   2.262   0.003  10.982
33442SOL     OW 2164   5.954   4.011   6.595
33442SOL    HW1 2165   6.021   4.074   6.568
33442SOL    HW2 2166   5.885   4.018   6.529
33443SOL     OW 2167   7.844  11.020   7.630
33443SOL    HW1 2168   7.801  10.937   7.653
33443SOL    HW2 2169   7.930  10.994   7.597
33444SOL     OW 2170   9.693  11.026  11.365
33444SOL    HW1 2171   9.758  11.007  11.296
33444SOL    HW2 2172   9.745  11.037  11.444
33445SOL     OW 2173   7.119  10.191   2.529
33445SOL    HW1 2174   7.092  10.283   2.521
33445SOL    HW2 2175   7.139  10.180   2.622
33446SOL     OW 2176   8.307   4.249   0.099
33446SOL    HW1 2177   8.319   4.338   0.064
33446SOL    HW2 2178   8.342   4.254   0.188
33447SOL     OW 2179   8.360   3.534   9.214
33447SOL    HW1 2180   8.300   3.570   9.280
33447SOL    HW2 2181   8.385   3.448   9.249
33448SOL     OW 2182   3.944   6.688  12.847
33448SOL    HW1 2183   3.867   6.631  12.851
33448SOL    HW2 2184   3.908   6.776  12.849
33449SOL     OW 2185  10.251   7.107   0.918
33449SOL    HW1 2186  10.289   7.126   1.004
33449SOL    HW2 2187  10.310   7.043   0.879
33450SOL     OW 2188   8.614  13.537  10.148
33450SOL    HW1 2189   8.691  13.547  10.093
33450SOL    HW2 2190   8.546  13.504  10.088
33451SOL     OW 2191   1.954   3.134  10.999
33451SOL    HW1 2192   1.913   3.049  11.014
33451SOL    HW2 2193   2.023   3.139  11.065
33452SOL     OW 2194   6.844   2.796  14.379
33452SOL    HW1 2195   6.917   2.740  14.351
33452SOL    HW2 2196   6.886   2.865  14.430
33453SOL     OW 2197   1.484   0.583  11.300
33453SOL    HW1 2198   1.518   0.607  11.386
33453SOL    HW2 2199   1.539   0.633  11.238
33454SOL     OW 2200   9.020   4.444  13.518
33454SOL    HW1 2201   9.051   4.513  13.460
33454SOL    HW2 2202   8.945   4.406  13.473
33455SOL     OW 2203  11.670   0.264   4.441
33455SOL    HW1 2204  11.734   0.276   4.511
33455SOL    HW2 2205  11.638   0.352   4.422
33456SOL     OW 2206   6.650   7.697  13.872
33456SOL    HW1 2207   6.563   7.680  13.909
33456SOL    HW2 2208   6.649   7.790  13.852
33457SOL     OW 2209   0.957   2.030   0.460
33457SOL    HW1 2210   0.950   2.085   0.383
33457SOL    HW2 2211   0.940   2.090   0.534
33458SOL     OW 2212   0.633  12.811   5.430
33458SOL    HW1 2213   0.689  12.778   5.360
33458SOL    HW2 2214   0.692  12.862   5.486
33459SOL     OW 2215   0.332   6.327  13.963
33459SOL    HW1 2216   0.244   6.320  13.999
33459SOL    HW2 2217   0.324   6.390  13.891
33460SOL     OW 2218  11.434  10.986   2.693
33460SOL    HW1 2219  11.358  10.938   2.660
33460SOL    HW2 2220  11.408  11.016   2.780
33461SOL     OW 2221   7.185   9.952  14.852
33461SOL    HW1 2222   7.258   9.904  14.812
33461SOL    HW2 2223   7.228  10.017   0.035
33462SOL     OW 2224   8.267   2.941   0.656
33462SOL    HW1 2225   8.289   2.943   0.563
33462SOL    HW2 2226   8.207   2.867   0.665
33463SOL     OW 2227   1.055   7.104   5.540
33463SOL    HW1 2228   1.009   7.065   5.615
33463SOL    HW2 2229   1.042   7.198   5.551
33464SOL     OW 2230   2.337  12.838   9.747
33464SOL    HW1 2231   2.261  12.894   9.731
33464SOL    HW2 2232   2.300  12.754   9.775
33465SOL     OW 2233   0.383  14.364  12.237
33465SOL    HW1 2234   0.423  14.328  12.158
33465SOL    HW2 2235   0.428  14.320  12.310
33466SOL     OW 2236   5.942   9.941  14.596
33466SOL    HW1 2237   5.967  10.023  14.554
33466SOL    HW2 2238   5.961   9.954  14.688
33467SOL     OW 2239  12.181   7.982   6.814
33467SOL    HW1 2240  12.272   7.960   6.792
33467SOL    HW2 2241  12.145   8.018   6.733
33468SOL     OW 2242   3.709   0.225   1.315
33468SOL    HW1 2243   3.763   0.184   1.247
33468SOL    HW2 2244   3.647   0.156   1.341
33469SOL     OW 2245  12.350   3.530  14.296
33469SOL    HW1 2246  12.328   3.597  14.232
33469SOL    HW2 2247  12.267   3.489  14.318
33470SOL     OW 2248  10.808   6.705  14.470
33470SOL    HW1 2249  10.847   6.786  14.504
33470SOL    HW2 2250  10.872   6.637  14.489
33471SOL     OW 2251   6.275   7.995  10.595
33471SOL    HW1 2252   6.351   7.954  10.555
33471SOL    HW2 2253   6.307   8.026  10.680
33472SOL     OW 2254   8.366   0.892  12.963
33472SOL    HW1 2255   8.272   0.877  12.966
33472SOL    HW2 2256   8.398   0.860  13.047
33473SOL     OW 2257   0.320  13.205   1.812
33473SOL    HW1 2258   0.408  13.188   1.779
33473SOL    HW2 2259   0.267  13.133   1.777
33474SOL     OW 2260   1.153   0.446   9.160
33474SOL    HW1 2261   1.126   0.459   9.251
33474SOL    HW2 2262   1.237   0.492   9.154
33475SOL     OW 2263   4.639   1.637   9.758
33475SOL    HW1 2264   4.565   1.630   9.698
33475SOL    HW2 2265   4.712   1.599   9.708
33476SOL     OW 2266  14.239   8.553   0.800
33476SOL    HW1 2267  14.300   8.620   0.770
33476SOL    HW2 2268  14.259   8.542   0.893
33477SOL     OW 2269   5.385   0.756   5.050
33477SOL    HW1 2270   5.293   0.761   5.025
33477SOL    HW2 2271   5.412   0.668   5.024
33478SOL     OW 2272   4.908   5.954   6.017
33478SOL    HW1 2273   4.923   5.923   5.928
33478SOL    HW2 2274   4.928   6.047   6.014
33479SOL     OW 2275   6.482   8.322   4.014
33479SOL    HW1 2276   6.467   8.229   3.995
33479SOL    HW2 2277   6.538   8.352   3.943
33480SOL     OW 2278   9.065  14.300   3.890
33480SOL    HW1 2279   9.044  14.312   3.797
33480SOL    HW2 2280   9.061  14.389   3.926
33481SOL     OW 2281   7.521   8.404  13.295
33481SOL    HW1 2282   7.496   8.407  13.203
33481SOL    HW2 2283   7.615   8.420  13.295
33482SOL     OW 2284   2.073   1.377   0.411
33482SOL    HW1 2285   2.127   1.305   0.377
33482SOL    HW2 2286   2.137   1.443   0.437
33483SOL     OW 2287   3.004  11.248   4.884
33483SOL    HW1 2288   3.100  11.245   4.879
33483SOL    HW2 2289   2.975  11.215   4.799
33484SOL     OW 2290   1.702   7.615  10.671
33484SOL    HW1 2291   1.685   7.565  10.751
33484SOL    HW2 2292   1.747   7.694  10.702
33485SOL     OW 2293   0.266  12.529   7.214
33485SOL    HW1 2294   0.289  12.622   7.221
33485SOL    HW2 2295   0.348  12.483   7.232
33486SOL     OW 2296  12.222   4.770  12.930
33486SOL    HW1 2297  12.217   4.828  12.855
33486SOL    HW2 2298  12.304   4.793  12.974
33487SOL     OW 2299  13.897  10.404  11.690
33487SOL    HW1 2300  13.991  10.416  11.680
33487SOL    HW2 2301  13.882  10.412  11.784
33488SOL     OW 2302  14.299  11.006   2.537
33488SOL    HW1 2303  14.294  11.088   2.586
33488SOL    HW2 2304  14.320  10.939   2.602
33489SOL     OW 2305   5.372   5.031   8.654
33489SOL    HW1 2306   5.290   5.060   8.694
33489SOL    HW2 2307   5.345   4.967   8.588
33490SOL     OW 2308   6.409  13.542   0.469
33490SOL    HW1 2309   6.416  13.629   0.510
33490SOL    HW2 2310   6.321  13.541   0.432
33491SOL     OW 2311  14.591   5.922   8.323
33491SOL    HW1 2312  14.639   5.842   8.302
33491SOL    HW2 2313  14.583   5.968   8.239
33492SOL     OW 2314   4.786   5.594  14.078
33492SOL    HW1 2315   4.875   5.559  14.071
33492SOL    HW2 2316   4.731   5.516  14.089
33493SOL     OW 2317   8.893   4.692   7.885
33493SOL    HW1 2318   8.902   4.787   7.879
33493SOL    HW2 2319   8.881   4.663   7.795
33494SOL     OW 2320   0.198  13.454   5.424
33494SOL    HW1 2321   0.193  13.375   5.478
33494SOL    HW2 2322   0.173  13.424   5.336
33495SOL     OW 2323   1.925   1.574   2.462
33495SOL    HW1 2324   1.959   1.605   2.378
33495SOL    HW2 2325   1.914   1.653   2.514
33496SOL     OW 2326  13.245   0.059   2.018
33496SOL    HW1 2327  13.302  14.856   2.023
33496SOL    HW2 2328  13.304   0.133   2.005
33497SOL     OW 2329   9.819  14.017  14.511
33497SOL    HW1 2330   9.830  13.930  14.548
33497SOL    HW2 2331   9.906  14.040  14.478
33498SOL     OW 2332   1.174  12.253   8.469
33498SOL    HW1 2333   1.118  12.192   8.422
33498SOL    HW2 2334   1.114  12.307   8.520
33499SOL     OW 2335   9.772   5.594  10.461
33499SOL    HW1 2336   9.679   5.578  10.448
33499SOL    HW2 2337   9.787   5.679  10.420
33500SOL     OW 2338  10.181   8.872  10.202
33500SOL    HW1 2339  10.248   8.828  10.255
33500SOL    HW2 2340  10.160   8.808  10.134
33501SOL     OW 2341  10.437  14.173  11.525
33501SOL    HW1 2342  10.482  14.248  11.565
33501SOL    HW2 2343  10.473  14.097  11.571
33502SOL     OW 2344   4.704   8.671  14.283
33502SOL    HW1 2345   4.670   8.589  14.247
33502SOL    HW2 2346   4.688   8.736  14.214
33503SOL     OW 2347   3.273   0.262   9.396
33503SOL    HW1 2348   3.274   0.183   9.343
33503SOL    HW2 2349   3.185   0.265   9.434
33504SOL     OW 2350   4.631   2.700  12.393
33504SOL    HW1 2351   4.575   2.673  12.320
33504SOL    HW2 2352   4.580   2.765  12.440
33505SOL     OW 2353   7.247   1.921   0.737
33505SOL    HW1 2354   7.213   1.989   0.678
33505SOL    HW2 2355   7.267   1.968   0.818
33506SOL     OW 2356  11.267   9.409  11.547
33506SOL    HW1 2357  11.232   9.425  11.634
33506SOL    HW2 2358  11.217   9.334  11.514
33507SOL     OW 2359   7.931   2.742   8.551
33507SOL    HW1 2360   7.930   2.674   8.619
33507SOL    HW2 2361   7.943   2.824   8.600
33508SOL     OW 2362  10.030   6.832  13.357
33508SOL    HW1 2363  10.117   6.846  13.318
33508SOL    HW2 2364   9.978   6.906  13.326
33509SOL     OW 2365  12.991   3.558  11.920
33509SOL    HW1 2366  12.954   3.628  11.866
33509SOL    HW2 2367  13.076   3.539  11.879
33510SOL     OW 2368   1.882  14.202   8.369
33510SOL    HW1 2369   1.824  14.261   8.320
33510SOL    HW2 2370   1.864  14.115   8.333
33511SOL     OW 2371   1.568  14.791   7.161
33511SOL    HW1 2372   1.506  14.861   7.139
33511SOL    HW2 2373   1.534  14.714   7.115
33512SOL     OW 2374   5.599   0.797   0.582
33512SOL    HW1 2375   5.599   0.740   0.505
33512SOL    HW2 2376   5.582   0.885   0.546
33513SOL     OW 2377   3.711   9.078   1.177
33513SOL    HW1 2378   3.755   9.101   1.095
33513SOL    HW2 2379   3.691   8.985   1.169
33514SOL     OW 2380   2.858  10.865  14.500
33514SOL    HW1 2381   2.824  10.775  14.500
33514SOL    HW2 2382   2.865  10.888  14.407
33515SOL     OW 2383  12.296   0.998  11.112
33515SOL    HW1 2384  12.208   1.006  11.148
33515SOL    HW2 2385  12.291   0.925  11.051
33516SOL     OW 2386  11.380  12.945  11.008
33516SOL    HW1 2387  11.368  12.868  11.064
33516SOL    HW2 2388  11.445  12.998  11.054
33517SOL     OW 2389   1.037   6.753   1.081
33517SOL    HW1 2390   1.085   6.690   1.028
33517SOL    HW2 2391   1.063   6.733   1.171
33518SOL     OW 2392   8.194  10.158  11.107
33518SOL    HW1 2393   8.265  10.145  11.170
33518SOL    HW2 2394   8.198  10.081  11.051
33519SOL     OW 2395   4.558  13.322   1.067
33519SOL    HW1 2396   4.610  13.281   0.998
33519SOL    HW2 2397   4.617  13.386   1.107
33520SOL     OW 2398  13.093   6.668  12.637
33520SOL    HW1 2399  13.079   6.755  12.600
33520SOL    HW2 2400  13.181   6.644  12.607
33521SOL     OW 2401   4.475  11.009  10.860
33521SOL    HW1 2402   4.401  11.029  10.918
33521SOL    HW2 2403   4.523  10.940  10.906
33522SOL     OW 2404   0.876   2.935  12.053
33522SOL    HW1 2405   0.903   2.903  12.139
33522SOL    HW2 2406   0.790   2.975  12.069
33523SOL     OW 2407  10.553   9.027   1.410
33523SOL    HW1 2408  10.640   9.010   1.375
33523SOL    HW2 2409  10.493   8.999   1.340
33524SOL     OW 2410   8.066  13.894   8.211
33524SOL    HW1 2411   8.067  13.883   8.306
33524SOL    HW2 2412   8.159  13.891   8.186
33525SOL     OW 2413   6.579   9.915  10.477
33525SOL    HW1 2414   6.507   9.969  10.511
33525SOL    HW2 2415   6.626   9.886  10.555
33526SOL     OW 2416   1.216   9.509   2.584
33526SOL    HW1 2417   1.302   9.482   2.615
33526SOL    HW2 2418   1.190   9.580   2.643
33527SOL     OW 2419   3.027   2.578   6.681
33527SOL    HW1 2420   3.031   2.507   6.745
33527SOL    HW2 2421   2.988   2.651   6.730
33528SOL     OW 2422   8.424   5.067  12.980
33528SOL    HW1 2423   8.489   5.034  13.043
33528SOL    HW2 2424   8.401   5.154  13.012
33529SOL     OW 2425   7.560  13.232  11.314
33529SOL    HW1 2426   7.630  13.231  11.379
33529SOL    HW2 2427   7.525  13.143  11.314
33530SOL     OW 2428   9.591   3.746  13.261
33530SOL    HW1 2429   9.567   3.661  13.299
33530SOL    HW2 2430   9.524   3.763  13.196
33531SOL     OW 2431   9.424  12.474   7.271
33531SOL    HW1 2432   9.380  12.390   7.286
33531SOL    HW2 2433   9.417  12.488   7.176
33532SOL     OW 2434   6.070   6.780   3.606
33532SOL    HW1 2435   6.099   6.819   3.524
33532SOL    HW2 2436   6.141   6.799   3.668
33533SOL     OW 2437  13.235  10.631   0.120
33533SOL    HW1 2438  13.277  10.685   0.186
33533SOL    HW2 2439  13.302  10.618   0.053
33534SOL     OW 2440   8.650   7.424   0.611
33534SOL    HW1 2441   8.633   7.455   0.522
33534SOL    HW2 2442   8.587   7.472   0.665
33535SOL     OW 2443   0.521   0.028   8.555
33535SOL    HW1 2444   0.573   0.098   8.515
33535SOL    HW2 2445   0.516  14.834   8.486
33536SOL     OW 2446   6.732   3.801   2.238
33536SOL    HW1 2447   6.814   3.829   2.198
33536SOL    HW2 2448   6.751   3.798   2.332
33537SOL     OW 2449   7.179   1.703   7.637
33537SOL    HW1 2450   7.177   1.724   7.544
33537SOL    HW2 2451   7.241   1.766   7.674
33538SOL     OW 2452  13.282   3.463   8.207
33538SOL    HW1 2453  13.235   3.522   8.147
33538SOL    HW2 2454  13.283   3.509   8.290
33539SOL     OW 2455   0.085  11.550   9.267
33539SOL    HW1 2456   0.051  11.586   9.185
33539SOL    HW2 2457   0.034  11.594   9.335
33540SOL     OW 2458   5.966   3.942   2.472
33540SOL    HW1 2459   5.977   3.859   2.518
33540SOL    HW2 2460   5.956   4.007   2.541
33541SOL     OW 2461  10.344   6.750  11.205
33541SOL    HW1 2462  10.310   6.662  11.222
33541SOL    HW2 2463  10.377   6.781  11.290
33542SOL     OW 2464  10.619   1.115  12.614
33542SOL    HW1 2465  10.588   1.147  12.529
33542SOL    HW2 2466  10.636   1.022  12.600
33543SOL     OW 2467   0.197   6.848   9.868
33543SOL    HW1 2468   0.165   6.938   9.873
33543SOL    HW2 2469   0.134   6.803   9.812
33544SOL     OW 2470   2.674  14.282  14.101
33544SOL    HW1 2471   2.728  14.271  14.179
33544SOL    HW2 2472   2.737  14.294  14.030
33545SOL     OW 2473   6.443   0.394  10.287
33545SOL    HW1 2474   6.379   0.440  10.341
33545SOL    HW2 2475   6.462   0.455  10.216
33546SOL     OW 2476   1.669  14.266   1.820
33546SOL    HW1 2477   1.708  14.294   1.903
33546SOL    HW2 2478   1.609  14.195   1.845
33547SOL     OW 2479   7.399   3.716   0.817
33547SOL    HW1 2480   7.476   3.691   0.867
33547SOL    HW2 2481   7.345   3.637   0.814
33548SOL     OW 2482  13.498   7.909  10.357
33548SOL    HW1 2483  13.468   7.920  10.447
33548SOL    HW2 2484  13.454   7.830  10.326
33549SOL     OW 2485   2.707  13.212   0.270
33549SOL    HW1 2486   2.668  13.286   0.224
33549SOL    HW2 2487   2.635  13.150   0.283
33550SOL     OW 2488   1.643   7.369   9.947
33550SOL    HW1 2489   1.683   7.454   9.967
33550SOL    HW2 2490   1.616   7.376   9.856
33551SOL     OW 2491  13.403   5.744   3.630
33551SOL    HW1 2492  13.401   5.761   3.724
33551SOL    HW2 2493  13.377   5.828   3.591
33552SOL     OW 2494   9.144  14.126   8.735
33552SOL    HW1 2495   9.206  14.066   8.695
33552SOL    HW2 2496   9.127  14.089   8.822
33553SOL     OW 2497   4.825   8.381   5.420
33553SOL    HW1 2498   4.771   8.452   5.455
33553SOL    HW2 2499   4.815   8.388   5.325
33554SOL     OW 2500   2.236   1.938   7.435
33554SOL    HW1 2501   2.253   1.894   7.352
33554SOL    HW2 2502   2.283   2.021   7.429
33555SOL     OW 2503   7.245   6.253  13.097
33555SOL    HW1 2504   7.159   6.235  13.134
33555SOL    HW2 2505   7.237   6.340  13.059
33556SOL     OW 2506  12.039   8.740   0.914
33556SOL    HW1 2507  12.134   8.752   0.906
33556SOL    HW2 2508  12.022   8.746   1.008
33557SOL     OW 2509   5.180   1.699  14.040
33557SOL    HW1 2510   5.085   1.690  14.032
33557SOL    HW2 2511   5.197   1.792  14.027
33558SOL     OW 2512   4.425   8.772   7.005
33558SOL    HW1 2513   4.490   8.752   6.938
33558SOL    HW2 2514   4.476   8.790   7.084
33559SOL     OW 2515   0.042  12.261   0.808
33559SOL    HW1 2516   0.094  12.185   0.781
33559SOL    HW2 2517   0.001  12.292   0.727
33560SOL     OW 2518   7.081   6.104   6.484
33560SOL    HW1 2519   7.090   6.199   6.492
33560SOL    HW2 2520   6.986   6.089   6.481
33561SOL     OW 2521  14.256   6.549   7.331
33561SOL    HW1 2522  14.351   6.560   7.329
33561SOL    HW2 2523  14.242   6.455   7.317
33562SOL     OW 2524   4.616  10.941  14.415
33562SOL    HW1 2525   4.555  10.894  14.471
33562SOL    HW2 2526   4.610  11.032  14.443
33563SOL     OW 2527   6.243   4.292   4.917
33563SOL    HW1 2528   6.284   4.269   5.000
33563SOL    HW2 2529   6.255   4.215   4.862
33564SOL     OW 2530  12.869  10.211  10.906
33564SOL    HW1 2531  12.847  10.163  10.825
33564SOL    HW2 2532  12.787  10.213  10.955
33565SOL     OW 2533   8.164  11.626  10.160
33565SOL    HW1 2534   8.216  11.546  10.173
33565SOL    HW2 2535   8.218  11.680  10.102
33566SOL     OW 2536   2.712  12.441   1.539
33566SOL    HW1 2537   2.700  12.382   1.465
33566SOL    HW2 2538   2.639  12.422   1.597
33567SOL     OW 2539   3.327   7.290   6.051
33567SOL    HW1 2540   3.346   7.348   5.977
33567SOL    HW2 2541   3.400   7.228   6.052
33568SOL     OW 2542   5.501   6.372   4.598
33568SOL    HW1 2543   5.417   6.351   4.638
33568SOL    HW2 2544   5.541   6.435   4.659
33569SOL     OW 2545   9.360   8.663   6.625
33569SOL    HW1 2546   9.355   8.750   6.586
33569SOL    HW2 2547   9.273   8.626   6.611
33570SOL     OW 2548  13.134  10.181  10.985
33570SOL    HW1 2549  13.039  10.183  10.975
33570SOL    HW2 2550  13.150  10.112  11.049
33571SOL     OW 2551  14.793   5.074   7.604
33571SOL    HW1 2552   0.015   5.077   7.606
33571SOL    HW2 2553  14.768   5.048   7.693
33572SOL     OW 2554   9.985   8.155  14.749
33572SOL    HW1 2555   9.890   8.145  14.754
33572SOL    HW2 2556  10.012   8.095  14.680
33573SOL     OW 2557   9.669   8.514   4.525
33573SOL    HW1 2558   9.588   8.526   4.573
33573SOL    HW2 2559   9.733   8.567   4.573
33574SOL     OW 2560   5.483   6.808   9.108
33574SOL    HW1 2561   5.426   6.766   9.173
33574SOL    HW2 2562   5.538   6.867   9.159
33575SOL     OW 2563  14.693   0.003   6.446
33575SOL    HW1 2564  14.759  14.810   6.470
33575SOL    HW2 2565  14.652   0.026   6.529
33576SOL     OW 2566   2.660   0.779  14.320
33576SOL    HW1 2567   2.708   0.701  14.346
33576SOL    HW2 2568   2.638   0.764  14.228
33577SOL     OW 2569   2.385  14.664   3.637
33577SOL    HW1 2570   2.407  14.596   3.701
33577SOL    HW2 2571   2.375  14.616   3.554
33578SOL     OW 2572   5.011   5.933   9.557
33578SOL    HW1 2573   5.085   5.923   9.497
33578SOL    HW2 2574   5.049   5.922   9.644
33579SOL     OW 2575   0.120  11.873   5.236
33579SOL    HW1 2576   0.127  11.876   5.331
33579SOL    HW2 2577   0.110  11.780   5.216
33580SOL     OW 2578  12.059   4.931  14.632
33580SOL    HW1 2579  12.092   5.016  14.604
33580SOL    HW2 2580  12.129   4.870  14.612
33581SOL     OW 2581   4.722  12.178  14.389
33581SOL    HW1 2582   4.704  12.102  14.445
33581SOL    HW2 2583   4.721  12.252  14.450
33582SOL     OW 2584   9.245  10.497  10.299
33582SOL    HW1 2585   9.195  10.501  10.218
33582SOL    HW2 2586   9.290  10.581  10.304
33583SOL     OW 2587   2.781   7.366  13.245
33583SOL    HW1 2588   2.719   7.367  13.318
33583SOL    HW2 2589   2.866   7.381  13.285
33584SOL     OW 2590   1.663  13.580   8.178
33584SOL    HW1 2591   1.678  13.563   8.085
33584SOL    HW2 2592   1.631  13.671   8.181
33585SOL     OW 2593  13.332   5.430  14.468
33585SOL    HW1 2594  13.408   5.375  14.487
33585SOL    HW2 2595  13.335   5.444  14.373
33586SOL     OW 2596   6.931   7.887  14.684
33586SOL    HW1 2597   6.911   7.948  14.755
33586SOL    HW2 2598   6.846   7.867  14.646
33587SOL     OW 2599  10.606  13.367   5.579
33587SOL    HW1 2600  10.536  13.431   5.585
33587SOL    HW2 2601  10.670  13.394   5.645
33588SOL     OW 2602  13.729   5.885   4.118
33588SOL    HW1 2603  13.775   5.937   4.053
33588SOL    HW2 2604  13.722   5.943   4.194
33589SOL     OW 2605   9.799   7.141   3.274
33589SOL    HW1 2606   9.798   7.145   3.369
33589SOL    HW2 2607   9.844   7.222   3.247
33590SOL     OW 2608   8.962  14.128  10.093
33590SOL    HW1 2609   8.965  14.168  10.006
33590SOL    HW2 2610   8.872  14.099  10.104
33591SOL     OW 2611   1.228   7.356   8.931
33591SOL    HW1 2612   1.146   7.392   8.965
33591SOL    HW2 2613   1.267   7.312   9.007
33592SOL     OW 2614  10.567   6.288   2.728
33592SOL    HW1 2615  10.564   6.381   2.754
33592SOL    HW2 2616  10.503   6.282   2.657
33593SOL     OW 2617   5.592   1.365  12.660
33593SOL    HW1 2618   5.530   1.435  12.680
33593SOL    HW2 2619   5.678   1.403  12.677
33594SOL     OW 2620   6.376  14.608   5.411
33594SOL    HW1 2621   6.333  14.691   5.431
33594SOL    HW2 2622   6.418  14.583   5.493
33595SOL     OW 2623   2.605   2.515   6.503
33595SOL    HW1 2624   2.513   2.509   6.477
33595SOL    HW2 2625   2.653   2.466   6.437
33596SOL     OW 2626   2.682  14.501   6.883
33596SOL    HW1 2627   2.611  14.489   6.946
33596SOL    HW2 2628   2.738  14.568   6.921
33597SOL     OW 2629   4.345  14.498   0.864
33597SOL    HW1 2630   4.250  14.512   0.864
33597SOL    HW2 2631   4.356  14.408   0.833
33598SOL     OW 2632  13.856   0.678   9.729
33598SOL    HW1 2633  13.895   0.635   9.805
33598SOL    HW2 2634  13.823   0.761   9.762
33599SOL     OW 2635  11.057  11.712   1.374
33599SOL    HW1 2636  11.096  11.787   1.419
33599SOL    HW2 2637  10.968  11.741   1.353
33600SOL     OW 2638   4.522   1.816   6.261
33600SOL    HW1 2639   4.524   1.752   6.333
33600SOL    HW2 2640   4.431   1.814   6.230
33601SOL     OW 2641   7.878   5.546  13.042
33601SOL    HW1 2642   7.921   5.631  13.057
33601SOL    HW2 2643   7.921   5.511  12.964
33602SOL     OW 2644   5.713   5.932   4.045
33602SOL    HW1 2645   5.635   5.951   3.992
33602SOL    HW2 2646   5.722   6.009   4.102
33603SOL     OW 2647   5.781  10.175   7.530
33603SOL    HW1 2648   5.829  10.177   7.613
33603SOL    HW2 2649   5.824  10.106   7.480
33604SOL     OW 2650  10.171   8.001   6.772
33604SOL    HW1 2651  10.209   7.949   6.843
33604SOL    HW2 2652  10.080   7.971   6.767
33605SOL     OW 2653  12.306  10.590   3.689
33605SOL    HW1 2654  12.290  10.629   3.603
33605SOL    HW2 2655  12.221  10.556   3.716
33606SOL     OW 2656  10.592   1.855  11.263
33606SOL    HW1 2657  10.526   1.924  11.260
33606SOL    HW2 2658  10.567   1.794  11.193
33607SOL     OW 2659   7.018   5.676   8.099
33607SOL    HW1 2660   6.971   5.623   8.163
33607SOL    HW2 2661   7.095   5.624   8.076
33608SOL     OW 2662   3.406  13.568  14.534
33608SOL    HW1 2663   3.402  13.657  14.499
33608SOL    HW2 2664   3.386  13.512  14.459
33609SOL     OW 2665   9.103  12.028   0.262
33609SOL    HW1 2666   9.150  12.106   0.235
33609SOL    HW2 2667   9.129  11.961   0.199
33610SOL     OW 2668   0.235  10.472  12.930
33610SOL    HW1 2669   0.305  10.406  12.922
33610SOL    HW2 2670   0.166  10.427  12.980
33611SOL     OW 2671  13.653   2.195   0.809
33611SOL    HW1 2672  13.744   2.166   0.810
33611SOL    HW2 2673  13.640   2.235   0.895
33612SOL     OW 2674   3.806  14.229   0.989
33612SOL    HW1 2675   3.774  14.154   1.038
33612SOL    HW2 2676   3.895  14.242   1.021
33613SOL     OW 2677  14.104   7.448   2.062
33613SOL    HW1 2678  14.127   7.490   2.145
33613SOL    HW2 2679  14.009   7.437   2.066
33614SOL     OW 2680   5.351   1.872  10.601
33614SOL    HW1 2681   5.295   1.899  10.528
33614SOL    HW2 2682   5.435   1.912  10.582
33615SOL     OW 2683   3.583   6.612   9.012
33615SOL    HW1 2684   3.594   6.529   8.966
33615SOL    HW2 2685   3.503   6.601   9.063
33616SOL     OW 2686   3.297   2.018  13.066
33616SOL    HW1 2687   3.373   1.975  13.105
33616SOL    HW2 2688   3.225   1.998  13.126
33617SOL     OW 2689   0.257   6.446   9.049
33617SOL    HW1 2690   0.344   6.409   9.031
33617SOL    HW2 2691   0.254   6.526   8.996
33618SOL     OW 2692   8.549  12.214   9.280
33618SOL    HW1 2693   8.460  12.231   9.250
33618SOL    HW2 2694   8.584  12.150   9.218
33619SOL     OW 2695  12.972  10.674  10.993
33619SOL    HW1 2696  12.995  10.756  11.036
33619SOL    HW2 2697  13.014  10.606  11.046
33620SOL     OW 2698  11.806   5.482   9.928
33620SOL    HW1 2699  11.898   5.506   9.940
33620SOL    HW2 2700  11.797   5.401   9.977
33621SOL     OW 2701   2.655   9.349   7.738
33621SOL    HW1 2702   2.727   9.376   7.681
33621SOL    HW2 2703   2.628   9.429   7.783
33622SOL     OW 2704   0.646   5.163   0.236
33622SOL    HW1 2705   0.616   5.219   0.307
33622SOL    HW2 2706   0.637   5.074   0.270
33623SOL     OW 2707   4.972   5.046   4.599
33623SOL    HW1 2708   5.011   5.059   4.685
33623SOL    HW2 2709   5.047   5.034   4.540
33624SOL     OW 2710   2.901  10.099   4.560
33624SOL    HW1 2711   2.853  10.180   4.578
33624SOL    HW2 2712   2.836  10.042   4.517
33625SOL     OW 2713   0.984   5.759   9.427
33625SOL    HW1 2714   0.973   5.832   9.366
33625SOL    HW2 2715   0.944   5.684   9.384
33626SOL     OW 2716   8.691  12.633  12.914
33626SOL    HW1 2717   8.763  12.692  12.937
33626SOL    HW2 2718   8.620  12.657  12.974
33627SOL     OW 2719   7.099   8.185   3.744
33627SOL    HW1 2720   7.141   8.237   3.813
33627SOL    HW2 2721   7.069   8.106   3.788
33628SOL     OW 2722   9.465   8.917   8.055
33628SOL    HW1 2723   9.485   8.964   8.135
33628SOL    HW2 2724   9.459   8.825   8.082
33629SOL     OW 2725  11.700  11.357   3.782
33629SOL    HW1 2726  11.737  11.269   3.773
33629SOL    HW2 2727  11.621  11.345   3.834
33630SOL     OW 2728   2.013   5.045   1.939
33630SOL    HW1 2729   2.079   4.977   1.954
33630SOL    HW2 2730   1.938   5.018   1.992
33631SOL     OW 2731  11.350   5.984   3.968
33631SOL    HW1 2732  11.401   6.048   4.017
33631SOL    HW2 2733  11.259   6.004   3.990
33632SOL     OW 2734   0.306   6.760   0.539
33632SOL    HW1 2735   0.247   6.685   0.549
33632SOL    HW2 2736   0.284   6.817   0.613
33633SOL     OW 2737   4.245   7.544  10.439
33633SOL    HW1 2738   4.163   7.590  10.418
33633SOL    HW2 2739   4.229   7.508  10.527
33634SOL     OW 2740   4.058   9.964   2.355
33634SOL    HW1 2741   4.021  10.021   2.423
33634SOL    HW2 2742   3.985   9.906   2.331
33635SOL     OW 2743   3.111   3.283  14.794
33635SOL    HW1 2744   3.084   3.346  14.861
33635SOL    HW2 2745   3.064   3.203  14.816
33636SOL     OW 2746   5.735   9.700   7.916
33636SOL    HW1 2747   5.811   9.656   7.877
33636SOL    HW2 2748   5.719   9.775   7.858
33637SOL     OW 2749  12.727   8.341   6.893
33637SOL    HW1 2750  12.746   8.388   6.812
33637SOL    HW2 2751  12.684   8.260   6.865
33638SOL     OW 2752   7.453   8.759  11.275
33638SOL    HW1 2753   7.414   8.748  11.362
33638SOL    HW2 2754   7.464   8.854  11.266
33639SOL     OW 2755   9.331   1.414  11.364
33639SOL    HW1 2756   9.323   1.509  11.367
33639SOL    HW2 2757   9.250   1.382  11.404
33640SOL     OW 2758   5.174   2.633   9.996
33640SOL    HW1 2759   5.113   2.625   9.924
33640SOL    HW2 2760   5.140   2.706  10.049
33641SOL     OW 2761   5.080   1.987  12.727
33641SOL    HW1 2762   4.992   1.975  12.763
33641SOL    HW2 2763   5.138   1.983  12.803
33642SOL     OW 2764  10.303  14.427   9.588
33642SOL    HW1 2765  10.214  14.427   9.625
33642SOL    HW2 2766  10.355  14.375   9.650
33643SOL     OW 2767  11.090   0.206   9.372
33643SOL    HW1 2768  11.127   0.143   9.310
33643SOL    HW2 2769  11.147   0.282   9.366
33644SOL     OW 2770   9.307   3.852  14.075
33644SOL    HW1 2771   9.333   3.934  14.117
33644SOL    HW2 2772   9.331   3.784  14.138
33645SOL     OW 2773  11.834  13.444  12.795
33645SOL    HW1 2774  11.784  13.525  12.803
33645SOL    HW2 2775  11.793  13.385  12.857
33646SOL     OW 2776   5.365   6.721   3.025
33646SOL    HW1 2777   5.443   6.755   2.982
33646SOL    HW2 2778   5.309   6.692   2.953
33647SOL     OW 2779   2.247   6.567   1.613
33647SOL    HW1 2780   2.324   6.510   1.605
33647SOL    HW2 2781   2.172   6.506   1.608
33648SOL     OW 2782  12.535   2.345   3.874
33648SOL    HW1 2783  12.605   2.301   3.826
33648SOL    HW2 2784  12.548   2.318   3.965
33649SOL     OW 2785   4.865  13.504   8.138
33649SOL    HW1 2786   4.937  13.452   8.172
33649SOL    HW2 2787   4.907  13.571   8.083
33650SOL     OW 2788  11.812  11.837  13.581
33650SOL    HW1 2789  11.815  11.890  13.660
33650SOL    HW2 2790  11.878  11.877  13.523
33651SOL     OW 2791   5.368   7.980   4.203
33651SOL    HW1 2792   5.276   7.961   4.187
33651SOL    HW2 2793   5.382   8.067   4.164
33652SOL     OW 2794   7.645  12.145  12.448
33652SOL    HW1 2795   7.624  12.193  12.528
33652SOL    HW2 2796   7.617  12.204  12.377
33653SOL     OW 2797   8.546  12.221   5.716
33653SOL    HW1 2798   8.486  12.247   5.646
33653SOL    HW2 2799   8.634  12.231   5.678
33654SOL     OW 2800   3.750  13.375  13.142
33654SOL    HW1 2801   3.789  13.411  13.222
33654SOL    HW2 2802   3.674  13.325  13.174
33655SOL     OW 2803   5.024   7.457   7.353
33655SOL    HW1 2804   5.096   7.518   7.368
33655SOL    HW2 2805   5.068   7.374   7.332
33656SOL     OW 2806   0.819   5.621   3.601
33656SOL    HW1 2807   0.825   5.536   3.557
33656SOL    HW2 2808   0.909   5.642   3.626
33657SOL     OW 2809   2.020   8.337  11.408
33657SOL    HW1 2810   2.096   8.279  11.406
33657SOL    HW2 2811   2.036   8.399  11.337
33658SOL     OW 2812   8.287   4.484  12.569
33658SOL    HW1 2813   8.219   4.463  12.633
33658SOL    HW2 2814   8.251   4.558  12.519
33659SOL     OW 2815   3.334   6.349  12.809
33659SOL    HW1 2816   3.380   6.325  12.729
33659SOL    HW2 2817   3.313   6.266  12.851
33660SOL     OW 2818   9.661  10.991   3.487
33660SOL    HW1 2819   9.751  10.960   3.486
33660SOL    HW2 2820   9.619  10.947   3.414
33661SOL     OW 2821  12.612   2.185  13.522
33661SOL    HW1 2822  12.576   2.109  13.477
33661SOL    HW2 2823  12.579   2.178  13.612
33662SOL     OW 2824   2.607   1.828   1.262
33662SOL    HW1 2825   2.574   1.862   1.179
33662SOL    HW2 2826   2.550   1.867   1.329
33663SOL     OW 2827  12.303   0.815  14.438
33663SOL    HW1 2828  12.257   0.861  14.508
33663SOL    HW2 2829  12.323   0.883  14.374
33664SOL     OW 2830   9.522   8.153   7.395
33664SOL    HW1 2831   9.432   8.124   7.409
33664SOL    HW2 2832   9.549   8.108   7.315
33665SOL     OW 2833  11.128  14.276  13.466
33665SOL    HW1 2834  11.052  14.311  13.514
33665SOL    HW2 2835  11.091  14.241  13.385
33666SOL     OW 2836  10.556   6.075   1.409
33666SOL    HW1 2837  10.583   6.162   1.379
33666SOL    HW2 2838  10.637   6.027   1.422
33667SOL     OW 2839   8.278   8.241   0.988
33667SOL    HW1 2840   8.236   8.164   1.026
33667SOL    HW2 2841   8.272   8.227   0.893
33668SOL     OW 2842   9.973  10.781  13.117
33668SOL    HW1 2843   9.886  10.800  13.152
33668SOL    HW2 2844  10.027  10.855  13.146
33669SOL     OW 2845   1.295   1.146  14.402
33669SOL    HW1 2846   1.366   1.201  14.369
33669SOL    HW2 2847   1.217   1.178  14.357
33670SOL     OW 2848   0.651   1.886   8.645
33670SOL    HW1 2849   0.685   1.975   8.640
33670SOL    HW2 2850   0.708   1.842   8.707
33671SOL     OW 2851  14.486   7.510   7.238
33671SOL    HW1 2852  14.484   7.583   7.177
33671SOL    HW2 2853  14.561   7.527   7.294
33672SOL     OW 2854   9.096   9.601   9.485
33672SOL    HW1 2855   9.024   9.624   9.426
33672SOL    HW2 2856   9.170   9.581   9.427
33673SOL     OW 2857  13.618   9.330   5.597
33673SOL    HW1 2858  13.603   9.424   5.608
33673SOL    HW2 2859  13.548   9.288   5.647
33674SOL     OW 2860   7.899  12.983   1.267
33674SOL    HW1 2861   7.965  12.922   1.299
33674SOL    HW2 2862   7.927  13.003   1.177
33675SOL     OW 2863  11.962   8.403  14.080
33675SOL    HW1 2864  12.006   8.410  14.164
33675SOL    HW2 2865  11.872   8.379  14.102
33676SOL     OW 2866   6.263   0.554  14.827
33676SOL    HW1 2867   6.287   0.468  14.792
33676SOL    HW2 2868   6.337   0.610  14.806
33677SOL     OW 2869   5.522  13.029   4.978
33677SOL    HW1 2870   5.432  13.057   4.995
33677SOL    HW2 2871   5.522  13.002   4.886
33678SOL     OW 2872   9.946   2.965  13.516
33678SOL    HW1 2873   9.965   3.028  13.585
33678SOL    HW2 2874   9.900   3.016  13.449
33679SOL     OW 2875   5.504   8.572   8.266
33679SOL    HW1 2876   5.421   8.566   8.218
33679SOL    HW2 2877   5.555   8.635   8.217
33680SOL     OW 2878   1.776   2.659   1.545
33680SOL    HW1 2879   1.703   2.597   1.553
33680SOL    HW2 2880   1.845   2.610   1.501
33681SOL     OW 2881  11.504   1.300   9.645
33681SOL    HW1 2882  11.565   1.356   9.598
33681SOL    HW2 2883  11.420   1.344   9.638
33682SOL     OW 2884  13.987  11.841   5.170
33682SOL    HW1 2885  13.938  11.784   5.229
33682SOL    HW2 2886  13.938  11.924   5.171
33683SOL     OW 2887  10.677   5.767   9.095
33683SOL    HW1 2888  10.707   5.678   9.114
33683SOL    HW2 2889  10.742   5.802   9.035
33684SOL     OW 2890  11.908   5.845  10.636
33684SOL    HW1 2891  11.849   5.787  10.589
33684SOL    HW2 2892  11.896   5.931  10.595
33685SOL     OW 2893   8.513   4.127  14.361
33685SOL    HW1 2894   8.448   4.106  14.428
33685SOL    HW2 2895   8.535   4.042  14.323
33686SOL     OW 2896  10.743   9.813  12.526
33686SOL    HW1 2897  10.678   9.792  12.459
33686SOL    HW2 2898  10.720   9.755  12.599
33687SOL     OW 2899  13.288   0.306  12.167
33687SOL    HW1 2900  13.247   0.333  12.085
33687SOL    HW2 2901  13.334   0.225  12.146
33688SOL     OW 2902   1.648  14.862   2.268
33688SOL    HW1 2903   1.573  14.822   2.311
33688SOL    HW2 2904   1.707   0.012   2.339
33689SOL     OW 2905   5.306   7.732  12.219
33689SOL    HW1 2906   5.305   7.792  12.294
33689SOL    HW2 2907   5.392   7.689  12.224
33690SOL     OW 2908  10.455   2.937  14.436
33690SOL    HW1 2909  10.539   2.924  14.392
33690SOL    HW2 2910  10.389   2.915  14.371
33691SOL     OW 2911  12.602   2.522   9.766
33691SOL    HW1 2912  12.610   2.596   9.706
33691SOL    HW2 2913  12.565   2.451   9.713
33692SOL     OW 2914  14.165   0.090   1.163
33692SOL    HW1 2915  14.252   0.050   1.162
33692SOL    HW2 2916  14.106   0.019   1.137
33693SOL     OW 2917   5.899   3.389   4.183
33693SOL    HW1 2918   5.972   3.378   4.123
33693SOL    HW2 2919   5.840   3.451   4.138
33694SOL     OW 2920   2.732   1.843  12.608
33694SOL    HW1 2921   2.666   1.807  12.667
33694SOL    HW2 2922   2.815   1.818  12.647
33695SOL     OW 2923   5.905   1.012  10.411
33695SOL    HW1 2924   5.966   1.013  10.485
33695SOL    HW2 2925   5.890   0.920  10.393
33696SOL     OW 2926   0.842   0.890   4.750
33696SOL    HW1 2927   0.905   0.896   4.822
33696SOL    HW2 2928   0.821   0.981   4.729
33697SOL     OW 2929   6.976   9.117  10.271
33697SOL    HW1 2930   6.914   9.119  10.344
33697SOL    HW2 2931   6.954   9.038  10.222
33698SOL     OW 2932   4.696   4.484   2.090
33698SOL    HW1 2933   4.685   4.413   2.153
33698SOL    HW2 2934   4.790   4.502   2.090
33699SOL     OW 2935   8.765   8.953   1.153
33699SOL    HW1 2936   8.768   8.903   1.072
33699SOL    HW2 2937   8.708   9.028   1.134
33700SOL     OW 2938  11.466   5.474  12.501
33700SOL    HW1 2939  11.519   5.433  12.570
33700SOL    HW2 2940  11.405   5.530  12.548
33701SOL     OW 2941  13.319  14.592   4.715
33701SOL    HW1 2942  13.351  14.509   4.680
33701SOL    HW2 2943  13.224  14.590   4.697
33702SOL     OW 2944   6.585   7.130   7.390
33702SOL    HW1 2945   6.611   7.038   7.401
33702SOL    HW2 2946   6.491   7.130   7.406
33703SOL     OW 2947  10.125  13.336   5.854
33703SOL    HW1 2948  10.219  13.351   5.865
33703SOL    HW2 2949  10.085  13.375   5.932
33704SOL     OW 2950  13.909   6.771  10.749
33704SOL    HW1 2951  13.919   6.692  10.802
33704SOL    HW2 2952  13.825   6.808  10.777
33705SOL     OW 2953   0.717   0.501   0.050
33705SOL    HW1 2954   0.654   0.450  14.872
33705SOL    HW2 2955   0.663   0.552   0.110
33706SOL     OW 2956   1.140   4.687   2.728
33706SOL    HW1 2957   1.115   4.780   2.723
33706SOL    HW2 2958   1.073   4.647   2.783
33707SOL     OW 2959   0.762  13.645  14.048
33707SOL    HW1 2960   0.829  13.580  14.072
33707SOL    HW2 2961   0.707  13.600  13.985
33708SOL     OW 2962   7.126  13.337  10.661
33708SOL    HW1 2963   7.133  13.361  10.568
33708SOL    HW2 2964   7.195  13.272  10.673
33709SOL     OW 2965   3.813  12.687  12.877
33709SOL    HW1 2966   3.753  12.613  12.891
33709SOL    HW2 2967   3.812  12.702  12.783
33710SOL     OW 2968   2.050   5.280   3.163
33710SOL    HW1 2969   2.072   5.274   3.256
33710SOL    HW2 2970   1.983   5.348   3.158
33711SOL     OW 2971   6.426   1.634   3.654
33711SOL    HW1 2972   6.396   1.675   3.736
33711SOL    HW2 2973   6.521   1.627   3.665
33712SOL     OW 2974  13.946   2.897   9.687
33712SOL    HW1 2975  13.968   2.990   9.687
33712SOL    HW2 2976  13.949   2.871   9.595
33713SOL     OW 2977   9.137   8.210  14.441
33713SOL    HW1 2978   9.211   8.206  14.381
33713SOL    HW2 2979   9.087   8.286  14.413
33714SOL     OW 2980   0.281  13.112  12.280
33714SOL    HW1 2981   0.375  13.113  12.296
33714SOL    HW2 2982   0.243  13.145  12.362
33715SOL     OW 2983   1.679  13.331  10.385
33715SOL    HW1 2984   1.627  13.396  10.337
33715SOL    HW2 2985   1.769  13.346  10.357
33716SOL     OW 2986  11.173   2.075   9.901
33716SOL    HW1 2987  11.177   2.151   9.959
33716SOL    HW2 2988  11.113   2.015   9.946
33717SOL     OW 2989  14.813   2.277   4.470
33717SOL    HW1 2990  14.737   2.260   4.414
33717SOL    HW2 2991  14.867   2.198   4.462
33718SOL     OW 2992  12.103  12.925   7.314
33718SOL    HW1 2993  12.034  12.862   7.293
33718SOL    HW2 2994  12.184  12.874   7.312
33719SOL     OW 2995  11.101   4.946  11.647
33719SOL    HW1 2996  11.060   4.958  11.561
33719SOL    HW2 2997  11.140   5.031  11.667
33720SOL     OW 2998   6.283   3.778   2.320
33720SOL    HW1 2999   6.227   3.759   2.245
33720SOL    HW2 3000   6.370   3.749   2.292
33721SOL     OW 3001   0.754   9.873  10.558
33721SOL    HW1 3002   0.669   9.847  10.594
33721SOL    HW2 3003   0.774   9.806  10.493
33722SOL     OW 3004  13.013   0.130  14.768
33722SOL    HW1 3005  13.042   0.042  14.789
33722SOL    HW2 3006  13.091   0.174  14.732
33723SOL     OW 3007   7.941   3.630   4.233
33723SOL    HW1 3008   7.953   3.668   4.320
33723SOL    HW2 3009   7.853   3.593   4.236
33724SOL     OW 3010   3.150  13.864  10.727
33724SOL    HW1 3011   3.170  13.773  10.748
33724SOL    HW2 3012   3.154  13.910  10.811
33725SOL     OW 3013  11.947   5.989   2.539
33725SOL    HW1 3014  12.003   6.027   2.607
33725SOL    HW2 3015  11.885   6.059   2.516
33726SOL     OW 3016   1.149   6.489   3.833
33726SOL    HW1 3017   1.075   6.549   3.843
33726SOL    HW2 3018   1.222   6.545   3.807
33727SOL     OW 3019  14.037   9.467   5.398
33727SOL    HW1 3020  14.078   9.501   5.479
33727SOL    HW2 3021  14.098   9.400   5.367
33728SOL     OW 3022   1.828  12.784  11.735
33728SOL    HW1 3023   1.864  12.751  11.653
33728SOL    HW2 3024   1.823  12.707  11.791
33729SOL     OW 3025  11.618   2.352   5.940
33729SOL    HW1 3026  11.574   2.321   6.019
33729SOL    HW2 3027  11.709   2.362   5.966
33730SOL     OW 3028   2.370   6.802  12.014
33730SOL    HW1 3029   2.428   6.830  12.084
33730SOL    HW2 3030   2.427   6.786  11.940
33731SOL     OW 3031   5.449  14.727  13.891
33731SOL    HW1 3032   5.531  14.740  13.939
33731SOL    HW2 3033   5.423  14.637  13.913
33732SOL     OW 3034   7.696   0.487  13.914
33732SOL    HW1 3035   7.631   0.447  13.971
33732SOL    HW2 3036   7.748   0.413  13.882
33733SOL     OW 3037   5.766  10.134   0.119
33733SOL    HW1 3038   5.750  10.167   0.207
33733SOL    HW2 3039   5.785  10.041   0.131
33734SOL     OW 3040  10.246   5.508  13.063
33734SOL    HW1 3041  10.156   5.535  13.048
33734SOL    HW2 3042  10.292   5.531  12.982
33735SOL     OW 3043  10.792   6.383   6.350
33735SOL    HW1 3044  10.814   6.301   6.305
33735SOL    HW2 3045  10.735   6.357   6.422
33736SOL     OW 3046   3.057  11.232   3.659
33736SOL    HW1 3047   2.991  11.198   3.720
33736SOL    HW2 3048   3.023  11.208   3.573
33737SOL     OW 3049   6.975   1.537   1.839
33737SOL    HW1 3050   7.055   1.539   1.891
33737SOL    HW2 3051   6.918   1.602   1.880
33738SOL     OW 3052  13.216  12.699   2.314
33738SOL    HW1 3053  13.224  12.662   2.402
33738SOL    HW2 3054  13.196  12.624   2.258
33739SOL     OW 3055   1.667  11.794  12.141
33739SOL    HW1 3056   1.631  11.786  12.053
33739SOL    HW2 3057   1.762  11.784  12.130
33740SOL     OW 3058   1.091  14.153   1.441
33740SOL    HW1 3059   1.178  14.166   1.404
33740SOL    HW2 3060   1.072  14.061   1.426
33741SOL     OW 3061   0.265   6.996   4.226
33741SOL    HW1 3062   0.342   6.949   4.257
33741SOL    HW2 3063   0.233   7.044   4.302
33742SOL     OW 3064   8.199   5.887   3.198
33742SOL    HW1 3065   8.203   5.803   3.152
33742SOL    HW2 3066   8.280   5.891   3.249
33743SOL     OW 3067   2.233   4.399   0.807
33743SOL    HW1 3068   2.308   4.454   0.832
33743SOL    HW2 3069   2.158   4.440   0.849
33744SOL     OW 3070  13.761  11.780   3.066
33744SOL    HW1 3071  13.779  11.726   2.990
33744SOL    HW2 3072  13.847  11.803   3.101
33745SOL     OW 3073  14.073   0.344   0.213
33745SOL    HW1 3074  14.088   0.371   0.122
33745SOL    HW2 3075  14.110   0.256   0.218
33746SOL     OW 3076   5.897   5.728  11.261
33746SOL    HW1 3077   5.924   5.777  11.184
33746SOL    HW2 3078   5.892   5.793  11.331
33747SOL     OW 3079  12.446   7.638   5.107
33747SOL    HW1 3080  12.485   7.586   5.177
33747SOL    HW2 3081  12.369   7.678   5.146
33748SOL     OW 3082   2.766   4.824   7.408
33748SOL    HW1 3083   2.763   4.901   7.465
33748SOL    HW2 3084   2.691   4.772   7.434
33749SOL     OW 3085  12.248   5.364   2.539
33749SOL    HW1 3086  12.223   5.289   2.484
33749SOL    HW2 3087  12.322   5.403   2.493
33750SOL     OW 3088   3.330   3.532  12.029
33750SOL    HW1 3089   3.286   3.612  12.059
33750SOL    HW2 3090   3.367   3.555  11.944
33751SOL     OW 3091  14.194   5.747   2.846
33751SOL    HW1 3092  14.196   5.678   2.780
33751SOL    HW2 3093  14.161   5.705   2.925
33752SOL     OW 3094   4.386   4.624   8.181
33752SOL    HW1 3095   4.387   4.534   8.149
33752SOL    HW2 3096   4.298   4.656   8.163
33753SOL     OW 3097   2.863   2.296   5.129
33753SOL    HW1 3098   2.944   2.294   5.179
33753SOL    HW2 3099   2.840   2.204   5.116
33754SOL     OW 3100  12.405   3.078   0.497
33754SOL    HW1 3101  12.372   3.149   0.442
33754SOL    HW2 3102  12.331   3.055   0.553
33755SOL     OW 3103   8.655   0.479  12.090
33755SOL    HW1 3104   8.686   0.448  12.176
33755SOL    HW2 3105   8.622   0.400  12.047
33756SOL     OW 3106   7.312   0.634   7.946
33756SOL    HW1 3107   7.388   0.583   7.919
33756SOL    HW2 3108   7.241   0.601   7.891
33757SOL     OW 3109   7.739   0.333  11.762
33757SOL    HW1 3110   7.756   0.319  11.855
33757SOL    HW2 3111   7.742   0.246  11.723
33758SOL     OW 3112   5.242   3.717  13.096
33758SOL    HW1 3113   5.216   3.781  13.029
33758SOL    HW2 3114   5.317   3.758  13.139
33759SOL     OW 3115  10.702   1.236   5.528
33759SOL    HW1 3116  10.607   1.232   5.524
33759SOL    HW2 3117  10.723   1.234   5.622
33760SOL     OW 3118   8.866   9.442   3.132
33760SOL    HW1 3119   8.830   9.402   3.211
33760SOL    HW2 3120   8.792   9.447   3.071
33761SOL     OW 3121   3.963  11.821  13.171
33761SOL    HW1 3122   4.034  11.823  13.108
33761SOL    HW2 3123   4.001  11.858  13.251
33762SOL     OW 3124   1.084  11.190   8.419
33762SOL    HW1 3125   1.013  11.237   8.463
33762SOL    HW2 3126   1.157  11.252   8.419
33763SOL     OW 3127   0.924  10.039   6.798
33763SOL    HW1 3128   0.957   9.954   6.826
33763SOL    HW2 3129   0.892  10.080   6.878
33764SOL     OW 3130  12.438   6.448   3.753
33764SOL    HW1 3131  12.423   6.425   3.661
33764SOL    HW2 3132  12.522   6.494   3.753
33765SOL     OW 3133  14.463  14.740   8.219
33765SOL    HW1 3134  14.503  14.819   8.255
33765SOL    HW2 3135  14.513  14.668   8.257
33766SOL     OW 3136   7.883   6.667   2.335
33766SOL    HW1 3137   7.855   6.693   2.423
33766SOL    HW2 3138   7.819   6.706   2.276
33767SOL     OW 3139   1.907   4.876   6.673
33767SOL    HW1 3140   1.928   4.789   6.707
33767SOL    HW2 3141   1.991   4.923   6.675
33768SOL     OW 3142  14.061   2.007   2.179
33768SOL    HW1 3143  14.081   2.096   2.205
33768SOL    HW2 3144  14.115   1.991   2.101
33769SOL     OW 3145   7.664   8.055   6.834
33769SOL    HW1 3146   7.742   8.102   6.863
33769SOL    HW2 3147   7.677   8.043   6.740
33770SOL     OW 3148  11.929   3.606   4.504
33770SOL    HW1 3149  11.858   3.550   4.536
33770SOL    HW2 3150  12.008   3.568   4.540
33771SOL     OW 3151   6.257   7.196  14.344
33771SOL    HW1 3152   6.273   7.104  14.322
33771SOL    HW2 3153   6.217   7.194  14.431
33772SOL     OW 3154   7.071  13.943   0.564
33772SOL    HW1 3155   7.093  13.884   0.636
33772SOL    HW2 3156   7.147  14.002   0.558
33773SOL     OW 3157  12.992  14.694   2.228
33773SOL    HW1 3158  12.950  14.614   2.198
33773SOL    HW2 3159  13.085  14.672   2.233
33774SOL     OW 3160   0.630   8.231   7.618
33774SOL    HW1 3161   0.723   8.209   7.627
33774SOL    HW2 3162   0.587   8.147   7.606
33775SOL     OW 3163   0.549   6.677   8.551
33775SOL    HW1 3164   0.621   6.697   8.491
33775SOL    HW2 3165   0.559   6.737   8.624
33776SOL     OW 3166   0.895   8.407   2.114
33776SOL    HW1 3167   0.867   8.419   2.023
33776SOL    HW2 3168   0.821   8.363   2.156
33777SOL     OW 3169   9.258   4.940  13.444
33777SOL    HW1 3170   9.279   5.031  13.426
33777SOL    HW2 3171   9.342   4.898  13.460
33778SOL     OW 3172   0.083   5.642  13.156
33778SOL    HW1 3173   0.170   5.606  13.171
33778SOL    HW2 3174   0.045   5.586  13.089
33779SOL     OW 3175   9.358   0.878   5.384
33779SOL    HW1 3176   9.268   0.872   5.416
33779SOL    HW2 3177   9.386   0.787   5.376
33780SOL     OW 3178   8.391   7.159   7.387
33780SOL    HW1 3179   8.298   7.157   7.364
33780SOL    HW2 3180   8.436   7.117   7.313
33781SOL     OW 3181  10.275   9.868   3.596
33781SOL    HW1 3182  10.197   9.915   3.627
33781SOL    HW2 3183  10.260   9.855   3.502
33782SOL     OW 3184  12.156  10.991  14.345
33782SOL    HW1 3185  12.088  10.987  14.413
33782SOL    HW2 3186  12.112  10.962  14.266
33783SOL     OW 3187  12.026   0.742   7.292
33783SOL    HW1 3188  12.035   0.743   7.388
33783SOL    HW2 3189  11.974   0.664   7.273
33784SOL     OW 3190   1.230  11.194  12.314
33784SOL    HW1 3191   1.155  11.214  12.370
33784SOL    HW2 3192   1.267  11.114  12.352
33785SOL     OW 3193   9.046   7.791   7.245
33785SOL    HW1 3194   8.963   7.748   7.268
33785SOL    HW2 3195   9.113   7.725   7.264
33786SOL     OW 3196   8.228   8.743   1.923
33786SOL    HW1 3197   8.299   8.692   1.883
33786SOL    HW2 3198   8.150   8.717   1.875
33787SOL     OW 3199   7.563   2.879   5.865
33787SOL    HW1 3200   7.552   2.824   5.788
33787SOL    HW2 3201   7.531   2.826   5.938
33788SOL     OW 3202  13.644   5.629  12.117
33788SOL    HW1 3203  13.706   5.701  12.129
33788SOL    HW2 3204  13.696   5.559  12.078
33789SOL     OW 3205  12.853   6.751  13.907
33789SOL    HW1 3206  12.889   6.756  13.996
33789SOL    HW2 3207  12.780   6.812  13.907
33790SOL     OW 3208   6.657   3.847  11.835
33790SOL    HW1 3209   6.585   3.907  11.854
33790SOL    HW2 3210   6.736   3.894  11.863
33791SOL     OW 3211   5.691  10.328   5.385
33791SOL    HW1 3212   5.693  10.250   5.331
33791SOL    HW2 3213   5.607  10.369   5.364
33792SOL     OW 3214   4.666   9.337   4.452
33792SOL    HW1 3215   4.619   9.255   4.435
33792SOL    HW2 3216   4.698   9.329   4.541
33793SOL     OW 3217  14.019   4.381   4.657
33793SOL    HW1 3218  14.098   4.371   4.604
33793SOL    HW2 3219  13.950   4.340   4.604
33794SOL     OW 3220  12.496   7.381   1.352
33794SOL    HW1 3221  12.455   7.357   1.269
33794SOL    HW2 3222  12.440   7.341   1.418
33795SOL     OW 3223  10.071  13.304  12.188
33795SOL    HW1 3224  10.084  13.352  12.270
33795SOL    HW2 3225  10.143  13.241  12.186
33796SOL     OW 3226  11.531  10.311   7.876
33796SOL    HW1 3227  11.472  10.250   7.833
33796SOL    HW2 3228  11.619  10.279   7.853
33797SOL     OW 3229   2.223  12.087   7.203
33797SOL    HW1 3230   2.310  12.048   7.204
33797SOL    HW2 3231   2.179  12.050   7.280
33798SOL     OW 3232  14.088   9.336   9.727
33798SOL    HW1 3233  14.093   9.271   9.657
33798SOL    HW2 3234  14.129   9.414   9.690
33799SOL     OW 3235  13.450  11.078   5.193
33799SOL    HW1 3236  13.435  11.030   5.112
33799SOL    HW2 3237  13.363  11.106   5.222
33800SOL     OW 3238  12.739  14.074   8.525
33800SOL    HW1 3239  12.690  14.155   8.514
33800SOL    HW2 3240  12.759  14.070   8.619
33801SOL     OW 3241  14.733  10.531  12.942
33801SOL    HW1 3242  14.645  10.512  12.911
33801SOL    HW2 3243  14.780  10.561  12.863
33802SOL     OW 3244   0.045   7.305   6.359
33802SOL    HW1 3245   0.024   7.343   6.444
33802SOL    HW2 3246   0.006   7.365   6.295
33803SOL     OW 3247   7.841   8.590   5.947
33803SOL    HW1 3248   7.934   8.574   5.960
33803SOL    HW2 3249   7.806   8.601   6.035
33804SOL     OW 3250   1.787   1.668  10.097
33804SOL    HW1 3251   1.812   1.727  10.168
33804SOL    HW2 3252   1.865   1.662  10.042
33805SOL     OW 3253   5.276   8.956  14.799
33805SOL    HW1 3254   5.184   8.931  14.795
33805SOL    HW2 3255   5.299   8.977  14.708
33806SOL     OW 3256   3.042   6.486   7.075
33806SOL    HW1 3257   2.957   6.483   7.031
33806SOL    HW2 3258   3.058   6.579   7.089
33807SOL     OW 3259   0.168   6.883  13.160
33807SOL    HW1 3260   0.210   6.879  13.074
33807SOL    HW2 3261   0.108   6.808  13.160
33808SOL     OW 3262   9.406   9.643  13.985
33808SOL    HW1 3263   9.495   9.619  14.012
33808SOL    HW2 3264   9.362   9.559  13.971
33809SOL     OW 3265  14.618   6.832   1.441
33809SOL    HW1 3266  14.680   6.902   1.420
33809SOL    HW2 3267  14.673   6.754   1.450
33810SOL     OW 3268  14.840   1.288   5.973
33810SOL    HW1 3269  14.751   1.255   5.959
33810SOL    HW2 3270   0.022   1.226   5.926
33811SOL     OW 3271   1.374   9.714  13.928
33811SOL    HW1 3272   1.429   9.787  13.955
33811SOL    HW2 3273   1.365   9.660  14.007
33812SOL     OW 3274  14.091  10.095   5.383
33812SOL    HW1 3275  14.030  10.038   5.335
33812SOL    HW2 3276  14.134  10.036   5.445
33813SOL     OW 3277  12.606   0.243   3.108
33813SOL    HW1 3278  12.526   0.295   3.102
33813SOL    HW2 3279  12.676   0.307   3.117
33814SOL     OW 3280   8.177   8.689   2.475
33814SOL    HW1 3281   8.090   8.686   2.514
33814SOL    HW2 3282   8.233   8.643   2.538
33815SOL     OW 3283   3.913   3.214   9.834
33815SOL    HW1 3284   3.869   3.164   9.903
33815SOL    HW2 3285   3.848   3.278   9.805
33816SOL     OW 3286   8.610   4.028   5.764
33816SOL    HW1 3287   8.664   3.949   5.771
33816SOL    HW2 3288   8.581   4.030   5.673
33817SOL     OW 3289   2.229   8.206  11.232
33817SOL    HW1 3290   2.237   8.160  11.315
33817SOL    HW2 3291   2.250   8.141  11.166
33818SOL     OW 3292   4.083   2.366   9.344
33818SOL    HW1 3293   4.083   2.286   9.293
33818SOL    HW2 3294   3.992   2.396   9.343
33819SOL     OW 3295  13.487   1.712   9.453
33819SOL    HW1 3296  13.442   1.628   9.446
33819SOL    HW2 3297  13.483   1.733   9.546
33820SOL     OW 3298  12.963  10.923   5.293
33820SOL    HW1 3299  12.955  10.836   5.331
33820SOL    HW2 3300  13.017  10.911   5.215
33821SOL     OW 3301  10.072   0.157   8.348
33821SOL    HW1 3302   9.982   0.189   8.341
33821SOL    HW2 3303  10.124   0.220   8.298
33822SOL     OW 3304   2.742  12.988  13.438
33822SOL    HW1 3305   2.766  12.960  13.527
33822SOL    HW2 3306   2.763  12.913  13.383
33823SOL     OW 3307  14.286   0.766   8.006
33823SOL    HW1 3308  14.284   0.861   8.020
33823SOL    HW2 3309  14.235   0.753   7.926
33824SOL     OW 3310  14.786   2.768   5.257
33824SOL    HW1 3311  14.819   2.853   5.227
33824SOL    HW2 3312  14.747   2.728   5.179
33825SOL     OW 3313   8.123   3.891   4.967
33825SOL    HW1 3314   8.051   3.940   4.927
33825SOL    HW2 3315   8.088   3.804   4.982
33826SOL     OW 3316   2.989   6.262  11.605
33826SOL    HW1 3317   2.938   6.286  11.527
33826SOL    HW2 3318   2.929   6.212  11.659
33827SOL     OW 3319  10.720   4.493  12.153
33827SOL    HW1 3320  10.808   4.460  12.134
33827SOL    HW2 3321  10.722   4.584  12.124
33828SOL     OW 3322   1.874   9.113   3.489
33828SOL    HW1 3323   1.910   9.113   3.400
33828SOL    HW2 3324   1.829   9.029   3.497
33829SOL     OW 3325   9.422  10.930   2.073
33829SOL    HW1 3326   9.499  10.940   2.128
33829SOL    HW2 3327   9.423  11.007   2.016
33830SOL     OW 3328   1.446   2.620  10.098
33830SOL    HW1 3329   1.506   2.651  10.030
33830SOL    HW2 3330   1.420   2.532  10.070
33831SOL     OW 3331   8.425   4.813  14.240
33831SOL    HW1 3332   8.425   4.724  14.275
33831SOL    HW2 3333   8.518   4.834  14.228
33832SOL     OW 3334   6.726   0.954   5.386
33832SOL    HW1 3335   6.777   0.929   5.309
33832SOL    HW2 3336   6.773   1.029   5.422
33833SOL     OW 3337  13.063   5.690  12.387
33833SOL    HW1 3338  13.055   5.678  12.482
33833SOL    HW2 3339  12.979   5.659  12.352
33834SOL     OW 3340   9.657  11.496   9.209
33834SOL    HW1 3341   9.647  11.476   9.302
33834SOL    HW2 3342   9.750  11.516   9.197
33835SOL     OW 3343   7.452   4.400  11.614
33835SOL    HW1 3344   7.449   4.397  11.709
33835SOL    HW2 3345   7.451   4.494  11.593
33836SOL     OW 3346   1.103   8.577   6.548
33836SOL    HW1 3347   1.034   8.556   6.485
33836SOL    HW2 3348   1.157   8.641   6.503
33837SOL     OW 3349  12.980   0.420   4.646
33837SOL    HW1 3350  12.976   0.513   4.668
33837SOL    HW2 3351  13.012   0.377   4.725
33838SOL     OW 3352   5.485   7.770   5.706
33838SOL    HW1 3353   5.561   7.827   5.701
33838SOL    HW2 3354   5.419   7.813   5.651
33839SOL     OW 3355   5.418   7.550   2.728
33839SOL    HW1 3356   5.358   7.624   2.735
33839SOL    HW2 3357   5.420   7.513   2.816
33840SOL     OW 3358   4.678   9.968   3.857
33840SOL    HW1 3359   4.683  10.051   3.904
33840SOL    HW2 3360   4.616   9.915   3.908
33841SOL     OW 3361   9.520   2.017   8.330
33841SOL    HW1 3362   9.496   2.058   8.247
33841SOL    HW2 3363   9.563   2.087   8.379
33842SOL     OW 3364   5.284  11.629   2.753
33842SOL    HW1 3365   5.268  11.712   2.798
33842SOL    HW2 3366   5.361  11.592   2.795
33843SOL     OW 3367  11.419   6.991  14.642
33843SOL    HW1 3368  11.508   6.965  14.668
33843SOL    HW2 3369  11.369   6.988  14.723
33844SOL     OW 3370   3.157   7.062   4.717
33844SOL    HW1 3371   3.153   6.967   4.710
33844SOL    HW2 3372   3.210   7.089   4.641
33845SOL     OW 3373   3.664   0.632   6.264
33845SOL    HW1 3374   3.569   0.635   6.267
33845SOL    HW2 3375   3.693   0.667   6.348
33846SOL     OW 3376   7.056   3.603  14.471
33846SOL    HW1 3377   7.127   3.610  14.407
33846SOL    HW2 3378   6.978   3.631  14.424
33847SOL     OW 3379  11.989  12.711   9.951
33847SOL    HW1 3380  11.935  12.779   9.991
33847SOL    HW2 3381  11.926  12.646   9.920
33848SOL     OW 3382   6.142  11.904   7.620
33848SOL    HW1 3383   6.052  11.888   7.649
33848SOL    HW2 3384   6.138  11.899   7.525
33849SOL     OW 3385  14.865   9.001   1.135
33849SOL    HW1 3386   0.073   9.027   1.091
33849SOL    HW2 3387  14.834   8.926   1.085
33850SOL     OW 3388   4.400   8.619   4.217
33850SOL    HW1 3389   4.476   8.655   4.262
33850SOL    HW2 3390   4.402   8.526   4.238
33851SOL     OW 3391   7.687   3.596  11.131
33851SOL    HW1 3392   7.607   3.582  11.181
33851SOL    HW2 3393   7.664   3.569  11.042
33852SOL     OW 3394  12.520   5.813   3.822
33852SOL    HW1 3395  12.460   5.877   3.860
33852SOL    HW2 3396  12.565   5.774   3.896
33853SOL     OW 3397   4.221   0.598   8.454
33853SOL    HW1 3398   4.257   0.594   8.365
33853SOL    HW2 3399   4.239   0.687   8.483
33854SOL     OW 3400   3.917   7.861   2.411
33854SOL    HW1 3401   3.957   7.944   2.438
33854SOL    HW2 3402   3.991   7.804   2.391
33855SOL     OW 3403   3.365  14.702  14.864
33855SOL    HW1 3404   3.331  14.791  14.869
33855SOL    HW2 3405   3.340  14.672  14.776
33856SOL     OW 3406   0.196   5.322   7.105
33856SOL    HW1 3407   0.236   5.382   7.168
33856SOL    HW2 3408   0.106   5.312   7.135
33857SOL     OW 3409   7.908   4.460   3.389
33857SOL    HW1 3410   7.846   4.497   3.452
33857SOL    HW2 3411   7.994   4.490   3.420
33858SOL     OW 3412  12.448   5.577   7.166
33858SOL    HW1 3413  12.481   5.637   7.099
33858SOL    HW2 3414  12.516   5.509   7.173
33859SOL     OW 3415  10.852   8.297  10.098
33859SOL    HW1 3416  10.886   8.292  10.188
33859SOL    HW2 3417  10.861   8.390  10.075
33860SOL     OW 3418  10.207   7.173   6.829
33860SOL    HW1 3419  10.298   7.172   6.798
33860SOL    HW2 3420  10.210   7.226   6.909
33861SOL     OW 3421   9.201   8.928   4.294
33861SOL    HW1 3422   9.183   8.998   4.357
33861SOL    HW2 3423   9.220   8.973   4.212
33862SOL     OW 3424   6.057  11.305   6.899
33862SOL    HW1 3425   6.152  11.312   6.912
33862SOL    HW2 3426   6.027  11.246   6.968
33863SOL     OW 3427   5.994   0.432   7.845
33863SOL    HW1 3428   6.006   0.525   7.826
33863SOL    HW2 3429   5.992   0.427   7.940
33864SOL     OW 3430   5.263   3.945   7.894
33864SOL    HW1 3431   5.314   4.017   7.931
33864SOL    HW2 3432   5.243   3.890   7.969
33865SOL     OW 3433   4.839   0.391   0.990
33865SOL    HW1 3434   4.897   0.459   1.024
33865SOL    HW2 3435   4.791   0.360   1.066
33866SOL     OW 3436   9.993   8.746   0.783
33866SOL    HW1 3437  10.008   8.653   0.796
33866SOL    HW2 3438   9.941   8.774   0.858
33867SOL     OW 3439   8.165   4.759   5.298
33867SOL    HW1 3440   8.116   4.734   5.220
33867SOL    HW2 3441   8.133   4.702   5.367
33868SOL     OW 3442  14.568   2.108   8.016
33868SOL    HW1 3443  14.603   2.176   7.958
33868SOL    HW2 3444  14.478   2.135   8.033
33869SOL     OW 3445  12.963  10.491   7.065
33869SOL    HW1 3446  13.043  10.438   7.066
33869SOL    HW2 3447  12.987  10.573   7.108
33870SOL     OW 3448   0.831   9.919   3.243
33870SOL    HW1 3449   0.817   9.962   3.159
33870SOL    HW2 3450   0.747   9.879   3.264
33871SOL     OW 3451   6.058   0.729   6.659
33871SOL    HW1 3452   6.001   0.686   6.723
33871SOL    HW2 3453   5.999   0.749   6.585
33872SOL     OW 3454   2.808  14.753   5.940
33872SOL    HW1 3455   2.719  14.768   5.974
33872SOL    HW2 3456   2.814  14.658   5.929
33873SOL     OW 3457   2.990   7.360   4.495
33873SOL    HW1 3458   3.003   7.328   4.584
33873SOL    HW2 3459   3.041   7.441   4.492
33874SOL     OW 3460   1.157  14.491  11.130
33874SOL    HW1 3461   1.155  14.460  11.220
33874SOL    HW2 3462   1.203  14.422  11.082
33875SOL     OW 3463   8.458   2.494  10.456
33875SOL    HW1 3464   8.435   2.401  10.450
33875SOL    HW2 3465   8.540   2.496  10.504
33876SOL     OW 3466   0.620  11.914   0.106
33876SOL    HW1 3467   0.594  11.976   0.038
33876SOL    HW2 3468   0.679  11.964   0.163
33877SOL     OW 3469   0.409   1.160   2.828
33877SOL    HW1 3470   0.423   1.195   2.739
33877SOL    HW2 3471   0.317   1.135   2.829
33878SOL     OW 3472  13.643  10.796   4.372
33878SOL    HW1 3473  13.659  10.890   4.383
33878SOL    HW2 3474  13.553  10.783   4.400
33879SOL     OW 3475   0.001   1.449   6.193
33879SOL    HW1 3476   0.093   1.439   6.218
33879SOL    HW2 3477  14.866   1.400   6.111
33880SOL     OW 3478   4.790  10.242   5.839
33880SOL    HW1 3479   4.863  10.209   5.892
33880SOL    HW2 3480   4.732  10.284   5.903
33881SOL     OW 3481   1.289   2.965  11.427
33881SOL    HW1 3482   1.248   3.014  11.499
33881SOL    HW2 3483   1.232   2.980  11.352
33882SOL     OW 3484   0.479  12.148   9.716
33882SOL    HW1 3485   0.543  12.105   9.659
33882SOL    HW2 3486   0.515  12.140   9.804
33883SOL     OW 3487   5.895  12.671  12.989
33883SOL    HW1 3488   5.957  12.711  12.928
33883SOL    HW2 3489   5.927  12.695  13.076
33884SOL     OW 3490  14.845   2.630   6.183
33884SOL    HW1 3491   0.048   2.576   6.201
33884SOL    HW2 3492  14.785   2.613   6.255
33885SOL     OW 3493   9.327  12.358   2.086
33885SOL    HW1 3494   9.363  12.317   2.165
33885SOL    HW2 3495   9.320  12.451   2.109
33886SOL     OW 3496   0.803  12.555   9.619
33886SOL    HW1 3497   0.810  12.472   9.667
33886SOL    HW2 3498   0.766  12.530   9.534
33887SOL     OW 3499   4.914   1.620   0.426
33887SOL    HW1 3500   4.977   1.557   0.391
33887SOL    HW2 3501   4.890   1.674   0.350
33888SOL     OW 3502   6.755   7.817   8.197
33888SOL    HW1 3503   6.692   7.879   8.160
33888SOL    HW2 3504   6.836   7.833   8.148
33889SOL     OW 3505   1.542   2.640  14.813
33889SOL    HW1 3506   1.532   2.579  14.740
33889SOL    HW2 3507   1.593   2.712  14.777
33890SOL     OW 3508   3.588  13.572   1.575
33890SOL    HW1 3509   3.552  13.489   1.607
33890SOL    HW2 3510   3.588  13.563   1.480
33891SOL     OW 3511   4.631   1.718   2.828
33891SOL    HW1 3512   4.587   1.633   2.835
33891SOL    HW2 3513   4.581   1.766   2.763
33892SOL     OW 3514   7.195  10.842   5.991
33892SOL    HW1 3515   7.156  10.757   6.007
33892SOL    HW2 3516   7.219  10.840   5.898
33893SOL     OW 3517   3.434   1.234   4.412
33893SOL    HW1 3518   3.478   1.318   4.400
33893SOL    HW2 3519   3.407   1.233   4.503
33894SOL     OW 3520  11.163  14.706   9.977
33894SOL    HW1 3521  11.161  14.797  10.006
33894SOL    HW2 3522  11.071  14.681   9.971
33895SOL     OW 3523   6.826   0.755   4.068
33895SOL    HW1 3524   6.897   0.818   4.054
33895SOL    HW2 3525   6.860   0.693   4.132
33896SOL     OW 3526   1.428   6.202  10.909
33896SOL    HW1 3527   1.502   6.225  10.965
33896SOL    HW2 3528   1.354   6.248  10.948
33897SOL     OW 3529  11.954   3.496  11.174
33897SOL    HW1 3530  11.950   3.403  11.198
33897SOL    HW2 3531  11.869   3.514  11.134
33898SOL     OW 3532   3.631   5.932   3.038
33898SOL    HW1 3533   3.617   6.024   3.060
33898SOL    HW2 3534   3.638   5.931   2.943
33899SOL     OW 3535  11.041   9.442   0.689
33899SOL    HW1 3536  10.960   9.415   0.734
33899SOL    HW2 3537  11.034   9.537   0.682
33900SOL     OW 3538  12.895   0.614   8.969
33900SOL    HW1 3539  12.906   0.585   8.879
33900SOL    HW2 3540  12.983   0.640   8.997
33901SOL     OW 3541   9.349  11.238  12.810
33901SOL    HW1 3542   9.367  11.163  12.867
33901SOL    HW2 3543   9.265  11.218  12.769
33902SOL     OW 3544   2.932   3.120   5.062
33902SOL    HW1 3545   2.957   3.036   5.024
33902SOL    HW2 3546   2.947   3.184   4.993
33903SOL     OW 3547   3.821  10.380   1.547
33903SOL    HW1 3548   3.786  10.363   1.634
33903SOL    HW2 3549   3.762  10.335   1.487
33904SOL     OW 3550   7.899   9.222  11.717
33904SOL    HW1 3551   7.857   9.151  11.668
33904SOL    HW2 3552   7.908   9.293  11.653
33905SOL     OW 3553  10.839  11.223  12.218
33905SOL    HW1 3554  10.834  11.130  12.197
33905SOL    HW2 3555  10.751  11.246  12.248
33906SOL     OW 3556  11.326   2.960  11.832
33906SOL    HW1 3557  11.352   2.932  11.745
33906SOL    HW2 3558  11.232   2.975  11.825
33907SOL     OW 3559   0.889  10.565   6.073
33907SOL    HW1 3560   0.816  10.624   6.052
33907SOL    HW2 3561   0.848  10.479   6.079
33908SOL     OW 3562  12.367  14.712  11.649
33908SOL    HW1 3563  12.344  14.777  11.716
33908SOL    HW2 3564  12.340  14.628  11.687
33909SOL     OW 3565   2.213   6.691   4.475
33909SOL    HW1 3566   2.303   6.717   4.455
33909SOL    HW2 3567   2.188   6.634   4.402
33910SOL     OW 3568   7.110   0.431   0.822
33910SOL    HW1 3569   7.195   0.438   0.780
33910SOL    HW2 3570   7.122   0.469   0.909
33911SOL     OW 3571   9.055   5.220   5.772
33911SOL    HW1 3572   9.046   5.205   5.678
33911SOL    HW2 3573   9.140   5.264   5.781
33912SOL     OW 3574  11.307   8.855   5.090
33912SOL    HW1 3575  11.258   8.873   5.170
33912SOL    HW2 3576  11.398   8.868   5.114
33913SOL     OW 3577   4.768   0.810   4.393
33913SOL    HW1 3578   4.682   0.811   4.349
33913SOL    HW2 3579   4.799   0.720   4.382
33914SOL     OW 3580  13.343   7.217  14.366
33914SOL    HW1 3581  13.280   7.285  14.391
33914SOL    HW2 3582  13.339   7.153  14.436
33915SOL     OW 3583   9.902   5.186   9.224
33915SOL    HW1 3584   9.989   5.213   9.195
33915SOL    HW2 3585   9.917   5.113   9.284
33916SOL     OW 3586   6.702   5.071   4.605
33916SOL    HW1 3587   6.796   5.054   4.592
33916SOL    HW2 3588   6.695   5.167   4.603
33917SOL     OW 3589  12.299  11.353   6.063
33917SOL    HW1 3590  12.297  11.389   6.152
33917SOL    HW2 3591  12.255  11.419   6.010
33918SOL     OW 3592  12.704  13.794  11.922
33918SOL    HW1 3593  12.629  13.736  11.931
33918SOL    HW2 3594  12.748  13.789  12.007
33919SOL     OW 3595   0.042   6.838   6.688
33919SOL    HW1 3596   0.077   6.852   6.777
33919SOL    HW2 3597   0.090   6.900   6.634
33920SOL     OW 3598   6.432   8.399   2.995
33920SOL    HW1 3599   6.509   8.447   2.966
33920SOL    HW2 3600   6.403   8.446   3.073
33921SOL     OW 3601  11.222   1.530   4.177
33921SOL    HW1 3602  11.145   1.539   4.119
33921SOL    HW2 3603  11.290   1.581   4.134
33922SOL     OW 3604   9.859   0.690   3.707
33922SOL    HW1 3605   9.776   0.648   3.730
33922SOL    HW2 3606   9.833   0.776   3.672
33923SOL     OW 3607  13.935   2.805  13.444
33923SOL    HW1 3608  13.852   2.807  13.398
33923SOL    HW2 3609  13.912   2.777  13.533
33924SOL     OW 3610  14.057  12.244   5.006
33924SOL    HW1 3611  14.111  12.166   4.992
33924SOL    HW2 3612  14.053  12.286   4.920
33925SOL     OW 3613   6.350   5.964   7.868
33925SOL    HW1 3614   6.383   5.933   7.784
33925SOL    HW2 3615   6.362   5.890   7.928
33926SOL     OW 3616   6.987   2.408   5.793
33926SOL    HW1 3617   6.993   2.486   5.738
33926SOL    HW2 3618   6.955   2.441   5.877
33927SOL     OW 3619  14.354  10.271  11.514
33927SOL    HW1 3620  14.376  10.305  11.428
33927SOL    HW2 3621  14.438  10.260  11.559
33928SOL     OW 3622  10.245   4.889  11.344
33928SOL    HW1 3623  10.235   4.927  11.256
33928SOL    HW2 3624  10.162   4.845  11.360
33929SOL     OW 3625  14.266  10.846   7.496
33929SOL    HW1 3626  14.230  10.766   7.458
33929SOL    HW2 3627  14.189  10.902   7.509
33930SOL     OW 3628  14.747  14.301   4.448
33930SOL    HW1 3629  14.736  14.376   4.389
33930SOL    HW2 3630  14.746  14.225   4.390
33931SOL     OW 3631   2.826  11.536   1.240
33931SOL    HW1 3632   2.812  11.509   1.331
33931SOL    HW2 3633   2.744  11.517   1.196
33932SOL     OW 3634   2.514  11.295  10.971
33932SOL    HW1 3635   2.449  11.224  10.967
33932SOL    HW2 3636   2.464  11.372  10.995
33933SOL     OW 3637   6.301  12.455   9.732
33933SOL    HW1 3638   6.216  12.500   9.729
33933SOL    HW2 3639   6.312  12.431   9.824
33934SOL     OW 3640  12.689   9.485   4.511
33934SOL    HW1 3641  12.622   9.426   4.545
33934SOL    HW2 3642  12.691   9.558   4.573
33935SOL     OW 3643  10.213   7.862  12.081
33935SOL    HW1 3644  10.307   7.843  12.079
33935SOL    HW2 3645  10.206   7.950  12.046
33936SOL     OW 3646  12.043   4.530  12.935
33936SOL    HW1 3647  11.951   4.553  12.919
33936SOL    HW2 3648  12.089   4.614  12.939
33937SOL     OW 3649   7.014  11.299   9.732
33937SOL    HW1 3650   6.927  11.285   9.769
33937SOL    HW2 3651   7.032  11.392   9.746
33938SOL     OW 3652  10.313  12.172  11.937
33938SOL    HW1 3653  10.240  12.202  11.991
33938SOL    HW2 3654  10.292  12.204  11.849
33939SOL     OW 3655  11.919   3.635  13.114
33939SOL    HW1 3656  11.901   3.593  13.029
33939SOL    HW2 3657  11.834   3.671  13.141
33940SOL     OW 3658  13.120   9.470  10.632
33940SOL    HW1 3659  13.173   9.421  10.568
33940SOL    HW2 3660  13.147   9.435  10.717
33941SOL     OW 3661   1.980   0.301   7.585
33941SOL    HW1 3662   2.046   0.318   7.517
33941SOL    HW2 3663   2.031   0.277   7.662
33942SOL     OW 3664  13.146   1.308  13.517
33942SOL    HW1 3665  13.230   1.288  13.557
33942SOL    HW2 3666  13.159   1.393  13.475
33943SOL     OW 3667   7.950   8.952  14.660
33943SOL    HW1 3668   8.003   8.881  14.623
33943SOL    HW2 3669   7.884   8.908  14.713
33944SOL     OW 3670  11.943  14.055   8.003
33944SOL    HW1 3671  11.960  13.986   8.067
33944SOL    HW2 3672  11.859  14.031   7.964
33945SOL     OW 3673   2.478   2.756   9.419
33945SOL    HW1 3674   2.382   2.749   9.417
33945SOL    HW2 3675   2.502   2.725   9.506
33946SOL     OW 3676   5.386   4.992  11.176
33946SOL    HW1 3677   5.341   4.929  11.233
33946SOL    HW2 3678   5.474   5.000  11.213
33947SOL     OW 3679   9.946   0.664   2.949
33947SOL    HW1 3680   9.940   0.604   3.024
33947SOL    HW2 3681   9.950   0.606   2.873
33948SOL     OW 3682   0.414   9.105  13.774
33948SOL    HW1 3683   0.449   9.114  13.685
33948SOL    HW2 3684   0.478   9.150  13.829
33949SOL     OW 3685   3.015   2.135   5.699
33949SOL    HW1 3686   2.957   2.154   5.773
33949SOL    HW2 3687   2.956   2.124   5.624
33950SOL     OW 3688   7.601   1.924  11.169
33950SOL    HW1 3689   7.668   1.890  11.110
33950SOL    HW2 3690   7.641   2.000  11.211
33951SOL     OW 3691  10.381   1.228  14.532
33951SOL    HW1 3692  10.406   1.301  14.475
33951SOL    HW2 3693  10.295   1.200  14.500
33952SOL     OW 3694  13.687   2.188   0.246
33952SOL    HW1 3695  13.614   2.203   0.186
33952SOL    HW2 3696  13.648   2.141   0.320
33953SOL     OW 3697  10.437   4.052   4.698
33953SOL    HW1 3698  10.527   4.070   4.725
33953SOL    HW2 3699  10.410   4.128   4.647
33954SOL     OW 3700   7.397   7.516  13.238
33954SOL    HW1 3701   7.457   7.553  13.172
33954SOL    HW2 3702   7.324   7.578  13.240
33955SOL     OW 3703   4.943   4.770   2.070
33955SOL    HW1 3704   4.939   4.678   2.046
33955SOL    HW2 3705   4.953   4.817   1.987
33956SOL     OW 3706   3.917  12.664   1.003
33956SOL    HW1 3707   3.908  12.690   1.095
33956SOL    HW2 3708   3.828  12.646   0.975
33957SOL     OW 3709   4.908   6.534   5.653
33957SOL    HW1 3710   4.953   6.480   5.588
33957SOL    HW2 3711   4.916   6.623   5.620
33958SOL     OW 3712   6.278  13.893   0.299
33958SOL    HW1 3713   6.268  13.986   0.276
33958SOL    HW2 3714   6.190  13.867   0.327
33959SOL     OW 3715   0.676   1.584   6.824
33959SOL    HW1 3716   0.662   1.615   6.735
33959SOL    HW2 3717   0.747   1.639   6.858
33960SOL     OW 3718  10.530   2.488   7.241
33960SOL    HW1 3719  10.493   2.552   7.180
33960SOL    HW2 3720  10.608   2.455   7.196
33961SOL     OW 3721   4.326  11.633   7.936
33961SOL    HW1 3722   4.251  11.691   7.924
33961SOL    HW2 3723   4.305  11.582   8.015
33962SOL     OW 3724   8.694   2.054   2.389
33962SOL    HW1 3725   8.623   2.047   2.453
33962SOL    HW2 3726   8.677   1.984   2.326
33963SOL     OW 3727   6.908  12.769   8.826
33963SOL    HW1 3728   6.942  12.745   8.740
33963SOL    HW2 3729   6.887  12.686   8.868
33964SOL     OW 3730  13.620   9.892   1.660
33964SOL    HW1 3731  13.606   9.932   1.746
33964SOL    HW2 3732  13.715   9.884   1.652
33965SOL     OW 3733   0.166  11.517   2.215
33965SOL    HW1 3734   0.210  11.593   2.178
33965SOL    HW2 3735   0.127  11.473   2.139
33966SOL     OW 3736  10.814   3.686   1.447
33966SOL    HW1 3737  10.828   3.781   1.456
33966SOL    HW2 3738  10.758   3.678   1.370
33967SOL     OW 3739  10.922  12.284  10.131
33967SOL    HW1 3740  10.994  12.224  10.151
33967SOL    HW2 3741  10.844  12.240  10.165
33968SOL     OW 3742   7.027   1.031   0.109
33968SOL    HW1 3743   7.077   0.952   0.128
33968SOL    HW2 3744   7.046   1.050   0.017
33969SOL     OW 3745  13.316  10.279   1.142
33969SOL    HW1 3746  13.352  10.243   1.061
33969SOL    HW2 3747  13.235  10.322   1.116
33970SOL     OW 3748  12.043   8.710   3.343
33970SOL    HW1 3749  12.016   8.771   3.275
33970SOL    HW2 3750  12.004   8.744   3.423
33971SOL     OW 3751   1.626  12.431   6.539
33971SOL    HW1 3752   1.572  12.399   6.467
33971SOL    HW2 3753   1.659  12.516   6.509
33972SOL     OW 3754  11.466  13.670   9.303
33972SOL    HW1 3755  11.414  13.721   9.241
33972SOL    HW2 3756  11.426  13.688   9.388
33973SOL     OW 3757  11.374   0.090  14.621
33973SOL    HW1 3758  11.339   0.035  14.551
33973SOL    HW2 3759  11.303   0.152  14.640
33974SOL     OW 3760   4.042   6.387   4.591
33974SOL    HW1 3761   3.988   6.364   4.667
33974SOL    HW2 3762   4.035   6.312   4.532
33975SOL     OW 3763   8.652  11.356   7.503
33975SOL    HW1 3764   8.621  11.404   7.580
33975SOL    HW2 3765   8.571  11.323   7.463
33976SOL     OW 3766   5.936   0.483   1.208
33976SOL    HW1 3767   5.917   0.517   1.120
33976SOL    HW2 3768   5.998   0.546   1.245
33977SOL     OW 3769  11.500   6.646   0.376
33977SOL    HW1 3770  11.487   6.551   0.377
33977SOL    HW2 3771  11.511   6.669   0.284
33978SOL     OW 3772  12.285   3.245   8.484
33978SOL    HW1 3773  12.309   3.165   8.437
33978SOL    HW2 3774  12.251   3.215   8.568
33979SOL     OW 3775   4.928   2.390  12.894
33979SOL    HW1 3776   4.960   2.470  12.935
33979SOL    HW2 3777   5.004   2.331  12.895
33980SOL     OW 3778   5.919   4.666  13.160
33980SOL    HW1 3779   5.900   4.670  13.254
33980SOL    HW2 3780   5.833   4.674  13.118
33981SOL     OW 3781   5.960   9.318  14.436
33981SOL    HW1 3782   5.932   9.270  14.515
33981SOL    HW2 3783   5.886   9.375  14.415
33982SOL     OW 3784   0.307  13.391   6.559
33982SOL    HW1 3785   0.338  13.449   6.489
33982SOL    HW2 3786   0.382  13.335   6.579
33983SOL     OW 3787   0.694   9.770   7.745
33983SOL    HW1 3788   0.720   9.790   7.655
33983SOL    HW2 3789   0.763   9.810   7.799
33984SOL     OW 3790  13.239  11.013   2.749
33984SOL    HW1 3791  13.241  11.018   2.653
33984SOL    HW2 3792  13.168  10.951   2.768
33985SOL     OW 3793   9.836  14.433  14.607
33985SOL    HW1 3794   9.760  14.479  14.572
33985SOL    HW2 3795   9.832  14.448  14.702
33986SOL     OW 3796   2.902  13.143   5.442
33986SOL    HW1 3797   2.816  13.173   5.414
33986SOL    HW2 3798   2.887  13.103   5.528
33987SOL     OW 3799   2.727   0.282   2.233
33987SOL    HW1 3800   2.715   0.324   2.318
33987SOL    HW2 3801   2.676   0.335   2.172
33988SOL     OW 3802  10.333   7.067   6.502
33988SOL    HW1 3803  10.243   7.099   6.501
33988SOL    HW2 3804  10.349   7.044   6.593
33989SOL     OW 3805   6.153   0.295   1.308
33989SOL    HW1 3806   6.151   0.205   1.342
33989SOL    HW2 3807   6.076   0.337   1.347
33990SOL     OW 3808  12.346   7.509   4.138
33990SOL    HW1 3809  12.353   7.479   4.228
33990SOL    HW2 3810  12.268   7.466   4.104
33991SOL     OW 3811   8.202   4.349   3.350
33991SOL    HW1 3812   8.256   4.329   3.426
33991SOL    HW2 3813   8.256   4.409   3.298
33992SOL     OW 3814  10.937  10.016   6.785
33992SOL    HW1 3815  10.973   9.931   6.757
33992SOL    HW2 3816  10.910  10.058   6.704
33993SOL     OW 3817  12.581   5.600   7.925
33993SOL    HW1 3818  12.494   5.621   7.891
33993SOL    HW2 3819  12.581   5.634   8.015
33994SOL     OW 3820  10.116   2.271  12.747
33994SOL    HW1 3821  10.082   2.307  12.665
33994SOL    HW2 3822  10.210   2.263  12.733
33995SOL     OW 3823   8.569   9.206  10.545
33995SOL    HW1 3824   8.519   9.131  10.577
33995SOL    HW2 3825   8.589   9.257  10.624
33996SOL     OW 3826   9.793   8.796  11.700
33996SOL    HW1 3827   9.700   8.778  11.691
33996SOL    HW2 3828   9.805   8.818  11.792
33997SOL     OW 3829   8.222   0.320  10.591
33997SOL    HW1 3830   8.133   0.348  10.570
33997SOL    HW2 3831   8.269   0.402  10.607
33998SOL     OW 3832  13.827   9.018  14.314
33998SOL    HW1 3833  13.852   9.103  14.278
33998SOL    HW2 3834  13.733   9.026  14.329
33999SOL     OW 3835  12.120  14.325   7.574
33999SOL    HW1 3836  12.087  14.285   7.654
33999SOL    HW2 3837  12.195  14.271   7.549
34000SOL     OW 3838   5.051   2.530   7.550
34000SOL    HW1 3839   4.992   2.489   7.486
34000SOL    HW2 3840   5.076   2.458   7.608
34001SOL     OW 3841  13.797   2.338  13.205
34001SOL    HW1 3842  13.849   2.345  13.285
34001SOL    HW2 3843  13.730   2.406  13.214
34002SOL     OW 3844   7.132   4.346   3.944
34002SOL    HW1 3845   7.108   4.275   4.004
34002SOL    HW2 3846   7.103   4.316   3.858
34003SOL     OW 3847   3.798   2.732   1.363
34003SOL    HW1 3848   3.884   2.765   1.338
34003SOL    HW2 3849   3.811   2.695   1.451
34004SOL     OW 3850   1.238   2.550   7.165
34004SOL    HW1 3851   1.242   2.572   7.072
34004SOL    HW2 3852   1.320   2.503   7.182
34005SOL     OW 3853  10.063  11.839   1.300
34005SOL    HW1 3854  10.119  11.763   1.282
34005SOL    HW2 3855   9.990  11.803   1.350
34006SOL     OW 3856   9.990   5.495  10.581
34006SOL    HW1 3857   9.924   5.520  10.517
34006SOL    HW2 3858  10.015   5.406  10.556
34007SOL     OW 3859   9.633   3.311   2.634
34007SOL    HW1 3860   9.687   3.364   2.692
34007SOL    HW2 3861   9.547   3.351   2.637
34008SOL     OW 3862   9.186  12.284  10.145
34008SOL    HW1 3863   9.236  12.318  10.070
34008SOL    HW2 3864   9.145  12.204  10.111
34009SOL     OW 3865   2.245  11.118  14.547
34009SOL    HW1 3866   2.244  11.201  14.499
34009SOL    HW2 3867   2.209  11.054  14.486
34010SOL     OW 3868   3.842  12.676   0.327
34010SOL    HW1 3869   3.859  12.586   0.355
34010SOL    HW2 3870   3.916  12.726   0.361
34011SOL     OW 3871   3.819   8.107   1.402
34011SOL    HW1 3872   3.856   8.119   1.490
34011SOL    HW2 3873   3.864   8.172   1.348
34012SOL     OW 3874  10.128   9.512  14.233
34012SOL    HW1 3875  10.118   9.454  14.157
34012SOL    HW2 3876  10.120   9.454  14.309
34013SOL     OW 3877   2.779   4.468   7.753
34013SOL    HW1 3878   2.719   4.430   7.689
34013SOL    HW2 3879   2.803   4.394   7.810
34014SOL     OW 3880   5.629  14.464   0.499
34014SOL    HW1 3881   5.677  14.383   0.519
34014SOL    HW2 3882   5.549  14.457   0.551
34015SOL     OW 3883   7.306   3.885  11.472
34015SOL    HW1 3884   7.236   3.946  11.495
34015SOL    HW2 3885   7.267   3.798  11.483
34016SOL     OW 3886   1.489   4.512   7.320
34016SOL    HW1 3887   1.540   4.550   7.248
34016SOL    HW2 3888   1.555   4.490   7.386
34017SOL     OW 3889   6.743   2.721   5.993
34017SOL    HW1 3890   6.703   2.754   6.073
34017SOL    HW2 3891   6.714   2.781   5.924
34018SOL     OW 3892   0.847   4.811   6.641
34018SOL    HW1 3893   0.875   4.897   6.610
34018SOL    HW2 3894   0.754   4.806   6.616
34019SOL     OW 3895  12.191   0.347  14.016
34019SOL    HW1 3896  12.245   0.414  14.059
34019SOL    HW2 3897  12.248   0.311  13.948
34020SOL     OW 3898   8.489   2.846  13.427
34020SOL    HW1 3899   8.517   2.937  13.428
34020SOL    HW2 3900   8.462   2.830  13.337
34021SOL     OW 3901  12.512   2.599   9.300
34021SOL    HW1 3902  12.416   2.594   9.305
34021SOL    HW2 3903  12.530   2.690   9.277
34022SOL     OW 3904  11.498   6.553   2.080
34022SOL    HW1 3905  11.531   6.638   2.108
34022SOL    HW2 3906  11.417   6.573   2.034
34023SOL     OW 3907   5.165   5.174   3.394
34023SOL    HW1 3908   5.241   5.123   3.366
34023SOL    HW2 3909   5.120   5.117   3.457
34024SOL     OW 3910  13.015   9.692  12.576
34024SOL    HW1 3911  12.931   9.728  12.603
34024SOL    HW2 3912  13.060   9.765  12.533
34025SOL     OW 3913   9.951   2.495  13.525
34025SOL    HW1 3914   9.903   2.532  13.452
34025SOL    HW2 3915   9.983   2.411  13.492
34026SOL     OW 3916   2.556   0.236   4.612
34026SOL    HW1 3917   2.482   0.235   4.551
34026SOL    HW2 3918   2.570   0.144   4.635
34027SOL     OW 3919   2.803   1.827   5.496
34027SOL    HW1 3920   2.735   1.772   5.459
34027SOL    HW2 3921   2.864   1.766   5.538
34028SOL     OW 3922  14.616   0.126   2.425
34028SOL    HW1 3923  14.598   0.057   2.361
34028SOL    HW2 3924  14.710   0.120   2.441
34029SOL     OW 3925   4.882  14.196   5.022
34029SOL    HW1 3926   4.950  14.263   5.030
34029SOL    HW2 3927   4.800  14.244   5.033
34030SOL     OW 3928   1.932   1.665   4.654
34030SOL    HW1 3929   1.866   1.634   4.715
34030SOL    HW2 3930   1.891   1.658   4.568
34031SOL     OW 3931  12.271  11.848  11.432
34031SOL    HW1 3932  12.260  11.832  11.338
34031SOL    HW2 3933  12.195  11.807  11.472
34032SOL     OW 3934  11.328  13.298   5.187
34032SOL    HW1 3935  11.243  13.255   5.195
34032SOL    HW2 3936  11.364  13.263   5.105
34033SOL     OW 3937  13.729  11.229   2.103
34033SOL    HW1 3938  13.732  11.322   2.125
34033SOL    HW2 3939  13.659  11.194   2.159
34034SOL     OW 3940   2.974   4.031   2.892
34034SOL    HW1 3941   3.003   4.040   2.801
34034SOL    HW2 3942   2.881   4.012   2.886
34035SOL     OW 3943  10.423   8.587  12.290
34035SOL    HW1 3944  10.334   8.614  12.268
34035SOL    HW2 3945  10.420   8.567  12.383
34036SOL     OW 3946   1.478  13.191   6.554
34036SOL    HW1 3947   1.466  13.278   6.594
34036SOL    HW2 3948   1.569  13.168   6.573
34037SOL     OW 3949   4.184  10.846   9.069
34037SOL    HW1 3950   4.219  10.790   9.000
34037SOL    HW2 3951   4.109  10.798   9.104
34038SOL     OW 3952  10.242   4.731   1.093
34038SOL    HW1 3953  10.275   4.719   1.182
34038SOL    HW2 3954  10.147   4.725   1.101
34039SOL     OW 3955   5.532   5.646   7.173
34039SOL    HW1 3956   5.475   5.677   7.103
34039SOL    HW2 3957   5.502   5.693   7.251
34040SOL     OW 3958  13.365   3.921  12.480
34040SOL    HW1 3959  13.304   3.988  12.510
34040SOL    HW2 3960  13.383   3.944  12.389
34041SOL     OW 3961   4.986  13.057   0.947
34041SOL    HW1 3962   4.972  13.132   0.888
34041SOL    HW2 3963   5.027  12.990   0.891
34042SOL     OW 3964   6.786   6.103   5.506
34042SOL    HW1 3965   6.702   6.064   5.480
34042SOL    HW2 3966   6.799   6.072   5.596
34043SOL     OW 3967   5.378  11.281  11.159
34043SOL    HW1 3968   5.300  11.329  11.188
34043SOL    HW2 3969   5.416  11.336  11.091
34044SOL     OW 3970   7.938  12.509   9.891
34044SOL    HW1 3971   7.876  12.520   9.818
34044SOL    HW2 3972   7.937  12.415   9.909
34045SOL     OW 3973   1.153   5.858  10.369
34045SOL    HW1 3974   1.176   5.767  10.348
34045SOL    HW2 3975   1.071   5.851  10.418
34046SOL     OW 3976   3.268  12.535   2.788
34046SOL    HW1 3977   3.212  12.477   2.840
34046SOL    HW2 3978   3.332  12.477   2.748
34047SOL     OW 3979  10.821   4.453   9.249
34047SOL    HW1 3980  10.728   4.432   9.247
34047SOL    HW2 3981  10.832   4.519   9.180
34048SOL     OW 3982  11.268  14.735  12.874
34048SOL    HW1 3983  11.307  14.808  12.922
34048SOL    HW2 3984  11.263  14.664  12.937
34049SOL     OW 3985   2.177  11.483   3.821
34049SOL    HW1 3986   2.226  11.488   3.739
34049SOL    HW2 3987   2.094  11.443   3.797
34050SOL     OW 3988   8.704  11.264  13.012
34050SOL    HW1 3989   8.797  11.256  12.990
34050SOL    HW2 3990   8.677  11.175  13.035
34051SOL     OW 3991   1.800   9.872   9.595
34051SOL    HW1 3992   1.788   9.954   9.643
34051SOL    HW2 3993   1.765   9.805   9.654
34052SOL     OW 3994  10.830   2.194  11.702
34052SOL    HW1 3995  10.775   2.159  11.632
34052SOL    HW2 3996  10.822   2.129  11.772
34053SOL     OW 3997  14.799  14.119   8.701
34053SOL    HW1 3998  14.765  14.155   8.619
34053SOL    HW2 3999  14.724  14.124   8.761
34054SOL     OW 4000   3.069   0.927   7.436
34054SOL    HW1 4001   3.035   0.922   7.347
34054SOL    HW2 4002   3.062   1.019   7.460
34055SOL     OW 4003  14.230   5.436   0.227
34055SOL    HW1 4004  14.137   5.444   0.245
34055SOL    HW2 4005  14.273   5.475   0.303
34056SOL     OW 4006   3.095   8.382  10.484
34056SOL    HW1 4007   3.093   8.420  10.571
34056SOL    HW2 4008   3.008   8.344  10.471
34057SOL     OW 4009   3.347   1.854   2.260
34057SOL    HW1 4010   3.424   1.890   2.217
34057SOL    HW2 4011   3.372   1.847   2.352
34058SOL     OW 4012   1.440  11.157   6.758
34058SOL    HW1 4013   1.492  11.202   6.691
34058SOL    HW2 4014   1.463  11.065   6.749
34059SOL     OW 4015   2.893   0.222  13.665
34059SOL    HW1 4016   2.848   0.268  13.735
34059SOL    HW2 4017   2.848   0.250  13.585
34060SOL     OW 4018   5.253  10.639   8.006
34060SOL    HW1 4019   5.336  10.637   8.054
34060SOL    HW2 4020   5.280  10.640   7.914
34061SOL     OW 4021   4.629  11.955   2.744
34061SOL    HW1 4022   4.606  11.982   2.655
34061SOL    HW2 4023   4.657  11.864   2.735
34062SOL     OW 4024   2.759   2.430  11.704
34062SOL    HW1 4025   2.792   2.518  11.686
34062SOL    HW2 4026   2.664   2.440  11.709
34063SOL     OW 4027   2.088  14.095   4.384
34063SOL    HW1 4028   2.116  14.136   4.466
34063SOL    HW2 4029   2.073  14.004   4.407
34064SOL     OW 4030   1.012   7.846  11.013
34064SOL    HW1 4031   1.035   7.763  10.972
34064SOL    HW2 4032   0.916   7.851  11.005
34065SOL     OW 4033   6.425  12.174   1.640
34065SOL    HW1 4034   6.499  12.229   1.614
34065SOL    HW2 4035   6.455  12.129   1.719
34066SOL     OW 4036   4.867   9.258  11.912
34066SOL    HW1 4037   4.779   9.228  11.891
34066SOL    HW2 4038   4.875   9.245  12.006
34067SOL     OW 4039   6.528   9.016   2.057
34067SOL    HW1 4040   6.489   9.014   1.970
34067SOL    HW2 4041   6.515   9.107   2.087
34068SOL     OW 4042   4.497   4.629   5.905
34068SOL    HW1 4043   4.468   4.541   5.928
34068SOL    HW2 4044   4.451   4.686   5.966
34069SOL     OW 4045   3.186   7.805   7.181
34069SOL    HW1 4046   3.122   7.874   7.164
34069SOL    HW2 4047   3.140   7.724   7.156
34070SOL     OW 4048  13.173  12.070   1.318
34070SOL    HW1 4049  13.165  12.007   1.390
34070SOL    HW2 4050  13.114  12.036   1.250
34071SOL     OW 4051  14.071   6.867  14.063
34071SOL    HW1 4052  14.087   6.776  14.037
34071SOL    HW2 4053  14.026   6.906  13.989
34072SOL     OW 4054  14.661  11.178   9.052
34072SOL    HW1 4055  14.668  11.211   9.141
34072SOL    HW2 4056  14.709  11.095   9.053
34073SOL     OW 4057  12.245   7.937   3.620
34073SOL    HW1 4058  12.223   8.022   3.658
34073SOL    HW2 4059  12.341   7.935   3.618
34074SOL     OW 4060   9.416   6.239   6.917
34074SOL    HW1 4061   9.370   6.154   6.918
34074SOL    HW2 4062   9.468   6.237   6.837
34075SOL     OW 4063  11.993  12.709  11.576
34075SOL    HW1 4064  11.908  12.751  11.561
34075SOL    HW2 4065  12.046  12.777  11.617
34076SOL     OW 4066  11.384   2.887  11.577
34076SOL    HW1 4067  11.385   2.955  11.510
34076SOL    HW2 4068  11.324   2.821  11.543
34077SOL     OW 4069  13.245  11.929  10.901
34077SOL    HW1 4070  13.255  11.986  10.977
34077SOL    HW2 4071  13.254  11.988  10.826
34078SOL     OW 4072   1.361   1.222   5.637
34078SOL    HW1 4073   1.421   1.295   5.656
34078SOL    HW2 4074   1.409   1.144   5.664
34079SOL     OW 4075   8.091  12.388   7.467
34079SOL    HW1 4076   8.102  12.307   7.517
34079SOL    HW2 4077   8.066  12.359   7.379
34080SOL     OW 4078  13.787   9.553   2.106
34080SOL    HW1 4079  13.778   9.505   2.024
34080SOL    HW2 4080  13.746   9.638   2.090
34081SOL     OW 4081   9.666   2.015   7.267
34081SOL    HW1 4082   9.679   2.013   7.172
34081SOL    HW2 4083   9.589   1.961   7.282
34082SOL     OW 4084   6.344  14.400  14.591
34082SOL    HW1 4085   6.400  14.460  14.642
34082SOL    HW2 4086   6.329  14.447  14.509
34083SOL     OW 4087   4.062  11.723  14.720
34083SOL    HW1 4088   4.075  11.815  14.696
34083SOL    HW2 4089   3.968  11.709  14.711
34084SOL     OW 4090   7.656   1.187   1.191
34084SOL    HW1 4091   7.618   1.257   1.139
34084SOL    HW2 4092   7.750   1.194   1.175
34085SOL     OW 4093   4.493   7.238  12.447
34085SOL    HW1 4094   4.568   7.180  12.434
34085SOL    HW2 4095   4.511   7.313  12.390
34086SOL     OW 4096   0.401   8.409  14.411
34086SOL    HW1 4097   0.371   8.474  14.474
34086SOL    HW2 4098   0.367   8.438  14.327
34087SOL     OW 4099   1.246  13.260   6.274
34087SOL    HW1 4100   1.289  13.335   6.315
34087SOL    HW2 4101   1.212  13.209   6.348
34088SOL     OW 4102   6.274   1.536   1.760
34088SOL    HW1 4103   6.201   1.540   1.699
34088SOL    HW2 4104   6.248   1.591   1.834
34089SOL     OW 4105  13.341   0.154   6.885
34089SOL    HW1 4106  13.314   0.181   6.797
34089SOL    HW2 4107  13.368   0.235   6.928
34090SOL     OW 4108   9.890  13.932  13.039
34090SOL    HW1 4109   9.966  13.990  13.044
34090SOL    HW2 4110   9.866  13.915  13.130
34091SOL     OW 4111   8.463   8.401   1.140
34091SOL    HW1 4112   8.538   8.356   1.102
34091SOL    HW2 4113   8.387   8.352   1.108
34092SOL     OW 4114   4.107   3.474   9.253
34092SOL    HW1 4115   4.144   3.547   9.302
34092SOL    HW2 4116   4.121   3.398   9.310
34093SOL     OW 4117  11.684  14.446  14.859
34093SOL    HW1 4118  11.606  14.480  14.815
34093SOL    HW2 4119  11.651  14.408   0.067
34094SOL     OW 4120   2.596  11.990  13.686
34094SOL    HW1 4121   2.626  12.079  13.702
34094SOL    HW2 4122   2.641  11.937  13.751
34095SOL     OW 4123   8.395  12.409  10.414
34095SOL    HW1 4124   8.316  12.362  10.439
34095SOL    HW2 4125   8.427  12.446  10.496
34096SOL     OW 4126  13.744  10.888   1.341
34096SOL    HW1 4127  13.764  10.932   1.424
34096SOL    HW2 4128  13.713  10.957   1.283
34097SOL     OW 4129  14.029   8.010   7.830
34097SOL    HW1 4130  14.081   7.958   7.769
34097SOL    HW2 4131  13.957   8.043   7.777
34098SOL     OW 4132  11.690   0.399   5.378
34098SOL    HW1 4133  11.762   0.342   5.405
34098SOL    HW2 4134  11.632   0.342   5.328
34099SOL     OW 4135   5.636   3.976   0.573
34099SOL    HW1 4136   5.556   3.951   0.527
34099SOL    HW2 4137   5.607   4.010   0.657
34100SOL     OW 4138   5.003  11.675   2.753
34100SOL    HW1 4139   5.041  11.760   2.775
34100SOL    HW2 4140   5.078  11.616   2.749
34101SOL     OW 4141  10.569   0.462   6.832
34101SOL    HW1 4142  10.572   0.480   6.738
34101SOL    HW2 4143  10.612   0.538   6.872
34102SOL     OW 4144   4.599  11.571   5.629
34102SOL    HW1 4145   4.590  11.478   5.649
34102SOL    HW2 4146   4.573  11.616   5.709
34103SOL     OW 4147   0.634   7.985   0.694
34103SOL    HW1 4148   0.694   7.927   0.646
34103SOL    HW2 4149   0.622   7.941   0.778
34104SOL     OW 4150   5.707  11.498   0.517
34104SOL    HW1 4151   5.740  11.461   0.435
34104SOL    HW2 4152   5.612  11.500   0.505
34105SOL     OW 4153  14.567   5.347   5.697
34105SOL    HW1 4154  14.646   5.395   5.671
34105SOL    HW2 4155  14.534   5.310   5.615
34106SOL     OW 4156   0.232  12.075  14.360
34106SOL    HW1 4157   0.312  12.129  14.357
34106SOL    HW2 4158   0.194  12.093  14.446
34107SOL     OW 4159   2.028   9.932  12.588
34107SOL    HW1 4160   1.975   9.991  12.642
34107SOL    HW2 4161   1.965   9.873  12.547
34108SOL     OW 4162  10.619  13.899   2.473
34108SOL    HW1 4163  10.682  13.920   2.404
34108SOL    HW2 4164  10.651  13.945   2.550
34109SOL     OW 4165  12.940   8.301   5.167
34109SOL    HW1 4166  12.974   8.279   5.254
34109SOL    HW2 4167  13.010   8.277   5.107
34110SOL     OW 4168  11.138  13.480   0.227
34110SOL    HW1 4169  11.173  13.398   0.194
34110SOL    HW2 4170  11.188  13.548   0.182
34111SOL     OW 4171   0.406   2.280   6.168
34111SOL    HW1 4172   0.475   2.270   6.233
34111SOL    HW2 4173   0.363   2.194   6.165
34112SOL     OW 4174   9.967  14.739   1.098
34112SOL    HW1 4175   9.995  14.736   1.006
34112SOL    HW2 4176  10.036  14.788   1.142
34113SOL     OW 4177   4.787   9.871   9.454
34113SOL    HW1 4178   4.747   9.805   9.398
34113SOL    HW2 4179   4.878   9.842   9.463
34114SOL     OW 4180   3.570   6.045   1.404
34114SOL    HW1 4181   3.479   6.028   1.427
34114SOL    HW2 4182   3.570   6.052   1.308
34115SOL     OW 4183   5.544   1.953   5.834
34115SOL    HW1 4184   5.549   1.913   5.747
34115SOL    HW2 4185   5.518   2.044   5.817
34116SOL     OW 4186   5.045  10.408   4.271
34116SOL    HW1 4187   5.021  10.325   4.314
34116SOL    HW2 4188   5.041  10.389   4.178
34117SOL     OW 4189  13.297  11.654   3.207
34117SOL    HW1 4190  13.215  11.642   3.160
34117SOL    HW2 4191  13.354  11.585   3.173
34118SOL     OW 4192  13.114   9.081  12.672
34118SOL    HW1 4193  13.112   9.005  12.615
34118SOL    HW2 4194  13.049   9.141  12.636
34119SOL     OW 4195   3.524  13.230   3.081
34119SOL    HW1 4196   3.606  13.201   3.042
34119SOL    HW2 4197   3.456  13.187   3.028
34120SOL     OW 4198   7.367   5.138   0.409
34120SOL    HW1 4199   7.345   5.185   0.328
34120SOL    HW2 4200   7.295   5.158   0.468
34121SOL     OW 4201   6.865  11.860   3.536
34121SOL    HW1 4202   6.849  11.950   3.509
34121SOL    HW2 4203   6.961  11.853   3.540
34122SOL     OW 4204  12.566   9.019   5.026
34122SOL    HW1 4205  12.489   8.968   5.000
34122SOL    HW2 4206  12.540   9.110   5.014
34123SOL     OW 4207   5.074   3.665   9.707
34123SOL    HW1 4208   4.996   3.715   9.684
34123SOL    HW2 4209   5.127   3.727   9.759
34124SOL     OW 4210   9.514   2.353   2.868
34124SOL    HW1 4211   9.425   2.353   2.903
34124SOL    HW2 4212   9.548   2.266   2.887
34125SOL     OW 4213  14.480   5.562   2.218
34125SOL    HW1 4214  14.456   5.474   2.248
34125SOL    HW2 4215  14.554   5.587   2.273
34126SOL     OW 4216  10.657   6.998   2.514
34126SOL    HW1 4217  10.587   7.062   2.528
34126SOL    HW2 4218  10.612   6.917   2.494
34127SOL     OW 4219   5.461  13.470   3.843
34127SOL    HW1 4220   5.416  13.405   3.897
34127SOL    HW2 4221   5.417  13.466   3.758
34128SOL     OW 4222   4.446  11.140   2.000
34128SOL    HW1 4223   4.361  11.096   2.008
34128SOL    HW2 4224   4.477  11.116   1.913
34129SOL     OW 4225   0.424   6.642   9.305
34129SOL    HW1 4226   0.475   6.600   9.375
34129SOL    HW2 4227   0.426   6.579   9.233
34130SOL     OW 4228   2.935  11.496   6.022
34130SOL    HW1 4229   2.923  11.489   6.117
34130SOL    HW2 4230   2.868  11.439   5.985
34131SOL     OW 4231   0.357   1.030  12.742
34131SOL    HW1 4232   0.265   1.047  12.763
34131SOL    HW2 4233   0.402   1.113  12.758
34132SOL     OW 4234   1.842  13.560   0.707
34132SOL    HW1 4235   1.838  13.606   0.792
34132SOL    HW2 4236   1.805  13.474   0.725
34133SOL     OW 4237   3.394   8.876   4.887
34133SOL    HW1 4238   3.433   8.851   4.970
34133SOL    HW2 4239   3.466   8.872   4.824
34134SOL     OW 4240   3.147  11.137   2.911
34134SOL    HW1 4241   3.153  11.136   2.816
34134SOL    HW2 4242   3.110  11.052   2.934
34135SOL     OW 4243   0.794  14.511  13.081
34135SOL    HW1 4244   0.723  14.452  13.057
34135SOL    HW2 4245   0.824  14.549  12.999
34136SOL     OW 4246  12.464  11.036  12.103
34136SOL    HW1 4247  12.514  11.117  12.109
34136SOL    HW2 4248  12.397  11.044  12.171
34137SOL     OW 4249   3.904   2.997   6.044
34137SOL    HW1 4250   3.931   2.908   6.068
34137SOL    HW2 4251   3.847   3.024   6.117
34138SOL     OW 4252   9.038  10.817   1.319
34138SOL    HW1 4253   9.033  10.808   1.224
34138SOL    HW2 4254   9.122  10.777   1.342
34139SOL     OW 4255   0.868   1.589   3.014
34139SOL    HW1 4256   0.902   1.648   2.946
34139SOL    HW2 4257   0.779   1.619   3.030
34140SOL     OW 4258  12.010   5.475   0.062
34140SOL    HW1 4259  11.951   5.470   0.137
34140SOL    HW2 4260  12.095   5.499   0.100
34141SOL     OW 4261   9.780  13.677   9.403
34141SOL    HW1 4262   9.745  13.596   9.367
34141SOL    HW2 4263   9.721  13.745   9.370
34142SOL     OW 4264  14.737   9.579  10.035
34142SOL    HW1 4265  14.750   9.501   9.982
34142SOL    HW2 4266  14.662   9.558  10.091
34143SOL     OW 4267   2.495   7.081  10.015
34143SOL    HW1 4268   2.528   7.004  10.062
34143SOL    HW2 4269   2.463   7.140  10.083
34144SOL     OW 4270  10.201   5.541   5.169
34144SOL    HW1 4271  10.149   5.529   5.090
34144SOL    HW2 4272  10.136   5.546   5.240
34145SOL     OW 4273   1.242  11.683   3.696
34145SOL    HW1 4274   1.335  11.665   3.713
34145SOL    HW2 4275   1.228  11.771   3.731
34146SOL     OW 4276  12.975   9.837  10.969
34146SOL    HW1 4277  12.929   9.773  10.914
34146SOL    HW2 4278  13.056   9.856  10.921
34147SOL     OW 4279   9.474   8.285   5.162
34147SOL    HW1 4280   9.402   8.347   5.154
34147SOL    HW2 4281   9.437   8.201   5.133
34148SOL     OW 4282   5.672   0.345  12.385
34148SOL    HW1 4283   5.693   0.438  12.397
34148SOL    HW2 4284   5.666   0.334  12.290
34149SOL     OW 4285   2.789  14.370   8.128
34149SOL    HW1 4286   2.870  14.420   8.116
34149SOL    HW2 4287   2.803  14.290   8.078
34150SOL     OW 4288  10.092   5.792  10.188
34150SOL    HW1 4289  10.081   5.869  10.132
34150SOL    HW2 4290  10.005   5.751  10.190
34151SOL     OW 4291  13.533  10.089  12.909
34151SOL    HW1 4292  13.494  10.173  12.933
34151SOL    HW2 4293  13.609  10.113  12.855
34152SOL     OW 4294  14.552   0.428  11.083
34152SOL    HW1 4295  14.518   0.391  11.002
34152SOL    HW2 4296  14.519   0.518  11.085
34153SOL     OW 4297   5.241   9.607   8.465
34153SOL    HW1 4298   5.182   9.537   8.438
34153SOL    HW2 4299   5.325   9.562   8.479
34154SOL     OW 4300  10.374   7.559   6.771
34154SOL    HW1 4301  10.353   7.622   6.701
34154SOL    HW2 4302  10.290   7.542   6.813
34155SOL     OW 4303   6.656   2.660  14.525
34155SOL    HW1 4304   6.719   2.591  14.546
34155SOL    HW2 4305   6.710   2.736  14.504
34156SOL     OW 4306   1.366  10.055  14.810
34156SOL    HW1 4307   1.436  10.027  14.869
34156SOL    HW2 4308   1.397  10.031  14.723
34157SOL     OW 4309   6.143   3.737   2.044
34157SOL    HW1 4310   6.176   3.766   1.959
34157SOL    HW2 4311   6.048   3.734   2.034
34158SOL     OW 4312   7.555  14.478   5.575
34158SOL    HW1 4313   7.650  14.480   5.576
34158SOL    HW2 4314   7.531  14.424   5.650
34159SOL     OW 4315   3.046  10.973   0.126
34159SOL    HW1 4316   3.091  10.889   0.130
34159SOL    HW2 4317   3.111  11.034   0.090
34160SOL     OW 4318   5.696   4.410  14.622
34160SOL    HW1 4319   5.766   4.461  14.664
34160SOL    HW2 4320   5.694   4.443  14.532
34161SOL     OW 4321   4.877   6.798   4.679
34161SOL    HW1 4322   4.893   6.802   4.774
34161SOL    HW2 4323   4.962   6.772   4.642
34162SOL     OW 4324  10.793   5.263   9.092
34162SOL    HW1 4325  10.856   5.201   9.128
34162SOL    HW2 4326  10.732   5.209   9.042
34163SOL     OW 4327  10.709  14.192   9.669
34163SOL    HW1 4328  10.783  14.210   9.611
34163SOL    HW2 4329  10.736  14.114   9.718
34164SOL     OW 4330   6.095  13.639   8.823
34164SOL    HW1 4331   6.073  13.724   8.786
34164SOL    HW2 4332   6.153  13.598   8.758
34165SOL     OW 4333   5.659  10.147   6.687
34165SOL    HW1 4334   5.628  10.155   6.596
34165SOL    HW2 4335   5.619  10.221   6.732
34166SOL     OW 4336  14.475  11.663  14.037
34166SOL    HW1 4337  14.486  11.698  13.949
34166SOL    HW2 4338  14.564  11.655  14.071
34167SOL     OW 4339   9.924   1.298   7.526
34167SOL    HW1 4340   9.855   1.291   7.591
34167SOL    HW2 4341   9.884   1.267   7.445
34168SOL     OW 4342   8.876   9.275   7.606
34168SOL    HW1 4343   8.897   9.293   7.698
34168SOL    HW2 4344   8.961   9.264   7.563
34169SOL     OW 4345   3.815   2.427   5.045
34169SOL    HW1 4346   3.729   2.469   5.042
34169SOL    HW2 4347   3.827   2.404   5.137
34170SOL     OW 4348  11.692   7.934  12.433
34170SOL    HW1 4349  11.645   7.860  12.472
34170SOL    HW2 4350  11.704   7.909  12.341
34171SOL     OW 4351   8.705  11.925   4.397
34171SOL    HW1 4352   8.789  11.910   4.354
34171SOL    HW2 4353   8.704  12.018   4.415
34172SOL     OW 4354   7.682   2.143  12.597
34172SOL    HW1 4355   7.717   2.056  12.615
34172SOL    HW2 4356   7.638   2.135  12.512
34173SOL     OW 4357   1.407   4.083   9.016
34173SOL    HW1 4358   1.360   4.150   9.065
34173SOL    HW2 4359   1.340   4.040   8.963
34174SOL     OW 4360   0.560   9.650  13.740
34174SOL    HW1 4361   0.545   9.664  13.834
34174SOL    HW2 4362   0.654   9.633  13.733
34175SOL     OW 4363  12.764   3.741   3.238
34175SOL    HW1 4364  12.735   3.654   3.213
34175SOL    HW2 4365  12.708   3.765   3.312
34176SOL     OW 4366   2.675   5.692   9.746
34176SOL    HW1 4367   2.583   5.675   9.765
34176SOL    HW2 4368   2.723   5.638   9.809
34177SOL     OW 4369   4.158   5.406   3.361
34177SOL    HW1 4370   4.097   5.458   3.412
34177SOL    HW2 4371   4.160   5.321   3.405
34178SOL     OW 4372   0.654   7.023   3.712
34178SOL    HW1 4373   0.711   7.008   3.788
34178SOL    HW2 4374   0.710   7.007   3.636
34179SOL     OW 4375  14.120   9.610   4.159
34179SOL    HW1 4376  14.031   9.593   4.190
34179SOL    HW2 4377  14.111   9.686   4.101
34180SOL     OW 4378   3.746   6.657   6.598
34180SOL    HW1 4379   3.782   6.591   6.656
34180SOL    HW2 4380   3.651   6.655   6.615
34181SOL     OW 4381  13.322   9.800   2.458
34181SOL    HW1 4382  13.362   9.827   2.375
34181SOL    HW2 4383  13.295   9.709   2.443
34182SOL     OW 4384  13.140   0.286  13.509
34182SOL    HW1 4385  13.158   0.212  13.566
34182SOL    HW2 4386  13.178   0.361  13.555
34183SOL     OW 4387   4.517  11.620   1.722
34183SOL    HW1 4388   4.451  11.673   1.766
34183SOL    HW2 4389   4.475  11.535   1.708
34184SOL     OW 4390   4.490  14.498  14.512
34184SOL    HW1 4391   4.473  14.479  14.420
34184SOL    HW2 4392   4.473  14.592  14.521
34185SOL     OW 4393   1.900   7.963   4.876
34185SOL    HW1 4394   1.854   7.899   4.822
34185SOL    HW2 4395   1.993   7.945   4.860
34186SOL     OW 4396  10.509   6.315   0.082
34186SOL    HW1 4397  10.542   6.228   0.102
34186SOL    HW2 4398  10.501   6.358   0.167
34187SOL     OW 4399   5.025   2.302  13.813
34187SOL    HW1 4400   5.024   2.394  13.788
34187SOL    HW2 4401   4.946   2.290  13.865
34188SOL     OW 4402  12.052  11.976   0.328
34188SOL    HW1 4403  11.991  11.907   0.356
34188SOL    HW2 4404  11.996  12.046   0.295
34189SOL     OW 4405   8.296   5.716  14.402
34189SOL    HW1 4406   8.326   5.780  14.337
34189SOL    HW2 4407   8.247   5.768  14.466
34190SOL     OW 4408  10.530  14.425   5.216
34190SOL    HW1 4409  10.488  14.383   5.142
34190SOL    HW2 4410  10.592  14.487   5.177
34191SOL     OW 4411   5.999  13.760   6.837
34191SOL    HW1 4412   5.978  13.667   6.839
34191SOL    HW2 4413   5.939  13.797   6.773
34192SOL     OW 4414   3.212   4.039  10.809
34192SOL    HW1 4415   3.180   4.053  10.899
34192SOL    HW2 4416   3.305   4.060  10.813
34193SOL     OW 4417  10.619  11.599   8.419
34193SOL    HW1 4418  10.620  11.640   8.505
34193SOL    HW2 4419  10.526  11.587   8.398
34194SOL     OW 4420   4.991   7.560   6.916
34194SOL    HW1 4421   5.005   7.649   6.949
34194SOL    HW2 4422   5.061   7.547   6.852
34195SOL     OW 4423  10.152   7.927  11.735
34195SOL    HW1 4424  10.059   7.934  11.715
34195SOL    HW2 4425  10.164   7.835  11.761
34196SOL     OW 4426   1.093  12.199   2.524
34196SOL    HW1 4427   1.094  12.134   2.594
34196SOL    HW2 4428   1.177  12.188   2.480
34197SOL     OW 4429   8.719   7.823   6.639
34197SOL    HW1 4430   8.680   7.909   6.656
34197SOL    HW2 4431   8.757   7.797   6.723
34198SOL     OW 4432   8.095   4.980   1.430
34198SOL    HW1 4433   8.072   4.970   1.523
34198SOL    HW2 4434   8.170   4.921   1.418
34199SOL     OW 4435   2.986  12.376   4.583
34199SOL    HW1 4436   2.899  12.396   4.547
34199SOL    HW2 4437   2.971  12.366   4.677
34200SOL     OW 4438   6.960   1.848  10.849
34200SOL    HW1 4439   6.916   1.930  10.867
34200SOL    HW2 4440   7.047   1.858  10.889
34201SOL     OW 4441   3.213   0.291   4.271
34201SOL    HW1 4442   3.248   0.228   4.334
34201SOL    HW2 4443   3.171   0.358   4.325
34202SOL     OW 4444   4.376   8.562   3.908
34202SOL    HW1 4445   4.361   8.568   4.002
34202SOL    HW2 4446   4.290   8.582   3.869
34203SOL     OW 4447   6.230   7.553   8.769
34203SOL    HW1 4448   6.315   7.567   8.729
34203SOL    HW2 4449   6.182   7.499   8.707
34204SOL     OW 4450  10.298   2.635   9.892
34204SOL    HW1 4451  10.335   2.693   9.826
34204SOL    HW2 4452  10.286   2.691   9.969
34205SOL     OW 4453   2.985   2.406  12.657
34205SOL    HW1 4454   3.044   2.427  12.729
34205SOL    HW2 4455   2.992   2.311  12.648
34206SOL     OW 4456   5.031   5.888  14.250
34206SOL    HW1 4457   5.057   5.811  14.200
34206SOL    HW2 4458   4.938   5.901  14.228
34207SOL     OW 4459   1.772  10.078  11.746
34207SOL    HW1 4460   1.810  10.014  11.686
34207SOL    HW2 4461   1.682  10.089  11.715
34208SOL     OW 4462   9.595   3.333  12.085
34208SOL    HW1 4463   9.532   3.388  12.131
34208SOL    HW2 4464   9.668   3.322  12.146
34209SOL     OW 4465   3.440  10.579   7.688
34209SOL    HW1 4466   3.372  10.524   7.649
34209SOL    HW2 4467   3.416  10.584   7.781
34210SOL     OW 4468   3.974   6.032   9.394
34210SOL    HW1 4469   4.063   5.999   9.385
34210SOL    HW2 4470   3.983   6.117   9.437
34211SOL     OW 4471   6.024  14.562   0.243
34211SOL    HW1 4472   6.016  14.547   0.337
34211SOL    HW2 4473   6.067  14.647   0.236
34212SOL     OW 4474   1.207  11.187  13.494
34212SOL    HW1 4475   1.262  11.156  13.423
34212SOL    HW2 4476   1.266  11.194  13.569
34213SOL     OW 4477   6.145   7.694   4.370
34213SOL    HW1 4478   6.226   7.736   4.339
34213SOL    HW2 4479   6.168   7.602   4.379
34214SOL     OW 4480  14.406   5.157   1.365
34214SOL    HW1 4481  14.373   5.114   1.443
34214SOL    HW2 4482  14.354   5.121   1.294
34215SOL     OW 4483   0.442   8.788   9.806
34215SOL    HW1 4484   0.488   8.706   9.788
34215SOL    HW2 4485   0.496   8.856   9.765
34216SOL     OW 4486   2.013  14.528  13.487
34216SOL    HW1 4487   2.036  14.606  13.437
34216SOL    HW2 4488   1.919  14.537  13.505
34217SOL     OW 4489   8.838  11.692   7.218
34217SOL    HW1 4490   8.881  11.728   7.296
34217SOL    HW2 4491   8.747  11.719   7.226
34218SOL     OW 4492  12.380   7.596  12.245
34218SOL    HW1 4493  12.436   7.520  12.230
34218SOL    HW2 4494  12.291   7.561  12.241
34219SOL     OW 4495   7.288   2.922   1.575
34219SOL    HW1 4496   7.373   2.892   1.607
34219SOL    HW2 4497   7.249   2.845   1.535
34220SOL     OW 4498   2.776   6.830   2.783
34220SOL    HW1 4499   2.739   6.820   2.695
34220SOL    HW2 4500   2.722   6.897   2.824
34221SOL     OW 4501   7.268  13.344   9.594
34221SOL    HW1 4502   7.254  13.426   9.641
34221SOL    HW2 4503   7.182  13.302   9.592
34222SOL     OW 4504   0.979  14.302   1.184
34222SOL    HW1 4505   1.011  14.265   1.266
34222SOL    HW2 4506   1.006  14.394   1.187
34223SOL     OW 4507  11.522   4.139   6.667
34223SOL    HW1 4508  11.487   4.179   6.746
34223SOL    HW2 4509  11.581   4.205   6.631
34224SOL     OW 4510  13.825   2.689   3.671
34224SOL    HW1 4511  13.849   2.758   3.609
34224SOL    HW2 4512  13.880   2.615   3.647
34225SOL     OW 4513  14.853  11.953   8.869
34225SOL    HW1 4514  14.856  11.858   8.863
34225SOL    HW2 4515  14.872  11.984   8.781
34226SOL     OW 4516  14.563  10.644   3.975
34226SOL    HW1 4517  14.549  10.738   3.977
34226SOL    HW2 4518  14.639  10.632   3.918
34227SOL     OW 4519  12.034  14.001   9.470
34227SOL    HW1 4520  12.051  14.095   9.475
34227SOL    HW2 4521  12.081  13.973   9.392
34228SOL     OW 4522   2.717   7.761   3.546
34228SOL    HW1 4523   2.684   7.806   3.469
34228SOL    HW2 4524   2.812   7.769   3.540
34229SOL     OW 4525   2.776   1.642   3.466
34229SOL    HW1 4526   2.733   1.643   3.381
34229SOL    HW2 4527   2.850   1.582   3.455
34230SOL     OW 4528   2.281   8.448  11.782
34230SOL    HW1 4529   2.342   8.456  11.855
34230SOL    HW2 4530   2.205   8.402  11.818
34231SOL     OW 4531   9.053  11.780   9.476
34231SOL    HW1 4532   9.071  11.789   9.382
34231SOL    HW2 4533   9.113  11.841   9.518
34232SOL     OW 4534   4.258  13.258  13.670
34232SOL    HW1 4535   4.184  13.260  13.610
34232SOL    HW2 4536   4.237  13.324  13.736
34233SOL     OW 4537   3.380  11.707   6.420
34233SOL    HW1 4538   3.467  11.690   6.386
34233SOL    HW2 4539   3.321  11.657   6.364
34234SOL     OW 4540  11.352   3.751   2.533
34234SOL    HW1 4541  11.433   3.800   2.520
34234SOL    HW2 4542  11.283   3.813   2.510
34235SOL     OW 4543   9.450   4.934   5.424
34235SOL    HW1 4544   9.428   4.971   5.338
34235SOL    HW2 4545   9.398   4.986   5.486
34236SOL     OW 4546   1.798   5.752  10.938
34236SOL    HW1 4547   1.784   5.769  10.845
34236SOL    HW2 4548   1.743   5.815  10.983
34237SOL     OW 4549   6.275   3.598   7.063
34237SOL    HW1 4550   6.359   3.619   7.104
34237SOL    HW2 4551   6.221   3.676   7.076
34238SOL     OW 4552   1.107  11.033   8.922
34238SOL    HW1 4553   1.116  10.943   8.890
34238SOL    HW2 4554   1.185  11.048   8.975
34239SOL     OW 4555   5.130   7.117  12.417
34239SOL    HW1 4556   5.118   7.210  12.435
34239SOL    HW2 4557   5.190   7.114  12.342
34240SOL     OW 4558   4.843  10.629  13.154
34240SOL    HW1 4559   4.793  10.672  13.084
34240SOL    HW2 4560   4.815  10.675  13.234
34241SOL     OW 4561   1.465   4.811  13.666
34241SOL    HW1 4562   1.459   4.780  13.575
34241SOL    HW2 4563   1.384   4.782  13.706
34242SOL     OW 4564   2.556  12.893   9.206
34242SOL    HW1 4565   2.613  12.858   9.137
34242SOL    HW2 4566   2.596  12.976   9.230
34243SOL     OW 4567  13.407   0.300   4.557
34243SOL    HW1 4568  13.453   0.271   4.636
34243SOL    HW2 4569  13.349   0.228   4.535
34244SOL     OW 4570  14.280   3.398   7.918
34244SOL    HW1 4571  14.374   3.416   7.920
34244SOL    HW2 4572  14.274   3.311   7.879
34245SOL     OW 4573   7.496  14.543  14.067
34245SOL    HW1 4574   7.443  14.492  14.128
34245SOL    HW2 4575   7.462  14.632  14.074
34246SOL     OW 4576  14.676   9.388   4.363
34246SOL    HW1 4577  14.645   9.341   4.441
34246SOL    HW2 4578  14.757   9.343   4.338
34247SOL     OW 4579  10.059   3.217   6.612
34247SOL    HW1 4580  10.067   3.294   6.555
34247SOL    HW2 4581  10.093   3.144   6.559
34248SOL     OW 4582  13.764   8.975   8.865
34248SOL    HW1 4583  13.701   9.035   8.905
34248SOL    HW2 4584  13.847   9.024   8.865
34249SOL     OW 4585   0.088   3.868  13.631
34249SOL    HW1 4586   0.052   3.853  13.543
34249SOL    HW2 4587   0.018   3.914  13.677
34250SOL     OW 4588   3.861  10.889   0.853
34250SOL    HW1 4589   3.838  10.870   0.944
34250SOL    HW2 4590   3.857  10.804   0.809
34251SOL     OW 4591   7.690  11.615  10.827
34251SOL    HW1 4592   7.650  11.700  10.848
34251SOL    HW2 4593   7.634  11.579  10.758
34252SOL     OW 4594  14.649   8.416   0.154
34252SOL    HW1 4595  14.698   8.346   0.111
34252SOL    HW2 4596  14.587   8.370   0.211
34253SOL     OW 4597   6.135  12.990   6.546
34253SOL    HW1 4598   6.098  13.003   6.458
34253SOL    HW2 4599   6.223  12.957   6.530
34254SOL     OW 4600  13.280   2.865  11.878
34254SOL    HW1 4601  13.280   2.957  11.905
34254SOL    HW2 4602  13.200   2.829  11.916
34255SOL     OW 4603   3.488   5.537  13.952
34255SOL    HW1 4604   3.414   5.588  13.985
34255SOL    HW2 4605   3.565   5.587  13.981
34256SOL     OW 4606   1.902  12.370   7.549
34256SOL    HW1 4607   1.862  12.356   7.634
34256SOL    HW2 4608   1.860  12.306   7.491
34257SOL     OW 4609   3.903   4.668   3.641
34257SOL    HW1 4610   3.922   4.625   3.557
34257SOL    HW2 4611   3.929   4.604   3.707
34258SOL     OW 4612   8.482   8.581   2.389
34258SOL    HW1 4613   8.443   8.609   2.306
34258SOL    HW2 4614   8.512   8.662   2.430
34259SOL     OW 4615  11.021  11.179   5.658
34259SOL    HW1 4616  11.080  11.203   5.729
34259SOL    HW2 4617  11.078  11.143   5.590
34260SOL     OW 4618   2.234  13.447   6.759
34260SOL    HW1 4619   2.329  13.452   6.771
34260SOL    HW2 4620   2.222  13.437   6.665
34261SOL     OW 4621   0.308   7.869   1.656
34261SOL    HW1 4622   0.299   7.787   1.608
34261SOL    HW2 4623   0.225   7.878   1.704
34262SOL     OW 4624   7.948   7.971   2.662
34262SOL    HW1 4625   8.033   8.014   2.676
34262SOL    HW2 4626   7.890   8.012   2.725
34263SOL     OW 4627   6.958  12.597   3.309
34263SOL    HW1 4628   7.039  12.650   3.307
34263SOL    HW2 4629   6.989  12.507   3.306
34264SOL     OW 4630   2.803   6.952  12.175
34264SOL    HW1 4631   2.712   6.974  12.192
34264SOL    HW2 4632   2.854   7.023  12.215
34265SOL     OW 4633  10.326   5.254   3.224
34265SOL    HW1 4634  10.348   5.223   3.136
34265SOL    HW2 4635  10.347   5.347   3.223
34266SOL     OW 4636  14.169   7.231  11.990
34266SOL    HW1 4637  14.257   7.198  11.973
34266SOL    HW2 4638  14.179   7.293  12.062
34267SOL     OW 4639  12.774   9.126  13.640
34267SOL    HW1 4640  12.758   9.045  13.592
34267SOL    HW2 4641  12.798   9.190  13.572
34268SOL     OW 4642   7.109   9.378  11.415
34268SOL    HW1 4643   7.162   9.439  11.364
34268SOL    HW2 4644   7.171   9.335  11.474
34269SOL     OW 4645   5.424  13.644   0.399
34269SOL    HW1 4646   5.344  13.681   0.437
34269SOL    HW2 4647   5.436  13.561   0.445
34270SOL     OW 4648   7.416  10.564   6.101
34270SOL    HW1 4649   7.366  10.541   6.023
34270SOL    HW2 4650   7.505  10.534   6.082
34271SOL     OW 4651   7.605   8.733  12.547
34271SOL    HW1 4652   7.694   8.702  12.562
34271SOL    HW2 4653   7.582   8.783  12.625
34272SOL     OW 4654  11.875   4.344  10.003
34272SOL    HW1 4655  11.955   4.331  10.055
34272SOL    HW2 4656  11.805   4.346  10.068
34273SOL     OW 4657   1.960   9.984   5.119
34273SOL    HW1 4658   2.048  10.004   5.088
34273SOL    HW2 4659   1.910  10.063   5.101
34274SOL     OW 4660   3.384   7.133  12.822
34274SOL    HW1 4661   3.336   7.057  12.855
34274SOL    HW2 4662   3.453   7.148  12.886
34275SOL     OW 4663  11.179   3.046   3.524
34275SOL    HW1 4664  11.114   3.062   3.456
34275SOL    HW2 4665  11.184   2.951   3.532
34276SOL     OW 4666  12.930   4.133   3.268
34276SOL    HW1 4667  12.958   4.073   3.199
34276SOL    HW2 4668  12.924   4.218   3.224
34277SOL     OW 4669   3.033  11.873  14.232
34277SOL    HW1 4670   3.066  11.784  14.241
34277SOL    HW2 4671   2.952  11.874  14.284
34278SOL     OW 4672  13.030  14.844   1.832
34278SOL    HW1 4673  13.075  14.840   1.917
34278SOL    HW2 4674  12.937  14.847   1.855
34279SOL     OW 4675   7.051   2.519  10.547
34279SOL    HW1 4676   7.034   2.556  10.460
34279SOL    HW2 4677   7.017   2.585  10.608
34280SOL     OW 4678  10.954   4.942  10.179
34280SOL    HW1 4679  10.897   5.018  10.168
34280SOL    HW2 4680  10.906   4.870  10.136
34281SOL     OW 4681   2.934  13.744   6.982
34281SOL    HW1 4682   2.969  13.796   6.909
34281SOL    HW2 4683   2.935  13.654   6.949
34282SOL     OW 4684  13.297   2.198  11.446
34282SOL    HW1 4685  13.253   2.283  11.437
34282SOL    HW2 4686  13.228   2.133  11.430
34283SOL     OW 4687  14.179   6.981   5.063
34283SOL    HW1 4688  14.227   6.907   5.099
34283SOL    HW2 4689  14.220   7.058   5.101
34284SOL     OW 4690  10.982   4.661   4.012
34284SOL    HW1 4691  10.910   4.655   3.950
34284SOL    HW2 4692  11.049   4.713   3.968
34285SOL     OW 4693  13.813  12.125   2.763
34285SOL    HW1 4694  13.907  12.144   2.763
34285SOL    HW2 4695  13.775  12.192   2.705
34286SOL     OW 4696  14.545   4.177  10.030
34286SOL    HW1 4697  14.598   4.253  10.007
34286SOL    HW2 4698  14.548   4.174  10.125
34287SOL     OW 4699   9.086  10.192  13.688
34287SOL    HW1 4700   9.063  10.127  13.621
34287SOL    HW2 4701   9.038  10.164  13.766
34288SOL     OW 4702   0.755   7.176   8.550
34288SOL    HW1 4703   0.822   7.130   8.498
34288SOL    HW2 4704   0.789   7.172   8.640
34289SOL     OW 4705  11.922  14.362   8.496
34289SOL    HW1 4706  11.859  14.370   8.568
34289SOL    HW2 4707  11.915  14.271   8.468
34290SOL     OW 4708  14.573  11.209   0.821
34290SOL    HW1 4709  14.618  11.171   0.897
34290SOL    HW2 4710  14.619  11.172   0.746
34291SOL     OW 4711   1.975   4.691   1.977
34291SOL    HW1 4712   1.921   4.612   1.973
34291SOL    HW2 4713   1.959   4.726   2.065
34292SOL     OW 4714   3.314   3.408  11.514
34292SOL    HW1 4715   3.250   3.479  11.522
34292SOL    HW2 4716   3.389   3.449  11.471
34293SOL     OW 4717   5.570   3.386  10.984
34293SOL    HW1 4718   5.541   3.467  11.027
34293SOL    HW2 4719   5.490   3.350  10.946
34294SOL     OW 4720   8.901   1.379  13.763
34294SOL    HW1 4721   8.894   1.437  13.687
34294SOL    HW2 4722   8.896   1.437  13.838
34295SOL     OW 4723  13.638   9.481   0.792
34295SOL    HW1 4724  13.712   9.541   0.782
34295SOL    HW2 4725  13.562   9.539   0.799
34296SOL     OW 4726   3.201  12.534  10.985
34296SOL    HW1 4727   3.296  12.532  10.989
34296SOL    HW2 4728   3.177  12.615  11.030
34297SOL     OW 4729   7.710  10.610   9.196
34297SOL    HW1 4730   7.694  10.626   9.289
34297SOL    HW2 4731   7.736  10.695   9.161
34298SOL     OW 4732   3.769   0.755   6.474
34298SOL    HW1 4733   3.791   0.822   6.409
34298SOL    HW2 4734   3.840   0.759   6.537
34299SOL     OW 4735   8.880   9.284   5.246
34299SOL    HW1 4736   8.936   9.267   5.170
34299SOL    HW2 4737   8.896   9.376   5.267
34300SOL     OW 4738  12.438  11.748  13.849
34300SOL    HW1 4739  12.428  11.829  13.897
34300SOL    HW2 4740  12.446  11.680  13.916
34301SOL     OW 4741   1.010   1.176   0.461
34301SOL    HW1 4742   1.038   1.089   0.433
34301SOL    HW2 4743   0.972   1.162   0.548
34302SOL     OW 4744  11.724  14.150  11.574
34302SOL    HW1 4745  11.703  14.058  11.588
34302SOL    HW2 4746  11.674  14.174  11.495
34303SOL     OW 4747  13.646  13.902   4.901
34303SOL    HW1 4748  13.587  13.911   4.976
34303SOL    HW2 4749  13.648  13.989   4.861
34304SOL     OW 4750   7.286   1.064   1.465
34304SOL    HW1 4751   7.201   1.042   1.504
34304SOL    HW2 4752   7.263   1.115   1.387
34305SOL     OW 4753   2.575   7.739   8.966
34305SOL    HW1 4754   2.563   7.768   9.057
34305SOL    HW2 4755   2.527   7.657   8.961
34306SOL     OW 4756   0.576   2.584   5.842
34306SOL    HW1 4757   0.566   2.677   5.860
34306SOL    HW2 4758   0.655   2.558   5.890
34307SOL     OW 4759   6.543   4.904   4.396
34307SOL    HW1 4760   6.616   4.912   4.335
34307SOL    HW2 4761   6.584   4.909   4.483
34308SOL     OW 4762  13.678   8.875   6.476
34308SOL    HW1 4763  13.741   8.918   6.534
34308SOL    HW2 4764  13.660   8.791   6.518
34309SOL     OW 4765   0.022   5.181   2.672
34309SOL    HW1 4766  14.836   5.115   2.638
34309SOL    HW2 4767  14.844   5.227   2.739
34310SOL     OW 4768   3.058   7.660   1.454
34310SOL    HW1 4769   3.136   7.623   1.497
34310SOL    HW2 4770   3.027   7.590   1.398
34311SOL     OW 4771   5.701   3.659   5.172
34311SOL    HW1 4772   5.758   3.712   5.116
34311SOL    HW2 4773   5.719   3.568   5.146
34312SOL     OW 4774   5.001   9.722  13.618
34312SOL    HW1 4775   4.962   9.728  13.531
34312SOL    HW2 4776   4.953   9.652  13.661
34313SOL     OW 4777   0.411   1.322   1.600
34313SOL    HW1 4778   0.480   1.259   1.620
34313SOL    HW2 4779   0.349   1.314   1.672
34314SOL     OW 4780   6.546  13.238  12.893
34314SOL    HW1 4781   6.531  13.332  12.895
34314SOL    HW2 4782   6.501  13.205  12.971
34315SOL     OW 4783   5.997   3.510   2.320
34315SOL    HW1 4784   6.090   3.495   2.303
34315SOL    HW2 4785   5.992   3.527   2.414
34316SOL     OW 4786   2.545   8.997  13.178
34316SOL    HW1 4787   2.510   9.008  13.267
34316SOL    HW2 4788   2.593   9.077  13.161
34317SOL     OW 4789   5.340   0.661   4.203
34317SOL    HW1 4790   5.286   0.717   4.258
34317SOL    HW2 4791   5.361   0.716   4.127
34318SOL     OW 4792   4.535  13.711   5.590
34318SOL    HW1 4793   4.615  13.734   5.543
34318SOL    HW2 4794   4.515  13.788   5.643
34319SOL     OW 4795   8.105   3.626  14.561
34319SOL    HW1 4796   8.135   3.622  14.470
34319SOL    HW2 4797   8.015   3.656  14.556
34320SOL     OW 4798  13.612   8.081   7.773
34320SOL    HW1 4799  13.683   8.124   7.724
34320SOL    HW2 4800  13.588   8.144   7.841
34321SOL     OW 4801   0.278   3.055   9.757
34321SOL    HW1 4802   0.353   3.002   9.784
34321SOL    HW2 4803   0.227   3.068   9.837
34322SOL     OW 4804   4.634  11.712   5.406
34322SOL    HW1 4805   4.618  11.673   5.493
34322SOL    HW2 4806   4.547  11.718   5.367
34323SOL     OW 4807   0.092   3.429   6.689
34323SOL    HW1 4808   0.124   3.494   6.626
34323SOL    HW2 4809   0.140   3.447   6.769
34324SOL     OW 4810   8.240   3.774   9.073
34324SOL    HW1 4811   8.248   3.680   9.088
34324SOL    HW2 4812   8.296   3.814   9.140
34325SOL     OW 4813   1.575  10.666   0.494
34325SOL    HW1 4814   1.582  10.746   0.546
34325SOL    HW2 4815   1.481  10.655   0.479
34326SOL     OW 4816  11.824   5.276   5.927
34326SOL    HW1 4817  11.869   5.200   5.891
34326SOL    HW2 4818  11.779   5.316   5.852
34327SOL     OW 4819  11.332   0.808   4.015
34327SOL    HW1 4820  11.243   0.773   4.028
34327SOL    HW2 4821  11.368   0.815   4.103
34328SOL     OW 4822  11.501  12.749   3.641
34328SOL    HW1 4823  11.466  12.771   3.727
34328SOL    HW2 4824  11.578  12.695   3.659
34329SOL     OW 4825   1.141   3.051  14.266
34329SOL    HW1 4826   1.109   3.136  14.298
34329SOL    HW2 4827   1.082   3.028  14.194
34330SOL     OW 4828  14.156  12.093   0.268
34330SOL    HW1 4829  14.169  12.022   0.331
34330SOL    HW2 4830  14.220  12.076   0.199
34331SOL     OW 4831   4.514  10.835   1.549
34331SOL    HW1 4832   4.494  10.742   1.560
34331SOL    HW2 4833   4.518  10.847   1.454
34332SOL     OW 4834   4.254   7.617  12.250
34332SOL    HW1 4835   4.162   7.591  12.238
34332SOL    HW2 4836   4.300   7.573  12.179
34333SOL     OW 4837   3.922   1.081   6.861
34333SOL    HW1 4838   3.903   1.017   6.929
34333SOL    HW2 4839   3.836   1.115   6.834
34334SOL     OW 4840   9.598   7.581   9.599
34334SOL    HW1 4841   9.640   7.664   9.620
34334SOL    HW2 4842   9.654   7.541   9.533
34335SOL     OW 4843   2.148   4.824  10.055
34335SOL    HW1 4844   2.113   4.739  10.081
34335SOL    HW2 4845   2.081   4.887  10.083
34336SOL     OW 4846   8.692   9.696   4.837
34336SOL    HW1 4847   8.673   9.603   4.822
34336SOL    HW2 4848   8.671   9.711   4.929
34337SOL     OW 4849   5.351   3.548   8.576
34337SOL    HW1 4850   5.440   3.574   8.602
34337SOL    HW2 4851   5.319   3.497   8.651
34338SOL     OW 4852  14.761  10.900  10.877
34338SOL    HW1 4853  14.747  10.965  10.947
34338SOL    HW2 4854  14.746  10.816  10.920
34339SOL     OW 4855  14.870  10.920   4.091
34339SOL    HW1 4856  14.810  10.955   4.025
34339SOL    HW2 4857  14.818  10.854   4.138
34340SOL     OW 4858  13.717   9.655  12.390
34340SOL    HW1 4859  13.812   9.655  12.402
34340SOL    HW2 4860  13.682   9.624  12.474
34341SOL     OW 4861   9.226   2.150   8.979
34341SOL    HW1 4862   9.142   2.197   8.984
34341SOL    HW2 4863   9.205   2.068   8.935
34342SOL     OW 4864   0.183  13.579   3.864
34342SOL    HW1 4865   0.143  13.626   3.791
34342SOL    HW2 4866   0.118  13.512   3.887
34343SOL     OW 4867   3.170   4.081   0.339
34343SOL    HW1 4868   3.123   4.038   0.267
34343SOL    HW2 4869   3.115   4.156   0.361
34344SOL     OW 4870   4.497   7.550   1.660
34344SOL    HW1 4871   4.445   7.613   1.611
34344SOL    HW2 4872   4.576   7.598   1.686
34345SOL     OW 4873   0.593   6.643   1.053
34345SOL    HW1 4874   0.605   6.575   0.986
34345SOL    HW2 4875   0.662   6.708   1.035
34346SOL     OW 4876  13.486   0.380   6.654
34346SOL    HW1 4877  13.470   0.437   6.729
34346SOL    HW2 4878  13.407   0.325   6.648
34347SOL     OW 4879   6.860   6.885  10.976
34347SOL    HW1 4880   6.806   6.947  10.928
34347SOL    HW2 4881   6.889   6.822  10.910
34348SOL     OW 4882   5.068   7.536   1.525
34348SOL    HW1 4883   5.062   7.544   1.620
34348SOL    HW2 4884   4.981   7.508   1.498
34349SOL     OW 4885  14.456   2.334   5.395
34349SOL    HW1 4886  14.463   2.240   5.378
34349SOL    HW2 4887  14.504   2.347   5.477
34350SOL     OW 4888   9.568  12.924  11.408
34350SOL    HW1 4889   9.623  12.851  11.436
34350SOL    HW2 4890   9.573  12.987  11.480
34351SOL     OW 4891   3.039   6.391   9.508
34351SOL    HW1 4892   3.032   6.300   9.535
34351SOL    HW2 4893   3.129   6.416   9.531
34352SOL     OW 4894  11.748  11.284   5.272
34352SOL    HW1 4895  11.755  11.377   5.293
34352SOL    HW2 4896  11.829  11.246   5.306
34353SOL     OW 4897  13.037  13.673   2.474
34353SOL    HW1 4898  13.056  13.682   2.567
34353SOL    HW2 4899  13.062  13.583   2.453
34354SOL     OW 4900   7.737  13.957   2.857
34354SOL    HW1 4901   7.822  13.963   2.813
34354SOL    HW2 4902   7.759  13.950   2.950
34355SOL     OW 4903   4.170  11.729   9.161
34355SOL    HW1 4904   4.167  11.647   9.210
34355SOL    HW2 4905   4.263  11.751   9.156
34356SOL     OW 4906   4.778   2.996   5.336
34356SOL    HW1 4907   4.755   2.924   5.396
34356SOL    HW2 4908   4.765   2.959   5.249
34357SOL     OW 4909   1.993  11.867   0.875
34357SOL    HW1 4910   2.041  11.950   0.868
34357SOL    HW2 4911   1.912  11.890   0.921
34358SOL     OW 4912   0.959   2.120  10.205
34358SOL    HW1 4913   1.004   2.088  10.126
34358SOL    HW2 4914   0.990   2.210  10.215
34359SOL     OW 4915   7.311  11.678  12.407
34359SOL    HW1 4916   7.259  11.704  12.331
34359SOL    HW2 4917   7.384  11.629  12.371
34360SOL     OW 4918   4.197  11.631   7.207
34360SOL    HW1 4919   4.159  11.668   7.287
34360SOL    HW2 4920   4.218  11.541   7.231
34361SOL     OW 4921   7.944  11.456   6.666
34361SOL    HW1 4922   7.937  11.487   6.576
34361SOL    HW2 4923   7.881  11.510   6.714
34362SOL     OW 4924   2.642  12.031  11.350
34362SOL    HW1 4925   2.581  12.061  11.283
34362SOL    HW2 4926   2.708  12.100  11.356
34363SOL     OW 4927   1.327   1.739   6.537
34363SOL    HW1 4928   1.356   1.690   6.615
34363SOL    HW2 4929   1.289   1.819   6.573
34364SOL     OW 4930   3.820   4.170   4.987
34364SOL    HW1 4931   3.731   4.161   4.953
34364SOL    HW2 4932   3.871   4.103   4.940
34365SOL     OW 4933  12.929   0.249  14.254
34365SOL    HW1 4934  12.914   0.155  14.264
34365SOL    HW2 4935  13.009   0.265  14.304
34366SOL     OW 4936  13.417   8.255   2.406
34366SOL    HW1 4937  13.372   8.233   2.488
34366SOL    HW2 4938  13.381   8.340   2.381
34367SOL     OW 4939  13.126   4.154   4.603
34367SOL    HW1 4940  13.183   4.230   4.592
34367SOL    HW2 4941  13.054   4.168   4.541
34368SOL     OW 4942  12.148   9.082   3.884
34368SOL    HW1 4943  12.128   8.992   3.908
34368SOL    HW2 4944  12.114   9.091   3.795
34369SOL     OW 4945   8.323  14.049   8.146
34369SOL    HW1 4946   8.237  14.075   8.113
34369SOL    HW2 4947   8.375  14.031   8.068
34370SOL     OW 4948   2.196   4.655   0.944
34370SOL    HW1 4949   2.272   4.694   0.902
34370SOL    HW2 4950   2.214   4.661   1.037
34371SOL     OW 4951  12.664   4.253  13.426
34371SOL    HW1 4952  12.659   4.325  13.364
34371SOL    HW2 4953  12.586   4.262  13.480
34372SOL     OW 4954  11.603   8.312  12.030
34372SOL    HW1 4955  11.530   8.286  11.975
34372SOL    HW2 4956  11.565   8.323  12.117
34373SOL     OW 4957   4.122  12.519  12.319
34373SOL    HW1 4958   4.086  12.496  12.405
34373SOL    HW2 4959   4.045  12.547  12.268
34374SOL     OW 4960   0.037   4.342  10.173
34374SOL    HW1 4961  14.832   4.377  10.128
34374SOL    HW2 4962   0.091   4.419  10.188
34375SOL     OW 4963   2.906   7.796  13.647
34375SOL    HW1 4964   2.965   7.744  13.701
34375SOL    HW2 4965   2.829   7.810  13.702
34376SOL     OW 4966   2.621   4.546   1.984
34376SOL    HW1 4967   2.570   4.466   1.992
34376SOL    HW2 4968   2.557   4.614   1.963
34377SOL     OW 4969  14.693   8.243   8.484
34377SOL    HW1 4970  14.667   8.270   8.572
34377SOL    HW2 4971  14.630   8.174   8.461
34378SOL     OW 4972   4.169   6.832   8.830
34378SOL    HW1 4973   4.264   6.821   8.831
34378SOL    HW2 4974   4.155   6.920   8.866
34379SOL     OW 4975   4.316  11.178   1.097
34379SOL    HW1 4976   4.255  11.106   1.078
34379SOL    HW2 4977   4.397  11.153   1.053
34380SOL     OW 4978   4.531   8.976  12.357
34380SOL    HW1 4979   4.524   8.900  12.415
34380SOL    HW2 4980   4.610   8.959  12.305
34381SOL     OW 4981   5.207   0.490  10.782
34381SOL    HW1 4982   5.120   0.502  10.746
34381SOL    HW2 4983   5.209   0.545  10.860
34382SOL     OW 4984  14.258   2.181  12.612
34382SOL    HW1 4985  14.187   2.119  12.629
34382SOL    HW2 4986  14.261   2.236  12.690
34383SOL     OW 4987  12.577   1.836   2.210
34383SOL    HW1 4988  12.527   1.844   2.291
34383SOL    HW2 4989  12.645   1.903   2.217
34384SOL     OW 4990   2.178   7.429  12.717
34384SOL    HW1 4991   2.271   7.444  12.735
34384SOL    HW2 4992   2.132   7.493  12.771
34385SOL     OW 4993   0.050  13.090  13.342
34385SOL    HW1 4994  14.840  13.121  13.379
34385SOL    HW2 4995   0.088  13.036  13.411
34386SOL     OW 4996   9.148   7.024   6.467
34386SOL    HW1 4997   9.086   6.966   6.422
34386SOL    HW2 4998   9.093   7.075   6.527
34387SOL     OW 4999  10.168   6.471  11.925
34387SOL    HW1 5000  10.153   6.519  12.007
34387SOL    HW2 5001  10.134   6.529  11.857
34388SOL     OW 5002  13.557   4.255   2.939
34388SOL    HW1 5003  13.576   4.323   3.003
34388SOL    HW2 5004  13.486   4.291   2.886
34389SOL     OW 5005   7.452   6.654   1.855
34389SOL    HW1 5006   7.452   6.688   1.945
34389SOL    HW2 5007   7.444   6.731   1.800
34390SOL     OW 5008  13.553  12.894   0.886
34390SOL    HW1 5009  13.516  12.807   0.903
34390SOL    HW2 5010  13.482  12.943   0.845
34391SOL     OW 5011  12.338  10.185   2.385
34391SOL    HW1 5012  12.413  10.133   2.415
34391SOL    HW2 5013  12.262  10.144   2.425
34392SOL     OW 5014   5.418   1.036  10.714
34392SOL    HW1 5015   5.379   1.015  10.799
34392SOL    HW2 5016   5.345   1.066  10.660
34393SOL     OW 5017  11.440   6.368   7.816
34393SOL    HW1 5018  11.506   6.434   7.792
34393SOL    HW2 5019  11.422   6.323   7.733
34394SOL     OW 5020   3.260   8.794   5.503
34394SOL    HW1 5021   3.304   8.879   5.510
34394SOL    HW2 5022   3.168   8.815   5.487
34395SOL     OW 5023   0.744   5.271   3.974
34395SOL    HW1 5024   0.732   5.308   3.887
34395SOL    HW2 5025   0.690   5.327   4.031
34396SOL     OW 5026   7.983   8.602  11.116
34396SOL    HW1 5027   7.975   8.623  11.209
34396SOL    HW2 5028   7.964   8.508  11.111
34397SOL     OW 5029   3.788   0.453   9.989
34397SOL    HW1 5030   3.813   0.536   9.946
34397SOL    HW2 5031   3.864   0.397   9.977
34398SOL     OW 5032  14.019  14.691  11.628
34398SOL    HW1 5033  13.941  14.648  11.662
34398SOL    HW2 5034  13.986  14.756  11.566
34399SOL     OW 5035   4.955  13.449   1.803
34399SOL    HW1 5036   4.944  13.544   1.805
34399SOL    HW2 5037   5.031  13.435   1.747
34400SOL     OW 5038   5.463   5.989   9.424
34400SOL    HW1 5039   5.533   6.035   9.471
34400SOL    HW2 5040   5.455   6.036   9.341
34401SOL     OW 5041   8.611  13.210  12.113
34401SOL    HW1 5042   8.589  13.145  12.179
34401SOL    HW2 5043   8.703  13.193  12.092
34402SOL     OW 5044   1.633   6.927   8.688
34402SOL    HW1 5045   1.692   6.991   8.648
34402SOL    HW2 5046   1.546   6.952   8.657
34403SOL     OW 5047   0.134  10.701  13.702
34403SOL    HW1 5048   0.075  10.638  13.662
34403SOL    HW2 5049   0.113  10.699  13.795
34404SOL     OW 5050   3.982   1.686   5.636
34404SOL    HW1 5051   3.928   1.650   5.566
34404SOL    HW2 5052   4.034   1.611   5.666
34405SOL     OW 5053   8.958   9.938   2.897
34405SOL    HW1 5054   9.031   9.943   2.959
34405SOL    HW2 5055   8.984   9.870   2.835
34406SOL     OW 5056  14.593  14.301   9.351
34406SOL    HW1 5057  14.569  14.223   9.301
34406SOL    HW2 5058  14.686  14.288   9.372
34407SOL     OW 5059  12.306  13.546   7.230
34407SOL    HW1 5060  12.397  13.515   7.228
34407SOL    HW2 5061  12.253  13.466   7.235
34408SOL     OW 5062   9.847   9.001   5.629
34408SOL    HW1 5063   9.873   8.912   5.652
34408SOL    HW2 5064   9.923   9.055   5.652
34409SOL     OW 5065   1.513   8.313  13.934
34409SOL    HW1 5066   1.430   8.360  13.920
34409SOL    HW2 5067   1.559   8.367  13.999
34410SOL     OW 5068  10.768   1.605  11.089
34410SOL    HW1 5069  10.721   1.685  11.065
34410SOL    HW2 5070  10.705   1.554  11.139
34411SOL     OW 5071   3.912  12.383   1.910
34411SOL    HW1 5072   3.818  12.397   1.896
34411SOL    HW2 5073   3.916  12.329   1.989
34412SOL     OW 5074  10.374   1.818   9.148
34412SOL    HW1 5075  10.316   1.828   9.223
34412SOL    HW2 5076  10.460   1.798   9.186
34413SOL     OW 5077   2.379   4.900  11.088
34413SOL    HW1 5078   2.465   4.924  11.054
34413SOL    HW2 5079   2.369   4.951  11.168
34414SOL     OW 5080   9.631   1.067   2.206
34414SOL    HW1 5081   9.689   1.130   2.164
34414SOL    HW2 5082   9.679   0.984   2.204
34415SOL     OW 5083   5.188  13.638   1.161
34415SOL    HW1 5084   5.112  13.675   1.117
34415SOL    HW2 5085   5.162  13.629   1.252
34416SOL     OW 5086  14.135  10.603   5.368
34416SOL    HW1 5087  14.126  10.523   5.420
34416SOL    HW2 5088  14.057  10.655   5.391
34417SOL     OW 5089  14.317   8.188   1.788
34417SOL    HW1 5090  14.345   8.124   1.723
34417SOL    HW2 5091  14.387   8.254   1.788
34418SOL     OW 5092   0.805  14.439   1.029
34418SOL    HW1 5093   0.883  14.398   1.065
34418SOL    HW2 5094   0.828  14.459   0.938
34419SOL     OW 5095   4.758   4.822  14.402
34419SOL    HW1 5096   4.680   4.870  14.430
34419SOL    HW2 5097   4.815   4.889  14.365
34420SOL     OW 5098   3.898   6.357   8.897
34420SOL    HW1 5099   3.893   6.268   8.931
34420SOL    HW2 5100   3.910   6.412   8.975
34421SOL     OW 5101   8.013  10.692  13.593
34421SOL    HW1 5102   7.984  10.616  13.543
34421SOL    HW2 5103   8.057  10.655  13.669
34422SOL     OW 5104   2.655   3.617   5.755
34422SOL    HW1 5105   2.588   3.599   5.822
34422SOL    HW2 5106   2.694   3.700   5.783
34423SOL     OW 5107   7.115   7.416  10.181
34423SOL    HW1 5108   7.162   7.457  10.107
34423SOL    HW2 5109   7.076   7.490  10.227
34424SOL     OW 5110   9.614  13.237  11.683
34424SOL    HW1 5111   9.704  13.203  11.676
34424SOL    HW2 5112   9.625  13.332  11.687
34425SOL     OW 5113   6.906  11.642  12.338
34425SOL    HW1 5114   6.919  11.553  12.370
34425SOL    HW2 5115   6.991  11.666  12.299
34426SOL     OW 5116  13.884   9.412  11.850
34426SOL    HW1 5117  13.906   9.494  11.806
34426SOL    HW2 5118  13.939   9.411  11.927
34427SOL     OW 5119  14.644   3.575   8.998
34427SOL    HW1 5120  14.556   3.591   9.031
34427SOL    HW2 5121  14.669   3.656   8.953
34428SOL     OW 5122   2.225   5.381   8.758
34428SOL    HW1 5123   2.312   5.358   8.790
34428SOL    HW2 5124   2.166   5.326   8.808
34429SOL     OW 5125   5.042   1.723  12.021
34429SOL    HW1 5126   4.959   1.727  11.974
34429SOL    HW2 5127   5.083   1.808  12.005
34430SOL     OW 5128   3.099  14.413  11.513
34430SOL    HW1 5129   3.161  14.463  11.567
34430SOL    HW2 5130   3.152  14.383  11.439
34431SOL     OW 5131   4.070  11.553   0.596
34431SOL    HW1 5132   4.126  11.626   0.569
34431SOL    HW2 5133   4.130  11.480   0.607
34432SOL     OW 5134   5.233   4.487   3.315
34432SOL    HW1 5135   5.218   4.416   3.377
34432SOL    HW2 5136   5.169   4.471   3.245
34433SOL     OW 5137  13.851  13.908   3.203
34433SOL    HW1 5138  13.913  13.853   3.251
34433SOL    HW2 5139  13.836  13.862   3.121
34434SOL     OW 5140   0.796   3.246   6.583
34434SOL    HW1 5141   0.821   3.188   6.655
34434SOL    HW2 5142   0.833   3.205   6.505
34435SOL     OW 5143   1.184   8.342  14.508
34435SOL    HW1 5144   1.172   8.414  14.447
34435SOL    HW2 5145   1.240   8.377  14.577
34436SOL     OW 5146  14.309   7.734  14.727
34436SOL    HW1 5147  14.337   7.774  14.810
34436SOL    HW2 5148  14.358   7.653  14.721
34437SOL     OW 5149   0.096  10.675  12.475
34437SOL    HW1 5150   0.054  10.657  12.391
34437SOL    HW2 5151   0.150  10.752  12.459
34438SOL     OW 5152   2.410  12.562   9.837
34438SOL    HW1 5153   2.394  12.523   9.923
34438SOL    HW2 5154   2.493  12.525   9.809
34439SOL     OW 5155  11.352   7.543   9.827
34439SOL    HW1 5156  11.268   7.555   9.783
34439SOL    HW2 5157  11.411   7.607   9.787
34440SOL     OW 5158   7.296  10.546   3.165
34440SOL    HW1 5159   7.379  10.579   3.198
34440SOL    HW2 5160   7.312  10.455   3.144
34441SOL     OW 5161  10.870   8.768   9.340
34441SOL    HW1 5162  10.960   8.787   9.367
34441SOL    HW2 5163  10.867   8.673   9.333
34442SOL     OW 5164   1.196   5.407   5.422
34442SOL    HW1 5165   1.207   5.377   5.512
34442SOL    HW2 5166   1.267   5.366   5.374
34443SOL     OW 5167   8.260   3.146   3.795
34443SOL    HW1 5168   8.337   3.202   3.787
34443SOL    HW2 5169   8.186   3.206   3.787
34444SOL     OW 5170   7.106   9.782  11.530
34444SOL    HW1 5171   7.100   9.708  11.591
34444SOL    HW2 5172   7.016   9.811  11.519
34445SOL     OW 5173   9.594  13.989   4.740
34445SOL    HW1 5174   9.686  13.973   4.716
34445SOL    HW2 5175   9.553  14.020   4.659
34446SOL     OW 5176   3.558  14.225  11.725
34446SOL    HW1 5177   3.541  14.131  11.722
34446SOL    HW2 5178   3.528  14.252  11.811
34447SOL     OW 5179  10.708  14.421   5.472
34447SOL    HW1 5180  10.690  14.515   5.466
34447SOL    HW2 5181  10.651  14.382   5.405
34448SOL     OW 5182   8.059   8.702   4.780
34448SOL    HW1 5183   8.019   8.659   4.855
34448SOL    HW2 5184   8.146   8.728   4.812
34449SOL     OW 5185  10.962   2.393   2.421
34449SOL    HW1 5186  10.939   2.484   2.402
34449SOL    HW2 5187  10.967   2.351   2.335
34450SOL     OW 5188   8.623   4.054   1.187
34450SOL    HW1 5189   8.627   3.967   1.227
34450SOL    HW2 5190   8.713   4.086   1.191
34451SOL     OW 5191   2.158   7.357   7.829
34451SOL    HW1 5192   2.119   7.442   7.808
34451SOL    HW2 5193   2.203   7.331   7.749
34452SOL     OW 5194   1.495   4.725  10.811
34452SOL    HW1 5195   1.568   4.759  10.862
34452SOL    HW2 5196   1.514   4.632  10.800
34453SOL     OW 5197  11.929   7.027   2.566
34453SOL    HW1 5198  12.004   6.967   2.563
34453SOL    HW2 5199  11.968   7.114   2.570
34454SOL     OW 5200   8.508  13.876   7.596
34454SOL    HW1 5201   8.586  13.897   7.647
34454SOL    HW2 5202   8.465  13.806   7.644
34455SOL     OW 5203   4.317   8.296   6.632
34455SOL    HW1 5204   4.379   8.277   6.562
34455SOL    HW2 5205   4.355   8.256   6.710
34456SOL     OW 5206   1.146   1.739   1.356
34456SOL    HW1 5207   1.190   1.743   1.271
34456SOL    HW2 5208   1.053   1.752   1.336
34457SOL     OW 5209   3.022  12.509   0.499
34457SOL    HW1 5210   3.115  12.499   0.479
34457SOL    HW2 5211   2.978  12.449   0.439
34458SOL     OW 5212   4.745   4.850   0.216
34458SOL    HW1 5213   4.805   4.845   0.290
34458SOL    HW2 5214   4.685   4.921   0.239
34459SOL     OW 5215  12.292  14.457   1.758
34459SOL    HW1 5216  12.200  14.461   1.782
34459SOL    HW2 5217  12.310  14.364   1.746
34460SOL     OW 5218   0.201   4.703  12.407
34460SOL    HW1 5219   0.186   4.611  12.385
34460SOL    HW2 5220   0.113   4.741  12.411
34461SOL     OW 5221   9.079   3.265  13.999
34461SOL    HW1 5222   9.120   3.184  14.030
34461SOL    HW2 5223   8.988   3.240  13.981
34462SOL     OW 5224   5.336  14.571  10.758
34462SOL    HW1 5225   5.404  14.504  10.760
34462SOL    HW2 5226   5.358  14.630  10.830
34463SOL     OW 5227  13.451   2.060  14.180
34463SOL    HW1 5228  13.466   2.102  14.096
34463SOL    HW2 5229  13.524   2.088  14.235
34464SOL     OW 5230   1.802  11.994  10.740
34464SOL    HW1 5231   1.707  11.986  10.750
34464SOL    HW2 5232   1.838  11.931  10.802
34465SOL     OW 5233  12.446  12.194   2.887
34465SOL    HW1 5234  12.372  12.137   2.906
34465SOL    HW2 5235  12.522  12.147   2.922
34466SOL     OW 5236   5.972   1.986   6.675
34466SOL    HW1 5237   6.062   2.019   6.682
34466SOL    HW2 5238   5.945   1.972   6.766
34467SOL     OW 5239   2.914   4.068  11.902
34467SOL    HW1 5240   2.938   4.017  11.980
34467SOL    HW2 5241   2.845   4.127  11.933
34468SOL     OW 5242   4.450   5.807   7.227
34468SOL    HW1 5243   4.425   5.819   7.318
34468SOL    HW2 5244   4.398   5.871   7.178
34469SOL     OW 5245   4.732   7.527  11.044
34469SOL    HW1 5246   4.751   7.476  11.123
34469SOL    HW2 5247   4.665   7.589  11.071
34470SOL     OW 5248   5.990   5.307   0.143
34470SOL    HW1 5249   6.004   5.252   0.066
34470SOL    HW2 5250   6.064   5.287   0.200
34471SOL     OW 5251   4.879   7.090  11.786
34471SOL    HW1 5252   4.891   6.997  11.804
34471SOL    HW2 5253   4.816   7.092  11.714
34472SOL     OW 5254   0.185   8.612   2.517
34472SOL    HW1 5255   0.107   8.568   2.552
34472SOL    HW2 5256   0.156   8.650   2.434
34473SOL     OW 5257   1.240   2.914   2.998
34473SOL    HW1 5258   1.247   2.946   2.908
34473SOL    HW2 5259   1.301   2.970   3.047
34474SOL     OW 5260  10.402   0.250   9.490
34474SOL    HW1 5261  10.493   0.232   9.516
34474SOL    HW2 5262  10.352   0.241   9.571
34475SOL     OW 5263   7.150   6.369   2.870
34475SOL    HW1 5264   7.078   6.306   2.870
34475SOL    HW2 5265   7.182   6.368   2.779
34476SOL     OW 5266   9.818   9.448  11.470
34476SOL    HW1 5267   9.774   9.365  11.485
34476SOL    HW2 5268   9.884   9.453  11.539
34477SOL     OW 5269   7.516   6.483   5.649
34477SOL    HW1 5270   7.432   6.527   5.638
34477SOL    HW2 5271   7.498   6.391   5.632
34478SOL     OW 5272   7.917   7.284   9.126
34478SOL    HW1 5273   7.951   7.311   9.211
34478SOL    HW2 5274   7.827   7.256   9.142
34479SOL     OW 5275  10.037   2.875   3.960
34479SOL    HW1 5276  10.087   2.820   4.021
34479SOL    HW2 5277   9.946   2.868   3.990
34480SOL     OW 5278  13.775   5.175   9.891
34480SOL    HW1 5279  13.834   5.118   9.941
34480SOL    HW2 5280  13.763   5.251   9.948
34481SOL     OW 5281   0.428   1.867   5.399
34481SOL    HW1 5282   0.345   1.836   5.434
34481SOL    HW2 5283   0.421   1.963   5.402
34482SOL     OW 5284   7.518  12.795   4.016
34482SOL    HW1 5285   7.566  12.804   3.933
34482SOL    HW2 5286   7.463  12.873   4.019
34483SOL     OW 5287   5.892   9.094  14.240
34483SOL    HW1 5288   5.875   9.007  14.203
34483SOL    HW2 5289   5.955   9.134  14.180
34484SOL     OW 5290   0.841   2.583  10.229
34484SOL    HW1 5291   0.932   2.560  10.214
34484SOL    HW2 5292   0.801   2.503  10.262
34485SOL     OW 5293   2.081   7.262   9.579
34485SOL    HW1 5294   2.128   7.287   9.500
34485SOL    HW2 5295   2.027   7.339   9.600
34486SOL     OW 5296   3.838   4.663   8.653
34486SOL    HW1 5297   3.795   4.594   8.704
34486SOL    HW2 5298   3.823   4.638   8.562
34487SOL     OW 5299  10.023   9.298   1.943
34487SOL    HW1 5300  10.115   9.305   1.972
34487SOL    HW2 5301   9.982   9.379   1.974
34488SOL     OW 5302   8.291  12.428  12.814
34488SOL    HW1 5303   8.278  12.358  12.878
34488SOL    HW2 5304   8.268  12.388  12.730
34489SOL     OW 5305   0.480   2.486  13.156
34489SOL    HW1 5306   0.404   2.484  13.098
34489SOL    HW2 5307   0.555   2.497  13.098
34490SOL     OW 5308  11.911  10.738   3.696
34490SOL    HW1 5309  11.829  10.786   3.711
34490SOL    HW2 5310  11.975  10.805   3.673
34491SOL     OW 5311   8.453  14.265  14.800
34491SOL    HW1 5312   8.485  14.179  14.828
34491SOL    HW2 5313   8.435  14.255  14.707
34492SOL     OW 5314  10.218  14.457   0.872
34492SOL    HW1 5315  10.292  14.409   0.835
34492SOL    HW2 5316  10.252  14.545   0.886
34493SOL     OW 5317   8.979   0.989   5.280
34493SOL    HW1 5318   9.032   0.950   5.349
34493SOL    HW2 5319   8.900   1.020   5.325
34494SOL     OW 5320   4.064  12.386   5.620
34494SOL    HW1 5321   3.980  12.366   5.661
34494SOL    HW2 5322   4.042  12.410   5.530
34495SOL     OW 5323  14.722  14.645   5.725
34495SOL    HW1 5324  14.757  14.587   5.792
34495SOL    HW2 5325  14.794  14.705   5.706
34496SOL     OW 5326   2.795  11.653  10.948
34496SOL    HW1 5327   2.837  11.715  10.888
34496SOL    HW2 5328   2.847  11.573  10.941
34497SOL     OW 5329   5.185   7.073  14.669
34497SOL    HW1 5330   5.204   7.130  14.595
34497SOL    HW2 5331   5.138   7.129  14.731
34498SOL     OW 5332  12.399  14.323   6.913
34498SOL    HW1 5333  12.305  14.338   6.927
34498SOL    HW2 5334  12.413  14.232   6.939
34499SOL     OW 5335  12.209  10.408   8.163
34499SOL    HW1 5336  12.124  10.447   8.182
34499SOL    HW2 5337  12.227  10.353   8.239
34500SOL     OW 5338   4.559   1.633   6.701
34500SOL    HW1 5339   4.493   1.603   6.764
34500SOL    HW2 5340   4.605   1.703   6.747
34501SOL     OW 5341   3.805  12.166   4.873
34501SOL    HW1 5342   3.849  12.239   4.915
34501SOL    HW2 5343   3.719  12.162   4.915
34502SOL     OW 5344  11.905   3.239  11.233
34502SOL    HW1 5345  11.883   3.190  11.312
34502SOL    HW2 5346  11.830   3.225  11.174
34503SOL     OW 5347   6.172   5.257  12.143
34503SOL    HW1 5348   6.087   5.278  12.183
34503SOL    HW2 5349   6.179   5.317  12.069
34504SOL     OW 5350  11.982  10.612   6.767
34504SOL    HW1 5351  11.916  10.624   6.835
34504SOL    HW2 5352  12.058  10.662   6.798
34505SOL     OW 5353  10.318   8.585  11.312
34505SOL    HW1 5354  10.370   8.651  11.358
34505SOL    HW2 5355  10.227   8.607  11.333
34506SOL     OW 5356   9.871  14.678   1.432
34506SOL    HW1 5357   9.885  14.771   1.418
34506SOL    HW2 5358   9.944  14.635   1.388
34507SOL     OW 5359  14.857   4.657  10.908
34507SOL    HW1 5360  14.853   4.585  10.970
34507SOL    HW2 5361   0.032   4.726  10.954
34508SOL     OW 5362   1.024  12.925   1.521
34508SOL    HW1 5363   1.085  12.865   1.479
34508SOL    HW2 5364   1.064  13.012   1.509
34509SOL     OW 5365  11.820   6.073  14.690
34509SOL    HW1 5366  11.898   6.029  14.657
34509SOL    HW2 5367  11.853   6.150  14.737
34510SOL     OW 5368   3.988  10.940   4.790
34510SOL    HW1 5369   4.079  10.963   4.768
34510SOL    HW2 5370   3.994  10.856   4.835
34511SOL     OW 5371   8.962   8.188  11.082
34511SOL    HW1 5372   9.048   8.155  11.107
34511SOL    HW2 5373   8.945   8.150  10.995
34512SOL     OW 5374   1.544   9.368   0.220
34512SOL    HW1 5375   1.636   9.373   0.245
34512SOL    HW2 5376   1.522   9.457   0.192
34513SOL     OW 5377   2.360   0.174   5.678
34513SOL    HW1 5378   2.288   0.151   5.619
34513SOL    HW2 5379   2.317   0.208   5.756
34514SOL     OW 5380   2.501   3.769   0.495
34514SOL    HW1 5381   2.548   3.828   0.553
34514SOL    HW2 5382   2.495   3.687   0.545
34515SOL     OW 5383   6.832   6.112   0.200
34515SOL    HW1 5384   6.749   6.155   0.221
34515SOL    HW2 5385   6.871   6.166   0.131
34516SOL     OW 5386   1.291  14.203  11.316
34516SOL    HW1 5387   1.311  14.231  11.227
34516SOL    HW2 5388   1.282  14.284  11.366
34517SOL     OW 5389  10.454   5.455   0.592
34517SOL    HW1 5390  10.498   5.418   0.515
34517SOL    HW2 5391  10.361   5.437   0.578
34518SOL     OW 5392   0.746   1.649   2.648
34518SOL    HW1 5393   0.717   1.700   2.723
34518SOL    HW2 5394   0.701   1.689   2.573
34519SOL     OW 5395   1.773   5.718   9.290
34519SOL    HW1 5396   1.848   5.713   9.232
34519SOL    HW2 5397   1.700   5.744   9.233
34520SOL     OW 5398   2.340   2.823  11.112
34520SOL    HW1 5399   2.391   2.887  11.062
34520SOL    HW2 5400   2.371   2.738  11.080
34521SOL     OW 5401   6.105  11.182  13.849
34521SOL    HW1 5402   6.043  11.133  13.904
34521SOL    HW2 5403   6.050  11.235  13.791
34522SOL     OW 5404   6.262   1.610   0.173
34522SOL    HW1 5405   6.238   1.611   0.080
34522SOL    HW2 5406   6.198   1.553   0.214
34523SOL     OW 5407   0.158  13.485   9.765
34523SOL    HW1 5408   0.137  13.399   9.728
34523SOL    HW2 5409   0.232  13.468   9.824
34524SOL     OW 5410  12.296   6.060   2.259
34524SOL    HW1 5411  12.389   6.054   2.283
34524SOL    HW2 5412  12.264   6.136   2.307
34525SOL     OW 5413   5.147  10.129   9.759
34525SOL    HW1 5414   5.199  10.130   9.678
34525SOL    HW2 5415   5.190  10.065   9.815
34526SOL     OW 5416   8.073  14.580   3.815
34526SOL    HW1 5417   8.022  14.534   3.749
34526SOL    HW2 5418   8.164  14.562   3.792
34527SOL     OW 5419   4.738  14.490   5.990
34527SOL    HW1 5420   4.794  14.555   5.949
34527SOL    HW2 5421   4.742  14.414   5.932
34528SOL     OW 5422  13.755   3.061  10.282
34528SOL    HW1 5423  13.706   2.987  10.247
34528SOL    HW2 5424  13.733   3.063  10.375
34529SOL     OW 5425   8.218   7.723   8.098
34529SOL    HW1 5426   8.306   7.745   8.069
34529SOL    HW2 5427   8.225   7.717   8.193
34530SOL     OW 5428  11.939   4.800   2.681
34530SOL    HW1 5429  11.898   4.717   2.706
34530SOL    HW2 5430  11.990   4.780   2.603
34531SOL     OW 5431   6.926  10.279   5.251
34531SOL    HW1 5432   6.907  10.200   5.201
34531SOL    HW2 5433   6.964  10.247   5.333
34532SOL     OW 5434   4.329   5.447  11.321
34532SOL    HW1 5435   4.297   5.507  11.254
34532SOL    HW2 5436   4.327   5.497  11.402
34533SOL     OW 5437   2.028   9.980   1.106
34533SOL    HW1 5438   2.117   9.991   1.071
34533SOL    HW2 5439   1.976  10.044   1.057
34534SOL     OW 5440   5.558   5.928   6.775
34534SOL    HW1 5441   5.592   5.903   6.689
34534SOL    HW2 5442   5.588   6.018   6.788
34535SOL     OW 5443   6.081  12.883  10.877
34535SOL    HW1 5444   5.996  12.877  10.834
34535SOL    HW2 5445   6.141  12.910  10.807
34536SOL     OW 5446   8.123   8.167  11.499
34536SOL    HW1 5447   8.069   8.166  11.578
34536SOL    HW2 5448   8.072   8.218  11.436
34537SOL     OW 5449   2.067   6.597   9.086
34537SOL    HW1 5450   2.088   6.555   9.170
34537SOL    HW2 5451   1.987   6.648   9.104
34538SOL     OW 5452  11.074   3.390   3.229
34538SOL    HW1 5453  10.982   3.368   3.218
34538SOL    HW2 5454  11.106   3.409   3.141
34539SOL     OW 5455  10.883   4.650   9.066
34539SOL    HW1 5456  10.919   4.665   8.979
34539SOL    HW2 5457  10.925   4.715   9.121
34540SOL     OW 5458  13.665  14.492   6.676
34540SOL    HW1 5459  13.639  14.509   6.585
34540SOL    HW2 5460  13.693  14.401   6.677
34541SOL     OW 5461  13.922   9.102  12.047
34541SOL    HW1 5462  13.901   9.120  11.955
34541SOL    HW2 5463  13.857   9.153  12.096
34542SOL     OW 5464  12.123  10.889   9.251
34542SOL    HW1 5465  12.177  10.836   9.191
34542SOL    HW2 5466  12.187  10.933   9.307
34543SOL     OW 5467   2.659   6.883   0.722
34543SOL    HW1 5468   2.716   6.806   0.722
34543SOL    HW2 5469   2.590   6.861   0.785
34544SOL     OW 5470  11.444   5.071   2.833
34544SOL    HW1 5471  11.367   5.044   2.884
34544SOL    HW2 5472  11.436   5.166   2.825
34545SOL     OW 5473   8.029  10.099   3.511
34545SOL    HW1 5474   8.086  10.175   3.524
34545SOL    HW2 5475   8.089  10.027   3.492
34546SOL     OW 5476   5.917   6.219  14.655
34546SOL    HW1 5477   5.929   6.292  14.595
34546SOL    HW2 5478   5.853   6.162  14.611
34547SOL     OW 5479  10.845  12.191   2.204
34547SOL    HW1 5480  10.828  12.149   2.288
34547SOL    HW2 5481  10.794  12.142   2.140
34548SOL     OW 5482  11.849   8.524  10.779
34548SOL    HW1 5483  11.780   8.558  10.723
34548SOL    HW2 5484  11.921   8.504  10.719
34549SOL     OW 5485   6.584   2.659   0.740
34549SOL    HW1 5486   6.551   2.599   0.807
34549SOL    HW2 5487   6.679   2.645   0.741
34550SOL     OW 5488  14.477   8.761   0.498
34550SOL    HW1 5489  14.478   8.734   0.406
34550SOL    HW2 5490  14.568   8.781   0.518
34551SOL     OW 5491   6.032   2.936  13.303
34551SOL    HW1 5492   6.082   2.911  13.225
34551SOL    HW2 5493   5.957   2.876  13.304
34552SOL     OW 5494   2.873  13.027   6.692
34552SOL    HW1 5495   2.945  13.025   6.629
34552SOL    HW2 5496   2.879  12.942   6.737
34553SOL     OW 5497   0.822  10.069   5.179
34553SOL    HW1 5498   0.816  10.020   5.261
34553SOL    HW2 5499   0.909  10.110   5.182
34554SOL     OW 5500   3.872  12.454   0.740
34554SOL    HW1 5501   3.934  12.382   0.732
34554SOL    HW2 5502   3.911  12.525   0.688
34555SOL     OW 5503   3.575   6.227   2.282
34555SOL    HW1 5504   3.487   6.194   2.301
34555SOL    HW2 5505   3.614   6.242   2.368
34556SOL     OW 5506  14.862   3.214   4.448
34556SOL    HW1 5507   0.012   3.154   4.377
34556SOL    HW2 5508  14.810   3.282   4.407
34557SOL     OW 5509   6.296   0.762   2.543
34557SOL    HW1 5510   6.299   0.820   2.619
34557SOL    HW2 5511   6.327   0.816   2.470
34558SOL     OW 5512  12.422   4.201   1.598
34558SOL    HW1 5513  12.472   4.256   1.539
34558SOL    HW2 5514  12.332   4.202   1.563
34559SOL     OW 5515   8.644   1.028  10.125
34559SOL    HW1 5516   8.725   0.979  10.136
34559SOL    HW2 5517   8.638   1.043  10.030
34560SOL     OW 5518  12.274  11.001  11.188
34560SOL    HW1 5519  12.290  10.942  11.115
34560SOL    HW2 5520  12.180  10.993  11.205
34561SOL     OW 5521   2.091   9.809   9.562
34561SOL    HW1 5522   2.000   9.829   9.585
34561SOL    HW2 5523   2.128   9.771   9.642
34562SOL     OW 5524   0.901   0.213   9.383
34562SOL    HW1 5525   0.898   0.290   9.441
34562SOL    HW2 5526   0.928   0.248   9.298
34563SOL     OW 5527   1.560   1.777   1.214
34563SOL    HW1 5528   1.519   1.698   1.177
34563SOL    HW2 5529   1.548   1.769   1.308
34564SOL     OW 5530  10.833  11.413   5.630
34564SOL    HW1 5531  10.896  11.476   5.666
34564SOL    HW2 5532  10.875  11.328   5.641
34565SOL     OW 5533   1.546  10.443  10.252
34565SOL    HW1 5534   1.460  10.401  10.248
34565SOL    HW2 5535   1.545  10.506  10.179
34566SOL     OW 5536   9.643   1.878   1.461
34566SOL    HW1 5537   9.684   1.794   1.479
34566SOL    HW2 5538   9.550   1.864   1.478
34567SOL     OW 5539  10.406   7.141  10.126
34567SOL    HW1 5540  10.427   7.192  10.048
34567SOL    HW2 5541  10.395   7.206  10.195
34568SOL     OW 5542   7.466   9.652   2.528
34568SOL    HW1 5543   7.436   9.692   2.609
34568SOL    HW2 5544   7.500   9.567   2.554
34569SOL     OW 5545   3.623   0.054   6.806
34569SOL    HW1 5546   3.581   0.002   6.737
34569SOL    HW2 5547   3.700   0.092   6.763
34570SOL     OW 5548   3.172   4.763  10.742
34570SOL    HW1 5549   3.220   4.822  10.683
34570SOL    HW2 5550   3.152   4.687  10.688
34571SOL     OW 5551  11.582  10.347  12.268
34571SOL    HW1 5552  11.562  10.349  12.175
34571SOL    HW2 5553  11.539  10.424  12.304
34572SOL     OW 5554   0.591   5.236   3.322
34572SOL    HW1 5555   0.550   5.204   3.402
34572SOL    HW2 5556   0.668   5.181   3.310
34573SOL     OW 5557  13.936   4.343   1.273
34573SOL    HW1 5558  13.902   4.344   1.362
34573SOL    HW2 5559  13.860   4.363   1.218
34574SOL     OW 5560   0.963   7.242  11.842
34574SOL    HW1 5561   1.056   7.226  11.855
34574SOL    HW2 5562   0.922   7.157  11.857
34575SOL     OW 5563   4.841   9.028  13.362
34575SOL    HW1 5564   4.853   8.943  13.320
34575SOL    HW2 5565   4.778   9.073  13.306
34576SOL     OW 5566   5.322  10.756  12.367
34576SOL    HW1 5567   5.347  10.714  12.284
34576SOL    HW2 5568   5.369  10.706  12.434
34577SOL     OW 5569  12.686   7.425  12.815
34577SOL    HW1 5570  12.592   7.416  12.831
34577SOL    HW2 5571  12.719   7.335  12.811
34578SOL     OW 5572  14.204   2.198   0.983
34578SOL    HW1 5573  14.277   2.211   0.923
34578SOL    HW2 5574  14.197   2.103   0.991
34579SOL     OW 5575  13.654  11.381  14.356
34579SOL    HW1 5576  13.696  11.310  14.308
34579SOL    HW2 5577  13.566  11.386  14.320
34580SOL     OW 5578  13.279   1.137   0.450
34580SOL    HW1 5579  13.296   1.212   0.393
34580SOL    HW2 5580  13.272   1.063   0.390
34581SOL     OW 5581  12.272   9.937   7.146
34581SOL    HW1 5582  12.217   9.894   7.080
34581SOL    HW2 5583  12.354   9.888   7.144
34582SOL     OW 5584  10.547   1.470  10.060
34582SOL    HW1 5585  10.483   1.534  10.031
34582SOL    HW2 5586  10.503   1.421  10.130
34583SOL     OW 5587   1.137   0.652  13.846
34583SOL    HW1 5588   1.170   0.737  13.874
34583SOL    HW2 5589   1.216   0.597  13.839
34584SOL     OW 5590   4.473  14.505  12.215
34584SOL    HW1 5591   4.395  14.453  12.196
34584SOL    HW2 5592   4.448  14.559  12.290
34585SOL     OW 5593   1.378   2.773   7.862
34585SOL    HW1 5594   1.386   2.865   7.888
34585SOL    HW2 5595   1.468   2.743   7.850
34586SOL     OW 5596  10.677  11.935  10.519
34586SOL    HW1 5597  10.637  11.894  10.442
34586SOL    HW2 5598  10.604  11.976  10.565
34587SOL     OW 5599  14.246  13.765  10.100
34587SOL    HW1 5600  14.242  13.818  10.179
34587SOL    HW2 5601  14.154  13.740  10.084
34588SOL     OW 5602  12.769   8.134   3.812
34588SOL    HW1 5603  12.787   8.213   3.761
34588SOL    HW2 5604  12.816   8.065   3.766
34589SOL     OW 5605   0.523   5.998   8.117
34589SOL    HW1 5606   0.512   6.093   8.123
34589SOL    HW2 5607   0.508   5.967   8.207
34590SOL     OW 5608   6.644  10.930   0.983
34590SOL    HW1 5609   6.595  10.986   1.044
34590SOL    HW2 5610   6.711  10.889   1.037
34591SOL     OW 5611   3.477  13.430  11.304
34591SOL    HW1 5612   3.563  13.437  11.264
34591SOL    HW2 5613   3.490  13.458  11.394
34592SOL     OW 5614   9.823  13.620   1.123
34592SOL    HW1 5615   9.902  13.642   1.172
34592SOL    HW2 5616   9.778  13.704   1.112
34593SOL     OW 5617  11.069  13.725   5.114
34593SOL    HW1 5618  11.064  13.632   5.138
34593SOL    HW2 5619  11.096  13.769   5.194
34594SOL     OW 5620  11.110   1.423  14.741
34594SOL    HW1 5621  11.184   1.363  14.729
34594SOL    HW2 5622  11.150   1.504  14.772
34595SOL     OW 5623   2.077   1.712  11.714
34595SOL    HW1 5624   2.110   1.746  11.797
34595SOL    HW2 5625   2.152   1.718  11.654
34596SOL     OW 5626   1.706   5.399   3.067
34596SOL    HW1 5627   1.740   5.474   3.017
34596SOL    HW2 5628   1.668   5.341   3.000
34597SOL     OW 5629  14.450   0.143   7.223
34597SOL    HW1 5630  14.427   0.058   7.187
34597SOL    HW2 5631  14.528   0.127   7.275
34598SOL     OW 5632  10.853  10.815   4.760
34598SOL    HW1 5633  10.776  10.765   4.735
34598SOL    HW2 5634  10.926  10.756   4.745
34599SOL     OW 5635  10.259   7.932   7.174
34599SOL    HW1 5636  10.278   8.023   7.195
34599SOL    HW2 5637  10.173   7.915   7.213
34600SOL     OW 5638  12.501  14.214   0.687
34600SOL    HW1 5639  12.523  14.286   0.746
34600SOL    HW2 5640  12.533  14.242   0.601
34601SOL     OW 5641  12.021  13.672  12.941
34601SOL    HW1 5642  11.940  13.722  12.931
34601SOL    HW2 5643  12.013  13.631  13.027
34602SOL     OW 5644   8.137  12.667  13.380
34602SOL    HW1 5645   8.147  12.645  13.472
34602SOL    HW2 5646   8.042  12.678  13.368
34603SOL     OW 5647   9.180   2.516  13.321
34603SOL    HW1 5648   9.223   2.547  13.241
34603SOL    HW2 5649   9.132   2.437  13.293
34604SOL     OW 5650   2.757   2.488   0.761
34604SOL    HW1 5651   2.809   2.408   0.746
34604SOL    HW2 5652   2.779   2.545   0.687
34605SOL     OW 5653  13.694   9.059   4.872
34605SOL    HW1 5654  13.717   9.097   4.788
34605SOL    HW2 5655  13.635   9.123   4.912
34606SOL     OW 5656   6.544   4.340   0.869
34606SOL    HW1 5657   6.561   4.357   0.777
34606SOL    HW2 5658   6.449   4.328   0.874
34607SOL     OW 5659  10.244   8.973   2.893
34607SOL    HW1 5660  10.295   9.052   2.876
34607SOL    HW2 5661  10.225   8.937   2.806
34608SOL     OW 5662  13.470   1.758   5.774
34608SOL    HW1 5663  13.392   1.794   5.734
34608SOL    HW2 5664  13.471   1.666   5.747
34609SOL     OW 5665   1.267  12.310  13.166
34609SOL    HW1 5666   1.354  12.342  13.142
34609SOL    HW2 5667   1.279  12.215  13.177
34610SOL     OW 5668   2.008   2.028   5.969
34610SOL    HW1 5669   1.960   1.959   6.015
34610SOL    HW2 5670   2.054   1.982   5.898
34611SOL     OW 5671   6.454   2.046   9.415
34611SOL    HW1 5672   6.497   2.113   9.467
34611SOL    HW2 5673   6.424   1.982   9.480
34612SOL     OW 5674  10.818  14.578   0.874
34612SOL    HW1 5675  10.806  14.645   0.941
34612SOL    HW2 5676  10.912  14.568   0.866
34613SOL     OW 5677  10.070   7.856   4.949
34613SOL    HW1 5678  10.021   7.919   5.001
34613SOL    HW2 5679  10.152   7.900   4.928
34614SOL     OW 5680  13.588   6.111   8.264
34614SOL    HW1 5681  13.493   6.102   8.267
34614SOL    HW2 5682  13.619   6.073   8.346
34615SOL     OW 5683   2.068   3.507   3.298
34615SOL    HW1 5684   2.100   3.596   3.287
34615SOL    HW2 5685   2.031   3.506   3.386
34616SOL     OW 5686   8.545   1.046   4.831
34616SOL    HW1 5687   8.518   0.955   4.821
34616SOL    HW2 5688   8.622   1.042   4.888
34617SOL     OW 5689   2.254  14.802   1.471
34617SOL    HW1 5690   2.249  14.872   1.407
34617SOL    HW2 5691   2.348  14.791   1.488
34618SOL     OW 5692   8.730   4.867  14.526
34618SOL    HW1 5693   8.722   4.866  14.430
34618SOL    HW2 5694   8.821   4.844  14.542
34619SOL     OW 5695   3.515   1.301   1.047
34619SOL    HW1 5696   3.420   1.289   1.046
34619SOL    HW2 5697   3.543   1.269   1.132
34620SOL     OW 5698   5.417  12.145   0.412
34620SOL    HW1 5699   5.330  12.127   0.376
34620SOL    HW2 5700   5.466  12.183   0.339
34621SOL     OW 5701   0.016   4.392   5.118
34621SOL    HW1 5702   0.064   4.432   5.192
34621SOL    HW2 5703   0.034   4.450   5.044
34622SOL     OW 5704   3.122  13.294   0.456
34622SOL    HW1 5705   3.131  13.338   0.541
34622SOL    HW2 5706   3.211  13.265   0.434
34623SOL     OW 5707   6.310   4.563  10.688
34623SOL    HW1 5708   6.389   4.520  10.722
34623SOL    HW2 5709   6.330   4.579  10.595
34624SOL     OW 5710   5.798   2.140   4.538
34624SOL    HW1 5711   5.799   2.222   4.588
34624SOL    HW2 5712   5.859   2.156   4.466
34625SOL     OW 5713  13.476   1.190   8.162
34625SOL    HW1 5714  13.457   1.153   8.075
34625SOL    HW2 5715  13.409   1.152   8.219
34626SOL     OW 5716   2.796  13.395   9.407
34626SOL    HW1 5717   2.713  13.348   9.413
34626SOL    HW2 5718   2.808  13.412   9.314
34627SOL     OW 5719   3.654  12.124  13.573
34627SOL    HW1 5720   3.699  12.107  13.656
34627SOL    HW2 5721   3.566  12.153  13.599
34628SOL     OW 5722   0.985   7.665   2.156
34628SOL    HW1 5723   0.922   7.675   2.086
34628SOL    HW2 5724   0.934   7.633   2.230
34629SOL     OW 5725   2.561   4.214   1.650
34629SOL    HW1 5726   2.495   4.250   1.710
34629SOL    HW2 5727   2.576   4.284   1.587
34630SOL     OW 5728   1.065   6.736   3.832
34630SOL    HW1 5729   0.970   6.727   3.836
34630SOL    HW2 5730   1.080   6.809   3.771
34631SOL     OW 5731   4.449   5.573   5.945
34631SOL    HW1 5732   4.485   5.522   6.017
34631SOL    HW2 5733   4.424   5.507   5.880
34632SOL     OW 5734  12.587  11.985  13.433
34632SOL    HW1 5735  12.678  12.004  13.412
34632SOL    HW2 5736  12.581  12.000  13.528
34633SOL     OW 5737  14.015   7.755   3.320
34633SOL    HW1 5738  13.997   7.664   3.295
34633SOL    HW2 5739  14.047   7.796   3.240
34634SOL     OW 5740   4.578   4.552  10.783
34634SOL    HW1 5741   4.498   4.528  10.738
34634SOL    HW2 5742   4.574   4.505  10.867
34635SOL     OW 5743  11.105   0.907   4.659
34635SOL    HW1 5744  11.186   0.938   4.698
34635SOL    HW2 5745  11.092   0.963   4.582
34636SOL     OW 5746   9.610   4.496   2.486
34636SOL    HW1 5747   9.670   4.554   2.534
34636SOL    HW2 5748   9.526   4.540   2.489
34637SOL     OW 5749  12.424   7.132   6.715
34637SOL    HW1 5750  12.356   7.093   6.769
34637SOL    HW2 5751  12.377   7.166   6.639
34638SOL     OW 5752   3.164  10.771   4.939
34638SOL    HW1 5753   3.134  10.681   4.928
34638SOL    HW2 5754   3.159  10.787   5.033
34639SOL     OW 5755   5.574   2.078   3.189
34639SOL    HW1 5756   5.642   2.036   3.241
34639SOL    HW2 5757   5.518   2.007   3.161
34640SOL     OW 5758   4.269  14.682   1.207
34640SOL    HW1 5759   4.344  14.643   1.163
34640SOL    HW2 5760   4.194  14.634   1.173
34641SOL     OW 5761   3.234   3.100   3.626
34641SOL    HW1 5762   3.209   3.009   3.606
34641SOL    HW2 5763   3.210   3.149   3.548
34642SOL     OW 5764  11.901   7.164   3.403
34642SOL    HW1 5765  11.976   7.115   3.369
34642SOL    HW2 5766  11.904   7.150   3.498
34643SOL     OW 5767   7.322  13.956   7.423
34643SOL    HW1 5768   7.399  13.969   7.368
34643SOL    HW2 5769   7.253  13.930   7.362
34644SOL     OW 5770   7.436  11.711  13.339
34644SOL    HW1 5771   7.423  11.619  13.361
34644SOL    HW2 5772   7.524  11.715  13.301
34645SOL     OW 5773  10.985  11.757   7.452
34645SOL    HW1 5774  11.036  11.815   7.395
34645SOL    HW2 5775  11.043  11.741   7.527
34646SOL     OW 5776  14.550  11.990   7.630
34646SOL    HW1 5777  14.480  11.934   7.596
34646SOL    HW2 5778  14.601  11.933   7.687
34647SOL     OW 5779   9.661   8.506  13.796
34647SOL    HW1 5780   9.591   8.448  13.826
34647SOL    HW2 5781   9.709   8.453  13.731
34648SOL     OW 5782   7.034   7.563   9.191
34648SOL    HW1 5783   6.954   7.526   9.229
34648SOL    HW2 5784   7.006   7.600   9.107
34649SOL     OW 5785   9.989   1.593   3.711
34649SOL    HW1 5786   9.920   1.610   3.646
34649SOL    HW2 5787   9.946   1.606   3.795
34650SOL     OW 5788   9.160   5.801   3.980
34650SOL    HW1 5789   9.207   5.783   3.898
34650SOL    HW2 5790   9.071   5.820   3.952
34651SOL     OW 5791   2.006   3.412   9.799
34651SOL    HW1 5792   2.089   3.454   9.820
34651SOL    HW2 5793   1.949   3.483   9.768
34652SOL     OW 5794   2.683   3.315   0.645
34652SOL    HW1 5795   2.619   3.273   0.587
34652SOL    HW2 5796   2.636   3.325   0.728
34653SOL     OW 5797  11.459  11.448   3.523
34653SOL    HW1 5798  11.421  11.533   3.546
34653SOL    HW2 5799  11.553  11.459   3.538
34654SOL     OW 5800   8.643   0.204   0.427
34654SOL    HW1 5801   8.625   0.271   0.360
34654SOL    HW2 5802   8.645   0.254   0.510
34655SOL     OW 5803   2.701  12.986   0.018
34655SOL    HW1 5804   2.613  13.005   0.051
34655SOL    HW2 5805   2.734  13.070  14.863
34656SOL     OW 5806  12.887   5.106   4.643
34656SOL    HW1 5807  12.962   5.082   4.589
34656SOL    HW2 5808  12.898   5.054   4.723
34657SOL     OW 5809   3.508   3.720  14.519
34657SOL    HW1 5810   3.552   3.636  14.502
34657SOL    HW2 5811   3.500   3.760  14.433
34658SOL     OW 5812   3.292   6.295   4.130
34658SOL    HW1 5813   3.341   6.263   4.055
34658SOL    HW2 5814   3.281   6.218   4.186
34659SOL     OW 5815   3.821  11.598  11.230
34659SOL    HW1 5816   3.913  11.581  11.247
34659SOL    HW2 5817   3.795  11.661  11.297
34660SOL     OW 5818   2.799  12.841   9.397
34660SOL    HW1 5819   2.837  12.925   9.420
34660SOL    HW2 5820   2.708  12.847   9.427
34661SOL     OW 5821   8.381  10.219   0.358
34661SOL    HW1 5822   8.371  10.302   0.403
34661SOL    HW2 5823   8.298  10.174   0.371
34662SOL     OW 5824  14.083   5.820  14.259
34662SOL    HW1 5825  14.082   5.851  14.349
34662SOL    HW2 5826  14.039   5.888  14.209
34663SOL     OW 5827   2.179   2.433   1.610
34663SOL    HW1 5828   2.152   2.356   1.560
34663SOL    HW2 5829   2.170   2.506   1.548
34664SOL     OW 5830   2.341   2.656  13.379
34664SOL    HW1 5831   2.365   2.742  13.342
34664SOL    HW2 5832   2.282   2.618  13.314
34665SOL     OW 5833   7.352   0.722   5.459
34665SOL    HW1 5834   7.281   0.753   5.515
34665SOL    HW2 5835   7.311   0.656   5.403
34666SOL     OW 5836   0.949   9.498   1.255
34666SOL    HW1 5837   1.038   9.491   1.288
34666SOL    HW2 5838   0.904   9.553   1.319
34667SOL     OW 5839   3.668   1.013   1.427
34667SOL    HW1 5840   3.694   0.935   1.379
34667SOL    HW2 5841   3.737   1.025   1.492
34668SOL     OW 5842   1.551   2.844   7.565
34668SOL    HW1 5843   1.541   2.758   7.608
34668SOL    HW2 5844   1.508   2.833   7.480
34669SOL     OW 5845   4.734   9.920   7.299
34669SOL    HW1 5846   4.814   9.870   7.317
34669SOL    HW2 5847   4.675   9.898   7.371
34670SOL     OW 5848  14.633   0.730   8.955
34670SOL    HW1 5849  14.547   0.756   8.919
34670SOL    HW2 5850  14.616   0.715   9.048
34671SOL     OW 5851   2.888   3.974   8.318
34671SOL    HW1 5852   2.969   3.931   8.288
34671SOL    HW2 5853   2.841   3.905   8.366
34672SOL     OW 5854  10.628   7.795  10.029
34672SOL    HW1 5855  10.533   7.805  10.023
34672SOL    HW2 5856  10.663   7.865   9.974
34673SOL     OW 5857   2.159   2.537   9.307
34673SOL    HW1 5858   2.181   2.620   9.349
34673SOL    HW2 5859   2.172   2.553   9.214
34674SOL     OW 5860  13.548   5.739   2.110
34674SOL    HW1 5861  13.643   5.734   2.106
34674SOL    HW2 5862  13.530   5.791   2.188
34675SOL     OW 5863  10.719  10.516   4.283
34675SOL    HW1 5864  10.729  10.610   4.266
34675SOL    HW2 5865  10.682  10.481   4.202
34676SOL     OW 5866   4.385  14.853   3.784
34676SOL    HW1 5867   4.451  14.801   3.738
34676SOL    HW2 5868   4.424   0.066   3.794
34677SOL     OW 5869  10.879  12.678   7.764
34677SOL    HW1 5870  10.941  12.615   7.729
34677SOL    HW2 5871  10.892  12.674   7.859
34678SOL     OW 5872  11.919  12.530   1.154
34678SOL    HW1 5873  11.950  12.528   1.064
34678SOL    HW2 5874  11.963  12.456   1.196
34679SOL     OW 5875  12.271  13.537   5.939
34679SOL    HW1 5876  12.313  13.545   6.025
34679SOL    HW2 5877  12.317  13.601   5.884
34680SOL     OW 5878   4.302  11.076   8.727
34680SOL    HW1 5879   4.303  10.994   8.678
34680SOL    HW2 5880   4.394  11.102   8.732
34681SOL     OW 5881  14.553   9.455   9.545
34681SOL    HW1 5882  14.643   9.474   9.572
34681SOL    HW2 5883  14.506   9.536   9.561
34682SOL     OW 5884   8.144   5.881   4.545
34682SOL    HW1 5885   8.063   5.929   4.563
34682SOL    HW2 5886   8.212   5.949   4.545
34683SOL     OW 5887   2.256  10.429  12.517
34683SOL    HW1 5888   2.321  10.478  12.466
34683SOL    HW2 5889   2.217  10.494  12.575
34684SOL     OW 5890  12.920   2.313   6.362
34684SOL    HW1 5891  12.869   2.366   6.300
34684SOL    HW2 5892  12.908   2.358   6.446
34685SOL     OW 5893   8.749  10.417  14.815
34685SOL    HW1 5894   8.807  10.376   0.007
34685SOL    HW2 5895   8.759  10.362  14.737
34686SOL     OW 5896   1.313  14.298   9.668
34686SOL    HW1 5897   1.296  14.244   9.745
34686SOL    HW2 5898   1.347  14.380   9.704
34687SOL     OW 5899   0.245  11.518  12.202
34687SOL    HW1 5900   0.220  11.533  12.293
34687SOL    HW2 5901   0.341  11.515  12.204
34688SOL     OW 5902   8.578  12.554   4.036
34688SOL    HW1 5903   8.601  12.536   3.944
34688SOL    HW2 5904   8.488  12.522   4.045
34689SOL     OW 5905   3.829   7.440  14.436
34689SOL    HW1 5906   3.903   7.393  14.475
34689SOL    HW2 5907   3.753   7.386  14.458
34690SOL     OW 5908   4.443  13.742   2.837
34690SOL    HW1 5909   4.373  13.740   2.901
34690SOL    HW2 5910   4.516  13.696   2.879
34691SOL     OW 5911  12.536   3.471  10.091
34691SOL    HW1 5912  12.496   3.497  10.174
34691SOL    HW2 5913  12.625   3.505  10.096
34692SOL     OW 5914   8.887   3.303  14.747
34692SOL    HW1 5915   8.920   3.233  14.692
34692SOL    HW2 5916   8.960   3.324  14.806
34693SOL     OW 5917   0.414   5.739   4.710
34693SOL    HW1 5918   0.443   5.793   4.636
34693SOL    HW2 5919   0.364   5.799   4.765
34694SOL     OW 5920   4.058   9.230   9.161
34694SOL    HW1 5921   4.046   9.318   9.125
34694SOL    HW2 5922   4.030   9.238   9.252
34695SOL     OW 5923   8.079   1.020   8.179
34695SOL    HW1 5924   8.130   1.083   8.229
34695SOL    HW2 5925   8.058   0.951   8.241
34696SOL     OW 5926   9.265   1.729  10.334
34696SOL    HW1 5927   9.203   1.694  10.398
34696SOL    HW2 5928   9.339   1.668  10.337
34697SOL     OW 5929  13.952   4.503   6.747
34697SOL    HW1 5930  14.036   4.511   6.793
34697SOL    HW2 5931  13.975   4.509   6.655
34698SOL     OW 5932  11.684   3.566   8.782
34698SOL    HW1 5933  11.717   3.655   8.773
34698SOL    HW2 5934  11.753   3.521   8.832
34699SOL     OW 5935   5.149   3.152  10.690
34699SOL    HW1 5936   5.083   3.087  10.715
34699SOL    HW2 5937   5.204   3.106  10.626
34700SOL     OW 5938   5.031   8.884   6.645
34700SOL    HW1 5939   4.984   8.879   6.563
34700SOL    HW2 5940   5.119   8.851   6.625
34701SOL     OW 5941   9.745   4.479   7.111
34701SOL    HW1 5942   9.789   4.561   7.132
34701SOL    HW2 5943   9.788   4.414   7.166
34702SOL     OW 5944   9.123   5.474  10.810
34702SOL    HW1 5945   9.172   5.397  10.783
34702SOL    HW2 5946   9.126   5.532  10.734
34703SOL     OW 5947  10.618  11.045  14.634
34703SOL    HW1 5948  10.542  11.006  14.591
34703SOL    HW2 5949  10.609  11.139  14.619
34704SOL     OW 5950  13.598  12.668   0.464
34704SOL    HW1 5951  13.621  12.733   0.398
34704SOL    HW2 5952  13.681  12.647   0.507
34705SOL     OW 5953  11.737  14.316   5.534
34705SOL    HW1 5954  11.804  14.339   5.598
34705SOL    HW2 5955  11.779  14.251   5.477
34706SOL     OW 5956  11.015  14.365  11.279
34706SOL    HW1 5957  11.088  14.421  11.252
34706SOL    HW2 5958  11.031  14.347  11.372
34707SOL     OW 5959   5.589  12.823   4.050
34707SOL    HW1 5960   5.521  12.874   4.004
34707SOL    HW2 5961   5.542  12.748   4.086
34708SOL     OW 5962   4.239   7.852  13.315
34708SOL    HW1 5963   4.334   7.836  13.317
34708SOL    HW2 5964   4.206   7.791  13.248
34709SOL     OW 5965  11.635   7.532   3.897
34709SOL    HW1 5966  11.621   7.453   3.846
34709SOL    HW2 5967  11.604   7.603   3.841
34710SOL     OW 5968  12.836   7.590   9.763
34710SOL    HW1 5969  12.893   7.563   9.835
34710SOL    HW2 5970  12.885   7.660   9.719
34711SOL     OW 5971  14.785  11.087   5.682
34711SOL    HW1 5972  14.859  11.143   5.660
34711SOL    HW2 5973  14.762  11.044   5.600
34712SOL     OW 5974   8.998   0.236   0.077
34712SOL    HW1 5975   8.917   0.211   0.121
34712SOL    HW2 5976   9.067   0.214   0.139
34713SOL     OW 5977   3.967   3.143   4.332
34713SOL    HW1 5978   3.976   3.198   4.254
34713SOL    HW2 5979   4.047   3.090   4.334
34714SOL     OW 5980  13.662  11.597   6.067
34714SOL    HW1 5981  13.672  11.532   6.136
34714SOL    HW2 5982  13.597  11.559   6.007
34715SOL     OW 5983   8.722  14.125   2.971
34715SOL    HW1 5984   8.742  14.061   2.901
34715SOL    HW2 5985   8.795  14.186   2.969
34716SOL     OW 5986   7.723   2.773   0.272
34716SOL    HW1 5987   7.775   2.698   0.244
34716SOL    HW2 5988   7.663   2.789   0.200
34717SOL     OW 5989   3.009  10.552   1.724
34717SOL    HW1 5990   3.046  10.615   1.662
34717SOL    HW2 5991   2.949  10.604   1.778
34718SOL     OW 5992   2.714   2.285   8.672
34718SOL    HW1 5993   2.797   2.238   8.682
34718SOL    HW2 5994   2.652   2.237   8.726
34719SOL     OW 5995   9.970   9.036   9.720
34719SOL    HW1 5996  10.057   9.065   9.749
34719SOL    HW2 5997   9.934   9.112   9.674
34720SOL     OW 5998  12.311   8.370   4.731
34720SOL    HW1 5999  12.249   8.408   4.669
34720SOL    HW2 6000  12.262   8.300   4.774
34721SOL     OW 6001   6.230   0.421   6.545
34721SOL    HW1 6002   6.274   0.443   6.462
34721SOL    HW2 6003   6.270   0.480   6.609
34722SOL     OW 6004   7.541   3.963   6.000
34722SOL    HW1 6005   7.460   3.972   5.951
34722SOL    HW2 6006   7.598   3.910   5.943
34723SOL     OW 6007   6.171   5.233   1.294
34723SOL    HW1 6008   6.180   5.273   1.208
34723SOL    HW2 6009   6.104   5.165   1.282
34724SOL     OW 6010   9.528   8.099  10.492
34724SOL    HW1 6011   9.456   8.140  10.540
34724SOL    HW2 6012   9.499   8.098  10.401
34725SOL     OW 6013   1.144  11.814  14.203
34725SOL    HW1 6014   1.208  11.754  14.241
34725SOL    HW2 6015   1.133  11.883  14.268
34726SOL     OW 6016  13.100   5.968   3.208
34726SOL    HW1 6017  13.060   5.896   3.257
34726SOL    HW2 6018  13.194   5.953   3.218
34727SOL     OW 6019  11.238   6.236   0.762
34727SOL    HW1 6020  11.294   6.189   0.824
34727SOL    HW2 6021  11.274   6.325   0.760
34728SOL     OW 6022  12.020   0.013   2.536
34728SOL    HW1 6023  12.071  14.870   2.616
34728SOL    HW2 6024  12.082   0.053   2.475
34729SOL     OW 6025   1.766  11.902  14.340
34729SOL    HW1 6026   1.725  11.963  14.279
34729SOL    HW2 6027   1.804  11.958  14.408
34730SOL     OW 6028   8.062   9.134  12.294
34730SOL    HW1 6029   8.127   9.163  12.229
34730SOL    HW2 6030   8.093   9.047  12.321
34731SOL     OW 6031   7.713  13.156  13.250
34731SOL    HW1 6032   7.635  13.171  13.303
34731SOL    HW2 6033   7.758  13.240  13.249
34732SOL     OW 6034   5.663   3.624   4.372
34732SOL    HW1 6035   5.587   3.668   4.411
34732SOL    HW2 6036   5.631   3.536   4.351
34733SOL     OW 6037   2.777   6.881   3.532
34733SOL    HW1 6038   2.696   6.925   3.507
34733SOL    HW2 6039   2.846   6.928   3.485
34734SOL     OW 6040   4.758   1.052   1.303
34734SOL    HW1 6041   4.686   1.039   1.364
34734SOL    HW2 6042   4.734   1.000   1.226
34735SOL     OW 6043   8.888  10.851   5.790
34735SOL    HW1 6044   8.857  10.761   5.803
34735SOL    HW2 6045   8.815  10.905   5.818
34736SOL     OW 6046  11.492   1.319   1.095
34736SOL    HW1 6047  11.464   1.356   1.011
34736SOL    HW2 6048  11.584   1.346   1.103
34737SOL     OW 6049   3.278  13.270   6.207
34737SOL    HW1 6050   3.221  13.344   6.225
34737SOL    HW2 6051   3.321  13.250   6.290
34738SOL     OW 6052   2.966   3.488   8.563
34738SOL    HW1 6053   2.907   3.470   8.636
34738SOL    HW2 6054   2.978   3.402   8.522
34739SOL     OW 6055   1.712   4.949   5.871
34739SOL    HW1 6056   1.636   4.950   5.813
34739SOL    HW2 6057   1.774   5.009   5.829
34740SOL     OW 6058   2.158   7.856   1.168
34740SOL    HW1 6059   2.249   7.863   1.140
34740SOL    HW2 6060   2.144   7.762   1.182
34741SOL     OW 6061  13.572  12.760   4.276
34741SOL    HW1 6062  13.580  12.848   4.238
34741SOL    HW2 6063  13.500  12.767   4.338
34742SOL     OW 6064  10.484   2.302   8.181
34742SOL    HW1 6065  10.401   2.272   8.218
34742SOL    HW2 6066  10.484   2.269   8.092
34743SOL     OW 6067   8.514  14.097   5.992
34743SOL    HW1 6068   8.526  14.132   5.904
34743SOL    HW2 6069   8.528  14.173   6.049
34744SOL     OW 6070  13.114   7.431   7.713
34744SOL    HW1 6071  13.050   7.480   7.661
34744SOL    HW2 6072  13.072   7.422   7.799
34745SOL     OW 6073   1.481  11.039  11.748
34745SOL    HW1 6074   1.507  11.131  11.748
34745SOL    HW2 6075   1.560  10.991  11.726
34746SOL     OW 6076   8.914  11.399  12.043
34746SOL    HW1 6077   8.938  11.484  12.078
34746SOL    HW2 6078   8.931  11.405  11.949
34747SOL     OW 6079   2.683   9.622   6.721
34747SOL    HW1 6080   2.724   9.703   6.749
34747SOL    HW2 6081   2.749   9.554   6.738
34748SOL     OW 6082  10.584   2.144   3.061
34748SOL    HW1 6083  10.597   2.097   2.978
34748SOL    HW2 6084  10.604   2.235   3.041
34749SOL     OW 6085  13.057   4.116  13.305
34749SOL    HW1 6086  13.112   4.189  13.277
34749SOL    HW2 6087  13.118   4.052  13.342
34750SOL     OW 6088  12.564   7.324   2.319
34750SOL    HW1 6089  12.536   7.246   2.270
34750SOL    HW2 6090  12.625   7.368   2.260
34751SOL     OW 6091   7.542   0.788   7.514
34751SOL    HW1 6092   7.451   0.819   7.510
34751SOL    HW2 6093   7.542   0.722   7.583
34752SOL     OW 6094  13.367   3.821   4.318
34752SOL    HW1 6095  13.301   3.859   4.375
34752SOL    HW2 6096  13.353   3.863   4.233
34753SOL     OW 6097   9.846  14.698   4.506
34753SOL    HW1 6098   9.764  14.724   4.464
34753SOL    HW2 6099   9.824  14.693   4.599
34754SOL     OW 6100   2.679  12.550  14.347
34754SOL    HW1 6101   2.706  12.622  14.291
34754SOL    HW2 6102   2.597  12.519  14.308
34755SOL     OW 6103   1.787   4.596  14.116
34755SOL    HW1 6104   1.785   4.615  14.210
34755SOL    HW2 6105   1.707   4.636  14.081
34756SOL     OW 6106   5.919   8.501   7.420
34756SOL    HW1 6107   5.972   8.464   7.490
34756SOL    HW2 6108   5.944   8.452   7.342
34757SOL     OW 6109   1.012   6.909  10.480
34757SOL    HW1 6110   0.917   6.914  10.491
34757SOL    HW2 6111   1.042   7.000  10.486
34758SOL     OW 6112  12.622   1.307  14.059
34758SOL    HW1 6113  12.583   1.393  14.047
34758SOL    HW2 6114  12.547   1.248  14.069
34759SOL     OW 6115   6.370   4.848  13.923
34759SOL    HW1 6116   6.284   4.871  13.888
34759SOL    HW2 6117   6.432   4.872  13.854
34760SOL     OW 6118   3.997   5.767   1.603
34760SOL    HW1 6119   4.016   5.800   1.515
34760SOL    HW2 6120   4.083   5.753   1.642
34761SOL     OW 6121   8.630  10.863   8.539
34761SOL    HW1 6122   8.631  10.832   8.449
34761SOL    HW2 6123   8.542  10.843   8.570
34762SOL     OW 6124   5.022   1.618  11.076
34762SOL    HW1 6125   5.088   1.581  11.018
34762SOL    HW2 6126   5.033   1.569  11.158
34763SOL     OW 6127  13.020  10.452   4.952
34763SOL    HW1 6128  12.936  10.411   4.933
34763SOL    HW2 6129  13.068  10.386   5.002
34764SOL     OW 6130   9.567   0.782  14.127
34764SOL    HW1 6131   9.586   0.788  14.033
34764SOL    HW2 6132   9.482   0.825  14.137
34765SOL     OW 6133   3.720   8.604   7.235
34765SOL    HW1 6134   3.782   8.558   7.180
34765SOL    HW2 6135   3.683   8.536   7.292
34766SOL     OW 6136   0.291   9.547   9.126
34766SOL    HW1 6137   0.211   9.540   9.074
34766SOL    HW2 6138   0.355   9.495   9.078
34767SOL     OW 6139  14.540   1.182   8.808
34767SOL    HW1 6140  14.624   1.137   8.817
34767SOL    HW2 6141  14.521   1.215   8.896
34768SOL     OW 6142   7.681   3.540   5.269
34768SOL    HW1 6143   7.627   3.558   5.192
34768SOL    HW2 6144   7.657   3.451   5.295
34769SOL     OW 6145   8.100   5.017   8.030
34769SOL    HW1 6146   8.171   4.954   8.019
34769SOL    HW2 6147   8.101   5.068   7.949
34770SOL     OW 6148  13.847  11.998   7.001
34770SOL    HW1 6149  13.916  12.056   6.970
34770SOL    HW2 6150  13.795  12.051   7.061
34771SOL     OW 6151   1.065   8.909   2.541
34771SOL    HW1 6152   1.151   8.888   2.505
34771SOL    HW2 6153   1.018   8.825   2.544
34772SOL     OW 6154   1.638   2.711   5.905
34772SOL    HW1 6155   1.651   2.726   5.811
34772SOL    HW2 6156   1.676   2.625   5.921
34773SOL     OW 6157   7.596   2.294   6.812
34773SOL    HW1 6158   7.597   2.388   6.831
34773SOL    HW2 6159   7.651   2.284   6.735
34774SOL     OW 6160   4.560  13.410   4.504
34774SOL    HW1 6161   4.525  13.324   4.483
34774SOL    HW2 6162   4.625  13.427   4.436
34775SOL     OW 6163   8.069  13.119   8.263
34775SOL    HW1 6164   8.144  13.086   8.312
34775SOL    HW2 6165   8.094  13.207   8.235
34776SOL     OW 6166  11.032   3.871   6.188
34776SOL    HW1 6167  10.938   3.879   6.173
34776SOL    HW2 6168  11.050   3.778   6.180
34777SOL     OW 6169   9.083   0.739  10.310
34777SOL    HW1 6170   9.040   0.754  10.394
34777SOL    HW2 6171   9.127   0.654  10.320
34778SOL     OW 6172   9.307   4.493  13.405
34778SOL    HW1 6173   9.279   4.406  13.435
34778SOL    HW2 6174   9.387   4.511  13.454
34779SOL     OW 6175  13.680   4.455  13.753
34779SOL    HW1 6176  13.723   4.511  13.689
34779SOL    HW2 6177  13.702   4.366  13.726
34780SOL     OW 6178   5.034   5.185  11.356
34780SOL    HW1 6179   5.079   5.236  11.423
34780SOL    HW2 6180   5.030   5.096  11.391
34781SOL     OW 6181   4.983   4.462   2.221
34781SOL    HW1 6182   4.989   4.372   2.187
34781SOL    HW2 6183   4.938   4.452   2.305
34782SOL     OW 6184   4.120  11.729   2.935
34782SOL    HW1 6185   4.205  11.757   2.902
34782SOL    HW2 6186   4.077  11.810   2.962
34783SOL     OW 6187   8.687   7.652  13.378
34783SOL    HW1 6188   8.707   7.663  13.471
34783SOL    HW2 6189   8.596   7.683  13.370
34784SOL     OW 6190   2.283   4.308   9.113
34784SOL    HW1 6191   2.319   4.310   9.202
34784SOL    HW2 6192   2.292   4.398   9.081
34785SOL     OW 6193   3.114   5.890   7.007
34785SOL    HW1 6194   3.120   5.978   7.044
34785SOL    HW2 6195   3.101   5.904   6.913
34786SOL     OW 6196  13.332   0.589   7.197
34786SOL    HW1 6197  13.266   0.522   7.179
34786SOL    HW2 6198  13.372   0.562   7.279
34787SOL     OW 6199   7.335   4.377   7.487
34787SOL    HW1 6200   7.387   4.319   7.542
34787SOL    HW2 6201   7.400   4.430   7.441
34788SOL     OW 6202  13.289   2.281  14.578
34788SOL    HW1 6203  13.262   2.372  14.593
34788SOL    HW2 6204  13.375   2.288  14.536
34789SOL     OW 6205   0.636   8.346  13.717
34789SOL    HW1 6206   0.621   8.266  13.666
34789SOL    HW2 6207   0.712   8.387  13.675
34790SOL     OW 6208   3.704  12.265   2.473
34790SOL    HW1 6209   3.779  12.206   2.483
34790SOL    HW2 6210   3.691  12.303   2.560
34791SOL     OW 6211   7.974   3.741  12.625
34791SOL    HW1 6212   8.051   3.686  12.610
34791SOL    HW2 6213   7.980   3.767  12.717
34792SOL     OW 6214   4.107  10.060   0.000
34792SOL    HW1 6215   4.146  10.147  14.872
34792SOL    HW2 6216   4.182  10.000   0.003
34793SOL     OW 6217   7.136  12.057  10.168
34793SOL    HW1 6218   7.062  12.058  10.228
34793SOL    HW2 6219   7.205  12.010  10.216
34794SOL     OW 6220  14.522   2.905  14.424
34794SOL    HW1 6221  14.488   2.829  14.470
34794SOL    HW2 6222  14.615   2.887  14.412
34795SOL     OW 6223   9.344   0.764   6.038
34795SOL    HW1 6224   9.395   0.698   6.084
34795SOL    HW2 6225   9.268   0.779   6.094
34796SOL     OW 6226   1.684  12.292   7.736
34796SOL    HW1 6227   1.688  12.296   7.831
34796SOL    HW2 6228   1.610  12.348   7.713
34797SOL     OW 6229  12.386   0.145   9.604
34797SOL    HW1 6230  12.311   0.086   9.594
34797SOL    HW2 6231  12.350   0.232   9.583
34798SOL     OW 6232  13.367   3.281   6.186
34798SOL    HW1 6233  13.342   3.194   6.219
34798SOL    HW2 6234  13.379   3.269   6.092
34799SOL     OW 6235  11.740   1.638   6.902
34799SOL    HW1 6236  11.803   1.680   6.843
34799SOL    HW2 6237  11.794   1.593   6.967
34800SOL     OW 6238   0.158   0.774  13.658
34800SOL    HW1 6239   0.107   0.827  13.598
34800SOL    HW2 6240   0.240   0.823  13.669
34801SOL     OW 6241   0.267   0.175  10.224
34801SOL    HW1 6242   0.298   0.092  10.188
34801SOL    HW2 6243   0.347   0.222  10.248
34802SOL     OW 6244   8.434   1.034   0.390
34802SOL    HW1 6245   8.385   0.997   0.317
34802SOL    HW2 6246   8.452   0.960   0.447
34803SOL     OW 6247  11.477   5.486   7.893
34803SOL    HW1 6248  11.420   5.463   7.967
34803SOL    HW2 6249  11.418   5.527   7.829
34804SOL     OW 6250   9.852   4.919   3.110
34804SOL    HW1 6251   9.816   5.000   3.146
34804SOL    HW2 6252   9.803   4.906   3.028
34805SOL     OW 6253   4.948  10.676   4.172
34805SOL    HW1 6254   5.025  10.638   4.215
34805SOL    HW2 6255   4.959  10.654   4.079
34806SOL     OW 6256   6.321   6.898   3.693
34806SOL    HW1 6257   6.337   6.944   3.776
34806SOL    HW2 6258   6.324   6.967   3.627
34807SOL     OW 6259   9.469   7.976   4.150
34807SOL    HW1 6260   9.541   8.032   4.179
34807SOL    HW2 6261   9.395   8.036   4.140
34808SOL     OW 6262   0.816   3.371   8.946
34808SOL    HW1 6263   0.821   3.390   8.853
34808SOL    HW2 6264   0.890   3.418   8.984
34809SOL     OW 6265   3.437   5.013   2.502
34809SOL    HW1 6266   3.435   5.002   2.597
34809SOL    HW2 6267   3.464   5.103   2.488
34810SOL     OW 6268  11.306   3.839   3.104
34810SOL    HW1 6269  11.341   3.846   3.192
34810SOL    HW2 6270  11.213   3.861   3.112
34811SOL     OW 6271  10.838   2.603   7.274
34811SOL    HW1 6272  10.819   2.565   7.188
34811SOL    HW2 6273  10.869   2.529   7.326
34812SOL     OW 6274  11.423  12.900   5.380
34812SOL    HW1 6275  11.371  12.974   5.411
34812SOL    HW2 6276  11.429  12.912   5.285
34813SOL     OW 6277   0.320   6.375   5.728
34813SOL    HW1 6278   0.334   6.281   5.722
34813SOL    HW2 6279   0.382   6.405   5.795
34814SOL     OW 6280  10.176   8.089   3.238
34814SOL    HW1 6281  10.101   8.147   3.255
34814SOL    HW2 6282  10.179   8.031   3.314
34815SOL     OW 6283   0.334  14.706  13.844
34815SOL    HW1 6284   0.353  14.785  13.793
34815SOL    HW2 6285   0.417  14.659  13.848
34816SOL     OW 6286   5.679  10.472  13.232
34816SOL    HW1 6287   5.695  10.422  13.312
34816SOL    HW2 6288   5.628  10.548  13.261
34817SOL     OW 6289   2.979   8.283   8.069
34817SOL    HW1 6290   2.961   8.284   7.975
34817SOL    HW2 6291   2.969   8.191   8.094
34818SOL     OW 6292   5.238   1.675  12.954
34818SOL    HW1 6293   5.279   1.594  12.983
34818SOL    HW2 6294   5.145   1.663  12.973
34819SOL     OW 6295   3.580  10.470   9.437
34819SOL    HW1 6296   3.626  10.453   9.520
34819SOL    HW2 6297   3.557  10.563   9.441
34820SOL     OW 6298   0.351   3.820   8.231
34820SOL    HW1 6299   0.283   3.760   8.201
34820SOL    HW2 6300   0.343   3.820   8.326
34821SOL     OW 6301   6.178  13.548  11.799
34821SOL    HW1 6302   6.270  13.535  11.778
34821SOL    HW2 6303   6.160  13.484  11.868
34822SOL     OW 6304   9.213   7.952   4.628
34822SOL    HW1 6305   9.167   8.013   4.571
34822SOL    HW2 6306   9.228   8.000   4.709
34823SOL     OW 6307   2.108  12.041   8.126
34823SOL    HW1 6308   2.141  12.110   8.068
34823SOL    HW2 6309   2.068  12.088   8.199
34824SOL     OW 6310  10.430   6.976  10.965
34824SOL    HW1 6311  10.381   7.049  10.927
34824SOL    HW2 6312  10.487   7.016  11.031
34825SOL     OW 6313  14.775   6.020  11.735
34825SOL    HW1 6314  14.771   6.108  11.697
34825SOL    HW2 6315  14.823   6.032  11.817
34826SOL     OW 6316   6.874   3.495  12.845
34826SOL    HW1 6317   6.923   3.537  12.774
34826SOL    HW2 6318   6.807   3.443  12.801
34827SOL     OW 6319   7.393   2.617   1.351
34827SOL    HW1 6320   7.383   2.523   1.341
34827SOL    HW2 6321   7.397   2.651   1.262
34828SOL     OW 6322   9.781   4.621  12.559
34828SOL    HW1 6323   9.740   4.601  12.474
34828SOL    HW2 6324   9.833   4.700  12.542
34829SOL     OW 6325   5.632  10.242   2.470
34829SOL    HW1 6326   5.654  10.157   2.432
34829SOL    HW2 6327   5.640  10.229   2.564
34830SOL     OW 6328  12.245   4.010   2.763
34830SOL    HW1 6329  12.334   4.025   2.796
34830SOL    HW2 6330  12.189   4.063   2.819
34831SOL     OW 6331  10.072   3.991   3.175
34831SOL    HW1 6332  10.153   3.942   3.190
34831SOL    HW2 6333  10.041   4.012   3.263
34832SOL     OW 6334   6.118   8.009   4.835
34832SOL    HW1 6335   6.092   7.922   4.867
34832SOL    HW2 6336   6.177   8.042   4.903
34833SOL     OW 6337   8.436  12.552  14.807
34833SOL    HW1 6338   8.401  12.470  14.771
34833SOL    HW2 6339   8.487  12.590  14.735
34834SOL     OW 6340   2.358   2.643   0.326
34834SOL    HW1 6341   2.349   2.702   0.401
34834SOL    HW2 6342   2.269   2.631   0.294
34835SOL     OW 6343  14.376   6.085  13.441
34835SOL    HW1 6344  14.453   6.097  13.385
34835SOL    HW2 6345  14.391   6.145  13.515
34836SOL     OW 6346   5.736   1.120   5.508
34836SOL    HW1 6347   5.706   1.061   5.576
34836SOL    HW2 6348   5.689   1.092   5.429
34837SOL     OW 6349   0.078   1.908   7.503
34837SOL    HW1 6350   0.173   1.896   7.505
34837SOL    HW2 6351   0.054   1.927   7.594
34838SOL     OW 6352   0.536  12.195   1.643
34838SOL    HW1 6353   0.579  12.272   1.605
34838SOL    HW2 6354   0.606  12.151   1.692
34839SOL     OW 6355   6.735   2.479   8.551
34839SOL    HW1 6356   6.749   2.573   8.561
34839SOL    HW2 6357   6.640   2.468   8.559
34840SOL     OW 6358   3.051   3.239   2.947
34840SOL    HW1 6359   2.992   3.313   2.959
34840SOL    HW2 6360   3.102   3.261   2.868
34841SOL     OW 6361   4.441  12.078  13.150
34841SOL    HW1 6362   4.403  12.059  13.235
34841SOL    HW2 6363   4.400  12.159  13.122
34842SOL     OW 6364   1.176   6.691   5.049
34842SOL    HW1 6365   1.167   6.697   4.954
34842SOL    HW2 6366   1.248   6.750   5.070
34843SOL     OW 6367  10.139   3.276  11.618
34843SOL    HW1 6368  10.099   3.358  11.588
34843SOL    HW2 6369  10.228   3.301  11.641
34844SOL     OW 6370  13.153   3.201   1.157
34844SOL    HW1 6371  13.235   3.251   1.162
34844SOL    HW2 6372  13.101   3.232   1.231
34845SOL     OW 6373  14.466   8.076   5.584
34845SOL    HW1 6374  14.514   8.042   5.508
34845SOL    HW2 6375  14.388   8.117   5.547
34846SOL     OW 6376   0.640   5.834  10.401
34846SOL    HW1 6377   0.603   5.904  10.347
34846SOL    HW2 6378   0.726   5.818  10.363
34847SOL     OW 6379  14.139   3.434  11.432
34847SOL    HW1 6380  14.232   3.444  11.411
34847SOL    HW2 6381  14.107   3.369  11.370
34848SOL     OW 6382  14.314   5.629   8.175
34848SOL    HW1 6383  14.377   5.600   8.110
34848SOL    HW2 6384  14.261   5.551   8.193
34849SOL     OW 6385   2.548  10.214   1.208
34849SOL    HW1 6386   2.578  10.303   1.186
34849SOL    HW2 6387   2.452  10.221   1.210
34850SOL     OW 6388   4.167   3.486  13.264
34850SOL    HW1 6389   4.196   3.501  13.353
34850SOL    HW2 6390   4.247   3.491  13.211
34851SOL     OW 6391   5.045  11.500   1.144
34851SOL    HW1 6392   5.066  11.562   1.215
34851SOL    HW2 6393   5.100  11.528   1.071
34852SOL     OW 6394  14.644  14.084   5.016
34852SOL    HW1 6395  14.739  14.072   5.022
34852SOL    HW2 6396  14.607  13.996   5.023
34853SOL     OW 6397   8.087   1.697   6.608
34853SOL    HW1 6398   8.087   1.781   6.561
34853SOL    HW2 6399   8.050   1.718   6.694
34854SOL     OW 6400  13.608   8.739  13.980
34854SOL    HW1 6401  13.592   8.748  13.886
34854SOL    HW2 6402  13.630   8.827  14.009
34855SOL     OW 6403   9.525   6.909   3.625
34855SOL    HW1 6404   9.466   6.864   3.565
34855SOL    HW2 6405   9.571   6.973   3.570
34856SOL     OW 6406  11.415   3.732  11.127
34856SOL    HW1 6407  11.443   3.749  11.217
34856SOL    HW2 6408  11.494   3.745  11.075
34857SOL     OW 6409   9.347  11.561   6.109
34857SOL    HW1 6410   9.368  11.593   6.197
34857SOL    HW2 6411   9.335  11.466   6.120
34858SOL     OW 6412   7.880   0.881   5.954
34858SOL    HW1 6413   7.867   0.866   5.861
34858SOL    HW2 6414   7.955   0.825   5.977
34859SOL     OW 6415   0.664  11.754   0.418
34859SOL    HW1 6416   0.600  11.764   0.489
34859SOL    HW2 6417   0.615  11.713   0.347
34860SOL     OW 6418   8.604   2.266  11.469
34860SOL    HW1 6419   8.594   2.175  11.497
34860SOL    HW2 6420   8.679   2.298  11.518
34861SOL     OW 6421   6.995   0.008   1.827
34861SOL    HW1 6422   6.982   0.007   1.732
34861SOL    HW2 6423   7.090   0.016   1.838
34862SOL     OW 6424  12.759   7.713  11.115
34862SOL    HW1 6425  12.680   7.676  11.154
34862SOL    HW2 6426  12.735   7.730  11.024
34863SOL     OW 6427   5.646   8.689  14.362
34863SOL    HW1 6428   5.614   8.631  14.431
34863SOL    HW2 6429   5.673   8.769  14.407
34864SOL     OW 6430   4.158  10.680  13.268
34864SOL    HW1 6431   4.176  10.598  13.223
34864SOL    HW2 6432   4.186  10.748  13.208
34865SOL     OW 6433   6.022   0.040   7.769
34865SOL    HW1 6434   5.933   0.046   7.734
34865SOL    HW2 6435   6.047  14.822   7.755
34866SOL     OW 6436   9.974   1.536   1.119
34866SOL    HW1 6437  10.027   1.579   1.052
34866SOL    HW2 6438   9.962   1.604   1.186
34867SOL     OW 6439  14.411  13.797  11.764
34867SOL    HW1 6440  14.506  13.790  11.769
34867SOL    HW2 6441  14.392  13.890  11.775
34868SOL     OW 6442   1.503   6.076   8.847
34868SOL    HW1 6443   1.594   6.073   8.817
34868SOL    HW2 6444   1.464   5.995   8.815
34869SOL     OW 6445  13.699   2.655   3.989
34869SOL    HW1 6446  13.639   2.642   4.062
34869SOL    HW2 6447  13.664   2.601   3.919
34870SOL     OW 6448   7.299   5.024   0.699
34870SOL    HW1 6449   7.274   4.980   0.781
34870SOL    HW2 6450   7.379   5.070   0.721
34871SOL     OW 6451   2.644   9.765   7.202
34871SOL    HW1 6452   2.656   9.773   7.296
34871SOL    HW2 6453   2.725   9.799   7.165
34872SOL     OW 6454   2.727  12.480   4.523
34872SOL    HW1 6455   2.657  12.416   4.540
34872SOL    HW2 6456   2.689  12.540   4.459
34873SOL     OW 6457   7.443  12.057   3.363
34873SOL    HW1 6458   7.376  12.115   3.328
34873SOL    HW2 6459   7.499  12.036   3.288
34874SOL     OW 6460  10.451   8.642   4.907
34874SOL    HW1 6461  10.362   8.623   4.935
34874SOL    HW2 6462  10.441   8.689   4.824
34875SOL     OW 6463   2.899  14.203  11.985
34875SOL    HW1 6464   2.959  14.143  12.029
34875SOL    HW2 6465   2.856  14.251  12.056
34876SOL     OW 6466   0.151  13.542   4.301
34876SOL    HW1 6467   0.244  13.536   4.322
34876SOL    HW2 6468   0.107  13.538   4.387
34877SOL     OW 6469  14.825   4.415   5.678
34877SOL    HW1 6470  14.821   4.383   5.588
34877SOL    HW2 6471  14.844   4.337   5.730
34878SOL     OW 6472   1.996   5.838   2.344
34878SOL    HW1 6473   1.921   5.779   2.334
34878SOL    HW2 6474   2.070   5.787   2.312
34879SOL     OW 6475   0.294   0.206   9.397
34879SOL    HW1 6476   0.307   0.146   9.324
34879SOL    HW2 6477   0.381   0.240   9.417
34880SOL     OW 6478  10.325   1.035   8.785
34880SOL    HW1 6479  10.288   0.963   8.837
34880SOL    HW2 6480  10.322   1.111   8.844
34881SOL     OW 6481  12.072   1.077  12.383
34881SOL    HW1 6482  12.099   1.091  12.293
34881SOL    HW2 6483  12.075   1.164  12.423
34882SOL     OW 6484   6.058   3.323   1.663
34882SOL    HW1 6485   6.150   3.295   1.665
34882SOL    HW2 6486   6.063   3.417   1.645
34883SOL     OW 6487  14.645  14.117  12.439
34883SOL    HW1 6488  14.562  14.076  12.464
34883SOL    HW2 6489  14.692  14.129  12.522
34884SOL     OW 6490   1.340   6.895   6.190
34884SOL    HW1 6491   1.392   6.923   6.266
34884SOL    HW2 6492   1.404   6.888   6.119
34885SOL     OW 6493   1.487   0.020  10.385
34885SOL    HW1 6494   1.494   0.106  10.426
34885SOL    HW2 6495   1.397   0.017  10.352
34886SOL     OW 6496   4.365   8.803   5.749
34886SOL    HW1 6497   4.296   8.745   5.783
34886SOL    HW2 6498   4.326   8.844   5.672
34887SOL     OW 6499   4.917   6.814   5.897
34887SOL    HW1 6500   4.970   6.757   5.841
34887SOL    HW2 6501   4.882   6.880   5.837
34888SOL     OW 6502   8.493   6.053  14.519
34888SOL    HW1 6503   8.532   6.054  14.432
34888SOL    HW2 6504   8.408   6.096  14.508
34889SOL     OW 6505   6.445   3.784   9.843
34889SOL    HW1 6506   6.508   3.802   9.913
34889SOL    HW2 6507   6.371   3.841   9.862
34890SOL     OW 6508   9.828   9.583  14.870
34890SOL    HW1 6509   9.786   9.583  14.784
34890SOL    HW2 6510   9.901   9.521  14.861
34891SOL     OW 6511   6.706   6.765   0.609
34891SOL    HW1 6512   6.771   6.834   0.619
34891SOL    HW2 6513   6.633   6.808   0.564
34892SOL     OW 6514  10.027   0.060  11.330
34892SOL    HW1 6515   9.940   0.099  11.318
34892SOL    HW2 6516  10.022  14.849  11.285
34893SOL     OW 6517   9.039   8.595   8.907
34893SOL    HW1 6518   9.010   8.504   8.907
34893SOL    HW2 6519   8.981   8.638   8.970
34894SOL     OW 6520   3.146  13.271  12.279
34894SOL    HW1 6521   3.129  13.196  12.337
34894SOL    HW2 6522   3.228  13.307  12.311
34895SOL     OW 6523   2.651  12.483  10.525
34895SOL    HW1 6524   2.708  12.520  10.458
34895SOL    HW2 6525   2.636  12.392  10.498
34896SOL     OW 6526  14.120   2.725   2.827
34896SOL    HW1 6527  14.081   2.813   2.832
34896SOL    HW2 6528  14.057   2.668   2.871
34897SOL     OW 6529  12.172   6.736   2.196
34897SOL    HW1 6530  12.129   6.802   2.143
34897SOL    HW2 6531  12.259   6.773   2.215
34898SOL     OW 6532   9.224   5.879   6.078
34898SOL    HW1 6533   9.176   5.853   5.999
34898SOL    HW2 6534   9.182   5.961   6.105
34899SOL     OW 6535   6.516   4.485   0.600
34899SOL    HW1 6536   6.535   4.570   0.640
34899SOL    HW2 6537   6.423   4.471   0.618
34900SOL     OW 6538   3.287   6.074   6.874
34900SOL    HW1 6539   3.364   6.111   6.831
34900SOL    HW2 6540   3.213   6.113   6.828
34901SOL     OW 6541   1.301  12.292   4.283
34901SOL    HW1 6542   1.321  12.371   4.233
34901SOL    HW2 6543   1.275  12.324   4.370
34902SOL     OW 6544   2.735  10.008   0.167
34902SOL    HW1 6545   2.718  10.004   0.072
34902SOL    HW2 6546   2.826  10.036   0.174
34903SOL     OW 6547  13.634   0.982  10.023
34903SOL    HW1 6548  13.563   1.045  10.032
34903SOL    HW2 6549  13.638   0.936  10.107
34904SOL     OW 6550  14.076   7.831   7.019
34904SOL    HW1 6551  13.987   7.864   7.005
34904SOL    HW2 6552  14.086   7.760   6.956
34905SOL     OW 6553  11.924   5.618  12.645
34905SOL    HW1 6554  11.988   5.600  12.714
34905SOL    HW2 6555  11.974   5.615  12.564
34906SOL     OW 6556   3.682   4.741   2.724
34906SOL    HW1 6557   3.636   4.661   2.747
34906SOL    HW2 6558   3.614   4.808   2.720
34907SOL     OW 6559   1.770  12.952   7.008
34907SOL    HW1 6560   1.852  12.943   7.057
34907SOL    HW2 6561   1.759  13.046   6.995
34908SOL     OW 6562   2.002   7.877   7.700
34908SOL    HW1 6563   2.095   7.855   7.710
34908SOL    HW2 6564   1.999   7.971   7.715
34909SOL     OW 6565   8.092   4.510   9.248
34909SOL    HW1 6566   8.187   4.525   9.249
34909SOL    HW2 6567   8.068   4.503   9.340
34910SOL     OW 6568   6.610   5.252   5.372
34910SOL    HW1 6569   6.527   5.205   5.364
34910SOL    HW2 6570   6.675   5.183   5.385
34911SOL     OW 6571   3.360   0.835  12.513
34911SOL    HW1 6572   3.422   0.821  12.585
34911SOL    HW2 6573   3.404   0.896  12.455
34912SOL     OW 6574  11.190   0.577  10.812
34912SOL    HW1 6575  11.258   0.638  10.783
34912SOL    HW2 6576  11.229   0.491  10.799
34913SOL     OW 6577   1.259   6.851   7.694
34913SOL    HW1 6578   1.308   6.781   7.737
34913SOL    HW2 6579   1.306   6.867   7.612
34914SOL     OW 6580  10.226   3.179   5.829
34914SOL    HW1 6581  10.192   3.204   5.743
34914SOL    HW2 6582  10.159   3.209   5.890
34915SOL     OW 6583  11.566   5.724  14.403
34915SOL    HW1 6584  11.615   5.650  14.366
34915SOL    HW2 6585  11.560   5.704  14.496
34916SOL     OW 6586   2.079   6.748  10.691
34916SOL    HW1 6587   2.056   6.672  10.637
34916SOL    HW2 6588   2.057   6.722  10.780
34917SOL     OW 6589   7.128   2.338   1.687
34917SOL    HW1 6590   7.044   2.360   1.647
34917SOL    HW2 6591   7.108   2.266   1.746
34918SOL     OW 6592   5.429  10.110  11.830
34918SOL    HW1 6593   5.434  10.186  11.888
34918SOL    HW2 6594   5.377  10.046  11.878
34919SOL     OW 6595  13.880   2.444   3.941
34919SOL    HW1 6596  13.958   2.448   3.887
34919SOL    HW2 6597  13.850   2.535   3.947
34920SOL     OW 6598  10.227   1.063   4.535
34920SOL    HW1 6599  10.172   1.139   4.515
34920SOL    HW2 6600  10.295   1.064   4.468
34921SOL     OW 6601   4.557   0.480   2.478
34921SOL    HW1 6602   4.521   0.559   2.437
34921SOL    HW2 6603   4.589   0.427   2.404
34922SOL     OW 6604   9.970   5.334  11.761
34922SOL    HW1 6605  10.050   5.330  11.710
34922SOL    HW2 6606   9.996   5.308  11.849
34923SOL     OW 6607   1.874   2.338  14.378
34923SOL    HW1 6608   1.951   2.380  14.416
34923SOL    HW2 6609   1.909   2.283  14.308
34924SOL     OW 6610  14.744  10.786  14.386
34924SOL    HW1 6611  14.681  10.822  14.323
34924SOL    HW2 6612  14.690  10.735  14.447
34925SOL     OW 6613   5.556   1.970   2.217
34925SOL    HW1 6614   5.559   2.051   2.166
34925SOL    HW2 6615   5.591   1.903   2.158
34926SOL     OW 6616   0.472   7.444   1.669
34926SOL    HW1 6617   0.467   7.394   1.588
34926SOL    HW2 6618   0.565   7.460   1.683
34927SOL     OW 6619   5.080   8.766   1.777
34927SOL    HW1 6620   5.103   8.835   1.838
34927SOL    HW2 6621   5.028   8.704   1.828
34928SOL     OW 6622  12.126  11.553   9.837
34928SOL    HW1 6623  12.212  11.589   9.812
34928SOL    HW2 6624  12.077  11.549   9.754
34929SOL     OW 6625   5.938   3.675  12.871
34929SOL    HW1 6626   6.003   3.604  12.876
34929SOL    HW2 6627   5.873   3.644  12.808
34930SOL     OW 6628   8.706  11.134   8.546
34930SOL    HW1 6629   8.701  11.154   8.639
34930SOL    HW2 6630   8.679  11.043   8.539
34931SOL     OW 6631   6.944  11.026  13.521
34931SOL    HW1 6632   6.851  11.044  13.505
34931SOL    HW2 6633   6.949  10.931  13.530
34932SOL     OW 6634  10.275   8.085   3.915
34932SOL    HW1 6635  10.347   8.149   3.920
34932SOL    HW2 6636  10.291   8.027   3.990
34933SOL     OW 6637  12.677   7.569  10.739
34933SOL    HW1 6638  12.647   7.486  10.701
34933SOL    HW2 6639  12.750   7.544  10.796
34934SOL     OW 6640  13.983  11.898  12.025
34934SOL    HW1 6641  13.972  11.808  11.997
34934SOL    HW2 6642  13.977  11.895  12.120
34935SOL     OW 6643  10.289   7.658   5.900
34935SOL    HW1 6644  10.224   7.603   5.856
34935SOL    HW2 6645  10.263   7.657   5.992
34936SOL     OW 6646   0.374   4.218   6.673
34936SOL    HW1 6647   0.394   4.212   6.580
34936SOL    HW2 6648   0.456   4.246   6.714
34937SOL     OW 6649  12.556  11.738  10.353
34937SOL    HW1 6650  12.529  11.654  10.316
34937SOL    HW2 6651  12.526  11.803  10.290
34938SOL     OW 6652   1.473   9.583   8.766
34938SOL    HW1 6653   1.455   9.609   8.676
34938SOL    HW2 6654   1.483   9.666   8.814
34939SOL     OW 6655   5.774  12.847   0.352
34939SOL    HW1 6656   5.839  12.903   0.395
34939SOL    HW2 6657   5.822  12.800   0.285
34940SOL     OW 6658   2.035   4.782  14.443
34940SOL    HW1 6659   1.944   4.803  14.420
34940SOL    HW2 6660   2.073   4.866  14.468
34941SOL     OW 6661   3.823   9.891  14.044
34941SOL    HW1 6662   3.789   9.803  14.029
34941SOL    HW2 6663   3.833   9.928  13.956
34942SOL     OW 6664   5.544   6.864   4.097
34942SOL    HW1 6665   5.576   6.776   4.076
34942SOL    HW2 6666   5.622   6.919   4.099
34943SOL     OW 6667   8.071   6.247   8.868
34943SOL    HW1 6668   8.068   6.335   8.829
34943SOL    HW2 6669   8.161   6.238   8.899
34944SOL     OW 6670   4.428  12.992  11.529
34944SOL    HW1 6671   4.475  12.909  11.523
34944SOL    HW2 6672   4.496  13.058  11.539
34945SOL     OW 6673   8.076  14.464  10.379
34945SOL    HW1 6674   8.024  14.435  10.454
34945SOL    HW2 6675   8.110  14.550  10.406
34946SOL     OW 6676   0.111   7.722  10.492
34946SOL    HW1 6677   0.072   7.784  10.431
34946SOL    HW2 6678   0.058   7.643  10.484
34947SOL     OW 6679   5.174   6.817   1.185
34947SOL    HW1 6680   5.165   6.786   1.275
34947SOL    HW2 6681   5.269   6.821   1.171
34948SOL     OW 6682  14.093   3.554   6.785
34948SOL    HW1 6683  14.099   3.462   6.813
34948SOL    HW2 6684  14.150   3.601   6.845
34949SOL     OW 6685   5.671   6.651  13.986
34949SOL    HW1 6686   5.706   6.636  13.898
34949SOL    HW2 6687   5.685   6.568  14.031
34950SOL     OW 6688   1.497  11.992   5.138
34950SOL    HW1 6689   1.589  11.978   5.119
34950SOL    HW2 6690   1.486  12.087   5.139
34951SOL     OW 6691   6.955  11.046  11.045
34951SOL    HW1 6692   7.001  10.987  10.985
34951SOL    HW2 6693   7.023  11.081  11.102
34952SOL     OW 6694   2.904   4.801  11.606
34952SOL    HW1 6695   2.886   4.843  11.691
34952SOL    HW2 6696   2.992   4.766  11.615
34953SOL     OW 6697   5.032  13.895  13.201
34953SOL    HW1 6698   5.115  13.899  13.248
34953SOL    HW2 6699   4.982  13.827  13.245
34954SOL     OW 6700   7.932   6.244   2.173
34954SOL    HW1 6701   7.928   6.260   2.268
34954SOL    HW2 6702   7.957   6.328   2.136
34955SOL     OW 6703   7.767  11.053   1.330
34955SOL    HW1 6704   7.780  10.959   1.345
34955SOL    HW2 6705   7.715  11.058   1.250
34956SOL     OW 6706   4.593  13.968   2.093
34956SOL    HW1 6707   4.595  13.887   2.043
34956SOL    HW2 6708   4.672  13.965   2.147
34957SOL     OW 6709   6.770   3.429   3.249
34957SOL    HW1 6710   6.711   3.455   3.178
34957SOL    HW2 6711   6.805   3.512   3.282
34958SOL     OW 6712   2.915   7.741   7.604
34958SOL    HW1 6713   2.946   7.832   7.600
34958SOL    HW2 6714   2.882   7.723   7.516
34959SOL     OW 6715   0.284  13.691   8.370
34959SOL    HW1 6716   0.347  13.763   8.376
34959SOL    HW2 6717   0.199  13.735   8.374
34960SOL     OW 6718   5.143   8.433   0.410
34960SOL    HW1 6719   5.193   8.351   0.419
34960SOL    HW2 6720   5.191   8.483   0.345
34961SOL     OW 6721   1.953   9.296   8.835
34961SOL    HW1 6722   1.858   9.288   8.823
34961SOL    HW2 6723   1.964   9.371   8.893
34962SOL     OW 6724  10.743   1.244   3.585
34962SOL    HW1 6725  10.807   1.220   3.519
34962SOL    HW2 6726  10.795   1.266   3.663
34963SOL     OW 6727   4.333   4.715  13.778
34963SOL    HW1 6728   4.285   4.790  13.814
34963SOL    HW2 6729   4.280   4.639  13.803
34964SOL     OW 6730  14.091   0.877  10.582
34964SOL    HW1 6731  14.181   0.881  10.549
34964SOL    HW2 6732  14.078   0.785  10.605
34965SOL     OW 6733   7.993   3.820  10.602
34965SOL    HW1 6734   7.968   3.882  10.670
34965SOL    HW2 6735   7.921   3.822  10.539
34966SOL     OW 6736   4.840  14.002  11.197
34966SOL    HW1 6737   4.799  14.008  11.283
34966SOL    HW2 6738   4.926  13.963  11.213
34967SOL     OW 6739   4.406  10.779  10.471
34967SOL    HW1 6740   4.440  10.736  10.549
34967SOL    HW2 6741   4.311  10.781  10.484
34968SOL     OW 6742   4.396   8.961   9.800
34968SOL    HW1 6743   4.310   8.939   9.763
34968SOL    HW2 6744   4.378   9.030   9.864
34969SOL     OW 6745   7.007   9.248   5.813
34969SOL    HW1 6746   7.059   9.292   5.746
34969SOL    HW2 6747   6.916   9.261   5.785
34970SOL     OW 6748   6.381   3.675  14.663
34970SOL    HW1 6749   6.350   3.719  14.584
34970SOL    HW2 6750   6.310   3.616  14.687
34971SOL     OW 6751   1.580  12.510   8.785
34971SOL    HW1 6752   1.521  12.451   8.738
34971SOL    HW2 6753   1.576  12.479   8.876
34972SOL     OW 6754   1.228   4.719  11.612
34972SOL    HW1 6755   1.196   4.793  11.559
34972SOL    HW2 6756   1.249   4.651  11.548
34973SOL     OW 6757   5.815   6.803  14.160
34973SOL    HW1 6758   5.831   6.883  14.109
34973SOL    HW2 6759   5.779   6.741  14.096
34974SOL     OW 6760  10.613   3.151   9.094
34974SOL    HW1 6761  10.676   3.203   9.045
34974SOL    HW2 6762  10.557   3.215   9.138
34975SOL     OW 6763   2.511  12.294  11.169
34975SOL    HW1 6764   2.592  12.319  11.125
34975SOL    HW2 6765   2.506  12.353  11.245
34976SOL     OW 6766   4.501   2.602   8.856
34976SOL    HW1 6767   4.548   2.677   8.821
34976SOL    HW2 6768   4.491   2.620   8.949
34977SOL     OW 6769   1.402  10.371  13.755
34977SOL    HW1 6770   1.466  10.404  13.692
34977SOL    HW2 6771   1.414  10.276  13.754
34978SOL     OW 6772   2.110   8.638  14.105
34978SOL    HW1 6773   2.058   8.620  14.026
34978SOL    HW2 6774   2.198   8.610  14.082
34979SOL     OW 6775  13.750   9.976  12.330
34979SOL    HW1 6776  13.785   9.890  12.355
34979SOL    HW2 6777  13.742  10.024  12.413
34980SOL     OW 6778   3.793   7.972   0.494
34980SOL    HW1 6779   3.778   7.884   0.462
34980SOL    HW2 6780   3.859   8.009   0.435
34981SOL     OW 6781  12.499   1.339   6.850
34981SOL    HW1 6782  12.415   1.376   6.876
34981SOL    HW2 6783  12.489   1.319   6.757
34982SOL     OW 6784  10.515   1.159  11.599
34982SOL    HW1 6785  10.422   1.149  11.580
34982SOL    HW2 6786  10.554   1.076  11.572
34983SOL     OW 6787   5.242   5.786   9.452
34983SOL    HW1 6788   5.323   5.836   9.443
34983SOL    HW2 6789   5.253   5.712   9.393
34984SOL     OW 6790  10.556  14.543   1.878
34984SOL    HW1 6791  10.489  14.610   1.864
34984SOL    HW2 6792  10.639  14.591   1.874
34985SOL     OW 6793  11.946   9.328   8.840
34985SOL    HW1 6794  11.922   9.331   8.747
34985SOL    HW2 6795  12.028   9.279   8.842
34986SOL     OW 6796   0.567   1.037   6.756
34986SOL    HW1 6797   0.552   1.128   6.780
34986SOL    HW2 6798   0.530   1.028   6.669
34987SOL     OW 6799   6.863   2.063   2.526
34987SOL    HW1 6800   6.889   2.151   2.554
34987SOL    HW2 6801   6.787   2.078   2.469
34988SOL     OW 6802   3.768   7.722   5.232
34988SOL    HW1 6803   3.731   7.666   5.300
34988SOL    HW2 6804   3.757   7.671   5.151
34989SOL     OW 6805  12.951   7.313   5.971
34989SOL    HW1 6806  12.862   7.304   6.003
34989SOL    HW2 6807  13.006   7.282   6.044
34990SOL     OW 6808  11.585   6.213  13.385
34990SOL    HW1 6809  11.506   6.169  13.354
34990SOL    HW2 6810  11.611   6.271  13.312
34991SOL     OW 6811   1.305  10.154  14.241
34991SOL    HW1 6812   1.326  10.159  14.148
34991SOL    HW2 6813   1.351  10.229  14.280
34992SOL     OW 6814   8.110  13.330   6.067
34992SOL    HW1 6815   8.176  13.347   6.000
34992SOL    HW2 6816   8.046  13.274   6.023
34993SOL     OW 6817  12.255  10.847  13.596
34993SOL    HW1 6818  12.265  10.799  13.679
34993SOL    HW2 6819  12.333  10.902  13.590
34994SOL     OW 6820   5.467   3.399   2.547
34994SOL    HW1 6821   5.438   3.316   2.583
34994SOL    HW2 6822   5.388   3.453   2.544
34995SOL     OW 6823   4.140   8.078   9.994
34995SOL    HW1 6824   4.110   7.997  10.035
34995SOL    HW2 6825   4.204   8.113  10.056
34996SOL     OW 6826  13.453   6.015   6.251
34996SOL    HW1 6827  13.530   6.062   6.285
34996SOL    HW2 6828  13.382   6.079   6.254
34997SOL     OW 6829   8.994   0.840   4.783
34997SOL    HW1 6830   8.995   0.818   4.876
34997SOL    HW2 6831   9.028   0.930   4.779
34998SOL     OW 6832   7.580   6.133   4.610
34998SOL    HW1 6833   7.635   6.114   4.534
34998SOL    HW2 6834   7.495   6.096   4.588
34999SOL     OW 6835   1.572  13.525  13.415
34999SOL    HW1 6836   1.564  13.504  13.322
34999SOL    HW2 6837   1.485  13.555  13.441
35000SOL     OW 6838  11.340   8.467   1.063
35000SOL    HW1 6839  11.248   8.467   1.088
35000SOL    HW2 6840  11.373   8.552   1.090
35001SOL     OW 6841   5.719   9.064  10.778
35001SOL    HW1 6842   5.706   9.012  10.698
35001SOL    HW2 6843   5.758   9.002  10.840
35002SOL     OW 6844   2.576   2.986   9.080
35002SOL    HW1 6845   2.613   2.973   9.167
35002SOL    HW2 6846   2.637   2.943   9.021
35003SOL     OW 6847   4.961  10.467  12.736
35003SOL    HW1 6848   5.022  10.411  12.785
35003SOL    HW2 6849   4.883  10.472  12.791
35004SOL     OW 6850  11.920  12.089   4.535
35004SOL    HW1 6851  11.886  12.066   4.621
35004SOL    HW2 6852  11.953  12.178   4.545
35005SOL     OW 6853   3.103  10.450   1.945
35005SOL    HW1 6854   3.175  10.393   1.919
35005SOL    HW2 6855   3.066  10.481   1.863
35006SOL     OW 6856   9.321  12.323   3.129
35006SOL    HW1 6857   9.306  12.230   3.142
35006SOL    HW2 6858   9.274  12.365   3.202
35007SOL     OW 6859  14.804   6.386   5.580
35007SOL    HW1 6860   0.011   6.335   5.566
35007SOL    HW2 6861  14.779   6.366   5.670
35008SOL     OW 6862   6.171   2.969   1.950
35008SOL    HW1 6863   6.160   3.060   1.977
35008SOL    HW2 6864   6.149   2.918   2.028
35009SOL     OW 6865   5.831  13.548   1.675
35009SOL    HW1 6866   5.879  13.490   1.616
35009SOL    HW2 6867   5.893  13.569   1.744
35010SOL     OW 6868   6.018   2.047   3.047
35010SOL    HW1 6869   6.039   1.956   3.069
35010SOL    HW2 6870   6.104   2.087   3.029
35011SOL     OW 6871   7.959   4.935   5.767
35011SOL    HW1 6872   7.928   4.845   5.770
35011SOL    HW2 6873   7.996   4.951   5.854
35012SOL     OW 6874   8.667   2.485   6.134
35012SOL    HW1 6875   8.685   2.572   6.169
35012SOL    HW2 6876   8.585   2.495   6.086
35013SOL     OW 6877   7.844  11.192   7.858
35013SOL    HW1 6878   7.905  11.159   7.924
35013SOL    HW2 6879   7.857  11.134   7.782
35014SOL     OW 6880   0.795   6.778   7.416
35014SOL    HW1 6881   0.777   6.686   7.434
35014SOL    HW2 6882   0.717   6.824   7.447
35015SOL     OW 6883  11.490   3.338  12.731
35015SOL    HW1 6884  11.550   3.314  12.803
35015SOL    HW2 6885  11.538   3.315  12.652
35016SOL     OW 6886  13.121   8.110  10.323
35016SOL    HW1 6887  13.165   8.098  10.407
35016SOL    HW2 6888  13.191   8.123  10.260
35017SOL     OW 6889   2.977   5.264   0.579
35017SOL    HW1 6890   3.053   5.321   0.570
35017SOL    HW2 6891   3.001   5.204   0.650
35018SOL     OW 6892  10.995  11.208   4.109
35018SOL    HW1 6893  11.070  11.164   4.148
35018SOL    HW2 6894  10.937  11.136   4.082
35019SOL     OW 6895   2.514  11.334   7.760
35019SOL    HW1 6896   2.517  11.365   7.850
35019SOL    HW2 6897   2.453  11.259   7.762
35020SOL     OW 6898  10.432   2.227   1.368
35020SOL    HW1 6899  10.357   2.178   1.403
35020SOL    HW2 6900  10.508   2.189   1.412
35021SOL     OW 6901  10.947   0.786   3.319
35021SOL    HW1 6902  10.896   0.744   3.388
35021SOL    HW2 6903  11.029   0.810   3.362
35022SOL     OW 6904   8.837   2.857   0.242
35022SOL    HW1 6905   8.872   2.788   0.297
35022SOL    HW2 6906   8.913   2.896   0.199
35023SOL     OW 6907  12.477  13.290   8.976
35023SOL    HW1 6908  12.431  13.218   8.933
35023SOL    HW2 6909  12.439  13.369   8.937
35024SOL     OW 6910  10.051   3.017   2.080
35024SOL    HW1 6911  10.045   3.088   2.016
35024SOL    HW2 6912  10.112   3.050   2.146
35025SOL     OW 6913   4.736  13.483  10.604
35025SOL    HW1 6914   4.745  13.388  10.619
35025SOL    HW2 6915   4.825  13.517  10.609
35026SOL     OW 6916  11.132  11.050   5.172
35026SOL    HW1 6917  11.202  11.016   5.228
35026SOL    HW2 6918  11.153  11.143   5.162
35027SOL     OW 6919   8.311   5.626   2.628
35027SOL    HW1 6920   8.350   5.548   2.669
35027SOL    HW2 6921   8.326   5.613   2.534
35028SOL     OW 6922   0.796   9.089   9.423
35028SOL    HW1 6923   0.765   9.012   9.376
35028SOL    HW2 6924   0.753   9.163   9.380
35029SOL     OW 6925  14.299   3.591   8.268
35029SOL    HW1 6926  14.308   3.678   8.306
35029SOL    HW2 6927  14.387   3.554   8.272
35030SOL     OW 6928  11.453   0.447  10.471
35030SOL    HW1 6929  11.381   0.486  10.422
35030SOL    HW2 6930  11.432   0.465  10.563
35031SOL     OW 6931   9.400   2.510   1.871
35031SOL    HW1 6932   9.328   2.521   1.808
35031SOL    HW2 6933   9.433   2.421   1.854
35032SOL     OW 6934   0.154   4.635  10.185
35032SOL    HW1 6935   0.186   4.624  10.275
35032SOL    HW2 6936   0.063   4.662  10.196
35033SOL     OW 6937  11.900   0.846  14.287
35033SOL    HW1 6938  11.884   0.834  14.381
35033SOL    HW2 6939  11.818   0.880  14.252
35034SOL     OW 6940   8.638   1.584   5.477
35034SOL    HW1 6941   8.611   1.662   5.525
35034SOL    HW2 6942   8.571   1.519   5.496
35035SOL     OW 6943   9.308   3.243   1.329
35035SOL    HW1 6944   9.267   3.224   1.414
35035SOL    HW2 6945   9.261   3.188   1.267
35036SOL     OW 6946  14.070   3.325   9.180
35036SOL    HW1 6947  14.134   3.387   9.146
35036SOL    HW2 6948  13.991   3.340   9.127
35037SOL     OW 6949   1.606   8.214   0.057
35037SOL    HW1 6950   1.591   8.121   0.073
35037SOL    HW2 6951   1.558   8.233  14.850
35038SOL     OW 6952  10.961  13.505   5.278
35038SOL    HW1 6953  10.888  13.457   5.317
35038SOL    HW2 6954  11.038  13.474   5.325
35039SOL     OW 6955   0.703  10.632   4.371
35039SOL    HW1 6956   0.664  10.563   4.424
35039SOL    HW2 6957   0.769  10.587   4.318
35040SOL     OW 6958  13.304   0.308   5.694
35040SOL    HW1 6959  13.340   0.396   5.683
35040SOL    HW2 6960  13.380   0.255   5.719
35041SOL     OW 6961  13.412   7.554   9.195
35041SOL    HW1 6962  13.472   7.479   9.190
35041SOL    HW2 6963  13.339   7.523   9.248
35042SOL     OW 6964   9.453  13.671   1.791
35042SOL    HW1 6965   9.412  13.757   1.796
35042SOL    HW2 6966   9.447  13.636   1.880
35043SOL     OW 6967  10.723   7.721   0.193
35043SOL    HW1 6968  10.686   7.659   0.257
35043SOL    HW2 6969  10.792   7.671   0.149
35044SOL     OW 6970   1.801   1.069   3.131
35044SOL    HW1 6971   1.865   1.105   3.070
35044SOL    HW2 6972   1.796   1.135   3.201
35045SOL     OW 6973   3.219   4.254   5.712
35045SOL    HW1 6974   3.211   4.236   5.806
35045SOL    HW2 6975   3.201   4.348   5.704
35046SOL     OW 6976   4.862   4.843  12.291
35046SOL    HW1 6977   4.867   4.866  12.384
35046SOL    HW2 6978   4.952   4.823  12.266
35047SOL     OW 6979  13.542  11.606  13.317
35047SOL    HW1 6980  13.455  11.628  13.350
35047SOL    HW2 6981  13.597  11.681  13.340
35048SOL     OW 6982   0.907   3.446   9.493
35048SOL    HW1 6983   0.978   3.402   9.540
35048SOL    HW2 6984   0.916   3.538   9.515
35049SOL     OW 6985  13.509  10.969  13.176
35049SOL    HW1 6986  13.575  10.905  13.201
35049SOL    HW2 6987  13.438  10.957  13.239
35050SOL     OW 6988   3.394   8.985  10.509
35050SOL    HW1 6989   3.311   8.937  10.512
35050SOL    HW2 6990   3.451   8.931  10.455
35051SOL     OW 6991  13.379  12.991   7.892
35051SOL    HW1 6992  13.468  13.027   7.890
35051SOL    HW2 6993  13.354  12.993   7.984
35052SOL     OW 6994   8.346   2.568  11.803
35052SOL    HW1 6995   8.317   2.528  11.885
35052SOL    HW2 6996   8.426   2.614  11.825
35053SOL     OW 6997   7.776   5.306  12.064
35053SOL    HW1 6998   7.773   5.334  11.973
35053SOL    HW2 6999   7.869   5.303  12.085
35054SOL     OW 7000  13.298   1.238   6.504
35054SOL    HW1 7001  13.236   1.172   6.534
35054SOL    HW2 7002  13.270   1.258   6.414
35055SOL     OW 7003   6.824   9.117   4.014
35055SOL    HW1 7004   6.841   9.094   4.106
35055SOL    HW2 7005   6.808   9.211   4.015
35056SOL     OW 7006  13.541   7.068   4.517
35056SOL    HW1 7007  13.451   7.098   4.506
35056SOL    HW2 7008  13.586   7.141   4.559
35057SOL     OW 7009  12.670  10.751   2.210
35057SOL    HW1 7010  12.625  10.768   2.293
35057SOL    HW2 7011  12.710  10.835   2.188
35058SOL     OW 7012  14.619   8.299   9.869
35058SOL    HW1 7013  14.689   8.246   9.834
35058SOL    HW2 7014  14.550   8.296   9.803
35059SOL     OW 7015  11.000   1.592   4.011
35059SOL    HW1 7016  10.923   1.537   4.024
35059SOL    HW2 7017  11.003   1.607   3.916
35060SOL     OW 7018  10.398   8.265  14.340
35060SOL    HW1 7019  10.416   8.186  14.290
35060SOL    HW2 7020  10.351   8.233  14.418
35061SOL     OW 7021   3.737   7.525  12.116
35061SOL    HW1 7022   3.734   7.430  12.127
35061SOL    HW2 7023   3.646   7.553  12.124
35062SOL     OW 7024   1.355   3.722   1.946
35062SOL    HW1 7025   1.325   3.792   2.003
35062SOL    HW2 7026   1.276   3.693   1.899
35063SOL     OW 7027   9.056   9.234  12.924
35063SOL    HW1 7028   8.965   9.219  12.951
35063SOL    HW2 7029   9.096   9.147  12.925
35064SOL     OW 7030   6.801   6.819   8.421
35064SOL    HW1 7031   6.796   6.751   8.488
35064SOL    HW2 7032   6.717   6.865   8.428
35065SOL     OW 7033   9.898   6.803   6.516
35065SOL    HW1 7034   9.982   6.779   6.555
35065SOL    HW2 7035   9.841   6.821   6.592
35066SOL     OW 7036   4.222   6.617   7.727
35066SOL    HW1 7037   4.284   6.588   7.660
35066SOL    HW2 7038   4.142   6.570   7.708
35067SOL     OW 7039   4.329   8.111   1.405
35067SOL    HW1 7040   4.270   8.037   1.424
35067SOL    HW2 7041   4.409   8.092   1.454
35068SOL     OW 7042   2.762   1.481  11.850
35068SOL    HW1 7043   2.839   1.458  11.798
35068SOL    HW2 7044   2.746   1.573  11.830
35069SOL     OW 7045   9.193   1.692   1.989
35069SOL    HW1 7046   9.141   1.762   2.028
35069SOL    HW2 7047   9.222   1.638   2.062
35070SOL     OW 7048  13.810  12.118   7.541
35070SOL    HW1 7049  13.726  12.081   7.514
35070SOL    HW2 7050  13.819  12.197   7.488
35071SOL     OW 7051  11.538   7.202   7.631
35071SOL    HW1 7052  11.522   7.122   7.682
35071SOL    HW2 7053  11.510   7.180   7.542
35072SOL     OW 7054   0.972   0.586  10.580
35072SOL    HW1 7055   1.036   0.651  10.551
35072SOL    HW2 7056   0.929   0.627  10.655
35073SOL     OW 7057   4.205  10.919   1.077
35073SOL    HW1 7058   4.166  10.867   1.147
35073SOL    HW2 7059   4.226  10.856   1.008
35074SOL     OW 7060   1.754   2.923  10.616
35074SOL    HW1 7061   1.819   2.984  10.650
35074SOL    HW2 7062   1.676   2.939  10.669
35075SOL     OW 7063   3.710  11.053   5.929
35075SOL    HW1 7064   3.714  11.115   6.002
35075SOL    HW2 7065   3.795  11.061   5.886
35076SOL     OW 7066   3.425   2.955   4.840
35076SOL    HW1 7067   3.516   2.938   4.815
35076SOL    HW2 7068   3.415   3.050   4.830
35077SOL     OW 7069  10.781  14.014   5.370
35077SOL    HW1 7070  10.846  14.041   5.435
35077SOL    HW2 7071  10.784  13.918   5.372
35078SOL     OW 7072  12.218   7.733   6.989
35078SOL    HW1 7073  12.143   7.787   6.964
35078SOL    HW2 7074  12.254   7.701   6.906
35079SOL     OW 7075  12.007  12.370   3.453
35079SOL    HW1 7076  11.960  12.288   3.443
35079SOL    HW2 7077  12.001  12.390   3.547
35080SOL     OW 7078   7.571  14.210   8.208
35080SOL    HW1 7079   7.506  14.164   8.155
35080SOL    HW2 7080   7.642  14.147   8.220
35081SOL     OW 7081   4.010   9.729   8.027
35081SOL    HW1 7082   4.049   9.811   8.056
35081SOL    HW2 7083   4.016   9.671   8.103
35082SOL     OW 7084   8.013   5.994   3.357
35082SOL    HW1 7085   8.081   5.965   3.297
35082SOL    HW2 7086   7.992   5.916   3.409
35083SOL     OW 7087  10.300   1.717  12.087
35083SOL    HW1 7088  10.367   1.765  12.038
35083SOL    HW2 7089  10.241   1.785  12.120
35084SOL     OW 7090   5.347  11.410   5.861
35084SOL    HW1 7091   5.344  11.325   5.818
35084SOL    HW2 7092   5.419  11.404   5.923
35085SOL     OW 7093  11.277   7.923   2.117
35085SOL    HW1 7094  11.289   7.828   2.122
35085SOL    HW2 7095  11.328   7.950   2.041
35086SOL     OW 7096  14.447  14.861  10.645
35086SOL    HW1 7097  14.523   0.035  10.680
35086SOL    HW2 7098  14.399   0.053  10.594
35087SOL     OW 7099   1.997   1.888   9.495
35087SOL    HW1 7100   1.977   1.952   9.426
35087SOL    HW2 7101   1.962   1.806   9.463
35088SOL     OW 7102   4.684   4.558  10.329
35088SOL    HW1 7103   4.602   4.587  10.369
35088SOL    HW2 7104   4.722   4.498  10.394
35089SOL     OW 7105  14.213   4.397   8.632
35089SOL    HW1 7106  14.234   4.450   8.709
35089SOL    HW2 7107  14.202   4.460   8.561
35090SOL     OW 7108  13.777   9.183   9.751
35090SOL    HW1 7109  13.750   9.145   9.834
35090SOL    HW2 7110  13.792   9.276   9.770
35091SOL     OW 7111   4.394   4.537   1.021
35091SOL    HW1 7112   4.351   4.453   1.005
35091SOL    HW2 7113   4.323   4.596   1.046
35092SOL     OW 7114  10.959  12.855  14.183
35092SOL    HW1 7115  10.907  12.779  14.157
35092SOL    HW2 7116  11.004  12.881  14.102
35093SOL     OW 7117   0.787  12.086   1.795
35093SOL    HW1 7118   0.743  12.023   1.737
35093SOL    HW2 7119   0.869  12.044   1.818
35094SOL     OW 7120   1.192   5.672   5.120
35094SOL    HW1 7121   1.244   5.653   5.041
35094SOL    HW2 7122   1.257   5.693   5.187
35095SOL     OW 7123   1.548   0.657  11.549
35095SOL    HW1 7124   1.495   0.705  11.613
35095SOL    HW2 7125   1.638   0.668  11.580
35096SOL     OW 7126  13.117  13.218   8.606
35096SOL    HW1 7127  13.102  13.143   8.548
35096SOL    HW2 7128  13.083  13.189   8.691
35097SOL     OW 7129  10.966  12.533  12.836
35097SOL    HW1 7130  10.958  12.522  12.741
35097SOL    HW2 7131  11.039  12.477  12.861
35098SOL     OW 7132   6.685   6.059   7.713
35098SOL    HW1 7133   6.739   6.047   7.791
35098SOL    HW2 7134   6.646   6.146   7.724
35099SOL     OW 7135   7.787  10.292   6.624
35099SOL    HW1 7136   7.804  10.306   6.717
35099SOL    HW2 7137   7.864  10.328   6.580
35100SOL     OW 7138  14.156  12.577   1.303
35100SOL    HW1 7139  14.133  12.508   1.241
35100SOL    HW2 7140  14.151  12.536   1.389
35101SOL     OW 7141  11.377   3.672  13.658
35101SOL    HW1 7142  11.420   3.735  13.601
35101SOL    HW2 7143  11.304   3.639  13.607
35102SOL     OW 7144   6.606   8.567   8.618
35102SOL    HW1 7145   6.584   8.527   8.703
35102SOL    HW2 7146   6.630   8.657   8.639
35103SOL     OW 7147   6.516  13.460   4.120
35103SOL    HW1 7148   6.495  13.532   4.179
35103SOL    HW2 7149   6.582  13.495   4.061
35104SOL     OW 7150   2.419   7.520   2.494
35104SOL    HW1 7151   2.514   7.531   2.488
35104SOL    HW2 7152   2.399   7.525   2.587
35105SOL     OW 7153  13.534   9.792   0.581
35105SOL    HW1 7154  13.475   9.772   0.508
35105SOL    HW2 7155  13.498   9.744   0.655
35106SOL     OW 7156   0.634   2.022   1.703
35106SOL    HW1 7157   0.699   2.086   1.676
35106SOL    HW2 7158   0.599   1.988   1.620
35107SOL     OW 7159   7.579  14.251   7.277
35107SOL    HW1 7160   7.555  14.336   7.315
35107SOL    HW2 7161   7.538  14.252   7.190
35108SOL     OW 7162   9.224  11.254  10.156
35108SOL    HW1 7163   9.233  11.192  10.229
35108SOL    HW2 7164   9.302  11.238  10.102
35109SOL     OW 7165   5.418  12.534  11.947
35109SOL    HW1 7166   5.494  12.510  12.000
35109SOL    HW2 7167   5.439  12.621  11.913
35110SOL     OW 7168   5.568   9.279   2.194
35110SOL    HW1 7169   5.585   9.218   2.266
35110SOL    HW2 7170   5.504   9.341   2.229
35111SOL     OW 7171   4.620   3.722   8.133
35111SOL    HW1 7172   4.663   3.657   8.077
35111SOL    HW2 7173   4.647   3.807   8.096
35112SOL     OW 7174  11.054  11.811   9.047
35112SOL    HW1 7175  10.974  11.860   9.027
35112SOL    HW2 7176  11.024  11.737   9.100
35113SOL     OW 7177   5.648   0.006   7.374
35113SOL    HW1 7178   5.692   0.065   7.436
35113SOL    HW2 7179   5.558   0.039   7.370
35114SOL     OW 7180   2.545   4.286  11.786
35114SOL    HW1 7181   2.607   4.308  11.716
35114SOL    HW2 7182   2.601   4.261  11.860
35115SOL     OW 7183  13.620   4.473   2.050
35115SOL    HW1 7184  13.637   4.433   1.964
35115SOL    HW2 7185  13.558   4.413   2.092
35116SOL     OW 7186   9.585   4.307  10.096
35116SOL    HW1 7187   9.548   4.222  10.118
35116SOL    HW2 7188   9.612   4.344  10.180
35117SOL     OW 7189   2.866   1.744  11.899
35117SOL    HW1 7190   2.895   1.835  11.888
35117SOL    HW2 7191   2.917   1.711  11.973
35118SOL     OW 7192  14.009  10.593  12.978
35118SOL    HW1 7193  14.078  10.528  12.988
35118SOL    HW2 7194  14.022  10.630  12.891
35119SOL     OW 7195  11.419   8.717  14.138
35119SOL    HW1 7196  11.433   8.629  14.172
35119SOL    HW2 7197  11.324   8.729  14.141
35120SOL     OW 7198  11.112  10.702   1.981
35120SOL    HW1 7199  11.169  10.763   1.934
35120SOL    HW2 7200  11.158  10.618   1.976
35121SOL     OW 7201   4.272   0.442  11.087
35121SOL    HW1 7202   4.291   0.359  11.131
35121SOL    HW2 7203   4.177   0.440  11.073
35122SOL     OW 7204  10.091  14.318  13.859
35122SOL    HW1 7205  10.113  14.283  13.945
35122SOL    HW2 7206  10.002  14.353  13.870
35123SOL     OW 7207  14.434   0.412  11.348
35123SOL    HW1 7208  14.430   0.503  11.379
35123SOL    HW2 7209  14.485   0.417  11.267
35124SOL     OW 7210   9.415   5.454   9.476
35124SOL    HW1 7211   9.439   5.395   9.548
35124SOL    HW2 7212   9.457   5.415   9.399
35125SOL     OW 7213   9.690   5.971  10.599
35125SOL    HW1 7214   9.740   5.952  10.678
35125SOL    HW2 7215   9.726   5.912  10.533
35126SOL     OW 7216   9.362   1.269  13.336
35126SOL    HW1 7217   9.432   1.296  13.394
35126SOL    HW2 7218   9.344   1.347  13.282
35127SOL     OW 7219   5.811  10.228   7.941
35127SOL    HW1 7220   5.876  10.211   7.873
35127SOL    HW2 7221   5.736  10.174   7.917
35128SOL     OW 7222   0.172  12.261   9.242
35128SOL    HW1 7223   0.147  12.197   9.175
35128SOL    HW2 7224   0.158  12.346   9.201
35129SOL     OW 7225  13.683   4.130   3.323
35129SOL    HW1 7226  13.677   4.131   3.228
35129SOL    HW2 7227  13.731   4.049   3.343
35130SOL     OW 7228   2.505  13.966   8.472
35130SOL    HW1 7229   2.431  13.981   8.413
35130SOL    HW2 7230   2.533  14.054   8.499
35131SOL     OW 7231   2.929  11.094  13.732
35131SOL    HW1 7232   2.947  11.183  13.703
35131SOL    HW2 7233   2.972  11.038  13.667
35132SOL     OW 7234  13.043  13.943  13.421
35132SOL    HW1 7235  13.028  13.871  13.481
35132SOL    HW2 7236  13.003  13.914  13.338
35133SOL     OW 7237   5.913  12.277   9.489
35133SOL    HW1 7238   5.999  12.235   9.485
35133SOL    HW2 7239   5.873  12.256   9.404
35134SOL     OW 7240   9.308   3.193  11.757
35134SOL    HW1 7241   9.324   3.099  11.750
35134SOL    HW2 7242   9.319   3.226  11.668
35135SOL     OW 7243   3.788   5.884   4.402
35135SOL    HW1 7244   3.787   5.923   4.489
35135SOL    HW2 7245   3.776   5.957   4.342
35136SOL     OW 7246   4.458   2.124   0.787
35136SOL    HW1 7247   4.474   2.199   0.844
35136SOL    HW2 7248   4.366   2.133   0.761
35137SOL     OW 7249   4.824   7.891  12.873
35137SOL    HW1 7250   4.843   7.983  12.889
35137SOL    HW2 7251   4.895   7.843  12.916
35138SOL     OW 7252  10.107  14.820  11.820
35138SOL    HW1 7253  10.196  14.785  11.823
35138SOL    HW2 7254  10.055  14.757  11.871
35139SOL     OW 7255   7.092  14.469  13.343
35139SOL    HW1 7256   7.159  14.506  13.286
35139SOL    HW2 7257   7.112  14.375  13.346
35140SOL     OW 7258  12.695  12.279   5.623
35140SOL    HW1 7259  12.747  12.330   5.561
35140SOL    HW2 7260  12.624  12.339   5.649
35141SOL     OW 7261   4.540  13.045  12.057
35141SOL    HW1 7262   4.518  13.010  11.971
35141SOL    HW2 7263   4.476  13.115  12.071
35142SOL     OW 7264   1.067  10.751  11.588
35142SOL    HW1 7265   1.051  10.662  11.558
35142SOL    HW2 7266   0.982  10.794  11.582
35143SOL     OW 7267   4.817   9.063  10.267
35143SOL    HW1 7268   4.876   9.130  10.301
35143SOL    HW2 7269   4.729   9.102  10.275
35144SOL     OW 7270  10.468   8.956   7.652
35144SOL    HW1 7271  10.402   8.927   7.716
35144SOL    HW2 7272  10.522   8.879   7.637
35145SOL     OW 7273  12.571  12.806  12.755
35145SOL    HW1 7274  12.648  12.748  12.760
35145SOL    HW2 7275  12.584  12.856  12.674
35146SOL     OW 7276   7.789   1.181   0.479
35146SOL    HW1 7277   7.707   1.200   0.524
35146SOL    HW2 7278   7.799   1.086   0.485
35147SOL     OW 7279  10.910   2.153   0.197
35147SOL    HW1 7280  10.871   2.081   0.246
35147SOL    HW2 7281  10.863   2.231   0.228
35148SOL     OW 7282  14.606  13.153   5.179
35148SOL    HW1 7283  14.654  13.108   5.111
35148SOL    HW2 7284  14.646  13.240   5.183
35149SOL     OW 7285  14.049   0.079  13.290
35149SOL    HW1 7286  14.016   0.142  13.354
35149SOL    HW2 7287  14.123   0.037  13.333
35150SOL     OW 7288   2.060  11.061   3.811
35150SOL    HW1 7289   2.030  11.033   3.725
35150SOL    HW2 7290   2.005  11.014   3.873
35151SOL     OW 7291   6.117   7.060  14.774
35151SOL    HW1 7292   6.192   7.116  14.788
35151SOL    HW2 7293   6.153   6.971  14.772
35152SOL     OW 7294   5.511   5.294   7.564
35152SOL    HW1 7295   5.571   5.224   7.593
35152SOL    HW2 7296   5.563   5.374   7.570
35153SOL     OW 7297  12.030   3.611  10.295
35153SOL    HW1 7298  11.991   3.646  10.215
35153SOL    HW2 7299  11.960   3.559  10.335
35154SOL     OW 7300  14.030   6.056   5.506
35154SOL    HW1 7301  14.025   5.987   5.572
35154SOL    HW2 7302  14.014   6.012   5.423
35155SOL     OW 7303  12.697  11.252   8.646
35155SOL    HW1 7304  12.652  11.169   8.662
35155SOL    HW2 7305  12.663  11.282   8.562
35156SOL     OW 7306   5.890   6.438   6.844
35156SOL    HW1 7307   5.912   6.514   6.898
35156SOL    HW2 7308   5.867   6.475   6.758
35157SOL     OW 7309  13.938  14.562   9.509
35157SOL    HW1 7310  13.893  14.624   9.452
35157SOL    HW2 7311  13.953  14.610   9.590
35158SOL     OW 7312   4.251  10.632   9.358
35158SOL    HW1 7313   4.167  10.677   9.353
35158SOL    HW2 7314   4.275  10.636   9.451
35159SOL     OW 7315   2.345   2.875  10.087
35159SOL    HW1 7316   2.367   2.844   9.999
35159SOL    HW2 7317   2.249   2.873  10.089
35160SOL     OW 7318   2.924   6.742   2.991
35160SOL    HW1 7319   2.923   6.655   2.951
35160SOL    HW2 7320   2.865   6.794   2.937
35161SOL     OW 7321  11.716  13.366  10.005
35161SOL    HW1 7322  11.776  13.296   9.978
35161SOL    HW2 7323  11.629  13.328   9.996
35162SOL     OW 7324  10.576   0.650   5.390
35162SOL    HW1 7325  10.611   0.563   5.405
35162SOL    HW2 7326  10.653   0.703   5.369
35163SOL     OW 7327  10.920  14.283  14.825
35163SOL    HW1 7328  10.855  14.281  14.755
35163SOL    HW2 7329  10.894  14.356   0.007
35164SOL     OW 7330  13.357   6.319   2.493
35164SOL    HW1 7331  13.317   6.231   2.493
35164SOL    HW2 7332  13.450   6.303   2.505
35165SOL     OW 7333  13.955  11.781  10.196
35165SOL    HW1 7334  13.900  11.766  10.119
35165SOL    HW2 7335  13.893  11.797  10.267
35166SOL     OW 7336   0.322  12.832   6.313
35166SOL    HW1 7337   0.328  12.751   6.363
35166SOL    HW2 7338   0.235  12.830   6.273
35167SOL     OW 7339   7.308   8.355   8.126
35167SOL    HW1 7340   7.262   8.272   8.109
35167SOL    HW2 7341   7.239   8.420   8.132
35168SOL     OW 7342  12.353   0.682  11.784
35168SOL    HW1 7343  12.308   0.698  11.701
35168SOL    HW2 7344  12.357   0.768  11.826
35169SOL     OW 7345  12.215   9.852   6.672
35169SOL    HW1 7346  12.133   9.873   6.627
35169SOL    HW2 7347  12.195   9.859   6.765
35170SOL     OW 7348  14.512   8.773   5.761
35170SOL    HW1 7349  14.563   8.784   5.841
35170SOL    HW2 7350  14.485   8.681   5.763
35171SOL     OW 7351   2.775   8.075   8.802
35171SOL    HW1 7352   2.830   8.112   8.870
35171SOL    HW2 7353   2.836   8.031   8.743
35172SOL     OW 7354   0.040  14.510  12.424
35172SOL    HW1 7355  14.862  14.429  12.419
35172SOL    HW2 7356   0.013  14.560  12.346
35173SOL     OW 7357  12.091   4.434  11.960
35173SOL    HW1 7358  12.161   4.375  11.991
35173SOL    HW2 7359  12.082   4.413  11.867
35174SOL     OW 7360   8.242   8.543  10.478
35174SOL    HW1 7361   8.206   8.631  10.484
35174SOL    HW2 7362   8.239   8.509  10.568
35175SOL     OW 7363   4.900   3.646   4.269
35175SOL    HW1 7364   4.839   3.714   4.242
35175SOL    HW2 7365   4.972   3.694   4.311
35176SOL     OW 7366   8.875   8.282   1.603
35176SOL    HW1 7367   8.913   8.365   1.632
35176SOL    HW2 7368   8.781   8.294   1.614
35177SOL     OW 7369   1.854   1.541   6.073
35177SOL    HW1 7370   1.901   1.496   6.004
35177SOL    HW2 7371   1.913   1.537   6.149
35178SOL     OW 7372   9.721  10.052   1.168
35178SOL    HW1 7373   9.759  10.130   1.209
35178SOL    HW2 7374   9.628  10.059   1.185
35179SOL     OW 7375  14.305   9.404   8.042
35179SOL    HW1 7376  14.336   9.410   7.952
35179SOL    HW2 7377  14.285   9.311   8.054
35180SOL     OW 7378  12.513   7.736  12.447
35180SOL    HW1 7379  12.560   7.669  12.498
35180SOL    HW2 7380  12.477   7.687  12.373
35181SOL     OW 7381   3.282  10.905  10.044
35181SOL    HW1 7382   3.328  10.984  10.072
35181SOL    HW2 7383   3.290  10.845  10.118
35182SOL     OW 7384   7.557   2.891   3.853
35182SOL    HW1 7385   7.586   2.981   3.866
35182SOL    HW2 7386   7.620   2.853   3.792
35183SOL     OW 7387  14.218   5.405   3.858
35183SOL    HW1 7388  14.276   5.338   3.823
35183SOL    HW2 7389  14.273   5.483   3.867
35184SOL     OW 7390  14.680   5.505   7.192
35184SOL    HW1 7391  14.649   5.486   7.103
35184SOL    HW2 7392  14.761   5.455   7.201
35185SOL     OW 7393   6.122  12.017   3.597
35185SOL    HW1 7394   6.097  11.937   3.550
35185SOL    HW2 7395   6.148  11.987   3.684
35186SOL     OW 7396  13.364  13.258   6.403
35186SOL    HW1 7397  13.378  13.177   6.354
35186SOL    HW2 7398  13.318  13.316   6.342
35187SOL     OW 7399   7.565  10.308  13.800
35187SOL    HW1 7400   7.565  10.219  13.835
35187SOL    HW2 7401   7.589  10.297  13.708
35188SOL     OW 7402   2.308  10.082   9.032
35188SOL    HW1 7403   2.374  10.017   9.009
35188SOL    HW2 7404   2.256  10.093   8.952
35189SOL     OW 7405  10.396  12.520  12.303
35189SOL    HW1 7406  10.484  12.546  12.333
35189SOL    HW2 7407  10.395  12.543  12.210
35190SOL     OW 7408   6.568   9.791  10.090
35190SOL    HW1 7409   6.570   9.731  10.164
35190SOL    HW2 7410   6.591   9.737  10.014
35191SOL     OW 7411   4.191  12.225  14.865
35191SOL    HW1 7412   4.269  12.270  14.832
35191SOL    HW2 7413   4.123  12.292  14.869
35192SOL     OW 7414   8.436  14.768   3.382
35192SOL    HW1 7415   8.512  14.767   3.440
35192SOL    HW2 7416   8.437  14.856   3.344
35193SOL     OW 7417   2.157  13.881   2.339
35193SOL    HW1 7418   2.124  13.954   2.288
35193SOL    HW2 7419   2.241  13.859   2.299
35194SOL     OW 7420   5.621   4.711   8.682
35194SOL    HW1 7421   5.678   4.746   8.750
35194SOL    HW2 7422   5.600   4.623   8.711
35195SOL     OW 7423   4.738   4.896   5.914
35195SOL    HW1 7424   4.680   4.972   5.916
35195SOL    HW2 7425   4.823   4.931   5.940
35196SOL     OW 7426   9.094  10.334   2.919
35196SOL    HW1 7427   9.174  10.355   2.966
35196SOL    HW2 7428   9.045  10.278   2.980
35197SOL     OW 7429   7.037   2.601   0.253
35197SOL    HW1 7430   7.081   2.685   0.269
35197SOL    HW2 7431   7.042   2.555   0.337
35198SOL     OW 7432   1.731   8.579   1.494
35198SOL    HW1 7433   1.690   8.665   1.498
35198SOL    HW2 7434   1.735   8.559   1.400
35199SOL     OW 7435  10.117  10.872   0.765
35199SOL    HW1 7436  10.042  10.906   0.717
35199SOL    HW2 7437  10.130  10.934   0.836
35200SOL     OW 7438  11.662   6.715   9.714
35200SOL    HW1 7439  11.573   6.679   9.719
35200SOL    HW2 7440  11.706   6.662   9.647
35201SOL     OW 7441   0.658  10.193  11.233
35201SOL    HW1 7442   0.702  10.154  11.158
35201SOL    HW2 7443   0.612  10.269  11.197
35202SOL     OW 7444   0.576   7.155   5.075
35202SOL    HW1 7445   0.513   7.212   5.032
35202SOL    HW2 7446   0.542   7.144   5.164
35203SOL     OW 7447  14.216  14.295  13.096
35203SOL    HW1 7448  14.238  14.326  13.008
35203SOL    HW2 7449  14.243  14.203  13.095
35204SOL     OW 7450   3.642  12.913   4.879
35204SOL    HW1 7451   3.728  12.884   4.908
35204SOL    HW2 7452   3.655  12.943   4.789
35205SOL     OW 7453   7.895   8.595   3.762
35205SOL    HW1 7454   7.905   8.600   3.667
35205SOL    HW2 7455   7.857   8.679   3.787
35206SOL     OW 7456  13.736   0.253   1.313
35206SOL    HW1 7457  13.705   0.335   1.275
35206SOL    HW2 7458  13.823   0.241   1.277
35207SOL     OW 7459  12.127   9.222   9.157
35207SOL    HW1 7460  12.120   9.154   9.091
35207SOL    HW2 7461  12.215   9.258   9.146
35208SOL     OW 7462  10.912   9.211   9.985
35208SOL    HW1 7463  10.820   9.239   9.983
35208SOL    HW2 7464  10.957   9.270   9.925
35209SOL     OW 7465  12.741   0.931   0.470
35209SOL    HW1 7466  12.657   0.951   0.430
35209SOL    HW2 7467  12.797   0.907   0.396
35210SOL     OW 7468   4.941   2.922   1.464
35210SOL    HW1 7469   4.969   2.914   1.555
35210SOL    HW2 7470   4.920   2.832   1.438
35211SOL     OW 7471  11.601  12.117   7.878
35211SOL    HW1 7472  11.637  12.125   7.790
35211SOL    HW2 7473  11.540  12.044   7.873
35212SOL     OW 7474  12.818   7.579  11.716
35212SOL    HW1 7475  12.784   7.614  11.798
35212SOL    HW2 7476  12.779   7.492  11.709
35213SOL     OW 7477   3.717   3.303   2.961
35213SOL    HW1 7478   3.804   3.308   3.002
35213SOL    HW2 7479   3.685   3.393   2.962
35214SOL     OW 7480   1.700  10.269  12.859
35214SOL    HW1 7481   1.753  10.341  12.826
35214SOL    HW2 7482   1.636  10.311  12.917
35215SOL     OW 7483   8.734  14.816  13.735
35215SOL    HW1 7484   8.689  14.840  13.816
35215SOL    HW2 7485   8.673  14.758  13.689
35216SOL     OW 7486  10.343   8.873   4.737
35216SOL    HW1 7487  10.251   8.899   4.743
35216SOL    HW2 7488  10.391   8.956   4.731
35217SOL     OW 7489  11.868   6.774   0.148
35217SOL    HW1 7490  11.893   6.785   0.240
35217SOL    HW2 7491  11.828   6.858   0.123
35218SOL     OW 7492   7.269   4.742   8.376
35218SOL    HW1 7493   7.200   4.792   8.419
35218SOL    HW2 7494   7.294   4.674   8.438
35219SOL     OW 7495  12.030   2.987  10.941
35219SOL    HW1 7496  11.937   2.986  10.920
35219SOL    HW2 7497  12.070   2.927  10.878
35220SOL     OW 7498   0.389   6.555   8.361
35220SOL    HW1 7499   0.299   6.536   8.386
35220SOL    HW2 7500   0.427   6.601   8.436
35221SOL     OW 7501   1.952   2.189   7.748
35221SOL    HW1 7502   2.029   2.223   7.702
35221SOL    HW2 7503   1.905   2.267   7.776
35222SOL     OW 7504   2.110   5.194   8.901
35222SOL    HW1 7505   2.160   5.124   8.943
35222SOL    HW2 7506   2.063   5.150   8.830
35223SOL     OW 7507   7.256  11.138   7.216
35223SOL    HW1 7508   7.165  11.166   7.221
35223SOL    HW2 7509   7.276  11.105   7.304
35224SOL     OW 7510   2.200  13.032   1.318
35224SOL    HW1 7511   2.146  12.957   1.294
35224SOL    HW2 7512   2.260  13.043   1.244
35225SOL     OW 7513   1.320   8.540  10.941
35225SOL    HW1 7514   1.289   8.449  10.936
35225SOL    HW2 7515   1.400   8.534  10.993
35226SOL     OW 7516  10.746  10.410   2.505
35226SOL    HW1 7517  10.819  10.390   2.564
35226SOL    HW2 7518  10.777  10.484   2.454
35227SOL     OW 7519  13.847  12.032  14.531
35227SOL    HW1 7520  13.853  12.110  14.586
35227SOL    HW2 7521  13.933  12.025  14.490
35228SOL     OW 7522  12.423   3.432  13.620
35228SOL    HW1 7523  12.373   3.351  13.609
35228SOL    HW2 7524  12.358   3.497  13.648
35229SOL     OW 7525   1.978  13.205   0.480
35229SOL    HW1 7526   2.063  13.246   0.497
35229SOL    HW2 7527   1.981  13.122   0.528
35230SOL     OW 7528   5.026  14.679   2.090
35230SOL    HW1 7529   5.118  14.700   2.074
35230SOL    HW2 7530   5.001  14.621   2.018
35231SOL     OW 7531   9.997   6.246  10.274
35231SOL    HW1 7532   9.979   6.180  10.207
35231SOL    HW2 7533   9.923   6.240  10.334
35232SOL     OW 7534  11.254   9.229  14.129
35232SOL    HW1 7535  11.225   9.284  14.056
35232SOL    HW2 7536  11.182   9.234  14.192
35233SOL     OW 7537  12.265   4.251   2.172
35233SOL    HW1 7538  12.271   4.196   2.094
35233SOL    HW2 7539  12.309   4.200   2.240
35234SOL     OW 7540  12.502   8.407  11.882
35234SOL    HW1 7541  12.516   8.418  11.788
35234SOL    HW2 7542  12.585   8.371  11.914
35235SOL     OW 7543  10.920   2.729   1.345
35235SOL    HW1 7544  10.961   2.655   1.299
35235SOL    HW2 7545  10.909   2.795   1.277
35236SOL     OW 7546  10.372  12.581  12.026
35236SOL    HW1 7547  10.419  12.497  12.030
35236SOL    HW2 7548  10.395  12.618  11.941
35237SOL     OW 7549   8.941   6.801   6.626
35237SOL    HW1 7550   8.944   6.832   6.535
35237SOL    HW2 7551   8.866   6.743   6.629
35238SOL     OW 7552   6.614   3.811   7.310
35238SOL    HW1 7553   6.708   3.793   7.301
35238SOL    HW2 7554   6.594   3.786   7.400
35239SOL     OW 7555  13.467   1.736   9.728
35239SOL    HW1 7556  13.505   1.693   9.805
35239SOL    HW2 7557  13.390   1.782   9.762
35240SOL     OW 7558   9.071   4.410   1.676
35240SOL    HW1 7559   8.990   4.361   1.690
35240SOL    HW2 7560   9.084   4.409   1.581
35241SOL     OW 7561  12.087   9.002  12.165
35241SOL    HW1 7562  12.023   8.933  12.150
35241SOL    HW2 7563  12.079   9.023  12.258
35242SOL     OW 7564  11.696  13.487   4.021
35242SOL    HW1 7565  11.699  13.564   3.964
35242SOL    HW2 7566  11.602  13.471   4.035
35243SOL     OW 7567   1.766  13.342  11.046
35243SOL    HW1 7568   1.765  13.290  10.966
35243SOL    HW2 7569   1.828  13.298  11.103
35244SOL     OW 7570  10.943   3.273   5.188
35244SOL    HW1 7571  10.956   3.178   5.183
35244SOL    HW2 7572  10.883   3.292   5.117
35245SOL     OW 7573   0.664  13.503   8.401
35245SOL    HW1 7574   0.644  13.593   8.426
35245SOL    HW2 7575   0.759  13.496   8.410
35246SOL     OW 7576   6.284  11.954   6.706
35246SOL    HW1 7577   6.293  11.958   6.801
35246SOL    HW2 7578   6.244  11.869   6.688
35247SOL     OW 7579  10.646   1.529   7.293
35247SOL    HW1 7580  10.671   1.456   7.349
35247SOL    HW2 7581  10.640   1.492   7.205
35248SOL     OW 7582  12.944   0.508   8.708
35248SOL    HW1 7583  12.866   0.560   8.686
35248SOL    HW2 7584  12.986   0.493   8.624
35249SOL     OW 7585   5.170   5.559  12.167
35249SOL    HW1 7586   5.221   5.592  12.092
35249SOL    HW2 7587   5.234   5.551  12.238
35250SOL     OW 7588   0.211  14.608  14.726
35250SOL    HW1 7589   0.228  14.592  14.633
35250SOL    HW2 7590   0.117  14.592  14.736
35251SOL     OW 7591   0.403   4.108   0.702
35251SOL    HW1 7592   0.346   4.124   0.627
35251SOL    HW2 7593   0.492   4.112   0.667
35252SOL     OW 7594   4.391   2.113   1.147
35252SOL    HW1 7595   4.331   2.185   1.129
35252SOL    HW2 7596   4.338   2.034   1.139
35253SOL     OW 7597   4.313   2.697  13.506
35253SOL    HW1 7598   4.279   2.675  13.419
35253SOL    HW2 7599   4.377   2.766  13.490
35254SOL     OW 7600   8.136   1.280   1.369
35254SOL    HW1 7601   8.202   1.217   1.398
35254SOL    HW2 7602   8.181   1.365   1.372
35255SOL     OW 7603   1.009   5.283  11.866
35255SOL    HW1 7604   1.006   5.286  11.962
35255SOL    HW2 7605   1.089   5.234  11.846
35256SOL     OW 7606   6.945   9.549  13.134
35256SOL    HW1 7607   6.894   9.628  13.157
35256SOL    HW2 7608   6.879   9.480  13.126
35257SOL     OW 7609  11.118   6.513   8.711
35257SOL    HW1 7610  11.188   6.466   8.666
35257SOL    HW2 7611  11.041   6.458   8.702
35258SOL     OW 7612   4.690   5.748   5.873
35258SOL    HW1 7613   4.596   5.767   5.870
35258SOL    HW2 7614   4.732   5.829   5.846
35259SOL     OW 7615  10.825   3.845   4.314
35259SOL    HW1 7616  10.829   3.758   4.274
35259SOL    HW2 7617  10.912   3.858   4.352
35260SOL     OW 7618  10.426  10.711   6.092
35260SOL    HW1 7619  10.487  10.731   6.020
35260SOL    HW2 7620  10.339  10.721   6.054
35261SOL     OW 7621   8.169   6.800   2.884
35261SOL    HW1 7622   8.142   6.886   2.915
35261SOL    HW2 7623   8.146   6.740   2.955
35262SOL     OW 7624   9.556  11.791   7.745
35262SOL    HW1 7625   9.533  11.757   7.831
35262SOL    HW2 7626   9.644  11.756   7.728
35263SOL     OW 7627  14.492   6.146   9.659
35263SOL    HW1 7628  14.503   6.064   9.610
35263SOL    HW2 7629  14.403   6.173   9.638
35264SOL     OW 7630   4.282   4.882   3.096
35264SOL    HW1 7631   4.217   4.900   3.164
35264SOL    HW2 7632   4.364   4.913   3.132
35265SOL     OW 7633  14.569   4.939  14.439
35265SOL    HW1 7634  14.605   4.996  14.372
35265SOL    HW2 7635  14.528   4.867  14.390
35266SOL     OW 7636   6.688  14.574   9.456
35266SOL    HW1 7637   6.694  14.478   9.464
35266SOL    HW2 7638   6.595  14.593   9.471
35267SOL     OW 7639  14.374   6.389  14.828
35267SOL    HW1 7640  14.442   6.454  14.810
35267SOL    HW2 7641  14.302   6.413  14.769
35268SOL     OW 7642   0.071   3.827  11.446
35268SOL    HW1 7643   0.142   3.883  11.479
35268SOL    HW2 7644   0.052   3.768  11.519
35269SOL     OW 7645   0.411  12.030   6.709
35269SOL    HW1 7646   0.319  12.005   6.703
35269SOL    HW2 7647   0.416  12.114   6.663
35270SOL     OW 7648  12.943  14.191  10.895
35270SOL    HW1 7649  12.864  14.202  10.949
35270SOL    HW2 7650  12.984  14.278  10.894
35271SOL     OW 7651   1.388  14.376   1.414
35271SOL    HW1 7652   1.411  14.283   1.415
35271SOL    HW2 7653   1.416  14.408   1.499
35272SOL     OW 7654  10.223   2.734   4.081
35272SOL    HW1 7655  10.287   2.764   4.146
35272SOL    HW2 7656  10.276   2.696   4.011
35273SOL     OW 7657   5.328  13.022  13.958
35273SOL    HW1 7658   5.319  12.932  13.990
35273SOL    HW2 7659   5.392  13.015  13.887
35274SOL     OW 7660  12.563  12.707   5.067
35274SOL    HW1 7661  12.546  12.776   5.003
35274SOL    HW2 7662  12.648  12.671   5.041
35275SOL     OW 7663   0.043   6.821   3.736
35275SOL    HW1 7664   0.131   6.788   3.715
35275SOL    HW2 7665   0.009   6.853   3.653
35276SOL     OW 7666   9.192   8.117   6.662
35276SOL    HW1 7667   9.258   8.096   6.728
35276SOL    HW2 7668   9.217   8.065   6.586
35277SOL     OW 7669   4.459   4.364   5.988
35277SOL    HW1 7670   4.510   4.354   6.068
35277SOL    HW2 7671   4.466   4.279   5.945
35278SOL     OW 7672   1.971   4.384  11.968
35278SOL    HW1 7673   2.033   4.429  12.025
35278SOL    HW2 7674   1.886   4.395  12.011
35279SOL     OW 7675   0.497   4.352  10.386
35279SOL    HW1 7676   0.573   4.309  10.426
35279SOL    HW2 7677   0.508   4.445  10.409
35280SOL     OW 7678   1.158  13.714   3.973
35280SOL    HW1 7679   1.219  13.787   3.959
35280SOL    HW2 7680   1.107  13.709   3.893
35281SOL     OW 7681  13.199   0.629   6.450
35281SOL    HW1 7682  13.119   0.671   6.482
35281SOL    HW2 7683  13.187   0.536   6.470
35282SOL     OW 7684   0.127   7.793  11.181
35282SOL    HW1 7685   0.178   7.713  11.166
35282SOL    HW2 7686   0.192   7.863  11.179
35283SOL     OW 7687   1.212   4.475   3.191
35283SOL    HW1 7688   1.288   4.533   3.200
35283SOL    HW2 7689   1.244   4.389   3.219
35284SOL     OW 7690  11.963   7.784   5.236
35284SOL    HW1 7691  11.934   7.693   5.238
35284SOL    HW2 7692  12.052   7.780   5.202
35285SOL     OW 7693   5.586   2.357   0.401
35285SOL    HW1 7694   5.592   2.452   0.404
35285SOL    HW2 7695   5.516   2.335   0.463
35286SOL     OW 7696   4.336  10.719   0.118
35286SOL    HW1 7697   4.374  10.796   0.077
35286SOL    HW2 7698   4.341  10.736   0.212
35287SOL     OW 7699   6.479   2.746  12.434
35287SOL    HW1 7700   6.513   2.762  12.521
35287SOL    HW2 7701   6.415   2.816  12.419
35288SOL     OW 7702   9.049  13.373  12.341
35288SOL    HW1 7703   8.996  13.293  12.350
35288SOL    HW2 7704   9.122  13.346  12.285
35289SOL     OW 7705  13.019   8.859   8.609
35289SOL    HW1 7706  13.074   8.879   8.685
35289SOL    HW2 7707  12.935   8.833   8.646
35290SOL     OW 7708   3.929   9.219   7.318
35290SOL    HW1 7709   3.876   9.223   7.239
35290SOL    HW2 7710   3.954   9.127   7.326
35291SOL     OW 7711   8.856  12.186   8.097
35291SOL    HW1 7712   8.848  12.145   8.183
35291SOL    HW2 7713   8.807  12.268   8.105
35292SOL     OW 7714  13.224   7.427   0.097
35292SOL    HW1 7715  13.244   7.518   0.072
35292SOL    HW2 7716  13.298   7.376   0.063
35293SOL     OW 7717   3.870  10.106   4.525
35293SOL    HW1 7718   3.808  10.124   4.596
35293SOL    HW2 7719   3.822  10.051   4.464
35294SOL     OW 7720  11.880  11.224   1.628
35294SOL    HW1 7721  11.795  11.239   1.669
35294SOL    HW2 7722  11.876  11.134   1.595
35295SOL     OW 7723   5.894  11.021   7.745
35295SOL    HW1 7724   5.954  11.096   7.751
35295SOL    HW2 7725   5.952  10.946   7.730
35296SOL     OW 7726  11.873   2.440   6.068
35296SOL    HW1 7727  11.953   2.432   6.120
35296SOL    HW2 7728  11.903   2.448   5.978
35297SOL     OW 7729   4.253  13.693  13.289
35297SOL    HW1 7730   4.319  13.645  13.240
35297SOL    HW2 7731   4.237  13.772  13.238
35298SOL     OW 7732   4.985  13.044  10.047
35298SOL    HW1 7733   5.062  13.018   9.996
35298SOL    HW2 7734   4.948  12.962  10.078
35299SOL     OW 7735  13.206   7.950   0.000
35299SOL    HW1 7736  13.238   8.002   0.074
35299SOL    HW2 7737  13.120   7.988  14.853
35300SOL     OW 7738   6.447   8.116  10.245
35300SOL    HW1 7739   6.458   8.071  10.161
35300SOL    HW2 7740   6.471   8.050  10.311
35301SOL     OW 7741  14.434  11.323   7.499
35301SOL    HW1 7742  14.410  11.404   7.543
35301SOL    HW2 7743  14.501  11.348   7.436
35302SOL     OW 7744   9.825  13.069  12.222
35302SOL    HW1 7745   9.891  13.085  12.289
35302SOL    HW2 7746   9.867  13.096  12.140
35303SOL     OW 7747   4.245  10.343   9.578
35303SOL    HW1 7748   4.273  10.270   9.632
35303SOL    HW2 7749   4.321  10.361   9.521
35304SOL     OW 7750   2.997   4.419  14.521
35304SOL    HW1 7751   3.069   4.405  14.461
35304SOL    HW2 7752   2.976   4.512  14.513
35305SOL     OW 7753  13.169  10.975   6.337
35305SOL    HW1 7754  13.073  10.979   6.328
35305SOL    HW2 7755  13.183  10.911   6.407
35306SOL     OW 7756   8.781   6.486   8.750
35306SOL    HW1 7757   8.851   6.551   8.740
35306SOL    HW2 7758   8.819   6.418   8.804
35307SOL     OW 7759   8.514   8.149   9.008
35307SOL    HW1 7760   8.543   8.176   9.095
35307SOL    HW2 7761   8.528   8.055   9.005
35308SOL     OW 7762   6.708  13.177   8.949
35308SOL    HW1 7763   6.734  13.242   9.015
35308SOL    HW2 7764   6.771  13.106   8.960
35309SOL     OW 7765   1.815   8.154  10.296
35309SOL    HW1 7766   1.800   8.059  10.296
35309SOL    HW2 7767   1.794   8.181  10.385
35310SOL     OW 7768   2.420   1.882   4.243
35310SOL    HW1 7769   2.364   1.959   4.237
35310SOL    HW2 7770   2.508   1.914   4.222
35311SOL     OW 7771  13.585  12.918   2.612
35311SOL    HW1 7772  13.588  12.848   2.677
35311SOL    HW2 7773  13.668  12.911   2.564
35312SOL     OW 7774   0.782   3.501   6.526
35312SOL    HW1 7775   0.873   3.528   6.520
35312SOL    HW2 7776   0.785   3.405   6.522
35313SOL     OW 7777   6.537   1.969   1.629
35313SOL    HW1 7778   6.624   1.998   1.657
35313SOL    HW2 7779   6.532   1.877   1.657
35314SOL     OW 7780  11.864  13.199  14.210
35314SOL    HW1 7781  11.929  13.130  14.196
35314SOL    HW2 7782  11.800  13.186  14.140
35315SOL     OW 7783  13.862   2.091   3.231
35315SOL    HW1 7784  13.810   2.146   3.173
35315SOL    HW2 7785  13.798   2.046   3.285
35316SOL     OW 7786   5.573  13.723   9.879
35316SOL    HW1 7787   5.617  13.651   9.835
35316SOL    HW2 7788   5.584  13.704   9.972
35317SOL     OW 7789   2.502   4.488  14.631
35317SOL    HW1 7790   2.567   4.441  14.578
35317SOL    HW2 7791   2.492   4.572  14.587
35318SOL     OW 7792   4.063  14.664  11.713
35318SOL    HW1 7793   3.995  14.695  11.652
35318SOL    HW2 7794   4.138  14.720  11.695
35319SOL     OW 7795  14.051   0.028   2.417
35319SOL    HW1 7796  14.095   0.061   2.339
35319SOL    HW2 7797  14.112  14.836   2.453
35320SOL     OW 7798   9.059   0.587  12.255
35320SOL    HW1 7799   8.998   0.631  12.197
35320SOL    HW2 7800   9.104   0.523  12.200
35321SOL     OW 7801   6.059   6.035   7.796
35321SOL    HW1 7802   6.058   5.989   7.712
35321SOL    HW2 7803   6.147   6.023   7.830
35322SOL     OW 7804   8.494   3.872   5.565
35322SOL    HW1 7805   8.416   3.816   5.564
35322SOL    HW2 7806   8.556   3.824   5.620
35323SOL     OW 7807  11.386   6.396   9.470
35323SOL    HW1 7808  11.375   6.362   9.558
35323SOL    HW2 7809  11.323   6.468   9.464
35324SOL     OW 7810  12.145   5.130   3.567
35324SOL    HW1 7811  12.074   5.175   3.613
35324SOL    HW2 7812  12.155   5.179   3.485
35325SOL     OW 7813   8.172   7.870   2.904
35325SOL    HW1 7814   8.081   7.841   2.906
35325SOL    HW2 7815   8.172   7.943   2.842
35326SOL     OW 7816   5.357   9.293   4.102
35326SOL    HW1 7817   5.292   9.257   4.163
35326SOL    HW2 7818   5.307   9.319   4.026
35327SOL     OW 7819   8.852   9.966   3.205
35327SOL    HW1 7820   8.869   9.937   3.115
35327SOL    HW2 7821   8.817   9.887   3.248
35328SOL     OW 7822   3.051  14.514  13.060
35328SOL    HW1 7823   3.092  14.440  13.105
35328SOL    HW2 7824   3.107  14.529  12.984
35329SOL     OW 7825  12.631   9.642  11.461
35329SOL    HW1 7826  12.605   9.556  11.426
35329SOL    HW2 7827  12.656   9.624  11.551
35330SOL     OW 7828   8.450   8.941   1.015
35330SOL    HW1 7829   8.447   8.846   1.016
35330SOL    HW2 7830   8.397   8.966   0.939
35331SOL     OW 7831   0.175   3.980   3.467
35331SOL    HW1 7832   0.173   4.052   3.530
35331SOL    HW2 7833   0.268   3.962   3.453
35332SOL     OW 7834  11.452   1.590   9.815
35332SOL    HW1 7835  11.387   1.521   9.798
35332SOL    HW2 7836  11.461   1.636   9.731
35333SOL     OW 7837   5.205  10.323   1.913
35333SOL    HW1 7838   5.284  10.303   1.862
35333SOL    HW2 7839   5.150  10.373   1.853
35334SOL     OW 7840  10.356   5.419   6.975
35334SOL    HW1 7841  10.435   5.437   7.025
35334SOL    HW2 7842  10.287   5.466   7.022
35335SOL     OW 7843   5.049   2.645   4.081
35335SOL    HW1 7844   5.133   2.601   4.094
35335SOL    HW2 7845   4.985   2.574   4.079
35336SOL     OW 7846   1.203  14.770   9.816
35336SOL    HW1 7847   1.224  14.863   9.806
35336SOL    HW2 7848   1.127  14.757   9.760
35337SOL     OW 7849   4.685   5.570  13.558
35337SOL    HW1 7850   4.683   5.490  13.506
35337SOL    HW2 7851   4.740   5.548  13.633
35338SOL     OW 7852   6.674   6.001   9.546
35338SOL    HW1 7853   6.603   5.964   9.599
35338SOL    HW2 7854   6.677   5.945   9.469
35339SOL     OW 7855   7.491  13.414   6.779
35339SOL    HW1 7856   7.420  13.381   6.834
35339SOL    HW2 7857   7.451  13.482   6.726
35340SOL     OW 7858  13.472   8.068   9.726
35340SOL    HW1 7859  13.498   8.158   9.745
35340SOL    HW2 7860  13.554   8.022   9.709
35341SOL     OW 7861  12.068  14.644   1.442
35341SOL    HW1 7862  12.056  14.549   1.438
35341SOL    HW2 7863  12.041  14.668   1.530
35342SOL     OW 7864  11.394   2.038   4.674
35342SOL    HW1 7865  11.318   2.081   4.635
35342SOL    HW2 7866  11.469   2.075   4.628
35343SOL     OW 7867   5.620  10.441   7.971
35343SOL    HW1 7868   5.563  10.396   7.908
35343SOL    HW2 7869   5.686  10.376   7.994
35344SOL     OW 7870   6.186  12.049   4.284
35344SOL    HW1 7871   6.106  12.100   4.277
35344SOL    HW2 7872   6.164  11.976   4.342
35345SOL     OW 7873   9.018   2.692   4.084
35345SOL    HW1 7874   9.078   2.626   4.049
35345SOL    HW2 7875   8.937   2.644   4.101
35346SOL     OW 7876  10.753   9.758  14.827
35346SOL    HW1 7877  10.797   9.696   0.013
35346SOL    HW2 7878  10.660   9.734  14.832
35347SOL     OW 7879   8.964   4.093  13.545
35347SOL    HW1 7880   8.900   4.147  13.592
35347SOL    HW2 7881   8.943   4.003  13.570
35348SOL     OW 7882   0.858  10.829  11.061
35348SOL    HW1 7883   0.809  10.884  11.000
35348SOL    HW2 7884   0.794  10.800  11.125
35349SOL     OW 7885  12.200  12.889   7.806
35349SOL    HW1 7886  12.257  12.815   7.786
35349SOL    HW2 7887  12.159  12.911   7.723
35350SOL     OW 7888   8.835   2.371   8.696
35350SOL    HW1 7889   8.865   2.456   8.664
35350SOL    HW2 7890   8.842   2.314   8.619
35351SOL     OW 7891   9.967  14.321   5.061
35351SOL    HW1 7892   9.891  14.278   5.099
35351SOL    HW2 7893  10.037  14.307   5.125
35352SOL     OW 7894  10.959   0.395   6.462
35352SOL    HW1 7895  11.036   0.340   6.476
35352SOL    HW2 7896  10.976   0.440   6.379
35353SOL     OW 7897  11.516   3.853  13.947
35353SOL    HW1 7898  11.527   3.948  13.938
35353SOL    HW2 7899  11.574   3.816  13.881
35354SOL     OW 7900   4.332  13.437   0.988
35354SOL    HW1 7901   4.268  13.365   0.988
35354SOL    HW2 7902   4.413  13.396   1.017
35355SOL     OW 7903   2.938   6.513   4.186
35355SOL    HW1 7904   2.936   6.435   4.242
35355SOL    HW2 7905   2.880   6.492   4.113
35356SOL     OW 7906   9.005   5.611  12.407
35356SOL    HW1 7907   8.963   5.696  12.396
35356SOL    HW2 7908   8.951   5.565  12.471
35357SOL     OW 7909  10.280  10.613   0.547
35357SOL    HW1 7910  10.220  10.540   0.533
35357SOL    HW2 7911  10.285  10.657   0.462
35358SOL     OW 7912   2.592  10.946   0.779
35358SOL    HW1 7913   2.650  10.966   0.705
35358SOL    HW2 7914   2.504  10.946   0.741
35359SOL     OW 7915  12.887   0.753  12.385
35359SOL    HW1 7916  12.852   0.715  12.466
35359SOL    HW2 7917  12.926   0.836  12.413
35360SOL     OW 7918  10.319   8.890  13.963
35360SOL    HW1 7919  10.278   8.879  14.048
35360SOL    HW2 7920  10.408   8.918  13.982
35361SOL     OW 7921   2.757   6.568  11.165
35361SOL    HW1 7922   2.786   6.659  11.172
35361SOL    HW2 7923   2.809   6.522  11.231
35362SOL     OW 7924   4.894  12.363  13.354
35362SOL    HW1 7925   4.820  12.381  13.413
35362SOL    HW2 7926   4.910  12.269  13.364
35363SOL     OW 7927   7.344   6.234   3.694
35363SOL    HW1 7928   7.343   6.161   3.632
35363SOL    HW2 7929   7.299   6.305   3.648
35364SOL     OW 7930   2.896   0.461   4.078
35364SOL    HW1 7931   2.939   0.545   4.089
35364SOL    HW2 7932   2.803   0.482   4.072
35365SOL     OW 7933   6.404  13.216   6.051
35365SOL    HW1 7934   6.404  13.205   5.956
35365SOL    HW2 7935   6.477  13.276   6.068
35366SOL     OW 7936   5.949   6.864  11.351
35366SOL    HW1 7937   5.954   6.873  11.256
35366SOL    HW2 7938   6.040   6.866  11.381
35367SOL     OW 7939   7.058   8.224  11.906
35367SOL    HW1 7940   7.117   8.262  11.972
35367SOL    HW2 7941   7.110   8.222  11.826
35368SOL     OW 7942  13.823  11.628  14.194
35368SOL    HW1 7943  13.758  11.577  14.146
35368SOL    HW2 7944  13.775  11.663  14.270
35369SOL     OW 7945   5.694   3.480   2.638
35369SOL    HW1 7946   5.661   3.562   2.600
35369SOL    HW2 7947   5.636   3.412   2.604
35370SOL     OW 7948   9.377   6.732   5.866
35370SOL    HW1 7949   9.317   6.667   5.902
35370SOL    HW2 7950   9.462   6.707   5.900
35371SOL     OW 7951  10.650   0.874   7.475
35371SOL    HW1 7952  10.636   0.898   7.567
35371SOL    HW2 7953  10.609   0.944   7.425
35372SOL     OW 7954  12.319  11.211   8.127
35372SOL    HW1 7955  12.295  11.199   8.035
35372SOL    HW2 7956  12.413  11.230   8.124
35373SOL     OW 7957   7.059   2.063  12.653
35373SOL    HW1 7958   7.063   1.968  12.640
35373SOL    HW2 7959   7.055   2.075  12.748
35374SOL     OW 7960  13.957   9.403  13.946
35374SOL    HW1 7961  14.034   9.459  13.943
35374SOL    HW2 7962  13.991   9.315  13.963
35375SOL     OW 7963   4.626   9.909  13.393
35375SOL    HW1 7964   4.604   9.819  13.417
35375SOL    HW2 7965   4.555   9.935  13.334
35376SOL     OW 7966   9.997   2.284  12.983
35376SOL    HW1 7967   9.969   2.193  12.992
35376SOL    HW2 7968  10.054   2.284  12.906
35377SOL     OW 7969   5.677   1.167   6.339
35377SOL    HW1 7970   5.694   1.140   6.429
35377SOL    HW2 7971   5.681   1.262   6.341
35378SOL     OW 7972   8.411   6.342   0.851
35378SOL    HW1 7973   8.497   6.381   0.870
35378SOL    HW2 7974   8.375   6.320   0.937
35379SOL     OW 7975   5.449  10.764   2.564
35379SOL    HW1 7976   5.518  10.719   2.515
35379SOL    HW2 7977   5.381  10.697   2.576
35380SOL     OW 7978   8.639   3.747   5.778
35380SOL    HW1 7979   8.616   3.655   5.791
35380SOL    HW2 7980   8.692   3.770   5.854
35381SOL     OW 7981  10.355  12.437   2.500
35381SOL    HW1 7982  10.367  12.347   2.529
35381SOL    HW2 7983  10.266  12.460   2.527
35382SOL     OW 7984   1.997   4.372   4.567
35382SOL    HW1 7985   2.030   4.423   4.641
35382SOL    HW2 7986   1.912   4.411   4.548
35383SOL     OW 7987   5.217  12.624   1.996
35383SOL    HW1 7988   5.286  12.566   1.961
35383SOL    HW2 7989   5.244  12.711   1.967
35384SOL     OW 7990   9.400   5.478   0.626
35384SOL    HW1 7991   9.474   5.485   0.687
35384SOL    HW2 7992   9.382   5.384   0.620
35385SOL     OW 7993   0.863   4.367  14.452
35385SOL    HW1 7994   0.916   4.429  14.402
35385SOL    HW2 7995   0.865   4.401  14.542
35386SOL     OW 7996   9.158   3.020  14.074
35386SOL    HW1 7997   9.160   3.028  14.170
35386SOL    HW2 7998   9.158   2.925  14.058
35387SOL     OW 7999   8.731   1.966   4.355
35387SOL    HW1 8000   8.739   1.871   4.360
35387SOL    HW2 8001   8.646   1.981   4.314
35388SOL     OW 8002  13.185  13.179  14.292
35388SOL    HW1 8003  13.119  13.164  14.224
35388SOL    HW2 8004  13.261  13.128  14.262
35389SOL     OW 8005   1.062   6.512  12.788
35389SOL    HW1 8006   1.064   6.476  12.877
35389SOL    HW2 8007   1.058   6.607  12.802
35390SOL     OW 8008  11.186   6.214  13.908
35390SOL    HW1 8009  11.097   6.211  13.873
35390SOL    HW2 8010  11.234   6.148  13.859
35391SOL     OW 8011   4.443  12.072  11.522
35391SOL    HW1 8012   4.352  12.087  11.496
35391SOL    HW2 8013   4.461  12.139  11.587
35392SOL     OW 8014   6.340   8.659  10.008
35392SOL    HW1 8015   6.397   8.596  10.052
35392SOL    HW2 8016   6.336   8.734  10.068
35393SOL     OW 8017   7.063   5.286   6.857
35393SOL    HW1 8018   7.147   5.281   6.902
35393SOL    HW2 8019   7.058   5.206   6.805
35394SOL     OW 8020  12.431   5.785  13.671
35394SOL    HW1 8021  12.486   5.710  13.649
35394SOL    HW2 8022  12.487   5.861  13.657
35395SOL     OW 8023  14.161  11.724   4.052
35395SOL    HW1 8024  14.251  11.755   4.052
35395SOL    HW2 8025  14.130  11.742   4.141
35396SOL     OW 8026   8.086  13.840   7.129
35396SOL    HW1 8027   8.066  13.879   7.214
35396SOL    HW2 8028   8.048  13.752   7.134
35397SOL     OW 8029   3.963   4.330   5.350
35397SOL    HW1 8030   4.044   4.355   5.393
35397SOL    HW2 8031   3.944   4.243   5.383
35398SOL     OW 8032   0.395   6.638  10.952
35398SOL    HW1 8033   0.407   6.724  10.912
35398SOL    HW2 8034   0.463   6.633  11.019
35399SOL     OW 8035  10.967   3.594  12.978
35399SOL    HW1 8036  10.917   3.671  12.951
35399SOL    HW2 8037  10.939   3.524  12.919
35400SOL     OW 8038  12.256   6.965  12.488
35400SOL    HW1 8039  12.229   6.981  12.579
35400SOL    HW2 8040  12.242   6.871  12.475
35401SOL     OW 8041  11.512   3.980   5.267
35401SOL    HW1 8042  11.510   3.900   5.321
35401SOL    HW2 8043  11.425   4.017   5.276
35402SOL     OW 8044  11.059  12.670  10.992
35402SOL    HW1 8045  11.067  12.691  10.898
35402SOL    HW2 8046  11.032  12.579  10.994
35403SOL     OW 8047  14.338   7.138   0.798
35403SOL    HW1 8048  14.263   7.080   0.785
35403SOL    HW2 8049  14.309   7.199   0.866
35404SOL     OW 8050   1.740  13.181   4.898
35404SOL    HW1 8051   1.821  13.216   4.936
35404SOL    HW2 8052   1.700  13.131   4.969
35405SOL     OW 8053  12.923   6.516   9.272
35405SOL    HW1 8054  12.848   6.495   9.216
35405SOL    HW2 8055  12.966   6.589   9.228
35406SOL     OW 8056  10.647  10.756  11.299
35406SOL    HW1 8057  10.618  10.672  11.263
35406SOL    HW2 8058  10.735  10.739  11.331
35407SOL     OW 8059  13.942   6.473   7.751
35407SOL    HW1 8060  14.028   6.486   7.712
35407SOL    HW2 8061  13.916   6.560   7.782
35408SOL     OW 8062   5.114   3.877  11.819
35408SOL    HW1 8063   5.099   3.842  11.906
35408SOL    HW2 8064   5.195   3.835  11.789
35409SOL     OW 8065   8.944  13.215  14.651
35409SOL    HW1 8066   8.927  13.121  14.649
35409SOL    HW2 8067   8.891  13.252  14.581
35410SOL     OW 8068   1.939  11.507  12.598
35410SOL    HW1 8069   1.955  11.490  12.505
35410SOL    HW2 8070   2.025  11.528  12.634
35411SOL     OW 8071   4.708   7.046   8.967
35411SOL    HW1 8072   4.718   7.077   9.057
35411SOL    HW2 8073   4.614   7.053   8.950
35412SOL     OW 8074   5.005  14.289  10.159
35412SOL    HW1 8075   5.048  14.205  10.144
35412SOL    HW2 8076   4.960  14.278  10.243
35413SOL     OW 8077   5.260  11.598   2.293
35413SOL    HW1 8078   5.225  11.538   2.227
35413SOL    HW2 8079   5.184  11.620   2.347
35414SOL     OW 8080  12.307  10.482  13.599
35414SOL    HW1 8081  12.288  10.536  13.675
35414SOL    HW2 8082  12.280  10.394  13.625
35415SOL     OW 8083   7.538   2.376   1.578
35415SOL    HW1 8084   7.517   2.356   1.487
35415SOL    HW2 8085   7.630   2.402   1.577
35416SOL     OW 8086   2.282   7.822   3.855
35416SOL    HW1 8087   2.309   7.814   3.947
35416SOL    HW2 8088   2.360   7.857   3.811
35417SOL     OW 8089  14.692   9.388   3.354
35417SOL    HW1 8090  14.651   9.383   3.267
35417SOL    HW2 8091  14.773   9.337   3.345
35418SOL     OW 8092   3.470   1.191   9.469
35418SOL    HW1 8093   3.531   1.256   9.504
35418SOL    HW2 8094   3.396   1.193   9.529
35419SOL     OW 8095   8.652   8.527  10.602
35419SOL    HW1 8096   8.627   8.511  10.693
35419SOL    HW2 8097   8.587   8.479  10.550
35420SOL     OW 8098   1.013   9.780  14.840
35420SOL    HW1 8099   0.947   9.787  14.770
35420SOL    HW2 8100   1.032   9.871  14.864
35421SOL     OW 8101   1.336   9.879   6.295
35421SOL    HW1 8102   1.297   9.806   6.343
35421SOL    HW2 8103   1.429   9.856   6.290
35422SOL     OW 8104  12.854   7.660   9.049
35422SOL    HW1 8105  12.843   7.746   9.008
35422SOL    HW2 8106  12.929   7.671   9.108
35423SOL     OW 8107   9.781   8.606  10.223
35423SOL    HW1 8108   9.814   8.641  10.141
35423SOL    HW2 8109   9.762   8.514  10.205
35424SOL     OW 8110  13.026   1.884   6.115
35424SOL    HW1 8111  13.074   1.847   6.190
35424SOL    HW2 8112  12.995   1.807   6.067
35425SOL     OW 8113  10.488   2.117  14.341
35425SOL    HW1 8114  10.529   2.072  14.267
35425SOL    HW2 8115  10.531   2.203  14.344
35426SOL     OW 8116  14.032   6.706   8.721
35426SOL    HW1 8117  14.094   6.679   8.654
35426SOL    HW2 8118  14.087   6.740   8.792
35427SOL     OW 8119  12.363  13.119   7.529
35427SOL    HW1 8120  12.413  13.058   7.474
35427SOL    HW2 8121  12.289  13.067   7.562
35428SOL     OW 8122   7.335  10.574  10.375
35428SOL    HW1 8123   7.283  10.531  10.443
35428SOL    HW2 8124   7.425  10.547  10.394
35429SOL     OW 8125  13.250   4.121   6.220
35429SOL    HW1 8126  13.251   4.092   6.311
35429SOL    HW2 8127  13.331   4.172   6.210
35430SOL     OW 8128   1.457  11.351   1.881
35430SOL    HW1 8129   1.475  11.273   1.827
35430SOL    HW2 8130   1.388  11.324   1.941
35431SOL     OW 8131  11.945   4.338   1.001
35431SOL    HW1 8132  12.024   4.383   1.031
35431SOL    HW2 8133  11.879   4.406   0.995
35432SOL     OW 8134   2.932   6.122   8.122
35432SOL    HW1 8135   2.956   6.043   8.074
35432SOL    HW2 8136   2.893   6.179   8.056
35433SOL     OW 8137   4.733   2.669  14.847
35433SOL    HW1 8138   4.755   2.728   0.045
35433SOL    HW2 8139   4.637   2.663  14.849
35434SOL     OW 8140  11.079  10.005   7.713
35434SOL    HW1 8141  11.068  10.010   7.618
35434SOL    HW2 8142  11.122   9.921   7.728
35435SOL     OW 8143  12.498   1.026   3.485
35435SOL    HW1 8144  12.582   1.070   3.478
35435SOL    HW2 8145  12.466   1.020   3.395
35436SOL     OW 8146   1.877  14.064   1.048
35436SOL    HW1 8147   1.914  14.141   1.090
35436SOL    HW2 8148   1.845  14.010   1.120
35437SOL     OW 8149  12.767   8.917   1.162
35437SOL    HW1 8150  12.814   8.848   1.114
35437SOL    HW2 8151  12.769   8.889   1.253
35438SOL     OW 8152   3.655   4.115   7.390
35438SOL    HW1 8153   3.693   4.043   7.442
35438SOL    HW2 8154   3.731   4.168   7.366
35439SOL     OW 8155   6.925  13.382   0.447
35439SOL    HW1 8156   6.963  13.462   0.410
35439SOL    HW2 8157   6.833  13.404   0.460
35440SOL     OW 8158  14.696   4.739   2.968
35440SOL    HW1 8159  14.607   4.760   2.996
35440SOL    HW2 8160  14.710   4.650   3.002
35441SOL     OW 8161  14.120   1.307   6.341
35441SOL    HW1 8162  14.138   1.221   6.303
35441SOL    HW2 8163  14.138   1.296   6.435
35442SOL     OW 8164   4.376   7.278  11.434
35442SOL    HW1 8165   4.347   7.338  11.503
35442SOL    HW2 8166   4.399   7.197  11.479
35443SOL     OW 8167   2.377   7.147   1.576
35443SOL    HW1 8168   2.418   7.088   1.512
35443SOL    HW2 8169   2.425   7.131   1.657
35444SOL     OW 8170   5.150  10.995   4.107
35444SOL    HW1 8171   5.070  11.030   4.066
35444SOL    HW2 8172   5.181  11.067   4.162
35445SOL     OW 8173   5.647  14.307  11.040
35445SOL    HW1 8174   5.610  14.384  11.084
35445SOL    HW2 8175   5.635  14.235  11.103
35446SOL     OW 8176   5.479  10.197  11.532
35446SOL    HW1 8177   5.395  10.153  11.535
35446SOL    HW2 8178   5.509  10.198  11.623
35447SOL     OW 8179   3.622  13.308  14.217
35447SOL    HW1 8180   3.712  13.280  14.199
35447SOL    HW2 8181   3.575  13.226  14.232
35448SOL     OW 8182  10.538   5.972   4.067
35448SOL    HW1 8183  10.444   5.968   4.052
35448SOL    HW2 8184  10.556   5.897   4.124
35449SOL     OW 8185   7.532   9.092   0.515
35449SOL    HW1 8186   7.461   9.027   0.520
35449SOL    HW2 8187   7.493   9.173   0.547
35450SOL     OW 8188   6.960   1.333   9.867
35450SOL    HW1 8189   7.014   1.402   9.905
35450SOL    HW2 8190   7.022   1.268   9.835
35451SOL     OW 8191  12.152  13.083   8.583
35451SOL    HW1 8192  12.063  13.068   8.617
35451SOL    HW2 8193  12.138  13.111   8.493
35452SOL     OW 8194   5.464  14.179   8.797
35452SOL    HW1 8195   5.433  14.244   8.860
35452SOL    HW2 8196   5.479  14.228   8.716
35453SOL     OW 8197   8.422   5.063   6.371
35453SOL    HW1 8198   8.446   5.154   6.390
35453SOL    HW2 8199   8.488   5.011   6.417
35454SOL     OW 8200  10.493  14.241  13.858
35454SOL    HW1 8201  10.504  14.283  13.944
35454SOL    HW2 8202  10.581  14.235  13.823
35455SOL     OW 8203   7.771   8.684   5.689
35455SOL    HW1 8204   7.787   8.637   5.771
35455SOL    HW2 8205   7.793   8.620   5.621
35456SOL     OW 8206  12.018   1.814   5.301
35456SOL    HW1 8207  12.057   1.785   5.383
35456SOL    HW2 8208  11.947   1.752   5.285
35457SOL     OW 8209   4.612  12.016   2.473
35457SOL    HW1 8210   4.679  11.986   2.411
35457SOL    HW2 8211   4.530  12.008   2.424
35458SOL     OW 8212   3.259   8.158   3.452
35458SOL    HW1 8213   3.350   8.187   3.453
35458SOL    HW2 8214   3.225   8.181   3.539
35459SOL     OW 8215   9.693   2.700   7.711
35459SOL    HW1 8216   9.753   2.637   7.671
35459SOL    HW2 8217   9.683   2.769   7.645
35460SOL     OW 8218  12.681   0.737   3.530
35460SOL    HW1 8219  12.615   0.779   3.585
35460SOL    HW2 8220  12.639   0.657   3.499
35461SOL     OW 8221  13.558   6.045   7.265
35461SOL    HW1 8222  13.488   6.023   7.327
35461SOL    HW2 8223  13.573   6.138   7.279
35462SOL     OW 8224  14.049   5.853   2.353
35462SOL    HW1 8225  14.115   5.783   2.352
35462SOL    HW2 8226  14.056   5.891   2.441
35463SOL     OW 8227   8.558   5.312  11.809
35463SOL    HW1 8228   8.512   5.250  11.865
35463SOL    HW2 8229   8.552   5.274  11.721
35464SOL     OW 8230  14.745   5.265  12.381
35464SOL    HW1 8231  14.738   5.211  12.459
35464SOL    HW2 8232  14.835   5.296  12.381
35465SOL     OW 8233   3.958  14.508  10.609
35465SOL    HW1 8234   3.946  14.505  10.703
35465SOL    HW2 8235   4.030  14.447  10.592
35466SOL     OW 8236  14.065  11.766   5.735
35466SOL    HW1 8237  14.041  11.828   5.667
35466SOL    HW2 8238  13.995  11.772   5.800
35467SOL     OW 8239   9.533   3.288   4.839
35467SOL    HW1 8240   9.455   3.304   4.892
35467SOL    HW2 8241   9.507   3.310   4.749
35468SOL     OW 8242   8.986   5.890   2.485
35468SOL    HW1 8243   9.065   5.841   2.508
35468SOL    HW2 8244   9.014   5.981   2.483
35469SOL     OW 8245   4.320   1.857   5.398
35469SOL    HW1 8246   4.334   1.831   5.307
35469SOL    HW2 8247   4.243   1.913   5.395
35470SOL     OW 8248   9.268   5.676  13.166
35470SOL    HW1 8249   9.242   5.692  13.076
35470SOL    HW2 8250   9.271   5.763  13.206
35471SOL     OW 8251   1.343   5.743  12.752
35471SOL    HW1 8252   1.262   5.744  12.803
35471SOL    HW2 8253   1.411   5.720  12.815
35472SOL     OW 8254   6.778   6.855   3.165
35472SOL    HW1 8255   6.709   6.798   3.132
35472SOL    HW2 8256   6.759   6.865   3.258
35473SOL     OW 8257   0.937  11.472   4.240
35473SOL    HW1 8258   1.003  11.532   4.206
35473SOL    HW2 8259   0.854  11.506   4.206
35474SOL     OW 8260  14.331   5.293  13.467
35474SOL    HW1 8261  14.325   5.271  13.374
35474SOL    HW2 8262  14.301   5.213  13.511
35475SOL     OW 8263   5.904   7.124   0.676
35475SOL    HW1 8264   5.951   7.111   0.594
35475SOL    HW2 8265   5.812   7.134   0.650
35476SOL     OW 8266  11.226  14.715  12.010
35476SOL    HW1 8267  11.292  14.735  12.076
35476SOL    HW2 8268  11.146  14.756  12.042
35477SOL     OW 8269   6.487   3.445   2.034
35477SOL    HW1 8270   6.437   3.373   1.996
35477SOL    HW2 8271   6.578   3.416   2.032
35478SOL     OW 8272   0.812   4.465   6.637
35478SOL    HW1 8273   0.804   4.512   6.720
35478SOL    HW2 8274   0.897   4.421   6.642
35479SOL     OW 8275   8.985   6.883   8.209
35479SOL    HW1 8276   8.918   6.872   8.277
35479SOL    HW2 8277   9.060   6.919   8.255
35480SOL     OW 8278  12.855   2.610   4.413
35480SOL    HW1 8279  12.946   2.580   4.409
35480SOL    HW2 8280  12.805   2.540   4.371
35481SOL     OW 8281   2.486   1.967  10.899
35481SOL    HW1 8282   2.444   1.955  10.983
35481SOL    HW2 8283   2.564   2.020  10.918
35482SOL     OW 8284   2.721  13.030   3.280
35482SOL    HW1 8285   2.663  13.103   3.260
35482SOL    HW2 8286   2.727  12.981   3.198
35483SOL     OW 8287   7.827  12.786   2.175
35483SOL    HW1 8288   7.831  12.830   2.260
35483SOL    HW2 8289   7.918  12.779   2.147
35484SOL     OW 8290   6.947   1.868   8.334
35484SOL    HW1 8291   7.029   1.894   8.292
35484SOL    HW2 8292   6.920   1.945   8.382
35485SOL     OW 8293   2.216  13.921   1.231
35485SOL    HW1 8294   2.288  13.871   1.269
35485SOL    HW2 8295   2.199  13.990   1.295
35486SOL     OW 8296   9.884  12.922   8.846
35486SOL    HW1 8297   9.877  12.897   8.754
35486SOL    HW2 8298   9.978  12.931   8.862
35487SOL     OW 8299  12.920   0.840   4.978
35487SOL    HW1 8300  12.889   0.815   5.064
35487SOL    HW2 8301  12.888   0.929   4.966
35488SOL     OW 8302  10.797   7.068  11.317
35488SOL    HW1 8303  10.732   7.098  11.253
35488SOL    HW2 8304  10.881   7.093  11.278
35489SOL     OW 8305   9.485  11.740   8.004
35489SOL    HW1 8306   9.540  11.734   8.082
35489SOL    HW2 8307   9.395  11.739   8.038
35490SOL     OW 8308   2.923  13.603   7.233
35490SOL    HW1 8309   2.923  13.647   7.148
35490SOL    HW2 8310   2.845  13.635   7.278
35491SOL     OW 8311  12.531   5.467  12.666
35491SOL    HW1 8312  12.553   5.531  12.598
35491SOL    HW2 8313  12.612   5.418  12.679
35492SOL     OW 8314  11.998   6.236  12.683
35492SOL    HW1 8315  11.980   6.170  12.616
35492SOL    HW2 8316  11.916   6.241  12.733
35493SOL     OW 8317   5.851   7.643  11.554
35493SOL    HW1 8318   5.775   7.619  11.501
35493SOL    HW2 8319   5.813   7.685  11.632
35494SOL     OW 8320   8.974  11.799   6.737
35494SOL    HW1 8321   9.055  11.792   6.787
35494SOL    HW2 8322   8.910  11.750   6.789
35495SOL     OW 8323   4.233   9.778   4.335
35495SOL    HW1 8324   4.213   9.859   4.382
35495SOL    HW2 8325   4.147   9.738   4.318
35496SOL     OW 8326   3.627   1.043   9.302
35496SOL    HW1 8327   3.585   1.073   9.382
35496SOL    HW2 8328   3.570   0.974   9.269
35497SOL     OW 8329   4.359   0.694  10.703
35497SOL    HW1 8330   4.373   0.774  10.651
35497SOL    HW2 8331   4.267   0.673  10.688
35498SOL     OW 8332  13.184  14.616   8.043
35498SOL    HW1 8333  13.255  14.567   8.003
35498SOL    HW2 8334  13.188  14.702   8.003
35499SOL     OW 8335  10.158   5.908   7.055
35499SOL    HW1 8336  10.071   5.930   7.021
35499SOL    HW2 8337  10.217   5.968   7.010
35500SOL     OW 8338   8.123  14.524   6.539
35500SOL    HW1 8339   8.104  14.605   6.586
35500SOL    HW2 8340   8.165  14.468   6.605
35501SOL     OW 8341   5.235   8.040  14.486
35501SOL    HW1 8342   5.322   8.078  14.494
35501SOL    HW2 8343   5.221   7.992  14.568
35502SOL     OW 8344  10.145   3.601  11.812
35502SOL    HW1 8345  10.171   3.539  11.879
35502SOL    HW2 8346  10.227   3.644  11.786
35503SOL     OW 8347   1.766  10.522  12.764
35503SOL    HW1 8348   1.778  10.533  12.670
35503SOL    HW2 8349   1.821  10.590  12.804
35504SOL     OW 8350   0.048   6.989  13.502
35504SOL    HW1 8351  14.865   6.985  13.425
35504SOL    HW2 8352   0.038   6.904  13.545
35505SOL     OW 8353  10.043  12.765   1.679
35505SOL    HW1 8354  10.035  12.807   1.765
35505SOL    HW2 8355  10.007  12.677   1.692
35506SOL     OW 8356   2.481   4.519   5.613
35506SOL    HW1 8357   2.410   4.581   5.595
35506SOL    HW2 8358   2.444   4.455   5.673
35507SOL     OW 8359   9.109   3.121   1.143
35507SOL    HW1 8360   9.131   3.210   1.114
35507SOL    HW2 8361   9.086   3.075   1.062
35508SOL     OW 8362  14.256   6.940  14.247
35508SOL    HW1 8363  14.306   6.894  14.180
35508SOL    HW2 8364  14.165   6.935  14.218
35509SOL     OW 8365   0.992   9.499   2.937
35509SOL    HW1 8366   0.934   9.531   3.006
35509SOL    HW2 8367   0.978   9.404   2.936
35510SOL     OW 8368  10.366   5.747   1.780
35510SOL    HW1 8369  10.418   5.697   1.842
35510SOL    HW2 8370  10.430   5.798   1.731
35511SOL     OW 8371   0.028   9.855   6.962
35511SOL    HW1 8372   0.042   9.938   7.008
35511SOL    HW2 8373  14.863   9.797   7.028
35512SOL     OW 8374   6.871  12.318   2.041
35512SOL    HW1 8375   6.952  12.269   2.055
35512SOL    HW2 8376   6.802  12.252   2.042
35513SOL     OW 8377   2.748  14.254  11.680
35513SOL    HW1 8378   2.795  14.334  11.701
35513SOL    HW2 8379   2.814  14.185  11.687
35514SOL     OW 8380  14.610  13.822   7.045
35514SOL    HW1 8381  14.586  13.734   7.073
35514SOL    HW2 8382  14.540  13.878   7.078
35515SOL     OW 8383   2.511  14.824  10.319
35515SOL    HW1 8384   2.508   0.046  10.327
35515SOL    HW2 8385   2.471  14.807  10.234
35516SOL     OW 8386   3.975   8.259   5.950
35516SOL    HW1 8387   4.048   8.271   6.009
35516SOL    HW2 8388   4.013   8.266   5.862
35517SOL     OW 8389   9.514   0.097  13.550
35517SOL    HW1 8390   9.518   0.019  13.495
35517SOL    HW2 8391   9.518   0.170  13.488
35518SOL     OW 8392   3.547  13.482   7.225
35518SOL    HW1 8393   3.639  13.469   7.251
35518SOL    HW2 8394   3.500  13.488   7.308
35519SOL     OW 8395   5.594   8.619   5.715
35519SOL    HW1 8396   5.545   8.634   5.795
35519SOL    HW2 8397   5.539   8.560   5.664
35520SOL     OW 8398   5.873   1.099   8.487
35520SOL    HW1 8399   5.858   1.024   8.545
35520SOL    HW2 8400   5.964   1.089   8.459
35521SOL     OW 8401   8.522  11.375  13.642
35521SOL    HW1 8402   8.489  11.340  13.725
35521SOL    HW2 8403   8.458  11.346  13.577
35522SOL     OW 8404   1.475   1.065   3.914
35522SOL    HW1 8405   1.523   1.078   3.996
35522SOL    HW2 8406   1.390   1.106   3.929
35523SOL     OW 8407   6.375   1.285  11.168
35523SOL    HW1 8408   6.465   1.316  11.169
35523SOL    HW2 8409   6.323   1.363  11.190
35524SOL     OW 8410   8.717  11.961   5.799
35524SOL    HW1 8411   8.803  11.919   5.809
35524SOL    HW2 8412   8.738  12.052   5.776
35525SOL     OW 8413   5.353  12.262   8.271
35525SOL    HW1 8414   5.408  12.280   8.347
35525SOL    HW2 8415   5.411  12.276   8.196
35526SOL     OW 8416  14.482   2.184   4.813
35526SOL    HW1 8417  14.407   2.168   4.870
35526SOL    HW2 8418  14.506   2.097   4.781
35527SOL     OW 8419   8.739   6.086   9.872
35527SOL    HW1 8420   8.784   6.160   9.831
35527SOL    HW2 8421   8.665   6.125   9.917
35528SOL     OW 8422   3.714   0.605   1.819
35528SOL    HW1 8423   3.652   0.533   1.808
35528SOL    HW2 8424   3.669   0.667   1.876
35529SOL     OW 8425   3.179   6.701   4.534
35529SOL    HW1 8426   3.268   6.719   4.503
35529SOL    HW2 8427   3.173   6.747   4.618
35530SOL     OW 8428   8.739   3.417   9.466
35530SOL    HW1 8429   8.787   3.480   9.412
35530SOL    HW2 8430   8.755   3.332   9.424
35531SOL     OW 8431   2.041   2.985   6.738
35531SOL    HW1 8432   1.965   2.929   6.725
35531SOL    HW2 8433   2.033   3.016   6.829
35532SOL     OW 8434  14.480   9.319   0.273
35532SOL    HW1 8435  14.486   9.411   0.300
35532SOL    HW2 8436  14.472   9.271   0.356
35533SOL     OW 8437   9.410  12.460   8.804
35533SOL    HW1 8438   9.341  12.511   8.845
35533SOL    HW2 8439   9.489  12.514   8.813
35534SOL     OW 8440  13.763   2.701  10.643
35534SOL    HW1 8441  13.670   2.682  10.651
35534SOL    HW2 8442  13.792   2.648  10.569
35535SOL     OW 8443  11.821   0.066  10.480
35535SOL    HW1 8444  11.886   0.010  10.437
35535SOL    HW2 8445  11.801   0.133  10.415
35536SOL     OW 8446  11.418   3.230   9.783
35536SOL    HW1 8447  11.508   3.204   9.764
35536SOL    HW2 8448  11.365   3.158   9.749
35537SOL     OW 8449   4.590   6.621   5.444
35537SOL    HW1 8450   4.634   6.584   5.520
35537SOL    HW2 8451   4.503   6.582   5.444
35538SOL     OW 8452  14.057   7.078   7.355
35538SOL    HW1 8453  14.083   6.987   7.366
35538SOL    HW2 8454  14.095   7.104   7.271
35539SOL     OW 8455   5.079   9.828   4.111
35539SOL    HW1 8456   4.986   9.810   4.123
35539SOL    HW2 8457   5.115   9.829   4.200
35540SOL     OW 8458   3.517  13.420   6.974
35540SOL    HW1 8459   3.564  13.337   6.972
35540SOL    HW2 8460   3.528  13.451   7.064
35541SOL     OW 8461   0.859   8.997   9.694
35541SOL    HW1 8462   0.822   8.909   9.692
35541SOL    HW2 8463   0.848   9.030   9.604
35542SOL     OW 8464   7.188   3.596   3.615
35542SOL    HW1 8465   7.249   3.538   3.659
35542SOL    HW2 8466   7.178   3.559   3.527
35543SOL     OW 8467   3.645   5.631  12.085
35543SOL    HW1 8468   3.633   5.726  12.087
35543SOL    HW2 8469   3.713   5.617  12.018
35544SOL     OW 8470   5.846   1.888   9.694
35544SOL    HW1 8471   5.883   1.947   9.759
35544SOL    HW2 8472   5.763   1.927   9.669
35545SOL     OW 8473   9.561  11.106   2.959
35545SOL    HW1 8474   9.647  11.115   3.000
35545SOL    HW2 8475   9.568  11.028   2.905
35546SOL     OW 8476   8.196   9.569   0.287
35546SOL    HW1 8477   8.106   9.547   0.262
35546SOL    HW2 8478   8.205   9.535   0.376
35547SOL     OW 8479   5.509   7.612   0.403
35547SOL    HW1 8480   5.451   7.669   0.354
35547SOL    HW2 8481   5.496   7.637   0.495
35548SOL     OW 8482   5.816   1.710  10.535
35548SOL    HW1 8483   5.893   1.655  10.520
35548SOL    HW2 8484   5.751   1.649  10.570
35549SOL     OW 8485   5.708   6.684  10.230
35549SOL    HW1 8486   5.693   6.639  10.148
35549SOL    HW2 8487   5.752   6.620  10.286
35550SOL     OW 8488  11.471  14.578   6.616
35550SOL    HW1 8489  11.512  14.629   6.686
35550SOL    HW2 8490  11.394  14.539   6.658
35551SOL     OW 8491   7.748   2.515   4.211
35551SOL    HW1 8492   7.785   2.494   4.297
35551SOL    HW2 8493   7.681   2.581   4.229
35552SOL     OW 8494  13.491   3.165   0.735
35552SOL    HW1 8495  13.463   3.104   0.667
35552SOL    HW2 8496  13.564   3.121   0.779
35553SOL     OW 8497  14.297  10.696   0.189
35553SOL    HW1 8498  14.217  10.702   0.136
35553SOL    HW2 8499  14.295  10.608   0.226
35554SOL     OW 8500   1.321   0.967   6.343
35554SOL    HW1 8501   1.311   1.023   6.266
35554SOL    HW2 8502   1.231   0.947   6.370
35555SOL     OW 8503   4.323   2.651   0.125
35555SOL    HW1 8504   4.369   2.606   0.197
35555SOL    HW2 8505   4.393   2.689   0.072
35556SOL     OW 8506   4.383   1.100   1.891
35556SOL    HW1 8507   4.427   1.020   1.920
35556SOL    HW2 8508   4.449   1.169   1.899
35557SOL     OW 8509   2.885   9.123  14.760
35557SOL    HW1 8510   2.797   9.122  14.798
35557SOL    HW2 8511   2.941   9.156  14.831
35558SOL     OW 8512   4.915  11.444   7.029
35558SOL    HW1 8513   4.990  11.444   7.089
35558SOL    HW2 8514   4.954  11.454   6.942
35559SOL     OW 8515   6.393   8.109   3.694
35559SOL    HW1 8516   6.472   8.163   3.703
35559SOL    HW2 8517   6.336   8.159   3.637
35560SOL     OW 8518  10.696  14.692   8.362
35560SOL    HW1 8519  10.602  14.704   8.374
35560SOL    HW2 8520  10.722  14.633   8.433
35561SOL     OW 8521  12.625  13.412  11.745
35561SOL    HW1 8522  12.712  13.451  11.747
35561SOL    HW2 8523  12.573  13.465  11.805
35562SOL     OW 8524   0.186   9.302  12.614
35562SOL    HW1 8525   0.244   9.257  12.676
35562SOL    HW2 8526   0.110   9.245  12.608
35563SOL     OW 8527   2.698   2.899   6.682
35563SOL    HW1 8528   2.644   2.834   6.637
35563SOL    HW2 8529   2.639   2.940   6.745
35564SOL     OW 8530   6.176   9.719   8.418
35564SOL    HW1 8531   6.083   9.705   8.399
35564SOL    HW2 8532   6.218   9.721   8.332
35565SOL     OW 8533   8.297   4.180   5.482
35565SOL    HW1 8534   8.310   4.165   5.576
35565SOL    HW2 8535   8.384   4.198   5.448
35566SOL     OW 8536   2.172  11.207  12.182
35566SOL    HW1 8537   2.260  11.244  12.181
35566SOL    HW2 8538   2.184  11.114  12.162
35567SOL     OW 8539  12.652   7.500  14.673
35567SOL    HW1 8540  12.679   7.592  14.680
35567SOL    HW2 8541  12.598   7.498  14.594
35568SOL     OW 8542   1.826  14.479   1.313
35568SOL    HW1 8543   1.802  14.489   1.406
35568SOL    HW2 8544   1.749  14.510   1.266
35569SOL     OW 8545   8.170   8.976  12.781
35569SOL    HW1 8546   8.162   9.066  12.749
35569SOL    HW2 8547   8.099   8.966  12.844
35570SOL     OW 8548   3.303   4.889   9.579
35570SOL    HW1 8549   3.327   4.936   9.659
35570SOL    HW2 8550   3.386   4.857   9.544
35571SOL     OW 8551   3.435  10.972   3.107
35571SOL    HW1 8552   3.520  10.931   3.117
35571SOL    HW2 8553   3.410  10.998   3.196
35572SOL     OW 8554   4.144   1.859   8.401
35572SOL    HW1 8555   4.209   1.869   8.331
35572SOL    HW2 8556   4.194   1.867   8.482
35573SOL     OW 8557  10.701   4.991   6.546
35573SOL    HW1 8558  10.621   4.959   6.588
35573SOL    HW2 8559  10.765   4.922   6.562
35574SOL     OW 8560  13.486  13.089   7.065
35574SOL    HW1 8561  13.464  13.136   7.145
35574SOL    HW2 8562  13.578  13.064   7.076
35575SOL     OW 8563   0.352   6.403   4.221
35575SOL    HW1 8564   0.430   6.347   4.216
35575SOL    HW2 8565   0.370   6.462   4.294
35576SOL     OW 8566   7.240   0.283  12.369
35576SOL    HW1 8567   7.257   0.190  12.355
35576SOL    HW2 8568   7.195   0.312  12.289
35577SOL     OW 8569   5.033   6.816  14.499
35577SOL    HW1 8570   5.127   6.803  14.482
35577SOL    HW2 8571   4.992   6.809  14.412
35578SOL     OW 8572   7.706  14.640  14.362
35578SOL    HW1 8573   7.667  14.561  14.398
35578SOL    HW2 8574   7.634  14.703  14.359
35579SOL     OW 8575  12.383  10.164  12.483
35579SOL    HW1 8576  12.290  10.162  12.462
35579SOL    HW2 8577  12.423  10.099  12.425
35580SOL     OW 8578   6.969   7.595   9.782
35580SOL    HW1 8579   7.010   7.548   9.709
35580SOL    HW2 8580   6.879   7.612   9.753
35581SOL     OW 8581  10.524   8.910  10.179
35581SOL    HW1 8582  10.529   8.985  10.237
35581SOL    HW2 8583  10.476   8.844  10.228
35582SOL     OW 8584   8.546  12.583  12.672
35582SOL    HW1 8585   8.598  12.609  12.748
35582SOL    HW2 8586   8.462  12.555  12.708
35583SOL     OW 8587   8.839   3.403   7.137
35583SOL    HW1 8588   8.825   3.388   7.230
35583SOL    HW2 8589   8.829   3.317   7.097
35584SOL     OW 8590  10.938  11.468   4.185
35584SOL    HW1 8591  10.947  11.374   4.173
35584SOL    HW2 8592  10.999  11.489   4.256
35585SOL     OW 8593   6.281   5.323   8.681
35585SOL    HW1 8594   6.234   5.252   8.724
35585SOL    HW2 8595   6.214   5.391   8.666
35586SOL     OW 8596   2.503   5.576   0.124
35586SOL    HW1 8597   2.471   5.584   0.034
35586SOL    HW2 8598   2.510   5.667   0.154
35587SOL     OW 8599   6.003   5.405   0.452
35587SOL    HW1 8600   5.946   5.393   0.528
35587SOL    HW2 8601   6.066   5.333   0.457
35588SOL     OW 8602   6.964   0.181   7.082
35588SOL    HW1 8603   7.027   0.233   7.133
35588SOL    HW2 8604   6.905   0.145   7.148
35589SOL     OW 8605   6.982  14.605   9.001
35589SOL    HW1 8606   6.988  14.570   9.090
35589SOL    HW2 8607   6.891  14.588   8.975
35590SOL     OW 8608   6.605   7.369   1.674
35590SOL    HW1 8609   6.691   7.329   1.685
35590SOL    HW2 8610   6.544   7.296   1.680
35591SOL     OW 8611  14.809   3.882   4.376
35591SOL    HW1 8612  14.792   3.969   4.412
35591SOL    HW2 8613  14.804   3.894   4.281
35592SOL     OW 8614   3.801   8.476  12.286
35592SOL    HW1 8615   3.735   8.441  12.346
35592SOL    HW2 8616   3.767   8.562  12.260
35593SOL     OW 8617  13.709   2.590  11.860
35593SOL    HW1 8618  13.756   2.583  11.943
35593SOL    HW2 8619  13.676   2.502  11.843
35594SOL     OW 8620   6.436   9.636  14.422
35594SOL    HW1 8621   6.385   9.613  14.500
35594SOL    HW2 8622   6.375   9.686  14.368
35595SOL     OW 8623  13.513  14.729   8.227
35595SOL    HW1 8624  13.462  14.649   8.233
35595SOL    HW2 8625  13.537  14.749   8.318
35596SOL     OW 8626  13.999   3.731  14.178
35596SOL    HW1 8627  14.057   3.654  14.176
35596SOL    HW2 8628  13.912   3.695  14.196
35597SOL     OW 8629  12.801   4.186   2.972
35597SOL    HW1 8630  12.783   4.226   2.887
35597SOL    HW2 8631  12.831   4.258   3.026
35598SOL     OW 8632   9.124   4.752   9.975
35598SOL    HW1 8633   9.183   4.825   9.958
35598SOL    HW2 8634   9.091   4.727   9.888
35599SOL     OW 8635   9.274  14.400   4.300
35599SOL    HW1 8636   9.263  14.470   4.236
35599SOL    HW2 8637   9.220  14.328   4.266
35600SOL     OW 8638   0.090  10.456  10.291
35600SOL    HW1 8639   0.150  10.514  10.337
35600SOL    HW2 8640   0.003  10.481  10.323
35601SOL     OW 8641   5.141   6.113   5.090
35601SOL    HW1 8642   5.211   6.149   5.144
35601SOL    HW2 8643   5.187   6.076   5.014
35602SOL     OW 8644   7.797  14.284   2.532
35602SOL    HW1 8645   7.819  14.250   2.620
35602SOL    HW2 8646   7.843  14.367   2.527
35603SOL     OW 8647   3.378   0.673   3.080
35603SOL    HW1 8648   3.344   0.590   3.048
35603SOL    HW2 8649   3.414   0.716   3.002
35604SOL     OW 8650  11.176  14.101  10.754
35604SOL    HW1 8651  11.164  14.015  10.712
35604SOL    HW2 8652  11.090  14.120  10.792
35605SOL     OW 8653   0.298   3.942   4.987
35605SOL    HW1 8654   0.346   3.930   4.906
35605SOL    HW2 8655   0.364   3.966   5.052
35606SOL     OW 8656  14.739   5.311   4.874
35606SOL    HW1 8657  14.646   5.294   4.890
35606SOL    HW2 8658  14.780   5.225   4.877
35607SOL     OW 8659   5.575   9.006   0.296
35607SOL    HW1 8660   5.664   9.024   0.328
35607SOL    HW2 8661   5.577   9.033   0.205
35608SOL     OW 8662   4.189  13.666  11.476
35608SOL    HW1 8663   4.196  13.576  11.443
35608SOL    HW2 8664   4.200  13.657  11.571
35609SOL     OW 8665   3.459   3.324   5.128
35609SOL    HW1 8666   3.379   3.376   5.132
35609SOL    HW2 8667   3.429   3.238   5.098
35610SOL     OW 8668   3.238   4.927   5.880
35610SOL    HW1 8669   3.291   4.897   5.954
35610SOL    HW2 8670   3.263   5.019   5.869
35611SOL     OW 8671   8.103   4.008  12.650
35611SOL    HW1 8672   8.016   4.013  12.611
35611SOL    HW2 8673   8.151   4.080  12.610
35612SOL     OW 8674   5.051  11.421  11.652
35612SOL    HW1 8675   5.116  11.491  11.656
35612SOL    HW2 8676   5.066  11.370  11.731
35613SOL     OW 8677   5.155   6.142   3.453
35613SOL    HW1 8678   5.208   6.139   3.533
35613SOL    HW2 8679   5.159   6.233   3.425
35614SOL     OW 8680  11.077  13.302   9.818
35614SOL    HW1 8681  11.091  13.298   9.912
35614SOL    HW2 8682  11.021  13.227   9.798
35615SOL     OW 8683   6.694  10.559   3.525
35615SOL    HW1 8684   6.728  10.649   3.521
35615SOL    HW2 8685   6.735  10.521   3.602
35616SOL     OW 8686  11.678   8.708   8.618
35616SOL    HW1 8687  11.719   8.748   8.541
35616SOL    HW2 8688  11.588   8.691   8.591
35617SOL     OW 8689   1.631   0.200  11.395
35617SOL    HW1 8690   1.581   0.231  11.470
35617SOL    HW2 8691   1.682   0.127  11.429
35618SOL     OW 8692   1.841  12.216   9.380
35618SOL    HW1 8693   1.822  12.163   9.457
35618SOL    HW2 8694   1.838  12.307   9.411
35619SOL     OW 8695   4.437  11.718   9.208
35619SOL    HW1 8696   4.482  11.637   9.234
35619SOL    HW2 8697   4.499  11.788   9.230
35620SOL     OW 8698   8.817  12.062   3.494
35620SOL    HW1 8699   8.772  12.136   3.533
35620SOL    HW2 8700   8.895  12.050   3.548
35621SOL     OW 8701  13.614   3.425   2.306
35621SOL    HW1 8702  13.644   3.396   2.220
35621SOL    HW2 8703  13.673   3.497   2.328
35622SOL     OW 8704   9.082  13.624  11.550
35622SOL    HW1 8705   9.065  13.602  11.459
35622SOL    HW2 8706   9.011  13.684  11.573
35623SOL     OW 8707   3.332  12.737  13.617
35623SOL    HW1 8708   3.304  12.645  13.622
35623SOL    HW2 8709   3.290  12.770  13.538
35624SOL     OW 8710   6.852   2.508   2.261
35624SOL    HW1 8711   6.919   2.444   2.235
35624SOL    HW2 8712   6.878   2.589   2.218
35625SOL     OW 8713  13.150   2.819   8.806
35625SOL    HW1 8714  13.121   2.728   8.802
35625SOL    HW2 8715  13.070   2.870   8.811
35626SOL     OW 8716   0.093   7.604  14.858
35626SOL    HW1 8717   0.052   7.617   0.070
35626SOL    HW2 8718   0.143   7.684  14.843
35627SOL     OW 8719  13.733   9.425  13.357
35627SOL    HW1 8720  13.747   9.331  13.368
35627SOL    HW2 8721  13.819   9.464  13.371
35628SOL     OW 8722   8.314   0.338  11.610
35628SOL    HW1 8723   8.364   0.390  11.672
35628SOL    HW2 8724   8.278   0.403  11.549
35629SOL     OW 8725  10.062  13.448   8.838
35629SOL    HW1 8726  10.045  13.542   8.846
35629SOL    HW2 8727  10.058  13.415   8.928
35630SOL     OW 8728   4.444  14.702   7.123
35630SOL    HW1 8729   4.509  14.680   7.190
35630SOL    HW2 8730   4.473  14.788   7.090
35631SOL     OW 8731   8.648   2.079   7.732
35631SOL    HW1 8732   8.595   2.021   7.786
35631SOL    HW2 8733   8.621   2.167   7.759
35632SOL     OW 8734  12.464  11.524   2.523
35632SOL    HW1 8735  12.535  11.581   2.494
35632SOL    HW2 8736  12.478  11.512   2.616
35633SOL     OW 8737   0.910  12.133  12.105
35633SOL    HW1 8738   0.932  12.076  12.031
35633SOL    HW2 8739   0.991  12.140  12.155
35634SOL     OW 8740  12.715   1.788   1.223
35634SOL    HW1 8741  12.656   1.712   1.223
35634SOL    HW2 8742  12.771   1.774   1.147
35635SOL     OW 8743   2.954   0.864  13.995
35635SOL    HW1 8744   2.981   0.772  13.997
35635SOL    HW2 8745   2.963   0.893  14.086
35636SOL     OW 8746   9.964  13.726   1.852
35636SOL    HW1 8747   9.952  13.653   1.792
35636SOL    HW2 8748  10.055  13.717   1.882
35637SOL     OW 8749   5.982  13.346   7.279
35637SOL    HW1 8750   5.896  13.371   7.313
35637SOL    HW2 8751   6.045  13.390   7.337
35638SOL     OW 8752   0.186   2.963  14.686
35638SOL    HW1 8753   0.144   3.031  14.739
35638SOL    HW2 8754   0.241   2.915  14.748
35639SOL     OW 8755   3.440   1.348   5.234
35639SOL    HW1 8756   3.500   1.274   5.241
35639SOL    HW2 8757   3.356   1.308   5.214
35640SOL     OW 8758  12.745  11.533   3.827
35640SOL    HW1 8759  12.735  11.585   3.907
35640SOL    HW2 8760  12.838  11.513   3.823
35641SOL     OW 8761  14.716  11.270   1.402
35641SOL    HW1 8762  14.648  11.267   1.334
35641SOL    HW2 8763  14.673  11.238   1.481
35642SOL     OW 8764  14.869  14.812   4.851
35642SOL    HW1 8765   0.007  14.767   4.934
35642SOL    HW2 8766  14.787  14.778   4.815
35643SOL     OW 8767   5.015   6.661   7.822
35643SOL    HW1 8768   4.978   6.748   7.808
35643SOL    HW2 8769   4.945   6.601   7.795
35644SOL     OW 8770   8.337  12.311  14.264
35644SOL    HW1 8771   8.309  12.222  14.282
35644SOL    HW2 8772   8.256  12.362  14.264
35645SOL     OW 8773  13.607  14.488   5.163
35645SOL    HW1 8774  13.661  14.463   5.238
35645SOL    HW2 8775  13.649  14.567   5.130
35646SOL     OW 8776   5.604   3.914   4.154
35646SOL    HW1 8777   5.691   3.932   4.118
35646SOL    HW2 8778   5.575   3.998   4.189
35647SOL     OW 8779   5.436   3.904  12.335
35647SOL    HW1 8780   5.408   3.926  12.246
35647SOL    HW2 8781   5.530   3.921  12.336
35648SOL     OW 8782   9.348   9.706  13.151
35648SOL    HW1 8783   9.354   9.784  13.096
35648SOL    HW2 8784   9.261   9.711  13.192
35649SOL     OW 8785   5.023   8.068  11.066
35649SOL    HW1 8786   4.972   8.145  11.091
35649SOL    HW2 8787   5.077   8.098  10.993
35650SOL     OW 8788  13.469   4.221  10.672
35650SOL    HW1 8789  13.527   4.295  10.692
35650SOL    HW2 8790  13.381   4.257  10.676
35651SOL     OW 8791   4.075   2.509   8.124
35651SOL    HW1 8792   4.171   2.510   8.118
35651SOL    HW2 8793   4.054   2.420   8.151
35652SOL     OW 8794   6.669   3.278   2.120
35652SOL    HW1 8795   6.638   3.290   2.210
35652SOL    HW2 8796   6.762   3.257   2.129
35653SOL     OW 8797   8.012  10.863  11.066
35653SOL    HW1 8798   8.106  10.848  11.082
35653SOL    HW2 8799   8.010  10.917  10.987
35654SOL     OW 8800  12.386   8.023  12.760
35654SOL    HW1 8801  12.424   7.971  12.831
35654SOL    HW2 8802  12.292   8.022  12.778
35655SOL     OW 8803   9.613  11.534   6.664
35655SOL    HW1 8804   9.677  11.602   6.687
35655SOL    HW2 8805   9.633  11.512   6.573
35656SOL     OW 8806  12.537   6.010  11.513
35656SOL    HW1 8807  12.515   6.043  11.426
35656SOL    HW2 8808  12.615   5.956  11.499
35657SOL     OW 8809  10.505  14.802   1.380
35657SOL    HW1 8810  10.498   0.023   1.362
35657SOL    HW2 8811  10.581  14.794   1.438
35658SOL     OW 8812   2.049  13.002   8.959
35658SOL    HW1 8813   1.988  12.971   8.892
35658SOL    HW2 8814   2.045  12.935   9.028
35659SOL     OW 8815   1.508   9.939   1.435
35659SOL    HW1 8816   1.430   9.912   1.482
35659SOL    HW2 8817   1.574   9.874   1.457
35660SOL     OW 8818  13.356  13.393   7.916
35660SOL    HW1 8819  13.368  13.359   7.827
35660SOL    HW2 8820  13.429  13.356   7.966
35661SOL     OW 8821  12.851   3.147   1.317
35661SOL    HW1 8822  12.824   3.114   1.403
35661SOL    HW2 8823  12.843   3.073   1.258
35662SOL     OW 8824   2.236   0.237   8.906
35662SOL    HW1 8825   2.185   0.192   8.838
35662SOL    HW2 8826   2.290   0.168   8.945
35663SOL     OW 8827  11.909  10.125  10.781
35663SOL    HW1 8828  11.882  10.217  10.772
35663SOL    HW2 8829  11.983  10.115  10.721
35664SOL     OW 8830  11.119  10.937   3.993
35664SOL    HW1 8831  11.049  10.905   3.936
35664SOL    HW2 8832  11.108  10.888   4.074
35665SOL     OW 8833   6.001  14.334  10.256
35665SOL    HW1 8834   6.063  14.368  10.321
35665SOL    HW2 8835   6.044  14.348  10.172
35666SOL     OW 8836   4.174  11.027  14.162
35666SOL    HW1 8837   4.258  11.029  14.117
35666SOL    HW2 8838   4.143  10.937  14.151
35667SOL     OW 8839  10.051   4.990  10.557
35667SOL    HW1 8840  10.112   4.998  10.631
35667SOL    HW2 8841   9.967   4.967  10.598
35668SOL     OW 8842   6.006  10.812  10.345
35668SOL    HW1 8843   5.929  10.861  10.316
35668SOL    HW2 8844   6.028  10.850  10.430
35669SOL     OW 8845  13.342  12.665  12.078
35669SOL    HW1 8846  13.258  12.642  12.037
35669SOL    HW2 8847  13.332  12.638  12.169
35670SOL     OW 8848   0.168  12.003  11.241
35670SOL    HW1 8849   0.123  11.984  11.323
35670SOL    HW2 8850   0.238  11.937  11.236
35671SOL     OW 8851   2.420   1.966   4.581
35671SOL    HW1 8852   2.331   2.000   4.577
35671SOL    HW2 8853   2.409   1.876   4.614
35672SOL     OW 8854   6.039  12.486   7.481
35672SOL    HW1 8855   6.085  12.549   7.537
35672SOL    HW2 8856   6.098  12.410   7.478
35673SOL     OW 8857   4.867  12.026   1.879
35673SOL    HW1 8858   4.852  11.942   1.922
35673SOL    HW2 8859   4.960  12.045   1.896
35674SOL     OW 8860   6.434  13.415  14.740
35674SOL    HW1 8861   6.416  13.402  14.833
35674SOL    HW2 8862   6.433  13.327  14.704
35675SOL     OW 8863  14.597   6.154  13.262
35675SOL    HW1 8864  14.592   6.249  13.274
35675SOL    HW2 8865  14.651   6.143  13.183
35676SOL     OW 8866   6.843   1.179   5.443
35676SOL    HW1 8867   6.890   1.187   5.360
35676SOL    HW2 8868   6.789   1.259   5.447
35677SOL     OW 8869   8.047  14.737  10.472
35677SOL    HW1 8870   8.056  14.744  10.567
35677SOL    HW2 8871   8.022  14.825  10.443
35678SOL     OW 8872   8.460  10.398   6.506
35678SOL    HW1 8873   8.535  10.425   6.560
35678SOL    HW2 8874   8.400  10.472   6.510
35679SOL     OW 8875  11.744   0.910   2.414
35679SOL    HW1 8876  11.817   0.962   2.379
35679SOL    HW2 8877  11.777   0.820   2.411
35680SOL     OW 8878  10.536   2.204   9.977
35680SOL    HW1 8879  10.530   2.299   9.985
35680SOL    HW2 8880  10.613   2.180  10.029
35681SOL     OW 8881   8.901   8.889   0.664
35681SOL    HW1 8882   8.935   8.810   0.622
35681SOL    HW2 8883   8.861   8.857   0.744
35682SOL     OW 8884   6.139   1.003   3.886
35682SOL    HW1 8885   6.094   0.919   3.880
35682SOL    HW2 8886   6.171   1.007   3.976
35683SOL     OW 8887   5.382   3.786   2.743
35683SOL    HW1 8888   5.406   3.775   2.835
35683SOL    HW2 8889   5.295   3.746   2.736
35684SOL     OW 8890  13.040   0.407  12.292
35684SOL    HW1 8891  13.021   0.405  12.385
35684SOL    HW2 8892  13.114   0.347  12.281
35685SOL     OW 8893   5.233   2.255   5.481
35685SOL    HW1 8894   5.165   2.312   5.517
35685SOL    HW2 8895   5.195   2.168   5.481
35686SOL     OW 8896  13.953   4.509   7.954
35686SOL    HW1 8897  14.005   4.578   7.997
35686SOL    HW2 8898  13.895   4.557   7.895
35687SOL     OW 8899   4.983   8.748   1.012
35687SOL    HW1 8900   4.888   8.744   1.012
35687SOL    HW2 8901   5.011   8.657   1.009
35688SOL     OW 8902  12.736   5.411   5.341
35688SOL    HW1 8903  12.704   5.500   5.329
35688SOL    HW2 8904  12.798   5.398   5.269
35689SOL     OW 8905   6.610  13.866  12.959
35689SOL    HW1 8906   6.530  13.818  12.980
35689SOL    HW2 8907   6.679  13.800  12.967
35690SOL     OW 8908  11.244   7.632   1.867
35690SOL    HW1 8909  11.175   7.594   1.813
35690SOL    HW2 8910  11.282   7.700   1.812
35691SOL     OW 8911  14.451  13.426  13.133
35691SOL    HW1 8912  14.443  13.375  13.214
35691SOL    HW2 8913  14.402  13.376  13.068
35692SOL     OW 8914  14.395   6.992   9.866
35692SOL    HW1 8915  14.343   7.037   9.800
35692SOL    HW2 8916  14.424   7.061   9.926
35693SOL     OW 8917   4.468   2.342   9.192
35693SOL    HW1 8918   4.560   2.328   9.167
35693SOL    HW2 8919   4.419   2.291   9.128
35694SOL     OW 8920   8.618   8.120   3.041
35694SOL    HW1 8921   8.606   8.026   3.027
35694SOL    HW2 8922   8.533   8.158   3.018
35695SOL     OW 8923   2.049   4.827  13.576
35695SOL    HW1 8924   2.005   4.859  13.497
35695SOL    HW2 8925   1.992   4.757  13.609
35696SOL     OW 8926   8.065  13.608   6.054
35696SOL    HW1 8927   7.969  13.609   6.059
35696SOL    HW2 8928   8.088  13.516   6.067
35697SOL     OW 8929  11.949  12.339   6.961
35697SOL    HW1 8930  11.883  12.276   6.932
35697SOL    HW2 8931  12.017  12.285   7.001
35698SOL     OW 8932   1.748   4.720  14.662
35698SOL    HW1 8933   1.790   4.803  14.641
35698SOL    HW2 8934   1.693   4.700  14.587
35699SOL     OW 8935   5.282  12.254  12.702
35699SOL    HW1 8936   5.312  12.318  12.637
35699SOL    HW2 8937   5.190  12.277  12.717
35700SOL     OW 8938   2.222  13.293   0.549
35700SOL    HW1 8939   2.315  13.314   0.548
35700SOL    HW2 8940   2.191  13.323   0.635
35701SOL     OW 8941  11.011  13.420   9.113
35701SOL    HW1 8942  11.063  13.384   9.185
35701SOL    HW2 8943  11.052  13.504   9.092
35702SOL     OW 8944   8.531  10.540  12.305
35702SOL    HW1 8945   8.581  10.599  12.361
35702SOL    HW2 8946   8.509  10.592  12.228
35703SOL     OW 8947   5.742   8.450  14.198
35703SOL    HW1 8948   5.769   8.373  14.249
35703SOL    HW2 8949   5.715   8.513  14.264
35704SOL     OW 8950   1.963   1.269   0.016
35704SOL    HW1 8951   1.914   1.235   0.091
35704SOL    HW2 8952   1.978   1.361   0.038
35705SOL     OW 8953   4.230  10.723   7.825
35705SOL    HW1 8954   4.172  10.767   7.762
35705SOL    HW2 8955   4.284  10.665   7.772
35706SOL     OW 8956   0.969   8.701   4.200
35706SOL    HW1 8957   1.034   8.728   4.265
35706SOL    HW2 8958   0.888   8.741   4.230
35707SOL     OW 8959  13.084   3.718   7.798
35707SOL    HW1 8960  13.106   3.784   7.864
35707SOL    HW2 8961  13.164   3.666   7.788
35708SOL     OW 8962   9.514   6.758  14.644
35708SOL    HW1 8963   9.465   6.829  14.686
35708SOL    HW2 8964   9.458   6.727  14.574
35709SOL     OW 8965  13.506   8.486   4.754
35709SOL    HW1 8966  13.426   8.531   4.728
35709SOL    HW2 8967  13.533   8.437   4.676
35710SOL     OW 8968   3.366  14.307   3.367
35710SOL    HW1 8969   3.352  14.229   3.421
35710SOL    HW2 8970   3.410  14.369   3.425
35711SOL     OW 8971  13.587   9.173   9.554
35711SOL    HW1 8972  13.666   9.164   9.607
35711SOL    HW2 8973  13.547   9.255   9.583
35712SOL     OW 8974   6.485  12.021   3.194
35712SOL    HW1 8975   6.571  11.981   3.200
35712SOL    HW2 8976   6.449  12.016   3.282
35713SOL     OW 8977  11.522   8.280  12.632
35713SOL    HW1 8978  11.554   8.290  12.722
35713SOL    HW2 8979  11.597   8.244  12.584
35714SOL     OW 8980   0.506  10.860   5.335
35714SOL    HW1 8981   0.478  10.897   5.251
35714SOL    HW2 8982   0.546  10.934   5.382
35715SOL     OW 8983   0.764   7.582   1.310
35715SOL    HW1 8984   0.742   7.655   1.368
35715SOL    HW2 8985   0.731   7.609   1.224
35716SOL     OW 8986   5.019   4.887  11.425
35716SOL    HW1 8987   5.061   4.813  11.382
35716SOL    HW2 8988   5.081   4.916  11.491
35717SOL     OW 8989   2.815  11.105   8.133
35717SOL    HW1 8990   2.782  11.104   8.043
35717SOL    HW2 8991   2.763  11.037   8.178
35718SOL     OW 8992   9.377  13.279   2.072
35718SOL    HW1 8993   9.336  13.193   2.068
35718SOL    HW2 8994   9.343  13.326   1.995
35719SOL     OW 8995   1.411   8.046   9.050
35719SOL    HW1 8996   1.375   7.995   8.978
35719SOL    HW2 8997   1.375   8.006   9.129
35720SOL     OW 8998  13.541  13.242  10.476
35720SOL    HW1 8999  13.632  13.272  10.489
35720SOL    HW2 9000  13.507  13.300  10.407
35721SOL     OW 9001   1.081   9.097   9.857
35721SOL    HW1 9002   1.112   9.187   9.847
35721SOL    HW2 9003   0.991   9.099   9.824
35722SOL     OW 9004   0.980  11.770   8.398
35722SOL    HW1 9005   1.017  11.763   8.487
35722SOL    HW2 9006   0.948  11.682   8.379
35723SOL     OW 9007  10.522  14.381   2.116
35723SOL    HW1 9008  10.517  14.400   2.023
35723SOL    HW2 9009  10.574  14.301   2.121
35724SOL     OW 9010   1.775  13.820  10.816
35724SOL    HW1 9011   1.706  13.863  10.866
35724SOL    HW2 9012   1.815  13.889  10.765
35725SOL     OW 9013  13.775   7.935   6.647
35725SOL    HW1 9014  13.717   7.947   6.572
35725SOL    HW2 9015  13.717   7.935   6.723
35726SOL     OW 9016   4.056   2.301   1.943
35726SOL    HW1 9017   4.129   2.357   1.970
35726SOL    HW2 9018   4.095   2.237   1.884
35727SOL     OW 9019   0.551   3.013  12.971
35727SOL    HW1 9020   0.553   3.026  12.876
35727SOL    HW2 9021   0.640   3.032  12.999
35728SOL     OW 9022   7.962  12.951   6.145
35728SOL    HW1 9023   8.015  13.030   6.130
35728SOL    HW2 9024   7.997  12.887   6.082
35729SOL     OW 9025  11.273   3.916   4.705
35729SOL    HW1 9026  11.192   3.961   4.731
35729SOL    HW2 9027  11.266   3.909   4.609
35730SOL     OW 9028   8.982   9.543   8.066
35730SOL    HW1 9029   9.069   9.530   8.029
35730SOL    HW2 9030   8.998   9.588   8.149
35731SOL     OW 9031   8.206  14.589   6.289
35731SOL    HW1 9032   8.187  14.565   6.380
35731SOL    HW2 9033   8.265  14.664   6.296
35732SOL     OW 9034   6.362   8.380  10.305
35732SOL    HW1 9035   6.429   8.431  10.260
35732SOL    HW2 9036   6.388   8.289  10.293
35733SOL     OW 9037  10.506   0.487   3.288
35733SOL    HW1 9038  10.550   0.425   3.230
35733SOL    HW2 9039  10.504   0.443   3.373
35734SOL     OW 9040  12.393  12.271   0.336
35734SOL    HW1 9041  12.467  12.214   0.315
35734SOL    HW2 9042  12.426  12.327   0.407
35735SOL     OW 9043  14.322   6.372  10.334
35735SOL    HW1 9044  14.374   6.360  10.414
35735SOL    HW2 9045  14.249   6.428  10.361
35736SOL     OW 9046   7.485   0.343   2.494
35736SOL    HW1 9047   7.512   0.433   2.515
35736SOL    HW2 9048   7.399   0.334   2.537
35737SOL     OW 9049  11.499  14.803   5.978
35737SOL    HW1 9050  11.567  14.747   5.941
35737SOL    HW2 9051  11.522   0.018   5.949
35738SOL     OW 9052   2.658   4.741  12.406
35738SOL    HW1 9053   2.572   4.778  12.423
35738SOL    HW2 9054   2.686   4.703  12.489
35739SOL     OW 9055   3.987   1.819  10.022
35739SOL    HW1 9056   4.068   1.784  10.058
35739SOL    HW2 9057   3.940   1.742   9.990
35740SOL     OW 9058   9.449   9.034   2.853
35740SOL    HW1 9059   9.425   9.019   2.945
35740SOL    HW2 9060   9.478   9.125   2.850
35741SOL     OW 9061  13.282   4.800   4.586
35741SOL    HW1 9062  13.368   4.802   4.629
35741SOL    HW2 9063  13.286   4.870   4.521
35742SOL     OW 9064   7.332   6.050   2.354
35742SOL    HW1 9065   7.367   6.015   2.436
35742SOL    HW2 9066   7.399   6.112   2.325
35743SOL     OW 9067  13.596   1.432   1.205
35743SOL    HW1 9068  13.611   1.408   1.114
35743SOL    HW2 9069  13.516   1.386   1.229
35744SOL     OW 9070   6.006   7.437   1.192
35744SOL    HW1 9071   5.983   7.480   1.274
35744SOL    HW2 9072   5.962   7.489   1.125
35745SOL     OW 9073  11.127   9.385  11.144
35745SOL    HW1 9074  11.165   9.434  11.217
35745SOL    HW2 9075  11.035   9.376  11.167
35746SOL     OW 9076   3.984   6.720   4.711
35746SOL    HW1 9077   4.031   6.696   4.631
35746SOL    HW2 9078   4.013   6.656   4.776
35747SOL     OW 9079   9.923   3.863  11.196
35747SOL    HW1 9080   9.966   3.947  11.210
35747SOL    HW2 9081   9.886   3.841  11.282
35748SOL     OW 9082  12.002   3.254  14.094
35748SOL    HW1 9083  11.965   3.170  14.066
35748SOL    HW2 9084  12.048   3.286  14.017
35749SOL     OW 9085   0.690   7.154   8.066
35749SOL    HW1 9086   0.641   7.079   8.100
35749SOL    HW2 9087   0.623   7.218   8.042
35750SOL     OW 9088   9.394  12.275   7.517
35750SOL    HW1 9089   9.360  12.204   7.572
35750SOL    HW2 9090   9.456  12.322   7.573
35751SOL     OW 9091   8.930   2.194  12.342
35751SOL    HW1 9092   8.871   2.145  12.285
35751SOL    HW2 9093   9.017   2.180  12.304
35752SOL     OW 9094   0.318   2.909   6.271
35752SOL    HW1 9095   0.258   2.973   6.235
35752SOL    HW2 9096   0.265   2.830   6.283
35753SOL     OW 9097  14.541   5.202   0.814
35753SOL    HW1 9098  14.487   5.124   0.801
35753SOL    HW2 9099  14.621   5.169   0.855
35754SOL     OW 9100  11.680  10.699   3.324
35754SOL    HW1 9101  11.607  10.656   3.280
35754SOL    HW2 9102  11.662  10.792   3.316
35755SOL     OW 9103   4.824   3.423   0.514
35755SOL    HW1 9104   4.804   3.436   0.421
35755SOL    HW2 9105   4.919   3.437   0.520
35756SOL     OW 9106   9.812   0.923   0.050
35756SOL    HW1 9107   9.867   0.846   0.036
35756SOL    HW2 9108   9.783   0.948  14.835
35757SOL     OW 9109  10.248  13.834   0.628
35757SOL    HW1 9110  10.259  13.922   0.592
35757SOL    HW2 9111  10.249  13.847   0.723
35758SOL     OW 9112   2.568  12.027   4.786
35758SOL    HW1 9113   2.550  12.120   4.780
35758SOL    HW2 9114   2.626  12.009   4.712
35759SOL     OW 9115   3.389  13.166   1.362
35759SOL    HW1 9116   3.455  13.111   1.405
35759SOL    HW2 9117   3.369  13.120   1.280
35760SOL     OW 9118   6.850   6.213   7.043
35760SOL    HW1 9119   6.920   6.199   7.107
35760SOL    HW2 9120   6.886   6.179   6.961
35761SOL     OW 9121   8.672  11.136   1.027
35761SOL    HW1 9122   8.666  11.066   1.093
35761SOL    HW2 9123   8.582  11.145   0.994
35762SOL     OW 9124   6.894   2.721   2.489
35762SOL    HW1 9125   6.943   2.641   2.469
35762SOL    HW2 9126   6.940   2.790   2.441
35763SOL     OW 9127  11.169   6.735   4.324
35763SOL    HW1 9128  11.129   6.678   4.258
35763SOL    HW2 9129  11.175   6.820   4.280
35764SOL     OW 9130  11.598   8.489   5.771
35764SOL    HW1 9131  11.549   8.500   5.852
35764SOL    HW2 9132  11.620   8.578   5.744
35765SOL     OW 9133   9.891  12.453   8.075
35765SOL    HW1 9134   9.816  12.472   8.019
35765SOL    HW2 9135   9.943  12.389   8.025
35766SOL     OW 9136  11.263   8.579  13.552
35766SOL    HW1 9137  11.295   8.669  13.542
35766SOL    HW2 9138  11.342   8.527  13.567
35767SOL     OW 9139   1.477   1.236   7.428
35767SOL    HW1 9140   1.521   1.201   7.506
35767SOL    HW2 9141   1.384   1.228   7.448
35768SOL     OW 9142  10.891   3.521   9.668
35768SOL    HW1 9143  10.901   3.532   9.763
35768SOL    HW2 9144  10.802   3.550   9.650
35769SOL     OW 9145   6.917   6.419   9.517
35769SOL    HW1 9146   6.837   6.368   9.510
35769SOL    HW2 9147   6.924   6.440   9.610
35770SOL     OW 9148   5.011  13.037  11.742
35770SOL    HW1 9149   5.064  12.987  11.804
35770SOL    HW2 9150   4.930  12.987  11.735
35771SOL     OW 9151   0.995  13.712   4.630
35771SOL    HW1 9152   0.999  13.617   4.640
35771SOL    HW2 9153   0.908  13.735   4.662
35772SOL     OW 9154  12.846   4.523   5.733
35772SOL    HW1 9155  12.751   4.514   5.724
35772SOL    HW2 9156  12.867   4.605   5.688
35773SOL     OW 9157   0.905  12.990   7.078
35773SOL    HW1 9158   0.887  12.936   7.000
35773SOL    HW2 9159   0.820  12.999   7.121
35774SOL     OW 9160   6.536   0.777   6.495
35774SOL    HW1 9161   6.474   0.749   6.427
35774SOL    HW2 9162   6.495   0.853   6.536
35775SOL     OW 9163   6.626   0.350   7.753
35775SOL    HW1 9164   6.623   0.263   7.713
35775SOL    HW2 9165   6.698   0.345   7.816
35776SOL     OW 9166   4.838   0.199   5.570
35776SOL    HW1 9167   4.913   0.229   5.621
35776SOL    HW2 9168   4.847   0.245   5.486
35777SOL     OW 9169  14.531   9.624   8.896
35777SOL    HW1 9170  14.543   9.653   8.805
35777SOL    HW2 9171  14.441   9.648   8.917
35778SOL     OW 9172   6.583  10.655   0.153
35778SOL    HW1 9173   6.632  10.655   0.235
35778SOL    HW2 9174   6.599  10.568   0.116
35779SOL     OW 9175   1.957   5.650   9.111
35779SOL    HW1 9176   2.001   5.565   9.113
35779SOL    HW2 9177   1.912   5.652   9.027
35780SOL     OW 9178  11.450   8.937  10.635
35780SOL    HW1 9179  11.494   8.992  10.570
35780SOL    HW2 9180  11.376   8.899  10.587
35781SOL     OW 9181   5.515   1.981   9.011
35781SOL    HW1 9182   5.566   2.037   9.070
35781SOL    HW2 9183   5.565   1.900   9.006
35782SOL     OW 9184  14.258  14.830  13.413
35782SOL    HW1 9185  14.314   0.034  13.402
35782SOL    HW2 9186  14.314  14.765  13.455
35783SOL     OW 9187   9.137   4.508   6.025
35783SOL    HW1 9188   9.227   4.510   5.995
35783SOL    HW2 9189   9.085   4.507   5.944
35784SOL     OW 9190   0.562   9.746   2.089
35784SOL    HW1 9191   0.467   9.734   2.087
35784SOL    HW2 9192   0.582   9.787   2.005
35785SOL     OW 9193   1.067  14.212   3.414
35785SOL    HW1 9194   1.106  14.133   3.452
35785SOL    HW2 9195   1.134  14.279   3.424
35786SOL     OW 9196   4.833   4.900  13.864
35786SOL    HW1 9197   4.749   4.879  13.823
35786SOL    HW2 9198   4.880   4.817  13.866
35787SOL     OW 9199  12.925  14.706   2.815
35787SOL    HW1 9200  12.942  14.750   2.732
35787SOL    HW2 9201  12.976  14.755   2.879
35788SOL     OW 9202  10.013   0.582  10.497
35788SOL    HW1 9203  10.054   0.495  10.501
35788SOL    HW2 9204   9.983   0.590  10.406
35789SOL     OW 9205  11.306   1.761   1.987
35789SOL    HW1 9206  11.305   1.726   2.076
35789SOL    HW2 9207  11.393   1.737   1.953
35790SOL     OW 9208   3.601   1.407   9.579
35790SOL    HW1 9209   3.598   1.500   9.555
35790SOL    HW2 9210   3.693   1.389   9.596
35791SOL     OW 9211   5.502   1.398  11.005
35791SOL    HW1 9212   5.496   1.493  11.016
35791SOL    HW2 9213   5.560   1.385  10.930
35792SOL     OW 9214   8.590   1.691   5.840
35792SOL    HW1 9215   8.577   1.596   5.839
35792SOL    HW2 9216   8.510   1.727   5.800
35793SOL     OW 9217  13.887  12.438   0.970
35793SOL    HW1 9218  13.824  12.445   0.898
35793SOL    HW2 9219  13.934  12.521   0.969
35794SOL     OW 9220   6.296  14.068   6.662
35794SOL    HW1 9221   6.324  13.981   6.688
35794SOL    HW2 9222   6.340  14.084   6.578
35795SOL     OW 9223   9.951  11.367   2.465
35795SOL    HW1 9224   9.961  11.372   2.370
35795SOL    HW2 9225  10.036  11.335   2.496
35796SOL     OW 9226   7.996  13.601   3.699
35796SOL    HW1 9227   7.961  13.687   3.722
35796SOL    HW2 9228   7.945  13.540   3.753
35797SOL     OW 9229  13.994  11.304  12.921
35797SOL    HW1 9230  14.069  11.352  12.957
35797SOL    HW2 9231  13.995  11.325  12.827
35798SOL     OW 9232  13.026   1.260   3.278
35798SOL    HW1 9233  13.094   1.210   3.324
35798SOL    HW2 9234  12.944   1.231   3.317
35799SOL     OW 9235  14.191  11.114  11.828
35799SOL    HW1 9236  14.130  11.093  11.757
35799SOL    HW2 9237  14.215  11.205  11.813
35800SOL     OW 9238  11.610   5.987  12.812
35800SOL    HW1 9239  11.601   5.898  12.845
35800SOL    HW2 9240  11.670   5.979  12.738
35801SOL     OW 9241   6.852   9.495  11.944
35801SOL    HW1 9242   6.849   9.457  11.856
35801SOL    HW2 9243   6.792   9.570  11.940
35802SOL     OW 9244   9.881  14.206   8.053
35802SOL    HW1 9245   9.912  14.291   8.021
35802SOL    HW2 9246   9.827  14.228   8.129
35803SOL     OW 9247   4.519   7.506   6.007
35803SOL    HW1 9248   4.555   7.435   5.953
35803SOL    HW2 9249   4.588   7.572   6.009
35804SOL     OW 9250   1.648   6.471   3.078
35804SOL    HW1 9251   1.604   6.546   3.117
35804SOL    HW2 9252   1.583   6.401   3.080
35805SOL     OW 9253  14.786   6.637  11.811
35805SOL    HW1 9254  14.814   6.623  11.720
35805SOL    HW2 9255  14.785   6.550  11.850
35806SOL     OW 9256   5.525  10.058  14.861
35806SOL    HW1 9257   5.483  10.144  14.866
35806SOL    HW2 9258   5.615  10.073   0.018
35807SOL     OW 9259  12.624   5.504   9.570
35807SOL    HW1 9260  12.618   5.499   9.665
35807SOL    HW2 9261  12.662   5.591   9.553
35808SOL     OW 9262   1.909  14.513  12.247
35808SOL    HW1 9263   1.899  14.424  12.212
35808SOL    HW2 9264   1.869  14.569  12.181
35809SOL     OW 9265  10.053   1.979   4.809
35809SOL    HW1 9266  10.022   2.062   4.772
35809SOL    HW2 9267  10.032   1.914   4.742
35810SOL     OW 9268   7.986   6.640  13.387
35810SOL    HW1 9269   7.926   6.667  13.456
35810SOL    HW2 9270   8.062   6.605  13.434
35811SOL     OW 9271  13.254   5.716   0.866
35811SOL    HW1 9272  13.348   5.731   0.855
35811SOL    HW2 9273  13.233   5.648   0.803
35812SOL     OW 9274  13.367   0.715  11.372
35812SOL    HW1 9275  13.426   0.728  11.297
35812SOL    HW2 9276  13.414   0.655  11.429
35813SOL     OW 9277   4.712  11.263  12.924
35813SOL    HW1 9278   4.683  11.314  12.848
35813SOL    HW2 9279   4.762  11.324  12.977
35814SOL     OW 9280   6.760   4.260   0.988
35814SOL    HW1 9281   6.799   4.173   0.980
35814SOL    HW2 9282   6.677   4.254   0.942
35815SOL     OW 9283   9.811   0.260   2.066
35815SOL    HW1 9284   9.862   0.266   1.985
35815SOL    HW2 9285   9.853   0.189   2.115
35816SOL     OW 9286   4.280  10.926  11.295
35816SOL    HW1 9287   4.303  10.907  11.386
35816SOL    HW2 9288   4.209  10.865  11.274
35817SOL     OW 9289   5.229   1.226   3.656
35817SOL    HW1 9290   5.147   1.212   3.703
35817SOL    HW2 9291   5.202   1.244   3.566
35818SOL     OW 9292   6.420  11.666   2.611
35818SOL    HW1 9293   6.386  11.652   2.523
35818SOL    HW2 9294   6.394  11.587   2.659
35819SOL     OW 9295  14.192   1.840  10.045
35819SOL    HW1 9296  14.118   1.901  10.047
35819SOL    HW2 9297  14.267   1.895  10.023
35820SOL     OW 9298  12.010  12.599   8.165
35820SOL    HW1 9299  12.023  12.512   8.203
35820SOL    HW2 9300  12.011  12.658   8.240
35821SOL     OW 9301   4.621   0.406   9.899
35821SOL    HW1 9302   4.685   0.349   9.856
35821SOL    HW2 9303   4.551   0.347   9.926
35822SOL     OW 9304   7.236   6.326  12.308
35822SOL    HW1 9305   7.314   6.277  12.334
35822SOL    HW2 9306   7.271   6.408  12.273
35823SOL     OW 9307   0.593  10.537  10.810
35823SOL    HW1 9308   0.540  10.581  10.743
35823SOL    HW2 9309   0.560  10.447  10.812
35824SOL     OW 9310  10.541  11.968  11.603
35824SOL    HW1 9311  10.531  11.924  11.519
35824SOL    HW2 9312  10.636  11.980  11.613
35825SOL     OW 9313   8.961   9.439   6.139
35825SOL    HW1 9314   9.036   9.391   6.173
35825SOL    HW2 9315   8.888   9.376   6.144
35826SOL     OW 9316  10.589   7.942   3.541
35826SOL    HW1 9317  10.598   8.013   3.477
35826SOL    HW2 9318  10.532   7.878   3.497
35827SOL     OW 9319   1.383   5.009   3.241
35827SOL    HW1 9320   1.464   5.049   3.210
35827SOL    HW2 9321   1.409   4.961   3.320
35828SOL     OW 9322   8.244   9.853   0.832
35828SOL    HW1 9323   8.215   9.806   0.910
35828SOL    HW2 9324   8.279   9.785   0.775
35829SOL     OW 9325   2.650  12.737   5.544
35829SOL    HW1 9326   2.715  12.675   5.511
35829SOL    HW2 9327   2.700  12.799   5.597
35830SOL     OW 9328   1.118   0.707   2.072
35830SOL    HW1 9329   1.069   0.715   1.991
35830SOL    HW2 9330   1.085   0.778   2.127
35831SOL     OW 9331   3.922  13.243  12.041
35831SOL    HW1 9332   3.841  13.275  12.082
35831SOL    HW2 9333   3.932  13.298  11.963
35832SOL     OW 9334   1.986   0.689   5.213
35832SOL    HW1 9335   2.066   0.726   5.175
35832SOL    HW2 9336   1.919   0.705   5.146
35833SOL     OW 9337   1.519   4.279   2.481
35833SOL    HW1 9338   1.605   4.310   2.453
35833SOL    HW2 9339   1.511   4.305   2.572
35834SOL     OW 9340   0.621   9.898  14.478
35834SOL    HW1 9341   0.591   9.989  14.475
35834SOL    HW2 9342   0.563   9.855  14.541
35835SOL     OW 9343   8.915  10.897   0.047
35835SOL    HW1 9344   8.911  10.805   0.073
35835SOL    HW2 9345   9.007  10.912   0.025
35836SOL     OW 9346  11.230   0.842   1.288
35836SOL    HW1 9347  11.317   0.868   1.316
35836SOL    HW2 9348  11.244   0.775   1.221
35837SOL     OW 9349  14.067   1.393   9.399
35837SOL    HW1 9350  14.098   1.335   9.469
35837SOL    HW2 9351  14.105   1.355   9.319
35838SOL     OW 9352   7.122  14.705  12.815
35838SOL    HW1 9353   7.147  14.656  12.737
35838SOL    HW2 9354   7.113  14.638  12.883
35839SOL     OW 9355  11.097  13.788  12.300
35839SOL    HW1 9356  11.038  13.829  12.236
35839SOL    HW2 9357  11.051  13.794  12.383
35840SOL     OW 9358   0.471   2.173   8.460
35840SOL    HW1 9359   0.399   2.110   8.456
35840SOL    HW2 9360   0.489   2.195   8.368
35841SOL     OW 9361   8.232  11.227   6.936
35841SOL    HW1 9362   8.312  11.191   6.897
35841SOL    HW2 9363   8.188  11.273   6.865
35842SOL     OW 9364  12.970   1.935  14.324
35842SOL    HW1 9365  13.055   1.976  14.343
35842SOL    HW2 9366  12.914   1.961  14.397
35843SOL     OW 9367  10.196   9.114   3.573
35843SOL    HW1 9368  10.234   9.067   3.648
35843SOL    HW2 9369  10.268   9.169   3.540
35844SOL     OW 9370   2.643  11.093   8.762
35844SOL    HW1 9371   2.696  11.068   8.686
35844SOL    HW2 9372   2.706  11.129   8.825
35845SOL     OW 9373   4.901   9.668   7.070
35845SOL    HW1 9374   4.908   9.758   7.104
35845SOL    HW2 9375   4.814   9.640   7.097
35846SOL     OW 9376  12.624  14.001   7.646
35846SOL    HW1 9377  12.570  14.009   7.567
35846SOL    HW2 9378  12.714  14.014   7.614
35847SOL     OW 9379   5.039  14.812   0.717
35847SOL    HW1 9380   4.984  14.827   0.794
35847SOL    HW2 9381   5.003  14.734   0.676
35848SOL     OW 9382   8.088   5.964  10.417
35848SOL    HW1 9383   8.086   6.056  10.391
35848SOL    HW2 9384   8.004   5.929  10.387
35849SOL     OW 9385   6.941   2.497   8.354
35849SOL    HW1 9386   7.022   2.467   8.395
35849SOL    HW2 9387   6.874   2.490   8.422
35850SOL     OW 9388  10.226   0.420   3.465
35850SOL    HW1 9389  10.270   0.435   3.382
35850SOL    HW2 9390  10.164   0.492   3.473
35851SOL     OW 9391   9.386   2.332   8.451
35851SOL    HW1 9392   9.367   2.277   8.527
35851SOL    HW2 9393   9.306   2.329   8.398
35852SOL     OW 9394  10.653  10.029   6.328
35852SOL    HW1 9395  10.622   9.983   6.406
35852SOL    HW2 9396  10.714   9.968   6.287
35853SOL     OW 9397  11.773   7.562   4.390
35853SOL    HW1 9398  11.735   7.541   4.304
35853SOL    HW2 9399  11.769   7.658   4.395
35854SOL     OW 9400   7.857   8.148   7.530
35854SOL    HW1 9401   7.778   8.176   7.576
35854SOL    HW2 9402   7.858   8.200   7.450
35855SOL     OW 9403   8.642   4.292  12.812
35855SOL    HW1 9404   8.580   4.222  12.833
35855SOL    HW2 9405   8.620   4.318  12.723
35856SOL     OW 9406   9.871  14.293   5.505
35856SOL    HW1 9407   9.853  14.385   5.525
35856SOL    HW2 9408   9.888  14.253   5.590
35857SOL     OW 9409   7.026   8.137  12.682
35857SOL    HW1 9410   7.044   8.153  12.775
35857SOL    HW2 9411   6.967   8.062  12.682
35858SOL     OW 9412  13.234  13.996   3.672
35858SOL    HW1 9413  13.299  14.062   3.695
35858SOL    HW2 9414  13.234  13.996   3.576
35859SOL     OW 9415  11.201   9.731   4.864
35859SOL    HW1 9416  11.186   9.808   4.920
35859SOL    HW2 9417  11.141   9.743   4.791
35860SOL     OW 9418   9.326   1.707  14.175
35860SOL    HW1 9419   9.349   1.629  14.125
35860SOL    HW2 9420   9.397   1.716  14.238
35861SOL     OW 9421   2.080   2.937   0.822
35861SOL    HW1 9422   2.061   3.022   0.782
35861SOL    HW2 9423   2.002   2.884   0.805
35862SOL     OW 9424   1.469   3.021   6.773
35862SOL    HW1 9425   1.518   3.096   6.740
35862SOL    HW2 9426   1.395   3.013   6.712
35863SOL     OW 9427  14.013   9.596   2.260
35863SOL    HW1 9428  13.945   9.572   2.197
35863SOL    HW2 9429  14.004   9.690   2.271
35864SOL     OW 9430  14.276  12.619   0.488
35864SOL    HW1 9431  14.289  12.690   0.425
35864SOL    HW2 9432  14.246  12.545   0.435
35865SOL     OW 9433   1.074   4.440   1.879
35865SOL    HW1 9434   1.060   4.531   1.905
35865SOL    HW2 9435   1.066   4.441   1.784
35866SOL     OW 9436   0.144   8.067   7.179
35866SOL    HW1 9437   0.168   8.118   7.101
35866SOL    HW2 9438   0.206   7.995   7.181
35867SOL     OW 9439  12.311   0.652   6.699
35867SOL    HW1 9440  12.297   0.663   6.605
35867SOL    HW2 9441  12.273   0.567   6.720
35868SOL     OW 9442   7.169  12.849  10.026
35868SOL    HW1 9443   7.089  12.854  10.078
35868SOL    HW2 9444   7.183  12.755  10.013
35869SOL     OW 9445  11.193   8.869   1.025
35869SOL    HW1 9446  11.213   8.962   1.034
35869SOL    HW2 9447  11.189   8.854   0.931
35870SOL     OW 9448   8.067   5.623  14.301
35870SOL    HW1 9449   8.020   5.704  14.318
35870SOL    HW2 9450   8.159   5.643  14.322
35871SOL     OW 9451   9.483  10.150   7.513
35871SOL    HW1 9452   9.547  10.221   7.514
35871SOL    HW2 9453   9.526  10.079   7.465
35872SOL     OW 9454   1.258  10.319   5.366
35872SOL    HW1 9455   1.231  10.247   5.423
35872SOL    HW2 9456   1.245  10.397   5.420
35873SOL     OW 9457  13.752  12.469   4.980
35873SOL    HW1 9458  13.678  12.492   5.037
35873SOL    HW2 9459  13.824  12.522   5.013
35874SOL     OW 9460   9.597   7.991   1.499
35874SOL    HW1 9461   9.570   7.900   1.491
35874SOL    HW2 9462   9.517   8.038   1.523
35875SOL     OW 9463   6.532   9.531   8.140
35875SOL    HW1 9464   6.566   9.464   8.081
35875SOL    HW2 9465   6.579   9.517   8.222
35876SOL     OW 9466   7.429   4.449  11.889
35876SOL    HW1 9467   7.362   4.382  11.899
35876SOL    HW2 9468   7.435   4.489  11.976
35877SOL     OW 9469   6.786   2.541   9.960
35877SOL    HW1 9470   6.847   2.593  10.011
35877SOL    HW2 9471   6.778   2.459  10.008
35878SOL     OW 9472   0.659  11.337   3.825
35878SOL    HW1 9473   0.725  11.354   3.758
35878SOL    HW2 9474   0.703  11.356   3.908
35879SOL     OW 9475   5.931   6.512   6.579
35879SOL    HW1 9476   5.874   6.581   6.548
35879SOL    HW2 9477   5.881   6.432   6.567
35880SOL     OW 9478   7.113  12.522   2.325
35880SOL    HW1 9479   7.206  12.530   2.347
35880SOL    HW2 9480   7.093  12.429   2.338
35881SOL     OW 9481   6.944  13.007   7.745
35881SOL    HW1 9482   6.988  13.026   7.828
35881SOL    HW2 9483   6.854  13.037   7.757
35882SOL     OW 9484  10.359  12.434   5.463
35882SOL    HW1 9485  10.302  12.363   5.493
35882SOL    HW2 9486  10.343  12.440   5.369
35883SOL     OW 9487   2.033   9.231  11.119
35883SOL    HW1 9488   1.941   9.249  11.139
35883SOL    HW2 9489   2.057   9.159  11.178
35884SOL     OW 9490   6.067  13.312  10.672
35884SOL    HW1 9491   6.158  13.314  10.701
35884SOL    HW2 9492   6.031  13.396  10.702
35885SOL     OW 9493  14.242   7.629   6.258
35885SOL    HW1 9494  14.232   7.710   6.309
35885SOL    HW2 9495  14.212   7.653   6.171
35886SOL     OW 9496  10.258   0.829   5.155
35886SOL    HW1 9497  10.343   0.832   5.111
35886SOL    HW2 9498  10.220   0.745   5.129
35887SOL     OW 9499   9.110   4.447   1.408
35887SOL    HW1 9500   9.071   4.503   1.340
35887SOL    HW2 9501   9.153   4.377   1.359
35888SOL     OW 9502  13.237   2.490   3.955
35888SOL    HW1 9503  13.159   2.513   4.005
35888SOL    HW2 9504  13.273   2.574   3.927
35889SOL     OW 9505   1.022   6.420  10.018
35889SOL    HW1 9506   1.022   6.511   9.988
35889SOL    HW2 9507   1.091   6.377   9.967
35890SOL     OW 9508  10.989  11.905   4.153
35890SOL    HW1 9509  10.893  11.911   4.158
35890SOL    HW2 9510  11.019  11.996   4.165
35891SOL     OW 9511   8.613  12.694   7.006
35891SOL    HW1 9512   8.682  12.648   6.958
35891SOL    HW2 9513   8.568  12.746   6.940
35892SOL     OW 9514  10.423  11.106   8.166
35892SOL    HW1 9515  10.486  11.104   8.238
35892SOL    HW2 9516  10.471  11.144   8.092
35893SOL     OW 9517   8.404   4.288   2.603
35893SOL    HW1 9518   8.486   4.336   2.618
35893SOL    HW2 9519   8.431   4.199   2.585
35894SOL     OW 9520   1.807   3.107  11.255
35894SOL    HW1 9521   1.775   3.122  11.345
35894SOL    HW2 9522   1.744   3.045  11.218
35895SOL     OW 9523  13.260  14.701   9.818
35895SOL    HW1 9524  13.294  14.758   9.888
35895SOL    HW2 9525  13.292  14.741   9.737
35896SOL     OW 9526   8.747  11.522   4.157
35896SOL    HW1 9527   8.704  11.528   4.072
35896SOL    HW2 9528   8.768  11.613   4.179
35897SOL     OW 9529  13.955   1.178   0.472
35897SOL    HW1 9530  14.004   1.259   0.457
35897SOL    HW2 9531  13.931   1.181   0.564
35898SOL     OW 9532  11.303   3.654   2.816
35898SOL    HW1 9533  11.280   3.740   2.853
35898SOL    HW2 9534  11.323   3.673   2.724
35899SOL     OW 9535  14.729   7.060   2.341
35899SOL    HW1 9536  14.675   7.135   2.366
35899SOL    HW2 9537  14.794   7.053   2.412
35900SOL     OW 9538  13.104  11.143   7.022
35900SOL    HW1 9539  13.089  11.199   7.098
35900SOL    HW2 9540  13.128  11.204   6.951
35901SOL     OW 9541  11.416   0.743   9.996
35901SOL    HW1 9542  11.461   0.805   9.937
35901SOL    HW2 9543  11.328   0.779  10.006
35902SOL     OW 9544   6.302   8.425   1.502
35902SOL    HW1 9545   6.272   8.498   1.557
35902SOL    HW2 9546   6.338   8.466   1.424
35903SOL     OW 9547   6.213   9.851   0.087
35903SOL    HW1 9548   6.211   9.773   0.032
35903SOL    HW2 9549   6.146   9.908   0.051
35904SOL     OW 9550  10.468  11.165   2.697
35904SOL    HW1 9551  10.396  11.102   2.689
35904SOL    HW2 9552  10.546  11.110   2.707
35905SOL     OW 9553   5.956  12.530   2.825
35905SOL    HW1 9554   6.034  12.579   2.798
35905SOL    HW2 9555   5.975  12.503   2.915
35906SOL     OW 9556   3.997   0.658   3.391
35906SOL    HW1 9557   3.926   0.722   3.384
35906SOL    HW2 9558   3.957   0.574   3.367
35907SOL     OW 9559   5.637  11.534   7.994
35907SOL    HW1 9560   5.703  11.466   7.978
35907SOL    HW2 9561   5.559  11.503   7.948
35908SOL     OW 9562   2.222  11.656   4.048
35908SOL    HW1 9563   2.179  11.609   3.976
35908SOL    HW2 9564   2.237  11.744   4.012
35909SOL     OW 9565  12.115   5.282   7.083
35909SOL    HW1 9566  12.079   5.285   6.994
35909SOL    HW2 9567  12.131   5.373   7.106
35910SOL     OW 9568  13.440  12.112  13.387
35910SOL    HW1 9569  13.526  12.119  13.346
35910SOL    HW2 9570  13.459  12.096  13.480
35911SOL     OW 9571  13.911   1.761  10.845
35911SOL    HW1 9572  13.982   1.744  10.783
35911SOL    HW2 9573  13.934   1.844  10.886
35912SOL     OW 9574  13.091  13.024   6.139
35912SOL    HW1 9575  13.165  12.989   6.090
35912SOL    HW2 9576  13.071  12.956   6.204
35913SOL     OW 9577   7.722   2.867  14.164
35913SOL    HW1 9578   7.772   2.812  14.103
35913SOL    HW2 9579   7.640   2.820  14.178
35914SOL     OW 9580   6.584   9.649   4.201
35914SOL    HW1 9581   6.629   9.677   4.281
35914SOL    HW2 9582   6.519   9.717   4.184
35915SOL     OW 9583   8.288   1.595   9.117
35915SOL    HW1 9584   8.232   1.669   9.142
35915SOL    HW2 9585   8.353   1.634   9.058
35916SOL     OW 9586   0.122   3.911   8.060
35916SOL    HW1 9587   0.142   3.935   7.970
35916SOL    HW2 9588   0.184   3.840   8.080
35917SOL     OW 9589  11.442   4.922   7.784
35917SOL    HW1 9590  11.504   4.958   7.847
35917SOL    HW2 9591  11.406   4.999   7.740
35918SOL     OW 9592   9.836  12.273   7.374
35918SOL    HW1 9593   9.824  12.367   7.356
35918SOL    HW2 9594   9.927  12.266   7.404
35919SOL     OW 9595  11.711   1.317   0.815
35919SOL    HW1 9596  11.708   1.400   0.862
35919SOL    HW2 9597  11.804   1.295   0.812
35920SOL     OW 9598  12.104   6.867   5.474
35920SOL    HW1 9599  12.066   6.893   5.390
35920SOL    HW2 9600  12.193   6.902   5.473
35921SOL     OW 9601  14.081   4.870   1.103
35921SOL    HW1 9602  14.078   4.776   1.083
35921SOL    HW2 9603  14.004   4.886   1.156
35922SOL     OW 9604   1.556   1.647   2.843
35922SOL    HW1 9605   1.627   1.630   2.904
35922SOL    HW2 9606   1.584   1.606   2.761
35923SOL     OW 9607  13.281  11.417  13.799
35923SOL    HW1 9608  13.342  11.461  13.739
35923SOL    HW2 9609  13.220  11.371  13.741
35924SOL     OW 9610   9.289   8.615  11.041
35924SOL    HW1 9611   9.300   8.541  11.100
35924SOL    HW2 9612   9.373   8.623  10.997
35925SOL     OW 9613   6.433  10.951   6.340
35925SOL    HW1 9614   6.450  10.865   6.379
35925SOL    HW2 9615   6.396  10.931   6.254
35926SOL     OW 9616  10.806   0.636  13.350
35926SOL    HW1 9617  10.902   0.637  13.349
35926SOL    HW2 9618  10.783   0.592  13.432
35927SOL     OW 9619   6.064   0.302   6.867
35927SOL    HW1 9620   6.043   0.394   6.880
35927SOL    HW2 9621   6.028   0.281   6.780
35928SOL     OW 9622   3.965   2.693   4.153
35928SOL    HW1 9623   4.025   2.622   4.128
35928SOL    HW2 9624   3.940   2.672   4.243
35929SOL     OW 9625  14.565   1.991  14.314
35929SOL    HW1 9626  14.502   2.060  14.296
35929SOL    HW2 9627  14.599   2.012  14.401
35930SOL     OW 9628  13.331   2.948   5.152
35930SOL    HW1 9629  13.380   2.988   5.223
35930SOL    HW2 9630  13.329   2.854   5.174
35931SOL     OW 9631   9.220   1.729   1.190
35931SOL    HW1 9632   9.155   1.727   1.261
35931SOL    HW2 9633   9.182   1.675   1.121
35932SOL     OW 9634  14.420  14.272  13.528
35932SOL    HW1 9635  14.451  14.232  13.610
35932SOL    HW2 9636  14.491  14.255  13.466
35933SOL     OW 9637   2.549  14.249   4.705
35933SOL    HW1 9638   2.606  14.184   4.664
35933SOL    HW2 9639   2.460  14.224   4.677
35934SOL     OW 9640  11.838  14.496  13.016
35934SOL    HW1 9641  11.761  14.448  12.985
35934SOL    HW2 9642  11.912  14.450  12.975
35935SOL     OW 9643   6.597  10.716   5.376
35935SOL    HW1 9644   6.516  10.767   5.369
35935SOL    HW2 9645   6.647  10.761   5.444
35936SOL     OW 9646   2.054   1.943   5.189
35936SOL    HW1 9647   2.136   1.913   5.148
35936SOL    HW2 9648   2.042   2.032   5.155
35937SOL     OW 9649  10.131  10.487  11.280
35937SOL    HW1 9650  10.143  10.480  11.185
35937SOL    HW2 9651  10.216  10.463  11.317
35938SOL     OW 9652   4.528   0.400   4.464
35938SOL    HW1 9653   4.553   0.364   4.549
35938SOL    HW2 9654   4.442   0.439   4.478
35939SOL     OW 9655  10.485   5.719   4.928
35939SOL    HW1 9656  10.566   5.679   4.897
35939SOL    HW2 9657  10.419   5.651   4.916
35940SOL     OW 9658   1.699   6.518   5.266
35940SOL    HW1 9659   1.625   6.510   5.327
35940SOL    HW2 9660   1.710   6.613   5.255
35941SOL     OW 9661   7.243   7.811   1.232
35941SOL    HW1 9662   7.312   7.783   1.293
35941SOL    HW2 9663   7.196   7.879   1.280
35942SOL     OW 9664  13.697   5.848   7.779
35942SOL    HW1 9665  13.729   5.895   7.856
35942SOL    HW2 9666  13.717   5.756   7.798
35943SOL     OW 9667   0.219   5.113   7.328
35943SOL    HW1 9668   0.207   5.167   7.250
35943SOL    HW2 9669   0.176   5.031   7.308
35944SOL     OW 9670  11.786   0.875   5.252
35944SOL    HW1 9671  11.761   0.787   5.222
35944SOL    HW2 9672  11.797   0.925   5.171
35945SOL     OW 9673  12.472   7.441  14.459
35945SOL    HW1 9674  12.393   7.449  14.511
35945SOL    HW2 9675  12.441   7.414  14.372
35946SOL     OW 9676   3.253   4.593   9.156
35946SOL    HW1 9677   3.212   4.554   9.079
35946SOL    HW2 9678   3.186   4.652   9.192
35947SOL     OW 9679  11.959   5.685   0.977
35947SOL    HW1 9680  11.876   5.731   0.967
35947SOL    HW2 9681  11.981   5.656   0.889
35948SOL     OW 9682   7.224   1.083   8.476
35948SOL    HW1 9683   7.259   0.996   8.456
35948SOL    HW2 9684   7.140   1.086   8.429
35949SOL     OW 9685   4.518   0.065   5.344
35949SOL    HW1 9686   4.511   0.132   5.276
35949SOL    HW2 9687   4.441   0.010   5.331
35950SOL     OW 9688   7.626   9.382  12.768
35950SOL    HW1 9689   7.572   9.378  12.847
35950SOL    HW2 9690   7.666   9.469  12.771
35951SOL     OW 9691   6.168  13.740   7.898
35951SOL    HW1 9692   6.161  13.681   7.973
35951SOL    HW2 9693   6.221  13.691   7.835
35952SOL     OW 9694   6.892   5.690   2.057
35952SOL    HW1 9695   6.952   5.617   2.070
35952SOL    HW2 9696   6.825   5.655   1.998
35953SOL     OW 9697   7.456  11.521   5.493
35953SOL    HW1 9698   7.395  11.587   5.526
35953SOL    HW2 9699   7.515  11.504   5.566
35954SOL     OW 9700  11.217   7.929   9.257
35954SOL    HW1 9701  11.274   7.983   9.203
35954SOL    HW2 9702  11.141   7.985   9.275
35955SOL     OW 9703  10.438   1.250   4.722
35955SOL    HW1 9704  10.431   1.294   4.807
35955SOL    HW2 9705  10.413   1.317   4.658
35956SOL     OW 9706   3.073   3.449   0.905
35956SOL    HW1 9707   2.979   3.454   0.888
35956SOL    HW2 9708   3.096   3.357   0.889
35957SOL     OW 9709   5.076   9.205   9.303
35957SOL    HW1 9710   5.080   9.271   9.373
35957SOL    HW2 9711   5.060   9.123   9.350
35958SOL     OW 9712   2.177   3.475   3.041
35958SOL    HW1 9713   2.107   3.506   2.983
35958SOL    HW2 9714   2.141   3.484   3.129
35959SOL     OW 9715   3.361   7.763  11.094
35959SOL    HW1 9716   3.322   7.817  11.163
35959SOL    HW2 9717   3.452   7.751  11.122
35960SOL     OW 9718  14.508   9.997  10.093
35960SOL    HW1 9719  14.427  10.042  10.116
35960SOL    HW2 9720  14.577  10.049  10.135
35961SOL     OW 9721   5.415   0.810  14.161
35961SOL    HW1 9722   5.495   0.789  14.209
35961SOL    HW2 9723   5.401   0.904  14.177
35962SOL     OW 9724  13.657  11.253  14.038
35962SOL    HW1 9725  13.742  11.269  13.996
35962SOL    HW2 9726  13.678  11.191  14.109
35963SOL     OW 9727   2.718   0.317   1.818
35963SOL    HW1 9728   2.630   0.349   1.797
35963SOL    HW2 9729   2.758   0.389   1.866
35964SOL     OW 9730   6.431   3.521  13.082
35964SOL    HW1 9731   6.490   3.455  13.117
35964SOL    HW2 9732   6.477   3.556  13.005
35965SOL     OW 9733  11.780  10.912   1.817
35965SOL    HW1 9734  11.717  10.977   1.785
35965SOL    HW2 9735  11.847  10.909   1.750
35966SOL     OW 9736  10.511   0.894  10.583
35966SOL    HW1 9737  10.425   0.866  10.616
35966SOL    HW2 9738  10.571   0.876  10.655
35967SOL     OW 9739  12.641   5.325  12.933
35967SOL    HW1 9740  12.699   5.284  12.998
35967SOL    HW2 9741  12.687   5.315  12.850
35968SOL     OW 9742   1.047  13.674  11.586
35968SOL    HW1 9743   1.025  13.741  11.521
35968SOL    HW2 9744   1.054  13.722  11.668
35969SOL     OW 9745   9.885  13.743   3.339
35969SOL    HW1 9746   9.800  13.786   3.344
35969SOL    HW2 9747   9.932  13.771   3.418
35970SOL     OW 9748   8.320  11.631  13.438
35970SOL    HW1 9749   8.318  11.565  13.368
35970SOL    HW2 9750   8.392  11.690  13.413
35971SOL     OW 9751   3.126   9.161   9.514
35971SOL    HW1 9752   3.213   9.153   9.553
35971SOL    HW2 9753   3.107   9.255   9.516
35972SOL     OW 9754   8.988   2.631  14.744
35972SOL    HW1 9755   9.070   2.657  14.703
35972SOL    HW2 9756   8.950   2.714  14.776
35973SOL     OW 9757  12.367   8.204  12.030
35973SOL    HW1 9758  12.284   8.179  11.991
35973SOL    HW2 9759  12.404   8.268  11.968
35974SOL     OW 9760  13.395   0.536   1.819
35974SOL    HW1 9761  13.310   0.566   1.850
35974SOL    HW2 9762  13.375   0.460   1.763
35975SOL     OW 9763   9.396   6.214   9.202
35975SOL    HW1 9764   9.344   6.249   9.130
35975SOL    HW2 9765   9.331   6.194   9.270
35976SOL     OW 9766  14.152   4.003  11.046
35976SOL    HW1 9767  14.228   4.058  11.059
35976SOL    HW2 9768  14.127   4.017  10.954
35977SOL     OW 9769   9.857   3.595  13.806
35977SOL    HW1 9770   9.840   3.654  13.732
35977SOL    HW2 9771   9.812   3.637  13.880
35978SOL     OW 9772   4.008   7.951  11.619
35978SOL    HW1 9773   3.988   8.031  11.569
35978SOL    HW2 9774   3.982   7.972  11.709
35979SOL     OW 9775   4.282   0.165   7.864
35979SOL    HW1 9776   4.325   0.198   7.943
35979SOL    HW2 9777   4.348   0.174   7.795
35980SOL     OW 9778   4.146   9.957   1.319
35980SOL    HW1 9779   4.184   9.875   1.287
35980SOL    HW2 9780   4.208   9.987   1.385
35981SOL     OW 9781   5.356  10.695   5.849
35981SOL    HW1 9782   5.284  10.678   5.787
35981SOL    HW2 9783   5.429  10.723   5.794
35982SOL     OW 9784   1.951  14.801   4.413
35982SOL    HW1 9785   2.018  14.780   4.477
35982SOL    HW2 9786   1.871  14.812   4.464
35983SOL     OW 9787   5.032  13.534  10.357
35983SOL    HW1 9788   4.938  13.547  10.343
35983SOL    HW2 9789   5.037  13.493  10.444
35984SOL     OW 9790   9.494  14.288   6.991
35984SOL    HW1 9791   9.522  14.197   7.000
35984SOL    HW2 9792   9.406  14.290   7.029
35985SOL     OW 9793   6.279  14.339  11.321
35985SOL    HW1 9794   6.324  14.379  11.395
35985SOL    HW2 9795   6.223  14.408  11.286
35986SOL     OW 9796  12.297  10.967  11.462
35986SOL    HW1 9797  12.308  10.988  11.369
35986SOL    HW2 9798  12.385  10.947  11.493
35987SOL     OW 9799   7.945   1.426   9.206
35987SOL    HW1 9800   7.976   1.456   9.121
35987SOL    HW2 9801   7.934   1.506   9.257
35988SOL     OW 9802   3.091  12.762  10.256
35988SOL    HW1 9803   3.021  12.699  10.238
35988SOL    HW2 9804   3.049  12.848  10.248
35989SOL     OW 9805  10.330  14.027   8.061
35989SOL    HW1 9806  10.250  14.051   8.108
35989SOL    HW2 9807  10.362  14.110   8.025
35990SOL     OW 9808   7.775   0.132   3.410
35990SOL    HW1 9809   7.742   0.217   3.439
35990SOL    HW2 9810   7.869   0.136   3.426
35991SOL     OW 9811   0.199   9.131   9.583
35991SOL    HW1 9812   0.237   9.160   9.666
35991SOL    HW2 9813   0.221   9.038   9.578
35992SOL     OW 9814   0.132   7.356  13.233
35992SOL    HW1 9815   0.112   7.444  13.203
35992SOL    HW2 9816   0.093   7.352  13.321
35993SOL     OW 9817   5.835  13.116   7.989
35993SOL    HW1 9818   5.832  13.131   8.083
35993SOL    HW2 9819   5.888  13.188   7.955
35994SOL     OW 9820   2.891   7.423   3.428
35994SOL    HW1 9821   2.825   7.372   3.476
35994SOL    HW2 9822   2.839   7.487   3.378
35995SOL     OW 9823   3.354  12.876   0.135
35995SOL    HW1 9824   3.397  12.915   0.211
35995SOL    HW2 9825   3.286  12.939   0.111
35996SOL     OW 9826   8.548   9.213  13.348
35996SOL    HW1 9827   8.539   9.118  13.333
35996SOL    HW2 9828   8.475   9.235  13.406
35997SOL     OW 9829   9.793   2.572   3.470
35997SOL    HW1 9830   9.709   2.616   3.480
35997SOL    HW2 9831   9.770   2.482   3.448
35998SOL     OW 9832   9.421   3.239  13.084
35998SOL    HW1 9833   9.396   3.232  12.991
35998SOL    HW2 9834   9.440   3.332  13.096
35999SOL     OW 9835   7.429  11.185   8.544
35999SOL    HW1 9836   7.442  11.139   8.627
35999SOL    HW2 9837   7.369  11.128   8.495
36000SOL     OW 9838   3.434   0.982  13.922
36000SOL    HW1 9839   3.375   1.033  13.866
36000SOL    HW2 9840   3.387   0.972  14.004
36001SOL     OW 9841   9.643   9.360   9.082
36001SOL    HW1 9842   9.592   9.294   9.036
36001SOL    HW2 9843   9.670   9.317   9.164
36002SOL     OW 9844   9.544  13.323   5.034
36002SOL    HW1 9845   9.493  13.247   5.061
36002SOL    HW2 9846   9.635  13.297   5.049
36003SOL     OW 9847  12.782   3.789  12.202
36003SOL    HW1 9848  12.700   3.813  12.247
36003SOL    HW2 9849  12.827   3.733  12.265
36004SOL     OW 9850   7.915  13.601   7.062
36004SOL    HW1 9851   7.821  13.592   7.048
36004SOL    HW2 9852   7.955  13.542   6.999
36005SOL     OW 9853   8.401   0.074  13.173
36005SOL    HW1 9854   8.322   0.023  13.157
36005SOL    HW2 9855   8.473   0.018  13.143
36006SOL     OW 9856  13.772   3.609  13.967
36006SOL    HW1 9857  13.803   3.570  14.049
36006SOL    HW2 9858  13.742   3.696  13.991
36007SOL     OW 9859   4.564   0.732  10.370
36007SOL    HW1 9860   4.470   0.745  10.360
36007SOL    HW2 9861   4.574   0.636  10.374
36008SOL     OW 9862   9.082   5.240   4.479
36008SOL    HW1 9863   9.161   5.209   4.524
36008SOL    HW2 9864   9.082   5.193   4.396
36009SOL     OW 9865  13.668  12.128  13.249
36009SOL    HW1 9866  13.628  12.090  13.170
36009SOL    HW2 9867  13.753  12.160  13.219
36010SOL     OW 9868   6.854   9.656   1.615
36010SOL    HW1 9869   6.772   9.653   1.663
36010SOL    HW2 9870   6.911   9.594   1.660
36011SOL     OW 9871   5.427   3.430   7.348
36011SOL    HW1 9872   5.457   3.383   7.270
36011SOL    HW2 9873   5.332   3.425   7.343
36012SOL     OW 9874  10.129   3.312  14.323
36012SOL    HW1 9875  10.087   3.395  14.348
36012SOL    HW2 9876  10.213   3.313  14.368
36013SOL     OW 9877  10.951  13.271   3.192
36013SOL    HW1 9878  10.959  13.328   3.116
36013SOL    HW2 9879  10.981  13.185   3.161
36014SOL     OW 9880  14.220  14.447   3.751
36014SOL    HW1 9881  14.164  14.445   3.673
36014SOL    HW2 9882  14.265  14.531   3.745
36015SOL     OW 9883  11.573  14.744  13.413
36015SOL    HW1 9884  11.602  14.698  13.333
36015SOL    HW2 9885  11.503  14.688  13.448
36016SOL     OW 9886   7.376  12.688   0.679
36016SOL    HW1 9887   7.394  12.749   0.751
36016SOL    HW2 9888   7.328  12.740   0.615
36017SOL     OW 9889  14.755   7.640   4.025
36017SOL    HW1 9890  14.712   7.557   4.045
36017SOL    HW2 9891  14.803   7.623   3.944
36018SOL     OW 9892   5.739   7.801   1.304
36018SOL    HW1 9893   5.733   7.894   1.284
36018SOL    HW2 9894   5.827   7.776   1.276
36019SOL     OW 9895   8.434  10.764  14.641
36019SOL    HW1 9896   8.353  10.765  14.692
36019SOL    HW2 9897   8.480  10.686  14.671
36020SOL     OW 9898   1.058  11.954   6.476
36020SOL    HW1 9899   1.123  11.923   6.413
36020SOL    HW2 9900   0.987  11.889   6.470
36021SOL     OW 9901   3.879   5.517   0.650
36021SOL    HW1 9902   3.949   5.473   0.602
36021SOL    HW2 9903   3.800   5.468   0.629
36022SOL     OW 9904  13.331  11.678   0.695
36022SOL    HW1 9905  13.241  11.707   0.680
36022SOL    HW2 9906  13.357  11.637   0.613
36023SOL     OW 9907  14.550   7.227  10.905
36023SOL    HW1 9908  14.590   7.293  10.961
36023SOL    HW2 9909  14.535   7.271  10.822
36024SOL     OW 9910   2.519  10.945   9.148
36024SOL    HW1 9911   2.508  11.032   9.187
36024SOL    HW2 9912   2.613  10.936   9.134
36025SOL     OW 9913   3.305   4.564   4.147
36025SOL    HW1 9914   3.396   4.577   4.173
36025SOL    HW2 9915   3.287   4.472   4.165
36026SOL     OW 9916  11.540   9.270   7.558
36026SOL    HW1 9917  11.621   9.317   7.576
36026SOL    HW2 9918  11.557   9.181   7.589
36027SOL     OW 9919  13.530   5.734   2.713
36027SOL    HW1 9920  13.588   5.764   2.642
36027SOL    HW2 9921  13.455   5.696   2.668
36028SOL     OW 9922  11.827   0.420   5.684
36028SOL    HW1 9923  11.858   0.383   5.601
36028SOL    HW2 9924  11.879   0.499   5.697
36029SOL     OW 9925   5.012  11.013   0.523
36029SOL    HW1 9926   5.105  11.002   0.501
36029SOL    HW2 9927   5.007  11.100   0.563
36030SOL     OW 9928   9.391   9.105  12.979
36030SOL    HW1 9929   9.407   9.170  13.047
36030SOL    HW2 9930   9.358   9.028  13.026
36031SOL     OW 9931   4.733   5.527   6.309
36031SOL    HW1 9932   4.710   5.564   6.394
36031SOL    HW2 9933   4.776   5.599   6.262
36032SOL     OW 9934  14.099  11.334   3.760
36032SOL    HW1 9935  14.018  11.379   3.737
36032SOL    HW2 9936  14.128  11.375   3.841
36033SOL     OW 9937   4.977   5.717   4.957
36033SOL    HW1 9938   5.056   5.746   5.003
36033SOL    HW2 9939   4.943   5.646   5.012
36034SOL     OW 9940   9.418  11.101   8.683
36034SOL    HW1 9941   9.356  11.031   8.703
36034SOL    HW2 9942   9.442  11.087   8.591
36035SOL     OW 9943  11.911   8.871  14.669
36035SOL    HW1 9944  11.963   8.903  14.743
36035SOL    HW2 9945  11.976   8.838  14.607
36036SOL     OW 9946   2.786  13.162  11.934
36036SOL    HW1 9947   2.717  13.119  11.985
36036SOL    HW2 9948   2.867  13.119  11.963
36037SOL     OW 9949  14.011   5.069  10.671
36037SOL    HW1 9950  13.977   4.988  10.708
36037SOL    HW2 9951  14.085   5.040  10.616
36038SOL     OW 9952   1.751  11.808   1.016
36038SOL    HW1 9953   1.776  11.758   0.938
36038SOL    HW2 9954   1.693  11.750   1.065
36039SOL     OW 9955  13.946   1.228  11.490
36039SOL    HW1 9956  13.894   1.236  11.410
36039SOL    HW2 9957  13.939   1.313  11.533
36040SOL     OW 9958   1.826   3.539   0.694
36040SOL    HW1 9959   1.801   3.483   0.621
36040SOL    HW2 9960   1.808   3.628   0.664
36041SOL     OW 9961   5.324  11.965   2.261
36041SOL    HW1 9962   5.260  11.907   2.221
36041SOL    HW2 9963   5.275  12.014   2.327
36042SOL     OW 9964   6.605   7.000  10.084
36042SOL    HW1 9965   6.686   7.042  10.112
36042SOL    HW2 9966   6.539   7.030  10.146
36043SOL     OW 9967   4.852   7.416   1.804
36043SOL    HW1 9968   4.766   7.373   1.807
36043SOL    HW2 9969   4.833   7.507   1.784
36044SOL     OW 9970   7.668  11.369   6.539
36044SOL    HW1 9971   7.751  11.411   6.563
36044SOL    HW2 9972   7.643  11.413   6.457
36045SOL     OW 9973  10.857   9.635   2.952
36045SOL    HW1 9974  10.867   9.564   2.889
36045SOL    HW2 9975  10.942   9.639   2.997
36046SOL     OW 9976   3.812  12.042  10.242
36046SOL    HW1 9977   3.896  11.999  10.223
36046SOL    HW2 9978   3.831  12.136  10.236
36047SOL     OW 9979  12.806   9.887   2.982
36047SOL    HW1 9980  12.891   9.875   2.939
36047SOL    HW2 9981  12.786   9.980   2.972
36048SOL     OW 9982   1.633  14.662  10.388
36048SOL    HW1 9983   1.576  14.733  10.417
36048SOL    HW2 9984   1.594  14.583  10.425
36049SOL     OW 9985   5.716  10.802   4.058
36049SOL    HW1 9986   5.707  10.802   3.962
36049SOL    HW2 9987   5.781  10.870   4.076
36050SOL     OW 9988   6.468   5.613   5.941
36050SOL    HW1 9989   6.547   5.658   5.971
36050SOL    HW2 9990   6.403   5.683   5.931
36051SOL     OW 9991  14.775  14.033   5.953
36051SOL    HW1 9992  14.750  14.125   5.953
36051SOL    HW2 9993  14.871  14.034   5.952
36052SOL     OW 9994   6.516  13.903   8.149
36052SOL    HW1 9995   6.452  13.934   8.085
36052SOL    HW2 9996   6.540  13.816   8.119
36053SOL     OW 9997   1.698  10.924   9.789
36053SOL    HW1 9998   1.623  10.867   9.771
36053SOL    HW2 9999   1.769  10.888   9.735
36054SOL     OW10000  10.962   1.182  11.515
36054SOL    HW110001  10.993   1.176  11.424
36054SOL    HW210002  10.878   1.229  11.508
36055SOL     OW10003   0.882   0.179   4.409
36055SOL    HW110004   0.906   0.112   4.345
36055SOL    HW210005   0.792   0.157   4.433
36056SOL     OW10006  10.818   7.685   0.890
36056SOL    HW110007  10.807   7.620   0.959
36056SOL    HW210008  10.729   7.710   0.865
36057SOL     OW10009  13.841  12.912  13.815
36057SOL    HW110010  13.805  12.832  13.852
36057SOL    HW210011  13.765  12.964  13.791
36058SOL     OW10012   3.142   9.414   4.911
36058SOL    HW110013   3.067   9.471   4.926
36058SOL    HW210014   3.180   9.400   4.997
36059SOL     OW10015   0.954   4.323   3.681
36059SOL    HW110016   1.004   4.384   3.627
36059SOL    HW210017   0.873   4.309   3.632
36060SOL     OW10018  13.807   1.395   7.953
36060SOL    HW110019  13.792   1.468   8.013
36060SOL    HW210020  13.719   1.365   7.930
36061SOL     OW10021  11.089   1.158   8.332
36061SOL    HW110022  11.036   1.235   8.353
36061SOL    HW210023  11.047   1.086   8.379
36062SOL     OW10024   6.958   3.047   4.551
36062SOL    HW110025   6.912   3.060   4.468
36062SOL    HW210026   7.021   3.119   4.554
36063SOL     OW10027   2.880   4.435  11.843
36063SOL    HW110028   2.846   4.502  11.903
36063SOL    HW210029   2.974   4.432  11.860
36064SOL     OW10030   5.190  11.614  11.380
36064SOL    HW110031   5.117  11.608  11.318
36064SOL    HW210032   5.258  11.662  11.334
36065SOL     OW10033  11.777  14.080  10.206
36065SOL    HW110034  11.684  14.087  10.184
36065SOL    HW210035  11.822  14.088  10.122
36066SOL     OW10036   9.865   5.633   1.393
36066SOL    HW110037   9.942   5.682   1.365
36066SOL    HW210038   9.801   5.647   1.323
36067SOL     OW10039   9.457   4.739  13.311
36067SOL    HW110040   9.510   4.782  13.378
36067SOL    HW210041   9.473   4.645  13.325
36068SOL     OW10042  10.946   4.873   2.959
36068SOL    HW110043  10.866   4.921   2.980
36068SOL    HW210044  10.915   4.791   2.921
36069SOL     OW10045   6.365   8.024   7.000
36069SOL    HW110046   6.432   7.978   7.051
36069SOL    HW210047   6.414   8.068   6.930
36070SOL     OW10048   1.236   3.251  10.091
36070SOL    HW110049   1.140   3.259  10.090
36070SOL    HW210050   1.255   3.218  10.179
36071SOL     OW10051   0.197   9.981   8.608
36071SOL    HW110052   0.251   9.987   8.686
36071SOL    HW210053   0.160   9.892   8.611
36072SOL     OW10054   8.273   4.682  13.832
36072SOL    HW110055   8.329   4.607  13.852
36072SOL    HW210056   8.330   4.745  13.788
36073SOL     OW10057   8.399   8.404   7.178
36073SOL    HW110058   8.327   8.392   7.117
36073SOL    HW210059   8.417   8.498   7.177
36074SOL     OW10060  14.392   3.196  14.130
36074SOL    HW110061  14.448   3.139  14.182
36074SOL    HW210062  14.318   3.141  14.105
36075SOL     OW10063   7.893  12.961  14.290
36075SOL    HW110064   7.899  13.041  14.239
36075SOL    HW210065   7.971  12.962  14.346
36076SOL     OW10066   7.172  14.320  14.736
36076SOL    HW110067   7.212  14.255  14.679
36076SOL    HW210068   7.100  14.273  14.779
36077SOL     OW10069  11.620  11.593   1.200
36077SOL    HW110070  11.547  11.597   1.139
36077SOL    HW210071  11.603  11.664   1.263
36078SOL     OW10072   3.674  13.083  10.918
36078SOL    HW110073   3.684  13.004  10.971
36078SOL    HW210074   3.668  13.050  10.828
36079SOL     OW10075   0.519  12.095  14.058
36079SOL    HW110076   0.527  12.155  14.132
36079SOL    HW210077   0.485  12.149  13.987
36080SOL     OW10078  13.860   0.966   3.057
36080SOL    HW110079  13.822   1.032   3.116
36080SOL    HW210080  13.848   1.002   2.969
36081SOL     OW10081  11.615  11.663   8.601
36081SOL    HW110082  11.593  11.717   8.676
36081SOL    HW210083  11.649  11.582   8.638
36082SOL     OW10084  14.665  14.144   0.991
36082SOL    HW110085  14.757  14.131   0.970
36082SOL    HW210086  14.619  14.132   0.907
36083SOL     OW10087   7.127  14.479   1.904
36083SOL    HW110088   7.046  14.428   1.904
36083SOL    HW210089   7.194  14.419   1.938
36084SOL     OW10090   6.592  14.328   5.878
36084SOL    HW110091   6.582  14.419   5.909
36084SOL    HW210092   6.684  14.323   5.850
36085SOL     OW10093   7.846   3.571   0.098
36085SOL    HW110094   7.854   3.512   0.173
36085SOL    HW210095   7.896   3.649   0.123
36086SOL     OW10096   6.823  12.639   9.303
36086SOL    HW110097   6.819  12.571   9.370
36086SOL    HW210098   6.908  12.627   9.262
36087SOL     OW10099  13.597   8.020   2.759
36087SOL    HW110100  13.656   8.009   2.684
36087SOL    HW210101  13.512   8.041   2.720
36088SOL     OW10102   5.384   9.356  11.694
36088SOL    HW110103   5.322   9.314  11.634
36088SOL    HW210104   5.444   9.405  11.637
36089SOL     OW10105   2.421  13.575   8.382
36089SOL    HW110106   2.416  13.634   8.457
36089SOL    HW210107   2.390  13.627   8.308
36090SOL     OW10108   0.626   9.389  12.886
36090SOL    HW110109   0.684   9.424  12.953
36090SOL    HW210110   0.570   9.463  12.862
36091SOL     OW10111   5.504  14.445  10.504
36091SOL    HW110112   5.430  14.386  10.488
36091SOL    HW210113   5.524  14.433  10.597
36092SOL     OW10114   6.812  10.054  10.389
36092SOL    HW110115   6.821  10.074  10.296
36092SOL    HW210116   6.728  10.008  10.395
36093SOL     OW10117   2.802  12.701   3.620
36093SOL    HW110118   2.860  12.771   3.648
36093SOL    HW210119   2.714  12.732   3.642
36094SOL     OW10120   2.265   8.467  10.705
36094SOL    HW110121   2.175   8.461  10.735
36094SOL    HW210122   2.301   8.379  10.718
36095SOL     OW10123   6.602   8.830   5.576
36095SOL    HW110124   6.674   8.785   5.532
36095SOL    HW210125   6.632   8.921   5.583
36096SOL     OW10126   0.641  10.754  10.192
36096SOL    HW110127   0.546  10.761  10.198
36096SOL    HW210128   0.659  10.764  10.098
36097SOL     OW10129  11.286  13.855   7.839
36097SOL    HW110130  11.363  13.815   7.800
36097SOL    HW210131  11.220  13.785   7.840
36098SOL     OW10132   3.340   5.888   8.632
36098SOL    HW110133   3.356   5.975   8.594
36098SOL    HW210134   3.281   5.905   8.705
36099SOL     OW10135   1.090   3.837  12.730
36099SOL    HW110136   1.072   3.885  12.810
36099SOL    HW210137   1.082   3.902  12.660
36100SOL     OW10138   1.926  11.898   2.140
36100SOL    HW110139   1.862  11.941   2.197
36100SOL    HW210140   1.900  11.923   2.052
36101SOL     OW10141   9.008   5.201   7.827
36101SOL    HW110142   9.046   5.202   7.915
36101SOL    HW210143   9.079   5.229   7.769
36102SOL     OW10144   5.804   2.883   9.155
36102SOL    HW110145   5.738   2.814   9.151
36102SOL    HW210146   5.753   2.964   9.157
36103SOL     OW10147  10.014   2.476   5.922
36103SOL    HW110148  10.031   2.527   5.842
36103SOL    HW210149  10.042   2.387   5.900
36104SOL     OW10150   2.744   6.546   8.031
36104SOL    HW110151   2.706   6.460   8.043
36104SOL    HW210152   2.696   6.583   7.957
36105SOL     OW10153  11.462   3.464   9.489
36105SOL    HW110154  11.369   3.454   9.470
36105SOL    HW210155  11.506   3.429   9.412
36106SOL     OW10156  14.807   2.905  14.345
36106SOL    HW110157   0.013   2.881  14.392
36106SOL    HW210158  14.819   2.870  14.257
36107SOL     OW10159  10.535   0.324   8.044
36107SOL    HW110160  10.617   0.286   8.014
36107SOL    HW210161  10.559   0.376   8.120
36108SOL     OW10162  13.373  14.496   6.718
36108SOL    HW110163  13.443  14.558   6.700
36108SOL    HW210164  13.319  14.538   6.785
36109SOL     OW10165  11.397   4.723  14.278
36109SOL    HW110166  11.349   4.641  14.287
36109SOL    HW210167  11.453   4.726  14.356
36110SOL     OW10168   8.655  12.088  12.248
36110SOL    HW110169   8.681  12.101  12.156
36110SOL    HW210170   8.588  12.154  12.263
36111SOL     OW10171   8.369  11.262  14.840
36111SOL    HW110172   8.415  11.189  14.799
36111SOL    HW210173   8.343  11.318  14.766
36112SOL     OW10174   0.339  11.303   2.386
36112SOL    HW110175   0.315  11.224   2.435
36112SOL    HW210176   0.267  11.315   2.324
36113SOL     OW10177   2.309  13.745   6.240
36113SOL    HW110178   2.365  13.819   6.263
36113SOL    HW210179   2.228  13.786   6.208
36114SOL     OW10180  11.045   4.313   8.616
36114SOL    HW110181  11.132   4.292   8.649
36114SOL    HW210182  11.048   4.289   8.523
36115SOL     OW10183   2.950   9.054  13.225
36115SOL    HW110184   2.976   9.102  13.146
36115SOL    HW210185   2.877   9.105  13.261
36116SOL     OW10186   8.144  13.526   1.507
36116SOL    HW110187   8.231  13.564   1.496
36116SOL    HW210188   8.126  13.482   1.424
36117SOL     OW10189   6.181   3.590   6.076
36117SOL    HW110190   6.139   3.660   6.125
36117SOL    HW210191   6.236   3.546   6.141
36118SOL     OW10192   8.965  10.659   2.182
36118SOL    HW110193   9.036  10.637   2.122
36118SOL    HW210194   8.891  10.682   2.126
36119SOL     OW10195   9.770   7.947   2.982
36119SOL    HW110196   9.722   7.915   3.058
36119SOL    HW210197   9.804   8.032   3.008
36120SOL     OW10198   2.474   5.090   6.796
36120SOL    HW110199   2.477   5.078   6.891
36120SOL    HW210200   2.468   5.001   6.762
36121SOL     OW10201  10.920   3.420  10.447
36121SOL    HW110202  10.925   3.330  10.414
36121SOL    HW210203  10.839   3.455  10.411
36122SOL     OW10204  10.415  12.796   9.368
36122SOL    HW110205  10.333  12.747   9.372
36122SOL    HW210206  10.465  12.752   9.298
36123SOL     OW10207  11.562   8.963   4.396
36123SOL    HW110208  11.593   9.047   4.363
36123SOL    HW210209  11.513   8.986   4.475
36124SOL     OW10210  13.993   6.453  10.147
36124SOL    HW110211  14.061   6.517  10.127
36124SOL    HW210212  13.985   6.456  10.243
36125SOL     OW10213   6.874   7.497   3.101
36125SOL    HW110214   6.806   7.433   3.124
36125SOL    HW210215   6.923   7.456   3.030
36126SOL     OW10216  10.342  13.757  12.040
36126SOL    HW110217  10.400  13.826  12.071
36126SOL    HW210218  10.368  13.679  12.089
36127SOL     OW10219  10.120   1.581   4.744
36127SOL    HW110220  10.209   1.563   4.712
36127SOL    HW210221  10.134   1.628   4.827
36128SOL     OW10222  12.637   7.416  13.233
36128SOL    HW110223  12.662   7.325  13.215
36128SOL    HW210224  12.714   7.467  13.209
36129SOL     OW10225  14.791   3.594   9.360
36129SOL    HW110226  14.822   3.604   9.270
36129SOL    HW210227  14.866   3.561   9.409
36130SOL     OW10228   7.106   9.467   1.300
36130SOL    HW110229   7.162   9.495   1.228
36130SOL    HW210230   7.154   9.394   1.341
36131SOL     OW10231   3.739   6.545  10.389
36131SOL    HW110232   3.752   6.457  10.354
36131SOL    HW210233   3.819   6.592  10.367
36132SOL     OW10234   7.069   1.331   6.818
36132SOL    HW110235   6.988   1.305   6.774
36132SOL    HW210236   7.044   1.404   6.875
36133SOL     OW10237   5.372   5.441   9.104
36133SOL    HW110238   5.281   5.459   9.084
36133SOL    HW210239   5.401   5.517   9.154
36134SOL     OW10240  10.393  10.856   2.821
36134SOL    HW110241  10.325  10.909   2.780
36134SOL    HW210242  10.344  10.795   2.877
36135SOL     OW10243   5.999   3.247   3.822
36135SOL    HW110244   6.011   3.212   3.734
36135SOL    HW210245   5.926   3.308   3.814
36136SOL     OW10246  13.819   0.154  14.456
36136SOL    HW110247  13.724   0.161  14.464
36136SOL    HW210248  13.836   0.062  14.440
36137SOL     OW10249  14.628   3.057  11.721
36137SOL    HW110250  14.665   3.139  11.754
36137SOL    HW210251  14.597   3.078  11.634
36138SOL     OW10252  10.141   9.531  11.392
36138SOL    HW110253  10.136   9.520  11.297
36138SOL    HW210254  10.055   9.503  11.424
36139SOL     OW10255  14.672  11.700   8.718
36139SOL    HW110256  14.601  11.764   8.725
36139SOL    HW210257  14.666  11.648   8.799
36140SOL     OW10258  11.058  10.931   3.033
36140SOL    HW110259  10.974  10.961   2.998
36140SOL    HW210260  11.089  10.867   2.969
36141SOL     OW10261   9.945   5.586   4.239
36141SOL    HW110262   9.961   5.568   4.331
36141SOL    HW210263   9.862   5.634   4.238
36142SOL     OW10264   6.613   3.770   3.795
36142SOL    HW110265   6.553   3.702   3.763
36142SOL    HW210266   6.612   3.837   3.726
36143SOL     OW10267   2.738  14.298   1.208
36143SOL    HW110268   2.771  14.210   1.189
36143SOL    HW210269   2.689  14.289   1.289
36144SOL     OW10270   9.954   9.938   3.463
36144SOL    HW110271  10.013   9.865   3.443
36144SOL    HW210272   9.983   9.969   3.549
36145SOL     OW10273  13.317   6.288   4.785
36145SOL    HW110274  13.283   6.376   4.770
36145SOL    HW210275  13.350   6.290   4.875
36146SOL     OW10276   7.491  12.929   0.060
36146SOL    HW110277   7.505  12.993   0.130
36146SOL    HW210278   7.578  12.914   0.023
36147SOL     OW10279   5.527   5.284   2.151
36147SOL    HW110280   5.450   5.273   2.095
36147SOL    HW210281   5.552   5.376   2.139
36148SOL     OW10282   1.710  13.771  13.534
36148SOL    HW110283   1.711  13.832  13.608
36148SOL    HW210284   1.656  13.698  13.564
36149SOL     OW10285  11.065   2.170   3.096
36149SOL    HW110286  10.992   2.222   3.131
36149SOL    HW210287  11.023   2.096   3.052
36150SOL     OW10288   1.269   7.646   3.438
36150SOL    HW110289   1.354   7.605   3.450
36150SOL    HW210290   1.262   7.708   3.511
36151SOL     OW10291   9.123   9.921   2.071
36151SOL    HW110292   9.118   9.932   1.976
36151SOL    HW210293   9.211   9.951   2.094
36152SOL     OW10294   0.861   4.445   5.421
36152SOL    HW110295   0.855   4.480   5.510
36152SOL    HW210296   0.909   4.363   5.431
36153SOL     OW10297   8.338  12.889   3.862
36153SOL    HW110298   8.289  12.931   3.792
36153SOL    HW210299   8.315  12.796   3.856
36154SOL     OW10300   6.338  11.253  10.990
36154SOL    HW110301   6.420  11.240  10.942
36154SOL    HW210302   6.340  11.346  11.015
36155SOL     OW10303   3.702   9.040   9.648
36155SOL    HW110304   3.763   9.108   9.677
36155SOL    HW210305   3.757   8.973   9.608
36156SOL     OW10306   9.938  13.674  10.301
36156SOL    HW110307   9.868  13.672  10.236
36156SOL    HW210308  10.016  13.702  10.252
36157SOL     OW10309   2.375  13.285   3.432
36157SOL    HW110310   2.288  13.263   3.399
36157SOL    HW210311   2.391  13.374   3.402
36158SOL     OW10312  13.450   2.975   5.643
36158SOL    HW110313  13.370   3.014   5.679
36158SOL    HW210314  13.458   3.013   5.555
36159SOL     OW10315   3.504  13.821  13.029
36159SOL    HW110316   3.501  13.746  13.088
36159SOL    HW210317   3.413  13.849  13.021
36160SOL     OW10318   8.864  11.721  11.131
36160SOL    HW110319   8.833  11.634  11.153
36160SOL    HW210320   8.960  11.714  11.135
36161SOL     OW10321   3.863   4.585   1.815
36161SOL    HW110322   3.855   4.525   1.740
36161SOL    HW210323   3.908   4.533   1.882
36162SOL     OW10324   7.429   7.107   2.839
36162SOL    HW110325   7.421   7.013   2.855
36162SOL    HW210326   7.485   7.139   2.910
36163SOL     OW10327  12.748  11.169   7.874
36163SOL    HW110328  12.742  11.195   7.966
36163SOL    HW210329  12.693  11.090   7.868
36164SOL     OW10330   8.431   2.716  10.007
36164SOL    HW110331   8.363   2.727   9.940
36164SOL    HW210332   8.398   2.764  10.083
36165SOL     OW10333   8.225   8.425  12.381
36165SOL    HW110334   8.180   8.366  12.322
36165SOL    HW210335   8.180   8.509  12.370
36166SOL     OW10336  12.037   2.086  11.997
36166SOL    HW110337  12.017   2.149  11.927
36166SOL    HW210338  12.132   2.078  11.995
36167SOL     OW10339   7.897   1.246   0.194
36167SOL    HW110340   7.864   1.194   0.121
36167SOL    HW210341   7.866   1.200   0.272
36168SOL     OW10342   0.374  10.331   6.896
36168SOL    HW110343   0.434  10.390   6.850
36168SOL    HW210344   0.359  10.260   6.833
36169SOL     OW10345   6.115   7.095   7.130
36169SOL    HW110346   6.030   7.127   7.098
36169SOL    HW210347   6.092   7.019   7.184
36170SOL     OW10348   1.939   9.935   7.627
36170SOL    HW110349   1.930  10.030   7.632
36170SOL    HW210350   1.887   9.902   7.701
36171SOL     OW10351   9.557   6.463  11.845
36171SOL    HW110352   9.572   6.389  11.903
36171SOL    HW210353   9.484   6.436  11.789
36172SOL     OW10354   9.700  14.018   3.763
36172SOL    HW110355   9.748  13.998   3.683
36172SOL    HW210356   9.752  14.087   3.805
36173SOL     OW10357   6.687  14.787   0.036
36173SOL    HW110358   6.664  14.792  14.816
36173SOL    HW210359   6.679   0.004   0.067
36174SOL     OW10360   6.319   1.105  12.429
36174SOL    HW110361   6.230   1.075  12.410
36174SOL    HW210362   6.375   1.035  12.396
36175SOL     OW10363   0.763   2.688  12.860
36175SOL    HW110364   0.777   2.594  12.874
36175SOL    HW210365   0.677   2.706  12.898
36176SOL     OW10366   7.412  12.583   2.839
36176SOL    HW110367   7.501  12.611   2.863
36176SOL    HW210368   7.357  12.618   2.909
36177SOL     OW10369  13.767   0.526   3.330
36177SOL    HW110370  13.682   0.570   3.321
36177SOL    HW210371  13.827   0.580   3.277
36178SOL     OW10372   8.251  12.810   8.189
36178SOL    HW110373   8.247  12.815   8.094
36178SOL    HW210374   8.309  12.737   8.208
36179SOL     OW10375   5.913   6.590   5.454
36179SOL    HW110376   5.882   6.626   5.537
36179SOL    HW210377   5.844   6.529   5.426
36180SOL     OW10378  13.050  10.057   5.260
36180SOL    HW110379  13.098   9.976   5.245
36180SOL    HW210380  13.020  10.051   5.351
36181SOL     OW10381  14.653   9.009   6.165
36181SOL    HW110382  14.570   9.057   6.162
36181SOL    HW210383  14.690   9.018   6.078
36182SOL     OW10384   8.950  13.155   4.527
36182SOL    HW110385   8.933  13.234   4.577
36182SOL    HW210386   9.019  13.180   4.465
36183SOL     OW10387   2.245  11.678  12.085
36183SOL    HW110388   2.277  11.667  11.996
36183SOL    HW210389   2.231  11.589  12.117
36184SOL     OW10390   2.453  10.821   5.073
36184SOL    HW110391   2.393  10.896   5.076
36184SOL    HW210392   2.459  10.799   4.981
36185SOL     OW10393  11.481  14.069  13.357
36185SOL    HW110394  11.566  14.108  13.372
36185SOL    HW210395  11.421  14.116  13.415
36186SOL     OW10396   2.869   9.950  14.249
36186SOL    HW110397   2.819   9.905  14.181
36186SOL    HW210398   2.958   9.914  14.241
36187SOL     OW10399   1.293   5.195  13.643
36187SOL    HW110400   1.241   5.274  13.656
36187SOL    HW210401   1.365   5.223  13.586
36188SOL     OW10402  10.980   8.389  14.109
36188SOL    HW110403  10.948   8.406  14.020
36188SOL    HW210404  11.027   8.306  14.101
36189SOL     OW10405   6.513  12.231  13.994
36189SOL    HW110406   6.576  12.160  14.005
36189SOL    HW210407   6.523  12.285  14.073
36190SOL     OW10408  13.492  11.407  11.324
36190SOL    HW110409  13.434  11.331  11.327
36190SOL    HW210410  13.578  11.373  11.347
36191SOL     OW10411   9.654   7.646   4.120
36191SOL    HW110412   9.729   7.661   4.063
36191SOL    HW210413   9.662   7.554   4.147
36192SOL     OW10414  12.982  10.980   6.024
36192SOL    HW110415  12.927  10.964   6.100
36192SOL    HW210416  12.922  10.979   5.949
36193SOL     OW10417   8.697   6.833  12.369
36193SOL    HW110418   8.745   6.851  12.450
36193SOL    HW210419   8.605   6.829  12.396
36194SOL     OW10420   7.536   4.418   6.290
36194SOL    HW110421   7.582   4.502   6.285
36194SOL    HW210422   7.597   4.361   6.336
36195SOL     OW10423   4.049   9.177  11.450
36195SOL    HW110424   4.091   9.257  11.481
36195SOL    HW210425   4.004   9.142  11.527
36196SOL     OW10426  10.802   8.940   3.209
36196SOL    HW110427  10.709   8.931   3.191
36196SOL    HW210428  10.832   8.851   3.227
36197SOL     OW10429   8.999   6.237  11.056
36197SOL    HW110430   8.936   6.193  10.999
36197SOL    HW210431   8.976   6.330  11.050
36198SOL     OW10432   5.037  14.596   1.629
36198SOL    HW110433   4.957  14.630   1.588
36198SOL    HW210434   5.108  14.635   1.579
36199SOL     OW10435  10.571  12.663   6.709
36199SOL    HW110436  10.642  12.719   6.677
36199SOL    HW210437  10.605  12.626   6.790
36200SOL     OW10438   6.921   9.785   0.705
36200SOL    HW110439   6.834   9.774   0.666
36200SOL    HW210440   6.982   9.773   0.631
36201SOL     OW10441   0.907   5.885  13.081
36201SOL    HW110442   0.932   5.958  13.138
36201SOL    HW210443   0.866   5.822  13.140
36202SOL     OW10444   1.865   2.117   8.779
36202SOL    HW110445   1.824   2.147   8.698
36202SOL    HW210446   1.845   2.186   8.843
36203SOL     OW10447  11.136   0.075  10.112
36203SOL    HW110448  11.221   0.117  10.126
36203SOL    HW210449  11.095   0.128  10.043
36204SOL     OW10450   6.917  13.056   5.693
36204SOL    HW110451   6.965  13.118   5.747
36204SOL    HW210452   6.947  12.970   5.722
36205SOL     OW10453  12.985   6.300  11.618
36205SOL    HW110454  12.977   6.317  11.712
36205SOL    HW210455  13.070   6.336  11.594
36206SOL     OW10456  12.505   2.595   6.259
36206SOL    HW110457  12.441   2.666   6.249
36206SOL    HW210458  12.473   2.525   6.203
36207SOL     OW10459  10.720   6.869   7.732
36207SOL    HW110460  10.747   6.951   7.775
36207SOL    HW210461  10.638   6.845   7.775
36208SOL     OW10462   4.492   0.628  13.864
36208SOL    HW110463   4.441   0.581  13.798
36208SOL    HW210464   4.429   0.651  13.932
36209SOL     OW10465   2.140   7.185   4.050
36209SOL    HW110466   2.124   7.208   4.142
36209SOL    HW210467   2.058   7.207   4.006
36210SOL     OW10468   6.150   3.107  14.749
36210SOL    HW110469   6.083   3.136  14.811
36210SOL    HW210470   6.109   3.117  14.663
36211SOL     OW10471   7.589   1.672   3.025
36211SOL    HW110472   7.585   1.745   2.963
36211SOL    HW210473   7.598   1.714   3.110
36212SOL     OW10474  11.779   4.194   5.580
36212SOL    HW110475  11.729   4.184   5.661
36212SOL    HW210476  11.870   4.179   5.605
36213SOL     OW10477   3.828  12.825   6.373
36213SOL    HW110478   3.861  12.793   6.288
36213SOL    HW210479   3.817  12.919   6.360
36214SOL     OW10480   4.984   1.643   4.010
36214SOL    HW110481   4.920   1.692   4.061
36214SOL    HW210482   5.060   1.700   4.005
36215SOL     OW10483   3.913   8.196  13.080
36215SOL    HW110484   3.988   8.198  13.140
36215SOL    HW210485   3.837   8.209  13.137
36216SOL     OW10486  12.671   2.499   1.873
36216SOL    HW110487  12.616   2.457   1.939
36216SOL    HW210488  12.713   2.427   1.826
36217SOL     OW10489   3.464   0.667  11.745
36217SOL    HW110490   3.386   0.656  11.690
36217SOL    HW210491   3.507   0.745  11.711
36218SOL     OW10492  10.682  14.565   3.401
36218SOL    HW110493  10.707  14.642   3.452
36218SOL    HW210494  10.698  14.589   3.310
36219SOL     OW10495   4.821   9.830   6.799
36219SOL    HW110496   4.818   9.835   6.894
36219SOL    HW210497   4.749   9.887   6.770
36220SOL     OW10498   3.375   7.688  10.846
36220SOL    HW110499   3.359   7.700  10.940
36220SOL    HW210500   3.400   7.595  10.838
36221SOL     OW10501   6.874   3.010   8.856
36221SOL    HW110502   6.859   3.073   8.927
36221SOL    HW210503   6.791   3.007   8.809
36222SOL     OW10504   1.708   8.675  11.776
36222SOL    HW110505   1.743   8.631  11.698
36222SOL    HW210506   1.776   8.663  11.843
36223SOL     OW10507  14.415   5.837  14.861
36223SOL    HW110508  14.507   5.811  14.862
36223SOL    HW210509  14.417   5.931  14.844
36224SOL     OW10510  13.680  14.408   8.824
36224SOL    HW110511  13.751  14.459   8.864
36224SOL    HW210512  13.712  14.318   8.826
36225SOL     OW10513   1.353   9.377   2.052
36225SOL    HW110514   1.287   9.311   2.075
36225SOL    HW210515   1.315   9.460   2.080
36226SOL     OW10516  11.639   2.485  10.183
36226SOL    HW110517  11.679   2.412  10.136
36226SOL    HW210518  11.577   2.444  10.243
36227SOL     OW10519   3.681   1.458   7.669
36227SOL    HW110520   3.636   1.532   7.709
36227SOL    HW210521   3.627   1.434   7.594
36228SOL     OW10522  14.087   4.721   2.370
36228SOL    HW110523  14.079   4.626   2.369
36228SOL    HW210524  14.032   4.749   2.443
36229SOL     OW10525  14.271   5.946   3.716
36229SOL    HW110526  14.362   5.964   3.739
36229SOL    HW210527  14.253   6.004   3.641
36230SOL     OW10528  12.543   3.302  13.121
36230SOL    HW110529  12.503   3.358  13.186
36230SOL    HW210530  12.566   3.361  13.049
36231SOL     OW10531  10.505  13.091   7.574
36231SOL    HW110532  10.427  13.081   7.630
36231SOL    HW210533  10.489  13.032   7.500
36232SOL     OW10534   8.902  13.060   6.959
36232SOL    HW110535   8.938  12.998   6.895
36232SOL    HW210536   8.932  13.146   6.928
36233SOL     OW10537   5.120   6.808   2.135
36233SOL    HW110538   5.056   6.807   2.064
36233SOL    HW210539   5.093   6.882   2.190
36234SOL     OW10540   7.337  14.283   7.714
36234SOL    HW110541   7.307  14.274   7.804
36234SOL    HW210542   7.371  14.372   7.708
36235SOL     OW10543  11.543  10.213   0.317
36235SOL    HW110544  11.526  10.156   0.392
36235SOL    HW210545  11.616  10.268   0.344
36236SOL     OW10546   3.417   9.791   0.359
36236SOL    HW110547   3.326   9.815   0.340
36236SOL    HW210548   3.433   9.714   0.304
36237SOL     OW10549  11.796  13.246   0.375
36237SOL    HW110550  11.812  13.196   0.295
36237SOL    HW210551  11.870  13.225   0.431
36238SOL     OW10552   4.593  12.985   0.403
36238SOL    HW110553   4.514  13.036   0.420
36238SOL    HW210554   4.664  13.049   0.404
36239SOL     OW10555   2.135  11.226  10.730
36239SOL    HW110556   2.155  11.318  10.743
36239SOL    HW210557   2.151  11.186  10.815
36240SOL     OW10558  12.974   1.099  11.080
36240SOL    HW110559  13.028   1.163  11.034
36240SOL    HW210560  12.980   1.124  11.172
36241SOL     OW10561  14.731   4.556  14.491
36241SOL    HW110562  14.755   4.646  14.514
36241SOL    HW210563  14.796   4.502  14.536
36242SOL     OW10564   1.201  11.286  10.926
36242SOL    HW110565   1.136  11.326  10.984
36242SOL    HW210566   1.175  11.313  10.838
36243SOL     OW10567  11.217   2.488  12.513
36243SOL    HW110568  11.202   2.394  12.498
36243SOL    HW210569  11.179   2.504  12.600
36244SOL     OW10570  11.808   2.015   7.027
36244SOL    HW110571  11.788   1.992   6.937
36244SOL    HW210572  11.723   2.026   7.069
36245SOL     OW10573  13.998   2.607  12.998
36245SOL    HW110574  14.004   2.679  13.060
36245SOL    HW210575  13.916   2.621  12.951
36246SOL     OW10576   1.988  12.898  11.991
36246SOL    HW110577   1.900  12.868  11.969
36246SOL    HW210578   1.982  12.922  12.084
36247SOL     OW10579   8.065   3.008   7.021
36247SOL    HW110580   8.010   2.967   6.955
36247SOL    HW210581   8.144   3.035   6.973
36248SOL     OW10582   0.112   4.621   5.544
36248SOL    HW110583   0.093   4.706   5.583
36248SOL    HW210584   0.056   4.559   5.592
36249SOL     OW10585   2.521   4.045   9.271
36249SOL    HW110586   2.438   4.032   9.316
36249SOL    HW210587   2.581   3.984   9.312
36250SOL     OW10588   5.905   3.955   9.810
36250SOL    HW110589   5.853   4.034   9.799
36250SOL    HW210590   5.881   3.922   9.897
36251SOL     OW10591  12.488  11.542   2.825
36251SOL    HW110592  12.462  11.613   2.883
36251SOL    HW210593  12.574  11.514   2.859
36252SOL     OW10594   4.989  12.438  11.608
36252SOL    HW110595   4.960  12.357  11.651
36252SOL    HW210596   5.084  12.429  11.602
36253SOL     OW10597  11.317  11.157   7.213
36253SOL    HW110598  11.308  11.249   7.186
36253SOL    HW210599  11.227  11.125   7.220
36254SOL     OW10600   9.029   4.929   8.032
36254SOL    HW110601   9.066   4.996   8.089
36254SOL    HW210602   8.935   4.930   8.052
36255SOL     OW10603   3.796   5.102   1.762
36255SOL    HW110604   3.768   5.014   1.740
36255SOL    HW210605   3.886   5.091   1.793
36256SOL     OW10606  14.819   3.674   2.658
36256SOL    HW110607   0.021   3.630   2.698
36256SOL    HW210608  14.801   3.625   2.578
36257SOL     OW10609  14.251   7.990   8.615
36257SOL    HW110610  14.268   7.968   8.707
36257SOL    HW210611  14.216   8.079   8.617
36258SOL     OW10612   0.487   5.403  12.148
36258SOL    HW110613   0.429   5.329  12.132
36258SOL    HW210614   0.478   5.421  12.242
36259SOL     OW10615  13.446  13.653  13.338
36259SOL    HW110616  13.414  13.741  13.359
36259SOL    HW210617  13.405  13.632  13.254
36260SOL     OW10618  13.685   5.224   4.093
36260SOL    HW110619  13.598   5.261   4.076
36260SOL    HW210620  13.736   5.296   4.128
36261SOL     OW10621   0.869   6.537   5.171
36261SOL    HW110622   0.834   6.463   5.121
36261SOL    HW210623   0.932   6.578   5.111
36262SOL     OW10624  13.919   7.632  11.406
36262SOL    HW110625  13.863   7.662  11.477
36262SOL    HW210626  13.982   7.702  11.393
36263SOL     OW10627  14.085   7.340  13.559
36263SOL    HW110628  14.075   7.339  13.654
36263SOL    HW210629  14.034   7.265  13.528
36264SOL     OW10630   4.824   7.555  10.787
36264SOL    HW110631   4.789   7.539  10.875
36264SOL    HW210632   4.900   7.497  10.781
36265SOL     OW10633  11.998  13.573  11.384
36265SOL    HW110634  11.994  13.491  11.433
36265SOL    HW210635  12.092  13.592  11.378
36266SOL     OW10636   6.681  11.103   6.246
36266SOL    HW110637   6.739  11.149   6.307
36266SOL    HW210638   6.605  11.081   6.298
36267SOL     OW10639  10.894  13.750   1.348
36267SOL    HW110640  10.987  13.740   1.369
36267SOL    HW210641  10.848  13.726   1.429
36268SOL     OW10642   2.590   3.349  11.185
36268SOL    HW110643   2.524   3.282  11.202
36268SOL    HW210644   2.671   3.313  11.220
36269SOL     OW10645   0.667   1.528   9.730
36269SOL    HW110646   0.701   1.514   9.642
36269SOL    HW210647   0.589   1.581   9.717
36270SOL     OW10648   6.241  14.198   3.768
36270SOL    HW110649   6.184  14.225   3.696
36270SOL    HW210650   6.187  14.210   3.847
36271SOL     OW10651   3.533   1.771  12.201
36271SOL    HW110652   3.573   1.780  12.115
36271SOL    HW210653   3.439   1.778  12.184
36272SOL     OW10654  13.650   1.192   9.024
36272SOL    HW110655  13.655   1.283   9.051
36272SOL    HW210656  13.578   1.190   8.960
36273SOL     OW10657   0.233  14.402   3.593
36273SOL    HW110658   0.191  14.418   3.509
36273SOL    HW210659   0.293  14.476   3.604
36274SOL     OW10660  14.791   1.919   9.457
36274SOL    HW110661  14.815   1.829   9.478
36274SOL    HW210662  14.700   1.927   9.486
36275SOL     OW10663  12.327  13.737   2.364
36275SOL    HW110664  12.395  13.677   2.391
36275SOL    HW210665  12.370  13.822   2.356
36276SOL     OW10666  14.369   6.522   2.722
36276SOL    HW110667  14.464   6.528   2.722
36276SOL    HW210668  14.348   6.482   2.806
36277SOL     OW10669   8.186   4.812  11.768
36277SOL    HW110670   8.166   4.886  11.711
36277SOL    HW210671   8.209   4.852  11.852
36278SOL     OW10672   0.815   3.864   0.204
36278SOL    HW110673   0.800   3.829   0.291
36278SOL    HW210674   0.791   3.793   0.144
36279SOL     OW10675   1.292   2.427   3.002
36279SOL    HW110676   1.364   2.491   2.994
36279SOL    HW210677   1.228   2.455   2.937
36280SOL     OW10678   2.749   9.979   2.543
36280SOL    HW110679   2.763   9.974   2.637
36280SOL    HW210680   2.799  10.056   2.516
36281SOL     OW10681   2.937  14.507   9.826
36281SOL    HW110682   2.856  14.503   9.775
36281SOL    HW210683   2.940  14.597   9.859
36282SOL     OW10684   7.989  12.609   6.663
36282SOL    HW110685   7.922  12.661   6.620
36282SOL    HW210686   8.066  12.666   6.664
36283SOL     OW10687   2.389   1.937  10.087
36283SOL    HW110688   2.414   1.962  10.176
36283SOL    HW210689   2.472   1.925  10.041
36284SOL     OW10690   7.574   2.974   2.493
36284SOL    HW110691   7.524   2.970   2.574
36284SOL    HW210692   7.576   3.067   2.470
36285SOL     OW10693   7.833  10.869  12.416
36285SOL    HW110694   7.772  10.919  12.471
36285SOL    HW210695   7.892  10.827  12.478
36286SOL     OW10696  13.528  12.640   2.294
36286SOL    HW110697  13.536  12.717   2.237
36286SOL    HW210698  13.509  12.675   2.380
36287SOL     OW10699   2.963   0.776   6.783
36287SOL    HW110700   2.894   0.829   6.743
36287SOL    HW210701   2.988   0.713   6.715
36288SOL     OW10702   9.736  14.568   0.244
36288SOL    HW110703   9.775  14.652   0.223
36288SOL    HW210704   9.683  14.584   0.322
36289SOL     OW10705   5.039   5.714   3.466
36289SOL    HW110706   4.969   5.653   3.490
36289SOL    HW210707   5.001   5.770   3.398
36290SOL     OW10708  10.064  10.535  14.105
36290SOL    HW110709  10.140  10.579  14.142
36290SOL    HW210710  10.032  10.595  14.037
36291SOL     OW10711   9.528   1.052   3.960
36291SOL    HW110712   9.448   1.103   3.952
36291SOL    HW210713   9.501   0.961   3.948
36292SOL     OW10714   2.938   8.224  13.606
36292SOL    HW110715   2.952   8.301  13.551
36292SOL    HW210716   3.011   8.166  13.586
36293SOL     OW10717   4.408   4.204   9.302
36293SOL    HW110718   4.325   4.196   9.255
36293SOL    HW210719   4.470   4.152   9.251
36294SOL     OW10720   7.699  12.184  13.652
36294SOL    HW110721   7.708  12.124  13.725
36294SOL    HW210722   7.748  12.262  13.678
36295SOL     OW10723  10.023  14.839  13.070
36295SOL    HW110724  10.020  14.762  13.013
36295SOL    HW210725  10.025   0.040  13.009
36296SOL     OW10726  14.313  13.108   7.577
36296SOL    HW110727  14.347  13.191   7.544
36296SOL    HW210728  14.391  13.059   7.603
36297SOL     OW10729   7.824   2.368   7.549
36297SOL    HW110730   7.808   2.417   7.629
36297SOL    HW210731   7.741   2.322   7.532
36298SOL     OW10732  14.285  11.236  14.072
36298SOL    HW110733  14.210  11.185  14.043
36298SOL    HW210734  14.258  11.271  14.157
36299SOL     OW10735   5.157   6.723  12.455
36299SOL    HW110736   5.182   6.768  12.374
36299SOL    HW210737   5.190   6.634  12.444
36300SOL     OW10738   3.102   7.778   3.157
36300SOL    HW110739   3.103   7.798   3.063
36300SOL    HW210740   3.067   7.857   3.198
36301SOL     OW10741  13.822   8.165   2.846
36301SOL    HW110742  13.739   8.133   2.809
36301SOL    HW210743  13.819   8.140   2.938
36302SOL     OW10744  14.811   0.578   1.191
36302SOL    HW110745  14.794   0.640   1.262
36302SOL    HW210746  14.824   0.494   1.234
36303SOL     OW10747   1.777   1.282   7.321
36303SOL    HW110748   1.720   1.356   7.340
36303SOL    HW210749   1.761   1.262   7.229
36304SOL     OW10750  13.916   2.331   2.788
36304SOL    HW110751  13.911   2.263   2.854
36304SOL    HW210752  14.004   2.323   2.750
36305SOL     OW10753   7.131  12.041  14.525
36305SOL    HW110754   7.089  12.073  14.445
36305SOL    HW210755   7.222  12.072  14.517
36306SOL     OW10756  14.194   0.062   6.959
36306SOL    HW110757  14.120   0.049   7.019
36306SOL    HW210758  14.268   0.020   7.003
36307SOL     OW10759  10.725  10.637  10.646
36307SOL    HW110760  10.723  10.553  10.692
36307SOL    HW210761  10.634  10.654  10.622
36308SOL     OW10762  12.246  13.437   7.636
36308SOL    HW110763  12.177  13.381   7.601
36308SOL    HW210764  12.328  13.395   7.607
36309SOL     OW10765   4.913  10.546  11.864
36309SOL    HW110766   4.873  10.633  11.854
36309SOL    HW210767   4.943  10.524  11.776
36310SOL     OW10768   9.141   1.278  11.928
36310SOL    HW110769   9.232   1.276  11.957
36310SOL    HW210770   9.097   1.212  11.981
36311SOL     OW10771  11.192  12.084   6.389
36311SOL    HW110772  11.148  12.154   6.437
36311SOL    HW210773  11.176  12.005   6.441
36312SOL     OW10774   0.143   7.710  13.673
36312SOL    HW110775   0.055   7.736  13.701
36312SOL    HW210776   0.192   7.792  13.670
36313SOL     OW10777   5.659   8.568   0.238
36313SOL    HW110778   5.702   8.486   0.264
36313SOL    HW210779   5.679   8.578   0.145
36314SOL     OW10780  14.381   9.545   6.155
36314SOL    HW110781  14.332   9.475   6.112
36314SOL    HW210782  14.316   9.588   6.211
36315SOL     OW10783  13.225   1.258   7.836
36315SOL    HW110784  13.218   1.258   7.740
36315SOL    HW210785  13.263   1.343   7.857
36316SOL     OW10786   0.066   8.359   6.714
36316SOL    HW110787   0.150   8.371   6.759
36316SOL    HW210788   0.015   8.436   6.739
36317SOL     OW10789   7.465   2.968   4.254
36317SOL    HW110790   7.425   3.043   4.296
36317SOL    HW210791   7.558   2.977   4.271
36318SOL     OW10792   1.144   1.935   9.750
36318SOL    HW110793   1.097   1.881   9.687
36318SOL    HW210794   1.230   1.893   9.759
36319SOL     OW10795   9.365   0.627   7.301
36319SOL    HW110796   9.330   0.545   7.337
36319SOL    HW210797   9.350   0.620   7.207
36320SOL     OW10798   4.837   7.452   7.894
36320SOL    HW110799   4.924   7.414   7.896
36320SOL    HW210800   4.809   7.456   7.985
36321SOL     OW10801  10.954   2.640   0.835
36321SOL    HW110802  10.910   2.718   0.869
36321SOL    HW210803  11.048   2.661   0.843
36322SOL     OW10804   6.630   5.739   6.679
36322SOL    HW110805   6.725   5.725   6.674
36322SOL    HW210806   6.603   5.748   6.587
36323SOL     OW10807   7.034  10.538   9.623
36323SOL    HW110808   6.996  10.547   9.710
36323SOL    HW210809   7.053  10.628   9.596
36324SOL     OW10810   9.843   6.443   8.070
36324SOL    HW110811   9.755   6.468   8.098
36324SOL    HW210812   9.900   6.512   8.105
36325SOL     OW10813   7.537  11.015  13.142
36325SOL    HW110814   7.473  11.085  13.132
36325SOL    HW210815   7.503  10.961  13.214
36326SOL     OW10816  13.856  11.363   6.661
36326SOL    HW110817  13.765  11.356   6.631
36326SOL    HW210818  13.854  11.433   6.726
36327SOL     OW10819  12.110   7.643  13.626
36327SOL    HW110820  12.181   7.583  13.606
36327SOL    HW210821  12.034   7.608  13.579
36328SOL     OW10822   6.406   4.599  11.470
36328SOL    HW110823   6.491   4.632  11.441
36328SOL    HW210824   6.421   4.568  11.559
36329SOL     OW10825  14.095   3.519   4.176
36329SOL    HW110826  14.132   3.442   4.219
36329SOL    HW210827  14.000   3.505   4.180
36330SOL     OW10828   9.302   8.329   5.530
36330SOL    HW110829   9.301   8.313   5.624
36330SOL    HW210830   9.374   8.391   5.517
36331SOL     OW10831   2.982   0.862   9.032
36331SOL    HW110832   2.957   0.924   8.963
36331SOL    HW210833   3.073   0.883   9.051
36332SOL     OW10834   8.991   8.217   0.093
36332SOL    HW110835   9.071   8.257   0.129
36332SOL    HW210836   8.999   8.229  14.872
36333SOL     OW10837   0.714   0.109   0.174
36333SOL    HW110838   0.767   0.141   0.100
36333SOL    HW210839   0.646   0.056   0.133
36334SOL     OW10840   4.263   9.728   1.259
36334SOL    HW110841   4.213   9.648   1.239
36334SOL    HW210842   4.347   9.696   1.291
36335SOL     OW10843  14.207   9.256   2.259
36335SOL    HW110844  14.247   9.335   2.223
36335SOL    HW210845  14.225   9.188   2.195
36336SOL     OW10846  13.297  12.614   5.061
36336SOL    HW110847  13.262  12.568   4.984
36336SOL    HW210848  13.358  12.678   5.025
36337SOL     OW10849  10.316   3.458   6.086
36337SOL    HW110850  10.285   3.368   6.085
36337SOL    HW210851  10.278   3.496   6.165
36338SOL     OW10852   1.902  14.741   7.021
36338SOL    HW110853   1.981  14.795   7.016
36338SOL    HW210854   1.930  14.663   7.070
36339SOL     OW10855   3.721  11.897  13.061
36339SOL    HW110856   3.732  11.868  12.971
36339SOL    HW210857   3.806  11.881  13.102
36340SOL     OW10858   9.157   0.490  10.567
36340SOL    HW110859   9.125   0.511  10.654
36340SOL    HW210860   9.143   0.570  10.516
36341SOL     OW10861  13.621  14.366   1.707
36341SOL    HW110862  13.698  14.313   1.686
36341SOL    HW210863  13.620  14.435   1.640
36342SOL     OW10864   4.955   3.911   7.100
36342SOL    HW110865   4.996   3.883   7.018
36342SOL    HW210866   5.015   3.879   7.168
36343SOL     OW10867   4.750  12.358   9.954
36343SOL    HW110868   4.818  12.313  10.005
36343SOL    HW210869   4.791  12.374   9.869
36344SOL     OW10870   2.252   3.416   1.565
36344SOL    HW110871   2.253   3.365   1.646
36344SOL    HW210872   2.319   3.483   1.579
36345SOL     OW10873   3.794  13.777   3.088
36345SOL    HW110874   3.842  13.843   3.038
36345SOL    HW210875   3.720  13.824   3.125
36346SOL     OW10876   1.573  12.191   5.456
36346SOL    HW110877   1.519  12.214   5.531
36346SOL    HW210878   1.537  12.107   5.425
36347SOL     OW10879  13.279   3.607   9.489
36347SOL    HW110880  13.372   3.591   9.504
36347SOL    HW210881  13.273   3.701   9.477
36348SOL     OW10882   1.301  13.955   2.427
36348SOL    HW110883   1.319  13.942   2.521
36348SOL    HW210884   1.241  14.029   2.424
36349SOL     OW10885   4.534   5.907   4.517
36349SOL    HW110886   4.574   5.925   4.602
36349SOL    HW210887   4.555   5.815   4.500
36350SOL     OW10888   7.451   3.218   3.893
36350SOL    HW110889   7.388   3.236   3.824
36350SOL    HW210890   7.528   3.270   3.868
36351SOL     OW10891  12.143  14.009   0.848
36351SOL    HW110892  12.171  13.946   0.781
36351SOL    HW210893  12.054  13.983   0.870
36352SOL     OW10894   8.505   2.466  11.029
36352SOL    HW110895   8.456   2.545  11.053
36352SOL    HW210896   8.480   2.450  10.938
36353SOL     OW10897   8.942   6.388  12.821
36353SOL    HW110898   8.929   6.402  12.727
36353SOL    HW210899   8.895   6.307  12.839
36354SOL     OW10900  13.905   4.598  11.417
36354SOL    HW110901  13.993   4.608  11.455
36354SOL    HW210902  13.850   4.657  11.469
36355SOL     OW10903   1.707   4.480   3.838
36355SOL    HW110904   1.769   4.457   3.907
36355SOL    HW210905   1.749   4.553   3.792
36356SOL     OW10906   8.630  14.022  11.003
36356SOL    HW110907   8.571  14.023  10.928
36356SOL    HW210908   8.578  14.059  11.075
36357SOL     OW10909   4.309   3.223   1.400
36357SOL    HW110910   4.257   3.217   1.480
36357SOL    HW210911   4.253   3.187   1.332
36358SOL     OW10912   2.392   4.968   9.404
36358SOL    HW110913   2.318   4.969   9.464
36358SOL    HW210914   2.387   4.882   9.362
36359SOL     OW10915  13.206   6.022   6.429
36359SOL    HW110916  13.248   6.105   6.404
36359SOL    HW210917  13.189   6.030   6.523
36360SOL     OW10918   5.967   5.332  11.335
36360SOL    HW110919   6.034   5.399  11.321
36360SOL    HW210920   5.932   5.351  11.421
36361SOL     OW10921  11.083   2.295   0.461
36361SOL    HW110922  11.102   2.328   0.373
36361SOL    HW210923  11.029   2.363   0.501
36362SOL     OW10924   9.573   0.508  13.274
36362SOL    HW110925   9.587   0.462  13.357
36362SOL    HW210926   9.618   0.592  13.285
36363SOL     OW10927  12.804   5.234  13.472
36363SOL    HW110928  12.777   5.163  13.413
36363SOL    HW210929  12.779   5.314  13.426
36364SOL     OW10930   9.371   6.827   7.291
36364SOL    HW110931   9.450   6.876   7.315
36364SOL    HW210932   9.302   6.893   7.286
36365SOL     OW10933   1.293  13.153   7.790
36365SOL    HW110934   1.287  13.239   7.748
36365SOL    HW210935   1.338  13.169   7.872
36366SOL     OW10936   4.877  11.009  12.431
36366SOL    HW110937   4.910  11.099  12.434
36366SOL    HW210938   4.951  10.957  12.398
36367SOL     OW10939  11.801   4.624   2.901
36367SOL    HW110940  11.759   4.709   2.916
36367SOL    HW210941  11.818   4.590   2.989
36368SOL     OW10942   2.142   4.399  11.146
36368SOL    HW110943   2.198   4.365  11.216
36368SOL    HW210944   2.079   4.456  11.191
36369SOL     OW10945   3.440   8.084   3.957
36369SOL    HW110946   3.499   8.050   4.025
36369SOL    HW210947   3.361   8.031   3.965
36370SOL     OW10948  10.010   5.232   5.768
36370SOL    HW110949   9.940   5.195   5.821
36370SOL    HW210950  10.070   5.271   5.832
36371SOL     OW10951   8.445  14.595   6.553
36371SOL    HW110952   8.403  14.679   6.531
36371SOL    HW210953   8.508  14.580   6.483
36372SOL     OW10954   6.820   0.338  14.453
36372SOL    HW110955   6.863   0.423  14.450
36372SOL    HW210956   6.728   0.358  14.470
36373SOL     OW10957  12.937   3.877   0.863
36373SOL    HW110958  13.016   3.915   0.901
36373SOL    HW210959  12.904   3.818   0.931
36374SOL     OW10960   9.362  10.987  12.467
36374SOL    HW110961   9.444  11.001  12.515
36374SOL    HW210962   9.380  10.912  12.410
36375SOL     OW10963   1.654   1.006   7.994
36375SOL    HW110964   1.694   0.920   8.005
36375SOL    HW210965   1.561   0.987   7.977
36376SOL     OW10966  14.062   1.599   7.260
36376SOL    HW110967  14.016   1.658   7.201
36376SOL    HW210968  14.128   1.654   7.303
36377SOL     OW10969   4.030   1.552   4.224
36377SOL    HW110970   4.120   1.519   4.227
36377SOL    HW210971   3.999   1.545   4.314
36378SOL     OW10972   9.585  13.747   7.526
36378SOL    HW110973   9.508  13.690   7.521
36378SOL    HW210974   9.659  13.687   7.520
36379SOL     OW10975  10.838  10.719   3.199
36379SOL    HW110976  10.855  10.751   3.110
36379SOL    HW210977  10.766  10.657   3.189
36380SOL     OW10978  10.261   5.686  14.753
36380SOL    HW110979  10.340   5.659  14.707
36380SOL    HW210980  10.246   5.777  14.724
36381SOL     OW10981  14.651   8.923  14.254
36381SOL    HW110982  14.584   8.860  14.279
36381SOL    HW210983  14.667   8.975  14.333
36382SOL     OW10984   1.074   2.889  12.648
36382SOL    HW110985   1.005   2.877  12.582
36382SOL    HW210986   1.113   2.973  12.625
36383SOL     OW10987   8.808   4.223  13.772
36383SOL    HW110988   8.735   4.170  13.740
36383SOL    HW210989   8.770   4.310  13.787
36384SOL     OW10990   4.753  11.375   7.818
36384SOL    HW110991   4.822  11.310   7.833
36384SOL    HW210992   4.800  11.454   7.793
36385SOL     OW10993   0.675   8.305  14.367
36385SOL    HW110994   0.587   8.343  14.371
36385SOL    HW210995   0.667   8.222  14.414
36386SOL     OW10996  14.350   1.505   7.765
36386SOL    HW110997  14.351   1.465   7.852
36386SOL    HW210998  14.347   1.599   7.783
36387SOL     OW10999   0.870   9.862  14.615
36387SOL    HW111000   0.941   9.884  14.556
36387SOL    HW211001   0.793   9.854  14.559
36388SOL     OW11002  12.170  13.058   1.976
36388SOL    HW111003  12.109  12.984   1.975
36388SOL    HW211004  12.250  13.023   2.016
36389SOL     OW11005   1.324   8.874   9.051
36389SOL    HW111006   1.352   8.921   8.972
36389SOL    HW211007   1.395   8.812   9.067
36390SOL     OW11008  11.810  13.082  14.442
36390SOL    HW111009  11.855  13.131  14.373
36390SOL    HW211010  11.751  13.023  14.395
36391SOL     OW11011   5.424  11.958  11.665
36391SOL    HW111012   5.444  11.939  11.757
36391SOL    HW211013   5.330  11.939  11.657
36392SOL     OW11014  11.836   3.770   9.163
36392SOL    HW111015  11.923   3.794   9.194
36392SOL    HW211016  11.822   3.825   9.086
36393SOL     OW11017   0.865   2.862  14.776
36393SOL    HW111018   0.787   2.807  14.775
36393SOL    HW211019   0.922   2.822  14.840
36394SOL     OW11020   4.920   5.263   6.566
36394SOL    HW111021   4.982   5.196   6.596
36394SOL    HW211022   4.964   5.346   6.583
36395SOL     OW11023   9.015   8.251  10.669
36395SOL    HW111024   9.006   8.324  10.731
36395SOL    HW211025   8.958   8.275  10.596
36396SOL     OW11026   6.013   8.851   0.864
36396SOL    HW111027   5.982   8.920   0.924
36396SOL    HW211028   5.946   8.847   0.796
36397SOL     OW11029   8.537   6.567   5.879
36397SOL    HW111030   8.465   6.618   5.916
36397SOL    HW211031   8.497   6.519   5.806
36398SOL     OW11032  13.116   0.317   8.003
36398SOL    HW111033  13.036   0.282   7.964
36398SOL    HW211034  13.101   0.313   8.097
36399SOL     OW11035  11.539   9.849   0.739
36399SOL    HW111036  11.570   9.885   0.823
36399SOL    HW211037  11.475   9.782   0.765
36400SOL     OW11038   6.014   0.524   0.619
36400SOL    HW111039   5.992   0.431   0.619
36400SOL    HW211040   6.096   0.529   0.668
36401SOL     OW11041   1.116  13.577   6.163
36401SOL    HW111042   1.135  13.656   6.113
36401SOL    HW211043   1.178  13.579   6.236
36402SOL     OW11044   5.449  11.768   2.473
36402SOL    HW111045   5.358  11.749   2.492
36402SOL    HW211046   5.451  11.789   2.379
36403SOL     OW11047   2.905   7.169  10.703
36403SOL    HW111048   2.879   7.142  10.614
36403SOL    HW211049   2.841   7.236  10.727
36404SOL     OW11050   6.382  10.895   8.950
36404SOL    HW111051   6.437  10.844   8.891
36404SOL    HW211052   6.387  10.849   9.034
36405SOL     OW11053   7.836   7.939  12.696
36405SOL    HW111054   7.813   7.862  12.748
36405SOL    HW211055   7.896   7.905  12.628
36406SOL     OW11056   9.915  10.297   3.271
36406SOL    HW111057   9.876  10.225   3.221
36406SOL    HW211058   9.850  10.319   3.337
36407SOL     OW11059   1.044   5.273  10.440
36407SOL    HW111060   1.086   5.251  10.357
36407SOL    HW211061   1.007   5.360  10.425
36408SOL     OW11062   2.494  10.434  13.651
36408SOL    HW111063   2.473  10.459  13.561
36408SOL    HW211064   2.462  10.507  13.704
36409SOL     OW11065   3.938  13.955   4.637
36409SOL    HW111066   4.008  14.013   4.667
36409SOL    HW211067   3.872  13.960   4.706
36410SOL     OW11068   5.098   9.367  13.817
36410SOL    HW111069   5.187   9.352  13.785
36410SOL    HW211070   5.049   9.290  13.789
36411SOL     OW11071  13.465  12.209   2.036
36411SOL    HW111072  13.427  12.297   2.031
36411SOL    HW211073  13.540  12.220   2.095
36412SOL     OW11074  12.880  13.649   5.626
36412SOL    HW111075  12.974  13.635   5.637
36412SOL    HW211076  12.858  13.713   5.693
36413SOL     OW11077  10.993   4.094  10.386
36413SOL    HW111078  10.897   4.092  10.388
36413SOL    HW211079  11.019   4.026  10.448
36414SOL     OW11080   1.343   6.846   7.443
36414SOL    HW111081   1.366   6.914   7.379
36414SOL    HW211082   1.259   6.813   7.412
36415SOL     OW11083   6.542  13.139   0.638
36415SOL    HW111084   6.629  13.108   0.664
36415SOL    HW211085   6.496  13.060   0.609
36416SOL     OW11086   8.825  11.371   9.486
36416SOL    HW111087   8.872  11.402   9.563
36416SOL    HW211088   8.802  11.281   9.506
36417SOL     OW11089   7.791   6.135   6.478
36417SOL    HW111090   7.732   6.153   6.552
36417SOL    HW211091   7.744   6.168   6.401
36418SOL     OW11092  12.187   3.596  11.429
36418SOL    HW111093  12.161   3.682  11.463
36418SOL    HW211094  12.170   3.601  11.335
36419SOL     OW11095   6.065   7.410   5.027
36419SOL    HW111096   6.088   7.416   5.120
36419SOL    HW211097   6.093   7.322   5.001
36420SOL     OW11098   6.035   5.981  13.924
36420SOL    HW111099   6.115   5.929  13.914
36420SOL    HW211100   6.058   6.049  13.988
36421SOL     OW11101   2.561   4.010   4.351
36421SOL    HW111102   2.561   3.941   4.284
36421SOL    HW211103   2.472   4.007   4.388
36422SOL     OW11104   1.675  12.388   5.304
36422SOL    HW111105   1.688  12.457   5.369
36422SOL    HW211106   1.677  12.307   5.355
36423SOL     OW11107  10.182   2.027  14.628
36423SOL    HW111108  10.168   1.947  14.679
36423SOL    HW211109  10.095   2.064  14.619
36424SOL     OW11110   9.130  12.953  10.577
36424SOL    HW111111   9.078  13.005  10.639
36424SOL    HW211112   9.074  12.878  10.557
36425SOL     OW11113  14.652  13.738  14.605
36425SOL    HW111114  14.591  13.743  14.678
36425SOL    HW211115  14.731  13.783  14.636
36426SOL     OW11116   4.848  10.525   7.797
36426SOL    HW111117   4.815  10.592   7.857
36426SOL    HW211118   4.812  10.443   7.830
36427SOL     OW11119   2.283   7.763  12.060
36427SOL    HW111120   2.298   7.842  12.007
36427SOL    HW211121   2.245   7.700  11.998
36428SOL     OW11122  11.383  12.087   1.180
36428SOL    HW111123  11.346  12.172   1.205
36428SOL    HW211124  11.408  12.047   1.264
36429SOL     OW11125  14.274   3.639  12.552
36429SOL    HW111126  14.196   3.636  12.496
36429SOL    HW211127  14.240   3.655  12.640
36430SOL     OW11128  11.504   9.626  12.198
36430SOL    HW111129  11.583   9.661  12.239
36430SOL    HW211130  11.438   9.630  12.267
36431SOL     OW11131   4.347   6.478   9.974
36431SOL    HW111132   4.302   6.490   9.890
36431SOL    HW211133   4.412   6.549   9.976
36432SOL     OW11134   3.847  10.638   5.113
36432SOL    HW111135   3.882  10.550   5.126
36432SOL    HW211136   3.886  10.690   5.183
36433SOL     OW11137   1.396   8.693   3.094
36433SOL    HW111138   1.484   8.661   3.111
36433SOL    HW211139   1.373   8.659   3.008
36434SOL     OW11140  14.003  10.293  13.674
36434SOL    HW111141  13.937  10.251  13.617
36434SOL    HW211142  14.064  10.334  13.613
36435SOL     OW11143   4.087  14.010   6.961
36435SOL    HW111144   4.113  14.095   6.926
36435SOL    HW211145   4.002  13.992   6.922
36436SOL     OW11146   8.978  10.075  13.485
36436SOL    HW111147   8.924  10.053  13.409
36436SOL    HW211148   8.988   9.992  13.532
36437SOL     OW11149   5.801   9.468   2.486
36437SOL    HW111150   5.709   9.470   2.512
36437SOL    HW211151   5.814   9.380   2.450
36438SOL     OW11152   4.894   5.924  10.059
36438SOL    HW111153   4.817   5.972  10.091
36438SOL    HW211154   4.859   5.838  10.033
36439SOL     OW11155   2.978   7.963  12.147
36439SOL    HW111156   2.912   7.951  12.079
36439SOL    HW211157   2.931   8.006  12.219
36440SOL     OW11158   1.573   8.272  12.310
36440SOL    HW111159   1.519   8.255  12.234
36440SOL    HW211160   1.517   8.324  12.368
36441SOL     OW11161   5.777   5.820   9.528
36441SOL    HW111162   5.714   5.887   9.555
36441SOL    HW211163   5.835   5.811   9.603
36442SOL     OW11164   9.749   0.061   7.374
36442SOL    HW111165   9.805  14.862   7.404
36442SOL    HW211166   9.785   0.138   7.418
36443SOL     OW11167   7.517  12.526   1.137
36443SOL    HW111168   7.425  12.528   1.110
36443SOL    HW211169   7.521  12.455   1.202
36444SOL     OW11170  12.122  11.316   9.259
36444SOL    HW111171  12.120  11.411   9.248
36444SOL    HW211172  12.121  11.302   9.354
36445SOL     OW11173   3.106   7.659   7.822
36445SOL    HW111174   3.027   7.609   7.840
36445SOL    HW211175   3.091   7.698   7.736
36446SOL     OW11176  13.065  10.442   9.208
36446SOL    HW111177  13.097  10.532   9.206
36446SOL    HW211178  12.979  10.448   9.251
36447SOL     OW11179   5.766  14.791   9.190
36447SOL    HW111180   5.854  14.758   9.209
36447SOL    HW211181   5.733  14.734   9.121
36448SOL     OW11182   2.495   7.077   7.786
36448SOL    HW111183   2.409   7.036   7.776
36448SOL    HW211184   2.492   7.153   7.727
36449SOL     OW11185  12.043  11.817   8.456
36449SOL    HW111186  12.048  11.760   8.533
36449SOL    HW211187  11.950  11.822   8.435
36450SOL     OW11188  14.082  12.096   0.854
36450SOL    HW111189  14.150  12.108   0.787
36450SOL    HW211190  14.114  12.022   0.907
36451SOL     OW11191   4.224   7.553   1.482
36451SOL    HW111192   4.244   7.462   1.500
36451SOL    HW211193   4.230   7.596   1.568
36452SOL     OW11194  14.420   9.446   5.424
36452SOL    HW111195  14.399   9.399   5.343
36452SOL    HW211196  14.487   9.392   5.467
36453SOL     OW11197  11.201   1.428  10.933
36453SOL    HW111198  11.253   1.436  11.013
36453SOL    HW211199  11.135   1.497  10.941
36454SOL     OW11200  10.509   3.757  13.098
36454SOL    HW111201  10.419   3.785  13.114
36454SOL    HW211202  10.506   3.662  13.109
36455SOL     OW11203  11.299  14.477   0.920
36455SOL    HW111204  11.312  14.565   0.956
36455SOL    HW211205  11.368  14.424   0.958
36456SOL     OW11206   6.949  11.752   5.640
36456SOL    HW111207   6.965  11.770   5.548
36456SOL    HW211208   6.856  11.730   5.644
36457SOL     OW11209   2.161   1.297   2.726
36457SOL    HW111210   2.096   1.308   2.657
36457SOL    HW211211   2.232   1.357   2.701
36458SOL     OW11212   3.242  13.438   0.063
36458SOL    HW111213   3.152  13.470   0.061
36458SOL    HW211214   3.282  13.483   0.138
36459SOL     OW11215  12.451   7.971   8.436
36459SOL    HW111216  12.405   8.042   8.391
36459SOL    HW211217  12.396   7.894   8.422
36460SOL     OW11218   8.988  10.537  11.161
36460SOL    HW111219   8.945  10.452  11.156
36460SOL    HW211220   8.928  10.596  11.115
36461SOL     OW11221   3.799  13.478   3.416
36461SOL    HW111222   3.715  13.471   3.372
36461SOL    HW211223   3.802  13.403   3.475
36462SOL     OW11224  13.457   6.332   2.041
36462SOL    HW111225  13.377   6.353   2.089
36462SOL    HW211226  13.435   6.254   1.991
36463SOL     OW11227  11.933   7.587   0.707
36463SOL    HW111228  11.986   7.634   0.642
36463SOL    HW211229  11.919   7.650   0.777
36464SOL     OW11230  10.880   2.928   8.076
36464SOL    HW111231  10.830   2.848   8.061
36464SOL    HW211232  10.877   2.974   7.992
36465SOL     OW11233   0.812  13.580   2.613
36465SOL    HW111234   0.729  13.548   2.577
36465SOL    HW211235   0.868  13.592   2.536
36466SOL     OW11236   8.254   7.221  12.463
36466SOL    HW111237   8.207   7.137  12.459
36466SOL    HW211238   8.188   7.284  12.490
36467SOL     OW11239  12.048   4.176  12.555
36467SOL    HW111240  12.059   4.143  12.644
36467SOL    HW211241  12.130   4.155  12.512
36468SOL     OW11242  11.126   4.592   1.876
36468SOL    HW111243  11.205   4.542   1.855
36468SOL    HW211244  11.100   4.561   1.962
36469SOL     OW11245   3.558   8.905  11.183
36469SOL    HW111246   3.570   8.847  11.257
36469SOL    HW211247   3.467   8.932  11.187
36470SOL     OW11248   1.249   1.842  10.719
36470SOL    HW111249   1.248   1.803  10.807
36470SOL    HW211250   1.198   1.781  10.666
36471SOL     OW11251   7.661  11.804  14.420
36471SOL    HW111252   7.718  11.821  14.495
36471SOL    HW211253   7.721  11.787  14.348
36472SOL     OW11254   2.060   6.292   7.844
36472SOL    HW111255   2.020   6.377   7.828
36472SOL    HW211256   1.993   6.242   7.892
36473SOL     OW11257  12.131   4.961  13.777
36473SOL    HW111258  12.120   4.877  13.733
36473SOL    HW211259  12.203   4.947  13.839
36474SOL     OW11260  10.037  12.156   3.351
36474SOL    HW111261   9.968  12.179   3.413
36474SOL    HW211262   9.991  12.147   3.267
36475SOL     OW11263  11.831  12.618  11.077
36475SOL    HW111264  11.877  12.534  11.085
36475SOL    HW211265  11.764  12.602  11.011
36476SOL     OW11266   0.179   5.598   3.552
36476SOL    HW111267   0.266   5.590   3.513
36476SOL    HW211268   0.191   5.568   3.642
36477SOL     OW11269  11.077  12.729   5.073
36477SOL    HW111270  11.027  12.777   5.007
36477SOL    HW211271  11.036  12.752   5.156
36478SOL     OW11272  14.353  13.931   8.600
36478SOL    HW111273  14.278  13.917   8.542
36478SOL    HW211274  14.429  13.911   8.545
36479SOL     OW11275  10.744   3.681   1.712
36479SOL    HW111276  10.658   3.641   1.699
36479SOL    HW211277  10.788   3.673   1.627
36480SOL     OW11278  10.318  12.649   1.653
36480SOL    HW111279  10.358  12.717   1.598
36480SOL    HW211280  10.226  12.673   1.656
36481SOL     OW11281  12.842  11.858   3.537
36481SOL    HW111282  12.911  11.876   3.474
36481SOL    HW211283  12.874  11.894   3.620
36482SOL     OW11284  11.822  13.209  12.192
36482SOL    HW111285  11.910  13.175  12.204
36482SOL    HW211286  11.772  13.135  12.158
36483SOL     OW11287   9.774  10.683  11.145
36483SOL    HW111288   9.727  10.659  11.225
36483SOL    HW211289   9.805  10.599  11.110
36484SOL     OW11290   7.859   2.402  11.274
36484SOL    HW111291   7.943   2.365  11.301
36484SOL    HW211292   7.865   2.495  11.299
36485SOL     OW11293  13.468   4.595   0.389
36485SOL    HW111294  13.432   4.544   0.316
36485SOL    HW211295  13.411   4.574   0.463
36486SOL     OW11296   6.424  13.689  11.896
36486SOL    HW111297   6.397  13.745  11.969
36486SOL    HW211298   6.517  13.709  11.884
36487SOL     OW11299   4.243  10.903   3.887
36487SOL    HW111300   4.287  10.945   3.814
36487SOL    HW211301   4.172  10.852   3.848
36488SOL     OW11302   5.015   9.435  12.579
36488SOL    HW111303   5.089   9.375  12.584
36488SOL    HW211304   4.938   9.379  12.587
36489SOL     OW11305   0.178   5.935   1.960
36489SOL    HW111306   0.127   6.008   1.927
36489SOL    HW211307   0.208   5.963   2.047
36490SOL     OW11308   2.269   9.547   2.471
36490SOL    HW111309   2.273   9.565   2.565
36490SOL    HW211310   2.343   9.596   2.435
36491SOL     OW11311   2.591  10.467  10.285
36491SOL    HW111312   2.526  10.485  10.353
36491SOL    HW211313   2.540  10.426  10.215
36492SOL     OW11314   0.414  13.361   8.743
36492SOL    HW111315   0.417  13.313   8.661
36492SOL    HW211316   0.322  13.380   8.756
36493SOL     OW11317  10.497  11.678  11.987
36493SOL    HW111318  10.559  11.729  11.934
36493SOL    HW211319  10.470  11.739  12.056
36494SOL     OW11320   5.847   1.389   6.989
36494SOL    HW111321   5.764   1.411   6.946
36494SOL    HW211322   5.822   1.343   7.068
36495SOL     OW11323   0.578   7.309   0.734
36495SOL    HW111324   0.558   7.393   0.775
36495SOL    HW211325   0.495   7.262   0.733
36496SOL     OW11326  10.599   9.977  10.421
36496SOL    HW111327  10.630   9.985  10.511
36496SOL    HW211328  10.533   9.908  10.425
36497SOL     OW11329  14.416   8.215   3.756
36497SOL    HW111330  14.353   8.253   3.818
36497SOL    HW211331  14.419   8.278   3.684
36498SOL     OW11332  10.079   5.387  11.130
36498SOL    HW111333  10.005   5.447  11.125
36498SOL    HW211334  10.154   5.443  11.150
36499SOL     OW11335   7.443   0.258   5.184
36499SOL    HW111336   7.436   0.163   5.172
36499SOL    HW211337   7.437   0.294   5.096
36500SOL     OW11338  13.608   4.551   2.782
36500SOL    HW111339  13.532   4.603   2.807
36500SOL    HW211340  13.626   4.496   2.859
36501SOL     OW11341   1.322   5.675   1.974
36501SOL    HW111342   1.407   5.716   1.993
36501SOL    HW211343   1.341   5.613   1.904
36502SOL     OW11344  13.796   2.682   8.948
36502SOL    HW111345  13.862   2.751   8.959
36502SOL    HW211346  13.748   2.707   8.869
36503SOL     OW11347   3.905   2.584   0.136
36503SOL    HW111348   3.966   2.649   0.169
36503SOL    HW211349   3.844   2.569   0.208
36504SOL     OW11350  14.829   6.490   9.657
36504SOL    HW111351   0.002   6.406   9.644
36504SOL    HW211352  14.746   6.479   9.611
36505SOL     OW11353  11.628   2.089  12.269
36505SOL    HW111354  11.567   2.148  12.224
36505SOL    HW211355  11.670   2.144  12.335
36506SOL     OW11356   7.151   7.004   5.749
36506SOL    HW111357   7.063   6.983   5.719
36506SOL    HW211358   7.181   7.073   5.689
36507SOL     OW11359   8.003   3.711   5.562
36507SOL    HW111360   8.060   3.708   5.486
36507SOL    HW211361   7.919   3.679   5.530
36508SOL     OW11362   2.517   4.801   9.653
36508SOL    HW111363   2.571   4.773   9.727
36508SOL    HW211364   2.430   4.815   9.691
36509SOL     OW11365   7.261   4.760  14.746
36509SOL    HW111366   7.176   4.721  14.766
36509SOL    HW211367   7.324   4.693  14.771
36510SOL     OW11368   3.818   9.500  11.995
36510SOL    HW111369   3.778   9.508  12.082
36510SOL    HW211370   3.745   9.484  11.936
36511SOL     OW11371  11.474   7.110   7.365
36511SOL    HW111372  11.389   7.069   7.351
36511SOL    HW211373  11.538   7.045   7.337
36512SOL     OW11374   3.040   7.808   0.409
36512SOL    HW111375   3.010   7.886   0.363
36512SOL    HW211376   2.960   7.761   0.432
36513SOL     OW11377   0.156  12.579  13.099
36513SOL    HW111378   0.078  12.627  13.127
36513SOL    HW211379   0.218  12.648  13.074
36514SOL     OW11380   5.010  13.267  14.429
36514SOL    HW111381   4.993  13.237  14.339
36514SOL    HW211382   5.105  13.263  14.437
36515SOL     OW11383   3.618   1.602   2.420
36515SOL    HW111384   3.636   1.673   2.480
36515SOL    HW211385   3.642   1.523   2.468
36516SOL     OW11386   8.571  11.444  11.934
36516SOL    HW111387   8.542  11.530  11.965
36516SOL    HW211388   8.667  11.451  11.931
36517SOL     OW11389   2.699   6.311   1.362
36517SOL    HW111390   2.672   6.389   1.313
36517SOL    HW211391   2.675   6.237   1.305
36518SOL     OW11392   9.694  13.918   5.512
36518SOL    HW111393   9.649  13.999   5.486
36518SOL    HW211394   9.700  13.868   5.431
36519SOL     OW11395   3.382  14.577   4.775
36519SOL    HW111396   3.444  14.608   4.710
36519SOL    HW211397   3.298  14.613   4.748
36520SOL     OW11398   1.798  12.339   0.409
36520SOL    HW111399   1.872  12.281   0.428
36520SOL    HW211400   1.830  12.397   0.340
36521SOL     OW11401   1.335   3.604  11.426
36521SOL    HW111402   1.372   3.648  11.502
36521SOL    HW211403   1.399   3.618  11.356
36522SOL     OW11404   7.078  14.142   1.728
36522SOL    HW111405   7.098  14.053   1.698
36522SOL    HW211406   7.048  14.188   1.649
36523SOL     OW11407   1.072   2.709   1.314
36523SOL    HW111408   0.997   2.755   1.353
36523SOL    HW211409   1.040   2.681   1.228
36524SOL     OW11410   5.670   8.774   0.469
36524SOL    HW111411   5.670   8.850   0.411
36524SOL    HW211412   5.636   8.703   0.415
36525SOL     OW11413   0.725   5.671   5.838
36525SOL    HW111414   0.672   5.728   5.781
36525SOL    HW211415   0.790   5.729   5.877
36526SOL     OW11416   7.583   9.485   6.495
36526SOL    HW111417   7.631   9.552   6.447
36526SOL    HW211418   7.553   9.530   6.575
36527SOL     OW11419   1.379   3.087  11.835
36527SOL    HW111420   1.316   3.015  11.839
36527SOL    HW211421   1.328   3.161  11.802
36528SOL     OW11422  13.880   1.320  12.776
36528SOL    HW111423  13.831   1.245  12.742
36528SOL    HW211424  13.971   1.292  12.776
36529SOL     OW11425   9.993  12.776   8.518
36529SOL    HW111426  10.054  12.745   8.451
36529SOL    HW211427   9.944  12.698   8.544
36530SOL     OW11428   0.840   4.931   5.313
36530SOL    HW111429   0.777   4.860   5.307
36530SOL    HW211430   0.786   5.010   5.314
36531SOL     OW11431  12.575  11.071   7.445
36531SOL    HW111432  12.604  10.999   7.502
36531SOL    HW211433  12.607  11.046   7.358
36532SOL     OW11434  12.213   6.009   6.845
36532SOL    HW111435  12.232   6.071   6.916
36532SOL    HW211436  12.291   6.010   6.791
36533SOL     OW11437   2.149   0.035   2.309
36533SOL    HW111438   2.127   0.098   2.378
36533SOL    HW211439   2.065   0.001   2.279
36534SOL     OW11440   5.435   6.595  13.092
36534SOL    HW111441   5.508   6.534  13.078
36534SOL    HW211442   5.456   6.639  13.174
36535SOL     OW11443   4.203   7.042  12.722
36535SOL    HW111444   4.247   6.987  12.658
36535SOL    HW211445   4.208   6.993  12.804
36536SOL     OW11446   5.407  10.974   0.660
36536SOL    HW111447   5.378  10.890   0.694
36536SOL    HW211448   5.379  11.037   0.726
36537SOL     OW11449  11.689   2.161   4.037
36537SOL    HW111450  11.775   2.149   4.077
36537SOL    HW211451  11.666   2.252   4.057
36538SOL     OW11452   3.068   1.406  11.293
36538SOL    HW111453   2.997   1.393  11.231
36538SOL    HW211454   3.027   1.398  11.379
36539SOL     OW11455  11.016   1.720   6.224
36539SOL    HW111456  11.111   1.720   6.235
36539SOL    HW211457  10.998   1.796   6.169
36540SOL     OW11458   2.056   3.002  10.035
36540SOL    HW111459   2.079   3.061   9.963
36540SOL    HW211460   2.098   3.041  10.112
36541SOL     OW11461   4.526   9.489   9.222
36541SOL    HW111462   4.481   9.404   9.219
36541SOL    HW211463   4.610   9.473   9.181
36542SOL     OW11464   3.044   0.027  11.872
36542SOL    HW111465   2.957  14.866  11.850
36542SOL    HW211466   3.100  14.868  11.801
36543SOL     OW11467   9.155   4.705   0.514
36543SOL    HW111468   9.146   4.632   0.453
36543SOL    HW211469   9.224   4.678   0.574
36544SOL     OW11470   4.009  13.170   3.817
36544SOL    HW111471   4.088  13.132   3.780
36544SOL    HW211472   3.938  13.126   3.770
36545SOL     OW11473  12.682   7.789   4.424
36545SOL    HW111474  12.777   7.785   4.437
36545SOL    HW211475  12.648   7.714   4.473
36546SOL     OW11476   7.286   5.700   1.909
36546SOL    HW111477   7.323   5.779   1.872
36546SOL    HW211478   7.246   5.728   1.991
36547SOL     OW11479   8.044   5.298   9.393
36547SOL    HW111480   8.110   5.242   9.433
36547SOL    HW211481   8.016   5.356   9.464
36548SOL     OW11482   7.078  13.655   9.243
36548SOL    HW111483   7.153  13.711   9.260
36548SOL    HW211484   7.011  13.682   9.306
36549SOL     OW11485   5.836  12.070   2.967
36549SOL    HW111486   5.835  12.125   2.888
36549SOL    HW211487   5.771  12.003   2.950
36550SOL     OW11488   2.071   9.739  11.452
36550SOL    HW111489   2.130   9.744  11.528
36550SOL    HW211490   2.054   9.645  11.442
36551SOL     OW11491   8.326   0.384   5.859
36551SOL    HW111492   8.298   0.309   5.912
36551SOL    HW211493   8.350   0.451   5.923
36552SOL     OW11494   0.357  13.445   7.657
36552SOL    HW111495   0.389  13.532   7.630
36552SOL    HW211496   0.435  13.401   7.692
36553SOL     OW11497   1.271   2.810  10.768
36553SOL    HW111498   1.279   2.725  10.724
36553SOL    HW211499   1.191   2.802  10.821
36554SOL     OW11500   0.023   8.104   2.379
36554SOL    HW111501  14.815   8.066   2.413
36554SOL    HW211502   0.001   8.195   2.359
36555SOL     OW11503   3.837   9.804   0.513
36555SOL    HW111504   3.855   9.710   0.512
36555SOL    HW211505   3.872   9.834   0.597
36556SOL     OW11506  12.562   7.148  10.425
36556SOL    HW111507  12.476   7.144  10.383
36556SOL    HW211508  12.581   7.057  10.451
36557SOL     OW11509   8.766   7.237   3.065
36557SOL    HW111510   8.697   7.232   3.131
36557SOL    HW211511   8.832   7.294   3.103
36558SOL     OW11512   4.253   9.372   2.584
36558SOL    HW111513   4.298   9.288   2.580
36558SOL    HW211514   4.261   9.408   2.496
36559SOL     OW11515  14.540   5.668   3.414
36559SOL    HW111516  14.544   5.627   3.327
36559SOL    HW211517  14.484   5.610   3.466
36560SOL     OW11518   2.402   5.608   9.008
36560SOL    HW111519   2.479   5.558   9.034
36560SOL    HW211520   2.427   5.648   8.924
36561SOL     OW11521   4.585  12.174   1.059
36561SOL    HW111522   4.662  12.230   1.054
36561SOL    HW211523   4.511  12.232   1.040
36562SOL     OW11524   0.571   6.586   5.677
36562SOL    HW111525   0.584   6.519   5.610
36562SOL    HW211526   0.554   6.537   5.757
36563SOL     OW11527  13.341  11.271   9.341
36563SOL    HW111528  13.329  11.364   9.326
36563SOL    HW211529  13.428  11.263   9.381
36564SOL     OW11530   4.190   5.296  11.118
36564SOL    HW111531   4.205   5.273  11.210
36564SOL    HW211532   4.160   5.387  11.121
36565SOL     OW11533   6.848   2.936   1.322
36565SOL    HW111534   6.807   3.017   1.293
36565SOL    HW211535   6.804   2.914   1.404
36566SOL     OW11536  10.511   9.987   0.133
36566SOL    HW111537  10.552  10.057   0.183
36566SOL    HW211538  10.583   9.930   0.107
36567SOL     OW11539   4.398   3.852   8.499
36567SOL    HW111540   4.379   3.804   8.418
36567SOL    HW211541   4.493   3.868   8.495
36568SOL     OW11542  12.309  14.531   9.995
36568SOL    HW111543  12.361  14.478  10.055
36568SOL    HW211544  12.356  14.614   9.987
36569SOL     OW11545  13.699   2.096  14.314
36569SOL    HW111546  13.775   2.148  14.287
36569SOL    HW211547  13.734   2.034  14.378
36570SOL     OW11548  14.821   7.325  12.024
36570SOL    HW111549   0.039   7.348  12.005
36570SOL    HW211550  14.802   7.368  12.107
36571SOL     OW11551   9.516   7.552   8.376
36571SOL    HW111552   9.423   7.555   8.354
36571SOL    HW211553   9.521   7.492   8.450
36572SOL     OW11554  13.026   6.115  12.945
36572SOL    HW111555  12.987   6.119  13.033
36572SOL    HW211556  13.055   6.024  12.936
36573SOL     OW11557   9.078  12.031  12.170
36573SOL    HW111558   9.011  12.028  12.239
36573SOL    HW211559   9.156  12.062  12.215
36574SOL     OW11560   3.113  14.233   7.933
36574SOL    HW111561   3.087  14.147   7.901
36574SOL    HW211562   3.042  14.291   7.905
36575SOL     OW11563   6.213   4.837  11.026
36575SOL    HW111564   6.251   4.907  11.079
36575SOL    HW211565   6.266   4.760  11.046
36576SOL     OW11566  14.866   6.760  13.612
36576SOL    HW111567  14.873   6.772  13.707
36576SOL    HW211568   0.028   6.673  13.596
36577SOL     OW11569   1.263   7.381   3.345
36577SOL    HW111570   1.181   7.348   3.308
36577SOL    HW211571   1.238   7.458   3.395
36578SOL     OW11572  13.181   3.473   3.992
36578SOL    HW111573  13.139   3.458   3.907
36578SOL    HW211574  13.112   3.454   4.056
36579SOL     OW11575  10.877  10.776   7.660
36579SOL    HW111576  10.823  10.696   7.657
36579SOL    HW211577  10.843  10.825   7.734
36580SOL     OW11578   2.911   5.714   7.093
36580SOL    HW111579   2.850   5.734   7.022
36580SOL    HW211580   2.988   5.768   7.074
36581SOL     OW11581   9.310  11.991   4.923
36581SOL    HW111582   9.319  11.899   4.896
36581SOL    HW211583   9.217  12.000   4.946
36582SOL     OW11584   2.354  10.146  14.517
36582SOL    HW111585   2.393  10.100  14.591
36582SOL    HW211586   2.395  10.106  14.440
36583SOL     OW11587   6.497   0.740  10.706
36583SOL    HW111588   6.499   0.760  10.800
36583SOL    HW211589   6.458   0.817  10.666
36584SOL     OW11590  14.638   9.945   8.127
36584SOL    HW111591  14.588  10.010   8.078
36584SOL    HW211592  14.727   9.981   8.129
36585SOL     OW11593   2.405   9.118   8.406
36585SOL    HW111594   2.412   9.043   8.347
36585SOL    HW211595   2.334   9.094   8.467
36586SOL     OW11596  14.231  12.978   2.537
36586SOL    HW111597  14.185  13.044   2.485
36586SOL    HW211598  14.323  12.986   2.509
36587SOL     OW11599   8.101  10.347  10.666
36587SOL    HW111600   8.183  10.321  10.709
36587SOL    HW211601   8.104  10.443  10.664
36588SOL     OW11602   2.225   9.823   7.766
36588SOL    HW111603   2.148   9.856   7.718
36588SOL    HW211604   2.233   9.881   7.842
36589SOL     OW11605  11.427  12.093   1.640
36589SOL    HW111606  11.350  12.129   1.596
36589SOL    HW211607  11.502  12.137   1.598
36590SOL     OW11608  10.719  14.634   1.471
36590SOL    HW111609  10.787  14.632   1.539
36590SOL    HW211610  10.748  14.570   1.406
36591SOL     OW11611   9.060   1.116  11.354
36591SOL    HW111612   9.090   1.198  11.392
36591SOL    HW211613   8.968   1.111  11.377
36592SOL     OW11614  12.444  11.147   9.810
36592SOL    HW111615  12.507  11.082   9.842
36592SOL    HW211616  12.498  11.214   9.769
36593SOL     OW11617  14.799   0.048   4.582
36593SOL    HW111618  14.836  14.842   4.544
36593SOL    HW211619   0.001   0.105   4.596
36594SOL     OW11620   1.137   5.524   2.127
36594SOL    HW111621   1.103   5.495   2.042
36594SOL    HW211622   1.173   5.611   2.109
36595SOL     OW11623   6.274   1.631   5.566
36595SOL    HW111624   6.309   1.543   5.552
36595SOL    HW211625   6.179   1.619   5.567
36596SOL     OW11626  13.304  11.808  12.437
36596SOL    HW111627  13.261  11.731  12.401
36596SOL    HW211628  13.393  11.778  12.457
36597SOL     OW11629  11.021  12.569  12.328
36597SOL    HW111630  10.959  12.506  12.291
36597SOL    HW211631  10.967  12.642  12.356
36598SOL     OW11632  14.181   0.494   0.006
36598SOL    HW111633  14.243   0.459  14.816
36598SOL    HW211634  14.236   0.530   0.076
36599SOL     OW11635   1.480   6.024   6.319
36599SOL    HW111636   1.542   6.013   6.391
36599SOL    HW211637   1.487   5.943   6.268
36600SOL     OW11638   0.035   2.548  12.060
36600SOL    HW111639  14.840   2.483  12.040
36600SOL    HW211640  14.863   2.632  12.061
36601SOL     OW11641   0.105   0.790  10.510
36601SOL    HW111642   0.036   0.762  10.570
36601SOL    HW211643   0.178   0.731  10.528
36602SOL     OW11644   3.987   8.183   2.366
36602SOL    HW111645   4.032   8.257   2.407
36602SOL    HW211646   3.975   8.210   2.275
36603SOL     OW11647   0.113   9.056   5.534
36603SOL    HW111648   0.039   9.101   5.576
36603SOL    HW211649   0.126   9.104   5.452
36604SOL     OW11650   0.173   5.513  10.370
36604SOL    HW111651   0.204   5.486  10.456
36604SOL    HW211652   0.150   5.606  10.381
36605SOL     OW11653   5.774   9.207  14.689
36605SOL    HW111654   5.808   9.240  14.772
36605SOL    HW211655   5.807   9.117  14.683
36606SOL     OW11656   3.936   8.930   7.367
36606SOL    HW111657   3.854   8.978   7.375
36606SOL    HW211658   3.942   8.907   7.274
36607SOL     OW11659   6.215   9.167   1.198
36607SOL    HW111660   6.270   9.214   1.135
36607SOL    HW211661   6.197   9.231   1.267
36608SOL     OW11662   1.300   2.212  13.908
36608SOL    HW111663   1.388   2.204  13.944
36608SOL    HW211664   1.275   2.122  13.884
36609SOL     OW11665   7.743   9.041  10.496
36609SOL    HW111666   7.658   9.053  10.539
36609SOL    HW211667   7.774   9.130  10.481
36610SOL     OW11668  12.937   1.358  12.332
36610SOL    HW111669  12.999   1.340  12.403
36610SOL    HW211670  12.961   1.295  12.263
36611SOL     OW11671   9.889   6.702   7.742
36611SOL    HW111672   9.954   6.676   7.807
36611SOL    HW211673   9.938   6.754   7.678
36612SOL     OW11674   1.388   2.318   7.921
36612SOL    HW111675   1.367   2.245   7.980
36612SOL    HW211676   1.398   2.393   7.980
36613SOL     OW11677   4.135   2.583   6.641
36613SOL    HW111678   4.152   2.624   6.556
36613SOL    HW211679   4.220   2.546   6.667
36614SOL     OW11680   0.810  11.462   0.101
36614SOL    HW111681   0.718  11.480   0.122
36614SOL    HW211682   0.836  11.534   0.044
36615SOL     OW11683   7.976   3.116  11.426
36615SOL    HW111684   8.019   3.173  11.362
36615SOL    HW211685   8.040   3.105  11.496
36616SOL     OW11686   2.953   9.926  12.378
36616SOL    HW111687   2.879   9.987  12.373
36616SOL    HW211688   2.919   9.852  12.429
36617SOL     OW11689  10.959  11.389   6.459
36617SOL    HW111690  10.968  11.295   6.473
36617SOL    HW211691  10.973  11.400   6.365
36618SOL     OW11692   4.715  14.065   6.686
36618SOL    HW111693   4.779  14.068   6.615
36618SOL    HW211694   4.684  14.155   6.695
36619SOL     OW11695   9.190  11.962  12.778
36619SOL    HW111696   9.235  12.012  12.710
36619SOL    HW211697   9.248  11.888  12.796
36620SOL     OW11698   4.947  14.789  11.737
36620SOL    HW111699   5.032  14.804  11.778
36620SOL    HW211700   4.958  14.708  11.687
36621SOL     OW11701  11.827   6.533  12.621
36621SOL    HW111702  11.844   6.522  12.714
36621SOL    HW211703  11.844   6.626  12.604
36622SOL     OW11704  11.867  12.502  10.698
36622SOL    HW111705  11.854  12.517  10.604
36622SOL    HW211706  11.801  12.557  10.740
36623SOL     OW11707   2.905   1.038   9.292
36623SOL    HW111708   2.886   0.945   9.293
36623SOL    HW211709   2.997   1.044   9.264
36624SOL     OW11710   9.071  10.378   6.743
36624SOL    HW111711   9.167  10.384   6.736
36624SOL    HW211712   9.054  10.367   6.836
36625SOL     OW11713  10.621   4.205  14.329
36625SOL    HW111714  10.658   4.251  14.253
36625SOL    HW211715  10.601   4.275  14.391
36626SOL     OW11716  12.518   4.077   2.824
36626SOL    HW111717  12.569   4.017   2.879
36626SOL    HW211718  12.583   4.140   2.791
36627SOL     OW11719  14.150  11.286  12.046
36627SOL    HW111720  14.165  11.195  12.022
36627SOL    HW211721  14.057  11.301  12.028
36628SOL     OW11722   2.686  13.796  11.246
36628SOL    HW111723   2.621  13.734  11.214
36628SOL    HW211724   2.686  13.866  11.180
36629SOL     OW11725   0.417   0.948  12.485
36629SOL    HW111726   0.507   0.980  12.474
36629SOL    HW211727   0.386   0.993  12.563
36630SOL     OW11728  14.466   6.341   6.926
36630SOL    HW111729  14.506   6.399   6.991
36630SOL    HW211730  14.538   6.321   6.866
36631SOL     OW11731   7.297   9.115  12.399
36631SOL    HW111732   7.388   9.095  12.420
36631SOL    HW211733   7.300   9.146  12.308
36632SOL     OW11734   3.231   1.340   8.067
36632SOL    HW111735   3.227   1.432   8.089
36632SOL    HW211736   3.262   1.338   7.976
36633SOL     OW11737  13.110  13.556   9.175
36633SOL    HW111738  13.077  13.582   9.262
36633SOL    HW211739  13.136  13.465   9.186
36634SOL     OW11740   3.076   5.736   4.764
36634SOL    HW111741   3.017   5.805   4.792
36634SOL    HW211742   3.128   5.715   4.842
36635SOL     OW11743   6.472   7.445   4.847
36635SOL    HW111744   6.406   7.514   4.833
36635SOL    HW211745   6.514   7.435   4.762
36636SOL     OW11746  10.476   7.328   1.485
36636SOL    HW111747  10.549   7.284   1.442
36636SOL    HW211748  10.425   7.257   1.525
36637SOL     OW11749   9.402   6.327  14.629
36637SOL    HW111750   9.362   6.247  14.661
36637SOL    HW211751   9.370   6.395  14.689
36638SOL     OW11752   9.700   8.292   6.442
36638SOL    HW111753   9.725   8.329   6.357
36638SOL    HW211754   9.765   8.326   6.503
36639SOL     OW11755  12.431   8.340   7.504
36639SOL    HW111756  12.376   8.293   7.442
36639SOL    HW211757  12.439   8.281   7.579
36640SOL     OW11758   3.832   4.110   5.452
36640SOL    HW111759   3.789   4.108   5.538
36640SOL    HW211760   3.861   4.020   5.437
36641SOL     OW11761   7.455   3.911  12.410
36641SOL    HW111762   7.369   3.872  12.391
36641SOL    HW211763   7.442   4.005  12.399
36642SOL     OW11764   5.590   2.428  10.831
36642SOL    HW111765   5.586   2.335  10.810
36642SOL    HW211766   5.680   2.453  10.811
36643SOL     OW11767  12.949   3.670   9.182
36643SOL    HW111768  12.934   3.663   9.087
36643SOL    HW211769  12.910   3.591   9.218
36644SOL     OW11770   3.614  13.082   7.207
36644SOL    HW111771   3.655  13.166   7.187
36644SOL    HW211772   3.527  13.087   7.167
36645SOL     OW11773  14.363   2.330  11.819
36645SOL    HW111774  14.371   2.295  11.730
36645SOL    HW211775  14.269   2.332  11.835
36646SOL     OW11776   6.782   4.801   7.056
36646SOL    HW111777   6.865   4.826   7.096
36646SOL    HW211778   6.747   4.733   7.113
36647SOL     OW11779  11.696   3.547  11.740
36647SOL    HW111780  11.714   3.629  11.786
36647SOL    HW211781  11.612   3.561  11.697
36648SOL     OW11782   1.366   3.558  14.274
36648SOL    HW111783   1.374   3.565  14.369
36648SOL    HW211784   1.424   3.485  14.251
36649SOL     OW11785   3.647  14.704  11.066
36649SOL    HW111786   3.626  14.620  11.105
36649SOL    HW211787   3.563  14.736  11.032
36650SOL     OW11788   1.683   5.213   6.934
36650SOL    HW111789   1.732   5.292   6.911
36650SOL    HW211790   1.592   5.242   6.937
36651SOL     OW11791  14.680  10.934   5.470
36651SOL    HW111792  14.699  10.929   5.377
36651SOL    HW211793  14.602  10.881   5.482
36652SOL     OW11794   1.183   8.033   8.847
36652SOL    HW111795   1.268   8.062   8.814
36652SOL    HW211796   1.177   8.072   8.934
36653SOL     OW11797   6.884   1.839  10.342
36653SOL    HW111798   6.897   1.744  10.343
36653SOL    HW211799   6.921   1.868  10.258
36654SOL     OW11800   1.436   2.457   4.939
36654SOL    HW111801   1.520   2.489   4.972
36654SOL    HW211802   1.436   2.481   4.847
36655SOL     OW11803   9.730   2.638  10.311
36655SOL    HW111804   9.658   2.701  10.317
36655SOL    HW211805   9.744   2.609  10.401
36656SOL     OW11806  12.367   0.478  11.980
36656SOL    HW111807  12.374   0.532  11.901
36656SOL    HW211808  12.302   0.522  12.034
36657SOL     OW11809   7.333   2.809   9.848
36657SOL    HW111810   7.309   2.857   9.769
36657SOL    HW211811   7.251   2.797   9.895
36658SOL     OW11812  13.269   8.923   9.980
36658SOL    HW111813  13.279   8.909  10.074
36658SOL    HW211814  13.202   8.860   9.953
36659SOL     OW11815   1.223  10.670   1.491
36659SOL    HW111816   1.226  10.599   1.555
36659SOL    HW211817   1.291  10.647   1.427
36660SOL     OW11818   2.639  12.440   9.750
36660SOL    HW111819   2.701  12.509   9.729
36660SOL    HW211820   2.665  12.366   9.694
36661SOL     OW11821   7.257   7.706   2.676
36661SOL    HW111822   7.172   7.695   2.632
36661SOL    HW211823   7.237   7.696   2.769
36662SOL     OW11824  13.946  14.380  10.843
36662SOL    HW111825  14.029  14.423  10.863
36662SOL    HW211826  13.912  14.428  10.768
36663SOL     OW11827   8.498   2.127   5.184
36663SOL    HW111828   8.408   2.151   5.210
36663SOL    HW211829   8.497   2.031   5.183
36664SOL     OW11830   1.525   7.623   5.689
36664SOL    HW111831   1.499   7.532   5.675
36664SOL    HW211832   1.528   7.661   5.602
36665SOL     OW11833  13.555   4.893   4.656
36665SOL    HW111834  13.605   4.818   4.624
36665SOL    HW211835  13.513   4.929   4.577
36666SOL     OW11836   6.438  13.456  13.434
36666SOL    HW111837   6.517  13.493  13.395
36666SOL    HW211838   6.444  13.362  13.418
36667SOL     OW11839   5.876   2.611   9.432
36667SOL    HW111840   5.868   2.563   9.349
36667SOL    HW211841   5.795   2.662   9.437
36668SOL     OW11842   2.729   9.870  13.666
36668SOL    HW111843   2.744   9.954  13.709
36668SOL    HW211844   2.634   9.860  13.664
36669SOL     OW11845  11.322   4.021   0.465
36669SOL    HW111846  11.307   4.008   0.371
36669SOL    HW211847  11.367   4.106   0.470
36670SOL     OW11848   0.523   3.952   2.831
36670SOL    HW111849   0.435   3.981   2.809
36670SOL    HW211850   0.581   4.015   2.788
36671SOL     OW11851  10.363   6.039   1.206
36671SOL    HW111852  10.447   6.014   1.167
36671SOL    HW211853  10.372   6.017   1.299
36672SOL     OW11854  14.663  13.714  10.554
36672SOL    HW111855  14.588  13.744  10.502
36672SOL    HW211856  14.623  13.663  10.625
36673SOL     OW11857   2.918   3.097   4.736
36673SOL    HW111858   2.942   3.172   4.791
36673SOL    HW211859   2.999   3.076   4.688
36674SOL     OW11860   7.279   6.288  13.997
36674SOL    HW111861   7.241   6.223  13.938
36674SOL    HW211862   7.364   6.251  14.021
36675SOL     OW11863   3.747  13.734  12.855
36675SOL    HW111864   3.714  13.644  12.859
36675SOL    HW211865   3.680  13.786  12.899
36676SOL     OW11866   9.519   3.374   5.285
36676SOL    HW111867   9.541   3.449   5.340
36676SOL    HW211868   9.453   3.408   5.224
36677SOL     OW11869  11.637   1.183   9.303
36677SOL    HW111870  11.651   1.090   9.285
36677SOL    HW211871  11.635   1.188   9.399
36678SOL     OW11872   4.577   7.294   1.770
36678SOL    HW111873   4.521   7.219   1.752
36678SOL    HW211874   4.522   7.370   1.749
36679SOL     OW11875   6.227   7.049   9.878
36679SOL    HW111876   6.286   7.124   9.881
36679SOL    HW211877   6.219   7.021   9.969
36680SOL     OW11878   6.897  10.733  12.138
36680SOL    HW111879   6.953  10.811  12.140
36680SOL    HW211880   6.857  10.735  12.051
36681SOL     OW11881  12.324   7.269   1.543
36681SOL    HW111882  12.272   7.324   1.603
36681SOL    HW211883  12.262   7.245   1.474
36682SOL     OW11884  13.275   3.968  13.380
36682SOL    HW111885  13.253   3.877  13.402
36682SOL    HW211886  13.364   3.964  13.347
36683SOL     OW11887  14.032   6.804   7.361
36683SOL    HW111888  14.095   6.734   7.378
36683SOL    HW211889  13.947   6.760   7.361
36684SOL     OW11890  12.683   1.715   5.712
36684SOL    HW111891  12.634   1.744   5.635
36684SOL    HW211892  12.741   1.788   5.732
36685SOL     OW11893   0.146   7.083  11.710
36685SOL    HW111894   0.224   7.134  11.734
36685SOL    HW211895   0.176   7.025  11.640
36686SOL     OW11896   8.586   8.716   7.797
36686SOL    HW111897   8.654   8.650   7.784
36686SOL    HW211898   8.510   8.682   7.749
36687SOL     OW11899  12.540   4.730   6.179
36687SOL    HW111900  12.522   4.764   6.267
36687SOL    HW211901  12.551   4.636   6.191
36688SOL     OW11902  12.800   1.662   7.814
36688SOL    HW111903  12.849   1.584   7.787
36688SOL    HW211904  12.856   1.735   7.787
36689SOL     OW11905   1.283   0.492  14.833
36689SOL    HW111906   1.253   0.497  14.742
36689SOL    HW211907   1.361   0.548  14.836
36690SOL     OW11908  14.439  13.929   3.474
36690SOL    HW111909  14.409  13.858   3.417
36690SOL    HW211910  14.395  14.007   3.441
36691SOL     OW11911  11.213   5.619  14.260
36691SOL    HW111912  11.266   5.690  14.223
36691SOL    HW211913  11.139   5.611  14.200
36692SOL     OW11914   6.935  11.681   9.064
36692SOL    HW111915   6.968  11.629   8.990
36692SOL    HW211916   6.998  11.752   9.073
36693SOL     OW11917  10.917  14.243   5.473
36693SOL    HW111918  10.831  14.265   5.436
36693SOL    HW211919  10.943  14.322   5.520
36694SOL     OW11920   2.046   5.180   7.289
36694SOL    HW111921   2.137   5.175   7.259
36694SOL    HW211922   2.003   5.237   7.226
36695SOL     OW11923   6.678   4.565  12.911
36695SOL    HW111924   6.611   4.545  12.846
36695SOL    HW211925   6.682   4.661  12.913
36696SOL     OW11926   6.611  10.577  11.468
36696SOL    HW111927   6.574  10.604  11.551
36696SOL    HW211928   6.542  10.525  11.426
36697SOL     OW11929   1.313  13.164  13.528
36697SOL    HW111930   1.261  13.244  13.534
36697SOL    HW211931   1.257  13.103  13.479
36698SOL     OW11932  11.106   5.963   7.456
36698SOL    HW111933  11.014   5.946   7.437
36698SOL    HW211934  11.130   6.033   7.397
36699SOL     OW11935   3.225   7.155   9.401
36699SOL    HW111936   3.201   7.248   9.394
36699SOL    HW211937   3.320   7.156   9.410
36700SOL     OW11938   6.623   0.071   8.477
36700SOL    HW111939   6.675   0.080   8.557
36700SOL    HW211940   6.583   0.157   8.465
36701SOL     OW11941   3.962   7.586   4.340
36701SOL    HW111942   4.036   7.540   4.380
36701SOL    HW211943   3.887   7.560   4.393
36702SOL     OW11944   1.021   6.610   8.151
36702SOL    HW111945   0.935   6.610   8.108
36702SOL    HW211946   1.068   6.683   8.111
36703SOL     OW11947   6.506   6.826   7.641
36703SOL    HW111948   6.473   6.822   7.551
36703SOL    HW211949   6.448   6.768   7.691
36704SOL     OW11950   2.607  14.175   9.606
36704SOL    HW111951   2.515  14.191   9.626
36704SOL    HW211952   2.647  14.262   9.605
36705SOL     OW11953  13.676   6.469  11.501
36705SOL    HW111954  13.671   6.516  11.419
36705SOL    HW211955  13.677   6.376  11.476
36706SOL     OW11956   2.416   0.113   6.542
36706SOL    HW111957   2.378   0.195   6.512
36706SOL    HW211958   2.349   0.047   6.521
36707SOL     OW11959  10.091   8.495   4.784
36707SOL    HW111960  10.128   8.431   4.723
36707SOL    HW211961  10.005   8.459   4.807
36708SOL     OW11962   9.601  11.950   3.564
36708SOL    HW111963   9.675  11.981   3.616
36708SOL    HW211964   9.580  11.865   3.602
36709SOL     OW11965  10.191  10.015  13.458
36709SOL    HW111966  10.224   9.943  13.404
36709SOL    HW211967  10.179  10.087  13.396
36710SOL     OW11968  12.099   9.357   4.480
36710SOL    HW111969  12.155   9.418   4.528
36710SOL    HW211970  12.130   9.271   4.507
36711SOL     OW11971   5.311   3.602   7.133
36711SOL    HW111972   5.253   3.572   7.063
36711SOL    HW211973   5.256   3.660   7.187
36712SOL     OW11974   8.594   5.076  13.747
36712SOL    HW111975   8.647   5.117  13.814
36712SOL    HW211976   8.560   5.149  13.695
36713SOL     OW11977   1.060  13.642   8.871
36713SOL    HW111978   0.971  13.676   8.870
36713SOL    HW211979   1.057  13.567   8.811
36714SOL     OW11980   6.211  12.553   8.258
36714SOL    HW111981   6.278  12.622   8.264
36714SOL    HW211982   6.200  12.540   8.164
36715SOL     OW11983   4.103  10.543   0.875
36715SOL    HW111984   4.127  10.633   0.895
36715SOL    HW211985   4.167  10.490   0.923
36716SOL     OW11986  11.024  10.822   8.662
36716SOL    HW111987  11.035  10.778   8.578
36716SOL    HW211988  11.100  10.796   8.714
36717SOL     OW11989  10.721   1.558   6.537
36717SOL    HW111990  10.679   1.631   6.582
36717SOL    HW211991  10.752   1.595   6.454
36718SOL     OW11992   9.577   5.177  10.868
36718SOL    HW111993   9.644   5.166  10.800
36718SOL    HW211994   9.579   5.270  10.889
36719SOL     OW11995  10.783   5.190   1.894
36719SOL    HW111996  10.836   5.127   1.943
36719SOL    HW211997  10.708   5.140   1.863
36720SOL     OW11998   1.124  14.729   5.099
36720SOL    HW111999   1.167  14.801   5.145
36720SOL    HW212000   1.041  14.766   5.067
36721SOL     OW12001   6.305   1.040   4.960
36721SOL    HW112002   6.264   0.978   4.899
36721SOL    HW212003   6.276   1.126   4.929
36722SOL     OW12004   5.178   2.699   3.479
36722SOL    HW112005   5.201   2.673   3.569
36722SOL    HW212006   5.110   2.637   3.452
36723SOL     OW12007   9.078   0.760  10.581
36723SOL    HW112008   9.031   0.723  10.655
36723SOL    HW212009   9.084   0.854  10.600
36724SOL     OW12010  12.121  11.140   1.886
36724SOL    HW112011  12.168  11.058   1.874
36724SOL    HW212012  12.158  11.179   1.965
36725SOL     OW12013   8.465   5.147   4.031
36725SOL    HW112014   8.380   5.143   4.075
36725SOL    HW212015   8.522   5.194   4.092
36726SOL     OW12016  10.993  11.022   2.690
36726SOL    HW112017  11.006  11.004   2.596
36726SOL    HW212018  11.045  11.101   2.706
36727SOL     OW12019   5.449   2.720   0.780
36727SOL    HW112020   5.361   2.754   0.799
36727SOL    HW212021   5.508   2.779   0.826
36728SOL     OW12022  13.662   0.642   7.217
36728SOL    HW112023  13.755   0.627   7.235
36728SOL    HW212024  13.626   0.672   7.301
36729SOL     OW12025  13.493   6.516   5.698
36729SOL    HW112026  13.418   6.544   5.751
36729SOL    HW212027  13.548   6.466   5.759
36730SOL     OW12028   7.625   9.574   7.829
36730SOL    HW112029   7.612   9.484   7.797
36730SOL    HW212030   7.636   9.564   7.924
36731SOL     OW12031   4.616   2.645   6.910
36731SOL    HW112032   4.607   2.711   6.842
36731SOL    HW212033   4.553   2.671   6.977
36732SOL     OW12034   3.900  13.392  10.627
36732SOL    HW112035   3.805  13.406  10.625
36732SOL    HW212036   3.910  13.300  10.651
36733SOL     OW12037   2.037   6.229  14.387
36733SOL    HW112038   1.978   6.164  14.427
36733SOL    HW212039   2.031   6.305  14.445
36734SOL     OW12040  11.452   0.471  11.572
36734SOL    HW112041  11.486   0.387  11.541
36734SOL    HW212042  11.361   0.473  11.544
36735SOL     OW12043  11.380   4.391  14.730
36735SOL    HW112044  11.333   4.383  14.813
36735SOL    HW212045  11.335   4.330  14.671
36736SOL     OW12046  13.866  10.223   6.094
36736SOL    HW112047  13.897  10.134   6.110
36736SOL    HW212048  13.928  10.279   6.141
36737SOL     OW12049  11.284  14.151  11.032
36737SOL    HW112050  11.313  14.237  11.063
36737SOL    HW212051  11.280  14.161  10.936
36738SOL     OW12052   7.623   7.718   4.003
36738SOL    HW112053   7.706   7.679   4.032
36738SOL    HW212054   7.557   7.677   4.058
36739SOL     OW12055  11.992  12.121   3.199
36739SOL    HW112056  11.926  12.150   3.261
36739SOL    HW212057  12.055  12.073   3.252
36740SOL     OW12058   9.888   5.099   3.967
36740SOL    HW112059   9.875   5.005   3.959
36740SOL    HW212060   9.802   5.137   3.952
36741SOL     OW12061   8.027   0.575   4.939
36741SOL    HW112062   8.114   0.534   4.946
36741SOL    HW212063   7.969   0.503   4.914
36742SOL     OW12064   4.999   4.514  10.534
36742SOL    HW112065   5.037   4.435  10.572
36742SOL    HW212066   4.904   4.499  10.538
36743SOL     OW12067   7.824   0.246  13.773
36743SOL    HW112068   7.806   0.152  13.780
36743SOL    HW212069   7.769   0.276  13.701
36744SOL     OW12070  10.967  14.258   1.464
36744SOL    HW112071  10.957  14.162   1.461
36744SOL    HW212072  11.036  14.276   1.400
36745SOL     OW12073  14.215  12.793   3.458
36745SOL    HW112074  14.215  12.700   3.435
36745SOL    HW212075  14.197  12.794   3.552
36746SOL     OW12076  12.121   3.533   8.087
36746SOL    HW112077  12.183   3.513   8.017
36746SOL    HW212078  12.172   3.526   8.167
36747SOL     OW12079   7.172  10.023   8.261
36747SOL    HW112080   7.154  10.114   8.236
36747SOL    HW212081   7.113   9.971   8.207
36748SOL     OW12082  13.259   0.253  10.113
36748SOL    HW112083  13.333   0.205  10.076
36748SOL    HW212084  13.280   0.345  10.099
36749SOL     OW12085  10.075   2.565  11.175
36749SOL    HW112086  10.132   2.575  11.251
36749SOL    HW212087  10.124   2.508  11.116
36750SOL     OW12088   8.960   4.296   8.423
36750SOL    HW112089   8.939   4.309   8.516
36750SOL    HW212090   9.041   4.346   8.410
36751SOL     OW12091  13.593   5.002   1.451
36751SOL    HW112092  13.551   4.919   1.474
36751SOL    HW212093  13.539   5.037   1.380
36752SOL     OW12094  13.007  12.400  14.061
36752SOL    HW112095  12.978  12.349  13.985
36752SOL    HW212096  13.018  12.489  14.028
36753SOL     OW12097   6.203   5.926   9.388
36753SOL    HW112098   6.239   5.996   9.334
36753SOL    HW212099   6.135   5.968   9.440
36754SOL     OW12100  11.286   9.241  10.430
36754SOL    HW112101  11.307   9.332  10.408
36754SOL    HW212102  11.207   9.248  10.483
36755SOL     OW12103   8.116   8.627   8.706
36755SOL    HW112104   8.030   8.599   8.674
36755SOL    HW212105   8.175   8.616   8.632
36756SOL     OW12106   9.671  11.347   1.498
36756SOL    HW112107   9.716  11.285   1.555
36756SOL    HW212108   9.599  11.296   1.460
36757SOL     OW12109   1.174   6.030   2.987
36757SOL    HW112110   1.200   6.022   2.895
36757SOL    HW212111   1.081   6.011   2.988
36758SOL     OW12112  12.806   9.581  13.483
36758SOL    HW112113  12.841   9.636  13.553
36758SOL    HW212114  12.754   9.641  13.430
36759SOL     OW12115   9.503  12.194   0.035
36759SOL    HW112116   9.526  12.111   0.077
36759SOL    HW212117   9.535  12.185  14.818
36760SOL     OW12118   8.031   6.215  14.508
36760SOL    HW112119   8.022   6.168  14.591
36760SOL    HW212120   7.951   6.268  14.502
36761SOL     OW12121   0.925   8.141   9.228
36761SOL    HW112122   0.976   8.116   9.305
36761SOL    HW212123   0.990   8.177   9.167
36762SOL     OW12124   3.383   1.380  14.360
36762SOL    HW112125   3.349   1.373  14.271
36762SOL    HW212126   3.346   1.461  14.394
36763SOL     OW12127  13.807   1.545   3.029
36763SOL    HW112128  13.837   1.523   2.940
36763SOL    HW212129  13.724   1.498   3.038
36764SOL     OW12130  11.462  11.196   3.464
36764SOL    HW112131  11.550  11.180   3.498
36764SOL    HW212132  11.442  11.286   3.490
36765SOL     OW12133  12.714  12.952   1.146
36765SOL    HW112134  12.683  12.922   1.061
36765SOL    HW212135  12.674  12.891   1.209
36766SOL     OW12136  11.368   7.390  11.084
36766SOL    HW112137  11.394   7.342  11.162
36766SOL    HW212138  11.290   7.345  11.052
36767SOL     OW12139  14.802   8.877   4.360
36767SOL    HW112140  14.728   8.932   4.333
36767SOL    HW212141  14.770   8.829   4.436
36768SOL     OW12142  13.099   2.630   0.766
36768SOL    HW112143  13.115   2.545   0.726
36768SOL    HW212144  13.055   2.609   0.849
36769SOL     OW12145   6.457   2.644   2.123
36769SOL    HW112146   6.452   2.556   2.161
36769SOL    HW212147   6.500   2.631   2.038
36770SOL     OW12148   0.777  14.166   1.419
36770SOL    HW112149   0.736  14.128   1.497
36770SOL    HW212150   0.871  14.159   1.435
36771SOL     OW12151   8.575   2.536   3.420
36771SOL    HW112152   8.525   2.607   3.461
36771SOL    HW212153   8.666   2.552   3.448
36772SOL     OW12154  14.727  10.447  13.846
36772SOL    HW112155  14.727  10.357  13.878
36772SOL    HW212156  14.764  10.441  13.758
36773SOL     OW12157  10.340   5.738  11.858
36773SOL    HW112158  10.301   5.791  11.788
36773SOL    HW212159  10.379   5.803  11.917
36774SOL     OW12160   5.373  12.626  11.348
36774SOL    HW112161   5.340  12.541  11.319
36774SOL    HW212162   5.460  12.633  11.310
36775SOL     OW12163  14.405   2.665  12.312
36775SOL    HW112164  14.423   2.588  12.365
36775SOL    HW212165  14.310   2.680  12.322
36776SOL     OW12166   6.335  10.425   8.253
36776SOL    HW112167   6.361  10.447   8.164
36776SOL    HW212168   6.385  10.486   8.308
36777SOL     OW12169   1.089  14.292   5.781
36777SOL    HW112170   1.057  14.364   5.835
36777SOL    HW212171   1.011  14.260   5.736
36778SOL     OW12172   1.768   4.215   2.838
36778SOL    HW112173   1.842   4.242   2.784
36778SOL    HW212174   1.732   4.138   2.794
36779SOL     OW12175   5.137   2.785   0.727
36779SOL    HW112176   5.129   2.748   0.639
36779SOL    HW212177   5.107   2.715   0.784
36780SOL     OW12178  12.896   1.522   8.905
36780SOL    HW112179  12.827   1.491   8.964
36780SOL    HW212180  12.894   1.460   8.831
36781SOL     OW12181  11.746   7.540  11.380
36781SOL    HW112182  11.707   7.576  11.300
36781SOL    HW212183  11.744   7.445  11.368
36782SOL     OW12184  10.118   6.473   1.735
36782SOL    HW112185  10.111   6.411   1.662
36782SOL    HW212186  10.129   6.558   1.693
36783SOL     OW12187  13.084  12.478   3.778
36783SOL    HW112188  13.178  12.483   3.796
36783SOL    HW212189  13.066  12.556   3.724
36784SOL     OW12190   8.436   8.284   0.271
36784SOL    HW112191   8.395   8.207   0.309
36784SOL    HW212192   8.377   8.356   0.292
36785SOL     OW12193   4.093   7.832   9.849
36785SOL    HW112194   4.126   7.793   9.930
36785SOL    HW212195   4.155   7.902   9.829
36786SOL     OW12196  10.650   0.903   1.944
36786SOL    HW112197  10.585   0.911   2.013
36786SOL    HW212198  10.685   0.991   1.933
36787SOL     OW12199  12.097  10.319   4.500
36787SOL    HW112200  12.068  10.407   4.524
36787SOL    HW212201  12.033  10.261   4.541
36788SOL     OW12202   2.526   8.750  11.309
36788SOL    HW112203   2.622   8.756  11.306
36788SOL    HW212204   2.506   8.677  11.250
36789SOL     OW12205   8.951   1.687   6.448
36789SOL    HW112206   8.988   1.654   6.530
36789SOL    HW212207   8.926   1.777   6.468
36790SOL     OW12208  11.744  13.636   5.153
36790SOL    HW112209  11.670  13.695   5.142
36790SOL    HW212210  11.706  13.552   5.179
36791SOL     OW12211  10.014   4.191   8.222
36791SOL    HW112212  10.000   4.158   8.310
36791SOL    HW212213   9.929   4.182   8.179
36792SOL     OW12214  13.260   3.184  12.555
36792SOL    HW112215  13.223   3.113  12.607
36792SOL    HW212216  13.184   3.227  12.515
36793SOL     OW12217  13.472  10.608   3.123
36793SOL    HW112218  13.412  10.679   3.147
36793SOL    HW212219  13.415  10.536   3.098
36794SOL     OW12220   4.805  12.614   8.959
36794SOL    HW112221   4.865  12.676   9.000
36794SOL    HW212222   4.862  12.549   8.918
36795SOL     OW12223   6.399   7.599   1.597
36795SOL    HW112224   6.463   7.655   1.555
36795SOL    HW212225   6.396   7.520   1.543
36796SOL     OW12226   4.497   5.730   3.076
36796SOL    HW112227   4.562   5.796   3.101
36796SOL    HW212228   4.539   5.680   3.006
36797SOL     OW12229  12.229   2.329  14.278
36797SOL    HW112230  12.300   2.345  14.216
36797SOL    HW212231  12.266   2.267  14.341
36798SOL     OW12232  12.082   8.203   6.144
36798SOL    HW112233  11.987   8.195   6.152
36798SOL    HW212234  12.114   8.113   6.145
36799SOL     OW12235   8.736   4.866   0.601
36799SOL    HW112236   8.705   4.806   0.533
36799SOL    HW212237   8.780   4.936   0.553
36800SOL     OW12238  10.802  12.847   7.370
36800SOL    HW112239  10.875  12.789   7.348
36800SOL    HW212240  10.831  12.892   7.450
36801SOL     OW12241   5.754  11.971   0.834
36801SOL    HW112242   5.683  12.022   0.794
36801SOL    HW212243   5.834  12.016   0.807
36802SOL     OW12244   5.510   0.644   8.867
36802SOL    HW112245   5.525   0.653   8.773
36802SOL    HW212246   5.472   0.556   8.877
36803SOL     OW12247  12.116  11.454   5.462
36803SOL    HW112248  12.057  11.508   5.410
36803SOL    HW212249  12.086  11.364   5.446
36804SOL     OW12250   6.231  11.243   7.601
36804SOL    HW112251   6.224  11.274   7.511
36804SOL    HW212252   6.198  11.153   7.598
36805SOL     OW12253  12.768   1.699   7.424
36805SOL    HW112254  12.847   1.648   7.440
36805SOL    HW212255  12.801   1.784   7.394
36806SOL     OW12256  13.807   8.834   3.198
36806SOL    HW112257  13.840   8.833   3.108
36806SOL    HW212258  13.791   8.742   3.219
36807SOL     OW12259   3.482  14.027  12.665
36807SOL    HW112260   3.572  13.995  12.655
36807SOL    HW212261   3.429  13.948  12.669
36808SOL     OW12262   7.825   9.784  12.182
36808SOL    HW112263   7.888   9.839  12.229
36808SOL    HW212264   7.834   9.698  12.221
36809SOL     OW12265   1.497  11.371  11.700
36809SOL    HW112266   1.429  11.389  11.635
36809SOL    HW212267   1.571  11.338  11.647
36810SOL     OW12268  10.946   5.577   3.378
36810SOL    HW112269  10.984   5.603   3.294
36810SOL    HW212270  10.885   5.507   3.357
36811SOL     OW12271  10.230   1.269  10.006
36811SOL    HW112272  10.154   1.301  10.054
36811SOL    HW212273  10.248   1.336   9.940
36812SOL     OW12274  13.414  14.133   0.817
36812SOL    HW112275  13.399  14.228   0.823
36812SOL    HW212276  13.485  14.117   0.879
36813SOL     OW12277   9.101  13.976   2.984
36813SOL    HW112278   9.092  13.934   3.070
36813SOL    HW212279   9.063  13.913   2.923
36814SOL     OW12280   8.230  13.980   9.084
36814SOL    HW112281   8.197  13.934   9.161
36814SOL    HW212282   8.166  13.962   9.015
36815SOL     OW12283   1.877   3.803   6.363
36815SOL    HW112284   1.897   3.727   6.308
36815SOL    HW212285   1.915   3.877   6.316
36816SOL     OW12286   9.652  13.204   1.663
36816SOL    HW112287   9.730  13.208   1.606
36816SOL    HW212288   9.620  13.294   1.665
36817SOL     OW12289  13.227   7.791  12.182
36817SOL    HW112290  13.149   7.826  12.140
36817SOL    HW212291  13.209   7.697  12.191
36818SOL     OW12292   8.294   3.255   5.550
36818SOL    HW112293   8.287   3.174   5.600
36818SOL    HW212294   8.250   3.320   5.604
36819SOL     OW12295  13.887   4.905   1.285
36819SOL    HW112296  13.867   4.834   1.347
36819SOL    HW212297  13.927   4.973   1.339
36820SOL     OW12298   3.110   0.706   4.334
36820SOL    HW112299   3.167   0.734   4.406
36820SOL    HW212300   3.169   0.700   4.258
36821SOL     OW12301  12.362   1.298  12.100
36821SOL    HW112302  12.315   1.378  12.122
36821SOL    HW212303  12.423   1.325  12.031
36822SOL     OW12304   8.233   5.949  13.750
36822SOL    HW112305   8.270   6.023  13.797
36822SOL    HW212306   8.173   5.987  13.686
36823SOL     OW12307  12.905   7.265   9.397
36823SOL    HW112308  12.865   7.280   9.483
36823SOL    HW212309  12.844   7.205   9.353
36824SOL     OW12310  11.439  11.146   6.714
36824SOL    HW112311  11.417  11.053   6.713
36824SOL    HW212312  11.392  11.183   6.639
36825SOL     OW12313   2.586   2.445   9.843
36825SOL    HW112314   2.546   2.381   9.784
36825SOL    HW212315   2.517   2.469   9.904
36826SOL     OW12316  13.933   2.297  11.278
36826SOL    HW112317  13.898   2.274  11.364
36826SOL    HW212318  13.921   2.219  11.225
36827SOL     OW12319  12.516  11.607  10.654
36827SOL    HW112320  12.576  11.595  10.580
36827SOL    HW212321  12.449  11.540  10.641
36828SOL     OW12322   2.691   6.380  14.449
36828SOL    HW112323   2.603   6.365  14.484
36828SOL    HW212324   2.692   6.333  14.365
36829SOL     OW12325   3.429   1.113   8.151
36829SOL    HW112326   3.495   1.135   8.217
36829SOL    HW212327   3.358   1.175   8.166
36830SOL     OW12328   0.720   7.007  10.552
36830SOL    HW112329   0.663   7.075  10.589
36830SOL    HW212330   0.671   6.926  10.565
36831SOL     OW12331   2.420   3.247  14.816
36831SOL    HW112332   2.396   3.210   0.027
36831SOL    HW212333   2.497   3.300  14.834
36832SOL     OW12334   4.089   8.221  14.778
36832SOL    HW112335   4.125   8.309  14.768
36832SOL    HW212336   4.164   8.163  14.760
36833SOL     OW12337   2.569   4.960   8.894
36833SOL    HW112338   2.646   5.016   8.883
36833SOL    HW212339   2.592   4.902   8.967
36834SOL     OW12340   9.233   1.501   2.982
36834SOL    HW112341   9.141   1.530   2.978
36834SOL    HW212342   9.279   1.572   3.026
36835SOL     OW12343   2.826   0.726   5.125
36835SOL    HW112344   2.878   0.784   5.069
36835SOL    HW212345   2.742   0.720   5.081
36836SOL     OW12346  10.105   7.798   9.799
36836SOL    HW112347  10.040   7.738   9.761
36836SOL    HW212348  10.079   7.884   9.768
36837SOL     OW12349   6.725   7.597  11.496
36837SOL    HW112350   6.808   7.553  11.476
36837SOL    HW212351   6.736   7.628  11.586
36838SOL     OW12352   4.195   5.778  11.950
36838SOL    HW112353   4.247   5.832  12.008
36838SOL    HW212354   4.236   5.787  11.864
36839SOL     OW12355   2.837   8.364   1.964
36839SOL    HW112356   2.752   8.408   1.970
36839SOL    HW212357   2.842   8.309   2.042
36840SOL     OW12358   4.779   0.686   2.325
36840SOL    HW112359   4.791   0.593   2.305
36840SOL    HW212360   4.778   0.729   2.240
36841SOL     OW12361   1.054  11.467   7.924
36841SOL    HW112362   0.968  11.424   7.929
36841SOL    HW212363   1.054  11.510   7.838
36842SOL     OW12364   1.517   1.474   7.611
36842SOL    HW112365   1.520   1.380   7.631
36842SOL    HW212366   1.426   1.499   7.630
36843SOL     OW12367   2.622   6.303   5.669
36843SOL    HW112368   2.563   6.240   5.629
36843SOL    HW212369   2.567   6.378   5.691
36844SOL     OW12370   4.208   3.639  11.443
36844SOL    HW112371   4.229   3.731  11.460
36844SOL    HW212372   4.184   3.603  11.528
36845SOL     OW12373  10.331  10.932   4.184
36845SOL    HW112374  10.324  10.852   4.236
36845SOL    HW212375  10.311  11.003   4.244
36846SOL     OW12376   4.014   7.026   1.156
36846SOL    HW112377   4.084   7.077   1.115
36846SOL    HW212378   3.999   7.070   1.240
36847SOL     OW12379   6.052   8.212   3.804
36847SOL    HW112380   6.111   8.153   3.851
36847SOL    HW212381   6.074   8.299   3.838
36848SOL     OW12382   4.806   9.765   1.493
36848SOL    HW112383   4.736   9.744   1.556
36848SOL    HW212384   4.887   9.759   1.544
36849SOL     OW12385   8.263   4.789   5.977
36849SOL    HW112386   8.258   4.801   6.072
36849SOL    HW212387   8.325   4.856   5.948
36850SOL     OW12388   9.679   4.878   9.757
36850SOL    HW112389   9.774   4.887   9.761
36850SOL    HW212390   9.665   4.784   9.741
36851SOL     OW12391   1.348   1.990   4.328
36851SOL    HW112392   1.375   2.078   4.301
36851SOL    HW212393   1.417   1.932   4.296
36852SOL     OW12394   5.168   7.911   5.262
36852SOL    HW112395   5.157   7.863   5.180
36852SOL    HW212396   5.087   7.959   5.273
36853SOL     OW12397  11.742  11.705  11.423
36853SOL    HW112398  11.726  11.729  11.332
36853SOL    HW212399  11.767  11.613  11.420
36854SOL     OW12400   3.409  14.504   9.836
36854SOL    HW112401   3.322  14.486   9.871
36854SOL    HW212402   3.468  14.462   9.899
36855SOL     OW12403   1.986  14.485   5.768
36855SOL    HW112404   2.080  14.464   5.772
36855SOL    HW212405   1.943  14.401   5.781
36856SOL     OW12406  14.651   5.535   0.019
36856SOL    HW112407  14.731   5.484   0.029
36856SOL    HW212408  14.610   5.532   0.106
36857SOL     OW12409  14.405  13.996  12.503
36857SOL    HW112410  14.314  14.026  12.501
36857SOL    HW212411  14.399  13.901  12.508
36858SOL     OW12412  11.311  10.530  13.337
36858SOL    HW112413  11.316  10.539  13.432
36858SOL    HW212414  11.350  10.444  13.319
36859SOL     OW12415  10.744  13.018   0.129
36859SOL    HW112416  10.805  12.955   0.090
36859SOL    HW212417  10.801  13.082   0.171
36860SOL     OW12418   9.492  13.923  13.565
36860SOL    HW112419   9.545  13.981  13.618
36860SOL    HW212420   9.410  13.913  13.614
36861SOL     OW12421  14.540   4.100   4.168
36861SOL    HW112422  14.556   4.103   4.262
36861SOL    HW212423  14.492   4.180   4.149
36862SOL     OW12424   8.951   2.216   2.486
36862SOL    HW112425   9.009   2.143   2.505
36862SOL    HW212426   8.870   2.174   2.455
36863SOL     OW12427   1.191  10.176  12.754
36863SOL    HW112428   1.190  10.270  12.773
36863SOL    HW212429   1.121  10.140  12.809
36864SOL     OW12430   0.747   6.325   2.136
36864SOL    HW112431   0.813   6.352   2.072
36864SOL    HW212432   0.798   6.292   2.210
36865SOL     OW12433  12.641  11.053  12.596
36865SOL    HW112434  12.609  11.109  12.525
36865SOL    HW212435  12.736  11.062  12.593
36866SOL     OW12436   5.887  14.717   2.596
36866SOL    HW112437   5.827  14.693   2.668
36866SOL    HW212438   5.969  14.740   2.640
36867SOL     OW12439   3.365  10.282   0.433
36867SOL    HW112440   3.311  10.206   0.454
36867SOL    HW212441   3.432  10.249   0.373
36868SOL     OW12442  10.207   1.197   6.898
36868SOL    HW112443  10.231   1.290   6.900
36868SOL    HW212444  10.120   1.196   6.857
36869SOL     OW12445   4.064  14.800   0.620
36869SOL    HW112446   4.038  14.719   0.578
36869SOL    HW212447   4.143  14.778   0.668
36870SOL     OW12448   6.495   0.623   1.547
36870SOL    HW112449   6.457   0.709   1.566
36870SOL    HW212450   6.438   0.585   1.480
36871SOL     OW12451  11.847   8.801   8.038
36871SOL    HW112452  11.832   8.801   7.943
36871SOL    HW212453  11.775   8.750   8.074
36872SOL     OW12454   9.948   7.789  13.116
36872SOL    HW112455   9.889   7.811  13.188
36872SOL    HW212456   9.896   7.732  13.059
36873SOL     OW12457  13.356   9.202   1.801
36873SOL    HW112458  13.325   9.230   1.715
36873SOL    HW212459  13.287   9.143   1.833
36874SOL     OW12460   5.429  13.777   2.629
36874SOL    HW112461   5.433  13.750   2.537
36874SOL    HW212462   5.519  13.773   2.660
36875SOL     OW12463   8.315   7.526   6.774
36875SOL    HW112464   8.371   7.534   6.851
36875SOL    HW212465   8.306   7.616   6.742
36876SOL     OW12466   6.342   9.772   4.143
36876SOL    HW112467   6.296   9.854   4.122
36876SOL    HW212468   6.327   9.760   4.237
36877SOL     OW12469   7.834  11.499  13.058
36877SOL    HW112470   7.780  11.478  13.134
36877SOL    HW212471   7.924  11.489  13.089
36878SOL     OW12472  14.828   2.932  13.328
36878SOL    HW112473  14.774   2.992  13.380
36878SOL    HW212474   0.042   2.938  13.367
36879SOL     OW12475  10.970   7.684   6.271
36879SOL    HW112476  10.918   7.629   6.212
36879SOL    HW212477  10.941   7.773   6.251
36880SOL     OW12478   9.897   7.806   1.321
36880SOL    HW112479   9.867   7.774   1.406
36880SOL    HW212480   9.879   7.734   1.261
36881SOL     OW12481   4.661  10.590   5.793
36881SOL    HW112482   4.574  10.629   5.788
36881SOL    HW212483   4.677  10.555   5.706
36882SOL     OW12484   0.984   4.255   7.199
36882SOL    HW112485   1.070   4.221   7.224
36882SOL    HW212486   0.958   4.201   7.124
36883SOL     OW12487   2.842   9.940   9.026
36883SOL    HW112488   2.875   9.893   9.103
36883SOL    HW212489   2.916   9.991   8.995
36884SOL     OW12490   6.705  12.497  13.220
36884SOL    HW112491   6.736  12.470  13.133
36884SOL    HW212492   6.644  12.568  13.203
36885SOL     OW12493   5.967   3.494   7.933
36885SOL    HW112494   5.930   3.566   7.985
36885SOL    HW212495   5.936   3.512   7.844
36886SOL     OW12496   6.241   8.405  13.057
36886SOL    HW112497   6.210   8.316  13.039
36886SOL    HW212498   6.175   8.442  13.115
36887SOL     OW12499   3.137   7.883  11.268
36887SOL    HW112500   3.095   7.832  11.199
36887SOL    HW212501   3.065   7.917  11.321
36888SOL     OW12502   4.139   4.241  12.739
36888SOL    HW112503   4.139   4.157  12.786
36888SOL    HW212504   4.054   4.280  12.761
36889SOL     OW12505   2.086   6.372   6.716
36889SOL    HW112506   2.118   6.334   6.798
36889SOL    HW212507   2.161   6.419   6.680
36890SOL     OW12508   9.044   6.066   0.997
36890SOL    HW112509   8.981   6.096   0.931
36890SOL    HW212510   9.046   6.137   1.061
36891SOL     OW12511   7.904   6.452  12.328
36891SOL    HW112512   7.812   6.475  12.321
36891SOL    HW212513   7.949   6.517  12.273
36892SOL     OW12514   8.198   4.015  12.337
36892SOL    HW112515   8.231   4.105  12.336
36892SOL    HW212516   8.114   4.020  12.291
36893SOL     OW12517   3.242   0.481  12.380
36893SOL    HW112518   3.187   0.412  12.344
36893SOL    HW212519   3.292   0.513  12.305
36894SOL     OW12520  10.703   9.418   2.178
36894SOL    HW112521  10.675   9.349   2.118
36894SOL    HW212522  10.686   9.383   2.265
36895SOL     OW12523   0.478   4.065  12.803
36895SOL    HW112524   0.534   4.136  12.833
36895SOL    HW212525   0.426   4.041  12.879
36896SOL     OW12526   6.783   0.897  14.655
36896SOL    HW112527   6.760   0.990  14.664
36896SOL    HW212528   6.781   0.863  14.745
36897SOL     OW12529   1.544   7.958  11.164
36897SOL    HW112530   1.573   7.992  11.249
36897SOL    HW212531   1.563   8.029  11.102
36898SOL     OW12532   9.420   4.376   8.776
36898SOL    HW112533   9.342   4.382   8.722
36898SOL    HW212534   9.482   4.437   8.736
36899SOL     OW12535  14.174  13.684   0.548
36899SOL    HW112536  14.090  13.665   0.589
36899SOL    HW212537  14.217  13.744   0.608
36900SOL     OW12538   7.666   2.546   3.199
36900SOL    HW112539   7.657   2.588   3.285
36900SOL    HW212540   7.649   2.617   3.137
36901SOL     OW12541  11.774   9.489   0.448
36901SOL    HW112542  11.750   9.582   0.447
36901SOL    HW212543  11.787   9.467   0.356
36902SOL     OW12544   1.229   4.071  13.184
36902SOL    HW112545   1.257   4.152  13.142
36902SOL    HW212546   1.310   4.023  13.202
36903SOL     OW12547   1.893   0.995   7.815
36903SOL    HW112548   1.810   1.032   7.846
36903SOL    HW212549   1.939   0.969   7.895
36904SOL     OW12550   0.962  10.612   6.492
36904SOL    HW112551   0.967  10.556   6.570
36904SOL    HW212552   0.868  10.626   6.480
36905SOL     OW12553   0.083  13.631  11.697
36905SOL    HW112554   0.177  13.613  11.704
36905SOL    HW212555   0.041  13.548  11.717
36906SOL     OW12556  13.233   1.403  11.631
36906SOL    HW112557  13.165   1.443  11.686
36906SOL    HW212558  13.199   1.315  11.612
36907SOL     OW12559  14.769   5.144   7.895
36907SOL    HW112560  14.731   5.070   7.943
36907SOL    HW212561  14.737   5.221   7.942
36908SOL     OW12562   4.087   7.890   5.085
36908SOL    HW112563   4.058   7.847   5.166
36908SOL    HW212564   4.005   7.919   5.043
36909SOL     OW12565  10.209   1.479   2.249
36909SOL    HW112566  10.283   1.470   2.189
36909SOL    HW212567  10.157   1.550   2.212
36910SOL     OW12568   8.502  11.487   1.630
36910SOL    HW112569   8.476  11.438   1.552
36910SOL    HW212570   8.474  11.576   1.613
36911SOL     OW12571   9.681   8.942   0.142
36911SOL    HW112572   9.641   8.871   0.192
36911SOL    HW212573   9.676   8.912   0.051
36912SOL     OW12574   4.558   2.786   5.829
36912SOL    HW112575   4.599   2.780   5.915
36912SOL    HW212576   4.615   2.734   5.772
36913SOL     OW12577  10.160   3.261   9.316
36913SOL    HW112578  10.254   3.267   9.300
36913SOL    HW212579  10.121   3.249   9.230
36914SOL     OW12580   4.567  10.896  11.333
36914SOL    HW112581   4.489  10.952  11.325
36914SOL    HW212582   4.619  10.936  11.402
36915SOL     OW12583  12.655   6.249   3.441
36915SOL    HW112584  12.633   6.160   3.469
36915SOL    HW212585  12.698   6.288   3.516
36916SOL     OW12586  12.302   6.308   8.123
36916SOL    HW112587  12.285   6.402   8.115
36916SOL    HW212588  12.379   6.301   8.179
36917SOL     OW12589  14.789  14.245   4.085
36917SOL    HW112590  14.798  14.186   4.011
36917SOL    HW212591  14.873  14.290   4.091
36918SOL     OW12592   5.212   3.811  10.220
36918SOL    HW112593   5.287   3.801  10.161
36918SOL    HW212594   5.194   3.723  10.252
36919SOL     OW12595   5.702  13.215  12.577
36919SOL    HW112596   5.723  13.150  12.510
36919SOL    HW212597   5.680  13.294  12.527
36920SOL     OW12598   0.301  10.395  12.260
36920SOL    HW112599   0.229  10.372  12.319
36920SOL    HW212600   0.257  10.434  12.184
36921SOL     OW12601   8.502  12.683  10.342
36921SOL    HW112602   8.420  12.721  10.372
36921SOL    HW212603   8.475  12.612  10.282
36922SOL     OW12604  10.790  12.630  14.220
36922SOL    HW112605  10.711  12.678  14.244
36922SOL    HW212606  10.759  12.545  14.189
36923SOL     OW12607  10.642   7.860   6.506
36923SOL    HW112608  10.619   7.835   6.417
36923SOL    HW212609  10.737   7.872   6.504
36924SOL     OW12610   3.628   5.309   1.616
36924SOL    HW112611   3.631   5.265   1.531
36924SOL    HW212612   3.708   5.281   1.660
36925SOL     OW12613   0.657  14.674   1.783
36925SOL    HW112614   0.750  14.655   1.792
36925SOL    HW212615   0.652  14.742   1.715
36926SOL     OW12616  12.789   8.952   3.920
36926SOL    HW112617  12.821   8.999   3.997
36926SOL    HW212618  12.778   8.862   3.949
36927SOL     OW12619   0.025   0.602   4.265
36927SOL    HW112620   0.108   0.602   4.314
36927SOL    HW212621  14.851   0.526   4.298
36928SOL     OW12622   6.027  10.288   8.121
36928SOL    HW112623   6.008  10.367   8.170
36928SOL    HW212624   5.948  10.271   8.070
36929SOL     OW12625   2.637   8.660   6.513
36929SOL    HW112626   2.732   8.655   6.504
36929SOL    HW212627   2.623   8.711   6.593
36930SOL     OW12628   5.780  14.257   2.653
36930SOL    HW112629   5.795  14.325   2.588
36930SOL    HW212630   5.688  14.232   2.641
36931SOL     OW12631   8.208  12.100  14.399
36931SOL    HW112632   8.142  12.050  14.352
36931SOL    HW212633   8.212  12.059  14.486
36932SOL     OW12634   7.355  10.810   6.217
36932SOL    HW112635   7.397  10.724   6.212
36932SOL    HW212636   7.284  10.805   6.152
36933SOL     OW12637  14.527  11.722   0.430
36933SOL    HW112638  14.548  11.662   0.358
36933SOL    HW212639  14.470  11.671   0.488
36934SOL     OW12640   4.897  11.967   1.413
36934SOL    HW112641   4.901  12.049   1.463
36934SOL    HW212642   4.817  11.974   1.362
36935SOL     OW12643  14.724  12.029   0.039
36935SOL    HW112644  14.749  11.943   0.004
36935SOL    HW212645  14.761  12.030   0.127
36936SOL     OW12646  11.930   5.843  11.995
36936SOL    HW112647  11.987   5.819  12.067
36936SOL    HW212648  11.855   5.886  12.037
36937SOL     OW12649   6.215  14.710  12.323
36937SOL    HW112650   6.297  14.702  12.275
36937SOL    HW212651   6.194  14.620  12.349
36938SOL     OW12652   3.245   5.357  12.416
36938SOL    HW112653   3.303   5.421  12.458
36938SOL    HW212654   3.165   5.407  12.397
36939SOL     OW12655   9.279   1.589  14.755
36939SOL    HW112656   9.337   1.665  14.752
36939SOL    HW212657   9.267   1.572  14.849
36940SOL     OW12658   3.476   4.390  14.219
36940SOL    HW112659   3.542   4.370  14.153
36940SOL    HW212660   3.419   4.313  14.219
36941SOL     OW12661   2.904  12.878   1.623
36941SOL    HW112662   2.825  12.896   1.573
36941SOL    HW212663   2.947  12.808   1.574
36942SOL     OW12664   7.570   0.082  11.291
36942SOL    HW112665   7.645   0.131  11.259
36942SOL    HW212666   7.496   0.141  11.279
36943SOL     OW12667   5.319   8.280  11.763
36943SOL    HW112668   5.342   8.189  11.778
36943SOL    HW212669   5.239   8.294  11.813
36944SOL     OW12670   5.486  14.739  10.998
36944SOL    HW112671   5.529  14.728  10.913
36944SOL    HW212672   5.417  14.803  10.981
36945SOL     OW12673   9.684   7.483  11.412
36945SOL    HW112674   9.627   7.424  11.462
36945SOL    HW212675   9.682   7.565  11.461
36946SOL     OW12676  11.173   8.230   6.167
36946SOL    HW112677  11.125   8.243   6.086
36946SOL    HW212678  11.122   8.165   6.215
36947SOL     OW12679   5.655  13.342  10.696
36947SOL    HW112680   5.712  13.275  10.735
36947SOL    HW212681   5.713  13.395  10.643
36948SOL     OW12682  14.467  11.849   8.815
36948SOL    HW112683  14.440  11.879   8.902
36948SOL    HW212684  14.387  11.857   8.762
36949SOL     OW12685   5.342   7.659   4.491
36949SOL    HW112686   5.411   7.686   4.430
36949SOL    HW212687   5.351   7.719   4.565
36950SOL     OW12688   3.119  11.839   2.854
36950SOL    HW112689   3.063  11.908   2.817
36950SOL    HW212690   3.145  11.786   2.779
36951SOL     OW12691   4.451   1.356  10.537
36951SOL    HW112692   4.415   1.339  10.624
36951SOL    HW212693   4.493   1.274  10.511
36952SOL     OW12694  11.710  11.576   6.942
36952SOL    HW112695  11.623  11.611   6.960
36952SOL    HW212696  11.732  11.523   7.019
36953SOL     OW12697   8.120   9.677   4.663
36953SOL    HW112698   8.121   9.720   4.578
36953SOL    HW212699   8.159   9.741   4.723
36954SOL     OW12700  12.449  12.595  10.523
36954SOL    HW112701  12.419  12.685  10.515
36954SOL    HW212702  12.419  12.552  10.443
36955SOL     OW12703   1.990  11.375   0.866
36955SOL    HW112704   2.005  11.326   0.947
36955SOL    HW212705   2.003  11.311   0.796
36956SOL     OW12706   0.923   9.316  11.695
36956SOL    HW112707   0.847   9.368  11.724
36956SOL    HW212708   0.887   9.229  11.678
36957SOL     OW12709   3.329   4.669   2.206
36957SOL    HW112710   3.258   4.634   2.260
36957SOL    HW212711   3.385   4.716   2.267
36958SOL     OW12712   5.280   6.900   7.304
36958SOL    HW112713   5.185   6.886   7.307
36958SOL    HW212714   5.296   6.970   7.367
36959SOL     OW12715  10.934   0.160   3.469
36959SOL    HW112716  10.999   0.113   3.417
36959SOL    HW212717  10.926   0.245   3.426
36960SOL     OW12718   5.970  13.869  12.480
36960SOL    HW112719   5.957  13.819  12.560
36960SOL    HW212720   5.998  13.804  12.416
36961SOL     OW12721  14.709  10.491   4.199
36961SOL    HW112722  14.723  10.409   4.246
36961SOL    HW212723  14.619  10.486   4.169
36962SOL     OW12724   4.333   2.217   4.126
36962SOL    HW112725   4.272   2.149   4.095
36962SOL    HW212726   4.281   2.269   4.187
36963SOL     OW12727  12.765   8.920   1.891
36963SOL    HW112728  12.722   9.001   1.917
36963SOL    HW212729  12.726   8.898   1.806
36964SOL     OW12730   2.169  11.026   8.611
36964SOL    HW112731   2.104  11.064   8.669
36964SOL    HW212732   2.136  10.938   8.592
36965SOL     OW12733   1.285   7.508  14.353
36965SOL    HW112734   1.234   7.539  14.278
36965SOL    HW212735   1.284   7.412  14.344
36966SOL     OW12736   2.293   8.668  14.421
36966SOL    HW112737   2.359   8.661  14.351
36966SOL    HW212738   2.271   8.761  14.423
36967SOL     OW12739  10.409  14.747   2.003
36967SOL    HW112740  10.339  14.810   1.987
36967SOL    HW212741  10.490  14.796   1.986
36968SOL     OW12742  10.400  10.764  14.367
36968SOL    HW112743  10.487  10.727  14.352
36968SOL    HW212744  10.342  10.688  14.373
36969SOL     OW12745  11.549   7.322  13.916
36969SOL    HW112746  11.515   7.412  13.915
36969SOL    HW212747  11.566   7.302  13.824
36970SOL     OW12748   1.961   7.933   0.512
36970SOL    HW112749   1.923   7.893   0.433
36970SOL    HW212750   2.032   7.988   0.479
36971SOL     OW12751   0.886   6.416   7.435
36971SOL    HW112752   0.968   6.423   7.484
36971SOL    HW212753   0.819   6.402   7.502
36972SOL     OW12754   3.424   2.945   0.552
36972SOL    HW112755   3.400   2.903   0.470
36972SOL    HW212756   3.465   3.028   0.526
36973SOL     OW12757   7.619  10.020   0.660
36973SOL    HW112758   7.691  10.024   0.597
36973SOL    HW212759   7.590  10.111   0.669
36974SOL     OW12760   3.512   3.572   8.021
36974SOL    HW112761   3.432   3.527   8.050
36974SOL    HW212762   3.547   3.516   7.952
36975SOL     OW12763   2.548   4.822   6.328
36975SOL    HW112764   2.488   4.770   6.274
36975SOL    HW212765   2.499   4.839   6.409
36976SOL     OW12766   1.420   6.301   9.593
36976SOL    HW112767   1.504   6.256   9.597
36976SOL    HW212768   1.429   6.375   9.653
36977SOL     OW12769   9.602   9.580   4.010
36977SOL    HW112770   9.558   9.498   4.032
36977SOL    HW212771   9.615   9.576   3.915
36978SOL     OW12772  13.147   2.523  11.632
36978SOL    HW112773  13.168   2.449  11.690
36978SOL    HW212774  13.227   2.575  11.629
36979SOL     OW12775   2.586  10.480   4.041
36979SOL    HW112776   2.580  10.401   4.095
36979SOL    HW212777   2.658  10.463   3.981
36980SOL     OW12778   3.045  11.329   8.732
36980SOL    HW112779   2.950  11.332   8.736
36980SOL    HW212780   3.064  11.247   8.686
36981SOL     OW12781  14.302   5.628   7.015
36981SOL    HW112782  14.332   5.538   6.997
36981SOL    HW212783  14.270   5.624   7.106
36982SOL     OW12784   3.044   7.988   1.004
36982SOL    HW112785   3.080   8.002   0.916
36982SOL    HW212786   2.967   7.932   0.989
36983SOL     OW12787   9.563   0.992   0.237
36983SOL    HW112788   9.624   0.950   0.177
36983SOL    HW212789   9.488   1.014   0.183
36984SOL     OW12790  13.881  14.740   0.342
36984SOL    HW112791  13.848  14.670   0.286
36984SOL    HW212792  13.957  14.701   0.386
36985SOL     OW12793   3.680   0.154   6.097
36985SOL    HW112794   3.676   0.226   6.159
36985SOL    HW212795   3.660   0.076   6.148
36986SOL     OW12796   7.099   9.652  13.438
36986SOL    HW112797   7.094   9.557  13.441
36986SOL    HW212798   7.157   9.670  13.364
36987SOL     OW12799   0.482   8.316   5.724
36987SOL    HW112800   0.496   8.310   5.630
36987SOL    HW212801   0.447   8.230   5.748
36988SOL     OW12802   0.757  13.800   9.161
36988SOL    HW112803   0.795  13.851   9.089
36988SOL    HW212804   0.831  13.754   9.201
36989SOL     OW12805  10.799   3.305  11.709
36989SOL    HW112806  10.757   3.373  11.656
36989SOL    HW212807  10.842   3.248  11.644
36990SOL     OW12808  13.494   9.628  12.201
36990SOL    HW112809  13.560   9.662  12.262
36990SOL    HW212810  13.545   9.587  12.131
36991SOL     OW12811  10.497   2.459  11.835
36991SOL    HW112812  10.405   2.437  11.828
36991SOL    HW212813  10.510   2.529  11.771
36992SOL     OW12814  11.489  12.629  13.445
36992SOL    HW112815  11.526  12.554  13.398
36992SOL    HW212816  11.395  12.611  13.448
36993SOL     OW12817  14.399   5.127   2.900
36993SOL    HW112818  14.471   5.071   2.931
36993SOL    HW212819  14.437   5.215   2.899
36994SOL     OW12820  12.087   6.079  11.564
36994SOL    HW112821  12.068   6.168  11.593
36994SOL    HW212822  12.145   6.089  11.488
36995SOL     OW12823   7.519   7.256   0.074
36995SOL    HW112824   7.499   7.278   0.165
36995SOL    HW212825   7.567   7.332   0.040
36996SOL     OW12826   9.183   8.493  11.428
36996SOL    HW112827   9.126   8.442  11.485
36996SOL    HW212828   9.151   8.474  11.340
36997SOL     OW12829   8.746   4.938   8.042
36997SOL    HW112830   8.683   4.911   8.108
36997SOL    HW212831   8.693   4.966   7.968
36998SOL     OW12832   9.985   7.087  10.166
36998SOL    HW112833   9.941   7.006  10.139
36998SOL    HW212834  10.052   7.101  10.099
36999SOL     OW12835  14.509   8.695   6.981
36999SOL    HW112836  14.479   8.766   6.924
36999SOL    HW212837  14.467   8.616   6.945
37000SOL     OW12838   8.115  13.050   5.056
37000SOL    HW112839   8.114  13.014   5.144
37000SOL    HW212840   8.207  13.045   5.030
37001SOL     OW12841   8.281   2.136   2.737
37001SOL    HW112842   8.278   2.042   2.719
37001SOL    HW212843   8.266   2.144   2.831
37002SOL     OW12844   7.056  13.234   1.182
37002SOL    HW112845   7.047  13.254   1.089
37002SOL    HW212846   7.151  13.232   1.196
37003SOL     OW12847  10.533  13.112   8.300
37003SOL    HW112848  10.511  13.188   8.246
37003SOL    HW212849  10.617  13.081   8.265
37004SOL     OW12850  11.338   4.531   5.795
37004SOL    HW112851  11.307   4.604   5.742
37004SOL    HW212852  11.384   4.474   5.734
37005SOL     OW12853  10.711  10.081   0.622
37005SOL    HW112854  10.789  10.130   0.595
37005SOL    HW212855  10.638  10.137   0.596
37006SOL     OW12856   8.318  10.715   5.366
37006SOL    HW112857   8.303  10.808   5.351
37006SOL    HW212858   8.373  10.712   5.443
37007SOL     OW12859  10.384  10.939   0.830
37007SOL    HW112860  10.365  10.938   0.923
37007SOL    HW212861  10.304  10.906   0.788
37008SOL     OW12862   5.273  14.231  12.957
37008SOL    HW112863   5.318  14.291  12.897
37008SOL    HW212864   5.221  14.288  13.013
37009SOL     OW12865   5.285   0.292   2.228
37009SOL    HW112866   5.352   0.270   2.293
37009SOL    HW212867   5.287   0.220   2.165
37010SOL     OW12868   0.475  12.334  11.032
37010SOL    HW112869   0.497  12.361  10.943
37010SOL    HW212870   0.522  12.396  11.088
37011SOL     OW12871   0.005   7.071  14.143
37011SOL    HW112872  14.785   7.062  14.163
37011SOL    HW212873   0.009   7.147  14.085
37012SOL     OW12874   8.498  13.571  10.807
37012SOL    HW112875   8.548  13.588  10.887
37012SOL    HW212876   8.535  13.630  10.742
37013SOL     OW12877  11.041  12.527   1.444
37013SOL    HW112878  11.124  12.572   1.429
37013SOL    HW212879  10.981  12.596   1.472
37014SOL     OW12880  14.205   8.100   0.403
37014SOL    HW112881  14.140   8.037   0.371
37014SOL    HW212882  14.276   8.095   0.339
37015SOL     OW12883   3.052   0.471  10.834
37015SOL    HW112884   3.075   0.520  10.755
37015SOL    HW212885   2.979   0.519  10.871
37016SOL     OW12886   6.540   9.603  10.967
37016SOL    HW112887   6.571   9.581  11.055
37016SOL    HW212888   6.586   9.543  10.909
37017SOL     OW12889   4.833  12.759   8.121
37017SOL    HW112890   4.811  12.787   8.032
37017SOL    HW212891   4.754  12.716   8.154
37018SOL     OW12892   1.682   9.647   5.078
37018SOL    HW112893   1.658   9.618   4.990
37018SOL    HW212894   1.771   9.680   5.069
37019SOL     OW12895  14.781  11.124  11.061
37019SOL    HW112896  14.824  11.085  11.136
37019SOL    HW212897  14.847  11.183  11.024
37020SOL     OW12898   4.171   3.589   5.421
37020SOL    HW112899   4.099   3.560   5.366
37020SOL    HW212900   4.139   3.670   5.462
37021SOL     OW12901   2.193  14.719   7.580
37021SOL    HW112902   2.220  14.698   7.669
37021SOL    HW212903   2.270  14.760   7.540
37022SOL     OW12904   3.839   3.520  12.409
37022SOL    HW112905   3.782   3.557  12.476
37022SOL    HW212906   3.795   3.539  12.326
37023SOL     OW12907   3.238  13.653   9.076
37023SOL    HW112908   3.179  13.686   9.008
37023SOL    HW212909   3.180  13.638   9.152
37024SOL     OW12910   8.530   7.401   3.875
37024SOL    HW112911   8.486   7.321   3.844
37024SOL    HW212912   8.544   7.452   3.795
37025SOL     OW12913   4.187  10.731   6.616
37025SOL    HW112914   4.134  10.795   6.664
37025SOL    HW212915   4.124  10.665   6.588
37026SOL     OW12916   4.249  13.090  14.169
37026SOL    HW112917   4.270  13.095  14.076
37026SOL    HW212918   4.198  13.169  14.187
37027SOL     OW12919   4.704   4.139   4.229
37027SOL    HW112920   4.797   4.161   4.238
37027SOL    HW212921   4.701   4.078   4.156
37028SOL     OW12922  10.721   8.918  13.149
37028SOL    HW112923  10.683   8.912  13.236
37028SOL    HW212924  10.692   8.839  13.104
37029SOL     OW12925  10.914  14.825   9.637
37029SOL    HW112926  10.875  14.830   9.724
37029SOL    HW212927  10.976  14.753   9.642
37030SOL     OW12928  13.508   7.406   2.214
37030SOL    HW112929  13.479   7.482   2.163
37030SOL    HW212930  13.530   7.442   2.300
37031SOL     OW12931  11.249   4.805   0.240
37031SOL    HW112932  11.201   4.778   0.318
37031SOL    HW212933  11.269   4.898   0.255
37032SOL     OW12934   9.079  14.589   0.920
37032SOL    HW112935   9.142  14.547   0.861
37032SOL    HW212936   9.102  14.682   0.917
37033SOL     OW12937  12.376  14.770   0.436
37033SOL    HW112938  12.449  14.709   0.447
37033SOL    HW212939  12.371  14.817   0.519
37034SOL     OW12940   0.913  10.040   2.438
37034SOL    HW112941   0.994   9.994   2.418
37034SOL    HW212942   0.855   9.972   2.473
37035SOL     OW12943   0.520   7.426  12.848
37035SOL    HW112944   0.437   7.378  12.856
37035SOL    HW212945   0.582   7.373  12.899
37036SOL     OW12946   4.015   7.103   9.419
37036SOL    HW112947   4.089   7.145   9.463
37036SOL    HW212948   4.018   7.012   9.449
37037SOL     OW12949  11.773   2.187   8.931
37037SOL    HW112950  11.679   2.206   8.930
37037SOL    HW212951  11.780   2.100   8.971
37038SOL     OW12952   8.530   6.064   4.397
37038SOL    HW112953   8.484   6.123   4.456
37038SOL    HW212954   8.620   6.098   4.395
37039SOL     OW12955   1.762   7.888   9.893
37039SOL    HW112956   1.753   7.876   9.799
37039SOL    HW212957   1.823   7.961   9.903
37040SOL     OW12958   8.217   7.181  12.950
37040SOL    HW112959   8.230   7.121  13.023
37040SOL    HW212960   8.267   7.259  12.974
37041SOL     OW12961   7.494  13.502  10.294
37041SOL    HW112962   7.552  13.448  10.240
37041SOL    HW212963   7.551  13.538  10.362
37042SOL     OW12964  13.032  13.249  12.495
37042SOL    HW112965  12.992  13.280  12.414
37042SOL    HW212966  12.967  13.190  12.533
37043SOL     OW12967  12.236   1.001  14.662
37043SOL    HW112968  12.276   0.929  14.710
37043SOL    HW212969  12.248   1.077  14.718
37044SOL     OW12970  11.696   6.920   7.410
37044SOL    HW112971  11.694   6.855   7.480
37044SOL    HW212972  11.781   6.964   7.421
37045SOL     OW12973   4.679   2.355  11.872
37045SOL    HW112974   4.678   2.445  11.838
37045SOL    HW212975   4.751   2.353  11.934
37046SOL     OW12976  11.153   4.009   6.822
37046SOL    HW112977  11.183   4.074   6.757
37046SOL    HW212978  11.219   4.013   6.891
37047SOL     OW12979   4.414   8.367  11.642
37047SOL    HW112980   4.421   8.272  11.631
37047SOL    HW212981   4.500   8.400  11.616
37048SOL     OW12982  11.621   2.088  12.658
37048SOL    HW112983  11.621   2.175  12.617
37048SOL    HW212984  11.649   2.029  12.587
37049SOL     OW12985   0.409   9.768   5.542
37049SOL    HW112986   0.320   9.741   5.519
37049SOL    HW212987   0.429   9.717   5.620
37050SOL     OW12988   5.495   2.442   4.287
37050SOL    HW112989   5.568   2.436   4.224
37050SOL    HW212990   5.520   2.383   4.357
37051SOL     OW12991  14.138   0.231   3.445
37051SOL    HW112992  14.065   0.265   3.496
37051SOL    HW212993  14.216   0.258   3.493
37052SOL     OW12994   1.559   0.079   9.400
37052SOL    HW112995   1.606   0.104   9.321
37052SOL    HW212996   1.620   0.023   9.448
37053SOL     OW12997   2.000   7.465   5.995
37053SOL    HW112998   2.091   7.437   6.001
37053SOL    HW212999   1.990   7.496   5.905
37054SOL     OW13000   5.519   8.286  10.704
37054SOL    HW113001   5.490   8.356  10.764
37054SOL    HW213002   5.606   8.262  10.737
37055SOL     OW13003   3.500   9.878   5.172
37055SOL    HW113004   3.431   9.843   5.228
37055SOL    HW213005   3.573   9.817   5.183
37056SOL     OW13006   5.289   7.849  14.037
37056SOL    HW113007   5.351   7.905  13.991
37056SOL    HW213008   5.263   7.784  13.971
37057SOL     OW13009   4.454  14.742  14.154
37057SOL    HW113010   4.463  14.783  14.068
37057SOL    HW213011   4.504  14.798  14.213
37058SOL     OW13012  14.598   9.657  11.354
37058SOL    HW113013  14.657   9.691  11.287
37058SOL    HW213014  14.620   9.708  11.432
37059SOL     OW13015  10.998   5.322   6.897
37059SOL    HW113016  10.920   5.300   6.847
37059SOL    HW213017  11.059   5.357   6.832
37060SOL     OW13018   3.192  11.930   9.846
37060SOL    HW113019   3.126  11.999   9.859
37060SOL    HW213020   3.162  11.883   9.769
37061SOL     OW13021  12.627   5.400   6.067
37061SOL    HW113022  12.615   5.453   5.988
37061SOL    HW213023  12.555   5.424   6.124
37062SOL     OW13024   7.210   6.148   9.246
37062SOL    HW113025   7.207   6.213   9.316
37062SOL    HW213026   7.142   6.175   9.185
37063SOL     OW13027  14.360   3.902  10.544
37063SOL    HW113028  14.369   3.913  10.638
37063SOL    HW213029  14.429   3.957  10.507
37064SOL     OW13030   2.971   1.487  14.527
37064SOL    HW113031   3.043   1.534  14.486
37064SOL    HW213032   2.899   1.496  14.465
37065SOL     OW13033   6.132   3.675  13.309
37065SOL    HW113034   6.134   3.608  13.241
37065SOL    HW213035   6.181   3.636  13.382
37066SOL     OW13036  11.385  10.222   6.944
37066SOL    HW113037  11.338  10.148   6.905
37066SOL    HW213038  11.375  10.293   6.880
37067SOL     OW13039  10.617  12.136  13.915
37067SOL    HW113040  10.573  12.193  13.852
37067SOL    HW213041  10.565  12.056  13.915
37068SOL     OW13042   8.292  11.654   1.029
37068SOL    HW113043   8.285  11.743   0.997
37068SOL    HW213044   8.341  11.662   1.111
37069SOL     OW13045   5.872   7.763  10.896
37069SOL    HW113046   5.960   7.798  10.884
37069SOL    HW213047   5.853   7.716  10.815
37070SOL     OW13048   7.173   8.509  14.510
37070SOL    HW113049   7.234   8.437  14.494
37070SOL    HW213050   7.178   8.563  14.430
37071SOL     OW13051  10.059   9.729   4.238
37071SOL    HW113052  10.098   9.782   4.168
37071SOL    HW213053  10.044   9.791   4.309
37072SOL     OW13054   2.489   2.639  13.935
37072SOL    HW113055   2.529   2.553  13.947
37072SOL    HW213056   2.551   2.687  13.881
37073SOL     OW13057   9.296   9.992  14.823
37073SOL    HW113058   9.213   9.944  14.818
37073SOL    HW213059   9.357   9.940  14.770
37074SOL     OW13060  10.709   1.291   8.219
37074SOL    HW113061  10.659   1.227   8.168
37074SOL    HW213062  10.801   1.272   8.198
37075SOL     OW13063  12.940   2.815   7.327
37075SOL    HW113064  12.978   2.839   7.411
37075SOL    HW213065  12.997   2.746   7.294
37076SOL     OW13066  11.435  10.870   5.345
37076SOL    HW113067  11.382  10.879   5.425
37076SOL    HW213068  11.524  10.857   5.377
37077SOL     OW13069   6.437   4.734   6.813
37077SOL    HW113070   6.483   4.677   6.751
37077SOL    HW213071   6.415   4.676   6.886
37078SOL     OW13072   4.201  10.236   6.983
37078SOL    HW113073   4.120  10.256   7.030
37078SOL    HW213074   4.247  10.320   6.975
37079SOL     OW13075  13.142   4.311   6.991
37079SOL    HW113076  13.221   4.268   6.959
37079SOL    HW213077  13.130   4.386   6.933
37080SOL     OW13078   1.928  13.549   0.114
37080SOL    HW113079   1.982  13.605   0.170
37080SOL    HW213080   1.840  13.556   0.150
37081SOL     OW13081   5.114   4.163  10.810
37081SOL    HW113082   5.077   4.248  10.834
37081SOL    HW213083   5.199   4.159  10.856
37082SOL     OW13084   0.249   0.028   5.016
37082SOL    HW113085   0.265   0.088   5.089
37082SOL    HW213086   0.182   0.071   4.963
37083SOL     OW13087  13.709   4.541   7.494
37083SOL    HW113088  13.724   4.455   7.532
37083SOL    HW213089  13.618   4.538   7.463
37084SOL     OW13090  12.613   3.921   0.673
37084SOL    HW113091  12.528   3.910   0.631
37084SOL    HW213092  12.625   3.842   0.726
37085SOL     OW13093   9.713   9.146   0.881
37085SOL    HW113094   9.727   9.075   0.818
37085SOL    HW213095   9.657   9.108   0.949
37086SOL     OW13096   6.814   6.982  13.439
37086SOL    HW113097   6.787   6.892  13.418
37086SOL    HW213098   6.777   7.035  13.368
37087SOL     OW13099  11.652   6.676   0.616
37087SOL    HW113100  11.715   6.621   0.570
37087SOL    HW213101  11.578   6.684   0.556
37088SOL     OW13102  11.236   6.056   8.397
37088SOL    HW113103  11.322   6.090   8.419
37088SOL    HW213104  11.205   6.113   8.326
37089SOL     OW13105   8.507  10.399   9.154
37089SOL    HW113106   8.564  10.361   9.088
37089SOL    HW213107   8.554  10.388   9.237
37090SOL     OW13108  10.747   8.156  11.662
37090SOL    HW113109  10.735   8.118  11.575
37090SOL    HW213110  10.809   8.228  11.650
37091SOL     OW13111   9.779   9.617   4.227
37091SOL    HW113112   9.814   9.702   4.201
37091SOL    HW213113   9.729   9.588   4.150
37092SOL     OW13114   5.079   9.117   0.269
37092SOL    HW113115   5.147   9.068   0.314
37092SOL    HW213116   5.014   9.135   0.338
37093SOL     OW13117   4.176  12.521  13.318
37093SOL    HW113118   4.144  12.474  13.395
37093SOL    HW213119   4.118  12.597  13.310
37094SOL     OW13120   3.010  13.584  11.197
37094SOL    HW113121   3.090  13.532  11.206
37094SOL    HW213122   3.025  13.637  11.118
37095SOL     OW13123   4.274  10.587   3.347
37095SOL    HW113124   4.366  10.607   3.332
37095SOL    HW213125   4.248  10.644   3.420
37096SOL     OW13126  11.024   7.729  14.068
37096SOL    HW113127  11.110   7.707  14.104
37096SOL    HW213128  10.974   7.759  14.143
37097SOL     OW13129  14.821   8.704  13.896
37097SOL    HW113130   0.027   8.689  13.845
37097SOL    HW213131  14.848   8.765  13.965
37098SOL     OW13132   4.119   1.348  12.922
37098SOL    HW113133   4.106   1.296  12.843
37098SOL    HW213134   4.073   1.430  12.905
37099SOL     OW13135   6.132   0.641  13.187
37099SOL    HW113136   6.117   0.651  13.093
37099SOL    HW213137   6.199   0.705  13.208
37100SOL     OW13138  12.291  14.457   6.624
37100SOL    HW113139  12.300  14.376   6.574
37100SOL    HW213140  12.217  14.440   6.683
37101SOL     OW13141   6.698   1.546  13.761
37101SOL    HW113142   6.715   1.483  13.831
37101SOL    HW213143   6.742   1.626  13.789
37102SOL     OW13144  10.527  10.124   3.652
37102SOL    HW113145  10.450  10.105   3.705
37102SOL    HW213146  10.595  10.148   3.715
37103SOL     OW13147   1.056   0.943   3.958
37103SOL    HW113148   1.077   0.883   3.887
37103SOL    HW213149   0.963   0.929   3.975
37104SOL     OW13150   9.810   7.780   3.885
37104SOL    HW113151   9.880   7.829   3.929
37104SOL    HW213152   9.853   7.732   3.815
37105SOL     OW13153   5.707   7.030   9.867
37105SOL    HW113154   5.802   7.036   9.874
37105SOL    HW213155   5.682   6.967   9.935
37106SOL     OW13156   4.114   8.852   8.799
37106SOL    HW113157   4.197   8.895   8.779
37106SOL    HW213158   4.082   8.821   8.714
37107SOL     OW13159   7.605   5.249   0.063
37107SOL    HW113160   7.599   5.336   0.102
37107SOL    HW213161   7.514   5.222   0.049
37108SOL     OW13162   9.838   7.276  11.733
37108SOL    HW113163   9.850   7.320  11.817
37108SOL    HW213164   9.753   7.232  11.741
37109SOL     OW13165   4.728  12.869  14.843
37109SOL    HW113166   4.643  12.907  14.866
37109SOL    HW213167   4.774  12.941  14.799
37110SOL     OW13168   2.633   8.265  13.603
37110SOL    HW113169   2.658   8.358  13.607
37110SOL    HW213170   2.714   8.218  13.622
37111SOL     OW13171   8.697   9.958   0.270
37111SOL    HW113172   8.668   9.867   0.273
37111SOL    HW213173   8.783   9.954   0.228
37112SOL     OW13174   9.968   6.118   6.179
37112SOL    HW113175   9.918   6.185   6.226
37112SOL    HW213176  10.057   6.154   6.174
37113SOL     OW13177   5.000   1.316  13.955
37113SOL    HW113178   4.974   1.235  13.999
37113SOL    HW213179   4.963   1.309  13.867
37114SOL     OW13180  12.316   7.279   5.993
37114SOL    HW113181  12.399   7.267   5.947
37114SOL    HW213182  12.323   7.365   6.034
37115SOL     OW13183   1.687   6.943   5.443
37115SOL    HW113184   1.628   6.877   5.480
37115SOL    HW213185   1.737   6.896   5.377
37116SOL     OW13186   3.567   2.098  12.759
37116SOL    HW113187   3.585   2.141  12.842
37116SOL    HW213188   3.634   2.131  12.699
37117SOL     OW13189  14.434  14.057  10.109
37117SOL    HW113190  14.492  13.991  10.147
37117SOL    HW213191  14.386  14.093  10.183
37118SOL     OW13192  11.485  11.222   5.245
37118SOL    HW113193  11.492  11.132   5.213
37118SOL    HW213194  11.572  11.242   5.279
37119SOL     OW13195   1.346   8.328   4.176
37119SOL    HW113196   1.394   8.407   4.151
37119SOL    HW213197   1.352   8.271   4.099
37120SOL     OW13198   6.047   4.420   9.293
37120SOL    HW113199   6.014   4.394   9.380
37120SOL    HW213200   6.103   4.496   9.310
37121SOL     OW13201   0.803   4.575   1.649
37121SOL    HW113202   0.871   4.641   1.647
37121SOL    HW213203   0.782   4.565   1.742
37122SOL     OW13204   2.436   9.625   1.361
37122SOL    HW113205   2.383   9.553   1.397
37122SOL    HW213206   2.523   9.612   1.398
37123SOL     OW13207   1.842   8.357   3.686
37123SOL    HW113208   1.774   8.366   3.620
37123SOL    HW213209   1.856   8.262   3.692
37124SOL     OW13210  10.978   7.408   6.878
37124SOL    HW113211  11.070   7.427   6.858
37124SOL    HW213212  10.981   7.341   6.946
37125SOL     OW13213  14.602  11.878   7.297
37125SOL    HW113214  14.683  11.925   7.317
37125SOL    HW213215  14.533  11.943   7.308
37126SOL     OW13216  10.697  12.249  10.416
37126SOL    HW113217  10.784  12.251  10.455
37126SOL    HW213218  10.691  12.163  10.375
37127SOL     OW13219  12.318  14.219   3.380
37127SOL    HW113220  12.256  14.267   3.434
37127SOL    HW213221  12.263  14.173   3.316
37128SOL     OW13222  13.120  11.078  10.538
37128SOL    HW113223  13.040  11.040  10.501
37128SOL    HW213224  13.096  11.169  10.556
37129SOL     OW13225   6.974  11.067   4.244
37129SOL    HW113226   7.004  11.100   4.160
37129SOL    HW213227   6.884  11.096   4.251
37130SOL     OW13228   3.578   4.508   2.842
37130SOL    HW113229   3.646   4.447   2.870
37130SOL    HW213230   3.511   4.502   2.909
37131SOL     OW13231   3.101   1.452   6.879
37131SOL    HW113232   3.103   1.370   6.828
37131SOL    HW213233   3.020   1.495   6.852
37132SOL     OW13234   0.531   1.476  12.088
37132SOL    HW113235   0.517   1.487  12.182
37132SOL    HW213236   0.553   1.384  12.077
37133SOL     OW13237  13.058   5.423  10.866
37133SOL    HW113238  13.103   5.433  10.950
37133SOL    HW213239  12.997   5.497  10.863
37134SOL     OW13240   9.834   6.975   0.436
37134SOL    HW113241   9.851   7.050   0.378
37134SOL    HW213242   9.748   6.994   0.473
37135SOL     OW13243   2.624   7.661  10.761
37135SOL    HW113244   2.529   7.651  10.767
37135SOL    HW213245   2.647   7.717  10.835
37136SOL     OW13246  14.293   8.864   0.653
37136SOL    HW113247  14.367   8.821   0.611
37136SOL    HW213248  14.328   8.898   0.735
37137SOL     OW13249   7.169  10.671  12.491
37137SOL    HW113250   7.153  10.640  12.580
37137SOL    HW213251   7.116  10.751  12.484
37138SOL     OW13252  11.663   4.273   1.594
37138SOL    HW113253  11.571   4.255   1.578
37138SOL    HW213254  11.666   4.310   1.682
37139SOL     OW13255   0.956  11.240  13.352
37139SOL    HW113256   1.028  11.232  13.415
37139SOL    HW213257   0.878  11.252  13.406
37140SOL     OW13258  12.728  13.448  14.108
37140SOL    HW113259  12.770  13.419  14.188
37140SOL    HW213260  12.757  13.385  14.041
37141SOL     OW13261   1.459   0.268  10.171
37141SOL    HW113262   1.385   0.276  10.233
37141SOL    HW213263   1.537   0.272  10.227
37142SOL     OW13264   8.752   3.158   9.824
37142SOL    HW113265   8.659   3.136   9.816
37142SOL    HW213266   8.798   3.081   9.788
37143SOL     OW13267  12.817   9.310   1.520
37143SOL    HW113268  12.880   9.382   1.515
37143SOL    HW213269  12.869   9.235   1.547
37144SOL     OW13270   7.823   8.279   3.456
37144SOL    HW113271   7.901   8.329   3.430
37144SOL    HW213272   7.848   8.237   3.539
37145SOL     OW13273  14.106   9.133   3.165
37145SOL    HW113274  14.067   9.219   3.151
37145SOL    HW213275  14.198   9.144   3.141
37146SOL     OW13276   7.087   6.908   9.341
37146SOL    HW113277   7.108   6.880   9.430
37146SOL    HW213278   7.103   6.831   9.287
37147SOL     OW13279  13.292   8.838   1.855
37147SOL    HW113280  13.216   8.876   1.898
37147SOL    HW213281  13.279   8.856   1.762
37148SOL     OW13282   0.290   4.690   7.812
37148SOL    HW113283   0.326   4.762   7.760
37148SOL    HW213284   0.314   4.611   7.763
37149SOL     OW13285   0.187   3.210  10.867
37149SOL    HW113286   0.248   3.209  10.941
37149SOL    HW213287   0.133   3.288  10.882
37150SOL     OW13288   2.649   7.326  10.450
37150SOL    HW113289   2.579   7.298  10.509
37150SOL    HW213290   2.633   7.278  10.369
37151SOL     OW13291   0.998  11.642   6.401
37151SOL    HW113292   0.948  11.611   6.325
37151SOL    HW213293   1.086  11.657   6.367
37152SOL     OW13294   2.279   7.692   9.187
37152SOL    HW113295   2.364   7.733   9.201
37152SOL    HW213296   2.222   7.732   9.253
37153SOL     OW13297   5.814   1.610   0.054
37153SOL    HW113298   5.833   1.662   0.132
37153SOL    HW213299   5.751   1.663   0.005
37154SOL     OW13300   7.269  14.592  11.734
37154SOL    HW113301   7.259  14.617  11.642
37154SOL    HW213302   7.321  14.511  11.731
37155SOL     OW13303   0.185   8.432  13.258
37155SOL    HW113304   0.128   8.433  13.334
37155SOL    HW213305   0.245   8.359  13.273
37156SOL     OW13306   5.470  14.015   3.161
37156SOL    HW113307   5.454  14.091   3.106
37156SOL    HW213308   5.565  14.014   3.175
37157SOL     OW13309  13.334   8.888   9.497
37157SOL    HW113310  13.259   8.915   9.551
37157SOL    HW213311  13.295   8.861   9.415
37158SOL     OW13312  12.867   7.600   1.423
37158SOL    HW113313  12.930   7.551   1.371
37158SOL    HW213314  12.837   7.670   1.364
37159SOL     OW13315   8.892  13.454   9.098
37159SOL    HW113316   8.956  13.469   9.167
37159SOL    HW213317   8.811  13.433   9.144
37160SOL     OW13318   9.739  14.608  12.799
37160SOL    HW113319   9.702  14.694  12.818
37160SOL    HW213320   9.667  14.547  12.815
37161SOL     OW13321   6.851   4.269   5.470
37161SOL    HW113322   6.837   4.191   5.523
37161SOL    HW213323   6.946   4.276   5.462
37162SOL     OW13324   2.462   3.881   5.002
37162SOL    HW113325   2.530   3.923   5.054
37162SOL    HW213326   2.504   3.804   4.965
37163SOL     OW13327  13.606   1.897   4.756
37163SOL    HW113328  13.701   1.885   4.759
37163SOL    HW213329  13.580   1.904   4.848
37164SOL     OW13330   8.126   9.270  12.649
37164SOL    HW113331   8.052   9.310  12.694
37164SOL    HW213332   8.196   9.336  12.655
37165SOL     OW13333  10.855   1.465   8.895
37165SOL    HW113334  10.866   1.517   8.974
37165SOL    HW213335  10.856   1.529   8.824
37166SOL     OW13336   7.403   2.787   9.450
37166SOL    HW113337   7.340   2.816   9.517
37166SOL    HW213338   7.354   2.793   9.368
37167SOL     OW13339  13.517  14.093  10.297
37167SOL    HW113340  13.485  14.181  10.277
37167SOL    HW213341  13.587  14.078  10.233
37168SOL     OW13342   3.489   4.504   9.007
37168SOL    HW113343   3.467   4.443   9.078
37168SOL    HW213344   3.413   4.563   9.001
37169SOL     OW13345   9.644   2.104   6.090
37169SOL    HW113346   9.632   2.146   6.004
37169SOL    HW213347   9.626   2.173   6.153
37170SOL     OW13348  12.671   3.180  12.735
37170SOL    HW113349  12.695   3.199  12.645
37170SOL    HW213350  12.617   3.101  12.730
37171SOL     OW13351   2.336   0.286   7.096
37171SOL    HW113352   2.337   0.256   7.005
37171SOL    HW213353   2.347   0.381   7.089
37172SOL     OW13354   4.587   1.293   1.871
37172SOL    HW113355   4.656   1.359   1.873
37172SOL    HW213356   4.632   1.211   1.850
37173SOL     OW13357   4.555  11.708   8.138
37173SOL    HW113358   4.502  11.717   8.058
37173SOL    HW213359   4.636  11.755   8.118
37174SOL     OW13360   4.162  14.676  14.142
37174SOL    HW113361   4.141  14.655  14.233
37174SOL    HW213362   4.258  14.686  14.141
37175SOL     OW13363  14.108   9.249  11.039
37175SOL    HW113364  14.119   9.180  10.974
37175SOL    HW213365  14.078   9.204  11.118
37176SOL     OW13366   0.623   8.860   8.075
37176SOL    HW113367   0.645   8.892   8.163
37176SOL    HW213368   0.668   8.776   8.068
37177SOL     OW13369  11.218   7.378   2.934
37177SOL    HW113370  11.310   7.395   2.955
37177SOL    HW213371  11.220   7.319   2.859
37178SOL     OW13372   1.025  13.284   9.893
37178SOL    HW113373   1.089  13.346   9.928
37178SOL    HW213374   1.020  13.305   9.800
37179SOL     OW13375  11.104   0.071   0.899
37179SOL    HW113376  11.032   0.084   0.960
37179SOL    HW213377  11.144  14.861   0.925
37180SOL     OW13378  10.493   5.956   5.074
37180SOL    HW113379  10.418   5.990   5.122
37180SOL    HW213380  10.458   5.885   5.021
37181SOL     OW13381   7.845  14.548   2.506
37181SOL    HW113382   7.909  14.620   2.501
37181SOL    HW213383   7.769  14.581   2.458
37182SOL     OW13384  11.505   9.457   2.894
37182SOL    HW113385  11.516   9.393   2.824
37182SOL    HW213386  11.457   9.529   2.854
37183SOL     OW13387   9.632  12.000   8.770
37183SOL    HW113388   9.658  11.911   8.748
37183SOL    HW213389   9.571  12.025   8.701
37184SOL     OW13390  13.194   1.066   8.674
37184SOL    HW113391  13.148   1.006   8.616
37184SOL    HW213392  13.201   1.017   8.757
37185SOL     OW13393   2.364   2.645  14.208
37185SOL    HW113394   2.391   2.653  14.117
37185SOL    HW213395   2.434   2.687  14.257
37186SOL     OW13396  13.377   1.815  11.578
37186SOL    HW113397  13.426   1.742  11.616
37186SOL    HW213398  13.334   1.856  11.653
37187SOL     OW13399   8.178   9.990   0.594
37187SOL    HW113400   8.177   9.945   0.679
37187SOL    HW213401   8.265  10.029   0.590
37188SOL     OW13402   4.133   6.254   5.261
37188SOL    HW113403   4.085   6.241   5.343
37188SOL    HW213404   4.065   6.277   5.197
37189SOL     OW13405   3.654  11.444   6.037
37189SOL    HW113406   3.698  11.496   6.105
37189SOL    HW213407   3.588  11.502   6.002
37190SOL     OW13408  12.597   4.801  10.423
37190SOL    HW113409  12.547   4.869  10.467
37190SOL    HW213410  12.669   4.781  10.482
37191SOL     OW13411   6.874   4.595  12.619
37191SOL    HW113412   6.859   4.564  12.708
37191SOL    HW213413   6.892   4.688  12.628
37192SOL     OW13414  11.946   4.443   1.634
37192SOL    HW113415  11.951   4.416   1.726
37192SOL    HW213416  12.012   4.391   1.589
37193SOL     OW13417   2.432   8.815  13.807
37193SOL    HW113418   2.360   8.850  13.755
37193SOL    HW213419   2.488   8.890  13.825
37194SOL     OW13420   3.049   9.410  11.282
37194SOL    HW113421   3.131   9.452  11.307
37194SOL    HW213422   2.980   9.467  11.317
37195SOL     OW13423   7.805   5.127   6.616
37195SOL    HW113424   7.842   5.099   6.699
37195SOL    HW213425   7.873   5.182   6.577
37196SOL     OW13426  13.048   5.796  14.728
37196SOL    HW113427  13.134   5.838  14.734
37196SOL    HW213428  13.065   5.711  14.689
37197SOL     OW13429   1.275  11.387   4.609
37197SOL    HW113430   1.268  11.292   4.596
37197SOL    HW213431   1.194  11.423   4.573
37198SOL     OW13432   0.598   2.845   5.909
37198SOL    HW113433   0.573   2.858   6.001
37198SOL    HW213434   0.677   2.898   5.899
37199SOL     OW13435   3.513   4.402   7.880
37199SOL    HW113436   3.561   4.382   7.799
37199SOL    HW213437   3.540   4.334   7.941
37200SOL     OW13438   9.885  12.640   3.768
37200SOL    HW113439   9.975  12.670   3.767
37200SOL    HW213440   9.839  12.701   3.711
37201SOL     OW13441   2.010   6.472   2.626
37201SOL    HW113442   2.081   6.411   2.648
37201SOL    HW213443   1.937   6.446   2.681
37202SOL     OW13444   3.366  14.741  11.688
37202SOL    HW113445   3.376  14.744  11.783
37202SOL    HW213446   3.396  14.827  11.658
37203SOL     OW13447  10.894  10.165   2.165
37203SOL    HW113448  10.829  10.197   2.228
37203SOL    HW213449  10.849  10.093   2.119
37204SOL     OW13450   4.180   4.501   2.801
37204SOL    HW113451   4.122   4.577   2.796
37204SOL    HW213452   4.260   4.534   2.840
37205SOL     OW13453   0.702   1.019   6.341
37205SOL    HW113454   0.620   1.066   6.357
37205SOL    HW213455   0.769   1.072   6.383
37206SOL     OW13456   2.004   5.394   7.093
37206SOL    HW113457   2.018   5.487   7.112
37206SOL    HW213458   1.939   5.393   7.023
37207SOL     OW13459   4.222   6.754  11.735
37207SOL    HW113460   4.284   6.726  11.802
37207SOL    HW213461   4.198   6.844  11.759
37208SOL     OW13462   6.845  12.301   8.896
37208SOL    HW113463   6.863  12.337   8.809
37208SOL    HW213464   6.771  12.243   8.883
37209SOL     OW13465   8.897   0.270   7.358
37209SOL    HW113466   8.933   0.190   7.398
37209SOL    HW213467   8.871   0.324   7.433
37210SOL     OW13468   0.792  11.352   7.853
37210SOL    HW113469   0.742  11.327   7.931
37210SOL    HW213470   0.824  11.270   7.818
37211SOL     OW13471  11.968   9.583   1.981
37211SOL    HW113472  11.895   9.533   1.945
37211SOL    HW213473  11.929   9.632   2.054
37212SOL     OW13474  14.293  10.644  12.058
37212SOL    HW113475  14.216  10.676  12.011
37212SOL    HW213476  14.366  10.690  12.017
37213SOL     OW13477  10.536   6.614  12.001
37213SOL    HW113478  10.618   6.597  12.049
37213SOL    HW213479  10.481   6.538  12.020
37214SOL     OW13480  12.007   9.355   2.209
37214SOL    HW113481  11.963   9.436   2.182
37214SOL    HW213482  11.940   9.307   2.258
37215SOL     OW13483   1.451   1.634  11.112
37215SOL    HW113484   1.421   1.581  11.186
37215SOL    HW213485   1.478   1.571  11.046
37216SOL     OW13486   3.391  10.129  14.062
37216SOL    HW113487   3.378  10.050  14.114
37216SOL    HW213488   3.439  10.099  13.985
37217SOL     OW13489   3.030  13.021  13.274
37217SOL    HW113490   2.980  13.080  13.218
37217SOL    HW213491   3.071  12.959  13.213
37218SOL     OW13492   5.241   2.717  13.801
37218SOL    HW113493   5.259   2.682  13.888
37218SOL    HW213494   5.164   2.773  13.812
37219SOL     OW13495   3.295  12.531   0.455
37219SOL    HW113496   3.328  12.563   0.370
37219SOL    HW213497   3.374  12.518   0.507
37220SOL     OW13498  12.099   0.635  10.809
37220SOL    HW113499  12.063   0.551  10.780
37220SOL    HW213500  12.124   0.679  10.728
37221SOL     OW13501   4.543   3.994  14.176
37221SOL    HW113502   4.459   4.038  14.184
37221SOL    HW213503   4.599   4.058  14.132
37222SOL     OW13504   5.735  13.985   9.422
37222SOL    HW113505   5.752  13.923   9.493
37222SOL    HW213506   5.770  14.068   9.454
37223SOL     OW13507   7.643   5.687   1.699
37223SOL    HW113508   7.568   5.648   1.654
37223SOL    HW213509   7.610   5.709   1.786
37224SOL     OW13510   4.177   9.164   5.352
37224SOL    HW113511   4.219   9.084   5.322
37224SOL    HW213512   4.249   9.225   5.369
37225SOL     OW13513   7.687  11.223   9.819
37225SOL    HW113514   7.658  11.181   9.739
37225SOL    HW213515   7.634  11.303   9.826
37226SOL     OW13516   1.639   2.699  10.993
37226SOL    HW113517   1.725   2.740  10.995
37226SOL    HW213518   1.585   2.750  11.053
37227SOL     OW13519   7.137  12.014  13.848
37227SOL    HW113520   7.091  12.095  13.870
37227SOL    HW213521   7.067  11.950  13.835
37228SOL     OW13522  14.066   6.455   0.365
37228SOL    HW113523  13.982   6.439   0.407
37228SOL    HW213524  14.129   6.452   0.437
37229SOL     OW13525  13.084   1.291   2.230
37229SOL    HW113526  13.105   1.216   2.285
37229SOL    HW213527  13.004   1.328   2.269
37230SOL     OW13528  14.088   5.968   2.607
37230SOL    HW113529  14.167   5.977   2.661
37230SOL    HW213530  14.030   5.912   2.658
37231SOL     OW13531  13.206  11.148  10.019
37231SOL    HW113532  13.188  11.229  10.068
37231SOL    HW213533  13.129  11.094  10.035
37232SOL     OW13534  14.034   8.129  11.566
37232SOL    HW113535  14.087   8.152  11.642
37232SOL    HW213536  13.979   8.206  11.550
37233SOL     OW13537   2.141   8.032   0.946
37233SOL    HW113538   2.138   7.988   1.031
37233SOL    HW213539   2.167   7.963   0.884
37234SOL     OW13540   6.079   3.598   3.686
37234SOL    HW113541   6.153   3.654   3.662
37234SOL    HW213542   6.049   3.561   3.603
37235SOL     OW13543   1.360   0.337   6.797
37235SOL    HW113544   1.341   0.420   6.753
37235SOL    HW213545   1.404   0.285   6.729
37236SOL     OW13546   8.909  14.252   9.478
37236SOL    HW113547   8.821  14.278   9.505
37236SOL    HW213548   8.967  14.307   9.532
37237SOL     OW13549   8.640  10.216   0.384
37237SOL    HW113550   8.678  10.128   0.374
37237SOL    HW213551   8.546  10.201   0.382
37238SOL     OW13552  12.917   9.474  12.219
37238SOL    HW113553  12.980   9.449  12.286
37238SOL    HW213554  12.947   9.560  12.189
37239SOL     OW13555   1.614   5.764   3.261
37239SOL    HW113556   1.665   5.841   3.288
37239SOL    HW213557   1.603   5.775   3.167
37240SOL     OW13558   2.927   5.534  14.286
37240SOL    HW113559   2.909   5.457  14.339
37240SOL    HW213560   2.918   5.505  14.195
37241SOL     OW13561   5.269   7.530  11.803
37241SOL    HW113562   5.236   7.495  11.886
37241SOL    HW213563   5.302   7.453  11.757
37242SOL     OW13564   2.386   6.899  10.345
37242SOL    HW113565   2.368   6.854  10.427
37242SOL    HW213566   2.301   6.925  10.312
37243SOL     OW13567   6.833  12.189   0.806
37243SOL    HW113568   6.764  12.245   0.769
37243SOL    HW213569   6.914  12.225   0.771
37244SOL     OW13570   3.334   0.645  11.319
37244SOL    HW113571   3.419   0.678  11.290
37244SOL    HW213572   3.290   0.619  11.238
37245SOL     OW13573  11.375   2.820   9.328
37245SOL    HW113574  11.431   2.880   9.279
37245SOL    HW213575  11.286   2.839   9.297
37246SOL     OW13576   6.692  11.781   4.110
37246SOL    HW113577   6.703  11.731   4.029
37246SOL    HW213578   6.601  11.808   4.109
37247SOL     OW13579  14.706   9.628   1.571
37247SOL    HW113580  14.718   9.620   1.477
37247SOL    HW213581  14.737   9.716   1.592
37248SOL     OW13582   3.787  13.430   5.143
37248SOL    HW113583   3.719  13.372   5.107
37248SOL    HW213584   3.743  13.477   5.214
37249SOL     OW13585  10.577   5.017  10.297
37249SOL    HW113586  10.623   5.091  10.336
37249SOL    HW213587  10.557   5.045  10.208
37250SOL     OW13588   0.795   1.767  14.458
37250SOL    HW113589   0.743   1.699  14.415
37250SOL    HW213590   0.753   1.849  14.435
37251SOL     OW13591   6.380   7.541   7.187
37251SOL    HW113592   6.431   7.552   7.106
37251SOL    HW213593   6.357   7.449   7.188
37252SOL     OW13594   0.776   6.526   2.401
37252SOL    HW113595   0.843   6.521   2.333
37252SOL    HW213596   0.820   6.493   2.480
37253SOL     OW13597   4.556   2.306   0.970
37253SOL    HW113598   4.590   2.389   1.003
37253SOL    HW213599   4.594   2.240   1.028
37254SOL     OW13600   5.522  12.194   9.063
37254SOL    HW113601   5.616  12.193   9.043
37254SOL    HW213602   5.484  12.251   8.997
37255SOL     OW13603   4.703   0.870   9.096
37255SOL    HW113604   4.624   0.922   9.111
37255SOL    HW213605   4.716   0.823   9.178
37256SOL     OW13606   7.352   5.822   5.136
37256SOL    HW113607   7.279   5.884   5.132
37256SOL    HW213608   7.398   5.846   5.216
37257SOL     OW13609   9.989  10.166   5.715
37257SOL    HW113610  10.052  10.214   5.770
37257SOL    HW213611  10.025  10.078   5.708
37258SOL     OW13612   1.375   9.205   8.177
37258SOL    HW113613   1.306   9.141   8.197
37258SOL    HW213614   1.401   9.186   8.087
37259SOL     OW13615   8.344   7.826   9.098
37259SOL    HW113616   8.381   7.837   9.186
37259SOL    HW213617   8.419   7.836   9.039
37260SOL     OW13618   9.089   2.153  12.855
37260SOL    HW113619   9.005   2.176  12.894
37260SOL    HW213620   9.076   2.164  12.761
37261SOL     OW13621   6.678   9.729   0.566
37261SOL    HW113622   6.617   9.801   0.556
37261SOL    HW213623   6.624   9.655   0.592
37262SOL     OW13624   7.764  10.804   3.980
37262SOL    HW113625   7.721  10.796   3.894
37262SOL    HW213626   7.829  10.872   3.967
37263SOL     OW13627   1.287  10.075   1.827
37263SOL    HW113628   1.314  10.121   1.748
37263SOL    HW213629   1.363  10.077   1.884
37264SOL     OW13630   0.238  10.030   0.870
37264SOL    HW113631   0.161   9.982   0.900
37264SOL    HW213632   0.232  10.026   0.774
37265SOL     OW13633  12.443   0.067   4.169
37265SOL    HW113634  12.371   0.117   4.209
37265SOL    HW213635  12.520   0.093   4.219
37266SOL     OW13636  14.863  13.898   4.633
37266SOL    HW113637  14.833  13.986   4.655
37266SOL    HW213638  14.858  13.893   4.538
37267SOL     OW13639   9.814  13.413   0.244
37267SOL    HW113640   9.725  13.400   0.211
37267SOL    HW213641   9.847  13.488   0.195
37268SOL     OW13642   2.649   8.960   5.968
37268SOL    HW113643   2.563   8.919   5.970
37268SOL    HW213644   2.703   8.900   5.916
37269SOL     OW13645   0.843   8.566   3.997
37269SOL    HW113646   0.895   8.500   3.951
37269SOL    HW213647   0.896   8.590   4.073
37270SOL     OW13648   9.815   0.896  10.686
37270SOL    HW113649   9.750   0.853  10.742
37270SOL    HW213650   9.771   0.903  10.601
37271SOL     OW13651  12.622  11.936   2.487
37271SOL    HW113652  12.563  12.011   2.487
37271SOL    HW213653  12.710  11.974   2.485
37272SOL     OW13654   4.025   5.419   9.327
37272SOL    HW113655   4.058   5.502   9.294
37272SOL    HW213656   3.946   5.442   9.375
37273SOL     OW13657   4.253   5.698   9.927
37273SOL    HW113658   4.235   5.792   9.931
37273SOL    HW213659   4.207   5.668   9.850
37274SOL     OW13660   2.796  14.443  10.458
37274SOL    HW113661   2.819  14.526  10.416
37274SOL    HW213662   2.768  14.386  10.386
37275SOL     OW13663   8.066   0.457   1.054
37275SOL    HW113664   8.046   0.390   1.119
37275SOL    HW213665   8.062   0.539   1.103
37276SOL     OW13666   1.521   4.043   0.362
37276SOL    HW113667   1.445   3.994   0.331
37276SOL    HW213668   1.515   4.128   0.318
37277SOL     OW13669  12.529  14.437   3.599
37277SOL    HW113670  12.520  14.478   3.513
37277SOL    HW213671  12.591  14.365   3.585
37278SOL     OW13672   6.642  13.799  14.195
37278SOL    HW113673   6.666  13.719  14.243
37278SOL    HW213674   6.576  13.841  14.251
37279SOL     OW13675   4.568  10.701  11.659
37279SOL    HW113676   4.570  10.606  11.648
37279SOL    HW213677   4.653  10.724  11.694
37280SOL     OW13678   4.110   9.351   2.081
37280SOL    HW113679   4.022   9.345   2.045
37280SOL    HW213680   4.100   9.329   2.173
37281SOL     OW13681  13.799   6.972   6.154
37281SOL    HW113682  13.885   6.965   6.113
37281SOL    HW213683  13.805   7.049   6.210
37282SOL     OW13684  10.762   1.790   1.606
37282SOL    HW113685  10.848   1.818   1.574
37282SOL    HW213686  10.753   1.833   1.690
37283SOL     OW13687   0.576   3.174   8.703
37283SOL    HW113688   0.516   3.245   8.725
37283SOL    HW213689   0.527   3.119   8.642
37284SOL     OW13690   7.929   5.207   5.305
37284SOL    HW113691   7.934   5.172   5.395
37284SOL    HW213692   8.016   5.245   5.291
37285SOL     OW13693   9.436   4.897   2.001
37285SOL    HW113694   9.442   4.854   1.916
37285SOL    HW213695   9.485   4.841   2.061
37286SOL     OW13696  11.474   6.292  14.385
37286SOL    HW113697  11.448   6.314  14.296
37286SOL    HW213698  11.570   6.291  14.382
37287SOL     OW13699   5.458  10.193   1.084
37287SOL    HW113700   5.489  10.202   1.174
37287SOL    HW213701   5.366  10.166   1.093
37288SOL     OW13702  12.879   1.046  12.407
37288SOL    HW113703  12.817   0.982  12.371
37288SOL    HW213704  12.830   1.128  12.409
37289SOL     OW13705  10.557   2.936   7.774
37289SOL    HW113706  10.509   2.912   7.695
37289SOL    HW213707  10.627   2.992   7.743
37290SOL     OW13708  13.998  11.047   5.169
37290SOL    HW113709  13.995  11.102   5.091
37290SOL    HW213710  13.906  11.037   5.195
37291SOL     OW13711   4.872  14.054  10.513
37291SOL    HW113712   4.827  14.000  10.578
37291SOL    HW213713   4.915  13.991  10.456
37292SOL     OW13714   0.778  11.480   0.943
37292SOL    HW113715   0.701  11.443   0.986
37292SOL    HW213716   0.843  11.490   1.013
37293SOL     OW13717   8.662   4.677   5.808
37293SOL    HW113718   8.662   4.599   5.862
37293SOL    HW213719   8.751   4.711   5.814
37294SOL     OW13720   3.063   9.712   0.396
37294SOL    HW113721   2.972   9.740   0.386
37294SOL    HW213722   3.113   9.775   0.343
37295SOL     OW13723  13.203   1.554   9.870
37295SOL    HW113724  13.265   1.552   9.943
37295SOL    HW213725  13.198   1.646   9.845
37296SOL     OW13726   3.360  14.036  13.888
37296SOL    HW113727   3.379  14.069  13.800
37296SOL    HW213728   3.320  13.950  13.873
37297SOL     OW13729  11.907  11.747   0.433
37297SOL    HW113730  11.814  11.759   0.413
37297SOL    HW213731  11.927  11.659   0.402
37298SOL     OW13732   2.533   2.337   3.397
37298SOL    HW113733   2.542   2.306   3.487
37298SOL    HW213734   2.621   2.329   3.361
37299SOL     OW13735  13.610   2.137   8.966
37299SOL    HW113736  13.584   2.197   8.895
37299SOL    HW213737  13.527   2.101   8.998
37300SOL     OW13738   2.718   5.313   8.773
37300SOL    HW113739   2.726   5.283   8.683
37300SOL    HW213740   2.751   5.403   8.772
37301SOL     OW13741   7.324   4.360   3.311
37301SOL    HW113742   7.388   4.417   3.268
37301SOL    HW213743   7.375   4.289   3.349
37302SOL     OW13744   9.934   4.334  12.400
37302SOL    HW113745   9.874   4.337  12.325
37302SOL    HW213746   9.993   4.262  12.379
37303SOL     OW13747   1.213   4.467   9.992
37303SOL    HW113748   1.175   4.379  10.001
37303SOL    HW213749   1.256   4.466   9.906
37304SOL     OW13750   9.755   9.398  10.886
37304SOL    HW113751   9.774   9.426  10.975
37304SOL    HW213752   9.837   9.358  10.855
37305SOL     OW13753  13.788   4.375   4.043
37305SOL    HW113754  13.854   4.313   4.074
37305SOL    HW213755  13.755   4.335   3.962
37306SOL     OW13756   0.020   1.266  11.143
37306SOL    HW113757   0.044   1.359  11.144
37306SOL    HW213758  14.805   1.263  11.180
37307SOL     OW13759  14.587   8.867   1.965
37307SOL    HW113760  14.676   8.885   1.996
37307SOL    HW213761  14.588   8.775   1.942
37308SOL     OW13762   8.901   3.233   5.872
37308SOL    HW113763   8.860   3.158   5.915
37308SOL    HW213764   8.952   3.195   5.801
37309SOL     OW13765   8.645   9.722   0.384
37309SOL    HW113766   8.706   9.738   0.457
37309SOL    HW213767   8.658   9.630   0.362
37310SOL     OW13768  10.792   5.163   3.646
37310SOL    HW113769  10.841   5.121   3.717
37310SOL    HW213770  10.777   5.252   3.677
37311SOL     OW13771   9.060   0.074  12.707
37311SOL    HW113772   9.093   0.162  12.693
37311SOL    HW213773   9.106   0.043  12.785
37312SOL     OW13774   1.146   7.142   6.111
37312SOL    HW113775   1.071   7.154   6.169
37312SOL    HW213776   1.221   7.134   6.169
37313SOL     OW13777  10.375  14.119  12.798
37313SOL    HW113778  10.406  14.163  12.877
37313SOL    HW213779  10.430  14.154  12.728
37314SOL     OW13780  11.044   9.953   8.080
37314SOL    HW113781  11.000   9.887   8.134
37314SOL    HW213782  11.081  10.014   8.144
37315SOL     OW13783  10.385   7.011  11.443
37315SOL    HW113784  10.395   7.086  11.501
37315SOL    HW213785  10.469   6.966  11.447
37316SOL     OW13786   5.443  14.867   4.054
37316SOL    HW113787   5.459  14.842   3.963
37316SOL    HW213788   5.449   0.089   4.054
37317SOL     OW13789  13.516   1.483   6.376
37317SOL    HW113790  13.525   1.396   6.415
37317SOL    HW213791  13.601   1.500   6.335
37318SOL     OW13792  11.957   1.477   0.961
37318SOL    HW113793  11.999   1.417   0.900
37318SOL    HW213794  12.022   1.490   1.031
37319SOL     OW13795   0.912   5.221  14.645
37319SOL    HW113796   0.862   5.291  14.605
37319SOL    HW213797   0.987   5.265  14.686
37320SOL     OW13798   4.654   4.278   0.613
37320SOL    HW113799   4.631   4.337   0.684
37320SOL    HW213800   4.582   4.287   0.550
37321SOL     OW13801  10.090   2.158   9.952
37321SOL    HW113802  10.096   2.190  10.043
37321SOL    HW213803  10.140   2.222   9.902
37322SOL     OW13804   3.370   7.560  13.633
37322SOL    HW113805   3.406   7.607  13.557
37322SOL    HW213806   3.435   7.574  13.702
37323SOL     OW13807  13.598   0.778   8.467
37323SOL    HW113808  13.587   0.819   8.382
37323SOL    HW213809  13.666   0.712   8.454
37324SOL     OW13810   5.426   7.196   1.827
37324SOL    HW113811   5.447   7.283   1.860
37324SOL    HW213812   5.492   7.180   1.759
37325SOL     OW13813   3.836   6.253  13.685
37325SOL    HW113814   3.890   6.301  13.622
37325SOL    HW213815   3.847   6.161  13.660
37326SOL     OW13816   0.955   3.445   2.463
37326SOL    HW113817   0.992   3.470   2.377
37326SOL    HW213818   1.031   3.418   2.514
37327SOL     OW13819   9.797   0.593  14.023
37327SOL    HW113820   9.706   0.608  14.000
37327SOL    HW213821   9.846   0.612  13.943
37328SOL     OW13822   8.826   8.446   0.846
37328SOL    HW113823   8.761   8.380   0.868
37328SOL    HW213824   8.893   8.438   0.914
37329SOL     OW13825   2.980   4.302   8.560
37329SOL    HW113826   3.050   4.302   8.495
37329SOL    HW213827   2.920   4.371   8.531
37330SOL     OW13828   1.042  11.461   4.499
37330SOL    HW113829   1.000  11.470   4.413
37330SOL    HW213830   0.988  11.397   4.545
37331SOL     OW13831   0.532   4.807  13.587
37331SOL    HW113832   0.602   4.750  13.617
37331SOL    HW213833   0.547   4.890  13.633
37332SOL     OW13834   5.319   7.252   4.824
37332SOL    HW113835   5.324   7.305   4.745
37332SOL    HW213836   5.226   7.250   4.847
37333SOL     OW13837  11.608  10.140  14.630
37333SOL    HW113838  11.613  10.165  14.537
37333SOL    HW213839  11.585  10.047  14.629
37334SOL     OW13840  10.755   9.397   4.664
37334SOL    HW113841  10.671   9.441   4.679
37334SOL    HW213842  10.786   9.374   4.752
37335SOL     OW13843  13.552   5.945   6.568
37335SOL    HW113844  13.535   6.013   6.633
37335SOL    HW213845  13.531   5.986   6.484
37336SOL     OW13846   7.407   7.276  14.012
37336SOL    HW113847   7.481   7.326  13.977
37336SOL    HW213848   7.436   7.185  14.012
37337SOL     OW13849   7.421   0.339   8.831
37337SOL    HW113850   7.506   0.368   8.798
37337SOL    HW213851   7.378   0.419   8.860
37338SOL     OW13852  14.416  11.470  14.680
37338SOL    HW113853  14.348  11.533  14.656
37338SOL    HW213854  14.496  11.505  14.642
37339SOL     OW13855   5.315   4.207  10.975
37339SOL    HW113856   5.395   4.156  10.964
37339SOL    HW213857   5.345   4.295  10.997
37340SOL     OW13858   6.969  13.134  13.199
37340SOL    HW113859   6.913  13.089  13.136
37340SOL    HW213860   7.049  13.082  13.201
37341SOL     OW13861   6.206  14.078  12.818
37341SOL    HW113862   6.233  14.146  12.879
37341SOL    HW213863   6.119  14.052  12.848
37342SOL     OW13864   2.857   5.863   8.765
37342SOL    HW113865   2.789   5.881   8.830
37342SOL    HW213866   2.867   5.768   8.767
37343SOL     OW13867  10.499  13.642   9.450
37343SOL    HW113868  10.564  13.617   9.384
37343SOL    HW213869  10.539  13.716   9.496
37344SOL     OW13870   1.280   3.807   7.952
37344SOL    HW113871   1.197   3.760   7.948
37344SOL    HW213872   1.302   3.825   7.861
37345SOL     OW13873   4.471  10.591  14.347
37345SOL    HW113874   4.513  10.677  14.348
37345SOL    HW213875   4.377  10.610  14.351
37346SOL     OW13876  13.754   4.450  12.346
37346SOL    HW113877  13.818   4.514  12.378
37346SOL    HW213878  13.671   4.497  12.347
37347SOL     OW13879   8.621   8.933   4.580
37347SOL    HW113880   8.665   8.911   4.662
37347SOL    HW213881   8.639   9.027   4.568
37348SOL     OW13882   3.285  12.401   8.159
37348SOL    HW113883   3.251  12.377   8.073
37348SOL    HW213884   3.340  12.478   8.142
37349SOL     OW13885  12.601  13.426   5.321
37349SOL    HW113886  12.605  13.384   5.235
37349SOL    HW213887  12.511  13.412   5.350
37350SOL     OW13888  10.377   5.438  14.280
37350SOL    HW113889  10.359   5.346  14.260
37350SOL    HW213890  10.373   5.482  14.195
37351SOL     OW13891   8.350  11.686   4.109
37351SOL    HW113892   8.376  11.752   4.174
37351SOL    HW213893   8.313  11.735   4.037
37352SOL     OW13894   1.024   9.307  13.195
37352SOL    HW113895   1.089   9.332  13.129
37352SOL    HW213896   1.063   9.232  13.240
37353SOL     OW13897   6.312  10.510   2.612
37353SOL    HW113898   6.269  10.503   2.527
37353SOL    HW213899   6.304  10.422   2.650
37354SOL     OW13900   8.550   3.584  12.144
37354SOL    HW113901   8.530   3.664  12.096
37354SOL    HW213902   8.479   3.575  12.207
37355SOL     OW13903  12.690  13.047   2.394
37355SOL    HW113904  12.594  13.052   2.394
37355SOL    HW213905  12.711  12.989   2.468
37356SOL     OW13906   9.237   8.567   1.167
37356SOL    HW113907   9.248   8.607   1.254
37356SOL    HW213908   9.269   8.633   1.106
37357SOL     OW13909   6.223  14.429   5.064
37357SOL    HW113910   6.297  14.481   5.036
37357SOL    HW213911   6.213  14.362   4.996
37358SOL     OW13912  13.170  10.673  10.053
37358SOL    HW113913  13.234  10.651  10.121
37358SOL    HW213914  13.177  10.768  10.044
37359SOL     OW13915  10.152  10.356   4.145
37359SOL    HW113916  10.187  10.279   4.191
37359SOL    HW213917  10.136  10.420   4.215
37360SOL     OW13918   4.471   5.641  13.965
37360SOL    HW113919   4.506   5.556  13.988
37360SOL    HW213920   4.483   5.695  14.043
37361SOL     OW13921   2.130  11.750   4.555
37361SOL    HW113922   2.205  11.791   4.511
37361SOL    HW213923   2.128  11.661   4.521
37362SOL     OW13924   2.191  13.285   5.835
37362SOL    HW113925   2.218  13.206   5.881
37362SOL    HW213926   2.149  13.339   5.902
37363SOL     OW13927   4.970   9.762   5.668
37363SOL    HW113928   5.040   9.800   5.721
37363SOL    HW213929   4.905   9.732   5.731
37364SOL     OW13930   0.042   3.109   3.793
37364SOL    HW113931   0.101   3.174   3.831
37364SOL    HW213932  14.828   3.145   3.806
37365SOL     OW13933   0.910   4.475  13.986
37365SOL    HW113934   0.826   4.507  13.955
37365SOL    HW213935   0.900   4.469  14.081
37366SOL     OW13936  14.562   8.706  13.991
37366SOL    HW113937  14.656   8.707  14.006
37366SOL    HW213938  14.537   8.799  13.986
37367SOL     OW13939   3.424   3.957   4.433
37367SOL    HW113940   3.369   4.017   4.384
37367SOL    HW213941   3.378   3.945   4.516
37368SOL     OW13942   1.267   5.974   1.251
37368SOL    HW113943   1.297   5.886   1.229
37368SOL    HW213944   1.234   6.010   1.168
37369SOL     OW13945   7.635  14.016   0.298
37369SOL    HW113946   7.594  13.981   0.377
37369SOL    HW213947   7.696  13.948   0.270
37370SOL     OW13948  11.043   3.637   5.681
37370SOL    HW113949  11.046   3.571   5.612
37370SOL    HW213950  11.128   3.680   5.676
37371SOL     OW13951   0.897   2.174   3.816
37371SOL    HW113952   0.990   2.183   3.799
37371SOL    HW213953   0.881   2.228   3.893
37372SOL     OW13954   6.532   7.751   7.888
37372SOL    HW113955   6.610   7.804   7.872
37372SOL    HW213956   6.565   7.667   7.919
37373SOL     OW13957   0.831  11.510  11.395
37373SOL    HW113958   0.835  11.417  11.374
37373SOL    HW213959   0.779  11.548  11.324
37374SOL     OW13960   2.703   0.535  14.177
37374SOL    HW113961   2.686   0.568  14.088
37374SOL    HW213962   2.616   0.522  14.214
37375SOL     OW13963   0.169   6.974   2.104
37375SOL    HW113964   0.182   6.947   2.013
37375SOL    HW213965   0.235   6.926   2.153
37376SOL     OW13966   3.843   3.287   5.509
37376SOL    HW113967   3.812   3.359   5.454
37376SOL    HW213968   3.772   3.223   5.506
37377SOL     OW13969   0.490  14.448   8.702
37377SOL    HW113970   0.523  14.463   8.791
37377SOL    HW213971   0.569  14.436   8.650
37378SOL     OW13972   0.219   6.185   6.896
37378SOL    HW113973   0.298   6.214   6.944
37378SOL    HW213974   0.202   6.097   6.930
37379SOL     OW13975  11.777   3.930   1.407
37379SOL    HW113976  11.815   3.976   1.332
37379SOL    HW213977  11.686   3.957   1.408
37380SOL     OW13978   5.902  10.253   5.613
37380SOL    HW113979   5.856  10.335   5.595
37380SOL    HW213980   5.943  10.267   5.698
37381SOL     OW13981   8.846   7.256  12.454
37381SOL    HW113982   8.787   7.310  12.507
37381SOL    HW213983   8.897   7.206  12.518
37382SOL     OW13984  13.866   0.564   1.182
37382SOL    HW113985  13.924   0.609   1.244
37382SOL    HW213986  13.919   0.491   1.150
37383SOL     OW13987  11.622  11.642   2.871
37383SOL    HW113988  11.646  11.725   2.912
37383SOL    HW213989  11.532  11.626   2.899
37384SOL     OW13990   7.385   5.862  13.913
37384SOL    HW113991   7.427   5.795  13.968
37384SOL    HW213992   7.421   5.945  13.946
37385SOL     OW13993   6.046   3.497   4.473
37385SOL    HW113994   6.008   3.411   4.455
37385SOL    HW213995   6.136   3.490   4.440
37386SOL     OW13996   0.745   4.279   4.154
37386SOL    HW113997   0.811   4.341   4.122
37386SOL    HW213998   0.785   4.193   4.142
37387SOL     OW13999  13.062   6.236   7.483
37387SOL    HW114000  13.142   6.246   7.535
37387SOL    HW214001  13.032   6.147   7.500
37388SOL     OW14002   6.540  11.050   2.264
37388SOL    HW114003   6.618  10.997   2.248
37388SOL    HW214004   6.515  11.082   2.178
37389SOL     OW14005   6.916   0.664  13.496
37389SOL    HW114006   6.849   0.624  13.550
37389SOL    HW214007   6.915   0.757  13.519
37390SOL     OW14008   5.814   6.592  14.617
37390SOL    HW114009   5.745   6.647  14.578
37390SOL    HW214010   5.819   6.515  14.560
37391SOL     OW14011  12.655  14.475   2.520
37391SOL    HW114012  12.641  14.543   2.455
37391SOL    HW214013  12.606  14.505   2.597
37392SOL     OW14014  13.703   6.420   2.366
37392SOL    HW114015  13.735   6.334   2.342
37392SOL    HW214016  13.659   6.407   2.450
37393SOL     OW14017   5.414   5.464  11.059
37393SOL    HW114018   5.445   5.373  11.062
37393SOL    HW214019   5.460   5.508  11.130
37394SOL     OW14020  10.868   3.747  13.434
37394SOL    HW114021  10.869   3.716  13.344
37394SOL    HW214022  10.835   3.837  13.428
37395SOL     OW14023   0.572   4.158   5.533
37395SOL    HW114024   0.607   4.162   5.444
37395SOL    HW214025   0.523   4.239   5.544
37396SOL     OW14026   7.003  12.886   8.055
37396SOL    HW114027   6.928  12.835   8.086
37396SOL    HW214028   7.064  12.886   8.129
37397SOL     OW14029   7.708  13.429  11.953
37397SOL    HW114030   7.619  13.401  11.930
37397SOL    HW214031   7.719  13.401  12.043
37398SOL     OW14032   4.264  12.475   9.963
37398SOL    HW114033   4.255  12.527   9.884
37398SOL    HW214034   4.198  12.406   9.955
37399SOL     OW14035   5.294   1.862  14.694
37399SOL    HW114036   5.363   1.928  14.697
37399SOL    HW214037   5.319   1.805  14.621
37400SOL     OW14038   5.028  14.647   5.140
37400SOL    HW114039   5.086  14.718   5.114
37400SOL    HW214040   5.052  14.629   5.231
37401SOL     OW14041  13.059   8.475   7.521
37401SOL    HW114042  13.026   8.540   7.583
37401SOL    HW214043  13.012   8.493   7.439
37402SOL     OW14044   7.566   6.111  14.443
37402SOL    HW114045   7.495   6.114  14.508
37402SOL    HW214046   7.601   6.022  14.450
37403SOL     OW14047   9.074   5.653   2.314
37403SOL    HW114048   9.119   5.672   2.397
37403SOL    HW214049   9.041   5.737   2.284
37404SOL     OW14050   2.451  10.082  13.755
37404SOL    HW114051   2.448   9.987  13.744
37404SOL    HW214052   2.483  10.115  13.671
37405SOL     OW14053   6.412  11.805   7.145
37405SOL    HW114054   6.427  11.719   7.182
37405SOL    HW214055   6.468  11.864   7.196
37406SOL     OW14056   5.498  10.634  11.930
37406SOL    HW114057   5.487  10.728  11.916
37406SOL    HW214058   5.582  10.613  11.888
37407SOL     OW14059   5.407  10.633   1.502
37407SOL    HW114060   5.457  10.698   1.453
37407SOL    HW214061   5.342  10.683   1.550
37408SOL     OW14062   5.390  13.635   8.587
37408SOL    HW114063   5.398  13.613   8.679
37408SOL    HW214064   5.331  13.711   8.585
37409SOL     OW14065  13.090  12.758  10.814
37409SOL    HW114066  13.098  12.853  10.821
37409SOL    HW214067  12.997  12.741  10.826
37410SOL     OW14068  11.311   0.355   5.977
37410SOL    HW114069  11.375   0.305   6.027
37410SOL    HW214070  11.360   0.431   5.945
37411SOL     OW14071  12.971   4.672  14.691
37411SOL    HW114072  12.983   4.680  14.596
37411SOL    HW214073  12.976   4.762  14.723
37412SOL     OW14074   4.830   0.216  10.476
37412SOL    HW114075   4.876   0.251  10.400
37412SOL    HW214076   4.862   0.126  10.484
37413SOL     OW14077   1.485   4.060   2.324
37413SOL    HW114078   1.500   4.143   2.369
37413SOL    HW214079   1.565   4.047   2.271
37414SOL     OW14080  11.972   1.113   7.308
37414SOL    HW114081  12.034   1.044   7.286
37414SOL    HW214082  11.905   1.069   7.361
37415SOL     OW14083   3.150   3.262  11.322
37415SOL    HW114084   3.194   3.331  11.371
37415SOL    HW214085   3.219   3.199  11.302
37416SOL     OW14086  12.064  14.660   0.510
37416SOL    HW114087  12.107  14.577   0.492
37416SOL    HW214088  12.066  14.707   0.427
37417SOL     OW14089   0.234   6.662   5.673
37417SOL    HW114090   0.245   6.707   5.757
37417SOL    HW214091   0.190   6.580   5.695
37418SOL     OW14092   0.456   9.526   8.740
37418SOL    HW114093   0.475   9.434   8.722
37418SOL    HW214094   0.503   9.545   8.821
37419SOL     OW14095  13.209  10.350   0.248
37419SOL    HW114096  13.243  10.401   0.174
37419SOL    HW214097  13.272  10.280   0.259
37420SOL     OW14098   0.306   2.808   1.395
37420SOL    HW114099   0.246   2.870   1.354
37420SOL    HW214100   0.377   2.863   1.430
37421SOL     OW14101   4.354  12.584  10.738
37421SOL    HW114102   4.312  12.526  10.675
37421SOL    HW214103   4.435  12.611  10.695
37422SOL     OW14104  12.719   6.313  12.943
37422SOL    HW114105  12.782   6.339  13.011
37422SOL    HW214106  12.705   6.393  12.892
37423SOL     OW14107   7.850  12.057   9.680
37423SOL    HW114108   7.800  12.046   9.599
37423SOL    HW214109   7.829  11.979   9.732
37424SOL     OW14110   4.515   8.842   1.006
37424SOL    HW114111   4.568   8.778   1.053
37424SOL    HW214112   4.426   8.830   1.040
37425SOL     OW14113  12.998   4.790   9.196
37425SOL    HW114114  12.931   4.806   9.131
37425SOL    HW214115  13.027   4.700   9.180
37426SOL     OW14116   0.851  13.957  11.648
37426SOL    HW114117   0.879  13.878  11.694
37426SOL    HW214118   0.788  13.999  11.708
37427SOL     OW14119   5.131   2.016   2.740
37427SOL    HW114120   5.183   2.067   2.678
37427SOL    HW214121   5.133   1.927   2.705
37428SOL     OW14122  10.783  14.844   7.082
37428SOL    HW114123  10.691  14.871   7.085
37428SOL    HW214124  10.790  14.777   7.150
37429SOL     OW14125  12.851   0.442   3.789
37429SOL    HW114126  12.909   0.465   3.861
37429SOL    HW214127  12.903   0.385   3.733
37430SOL     OW14128  14.601  14.535   8.334
37430SOL    HW114129  14.552  14.521   8.414
37430SOL    HW214130  14.693  14.530   8.361
37431SOL     OW14131   8.471   1.939   0.104
37431SOL    HW114132   8.501   1.942   0.013
37431SOL    HW214133   8.532   1.996   0.151
37432SOL     OW14134  11.136   0.683   4.496
37432SOL    HW114135  11.104   0.741   4.565
37432SOL    HW214136  11.180   0.742   4.434
37433SOL     OW14137   0.102  14.355   5.361
37433SOL    HW114138   0.180  14.390   5.318
37433SOL    HW214139   0.122  14.361   5.455
37434SOL     OW14140   4.359  11.902  14.492
37434SOL    HW114141   4.372  11.979  14.547
37434SOL    HW214142   4.355  11.828  14.553
37435SOL     OW14143   1.831   5.817   5.131
37435SOL    HW114144   1.865   5.786   5.215
37435SOL    HW214145   1.897   5.880   5.102
37436SOL     OW14146   9.487  13.676  10.291
37436SOL    HW114147   9.409  13.658  10.238
37436SOL    HW214148   9.466  13.638  10.376
37437SOL     OW14149   1.339  13.780  14.337
37437SOL    HW114150   1.425  13.749  14.365
37437SOL    HW214151   1.279  13.750  14.405
37438SOL     OW14152   8.426  13.859   3.567
37438SOL    HW114153   8.355  13.856   3.631
37438SOL    HW214154   8.475  13.938   3.589
37439SOL     OW14155   8.174  13.434   7.885
37439SOL    HW114156   8.172  13.384   7.803
37439SOL    HW214157   8.091  13.483   7.885
37440SOL     OW14158   4.747   9.694  12.516
37440SOL    HW114159   4.813   9.674  12.450
37440SOL    HW214160   4.737   9.789  12.511
37441SOL     OW14161   1.109   0.956   2.524
37441SOL    HW114162   1.093   0.885   2.585
37441SOL    HW214163   1.064   1.032   2.562
37442SOL     OW14164   2.980   4.168   6.201
37442SOL    HW114165   2.928   4.180   6.281
37442SOL    HW214166   3.052   4.111   6.228
37443SOL     OW14167   1.321   2.162  11.949
37443SOL    HW114168   1.399   2.217  11.959
37443SOL    HW214169   1.319   2.140  11.856
37444SOL     OW14170   2.630   4.946   2.302
37444SOL    HW114171   2.637   4.921   2.394
37444SOL    HW214172   2.700   4.899   2.258
37445SOL     OW14173   7.573   3.919  11.311
37445SOL    HW114174   7.592   3.862  11.385
37445SOL    HW214175   7.484   3.950  11.325
37446SOL     OW14176  12.316   0.020  11.433
37446SOL    HW114177  12.339  14.813  11.479
37446SOL    HW214178  12.399   0.066  11.422
37447SOL     OW14179   0.860  14.841   9.198
37447SOL    HW114180   0.934  14.821   9.256
37447SOL    HW214181   0.838   0.059   9.218
37448SOL     OW14182  12.495  11.736   4.343
37448SOL    HW114183  12.571  11.687   4.374
37448SOL    HW214184  12.436  11.738   4.418
37449SOL     OW14185  13.260   7.537   0.585
37449SOL    HW114186  13.263   7.502   0.496
37449SOL    HW214187  13.169   7.524   0.613
37450SOL     OW14188   7.154  12.589   0.831
37450SOL    HW114189   7.143  12.668   0.883
37450SOL    HW214190   7.218  12.612   0.764
37451SOL     OW14191   3.032  13.930   2.413
37451SOL    HW114192   2.949  13.889   2.388
37451SOL    HW214193   3.017  13.961   2.502
37452SOL     OW14194  11.433   6.594   4.967
37452SOL    HW114195  11.446   6.688   4.980
37452SOL    HW214196  11.502   6.553   5.019
37453SOL     OW14197   1.997   5.717   1.046
37453SOL    HW114198   1.907   5.697   1.074
37453SOL    HW214199   2.027   5.636   1.004
37454SOL     OW14200  10.861   9.764   8.214
37454SOL    HW114201  10.785   9.706   8.207
37454SOL    HW214202  10.936   9.705   8.226
37455SOL     OW14203   5.491   8.941   7.845
37455SOL    HW114204   5.586   8.946   7.855
37455SOL    HW214205   5.474   8.978   7.759
37456SOL     OW14206   4.759   5.858  10.371
37456SOL    HW114207   4.835   5.800  10.373
37456SOL    HW214208   4.794   5.942  10.342
37457SOL     OW14209  10.407  13.409   1.459
37457SOL    HW114210  10.468  13.482   1.453
37457SOL    HW214211  10.366  13.419   1.545
37458SOL     OW14212   8.005  10.827  13.266
37458SOL    HW114213   7.961  10.912  13.256
37458SOL    HW214214   7.948  10.777  13.325
37459SOL     OW14215   5.948   3.951  11.254
37459SOL    HW114216   6.043   3.950  11.257
37459SOL    HW214217   5.927   3.973  11.163
37460SOL     OW14218   7.373   0.982   6.175
37460SOL    HW114219   7.340   0.926   6.105
37460SOL    HW214220   7.465   0.998   6.152
37461SOL     OW14221   1.130   9.882   2.481
37461SOL    HW114222   1.103   9.790   2.490
37461SOL    HW214223   1.198   9.893   2.547
37462SOL     OW14224   1.499   0.945   1.601
37462SOL    HW114225   1.480   0.917   1.690
37462SOL    HW214226   1.439   0.893   1.547
37463SOL     OW14227   2.627  14.062   8.759
37463SOL    HW114228   2.643  13.980   8.712
37463SOL    HW214229   2.576  14.036   8.836
37464SOL     OW14230   8.031   4.328  11.021
37464SOL    HW114231   8.051   4.359  10.933
37464SOL    HW214232   8.071   4.241  11.026
37465SOL     OW14233   7.180   3.461   0.546
37465SOL    HW114234   7.091   3.462   0.510
37465SOL    HW214235   7.220   3.382   0.509
37466SOL     OW14236  12.548  11.151  14.050
37466SOL    HW114237  12.612  11.217  14.023
37466SOL    HW214238  12.471  11.202  14.077
37467SOL     OW14239   3.382  10.358   4.433
37467SOL    HW114240   3.472  10.325   4.428
37467SOL    HW214241   3.364  10.391   4.345
37468SOL     OW14242   2.648   7.793   9.984
37468SOL    HW114243   2.553   7.780   9.981
37468SOL    HW214244   2.684   7.704   9.988
37469SOL     OW14245   4.706   9.155   8.157
37469SOL    HW114246   4.744   9.068   8.155
37469SOL    HW214247   4.780   9.214   8.142
37470SOL     OW14248   4.880   6.890   0.513
37470SOL    HW114249   4.912   6.825   0.449
37470SOL    HW214250   4.860   6.967   0.460
37471SOL     OW14251  10.183   6.430   0.172
37471SOL    HW114252  10.097   6.429   0.130
37471SOL    HW214253  10.177   6.502   0.236
37472SOL     OW14254   2.502   7.153   4.673
37472SOL    HW114255   2.526   7.245   4.679
37472SOL    HW214256   2.407   7.153   4.665
37473SOL     OW14257  12.651  11.827   2.887
37473SOL    HW114258  12.565  11.819   2.846
37473SOL    HW214259  12.649  11.912   2.931
37474SOL     OW14260  11.982   0.605  10.517
37474SOL    HW114261  11.959   0.543  10.586
37474SOL    HW214262  11.932   0.577  10.441
37475SOL     OW14263  13.660   0.662   1.859
37475SOL    HW114264  13.652   0.737   1.800
37475SOL    HW214265  13.570   0.629   1.867
37476SOL     OW14266  14.004   4.342   8.809
37476SOL    HW114267  13.989   4.436   8.822
37476SOL    HW214268  14.066   4.338   8.736
37477SOL     OW14269   8.688  14.823  10.506
37477SOL    HW114270   8.720  14.753  10.563
37477SOL    HW214271   8.751  14.827  10.434
37478SOL     OW14272  12.334   3.496   5.576
37478SOL    HW114273  12.417   3.469   5.538
37478SOL    HW214274  12.336   3.460   5.665
37479SOL     OW14275  12.251  14.379   3.061
37479SOL    HW114276  12.309  14.345   2.993
37479SOL    HW214277  12.309  14.404   3.132
37480SOL     OW14278  10.315   6.446   2.547
37480SOL    HW114279  10.363   6.498   2.612
37480SOL    HW214280  10.260   6.510   2.502
37481SOL     OW14281  11.838   7.733   0.355
37481SOL    HW114282  11.926   7.771   0.360
37481SOL    HW214283  11.803   7.763   0.271
37482SOL     OW14284   1.629  10.796   4.599
37482SOL    HW114285   1.574  10.800   4.521
37482SOL    HW214286   1.688  10.871   4.591
37483SOL     OW14287  13.643   5.000   3.468
37483SOL    HW114288  13.637   5.091   3.496
37483SOL    HW214289  13.568   4.957   3.509
37484SOL     OW14290   9.507   1.544   8.066
37484SOL    HW114291   9.596   1.544   8.101
37484SOL    HW214292   9.476   1.634   8.076
37485SOL     OW14293   3.301   7.438   4.349
37485SOL    HW114294   3.369   7.403   4.292
37485SOL    HW214295   3.220   7.429   4.298
37486SOL     OW14296   5.016  12.464   5.854
37486SOL    HW114297   5.073  12.467   5.777
37486SOL    HW214298   4.929  12.449   5.819
37487SOL     OW14299  12.145  13.251   8.349
37487SOL    HW114300  12.140  13.323   8.286
37487SOL    HW214301  12.212  13.192   8.313
37488SOL     OW14302   9.532   5.811  11.467
37488SOL    HW114303   9.437   5.812  11.454
37488SOL    HW214304   9.545   5.852  11.553
37489SOL     OW14305   6.706   5.121   4.136
37489SOL    HW114306   6.764   5.095   4.064
37489SOL    HW214307   6.621   5.134   4.094
37490SOL     OW14308  14.158  11.906   8.436
37490SOL    HW114309  14.188  11.859   8.358
37490SOL    HW214310  14.067  11.930   8.415
37491SOL     OW14311   2.178   5.931   5.427
37491SOL    HW114312   2.271   5.933   5.402
37491SOL    HW214313   2.155   6.023   5.438
37492SOL     OW14314   0.316   0.227   3.031
37492SOL    HW114315   0.370   0.149   3.018
37492SOL    HW214316   0.316   0.241   3.125
37493SOL     OW14317   2.628   6.642   3.445
37493SOL    HW114318   2.690   6.677   3.381
37493SOL    HW214319   2.674   6.568   3.485
37494SOL     OW14320   6.042   1.711  14.545
37494SOL    HW114321   6.107   1.708  14.475
37494SOL    HW214322   6.000   1.797  14.535
37495SOL     OW14323   5.694  10.301   2.124
37495SOL    HW114324   5.709  10.355   2.202
37495SOL    HW214325   5.674  10.365   2.055
37496SOL     OW14326   4.153  13.119  11.384
37496SOL    HW114327   4.199  13.067  11.318
37496SOL    HW214328   4.202  13.201  11.388
37497SOL     OW14329   0.815   1.256   1.020
37497SOL    HW114330   0.800   1.182   1.079
37497SOL    HW214331   0.730   1.301   1.016
37498SOL     OW14332   7.965   1.166   4.342
37498SOL    HW114333   8.053   1.153   4.306
37498SOL    HW214334   7.916   1.089   4.315
37499SOL     OW14335   4.469   1.455   3.515
37499SOL    HW114336   4.411   1.509   3.462
37499SOL    HW214337   4.551   1.504   3.518
37500SOL     OW14338  13.701   7.719  11.584
37500SOL    HW114339  13.760   7.689  11.652
37500SOL    HW214340  13.619   7.740  11.630
37501SOL     OW14341  13.673   0.651   0.096
37501SOL    HW114342  13.732   0.612   0.032
37501SOL    HW214343  13.627   0.576   0.134
37502SOL     OW14344   3.488   1.561  10.442
37502SOL    HW114345   3.477   1.485  10.384
37502SOL    HW214346   3.423   1.547  10.512
37503SOL     OW14347  12.253   0.006  12.525
37503SOL    HW114348  12.288   0.016  12.436
37503SOL    HW214349  12.166  14.842  12.513
37504SOL     OW14350   1.766   9.587   0.089
37504SOL    HW114351   1.820   9.640   0.030
37504SOL    HW214352   1.819   9.577   0.168
37505SOL     OW14353  10.377  12.732   8.036
37505SOL    HW114354  10.442  12.803   8.034
37505SOL    HW214355  10.429  12.652   8.030
37506SOL     OW14356  12.548   7.781   4.720
37506SOL    HW114357  12.508   7.868   4.719
37506SOL    HW214358  12.638   7.796   4.750
37507SOL     OW14359  10.081   1.275   5.394
37507SOL    HW114360  10.059   1.234   5.310
37507SOL    HW214361  10.041   1.218   5.460
37508SOL     OW14362   5.879  10.476   8.244
37508SOL    HW114363   5.804  10.417   8.250
37508SOL    HW214364   5.849  10.548   8.189
37509SOL     OW14365  14.809   0.945   0.616
37509SOL    HW114366  14.808   0.864   0.667
37509SOL    HW214367  14.731   0.991   0.645
37510SOL     OW14368   7.026   7.276   6.153
37510SOL    HW114369   7.090   7.321   6.099
37510SOL    HW214370   7.072   7.255   6.234
37511SOL     OW14371   0.691   7.156  10.299
37511SOL    HW114372   0.598   7.174  10.290
37511SOL    HW214373   0.697   7.094  10.371
37512SOL     OW14374   6.185  14.872   5.964
37512SOL    HW114375   6.248  14.871   5.892
37512SOL    HW214376   6.149  14.783   5.965
37513SOL     OW14377   0.048   4.838  14.835
37513SOL    HW114378   0.042   4.923   0.005
37513SOL    HW214379  14.830   4.813  14.821
37514SOL     OW14380  13.324   2.283   5.037
37514SOL    HW114381  13.316   2.205   5.092
37514SOL    HW214382  13.300   2.253   4.950
37515SOL     OW14383   9.763  10.635   7.821
37515SOL    HW114384   9.810  10.612   7.741
37515SOL    HW214385   9.703  10.705   7.795
37516SOL     OW14386   3.516   3.254  13.368
37516SOL    HW114387   3.575   3.178  13.365
37516SOL    HW214388   3.483   3.262  13.278
37517SOL     OW14389  10.709   2.635   9.731
37517SOL    HW114390  10.631   2.608   9.682
37517SOL    HW214391  10.779   2.578   9.698
37518SOL     OW14392   5.185  10.429  10.962
37518SOL    HW114393   5.269  10.439  11.006
37518SOL    HW214394   5.174  10.510  10.912
37519SOL     OW14395   3.408   9.723   8.714
37519SOL    HW114396   3.415   9.637   8.754
37519SOL    HW214397   3.372   9.707   8.627
37520SOL     OW14398   3.083  13.880  13.227
37520SOL    HW114399   3.016  13.945  13.205
37520SOL    HW214400   3.041  13.796  13.212
37521SOL     OW14401   5.455   4.121   6.541
37521SOL    HW114402   5.505   4.143   6.462
37521SOL    HW214403   5.496   4.042   6.574
37522SOL     OW14404   3.772   2.449  10.022
37522SOL    HW114405   3.772   2.416  10.112
37522SOL    HW214406   3.854   2.497  10.013
37523SOL     OW14407   6.579  10.225  12.130
37523SOL    HW114408   6.515  10.296  12.128
37523SOL    HW214409   6.584  10.199  12.222
37524SOL     OW14410  10.649   7.677   2.421
37524SOL    HW114411  10.626   7.726   2.500
37524SOL    HW214412  10.565   7.663   2.376
37525SOL     OW14413   8.508  14.317  10.992
37525SOL    HW114414   8.588  14.346  11.035
37525SOL    HW214415   8.523  14.335  10.899
37526SOL     OW14416   7.568   5.117   4.679
37526SOL    HW114417   7.601   5.092   4.765
37526SOL    HW214418   7.621   5.192   4.653
37527SOL     OW14419   8.517   8.694   2.736
37527SOL    HW114420   8.589   8.702   2.799
37527SOL    HW214421   8.532   8.610   2.693
37528SOL     OW14422   1.283   3.837  14.173
37528SOL    HW114423   1.309   3.901  14.239
37528SOL    HW214424   1.302   3.752  14.213
37529SOL     OW14425  11.655   5.547   5.553
37529SOL    HW114426  11.613   5.620   5.507
37529SOL    HW214427  11.745   5.547   5.520
37530SOL     OW14428   0.428  12.010  14.784
37530SOL    HW114429   0.354  12.043  14.733
37530SOL    HW214430   0.394  12.001  14.873
37531SOL     OW14431  10.438   9.840   8.006
37531SOL    HW114432  10.353   9.867   8.041
37531SOL    HW214433  10.497   9.912   8.026
37532SOL     OW14434   1.973   1.521   8.973
37532SOL    HW114435   1.935   1.447   8.924
37532SOL    HW214436   2.047   1.549   8.920
37533SOL     OW14437   7.959   4.502   8.411
37533SOL    HW114438   7.880   4.498   8.465
37533SOL    HW214439   8.002   4.418   8.425
37534SOL     OW14440   4.550   9.265   6.593
37534SOL    HW114441   4.461   9.241   6.620
37534SOL    HW214442   4.596   9.284   6.674
37535SOL     OW14443   6.110   0.690  10.068
37535SOL    HW114444   6.182   0.732  10.117
37535SOL    HW214445   6.051   0.762  10.046
37536SOL     OW14446  10.628  13.766   8.531
37536SOL    HW114447  10.570  13.734   8.601
37536SOL    HW214448  10.573  13.826   8.481
37537SOL     OW14449   3.656   2.485  13.921
37537SOL    HW114450   3.721   2.432  13.967
37537SOL    HW214451   3.684   2.576  13.936
37538SOL     OW14452   8.888  11.404  11.002
37538SOL    HW114453   8.910  11.424  11.093
37538SOL    HW214454   8.965  11.431  10.952
37539SOL     OW14455   1.893  13.390   1.457
37539SOL    HW114456   1.889  13.295   1.468
37539SOL    HW214457   1.871  13.425   1.543
37540SOL     OW14458  13.717   7.292   0.002
37540SOL    HW114459  13.664   7.352  14.822
37540SOL    HW214460  13.780   7.254  14.813
37541SOL     OW14461  11.431   9.366   0.970
37541SOL    HW114462  11.511   9.314   0.978
37541SOL    HW214463  11.456   9.452   1.004
37542SOL     OW14464   1.510   6.412  12.401
37542SOL    HW114465   1.508   6.322  12.434
37542SOL    HW214466   1.437   6.455  12.445
37543SOL     OW14467  12.714   5.276   3.692
37543SOL    HW114468  12.684   5.327   3.617
37543SOL    HW214469  12.692   5.185   3.671
37544SOL     OW14470   6.495  14.374  12.047
37544SOL    HW114471   6.450  14.319  12.111
37544SOL    HW214472   6.526  14.449  12.098
37545SOL     OW14473  11.475  13.172   7.484
37545SOL    HW114474  11.497  13.089   7.442
37545SOL    HW214475  11.380  13.180   7.472
37546SOL     OW14476   1.213   5.571   7.361
37546SOL    HW114477   1.273   5.638   7.327
37546SOL    HW214478   1.255   5.539   7.440
37547SOL     OW14479   2.115   0.663   6.819
37547SOL    HW114480   2.090   0.711   6.899
37547SOL    HW214481   2.035   0.617   6.793
37548SOL     OW14482  10.201  13.352  14.643
37548SOL    HW114483  10.192  13.399  14.726
37548SOL    HW214484  10.258  13.278  14.663
37549SOL     OW14485   9.737   2.106   4.537
37549SOL    HW114486   9.763   2.073   4.623
37549SOL    HW214487   9.771   2.042   4.475
37550SOL     OW14488   3.235   4.946   7.283
37550SOL    HW114489   3.167   4.988   7.336
37550SOL    HW214490   3.312   4.947   7.339
37551SOL     OW14491  14.024  12.089   2.931
37551SOL    HW114492  14.112  12.107   2.963
37551SOL    HW214493  14.032  12.006   2.885
37552SOL     OW14494   5.666  12.931   3.693
37552SOL    HW114495   5.718  12.941   3.773
37552SOL    HW214496   5.645  12.838   3.689
37553SOL     OW14497   7.008   8.566   9.595
37553SOL    HW114498   7.097   8.601   9.585
37553SOL    HW214499   6.952   8.634   9.558
37554SOL     OW14500   4.888   4.304   4.734
37554SOL    HW114501   4.974   4.294   4.775
37554SOL    HW214502   4.832   4.342   4.802
37555SOL     OW14503  14.655   3.506   1.931
37555SOL    HW114504  14.699   3.581   1.889
37555SOL    HW214505  14.647   3.532   2.023
37556SOL     OW14506  10.381   2.325   6.115
37556SOL    HW114507  10.338   2.407   6.138
37556SOL    HW214508  10.323   2.257   6.148
37557SOL     OW14509  10.716   9.203   4.268
37557SOL    HW114510  10.651   9.249   4.215
37557SOL    HW214511  10.673   9.186   4.351
37558SOL     OW14512   7.569   1.733  13.188
37558SOL    HW114513   7.500   1.778  13.238
37558SOL    HW214514   7.635   1.712  13.254
37559SOL     OW14515   2.258   6.765   2.665
37559SOL    HW114516   2.171   6.759   2.626
37559SOL    HW214517   2.264   6.689   2.723
37560SOL     OW14518   8.993   4.949   8.724
37560SOL    HW114519   9.056   4.979   8.789
37560SOL    HW214520   9.025   4.984   8.641
37561SOL     OW14521  10.985  13.509   0.462
37561SOL    HW114522  11.042  13.461   0.402
37561SOL    HW214523  10.928  13.442   0.499
37562SOL     OW14524  14.831   8.237   4.268
37562SOL    HW114525  14.803   8.174   4.202
37562SOL    HW214526   0.010   8.186   4.330
37563SOL     OW14527  14.082  12.114  14.406
37563SOL    HW114528  14.156  12.053  14.412
37563SOL    HW214529  14.073  12.131  14.312
37564SOL     OW14530   5.006   3.683   5.155
37564SOL    HW114531   4.946   3.728   5.096
37564SOL    HW214532   4.958   3.675   5.238
37565SOL     OW14533   8.635   7.293   1.513
37565SOL    HW114534   8.685   7.278   1.594
37565SOL    HW214535   8.636   7.209   1.468
37566SOL     OW14536  14.543   6.715   4.892
37566SOL    HW114537  14.613   6.779   4.880
37566SOL    HW214538  14.588   6.632   4.910
37567SOL     OW14539   4.387   8.227   5.861
37567SOL    HW114540   4.294   8.250   5.860
37567SOL    HW214541   4.389   8.134   5.881
37568SOL     OW14542  11.194   8.508   1.747
37568SOL    HW114543  11.197   8.414   1.728
37568SOL    HW214544  11.107   8.523   1.783
37569SOL     OW14545   6.471   6.983   1.510
37569SOL    HW114546   6.507   7.012   1.426
37569SOL    HW214547   6.420   6.905   1.488
37570SOL     OW14548   5.555   0.269  12.840
37570SOL    HW114549   5.473   0.223  12.820
37570SOL    HW214550   5.557   0.342  12.778
37571SOL     OW14551  10.602   8.899   0.224
37571SOL    HW114552  10.620   8.869   0.313
37571SOL    HW214553  10.677   8.955   0.202
37572SOL     OW14554   9.725   8.314  13.252
37572SOL    HW114555   9.757   8.239  13.201
37572SOL    HW214556   9.741   8.390  13.196
37573SOL     OW14557   6.280   7.800   7.977
37573SOL    HW114558   6.371   7.801   7.949
37573SOL    HW214559   6.236   7.859   7.915
37574SOL     OW14560   0.009  12.441   7.818
37574SOL    HW114561   0.095  12.469   7.787
37574SOL    HW214562   0.012  12.456   7.913
37575SOL     OW14563  12.032  12.916  13.240
37575SOL    HW114564  12.078  12.865  13.307
37575SOL    HW214565  12.101  12.945  13.180
37576SOL     OW14566   2.876  11.000   2.136
37576SOL    HW114567   2.877  10.932   2.203
37576SOL    HW214568   2.932  10.966   2.066
37577SOL     OW14569   6.396   7.659  12.565
37577SOL    HW114570   6.453   7.681  12.491
37577SOL    HW214571   6.446   7.685  12.642
37578SOL     OW14572   0.758   1.399   0.712
37578SOL    HW114573   0.690   1.339   0.682
37578SOL    HW214574   0.820   1.344   0.760
37579SOL     OW14575  14.294   6.490  13.095
37579SOL    HW114576  14.244   6.414  13.066
37579SOL    HW214577  14.230   6.545  13.141
37580SOL     OW14578   0.844   8.892  14.687
37580SOL    HW114579   0.888   8.814  14.721
37580SOL    HW214580   0.902   8.923  14.617
37581SOL     OW14581   6.470  11.441   2.001
37581SOL    HW114582   6.426  11.381   1.941
37581SOL    HW214583   6.458  11.527   1.960
37582SOL     OW14584   6.135   5.636  11.036
37582SOL    HW114585   6.043   5.653  11.014
37582SOL    HW214586   6.185   5.680  10.969
37583SOL     OW14587   3.073   8.313   8.665
37583SOL    HW114588   3.118   8.239   8.707
37583SOL    HW214589   3.006   8.338   8.729
37584SOL     OW14590  14.501   5.978  11.842
37584SOL    HW114591  14.590   5.972  11.807
37584SOL    HW214592  14.451   5.912  11.793
37585SOL     OW14593  13.073   5.274   0.344
37585SOL    HW114594  13.036   5.252   0.258
37585SOL    HW214595  13.090   5.190   0.385
37586SOL     OW14596  13.426   1.996  12.044
37586SOL    HW114597  13.392   1.939  12.113
37586SOL    HW214598  13.485   2.057  12.090
37587SOL     OW14599   7.453  11.059   6.151
37587SOL    HW114600   7.413  10.973   6.162
37587SOL    HW214601   7.468  11.068   6.057
37588SOL     OW14602   9.501  11.800   5.414
37588SOL    HW114603   9.461  11.713   5.423
37588SOL    HW214604   9.473  11.830   5.328
37589SOL     OW14605  13.552  12.857  14.323
37589SOL    HW114606  13.606  12.807  14.384
37589SOL    HW214607  13.531  12.794  14.253
37590SOL     OW14608  12.076  12.366   1.356
37590SOL    HW114609  12.110  12.315   1.429
37590SOL    HW214610  12.153  12.412   1.321
37591SOL     OW14611   7.654   3.621   4.627
37591SOL    HW114612   7.685   3.531   4.625
37591SOL    HW214613   7.558   3.613   4.628
37592SOL     OW14614   9.032   6.017   8.219
37592SOL    HW114615   9.049   5.952   8.288
37592SOL    HW214616   9.105   6.078   8.225
37593SOL     OW14617   9.919   0.120   4.765
37593SOL    HW114618   9.976   0.184   4.721
37593SOL    HW214619   9.978   0.072   4.824
37594SOL     OW14620   8.510   0.401  10.526
37594SOL    HW114621   8.508   0.341  10.452
37594SOL    HW214622   8.536   0.485  10.488
37595SOL     OW14623   8.242   1.488  10.723
37595SOL    HW114624   8.263   1.395  10.715
37595SOL    HW214625   8.248   1.506  10.817
37596SOL     OW14626   1.482   6.478   5.833
37596SOL    HW114627   1.555   6.540   5.838
37596SOL    HW214628   1.524   6.393   5.819
37597SOL     OW14629   9.261   1.966  14.816
37597SOL    HW114630   9.352   1.940  14.800
37597SOL    HW214631   9.211   1.922  14.748
37598SOL     OW14632   2.821  13.649  12.157
37598SOL    HW114633   2.769  13.679  12.082
37598SOL    HW214634   2.901  13.614  12.119
37599SOL     OW14635   3.512  11.204   8.806
37599SOL    HW114636   3.538  11.230   8.718
37599SOL    HW214637   3.552  11.117   8.818
37600SOL     OW14638   0.627  12.632  11.038
37600SOL    HW114639   0.692  12.592  11.096
37600SOL    HW214640   0.678  12.678  10.971
37601SOL     OW14641   1.816  13.014  11.261
37601SOL    HW114642   1.834  12.921  11.246
37601SOL    HW214643   1.772  13.043  11.181
37602SOL     OW14644   9.294  13.520   4.726
37602SOL    HW114645   9.282  13.497   4.634
37602SOL    HW214646   9.356  13.593   4.724
37603SOL     OW14647   1.671  14.032   4.258
37603SOL    HW114648   1.682  13.939   4.238
37603SOL    HW214649   1.583  14.053   4.228
37604SOL     OW14650  10.289   1.982   6.604
37604SOL    HW114651  10.273   2.074   6.584
37604SOL    HW214652  10.331   1.983   6.690
37605SOL     OW14653   9.399   3.929   1.299
37605SOL    HW114654   9.312   3.945   1.263
37605SOL    HW214655   9.383   3.893   1.387
37606SOL     OW14656   8.741  10.329  11.504
37606SOL    HW114657   8.666  10.360  11.453
37606SOL    HW214658   8.709  10.328  11.594
37607SOL     OW14659  10.821   7.220   3.693
37607SOL    HW114660  10.853   7.295   3.643
37607SOL    HW214661  10.811   7.150   3.628
37608SOL     OW14662  14.389   3.893   3.911
37608SOL    HW114663  14.311   3.937   3.878
37608SOL    HW214664  14.371   3.877   4.004
37609SOL     OW14665  13.390   8.199   2.940
37609SOL    HW114666  13.431   8.285   2.938
37609SOL    HW214667  13.394   8.169   2.849
37610SOL     OW14668   6.256   8.329   4.479
37610SOL    HW114669   6.201   8.379   4.538
37610SOL    HW214670   6.345   8.363   4.494
37611SOL     OW14671  13.080   9.223   3.648
37611SOL    HW114672  13.036   9.138   3.651
37611SOL    HW214673  13.134   9.219   3.569
37612SOL     OW14674   7.390   7.039   9.703
37612SOL    HW114675   7.372   7.126   9.739
37612SOL    HW214676   7.418   7.055   9.613
37613SOL     OW14677   3.316   2.171  12.312
37613SOL    HW114678   3.237   2.216  12.284
37613SOL    HW214679   3.387   2.216  12.265
37614SOL     OW14680   6.864  13.082   8.611
37614SOL    HW114681   6.926  13.063   8.541
37614SOL    HW214682   6.908  13.052   8.691
37615SOL     OW14683   3.952   2.600   0.492
37615SOL    HW114684   3.874   2.565   0.535
37615SOL    HW214685   3.924   2.685   0.458
37616SOL     OW14686  13.709  13.426   7.309
37616SOL    HW114687  13.640  13.431   7.243
37616SOL    HW214688  13.680  13.483   7.380
37617SOL     OW14689   4.578  12.263   6.090
37617SOL    HW114690   4.543  12.339   6.043
37617SOL    HW214691   4.518  12.192   6.067
37618SOL     OW14692   8.438   2.781   1.221
37618SOL    HW114693   8.429   2.869   1.258
37618SOL    HW214694   8.448   2.724   1.297
37619SOL     OW14695   5.210  11.300   5.500
37619SOL    HW114696   5.117  11.282   5.510
37619SOL    HW214697   5.226  11.291   5.406
37620SOL     OW14698   8.865   6.379   2.493
37620SOL    HW114699   8.796   6.445   2.495
37620SOL    HW214700   8.910   6.393   2.410
37621SOL     OW14701  12.850   3.457   0.687
37621SOL    HW114702  12.791   3.389   0.655
37621SOL    HW214703  12.904   3.413   0.753
37622SOL     OW14704  14.012   6.803   8.409
37622SOL    HW114705  13.982   6.884   8.451
37622SOL    HW214706  14.093   6.781   8.455
37623SOL     OW14707   3.258   5.219   3.106
37623SOL    HW114708   3.183   5.261   3.149
37623SOL    HW214709   3.315   5.192   3.177
37624SOL     OW14710  11.081   4.092   8.891
37624SOL    HW114711  11.150   4.115   8.829
37624SOL    HW214712  11.080   4.163   8.955
37625SOL     OW14713  13.217   1.615   2.833
37625SOL    HW114714  13.275   1.622   2.757
37625SOL    HW214715  13.138   1.573   2.799
37626SOL     OW14716   2.721  14.386   3.757
37626SOL    HW114717   2.713  14.299   3.718
37626SOL    HW214718   2.782  14.432   3.700
37627SOL     OW14719  10.839   0.558   4.834
37627SOL    HW114720  10.919   0.537   4.787
37627SOL    HW214721  10.845   0.651   4.854
37628SOL     OW14722   9.066  11.209  12.775
37628SOL    HW114723   9.016  11.141  12.820
37628SOL    HW214724   9.090  11.169  12.691
37629SOL     OW14725  13.752   7.613   2.546
37629SOL    HW114726  13.786   7.686   2.494
37629SOL    HW214727  13.802   7.537   2.516
37630SOL     OW14728   6.740   0.922   7.153
37630SOL    HW114729   6.769   0.874   7.075
37630SOL    HW214730   6.794   0.888   7.224
37631SOL     OW14731   5.285  12.599   6.279
37631SOL    HW114732   5.367  12.553   6.260
37631SOL    HW214733   5.311  12.675   6.331
37632SOL     OW14734  10.074  14.431   6.438
37632SOL    HW114735  10.000  14.422   6.498
37632SOL    HW214736  10.042  14.395   6.355
37633SOL     OW14737   1.643  11.072   0.379
37633SOL    HW114738   1.660  11.023   0.299
37633SOL    HW214739   1.549  11.090   0.376
37634SOL     OW14740   5.759   9.969   2.916
37634SOL    HW114741   5.787   9.949   3.005
37634SOL    HW214742   5.805   9.905   2.861
37635SOL     OW14743   9.275   1.226   4.926
37635SOL    HW114744   9.325   1.308   4.924
37635SOL    HW214745   9.315   1.175   4.996
37636SOL     OW14746   1.266  10.274  11.075
37636SOL    HW114747   1.344  10.298  11.125
37636SOL    HW214748   1.212  10.353  11.075
37637SOL     OW14749   8.714   7.030   6.601
37637SOL    HW114750   8.638   6.994   6.646
37637SOL    HW214751   8.782   7.036   6.669
37638SOL     OW14752   0.355   2.447   4.932
37638SOL    HW114753   0.352   2.425   4.838
37638SOL    HW214754   0.287   2.392   4.971
37639SOL     OW14755   4.959  14.173   1.821
37639SOL    HW114756   5.014  14.123   1.882
37639SOL    HW214757   4.883  14.199   1.874
37640SOL     OW14758  14.633   5.836   8.624
37640SOL    HW114759  14.571   5.876   8.562
37640SOL    HW214760  14.685   5.776   8.570
37641SOL     OW14761  13.115  12.788   2.962
37641SOL    HW114762  13.102  12.780   2.867
37641SOL    HW214763  13.105  12.882   2.979
37642SOL     OW14764   2.138   8.418   8.502
37642SOL    HW114765   2.214   8.441   8.555
37642SOL    HW214766   2.106   8.336   8.540
37643SOL     OW14767   6.584   6.045   1.556
37643SOL    HW114768   6.580   5.971   1.617
37643SOL    HW214769   6.492   6.065   1.535
37644SOL     OW14770  10.043   6.863   9.860
37644SOL    HW114771  10.094   6.857   9.941
37644SOL    HW214772  10.009   6.952   9.860
37645SOL     OW14773   8.649   8.025  12.548
37645SOL    HW114774   8.743   8.043  12.548
37645SOL    HW214775   8.612   8.087  12.485
37646SOL     OW14776  11.714   5.988  12.088
37646SOL    HW114777  11.717   6.084  12.090
37646SOL    HW214778  11.650   5.968  12.020
37647SOL     OW14779  13.261   2.257   4.342
37647SOL    HW114780  13.263   2.257   4.247
37647SOL    HW214781  13.354   2.258   4.368
37648SOL     OW14782  11.538   3.618  12.572
37648SOL    HW114783  11.497   3.559  12.636
37648SOL    HW214784  11.499   3.593  12.488
37649SOL     OW14785   5.983   6.901   4.101
37649SOL    HW114786   5.910   6.854   4.142
37649SOL    HW214787   6.055   6.838   4.100
37650SOL     OW14788   6.541   3.741   7.568
37650SOL    HW114789   6.466   3.689   7.540
37650SOL    HW214790   6.547   3.726   7.663
37651SOL     OW14791   5.027  10.196   3.176
37651SOL    HW114792   5.104  10.229   3.222
37651SOL    HW214793   4.956  10.206   3.238
37652SOL     OW14794  12.913   1.131   4.682
37652SOL    HW114795  12.899   1.201   4.618
37652SOL    HW214796  12.863   1.057   4.649
37653SOL     OW14797   8.281   6.642   1.864
37653SOL    HW114798   8.187   6.625   1.864
37653SOL    HW214799   8.311   6.614   1.950
37654SOL     OW14800  13.769   3.294   6.572
37654SOL    HW114801  13.756   3.285   6.666
37654SOL    HW214802  13.806   3.210   6.544
37655SOL     OW14803   6.458  11.899   6.316
37655SOL    HW114804   6.509  11.847   6.255
37655SOL    HW214805   6.520  11.961   6.353
37656SOL     OW14806  13.485   7.884   7.361
37656SOL    HW114807  13.431   7.878   7.282
37656SOL    HW214808  13.432   7.936   7.422
37657SOL     OW14809  12.530   5.720   8.910
37657SOL    HW114810  12.556   5.646   8.855
37657SOL    HW214811  12.542   5.797   8.853
37658SOL     OW14812   2.065   0.961   9.992
37658SOL    HW114813   2.126   0.938   9.922
37658SOL    HW214814   2.007   1.026   9.953
37659SOL     OW14815   2.420   1.754   8.466
37659SOL    HW114816   2.502   1.803   8.478
37659SOL    HW214817   2.360   1.793   8.529
37660SOL     OW14818   7.290   8.174  12.873
37660SOL    HW114819   7.282   8.086  12.909
37660SOL    HW214820   7.226   8.177  12.802
37661SOL     OW14821   0.024   4.259  10.518
37661SOL    HW114822   0.002   4.262  10.611
37661SOL    HW214823   0.119   4.272  10.515
37662SOL     OW14824   2.175   2.275  10.375
37662SOL    HW114825   2.266   2.280  10.404
37662SOL    HW214826   2.136   2.207  10.430
37663SOL     OW14827   1.614  12.216  13.356
37663SOL    HW114828   1.615  12.311  13.365
37663SOL    HW214829   1.594  12.201  13.263
37664SOL     OW14830  10.698   4.537   3.666
37664SOL    HW114831  10.788   4.569   3.665
37664SOL    HW214832  10.695   4.474   3.739
37665SOL     OW14833  13.658   3.495   5.528
37665SOL    HW114834  13.590   3.471   5.589
37665SOL    HW214835  13.725   3.428   5.538
37666SOL     OW14836  11.146   8.652  12.158
37666SOL    HW114837  11.053   8.649  12.134
37666SOL    HW214838  11.158   8.739  12.197
37667SOL     OW14839   2.922   4.913  13.396
37667SOL    HW114840   3.007   4.900  13.352
37667SOL    HW214841   2.900   4.827  13.431
37668SOL     OW14842  10.528  10.813  12.953
37668SOL    HW114843  10.565  10.777  12.873
37668SOL    HW214844  10.594  10.876  12.983
37669SOL     OW14845  14.171   2.854  12.577
37669SOL    HW114846  14.096   2.823  12.526
37669SOL    HW214847  14.221   2.907  12.515
37670SOL     OW14848  10.300   8.819   5.141
37670SOL    HW114849  10.274   8.748   5.082
37670SOL    HW214850  10.382   8.852   5.104
37671SOL     OW14851   6.210   7.081   5.219
37671SOL    HW114852   6.243   7.014   5.158
37671SOL    HW214853   6.130   7.044   5.255
37672SOL     OW14854  12.924   4.993  14.459
37672SOL    HW114855  12.868   4.965  14.532
37672SOL    HW214856  12.936   4.914  14.407
37673SOL     OW14857   4.872   0.336   5.923
37673SOL    HW114858   4.796   0.376   5.881
37673SOL    HW214859   4.834   0.275   5.987
37674SOL     OW14860  10.965   2.692   5.979
37674SOL    HW114861  10.985   2.781   5.950
37674SOL    HW214862  10.887   2.701   6.034
37675SOL     OW14863  10.441   1.970  11.603
37675SOL    HW114864  10.413   2.061  11.595
37675SOL    HW214865  10.359   1.920  11.611
37676SOL     OW14866  14.256   9.335  13.247
37676SOL    HW114867  14.177   9.292  13.280
37676SOL    HW214868  14.326   9.273  13.264
37677SOL     OW14869   6.303  14.636   4.131
37677SOL    HW114870   6.393  14.606   4.134
37677SOL    HW214871   6.251  14.558   4.151
37678SOL     OW14872  12.717   0.497   5.278
37678SOL    HW114873  12.772   0.466   5.349
37678SOL    HW214874  12.647   0.431   5.272
37679SOL     OW14875   4.201   6.396   4.916
37679SOL    HW114876   4.266   6.372   4.983
37679SOL    HW214877   4.141   6.322   4.913
37680SOL     OW14878   8.177   0.527  11.991
37680SOL    HW114879   8.111   0.522  12.060
37680SOL    HW214880   8.255   0.560  12.036
37681SOL     OW14881  11.108  11.116  12.728
37681SOL    HW114882  11.014  11.102  12.742
37681SOL    HW214883  11.123  11.085  12.639
37682SOL     OW14884  13.957  11.544   7.928
37682SOL    HW114885  13.937  11.550   7.835
37682SOL    HW214886  13.960  11.635   7.958
37683SOL     OW14887  11.795  12.978   9.211
37683SOL    HW114888  11.747  12.915   9.265
37683SOL    HW214889  11.814  13.050   9.271
37684SOL     OW14890   4.233   3.427   3.750
37684SOL    HW114891   4.236   3.371   3.673
37684SOL    HW214892   4.177   3.500   3.724
37685SOL     OW14893  12.317  12.461   9.944
37685SOL    HW114894  12.389  12.522   9.929
37685SOL    HW214895  12.295  12.428   9.857
37686SOL     OW14896   5.916   1.958   4.678
37686SOL    HW114897   5.881   2.040   4.643
37686SOL    HW214898   5.873   1.889   4.628
37687SOL     OW14899   5.974  10.029   3.940
37687SOL    HW114900   6.028  10.069   3.872
37687SOL    HW214901   5.904  10.092   3.954
37688SOL     OW14902  14.752   1.177  10.079
37688SOL    HW114903  14.689   1.188  10.150
37688SOL    HW214904  14.727   1.243  10.014
37689SOL     OW14905   4.277   0.263   2.440
37689SOL    HW114906   4.267   0.176   2.401
37689SOL    HW214907   4.314   0.316   2.370
37690SOL     OW14908  14.036   6.946  13.448
37690SOL    HW114909  13.950   6.985  13.467
37690SOL    HW214910  14.039   6.941  13.353
37691SOL     OW14911  13.773   3.052   2.681
37691SOL    HW114912  13.770   3.128   2.739
37691SOL    HW214913  13.738   3.083   2.598
37692SOL     OW14914  12.240   8.393   9.555
37692SOL    HW114915  12.169   8.449   9.523
37692SOL    HW214916  12.209   8.304   9.540
37693SOL     OW14917   4.638   7.105   2.432
37693SOL    HW114918   4.617   7.196   2.410
37693SOL    HW214919   4.640   7.060   2.347
37694SOL     OW14920   6.606   6.229  10.030
37694SOL    HW114921   6.567   6.176   9.960
37694SOL    HW214922   6.533   6.250  10.088
37695SOL     OW14923   0.331   5.489   1.707
37695SOL    HW114924   0.272   5.547   1.756
37695SOL    HW214925   0.273   5.432   1.657
37696SOL     OW14926  12.540   4.469  13.717
37696SOL    HW114927  12.636   4.475  13.718
37696SOL    HW214928  12.513   4.527  13.646
37697SOL     OW14929   9.590  10.859   1.484
37697SOL    HW114930   9.545  10.942   1.467
37697SOL    HW214931   9.520  10.795   1.496
37698SOL     OW14932   8.895   4.947   0.245
37698SOL    HW114933   8.892   5.010   0.172
37698SOL    HW214934   8.984   4.911   0.242
37699SOL     OW14935   9.636  10.307   0.473
37699SOL    HW114936   9.636  10.326   0.566
37699SOL    HW214937   9.728  10.290   0.452
37700SOL     OW14938   9.217  10.618  12.836
37700SOL    HW114939   9.265  10.700  12.839
37700SOL    HW214940   9.158  10.622  12.911
37701SOL     OW14941   5.210  11.308   8.444
37701SOL    HW114942   5.167  11.347   8.368
37701SOL    HW214943   5.160  11.228   8.461
37702SOL     OW14944   3.134   5.651   8.078
37702SOL    HW114945   3.203   5.687   8.022
37702SOL    HW214946   3.176   5.639   8.163
37703SOL     OW14947   6.467  11.593  12.571
37703SOL    HW114948   6.533  11.662  12.564
37703SOL    HW214949   6.409  11.608  12.496
37704SOL     OW14950  14.591   2.934  13.767
37704SOL    HW114951  14.523   2.877  13.731
37704SOL    HW214952  14.553   3.021  13.764
37705SOL     OW14953  10.888  14.222  14.310
37705SOL    HW114954  10.795  14.199  14.305
37705SOL    HW214955  10.932  14.155  14.258
37706SOL     OW14956   3.999   6.690   0.737
37706SOL    HW114957   3.910   6.657   0.748
37706SOL    HW214958   4.026   6.717   0.825
37707SOL     OW14959  11.654  14.820   7.491
37707SOL    HW114960  11.569  14.786   7.463
37707SOL    HW214961  11.718  14.773   7.436
37708SOL     OW14962   7.088  13.081   4.927
37708SOL    HW114963   7.168  13.087   4.876
37708SOL    HW214964   7.054  12.993   4.908
37709SOL     OW14965   8.310  14.632   4.637
37709SOL    HW114966   8.392  14.592   4.608
37709SOL    HW214967   8.245  14.600   4.576
37710SOL     OW14968   9.058  13.850   0.673
37710SOL    HW114969   9.006  13.788   0.621
37710SOL    HW214970   9.056  13.814   0.761
37711SOL     OW14971   3.839   1.317  14.153
37711SOL    HW114972   3.775   1.263  14.107
37711SOL    HW214973   3.877   1.258  14.219
37712SOL     OW14974  13.640   8.102  12.946
37712SOL    HW114975  13.604   8.048  13.016
37712SOL    HW214976  13.676   8.179  12.991
37713SOL     OW14977   0.440  14.706   5.006
37713SOL    HW114978   0.358  14.749   5.028
37713SOL    HW214979   0.507  14.770   5.027
37714SOL     OW14980   5.473   5.237   1.524
37714SOL    HW114981   5.382   5.261   1.505
37714SOL    HW214982   5.499   5.180   1.452
37715SOL     OW14983   2.683  10.762   3.865
37715SOL    HW114984   2.736  10.720   3.797
37715SOL    HW214985   2.609  10.800   3.818
37716SOL     OW14986  10.107   7.829  10.097
37716SOL    HW114987  10.016   7.816  10.121
37716SOL    HW214988  10.112   7.804  10.005
37717SOL     OW14989   1.136  12.227   1.686
37717SOL    HW114990   1.190  12.211   1.764
37717SOL    HW214991   1.097  12.142   1.666
37718SOL     OW14992  12.417   0.221   1.765
37718SOL    HW114993  12.493   0.280   1.762
37718SOL    HW214994  12.452   0.136   1.737
37719SOL     OW14995   0.545   7.043   6.733
37719SOL    HW114996   0.479   7.106   6.705
37719SOL    HW214997   0.526   6.964   6.683
37720SOL     OW14998   6.151   6.582   0.080
37720SOL    HW114999   6.093   6.639   0.131
37720SOL    HW215000   6.196   6.641   0.020
37721SOL     OW15001  11.280   3.017   9.724
37721SOL    HW115002  11.310   2.927   9.718
37721SOL    HW215003  11.189   3.011   9.753
37722SOL     OW15004  13.202   7.191   1.932
37722SOL    HW115005  13.263   7.137   1.881
37722SOL    HW215006  13.167   7.132   1.998
37723SOL     OW15007   0.816  12.255   4.901
37723SOL    HW115008   0.817  12.321   4.970
37723SOL    HW215009   0.747  12.194   4.927
37724SOL     OW15010   4.568  11.843   9.574
37724SOL    HW115011   4.546  11.929   9.610
37724SOL    HW215012   4.660  11.852   9.548
37725SOL     OW15013   4.968   9.098   0.797
37725SOL    HW115014   5.001   9.009   0.784
37725SOL    HW215015   5.043   9.154   0.775
37726SOL     OW15016   5.101  13.225   3.754
37726SOL    HW115017   5.013  13.188   3.756
37726SOL    HW215018   5.135  13.204   3.667
37727SOL     OW15019  10.152   3.709   9.015
37727SOL    HW115020  10.182   3.619   8.999
37727SOL    HW215021  10.231   3.762   9.008
37728SOL     OW15022  11.653  13.346   9.040
37728SOL    HW115023  11.675  13.424   9.090
37728SOL    HW215024  11.558  13.348   9.031
37729SOL     OW15025  12.997   9.251   4.284
37729SOL    HW115026  13.079   9.237   4.330
37729SOL    HW215027  13.023   9.286   4.199
37730SOL     OW15028   3.074   7.387  14.150
37730SOL    HW115029   3.011   7.454  14.127
37730SOL    HW215030   3.021   7.317  14.190
37731SOL     OW15031  13.264   1.362   7.064
37731SOL    HW115032  13.192   1.352   7.127
37731SOL    HW215033  13.265   1.455   7.043
37732SOL     OW15034  12.369   4.950   7.093
37732SOL    HW115035  12.376   5.044   7.108
37732SOL    HW215036  12.293   4.940   7.035
37733SOL     OW15037   5.939   7.687   9.869
37733SOL    HW115038   5.914   7.742   9.944
37733SOL    HW215039   6.032   7.705   9.856
37734SOL     OW15040  12.849   3.341   5.474
37734SOL    HW115041  12.840   3.246   5.463
37734SOL    HW215042  12.943   3.355   5.487
37735SOL     OW15043   3.531   4.434   1.558
37735SOL    HW115044   3.453   4.388   1.591
37735SOL    HW215045   3.589   4.364   1.529
37736SOL     OW15046  14.278  13.030   1.538
37736SOL    HW115047  14.286  12.948   1.488
37736SOL    HW215048  14.289  13.098   1.472
37737SOL     OW15049   8.062  14.622   7.280
37737SOL    HW115050   8.117  14.576   7.343
37737SOL    HW215051   7.973  14.604   7.308
37738SOL     OW15052   7.498   0.092   4.155
37738SOL    HW115053   7.589   0.122   4.164
37738SOL    HW215054   7.449   0.146   4.217
37739SOL     OW15055  14.483   8.255   9.644
37739SOL    HW115056  14.405   8.207   9.617
37739SOL    HW215057  14.514   8.298   9.564
37740SOL     OW15058   0.500  14.470   6.310
37740SOL    HW115059   0.456  14.456   6.226
37740SOL    HW215060   0.526  14.562   6.308
37741SOL     OW15061   6.461   5.910   3.048
37741SOL    HW115062   6.381   5.867   3.019
37741SOL    HW215063   6.525   5.839   3.057
37742SOL     OW15064   6.631   8.092   9.813
37742SOL    HW115065   6.669   8.124   9.895
37742SOL    HW215066   6.697   8.114   9.747
37743SOL     OW15067   7.939  10.537   7.717
37743SOL    HW115068   8.006  10.587   7.669
37743SOL    HW215069   7.980  10.519   7.802
37744SOL     OW15070  14.168  14.092  13.485
37744SOL    HW115071  14.246  14.148  13.483
37744SOL    HW215072  14.124  14.110  13.403
37745SOL     OW15073  13.014  11.297   7.474
37745SOL    HW115074  12.973  11.219   7.511
37745SOL    HW215075  13.028  11.354   7.550
37746SOL     OW15076   8.017  13.865   4.874
37746SOL    HW115077   8.035  13.772   4.885
37746SOL    HW215078   7.922  13.872   4.879
37747SOL     OW15079   0.959  11.135   8.173
37747SOL    HW115080   1.035  11.122   8.117
37747SOL    HW215081   0.995  11.138   8.262
37748SOL     OW15082  13.880   6.943  10.108
37748SOL    HW115083  13.965   6.985  10.096
37748SOL    HW215084  13.878   6.874  10.042
37749SOL     OW15085   9.676   1.280   6.729
37749SOL    HW115086   9.680   1.192   6.691
37749SOL    HW215087   9.593   1.316   6.698
37750SOL     OW15088   3.708   3.619   8.609
37750SOL    HW115089   3.699   3.570   8.527
37750SOL    HW215090   3.767   3.565   8.662
37751SOL     OW15091   4.015   2.283   8.275
37751SOL    HW115092   3.968   2.201   8.293
37751SOL    HW215093   4.106   2.262   8.295
37752SOL     OW15094   1.749   4.392  12.894
37752SOL    HW115095   1.749   4.368  12.802
37752SOL    HW215096   1.674   4.344  12.931
37753SOL     OW15097   1.721   1.499  14.280
37753SOL    HW115098   1.741   1.591  14.265
37753SOL    HW215099   1.774   1.475  14.356
37754SOL     OW15100   7.165   9.130   7.216
37754SOL    HW115101   7.204   9.078   7.286
37754SOL    HW215102   7.174   9.221   7.246
37755SOL     OW15103   4.612   3.621   3.347
37755SOL    HW115104   4.666   3.688   3.388
37755SOL    HW215105   4.639   3.539   3.388
37756SOL     OW15106   6.253   1.947   1.584
37756SOL    HW115107   6.312   2.010   1.544
37756SOL    HW215108   6.308   1.898   1.646
37757SOL     OW15109   6.434   9.660   3.530
37757SOL    HW115110   6.424   9.568   3.503
37757SOL    HW215111   6.355   9.679   3.580
37758SOL     OW15112   3.663   3.504  14.599
37758SOL    HW115113   3.752   3.528  14.573
37758SOL    HW215114   3.629   3.455  14.524
37759SOL     OW15115   0.111   6.046   3.143
37759SOL    HW115116   0.125   6.132   3.105
37759SOL    HW215117   0.153   6.050   3.229
37760SOL     OW15118   4.150   4.713  14.169
37760SOL    HW115119   4.147   4.665  14.087
37760SOL    HW215120   4.187   4.651  14.232
37761SOL     OW15121   1.786   0.374   2.866
37761SOL    HW115122   1.717   0.416   2.816
37761SOL    HW215123   1.816   0.441   2.928
37762SOL     OW15124  12.266   9.883   2.718
37762SOL    HW115125  12.307   9.929   2.791
37762SOL    HW215126  12.248   9.795   2.751
37763SOL     OW15127   6.078   0.234   9.196
37763SOL    HW115128   5.989   0.242   9.232
37763SOL    HW215129   6.112   0.323   9.196
37764SOL     OW15130   5.277  13.564   6.461
37764SOL    HW115131   5.243  13.598   6.379
37764SOL    HW215132   5.365  13.601   6.468
37765SOL     OW15133   8.905  13.593   6.689
37765SOL    HW115134   8.868  13.507   6.710
37765SOL    HW215135   8.984  13.598   6.742
37766SOL     OW15136  14.355  13.711  13.355
37766SOL    HW115137  14.304  13.768  13.413
37766SOL    HW215138  14.446  13.729  13.377
37767SOL     OW15139   7.853   1.780   7.369
37767SOL    HW115140   7.930   1.805   7.318
37767SOL    HW215141   7.819   1.702   7.324
37768SOL     OW15142   6.737   3.419   7.410
37768SOL    HW115143   6.777   3.504   7.429
37768SOL    HW215144   6.811   3.363   7.383
37769SOL     OW15145  14.528   0.359  13.659
37769SOL    HW115146  14.496   0.383  13.746
37769SOL    HW215147  14.609   0.410  13.648
37770SOL     OW15148  11.867  10.085   8.922
37770SOL    HW115149  11.845  10.128   9.005
37770SOL    HW215150  11.788  10.038   8.897
37771SOL     OW15151   9.657   2.163   9.137
37771SOL    HW115152   9.591   2.190   9.200
37771SOL    HW215153   9.685   2.244   9.094
37772SOL     OW15154   6.187   9.017   1.723
37772SOL    HW115155   6.102   9.011   1.768
37772SOL    HW215156   6.249   8.978   1.785
37773SOL     OW15157   0.339   9.255   7.515
37773SOL    HW115158   0.304   9.285   7.599
37773SOL    HW215159   0.266   9.213   7.471
37774SOL     OW15160   4.908   2.520   8.440
37774SOL    HW115161   4.991   2.473   8.441
37774SOL    HW215162   4.848   2.463   8.488
37775SOL     OW15163   0.952  14.462  10.167
37775SOL    HW115164   0.935  14.538  10.111
37775SOL    HW215165   0.987  14.500  10.248
37776SOL     OW15166   5.947   2.191  10.048
37776SOL    HW115167   5.911   2.277  10.027
37776SOL    HW215168   5.903   2.131   9.988
37777SOL     OW15169   8.645  13.227   5.070
37777SOL    HW115170   8.651  13.310   5.117
37777SOL    HW215171   8.686  13.163   5.129
37778SOL     OW15172  13.260   4.222   7.858
37778SOL    HW115173  13.329   4.233   7.924
37778SOL    HW215174  13.189   4.279   7.887
37779SOL     OW15175   3.515   7.617   8.825
37779SOL    HW115176   3.469   7.533   8.829
37779SOL    HW215177   3.598   7.601   8.872
37780SOL     OW15178   9.230  11.137   0.287
37780SOL    HW115179   9.279  11.194   0.346
37780SOL    HW215180   9.160  11.192   0.252
37781SOL     OW15181   1.079  11.022  11.943
37781SOL    HW115182   1.101  10.944  11.995
37781SOL    HW215183   0.984  11.018  11.933
37782SOL     OW15184   6.510  14.149   6.475
37782SOL    HW115185   6.531  14.218   6.413
37782SOL    HW215186   6.578  14.155   6.542
37783SOL     OW15187   4.610   7.358   4.637
37783SOL    HW115188   4.581   7.291   4.700
37783SOL    HW215189   4.656   7.308   4.569
37784SOL     OW15190   3.836   7.691   4.142
37784SOL    HW115191   3.890   7.660   4.215
37784SOL    HW215192   3.746   7.676   4.170
37785SOL     OW15193   0.990  14.584   6.223
37785SOL    HW115194   1.036  14.643   6.163
37785SOL    HW215195   0.918  14.549   6.171
37786SOL     OW15196  10.075  12.352   0.909
37786SOL    HW115197  10.026  12.420   0.863
37786SOL    HW215198  10.094  12.389   0.995
37787SOL     OW15199  11.626  12.648   3.009
37787SOL    HW115200  11.556  12.583   3.005
37787SOL    HW215201  11.669  12.632   3.093
37788SOL     OW15202   4.123  10.393   9.223
37788SOL    HW115203   4.210  10.361   9.198
37788SOL    HW215204   4.138  10.438   9.307
37789SOL     OW15205   2.493   7.997  12.811
37789SOL    HW115206   2.521   7.906  12.821
37789SOL    HW215207   2.403   7.999  12.846
37790SOL     OW15208  10.643  10.121   4.515
37790SOL    HW115209  10.719  10.164   4.555
37790SOL    HW215210  10.610  10.062   4.583
37791SOL     OW15211   2.836  13.849   9.114
37791SOL    HW115212   2.754  13.810   9.084
37791SOL    HW215213   2.824  13.859   9.208
37792SOL     OW15214   0.804  10.329   8.341
37792SOL    HW115215   0.850  10.302   8.261
37792SOL    HW215216   0.714  10.346   8.312
37793SOL     OW15217   5.586   1.286  12.416
37793SOL    HW115218   5.491   1.277  12.405
37793SOL    HW215219   5.597   1.309  12.509
37794SOL     OW15220  12.078  14.867   3.782
37794SOL    HW115221  12.093  14.833   3.870
37794SOL    HW215222  12.130  14.811   3.724
37795SOL     OW15223  14.058  12.311   4.004
37795SOL    HW115224  14.013  12.256   3.939
37795SOL    HW215225  14.091  12.250   4.069
37796SOL     OW15226   4.237  13.772   2.493
37796SOL    HW115227   4.238  13.677   2.497
37796SOL    HW215228   4.268  13.793   2.405
37797SOL     OW15229   9.844   1.359   0.969
37797SOL    HW115230   9.784   1.422   0.929
37797SOL    HW215231   9.910   1.413   1.011
37798SOL     OW15232  12.874   5.834   2.925
37798SOL    HW115233  12.944   5.897   2.913
37798SOL    HW215234  12.796   5.887   2.944
37799SOL     OW15235  14.562   1.865   9.106
37799SOL    HW115236  14.527   1.882   9.019
37799SOL    HW215237  14.486   1.843   9.160
37800SOL     OW15238  11.062   3.188   5.768
37800SOL    HW115239  11.138   3.161   5.820
37800SOL    HW215240  11.038   3.273   5.805
37801SOL     OW15241   8.281  10.033   8.448
37801SOL    HW115242   8.373  10.035   8.423
37801SOL    HW215243   8.275   9.958   8.508
37802SOL     OW15244  13.560   6.521   9.235
37802SOL    HW115245  13.574   6.591   9.172
37802SOL    HW215246  13.471   6.535   9.267
37803SOL     OW15247   4.758  13.705  10.400
37803SOL    HW115248   4.671  13.733  10.372
37803SOL    HW215249   4.743  13.644  10.471
37804SOL     OW15250   0.275   0.459  12.507
37804SOL    HW115251   0.307   0.377  12.471
37804SOL    HW215252   0.206   0.433  12.568
37805SOL     OW15253   0.968  10.195  14.320
37805SOL    HW115254   1.005  10.193  14.232
37805SOL    HW215255   1.026  10.253  14.369
37806SOL     OW15256   9.949   3.708   8.138
37806SOL    HW115257   9.867   3.683   8.094
37806SOL    HW215258   9.964   3.640   8.203
37807SOL     OW15259   1.797  14.005  12.562
37807SOL    HW115260   1.748  14.067  12.509
37807SOL    HW215261   1.846  13.953  12.498
37808SOL     OW15262  14.594   3.876   5.891
37808SOL    HW115263  14.569   3.783   5.885
37808SOL    HW215264  14.611   3.890   5.984
37809SOL     OW15265  12.132   2.676   8.524
37809SOL    HW115266  12.188   2.627   8.585
37809SOL    HW215267  12.189   2.697   8.451
37810SOL     OW15268   0.750   1.159   7.422
37810SOL    HW115269   0.754   1.130   7.331
37810SOL    HW215270   0.657   1.171   7.440
37811SOL     OW15271  14.027  11.352   9.108
37811SOL    HW115272  14.033  11.282   9.173
37811SOL    HW215273  14.008  11.431   9.158
37812SOL     OW15274  14.429   7.444   5.138
37812SOL    HW115275  14.498   7.424   5.075
37812SOL    HW215276  14.474   7.445   5.223
37813SOL     OW15277  10.584   7.367  10.877
37813SOL    HW115278  10.584   7.426  10.953
37813SOL    HW215279  10.644   7.409  10.815
37814SOL     OW15280   1.117   4.514  11.782
37814SOL    HW115281   1.142   4.602  11.755
37814SOL    HW215282   1.129   4.460  11.704
37815SOL     OW15283   7.559  13.161   0.244
37815SOL    HW115284   7.653  13.148   0.256
37815SOL    HW215285   7.536  13.231   0.304
37816SOL     OW15286  12.427   7.669   0.734
37816SOL    HW115287  12.394   7.713   0.812
37816SOL    HW215288  12.399   7.578   0.743
37817SOL     OW15289   6.858   8.140   0.368
37817SOL    HW115290   6.788   8.184   0.321
37817SOL    HW215291   6.927   8.206   0.377
37818SOL     OW15292   4.303   2.148   9.096
37818SOL    HW115293   4.371   2.090   9.063
37818SOL    HW215294   4.248   2.092   9.151
37819SOL     OW15295  12.943   2.075  14.576
37819SOL    HW115296  12.924   2.042  14.664
37819SOL    HW215297  13.038   2.083  14.573
37820SOL     OW15298   0.167  13.244  12.064
37820SOL    HW115299   0.207  13.190  12.132
37820SOL    HW215300   0.082  13.202  12.047
37821SOL     OW15301   2.556  11.159  10.235
37821SOL    HW115302   2.577  11.137  10.144
37821SOL    HW215303   2.598  11.090  10.287
37822SOL     OW15304   9.269  12.069   3.114
37822SOL    HW115305   9.249  12.015   3.191
37822SOL    HW215306   9.332  12.017   3.065
37823SOL     OW15307  13.286  13.368  11.532
37823SOL    HW115308  13.366  13.417  11.511
37823SOL    HW215309  13.307  13.319  11.611
37824SOL     OW15310  12.760  10.534  11.117
37824SOL    HW115311  12.794  10.537  11.028
37824SOL    HW215312  12.688  10.471  11.113
37825SOL     OW15313   7.270  13.110   4.261
37825SOL    HW115314   7.197  13.170   4.246
37825SOL    HW215315   7.238  13.050   4.329
37826SOL     OW15316   7.347  10.528   9.524
37826SOL    HW115317   7.294  10.599   9.487
37826SOL    HW215318   7.314  10.449   9.481
37827SOL     OW15319   9.271   3.809   4.111
37827SOL    HW115320   9.343   3.816   4.049
37827SOL    HW215321   9.294   3.870   4.181
37828SOL     OW15322  11.842   6.955   8.338
37828SOL    HW115323  11.758   6.999   8.326
37828SOL    HW215324  11.893   6.978   8.261
37829SOL     OW15325  10.651  13.217   3.075
37829SOL    HW115326  10.699  13.275   3.015
37829SOL    HW215327  10.712  13.144   3.090
37830SOL     OW15328   2.759  12.730  13.282
37830SOL    HW115329   2.807  12.709  13.202
37830SOL    HW215330   2.817  12.703  13.353
37831SOL     OW15331   5.498   6.147   4.261
37831SOL    HW115332   5.456   6.232   4.251
37831SOL    HW215333   5.431   6.083   4.234
37832SOL     OW15334   5.825   4.758   0.657
37832SOL    HW115335   5.869   4.673   0.655
37832SOL    HW215336   5.868   4.806   0.727
37833SOL     OW15337  13.938   2.404   1.751
37833SOL    HW115338  14.016   2.455   1.775
37833SOL    HW215339  13.875   2.469   1.721
37834SOL     OW15340   9.598   5.063  14.663
37834SOL    HW115341   9.557   5.023  14.740
37834SOL    HW215342   9.531   5.056  14.595
37835SOL     OW15343   7.780   2.603   1.901
37835SOL    HW115344   7.846   2.655   1.855
37835SOL    HW215345   7.829   2.534   1.944
37836SOL     OW15346   7.875   9.992   2.352
37836SOL    HW115347   7.909   9.906   2.375
37836SOL    HW215348   7.790   9.976   2.312
37837SOL     OW15349  13.446   3.325   3.981
37837SOL    HW115350  13.453   3.287   3.893
37837SOL    HW215351  13.370   3.384   3.976
37838SOL     OW15352  14.379  14.284   0.187
37838SOL    HW115353  14.304  14.256   0.136
37838SOL    HW215354  14.450  14.227   0.158
37839SOL     OW15355   9.733   5.616  11.437
37839SOL    HW115356   9.659   5.676  11.441
37839SOL    HW215357   9.717   5.554  11.508
37840SOL     OW15358   3.788   5.092  10.710
37840SOL    HW115359   3.841   5.138  10.645
37840SOL    HW215360   3.800   5.144  10.790
37841SOL     OW15361   7.877   5.742   1.538
37841SOL    HW115362   7.796   5.726   1.587
37841SOL    HW215363   7.935   5.671   1.566
37842SOL     OW15364   2.615   4.952  14.665
37842SOL    HW115365   2.559   5.021  14.631
37842SOL    HW215366   2.685   4.998  14.711
37843SOL     OW15367  12.244   3.435   1.422
37843SOL    HW115368  12.226   3.356   1.372
37843SOL    HW215369  12.317   3.476   1.376
37844SOL     OW15370   0.252   7.961  11.699
37844SOL    HW115371   0.329   7.983  11.752
37844SOL    HW215372   0.208   8.045  11.685
37845SOL     OW15373   0.905   9.612   4.891
37845SOL    HW115374   0.872   9.645   4.807
37845SOL    HW215375   0.966   9.679   4.921
37846SOL     OW15376   4.649   0.628   6.587
37846SOL    HW115377   4.575   0.666   6.540
37846SOL    HW215378   4.671   0.549   6.537
37847SOL     OW15379  12.649  12.803   4.507
37847SOL    HW115380  12.638  12.813   4.413
37847SOL    HW215381  12.672  12.891   4.539
37848SOL     OW15382   9.909   6.040   1.254
37848SOL    HW115383   9.953   6.039   1.169
37848SOL    HW215384   9.828   5.992   1.239
37849SOL     OW15385   1.395   6.329   0.007
37849SOL    HW115386   1.376   6.412   0.050
37849SOL    HW215387   1.478   6.344  14.835
37850SOL     OW15388   5.769  14.750   8.120
37850SOL    HW115389   5.831  14.820   8.100
37850SOL    HW215390   5.774  14.692   8.044
37851SOL     OW15391   5.264   6.285   2.982
37851SOL    HW115392   5.214   6.287   3.063
37851SOL    HW215393   5.199   6.294   2.913
37852SOL     OW15394   9.880   5.569   3.905
37852SOL    HW115395   9.872   5.508   3.979
37852SOL    HW215396   9.938   5.638   3.938
37853SOL     OW15397  12.647   4.251   0.620
37853SOL    HW115398  12.621   4.325   0.674
37853SOL    HW215399  12.627   4.174   0.674
37854SOL     OW15400  10.887   8.680   9.790
37854SOL    HW115401  10.970   8.636   9.808
37854SOL    HW215402  10.821   8.611   9.800
37855SOL     OW15403   8.597   6.957  12.070
37855SOL    HW115404   8.591   6.902  11.992
37855SOL    HW215405   8.642   6.903  12.135
37856SOL     OW15406  12.363  11.889   6.491
37856SOL    HW115407  12.317  11.805   6.491
37856SOL    HW215408  12.454  11.867   6.509
37857SOL     OW15409   7.466   2.645  10.381
37857SOL    HW115410   7.398   2.711  10.397
37857SOL    HW215411   7.477   2.644  10.286
37858SOL     OW15412  10.628   2.842   2.337
37858SOL    HW115413  10.718   2.855   2.307
37858SOL    HW215414  10.594   2.773   2.280
37859SOL     OW15415  12.361  14.107   2.722
37859SOL    HW115416  12.428  14.046   2.754
37859SOL    HW215417  12.323  14.064   2.646
37860SOL     OW15418   3.723   7.106  10.525
37860SOL    HW115419   3.727   7.037  10.459
37860SOL    HW215420   3.676   7.178  10.483
37861SOL     OW15421   0.689   9.553   0.148
37861SOL    HW115422   0.727   9.508   0.073
37861SOL    HW215423   0.719   9.503   0.224
37862SOL     OW15424  10.349   9.215  14.346
37862SOL    HW115425  10.428   9.269  14.347
37862SOL    HW215426  10.382   9.125  14.344
37863SOL     OW15427  13.242  14.579   2.728
37863SOL    HW115428  13.208  14.568   2.817
37863SOL    HW215429  13.167  14.562   2.671
37864SOL     OW15430  13.770   7.477  14.244
37864SOL    HW115431  13.794   7.394  14.286
37864SOL    HW215432  13.800   7.468  14.154
37865SOL     OW15433   9.391  11.806  10.501
37865SOL    HW115434   9.432  11.748  10.437
37865SOL    HW215435   9.452  11.880  10.509
37866SOL     OW15436   3.624   9.906   1.308
37866SOL    HW115437   3.672   9.824   1.299
37866SOL    HW215438   3.692   9.973   1.318
37867SOL     OW15439   7.898   8.872   6.457
37867SOL    HW115440   7.979   8.853   6.408
37867SOL    HW215441   7.927   8.893   6.545
37868SOL     OW15442   1.736  13.140   6.584
37868SOL    HW115443   1.779  13.057   6.564
37868SOL    HW215444   1.797  13.186   6.642
37869SOL     OW15445  11.639   6.788   6.934
37869SOL    HW115446  11.649   6.837   6.852
37869SOL    HW215447  11.549   6.756   6.931
37870SOL     OW15448   2.394  11.421   4.744
37870SOL    HW115449   2.393  11.339   4.696
37870SOL    HW215450   2.302  11.437   4.767
37871SOL     OW15451   4.493   6.170   3.576
37871SOL    HW115452   4.490   6.254   3.530
37871SOL    HW215453   4.505   6.193   3.668
37872SOL     OW15454   6.094  14.164   4.638
37872SOL    HW115455   6.187  14.175   4.661
37872SOL    HW215456   6.063  14.095   4.696
37873SOL     OW15457  14.354   7.643   4.868
37873SOL    HW115458  14.379   7.550   4.873
37873SOL    HW215459  14.377   7.678   4.954
37874SOL     OW15460   4.628   3.104   8.012
37874SOL    HW115461   4.639   3.173   8.077
37874SOL    HW215462   4.636   3.023   8.061
37875SOL     OW15463  13.726   4.997   2.608
37875SOL    HW115464  13.688   4.970   2.692
37875SOL    HW215465  13.732   5.092   2.615
37876SOL     OW15466   4.909   8.281  11.195
37876SOL    HW115467   4.956   8.328  11.263
37876SOL    HW215468   4.893   8.346  11.127
37877SOL     OW15469  13.157   2.813   9.798
37877SOL    HW115470  13.227   2.778   9.742
37877SOL    HW215471  13.083   2.825   9.739
37878SOL     OW15472   8.572   4.130  11.744
37878SOL    HW115473   8.511   4.103  11.675
37878SOL    HW215474   8.596   4.049  11.789
37879SOL     OW15475   1.254   4.411   8.001
37879SOL    HW115476   1.332   4.403   8.057
37879SOL    HW215477   1.193   4.464   8.052
37880SOL     OW15478   5.926  14.260   8.142
37880SOL    HW115479   5.975  14.313   8.079
37880SOL    HW215480   5.985  14.252   8.217
37881SOL     OW15481   0.419   6.556   6.619
37881SOL    HW115482   0.326   6.540   6.636
37881SOL    HW215483   0.465   6.485   6.663
37882SOL     OW15484   7.842   5.460   6.238
37882SOL    HW115485   7.812   5.550   6.228
37882SOL    HW215486   7.937   5.464   6.226
37883SOL     OW15487  13.343   3.874   6.496
37883SOL    HW115488  13.372   3.889   6.586
37883SOL    HW215489  13.286   3.797   6.502
37884SOL     OW15490  12.305   9.581   5.393
37884SOL    HW115491  12.308   9.490   5.422
37884SOL    HW215492  12.278   9.631   5.470
37885SOL     OW15493  10.229   6.725   9.649
37885SOL    HW115494  10.243   6.811   9.608
37885SOL    HW215495  10.196   6.746   9.737
37886SOL     OW15496   8.833   6.550   4.185
37886SOL    HW115497   8.746   6.573   4.217
37886SOL    HW215498   8.870   6.495   4.254
37887SOL     OW15499  13.324   5.395  11.847
37887SOL    HW115500  13.354   5.316  11.892
37887SOL    HW215501  13.229   5.384  11.839
37888SOL     OW15502   5.061  14.335   5.332
37888SOL    HW115503   5.078  14.419   5.374
37888SOL    HW215504   5.133  14.324   5.270
37889SOL     OW15505  10.276  12.677   5.264
37889SOL    HW115506  10.235  12.752   5.220
37889SOL    HW215507  10.331  12.637   5.197
37890SOL     OW15508   7.393   5.980   7.021
37890SOL    HW115509   7.327   6.030   6.975
37890SOL    HW215510   7.359   5.972   7.111
37891SOL     OW15511  11.864   0.818   1.497
37891SOL    HW115512  11.847   0.770   1.416
37891SOL    HW215513  11.820   0.769   1.565
37892SOL     OW15514   8.345   6.550  13.180
37892SOL    HW115515   8.421   6.509  13.222
37892SOL    HW215516   8.338   6.506  13.095
37893SOL     OW15517   0.434   6.844   6.537
37893SOL    HW115518   0.434   6.757   6.576
37893SOL    HW215519   0.497   6.839   6.465
37894SOL     OW15520   0.053   3.396  12.031
37894SOL    HW115521   0.063   3.483  11.992
37894SOL    HW215522   0.143   3.367  12.047
37895SOL     OW15523  10.376  14.825  12.283
37895SOL    HW115524  10.286  14.857  12.288
37895SOL    HW215525  10.381  14.780  12.199
37896SOL     OW15526   6.149   0.685   1.260
37896SOL    HW115527   6.139   0.777   1.234
37896SOL    HW215528   6.177   0.641   1.180
37897SOL     OW15529  13.868  14.742   1.783
37897SOL    HW115530  13.833  14.709   1.701
37897SOL    HW215531  13.927  14.674   1.814
37898SOL     OW15532   0.834   5.438   7.651
37898SOL    HW115533   0.813   5.524   7.686
37898SOL    HW215534   0.928   5.427   7.670
37899SOL     OW15535   2.377   7.175   1.202
37899SOL    HW115536   2.459   7.204   1.161
37899SOL    HW215537   2.333   7.256   1.227
37900SOL     OW15538  11.750  11.419   4.882
37900SOL    HW115539  11.820  11.412   4.947
37900SOL    HW215540  11.765  11.504   4.839
37901SOL     OW15541   7.377  13.370   8.139
37901SOL    HW115542   7.442  13.376   8.209
37901SOL    HW215543   7.404  13.295   8.087
37902SOL     OW15544   7.346  14.691  12.610
37902SOL    HW115545   7.318  14.603  12.585
37902SOL    HW215546   7.436  14.680  12.640
37903SOL     OW15547  12.528   6.258   5.626
37903SOL    HW115548  12.541   6.282   5.718
37903SOL    HW215549  12.551   6.338   5.578
37904SOL     OW15550  14.607   6.444   1.306
37904SOL    HW115551  14.596   6.361   1.259
37904SOL    HW215552  14.570   6.510   1.248
37905SOL     OW15553   6.004   5.494   6.972
37905SOL    HW115554   5.962   5.571   7.011
37905SOL    HW215555   5.956   5.419   7.009
37906SOL     OW15556   9.112   9.858  13.190
37906SOL    HW115557   9.158   9.897  13.264
37906SOL    HW215558   9.039   9.810  13.229
37907SOL     OW15559   4.096  14.070   0.739
37907SOL    HW115560   4.163  14.094   0.675
37907SOL    HW215561   4.032  14.141   0.734
37908SOL     OW15562  10.901  13.478   2.321
37908SOL    HW115563  10.941  13.537   2.258
37908SOL    HW215564  10.824  13.525   2.353
37909SOL     OW15565  14.222   7.290  14.566
37909SOL    HW115566  14.208   7.362  14.504
37909SOL    HW215567  14.317   7.279  14.568
37910SOL     OW15568   4.168   5.349   7.001
37910SOL    HW115569   4.155   5.261   7.035
37910SOL    HW215570   4.239   5.341   6.937
37911SOL     OW15571  13.270   9.913  13.553
37911SOL    HW115572  13.346   9.889  13.500
37911SOL    HW215573  13.297   9.896  13.643
37912SOL     OW15574   1.785   6.591  11.995
37912SOL    HW115575   1.876   6.608  12.022
37912SOL    HW215576   1.755   6.523  12.056
37913SOL     OW15577   6.902  14.351  14.550
37913SOL    HW115578   6.968  14.340  14.619
37913SOL    HW215579   6.829  14.295  14.577
37914SOL     OW15580   7.055   7.764  10.122
37914SOL    HW115581   7.038   7.851  10.087
37914SOL    HW215582   7.125   7.729  10.066
37915SOL     OW15583   3.375   4.913   4.871
37915SOL    HW115584   3.452   4.969   4.880
37915SOL    HW215585   3.396   4.836   4.923
37916SOL     OW15586   5.162   1.705  13.577
37916SOL    HW115587   5.076   1.721  13.617
37916SOL    HW215588   5.221   1.696  13.652
37917SOL     OW15589   4.446   4.674   4.268
37917SOL    HW115590   4.375   4.737   4.258
37917SOL    HW215591   4.407   4.601   4.316
37918SOL     OW15592   3.068   1.433  13.888
37918SOL    HW115593   3.152   1.477  13.875
37918SOL    HW215594   3.032   1.471  13.968
37919SOL     OW15595   1.676  11.039   1.373
37919SOL    HW115596   1.588  11.004   1.381
37919SOL    HW215597   1.733  10.962   1.377
37920SOL     OW15598  11.885  12.827   3.521
37920SOL    HW115599  11.836  12.752   3.554
37920SOL    HW215600  11.963  12.790   3.481
37921SOL     OW15601   2.438   3.972   6.606
37921SOL    HW115602   2.520   3.928   6.583
37921SOL    HW215603   2.443   3.986   6.700
37922SOL     OW15604   4.803   4.109   6.231
37922SOL    HW115605   4.710   4.093   6.243
37922SOL    HW215606   4.813   4.204   6.243
37923SOL     OW15607   9.868   9.983   9.580
37923SOL    HW115608   9.862  10.020   9.668
37923SOL    HW215609   9.830  10.050   9.523
37924SOL     OW15610   5.868  14.078   3.716
37924SOL    HW115611   5.893  14.051   3.804
37924SOL    HW215612   5.790  14.026   3.696
37925SOL     OW15613  14.539   9.768   9.322
37925SOL    HW115614  14.529   9.826   9.246
37925SOL    HW215615  14.633   9.761   9.334
37926SOL     OW15616   1.221   7.538   2.174
37926SOL    HW115617   1.307   7.549   2.133
37926SOL    HW215618   1.173   7.618   2.151
37927SOL     OW15619   3.091   5.017   9.047
37927SOL    HW115620   3.145   5.065   9.110
37927SOL    HW215621   3.078   4.931   9.088
37928SOL     OW15622   0.440   5.625  13.837
37928SOL    HW115623   0.422   5.714  13.867
37928SOL    HW215624   0.404   5.569  13.905
37929SOL     OW15625   6.244  12.580   5.483
37929SOL    HW115626   6.152  12.597   5.504
37929SOL    HW215627   6.248  12.583   5.388
37930SOL     OW15628   2.388   5.857   4.741
37930SOL    HW115629   2.321   5.793   4.717
37930SOL    HW215630   2.459   5.842   4.678
37931SOL     OW15631   1.332  13.285   4.736
37931SOL    HW115632   1.371  13.324   4.658
37931SOL    HW215633   1.348  13.191   4.726
37932SOL     OW15634  12.399   7.542  11.820
37932SOL    HW115635  12.476   7.576  11.866
37932SOL    HW215636  12.394   7.450  11.848
37933SOL     OW15637  11.809  14.217  13.649
37933SOL    HW115638  11.746  14.228  13.720
37933SOL    HW215639  11.887  14.182  13.691
37934SOL     OW15640  11.022  11.651  14.768
37934SOL    HW115641  11.081  11.604  14.710
37934SOL    HW215642  11.079  11.691  14.834
37935SOL     OW15643   9.343   6.248   3.234
37935SOL    HW115644   9.305   6.224   3.149
37935SOL    HW215645   9.419   6.191   3.243
37936SOL     OW15646  14.188  13.532   7.570
37936SOL    HW115647  14.158  13.622   7.553
37936SOL    HW215648  14.109  13.485   7.598
37937SOL     OW15649   3.073  10.954  14.672
37937SOL    HW115650   3.008  10.999  14.726
37937SOL    HW215651   3.021  10.904  14.609
37938SOL     OW15652   3.013   7.569  11.388
37938SOL    HW115653   3.004   7.619  11.469
37938SOL    HW215654   3.032   7.636  11.322
37939SOL     OW15655   0.730   3.952   8.537
37939SOL    HW115656   0.683   3.881   8.493
37939SOL    HW215657   0.815   3.913   8.560
37940SOL     OW15658   1.333  11.273  10.380
37940SOL    HW115659   1.304  11.183  10.398
37940SOL    HW215660   1.278  11.301  10.307
37941SOL     OW15661  14.013  11.398  12.646
37941SOL    HW115662  13.934  11.347  12.627
37941SOL    HW215663  14.071  11.381  12.572
37942SOL     OW15664   9.833  11.080  14.691
37942SOL    HW115665   9.760  11.136  14.665
37942SOL    HW215666   9.873  11.053  14.608
37943SOL     OW15667   4.371   7.900  10.612
37943SOL    HW115668   4.451   7.935  10.651
37943SOL    HW215669   4.321   7.866  10.686
37944SOL     OW15670   6.859   2.278  11.112
37944SOL    HW115671   6.933   2.260  11.054
37944SOL    HW215672   6.830   2.191  11.142
37945SOL     OW15673  11.965   7.516  12.590
37945SOL    HW115674  11.921   7.438  12.557
37945SOL    HW215675  11.970   7.574  12.514
37946SOL     OW15676  11.032  13.022   2.148
37946SOL    HW115677  11.071  12.962   2.211
37946SOL    HW215678  10.962  13.066   2.196
37947SOL     OW15679   6.523  14.162  13.682
37947SOL    HW115680   6.561  14.231  13.628
37947SOL    HW215681   6.515  14.086  13.624
37948SOL     OW15682   2.711   7.327  11.044
37948SOL    HW115683   2.709   7.325  10.948
37948SOL    HW215684   2.802   7.349  11.065
37949SOL     OW15685   6.673   4.298  11.054
37949SOL    HW115686   6.761   4.337  11.058
37949SOL    HW215687   6.689   4.205  11.041
37950SOL     OW15688   4.212  11.159  12.756
37950SOL    HW115689   4.259  11.152  12.839
37950SOL    HW215690   4.233  11.247  12.724
37951SOL     OW15691  14.121   9.986   9.409
37951SOL    HW115692  14.102   9.895   9.431
37951SOL    HW215693  14.057  10.037   9.459
37952SOL     OW15694  11.873   4.951   1.329
37952SOL    HW115695  11.808   4.882   1.341
37952SOL    HW215696  11.953   4.904   1.304
37953SOL     OW15697   7.613  11.424  13.890
37953SOL    HW115698   7.667  11.440  13.812
37953SOL    HW215699   7.540  11.485  13.880
37954SOL     OW15700   8.443   9.626   7.150
37954SOL    HW115701   8.371   9.602   7.091
37954SOL    HW215702   8.408   9.699   7.201
37955SOL     OW15703  14.776   7.029  12.380
37955SOL    HW115704  14.760   7.030  12.285
37955SOL    HW215705  14.696   7.064  12.418
37956SOL     OW15706   8.363   3.051   1.407
37956SOL    HW115707   8.286   2.996   1.420
37956SOL    HW215708   8.417   3.034   1.484
37957SOL     OW15709   9.233  10.690  14.046
37957SOL    HW115710   9.166  10.744  14.088
37957SOL    HW215711   9.233  10.719  13.955
37958SOL     OW15712  14.700   4.897   0.719
37958SOL    HW115713  14.606   4.911   0.717
37958SOL    HW215714  14.711   4.815   0.767
37959SOL     OW15715   6.140  13.227   8.959
37959SOL    HW115716   6.183  13.165   8.901
37959SOL    HW215717   6.155  13.193   9.047
37960SOL     OW15718  10.348  14.375   2.367
37960SOL    HW115719  10.405  14.390   2.291
37960SOL    HW215720  10.387  14.426   2.437
37961SOL     OW15721  12.875   4.927   5.637
37961SOL    HW115722  12.842   4.922   5.727
37961SOL    HW215723  12.826   4.860   5.590
37962SOL     OW15724  14.255   4.793  10.336
37962SOL    HW115725  14.185   4.857  10.322
37962SOL    HW215726  14.252   4.774  10.430
37963SOL     OW15727   6.206   9.141   8.989
37963SOL    HW115728   6.201   9.233   8.962
37963SOL    HW215729   6.300   9.122   8.995
37964SOL     OW15730   9.080  14.359  13.564
37964SOL    HW115731   8.997  14.333  13.524
37964SOL    HW215732   9.073  14.330  13.655
37965SOL     OW15733   8.348  13.193  10.231
37965SOL    HW115734   8.377  13.110  10.192
37965SOL    HW215735   8.379  13.189  10.321
37966SOL     OW15736   4.090   6.077  11.647
37966SOL    HW115737   4.059   6.010  11.586
37966SOL    HW215738   4.018   6.140  11.650
37967SOL     OW15739   8.948  10.010   4.536
37967SOL    HW115740   9.015  10.009   4.605
37967SOL    HW215741   8.868   9.981   4.579
37968SOL     OW15742  10.900  13.768  11.558
37968SOL    HW115743  10.874  13.856  11.529
37968SOL    HW215744  10.818  13.727  11.586
37969SOL     OW15745   4.043   3.446   5.012
37969SOL    HW115746   4.002   3.384   4.952
37969SOL    HW215747   4.097   3.392   5.070
37970SOL     OW15748  12.636  10.236  12.579
37970SOL    HW115749  12.545  10.223  12.554
37970SOL    HW215750  12.636  10.233  12.675
37971SOL     OW15751   6.071   6.223   8.121
37971SOL    HW115752   6.057   6.306   8.076
37971SOL    HW215753   6.152   6.189   8.085
37972SOL     OW15754  10.128   6.247   9.100
37972SOL    HW115755  10.197   6.186   9.077
37972SOL    HW215756  10.156   6.286   9.183
37973SOL     OW15757   3.213   9.763   7.501
37973SOL    HW115758   3.148   9.802   7.560
37973SOL    HW215759   3.187   9.672   7.493
37974SOL     OW15760   0.154   6.753   8.974
37974SOL    HW115761   0.088   6.689   9.001
37974SOL    HW215762   0.123   6.786   8.890
37975SOL     OW15763   8.413   7.916   5.338
37975SOL    HW115764   8.497   7.960   5.327
37975SOL    HW215765   8.392   7.884   5.250
37976SOL     OW15766   0.005   2.690   1.875
37976SOL    HW115767   0.053   2.613   1.846
37976SOL    HW215768   0.029   2.758   1.812
37977SOL     OW15769  13.639  13.213   3.098
37977SOL    HW115770  13.590  13.136   3.068
37977SOL    HW215771  13.723  13.177   3.126
37978SOL     OW15772   2.739   7.391   3.861
37978SOL    HW115773   2.820   7.352   3.895
37978SOL    HW215774   2.716   7.337   3.786
37979SOL     OW15775  10.335  11.912  10.137
37979SOL    HW115776  10.260  11.930  10.193
37979SOL    HW215777  10.300  11.859  10.065
37980SOL     OW15778   9.388   9.920  14.073
37980SOL    HW115779   9.315   9.902  14.132
37980SOL    HW215780   9.444   9.843  14.081
37981SOL     OW15781   0.802   1.977  12.085
37981SOL    HW115782   0.816   1.970  12.179
37981SOL    HW215783   0.756   1.897  12.061
37982SOL     OW15784   1.003   6.906   9.609
37982SOL    HW115785   1.000   6.814   9.585
37982SOL    HW215786   1.081   6.914   9.664
37983SOL     OW15787  12.030  13.040  12.185
37983SOL    HW115788  12.126  13.043  12.191
37983SOL    HW215789  12.007  12.954  12.220
37984SOL     OW15790   4.029  13.933   0.447
37984SOL    HW115791   3.961  13.963   0.508
37984SOL    HW215792   4.111  13.966   0.484
37985SOL     OW15793  10.773   2.014  13.481
37985SOL    HW115794  10.711   2.016  13.408
37985SOL    HW215795  10.727   2.061  13.552
37986SOL     OW15796   3.384  12.892   9.861
37986SOL    HW115797   3.460  12.939   9.894
37986SOL    HW215798   3.317  12.959   9.847
37987SOL     OW15799   5.318  11.933   3.117
37987SOL    HW115800   5.396  11.881   3.138
37987SOL    HW215801   5.266  11.931   3.198
37988SOL     OW15802   3.285   8.707  12.322
37988SOL    HW115803   3.260   8.727  12.413
37988SOL    HW215804   3.226   8.637  12.295
37989SOL     OW15805  10.665  12.492   6.936
37989SOL    HW115806  10.698  12.430   7.002
37989SOL    HW215807  10.605  12.548   6.984
37990SOL     OW15808  10.536  13.249   1.282
37990SOL    HW115809  10.486  13.302   1.345
37990SOL    HW215810  10.606  13.308   1.253
37991SOL     OW15811  10.965  10.219   1.687
37991SOL    HW115812  11.005  10.303   1.665
37991SOL    HW215813  11.014  10.189   1.764
37992SOL     OW15814   9.135   3.874   0.841
37992SOL    HW115815   9.100   3.956   0.807
37992SOL    HW215816   9.057   3.823   0.865
37993SOL     OW15817   5.941   4.993   8.598
37993SOL    HW115818   5.852   5.003   8.630
37993SOL    HW215819   5.948   5.057   8.527
37994SOL     OW15820   5.905   7.087   0.188
37994SOL    HW115821   5.828   7.041   0.154
37994SOL    HW215822   5.954   7.113   0.111
37995SOL     OW15823  12.109   6.674   3.727
37995SOL    HW115824  12.113   6.629   3.642
37995SOL    HW215825  12.127   6.765   3.706
37996SOL     OW15826   7.028   8.357   8.331
37996SOL    HW115827   7.037   8.409   8.251
37996SOL    HW215828   7.084   8.280   8.315
37997SOL     OW15829   4.139   2.284   8.695
37997SOL    HW115830   4.153   2.348   8.765
37997SOL    HW215831   4.062   2.317   8.647
37998SOL     OW15832   7.845   2.338   2.266
37998SOL    HW115833   7.846   2.403   2.337
37998SOL    HW215834   7.887   2.261   2.304
37999SOL     OW15835   6.279   4.689  12.791
37999SOL    HW115836   6.200   4.669  12.742
37999SOL    HW215837   6.263   4.776  12.828
38000SOL     OW15838  12.113   7.738   0.553
38000SOL    HW115839  12.198   7.742   0.509
38000SOL    HW215840  12.117   7.809   0.618
38001SOL     OW15841   3.081  13.074   4.979
38001SOL    HW115842   3.023  13.108   5.047
38001SOL    HW215843   3.166  13.116   4.997
38002SOL     OW15844   5.824   5.927   1.717
38002SOL    HW115845   5.812   5.913   1.811
38002SOL    HW215846   5.816   5.839   1.679
38003SOL     OW15847  11.187   7.003  12.529
38003SOL    HW115848  11.198   6.951  12.449
38003SOL    HW215849  11.202   6.940  12.600
38004SOL     OW15850  12.121   1.019   0.371
38004SOL    HW115851  12.182   0.946   0.380
38004SOL    HW215852  12.052   1.001   0.435
38005SOL     OW15853  14.524   9.727   4.384
38005SOL    HW115854  14.513   9.701   4.476
38005SOL    HW215855  14.469   9.665   4.336
38006SOL     OW15856   2.386   7.389   4.394
38006SOL    HW115857   2.468   7.375   4.440
38006SOL    HW215858   2.351   7.470   4.431
38007SOL     OW15859   2.596  14.201  12.989
38007SOL    HW115860   2.664  14.176  13.052
38007SOL    HW215861   2.521  14.222  13.044
38008SOL     OW15862   1.659  13.572   3.245
38008SOL    HW115863   1.662  13.550   3.152
38008SOL    HW215864   1.711  13.651   3.253
38009SOL     OW15865  10.027   7.937   6.395
38009SOL    HW115866  10.098   7.949   6.331
38009SOL    HW215867  10.024   8.020   6.442
38010SOL     OW15868  12.157   5.497  13.081
38010SOL    HW115869  12.194   5.512  13.168
38010SOL    HW215870  12.229   5.459  13.031
38011SOL     OW15871   0.957   8.854   0.442
38011SOL    HW115872   1.022   8.788   0.418
38011SOL    HW215873   1.004   8.914   0.500
38012SOL     OW15874  13.220   1.441   9.616
38012SOL    HW115875  13.229   1.482   9.703
38012SOL    HW215876  13.137   1.476   9.582
38013SOL     OW15877   8.310  13.017   1.863
38013SOL    HW115878   8.309  13.109   1.839
38013SOL    HW215879   8.290  13.016   1.957
38014SOL     OW15880  11.875  10.485   0.792
38014SOL    HW115881  11.881  10.526   0.878
38014SOL    HW215882  11.925  10.543   0.733
38015SOL     OW15883  13.529   6.533  12.414
38015SOL    HW115884  13.435   6.518  12.415
38015SOL    HW215885  13.551   6.549  12.506
38016SOL     OW15886  10.022  13.663   1.311
38016SOL    HW115887  10.114  13.658   1.285
38016SOL    HW215888  10.009  13.754   1.335
38017SOL     OW15889   9.418   9.122   8.742
38017SOL    HW115890   9.471   9.130   8.663
38017SOL    HW215891   9.329   9.106   8.710
38018SOL     OW15892  10.866   1.189   4.200
38018SOL    HW115893  10.941   1.132   4.179
38018SOL    HW215894  10.794   1.128   4.215
38019SOL     OW15895   4.863   0.162   4.161
38019SOL    HW115896   4.863   0.206   4.076
38019SOL    HW215897   4.799   0.091   4.151
38020SOL     OW15898  12.269   9.378   1.864
38020SOL    HW115899  12.316   9.340   1.938
38020SOL    HW215900  12.259   9.470   1.887
38021SOL     OW15901  11.992   0.884  12.076
38021SOL    HW115902  12.056   0.883  12.146
38021SOL    HW215903  11.974   0.977  12.061
38022SOL     OW15904   0.865   4.199   0.474
38022SOL    HW115905   0.950   4.162   0.498
38022SOL    HW215906   0.801   4.143   0.518
38023SOL     OW15907   3.406   3.168  13.726
38023SOL    HW115908   3.354   3.094  13.696
38023SOL    HW215909   3.473   3.130  13.784
38024SOL     OW15910   4.428   1.862   8.714
38024SOL    HW115911   4.391   1.774   8.706
38024SOL    HW215912   4.360   1.920   8.680
38025SOL     OW15913   8.701   7.841   2.325
38025SOL    HW115914   8.787   7.828   2.364
38025SOL    HW215915   8.673   7.927   2.357
38026SOL     OW15916   8.544   0.868  11.612
38026SOL    HW115917   8.505   0.953  11.633
38026SOL    HW215918   8.591   0.882  11.530
38027SOL     OW15919   6.041  11.875   4.489
38027SOL    HW115920   5.988  11.951   4.511
38027SOL    HW215921   5.988  11.828   4.424
38028SOL     OW15922   9.312   5.823  13.820
38028SOL    HW115923   9.320   5.913  13.849
38028SOL    HW215924   9.264   5.779  13.890
38029SOL     OW15925   2.633   5.104  12.364
38029SOL    HW115926   2.721   5.083  12.332
38029SOL    HW215927   2.574   5.062  12.302
38030SOL     OW15928  11.771  10.899   6.094
38030SOL    HW115929  11.738  10.951   6.168
38030SOL    HW215930  11.706  10.829   6.084
38031SOL     OW15931   3.831   4.184   4.334
38031SOL    HW115932   3.876   4.269   4.326
38031SOL    HW215933   3.792   4.169   4.248
38032SOL     OW15934   1.683  11.088   3.758
38032SOL    HW115935   1.656  11.046   3.840
38032SOL    HW215936   1.778  11.087   3.761
38033SOL     OW15937   0.090  13.910  10.788
38033SOL    HW115938   0.003  13.884  10.818
38033SOL    HW215939   0.088  14.006  10.791
38034SOL     OW15940   5.872   5.220   2.517
38034SOL    HW115941   5.840   5.219   2.427
38034SOL    HW215942   5.966   5.204   2.510
38035SOL     OW15943   0.334   3.882   7.134
38035SOL    HW115944   0.350   3.923   7.049
38035SOL    HW215945   0.304   3.954   7.190
38036SOL     OW15946  10.380   5.117   5.114
38036SOL    HW115947  10.380   5.042   5.055
38036SOL    HW215948  10.432   5.088   5.189
38037SOL     OW15949  11.702   6.459  10.426
38037SOL    HW115950  11.740   6.401  10.360
38037SOL    HW215951  11.618   6.420  10.448
38038SOL     OW15952   5.691   4.453  11.808
38038SOL    HW115953   5.678   4.421  11.897
38038SOL    HW215954   5.752   4.391  11.769
38039SOL     OW15955   2.744  13.807   5.019
38039SOL    HW115956   2.741  13.736   5.083
38039SOL    HW215957   2.788  13.769   4.943
38040SOL     OW15958  14.395   3.332   0.690
38040SOL    HW115959  14.345   3.268   0.639
38040SOL    HW215960  14.483   3.296   0.695
38041SOL     OW15961   1.868   6.092  11.631
38041SOL    HW115962   1.875   6.037  11.709
38041SOL    HW215963   1.886   6.032  11.558
38042SOL     OW15964   2.964   8.453   4.050
38042SOL    HW115965   3.033   8.497   4.100
38042SOL    HW215966   2.982   8.360   4.061
38043SOL     OW15967   0.320  14.770   6.324
38043SOL    HW115968   0.293  14.860   6.339
38043SOL    HW215969   0.382  14.751   6.395
38044SOL     OW15970  11.201  13.083   0.361
38044SOL    HW115971  11.251  13.159   0.333
38044SOL    HW215972  11.199  13.027   0.284
38045SOL     OW15973   7.734  11.148   4.079
38045SOL    HW115974   7.644  11.119   4.091
38045SOL    HW215975   7.782  11.114   4.154
38046SOL     OW15976   8.507   3.259   6.959
38046SOL    HW115977   8.588   3.218   6.991
38046SOL    HW215978   8.537   3.342   6.921
38047SOL     OW15979   2.793  14.765   3.792
38047SOL    HW115980   2.772  14.732   3.879
38047SOL    HW215981   2.772  14.692   3.734
38048SOL     OW15982  10.310  13.452  10.075
38048SOL    HW115983  10.329  13.419  10.163
38048SOL    HW215984  10.378  13.517  10.058
38049SOL     OW15985   7.881   0.448   9.873
38049SOL    HW115986   7.793   0.417   9.892
38049SOL    HW215987   7.885   0.454   9.777
38050SOL     OW15988  11.774  11.705   2.585
38050SOL    HW115989  11.851  11.653   2.607
38050SOL    HW215990  11.731  11.654   2.516
38051SOL     OW15991  13.830  14.389  14.774
38051SOL    HW115992  13.769  14.362  14.842
38051SOL    HW215993  13.876  14.309  14.749
38052SOL     OW15994   5.218   9.698  13.070
38052SOL    HW115995   5.273   9.737  13.002
38052SOL    HW215996   5.128   9.713  13.039
38053SOL     OW15997   6.790  14.497   6.036
38053SOL    HW115998   6.816  14.569   6.095
38053SOL    HW215999   6.704  14.523   6.003
38054SOL     OW16000   8.013   0.199   8.628
38054SOL    HW116001   8.010   0.280   8.578
38054SOL    HW216002   7.961   0.217   8.707
38055SOL     OW16003   3.758   5.131   5.401
38055SOL    HW116004   3.806   5.048   5.394
38055SOL    HW216005   3.666   5.105   5.408
38056SOL     OW16006   0.337   3.346   7.659
38056SOL    HW116007   0.402   3.276   7.653
38056SOL    HW216008   0.322   3.374   7.569
38057SOL     OW16009  12.046   1.777   7.941
38057SOL    HW116010  12.129   1.815   7.914
38057SOL    HW216011  11.987   1.793   7.867
38058SOL     OW16012   3.954  13.431   1.761
38058SOL    HW116013   3.933  13.524   1.765
38058SOL    HW216014   3.987  13.410   1.849
38059SOL     OW16015  12.120   3.650   5.480
38059SOL    HW116016  12.204   3.613   5.506
38059SOL    HW216017  12.141   3.710   5.408
38060SOL     OW16018  11.744  10.647   8.317
38060SOL    HW116019  11.809  10.707   8.353
38060SOL    HW216020  11.707  10.603   8.393
38061SOL     OW16021   4.376   8.161  14.693
38061SOL    HW116022   4.427   8.224  14.642
38061SOL    HW216023   4.407   8.173  14.783
38062SOL     OW16024  13.888  14.203   9.667
38062SOL    HW116025  13.977  14.233   9.686
38062SOL    HW216026  13.837  14.283   9.659
38063SOL     OW16027   8.634   8.885   7.353
38063SOL    HW116028   8.701   8.903   7.287
38063SOL    HW216029   8.643   8.956   7.417
38064SOL     OW16030   0.053   3.609  13.287
38064SOL    HW116031  14.862   3.664  13.333
38064SOL    HW216032   0.001   3.553  13.230
38065SOL     OW16033   9.192   3.791   7.996
38065SOL    HW116034   9.135   3.823   8.066
38065SOL    HW216035   9.166   3.699   7.984
38066SOL     OW16036   8.016   3.975   0.341
38066SOL    HW116037   8.093   4.023   0.371
38066SOL    HW216038   7.942   4.029   0.370
38067SOL     OW16039   6.762   6.886   4.231
38067SOL    HW116040   6.816   6.850   4.160
38067SOL    HW216041   6.686   6.828   4.235
38068SOL     OW16042  10.548   9.187   7.454
38068SOL    HW116043  10.624   9.138   7.424
38068SOL    HW216044  10.537   9.161   7.546
38069SOL     OW16045   4.513   9.561   6.033
38069SOL    HW116046   4.476   9.646   6.055
38069SOL    HW216047   4.491   9.505   6.108
38070SOL     OW16048  12.421   9.836  11.433
38070SOL    HW116049  12.496   9.788  11.469
38070SOL    HW216050  12.453   9.925  11.421
38071SOL     OW16051  14.427   4.903   8.731
38071SOL    HW116052  14.430   4.842   8.656
38071SOL    HW216053  14.468   4.855   8.802
38072SOL     OW16054   0.604   8.295   6.901
38072SOL    HW116055   0.617   8.275   6.993
38072SOL    HW216056   0.569   8.214   6.863
38073SOL     OW16057   9.697   6.863   7.852
38073SOL    HW116058   9.753   6.937   7.875
38073SOL    HW216059   9.756   6.799   7.812
38074SOL     OW16060  14.152   9.873  13.084
38074SOL    HW116061  14.143   9.892  13.178
38074SOL    HW216062  14.193   9.787  13.081
38075SOL     OW16063   1.975   2.550   1.380
38075SOL    HW116064   1.992   2.470   1.430
38075SOL    HW216065   2.042   2.612   1.410
38076SOL     OW16066  11.826   8.164  11.717
38076SOL    HW116067  11.878   8.108  11.659
38076SOL    HW216068  11.736   8.130  11.709
38077SOL     OW16069   7.545   4.053  12.078
38077SOL    HW116070   7.499   4.111  12.139
38077SOL    HW216071   7.567   3.976  12.130
38078SOL     OW16072   6.940   1.916  11.324
38078SOL    HW116073   7.017   1.934  11.270
38078SOL    HW216074   6.975   1.894  11.410
38079SOL     OW16075   0.495   3.106  10.890
38079SOL    HW116076   0.427   3.066  10.944
38079SOL    HW216077   0.494   3.199  10.915
38080SOL     OW16078   5.049   7.954  12.462
38080SOL    HW116079   5.002   7.910  12.392
38080SOL    HW216080   4.996   8.031  12.482
38081SOL     OW16081  13.914   0.088   3.036
38081SOL    HW116082  13.849   0.149   3.072
38081SOL    HW216083  13.913   0.107   2.942
38082SOL     OW16084   0.288  10.323  10.529
38082SOL    HW116085   0.290  10.359  10.618
38082SOL    HW216086   0.338  10.387  10.477
38083SOL     OW16087  12.664  14.812   9.884
38083SOL    HW116088  12.580  14.847   9.853
38083SOL    HW216089  12.691  14.752   9.815
38084SOL     OW16090   1.616  14.417  11.819
38084SOL    HW116091   1.582  14.491  11.869
38084SOL    HW216092   1.566  14.419  11.737
38085SOL     OW16093   7.313   0.570   1.515
38085SOL    HW116094   7.262   0.526   1.583
38085SOL    HW216095   7.263   0.648   1.492
38086SOL     OW16096  13.411   7.362   4.401
38086SOL    HW116097  13.375   7.284   4.443
38086SOL    HW216098  13.489   7.331   4.355
38087SOL     OW16099   3.604  11.866   6.778
38087SOL    HW116100   3.641  11.935   6.834
38087SOL    HW216101   3.661  11.866   6.701
38088SOL     OW16102   4.196   6.805   9.994
38088SOL    HW116103   4.118   6.754   9.975
38088SOL    HW216104   4.197   6.874   9.927
38089SOL     OW16105   8.887   8.693  11.664
38089SOL    HW116106   8.841   8.642  11.598
38089SOL    HW216107   8.819   8.740  11.712
38090SOL     OW16108   6.560  13.788   5.411
38090SOL    HW116109   6.533  13.877   5.433
38090SOL    HW216110   6.522  13.733   5.479
38091SOL     OW16111   2.006  12.733   0.902
38091SOL    HW116112   2.056  12.683   0.967
38091SOL    HW216113   2.066  12.800   0.871
38092SOL     OW16114   4.202   9.654   5.964
38092SOL    HW116115   4.164   9.715   5.900
38092SOL    HW216116   4.179   9.691   6.049
38093SOL     OW16117  11.167  14.139  13.862
38093SOL    HW116118  11.244  14.192  13.839
38093SOL    HW216119  11.102  14.202  13.892
38094SOL     OW16120   1.781   4.201   1.923
38094SOL    HW116121   1.863   4.155   1.907
38094SOL    HW216122   1.760   4.243   1.840
38095SOL     OW16123  10.709   6.079   5.572
38095SOL    HW116124  10.673   6.084   5.483
38095SOL    HW216125  10.802   6.057   5.559
38096SOL     OW16126   9.170  10.071   4.705
38096SOL    HW116127   9.236  10.126   4.663
38096SOL    HW216128   9.144  10.119   4.783
38097SOL     OW16129  11.714   4.733   1.334
38097SOL    HW116130  11.712   4.646   1.372
38097SOL    HW216131  11.630   4.772   1.357
38098SOL     OW16132  14.409  11.794   9.350
38098SOL    HW116133  14.377  11.830   9.433
38098SOL    HW216134  14.452  11.712   9.374
38099SOL     OW16135   5.875   3.169   7.689
38099SOL    HW116136   5.905   3.251   7.650
38099SOL    HW216137   5.811   3.135   7.626
38100SOL     OW16138   2.846   1.740  11.279
38100SOL    HW116139   2.870   1.736  11.372
38100SOL    HW216140   2.820   1.650  11.258
38101SOL     OW16141  10.186   6.692   7.650
38101SOL    HW116142  10.173   6.597   7.650
38101SOL    HW216143  10.228   6.710   7.735
38102SOL     OW16144   1.434   2.167   2.073
38102SOL    HW116145   1.411   2.075   2.058
38102SOL    HW216146   1.528   2.172   2.054
38103SOL     OW16147  13.431   2.010   8.141
38103SOL    HW116148  13.484   1.997   8.062
38103SOL    HW216149  13.401   1.922   8.164
38104SOL     OW16150   3.968   9.207  12.197
38104SOL    HW116151   3.892   9.203  12.255
38104SOL    HW216152   4.040   9.232  12.255
38105SOL     OW16153   5.852   0.500  10.401
38105SOL    HW116154   5.939   0.539  10.402
38105SOL    HW216155   5.830   0.492  10.308
38106SOL     OW16156   8.141  12.807   7.500
38106SOL    HW116157   8.139  12.761   7.416
38106SOL    HW216158   8.189  12.888   7.482
38107SOL     OW16159   7.198   6.829  10.491
38107SOL    HW116160   7.237   6.778  10.562
38107SOL    HW216161   7.111   6.852  10.524
38108SOL     OW16162   4.215  11.667  11.496
38108SOL    HW116163   4.296  11.655  11.447
38108SOL    HW216164   4.152  11.611  11.452
38109SOL     OW16165  10.130   4.050   4.081
38109SOL    HW116166  10.136   4.105   4.159
38109SOL    HW216167  10.133   3.960   4.116
38110SOL     OW16168  12.185   6.711   1.110
38110SOL    HW116169  12.135   6.721   1.029
38110SOL    HW216170  12.119   6.706   1.179
38111SOL     OW16171  14.459  10.457   5.714
38111SOL    HW116172  14.370  10.494   5.715
38111SOL    HW216173  14.449  10.372   5.670
38112SOL     OW16174  10.114  11.986   1.071
38112SOL    HW116175  10.099  11.946   1.157
38112SOL    HW216176  10.126  12.079   1.091
38113SOL     OW16177   9.906   5.831  13.146
38113SOL    HW116178   9.985   5.883  13.160
38113SOL    HW216179   9.938   5.742  13.133
38114SOL     OW16180   3.227   0.861   9.508
38114SOL    HW116181   3.176   0.781   9.499
38114SOL    HW216182   3.220   0.884   9.601
38115SOL     OW16183   1.917   7.466  10.565
38115SOL    HW116184   1.835   7.513  10.583
38115SOL    HW216185   1.924   7.466  10.470
38116SOL     OW16186   7.985   6.222  12.794
38116SOL    HW116187   7.915   6.200  12.733
38116SOL    HW216188   8.040   6.284  12.746
38117SOL     OW16189   3.183  14.506   9.957
38117SOL    HW116190   3.098  14.471   9.930
38117SOL    HW216191   3.211  14.448  10.028
38118SOL     OW16192   7.303  11.275  10.080
38118SOL    HW116193   7.218  11.233  10.066
38118SOL    HW216194   7.307  11.291  10.174
38119SOL     OW16195   6.502  11.004   5.340
38119SOL    HW116196   6.592  11.007   5.310
38119SOL    HW216197   6.502  11.054   5.422
38120SOL     OW16198   9.977   9.333  13.490
38120SOL    HW116199   9.976   9.386  13.569
38120SOL    HW216200  10.071   9.322  13.470
38121SOL     OW16201   6.902   5.523   8.334
38121SOL    HW116202   6.820   5.544   8.288
38121SOL    HW216203   6.880   5.536   8.427
38122SOL     OW16204   4.723  12.840   6.251
38122SOL    HW116205   4.677  12.889   6.318
38122SOL    HW216206   4.738  12.753   6.289
38123SOL     OW16207   9.738   0.225   0.540
38123SOL    HW116208   9.692   0.296   0.494
38123SOL    HW216209   9.689   0.213   0.621
38124SOL     OW16210   6.062   3.337   8.833
38124SOL    HW116211   6.145   3.358   8.877
38124SOL    HW216212   6.082   3.341   8.740
38125SOL     OW16213   6.309  14.195   0.148
38125SOL    HW116214   6.300  14.290   0.143
38125SOL    HW216215   6.225  14.161   0.116
38126SOL     OW16216   7.949   9.311   1.219
38126SOL    HW116217   7.868   9.333   1.173
38126SOL    HW216218   7.973   9.225   1.185
38127SOL     OW16219   3.963  10.013  10.140
38127SOL    HW116220   3.901  10.017  10.213
38127SOL    HW216221   3.911   9.985  10.065
38128SOL     OW16222   9.554   7.054   2.765
38128SOL    HW116223   9.627   7.090   2.716
38128SOL    HW216224   9.524   7.127   2.820
38129SOL     OW16225   8.104  14.122   7.278
38129SOL    HW116226   8.129  14.147   7.189
38129SOL    HW216227   8.187  14.104   7.322
38130SOL     OW16228  13.271   7.420  10.242
38130SOL    HW116229  13.252   7.499  10.293
38130SOL    HW216230  13.364   7.428  10.220
38131SOL     OW16231  14.822   1.936  14.270
38131SOL    HW116232  14.727   1.944  14.276
38131SOL    HW216233  14.844   1.961  14.181
38132SOL     OW16234   1.268  12.572   2.611
38132SOL    HW116235   1.193  12.612   2.656
38132SOL    HW216236   1.229  12.528   2.535
38133SOL     OW16237   4.207   7.943   1.610
38133SOL    HW116238   4.155   8.021   1.628
38133SOL    HW216239   4.185   7.882   1.681
38134SOL     OW16240  10.328   3.626  13.358
38134SOL    HW116241  10.259   3.566  13.383
38134SOL    HW216242  10.290   3.680  13.288
38135SOL     OW16243  13.632   5.202  12.063
38135SOL    HW116244  13.655   5.277  12.008
38135SOL    HW216245  13.556   5.163  12.020
38136SOL     OW16246   8.414  14.064  10.859
38136SOL    HW116247   8.350  14.123  10.818
38136SOL    HW216248   8.484  14.058  10.795
38137SOL     OW16249  12.660  13.750   3.648
38137SOL    HW116250  12.626  13.772   3.735
38137SOL    HW216251  12.583  13.732   3.596
38138SOL     OW16252  10.750   0.672   8.466
38138SOL    HW116253  10.731   0.727   8.389
38138SOL    HW216254  10.843   0.651   8.457
38139SOL     OW16255   8.091  12.671   6.209
38139SOL    HW116256   8.003  12.701   6.233
38139SOL    HW216257   8.122  12.623   6.286
38140SOL     OW16258   3.847  10.488   9.306
38140SOL    HW116259   3.786  10.438   9.361
38140SOL    HW216260   3.904  10.421   9.267
38141SOL     OW16261   3.925   5.882   1.351
38141SOL    HW116262   3.899   5.812   1.291
38141SOL    HW216263   3.845   5.903   1.399
38142SOL     OW16264  14.453   5.585   8.699
38142SOL    HW116265  14.404   5.635   8.764
38142SOL    HW216266  14.535   5.634   8.688
38143SOL     OW16267   9.238   2.265   1.069
38143SOL    HW116268   9.179   2.193   1.092
38143SOL    HW216269   9.218   2.334   1.133
38144SOL     OW16270   7.081   7.757   2.449
38144SOL    HW116271   7.006   7.711   2.412
38144SOL    HW216272   7.123   7.798   2.373
38145SOL     OW16273   7.311   9.514   0.487
38145SOL    HW116274   7.307   9.492   0.394
38145SOL    HW216275   7.350   9.601   0.489
38146SOL     OW16276   2.692  14.835   0.221
38146SOL    HW116277   2.715  14.745   0.243
38146SOL    HW216278   2.643  14.866   0.297
38147SOL     OW16279  11.445  11.960  12.396
38147SOL    HW116280  11.471  11.918  12.478
38147SOL    HW216281  11.505  12.034  12.387
38148SOL     OW16282   4.160   8.343   1.344
38148SOL    HW116283   4.160   8.260   1.392
38148SOL    HW216284   4.093   8.331   1.277
38149SOL     OW16285   3.633   9.634   1.248
38149SOL    HW116286   3.719   9.598   1.225
38149SOL    HW216287   3.570   9.579   1.202
38150SOL     OW16288  10.015  11.656   5.930
38150SOL    HW116289  10.052  11.613   6.007
38150SOL    HW216290   9.972  11.734   5.964
38151SOL     OW16291  11.146   6.031   9.743
38151SOL    HW116292  11.069   5.976   9.726
38151SOL    HW216293  11.115   6.095   9.807
38152SOL     OW16294   0.116   1.312  12.965
38152SOL    HW116295   0.110   1.265  12.882
38152SOL    HW216296   0.133   1.403  12.940
38153SOL     OW16297   3.472   8.822   3.089
38153SOL    HW116298   3.470   8.778   3.174
38153SOL    HW216299   3.402   8.887   3.095
38154SOL     OW16300  10.732   4.533  14.689
38154SOL    HW116301  10.734   4.455  14.745
38154SOL    HW216302  10.770   4.602  14.743
38155SOL     OW16303  12.807   6.776   4.660
38155SOL    HW116304  12.757   6.700   4.632
38155SOL    HW216305  12.857   6.746   4.736
38156SOL     OW16306   0.077   7.678   0.441
38156SOL    HW116307   0.087   7.594   0.398
38156SOL    HW216308   0.063   7.740   0.369
38157SOL     OW16309   4.559   0.482  14.268
38157SOL    HW116310   4.488   0.460  14.207
38157SOL    HW216311   4.542   0.427  14.345
38158SOL     OW16312  10.910   3.111   4.738
38158SOL    HW116313  10.954   3.128   4.822
38158SOL    HW216314  10.977   3.130   4.672
38159SOL     OW16315   4.217  13.859   6.058
38159SOL    HW116316   4.305  13.843   6.093
38159SOL    HW216317   4.160  13.858   6.135
38160SOL     OW16318   1.697  13.849   2.587
38160SOL    HW116319   1.658  13.762   2.598
38160SOL    HW216320   1.767  13.852   2.652
38161SOL     OW16321  12.155   3.716   0.237
38161SOL    HW116322  12.179   3.804   0.267
38161SOL    HW216323  12.122   3.729   0.148
38162SOL     OW16324   3.899   8.668  10.174
38162SOL    HW116325   3.925   8.737  10.236
38162SOL    HW216326   3.810   8.645  10.199
38163SOL     OW16327   5.527  12.428  12.581
38163SOL    HW116328   5.546  12.521  12.590
38163SOL    HW216329   5.600  12.384  12.625
38164SOL     OW16330  14.053   2.649  10.404
38164SOL    HW116331  14.126   2.624  10.348
38164SOL    HW216332  14.072   2.740  10.429
38165SOL     OW16333  13.538  13.615  10.863
38165SOL    HW116334  13.489  13.574  10.792
38165SOL    HW216335  13.491  13.696  10.881
38166SOL     OW16336   6.160  11.075   2.912
38166SOL    HW116337   6.086  11.056   2.854
38166SOL    HW216338   6.187  11.163   2.888
38167SOL     OW16339   1.502   5.780  11.002
38167SOL    HW116340   1.456   5.819  10.928
38167SOL    HW216341   1.490   5.686  10.991
38168SOL     OW16342   5.563   6.055   7.611
38168SOL    HW116343   5.613   6.015   7.682
38168SOL    HW216344   5.526   6.135   7.649
38169SOL     OW16345   1.604   1.848  10.483
38169SOL    HW116346   1.612   1.756  10.505
38169SOL    HW216347   1.528   1.879  10.532
38170SOL     OW16348   5.224   7.373   0.301
38170SOL    HW116349   5.151   7.434   0.287
38170SOL    HW216350   5.257   7.355   0.213
38171SOL     OW16351  13.218   7.898   9.019
38171SOL    HW116352  13.235   7.809   8.989
38171SOL    HW216353  13.192   7.888   9.111
38172SOL     OW16354   1.803   5.920  11.169
38172SOL    HW116355   1.879   5.897  11.116
38172SOL    HW216356   1.797   6.016  11.161
38173SOL     OW16357   8.383   0.951   6.386
38173SOL    HW116358   8.327   0.880   6.418
38173SOL    HW216359   8.418   0.919   6.303
38174SOL     OW16360  10.733   6.625   9.104
38174SOL    HW116361  10.727   6.636   9.010
38174SOL    HW216362  10.699   6.707   9.140
38175SOL     OW16363   1.460  13.350   8.713
38175SOL    HW116364   1.458  13.401   8.633
38175SOL    HW216365   1.536  13.292   8.703
38176SOL     OW16366  14.682   7.737   5.948
38176SOL    HW116367  14.630   7.761   6.025
38176SOL    HW216368  14.650   7.650   5.925
38177SOL     OW16369  12.472  10.781   9.415
38177SOL    HW116370  12.549  10.801   9.469
38177SOL    HW216371  12.412  10.736   9.475
38178SOL     OW16372  14.670   9.334  13.198
38178SOL    HW116373  14.658   9.412  13.143
38178SOL    HW216374  14.586   9.324  13.243
38179SOL     OW16375   8.795   7.809   3.846
38179SOL    HW116376   8.877   7.778   3.883
38179SOL    HW216377   8.754   7.860   3.916
38180SOL     OW16378   1.173   1.202  13.727
38180SOL    HW116379   1.085   1.240  13.731
38180SOL    HW216380   1.159   1.108  13.716
38181SOL     OW16381   4.828   3.781   3.448
38181SOL    HW116382   4.894   3.790   3.380
38181SOL    HW216383   4.863   3.712   3.506
38182SOL     OW16384   5.548   5.046   4.839
38182SOL    HW116385   5.531   5.112   4.906
38182SOL    HW216386   5.595   4.976   4.885
38183SOL     OW16387  11.540   5.726  11.662
38183SOL    HW116388  11.584   5.795  11.711
38183SOL    HW216389  11.557   5.646  11.712
38184SOL     OW16390  14.626   2.921   2.248
38184SOL    HW116391  14.667   2.901   2.332
38184SOL    HW216392  14.667   2.859   2.187
38185SOL     OW16393  13.927  10.554   2.642
38185SOL    HW116394  13.908  10.461   2.652
38185SOL    HW216395  13.874  10.581   2.567
38186SOL     OW16396  10.435   3.848  12.073
38186SOL    HW116397  10.428   3.864  11.979
38186SOL    HW216398  10.344   3.848  12.104
38187SOL     OW16399  13.948   5.343  11.596
38187SOL    HW116400  13.946   5.254  11.560
38187SOL    HW216401  13.857   5.360  11.622
38188SOL     OW16402   0.496   4.610   3.399
38188SOL    HW116403   0.477   4.554   3.325
38188SOL    HW216404   0.591   4.606   3.408
38189SOL     OW16405   5.824   3.313  10.544
38189SOL    HW116406   5.747   3.258  10.554
38189SOL    HW216407   5.871   3.276  10.469
38190SOL     OW16408  10.894  13.783   1.671
38190SOL    HW116409  10.986  13.789   1.644
38190SOL    HW216410  10.895  13.720   1.743
38191SOL     OW16411   2.681   5.566   3.550
38191SOL    HW116412   2.611   5.621   3.584
38191SOL    HW216413   2.740   5.626   3.505
38192SOL     OW16414   6.746   9.465   6.532
38192SOL    HW116415   6.705   9.551   6.535
38192SOL    HW216416   6.673   9.404   6.533
38193SOL     OW16417   7.306   5.945   0.761
38193SOL    HW116418   7.285   5.987   0.678
38193SOL    HW216419   7.279   6.009   0.828
38194SOL     OW16420  10.324  11.531   4.871
38194SOL    HW116421  10.257  11.462   4.870
38194SOL    HW216422  10.278  11.608   4.904
38195SOL     OW16423  11.718   0.664   2.517
38195SOL    HW116424  11.677   0.735   2.565
38195SOL    HW216425  11.750   0.605   2.585
38196SOL     OW16426   2.521   9.693  12.318
38196SOL    HW116427   2.566   9.777  12.331
38196SOL    HW216428   2.568   9.653  12.244
38197SOL     OW16429  10.600   6.599  12.336
38197SOL    HW116430  10.541   6.625  12.406
38197SOL    HW216431  10.599   6.503  12.337
38198SOL     OW16432   2.140   9.721   7.396
38198SOL    HW116433   2.197   9.771   7.338
38198SOL    HW216434   2.052   9.757   7.382
38199SOL     OW16435   7.154   7.691   5.965
38199SOL    HW116436   7.130   7.720   5.877
38199SOL    HW216437   7.071   7.662   6.004
38200SOL     OW16438   7.310   0.155   6.694
38200SOL    HW116439   7.364   0.083   6.662
38200SOL    HW216440   7.343   0.232   6.646
38201SOL     OW16441   7.568   7.180  12.459
38201SOL    HW116442   7.482   7.200  12.421
38201SOL    HW216443   7.610   7.124  12.394
38202SOL     OW16444  13.302   5.410   3.039
38202SOL    HW116445  13.296   5.370   3.126
38202SOL    HW216446  13.254   5.492   3.046
38203SOL     OW16447  10.587   5.984  12.992
38203SOL    HW116448  10.643   6.048  12.948
38203SOL    HW216449  10.642   5.906  12.998
38204SOL     OW16450   6.700  10.713   2.791
38204SOL    HW116451   6.668  10.715   2.702
38204SOL    HW216452   6.662  10.791   2.833
38205SOL     OW16453  14.521   8.303   4.827
38205SOL    HW116454  14.439   8.346   4.802
38205SOL    HW216455  14.590   8.364   4.801
38206SOL     OW16456   4.841  10.247  12.101
38206SOL    HW116457   4.840  10.331  12.055
38206SOL    HW216458   4.921  10.204  12.072
38207SOL     OW16459   8.355  12.460   2.655
38207SOL    HW116460   8.382  12.424   2.571
38207SOL    HW216461   8.393  12.401   2.720
38208SOL     OW16462   7.154  11.060   3.329
38208SOL    HW116463   7.085  11.126   3.332
38208SOL    HW216464   7.195  11.072   3.243
38209SOL     OW16465   5.982  12.381  10.246
38209SOL    HW116466   5.969  12.454  10.307
38209SOL    HW216467   5.932  12.406  10.168
38210SOL     OW16468   7.372  11.074   7.788
38210SOL    HW116469   7.460  11.038   7.800
38210SOL    HW216470   7.315  11.014   7.838
38211SOL     OW16471   2.077  14.697  10.250
38211SOL    HW116472   2.020  14.637  10.298
38211SOL    HW216473   2.123  14.642  10.187
38212SOL     OW16474   3.473   7.832  10.257
38212SOL    HW116475   3.404   7.876  10.307
38212SOL    HW216476   3.431   7.753  10.222
38213SOL     OW16477  10.087  13.485   7.022
38213SOL    HW116478  10.172  13.501   6.981
38213SOL    HW216479  10.040  13.568   7.011
38214SOL     OW16480   1.045   3.592   6.535
38214SOL    HW116481   1.127   3.565   6.494
38214SOL    HW216482   1.068   3.669   6.587
38215SOL     OW16483  11.039  14.800  12.167
38215SOL    HW116484  10.991  14.725  12.201
38215SOL    HW216485  11.025  14.869  12.232
38216SOL     OW16486   7.586  13.995   7.341
38216SOL    HW116487   7.589  14.089   7.324
38216SOL    HW216488   7.542  13.958   7.265
38217SOL     OW16489   0.493  14.393  12.745
38217SOL    HW116490   0.401  14.369  12.743
38217SOL    HW216491   0.495  14.486  12.720
38218SOL     OW16492   1.573   5.828   6.567
38218SOL    HW116493   1.598   5.736   6.561
38218SOL    HW216494   1.555   5.842   6.659
38219SOL     OW16495   7.160   5.783  14.422
38219SOL    HW116496   7.227   5.754  14.484
38219SOL    HW216497   7.145   5.875  14.444
38220SOL     OW16498  13.396   3.081  11.219
38220SOL    HW116499  13.475   3.085  11.165
38220SOL    HW216500  13.429   3.075  11.308
38221SOL     OW16501   0.317   2.186   5.242
38221SOL    HW116502   0.409   2.185   5.216
38221SOL    HW216503   0.307   2.264   5.295
38222SOL     OW16504   7.470   5.787   6.845
38222SOL    HW116505   7.444   5.836   6.923
38222SOL    HW216506   7.388   5.769   6.799
38223SOL     OW16507  11.526   8.231   4.725
38223SOL    HW116508  11.618   8.228   4.752
38223SOL    HW216509  11.494   8.143   4.740
38224SOL     OW16510   9.471   8.851   0.661
38224SOL    HW116511   9.444   8.761   0.642
38224SOL    HW216512   9.399   8.888   0.712
38225SOL     OW16513   1.480   3.994   7.952
38225SOL    HW116514   1.452   3.925   8.013
38225SOL    HW216515   1.400   4.043   7.933
38226SOL     OW16516   1.910   0.440  12.809
38226SOL    HW116517   1.890   0.364  12.863
38226SOL    HW216518   1.979   0.409  12.750
38227SOL     OW16519   8.021   0.176   3.445
38227SOL    HW116520   8.038   0.082   3.437
38227SOL    HW216521   8.056   0.199   3.531
38228SOL     OW16522   3.075   6.241   8.637
38228SOL    HW116523   3.047   6.332   8.645
38228SOL    HW216524   3.164   6.240   8.673
38229SOL     OW16525   1.389  10.215   9.921
38229SOL    HW116526   1.375  10.130   9.964
38229SOL    HW216527   1.302  10.249   9.904
38230SOL     OW16528  14.169  10.260   8.610
38230SOL    HW116529  14.133  10.340   8.571
38230SOL    HW216530  14.096  10.197   8.607
38231SOL     OW16531   5.428   6.715   7.783
38231SOL    HW116532   5.361   6.783   7.780
38231SOL    HW216533   5.393   6.650   7.844
38232SOL     OW16534   5.301   1.934   0.209
38232SOL    HW116535   5.358   2.005   0.239
38232SOL    HW216536   5.216   1.955   0.246
38233SOL     OW16537   7.410   1.577  12.801
38233SOL    HW116538   7.391   1.671  12.802
38233SOL    HW216539   7.485   1.567  12.860
38234SOL     OW16540  14.242   5.151   8.099
38234SOL    HW116541  14.201   5.082   8.046
38234SOL    HW216542  14.273   5.106   8.177
38235SOL     OW16543   3.993  13.175   9.370
38235SOL    HW116544   4.057  13.226   9.420
38235SOL    HW216545   3.951  13.118   9.434
38236SOL     OW16546  13.693   4.779   8.419
38236SOL    HW116547  13.604   4.812   8.406
38236SOL    HW216548  13.712   4.796   8.511
38237SOL     OW16549  12.452   3.929   1.532
38237SOL    HW116550  12.434   4.023   1.539
38237SOL    HW216551  12.368   3.887   1.547
38238SOL     OW16552  13.938  12.036   5.819
38238SOL    HW116553  13.844  12.024   5.831
38238SOL    HW216554  13.970  12.063   5.905
38239SOL     OW16555  12.784  14.109   8.779
38239SOL    HW116556  12.764  14.200   8.801
38239SOL    HW216557  12.878  14.101   8.794
38240SOL     OW16558  14.024   6.523   0.954
38240SOL    HW116559  14.019   6.583   1.029
38240SOL    HW216560  14.023   6.436   0.992
38241SOL     OW16561  11.379   7.793   6.537
38241SOL    HW116562  11.463   7.755   6.564
38241SOL    HW216563  11.345   7.834   6.616
38242SOL     OW16564  11.996  14.193   6.939
38242SOL    HW116565  11.990  14.150   7.024
38242SOL    HW216566  12.046  14.273   6.955
38243SOL     OW16567   0.030  13.100   5.832
38243SOL    HW116568  14.822  13.137   5.867
38243SOL    HW216569   0.003  13.023   5.784
38244SOL     OW16570   2.043   9.393   8.076
38244SOL    HW116571   2.083   9.313   8.110
38244SOL    HW216572   2.112   9.434   8.024
38245SOL     OW16573   3.925  11.363   7.006
38245SOL    HW116574   3.947  11.441   6.954
38245SOL    HW216575   3.951  11.386   7.095
38246SOL     OW16576  12.639  10.872   6.975
38246SOL    HW116577  12.601  10.818   7.045
38246SOL    HW216578  12.687  10.810   6.921
38247SOL     OW16579   8.631   8.595   0.666
38247SOL    HW116580   8.584   8.674   0.638
38247SOL    HW216581   8.695   8.627   0.729
38248SOL     OW16582   1.374   9.960   3.408
38248SOL    HW116583   1.384   9.881   3.354
38248SOL    HW216584   1.306   9.937   3.471
38249SOL     OW16585   6.848   7.527  13.944
38249SOL    HW116586   6.829   7.503  13.853
38249SOL    HW216587   6.803   7.610  13.958
38250SOL     OW16588   6.960   8.502   9.313
38250SOL    HW116589   6.865   8.513   9.320
38250SOL    HW216590   6.988   8.478   9.402
38251SOL     OW16591   5.280   9.904  11.951
38251SOL    HW116592   5.267   9.809  11.942
38251SOL    HW216593   5.285   9.919  12.045
38252SOL     OW16594   2.590  10.775   1.971
38252SOL    HW116595   2.538  10.855   1.972
38252SOL    HW216596   2.588  10.744   2.062
38253SOL     OW16597   5.109   6.341   2.521
38253SOL    HW116598   5.184   6.379   2.475
38253SOL    HW216599   5.036   6.355   2.461
38254SOL     OW16600  11.356   1.281   7.723
38254SOL    HW116601  11.429   1.319   7.772
38254SOL    HW216602  11.346   1.338   7.647
38255SOL     OW16603   6.014   0.178   0.230
38255SOL    HW116604   5.920   0.184   0.249
38255SOL    HW216605   6.021   0.196   0.137
38256SOL     OW16606   9.454   0.351  12.766
38256SOL    HW116607   9.470   0.392  12.850
38256SOL    HW216608   9.419   0.421  12.711
38257SOL     OW16609  10.151  13.795   2.581
38257SOL    HW116610  10.163  13.845   2.500
38257SOL    HW216611  10.074  13.834   2.622
38258SOL     OW16612   6.918  13.687   3.804
38258SOL    HW116613   6.987  13.628   3.835
38258SOL    HW216614   6.934  13.769   3.849
38259SOL     OW16615  12.878   5.877   1.054
38259SOL    HW116616  12.914   5.897   0.968
38259SOL    HW216617  12.954   5.877   1.113
38260SOL     OW16618   2.733  11.207  10.601
38260SOL    HW116619   2.773  11.244  10.679
38260SOL    HW216620   2.754  11.271  10.532
38261SOL     OW16621  11.031   6.316   7.407
38261SOL    HW116622  10.948   6.291   7.449
38261SOL    HW216623  11.048   6.404   7.440
38262SOL     OW16624   7.140  12.237   2.301
38262SOL    HW116625   7.211  12.176   2.279
38262SOL    HW216626   7.064  12.203   2.254
38263SOL     OW16627  10.177   1.731  14.340
38263SOL    HW116628  10.128   1.716  14.421
38263SOL    HW216629  10.196   1.825  14.341
38264SOL     OW16630  11.224   9.883   2.833
38264SOL    HW116631  11.174   9.841   2.763
38264SOL    HW216632  11.221   9.976   2.812
38265SOL     OW16633   0.981  13.345   8.777
38265SOL    HW116634   1.036  13.347   8.855
38265SOL    HW216635   0.892  13.341   8.811
38266SOL     OW16636  13.403   1.999   3.683
38266SOL    HW116637  13.338   2.005   3.613
38266SOL    HW216638  13.488   2.005   3.639
38267SOL     OW16639  14.149   2.481   8.932
38267SOL    HW116640  14.179   2.536   9.005
38267SOL    HW216641  14.121   2.399   8.973
38268SOL     OW16642   3.489   7.238  11.887
38268SOL    HW116643   3.575   7.267  11.920
38268SOL    HW216644   3.503   7.149  11.858
38269SOL     OW16645   1.079  12.981   7.937
38269SOL    HW116646   1.128  13.061   7.916
38269SOL    HW216647   0.988  13.009   7.939
38270SOL     OW16648   9.297  12.007  13.077
38270SOL    HW116649   9.271  12.084  13.126
38270SOL    HW216650   9.216  11.973  13.040
38271SOL     OW16651   8.664   2.076   0.226
38271SOL    HW116652   8.749   2.038   0.250
38271SOL    HW216653   8.681   2.169   0.216
38272SOL     OW16654   6.540   1.602   8.767
38272SOL    HW116655   6.551   1.552   8.848
38272SOL    HW216656   6.457   1.571   8.731
38273SOL     OW16657   3.186   7.581  11.840
38273SOL    HW116658   3.189   7.573  11.935
38273SOL    HW216659   3.272   7.550  11.811
38274SOL     OW16660   0.453   8.965   3.492
38274SOL    HW116661   0.458   8.919   3.409
38274SOL    HW216662   0.542   8.995   3.509
38275SOL     OW16663   2.759  14.341  11.367
38275SOL    HW116664   2.772  14.428  11.328
38275SOL    HW216665   2.790  14.351  11.457
38276SOL     OW16666   5.682  11.034   1.275
38276SOL    HW116667   5.673  11.018   1.181
38276SOL    HW216668   5.738  11.112   1.281
38277SOL     OW16669  12.411   7.126   9.375
38277SOL    HW116670  12.358   7.093   9.448
38277SOL    HW216671  12.348   7.153   9.309
38278SOL     OW16672   3.342  13.230   3.371
38278SOL    HW116673   3.332  13.299   3.306
38278SOL    HW216674   3.422  13.252   3.419
38279SOL     OW16675  11.801  11.210   2.405
38279SOL    HW116676  11.890  11.246   2.411
38279SOL    HW216677  11.812  11.116   2.421
38280SOL     OW16678   5.107   2.585   2.561
38280SOL    HW116679   5.116   2.679   2.577
38280SOL    HW216680   5.137   2.544   2.642
38281SOL     OW16681   6.355   4.945  14.167
38281SOL    HW116682   6.334   5.038  14.158
38281SOL    HW216683   6.372   4.916  14.078
38282SOL     OW16684  12.247   4.199   0.563
38282SOL    HW116685  12.179   4.239   0.617
38282SOL    HW216686  12.291   4.273   0.521
38283SOL     OW16687   4.533   3.444  11.816
38283SOL    HW116688   4.455   3.400  11.850
38283SOL    HW216689   4.603   3.379  11.825
38284SOL     OW16690  14.691  14.702  11.984
38284SOL    HW116691  14.681  14.629  11.923
38284SOL    HW216692  14.653  14.777  11.938
38285SOL     OW16693  11.985   2.887   7.732
38285SOL    HW116694  11.925   2.888   7.658
38285SOL    HW216695  11.928   2.878   7.809
38286SOL     OW16696   2.581   2.228  11.007
38286SOL    HW116697   2.561   2.215  11.100
38286SOL    HW216698   2.499   2.260  10.969
38287SOL     OW16699  13.970  10.732   1.875
38287SOL    HW116700  14.034  10.689   1.931
38287SOL    HW216701  13.939  10.807   1.926
38288SOL     OW16702   9.249   6.155   1.425
38288SOL    HW116703   9.321   6.212   1.452
38288SOL    HW216704   9.186   6.160   1.497
38289SOL     OW16705   2.257   3.420  12.052
38289SOL    HW116706   2.305   3.464  11.981
38289SOL    HW216707   2.246   3.330  12.021
38290SOL     OW16708  10.827   0.370   0.407
38290SOL    HW116709  10.745   0.419   0.405
38290SOL    HW216710  10.886   0.423   0.461
38291SOL     OW16711   8.008  10.758   9.420
38291SOL    HW116712   7.960  10.735   9.499
38291SOL    HW216713   8.003  10.854   9.416
38292SOL     OW16714  13.841   9.576  14.356
38292SOL    HW116715  13.822   9.665  14.385
38292SOL    HW216716  13.765   9.525  14.382
38293SOL     OW16717  11.766   1.986  10.942
38293SOL    HW116718  11.800   2.019  10.859
38293SOL    HW216719  11.698   2.048  10.967
38294SOL     OW16720   9.816  14.197   7.025
38294SOL    HW116721   9.881  14.128   7.016
38294SOL    HW216722   9.754  14.180   6.954
38295SOL     OW16723  10.610   3.443   2.506
38295SOL    HW116724  10.597   3.532   2.476
38295SOL    HW216725  10.689   3.413   2.460
38296SOL     OW16726   0.842  10.794   2.863
38296SOL    HW116727   0.886  10.719   2.905
38296SOL    HW216728   0.891  10.809   2.783
38297SOL     OW16729   5.678  14.191  10.028
38297SOL    HW116730   5.701  14.279   9.999
38297SOL    HW216731   5.587  14.199  10.057
38298SOL     OW16732   7.044   5.414  14.402
38298SOL    HW116733   6.996   5.408  14.484
38298SOL    HW216734   7.015   5.496  14.363
38299SOL     OW16735   1.698   3.433   6.733
38299SOL    HW116736   1.781   3.450   6.689
38299SOL    HW216737   1.720   3.432   6.826
38300SOL     OW16738  13.035   8.230   9.582
38300SOL    HW116739  12.955   8.186   9.609
38300SOL    HW216740  13.059   8.284   9.658
38301SOL     OW16741   3.413   4.151   2.710
38301SOL    HW116742   3.394   4.190   2.625
38301SOL    HW216743   3.353   4.195   2.771
38302SOL     OW16744  14.462   5.291   6.895
38302SOL    HW116745  14.423   5.278   6.981
38302SOL    HW216746  14.393   5.269   6.833
38303SOL     OW16747   3.753   9.541  12.290
38303SOL    HW116748   3.670   9.583  12.315
38303SOL    HW216749   3.798   9.527  12.372
38304SOL     OW16750   4.841   2.427   4.175
38304SOL    HW116751   4.749   2.450   4.185
38304SOL    HW216752   4.844   2.369   4.099
38305SOL     OW16753   0.402  13.089   6.270
38305SOL    HW116754   0.356  13.097   6.187
38305SOL    HW216755   0.379  13.002   6.302
38306SOL     OW16756   4.824  11.530  13.299
38306SOL    HW116757   4.848  11.599  13.362
38306SOL    HW216758   4.800  11.455  13.354
38307SOL     OW16759  11.139   1.935   5.052
38307SOL    HW116760  11.075   1.972   4.991
38307SOL    HW216761  11.211   1.998   5.053
38308SOL     OW16762   8.235   9.604   3.422
38308SOL    HW116763   8.310   9.558   3.383
38308SOL    HW216764   8.167   9.600   3.354
38309SOL     OW16765  10.521   9.001  10.561
38309SOL    HW116766  10.462   8.926  10.556
38309SOL    HW216767  10.471   9.069  10.605
38310SOL     OW16768   3.058   9.757   1.804
38310SOL    HW116769   3.120   9.710   1.748
38310SOL    HW216770   3.055   9.845   1.768
38311SOL     OW16771   6.790   5.998   9.194
38311SOL    HW116772   6.791   5.940   9.271
38311SOL    HW216773   6.698   6.015   9.178
38312SOL     OW16774   2.179  14.409  13.918
38312SOL    HW116775   2.269  14.400  13.887
38312SOL    HW216776   2.146  14.488  13.876
38313SOL     OW16777   2.477   3.352   2.292
38313SOL    HW116778   2.520   3.435   2.275
38313SOL    HW216779   2.491   3.300   2.213
38314SOL     OW16780   2.727   8.343   6.651
38314SOL    HW116781   2.668   8.391   6.709
38314SOL    HW216782   2.668   8.294   6.593
38315SOL     OW16783   7.659   3.762  11.507
38315SOL    HW116784   7.618   3.678  11.525
38315SOL    HW216785   7.739   3.740  11.460
38316SOL     OW16786  12.046   7.492   1.933
38316SOL    HW116787  11.950   7.500   1.929
38316SOL    HW216788  12.073   7.555   1.999
38317SOL     OW16789   0.027   4.290   7.313
38317SOL    HW116790  14.872   4.363   7.369
38317SOL    HW216791  14.852   4.302   7.231
38318SOL     OW16792   6.095  10.602  12.770
38318SOL    HW116793   6.130  10.678  12.723
38318SOL    HW216794   6.035  10.640  12.834
38319SOL     OW16795   3.668   5.922  12.804
38319SOL    HW116796   3.684   5.948  12.713
38319SOL    HW216797   3.660   5.827  12.800
38320SOL     OW16798  13.624   1.446  12.551
38320SOL    HW116799  13.619   1.521  12.610
38320SOL    HW216800  13.717   1.441  12.527
38321SOL     OW16801   7.803   5.930   0.415
38321SOL    HW116802   7.778   6.023   0.414
38321SOL    HW216803   7.720   5.883   0.408
38322SOL     OW16804   0.821   7.477  13.544
38322SOL    HW116805   0.805   7.524  13.462
38322SOL    HW216806   0.780   7.530  13.611
38323SOL     OW16807   4.494  11.425  12.254
38323SOL    HW116808   4.533  11.343  12.286
38323SOL    HW216809   4.535  11.439  12.168
38324SOL     OW16810   2.605  10.323   5.937
38324SOL    HW116811   2.622  10.416   5.927
38324SOL    HW216812   2.595  10.311   6.031
38325SOL     OW16813  12.020   8.684   6.842
38325SOL    HW116814  11.980   8.692   6.929
38325SOL    HW216815  11.946   8.671   6.783
38326SOL     OW16816   2.379  13.171   3.826
38326SOL    HW116817   2.342  13.160   3.913
38326SOL    HW216818   2.433  13.249   3.831
38327SOL     OW16819   1.168   1.305   1.204
38327SOL    HW116820   1.180   1.210   1.210
38327SOL    HW216821   1.121   1.318   1.122
38328SOL     OW16822  12.629  12.983   3.243
38328SOL    HW116823  12.557  12.920   3.247
38328SOL    HW216824  12.595  13.056   3.192
38329SOL     OW16825   9.591   6.365   8.541
38329SOL    HW116826   9.678   6.392   8.510
38329SOL    HW216827   9.549   6.329   8.463
38330SOL     OW16828  10.502  11.330   2.065
38330SOL    HW116829  10.497  11.379   1.983
38330SOL    HW216830  10.595  11.306   2.073
38331SOL     OW16831   2.391   8.063   9.837
38331SOL    HW116832   2.457   8.012   9.791
38331SOL    HW216833   2.308   8.018   9.819
38332SOL     OW16834  10.554  12.776  14.286
38332SOL    HW116835  10.541  12.817  14.201
38332SOL    HW216836  10.501  12.828  14.346
38333SOL     OW16837   6.250   5.237   9.616
38333SOL    HW116838   6.165   5.275   9.597
38333SOL    HW216839   6.292   5.226   9.531
38334SOL     OW16840   4.747  10.899  10.725
38334SOL    HW116841   4.656  10.869  10.723
38334SOL    HW216842   4.742  10.991  10.751
38335SOL     OW16843  11.609  10.095   5.941
38335SOL    HW116844  11.548  10.125   5.873
38335SOL    HW216845  11.572  10.130   6.022
38336SOL     OW16846  11.214   0.408   2.462
38336SOL    HW116847  11.204   0.324   2.507
38336SOL    HW216848  11.239   0.385   2.373
38337SOL     OW16849   3.611   2.480   1.984
38337SOL    HW116850   3.636   2.547   2.047
38337SOL    HW216851   3.520   2.460   2.004
38338SOL     OW16852   7.818   7.172   0.981
38338SOL    HW116853   7.898   7.194   0.933
38338SOL    HW216854   7.747   7.204   0.925
38339SOL     OW16855   4.641   8.970   7.655
38339SOL    HW116856   4.602   9.025   7.722
38339SOL    HW216857   4.578   8.973   7.583
38340SOL     OW16858  11.001   5.047   0.445
38340SOL    HW116859  11.021   4.981   0.379
38340SOL    HW216860  10.956   4.998   0.515
38341SOL     OW16861   3.912   3.224   4.875
38341SOL    HW116862   3.849   3.153   4.889
38341SOL    HW216863   3.997   3.179   4.869
38342SOL     OW16864   0.002   8.367   8.925
38342SOL    HW116865  14.844   8.334   8.841
38342SOL    HW216866  14.799   8.363   8.982
38343SOL     OW16867   7.301   4.924   4.380
38343SOL    HW116868   7.349   4.912   4.461
38343SOL    HW216869   7.260   5.010   4.389
38344SOL     OW16870   0.657   9.079   7.075
38344SOL    HW116871   0.683   9.125   6.995
38344SOL    HW216872   0.635   9.149   7.137
38345SOL     OW16873   8.019   7.960   8.678
38345SOL    HW116874   7.939   8.003   8.707
38345SOL    HW216875   8.086   7.991   8.740
38346SOL     OW16876   3.863   0.014   3.003
38346SOL    HW116877   3.914   0.026   3.084
38346SOL    HW216878   3.929   0.010   2.934
38347SOL     OW16879  11.038   8.155   2.305
38347SOL    HW116880  10.956   8.205   2.306
38347SOL    HW216881  11.031   8.101   2.227
38348SOL     OW16882   6.261   1.391   2.807
38348SOL    HW116883   6.183   1.446   2.805
38348SOL    HW216884   6.331   1.447   2.776
38349SOL     OW16885  13.925  14.161  14.655
38349SOL    HW116886  13.918  14.144  14.561
38349SOL    HW216887  13.996  14.104  14.684
38350SOL     OW16888  13.897   7.869   0.515
38350SOL    HW116889  13.963   7.915   0.464
38350SOL    HW216890  13.923   7.883   0.606
38351SOL     OW16891   9.721  12.989  14.138
38351SOL    HW116892   9.690  13.069  14.181
38351SOL    HW216893   9.747  12.932  14.211
38352SOL     OW16894  14.271   9.422   4.931
38352SOL    HW116895  14.360   9.419   4.897
38352SOL    HW216896  14.246   9.514   4.926
38353SOL     OW16897  13.353  10.903  10.814
38353SOL    HW116898  13.327  10.966  10.880
38353SOL    HW216899  13.346  10.949  10.730
38354SOL     OW16900   1.585   7.747   3.540
38354SOL    HW116901   1.652   7.808   3.569
38354SOL    HW216902   1.608   7.727   3.449
38355SOL     OW16903   0.722   2.140   8.553
38355SOL    HW116904   0.651   2.174   8.499
38355SOL    HW216905   0.800   2.147   8.498
38356SOL     OW16906  12.190   9.593   2.834
38356SOL    HW116907  12.285   9.588   2.825
38356SOL    HW216908  12.172   9.554   2.919
38357SOL     OW16909   2.632   1.519   6.568
38357SOL    HW116910   2.712   1.467   6.577
38357SOL    HW216911   2.575   1.465   6.514
38358SOL     OW16912   3.704   1.714  11.897
38358SOL    HW116913   3.769   1.705  11.828
38358SOL    HW216914   3.744   1.773  11.961
38359SOL     OW16915   6.807   0.220   1.153
38359SOL    HW116916   6.898   0.242   1.172
38359SOL    HW216917   6.781   0.282   1.085
38360SOL     OW16918   3.184   7.694   2.904
38360SOL    HW116919   3.125   7.632   2.862
38360SOL    HW216920   3.266   7.647   2.913
38361SOL     OW16921   2.597  13.852   9.696
38361SOL    HW116922   2.676  13.815   9.655
38361SOL    HW216923   2.623  13.941   9.721
38362SOL     OW16924   1.468   7.319   5.979
38362SOL    HW116925   1.444   7.377   5.907
38362SOL    HW216926   1.418   7.239   5.963
38363SOL     OW16927   3.994   7.589   7.278
38363SOL    HW116928   3.982   7.642   7.199
38363SOL    HW216929   4.019   7.502   7.246
38364SOL     OW16930   4.553   9.575   2.501
38364SOL    HW116931   4.612   9.503   2.481
38364SOL    HW216932   4.470   9.551   2.459
38365SOL     OW16933  12.865   4.904   9.398
38365SOL    HW116934  12.909   4.873   9.319
38365SOL    HW216935  12.818   4.983   9.370
38366SOL     OW16936  12.416   0.241   2.135
38366SOL    HW116937  12.488   0.302   2.146
38366SOL    HW216938  12.442   0.185   2.062
38367SOL     OW16939   8.669  11.825   8.250
38367SOL    HW116940   8.737  11.790   8.192
38367SOL    HW216941   8.671  11.768   8.326
38368SOL     OW16942   9.237  13.783   6.709
38368SOL    HW116943   9.223  13.798   6.616
38368SOL    HW216944   9.232  13.870   6.748
38369SOL     OW16945  11.705  10.359   3.140
38369SOL    HW116946  11.790  10.367   3.184
38369SOL    HW216947  11.642  10.348   3.211
38370SOL     OW16948   7.050  11.432  13.548
38370SOL    HW116949   7.072  11.364  13.612
38370SOL    HW216950   7.024  11.507  13.601
38371SOL     OW16951  13.895   1.721   5.327
38371SOL    HW116952  13.869   1.811   5.309
38371SOL    HW216953  13.968   1.729   5.389
38372SOL     OW16954   1.692   6.085   6.885
38372SOL    HW116955   1.646   6.159   6.845
38372SOL    HW216956   1.769   6.073   6.829
38373SOL     OW16957   0.244   7.919  14.663
38373SOL    HW116958   0.330   7.887  14.635
38373SOL    HW216959   0.196   7.933  14.581
38374SOL     OW16960  13.116  10.427  10.360
38374SOL    HW116961  13.172  10.502  10.379
38374SOL    HW216962  13.122  10.373  10.439
38375SOL     OW16963   5.417   6.974  11.461
38375SOL    HW116964   5.511   6.960  11.453
38375SOL    HW216965   5.404   7.065  11.431
38376SOL     OW16966  14.796   4.015   9.411
38376SOL    HW116967  14.842   3.990   9.491
38376SOL    HW216968  14.710   4.045   9.440
38377SOL     OW16969  13.456   4.776  13.482
38377SOL    HW116970  13.521   4.721  13.438
38377SOL    HW216971  13.476   4.768  13.575
38378SOL     OW16972   7.984   6.179  11.496
38378SOL    HW116973   7.986   6.143  11.584
38378SOL    HW216974   7.906   6.140  11.456
38379SOL     OW16975  13.635   4.625  13.286
38379SOL    HW116976  13.589   4.573  13.220
38379SOL    HW216977  13.648   4.710  13.245
38380SOL     OW16978   4.612   0.996   9.561
38380SOL    HW116979   4.596   0.970   9.651
38380SOL    HW216980   4.594   0.917   9.510
38381SOL     OW16981  12.940   6.368   5.370
38381SOL    HW116982  12.924   6.461   5.356
38381SOL    HW216983  12.903   6.325   5.292
38382SOL     OW16984   1.529  10.977   1.846
38382SOL    HW116985   1.591  10.923   1.895
38382SOL    HW216986   1.444  10.959   1.887
38383SOL     OW16987   9.221   3.181   0.489
38383SOL    HW116988   9.240   3.271   0.516
38383SOL    HW216989   9.126   3.173   0.498
38384SOL     OW16990   0.805  12.542   9.124
38384SOL    HW116991   0.739  12.586   9.177
38384SOL    HW216992   0.827  12.463   9.173
38385SOL     OW16993  13.919   4.456   9.605
38385SOL    HW116994  13.923   4.416   9.692
38385SOL    HW216995  13.825   4.470   9.590
38386SOL     OW16996   0.333   3.301   1.094
38386SOL    HW116997   0.296   3.216   1.069
38386SOL    HW216998   0.268   3.365   1.066
38387SOL     OW16999   8.650   5.020  13.130
38387SOL    HW117000   8.726   4.993  13.078
38387SOL    HW217001   8.680   5.014  13.221
38388SOL     OW17002  14.418   0.439   7.711
38388SOL    HW117003  14.463   0.372   7.762
38388SOL    HW217004  14.375   0.392   7.640
38389SOL     OW17005  11.706   4.703   4.527
38389SOL    HW117006  11.701   4.761   4.603
38389SOL    HW217007  11.629   4.647   4.534
38390SOL     OW17008  12.066   0.186  14.197
38390SOL    HW117009  12.003   0.152  14.133
38390SOL    HW217010  12.112   0.256  14.150
38391SOL     OW17011  11.011   1.069   1.530
38391SOL    HW117012  10.956   1.047   1.455
38391SOL    HW217013  10.965   1.141   1.573
38392SOL     OW17014  11.837   7.814   1.974
38392SOL    HW117015  11.840   7.886   2.037
38392SOL    HW217016  11.795   7.852   1.896
38393SOL     OW17017   1.461   3.846   3.677
38393SOL    HW117018   1.552   3.823   3.657
38393SOL    HW217019   1.440   3.795   3.755
38394SOL     OW17020   3.110   7.398  13.256
38394SOL    HW117021   3.056   7.336  13.305
38394SOL    HW217022   3.172   7.343  13.208
38395SOL     OW17023  14.611  11.164   7.821
38395SOL    HW117024  14.531  11.162   7.768
38395SOL    HW217025  14.638  11.072   7.826
38396SOL     OW17026   6.688   9.156  11.031
38396SOL    HW117027   6.708   9.092  10.962
38396SOL    HW217028   6.668   9.102  11.108
38397SOL     OW17029   7.026   8.646   9.100
38397SOL    HW117030   7.055   8.716   9.158
38397SOL    HW217031   6.988   8.580   9.158
38398SOL     OW17032   7.761  12.485  10.427
38398SOL    HW117033   7.781  12.465  10.336
38398SOL    HW217034   7.701  12.559  10.423
38399SOL     OW17035   9.115   2.948  10.695
38399SOL    HW117036   9.153   3.033  10.718
38399SOL    HW217037   9.033   2.970  10.652
38400SOL     OW17038   3.172  10.294  14.692
38400SOL    HW117039   3.111  10.294  14.617
38400SOL    HW217040   3.259  10.295  14.652
38401SOL     OW17041   1.030  10.764  12.144
38401SOL    HW117042   0.984  10.833  12.192
38401SOL    HW217043   1.115  10.756  12.189
38402SOL     OW17044   6.554   6.110   3.227
38402SOL    HW117045   6.512   6.044   3.171
38402SOL    HW217046   6.562   6.187   3.170
38403SOL     OW17047   8.590   0.492  11.252
38403SOL    HW117048   8.496   0.473  11.255
38403SOL    HW217049   8.615   0.474  11.161
38404SOL     OW17050   5.239   5.364   3.984
38404SOL    HW117051   5.239   5.341   4.077
38404SOL    HW217052   5.269   5.454   3.982
38405SOL     OW17053   0.652  13.651   3.726
38405SOL    HW117054   0.671  13.669   3.818
38405SOL    HW217055   0.560  13.677   3.715
38406SOL     OW17056   7.687  11.717  11.921
38406SOL    HW117057   7.697  11.811  11.938
38406SOL    HW217058   7.770  11.679  11.949
38407SOL     OW17059   1.959   3.175  12.919
38407SOL    HW117060   1.893   3.230  12.876
38407SOL    HW217061   2.019   3.150  12.849
38408SOL     OW17062   6.683   5.006  14.675
38408SOL    HW117063   6.620   4.952  14.626
38408SOL    HW217064   6.628   5.068  14.724
38409SOL     OW17065   9.915   9.124  10.902
38409SOL    HW117066   9.928   9.195  10.839
38409SOL    HW217067   9.915   9.045  10.848
38410SOL     OW17068   3.670   9.556   7.239
38410SOL    HW117069   3.702   9.602   7.316
38410SOL    HW217070   3.578   9.535   7.260
38411SOL     OW17071   2.675   7.853  13.785
38411SOL    HW117072   2.675   7.927  13.845
38411SOL    HW217073   2.643   7.889  13.702
38412SOL     OW17074   4.088  12.546   2.826
38412SOL    HW117075   4.005  12.583   2.855
38412SOL    HW217076   4.103  12.585   2.740
38413SOL     OW17077  12.599   9.576   5.377
38413SOL    HW117078  12.631   9.490   5.354
38413SOL    HW217079  12.504   9.565   5.387
38414SOL     OW17080   8.056  13.133  13.979
38414SOL    HW117081   8.070  13.169  13.892
38414SOL    HW217082   8.144  13.112  14.011
38415SOL     OW17083   4.644   6.735  14.599
38415SOL    HW117084   4.559   6.747  14.642
38415SOL    HW217085   4.679   6.655  14.638
38416SOL     OW17086  13.113   8.964   7.533
38416SOL    HW117087  13.178   8.908   7.575
38416SOL    HW217088  13.125   8.948   7.439
38417SOL     OW17089   3.674   9.057   9.339
38417SOL    HW117090   3.695   9.134   9.392
38417SOL    HW217091   3.649   9.093   9.254
38418SOL     OW17092   5.278   7.249  11.812
38418SOL    HW117093   5.367   7.218  11.829
38418SOL    HW217094   5.240   7.183  11.754
38419SOL     OW17095   5.021  10.535   8.655
38419SOL    HW117096   5.014  10.592   8.731
38419SOL    HW217097   5.103  10.487   8.669
38420SOL     OW17098   6.853   8.077  12.130
38420SOL    HW117099   6.767   8.054  12.164
38420SOL    HW217100   6.915   8.040  12.193
38421SOL     OW17101   5.705  10.039   2.176
38421SOL    HW117102   5.694  10.129   2.147
38421SOL    HW217103   5.650  10.031   2.254
38422SOL     OW17104   9.200   7.154   5.607
38422SOL    HW117105   9.176   7.186   5.694
38422SOL    HW217106   9.147   7.205   5.547
38423SOL     OW17107  11.453   1.127  10.578
38423SOL    HW117108  11.547   1.133  10.590
38423SOL    HW217109  11.417   1.194  10.636
38424SOL     OW17110  13.809   1.545   6.863
38424SOL    HW117111  13.820   1.452   6.843
38424SOL    HW217112  13.718   1.564   6.842
38425SOL     OW17113   7.650   1.625  10.099
38425SOL    HW117114   7.641   1.685  10.025
38425SOL    HW217115   7.730   1.653  10.143
38426SOL     OW17116   0.673   3.393   5.555
38426SOL    HW117117   0.650   3.354   5.470
38426SOL    HW217118   0.649   3.485   5.546
38427SOL     OW17119   0.065  14.126  11.983
38427SOL    HW117120   0.078  14.221  11.981
38427SOL    HW217121   0.000  14.112  12.052
38428SOL     OW17122   3.874  11.293   4.772
38428SOL    HW117123   3.917  11.271   4.690
38428SOL    HW217124   3.852  11.386   4.763
38429SOL     OW17125   0.741   4.097   0.900
38429SOL    HW117126   0.809   4.164   0.901
38429SOL    HW217127   0.788   4.016   0.882
38430SOL     OW17128  10.592   6.860  14.471
38430SOL    HW117129  10.631   6.941  14.439
38430SOL    HW217130  10.663   6.795  14.466
38431SOL     OW17131   4.555  13.660  10.744
38431SOL    HW117132   4.467  13.627  10.759
38431SOL    HW217133   4.607  13.582  10.724
38432SOL     OW17134  11.835   3.088   1.381
38432SOL    HW117135  11.886   3.147   1.326
38432SOL    HW217136  11.871   3.100   1.469
38433SOL     OW17137   9.719   5.562   3.477
38433SOL    HW117138   9.645   5.501   3.476
38433SOL    HW217139   9.700   5.624   3.407
38434SOL     OW17140   3.863   8.566   3.655
38434SOL    HW117141   3.948   8.531   3.680
38434SOL    HW217142   3.806   8.490   3.647
38435SOL     OW17143   4.602   1.764  11.463
38435SOL    HW117144   4.623   1.703  11.392
38435SOL    HW217145   4.649   1.845  11.440
38436SOL     OW17146   3.401  10.993   9.829
38436SOL    HW117147   3.372  10.967   9.916
38436SOL    HW217148   3.394  11.089   9.829
38437SOL     OW17149   7.984   9.676  12.784
38437SOL    HW117150   7.902   9.662  12.737
38437SOL    HW217151   7.980   9.614  12.857
38438SOL     OW17152   9.643   8.915  12.019
38438SOL    HW117153   9.726   8.871  12.000
38438SOL    HW217154   9.647   8.934  12.112
38439SOL     OW17155   5.672   3.407   4.957
38439SOL    HW117156   5.651   3.316   4.980
38439SOL    HW217157   5.729   3.399   4.880
38440SOL     OW17158   8.942  12.210   4.735
38440SOL    HW117159   9.032  12.212   4.768
38440SOL    HW217160   8.889  12.238   4.810
38441SOL     OW17161  10.992   1.018   5.025
38441SOL    HW117162  10.916   1.064   5.061
38441SOL    HW217163  10.954   0.949   4.969
38442SOL     OW17164  10.152   0.492   4.182
38442SOL    HW117165  10.058   0.496   4.199
38442SOL    HW217166  10.188   0.443   4.256
38443SOL     OW17167   0.934  13.023   4.464
38443SOL    HW117168   0.850  13.068   4.454
38443SOL    HW217169   0.998  13.093   4.473
38444SOL     OW17170   1.379   0.197   5.679
38444SOL    HW117171   1.439   0.131   5.716
38444SOL    HW217172   1.325   0.224   5.753
38445SOL     OW17173   1.349  11.820  10.172
38445SOL    HW117174   1.307  11.871  10.103
38445SOL    HW217175   1.288  11.824  10.246
38446SOL     OW17176   3.242  11.818   9.143
38446SOL    HW117177   3.243  11.850   9.234
38446SOL    HW217178   3.327  11.776   9.132
38447SOL     OW17179   7.135  11.123  12.668
38447SOL    HW117180   7.055  11.148  12.715
38447SOL    HW217181   7.107  11.111  12.578
38448SOL     OW17182   9.076  10.100   8.957
38448SOL    HW117183   9.049  10.077   9.045
38448SOL    HW217184   9.144  10.037   8.935
38449SOL     OW17185   2.494  14.690  13.931
38449SOL    HW117186   2.459  14.621  13.987
38449SOL    HW217187   2.421  14.751  13.919
38450SOL     OW17188  12.631   1.006   5.219
38450SOL    HW117189  12.701   0.942   5.208
38450SOL    HW217190  12.631   1.025   5.313
38451SOL     OW17191   0.280   9.754   0.219
38451SOL    HW117192   0.232   9.835   0.237
38451SOL    HW217193   0.221   9.684   0.247
38452SOL     OW17194  13.722   2.688  12.941
38452SOL    HW117195  13.695   2.605  12.980
38452SOL    HW217196  13.706   2.677  12.847
38453SOL     OW17197   3.303   6.319  14.343
38453SOL    HW117198   3.259   6.351  14.421
38453SOL    HW217199   3.395   6.342  14.356
38454SOL     OW17200   0.773   9.131   4.433
38454SOL    HW117201   0.838   9.193   4.399
38454SOL    HW217202   0.819   9.085   4.504
38455SOL     OW17203  14.540  12.561  10.826
38455SOL    HW117204  14.465  12.606  10.787
38455SOL    HW217205  14.569  12.499  10.760
38456SOL     OW17206  10.809   7.584   3.103
38456SOL    HW117207  10.837   7.641   3.031
38456SOL    HW217208  10.869   7.510   3.099
38457SOL     OW17209   7.242   7.879   3.396
38457SOL    HW117210   7.297   7.861   3.473
38457SOL    HW217211   7.165   7.923   3.432
38458SOL     OW17212  12.450   7.821  10.287
38458SOL    HW117213  12.371   7.837  10.235
38458SOL    HW217214  12.428   7.853  10.375
38459SOL     OW17215   9.672  11.981   0.698
38459SOL    HW117216   9.746  11.921   0.710
38459SOL    HW217217   9.595  11.924   0.696
38460SOL     OW17218  13.768   0.738   3.975
38460SOL    HW117219  13.811   0.658   3.947
38460SOL    HW217220  13.677   0.712   3.990
38461SOL     OW17221   6.747   5.802   5.094
38461SOL    HW117222   6.705   5.718   5.081
38461SOL    HW217223   6.823   5.783   5.149
38462SOL     OW17224   8.144  11.884  11.424
38462SOL    HW117225   8.084  11.913  11.356
38462SOL    HW217226   8.201  11.821  11.380
38463SOL     OW17227  10.716   3.601   7.880
38463SOL    HW117228  10.687   3.594   7.789
38463SOL    HW217229  10.803   3.641   7.874
38464SOL     OW17230  11.466  14.062   4.880
38464SOL    HW117231  11.557  14.036   4.891
38464SOL    HW217232  11.417  13.980   4.888
38465SOL     OW17233  13.339   8.823  11.496
38465SOL    HW117234  13.330   8.730  11.517
38465SOL    HW217235  13.402   8.856  11.559
38466SOL     OW17236   2.044  11.474   8.362
38466SOL    HW117237   2.109  11.415   8.325
38466SOL    HW217238   1.982  11.417   8.407
38467SOL     OW17239   9.927   6.620   6.315
38467SOL    HW117240   9.878   6.662   6.244
38467SOL    HW217241   9.907   6.674   6.392
38468SOL     OW17242   9.462   6.794   9.001
38468SOL    HW117243   9.506   6.877   8.983
38468SOL    HW217244   9.403   6.782   8.926
38469SOL     OW17245   2.525   8.737  12.776
38469SOL    HW117246   2.536   8.740  12.681
38469SOL    HW217247   2.608   8.701  12.808
38470SOL     OW17248   5.868  10.035   2.488
38470SOL    HW117249   5.932   9.983   2.440
38470SOL    HW217250   5.912  10.058   2.570
38471SOL     OW17251  13.592   0.411   5.110
38471SOL    HW117252  13.509   0.365   5.097
38471SOL    HW217253  13.643   0.390   5.032
38472SOL     OW17254   5.605   3.010  12.204
38472SOL    HW117255   5.606   2.954  12.127
38472SOL    HW217256   5.696   3.037  12.215
38473SOL     OW17257   0.318   1.569   5.452
38473SOL    HW117258   0.260   1.522   5.512
38473SOL    HW217259   0.260   1.606   5.386
38474SOL     OW17260   7.658   4.994   1.525
38474SOL    HW117261   7.599   4.921   1.545
38474SOL    HW217262   7.622   5.069   1.573
38475SOL     OW17263  12.215   6.348   3.949
38475SOL    HW117264  12.214   6.290   3.873
38475SOL    HW217265  12.282   6.414   3.927
38476SOL     OW17266  13.555  14.355   7.660
38476SOL    HW117267  13.486  14.297   7.691
38476SOL    HW217268  13.538  14.439   7.702
38477SOL     OW17269   2.559   5.438  10.719
38477SOL    HW117270   2.644   5.420  10.678
38477SOL    HW217271   2.540   5.359  10.770
38478SOL     OW17272  13.478   8.464   6.248
38478SOL    HW117273  13.420   8.538   6.262
38478SOL    HW217274  13.562   8.492   6.285
38479SOL     OW17275   4.313  13.624  11.076
38479SOL    HW117276   4.270  13.625  10.990
38479SOL    HW217277   4.242  13.607  11.138
38480SOL     OW17278   9.489   8.094  10.820
38480SOL    HW117279   9.463   8.003  10.805
38480SOL    HW217280   9.409   8.136  10.852
38481SOL     OW17281  10.266   3.909  14.634
38481SOL    HW117282  10.270   3.825  14.681
38481SOL    HW217283  10.237   3.887  14.546
38482SOL     OW17284   1.658   8.600  10.326
38482SOL    HW117285   1.662   8.695  10.313
38482SOL    HW217286   1.749   8.574  10.340
38483SOL     OW17287  11.879   1.444   5.959
38483SOL    HW117288  11.854   1.396   6.037
38483SOL    HW217289  11.867   1.536   5.981
38484SOL     OW17290  13.244   8.645   6.227
38484SOL    HW117291  13.216   8.588   6.156
38484SOL    HW217292  13.284   8.720   6.183
38485SOL     OW17293   6.673  13.051   6.128
38485SOL    HW117294   6.641  13.054   6.218
38485SOL    HW217295   6.598  13.018   6.078
38486SOL     OW17296   9.975   4.996   1.434
38486SOL    HW117297   9.888   4.956   1.431
38486SOL    HW217298   9.971   5.065   1.367
38487SOL     OW17299  13.737   3.027   5.330
38487SOL    HW117300  13.814   3.059   5.377
38487SOL    HW217301  13.765   2.943   5.294
38488SOL     OW17302   8.617  10.891   1.162
38488SOL    HW117303   8.645  10.870   1.251
38488SOL    HW217304   8.646  10.816   1.109
38489SOL     OW17305  13.144  13.414  10.057
38489SOL    HW117306  13.192  13.367   9.989
38489SOL    HW217307  13.175  13.504  10.052
38490SOL     OW17308   4.623  10.400   1.409
38490SOL    HW117309   4.548  10.347   1.436
38490SOL    HW217310   4.614  10.481   1.459
38491SOL     OW17311   3.894   5.984   0.774
38491SOL    HW117312   3.848   6.023   0.848
38491SOL    HW217313   3.985   5.976   0.803
38492SOL     OW17314   4.518   9.775   8.157
38492SOL    HW117315   4.552   9.778   8.067
38492SOL    HW217316   4.462   9.698   8.159
38493SOL     OW17317   3.913  11.559   1.256
38493SOL    HW117318   3.854  11.634   1.252
38493SOL    HW217319   3.997  11.597   1.283
38494SOL     OW17320   5.817   2.305  12.926
38494SOL    HW117321   5.847   2.284  13.014
38494SOL    HW217322   5.891   2.281  12.869
38495SOL     OW17323  12.287   1.199   1.088
38495SOL    HW117324  12.195   1.200   1.063
38495SOL    HW217325  12.333   1.165   1.011
38496SOL     OW17326  14.728  14.008   7.527
38496SOL    HW117327  14.640  14.043   7.513
38496SOL    HW217328  14.752  13.968   7.443
38497SOL     OW17329  13.098   5.411  12.052
38497SOL    HW117330  13.126   5.355  12.125
38497SOL    HW217331  13.082   5.350  11.980
38498SOL     OW17332  12.899  11.012   2.390
38498SOL    HW117333  12.923  10.956   2.316
38498SOL    HW217334  12.868  11.093   2.350
38499SOL     OW17335  13.444   1.194   8.812
38499SOL    HW117336  13.430   1.140   8.733
38499SOL    HW217337  13.355   1.210   8.844
38500SOL     OW17338  10.638   1.181   1.898
38500SOL    HW117339  10.652   1.225   1.982
38500SOL    HW217340  10.557   1.219   1.864
38501SOL     OW17341  10.167  11.200   4.935
38501SOL    HW117342  10.174  11.151   4.853
38501SOL    HW217343  10.078  11.235   4.934
38502SOL     OW17344   3.308   2.379   8.451
38502SOL    HW117345   3.402   2.373   8.469
38502SOL    HW217346   3.284   2.291   8.419
38503SOL     OW17347   0.378   3.252  11.096
38503SOL    HW117348   0.373   3.343  11.066
38503SOL    HW217349   0.427   3.257  11.178
38504SOL     OW17350   8.736   6.553  11.302
38504SOL    HW117351   8.715   6.527  11.213
38504SOL    HW217352   8.654   6.586  11.338
38505SOL     OW17353  11.651  10.380  11.978
38505SOL    HW117354  11.654  10.290  12.011
38505SOL    HW217355  11.617  10.372  11.889
38506SOL     OW17356   3.259   2.303  10.406
38506SOL    HW117357   3.258   2.375  10.469
38506SOL    HW217358   3.346   2.308  10.366
38507SOL     OW17359   2.477   9.376   9.598
38507SOL    HW117360   2.443   9.348   9.513
38507SOL    HW217361   2.527   9.300   9.629
38508SOL     OW17362   1.231   9.218   5.560
38508SOL    HW117363   1.204   9.292   5.614
38508SOL    HW217364   1.213   9.246   5.470
38509SOL     OW17365   0.061   7.070   9.234
38509SOL    HW117366   0.059   6.975   9.246
38509SOL    HW217367  14.865   7.103   9.292
38510SOL     OW17368   3.089   4.624   8.158
38510SOL    HW117369   3.040   4.544   8.179
38510SOL    HW217370   3.173   4.592   8.125
38511SOL     OW17371   9.317   4.528   9.158
38511SOL    HW117372   9.310   4.442   9.116
38511SOL    HW217373   9.375   4.578   9.102
38512SOL     OW17374   8.122  11.517  13.827
38512SOL    HW117375   8.185  11.570  13.777
38512SOL    HW217376   8.173  11.480  13.899
38513SOL     OW17377   6.057  10.284   1.781
38513SOL    HW117378   6.099  10.263   1.698
38513SOL    HW217379   6.106  10.359   1.815
38514SOL     OW17380   6.100  12.901  14.554
38514SOL    HW117381   6.057  12.917  14.470
38514SOL    HW217382   6.189  12.937  14.542
38515SOL     OW17383   9.761   9.307   3.540
38515SOL    HW117384   9.841   9.321   3.590
38515SOL    HW217385   9.700   9.267   3.602
38516SOL     OW17386   4.761   2.190   2.359
38516SOL    HW117387   4.816   2.260   2.395
38516SOL    HW217388   4.694   2.236   2.309
38517SOL     OW17389   2.668  14.624  14.777
38517SOL    HW117390   2.629  14.543  14.809
38517SOL    HW217391   2.709  14.599  14.694
38518SOL     OW17392  11.759   8.752   2.402
38518SOL    HW117393  11.754   8.778   2.310
38518SOL    HW217394  11.668   8.732   2.427
38519SOL     OW17395  11.366  11.258   4.372
38519SOL    HW117396  11.319  11.335   4.342
38519SOL    HW217397  11.346  11.253   4.466
38520SOL     OW17398  13.699   3.059   3.708
38520SOL    HW117399  13.654   3.121   3.650
38520SOL    HW217400  13.752   3.006   3.649
38521SOL     OW17401   7.848   6.194   3.444
38521SOL    HW117402   7.898   6.122   3.404
38521SOL    HW217403   7.788   6.150   3.504
38522SOL     OW17404   9.252   7.029   6.187
38522SOL    HW117405   9.221   7.120   6.179
38522SOL    HW217406   9.233   7.005   6.278
38523SOL     OW17407   8.590  12.023   3.330
38523SOL    HW117408   8.622  11.989   3.246
38523SOL    HW217409   8.667  12.022   3.387
38524SOL     OW17410   1.617   5.041  14.241
38524SOL    HW117411   1.572   5.007  14.318
38524SOL    HW217412   1.566   5.118  14.216
38525SOL     OW17413  12.845  11.104  14.247
38525SOL    HW117414  12.908  11.145  14.307
38525SOL    HW217415  12.790  11.177  14.217
38526SOL     OW17416   3.221  14.114   5.863
38526SOL    HW117417   3.169  14.082   5.789
38526SOL    HW217418   3.280  14.178   5.824
38527SOL     OW17419   0.068   3.792   0.917
38527SOL    HW117420   0.087   3.836   1.000
38527SOL    HW217421  14.863   3.837   0.884
38528SOL     OW17422   6.050   9.383   2.643
38528SOL    HW117423   5.980   9.418   2.587
38528SOL    HW217424   6.004   9.331   2.709
38529SOL     OW17425   0.864   7.311   5.904
38529SOL    HW117426   0.950   7.271   5.913
38529SOL    HW217427   0.804   7.247   5.942
38530SOL     OW17428   5.459   4.763   9.989
38530SOL    HW117429   5.501   4.766  10.075
38530SOL    HW217430   5.394   4.834   9.991
38531SOL     OW17431   4.966   4.411  10.846
38531SOL    HW117432   4.951   4.386  10.937
38531SOL    HW217433   4.990   4.504  10.850
38532SOL     OW17434   1.124   8.642  10.591
38532SOL    HW117435   1.212   8.640  10.627
38532SOL    HW217436   1.118   8.561  10.539
38533SOL     OW17437  14.334   3.054  11.405
38533SOL    HW117438  14.279   2.981  11.377
38533SOL    HW217439  14.287   3.132  11.374
38534SOL     OW17440   2.454  14.166   5.660
38534SOL    HW117441   2.531  14.135   5.612
38534SOL    HW217442   2.385  14.171   5.594
38535SOL     OW17443   5.089   7.224   5.292
38535SOL    HW117444   5.108   7.277   5.215
38535SOL    HW217445   5.102   7.283   5.366
38536SOL     OW17446   1.055   6.103   0.302
38536SOL    HW117447   1.136   6.069   0.265
38536SOL    HW217448   1.016   6.028   0.347
38537SOL     OW17449   4.625   8.250  11.986
38537SOL    HW117450   4.591   8.216  12.069
38537SOL    HW217451   4.548   8.258  11.930
38538SOL     OW17452  12.228   6.599   8.057
38538SOL    HW117453  12.284   6.649   8.116
38538SOL    HW217454  12.170   6.664   8.019
38539SOL     OW17455  12.923   3.059   6.258
38539SOL    HW117456  12.872   2.979   6.251
38539SOL    HW217457  12.926   3.094   6.169
38540SOL     OW17458   1.439   0.062   3.832
38540SOL    HW117459   1.439   0.027   3.743
38540SOL    HW217460   1.424  14.858   3.887
38541SOL     OW17461   1.994   5.872   3.250
38541SOL    HW117462   2.081   5.870   3.291
38541SOL    HW217463   2.003   5.818   3.172
38542SOL     OW17464   5.261  10.267  13.947
38542SOL    HW117465   5.198  10.247  14.016
38542SOL    HW217466   5.237  10.355  13.917
38543SOL     OW17467   8.508  14.015   2.168
38543SOL    HW117468   8.465  14.090   2.127
38543SOL    HW217469   8.436  13.957   2.192
38544SOL     OW17470  10.754   7.105   4.220
38544SOL    HW117471  10.786   7.089   4.131
38544SOL    HW217472  10.710   7.190   4.215
38545SOL     OW17473   5.050   6.394  11.518
38545SOL    HW117474   5.049   6.407  11.613
38545SOL    HW217475   4.957   6.390  11.494
38546SOL     OW17476  11.081   6.773   2.760
38546SOL    HW117477  11.041   6.805   2.841
38546SOL    HW217478  11.069   6.844   2.697
38547SOL     OW17479   1.771  14.762   6.627
38547SOL    HW117480   1.767  14.821   6.551
38547SOL    HW217481   1.757  14.820   6.702
38548SOL     OW17482   8.053   1.060  11.953
38548SOL    HW117483   8.067   1.117  12.029
38548SOL    HW217484   7.981   1.101  11.906
38549SOL     OW17485   1.892  11.727   4.706
38549SOL    HW117486   1.833  11.698   4.637
38549SOL    HW217487   1.979  11.729   4.664
38550SOL     OW17488  10.751   5.157   7.697
38550SOL    HW117489  10.799   5.126   7.773
38550SOL    HW217490  10.696   5.228   7.730
38551SOL     OW17491   2.298   3.401   4.081
38551SOL    HW117492   2.219   3.357   4.049
38551SOL    HW217493   2.337   3.439   4.002
38552SOL     OW17494  10.223  12.911  13.977
38552SOL    HW117495  10.154  12.870  13.926
38552SOL    HW217496  10.180  12.982  14.025
38553SOL     OW17497   7.773   1.436   2.316
38553SOL    HW117498   7.801   1.351   2.350
38553SOL    HW217499   7.780   1.428   2.221
38554SOL     OW17500   4.394   6.975   7.685
38554SOL    HW117501   4.364   6.938   7.602
38554SOL    HW217502   4.386   7.070   7.673
38555SOL     OW17503   5.469   8.156   7.024
38555SOL    HW117504   5.392   8.172   7.078
38555SOL    HW217505   5.442   8.180   6.935
38556SOL     OW17506   2.011  11.444   7.737
38556SOL    HW117507   2.066  11.508   7.693
38556SOL    HW217508   1.933  11.493   7.763
38557SOL     OW17509   4.913   4.416  12.227
38557SOL    HW117510   4.851   4.373  12.167
38557SOL    HW217511   4.942   4.494  12.179
38558SOL     OW17512   0.234  14.668  11.700
38558SOL    HW117513   0.176  14.739  11.727
38558SOL    HW217514   0.195  14.589  11.735
38559SOL     OW17515  10.736  12.565   3.404
38559SOL    HW117516  10.734  12.658   3.425
38559SOL    HW217517  10.648  12.534   3.423
38560SOL     OW17518  12.359  10.441   0.027
38560SOL    HW117519  12.300  10.425   0.101
38560SOL    HW217520  12.390  10.530   0.041
38561SOL     OW17521   8.506  14.756  14.716
38561SOL    HW117522   8.433  14.788  14.663
38561SOL    HW217523   8.529  14.672  14.677
38562SOL     OW17524   8.113  13.370   1.787
38562SOL    HW117525   8.200  13.335   1.808
38562SOL    HW217526   8.126  13.416   1.704
38563SOL     OW17527  14.782  13.409   9.316
38563SOL    HW117528  14.865  13.452   9.338
38563SOL    HW217529  14.804  13.316   9.314
38564SOL     OW17530   1.838   5.805   4.149
38564SOL    HW117531   1.784   5.768   4.079
38564SOL    HW217532   1.919   5.755   4.146
38565SOL     OW17533  13.969   0.906   4.953
38565SOL    HW117534  13.901   0.842   4.929
38565SOL    HW217535  14.042   0.852   4.983
38566SOL     OW17536   5.299   3.087   7.027
38566SOL    HW117537   5.243   3.088   6.949
38566SOL    HW217538   5.316   3.179   7.046
38567SOL     OW17539   9.669  11.916   6.112
38567SOL    HW117540   9.574  11.929   6.111
38567SOL    HW217541   9.705  12.004   6.114
38568SOL     OW17542  13.127   8.593  14.233
38568SOL    HW117543  13.170   8.577  14.318
38568SOL    HW217544  13.159   8.523  14.177
38569SOL     OW17545  11.520   6.500   8.460
38569SOL    HW117546  11.528   6.593   8.481
38569SOL    HW217547  11.586   6.484   8.393
38570SOL     OW17548   2.083   6.085   2.569
38570SOL    HW117549   2.045   6.019   2.627
38570SOL    HW217550   2.008   6.123   2.523
38571SOL     OW17551  10.178  10.488   3.600
38571SOL    HW117552  10.126  10.418   3.640
38571SOL    HW217553  10.263  10.448   3.581
38572SOL     OW17554   8.898   3.146  13.613
38572SOL    HW117555   8.928   3.110  13.529
38572SOL    HW217556   8.954   3.104  13.679
38573SOL     OW17557   2.189  11.283  12.634
38573SOL    HW117558   2.182  11.353  12.568
38573SOL    HW217559   2.224  11.327  12.711
38574SOL     OW17560   9.626   2.900  11.984
38574SOL    HW117561   9.616   2.983  11.938
38574SOL    HW217562   9.628   2.834  11.915
38575SOL     OW17563   0.909   9.567   1.920
38575SOL    HW117564   0.946   9.530   2.000
38575SOL    HW217565   0.820   9.532   1.917
38576SOL     OW17566   3.879   3.423   8.692
38576SOL    HW117567   3.942   3.496   8.693
38576SOL    HW217568   3.898   3.377   8.611
38577SOL     OW17569   0.108   2.625   5.933
38577SOL    HW117570   0.060   2.628   6.016
38577SOL    HW217571   0.198   2.605   5.957
38578SOL     OW17572  13.359  12.439   6.226
38578SOL    HW117573  13.429  12.377   6.204
38578SOL    HW217574  13.361  12.503   6.155
38579SOL     OW17575   2.571   8.760   6.275
38579SOL    HW117576   2.594   8.748   6.367
38579SOL    HW217577   2.517   8.838   6.274
38580SOL     OW17578   2.526  13.207  13.187
38580SOL    HW117579   2.455  13.258  13.148
38580SOL    HW217580   2.541  13.135  13.125
38581SOL     OW17581   1.081  14.305  12.852
38581SOL    HW117582   1.101  14.382  12.905
38581SOL    HW217583   1.028  14.250  12.909
38582SOL     OW17584   8.496  12.796   4.153
38582SOL    HW117585   8.537  12.737   4.089
38582SOL    HW217586   8.402  12.788   4.137
38583SOL     OW17587  14.806  11.101   3.358
38583SOL    HW117588   0.004  11.068   3.413
38583SOL    HW217589  14.801  11.195   3.379
38584SOL     OW17590   5.554  12.334   0.592
38584SOL    HW117591   5.649  12.334   0.593
38584SOL    HW217592   5.531  12.392   0.519
38585SOL     OW17593   2.122  14.135  11.699
38585SOL    HW117594   2.099  14.218  11.742
38585SOL    HW217595   2.204  14.109  11.741
38586SOL     OW17596  10.849   5.806   1.688
38586SOL    HW117597  10.911   5.772   1.623
38586SOL    HW217598  10.869   5.757   1.768
38587SOL     OW17599   0.653   8.926   8.725
38587SOL    HW117600   0.716   8.975   8.672
38587SOL    HW217601   0.707   8.867   8.778
38588SOL     OW17602  13.363   5.920   3.211
38588SOL    HW117603  13.405   5.863   3.146
38588SOL    HW217604  13.435   5.959   3.260
38589SOL     OW17605   9.642   4.334   3.066
38589SOL    HW117606   9.593   4.415   3.050
38589SOL    HW217607   9.614   4.307   3.153
38590SOL     OW17608   1.824   9.343   9.855
38590SOL    HW117609   1.817   9.433   9.888
38590SOL    HW217610   1.748   9.332   9.798
38591SOL     OW17611   3.316   1.053   3.220
38591SOL    HW117612   3.274   0.971   3.244
38591SOL    HW217613   3.244   1.111   3.194
38592SOL     OW17614   8.687   0.010  14.513
38592SOL    HW117615   8.695  14.802  14.563
38592SOL    HW217616   8.598   0.040  14.530
38593SOL     OW17617   3.374  13.853   6.550
38593SOL    HW117618   3.436  13.816   6.612
38593SOL    HW217619   3.386  13.948   6.558
38594SOL     OW17620   4.502   6.227   6.045
38594SOL    HW117621   4.419   6.253   6.084
38594SOL    HW217622   4.525   6.145   6.088
38595SOL     OW17623   2.303  12.835   1.643
38595SOL    HW117624   2.385  12.883   1.631
38595SOL    HW217625   2.235  12.902   1.649
38596SOL     OW17626  10.201   8.737   1.297
38596SOL    HW117627  10.243   8.694   1.372
38596SOL    HW217628  10.110   8.749   1.325
38597SOL     OW17629  11.694   7.971  13.680
38597SOL    HW117630  11.625   8.015  13.632
38597SOL    HW217631  11.760   7.948  13.614
38598SOL     OW17632   7.021  13.803   2.066
38598SOL    HW117633   7.042  13.753   2.144
38598SOL    HW217634   6.929  13.783   2.048
38599SOL     OW17635  11.380  13.447  14.724
38599SOL    HW117636  11.358  13.355  14.741
38599SOL    HW217637  11.432  13.473  14.800
38600SOL     OW17638  11.028   8.295  14.851
38600SOL    HW117639  10.982   8.378  14.840
38600SOL    HW217640  10.964   8.238   0.021
38601SOL     OW17641   9.467  11.232   2.402
38601SOL    HW117642   9.461  11.138   2.384
38601SOL    HW217643   9.550  11.241   2.450
38602SOL     OW17644  12.211  13.932  12.988
38602SOL    HW117645  12.287  13.885  13.020
38602SOL    HW217646  12.137  13.898  13.039
38603SOL     OW17647  10.093   8.456   6.382
38603SOL    HW117648  10.042   8.429   6.458
38603SOL    HW217649  10.121   8.545   6.401
38604SOL     OW17650  14.225   2.548   2.638
38604SOL    HW117651  14.172   2.611   2.686
38604SOL    HW217652  14.163   2.482   2.608
38605SOL     OW17653   0.708  11.025   8.103
38605SOL    HW117654   0.659  11.104   8.080
38605SOL    HW217655   0.791  11.057   8.138
38606SOL     OW17656   7.949  13.046   0.756
38606SOL    HW117657   7.994  13.051   0.840
38606SOL    HW217658   8.012  13.002   0.698
38607SOL     OW17659   4.727   6.133   6.870
38607SOL    HW117660   4.715   6.039   6.886
38607SOL    HW217661   4.751   6.139   6.778
38608SOL     OW17662   0.796  13.562   5.405
38608SOL    HW117663   0.804  13.471   5.378
38608SOL    HW217664   0.885  13.589   5.426
38609SOL     OW17665   2.378   1.465  13.177
38609SOL    HW117666   2.431   1.498  13.249
38609SOL    HW217667   2.352   1.377  13.204
38610SOL     OW17668  12.108  14.160   7.200
38610SOL    HW117669  12.053  14.123   7.270
38610SOL    HW217670  12.123  14.250   7.228
38611SOL     OW17671   0.370   5.823  13.122
38611SOL    HW117672   0.322   5.822  13.039
38611SOL    HW217673   0.387   5.916  13.138
38612SOL     OW17674  13.101   7.644   2.433
38612SOL    HW117675  13.104   7.565   2.486
38612SOL    HW217676  13.034   7.698   2.474
38613SOL     OW17677   2.497   4.835  11.688
38613SOL    HW117678   2.455   4.820  11.604
38613SOL    HW217679   2.526   4.748  11.716
38614SOL     OW17680  11.696   0.810   0.913
38614SOL    HW117681  11.701   0.905   0.927
38614SOL    HW217682  11.711   0.798   0.820
38615SOL     OW17683   7.773  10.799  11.157
38615SOL    HW117684   7.707  10.836  11.098
38615SOL    HW217685   7.854  10.842  11.130
38616SOL     OW17686   3.654   2.963   8.204
38616SOL    HW117687   3.662   3.011   8.121
38616SOL    HW217688   3.560   2.952   8.216
38617SOL     OW17689  10.251   8.765   9.056
38617SOL    HW117690  10.276   8.858   9.056
38617SOL    HW217691  10.286   8.730   8.975
38618SOL     OW17692   4.294   5.018   1.356
38618SOL    HW117693   4.219   5.023   1.297
38618SOL    HW217694   4.255   5.005   1.443
38619SOL     OW17695   7.636   1.817  12.068
38619SOL    HW117696   7.657   1.828  12.161
38619SOL    HW217697   7.577   1.742  12.065
38620SOL     OW17698   9.993  12.153   4.394
38620SOL    HW117699   9.917  12.199   4.431
38620SOL    HW217700   9.956  12.076   4.352
38621SOL     OW17701   4.280   4.612   3.916
38621SOL    HW117702   4.218   4.658   3.972
38621SOL    HW217703   4.275   4.656   3.832
38622SOL     OW17704   7.707   3.280  12.831
38622SOL    HW117705   7.678   3.190  12.819
38622SOL    HW217706   7.662   3.309  12.910
38623SOL     OW17707   4.035   1.161   8.957
38623SOL    HW117708   3.971   1.090   8.960
38623SOL    HW217709   4.026   1.198   8.869
38624SOL     OW17710  10.111  12.446   1.147
38624SOL    HW117711  10.050  12.404   1.207
38624SOL    HW217712  10.183  12.475   1.203
38625SOL     OW17713   7.711   9.249  10.985
38625SOL    HW117714   7.799   9.243  11.021
38625SOL    HW217715   7.719   9.309  10.911
38626SOL     OW17716   8.315   1.536   8.456
38626SOL    HW117717   8.377   1.506   8.390
38626SOL    HW217718   8.255   1.462   8.468
38627SOL     OW17719   7.497   3.461   8.720
38627SOL    HW117720   7.479   3.555   8.726
38627SOL    HW217721   7.527   3.448   8.630
38628SOL     OW17722  12.807   7.878  11.309
38628SOL    HW117723  12.787   7.963  11.271
38628SOL    HW217724  12.796   7.816  11.236
38629SOL     OW17725   8.687  12.887   5.326
38629SOL    HW117726   8.742  12.917   5.254
38629SOL    HW217727   8.620  12.832   5.284
38630SOL     OW17728   4.368  11.647   9.640
38630SOL    HW117729   4.433  11.693   9.586
38630SOL    HW217730   4.340  11.711   9.704
38631SOL     OW17731   1.982   2.664  12.947
38631SOL    HW117732   1.943   2.579  12.966
38631SOL    HW217733   1.915   2.712  12.899
38632SOL     OW17734  10.761   6.105   2.017
38632SOL    HW117735  10.844   6.096   1.971
38632SOL    HW217736  10.751   6.200   2.029
38633SOL     OW17737   0.601  13.303   8.212
38633SOL    HW117738   0.609  13.369   8.282
38633SOL    HW217739   0.691  13.281   8.190
38634SOL     OW17740   7.316  12.781   2.532
38634SOL    HW117741   7.327  12.688   2.513
38634SOL    HW217742   7.260  12.814   2.461
38635SOL     OW17743   7.431  12.430  14.511
38635SOL    HW117744   7.500  12.486  14.547
38635SOL    HW217745   7.445  12.432  14.416
38636SOL     OW17746   7.764   3.451   7.732
38636SOL    HW117747   7.778   3.365   7.772
38636SOL    HW217748   7.670   3.466   7.741
38637SOL     OW17749   9.494   4.615  10.388
38637SOL    HW117750   9.534   4.669  10.319
38637SOL    HW217751   9.414   4.581  10.348
38638SOL     OW17752  12.193   2.104   7.542
38638SOL    HW117753  12.120   2.167   7.537
38638SOL    HW217754  12.172   2.050   7.618
38639SOL     OW17755   5.669  14.834  13.998
38639SOL    HW117756   5.730   0.033  13.982
38639SOL    HW217757   5.678  14.815  14.091
38640SOL     OW17758  13.574   2.764   0.464
38640SOL    HW117759  13.648   2.775   0.405
38640SOL    HW217760  13.582   2.836   0.526
38641SOL     OW17761  12.446   4.749   9.008
38641SOL    HW117762  12.436   4.666   8.962
38641SOL    HW217763  12.456   4.814   8.939
38642SOL     OW17764   7.475   3.747   3.874
38642SOL    HW117765   7.431   3.831   3.886
38642SOL    HW217766   7.562   3.770   3.841
38643SOL     OW17767   6.738  14.504  14.376
38643SOL    HW117768   6.667  14.441  14.359
38643SOL    HW217769   6.783  14.468  14.453
38644SOL     OW17770   3.075  13.298   9.314
38644SOL    HW117771   3.085  13.273   9.222
38644SOL    HW217772   3.013  13.371   9.313
38645SOL     OW17773  11.794   3.430   0.348
38645SOL    HW117774  11.844   3.511   0.360
38645SOL    HW217775  11.748   3.442   0.266
38646SOL     OW17776   1.771   7.049   2.202
38646SOL    HW117777   1.812   6.993   2.268
38646SOL    HW217778   1.738   6.988   2.136
38647SOL     OW17779   8.579   0.897  13.905
38647SOL    HW117780   8.566   0.810  13.941
38647SOL    HW217781   8.603   0.882  13.813
38648SOL     OW17782  13.606   4.229   7.173
38648SOL    HW117783  13.547   4.304   7.168
38648SOL    HW217784  13.693   4.267   7.164
38649SOL     OW17785  11.853  13.028   1.052
38649SOL    HW117786  11.850  13.103   1.111
38649SOL    HW217787  11.831  13.063   0.966
38650SOL     OW17788   6.940  12.717   5.542
38650SOL    HW117789   6.925  12.746   5.632
38650SOL    HW217790   6.880  12.769   5.490
38651SOL     OW17791   7.881   7.042   3.231
38651SOL    HW117792   7.820   7.075   3.297
38651SOL    HW217793   7.947   6.994   3.281
38652SOL     OW17794   7.223  14.750   5.097
38652SOL    HW117795   7.235  14.833   5.144
38652SOL    HW217796   7.245  14.682   5.161
38653SOL     OW17797   9.866   7.357  12.901
38653SOL    HW117798   9.942   7.301  12.882
38653SOL    HW217799   9.856   7.352  12.996
38654SOL     OW17800  10.520   1.098   5.797
38654SOL    HW117801  10.576   1.151   5.853
38654SOL    HW217802  10.501   1.020   5.848
38655SOL     OW17803   3.397   5.807   6.070
38655SOL    HW117804   3.315   5.835   6.112
38655SOL    HW217805   3.464   5.818   6.137
38656SOL     OW17806   6.284   0.816   7.270
38656SOL    HW117807   6.211   0.756   7.262
38656SOL    HW217808   6.309   0.836   7.180
38657SOL     OW17809   6.935   5.503   1.021
38657SOL    HW117810   6.859   5.546   0.982
38657SOL    HW217811   7.009   5.558   0.994
38658SOL     OW17812   3.302   2.939   6.067
38658SOL    HW117813   3.362   2.880   6.022
38658SOL    HW217814   3.280   2.894   6.148
38659SOL     OW17815   4.757   5.878   6.444
38659SOL    HW117816   4.848   5.892   6.470
38659SOL    HW217817   4.762   5.838   6.357
38660SOL     OW17818  13.700  11.824   5.531
38660SOL    HW117819  13.660  11.910   5.522
38660SOL    HW217820  13.642  11.776   5.590
38661SOL     OW17821  13.653  10.810   4.755
38661SOL    HW117822  13.743  10.841   4.754
38661SOL    HW217823  13.652  10.738   4.692
38662SOL     OW17824   3.751   2.935   5.630
38662SOL    HW117825   3.820   2.870   5.614
38662SOL    HW217826   3.721   2.960   5.543
38663SOL     OW17827  13.176   2.479  12.299
38663SOL    HW117828  13.249   2.480  12.361
38663SOL    HW217829  13.171   2.569  12.266
38664SOL     OW17830   7.032   5.579  12.264
38664SOL    HW117831   7.047   5.553  12.355
38664SOL    HW217832   6.938   5.569  12.251
38665SOL     OW17833  14.164  10.463  10.180
38665SOL    HW117834  14.137  10.387  10.128
38665SOL    HW217835  14.085  10.517  10.186
38666SOL     OW17836   4.201   3.127  14.506
38666SOL    HW117837   4.247   3.185  14.446
38666SOL    HW217838   4.132   3.086  14.453
38667SOL     OW17839   6.694  11.237   3.555
38667SOL    HW117840   6.712  11.228   3.461
38667SOL    HW217841   6.639  11.315   3.561
38668SOL     OW17842   4.955  12.839   6.546
38668SOL    HW117843   4.959  12.934   6.535
38668SOL    HW217844   4.901  12.826   6.624
38669SOL     OW17845   3.068  12.151   4.434
38669SOL    HW117846   3.048  12.228   4.488
38669SOL    HW217847   2.984  12.108   4.422
38670SOL     OW17848   1.315   4.240   6.277
38670SOL    HW117849   1.315   4.307   6.209
38670SOL    HW217850   1.281   4.162   6.234
38671SOL     OW17851   9.619   0.337   2.353
38671SOL    HW117852   9.558   0.398   2.394
38671SOL    HW217853   9.566   0.285   2.293
38672SOL     OW17854   1.300   4.061  14.366
38672SOL    HW117855   1.376   4.111  14.395
38672SOL    HW217856   1.249   4.123  14.314
38673SOL     OW17857   5.786   7.515  12.449
38673SOL    HW117858   5.860   7.553  12.402
38673SOL    HW217859   5.783   7.424  12.419
38674SOL     OW17860   4.623  14.681   5.319
38674SOL    HW117861   4.621  14.776   5.326
38674SOL    HW217862   4.673  14.665   5.238
38675SOL     OW17863   0.512   1.050   1.419
38675SOL    HW117864   0.529   1.028   1.327
38675SOL    HW217865   0.431   1.003   1.440
38676SOL     OW17866   6.772   3.297   5.043
38676SOL    HW117867   6.738   3.242   5.113
38676SOL    HW217868   6.805   3.236   4.978
38677SOL     OW17869   7.900   8.488  11.856
38677SOL    HW117870   7.920   8.453  11.943
38677SOL    HW217871   7.812   8.456  11.837
38678SOL     OW17872   7.467   3.135   8.181
38678SOL    HW117873   7.504   3.151   8.267
38678SOL    HW217874   7.385   3.088   8.198
38679SOL     OW17875   3.778   5.614   1.565
38679SOL    HW117876   3.813   5.699   1.591
38679SOL    HW217877   3.692   5.634   1.528
38680SOL     OW17878   9.330   8.000  13.039
38680SOL    HW117879   9.388   8.074  13.060
38680SOL    HW217880   9.378   7.923  13.070
38681SOL     OW17881  12.755  11.089   7.129
38681SOL    HW117882  12.850  11.099   7.126
38681SOL    HW217883  12.738  11.011   7.077
38682SOL     OW17884  14.257  11.920   7.014
38682SOL    HW117885  14.241  11.925   6.920
38682SOL    HW217886  14.338  11.869   7.021
38683SOL     OW17887   3.799   1.315   6.656
38683SOL    HW117888   3.814   1.229   6.618
38683SOL    HW217889   3.741   1.299   6.731
38684SOL     OW17890   8.390  12.007   8.688
38684SOL    HW117891   8.468  12.063   8.693
38684SOL    HW217892   8.425  11.918   8.681
38685SOL     OW17893   7.965  14.695  14.331
38685SOL    HW117894   7.874  14.678  14.353
38685SOL    HW217895   8.016  14.647  14.397
38686SOL     OW17896  13.816   9.069  13.834
38686SOL    HW117897  13.800   9.140  13.772
38686SOL    HW217898  13.872   9.008  13.786
38687SOL     OW17899   7.986   2.150  11.964
38687SOL    HW117900   7.966   2.181  12.052
38687SOL    HW217901   8.020   2.228  11.919
38688SOL     OW17902  13.073  14.518   9.745
38688SOL    HW117903  13.064  14.475   9.829
38688SOL    HW217904  13.128  14.594   9.763
38689SOL     OW17905   8.681   5.567   4.101
38689SOL    HW117906   8.716   5.607   4.180
38689SOL    HW217907   8.656   5.641   4.045
38690SOL     OW17908   2.068  10.159   7.128
38690SOL    HW117909   2.011  10.167   7.052
38690SOL    HW217910   2.021  10.206   7.197
38691SOL     OW17911   5.035   8.204   1.342
38691SOL    HW117912   5.112   8.240   1.297
38691SOL    HW217913   5.041   8.110   1.326
38692SOL     OW17914   2.883  10.984   5.546
38692SOL    HW117915   2.843  11.045   5.484
38692SOL    HW217916   2.878  11.029   5.630
38693SOL     OW17917   8.930   3.094   7.508
38693SOL    HW117918   8.894   3.178   7.538
38693SOL    HW217919   9.012   3.084   7.556
38694SOL     OW17920   7.826   7.101   3.731
38694SOL    HW117921   7.884   7.026   3.742
38694SOL    HW217922   7.763   7.093   3.801
38695SOL     OW17923   5.920   2.663  10.420
38695SOL    HW117924   5.943   2.594  10.358
38695SOL    HW217925   5.923   2.744  10.369
38696SOL     OW17926  12.477  14.444   3.993
38696SOL    HW117927  12.441  14.532   4.004
38696SOL    HW217928  12.489  14.412   4.083
38697SOL     OW17929   8.407  10.497  11.765
38697SOL    HW117930   8.362  10.462  11.842
38697SOL    HW217931   8.476  10.552  11.801
38698SOL     OW17932  11.362  12.617   5.116
38698SOL    HW117933  11.369  12.522   5.107
38698SOL    HW217934  11.269  12.636   5.102
38699SOL     OW17935   7.328   9.254   6.640
38699SOL    HW117936   7.315   9.306   6.560
38699SOL    HW217937   7.283   9.172   6.623
38700SOL     OW17938   9.765   9.373  13.255
38700SOL    HW117939   9.859   9.388  13.250
38700SOL    HW217940   9.726   9.449  13.211
38701SOL     OW17941   7.026   3.636   6.969
38701SOL    HW117942   7.014   3.721   7.010
38701SOL    HW217943   7.118   3.635   6.942
38702SOL     OW17944  12.125   3.873  11.838
38702SOL    HW117945  12.215   3.905  11.843
38702SOL    HW217946  12.122   3.817  11.761
38703SOL     OW17947   5.139  11.921   0.532
38703SOL    HW117948   5.109  11.834   0.559
38703SOL    HW217949   5.221  11.905   0.484
38704SOL     OW17950   9.167  14.492  14.617
38704SOL    HW117951   9.220  14.486  14.537
38704SOL    HW217952   9.229  14.519  14.685
38705SOL     OW17953   8.841   5.317   4.599
38705SOL    HW117954   8.875   5.373   4.669
38705SOL    HW217955   8.916   5.300   4.543
38706SOL     OW17956   8.159   4.496  12.171
38706SOL    HW117957   8.208   4.578  12.164
38706SOL    HW217958   8.144   4.469  12.081
38707SOL     OW17959  14.706  13.403  13.000
38707SOL    HW117960  14.613  13.388  13.012
38707SOL    HW217961  14.738  13.430  13.086
38708SOL     OW17962   5.436  10.429   4.351
38708SOL    HW117963   5.513  10.379   4.380
38708SOL    HW217964   5.468  10.485   4.281
38709SOL     OW17965  10.695   4.392   5.640
38709SOL    HW117966  10.703   4.328   5.711
38709SOL    HW217967  10.783   4.425   5.628
38710SOL     OW17968   0.950  14.510   3.695
38710SOL    HW117969   1.027  14.504   3.637
38710SOL    HW217970   0.967  14.447   3.764
38711SOL     OW17971   0.276   7.850   2.983
38711SOL    HW117972   0.256   7.921   2.922
38711SOL    HW217973   0.352   7.806   2.945
38712SOL     OW17974   7.965   5.860  14.300
38712SOL    HW117975   7.896   5.863  14.366
38712SOL    HW217976   7.959   5.945  14.255
38713SOL     OW17977   3.753   3.030  10.027
38713SOL    HW117978   3.722   2.960   9.969
38713SOL    HW217979   3.819   2.988  10.082
38714SOL     OW17980   1.129  11.197   5.004
38714SOL    HW117981   1.092  11.160   4.924
38714SOL    HW217982   1.127  11.291   4.991
38715SOL     OW17983  14.813  14.333   0.705
38715SOL    HW117984   0.026  14.373   0.701
38715SOL    HW217985  14.782  14.352   0.793
38716SOL     OW17986   3.011   7.413   1.962
38716SOL    HW117987   3.074   7.344   1.984
38716SOL    HW217988   2.938   7.366   1.920
38717SOL     OW17989   8.235   6.320   2.413
38717SOL    HW117990   8.278   6.359   2.488
38717SOL    HW217991   8.192   6.393   2.368
38718SOL     OW17992   0.065   8.750   6.150
38718SOL    HW117993   0.151   8.790   6.161
38718SOL    HW217994   0.035   8.780   6.065
38719SOL     OW17995   9.469   6.272   8.332
38719SOL    HW117996   9.375   6.255   8.334
38719SOL    HW217997   9.500   6.226   8.255
38720SOL     OW17998  12.418   8.637   9.067
38720SOL    HW117999  12.442   8.625   9.158
38720SOL    HW218000  12.416   8.732   9.055
38721SOL     OW18001   4.403   7.908  11.410
38721SOL    HW118002   4.418   7.866  11.326
38721SOL    HW218003   4.410   7.838  11.474
38722SOL     OW18004  11.800   2.947   7.563
38722SOL    HW118005  11.749   3.020   7.598
38722SOL    HW218006  11.735   2.892   7.519
38723SOL     OW18007   8.463  11.810   5.718
38723SOL    HW118008   8.547  11.856   5.722
38723SOL    HW218009   8.433  11.807   5.809
38724SOL     OW18010   2.198   8.152   2.843
38724SOL    HW118011   2.134   8.157   2.914
38724SOL    HW218012   2.231   8.062   2.848
38725SOL     OW18013  10.089   1.634   9.786
38725SOL    HW118014  10.145   1.560   9.764
38725SOL    HW218015  10.143   1.689   9.843
38726SOL     OW18016  10.146  11.988   6.773
38726SOL    HW118017  10.207  11.917   6.757
38726SOL    HW218018  10.165  12.018   6.861
38727SOL     OW18019  11.440   3.563   1.825
38727SOL    HW118020  11.362   3.588   1.775
38727SOL    HW218021  11.431   3.468   1.838
38728SOL     OW18022  11.375   9.087   8.053
38728SOL    HW118023  11.396   9.125   7.968
38728SOL    HW218024  11.389   9.159   8.116
38729SOL     OW18025   1.795   8.854   9.796
38729SOL    HW118026   1.757   8.782   9.744
38729SOL    HW218027   1.859   8.894   9.737
38730SOL     OW18028   0.064   2.504  11.235
38730SOL    HW118029   0.069   2.445  11.160
38730SOL    HW218030  14.844   2.527  11.242
38731SOL     OW18031  12.183   2.367   7.275
38731SOL    HW118032  12.155   2.385   7.185
38731SOL    HW218033  12.200   2.273   7.275
38732SOL     OW18034   4.794   0.825   7.133
38732SOL    HW118035   4.816   0.909   7.092
38732SOL    HW218036   4.876   0.797   7.175
38733SOL     OW18037   0.197   3.738  12.021
38733SOL    HW118038   0.175   3.809  11.961
38733SOL    HW218039   0.118   3.725  12.073
38734SOL     OW18040  10.873   4.370   0.521
38734SOL    HW118041  10.944   4.312   0.550
38734SOL    HW218042  10.814   4.375   0.596
38735SOL     OW18043   9.774   0.232   1.385
38735SOL    HW118044   9.833   0.304   1.362
38735SOL    HW218045   9.719   0.267   1.454
38736SOL     OW18046   9.859  11.162   7.543
38736SOL    HW118047   9.902  11.099   7.485
38736SOL    HW218048   9.789  11.200   7.489
38737SOL     OW18049   6.953   5.759   5.249
38737SOL    HW118050   6.920   5.790   5.333
38737SOL    HW218051   7.032   5.710   5.271
38738SOL     OW18052  12.323  13.804   0.194
38738SOL    HW118053  12.299  13.712   0.185
38738SOL    HW218054  12.267  13.849   0.131
38739SOL     OW18055   6.463   3.219   3.043
38739SOL    HW118056   6.531   3.284   3.027
38739SOL    HW218057   6.510   3.137   3.057
38740SOL     OW18058  12.164   0.084  10.211
38740SOL    HW118059  12.153  14.865  10.232
38740SOL    HW218060  12.159   0.089  10.116
38741SOL     OW18061   9.843   3.905   5.207
38741SOL    HW118062   9.770   3.865   5.255
38741SOL    HW218063   9.864   3.842   5.139
38742SOL     OW18064   1.304   4.191   9.408
38742SOL    HW118065   1.288   4.217   9.317
38742SOL    HW218066   1.305   4.095   9.406
38743SOL     OW18067   7.620   7.443   9.082
38743SOL    HW118068   7.613   7.414   9.173
38743SOL    HW218069   7.577   7.374   9.031
38744SOL     OW18070   6.597   7.511  12.985
38744SOL    HW118071   6.666   7.577  12.987
38744SOL    HW218072   6.596   7.480  12.895
38745SOL     OW18073   6.150  13.124  12.271
38745SOL    HW118074   6.234  13.078  12.271
38745SOL    HW218075   6.155  13.183  12.196
38746SOL     OW18076  11.177   5.704  11.149
38746SOL    HW118077  11.087   5.735  11.159
38746SOL    HW218078  11.171   5.635  11.083
38747SOL     OW18079   9.201   3.597   1.297
38747SOL    HW118080   9.135   3.626   1.360
38747SOL    HW218081   9.246   3.525   1.341
38748SOL     OW18082   3.662   9.852   6.229
38748SOL    HW118083   3.746   9.898   6.227
38748SOL    HW218084   3.653   9.821   6.319
38749SOL     OW18085   9.203   2.335   8.253
38749SOL    HW118086   9.122   2.294   8.223
38749SOL    HW218087   9.225   2.398   8.185
38750SOL     OW18088   5.857   2.192  11.866
38750SOL    HW118089   5.922   2.235  11.810
38750SOL    HW218090   5.780   2.249  11.860
38751SOL     OW18091   6.597  11.071   9.350
38751SOL    HW118092   6.507  11.055   9.376
38751SOL    HW218093   6.647  10.999   9.389
38752SOL     OW18094  11.703   9.712  10.954
38752SOL    HW118095  11.754   9.784  10.915
38752SOL    HW218096  11.633   9.695  10.891
38753SOL     OW18097  11.409   5.549   6.219
38753SOL    HW118098  11.427   5.553   6.125
38753SOL    HW218099  11.338   5.613   6.232
38754SOL     OW18100   4.322   2.959   0.291
38754SOL    HW118101   4.396   3.013   0.263
38754SOL    HW218102   4.245   3.011   0.270
38755SOL     OW18103   5.853   5.651   3.134
38755SOL    HW118104   5.807   5.612   3.060
38755SOL    HW218105   5.825   5.599   3.210
38756SOL     OW18106  11.471   0.128  12.650
38756SOL    HW118107  11.414   0.202  12.672
38756SOL    HW218108  11.552   0.145  12.698
38757SOL     OW18109  10.259   6.184   0.237
38757SOL    HW118110  10.254   6.272   0.199
38757SOL    HW218111  10.170   6.164   0.264
38758SOL     OW18112   0.190   4.710  14.172
38758SOL    HW118113   0.099   4.697  14.197
38758SOL    HW218114   0.236   4.727  14.254
38759SOL     OW18115   9.619  11.779   7.265
38759SOL    HW118116   9.536  11.811   7.231
38759SOL    HW218117   9.650  11.717   7.199
38760SOL     OW18118   4.237   8.395   7.101
38760SOL    HW118119   4.205   8.456   7.167
38760SOL    HW218120   4.301   8.341   7.147
38761SOL     OW18121   7.994   4.563   8.141
38761SOL    HW118122   7.976   4.542   8.233
38761SOL    HW218123   7.941   4.500   8.091
38762SOL     OW18124  10.119  12.890  12.375
38762SOL    HW118125  10.184  12.858  12.314
38762SOL    HW218126  10.046  12.828  12.369
38763SOL     OW18127  14.062   9.130   9.531
38763SOL    HW118128  14.088   9.120   9.439
38763SOL    HW218129  14.036   9.043   9.558
38764SOL     OW18130   5.859   8.954  14.682
38764SOL    HW118131   5.911   8.890  14.634
38764SOL    HW218132   5.881   8.939  14.774
38765SOL     OW18133   6.858  13.991   2.754
38765SOL    HW118134   6.835  13.905   2.719
38765SOL    HW218135   6.776  14.024   2.793
38766SOL     OW18136  14.561   3.103   4.636
38766SOL    HW118137  14.520   3.132   4.718
38766SOL    HW218138  14.608   3.023   4.659
38767SOL     OW18139  13.735  12.284   1.686
38767SOL    HW118140  13.684  12.345   1.738
38767SOL    HW218141  13.707  12.300   1.596
38768SOL     OW18142   0.484  10.214   1.667
38768SOL    HW118143   0.476  10.144   1.732
38768SOL    HW218144   0.409  10.271   1.685
38769SOL     OW18145  11.866   8.734   1.586
38769SOL    HW118146  11.915   8.780   1.518
38769SOL    HW218147  11.776   8.763   1.576
38770SOL     OW18148   7.656   4.887   3.294
38770SOL    HW118149   7.607   4.837   3.229
38770SOL    HW218150   7.670   4.972   3.252
38771SOL     OW18151   9.267   2.357   3.516
38771SOL    HW118152   9.266   2.363   3.420
38771SOL    HW218153   9.185   2.399   3.543
38772SOL     OW18154   0.735   4.659   3.576
38772SOL    HW118155   0.687   4.741   3.587
38772SOL    HW218156   0.795   4.676   3.504
38773SOL     OW18157   1.357  11.908   3.236
38773SOL    HW118158   1.367  11.818   3.267
38773SOL    HW218159   1.335  11.900   3.143
38774SOL     OW18160  10.755  10.217   9.389
38774SOL    HW118161  10.723  10.127   9.380
38774SOL    HW218162  10.846  10.208   9.415
38775SOL     OW18163  13.438   4.748   2.850
38775SOL    HW118164  13.371   4.725   2.915
38775SOL    HW218165  13.388   4.778   2.774
38776SOL     OW18166  14.275   3.523   7.365
38776SOL    HW118167  14.293   3.471   7.286
38776SOL    HW218168  14.361   3.545   7.400
38777SOL     OW18169  11.474   2.772   3.723
38777SOL    HW118170  11.495   2.811   3.639
38777SOL    HW218171  11.541   2.805   3.783
38778SOL     OW18172   8.589  11.523   6.591
38778SOL    HW118173   8.598  11.477   6.507
38778SOL    HW218174   8.514  11.480   6.634
38779SOL     OW18175   3.464   5.981   5.134
38779SOL    HW118176   3.477   6.021   5.048
38779SOL    HW218177   3.498   6.046   5.195
38780SOL     OW18178   8.471   9.707   4.697
38780SOL    HW118179   8.550   9.706   4.751
38780SOL    HW218180   8.501   9.735   4.610
38781SOL     OW18181   2.848  14.134   8.988
38781SOL    HW118182   2.802  14.050   8.985
38781SOL    HW218183   2.937  14.113   8.959
38782SOL     OW18184  10.606  10.042  12.635
38782SOL    HW118185  10.685  10.007  12.675
38782SOL    HW218186  10.579  10.114  12.691
38783SOL     OW18187   9.727  12.041  12.729
38783SOL    HW118188   9.704  12.029  12.822
38783SOL    HW218189   9.646  12.020  12.682
38784SOL     OW18190   2.253  10.543   2.640
38784SOL    HW118191   2.265  10.635   2.617
38784SOL    HW218192   2.340  10.514   2.668
38785SOL     OW18193   0.379   2.032   9.864
38785SOL    HW118194   0.405   2.042   9.955
38785SOL    HW218195   0.375   2.121   9.830
38786SOL     OW18196   4.497  11.896   3.735
38786SOL    HW118197   4.547  11.970   3.700
38786SOL    HW218198   4.528  11.821   3.684
38787SOL     OW18199  11.083   4.833   2.148
38787SOL    HW118200  11.052   4.800   2.233
38787SOL    HW218201  11.176   4.851   2.162
38788SOL     OW18202   2.871  13.596   6.686
38788SOL    HW118203   2.831  13.532   6.628
38788SOL    HW218204   2.911  13.544   6.756
38789SOL     OW18205   5.824  12.287   9.762
38789SOL    HW118206   5.886  12.287   9.689
38789SOL    HW218207   5.761  12.218   9.740
38790SOL     OW18208   2.729   7.447   2.268
38790SOL    HW118209   2.783   7.474   2.342
38790SOL    HW218210   2.777   7.374   2.229
38791SOL     OW18211  11.128   9.357   5.658
38791SOL    HW118212  11.157   9.443   5.690
38791SOL    HW218213  11.037   9.350   5.685
38792SOL     OW18214   9.084   9.792   8.777
38792SOL    HW118215   9.102   9.701   8.800
38792SOL    HW218216   8.989   9.799   8.781
38793SOL     OW18217  11.820  13.818   8.542
38793SOL    HW118218  11.765  13.855   8.611
38793SOL    HW218219  11.796  13.725   8.539
38794SOL     OW18220  12.662  12.310   3.201
38794SOL    HW118221  12.625  12.389   3.162
38794SOL    HW218222  12.661  12.327   3.296
38795SOL     OW18223  13.177  13.295  10.830
38795SOL    HW118224  13.101  13.270  10.884
38795SOL    HW218225  13.152  13.378  10.791
38796SOL     OW18226  10.781   5.641   7.032
38796SOL    HW118227  10.775   5.732   7.002
38796SOL    HW218228  10.732   5.591   6.966
38797SOL     OW18229  11.625   2.532   1.101
38797SOL    HW118230  11.712   2.562   1.074
38797SOL    HW218231  11.583   2.609   1.138
38798SOL     OW18232   5.852   6.597   4.091
38798SOL    HW118233   5.859   6.646   4.009
38798SOL    HW218234   5.764   6.561   4.090
38799SOL     OW18235   3.688   7.166  13.582
38799SOL    HW118236   3.712   7.251  13.617
38799SOL    HW218237   3.753   7.106  13.618
38800SOL     OW18238   3.330   8.169  10.680
38800SOL    HW118239   3.392   8.204  10.616
38800SOL    HW218240   3.335   8.074  10.669
38801SOL     OW18241  14.430  10.060  14.638
38801SOL    HW118242  14.417  10.020  14.552
38801SOL    HW218243  14.380  10.141  14.635
38802SOL     OW18244  13.381   1.749   1.399
38802SOL    HW118245  13.472   1.756   1.370
38802SOL    HW218246  13.380   1.670   1.453
38803SOL     OW18247   2.046   0.459   5.086
38803SOL    HW118248   2.021   0.523   5.153
38803SOL    HW218249   2.000   0.488   5.007
38804SOL     OW18250   2.659   4.651   3.709
38804SOL    HW118251   2.619   4.574   3.749
38804SOL    HW218252   2.685   4.622   3.622
38805SOL     OW18253   6.419   1.598  10.706
38805SOL    HW118254   6.448   1.606  10.797
38805SOL    HW218255   6.342   1.654  10.701
38806SOL     OW18256   3.167  12.536  12.433
38806SOL    HW118257   3.187  12.590  12.357
38806SOL    HW218258   3.252  12.511  12.469
38807SOL     OW18259   8.394   3.854   1.905
38807SOL    HW118260   8.368   3.766   1.881
38807SOL    HW218261   8.312   3.896   1.933
38808SOL     OW18262   9.692  12.496  12.460
38808SOL    HW118263   9.702  12.401  12.469
38808SOL    HW218264   9.598  12.509  12.446
38809SOL     OW18265   3.175   5.687   5.039
38809SOL    HW118266   3.151   5.595   5.032
38809SOL    HW218267   3.271   5.686   5.043
38810SOL     OW18268  11.272   9.114  12.529
38810SOL    HW118269  11.272   9.192  12.585
38810SOL    HW218270  11.191   9.069  12.551
38811SOL     OW18271   5.460   6.745   6.376
38811SOL    HW118272   5.397   6.758   6.305
38811SOL    HW218273   5.439   6.813   6.440
38812SOL     OW18274   5.938   7.558   2.030
38812SOL    HW118275   5.981   7.482   2.069
38812SOL    HW218276   5.919   7.615   2.104
38813SOL     OW18277   6.145  13.103   3.300
38813SOL    HW118278   6.068  13.046   3.295
38813SOL    HW218279   6.113  13.184   3.340
38814SOL     OW18280  10.509   2.038  10.868
38814SOL    HW118281  10.514   2.130  10.894
38814SOL    HW218282  10.436   2.003  10.919
38815SOL     OW18283   1.324   4.615   6.875
38815SOL    HW118284   1.272   4.677   6.926
38815SOL    HW218285   1.415   4.639   6.892
38816SOL     OW18286  10.831   9.081   0.170
38816SOL    HW118287  10.826   9.147   0.240
38816SOL    HW218288  10.919   9.091   0.134
38817SOL     OW18289   4.647   1.921  11.858
38817SOL    HW118290   4.553   1.906  11.851
38817SOL    HW218291   4.665   1.993  11.797
38818SOL     OW18292   2.336   9.777   1.163
38818SOL    HW118293   2.378   9.862   1.174
38818SOL    HW218294   2.371   9.723   1.234
38819SOL     OW18295  10.918   4.657  13.298
38819SOL    HW118296  10.962   4.742  13.302
38819SOL    HW218297  10.900   4.635  13.390
38820SOL     OW18298   9.090  14.668   4.443
38820SOL    HW118299   9.087  14.652   4.538
38820SOL    HW218300   9.049  14.754   4.432
38821SOL     OW18301   5.952  13.323   7.864
38821SOL    HW118302   5.885  13.389   7.881
38821SOL    HW218303   5.988  13.345   7.779
38822SOL     OW18304  12.840   2.369  12.056
38822SOL    HW118305  12.872   2.344  12.142
38822SOL    HW218306  12.836   2.287  12.007
38823SOL     OW18307   3.323  10.406   2.313
38823SOL    HW118308   3.388  10.335   2.310
38823SOL    HW218309   3.347  10.463   2.239
38824SOL     OW18310   3.010  11.957   1.540
38824SOL    HW118311   2.929  11.923   1.502
38824SOL    HW218312   3.067  11.881   1.548
38825SOL     OW18313  12.439   9.261   2.125
38825SOL    HW118314  12.479   9.202   2.060
38825SOL    HW218315  12.396   9.202   2.187
38826SOL     OW18316  12.218   8.087   0.280
38826SOL    HW118317  12.258   8.116   0.198
38826SOL    HW218318  12.124   8.093   0.264
38827SOL     OW18319   7.079  14.085   3.843
38827SOL    HW118320   7.117  14.042   3.766
38827SOL    HW218321   6.986  14.065   3.837
38828SOL     OW18322   1.356   7.296   9.195
38828SOL    HW118323   1.308   7.375   9.217
38828SOL    HW218324   1.314   7.227   9.246
38829SOL     OW18325  13.062   8.772   4.063
38829SOL    HW118326  13.041   8.863   4.084
38829SOL    HW218327  12.987   8.722   4.096
38830SOL     OW18328  11.323   1.312   6.562
38830SOL    HW118329  11.249   1.253   6.575
38830SOL    HW218330  11.288   1.399   6.579
38831SOL     OW18331   5.064   1.521   3.283
38831SOL    HW118332   5.074   1.609   3.320
38831SOL    HW218333   4.970   1.509   3.275
38832SOL     OW18334   6.188  11.207   1.272
38832SOL    HW118335   6.257  11.274   1.268
38832SOL    HW218336   6.175  11.181   1.181
38833SOL     OW18337   6.346  14.606   1.093
38833SOL    HW118338   6.306  14.606   1.179
38833SOL    HW218339   6.283  14.562   1.036
38834SOL     OW18340   0.689  14.050  14.085
38834SOL    HW118341   0.735  13.999  14.151
38834SOL    HW218342   0.720  14.140  14.097
38835SOL     OW18343   6.426   0.708   0.908
38835SOL    HW118344   6.460   0.791   0.942
38835SOL    HW218345   6.494   0.676   0.849
38836SOL     OW18346   4.209   8.601   5.345
38836SOL    HW118347   4.293   8.636   5.373
38836SOL    HW218348   4.144   8.655   5.389
38837SOL     OW18349   1.799   1.683   8.773
38837SOL    HW118350   1.738   1.748   8.737
38837SOL    HW218351   1.882   1.729   8.780
38838SOL     OW18352  12.202  10.640  10.050
38838SOL    HW118353  12.129  10.702  10.040
38838SOL    HW218354  12.172  10.560  10.006
38839SOL     OW18355  13.507  12.450  11.143
38839SOL    HW118356  13.580  12.408  11.188
38839SOL    HW218357  13.534  12.542  11.134
38840SOL     OW18358   4.091   7.822  12.435
38840SOL    HW118359   4.130   7.757  12.378
38840SOL    HW218360   4.102   7.905  12.389
38841SOL     OW18361   2.458   3.977   0.189
38841SOL    HW118362   2.538   3.972   0.138
38841SOL    HW218363   2.479   4.036   0.261
38842SOL     OW18364   8.692  12.136  11.984
38842SOL    HW118365   8.629  12.104  11.920
38842SOL    HW218366   8.777  12.127  11.941
38843SOL     OW18367  13.266   6.578   5.828
38843SOL    HW118368  13.232   6.488   5.831
38843SOL    HW218369  13.220   6.624   5.898
38844SOL     OW18370  11.327   9.883   8.562
38844SOL    HW118371  11.405   9.897   8.509
38844SOL    HW218372  11.307   9.790   8.552
38845SOL     OW18373  13.974   6.405   9.002
38845SOL    HW118374  13.945   6.467   8.935
38845SOL    HW218375  14.048   6.449   9.043
38846SOL     OW18376   1.208   9.632   2.884
38846SOL    HW118377   1.203   9.701   2.950
38846SOL    HW218378   1.141   9.569   2.910
38847SOL     OW18379   6.830   9.950   6.410
38847SOL    HW118380   6.867   9.874   6.365
38847SOL    HW218381   6.778   9.995   6.343
38848SOL     OW18382  14.461  13.332  14.612
38848SOL    HW118383  14.402  13.352  14.685
38848SOL    HW218384  14.488  13.241  14.628
38849SOL     OW18385   8.389  10.016   7.709
38849SOL    HW118386   8.329  10.089   7.694
38849SOL    HW218387   8.333   9.943   7.733
38850SOL     OW18388   2.577   4.630  14.857
38850SOL    HW118389   2.616   4.691  14.794
38850SOL    HW218390   2.535   4.563  14.803
38851SOL     OW18391   0.948   9.874  11.667
38851SOL    HW118392   0.864   9.830  11.656
38851SOL    HW218393   1.003   9.838  11.597
38852SOL     OW18394   2.254   4.006   2.650
38852SOL    HW118395   2.210   4.086   2.622
38852SOL    HW218396   2.250   3.948   2.574
38853SOL     OW18397   2.690   3.021   1.185
38853SOL    HW118398   2.615   3.032   1.243
38853SOL    HW218399   2.675   2.936   1.142
38854SOL     OW18400  11.177   1.629   3.434
38854SOL    HW118401  11.222   1.545   3.448
38854SOL    HW218402  11.122   1.615   3.357
38855SOL     OW18403   0.391   3.862   5.686
38855SOL    HW118404   0.429   3.922   5.622
38855SOL    HW218405   0.317   3.910   5.723
38856SOL     OW18406   0.488  11.840   8.575
38856SOL    HW118407   0.566  11.840   8.520
38856SOL    HW218408   0.430  11.904   8.533
38857SOL     OW18409   2.354   5.034  11.319
38857SOL    HW118410   2.283   5.075  11.368
38857SOL    HW218411   2.431   5.089  11.337
38858SOL     OW18412   7.653   4.228  10.225
38858SOL    HW118413   7.633   4.302  10.282
38858SOL    HW218414   7.705   4.265  10.154
38859SOL     OW18415   8.618  11.308   9.762
38859SOL    HW118416   8.704  11.338   9.734
38859SOL    HW218417   8.626  11.297   9.857
38860SOL     OW18418   9.145   7.295  12.382
38860SOL    HW118419   9.130   7.204  12.408
38860SOL    HW218420   9.239   7.299  12.365
38861SOL     OW18421   0.886   6.934   2.861
38861SOL    HW118422   0.889   6.841   2.836
38861SOL    HW218423   0.968   6.949   2.908
38862SOL     OW18424  11.288   6.751  13.156
38862SOL    HW118425  11.210   6.807  13.155
38862SOL    HW218426  11.267   6.681  13.217
38863SOL     OW18427   4.479   0.231   3.809
38863SOL    HW118428   4.544   0.268   3.749
38863SOL    HW218429   4.508   0.258   3.896
38864SOL     OW18430   5.165   3.491   0.220
38864SOL    HW118431   5.231   3.510   0.153
38864SOL    HW218432   5.162   3.570   0.274
38865SOL     OW18433   6.164   3.136   9.862
38865SOL    HW118434   6.127   3.201   9.802
38865SOL    HW218435   6.093   3.074   9.878
38866SOL     OW18436   1.403   0.783   1.848
38866SOL    HW118437   1.417   0.810   1.939
38866SOL    HW218438   1.396   0.687   1.852
38867SOL     OW18439  13.193  14.194  10.182
38867SOL    HW118440  13.132  14.162  10.116
38867SOL    HW218441  13.272  14.140  10.170
38868SOL     OW18442   3.248  14.442   6.443
38868SOL    HW118443   3.246  14.435   6.348
38868SOL    HW218444   3.163  14.480   6.466
38869SOL     OW18445  10.078  12.897   9.310
38869SOL    HW118446   9.997  12.850   9.328
38869SOL    HW218447  10.114  12.916   9.397
38870SOL     OW18448   6.474  11.279   2.380
38870SOL    HW118449   6.482  11.196   2.333
38870SOL    HW218450   6.409  11.262   2.448
38871SOL     OW18451   3.018   1.669   4.198
38871SOL    HW118452   2.935   1.707   4.224
38871SOL    HW218453   3.067   1.742   4.159
38872SOL     OW18454   0.667   6.141   6.371
38872SOL    HW118455   0.583   6.106   6.400
38872SOL    HW218456   0.644   6.218   6.319
38873SOL     OW18457   5.206  12.910  14.837
38873SOL    HW118458   5.185  12.898   0.056
38873SOL    HW218459   5.121  12.909  14.793
38874SOL     OW18460   4.631   5.374   3.057
38874SOL    HW118461   4.590   5.449   3.100
38874SOL    HW218462   4.663   5.320   3.128
38875SOL     OW18463   0.689   2.870   2.637
38875SOL    HW118464   0.603   2.828   2.633
38875SOL    HW218465   0.683   2.930   2.711
38876SOL     OW18466   2.159  14.092   9.283
38876SOL    HW118467   2.219  14.086   9.209
38876SOL    HW218468   2.107  14.011   9.278
38877SOL     OW18469   4.560   7.254   2.888
38877SOL    HW118470   4.619   7.329   2.895
38877SOL    HW218471   4.618   7.179   2.876
38878SOL     OW18472   1.442   1.097   6.703
38878SOL    HW118473   1.410   1.086   6.792
38878SOL    HW218474   1.442   1.192   6.689
38879SOL     OW18475   2.804   8.830   6.174
38879SOL    HW118476   2.713   8.807   6.192
38879SOL    HW218477   2.805   8.853   6.081
38880SOL     OW18478   1.971  10.262   8.110
38880SOL    HW118479   1.957  10.356   8.099
38880SOL    HW218480   2.056  10.246   8.070
38881SOL     OW18481  14.731   1.241   1.818
38881SOL    HW118482  14.787   1.249   1.741
38881SOL    HW218483  14.653   1.195   1.786
38882SOL     OW18484  11.862  10.764   4.814
38882SOL    HW118485  11.907  10.820   4.879
38882SOL    HW218486  11.769  10.783   4.826
38883SOL     OW18487  11.491   2.156   5.796
38883SOL    HW118488  11.575   2.192   5.769
38883SOL    HW218489  11.451   2.225   5.849
38884SOL     OW18490   6.480   9.345   4.346
38884SOL    HW118491   6.443   9.383   4.266
38884SOL    HW218492   6.412   9.286   4.378
38885SOL     OW18493   4.300   4.212   9.572
38885SOL    HW118494   4.270   4.301   9.592
38885SOL    HW218495   4.300   4.208   9.476
38886SOL     OW18496  13.849   4.260  10.803
38886SOL    HW118497  13.884   4.245  10.715
38886SOL    HW218498  13.785   4.330  10.792
38887SOL     OW18499   5.336   3.332   0.616
38887SOL    HW118500   5.344   3.408   0.673
38887SOL    HW218501   5.407   3.274   0.644
38888SOL     OW18502   1.580  10.442   7.419
38888SOL    HW118503   1.598  10.448   7.513
38888SOL    HW218504   1.531  10.522   7.399
38889SOL     OW18505  14.530  11.935   2.149
38889SOL    HW118506  14.595  11.951   2.217
38889SOL    HW218507  14.447  11.929   2.195
38890SOL     OW18508  10.216  10.574  13.253
38890SOL    HW118509  10.235  10.639  13.185
38890SOL    HW218510  10.121  10.563  13.249
38891SOL     OW18511   8.159   5.588   6.936
38891SOL    HW118512   8.088   5.610   6.997
38891SOL    HW218513   8.126   5.616   6.851
38892SOL     OW18514  10.075   7.140   6.494
38892SOL    HW118515   9.985   7.110   6.484
38892SOL    HW218516  10.067   7.227   6.533
38893SOL     OW18517  10.247   3.502   0.159
38893SOL    HW118518  10.302   3.576   0.186
38893SOL    HW218519  10.158   3.529   0.182
38894SOL     OW18520  12.272  11.384  10.463
38894SOL    HW118521  12.328  11.367  10.539
38894SOL    HW218522  12.195  11.330  10.478
38895SOL     OW18523  13.151   9.505  14.475
38895SOL    HW118524  13.173   9.467  14.560
38895SOL    HW218525  13.231   9.551  14.448
38896SOL     OW18526  12.736   3.603  11.966
38896SOL    HW118527  12.701   3.680  12.011
38896SOL    HW218528  12.828   3.599  11.994
38897SOL     OW18529   7.700  11.822   7.459
38897SOL    HW118530   7.640  11.789   7.391
38897SOL    HW218531   7.786  11.791   7.431
38898SOL     OW18532   3.062   1.217   3.523
38898SOL    HW118533   3.142   1.270   3.524
38898SOL    HW218534   3.003   1.264   3.582
38899SOL     OW18535   5.095   6.801  12.855
38899SOL    HW118536   5.010   6.785  12.897
38899SOL    HW218537   5.075   6.861  12.784
38900SOL     OW18538  13.778  14.777  11.536
38900SOL    HW118539  13.714  14.818  11.478
38900SOL    HW218540  13.742  14.788  11.624
38901SOL     OW18541  13.009  11.773  14.330
38901SOL    HW118542  13.066  11.728  14.268
38901SOL    HW218543  12.984  11.706  14.394
38902SOL     OW18544  12.493   1.576  14.030
38902SOL    HW118545  12.416   1.589  14.085
38902SOL    HW218546  12.459   1.539  13.949
38903SOL     OW18547   7.587   3.457   6.813
38903SOL    HW118548   7.530   3.393   6.770
38903SOL    HW218549   7.562   3.453   6.905
38904SOL     OW18550   3.460   8.708  13.582
38904SOL    HW118551   3.459   8.676  13.672
38904SOL    HW218552   3.529   8.657  13.539
38905SOL     OW18553  13.037   2.719   5.249
38905SOL    HW118554  12.995   2.633   5.253
38905SOL    HW218555  12.978   2.772   5.196
38906SOL     OW18556   7.402  14.770   8.291
38906SOL    HW118557   7.389  14.820   8.372
38906SOL    HW218558   7.436  14.834   8.229
38907SOL     OW18559   6.247  10.665   5.421
38907SOL    HW118560   6.274  10.588   5.372
38907SOL    HW218561   6.187  10.632   5.488
38908SOL     OW18562  11.438  12.634   0.235
38908SOL    HW118563  11.358  12.589   0.262
38908SOL    HW218564  11.507  12.594   0.289
38909SOL     OW18565   6.864   3.428  14.086
38909SOL    HW118566   6.831   3.448  13.998
38909SOL    HW218567   6.830   3.341  14.105
38910SOL     OW18568   1.737   0.388   2.457
38910SOL    HW118569   1.828   0.414   2.449
38910SOL    HW218570   1.707   0.377   2.366
38911SOL     OW18571   6.625   2.010  14.100
38911SOL    HW118572   6.554   1.947  14.111
38911SOL    HW218573   6.600   2.061  14.022
38912SOL     OW18574   0.113   3.337  13.455
38912SOL    HW118575   0.029   3.292  13.460
38912SOL    HW218576   0.098   3.422  13.498
38913SOL     OW18577   2.567   4.285   5.192
38913SOL    HW118578   2.592   4.316   5.278
38913SOL    HW218579   2.642   4.303   5.136
38914SOL     OW18580   9.886  12.038  10.226
38914SOL    HW118581   9.830  12.100  10.272
38914SOL    HW218582   9.838  11.956  10.227
38915SOL     OW18583  12.469   4.989   9.159
38915SOL    HW118584  12.441   5.054   9.094
38915SOL    HW218585  12.446   4.905   9.121
38916SOL     OW18586   0.811   8.686   1.700
38916SOL    HW118587   0.722   8.672   1.668
38916SOL    HW218588   0.868   8.665   1.626
38917SOL     OW18589   6.532  13.460  11.880
38917SOL    HW118590   6.515  13.434  11.789
38917SOL    HW218591   6.488  13.544  11.890
38918SOL     OW18592  14.073   4.420   0.787
38918SOL    HW118593  13.992   4.453   0.748
38918SOL    HW218594  14.127   4.394   0.712
38919SOL     OW18595  12.299   8.795   7.436
38919SOL    HW118596  12.299   8.711   7.481
38919SOL    HW218597  12.384   8.834   7.457
38920SOL     OW18598   7.794   1.966   3.796
38920SOL    HW118599   7.737   1.970   3.872
38920SOL    HW218600   7.833   1.879   3.799
38921SOL     OW18601   6.927   7.319   8.182
38921SOL    HW118602   6.852   7.276   8.223
38921SOL    HW218603   7.002   7.265   8.208
38922SOL     OW18604   4.909   6.654   7.406
38922SOL    HW118605   4.889   6.708   7.329
38922SOL    HW218606   5.003   6.634   7.398
38923SOL     OW18607   8.193   0.506   0.816
38923SOL    HW118608   8.156   0.502   0.904
38923SOL    HW218609   8.288   0.511   0.830
38924SOL     OW18610   8.566   2.352  14.774
38924SOL    HW118611   8.637   2.321  14.830
38924SOL    HW218612   8.581   2.446  14.766
38925SOL     OW18613  11.156   4.633   1.213
38925SOL    HW118614  11.245   4.599   1.213
38925SOL    HW218615  11.149   4.681   1.296
38926SOL     OW18616   7.626   4.077   2.475
38926SOL    HW118617   7.642   4.126   2.556
38926SOL    HW218618   7.589   4.142   2.415
38927SOL     OW18619   4.836   9.079   3.874
38927SOL    HW118620   4.772   9.080   3.945
38927SOL    HW218621   4.870   8.989   3.874
38928SOL     OW18622   8.873   2.947  11.024
38928SOL    HW118623   8.887   2.957  11.118
38928SOL    HW218624   8.959   2.926  10.989
38929SOL     OW18625  11.561  10.106   2.954
38929SOL    HW118626  11.606  10.185   2.921
38929SOL    HW218627  11.616  10.034   2.925
38930SOL     OW18628  11.372  12.986   2.041
38930SOL    HW118629  11.295  12.956   1.993
38930SOL    HW218630  11.438  12.999   1.973
38931SOL     OW18631   4.459   1.988  12.870
38931SOL    HW118632   4.371   1.967  12.902
38931SOL    HW218633   4.456   2.082  12.853
38932SOL     OW18634  14.596  12.770  11.439
38932SOL    HW118635  14.529  12.730  11.383
38932SOL    HW218636  14.559  12.767  11.527
38933SOL     OW18637   0.711   9.197   6.841
38933SOL    HW118638   0.673   9.273   6.797
38933SOL    HW218639   0.682   9.122   6.790
38934SOL     OW18640   3.835  13.266   1.518
38934SOL    HW118641   3.777  13.205   1.564
38934SOL    HW218642   3.878  13.315   1.588
38935SOL     OW18643   5.167   3.767   4.297
38935SOL    HW118644   5.183   3.858   4.323
38935SOL    HW218645   5.254   3.728   4.292
38936SOL     OW18646  14.536  13.875   8.385
38936SOL    HW118647  14.620  13.830   8.374
38936SOL    HW218648  14.477  13.828   8.326
38937SOL     OW18649  10.825  14.112  10.726
38937SOL    HW118650  10.857  14.079  10.642
38937SOL    HW218651  10.851  14.046  10.790
38938SOL     OW18652   8.468  11.298  10.918
38938SOL    HW118653   8.391  11.266  10.870
38938SOL    HW218654   8.439  11.381  10.956
38939SOL     OW18655   5.614   0.121   3.077
38939SOL    HW118656   5.634   0.183   3.147
38939SOL    HW218657   5.699   0.080   3.058
38940SOL     OW18658   7.607   6.154  10.268
38940SOL    HW118659   7.542   6.219  10.240
38940SOL    HW218660   7.682   6.206  10.296
38941SOL     OW18661  11.392   6.203   2.229
38941SOL    HW118662  11.388   6.120   2.276
38941SOL    HW218663  11.467   6.249   2.266
38942SOL     OW18664   1.663   2.518  11.453
38942SOL    HW118665   1.585   2.514  11.508
38942SOL    HW218666   1.681   2.611  11.443
38943SOL     OW18667  14.145   1.787   5.421
38943SOL    HW118668  14.213   1.720   5.420
38943SOL    HW218669  14.192   1.868   5.442
38944SOL     OW18670   0.398   9.908   2.858
38944SOL    HW118671   0.336   9.981   2.858
38944SOL    HW218672   0.447   9.918   2.940
38945SOL     OW18673   9.680   5.014   5.078
38945SOL    HW118674   9.752   5.037   5.020
38945SOL    HW218675   9.637   4.941   5.035
38946SOL     OW18676   3.655  13.005  14.144
38946SOL    HW118677   3.620  13.022  14.057
38946SOL    HW218678   3.672  12.910  14.146
38947SOL     OW18679   2.614   6.101   1.171
38947SOL    HW118680   2.523   6.073   1.164
38947SOL    HW218681   2.658   6.055   1.099
38948SOL     OW18682   8.403   8.481  11.418
38948SOL    HW118683   8.372   8.489  11.508
38948SOL    HW218684   8.334   8.433  11.373
38949SOL     OW18685  12.642   4.336   7.644
38949SOL    HW118686  12.721   4.285   7.627
38949SOL    HW218687  12.571   4.271   7.640
38950SOL     OW18688  11.266   1.652   6.275
38950SOL    HW118689  11.303   1.570   6.244
38950SOL    HW218690  11.327   1.684   6.341
38951SOL     OW18691   3.716   1.008   2.761
38951SOL    HW118692   3.689   1.006   2.669
38951SOL    HW218693   3.750   1.096   2.773
38952SOL     OW18694   1.341  10.063   3.745
38952SOL    HW118695   1.381  10.118   3.678
38952SOL    HW218696   1.332   9.977   3.703
38953SOL     OW18697  10.987  13.918   8.562
38953SOL    HW118698  11.065  13.974   8.552
38953SOL    HW218699  10.989  13.862   8.485
38954SOL     OW18700   1.665  13.295   8.229
38954SOL    HW118701   1.694  13.386   8.228
38954SOL    HW218702   1.727  13.250   8.171
38955SOL     OW18703   3.951   0.423  12.474
38955SOL    HW118704   3.982   0.451  12.388
38955SOL    HW218705   3.972   0.497  12.532
38956SOL     OW18706  12.504  12.305  12.343
38956SOL    HW118707  12.526  12.241  12.274
38956SOL    HW218708  12.435  12.359  12.305
38957SOL     OW18709   0.742  10.723   0.095
38957SOL    HW118710   0.660  10.762   0.067
38957SOL    HW218711   0.800  10.798   0.111
38958SOL     OW18712   7.328   7.621  10.335
38958SOL    HW118713   7.386   7.678  10.286
38958SOL    HW218714   7.309   7.669  10.416
38959SOL     OW18715  13.953   1.115   3.852
38959SOL    HW118716  13.990   1.042   3.801
38959SOL    HW218717  13.908   1.169   3.787
38960SOL     OW18718  14.365   1.816   0.457
38960SOL    HW118719  14.412   1.837   0.376
38960SOL    HW218720  14.433   1.813   0.525
38961SOL     OW18721   3.775   3.885  14.448
38961SOL    HW118722   3.695   3.938  14.444
38961SOL    HW218723   3.844   3.944  14.418
38962SOL     OW18724   8.357   4.761   1.494
38962SOL    HW118725   8.396   4.842   1.528
38962SOL    HW218726   8.327   4.785   1.406
38963SOL     OW18727  12.752   4.513   6.889
38963SOL    HW118728  12.726   4.429   6.927
38963SOL    HW218729  12.732   4.577   6.958
38964SOL     OW18730   8.871   3.371   2.577
38964SOL    HW118731   8.777   3.357   2.568
38964SOL    HW218732   8.908   3.338   2.495
38965SOL     OW18733   6.594   7.368   2.715
38965SOL    HW118734   6.677   7.371   2.765
38965SOL    HW218735   6.580   7.275   2.698
38966SOL     OW18736   5.001   8.237   2.591
38966SOL    HW118737   5.053   8.158   2.608
38966SOL    HW218738   4.911   8.210   2.606
38967SOL     OW18739   8.021  13.432   0.007
38967SOL    HW118740   7.939  13.385  14.865
38967SOL    HW218741   7.997  13.504   0.066
38968SOL     OW18742   0.713   9.817  14.221
38968SOL    HW118743   0.681   9.849  14.305
38968SOL    HW218744   0.807   9.804  14.233
38969SOL     OW18745  12.155  10.345  11.205
38969SOL    HW118746  12.238  10.373  11.244
38969SOL    HW218747  12.108  10.302  11.277
38970SOL     OW18748   0.962  10.874   6.736
38970SOL    HW118749   0.920  10.875   6.650
38970SOL    HW218750   0.946  10.961   6.772
38971SOL     OW18751   6.829   3.860  10.791
38971SOL    HW118752   6.765   3.791  10.810
38971SOL    HW218753   6.806   3.892  10.704
38972SOL     OW18754   1.359   4.112   6.984
38972SOL    HW118755   1.434   4.079   6.934
38972SOL    HW218756   1.298   4.038   6.987
38973SOL     OW18757  13.767   5.702   5.227
38973SOL    HW118758  13.802   5.779   5.272
38973SOL    HW218759  13.735   5.645   5.297
38974SOL     OW18760   9.675   7.259   9.782
38974SOL    HW118761   9.604   7.222   9.730
38974SOL    HW218762   9.650   7.241   9.873
38975SOL     OW18763  12.806  12.744   3.492
38975SOL    HW118764  12.832  12.806   3.424
38975SOL    HW218765  12.888  12.710   3.526
38976SOL     OW18766   8.722  13.771   9.240
38976SOL    HW118767   8.635  13.781   9.202
38976SOL    HW218768   8.752  13.860   9.257
38977SOL     OW18769   4.326   5.934  11.686
38977SOL    HW118770   4.264   6.004  11.665
38977SOL    HW218771   4.407   5.962  11.643
38978SOL     OW18772   7.732   7.153   5.725
38978SOL    HW118773   7.706   7.061   5.727
38978SOL    HW218774   7.808   7.158   5.784
38979SOL     OW18775  11.984   9.928   8.137
38979SOL    HW118776  11.920   9.869   8.097
38979SOL    HW218777  11.978   9.911   8.231
38980SOL     OW18778   3.758   6.810  13.325
38980SOL    HW118779   3.753   6.894  13.280
38980SOL    HW218780   3.697   6.819  13.399
38981SOL     OW18781   5.295   8.725   3.503
38981SOL    HW118782   5.241   8.790   3.459
38981SOL    HW218783   5.348   8.686   3.433
38982SOL     OW18784  13.403   9.266  14.164
38982SOL    HW118785  13.397   9.226  14.077
38982SOL    HW218786  13.454   9.203  14.216
38983SOL     OW18787  12.234   2.447   4.154
38983SOL    HW118788  12.270   2.530   4.125
38983SOL    HW218789  12.223   2.396   4.073
38984SOL     OW18790   8.242  12.485   9.321
38984SOL    HW118791   8.331  12.503   9.351
38984SOL    HW218792   8.248  12.402   9.274
38985SOL     OW18793  13.225  14.031  11.492
38985SOL    HW118794  13.228  13.981  11.574
38985SOL    HW218795  13.238  13.965  11.424
38986SOL     OW18796   7.831   2.911  10.013
38986SOL    HW118797   7.743   2.892   9.981
38986SOL    HW218798   7.887   2.847   9.969
38987SOL     OW18799  10.863   4.788   5.296
38987SOL    HW118800  10.892   4.781   5.386
38987SOL    HW218801  10.775   4.749   5.296
38988SOL     OW18802   2.835   0.861  10.948
38988SOL    HW118803   2.905   0.908  10.902
38988SOL    HW218804   2.757   0.916  10.935
38989SOL     OW18805   2.308   1.026  14.475
38989SOL    HW118806   2.286   1.094  14.538
38989SOL    HW218807   2.389   1.057  14.434
38990SOL     OW18808  13.669   1.310   9.426
38990SOL    HW118809  13.709   1.239   9.375
38990SOL    HW218810  13.723   1.387   9.405
38991SOL     OW18811   7.621   8.221   9.145
38991SOL    HW118812   7.660   8.140   9.180
38991SOL    HW218813   7.533   8.222   9.183
38992SOL     OW18814   1.215   4.153   1.534
38992SOL    HW118815   1.230   4.079   1.593
38992SOL    HW218816   1.150   4.121   1.472
38993SOL     OW18817   4.154  11.984   7.544
38993SOL    HW118818   4.243  11.964   7.575
38993SOL    HW218819   4.107  12.009   7.624
38994SOL     OW18820  10.482   1.927   1.677
38994SOL    HW118821  10.542   1.896   1.745
38994SOL    HW218822  10.539   1.940   1.601
38995SOL     OW18823  14.146  14.060  11.791
38995SOL    HW118824  14.238  14.064  11.817
38995SOL    HW218825  14.147  14.078  11.697
38996SOL     OW18826   9.964   6.851   0.749
38996SOL    HW118827   9.894   6.786   0.739
38996SOL    HW218828   9.957   6.906   0.671
38997SOL     OW18829   2.642  11.238   1.189
38997SOL    HW118830   2.648  11.323   1.144
38997SOL    HW218831   2.565  11.196   1.151
38998SOL     OW18832   5.913   9.744   5.035
38998SOL    HW118833   5.921   9.649   5.032
38998SOL    HW218834   5.921   9.766   5.128
38999SOL     OW18835  11.441  10.052  13.965
38999SOL    HW118836  11.475  10.051  13.876
38999SOL    HW218837  11.518  10.060  14.021
39000SOL     OW18838   6.461   7.173   3.102
39000SOL    HW118839   6.368   7.193   3.086
39000SOL    HW218840   6.475   7.090   3.056
39001SOL     OW18841  11.673   1.398   8.191
39001SOL    HW118842  11.602   1.357   8.241
39001SOL    HW218843  11.750   1.345   8.210
39002SOL     OW18844   0.612   3.663   5.566
39002SOL    HW118845   0.531   3.712   5.583
39002SOL    HW218846   0.680   3.730   5.564
39003SOL     OW18847   2.993  10.452  12.188
39003SOL    HW118848   3.005  10.505  12.267
39003SOL    HW218849   2.903  10.470  12.160
39004SOL     OW18850   6.633   0.603  11.764
39004SOL    HW118851   6.602   0.513  11.774
39004SOL    HW218852   6.578   0.640  11.695
39005SOL     OW18853   2.621  11.189   2.707
39005SOL    HW118854   2.668  11.148   2.634
39005SOL    HW218855   2.673  11.166   2.784
39006SOL     OW18856   8.627   8.374  13.977
39006SOL    HW118857   8.640   8.296  13.923
39006SOL    HW218858   8.707   8.425  13.964
39007SOL     OW18859   6.419  13.008  12.773
39007SOL    HW118860   6.482  13.079  12.788
39007SOL    HW218861   6.473  12.933  12.750
39008SOL     OW18862   4.621   6.911  11.792
39008SOL    HW118863   4.707   6.877  11.815
39008SOL    HW218864   4.560   6.841  11.817
39009SOL     OW18865  11.071   3.928   1.380
39009SOL    HW118866  10.993   3.931   1.437
39009SOL    HW218867  11.049   3.986   1.307
39010SOL     OW18868   6.328   9.184   8.333
39010SOL    HW118869   6.246   9.211   8.374
39010SOL    HW218870   6.308   9.178   8.240
39011SOL     OW18871   8.498   4.567   5.616
39011SOL    HW118872   8.561   4.588   5.685
39011SOL    HW218873   8.415   4.554   5.662
39012SOL     OW18874  13.908   6.755   9.523
39012SOL    HW118875  13.821   6.715   9.522
39012SOL    HW218876  13.957   6.708   9.456
39013SOL     OW18877  12.259   8.267   8.832
39013SOL    HW118878  12.168   8.293   8.846
39013SOL    HW218879  12.264   8.245   8.739
39014SOL     OW18880  13.518   1.949   3.044
39014SOL    HW118881  13.607   1.960   3.011
39014SOL    HW218882  13.521   1.983   3.134
39015SOL     OW18883   9.898   6.599   4.517
39015SOL    HW118884   9.826   6.565   4.571
39015SOL    HW218885   9.953   6.522   4.500
39016SOL     OW18886   2.466   6.743  14.839
39016SOL    HW118887   2.379   6.732   0.006
39016SOL    HW218888   2.476   6.838  14.829
39017SOL     OW18889  10.871   3.188   3.089
39017SOL    HW118890  10.939   3.140   3.041
39017SOL    HW218891  10.854   3.265   3.035
39018SOL     OW18892   5.635  10.821   6.835
39018SOL    HW118893   5.685  10.791   6.760
39018SOL    HW218894   5.671  10.908   6.855
39019SOL     OW18895   2.081   5.717   3.042
39019SOL    HW118896   2.126   5.635   3.020
39019SOL    HW218897   2.139   5.786   3.010
39020SOL     OW18898   2.902  10.124   3.825
39020SOL    HW118899   2.824  10.169   3.857
39020SOL    HW218900   2.872  10.073   3.750
39021SOL     OW18901   1.497  13.040   3.393
39021SOL    HW118902   1.542  12.960   3.367
39021SOL    HW218903   1.414  13.037   3.346
39022SOL     OW18904  14.086   6.577  14.038
39022SOL    HW118905  14.004   6.549  14.080
39022SOL    HW218906  14.153   6.564  14.106
39023SOL     OW18907   0.916   4.957   2.046
39023SOL    HW118908   0.969   4.957   2.126
39023SOL    HW218909   0.967   5.011   1.985
39024SOL     OW18910  11.810   1.635  13.989
39024SOL    HW118911  11.831   1.587  14.069
39024SOL    HW218912  11.730   1.683  14.009
39025SOL     OW18913   7.496   5.475   7.891
39025SOL    HW118914   7.526   5.565   7.908
39025SOL    HW218915   7.477   5.440   7.978
39026SOL     OW18916  10.519  12.022   0.607
39026SOL    HW118917  10.499  11.947   0.551
39026SOL    HW218918  10.433  12.051   0.640
39027SOL     OW18919   4.615   8.442   7.856
39027SOL    HW118920   4.632   8.407   7.944
39027SOL    HW218921   4.522   8.425   7.841
39028SOL     OW18922  14.829   1.763  11.709
39028SOL    HW118923  14.757   1.813  11.673
39028SOL    HW218924   0.004   1.825  11.763
39029SOL     OW18925   0.389   1.778   7.010
39029SOL    HW118926   0.467   1.828   7.033
39029SOL    HW218927   0.337   1.837   6.955
39030SOL     OW18928   2.879  10.669   6.417
39030SOL    HW118929   2.921  10.720   6.486
39030SOL    HW218930   2.904  10.715   6.336
39031SOL     OW18931   8.646  11.061  11.729
39031SOL    HW118932   8.592  10.983  11.717
39031SOL    HW218933   8.732  11.028  11.753
39032SOL     OW18934  12.367   8.908   9.041
39032SOL    HW118935  12.293   8.937   8.988
39032SOL    HW218936  12.403   8.988   9.078
39033SOL     OW18937   0.205  11.843  13.489
39033SOL    HW118938   0.123  11.891  13.497
39033SOL    HW218939   0.188  11.776  13.423
39034SOL     OW18940   3.779   7.190   4.323
39034SOL    HW118941   3.817   7.137   4.253
39034SOL    HW218942   3.690   7.158   4.332
39035SOL     OW18943  10.021  12.005   7.863
39035SOL    HW118944  10.024  12.096   7.834
39035SOL    HW218945  10.084  12.001   7.935
39036SOL     OW18946   3.245   4.115  11.234
39036SOL    HW118947   3.285   4.201  11.223
39036SOL    HW218948   3.214   4.091  11.147
39037SOL     OW18949  11.702   6.285  13.641
39037SOL    HW118950  11.707   6.211  13.700
39037SOL    HW218951  11.645   6.256  13.570
39038SOL     OW18952   8.998   3.477   9.109
39038SOL    HW118953   9.072   3.537   9.103
39038SOL    HW218954   8.945   3.510   9.181
39039SOL     OW18955  11.301   5.359  14.223
39039SOL    HW118956  11.213   5.323  14.210
39039SOL    HW218957  11.285   5.447  14.259
39040SOL     OW18958   8.061   0.277  13.237
39040SOL    HW118959   7.988   0.216  13.243
39040SOL    HW218960   8.129   0.240  13.294
39041SOL     OW18961   9.538  12.330  13.869
39041SOL    HW118962   9.462  12.285  13.833
39041SOL    HW218963   9.559  12.398  13.805
39042SOL     OW18964   1.009   0.722   6.423
39042SOL    HW118965   1.046   0.797   6.470
39042SOL    HW218966   1.084   0.678   6.384
39043SOL     OW18967   7.642  13.307  10.168
39043SOL    HW118968   7.736  13.292  10.158
39043SOL    HW218969   7.601  13.226  10.137
39044SOL     OW18970  11.615  13.985   9.661
39044SOL    HW118971  11.637  14.064   9.710
39044SOL    HW218972  11.520  13.991   9.648
39045SOL     OW18973   2.109  13.401   5.307
39045SOL    HW118974   2.111  13.384   5.401
39045SOL    HW218975   2.093  13.316   5.267
39046SOL     OW18976   7.642   8.685   7.680
39046SOL    HW118977   7.682   8.612   7.635
39046SOL    HW218978   7.612   8.648   7.763
39047SOL     OW18979   6.947   5.141   3.239
39047SOL    HW118980   6.864   5.178   3.208
39047SOL    HW218981   6.995   5.119   3.159
39048SOL     OW18982   8.298   2.502   2.785
39048SOL    HW118983   8.281   2.583   2.833
39048SOL    HW218984   8.352   2.449   2.845
39049SOL     OW18985  10.644   2.050   1.437
39049SOL    HW118986  10.675   1.960   1.451
39049SOL    HW218987  10.659   2.066   1.344
39050SOL     OW18988   8.102   2.680  11.111
39050SOL    HW118989   8.101   2.640  11.024
39050SOL    HW218990   8.155   2.620  11.164
39051SOL     OW18991   5.711   6.127   9.553
39051SOL    HW118992   5.735   6.093   9.639
39051SOL    HW218993   5.720   6.222   9.560
39052SOL     OW18994   6.086   1.656  14.820
39052SOL    HW118995   5.997   1.644  14.854
39052SOL    HW218996   6.076   1.654  14.725
39053SOL     OW18997  13.370   1.298  11.180
39053SOL    HW118998  13.379   1.343  11.264
39053SOL    HW218999  13.458   1.298  11.143
39054SOL     OW19000  13.649   0.296   5.427
39054SOL    HW119001  13.613   0.239   5.359
39054SOL    HW219002  13.620   0.257   5.509
39055SOL     OW19003  13.538   7.648  11.276
39055SOL    HW119004  13.453   7.644  11.231
39055SOL    HW219005  13.518   7.688  11.360
39056SOL     OW19006  14.512   2.931  10.549
39056SOL    HW119007  14.455   2.948  10.474
39056SOL    HW219008  14.489   2.998  10.613
39057SOL     OW19009   4.562   1.416  12.728
39057SOL    HW119010   4.589   1.437  12.817
39057SOL    HW219011   4.622   1.465  12.672
39058SOL     OW19012  11.887   0.928  13.857
39058SOL    HW119013  11.825   0.992  13.891
39058SOL    HW219014  11.897   0.951  13.765
39059SOL     OW19015   9.379   2.027  14.042
39059SOL    HW119016   9.361   2.099  13.982
39059SOL    HW219017   9.345   1.949  13.998
39060SOL     OW19018   5.346   4.905  12.651
39060SOL    HW119019   5.262   4.901  12.606
39060SOL    HW219020   5.323   4.919  12.743
39061SOL     OW19021   7.628  13.509  13.037
39061SOL    HW119022   7.628  13.433  13.096
39061SOL    HW219023   7.678  13.576  13.084
39062SOL     OW19024   8.427   9.548  13.198
39062SOL    HW119025   8.363   9.485  13.231
39062SOL    HW219026   8.395   9.633  13.229
39063SOL     OW19027  12.736  13.357   6.706
39063SOL    HW119028  12.733  13.327   6.615
39063SOL    HW219029  12.810  13.309   6.745
39064SOL     OW19030   3.622   0.829  13.769
39064SOL    HW119031   3.557   0.867  13.828
39064SOL    HW219032   3.587   0.845  13.681
39065SOL     OW19033   5.166  14.121   1.391
39065SOL    HW119034   5.215  14.090   1.467
39065SOL    HW219035   5.118  14.044   1.360
39066SOL     OW19036  12.752  10.377   3.519
39066SOL    HW119037  12.670  10.400   3.563
39066SOL    HW219038  12.755  10.281   3.524
39067SOL     OW19039  12.963   6.893   9.659
39067SOL    HW119040  12.944   6.894   9.565
39067SOL    HW219041  12.880   6.871   9.701
39068SOL     OW19042   3.005  10.123   2.637
39068SOL    HW119043   3.081  10.174   2.667
39068SOL    HW219044   3.009  10.129   2.541
39069SOL     OW19045   7.742  10.750   7.640
39069SOL    HW119046   7.789  10.677   7.679
39069SOL    HW219047   7.659  10.713   7.611
39070SOL     OW19048   6.768  10.403  11.301
39070SOL    HW119049   6.817  10.483  11.317
39070SOL    HW219050   6.829  10.346  11.254
39071SOL     OW19051   2.656   1.423   4.808
39071SOL    HW119052   2.623   1.474   4.734
39071SOL    HW219053   2.750   1.443   4.811
39072SOL     OW19054   9.683   6.291   1.332
39072SOL    HW119055   9.770   6.324   1.353
39072SOL    HW219056   9.683   6.201   1.365
39073SOL     OW19057  10.582   5.306  12.523
39073SOL    HW119058  10.565   5.357  12.444
39073SOL    HW219059  10.596   5.217  12.492
39074SOL     OW19060  10.170   3.897   5.612
39074SOL    HW119061  10.186   3.912   5.705
39074SOL    HW219062  10.119   3.815   5.609
39075SOL     OW19063   4.546   6.680  10.875
39075SOL    HW119064   4.556   6.612  10.941
39075SOL    HW219065   4.554   6.762  10.924
39076SOL     OW19066  11.108   6.278   2.948
39076SOL    HW119067  11.134   6.272   3.040
39076SOL    HW219068  11.183   6.318   2.904
39077SOL     OW19069   8.892   2.034   9.278
39077SOL    HW119070   8.959   1.982   9.234
39077SOL    HW219071   8.880   1.992   9.363
39078SOL     OW19072   1.301  14.186   1.658
39078SOL    HW119073   1.319  14.094   1.635
39078SOL    HW219074   1.205  14.192   1.655
39079SOL     OW19075  13.270  11.360   5.106
39079SOL    HW119076  13.293  11.270   5.085
39079SOL    HW219077  13.183  11.354   5.147
39080SOL     OW19078  13.767   8.042   3.082
39080SOL    HW119079  13.785   8.110   3.148
39080SOL    HW219080  13.677   8.015   3.099
39081SOL     OW19081   3.823   1.782  12.683
39081SOL    HW119082   3.913   1.785  12.650
39081SOL    HW219083   3.769   1.774  12.604
39082SOL     OW19084   1.367  11.633  13.751
39082SOL    HW119085   1.441  11.573  13.762
39082SOL    HW219086   1.308  11.612  13.823
39083SOL     OW19087   4.131  12.027   2.986
39083SOL    HW119088   4.069  12.059   2.920
39083SOL    HW219089   4.215  12.025   2.941
39084SOL     OW19090  11.777  12.366  14.284
39084SOL    HW119091  11.801  12.330  14.370
39084SOL    HW219092  11.787  12.461  14.294
39085SOL     OW19093   5.924  14.846   3.893
39085SOL    HW119094   5.916   0.035   3.965
39085SOL    HW219095   6.005  14.798   3.911
39086SOL     OW19096   8.757   5.050   6.622
39086SOL    HW119097   8.718   5.135   6.644
39086SOL    HW219098   8.805   5.024   6.701
39087SOL     OW19099  11.480   4.322   3.319
39087SOL    HW119100  11.548   4.273   3.366
39087SOL    HW219101  11.410   4.258   3.305
39088SOL     OW19102   0.291   8.862  13.403
39088SOL    HW119103   0.232   8.910  13.345
39088SOL    HW219104   0.238   8.789  13.436
39089SOL     OW19105  11.455  10.100   8.190
39089SOL    HW119106  11.426  10.070   8.104
39089SOL    HW219107  11.382  10.079   8.249
39090SOL     OW19108   8.740   1.114   9.484
39090SOL    HW119109   8.762   1.193   9.434
39090SOL    HW219110   8.645   1.119   9.497
39091SOL     OW19111  13.570  14.641  13.591
39091SOL    HW119112  13.526  14.582  13.529
39091SOL    HW219113  13.637  14.685  13.539
39092SOL     OW19114  13.546   5.319   6.646
39092SOL    HW119115  13.459   5.345   6.615
39092SOL    HW219116  13.559   5.371   6.726
39093SOL     OW19117   8.517  13.424  10.567
39093SOL    HW119118   8.499  13.335  10.536
39093SOL    HW219119   8.526  13.416  10.662
39094SOL     OW19120   5.134   8.814   7.498
39094SOL    HW119121   5.108   8.723   7.511
39094SOL    HW219122   5.179   8.837   7.579
39095SOL     OW19123  13.077  11.433  10.964
39095SOL    HW119124  13.105  11.375  10.894
39095SOL    HW219125  12.994  11.469  10.933
39096SOL     OW19126   6.096   6.930   6.193
39096SOL    HW119127   6.148   6.956   6.117
39096SOL    HW219128   6.050   7.010   6.220
39097SOL     OW19129   8.760   1.696   7.686
39097SOL    HW119130   8.680   1.667   7.643
39097SOL    HW219131   8.831   1.670   7.626
39098SOL     OW19132  10.880   8.239  10.385
39098SOL    HW119133  10.960   8.289  10.375
39098SOL    HW219134  10.842   8.270  10.467
39099SOL     OW19135   0.823   7.398   2.920
39099SOL    HW119136   0.848   7.469   2.860
39099SOL    HW219137   0.867   7.421   3.002
39100SOL     OW19138  13.389   0.612   5.604
39100SOL    HW119139  13.428   0.634   5.519
39100SOL    HW219140  13.414   0.684   5.661
39101SOL     OW19141   2.848   0.487   2.675
39101SOL    HW119142   2.846   0.444   2.760
39101SOL    HW219143   2.940   0.485   2.649
39102SOL     OW19144  14.122   6.711  10.003
39102SOL    HW119145  14.154   6.758   9.926
39102SOL    HW219146  14.028   6.700   9.989
39103SOL     OW19147   5.872  14.739  11.877
39103SOL    HW119148   5.862  14.739  11.782
39103SOL    HW219149   5.868  14.832  11.901
39104SOL     OW19150  12.984   4.217   1.323
39104SOL    HW119151  13.022   4.304   1.306
39104SOL    HW219152  12.900   4.219   1.279
39105SOL     OW19153   9.007   4.971   7.464
39105SOL    HW119154   9.008   5.027   7.386
39105SOL    HW219155   9.099   4.965   7.490
39106SOL     OW19156   8.538   2.522  11.332
39106SOL    HW119157   8.522   2.491  11.243
39106SOL    HW219158   8.571   2.446  11.379
39107SOL     OW19159   5.717   4.118   2.860
39107SOL    HW119160   5.716   4.182   2.931
39107SOL    HW219161   5.675   4.164   2.787
39108SOL     OW19162   2.839  10.264   5.395
39108SOL    HW119163   2.806  10.329   5.456
39108SOL    HW219164   2.933  10.259   5.412
39109SOL     OW19165   4.426   1.213  12.618
39109SOL    HW119166   4.410   1.153  12.691
39109SOL    HW219167   4.455   1.294  12.660
39110SOL     OW19168  14.798   2.910   2.478
39110SOL    HW119169  14.720   2.947   2.521
39110SOL    HW219170  14.815   2.829   2.527
39111SOL     OW19171   9.366   6.833   0.101
39111SOL    HW119172   9.331   6.875   0.179
39111SOL    HW219173   9.352   6.739   0.116
39112SOL     OW19174   1.665   7.878   5.725
39112SOL    HW119175   1.665   7.937   5.650
39112SOL    HW219176   1.573   7.870   5.749
39113SOL     OW19177   3.009   2.450  14.000
39113SOL    HW119178   3.027   2.400  14.079
39113SOL    HW219179   3.040   2.395  13.929
39114SOL     OW19180   7.464  10.451   3.528
39114SOL    HW119181   7.401  10.380   3.539
39114SOL    HW219182   7.513  10.453   3.610
39115SOL     OW19183  11.664   6.450   2.657
39115SOL    HW119184  11.608   6.516   2.617
39115SOL    HW219185  11.606   6.375   2.671
39116SOL     OW19186   5.044  13.689  10.964
39116SOL    HW119187   5.132  13.714  10.936
39116SOL    HW219188   5.012  13.764  11.013
39117SOL     OW19189   8.238  14.625  13.348
39117SOL    HW119190   8.212  14.645  13.258
39117SOL    HW219191   8.211  14.701  13.399
39118SOL     OW19192   2.668   6.519   3.094
39118SOL    HW119193   2.701   6.440   3.052
39118SOL    HW219194   2.725   6.533   3.169
39119SOL     OW19195  11.336   0.073  13.068
39119SOL    HW119196  11.348   0.160  13.105
39119SOL    HW219197  11.424   0.043  13.047
39120SOL     OW19198   4.519   6.171   9.530
39120SOL    HW119199   4.606   6.155   9.494
39120SOL    HW219200   4.527   6.146   9.622
39121SOL     OW19201  12.533   8.985   0.623
39121SOL    HW119202  12.523   9.038   0.703
39121SOL    HW219203  12.549   8.896   0.654
39122SOL     OW19204   6.407  13.943   6.283
39122SOL    HW119205   6.445  13.998   6.351
39122SOL    HW219206   6.404  13.998   6.205
39123SOL     OW19207   9.834   8.966   0.665
39123SOL    HW119208   9.838   8.875   0.697
39123SOL    HW219209   9.918   9.004   0.690
39124SOL     OW19210   4.480   9.732   7.226
39124SOL    HW119211   4.431   9.740   7.307
39124SOL    HW219212   4.485   9.638   7.209
39125SOL     OW19213   1.170   4.854   6.971
39125SOL    HW119214   1.141   4.767   6.999
39125SOL    HW219215   1.241   4.876   7.032
39126SOL     OW19216  12.548  12.241  11.449
39126SOL    HW119217  12.571  12.166  11.504
39126SOL    HW219218  12.527  12.203  11.364
39127SOL     OW19219   1.714   6.501   6.192
39127SOL    HW119220   1.755   6.585   6.170
39127SOL    HW219221   1.620   6.515   6.176
39128SOL     OW19222   1.228   5.958   5.019
39128SOL    HW119223   1.267   5.878   5.054
39128SOL    HW219224   1.141   5.932   4.989
39129SOL     OW19225   2.939   1.916  14.568
39129SOL    HW119226   3.021   1.884  14.606
39129SOL    HW219227   2.965   1.957  14.485
39130SOL     OW19228  13.145   7.490  13.013
39130SOL    HW119229  13.187   7.559  13.065
39130SOL    HW219230  13.051   7.508  13.020
39131SOL     OW19231  12.477   0.710  12.486
39131SOL    HW119232  12.416   0.691  12.557
39131SOL    HW219233  12.424   0.755  12.420
39132SOL     OW19234  12.033   5.909   0.417
39132SOL    HW119235  12.094   5.835   0.408
39132SOL    HW219236  11.956   5.871   0.458
39133SOL     OW19237  14.782   4.507   6.706
39133SOL    HW119238  14.836   4.537   6.779
39133SOL    HW219239  14.835   4.523   6.628
39134SOL     OW19240   5.615  12.720  11.214
39134SOL    HW119241   5.605  12.800  11.266
39134SOL    HW219242   5.690  12.675  11.253
39135SOL     OW19243   8.745  13.901   7.735
39135SOL    HW119244   8.827  13.941   7.705
39135SOL    HW219245   8.771  13.845   7.809
39136SOL     OW19246   9.845   1.838  12.582
39136SOL    HW119247   9.920   1.802  12.629
39136SOL    HW219248   9.849   1.932  12.598
39137SOL     OW19249  10.253   2.128   2.638
39137SOL    HW119250  10.227   2.081   2.558
39137SOL    HW219251  10.172   2.166   2.671
39138SOL     OW19252  11.460  13.806   5.072
39138SOL    HW119253  11.414  13.781   4.992
39138SOL    HW219254  11.420  13.755   5.141
39139SOL     OW19255   2.951  12.431   3.894
39139SOL    HW119256   2.935  12.338   3.913
39139SOL    HW219257   2.886  12.478   3.947
39140SOL     OW19258   2.200   5.089  12.371
39140SOL    HW119259   2.139   5.044  12.429
39140SOL    HW219260   2.218   5.172  12.415
39141SOL     OW19261  11.300   8.750   2.229
39141SOL    HW119262  11.295   8.668   2.180
39141SOL    HW219263  11.338   8.812   2.168
39142SOL     OW19264   2.738   3.349  14.347
39142SOL    HW119265   2.702   3.306  14.269
39142SOL    HW219266   2.678   3.324  14.417
39143SOL     OW19267  11.835   4.556   2.143
39143SOL    HW119268  11.772   4.567   2.215
39143SOL    HW219269  11.913   4.521   2.184
39144SOL     OW19270   7.399   1.412   8.818
39144SOL    HW119271   7.356   1.496   8.802
39144SOL    HW219272   7.381   1.361   8.739
39145SOL     OW19273   2.206   4.262   7.793
39145SOL    HW119274   2.291   4.220   7.777
39145SOL    HW219275   2.225   4.356   7.796
39146SOL     OW19276  14.008   3.093   0.278
39146SOL    HW119277  13.934   3.140   0.240
39146SOL    HW219278  14.060   3.065   0.203
39147SOL     OW19279   1.960   0.925   9.689
39147SOL    HW119280   2.035   0.893   9.638
39147SOL    HW219281   1.905   0.848   9.703
39148SOL     OW19282   3.410   4.191  12.634
39148SOL    HW119283   3.323   4.227  12.620
39148SOL    HW219284   3.427   4.137  12.556
39149SOL     OW19285   0.232  14.295  12.791
39149SOL    HW119286   0.166  14.346  12.836
39149SOL    HW219287   0.189  14.265  12.711
39150SOL     OW19288   3.207   9.977  12.337
39150SOL    HW119289   3.115   9.984  12.362
39150SOL    HW219290   3.210   9.903  12.276
39151SOL     OW19291  14.683   3.844   8.389
39151SOL    HW119292  14.704   3.900   8.315
39151SOL    HW219293  14.712   3.893   8.465
39152SOL     OW19294   3.232  13.092   8.162
39152SOL    HW119295   3.159  13.152   8.148
39152SOL    HW219296   3.300  13.146   8.203
39153SOL     OW19297  11.655  14.161  12.651
39153SOL    HW119298  11.643  14.224  12.581
39153SOL    HW219299  11.703  14.208  12.719
39154SOL     OW19300   9.985  10.567   5.844
39154SOL    HW119301   9.991  10.599   5.934
39154SOL    HW219302   9.916  10.501   5.847
39155SOL     OW19303  10.717   6.636   5.109
39155SOL    HW119304  10.662   6.562   5.083
39155SOL    HW219305  10.765   6.660   5.030
39156SOL     OW19306   7.381   6.641   2.411
39156SOL    HW119307   7.357   6.722   2.456
39156SOL    HW219308   7.433   6.592   2.474
39157SOL     OW19309   4.554   5.300   5.019
39157SOL    HW119310   4.548   5.296   4.924
39157SOL    HW219311   4.497   5.228   5.049
39158SOL     OW19312   7.741   7.691   5.689
39158SOL    HW119313   7.820   7.658   5.646
39158SOL    HW219314   7.698   7.612   5.722
39159SOL     OW19315  12.787   2.388   9.318
39159SOL    HW119316  12.769   2.428   9.232
39159SOL    HW219317  12.789   2.463   9.378
39160SOL     OW19318   0.885   9.624   7.109
39160SOL    HW119319   0.831   9.668   7.175
39160SOL    HW219320   0.884   9.682   7.033
39161SOL     OW19321   0.489   8.666   7.189
39161SOL    HW119322   0.403   8.624   7.181
39161SOL    HW219323   0.496   8.721   7.111
39162SOL     OW19324  10.665  12.601  12.363
39162SOL    HW119325  10.641  12.690  12.389
39162SOL    HW219326  10.756  12.590  12.392
39163SOL     OW19327   6.749   3.590  13.569
39163SOL    HW119328   6.820   3.548  13.519
39163SOL    HW219329   6.763   3.683  13.556
39164SOL     OW19330   9.785   5.713   0.824
39164SOL    HW119331   9.879   5.730   0.817
39164SOL    HW219332   9.748   5.752   0.745
39165SOL     OW19333  13.312   7.689   5.737
39165SOL    HW119334  13.240   7.627   5.726
39165SOL    HW219335  13.386   7.647   5.695
39166SOL     OW19336   7.727  13.002   4.970
39166SOL    HW119337   7.729  13.097   4.958
39166SOL    HW219338   7.688  12.990   5.057
39167SOL     OW19339   0.605  10.439   5.664
39167SOL    HW119340   0.545  10.380   5.619
39167SOL    HW219341   0.618  10.511   5.603
39168SOL     OW19342  11.974   6.288   3.144
39168SOL    HW119343  11.944   6.356   3.204
39168SOL    HW219344  11.933   6.311   3.060
39169SOL     OW19345  12.880   7.112   4.818
39169SOL    HW119346  12.921   7.088   4.735
39169SOL    HW219347  12.947   7.093   4.884
39170SOL     OW19348   3.481   4.478   7.365
39170SOL    HW119349   3.388   4.490   7.382
39170SOL    HW219350   3.525   4.538   7.426
39171SOL     OW19351   9.900   5.650   9.508
39171SOL    HW119352   9.935   5.739   9.500
39171SOL    HW219353   9.827   5.647   9.447
39172SOL     OW19354   5.328  12.349  11.376
39172SOL    HW119355   5.246  12.303  11.391
39172SOL    HW219356   5.380  12.333  11.455
39173SOL     OW19357   6.500   5.623  11.891
39173SOL    HW119358   6.496   5.605  11.985
39173SOL    HW219359   6.588   5.659  11.878
39174SOL     OW19360   9.746  13.170   9.264
39174SOL    HW119361   9.751  13.126   9.349
39174SOL    HW219362   9.737  13.098   9.201
39175SOL     OW19363   3.463   5.301   7.655
39175SOL    HW119364   3.459   5.387   7.613
39175SOL    HW219365   3.371   5.275   7.664
39176SOL     OW19366   6.736   4.032  11.026
39176SOL    HW119367   6.754   4.015  10.934
39176SOL    HW219368   6.718   3.946  11.064
39177SOL     OW19369   8.194   5.325   5.220
39177SOL    HW119370   8.224   5.408   5.181
39177SOL    HW219371   8.243   5.258   5.172
39178SOL     OW19372   8.187   4.894   7.707
39178SOL    HW119373   8.222   4.812   7.742
39178SOL    HW219374   8.092   4.886   7.717
39179SOL     OW19375   9.482   4.885   9.945
39179SOL    HW119376   9.545   4.910   9.878
39179SOL    HW219377   9.475   4.790   9.937
39180SOL     OW19378   7.573   1.721   1.027
39180SOL    HW119379   7.649   1.740   0.972
39180SOL    HW219380   7.596   1.640   1.072
39181SOL     OW19381   6.906  13.671   9.486
39181SOL    HW119382   6.859  13.738   9.534
39181SOL    HW219383   6.838  13.614   9.450
39182SOL     OW19384   2.850   8.130   1.582
39182SOL    HW119385   2.778   8.128   1.518
39182SOL    HW219386   2.896   8.047   1.570
39183SOL     OW19387   4.104   0.341   3.317
39183SOL    HW119388   4.117   0.350   3.222
39183SOL    HW219389   4.014   0.369   3.331
39184SOL     OW19390   6.806  11.224   5.555
39184SOL    HW119391   6.790  11.292   5.488
39184SOL    HW219392   6.743  11.243   5.624
39185SOL     OW19393   3.525   6.155   5.358
39185SOL    HW119394   3.607   6.124   5.395
39185SOL    HW219395   3.484   6.206   5.429
39186SOL     OW19396   4.259   4.784   9.484
39186SOL    HW119397   4.297   4.871   9.472
39186SOL    HW219398   4.259   4.770   9.578
39187SOL     OW19399  12.287   9.796  13.649
39187SOL    HW119400  12.294   9.734  13.577
39187SOL    HW219401  12.269   9.880  13.607
39188SOL     OW19402  12.854   3.073  11.692
39188SOL    HW119403  12.905   3.049  11.615
39188SOL    HW219404  12.836   2.989  11.736
39189SOL     OW19405  11.123   0.874   5.396
39189SOL    HW119406  11.211   0.904   5.420
39189SOL    HW219407  11.110   0.795   5.448
39190SOL     OW19408   9.929  14.653   5.161
39190SOL    HW119409   9.852  14.599   5.143
39190SOL    HW219410   9.981  14.601   5.222
39191SOL     OW19411   4.455   6.131   8.413
39191SOL    HW119412   4.446   6.048   8.459
39191SOL    HW219413   4.514   6.112   8.340
39192SOL     OW19414   8.317   1.787   1.344
39192SOL    HW119415   8.260   1.735   1.287
39192SOL    HW219416   8.361   1.723   1.399
39193SOL     OW19417  12.409   4.508   9.471
39193SOL    HW119418  12.314   4.520   9.460
39193SOL    HW219419  12.448   4.582   9.424
39194SOL     OW19420  11.787   4.436  11.573
39194SOL    HW119421  11.729   4.373  11.615
39194SOL    HW219422  11.736   4.472  11.501
39195SOL     OW19423   4.383   8.755  14.009
39195SOL    HW119424   4.358   8.677  14.057
39195SOL    HW219425   4.302   8.805  13.999
39196SOL     OW19426   7.318   9.352   6.120
39196SOL    HW119427   7.364   9.388   6.196
39196SOL    HW219428   7.387   9.305   6.072
39197SOL     OW19429   0.407  13.046   7.023
39197SOL    HW119430   0.315  13.032   7.002
39197SOL    HW219431   0.429  12.975   7.083
39198SOL     OW19432  11.146   2.947   1.903
39198SOL    HW119433  11.203   2.969   1.976
39198SOL    HW219434  11.160   3.018   1.839
39199SOL     OW19435   8.933   4.939  11.128
39199SOL    HW119436   8.993   5.013  11.117
39199SOL    HW219437   8.966   4.893  11.205
39200SOL     OW19438  12.217  10.860  12.500
39200SOL    HW119439  12.146  10.801  12.523
39200SOL    HW219440  12.266  10.872  12.581
39201SOL     OW19441  13.828   7.319   6.849
39201SOL    HW119442  13.773   7.328   6.771
39201SOL    HW219443  13.910   7.362   6.826
39202SOL     OW19444   0.309   3.023   1.057
39202SOL    HW119445   0.225   2.977   1.054
39202SOL    HW219446   0.372   2.957   1.083
39203SOL     OW19447   7.090   3.798   5.898
39203SOL    HW119448   7.079   3.813   5.805
39203SOL    HW219449   7.006   3.761   5.927
39204SOL     OW19450   3.673   4.532   2.344
39204SOL    HW119451   3.613   4.507   2.415
39204SOL    HW219452   3.746   4.576   2.388
39205SOL     OW19453   1.413   8.383   7.049
39205SOL    HW119454   1.404   8.446   6.977
39205SOL    HW219455   1.323   8.356   7.067
39206SOL     OW19456  12.503  14.784  14.716
39206SOL    HW119457  12.587  14.739  14.723
39206SOL    HW219458  12.501  14.818  14.627
39207SOL     OW19459   0.670  10.740   3.201
39207SOL    HW119460   0.735  10.700   3.259
39207SOL    HW219461   0.665  10.681   3.126
39208SOL     OW19462   7.829   7.926   6.330
39208SOL    HW119463   7.900   7.984   6.355
39208SOL    HW219464   7.801   7.885   6.412
39209SOL     OW19465   3.785   8.301   3.670
39209SOL    HW119466   3.875   8.325   3.688
39209SOL    HW219467   3.790   8.243   3.594
39210SOL     OW19468   3.899   9.523   0.483
39210SOL    HW119469   3.826   9.477   0.442
39210SOL    HW219470   3.957   9.453   0.514
39211SOL     OW19471  12.497   6.259   7.183
39211SOL    HW119472  12.488   6.327   7.116
39211SOL    HW219473  12.561   6.295   7.244
39212SOL     OW19474   8.533  10.254   3.583
39212SOL    HW119475   8.468  10.185   3.569
39212SOL    HW219476   8.547  10.254   3.678
39213SOL     OW19477   3.552   3.234   0.662
39213SOL    HW119478   3.548   3.318   0.616
39213SOL    HW219479   3.637   3.197   0.637
39214SOL     OW19480   3.212  10.226   5.932
39214SOL    HW119481   3.176  10.180   5.856
39214SOL    HW219482   3.299  10.187   5.945
39215SOL     OW19483  13.998  12.220   1.733
39215SOL    HW119484  14.009  12.315   1.727
39215SOL    HW219485  13.904  12.206   1.720
39216SOL     OW19486  11.007   2.450   6.471
39216SOL    HW119487  11.068   2.514   6.434
39216SOL    HW219488  10.936   2.445   6.407
39217SOL     OW19489   1.898   5.525   9.938
39217SOL    HW119490   1.823   5.573   9.906
39217SOL    HW219491   1.865   5.476  10.014
39218SOL     OW19492   9.498  10.891   0.166
39218SOL    HW119493   9.510  10.802   0.132
39218SOL    HW219494   9.440  10.881   0.241
39219SOL     OW19495   6.880  14.378  13.609
39219SOL    HW119496   6.915  14.297  13.573
39219SOL    HW219497   6.879  14.439  13.535
39220SOL     OW19498   4.656   7.770  10.400
39220SOL    HW119499   4.740   7.725  10.407
39220SOL    HW219500   4.667   7.850  10.452
39221SOL     OW19501   1.361   1.638   6.777
39221SOL    HW119502   1.327   1.618   6.865
39221SOL    HW219503   1.422   1.711   6.790
39222SOL     OW19504   0.766   3.066  13.654
39222SOL    HW119505   0.733   3.132  13.715
39222SOL    HW219506   0.848   3.037  13.694
39223SOL     OW19507   3.924  11.608   5.906
39223SOL    HW119508   3.995  11.606   5.842
39223SOL    HW219509   3.939  11.690   5.954
39224SOL     OW19510  12.966   7.817   5.743
39224SOL    HW119511  12.950   7.724   5.758
39224SOL    HW219512  13.036   7.819   5.678
39225SOL     OW19513  11.472   0.585  12.384
39225SOL    HW119514  11.407   0.621  12.323
39225SOL    HW219515  11.444   0.494  12.397
39226SOL     OW19516   7.595  13.244   3.782
39226SOL    HW119517   7.673  13.266   3.732
39226SOL    HW219518   7.524  13.246   3.718
39227SOL     OW19519   5.776   9.208   1.125
39227SOL    HW119520   5.782   9.114   1.109
39227SOL    HW219521   5.711   9.215   1.196
39228SOL     OW19522   1.147   9.441  14.663
39228SOL    HW119523   1.122   9.473  14.749
39228SOL    HW219524   1.134   9.515  14.604
39229SOL     OW19525   5.725  14.042   1.116
39229SOL    HW119526   5.630  14.035   1.107
39229SOL    HW219527   5.745  13.996   1.198
39230SOL     OW19528   8.091   8.899   8.715
39230SOL    HW119529   8.069   8.823   8.769
39230SOL    HW219530   8.177   8.879   8.680
39231SOL     OW19531   0.531  10.857   7.405
39231SOL    HW119532   0.624  10.834   7.404
39231SOL    HW219533   0.521  10.913   7.482
39232SOL     OW19534   6.513   5.899   8.270
39232SOL    HW119535   6.512   5.963   8.342
39232SOL    HW219536   6.529   5.952   8.192
39233SOL     OW19537  12.336  10.780   9.113
39233SOL    HW119538  12.400  10.815   9.175
39233SOL    HW219539  12.374  10.800   9.027
39234SOL     OW19540   0.774   9.477   5.087
39234SOL    HW119541   0.804   9.393   5.051
39234SOL    HW219542   0.813   9.543   5.030
39235SOL     OW19543   7.916   4.047   9.708
39235SOL    HW119544   7.966   4.071   9.630
39235SOL    HW219545   7.977   4.060   9.780
39236SOL     OW19546  13.223  13.917  11.763
39236SOL    HW119547  13.277  13.843  11.792
39236SOL    HW219548  13.142  13.909  11.814
39237SOL     OW19549   4.091  13.519  11.928
39237SOL    HW119550   4.034  13.565  11.989
39237SOL    HW219551   4.032  13.464  11.877
39238SOL     OW19552   2.244  10.566   0.147
39238SOL    HW119553   2.310  10.534   0.085
39238SOL    HW219554   2.260  10.517   0.227
39239SOL     OW19555   7.516  13.957   6.222
39239SOL    HW119556   7.528  13.919   6.309
39239SOL    HW219557   7.423  13.947   6.204
39240SOL     OW19558   6.735   1.835   2.266
39240SOL    HW119559   6.708   1.905   2.326
39240SOL    HW219560   6.677   1.844   2.191
39241SOL     OW19561   3.071  14.739   5.982
39241SOL    HW119562   3.078  14.646   6.006
39241SOL    HW219563   2.978  14.758   5.988
39242SOL     OW19564   2.369   1.655   9.514
39242SOL    HW119565   2.419   1.675   9.434
39242SOL    HW219566   2.350   1.741   9.552
39243SOL     OW19567   2.270   4.562   2.695
39243SOL    HW119568   2.289   4.637   2.751
39243SOL    HW219569   2.304   4.588   2.609
39244SOL     OW19570   6.847   5.783   1.605
39244SOL    HW119571   6.926   5.755   1.652
39244SOL    HW219572   6.843   5.878   1.620
39245SOL     OW19573   9.165  13.284   0.271
39245SOL    HW119574   9.157  13.351   0.204
39245SOL    HW219575   9.126  13.205   0.232
39246SOL     OW19576   3.979  12.313   9.402
39246SOL    HW119577   3.884  12.297   9.406
39246SOL    HW219578   4.003  12.334   9.493
39247SOL     OW19579   0.856   1.907   3.787
39247SOL    HW119580   0.774   1.884   3.830
39247SOL    HW219581   0.861   2.002   3.793
39248SOL     OW19582   2.151   9.534  14.039
39248SOL    HW119583   2.077   9.594  14.042
39248SOL    HW219584   2.209   9.564  14.109
39249SOL     OW19585  11.462   9.174   1.500
39249SOL    HW119586  11.554   9.152   1.513
39249SOL    HW219587  11.457   9.202   1.408
39250SOL     OW19588   6.955   1.665   0.151
39250SOL    HW119589   6.889   1.722   0.191
39250SOL    HW219590   6.940   1.673   0.057
39251SOL     OW19591  14.797   8.863   1.351
39251SOL    HW119592  14.802   8.914   1.432
39251SOL    HW219593  14.827   8.923   1.283
39252SOL     OW19594   6.267   6.652   0.429
39252SOL    HW119595   6.260   6.587   0.500
39252SOL    HW219596   6.361   6.656   0.410
39253SOL     OW19597   5.246   1.192   9.127
39253SOL    HW119598   5.153   1.209   9.114
39253SOL    HW219599   5.290   1.265   9.085
39254SOL     OW19600   1.853  14.488   9.740
39254SOL    HW119601   1.948  14.498   9.728
39254SOL    HW219602   1.834  14.400   9.708
39255SOL     OW19603   7.103   3.832   1.846
39255SOL    HW119604   7.075   3.815   1.756
39255SOL    HW219605   7.174   3.895   1.838
39256SOL     OW19606  12.789  11.599  12.053
39256SOL    HW119607  12.861  11.627  11.997
39256SOL    HW219608  12.821  11.519  12.095
39257SOL     OW19609   9.745   6.727   2.299
39257SOL    HW119610   9.778   6.657   2.243
39257SOL    HW219611   9.653   6.737   2.275
39258SOL     OW19612   8.727   6.153   7.930
39258SOL    HW119613   8.651   6.135   7.874
39258SOL    HW219614   8.770   6.068   7.940
39259SOL     OW19615   6.992  13.525  10.361
39259SOL    HW119616   7.010  13.576  10.441
39259SOL    HW219617   7.072  13.475  10.346
39260SOL     OW19618   6.349   2.671   3.005
39260SOL    HW119619   6.439   2.699   3.019
39260SOL    HW219620   6.323   2.714   2.924
39261SOL     OW19621   0.183  12.425  13.885
39261SOL    HW119622   0.112  12.373  13.921
39261SOL    HW219623   0.261  12.371  13.898
39262SOL     OW19624   2.340  13.892   5.424
39262SOL    HW119625   2.425  13.872   5.386
39262SOL    HW219626   2.318  13.815   5.477
39263SOL     OW19627  13.647  11.250   8.569
39263SOL    HW119628  13.615  11.197   8.496
39263SOL    HW219629  13.711  11.309   8.529
39264SOL     OW19630  11.733  14.317   2.398
39264SOL    HW119631  11.780  14.236   2.417
39264SOL    HW219632  11.708  14.352   2.483
39265SOL     OW19633   5.325   8.076   3.667
39265SOL    HW119634   5.248   8.083   3.724
39265SOL    HW219635   5.295   8.110   3.583
39266SOL     OW19636   8.183  13.788   7.648
39266SOL    HW119637   8.088  13.799   7.640
39266SOL    HW219638   8.211  13.761   7.560
39267SOL     OW19639   6.124   6.361  10.732
39267SOL    HW119640   6.146   6.389  10.821
39267SOL    HW219641   6.029   6.353  10.732
39268SOL     OW19642   6.933  11.698   8.730
39268SOL    HW119643   7.013  11.648   8.715
39268SOL    HW219644   6.862  11.639   8.703
39269SOL     OW19645   3.840   0.942   7.079
39269SOL    HW119646   3.819   0.853   7.107
39269SOL    HW219647   3.764   0.994   7.106
39270SOL     OW19648  12.467   9.291   1.203
39270SOL    HW119649  12.452   9.354   1.132
39270SOL    HW219650  12.500   9.213   1.158
39271SOL     OW19651   0.268   2.391   5.423
39271SOL    HW119652   0.330   2.413   5.493
39271SOL    HW219653   0.212   2.469   5.414
39272SOL     OW19654   7.931   5.953   4.027
39272SOL    HW119655   7.836   5.953   4.037
39272SOL    HW219656   7.964   5.976   4.114
39273SOL     OW19657   7.073  11.460   9.293
39273SOL    HW119658   7.010  11.430   9.228
39273SOL    HW219659   7.031  11.536   9.333
39274SOL     OW19660  13.544   3.662   1.175
39274SOL    HW119661  13.542   3.752   1.207
39274SOL    HW219662  13.618   3.621   1.220
39275SOL     OW19663   9.805  13.221   5.864
39275SOL    HW119664   9.800  13.138   5.817
39275SOL    HW219665   9.831  13.285   5.797
39276SOL     OW19666   3.672   2.029   7.368
39276SOL    HW119667   3.609   2.038   7.440
39276SOL    HW219668   3.665   1.937   7.342
39277SOL     OW19669   2.219   3.096   3.196
39277SOL    HW119670   2.124   3.092   3.201
39277SOL    HW219671   2.237   3.143   3.115
39278SOL     OW19672   8.875  14.716   0.244
39278SOL    HW119673   8.843  14.683   0.327
39278SOL    HW219674   8.796  14.728   0.191
39279SOL     OW19675   9.026   3.060   5.704
39279SOL    HW119676   9.067   3.045   5.790
39279SOL    HW219677   9.027   2.975   5.661
39280SOL     OW19678   0.446   3.378   3.368
39280SOL    HW119679   0.360   3.362   3.330
39280SOL    HW219680   0.504   3.315   3.325
39281SOL     OW19681   1.610  14.861   2.005
39281SOL    HW119682   1.643   0.052   1.943
39281SOL    HW219683   1.643   0.017   2.090
39282SOL     OW19684   9.575   0.226   7.042
39282SOL    HW119685   9.564   0.131   7.031
39282SOL    HW219686   9.500   0.253   7.095
39283SOL     OW19687   4.152  13.824  14.592
39283SOL    HW119688   4.199  13.783  14.665
39283SOL    HW219689   4.060  13.808  14.611
39284SOL     OW19690   1.986   6.732   3.031
39284SOL    HW119691   1.964   6.796   2.964
39284SOL    HW219692   2.055   6.774   3.083
39285SOL     OW19693  10.392  12.857  10.329
39285SOL    HW119694  10.427  12.916  10.262
39285SOL    HW219695  10.404  12.905  10.411
39286SOL     OW19696   6.852   8.093  14.046
39286SOL    HW119697   6.865   8.013  13.996
39286SOL    HW219698   6.858   8.066  14.137
39287SOL     OW19699   6.177   6.066  10.560
39287SOL    HW119700   6.269   6.068  10.585
39287SOL    HW219701   6.130   6.046  10.641
39288SOL     OW19702   1.259   3.542  13.800
39288SOL    HW119703   1.309   3.506  13.726
39288SOL    HW219704   1.263   3.474  13.867
39289SOL     OW19705  12.115   7.824   0.168
39289SOL    HW119706  12.096   7.878   0.245
39289SOL    HW219707  12.209   7.831   0.156
39290SOL     OW19708   9.293   5.247  10.764
39290SOL    HW119709   9.368   5.231  10.821
39290SOL    HW219710   9.324   5.226  10.677
39291SOL     OW19711   2.276   7.648   7.097
39291SOL    HW119712   2.223   7.720   7.132
39291SOL    HW219713   2.311   7.604   7.174
39292SOL     OW19714  14.772   6.367  11.156
39292SOL    HW119715  14.710   6.440  11.155
39292SOL    HW219716  14.838   6.394  11.220
39293SOL     OW19717   1.291   3.884   0.794
39293SOL    HW119718   1.203   3.868   0.758
39293SOL    HW219719   1.346   3.817   0.754
39294SOL     OW19720   9.743   1.920   3.045
39294SOL    HW119721   9.823   1.882   3.081
39294SOL    HW219722   9.698   1.847   3.003
39295SOL     OW19723   6.946   9.167   7.395
39295SOL    HW119724   6.926   9.085   7.441
39295SOL    HW219725   7.002   9.140   7.322
39296SOL     OW19726   4.188   3.992   6.003
39296SOL    HW119727   4.110   4.000   6.057
39296SOL    HW219728   4.155   3.988   5.913
39297SOL     OW19729  12.580   3.376   1.802
39297SOL    HW119730  12.637   3.300   1.798
39297SOL    HW219731  12.607   3.423   1.882
39298SOL     OW19732   6.124  11.371   2.894
39298SOL    HW119733   6.149  11.353   2.984
39298SOL    HW219734   6.090  11.460   2.895
39299SOL     OW19735  14.142   4.013   6.627
39299SOL    HW119736  14.209   3.997   6.561
39299SOL    HW219737  14.061   3.980   6.589
39300SOL     OW19738   7.298   2.056   8.758
39300SOL    HW119739   7.380   2.022   8.793
39300SOL    HW219740   7.323   2.102   8.677
39301SOL     OW19741   8.568   1.264   2.373
39301SOL    HW119742   8.576   1.357   2.394
39301SOL    HW219743   8.497   1.232   2.428
39302SOL     OW19744  13.131   8.558   7.936
39302SOL    HW119745  13.111   8.616   8.009
39302SOL    HW219746  13.134   8.470   7.974
39303SOL     OW19747  14.464   9.447   9.261
39303SOL    HW119748  14.470   9.419   9.352
39303SOL    HW219749  14.549   9.487   9.242
39304SOL     OW19750   9.270   7.036  11.218
39304SOL    HW119751   9.229   6.958  11.179
39304SOL    HW219752   9.359   7.008  11.239
39305SOL     OW19753   7.255   0.467   5.370
39305SOL    HW119754   7.281   0.452   5.279
39305SOL    HW219755   7.221   0.383   5.400
39306SOL     OW19756   3.177   0.842   1.466
39306SOL    HW119757   3.251   0.896   1.493
39306SOL    HW219758   3.204   0.804   1.382
39307SOL     OW19759  12.025  10.857  14.603
39307SOL    HW119760  11.965  10.868  14.529
39307SOL    HW219761  12.034  10.762  14.614
39308SOL     OW19762  13.491  13.207   5.233
39308SOL    HW119763  13.456  13.143   5.296
39308SOL    HW219764  13.555  13.158   5.182
39309SOL     OW19765  14.462   3.917   3.265
39309SOL    HW119766  14.473   3.822   3.265
39309SOL    HW219767  14.420   3.936   3.181
39310SOL     OW19768  11.682  11.698   0.150
39310SOL    HW119769  11.718  11.787   0.148
39310SOL    HW219770  11.613  11.699   0.083
39311SOL     OW19771   5.819  12.035  12.382
39311SOL    HW119772   5.881  12.093  12.339
39311SOL    HW219773   5.733  12.071  12.361
39312SOL     OW19774  10.505   6.556   2.725
39312SOL    HW119775  10.552   6.550   2.642
39312SOL    HW219776  10.480   6.648   2.733
39313SOL     OW19777   4.181   8.577   1.079
39313SOL    HW119778   4.253   8.525   1.114
39313SOL    HW219779   4.158   8.535   0.997
39314SOL     OW19780   3.610  14.330   8.336
39314SOL    HW119781   3.583  14.334   8.428
39314SOL    HW219782   3.595  14.238   8.311
39315SOL     OW19783   2.651   6.816  12.782
39315SOL    HW119784   2.575   6.760  12.794
39315SOL    HW219785   2.618   6.905  12.799
39316SOL     OW19786   4.051   7.932   7.217
39316SOL    HW119787   3.977   7.989   7.238
39316SOL    HW219788   4.013   7.861   7.165
39317SOL     OW19789  12.996  12.656   1.962
39317SOL    HW119790  12.905  12.679   1.941
39317SOL    HW219791  13.044  12.738   1.953
39318SOL     OW19792   0.805  14.517  12.581
39318SOL    HW119793   0.874  14.478  12.527
39318SOL    HW219794   0.741  14.550  12.518
39319SOL     OW19795   2.413   1.057   0.357
39319SOL    HW119796   2.427   1.069   0.451
39319SOL    HW219797   2.453   0.973   0.337
39320SOL     OW19798  10.776  11.706   7.725
39320SOL    HW119799  10.797  11.653   7.648
39320SOL    HW219800  10.839  11.679   7.791
39321SOL     OW19801   7.185  13.799   6.754
39321SOL    HW119802   7.258  13.739   6.774
39321SOL    HW219803   7.188  13.809   6.659
39322SOL     OW19804   0.756  12.609   7.629
39322SOL    HW119805   0.778  12.672   7.698
39322SOL    HW219806   0.695  12.548   7.671
39323SOL     OW19807   4.120   7.047   7.829
39323SOL    HW119808   4.129   7.058   7.734
39323SOL    HW219809   4.178   6.973   7.849
39324SOL     OW19810   5.009   9.031   7.886
39324SOL    HW119811   5.021   8.936   7.880
39324SOL    HW219812   5.092   9.064   7.919
39325SOL     OW19813   3.766   6.116   3.833
39325SOL    HW119814   3.777   6.176   3.759
39325SOL    HW219815   3.707   6.048   3.801
39326SOL     OW19816  12.593   6.367   0.954
39326SOL    HW119817  12.607   6.321   1.037
39326SOL    HW219818  12.584   6.298   0.889
39327SOL     OW19819   5.029   2.104  13.285
39327SOL    HW119820   4.991   2.189  13.264
39327SOL    HW219821   4.959   2.042  13.268
39328SOL     OW19822  13.742   1.496  10.352
39328SOL    HW119823  13.718   1.425  10.412
39328SOL    HW219824  13.809   1.457  10.295
39329SOL     OW19825   7.662   0.052  14.134
39329SOL    HW119826   7.608   0.032  14.058
39329SOL    HW219827   7.749   0.070  14.098
39330SOL     OW19828   0.605   9.463  10.516
39330SOL    HW119829   0.631   9.555  10.522
39330SOL    HW219830   0.598   9.446  10.422
39331SOL     OW19831  13.670   9.163  13.380
39331SOL    HW119832  13.605   9.209  13.326
39331SOL    HW219833  13.621   9.091  13.420
39332SOL     OW19834   1.422   4.943  14.776
39332SOL    HW119835   1.473   4.974  14.851
39332SOL    HW219836   1.433   4.848  14.776
39333SOL     OW19837   3.354   5.252  10.003
39333SOL    HW119838   3.401   5.180   9.961
39333SOL    HW219839   3.334   5.313   9.932
39334SOL     OW19840   3.595   7.354  14.191
39334SOL    HW119841   3.605   7.282  14.128
39334SOL    HW219842   3.520   7.328  14.245
39335SOL     OW19843   5.796   1.293   9.624
39335SOL    HW119844   5.809   1.357   9.694
39335SOL    HW219845   5.795   1.345   9.544
39336SOL     OW19846  12.894  10.308  14.129
39336SOL    HW119847  12.879  10.354  14.046
39336SOL    HW219848  12.834  10.234  14.126
39337SOL     OW19849   8.426   9.873   3.659
39337SOL    HW119850   8.521   9.865   3.649
39337SOL    HW219851   8.393   9.784   3.646
39338SOL     OW19852   8.285   0.203   8.188
39338SOL    HW119853   8.298   0.173   8.278
39338SOL    HW219854   8.195   0.180   8.168
39339SOL     OW19855   8.413   2.426   8.508
39339SOL    HW119856   8.322   2.443   8.483
39339SOL    HW219857   8.426   2.476   8.589
39340SOL     OW19858   7.766  11.619   0.551
39340SOL    HW119859   7.688  11.619   0.496
39340SOL    HW219860   7.805  11.532   0.537
39341SOL     OW19861  14.869   0.434   4.756
39341SOL    HW119862  14.870   0.476   4.842
39341SOL    HW219863  14.782   0.453   4.721
39342SOL     OW19864  13.853   7.216   9.070
39342SOL    HW119865  13.921   7.262   9.021
39342SOL    HW219866  13.813   7.285   9.124
39343SOL     OW19867  14.708   8.393  13.043
39343SOL    HW119868  14.705   8.306  13.003
39343SOL    HW219869  14.776   8.439  12.994
39344SOL     OW19870   3.287  14.600   7.722
39344SOL    HW119871   3.363  14.641   7.764
39344SOL    HW219872   3.300  14.615   7.629
39345SOL     OW19873  10.369   0.032   6.977
39345SOL    HW119874  10.429   0.066   7.044
39345SOL    HW219875  10.425  14.867   6.910
39346SOL     OW19876   9.030   0.656   0.772
39346SOL    HW119877   8.942   0.688   0.790
39346SOL    HW219878   9.087   0.712   0.825
39347SOL     OW19879   3.966   8.707   1.239
39347SOL    HW119880   3.986   8.800   1.235
39347SOL    HW219881   4.039   8.665   1.193
39348SOL     OW19882   1.463  13.520  11.510
39348SOL    HW119883   1.476  13.612  11.534
39348SOL    HW219884   1.522  13.506  11.436
39349SOL     OW19885  14.379  10.062  10.594
39349SOL    HW119886  14.378   9.966  10.594
39349SOL    HW219887  14.319  10.087  10.524
39350SOL     OW19888   9.416  14.760   2.436
39350SOL    HW119889   9.486  14.824   2.440
39350SOL    HW219890   9.458  14.676   2.457
39351SOL     OW19891   4.443   0.496   2.976
39351SOL    HW119892   4.483   0.521   2.893
39351SOL    HW219893   4.437   0.577   3.026
39352SOL     OW19894   6.466   0.361   9.877
39352SOL    HW119895   6.446   0.282   9.927
39352SOL    HW219896   6.392   0.419   9.894
39353SOL     OW19897   1.824   6.025  10.446
39353SOL    HW119898   1.737   6.047  10.479
39353SOL    HW219899   1.871   5.992  10.522
39354SOL     OW19900   8.951   5.865   8.543
39354SOL    HW119901   8.903   5.941   8.510
39354SOL    HW219902   8.890   5.791   8.532
39355SOL     OW19903   8.592  14.766   1.497
39355SOL    HW119904   8.626  14.680   1.472
39355SOL    HW219905   8.499  14.761   1.479
39356SOL     OW19906   3.772   3.875   7.544
39356SOL    HW119907   3.713   3.808   7.579
39356SOL    HW219908   3.784   3.850   7.452
39357SOL     OW19909  14.206   9.350   2.988
39357SOL    HW119910  14.153   9.418   2.947
39357SOL    HW219911  14.294   9.365   2.955
39358SOL     OW19912   5.043  12.819   7.722
39358SOL    HW119913   4.962  12.850   7.762
39358SOL    HW219914   5.072  12.748   7.779
39359SOL     OW19915   1.884   7.250   6.676
39359SOL    HW119916   1.910   7.296   6.596
39359SOL    HW219917   1.815   7.190   6.648
39360SOL     OW19918   0.120   6.226   7.601
39360SOL    HW119919   0.128   6.271   7.517
39360SOL    HW219920   0.086   6.292   7.661
39361SOL     OW19921   1.434  12.227   7.522
39361SOL    HW119922   1.394  12.188   7.600
39361SOL    HW219923   1.527  12.206   7.530
39362SOL     OW19924  10.077   5.028   4.461
39362SOL    HW119925  10.027   5.080   4.398
39362SOL    HW219926  10.163   5.068   4.463
39363SOL     OW19927  13.554  10.443   3.350
39363SOL    HW119928  13.501  10.450   3.429
39363SOL    HW219929  13.533  10.523   3.300
39364SOL     OW19930   6.317   9.248   1.625
39364SOL    HW119931   6.259   9.275   1.553
39364SOL    HW219932   6.286   9.161   1.650
39365SOL     OW19933   5.937   0.906   9.959
39365SOL    HW119934   5.853   0.895  10.005
39365SOL    HW219935   5.993   0.952  10.021
39366SOL     OW19936   4.668   1.829  14.814
39366SOL    HW119937   4.747   1.882  14.806
39366SOL    HW219938   4.655   1.820   0.035
39367SOL     OW19939   2.719   5.299  13.530
39367SOL    HW119940   2.779   5.322  13.601
39367SOL    HW219941   2.774   5.253  13.466
39368SOL     OW19942  14.645   2.894   4.799
39368SOL    HW119943  14.732   2.895   4.838
39368SOL    HW219944  14.619   2.802   4.800
39369SOL     OW19945   2.297   6.547  11.654
39369SOL    HW119946   2.369   6.601  11.623
39369SOL    HW219947   2.337   6.488  11.719
39370SOL     OW19948   6.942  10.749  13.611
39370SOL    HW119949   6.915  10.740  13.703
39370SOL    HW219950   7.037  10.741  13.614
39371SOL     OW19951  13.402   9.676  12.592
39371SOL    HW119952  13.326   9.679  12.650
39371SOL    HW219953  13.462   9.742  12.627
39372SOL     OW19954  11.317   5.759  11.878
39372SOL    HW119955  11.411   5.758  11.899
39372SOL    HW219956  11.279   5.822  11.939
39373SOL     OW19957   3.480  11.778   4.468
39373SOL    HW119958   3.482  11.766   4.373
39373SOL    HW219959   3.394  11.818   4.485
39374SOL     OW19960   4.458  10.873  14.075
39374SOL    HW119961   4.537  10.821  14.064
39374SOL    HW219962   4.432  10.896  13.986
39375SOL     OW19963  13.924   0.189   8.218
39375SOL    HW119964  13.884   0.110   8.183
39375SOL    HW219965  13.920   0.252   8.145
39376SOL     OW19966   6.321   6.920  12.606
39376SOL    HW119967   6.264   6.993  12.631
39376SOL    HW219968   6.271   6.871  12.542
39377SOL     OW19969  11.320   3.955   1.506
39377SOL    HW119970  11.291   3.892   1.572
39377SOL    HW219971  11.253   3.951   1.438
39378SOL     OW19972   3.722   2.713  10.384
39378SOL    HW119973   3.766   2.698  10.300
39378SOL    HW219974   3.746   2.637  10.438
39379SOL     OW19975   1.602   9.426   8.056
39379SOL    HW119976   1.653   9.353   8.091
39379SOL    HW219977   1.656   9.461   7.985
39380SOL     OW19978   8.720   0.193   9.918
39380SOL    HW119979   8.738   0.274   9.965
39380SOL    HW219980   8.794   0.182   9.858
39381SOL     OW19981  13.830   2.715   6.556
39381SOL    HW119982  13.767   2.782   6.529
39381SOL    HW219983  13.776   2.641   6.583
39382SOL     OW19984  13.541   9.450  12.579
39382SOL    HW119985  13.481   9.523  12.596
39382SOL    HW219986  13.596   9.445  12.657
39383SOL     OW19987  14.170   8.233   2.020
39383SOL    HW119988  14.131   8.321   2.023
39383SOL    HW219989  14.235   8.238   1.950
39384SOL     OW19990   5.627   4.555   5.849
39384SOL    HW119991   5.587   4.547   5.763
39384SOL    HW219992   5.698   4.619   5.837
39385SOL     OW19993   3.205   2.662   1.318
39385SOL    HW119994   3.258   2.600   1.369
39385SOL    HW219995   3.269   2.705   1.261
39386SOL     OW19996   6.720  12.683   6.483
39386SOL    HW119997   6.663  12.693   6.407
39386SOL    HW219998   6.799  12.642   6.449
39387SOL     OW19999  13.423   9.029  10.968
39387SOL    HW120000  13.396   9.063  11.054
39387SOL    HW220001  13.344   9.034  10.915
39388SOL     OW20002  13.450   1.173  14.581
39388SOL    HW120003  13.397   1.153  14.504
39388SOL    HW220004  13.508   1.098  14.591
39389SOL     OW20005  10.369   6.021  14.330
39389SOL    HW120006  10.394   5.930  14.314
39389SOL    HW220007  10.317   6.045  14.253
39390SOL     OW20008   2.804   6.039  10.340
39390SOL    HW120009   2.727   6.096  10.335
39390SOL    HW220010   2.794   5.980  10.265
39391SOL     OW20011  12.737  13.183   5.935
39391SOL    HW120012  12.781  13.150   6.013
39391SOL    HW220013  12.646  13.195   5.963
39392SOL     OW20014   5.448   8.356  12.238
39392SOL    HW120015   5.416   8.266  12.239
39392SOL    HW220016   5.373   8.409  12.265
39393SOL     OW20017   5.162  13.235  14.824
39393SOL    HW120018   5.190  13.294   0.020
39393SOL    HW220019   5.067  13.226  14.836
39394SOL     OW20020   3.834  10.894  11.620
39394SOL    HW120021   3.867  10.876  11.709
39394SOL    HW220022   3.811  10.986  11.621
39395SOL     OW20023  12.405  11.549   6.747
39395SOL    HW120024  12.424  11.569   6.839
39395SOL    HW220025  12.320  11.505   6.749
39396SOL     OW20026   5.527   9.389  11.264
39396SOL    HW120027   5.583   9.321  11.302
39396SOL    HW220028   5.440   9.368  11.298
39397SOL     OW20029  10.180  10.077  11.432
39397SOL    HW120030  10.176  10.122  11.348
39397SOL    HW220031  10.184   9.984  11.409
39398SOL     OW20032   3.918  13.222  12.975
39398SOL    HW120033   3.858  13.269  13.032
39398SOL    HW220034   3.954  13.288  12.917
39399SOL     OW20035   0.729  12.812  13.096
39399SOL    HW120036   0.752  12.825  13.004
39399SOL    HW220037   0.698  12.897  13.125
39400SOL     OW20038  13.235   7.905   2.596
39400SOL    HW120039  13.280   7.845   2.535
39400SOL    HW220040  13.142   7.883   2.586
39401SOL     OW20041   0.988   8.477   8.380
39401SOL    HW120042   0.955   8.489   8.291
39401SOL    HW220043   1.065   8.534   8.384
39402SOL     OW20044   1.834   3.028   1.022
39402SOL    HW120045   1.908   2.970   1.007
39402SOL    HW220046   1.839   3.093   0.952
39403SOL     OW20047  11.211   2.271   8.414
39403SOL    HW120048  11.125   2.239   8.440
39403SOL    HW220049  11.195   2.312   8.329
39404SOL     OW20050   6.768   7.748  13.427
39404SOL    HW120051   6.786   7.665  13.383
39404SOL    HW220052   6.709   7.794  13.368
39405SOL     OW20053   7.610   0.196   8.557
39405SOL    HW120054   7.612   0.229   8.646
39405SOL    HW220055   7.652   0.265   8.505
39406SOL     OW20056   5.459   7.863  14.265
39406SOL    HW120057   5.537   7.818  14.234
39406SOL    HW220058   5.400   7.864  14.189
39407SOL     OW20059   5.818   8.142   1.908
39407SOL    HW120060   5.886   8.143   1.975
39407SOL    HW220061   5.784   8.231   1.906
39408SOL     OW20062   4.971   1.832   9.940
39408SOL    HW120063   5.041   1.859  10.000
39408SOL    HW220064   4.936   1.752   9.978
39409SOL     OW20065   3.387  11.654   7.851
39409SOL    HW120066   3.449  11.717   7.813
39409SOL    HW220067   3.318  11.646   7.785
39410SOL     OW20068   6.853   7.139  13.640
39410SOL    HW120069   6.823   7.077  13.573
39410SOL    HW220070   6.943   7.113  13.659
39411SOL     OW20071  14.218   8.469   6.473
39411SOL    HW120072  14.291   8.436   6.525
39411SOL    HW220073  14.224   8.422   6.390
39412SOL     OW20074   9.608   6.894   3.889
39412SOL    HW120075   9.562   6.905   3.805
39412SOL    HW220076   9.597   6.977   3.934
39413SOL     OW20077   6.898  14.735  12.376
39413SOL    HW120078   6.854  14.774  12.452
39413SOL    HW220079   6.888  14.799  12.306
39414SOL     OW20080   2.273  14.037  11.060
39414SOL    HW120081   2.345  13.999  11.009
39414SOL    HW220082   2.305  14.124  11.084
39415SOL     OW20083   4.007   4.614   7.097
39415SOL    HW120084   3.989   4.573   7.013
39415SOL    HW220085   4.094   4.654   7.086
39416SOL     OW20086  13.869   5.448  12.266
39416SOL    HW120087  13.802   5.504  12.304
39416SOL    HW220088  13.823   5.368  12.241
39417SOL     OW20089   4.929   4.803   1.550
39417SOL    HW120090   4.890   4.768   1.469
39417SOL    HW220091   4.889   4.751   1.620
39418SOL     OW20092   4.672  14.724  13.771
39418SOL    HW120093   4.588  14.685  13.750
39418SOL    HW220094   4.737  14.660  13.742
39419SOL     OW20095   7.789  10.579  14.333
39419SOL    HW120096   7.710  10.555  14.285
39419SOL    HW220097   7.845  10.502  14.327
39420SOL     OW20098   7.891   2.407   2.533
39420SOL    HW120099   7.980   2.437   2.513
39420SOL    HW220100   7.895   2.381   2.625
39421SOL     OW20101   7.620  12.299   5.545
39421SOL    HW120102   7.565  12.328   5.471
39421SOL    HW220103   7.559  12.288   5.617
39422SOL     OW20104   6.542   0.706   5.597
39422SOL    HW120105   6.472   0.732   5.536
39422SOL    HW220106   6.496   0.667   5.671
39423SOL     OW20107   0.320   0.532   8.817
39423SOL    HW120108   0.324   0.485   8.735
39423SOL    HW220109   0.323   0.624   8.792
39424SOL     OW20110   2.547  14.040   9.355
39424SOL    HW120111   2.510  14.060   9.441
39424SOL    HW220112   2.623  13.986   9.374
39425SOL     OW20113   2.176   8.043  10.457
39425SOL    HW120114   2.165   7.958  10.499
39425SOL    HW220115   2.261   8.074  10.487
39426SOL     OW20116  13.105   5.910   1.194
39426SOL    HW120117  13.185   5.962   1.192
39426SOL    HW220118  13.135   5.819   1.198
39427SOL     OW20119   5.440  10.159   5.481
39427SOL    HW120120   5.520  10.111   5.503
39427SOL    HW220121   5.463  10.251   5.494
39428SOL     OW20122   5.290   6.831  14.714
39428SOL    HW120123   5.276   6.783  14.633
39428SOL    HW220124   5.243   6.913  14.702
39429SOL     OW20125   6.538   4.039   7.493
39429SOL    HW120126   6.510   3.958   7.451
39429SOL    HW220127   6.579   4.011   7.574
39430SOL     OW20128  12.225   9.614  14.732
39430SOL    HW120129  12.262   9.694  14.693
39430SOL    HW220130  12.282   9.596  14.807
39431SOL     OW20131  14.614  10.412   5.952
39431SOL    HW120132  14.569  10.419   5.867
39431SOL    HW220133  14.564  10.469   6.010
39432SOL     OW20134   3.792   2.932   6.282
39432SOL    HW120135   3.749   2.847   6.288
39432SOL    HW220136   3.860   2.929   6.350
39433SOL     OW20137   2.480   0.091   8.962
39433SOL    HW120138   2.516   0.171   8.923
39433SOL    HW220139   2.551   0.027   8.956
39434SOL     OW20140  14.049   1.994   7.902
39434SOL    HW120141  14.006   1.985   7.987
39434SOL    HW220142  14.032   1.912   7.857
39435SOL     OW20143   1.641   9.187   3.107
39435SOL    HW120144   1.579   9.214   3.176
39435SOL    HW220145   1.607   9.103   3.077
39436SOL     OW20146   4.484  13.295   0.106
39436SOL    HW120147   4.567  13.263   0.072
39436SOL    HW220148   4.496  13.389   0.115
39437SOL     OW20149   1.062  12.075   3.702
39437SOL    HW120150   1.046  11.991   3.744
39437SOL    HW220151   1.158  12.082   3.698
39438SOL     OW20152   0.667   6.465  14.663
39438SOL    HW120153   0.633   6.549  14.692
39438SOL    HW220154   0.594   6.404  14.671
39439SOL     OW20155  14.116  12.373   6.568
39439SOL    HW120156  14.090  12.287   6.536
39439SOL    HW220157  14.047  12.432   6.537
39440SOL     OW20158   6.551  10.794   1.744
39440SOL    HW120159   6.465  10.813   1.707
39440SOL    HW220160   6.607  10.778   1.669
39441SOL     OW20161   1.965  12.163   4.133
39441SOL    HW120162   1.904  12.218   4.182
39441SOL    HW220163   1.996  12.099   4.197
39442SOL     OW20164  14.421  11.483   3.180
39442SOL    HW120165  14.404  11.389   3.170
39442SOL    HW220166  14.423  11.497   3.275
39443SOL     OW20167  14.708   5.009  12.272
39443SOL    HW120168  14.726   5.099  12.302
39443SOL    HW220169  14.618   5.012  12.238
39444SOL     OW20170   2.919   5.884  14.036
39444SOL    HW120171   2.985   5.953  14.030
39444SOL    HW220172   2.919   5.843  13.950
39445SOL     OW20173   3.207  11.458   3.634
39445SOL    HW120174   3.143  11.512   3.681
39445SOL    HW220175   3.156  11.386   3.598
39446SOL     OW20176   0.444  11.879  10.013
39446SOL    HW120177   0.349  11.871  10.014
39446SOL    HW220178   0.473  11.811   9.953
39447SOL     OW20179   9.014  12.261   0.512
39447SOL    HW120180   9.083  12.302   0.565
39447SOL    HW220181   9.040  12.169   0.506
39448SOL     OW20182   6.893  12.298   1.422
39448SOL    HW120183   6.927  12.388   1.426
39448SOL    HW220184   6.946  12.249   1.485
39449SOL     OW20185   6.549   8.685   1.433
39449SOL    HW120186   6.502   8.663   1.353
39449SOL    HW220187   6.518   8.773   1.456
39450SOL     OW20188   1.380   4.331  13.436
39450SOL    HW120189   1.313   4.399  13.423
39450SOL    HW220190   1.333   4.258  13.476
39451SOL     OW20191   8.758  13.524  10.405
39451SOL    HW120192   8.721  13.486  10.325
39451SOL    HW220193   8.689  13.512  10.471
39452SOL     OW20194   6.167   8.635   0.639
39452SOL    HW120195   6.135   8.567   0.699
39452SOL    HW220196   6.100   8.640   0.571
39453SOL     OW20197   2.792  13.582   8.929
39453SOL    HW120198   2.717  13.594   8.871
39453SOL    HW220199   2.863  13.629   8.885
39454SOL     OW20200  14.291   6.462   1.081
39454SOL    HW120201  14.251   6.446   0.995
39454SOL    HW220202  14.227   6.430   1.144
39455SOL     OW20203   7.989   8.455   0.488
39455SOL    HW120204   7.987   8.465   0.584
39455SOL    HW220205   7.926   8.520   0.456
39456SOL     OW20206   9.173   4.514   0.313
39456SOL    HW120207   9.238   4.447   0.335
39456SOL    HW220208   9.173   4.517   0.217
39457SOL     OW20209   7.564   9.373   7.631
39457SOL    HW120210   7.521   9.289   7.646
39457SOL    HW220211   7.638   9.352   7.574
39458SOL     OW20212   7.827   9.909   3.687
39458SOL    HW120213   7.739   9.892   3.719
39458SOL    HW220214   7.817   9.986   3.631
39459SOL     OW20215   2.657   0.870   0.525
39459SOL    HW120216   2.731   0.881   0.584
39459SOL    HW220217   2.605   0.800   0.564
39460SOL     OW20218   1.851  12.571   1.675
39460SOL    HW120219   1.775  12.580   1.733
39460SOL    HW220220   1.906  12.505   1.718
39461SOL     OW20221   0.677   7.678  11.181
39461SOL    HW120222   0.747   7.620  11.210
39461SOL    HW220223   0.679   7.673  11.085
39462SOL     OW20224   8.123   0.347   5.451
39462SOL    HW120225   8.104   0.289   5.525
39462SOL    HW220226   8.037   0.380   5.424
39463SOL     OW20227  10.745   6.940   1.221
39463SOL    HW120228  10.674   6.902   1.169
39463SOL    HW220229  10.824   6.898   1.186
39464SOL     OW20230  10.091  11.777   4.537
39464SOL    HW120231  10.005  11.801   4.501
39464SOL    HW220232  10.080  11.783   4.632
39465SOL     OW20233   6.977   6.529   5.091
39465SOL    HW120234   6.934   6.534   5.006
39465SOL    HW220235   6.911   6.492   5.150
39466SOL     OW20236   8.841   1.985  14.485
39466SOL    HW120237   8.800   1.907  14.449
39466SOL    HW220238   8.897   1.952  14.556
39467SOL     OW20239  10.631   0.705   4.004
39467SOL    HW120240  10.539   0.696   3.980
39467SOL    HW220241  10.630   0.710   4.100
39468SOL     OW20242  13.716   5.673  14.388
39468SOL    HW120243  13.688   5.752  14.342
39468SOL    HW220244  13.644   5.611  14.376
39469SOL     OW20245   0.183   4.649  13.909
39469SOL    HW120246   0.202   4.665  14.002
39469SOL    HW220247   0.099   4.604  13.909
39470SOL     OW20248   9.010   5.906   7.225
39470SOL    HW120249   9.015   5.853   7.145
39470SOL    HW220250   9.055   5.988   7.202
39471SOL     OW20251   3.555  14.216   1.277
39471SOL    HW120252   3.639  14.170   1.269
39471SOL    HW220253   3.556  14.254   1.365
39472SOL     OW20254   0.730   5.968   8.885
39472SOL    HW120255   0.745   6.057   8.918
39472SOL    HW220256   0.636   5.963   8.873
39473SOL     OW20257   3.771  14.605   2.904
39473SOL    HW120258   3.684  14.617   2.942
39473SOL    HW220259   3.799  14.693   2.879
39474SOL     OW20260   6.594   7.099  14.453
39474SOL    HW120261   6.584   7.193  14.438
39474SOL    HW220262   6.674   7.075  14.406
39475SOL     OW20263   1.419  12.715   5.953
39475SOL    HW120264   1.406  12.630   5.911
39475SOL    HW220265   1.473  12.696   6.029
39476SOL     OW20266   6.871  11.400   9.098
39476SOL    HW120267   6.931  11.433   9.031
39476SOL    HW220268   6.807  11.347   9.050
39477SOL     OW20269   3.254   7.019   5.579
39477SOL    HW120270   3.197   7.023   5.502
39477SOL    HW220271   3.203   6.969   5.643
39478SOL     OW20272   5.326  14.619   9.413
39478SOL    HW120273   5.299  14.528   9.404
39478SOL    HW220274   5.341  14.630   9.507
39479SOL     OW20275   8.012   7.552   6.386
39479SOL    HW120276   8.004   7.597   6.470
39479SOL    HW220277   7.929   7.566   6.342
39480SOL     OW20278   0.378   0.746   7.645
39480SOL    HW120279   0.287   0.717   7.642
39480SOL    HW220280   0.393   0.788   7.560
39481SOL     OW20281   5.090   6.349   0.777
39481SOL    HW120282   5.147   6.416   0.740
39481SOL    HW220283   5.144   6.306   0.844
39482SOL     OW20284  10.236   6.832   4.083
39482SOL    HW120285  10.151   6.825   4.126
39482SOL    HW220286  10.281   6.903   4.130
39483SOL     OW20287   2.391  12.302  13.222
39483SOL    HW120288   2.370  12.393  13.199
39483SOL    HW220289   2.458  12.309  13.289
39484SOL     OW20290   0.084   1.369   2.701
39484SOL    HW120291   0.009   1.320   2.667
39484SOL    HW220292   0.147   1.301   2.726
39485SOL     OW20293   9.214   6.539   6.847
39485SOL    HW120294   9.283   6.472   6.859
39485SOL    HW220295   9.226   6.598   6.921
39486SOL     OW20296  10.261   0.899  10.689
39486SOL    HW120297  10.274   0.993  10.697
39486SOL    HW220298  10.251   0.868  10.779
39487SOL     OW20299   5.468   5.312   3.460
39487SOL    HW120300   5.506   5.391   3.498
39487SOL    HW220301   5.477   5.246   3.529
39488SOL     OW20302   2.467  14.842   5.196
39488SOL    HW120303   2.432  14.753   5.203
39488SOL    HW220304   2.492  14.866   5.285
39489SOL     OW20305  14.417  11.945   6.363
39489SOL    HW120306  14.434  11.923   6.455
39489SOL    HW220307  14.448  11.869   6.314
39490SOL     OW20308   9.811  11.348   5.264
39490SOL    HW120309   9.779  11.371   5.351
39490SOL    HW220310   9.896  11.307   5.281
39491SOL     OW20311   0.228   3.565  11.556
39491SOL    HW120312   0.216   3.474  11.581
39491SOL    HW220313   0.153   3.611  11.595
39492SOL     OW20314  13.134  14.423   4.061
39492SOL    HW120315  13.173  14.366   4.127
39492SOL    HW220316  13.209  14.466   4.019
39493SOL     OW20317   9.926  14.511  11.755
39493SOL    HW120318  10.017  14.488  11.771
39493SOL    HW220319   9.891  14.531  11.842
39494SOL     OW20320  11.490  13.608   1.591
39494SOL    HW120321  11.551  13.544   1.628
39494SOL    HW220322  11.422  13.555   1.551
39495SOL     OW20323  12.477  14.642   6.531
39495SOL    HW120324  12.532  14.569   6.503
39495SOL    HW220325  12.409  14.601   6.584
39496SOL     OW20326  10.426   0.608  14.551
39496SOL    HW120327  10.517   0.629  14.573
39496SOL    HW220328  10.387   0.580  14.633
39497SOL     OW20329  13.056   8.581   4.405
39497SOL    HW120330  12.979   8.530   4.382
39497SOL    HW220331  13.116   8.518   4.445
39498SOL     OW20332   6.961  14.805  13.730
39498SOL    HW120333   6.901  14.766  13.794
39498SOL    HW220334   6.993  14.731  13.679
39499SOL     OW20335  13.945   5.999   1.453
39499SOL    HW120336  13.951   5.934   1.382
39499SOL    HW220337  13.872   6.055   1.428
39500SOL     OW20338  10.873   2.154   1.577
39500SOL    HW120339  10.941   2.183   1.516
39500SOL    HW220340  10.807   2.113   1.521
39501SOL     OW20341  14.461  10.241   0.639
39501SOL    HW120342  14.554  10.266   0.640
39501SOL    HW220343  14.454  10.177   0.710
39502SOL     OW20344   2.784   9.573   1.912
39502SOL    HW120345   2.710   9.624   1.878
39502SOL    HW220346   2.855   9.636   1.921
39503SOL     OW20347   0.834   7.038  10.924
39503SOL    HW120348   0.741   7.022  10.907
39503SOL    HW220349   0.851   7.123  10.882
39504SOL     OW20350   8.657   9.756  11.869
39504SOL    HW120351   8.697   9.758  11.956
39504SOL    HW220352   8.698   9.681  11.825
39505SOL     OW20353   2.989   8.122   4.861
39505SOL    HW120354   3.068   8.175   4.850
39505SOL    HW220355   2.917   8.185   4.860
39506SOL     OW20356   1.018   5.042   1.693
39506SOL    HW120357   1.063   5.059   1.611
39506SOL    HW220358   1.073   4.978   1.738
39507SOL     OW20359  14.176   5.063   0.107
39507SOL    HW120360  14.147   5.149   0.138
39507SOL    HW220361  14.101   5.006   0.120
39508SOL     OW20362  10.128   8.090   0.820
39508SOL    HW120363  10.157   8.013   0.771
39508SOL    HW220364  10.038   8.104   0.790
39509SOL     OW20365  11.783  14.045   9.187
39509SOL    HW120366  11.724  13.998   9.247
39509SOL    HW220367  11.863  13.992   9.186
39510SOL     OW20368  11.552  10.402   1.346
39510SOL    HW120369  11.505  10.320   1.364
39510SOL    HW220370  11.494  10.471   1.379
39511SOL     OW20371   4.088   4.917   7.926
39511SOL    HW120372   4.094   4.883   7.836
39511SOL    HW220373   3.998   4.948   7.934
39512SOL     OW20374   8.403  14.564   9.917
39512SOL    HW120375   8.491  14.565   9.953
39512SOL    HW220376   8.388  14.653   9.886
39513SOL     OW20377   2.132   1.549   0.739
39513SOL    HW120378   2.111   1.464   0.701
39513SOL    HW220379   2.126   1.535   0.834
39514SOL     OW20380   4.929   3.572   3.620
39514SOL    HW120381   5.020   3.555   3.595
39514SOL    HW220382   4.930   3.572   3.716
39515SOL     OW20383   6.633   6.367   3.107
39515SOL    HW120384   6.597   6.435   3.163
39515SOL    HW220385   6.726   6.364   3.129
39516SOL     OW20386   9.963   4.753   1.143
39516SOL    HW120387   9.972   4.845   1.170
39516SOL    HW220388   9.912   4.713   1.214
39517SOL     OW20389   3.228   7.994   1.602
39517SOL    HW120390   3.237   8.083   1.636
39517SOL    HW220391   3.311   7.977   1.558
39518SOL     OW20392  12.723   5.861   6.666
39518SOL    HW120393  12.678   5.777   6.659
39518SOL    HW220394  12.708   5.904   6.582
39519SOL     OW20395   7.700   5.123  12.783
39519SOL    HW120396   7.714   5.110  12.876
39519SOL    HW220397   7.605   5.121  12.772
39520SOL     OW20398   7.754   2.916   1.786
39520SOL    HW120399   7.815   2.847   1.810
39520SOL    HW220400   7.774   2.936   1.695
39521SOL     OW20401   0.405  11.670   3.591
39521SOL    HW120402   0.401  11.757   3.551
39521SOL    HW220403   0.378  11.611   3.521
39522SOL     OW20404  12.006  12.774   0.862
39522SOL    HW120405  12.012  12.857   0.910
39522SOL    HW220406  12.082  12.775   0.804
39523SOL     OW20407   6.162   7.844   0.766
39523SOL    HW120408   6.101   7.807   0.703
39523SOL    HW220409   6.215   7.905   0.715
39524SOL     OW20410  12.438   3.031   3.240
39524SOL    HW120411  12.517   3.036   3.187
39524SOL    HW220412  12.460   2.971   3.311
39525SOL     OW20413  14.814   5.492  12.977
39525SOL    HW120414  14.828   5.422  12.913
39525SOL    HW220415  14.735   5.466  13.025
39526SOL     OW20416   3.171   5.593   3.528
39526SOL    HW120417   3.141   5.678   3.495
39526SOL    HW220418   3.112   5.574   3.602
39527SOL     OW20419  12.172  11.605   8.662
39527SOL    HW120420  12.252  11.657   8.660
39527SOL    HW220421  12.201  11.517   8.635
39528SOL     OW20422   2.526  10.182  13.514
39528SOL    HW120423   2.598  10.183  13.451
39528SOL    HW220424   2.528  10.269  13.555
39529SOL     OW20425  12.623  14.407  12.733
39529SOL    HW120426  12.600  14.359  12.813
39529SOL    HW220427  12.620  14.499  12.759
39530SOL     OW20428   0.579   1.447  13.832
39530SOL    HW120429   0.595   1.359  13.797
39530SOL    HW220430   0.498   1.476  13.790
39531SOL     OW20431  13.346   6.620   0.236
39531SOL    HW120432  13.257   6.593   0.258
39531SOL    HW220433  13.402   6.555   0.279
39532SOL     OW20434   8.561   9.597   0.753
39532SOL    HW120435   8.628   9.541   0.792
39532SOL    HW220436   8.575   9.683   0.795
39533SOL     OW20437  14.674  14.738   9.291
39533SOL    HW120438  14.738  14.683   9.245
39533SOL    HW220439  14.612  14.675   9.329
39534SOL     OW20440  11.318  14.387  12.476
39534SOL    HW120441  11.338  14.462  12.420
39534SOL    HW220442  11.404  14.348  12.494
39535SOL     OW20443  10.659   3.219  14.763
39535SOL    HW120444  10.572   3.224  14.725
39535SOL    HW220445  10.707   3.158  14.708
39536SOL     OW20446   1.218   9.501   8.802
39536SOL    HW120447   1.312   9.516   8.792
39536SOL    HW220448   1.211   9.451   8.884
39537SOL     OW20449   6.246  13.443  12.104
39537SOL    HW120450   6.226  13.445  12.197
39537SOL    HW220451   6.339  13.421  12.099
39538SOL     OW20452   7.362  13.319  12.549
39538SOL    HW120453   7.315  13.380  12.491
39538SOL    HW220454   7.351  13.356  12.637
39539SOL     OW20455   6.094   5.779   1.949
39539SOL    HW120456   6.171   5.739   1.991
39539SOL    HW220457   6.119   5.870   1.936
39540SOL     OW20458   6.916   2.482   6.042
39540SOL    HW120459   6.969   2.504   6.118
39540SOL    HW220460   6.856   2.556   6.032
39541SOL     OW20461   0.102  12.340   8.949
39541SOL    HW120462   0.079  12.275   8.883
39541SOL    HW220463   0.034  12.407   8.942
39542SOL     OW20464   6.869  13.825   1.392
39542SOL    HW120465   6.865  13.734   1.364
39542SOL    HW220466   6.907  13.872   1.318
39543SOL     OW20467   7.637   1.778   7.586
39543SOL    HW120468   7.573   1.848   7.596
39543SOL    HW220469   7.686   1.801   7.507
39544SOL     OW20470  13.860   3.639  13.730
39544SOL    HW120471  13.867   3.734  13.741
39544SOL    HW220472  13.831   3.607  13.816
39545SOL     OW20473  12.593  11.659   4.089
39545SOL    HW120474  12.571  11.746   4.056
39545SOL    HW220475  12.562  11.660   4.180
39546SOL     OW20476   0.352  13.895   4.157
39546SOL    HW120477   0.401  13.917   4.078
39546SOL    HW220478   0.266  13.867   4.125
39547SOL     OW20479   6.810  13.004   9.532
39547SOL    HW120480   6.778  13.013   9.622
39547SOL    HW220481   6.845  12.915   9.528
39548SOL     OW20482  10.706   4.336   0.736
39548SOL    HW120483  10.703   4.359   0.829
39548SOL    HW220484  10.715   4.240   0.735
39549SOL     OW20485   1.793  10.156   5.507
39549SOL    HW120486   1.720  10.134   5.566
39549SOL    HW220487   1.860  10.092   5.528
39550SOL     OW20488  14.826  10.060  14.785
39550SOL    HW120489  14.845  10.118  14.712
39550SOL    HW220490  14.807   9.975  14.744
39551SOL     OW20491   3.540  12.217   5.917
39551SOL    HW120492   3.632  12.207   5.942
39551SOL    HW220493   3.537  12.186   5.826
39552SOL     OW20494  12.551  11.763   6.252
39552SOL    HW120495  12.538  11.714   6.333
39552SOL    HW220496  12.531  11.699   6.183
39553SOL     OW20497   1.651  14.586   3.752
39553SOL    HW120498   1.567  14.629   3.737
39553SOL    HW220499   1.712  14.656   3.772
39554SOL     OW20500   2.511   8.186  11.495
39554SOL    HW120501   2.418   8.168  11.482
39554SOL    HW220502   2.555   8.109  11.460
39555SOL     OW20503   4.444   0.600   4.237
39555SOL    HW120504   4.420   0.518   4.281
39555SOL    HW220505   4.363   0.650   4.231
39556SOL     OW20506   7.465  12.368   2.700
39556SOL    HW120507   7.378  12.332   2.684
39556SOL    HW220508   7.449  12.457   2.732
39557SOL     OW20509   6.469  13.606   7.290
39557SOL    HW120510   6.491  13.580   7.201
39557SOL    HW220511   6.513  13.691   7.302
39558SOL     OW20512  12.003   6.300   0.390
39558SOL    HW120513  12.091   6.333   0.372
39558SOL    HW220514  11.981   6.247   0.314
39559SOL     OW20515   9.820   0.597  10.923
39559SOL    HW120516   9.745   0.630  10.874
39559SOL    HW220517   9.813   0.502  10.917
39560SOL     OW20518   2.796  10.621   8.053
39560SOL    HW120519   2.852  10.686   8.094
39560SOL    HW220520   2.749  10.670   7.985
39561SOL     OW20521  11.689   9.977   2.080
39561SOL    HW120522  11.623  10.001   2.145
39561SOL    HW220523  11.645   9.989   1.996
39562SOL     OW20524  11.341   4.270   5.938
39562SOL    HW120525  11.306   4.184   5.962
39562SOL    HW220526  11.343   4.319   6.020
39563SOL     OW20527   2.554   7.258   6.780
39563SOL    HW120528   2.478   7.257   6.839
39563SOL    HW220529   2.628   7.280   6.836
39564SOL     OW20530  11.853   1.194   3.762
39564SOL    HW120531  11.769   1.149   3.772
39564SOL    HW220532  11.829   1.287   3.751
39565SOL     OW20533   7.310   2.090   1.829
39565SOL    HW120534   7.360   2.109   1.908
39565SOL    HW220535   7.375   2.093   1.758
39566SOL     OW20536   6.753  12.400   7.183
39566SOL    HW120537   6.702  12.455   7.124
39566SOL    HW220538   6.689  12.368   7.247
39567SOL     OW20539  13.517  13.024   7.460
39567SOL    HW120540  13.440  12.979   7.494
39567SOL    HW220541  13.590  12.964   7.477
39568SOL     OW20542  13.987  11.637  12.301
39568SOL    HW120543  13.908  11.637  12.356
39568SOL    HW220544  13.958  11.604  12.216
39569SOL     OW20545   4.014   6.800   1.323
39569SOL    HW120546   4.075   6.729   1.303
39569SOL    HW220547   4.040   6.871   1.265
39570SOL     OW20548   0.542  13.927  12.731
39570SOL    HW120549   0.503  13.976  12.803
39570SOL    HW220550   0.536  13.835  12.758
39571SOL     OW20551   7.505  13.280   5.241
39571SOL    HW120552   7.416  13.247   5.228
39571SOL    HW220553   7.493  13.363   5.288
39572SOL     OW20554  11.384   3.395   6.850
39572SOL    HW120555  11.439   3.452   6.798
39572SOL    HW220556  11.392   3.309   6.809
39573SOL     OW20557  13.311  12.940   6.700
39573SOL    HW120558  13.259  12.860   6.689
39573SOL    HW220559  13.401  12.911   6.687
39574SOL     OW20560  13.386   3.814   0.957
39574SOL    HW120561  13.343   3.729   0.954
39574SOL    HW220562  13.453   3.805   1.025
39575SOL     OW20563   8.746   1.020   9.825
39575SOL    HW120564   8.657   1.025   9.790
39575SOL    HW220565   8.790   0.955   9.771
39576SOL     OW20566   3.832   0.217   0.886
39576SOL    HW120567   3.888   0.139   0.876
39576SOL    HW220568   3.885   0.288   0.851
39577SOL     OW20569   9.317  11.825   1.226
39577SOL    HW120570   9.252  11.844   1.295
39577SOL    HW220571   9.399  11.859   1.262
39578SOL     OW20572   0.173   1.908   4.237
39578SOL    HW120573   0.208   1.854   4.166
39578SOL    HW220574   0.154   1.992   4.195
39579SOL     OW20575   9.790  13.640   4.868
39579SOL    HW120576   9.822  13.715   4.818
39579SOL    HW220577   9.809  13.564   4.813
39580SOL     OW20578  12.523   9.288   8.720
39580SOL    HW120579  12.430   9.295   8.741
39580SOL    HW220580  12.530   9.323   8.632
39581SOL     OW20581  11.764   9.583   4.863
39581SOL    HW120582  11.833   9.519   4.841
39581SOL    HW220583  11.745   9.627   4.780
39582SOL     OW20584   2.846  13.659   6.267
39582SOL    HW120585   2.809  13.700   6.189
39582SOL    HW220586   2.834  13.565   6.253
39583SOL     OW20587   4.317   8.345  10.871
39583SOL    HW120588   4.411   8.327  10.877
39583SOL    HW220589   4.299   8.404  10.943
39584SOL     OW20590   5.887   7.785   4.115
39584SOL    HW120591   5.814   7.797   4.054
39584SOL    HW220592   5.962   7.827   4.072
39585SOL     OW20593   3.076   9.714   9.722
39585SOL    HW120594   3.066   9.703   9.817
39585SOL    HW220595   3.037   9.634   9.684
39586SOL     OW20596   0.321   9.839   6.948
39586SOL    HW120597   0.225   9.838   6.944
39586SOL    HW220598   0.348   9.785   6.873
39587SOL     OW20599   3.013   4.745   9.177
39587SOL    HW120600   2.983   4.768   9.265
39587SOL    HW220601   2.934   4.719   9.130
39588SOL     OW20602   7.221   1.283  11.859
39588SOL    HW120603   7.300   1.266  11.807
39588SOL    HW220604   7.150   1.279  11.796
39589SOL     OW20605  13.825   4.537  10.060
39589SOL    HW120606  13.737   4.509  10.034
39589SOL    HW220607  13.876   4.455  10.064
39590SOL     OW20608  12.435   4.754   7.291
39590SOL    HW120609  12.391   4.817   7.235
39590SOL    HW220610  12.505   4.804   7.333
39591SOL     OW20611   3.338  11.042  13.399
39591SOL    HW120612   3.429  11.019  13.382
39591SOL    HW220613   3.291  11.018  13.319
39592SOL     OW20614   3.733  11.746   1.322
39592SOL    HW120615   3.673  11.693   1.269
39592SOL    HW220616   3.678  11.782   1.391
39593SOL     OW20617   1.375   7.284   7.546
39593SOL    HW120618   1.346   7.278   7.637
39593SOL    HW220619   1.295   7.277   7.495
39594SOL     OW20620   9.495   8.630   8.139
39594SOL    HW120621   9.524   8.709   8.184
39594SOL    HW220622   9.408   8.612   8.176
39595SOL     OW20623  11.442   7.718   8.426
39595SOL    HW120624  11.452   7.633   8.384
39595SOL    HW220625  11.453   7.782   8.356
39596SOL     OW20626  14.100  13.594   0.156
39596SOL    HW120627  14.181  13.555   0.190
39596SOL    HW220628  14.031  13.560   0.213
39597SOL     OW20629   5.201   4.891  10.659
39597SOL    HW120630   5.123   4.848  10.624
39597SOL    HW220631   5.273   4.831  10.641
39598SOL     OW20632   0.749   1.825   5.459
39598SOL    HW120633   0.783   1.860   5.541
39598SOL    HW220634   0.654   1.818   5.474
39599SOL     OW20635   8.066  13.897   8.840
39599SOL    HW120636   7.976  13.893   8.873
39599SOL    HW220637   8.073  13.822   8.780
39600SOL     OW20638   2.423   8.534   4.066
39600SOL    HW120639   2.408   8.566   3.977
39600SOL    HW220640   2.518   8.536   4.077
39601SOL     OW20641   5.001   5.036   1.859
39601SOL    HW120642   4.942   5.048   1.933
39601SOL    HW220643   5.020   5.125   1.829
39602SOL     OW20644   0.950   4.152   9.277
39602SOL    HW120645   0.905   4.162   9.193
39602SOL    HW220646   0.879   4.144   9.341
39603SOL     OW20647   9.896   1.091   8.142
39603SOL    HW120648   9.841   1.168   8.156
39603SOL    HW220649   9.979   1.113   8.185
39604SOL     OW20650   2.078   1.010  12.330
39604SOL    HW120651   2.137   1.029  12.257
39604SOL    HW220652   2.029   1.092  12.343
39605SOL     OW20653   0.730  10.992   3.061
39605SOL    HW120654   0.752  10.942   2.982
39605SOL    HW220655   0.814  11.027   3.091
39606SOL     OW20656  13.658  13.687   6.412
39606SOL    HW120657  13.670  13.639   6.330
39606SOL    HW220658  13.567  13.669   6.438
39607SOL     OW20659   6.170   2.087  10.140
39607SOL    HW120660   6.175   2.100  10.235
39607SOL    HW220661   6.085   2.123  10.115
39608SOL     OW20662   1.510   4.793  11.168
39608SOL    HW120663   1.567   4.725  11.203
39608SOL    HW220664   1.537   4.802  11.077
39609SOL     OW20665   0.392  13.395   3.158
39609SOL    HW120666   0.399  13.486   3.129
39609SOL    HW220667   0.314  13.362   3.114
39610SOL     OW20668  10.085   6.059  13.672
39610SOL    HW120669  10.170   6.015  13.672
39610SOL    HW220670  10.060   6.063  13.580
39611SOL     OW20671   2.691   0.720   0.226
39611SOL    HW120672   2.612   0.675   0.196
39611SOL    HW220673   2.747   0.725   0.148
39612SOL     OW20674   2.228  14.590  11.254
39612SOL    HW120675   2.268  14.519  11.304
39612SOL    HW220676   2.145  14.555  11.223
39613SOL     OW20677   3.279   3.069   2.132
39613SOL    HW120678   3.374   3.076   2.142
39613SOL    HW220679   3.247   3.159   2.140
39614SOL     OW20680   5.978   2.707   9.067
39614SOL    HW120681   6.013   2.759   8.995
39614SOL    HW220682   5.906   2.759   9.102
39615SOL     OW20683   6.248   1.960   7.407
39615SOL    HW120684   6.258   1.983   7.499
39615SOL    HW220685   6.335   1.932   7.379
39616SOL     OW20686  14.404  14.821   0.803
39616SOL    HW120687  14.425  14.853   0.891
39616SOL    HW220688  14.343   0.013   0.768
39617SOL     OW20689   4.898   0.176  11.625
39617SOL    HW120690   4.843   0.122  11.569
39617SOL    HW220691   4.945   0.113  11.681
39618SOL     OW20692  10.198   3.561   6.803
39618SOL    HW120693  10.208   3.517   6.887
39618SOL    HW220694  10.112   3.604   6.809
39619SOL     OW20695   3.160  14.130   7.557
39619SOL    HW120696   3.078  14.132   7.507
39619SOL    HW220697   3.186  14.222   7.564
39620SOL     OW20698   1.886   8.224   1.173
39620SOL    HW120699   1.873   8.209   1.079
39620SOL    HW220700   1.889   8.136   1.211
39621SOL     OW20701   4.648   5.531  12.980
39621SOL    HW120702   4.733   5.571  12.960
39621SOL    HW220703   4.667   5.438  12.990
39622SOL     OW20704  13.985  13.869   5.973
39622SOL    HW120705  14.053  13.810   5.942
39622SOL    HW220706  13.975  13.848   6.066
39623SOL     OW20707   9.252   0.417   3.343
39623SOL    HW120708   9.270   0.336   3.390
39623SOL    HW220709   9.328   0.429   3.285
39624SOL     OW20710  12.174   4.951  12.736
39624SOL    HW120711  12.188   5.025  12.795
39624SOL    HW220712  12.156   4.991  12.651
39625SOL     OW20713   3.247   9.552  11.438
39625SOL    HW120714   3.256   9.646  11.429
39625SOL    HW220715   3.332   9.522  11.471
39626SOL     OW20716   0.524   4.137   2.238
39626SOL    HW120717   0.466   4.214   2.241
39626SOL    HW220718   0.475   4.069   2.284
39627SOL     OW20719  11.941   7.760   6.805
39627SOL    HW120720  11.946   7.790   6.715
39627SOL    HW220721  11.969   7.668   6.802
39628SOL     OW20722   9.860   4.520   4.450
39628SOL    HW120723   9.819   4.567   4.522
39628SOL    HW220724   9.825   4.432   4.455
39629SOL     OW20725  11.305   6.666  11.942
39629SOL    HW120726  11.317   6.603  12.013
39629SOL    HW220727  11.305   6.613  11.863
39630SOL     OW20728   6.873   1.357  14.153
39630SOL    HW120729   6.909   1.327  14.070
39630SOL    HW220730   6.928   1.432  14.177
39631SOL     OW20731   7.798   7.626   0.666
39631SOL    HW120732   7.886   7.643   0.631
39631SOL    HW220733   7.741   7.629   0.589
39632SOL     OW20734   3.807   0.665   3.772
39632SOL    HW120735   3.770   0.608   3.705
39632SOL    HW220736   3.760   0.748   3.762
39633SOL     OW20737   9.032  12.698   4.767
39633SOL    HW120738   8.988  12.628   4.816
39633SOL    HW220739   8.963  12.763   4.752
39634SOL     OW20740   2.796  11.933   5.127
39634SOL    HW120741   2.703  11.940   5.105
39634SOL    HW220742   2.830  11.867   5.066
39635SOL     OW20743   6.712   7.167  13.253
39635SOL    HW120744   6.635   7.223  13.257
39635SOL    HW220745   6.685   7.094  13.198
39636SOL     OW20746   4.089   6.956   1.690
39636SOL    HW120747   4.014   6.906   1.720
39636SOL    HW220748   4.061   7.047   1.694
39637SOL     OW20749  12.390  10.761  14.848
39637SOL    HW120750  12.332  10.815  14.794
39637SOL    HW220751  12.346  10.754   0.059
39638SOL     OW20752   3.633   7.969   7.982
39638SOL    HW120753   3.596   8.003   7.900
39638SOL    HW220754   3.619   8.040   8.045
39639SOL     OW20755   8.687   0.418   6.311
39639SOL    HW120756   8.780   0.411   6.331
39639SOL    HW220757   8.669   0.512   6.312
39640SOL     OW20758  10.786   1.474   9.834
39640SOL    HW120759  10.718   1.418   9.797
39640SOL    HW220760  10.789   1.450   9.927
39641SOL     OW20761   9.654   7.286   8.237
39641SOL    HW120762   9.642   7.379   8.257
39641SOL    HW220763   9.688   7.248   8.318
39642SOL     OW20764   8.288   4.307   4.977
39642SOL    HW120765   8.316   4.240   5.039
39642SOL    HW220766   8.316   4.390   5.016
39643SOL     OW20767   2.245  12.801  11.927
39643SOL    HW120768   2.153  12.822  11.943
39643SOL    HW220769   2.271  12.748  12.002
39644SOL     OW20770  13.140  12.123   7.537
39644SOL    HW120771  13.197  12.146   7.464
39644SOL    HW220772  13.119  12.207   7.578
39645SOL     OW20773   9.669  14.289   7.406
39645SOL    HW120774   9.699  14.279   7.496
39645SOL    HW220775   9.711  14.370   7.375
39646SOL     OW20776   7.882   8.340   6.666
39646SOL    HW120777   7.965   8.380   6.638
39646SOL    HW220778   7.815   8.405   6.642
39647SOL     OW20779   3.840   6.320  10.259
39647SOL    HW120780   3.928   6.327  10.295
39647SOL    HW220781   3.851   6.328  10.165
39648SOL     OW20782   5.740  11.608   7.414
39648SOL    HW120783   5.751  11.517   7.385
39648SOL    HW220784   5.798  11.658   7.358
39649SOL     OW20785   1.694  11.269   5.934
39649SOL    HW120786   1.787  11.281   5.953
39649SOL    HW220787   1.689  11.186   5.887
39650SOL     OW20788   9.493   2.049   5.512
39650SOL    HW120789   9.551   1.981   5.477
39650SOL    HW220790   9.412   2.002   5.533
39651SOL     OW20791   9.681   2.765  14.569
39651SOL    HW120792   9.635   2.753  14.653
39651SOL    HW220793   9.762   2.810  14.593
39652SOL     OW20794   0.422   2.851   8.904
39652SOL    HW120795   0.410   2.877   8.996
39652SOL    HW220796   0.513   2.873   8.885
39653SOL     OW20797   1.372  10.745   4.895
39653SOL    HW120798   1.352  10.784   4.810
39653SOL    HW220799   1.322  10.663   4.896
39654SOL     OW20800   4.495   8.443   6.803
39654SOL    HW120801   4.510   8.430   6.709
39654SOL    HW220802   4.428   8.379   6.825
39655SOL     OW20803   9.037  11.790   3.610
39655SOL    HW120804   9.074  11.744   3.685
39655SOL    HW220805   9.061  11.736   3.534
39656SOL     OW20806   0.996   7.082   6.866
39656SOL    HW120807   0.901   7.071   6.874
39656SOL    HW220808   1.023   7.014   6.804
39657SOL     OW20809   3.225  10.528   0.751
39657SOL    HW120810   3.264  10.597   0.804
39657SOL    HW220811   3.297  10.468   0.733
39658SOL     OW20812   7.906  13.283  12.143
39658SOL    HW120813   7.965  13.311  12.073
39658SOL    HW220814   7.886  13.192  12.122
39659SOL     OW20815  12.284  12.479   6.341
39659SOL    HW120816  12.342  12.454   6.268
39659SOL    HW220817  12.309  12.569   6.361
39660SOL     OW20818  11.389   8.313  13.401
39660SOL    HW120819  11.296   8.327  13.385
39660SOL    HW220820  11.433   8.381  13.351
39661SOL     OW20821   1.125   6.017  11.661
39661SOL    HW120822   1.091   5.937  11.702
39661SOL    HW220823   1.049   6.075  11.656
39662SOL     OW20824   6.222   6.018   1.775
39662SOL    HW120825   6.153   6.066   1.730
39662SOL    HW220826   6.284   6.085   1.804
39663SOL     OW20827   5.744   2.101   8.076
39663SOL    HW120828   5.779   2.082   7.989
39663SOL    HW220829   5.788   2.182   8.102
39664SOL     OW20830   6.550   8.714  13.599
39664SOL    HW120831   6.601   8.635  13.584
39664SOL    HW220832   6.563   8.766  13.520
39665SOL     OW20833   6.532   0.914   7.339
39665SOL    HW120834   6.571   0.935   7.254
39665SOL    HW220835   6.439   0.902   7.320
39666SOL     OW20836   5.828   4.663   7.855
39666SOL    HW120837   5.802   4.740   7.905
39666SOL    HW220838   5.819   4.590   7.916
39667SOL     OW20839   0.029   2.269   2.190
39667SOL    HW120840   0.096   2.332   2.219
39667SOL    HW220841  14.866   2.234   2.272
39668SOL     OW20842  12.803   8.255  11.680
39668SOL    HW120843  12.798   8.188  11.612
39668SOL    HW220844  12.797   8.338  11.633
39669SOL     OW20845   2.172   5.168   1.586
39669SOL    HW120846   2.129   5.095   1.541
39669SOL    HW220847   2.160   5.243   1.528
39670SOL     OW20848   0.926  14.234  13.681
39670SOL    HW120849   0.881  14.274  13.756
39670SOL    HW220850   1.001  14.291  13.666
39671SOL     OW20851  10.676   9.243  12.609
39671SOL    HW120852  10.707   9.330  12.634
39671SOL    HW220853  10.583   9.244  12.632
39672SOL     OW20854  11.638   6.437  11.011
39672SOL    HW120855  11.615   6.466  10.923
39672SOL    HW220856  11.718   6.386  11.000
39673SOL     OW20857   2.112  10.544   6.265
39673SOL    HW120858   2.170  10.557   6.189
39673SOL    HW220859   2.149  10.600   6.333
39674SOL     OW20860   5.941  14.720  14.232
39674SOL    HW120861   5.996  14.673  14.294
39674SOL    HW220862   5.938  14.663  14.155
39675SOL     OW20863   5.974   3.848  14.420
39675SOL    HW120864   6.041   3.786  14.391
39675SOL    HW220865   5.894   3.796  14.425
39676SOL     OW20866   5.482  14.186   7.193
39676SOL    HW120867   5.496  14.091   7.193
39676SOL    HW220868   5.392  14.196   7.225
39677SOL     OW20869   8.064   3.989   1.388
39677SOL    HW120870   7.991   4.008   1.328
39677SOL    HW220871   8.086   3.898   1.370
39678SOL     OW20872   8.666  12.875   1.200
39678SOL    HW120873   8.720  12.866   1.121
39678SOL    HW220874   8.648  12.969   1.207
39679SOL     OW20875   9.187   9.489   1.851
39679SOL    HW120876   9.206   9.477   1.758
39679SOL    HW220877   9.118   9.424   1.870
39680SOL     OW20878   9.509   7.475  10.147
39680SOL    HW120879   9.442   7.489  10.214
39680SOL    HW220880   9.484   7.532  10.075
39681SOL     OW20881  11.906   8.293   4.852
39681SOL    HW120882  11.853   8.221   4.886
39681SOL    HW220883  11.995   8.271   4.877
39682SOL     OW20884  13.079   8.846   0.405
39682SOL    HW120885  12.984   8.842   0.395
39682SOL    HW220886  13.098   8.789   0.479
39683SOL     OW20887   9.893  10.388   4.617
39683SOL    HW120888   9.923  10.327   4.686
39683SOL    HW220889   9.899  10.474   4.658
39684SOL     OW20890   8.846   8.408   8.163
39684SOL    HW120891   8.839   8.367   8.249
39684SOL    HW220892   8.760   8.446   8.147
39685SOL     OW20893   8.947   6.614  10.250
39685SOL    HW120894   8.888   6.600  10.323
39685SOL    HW220895   8.903   6.574  10.175
39686SOL     OW20896  14.333   8.986   9.031
39686SOL    HW120897  14.366   9.034   9.107
39686SOL    HW220898  14.389   9.013   8.959
39687SOL     OW20899   8.069  10.850   6.416
39687SOL    HW120900   7.989  10.809   6.448
39687SOL    HW220901   8.126  10.855   6.492
39688SOL     OW20902   0.047  11.933   3.741
39688SOL    HW120903  14.828  11.956   3.752
39688SOL    HW220904   0.046  11.840   3.721
39689SOL     OW20905   6.883   9.624   7.537
39689SOL    HW120906   6.946   9.553   7.551
39689SOL    HW220907   6.910   9.665   7.455
39690SOL     OW20908   9.017   5.726   0.043
39690SOL    HW120909   9.027   5.695  14.826
39690SOL    HW220910   9.029   5.820   0.038
39691SOL     OW20911   4.631   9.072  11.433
39691SOL    HW120912   4.634   8.982  11.400
39691SOL    HW220913   4.723   9.099  11.437
39692SOL     OW20914  12.882  12.953   0.668
39692SOL    HW120915  12.943  12.912   0.730
39692SOL    HW220916  12.882  12.895   0.592
39693SOL     OW20917  12.572  12.099  12.163
39693SOL    HW120918  12.609  12.019  12.199
39693SOL    HW220919  12.584  12.091  12.068
39694SOL     OW20920   8.778   0.748   8.036
39694SOL    HW120921   8.810   0.668   8.078
39694SOL    HW220922   8.759   0.722   7.946
39695SOL     OW20923   2.842   8.083   2.087
39695SOL    HW120924   2.916   8.024   2.100
39695SOL    HW220925   2.839   8.135   2.167
39696SOL     OW20926  13.991   4.811  11.815
39696SOL    HW120927  13.949   4.808  11.901
39696SOL    HW220928  14.004   4.904  11.798
39697SOL     OW20929   2.206   1.322   3.463
39697SOL    HW120930   2.197   1.252   3.398
39697SOL    HW220931   2.290   1.305   3.505
39698SOL     OW20932   3.702  14.769   3.670
39698SOL    HW120933   3.670  14.684   3.700
39698SOL    HW220934   3.769  14.749   3.605
39699SOL     OW20935   4.876   3.244   9.464
39699SOL    HW120936   4.899   3.308   9.532
39699SOL    HW220937   4.786   3.265   9.440
39700SOL     OW20938   7.417   5.171   5.066
39700SOL    HW120939   7.494   5.195   5.117
39700SOL    HW220940   7.451   5.118   4.994
39701SOL     OW20941   9.142   9.610  13.444
39701SOL    HW120942   9.197   9.592  13.520
39701SOL    HW220943   9.180   9.558  13.374
39702SOL     OW20944   2.718  13.801   1.754
39702SOL    HW120945   2.625  13.817   1.742
39702SOL    HW220946   2.746  13.758   1.673
39703SOL     OW20947   7.430  13.775   9.804
39703SOL    HW120948   7.374  13.806   9.733
39703SOL    HW220949   7.512  13.749   9.760
39704SOL     OW20950   0.093   2.284   6.679
39704SOL    HW120951   0.125   2.353   6.620
39704SOL    HW220952  14.872   2.282   6.664
39705SOL     OW20953   4.295   1.049   2.191
39705SOL    HW120954   4.269   1.139   2.169
39705SOL    HW220955   4.366   1.030   2.131
39706SOL     OW20956   3.144  12.796   5.386
39706SOL    HW120957   3.214  12.732   5.373
39706SOL    HW220958   3.126  12.830   5.298
39707SOL     OW20959  10.443   0.614   9.550
39707SOL    HW120960  10.495   0.547   9.595
39707SOL    HW220961  10.456   0.693   9.602
39708SOL     OW20962   9.093   0.247   7.162
39708SOL    HW120963   9.041   0.253   7.242
39708SOL    HW220964   9.041   0.194   7.103
39709SOL     OW20965  11.729   1.564   9.104
39709SOL    HW120966  11.800   1.576   9.041
39709SOL    HW220967  11.750   1.481   9.147
39710SOL     OW20968  13.525   9.200   0.363
39710SOL    HW120969  13.557   9.243   0.442
39710SOL    HW220970  13.553   9.258   0.292
39711SOL     OW20971   1.199  14.796   0.987
39711SOL    HW120972   1.155  14.872   0.948
39711SOL    HW220973   1.221  14.823   1.076
39712SOL     OW20974   1.524   8.717   9.153
39712SOL    HW120975   1.472   8.708   9.233
39712SOL    HW220976   1.608   8.752   9.183
39713SOL     OW20977   6.729  10.444   3.096
39713SOL    HW120978   6.782  10.436   3.175
39713SOL    HW220979   6.659  10.505   3.120
39714SOL     OW20980   1.861   9.919  13.361
39714SOL    HW120981   1.825  10.005  13.340
39714SOL    HW220982   1.798   9.857  13.323
39715SOL     OW20983   4.302   7.908  11.135
39715SOL    HW120984   4.332   7.995  11.163
39715SOL    HW220985   4.382   7.858  11.122
39716SOL     OW20986   3.164  11.299   6.974
39716SOL    HW120987   3.094  11.266   6.917
39716SOL    HW220988   3.238  11.241   6.957
39717SOL     OW20989   2.841   2.719  13.591
39717SOL    HW120990   2.936   2.702  13.591
39717SOL    HW220991   2.821   2.738  13.499
39718SOL     OW20992   8.241   7.808   2.499
39718SOL    HW120993   8.286   7.734   2.541
39718SOL    HW220994   8.243   7.877   2.565
39719SOL     OW20995   7.910   7.544  12.421
39719SOL    HW120996   7.815   7.533  12.429
39719SOL    HW220997   7.934   7.485  12.350
39720SOL     OW20998   8.225  13.032  11.749
39720SOL    HW120999   8.196  12.949  11.786
39720SOL    HW221000   8.161  13.051  11.680
39721SOL     OW21001   8.995   2.182   4.624
39721SOL    HW121002   9.046   2.146   4.552
39721SOL    HW221003   9.043   2.261   4.651
39722SOL     OW21004   8.972  12.726  11.582
39722SOL    HW121005   8.915  12.719  11.658
39722SOL    HW221006   8.959  12.643  11.535
39723SOL     OW21007  14.133   0.959   1.815
39723SOL    HW121008  14.148   0.932   1.906
39723SOL    HW221009  14.085   0.887   1.776
39724SOL     OW21010   0.347   3.991  13.622
39724SOL    HW121011   0.292   3.913  13.618
39724SOL    HW221012   0.334   4.024  13.711
39725SOL     OW21013  13.737   7.246  12.075
39725SOL    HW121014  13.741   7.335  12.040
39725SOL    HW221015  13.796   7.196  12.020
39726SOL     OW21016  12.275   7.418   3.700
39726SOL    HW121017  12.306   7.355   3.765
39726SOL    HW221018  12.259   7.366   3.622
39727SOL     OW21019   8.522   3.432   7.522
39727SOL    HW121020   8.430   3.409   7.529
39727SOL    HW221021   8.539   3.487   7.598
39728SOL     OW21022   9.587   0.338   3.404
39728SOL    HW121023   9.522   0.282   3.447
39728SOL    HW221024   9.591   0.416   3.459
39729SOL     OW21025   1.467  11.149   9.413
39729SOL    HW121026   1.527  11.193   9.473
39729SOL    HW221027   1.516  11.141   9.332
39730SOL     OW21028   3.968   5.432  10.683
39730SOL    HW121029   3.912   5.404  10.611
39730SOL    HW221030   3.921   5.505  10.723
39731SOL     OW21031  14.785   2.175   4.753
39731SOL    HW121032  14.695   2.188   4.783
39731SOL    HW221033  14.782   2.191   4.659
39732SOL     OW21034  10.882   3.290   4.358
39732SOL    HW121035  10.972   3.281   4.389
39732SOL    HW221036  10.872   3.384   4.341
39733SOL     OW21037   3.064   0.870   6.463
39733SOL    HW121038   3.050   0.781   6.495
39733SOL    HW221039   2.979   0.913   6.472
39734SOL     OW21040   6.780   6.918   6.762
39734SOL    HW121041   6.785   7.002   6.806
39734SOL    HW221042   6.839   6.861   6.811
39735SOL     OW21043   5.125   5.024  14.633
39735SOL    HW121044   5.201   5.071  14.600
39735SOL    HW221045   5.129   5.036  14.728
39736SOL     OW21046   6.785  12.650   1.177
39736SOL    HW121047   6.824  12.674   1.261
39736SOL    HW221048   6.830  12.704   1.113
39737SOL     OW21049   3.025   6.621  12.946
39737SOL    HW121050   3.002   6.535  12.981
39737SOL    HW221051   2.976   6.628  12.864
39738SOL     OW21052   3.618   2.906   9.789
39738SOL    HW121053   3.693   2.896   9.731
39738SOL    HW221054   3.577   2.819   9.790
39739SOL     OW21055   3.173  12.064  10.965
39739SOL    HW121056   3.088  12.021  10.960
39739SOL    HW221057   3.218  12.020  11.037
39740SOL     OW21058   8.816   9.194   0.101
39740SOL    HW121059   8.722   9.199   0.081
39740SOL    HW221060   8.827   9.253   0.176
39741SOL     OW21061   5.301   3.761  14.722
39741SOL    HW121062   5.256   3.839  14.688
39741SOL    HW221063   5.393   3.787  14.726
39742SOL     OW21064  14.276   1.835   5.988
39742SOL    HW121065  14.324   1.902   6.036
39742SOL    HW221066  14.313   1.752   6.020
39743SOL     OW21067   7.663   4.495  10.470
39743SOL    HW121068   7.583   4.530  10.431
39743SOL    HW221069   7.641   4.484  10.563
39744SOL     OW21070   6.861  14.732   6.993
39744SOL    HW121071   6.896  14.817   6.965
39744SOL    HW221072   6.933  14.689   7.037
39745SOL     OW21073   2.788   2.330   8.366
39745SOL    HW121074   2.739   2.299   8.442
39745SOL    HW221075   2.721   2.350   8.301
39746SOL     OW21076   7.484  13.882  10.777
39746SOL    HW121077   7.413  13.916  10.832
39746SOL    HW221078   7.563  13.924  10.810
39747SOL     OW21079   1.062   1.906   7.128
39747SOL    HW121080   1.047   1.963   7.204
39747SOL    HW221081   1.025   1.821   7.154
39748SOL     OW21082   4.355   0.687   6.175
39748SOL    HW121083   4.436   0.719   6.135
39748SOL    HW221084   4.323   0.760   6.228
39749SOL     OW21085   0.986   6.272   4.054
39749SOL    HW121086   0.982   6.201   3.990
39749SOL    HW221087   0.899   6.313   4.050
39750SOL     OW21088   9.097  14.507   8.216
39750SOL    HW121089   9.039  14.437   8.247
39750SOL    HW221090   9.180  14.462   8.197
39751SOL     OW21091  11.383   2.490  11.646
39751SOL    HW121092  11.437   2.555  11.690
39751SOL    HW221093  11.301   2.535  11.628
39752SOL     OW21094  12.470   9.061   7.444
39752SOL    HW121095  12.424   9.139   7.413
39752SOL    HW221096  12.544   9.095   7.494
39753SOL     OW21097   5.154  14.598   8.768
39753SOL    HW121098   5.115  14.633   8.848
39753SOL    HW221099   5.173  14.506   8.789
39754SOL     OW21100  14.822   1.591   1.149
39754SOL    HW121101  14.820   1.624   1.059
39754SOL    HW221102  14.850   1.666   1.202
39755SOL     OW21103   0.168  10.489   8.040
39755SOL    HW121104   0.239  10.442   7.997
39755SOL    HW221105   0.107  10.510   7.970
39756SOL     OW21106  13.483   5.408   0.892
39756SOL    HW121107  13.506   5.482   0.836
39756SOL    HW221108  13.483   5.444   0.980
39757SOL     OW21109   5.156   8.176   9.361
39757SOL    HW121110   5.063   8.156   9.355
39757SOL    HW221111   5.195   8.099   9.405
39758SOL     OW21112   1.355   5.472   0.509
39758SOL    HW121113   1.336   5.508   0.595
39758SOL    HW221114   1.367   5.379   0.524
39759SOL     OW21115   8.037   1.741  12.808
39759SOL    HW121116   8.118   1.706  12.773
39759SOL    HW221117   7.993   1.665  12.848
39760SOL     OW21118   0.211   0.864   2.366
39760SOL    HW121119   0.158   0.943   2.354
39760SOL    HW221120   0.192   0.835   2.456
39761SOL     OW21121   2.603   0.680   9.900
39761SOL    HW121122   2.617   0.770   9.870
39761SOL    HW221123   2.556   0.638   9.828
39762SOL     OW21124   6.284   3.753   1.764
39762SOL    HW121125   6.299   3.835   1.716
39762SOL    HW221126   6.367   3.736   1.808
39763SOL     OW21127   2.580  11.184   9.627
39763SOL    HW121128   2.641  11.117   9.596
39763SOL    HW221129   2.636  11.250   9.668
39764SOL     OW21130   0.742   9.797   2.538
39764SOL    HW121131   0.652   9.796   2.572
39764SOL    HW221132   0.738   9.742   2.459
39765SOL     OW21133  11.130   4.438   6.614
39765SOL    HW121134  11.048   4.416   6.657
39765SOL    HW221135  11.186   4.361   6.627
39766SOL     OW21136   7.058   8.667   6.143
39766SOL    HW121137   7.147   8.702   6.150
39766SOL    HW221138   7.070   8.572   6.143
39767SOL     OW21139   0.225  11.612  13.350
39767SOL    HW121140   0.261  11.636  13.265
39767SOL    HW221141   0.139  11.573  13.330
39768SOL     OW21142  14.122  13.682   8.189
39768SOL    HW121143  14.174  13.616   8.235
39768SOL    HW221144  14.039  13.684   8.236
39769SOL     OW21145   1.946   1.659  13.825
39769SOL    HW121146   1.942   1.753  13.804
39769SOL    HW221147   1.876   1.646  13.889
39770SOL     OW21148   1.954  13.826  13.417
39770SOL    HW121149   1.862  13.843  13.435
39770SOL    HW221150   1.990  13.796  13.500
39771SOL     OW21151   7.069   3.574  11.193
39771SOL    HW121152   7.075   3.518  11.116
39771SOL    HW221153   7.040   3.659  11.159
39772SOL     OW21154   7.137   2.140   6.416
39772SOL    HW121155   7.171   2.172   6.500
39772SOL    HW221156   7.066   2.081   6.439
39773SOL     OW21157   7.747   6.862   9.085
39773SOL    HW121158   7.775   6.858   9.177
39773SOL    HW221159   7.725   6.954   9.071
39774SOL     OW21160  11.362  10.692   7.614
39774SOL    HW121161  11.400  10.605   7.623
39774SOL    HW221162  11.382  10.718   7.524
39775SOL     OW21163  12.533   1.089   1.739
39775SOL    HW121164  12.512   1.003   1.703
39775SOL    HW221165  12.624   1.081   1.769
39776SOL     OW21166  12.041   0.728  10.200
39776SOL    HW121167  12.069   0.641  10.173
39776SOL    HW221168  11.945   0.723  10.201
39777SOL     OW21169  10.847  12.810   2.133
39777SOL    HW121170  10.824  12.720   2.158
39777SOL    HW221171  10.939  12.805   2.107
39778SOL     OW21172   7.433  11.466  13.626
39778SOL    HW121173   7.407  11.398  13.688
39778SOL    HW221174   7.528  11.473  13.636
39779SOL     OW21175  12.223  11.761   8.266
39779SOL    HW121176  12.157  11.783   8.332
39779SOL    HW221177  12.276  11.840   8.258
39780SOL     OW21178   5.619  14.133  11.854
39780SOL    HW121179   5.659  14.201  11.801
39780SOL    HW221180   5.691  14.098  11.906
39781SOL     OW21181   2.238   4.316   9.542
39781SOL    HW121182   2.167   4.288   9.485
39781SOL    HW221183   2.314   4.325   9.484
39782SOL     OW21184  10.435   8.815   2.330
39782SOL    HW121185  10.353   8.859   2.350
39782SOL    HW221186  10.418   8.767   2.249
39783SOL     OW21187   5.336   8.092   6.512
39783SOL    HW121188   5.297   8.131   6.434
39783SOL    HW221189   5.296   8.141   6.585
39784SOL     OW21190  10.954   1.192   7.160
39784SOL    HW121191  10.951   1.172   7.253
39784SOL    HW221192  10.894   1.129   7.120
39785SOL     OW21193   2.300  13.324  14.670
39785SOL    HW121194   2.370  13.365  14.618
39785SOL    HW221195   2.247  13.398  14.701
39786SOL     OW21196  13.208  11.386  14.056
39786SOL    HW121197  13.284  11.332  14.076
39786SOL    HW221198  13.219  11.411  13.964
39787SOL     OW21199   0.886   3.364  11.325
39787SOL    HW121200   0.954   3.426  11.297
39787SOL    HW221201   0.816   3.420  11.360
39788SOL     OW21202   3.650   7.646  12.705
39788SOL    HW121203   3.736   7.681  12.729
39788SOL    HW221204   3.587   7.707  12.744
39789SOL     OW21205  12.111   2.421   0.714
39789SOL    HW121206  12.183   2.360   0.732
39789SOL    HW221207  12.032   2.373   0.737
39790SOL     OW21208   7.344  11.195  13.147
39790SOL    HW121209   7.305  11.282  13.138
39790SOL    HW221210   7.326  11.170  13.238
39791SOL     OW21211   3.791   1.878   1.840
39791SOL    HW121212   3.747   1.935   1.903
39791SOL    HW221213   3.758   1.906   1.755
39792SOL     OW21214  14.402  12.479   0.676
39792SOL    HW121215  14.446  12.403   0.638
39792SOL    HW221216  14.367  12.526   0.600
39793SOL     OW21217   4.821  11.481   9.180
39793SOL    HW121218   4.827  11.488   9.085
39793SOL    HW221219   4.799  11.390   9.196
39794SOL     OW21220  13.892  13.829   0.275
39794SOL    HW121221  13.897  13.741   0.314
39794SOL    HW221222  13.803  13.834   0.240
39795SOL     OW21223   1.619   0.177   2.631
39795SOL    HW121224   1.530   0.170   2.596
39795SOL    HW221225   1.655   0.256   2.590
39796SOL     OW21226   5.419   2.719   9.315
39796SOL    HW121227   5.511   2.717   9.287
39796SOL    HW221228   5.388   2.629   9.301
39797SOL     OW21229   1.261   2.714   1.867
39797SOL    HW121230   1.296   2.743   1.950
39797SOL    HW221231   1.315   2.757   1.801
39798SOL     OW21232  12.183  14.792   8.442
39798SOL    HW121233  12.239  14.765   8.369
39798SOL    HW221234  12.241  14.795   8.517
39799SOL     OW21235  13.870  11.262   3.228
39799SOL    HW121236  13.809  11.270   3.302
39799SOL    HW221237  13.926  11.188   3.252
39800SOL     OW21238   0.388   0.303   0.591
39800SOL    HW121239   0.348   0.372   0.539
39800SOL    HW221240   0.326   0.288   0.663
39801SOL     OW21241   9.816  10.598  11.566
39801SOL    HW121242   9.865  10.680  11.558
39801SOL    HW221243   9.837  10.566  11.653
39802SOL     OW21244  12.780   7.618  11.425
39802SOL    HW121245  12.790   7.712  11.406
39802SOL    HW221246  12.772   7.614  11.521
39803SOL     OW21247   5.180  12.290   1.774
39803SOL    HW121248   5.121  12.366   1.773
39803SOL    HW221249   5.229  12.297   1.693
39804SOL     OW21250   8.794  12.816   0.968
39804SOL    HW121251   8.813  12.729   0.933
39804SOL    HW221252   8.739  12.857   0.901
39805SOL     OW21253  10.985  11.023   9.871
39805SOL    HW121254  11.008  11.084   9.942
39805SOL    HW221255  10.904  10.982   9.900
39806SOL     OW21256   6.312   7.881  14.214
39806SOL    HW121257   6.236   7.854  14.163
39806SOL    HW221258   6.373   7.918  14.150
39807SOL     OW21259   8.556  13.081   3.797
39807SOL    HW121260   8.490  13.047   3.857
39807SOL    HW221261   8.508  13.143   3.741
39808SOL     OW21262  12.938   2.279   4.533
39808SOL    HW121263  12.878   2.320   4.471
39808SOL    HW221264  12.924   2.185   4.522
39809SOL     OW21265  14.102  11.983   4.665
39809SOL    HW121266  14.099  12.048   4.594
39809SOL    HW221267  14.151  11.909   4.629
39810SOL     OW21268   4.925   5.362   2.137
39810SOL    HW121269   5.007   5.351   2.185
39810SOL    HW221270   4.868   5.293   2.170
39811SOL     OW21271  11.104   9.101  12.911
39811SOL    HW121272  11.082   9.082  12.820
39811SOL    HW221273  11.110   9.015  12.952
39812SOL     OW21274   9.880  10.578   6.261
39812SOL    HW121275   9.924  10.505   6.304
39812SOL    HW221276   9.801  10.592   6.314
39813SOL     OW21277   1.892   7.547   8.269
39813SOL    HW121278   1.875   7.639   8.248
39813SOL    HW221279   1.965   7.549   8.331
39814SOL     OW21280  13.781   6.577   3.199
39814SOL    HW121281  13.743   6.547   3.116
39814SOL    HW221282  13.851   6.514   3.216
39815SOL     OW21283   5.908  14.821   3.349
39815SOL    HW121284   5.818  14.842   3.374
39815SOL    HW221285   5.907  14.818   3.253
39816SOL     OW21286   4.312   1.462   4.234
39816SOL    HW121287   4.372   1.521   4.281
39816SOL    HW221288   4.350   1.375   4.246
39817SOL     OW21289   5.971   7.589  12.781
39817SOL    HW121290   6.026   7.586  12.703
39817SOL    HW221291   5.899   7.528  12.763
39818SOL     OW21292   8.069   3.486   9.441
39818SOL    HW121293   8.130   3.535   9.497
39818SOL    HW221294   7.989   3.537   9.441
39819SOL     OW21295   8.084   2.299   5.041
39819SOL    HW121296   8.113   2.285   4.950
39819SOL    HW221297   7.989   2.298   5.036
39820SOL     OW21298   0.104   7.459   2.310
39820SOL    HW121299   0.041   7.388   2.323
39820SOL    HW221300   0.057   7.538   2.337
39821SOL     OW21301  14.414   5.510   7.930
39821SOL    HW121302  14.435   5.601   7.912
39821SOL    HW221303  14.379   5.476   7.847
39822SOL     OW21304  12.962   6.296   5.615
39822SOL    HW121305  12.935   6.316   5.525
39822SOL    HW221306  13.015   6.217   5.607
39823SOL     OW21307  10.249   6.456  13.661
39823SOL    HW121308  10.300   6.434  13.739
39823SOL    HW221309  10.203   6.537  13.684
39824SOL     OW21310   7.075   7.374   1.101
39824SOL    HW121311   7.063   7.289   1.057
39824SOL    HW221312   7.102   7.433   1.031
39825SOL     OW21313  11.189  12.601   9.234
39825SOL    HW121314  11.185  12.634   9.145
39825SOL    HW221315  11.153  12.672   9.288
39826SOL     OW21316   5.426   7.371  10.026
39826SOL    HW121317   5.503   7.423  10.048
39826SOL    HW221318   5.414   7.312  10.100
39827SOL     OW21319   3.288  13.659  13.366
39827SOL    HW121320   3.363  13.621  13.322
39827SOL    HW221321   3.214  13.603  13.340
39828SOL     OW21322  13.892   3.393  10.722
39828SOL    HW121323  13.822   3.434  10.772
39828SOL    HW221324  13.847   3.331  10.664
39829SOL     OW21325  14.444  11.187   5.314
39829SOL    HW121326  14.354  11.220   5.324
39829SOL    HW221327  14.435  11.092   5.317
39830SOL     OW21328   5.729   2.161   5.588
39830SOL    HW121329   5.725   2.249   5.625
39830SOL    HW221330   5.639   2.130   5.589
39831SOL     OW21331  11.152   7.018   9.117
39831SOL    HW121332  11.236   7.002   9.160
39831SOL    HW221333  11.176   7.055   9.032
39832SOL     OW21334   4.607  13.738   1.991
39832SOL    HW121335   4.592  13.645   2.008
39832SOL    HW221336   4.623  13.743   1.897
39833SOL     OW21337   9.932   1.270   2.916
39833SOL    HW121338   9.885   1.352   2.927
39833SOL    HW221339   9.900   1.214   2.987
39834SOL     OW21340   0.043   3.735   4.568
39834SOL    HW121341  14.837   3.683   4.580
39834SOL    HW221342   0.020   3.800   4.501
39835SOL     OW21343   4.629  10.218  11.530
39835SOL    HW121344   4.668  10.133  11.508
39835SOL    HW221345   4.610  10.259  11.446
39836SOL     OW21346  14.170   0.784  12.767
39836SOL    HW121347  14.201   0.839  12.694
39836SOL    HW221348  14.097   0.833  12.805
39837SOL     OW21349   6.243   8.569  14.172
39837SOL    HW121350   6.316   8.587  14.231
39837SOL    HW221351   6.173   8.628  14.200
39838SOL     OW21352  10.796   6.462   0.007
39838SOL    HW121353  10.732   6.406  14.838
39838SOL    HW221354  10.833   6.514  14.809
39839SOL     OW21355   1.974   9.166   0.894
39839SOL    HW121356   1.965   9.238   0.957
39839SOL    HW221357   2.033   9.104   0.937
39840SOL     OW21358   6.220   6.080   0.153
39840SOL    HW121359   6.284   6.018   0.189
39840SOL    HW221360   6.149   6.025   0.120
39841SOL     OW21361  11.414   7.571  13.414
39841SOL    HW121362  11.463   7.653  13.408
39841SOL    HW221363  11.323   7.598  13.420
39842SOL     OW21364   6.281   7.767   8.542
39842SOL    HW121365   6.338   7.700   8.581
39842SOL    HW221366   6.334   7.806   8.473
39843SOL     OW21367   6.753  13.347  14.387
39843SOL    HW121368   6.771  13.438  14.362
39843SOL    HW221369   6.663  13.348  14.419
39844SOL     OW21370   0.498   0.495   7.468
39844SOL    HW121371   0.444   0.421   7.440
39844SOL    HW221372   0.559   0.458   7.532
39845SOL     OW21373  13.603  13.656  11.311
39845SOL    HW121374  13.676  13.615  11.358
39845SOL    HW221375  13.642  13.688  11.230
39846SOL     OW21376   0.844   0.101   7.729
39846SOL    HW121377   0.831   0.129   7.820
39846SOL    HW221378   0.938   0.108   7.715
39847SOL     OW21379   4.493   4.984  13.015
39847SOL    HW121380   4.533   5.029  13.089
39847SOL    HW221381   4.403   4.967  13.043
39848SOL     OW21382   5.341   2.100  14.464
39848SOL    HW121383   5.370   2.014  14.432
39848SOL    HW221384   5.260   2.081  14.512
39849SOL     OW21385   4.779   1.865   5.540
39849SOL    HW121386   4.688   1.870   5.571
39849SOL    HW221387   4.775   1.898   5.450
39850SOL     OW21388   5.383  14.011  14.092
39850SOL    HW121389   5.422  14.010  14.005
39850SOL    HW221390   5.457  14.019  14.152
39851SOL     OW21391  12.561   3.364   0.457
39851SOL    HW121392  12.510   3.354   0.377
39851SOL    HW221393  12.530   3.446   0.495
39852SOL     OW21394   2.044  12.546  13.502
39852SOL    HW121395   1.976  12.483  13.526
39852SOL    HW221396   2.018  12.576  13.415
39853SOL     OW21397   4.033   9.582   8.732
39853SOL    HW121398   4.108   9.536   8.769
39853SOL    HW221399   4.041   9.571   8.637
39854SOL     OW21400   6.494  14.443   3.204
39854SOL    HW121401   6.488  14.494   3.123
39854SOL    HW221402   6.574  14.473   3.246
39855SOL     OW21403   0.061   2.138   9.713
39855SOL    HW121404   0.113   2.197   9.767
39855SOL    HW221405   0.096   2.149   9.624
39856SOL     OW21406  10.917   7.751  13.817
39856SOL    HW121407  10.898   7.661  13.792
39856SOL    HW221408  10.951   7.744  13.906
39857SOL     OW21409  14.747   0.930   8.473
39857SOL    HW121410  14.758   0.836   8.468
39857SOL    HW221411  14.836   0.965   8.476
39858SOL     OW21412   4.831   3.256   2.311
39858SOL    HW121413   4.890   3.293   2.376
39858SOL    HW221414   4.777   3.193   2.359
39859SOL     OW21415  11.639  14.600  13.867
39859SOL    HW121416  11.709  14.651  13.824
39859SOL    HW221417  11.597  14.553  13.795
39860SOL     OW21418   7.479   1.328   5.482
39860SOL    HW121419   7.493   1.235   5.499
39860SOL    HW221420   7.453   1.365   5.566
39861SOL     OW21421   4.613   4.389   0.121
39861SOL    HW121422   4.588   4.418   0.033
39861SOL    HW221423   4.552   4.433   0.179
39862SOL     OW21424   6.231  11.336   3.552
39862SOL    HW121425   6.238  11.424   3.588
39862SOL    HW221426   6.141  11.329   3.523
39863SOL     OW21427   2.975   5.347  11.171
39863SOL    HW121428   2.914   5.315  11.104
39863SOL    HW221429   3.006   5.431  11.137
39864SOL     OW21430   5.468   8.136   7.799
39864SOL    HW121431   5.488   8.218   7.843
39864SOL    HW221432   5.374   8.140   7.781
39865SOL     OW21433  12.381  12.033   1.910
39865SOL    HW121434  12.338  12.034   1.995
39865SOL    HW221435  12.379  11.941   1.883
39866SOL     OW21436   3.348  10.649   2.731
39866SOL    HW121437   3.441  10.632   2.744
39866SOL    HW221438   3.335  10.737   2.766
39867SOL     OW21439   0.301   7.938   1.122
39867SOL    HW121440   0.310   8.033   1.125
39867SOL    HW221441   0.305   7.917   1.029
39868SOL     OW21442   3.453   9.399   8.464
39868SOL    HW121443   3.505   9.386   8.384
39868SOL    HW221444   3.518   9.413   8.533
39869SOL     OW21445   8.058   2.567   1.246
39869SOL    HW121446   8.136   2.572   1.191
39869SOL    HW221447   8.062   2.479   1.284
39870SOL     OW21448   7.459   2.140   0.620
39870SOL    HW121449   7.474   2.074   0.552
39870SOL    HW221450   7.465   2.091   0.702
39871SOL     OW21451  14.461   3.177   2.240
39871SOL    HW121452  14.527   3.108   2.240
39871SOL    HW221453  14.409   3.160   2.319
39872SOL     OW21454   7.010   3.767  11.009
39872SOL    HW121455   6.935   3.774  10.950
39872SOL    HW221456   7.076   3.720  10.957
39873SOL     OW21457   5.745   7.515   7.384
39873SOL    HW121458   5.693   7.485   7.309
39873SOL    HW221459   5.754   7.609   7.371
39874SOL     OW21460   7.878   8.689   2.127
39874SOL    HW121461   7.917   8.606   2.099
39874SOL    HW221462   7.952   8.746   2.147
39875SOL     OW21463   0.102   4.308  12.722
39875SOL    HW121464   0.068   4.281  12.636
39875SOL    HW221465   0.071   4.241  12.782
39876SOL     OW21466   5.841  12.623   0.507
39876SOL    HW121467   5.914  12.587   0.457
39876SOL    HW221468   5.816  12.702   0.460
39877SOL     OW21469  11.593  12.506  14.127
39877SOL    HW121470  11.629  12.558  14.055
39877SOL    HW221471  11.657  12.437  14.142
39878SOL     OW21472  13.266  11.921   3.287
39878SOL    HW121473  13.343  11.961   3.246
39878SOL    HW221474  13.261  11.834   3.248
39879SOL     OW21475  14.697  11.172   6.915
39879SOL    HW121476  14.688  11.166   7.010
39879SOL    HW221477  14.705  11.082   6.885
39880SOL     OW21478  12.498   4.394  11.439
39880SOL    HW121479  12.454   4.309  11.440
39880SOL    HW221480  12.428   4.458  11.432
39881SOL     OW21481   9.829   5.082   4.861
39881SOL    HW121482   9.917   5.103   4.831
39881SOL    HW221483   9.804   5.004   4.811
39882SOL     OW21484  11.512   6.896   4.640
39882SOL    HW121485  11.471   6.966   4.691
39882SOL    HW221486  11.525   6.933   4.553
39883SOL     OW21487  12.027   5.341   6.831
39883SOL    HW121488  11.945   5.336   6.781
39883SOL    HW221489  12.067   5.424   6.803
39884SOL     OW21490  13.511  13.503   0.985
39884SOL    HW121491  13.506  13.412   1.014
39884SOL    HW221492  13.586  13.540   1.033
39885SOL     OW21493   6.182   6.298  14.404
39885SOL    HW121494   6.237   6.291  14.326
39885SOL    HW221495   6.217   6.373  14.452
39886SOL     OW21496  12.091   3.230   0.729
39886SOL    HW121497  12.049   3.273   0.655
39886SOL    HW221498  12.043   3.262   0.805
39887SOL     OW21499  13.543   0.404  12.408
39887SOL    HW121500  13.498   0.443  12.482
39887SOL    HW221501  13.472   0.373  12.350
39888SOL     OW21502   9.605   5.022   1.666
39888SOL    HW121503   9.528   4.970   1.687
39888SOL    HW221504   9.678   4.976   1.707
39889SOL     OW21505   2.105  14.074   3.065
39889SOL    HW121506   2.110  14.169   3.055
39889SOL    HW221507   2.016  14.052   3.036
39890SOL     OW21508  10.238   2.764  11.633
39890SOL    HW121509  10.168   2.767  11.567
39890SOL    HW221510  10.195   2.793  11.714
39891SOL     OW21511   4.343   2.422  14.027
39891SOL    HW121512   4.358   2.374  13.945
39891SOL    HW221513   4.408   2.492  14.026
39892SOL     OW21514   7.157  12.783   0.495
39892SOL    HW121515   7.065  12.762   0.511
39892SOL    HW221516   7.155  12.856   0.433
39893SOL     OW21517   5.790   5.434   2.050
39893SOL    HW121518   5.840   5.382   1.988
39893SOL    HW221519   5.744   5.499   1.997
39894SOL     OW21520   6.976   5.274   5.537
39894SOL    HW121521   7.035   5.277   5.612
39894SOL    HW221522   7.027   5.230   5.468
39895SOL     OW21523  11.080   6.605   0.904
39895SOL    HW121524  11.031   6.639   0.979
39895SOL    HW221525  11.048   6.515   0.895
39896SOL     OW21526   6.015   4.756  14.527
39896SOL    HW121527   6.028   4.832  14.585
39896SOL    HW221528   5.989   4.795  14.443
39897SOL     OW21529   7.507   5.197   3.215
39897SOL    HW121530   7.533   5.289   3.212
39897SOL    HW221531   7.590   5.149   3.221
39898SOL     OW21532   5.840   9.266   8.515
39898SOL    HW121533   5.765   9.319   8.541
39898SOL    HW221534   5.854   9.206   8.588
39899SOL     OW21535   3.895   9.706  10.198
39899SOL    HW121536   3.816   9.707  10.250
39899SOL    HW221537   3.879   9.771  10.129
39900SOL     OW21538   6.551   4.028   8.199
39900SOL    HW121539   6.484   4.087   8.232
39900SOL    HW221540   6.633   4.077   8.207
39901SOL     OW21541   2.607   1.169   8.569
39901SOL    HW121542   2.569   1.147   8.654
39901SOL    HW221543   2.683   1.223   8.589
39902SOL     OW21544  12.815   9.619   8.690
39902SOL    HW121545  12.747   9.579   8.637
39902SOL    HW221546  12.889   9.630   8.630
39903SOL     OW21547   3.083  12.282  12.918
39903SOL    HW121548   3.139  12.259  12.844
39903SOL    HW221549   3.018  12.342  12.881
39904SOL     OW21550  11.412   8.021   4.573
39904SOL    HW121551  11.317   8.006   4.567
39904SOL    HW221552  11.439   8.035   4.482
39905SOL     OW21553   2.026  13.851  12.735
39905SOL    HW121554   1.995  13.801  12.810
39905SOL    HW221555   1.949  13.896  12.702
39906SOL     OW21556   1.432   8.283   3.934
39906SOL    HW121557   1.501   8.239   3.884
39906SOL    HW221558   1.471   8.365   3.962
39907SOL     OW21559   1.487  13.331  10.590
39907SOL    HW121560   1.560  13.344  10.529
39907SOL    HW221561   1.503  13.394  10.660
39908SOL     OW21562  10.076   0.126  13.332
39908SOL    HW121563  10.111   0.085  13.410
39908SOL    HW221564  10.127   0.090  13.260
39909SOL     OW21565   2.316   7.188   8.037
39909SOL    HW121566   2.404   7.210   8.066
39909SOL    HW221567   2.289   7.263   7.983
39910SOL     OW21568   4.839  13.170   5.110
39910SOL    HW121569   4.783  13.092   5.109
39910SOL    HW221570   4.880  13.169   5.197
39911SOL     OW21571   4.858   8.025   1.680
39911SOL    HW121572   4.920   7.998   1.748
39911SOL    HW221573   4.884   8.115   1.660
39912SOL     OW21574   1.907  12.627   6.032
39912SOL    HW121575   1.940  12.682   5.961
39912SOL    HW221576   1.904  12.539   5.996
39913SOL     OW21577   8.214   2.323  13.411
39913SOL    HW121578   8.207   2.355  13.321
39913SOL    HW221579   8.308   2.309  13.424
39914SOL     OW21580  11.198  13.222   9.560
39914SOL    HW121581  11.170  13.287   9.624
39914SOL    HW221582  11.203  13.140   9.609
39915SOL     OW21583   6.289  10.496   6.624
39915SOL    HW121584   6.205  10.467   6.590
39915SOL    HW221585   6.312  10.572   6.570
39916SOL     OW21586   0.389  13.592   1.283
39916SOL    HW121587   0.451  13.650   1.240
39916SOL    HW221588   0.309  13.598   1.230
39917SOL     OW21589   9.215  13.021   4.754
39917SOL    HW121590   9.145  12.962   4.782
39917SOL    HW221591   9.179  13.109   4.769
39918SOL     OW21592  11.452   5.128   8.881
39918SOL    HW121593  11.424   5.198   8.822
39918SOL    HW221594  11.392   5.056   8.862
39919SOL     OW21595  14.785  12.469  14.155
39919SOL    HW121596  14.715  12.515  14.202
39919SOL    HW221597  14.760  12.475  14.063
39920SOL     OW21598   1.839   8.607   8.784
39920SOL    HW121599   1.754   8.569   8.764
39920SOL    HW221600   1.824   8.702   8.783
39921SOL     OW21601   9.524   1.661   8.600
39921SOL    HW121602   9.581   1.599   8.644
39921SOL    HW221603   9.520   1.736   8.660
39922SOL     OW21604  11.975  10.584   1.042
39922SOL    HW121605  12.049  10.532   1.011
39922SOL    HW221606  11.954  10.547   1.128
39923SOL     OW21607   8.964   5.976   3.118
39923SOL    HW121608   8.924   5.949   3.035
39923SOL    HW221609   8.974   6.071   3.110
39924SOL     OW21610   6.858  14.369   5.104
39924SOL    HW121611   6.843  14.410   5.018
39924SOL    HW221612   6.774  14.330   5.127
39925SOL     OW21613   8.400  12.637  13.042
39925SOL    HW121614   8.392  12.562  13.101
39925SOL    HW221615   8.325  12.629  12.983
39926SOL     OW21616  10.174   9.810  11.396
39926SOL    HW121617  10.114   9.837  11.326
39926SOL    HW221618  10.158   9.717  11.406
39927SOL     OW21619   9.677   1.733  14.261
39927SOL    HW121620   9.672   1.733  14.357
39927SOL    HW221621   9.663   1.825  14.237
39928SOL     OW21622  10.544   9.767  11.187
39928SOL    HW121623  10.475   9.705  11.166
39928SOL    HW221624  10.625   9.720  11.166
39929SOL     OW21625   6.422  10.504   3.584
39929SOL    HW121626   6.509  10.541   3.569
39929SOL    HW221627   6.425  10.470   3.673
39930SOL     OW21628  13.792  14.873   0.896
39930SOL    HW121629  13.746  14.868   0.812
39930SOL    HW221630  13.883   0.018   0.872
39931SOL     OW21631  13.176  13.393  12.909
39931SOL    HW121632  13.186  13.338  12.831
39931SOL    HW221633  13.262  13.389  12.951
39932SOL     OW21634   4.562  13.241   6.935
39932SOL    HW121635   4.513  13.323   6.939
39932SOL    HW221636   4.636  13.260   6.878
39933SOL     OW21637  12.492   0.507   3.156
39933SOL    HW121638  12.404   0.495   3.191
39933SOL    HW221639  12.485   0.583   3.098
39934SOL     OW21640  13.672   5.565  12.436
39934SOL    HW121641  13.583   5.584  12.405
39934SOL    HW221642  13.702   5.647  12.475
39935SOL     OW21643   4.325   5.061   4.414
39935SOL    HW121644   4.322   5.154   4.434
39935SOL    HW221645   4.233   5.034   4.411
39936SOL     OW21646  10.836   7.058  13.700
39936SOL    HW121647  10.880   7.049  13.785
39936SOL    HW221648  10.830   6.968  13.667
39937SOL     OW21649   6.732   6.850   3.711
39937SOL    HW121650   6.768   6.837   3.799
39937SOL    HW221651   6.800   6.816   3.652
39938SOL     OW21652   5.320   7.359   2.148
39938SOL    HW121653   5.291   7.450   2.159
39938SOL    HW221654   5.374   7.341   2.225
39939SOL     OW21655  10.529  11.221  12.227
39939SOL    HW121656  10.522  11.317  12.229
39939SOL    HW221657  10.462  11.193  12.166
39940SOL     OW21658   8.363  10.220  10.845
39940SOL    HW121659   8.360  10.143  10.902
39940SOL    HW221660   8.353  10.295  10.904
39941SOL     OW21661   7.972  14.857   8.157
39941SOL    HW121662   7.912   0.026   8.219
39941SOL    HW221663   8.033  14.808   8.213
39942SOL     OW21664   6.825   5.543   2.508
39942SOL    HW121665   6.826   5.621   2.453
39942SOL    HW221666   6.914   5.536   2.541
39943SOL     OW21667   1.836  12.381  13.593
39943SOL    HW121668   1.798  12.310  13.645
39943SOL    HW221669   1.763  12.416  13.542
39944SOL     OW21670   9.233  11.190   5.851
39944SOL    HW121671   9.218  11.226   5.939
39944SOL    HW221672   9.180  11.110   5.849
39945SOL     OW21673  12.250   8.271  14.768
39945SOL    HW121674  12.289   8.297  14.685
39945SOL    HW221675  12.251   8.351  14.821
39946SOL     OW21676   9.745   6.943  10.109
39946SOL    HW121677   9.687   6.970  10.038
39946SOL    HW221678   9.775   6.855  10.083
39947SOL     OW21679   0.577   5.538  13.484
39947SOL    HW121680   0.648   5.481  13.454
39947SOL    HW221681   0.527   5.483  13.545
39948SOL     OW21682   5.918   7.434   3.602
39948SOL    HW121683   5.973   7.458   3.527
39948SOL    HW221684   5.964   7.362   3.644
39949SOL     OW21685   9.739   0.998   7.492
39949SOL    HW121686   9.672   1.053   7.532
39949SOL    HW221687   9.771   1.048   7.418
39950SOL     OW21688   2.818   2.537   2.227
39950SOL    HW121689   2.890   2.481   2.198
39950SOL    HW221690   2.813   2.606   2.161
39951SOL     OW21691   2.406  12.345   3.460
39951SOL    HW121692   2.372  12.403   3.529
39951SOL    HW221693   2.481  12.302   3.501
39952SOL     OW21694   3.253   9.604   6.008
39952SOL    HW121695   3.180   9.590   5.948
39952SOL    HW221696   3.327   9.623   5.952
39953SOL     OW21697   6.267  11.121  10.295
39953SOL    HW121698   6.336  11.170  10.339
39953SOL    HW221699   6.239  11.055  10.359
39954SOL     OW21700   9.319   5.568   9.761
39954SOL    HW121701   9.292   5.648   9.717
39954SOL    HW221702   9.401   5.544   9.718
39955SOL     OW21703   0.346   1.593   9.834
39955SOL    HW121704   0.402   1.604   9.911
39955SOL    HW221705   0.359   1.673   9.783
39956SOL     OW21706   5.233   8.182   3.421
39956SOL    HW121707   5.170   8.121   3.384
39956SOL    HW221708   5.203   8.268   3.392
39957SOL     OW21709   0.797  10.248  10.226
39957SOL    HW121710   0.855  10.193  10.174
39957SOL    HW221711   0.751  10.186  10.283
39958SOL     OW21712   4.144   0.709   9.953
39958SOL    HW121713   4.122   0.801   9.941
39958SOL    HW221714   4.085   0.679  10.022
39959SOL     OW21715   0.062  12.677   2.388
39959SOL    HW121716  14.845  12.709   2.397
39959SOL    HW221717   0.064  12.597   2.439
39960SOL     OW21718   6.673  11.402   9.270
39960SOL    HW121719   6.746  11.392   9.208
39960SOL    HW221720   6.629  11.318   9.270
39961SOL     OW21721  13.103   4.546   9.097
39961SOL    HW121722  13.104   4.493   9.177
39961SOL    HW221723  13.189   4.588   9.095
39962SOL     OW21724   9.695   4.485   6.389
39962SOL    HW121725   9.749   4.460   6.464
39962SOL    HW221726   9.606   4.461   6.415
39963SOL     OW21727   3.063  12.820  13.044
39963SOL    HW121728   2.987  12.763  13.057
39963SOL    HW221729   3.135  12.759  13.025
39964SOL     OW21730  12.403  12.501   6.033
39964SOL    HW121731  12.330  12.474   5.978
39964SOL    HW221732  12.457  12.422   6.043
39965SOL     OW21733   9.751  14.247  10.140
39965SOL    HW121734   9.656  14.259  10.130
39965SOL    HW221735   9.776  14.314  10.203
39966SOL     OW21736   9.852   0.004   5.322
39966SOL    HW121737   9.898  14.802   5.284
39966SOL    HW221738   9.921   0.070   5.334
39967SOL     OW21739  13.825   6.329   9.966
39967SOL    HW121740  13.812   6.406   9.911
39967SOL    HW221741  13.889   6.358  10.032
39968SOL     OW21742   8.827   5.206   8.589
39968SOL    HW121743   8.911   5.227   8.629
39968SOL    HW221744   8.763   5.214   8.660
39969SOL     OW21745   7.517  11.052  10.326
39969SOL    HW121746   7.427  11.036  10.356
39969SOL    HW221747   7.548  10.965  10.300
39970SOL     OW21748  12.126   2.484   0.445
39970SOL    HW121749  12.140   2.466   0.538
39970SOL    HW221750  12.155   2.574   0.433
39971SOL     OW21751   1.407  13.784  11.632
39971SOL    HW121752   1.445  13.814  11.714
39971SOL    HW221753   1.353  13.857  11.603
39972SOL     OW21754   0.930   7.887   6.654
39972SOL    HW121755   0.846   7.880   6.700
39972SOL    HW221756   0.941   7.803   6.610
39973SOL     OW21757   5.921  12.381   6.965
39973SOL    HW121758   5.959  12.411   7.048
39973SOL    HW221759   5.865  12.307   6.989
39974SOL     OW21760   0.273   4.920   0.345
39974SOL    HW121761   0.197   4.949   0.295
39974SOL    HW221762   0.344   4.915   0.281
39975SOL     OW21763  14.047  12.944   6.635
39975SOL    HW121764  14.008  12.910   6.717
39975SOL    HW221765  14.078  13.031   6.658
39976SOL     OW21766   3.896   4.750   7.304
39976SOL    HW121767   3.937   4.692   7.368
39976SOL    HW221768   3.906   4.705   7.220
39977SOL     OW21769   2.846   1.680  12.328
39977SOL    HW121770   2.916   1.691  12.393
39977SOL    HW221771   2.886   1.629  12.258
39978SOL     OW21772   3.180  12.050   0.148
39978SOL    HW121773   3.085  12.052   0.135
39978SOL    HW221774   3.216  12.077   0.064
39979SOL     OW21775   9.998   3.068   4.945
39979SOL    HW121776   9.988   3.160   4.921
39979SOL    HW221777   9.918   3.026   4.913
39980SOL     OW21778   6.743  13.638  12.947
39980SOL    HW121779   6.782  13.555  12.977
39980SOL    HW221780   6.783  13.654  12.862
39981SOL     OW21781  12.614   2.143   9.377
39981SOL    HW121782  12.538   2.176   9.330
39981SOL    HW221783  12.684   2.204   9.356
39982SOL     OW21784   4.962   9.988   4.647
39982SOL    HW121785   5.013   9.945   4.715
39982SOL    HW221786   4.880  10.013   4.690
39983SOL     OW21787   5.084   5.935  12.513
39983SOL    HW121788   5.092   6.011  12.571
39983SOL    HW221789   5.094   5.971  12.425
39984SOL     OW21790   6.393   2.382   2.853
39984SOL    HW121791   6.369   2.381   2.760
39984SOL    HW221792   6.488   2.397   2.853
39985SOL     OW21793  13.575   6.594   1.048
39985SOL    HW121794  13.599   6.513   1.002
39985SOL    HW221795  13.481   6.602   1.035
39986SOL     OW21796   1.617   2.679   4.310
39986SOL    HW121797   1.684   2.701   4.244
39986SOL    HW221798   1.542   2.651   4.258
39987SOL     OW21799   7.183  14.099   0.888
39987SOL    HW121800   7.132  14.156   0.831
39987SOL    HW221801   7.207  14.024   0.833
39988SOL     OW21802  14.653   3.820   2.064
39988SOL    HW121803  14.573   3.845   2.017
39988SOL    HW221804  14.723   3.859   2.012
39989SOL     OW21805   5.041   2.502   4.648
39989SOL    HW121806   5.013   2.582   4.692
39989SOL    HW221807   4.988   2.498   4.569
39990SOL     OW21808   9.576   0.603   8.534
39990SOL    HW121809   9.635   0.651   8.592
39990SOL    HW221810   9.534   0.538   8.590
39991SOL     OW21811   7.466   1.673   7.055
39991SOL    HW121812   7.439   1.616   7.127
39991SOL    HW221813   7.439   1.761   7.081
39992SOL     OW21814   7.025  13.400   8.890
39992SOL    HW121815   6.987  13.315   8.910
39992SOL    HW221816   7.073  13.424   8.969
39993SOL     OW21817   9.154  11.948  10.192
39993SOL    HW121818   9.095  12.002  10.141
39993SOL    HW221819   9.165  11.869  10.139
39994SOL     OW21820  14.186   4.729   9.043
39994SOL    HW121821  14.122   4.662   9.067
39994SOL    HW221822  14.152   4.810   9.082
39995SOL     OW21823   6.990   6.160   3.592
39995SOL    HW121824   6.954   6.213   3.662
39995SOL    HW221825   6.979   6.212   3.513
39996SOL     OW21826   7.031   1.227  11.682
39996SOL    HW121827   7.035   1.137  11.714
39996SOL    HW221828   6.940   1.253  11.693
39997SOL     OW21829   4.561   5.552   2.879
39997SOL    HW121830   4.587   5.476   2.932
39997SOL    HW221831   4.466   5.548   2.877
39998SOL     OW21832   4.624   5.913   2.159
39998SOL    HW121833   4.649   5.832   2.204
39998SOL    HW221834   4.644   5.982   2.222
39999SOL     OW21835   7.808   7.455   8.869
39999SOL    HW121836   7.850   7.376   8.835
39999SOL    HW221837   7.735   7.423   8.921
40000SOL     OW21838   4.874  12.338   3.006
40000SOL    HW121839   4.800  12.301   2.957
40000SOL    HW221840   4.938  12.267   3.011
40001SOL     OW21841  13.430   9.709   9.929
40001SOL    HW121842  13.437   9.618   9.958
40001SOL    HW221843  13.448   9.706   9.835
40002SOL     OW21844  10.869   9.583   7.748
40002SOL    HW121845  10.910   9.510   7.795
40002SOL    HW221846  10.931   9.604   7.677
40003SOL     OW21847   1.101  10.460   0.368
40003SOL    HW121848   1.104  10.417   0.282
40003SOL    HW221849   1.007  10.468   0.387
40004SOL     OW21850   1.493  13.230   2.168
40004SOL    HW121851   1.528  13.144   2.192
40004SOL    HW221852   1.565  13.291   2.187
40005SOL     OW21853   3.803  14.826  14.382
40005SOL    HW121854   3.739  14.798  14.317
40005SOL    HW221855   3.758  14.818  14.466
40006SOL     OW21856   5.778  14.817   1.652
40006SOL    HW121857   5.732  14.836   1.734
40006SOL    HW221858   5.866  14.790   1.679
40007SOL     OW21859   3.832   0.443   3.319
40007SOL    HW121860   3.801   0.370   3.267
40007SOL    HW221861   3.759   0.505   3.320
40008SOL     OW21862   3.750   2.318   1.058
40008SOL    HW121863   3.678   2.373   1.026
40008SOL    HW221864   3.827   2.376   1.057
40009SOL     OW21865   3.642   9.380  12.655
40009SOL    HW121866   3.698   9.437  12.602
40009SOL    HW221867   3.677   9.292  12.641
40010SOL     OW21868   8.367  13.808   8.648
40010SOL    HW121869   8.402  13.742   8.708
40010SOL    HW221870   8.408  13.890   8.675
40011SOL     OW21871   7.499   2.564   7.989
40011SOL    HW121872   7.515   2.595   8.079
40011SOL    HW221873   7.489   2.469   7.998
40012SOL     OW21874   0.802   9.490  13.075
40012SOL    HW121875   0.848   9.418  13.117
40012SOL    HW221876   0.867   9.560  13.068
40013SOL     OW21877   7.984   1.534  14.235
40013SOL    HW121878   8.028   1.612  14.201
40013SOL    HW221879   7.899   1.566  14.266
40014SOL     OW21880   9.770  13.843   7.839
40014SOL    HW121881   9.754  13.761   7.792
40014SOL    HW221882   9.731  13.829   7.925
40015SOL     OW21883   5.280   6.179   7.283
40015SOL    HW121884   5.213   6.115   7.308
40015SOL    HW221885   5.336   6.132   7.222
40016SOL     OW21886   9.822  13.336   4.954
40016SOL    HW121887   9.908  13.376   4.944
40016SOL    HW221888   9.840  13.248   4.988
40017SOL     OW21889   6.359   6.744   9.362
40017SOL    HW121890   6.322   6.832   9.352
40017SOL    HW221891   6.289   6.686   9.334
40018SOL     OW21892   7.225   2.899   9.598
40018SOL    HW121893   7.130   2.907   9.607
40018SOL    HW221894   7.255   2.988   9.578
40019SOL     OW21895   2.866   4.613   4.365
40019SOL    HW121896   2.949   4.659   4.348
40019SOL    HW221897   2.808   4.640   4.294
40020SOL     OW21898   8.820   2.532   7.429
40020SOL    HW121899   8.878   2.469   7.386
40020SOL    HW221900   8.878   2.600   7.462
40021SOL     OW21901   2.864   6.505  11.718
40021SOL    HW121902   2.917   6.426  11.724
40021SOL    HW221903   2.812   6.505  11.799
40022SOL     OW21904   8.015   4.675   1.578
40022SOL    HW121905   8.040   4.767   1.587
40022SOL    HW221906   8.038   4.651   1.489
40023SOL     OW21907   2.955   5.974  13.269
40023SOL    HW121908   2.970   5.914  13.341
40023SOL    HW221909   2.886   5.932  13.217
40024SOL     OW21910   4.194   5.649   6.682
40024SOL    HW121911   4.207   5.735   6.643
40024SOL    HW221912   4.281   5.623   6.712
40025SOL     OW21913   3.278  11.587   6.912
40025SOL    HW121914   3.351  11.563   6.855
40025SOL    HW221915   3.199  11.564   6.862
40026SOL     OW21916   5.435  10.573   6.083
40026SOL    HW121917   5.446  10.595   5.990
40026SOL    HW221918   5.367  10.633   6.114
40027SOL     OW21919   5.784   2.980   0.005
40027SOL    HW121920   5.698   2.995  14.839
40027SOL    HW221921   5.804   2.889  14.857
40028SOL     OW21922   5.579  12.696   7.884
40028SOL    HW121923   5.674  12.713   7.885
40028SOL    HW221924   5.541  12.765   7.937
40029SOL     OW21925  10.257   8.371  11.845
40029SOL    HW121926  10.188   8.367  11.779
40029SOL    HW221927  10.224   8.318  11.918
40030SOL     OW21928   8.155  13.796  10.267
40030SOL    HW121929   8.210  13.817  10.192
40030SOL    HW221930   8.092  13.868  10.272
40031SOL     OW21931   2.268  11.068   6.571
40031SOL    HW121932   2.278  11.148   6.520
40031SOL    HW221933   2.222  11.008   6.512
40032SOL     OW21934  13.011   6.120  13.224
40032SOL    HW121935  12.942   6.093  13.285
40032SOL    HW221936  13.092   6.089  13.264
40033SOL     OW21937  12.562   9.237   1.665
40033SOL    HW121938  12.642   9.273   1.625
40033SOL    HW221939  12.504   9.221   1.591
40034SOL     OW21940   3.474   8.987  10.039
40034SOL    HW121941   3.511   8.931   9.971
40034SOL    HW221942   3.447   9.067   9.993
40035SOL     OW21943   9.840   8.603  14.043
40035SOL    HW121944   9.914   8.607  14.104
40035SOL    HW221945   9.832   8.511  14.020
40036SOL     OW21946   2.851   8.813  10.407
40036SOL    HW121947   2.867   8.728  10.449
40036SOL    HW221948   2.811   8.791  10.323
40037SOL     OW21949   0.282   7.125   9.579
40037SOL    HW121950   0.289   7.033   9.553
40037SOL    HW221951   0.248   7.122   9.668
40038SOL     OW21952   6.276  13.761  14.007
40038SOL    HW121953   6.284  13.851  14.037
40038SOL    HW221954   6.243  13.768  13.918
40039SOL     OW21955  10.759   8.302  12.092
40039SOL    HW121956  10.771   8.211  12.063
40039SOL    HW221957  10.767   8.354  12.013
40040SOL     OW21958   0.066  14.572   7.458
40040SOL    HW121959   0.121  14.558   7.535
40040SOL    HW221960   0.128  14.598   7.389
40041SOL     OW21961  13.085   2.531   1.892
40041SOL    HW121962  13.155   2.468   1.911
40041SOL    HW221963  13.013   2.478   1.858
40042SOL     OW21964   3.997  12.752   9.305
40042SOL    HW121965   3.989  12.818   9.236
40042SOL    HW221966   4.085  12.716   9.293
40043SOL     OW21967  10.265  10.858   8.223
40043SOL    HW121968  10.256  10.950   8.200
40043SOL    HW221969  10.325  10.823   8.158
40044SOL     OW21970   1.333   2.279   6.560
40044SOL    HW121971   1.267   2.273   6.629
40044SOL    HW221972   1.375   2.193   6.560
40045SOL     OW21973   7.099  11.554   2.229
40045SOL    HW121974   7.083  11.649   2.229
40045SOL    HW221975   7.165  11.541   2.296
40046SOL     OW21976   3.134  11.645   2.660
40046SOL    HW121977   3.152  11.644   2.566
40046SOL    HW221978   3.190  11.575   2.695
40047SOL     OW21979   6.912  11.155   9.326
40047SOL    HW121980   6.927  11.065   9.354
40047SOL    HW221981   6.906  11.149   9.230
40048SOL     OW21982  10.685   9.719   6.775
40048SOL    HW121983  10.758   9.670   6.738
40048SOL    HW221984  10.668   9.679   6.860
40049SOL     OW21985   4.178   0.849   1.480
40049SOL    HW121986   4.230   0.903   1.540
40049SOL    HW221987   4.112   0.809   1.535
40050SOL     OW21988   7.276   4.806   4.140
40050SOL    HW121989   7.260   4.844   4.226
40050SOL    HW221990   7.206   4.741   4.130
40051SOL     OW21991   2.069  11.448  12.082
40051SOL    HW121992   2.083  11.355  12.095
40051SOL    HW221993   2.061  11.458  11.987
40052SOL     OW21994   9.702  11.808   5.835
40052SOL    HW121995   9.686  11.755   5.913
40052SOL    HW221996   9.780  11.859   5.857
40053SOL     OW21997   2.506  12.174   8.011
40053SOL    HW121998   2.420  12.187   7.972
40053SOL    HW221999   2.526  12.081   7.995
40054SOL     OW22000   4.002   2.071   7.590
40054SOL    HW122001   4.019   2.159   7.558
40054SOL    HW222002   3.907   2.061   7.585
40055SOL     OW22003  12.646   5.152  10.430
40055SOL    HW122004  12.557   5.117  10.438
40055SOL    HW222005  12.695   5.084  10.385
40056SOL     OW22006   2.174   6.308   9.404
40056SOL    HW122007   2.231   6.242   9.365
40056SOL    HW222008   2.224   6.389   9.398
40057SOL     OW22009  12.207   7.758   6.275
40057SOL    HW122010  12.250   7.782   6.356
40057SOL    HW222011  12.113   7.761   6.295
40058SOL     OW22012   7.418  13.280   1.548
40058SOL    HW122013   7.449  13.299   1.459
40058SOL    HW222014   7.484  13.318   1.605
40059SOL     OW22015  11.976   3.907   7.745
40059SOL    HW122016  11.957   3.821   7.707
40059SOL    HW222017  11.895   3.956   7.736
40060SOL     OW22018  14.639   8.633   2.840
40060SOL    HW122019  14.609   8.702   2.899
40060SOL    HW222020  14.565   8.574   2.833
40061SOL     OW22021  12.984   2.569   1.610
40061SOL    HW122022  12.939   2.515   1.675
40061SOL    HW222023  13.071   2.530   1.603
40062SOL     OW22024  11.185   3.508   6.995
40062SOL    HW122025  11.248   3.458   6.942
40062SOL    HW222026  11.149   3.573   6.935
40063SOL     OW22027   1.531   2.372   5.297
40063SOL    HW122028   1.562   2.299   5.351
40063SOL    HW222029   1.606   2.394   5.242
40064SOL     OW22030   9.467  13.769   4.080
40064SOL    HW122031   9.439  13.799   3.994
40064SOL    HW222032   9.481  13.850   4.130
40065SOL     OW22033  11.981  10.470   3.633
40065SOL    HW122034  12.005  10.487   3.542
40065SOL    HW222035  11.945  10.553   3.664
40066SOL     OW22036  11.194   4.651   8.725
40066SOL    HW122037  11.220   4.616   8.640
40066SOL    HW222038  11.232   4.590   8.789
40067SOL     OW22039   2.249   3.287  13.709
40067SOL    HW122040   2.158   3.314  13.694
40067SOL    HW222041   2.246   3.192  13.703
40068SOL     OW22042  12.446  13.976   4.975
40068SOL    HW122043  12.360  13.952   5.010
40068SOL    HW222044  12.502  13.902   4.998
40069SOL     OW22045  13.692   5.250   5.105
40069SOL    HW122046  13.615   5.197   5.125
40069SOL    HW222047  13.710   5.296   5.186
40070SOL     OW22048  14.773   7.630   9.021
40070SOL    HW122049  14.769   7.719   9.056
40070SOL    HW222050  14.835   7.584   9.078
40071SOL     OW22051   5.689   5.954   5.303
40071SOL    HW122052   5.613   5.929   5.250
40071SOL    HW222053   5.744   5.876   5.304
40072SOL     OW22054   1.884  11.654  14.285
40072SOL    HW122055   1.826  11.715  14.331
40072SOL    HW222056   1.955  11.709  14.251
40073SOL     OW22057   8.697   4.832   2.111
40073SOL    HW122058   8.632   4.778   2.067
40073SOL    HW222059   8.752   4.770   2.158
40074SOL     OW22060  10.918   3.373   7.844
40074SOL    HW122061  10.967   3.437   7.792
40074SOL    HW222062  10.826   3.397   7.830
40075SOL     OW22063   7.066  11.974   0.500
40075SOL    HW122064   7.084  12.068   0.501
40075SOL    HW222065   7.042  11.955   0.410
40076SOL     OW22066  11.786   7.841   2.390
40076SOL    HW122067  11.741   7.764   2.425
40076SOL    HW222068  11.872   7.810   2.363
40077SOL     OW22069  10.348   8.669   2.683
40077SOL    HW122070  10.336   8.593   2.627
40077SOL    HW222071  10.287   8.734   2.648
40078SOL     OW22072   9.762   9.417  14.399
40078SOL    HW122073   9.722   9.334  14.423
40078SOL    HW222074   9.787   9.405  14.307
40079SOL     OW22075   2.224   1.867   3.437
40079SOL    HW122076   2.240   1.950   3.481
40079SOL    HW222077   2.305   1.817   3.448
40080SOL     OW22078   8.929  10.082  10.981
40080SOL    HW122079   8.875  10.010  10.950
40080SOL    HW222080   8.903  10.157  10.927
40081SOL     OW22081   8.017  11.698   9.599
40081SOL    HW122082   7.926  11.710   9.572
40081SOL    HW222083   8.047  11.786   9.622
40082SOL     OW22084   8.269   6.266  10.174
40082SOL    HW122085   8.196   6.249  10.114
40082SOL    HW222086   8.227   6.289  10.257
40083SOL     OW22087   6.705   6.762   1.223
40083SOL    HW122088   6.693   6.850   1.260
40083SOL    HW222089   6.631   6.752   1.163
40084SOL     OW22090  13.534  14.518   6.437
40084SOL    HW122091  13.529  14.445   6.375
40084SOL    HW222092  13.467  14.579   6.407
40085SOL     OW22093   5.231   2.655   4.328
40085SOL    HW122094   5.175   2.578   4.320
40085SOL    HW222095   5.184   2.713   4.388
40086SOL     OW22096  12.362   1.926   4.504
40086SOL    HW122097  12.329   1.914   4.415
40086SOL    HW222098  12.329   1.851   4.553
40087SOL     OW22099   8.853   9.065   8.708
40087SOL    HW122100   8.903   9.024   8.779
40087SOL    HW222101   8.762   9.046   8.729
40088SOL     OW22102  10.480   4.143  10.497
40088SOL    HW122103  10.527   4.224  10.478
40088SOL    HW222104  10.437   4.120  10.415
40089SOL     OW22105   3.977   7.434   5.805
40089SOL    HW122106   3.929   7.443   5.888
40089SOL    HW222107   4.044   7.369   5.824
40090SOL     OW22108   3.375  11.110  10.998
40090SOL    HW122109   3.313  11.055  11.046
40090SOL    HW222110   3.436  11.142  11.064
40091SOL     OW22111   4.554   1.461  14.140
40091SOL    HW122112   4.473   1.510  14.128
40091SOL    HW222113   4.622   1.528  14.147
40092SOL     OW22114  13.901   6.537   5.510
40092SOL    HW122115  13.908   6.602   5.580
40092SOL    HW222116  13.913   6.453   5.554
40093SOL     OW22117  10.070   1.627  10.933
40093SOL    HW122118  10.114   1.646  10.851
40093SOL    HW222119  10.073   1.531  10.940
40094SOL     OW22120   8.163  14.428   1.748
40094SOL    HW122121   8.155  14.414   1.842
40094SOL    HW222122   8.105  14.501   1.729
40095SOL     OW22123   5.770   6.031   6.229
40095SOL    HW122124   5.813   5.946   6.222
40095SOL    HW222125   5.839   6.091   6.259
40096SOL     OW22126   2.504   7.928  13.266
40096SOL    HW122127   2.598   7.921  13.255
40096SOL    HW222128   2.469   7.842  13.243
40097SOL     OW22129   4.370  12.431   8.786
40097SOL    HW122130   4.331  12.434   8.698
40097SOL    HW222131   4.350  12.516   8.824
40098SOL     OW22132   9.209   2.275  14.788
40098SOL    HW122133   9.301   2.298  14.802
40098SOL    HW222134   9.204   2.183  14.814
40099SOL     OW22135   8.056   0.616   6.558
40099SOL    HW122136   8.011   0.543   6.516
40099SOL    HW222137   8.087   0.669   6.485
40100SOL     OW22138   1.339   9.982  14.447
40100SOL    HW122139   1.303  10.044  14.384
40100SOL    HW222140   1.417  10.024  14.481
40101SOL     OW22141  14.487   4.483  10.795
40101SOL    HW122142  14.548   4.545  10.755
40101SOL    HW222143  14.480   4.512  10.886
40102SOL     OW22144   8.934   9.798   7.979
40102SOL    HW122145   8.996   9.838   8.040
40102SOL    HW222146   8.957   9.705   7.978
40103SOL     OW22147  12.780  12.904   6.359
40103SOL    HW122148  12.823  12.957   6.426
40103SOL    HW222149  12.686  12.913   6.378
40104SOL     OW22150   8.136  13.852   6.006
40104SOL    HW122151   8.113  13.761   6.023
40104SOL    HW222152   8.225  13.861   6.039
40105SOL     OW22153  11.677   3.610   9.329
40105SOL    HW122154  11.652   3.522   9.301
40105SOL    HW222155  11.730   3.644   9.257
40106SOL     OW22156   7.456   8.369   5.432
40106SOL    HW122157   7.475   8.370   5.525
40106SOL    HW222158   7.541   8.377   5.390
40107SOL     OW22159   3.493   8.523   3.484
40107SOL    HW122160   3.550   8.558   3.416
40107SOL    HW222161   3.516   8.430   3.489
40108SOL     OW22162   7.108  13.036   3.133
40108SOL    HW122163   7.110  13.128   3.159
40108SOL    HW222164   7.076  13.038   3.043
40109SOL     OW22165   8.129  13.502  13.935
40109SOL    HW122166   8.168  13.556  13.866
40109SOL    HW222167   8.141  13.412  13.905
40110SOL     OW22168   1.748  11.286   5.161
40110SOL    HW122169   1.730  11.198   5.129
40110SOL    HW222170   1.662  11.319   5.189
40111SOL     OW22171  10.530  11.726   6.499
40111SOL    HW122172  10.590  11.661   6.463
40111SOL    HW222173  10.575  11.760   6.576
40112SOL     OW22174   5.230   1.556   3.823
40112SOL    HW122175   5.138   1.531   3.807
40112SOL    HW222176   5.239   1.640   3.778
40113SOL     OW22177  12.095  14.820   0.744
40113SOL    HW122178  12.103  14.779   0.657
40113SOL    HW222179  12.042   0.025   0.728
40114SOL     OW22180   4.796   4.515   4.309
40114SOL    HW122181   4.886   4.514   4.341
40114SOL    HW222182   4.797   4.455   4.234
40115SOL     OW22183   5.095  12.616  11.107
40115SOL    HW122184   5.114  12.559  11.033
40115SOL    HW222185   5.049  12.560  11.169
40116SOL     OW22186   4.939   8.577  11.606
40116SOL    HW122187   4.971   8.534  11.685
40116SOL    HW222188   4.958   8.670  11.620
40117SOL     OW22189   9.038   8.652  12.619
40117SOL    HW122190   9.096   8.728  12.612
40117SOL    HW222191   9.005   8.655  12.709
40118SOL     OW22192   9.647   7.327  14.237
40118SOL    HW122193   9.553   7.320  14.224
40118SOL    HW222194   9.660   7.312  14.330
40119SOL     OW22195   0.355  14.807   3.213
40119SOL    HW122196   0.268  14.819   3.174
40119SOL    HW222197   0.369  14.712   3.212
40120SOL     OW22198  13.792  14.737  10.853
40120SOL    HW122199  13.871  14.711  10.901
40120SOL    HW222200  13.757  14.809  10.905
40121SOL     OW22201   3.180   8.578   6.874
40121SOL    HW122202   3.207   8.491   6.846
40121SOL    HW222203   3.236   8.638   6.824
40122SOL     OW22204  11.763   5.244  13.750
40122SOL    HW122205  11.839   5.226  13.805
40122SOL    HW222206  11.691   5.257  13.813
40123SOL     OW22207   8.825   0.855   0.494
40123SOL    HW122208   8.825   0.772   0.445
40123SOL    HW222209   8.916   0.885   0.489
40124SOL     OW22210  13.305   5.278  10.742
40124SOL    HW122211  13.358   5.244  10.814
40124SOL    HW222212  13.224   5.308  10.783
40125SOL     OW22213   1.598  10.454   7.700
40125SOL    HW122214   1.671  10.410   7.744
40125SOL    HW222215   1.545  10.491   7.770
40126SOL     OW22216  11.428   3.905  13.480
40126SOL    HW122217  11.365   3.956  13.531
40126SOL    HW222218  11.389   3.897  13.393
40127SOL     OW22219   2.682   8.659   0.714
40127SOL    HW122220   2.719   8.740   0.749
40127SOL    HW222221   2.635   8.620   0.787
40128SOL     OW22222  12.630   9.609  13.130
40128SOL    HW122223  12.640   9.626  13.223
40128SOL    HW222224  12.536   9.604  13.116
40129SOL     OW22225   4.452   4.457   4.780
40129SOL    HW122226   4.418   4.381   4.827
40129SOL    HW222227   4.547   4.449   4.788
40130SOL     OW22228   1.046   3.085  13.449
40130SOL    HW122229   1.075   3.160  13.501
40130SOL    HW222230   1.009   3.124  13.371
40131SOL     OW22231   1.457   4.098   3.036
40131SOL    HW122232   1.521   4.163   3.068
40131SOL    HW222233   1.387   4.100   3.101
40132SOL     OW22234   2.962   5.888   0.665
40132SOL    HW122235   2.889   5.830   0.645
40132SOL    HW222236   2.948   5.964   0.609
40133SOL     OW22237   9.734  10.016   2.757
40133SOL    HW122238   9.719  10.087   2.695
40133SOL    HW222239   9.685  10.040   2.835
40134SOL     OW22240  13.331  12.294   1.653
40134SOL    HW122241  13.388  12.348   1.708
40134SOL    HW222242  13.259  12.352   1.629
40135SOL     OW22243   2.200   3.166   3.765
40135SOL    HW122244   2.160   3.245   3.802
40135SOL    HW222245   2.268   3.199   3.706
40136SOL     OW22246   8.657   7.402  12.141
40136SOL    HW122247   8.590   7.455  12.184
40136SOL    HW222248   8.663   7.439  12.053
40137SOL     OW22249   2.722   8.525   4.973
40137SOL    HW122250   2.740   8.619   4.983
40137SOL    HW222251   2.794   8.482   5.019
40138SOL     OW22252  10.118  11.095  11.699
40138SOL    HW122253  10.209  11.107  11.725
40138SOL    HW222254  10.088  11.020  11.751
40139SOL     OW22255   4.168   0.610   4.742
40139SOL    HW122256   4.210   0.694   4.764
40139SOL    HW222257   4.209   0.547   4.800
40140SOL     OW22258   3.093  14.392   4.718
40140SOL    HW122259   3.129  14.351   4.797
40140SOL    HW222260   3.150  14.467   4.701
40141SOL     OW22261   5.913   1.485  10.248
40141SOL    HW122262   5.824   1.483  10.213
40141SOL    HW222263   5.957   1.412  10.204
40142SOL     OW22264   6.923  10.071  10.944
40142SOL    HW122265   6.981  10.098  10.872
40142SOL    HW222266   6.967   9.995  10.982
40143SOL     OW22267  11.745  10.226  10.000
40143SOL    HW122268  11.659  10.234   9.958
40143SOL    HW222269  11.752  10.133  10.023
40144SOL     OW22270   4.694  13.673  14.322
40144SOL    HW122271   4.737  13.710  14.244
40144SOL    HW222272   4.639  13.603  14.287
40145SOL     OW22273  11.318   4.599   9.758
40145SOL    HW122274  11.321   4.624   9.665
40145SOL    HW222275  11.367   4.518   9.763
40146SOL     OW22276   2.809   6.986   6.787
40146SOL    HW122277   2.877   7.053   6.794
40146SOL    HW222278   2.762   6.991   6.870
40147SOL     OW22279  13.132   0.142   0.635
40147SOL    HW122280  13.188   0.085   0.583
40147SOL    HW222281  13.102   0.086   0.707
40148SOL     OW22282  11.575   8.324   4.438
40148SOL    HW122283  11.557   8.320   4.532
40148SOL    HW222284  11.514   8.260   4.400
40149SOL     OW22285   5.675   0.444   4.204
40149SOL    HW122286   5.720   0.455   4.120
40149SOL    HW222287   5.693   0.525   4.252
40150SOL     OW22288   6.937   0.001   1.557
40150SOL    HW122289   7.025   0.000   1.519
40150SOL    HW222290   6.912  14.781   1.562
40151SOL     OW22291   8.348   9.108  13.082
40151SOL    HW122292   8.419   9.086  13.143
40151SOL    HW222293   8.340   9.031  13.026
40152SOL     OW22294   2.283   3.993   7.172
40152SOL    HW122295   2.369   4.019   7.204
40152SOL    HW222296   2.300   3.922   7.111
40153SOL     OW22297   3.585   9.727   0.545
40153SOL    HW122298   3.675   9.748   0.520
40153SOL    HW222299   3.534   9.746   0.466
40154SOL     OW22300   4.376   3.001   2.126
40154SOL    HW122301   4.285   3.025   2.140
40154SOL    HW222302   4.380   2.976   2.033
40155SOL     OW22303  12.952   3.259   8.976
40155SOL    HW122304  12.930   3.340   8.929
40155SOL    HW222305  13.046   3.266   8.993
40156SOL     OW22306  12.428   4.821   1.434
40156SOL    HW122307  12.389   4.897   1.478
40156SOL    HW222308  12.355   4.778   1.391
40157SOL     OW22309   3.485  11.481   2.023
40157SOL    HW122310   3.551  11.412   2.017
40157SOL    HW222311   3.443  11.467   2.108
40158SOL     OW22312  14.370   0.455   4.365
40158SOL    HW122313  14.458   0.426   4.388
40158SOL    HW222314  14.356   0.420   4.277
40159SOL     OW22315   0.963  13.472  14.075
40159SOL    HW122316   1.040  13.490  14.022
40159SOL    HW222317   0.997  13.457  14.163
40160SOL     OW22318  13.009   6.273   6.224
40160SOL    HW122319  12.957   6.239   6.298
40160SOL    HW222320  12.948   6.332   6.179
40161SOL     OW22321  12.845   6.900   9.022
40161SOL    HW122322  12.769   6.920   9.076
40161SOL    HW222323  12.808   6.870   8.939
40162SOL     OW22324  10.262   5.055  11.140
40162SOL    HW122325  10.311   5.051  11.058
40162SOL    HW222326  10.170   5.064  11.113
40163SOL     OW22327   8.448   0.883   8.940
40163SOL    HW122328   8.392   0.815   8.901
40163SOL    HW222329   8.433   0.875   9.034
40164SOL     OW22330   5.610   2.217  12.117
40164SOL    HW122331   5.637   2.306  12.139
40164SOL    HW222332   5.647   2.163  12.187
40165SOL     OW22333  11.839  11.169  13.576
40165SOL    HW122334  11.929  11.192  13.599
40165SOL    HW222335  11.827  11.080  13.607
40166SOL     OW22336  10.268   1.921   8.294
40166SOL    HW122337  10.259   2.008   8.256
40166SOL    HW222338  10.315   1.870   8.227
40167SOL     OW22339   0.070  11.194   6.448
40167SOL    HW122340   0.031  11.275   6.416
40167SOL    HW222341   0.113  11.219   6.530
40168SOL     OW22342  13.777  11.722   0.326
40168SOL    HW122343  13.765  11.814   0.303
40168SOL    HW222344  13.868  11.703   0.303
40169SOL     OW22345   2.937   0.139  11.163
40169SOL    HW122346   2.983   0.160  11.244
40169SOL    HW222347   2.858   0.092  11.192
40170SOL     OW22348   6.954   4.176   9.632
40170SOL    HW122349   6.889   4.243   9.654
40170SOL    HW222350   7.039   4.218   9.648
40171SOL     OW22351   6.739   1.451   8.223
40171SOL    HW122352   6.809   1.515   8.241
40171SOL    HW222353   6.778   1.366   8.245
40172SOL     OW22354   5.387  10.828   0.983
40172SOL    HW122355   5.315  10.889   1.004
40172SOL    HW222356   5.352  10.742   1.003
40173SOL     OW22357  12.202   8.383   9.832
40173SOL    HW122358  12.206   8.380   9.736
40173SOL    HW222359  12.288   8.353   9.861
40174SOL     OW22360   8.338  10.430   2.446
40174SOL    HW122361   8.413  10.382   2.480
40174SOL    HW222362   8.373  10.514   2.419
40175SOL     OW22363   2.605   0.114   7.314
40175SOL    HW122364   2.541   0.178   7.283
40175SOL    HW222365   2.690   0.150   7.289
40176SOL     OW22366   9.201   5.591   7.753
40176SOL    HW122367   9.149   5.658   7.796
40176SOL    HW222368   9.157   5.576   7.670
40177SOL     OW22369  13.004   5.079  12.964
40177SOL    HW122370  13.074   5.094  13.027
40177SOL    HW222371  13.049   5.055  12.883
40178SOL     OW22372   4.247  12.980  13.317
40178SOL    HW122373   4.152  12.978  13.307
40178SOL    HW222374   4.279  13.027  13.240
40179SOL     OW22375   7.229   2.807   3.281
40179SOL    HW122376   7.245   2.896   3.312
40179SOL    HW222377   7.269   2.751   3.348
40180SOL     OW22378   8.719   3.144  11.373
40180SOL    HW122379   8.690   3.204  11.304
40180SOL    HW222380   8.747   3.202  11.444
40181SOL     OW22381  14.360   6.028   1.038
40181SOL    HW122382  14.435   6.056   0.985
40181SOL    HW222383  14.284   6.045   0.982
40182SOL     OW22384  12.467   8.709  13.779
40182SOL    HW122385  12.429   8.781  13.830
40182SOL    HW222386  12.476   8.638  13.842
40183SOL     OW22387   0.979   5.699  14.866
40183SOL    HW122388   0.909   5.685  14.803
40183SOL    HW222389   0.964   5.632   0.060
40184SOL     OW22390  10.361   1.153  10.727
40184SOL    HW122391  10.450   1.164  10.693
40184SOL    HW222392  10.321   1.240  10.718
40185SOL     OW22393  14.060  12.500   7.569
40185SOL    HW122394  14.054  12.570   7.634
40185SOL    HW222395  14.039  12.420   7.617
40186SOL     OW22396   5.563   6.630  11.375
40186SOL    HW122397   5.515   6.579  11.441
40186SOL    HW222398   5.617   6.691  11.425
40187SOL     OW22399   4.041   2.777   1.274
40187SOL    HW122400   4.108   2.729   1.226
40187SOL    HW222401   4.089   2.828   1.339
40188SOL     OW22402   6.470   1.659   5.836
40188SOL    HW122403   6.421   1.581   5.811
40188SOL    HW222404   6.541   1.627   5.891
40189SOL     OW22405   6.412   3.565   8.616
40189SOL    HW122406   6.383   3.604   8.534
40189SOL    HW222407   6.383   3.626   8.684
40190SOL     OW22408   9.820   3.420   6.795
40190SOL    HW122409   9.867   3.337   6.793
40190SOL    HW222410   9.730   3.396   6.817
40191SOL     OW22411   3.880   8.216   7.828
40191SOL    HW122412   3.789   8.211   7.799
40191SOL    HW222413   3.914   8.127   7.816
40192SOL     OW22414  10.772   0.968   3.261
40192SOL    HW122415  10.855   0.932   3.291
40192SOL    HW222416  10.723   0.986   3.341
40193SOL     OW22417   0.501  14.331   4.293
40193SOL    HW122418   0.460  14.259   4.244
40193SOL    HW222419   0.443  14.346   4.367
40194SOL     OW22420  12.905  11.121  10.121
40194SOL    HW122421  12.863  11.132  10.206
40194SOL    HW222422  12.873  11.036  10.089
40195SOL     OW22423   1.877   9.790   3.125
40195SOL    HW122424   1.784   9.812   3.128
40195SOL    HW222425   1.909   9.809   3.213
40196SOL     OW22426   3.255  12.702   2.521
40196SOL    HW122427   3.172  12.688   2.568
40196SOL    HW222428   3.320  12.655   2.575
40197SOL     OW22429   9.573  10.631   8.920
40197SOL    HW122430   9.571  10.587   9.005
40197SOL    HW222431   9.653  10.684   8.923
40198SOL     OW22432  10.357  11.613   6.825
40198SOL    HW122433  10.337  11.611   6.918
40198SOL    HW222434  10.341  11.524   6.795
40199SOL     OW22435  11.250   3.161  14.189
40199SOL    HW122436  11.167   3.176  14.143
40199SOL    HW222437  11.298   3.100  14.132
40200SOL     OW22438  13.060  12.331   0.928
40200SOL    HW122439  13.108  12.256   0.961
40200SOL    HW222440  12.977  12.330   0.977
40201SOL     OW22441   6.363   2.066  10.495
40201SOL    HW122442   6.406   2.148  10.471
40201SOL    HW222443   6.270   2.088  10.498
40202SOL     OW22444  14.546   8.343   2.538
40202SOL    HW122445  14.469   8.330   2.482
40202SOL    HW222446  14.555   8.438   2.545
40203SOL     OW22447  11.112   9.662   1.920
40203SOL    HW122448  11.033   9.626   1.960
40203SOL    HW222449  11.160   9.585   1.889
40204SOL     OW22450   0.924   9.911   5.656
40204SOL    HW122451   0.832   9.913   5.630
40204SOL    HW222452   0.971   9.890   5.575
40205SOL     OW22453  13.610   3.358  13.953
40205SOL    HW122454  13.625   3.451  13.965
40205SOL    HW222455  13.600   3.323  14.041
40206SOL     OW22456  13.316   8.022   6.172
40206SOL    HW122457  13.311   7.994   6.264
40206SOL    HW222458  13.342   7.943   6.124
40207SOL     OW22459  11.919  14.507   2.664
40207SOL    HW122460  11.891  14.557   2.741
40207SOL    HW222461  11.837  14.474   2.626
40208SOL     OW22462   6.652   4.000   4.048
40208SOL    HW122463   6.613   3.958   3.971
40208SOL    HW222464   6.682   3.927   4.102
40209SOL     OW22465   0.998  11.744  10.031
40209SOL    HW122466   0.986  11.838  10.042
40209SOL    HW222467   0.914  11.706  10.057
40210SOL     OW22468   8.091   5.704  13.259
40210SOL    HW122469   8.046   5.729  13.178
40210SOL    HW222470   8.163   5.767  13.266
40211SOL     OW22471  11.133   2.038  14.590
40211SOL    HW122472  11.075   2.054  14.664
40211SOL    HW222473  11.117   2.111  14.530
40212SOL     OW22474  13.214  11.238   1.171
40212SOL    HW122475  13.200  11.324   1.132
40212SOL    HW222476  13.302  11.242   1.208
40213SOL     OW22477   5.869   6.540  10.417
40213SOL    HW122478   5.809   6.475  10.453
40213SOL    HW222479   5.954   6.518  10.454
40214SOL     OW22480  11.647  11.302  11.188
40214SOL    HW122481  11.622  11.217  11.223
40214SOL    HW222482  11.741  11.296  11.173
40215SOL     OW22483   8.252   0.807   0.385
40215SOL    HW122484   8.179   0.861   0.415
40215SOL    HW222485   8.227   0.718   0.408
40216SOL     OW22486  13.450   7.303   0.511
40216SOL    HW122487  13.370   7.346   0.482
40216SOL    HW222488  13.503   7.373   0.548
40217SOL     OW22489   0.122   3.713   0.673
40217SOL    HW122490   0.180   3.776   0.629
40217SOL    HW222491   0.115   3.746   0.762
40218SOL     OW22492   0.865  12.174   2.358
40218SOL    HW122493   0.941  12.201   2.409
40218SOL    HW222494   0.835  12.093   2.399
40219SOL     OW22495  10.946   0.117   9.926
40219SOL    HW122496  10.996   0.152   9.852
40219SOL    HW222497  10.859   0.099   9.890
40220SOL     OW22498   6.623   2.868   2.182
40220SOL    HW122499   6.566   2.939   2.154
40220SOL    HW222500   6.578   2.789   2.152
40221SOL     OW22501   1.939   3.450   0.136
40221SOL    HW122502   1.932   3.381   0.202
40221SOL    HW222503   1.958   3.404   0.055
40222SOL     OW22504   7.011   8.444   4.139
40222SOL    HW122505   7.104   8.422   4.137
40222SOL    HW222506   7.009   8.540   4.139
40223SOL     OW22507   0.893   9.423   0.998
40223SOL    HW122508   0.892   9.447   1.091
40223SOL    HW222509   0.872   9.330   0.997
40224SOL     OW22510  13.041   9.529   1.230
40224SOL    HW122511  12.969   9.466   1.224
40224SOL    HW222512  13.046   9.569   1.143
40225SOL     OW22513   6.209   5.047  13.569
40225SOL    HW122514   6.205   4.989  13.493
40225SOL    HW222515   6.118   5.072  13.584
40226SOL     OW22516  10.553   9.911  13.506
40226SOL    HW122517  10.577   9.979  13.568
40226SOL    HW222518  10.553   9.830  13.557
40227SOL     OW22519  12.526  12.089   4.193
40227SOL    HW122520  12.463  12.126   4.130
40227SOL    HW222521  12.508  12.136   4.274
40228SOL     OW22522  13.198  12.849   5.985
40228SOL    HW122523  13.224  12.895   5.905
40228SOL    HW222524  13.133  12.786   5.957
40229SOL     OW22525   3.658   4.554   4.563
40229SOL    HW122526   3.567   4.528   4.544
40229SOL    HW222527   3.650   4.616   4.635
40230SOL     OW22528   4.041   5.829   2.160
40230SOL    HW122529   4.065   5.815   2.068
40230SOL    HW222530   4.110   5.785   2.210
40231SOL     OW22531  14.458  11.713   1.766
40231SOL    HW122532  14.474  11.799   1.803
40231SOL    HW222533  14.487  11.720   1.675
40232SOL     OW22534   6.090   2.925   6.101
40232SOL    HW122535   6.023   2.945   6.167
40232SOL    HW222536   6.066   2.839   6.069
40233SOL     OW22537  11.835   6.418   7.131
40233SOL    HW122538  11.829   6.446   7.040
40233SOL    HW222539  11.799   6.491   7.181
40234SOL     OW22540  14.837   6.616   9.140
40234SOL    HW122541  14.753   6.620   9.094
40234SOL    HW222542  14.827   6.544   9.202
40235SOL     OW22543  12.637  14.495   1.826
40235SOL    HW122544  12.731  14.480   1.819
40235SOL    HW222545  12.608  14.508   1.736
40236SOL     OW22546   1.036   9.989   7.621
40236SOL    HW122547   1.101  10.039   7.572
40236SOL    HW222548   0.996   9.932   7.555
40237SOL     OW22549   9.862   9.752  13.665
40237SOL    HW122550   9.804   9.688  13.706
40237SOL    HW222551   9.946   9.707  13.654
40238SOL     OW22552  13.007   4.482  13.439
40238SOL    HW122553  13.036   4.421  13.371
40238SOL    HW222554  13.080   4.542  13.452
40239SOL     OW22555  10.198   4.895   2.908
40239SOL    HW122556  10.166   4.901   2.998
40239SOL    HW222557  10.198   4.985   2.876
40240SOL     OW22558   0.692   1.023  12.390
40240SOL    HW122559   0.747   0.990  12.460
40240SOL    HW222560   0.732   1.107  12.366
40241SOL     OW22561   4.283   8.197   8.523
40241SOL    HW122562   4.328   8.233   8.447
40241SOL    HW222563   4.317   8.247   8.597
40242SOL     OW22564   2.931   6.597   4.484
40242SOL    HW122565   2.946   6.565   4.395
40242SOL    HW222566   3.013   6.641   4.508
40243SOL     OW22567  11.392  10.570   7.931
40243SOL    HW122568  11.322  10.579   7.866
40243SOL    HW222569  11.406  10.476   7.938
40244SOL     OW22570  12.056   2.228   8.128
40244SOL    HW122571  12.086   2.296   8.067
40244SOL    HW222572  12.006   2.275   8.194
40245SOL     OW22573   8.164   6.014   7.958
40245SOL    HW122574   8.098   6.083   7.969
40245SOL    HW222575   8.123   5.936   7.996
40246SOL     OW22576   6.599   8.254   0.345
40246SOL    HW122577   6.556   8.174   0.377
40246SOL    HW222578   6.619   8.303   0.424
40247SOL     OW22579  10.916  13.817   6.212
40247SOL    HW122580  10.907  13.774   6.297
40247SOL    HW222581  10.864  13.897   6.219
40248SOL     OW22582   2.595   1.697   7.304
40248SOL    HW122583   2.680   1.665   7.336
40248SOL    HW222584   2.536   1.622   7.313
40249SOL     OW22585   1.962   2.643   8.431
40249SOL    HW122586   1.987   2.662   8.522
40249SOL    HW222587   1.980   2.725   8.385
40250SOL     OW22588   9.335  14.090   2.734
40250SOL    HW122589   9.345  13.996   2.751
40250SOL    HW222590   9.291  14.124   2.813
40251SOL     OW22591   0.106   2.482   2.754
40251SOL    HW122592   0.105   2.388   2.734
40251SOL    HW222593   0.115   2.486   2.849
40252SOL     OW22594   7.571   6.187   3.198
40252SOL    HW122595   7.478   6.171   3.212
40252SOL    HW222596   7.582   6.280   3.217
40253SOL     OW22597  13.842  11.670   6.351
40253SOL    HW122598  13.818  11.745   6.404
40253SOL    HW222599  13.917  11.632   6.397
40254SOL     OW22600   8.519   8.507   5.758
40254SOL    HW122601   8.484   8.517   5.670
40254SOL    HW222602   8.599   8.560   5.759
40255SOL     OW22603   3.570  11.305   6.800
40255SOL    HW122604   3.548  11.281   6.890
40255SOL    HW222605   3.638  11.372   6.808
40256SOL     OW22606   5.824  11.300  13.146
40256SOL    HW122607   5.904  11.260  13.112
40256SOL    HW222608   5.753  11.253  13.102
40257SOL     OW22609   0.526   4.620   6.521
40257SOL    HW122610   0.597   4.664   6.474
40257SOL    HW222611   0.513   4.538   6.473
40258SOL     OW22612  12.783  12.963   4.147
40258SOL    HW122613  12.697  12.982   4.184
40258SOL    HW222614  12.802  13.039   4.091
40259SOL     OW22615   6.217   0.326   4.421
40259SOL    HW122616   6.205   0.351   4.513
40259SOL    HW222617   6.179   0.238   4.415
40260SOL     OW22618   8.249   3.932   9.584
40260SOL    HW122619   8.191   4.003   9.555
40260SOL    HW222620   8.264   3.951   9.676
40261SOL     OW22621  13.175   8.429  11.633
40261SOL    HW122622  13.154   8.439  11.726
40261SOL    HW222623  13.151   8.338  11.613
40262SOL     OW22624  14.655   4.140  12.648
40262SOL    HW122625  14.726   4.119  12.588
40262SOL    HW222626  14.656   4.070  12.713
40263SOL     OW22627   4.269   8.509   0.113
40263SOL    HW122628   4.325   8.586   0.120
40263SOL    HW222629   4.264   8.474   0.202
40264SOL     OW22630   2.786   4.116   6.380
40264SOL    HW122631   2.743   4.200   6.362
40264SOL    HW222632   2.717   4.051   6.367
40265SOL     OW22633   2.303   2.605  11.880
40265SOL    HW122634   2.248   2.684  11.884
40265SOL    HW222635   2.241   2.533  11.878
40266SOL     OW22636  12.645   9.414  12.132
40266SOL    HW122637  12.587   9.422  12.208
40266SOL    HW222638  12.731   9.442  12.165
40267SOL     OW22639   8.588  13.466   5.193
40267SOL    HW122640   8.520  13.531   5.214
40267SOL    HW222641   8.595  13.413   5.272
40268SOL     OW22642   2.134   3.625  13.469
40268SOL    HW122643   2.186   3.663  13.398
40268SOL    HW222644   2.198   3.582  13.526
40269SOL     OW22645  12.992  10.968   7.861
40269SOL    HW122646  12.994  10.897   7.926
40269SOL    HW222647  12.987  11.048   7.913
40270SOL     OW22648  11.295   8.192   7.595
40270SOL    HW122649  11.316   8.149   7.678
40270SOL    HW222650  11.210   8.232   7.609
40271SOL     OW22651  12.838   1.821   3.933
40271SOL    HW122652  12.855   1.880   4.007
40271SOL    HW222653  12.759   1.856   3.892
40272SOL     OW22654   3.178   0.891   8.598
40272SOL    HW122655   3.206   0.979   8.571
40272SOL    HW222656   3.235   0.869   8.671
40273SOL     OW22657   7.892  14.813  10.035
40273SOL    HW122658   7.931  14.813   9.948
40273SOL    HW222659   7.961  14.780  10.092
40274SOL     OW22660  11.238  12.583  13.470
40274SOL    HW122661  11.186  12.632  13.407
40274SOL    HW222662  11.178  12.566  13.543
40275SOL     OW22663   3.453   0.514   7.236
40275SOL    HW122664   3.451   0.481   7.325
40275SOL    HW222665   3.362   0.513   7.207
40276SOL     OW22666  11.868  12.726  12.207
40276SOL    HW122667  11.824  12.646  12.233
40276SOL    HW222668  11.910  12.704  12.123
40277SOL     OW22669   5.052  11.422  12.677
40277SOL    HW122670   5.080  11.441  12.766
40277SOL    HW222671   5.126  11.378  12.636
40278SOL     OW22672  14.545   6.697   8.113
40278SOL    HW122673  14.451   6.717   8.114
40278SOL    HW222674  14.569   6.699   8.021
40279SOL     OW22675  10.278  13.726   2.292
40279SOL    HW122676  10.217  13.786   2.334
40279SOL    HW222677  10.355  13.780   2.272
40280SOL     OW22678   4.746  14.272   9.992
40280SOL    HW122679   4.713  14.285  10.081
40280SOL    HW222680   4.819  14.334   9.985
40281SOL     OW22681   4.502  10.951   1.788
40281SOL    HW122682   4.546  10.888   1.845
40281SOL    HW222683   4.484  10.902   1.708
40282SOL     OW22684  13.204  13.253   3.394
40282SOL    HW122685  13.161  13.170   3.376
40282SOL    HW222686  13.298  13.232   3.394
40283SOL     OW22687   4.818  12.211   7.744
40283SOL    HW122688   4.859  12.125   7.742
40283SOL    HW222689   4.829  12.240   7.835
40284SOL     OW22690  14.208   9.590  13.095
40284SOL    HW122691  14.198   9.513  13.039
40284SOL    HW222692  14.273   9.564  13.159
40285SOL     OW22693   5.871  14.590  10.528
40285SOL    HW122694   5.856  14.568  10.620
40285SOL    HW222695   5.794  14.640  10.501
40286SOL     OW22696  14.433  13.067   8.720
40286SOL    HW122697  14.486  13.045   8.797
40286SOL    HW222698  14.481  13.139   8.679
40287SOL     OW22699   9.020   9.106   4.863
40287SOL    HW122700   9.095   9.049   4.880
40287SOL    HW222701   9.032   9.180   4.923
40288SOL     OW22702   1.700  12.003  14.744
40288SOL    HW122703   1.731  12.087  14.709
40288SOL    HW222704   1.779  11.950  14.752
40289SOL     OW22705   8.760   2.849   5.178
40289SOL    HW122706   8.764   2.941   5.204
40289SOL    HW222707   8.837   2.809   5.219
40290SOL     OW22708   8.507   4.768   3.352
40290SOL    HW122709   8.456   4.829   3.406
40290SOL    HW222710   8.492   4.682   3.391
40291SOL     OW22711  12.058   9.870   9.362
40291SOL    HW122712  12.137   9.851   9.413
40291SOL    HW222713  11.985   9.847   9.420
40292SOL     OW22714   2.168   3.611   0.731
40292SOL    HW122715   2.240   3.657   0.773
40292SOL    HW222716   2.127   3.560   0.801
40293SOL     OW22717  14.244   9.552   1.516
40293SOL    HW122718  14.314   9.506   1.563
40293SOL    HW222719  14.175   9.563   1.581
40294SOL     OW22720   9.921   3.418   9.826
40294SOL    HW122721   9.829   3.416   9.852
40294SOL    HW222722   9.932   3.505   9.787
40295SOL     OW22723   3.043   7.387  12.584
40295SOL    HW122724   2.960   7.340  12.596
40295SOL    HW222725   3.082   7.347  12.506
40296SOL     OW22726  13.955   7.310   6.085
40296SOL    HW122727  13.898   7.248   6.131
40296SOL    HW222728  13.961   7.384   6.145
40297SOL     OW22729  10.109   6.749   1.441
40297SOL    HW122730  10.163   6.674   1.418
40297SOL    HW222731  10.032   6.712   1.485
40298SOL     OW22732   7.606  11.211   6.754
40298SOL    HW122733   7.637  11.281   6.697
40298SOL    HW222734   7.636  11.237   6.842
40299SOL     OW22735   4.960  11.163   6.636
40299SOL    HW122736   5.055  11.160   6.628
40299SOL    HW222737   4.934  11.074   6.658
40300SOL     OW22738   7.266   1.375   7.872
40300SOL    HW122739   7.229   1.342   7.954
40300SOL    HW222740   7.190   1.388   7.816
40301SOL     OW22741  13.592   0.736   7.470
40301SOL    HW122742  13.591   0.831   7.457
40301SOL    HW222743  13.521   0.720   7.532
40302SOL     OW22744   4.032   4.912  13.602
40302SOL    HW122745   3.945   4.875  13.615
40302SOL    HW222746   4.058   4.883  13.514
40303SOL     OW22747  14.049   1.843   2.933
40303SOL    HW122748  13.970   1.837   2.988
40303SOL    HW222749  14.028   1.790   2.856
40304SOL     OW22750   0.792   5.681   5.410
40304SOL    HW122751   0.852   5.723   5.349
40304SOL    HW222752   0.814   5.588   5.405
40305SOL     OW22753  13.496   4.926  11.201
40305SOL    HW122754  13.504   4.952  11.293
40305SOL    HW222755  13.581   4.947  11.162
40306SOL     OW22756   9.078   9.949  12.635
40306SOL    HW122757   9.070   9.928  12.542
40306SOL    HW222758   9.132  10.028  12.637
40307SOL     OW22759   1.782   0.455  11.195
40307SOL    HW122760   1.807   0.384  11.135
40307SOL    HW222761   1.714   0.502  11.148
40308SOL     OW22762  11.737  13.772   0.613
40308SOL    HW122763  11.663  13.745   0.668
40308SOL    HW222764  11.808  13.714   0.640
40309SOL     OW22765   5.515  12.743  10.079
40309SOL    HW122766   5.595  12.747  10.027
40309SOL    HW222767   5.496  12.834  10.102
40310SOL     OW22768  10.103   7.161   0.677
40310SOL    HW122769  10.177   7.121   0.722
40310SOL    HW222770  10.064   7.220   0.741
40311SOL     OW22771   0.588  14.159   5.903
40311SOL    HW122772   0.674  14.120   5.917
40311SOL    HW222773   0.530  14.108   5.959
40312SOL     OW22774   7.692   0.827  12.400
40312SOL    HW122775   7.747   0.899  12.432
40312SOL    HW222776   7.604   0.847  12.431
40313SOL     OW22777   0.591   4.854   9.148
40313SOL    HW122778   0.623   4.830   9.062
40313SOL    HW222779   0.670   4.870   9.200
40314SOL     OW22780   0.660   3.022   5.565
40314SOL    HW122781   0.602   3.057   5.498
40314SOL    HW222782   0.646   2.927   5.562
40315SOL     OW22783  13.921   0.501   9.970
40315SOL    HW122784  13.897   0.423  10.021
40315SOL    HW222785  13.991   0.471   9.912
40316SOL     OW22786   0.941   6.080   0.662
40316SOL    HW122787   0.950   5.985   0.663
40316SOL    HW222788   1.030   6.113   0.671
40317SOL     OW22789  12.629   7.246  14.722
40317SOL    HW122790  12.625   7.335  14.757
40317SOL    HW222791  12.658   7.258  14.631
40318SOL     OW22792   6.086   8.768  14.247
40318SOL    HW122793   6.139   8.808  14.179
40318SOL    HW222794   6.001   8.809  14.239
40319SOL     OW22795   5.048  11.081   5.177
40319SOL    HW122796   5.100  11.007   5.210
40319SOL    HW222797   4.959  11.063   5.208
40320SOL     OW22798   7.995  11.461   8.971
40320SOL    HW122799   7.916  11.433   8.925
40320SOL    HW222800   8.066  11.412   8.930
40321SOL     OW22801  14.764   9.636   9.453
40321SOL    HW122802  14.714   9.571   9.404
40321SOL    HW222803  14.854   9.625   9.422
40322SOL     OW22804   6.722   2.529   1.219
40322SOL    HW122805   6.699   2.458   1.158
40322SOL    HW222806   6.648   2.534   1.279
40323SOL     OW22807   4.098   6.347   1.434
40323SOL    HW122808   4.057   6.363   1.519
40323SOL    HW222809   4.090   6.252   1.422
40324SOL     OW22810   9.421  13.219  13.763
40324SOL    HW122811   9.350  13.160  13.736
40324SOL    HW222812   9.492  13.199  13.702
40325SOL     OW22813   9.656  12.940  10.083
40325SOL    HW122814   9.698  12.864  10.043
40325SOL    HW222815   9.669  12.927  10.177
40326SOL     OW22816   8.593   8.021   3.340
40326SOL    HW122817   8.521   7.973   3.297
40326SOL    HW222818   8.663   7.957   3.347
40327SOL     OW22819   3.861  14.369  10.161
40327SOL    HW122820   3.832  14.340  10.248
40327SOL    HW222821   3.789  14.425  10.130
40328SOL     OW22822  13.415   6.594  13.885
40328SOL    HW122823  13.344   6.606  13.948
40328SOL    HW222824  13.426   6.680  13.844
40329SOL     OW22825  10.749   1.585  13.719
40329SOL    HW122826  10.806   1.653  13.755
40329SOL    HW222827  10.809   1.527  13.671
40330SOL     OW22828   9.673   2.703   1.443
40330SOL    HW122829   9.644   2.646   1.372
40330SOL    HW222830   9.593   2.745   1.474
40331SOL     OW22831  13.171   4.949   7.650
40331SOL    HW122832  13.223   5.029   7.660
40331SOL    HW222833  13.084   4.980   7.625
40332SOL     OW22834   5.180   9.502   7.730
40332SOL    HW122835   5.259   9.474   7.684
40332SOL    HW222836   5.204   9.586   7.768
40333SOL     OW22837   9.699  13.407   9.968
40333SOL    HW122838   9.663  13.490  10.001
40333SOL    HW222839   9.792  13.425   9.956
40334SOL     OW22840   4.455  12.531  13.488
40334SOL    HW122841   4.492  12.590  13.423
40334SOL    HW222842   4.387  12.583  13.531
40335SOL     OW22843   2.579   7.812   5.025
40335SOL    HW122844   2.513   7.748   5.052
40335SOL    HW222845   2.661   7.764   5.027
40336SOL     OW22846   7.557   2.303   8.098
40336SOL    HW122847   7.476   2.319   8.147
40336SOL    HW222848   7.602   2.234   8.147
40337SOL     OW22849  10.230   6.088   2.307
40337SOL    HW122850  10.283   6.167   2.296
40337SOL    HW222851  10.183   6.079   2.223
40338SOL     OW22852   2.568   0.129  10.887
40338SOL    HW122853   2.483   0.109  10.927
40338SOL    HW222854   2.550   0.133  10.793
40339SOL     OW22855   6.334  11.486   3.292
40339SOL    HW122856   6.341  11.491   3.196
40339SOL    HW222857   6.331  11.392   3.310
40340SOL     OW22858   8.216   9.043   1.727
40340SOL    HW122859   8.265   9.027   1.647
40340SOL    HW222860   8.131   9.002   1.712
40341SOL     OW22861   5.629   9.843  11.338
40341SOL    HW122862   5.549   9.811  11.378
40341SOL    HW222863   5.689   9.859  11.411
40342SOL     OW22864  13.544   2.000   7.378
40342SOL    HW122865  13.595   2.080   7.388
40342SOL    HW222866  13.538   1.987   7.284
40343SOL     OW22867  11.663   4.533   8.818
40343SOL    HW122868  11.646   4.543   8.724
40343SOL    HW222869  11.616   4.454   8.842
40344SOL     OW22870   9.492   6.106   0.084
40344SOL    HW122871   9.515   6.180   0.028
40344SOL    HW222872   9.519   6.029   0.034
40345SOL     OW22873   0.577  13.032   8.120
40345SOL    HW122874   0.605  13.117   8.155
40345SOL    HW222875   0.518  12.997   8.187
40346SOL     OW22876  11.858   6.028  10.057
40346SOL    HW122877  11.912   6.107  10.062
40346SOL    HW222878  11.842   6.004  10.148
40347SOL     OW22879   3.699   4.909  13.625
40347SOL    HW122880   3.718   4.943  13.537
40347SOL    HW222881   3.607   4.885  13.622
40348SOL     OW22882   7.300   0.699   7.185
40348SOL    HW122883   7.358   0.723   7.113
40348SOL    HW222884   7.248   0.778   7.202
40349SOL     OW22885   2.072   7.799  10.086
40349SOL    HW122886   2.071   7.895  10.096
40349SOL    HW222887   2.111   7.767  10.167
40350SOL     OW22888  10.292   5.305  12.390
40350SOL    HW122889  10.359   5.255  12.437
40350SOL    HW222890  10.246   5.239  12.338
40351SOL     OW22891   8.723  11.788   4.133
40351SOL    HW122892   8.641  11.831   4.158
40351SOL    HW222893   8.746  11.827   4.049
40352SOL     OW22894  13.766   2.086   9.764
40352SOL    HW122895  13.807   2.019   9.709
40352SOL    HW222896  13.673   2.066   9.761
40353SOL     OW22897   3.625   3.709  11.644
40353SOL    HW122898   3.704   3.671  11.606
40353SOL    HW222899   3.599   3.778  11.583
40354SOL     OW22900  10.794   4.038   6.284
40354SOL    HW122901  10.705   4.042   6.250
40354SOL    HW222902  10.837   4.117   6.250
40355SOL     OW22903   9.773   6.412   6.426
40355SOL    HW122904   9.818   6.472   6.367
40355SOL    HW222905   9.739   6.467   6.496
40356SOL     OW22906   5.577  12.067   6.655
40356SOL    HW122907   5.552  12.118   6.732
40356SOL    HW222908   5.531  11.984   6.666
40357SOL     OW22909   8.580   2.205   9.310
40357SOL    HW122910   8.668   2.243   9.317
40357SOL    HW222911   8.589   2.117   9.346
40358SOL     OW22912  10.788  13.106  14.508
40358SOL    HW122913  10.735  13.156  14.569
40358SOL    HW222914  10.822  13.171  14.447
40359SOL     OW22915   6.582   4.941   4.821
40359SOL    HW122916   6.633   4.976   4.749
40359SOL    HW222917   6.647   4.908   4.883
40360SOL     OW22918   0.410   0.902  13.635
40360SOL    HW122919   0.415   0.965  13.563
40360SOL    HW222920   0.499   0.869  13.645
40361SOL     OW22921   2.844   1.079   6.025
40361SOL    HW122922   2.751   1.098   6.032
40361SOL    HW222923   2.857   1.051   5.934
40362SOL     OW22924   7.390  13.982   3.936
40362SOL    HW122925   7.382  13.906   3.994
40362SOL    HW222926   7.360  14.056   3.988
40363SOL     OW22927   4.667   4.900   8.935
40363SOL    HW122928   4.584   4.921   8.977
40363SOL    HW222929   4.658   4.809   8.909
40364SOL     OW22930   6.752  14.007   8.683
40364SOL    HW122931   6.687  13.937   8.678
40364SOL    HW222932   6.700  14.087   8.671
40365SOL     OW22933   6.756  12.710   4.887
40365SOL    HW122934   6.684  12.654   4.916
40365SOL    HW222935   6.747  12.714   4.792
40366SOL     OW22936   7.127  10.002  12.295
40366SOL    HW122937   7.214   9.962  12.289
40366SOL    HW222938   7.103   9.991  12.387
40367SOL     OW22939   1.808  12.328   4.302
40367SOL    HW122940   1.749  12.369   4.366
40367SOL    HW222941   1.881  12.390   4.296
40368SOL     OW22942   1.193   1.847   9.198
40368SOL    HW122943   1.125   1.780   9.206
40368SOL    HW222944   1.266   1.814   9.251
40369SOL     OW22945   5.497  13.555  12.777
40369SOL    HW122946   5.445  13.608  12.717
40369SOL    HW222947   5.442  13.545  12.855
40370SOL     OW22948   2.268   4.726   1.184
40370SOL    HW122949   2.252   4.712   1.278
40370SOL    HW222950   2.360   4.753   1.179
40371SOL     OW22951   6.366  11.066  14.688
40371SOL    HW122952   6.405  11.009  14.754
40371SOL    HW222953   6.320  11.133  14.739
40372SOL     OW22954  14.582   2.655  14.659
40372SOL    HW122955  14.539   2.715  14.720
40372SOL    HW222956  14.674   2.681  14.661
40373SOL     OW22957   3.273   6.351  13.176
40373SOL    HW122958   3.267   6.445  13.164
40373SOL    HW222959   3.341   6.339  13.243
40374SOL     OW22960   6.860  14.166  11.105
40374SOL    HW122961   6.800  14.165  11.031
40374SOL    HW222962   6.803  14.165  11.182
40375SOL     OW22963   5.260  13.531   8.049
40375SOL    HW122964   5.300  13.584   8.118
40375SOL    HW222965   5.215  13.594   7.994
40376SOL     OW22966   1.551  12.099   0.431
40376SOL    HW122967   1.643  12.077   0.451
40376SOL    HW222968   1.550  12.114   0.337
40377SOL     OW22969   2.744   4.429   0.600
40377SOL    HW122970   2.776   4.492   0.664
40377SOL    HW222971   2.659   4.464   0.571
40378SOL     OW22972   7.569   6.226  14.824
40378SOL    HW122973   7.494   6.184  14.782
40378SOL    HW222974   7.617   6.154  14.865
40379SOL     OW22975  11.046  13.696  11.334
40379SOL    HW122976  10.996  13.716  11.413
40379SOL    HW222977  10.998  13.741  11.264
40380SOL     OW22978  13.668   2.447   6.384
40380SOL    HW122979  13.722   2.373   6.358
40380SOL    HW222980  13.689   2.515   6.320
40381SOL     OW22981   7.837  14.020  11.836
40381SOL    HW122982   7.927  13.996  11.860
40381SOL    HW222983   7.847  14.092  11.773
40382SOL     OW22984   7.504  11.731   0.783
40382SOL    HW122985   7.499  11.739   0.688
40382SOL    HW222986   7.431  11.674   0.807
40383SOL     OW22987  12.813   6.218   1.792
40383SOL    HW122988  12.723   6.198   1.765
40383SOL    HW222989  12.814   6.313   1.802
40384SOL     OW22990   4.354   8.585   8.679
40384SOL    HW122991   4.359   8.614   8.770
40384SOL    HW222992   4.378   8.493   8.681
40385SOL     OW22993   5.160   9.869   5.863
40385SOL    HW122994   5.173   9.856   5.957
40385SOL    HW222995   5.247   9.856   5.825
40386SOL     OW22996   5.042   1.080   3.072
40386SOL    HW122997   5.029   0.986   3.057
40386SOL    HW222998   4.970   1.122   3.025
40387SOL     OW22999   5.241  13.097  11.009
40387SOL    HW123000   5.315  13.039  10.990
40387SOL    HW223001   5.197  13.057  11.083
40388SOL     OW23002  11.019   4.583  10.326
40388SOL    HW123003  11.035   4.511  10.387
40388SOL    HW223004  11.106   4.613  10.300
40389SOL     OW23005   8.450   0.254  10.130
40389SOL    HW123006   8.419   0.164  10.128
40389SOL    HW223007   8.529   0.252  10.184
40390SOL     OW23008   6.775  11.917   8.830
40390SOL    HW123009   6.760  11.957   8.744
40390SOL    HW223010   6.817  11.833   8.810
40391SOL     OW23011   3.272  10.640  13.097
40391SOL    HW123012   3.339  10.650  13.165
40391SOL    HW223013   3.298  10.701  13.028
40392SOL     OW23014   7.719   7.067   6.999
40392SOL    HW123015   7.758   7.072   7.086
40392SOL    HW223016   7.638   7.117   7.005
40393SOL     OW23017   7.673  13.650   0.086
40393SOL    HW123018   7.581  13.657   0.111
40393SOL    HW223019   7.699  13.562   0.112
40394SOL     OW23020   3.245   1.728   5.295
40394SOL    HW123021   3.280   1.690   5.214
40394SOL    HW223022   3.190   1.660   5.332
40395SOL     OW23023  10.813   4.113  12.843
40395SOL    HW123024  10.883   4.147  12.900
40395SOL    HW223025  10.803   4.022  12.870
40396SOL     OW23026  14.671   0.070   2.802
40396SOL    HW123027  14.666   0.154   2.756
40396SOL    HW223028  14.616   0.082   2.880
40397SOL     OW23029   2.301   5.205   7.209
40397SOL    HW123030   2.377   5.150   7.185
40397SOL    HW223031   2.331   5.295   7.192
40398SOL     OW23032  13.785   0.283   2.289
40398SOL    HW123033  13.843   0.359   2.293
40398SOL    HW223034  13.751   0.284   2.199
40399SOL     OW23035  10.528  14.443   6.274
40399SOL    HW123036  10.515  14.373   6.338
40399SOL    HW223037  10.593  14.501   6.314
40400SOL     OW23038  10.566   1.007   6.707
40400SOL    HW123039  10.503   0.937   6.692
40400SOL    HW223040  10.559   1.062   6.629
40401SOL     OW23041   7.409   0.280   3.140
40401SOL    HW123042   7.379   0.317   3.057
40401SOL    HW223043   7.504   0.295   3.140
40402SOL     OW23044   6.439  14.330  12.766
40402SOL    HW123045   6.488  14.251  12.789
40402SOL    HW223046   6.355  14.298  12.732
40403SOL     OW23047  11.149  12.189   7.377
40403SOL    HW123048  11.143  12.198   7.282
40403SOL    HW223049  11.073  12.238   7.410
40404SOL     OW23050   3.011   2.228   9.361
40404SOL    HW123051   3.081   2.288   9.338
40404SOL    HW223052   3.007   2.231   9.456
40405SOL     OW23053   8.454   1.521  12.619
40405SOL    HW123054   8.398   1.452  12.655
40405SOL    HW223055   8.543   1.488  12.629
40406SOL     OW23056   5.637  11.473   1.282
40406SOL    HW123057   5.554  11.500   1.320
40406SOL    HW223058   5.695  11.548   1.295
40407SOL     OW23059   6.490  14.134  14.843
40407SOL    HW123060   6.563  14.143   0.031
40407SOL    HW223061   6.415  14.168   0.018
40408SOL     OW23062   4.928  13.515   4.607
40408SOL    HW123063   5.021  13.513   4.631
40408SOL    HW223064   4.884  13.471   4.680
40409SOL     OW23065   5.171  11.962   1.262
40409SOL    HW123066   5.080  11.984   1.285
40409SOL    HW223067   5.163  11.887   1.203
40410SOL     OW23068   7.308   1.013  13.590
40410SOL    HW123069   7.295   0.969  13.674
40410SOL    HW223070   7.396   1.049  13.594
40411SOL     OW23071   4.524   0.882   8.842
40411SOL    HW123072   4.606   0.920   8.871
40411SOL    HW223073   4.519   0.797   8.887
40412SOL     OW23074  10.673  12.104  10.171
40412SOL    HW123075  10.592  12.146  10.202
40412SOL    HW223076  10.657  12.088  10.078
40413SOL     OW23077   3.263   7.311  13.966
40413SOL    HW123078   3.216   7.344  14.043
40413SOL    HW223079   3.209   7.338  13.892
40414SOL     OW23080  12.304   2.401   4.566
40414SOL    HW123081  12.291   2.310   4.593
40414SOL    HW223082  12.346   2.443   4.641
40415SOL     OW23083  12.581  12.049  11.873
40415SOL    HW123084  12.496  12.007  11.884
40415SOL    HW223085  12.643  11.976  11.869
40416SOL     OW23086   7.576   2.121   1.729
40416SOL    HW123087   7.563   2.194   1.668
40416SOL    HW223088   7.616   2.160   1.806
40417SOL     OW23089   8.605   6.856   4.183
40417SOL    HW123090   8.525   6.908   4.175
40417SOL    HW223091   8.642   6.882   4.266
40418SOL     OW23092   6.142   2.540  10.810
40418SOL    HW123093   6.168   2.517  10.721
40418SOL    HW223094   6.210   2.503  10.866
40419SOL     OW23095   2.366  12.290  14.145
40419SOL    HW123096   2.291  12.257  14.195
40419SOL    HW223097   2.374  12.381  14.171
40420SOL     OW23098   5.682   7.049   8.258
40420SOL    HW123099   5.624   7.088   8.192
40420SOL    HW223100   5.623   7.003   8.318
40421SOL     OW23101   3.392   6.398  14.715
40421SOL    HW123102   3.449   6.456  14.665
40421SOL    HW223103   3.450   6.330  14.748
40422SOL     OW23104   3.960   7.954  13.407
40422SOL    HW123105   4.049   7.946  13.371
40422SOL    HW223106   3.973   7.983  13.497
40423SOL     OW23107   0.945  12.346  12.676
40423SOL    HW123108   0.901  12.416  12.627
40423SOL    HW223109   0.901  12.266  12.649
40424SOL     OW23110   1.905   9.756   5.579
40424SOL    HW123111   1.840   9.686   5.583
40424SOL    HW223112   1.864   9.825   5.527
40425SOL     OW23113   7.612   2.374   3.971
40425SOL    HW123114   7.585   2.465   3.964
40425SOL    HW223115   7.664   2.371   4.051
40426SOL     OW23116   5.080  11.997  14.428
40426SOL    HW123117   5.029  11.937  14.372
40426SOL    HW223118   5.158  12.017  14.377
40427SOL     OW23119   0.384   3.864   7.669
40427SOL    HW123120   0.375   3.796   7.602
40427SOL    HW223121   0.327   3.835   7.740
40428SOL     OW23122   0.070   0.770   7.551
40428SOL    HW123123   0.062   0.810   7.638
40428SOL    HW223124   0.048   0.842   7.491
40429SOL     OW23125  10.329   3.959   8.456
40429SOL    HW123126  10.269   3.888   8.479
40429SOL    HW223127  10.284   4.039   8.485
40430SOL     OW23128   8.982   5.594   8.715
40430SOL    HW123129   9.066   5.639   8.708
40430SOL    HW223130   8.946   5.623   8.798
40431SOL     OW23131  14.242   8.210  12.586
40431SOL    HW123132  14.197   8.169  12.660
40431SOL    HW223133  14.273   8.294  12.621
40432SOL     OW23134  13.494   0.032   5.058
40432SOL    HW123135  13.409   0.060   5.024
40432SOL    HW223136  13.499  14.812   5.036
40433SOL     OW23137   4.191   2.108   3.069
40433SOL    HW123138   4.245   2.178   3.105
40433SOL    HW223139   4.252   2.056   3.017
40434SOL     OW23140   2.073   4.073   5.622
40434SOL    HW123141   2.067   4.067   5.717
40434SOL    HW223142   2.107   4.161   5.606
40435SOL     OW23143   7.421   9.758   0.387
40435SOL    HW123144   7.393   9.848   0.405
40435SOL    HW223145   7.361   9.728   0.319
40436SOL     OW23146  10.952   9.429   2.293
40436SOL    HW123147  11.015   9.403   2.226
40436SOL    HW223148  10.867   9.425   2.249
40437SOL     OW23149  13.155   3.881   7.451
40437SOL    HW123150  13.095   3.946   7.487
40437SOL    HW223151  13.161   3.904   7.358
40438SOL     OW23152   1.837   9.576   8.011
40438SOL    HW123153   1.795   9.578   7.925
40438SOL    HW223154   1.911   9.517   8.000
40439SOL     OW23155   7.785   8.198  11.762
40439SOL    HW123156   7.690   8.213  11.759
40439SOL    HW223157   7.799   8.121  11.707
40440SOL     OW23158   6.873   8.459  14.311
40440SOL    HW123159   6.862   8.406  14.391
40440SOL    HW223160   6.968   8.459  14.296
40441SOL     OW23161  11.531   3.583   8.148
40441SOL    HW123162  11.625   3.587   8.160
40441SOL    HW223163  11.517   3.508   8.090
40442SOL     OW23164   5.269   4.731   7.058
40442SOL    HW123165   5.337   4.695   7.114
40442SOL    HW223166   5.297   4.822   7.043
40443SOL     OW23167   4.002   9.281  13.825
40443SOL    HW123168   3.956   9.255  13.905
40443SOL    HW223169   4.036   9.368  13.843
40444SOL     OW23170   9.391   1.293   8.877
40444SOL    HW123171   9.435   1.208   8.881
40444SOL    HW223172   9.299   1.272   8.860
40445SOL     OW23173   4.434   3.471   8.690
40445SOL    HW123174   4.354   3.521   8.676
40445SOL    HW223175   4.452   3.479   8.784
40446SOL     OW23176   8.878  11.799   8.064
40446SOL    HW123177   8.863  11.731   7.999
40446SOL    HW223178   8.903  11.877   8.013
40447SOL     OW23179   5.288  12.320  11.117
40447SOL    HW123180   5.298  12.351  11.207
40447SOL    HW223181   5.337  12.383  11.065
40448SOL     OW23182   5.154  10.045   3.585
40448SOL    HW123183   5.237  10.008   3.553
40448SOL    HW223184   5.087  10.003   3.531
40449SOL     OW23185  12.424   9.567  14.028
40449SOL    HW123186  12.364   9.495  14.011
40449SOL    HW223187  12.452   9.554  14.119
40450SOL     OW23188   4.066   1.177  12.714
40450SOL    HW123189   4.027   1.098  12.677
40450SOL    HW223190   4.096   1.226  12.637
40451SOL     OW23191   3.814   1.459   5.730
40451SOL    HW123192   3.802   1.419   5.816
40451SOL    HW223193   3.907   1.446   5.710
40452SOL     OW23194   1.900   3.206   7.466
40452SOL    HW123195   1.878   3.286   7.417
40452SOL    HW223196   1.941   3.149   7.401
40453SOL     OW23197  13.552   4.920  10.089
40453SOL    HW123198  13.456   4.919  10.088
40453SOL    HW223199  13.576   4.926   9.997
40454SOL     OW23200   0.625   3.683  14.058
40454SOL    HW123201   0.679   3.611  14.025
40454SOL    HW223202   0.661   3.761  14.017
40455SOL     OW23203   1.840  13.078   8.068
40455SOL    HW123204   1.829  12.996   8.116
40455SOL    HW223205   1.909  13.125   8.115
40456SOL     OW23206  10.677   1.571  10.587
40456SOL    HW123207  10.656   1.634  10.654
40456SOL    HW223208  10.720   1.622  10.518
40457SOL     OW23209   2.737  13.237   4.042
40457SOL    HW123210   2.759  13.327   4.066
40457SOL    HW223211   2.800  13.213   3.974
40458SOL     OW23212   8.175  10.285   9.295
40458SOL    HW123213   8.103  10.265   9.235
40458SOL    HW223214   8.182  10.381   9.293
40459SOL     OW23215  10.170   6.619   0.355
40459SOL    HW123216  10.259   6.652   0.344
40459SOL    HW223217  10.115   6.697   0.355
40460SOL     OW23218   7.831   5.512   9.064
40460SOL    HW123219   7.914   5.518   9.112
40460SOL    HW223220   7.789   5.433   9.097
40461SOL     OW23221  14.284  12.340   4.638
40461SOL    HW123222  14.346  12.345   4.711
40461SOL    HW223223  14.320  12.271   4.581
40462SOL     OW23224   2.121   2.068  12.022
40462SOL    HW123225   2.093   2.025  12.103
40462SOL    HW223226   2.056   2.136  12.008
40463SOL     OW23227   3.372  13.511   9.313
40463SOL    HW123228   3.345  13.428   9.274
40463SOL    HW223229   3.424  13.554   9.245
40464SOL     OW23230   9.642  12.186   2.166
40464SOL    HW123231   9.616  12.097   2.144
40464SOL    HW223232   9.736  12.181   2.179
40465SOL     OW23233   8.807   1.863   1.314
40465SOL    HW123234   8.803   1.942   1.260
40465SOL    HW223235   8.773   1.794   1.258
40466SOL     OW23236   4.444   1.212   3.227
40466SOL    HW123237   4.399   1.192   3.309
40466SOL    HW223238   4.474   1.302   3.237
40467SOL     OW23239  11.633   0.579   7.785
40467SOL    HW123240  11.674   0.508   7.738
40467SOL    HW223241  11.662   0.658   7.741
40468SOL     OW23242  10.029   0.297   2.327
40468SOL    HW123243  10.045   0.322   2.236
40468SOL    HW223244  10.103   0.334   2.375
40469SOL     OW23245   3.190   3.696   2.198
40469SOL    HW123246   3.186   3.792   2.207
40469SOL    HW223247   3.122   3.675   2.135
40470SOL     OW23248   9.251  14.827   7.633
40470SOL    HW123249   9.311  14.855   7.564
40470SOL    HW223250   9.264  14.733   7.641
40471SOL     OW23251  12.980   7.172   0.363
40471SOL    HW123252  12.892   7.203   0.385
40471SOL    HW223253  12.990   7.193   0.270
40472SOL     OW23254   6.604  11.329  11.372
40472SOL    HW123255   6.674  11.309  11.310
40472SOL    HW223256   6.564  11.409  11.337
40473SOL     OW23257   1.006   4.810   4.316
40473SOL    HW123258   0.974   4.865   4.388
40473SOL    HW223259   1.001   4.721   4.351
40474SOL     OW23260  14.342  14.722  11.742
40474SOL    HW123261  14.370  14.633  11.764
40474SOL    HW223262  14.271  14.709  11.679
40475SOL     OW23263   5.931  14.349  12.939
40475SOL    HW123264   5.934  14.390  13.026
40475SOL    HW223265   5.893  14.416  12.883
40476SOL     OW23266  11.757   7.596   7.510
40476SOL    HW123267  11.690   7.535   7.540
40476SOL    HW223268  11.775   7.651   7.587
40477SOL     OW23269   5.369   6.008   5.554
40477SOL    HW123270   5.344   6.095   5.523
40477SOL    HW223271   5.285   5.963   5.569
40478SOL     OW23272   4.068   3.823  14.243
40478SOL    HW123273   4.159   3.837  14.269
40478SOL    HW223274   4.024   3.904  14.268
40479SOL     OW23275  12.806   7.375   4.834
40479SOL    HW123276  12.778   7.396   4.923
40479SOL    HW223277  12.816   7.280   4.833
40480SOL     OW23278   2.727   7.343   0.874
40480SOL    HW123279   2.822   7.343   0.883
40480SOL    HW223280   2.712   7.370   0.783
40481SOL     OW23281   5.703   9.962   9.858
40481SOL    HW123282   5.692   9.951   9.764
40481SOL    HW223283   5.659  10.045   9.877
40482SOL     OW23284  11.394  14.743   9.617
40482SOL    HW123285  11.442  14.692   9.683
40482SOL    HW223286  11.377  14.827   9.658
40483SOL     OW23287   5.308   3.995   5.704
40483SOL    HW123288   5.298   4.072   5.760
40483SOL    HW223289   5.246   4.010   5.632
40484SOL     OW23290  10.580   3.221  12.707
40484SOL    HW123291  10.661   3.213  12.656
40484SOL    HW223292  10.560   3.131  12.735
40485SOL     OW23293   1.423   7.646   2.017
40485SOL    HW123294   1.352   7.706   1.992
40485SOL    HW223295   1.497   7.672   1.963
40486SOL     OW23296   0.325   8.906  10.561
40486SOL    HW123297   0.401   8.855  10.589
40486SOL    HW223298   0.267   8.841  10.520
40487SOL     OW23299   9.819  12.836  13.650
40487SOL    HW123300   9.865  12.907  13.606
40487SOL    HW223301   9.758  12.879  13.709
40488SOL     OW23302   6.139  11.337  11.767
40488SOL    HW123303   6.133  11.350  11.673
40488SOL    HW223304   6.161  11.245  11.778
40489SOL     OW23305   6.117   2.920  10.117
40489SOL    HW123306   6.131   2.984  10.187
40489SOL    HW223307   6.034   2.946  10.077
40490SOL     OW23308   6.862   0.312   0.011
40490SOL    HW123309   6.884   0.271  14.800
40490SOL    HW223310   6.781   0.359  14.867
40491SOL     OW23311   1.206  11.130   4.620
40491SOL    HW123312   1.170  11.094   4.701
40491SOL    HW223313   1.175  11.071   4.552
40492SOL     OW23314   9.109   2.858   3.773
40492SOL    HW123315   9.100   2.805   3.853
40492SOL    HW223316   9.196   2.835   3.739
40493SOL     OW23317   8.217   3.571  11.934
40493SOL    HW123318   8.292   3.614  11.892
40493SOL    HW223319   8.190   3.505  11.870
40494SOL     OW23320   6.002   5.893   5.031
40494SOL    HW123321   5.936   5.956   5.060
40494SOL    HW223322   6.057   5.878   5.108
40495SOL     OW23323   2.490  12.024  13.262
40495SOL    HW123324   2.489  12.066  13.175
40495SOL    HW223325   2.406  11.979  13.267
40496SOL     OW23326   7.301  14.014  12.080
40496SOL    HW123327   7.364  14.057  12.023
40496SOL    HW223328   7.337  13.926  12.095
40497SOL     OW23329   8.775   2.661   4.577
40497SOL    HW123330   8.805   2.574   4.550
40497SOL    HW223331   8.852   2.718   4.565
40498SOL     OW23332   2.678  12.421   0.655
40498SOL    HW123333   2.765  12.462   0.647
40498SOL    HW223334   2.617  12.493   0.640
40499SOL     OW23335   9.864  11.290  13.684
40499SOL    HW123336   9.907  11.232  13.747
40499SOL    HW223337   9.899  11.376  13.704
40500SOL     OW23338  10.200   6.690   4.701
40500SOL    HW123339  10.114   6.732   4.701
40500SOL    HW223340  10.212   6.660   4.791
40501SOL     OW23341   2.810   9.782   4.145
40501SOL    HW123342   2.885   9.771   4.204
40501SOL    HW223343   2.846   9.771   4.057
40502SOL     OW23344  10.132   3.260   9.700
40502SOL    HW123345  10.217   3.301   9.713
40502SOL    HW223346  10.069   3.332   9.710
40503SOL     OW23347   5.485   7.195   7.422
40503SOL    HW123348   5.455   7.140   7.494
40503SOL    HW223349   5.430   7.273   7.426
40504SOL     OW23350   6.750   7.597  11.798
40504SOL    HW123351   6.806   7.523  11.823
40504SOL    HW223352   6.664   7.557  11.783
40505SOL     OW23353  13.049   0.181  10.630
40505SOL    HW123354  13.100   0.110  10.590
40505SOL    HW223355  12.959   0.163  10.604
40506SOL     OW23356   7.149   5.175   7.403
40506SOL    HW123357   7.171   5.202   7.314
40506SOL    HW223358   7.212   5.221   7.459
40507SOL     OW23359  11.226  12.830   6.291
40507SOL    HW123360  11.259  12.874   6.370
40507SOL    HW223361  11.190  12.900   6.237
40508SOL     OW23362   3.645   4.819  10.252
40508SOL    HW123363   3.632   4.901  10.300
40508SOL    HW223364   3.661   4.754  10.321
40509SOL     OW23365   5.052   9.884   9.475
40509SOL    HW123366   5.117   9.824   9.438
40509SOL    HW223367   5.069   9.882   9.570
40510SOL     OW23368   7.720  10.444   1.213
40510SOL    HW123369   7.661  10.443   1.138
40510SOL    HW223370   7.737  10.537   1.229
40511SOL     OW23371  11.520  14.176   8.497
40511SOL    HW123372  11.538  14.089   8.460
40511SOL    HW223373  11.458  14.216   8.436
40512SOL     OW23374  11.592   5.252  10.056
40512SOL    HW123375  11.555   5.332  10.020
40512SOL    HW223376  11.662   5.228   9.995
40513SOL     OW23377   6.678  13.364   1.400
40513SOL    HW123378   6.716  13.430   1.342
40513SOL    HW223379   6.636  13.415   1.469
40514SOL     OW23380  14.324  10.296  14.640
40514SOL    HW123381  14.260  10.315  14.708
40514SOL    HW223382  14.395  10.359  14.655
40515SOL     OW23383   6.751  13.053  13.012
40515SOL    HW123384   6.712  13.130  12.970
40515SOL    HW223385   6.787  13.002  12.939
40516SOL     OW23386  14.844  10.014   2.840
40516SOL    HW123387   0.048   9.958   2.834
40516SOL    HW223388  14.837  10.036   2.933
40517SOL     OW23389   3.549   2.578   0.916
40517SOL    HW123390   3.536   2.589   1.010
40517SOL    HW223391   3.473   2.619   0.876
40518SOL     OW23392   4.868  14.447   8.498
40518SOL    HW123393   4.796  14.387   8.516
40518SOL    HW223394   4.890  14.431   8.406
40519SOL     OW23395   2.466   9.376   0.104
40519SOL    HW123396   2.402   9.322   0.057
40519SOL    HW223397   2.430   9.384   0.192
40520SOL     OW23398  13.924   7.406   2.474
40520SOL    HW123399  13.972   7.360   2.542
40520SOL    HW223400  13.875   7.338   2.428
40521SOL     OW23401   7.138   0.273  14.761
40521SOL    HW123402   7.207   0.233  14.813
40521SOL    HW223403   7.082   0.317  14.825
40522SOL     OW23404   0.251   3.542   2.063
40522SOL    HW123405   0.173   3.501   2.100
40522SOL    HW223406   0.241   3.636   2.081
40523SOL     OW23407   7.573   6.335  11.716
40523SOL    HW123408   7.483   6.366  11.708
40523SOL    HW223409   7.627   6.412  11.700
40524SOL     OW23410  11.495   9.062   2.333
40524SOL    HW123411  11.540   9.072   2.417
40524SOL    HW223412  11.420   9.005   2.352
40525SOL     OW23413   1.567   5.022  14.501
40525SOL    HW123414   1.598   5.093  14.556
40525SOL    HW223415   1.565   4.945  14.559
40526SOL     OW23416   8.052   0.476   4.272
40526SOL    HW123417   7.979   0.484   4.211
40526SOL    HW223418   8.025   0.525   4.350
40527SOL     OW23419  13.641  10.539   0.698
40527SOL    HW123420  13.652  10.588   0.780
40527SOL    HW223421  13.667  10.450   0.719
40528SOL     OW23422  11.127   2.549  14.683
40528SOL    HW123423  11.093   2.612  14.619
40528SOL    HW223424  11.052   2.531  14.740
40529SOL     OW23425  13.013   3.748   4.608
40529SOL    HW123426  13.109   3.752   4.603
40529SOL    HW223427  12.985   3.839   4.615
40530SOL     OW23428  11.651  10.846   2.627
40530SOL    HW123429  11.668  10.881   2.539
40530SOL    HW223430  11.580  10.901   2.660
40531SOL     OW23431   9.837   9.057  11.340
40531SOL    HW123432   9.915   9.086  11.386
40531SOL    HW223433   9.829   9.116  11.265
40532SOL     OW23434   9.132   7.150   2.046
40532SOL    HW123435   9.164   7.240   2.059
40532SOL    HW223436   9.060   7.159   1.985
40533SOL     OW23437   4.555   9.922   6.754
40533SOL    HW123438   4.531  10.012   6.778
40533SOL    HW223439   4.578   9.881   6.837
40534SOL     OW23440   6.665  14.404   2.258
40534SOL    HW123441   6.663  14.321   2.210
40534SOL    HW223442   6.746  14.446   2.230
40535SOL     OW23443  10.067  12.114   1.412
40535SOL    HW123444  10.140  12.148   1.464
40535SOL    HW223445  10.103  12.037   1.368
40536SOL     OW23446   5.148   0.959   9.568
40536SOL    HW123447   5.210   0.897   9.531
40536SOL    HW223448   5.084   0.905   9.616
40537SOL     OW23449  12.681   8.441   5.020
40537SOL    HW123450  12.698   8.353   5.053
40537SOL    HW223451  12.758   8.461   4.966
40538SOL     OW23452  12.161   0.119   9.952
40538SOL    HW123453  12.093   0.116   9.885
40538SOL    HW223454  12.202   0.204   9.940
40539SOL     OW23455   4.809   3.401   0.227
40539SOL    HW123456   4.714   3.401   0.217
40539SOL    HW223457   4.843   3.390   0.139
40540SOL     OW23458  11.557   1.308   3.501
40540SOL    HW123459  11.602   1.383   3.539
40540SOL    HW223460  11.586   1.306   3.410
40541SOL     OW23461  14.698   8.101  13.441
40541SOL    HW123462  14.724   8.148  13.520
40541SOL    HW223463  14.672   8.014  13.472
40542SOL     OW23464  12.972  12.371  11.464
40542SOL    HW123465  12.883  12.402  11.480
40542SOL    HW223466  12.991  12.312  11.537
40543SOL     OW23467   4.295   2.634  10.663
40543SOL    HW123468   4.203   2.652  10.642
40543SOL    HW223469   4.345   2.699  10.614
40544SOL     OW23470  14.531  14.223   6.806
40544SOL    HW123471  14.541  14.133   6.776
40544SOL    HW223472  14.619  14.261   6.800
40545SOL     OW23473   9.945  11.066   8.099
40545SOL    HW123474   9.934  10.971   8.104
40545SOL    HW223475   9.983  11.082   8.013
40546SOL     OW23476  10.656  11.053  12.527
40546SOL    HW123477  10.576  11.052  12.581
40546SOL    HW223478  10.629  11.016  12.443
40547SOL     OW23479   8.986   2.146  10.691
40547SOL    HW123480   8.993   2.228  10.642
40547SOL    HW223481   9.007   2.170  10.781
40548SOL     OW23482   8.359   4.552   9.202
40548SOL    HW123483   8.382   4.640   9.171
40548SOL    HW223484   8.443   4.512   9.225
40549SOL     OW23485  10.475   4.170   3.918
40549SOL    HW123486  10.570   4.163   3.909
40549SOL    HW223487  10.462   4.254   3.962
40550SOL     OW23488   7.613   7.721   4.540
40550SOL    HW123489   7.624   7.738   4.633
40550SOL    HW223490   7.703   7.723   4.505
40551SOL     OW23491  11.918   6.458   3.746
40551SOL    HW123492  11.995   6.504   3.779
40551SOL    HW223493  11.943   6.366   3.748
40552SOL     OW23494   5.961   9.860  13.606
40552SOL    HW123495   5.898   9.930  13.588
40552SOL    HW223496   6.037   9.881  13.551
40553SOL     OW23497  11.333   4.203   1.944
40553SOL    HW123498  11.358   4.134   1.882
40553SOL    HW223499  11.407   4.211   2.003
40554SOL     OW23500   8.654   2.212  11.043
40554SOL    HW123501   8.612   2.298  11.041
40554SOL    HW223502   8.740   2.227  11.081
40555SOL     OW23503  12.222   0.798   7.971
40555SOL    HW123504  12.128   0.812   7.981
40555SOL    HW223505  12.245   0.738   8.042
40556SOL     OW23506   4.472  11.025   8.335
40556SOL    HW123507   4.407  11.077   8.383
40556SOL    HW223508   4.492  11.078   8.258
40557SOL     OW23509   8.734   9.324   2.272
40557SOL    HW123510   8.802   9.327   2.339
40557SOL    HW223511   8.743   9.406   2.224
40558SOL     OW23512   8.184  14.602   8.572
40558SOL    HW123513   8.092  14.580   8.557
40558SOL    HW223514   8.220  14.616   8.485
40559SOL     OW23515   4.310  14.092   4.221
40559SOL    HW123516   4.248  14.138   4.165
40559SOL    HW223517   4.258  14.067   4.298
40560SOL     OW23518  10.147   8.994  12.419
40560SOL    HW123519  10.150   9.090  12.413
40560SOL    HW223520  10.238   8.968  12.433
40561SOL     OW23521   4.049   4.581   7.466
40561SOL    HW123522   4.017   4.551   7.551
40561SOL    HW223523   4.025   4.510   7.406
40562SOL     OW23524   9.879  14.414   9.025
40562SOL    HW123525   9.959  14.381   9.067
40562SOL    HW223526   9.834  14.461   9.095
40563SOL     OW23527  10.475   9.720   0.009
40563SOL    HW123528  10.390   9.689   0.040
40563SOL    HW223529  10.453   9.789  14.819
40564SOL     OW23530   1.253  12.187   3.112
40564SOL    HW123531   1.340  12.151   3.097
40564SOL    HW223532   1.260  12.236   3.194
40565SOL     OW23533   9.002  14.286   5.647
40565SOL    HW123534   8.986  14.213   5.587
40565SOL    HW223535   9.095  14.280   5.668
40566SOL     OW23536   0.720  10.769   6.012
40566SOL    HW123537   0.756  10.837   5.955
40566SOL    HW223538   0.700  10.813   6.094
40567SOL     OW23539   6.231   7.441   3.787
40567SOL    HW123540   6.141   7.413   3.769
40567SOL    HW223541   6.226   7.490   3.869
40568SOL     OW23542  14.245   9.971  10.846
40568SOL    HW123543  14.228   9.883  10.815
40568SOL    HW223544  14.283  10.016  10.771
40569SOL     OW23545  13.783   4.279   8.081
40569SOL    HW123546  13.830   4.354   8.045
40569SOL    HW223547  13.750   4.310   8.165
40570SOL     OW23548  10.625   5.760  13.518
40570SOL    HW123549  10.535   5.745  13.489
40570SOL    HW223550  10.641   5.690  13.582
40571SOL     OW23551  13.714   8.554   6.356
40571SOL    HW123552  13.734   8.609   6.433
40571SOL    HW223553  13.771   8.589   6.287
40572SOL     OW23554  12.019   0.974  11.228
40572SOL    HW123555  11.944   0.967  11.287
40572SOL    HW223556  11.996   1.044  11.168
40573SOL     OW23557   4.655   8.128   1.520
40573SOL    HW123558   4.718   8.065   1.554
40573SOL    HW223559   4.596   8.145   1.593
40574SOL     OW23560   7.062   4.533   5.654
40574SOL    HW123561   7.127   4.463   5.640
40574SOL    HW223562   7.114   4.608   5.683
40575SOL     OW23563   5.951   9.310   2.878
40575SOL    HW123564   5.999   9.242   2.925
40575SOL    HW223565   5.983   9.392   2.916
40576SOL     OW23566   1.383   9.039  10.434
40576SOL    HW123567   1.444   9.048  10.507
40576SOL    HW223568   1.382   9.126  10.393
40577SOL     OW23569  12.507   2.234   0.720
40577SOL    HW123570  12.493   2.327   0.704
40577SOL    HW223571  12.509   2.227   0.816
40578SOL     OW23572   9.834   4.551   4.029
40578SOL    HW123573   9.783   4.502   4.094
40578SOL    HW223574   9.774   4.561   3.954
40579SOL     OW23575   7.986   3.268   6.533
40579SOL    HW123576   7.972   3.229   6.447
40579SOL    HW223577   8.074   3.240   6.558
40580SOL     OW23578   7.881   3.712  12.354
40580SOL    HW123579   7.898   3.713  12.448
40580SOL    HW223580   7.966   3.732  12.314
40581SOL     OW23581   1.711  13.216   0.451
40581SOL    HW123582   1.691  13.250   0.363
40581SOL    HW223583   1.804  13.197   0.449
40582SOL     OW23584   6.683   5.595   8.229
40582SOL    HW123585   6.608   5.547   8.264
40582SOL    HW223586   6.678   5.681   8.271
40583SOL     OW23587  10.170   3.736  10.397
40583SOL    HW123588  10.089   3.763  10.440
40583SOL    HW223589  10.179   3.796  10.322
40584SOL     OW23590   4.294   4.112   6.228
40584SOL    HW123591   4.250   4.196   6.227
40584SOL    HW223592   4.285   4.078   6.139
40585SOL     OW23593   1.244  14.792   1.293
40585SOL    HW123594   1.321  14.829   1.336
40585SOL    HW223595   1.177  14.860   1.300
40586SOL     OW23596   3.807   7.010   4.110
40586SOL    HW123597   3.784   6.942   4.046
40586SOL    HW223598   3.896   6.988   4.138
40587SOL     OW23599   2.198  13.870  11.607
40587SOL    HW123600   2.190  13.818  11.688
40587SOL    HW223601   2.161  13.955  11.630
40588SOL     OW23602  10.308   1.278   2.527
40588SOL    HW123603  10.251   1.292   2.602
40588SOL    HW223604  10.251   1.239   2.460
40589SOL     OW23605   7.320   0.297  12.640
40589SOL    HW123606   7.264   0.221  12.660
40589SOL    HW223607   7.324   0.298  12.545
40590SOL     OW23608  14.175   3.892   6.903
40590SOL    HW123609  14.268   3.912   6.903
40590SOL    HW223610  14.135   3.962   6.852
40591SOL     OW23611   5.257   7.449   0.572
40591SOL    HW123612   5.302   7.533   0.562
40591SOL    HW223613   5.274   7.403   0.490
40592SOL     OW23614   3.875   3.109   5.191
40592SOL    HW123615   3.920   3.126   5.109
40592SOL    HW223616   3.782   3.125   5.172
40593SOL     OW23617   2.956   2.346   3.916
40593SOL    HW123618   3.000   2.400   3.850
40593SOL    HW223619   2.986   2.382   4.000
40594SOL     OW23620  11.603  13.500   4.835
40594SOL    HW123621  11.641  13.578   4.795
40594SOL    HW223622  11.533  13.533   4.891
40595SOL     OW23623   9.521  10.311   8.297
40595SOL    HW123624   9.593  10.315   8.234
40595SOL    HW223625   9.443  10.298   8.245
40596SOL     OW23626  10.135  14.742  10.307
40596SOL    HW123627  10.069  14.751  10.237
40596SOL    HW223628  10.085  14.754  10.388
40597SOL     OW23629  13.257   6.976   0.414
40597SOL    HW123630  13.187   7.005   0.473
40597SOL    HW223631  13.306   6.912   0.466
40598SOL     OW23632   7.155   9.166   7.698
40598SOL    HW123633   7.199   9.226   7.638
40598SOL    HW223634   7.220   9.145   7.764
40599SOL     OW23635   9.439   2.213  13.863
40599SOL    HW123636   9.470   2.128  13.832
40599SOL    HW223637   9.518   2.267  13.871
40600SOL     OW23638  12.112   4.142   8.941
40600SOL    HW123639  12.177   4.073   8.932
40600SOL    HW223640  12.119   4.170   9.032
40601SOL     OW23641   4.180   3.304   7.191
40601SOL    HW123642   4.130   3.316   7.272
40601SOL    HW223643   4.259   3.257   7.218
40602SOL     OW23644   7.966   4.374   1.332
40602SOL    HW123645   8.028   4.327   1.388
40602SOL    HW223646   7.962   4.322   1.252
40603SOL     OW23647   2.379   9.931  12.653
40603SOL    HW123648   2.359  10.022  12.631
40603SOL    HW223649   2.402   9.934  12.746
40604SOL     OW23650  11.974   7.009   7.459
40604SOL    HW123651  11.938   7.064   7.390
40604SOL    HW223652  11.963   7.059   7.539
40605SOL     OW23653  11.236   8.818   9.392
40605SOL    HW123654  11.216   8.896   9.340
40605SOL    HW223655  11.212   8.842   9.481
40606SOL     OW23656   1.312  14.058   2.818
40606SOL    HW123657   1.218  14.040   2.814
40606SOL    HW223658   1.353  13.983   2.774
40607SOL     OW23659   4.383  13.741  14.090
40607SOL    HW123660   4.398  13.758  13.997
40607SOL    HW223661   4.374  13.827  14.129
40608SOL     OW23662   7.746  14.418   3.227
40608SOL    HW123663   7.677  14.459   3.175
40608SOL    HW223664   7.800  14.491   3.257
40609SOL     OW23665  12.621   7.636   1.709
40609SOL    HW123666  12.690   7.682   1.756
40609SOL    HW223667  12.664   7.559   1.672
40610SOL     OW23668   0.197   2.373   9.222
40610SOL    HW123669   0.248   2.454   9.210
40610SOL    HW223670   0.202   2.329   9.138
40611SOL     OW23671   3.295   0.093  14.713
40611SOL    HW123672   3.275   0.085  14.620
40611SOL    HW223673   3.210   0.096  14.756
40612SOL     OW23674   8.659   2.071   2.842
40612SOL    HW123675   8.740   2.086   2.892
40612SOL    HW223676   8.637   1.979   2.859
40613SOL     OW23677  11.171   8.649  14.421
40613SOL    HW123678  11.224   8.711  14.372
40613SOL    HW223679  11.097   8.630  14.364
40614SOL     OW23680   4.680  11.743   8.956
40614SOL    HW123681   4.595  11.786   8.965
40614SOL    HW223682   4.663  11.651   8.976
40615SOL     OW23683   8.764   1.923   8.063
40615SOL    HW123684   8.825   1.962   8.000
40615SOL    HW223685   8.816   1.858   8.111
40616SOL     OW23686   2.684   0.434  10.582
40616SOL    HW123687   2.706   0.472  10.497
40616SOL    HW223688   2.742   0.359  10.591
40617SOL     OW23689   5.506   9.056   6.013
40617SOL    HW123690   5.424   9.096   5.984
40617SOL    HW223691   5.482   9.003   6.089
40618SOL     OW23692   9.730  11.359   8.609
40618SOL    HW123693   9.735  11.431   8.671
40618SOL    HW223694   9.766  11.394   8.527
40619SOL     OW23695   6.043   7.083   1.927
40619SOL    HW123696   6.094   7.037   1.861
40619SOL    HW223697   6.066   7.176   1.914
40620SOL     OW23698   0.861   7.870   5.067
40620SOL    HW123699   0.841   7.907   5.153
40620SOL    HW223700   0.828   7.936   5.005
40621SOL     OW23701   4.236   1.352   2.564
40621SOL    HW123702   4.235   1.437   2.520
40621SOL    HW223703   4.328   1.326   2.566
40622SOL     OW23704   5.065  13.672  13.020
40622SOL    HW123705   5.043  13.757  13.058
40622SOL    HW223706   4.980  13.630  13.006
40623SOL     OW23707  12.058  10.026  11.726
40623SOL    HW123708  12.142   9.983  11.709
40623SOL    HW223709  12.081  10.116  11.750
40624SOL     OW23710   9.216   3.174  10.819
40624SOL    HW123711   9.200   3.246  10.758
40624SOL    HW223712   9.172   3.201  10.900
40625SOL     OW23713  10.303   6.129  14.637
40625SOL    HW123714  10.324   6.073  14.712
40625SOL    HW223715  10.363   6.100  14.568
40626SOL     OW23716   6.474   2.536   3.679
40626SOL    HW123717   6.417   2.460   3.686
40626SOL    HW223718   6.526   2.535   3.759
40627SOL     OW23719   0.171   9.019  10.998
40627SOL    HW123720   0.148   8.927  11.011
40627SOL    HW223721   0.088   9.061  10.977
40628SOL     OW23722   3.614   7.262  11.180
40628SOL    HW123723   3.563   7.190  11.142
40628SOL    HW223724   3.651   7.226  11.260
40629SOL     OW23725   2.891   4.500   5.144
40629SOL    HW123726   2.798   4.490   5.127
40629SOL    HW223727   2.933   4.485   5.060
40630SOL     OW23728   6.264   4.315   2.408
40630SOL    HW123729   6.283   4.222   2.412
40630SOL    HW223730   6.172   4.320   2.382
40631SOL     OW23731  12.951   6.061   2.177
40631SOL    HW123732  12.927   6.003   2.248
40631SOL    HW223733  12.930   6.149   2.209
40632SOL     OW23734  12.519  13.119   8.480
40632SOL    HW123735  12.493  13.112   8.572
40632SOL    HW223736  12.526  13.213   8.464
40633SOL     OW23737   9.539  11.748   1.769
40633SOL    HW123738   9.562  11.693   1.694
40633SOL    HW223739   9.485  11.818   1.733
40634SOL     OW23740   3.321  12.827   3.364
40634SOL    HW123741   3.280  12.769   3.429
40634SOL    HW223742   3.272  12.909   3.371
40635SOL     OW23743   3.061  14.407   2.952
40635SOL    HW123744   3.123  14.412   2.879
40635SOL    HW223745   2.975  14.401   2.910
40636SOL     OW23746   7.989   6.179  10.797
40636SOL    HW123747   8.078   6.143  10.796
40636SOL    HW223748   7.991   6.246  10.865
40637SOL     OW23749   0.365   2.299  10.609
40637SOL    HW123750   0.374   2.235  10.539
40637SOL    HW223751   0.435   2.277  10.671
40638SOL     OW23752   9.007   8.096   7.236
40638SOL    HW123753   8.912   8.108   7.240
40638SOL    HW223754   9.020   8.002   7.250
40639SOL     OW23755   7.342   4.675   9.657
40639SOL    HW123756   7.300   4.745   9.708
40639SOL    HW223757   7.431   4.707   9.642
40640SOL     OW23758   4.711   8.291   2.667
40640SOL    HW123759   4.645   8.240   2.715
40640SOL    HW223760   4.661   8.357   2.620
40641SOL     OW23761   8.480   3.341  13.976
40641SOL    HW123762   8.446   3.378  14.059
40641SOL    HW223763   8.414   3.366  13.911
40642SOL     OW23764  14.161  13.308  11.348
40642SOL    HW123765  14.163  13.366  11.424
40642SOL    HW223766  14.081  13.331  11.302
40643SOL     OW23767  12.167   2.883   7.153
40643SOL    HW123768  12.235   2.849   7.211
40643SOL    HW223769  12.151   2.972   7.186
40644SOL     OW23770  12.008   0.182   4.912
40644SOL    HW123771  12.047   0.128   4.843
40644SOL    HW223772  11.919   0.148   4.921
40645SOL     OW23773  14.328  13.002   7.296
40645SOL    HW123774  14.338  13.072   7.360
40645SOL    HW223775  14.254  12.950   7.327
40646SOL     OW23776   0.733   0.154   6.517
40646SOL    HW123777   0.805   0.104   6.479
40646SOL    HW223778   0.728   0.234   6.463
40647SOL     OW23779  10.828   7.433   9.328
40647SOL    HW123780  10.748   7.414   9.279
40647SOL    HW223781  10.893   7.455   9.261
40648SOL     OW23782   4.425  13.171  14.704
40648SOL    HW123783   4.495  13.232  14.730
40648SOL    HW223784   4.356  13.228  14.670
40649SOL     OW23785   3.767  10.860   1.148
40649SOL    HW123786   3.829  10.820   1.210
40649SOL    HW223787   3.779  10.954   1.160
40650SOL     OW23788  11.548   3.922   2.463
40650SOL    HW123789  11.633   3.915   2.505
40650SOL    HW223790  11.567   3.946   2.372
40651SOL     OW23791   1.562  10.626  11.907
40651SOL    HW123792   1.478  10.670  11.895
40651SOL    HW223793   1.550  10.540  11.865
40652SOL     OW23794   3.300   9.995   1.789
40652SOL    HW123795   3.302   9.959   1.700
40652SOL    HW223796   3.278  10.088   1.776
40653SOL     OW23797   9.585   5.922   6.545
40653SOL    HW123798   9.592   5.833   6.510
40653SOL    HW223799   9.643   5.975   6.491
40654SOL     OW23800   3.256   9.272  13.376
40654SOL    HW123801   3.220   9.290  13.463
40654SOL    HW223802   3.245   9.177  13.365
40655SOL     OW23803  11.899   4.970  14.109
40655SOL    HW123804  11.920   4.979  14.202
40655SOL    HW223805  11.880   4.877  14.097
40656SOL     OW23806   0.651   3.476   6.787
40656SOL    HW123807   0.649   3.388   6.823
40656SOL    HW223808   0.710   3.469   6.711
40657SOL     OW23809   1.954   0.455  13.871
40657SOL    HW123810   1.916   0.543  13.860
40657SOL    HW223811   1.964   0.446  13.966
40658SOL     OW23812   1.749   1.396   4.155
40658SOL    HW123813   1.791   1.434   4.078
40658SOL    HW223814   1.817   1.342   4.195
40659SOL     OW23815  11.968   0.485  12.299
40659SOL    HW123816  11.901   0.540  12.260
40659SOL    HW223817  11.974   0.514  12.390
40660SOL     OW23818   1.480   1.760   3.655
40660SOL    HW123819   1.445   1.726   3.573
40660SOL    HW223820   1.428   1.717   3.723
40661SOL     OW23821   9.160   5.927   1.293
40661SOL    HW123822   9.195   5.922   1.204
40661SOL    HW223823   9.186   6.013   1.325
40662SOL     OW23824  14.326   2.316  14.739
40662SOL    HW123825  14.280   2.376  14.798
40662SOL    HW223826  14.266   2.242  14.729
40663SOL     OW23827   4.793   8.706  12.716
40663SOL    HW123828   4.742   8.636  12.677
40663SOL    HW223829   4.855   8.661  12.774
40664SOL     OW23830  12.211   4.104   3.894
40664SOL    HW123831  12.244   4.035   3.835
40664SOL    HW223832  12.128   4.131   3.855
40665SOL     OW23833   8.956   1.576   2.896
40665SOL    HW123834   8.966   1.664   2.860
40665SOL    HW223835   8.863   1.567   2.913
40666SOL     OW23836   8.655   9.028   6.815
40666SOL    HW123837   8.669   8.945   6.769
40666SOL    HW223838   8.728   9.034   6.877
40667SOL     OW23839   1.672   2.152  12.918
40667SOL    HW123840   1.742   2.126  12.978
40667SOL    HW223841   1.606   2.082  12.926
40668SOL     OW23842  10.779  14.132   8.275
40668SOL    HW123843  10.728  14.060   8.239
40668SOL    HW223844  10.717  14.205   8.281
40669SOL     OW23845   1.471  14.307  12.669
40669SOL    HW123846   1.413  14.382  12.653
40669SOL    HW223847   1.541  14.343  12.723
40670SOL     OW23848   2.636   7.787   1.388
40670SOL    HW123849   2.603   7.724   1.453
40670SOL    HW223850   2.685   7.851   1.439
40671SOL     OW23851   0.769   7.613   0.735
40671SOL    HW123852   0.852   7.566   0.743
40671SOL    HW223853   0.718   7.585   0.811
40672SOL     OW23854   8.907  10.715   7.822
40672SOL    HW123855   8.856  10.650   7.774
40672SOL    HW223856   8.927  10.672   7.905
40673SOL     OW23857   5.428   1.726   8.809
40673SOL    HW123858   5.461   1.645   8.848
40673SOL    HW223859   5.355   1.752   8.866
40674SOL     OW23860   4.028   3.934  10.306
40674SOL    HW123861   4.074   3.892  10.234
40674SOL    HW223862   4.093   3.993  10.345
40675SOL     OW23863  12.111   8.158  12.629
40675SOL    HW123864  12.071   8.236  12.591
40675SOL    HW223865  12.057   8.085  12.596
40676SOL     OW23866   5.932   0.519  14.737
40676SOL    HW123867   5.851   0.507  14.785
40676SOL    HW223868   5.925   0.606  14.699
40677SOL     OW23869   3.097   3.784   2.663
40677SOL    HW123870   3.111   3.701   2.617
40677SOL    HW223871   3.003   3.786   2.682
40678SOL     OW23872   9.609   6.152  10.229
40678SOL    HW123873   9.671   6.182  10.296
40678SOL    HW223874   9.546   6.224  10.221
40679SOL     OW23875   6.304  11.593   3.617
40679SOL    HW123876   6.285  11.656   3.547
40679SOL    HW223877   6.348  11.645   3.685
40680SOL     OW23878   8.095   0.440   2.399
40680SOL    HW123879   8.128   0.456   2.487
40680SOL    HW223880   8.000   0.438   2.410
40681SOL     OW23881   5.429   4.204   7.923
40681SOL    HW123882   5.487   4.142   7.879
40681SOL    HW223883   5.431   4.283   7.869
40682SOL     OW23884   6.683   7.616   4.575
40682SOL    HW123885   6.708   7.708   4.576
40682SOL    HW223886   6.588   7.617   4.561
40683SOL     OW23887  14.164   9.120  13.013
40683SOL    HW123888  14.184   9.213  13.008
40683SOL    HW223889  14.191   9.086  12.927
40684SOL     OW23890   7.300   2.565   7.727
40684SOL    HW123891   7.217   2.609   7.707
40684SOL    HW223892   7.330   2.607   7.808
40685SOL     OW23893   9.490   1.450   4.034
40685SOL    HW123894   9.575   1.447   4.079
40685SOL    HW223895   9.508   1.500   3.954
40686SOL     OW23896   0.812   3.272   5.104
40686SOL    HW123897   0.894   3.275   5.154
40686SOL    HW223898   0.753   3.220   5.158
40687SOL     OW23899   8.478   0.572   6.595
40687SOL    HW123900   8.566   0.584   6.559
40687SOL    HW223901   8.468   0.477   6.603
40688SOL     OW23902  11.997   9.301  12.653
40688SOL    HW123903  12.055   9.279  12.580
40688SOL    HW223904  11.943   9.373  12.619
40689SOL     OW23905   4.520  12.943   4.440
40689SOL    HW123906   4.494  12.894   4.362
40689SOL    HW223907   4.453  13.010   4.450
40690SOL     OW23908  12.827  13.139  11.937
40690SOL    HW123909  12.800  13.223  11.976
40690SOL    HW223910  12.794  13.073  11.998
40691SOL     OW23911  12.766   5.910   8.320
40691SOL    HW123912  12.762   5.815   8.305
40691SOL    HW223913  12.809   5.918   8.405
40692SOL     OW23914   4.064  13.029   0.916
40692SOL    HW123915   4.089  13.098   0.854
40692SOL    HW223916   4.073  13.070   1.002
40693SOL     OW23917  14.723   1.412   7.279
40693SOL    HW123918  14.794   1.462   7.320
40693SOL    HW223919  14.763   1.375   7.200
40694SOL     OW23920   8.247   4.453   2.398
40694SOL    HW123921   8.301   4.399   2.456
40694SOL    HW223922   8.311   4.499   2.344
40695SOL     OW23923   7.135   3.409   8.681
40695SOL    HW123924   7.138   3.362   8.598
40695SOL    HW223925   7.084   3.488   8.663
40696SOL     OW23926   6.032  12.441   3.080
40696SOL    HW123927   5.996  12.379   3.143
40696SOL    HW223928   6.087  12.499   3.134
40697SOL     OW23929  10.392  12.995   4.777
40697SOL    HW123930  10.346  13.079   4.783
40697SOL    HW223931  10.340  12.943   4.715
40698SOL     OW23932   5.032   7.990   6.275
40698SOL    HW123933   5.057   8.081   6.292
40698SOL    HW223934   5.091   7.961   6.205
40699SOL     OW23935   5.758  11.736   4.788
40699SOL    HW123936   5.837  11.766   4.833
40699SOL    HW223937   5.729  11.812   4.738
40700SOL     OW23938  14.684  14.607  12.956
40700SOL    HW123939  14.648  14.551  12.887
40700SOL    HW223940  14.623  14.597  13.029
40701SOL     OW23941   8.623   4.076  11.451
40701SOL    HW123942   8.583   4.077  11.364
40701SOL    HW223943   8.550   4.060  11.511
40702SOL     OW23944  11.575   7.465   7.641
40702SOL    HW123945  11.565   7.370   7.643
40702SOL    HW223946  11.494   7.497   7.600
40703SOL     OW23947  14.685   3.763  10.270
40703SOL    HW123948  14.674   3.852  10.237
40703SOL    HW223949  14.753   3.725  10.215
40704SOL     OW23950   5.716   9.417   3.125
40704SOL    HW123951   5.802   9.413   3.082
40704SOL    HW223952   5.735   9.399   3.217
40705SOL     OW23953   2.208   4.856   1.906
40705SOL    HW123954   2.148   4.784   1.924
40705SOL    HW223955   2.295   4.818   1.920
40706SOL     OW23956  10.433  11.289   7.449
40706SOL    HW123957  10.447  11.253   7.361
40706SOL    HW223958  10.490  11.366   7.452
40707SOL     OW23959  13.020   8.590   5.853
40707SOL    HW123960  13.093   8.642   5.821
40707SOL    HW223961  13.053   8.547   5.932
40708SOL     OW23962   4.665   0.375   3.111
40708SOL    HW123963   4.683   0.285   3.082
40708SOL    HW223964   4.584   0.398   3.066
40709SOL     OW23965   6.546   0.471  14.518
40709SOL    HW123966   6.466   0.518  14.541
40709SOL    HW223967   6.568   0.503  14.430
40710SOL     OW23968  10.531  10.027   1.937
40710SOL    HW123969  10.576   9.950   1.974
40710SOL    HW223970  10.602  10.079   1.899
40711SOL     OW23971   7.295  10.015   0.389
40711SOL    HW123972   7.321  10.029   0.298
40711SOL    HW223973   7.200  10.016   0.387
40712SOL     OW23974  11.627   9.862   8.421
40712SOL    HW123975  11.628   9.932   8.356
40712SOL    HW223976  11.711   9.870   8.466
40713SOL     OW23977  11.162  11.063   5.971
40713SOL    HW123978  11.248  11.036   6.003
40713SOL    HW223979  11.180  11.142   5.919
40714SOL     OW23980   5.371  13.347   9.973
40714SOL    HW123981   5.421  13.268   9.993
40714SOL    HW223982   5.347  13.383  10.058
40715SOL     OW23983  12.739   3.924   3.508
40715SOL    HW123984  12.818   3.885   3.471
40715SOL    HW223985  12.741   4.015   3.480
40716SOL     OW23986   4.956   9.731  11.000
40716SOL    HW123987   4.873   9.753  10.957
40716SOL    HW223988   4.989   9.815  11.031
40717SOL     OW23989  14.469   0.139  13.467
40717SOL    HW123990  14.512   0.057  13.491
40717SOL    HW223991  14.499   0.202  13.533
40718SOL     OW23992  10.444   0.187   9.858
40718SOL    HW123993  10.506   0.239   9.909
40718SOL    HW223994  10.381   0.250   9.824
40719SOL     OW23995  11.752   2.023   5.693
40719SOL    HW123996  11.763   2.033   5.787
40719SOL    HW223997  11.829   1.973   5.665
40720SOL     OW23998   6.336  10.743  11.473
40720SOL    HW123999   6.375  10.701  11.549
40720SOL    HW224000   6.410  10.770  11.419
40721SOL     OW24001   7.613   7.960   0.635
40721SOL    HW124002   7.609   7.966   0.539
40721SOL    HW224003   7.685   8.018   0.659
40722SOL     OW24004   5.771   8.174   8.082
40722SOL    HW124005   5.698   8.221   8.122
40722SOL    HW224006   5.762   8.084   8.114
40723SOL     OW24007   3.202  10.325   8.329
40723SOL    HW124008   3.277  10.374   8.298
40723SOL    HW224009   3.227  10.295   8.416
40724SOL     OW24010   5.107   6.120  14.692
40724SOL    HW124011   5.113   6.196  14.749
40724SOL    HW224012   5.036   6.141  14.631
40725SOL     OW24013  12.991  14.561   3.190
40725SOL    HW124014  12.925  14.495   3.210
40725SOL    HW224015  12.956  14.642   3.228
40726SOL     OW24016   9.384  10.862  12.869
40726SOL    HW124017   9.439  10.927  12.914
40726SOL    HW224018   9.437  10.835  12.794
40727SOL     OW24019   0.132  11.784   1.498
40727SOL    HW124020   0.221  11.748   1.498
40727SOL    HW224021   0.124  11.830   1.414
40728SOL     OW24022  13.401   7.338   5.453
40728SOL    HW124023  13.342   7.266   5.474
40728SOL    HW224024  13.469   7.333   5.520
40729SOL     OW24025  12.190  13.210  11.267
40729SOL    HW124026  12.156  13.172  11.348
40729SOL    HW224027  12.155  13.154  11.198
40730SOL     OW24028   2.734  13.620   7.430
40730SOL    HW124029   2.660  13.560   7.426
40730SOL    HW224030   2.772  13.605   7.517
40731SOL     OW24031   7.602   8.999  10.083
40731SOL    HW124032   7.580   9.018   9.992
40731SOL    HW224033   7.696   9.017  10.089
40732SOL     OW24034   7.386   8.616   8.415
40732SOL    HW124035   7.353   8.526   8.415
40732SOL    HW224036   7.382   8.644   8.324
40733SOL     OW24037   1.161  11.148   6.793
40733SOL    HW124038   1.139  11.242   6.791
40733SOL    HW224039   1.256  11.146   6.789
40734SOL     OW24040  13.627   7.906   6.866
40734SOL    HW124041  13.535   7.926   6.850
40734SOL    HW224042  13.650   7.954   6.945
40735SOL     OW24043   3.170   0.892   9.783
40735SOL    HW124044   3.075   0.894   9.793
40735SOL    HW224045   3.201   0.842   9.859
40736SOL     OW24046   7.341  14.695   2.285
40736SOL    HW124047   7.389  14.615   2.262
40736SOL    HW224048   7.285  14.670   2.358
40737SOL     OW24049  13.209  11.041   7.531
40737SOL    HW124050  13.214  10.972   7.597
40737SOL    HW224051  13.117  11.040   7.503
40738SOL     OW24052   5.636  13.101  13.555
40738SOL    HW124053   5.599  13.126  13.470
40738SOL    HW224054   5.648  13.184  13.601
40739SOL     OW24055   2.338   2.785  13.769
40739SOL    HW124056   2.264   2.810  13.825
40739SOL    HW224057   2.368   2.702  13.805
40740SOL     OW24058   3.620  14.331  13.984
40740SOL    HW124059   3.582  14.335  14.072
40740SOL    HW224060   3.549  14.357  13.926
40741SOL     OW24061   3.950  12.153   4.589
40741SOL    HW124062   3.866  12.188   4.558
40741SOL    HW224063   3.941  12.151   4.684
40742SOL     OW24064   9.174  14.268   5.115
40742SOL    HW124065   9.125  14.287   5.195
40742SOL    HW224066   9.167  14.174   5.104
40743SOL     OW24067  13.732   3.399   2.055
40743SOL    HW124068  13.721   3.474   1.997
40743SOL    HW224069  13.825   3.379   2.052
40744SOL     OW24070  13.541   0.381   7.853
40744SOL    HW124071  13.617   0.323   7.843
40744SOL    HW224072  13.568   0.461   7.808
40745SOL     OW24073   9.569  12.473   5.133
40745SOL    HW124074   9.560  12.541   5.200
40745SOL    HW224075   9.663  12.466   5.119
40746SOL     OW24076  12.536  10.420   3.697
40746SOL    HW124077  12.456  10.472   3.694
40746SOL    HW224078  12.536  10.381   3.784
40747SOL     OW24079   9.498   1.856   4.978
40747SOL    HW124080   9.410   1.818   4.980
40747SOL    HW224081   9.487   1.944   5.013
40748SOL     OW24082   0.577   5.769   9.563
40748SOL    HW124083   0.481   5.761   9.565
40748SOL    HW224084   0.604   5.711   9.492
40749SOL     OW24085   8.693   1.290   9.799
40749SOL    HW124086   8.649   1.303   9.883
40749SOL    HW224087   8.704   1.196   9.792
40750SOL     OW24088   3.094   8.325   2.287
40750SOL    HW124089   3.110   8.343   2.380
40750SOL    HW224090   3.127   8.237   2.274
40751SOL     OW24091   4.696  12.157   9.281
40751SOL    HW124092   4.762  12.211   9.238
40751SOL    HW224093   4.623  12.216   9.297
40752SOL     OW24094   0.767  14.406  13.475
40752SOL    HW124095   0.816  14.337  13.520
40752SOL    HW224096   0.811  14.487  13.500
40753SOL     OW24097   9.498   8.150   9.941
40753SOL    HW124098   9.462   8.235   9.919
40753SOL    HW224099   9.588   8.153   9.910
40754SOL     OW24100   0.785   9.785   9.431
40754SOL    HW124101   0.879   9.774   9.441
40754SOL    HW224102   0.773   9.812   9.340
40755SOL     OW24103   2.732   2.139   1.548
40755SOL    HW124104   2.695   2.184   1.472
40755SOL    HW224105   2.762   2.055   1.514
40756SOL     OW24106   2.978  12.627   9.371
40756SOL    HW124107   2.909  12.689   9.345
40756SOL    HW224108   3.059  12.670   9.345
40757SOL     OW24109   8.194  13.325  10.583
40757SOL    HW124110   8.253  13.370  10.644
40757SOL    HW224111   8.116  13.306  10.635
40758SOL     OW24112   4.453   5.174   2.317
40758SOL    HW124113   4.390   5.110   2.352
40758SOL    HW224114   4.517   5.120   2.271
40759SOL     OW24115   1.031  11.661   3.850
40759SOL    HW124116   1.104  11.650   3.789
40759SOL    HW224117   0.964  11.707   3.799
40760SOL     OW24118  12.007   5.724  13.083
40760SOL    HW124119  11.916   5.697  13.071
40760SOL    HW224120  12.056   5.642  13.087
40761SOL     OW24121  11.853   9.433  10.951
40761SOL    HW124122  11.799   9.388  10.886
40761SOL    HW224123  11.816   9.521  10.956
40762SOL     OW24124   8.138   3.160   5.991
40762SOL    HW124125   8.179   3.199   5.914
40762SOL    HW224126   8.047   3.145   5.966
40763SOL     OW24127   8.300   6.744   1.612
40763SOL    HW124128   8.391   6.771   1.602
40763SOL    HW224129   8.294   6.713   1.703
40764SOL     OW24130   3.260  12.815   7.232
40764SOL    HW124131   3.300  12.903   7.229
40764SOL    HW224132   3.250  12.790   7.141
40765SOL     OW24133  10.260  10.374   1.468
40765SOL    HW124134  10.283  10.457   1.507
40765SOL    HW224135  10.189  10.340   1.522
40766SOL     OW24136   5.811   2.503   4.950
40766SOL    HW124137   5.891   2.524   4.998
40766SOL    HW224138   5.781   2.587   4.915
40767SOL     OW24139  14.624   3.568   8.319
40767SOL    HW124140  14.652   3.654   8.351
40767SOL    HW224141  14.632   3.574   8.224
40768SOL     OW24142   8.328   6.356   3.496
40768SOL    HW124143   8.306   6.281   3.550
40768SOL    HW224144   8.358   6.422   3.558
40769SOL     OW24145   2.169   2.673   3.248
40769SOL    HW124146   2.263   2.671   3.269
40769SOL    HW224147   2.165   2.718   3.163
40770SOL     OW24148   4.591   8.969   6.735
40770SOL    HW124149   4.545   8.918   6.668
40770SOL    HW224150   4.662   9.013   6.688
40771SOL     OW24151   5.132  14.440  11.094
40771SOL    HW124152   5.120  14.365  11.152
40771SOL    HW224153   5.097  14.412  11.010
40772SOL     OW24154   3.314  13.176  14.060
40772SOL    HW124155   3.363  13.108  14.013
40772SOL    HW224156   3.356  13.258  14.034
40773SOL     OW24157  14.763  11.971   9.624
40773SOL    HW124158  14.698  11.933   9.564
40773SOL    HW224159  14.808  12.037   9.572
40774SOL     OW24160   0.366   7.189   3.434
40774SOL    HW124161   0.344   7.100   3.409
40774SOL    HW224162   0.376   7.186   3.529
40775SOL     OW24163  11.684  14.578   7.899
40775SOL    HW124164  11.597  14.589   7.937
40775SOL    HW224165  11.722  14.504   7.946
40776SOL     OW24166   6.509   7.926   7.424
40776SOL    HW124167   6.468   7.906   7.340
40776SOL    HW224168   6.557   7.846   7.447
40777SOL     OW24169   9.524   7.347   1.551
40777SOL    HW124170   9.602   7.295   1.532
40777SOL    HW224171   9.526   7.360   1.646
40778SOL     OW24172   1.945   3.888   0.855
40778SOL    HW124173   1.865   3.930   0.886
40778SOL    HW224174   1.917   3.832   0.782
40779SOL     OW24175  11.118  10.588   6.464
40779SOL    HW124176  11.028  10.566   6.441
40779SOL    HW224177  11.156  10.506   6.495
40780SOL     OW24178   4.279   7.641  11.852
40780SOL    HW124179   4.195   7.673  11.883
40780SOL    HW224180   4.306   7.577  11.918
40781SOL     OW24181   8.675   9.684  13.132
40781SOL    HW124182   8.613   9.617  13.161
40781SOL    HW224183   8.620   9.749  13.086
40782SOL     OW24184  14.680   8.355   9.155
40782SOL    HW124185  14.658   8.371   9.247
40782SOL    HW224186  14.654   8.436   9.111
40783SOL     OW24187  10.787   0.175   8.974
40783SOL    HW124188  10.758   0.104   8.916
40783SOL    HW224189  10.870   0.205   8.935
40784SOL     OW24190   3.376  11.971  12.426
40784SOL    HW124191   3.281  11.967  12.421
40784SOL    HW224192   3.406  11.885  12.397
40785SOL     OW24193   8.741   5.271   7.748
40785SOL    HW124194   8.811   5.206   7.753
40785SOL    HW224195   8.786   5.355   7.760
40786SOL     OW24196   5.377  14.408   6.568
40786SOL    HW124197   5.429  14.487   6.585
40786SOL    HW224198   5.442  14.341   6.548
40787SOL     OW24199   4.605   5.397  14.031
40787SOL    HW124200   4.607   5.343  13.951
40787SOL    HW224201   4.658   5.348  14.094
40788SOL     OW24202   9.228  10.188  10.812
40788SOL    HW124203   9.202  10.117  10.754
40788SOL    HW224204   9.224  10.150  10.900
40789SOL     OW24205   3.383   5.573  11.783
40789SOL    HW124206   3.405   5.517  11.858
40789SOL    HW224207   3.340   5.515  11.721
40790SOL     OW24208   0.807   2.025   8.161
40790SOL    HW124209   0.814   2.047   8.254
40790SOL    HW224210   0.896   1.998   8.136
40791SOL     OW24211   4.921  10.401  14.529
40791SOL    HW124212   4.880  10.322  14.565
40791SOL    HW224213   4.901  10.470  14.593
40792SOL     OW24214   4.881   3.282   5.869
40792SOL    HW124215   4.809   3.277   5.805
40792SOL    HW224216   4.943   3.343   5.830
40793SOL     OW24217   7.987   0.858   3.598
40793SOL    HW124218   7.955   0.932   3.650
40793SOL    HW224219   7.942   0.866   3.514
40794SOL     OW24220   2.710  12.229   8.651
40794SOL    HW124221   2.704  12.134   8.643
40794SOL    HW224222   2.715  12.260   8.560
40795SOL     OW24223   4.310   3.725  12.882
40795SOL    HW124224   4.233   3.720  12.939
40795SOL    HW224225   4.287   3.792  12.817
40796SOL     OW24226   3.132  10.248   5.452
40796SOL    HW124227   3.170  10.267   5.367
40796SOL    HW224228   3.205  10.257   5.514
40797SOL     OW24229   4.555   0.892   0.480
40797SOL    HW124230   4.552   0.798   0.494
40797SOL    HW224231   4.545   0.903   0.386
40798SOL     OW24232  10.108  10.243   9.727
40798SOL    HW124233  10.026  10.195   9.718
40798SOL    HW224234  10.103  10.282   9.814
40799SOL     OW24235  12.450   0.766   4.157
40799SOL    HW124236  12.409   0.844   4.120
40799SOL    HW224237  12.425   0.766   4.249
40800SOL     OW24238   5.962   5.226   5.100
40800SOL    HW124239   5.938   5.144   5.056
40800SOL    HW224240   6.054   5.240   5.076
40801SOL     OW24241   1.059   1.433  14.035
40801SOL    HW124242   1.086   1.419  14.126
40801SOL    HW224243   1.090   1.521  14.015
40802SOL     OW24244  11.661   1.274  14.470
40802SOL    HW124245  11.605   1.213  14.421
40802SOL    HW224246  11.742   1.277  14.420
40803SOL     OW24247  12.972  14.156  14.142
40803SOL    HW124248  12.989  14.063  14.152
40803SOL    HW224249  12.969  14.170  14.047
40804SOL     OW24250   9.221   3.209   3.821
40804SOL    HW124251   9.298   3.175   3.774
40804SOL    HW224252   9.256   3.278   3.877
40805SOL     OW24253   1.564   1.516   5.054
40805SOL    HW124254   1.623   1.518   5.129
40805SOL    HW224255   1.496   1.580   5.075
40806SOL     OW24256   9.231   0.647  13.755
40806SOL    HW124257   9.146   0.628  13.714
40806SOL    HW224258   9.254   0.565  13.800
40807SOL     OW24259  10.100   3.102   1.747
40807SOL    HW124260  10.119   3.009   1.760
40807SOL    HW224261  10.164   3.147   1.802
40808SOL     OW24262  10.856  11.408   9.404
40808SOL    HW124263  10.769  11.374   9.383
40808SOL    HW224264  10.840  11.480   9.465
40809SOL     OW24265   7.921   7.877   8.445
40809SOL    HW124266   7.960   7.898   8.529
40809SOL    HW224267   7.850   7.816   8.465
40810SOL     OW24268   5.650  12.801  13.885
40810SOL    HW124269   5.708  12.756  13.823
40810SOL    HW224270   5.594  12.856  13.830
40811SOL     OW24271  11.952  11.906   0.014
40811SOL    HW124272  12.032  11.960   0.010
40811SOL    HW224273  11.891  11.959   0.065
40812SOL     OW24274   2.498   5.692  14.105
40812SOL    HW124275   2.470   5.778  14.076
40812SOL    HW224276   2.561   5.710  14.175
40813SOL     OW24277   0.447  14.568   2.930
40813SOL    HW124278   0.484  14.557   3.018
40813SOL    HW224279   0.393  14.490   2.917
40814SOL     OW24280  13.072   0.009   8.017
40814SOL    HW124281  12.995   0.040   7.969
40814SOL    HW224282  13.041  14.865   8.105
40815SOL     OW24283   7.053  13.949   9.624
40815SOL    HW124284   7.061  13.874   9.565
40815SOL    HW224285   7.001  13.917   9.698
40816SOL     OW24286   7.637   3.853  12.226
40816SOL    HW124287   7.708   3.812  12.274
40816SOL    HW224288   7.570   3.872  12.292
40817SOL     OW24289  12.672   4.451   9.101
40817SOL    HW124290  12.758   4.408   9.107
40817SOL    HW224291  12.652   4.451   9.007
40818SOL     OW24292   5.642  10.629  10.953
40818SOL    HW124293   5.688  10.548  10.976
40818SOL    HW224294   5.583  10.645  11.026
40819SOL     OW24295   4.957  12.038  13.430
40819SOL    HW124296   4.984  12.054  13.521
40819SOL    HW224297   4.862  12.047  13.431
40820SOL     OW24298  14.123  13.881   9.499
40820SOL    HW124299  14.073  13.960   9.479
40820SOL    HW224300  14.160  13.896   9.586
40821SOL     OW24301  10.329  10.770   0.316
40821SOL    HW124302  10.248  10.723   0.296
40821SOL    HW224303  10.312  10.860   0.287
40822SOL     OW24304  14.802   0.232   2.103
40822SOL    HW124305  14.816   0.210   2.011
40822SOL    HW224306   0.015   0.225   2.143
40823SOL     OW24307  14.416   0.291   9.395
40823SOL    HW124308  14.403   0.319   9.485
40823SOL    HW224309  14.508   0.268   9.389
40824SOL     OW24310   9.223   0.352  13.364
40824SOL    HW124311   9.160   0.364  13.292
40824SOL    HW224312   9.294   0.301  13.325
40825SOL     OW24313  12.939   3.221   4.776
40825SOL    HW124314  12.906   3.306   4.746
40825SOL    HW224315  13.014   3.203   4.720
40826SOL     OW24316   2.172   8.400   4.702
40826SOL    HW124317   2.264   8.383   4.721
40826SOL    HW224318   2.126   8.324   4.737
40827SOL     OW24319   4.789   6.088   4.542
40827SOL    HW124320   4.737   6.052   4.615
40827SOL    HW224321   4.746   6.055   4.464
40828SOL     OW24322   6.594   3.345   4.030
40828SOL    HW124323   6.591   3.261   4.076
40828SOL    HW224324   6.678   3.344   3.984
40829SOL     OW24325  14.145   7.301   4.412
40829SOL    HW124326  14.139   7.326   4.320
40829SOL    HW224327  14.134   7.206   4.412
40830SOL     OW24328   4.779   0.522  10.152
40830SOL    HW124329   4.732   0.504  10.070
40830SOL    HW224330   4.795   0.616  10.150
40831SOL     OW24331  11.836  14.691   7.331
40831SOL    HW124332  11.879  14.618   7.375
40831SOL    HW224333  11.809  14.656   7.246
40832SOL     OW24334  14.839  12.590   1.959
40832SOL    HW124335  14.764  12.647   1.974
40832SOL    HW224336  14.803  12.501   1.966
40833SOL     OW24337   0.328   5.318   8.072
40833SOL    HW124338   0.240   5.329   8.108
40833SOL    HW224339   0.315   5.267   7.992
40834SOL     OW24340  13.259   1.227   1.012
40834SOL    HW124341  13.315   1.269   0.946
40834SOL    HW224342  13.170   1.252   0.986
40835SOL     OW24343   3.771   3.695  10.993
40835SOL    HW124344   3.737   3.621  11.043
40835SOL    HW224345   3.694   3.732  10.950
40836SOL     OW24346   4.329   8.822   2.547
40836SOL    HW124347   4.308   8.749   2.605
40836SOL    HW224348   4.352   8.781   2.464
40837SOL     OW24349  10.522  10.994  10.519
40837SOL    HW124350  10.452  10.950  10.470
40837SOL    HW224351  10.501  11.087  10.513
40838SOL     OW24352   5.359   4.359   8.892
40838SOL    HW124353   5.397   4.326   8.973
40838SOL    HW224354   5.382   4.294   8.826
40839SOL     OW24355  14.720   4.685   4.916
40839SOL    HW124356  14.648   4.739   4.883
40839SOL    HW224357  14.682   4.598   4.928
40840SOL     OW24358  12.872   9.597   6.144
40840SOL    HW124359  12.837   9.517   6.183
40840SOL    HW224360  12.913   9.569   6.062
40841SOL     OW24361   0.143   2.358   8.295
40841SOL    HW124362   0.213   2.328   8.237
40841SOL    HW224363   0.187   2.374   8.379
40842SOL     OW24364   1.183   7.168   2.024
40842SOL    HW124365   1.221   7.241   1.975
40842SOL    HW224366   1.183   7.095   1.962
40843SOL     OW24367   6.896   6.489   9.788
40843SOL    HW124368   6.844   6.480   9.868
40843SOL    HW224369   6.986   6.498   9.819
40844SOL     OW24370  12.172  13.649  12.385
40844SOL    HW124371  12.145  13.685  12.469
40844SOL    HW224372  12.140  13.559  12.386
40845SOL     OW24373   7.135  14.607   2.429
40845SOL    HW124374   7.067  14.561   2.477
40845SOL    HW224375   7.124  14.699   2.454
40846SOL     OW24376   6.691   9.792   8.859
40846SOL    HW124377   6.692   9.843   8.778
40846SOL    HW224378   6.617   9.827   8.908
40847SOL     OW24379  10.436  13.754   8.991
40847SOL    HW124380  10.404  13.688   9.053
40847SOL    HW224381  10.476  13.821   9.046
40848SOL     OW24382   0.365   3.452  13.708
40848SOL    HW124383   0.350   3.527  13.650
40848SOL    HW224384   0.418   3.392  13.655
40849SOL     OW24385   2.458   5.718   4.013
40849SOL    HW124386   2.380   5.726   3.958
40849SOL    HW224387   2.440   5.775   4.088
40850SOL     OW24388   6.174   9.442   8.194
40850SOL    HW124389   6.139   9.391   8.268
40850SOL    HW224390   6.218   9.377   8.139
40851SOL     OW24391  10.010  13.833   7.583
40851SOL    HW124392   9.948  13.899   7.552
40851SOL    HW224393  10.090  13.850   7.533
40852SOL     OW24394   1.638   8.160   0.995
40852SOL    HW124395   1.599   8.248   0.998
40852SOL    HW224396   1.642   8.132   1.086
40853SOL     OW24397  10.636   5.089  12.837
40853SOL    HW124398  10.641   5.057  12.746
40853SOL    HW224399  10.727   5.109  12.860
40854SOL     OW24400  12.413   1.038   6.323
40854SOL    HW124401  12.458   1.119   6.299
40854SOL    HW224402  12.320   1.060   6.318
40855SOL     OW24403  11.298  13.524  10.667
40855SOL    HW124404  11.325  13.522  10.759
40855SOL    HW224405  11.275  13.616  10.652
40856SOL     OW24406   3.387   1.343  10.231
40856SOL    HW124407   3.367   1.297  10.313
40856SOL    HW224408   3.304   1.381  10.203
40857SOL     OW24409  10.092  12.850  10.651
40857SOL    HW124410  10.093  12.923  10.589
40857SOL    HW224411  10.180  12.812  10.645
40858SOL     OW24412   0.636  10.650   5.516
40858SOL    HW124413   0.620  10.721   5.454
40858SOL    HW224414   0.651  10.695   5.600
40859SOL     OW24415  14.714   2.354   6.593
40859SOL    HW124416  14.668   2.396   6.666
40859SOL    HW224417  14.669   2.270   6.581
40860SOL     OW24418   9.672   5.476  10.217
40860SOL    HW124419   9.626   5.419  10.155
40860SOL    HW224420   9.612   5.549  10.232
40861SOL     OW24421   8.993  14.209  12.501
40861SOL    HW124422   9.035  14.126  12.523
40861SOL    HW224423   9.011  14.266  12.576
40862SOL     OW24424  12.716  10.698   8.617
40862SOL    HW124425  12.628  10.732   8.598
40862SOL    HW224426  12.707  10.651   8.699
40863SOL     OW24427   7.413   0.617   3.735
40863SOL    HW124428   7.324   0.595   3.708
40863SOL    HW224429   7.420   0.711   3.719
40864SOL     OW24430  11.146  12.367  14.581
40864SOL    HW124431  11.207  12.297  14.605
40864SOL    HW224432  11.153  12.375  14.486
40865SOL     OW24433   7.157  11.998  14.179
40865SOL    HW124434   7.141  12.080  14.226
40865SOL    HW224435   7.154  12.022  14.086
40866SOL     OW24436   5.807  13.070   4.824
40866SOL    HW124437   5.761  12.990   4.848
40866SOL    HW224438   5.886  13.041   4.778
40867SOL     OW24439   3.266  10.588   7.271
40867SOL    HW124440   3.203  10.576   7.200
40867SOL    HW224441   3.336  10.641   7.232
40868SOL     OW24442   7.008   0.735   2.060
40868SOL    HW124443   6.939   0.773   2.115
40868SOL    HW224444   6.973   0.650   2.034
40869SOL     OW24445   7.394  10.076   0.105
40869SOL    HW124446   7.406  10.132   0.029
40869SOL    HW224447   7.455  10.109   0.170
40870SOL     OW24448   6.471   4.484   8.417
40870SOL    HW124449   6.392   4.536   8.415
40870SOL    HW224450   6.526   4.520   8.347
40871SOL     OW24451   9.794   1.335  13.994
40871SOL    HW124452   9.803   1.350  13.900
40871SOL    HW224453   9.824   1.244  14.006
40872SOL     OW24454   1.864  12.206   7.327
40872SOL    HW124455   1.806  12.144   7.282
40872SOL    HW224456   1.918  12.243   7.257
40873SOL     OW24457   6.684   5.758   4.718
40873SOL    HW124458   6.697   5.843   4.674
40873SOL    HW224459   6.711   5.694   4.653
40874SOL     OW24460  12.951   4.149  14.322
40874SOL    HW124461  12.923   4.191  14.403
40874SOL    HW224462  12.889   4.180  14.256
40875SOL     OW24463   5.861  10.491  14.106
40875SOL    HW124464   5.799  10.492  14.179
40875SOL    HW224465   5.846  10.407  14.064
40876SOL     OW24466   7.561   1.275  10.692
40876SOL    HW124467   7.601   1.347  10.644
40876SOL    HW224468   7.603   1.276  10.778
40877SOL     OW24469  14.230  13.668   2.505
40877SOL    HW124470  14.259  13.578   2.517
40877SOL    HW224471  14.293  13.721   2.553
40878SOL     OW24472   4.693   2.270   5.057
40878SOL    HW124473   4.663   2.332   5.124
40878SOL    HW224474   4.768   2.314   5.017
40879SOL     OW24475   9.431  11.640  13.110
40879SOL    HW124476   9.336  11.654  13.108
40879SOL    HW224477   9.445  11.562  13.058
40880SOL     OW24478   2.901   0.947  13.709
40880SOL    HW124479   2.918   0.934  13.803
40880SOL    HW224480   2.925   0.864  13.669
40881SOL     OW24481  10.600   4.696   8.912
40881SOL    HW124482  10.655   4.692   8.990
40881SOL    HW224483  10.638   4.629   8.854
40882SOL     OW24484  10.719   7.759  10.284
40882SOL    HW124485  10.693   7.746  10.193
40882SOL    HW224486  10.720   7.854  10.295
40883SOL     OW24487  12.153   7.043  12.737
40883SOL    HW124488  12.115   7.125  12.768
40883SOL    HW224489  12.198   7.006  12.814
40884SOL     OW24490   6.725   6.640   5.625
40884SOL    HW124491   6.817   6.628   5.600
40884SOL    HW224492   6.678   6.647   5.542
40885SOL     OW24493   0.719   4.204   1.556
40885SOL    HW124494   0.683   4.116   1.544
40885SOL    HW224495   0.717   4.243   1.469
40886SOL     OW24496  10.137   7.011   1.209
40886SOL    HW124497  10.064   6.990   1.150
40886SOL    HW224498  10.130   7.105   1.223
40887SOL     OW24499  12.924   8.457  13.113
40887SOL    HW124500  12.968   8.396  13.054
40887SOL    HW224501  12.916   8.410  13.196
40888SOL     OW24502  10.150   6.181   7.164
40888SOL    HW124503  10.129   6.178   7.257
40888SOL    HW224504  10.083   6.236   7.126
40889SOL     OW24505   1.056   4.831  10.781
40889SOL    HW124506   1.114   4.758  10.806
40889SOL    HW224507   1.116   4.899  10.750
40890SOL     OW24508   4.103   1.032   8.225
40890SOL    HW124509   4.128   0.939   8.222
40890SOL    HW224510   4.165   1.075   8.166
40891SOL     OW24511   1.687   0.924  11.945
40891SOL    HW124512   1.677   0.829  11.948
40891SOL    HW224513   1.763   0.942  11.999
40892SOL     OW24514   2.083  14.482   7.415
40892SOL    HW124515   2.077  14.430   7.496
40892SOL    HW224516   2.128  14.562   7.442
40893SOL     OW24517  12.357  13.405   8.588
40893SOL    HW124518  12.264  13.427   8.587
40893SOL    HW224519  12.398  13.473   8.535
40894SOL     OW24520   5.800  13.458   3.000
40894SOL    HW124521   5.839  13.543   3.018
40894SOL    HW224522   5.718  13.458   3.050
40895SOL     OW24523   4.635   0.799  10.112
40895SOL    HW124524   4.557   0.750  10.086
40895SOL    HW224525   4.625   0.810  10.207
40896SOL     OW24526   0.312  14.583  12.976
40896SOL    HW124527   0.231  14.531  12.964
40896SOL    HW224528   0.282  14.664  13.017
40897SOL     OW24529   8.053  14.440  13.390
40897SOL    HW124530   8.134  14.486  13.369
40897SOL    HW224531   8.048  14.442  13.485
40898SOL     OW24532   6.661   8.267  14.674
40898SOL    HW124533   6.740   8.258  14.621
40898SOL    HW224534   6.595   8.301  14.614
40899SOL     OW24535   9.512   2.634   4.054
40899SOL    HW124536   9.446   2.596   4.112
40899SOL    HW224537   9.494   2.728   4.056
40900SOL     OW24538  10.502  13.201  10.331
40900SOL    HW124539  10.574  13.174  10.389
40900SOL    HW224540  10.429  13.219  10.391
40901SOL     OW24541   1.326  12.868   9.656
40901SOL    HW124542   1.307  12.777   9.636
40901SOL    HW224543   1.308  12.915   9.574
40902SOL     OW24544  10.889   8.860  10.801
40902SOL    HW124545  10.978   8.885  10.777
40902SOL    HW224546  10.888   8.764  10.793
40903SOL     OW24547   8.865  11.585  10.781
40903SOL    HW124548   8.908  11.671  10.778
40903SOL    HW224549   8.936  11.523  10.763
40904SOL     OW24550   2.966   6.514   2.798
40904SOL    HW124551   2.891   6.498   2.740
40904SOL    HW224552   3.018   6.579   2.751
40905SOL     OW24553  13.409  13.216  11.096
40905SOL    HW124554  13.438  13.145  11.040
40905SOL    HW224555  13.467  13.289  11.074
40906SOL     OW24556   3.365  13.320   8.214
40906SOL    HW124557   3.366  13.415   8.200
40906SOL    HW224558   3.448  13.291   8.176
40907SOL     OW24559  14.558   7.640   0.981
40907SOL    HW124560  14.593   7.729   0.988
40907SOL    HW224561  14.507   7.640   0.900
40908SOL     OW24562   1.998  13.662   2.518
40908SOL    HW124563   2.025  13.741   2.471
40908SOL    HW224564   1.968  13.693   2.603
40909SOL     OW24565   3.640   8.143  10.166
40909SOL    HW124566   3.713   8.196  10.134
40909SOL    HW224567   3.607   8.097  10.089
40910SOL     OW24568  12.393  12.034   9.670
40910SOL    HW124569  12.484  12.039   9.697
40910SOL    HW224570  12.343  12.045   9.752
40911SOL     OW24571  13.457   8.894   4.593
40911SOL    HW124572  13.480   8.982   4.564
40911SOL    HW224573  13.454   8.899   4.688
40912SOL     OW24574   1.737   2.469   2.787
40912SOL    HW124575   1.795   2.393   2.786
40912SOL    HW224576   1.662   2.442   2.734
40913SOL     OW24577   4.383  10.264   2.505
40913SOL    HW124578   4.475  10.257   2.481
40913SOL    HW224579   4.373  10.206   2.581
40914SOL     OW24580   7.869  11.538   4.869
40914SOL    HW124581   7.912  11.585   4.798
40914SOL    HW224582   7.834  11.606   4.926
40915SOL     OW24583   8.634  12.779   4.679
40915SOL    HW124584   8.680  12.863   4.689
40915SOL    HW224585   8.608  12.776   4.588
40916SOL     OW24586   3.253   1.920  14.293
40916SOL    HW124587   3.213   1.915  14.207
40916SOL    HW224588   3.210   1.995  14.335
40917SOL     OW24589   3.576  14.656  12.280
40917SOL    HW124590   3.665  14.668  12.315
40917SOL    HW224591   3.543  14.745  12.268
40918SOL     OW24592   4.465   3.947   7.727
40918SOL    HW124593   4.460   3.869   7.783
40918SOL    HW224594   4.540   3.931   7.670
40919SOL     OW24595   2.377   4.242   1.063
40919SOL    HW124596   2.428   4.166   1.033
40919SOL    HW224597   2.410   4.315   1.010
40920SOL     OW24598   6.359   2.775   3.538
40920SOL    HW124599   6.408   2.697   3.564
40920SOL    HW224600   6.269   2.756   3.561
40921SOL     OW24601   7.961  10.382   9.759
40921SOL    HW124602   7.870  10.407   9.744
40921SOL    HW224603   7.981  10.320   9.689
40922SOL     OW24604  13.738   4.897  13.514
40922SOL    HW124605  13.786   4.945  13.446
40922SOL    HW224606  13.681   4.963  13.554
40923SOL     OW24607  10.357   0.176  10.176
40923SOL    HW124608  10.342   0.265  10.210
40923SOL    HW224609  10.272   0.134  10.180
40924SOL     OW24610   8.890  10.894   9.025
40924SOL    HW124611   8.899  10.919   8.933
40924SOL    HW224612   8.911  10.974   9.074
40925SOL     OW24613   5.027   1.516   6.847
40925SOL    HW124614   5.106   1.567   6.864
40925SOL    HW224615   5.002   1.480   6.932
40926SOL     OW24616   7.740   4.539   1.943
40926SOL    HW124617   7.689   4.483   1.884
40926SOL    HW224618   7.791   4.595   1.885
40927SOL     OW24619  12.267  12.699   1.902
40927SOL    HW124620  12.196  12.688   1.838
40927SOL    HW224621  12.332  12.633   1.876
40928SOL     OW24622   1.450   1.875   5.429
40928SOL    HW124623   1.411   1.853   5.513
40928SOL    HW224624   1.528   1.819   5.423
40929SOL     OW24625  12.420   4.039  14.394
40929SOL    HW124626  12.352   4.080  14.449
40929SOL    HW224627  12.420   3.947  14.421
40930SOL     OW24628   6.593   6.001   3.740
40930SOL    HW124629   6.587   5.905   3.742
40930SOL    HW224630   6.603   6.023   3.648
40931SOL     OW24631   7.737  11.963   9.093
40931SOL    HW124632   7.677  11.949   9.166
40931SOL    HW224633   7.792  11.884   9.092
40932SOL     OW24634   9.110   3.384   4.503
40932SOL    HW124635   9.125   3.471   4.468
40932SOL    HW224636   9.186   3.333   4.474
40933SOL     OW24637  10.362  10.006   4.035
40933SOL    HW124638  10.299  10.028   4.104
40933SOL    HW224639  10.437   9.970   4.082
40934SOL     OW24640   3.771  13.225  11.359
40934SOL    HW124641   3.750  13.276  11.437
40934SOL    HW224642   3.821  13.286  11.304
40935SOL     OW24643  12.608   6.929   5.405
40935SOL    HW124644  12.566   6.872   5.341
40935SOL    HW224645  12.583   6.892   5.490
40936SOL     OW24646   9.718  11.547   0.947
40936SOL    HW124647   9.690  11.549   0.856
40936SOL    HW224648   9.644  11.507   0.994
40937SOL     OW24649   9.219   2.729   7.954
40937SOL    HW124650   9.258   2.761   8.035
40937SOL    HW224651   9.277   2.763   7.885
40938SOL     OW24652   3.691   6.514  12.867
40938SOL    HW124653   3.635   6.578  12.823
40938SOL    HW224654   3.632   6.467  12.926
40939SOL     OW24655   8.992   8.083   2.314
40939SOL    HW124656   9.058   8.034   2.264
40939SOL    HW224657   9.000   8.173   2.283
40940SOL     OW24658  11.922  11.064   7.326
40940SOL    HW124659  12.011  11.094   7.307
40940SOL    HW224660  11.934  10.985   7.379
40941SOL     OW24661  10.704   3.029  13.913
40941SOL    HW124662  10.677   3.120  13.899
40941SOL    HW224663  10.669   2.982  13.837
40942SOL     OW24664   6.047   1.202   4.341
40942SOL    HW124665   6.013   1.112   4.341
40942SOL    HW224666   6.141   1.192   4.324
40943SOL     OW24667  13.920  12.974   6.162
40943SOL    HW124668  13.885  12.887   6.181
40943SOL    HW224669  14.006  12.975   6.206
40944SOL     OW24670  12.075   8.574   9.395
40944SOL    HW124671  11.985   8.540   9.389
40944SOL    HW224672  12.112   8.558   9.309
40945SOL     OW24673  13.752   8.659   9.459
40945SOL    HW124674  13.687   8.728   9.469
40945SOL    HW224675  13.834   8.706   9.442
40946SOL     OW24676   9.255  12.429  14.532
40946SOL    HW124677   9.160  12.433  14.535
40946SOL    HW224678   9.275  12.337  14.512
40947SOL     OW24679  11.763   3.176   3.171
40947SOL    HW124680  11.798   3.246   3.226
40947SOL    HW224681  11.804   3.096   3.203
40948SOL     OW24682   0.831   1.911   6.356
40948SOL    HW124683   0.748   1.900   6.310
40948SOL    HW224684   0.809   1.900   6.448
40949SOL     OW24685   1.198   4.165   6.526
40949SOL    HW124686   1.187   4.203   6.439
40949SOL    HW224687   1.292   4.165   6.541
40950SOL     OW24688   9.728   1.619   8.188
40950SOL    HW124689   9.696   1.685   8.250
40950SOL    HW224690   9.815   1.650   8.162
40951SOL     OW24691   1.213   9.918   6.631
40951SOL    HW124692   1.183   9.984   6.568
40951SOL    HW224693   1.191   9.954   6.717
40952SOL     OW24694   1.582   7.712  13.466
40952SOL    HW124695   1.520   7.706  13.539
40952SOL    HW224696   1.657   7.758  13.502
40953SOL     OW24697  13.926   3.883   1.213
40953SOL    HW124698  13.870   3.955   1.182
40953SOL    HW224699  13.894   3.806   1.165
40954SOL     OW24700   0.905   4.170  13.607
40954SOL    HW124701   0.881   4.083  13.639
40954SOL    HW224702   0.827   4.223  13.623
40955SOL     OW24703   0.951  10.548   2.499
40955SOL    HW124704   0.956  10.456   2.474
40955SOL    HW224705   0.857  10.563   2.515
40956SOL     OW24706  13.704   2.326   1.067
40956SOL    HW124707  13.626   2.381   1.081
40956SOL    HW224708  13.739   2.311   1.155
40957SOL     OW24709  13.182  11.384   1.459
40957SOL    HW124710  13.275  11.363   1.453
40957SOL    HW224711  13.140  11.300   1.482
40958SOL     OW24712  12.249   2.889  12.660
40958SOL    HW124713  12.208   2.962  12.613
40958SOL    HW224714  12.176   2.837  12.693
40959SOL     OW24715   8.196   7.833  10.510
40959SOL    HW124716   8.186   7.761  10.572
40959SOL    HW224717   8.246   7.899  10.558
40960SOL     OW24718  11.167  12.004   0.619
40960SOL    HW124719  11.255  12.040   0.628
40960SOL    HW224720  11.162  11.937   0.688
40961SOL     OW24721   8.033   7.025   6.839
40961SOL    HW124722   8.026   7.025   6.934
40961SOL    HW224723   8.107   7.082   6.820
40962SOL     OW24724   1.634   3.496   4.887
40962SOL    HW124725   1.577   3.571   4.904
40962SOL    HW224726   1.642   3.492   4.792
40963SOL     OW24727   4.869   4.085   9.084
40963SOL    HW124728   4.943   4.143   9.066
40963SOL    HW224729   4.839   4.058   8.997
40964SOL     OW24730   0.154  13.914   1.047
40964SOL    HW124731   0.213  13.853   1.003
40964SOL    HW224732   0.074  13.863   1.062
40965SOL     OW24733   1.821   9.263   5.636
40965SOL    HW124734   1.857   9.210   5.564
40965SOL    HW224735   1.898   9.300   5.678
40966SOL     OW24736   7.727   5.103  13.061
40966SOL    HW124737   7.801   5.152  13.099
40966SOL    HW224738   7.650   5.156  13.081
40967SOL     OW24739   5.301   9.273   2.691
40967SOL    HW124740   5.326   9.347   2.634
40967SOL    HW224741   5.362   9.203   2.667
40968SOL     OW24742  13.893   3.838   5.125
40968SOL    HW124743  13.879   3.884   5.208
40968SOL    HW224744  13.929   3.905   5.067
40969SOL     OW24745   0.240   4.273   8.861
40969SOL    HW124746   0.329   4.299   8.883
40969SOL    HW224747   0.243   4.177   8.858
40970SOL     OW24748   8.866  14.612   3.714
40970SOL    HW124749   8.835  14.522   3.726
40970SOL    HW224750   8.908  14.611   3.628
40971SOL     OW24751  11.521  10.608  11.562
40971SOL    HW124752  11.526  10.516  11.536
40971SOL    HW224753  11.610  10.640  11.554
40972SOL     OW24754   3.763  10.297   7.794
40972SOL    HW124755   3.750  10.280   7.701
40972SOL    HW224756   3.762  10.392   7.801
40973SOL     OW24757   5.505   7.450  14.505
40973SOL    HW124758   5.539   7.363  14.484
40973SOL    HW224759   5.414   7.436  14.531
40974SOL     OW24760   4.817   9.235   7.704
40974SOL    HW124761   4.760   9.158   7.711
40974SOL    HW224762   4.857   9.243   7.790
40975SOL     OW24763   2.542  10.832   1.665
40975SOL    HW124764   2.610  10.887   1.704
40975SOL    HW224765   2.552  10.747   1.709
40976SOL     OW24766   8.902  10.925  13.461
40976SOL    HW124767   8.857  11.000  13.500
40976SOL    HW224768   8.966  10.899  13.527
40977SOL     OW24769   3.077   3.149  13.329
40977SOL    HW124770   3.147   3.212  13.352
40977SOL    HW224771   3.101   3.117  13.242
40978SOL     OW24772   0.626   3.326   3.568
40978SOL    HW124773   0.601   3.390   3.634
40978SOL    HW224774   0.575   3.351   3.491
40979SOL     OW24775   2.566   4.333   3.006
40979SOL    HW124776   2.575   4.381   3.088
40979SOL    HW224777   2.609   4.249   3.023
40980SOL     OW24778   7.265  13.256   9.032
40980SOL    HW124779   7.334  13.322   9.023
40980SOL    HW224780   7.246  13.254   9.126
40981SOL     OW24781   8.082   4.833   0.294
40981SOL    HW124782   8.004   4.789   0.257
40981SOL    HW224783   8.056   4.925   0.301
40982SOL     OW24784  10.514   0.975   0.079
40982SOL    HW124785  10.433   1.014   0.111
40982SOL    HW224786  10.521   0.892   0.125
40983SOL     OW24787   1.340   6.678  10.950
40983SOL    HW124788   1.303   6.593  10.973
40983SOL    HW224789   1.349   6.724  11.034
40984SOL     OW24790   5.903   9.056   1.882
40984SOL    HW124791   5.895   8.975   1.831
40984SOL    HW224792   5.816   9.095   1.878
40985SOL     OW24793   4.417  11.735   6.484
40985SOL    HW124794   4.398  11.712   6.575
40985SOL    HW224795   4.513  11.734   6.479
40986SOL     OW24796  12.849   6.044   9.893
40986SOL    HW124797  12.802   6.036   9.810
40986SOL    HW224798  12.917   5.977   9.889
40987SOL     OW24799  14.633   0.294   7.891
40987SOL    HW124800  14.560   0.260   7.943
40987SOL    HW224801  14.702   0.312   7.955
40988SOL     OW24802  13.495   4.003   3.105
40988SOL    HW124803  13.401   4.008   3.126
40988SOL    HW224804  13.505   4.059   3.027
40989SOL     OW24805   5.723   0.750   6.677
40989SOL    HW124806   5.746   0.711   6.592
40989SOL    HW224807   5.725   0.844   6.662
40990SOL     OW24808   5.312   4.117   4.902
40990SOL    HW124809   5.389   4.061   4.908
40990SOL    HW224810   5.240   4.057   4.886
40991SOL     OW24811   1.428   8.240  14.686
40991SOL    HW124812   1.452   8.330  14.663
40991SOL    HW224813   1.412   8.197  14.602
40992SOL     OW24814   6.398   3.527  14.126
40992SOL    HW124815   6.411   3.441  14.167
40992SOL    HW224816   6.385   3.587  14.200
40993SOL     OW24817   3.245   4.232  10.536
40993SOL    HW124818   3.150   4.224  10.546
40993SOL    HW224819   3.281   4.176  10.605
40994SOL     OW24820   2.377   1.606   4.050
40994SOL    HW124821   2.459   1.640   4.015
40994SOL    HW224822   2.311   1.632   3.986
40995SOL     OW24823   9.893   5.028   7.256
40995SOL    HW124824   9.923   5.066   7.339
40995SOL    HW224825   9.924   5.089   7.189
40996SOL     OW24826   2.119  11.670   8.523
40996SOL    HW124827   2.093  11.586   8.486
40996SOL    HW224828   2.125  11.729   8.447
40997SOL     OW24829   0.023   1.597   0.511
40997SOL    HW124830  14.806   1.570   0.526
40997SOL    HW224831   0.051   1.548   0.435
40998SOL     OW24832   8.283  13.386   4.762
40998SOL    HW124833   8.361  13.427   4.725
40998SOL    HW224834   8.314  13.345   4.843
40999SOL     OW24835   6.552   8.184  13.814
40999SOL    HW124836   6.626   8.238  13.844
40999SOL    HW224837   6.584   8.094  13.822
41000SOL     OW24838  10.278   4.725  11.943
41000SOL    HW124839  10.366   4.741  11.976
41000SOL    HW224840  10.268   4.786  11.870
41001SOL     OW24841   3.669   8.158   1.674
41001SOL    HW124842   3.656   8.247   1.642
41001SOL    HW224843   3.635   8.102   1.605
41002SOL     OW24844   3.551   5.802   4.617
41002SOL    HW124845   3.571   5.812   4.524
41002SOL    HW224846   3.608   5.730   4.646
41003SOL     OW24847  12.192   8.328   2.296
41003SOL    HW124848  12.172   8.235   2.310
41003SOL    HW224849  12.142   8.352   2.218
41004SOL     OW24850   9.978   8.834  13.958
41004SOL    HW124851   9.960   8.740  13.951
41004SOL    HW224852   9.944   8.871  13.877
41005SOL     OW24853  14.334   1.585  11.739
41005SOL    HW124854  14.295   1.498  11.728
41005SOL    HW224855  14.335   1.598  11.834
41006SOL     OW24856   6.891  12.778  12.795
41006SOL    HW124857   6.968  12.791  12.740
41006SOL    HW224858   6.914  12.703  12.850
41007SOL     OW24859  13.922  11.289   0.463
41007SOL    HW124860  13.875  11.271   0.545
41007SOL    HW224861  13.967  11.207   0.443
41008SOL     OW24862   3.698   9.440  14.741
41008SOL    HW124863   3.768   9.406  14.686
41008SOL    HW224864   3.661   9.513  14.691
41009SOL     OW24865  13.317  12.211   0.263
41009SOL    HW124866  13.274  12.274   0.205
41009SOL    HW224867  13.279  12.127   0.239
41010SOL     OW24868   6.607   3.645  12.909
41010SOL    HW124869   6.598   3.736  12.938
41010SOL    HW224870   6.701   3.630  12.904
41011SOL     OW24871   4.280   8.221   2.570
41011SOL    HW124872   4.229   8.271   2.635
41011SOL    HW224873   4.292   8.282   2.497
41012SOL     OW24874  11.464   5.025   8.194
41012SOL    HW124875  11.475   4.995   8.284
41012SOL    HW224876  11.553   5.021   8.158
41013SOL     OW24877  11.925   1.485   6.472
41013SOL    HW124878  11.994   1.423   6.447
41013SOL    HW224879  11.896   1.455   6.559
41014SOL     OW24880   4.898   0.125   8.310
41014SOL    HW124881   4.962   0.185   8.271
41014SOL    HW224882   4.911   0.133   8.404
41015SOL     OW24883   0.426  13.703   2.586
41015SOL    HW124884   0.475  13.675   2.664
41015SOL    HW224885   0.367  13.631   2.568
41016SOL     OW24886   2.771   7.611   1.774
41016SOL    HW124887   2.855   7.628   1.733
41016SOL    HW224888   2.789   7.615   1.868
41017SOL     OW24889  13.267  13.169  11.754
41017SOL    HW124890  13.210  13.206  11.821
41017SOL    HW224891  13.243  13.076  11.751
41018SOL     OW24892   2.969  14.540   1.242
41018SOL    HW124893   2.931  14.460   1.206
41018SOL    HW224894   2.943  14.540   1.334
41019SOL     OW24895  10.863   6.684   8.595
41019SOL    HW124896  10.934   6.705   8.534
41019SOL    HW224897  10.815   6.766   8.605
41020SOL     OW24898  14.142  14.355   6.523
41020SOL    HW124899  14.123  14.440   6.561
41020SOL    HW224900  14.066  14.301   6.546
41021SOL     OW24901   3.709   3.002  10.849
41021SOL    HW124902   3.704   2.941  10.775
41021SOL    HW224903   3.747   3.082  10.812
41022SOL     OW24904  13.502   4.168   1.210
41022SOL    HW124905  13.416   4.207   1.226
41022SOL    HW224906  13.560   4.242   1.192
41023SOL     OW24907  11.814   0.766  11.910
41023SOL    HW124908  11.721   0.788  11.915
41023SOL    HW224909  11.855   0.822  11.976
41024SOL     OW24910   0.210  12.267   4.328
41024SOL    HW124911   0.284  12.301   4.379
41024SOL    HW224912   0.246  12.254   4.240
41025SOL     OW24913   3.879  14.842  11.573
41025SOL    HW124914   3.814   0.027  11.613
41025SOL    HW224915   3.828  14.781  11.520
41026SOL     OW24916   5.196   1.272  13.672
41026SOL    HW124917   5.217   1.182  13.697
41026SOL    HW224918   5.109   1.288  13.708
41027SOL     OW24919   6.162  13.167   6.765
41027SOL    HW124920   6.160  13.112   6.687
41027SOL    HW224921   6.219  13.239   6.742
41028SOL     OW24922  14.747   1.991  11.494
41028SOL    HW124923  14.827   2.041  11.511
41028SOL    HW224924  14.680   2.034  11.547
41029SOL     OW24925  14.489   3.656   3.766
41029SOL    HW124926  14.481   3.726   3.701
41029SOL    HW224927  14.535   3.696   3.840
41030SOL     OW24928   5.328   5.853   6.546
41030SOL    HW124929   5.305   5.917   6.613
41030SOL    HW224930   5.409   5.887   6.507
41031SOL     OW24931  14.743   7.367   3.731
41031SOL    HW124932  14.807   7.436   3.746
41031SOL    HW224933  14.690   7.365   3.811
41032SOL     OW24934  11.574  14.224   2.135
41032SOL    HW124935  11.539  14.179   2.211
41032SOL    HW224936  11.662  14.188   2.124
41033SOL     OW24937   7.636   2.708   4.774
41033SOL    HW124938   7.665   2.695   4.865
41033SOL    HW224939   7.717   2.705   4.723
41034SOL     OW24940  10.342  12.485   0.897
41034SOL    HW124941  10.426  12.490   0.942
41034SOL    HW224942  10.339  12.396   0.860
41035SOL     OW24943   3.279  12.694   4.402
41035SOL    HW124944   3.273  12.687   4.498
41035SOL    HW224945   3.288  12.788   4.386
41036SOL     OW24946  10.506   8.454  10.605
41036SOL    HW124947  10.549   8.393  10.664
41036SOL    HW224948  10.427   8.408  10.576
41037SOL     OW24949   8.025   8.304   2.527
41037SOL    HW124950   8.045   8.368   2.459
41037SOL    HW224951   8.044   8.220   2.487
41038SOL     OW24952  12.543   1.661   2.533
41038SOL    HW124953  12.616   1.624   2.484
41038SOL    HW224954  12.483   1.587   2.546
41039SOL     OW24955  14.087   4.549   6.155
41039SOL    HW124956  14.095   4.638   6.120
41039SOL    HW224957  14.016   4.555   6.219
41040SOL     OW24958   9.541  13.501   9.543
41040SOL    HW124959   9.569  13.413   9.567
41040SOL    HW224960   9.530  13.497   9.448
41041SOL     OW24961   6.530   1.090   9.192
41041SOL    HW124962   6.553   1.131   9.275
41041SOL    HW224963   6.474   1.017   9.217
41042SOL     OW24964   1.623  13.411  14.184
41042SOL    HW124965   1.665  13.468  14.119
41042SOL    HW224966   1.695  13.360  14.221
41043SOL     OW24967  14.551   6.743  11.916
41043SOL    HW124968  14.639   6.706  11.914
41043SOL    HW224969  14.561   6.831  11.878
41044SOL     OW24970   3.858  13.467   0.918
41044SOL    HW124971   3.939  13.432   0.954
41044SOL    HW224972   3.801  13.479   0.995
41045SOL     OW24973  13.707   1.474   9.086
41045SOL    HW124974  13.706   1.569   9.099
41045SOL    HW224975  13.799   1.454   9.070
41046SOL     OW24976  12.364   9.787  12.643
41046SOL    HW124977  12.273   9.796  12.670
41046SOL    HW224978  12.411   9.855  12.692
41047SOL     OW24979   9.211   5.762  10.273
41047SOL    HW124980   9.281   5.801  10.221
41047SOL    HW224981   9.160   5.837  10.304
41048SOL     OW24982   3.277   0.784   0.811
41048SOL    HW124983   3.220   0.774   0.734
41048SOL    HW224984   3.365   0.791   0.774
41049SOL     OW24985   7.872  14.480   6.474
41049SOL    HW124986   7.862  14.431   6.392
41049SOL    HW224987   7.960  14.460   6.503
41050SOL     OW24988  12.485  11.578   7.007
41050SOL    HW124989  12.577  11.574   7.030
41050SOL    HW224990  12.462  11.671   7.017
41051SOL     OW24991   8.772  11.398  10.532
41051SOL    HW124992   8.710  11.330  10.509
41051SOL    HW224993   8.762  11.409  10.627
41052SOL     OW24994   4.333  11.542  13.287
41052SOL    HW124995   4.255  11.515  13.238
41052SOL    HW224996   4.406  11.502  13.238
41053SOL     OW24997  13.779  11.953   8.689
41053SOL    HW124998  13.859  11.961   8.742
41053SOL    HW224999  13.788  11.870   8.643
41054SOL     OW25000  14.286   0.671   3.859
41054SOL    HW125001  14.290   0.719   3.777
41054SOL    HW225002  14.366   0.695   3.905
41055SOL     OW25003  12.164   1.285   0.625
41055SOL    HW125004  12.164   1.190   0.609
41055SOL    HW225005  12.146   1.324   0.540
41056SOL     OW25006  14.416   4.235  10.666
41056SOL    HW125007  14.441   4.319  10.705
41056SOL    HW225008  14.421   4.250  10.571
41057SOL     OW25009   0.184   8.456   2.121
41057SOL    HW125010   0.262   8.403   2.137
41057SOL    HW225011   0.218   8.543   2.096
41058SOL     OW25012   2.700  12.893   7.240
41058SOL    HW125013   2.760  12.936   7.178
41058SOL    HW225014   2.742  12.905   7.325
41059SOL     OW25015   7.278   4.443   1.169
41059SOL    HW125016   7.205   4.421   1.111
41059SOL    HW225017   7.323   4.516   1.126
41060SOL     OW25018  13.919  14.018   0.789
41060SOL    HW125019  13.891  14.101   0.829
41060SOL    HW225020  13.848  13.995   0.729
41061SOL     OW25021   9.109  10.314   8.588
41061SOL    HW125022   9.096  10.315   8.683
41061SOL    HW225023   9.139  10.226   8.568
41062SOL     OW25024   3.409   0.013   3.710
41062SOL    HW125025   3.410  14.809   3.654
41062SOL    HW225026   3.448   0.082   3.657
41063SOL     OW25027   9.495   0.337   0.732
41063SOL    HW125028   9.439   0.271   0.772
41063SOL    HW225029   9.584   0.311   0.757
41064SOL     OW25030  11.945  12.626   1.492
41064SOL    HW125031  12.006  12.669   1.431
41064SOL    HW225032  11.982  12.643   1.578
41065SOL     OW25033   3.595   2.454   4.491
41065SOL    HW125034   3.647   2.384   4.531
41065SOL    HW225035   3.541   2.487   4.563
41066SOL     OW25036  12.777   9.730   9.205
41066SOL    HW125037  12.853   9.742   9.148
41066SOL    HW225038  12.705   9.709   9.145
41067SOL     OW25039   6.522   3.884  14.800
41067SOL    HW125040   6.486   3.826  14.733
41067SOL    HW225041   6.591   3.932  14.754
41068SOL     OW25042  11.211   7.399  14.319
41068SOL    HW125043  11.296   7.439  14.336
41068SOL    HW225044  11.222   7.355  14.234
41069SOL     OW25045   6.991  11.171   2.432
41069SOL    HW125046   6.968  11.148   2.342
41069SOL    HW225047   7.065  11.115   2.453
41070SOL     OW25048  13.044   4.175  11.168
41070SOL    HW125049  13.073   4.084  11.175
41070SOL    HW225050  13.119   4.227  11.196
41071SOL     OW25051   5.647  12.553  12.088
41071SOL    HW125052   5.684  12.637  12.115
41071SOL    HW225053   5.697  12.529  12.011
41072SOL     OW25054   4.909  11.818  12.479
41072SOL    HW125055   4.994  11.837  12.520
41072SOL    HW225056   4.911  11.864  12.395
41073SOL     OW25057   7.064  14.598   7.099
41073SOL    HW125058   7.156  14.611   7.074
41073SOL    HW225059   7.068  14.552   7.182
41074SOL     OW25060   3.348  14.202  12.876
41074SOL    HW125061   3.410  14.148  12.827
41074SOL    HW225062   3.389  14.288  12.881
41075SOL     OW25063  13.671  12.623  10.988
41075SOL    HW125064  13.605  12.584  10.931
41075SOL    HW225065  13.624  12.689  11.039
41076SOL     OW25066   8.031  14.620  11.015
41076SOL    HW125067   7.954  14.639  10.961
41076SOL    HW225068   7.996  14.573  11.091
41077SOL     OW25069   3.536  14.293  12.634
41077SOL    HW125070   3.527  14.198  12.639
41077SOL    HW225071   3.542  14.312  12.541
41078SOL     OW25072   9.006  10.774   1.032
41078SOL    HW125073   9.037  10.685   1.018
41078SOL    HW225074   9.008  10.814   0.945
41079SOL     OW25075   5.393  13.200   2.388
41079SOL    HW125076   5.476  13.187   2.434
41079SOL    HW225077   5.394  13.292   2.361
41080SOL     OW25078  13.114   2.497   4.406
41080SOL    HW125079  13.204   2.530   4.407
41080SOL    HW225080  13.124   2.403   4.416
41081SOL     OW25081   0.958   5.200  10.105
41081SOL    HW125082   0.866   5.174  10.094
41081SOL    HW225083   0.957   5.295  10.105
41082SOL     OW25084   0.311   6.613   0.868
41082SOL    HW125085   0.240   6.673   0.844
41082SOL    HW225086   0.290   6.585   0.957
41083SOL     OW25087   4.370   8.932  13.594
41083SOL    HW125088   4.280   8.966  13.594
41083SOL    HW225089   4.368   8.859  13.532
41084SOL     OW25090   7.642   1.445   3.792
41084SOL    HW125091   7.573   1.485   3.740
41084SOL    HW225092   7.606   1.440   3.880
41085SOL     OW25093  14.001   2.315   5.832
41085SOL    HW125094  13.996   2.408   5.855
41085SOL    HW225095  14.015   2.314   5.737
41086SOL     OW25096   9.801   9.322   7.954
41086SOL    HW125097   9.740   9.268   8.004
41086SOL    HW225098   9.842   9.379   8.020
41087SOL     OW25099   8.744   2.627   8.174
41087SOL    HW125100   8.699   2.621   8.090
41087SOL    HW225101   8.687   2.578   8.234
41088SOL     OW25102   0.320   9.337  10.382
41088SOL    HW125103   0.362   9.422  10.366
41088SOL    HW225104   0.228   9.358  10.395
41089SOL     OW25105  12.748   0.185   2.885
41089SOL    HW125106  12.705   0.163   2.968
41089SOL    HW225107  12.841   0.192   2.907
41090SOL     OW25108   8.574  10.601   0.566
41090SOL    HW125109   8.580  10.619   0.660
41090SOL    HW225110   8.659  10.563   0.544
41091SOL     OW25111   2.435   5.009  14.049
41091SOL    HW125112   2.365   5.055  14.095
41091SOL    HW225113   2.391   4.963  13.978
41092SOL     OW25114   2.872  12.745  13.831
41092SOL    HW125115   2.934  12.753  13.903
41092SOL    HW225116   2.884  12.656  13.798
41093SOL     OW25117   3.600   3.352  14.400
41093SOL    HW125118   3.505   3.349  14.386
41093SOL    HW225119   3.633   3.399  14.324
41094SOL     OW25120   6.766   7.874   4.500
41094SOL    HW125121   6.713   7.946   4.466
41094SOL    HW225122   6.838   7.867   4.437
41095SOL     OW25123   3.849  12.156  13.366
41095SOL    HW125124   3.901  12.078  13.386
41095SOL    HW225125   3.771  12.148  13.421
41096SOL     OW25126  13.601   5.471  13.495
41096SOL    HW125127  13.657   5.436  13.564
41096SOL    HW225128  13.647   5.451  13.414
41097SOL     OW25129   8.690  14.765   5.552
41097SOL    HW125130   8.751  14.839   5.546
41097SOL    HW225131   8.610  14.803   5.588
41098SOL     OW25132   8.002   8.751  13.225
41098SOL    HW125133   7.955   8.760  13.143
41098SOL    HW225134   8.094   8.751  13.201
41099SOL     OW25135   9.294   9.236  11.871
41099SOL    HW125136   9.301   9.157  11.818
41099SOL    HW225137   9.363   9.227  11.936
41100SOL     OW25138  11.665   8.483   0.824
41100SOL    HW125139  11.648   8.482   0.730
41100SOL    HW225140  11.643   8.572   0.852
41101SOL     OW25141   4.152   4.457   7.965
41101SOL    HW125142   4.132   4.369   7.997
41101SOL    HW225143   4.142   4.513   8.042
41102SOL     OW25144  13.374   6.173   4.267
41102SOL    HW125145  13.354   6.217   4.350
41102SOL    HW225146  13.442   6.227   4.227
41103SOL     OW25147   8.144   5.831   6.166
41103SOL    HW125148   8.220   5.822   6.224
41103SOL    HW225149   8.069   5.805   6.220
41104SOL     OW25150   7.848  10.996   2.557
41104SOL    HW125151   7.809  11.026   2.639
41104SOL    HW225152   7.775  10.994   2.495
41105SOL     OW25153   2.280   5.335  10.607
41105SOL    HW125154   2.204   5.299  10.652
41105SOL    HW225155   2.328   5.384  10.674
41106SOL     OW25156   5.130   6.569   7.307
41106SOL    HW125157   5.101   6.478   7.293
41106SOL    HW225158   5.186   6.588   7.232
41107SOL     OW25159   4.307   5.589   7.409
41107SOL    HW125160   4.339   5.675   7.436
41107SOL    HW225161   4.262   5.554   7.486
41108SOL     OW25162   8.264   8.343   3.940
41108SOL    HW125163   8.189   8.310   3.990
41108SOL    HW225164   8.331   8.362   4.006
41109SOL     OW25165   9.829   2.395  14.388
41109SOL    HW125166   9.868   2.473  14.348
41109SOL    HW225167   9.854   2.323  14.331
41110SOL     OW25168  14.509   0.519   8.547
41110SOL    HW125169  14.459   0.449   8.505
41110SOL    HW225170  14.570   0.549   8.480
41111SOL     OW25171   4.310  14.357   1.185
41111SOL    HW125172   4.343  14.360   1.095
41111SOL    HW225173   4.359  14.425   1.231
41112SOL     OW25174  13.333   2.766   7.576
41112SOL    HW125175  13.397   2.699   7.551
41112SOL    HW225176  13.363   2.797   7.662
41113SOL     OW25177   6.940   9.608   7.847
41113SOL    HW125178   6.990   9.664   7.787
41113SOL    HW225179   6.860   9.657   7.865
41114SOL     OW25180  12.554   2.246   9.654
41114SOL    HW125181  12.550   2.154   9.680
41114SOL    HW225182  12.596   2.245   9.568
41115SOL     OW25183   8.080   4.799   7.368
41115SOL    HW125184   8.135   4.721   7.371
41115SOL    HW225185   7.995   4.767   7.338
41116SOL     OW25186  13.772   1.934   0.110
41116SOL    HW125187  13.726   2.017   0.121
41116SOL    HW225188  13.808   1.939   0.021
41117SOL     OW25189  12.745   1.612   6.697
41117SOL    HW125190  12.791   1.664   6.631
41117SOL    HW225191  12.652   1.625   6.677
41118SOL     OW25192   4.630  13.335   3.067
41118SOL    HW125193   4.721  13.337   3.096
41118SOL    HW225194   4.590  13.264   3.118
41119SOL     OW25195   9.522  14.381  11.280
41119SOL    HW125196   9.613  14.392  11.307
41119SOL    HW225197   9.515  14.289  11.257
41120SOL     OW25198   9.192   7.202   1.347
41120SOL    HW125199   9.116   7.187   1.292
41120SOL    HW225200   9.261   7.149   1.309
41121SOL     OW25201  13.655  11.221   1.802
41121SOL    HW125202  13.606  11.297   1.770
41121SOL    HW225203  13.708  11.255   1.874
41122SOL     OW25204  13.079   4.466  11.729
41122SOL    HW125205  13.027   4.489  11.652
41122SOL    HW225206  13.081   4.370  11.729
41123SOL     OW25207   7.007  13.461   2.985
41123SOL    HW125208   6.961  13.439   3.066
41123SOL    HW225209   7.045  13.547   3.001
41124SOL     OW25210   3.596  10.887   0.401
41124SOL    HW125211   3.673  10.924   0.444
41124SOL    HW225212   3.552  10.836   0.468
41125SOL     OW25213   1.015   6.516   5.531
41125SOL    HW125214   1.067   6.590   5.563
41125SOL    HW225215   1.023   6.450   5.599
41126SOL     OW25216   0.343  14.590   9.975
41126SOL    HW125217   0.274  14.551   9.920
41126SOL    HW225218   0.336  14.543  10.058
41127SOL     OW25219   5.862   8.838  10.882
41127SOL    HW125220   5.904   8.875  10.960
41127SOL    HW225221   5.933   8.821  10.821
41128SOL     OW25222  12.368   9.653   1.263
41128SOL    HW125223  12.407   9.728   1.217
41128SOL    HW225224  12.424   9.640   1.339
41129SOL     OW25225  10.575   2.138   7.349
41129SOL    HW125226  10.513   2.150   7.277
41129SOL    HW225227  10.538   2.067   7.401
41130SOL     OW25228  14.361   1.023   1.253
41130SOL    HW125229  14.334   0.981   1.334
41130SOL    HW225230  14.300   1.096   1.242
41131SOL     OW25231   3.747  11.857  11.491
41131SOL    HW125232   3.664  11.897  11.518
41131SOL    HW225233   3.798  11.929  11.453
41132SOL     OW25234  13.262   2.262   4.068
41132SOL    HW125235  13.225   2.349   4.051
41132SOL    HW225236  13.332   2.252   4.004
41133SOL     OW25237  10.001   2.346   3.084
41133SOL    HW125238   9.977   2.305   3.167
41133SOL    HW225239  10.097   2.342   3.082
41134SOL     OW25240   7.906  12.779   6.396
41134SOL    HW125241   7.914  12.865   6.356
41134SOL    HW225242   7.856  12.794   6.476
41135SOL     OW25243  13.129  13.523  10.395
41135SOL    HW125244  13.129  13.428  10.385
41135SOL    HW225245  13.220  13.549  10.387
41136SOL     OW25246   2.720  12.133   6.559
41136SOL    HW125247   2.776  12.055   6.548
41136SOL    HW225248   2.631  12.098   6.563
41137SOL     OW25249   6.786   6.096  13.749
41137SOL    HW125250   6.878   6.122  13.742
41137SOL    HW225251   6.743   6.171  13.790
41138SOL     OW25252   9.393  12.335   3.748
41138SOL    HW125253   9.485  12.354   3.765
41138SOL    HW225254   9.348  12.418   3.765
41139SOL     OW25255   0.422   9.076   3.141
41139SOL    HW125256   0.397   8.985   3.159
41139SOL    HW225257   0.455   9.075   3.051
41140SOL     OW25258  13.168   9.937   6.964
41140SOL    HW125259  13.219   9.857   6.949
41140SOL    HW225260  13.136   9.929   7.054
41141SOL     OW25261   2.691   0.986  11.900
41141SOL    HW125262   2.739   0.910  11.934
41141SOL    HW225263   2.743   1.061  11.929
41142SOL     OW25264  11.592   9.719   7.792
41142SOL    HW125265  11.629   9.681   7.712
41142SOL    HW225266  11.655   9.698   7.860
41143SOL     OW25267   9.449   4.323   9.619
41143SOL    HW125268   9.386   4.384   9.656
41143SOL    HW225269   9.409   4.237   9.630
41144SOL     OW25270  12.188  10.861   7.178
41144SOL    HW125271  12.097  10.889   7.181
41144SOL    HW225272  12.239  10.941   7.169
41145SOL     OW25273  13.131  14.116   9.386
41145SOL    HW125274  13.149  14.145   9.476
41145SOL    HW225275  13.146  14.022   9.388
41146SOL     OW25276   5.878   5.880   4.363
41146SOL    HW125277   5.844   5.892   4.274
41146SOL    HW225278   5.904   5.968   4.389
41147SOL     OW25279   2.196   9.469   1.195
41147SOL    HW125280   2.252   9.531   1.148
41147SOL    HW225281   2.181   9.510   1.280
41148SOL     OW25282   2.215   7.744   6.019
41148SOL    HW125283   2.138   7.771   5.969
41148SOL    HW225284   2.187   7.748   6.110
41149SOL     OW25285   2.499   2.717   0.101
41149SOL    HW125286   2.460   2.691   0.184
41149SOL    HW225287   2.547   2.797   0.121
41150SOL     OW25288  13.351   6.698   8.594
41150SOL    HW125289  13.289   6.751   8.643
41150SOL    HW225290  13.436   6.717   8.633
41151SOL     OW25291   5.279   7.926  13.546
41151SOL    HW125292   5.198   7.961  13.509
41151SOL    HW225293   5.325   8.003  13.581
41152SOL     OW25294   4.978   8.687   4.650
41152SOL    HW125295   4.947   8.755   4.710
41152SOL    HW225296   4.984   8.731   4.565
41153SOL     OW25297   5.261  13.881   4.299
41153SOL    HW125298   5.334  13.847   4.350
41153SOL    HW225299   5.285  13.864   4.208
41154SOL     OW25300   1.639   2.132   4.341
41154SOL    HW125301   1.592   2.075   4.280
41154SOL    HW225302   1.731   2.122   4.317
41155SOL     OW25303  11.008   2.302  12.344
41155SOL    HW125304  11.076   2.270  12.404
41155SOL    HW225305  11.004   2.236  12.275
41156SOL     OW25306   1.611  12.228  11.996
41156SOL    HW125307   1.564  12.153  11.961
41156SOL    HW225308   1.689  12.235  11.942
41157SOL     OW25309   6.019  13.005   8.379
41157SOL    HW125310   5.978  13.091   8.366
41157SOL    HW225311   5.977  12.948   8.314
41158SOL     OW25312  12.529   0.650  10.129
41158SOL    HW125313  12.514   0.718  10.194
41158SOL    HW225314  12.502   0.689  10.046
41159SOL     OW25315  13.221  14.326   8.751
41159SOL    HW125316  13.222  14.240   8.709
41159SOL    HW225317  13.166  14.380   8.694
41160SOL     OW25318   7.067   0.258  10.331
41160SOL    HW125319   7.156   0.258  10.368
41160SOL    HW225320   7.045   0.350  10.320
41161SOL     OW25321  14.724   0.729   1.428
41161SOL    HW125322  14.730   0.816   1.390
41161SOL    HW225323  14.631   0.708   1.427
41162SOL     OW25324   6.438   0.867   9.541
41162SOL    HW125325   6.401   0.953   9.522
41162SOL    HW225326   6.436   0.821   9.457
41163SOL     OW25327  10.503  12.764   0.515
41163SOL    HW125328  10.512  12.685   0.569
41163SOL    HW225329  10.442  12.819   0.565
41164SOL     OW25330  14.060   8.460   9.049
41164SOL    HW125331  14.147   8.428   9.075
41164SOL    HW225332  14.023   8.388   8.998
41165SOL     OW25333  13.185  11.949   8.649
41165SOL    HW125334  13.217  11.988   8.730
41165SOL    HW225335  13.254  11.967   8.585
41166SOL     OW25336  12.158   4.699   0.515
41166SOL    HW125337  12.071   4.706   0.477
41166SOL    HW225338  12.165   4.773   0.575
41167SOL     OW25339   0.378   0.090   5.760
41167SOL    HW125340   0.433   0.048   5.694
41167SOL    HW225341   0.435   0.102   5.836
41168SOL     OW25342  10.686   6.765  10.131
41168SOL    HW125343  10.597   6.795  10.108
41168SOL    HW225344  10.741   6.802  10.062
41169SOL     OW25345   9.806   3.785   1.295
41169SOL    HW125346   9.837   3.819   1.379
41169SOL    HW225347   9.730   3.732   1.317
41170SOL     OW25348   1.291  11.814   4.490
41170SOL    HW125349   1.360  11.843   4.550
41170SOL    HW225350   1.331  11.741   4.442
41171SOL     OW25351   7.941   8.173   8.057
41171SOL    HW125352   7.981   8.235   8.117
41171SOL    HW225353   7.907   8.103   8.113
41172SOL     OW25354   2.403   0.487   9.128
41172SOL    HW125355   2.497   0.481   9.110
41172SOL    HW225356   2.392   0.443   9.213
41173SOL     OW25357  13.846   9.951   2.737
41173SOL    HW125358  13.842   9.949   2.641
41173SOL    HW225359  13.904  10.024   2.757
41174SOL     OW25360   8.711   8.628   7.148
41174SOL    HW125361   8.641   8.603   7.208
41174SOL    HW225362   8.785   8.651   7.204
41175SOL     OW25363   5.734  11.807   9.105
41175SOL    HW125364   5.690  11.771   9.028
41175SOL    HW225365   5.667  11.805   9.174
41176SOL     OW25366   2.863  11.405   4.408
41176SOL    HW125367   2.891  11.342   4.474
41176SOL    HW225368   2.924  11.391   4.335
41177SOL     OW25369   7.790  11.323   6.070
41177SOL    HW125370   7.753  11.264   6.136
41177SOL    HW225371   7.883  11.301   6.067
41178SOL     OW25372   3.801  11.226   6.171
41178SOL    HW125373   3.732  11.293   6.172
41178SOL    HW225374   3.875  11.269   6.128
41179SOL     OW25375   8.236  14.622  12.257
41179SOL    HW125376   8.289  14.553  12.295
41179SOL    HW225377   8.148  14.607  12.292
41180SOL     OW25378   1.372   4.490  14.057
41180SOL    HW125379   1.330   4.443  13.985
41180SOL    HW225380   1.452   4.440  14.076
41181SOL     OW25381  10.591  13.451   1.759
41181SOL    HW125382  10.496  13.447   1.770
41181SOL    HW225383  10.625  13.387   1.820
41182SOL     OW25384   4.914   4.358   5.977
41182SOL    HW125385   4.855   4.414   5.927
41182SOL    HW225386   4.948   4.414   6.047
41183SOL     OW25387  13.585   2.276   6.071
41183SOL    HW125388  13.657   2.314   6.123
41183SOL    HW225389  13.618   2.190   6.044
41184SOL     OW25390  11.274   2.074   0.471
41184SOL    HW125391  11.211   2.146   0.477
41184SOL    HW225392  11.311   2.082   0.383
41185SOL     OW25393   9.912  11.477   2.720
41185SOL    HW125394   9.943  11.432   2.641
41185SOL    HW225395   9.938  11.420   2.792
41186SOL     OW25396   7.911   7.914   2.065
41186SOL    HW125397   7.969   7.841   2.088
41186SOL    HW225398   7.909   7.914   1.970
41187SOL     OW25399   9.057   3.162   7.837
41187SOL    HW125400   8.968   3.195   7.828
41187SOL    HW225401   9.050   3.068   7.820
41188SOL     OW25402   5.833   1.353   2.283
41188SOL    HW125403   5.817   1.309   2.199
41188SOL    HW225404   5.870   1.284   2.339
41189SOL     OW25405  12.361  10.890  12.744
41189SOL    HW125406  12.382  10.982  12.759
41189SOL    HW225407  12.445  10.850  12.720
41190SOL     OW25408   9.033  11.656   7.006
41190SOL    HW125409   9.068  11.728   7.058
41190SOL    HW225410   8.942  11.649   7.032
41191SOL     OW25411  12.754   2.354  13.698
41191SOL    HW125412  12.843   2.384  13.679
41191SOL    HW225413  12.722   2.321  13.614
41192SOL     OW25414   1.028   4.535   1.017
41192SOL    HW125415   1.017   4.531   0.922
41192SOL    HW225416   1.103   4.593   1.031
41193SOL     OW25417  10.085   3.366  13.020
41193SOL    HW125418  10.011   3.351  13.079
41193SOL    HW225419  10.084   3.290  12.961
41194SOL     OW25420   5.253  14.598   6.378
41194SOL    HW125421   5.339  14.611   6.419
41194SOL    HW225422   5.210  14.534   6.435
41195SOL     OW25423  11.306  14.608   2.486
41195SOL    HW125424  11.261  14.555   2.552
41195SOL    HW225425  11.371  14.549   2.448
41196SOL     OW25426   7.607   0.701   5.590
41196SOL    HW125427   7.513   0.683   5.584
41196SOL    HW225428   7.643   0.621   5.629
41197SOL     OW25429   2.681   0.580   5.565
41197SOL    HW125430   2.728   0.584   5.482
41197SOL    HW225431   2.740   0.618   5.629
41198SOL     OW25432   7.249  13.139  11.110
41198SOL    HW125433   7.307  13.157  11.184
41198SOL    HW225434   7.272  13.205  11.045
41199SOL     OW25435   9.221   1.499   8.112
41199SOL    HW125436   9.219   1.418   8.061
41199SOL    HW225437   9.308   1.536   8.096
41200SOL     OW25438  13.835   3.707   4.579
41200SOL    HW125439  13.753   3.747   4.548
41200SOL    HW225440  13.874   3.669   4.500
41201SOL     OW25441  14.027   5.954   6.267
41201SOL    HW125442  14.089   5.887   6.294
41201SOL    HW225443  13.945   5.907   6.255
41202SOL     OW25444   8.723   4.976   3.486
41202SOL    HW125445   8.802   4.931   3.515
41202SOL    HW225446   8.651   4.922   3.520
41203SOL     OW25447  13.294   9.760   0.092
41203SOL    HW125448  13.344   9.719   0.162
41203SOL    HW225449  13.331   9.848   0.085
41204SOL     OW25450   0.424  13.027   5.388
41204SOL    HW125451   0.460  12.944   5.357
41204SOL    HW225452   0.493  13.091   5.371
41205SOL     OW25453   5.415  14.033   4.025
41205SOL    HW125454   5.472  13.961   4.052
41205SOL    HW225455   5.353  13.994   3.964
41206SOL     OW25456   1.634   0.533   2.707
41206SOL    HW125457   1.539   0.527   2.714
41206SOL    HW225458   1.653   0.514   2.615
41207SOL     OW25459   1.599  13.956   3.069
41207SOL    HW125460   1.573  13.974   3.159
41207SOL    HW225461   1.589  14.039   3.023
41208SOL     OW25462   6.886   8.275  14.505
41208SOL    HW125463   6.929   8.314  14.581
41208SOL    HW225464   6.953   8.217  14.468
41209SOL     OW25465   0.471   0.145   1.303
41209SOL    HW125466   0.422   0.221   1.338
41209SOL    HW225467   0.468   0.156   1.208
41210SOL     OW25468  12.908  14.342  13.622
41210SOL    HW125469  12.961  14.285  13.565
41210SOL    HW225470  12.820  14.339  13.584
41211SOL     OW25471   9.112   4.108   7.445
41211SOL    HW125472   9.163   4.169   7.392
41211SOL    HW225473   9.119   4.024   7.399
41212SOL     OW25474  10.125   6.125   8.738
41212SOL    HW125475  10.192   6.060   8.758
41212SOL    HW225476  10.150   6.160   8.653
41213SOL     OW25477  13.277  13.943   6.579
41213SOL    HW125478  13.322  14.000   6.517
41213SOL    HW225479  13.260  13.862   6.530
41214SOL     OW25480   4.483   3.057   7.451
41214SOL    HW125481   4.577   3.052   7.431
41214SOL    HW225482   4.440   3.025   7.372
41215SOL     OW25483   3.158  13.746   7.284
41215SOL    HW125484   3.074  13.702   7.271
41215SOL    HW225485   3.204  13.733   7.200
41216SOL     OW25486  14.805  10.381  11.263
41216SOL    HW125487  14.747  10.317  11.223
41216SOL    HW225488  14.748  10.457  11.281
41217SOL     OW25489   8.341  10.991  12.354
41217SOL    HW125490   8.265  11.030  12.398
41217SOL    HW225491   8.416  11.037  12.391
41218SOL     OW25492   9.896   7.141   5.502
41218SOL    HW125493   9.821   7.126   5.444
41218SOL    HW225494   9.864   7.202   5.568
41219SOL     OW25495  11.928   7.717   8.214
41219SOL    HW125496  11.949   7.670   8.295
41219SOL    HW225497  11.843   7.682   8.188
41220SOL     OW25498   5.388   2.238   5.879
41220SOL    HW125499   5.296   2.213   5.870
41220SOL    HW225500   5.390   2.297   5.954
41221SOL     OW25501  12.935   8.880   5.386
41221SOL    HW125502  12.883   8.871   5.306
41221SOL    HW225503  12.963   8.791   5.407
41222SOL     OW25504  13.293  11.462   6.314
41222SOL    HW125505  13.282  11.458   6.219
41222SOL    HW225506  13.203  11.466   6.348
41223SOL     OW25507   6.731   2.563   3.846
41223SOL    HW125508   6.727   2.561   3.941
41223SOL    HW225509   6.737   2.656   3.825
41224SOL     OW25510   7.988   1.745   4.557
41224SOL    HW125511   8.020   1.832   4.535
41224SOL    HW225512   7.990   1.742   4.653
41225SOL     OW25513   2.256   8.554   0.884
41225SOL    HW125514   2.221   8.478   0.838
41225SOL    HW225515   2.350   8.550   0.869
41226SOL     OW25516   8.253   6.656   0.940
41226SOL    HW125517   8.343   6.670   0.968
41226SOL    HW225518   8.216   6.597   1.007
41227SOL     OW25519  10.269   2.847  14.250
41227SOL    HW125520  10.252   2.761  14.212
41227SOL    HW225521  10.234   2.909  14.186
41228SOL     OW25522   7.735   3.402   2.667
41228SOL    HW125523   7.813   3.346   2.667
41228SOL    HW225524   7.679   3.364   2.600
41229SOL     OW25525   9.987   7.291  14.328
41229SOL    HW125526  10.062   7.344  14.353
41229SOL    HW225527   9.922   7.308  14.396
41230SOL     OW25528   4.174   4.008   4.525
41230SOL    HW125529   4.082   3.996   4.505
41230SOL    HW225530   4.190   3.955   4.603
41231SOL     OW25531  12.966   6.656   5.817
41231SOL    HW125532  12.943   6.749   5.810
41231SOL    HW225533  13.048   6.656   5.865
41232SOL     OW25534   3.059   0.256  12.283
41232SOL    HW125535   3.035   0.178  12.233
41232SOL    HW225536   2.997   0.258  12.356
41233SOL     OW25537   9.018   3.990   0.004
41233SOL    HW125538   8.931   4.030  14.869
41233SOL    HW225539   9.004   3.913   0.059
41234SOL     OW25540  11.561  13.713  13.871
41234SOL    HW125541  11.541  13.780  13.938
41234SOL    HW225542  11.482  13.660  13.866
41235SOL     OW25543   7.303  10.833   4.026
41235SOL    HW125544   7.244  10.758   4.040
41235SOL    HW225545   7.390  10.794   4.022
41236SOL     OW25546   5.235   9.235   5.339
41236SOL    HW125547   5.254   9.161   5.397
41236SOL    HW225548   5.320   9.277   5.324
41237SOL     OW25549   0.537   9.437   7.467
41237SOL    HW125550   0.581   9.407   7.547
41237SOL    HW225551   0.452   9.394   7.469
41238SOL     OW25552  13.264  10.714   0.599
41238SOL    HW125553  13.316  10.791   0.621
41238SOL    HW225554  13.182  10.749   0.563
41239SOL     OW25555   4.316   5.172   1.061
41239SOL    HW125556   4.297   5.211   1.146
41239SOL    HW225557   4.408   5.194   1.045
41240SOL     OW25558  12.711   2.003   7.766
41240SOL    HW125559  12.798   2.020   7.802
41240SOL    HW225560  12.656   1.987   7.843
41241SOL     OW25561   1.081  13.919   8.872
41241SOL    HW125562   1.099  13.841   8.820
41241SOL    HW225563   1.163  13.937   8.918
41242SOL     OW25564   9.716   6.937   4.449
41242SOL    HW125565   9.735   6.958   4.541
41242SOL    HW225566   9.676   6.851   4.452
41243SOL     OW25567   6.099  12.363   8.391
41243SOL    HW125568   6.140  12.440   8.353
41243SOL    HW225569   6.116  12.293   8.327
41244SOL     OW25570   9.336   0.867   2.202
41244SOL    HW125571   9.304   0.777   2.197
41244SOL    HW225572   9.357   0.879   2.295
41245SOL     OW25573   5.957   8.065   7.035
41245SOL    HW125574   6.006   8.139   7.000
41245SOL    HW225575   5.934   8.013   6.957
41246SOL     OW25576  11.395  10.449   8.684
41246SOL    HW125577  11.335  10.384   8.721
41246SOL    HW225578  11.474  10.399   8.664
41247SOL     OW25579   7.177   8.678   4.367
41247SOL    HW125580   7.138   8.599   4.406
41247SOL    HW225581   7.144   8.750   4.421
41248SOL     OW25582  11.078   1.754   9.902
41248SOL    HW125583  10.996   1.777   9.857
41248SOL    HW225584  11.146   1.796   9.849
41249SOL     OW25585  14.729   7.728  14.545
41249SOL    HW125586  14.776   7.682  14.475
41249SOL    HW225587  14.722   7.664  14.616
41250SOL     OW25588   0.523   4.570  11.090
41250SOL    HW125589   0.508   4.647  11.035
41250SOL    HW225590   0.565   4.605  11.169
41251SOL     OW25591   6.884   8.746  14.392
41251SOL    HW125592   6.910   8.654  14.389
41251SOL    HW225593   6.821   8.751  14.464
41252SOL     OW25594   6.774   2.952   5.038
41252SOL    HW125595   6.771   2.923   4.947
41252SOL    HW225596   6.692   2.999   5.051
41253SOL     OW25597   8.249  12.910   4.587
41253SOL    HW125598   8.222  12.819   4.592
41253SOL    HW225599   8.189  12.956   4.646
41254SOL     OW25600  13.591   3.584   3.800
41254SOL    HW125601  13.517   3.571   3.740
41254SOL    HW225602  13.567   3.663   3.850
41255SOL     OW25603  10.707  10.588  11.880
41255SOL    HW125604  10.776  10.620  11.822
41255SOL    HW225605  10.630  10.579  11.823
41256SOL     OW25606   8.753  12.155  13.658
41256SOL    HW125607   8.727  12.067  13.685
41256SOL    HW225608   8.842  12.144  13.625
41257SOL     OW25609   2.144   5.855  13.435
41257SOL    HW125610   2.090   5.800  13.491
41257SOL    HW225611   2.086   5.927  13.409
41258SOL     OW25612  12.665   5.092   6.658
41258SOL    HW125613  12.688   5.132   6.574
41258SOL    HW225614  12.749   5.078   6.701
41259SOL     OW25615   5.476  11.967   4.449
41259SOL    HW125616   5.412  12.038   4.449
41259SOL    HW225617   5.494  11.951   4.356
41260SOL     OW25618   0.106   6.049  10.041
41260SOL    HW125619   0.064   6.081   9.962
41260SOL    HW225620   0.034   6.023  10.098
41261SOL     OW25621  13.151   7.544   6.347
41261SOL    HW125622  13.113   7.572   6.431
41261SOL    HW225623  13.083   7.561   6.283
41262SOL     OW25624  14.787   0.911  13.821
41262SOL    HW125625  14.834   0.881  13.742
41262SOL    HW225626  14.851   0.964  13.869
41263SOL     OW25627   2.893   1.851  13.038
41263SOL    HW125628   2.877   1.913  13.109
41263SOL    HW225629   2.809   1.806  13.026
41264SOL     OW25630  12.852   3.812   7.703
41264SOL    HW125631  12.939   3.773   7.714
41264SOL    HW225632  12.817   3.819   7.791
41265SOL     OW25633   6.490   3.470   1.628
41265SOL    HW125634   6.582   3.494   1.617
41265SOL    HW225635   6.459   3.525   1.699
41266SOL     OW25636  14.650   0.832   5.813
41266SOL    HW125637  14.710   0.760   5.796
41266SOL    HW225638  14.565   0.801   5.782
41267SOL     OW25639   5.439  10.991  13.470
41267SOL    HW125640   5.413  10.961  13.558
41267SOL    HW225641   5.505  11.058  13.487
41268SOL     OW25642   5.859   5.492   5.058
41268SOL    HW125643   5.867   5.399   5.037
41268SOL    HW225644   5.866   5.536   4.973
41269SOL     OW25645  10.377   1.640   6.431
41269SOL    HW125646  10.329   1.580   6.373
41269SOL    HW225647  10.401   1.713   6.374
41270SOL     OW25648   5.525  12.377   4.786
41270SOL    HW125649   5.579  12.402   4.711
41270SOL    HW225650   5.586  12.337   4.848
41271SOL     OW25651   7.761  14.676   6.749
41271SOL    HW125652   7.856  14.674   6.745
41271SOL    HW225653   7.735  14.585   6.734
41272SOL     OW25654   3.369   4.214  13.136
41272SOL    HW125655   3.423   4.189  13.062
41272SOL    HW225656   3.356   4.133  13.185
41273SOL     OW25657   7.228   1.955   7.359
41273SOL    HW125658   7.170   2.031   7.347
41273SOL    HW225659   7.258   1.963   7.450
41274SOL     OW25660   1.818  12.689   1.174
41274SOL    HW125661   1.900  12.739   1.186
41274SOL    HW225662   1.843  12.598   1.188
41275SOL     OW25663   8.999   4.727  10.297
41275SOL    HW125664   8.947   4.663  10.247
41275SOL    HW225665   8.940   4.801  10.310
41276SOL     OW25666  14.363  13.823   7.231
41276SOL    HW125667  14.275  13.800   7.202
41276SOL    HW225668  14.359  13.918   7.247
41277SOL     OW25669   0.858  13.162  11.739
41277SOL    HW125670   0.791  13.116  11.789
41277SOL    HW225671   0.841  13.255  11.756
41278SOL     OW25672   7.559   7.584   1.644
41278SOL    HW125673   7.611   7.513   1.606
41278SOL    HW225674   7.623   7.636   1.692
41279SOL     OW25675   1.837  11.961  12.719
41279SOL    HW125676   1.894  11.924  12.650
41279SOL    HW225677   1.750  11.964  12.679
41280SOL     OW25678   9.746  10.367   9.011
41280SOL    HW125679   9.789  10.402   8.933
41280SOL    HW225680   9.719  10.279   8.986
41281SOL     OW25681   5.967   1.656  12.710
41281SOL    HW125682   5.974   1.677  12.803
41281SOL    HW225683   6.045   1.696  12.670
41282SOL     OW25684   0.884   5.489   0.176
41282SOL    HW125685   0.954   5.446   0.225
41282SOL    HW225686   0.818   5.421   0.163
41283SOL     OW25687   4.056   3.124   1.249
41283SOL    HW125688   3.963   3.119   1.270
41283SOL    HW225689   4.061   3.103   1.156
41284SOL     OW25690   9.045   6.233   1.592
41284SOL    HW125691   8.999   6.314   1.573
41284SOL    HW225692   8.999   6.196   1.667
41285SOL     OW25693   7.878   4.240   3.581
41285SOL    HW125694   7.831   4.274   3.657
41285SOL    HW225695   7.859   4.303   3.512
41286SOL     OW25696   4.798  14.545   9.842
41286SOL    HW125697   4.724  14.514   9.894
41286SOL    HW225698   4.758  14.586   9.766
41287SOL     OW25699   0.886   1.384   1.287
41287SOL    HW125700   0.880   1.326   1.211
41287SOL    HW225701   0.807   1.438   1.282
41288SOL     OW25702   7.681  10.766   8.217
41288SOL    HW125703   7.746  10.800   8.278
41288SOL    HW225704   7.624  10.710   8.270
41289SOL     OW25705   3.038   1.537   8.669
41289SOL    HW125706   3.097   1.580   8.607
41289SOL    HW225707   3.074   1.558   8.755
41290SOL     OW25708  11.139  14.065   5.428
41290SOL    HW125709  11.068  14.129   5.422
41290SOL    HW225710  11.173  14.076   5.517
41291SOL     OW25711   4.435  11.916   0.610
41291SOL    HW125712   4.483  11.853   0.557
41291SOL    HW225713   4.495  11.939   0.680
41292SOL     OW25714   6.614   0.845   4.336
41292SOL    HW125715   6.534   0.794   4.351
41292SOL    HW225716   6.625   0.897   4.416
41293SOL     OW25717   9.461   6.881   4.286
41293SOL    HW125718   9.494   6.816   4.348
41293SOL    HW225719   9.379   6.845   4.254
41294SOL     OW25720  13.080   7.195   9.781
41294SOL    HW125721  13.064   7.143   9.703
41294SOL    HW225722  13.040   7.145   9.852
41295SOL     OW25723  14.580  11.384   5.136
41295SOL    HW125724  14.657  11.396   5.081
41295SOL    HW225725  14.588  11.293   5.168
41296SOL     OW25726  13.661   5.894  14.867
41296SOL    HW125727  13.667   5.842   0.073
41296SOL    HW225728  13.611   5.840  14.806
41297SOL     OW25729  13.050   1.118   1.189
41297SOL    HW125730  13.095   1.201   1.172
41297SOL    HW225731  13.045   1.112   1.285
41298SOL     OW25732   6.376  14.716   0.081
41298SOL    HW125733   6.414  14.775   0.016
41298SOL    HW225734   6.434  14.723   0.156
41299SOL     OW25735   4.760   1.536  12.557
41299SOL    HW125736   4.835   1.581  12.597
41299SOL    HW225737   4.798   1.457  12.518
41300SOL     OW25738   3.247   1.531   0.314
41300SOL    HW125739   3.316   1.579   0.360
41300SOL    HW225740   3.203   1.598   0.261
41301SOL     OW25741   6.550   2.701   9.366
41301SOL    HW125742   6.525   2.731   9.454
41301SOL    HW225743   6.644   2.718   9.361
41302SOL     OW25744   3.593   8.090  12.204
41302SOL    HW125745   3.611   8.057  12.292
41302SOL    HW225746   3.550   8.017  12.159
41303SOL     OW25747   2.396   0.874   1.326
41303SOL    HW125748   2.411   0.942   1.260
41303SOL    HW225749   2.320   0.905   1.375
41304SOL     OW25750   3.080  10.889  13.591
41304SOL    HW125751   3.098  10.940  13.511
41304SOL    HW225752   3.045  10.806  13.559
41305SOL     OW25753  10.405   9.700   1.603
41305SOL    HW125754  10.322   9.729   1.563
41305SOL    HW225755  10.383   9.619   1.648
41306SOL     OW25756   5.245   7.982   9.528
41306SOL    HW125757   5.193   7.955   9.604
41306SOL    HW225758   5.296   8.057   9.560
41307SOL     OW25759   6.285   4.239  14.031
41307SOL    HW125760   6.207   4.218  13.979
41307SOL    HW225761   6.281   4.334  14.043
41308SOL     OW25762   9.850   2.784   4.897
41308SOL    HW125763   9.873   2.810   4.808
41308SOL    HW225764   9.933   2.768   4.941
41309SOL     OW25765  11.073   2.197  12.085
41309SOL    HW125766  11.157   2.236  12.062
41309SOL    HW225767  11.064   2.122  12.026
41310SOL     OW25768  13.798  13.435   4.415
41310SOL    HW125769  13.789  13.509   4.474
41310SOL    HW225770  13.889  13.406   4.428
41311SOL     OW25771   4.088  12.360   0.371
41311SOL    HW125772   4.096  12.272   0.335
41311SOL    HW225773   4.177  12.397   0.365
41312SOL     OW25774  13.241  13.917   7.133
41312SOL    HW125775  13.218  13.892   7.043
41312SOL    HW225776  13.248  14.012   7.131
41313SOL     OW25777  12.432   5.991   3.563
41313SOL    HW125778  12.352   5.996   3.615
41313SOL    HW225779  12.487   5.928   3.609
41314SOL     OW25780  14.625   8.580   5.973
41314SOL    HW125781  14.550   8.546   5.925
41314SOL    HW225782  14.600   8.569   6.065
41315SOL     OW25783  11.914   0.616   4.703
41315SOL    HW125784  11.889   0.540   4.651
41315SOL    HW225785  11.928   0.581   4.791
41316SOL     OW25786   3.973   6.535  12.397
41316SOL    HW125787   3.881   6.510  12.400
41316SOL    HW225788   4.020   6.453  12.383
41317SOL     OW25789  10.396   7.925   9.087
41317SOL    HW125790  10.327   7.871   9.048
41317SOL    HW225791  10.462   7.933   9.019
41318SOL     OW25792  10.669   1.320   0.001
41318SOL    HW125793  10.600   1.374  14.835
41318SOL    HW225794  10.676   1.352   0.091
41319SOL     OW25795   7.903   3.812  11.644
41319SOL    HW125796   7.951   3.768  11.574
41319SOL    HW225797   7.899   3.904  11.616
41320SOL     OW25798  12.227   9.167   0.146
41320SOL    HW125799  12.311   9.171   0.102
41320SOL    HW225800  12.189   9.254   0.133
41321SOL     OW25801   5.621   7.243  14.847
41321SOL    HW125802   5.604   7.151  14.870
41321SOL    HW225803   5.617   7.245  14.752
41322SOL     OW25804   3.141  13.869   5.997
41322SOL    HW125805   3.170  13.954   5.964
41322SOL    HW225806   3.045  13.873   5.995
41323SOL     OW25807   7.816   7.191   6.282
41323SOL    HW125808   7.899   7.220   6.245
41323SOL    HW225809   7.801   7.249   6.357
41324SOL     OW25810   3.596   4.839   5.873
41324SOL    HW125811   3.676   4.876   5.911
41324SOL    HW225812   3.525   4.888   5.913
41325SOL     OW25813  12.925   2.274   7.584
41325SOL    HW125814  12.876   2.343   7.630
41325SOL    HW225815  13.016   2.301   7.592
41326SOL     OW25816   7.027  13.586  13.269
41326SOL    HW125817   7.054  13.594  13.178
41326SOL    HW225818   7.006  13.494  13.280
41327SOL     OW25819   0.172   2.239  14.103
41327SOL    HW125820   0.095   2.187  14.079
41327SOL    HW225821   0.143   2.295  14.174
41328SOL     OW25822   7.307   0.314   6.440
41328SOL    HW125823   7.319   0.376   6.512
41328SOL    HW225824   7.332   0.364   6.362
41329SOL     OW25825  11.980   7.057   9.434
41329SOL    HW125826  12.032   7.028   9.359
41329SOL    HW225827  11.978   6.980   9.492
41330SOL     OW25828   2.831   4.797   7.723
41330SOL    HW125829   2.825   4.712   7.766
41330SOL    HW225830   2.740   4.828   7.719
41331SOL     OW25831   0.341   0.319   1.485
41331SOL    HW125832   0.275   0.251   1.480
41331SOL    HW225833   0.420   0.275   1.517
41332SOL     OW25834   3.067   3.071  11.794
41332SOL    HW125835   3.021   3.151  11.819
41332SOL    HW225836   3.046   3.059  11.701
41333SOL     OW25837   9.605   1.118  11.854
41333SOL    HW125838   9.526   1.083  11.896
41333SOL    HW225839   9.664   1.135  11.927
41334SOL     OW25840   1.345   3.346   3.808
41334SOL    HW125841   1.383   3.261   3.784
41334SOL    HW225842   1.364   3.403   3.733
41335SOL     OW25843   7.615   7.130   4.196
41335SOL    HW125844   7.693   7.178   4.170
41335SOL    HW225845   7.564   7.193   4.248
41336SOL     OW25846   1.676   7.044   3.723
41336SOL    HW125847   1.762   7.042   3.765
41336SOL    HW225848   1.652   7.137   3.723
41337SOL     OW25849   9.491   0.527  11.427
41337SOL    HW125850   9.557   0.564  11.486
41337SOL    HW225851   9.509   0.570  11.343
41338SOL     OW25852  11.955   6.104   1.108
41338SOL    HW125853  11.979   6.069   1.194
41338SOL    HW225854  12.018   6.174   1.092
41339SOL     OW25855   2.372  13.752   2.222
41339SOL    HW125856   2.388  13.747   2.316
41339SOL    HW225857   2.459  13.749   2.182
41340SOL     OW25858  10.554   0.234   1.375
41340SOL    HW125859  10.475   0.283   1.352
41340SOL    HW225860  10.584   0.273   1.457
41341SOL     OW25861   4.750   0.795  11.003
41341SOL    HW125862   4.725   0.771  11.092
41341SOL    HW225863   4.707   0.728  10.948
41342SOL     OW25864   1.063  10.848   5.382
41342SOL    HW125865   1.096  10.905   5.313
41342SOL    HW225866   1.046  10.765   5.339
41343SOL     OW25867   4.502   1.731   7.548
41343SOL    HW125868   4.537   1.820   7.551
41343SOL    HW225869   4.569   1.679   7.593
41344SOL     OW25870  11.218   1.918  10.270
41344SOL    HW125871  11.252   1.839  10.229
41344SOL    HW225872  11.123   1.904  10.273
41345SOL     OW25873   9.500  11.694   2.981
41345SOL    HW125874   9.512  11.707   2.887
41345SOL    HW225875   9.419  11.739   3.002
41346SOL     OW25876   6.288   3.868   7.268
41346SOL    HW125877   6.239   3.937   7.224
41346SOL    HW225878   6.375   3.871   7.228
41347SOL     OW25879  11.270   1.047  11.874
41347SOL    HW125880  11.357   1.072  11.905
41347SOL    HW225881  11.220   1.129  11.873
41348SOL     OW25882   3.525  12.546   2.988
41348SOL    HW125883   3.432  12.526   2.980
41348SOL    HW225884   3.554  12.495   3.064
41349SOL     OW25885   6.753  13.100  12.237
41349SOL    HW125886   6.848  13.107  12.239
41349SOL    HW225887   6.736  13.011  12.205
41350SOL     OW25888  12.903   4.046  12.347
41350SOL    HW125889  12.910   4.026  12.441
41350SOL    HW225890  12.993   4.044  12.315
41351SOL     OW25891   5.671   8.154  10.405
41351SOL    HW125892   5.672   8.108  10.489
41351SOL    HW225893   5.741   8.220  10.414
41352SOL     OW25894   3.297  11.126   8.991
41352SOL    HW125895   3.351  11.170   8.926
41352SOL    HW225896   3.229  11.190   9.013
41353SOL     OW25897   6.826  13.986   7.243
41353SOL    HW125898   6.804  14.026   7.158
41353SOL    HW225899   6.761  13.917   7.255
41354SOL     OW25900   7.889   1.246  11.301
41354SOL    HW125901   7.796   1.256  11.283
41354SOL    HW225902   7.930   1.319  11.255
41355SOL     OW25903  12.160   5.822  11.660
41355SOL    HW125904  12.151   5.916  11.645
41355SOL    HW225905  12.239   5.813  11.714
41356SOL     OW25906  11.687   6.637   1.549
41356SOL    HW125907  11.709   6.722   1.586
41356SOL    HW225908  11.627   6.598   1.613
41357SOL     OW25909  14.274   8.338   9.151
41357SOL    HW125910  14.353   8.284   9.155
41357SOL    HW225911  14.240   8.336   9.241
41358SOL     OW25912   8.515  13.752   5.246
41358SOL    HW125913   8.484  13.720   5.330
41358SOL    HW225914   8.575  13.823   5.268
41359SOL     OW25915   9.003   0.263   8.852
41359SOL    HW125916   8.936   0.330   8.867
41359SOL    HW225917   9.070   0.307   8.799
41360SOL     OW25918   0.767  14.384   8.770
41360SOL    HW125919   0.854  14.404   8.805
41360SOL    HW225920   0.722  14.339   8.841
41361SOL     OW25921   0.195  12.899   2.584
41361SOL    HW125922   0.212  12.849   2.505
41361SOL    HW225923   0.112  12.864   2.618
41362SOL     OW25924   0.555   6.594   0.601
41362SOL    HW125925   0.485   6.650   0.634
41362SOL    HW225926   0.537   6.585   0.507
41363SOL     OW25927   4.419   7.489   5.499
41363SOL    HW125928   4.415   7.451   5.411
41363SOL    HW225929   4.333   7.528   5.512
41364SOL     OW25930   4.094   7.713   9.269
41364SOL    HW125931   4.110   7.799   9.308
41364SOL    HW225932   4.003   7.694   9.291
41365SOL     OW25933   5.168   1.065   0.927
41365SOL    HW125934   5.257   1.029   0.925
41365SOL    HW225935   5.180   1.158   0.905
41366SOL     OW25936   0.921  13.627  13.365
41366SOL    HW125937   0.966  13.676  13.434
41366SOL    HW225938   0.982  13.631  13.291
41367SOL     OW25939   4.413   7.464   2.760
41367SOL    HW125940   4.470   7.395   2.795
41367SOL    HW225941   4.391   7.434   2.672
41368SOL     OW25942  10.467  10.161  11.378
41368SOL    HW125943  10.382  10.161  11.423
41368SOL    HW225944  10.449  10.122  11.293
41369SOL     OW25945   6.137   4.579   1.834
41369SOL    HW125946   6.162   4.566   1.742
41369SOL    HW225947   6.056   4.529   1.843
41370SOL     OW25948   0.722   4.472  10.817
41370SOL    HW125949   0.753   4.561  10.803
41370SOL    HW225950   0.790   4.430  10.870
41371SOL     OW25951  14.369  13.985  12.147
41371SOL    HW125952  14.296  13.924  12.141
41371SOL    HW225953  14.437  13.937  12.194
41372SOL     OW25954   6.043  10.615   3.843
41372SOL    HW125955   6.026  10.579   3.930
41372SOL    HW225956   6.001  10.554   3.783
41373SOL     OW25957   4.611   7.312   6.567
41373SOL    HW125958   4.576   7.400   6.556
41373SOL    HW225959   4.703   7.325   6.592
41374SOL     OW25960  14.458  13.593   7.646
41374SOL    HW125961  14.448  13.684   7.674
41374SOL    HW225962  14.370  13.557   7.647
41375SOL     OW25963   2.604   8.925   6.922
41375SOL    HW125964   2.529   8.930   6.981
41375SOL    HW225965   2.632   8.834   6.926
41376SOL     OW25966   8.061   5.484   9.724
41376SOL    HW125967   8.136   5.541   9.707
41376SOL    HW225968   7.985   5.535   9.695
41377SOL     OW25969   4.343   9.766   2.882
41377SOL    HW125970   4.356   9.741   2.973
41377SOL    HW225971   4.431   9.776   2.846
41378SOL     OW25972  13.484  13.642   8.143
41378SOL    HW125973  13.558  13.647   8.203
41378SOL    HW225974  13.516  13.677   8.060
41379SOL     OW25975  11.985  10.116   6.877
41379SOL    HW125976  11.910  10.081   6.924
41379SOL    HW225977  11.947  10.181   6.817
41380SOL     OW25978   5.840   8.605   1.936
41380SOL    HW125979   5.881   8.666   1.875
41380SOL    HW225980   5.798   8.662   2.001
41381SOL     OW25981  10.312   1.946   5.962
41381SOL    HW125982  10.265   1.918   5.884
41381SOL    HW225983  10.404   1.946   5.936
41382SOL     OW25984   4.210   4.546   2.456
41382SOL    HW125985   4.294   4.502   2.449
41382SOL    HW225986   4.228   4.626   2.506
41383SOL     OW25987   0.479   5.958   9.087
41383SOL    HW125988   0.564   5.966   9.130
41383SOL    HW225989   0.446   5.872   9.115
41384SOL     OW25990   0.001   7.902   3.819
41384SOL    HW125991   0.089   7.881   3.850
41384SOL    HW225992  14.867   7.858   3.735
41385SOL     OW25993   4.089   9.225  13.295
41385SOL    HW125994   4.100   9.308  13.342
41385SOL    HW225995   4.118   9.158  13.357
41386SOL     OW25996  12.672  13.625   0.687
41386SOL    HW125997  12.637  13.570   0.757
41386SOL    HW225998  12.632  13.590   0.607
41387SOL     OW25999   7.163   3.325   6.220
41387SOL    HW126000   7.143   3.244   6.174
41387SOL    HW226001   7.134   3.394   6.160
41388SOL     OW26002   0.954   3.682  10.023
41388SOL    HW126003   0.888   3.646  10.083
41388SOL    HW226004   0.946   3.628   9.944
41389SOL     OW26005  14.186  13.276  11.971
41389SOL    HW126006  14.269  13.272  11.923
41389SOL    HW226007  14.126  13.220  11.921
41390SOL     OW26008   9.793  14.573   6.323
41390SOL    HW126009   9.704  14.539   6.326
41390SOL    HW226010   9.793  14.636   6.250
41391SOL     OW26011  14.100   9.836   2.778
41391SOL    HW126012  14.165   9.830   2.708
41391SOL    HW226013  14.024   9.876   2.737
41392SOL     OW26014   6.807  13.276  14.086
41392SOL    HW126015   6.808  13.281  14.181
41392SOL    HW226016   6.774  13.361  14.057
41393SOL     OW26017  11.020   7.009   1.702
41393SOL    HW126018  11.011   6.941   1.769
41393SOL    HW226019  11.072   7.078   1.745
41394SOL     OW26020  11.796  13.476   8.076
41394SOL    HW126021  11.841  13.527   8.143
41394SOL    HW226022  11.750  13.408   8.124
41395SOL     OW26023   8.902  13.928  10.883
41395SOL    HW126024   8.821  13.977  10.893
41395SOL    HW226025   8.948  13.938  10.966
41396SOL     OW26026   2.293   4.876  13.775
41396SOL    HW126027   2.287   4.971  13.785
41396SOL    HW226028   2.215   4.852  13.725
41397SOL     OW26029   8.960  10.046   5.169
41397SOL    HW126030   8.992  10.089   5.249
41397SOL    HW226031   8.870  10.020   5.190
41398SOL     OW26032  13.796   3.884  13.242
41398SOL    HW126033  13.870   3.942  13.258
41398SOL    HW226034  13.827   3.823  13.175
41399SOL     OW26035  10.157  13.995  12.911
41399SOL    HW126036  10.244  14.025  12.886
41399SOL    HW226037  10.120  13.958  12.831
41400SOL     OW26038   0.320   1.178  12.124
41400SOL    HW126039   0.414   1.183  12.110
41400SOL    HW226040   0.304   1.231  12.203
41401SOL     OW26041   9.654   7.412   4.286
41401SOL    HW126042   9.694   7.327   4.305
41401SOL    HW226043   9.561   7.399   4.305
41402SOL     OW26044   4.909   2.854  12.954
41402SOL    HW126045   4.962   2.913  12.901
41402SOL    HW226046   4.841   2.823  12.894
41403SOL     OW26047   9.304   8.727   2.222
41403SOL    HW126048   9.354   8.670   2.280
41403SOL    HW226049   9.341   8.814   2.236
41404SOL     OW26050  10.606   2.116   9.451
41404SOL    HW126051  10.561   2.075   9.525
41404SOL    HW226052  10.589   2.210   9.462
41405SOL     OW26053   6.148   9.313   1.434
41405SOL    HW126054   6.122   9.392   1.387
41405SOL    HW226055   6.066   9.277   1.468
41406SOL     OW26056   1.484   1.103   2.965
41406SOL    HW126057   1.433   1.022   2.970
41406SOL    HW226058   1.559   1.087   3.024
41407SOL     OW26059  11.510   6.888   5.458
41407SOL    HW126060  11.600   6.920   5.459
41407SOL    HW226061  11.515   6.803   5.414
41408SOL     OW26062   5.872   1.016  14.671
41408SOL    HW126063   5.955   1.002  14.717
41408SOL    HW226064   5.891   0.990  14.581
41409SOL     OW26065  13.625   1.489   4.777
41409SOL    HW126066  13.704   1.537   4.750
41409SOL    HW226067  13.645   1.459   4.866
41410SOL     OW26068  10.036  14.242   8.423
41410SOL    HW126069  10.072  14.329   8.410
41410SOL    HW226070   9.961  14.255   8.481
41411SOL     OW26071   6.086   1.437   1.331
41411SOL    HW126072   6.134   1.499   1.387
41411SOL    HW226073   5.998   1.472   1.326
41412SOL     OW26074   6.479   5.837  12.690
41412SOL    HW126075   6.470   5.933  12.684
41412SOL    HW226076   6.399   5.803  12.650
41413SOL     OW26077   4.340   4.607   9.262
41413SOL    HW126078   4.324   4.689   9.309
41413SOL    HW226079   4.431   4.585   9.282
41414SOL     OW26080  10.486   2.747   0.928
41414SOL    HW126081  10.578   2.773   0.921
41414SOL    HW226082  10.486   2.679   0.996
41415SOL     OW26083   7.290   6.551  14.117
41415SOL    HW126084   7.260   6.463  14.137
41415SOL    HW226085   7.222   6.587  14.058
41416SOL     OW26086   3.310  14.211   9.597
41416SOL    HW126087   3.324  14.133   9.650
41416SOL    HW226088   3.270  14.178   9.516
41417SOL     OW26089  12.084   1.940   9.345
41417SOL    HW126090  12.131   1.897   9.416
41417SOL    HW226091  12.097   1.882   9.269
41418SOL     OW26092   7.722   3.194  10.990
41418SOL    HW126093   7.793   3.153  11.039
41418SOL    HW226094   7.760   3.214  10.904
41419SOL     OW26095   0.219  14.466  14.003
41419SOL    HW126096   0.217  14.536  13.938
41419SOL    HW226097   0.211  14.511  14.087
41420SOL     OW26098   2.491  12.636   3.394
41420SOL    HW126099   2.516  12.728   3.394
41420SOL    HW226100   2.457  12.620   3.483
41421SOL     OW26101   9.636  13.003   3.094
41421SOL    HW126102   9.725  12.972   3.080
41421SOL    HW226103   9.636  13.092   3.057
41422SOL     OW26104  11.682   7.116   1.712
41422SOL    HW126105  11.620   7.189   1.712
41422SOL    HW226106  11.761   7.152   1.671
41423SOL     OW26107   7.510  11.492   1.693
41423SOL    HW126108   7.592  11.464   1.735
41423SOL    HW226109   7.486  11.417   1.638
41424SOL     OW26110   9.246   6.974  11.551
41424SOL    HW126111   9.265   7.050  11.607
41424SOL    HW226112   9.245   6.900  11.611
41425SOL     OW26113  12.292   7.761  14.738
41425SOL    HW126114  12.342   7.838  14.710
41425SOL    HW226115  12.201   7.791  14.739
41426SOL     OW26116   5.570   7.134   6.930
41426SOL    HW126117   5.494   7.085   6.964
41426SOL    HW226118   5.646   7.086   6.964
41427SOL     OW26119   4.831  12.852  12.354
41427SOL    HW126120   4.745  12.879  12.320
41427SOL    HW226121   4.817  12.764  12.387
41428SOL     OW26122   1.150   4.519  12.755
41428SOL    HW126123   1.115   4.524  12.666
41428SOL    HW226124   1.236   4.562  12.748
41429SOL     OW26125   4.182   1.664  13.783
41429SOL    HW126126   4.244   1.604  13.741
41429SOL    HW226127   4.146   1.614  13.856
41430SOL     OW26128   9.704   9.774   0.145
41430SOL    HW126129   9.744   9.861   0.134
41430SOL    HW226130   9.741   9.721   0.074
41431SOL     OW26131  14.495   1.742   5.600
41431SOL    HW126132  14.547   1.805   5.550
41431SOL    HW226133  14.452   1.688   5.533
41432SOL     OW26134  12.521  13.550   1.510
41432SOL    HW126135  12.532  13.466   1.556
41432SOL    HW226136  12.575  13.611   1.560
41433SOL     OW26137   9.480   7.769  13.100
41433SOL    HW126138   9.442   7.709  13.036
41433SOL    HW226139   9.573   7.773  13.076
41434SOL     OW26140   0.473  14.334  11.006
41434SOL    HW126141   0.424  14.255  11.030
41434SOL    HW226142   0.407  14.403  11.004
41435SOL     OW26143  12.526   1.293   6.310
41435SOL    HW126144  12.533   1.319   6.218
41435SOL    HW226145  12.566   1.365   6.359
41436SOL     OW26146  10.024   7.592   2.329
41436SOL    HW126147   9.950   7.532   2.321
41436SOL    HW226148  10.101   7.539   2.311
41437SOL     OW26149   4.792   4.524   3.021
41437SOL    HW126150   4.873   4.553   2.979
41437SOL    HW226151   4.725   4.533   2.954
41438SOL     OW26152  11.795   6.963   6.023
41438SOL    HW126153  11.738   6.895   6.059
41438SOL    HW226154  11.829   7.009   6.100
41439SOL     OW26155  10.845   5.553  10.284
41439SOL    HW126156  10.876   5.475  10.239
41439SOL    HW226157  10.818   5.612  10.213
41440SOL     OW26158   1.781   8.662  11.231
41440SOL    HW126159   1.798   8.679  11.323
41440SOL    HW226160   1.845   8.594  11.207
41441SOL     OW26161  11.071   0.153   8.438
41441SOL    HW126162  11.083   0.248   8.449
41441SOL    HW226163  10.977   0.140   8.448
41442SOL     OW26164   5.003   1.590  12.701
41442SOL    HW126165   5.033   1.512  12.748
41442SOL    HW226166   5.083   1.631  12.669
41443SOL     OW26167  10.889  11.195   6.733
41443SOL    HW126168  10.822  11.257   6.760
41443SOL    HW226169  10.923  11.159   6.815
41444SOL     OW26170   3.041   2.151  12.618
41444SOL    HW126171   2.965   2.125  12.565
41444SOL    HW226172   3.047   2.082  12.685
41445SOL     OW26173   6.814   8.571  12.793
41445SOL    HW126174   6.784   8.654  12.757
41445SOL    HW226175   6.853   8.525  12.719
41446SOL     OW26176   0.395   6.094   6.404
41446SOL    HW126177   0.393   6.115   6.498
41446SOL    HW226178   0.308   6.117   6.372
41447SOL     OW26179   4.042   2.321   7.788
41447SOL    HW126180   3.972   2.357   7.842
41447SOL    HW226181   4.105   2.392   7.777
41448SOL     OW26182  14.548   3.723  12.108
41448SOL    HW126183  14.557   3.748  12.016
41448SOL    HW226184  14.475   3.661  12.110
41449SOL     OW26185   5.615   6.910  10.113
41449SOL    HW126186   5.669   6.843  10.153
41449SOL    HW226187   5.553   6.936  10.181
41450SOL     OW26188   9.917   3.569   5.793
41450SOL    HW126189   9.911   3.487   5.744
41450SOL    HW226190   9.918   3.637   5.725
41451SOL     OW26191   9.561   2.571   9.466
41451SOL    HW126192   9.547   2.520   9.546
41451SOL    HW226193   9.630   2.633   9.488
41452SOL     OW26194   4.050  13.595  13.458
41452SOL    HW126195   4.117  13.630  13.399
41452SOL    HW226196   4.081  13.619  13.545
41453SOL     OW26197   0.359   8.559  10.886
41453SOL    HW126198   0.311   8.630  10.842
41453SOL    HW226199   0.430   8.539  10.825
41454SOL     OW26200   1.125   3.267   7.311
41454SOL    HW126201   1.220   3.266   7.308
41454SOL    HW226202   1.100   3.177   7.332
41455SOL     OW26203  13.190   2.825   5.892
41455SOL    HW126204  13.206   2.747   5.839
41455SOL    HW226205  13.216   2.799   5.980
41456SOL     OW26206   6.508   8.901   7.628
41456SOL    HW126207   6.515   8.944   7.543
41456SOL    HW226208   6.599   8.896   7.660
41457SOL     OW26209   5.952   9.289   7.858
41457SOL    HW126210   5.894   9.337   7.799
41457SOL    HW226211   5.988   9.219   7.803
41458SOL     OW26212  10.753   4.386  11.891
41458SOL    HW126213  10.736   4.314  11.831
41458SOL    HW226214  10.724   4.354  11.977
41459SOL     OW26215   4.330   6.334  13.435
41459SOL    HW126216   4.259   6.396  13.449
41459SOL    HW226217   4.286   6.255  13.401
41460SOL     OW26218   4.297   0.914   5.582
41460SOL    HW126219   4.291   0.834   5.529
41460SOL    HW226220   4.207   0.932   5.608
41461SOL     OW26221   9.020  10.144   4.274
41461SOL    HW126222   9.004  10.113   4.363
41461SOL    HW226223   8.933  10.151   4.235
41462SOL     OW26224   5.806  12.889   1.870
41462SOL    HW126225   5.771  12.803   1.848
41462SOL    HW226226   5.866  12.872   1.942
41463SOL     OW26227   3.693  12.261   1.647
41463SOL    HW126228   3.689  12.199   1.574
41463SOL    HW226229   3.757  12.326   1.619
41464SOL     OW26230  10.124   9.300  14.042
41464SOL    HW126231  10.067   9.226  14.064
41464SOL    HW226232  10.164   9.275  13.958
41465SOL     OW26233   4.147  11.355   9.046
41465SOL    HW126234   4.093  11.404   9.108
41465SOL    HW226235   4.149  11.266   9.081
41466SOL     OW26236   6.052  12.083   7.014
41466SOL    HW126237   6.016  12.074   6.926
41466SOL    HW226238   6.142  12.053   7.006
41467SOL     OW26239   8.111  11.247   1.453
41467SOL    HW126240   8.044  11.273   1.390
41467SOL    HW226241   8.185  11.304   1.434
41468SOL     OW26242  13.794  13.310   8.029
41468SOL    HW126243  13.775  13.399   7.999
41468SOL    HW226244  13.774  13.310   8.122
41469SOL     OW26245  12.741  14.784   1.896
41469SOL    HW126246  12.649  14.799   1.919
41469SOL    HW226247  12.761  14.698   1.933
41470SOL     OW26248   6.691   5.325   1.145
41470SOL    HW126249   6.600   5.349   1.160
41470SOL    HW226250   6.696   5.305   1.051
41471SOL     OW26251   4.342   8.355   7.798
41471SOL    HW126252   4.287   8.294   7.847
41471SOL    HW226253   4.285   8.430   7.781
41472SOL     OW26254   0.818  10.255   3.689
41472SOL    HW126255   0.764  10.241   3.767
41472SOL    HW226256   0.780  10.197   3.624
41473SOL     OW26257   5.556  12.437   8.497
41473SOL    HW126258   5.580  12.422   8.589
41473SOL    HW226259   5.608  12.372   8.449
41474SOL     OW26260   9.621   8.925  11.480
41474SOL    HW126261   9.694   8.957  11.429
41474SOL    HW226262   9.613   8.986  11.553
41475SOL     OW26263   0.572   4.373   4.341
41475SOL    HW126264   0.627   4.346   4.268
41475SOL    HW226265   0.627   4.358   4.418
41476SOL     OW26266   4.886   9.950  12.790
41476SOL    HW126267   4.793   9.950  12.767
41476SOL    HW226268   4.930   9.925  12.709
41477SOL     OW26269   6.123   2.785   1.267
41477SOL    HW126270   6.108   2.712   1.207
41477SOL    HW226271   6.040   2.794   1.315
41478SOL     OW26272   1.055   5.841   8.739
41478SOL    HW126273   1.068   5.901   8.813
41478SOL    HW226274   1.058   5.754   8.778
41479SOL     OW26275   6.232   7.851   6.095
41479SOL    HW126276   6.159   7.911   6.111
41479SOL    HW226277   6.252   7.863   6.002
41480SOL     OW26278   2.805  14.064   4.978
41480SOL    HW126279   2.800  14.103   4.891
41480SOL    HW226280   2.799  13.970   4.963
41481SOL     OW26281   2.961   2.998   9.320
41481SOL    HW126282   2.945   3.073   9.262
41481SOL    HW226283   2.884   2.942   9.307
41482SOL     OW26284   5.997  12.273   6.062
41482SOL    HW126285   6.063  12.219   6.105
41482SOL    HW226286   5.955  12.322   6.133
41483SOL     OW26287  10.531   7.995   8.891
41483SOL    HW126288  10.601   7.948   8.846
41483SOL    HW226289  10.452   7.978   8.839
41484SOL     OW26290   8.555   9.779  13.476
41484SOL    HW126291   8.580   9.686  13.482
41484SOL    HW226292   8.490   9.782  13.406
41485SOL     OW26293  13.092   9.942  14.530
41485SOL    HW126294  13.164   9.978  14.581
41485SOL    HW226295  13.080   9.853  14.563
41486SOL     OW26296  12.569   6.076  13.174
41486SOL    HW126297  12.632   6.017  13.133
41486SOL    HW226298  12.491   6.021  13.190
41487SOL     OW26299  10.863   7.109   3.289
41487SOL    HW126300  10.838   7.086   3.379
41487SOL    HW226301  10.958   7.102   3.288
41488SOL     OW26302   8.771   4.797   9.577
41488SOL    HW126303   8.690   4.753   9.553
41488SOL    HW226304   8.808   4.826   9.494
41489SOL     OW26305  10.246   1.496   6.242
41489SOL    HW126306  10.176   1.531   6.296
41489SOL    HW226307  10.263   1.564   6.177
41490SOL     OW26308   9.797   0.951   8.764
41490SOL    HW126309   9.877   0.974   8.716
41490SOL    HW226310   9.812   0.984   8.853
41491SOL     OW26311  13.665   0.079  10.189
41491SOL    HW126312  13.659   0.040  10.102
41491SOL    HW226313  13.694   0.007  10.245
41492SOL     OW26314  11.187   0.409   7.714
41492SOL    HW126315  11.271   0.411   7.759
41492SOL    HW226316  11.210   0.409   7.621
41493SOL     OW26317   8.109   6.689   6.395
41493SOL    HW126318   8.199   6.657   6.395
41493SOL    HW226319   8.101   6.737   6.478
41494SOL     OW26320   9.624  12.208   7.233
41494SOL    HW126321   9.544  12.247   7.269
41494SOL    HW226322   9.693  12.235   7.293
41495SOL     OW26323   8.286   9.374   1.029
41495SOL    HW126324   8.254   9.286   1.049
41495SOL    HW226325   8.207   9.425   1.013
41496SOL     OW26326   8.424   0.803   1.853
41496SOL    HW126327   8.371   0.882   1.847
41496SOL    HW226328   8.514   0.834   1.843
41497SOL     OW26329   7.531  10.012  14.676
41497SOL    HW126330   7.607  10.069  14.672
41497SOL    HW226331   7.477  10.037  14.601
41498SOL     OW26332  10.701  13.782   6.942
41498SOL    HW126333  10.705  13.874   6.914
41498SOL    HW226334  10.616  13.775   6.986
41499SOL     OW26335   0.308   4.366  11.066
41499SOL    HW126336   0.309   4.313  10.986
41499SOL    HW226337   0.360   4.443  11.044
41500SOL     OW26338  10.977   9.943   3.659
41500SOL    HW126339  10.894   9.900   3.680
41500SOL    HW226340  11.006   9.902   3.578
41501SOL     OW26341   5.499  10.646   0.397
41501SOL    HW126342   5.500  10.629   0.303
41501SOL    HW226343   5.538  10.568   0.436
41502SOL     OW26344  10.062  11.559   5.021
41502SOL    HW126345  10.029  11.648   5.036
41502SOL    HW226346  10.108  11.537   5.101
41503SOL     OW26347   9.181   3.146  11.352
41503SOL    HW126348   9.190   3.184  11.265
41503SOL    HW226349   9.228   3.206  11.410
41504SOL     OW26350   0.935   0.141   3.164
41504SOL    HW126351   0.997   0.214   3.161
41504SOL    HW226352   0.936   0.105   3.075
41505SOL     OW26353  12.834  14.849  10.105
41505SOL    HW126354  12.876  14.764  10.114
41505SOL    HW226355  12.763  14.834  10.043
41506SOL     OW26356   9.026   1.135   9.155
41506SOL    HW126357   9.041   1.174   9.241
41506SOL    HW226358   8.931   1.136   9.144
41507SOL     OW26359  12.141  11.815  10.126
41507SOL    HW126360  12.073  11.756  10.092
41507SOL    HW226361  12.177  11.769  10.202
41508SOL     OW26362   8.849  12.103   6.332
41508SOL    HW126363   8.841  12.176   6.271
41508SOL    HW226364   8.792  12.126   6.405
41509SOL     OW26365   9.494  14.451   2.583
41509SOL    HW126366   9.400  14.433   2.584
41509SOL    HW226367   9.516  14.470   2.674
41510SOL     OW26368  11.015   5.870  10.328
41510SOL    HW126369  11.003   5.791  10.276
41510SOL    HW226370  10.959   5.856  10.405
41511SOL     OW26371   8.200   7.824  13.834
41511SOL    HW126372   8.144   7.825  13.911
41511SOL    HW226373   8.212   7.731  13.813
41512SOL     OW26374   6.566  13.229  10.537
41512SOL    HW126375   6.598  13.209  10.449
41512SOL    HW226376   6.638  13.275  10.579
41513SOL     OW26377   6.217   0.949   8.993
41513SOL    HW126378   6.273   0.898   8.934
41513SOL    HW226379   6.249   0.928   9.081
41514SOL     OW26380   7.102  14.665   3.185
41514SOL    HW126381   7.177  14.696   3.134
41514SOL    HW226382   7.029  14.721   3.158
41515SOL     OW26383   9.770   2.074   0.359
41515SOL    HW126384   9.741   2.119   0.280
41515SOL    HW226385   9.833   2.134   0.399
41516SOL     OW26386   8.336  10.769   2.647
41516SOL    HW126387   8.347  10.674   2.644
41516SOL    HW226388   8.369  10.794   2.733
41517SOL     OW26389  14.521   6.034   9.086
41517SOL    HW126390  14.443   6.016   9.033
41517SOL    HW226391  14.593   6.030   9.024
41518SOL     OW26392   7.947   4.557  13.540
41518SOL    HW126393   7.974   4.585  13.628
41518SOL    HW226394   7.980   4.468  13.532
41519SOL     OW26395   0.967  13.957   7.083
41519SOL    HW126396   0.892  13.941   7.140
41519SOL    HW226397   0.928  13.988   7.001
41520SOL     OW26398  11.076  10.377  14.823
41520SOL    HW126399  11.079  10.436  14.748
41520SOL    HW226400  11.053  10.433   0.024
41521SOL     OW26401  13.011  11.593  11.862
41521SOL    HW126402  12.974  11.526  11.805
41521SOL    HW226403  13.088  11.552  11.901
41522SOL     OW26404  11.427   4.143  13.965
41522SOL    HW126405  11.501   4.191  14.002
41522SOL    HW226406  11.352   4.171  14.018
41523SOL     OW26407   8.265  14.026   9.852
41523SOL    HW126408   8.219  14.110   9.852
41523SOL    HW226409   8.284  14.009   9.760
41524SOL     OW26410  10.280  12.125   4.258
41524SOL    HW126411  10.208  12.084   4.305
41524SOL    HW226412  10.336  12.053   4.232
41525SOL     OW26413  11.459   6.600  12.820
41525SOL    HW126414  11.416   6.685  12.832
41525SOL    HW226415  11.549   6.615  12.849
41526SOL     OW26416   3.720  10.034   4.288
41526SOL    HW126417   3.641   9.980   4.282
41526SOL    HW226418   3.779   9.998   4.222
41527SOL     OW26419   8.712  12.010   9.164
41527SOL    HW126420   8.783  12.001   9.227
41527SOL    HW226421   8.754  12.045   9.085
41528SOL     OW26422   7.844  10.587   2.117
41528SOL    HW126423   7.854  10.591   2.022
41528SOL    HW226424   7.931  10.604   2.152
41529SOL     OW26425   8.080   2.693   8.074
41529SOL    HW126426   8.051   2.689   7.982
41529SOL    HW226427   7.999   2.699   8.124
41530SOL     OW26428   6.970   5.399  13.142
41530SOL    HW126429   6.894   5.424  13.090
41530SOL    HW226430   6.943   5.320  13.189
41531SOL     OW26431   6.583   3.234   6.894
41531SOL    HW126432   6.491   3.208   6.888
41531SOL    HW226433   6.592   3.271   6.982
41532SOL     OW26434   0.388   3.059   4.723
41532SOL    HW126435   0.457   3.121   4.747
41532SOL    HW226436   0.342   3.101   4.651
41533SOL     OW26437   0.750   2.437   1.896
41533SOL    HW126438   0.758   2.342   1.900
41533SOL    HW226439   0.833   2.466   1.856
41534SOL     OW26440   3.591   6.660   1.371
41534SOL    HW126441   3.573   6.615   1.454
41534SOL    HW226442   3.647   6.600   1.323
41535SOL     OW26443   7.544  11.956  14.673
41535SOL    HW126444   7.629  11.964  14.715
41535SOL    HW226445   7.554  11.886  14.609
41536SOL     OW26446   0.742   6.822  11.387
41536SOL    HW126447   0.813   6.764  11.416
41536SOL    HW226448   0.767   6.909  11.419
41537SOL     OW26449   1.654  12.970  10.390
41537SOL    HW126450   1.709  13.021  10.449
41537SOL    HW226451   1.570  13.016  10.390
41538SOL     OW26452   8.755   3.176   8.183
41538SOL    HW126453   8.770   3.083   8.201
41538SOL    HW226454   8.737   3.214   8.269
41539SOL     OW26455  13.032  11.540   4.398
41539SOL    HW126456  13.100  11.601   4.427
41539SOL    HW226457  13.024  11.477   4.470
41540SOL     OW26458   3.416  13.468   8.766
41540SOL    HW126459   3.323  13.472   8.789
41540SOL    HW226460   3.429  13.378   8.736
41541SOL     OW26461  11.466   4.885   3.178
41541SOL    HW126462  11.467   4.941   3.256
41541SOL    HW226463  11.374   4.860   3.168
41542SOL     OW26464   9.785   8.565   1.406
41542SOL    HW126465   9.793   8.494   1.342
41542SOL    HW226466   9.807   8.525   1.490
41543SOL     OW26467   4.393  13.300   7.954
41543SOL    HW126468   4.307  13.310   7.995
41543SOL    HW226469   4.449  13.265   8.023
41544SOL     OW26470   4.349  10.549   6.702
41544SOL    HW126471   4.416  10.532   6.635
41544SOL    HW226472   4.294  10.617   6.665
41545SOL     OW26473   2.663   0.878  12.441
41545SOL    HW126474   2.616   0.906  12.520
41545SOL    HW226475   2.672   0.783  12.452
41546SOL     OW26476  13.380  13.732   4.396
41546SOL    HW126477  13.288  13.729   4.370
41546SOL    HW226478  13.407  13.641   4.398
41547SOL     OW26479   8.703  10.621   5.456
41547SOL    HW126480   8.796  10.645   5.463
41547SOL    HW226481   8.662  10.668   5.529
41548SOL     OW26482   0.307   3.567  14.754
41548SOL    HW126483   0.319   3.606  14.667
41548SOL    HW226484   0.339   3.634  14.814
41549SOL     OW26485   4.253   3.220   2.542
41549SOL    HW126486   4.253   3.126   2.522
41549SOL    HW226487   4.224   3.262   2.461
41550SOL     OW26488  11.055  14.383   0.866
41550SOL    HW126489  11.015  14.303   0.831
41550SOL    HW226490  11.149  14.371   0.851
41551SOL     OW26491   5.475   8.942  11.557
41551SOL    HW126492   5.486   8.871  11.493
41551SOL    HW226493   5.380   8.951  11.566
41552SOL     OW26494  13.249   8.745   4.268
41552SOL    HW126495  13.233   8.747   4.173
41552SOL    HW226496  13.180   8.691   4.303
41553SOL     OW26497   6.083  14.766   2.758
41553SOL    HW126498   6.033  14.774   2.839
41553SOL    HW226499   6.137  14.845   2.755
41554SOL     OW26500   3.817   9.860  11.468
41554SOL    HW126501   3.765   9.813  11.403
41554SOL    HW226502   3.806   9.952  11.447
41555SOL     OW26503   6.672   0.074   5.679
41555SOL    HW126504   6.674   0.051   5.772
41555SOL    HW226505   6.580   0.093   5.660
41556SOL     OW26506  14.694   5.194   6.803
41556SOL    HW126507  14.759   5.210   6.871
41556SOL    HW226508  14.612   5.227   6.840
41557SOL     OW26509   9.336  12.376   4.989
41557SOL    HW126510   9.420  12.387   5.034
41557SOL    HW226511   9.355  12.397   4.897
41558SOL     OW26512   2.363  12.572   5.957
41558SOL    HW126513   2.298  12.520   5.910
41558SOL    HW226514   2.441  12.568   5.901
41559SOL     OW26515   8.385   0.267   6.598
41559SOL    HW126516   8.305   0.300   6.640
41559SOL    HW226517   8.439   0.236   6.671
41560SOL     OW26518  10.796   9.057  10.611
41560SOL    HW126519  10.823   8.996  10.681
41560SOL    HW226520  10.709   9.027  10.585
41561SOL     OW26521   0.722   0.021  12.065
41561SOL    HW126522   0.698   0.091  12.004
41561SOL    HW226523   0.660  14.824  12.047
41562SOL     OW26524  11.791   7.848  11.824
41562SOL    HW126525  11.726   7.914  11.848
41562SOL    HW226526  11.766   7.821  11.736
41563SOL     OW26527  13.824   7.764  14.629
41563SOL    HW126528  13.842   7.679  14.669
41563SOL    HW226529  13.910   7.803  14.615
41564SOL     OW26530   3.245   3.853   1.966
41564SOL    HW126531   3.232   3.807   1.883
41564SOL    HW226532   3.340   3.857   1.976
41565SOL     OW26533  14.592  13.134   4.169
41565SOL    HW126534  14.685  13.116   4.155
41565SOL    HW226535  14.587  13.229   4.178
41566SOL     OW26536   9.332   9.994   2.847
41566SOL    HW126537   9.254  10.005   2.793
41566SOL    HW226538   9.346   9.899   2.850
41567SOL     OW26539   3.074  10.025   8.910
41567SOL    HW126540   3.106  10.113   8.893
41567SOL    HW226541   3.097   9.975   8.831
41568SOL     OW26542   9.268   3.690  13.294
41568SOL    HW126543   9.257   3.728  13.381
41568SOL    HW226544   9.200   3.622  13.289
41569SOL     OW26545   3.461   1.240   2.291
41569SOL    HW126546   3.444   1.200   2.376
41569SOL    HW226547   3.556   1.230   2.279
41570SOL     OW26548  11.399   5.288  10.911
41570SOL    HW126549  11.485   5.324  10.932
41570SOL    HW226550  11.400   5.199  10.948
41571SOL     OW26551   1.573   9.084   0.241
41571SOL    HW126552   1.615   9.167   0.265
41571SOL    HW226553   1.555   9.041   0.325
41572SOL     OW26554   5.751  10.916   9.467
41572SOL    HW126555   5.664  10.883   9.486
41572SOL    HW226556   5.776  10.965   9.546
41573SOL     OW26557  13.267   4.307   2.392
41573SOL    HW126558  13.319   4.229   2.410
41573SOL    HW226559  13.286   4.366   2.465
41574SOL     OW26560   6.391   1.715   1.270
41574SOL    HW126561   6.480   1.744   1.249
41574SOL    HW226562   6.376   1.640   1.212
41575SOL     OW26563   7.629  12.280  14.866
41575SOL    HW126564   7.628  12.359   0.048
41575SOL    HW226565   7.597  12.210   0.051
41576SOL     OW26566  13.767   2.763   2.647
41576SOL    HW126567  13.757   2.740   2.554
41576SOL    HW226568  13.791   2.855   2.646
41577SOL     OW26569   2.515  10.935   4.088
41577SOL    HW126570   2.499  10.844   4.114
41577SOL    HW226571   2.520  10.982   4.171
41578SOL     OW26572  13.649  10.498  14.437
41578SOL    HW126573  13.565  10.484  14.480
41578SOL    HW226574  13.652  10.431  14.369
41579SOL     OW26575   5.360   8.109  13.937
41579SOL    HW126576   5.405   8.182  13.894
41579SOL    HW226577   5.283   8.150  13.977
41580SOL     OW26578  12.656   6.206   2.121
41580SOL    HW126579  12.639   6.127   2.070
41580SOL    HW226580  12.660   6.276   2.056
41581SOL     OW26581   4.789  13.414  12.446
41581SOL    HW126582   4.833  13.473  12.386
41581SOL    HW226583   4.823  13.327  12.424
41582SOL     OW26584   2.110   1.610   2.253
41582SOL    HW126585   2.129   1.532   2.305
41582SOL    HW226586   2.097   1.578   2.164
41583SOL     OW26587   1.905   8.211   8.958
41583SOL    HW126588   1.831   8.152   8.975
41583SOL    HW226589   1.903   8.273   9.032
41584SOL     OW26590  14.777   3.802   4.115
41584SOL    HW126591  14.757   3.842   4.029
41584SOL    HW226592  14.696   3.812   4.165
41585SOL     OW26593   0.529   9.154  13.516
41585SOL    HW126594   0.498   9.142  13.426
41585SOL    HW226595   0.608   9.207  13.507
41586SOL     OW26596   1.400   0.126  13.549
41586SOL    HW126597   1.386   0.217  13.574
41586SOL    HW226598   1.334   0.077  13.598
41587SOL     OW26599   6.437   9.260   2.088
41587SOL    HW126600   6.354   9.252   2.040
41587SOL    HW226601   6.488   9.323   2.037
41588SOL     OW26602   7.113   4.911   4.782
41588SOL    HW126603   7.084   4.893   4.693
41588SOL    HW226604   7.207   4.925   4.775
41589SOL     OW26605   4.797   6.677   6.856
41589SOL    HW126606   4.865   6.737   6.887
41589SOL    HW226607   4.824   6.591   6.888
41590SOL     OW26608  14.136   5.687   1.640
41590SOL    HW126609  14.195   5.742   1.588
41590SOL    HW226610  14.183   5.673   1.722
41591SOL     OW26611   8.377   9.461   1.701
41591SOL    HW126612   8.439   9.528   1.673
41591SOL    HW226613   8.291   9.501   1.690
41592SOL     OW26614   4.052  10.966   8.063
41592SOL    HW126615   4.057  11.027   7.990
41592SOL    HW226616   4.066  10.879   8.024
41593SOL     OW26617   4.132   0.116  11.432
41593SOL    HW126618   4.084   0.040  11.463
41593SOL    HW226619   4.089   0.140  11.350
41594SOL     OW26620   6.381  13.336   0.776
41594SOL    HW126621   6.440  13.277   0.729
41594SOL    HW226622   6.312  13.357   0.713
41595SOL     OW26623   9.928  12.848   1.342
41595SOL    HW126624   9.989  12.855   1.415
41595SOL    HW226625   9.984  12.835   1.265
41596SOL     OW26626   8.336   5.733   9.995
41596SOL    HW126627   8.385   5.782  10.062
41596SOL    HW226628   8.303   5.801   9.936
41597SOL     OW26629   7.444   9.411  13.863
41597SOL    HW126630   7.537   9.432  13.863
41597SOL    HW226631   7.401   9.491  13.893
41598SOL     OW26632  11.135  10.691   5.193
41598SOL    HW126633  11.168  10.775   5.162
41598SOL    HW226634  11.045  10.709   5.221
41599SOL     OW26635   7.533   4.212   2.075
41599SOL    HW126636   7.625   4.226   2.053
41599SOL    HW226637   7.488   4.211   1.991
41600SOL     OW26638   1.188   1.960  13.817
41600SOL    HW126639   1.148   1.881  13.853
41600SOL    HW226640   1.256   1.927  13.757
41601SOL     OW26641  14.386  10.360  11.237
41601SOL    HW126642  14.408  10.327  11.150
41601SOL    HW226643  14.301  10.402  11.226
41602SOL     OW26644   0.593   2.616   6.698
41602SOL    HW126645   0.576   2.645   6.788
41602SOL    HW226646   0.689   2.613   6.692
41603SOL     OW26647   9.781   2.512   4.906
41603SOL    HW126648   9.759   2.605   4.912
41603SOL    HW226649   9.848   2.507   4.838
41604SOL     OW26650  11.951  11.837  13.245
41604SOL    HW126651  12.001  11.890  13.306
41604SOL    HW226652  11.921  11.898  13.178
41605SOL     OW26653   0.401   1.926  11.413
41605SOL    HW126654   0.316   1.923  11.371
41605SOL    HW226655   0.459   1.879  11.353
41606SOL     OW26656  11.635   9.543   2.298
41606SOL    HW126657  11.619   9.458   2.256
41606SOL    HW226658  11.648   9.522   2.391
41607SOL     OW26659   9.425   5.008   5.186
41607SOL    HW126660   9.367   4.984   5.114
41607SOL    HW226661   9.512   5.013   5.146
41608SOL     OW26662  11.157  11.540   3.813
41608SOL    HW126663  11.094  11.547   3.884
41608SOL    HW226664  11.225  11.604   3.834
41609SOL     OW26665  10.042   4.395   3.209
41609SOL    HW126666   9.988   4.462   3.250
41609SOL    HW226667   9.986   4.357   3.141
41610SOL     OW26668  11.443  11.632   1.019
41610SOL    HW126669  11.362  11.644   1.069
41610SOL    HW226670  11.458  11.715   0.975
41611SOL     OW26671  14.315  12.472   6.394
41611SOL    HW126672  14.245  12.456   6.457
41611SOL    HW226673  14.387  12.415   6.422
41612SOL     OW26674   1.553   3.877  12.563
41612SOL    HW126675   1.498   3.947  12.527
41612SOL    HW226676   1.509   3.852  12.644
41613SOL     OW26677   6.571  12.227   2.023
41613SOL    HW126678   6.537  12.237   2.112
41613SOL    HW226679   6.559  12.314   1.984
41614SOL     OW26680   9.049   3.458   5.259
41614SOL    HW126681   9.006   3.524   5.205
41614SOL    HW226682   9.011   3.375   5.230
41615SOL     OW26683  10.922  14.468  11.673
41615SOL    HW126684  10.936  14.496  11.582
41615SOL    HW226685  10.952  14.377  11.674
41616SOL     OW26686   1.367   6.809   5.791
41616SOL    HW126687   1.429   6.842   5.857
41616SOL    HW226688   1.344   6.722   5.822
41617SOL     OW26689   3.191  13.064  12.455
41617SOL    HW126690   3.153  12.976  12.459
41617SOL    HW226691   3.276  13.055  12.498
41618SOL     OW26692   3.673   1.552  14.174
41618SOL    HW126693   3.609   1.521  14.110
41618SOL    HW226694   3.748   1.493  14.164
41619SOL     OW26695   7.809   8.484  13.072
41619SOL    HW126696   7.768   8.407  13.033
41619SOL    HW226697   7.894   8.490  13.028
41620SOL     OW26698   5.554   4.908  11.596
41620SOL    HW126699   5.539   4.820  11.630
41620SOL    HW226700   5.560   4.896  11.501
41621SOL     OW26701   3.498   7.211   9.437
41621SOL    HW126702   3.539   7.192   9.522
41621SOL    HW226703   3.569   7.246   9.383
41622SOL     OW26704   3.895   2.331  14.039
41622SOL    HW126705   3.898   2.310  14.132
41622SOL    HW226706   3.974   2.383  14.023
41623SOL     OW26707   1.077   7.096   3.864
41623SOL    HW126708   0.990   7.056   3.870
41623SOL    HW226709   1.095   7.101   3.771
41624SOL     OW26710   2.281  11.458   7.676
41624SOL    HW126711   2.266  11.398   7.603
41624SOL    HW226712   2.365  11.429   7.713
41625SOL     OW26713  13.950  11.691  13.299
41625SOL    HW126714  13.974  11.612  13.347
41625SOL    HW226715  13.873  11.666  13.248
41626SOL     OW26716   0.958   8.443  11.966
41626SOL    HW126717   0.949   8.447  12.062
41626SOL    HW226718   0.875   8.408  11.936
41627SOL     OW26719  11.271  11.065  14.535
41627SOL    HW126720  11.285  11.089  14.627
41627SOL    HW226721  11.342  11.003  14.516
41628SOL     OW26722   7.541   0.727   7.004
41628SOL    HW126723   7.566   0.661   6.940
41628SOL    HW226724   7.545   0.810   6.957
41629SOL     OW26725  13.584   6.986  12.295
41629SOL    HW126726  13.625   6.900  12.301
41629SOL    HW226727  13.565   6.997  12.201
41630SOL     OW26728  13.838  12.938  11.965
41630SOL    HW126729  13.856  13.025  12.002
41630SOL    HW226730  13.828  12.954  11.871
41631SOL     OW26731  13.287   1.318   7.504
41631SOL    HW126732  13.210   1.269   7.478
41631SOL    HW226733  13.345   1.315   7.428
41632SOL     OW26734   4.706  13.753   2.430
41632SOL    HW126735   4.652  13.743   2.508
41632SOL    HW226736   4.659  13.705   2.361
41633SOL     OW26737   2.354  12.230  12.524
41633SOL    HW126738   2.324  12.159  12.581
41633SOL    HW226739   2.293  12.229  12.450
41634SOL     OW26740   0.686   2.954   4.609
41634SOL    HW126741   0.669   3.047   4.601
41634SOL    HW226742   0.735   2.931   4.529
41635SOL     OW26743   9.241   4.444  14.234
41635SOL    HW126744   9.330   4.477  14.247
41635SOL    HW226745   9.194   4.472  14.312
41636SOL     OW26746  10.529  12.920   0.221
41636SOL    HW126747  10.614  12.956   0.196
41636SOL    HW226748  10.540  12.897   0.313
41637SOL     OW26749   9.222   6.542   1.082
41637SOL    HW126750   9.225   6.458   1.037
41637SOL    HW226751   9.246   6.606   1.015
41638SOL     OW26752   5.119   4.651   0.114
41638SOL    HW126753   5.193   4.702   0.082
41638SOL    HW226754   5.131   4.648   0.209
41639SOL     OW26755   3.891  12.855   0.690
41639SOL    HW126756   3.921  12.936   0.648
41639SOL    HW226757   3.876  12.795   0.617
41640SOL     OW26758   7.203  12.544  12.348
41640SOL    HW126759   7.215  12.555  12.442
41640SOL    HW226760   7.209  12.449  12.335
41641SOL     OW26761   4.554   1.984  14.605
41641SOL    HW126762   4.576   1.937  14.685
41641SOL    HW226763   4.572   2.075  14.624
41642SOL     OW26764   9.218   9.574   8.878
41642SOL    HW126765   9.310   9.560   8.856
41642SOL    HW226766   9.191   9.493   8.920
41643SOL     OW26767   7.249   9.126  13.846
41643SOL    HW126768   7.342   9.136  13.868
41643SOL    HW226769   7.211   9.212  13.860
41644SOL     OW26770  12.635  13.065   0.193
41644SOL    HW126771  12.641  13.135   0.258
41644SOL    HW226772  12.694  13.092   0.123
41645SOL     OW26773  11.670   9.942   5.223
41645SOL    HW126774  11.666   9.851   5.255
41645SOL    HW226775  11.755   9.974   5.253
41646SOL     OW26776   1.304   6.403   1.625
41646SOL    HW126777   1.394   6.371   1.624
41646SOL    HW226778   1.276   6.392   1.716
41647SOL     OW26779  14.389  11.174   2.142
41647SOL    HW126780  14.416  11.099   2.195
41647SOL    HW226781  14.429  11.250   2.184
41648SOL     OW26782   0.579  14.157   8.474
41648SOL    HW126783   0.523  14.226   8.439
41648SOL    HW226784   0.665  14.198   8.484
41649SOL     OW26785   0.231   7.263  10.085
41649SOL    HW126786   0.306   7.215  10.120
41649SOL    HW226787   0.268   7.336  10.037
41650SOL     OW26788   4.750   6.816   0.748
41650SOL    HW126789   4.797   6.857   0.675
41650SOL    HW226790   4.797   6.845   0.826
41651SOL     OW26791   9.964   8.040   5.856
41651SOL    HW126792   9.931   7.951   5.849
41651SOL    HW226793   9.895   8.088   5.902
41652SOL     OW26794   2.579   0.341   6.784
41652SOL    HW126795   2.625   0.425   6.780
41652SOL    HW226796   2.486   0.365   6.790
41653SOL     OW26797  14.237   0.673  14.648
41653SOL    HW126798  14.212   0.583  14.627
41653SOL    HW226799  14.227   0.720  14.565
41654SOL     OW26800   2.900  13.199   6.908
41654SOL    HW126801   2.812  13.215   6.942
41654SOL    HW226802   2.887  13.143   6.832
41655SOL     OW26803   2.832   8.060   7.252
41655SOL    HW126804   2.866   8.018   7.174
41655SOL    HW226805   2.907   8.106   7.289
41656SOL     OW26806  10.551   3.456   4.149
41656SOL    HW126807  10.631   3.405   4.134
41656SOL    HW226808  10.533   3.498   4.066
41657SOL     OW26809   7.875   9.040   1.107
41657SOL    HW126810   7.798   9.083   1.143
41657SOL    HW226811   7.840   8.966   1.056
41658SOL     OW26812   9.533   7.599   3.034
41658SOL    HW126813   9.566   7.517   2.997
41658SOL    HW226814   9.564   7.599   3.125
41659SOL     OW26815   8.551   5.690   2.428
41659SOL    HW126816   8.581   5.617   2.482
41659SOL    HW226817   8.470   5.657   2.387
41660SOL     OW26818   5.401   2.172   1.866
41660SOL    HW126819   5.432   2.083   1.878
41660SOL    HW226820   5.306   2.163   1.855
41661SOL     OW26821   5.880  12.577   2.328
41661SOL    HW126822   5.801  12.573   2.381
41661SOL    HW226823   5.930  12.651   2.364
41662SOL     OW26824  12.333  11.920  11.850
41662SOL    HW126825  12.347  11.828  11.871
41662SOL    HW226826  12.238  11.931  11.854
41663SOL     OW26827  10.002   5.037   6.519
41663SOL    HW126828   9.911   5.061   6.499
41663SOL    HW226829   9.998   4.943   6.538
41664SOL     OW26830   8.669   5.636  13.384
41664SOL    HW126831   8.614   5.699  13.338
41664SOL    HW226832   8.749   5.630  13.331
41665SOL     OW26833   5.594  14.783  12.346
41665SOL    HW126834   5.500  14.766  12.354
41665SOL    HW226835   5.609  14.794  12.252
41666SOL     OW26836   3.402  13.349   2.743
41666SOL    HW126837   3.452  13.425   2.773
41666SOL    HW226838   3.448  13.274   2.780
41667SOL     OW26839  11.055   0.298  13.340
41667SOL    HW126840  11.132   0.259  13.381
41667SOL    HW226841  11.065   0.392  13.353
41668SOL     OW26842  10.143   0.505   7.577
41668SOL    HW126843  10.078   0.570   7.602
41668SOL    HW226844  10.093   0.437   7.531
41669SOL     OW26845   5.149   1.250   8.525
41669SOL    HW126846   5.196   1.173   8.493
41669SOL    HW226847   5.216   1.317   8.537
41670SOL     OW26848   3.098  14.446   5.132
41670SOL    HW126849   3.115  14.392   5.054
41670SOL    HW226850   3.020  14.406   5.172
41671SOL     OW26851   9.149   2.579   1.775
41671SOL    HW126852   9.133   2.671   1.794
41671SOL    HW226853   9.103   2.563   1.692
41672SOL     OW26854   5.688  10.446  14.351
41672SOL    HW126855   5.695  10.352  14.367
41672SOL    HW226856   5.594  10.463  14.344
41673SOL     OW26857  13.615   3.374   3.543
41673SOL    HW126858  13.556   3.446   3.566
41673SOL    HW226859  13.702   3.406   3.567
41674SOL     OW26860   1.809   4.164  10.676
41674SOL    HW126861   1.752   4.134  10.746
41674SOL    HW226862   1.751   4.208  10.614
41675SOL     OW26863   2.977  11.505   3.955
41675SOL    HW126864   2.933  11.500   3.870
41675SOL    HW226865   2.931  11.440   4.009
41676SOL     OW26866   3.372  11.337   3.905
41676SOL    HW126867   3.318  11.259   3.895
41676SOL    HW226868   3.317  11.400   3.951
41677SOL     OW26869   9.543   2.317   5.451
41677SOL    HW126870   9.453   2.349   5.440
41677SOL    HW226871   9.532   2.228   5.485
41678SOL     OW26872   7.777   1.306   6.887
41678SOL    HW126873   7.865   1.333   6.860
41678SOL    HW226874   7.787   1.216   6.917
41679SOL     OW26875  12.897   0.176   6.988
41679SOL    HW126876  12.803   0.171   6.969
41679SOL    HW226877  12.922   0.265   6.964
41680SOL     OW26878  11.994   3.596  12.143
41680SOL    HW126879  12.034   3.561  12.222
41680SOL    HW226880  12.044   3.557  12.071
41681SOL     OW26881   1.268  12.758  14.403
41681SOL    HW126882   1.209  12.684  14.388
41681SOL    HW226883   1.338  12.747  14.338
41682SOL     OW26884  10.876   5.394   1.231
41682SOL    HW126885  10.853   5.424   1.319
41682SOL    HW226886  10.839   5.305   1.225
41683SOL     OW26887   3.431   3.184   0.334
41683SOL    HW126888   3.363   3.237   0.293
41683SOL    HW226889   3.466   3.130   0.262
41684SOL     OW26890   7.877   9.706   7.209
41684SOL    HW126891   7.821   9.773   7.250
41684SOL    HW226892   7.815   9.646   7.167
41685SOL     OW26893   0.989  10.205  14.694
41685SOL    HW126894   1.042  10.226  14.617
41685SOL    HW226895   0.918  10.268  14.693
41686SOL     OW26896  13.950  12.278   2.062
41686SOL    HW126897  13.984  12.317   1.982
41686SOL    HW226898  13.938  12.185   2.040
41687SOL     OW26899   4.441  14.695  13.309
41687SOL    HW126900   4.512  14.711  13.372
41687SOL    HW226901   4.434  14.599  13.306
41688SOL     OW26902  10.499   7.029   0.012
41688SOL    HW126903  10.568   7.042  14.820
41688SOL    HW226904  10.492   6.934   0.021
41689SOL     OW26905   0.095   2.439  14.310
41689SOL    HW126906   0.103   2.491  14.230
41689SOL    HW226907   0.006   2.454  14.340
41690SOL     OW26908   7.279  14.801  11.904
41690SOL    HW126909   7.254  14.777  11.994
41690SOL    HW226910   7.279  14.718  11.857
41691SOL     OW26911   5.117  10.056   0.786
41691SOL    HW126912   5.044  10.110   0.818
41691SOL    HW226913   5.195  10.101   0.817
41692SOL     OW26914   7.507   1.319   6.259
41692SOL    HW126915   7.578   1.259   6.280
41692SOL    HW226916   7.448   1.315   6.335
41693SOL     OW26917   5.943   7.176   2.570
41693SOL    HW126918   6.016   7.152   2.625
41693SOL    HW226919   5.958   7.129   2.488
41694SOL     OW26920   0.455   4.223  14.107
41694SOL    HW126921   0.511   4.244  14.182
41694SOL    HW226922   0.402   4.302  14.095
41695SOL     OW26923  11.901   4.392  12.671
41695SOL    HW126924  11.950   4.325  12.624
41695SOL    HW226925  11.944   4.398  12.756
41696SOL     OW26926  14.146  12.496  14.092
41696SOL    HW126927  14.227  12.444  14.091
41696SOL    HW226928  14.088  12.450  14.032
41697SOL     OW26929   0.826   0.140   5.116
41697SOL    HW126930   0.747   0.129   5.168
41697SOL    HW226931   0.849   0.051   5.087
41698SOL     OW26932   6.586   0.887   4.059
41698SOL    HW126933   6.667   0.839   4.043
41698SOL    HW226934   6.569   0.873   4.153
41699SOL     OW26935  13.989  14.297   5.020
41699SOL    HW126936  14.013  14.226   4.961
41699SOL    HW226937  14.033  14.374   4.985
41700SOL     OW26938  10.125   5.187   7.143
41700SOL    HW126939  10.215   5.198   7.110
41700SOL    HW226940  10.127   5.229   7.229
41701SOL     OW26941   5.411   5.158   0.425
41701SOL    HW126942   5.321   5.133   0.404
41701SOL    HW226943   5.462   5.079   0.409
41702SOL     OW26944   5.417   6.526  11.609
41702SOL    HW126945   5.371   6.610  11.608
41702SOL    HW226946   5.397   6.488  11.694
41703SOL     OW26947   5.935   9.226   7.424
41703SOL    HW126948   5.900   9.221   7.513
41703SOL    HW226949   5.875   9.173   7.372
41704SOL     OW26950   7.796   5.924   9.777
41704SOL    HW126951   7.795   6.010   9.819
41704SOL    HW226952   7.744   5.868   9.835
41705SOL     OW26953   2.021  13.259   1.777
41705SOL    HW126954   1.964  13.320   1.730
41705SOL    HW226955   2.072  13.314   1.836
41706SOL     OW26956   5.635   8.431   4.525
41706SOL    HW126957   5.645   8.409   4.432
41706SOL    HW226958   5.656   8.350   4.571
41707SOL     OW26959  14.098   6.345   0.621
41707SOL    HW126960  14.010   6.309   0.608
41707SOL    HW226961  14.083   6.432   0.657
41708SOL     OW26962  13.550   2.245  12.127
41708SOL    HW126963  13.499   2.326  12.114
41708SOL    HW226964  13.592   2.257  12.212
41709SOL     OW26965   7.350   4.598   0.104
41709SOL    HW126966   7.350   4.661   0.176
41709SOL    HW226967   7.270   4.546   0.118
41710SOL     OW26968   0.152   3.813   5.458
41710SOL    HW126969   0.235   3.768   5.476
41710SOL    HW226970   0.109   3.818   5.543
41711SOL     OW26971   8.730   7.348   6.972
41711SOL    HW126972   8.681   7.422   6.937
41711SOL    HW226973   8.821   7.367   6.949
41712SOL     OW26974   2.780   4.452   1.172
41712SOL    HW126975   2.810   4.543   1.183
41712SOL    HW226976   2.857   4.405   1.142
41713SOL     OW26977  14.570   0.053   6.203
41713SOL    HW126978  14.610   0.021   6.284
41713SOL    HW226979  14.477   0.058   6.223
41714SOL     OW26980   0.216   3.891   0.204
41714SOL    HW126981   0.155   3.902   0.278
41714SOL    HW226982   0.241   3.980   0.180
41715SOL     OW26983   2.870  12.592   4.747
41715SOL    HW126984   2.832  12.538   4.678
41715SOL    HW226985   2.796  12.643   4.781
41716SOL     OW26986   5.853  13.864  11.456
41716SOL    HW126987   5.831  13.893  11.368
41716SOL    HW226988   5.948  13.852  11.454
41717SOL     OW26989   5.137   6.581   3.469
41717SOL    HW126990   5.213   6.637   3.451
41717SOL    HW226991   5.063   6.642   3.468
41718SOL     OW26992   6.307   8.164   5.776
41718SOL    HW126993   6.395   8.199   5.789
41718SOL    HW226994   6.277   8.206   5.695
41719SOL     OW26995  10.899  12.399   9.604
41719SOL    HW126996  10.959  12.430   9.536
41719SOL    HW226997  10.859  12.479   9.639
41720SOL     OW26998   6.782   2.191   7.284
41720SOL    HW126999   6.749   2.121   7.341
41720SOL    HW227000   6.778   2.153   7.196
41721SOL     OW27001   9.849   9.360   9.907
41721SOL    HW127002   9.770   9.338   9.957
41721SOL    HW227003   9.851   9.296   9.836
41722SOL     OW27004  14.592   8.297   0.453
41722SOL    HW127005  14.572   8.379   0.498
41722SOL    HW227006  14.510   8.272   0.410
41723SOL     OW27007   7.284  11.359  14.095
41723SOL    HW127008   7.359  11.365  14.153
41723SOL    HW227009   7.285  11.442  14.047
41724SOL     OW27010   0.618   8.395  10.825
41724SOL    HW127011   0.560   8.340  10.878
41724SOL    HW227012   0.669   8.333  10.774
41725SOL     OW27013   8.239   8.503   0.909
41725SOL    HW127014   8.170   8.515   0.844
41725SOL    HW227015   8.243   8.409   0.923
41726SOL     OW27016   1.210   0.568   0.209
41726SOL    HW127017   1.234   0.552   0.118
41726SOL    HW227018   1.123   0.530   0.218
41727SOL     OW27019   6.052   3.855  13.674
41727SOL    HW127020   6.061   3.950  13.670
41727SOL    HW227021   6.003   3.832  13.595
41728SOL     OW27022   6.674   8.783  12.705
41728SOL    HW127023   6.707   8.859  12.656
41728SOL    HW227024   6.673   8.813  12.796
41729SOL     OW27025  14.628   5.212  14.798
41729SOL    HW127026  14.599   5.297  14.765
41729SOL    HW227027  14.547   5.160  14.806
41730SOL     OW27028   0.512  14.181  13.171
41730SOL    HW127029   0.596  14.154  13.208
41730SOL    HW227030   0.508  14.275  13.187
41731SOL     OW27031   1.639   7.712   8.550
41731SOL    HW127032   1.560   7.694   8.602
41731SOL    HW227033   1.706   7.730   8.616
41732SOL     OW27034   1.651   1.131  12.151
41732SOL    HW127035   1.655   1.205  12.090
41732SOL    HW227036   1.613   1.060  12.099
41733SOL     OW27037   2.987  10.643  13.500
41733SOL    HW127038   3.080  10.627  13.486
41733SOL    HW227039   2.943  10.585  13.438
41734SOL     OW27040  14.451   7.127   1.443
41734SOL    HW127041  14.523   7.185   1.467
41734SOL    HW227042  14.473   7.043   1.485
41735SOL     OW27043   6.723  10.608   1.096
41735SOL    HW127044   6.634  10.588   1.065
41735SOL    HW227045   6.733  10.702   1.080
41736SOL     OW27046   4.236  14.039   0.980
41736SOL    HW127047   4.174  13.994   1.037
41736SOL    HW227048   4.197  14.035   0.893
41737SOL     OW27049   5.192  12.579   8.276
41737SOL    HW127050   5.234  12.609   8.357
41737SOL    HW227051   5.255  12.519   8.237
41738SOL     OW27052   5.843   2.578   9.983
41738SOL    HW127053   5.860   2.623   9.899
41738SOL    HW227054   5.767   2.623  10.019
41739SOL     OW27055   0.549  14.580  10.613
41739SOL    HW127056   0.508  14.657  10.573
41739SOL    HW227057   0.487  14.509  10.597
41740SOL     OW27058  11.907   1.403  11.531
41740SOL    HW127059  11.894   1.320  11.576
41740SOL    HW227060  11.901   1.381  11.438
41741SOL     OW27061   2.469   4.607   9.463
41741SOL    HW127062   2.478   4.663   9.541
41741SOL    HW227063   2.381   4.625   9.431
41742SOL     OW27064   4.918   8.608   6.755
41742SOL    HW127065   4.923   8.513   6.763
41742SOL    HW227066   4.856   8.634   6.823
41743SOL     OW27067   6.125   8.330  10.043
41743SOL    HW127068   6.208   8.290  10.016
41743SOL    HW227069   6.105   8.289  10.127
41744SOL     OW27070  10.538   4.988   7.829
41744SOL    HW127071  10.525   4.906   7.781
41744SOL    HW227072  10.613   5.029   7.786
41745SOL     OW27073   0.131   9.117   5.285
41745SOL    HW127074   0.071   9.123   5.210
41745SOL    HW227075   0.218   9.123   5.246
41746SOL     OW27076   9.339   6.717   7.718
41746SOL    HW127077   9.380   6.718   7.804
41746SOL    HW227078   9.399   6.766   7.662
41747SOL     OW27079   1.217  10.318   0.036
41747SOL    HW127080   1.311  10.318   0.055
41747SOL    HW227081   1.211  10.295  14.816
41748SOL     OW27082   7.360   8.881   7.927
41748SOL    HW127083   7.450   8.854   7.913
41748SOL    HW227084   7.337   8.844   8.013
41749SOL     OW27085   5.949   8.471   4.397
41749SOL    HW127086   6.017   8.409   4.370
41749SOL    HW227087   5.876   8.453   4.338
41750SOL     OW27088  10.503  14.110   0.601
41750SOL    HW127089  10.565  14.061   0.654
41750SOL    HW227090  10.556  14.148   0.530
41751SOL     OW27091   2.876   6.821  14.061
41751SOL    HW127092   2.932   6.813  14.138
41751SOL    HW227093   2.810   6.752  14.073
41752SOL     OW27094   4.581   6.373   3.054
41752SOL    HW127095   4.557   6.283   3.030
41752SOL    HW227096   4.499   6.412   3.084
41753SOL     OW27097   3.479   1.595   8.982
41753SOL    HW127098   3.428   1.659   9.032
41753SOL    HW227099   3.426   1.577   8.904
41754SOL     OW27100   0.445   2.243   9.456
41754SOL    HW127101   0.425   2.335   9.440
41754SOL    HW227102   0.509   2.221   9.389
41755SOL     OW27103   6.246  11.259  12.990
41755SOL    HW127104   6.267  11.277  12.898
41755SOL    HW227105   6.330  11.232  13.029
41756SOL     OW27106   6.990   4.057   2.358
41756SOL    HW127107   7.077   4.073   2.319
41756SOL    HW227108   6.930   4.111   2.307
41757SOL     OW27109   5.786   8.645  12.286
41757SOL    HW127110   5.877   8.675  12.290
41757SOL    HW227111   5.736   8.726  12.273
41758SOL     OW27112   3.991  14.389   9.417
41758SOL    HW127113   3.960  14.299   9.407
41758SOL    HW227114   4.081  14.386   9.385
41759SOL     OW27115  12.322  13.546   3.852
41759SOL    HW127116  12.345  13.574   3.764
41759SOL    HW227117  12.228  13.560   3.858
41760SOL     OW27118  14.374   4.800   6.275
41760SOL    HW127119  14.292   4.824   6.318
41760SOL    HW227120  14.381   4.861   6.201
41761SOL     OW27121   3.757  13.569  10.918
41761SOL    HW127122   3.787  13.657  10.940
41761SOL    HW227123   3.744  13.571  10.823
41762SOL     OW27124   4.677  13.573   1.220
41762SOL    HW127125   4.682  13.656   1.174
41762SOL    HW227126   4.766  13.539   1.220
41763SOL     OW27127  13.178  13.622  12.436
41763SOL    HW127128  13.149  13.611  12.527
41763SOL    HW227129  13.181  13.717  12.423
41764SOL     OW27130  11.381   8.087   4.275
41764SOL    HW127131  11.286   8.086   4.275
41764SOL    HW227132  11.406   8.024   4.207
41765SOL     OW27133  10.559   9.718   0.614
41765SOL    HW127134  10.545   9.661   0.538
41765SOL    HW227135  10.640   9.765   0.593
41766SOL     OW27136  12.754   6.204  14.368
41766SOL    HW127137  12.764   6.120  14.413
41766SOL    HW227138  12.689   6.251  14.419
41767SOL     OW27139  13.612   7.432   9.560
41767SOL    HW127140  13.538   7.485   9.531
41767SOL    HW227141  13.610   7.355   9.503
41768SOL     OW27142   8.657   6.580   2.583
41768SOL    HW127143   8.688   6.616   2.666
41768SOL    HW227144   8.579   6.531   2.606
41769SOL     OW27145   3.487  14.252  10.506
41769SOL    HW127146   3.502  14.186  10.574
41769SOL    HW227147   3.419  14.309  10.542
41770SOL     OW27148  12.723   0.211  11.578
41770SOL    HW127149  12.772   0.170  11.649
41770SOL    HW227150  12.684   0.289  11.618
41771SOL     OW27151   7.685  10.448   6.244
41771SOL    HW127152   7.772  10.422   6.211
41771SOL    HW227153   7.699  10.465   6.337
41772SOL     OW27154  13.984   8.637   9.232
41772SOL    HW127155  14.017   8.574   9.167
41772SOL    HW227156  13.978   8.720   9.185
41773SOL     OW27157  11.680   5.052  11.885
41773SOL    HW127158  11.604   5.008  11.846
41773SOL    HW227159  11.645   5.135  11.918
41774SOL     OW27160   7.109   1.490   4.762
41774SOL    HW127161   7.186   1.545   4.752
41774SOL    HW227162   7.044   1.528   4.704
41775SOL     OW27163   3.489  13.228   6.759
41775SOL    HW127164   3.399  13.227   6.792
41775SOL    HW227165   3.516  13.319   6.763
41776SOL     OW27166   7.951  12.824   4.946
41776SOL    HW127167   8.017  12.893   4.956
41776SOL    HW227168   7.868  12.868   4.961
41777SOL     OW27169  11.382   6.634   8.137
41777SOL    HW127170  11.372   6.687   8.216
41777SOL    HW227171  11.293   6.603   8.118
41778SOL     OW27172   0.166   1.399   1.381
41778SOL    HW127173   0.198   1.470   1.436
41778SOL    HW227174   0.083   1.431   1.346
41779SOL     OW27175   7.390   4.977   7.079
41779SOL    HW127176   7.307   4.942   7.110
41779SOL    HW227177   7.457   4.924   7.123
41780SOL     OW27178   3.267  14.249  10.079
41780SOL    HW127179   3.253  14.178  10.017
41780SOL    HW227180   3.319  14.211  10.149
41781SOL     OW27181   5.197   3.116   5.798
41781SOL    HW127182   5.247   3.160   5.728
41781SOL    HW227183   5.263   3.064   5.845
41782SOL     OW27184   9.184   9.678   0.156
41782SOL    HW127185   9.223   9.620   0.091
41782SOL    HW227186   9.095   9.693   0.125
41783SOL     OW27187   8.598   4.485   2.618
41783SOL    HW127188   8.568   4.560   2.670
41783SOL    HW227189   8.619   4.523   2.532
41784SOL     OW27190   2.461  10.112   1.465
41784SOL    HW127191   2.530  10.179   1.467
41784SOL    HW227192   2.384  10.157   1.430
41785SOL     OW27193   7.726  11.260   6.995
41785SOL    HW127194   7.819  11.245   7.014
41785SOL    HW227195   7.685  11.267   7.081
41786SOL     OW27196   9.417  14.822  11.934
41786SOL    HW127197   9.344  14.844  11.875
41786SOL    HW227198   9.495  14.830  11.880
41787SOL     OW27199   2.138  14.425   3.895
41787SOL    HW127200   2.231  14.449   3.888
41787SOL    HW227201   2.093  14.491   3.843
41788SOL     OW27202  10.750  14.186  14.635
41788SOL    HW127203  10.800  14.128  14.578
41788SOL    HW227204  10.691  14.233  14.576
41789SOL     OW27205   5.577   5.913   1.566
41789SOL    HW127206   5.657   5.920   1.618
41789SOL    HW227207   5.557   6.003   1.540
41790SOL     OW27208  14.487  10.836   3.023
41790SOL    HW127209  14.470  10.746   2.999
41790SOL    HW227210  14.515  10.832   3.115
41791SOL     OW27211  13.966  12.748   0.286
41791SOL    HW127212  13.915  12.684   0.336
41791SOL    HW227213  13.930  12.742   0.197
41792SOL     OW27214   3.396  11.595   9.124
41792SOL    HW127215   3.434  11.545   9.051
41792SOL    HW227216   3.388  11.532   9.195
41793SOL     OW27217   1.248  13.547   0.220
41793SOL    HW127218   1.316  13.605   0.255
41793SOL    HW227219   1.289  13.461   0.218
41794SOL     OW27220   5.749  10.413   6.772
41794SOL    HW127221   5.807  10.377   6.705
41794SOL    HW227222   5.796  10.402   6.854
41795SOL     OW27223   4.189   6.503   9.741
41795SOL    HW127224   4.142   6.575   9.700
41795SOL    HW227225   4.212   6.445   9.669
41796SOL     OW27226   6.575   3.346   7.667
41796SOL    HW127227   6.619   3.353   7.582
41796SOL    HW227228   6.573   3.436   7.700
41797SOL     OW27229  10.560   9.301   8.093
41797SOL    HW127230  10.471   9.268   8.085
41797SOL    HW227231  10.597   9.254   8.168
41798SOL     OW27232   0.250  14.228   8.546
41798SOL    HW127233   0.176  14.170   8.562
41798SOL    HW227234   0.298  14.229   8.629
41799SOL     OW27235  14.069   1.377   8.170
41799SOL    HW127236  14.111   1.370   8.256
41799SOL    HW227237  13.975   1.369   8.188
41800SOL     OW27238   3.429  13.996   4.242
41800SOL    HW127239   3.461  13.907   4.251
41800SOL    HW227240   3.508  14.048   4.223
41801SOL     OW27241  10.025  11.946  12.988
41801SOL    HW127242  10.112  11.906  12.984
41801SOL    HW227243   9.977  11.906  12.915
41802SOL     OW27244   8.146   2.625  12.540
41802SOL    HW127245   8.160   2.545  12.590
41802SOL    HW227246   8.051   2.632  12.531
41803SOL     OW27247   5.079  12.499   2.692
41803SOL    HW127248   5.157  12.471   2.739
41803SOL    HW227249   5.037  12.418   2.664
41804SOL     OW27250   6.307   3.217   1.637
41804SOL    HW127251   6.328   3.154   1.568
41804SOL    HW227252   6.356   3.296   1.613
41805SOL     OW27253   9.503   6.501  12.583
41805SOL    HW127254   9.596   6.505  12.559
41805SOL    HW227255   9.493   6.415  12.624
41806SOL     OW27256  10.121  11.666   7.587
41806SOL    HW127257  10.084  11.688   7.672
41806SOL    HW227258  10.103  11.573   7.576
41807SOL     OW27259   7.688   7.709   1.092
41807SOL    HW127260   7.660   7.791   1.134
41807SOL    HW227261   7.732   7.660   1.162
41808SOL     OW27262   3.675  12.061  14.548
41808SOL    HW127263   3.728  12.141  14.541
41808SOL    HW227264   3.734  11.991  14.522
41809SOL     OW27265   0.093   2.794   3.024
41809SOL    HW127266   0.015   2.791   2.969
41809SOL    HW227267   0.060   2.805   3.113
41810SOL     OW27268   3.369   5.087  14.351
41810SOL    HW127269   3.366   5.102  14.256
41810SOL    HW227270   3.286   5.124  14.382
41811SOL     OW27271   7.192  10.904  11.319
41811SOL    HW127272   7.265  10.930  11.376
41811SOL    HW227273   7.130  10.976  11.326
41812SOL     OW27274   3.622  10.641   2.719
41812SOL    HW127275   3.600  10.549   2.738
41812SOL    HW227276   3.698  10.660   2.773
41813SOL     OW27277   9.329   1.423   3.664
41813SOL    HW127278   9.374   1.349   3.623
41813SOL    HW227279   9.286   1.469   3.592
41814SOL     OW27280   6.162   5.318   3.492
41814SOL    HW127281   6.067   5.327   3.482
41814SOL    HW227282   6.174   5.229   3.524
41815SOL     OW27283  12.475   0.754  12.203
41815SOL    HW127284  12.475   0.729  12.111
41815SOL    HW227285  12.555   0.716  12.239
41816SOL     OW27286  14.702   3.555   6.771
41816SOL    HW127287  14.616   3.526   6.741
41816SOL    HW227288  14.764   3.509   6.714
41817SOL     OW27289   0.096   5.185   5.906
41817SOL    HW127290   0.053   5.187   5.821
41817SOL    HW227291   0.082   5.095   5.938
41818SOL     OW27292  14.670   2.278  11.749
41818SOL    HW127293  14.701   2.364  11.721
41818SOL    HW227294  14.575   2.284  11.744
41819SOL     OW27295  10.720   4.418   3.907
41819SOL    HW127296  10.695   4.333   3.943
41819SOL    HW227297  10.816   4.418   3.912
41820SOL     OW27298   4.727   9.166   9.585
41820SOL    HW127299   4.695   9.234   9.526
41820SOL    HW227300   4.772   9.214   9.655
41821SOL     OW27301  14.862   7.918  13.107
41821SOL    HW127302   0.011   8.011  13.113
41821SOL    HW227303  14.863   7.899  13.013
41822SOL     OW27304   0.748  10.717   9.416
41822SOL    HW127305   0.784  10.709   9.327
41822SOL    HW227306   0.744  10.627   9.448
41823SOL     OW27307  13.124  10.746   4.239
41823SOL    HW127308  13.041  10.792   4.250
41823SOL    HW227309  13.099  10.654   4.228
41824SOL     OW27310   8.280  14.820   1.756
41824SOL    HW127311   8.248  14.834   1.845
41824SOL    HW227312   8.355  14.761   1.767
41825SOL     OW27313   4.356  11.548  13.568
41825SOL    HW127314   4.442  11.579  13.598
41825SOL    HW227315   4.362  11.551  13.472
41826SOL     OW27316  10.515   3.479  10.760
41826SOL    HW127317  10.581   3.444  10.820
41826SOL    HW227318  10.551   3.564  10.732
41827SOL     OW27319  10.862  13.743   5.412
41827SOL    HW127320  10.892  13.678   5.348
41827SOL    HW227321  10.892  13.709   5.496
41828SOL     OW27322  12.534   8.183   6.794
41828SOL    HW127323  12.463   8.247   6.802
41828SOL    HW227324  12.545   8.171   6.699
41829SOL     OW27325  10.136  10.370   0.980
41829SOL    HW127326  10.147  10.452   0.933
41829SOL    HW227327  10.204  10.312   0.944
41830SOL     OW27328   7.726   0.305  10.198
41830SOL    HW127329   7.806   0.356  10.188
41830SOL    HW227330   7.683   0.310  10.113
41831SOL     OW27331   9.559   1.861   2.043
41831SOL    HW127332   9.534   1.935   2.098
41831SOL    HW227333   9.561   1.897   1.954
41832SOL     OW27334   0.994  14.154  11.563
41832SOL    HW127335   0.975  14.170  11.471
41832SOL    HW227336   0.930  14.087  11.589
41833SOL     OW27337   4.760   6.357   8.922
41833SOL    HW127338   4.796   6.321   8.841
41833SOL    HW227339   4.802   6.307   8.992
41834SOL     OW27340   0.591  13.717  11.618
41834SOL    HW127341   0.532  13.793  11.614
41834SOL    HW227342   0.640  13.730  11.699
41835SOL     OW27343   5.614  11.831   9.628
41835SOL    HW127344   5.657  11.764   9.575
41835SOL    HW227345   5.541  11.785   9.670
41836SOL     OW27346   3.165  13.069  12.915
41836SOL    HW127347   3.110  13.090  12.840
41836SOL    HW227348   3.127  12.989  12.952
41837SOL     OW27349   0.183   1.803  13.435
41837SOL    HW127350   0.188   1.882  13.382
41837SOL    HW227351   0.164   1.733  13.373
41838SOL     OW27352   3.021   0.268   8.841
41838SOL    HW127353   2.984   0.331   8.780
41838SOL    HW227354   2.986   0.183   8.813
41839SOL     OW27355   6.816  12.349  11.608
41839SOL    HW127356   6.847  12.439  11.597
41839SOL    HW227357   6.883  12.295  11.565
41840SOL     OW27358   4.713   9.908  10.852
41840SOL    HW127359   4.707   9.816  10.877
41840SOL    HW227360   4.621   9.937  10.847
41841SOL     OW27361   5.514   7.957   8.898
41841SOL    HW127362   5.467   7.923   8.822
41841SOL    HW227363   5.505   8.052   8.892
41842SOL     OW27364   7.664   7.566   7.938
41842SOL    HW127365   7.733   7.615   7.892
41842SOL    HW227366   7.660   7.606   8.025
41843SOL     OW27367  12.843   0.431  10.995
41843SOL    HW127368  12.785   0.499  10.962
41843SOL    HW227369  12.827   0.355  10.938
41844SOL     OW27370   6.438   7.474   6.755
41844SOL    HW127371   6.476   7.538   6.815
41844SOL    HW227372   6.374   7.427   6.808
41845SOL     OW27373  12.864   2.641  13.844
41845SOL    HW127374  12.936   2.704  13.844
41845SOL    HW227375  12.903   2.560  13.812
41846SOL     OW27376   7.948   5.502   0.283
41846SOL    HW127377   7.935   5.596   0.292
41846SOL    HW227378   8.034   5.493   0.242
41847SOL     OW27379   1.253   6.914  10.821
41847SOL    HW127380   1.168   6.923  10.863
41847SOL    HW227381   1.295   6.840  10.866
41848SOL     OW27382  12.701   9.485  13.966
41848SOL    HW127383  12.624   9.484  14.022
41848SOL    HW227384  12.724   9.392  13.955
41849SOL     OW27385  13.553   7.026  13.176
41849SOL    HW127386  13.513   6.950  13.135
41849SOL    HW227387  13.507   7.101  13.138
41850SOL     OW27388   7.085  14.850   2.551
41850SOL    HW127389   7.177  14.867   2.574
41850SOL    HW227390   7.061   0.050   2.494
41851SOL     OW27391   8.046   5.799   9.872
41851SOL    HW127392   7.955   5.809   9.846
41851SOL    HW227393   8.086   5.885   9.855
41852SOL     OW27394   8.819  13.304   4.250
41852SOL    HW127395   8.842  13.211   4.255
41852SOL    HW227396   8.731  13.305   4.213
41853SOL     OW27397   3.064   6.388  12.668
41853SOL    HW127398   3.032   6.302  12.640
41853SOL    HW227399   3.059   6.386  12.763
41854SOL     OW27400   3.025   3.447   7.713
41854SOL    HW127401   3.022   3.408   7.625
41854SOL    HW227402   2.977   3.384   7.768
41855SOL     OW27403  12.460   4.458   7.280
41855SOL    HW127404  12.439   4.541   7.322
41855SOL    HW227405  12.556   4.454   7.282
41856SOL     OW27406   0.262  13.067   9.211
41856SOL    HW127407   0.250  13.096   9.302
41856SOL    HW227408   0.336  13.119   9.179
41857SOL     OW27409   6.713   6.685  12.510
41857SOL    HW127410   6.719   6.696  12.415
41857SOL    HW227411   6.772   6.613  12.530
41858SOL     OW27412  12.914   6.245   7.110
41858SOL    HW127413  12.980   6.180   7.136
41858SOL    HW227414  12.914   6.308   7.182
41859SOL     OW27415   0.448   2.130   5.527
41859SOL    HW127416   0.393   2.162   5.599
41859SOL    HW227417   0.489   2.208   5.491
41860SOL     OW27418   1.612   7.998   9.618
41860SOL    HW127419   1.519   8.018   9.619
41860SOL    HW227420   1.633   7.985   9.526
41861SOL     OW27421  10.542   6.414   5.029
41861SOL    HW127422  10.453   6.447   5.038
41861SOL    HW227423  10.537   6.350   4.957
41862SOL     OW27424   3.828   7.325   9.109
41862SOL    HW127425   3.828   7.250   9.050
41862SOL    HW227426   3.792   7.292   9.191
41863SOL     OW27427   1.859  13.984   1.992
41863SOL    HW127428   1.886  13.921   1.925
41863SOL    HW227429   1.803  13.933   2.052
41864SOL     OW27430  11.029   0.756  14.484
41864SOL    HW127431  11.093   0.727  14.548
41864SOL    HW227432  10.978   0.678  14.463
41865SOL     OW27433   9.152   6.104  14.404
41865SOL    HW127434   9.229   6.150  14.369
41865SOL    HW227435   9.112   6.167  14.464
41866SOL     OW27436   5.884   6.394   5.887
41866SOL    HW127437   5.931   6.312   5.904
41866SOL    HW227438   5.807   6.367   5.838
41867SOL     OW27439   6.713  12.640  11.876
41867SOL    HW127440   6.752  12.726  11.856
41867SOL    HW227441   6.764  12.607  11.949
41868SOL     OW27442   8.443  13.163   2.890
41868SOL    HW127443   8.416  13.093   2.830
41868SOL    HW227444   8.459  13.119   2.973
41869SOL     OW27445  10.371   1.244   8.944
41869SOL    HW127446  10.325   1.325   8.921
41869SOL    HW227447  10.460   1.256   8.911
41870SOL     OW27448   3.461   8.384   4.175
41870SOL    HW127449   3.523   8.360   4.106
41870SOL    HW227450   3.430   8.471   4.150
41871SOL     OW27451  12.132   0.630  14.324
41871SOL    HW127452  12.051   0.679  14.311
41871SOL    HW227453  12.188   0.690  14.374
41872SOL     OW27454   1.588  10.611   2.936
41872SOL    HW127455   1.494  10.599   2.947
41872SOL    HW227456   1.597  10.658   2.853
41873SOL     OW27457   6.510  14.112   2.091
41873SOL    HW127458   6.593  14.100   2.138
41873SOL    HW227459   6.446  14.068   2.147
41874SOL     OW27460   9.771  12.940   4.828
41874SOL    HW127461   9.694  12.885   4.817
41874SOL    HW227462   9.828  12.918   4.754
41875SOL     OW27463  14.251  12.627  14.627
41875SOL    HW127464  14.322  12.672  14.581
41875SOL    HW227465  14.174  12.638  14.571
41876SOL     OW27466   8.161   1.319   8.473
41876SOL    HW127467   8.134   1.305   8.383
41876SOL    HW227468   8.240   1.266   8.484
41877SOL     OW27469   8.021   2.937   3.658
41877SOL    HW127470   8.019   2.947   3.753
41877SOL    HW227471   7.982   3.018   3.625
41878SOL     OW27472  13.913   0.296   3.577
41878SOL    HW127473  13.883   0.387   3.574
41878SOL    HW227474  13.885   0.259   3.493
41879SOL     OW27475  12.437   0.146   6.358
41879SOL    HW127476  12.357   0.094   6.352
41879SOL    HW227477  12.480   0.115   6.437
41880SOL     OW27478  13.884  14.479  10.382
41880SOL    HW127479  13.940  14.402  10.376
41880SOL    HW227480  13.795  14.444  10.372
41881SOL     OW27481   8.332  14.773   1.426
41881SOL    HW127482   8.299  14.851   1.380
41881SOL    HW227483   8.257  14.742   1.476
41882SOL     OW27484  13.310   8.554   2.548
41882SOL    HW127485  13.242   8.488   2.565
41882SOL    HW227486  13.284   8.629   2.602
41883SOL     OW27487   9.329   2.039   1.333
41883SOL    HW127488   9.330   2.085   1.417
41883SOL    HW227489   9.309   1.948   1.356
41884SOL     OW27490   1.090   1.606  13.638
41884SOL    HW127491   1.042   1.525  13.619
41884SOL    HW227492   1.058   1.668  13.573
41885SOL     OW27493  13.825   6.115  14.860
41885SOL    HW127494  13.854   6.112  14.769
41885SOL    HW227495  13.762   6.044  14.868
41886SOL     OW27496   0.336  10.292   7.174
41886SOL    HW127497   0.349  10.199   7.156
41886SOL    HW227498   0.350  10.335   7.089
41887SOL     OW27499   5.035  11.199   6.229
41887SOL    HW127500   4.992  11.278   6.195
41887SOL    HW227501   4.981  11.173   6.304
41888SOL     OW27502  13.839   5.827  13.480
41888SOL    HW127503  13.887   5.757  13.523
41888SOL    HW227504  13.900   5.862  13.415
41889SOL     OW27505   8.611  13.048   2.481
41889SOL    HW127506   8.624  13.102   2.559
41889SOL    HW227507   8.522  13.013   2.489
41890SOL     OW27508   6.937   5.289   0.184
41890SOL    HW127509   6.887   5.262   0.107
41890SOL    HW227510   6.871   5.306   0.251
41891SOL     OW27511  13.518   1.041  13.856
41891SOL    HW127512  13.605   1.024  13.891
41891SOL    HW227513  13.517   1.136  13.841
41892SOL     OW27514  14.003   5.157   2.531
41892SOL    HW127515  13.995   5.157   2.627
41892SOL    HW227516  13.980   5.246   2.505
41893SOL     OW27517   0.966  11.026   7.444
41893SOL    HW127518   0.923  11.011   7.528
41893SOL    HW227519   1.002  11.114   7.450
41894SOL     OW27520   7.039   5.569   5.005
41894SOL    HW127521   7.007   5.540   5.090
41894SOL    HW227522   7.132   5.548   5.006
41895SOL     OW27523  11.782   9.282  11.446
41895SOL    HW127524  11.688   9.302  11.444
41895SOL    HW227525  11.804   9.261  11.356
41896SOL     OW27526   3.243   1.316   8.335
41896SOL    HW127527   3.207   1.322   8.246
41896SOL    HW227528   3.243   1.407   8.366
41897SOL     OW27529  13.321   6.569   4.812
41897SOL    HW127530  13.384   6.603   4.876
41897SOL    HW227531  13.333   6.625   4.735
41898SOL     OW27532   4.591   8.814   0.723
41898SOL    HW127533   4.595   8.852   0.811
41898SOL    HW227534   4.556   8.726   0.737
41899SOL     OW27535   8.620  14.168   1.297
41899SOL    HW127536   8.568  14.235   1.341
41899SOL    HW227537   8.564  14.137   1.225
41900SOL     OW27538   9.471  12.927   1.647
41900SOL    HW127539   9.556  12.956   1.614
41900SOL    HW227540   9.459  12.839   1.610
41901SOL     OW27541  10.652   4.774  10.172
41901SOL    HW127542  10.586   4.770  10.102
41901SOL    HW227543  10.638   4.860  10.213
41902SOL     OW27544  10.080   1.716  11.286
41902SOL    HW127545  10.006   1.727  11.227
41902SOL    HW227546  10.099   1.805  11.319
41903SOL     OW27547   9.484   7.072   6.874
41903SOL    HW127548   9.405   7.121   6.897
41903SOL    HW227549   9.454   6.982   6.863
41904SOL     OW27550   8.266   9.437  10.436
41904SOL    HW127551   8.279   9.387  10.356
41904SOL    HW227552   8.320   9.515  10.424
41905SOL     OW27553   4.356   2.439   1.218
41905SOL    HW127554   4.356   2.426   1.123
41905SOL    HW227555   4.311   2.522   1.231
41906SOL     OW27556   8.857   5.710   6.102
41906SOL    HW127557   8.796   5.766   6.056
41906SOL    HW227558   8.927   5.694   6.039
41907SOL     OW27559   2.721  12.070   9.822
41907SOL    HW127560   2.709  12.110   9.908
41907SOL    HW227561   2.701  12.139   9.760
41908SOL     OW27562   1.356   2.398   5.972
41908SOL    HW127563   1.320   2.365   6.055
41908SOL    HW227564   1.405   2.325   5.936
41909SOL     OW27565   7.290   8.986   5.803
41909SOL    HW127566   7.303   9.034   5.721
41909SOL    HW227567   7.374   8.994   5.849
41910SOL     OW27568  12.913   9.288   5.541
41910SOL    HW127569  12.899   9.315   5.632
41910SOL    HW227570  12.947   9.198   5.548
41911SOL     OW27571   2.339   5.098   1.787
41911SOL    HW127572   2.282   5.134   1.718
41911SOL    HW227573   2.305   5.011   1.804
41912SOL     OW27574  11.610   1.844  14.114
41912SOL    HW127575  11.640   1.915  14.171
41912SOL    HW227576  11.571   1.780  14.174
41913SOL     OW27577   0.599  14.759  10.111
41913SOL    HW127578   0.598  14.739  10.017
41913SOL    HW227579   0.632  14.849  10.115
41914SOL     OW27580   9.382   7.020   1.193
41914SOL    HW127581   9.469   6.994   1.224
41914SOL    HW227582   9.323   6.956   1.233
41915SOL     OW27583   2.149   9.001   8.520
41915SOL    HW127584   2.190   8.918   8.546
41915SOL    HW227585   2.177   9.063   8.587
41916SOL     OW27586   7.868   2.959  11.967
41916SOL    HW127587   7.780   2.967  11.930
41916SOL    HW227588   7.855   2.919  12.053
41917SOL     OW27589  11.257   8.772  12.801
41917SOL    HW127590  11.314   8.762  12.725
41917SOL    HW227591  11.300   8.838  12.855
41918SOL     OW27592   1.168   2.897   5.974
41918SOL    HW127593   1.191   2.964   6.038
41918SOL    HW227594   1.235   2.829   5.985
41919SOL     OW27595  13.639  13.083   7.872
41919SOL    HW127596  13.666  13.118   7.787
41919SOL    HW227597  13.669  13.148   7.935
41920SOL     OW27598   3.487   4.263  12.039
41920SOL    HW127599   3.500   4.197  11.971
41920SOL    HW227600   3.532   4.228  12.116
41921SOL     OW27601   5.398   4.668  10.571
41921SOL    HW127602   5.442   4.597  10.524
41921SOL    HW227603   5.466   4.707  10.625
41922SOL     OW27604   7.873  13.736   7.641
41922SOL    HW127605   7.852  13.765   7.552
41922SOL    HW227606   7.877  13.816   7.693
41923SOL     OW27607   8.575  10.231   3.857
41923SOL    HW127608   8.483  10.224   3.884
41923SOL    HW227609   8.598  10.322   3.875
41924SOL     OW27610   8.238   7.451  12.231
41924SOL    HW127611   8.235   7.446  12.327
41924SOL    HW227612   8.157   7.410  12.202
41925SOL     OW27613   7.988   9.430   4.759
41925SOL    HW127614   8.040   9.508   4.743
41925SOL    HW227615   7.927   9.426   4.685
41926SOL     OW27616  10.797  14.343  11.967
41926SOL    HW127617  10.709  14.380  11.970
41926SOL    HW227618  10.796  14.284  11.892
41927SOL     OW27619   5.154   0.442   5.955
41927SOL    HW127620   5.195   0.509   5.901
41927SOL    HW227621   5.092   0.491   6.010
41928SOL     OW27622   0.679   3.111  13.419
41928SOL    HW127623   0.610   3.045  13.417
41928SOL    HW227624   0.724   3.096  13.503
41929SOL     OW27625   0.075   8.896   2.170
41929SOL    HW127626   0.017   8.972   2.165
41929SOL    HW227627   0.154   8.929   2.213
41930SOL     OW27628   3.086   4.953  13.999
41930SOL    HW127629   3.093   4.860  14.020
41930SOL    HW227630   3.090   4.997  14.084
41931SOL     OW27631   0.769  11.987   2.527
41931SOL    HW127632   0.805  12.032   2.604
41931SOL    HW227633   0.742  11.901   2.560
41932SOL     OW27634   1.505  14.587   1.253
41932SOL    HW127635   1.420  14.611   1.215
41932SOL    HW227636   1.486  14.508   1.305
41933SOL     OW27637   1.202   6.131  10.375
41933SOL    HW127638   1.220   6.038  10.389
41933SOL    HW227639   1.107   6.136  10.367
41934SOL     OW27640   3.170   8.385   0.694
41934SOL    HW127641   3.222   8.375   0.774
41934SOL    HW227642   3.169   8.298   0.655
41935SOL     OW27643  11.965   2.780   3.670
41935SOL    HW127644  11.882   2.733   3.683
41935SOL    HW227645  12.031   2.711   3.673
41936SOL     OW27646  10.979   4.162  12.370
41936SOL    HW127647  11.000   4.177  12.463
41936SOL    HW227648  11.061   4.180  12.324
41937SOL     OW27649  11.132   3.100   0.234
41937SOL    HW127650  11.191   3.152   0.179
41937SOL    HW227651  11.188   3.031   0.270
41938SOL     OW27652   2.275   4.073   8.965
41938SOL    HW127653   2.257   4.160   8.999
41938SOL    HW227654   2.370   4.063   8.972
41939SOL     OW27655  14.249   9.421  10.196
41939SOL    HW127656  14.275   9.510  10.174
41939SOL    HW227657  14.249   9.375  10.112
41940SOL     OW27658  14.600  11.735   1.519
41940SOL    HW127659  14.627  11.651   1.482
41940SOL    HW227660  14.565  11.784   1.444
41941SOL     OW27661   2.651   2.186   2.170
41941SOL    HW127662   2.727   2.158   2.220
41941SOL    HW227663   2.583   2.122   2.193
41942SOL     OW27664  13.472  11.539  14.754
41942SOL    HW127665  13.497  11.524  14.845
41942SOL    HW227666  13.538  11.599  14.720
41943SOL     OW27667   8.672   4.463  10.834
41943SOL    HW127668   8.578   4.478  10.844
41943SOL    HW227669   8.695   4.406  10.907
41944SOL     OW27670   2.722   3.165  13.192
41944SOL    HW127671   2.766   3.135  13.272
41944SOL    HW227672   2.723   3.260  13.198
41945SOL     OW27673  10.206  13.696  13.625
41945SOL    HW127674  10.190  13.703  13.719
41945SOL    HW227675  10.199  13.602  13.606
41946SOL     OW27676   2.415  11.272  12.298
41946SOL    HW127677   2.335  11.317  12.324
41946SOL    HW227678   2.480  11.342  12.290
41947SOL     OW27679   2.874   6.818  10.776
41947SOL    HW127680   2.829   6.773  10.704
41947SOL    HW227681   2.835   6.906  10.777
41948SOL     OW27682   7.494   8.807   8.582
41948SOL    HW127683   7.464   8.740   8.521
41948SOL    HW227684   7.581   8.776   8.610
41949SOL     OW27685   6.683  12.771  10.161
41949SOL    HW127686   6.738  12.699  10.130
41949SOL    HW227687   6.616  12.781  10.093
41950SOL     OW27688  13.148  14.804   8.630
41950SOL    HW127689  13.138  14.789   8.724
41950SOL    HW227690  13.163   0.025   8.622
41951SOL     OW27691  13.043   8.460  10.956
41951SOL    HW127692  12.981   8.494  11.021
41951SOL    HW227693  12.987   8.416  10.891
41952SOL     OW27694  13.470   7.436   5.200
41952SOL    HW127695  13.453   7.419   5.293
41952SOL    HW227696  13.555   7.397   5.183
41953SOL     OW27697   8.317  10.795   9.495
41953SOL    HW127698   8.231  10.754   9.492
41953SOL    HW227699   8.309  10.862   9.563
41954SOL     OW27700  13.485   1.459   5.042
41954SOL    HW127701  13.433   1.395   4.994
41954SOL    HW227702  13.572   1.421   5.047
41955SOL     OW27703  12.416   7.385  12.875
41955SOL    HW127704  12.431   7.297  12.909
41955SOL    HW227705  12.327   7.383  12.840
41956SOL     OW27706   8.420   9.294   7.220
41956SOL    HW127707   8.505   9.251   7.215
41956SOL    HW227708   8.424   9.362   7.153
41957SOL     OW27709  13.913  12.462   9.006
41957SOL    HW127710  13.911  12.556   9.024
41957SOL    HW227711  13.968  12.426   9.075
41958SOL     OW27712   9.866   1.489   9.023
41958SOL    HW127713   9.946   1.542   9.029
41958SOL    HW227714   9.863   1.441   9.106
41959SOL     OW27715   5.787  13.979  12.066
41959SOL    HW127716   5.747  14.024  12.141
41959SOL    HW227717   5.841  14.046  12.024
41960SOL     OW27718   3.526   9.902  10.243
41960SOL    HW127719   3.522   9.981  10.189
41960SOL    HW227720   3.514   9.830  10.181
41961SOL     OW27721   3.629   1.216  10.124
41961SOL    HW127722   3.558   1.264  10.165
41961SOL    HW227723   3.704   1.228  10.182
41962SOL     OW27724  10.659   6.116   6.622
41962SOL    HW127725  10.631   6.097   6.532
41962SOL    HW227726  10.753   6.099   6.623
41963SOL     OW27727  12.103  13.255   4.332
41963SOL    HW127728  12.077  13.175   4.286
41963SOL    HW227729  12.020  13.298   4.355
41964SOL     OW27730   6.936   1.758  12.396
41964SOL    HW127731   6.993   1.833  12.382
41964SOL    HW227732   6.953   1.732  12.487
41965SOL     OW27733   1.386  13.087   7.029
41965SOL    HW127734   1.424  12.999   7.025
41965SOL    HW227735   1.317  13.080   7.095
41966SOL     OW27736  14.688   4.434  10.469
41966SOL    HW127737  14.758   4.374  10.445
41966SOL    HW227738  14.732   4.504  10.517
41967SOL     OW27739  14.419   6.538   3.692
41967SOL    HW127740  14.491   6.496   3.739
41967SOL    HW227741  14.345   6.478   3.703
41968SOL     OW27742   0.377  10.654   1.651
41968SOL    HW127743   0.323  10.593   1.701
41968SOL    HW227744   0.339  10.740   1.670
41969SOL     OW27745   0.615  12.964  13.952
41969SOL    HW127746   0.637  12.872  13.962
41969SOL    HW227747   0.526  12.972  13.986
41970SOL     OW27748   9.068  10.230  14.799
41970SOL    HW127749   9.134  10.290  14.833
41970SOL    HW227750   9.000  10.228  14.867
41971SOL     OW27751   2.251  12.446   6.764
41971SOL    HW127752   2.159  12.449   6.790
41971SOL    HW227753   2.271  12.352   6.759
41972SOL     OW27754  11.220  13.178   6.885
41972SOL    HW127755  11.144  13.121   6.898
41972SOL    HW227756  11.184  13.258   6.846
41973SOL     OW27757   1.510  13.578   9.217
41973SOL    HW127758   1.582  13.599   9.277
41973SOL    HW227759   1.546  13.594   9.130
41974SOL     OW27760   4.092   9.753   9.125
41974SOL    HW127761   4.115   9.822   9.188
41974SOL    HW227762   4.123   9.672   9.166
41975SOL     OW27763   9.780   5.223   0.268
41975SOL    HW127764   9.759   5.231   0.175
41975SOL    HW227765   9.702   5.254   0.313
41976SOL     OW27766   4.177  11.680   1.290
41976SOL    HW127767   4.153  11.732   1.213
41976SOL    HW227768   4.271  11.666   1.281
41977SOL     OW27769   4.713   5.092  12.634
41977SOL    HW127770   4.619   5.080  12.648
41977SOL    HW227771   4.721   5.110  12.540
41978SOL     OW27772   2.906  13.114   2.371
41978SOL    HW127773   2.837  13.049   2.385
41978SOL    HW227774   2.927  13.146   2.459
41979SOL     OW27775   6.239   1.237   8.157
41979SOL    HW127776   6.246   1.299   8.229
41979SOL    HW227777   6.292   1.276   8.087
41980SOL     OW27778  12.802   2.895   3.441
41980SOL    HW127779  12.837   2.834   3.505
41980SOL    HW227780  12.872   2.959   3.428
41981SOL     OW27781   0.354   7.422   0.461
41981SOL    HW127782   0.278   7.406   0.407
41981SOL    HW227783   0.391   7.504   0.427
41982SOL     OW27784  10.820   3.951   1.487
41982SOL    HW127785  10.828   4.003   1.567
41982SOL    HW227786  10.754   3.997   1.435
41983SOL     OW27787   1.095  10.954  11.051
41983SOL    HW127788   1.008  10.913  11.058
41983SOL    HW227789   1.106  10.971  10.957
41984SOL     OW27790   7.585   0.234   0.294
41984SOL    HW127791   7.658   0.222   0.233
41984SOL    HW227792   7.532   0.155   0.285
41985SOL     OW27793   3.478   9.921   0.716
41985SOL    HW127794   3.522   9.844   0.681
41985SOL    HW227795   3.400   9.932   0.661
41986SOL     OW27796   2.691   1.779  10.680
41986SOL    HW127797   2.737   1.713  10.731
41986SOL    HW227798   2.739   1.860  10.697
41987SOL     OW27799   1.038  11.111  14.077
41987SOL    HW127800   1.103  11.059  14.031
41987SOL    HW227801   0.969  11.126  14.012
41988SOL     OW27802  13.300   5.812  13.599
41988SOL    HW127803  13.306   5.763  13.682
41988SOL    HW227804  13.315   5.903  13.624
41989SOL     OW27805  12.778   8.626   0.044
41989SOL    HW127806  12.688   8.659   0.038
41989SOL    HW227807  12.776   8.564   0.116
41990SOL     OW27808  12.905  14.687  12.782
41990SOL    HW127809  12.818  14.647  12.792
41990SOL    HW227810  12.927  14.717  12.870
41991SOL     OW27811   5.054   8.290   1.622
41991SOL    HW127812   5.106   8.269   1.544
41991SOL    HW227813   5.116   8.287   1.694
41992SOL     OW27814  12.692   4.844   1.924
41992SOL    HW127815  12.671   4.937   1.934
41992SOL    HW227816  12.643   4.816   1.847
41993SOL     OW27817   4.507  12.520   0.012
41993SOL    HW127818   4.584  12.545   0.062
41993SOL    HW227819   4.528  12.544  14.795
41994SOL     OW27820   0.100   5.037   1.438
41994SOL    HW127821   0.109   5.107   1.374
41994SOL    HW227822   0.019   5.057   1.485
41995SOL     OW27823  13.413  13.096  14.857
41995SOL    HW127824  13.467  13.123   0.059
41995SOL    HW227825  13.469  13.111  14.781
41996SOL     OW27826  12.751   3.679  11.241
41996SOL    HW127827  12.683   3.680  11.309
41996SOL    HW227828  12.803   3.601  11.260
41997SOL     OW27829   7.974   5.143   4.300
41997SOL    HW127830   7.926   5.190   4.232
41997SOL    HW227831   8.063   5.180   4.298
41998SOL     OW27832   1.998   0.776   7.036
41998SOL    HW127833   1.934   0.817   7.093
41998SOL    HW227834   2.033   0.848   6.983
41999SOL     OW27835   3.386   8.601   4.604
41999SOL    HW127836   3.304   8.551   4.606
41999SOL    HW227837   3.373   8.666   4.534
42000SOL     OW27838  11.805  14.040   7.157
42000SOL    HW127839  11.843  13.958   7.125
42000SOL    HW227840  11.737  14.061   7.092
42001SOL     OW27841   3.398   5.161   8.539
42001SOL    HW127842   3.428   5.128   8.624
42001SOL    HW227843   3.420   5.254   8.540
42002SOL     OW27844   6.378   5.696   2.790
42002SOL    HW127845   6.391   5.621   2.732
42002SOL    HW227846   6.395   5.773   2.735
42003SOL     OW27847   6.266  12.635   0.514
42003SOL    HW127848   6.316  12.559   0.484
42003SOL    HW227849   6.214  12.602   0.587
42004SOL     OW27850   7.755   7.062   8.023
42004SOL    HW127851   7.762   6.978   8.070
42004SOL    HW227852   7.690   7.045   7.954
42005SOL     OW27853   4.074  13.400  11.090
42005SOL    HW127854   4.012  13.327  11.090
42005SOL    HW227855   4.137  13.378  11.021
42006SOL     OW27856  13.406  10.730  11.688
42006SOL    HW127857  13.496  10.720  11.720
42006SOL    HW227858  13.376  10.640  11.672
42007SOL     OW27859  10.417   2.468   2.541
42007SOL    HW127860  10.341   2.506   2.497
42007SOL    HW227861  10.473   2.542   2.561
42008SOL     OW27862   6.402  10.487   9.587
42008SOL    HW127863   6.402  10.410   9.643
42008SOL    HW227864   6.464  10.466   9.517
42009SOL     OW27865   4.258  12.978   7.290
42009SOL    HW127866   4.302  12.944   7.213
42009SOL    HW227867   4.324  13.030   7.335
42010SOL     OW27868   9.064   0.965  14.119
42010SOL    HW127869   9.015   1.043  14.092
42010SOL    HW227870   9.110   0.937  14.040
42011SOL     OW27871   8.183   8.127   3.120
42011SOL    HW127872   8.229   8.138   3.204
42011SOL    HW227873   8.121   8.055   3.136
42012SOL     OW27874   6.915  12.417   7.979
42012SOL    HW127875   6.967  12.367   8.042
42012SOL    HW227876   6.951  12.392   7.894
42013SOL     OW27877   9.651   5.952   9.525
42013SOL    HW127878   9.608   6.026   9.483
42013SOL    HW227879   9.732   5.940   9.475
42014SOL     OW27880  14.634   9.088   4.784
42014SOL    HW127881  14.585   9.093   4.867
42014SOL    HW227882  14.658   8.996   4.776
42015SOL     OW27883  10.727   5.843  13.243
42015SOL    HW127884  10.703   5.830  13.335
42015SOL    HW227885  10.708   5.760  13.201
42016SOL     OW27886   8.705   0.438   1.921
42016SOL    HW127887   8.674   0.349   1.938
42016SOL    HW227888   8.694   0.483   2.004
42017SOL     OW27889  11.546  13.811   4.372
42017SOL    HW127890  11.574  13.870   4.302
42017SOL    HW227891  11.485  13.751   4.329
42018SOL     OW27892   0.429  12.639   5.829
42018SOL    HW127893   0.395  12.553   5.853
42018SOL    HW227894   0.505  12.652   5.885
42019SOL     OW27895   4.541   0.295   5.761
42019SOL    HW127896   4.558   0.217   5.709
42019SOL    HW227897   4.621   0.347   5.754
42020SOL     OW27898  13.998   5.175   6.425
42020SOL    HW127899  13.921   5.197   6.477
42020SOL    HW227900  13.966   5.169   6.335
42021SOL     OW27901   2.266  13.214   6.900
42021SOL    HW127902   2.248  13.139   6.844
42021SOL    HW227903   2.305  13.279   6.842
42022SOL     OW27904  12.445   9.682   2.395
42022SOL    HW127905  12.369   9.696   2.450
42022SOL    HW227906  12.415   9.621   2.327
42023SOL     OW27907   3.351   2.249  14.075
42023SOL    HW127908   3.409   2.297  14.016
42023SOL    HW227909   3.407   2.180  14.112
42024SOL     OW27910   0.230  14.571   6.925
42024SOL    HW127911   0.237  14.667   6.928
42024SOL    HW227912   0.168  14.550   6.995
42025SOL     OW27913  10.175   7.833   5.541
42025SOL    HW127914  10.258   7.807   5.581
42025SOL    HW227915  10.116   7.760   5.559
42026SOL     OW27916  11.411  14.603   2.061
42026SOL    HW127917  11.420  14.519   2.015
42026SOL    HW227918  11.452  14.589   2.146
42027SOL     OW27919  10.739  13.116  12.109
42027SOL    HW127920  10.775  13.150  12.191
42027SOL    HW227921  10.804  13.139  12.043
42028SOL     OW27922  13.207   1.464   5.852
42028SOL    HW127923  13.268   1.408   5.804
42028SOL    HW227924  13.153   1.505   5.785
42029SOL     OW27925  12.212   0.877   4.906
42029SOL    HW127926  12.184   0.852   4.994
42029SOL    HW227927  12.194   0.800   4.852
42030SOL     OW27928  10.169   0.833   0.932
42030SOL    HW127929  10.222   0.899   0.886
42030SOL    HW227930  10.082   0.841   0.893
42031SOL     OW27931   9.599   3.067   8.932
42031SOL    HW127932   9.544   3.119   8.874
42031SOL    HW227933   9.688   3.096   8.913
42032SOL     OW27934   1.716   9.535   5.645
42032SOL    HW127935   1.676   9.541   5.558
42032SOL    HW227936   1.748   9.444   5.650
42033SOL     OW27937   2.610   3.565   2.193
42033SOL    HW127938   2.594   3.651   2.234
42033SOL    HW227939   2.696   3.539   2.224
42034SOL     OW27940   3.791   4.644   3.038
42034SOL    HW127941   3.712   4.675   2.993
42034SOL    HW227942   3.757   4.596   3.114
42035SOL     OW27943  10.503  11.603  13.765
42035SOL    HW127944  10.532  11.600  13.856
42035SOL    HW227945  10.551  11.676  13.726
42036SOL     OW27946  12.894  10.164   5.724
42036SOL    HW127947  12.869  10.123   5.807
42036SOL    HW227948  12.858  10.252   5.729
42037SOL     OW27949   1.725   4.828  13.710
42037SOL    HW127950   1.762   4.739  13.708
42037SOL    HW227951   1.630   4.814  13.702
42038SOL     OW27952   3.156  12.491   4.861
42038SOL    HW127953   3.136  12.448   4.944
42038SOL    HW227954   3.083  12.552   4.848
42039SOL     OW27955   3.999  13.835   5.869
42039SOL    HW127956   4.034  13.812   5.783
42039SOL    HW227957   4.076  13.845   5.925
42040SOL     OW27958   6.137   9.089   0.731
42040SOL    HW127959   6.074   9.089   0.803
42040SOL    HW227960   6.222   9.085   0.773
42041SOL     OW27961  11.622   7.730   3.492
42041SOL    HW127962  11.716   7.731   3.510
42041SOL    HW227963  11.595   7.821   3.498
42042SOL     OW27964   0.848   0.176   8.845
42042SOL    HW127965   0.827   0.090   8.808
42042SOL    HW227966   0.780   0.234   8.810
42043SOL     OW27967   6.315   1.727  12.021
42043SOL    HW127968   6.376   1.797  11.996
42043SOL    HW227969   6.232   1.753  11.982
42044SOL     OW27970   7.076   3.551   7.935
42044SOL    HW127971   7.122   3.526   7.855
42044SOL    HW227972   7.140   3.536   8.005
42045SOL     OW27973  13.705   6.260  13.905
42045SOL    HW127974  13.724   6.226  13.818
42045SOL    HW227975  13.789   6.289  13.939
42046SOL     OW27976   0.811   8.043   3.401
42046SOL    HW127977   0.771   8.046   3.488
42046SOL    HW227978   0.757   7.982   3.351
42047SOL     OW27979   0.753   8.190   4.027
42047SOL    HW127980   0.709   8.132   4.089
42047SOL    HW227981   0.686   8.253   4.001
42048SOL     OW27982   1.182   4.895   3.893
42048SOL    HW127983   1.124   4.919   3.966
42048SOL    HW227984   1.223   4.813   3.922
42049SOL     OW27985   1.155  13.414   2.278
42049SOL    HW127986   1.155  13.369   2.193
42049SOL    HW227987   1.173  13.345   2.342
42050SOL     OW27988   5.245  11.004   6.829
42050SOL    HW127989   5.304  10.950   6.776
42050SOL    HW227990   5.160  10.998   6.785
42051SOL     OW27991   6.846  14.037   5.837
42051SOL    HW127992   6.880  14.113   5.883
42051SOL    HW227993   6.924  13.986   5.814
42052SOL     OW27994  14.322   9.375   1.130
42052SOL    HW127995  14.406   9.377   1.177
42052SOL    HW227996  14.258   9.403   1.195
42053SOL     OW27997  12.266  14.135   4.834
42053SOL    HW127998  12.294  14.133   4.742
42053SOL    HW227999  12.341  14.101   4.882
42054SOL     OW28000   3.956   5.634  12.005
42054SOL    HW128001   4.048   5.657  12.018
42054SOL    HW228002   3.919   5.711  11.961
42055SOL     OW28003   2.339   3.541   5.061
42055SOL    HW128004   2.433   3.524   5.051
42055SOL    HW228005   2.333   3.613   5.123
42056SOL     OW28006   3.466   4.415   5.501
42056SOL    HW128007   3.535   4.447   5.443
42056SOL    HW228008   3.504   4.421   5.589
42057SOL     OW28009  14.122  13.315  10.009
42057SOL    HW128010  14.165  13.355   9.933
42057SOL    HW228011  14.044  13.272   9.973
42058SOL     OW28012  13.690   4.360   5.544
42058SOL    HW128013  13.627   4.296   5.511
42058SOL    HW228014  13.677   4.438   5.490
42059SOL     OW28015   8.835   7.340  14.337
42059SOL    HW128016   8.883   7.420  14.317
42059SOL    HW228017   8.763   7.339  14.274
42060SOL     OW28018   2.742   5.703  12.065
42060SOL    HW128019   2.829   5.739  12.047
42060SOL    HW228020   2.697   5.705  11.980
42061SOL     OW28021   1.498   2.029   6.893
42061SOL    HW128022   1.413   1.994   6.920
42061SOL    HW228023   1.504   2.114   6.937
42062SOL     OW28024   9.246  14.565  12.918
42062SOL    HW128025   9.162  14.604  12.942
42062SOL    HW228026   9.238  14.472  12.941
42063SOL     OW28027   1.249  11.928   3.480
42063SOL    HW128028   1.269  11.953   3.390
42063SOL    HW228029   1.306  11.983   3.534
42064SOL     OW28030   9.727   5.114   6.511
42064SOL    HW128031   9.711   5.142   6.421
42064SOL    HW228032   9.644   5.134   6.556
42065SOL     OW28033  11.578   4.452   7.653
42065SOL    HW128034  11.533   4.508   7.717
42065SOL    HW228035  11.531   4.469   7.570
42066SOL     OW28036  13.247   4.471  10.124
42066SOL    HW128037  13.300   4.496  10.200
42066SOL    HW228038  13.298   4.503  10.049
42067SOL     OW28039   4.422   0.840   7.493
42067SOL    HW128040   4.339   0.794   7.501
42067SOL    HW228041   4.437   0.880   7.578
42068SOL     OW28042  11.281  11.318   8.269
42068SOL    HW128043  11.204  11.310   8.214
42068SOL    HW228044  11.286  11.411   8.290
42069SOL     OW28045   3.874   8.106  14.667
42069SOL    HW128046   3.952   8.143  14.708
42069SOL    HW228047   3.854   8.166  14.595
42070SOL     OW28048   1.332  14.573   4.529
42070SOL    HW128049   1.326  14.600   4.437
42070SOL    HW228050   1.248  14.599   4.567
42071SOL     OW28051   1.355   8.109   2.097
42071SOL    HW128052   1.294   8.089   2.027
42071SOL    HW228053   1.408   8.030   2.107
42072SOL     OW28054   6.343   8.954   4.897
42072SOL    HW128055   6.250   8.977   4.892
42072SOL    HW228056   6.388   9.028   4.855
42073SOL     OW28057  12.699   0.571   8.593
42073SOL    HW128058  12.721   0.582   8.501
42073SOL    HW228059  12.605   0.556   8.595
42074SOL     OW28060   0.411   7.492  14.085
42074SOL    HW128061   0.502   7.467  14.097
42074SOL    HW228062   0.406   7.524  13.995
42075SOL     OW28063   0.439   6.368  10.861
42075SOL    HW128064   0.524   6.386  10.821
42075SOL    HW228065   0.396   6.453  10.866
42076SOL     OW28066   4.071   2.886   7.152
42076SOL    HW128067   4.079   2.879   7.247
42076SOL    HW228068   4.004   2.953   7.139
42077SOL     OW28069   7.694   0.670   3.524
42077SOL    HW128070   7.625   0.648   3.462
42077SOL    HW228071   7.737   0.746   3.486
42078SOL     OW28072   8.447  11.437  14.199
42078SOL    HW128073   8.489  11.353  14.181
42078SOL    HW228074   8.512  11.502  14.173
42079SOL     OW28075   0.872  12.511   0.904
42079SOL    HW128076   0.807  12.558   0.955
42079SOL    HW228077   0.821  12.467   0.836
42080SOL     OW28078  10.982   4.093  12.033
42080SOL    HW128079  11.037   4.049  12.097
42080SOL    HW228080  10.899   4.046  12.036
42081SOL     OW28081   1.603   5.934   3.021
42081SOL    HW128082   1.694   5.959   3.004
42081SOL    HW228083   1.565   5.921   2.934
42082SOL     OW28084   3.992   0.500   6.660
42082SOL    HW128085   3.978   0.592   6.680
42082SOL    HW228086   4.060   0.499   6.592
42083SOL     OW28087  11.717   9.308  12.800
42083SOL    HW128088  11.660   9.233  12.818
42083SOL    HW228089  11.685   9.377  12.858
42084SOL     OW28090   4.542   4.808   8.049
42084SOL    HW128091   4.491   4.735   8.084
42084SOL    HW228092   4.614   4.819   8.111
42085SOL     OW28093  10.329   2.134   0.289
42085SOL    HW128094  10.413   2.102   0.257
42085SOL    HW228095  10.264   2.078   0.247
42086SOL     OW28096  12.874   9.672  11.241
42086SOL    HW128097  12.919   9.591  11.216
42086SOL    HW228098  12.806   9.643  11.302
42087SOL     OW28099   5.002   0.138   7.651
42087SOL    HW128100   4.978   0.146   7.559
42087SOL    HW228101   5.090   0.174   7.657
42088SOL     OW28102   5.970   6.363   7.123
42088SOL    HW128103   6.022   6.302   7.177
42088SOL    HW228104   6.000   6.346   7.034
42089SOL     OW28105   2.975  11.812   9.323
42089SOL    HW128106   2.888  11.837   9.352
42089SOL    HW228107   2.993  11.868   9.247
42090SOL     OW28108   4.017   8.062   3.856
42090SOL    HW128109   3.995   7.977   3.817
42090SOL    HW228110   4.064   8.109   3.786
42091SOL     OW28111   2.034   3.146  12.633
42091SOL    HW128112   2.053   3.060  12.669
42091SOL    HW228113   2.100   3.160  12.565
42092SOL     OW28114   1.363   2.961   2.477
42092SOL    HW128115   1.403   2.930   2.396
42092SOL    HW228116   1.289   2.902   2.491
42093SOL     OW28117  10.589  12.223   8.005
42093SOL    HW128118  10.548  12.300   8.046
42093SOL    HW228119  10.661  12.201   8.064
42094SOL     OW28120   5.634   5.524   7.611
42094SOL    HW128121   5.727   5.545   7.617
42094SOL    HW228122   5.604   5.517   7.701
42095SOL     OW28123  14.411   1.219  12.568
42095SOL    HW128124  14.397   1.279  12.641
42095SOL    HW228125  14.506   1.208  12.563
42096SOL     OW28126   7.965   7.727   0.118
42096SOL    HW128127   8.009   7.650   0.154
42096SOL    HW228128   7.925   7.696   0.037
42097SOL     OW28129   4.180   4.260  12.375
42097SOL    HW128130   4.103   4.219  12.336
42097SOL    HW228131   4.149   4.345  12.406
42098SOL     OW28132  10.711   0.458  12.016
42098SOL    HW128133  10.766   0.435  12.091
42098SOL    HW228134  10.673   0.542  12.039
42099SOL     OW28135   1.563  12.139   3.135
42099SOL    HW128136   1.535  12.093   3.215
42099SOL    HW228137   1.589  12.226   3.165
42100SOL     OW28138   8.820   7.662   7.539
42100SOL    HW128139   8.818   7.628   7.629
42100SOL    HW228140   8.912   7.652   7.512
42101SOL     OW28141   6.496  12.279   3.118
42101SOL    HW128142   6.508  12.184   3.117
42101SOL    HW228143   6.459  12.298   3.204
42102SOL     OW28144  13.756  14.542  14.560
42102SOL    HW128145  13.715  14.482  14.498
42102SOL    HW228146  13.806  14.485  14.619
42103SOL     OW28147   6.720   5.424  11.529
42103SOL    HW128148   6.703   5.340  11.487
42103SOL    HW228149   6.643   5.440  11.584
42104SOL     OW28150   8.668   3.377   8.590
42104SOL    HW128151   8.588   3.363   8.641
42104SOL    HW228152   8.674   3.471   8.580
42105SOL     OW28153   0.898   4.719   3.176
42105SOL    HW128154   0.930   4.710   3.266
42105SOL    HW228155   0.857   4.634   3.157
42106SOL     OW28156  10.035   8.341  13.188
42106SOL    HW128157   9.985   8.421  13.206
42106SOL    HW228158  10.040   8.338  13.092
42107SOL     OW28159  14.588   5.933   4.212
42107SOL    HW128160  14.633   5.878   4.276
42107SOL    HW228161  14.658   5.973   4.161
42108SOL     OW28162   8.411   1.623  14.387
42108SOL    HW128163   8.393   1.660  14.300
42108SOL    HW228164   8.506   1.617  14.391
42109SOL     OW28165   6.759   8.829   2.466
42109SOL    HW128166   6.838   8.780   2.444
42109SOL    HW228167   6.719   8.778   2.537
42110SOL     OW28168   4.029   5.403  11.511
42110SOL    HW128169   3.978   5.376  11.435
42110SOL    HW228170   4.099   5.338  11.517
42111SOL     OW28171   6.579   9.984   7.040
42111SOL    HW128172   6.505   9.937   7.001
42111SOL    HW228173   6.551  10.003   7.130
42112SOL     OW28174  13.998   1.215   7.866
42112SOL    HW128175  14.061   1.263   7.811
42112SOL    HW228176  13.933   1.280   7.890
42113SOL     OW28177  14.779   1.698  11.165
42113SOL    HW128178  14.797   1.725  11.256
42113SOL    HW228179  14.808   1.773  11.112
42114SOL     OW28180   9.460   3.102   6.236
42114SOL    HW128181   9.492   3.180   6.191
42114SOL    HW228182   9.478   3.119   6.329
42115SOL     OW28183   1.909   5.222   5.905
42115SOL    HW128184   1.821   5.221   5.943
42115SOL    HW228185   1.967   5.198   5.977
42116SOL     OW28186  11.283  10.012   7.971
42116SOL    HW128187  11.321  10.051   7.892
42116SOL    HW228188  11.190  10.006   7.954
42117SOL     OW28189  10.679   8.613  11.485
42117SOL    HW128190  10.703   8.670  11.558
42117SOL    HW228191  10.758   8.609  11.431
42118SOL     OW28192   6.715  12.540  12.951
42118SOL    HW128193   6.805  12.543  12.919
42118SOL    HW228194   6.703  12.623  12.996
42119SOL     OW28195  10.873  10.744   9.414
42119SOL    HW128196  10.925  10.672   9.448
42119SOL    HW228197  10.881  10.737   9.319
42120SOL     OW28198  11.075   9.376   1.222
42120SOL    HW128199  11.166   9.384   1.193
42120SOL    HW228200  11.064   9.284   1.243
42121SOL     OW28201   1.242  14.275   5.305
42121SOL    HW128202   1.267  14.366   5.323
42121SOL    HW228203   1.240  14.269   5.210
42122SOL     OW28204   7.133   1.300   8.097
42122SOL    HW128205   7.142   1.323   8.189
42122SOL    HW228206   7.038   1.303   8.080
42123SOL     OW28207   8.162   1.817   3.233
42123SOL    HW128208   8.095   1.835   3.298
42123SOL    HW228209   8.142   1.729   3.201
42124SOL     OW28210   8.172   5.197   0.891
42124SOL    HW128211   8.172   5.165   0.981
42124SOL    HW228212   8.252   5.162   0.853
42125SOL     OW28213  13.294  10.985   5.618
42125SOL    HW128214  13.288  10.901   5.663
42125SOL    HW228215  13.314  10.963   5.527
42126SOL     OW28216   2.083   4.696   5.861
42126SOL    HW128217   2.095   4.751   5.939
42126SOL    HW228218   1.993   4.664   5.867
42127SOL     OW28219  13.758   4.798   9.378
42127SOL    HW128220  13.839   4.747   9.369
42127SOL    HW228221  13.779   4.866   9.442
42128SOL     OW28222   6.840   4.808   9.856
42128SOL    HW128223   6.858   4.882   9.915
42128SOL    HW228224   6.750   4.783   9.876
42129SOL     OW28225   2.135  11.200   8.403
42129SOL    HW128226   2.151  11.159   8.488
42129SOL    HW228227   2.194  11.156   8.343
42130SOL     OW28228   6.131   0.360   4.707
42130SOL    HW128229   6.113   0.269   4.685
42130SOL    HW228230   6.104   0.369   4.798
42131SOL     OW28231   5.706   9.914  12.547
42131SOL    HW128232   5.679   9.916  12.455
42131SOL    HW228233   5.751   9.830  12.557
42132SOL     OW28234   7.928  13.658  11.953
42132SOL    HW128235   7.837  13.683  11.933
42132SOL    HW228236   7.926  13.563  11.959
42133SOL     OW28237  14.191   5.273   8.869
42133SOL    HW128238  14.130   5.329   8.821
42133SOL    HW228239  14.200   5.315   8.954
42134SOL     OW28240   3.131   5.525  13.369
42134SOL    HW128241   3.209   5.528  13.424
42134SOL    HW228242   3.124   5.433  13.343
42135SOL     OW28243   0.825   8.307   6.553
42135SOL    HW128244   0.805   8.345   6.468
42135SOL    HW228245   0.739   8.294   6.594
42136SOL     OW28246   8.476   6.459   1.797
42136SOL    HW128247   8.405   6.523   1.806
42136SOL    HW228248   8.556   6.508   1.815
42137SOL     OW28249   9.005   7.224   6.922
42137SOL    HW128250   9.037   7.263   6.841
42137SOL    HW228251   8.973   7.137   6.896
42138SOL     OW28252   8.845  12.478   0.959
42138SOL    HW128253   8.853  12.426   0.879
42138SOL    HW228254   8.913  12.545   0.950
42139SOL     OW28255  13.209   4.222  10.897
42139SOL    HW128256  13.136   4.276  10.927
42139SOL    HW228257  13.208   4.233  10.801
42140SOL     OW28258   9.670  10.135  13.856
42140SOL    HW128259   9.591  10.158  13.905
42140SOL    HW228260   9.740  10.135  13.922
42141SOL     OW28261   3.638   5.888  14.656
42141SOL    HW128262   3.637   5.843  14.571
42141SOL    HW228263   3.587   5.968  14.641
42142SOL     OW28264   4.227   0.144   8.211
42142SOL    HW128265   4.208   0.083   8.283
42142SOL    HW228266   4.228   0.089   8.133
42143SOL     OW28267   0.292   8.963   1.839
42143SOL    HW128268   0.219   9.021   1.818
42143SOL    HW228269   0.368   9.005   1.797
42144SOL     OW28270   5.596  11.739  11.601
42144SOL    HW128271   5.546  11.676  11.653
42144SOL    HW228272   5.559  11.824  11.624
42145SOL     OW28273  10.650   2.411   1.645
42145SOL    HW128274  10.594   2.333   1.652
42145SOL    HW228275  10.681   2.410   1.555
42146SOL     OW28276   8.807   2.900   4.794
42146SOL    HW128277   8.768   2.848   4.865
42146SOL    HW228278   8.870   2.841   4.752
42147SOL     OW28279   3.958   4.231  13.564
42147SOL    HW128280   3.864   4.216  13.574
42147SOL    HW228281   3.967   4.277  13.481
42148SOL     OW28282   2.614  10.797  13.174
42148SOL    HW128283   2.562  10.720  13.194
42148SOL    HW228284   2.584  10.826  13.088
42149SOL     OW28285   4.796  12.302   8.032
42149SOL    HW128286   4.730  12.290   8.099
42149SOL    HW228287   4.872  12.252   8.063
42150SOL     OW28288   9.653   4.846   0.311
42150SOL    HW128289   9.601   4.772   0.341
42150SOL    HW228290   9.741   4.830   0.344
42151SOL     OW28291   3.492   5.670   2.451
42151SOL    HW128292   3.525   5.758   2.434
42151SOL    HW228293   3.456   5.640   2.368
42152SOL     OW28294  11.269  10.842  13.432
42152SOL    HW128295  11.321  10.825  13.354
42152SOL    HW228296  11.214  10.763  13.442
42153SOL     OW28297   3.436   1.732   4.838
42153SOL    HW128298   3.362   1.788   4.813
42153SOL    HW228299   3.433   1.729   4.933
42154SOL     OW28300   2.015   8.791   1.506
42154SOL    HW128301   1.977   8.838   1.580
42154SOL    HW228302   2.003   8.698   1.529
42155SOL     OW28303  13.409   9.624   0.767
42155SOL    HW128304  13.334   9.675   0.799
42155SOL    HW228305  13.370   9.546   0.728
42156SOL     OW28306   0.654  12.535   6.218
42156SOL    HW128307   0.583  12.505   6.275
42156SOL    HW228308   0.635  12.627   6.203
42157SOL     OW28309  13.387  14.345   5.182
42157SOL    HW128310  13.327  14.384   5.245
42157SOL    HW228311  13.461  14.406   5.177
42158SOL     OW28312  10.501  11.922   1.829
42158SOL    HW128313  10.418  11.875   1.829
42158SOL    HW228314  10.550  11.883   1.902
42159SOL     OW28315   9.491   1.514   9.035
42159SOL    HW128316   9.443   1.455   8.977
42159SOL    HW228317   9.487   1.472   9.121
42160SOL     OW28318  13.275   5.435   6.025
42160SOL    HW128319  13.312   5.452   5.938
42160SOL    HW228320  13.352   5.422   6.081
42161SOL     OW28321   7.647   9.212   4.681
42161SOL    HW128322   7.600   9.263   4.748
42161SOL    HW228323   7.642   9.266   4.603
42162SOL     OW28324   4.865  12.692   7.455
42162SOL    HW128325   4.875  12.777   7.499
42162SOL    HW228326   4.846  12.631   7.526
42163SOL     OW28327   2.174   4.509   8.828
42163SOL    HW128328   2.147   4.567   8.899
42163SOL    HW228329   2.129   4.426   8.846
42164SOL     OW28330   3.663   6.328   0.256
42164SOL    HW128331   3.571   6.304   0.264
42164SOL    HW228332   3.677   6.341   0.162
42165SOL     OW28333   2.568   9.069   9.465
42165SOL    HW128334   2.492   9.052   9.409
42165SOL    HW228335   2.614   9.141   9.422
42166SOL     OW28336   3.866  10.326   3.779
42166SOL    HW128337   3.778  10.312   3.813
42166SOL    HW228338   3.861  10.409   3.731
42167SOL     OW28339  14.072   0.031   7.203
42167SOL    HW128340  14.157   0.011   7.242
42167SOL    HW228341  14.009  14.856   7.257
42168SOL     OW28342   3.004   7.742   3.828
42168SOL    HW128343   3.031   7.815   3.885
42168SOL    HW228344   2.928   7.704   3.871
42169SOL     OW28345   5.872   1.790   1.560
42169SOL    HW128346   5.908   1.831   1.482
42169SOL    HW228347   5.842   1.863   1.614
42170SOL     OW28348   5.935   2.135   4.309
42170SOL    HW128349   6.027   2.162   4.313
42170SOL    HW228350   5.939   2.039   4.310
42171SOL     OW28351   8.132   0.778   7.066
42171SOL    HW128352   8.162   0.838   6.997
42171SOL    HW228353   8.177   0.696   7.047
42172SOL     OW28354   0.173   8.389   0.236
42172SOL    HW128355   0.252   8.367   0.284
42172SOL    HW228356   0.203   8.412   0.148
42173SOL     OW28357  14.305   0.156   5.984
42173SOL    HW128358  14.385   0.204   6.006
42173SOL    HW228359  14.288   0.101   6.061
42174SOL     OW28360   3.524   9.490   7.656
42174SOL    HW128361   3.608   9.454   7.628
42174SOL    HW228362   3.459   9.445   7.601
42175SOL     OW28363   2.133  10.534   9.799
42175SOL    HW128364   2.077  10.458   9.815
42175SOL    HW228365   2.219  10.507   9.829
42176SOL     OW28366   4.977   4.138  14.824
42176SOL    HW128367   4.996   4.200  14.754
42176SOL    HW228368   4.964   4.193   0.029
42177SOL     OW28369   0.310  14.835   6.938
42177SOL    HW128370   0.292   0.053   6.915
42177SOL    HW228371   0.396  14.837   6.980
42178SOL     OW28372   4.580   0.053  13.098
42178SOL    HW128373   4.674   0.039  13.092
42178SOL    HW228374   4.545   0.014  13.018
42179SOL     OW28375  13.116   8.729   9.899
42179SOL    HW128376  13.177   8.656   9.905
42179SOL    HW228377  13.071   8.716   9.816
42180SOL     OW28378  11.662   1.530   5.512
42180SOL    HW128379  11.597   1.533   5.582
42180SOL    HW228380  11.742   1.499   5.555
42181SOL     OW28381   9.824  10.430  11.328
42181SOL    HW128382   9.918  10.448  11.332
42181SOL    HW228383   9.786  10.484  11.397
42182SOL     OW28384   3.082   5.606  10.169
42182SOL    HW128385   3.007   5.567  10.214
42182SOL    HW228386   3.083   5.566  10.083
42183SOL     OW28387   9.028   4.753   5.093
42183SOL    HW128388   9.025   4.667   5.052
42183SOL    HW228389   9.116   4.786   5.074
42184SOL     OW28390  13.310   2.705   5.259
42184SOL    HW128391  13.339   2.613   5.256
42184SOL    HW228392  13.215   2.700   5.247
42185SOL     OW28393   3.140  10.414  12.743
42185SOL    HW128394   3.198  10.490  12.740
42185SOL    HW228395   3.172  10.362  12.817
42186SOL     OW28396  10.711   5.483  10.523
42186SOL    HW128397  10.752   5.512  10.441
42186SOL    HW228398  10.634   5.539  10.532
42187SOL     OW28399  11.752   2.995   0.806
42187SOL    HW128400  11.827   3.019   0.753
42187SOL    HW228401  11.789   2.957   0.886
42188SOL     OW28402  11.022  14.046   7.140
42188SOL    HW128403  11.110  14.049   7.103
42188SOL    HW228404  11.007  14.135   7.172
42189SOL     OW28405   3.542   7.796   4.982
42189SOL    HW128406   3.535   7.799   4.887
42189SOL    HW228407   3.461   7.836   5.013
42190SOL     OW28408   6.397  11.505  10.121
42190SOL    HW128409   6.433  11.533  10.037
42190SOL    HW228410   6.440  11.421  10.139
42191SOL     OW28411  13.149   1.810   9.823
42191SOL    HW128412  13.169   1.877   9.887
42191SOL    HW228413  13.121   1.858   9.745
42192SOL     OW28414   6.884   5.027   7.846
42192SOL    HW128415   6.823   5.068   7.784
42192SOL    HW228416   6.964   5.015   7.796
42193SOL     OW28417  12.500   9.946  12.822
42193SOL    HW128418  12.546  10.030  12.818
42193SOL    HW228419  12.562   9.888  12.867
42194SOL     OW28420   4.343  14.563  10.735
42194SOL    HW128421   4.318  14.602  10.651
42194SOL    HW228422   4.438  14.562  10.734
42195SOL     OW28423   0.114  13.601   1.580
42195SOL    HW128424   0.027  13.601   1.622
42195SOL    HW228425   0.158  13.678   1.616
42196SOL     OW28426   1.767   3.382  14.294
42196SOL    HW128427   1.819   3.362  14.216
42196SOL    HW228428   1.677   3.378  14.264
42197SOL     OW28429   5.706   1.035   2.920
42197SOL    HW128430   5.611   1.039   2.905
42197SOL    HW228431   5.715   0.991   3.004
42198SOL     OW28432   9.718   8.616   6.994
42198SOL    HW128433   9.757   8.626   6.907
42198SOL    HW228434   9.681   8.528   6.994
42199SOL     OW28435   2.378  10.627   3.511
42199SOL    HW128436   2.315  10.556   3.499
42199SOL    HW228437   2.347  10.673   3.590
42200SOL     OW28438  13.962   0.209  10.993
42200SOL    HW128439  14.047   0.218  11.035
42200SOL    HW228440  13.978   0.229  10.901
42201SOL     OW28441   2.375   7.765   8.188
42201SOL    HW128442   2.292   7.796   8.225
42201SOL    HW228443   2.427   7.739   8.264
42202SOL     OW28444  14.231  12.581   4.250
42202SOL    HW128445  14.244  12.590   4.155
42202SOL    HW228446  14.137  12.567   4.259
42203SOL     OW28447   1.881  12.398   1.145
42203SOL    HW128448   1.832  12.377   1.065
42203SOL    HW228449   1.886  12.315   1.193
42204SOL     OW28450  12.255   4.476  14.617
42204SOL    HW128451  12.299   4.561  14.631
42204SOL    HW228452  12.167   4.499  14.589
42205SOL     OW28453   2.347  10.952  13.108
42205SOL    HW128454   2.399  10.926  13.032
42205SOL    HW228455   2.299  11.030  13.079
42206SOL     OW28456  14.440  12.312   5.944
42206SOL    HW128457  14.401  12.224   5.938
42206SOL    HW228458  14.506  12.303   6.013
42207SOL     OW28459  10.275   1.193   1.592
42207SOL    HW128460  10.344   1.148   1.543
42207SOL    HW228461  10.322   1.243   1.659
42208SOL     OW28462  10.915   9.309   2.535
42208SOL    HW128463  10.946   9.331   2.447
42208SOL    HW228464  10.866   9.227   2.524
42209SOL     OW28465   5.816  11.986  12.837
42209SOL    HW128466   5.773  11.918  12.888
42209SOL    HW228467   5.771  11.985  12.752
42210SOL     OW28468  12.697  13.141   8.193
42210SOL    HW128469  12.624  13.194   8.162
42210SOL    HW228470  12.766  13.205   8.213
42211SOL     OW28471   0.390  10.562   5.097
42211SOL    HW128472   0.358  10.608   5.174
42211SOL    HW228473   0.427  10.480   5.131
42212SOL     OW28474   1.475  11.350  14.331
42212SOL    HW128475   1.442  11.361  14.420
42212SOL    HW228476   1.568  11.370  14.337
42213SOL     OW28477   9.464  14.833  10.847
42213SOL    HW128478   9.420   0.016  10.911
42213SOL    HW228479   9.519   0.020  10.797
42214SOL     OW28480   0.023  14.076   3.450
42214SOL    HW128481   0.067  14.154   3.415
42214SOL    HW228482  14.830  14.055   3.384
42215SOL     OW28483  13.528   9.924   9.366
42215SOL    HW128484  13.437   9.912   9.338
42215SOL    HW228485  13.539  10.019   9.372
42216SOL     OW28486   2.056  11.903  14.229
42216SOL    HW128487   1.977  11.956  14.235
42216SOL    HW228488   2.075  11.899  14.135
42217SOL     OW28489   1.088   6.834   6.101
42217SOL    HW128490   1.173   6.876   6.115
42217SOL    HW228491   1.107   6.759   6.045
42218SOL     OW28492  12.235  11.731   5.510
42218SOL    HW128493  12.329  11.714   5.515
42218SOL    HW228494  12.197  11.647   5.484
42219SOL     OW28495   9.005   8.109   4.952
42219SOL    HW128496   8.979   8.143   5.038
42219SOL    HW228497   9.082   8.161   4.928
42220SOL     OW28498  10.532  12.301  11.470
42220SOL    HW128499  10.623  12.331  11.474
42220SOL    HW228500  10.488  12.366  11.415
42221SOL     OW28501   4.438   9.156  13.421
42221SOL    HW128502   4.388   9.091  13.471
42221SOL    HW228503   4.429   9.237  13.471
42222SOL     OW28504   4.736  12.618   4.349
42222SOL    HW128505   4.764  12.654   4.433
42222SOL    HW228506   4.689  12.690   4.307
42223SOL     OW28507  14.760  14.456   1.704
42223SOL    HW128508  14.670  14.434   1.727
42223SOL    HW228509  14.813  14.400   1.760
42224SOL     OW28510  10.640   9.842   9.048
42224SOL    HW128511  10.698   9.775   9.014
42224SOL    HW228512  10.560   9.795   9.072
42225SOL     OW28513   2.500   2.893   3.839
42225SOL    HW128514   2.405   2.887   3.843
42225SOL    HW228515   2.525   2.833   3.769
42226SOL     OW28516  10.654   8.103   9.289
42226SOL    HW128517  10.681   8.136   9.203
42226SOL    HW228518  10.562   8.127   9.297
42227SOL     OW28519  14.657   8.839   7.170
42227SOL    HW128520  14.597   8.791   7.113
42227SOL    HW228521  14.710   8.891   7.110
42228SOL     OW28522   2.417  10.367   6.489
42228SOL    HW128523   2.330  10.328   6.479
42228SOL    HW228524   2.478  10.294   6.477
42229SOL     OW28525  11.451  10.929   1.413
42229SOL    HW128526  11.401  10.993   1.361
42229SOL    HW228527  11.433  10.955   1.504
42230SOL     OW28528   3.405   6.240   6.187
42230SOL    HW128529   3.496   6.234   6.158
42230SOL    HW228530   3.372   6.321   6.147
42231SOL     OW28531   7.235   0.821   7.537
42231SOL    HW128532   7.235   0.853   7.627
42231SOL    HW228533   7.200   0.894   7.486
42232SOL     OW28534   7.633   5.172   5.237
42232SOL    HW128535   7.606   5.090   5.279
42232SOL    HW228536   7.727   5.178   5.254
42233SOL     OW28537   0.854   0.147   1.675
42233SOL    HW128538   0.856   0.053   1.691
42233SOL    HW228539   0.837   0.186   1.761
42234SOL     OW28540  14.213  12.837   8.002
42234SOL    HW128541  14.129  12.848   8.046
42234SOL    HW228542  14.204  12.888   7.921
42235SOL     OW28543   0.118   8.216   8.438
42235SOL    HW128544   0.029   8.205   8.471
42235SOL    HW228545   0.163   8.135   8.461
42236SOL     OW28546   5.361  12.999   3.623
42236SOL    HW128547   5.371  12.918   3.673
42236SOL    HW228548   5.444  13.007   3.575
42237SOL     OW28549  12.534   4.941  14.236
42237SOL    HW128550  12.504   4.973  14.151
42237SOL    HW228551  12.621   4.905  14.219
42238SOL     OW28552   5.349  11.857   5.124
42238SOL    HW128553   5.386  11.846   5.212
42238SOL    HW228554   5.415  11.820   5.065
42239SOL     OW28555   6.042   8.077  11.059
42239SOL    HW128556   5.968   8.032  11.098
42239SOL    HW228557   6.119   8.041  11.103
42240SOL     OW28558   2.847   1.807   0.405
42240SOL    HW128559   2.842   1.722   0.360
42240SOL    HW228560   2.826   1.788   0.496
42241SOL     OW28561   4.002   1.349  13.764
42241SOL    HW128562   3.984   1.372  13.673
42241SOL    HW228563   4.031   1.258  13.761
42242SOL     OW28564   4.054   9.973   2.892
42242SOL    HW128565   4.034   9.882   2.870
42242SOL    HW228566   4.141   9.969   2.930
42243SOL     OW28567  11.147   2.046   6.665
42243SOL    HW128568  11.092   2.005   6.598
42243SOL    HW228569  11.200   2.110   6.616
42244SOL     OW28570   7.117   0.107  12.683
42244SOL    HW128571   7.108   0.011  12.684
42244SOL    HW228572   7.075   0.134  12.602
42245SOL     OW28573  13.843   0.607   4.527
42245SOL    HW128574  13.926   0.563   4.544
42245SOL    HW228575  13.846   0.628   4.433
42246SOL     OW28576   8.272   1.805   5.039
42246SOL    HW128577   8.282   1.715   5.070
42246SOL    HW228578   8.224   1.849   5.110
42247SOL     OW28579   1.444  12.509  12.996
42247SOL    HW128580   1.491  12.592  12.995
42247SOL    HW228581   1.352  12.534  13.005
42248SOL     OW28582   6.837   9.725  13.523
42248SOL    HW128583   6.773   9.662  13.488
42248SOL    HW228584   6.920   9.698  13.484
42249SOL     OW28585  11.603   8.006   3.855
42249SOL    HW128586  11.618   8.014   3.761
42249SOL    HW228587  11.674   8.055   3.896
42250SOL     OW28588   3.859   3.208   1.863
42250SOL    HW128589   3.945   3.247   1.879
42250SOL    HW228590   3.866   3.119   1.898
42251SOL     OW28591   6.537   2.931   2.516
42251SOL    HW128592   6.532   2.839   2.541
42251SOL    HW228593   6.554   2.929   2.422
42252SOL     OW28594   7.334   1.564  10.818
42252SOL    HW128595   7.376   1.615  10.888
42252SOL    HW228596   7.373   1.598  10.737
42253SOL     OW28597  12.772   9.629   0.105
42253SOL    HW128598  12.768   9.638   0.010
42253SOL    HW228599  12.865   9.616   0.124
42254SOL     OW28600   5.448  12.529  10.529
42254SOL    HW128601   5.424  12.469  10.600
42254SOL    HW228602   5.373  12.526  10.470
42255SOL     OW28603   4.495  14.856   7.720
42255SOL    HW128604   4.523  14.769   7.692
42255SOL    HW228605   4.577   0.032   7.730
42256SOL     OW28606   6.761  10.510   7.082
42256SOL    HW128607   6.708  10.470   7.152
42256SOL    HW228608   6.700  10.523   7.010
42257SOL     OW28609   9.014  14.598  11.876
42257SOL    HW128610   8.971  14.675  11.913
42257SOL    HW228611   9.050  14.551  11.951
42258SOL     OW28612   5.026   4.076  12.479
42258SOL    HW128613   4.968   4.000  12.484
42258SOL    HW228614   5.100   4.055  12.536
42259SOL     OW28615   6.884   2.336  13.882
42259SOL    HW128616   6.968   2.375  13.858
42259SOL    HW228617   6.848   2.395  13.948
42260SOL     OW28618   2.111   0.172  10.631
42260SOL    HW128619   2.139   0.085  10.601
42260SOL    HW228620   2.129   0.172  10.724
42261SOL     OW28621   4.675   2.269   9.026
42261SOL    HW128622   4.764   2.269   9.061
42261SOL    HW228623   4.677   2.207   8.953
42262SOL     OW28624   5.873  12.508   6.713
42262SOL    HW128625   5.872  12.455   6.792
42262SOL    HW228626   5.798  12.567   6.723
42263SOL     OW28627   0.017   1.487   3.189
42263SOL    HW128628   0.012   1.495   3.094
42263SOL    HW228629   0.025   1.393   3.205
42264SOL     OW28630  13.119   9.597   5.945
42264SOL    HW128631  13.090   9.648   5.869
42264SOL    HW228632  13.134   9.662   6.014
42265SOL     OW28633   0.434   0.417   5.665
42265SOL    HW128634   0.440   0.322   5.661
42265SOL    HW228635   0.495   0.442   5.735
42266SOL     OW28636   5.763   8.702   0.033
42266SOL    HW128637   5.820   8.775   0.055
42266SOL    HW228638   5.685   8.742  14.869
42267SOL     OW28639   8.797   9.771   0.604
42267SOL    HW128640   8.823   9.852   0.561
42267SOL    HW228641   8.879   9.725   0.622
42268SOL     OW28642   2.428   6.003   7.594
42268SOL    HW128643   2.429   5.981   7.501
42268SOL    HW228644   2.349   6.055   7.606
42269SOL     OW28645   9.077  14.663   9.037
42269SOL    HW128646   9.040  14.659   8.949
42269SOL    HW228647   9.068  14.574   9.070
42270SOL     OW28648   9.852  10.031   9.846
42270SOL    HW128649   9.882  10.048   9.935
42270SOL    HW228650   9.772   9.979   9.858
42271SOL     OW28651   5.921  11.362   4.097
42271SOL    HW128652   5.871  11.299   4.046
42271SOL    HW228653   6.003  11.317   4.117
42272SOL     OW28654  13.135   8.902   8.854
42272SOL    HW128655  13.093   8.947   8.928
42272SOL    HW228656  13.201   8.846   8.895
42273SOL     OW28657   3.093   9.717  13.131
42273SOL    HW128658   3.166   9.725  13.069
42273SOL    HW228659   3.106   9.631  13.171
42274SOL     OW28660   0.058  10.434   5.244
42274SOL    HW128661   0.001  10.357   5.247
42274SOL    HW228662   0.086  10.447   5.334
42275SOL     OW28663   8.427   6.482   0.615
42275SOL    HW128664   8.445   6.438   0.698
42275SOL    HW228665   8.441   6.575   0.634
42276SOL     OW28666   7.639   0.397   5.738
42276SOL    HW128667   7.630   0.307   5.707
42276SOL    HW228668   7.562   0.443   5.703
42277SOL     OW28669   6.486  10.751   7.870
42277SOL    HW128670   6.487  10.839   7.834
42277SOL    HW228671   6.406  10.748   7.923
42278SOL     OW28672   2.726   9.277   8.644
42278SOL    HW128673   2.804   9.280   8.699
42278SOL    HW228674   2.715   9.184   8.624
42279SOL     OW28675   2.781  11.322   0.476
42279SOL    HW128676   2.840  11.386   0.516
42279SOL    HW228677   2.787  11.340   0.382
42280SOL     OW28678   7.061   7.965   1.401
42280SOL    HW128679   7.022   8.050   1.420
42280SOL    HW228680   7.033   7.908   1.473
42281SOL     OW28681   1.786   4.041   2.210
42281SOL    HW128682   1.859   3.990   2.246
42281SOL    HW228683   1.772   4.003   2.123
42282SOL     OW28684   0.989  13.283  10.860
42282SOL    HW128685   0.946  13.296  10.776
42282SOL    HW228686   1.020  13.192  10.857
42283SOL     OW28687   0.544   0.068   3.436
42283SOL    HW128688   0.462   0.116   3.444
42283SOL    HW228689   0.525   0.001   3.370
42284SOL     OW28690  10.240  13.606   9.096
42284SOL    HW128691  10.194  13.529   9.132
42284SOL    HW228692  10.176  13.647   9.038
42285SOL     OW28693  10.252   2.725  12.349
42285SOL    HW128694  10.179   2.716  12.288
42285SOL    HW228695  10.281   2.815  12.338
42286SOL     OW28696  14.277   0.227   8.817
42286SOL    HW128697  14.339   0.279   8.765
42286SOL    HW228698  14.191   0.249   8.782
42287SOL     OW28699   9.572  12.735   6.810
42287SOL    HW128700   9.609  12.647   6.810
42287SOL    HW228701   9.498  12.731   6.749
42288SOL     OW28702   9.957   4.341  10.261
42288SOL    HW128703   9.911   4.261  10.286
42288SOL    HW228704   9.894   4.411  10.281
42289SOL     OW28705   6.145  10.951   8.083
42289SOL    HW128706   6.069  10.935   8.138
42289SOL    HW228707   6.180  11.035   8.115
42290SOL     OW28708   0.993  13.968   0.561
42290SOL    HW128709   0.902  13.947   0.585
42290SOL    HW228710   1.029  14.009   0.639
42291SOL     OW28711   1.266   1.543   4.867
42291SOL    HW128712   1.331   1.479   4.897
42291SOL    HW228713   1.290   1.624   4.911
42292SOL     OW28714  11.724   7.509  11.776
42292SOL    HW128715  11.690   7.560  11.702
42292SOL    HW228716  11.698   7.559  11.854
42293SOL     OW28717   4.614   9.173  11.902
42293SOL    HW128718   4.585   9.171  11.811
42293SOL    HW228719   4.558   9.238  11.944
42294SOL     OW28720   6.052  11.416   8.344
42294SOL    HW128721   6.038  11.509   8.360
42294SOL    HW228722   6.035  11.375   8.429
42295SOL     OW28723   1.144   8.381  10.437
42295SOL    HW128724   1.117   8.290  10.440
42295SOL    HW228725   1.238   8.378  10.416
42296SOL     OW28726   1.200  14.146   3.069
42296SOL    HW128727   1.264  14.147   3.141
42296SOL    HW228728   1.248  14.108   2.996
42297SOL     OW28729  10.295  11.746   5.805
42297SOL    HW128730  10.272  11.838   5.788
42297SOL    HW228731  10.213  11.706   5.835
42298SOL     OW28732   1.457  10.107  13.793
42298SOL    HW128733   1.380  10.052  13.781
42298SOL    HW228734   1.512  10.088  13.717
42299SOL     OW28735   9.343   5.276  11.096
42299SOL    HW128736   9.426   5.265  11.142
42299SOL    HW228737   9.345   5.367  11.066
42300SOL     OW28738  14.347  13.267   8.075
42300SOL    HW128739  14.359  13.176   8.102
42300SOL    HW228740  14.257  13.271   8.043
42301SOL     OW28741   8.368   6.314  10.906
42301SOL    HW128742   8.301   6.379  10.888
42301SOL    HW228743   8.323   6.244  10.953
42302SOL     OW28744   0.606   5.403   1.813
42302SOL    HW128745   0.512   5.413   1.798
42302SOL    HW228746   0.627   5.316   1.778
42303SOL     OW28747   3.259   6.686   8.115
42303SOL    HW128748   3.171   6.658   8.140
42303SOL    HW228749   3.281   6.632   8.040
42304SOL     OW28750   4.742   6.537   4.279
42304SOL    HW128751   4.796   6.583   4.343
42304SOL    HW228752   4.779   6.448   4.277
42305SOL     OW28753   8.800   1.306   9.283
42305SOL    HW128754   8.780   1.244   9.213
42305SOL    HW228755   8.844   1.379   9.238
42306SOL     OW28756   4.870  12.568   0.317
42306SOL    HW128757   4.963  12.587   0.323
42306SOL    HW228758   4.865  12.472   0.316
42307SOL     OW28759   6.836   0.501   6.000
42307SOL    HW128760   6.930   0.483   6.004
42307SOL    HW228761   6.810   0.471   5.913
42308SOL     OW28762  11.948  14.222  11.451
42308SOL    HW128763  11.877  14.204  11.512
42308SOL    HW228764  11.905  14.250  11.371
42309SOL     OW28765  10.942   0.136   5.795
42309SOL    HW128766  11.005   0.205   5.773
42309SOL    HW228767  10.886   0.129   5.718
42310SOL     OW28768   9.315   3.831   9.471
42310SOL    HW128769   9.348   3.774   9.401
42310SOL    HW228770   9.223   3.844   9.449
42311SOL     OW28771  10.906  12.920   3.368
42311SOL    HW128772  10.903  12.964   3.283
42311SOL    HW228773  10.921  12.828   3.347
42312SOL     OW28774   2.817  10.546  10.799
42312SOL    HW128775   2.841  10.625  10.750
42312SOL    HW228776   2.855  10.474  10.748
42313SOL     OW28777  13.721   9.092   7.108
42313SOL    HW128778  13.791   9.074   7.170
42313SOL    HW228779  13.673   9.010   7.101
42314SOL     OW28780   6.288  14.754  14.630
42314SOL    HW128781   6.371  14.796  14.652
42314SOL    HW228782   6.314  14.672  14.587
42315SOL     OW28783  13.141   9.034   6.436
42315SOL    HW128784  13.147   9.078   6.520
42315SOL    HW228785  13.200   8.959   6.444
42316SOL     OW28786   5.995   4.471   5.661
42316SOL    HW128787   6.055   4.506   5.595
42316SOL    HW228788   5.949   4.549   5.694
42317SOL     OW28789  10.706  10.795  13.692
42317SOL    HW128790  10.760  10.867  13.726
42317SOL    HW228791  10.737  10.782  13.603
42318SOL     OW28792   5.054   2.974  11.222
42318SOL    HW128793   5.065   2.954  11.129
42318SOL    HW228794   5.013   3.061  11.223
42319SOL     OW28795   4.259   1.535   9.321
42319SOL    HW128796   4.342   1.507   9.283
42319SOL    HW228797   4.218   1.454   9.351
42320SOL     OW28798  11.492   3.782  12.947
42320SOL    HW128799  11.479   3.810  12.857
42320SOL    HW228800  11.412   3.808  12.992
42321SOL     OW28801  14.367   4.199  13.956
42321SOL    HW128802  14.285   4.232  13.993
42321SOL    HW228803  14.420   4.278  13.943
42322SOL     OW28804   8.148  10.201   4.482
42322SOL    HW128805   8.236  10.230   4.462
42322SOL    HW228806   8.153  10.170   4.572
42323SOL     OW28807   0.333   5.209   5.120
42323SOL    HW128808   0.250   5.225   5.075
42323SOL    HW228809   0.399   5.214   5.051
42324SOL     OW28810   6.616   8.079   5.309
42324SOL    HW128811   6.614   8.116   5.221
42324SOL    HW228812   6.598   8.153   5.367
42325SOL     OW28813   8.340   9.784  12.238
42325SOL    HW128814   8.433   9.773  12.259
42325SOL    HW228815   8.316   9.867  12.279
42326SOL     OW28816   3.111   1.784  10.599
42326SOL    HW128817   3.034   1.759  10.548
42326SOL    HW228818   3.081   1.857  10.653
42327SOL     OW28819   2.380   7.246   5.303
42327SOL    HW128820   2.299   7.195   5.298
42327SOL    HW228821   2.372   7.296   5.384
42328SOL     OW28822   0.537   5.110   2.805
42328SOL    HW128823   0.506   5.077   2.890
42328SOL    HW228824   0.462   5.158   2.770
42329SOL     OW28825   8.327   1.270   3.550
42329SOL    HW128826   8.321   1.259   3.455
42329SOL    HW228827   8.236   1.280   3.579
42330SOL     OW28828  12.262   5.607   4.515
42330SOL    HW128829  12.169   5.594   4.533
42330SOL    HW228830  12.264   5.649   4.429
42331SOL     OW28831   9.621   0.991   4.551
42331SOL    HW128832   9.688   0.927   4.525
42331SOL    HW228833   9.565   0.942   4.611
42332SOL     OW28834  13.487   0.588  13.176
42332SOL    HW128835  13.412   0.532  13.155
42332SOL    HW228836  13.555   0.562  13.115
42333SOL     OW28837  13.102   2.412  11.394
42333SOL    HW128838  13.111   2.450  11.481
42333SOL    HW228839  13.138   2.477  11.334
42334SOL     OW28840  14.528  13.065  11.911
42334SOL    HW128841  14.486  13.136  11.861
42334SOL    HW228842  14.477  13.058  11.991
42335SOL     OW28843   3.411   4.786   1.527
42335SOL    HW128844   3.408   4.879   1.548
42335SOL    HW228845   3.336   4.772   1.469
42336SOL     OW28846  12.611   0.558   8.911
42336SOL    HW128847  12.588   0.619   8.841
42336SOL    HW228848  12.701   0.580   8.933
42337SOL     OW28849   9.283  12.108  12.525
42337SOL    HW128850   9.233  12.029  12.504
42337SOL    HW228851   9.243  12.176  12.470
42338SOL     OW28852   5.777  12.956  14.057
42338SOL    HW128853   5.742  12.909  13.981
42338SOL    HW228854   5.702  12.964  14.116
42339SOL     OW28855   7.286   7.585  10.682
42339SOL    HW128856   7.328   7.633  10.753
42339SOL    HW228857   7.257   7.652  10.621
42340SOL     OW28858   0.863  11.824   3.731
42340SOL    HW128859   0.780  11.786   3.703
42340SOL    HW228860   0.920  11.817   3.654
42341SOL     OW28861   8.411   4.970  11.306
42341SOL    HW128862   8.487   4.957  11.248
42341SOL    HW228863   8.404   5.065  11.315
42342SOL     OW28864   3.631   8.004  10.527
42342SOL    HW128865   3.701   7.940  10.516
42342SOL    HW228866   3.660   8.080  10.477
42343SOL     OW28867   0.498  13.854   5.787
42343SOL    HW128868   0.443  13.784   5.752
42343SOL    HW228869   0.571  13.809   5.829
42344SOL     OW28870   5.203   9.513  13.500
42344SOL    HW128871   5.146   9.439  13.481
42344SOL    HW228872   5.146   9.576  13.544
42345SOL     OW28873   6.645   2.062   5.728
42345SOL    HW128874   6.576   2.085   5.666
42345SOL    HW228875   6.599   2.020   5.801
42346SOL     OW28876  11.430   3.578   4.459
42346SOL    HW128877  11.421   3.483   4.466
42346SOL    HW228878  11.467   3.604   4.543
42347SOL     OW28879   7.007   4.744  13.545
42347SOL    HW128880   6.965   4.665  13.512
42347SOL    HW228881   7.099   4.734  13.521
42348SOL     OW28882   0.481  11.232  12.579
42348SOL    HW128883   0.417  11.265  12.517
42348SOL    HW228884   0.560  11.283  12.562
42349SOL     OW28885   0.402   2.953  12.475
42349SOL    HW128886   0.349   3.028  12.448
42349SOL    HW228887   0.389   2.888  12.406
42350SOL     OW28888  11.097  10.462   9.445
42350SOL    HW128889  11.102  10.472   9.350
42350SOL    HW228890  11.049  10.381   9.459
42351SOL     OW28891  12.042  13.692  14.428
42351SOL    HW128892  11.998  13.661  14.349
42351SOL    HW228893  12.135  13.686  14.407
42352SOL     OW28894   3.613   0.813  14.083
42352SOL    HW128895   3.673   0.832  14.155
42352SOL    HW228896   3.575   0.898  14.060
42353SOL     OW28897  12.781  11.397  11.262
42353SOL    HW128898  12.846  11.454  11.221
42353SOL    HW228899  12.700  11.413  11.212
42354SOL     OW28900  10.074   5.151   4.764
42354SOL    HW128901  10.134   5.077   4.762
42354SOL    HW228902  10.124   5.222   4.804
42355SOL     OW28903   3.613   0.304  13.566
42355SOL    HW128904   3.676   0.375  13.578
42355SOL    HW228905   3.654   0.229  13.609
42356SOL     OW28906   7.056   1.645  11.078
42356SOL    HW128907   6.982   1.654  11.017
42356SOL    HW228908   7.118   1.713  11.051
42357SOL     OW28909   0.131   3.402   4.760
42357SOL    HW128910   0.141   3.335   4.827
42357SOL    HW228911   0.045   3.439   4.777
42358SOL     OW28912  13.166  13.569  12.171
42358SOL    HW128913  13.167  13.595  12.263
42358SOL    HW228914  13.256  13.585  12.140
42359SOL     OW28915   9.484   1.141   1.691
42359SOL    HW128916   9.446   1.171   1.773
42359SOL    HW228917   9.558   1.200   1.675
42360SOL     OW28918  11.470  11.918   0.099
42360SOL    HW128919  11.406  11.989   0.085
42360SOL    HW228920  11.439  11.847   0.044
42361SOL     OW28921   4.678   9.875   9.705
42361SOL    HW128922   4.599   9.928   9.718
42361SOL    HW228923   4.698   9.884   9.612
42362SOL     OW28924  12.053  13.560   4.663
42362SOL    HW128925  12.141  13.594   4.653
42362SOL    HW228926  12.065  13.474   4.704
42363SOL     OW28927   1.304   9.259   7.149
42363SOL    HW128928   1.335   9.307   7.226
42363SOL    HW228929   1.212   9.286   7.139
42364SOL     OW28930   3.194   4.395   6.725
42364SOL    HW128931   3.194   4.384   6.820
42364SOL    HW228932   3.123   4.339   6.694
42365SOL     OW28933   3.531  12.368  12.196
42365SOL    HW128934   3.506  12.437  12.135
42365SOL    HW228935   3.476  12.293  12.172
42366SOL     OW28936  14.687   0.453   2.044
42366SOL    HW128937  14.722   0.528   2.093
42366SOL    HW228938  14.734   0.377   2.079
42367SOL     OW28939  13.423   3.096   4.926
42367SOL    HW128940  13.381   3.069   5.008
42367SOL    HW228941  13.513   3.117   4.952
42368SOL     OW28942   6.273  13.941  10.067
42368SOL    HW128943   6.306  13.984  10.146
42368SOL    HW228944   6.350  13.930  10.011
42369SOL     OW28945   0.029  12.753  12.157
42369SOL    HW128946  14.854  12.681  12.116
42369SOL    HW228947   0.104  12.712  12.199
42370SOL     OW28948  12.824  10.737  14.367
42370SOL    HW128949  12.843  10.781  14.450
42370SOL    HW228950  12.793  10.650  14.392
42371SOL     OW28951   6.452   7.376  14.367
42371SOL    HW128952   6.407   7.461  14.365
42371SOL    HW228953   6.384   7.313  14.345
42372SOL     OW28954   0.848   4.593   8.952
42372SOL    HW128955   0.814   4.569   8.866
42372SOL    HW228956   0.924   4.537   8.965
42373SOL     OW28957  11.454   4.405   3.028
42373SOL    HW128958  11.407   4.322   3.035
42373SOL    HW228959  11.475   4.428   3.118
42374SOL     OW28960   0.869   1.894   4.719
42374SOL    HW128961   0.860   1.802   4.694
42374SOL    HW228962   0.802   1.908   4.786
42375SOL     OW28963   4.940   0.692   1.506
42375SOL    HW128964   5.019   0.639   1.494
42375SOL    HW228965   4.881   0.635   1.555
42376SOL     OW28966   2.867  13.000  13.738
42376SOL    HW128967   2.856  12.919  13.788
42376SOL    HW228968   2.927  12.976  13.667
42377SOL     OW28969   2.731  14.057  14.747
42377SOL    HW128970   2.662  14.120  14.766
42377SOL    HW228971   2.806  14.111  14.720
42378SOL     OW28972   9.840   0.355   6.749
42378SOL    HW128973   9.750   0.334   6.723
42378SOL    HW228974   9.876   0.401   6.673
42379SOL     OW28975   4.172   5.198  10.207
42379SOL    HW128976   4.188   5.152  10.289
42379SOL    HW228977   4.254   5.188  10.158
42380SOL     OW28978  14.559  11.510   0.280
42380SOL    HW128979  14.496  11.466   0.224
42380SOL    HW228980  14.599  11.440   0.332
42381SOL     OW28981   4.329  14.442  13.191
42381SOL    HW128982   4.325  14.353  13.224
42381SOL    HW228983   4.258  14.447  13.127
42382SOL     OW28984   1.326  12.124  14.485
42382SOL    HW128985   1.234  12.114  14.460
42382SOL    HW228986   1.336  12.218  14.503
42383SOL     OW28987   4.981   4.006  11.602
42383SOL    HW128988   4.939   3.931  11.559
42383SOL    HW228989   5.038   3.967  11.668
42384SOL     OW28990   0.647   0.925  10.750
42384SOL    HW128991   0.725   0.967  10.786
42384SOL    HW228992   0.578   0.947  10.813
42385SOL     OW28993   7.862   1.746   6.392
42385SOL    HW128994   7.956   1.737   6.376
42385SOL    HW228995   7.848   1.707   6.478
42386SOL     OW28996   3.108   3.321   4.134
42386SOL    HW128997   3.042   3.292   4.071
42386SOL    HW228998   3.068   3.306   4.219
42387SOL     OW28999   8.310   8.025   7.602
42387SOL    HW129000   8.357   8.050   7.523
42387SOL    HW229001   8.378   8.019   7.669
42388SOL     OW29002  11.414  12.657   5.790
42388SOL    HW129003  11.382  12.664   5.880
42388SOL    HW229004  11.478  12.585   5.793
42389SOL     OW29005   9.965   4.801  11.637
42389SOL    HW129006   9.891   4.855  11.663
42389SOL    HW229007   9.976   4.818  11.544
42390SOL     OW29008   7.713  12.144  10.001
42390SOL    HW129009   7.742  12.095  10.078
42390SOL    HW229010   7.664  12.081   9.949
42391SOL     OW29011   5.917  13.488   0.143
42391SOL    HW129012   5.919  13.554   0.074
42391SOL    HW229013   5.957  13.410   0.104
42392SOL     OW29014  14.646   1.717  14.317
42392SOL    HW129015  14.734   1.751  14.297
42392SOL    HW229016  14.587   1.787  14.289
42393SOL     OW29017   1.247  11.746   7.760
42393SOL    HW129018   1.299  11.729   7.682
42393SOL    HW229019   1.163  11.777   7.727
42394SOL     OW29020   6.191   3.582  12.138
42394SOL    HW129021   6.179   3.490  12.114
42394SOL    HW229022   6.284   3.589  12.161
42395SOL     OW29023  13.137   6.349   9.721
42395SOL    HW129024  13.145   6.419   9.657
42395SOL    HW229025  13.147   6.268   9.671
42396SOL     OW29026  11.315   4.567   8.499
42396SOL    HW129027  11.409   4.564   8.512
42396SOL    HW229028  11.297   4.496   8.437
42397SOL     OW29029  10.748   0.360   1.973
42397SOL    HW129030  10.707   0.390   2.054
42397SOL    HW229031  10.775   0.441   1.929
42398SOL     OW29032   3.057   2.938  11.063
42398SOL    HW129033   3.140   2.959  11.106
42398SOL    HW229034   3.037   3.014  11.010
42399SOL     OW29035  14.442   2.630  11.619
42399SOL    HW129036  14.400   2.574  11.554
42399SOL    HW229037  14.369   2.679  11.658
42400SOL     OW29038   6.068  14.769   8.174
42400SOL    HW129039   5.996  14.812   8.220
42400SOL    HW229040   6.116  14.723   8.242
42401SOL     OW29041  11.124   3.946  11.086
42401SOL    HW129042  11.105   4.029  11.043
42401SOL    HW229043  11.060   3.941  11.157
42402SOL     OW29044   4.962   3.747  14.864
42402SOL    HW129045   4.976   3.808  14.792
42402SOL    HW229046   4.940   3.664  14.822
42403SOL     OW29047   8.719  10.300   2.188
42403SOL    HW129048   8.778  10.327   2.259
42403SOL    HW229049   8.758  10.220   2.154
42404SOL     OW29050   9.676  11.058  12.532
42404SOL    HW129051   9.740  11.105  12.585
42404SOL    HW229052   9.649  11.121  12.464
42405SOL     OW29053  10.777  12.099  11.847
42405SOL    HW129054  10.828  12.086  11.767
42405SOL    HW229055  10.703  12.153  11.820
42406SOL     OW29056   2.689  12.595   8.254
42406SOL    HW129057   2.658  12.553   8.174
42406SOL    HW229058   2.611  12.631   8.295
42407SOL     OW29059  13.353   8.283   5.385
42407SOL    HW129060  13.296   8.206   5.376
42407SOL    HW229061  13.294   8.357   5.374
42408SOL     OW29062  14.007   3.056  13.266
42408SOL    HW129063  13.981   2.993  13.198
42408SOL    HW229064  13.930   3.064  13.322
42409SOL     OW29065  11.055   3.574   3.634
42409SOL    HW129066  10.975   3.616   3.667
42409SOL    HW229067  11.098   3.541   3.713
42410SOL     OW29068   9.570   1.382   9.318
42410SOL    HW129069   9.478   1.358   9.330
42410SOL    HW229070   9.592   1.433   9.397
42411SOL     OW29071   8.819   4.674   8.578
42411SOL    HW129072   8.877   4.685   8.653
42411SOL    HW229073   8.784   4.761   8.560
42412SOL     OW29074   7.039  13.517   1.367
42412SOL    HW129075   7.030  13.526   1.462
42412SOL    HW229076   7.123  13.474   1.355
42413SOL     OW29077   8.844   6.127  11.388
42413SOL    HW129078   8.853   6.048  11.441
42413SOL    HW229079   8.927   6.135  11.342
42414SOL     OW29080   4.800   0.259   9.770
42414SOL    HW129081   4.885   0.302   9.758
42414SOL    HW229082   4.818   0.186   9.829
42415SOL     OW29083   8.938   5.467   0.476
42415SOL    HW129084   8.898   5.418   0.547
42415SOL    HW229085   8.939   5.406   0.402
42416SOL     OW29086  10.379   5.967   7.785
42416SOL    HW129087  10.438   6.031   7.826
42416SOL    HW229088  10.400   5.884   7.827
42417SOL     OW29089  12.249  12.083  12.148
42417SOL    HW129090  12.278  12.007  12.197
42417SOL    HW229091  12.222  12.048  12.063
42418SOL     OW29092  11.214   8.624   3.605
42418SOL    HW129093  11.143   8.561   3.618
42418SOL    HW229094  11.284   8.572   3.566
42419SOL     OW29095   1.795   4.705   1.351
42419SOL    HW129096   1.782   4.790   1.308
42419SOL    HW229097   1.719   4.696   1.408
42420SOL     OW29098  12.522   8.458  12.197
42420SOL    HW129099  12.515   8.381  12.253
42420SOL    HW229100  12.549   8.423  12.112
42421SOL     OW29101   3.619   0.231   5.448
42421SOL    HW129102   3.588   0.222   5.538
42421SOL    HW229103   3.649   0.321   5.442
42422SOL     OW29104   6.841   0.547  10.195
42422SOL    HW129105   6.812   0.498  10.272
42422SOL    HW229106   6.871   0.631  10.230
42423SOL     OW29107   7.592   4.851   4.564
42423SOL    HW129108   7.577   4.941   4.594
42423SOL    HW229109   7.534   4.797   4.618
42424SOL     OW29110  14.340   1.540  12.396
42424SOL    HW129111  14.310   1.480  12.328
42424SOL    HW229112  14.276   1.611  12.397
42425SOL     OW29113  14.244   7.348  12.220
42425SOL    HW129114  14.224   7.370  12.311
42425SOL    HW229115  14.338   7.361  12.212
42426SOL     OW29116   3.835  13.166   8.409
42426SOL    HW129117   3.840  13.255   8.375
42426SOL    HW229118   3.888  13.114   8.348
42427SOL     OW29119   7.409   7.681   6.080
42427SOL    HW129120   7.315   7.700   6.089
42427SOL    HW229121   7.418   7.646   5.992
42428SOL     OW29122   5.655   4.912   7.446
42428SOL    HW129123   5.628   4.985   7.502
42428SOL    HW229124   5.711   4.952   7.379
42429SOL     OW29125   2.687   7.625   6.454
42429SOL    HW129126   2.607   7.583   6.422
42429SOL    HW229127   2.659   7.712   6.483
42430SOL     OW29128  12.898  13.404   8.534
42430SOL    HW129129  12.981  13.452   8.533
42430SOL    HW229130  12.923  13.312   8.538
42431SOL     OW29131   5.602  12.135   7.664
42431SOL    HW129132   5.616  12.059   7.722
42431SOL    HW229133   5.609  12.099   7.576
42432SOL     OW29134  10.299   9.911  14.020
42432SOL    HW129135  10.221   9.858  14.037
42432SOL    HW229136  10.281   9.954  13.937
42433SOL     OW29137   4.248   1.655   0.294
42433SOL    HW129138   4.268   1.689   0.207
42433SOL    HW229139   4.329   1.663   0.343
42434SOL     OW29140  12.420   2.046   5.555
42434SOL    HW129141  12.338   2.074   5.597
42434SOL    HW229142  12.486   2.105   5.592
42435SOL     OW29143  12.142   6.670  11.461
42435SOL    HW129144  12.217   6.658  11.520
42435SOL    HW229145  12.089   6.738  11.503
42436SOL     OW29146   6.725  11.580  14.325
42436SOL    HW129147   6.776  11.512  14.369
42436SOL    HW229148   6.746  11.660  14.373
42437SOL     OW29149   4.767   1.944   3.641
42437SOL    HW129150   4.829   2.005   3.681
42437SOL    HW229151   4.786   1.860   3.683
42438SOL     OW29152   4.905   7.437  13.813
42438SOL    HW129153   4.860   7.517  13.839
42438SOL    HW229154   4.961   7.416  13.888
42439SOL     OW29155   2.236   3.080   0.121
42439SOL    HW129156   2.157   3.132   0.107
42439SOL    HW229157   2.208   3.008   0.177
42440SOL     OW29158   0.123   9.116   0.595
42440SOL    HW129159   0.050   9.160   0.550
42440SOL    HW229160   0.190   9.184   0.603
42441SOL     OW29161   6.722   3.360   1.069
42441SOL    HW129162   6.675   3.291   1.023
42441SOL    HW229163   6.653   3.422   1.095
42442SOL     OW29164  10.685  10.913   6.764
42442SOL    HW129165  10.598  10.892   6.799
42442SOL    HW229166  10.685  11.008   6.756
42443SOL     OW29167  13.130   0.697  14.755
42443SOL    HW129168  13.147   0.786  14.788
42443SOL    HW229169  13.214   0.652  14.763
42444SOL     OW29170   6.701  13.574   3.925
42444SOL    HW129171   6.632  13.610   3.868
42444SOL    HW229172   6.781  13.618   3.896
42445SOL     OW29173   9.071  14.090   4.098
42445SOL    HW129174   9.060  14.157   4.030
42445SOL    HW229175   8.982  14.058   4.114
42446SOL     OW29176   7.714  13.394   0.154
42446SOL    HW129177   7.786  13.341   0.189
42446SOL    HW229178   7.646  13.330   0.132
42447SOL     OW29179   9.861   2.589   7.254
42447SOL    HW129180   9.800   2.619   7.186
42447SOL    HW229181   9.929   2.541   7.206
42448SOL     OW29182   2.622   8.243   9.379
42448SOL    HW129183   2.712   8.274   9.387
42448SOL    HW229184   2.628   8.166   9.322
42449SOL     OW29185   4.761   5.758  12.277
42449SOL    HW129186   4.823   5.688  12.296
42449SOL    HW229187   4.712   5.726  12.201
42450SOL     OW29188  11.495   4.628   6.214
42450SOL    HW129189  11.400   4.632   6.203
42450SOL    HW229190  11.508   4.568   6.288
42451SOL     OW29191   4.179  14.797  13.389
42451SOL    HW129192   4.233   0.001  13.370
42451SOL    HW229193   4.210  14.731  13.327
42452SOL     OW29194  13.043  10.384   9.527
42452SOL    HW129195  13.102  10.459   9.529
42452SOL    HW229196  13.088  10.316   9.578
42453SOL     OW29197  14.026   7.286   2.664
42453SOL    HW129198  14.008   7.323   2.751
42453SOL    HW229199  14.107   7.237   2.676
42454SOL     OW29200   8.172   9.190   1.390
42454SOL    HW129201   8.165   9.179   1.295
42454SOL    HW229202   8.162   9.102   1.426
42455SOL     OW29203   9.348   0.390  11.659
42455SOL    HW129204   9.412   0.441  11.610
42455SOL    HW229205   9.379   0.300  11.652
42456SOL     OW29206   9.169   2.078   4.456
42456SOL    HW129207   9.228   2.091   4.382
42456SOL    HW229208   9.222   2.029   4.520
42457SOL     OW29209   6.058   8.971   1.407
42457SOL    HW129210   6.050   8.915   1.330
42457SOL    HW229211   6.124   9.036   1.382
42458SOL     OW29212   8.539   2.215   6.555
42458SOL    HW129213   8.560   2.200   6.462
42458SOL    HW229214   8.579   2.299   6.575
42459SOL     OW29215   1.444   1.305   0.868
42459SOL    HW129216   1.469   1.293   0.959
42459SOL    HW229217   1.513   1.361   0.832
42460SOL     OW29218  12.619  13.305   4.384
42460SOL    HW129219  12.564  13.275   4.456
42460SOL    HW229220  12.559  13.353   4.326
42461SOL     OW29221  13.499   7.056   3.305
42461SOL    HW129222  13.503   7.142   3.262
42461SOL    HW229223  13.564   7.003   3.260
42462SOL     OW29224   4.225  10.490   4.269
42462SOL    HW129225   4.174  10.560   4.311
42462SOL    HW229226   4.163  10.418   4.260
42463SOL     OW29227  13.143   4.806  11.468
42463SOL    HW129228  13.055   4.805  11.506
42463SOL    HW229229  13.195   4.860  11.529
42464SOL     OW29230  13.467   7.749  11.746
42464SOL    HW129231  13.455   7.654  11.754
42464SOL    HW229232  13.453   7.782  11.835
42465SOL     OW29233   7.418  10.081  13.940
42465SOL    HW129234   7.450   9.997  13.908
42465SOL    HW229235   7.455  10.089  14.028
42466SOL     OW29236   0.916   4.802   5.991
42466SOL    HW129237   0.980   4.872   6.002
42466SOL    HW229238   0.936   4.764   5.906
42467SOL     OW29239   3.189  10.251  10.839
42467SOL    HW129240   3.251  10.191  10.881
42467SOL    HW229241   3.103  10.220  10.866
42468SOL     OW29242   8.555   9.187   1.065
42468SOL    HW129243   8.514   9.101   1.057
42468SOL    HW229244   8.483   9.249   1.051
42469SOL     OW29245  10.867  11.433  10.733
42469SOL    HW129246  10.900  11.476  10.654
42469SOL    HW229247  10.916  11.475  10.805
42470SOL     OW29248   7.439  10.929   3.311
42470SOL    HW129249   7.413  10.922   3.219
42470SOL    HW229250   7.361  10.959   3.356
42471SOL     OW29251   7.279  14.246   4.531
42471SOL    HW129252   7.187  14.269   4.517
42471SOL    HW229253   7.312  14.228   4.443
42472SOL     OW29254  12.204  10.646   1.826
42472SOL    HW129255  12.248  10.567   1.856
42472SOL    HW229256  12.202  10.638   1.730
42473SOL     OW29257  14.374  14.276  12.739
42473SOL    HW129258  14.359  14.287  12.645
42473SOL    HW229259  14.351  14.362  12.776
42474SOL     OW29260   5.993  11.196   0.395
42474SOL    HW129261   6.038  11.167   0.475
42474SOL    HW229262   6.033  11.280   0.374
42475SOL     OW29263   3.930   4.529  11.297
42475SOL    HW129264   3.960   4.591  11.230
42475SOL    HW229265   3.990   4.455  11.291
42476SOL     OW29266   1.246   7.108   4.080
42476SOL    HW129267   1.181   7.126   4.013
42476SOL    HW229268   1.196   7.085   4.158
42477SOL     OW29269   4.740   2.686   3.293
42477SOL    HW129270   4.667   2.645   3.247
42477SOL    HW229271   4.774   2.617   3.350
42478SOL     OW29272   8.260  12.618  11.084
42478SOL    HW129273   8.186  12.664  11.047
42478SOL    HW229274   8.321  12.687  11.110
42479SOL     OW29275   8.946   7.618   6.298
42479SOL    HW129276   8.852   7.626   6.279
42479SOL    HW229277   8.988   7.617   6.212
42480SOL     OW29278  10.548  12.096  13.410
42480SOL    HW129279  10.491  12.095  13.487
42480SOL    HW229280  10.626  12.143  13.438
42481SOL     OW29281  13.519   4.833   0.265
42481SOL    HW129282  13.479   4.763   0.316
42481SOL    HW229283  13.609   4.839   0.298
42482SOL     OW29284   4.020   9.574  13.796
42482SOL    HW129285   3.937   9.578  13.748
42482SOL    HW229286   4.067   9.653  13.768
42483SOL     OW29287   2.842   4.176   6.655
42483SOL    HW129288   2.927   4.147   6.621
42483SOL    HW229289   2.786   4.183   6.578
42484SOL     OW29290   8.493  12.666   0.633
42484SOL    HW129291   8.583  12.698   0.635
42484SOL    HW229292   8.457  12.692   0.718
42485SOL     OW29293   5.905   0.384  10.674
42485SOL    HW129294   5.884   0.421  10.588
42485SOL    HW229295   5.924   0.292  10.656
42486SOL     OW29296  10.955   8.586  10.425
42486SOL    HW129297  10.950   8.634  10.508
42486SOL    HW229298  11.029   8.527  10.436
42487SOL     OW29299   2.314  12.293  11.633
42487SOL    HW129300   2.357  12.231  11.691
42487SOL    HW229301   2.380  12.315  11.568
42488SOL     OW29302  14.543   2.006   6.358
42488SOL    HW129303  14.570   2.037   6.444
42488SOL    HW229304  14.517   1.915   6.373
42489SOL     OW29305  10.624  10.450  12.658
42489SOL    HW129306  10.565  10.391  12.705
42489SOL    HW229307  10.674  10.393  12.600
42490SOL     OW29308   5.506   3.014  11.032
42490SOL    HW129309   5.464   3.068  10.965
42490SOL    HW229310   5.451   3.027  11.110
42491SOL     OW29311   9.124  10.642   5.289
42491SOL    HW129312   9.047  10.613   5.241
42491SOL    HW229313   9.124  10.589   5.369
42492SOL     OW29314   6.261   9.949   2.208
42492SOL    HW129315   6.296  10.029   2.248
42492SOL    HW229316   6.320   9.931   2.134
42493SOL     OW29317   1.385   4.230  10.157
42493SOL    HW129318   1.331   4.280  10.096
42493SOL    HW229319   1.357   4.139  10.146
42494SOL     OW29320   2.075   7.203   1.254
42494SOL    HW129321   2.083   7.120   1.301
42494SOL    HW229322   2.139   7.260   1.296
42495SOL     OW29323   2.371   7.617   3.458
42495SOL    HW129324   2.300   7.633   3.520
42495SOL    HW229325   2.424   7.549   3.499
42496SOL     OW29326   4.810   1.090   2.929
42496SOL    HW129327   4.789   1.080   3.022
42496SOL    HW229328   4.732   1.132   2.892
42497SOL     OW29329   8.287   3.469   1.489
42497SOL    HW129330   8.222   3.439   1.552
42497SOL    HW229331   8.250   3.447   1.404
42498SOL     OW29332   2.952   9.628  10.620
42498SOL    HW129333   3.009   9.552  10.630
42498SOL    HW229334   2.877   9.609  10.677
42499SOL     OW29335   0.849   3.910   4.263
42499SOL    HW129336   0.757   3.935   4.276
42499SOL    HW229337   0.875   3.870   4.346
42500SOL     OW29338  10.294  10.897  10.421
42500SOL    HW129339  10.283  10.966  10.356
42500SOL    HW229340  10.296  10.816  10.370
42501SOL     OW29341   2.841   3.426   2.232
42501SOL    HW129342   2.783   3.354   2.206
42501SOL    HW229343   2.891   3.390   2.306
42502SOL     OW29344   9.858   8.361  10.706
42502SOL    HW129345   9.807   8.320  10.637
42502SOL    HW229346   9.882   8.447  10.671
42503SOL     OW29347   6.617  12.757   9.087
42503SOL    HW129348   6.663  12.693   9.033
42503SOL    HW229349   6.616  12.719   9.175
42504SOL     OW29350  10.164   3.463   8.176
42504SOL    HW129351  10.171   3.491   8.085
42504SOL    HW229352  10.224   3.521   8.223
42505SOL     OW29353  13.349  10.575   6.338
42505SOL    HW129354  13.418  10.615   6.390
42505SOL    HW229355  13.275  10.567   6.397
42506SOL     OW29356  13.054   1.945   0.444
42506SOL    HW129357  13.117   1.881   0.477
42506SOL    HW229358  13.003   1.971   0.521
42507SOL     OW29359   5.299  14.711   4.219
42507SOL    HW129360   5.346  14.627   4.218
42507SOL    HW229361   5.339  14.761   4.148
42508SOL     OW29362   4.693   4.087  10.989
42508SOL    HW129363   4.724   4.083  11.080
42508SOL    HW229364   4.773   4.079  10.937
42509SOL     OW29365   1.243   9.907   2.199
42509SOL    HW129366   1.197   9.957   2.131
42509SOL    HW229367   1.207   9.940   2.281
42510SOL     OW29368   7.812  14.388   6.976
42510SOL    HW129369   7.899  14.426   6.962
42510SOL    HW229370   7.822  14.334   7.053
42511SOL     OW29371   1.827  10.221   5.103
42511SOL    HW129372   1.858  10.312   5.102
42511SOL    HW229373   1.761  10.220   5.172
42512SOL     OW29374   5.482  14.499  11.143
42512SOL    HW129375   5.482  14.587  11.106
42512SOL    HW229376   5.399  14.493  11.191
42513SOL     OW29377   3.255  14.039   9.376
42513SOL    HW129378   3.311  13.986   9.321
42513SOL    HW229379   3.202  14.090   9.315
42514SOL     OW29380   8.141   5.312  14.077
42514SOL    HW129381   8.236   5.315  14.080
42514SOL    HW229382   8.117   5.230  14.120
42515SOL     OW29383  13.779   9.009   9.965
42515SOL    HW129384  13.850   8.998  10.029
42515SOL    HW229385  13.701   8.980  10.012
42516SOL     OW29386   9.306   4.344   4.191
42516SOL    HW129387   9.328   4.264   4.144
42516SOL    HW229388   9.334   4.414   4.132
42517SOL     OW29389  13.602   8.757  13.705
42517SOL    HW129390  13.541   8.742  13.633
42517SOL    HW229391  13.677   8.702  13.684
42518SOL     OW29392   4.067   7.698  12.016
42518SOL    HW129393   4.021   7.660  12.091
42518SOL    HW229394   4.123   7.765  12.055
42519SOL     OW29395   3.937   0.202   9.947
42519SOL    HW129396   4.020   0.168   9.980
42519SOL    HW229397   3.881   0.125   9.939
42520SOL     OW29398  13.702  13.372  12.058
42520SOL    HW129399  13.773  13.317  12.091
42520SOL    HW229400  13.640  13.376  12.130
42521SOL     OW29401   9.187   2.436   7.058
42521SOL    HW129402   9.190   2.532   7.054
42521SOL    HW229403   9.128   2.411   6.987
42522SOL     OW29404   8.622   7.547   6.778
42522SOL    HW129405   8.688   7.615   6.783
42522SOL    HW229406   8.554   7.574   6.840
42523SOL     OW29407  11.968   4.588  14.796
42523SOL    HW129408  11.958   4.540  14.714
42523SOL    HW229409  11.880   4.622  14.815
42524SOL     OW29410   8.080  12.780   9.037
42524SOL    HW129411   8.038  12.857   8.997
42524SOL    HW229412   8.171  12.806   9.049
42525SOL     OW29413   3.932  13.643   2.349
42525SOL    HW129414   3.954  13.586   2.423
42525SOL    HW229415   3.841  13.622   2.329
42526SOL     OW29416  13.390   2.359   2.587
42526SOL    HW129417  13.445   2.431   2.556
42526SOL    HW229418  13.311   2.401   2.619
42527SOL     OW29419   9.730   6.228  14.193
42527SOL    HW129420   9.661   6.286  14.225
42527SOL    HW229421   9.689   6.178  14.123
42528SOL     OW29422   3.556   8.671  12.332
42528SOL    HW129423   3.603   8.715  12.261
42528SOL    HW229424   3.466   8.703  12.323
42529SOL     OW29425   0.909   0.905   3.035
42529SOL    HW129426   0.879   0.905   3.126
42529SOL    HW229427   0.845   0.960   2.989
42530SOL     OW29428   0.216   4.284   9.728
42530SOL    HW129429   0.287   4.343   9.753
42530SOL    HW229430   0.235   4.262   9.637
42531SOL     OW29431   8.996  11.823  10.747
42531SOL    HW129432   8.970  11.913  10.725
42531SOL    HW229433   9.071  11.806  10.691
42532SOL     OW29434  12.084   8.821   1.422
42532SOL    HW129435  12.124   8.736   1.441
42532SOL    HW229436  12.157   8.882   1.418
42533SOL     OW29437   9.332  10.208   8.753
42533SOL    HW129438   9.314  10.298   8.725
42533SOL    HW229439   9.376  10.168   8.678
42534SOL     OW29440  10.839  10.975  10.400
42534SOL    HW129441  10.824  10.925  10.481
42534SOL    HW229442  10.820  11.065  10.423
42535SOL     OW29443   0.518   2.549   5.280
42535SOL    HW129444   0.425   2.561   5.264
42535SOL    HW229445   0.561   2.613   5.224
42536SOL     OW29446   5.627   3.364   4.348
42536SOL    HW129447   5.716   3.354   4.383
42536SOL    HW229448   5.612   3.284   4.298
42537SOL     OW29449  12.704   6.870   9.726
42537SOL    HW129450  12.662   6.952   9.753
42537SOL    HW229451  12.702   6.816   9.805
42538SOL     OW29452   4.868  12.382  14.059
42538SOL    HW129453   4.775  12.386  14.037
42538SOL    HW229454   4.898  12.473  14.056
42539SOL     OW29455   8.942   7.948   0.126
42539SOL    HW129456   8.911   8.028   0.084
42539SOL    HW229457   9.006   7.978   0.191
42540SOL     OW29458   8.885   8.187   3.961
42540SOL    HW129459   8.803   8.231   3.940
42540SOL    HW229460   8.932   8.249   4.017
42541SOL     OW29461  11.321   7.481  10.714
42541SOL    HW129462  11.396   7.430  10.683
42541SOL    HW229463  11.356   7.534  10.786
42542SOL     OW29464   4.391   5.468  10.080
42542SOL    HW129465   4.368   5.542  10.137
42542SOL    HW229466   4.414   5.508   9.996
42543SOL     OW29467  13.169   6.678   8.013
42543SOL    HW129468  13.210   6.718   8.090
42543SOL    HW229469  13.197   6.733   7.940
42544SOL     OW29470   2.216   6.942   6.189
42544SOL    HW129471   2.209   6.849   6.169
42544SOL    HW229472   2.309   6.956   6.207
42545SOL     OW29473   1.564   1.016   0.885
42545SOL    HW129474   1.580   1.071   0.808
42545SOL    HW229475   1.481   1.048   0.921
42546SOL     OW29476   9.514   7.324   3.619
42546SOL    HW129477   9.502   7.417   3.599
42546SOL    HW229478   9.495   7.318   3.713
42547SOL     OW29479   1.221   9.138   4.017
42547SOL    HW129480   1.302   9.091   4.036
42547SOL    HW229481   1.162   9.114   4.088
42548SOL     OW29482   5.235   6.405   7.075
42548SOL    HW129483   5.193   6.371   6.995
42548SOL    HW229484   5.263   6.326   7.122
42549SOL     OW29485   5.188  12.910   0.849
42549SOL    HW129486   5.282  12.920   0.863
42549SOL    HW229487   5.178  12.819   0.820
42550SOL     OW29488   2.585   8.957   8.893
42550SOL    HW129489   2.643   9.015   8.942
42550SOL    HW229490   2.610   8.970   8.801
42551SOL     OW29491   1.674  10.981  13.423
42551SOL    HW129492   1.680  10.919  13.495
42551SOL    HW229493   1.628  10.933  13.354
42552SOL     OW29494   6.651   8.197   1.023
42552SOL    HW129495   6.560   8.194   0.992
42552SOL    HW229496   6.703   8.209   0.943
42553SOL     OW29497  12.993   8.000   6.205
42553SOL    HW129498  13.057   8.039   6.264
42553SOL    HW229499  13.038   7.993   6.121
42554SOL     OW29500  14.239  12.885  13.366
42554SOL    HW129501  14.237  12.960  13.425
42554SOL    HW229502  14.253  12.923  13.279
42555SOL     OW29503   3.541   6.611  11.684
42555SOL    HW129504   3.584   6.530  11.655
42555SOL    HW229505   3.512   6.652  11.603
42556SOL     OW29506  12.763   8.539   4.374
42556SOL    HW129507  12.748   8.552   4.468
42556SOL    HW229508  12.696   8.593   4.332
42557SOL     OW29509  11.375  13.461   7.538
42557SOL    HW129510  11.396  13.432   7.627
42557SOL    HW229511  11.460  13.467   7.494
42558SOL     OW29512   9.345   6.963   2.110
42558SOL    HW129513   9.288   7.039   2.105
42558SOL    HW229514   9.399   6.968   2.031
42559SOL     OW29515   0.213   1.946  10.851
42559SOL    HW129516   0.306   1.923  10.848
42559SOL    HW229517   0.201   1.991  10.935
42560SOL     OW29518   8.432   0.970   3.073
42560SOL    HW129519   8.386   0.887   3.082
42560SOL    HW229520   8.523   0.949   3.093
42561SOL     OW29521   7.422   2.900   9.012
42561SOL    HW129522   7.382   2.836   8.953
42561SOL    HW229523   7.386   2.879   9.098
42562SOL     OW29524   7.961   1.201   7.883
42562SOL    HW129525   7.927   1.124   7.930
42562SOL    HW229526   7.929   1.189   7.793
42563SOL     OW29527  12.465   4.428  14.828
42563SOL    HW129528  12.376   4.437  14.792
42563SOL    HW229529  12.454   4.372   0.031
42564SOL     OW29530  12.999  13.025   1.062
42564SOL    HW129531  13.053  13.027   0.983
42564SOL    HW229532  12.913  12.997   1.031
42565SOL     OW29533   6.868   4.862   5.403
42565SOL    HW129534   6.847   4.769   5.412
42565SOL    HW229535   6.929   4.866   5.329
42566SOL     OW29536  10.861  13.384   8.339
42566SOL    HW129537  10.876  13.465   8.387
42566SOL    HW229538  10.795  13.406   8.274
42567SOL     OW29539  10.663   1.743   9.147
42567SOL    HW129540  10.746   1.708   9.179
42567SOL    HW229541  10.686   1.829   9.110
42568SOL     OW29542   3.548   2.870   4.242
42568SOL    HW129543   3.580   2.958   4.224
42568SOL    HW229544   3.539   2.829   4.156
42569SOL     OW29545   2.699   1.817   0.135
42569SOL    HW129546   2.737   1.861   0.058
42569SOL    HW229547   2.711   1.879   0.206
42570SOL     OW29548  13.404   1.701   0.771
42570SOL    HW129549  13.353   1.649   0.709
42570SOL    HW229550  13.376   1.792   0.756
42571SOL     OW29551   7.702   8.989   0.320
42571SOL    HW129552   7.623   8.961   0.274
42571SOL    HW229553   7.670   9.023   0.404
42572SOL     OW29554   3.874   1.777   6.665
42572SOL    HW129555   3.878   1.866   6.630
42572SOL    HW229556   3.807   1.733   6.613
42573SOL     OW29557   0.005   2.022   6.462
42573SOL    HW129558   0.039   2.053   6.379
42573SOL    HW229559   0.083   2.017   6.519
42574SOL     OW29560   4.094   8.644  14.024
42574SOL    HW129561   4.144   8.580  14.073
42574SOL    HW229562   4.046   8.593  13.959
42575SOL     OW29563   0.480   9.450   3.510
42575SOL    HW129564   0.549   9.474   3.572
42575SOL    HW229565   0.414   9.407   3.564
42576SOL     OW29566   8.494  12.288  11.144
42576SOL    HW129567   8.524  12.226  11.077
42576SOL    HW229568   8.569  12.345  11.159
42577SOL     OW29569  11.531   5.964   4.213
42577SOL    HW129570  11.600   5.991   4.152
42577SOL    HW229571  11.522   6.038   4.273
42578SOL     OW29572   5.868   6.300   4.424
42578SOL    HW129573   5.867   6.316   4.518
42578SOL    HW229574   5.884   6.386   4.385
42579SOL     OW29575   0.961  14.860  10.189
42579SOL    HW129576   1.033   0.039  10.153
42579SOL    HW229577   0.947  14.790  10.125
42580SOL     OW29578   4.500   1.721   7.144
42580SOL    HW129579   4.549   1.651   7.186
42580SOL    HW229580   4.548   1.739   7.063
42581SOL     OW29581   8.427  11.320   2.266
42581SOL    HW129582   8.391  11.298   2.180
42581SOL    HW229583   8.510  11.363   2.246
42582SOL     OW29584  10.708  10.400  10.041
42582SOL    HW129585  10.619  10.436  10.048
42582SOL    HW229586  10.730  10.410   9.948
42583SOL     OW29587   0.009  12.239  11.363
42583SOL    HW129588   0.089  12.268  11.319
42583SOL    HW229589  14.868  12.303  11.433
42584SOL     OW29590   1.925  11.046  11.886
42584SOL    HW129591   1.864  11.118  11.868
42584SOL    HW229592   1.904  11.020  11.975
42585SOL     OW29593   4.979   0.495   9.020
42585SOL    HW129594   4.946   0.505   8.931
42585SOL    HW229595   5.056   0.552   9.023
42586SOL     OW29596   8.322  12.540   5.758
42586SOL    HW129597   8.249  12.479   5.770
42586SOL    HW229598   8.339  12.574   5.846
42587SOL     OW29599   6.132   1.123   0.176
42587SOL    HW129600   6.208   1.069   0.198
42587SOL    HW229601   6.057   1.064   0.189
42588SOL     OW29602  11.930   3.590  12.851
42588SOL    HW129603  11.876   3.631  12.784
42588SOL    HW229604  11.997   3.542  12.802
42589SOL     OW29605  11.529  11.099  12.881
42589SOL    HW129606  11.495  11.130  12.797
42589SOL    HW229607  11.451  11.075  12.931
42590SOL     OW29608  13.980   9.715   5.968
42590SOL    HW129609  14.003   9.808   5.956
42590SOL    HW229610  13.888   9.716   5.992
42591SOL     OW29611   9.183  13.635   5.621
42591SOL    HW129612   9.278  13.631   5.632
42591SOL    HW229613   9.150  13.668   5.704
42592SOL     OW29614   0.006   1.221   1.576
42592SOL    HW129615   0.065   1.292   1.604
42592SOL    HW229616   0.007   1.226   1.480
42593SOL     OW29617   9.088   8.711   4.115
42593SOL    HW129618   9.020   8.700   4.181
42593SOL    HW229619   9.155   8.765   4.158
42594SOL     OW29620   4.504   9.833   4.606
42594SOL    HW129621   4.518   9.920   4.568
42594SOL    HW229622   4.536   9.840   4.695
42595SOL     OW29623  11.738  10.493  13.671
42595SOL    HW129624  11.683  10.422  13.703
42595SOL    HW229625  11.709  10.509  13.582
42596SOL     OW29626   2.435   4.486   6.398
42596SOL    HW129627   2.483   4.543   6.459
42596SOL    HW229628   2.415   4.542   6.323
42597SOL     OW29629   3.586  10.895  14.391
42597SOL    HW129630   3.548  10.970  14.347
42597SOL    HW229631   3.537  10.887  14.472
42598SOL     OW29632  13.101   6.123   6.017
42598SOL    HW129633  13.076   6.195   6.075
42598SOL    HW229634  13.093   6.045   6.072
42599SOL     OW29635  11.576   5.267  11.992
42599SOL    HW129636  11.647   5.307  12.043
42599SOL    HW229637  11.497   5.290  12.040
42600SOL     OW29638   5.385   3.588   1.062
42600SOL    HW129639   5.333   3.668   1.054
42600SOL    HW229640   5.389   3.571   1.156
42601SOL     OW29641  10.359   8.093  10.630
42601SOL    HW129642  10.310   8.169  10.599
42601SOL    HW229643  10.294   8.041  10.678
42602SOL     OW29644  13.962   5.217   1.168
42602SOL    HW129645  13.871   5.224   1.138
42602SOL    HW229646  13.958   5.163   1.246
42603SOL     OW29647   2.954   2.193   9.611
42603SOL    HW129648   2.886   2.227   9.669
42603SOL    HW229649   2.970   2.104   9.642
42604SOL     OW29650   1.296   3.919  10.043
42604SOL    HW129651   1.377   3.931  10.093
42604SOL    HW229652   1.254   3.843  10.082
42605SOL     OW29653  13.893  10.362  10.773
42605SOL    HW129654  13.880  10.267  10.780
42605SOL    HW229655  13.922  10.389  10.860
42606SOL     OW29656   0.040   7.841  12.153
42606SOL    HW129657   0.004   7.864  12.067
42606SOL    HW229658  14.839   7.851  12.213
42607SOL     OW29659  14.594   6.856  13.146
42607SOL    HW129660  14.592   6.900  13.061
42607SOL    HW229661  14.502   6.833  13.163
42608SOL     OW29662   8.163  10.970   2.668
42608SOL    HW129663   8.153  11.003   2.579
42608SOL    HW229664   8.221  10.894   2.659
42609SOL     OW29665   6.512   6.778   1.904
42609SOL    HW129666   6.545   6.707   1.850
42609SOL    HW229667   6.417   6.766   1.905
42610SOL     OW29668   3.056   2.768   8.522
42610SOL    HW129669   3.066   2.683   8.480
42610SOL    HW229670   3.066   2.750   8.616
42611SOL     OW29671  14.441   8.153   8.246
42611SOL    HW129672  14.369   8.116   8.298
42611SOL    HW229673  14.402   8.167   8.159
42612SOL     OW29674  13.672   2.275   3.121
42612SOL    HW129675  13.605   2.261   3.187
42612SOL    HW229676  13.639   2.347   3.067
42613SOL     OW29677   0.133   6.234   8.945
42613SOL    HW129678   0.103   6.256   8.856
42613SOL    HW229679   0.157   6.318   8.984
42614SOL     OW29680  11.832   8.387   5.851
42614SOL    HW129681  11.746   8.412   5.819
42614SOL    HW229682  11.814   8.340   5.933
42615SOL     OW29683   2.912   7.534  13.917
42615SOL    HW129684   2.989   7.588  13.939
42615SOL    HW229685   2.837   7.590  13.938
42616SOL     OW29686   2.607   2.205   3.034
42616SOL    HW129687   2.545   2.231   2.966
42616SOL    HW229688   2.560   2.142   3.087
42617SOL     OW29689   0.400   7.227   7.031
42617SOL    HW129690   0.493   7.229   7.051
42617SOL    HW229691   0.380   7.135   7.017
42618SOL     OW29692  10.569   7.562   7.706
42618SOL    HW129693  10.502   7.605   7.653
42618SOL    HW229694  10.650   7.577   7.658
42619SOL     OW29695   4.507   2.606   9.139
42619SOL    HW129696   4.487   2.515   9.158
42619SOL    HW229697   4.440   2.656   9.185
42620SOL     OW29698   7.133   6.757  13.807
42620SOL    HW129699   7.044   6.772  13.840
42620SOL    HW229700   7.152   6.666  13.830
42621SOL     OW29701   2.761   3.111   2.460
42621SOL    HW129702   2.715   3.171   2.519
42621SOL    HW229703   2.753   3.152   2.374
42622SOL     OW29704   0.718  13.906   0.611
42622SOL    HW129705   0.688  13.824   0.651
42622SOL    HW229706   0.662  13.917   0.534
42623SOL     OW29707   5.586   7.750   6.767
42623SOL    HW129708   5.616   7.840   6.780
42623SOL    HW229709   5.517   7.757   6.701
42624SOL     OW29710   6.718   2.604   3.503
42624SOL    HW129711   6.664   2.550   3.560
42624SOL    HW229712   6.707   2.566   3.416
42625SOL     OW29713   6.253  11.166   8.222
42625SOL    HW129714   6.264  11.167   8.317
42625SOL    HW229715   6.279  11.254   8.194
42626SOL     OW29716  14.634   7.324   4.018
42626SOL    HW129717  14.614   7.330   4.111
42626SOL    HW229718  14.719   7.280   4.014
42627SOL     OW29719   0.246   3.897   1.498
42627SOL    HW129720   0.164   3.935   1.468
42627SOL    HW229721   0.298   3.971   1.529
42628SOL     OW29722   5.754  12.897  11.489
42628SOL    HW129723   5.729  12.974  11.438
42628SOL    HW229724   5.810  12.931  11.558
42629SOL     OW29725  12.127   9.536   6.803
42629SOL    HW129726  12.068   9.482   6.750
42629SOL    HW229727  12.073   9.611   6.830
42630SOL     OW29728   8.909   9.539  12.568
42630SOL    HW129729   8.966   9.468  12.597
42630SOL    HW229730   8.849   9.554  12.641
42631SOL     OW29731   3.437  12.207   3.412
42631SOL    HW129732   3.470  12.176   3.496
42631SOL    HW229733   3.472  12.145   3.348
42632SOL     OW29734  12.155  13.921   7.066
42632SOL    HW129735  12.180  13.863   7.138
42632SOL    HW229736  12.137  14.005   7.109
42633SOL     OW29737   9.308   3.419  14.051
42633SOL    HW129738   9.252   3.495  14.066
42633SOL    HW229739   9.248   3.351  14.020
42634SOL     OW29740   5.618   4.967   9.327
42634SOL    HW129741   5.682   5.034   9.302
42634SOL    HW229742   5.572   4.945   9.245
42635SOL     OW29743   0.432  13.571  14.175
42635SOL    HW129744   0.511  13.599  14.222
42635SOL    HW229745   0.369  13.641  14.191
42636SOL     OW29746   2.869   9.110   5.608
42636SOL    HW129747   2.810   9.183   5.626
42636SOL    HW229748   2.939   9.120   5.673
42637SOL     OW29749  11.174  12.033   7.589
42637SOL    HW129750  11.102  12.068   7.643
42637SOL    HW229751  11.159  12.071   7.503
42638SOL     OW29752   0.255  10.827  12.818
42638SOL    HW129753   0.182  10.769  12.794
42638SOL    HW229754   0.312  10.773  12.872
42639SOL     OW29755   9.784  13.852   0.730
42639SOL    HW129756   9.825  13.938   0.728
42639SOL    HW229757   9.856  13.790   0.718
42640SOL     OW29758  11.803   8.222   9.449
42640SOL    HW129759  11.872   8.194   9.509
42640SOL    HW229760  11.726   8.173   9.475
42641SOL     OW29761   1.915   5.878   2.641
42641SOL    HW129762   1.826   5.866   2.608
42641SOL    HW229763   1.971   5.872   2.563
42642SOL     OW29764   3.001  14.524   6.551
42642SOL    HW129765   3.007  14.509   6.645
42642SOL    HW229766   2.975  14.615   6.543
42643SOL     OW29767   3.358   6.709   1.245
42643SOL    HW129768   3.442   6.692   1.288
42643SOL    HW229769   3.346   6.804   1.254
42644SOL     OW29770  13.113   0.452   6.143
42644SOL    HW129771  13.203   0.477   6.164
42644SOL    HW229772  13.104   0.470   6.049
42645SOL     OW29773   9.575   6.939  11.514
42645SOL    HW129774   9.565   6.866  11.574
42645SOL    HW229775   9.531   6.911  11.434
42646SOL     OW29776   6.512   1.433   1.317
42646SOL    HW129777   6.439   1.437   1.255
42646SOL    HW229778   6.479   1.381   1.390
42647SOL     OW29779  10.399   0.375  13.801
42647SOL    HW129780  10.430   0.463  13.779
42647SOL    HW229781  10.315   0.367  13.755
42648SOL     OW29782   2.349   4.374   8.124
42648SOL    HW129783   2.369   4.285   8.095
42648SOL    HW229784   2.376   4.430   8.051
42649SOL     OW29785   8.546   9.741   7.894
42649SOL    HW129786   8.564   9.771   7.983
42649SOL    HW229787   8.622   9.771   7.844
42650SOL     OW29788   6.117  12.470   5.253
42650SOL    HW129789   6.075  12.552   5.278
42650SOL    HW229790   6.197  12.496   5.208
42651SOL     OW29791   7.460   2.571   7.139
42651SOL    HW129792   7.483   2.664   7.142
42651SOL    HW229793   7.425   2.557   7.051
42652SOL     OW29794   7.812  12.404   2.273
42652SOL    HW129795   7.788  12.394   2.366
42652SOL    HW229796   7.781  12.491   2.249
42653SOL     OW29797  12.496   8.400  14.259
42653SOL    HW129798  12.472   8.492  14.265
42653SOL    HW229799  12.432   8.362  14.199
42654SOL     OW29800   7.642   0.613   3.092
42654SOL    HW129801   7.624   0.528   3.053
42654SOL    HW229802   7.734   0.629   3.073
42655SOL     OW29803   1.389  14.144   4.563
42655SOL    HW129804   1.390  14.198   4.642
42655SOL    HW229805   1.460  14.081   4.576
42656SOL     OW29806   9.497   3.716   3.368
42656SOL    HW129807   9.517   3.805   3.396
42656SOL    HW229808   9.545   3.706   3.285
42657SOL     OW29809  10.246   4.822  13.783
42657SOL    HW129810  10.246   4.737  13.825
42657SOL    HW229811  10.303   4.812  13.707
42658SOL     OW29812  10.074   5.307   7.894
42658SOL    HW129813   9.983   5.322   7.866
42658SOL    HW229814  10.065   5.256   7.975
42659SOL     OW29815   6.389   5.226   4.305
42659SOL    HW129816   6.427   5.143   4.335
42659SOL    HW229817   6.333   5.201   4.232
42660SOL     OW29818  11.660  11.778  11.752
42660SOL    HW129819  11.664  11.837  11.677
42660SOL    HW229820  11.681  11.692  11.716
42661SOL     OW29821  11.872  11.968   2.865
42661SOL    HW129822  11.887  11.948   2.772
42661SOL    HW229823  11.930  12.041   2.883
42662SOL     OW29824  14.071  14.137   1.175
42662SOL    HW129825  14.091  14.160   1.085
42662SOL    HW229826  14.088  14.043   1.180
42663SOL     OW29827   9.089   8.472   7.705
42663SOL    HW129828   9.037   8.426   7.770
42663SOL    HW229829   9.139   8.537   7.756
42664SOL     OW29830   0.661   0.794   8.338
42664SOL    HW129831   0.707   0.741   8.273
42664SOL    HW229832   0.730   0.833   8.392
42665SOL     OW29833   8.116   7.650   9.239
42665SOL    HW129834   8.166   7.657   9.321
42665SOL    HW229835   8.025   7.655   9.266
42666SOL     OW29836   9.757   9.804  10.978
42666SOL    HW129837   9.745   9.873  11.042
42666SOL    HW229838   9.718   9.726  11.018
42667SOL     OW29839   0.116   3.828   2.927
42667SOL    HW129840   0.203   3.810   2.961
42667SOL    HW229841   0.062   3.755   2.957
42668SOL     OW29842  11.479   1.951   7.462
42668SOL    HW129843  11.440   1.901   7.534
42668SOL    HW229844  11.416   2.021   7.444
42669SOL     OW29845   8.650   5.466   6.102
42669SOL    HW129846   8.697   5.475   6.019
42669SOL    HW229847   8.609   5.551   6.116
42670SOL     OW29848   9.240  13.918   9.663
42670SOL    HW129849   9.187  13.955   9.592
42670SOL    HW229850   9.252  13.827   9.638
42671SOL     OW29851  13.915   4.004   4.883
42671SOL    HW129852  13.918   4.098   4.904
42671SOL    HW229853  14.007   3.978   4.879
42672SOL     OW29854   1.433   5.074   6.532
42672SOL    HW129855   1.407   5.036   6.616
42672SOL    HW229856   1.529   5.076   6.537
42673SOL     OW29857  11.653   9.253   3.912
42673SOL    HW129858  11.711   9.274   3.838
42673SOL    HW229859  11.654   9.332   3.967
42674SOL     OW29860  12.245   2.253   5.719
42674SOL    HW129861  12.206   2.319   5.661
42674SOL    HW229862  12.337   2.278   5.724
42675SOL     OW29863   1.644  10.473   8.789
42675SOL    HW129864   1.557  10.480   8.828
42675SOL    HW229865   1.691  10.413   8.848
42676SOL     OW29866   9.589  10.473  13.848
42676SOL    HW129867   9.493  10.467  13.844
42676SOL    HW229868   9.611  10.536  13.780
42677SOL     OW29869   9.315   5.852  14.749
42677SOL    HW129870   9.366   5.842  14.830
42677SOL    HW229871   9.381   5.850  14.680
42678SOL     OW29872   5.723  14.654   6.474
42678SOL    HW129873   5.760  14.578   6.518
42678SOL    HW229874   5.705  14.623   6.385
42679SOL     OW29875   7.047  12.521  10.573
42679SOL    HW129876   7.120  12.489  10.520
42679SOL    HW229877   7.085  12.592  10.625
42680SOL     OW29878   0.627  13.070   1.387
42680SOL    HW129879   0.622  13.056   1.481
42680SOL    HW229880   0.695  13.137   1.377
42681SOL     OW29881   2.629   1.342   7.713
42681SOL    HW129882   2.652   1.368   7.624
42681SOL    HW229883   2.534   1.340   7.714
42682SOL     OW29884  11.558   0.950   6.667
42682SOL    HW129885  11.500   0.938   6.592
42682SOL    HW229886  11.513   0.905   6.739
42683SOL     OW29887   0.156   1.488   3.475
42683SOL    HW129888   0.101   1.553   3.519
42683SOL    HW229889   0.135   1.498   3.383
42684SOL     OW29890   4.148   2.900  10.145
42684SOL    HW129891   4.211   2.933  10.080
42684SOL    HW229892   4.202   2.849  10.206
42685SOL     OW29893   0.959   8.294   1.672
42685SOL    HW129894   0.893   8.296   1.741
42685SOL    HW229895   1.031   8.347   1.706
42686SOL     OW29896  13.275   9.335   6.341
42686SOL    HW129897  13.347   9.395   6.320
42686SOL    HW229898  13.235   9.315   6.256
42687SOL     OW29899  12.900  11.917  14.109
42687SOL    HW129900  12.807  11.896  14.101
42687SOL    HW229901  12.927  11.872  14.189
42688SOL     OW29902  13.762   7.716   6.366
42688SOL    HW129903  13.782   7.649   6.301
42688SOL    HW229904  13.824   7.699   6.438
42689SOL     OW29905  10.388   1.358  13.678
42689SOL    HW129906  10.359   1.423  13.613
42689SOL    HW229907  10.420   1.410  13.752
42690SOL     OW29908   0.318   2.791   8.520
42690SOL    HW129909   0.348   2.718   8.575
42690SOL    HW229910   0.228   2.806   8.547
42691SOL     OW29911   0.137  12.136   5.207
42691SOL    HW129912   0.139  12.040   5.218
42691SOL    HW229913   0.065  12.165   5.262
42692SOL     OW29914  11.411   9.954  14.731
42692SOL    HW129915  11.423   9.868  14.770
42692SOL    HW229916  11.450  10.015  14.794
42693SOL     OW29917  11.928  10.453  12.830
42693SOL    HW129918  11.914  10.527  12.889
42693SOL    HW229919  11.862  10.389  12.856
42694SOL     OW29920  11.960   1.004   6.947
42694SOL    HW129921  11.959   0.916   6.910
42694SOL    HW229922  11.891   1.050   6.900
42695SOL     OW29923   9.269   7.689  11.893
42695SOL    HW129924   9.225   7.660  11.973
42695SOL    HW229925   9.249   7.783  11.888
42696SOL     OW29926  12.222  12.856  10.754
42696SOL    HW129927  12.157  12.788  10.777
42696SOL    HW229928  12.170  12.936  10.747
42697SOL     OW29929   1.069  14.720   2.610
42697SOL    HW129930   1.065  14.625   2.625
42697SOL    HW229931   1.128  14.752   2.678
42698SOL     OW29932   6.636  13.121   1.694
42698SOL    HW129933   6.583  13.071   1.756
42698SOL    HW229934   6.662  13.056   1.628
42699SOL     OW29935   4.622   3.816   5.344
42699SOL    HW129936   4.543   3.836   5.294
42699SOL    HW229937   4.655   3.734   5.306
42700SOL     OW29938   1.833   8.002  14.604
42700SOL    HW129939   1.842   8.082  14.552
42700SOL    HW229940   1.819   7.933  14.539
42701SOL     OW29941   5.006  13.913   1.303
42701SOL    HW129942   5.001  13.840   1.241
42701SOL    HW229943   4.962  13.881   1.382
42702SOL     OW29944   1.147   2.627  10.208
42702SOL    HW129945   1.238   2.602  10.226
42702SOL    HW229946   1.121   2.573  10.134
42703SOL     OW29947  12.625   1.664   4.900
42703SOL    HW129948  12.709   1.627   4.873
42703SOL    HW229949  12.562   1.594   4.884
42704SOL     OW29950   9.443   3.701  14.290
42704SOL    HW129951   9.391   3.642  14.344
42704SOL    HW229952   9.492   3.754  14.353
42705SOL     OW29953   7.119   3.764   4.503
42705SOL    HW129954   7.177   3.830   4.540
42705SOL    HW229955   7.172   3.685   4.497
42706SOL     OW29956  11.716  10.973  14.509
42706SOL    HW129957  11.728  11.056  14.554
42706SOL    HW229958  11.621  10.957  14.513
42707SOL     OW29959   4.972   6.098   8.572
42707SOL    HW129960   4.994   6.010   8.602
42707SOL    HW229961   5.036   6.117   8.504
42708SOL     OW29962   3.953   8.866   6.702
42708SOL    HW129963   3.988   8.778   6.715
42708SOL    HW229964   4.029   8.920   6.684
42709SOL     OW29965  12.217  14.407   7.263
42709SOL    HW129966  12.206  14.473   7.332
42709SOL    HW229967  12.301  14.365   7.283
42710SOL     OW29968   7.548   4.087   3.840
42710SOL    HW129969   7.613   4.113   3.906
42710SOL    HW229970   7.470   4.064   3.891
42711SOL     OW29971   9.945   0.636   3.259
42711SOL    HW129972  10.003   0.657   3.333
42711SOL    HW229973   9.874   0.700   3.266
42712SOL     OW29974   1.939   7.976  11.049
42712SOL    HW129975   1.939   7.880  11.060
42712SOL    HW229976   1.886   8.008  11.121
42713SOL     OW29977   9.278   6.532   2.963
42713SOL    HW129978   9.366   6.495   2.957
42713SOL    HW229979   9.283   6.593   3.037
42714SOL     OW29980  13.219  12.656   6.353
42714SOL    HW129981  13.124  12.645   6.360
42714SOL    HW229982  13.250  12.573   6.318
42715SOL     OW29983   2.039   9.386   5.787
42715SOL    HW129984   1.982   9.416   5.857
42715SOL    HW229985   2.105   9.454   5.779
42716SOL     OW29986   5.378   5.428   4.522
42716SOL    HW129987   5.294   5.386   4.507
42716SOL    HW229988   5.362   5.489   4.594
42717SOL     OW29989  11.477   4.798   0.652
42717SOL    HW129990  11.459   4.892   0.664
42717SOL    HW229991  11.459   4.759   0.737
42718SOL     OW29992  10.212  10.108   2.363
42718SOL    HW129993  10.166  10.121   2.446
42718SOL    HW229994  10.305  10.113   2.386
42719SOL     OW29995   1.170  12.120   1.959
42719SOL    HW129996   1.156  12.026   1.970
42719SOL    HW229997   1.086  12.160   1.980
42720SOL     OW29998  14.706  13.767  11.766
42720SOL    HW129999  14.712  13.807  11.853
42720SOL    HW230000  14.791  13.725  11.753
42721SOL     OW30001   4.468  13.774   3.395
42721SOL    HW130002   4.547  13.727   3.369
42721SOL    HW230003   4.401  13.706   3.402
42722SOL     OW30004  11.288  11.471   4.199
42722SOL    HW130005  11.348  11.467   4.124
42722SOL    HW230006  11.271  11.564   4.211
42723SOL     OW30007   0.888   9.051   8.943
42723SOL    HW130008   0.929   9.051   9.029
42723SOL    HW230009   0.853   8.962   8.933
42724SOL     OW30010  13.323   2.245   4.750
42724SOL    HW130011  13.245   2.298   4.736
42724SOL    HW230012  13.395   2.309   4.749
42725SOL     OW30013   2.641  10.866   1.395
42725SOL    HW130014   2.722  10.820   1.416
42725SOL    HW230015   2.586  10.853   1.473
42726SOL     OW30016  14.096  12.865  10.406
42726SOL    HW130017  14.044  12.822  10.338
42726SOL    HW230018  14.164  12.912  10.357
42727SOL     OW30019   5.035   0.265   5.743
42727SOL    HW130020   5.127   0.289   5.751
42727SOL    HW230021   4.995   0.299   5.823
42728SOL     OW30022  10.849   3.890   4.646
42728SOL    HW130023  10.852   3.797   4.668
42728SOL    HW230024  10.867   3.893   4.553
42729SOL     OW30025   7.472   4.175   3.021
42729SOL    HW130026   7.546   4.162   3.081
42729SOL    HW230027   7.462   4.270   3.017
42730SOL     OW30028  14.488   8.307   7.150
42730SOL    HW130029  14.532   8.350   7.076
42730SOL    HW230030  14.537   8.336   7.227
42731SOL     OW30031   0.973  11.195   2.690
42731SOL    HW130032   0.995  11.102   2.686
42731SOL    HW230033   1.055  11.240   2.672
42732SOL     OW30034   6.711  12.977  11.688
42732SOL    HW130035   6.791  12.980  11.635
42732SOL    HW230036   6.741  12.956  11.776
42733SOL     OW30037   4.858   4.292   7.919
42733SOL    HW130038   4.902   4.377   7.914
42733SOL    HW230039   4.906   4.245   7.987
42734SOL     OW30040   9.437   0.216  12.497
42734SOL    HW130041   9.360   0.163  12.477
42734SOL    HW230042   9.484   0.165  12.563
42735SOL     OW30043   6.683   4.023  12.170
42735SOL    HW130044   6.626   3.962  12.124
42735SOL    HW230045   6.645   4.030  12.258
42736SOL     OW30046  13.664  11.466   6.362
42736SOL    HW130047  13.586  11.522   6.371
42736SOL    HW230048  13.736  11.528   6.348
42737SOL     OW30049   9.271  13.475  11.147
42737SOL    HW130050   9.363  13.501  11.157
42737SOL    HW230051   9.261  13.398  11.203
42738SOL     OW30052   8.710   3.478   1.706
42738SOL    HW130053   8.711   3.547   1.640
42738SOL    HW230054   8.683   3.399   1.658
42739SOL     OW30055  14.723   6.196  14.263
42739SOL    HW130056  14.690   6.141  14.334
42739SOL    HW230057  14.646   6.211  14.208
42740SOL     OW30058  12.797   1.863   9.559
42740SOL    HW130059  12.786   1.797   9.491
42740SOL    HW230060  12.820   1.813   9.638
42741SOL     OW30061   9.994  13.087   3.358
42741SOL    HW130062   9.941  13.078   3.438
42741SOL    HW230063   9.938  13.136   3.298
42742SOL     OW30064   8.288   0.478  12.422
42742SOL    HW130065   8.237   0.523  12.355
42742SOL    HW230066   8.234   0.404  12.448
42743SOL     OW30067   5.646   1.812   5.618
42743SOL    HW130068   5.712   1.743   5.628
42743SOL    HW230069   5.673   1.860   5.540
42744SOL     OW30070  12.832   4.664   1.124
42744SOL    HW130071  12.905   4.645   1.065
42744SOL    HW230072  12.793   4.744   1.090
42745SOL     OW30073   1.383  12.156  11.259
42745SOL    HW130074   1.402  12.173  11.167
42745SOL    HW230075   1.429  12.074  11.278
42746SOL     OW30076  10.513   3.607   7.071
42746SOL    HW130077  10.430   3.635   7.033
42746SOL    HW230078  10.494   3.592   7.163
42747SOL     OW30079  11.558  14.539  11.862
42747SOL    HW130080  11.609  14.482  11.805
42747SOL    HW230081  11.489  14.482  11.896
42748SOL     OW30082   2.971  12.949   8.690
42748SOL    HW130083   3.015  13.019   8.642
42748SOL    HW230084   2.920  12.995   8.757
42749SOL     OW30085   2.794   4.660  13.451
42749SOL    HW130086   2.786   4.581  13.504
42749SOL    HW230087   2.704   4.689  13.437
42750SOL     OW30088  13.545   7.893   4.437
42750SOL    HW130089  13.613   7.905   4.371
42750SOL    HW230090  13.475   7.848   4.391
42751SOL     OW30091   4.213   7.710   7.592
42751SOL    HW130092   4.303   7.703   7.562
42751SOL    HW230093   4.220   7.753   7.677
42752SOL     OW30094   4.182  12.059   3.266
42752SOL    HW130095   4.157  12.050   3.174
42752SOL    HW230096   4.100  12.050   3.314
42753SOL     OW30097  10.305  10.195   8.091
42753SOL    HW130098  10.285  10.152   8.174
42753SOL    HW230099  10.398  10.179   8.077
42754SOL     OW30100   6.686  11.007  13.861
42754SOL    HW130101   6.602  11.049  13.843
42754SOL    HW230102   6.687  10.930  13.805
42755SOL     OW30103   3.702   1.834   5.505
42755SOL    HW130104   3.609   1.848   5.486
42755SOL    HW230105   3.739   1.802   5.423
42756SOL     OW30106   3.724  10.369  14.178
42756SOL    HW130107   3.805  10.398  14.220
42756SOL    HW230108   3.750  10.346  14.089
42757SOL     OW30109  12.589   2.964   3.815
42757SOL    HW130110  12.529   3.023   3.860
42757SOL    HW230111  12.609   2.896   3.879
42758SOL     OW30112   2.643  10.249   8.896
42758SOL    HW130113   2.632  10.184   8.966
42758SOL    HW230114   2.728  10.289   8.914
42759SOL     OW30115   0.150   8.835  14.339
42759SOL    HW130116   0.221   8.782  14.304
42759SOL    HW230117   0.091   8.849  14.265
42760SOL     OW30118   4.848   6.414   2.330
42760SOL    HW130119   4.757   6.404   2.358
42760SOL    HW230120   4.871   6.329   2.292
42761SOL     OW30121  13.012   0.342   2.922
42761SOL    HW130122  13.004   0.373   2.832
42761SOL    HW230123  13.107   0.336   2.937
42762SOL     OW30124  13.295   8.047   7.495
42762SOL    HW130125  13.245   7.988   7.551
42762SOL    HW230126  13.229   8.107   7.459
42763SOL     OW30127   1.134  10.102   8.739
42763SOL    HW130128   1.160  10.010   8.747
42763SOL    HW230129   1.147  10.123   8.647
42764SOL     OW30130  14.837   7.139   1.076
42764SOL    HW130131  14.832   7.149   0.981
42764SOL    HW230132  14.748   7.153   1.106
42765SOL     OW30133   4.373   7.832   6.340
42765SOL    HW130134   4.296   7.852   6.287
42765SOL    HW230135   4.357   7.877   6.423
42766SOL     OW30136   5.003  10.159   5.977
42766SOL    HW130137   5.004  10.221   6.049
42766SOL    HW230138   5.088  10.116   5.981
42767SOL     OW30139   1.228   3.163  12.125
42767SOL    HW130140   1.259   3.077  12.156
42767SOL    HW230141   1.183   3.143  12.043
42768SOL     OW30142  10.549   1.887   1.058
42768SOL    HW130143  10.475   1.878   0.997
42768SOL    HW230144  10.526   1.961   1.113
42769SOL     OW30145   3.987   9.764   3.448
42769SOL    HW130146   3.920   9.764   3.379
42769SOL    HW230147   4.070   9.773   3.401
42770SOL     OW30148  13.916   2.525  10.083
42770SOL    HW130149  13.983   2.551  10.020
42770SOL    HW230150  13.947   2.559  10.167
42771SOL     OW30151  12.804  13.089  14.431
42771SOL    HW130152  12.711  13.110  14.438
42771SOL    HW230153  12.848  13.156  14.483
42772SOL     OW30154  14.599   3.546   5.562
42772SOL    HW130155  14.523   3.489   5.574
42772SOL    HW230156  14.655   3.528   5.637
42773SOL     OW30157   9.867  13.155   0.284
42773SOL    HW130158   9.834  13.243   0.301
42773SOL    HW230159   9.945  13.169   0.230
42774SOL     OW30160   3.530   4.658  13.399
42774SOL    HW130161   3.448   4.608  13.395
42774SOL    HW230162   3.502   4.749  13.404
42775SOL     OW30163   8.531   7.491   0.371
42775SOL    HW130164   8.510   7.517   0.282
42775SOL    HW230165   8.475   7.545   0.427
42776SOL     OW30166  10.296   0.822   3.273
42776SOL    HW130167  10.383   0.790   3.247
42776SOL    HW230168  10.238   0.791   3.204
42777SOL     OW30169   7.097   6.309   9.038
42777SOL    HW130170   7.164   6.287   8.973
42777SOL    HW230171   7.093   6.404   9.037
42778SOL     OW30172  13.674  11.718   8.984
42778SOL    HW130173  13.696  11.625   8.988
42778SOL    HW230174  13.744  11.761   9.033
42779SOL     OW30175  12.892   3.487   4.717
42779SOL    HW130176  12.851   3.509   4.800
42779SOL    HW230177  12.952   3.560   4.699
42780SOL     OW30178   3.388   4.375  12.351
42780SOL    HW130179   3.360   4.457  12.391
42780SOL    HW230180   3.368   4.308  12.417
42781SOL     OW30181   2.816   4.478   8.441
42781SOL    HW130182   2.808   4.569   8.468
42781SOL    HW230183   2.872   4.481   8.364
42782SOL     OW30184  14.370   9.174   0.048
42782SOL    HW130185  14.346   9.243   0.111
42782SOL    HW230186  14.430   9.118   0.097
42783SOL     OW30187   8.218   3.056  10.005
42783SOL    HW130188   8.166   3.011  10.071
42783SOL    HW230189   8.287   3.101  10.055
42784SOL     OW30190   9.588   9.599  13.102
42784SOL    HW130191   9.513   9.657  13.107
42784SOL    HW230192   9.656   9.651  13.059
42785SOL     OW30193   1.231   7.726   1.065
42785SOL    HW130194   1.294   7.700   0.997
42785SOL    HW230195   1.216   7.819   1.048
42786SOL     OW30196   7.888   2.821   5.164
42786SOL    HW130197   7.962   2.838   5.106
42786SOL    HW230198   7.855   2.908   5.186
42787SOL     OW30199   6.193  12.286  12.506
42787SOL    HW130200   6.238  12.271  12.424
42787SOL    HW230201   6.253  12.255  12.573
42788SOL     OW30202   8.517   4.578   1.297
42788SOL    HW130203   8.556   4.491   1.309
42788SOL    HW230204   8.516   4.617   1.384
42789SOL     OW30205   5.551   5.127  10.332
42789SOL    HW130206   5.558   5.133  10.237
42789SOL    HW230207   5.461   5.099  10.348
42790SOL     OW30208   8.604   1.053   2.751
42790SOL    HW130209   8.620   1.141   2.785
42790SOL    HW230210   8.656   1.049   2.671
42791SOL     OW30211  13.188   5.248  12.281
42791SOL    HW130212  13.262   5.193  12.257
42791SOL    HW230213  13.129   5.189  12.329
42792SOL     OW30214  14.706   1.210  12.857
42792SOL    HW130215  14.662   1.176  12.935
42792SOL    HW230216  14.799   1.208  12.879
42793SOL     OW30217  11.217   7.029   5.165
42793SOL    HW130218  11.177   7.079   5.094
42793SOL    HW230219  11.149   7.021   5.231
42794SOL     OW30220   1.714   4.583  13.507
42794SOL    HW130221   1.737   4.553  13.419
42794SOL    HW230222   1.623   4.613  13.500
42795SOL     OW30223   6.290   9.292  12.316
42795SOL    HW130224   6.300   9.225  12.383
42795SOL    HW230225   6.196   9.304  12.307
42796SOL     OW30226  11.608   8.161   8.649
42796SOL    HW130227  11.602   8.255   8.668
42796SOL    HW230228  11.665   8.156   8.572
42797SOL     OW30229  10.177   5.588   7.076
42797SOL    HW130230  10.134   5.634   7.149
42797SOL    HW230231  10.136   5.625   6.998
42798SOL     OW30232   8.113  10.703   7.582
42798SOL    HW130233   8.170  10.748   7.644
42798SOL    HW230234   8.170  10.680   7.508
42799SOL     OW30235   0.443   8.488  12.657
42799SOL    HW130236   0.476   8.404  12.625
42799SOL    HW230237   0.380   8.464  12.725
42800SOL     OW30238   4.950   2.611  11.667
42800SOL    HW130239   4.998   2.647  11.593
42800SOL    HW230240   4.998   2.641  11.744
42801SOL     OW30241   7.561  11.554  12.969
42801SOL    HW130242   7.614  11.487  13.011
42801SOL    HW230243   7.580  11.543  12.875
42802SOL     OW30244   0.051  12.055   0.240
42802SOL    HW130245   0.098  12.006   0.308
42802SOL    HW230246   0.074  12.147   0.257
42803SOL     OW30247   9.886  10.259   0.969
42803SOL    HW130248   9.979  10.284   0.963
42803SOL    HW230249   9.869  10.252   1.063
42804SOL     OW30250  10.026   3.892   0.695
42804SOL    HW130251   9.983   3.864   0.775
42804SOL    HW230252  10.075   3.970   0.720
42805SOL     OW30253  14.844  14.600   9.131
42805SOL    HW130254  14.837  14.563   9.043
42805SOL    HW230255   0.054  14.567   9.165
42806SOL     OW30256   4.674   8.591  13.496
42806SOL    HW130257   4.700   8.573  13.405
42806SOL    HW230258   4.648   8.506  13.531
42807SOL     OW30259   2.658  14.812   8.172
42807SOL    HW130260   2.654  14.737   8.231
42807SOL    HW230261   2.567  14.842   8.165
42808SOL     OW30262  11.613   8.251  10.230
42808SOL    HW130263  11.670   8.206  10.169
42808SOL    HW230264  11.564   8.181  10.273
42809SOL     OW30265  11.763   1.311   4.477
42809SOL    HW130266  11.758   1.355   4.562
42809SOL    HW230267  11.678   1.267   4.469
42810SOL     OW30268   9.924  10.226  14.365
42810SOL    HW130269   9.890  10.138  14.351
42810SOL    HW230270  10.006  10.228  14.316
42811SOL     OW30271   6.676   8.573   3.945
42811SOL    HW130272   6.711   8.641   4.003
42811SOL    HW230273   6.655   8.619   3.864
42812SOL     OW30274  10.179  12.626  14.405
42812SOL    HW130275  10.126  12.702  14.382
42812SOL    HW230276  10.237  12.658  14.474
42813SOL     OW30277  14.776  10.904   5.998
42813SOL    HW130278  14.827  10.870   5.924
42813SOL    HW230279  14.709  10.958   5.957
42814SOL     OW30280   2.306   6.763  10.560
42814SOL    HW130281   2.362   6.693  10.596
42814SOL    HW230282   2.235   6.771  10.624
42815SOL     OW30283   5.528  11.840   8.610
42815SOL    HW130284   5.539  11.887   8.527
42815SOL    HW230285   5.494  11.905   8.670
42816SOL     OW30286   2.525   9.982   5.345
42816SOL    HW130287   2.612   9.985   5.306
42816SOL    HW230288   2.492   9.895   5.324
42817SOL     OW30289   2.010   6.507  12.478
42817SOL    HW130290   2.020   6.412  12.481
42817SOL    HW230291   2.015   6.529  12.385
42818SOL     OW30292  14.627   3.899   3.815
42818SOL    HW130293  14.542   3.904   3.858
42818SOL    HW230294  14.606   3.883   3.723
42819SOL     OW30295   9.547  13.584  13.128
42819SOL    HW130296   9.567  13.638  13.204
42819SOL    HW230297   9.628  13.535  13.111
42820SOL     OW30298   3.804  14.697  13.377
42820SOL    HW130299   3.888  14.677  13.335
42820SOL    HW230300   3.812  14.660  13.465
42821SOL     OW30301   1.303  10.691   0.496
42821SOL    HW130302   1.227  10.666   0.547
42821SOL    HW230303   1.268  10.714   0.410
42822SOL     OW30304   2.851   1.682   8.306
42822SOL    HW130305   2.826   1.590   8.314
42822SOL    HW230306   2.779   1.721   8.255
42823SOL     OW30307  13.110   8.657  13.027
42823SOL    HW130308  13.051   8.730  13.004
42823SOL    HW230309  13.055   8.599  13.080
42824SOL     OW30310  13.247   6.852   6.613
42824SOL    HW130311  13.194   6.902   6.552
42824SOL    HW230312  13.184   6.813   6.674
42825SOL     OW30313  12.651   6.189   5.308
42825SOL    HW130314  12.743   6.182   5.286
42825SOL    HW230315  12.643   6.147   5.393
42826SOL     OW30316   1.849  13.463  12.072
42826SOL    HW130317   1.840  13.369  12.059
42826SOL    HW230318   1.780  13.502  12.019
42827SOL     OW30319  13.317   6.594   6.533
42827SOL    HW130320  13.308   6.674   6.584
42827SOL    HW230321  13.340   6.527   6.597
42828SOL     OW30322  12.066  12.455   7.200
42828SOL    HW130323  11.998  12.389   7.186
42828SOL    HW230324  12.109  12.464   7.115
42829SOL     OW30325  13.834   5.909   6.579
42829SOL    HW130326  13.848   5.818   6.552
42829SOL    HW230327  13.746   5.930   6.548
42830SOL     OW30328   2.587  10.505   5.442
42830SOL    HW130329   2.679  10.516   5.464
42830SOL    HW230330   2.587  10.463   5.356
42831SOL     OW30331  13.074   1.784   9.309
42831SOL    HW130332  13.128   1.741   9.243
42831SOL    HW230333  13.058   1.872   9.273
42832SOL     OW30334  13.686   6.328  12.301
42832SOL    HW130335  13.686   6.347  12.207
42832SOL    HW230336  13.645   6.404  12.342
42833SOL     OW30337   0.944   6.050   6.973
42833SOL    HW130338   0.882   6.058   7.046
42833SOL    HW230339   0.916   6.116   6.910
42834SOL     OW30340   3.551   2.631  12.414
42834SOL    HW130341   3.543   2.553  12.469
42834SOL    HW230342   3.492   2.695  12.454
42835SOL     OW30343   7.243   1.658   5.377
42835SOL    HW130344   7.217   1.670   5.285
42835SOL    HW230345   7.218   1.567   5.397
42836SOL     OW30346  10.753   3.193   7.419
42836SOL    HW130347  10.730   3.126   7.355
42836SOL    HW230348  10.732   3.276   7.376
42837SOL     OW30349  13.085   5.891   6.215
42837SOL    HW130350  13.136   5.819   6.177
42837SOL    HW230351  13.136   5.919   6.291
42838SOL     OW30352   5.678   1.790   1.072
42838SOL    HW130353   5.683   1.757   0.982
42838SOL    HW230354   5.615   1.733   1.116
42839SOL     OW30355  11.239   0.306  12.719
42839SOL    HW130356  11.160   0.356  12.697
42839SOL    HW230357  11.281   0.358  12.787
42840SOL     OW30358  12.997   7.954  10.986
42840SOL    HW130359  13.080   8.002  10.984
42840SOL    HW230360  13.018   7.871  11.029
42841SOL     OW30361  13.169   0.569  13.321
42841SOL    HW130362  13.187   0.483  13.282
42841SOL    HW230363  13.252   0.616  13.315
42842SOL     OW30364   0.318   6.908  11.896
42842SOL    HW130365   0.366   6.842  11.947
42842SOL    HW230366   0.366   6.914  11.814
42843SOL     OW30367   1.255   5.213   9.682
42843SOL    HW130368   1.243   5.125   9.646
42843SOL    HW230369   1.173   5.258   9.663
42844SOL     OW30370   0.735  10.818  14.205
42844SOL    HW130371   0.678  10.741  14.209
42844SOL    HW230372   0.748  10.833  14.111
42845SOL     OW30373   9.522   4.117   0.157
42845SOL    HW130374   9.606   4.137   0.199
42845SOL    HW230375   9.477   4.061   0.220
42846SOL     OW30376   9.981   1.357   4.669
42846SOL    HW130377   9.892   1.356   4.705
42846SOL    HW230378  10.015   1.443   4.691
42847SOL     OW30379   8.948   3.573   1.809
42847SOL    HW130380   8.887   3.504   1.785
42847SOL    HW230381   8.950   3.571   1.905
42848SOL     OW30382  10.502   0.007   5.480
42848SOL    HW130383  10.493   0.076   5.414
42848SOL    HW230384  10.412  14.859   5.505
42849SOL     OW30385   7.007   3.802   2.086
42849SOL    HW130386   7.021   3.827   1.994
42849SOL    HW230387   7.094   3.780   2.118
42850SOL     OW30388   0.283   3.171  10.616
42850SOL    HW130389   0.232   3.190  10.695
42850SOL    HW230390   0.345   3.103  10.644
42851SOL     OW30391   4.466   2.793   3.235
42851SOL    HW130392   4.477   2.841   3.153
42851SOL    HW230393   4.526   2.836   3.296
42852SOL     OW30394   5.498   0.946   1.215
42852SOL    HW130395   5.591   0.929   1.198
42852SOL    HW230396   5.464   0.862   1.246
42853SOL     OW30397   2.293   4.960   7.645
42853SOL    HW130398   2.279   4.964   7.551
42853SOL    HW230399   2.301   5.052   7.673
42854SOL     OW30400  14.031   5.916   8.091
42854SOL    HW130401  14.105   5.867   8.055
42854SOL    HW230402  14.060   6.007   8.092
42855SOL     OW30403   3.563   2.762  14.054
42855SOL    HW130404   3.518   2.764  14.138
42855SOL    HW230405   3.501   2.801  13.992
42856SOL     OW30406  11.899   9.551   3.594
42856SOL    HW130407  11.911   9.539   3.500
42856SOL    HW230408  11.840   9.626   3.601
42857SOL     OW30409   7.630   3.128  14.100
42857SOL    HW130410   7.628   3.184  14.177
42857SOL    HW230411   7.662   3.044  14.133
42858SOL     OW30412  13.354   8.128   2.681
42858SOL    HW130413  13.315   8.051   2.640
42858SOL    HW230414  13.282   8.190   2.688
42859SOL     OW30415   0.677   3.306   5.808
42859SOL    HW130416   0.673   3.214   5.832
42859SOL    HW230417   0.697   3.306   5.715
42860SOL     OW30418   8.325  11.253  10.624
42860SOL    HW130419   8.365  11.168  10.638
42860SOL    HW230420   8.286  11.247  10.537
42861SOL     OW30421   2.060   7.374  14.035
42861SOL    HW130422   2.005   7.402  13.961
42861SOL    HW230423   2.000   7.365  14.108
42862SOL     OW30424   4.578  10.776  12.016
42862SOL    HW130425   4.602  10.730  12.096
42862SOL    HW230426   4.643  10.846  12.007
42863SOL     OW30427   1.321   4.199  11.463
42863SOL    HW130428   1.367   4.280  11.485
42863SOL    HW230429   1.383   4.129  11.483
42864SOL     OW30430   7.404   7.979   9.640
42864SOL    HW130431   7.401   7.884   9.645
42864SOL    HW230432   7.472   7.998   9.574
42865SOL     OW30433   5.284   0.078  12.797
42865SOL    HW130434   5.242   0.156  12.832
42865SOL    HW230435   5.266   0.081  12.703
42866SOL     OW30436   7.314  13.458   4.143
42866SOL    HW130437   7.239  13.402   4.124
42866SOL    HW230438   7.309  13.472   4.238
42867SOL     OW30439  13.413  10.743   9.394
42867SOL    HW130440  13.504  10.749   9.365
42867SOL    HW230441  13.383  10.834   9.399
42868SOL     OW30442   2.772   4.568   1.735
42868SOL    HW130443   2.738   4.552   1.823
42868SOL    HW230444   2.819   4.487   1.712
42869SOL     OW30445   4.378   7.819   3.894
42869SOL    HW130446   4.367   7.724   3.891
42869SOL    HW230447   4.384   7.839   3.987
42870SOL     OW30448   5.847  14.796   6.042
42870SOL    HW130449   5.864  14.775   5.950
42870SOL    HW230450   5.919  14.754   6.090
42871SOL     OW30451   7.793   8.765  13.043
42871SOL    HW130452   7.714   8.808  13.076
42871SOL    HW230453   7.778   8.672  13.060
42872SOL     OW30454   4.250   1.229  12.145
42872SOL    HW130455   4.179   1.195  12.092
42872SOL    HW230456   4.240   1.324  12.140
42873SOL     OW30457  14.232   7.895   9.991
42873SOL    HW130458  14.254   7.921   9.902
42873SOL    HW230459  14.141   7.866   9.986
42874SOL     OW30460   4.096   1.449   5.683
42874SOL    HW130461   4.175   1.428   5.634
42874SOL    HW230462   4.118   1.430   5.774
42875SOL     OW30463  10.630   2.411   2.967
42875SOL    HW130464  10.582   2.458   3.035
42875SOL    HW230465  10.567   2.399   2.896
42876SOL     OW30466   5.147   2.038  11.110
42876SOL    HW130467   5.212   2.106  11.130
42876SOL    HW230468   5.192   1.980  11.049
42877SOL     OW30469   4.902   4.109   3.276
42877SOL    HW130470   4.832   4.162   3.236
42877SOL    HW230471   4.904   4.138   3.367
42878SOL     OW30472  13.320   5.069   7.201
42878SOL    HW130473  13.413   5.089   7.213
42878SOL    HW230474  13.290   5.132   7.135
42879SOL     OW30475   1.551   7.179   3.158
42879SOL    HW130476   1.524   7.193   3.068
42879SOL    HW230477   1.526   7.260   3.203
42880SOL     OW30478  12.095   2.598   9.821
42880SOL    HW130479  12.025   2.589   9.885
42880SOL    HW230480  12.049   2.601   9.736
42881SOL     OW30481   0.750  11.643   7.948
42881SOL    HW130482   0.659  11.634   7.975
42881SOL    HW230483   0.761  11.580   7.877
42882SOL     OW30484   0.561   3.397  10.909
42882SOL    HW130485   0.643   3.364  10.945
42882SOL    HW230486   0.585   3.478  10.865
42883SOL     OW30487   4.569   7.338   8.863
42883SOL    HW130488   4.476   7.354   8.848
42883SOL    HW230489   4.610   7.354   8.778
42884SOL     OW30490  12.154  13.860   0.640
42884SOL    HW130491  12.088  13.792   0.651
42884SOL    HW230492  12.216  13.823   0.577
42885SOL     OW30493   8.400   6.461  14.128
42885SOL    HW130494   8.439   6.451  14.041
42885SOL    HW230495   8.310   6.488  14.111
42886SOL     OW30496   3.742  13.863  11.243
42886SOL    HW130497   3.744  13.801  11.315
42886SOL    HW230498   3.795  13.937  11.274
42887SOL     OW30499   3.929   3.675   4.983
42887SOL    HW130500   3.971   3.591   5.001
42887SOL    HW230501   3.998   3.740   4.996
42888SOL     OW30502   5.720  11.199   4.873
42888SOL    HW130503   5.704  11.285   4.834
42888SOL    HW230504   5.682  11.137   4.811
42889SOL     OW30505   0.144  11.256  12.545
42889SOL    HW130506   0.072  11.301  12.589
42889SOL    HW230507   0.176  11.193  12.609
42890SOL     OW30508   6.177  14.136   9.536
42890SOL    HW130509   6.194  14.223   9.500
42890SOL    HW230510   6.152  14.083   9.460
42891SOL     OW30511  11.789   8.684   5.396
42891SOL    HW130512  11.696   8.701   5.413
42891SOL    HW230513  11.817   8.757   5.340
42892SOL     OW30514   9.108   7.788   2.268
42892SOL    HW130515   9.175   7.841   2.311
42892SOL    HW230516   9.039   7.779   2.333
42893SOL     OW30517  10.073   4.425   7.033
42893SOL    HW130518  10.084   4.436   7.128
42893SOL    HW230519  10.142   4.479   6.995
42894SOL     OW30520  14.191  12.593  13.343
42894SOL    HW130521  14.258  12.525  13.348
42894SOL    HW230522  14.240  12.675  13.337
42895SOL     OW30523   2.407  12.235   8.972
42895SOL    HW130524   2.475  12.168   8.968
42895SOL    HW230525   2.344  12.201   9.035
42896SOL     OW30526   3.519   7.298   9.949
42896SOL    HW130527   3.613   7.281   9.949
42896SOL    HW230528   3.485   7.242   9.879
42897SOL     OW30529  10.780   7.330   6.671
42897SOL    HW130530  10.813   7.346   6.583
42897SOL    HW230531  10.833   7.386   6.728
42898SOL     OW30532   7.102   7.331   8.723
42898SOL    HW130533   7.105   7.259   8.785
42898SOL    HW230534   7.010   7.357   8.721
42899SOL     OW30535   5.683  13.402  13.939
42899SOL    HW130536   5.729  13.482  13.966
42899SOL    HW230537   5.616  13.389  14.005
42900SOL     OW30538   5.425  14.664   0.838
42900SOL    HW130539   5.450  14.628   0.923
42900SOL    HW230540   5.339  14.625   0.819
42901SOL     OW30541  11.799   5.122   4.699
42901SOL    HW130542  11.722   5.170   4.669
42901SOL    HW230543  11.769   5.032   4.711
42902SOL     OW30544   9.689   2.402   3.276
42902SOL    HW130545   9.781   2.375   3.272
42902SOL    HW230546   9.643   2.328   3.315
42903SOL     OW30547  13.662   9.130  11.235
42903SOL    HW130548  13.685   9.122  11.143
42903SOL    HW230549  13.725   9.073  11.280
42904SOL     OW30550   6.094   5.636   0.408
42904SOL    HW130551   6.034   5.561   0.409
42904SOL    HW230552   6.147   5.625   0.487
42905SOL     OW30553   8.796  13.194  11.267
42905SOL    HW130554   8.838  13.109  11.279
42905SOL    HW230555   8.768  13.219  11.354
42906SOL     OW30556   2.204   1.784  14.689
42906SOL    HW130557   2.294   1.758  14.673
42906SOL    HW230558   2.175   1.726  14.760
42907SOL     OW30559   7.886   3.225   5.414
42907SOL    HW130560   7.940   3.199   5.489
42907SOL    HW230561   7.798   3.196   5.436
42908SOL     OW30562  12.810   3.675   8.304
42908SOL    HW130563  12.764   3.753   8.275
42908SOL    HW230564  12.743   3.606   8.305
42909SOL     OW30565   4.526   1.210   9.056
42909SOL    HW130566   4.551   1.137   9.113
42909SOL    HW230567   4.466   1.171   8.992
42910SOL     OW30568   9.659  14.787  13.307
42910SOL    HW130569   9.671  14.863  13.250
42910SOL    HW230570   9.723  14.723  13.277
42911SOL     OW30571   2.988  13.663   1.759
42911SOL    HW130572   3.025  13.587   1.713
42911SOL    HW230573   2.909  13.685   1.709
42912SOL     OW30574   1.500   1.394  12.139
42912SOL    HW130575   1.578   1.437  12.104
42912SOL    HW230576   1.473   1.333  12.070
42913SOL     OW30577   0.302  13.375   6.220
42913SOL    HW130578   0.354  13.307   6.263
42913SOL    HW230579   0.223  13.330   6.190
42914SOL     OW30580   6.201   9.040   4.009
42914SOL    HW130581   6.186   9.084   4.093
42914SOL    HW230582   6.113   9.014   3.980
42915SOL     OW30583   5.080  10.036   8.938
42915SOL    HW130584   5.082  10.013   9.030
42915SOL    HW230585   5.171  10.025   8.908
42916SOL     OW30586   1.578   9.150   1.180
42916SOL    HW130587   1.659   9.099   1.185
42916SOL    HW230588   1.538   9.140   1.266
42917SOL     OW30589   2.338  14.697   0.605
42917SOL    HW130590   2.357  14.621   0.661
42917SOL    HW230591   2.290  14.757   0.662
42918SOL     OW30592   7.847   2.647   6.639
42918SOL    HW130593   7.857   2.565   6.688
42918SOL    HW230594   7.902   2.709   6.687
42919SOL     OW30595   6.957   3.395  12.292
42919SOL    HW130596   7.000   3.428  12.213
42919SOL    HW230597   6.913   3.471  12.329
42920SOL     OW30598   6.908  12.023  10.325
42920SOL    HW130599   6.817  12.009  10.297
42920SOL    HW230600   6.935  11.939  10.362
42921SOL     OW30601   6.139   9.710  10.056
42921SOL    HW130602   6.137   9.614  10.058
42921SOL    HW230603   6.206   9.733  10.121
42922SOL     OW30604   1.036   6.957   5.813
42922SOL    HW130605   0.955   7.008   5.817
42922SOL    HW230606   1.045   6.920   5.900
42923SOL     OW30607   1.058   9.874   4.901
42923SOL    HW130608   1.138   9.926   4.890
42923SOL    HW230609   1.008   9.889   4.821
42924SOL     OW30610   3.357   6.425   2.625
42924SOL    HW130611   3.450   6.405   2.634
42924SOL    HW230612   3.349   6.516   2.654
42925SOL     OW30613   6.488  14.595   8.805
42925SOL    HW130614   6.452  14.509   8.781
42925SOL    HW230615   6.465  14.606   8.897
42926SOL     OW30616  13.351   0.586   1.462
42926SOL    HW130617  13.400   0.519   1.509
42926SOL    HW230618  13.342   0.551   1.373
42927SOL     OW30619   4.920   2.918  14.680
42927SOL    HW130620   4.992   2.889  14.624
42927SOL    HW230621   4.865   2.972  14.622
42928SOL     OW30622   9.168   9.010   8.801
42928SOL    HW130623   9.156   9.066   8.878
42928SOL    HW230624   9.208   8.931   8.836
42929SOL     OW30625   0.289  12.899  13.815
42929SOL    HW130626   0.303  12.939  13.901
42929SOL    HW230627   0.368  12.921  13.766
42930SOL     OW30628   0.151   7.265  13.873
42930SOL    HW130629   0.080   7.326  13.892
42930SOL    HW230630   0.154   7.261  13.777
42931SOL     OW30631   0.802   5.189   9.321
42931SOL    HW130632   0.710   5.173   9.299
42931SOL    HW230633   0.820   5.125   9.390
42932SOL     OW30634  10.252   2.757   8.136
42932SOL    HW130635  10.273   2.805   8.215
42932SOL    HW230636  10.309   2.795   8.069
42933SOL     OW30637  13.454   6.686   5.026
42933SOL    HW130638  13.455   6.636   5.108
42933SOL    HW230639  13.546   6.696   5.003
42934SOL     OW30640   3.611  13.235   9.090
42934SOL    HW130641   3.701  13.205   9.100
42934SOL    HW230642   3.618  13.311   9.031
42935SOL     OW30643   2.721   2.994   5.211
42935SOL    HW130644   2.633   3.027   5.192
42935SOL    HW230645   2.779   3.050   5.159
42936SOL     OW30646  12.394   1.155   2.940
42936SOL    HW130647  12.471   1.099   2.955
42936SOL    HW230648  12.321   1.094   2.932
42937SOL     OW30649   5.966  10.540   8.519
42937SOL    HW130650   5.905  10.610   8.542
42937SOL    HW230651   5.928  10.500   8.441
42938SOL     OW30652   4.193   9.084   7.216
42938SOL    HW130653   4.271   9.126   7.251
42938SOL    HW230654   4.181   9.007   7.272
42939SOL     OW30655   5.431   8.234   8.923
42939SOL    HW130656   5.374   8.228   9.000
42939SOL    HW230657   5.412   8.319   8.885
42940SOL     OW30658   3.930  11.222  14.162
42940SOL    HW130659   3.868  11.152  14.147
42940SOL    HW230660   3.989  11.188  14.229
42941SOL     OW30661  14.632   0.694   6.411
42941SOL    HW130662  14.571   0.694   6.338
42941SOL    HW230663  14.610   0.615   6.460
42942SOL     OW30664   3.349   1.413   7.745
42942SOL    HW130665   3.414   1.452   7.686
42942SOL    HW230666   3.331   1.327   7.707
42943SOL     OW30667   4.261   1.793   7.350
42943SOL    HW130668   4.352   1.781   7.324
42943SOL    HW230669   4.258   1.766   7.441
42944SOL     OW30670  11.012   1.058   3.720
42944SOL    HW130671  11.019   1.121   3.648
42944SOL    HW230672  11.064   1.096   3.791
42945SOL     OW30673  13.487  14.602  12.339
42945SOL    HW130674  13.503  14.548  12.262
42945SOL    HW230675  13.453  14.685  12.304
42946SOL     OW30676   6.110   8.233   1.780
42946SOL    HW130677   6.185   8.177   1.801
42946SOL    HW230678   6.107   8.235   1.685
42947SOL     OW30679   8.406   5.702   6.986
42947SOL    HW130680   8.327   5.648   6.986
42947SOL    HW230681   8.448   5.682   7.071
42948SOL     OW30682   6.714   7.293   6.150
42948SOL    HW130683   6.808   7.290   6.170
42948SOL    HW230684   6.689   7.384   6.165
42949SOL     OW30685  12.755  14.765  10.942
42949SOL    HW130686  12.801  14.721  10.870
42949SOL    HW230687  12.808  14.747  11.019
42950SOL     OW30688   3.451  11.505   9.397
42950SOL    HW130689   3.361  11.540   9.396
42950SOL    HW230690   3.442  11.420   9.439
42951SOL     OW30691  10.532   6.770  10.586
42951SOL    HW130692  10.585   6.814  10.653
42951SOL    HW230693  10.444   6.767  10.623
42952SOL     OW30694  13.447   5.608   9.810
42952SOL    HW130695  13.463   5.674   9.742
42952SOL    HW230696  13.484   5.527   9.774
42953SOL     OW30697   4.003   5.759   0.533
42953SOL    HW130698   4.076   5.790   0.587
42953SOL    HW230699   3.959   5.693   0.587
42954SOL     OW30700   4.945   3.569   6.433
42954SOL    HW130701   4.855   3.585   6.464
42954SOL    HW230702   4.954   3.624   6.356
42955SOL     OW30703   9.479   0.394  12.119
42955SOL    HW130704   9.471   0.487  12.101
42955SOL    HW230705   9.537   0.389  12.195
42956SOL     OW30706   9.066   5.144   5.511
42956SOL    HW130707   9.095   5.108   5.428
42956SOL    HW230708   9.008   5.216   5.487
42957SOL     OW30709   6.331   4.084   9.597
42957SOL    HW130710   6.320   4.014   9.533
42957SOL    HW230711   6.320   4.041   9.682
42958SOL     OW30712   2.450   4.557  11.781
42958SOL    HW130713   2.358   4.543  11.762
42958SOL    HW230714   2.492   4.474  11.760
42959SOL     OW30715  10.312  14.115  13.645
42959SOL    HW130716  10.332  14.172  13.719
42959SOL    HW230717  10.385  14.053  13.642
42960SOL     OW30718   9.331   0.821   2.868
42960SOL    HW130719   9.295   0.745   2.823
42960SOL    HW230720   9.261   0.887   2.863
42961SOL     OW30721   5.127   9.044   4.940
42961SOL    HW130722   5.181   9.115   4.906
42961SOL    HW230723   5.119   8.982   4.868
42962SOL     OW30724   7.756   6.594   5.721
42962SOL    HW130725   7.732   6.678   5.761
42962SOL    HW230726   7.673   6.553   5.699
42963SOL     OW30727   1.809   7.378  10.303
42963SOL    HW130728   1.760   7.460  10.314
42963SOL    HW230729   1.741   7.312  10.288
42964SOL     OW30730  12.261   6.068  10.184
42964SOL    HW130731  12.189   6.101  10.237
42964SOL    HW230732  12.331   6.051  10.247
42965SOL     OW30733   5.107   9.561   6.274
42965SOL    HW130734   5.055   9.616   6.215
42965SOL    HW230735   5.198   9.587   6.257
42966SOL     OW30736   0.073  11.633   8.122
42966SOL    HW130737   0.054  11.575   8.048
42966SOL    HW230738   0.073  11.721   8.083
42967SOL     OW30739  13.387   3.650  14.139
42967SOL    HW130740  13.453   3.609  14.194
42967SOL    HW230741  13.373   3.736  14.179
42968SOL     OW30742  10.711   4.238   3.093
42968SOL    HW130743  10.763   4.243   3.013
42968SOL    HW230744  10.686   4.329   3.111
42969SOL     OW30745  10.107   7.225  11.716
42969SOL    HW130746  10.118   7.173  11.637
42969SOL    HW230747  10.012   7.228  11.730
42970SOL     OW30748   3.839   5.121   3.431
42970SOL    HW130749   3.776   5.056   3.400
42970SOL    HW230750   3.821   5.199   3.378
42971SOL     OW30751   3.771   2.895   2.958
42971SOL    HW130752   3.849   2.949   2.947
42971SOL    HW230753   3.763   2.883   3.052
42972SOL     OW30754   9.006  12.005   9.725
42972SOL    HW130755   9.033  12.078   9.669
42972SOL    HW230756   9.088  11.967   9.755
42973SOL     OW30757  12.618   1.853  13.167
42973SOL    HW130758  12.675   1.928  13.152
42973SOL    HW230759  12.530   1.885  13.149
42974SOL     OW30760   6.424   2.971   0.933
42974SOL    HW130761   6.333   2.973   0.965
42974SOL    HW230762   6.418   2.997   0.841
42975SOL     OW30763  13.168   2.256  13.839
42975SOL    HW130764  13.084   2.240  13.881
42975SOL    HW230765  13.196   2.171  13.806
42976SOL     OW30766   0.180   1.072   3.778
42976SOL    HW130767   0.262   1.030   3.753
42976SOL    HW230768   0.158   1.128   3.703
42977SOL     OW30769   0.378   0.017   7.592
42977SOL    HW130770   0.395   0.026   7.686
42977SOL    HW230771   0.294  14.844   7.586
42978SOL     OW30772   6.811   2.865  10.398
42978SOL    HW130773   6.865   2.829  10.328
42978SOL    HW230774   6.783   2.788  10.449
42979SOL     OW30775  10.227   9.989  12.878
42979SOL    HW130776  10.258  10.004  12.788
42979SOL    HW230777  10.174   9.910  12.871
42980SOL     OW30778  14.431  10.700  10.295
42980SOL    HW130779  14.509  10.749  10.268
42980SOL    HW230780  14.429  10.624  10.237
42981SOL     OW30781   6.944   9.654  12.749
42981SOL    HW130782   6.934   9.559  12.746
42981SOL    HW230783   6.905   9.684  12.667
42982SOL     OW30784  11.761  14.706  12.775
42982SOL    HW130785  11.690  14.756  12.815
42982SOL    HW230786  11.818  14.683  12.848
42983SOL     OW30787   8.222   1.998   5.720
42983SOL    HW130788   8.203   1.922   5.666
42983SOL    HW230789   8.136   2.032   5.745
42984SOL     OW30790  14.576   8.979  10.655
42984SOL    HW130791  14.596   9.065  10.619
42984SOL    HW230792  14.515   8.996  10.726
42985SOL     OW30793   7.421   5.913   8.190
42985SOL    HW130794   7.494   5.950   8.140
42985SOL    HW230795   7.415   5.968   8.268
42986SOL     OW30796  13.546   4.234   1.618
42986SOL    HW130797  13.543   4.177   1.541
42986SOL    HW230798  13.500   4.186   1.686
42987SOL     OW30799   5.439  12.210   6.376
42987SOL    HW130800   5.454  12.281   6.439
42987SOL    HW230801   5.505  12.225   6.308
42988SOL     OW30802   8.377   7.270  12.081
42988SOL    HW130803   8.313   7.303  12.145
42988SOL    HW230804   8.358   7.320  12.001
42989SOL     OW30805   6.263   6.738   4.719
42989SOL    HW130806   6.213   6.661   4.691
42989SOL    HW230807   6.269   6.792   4.641
42990SOL     OW30808   7.192   4.753   5.424
42990SOL    HW130809   7.190   4.767   5.329
42990SOL    HW230810   7.111   4.706   5.443
42991SOL     OW30811   8.449   8.986  13.932
42991SOL    HW130812   8.447   8.955  14.023
42991SOL    HW230813   8.474   9.078  13.938
42992SOL     OW30814   7.092  11.207   8.856
42992SOL    HW130815   7.096  11.214   8.760
42992SOL    HW230816   7.182  11.184   8.882
42993SOL     OW30817   2.631  14.492   4.581
42993SOL    HW130818   2.610  14.425   4.646
42993SOL    HW230819   2.696  14.451   4.524
42994SOL     OW30820   8.252  13.185  11.971
42994SOL    HW130821   8.259  13.142  11.886
42994SOL    HW230822   8.342  13.203  11.997
42995SOL     OW30823   5.258   6.589  10.133
42995SOL    HW130824   5.288   6.579  10.224
42995SOL    HW230825   5.300   6.669  10.103
42996SOL     OW30826   7.901   2.039   5.055
42996SOL    HW130827   7.979   2.083   5.019
42996SOL    HW230828   7.833   2.054   4.989
42997SOL     OW30829  13.616   3.861   8.465
42997SOL    HW130830  13.565   3.940   8.445
42997SOL    HW230831  13.687   3.891   8.522
42998SOL     OW30832   1.425   0.888  11.718
42998SOL    HW130833   1.422   0.983  11.729
42998SOL    HW230834   1.450   0.855  11.805
42999SOL     OW30835   0.143  10.926   7.688
42999SOL    HW130836   0.079  10.942   7.758
42999SOL    HW230837   0.164  11.013   7.655
43000SOL     OW30838  12.821  10.142   1.429
43000SOL    HW130839  12.808  10.061   1.478
43000SOL    HW230840  12.896  10.125   1.373
43001SOL     OW30841   8.719   6.639  14.717
43001SOL    HW130842   8.668   6.569  14.675
43001SOL    HW230843   8.665   6.667  14.791
43002SOL     OW30844  13.061  12.606   5.203
43002SOL    HW130845  13.142  12.586   5.155
43002SOL    HW230846  13.014  12.523   5.207
43003SOL     OW30847  13.906  12.283  10.718
43003SOL    HW130848  13.985  12.321  10.756
43003SOL    HW230849  13.936  12.201  10.678
43004SOL     OW30850   7.081  13.710   3.339
43004SOL    HW130851   7.061  13.720   3.432
43004SOL    HW230852   7.014  13.760   3.293
43005SOL     OW30853   9.627  11.755  12.937
43005SOL    HW130854   9.578  11.767  13.018
43005SOL    HW230855   9.676  11.674  12.951
43006SOL     OW30856   3.947   8.892  13.783
43006SOL    HW130857   3.911   8.904  13.695
43006SOL    HW230858   3.873   8.909  13.841
43007SOL     OW30859   2.073  12.304  10.109
43007SOL    HW130860   2.022  12.329  10.032
43007SOL    HW230861   2.021  12.235  10.150
43008SOL     OW30862   8.569  10.074  13.518
43008SOL    HW130863   8.654  10.093  13.557
43008SOL    HW230864   8.573   9.980  13.498
43009SOL     OW30865  10.976   7.258  12.640
43009SOL    HW130866  10.887   7.242  12.671
43009SOL    HW230867  10.990   7.192  12.573
43010SOL     OW30868   8.584   3.778   4.412
43010SOL    HW130869   8.522   3.849   4.426
43010SOL    HW230870   8.580   3.726   4.493
43011SOL     OW30871  14.687   2.414   2.133
43011SOL    HW130872  14.627   2.340   2.133
43011SOL    HW230873  14.771   2.377   2.159
43012SOL     OW30874  13.833  12.477   2.190
43012SOL    HW130875  13.838  12.561   2.145
43012SOL    HW230876  13.888  12.419   2.138
43013SOL     OW30877   4.218  12.888   1.507
43013SOL    HW130878   4.301  12.923   1.541
43013SOL    HW230879   4.245  12.814   1.452
43014SOL     OW30880  12.328   1.804  12.761
43014SOL    HW130881  12.283   1.818  12.677
43014SOL    HW230882  12.411   1.852  12.751
43015SOL     OW30883   6.019   3.935  10.268
43015SOL    HW130884   6.077   3.937  10.344
43015SOL    HW230885   5.995   4.027  10.254
43016SOL     OW30886  12.449   6.475   7.023
43016SOL    HW130887  12.355   6.485   7.040
43016SOL    HW230888  12.455   6.464   6.928
43017SOL     OW30889  11.446   2.028   3.615
43017SOL    HW130890  11.440   1.968   3.540
43017SOL    HW230891  11.388   2.100   3.592
43018SOL     OW30892   9.717  10.344   3.571
43018SOL    HW130893   9.807  10.351   3.603
43018SOL    HW230894   9.672  10.419   3.610
43019SOL     OW30895  12.414   7.021   0.599
43019SOL    HW130896  12.364   7.070   0.534
43019SOL    HW230897  12.473   7.086   0.638
43020SOL     OW30898   8.666   7.866  11.879
43020SOL    HW130899   8.732   7.814  11.833
43020SOL    HW230900   8.662   7.948  11.831
43021SOL     OW30901   2.122  12.915  14.332
43021SOL    HW130902   2.170  12.997  14.321
43021SOL    HW230903   2.190  12.848  14.335
43022SOL     OW30904  12.358  10.557   7.523
43022SOL    HW130905  12.318  10.642   7.505
43022SOL    HW230906  12.287  10.504   7.559
43023SOL     OW30907   9.396   3.830   9.886
43023SOL    HW130908   9.415   3.783   9.968
43023SOL    HW230909   9.322   3.783   9.848
43024SOL     OW30910   3.161   0.535  13.574
43024SOL    HW130911   3.185   0.493  13.657
43024SOL    HW230912   3.212   0.616  13.572
43025SOL     OW30913   3.039   3.226   8.701
43025SOL    HW130914   2.944   3.232   8.697
43025SOL    HW230915   3.066   3.305   8.748
43026SOL     OW30916   4.629   0.233  13.769
43026SOL    HW130917   4.708   0.285  13.763
43026SOL    HW230918   4.557   0.295  13.757
43027SOL     OW30919   2.816   4.163   6.939
43027SOL    HW130920   2.817   4.125   6.851
43027SOL    HW230921   2.875   4.106   6.990
43028SOL     OW30922   9.090   4.211   0.166
43028SOL    HW130923   9.027   4.247   0.102
43028SOL    HW230924   9.118   4.128   0.128
43029SOL     OW30925   9.691  11.557   9.734
43029SOL    HW130926   9.776  11.512   9.732
43029SOL    HW230927   9.708  11.643   9.696
43030SOL     OW30928   0.554   4.941   4.197
43030SOL    HW130929   0.572   4.854   4.235
43030SOL    HW230930   0.458   4.945   4.191
43031SOL     OW30931   1.168   3.649   3.633
43031SOL    HW130932   1.252   3.614   3.663
43031SOL    HW230933   1.151   3.603   3.550
43032SOL     OW30934   1.426  13.207   4.459
43032SOL    HW130935   1.506  13.223   4.509
43032SOL    HW230936   1.442  13.250   4.375
43033SOL     OW30937  10.305   0.248   8.664
43033SOL    HW130938  10.232   0.310   8.669
43033SOL    HW230939  10.343   0.263   8.577
43034SOL     OW30940   5.442   5.783   8.839
43034SOL    HW130941   5.424   5.771   8.745
43034SOL    HW230942   5.537   5.795   8.843
43035SOL     OW30943  13.289  11.247  11.364
43035SOL    HW130944  13.218  11.220  11.423
43035SOL    HW230945  13.266  11.207  11.280
43036SOL     OW30946   6.663  14.463  11.843
43036SOL    HW130947   6.725  14.471  11.915
43036SOL    HW230948   6.586  14.421  11.882
43037SOL     OW30949   0.187   0.497   5.636
43037SOL    HW130950   0.277   0.472   5.654
43037SOL    HW230951   0.190   0.592   5.622
43038SOL     OW30952   3.821   7.716   9.343
43038SOL    HW130953   3.767   7.775   9.290
43038SOL    HW230954   3.815   7.752   9.432
43039SOL     OW30955   9.735   7.415  10.962
43039SOL    HW130956   9.691   7.349  11.015
43039SOL    HW230957   9.709   7.499  11.001
43040SOL     OW30958   1.500   4.724   1.198
43040SOL    HW130959   1.558   4.784   1.243
43040SOL    HW230960   1.539   4.714   1.111
43041SOL     OW30961   1.584   7.277  11.581
43041SOL    HW130962   1.563   7.367  11.604
43041SOL    HW230963   1.676   7.267  11.607
43042SOL     OW30964   7.345   9.353  13.594
43042SOL    HW130965   7.351   9.382  13.685
43042SOL    HW230966   7.252   9.357  13.573
43043SOL     OW30967  10.922  13.282  10.144
43043SOL    HW130968  11.014  13.302  10.127
43043SOL    HW230969  10.878  13.367  10.138
43044SOL     OW30970   2.478  10.628  14.500
43044SOL    HW130971   2.433  10.636  14.584
43044SOL    HW230972   2.415  10.658  14.435
43045SOL     OW30973   6.043   1.897   3.303
43045SOL    HW130974   6.073   1.884   3.393
43045SOL    HW230975   6.121   1.925   3.256
43046SOL     OW30976   7.590  10.446   0.333
43046SOL    HW130977   7.635  10.480   0.410
43046SOL    HW230978   7.514  10.399   0.369
43047SOL     OW30979  13.514   2.944   0.228
43047SOL    HW130980  13.572   2.928   0.153
43047SOL    HW230981  13.513   2.861   0.276
43048SOL     OW30982  13.106   9.163  14.512
43048SOL    HW130983  13.061   9.106  14.575
43048SOL    HW230984  13.054   9.243  14.511
43049SOL     OW30985   0.289  11.018  12.179
43049SOL    HW130986   0.380  11.042  12.195
43049SOL    HW230987   0.238  11.096  12.199
43050SOL     OW30988  14.041  11.824  14.054
43050SOL    HW130989  13.972  11.758  14.044
43050SOL    HW230990  14.101  11.807  13.981
43051SOL     OW30991   8.401   0.026   4.021
43051SOL    HW130992   8.388  14.822   4.076
43051SOL    HW230993   8.419  14.863   3.934
43052SOL     OW30994   6.374   9.843   6.926
43052SOL    HW130995   6.328   9.889   6.856
43052SOL    HW230996   6.309   9.783   6.962
43053SOL     OW30997  14.041   6.712  14.546
43053SOL    HW130998  14.090   6.785  14.585
43053SOL    HW230999  14.033   6.736  14.454
43054SOL     OW31000   7.188  10.440   1.414
43054SOL    HW131001   7.273  10.413   1.378
43054SOL    HW231002   7.128  10.370   1.389
43055SOL     OW31003  14.320   7.285   7.660
43055SOL    HW131004  14.333   7.374   7.693
43055SOL    HW231005  14.233   7.286   7.622
43056SOL     OW31006   3.448   8.449  10.649
43056SOL    HW131007   3.446   8.507  10.572
43056SOL    HW231008   3.433   8.507  10.723
43057SOL     OW31009   2.644   4.027   5.165
43057SOL    HW131010   2.630   4.114   5.200
43057SOL    HW231011   2.670   3.974   5.241
43058SOL     OW31012   1.122   6.077   5.528
43058SOL    HW131013   1.152   5.988   5.546
43058SOL    HW231014   1.101   6.077   5.434
43059SOL     OW31015  12.766   8.212  10.381
43059SOL    HW131016  12.709   8.166  10.443
43059SOL    HW231017  12.788   8.294  10.425
43060SOL     OW31018   8.276   8.118   7.026
43060SOL    HW131019   8.251   8.027   7.041
43060SOL    HW231020   8.294   8.152   7.114
43061SOL     OW31021  13.238   7.057   5.270
43061SOL    HW131022  13.326   7.067   5.232
43061SOL    HW231023  13.213   6.967   5.250
43062SOL     OW31024   1.444  11.112   8.687
43062SOL    HW131025   1.531  11.137   8.655
43062SOL    HW231026   1.421  11.182   8.749
43063SOL     OW31027  13.144   7.666   9.924
43063SOL    HW131028  13.193   7.721   9.984
43063SOL    HW231029  13.210   7.620   9.873
43064SOL     OW31030  12.730   5.801   1.333
43064SOL    HW131031  12.819   5.768   1.326
43064SOL    HW231032  12.729   5.851   1.415
43065SOL     OW31033   7.231   7.884   9.877
43065SOL    HW131034   7.248   7.830   9.800
43065SOL    HW231035   7.289   7.959   9.866
43066SOL     OW31036   6.279   8.667   7.280
43066SOL    HW131037   6.273   8.604   7.207
43066SOL    HW231038   6.373   8.671   7.300
43067SOL     OW31039   2.074   6.765   4.693
43067SOL    HW131040   2.122   6.733   4.616
43067SOL    HW231041   2.000   6.705   4.701
43068SOL     OW31042   5.198   0.657  14.802
43068SOL    HW131043   5.269   0.716  14.828
43068SOL    HW231044   5.198   0.588  14.868
43069SOL     OW31045  14.788   0.207   5.956
43069SOL    HW131046  14.865   0.265   5.956
43069SOL    HW231047  14.760   0.205   6.047
43070SOL     OW31048   7.216   7.481   5.530
43070SOL    HW131049   7.311   7.472   5.533
43070SOL    HW231050   7.184   7.404   5.577
43071SOL     OW31051  10.817   0.518  13.603
43071SOL    HW131052  10.861   0.586  13.654
43071SOL    HW231053  10.862   0.437  13.628
43072SOL     OW31054   9.023   2.907   2.605
43072SOL    HW131055   9.017   2.811   2.597
43072SOL    HW231056   9.115   2.927   2.588
43073SOL     OW31057   2.984  14.195   9.934
43073SOL    HW131058   2.985  14.273   9.990
43073SOL    HW231059   3.069  14.154   9.949
43074SOL     OW31060   6.743   9.777  11.907
43074SOL    HW131061   6.660   9.762  11.953
43074SOL    HW231062   6.788   9.842  11.961
43075SOL     OW31063   9.137   1.310  13.509
43075SOL    HW131064   9.207   1.362  13.550
43075SOL    HW231065   9.162   1.306  13.416
43076SOL     OW31066   2.186   0.363  11.779
43076SOL    HW131067   2.152   0.354  11.689
43076SOL    HW231068   2.213   0.454  11.785
43077SOL     OW31069   6.183  13.680   0.660
43077SOL    HW131070   6.121  13.751   0.674
43077SOL    HW231071   6.269  13.720   0.669
43078SOL     OW31072   2.322   0.230   7.545
43078SOL    HW131073   2.362   0.308   7.505
43078SOL    HW231074   2.281   0.184   7.472
43079SOL     OW31075  12.620   8.804  10.960
43079SOL    HW131076  12.628   8.775  11.051
43079SOL    HW231077  12.664   8.888  10.958
43080SOL     OW31078   0.689  14.426  11.199
43080SOL    HW131079   0.675  14.508  11.151
43080SOL    HW231080   0.602  14.386  11.204
43081SOL     OW31081  11.257  13.160   4.008
43081SOL    HW131082  11.182  13.100   4.008
43081SOL    HW231083  11.263  13.190   4.098
43082SOL     OW31084   9.305   6.273  12.168
43082SOL    HW131085   9.277   6.365  12.159
43082SOL    HW231086   9.373   6.275  12.235
43083SOL     OW31087   3.468  14.656   8.562
43083SOL    HW131088   3.489  14.587   8.625
43083SOL    HW231089   3.480  14.737   8.611
43084SOL     OW31090   9.696   1.484   2.290
43084SOL    HW131091   9.748   1.440   2.358
43084SOL    HW231092   9.609   1.493   2.329
43085SOL     OW31093  14.815   9.201   9.556
43085SOL    HW131094   0.035   9.178   9.562
43085SOL    HW231095  14.771   9.138   9.613
43086SOL     OW31096   1.167   8.731  11.709
43086SOL    HW131097   1.231   8.795  11.740
43086SOL    HW231098   1.094   8.739  11.770
43087SOL     OW31099  12.002  13.941   1.720
43087SOL    HW131100  12.030  13.970   1.807
43087SOL    HW231101  11.911  13.969   1.713
43088SOL     OW31102   7.978  12.506   4.795
43088SOL    HW131103   8.016  12.436   4.742
43088SOL    HW231104   7.977  12.471   4.884
43089SOL     OW31105   8.799   5.883  11.551
43089SOL    HW131106   8.722   5.920  11.596
43089SOL    HW231107   8.813   5.798  11.593
43090SOL     OW31108   1.231   2.104   4.566
43090SOL    HW131109   1.259   2.120   4.476
43090SOL    HW231110   1.285   2.031   4.595
43091SOL     OW31111   0.272  14.322   2.395
43091SOL    HW131112   0.305  14.365   2.316
43091SOL    HW231113   0.344  14.329   2.457
43092SOL     OW31114  10.409   6.269  10.411
43092SOL    HW131115  10.500   6.273  10.381
43092SOL    HW231116  10.409   6.317  10.494
43093SOL     OW31117   7.700   6.426   6.929
43093SOL    HW131118   7.643   6.468   6.994
43093SOL    HW231119   7.782   6.410   6.976
43094SOL     OW31120   1.176   5.411   5.026
43094SOL    HW131121   1.140   5.486   5.072
43094SOL    HW231122   1.271   5.421   5.034
43095SOL     OW31123   7.711  14.369   7.883
43095SOL    HW131124   7.806  14.365   7.869
43095SOL    HW231125   7.676  14.296   7.833
43096SOL     OW31126  11.822   2.087  13.050
43096SOL    HW131127  11.739   2.050  13.022
43096SOL    HW231128  11.813   2.181  13.034
43097SOL     OW31129   1.589   3.996  13.891
43097SOL    HW131130   1.525   4.046  13.840
43097SOL    HW231131   1.537   3.929  13.936
43098SOL     OW31132  11.099   2.259  11.087
43098SOL    HW131133  11.153   2.310  11.148
43098SOL    HW231134  11.021   2.313  11.073
43099SOL     OW31135   2.289   0.212   3.283
43099SOL    HW131136   2.214   0.224   3.341
43099SOL    HW231137   2.261   0.250   3.200
43100SOL     OW31138   4.292   1.575   8.619
43100SOL    HW131139   4.369   1.526   8.647
43100SOL    HW231140   4.303   1.586   8.525
43101SOL     OW31141   2.681   1.871   4.752
43101SOL    HW131142   2.599   1.904   4.790
43101SOL    HW231143   2.720   1.819   4.822
43102SOL     OW31144  13.386  10.595   8.827
43102SOL    HW131145  13.436  10.526   8.784
43102SOL    HW231146  13.448  10.668   8.836
43103SOL     OW31147   3.570   6.558   7.945
43103SOL    HW131148   3.509   6.486   7.965
43103SOL    HW231149   3.577   6.607   8.027
43104SOL     OW31150   7.236   1.743   8.332
43104SOL    HW131151   7.330   1.753   8.341
43104SOL    HW231152   7.209   1.817   8.277
43105SOL     OW31153  12.943  12.734   7.286
43105SOL    HW131154  13.033  12.767   7.295
43105SOL    HW231155  12.918  12.756   7.197
43106SOL     OW31156   8.094  12.883   9.974
43106SOL    HW131157   8.008  12.846   9.993
43106SOL    HW231158   8.152  12.842  10.038
43107SOL     OW31159   1.441  13.146  14.502
43107SOL    HW131160   1.466  13.074  14.444
43107SOL    HW231161   1.356  13.175  14.469
43108SOL     OW31162  12.387  12.451  11.395
43108SOL    HW131163  12.349  12.416  11.313
43108SOL    HW231164  12.442  12.380  11.427
43109SOL     OW31165   7.586  14.393   5.217
43109SOL    HW131166   7.589  14.431   5.130
43109SOL    HW231167   7.544  14.308   5.205
43110SOL     OW31168   4.691   0.886   8.616
43110SOL    HW131169   4.608   0.854   8.652
43110SOL    HW231170   4.738   0.921   8.691
43111SOL     OW31171  10.850   4.577   7.199
43111SOL    HW131172  10.775   4.534   7.159
43111SOL    HW231173  10.867   4.653   7.143
43112SOL     OW31174   8.372   2.731   9.636
43112SOL    HW131175   8.443   2.673   9.608
43112SOL    HW231176   8.351   2.783   9.559
43113SOL     OW31177  11.139   5.362   6.276
43113SOL    HW131178  11.073   5.410   6.225
43113SOL    HW231179  11.220   5.410   6.263
43114SOL     OW31180  10.827  12.845   4.679
43114SOL    HW131181  10.847  12.788   4.753
43114SOL    HW231182  10.903  12.835   4.621
43115SOL     OW31183  14.099   2.615   2.335
43115SOL    HW131184  14.186   2.606   2.296
43115SOL    HW231185  14.041   2.572   2.273
43116SOL     OW31186   8.575   2.569   9.501
43116SOL    HW131187   8.557   2.600   9.413
43116SOL    HW231188   8.670   2.572   9.510
43117SOL     OW31189   3.820  10.616  10.620
43117SOL    HW131190   3.738  10.635  10.577
43117SOL    HW231191   3.824  10.520  10.622
43118SOL     OW31192   8.481   9.456   0.147
43118SOL    HW131193   8.391   9.477   0.174
43118SOL    HW231194   8.511   9.394   0.214
43119SOL     OW31195  12.801   6.866   0.109
43119SOL    HW131196  12.772   6.858   0.200
43119SOL    HW231197  12.731   6.913   0.065
43120SOL     OW31198  12.398   8.532  10.141
43120SOL    HW131199  12.307   8.505  10.154
43120SOL    HW231200  12.418   8.506  10.051
43121SOL     OW31201  12.544   8.825  13.136
43121SOL    HW131202  12.462   8.805  13.183
43121SOL    HW231203  12.597   8.747  13.148
43122SOL     OW31204  12.307   4.752   0.020
43122SOL    HW131205  12.396   4.726   0.045
43122SOL    HW231206  12.251   4.693   0.070
43123SOL     OW31207   8.455   9.753   9.156
43123SOL    HW131208   8.403   9.802   9.220
43123SOL    HW231209   8.407   9.762   9.074
43124SOL     OW31210   1.186   1.763   5.263
43124SOL    HW131211   1.092   1.755   5.248
43124SOL    HW231212   1.196   1.847   5.307
43125SOL     OW31213   7.928   8.303   6.043
43125SOL    HW131214   7.842   8.274   6.074
43125SOL    HW231215   7.979   8.313   6.124
43126SOL     OW31216   9.322  10.287  10.088
43126SOL    HW131217   9.291  10.331  10.167
43126SOL    HW231218   9.308  10.351  10.018
43127SOL     OW31219   7.348  12.051  10.944
43127SOL    HW131220   7.413  12.115  10.916
43127SOL    HW231221   7.398  11.979  10.982
43128SOL     OW31222   1.510   9.676   1.715
43128SOL    HW131223   1.461   9.750   1.750
43128SOL    HW231224   1.537   9.626   1.792
43129SOL     OW31225   7.155   7.338   6.414
43129SOL    HW131226   7.153   7.424   6.373
43129SOL    HW231227   7.091   7.344   6.485
43130SOL     OW31228   3.452   5.287   1.243
43130SOL    HW131229   3.472   5.197   1.270
43130SOL    HW231230   3.360   5.284   1.217
43131SOL     OW31231   6.731  14.160  10.195
43131SOL    HW131232   6.668  14.149  10.266
43131SOL    HW231233   6.755  14.252  10.198
43132SOL     OW31234   8.307   4.195  12.635
43132SOL    HW131235   8.248   4.256  12.680
43132SOL    HW231236   8.385   4.247  12.617
43133SOL     OW31237   5.410   5.884  12.552
43133SOL    HW131238   5.340   5.925  12.601
43133SOL    HW231239   5.374   5.870  12.464
43134SOL     OW31240   1.944   5.921  11.822
43134SOL    HW131241   2.022   5.915  11.877
43134SOL    HW231242   1.943   5.838  11.773
43135SOL     OW31243   8.442  14.433   5.169
43135SOL    HW131244   8.501  14.505   5.194
43135SOL    HW231245   8.428  14.445   5.076
43136SOL     OW31246   9.927  11.971   7.144
43136SOL    HW131247   9.846  11.968   7.195
43136SOL    HW231248   9.958  11.881   7.143
43137SOL     OW31249  13.008  10.353  13.073
43137SOL    HW131250  12.985  10.294  13.145
43137SOL    HW231251  12.929  10.405  13.058
43138SOL     OW31252   6.214   6.772  12.859
43138SOL    HW131253   6.253   6.721  12.788
43138SOL    HW231254   6.152   6.712  12.900
43139SOL     OW31255   0.363  13.043   1.571
43139SOL    HW131256   0.300  13.013   1.636
43139SOL    HW231257   0.316  13.110   1.522
43140SOL     OW31258   6.664   9.008   1.715
43140SOL    HW131259   6.673   9.074   1.647
43140SOL    HW231260   6.688   9.054   1.796
43141SOL     OW31261   5.397   8.101  10.984
43141SOL    HW131262   5.490   8.110  11.007
43141SOL    HW231263   5.388   8.010  10.956
43142SOL     OW31264  13.388   2.239   7.789
43142SOL    HW131265  13.432   2.158   7.763
43142SOL    HW231266  13.331   2.214   7.861
43143SOL     OW31267  13.971  10.781   3.676
43143SOL    HW131268  13.875  10.788   3.680
43143SOL    HW231269  14.002  10.861   3.718
43144SOL     OW31270  14.397   2.307  12.910
43144SOL    HW131271  14.424   2.372  12.975
43144SOL    HW231272  14.321   2.346  12.867
43145SOL     OW31273  11.345  11.843   5.755
43145SOL    HW131274  11.296  11.907   5.807
43145SOL    HW231275  11.420  11.892   5.722
43146SOL     OW31276   0.683   9.333   9.303
43146SOL    HW131277   0.603   9.301   9.345
43146SOL    HW231278   0.673   9.428   9.301
43147SOL     OW31279   9.091   1.017   0.461
43147SOL    HW131280   9.112   0.927   0.437
43147SOL    HW231281   9.066   1.059   0.379
43148SOL     OW31282   4.264   0.489   6.468
43148SOL    HW131283   4.333   0.475   6.403
43148SOL    HW231284   4.250   0.404   6.507
43149SOL     OW31285   3.886  14.081   8.462
43149SOL    HW131286   3.794  14.069   8.483
43149SOL    HW231287   3.925  14.115   8.542
43150SOL     OW31288   3.933   3.544   2.758
43150SOL    HW131289   3.907   3.480   2.691
43150SOL    HW231290   3.856   3.600   2.767
43151SOL     OW31291  11.156  10.196   4.496
43151SOL    HW131292  11.116  10.118   4.457
43151SOL    HW231293  11.082  10.244   4.534
43152SOL     OW31294   3.854   1.810  14.682
43152SOL    HW131295   3.903   1.759  14.747
43152SOL    HW231296   3.901   1.796  14.600
43153SOL     OW31297   7.075   5.184  11.245
43153SOL    HW131298   6.994   5.165  11.291
43153SOL    HW231299   7.072   5.279  11.230
43154SOL     OW31300   1.057   4.103  10.857
43154SOL    HW131301   1.121   4.109  10.929
43154SOL    HW231302   0.999   4.178  10.871
43155SOL     OW31303  12.748  12.482  14.849
43155SOL    HW131304  12.795  12.534  14.783
43155SOL    HW231305  12.693  12.423  14.798
43156SOL     OW31306   2.181   3.069   8.650
43156SOL    HW131307   2.265   3.079   8.694
43156SOL    HW231308   2.197   3.004   8.582
43157SOL     OW31309   1.129   8.441   0.755
43157SOL    HW131310   1.180   8.455   0.676
43157SOL    HW231311   1.128   8.526   0.799
43158SOL     OW31312   0.166   0.591   5.216
43158SOL    HW131313   0.108   0.656   5.257
43158SOL    HW231314   0.241   0.642   5.185
43159SOL     OW31315   3.343   6.868  12.939
43159SOL    HW131316   3.404   6.832  13.003
43159SOL    HW231317   3.304   6.792  12.897
43160SOL     OW31318   8.098   8.279   7.273
43160SOL    HW131319   8.058   8.207   7.225
43160SOL    HW231320   8.122   8.242   7.357
43161SOL     OW31321  13.498   8.718   9.668
43161SOL    HW131322  13.591   8.728   9.652
43161SOL    HW231323  13.457   8.787   9.615
43162SOL     OW31324   5.471  14.457   1.396
43162SOL    HW131325   5.391  14.423   1.436
43162SOL    HW231326   5.477  14.547   1.428
43163SOL     OW31327   9.630   4.737  10.184
43163SOL    HW131328   9.590   4.785  10.112
43163SOL    HW231329   9.701   4.794  10.215
43164SOL     OW31330   8.244  12.648   4.809
43164SOL    HW131331   8.284  12.570   4.847
43164SOL    HW231332   8.150  12.630   4.810
43165SOL     OW31333  11.514   7.963   2.786
43165SOL    HW131334  11.427   7.934   2.759
43165SOL    HW231335  11.571   7.887   2.771
43166SOL     OW31336   2.635   8.758  13.321
43166SOL    HW131337   2.640   8.764  13.225
43166SOL    HW231338   2.578   8.830  13.347
43167SOL     OW31339   0.736  10.043  14.078
43167SOL    HW131340   0.706   9.968  14.131
43167SOL    HW231341   0.740  10.008  13.989
43168SOL     OW31342   9.277   2.575   6.014
43168SOL    HW131343   9.365   2.547   5.988
43168SOL    HW231344   9.273   2.557   6.108
43169SOL     OW31345  12.880   9.294   9.100
43169SOL    HW131346  12.838   9.211   9.124
43169SOL    HW231347  12.817   9.337   9.043
43170SOL     OW31348   7.507  12.842   8.062
43170SOL    HW131349   7.434  12.880   8.013
43170SOL    HW231350   7.483  12.750   8.075
43171SOL     OW31351   6.742  14.113   2.262
43171SOL    HW131352   6.763  14.028   2.299
43171SOL    HW231353   6.824  14.143   2.222
43172SOL     OW31354   5.563  10.003  14.577
43172SOL    HW131355   5.606   9.919  14.567
43172SOL    HW231356   5.531  10.003  14.668
43173SOL     OW31357  10.758  14.228  13.405
43173SOL    HW131358  10.760  14.266  13.317
43173SOL    HW231359  10.808  14.289  13.459
43174SOL     OW31360   2.183   3.641   7.048
43174SOL    HW131361   2.114   3.593   7.094
43174SOL    HW231362   2.136   3.702   6.991
43175SOL     OW31363   3.325   0.660  14.319
43175SOL    HW131364   3.346   0.569  14.338
43175SOL    HW231365   3.304   0.698  14.404
43176SOL     OW31366   3.485   6.671   6.649
43176SOL    HW131367   3.435   6.717   6.582
43176SOL    HW231368   3.429   6.676   6.727
43177SOL     OW31369   8.418   1.323   7.990
43177SOL    HW131370   8.392   1.376   8.066
43177SOL    HW231371   8.492   1.370   7.952
43178SOL     OW31372  10.945   8.504   8.817
43178SOL    HW131373  10.939   8.451   8.737
43178SOL    HW231374  11.038   8.525   8.825
43179SOL     OW31375   0.279  10.721  12.155
43179SOL    HW131376   0.361  10.765  12.176
43179SOL    HW231377   0.237  10.777  12.090
43180SOL     OW31378  10.900  10.745  11.357
43180SOL    HW131379  10.928  10.656  11.338
43180SOL    HW231380  10.967  10.801  11.316
43181SOL     OW31381   4.968   4.235  13.171
43181SOL    HW131382   4.899   4.171  13.185
43181SOL    HW231383   4.941   4.284  13.093
43182SOL     OW31384  10.420   7.667   4.600
43182SOL    HW131385  10.467   7.613   4.663
43182SOL    HW231386  10.441   7.628   4.515
43183SOL     OW31387   5.524  14.191   1.546
43183SOL    HW131388   5.467  14.230   1.480
43183SOL    HW231389   5.578  14.264   1.578
43184SOL     OW31390   7.481   8.368  12.979
43184SOL    HW131391   7.445   8.292  12.933
43184SOL    HW231392   7.465   8.441  12.920
43185SOL     OW31393   9.764   6.430   7.653
43185SOL    HW131394   9.767   6.442   7.559
43185SOL    HW231395   9.779   6.518   7.689
43186SOL     OW31396  14.620   3.702   5.332
43186SOL    HW131397  14.620   3.645   5.408
43186SOL    HW231398  14.712   3.723   5.316
43187SOL     OW31399   6.755   2.882  10.823
43187SOL    HW131400   6.699   2.903  10.897
43187SOL    HW231401   6.782   2.967  10.788
43188SOL     OW31402   8.393   1.248   2.582
43188SOL    HW131403   8.326   1.311   2.553
43188SOL    HW231404   8.343   1.172   2.612
43189SOL     OW31405  13.899  14.817   2.170
43189SOL    HW131406  13.917   0.023   2.221
43189SOL    HW231407  13.873  14.752   2.235
43190SOL     OW31408  10.113   2.387   1.665
43190SOL    HW131409  10.113   2.294   1.687
43190SOL    HW231410  10.047   2.426   1.723
43191SOL     OW31411   4.979   8.538   1.888
43191SOL    HW131412   4.939   8.469   1.940
43191SOL    HW231413   4.961   8.513   1.797
43192SOL     OW31414  13.249   1.535  14.146
43192SOL    HW131415  13.189   1.603  14.178
43192SOL    HW231416  13.336   1.573  14.156
43193SOL     OW31417   2.628   4.275   9.155
43193SOL    HW131418   2.600   4.194   9.199
43193SOL    HW231419   2.596   4.266   9.065
43194SOL     OW31420   5.267   1.909   5.290
43194SOL    HW131421   5.357   1.942   5.297
43194SOL    HW231422   5.223   1.946   5.366
43195SOL     OW31423   2.227   3.824   1.767
43195SOL    HW131424   2.311   3.807   1.723
43195SOL    HW231425   2.196   3.905   1.728
43196SOL     OW31426   9.200   2.899  10.382
43196SOL    HW131427   9.181   2.993  10.376
43196SOL    HW231428   9.267   2.893  10.451
43197SOL     OW31429   2.208   7.199   9.089
43197SOL    HW131430   2.162   7.223   9.008
43197SOL    HW231431   2.228   7.283   9.130
43198SOL     OW31432   0.252   7.864   3.841
43198SOL    HW131433   0.310   7.940   3.843
43198SOL    HW231434   0.309   7.791   3.816
43199SOL     OW31435   6.944  11.226  12.846
43199SOL    HW131436   6.989  11.301  12.885
43199SOL    HW231437   6.862  11.262  12.813
43200SOL     OW31438   7.172  10.424   9.297
43200SOL    HW131439   7.077  10.417   9.288
43200SOL    HW231440   7.205  10.339   9.269
43201SOL     OW31441   0.507   9.396   5.164
43201SOL    HW131442   0.589   9.443   5.148
43201SOL    HW231443   0.472   9.436   5.244
43202SOL     OW31444   0.339   0.986   4.803
43202SOL    HW131445   0.261   0.935   4.779
43202SOL    HW231446   0.412   0.925   4.793
43203SOL     OW31447   0.699   4.393   8.304
43203SOL    HW131448   0.744   4.368   8.223
43203SOL    HW231449   0.716   4.321   8.365
43204SOL     OW31450   0.279   7.342   7.221
43204SOL    HW131451   0.189   7.327   7.192
43204SOL    HW231452   0.333   7.315   7.147
43205SOL     OW31453   2.514   6.112   6.531
43205SOL    HW131454   2.483   6.095   6.442
43205SOL    HW231455   2.538   6.025   6.565
43206SOL     OW31456   9.612   6.708   4.449
43206SOL    HW131457   9.591   6.657   4.528
43206SOL    HW231458   9.617   6.643   4.379
43207SOL     OW31459   1.317   0.574   4.765
43207SOL    HW131460   1.231   0.599   4.732
43207SOL    HW231461   1.319   0.479   4.758
43208SOL     OW31462  10.890   2.981   2.005
43208SOL    HW131463  10.980   2.972   1.973
43208SOL    HW231464  10.845   2.903   1.974
43209SOL     OW31465  13.664  12.297   4.623
43209SOL    HW131466  13.720  12.256   4.558
43209SOL    HW231467  13.707  12.380   4.643
43210SOL     OW31468   2.566   6.967   4.443
43210SOL    HW131469   2.600   7.046   4.400
43210SOL    HW231470   2.536   6.997   4.529
43211SOL     OW31471  10.448   6.904  12.207
43211SOL    HW131472  10.426   6.838  12.273
43211SOL    HW231473  10.543   6.917  12.217
43212SOL     OW31474  12.225  11.081   9.643
43212SOL    HW131475  12.192  11.168   9.623
43212SOL    HW231476  12.294  11.095   9.708
43213SOL     OW31477   4.193  11.785   1.542
43213SOL    HW131478   4.114  11.838   1.551
43213SOL    HW231479   4.197  11.764   1.449
43214SOL     OW31480   6.479   4.745  14.838
43214SOL    HW131481   6.514   4.816   0.018
43214SOL    HW231482   6.387   4.739  14.862
43215SOL     OW31483   8.468   5.303   3.154
43215SOL    HW131484   8.562   5.290   3.149
43215SOL    HW231485   8.443   5.267   3.239
43216SOL     OW31486   0.152  10.092  13.471
43216SOL    HW131487   0.147  10.092  13.567
43216SOL    HW231488   0.221  10.156  13.451
43217SOL     OW31489   6.890   7.736   3.811
43217SOL    HW131490   6.812   7.745   3.757
43217SOL    HW231491   6.859   7.694   3.891
43218SOL     OW31492   9.745  13.846   5.235
43218SOL    HW131493   9.744  13.767   5.182
43218SOL    HW231494   9.838  13.860   5.255
43219SOL     OW31495  14.706   1.861   1.448
43219SOL    HW131496  14.748   1.879   1.364
43219SOL    HW231497  14.613   1.852   1.427
43220SOL     OW31498  11.830   9.801  12.703
43220SOL    HW131499  11.787   9.717  12.718
43220SOL    HW231500  11.763   9.866  12.724
43221SOL     OW31501   9.376   9.188  14.352
43221SOL    HW131502   9.399   9.231  14.434
43221SOL    HW231503   9.298   9.137  14.373
43222SOL     OW31504   9.617   7.886   5.102
43222SOL    HW131505   9.707   7.888   5.135
43222SOL    HW231506   9.572   7.824   5.159
43223SOL     OW31507   2.157  10.307  13.065
43223SOL    HW131508   2.143  10.377  13.128
43223SOL    HW231509   2.112  10.337  12.986
43224SOL     OW31510   7.558  10.263   4.536
43224SOL    HW131511   7.497  10.336   4.542
43224SOL    HW231512   7.518  10.202   4.474
43225SOL     OW31513   1.494   3.096   9.208
43225SOL    HW131514   1.409   3.138   9.204
43225SOL    HW231515   1.553   3.162   9.245
43226SOL     OW31516  14.602   1.666   8.136
43226SOL    HW131517  14.523   1.664   8.082
43226SOL    HW231518  14.571   1.689   8.223
43227SOL     OW31519  12.776  12.488   6.158
43227SOL    HW131520  12.870  12.486   6.145
43227SOL    HW231521  12.739  12.487   6.069
43228SOL     OW31522  11.238  11.646   3.577
43228SOL    HW131523  11.196  11.585   3.517
43228SOL    HW231524  11.197  11.628   3.662
43229SOL     OW31525   0.389   4.731  12.725
43229SOL    HW131526   0.345   4.653  12.690
43229SOL    HW231527   0.431   4.701  12.806
43230SOL     OW31528  14.181   0.084   5.518
43230SOL    HW131529  14.236   0.073   5.596
43230SOL    HW231530  14.167   0.178   5.512
43231SOL     OW31531   5.788  14.261   4.623
43231SOL    HW131532   5.845  14.264   4.700
43231SOL    HW231533   5.765  14.169   4.613
43232SOL     OW31534   3.244   7.925   5.075
43232SOL    HW131535   3.282   8.012   5.087
43232SOL    HW231536   3.204   7.904   5.159
43233SOL     OW31537   2.444   5.921   5.329
43233SOL    HW131538   2.484   5.838   5.353
43233SOL    HW231539   2.515   5.971   5.289
43234SOL     OW31540   5.890   6.755   5.241
43234SOL    HW131541   5.921   6.846   5.247
43234SOL    HW231542   5.922   6.714   5.322
43235SOL     OW31543   3.690   1.365   4.946
43235SOL    HW131544   3.712   1.284   4.900
43235SOL    HW231545   3.641   1.417   4.882
43236SOL     OW31546   5.613   6.185   5.216
43236SOL    HW131547   5.656   6.109   5.256
43236SOL    HW231548   5.598   6.158   5.125
43237SOL     OW31549   7.644   6.438   5.412
43237SOL    HW131550   7.574   6.464   5.471
43237SOL    HW231551   7.599   6.395   5.339
43238SOL     OW31552   7.346  14.817  11.038
43238SOL    HW131553   7.275  14.834  11.100
43238SOL    HW231554   7.302  14.787  10.959
43239SOL     OW31555  11.426  11.037   1.772
43239SOL    HW131556  11.419  11.056   1.865
43239SOL    HW231557  11.386  10.951   1.762
43240SOL     OW31558   8.700  14.577  13.449
43240SOL    HW131559   8.751  14.544  13.523
43240SOL    HW231560   8.626  14.622  13.489
43241SOL     OW31561  10.667  11.407   0.381
43241SOL    HW131562  10.627  11.440   0.301
43241SOL    HW231563  10.740  11.467   0.397
43242SOL     OW31564  12.649   8.252   6.266
43242SOL    HW131565  12.656   8.340   6.228
43242SOL    HW231566  12.633   8.268   6.359
43243SOL     OW31567  11.711   3.007   3.971
43243SOL    HW131568  11.797   2.983   4.007
43243SOL    HW231569  11.732   3.055   3.891
43244SOL     OW31570   7.193   9.627  10.686
43244SOL    HW131571   7.267   9.687  10.672
43244SOL    HW231572   7.184   9.580  10.604
43245SOL     OW31573  11.191   8.146   5.376
43245SOL    HW131574  11.286   8.155   5.378
43245SOL    HW231575  11.168   8.119   5.464
43246SOL     OW31576   0.579  13.225   9.794
43246SOL    HW131577   0.649  13.162   9.778
43246SOL    HW231578   0.612  13.307   9.758
43247SOL     OW31579   9.130   4.036   7.800
43247SOL    HW131580   9.222   4.021   7.823
43247SOL    HW231581   9.087   4.054   7.884
43248SOL     OW31582  10.923   3.070   2.253
43248SOL    HW131583  11.018   3.065   2.248
43248SOL    HW231584  10.892   3.045   2.166
43249SOL     OW31585   6.293  10.202  14.415
43249SOL    HW131586   6.210  10.235  14.381
43249SOL    HW231587   6.296  10.110  14.387
43250SOL     OW31588   5.299  11.729  14.167
43250SOL    HW131589   5.258  11.723  14.080
43250SOL    HW231590   5.317  11.638  14.191
43251SOL     OW31591   8.013  12.049   3.098
43251SOL    HW131592   8.094  12.084   3.062
43251SOL    HW231593   8.042  11.991   3.169
43252SOL     OW31594  14.589   6.735   2.222
43252SOL    HW131595  14.499   6.724   2.191
43252SOL    HW231596  14.643   6.707   2.149
43253SOL     OW31597  12.754  13.344   4.623
43253SOL    HW131598  12.725  13.356   4.533
43253SOL    HW231599  12.837  13.392   4.628
43254SOL     OW31600   1.843   6.992   0.828
43254SOL    HW131601   1.767   7.043   0.798
43254SOL    HW231602   1.872   6.944   0.751
43255SOL     OW31603  13.475   0.476   0.425
43255SOL    HW131604  13.550   0.486   0.483
43255SOL    HW231605  13.425   0.403   0.463
43256SOL     OW31606   7.228   1.685   2.813
43256SOL    HW131607   7.168   1.744   2.767
43256SOL    HW231608   7.290   1.744   2.856
43257SOL     OW31609  12.871   8.353  12.429
43257SOL    HW131610  12.866   8.320  12.339
43257SOL    HW231611  12.805   8.422  12.433
43258SOL     OW31612  13.029  11.964   7.286
43258SOL    HW131613  13.031  12.058   7.306
43258SOL    HW231614  12.954  11.953   7.228
43259SOL     OW31615   8.672  10.729   8.816
43259SOL    HW131616   8.591  10.699   8.775
43259SOL    HW231617   8.731  10.746   8.742
43260SOL     OW31618   7.762   7.305   6.543
43260SOL    HW131619   7.806   7.358   6.610
43260SOL    HW231620   7.687   7.266   6.589
43261SOL     OW31621   6.636   4.488  13.186
43261SOL    HW131622   6.661   4.465  13.096
43261SOL    HW231623   6.674   4.575  13.201
43262SOL     OW31624   1.845  14.300   6.580
43262SOL    HW131625   1.795  14.290   6.498
43262SOL    HW231626   1.796  14.248   6.644
43263SOL     OW31627   7.292   6.527   6.987
43263SOL    HW131628   7.214   6.476   6.965
43263SOL    HW231629   7.304   6.585   6.911
43264SOL     OW31630   1.432  12.839   0.718
43264SOL    HW131631   1.367  12.850   0.649
43264SOL    HW231632   1.388  12.865   0.798
43265SOL     OW31633   9.446  11.209   1.386
43265SOL    HW131634   9.423  11.143   1.321
43265SOL    HW231635   9.391  11.285   1.365
43266SOL     OW31636   3.737   0.007   9.906
43266SOL    HW131637   3.781  14.853   9.825
43266SOL    HW231638   3.664  14.819   9.915
43267SOL     OW31639   9.769   1.556  10.293
43267SOL    HW131640   9.860   1.588  10.287
43267SOL    HW231641   9.736   1.561  10.203
43268SOL     OW31642   6.381  12.596   7.773
43268SOL    HW131643   6.437  12.608   7.849
43268SOL    HW231644   6.438  12.554   7.708
43269SOL     OW31645   1.856  12.692  13.046
43269SOL    HW131646   1.908  12.763  13.010
43269SOL    HW231647   1.827  12.642  12.969
43270SOL     OW31648  10.383   3.062   3.537
43270SOL    HW131649  10.413   2.981   3.579
43270SOL    HW231650  10.328   3.032   3.465
43271SOL     OW31651   5.345   3.781  12.749
43271SOL    HW131652   5.361   3.826  12.831
43271SOL    HW231653   5.272   3.722  12.768
43272SOL     OW31654   3.521  11.888  10.644
43272SOL    HW131655   3.574  11.930  10.576
43272SOL    HW231656   3.504  11.957  10.708
43273SOL     OW31657  13.958   1.083   9.584
43273SOL    HW131658  13.870   1.118   9.600
43273SOL    HW231659  14.016   1.154   9.612
43274SOL     OW31660  10.539  13.561   1.051
43274SOL    HW131661  10.489  13.617   0.992
43274SOL    HW231662  10.612  13.529   0.999
43275SOL     OW31663  12.050   7.444  11.139
43275SOL    HW131664  11.977   7.506  11.126
43275SOL    HW231665  12.026   7.395  11.217
43276SOL     OW31666   0.988  10.321   8.801
43276SOL    HW131667   0.931  10.335   8.725
43276SOL    HW231668   1.037  10.241   8.779
43277SOL     OW31669   4.587  11.329   6.661
43277SOL    HW131670   4.529  11.396   6.697
43277SOL    HW231671   4.634  11.294   6.737
43278SOL     OW31672  14.442   0.317   2.023
43278SOL    HW131673  14.509   0.386   2.029
43278SOL    HW231674  14.361   0.362   2.047
43279SOL     OW31675   5.246   2.319   0.718
43279SOL    HW131676   5.226   2.341   0.809
43279SOL    HW231677   5.336   2.349   0.705
43280SOL     OW31678   8.305  13.380   0.382
43280SOL    HW131679   8.298  13.417   0.469
43280SOL    HW231680   8.299  13.455   0.323
43281SOL     OW31681  10.979   6.967   2.562
43281SOL    HW131682  10.957   7.047   2.610
43281SOL    HW231683  10.897   6.939   2.522
43282SOL     OW31684   8.498   5.507   8.284
43282SOL    HW131685   8.572   5.470   8.333
43282SOL    HW231686   8.451   5.560   8.349
43283SOL     OW31687   6.284  10.365  12.520
43283SOL    HW131688   6.350  10.392  12.584
43283SOL    HW231689   6.234  10.297  12.564
43284SOL     OW31690   4.494   7.746  14.169
43284SOL    HW131691   4.422   7.790  14.213
43284SOL    HW231692   4.485   7.654  14.192
43285SOL     OW31693   0.154  10.750   4.325
43285SOL    HW131694   0.152  10.658   4.351
43285SOL    HW231695   0.066  10.768   4.292
43286SOL     OW31696   3.131  13.407   4.445
43286SOL    HW131697   3.189  13.397   4.370
43286SOL    HW231698   3.177  13.363   4.517
43287SOL     OW31699  11.300  12.686   1.356
43287SOL    HW131700  11.329  12.660   1.268
43287SOL    HW231701  11.377  12.730   1.393
43288SOL     OW31702  13.179  11.762   1.804
43288SOL    HW131703  13.143  11.807   1.881
43288SOL    HW231704  13.269  11.739   1.830
43289SOL     OW31705  11.367   4.899   1.120
43289SOL    HW131706  11.320   4.852   1.189
43289SOL    HW231707  11.389   4.984   1.160
43290SOL     OW31708   7.498   0.118  13.573
43290SOL    HW131709   7.542   0.203  13.575
43290SOL    HW231710   7.424   0.128  13.633
43291SOL     OW31711  11.520   5.927   7.074
43291SOL    HW131712  11.552   5.863   7.138
43291SOL    HW231713  11.572   6.005   7.090
43292SOL     OW31714  11.111   9.086   1.311
43292SOL    HW131715  11.182   9.104   1.249
43292SOL    HW231716  11.151   9.100   1.397
43293SOL     OW31717   1.093  12.520   9.028
43293SOL    HW131718   1.068  12.431   9.003
43293SOL    HW231719   1.010  12.567   9.035
43294SOL     OW31720   5.959  12.178  14.441
43294SOL    HW131721   5.893  12.212  14.501
43294SOL    HW231722   6.018  12.127  14.496
43295SOL     OW31723   5.360   1.952   9.827
43295SOL    HW131724   5.299   1.983   9.760
43295SOL    HW231725   5.310   1.953   9.908
43296SOL     OW31726  14.613   7.053   6.958
43296SOL    HW131727  14.629   7.064   6.865
43296SOL    HW231728  14.632   7.138   6.997
43297SOL     OW31729  14.826  10.791   7.203
43297SOL    HW131730   0.008  10.818   7.130
43297SOL    HW231731  14.870  10.714   7.240
43298SOL     OW31732  14.681   0.317  13.005
43298SOL    HW131733  14.767   0.352  13.028
43298SOL    HW231734  14.694   0.222  13.003
43299SOL     OW31735  14.672   4.430  10.075
43299SOL    HW131736  14.603   4.447  10.139
43299SOL    HW231737  14.669   4.506  10.016
43300SOL     OW31738   1.748   1.099  11.754
43300SOL    HW131739   1.772   1.057  11.836
43300SOL    HW231740   1.652   1.099  11.754
43301SOL     OW31741   6.786  10.977   6.020
43301SOL    HW131742   6.858  11.036   5.999
43301SOL    HW231743   6.753  11.007   6.105
43302SOL     OW31744   7.756   9.053   7.773
43302SOL    HW131745   7.752   9.134   7.722
43302SOL    HW231746   7.825   9.002   7.731
43303SOL     OW31747   2.196  10.806   0.027
43303SOL    HW131748   2.129  10.870   0.051
43303SOL    HW231749   2.232  10.776   0.110
43304SOL     OW31750   5.098  11.892   5.565
43304SOL    HW131751   5.050  11.914   5.485
43304SOL    HW231752   5.036  11.841   5.617
43305SOL     OW31753   7.137  13.721   5.010
43305SOL    HW131754   7.141  13.793   5.072
43305SOL    HW231755   7.159  13.643   5.061
43306SOL     OW31756   0.662   7.373  11.537
43306SOL    HW131757   0.716   7.401  11.610
43306SOL    HW231758   0.593   7.439  11.531
43307SOL     OW31759   3.623   7.856   8.292
43307SOL    HW131760   3.641   7.765   8.270
43307SOL    HW231761   3.565   7.887   8.221
43308SOL     OW31762   0.879   1.787   1.363
43308SOL    HW131763   0.903   1.877   1.388
43308SOL    HW231764   0.800   1.798   1.309
43309SOL     OW31765   2.074   9.111   9.380
43309SOL    HW131766   2.029   9.175   9.435
43309SOL    HW231767   2.047   9.026   9.415
43310SOL     OW31768   9.343   2.773   0.948
43310SOL    HW131769   9.383   2.798   0.865
43310SOL    HW231770   9.344   2.677   0.947
43311SOL     OW31771   5.070   2.328   0.268
43311SOL    HW131772   5.158   2.357   0.245
43311SOL    HW231773   5.058   2.246   0.221
43312SOL     OW31774   5.662   7.553   4.649
43312SOL    HW131775   5.635   7.632   4.697
43312SOL    HW231776   5.743   7.526   4.692
43313SOL     OW31777  14.504  11.364  13.931
43313SOL    HW131778  14.434  11.420  13.896
43313SOL    HW231779  14.460  11.309  13.996
43314SOL     OW31780   8.380   7.505  11.573
43314SOL    HW131781   8.461   7.462  11.545
43314SOL    HW231782   8.399   7.599  11.564
43315SOL     OW31783  11.257   5.281  14.835
43315SOL    HW131784  11.345   5.306  14.808
43315SOL    HW231785  11.223   5.358   0.008
43316SOL     OW31786  13.878  10.762   6.221
43316SOL    HW131787  13.965  10.802   6.220
43316SOL    HW231788  13.886  10.684   6.166
43317SOL     OW31789  12.969   8.581   5.089
43317SOL    HW131790  12.987   8.492   5.122
43317SOL    HW231791  12.914   8.620   5.157
43318SOL     OW31792  13.864   0.363   7.678
43318SOL    HW131793  13.807   0.439   7.691
43318SOL    HW231794  13.927   0.392   7.612
43319SOL     OW31795  11.805   8.728   3.791
43319SOL    HW131796  11.757   8.806   3.819
43319SOL    HW231797  11.886   8.730   3.841
43320SOL     OW31798  11.281   6.495  14.833
43320SOL    HW131799  11.284   6.561   0.029
43320SOL    HW231800  11.352   6.435  14.855
43321SOL     OW31801  13.720   2.321   4.145
43321SOL    HW131802  13.796   2.344   4.091
43321SOL    HW231803  13.648   2.369   4.105
43322SOL     OW31804  12.735   7.367   5.094
43322SOL    HW131805  12.674   7.373   5.168
43322SOL    HW231806  12.812   7.323   5.130
43323SOL     OW31807   7.280   9.584   1.128
43323SOL    HW131808   7.332   9.661   1.153
43323SOL    HW231809   7.240   9.608   1.044
43324SOL     OW31810   7.012   1.840   4.270
43324SOL    HW131811   7.026   1.934   4.255
43324SOL    HW231812   7.006   1.832   4.365
43325SOL     OW31813  10.775   5.736   4.035
43325SOL    HW131814  10.847   5.716   4.095
43325SOL    HW231815  10.699   5.749   4.091
43326SOL     OW31816  14.562  11.294   6.216
43326SOL    HW131817  14.646  11.285   6.170
43326SOL    HW231818  14.498  11.259   6.154
43327SOL     OW31819   0.101   1.179   5.726
43327SOL    HW131820   0.012   1.143   5.730
43327SOL    HW231821   0.158   1.105   5.744
43328SOL     OW31822   0.975   8.975   2.097
43328SOL    HW131823   0.972   8.936   2.010
43328SOL    HW231824   0.939   8.907   2.155
43329SOL     OW31825  12.351   1.863   8.381
43329SOL    HW131826  12.313   1.940   8.339
43329SOL    HW231827  12.360   1.799   8.311
43330SOL     OW31828   7.723   7.352   5.315
43330SOL    HW131829   7.818   7.354   5.325
43330SOL    HW231830   7.706   7.268   5.272
43331SOL     OW31831   6.830   4.843  10.435
43331SOL    HW131832   6.823   4.879  10.524
43331SOL    HW231833   6.777   4.902  10.381
43332SOL     OW31834  10.276  13.184  10.464
43332SOL    HW131835  10.232  13.262  10.497
43332SOL    HW231836  10.204  13.125  10.440
43333SOL     OW31837  13.072   8.252  12.918
43333SOL    HW131838  13.165   8.269  12.906
43333SOL    HW231839  13.034   8.259  12.830
43334SOL     OW31840   0.186   5.026   2.270
43334SOL    HW131841   0.120   4.960   2.290
43334SOL    HW231842   0.146   5.109   2.298
43335SOL     OW31843  13.288   9.303   3.863
43335SOL    HW131844  13.233   9.315   3.785
43335SOL    HW231845  13.279   9.211   3.885
43336SOL     OW31846   0.520  12.439   3.161
43336SOL    HW131847   0.515  12.533   3.180
43336SOL    HW231848   0.594  12.408   3.213
43337SOL     OW31849   4.490  11.213   0.869
43337SOL    HW131850   4.522  11.239   0.956
43337SOL    HW231851   4.544  11.263   0.808
43338SOL     OW31852   6.080  12.298   1.622
43338SOL    HW131853   6.079  12.303   1.718
43338SOL    HW231854   5.988  12.309   1.597
43339SOL     OW31855   6.944   7.739  10.531
43339SOL    HW131856   6.931   7.754  10.624
43339SOL    HW231857   6.974   7.648  10.526
43340SOL     OW31858  11.601   0.327  13.410
43340SOL    HW131859  11.593   0.314  13.504
43340SOL    HW231860  11.663   0.261  13.382
43341SOL     OW31861   4.306   1.389   1.310
43341SOL    HW131862   4.238   1.456   1.305
43341SOL    HW231863   4.260   1.307   1.293
43342SOL     OW31864   5.493   3.917   3.738
43342SOL    HW131865   5.441   3.994   3.763
43342SOL    HW231866   5.432   3.844   3.743
43343SOL     OW31867  14.716   5.606   7.700
43343SOL    HW131868  14.757   5.693   7.705
43343SOL    HW231869  14.647   5.616   7.634
43344SOL     OW31870  10.608   0.939  13.621
43344SOL    HW131871  10.570   0.927  13.534
43344SOL    HW231872  10.698   0.906  13.612
43345SOL     OW31873  11.755   4.233   3.206
43345SOL    HW131874  11.750   4.321   3.243
43345SOL    HW231875  11.848   4.219   3.191
43346SOL     OW31876  10.403   3.444  12.705
43346SOL    HW131877  10.468   3.374  12.696
43346SOL    HW231878  10.382   3.445  12.798
43347SOL     OW31879   6.133   1.853   4.081
43347SOL    HW131880   6.091   1.794   4.018
43347SOL    HW231881   6.115   1.941   4.047
43348SOL     OW31882   8.597   6.581  10.773
43348SOL    HW131883   8.634   6.642  10.709
43348SOL    HW231884   8.503   6.603  10.775
43349SOL     OW31885   3.467   6.231   6.722
43349SOL    HW131886   3.467   6.324   6.698
43349SOL    HW231887   3.510   6.188   6.649
43350SOL     OW31888   6.805   9.800  10.731
43350SOL    HW131889   6.815   9.713  10.769
43350SOL    HW231890   6.878   9.808  10.670
43351SOL     OW31891  12.824   1.244   4.204
43351SOL    HW131892  12.753   1.275   4.147
43351SOL    HW231893  12.903   1.256   4.152
43352SOL     OW31894   9.409   1.652   4.506
43352SOL    HW131895   9.426   1.635   4.599
43352SOL    HW231896   9.404   1.748   4.500
43353SOL     OW31897  14.790   7.452  11.320
43353SOL    HW131898  14.751   7.435  11.406
43353SOL    HW231899   0.010   7.464  11.338
43354SOL     OW31900  13.361  10.051  11.620
43354SOL    HW131901  13.282  10.054  11.566
43354SOL    HW231902  13.355   9.968  11.667
43355SOL     OW31903   8.095  11.859  13.034
43355SOL    HW131904   8.088  11.787  12.971
43355SOL    HW231905   8.063  11.821  13.116
43356SOL     OW31906  14.307  14.054  13.217
43356SOL    HW131907  14.343  14.040  13.305
43356SOL    HW231908  14.384  14.076  13.163
43357SOL     OW31909  14.849  14.158   1.281
43357SOL    HW131910   0.052  14.175   1.225
43357SOL    HW231911  14.776  14.198   1.235
43358SOL     OW31912  12.562   0.015   1.678
43358SOL    HW131913  12.643  14.847   1.708
43358SOL    HW231914  12.500  14.815   1.672
43359SOL     OW31915   1.812   8.477  14.146
43359SOL    HW131916   1.752   8.520  14.085
43359SOL    HW231917   1.771   8.487  14.232
43360SOL     OW31918   5.617   5.851  10.588
43360SOL    HW131919   5.703   5.873  10.623
43360SOL    HW231920   5.570   5.813  10.662
43361SOL     OW31921  11.060   0.967   9.007
43361SOL    HW131922  11.012   0.904   9.060
43361SOL    HW231923  10.993   1.014   8.958
43362SOL     OW31924   8.756  13.536   4.384
43362SOL    HW131925   8.792  13.456   4.347
43362SOL    HW231926   8.830  13.577   4.429
43363SOL     OW31927  10.951   7.841   5.913
43363SOL    HW131928  11.033   7.882   5.938
43363SOL    HW231929  10.886   7.877   5.973
43364SOL     OW31930   8.660   7.336   7.236
43364SOL    HW131931   8.680   7.336   7.143
43364SOL    HW231932   8.566   7.351   7.241
43365SOL     OW31933  11.146  14.469   3.274
43365SOL    HW131934  11.174  14.449   3.185
43365SOL    HW231935  11.061  14.427   3.283
43366SOL     OW31936   6.498  13.616  14.001
43366SOL    HW131937   6.567  13.671  14.037
43366SOL    HW231938   6.418  13.668  14.010
43367SOL     OW31939   1.723   9.352   6.602
43367SOL    HW131940   1.708   9.278   6.662
43367SOL    HW231941   1.788   9.406   6.646
43368SOL     OW31942   8.801   5.639  13.634
43368SOL    HW131943   8.886   5.598  13.640
43368SOL    HW231944   8.764   5.606  13.552
43369SOL     OW31945  10.014  12.811   6.746
43369SOL    HW131946   9.954  12.858   6.804
43369SOL    HW231947  10.072  12.763   6.805
43370SOL     OW31948   3.999   0.360   0.186
43370SOL    HW131949   4.043   0.438   0.153
43370SOL    HW231950   4.023   0.356   0.279
43371SOL     OW31951   8.356   0.305   9.108
43371SOL    HW131952   8.412   0.337   9.038
43371SOL    HW231953   8.392   0.343   9.188
43372SOL     OW31954  12.491   1.756  12.494
43372SOL    HW131955  12.458   1.671  12.464
43372SOL    HW231956  12.418   1.816  12.478
43373SOL     OW31957  12.005  14.383   8.089
43373SOL    HW131958  11.990  14.359   8.180
43373SOL    HW231959  11.936  14.338   8.040
43374SOL     OW31960  11.932  10.025  14.382
43374SOL    HW131961  12.019  10.015  14.422
43374SOL    HW231962  11.887   9.943  14.401
43375SOL     OW31963  13.239  10.918   5.991
43375SOL    HW131964  13.254  10.840   5.938
43375SOL    HW231965  13.146  10.913   6.015
43376SOL     OW31966   0.066  11.158   2.323
43376SOL    HW131967   0.147  11.122   2.285
43376SOL    HW231968   0.064  11.123   2.412
43377SOL     OW31969  13.740  10.990   5.297
43377SOL    HW131970  13.742  10.964   5.389
43377SOL    HW231971  13.649  11.018   5.282
43378SOL     OW31972  13.016  10.970   1.943
43378SOL    HW131973  13.106  10.986   1.915
43378SOL    HW231974  12.968  10.955   1.862
43379SOL     OW31975   2.966   4.787   4.618
43379SOL    HW131976   3.020   4.859   4.652
43379SOL    HW231977   2.924   4.751   4.696
43380SOL     OW31978   3.043   6.254   3.849
43380SOL    HW131979   2.950   6.237   3.839
43380SOL    HW231980   3.049   6.340   3.890
43381SOL     OW31981   4.785   1.011   8.863
43381SOL    HW131982   4.874   1.044   8.854
43381SOL    HW231983   4.789   0.952   8.939
43382SOL     OW31984  12.344  12.296   4.941
43382SOL    HW131985  12.361  12.369   5.000
43382SOL    HW231986  12.283  12.240   4.990
43383SOL     OW31987   2.752   7.328  12.124
43383SOL    HW131988   2.848   7.326  12.131
43383SOL    HW231989   2.736   7.362  12.036
43384SOL     OW31990   3.055   0.330   5.126
43384SOL    HW131991   3.138   0.294   5.158
43384SOL    HW231992   2.993   0.315   5.197
43385SOL     OW31993   7.769   1.652  10.765
43385SOL    HW131994   7.744   1.743  10.783
43385SOL    HW231995   7.848   1.638  10.818
43386SOL     OW31996   9.692  12.184   5.764
43386SOL    HW131997   9.689  12.121   5.692
43386SOL    HW231998   9.631  12.253   5.738
43387SOL     OW31999  14.086  11.293   6.096
43387SOL    HW132000  14.142  11.316   6.022
43387SOL    HW232001  14.061  11.202   6.080
43388SOL     OW32002  10.326  12.614   0.327
43388SOL    HW132003  10.410  12.652   0.353
43388SOL    HW232004  10.338  12.519   0.337
43389SOL     OW32005   6.918  11.678   2.966
43389SOL    HW132006   6.842  11.672   3.025
43389SOL    HW232007   6.920  11.593   2.921
43390SOL     OW32008  10.590   7.381  10.106
43390SOL    HW132009  10.514   7.425  10.066
43390SOL    HW232010  10.643   7.354  10.031
43391SOL     OW32011  10.728   8.924  11.379
43391SOL    HW132012  10.770   8.891  11.299
43391SOL    HW232013  10.784   8.893  11.450
43392SOL     OW32014   4.968   0.592  10.680
43392SOL    HW132015   4.936   0.619  10.594
43392SOL    HW232016   4.957   0.668  10.736
43393SOL     OW32017  11.454   5.211  13.814
43393SOL    HW132018  11.437   5.158  13.736
43393SOL    HW232019  11.482   5.148  13.880
43394SOL     OW32020  10.186   1.640   7.169
43394SOL    HW132021  10.198   1.653   7.075
43394SOL    HW232022  10.133   1.561   7.177
43395SOL     OW32023   0.056   5.310   8.164
43395SOL    HW132024  14.849   5.352   8.195
43395SOL    HW232025   0.061   5.227   8.211
43396SOL     OW32026  10.102   0.769   5.620
43396SOL    HW132027  10.163   0.806   5.556
43396SOL    HW232028  10.030   0.832   5.622
43397SOL     OW32029   8.197   9.719   1.077
43397SOL    HW132030   8.289   9.710   1.101
43397SOL    HW232031   8.153   9.647   1.120
43398SOL     OW32032   7.523   5.713  11.483
43398SOL    HW132033   7.494   5.667  11.562
43398SOL    HW232034   7.503   5.652  11.412
43399SOL     OW32035   7.021   1.032  14.562
43399SOL    HW132036   6.989   1.109  14.514
43399SOL    HW232037   6.942   0.994  14.600
43400SOL     OW32038   0.894   7.320  10.745
43400SOL    HW132039   0.890   7.363  10.830
43400SOL    HW232040   0.835   7.371  10.690
43401SOL     OW32041  12.756   5.374  12.063
43401SOL    HW132042  12.833   5.377  12.121
43401SOL    HW232043  12.743   5.464  12.035
43402SOL     OW32044   5.585  13.172   9.994
43402SOL    HW132045   5.674  13.193  10.020
43402SOL    HW232046   5.595  13.100   9.931
43403SOL     OW32047  12.296  13.217   0.201
43403SOL    HW132048  12.239  13.148   0.234
43403SOL    HW232049  12.260  13.298   0.238
43404SOL     OW32050   0.264   9.953   3.173
43404SOL    HW132051   0.187  10.010   3.167
43404SOL    HW232052   0.290   9.959   3.264
43405SOL     OW32053   8.254   4.731  12.453
43405SOL    HW132054   8.178   4.789  12.454
43405SOL    HW232055   8.325   4.784  12.488
43406SOL     OW32056   6.536  10.618  13.724
43406SOL    HW132057   6.544  10.693  13.665
43406SOL    HW232058   6.450  10.580  13.702
43407SOL     OW32059  12.921  12.410   4.011
43407SOL    HW132060  12.972  12.329   4.019
43407SOL    HW232061  12.971  12.464   3.949
43408SOL     OW32062   8.826   3.268   3.261
43408SOL    HW132063   8.901   3.248   3.205
43408SOL    HW232064   8.755   3.216   3.223
43409SOL     OW32065  11.996   3.658   6.053
43409SOL    HW132066  11.906   3.665   6.021
43409SOL    HW232067  12.043   3.611   5.983
43410SOL     OW32068  10.032  11.163  12.875
43410SOL    HW132069   9.964  11.198  12.818
43410SOL    HW232070  10.055  11.078  12.837
43411SOL     OW32071   7.814   7.403   0.171
43411SOL    HW132072   7.874   7.371   0.103
43411SOL    HW232073   7.748   7.452   0.122
43412SOL     OW32074  13.451   7.026   6.534
43412SOL    HW132075  13.395   6.967   6.585
43412SOL    HW232076  13.395   7.053   6.460
43413SOL     OW32077  13.115  10.453  11.118
43413SOL    HW132078  13.184  10.477  11.180
43413SOL    HW232079  13.064  10.386  11.164
43414SOL     OW32080  14.328   7.116   8.959
43414SOL    HW132081  14.408   7.169   8.956
43414SOL    HW232082  14.335   7.068   9.041
43415SOL     OW32083   5.713  12.642   5.108
43415SOL    HW132084   5.801  12.608   5.092
43415SOL    HW232085   5.696  12.701   5.035
43416SOL     OW32086   3.641  14.656   5.268
43416SOL    HW132087   3.684  14.741   5.274
43416SOL    HW232088   3.667  14.610   5.347
43417SOL     OW32089  10.163  12.089   8.573
43417SOL    HW132090  10.203  12.157   8.628
43417SOL    HW232091  10.069  12.103   8.583
43418SOL     OW32092   6.768   7.423   6.401
43418SOL    HW132093   6.748   7.475   6.478
43418SOL    HW232094   6.858   7.395   6.413
43419SOL     OW32095   6.007   6.882   1.212
43419SOL    HW132096   6.054   6.960   1.183
43419SOL    HW232097   6.020   6.881   1.307
43420SOL     OW32098  10.935   8.667   3.707
43420SOL    HW132099  11.024   8.686   3.736
43420SOL    HW232100  10.914   8.738   3.646
43421SOL     OW32101  11.802   4.455   8.389
43421SOL    HW132102  11.811   4.367   8.352
43421SOL    HW232103  11.750   4.503   8.324
43422SOL     OW32104   6.383  13.648   1.414
43422SOL    HW132105   6.370  13.652   1.319
43422SOL    HW232106   6.396  13.739   1.440
43423SOL     OW32107  10.587  10.690   1.853
43423SOL    HW132108  10.533  10.677   1.775
43423SOL    HW232109  10.675  10.662   1.827
43424SOL     OW32110   7.106   0.663   4.547
43424SOL    HW132111   7.018   0.696   4.530
43424SOL    HW232112   7.136   0.712   4.624
43425SOL     OW32113  13.630   2.036   5.453
43425SOL    HW132114  13.620   2.129   5.471
43425SOL    HW232115  13.554   2.014   5.399
43426SOL     OW32116   2.188  12.010   5.421
43426SOL    HW132117   2.241  12.048   5.352
43426SOL    HW232118   2.110  11.976   5.377
43427SOL     OW32119   5.239  11.147  14.124
43427SOL    HW132120   5.228  11.239  14.149
43427SOL    HW232121   5.166  11.102  14.166
43428SOL     OW32122   8.838   5.658   1.171
43428SOL    HW132123   8.891   5.580   1.191
43428SOL    HW232124   8.887   5.703   1.103
43429SOL     OW32125  10.197  11.724   7.336
43429SOL    HW132126  10.191  11.706   7.430
43429SOL    HW232127  10.107  11.713   7.304
43430SOL     OW32128   8.371   8.178   3.354
43430SOL    HW132129   8.456   8.136   3.373
43430SOL    HW232130   8.373   8.259   3.405
43431SOL     OW32131   7.772   6.290  10.659
43431SOL    HW132132   7.848   6.240  10.688
43431SOL    HW232133   7.809   6.369  10.620
43432SOL     OW32134   9.723   2.357  11.655
43432SOL    HW132135   9.720   2.299  11.731
43432SOL    HW232136   9.633   2.387  11.644
43433SOL     OW32137   9.144  11.956  11.444
43433SOL    HW132138   9.113  11.990  11.360
43433SOL    HW232139   9.076  11.895  11.472
43434SOL     OW32140   7.661  14.168  14.182
43434SOL    HW132141   7.575  14.164  14.141
43434SOL    HW232142   7.678  14.079  14.212
43435SOL     OW32143  12.728  12.440   7.182
43435SOL    HW132144  12.736  12.354   7.224
43435SOL    HW232145  12.814  12.456   7.144
43436SOL     OW32146  13.916  12.858   8.677
43436SOL    HW132147  13.890  12.950   8.671
43436SOL    HW232148  13.929  12.844   8.771
43437SOL     OW32149   8.126   7.344   4.610
43437SOL    HW132150   8.150   7.322   4.700
43437SOL    HW232151   8.160   7.432   4.597
43438SOL     OW32152  11.908   3.934   8.421
43438SOL    HW132153  11.988   3.900   8.382
43438SOL    HW232154  11.838   3.903   8.363
43439SOL     OW32155   7.361  14.725  12.938
43439SOL    HW132156   7.408  14.655  12.892
43439SOL    HW232157   7.287  14.744  12.880
43440SOL     OW32158  13.983   2.624   4.485
43440SOL    HW132159  14.056   2.593   4.538
43440SOL    HW232160  14.004   2.715   4.466
43441SOL     OW32161  11.968   1.618   1.571
43441SOL    HW132162  11.979   1.525   1.551
43441SOL    HW232163  12.013   1.630   1.655
43442SOL     OW32164   6.543   8.960   9.418
43442SOL    HW132165   6.508   8.873   9.437
43442SOL    HW232166   6.558   8.959   9.323
43443SOL     OW32167  14.417  12.667   5.189
43443SOL    HW132168  14.367  12.600   5.143
43443SOL    HW232169  14.465  12.619   5.256
43444SOL     OW32170  14.087   1.623   8.541
43444SOL    HW132171  14.110   1.714   8.563
43444SOL    HW232172  13.998   1.613   8.576
43445SOL     OW32173  13.523  10.208   1.890
43445SOL    HW132174  13.483  10.226   1.975
43445SOL    HW232175  13.449  10.208   1.829
43446SOL     OW32176  12.611   9.647   9.471
43446SOL    HW132177  12.622   9.577   9.407
43446SOL    HW232178  12.605   9.727   9.418
43447SOL     OW32179   5.325  13.837   3.827
43447SOL    HW132180   5.271  13.773   3.874
43447SOL    HW232181   5.385  13.783   3.775
43448SOL     OW32182   3.666   7.953   1.867
43448SOL    HW132183   3.595   7.900   1.830
43448SOL    HW232184   3.679   8.023   1.804
43449SOL     OW32185   0.105   6.095  12.803
43449SOL    HW132186   0.117   6.013  12.851
43449SOL    HW232187   0.164   6.089  12.728
43450SOL     OW32188  14.827   6.034   6.976
43450SOL    HW132189  14.838   6.122   7.012
43450SOL    HW232190   0.029   5.985   7.010
43451SOL     OW32191  13.071  12.057   5.399
43451SOL    HW132192  13.103  12.147   5.403
43451SOL    HW232193  13.018  12.053   5.320
43452SOL     OW32194  10.884   9.660   4.787
43452SOL    HW132195  10.822   9.617   4.846
43452SOL    HW232196  10.835   9.671   4.705
43453SOL     OW32197   6.620   8.274  13.137
43453SOL    HW132198   6.569   8.241  13.063
43453SOL    HW232199   6.681   8.336  13.098
43454SOL     OW32200   4.759   6.054   4.216
43454SOL    HW132201   4.763   5.958   4.222
43454SOL    HW232202   4.669   6.073   4.191
43455SOL     OW32203   5.789   4.428  13.500
43455SOL    HW132204   5.729   4.502  13.506
43455SOL    HW232205   5.844   4.447  13.425
43456SOL     OW32206   3.252   5.722   9.749
43456SOL    HW132207   3.290   5.648   9.700
43456SOL    HW232208   3.298   5.721   9.832
43457SOL     OW32209  13.777   6.816   6.715
43457SOL    HW132210  13.702   6.770   6.753
43457SOL    HW232211  13.737   6.883   6.659
43458SOL     OW32212   4.215  11.220   6.843
43458SOL    HW132213   4.175  11.203   6.928
43458SOL    HW232214   4.155  11.281   6.800
43459SOL     OW32215  10.416  12.901  12.748
43459SOL    HW132216  10.393  12.876  12.837
43459SOL    HW232217  10.356  12.851  12.693
43460SOL     OW32218   3.148   9.079   1.495
43460SOL    HW132219   3.066   9.055   1.450
43460SOL    HW232220   3.145   9.174   1.501
43461SOL     OW32221   9.923   1.884   2.703
43461SOL    HW132222   9.959   1.813   2.650
43461SOL    HW232223   9.981   1.889   2.779
43462SOL     OW32224  11.974  10.488   0.463
43462SOL    HW132225  11.969  10.572   0.508
43462SOL    HW232226  12.045  10.441   0.507
43463SOL     OW32227  12.338   0.526   5.385
43463SOL    HW132228  12.398   0.470   5.436
43463SOL    HW232229  12.381   0.611   5.383
43464SOL     OW32230   5.699  10.555  11.768
43464SOL    HW132231   5.703  10.482  11.705
43464SOL    HW232232   5.717  10.633  11.715
43465SOL     OW32233  13.956   5.081  13.451
43465SOL    HW132234  13.975   5.174  13.441
43465SOL    HW232235  13.969   5.064  13.544
43466SOL     OW32236   1.024  12.848   1.787
43466SOL    HW132237   0.952  12.786   1.793
43466SOL    HW232238   1.041  12.856   1.693
43467SOL     OW32239  11.932   5.734   4.013
43467SOL    HW132240  11.969   5.771   3.932
43467SOL    HW232241  11.950   5.640   4.007
43468SOL     OW32242  11.070  10.460   1.640
43468SOL    HW132243  11.079  10.533   1.701
43468SOL    HW232244  11.159  10.439   1.614
43469SOL     OW32245   6.033   8.139  12.432
43469SOL    HW132246   6.053   8.096  12.516
43469SOL    HW232247   6.003   8.069  12.375
43470SOL     OW32248   6.758   4.733   0.984
43470SOL    HW132249   6.794   4.646   1.001
43470SOL    HW232250   6.720   4.760   1.068
43471SOL     OW32251   1.479   1.088  13.773
43471SOL    HW132252   1.442   1.014  13.822
43471SOL    HW232253   1.420   1.099  13.699
43472SOL     OW32254   9.103   9.292   3.147
43472SOL    HW132255   9.121   9.246   3.065
43472SOL    HW232256   9.032   9.353   3.125
43473SOL     OW32257   6.497  13.268  10.210
43473SOL    HW132258   6.497  13.174  10.228
43473SOL    HW232259   6.584  13.297  10.240
43474SOL     OW32260   7.752  10.350  13.298
43474SOL    HW132261   7.727  10.298  13.221
43474SOL    HW232262   7.734  10.441  13.272
43475SOL     OW32263  11.651   1.432  11.553
43475SOL    HW132264  11.743   1.444  11.530
43475SOL    HW232265  11.615   1.381  11.480
43476SOL     OW32266   8.066  11.781   2.282
43476SOL    HW132267   8.005  11.855   2.275
43476SOL    HW232268   8.148  11.820   2.312
43477SOL     OW32269   7.963   6.394  14.221
43477SOL    HW132270   8.014   6.475  14.228
43477SOL    HW232271   7.993   6.354  14.139
43478SOL     OW32272  14.446  10.286   8.655
43478SOL    HW132273  14.474  10.366   8.699
43478SOL    HW232274  14.355  10.274   8.681
43479SOL     OW32275   0.596   5.090   9.829
43479SOL    HW132276   0.663   5.144   9.871
43479SOL    HW232277   0.639   5.005   9.816
43480SOL     OW32278   6.960   3.980   4.589
43480SOL    HW132279   6.878   3.931   4.602
43480SOL    HW232280   7.016   3.920   4.541
43481SOL     OW32281  11.465  11.290  10.160
43481SOL    HW132282  11.446  11.265  10.069
43481SOL    HW232283  11.428  11.378  10.168
43482SOL     OW32284  11.666   0.937  14.251
43482SOL    HW132285  11.702   1.025  14.250
43482SOL    HW232286  11.605   0.936  14.325
43483SOL     OW32287   1.070   9.195   6.648
43483SOL    HW132288   1.022   9.159   6.722
43483SOL    HW232289   1.158   9.212   6.681
43484SOL     OW32290   4.879   1.013   9.364
43484SOL    HW132291   4.886   0.965   9.281
43484SOL    HW232292   4.855   1.102   9.338
43485SOL     OW32293  12.541   5.750   1.666
43485SOL    HW132294  12.597   5.822   1.697
43485SOL    HW232295  12.452   5.782   1.681
43486SOL     OW32296   1.801   8.956   7.743
43486SOL    HW132297   1.712   8.986   7.761
43486SOL    HW232298   1.823   8.901   7.818
43487SOL     OW32299   1.333  14.090  12.962
43487SOL    HW132300   1.420  14.055  12.947
43487SOL    HW232301   1.311  14.136  12.881
43488SOL     OW32302   7.142   6.014   4.450
43488SOL    HW132303   7.183   6.071   4.515
43488SOL    HW232304   7.154   5.925   4.485
43489SOL     OW32305   4.929   8.790   8.805
43489SOL    HW132306   4.975   8.870   8.780
43489SOL    HW232307   4.847   8.793   8.754
43490SOL     OW32308   2.098   6.476  12.002
43490SOL    HW132309   2.147   6.503  12.080
43490SOL    HW232310   2.089   6.556  11.951
43491SOL     OW32311   2.455  11.640   2.919
43491SOL    HW132312   2.366  11.664   2.946
43491SOL    HW232313   2.443  11.561   2.867
43492SOL     OW32314   2.932   3.228   4.299
43492SOL    HW132315   2.917   3.134   4.288
43492SOL    HW232316   2.905   3.247   4.389
43493SOL     OW32317   8.634  11.162  10.549
43493SOL    HW132318   8.680  11.180  10.631
43493SOL    HW232319   8.552  11.122  10.576
43494SOL     OW32320   9.981   9.822   0.896
43494SOL    HW132321   9.970   9.783   0.810
43494SOL    HW232322   9.896   9.812   0.938
43495SOL     OW32323   6.958   1.709   6.438
43495SOL    HW132324   6.946   1.781   6.376
43495SOL    HW232325   7.026   1.739   6.498
43496SOL     OW32326  14.397   3.316  10.435
43496SOL    HW132327  14.336   3.389  10.423
43496SOL    HW232328  14.483   3.357  10.436
43497SOL     OW32329  14.556  14.015   1.206
43497SOL    HW132330  14.512  14.084   1.256
43497SOL    HW232331  14.593  14.060   1.131
43498SOL     OW32332   1.062   1.341   0.964
43498SOL    HW132333   1.060   1.435   0.948
43498SOL    HW232334   0.972   1.318   0.986
43499SOL     OW32335  13.248   4.573   4.903
43499SOL    HW132336  13.216   4.650   4.950
43499SOL    HW232337  13.324   4.545   4.954
43500SOL     OW32338  13.978  13.636   7.006
43500SOL    HW132339  13.908  13.688   7.046
43500SOL    HW232340  13.940  13.548   6.998
43501SOL     OW32341   5.443   2.431  13.514
43501SOL    HW132342   5.494   2.509  13.493
43501SOL    HW232343   5.472   2.406  13.602
43502SOL     OW32344   5.744   5.461   9.196
43502SOL    HW132345   5.696   5.536   9.232
43502SOL    HW232346   5.830   5.466   9.238
43503SOL     OW32347   2.973   9.533   5.304
43503SOL    HW132348   3.068   9.536   5.292
43503SOL    HW232349   2.961   9.503   5.395
43504SOL     OW32350   6.818  14.275   2.914
43504SOL    HW132351   6.736  14.227   2.902
43504SOL    HW232352   6.848  14.251   3.002
43505SOL     OW32353  11.448  14.336   4.823
43505SOL    HW132354  11.457  14.254   4.871
43505SOL    HW232355  11.357  14.362   4.836
43506SOL     OW32356  10.715   4.194  13.117
43506SOL    HW132357  10.751   4.106  13.107
43506SOL    HW232358  10.669   4.210  13.034
43507SOL     OW32359   1.344   9.669  12.244
43507SOL    HW132360   1.436   9.694  12.257
43507SOL    HW232361   1.347   9.603  12.175
43508SOL     OW32362   5.223   8.183   0.142
43508SOL    HW132363   5.225   8.212   0.051
43508SOL    HW232364   5.305   8.134   0.153
43509SOL     OW32365   5.872   9.222   4.105
43509SOL    HW132366   5.870   9.246   4.013
43509SOL    HW232367   5.783   9.191   4.123
43510SOL     OW32368   7.763   8.528  14.576
43510SOL    HW132369   7.810   8.533  14.493
43510SOL    HW232370   7.675   8.559  14.556
43511SOL     OW32371   3.224   3.505   4.866
43511SOL    HW132372   3.150   3.563   4.884
43511SOL    HW232373   3.283   3.558   4.811
43512SOL     OW32374  10.687  12.411   1.526
43512SOL    HW132375  10.717  12.491   1.483
43512SOL    HW232376  10.752  12.345   1.502
43513SOL     OW32377  10.016   6.081  13.392
43513SOL    HW132378   9.930   6.041  13.404
43513SOL    HW232379  10.064   6.018  13.337
43514SOL     OW32380   3.967   4.493   7.759
43514SOL    HW132381   3.918   4.418   7.794
43514SOL    HW232382   4.038   4.506   7.822
43515SOL     OW32383   4.881  10.762   0.548
43515SOL    HW132384   4.907  10.848   0.517
43515SOL    HW232385   4.798  10.777   0.594
43516SOL     OW32386  14.409   7.741   2.361
43516SOL    HW132387  14.318   7.743   2.391
43516SOL    HW232388  14.407   7.786   2.277
43517SOL     OW32389  10.303   4.484  14.785
43517SOL    HW132390  10.304   4.545  14.859
43517SOL    HW232391  10.245   4.413  14.813
43518SOL     OW32392   7.789   4.429   5.267
43518SOL    HW132393   7.699   4.420   5.236
43518SOL    HW232394   7.781   4.445   5.361
43519SOL     OW32395   3.355  10.084   6.303
43519SOL    HW132396   3.383  10.137   6.378
43519SOL    HW232397   3.408  10.005   6.308
43520SOL     OW32398   7.649   8.417   0.556
43520SOL    HW132399   7.580   8.449   0.614
43520SOL    HW232400   7.671   8.493   0.501
43521SOL     OW32401  10.135   1.626   0.663
43521SOL    HW132402  10.135   1.619   0.758
43521SOL    HW232403  10.227   1.618   0.638
43522SOL     OW32404   7.387   1.170   8.231
43522SOL    HW132405   7.360   1.142   8.318
43522SOL    HW232406   7.396   1.265   8.237
43523SOL     OW32407   7.851   7.162   1.589
43523SOL    HW132408   7.779   7.130   1.644
43523SOL    HW232409   7.917   7.193   1.650
43524SOL     OW32410  10.888   0.139   7.415
43524SOL    HW132411  10.808   0.087   7.408
43524SOL    HW232412  10.889   0.192   7.336
43525SOL     OW32413   5.170   3.159  10.314
43525SOL    HW132414   5.095   3.176  10.257
43525SOL    HW232415   5.237   3.123  10.255
43526SOL     OW32416   8.295  10.815   4.700
43526SOL    HW132417   8.343  10.886   4.742
43526SOL    HW232418   8.304  10.832   4.606
43527SOL     OW32419   9.818   7.059   6.474
43527SOL    HW132420   9.732   7.058   6.516
43527SOL    HW232421   9.849   6.969   6.479
43528SOL     OW32422   9.519   2.988  12.473
43528SOL    HW132423   9.613   2.998  12.490
43528SOL    HW232424   9.502   2.895  12.489
43529SOL     OW32425   6.446   5.270  14.277
43529SOL    HW132426   6.380   5.269  14.208
43529SOL    HW232427   6.402   5.310  14.352
43530SOL     OW32428  13.815  12.358   0.663
43530SOL    HW132429  13.745  12.389   0.719
43530SOL    HW232430  13.770  12.318   0.588
43531SOL     OW32431  12.203   7.283  10.457
43531SOL    HW132432  12.150   7.311  10.382
43531SOL    HW232433  12.196   7.188  10.457
43532SOL     OW32434   5.798   8.067   1.641
43532SOL    HW132435   5.746   8.132   1.595
43532SOL    HW232436   5.790   8.090   1.734
43533SOL     OW32437   8.881   5.229  11.483
43533SOL    HW132438   8.838   5.143  11.482
43533SOL    HW232439   8.812   5.290  11.457
43534SOL     OW32440   5.000   3.698   8.306
43534SOL    HW132441   5.067   3.709   8.373
43534SOL    HW232442   4.928   3.653   8.351
43535SOL     OW32443  12.671  11.868  12.966
43535SOL    HW132444  12.621  11.811  13.024
43535SOL    HW232445  12.719  11.807  12.910
43536SOL     OW32446   1.413   8.440   9.861
43536SOL    HW132447   1.359   8.515   9.884
43536SOL    HW232448   1.486   8.442   9.923
43537SOL     OW32449  10.297   7.718  11.143
43537SOL    HW132450  10.280   7.659  11.216
43537SOL    HW232451  10.212   7.757  11.123
43538SOL     OW32452  11.637   9.077  10.087
43538SOL    HW132453  11.617   9.166  10.060
43538SOL    HW232454  11.733   9.072  10.084
43539SOL     OW32455   3.129  10.778  12.008
43539SOL    HW132456   3.058  10.772  11.944
43539SOL    HW232457   3.176  10.695  12.000
43540SOL     OW32458   9.534   1.726   0.915
43540SOL    HW132459   9.476   1.767   0.978
43540SOL    HW232460   9.556   1.795   0.853
43541SOL     OW32461   5.169   8.149  10.843
43541SOL    HW132462   5.251   8.124  10.884
43541SOL    HW232463   5.158   8.087  10.771
43542SOL     OW32464   4.023  11.916   5.693
43542SOL    HW132465   4.031  11.983   5.625
43542SOL    HW232466   4.064  11.838   5.655
43543SOL     OW32467  11.999   1.328  13.612
43543SOL    HW132468  11.960   1.373  13.687
43543SOL    HW232469  12.091   1.354  13.613
43544SOL     OW32470   3.659   2.181  14.686
43544SOL    HW132471   3.714   2.256  14.662
43544SOL    HW232472   3.674   2.116  14.618
43545SOL     OW32473   7.283   5.202   4.681
43545SOL    HW132474   7.375   5.179   4.698
43545SOL    HW232475   7.258   5.258   4.754
43546SOL     OW32476   9.552   6.848  10.781
43546SOL    HW132477   9.459   6.852  10.804
43546SOL    HW232478   9.591   6.923  10.826
43547SOL     OW32479   6.845   1.974  14.230
43547SOL    HW132480   6.770   2.007  14.181
43547SOL    HW232481   6.808   1.918  14.298
43548SOL     OW32482   6.232   4.306   2.021
43548SOL    HW132483   6.181   4.264   1.952
43548SOL    HW232484   6.314   4.257   2.025
43549SOL     OW32485   7.702  11.364   1.343
43549SOL    HW132486   7.699  11.299   1.413
43549SOL    HW232487   7.698  11.449   1.388
43550SOL     OW32488   7.391  11.310  12.429
43550SOL    HW132489   7.407  11.223  12.393
43550SOL    HW232490   7.370  11.295  12.521
43551SOL     OW32491   5.621   1.447   6.829
43551SOL    HW132492   5.634   1.535   6.796
43551SOL    HW232493   5.526   1.434   6.824
43552SOL     OW32494   9.550   0.140   5.660
43552SOL    HW132495   9.482   0.207   5.662
43552SOL    HW232496   9.592   0.150   5.575
43553SOL     OW32497   4.696   6.432   6.147
43553SOL    HW132498   4.648   6.367   6.096
43553SOL    HW232499   4.769   6.383   6.186
43554SOL     OW32500   8.164  11.115  11.470
43554SOL    HW132501   8.162  11.058  11.547
43554SOL    HW232502   8.257  11.120  11.446
43555SOL     OW32503  10.755   4.212   0.343
43555SOL    HW132504  10.740   4.246   0.431
43555SOL    HW232505  10.820   4.142   0.355
43556SOL     OW32506  11.656   2.057   4.945
43556SOL    HW132507  11.671   2.113   5.020
43556SOL    HW232508  11.576   2.090   4.905
43557SOL     OW32509   7.662   4.014   3.589
43557SOL    HW132510   7.654   3.919   3.596
43557SOL    HW232511   7.634   4.046   3.675
43558SOL     OW32512   7.223   7.094  13.322
43558SOL    HW132513   7.256   7.036  13.253
43558SOL    HW232514   7.218   7.180  13.281
43559SOL     OW32515   0.440   2.248   9.730
43559SOL    HW132516   0.531   2.251   9.758
43559SOL    HW232517   0.445   2.225   9.637
43560SOL     OW32518   3.243   4.473   8.671
43560SOL    HW132519   3.294   4.541   8.626
43560SOL    HW232520   3.199   4.426   8.600
43561SOL     OW32521   6.706  13.577   5.296
43561SOL    HW132522   6.662  13.594   5.213
43561SOL    HW232523   6.688  13.655   5.349
43562SOL     OW32524   9.288   5.537   1.658
43562SOL    HW132525   9.374   5.579   1.661
43562SOL    HW232526   9.305   5.450   1.623
43563SOL     OW32527  11.425   2.939   2.046
43563SOL    HW132528  11.394   2.851   2.069
43563SOL    HW232529  11.520   2.931   2.042
43564SOL     OW32530  10.107   1.965   0.739
43564SOL    HW132531  10.168   1.946   0.667
43564SOL    HW232532  10.041   2.022   0.700
43565SOL     OW32533   5.173   9.646   6.978
43565SOL    HW132534   5.245   9.606   6.929
43565SOL    HW232535   5.168   9.735   6.945
43566SOL     OW32536   0.013  10.697  12.752
43566SOL    HW132537  14.840  10.780  12.758
43566SOL    HW232538   0.035  10.688  12.659
43567SOL     OW32539   7.650   6.935   8.570
43567SOL    HW132540   7.678   7.011   8.621
43567SOL    HW232541   7.714   6.928   8.500
43568SOL     OW32542   7.805   8.677   8.814
43568SOL    HW132543   7.826   8.602   8.870
43568SOL    HW232544   7.825   8.647   8.726
43569SOL     OW32545   5.169  13.528   4.729
43569SOL    HW132546   5.153  13.617   4.700
43569SOL    HW232547   5.213  13.538   4.814
43570SOL     OW32548   2.202   3.529  11.135
43570SOL    HW132549   2.201   3.457  11.198
43570SOL    HW232550   2.280   3.580  11.159
43571SOL     OW32551  11.832   7.266  12.590
43571SOL    HW132552  11.819   7.268  12.495
43571SOL    HW232553  11.829   7.173  12.612
43572SOL     OW32554   1.859  12.046   2.662
43572SOL    HW132555   1.845  12.107   2.589
43572SOL    HW232556   1.827  12.094   2.739
43573SOL     OW32557   8.706   4.216   9.480
43573SOL    HW132558   8.650   4.162   9.536
43573SOL    HW232559   8.766   4.153   9.439
43574SOL     OW32560   4.439   2.674   7.148
43574SOL    HW132561   4.432   2.736   7.075
43574SOL    HW232562   4.357   2.625   7.146
43575SOL     OW32563  11.566   9.051   4.733
43575SOL    HW132564  11.530   8.992   4.799
43575SOL    HW232565  11.536   9.138   4.759
43576SOL     OW32566   7.084  14.565  10.032
43576SOL    HW132567   7.128  14.502  10.089
43576SOL    HW232568   7.129  14.648  10.050
43577SOL     OW32569   4.381   4.797   6.088
43577SOL    HW132570   4.397   4.758   6.174
43577SOL    HW232571   4.343   4.883   6.107
43578SOL     OW32572   6.508   5.648   0.910
43578SOL    HW132573   6.485   5.738   0.932
43578SOL    HW232574   6.603   5.642   0.926
43579SOL     OW32575  12.333   9.344   5.562
43579SOL    HW132576  12.334   9.373   5.654
43579SOL    HW232577  12.286   9.260   5.564
43580SOL     OW32578  11.853   6.353   2.902
43580SOL    HW132579  11.798   6.278   2.880
43580SOL    HW232580  11.884   6.386   2.818
43581SOL     OW32581   7.899   6.337   5.480
43581SOL    HW132582   7.815   6.366   5.445
43581SOL    HW232583   7.889   6.342   5.575
43582SOL     OW32584   9.059  14.481   0.097
43582SOL    HW132585   9.044  14.575   0.107
43582SOL    HW232586   9.101  14.454   0.179
43583SOL     OW32587   1.887   8.014   6.956
43583SOL    HW132588   1.857   8.103   6.942
43583SOL    HW232589   1.827   7.959   6.906
43584SOL     OW32590  12.174   4.868   5.518
43584SOL    HW132591  12.238   4.852   5.588
43584SOL    HW232592  12.197   4.807   5.449
43585SOL     OW32593  14.049   7.341  13.827
43585SOL    HW132594  14.045   7.320  13.921
43585SOL    HW232595  13.989   7.415  13.816
43586SOL     OW32596   8.045   5.447   7.947
43586SOL    HW132597   8.112   5.505   7.985
43586SOL    HW232598   8.026   5.486   7.861
43587SOL     OW32599  11.521  13.507   9.734
43587SOL    HW132600  11.448  13.557   9.697
43587SOL    HW232601  11.484  13.466   9.813
43588SOL     OW32602   2.484   4.852   3.682
43588SOL    HW132603   2.529   4.771   3.707
43588SOL    HW232604   2.533   4.884   3.607
43589SOL     OW32605   8.598   2.292   8.090
43589SOL    HW132606   8.681   2.296   8.043
43589SOL    HW232607   8.619   2.324   8.178
43590SOL     OW32608   7.320   8.958   2.600
43590SOL    HW132609   7.343   8.916   2.683
43590SOL    HW232610   7.366   9.042   2.603
43591SOL     OW32611  11.050  10.384  14.252
43591SOL    HW132612  11.007  10.299  14.251
43591SOL    HW232613  11.105  10.383  14.330
43592SOL     OW32614   3.467   4.974   2.776
43592SOL    HW132615   3.377   4.992   2.800
43592SOL    HW232616   3.519   5.038   2.826
43593SOL     OW32617   8.986   8.605   5.868
43593SOL    HW132618   9.038   8.685   5.862
43593SOL    HW232619   9.048   8.535   5.848
43594SOL     OW32620   5.539   3.997   4.850
43594SOL    HW132621   5.605   4.047   4.802
43594SOL    HW232622   5.587   3.924   4.889
43595SOL     OW32623   6.545   1.951   6.554
43595SOL    HW132624   6.456   1.964   6.520
43595SOL    HW232625   6.543   1.863   6.592
43596SOL     OW32626   3.738   1.705  13.257
43596SOL    HW132627   3.827   1.700  13.222
43596SOL    HW232628   3.705   1.615  13.252
43597SOL     OW32629   9.397  13.183   6.513
43597SOL    HW132630   9.414  13.124   6.587
43597SOL    HW232631   9.451  13.261   6.532
43598SOL     OW32632   2.635  10.836  10.007
43598SOL    HW132633   2.564  10.817   9.947
43598SOL    HW232634   2.685  10.906   9.964
43599SOL     OW32635  11.772   6.727   9.048
43599SOL    HW132636  11.687   6.709   9.007
43599SOL    HW232637  11.800   6.642   9.083
43600SOL     OW32638  13.749   7.952  13.648
43600SOL    HW132639  13.783   7.955  13.737
43600SOL    HW232640  13.665   7.908  13.656
43601SOL     OW32641   5.325   5.307  13.203
43601SOL    HW132642   5.238   5.322  13.165
43601SOL    HW232643   5.384   5.304  13.128
43602SOL     OW32644   1.379  11.164   9.015
43602SOL    HW132645   1.428  11.084   9.033
43602SOL    HW232646   1.443  11.224   8.977
43603SOL     OW32647   5.461   6.616   2.666
43603SOL    HW132648   5.492   6.530   2.693
43603SOL    HW232649   5.375   6.599   2.628
43604SOL     OW32650   4.679  14.393  11.219
43604SOL    HW132651   4.771  14.375  11.239
43604SOL    HW232652   4.632  14.375  11.300
43605SOL     OW32653   4.420   4.146   6.996
43605SOL    HW132654   4.375   4.072   7.037
43605SOL    HW232655   4.472   4.107   6.926
43606SOL     OW32656   2.959   1.888   3.611
43606SOL    HW132657   2.907   1.891   3.692
43606SOL    HW232658   2.989   1.798   3.605
43607SOL     OW32659   2.182   8.594   2.815
43607SOL    HW132660   2.248   8.548   2.866
43607SOL    HW232661   2.219   8.682   2.801
43608SOL     OW32662  10.588   1.079   1.606
43608SOL    HW132663  10.639   1.143   1.557
43608SOL    HW232664  10.608   1.097   1.698
43609SOL     OW32665   8.349  13.285   2.628
43609SOL    HW132666   8.431  13.266   2.582
43609SOL    HW232667   8.282  13.275   2.561
43610SOL     OW32668   9.757  14.685  11.160
43610SOL    HW132669   9.715  14.767  11.138
43610SOL    HW232670   9.731  14.624  11.091
43611SOL     OW32671   0.215  12.130  13.238
43611SOL    HW132672   0.245  12.187  13.167
43611SOL    HW232673   0.272  12.152  13.312
43612SOL     OW32674   1.715  12.071   1.130
43612SOL    HW132675   1.690  12.066   1.222
43612SOL    HW232676   1.732  11.981   1.105
43613SOL     OW32677   6.321  11.312  14.148
43613SOL    HW132678   6.341  11.382  14.210
43613SOL    HW232679   6.231  11.287  14.169
43614SOL     OW32680  13.950  10.349  11.045
43614SOL    HW132681  13.999  10.282  10.999
43614SOL    HW232682  13.876  10.303  11.083
43615SOL     OW32683   8.073  11.841  13.341
43615SOL    HW132684   8.146  11.783  13.361
43615SOL    HW232685   8.037  11.863  13.427
43616SOL     OW32686  11.079  14.162   0.290
43616SOL    HW132687  11.111  14.086   0.338
43616SOL    HW232688  11.078  14.233   0.354
43617SOL     OW32689   9.401  14.328   7.377
43617SOL    HW132690   9.372  14.351   7.289
43617SOL    HW232691   9.489  14.366   7.383
43618SOL     OW32692  14.035  10.595   0.664
43618SOL    HW132693  14.102  10.647   0.710
43618SOL    HW232694  14.014  10.524   0.724
43619SOL     OW32695   3.576  13.527   8.979
43619SOL    HW132696   3.538  13.613   8.998
43619SOL    HW232697   3.524  13.492   8.907
43620SOL     OW32698  11.119   2.143   6.929
43620SOL    HW132699  11.125   2.109   6.840
43620SOL    HW232700  11.040   2.102   6.965
43621SOL     OW32701  10.226   2.482   4.871
43621SOL    HW132702  10.313   2.520   4.880
43621SOL    HW232703  10.239   2.403   4.819
43622SOL     OW32704  14.114   1.733  10.526
43622SOL    HW132705  14.189   1.769  10.574
43622SOL    HW232706  14.149   1.713  10.440
43623SOL     OW32707  11.292  13.190  14.766
43623SOL    HW132708  11.235  13.126  14.723
43623SOL    HW232709  11.243  13.217  14.843
43624SOL     OW32710  13.330   7.148  10.327
43624SOL    HW132711  13.282   7.218  10.283
43624SOL    HW232712  13.399   7.124  10.265
43625SOL     OW32713  11.136   2.045  13.930
43625SOL    HW132714  11.181   2.073  14.010
43625SOL    HW232715  11.050   2.015  13.959
43626SOL     OW32716   9.147  13.653   5.914
43626SOL    HW132717   9.220  13.614   5.962
43626SOL    HW232718   9.070  13.637   5.968
43627SOL     OW32719  11.733   7.536   6.528
43627SOL    HW132720  11.708   7.592   6.601
43627SOL    HW232721  11.802   7.585   6.483
43628SOL     OW32722   1.500  14.224   2.975
43628SOL    HW132723   1.433  14.181   2.922
43628SOL    HW232724   1.538  14.290   2.917
43629SOL     OW32725  14.249  14.023  12.773
43629SOL    HW132726  14.305  14.094  12.742
43629SOL    HW232727  14.162  14.062  12.781
43630SOL     OW32728   2.248   5.309   3.348
43630SOL    HW132729   2.208   5.389   3.381
43630SOL    HW232730   2.339   5.314   3.376
43631SOL     OW32731   0.039   0.422  12.669
43631SOL    HW132732  14.865   0.468  12.739
43631SOL    HW232733  14.852   0.423  12.594
43632SOL     OW32734   3.440   8.002   9.721
43632SOL    HW132735   3.453   7.915   9.684
43632SOL    HW232736   3.356   7.996   9.767
43633SOL     OW32737   8.548   9.519  14.674
43633SOL    HW132738   8.456   9.492  14.684
43633SOL    HW232739   8.584   9.457  14.611
43634SOL     OW32740  10.287   2.590   5.550
43634SOL    HW132741  10.332   2.646   5.614
43634SOL    HW232742  10.313   2.626   5.465
43635SOL     OW32743  13.798   2.144  10.755
43635SOL    HW132744  13.824   2.087  10.683
43635SOL    HW232745  13.832   2.231  10.732
43636SOL     OW32746   5.712   1.950  14.577
43636SOL    HW132747   5.716   1.861  14.610
43636SOL    HW232748   5.795   1.963  14.531
43637SOL     OW32749  10.720   2.170   0.671
43637SOL    HW132750  10.785   2.142   0.606
43637SOL    HW232751  10.763   2.158   0.755
43638SOL     OW32752   0.827   9.300  13.742
43638SOL    HW132753   0.896   9.300  13.675
43638SOL    HW232754   0.823   9.210  13.772
43639SOL     OW32755   3.972   0.339   2.836
43639SOL    HW132756   4.039   0.403   2.812
43639SOL    HW232757   3.948   0.363   2.926
43640SOL     OW32758   9.135   5.158   4.205
43640SOL    HW132759   9.189   5.082   4.181
43640SOL    HW232760   9.174   5.231   4.159
43641SOL     OW32761   5.982   1.108   3.193
43641SOL    HW132762   5.989   1.155   3.275
43641SOL    HW232763   6.039   1.155   3.133
43642SOL     OW32764   9.570  11.869   3.301
43642SOL    HW132765   9.621  11.921   3.239
43642SOL    HW232766   9.575  11.918   3.383
43643SOL     OW32767  10.675  14.027  13.722
43643SOL    HW132768  10.659  13.936  13.695
43643SOL    HW232769  10.762  14.047  13.686
43644SOL     OW32770   6.214   3.077  10.302
43644SOL    HW132771   6.270   3.031  10.364
43644SOL    HW232772   6.247   3.167  10.303
43645SOL     OW32773   4.044  10.954  12.782
43645SOL    HW132774   4.081  10.876  12.821
43645SOL    HW232775   4.119  11.009  12.761
43646SOL     OW32776   2.872  11.443  10.462
43646SOL    HW132777   2.948  11.399  10.424
43646SOL    HW232778   2.826  11.481  10.386
43647SOL     OW32779   2.148   0.198   9.658
43647SOL    HW132780   2.219   0.250   9.621
43647SOL    HW232781   2.180   0.171   9.744
43648SOL     OW32782   6.922  14.259   5.987
43648SOL    HW132783   6.961  14.242   6.073
43648SOL    HW232784   6.877  14.343   5.998
43649SOL     OW32785  13.358  11.738   2.029
43649SOL    HW132786  13.381  11.659   2.077
43649SOL    HW232787  13.272  11.763   2.062
43650SOL     OW32788  13.399   8.925   6.466
43650SOL    HW132789  13.490   8.898   6.456
43650SOL    HW232790  13.404   9.011   6.508
43651SOL     OW32791   3.686   1.220   5.168
43651SOL    HW132792   3.677   1.265   5.085
43651SOL    HW232793   3.719   1.134   5.145
43652SOL     OW32794   4.295   7.132  13.917
43652SOL    HW132795   4.222   7.192  13.936
43652SOL    HW232796   4.354   7.183  13.862
43653SOL     OW32797   2.312   0.459   6.753
43653SOL    HW132798   2.246   0.525   6.771
43653SOL    HW232799   2.263   0.378   6.743
43654SOL     OW32800  13.181   7.034   2.218
43654SOL    HW132801  13.183   6.944   2.251
43654SOL    HW232802  13.269   7.049   2.184
43655SOL     OW32803   7.061  10.552   0.969
43655SOL    HW132804   7.018  10.471   0.997
43655SOL    HW232805   7.007  10.585   0.897
43656SOL     OW32806  11.851   1.340   5.163
43656SOL    HW132807  11.865   1.428   5.129
43656SOL    HW232808  11.785   1.350   5.231
43657SOL     OW32809  10.361  13.168   5.342
43657SOL    HW132810  10.416  13.165   5.420
43657SOL    HW232811  10.272  13.167   5.376
43658SOL     OW32812   8.018  12.705   4.601
43658SOL    HW132813   8.005  12.655   4.681
43658SOL    HW232814   7.967  12.657   4.535
43659SOL     OW32815   6.519   7.989  12.556
43659SOL    HW132816   6.569   8.028  12.627
43659SOL    HW232817   6.584   7.972  12.487
43660SOL     OW32818   0.671   2.222   3.637
43660SOL    HW132819   0.712   2.287   3.581
43660SOL    HW232820   0.733   2.209   3.708
43661SOL     OW32821   7.721   9.153   8.020
43661SOL    HW132822   7.763   9.121   7.941
43661SOL    HW232823   7.746   9.245   8.025
43662SOL     OW32824  12.105   4.762  13.269
43662SOL    HW132825  12.059   4.803  13.196
43662SOL    HW232826  12.037   4.735  13.330
43663SOL     OW32827   7.306   5.020  14.301
43663SOL    HW132828   7.298   4.947  14.363
43663SOL    HW232829   7.256   5.091  14.341
43664SOL     OW32830   6.255  12.684  11.847
43664SOL    HW132831   6.165  12.710  11.829
43664SOL    HW232832   6.283  12.640  11.768
43665SOL     OW32833   1.035  14.153   2.719
43665SOL    HW132834   0.964  14.091   2.702
43665SOL    HW232835   1.010  14.197   2.800
43666SOL     OW32836   5.584  14.329   1.190
43666SOL    HW132837   5.536  14.385   1.252
43666SOL    HW232838   5.630  14.266   1.245
43667SOL     OW32839  14.240  13.115  13.512
43667SOL    HW132840  14.243  13.204  13.549
43667SOL    HW232841  14.167  13.073  13.558
43668SOL     OW32842  10.402   2.338   2.773
43668SOL    HW132843  10.426   2.395   2.700
43668SOL    HW232844  10.360   2.262   2.733
43669SOL     OW32845   6.940   0.137   5.620
43669SOL    HW132846   6.998   0.079   5.668
43669SOL    HW232847   6.859   0.087   5.610
43670SOL     OW32848   8.675   6.237   5.232
43670SOL    HW132849   8.714   6.215   5.147
43670SOL    HW232850   8.584   6.259   5.211
43671SOL     OW32851   8.156  11.354   2.425
43671SOL    HW132852   8.172  11.340   2.332
43671SOL    HW232853   8.079  11.411   2.429
43672SOL     OW32854  12.878  10.733  11.630
43672SOL    HW132855  12.926  10.733  11.712
43672SOL    HW232856  12.847  10.823  11.619
43673SOL     OW32857   0.584   6.333  14.042
43673SOL    HW132858   0.589   6.354  14.135
43673SOL    HW232859   0.491   6.317  14.026
43674SOL     OW32860  14.275   9.993   2.214
43674SOL    HW132861  14.274   9.972   2.121
43674SOL    HW232862  14.223  10.073   2.222
43675SOL     OW32863   7.137   1.010   7.336
43675SOL    HW132864   7.078   1.085   7.347
43675SOL    HW232865   7.157   1.008   7.243
43676SOL     OW32866   3.152  14.807  13.677
43676SOL    HW132867   3.175  14.863  13.603
43676SOL    HW232868   3.068  14.839  13.707
43677SOL     OW32869   7.493   4.896   5.836
43677SOL    HW132870   7.534   4.831   5.894
43677SOL    HW232871   7.567   4.948   5.803
43678SOL     OW32872   3.951   6.659   0.308
43678SOL    HW132873   3.996   6.721   0.365
43678SOL    HW232874   3.890   6.713   0.258
43679SOL     OW32875   5.542   7.285   3.840
43679SOL    HW132876   5.512   7.197   3.864
43679SOL    HW232877   5.505   7.300   3.753
43680SOL     OW32878   5.839   7.903   3.574
43680SOL    HW132879   5.842   7.999   3.575
43680SOL    HW232880   5.929   7.876   3.561
43681SOL     OW32881  10.657   1.949   2.869
43681SOL    HW132882  10.690   1.866   2.904
43681SOL    HW232883  10.716   1.970   2.797
43682SOL     OW32884  12.617  12.178   3.883
43682SOL    HW132885  12.621  12.208   3.974
43682SOL    HW232886  12.697  12.213   3.843
43683SOL     OW32887   3.258  11.327  14.768
43683SOL    HW132888   3.351  11.322  14.787
43683SOL    HW232889   3.227  11.402  14.819
43684SOL     OW32890   6.572   4.058   3.389
43684SOL    HW132891   6.597   4.147   3.367
43684SOL    HW232892   6.590   4.008   3.309
43685SOL     OW32893  12.110  12.689  14.859
43685SOL    HW132894  12.196  12.673  14.821
43685SOL    HW232895  12.049  12.675  14.787
43686SOL     OW32896   9.151   4.438   3.917
43686SOL    HW132897   9.125   4.412   3.828
43686SOL    HW232898   9.095   4.385   3.974
43687SOL     OW32899   4.264   8.219  10.187
43687SOL    HW132900   4.235   8.292  10.243
43687SOL    HW232901   4.345   8.251  10.147
43688SOL     OW32902   4.440   7.472   1.129
43688SOL    HW132903   4.387   7.551   1.120
43688SOL    HW232904   4.400   7.425   1.202
43689SOL     OW32905  10.701   0.575  11.196
43689SOL    HW132906  10.709   0.593  11.290
43689SOL    HW232907  10.746   0.491  11.185
43690SOL     OW32908   8.778  12.401  11.173
43690SOL    HW132909   8.786  12.326  11.232
43690SOL    HW232910   8.802  12.367  11.087
43691SOL     OW32911   4.415   8.092  13.441
43691SOL    HW132912   4.460   8.031  13.500
43691SOL    HW232913   4.357   8.142  13.499
43692SOL     OW32914   0.711   6.288   8.393
43692SOL    HW132915   0.645   6.278   8.324
43692SOL    HW232916   0.761   6.207   8.391
43693SOL     OW32917   9.291   4.550  10.216
43693SOL    HW132918   9.202   4.578  10.193
43693SOL    HW232919   9.342   4.567  10.137
43694SOL     OW32920  13.865  10.941  12.434
43694SOL    HW132921  13.896  10.978  12.351
43694SOL    HW232922  13.784  10.896  12.412
43695SOL     OW32923   4.612   6.133  10.661
43695SOL    HW132924   4.559   6.172  10.731
43695SOL    HW232925   4.587   6.041  10.660
43696SOL     OW32926   2.890   2.064   5.469
43696SOL    HW132927   2.872   1.973   5.491
43696SOL    HW232928   2.950   2.059   5.394
43697SOL     OW32929   1.031   1.858  10.359
43697SOL    HW132930   1.055   1.807  10.436
43697SOL    HW232931   1.085   1.937  10.363
43698SOL     OW32932  11.792   5.791   4.740
43698SOL    HW132933  11.797   5.703   4.777
43698SOL    HW232934  11.792   5.849   4.817
43699SOL     OW32935   4.933   4.086   4.107
43699SOL    HW132936   4.987   4.147   4.057
43699SOL    HW232937   4.922   4.011   4.049
43700SOL     OW32938   0.416   1.983   3.240
43700SOL    HW132939   0.494   1.933   3.262
43700SOL    HW232940   0.370   1.994   3.323
43701SOL     OW32941  14.440   4.412   4.160
43701SOL    HW132942  14.451   4.502   4.130
43701SOL    HW232943  14.351   4.389   4.134
43702SOL     OW32944  12.498  12.855   9.620
43702SOL    HW132945  12.469  12.810   9.699
43702SOL    HW232946  12.514  12.784   9.557
43703SOL     OW32947   8.106  10.072   2.204
43703SOL    HW132948   8.021  10.036   2.229
43703SOL    HW232949   8.090  10.113   2.119
43704SOL     OW32950   8.549   8.696   1.291
43704SOL    HW132951   8.479   8.728   1.349
43704SOL    HW232952   8.626   8.747   1.316
43705SOL     OW32953   0.032   6.989  13.877
43705SOL    HW132954   0.115   7.008  13.833
43705SOL    HW232955   0.043   7.023  13.966
43706SOL     OW32956   2.551  13.067   9.999
43706SOL    HW132957   2.477  13.010  10.021
43706SOL    HW232958   2.517  13.156  10.008
43707SOL     OW32959   6.440  11.196   8.843
43707SOL    HW132960   6.414  11.149   8.922
43707SOL    HW232961   6.495  11.134   8.795
43708SOL     OW32962   5.808   5.840   1.962
43708SOL    HW132963   5.743   5.773   1.982
43708SOL    HW232964   5.893   5.797   1.973
43709SOL     OW32965   5.725   5.566   6.121
43709SOL    HW132966   5.669   5.530   6.052
43709SOL    HW232967   5.812   5.531   6.101
43710SOL     OW32968   2.557  12.950   0.803
43710SOL    HW132969   2.506  13.029   0.818
43710SOL    HW232970   2.599  12.933   0.888
43711SOL     OW32971   1.441  13.121   1.539
43711SOL    HW132972   1.498  13.047   1.518
43711SOL    HW232973   1.474  13.154   1.623
43712SOL     OW32974   9.635   9.097   7.311
43712SOL    HW132975   9.617   9.144   7.229
43712SOL    HW232976   9.663   9.010   7.282
43713SOL     OW32977   2.734   4.311  12.738
43713SOL    HW132978   2.655   4.315  12.792
43713SOL    HW232979   2.742   4.218  12.714
43714SOL     OW32980   0.406   8.845   1.272
43714SOL    HW132981   0.475   8.867   1.334
43714SOL    HW232982   0.338   8.911   1.288
43715SOL     OW32983   5.902   4.440   3.195
43715SOL    HW132984   5.936   4.443   3.284
43715SOL    HW232985   5.924   4.526   3.158
43716SOL     OW32986  13.352   0.449  12.878
43716SOL    HW132987  13.286   0.380  12.872
43716SOL    HW232988  13.304   0.525  12.912
43717SOL     OW32989   0.664  11.664  12.814
43717SOL    HW132990   0.597  11.634  12.753
43717SOL    HW232991   0.615  11.696  12.890
43718SOL     OW32992   5.657   3.047  13.301
43718SOL    HW132993   5.648   3.128  13.351
43718SOL    HW232994   5.597   3.057  13.227
43719SOL     OW32995  12.188   8.314  11.031
43719SOL    HW132996  12.144   8.399  11.041
43719SOL    HW232997  12.187   8.298  10.936
43720SOL     OW32998  13.275   1.530  11.367
43720SOL    HW132999  13.344   1.594  11.357
43720SOL    HW233000  13.295   1.485  11.449
43721SOL     OW33001   0.662  10.341   5.379
43721SOL    HW133002   0.680  10.258   5.423
43721SOL    HW233003   0.741  10.394   5.395
43722SOL     OW33004   9.645  13.057   8.742
43722SOL    HW133005   9.716  13.032   8.801
43722SOL    HW233006   9.571  13.004   8.770
43723SOL     OW33007  12.883   2.691   8.580
43723SOL    HW133008  12.889   2.616   8.639
43723SOL    HW233009  12.942   2.670   8.508
43724SOL     OW33010  13.270   0.276   2.962
43724SOL    HW133011  13.332   0.259   3.032
43724SOL    HW233012  13.299   0.359   2.923
43725SOL     OW33013   5.475   1.627  11.937
43725SOL    HW133014   5.497   1.583  12.019
43725SOL    HW233015   5.466   1.719  11.961
43726SOL     OW33016  14.575   6.271   3.562
43726SOL    HW133017  14.564   6.177   3.580
43726SOL    HW233018  14.563   6.278   3.467
43727SOL     OW33019   8.557   4.146   4.927
43727SOL    HW133020   8.517   4.161   5.012
43727SOL    HW233021   8.641   4.193   4.931
43728SOL     OW33022   1.178  12.987   3.247
43728SOL    HW133023   1.242  13.053   3.220
43728SOL    HW233024   1.140  12.955   3.165
43729SOL     OW33025   6.947   3.279   0.223
43729SOL    HW133026   6.919   3.227   0.299
43729SOL    HW233027   7.013   3.224   0.180
43730SOL     OW33028  12.811   8.170   6.557
43730SOL    HW133029  12.845   8.139   6.641
43730SOL    HW233030  12.775   8.257   6.576
43731SOL     OW33031   3.181   4.830   8.323
43731SOL    HW133032   3.184   4.795   8.412
43731SOL    HW233033   3.135   4.763   8.272
43732SOL     OW33034   9.962   4.899   0.796
43732SOL    HW133035  10.048   4.928   0.763
43732SOL    HW233036   9.983   4.826   0.854
43733SOL     OW33037  12.615  10.992   8.780
43733SOL    HW133038  12.611  10.934   8.856
43733SOL    HW233039  12.525  10.995   8.747
43734SOL     OW33040   7.174  10.552  14.754
43734SOL    HW133041   7.087  10.541  14.794
43734SOL    HW233042   7.181  10.479  14.693
43735SOL     OW33043  12.807  12.219  11.882
43735SOL    HW133044  12.793  12.274  11.958
43735SOL    HW233045  12.730  12.163  11.877
43736SOL     OW33046   3.954   2.046   9.443
43736SOL    HW133047   3.989   2.052   9.532
43736SOL    HW233048   3.859   2.052   9.454
43737SOL     OW33049  10.416  11.406   8.268
43737SOL    HW133050  10.356  11.332   8.264
43737SOL    HW233051  10.488  11.376   8.324
43738SOL     OW33052   8.554   8.773  13.806
43738SOL    HW133053   8.500   8.845  13.841
43738SOL    HW233054   8.596   8.736  13.884
43739SOL     OW33055   6.439  13.601  11.439
43739SOL    HW133056   6.534  13.610  11.446
43739SOL    HW233057   6.413  13.558  11.520
43740SOL     OW33058   1.142   3.803  13.712
43740SOL    HW133059   1.206   3.733  13.723
43740SOL    HW233060   1.153   3.858  13.789
43741SOL     OW33061   8.616  13.997  12.877
43741SOL    HW133062   8.554  13.974  12.808
43741SOL    HW233063   8.699  14.009  12.832
43742SOL     OW33064  14.016  13.371  14.579
43742SOL    HW133065  14.068  13.374  14.498
43742SOL    HW233066  13.972  13.456  14.582
43743SOL     OW33067   1.553  10.127  14.561
43743SOL    HW133068   1.588  10.185  14.494
43743SOL    HW233069   1.598  10.152  14.642
43744SOL     OW33070   8.676  10.487   1.490
43744SOL    HW133071   8.718  10.460   1.571
43744SOL    HW233072   8.614  10.416   1.470
43745SOL     OW33073  13.663   7.082   8.189
43745SOL    HW133074  13.658   7.112   8.099
43745SOL    HW233075  13.720   7.145   8.232
43746SOL     OW33076   7.683   2.878   9.094
43746SOL    HW133077   7.589   2.886   9.076
43746SOL    HW233078   7.692   2.793   9.136
43747SOL     OW33079   9.811   4.476   9.171
43747SOL    HW133080   9.764   4.461   9.253
43747SOL    HW233081   9.890   4.524   9.197
43748SOL     OW33082  10.576  13.612   5.356
43748SOL    HW133083  10.653  13.559   5.335
43748SOL    HW233084  10.502  13.558   5.330
43749SOL     OW33085   0.283   6.783  10.171
43749SOL    HW133086   0.258   6.694  10.146
43749SOL    HW233087   0.202   6.823  10.201
43750SOL     OW33088  11.184   1.021  10.705
43750SOL    HW133089  11.140   1.031  10.621
43750SOL    HW233090  11.240   1.099  10.711
43751SOL     OW33091  10.752  14.858   7.809
43751SOL    HW133092  10.787   0.020   7.891
43751SOL    HW233093  10.725   0.062   7.759
43752SOL     OW33094   1.885   2.786   4.279
43752SOL    HW133095   1.914   2.867   4.238
43752SOL    HW233096   1.904   2.798   4.372
43753SOL     OW33097   4.769  10.771   8.783
43753SOL    HW133098   4.710  10.698   8.797
43753SOL    HW233099   4.721  10.831   8.726
43754SOL     OW33100   7.857   7.668  11.294
43754SOL    HW133101   7.785   7.667  11.232
43754SOL    HW233102   7.838   7.742  11.352
43755SOL     OW33103  10.118   7.829  12.811
43755SOL    HW133104  10.201   7.865  12.845
43755SOL    HW233105  10.144   7.752  12.760
43756SOL     OW33106   8.697   7.591  12.534
43756SOL    HW133107   8.679   7.652  12.605
43756SOL    HW233108   8.753   7.640  12.474
43757SOL     OW33109   1.463   9.009   4.041
43757SOL    HW133110   1.477   9.103   4.027
43757SOL    HW233111   1.543   8.979   4.084
43758SOL     OW33112   3.852   4.850   3.217
43758SOL    HW133113   3.848   4.791   3.142
43758SOL    HW233114   3.943   4.843   3.248
43759SOL     OW33115   1.918   6.338   4.800
43759SOL    HW133116   1.826   6.316   4.788
43759SOL    HW233117   1.939   6.396   4.727
43760SOL     OW33118  11.388   4.235   1.544
43760SOL    HW133119  11.297   4.259   1.524
43760SOL    HW233120  11.383   4.144   1.573
43761SOL     OW33121   0.026   6.610  11.568
43761SOL    HW133122   0.113   6.611  11.609
43761SOL    HW233123   0.020   6.523  11.529
43762SOL     OW33124  11.480   8.756   5.497
43762SOL    HW133125  11.406   8.698   5.478
43762SOL    HW233126  11.469   8.780   5.589
43763SOL     OW33127   9.406  11.624   9.849
43763SOL    HW133128   9.494  11.586   9.846
43763SOL    HW233129   9.362  11.587   9.773
43764SOL     OW33130   0.755   8.693  14.229
43764SOL    HW133131   0.726   8.746  14.303
43764SOL    HW233132   0.845   8.669  14.250
43765SOL     OW33133   3.484  14.783  10.453
43765SOL    HW133134   3.464  14.823  10.369
43765SOL    HW233135   3.466  14.690  10.440
43766SOL     OW33136   5.689   8.089  12.787
43766SOL    HW133137   5.716   8.005  12.824
43766SOL    HW233138   5.731   8.092  12.701
43767SOL     OW33139   4.469   6.617   8.364
43767SOL    HW133140   4.423   6.671   8.428
43767SOL    HW233141   4.403   6.595   8.298
43768SOL     OW33142   1.321   9.499  13.270
43768SOL    HW133143   1.231   9.533  13.270
43768SOL    HW233144   1.373   9.566  13.227
43769SOL     OW33145  10.890   7.160   0.774
43769SOL    HW133146  10.948   7.235   0.779
43769SOL    HW233147  10.948   7.084   0.776
43770SOL     OW33148  11.244   9.530   4.100
43770SOL    HW133149  11.168   9.474   4.083
43770SOL    HW233150  11.258   9.577   4.018
43771SOL     OW33151   8.778  10.651  12.032
43771SOL    HW133152   8.856  10.703  12.012
43771SOL    HW233153   8.737  10.637  11.947
43772SOL     OW33154  11.463   8.307  12.245
43772SOL    HW133155  11.377   8.315  12.203
43772SOL    HW233156  11.461   8.372  12.316
43773SOL     OW33157   7.680   5.798  10.947
43773SOL    HW133158   7.648   5.826  11.033
43773SOL    HW233159   7.691   5.879  10.898
43774SOL     OW33160  10.834  10.979   4.130
43774SOL    HW133161  10.831  10.885   4.115
43774SOL    HW233162  10.834  10.989   4.225
43775SOL     OW33163   6.959   8.394  12.176
43775SOL    HW133164   6.898   8.462  12.206
43775SOL    HW233165   7.045   8.436  12.181
43776SOL     OW33166   7.637   1.712  10.474
43776SOL    HW133167   7.593   1.629  10.493
43776SOL    HW233168   7.665   1.745  10.559
43777SOL     OW33169   3.913   3.082  10.649
43777SOL    HW133170   3.948   3.168  10.627
43777SOL    HW233171   3.942   3.025  10.577
43778SOL     OW33172   3.999   1.551   6.853
43778SOL    HW133173   4.012   1.466   6.811
43778SOL    HW233174   3.975   1.530   6.943
43779SOL     OW33175  11.725  10.939   5.433
43779SOL    HW133176  11.717  10.953   5.339
43779SOL    HW233177  11.819  10.929   5.448
43780SOL     OW33178   3.500   4.130  12.905
43780SOL    HW133179   3.447   4.139  12.826
43780SOL    HW233180   3.589   4.120  12.873
43781SOL     OW33181   7.679  12.399   6.446
43781SOL    HW133182   7.660  12.469   6.383
43781SOL    HW233183   7.775  12.392   6.446
43782SOL     OW33184   6.711   8.852   8.647
43782SOL    HW133185   6.795   8.831   8.688
43782SOL    HW233186   6.709   8.947   8.642
43783SOL     OW33187   5.870  12.236   2.068
43783SOL    HW133188   5.831  12.318   2.100
43783SOL    HW233189   5.799  12.193   2.021
43784SOL     OW33190   7.673   7.720   8.797
43784SOL    HW133191   7.704   7.634   8.827
43784SOL    HW233192   7.671   7.774   8.876
43785SOL     OW33193   6.873  12.392  13.696
43785SOL    HW133194   6.874  12.454  13.623
43785SOL    HW233195   6.790  12.345  13.687
43786SOL     OW33196  14.856  11.880  14.229
43786SOL    HW133197  14.809  11.884  14.146
43786SOL    HW233198   0.003  11.787  14.240
43787SOL     OW33199   1.762  12.395  14.069
43787SOL    HW133200   1.669  12.395  14.049
43787SOL    HW233201   1.803  12.433  13.991
43788SOL     OW33202   5.589   1.965   9.662
43788SOL    HW133203   5.559   1.984   9.573
43788SOL    HW233204   5.509   1.945   9.710
43789SOL     OW33205  11.928   9.160   1.930
43789SOL    HW133206  11.960   9.198   1.847
43789SOL    HW233207  12.000   9.176   1.992
43790SOL     OW33208   4.905   9.805   3.281
43790SOL    HW133209   4.988   9.762   3.263
43790SOL    HW233210   4.860   9.745   3.341
43791SOL     OW33211   6.550   7.079   7.132
43791SOL    HW133212   6.577   7.117   7.216
43791SOL    HW233213   6.550   6.985   7.147
43792SOL     OW33214  13.099   1.831  14.040
43792SOL    HW133215  13.164   1.850  14.107
43792SOL    HW233216  13.022   1.882  14.066
43793SOL     OW33217   1.820   8.552  10.741
43793SOL    HW133218   1.739   8.509  10.714
43793SOL    HW233219   1.795   8.606  10.816
43794SOL     OW33220   1.021   3.157   5.257
43794SOL    HW133221   0.991   3.115   5.338
43794SOL    HW233222   1.091   3.217   5.285
43795SOL     OW33223   7.154   2.518   2.424
43795SOL    HW133224   7.173   2.557   2.339
43795SOL    HW233225   7.234   2.470   2.446
43796SOL     OW33226  14.387   2.458   5.134
43796SOL    HW133227  14.372   2.367   5.106
43796SOL    HW233228  14.448   2.451   5.207
43797SOL     OW33229   9.355   9.130   1.825
43797SOL    HW133230   9.437   9.114   1.778
43797SOL    HW233231   9.293   9.155   1.757
43798SOL     OW33232   2.661   9.917   3.134
43798SOL    HW133233   2.741   9.864   3.135
43798SOL    HW233234   2.635   9.919   3.041
43799SOL     OW33235   5.292  11.164   0.865
43799SOL    HW133236   5.388  11.155   0.864
43799SOL    HW233237   5.276  11.243   0.917
43800SOL     OW33238   7.235  14.632   9.140
43800SOL    HW133239   7.223  14.572   9.214
43800SOL    HW233240   7.147  14.647   9.107
43801SOL     OW33241  10.165  10.125   5.267
43801SOL    HW133242  10.112  10.058   5.225
43801SOL    HW233243  10.201  10.082   5.345
43802SOL     OW33244   4.824   3.667  10.432
43802SOL    HW133245   4.749   3.714  10.469
43802SOL    HW233246   4.890   3.669  10.502
43803SOL     OW33247   4.524  12.780   4.211
43803SOL    HW133248   4.550  12.828   4.132
43803SOL    HW233249   4.515  12.690   4.182
43804SOL     OW33250   9.406  10.070  12.061
43804SOL    HW133251   9.438   9.985  12.032
43804SOL    HW233252   9.405  10.124  11.982
43805SOL     OW33253   2.555   2.582  10.478
43805SOL    HW133254   2.572   2.642  10.405
43805SOL    HW233255   2.462   2.561  10.471
43806SOL     OW33256  14.173   3.784   9.542
43806SOL    HW133257  14.261   3.763   9.574
43806SOL    HW233258  14.132   3.698   9.529
43807SOL     OW33259   7.788   8.639   0.429
43807SOL    HW133260   7.799   8.726   0.468
43807SOL    HW233261   7.781   8.656   0.335
43808SOL     OW33262  12.669   5.200   7.645
43808SOL    HW133263  12.606   5.222   7.577
43808SOL    HW233264  12.753   5.231   7.611
43809SOL     OW33265  14.752  11.022   6.341
43809SOL    HW133266  14.771  11.073   6.263
43809SOL    HW233267  14.806  11.062   6.409
43810SOL     OW33268   6.117  12.845  14.042
43810SOL    HW133269   6.212  12.846  14.037
43810SOL    HW233270   6.095  12.900  14.117
43811SOL     OW33271  10.804   2.225  12.133
43811SOL    HW133272  10.763   2.286  12.194
43811SOL    HW233273  10.887   2.267  12.108
43812SOL     OW33274   5.183   0.449  13.817
43812SOL    HW133275   5.122   0.502  13.765
43812SOL    HW233276   5.169   0.478  13.907
43813SOL     OW33277  10.805   0.871   4.160
43813SOL    HW133278  10.774   0.847   4.073
43813SOL    HW233279  10.725   0.893   4.209
43814SOL     OW33280   5.549  11.494  12.088
43814SOL    HW133281   5.568  11.455  12.174
43814SOL    HW233282   5.595  11.578  12.089
43815SOL     OW33283   1.550   7.345   4.175
43815SOL    HW133284   1.505   7.308   4.251
43815SOL    HW233285   1.586   7.269   4.129
43816SOL     OW33286   5.465   6.180   1.474
43816SOL    HW133287   5.418   6.232   1.409
43816SOL    HW233288   5.427   6.205   1.558
43817SOL     OW33289  13.050   2.493   9.569
43817SOL    HW133290  13.024   2.575   9.610
43817SOL    HW233291  13.009   2.425   9.622
43818SOL     OW33292   8.493   8.377   4.393
43818SOL    HW133293   8.474   8.294   4.438
43818SOL    HW233294   8.423   8.436   4.420
43819SOL     OW33295   6.882   7.743   1.314
43819SOL    HW133296   6.910   7.712   1.400
43819SOL    HW233297   6.925   7.828   1.303
43820SOL     OW33298  12.595   0.487  14.100
43820SOL    HW133299  12.630   0.424  14.037
43820SOL    HW233300  12.633   0.461  14.184
43821SOL     OW33301  12.679   6.603   3.220
43821SOL    HW133302  12.605   6.593   3.161
43821SOL    HW233303  12.700   6.697   3.217
43822SOL     OW33304   7.233   3.357   1.901
43822SOL    HW133305   7.189   3.335   1.819
43822SOL    HW233306   7.162   3.377   1.962
43823SOL     OW33307   3.996   2.392   4.444
43823SOL    HW133308   3.942   2.316   4.462
43823SOL    HW233309   3.934   2.464   4.430
43824SOL     OW33310  13.651   8.509   5.883
43824SOL    HW133311  13.578   8.486   5.825
43824SOL    HW233312  13.636   8.600   5.906
43825SOL     OW33313   5.665   0.405   2.585
43825SOL    HW133314   5.590   0.434   2.534
43825SOL    HW233315   5.684   0.477   2.645
43826SOL     OW33316   0.491  11.530   6.919
43826SOL    HW133317   0.500  11.538   7.014
43826SOL    HW233318   0.575  11.495   6.889
43827SOL     OW33319   5.242   5.778   7.547
43827SOL    HW133320   5.210   5.694   7.513
43827SOL    HW233321   5.336   5.778   7.527
43828SOL     OW33322  10.672   7.147   1.374
43828SOL    HW133323  10.754   7.153   1.423
43828SOL    HW233324  10.691   7.087   1.303
43829SOL     OW33325   8.231   3.228   6.247
43829SOL    HW133326   8.313   3.277   6.246
43829SOL    HW233327   8.221   3.195   6.158
43830SOL     OW33328   9.514   6.477  13.016
43830SOL    HW133329   9.432   6.430  13.023
43830SOL    HW233330   9.577   6.424  13.065
43831SOL     OW33331  11.859  10.648   2.638
43831SOL    HW133332  11.833  10.567   2.595
43831SOL    HW233333  11.780  10.703   2.635
43832SOL     OW33334  14.630   0.982   4.460
43832SOL    HW133335  14.620   0.894   4.497
43832SOL    HW233336  14.721   1.005   4.477
43833SOL     OW33337  10.982   6.383   0.800
43833SOL    HW133338  10.937   6.381   0.716
43833SOL    HW233339  11.059   6.327   0.787
43834SOL     OW33340   0.259   0.211   6.878
43834SOL    HW133341   0.171   0.242   6.857
43834SOL    HW233342   0.317   0.276   6.839
43835SOL     OW33343  11.557   0.849  10.905
43835SOL    HW133344  11.534   0.757  10.920
43835SOL    HW233345  11.550   0.889  10.991
43836SOL     OW33346  14.451  11.552   7.729
43836SOL    HW133347  14.357  11.537   7.721
43836SOL    HW233348  14.459  11.644   7.756
43837SOL     OW33349   4.548   6.112  13.994
43837SOL    HW133350   4.607   6.169  14.045
43837SOL    HW233351   4.528   6.164  13.916
43838SOL     OW33352   5.794  14.040   7.996
43838SOL    HW133353   5.845  14.066   7.919
43838SOL    HW233354   5.830  14.093   8.067
43839SOL     OW33355  12.351   0.297   6.905
43839SOL    HW133356  12.369   0.219   6.958
43839SOL    HW233357  12.369   0.269   6.815
43840SOL     OW33358   8.210   3.621   3.742
43840SOL    HW133359   8.257   3.545   3.776
43840SOL    HW233360   8.123   3.615   3.783
43841SOL     OW33361   7.891   8.186   1.334
43841SOL    HW133362   7.890   8.169   1.240
43841SOL    HW233363   7.983   8.178   1.360
43842SOL     OW33364  14.495   4.479  14.439
43842SOL    HW133365  14.580   4.519  14.456
43842SOL    HW233366  14.515   4.388  14.420
43843SOL     OW33367   7.415   8.489   3.646
43843SOL    HW133368   7.461   8.429   3.588
43843SOL    HW233369   7.469   8.492   3.725
43844SOL     OW33370   0.163   5.111   7.903
43844SOL    HW133371   0.168   5.090   7.809
43844SOL    HW233372   0.072   5.137   7.916
43845SOL     OW33373   7.522  14.491   8.875
43845SOL    HW133374   7.558  14.515   8.960
43845SOL    HW233375   7.519  14.574   8.826
43846SOL     OW33376   5.868   0.975   4.580
43846SOL    HW133377   5.773   0.975   4.563
43846SOL    HW233378   5.882   1.053   4.633
43847SOL     OW33379   2.077  13.122   5.286
43847SOL    HW133380   2.114  13.039   5.315
43847SOL    HW233381   1.991  13.126   5.327
43848SOL     OW33382   6.943   6.866   1.963
43848SOL    HW133383   6.891   6.851   2.041
43848SOL    HW233384   7.021   6.911   1.994
43849SOL     OW33385   3.508   9.861  11.503
43849SOL    HW133386   3.421   9.824  11.482
43849SOL    HW233387   3.514   9.940  11.450
43850SOL     OW33388   2.698   9.898   8.775
43850SOL    HW133389   2.768   9.894   8.711
43850SOL    HW233390   2.742   9.920   8.857
43851SOL     OW33391   6.279   3.846   3.798
43851SOL    HW133392   6.257   3.916   3.736
43851SOL    HW233393   6.374   3.839   3.793
43852SOL     OW33394  14.087   3.477  11.700
43852SOL    HW133395  14.090   3.464  11.605
43852SOL    HW233396  14.162   3.429  11.734
43853SOL     OW33397  14.230   6.474   9.415
43853SOL    HW133398  14.146   6.428   9.408
43853SOL    HW233399  14.229   6.512   9.503
43854SOL     OW33400  11.956  12.796   1.267
43854SOL    HW133401  11.917  12.856   1.204
43854SOL    HW233402  11.946  12.710   1.227
43855SOL     OW33403   5.120  10.702  12.810
43855SOL    HW133404   5.174  10.736  12.739
43855SOL    HW233405   5.065  10.635  12.769
43856SOL     OW33406   2.672  10.200   6.968
43856SOL    HW133407   2.594  10.146   6.958
43856SOL    HW233408   2.737  10.159   6.911
43857SOL     OW33409  10.147   4.239   3.837
43857SOL    HW133410  10.149   4.328   3.870
43857SOL    HW233411  10.202   4.189   3.898
43858SOL     OW33412  10.794   5.323   4.503
43858SOL    HW133413  10.856   5.370   4.448
43858SOL    HW233414  10.766   5.248   4.451
43859SOL     OW33415   5.206   6.928  13.058
43859SOL    HW133416   5.158   6.868  13.000
43859SOL    HW233417   5.232   7.000  13.001
43860SOL     OW33418   0.174   9.561  10.840
43860SOL    HW133419   0.185   9.502  10.914
43860SOL    HW233420   0.239   9.533  10.776
43861SOL     OW33421  13.802   7.007   4.110
43861SOL    HW133422  13.866   7.065   4.151
43861SOL    HW233423  13.761   7.060   4.043
43862SOL     OW33424   5.917  12.779   7.259
43862SOL    HW133425   5.884  12.757   7.346
43862SOL    HW233426   6.010  12.796   7.272
43863SOL     OW33427   3.006   4.477  13.325
43863SOL    HW133428   2.949   4.514  13.393
43863SOL    HW233429   3.030   4.552  13.270
43864SOL     OW33430   2.051   4.207  10.749
43864SOL    HW133431   1.958   4.218  10.729
43864SOL    HW233432   2.054   4.142  10.819
43865SOL     OW33433   9.590   5.464   0.437
43865SOL    HW133434   9.505   5.458   0.482
43865SOL    HW233435   9.570   5.442   0.346
43866SOL     OW33436   8.968  12.821   8.016
43866SOL    HW133437   8.913  12.743   8.026
43866SOL    HW233438   8.951  12.852   7.927
43867SOL     OW33439   0.702   1.608   5.794
43867SOL    HW133440   0.632   1.542   5.791
43867SOL    HW233441   0.693   1.656   5.712
43868SOL     OW33442  13.559   3.974   4.675
43868SOL    HW133443  13.605   3.914   4.734
43868SOL    HW233444  13.584   3.945   4.587
43869SOL     OW33445  13.575   7.667   3.778
43869SOL    HW133446  13.513   7.647   3.708
43869SOL    HW233447  13.657   7.686   3.732
43870SOL     OW33448   4.987   0.658  13.670
43870SOL    HW133449   4.981   0.683  13.578
43870SOL    HW233450   4.898   0.635  13.695
43871SOL     OW33451  12.259   2.133   4.633
43871SOL    HW133452  12.204   2.103   4.705
43871SOL    HW233453  12.291   2.053   4.592
43872SOL     OW33454   0.239   1.526  10.156
43872SOL    HW133455   0.313   1.576  10.121
43872SOL    HW233456   0.269   1.435  10.154
43873SOL     OW33457   1.947  14.047   7.537
43873SOL    HW133458   1.974  14.036   7.446
43873SOL    HW233459   1.916  14.138   7.542
43874SOL     OW33460   0.148  12.012   7.714
43874SOL    HW133461   0.197  12.087   7.749
43874SOL    HW233462   0.159  12.019   7.619
43875SOL     OW33463   4.378   6.022   6.863
43875SOL    HW133464   4.462   5.985   6.833
43875SOL    HW233465   4.375   5.999   6.956
43876SOL     OW33466   6.175  14.739  12.603
43876SOL    HW133467   6.151  14.742  12.511
43876SOL    HW233468   6.146  14.823  12.639
43877SOL     OW33469  13.375   9.975   4.409
43877SOL    HW133470  13.462   9.988   4.373
43877SOL    HW233471  13.340  10.063   4.422
43878SOL     OW33472   9.467   9.770   0.502
43878SOL    HW133473   9.526   9.694   0.503
43878SOL    HW233474   9.481   9.810   0.416
43879SOL     OW33475   0.571   9.095  10.008
43879SOL    HW133476   0.539   9.006   9.993
43879SOL    HW233477   0.506   9.134  10.066
43880SOL     OW33478   8.419   3.457   5.026
43880SOL    HW133479   8.480   3.530   5.013
43880SOL    HW233480   8.357   3.466   4.953
43881SOL     OW33481  13.283   6.576   9.310
43881SOL    HW133482  13.215   6.508   9.317
43881SOL    HW233483  13.244   6.654   9.348
43882SOL     OW33484   3.100  13.519  14.532
43882SOL    HW133485   3.126  13.582  14.465
43882SOL    HW233486   3.012  13.549  14.559
43883SOL     OW33487  12.224  13.411   1.134
43883SOL    HW133488  12.232  13.506   1.148
43883SOL    HW233489  12.237  13.400   1.040
43884SOL     OW33490   4.413   6.938   8.348
43884SOL    HW133491   4.475   6.985   8.292
43884SOL    HW233492   4.342   6.915   8.288
43885SOL     OW33493   3.363   1.332  13.435
43885SOL    HW133494   3.341   1.416  13.474
43885SOL    HW233495   3.281   1.300  13.398
43886SOL     OW33496   1.992  12.042   0.169
43886SOL    HW133497   2.056  11.977   0.141
43886SOL    HW233498   2.044  12.120   0.190
43887SOL     OW33499  10.018   8.535  14.596
43887SOL    HW133500  10.062   8.452  14.617
43887SOL    HW233501   9.961   8.552  14.671
43888SOL     OW33502   6.196   4.967   5.006
43888SOL    HW133503   6.157   4.995   4.922
43888SOL    HW233504   6.241   4.886   4.985
43889SOL     OW33505  12.620   4.766   9.333
43889SOL    HW133506  12.699   4.743   9.284
43889SOL    HW233507  12.575   4.830   9.277
43890SOL     OW33508   5.525   8.286   6.228
43890SOL    HW133509   5.506   8.192   6.224
43890SOL    HW233510   5.444   8.327   6.200
43891SOL     OW33511  10.146   0.289  14.808
43891SOL    HW133512  10.139   0.349  14.734
43891SOL    HW233513  10.115   0.339   0.010
43892SOL     OW33514  11.135  13.198  11.282
43892SOL    HW133515  11.129  13.283  11.240
43892SOL    HW233516  11.132  13.135  11.210
43893SOL     OW33517  10.593  11.053   1.546
43893SOL    HW133518  10.683  11.036   1.574
43893SOL    HW233519  10.546  10.971   1.562
43894SOL     OW33520   7.046  11.799   2.199
43894SOL    HW133521   7.065  11.848   2.279
43894SOL    HW233522   6.988  11.856   2.149
43895SOL     OW33523  14.700   4.089   7.035
43895SOL    HW133524  14.736   4.010   7.075
43895SOL    HW233525  14.726   4.084   6.943
43896SOL     OW33526   9.103   0.800   6.330
43896SOL    HW133527   9.104   0.882   6.281
43896SOL    HW233528   9.196   0.782   6.348
43897SOL     OW33529   5.454   1.312   9.783
43897SOL    HW133530   5.400   1.241   9.745
43897SOL    HW233531   5.544   1.284   9.766
43898SOL     OW33532  10.851  14.316  10.066
43898SOL    HW133533  10.796  14.390  10.093
43898SOL    HW233534  10.928  14.357  10.026
43899SOL     OW33535   4.349   2.524   5.885
43899SOL    HW133536   4.429   2.480   5.914
43899SOL    HW233537   4.378   2.584   5.816
43900SOL     OW33538   4.289   6.738  13.413
43900SOL    HW133539   4.354   6.720  13.345
43900SOL    HW233540   4.206   6.743  13.367
43901SOL     OW33541   8.757   1.177  11.110
43901SOL    HW133542   8.836   1.158  11.058
43901SOL    HW233543   8.740   1.269  11.096
43902SOL     OW33544  14.861   9.576   6.090
43902SOL    HW133545   0.030   9.491   6.100
43902SOL    HW233546   0.055   9.632   6.050
43903SOL     OW33547  12.911  11.548   8.006
43903SOL    HW133548  12.951  11.496   7.936
43903SOL    HW233549  12.825  11.572   7.971
43904SOL     OW33550  11.069   7.500  12.774
43904SOL    HW133551  11.031   7.428  12.723
43904SOL    HW233552  11.071   7.466  12.864
43905SOL     OW33553  14.795   6.487  12.103
43905SOL    HW133554  14.846   6.558  12.142
43905SOL    HW233555  14.808   6.412  12.162
43906SOL     OW33556  10.791   5.307   8.193
43906SOL    HW133557  10.849   5.270   8.260
43906SOL    HW233558  10.845   5.308   8.114
43907SOL     OW33559  13.741   7.273   2.314
43907SOL    HW133560  13.775   7.185   2.333
43907SOL    HW233561  13.648   7.260   2.296
43908SOL     OW33562   0.839  11.616  14.380
43908SOL    HW133563   0.776  11.562  14.427
43908SOL    HW233564   0.914  11.622  14.440
43909SOL     OW33565   3.543   5.090   6.896
43909SOL    HW133566   3.505   5.161   6.843
43909SOL    HW233567   3.593   5.038   6.833
43910SOL     OW33568   5.233   7.161  13.810
43910SOL    HW133569   5.328   7.168  13.818
43910SOL    HW233570   5.215   7.174  13.717
43911SOL     OW33571   3.639  11.025   7.596
43911SOL    HW133572   3.717  11.007   7.543
43911SOL    HW233573   3.667  11.011   7.686
43912SOL     OW33574   2.824   5.094   9.011
43912SOL    HW133575   2.909   5.051   9.015
43912SOL    HW233576   2.776   5.060   9.087
43913SOL     OW33577  11.382   1.959  12.061
43913SOL    HW133578  11.324   1.897  12.104
43913SOL    HW233579  11.446   1.905  12.015
43914SOL     OW33580  10.437   0.682   7.638
43914SOL    HW133581  10.413   0.751   7.576
43914SOL    HW233582  10.423   0.720   7.724
43915SOL     OW33583   8.229   7.290  13.310
43915SOL    HW133584   8.194   7.206  13.281
43915SOL    HW233585   8.161   7.354  13.289
43916SOL     OW33586   1.148   2.196   5.626
43916SOL    HW133587   1.096   2.247   5.689
43916SOL    HW233588   1.124   2.232   5.541
43917SOL     OW33589  14.040  13.572   1.077
43917SOL    HW133590  14.079  13.486   1.094
43917SOL    HW233591  14.093  13.610   1.007
43918SOL     OW33592   9.895   3.230   9.412
43918SOL    HW133593   9.873   3.146   9.451
43918SOL    HW233594   9.986   3.220   9.382
43919SOL     OW33595   5.112   8.802  11.038
43919SOL    HW133596   5.157   8.718  11.040
43919SOL    HW233597   5.182   8.867  11.038
43920SOL     OW33598   3.187   8.484  12.488
43920SOL    HW133599   3.101   8.443  12.476
43920SOL    HW233600   3.172   8.552  12.554
43921SOL     OW33601   4.444   2.142   5.309
43921SOL    HW133602   4.363   2.137   5.360
43921SOL    HW233603   4.415   2.161   5.220
43922SOL     OW33604   4.263  14.699  13.626
43922SOL    HW133605   4.178  14.672  13.658
43922SOL    HW233606   4.245  14.742  13.542
43923SOL     OW33607   8.015   6.237  13.970
43923SOL    HW133608   8.091   6.238  13.912
43923SOL    HW233609   7.940   6.224  13.912
43924SOL     OW33610   1.148   6.702   3.456
43924SOL    HW133611   1.136   6.736   3.544
43924SOL    HW233612   1.220   6.640   3.463
43925SOL     OW33613  14.137   8.827   1.705
43925SOL    HW133614  14.177   8.848   1.789
43925SOL    HW233615  14.147   8.732   1.697
43926SOL     OW33616  13.159   0.675   3.080
43926SOL    HW133617  13.161   0.606   3.014
43926SOL    HW233618  13.245   0.671   3.122
43927SOL     OW33619   4.203   4.261   8.597
43927SOL    HW133620   4.117   4.303   8.596
43927SOL    HW233621   4.185   4.168   8.602
43928SOL     OW33622   6.869  10.371   1.054
43928SOL    HW133623   6.825  10.335   0.976
43928SOL    HW233624   6.820  10.450   1.074
43929SOL     OW33625  14.668  14.581   4.604
43929SOL    HW133626  14.601  14.571   4.537
43929SOL    HW233627  14.695  14.491   4.625
43930SOL     OW33628   2.201  12.839   6.391
43930SOL    HW133629   2.201  12.933   6.406
43930SOL    HW233630   2.258  12.804   6.459
43931SOL     OW33631  11.339  11.024  12.177
43931SOL    HW133632  11.257  11.063  12.145
43931SOL    HW233633  11.334  10.932  12.151
43932SOL     OW33634   5.072  10.671  13.625
43932SOL    HW133635   5.071  10.576  13.614
43932SOL    HW233636   5.158  10.698  13.594
43933SOL     OW33637  12.553   1.784   5.491
43933SOL    HW133638  12.507   1.729   5.428
43933SOL    HW233639  12.492   1.856   5.509
43934SOL     OW33640  11.897  12.953   6.574
43934SOL    HW133641  11.924  12.937   6.484
43934SOL    HW233642  11.906  13.047   6.587
43935SOL     OW33643   1.527   3.206   2.447
43935SOL    HW133644   1.614   3.167   2.442
43935SOL    HW233645   1.466   3.132   2.438
43936SOL     OW33646  12.670   4.886   1.324
43936SOL    HW133647  12.580   4.880   1.358
43936SOL    HW233648  12.664   4.848   1.236
43937SOL     OW33649  12.581  11.408   0.621
43937SOL    HW133650  12.539  11.378   0.702
43937SOL    HW233651  12.519  11.472   0.585
43938SOL     OW33652   7.069   3.897   3.282
43938SOL    HW133653   7.135   3.958   3.249
43938SOL    HW233654   7.000   3.954   3.317
43939SOL     OW33655   1.197   7.072  12.200
43939SOL    HW133656   1.104   7.094  12.198
43939SOL    HW233657   1.214   7.034  12.114
43940SOL     OW33658   8.852   1.777  13.163
43940SOL    HW133659   8.784   1.725  13.206
43940SOL    HW233660   8.804   1.834  13.103
43941SOL     OW33661   1.874   6.741   4.076
43941SOL    HW133662   1.966   6.728   4.055
43941SOL    HW233663   1.830   6.744   3.990
43942SOL     OW33664   1.353   7.743  14.620
43942SOL    HW133665   1.351   7.787  14.535
43942SOL    HW233666   1.342   7.813  14.684
43943SOL     OW33667   2.443   8.383   7.993
43943SOL    HW133668   2.474   8.461   8.038
43943SOL    HW233669   2.447   8.314   8.059
43944SOL     OW33670   2.666   5.397   3.254
43944SOL    HW133671   2.619   5.447   3.189
43944SOL    HW233672   2.609   5.397   3.331
43945SOL     OW33673   0.888   6.443   8.662
43945SOL    HW133674   0.846   6.479   8.584
43945SOL    HW233675   0.872   6.349   8.657
43946SOL     OW33676   3.554  13.937   3.733
43946SOL    HW133677   3.649  13.925   3.735
43946SOL    HW233678   3.532  13.971   3.819
43947SOL     OW33679  14.716   7.077  12.087
43947SOL    HW133680  14.756   7.163  12.097
43947SOL    HW233681  14.768   7.034  12.020
43948SOL     OW33682   6.147  13.987   6.344
43948SOL    HW133683   6.234  13.962   6.314
43948SOL    HW233684   6.123  13.919   6.406
43949SOL     OW33685   0.370   7.358   2.246
43949SOL    HW133686   0.360   7.353   2.151
43949SOL    HW233687   0.281   7.372   2.279
43950SOL     OW33688   0.556   8.515  10.237
43950SOL    HW133689   0.555   8.531  10.331
43950SOL    HW233690   0.648   8.497  10.217
43951SOL     OW33691   7.602  11.849   2.960
43951SOL    HW133692   7.652  11.767   2.962
43951SOL    HW233693   7.514  11.823   2.932
43952SOL     OW33694  13.112  12.401   6.194
43952SOL    HW133695  13.203  12.429   6.190
43952SOL    HW233696  13.105  12.350   6.274
43953SOL     OW33697   7.694   7.674  11.647
43953SOL    HW133698   7.780   7.639  11.627
43953SOL    HW233699   7.645   7.667  11.565
43954SOL     OW33700  14.184   3.001  12.300
43954SOL    HW133701  14.104   3.051  12.283
43954SOL    HW233702  14.164   2.913  12.267
43955SOL     OW33703   0.515   8.129   4.563
43955SOL    HW133704   0.491   8.063   4.627
43955SOL    HW233705   0.448   8.123   4.495
43956SOL     OW33706   1.085  14.709   4.444
43956SOL    HW133707   1.135  14.678   4.369
43956SOL    HW233708   1.027  14.636   4.466
43957SOL     OW33709   7.796   5.863   6.482
43957SOL    HW133710   7.788   5.957   6.464
43957SOL    HW233711   7.866   5.857   6.547
43958SOL     OW33712   7.974   7.138   2.115
43958SOL    HW133713   7.899   7.186   2.080
43958SOL    HW233714   8.020   7.106   2.038
43959SOL     OW33715   0.347   8.460   1.599
43959SOL    HW133716   0.290   8.437   1.526
43959SOL    HW233717   0.292   8.447   1.677
43960SOL     OW33718   8.358   3.588   2.343
43960SOL    HW133719   8.355   3.600   2.438
43960SOL    HW233720   8.315   3.666   2.307
43961SOL     OW33721   9.350  12.261   9.476
43961SOL    HW133722   9.403  12.294   9.404
43961SOL    HW233723   9.411  12.257   9.550
43962SOL     OW33724  12.356   9.264   0.723
43962SOL    HW133725  12.330   9.356   0.713
43962SOL    HW233726  12.408   9.246   0.645
43963SOL     OW33727   4.527   4.548  12.281
43963SOL    HW133728   4.476   4.580  12.206
43963SOL    HW233729   4.522   4.453  12.274
43964SOL     OW33730  14.120   9.778   3.512
43964SOL    HW133731  14.083   9.859   3.548
43964SOL    HW233732  14.045   9.732   3.475
43965SOL     OW33733   3.596   6.837  13.537
43965SOL    HW133734   3.561   6.775  13.601
43965SOL    HW233735   3.552   6.920  13.556
43966SOL     OW33736  12.775  11.254   0.021
43966SOL    HW133737  12.790  11.326  14.833
43966SOL    HW233738  12.682  11.260   0.042
43967SOL     OW33739  12.680   9.525   0.995
43967SOL    HW133740  12.683   9.598   1.057
43967SOL    HW233741  12.768   9.487   0.999
43968SOL     OW33742   5.211   4.700   3.871
43968SOL    HW133743   5.304   4.691   3.891
43968SOL    HW233744   5.169   4.709   3.956
43969SOL     OW33745   9.964  12.520  11.774
43969SOL    HW133746   9.995  12.433  11.748
43969SOL    HW233747   9.972  12.573  11.695
43970SOL     OW33748  11.647  12.894   6.442
43970SOL    HW133749  11.694  12.922   6.521
43970SOL    HW233750  11.662  12.800   6.437
43971SOL     OW33751   5.284  13.245  13.643
43971SOL    HW133752   5.290  13.339  13.627
43971SOL    HW233753   5.276  13.237  13.738
43972SOL     OW33754  11.054   7.947   3.525
43972SOL    HW133755  11.000   7.869   3.516
43972SOL    HW233756  11.008   8.015   3.476
43973SOL     OW33757  10.550   1.928   0.655
43973SOL    HW133758  10.599   2.007   0.678
43973SOL    HW233759  10.607   1.883   0.592
43974SOL     OW33760   2.342  11.199   1.509
43974SOL    HW133761   2.325  11.105   1.499
43974SOL    HW233762   2.428  11.213   1.471
43975SOL     OW33763  12.164  11.655  13.102
43975SOL    HW133764  12.096  11.695  13.158
43975SOL    HW233765  12.115  11.618  13.029
43976SOL     OW33766   1.042   2.335  12.853
43976SOL    HW133767   1.090   2.382  12.786
43976SOL    HW233768   1.055   2.386  12.933
43977SOL     OW33769   0.103   0.184  11.569
43977SOL    HW133770   0.053   0.263  11.591
43977SOL    HW233771   0.106   0.134  11.651
43978SOL     OW33772   5.999   7.193   6.260
43978SOL    HW133773   5.916   7.235   6.283
43978SOL    HW233774   6.066   7.257   6.282
43979SOL     OW33775   5.429  11.338  10.462
43979SOL    HW133776   5.379  11.321  10.541
43979SOL    HW233777   5.366  11.376  10.400
43980SOL     OW33778   1.209   7.574   7.379
43980SOL    HW133779   1.228   7.604   7.290
43980SOL    HW233780   1.205   7.478   7.372
43981SOL     OW33781   0.795  11.794  10.414
43981SOL    HW133782   0.757  11.806  10.501
43981SOL    HW233783   0.721  11.800  10.354
43982SOL     OW33784   8.927   6.031   5.736
43982SOL    HW133785   8.970   5.946   5.735
43982SOL    HW233786   8.834   6.011   5.748
43983SOL     OW33787   3.394  12.610   0.188
43983SOL    HW133788   3.380  12.703   0.171
43983SOL    HW233789   3.490  12.600   0.185
43984SOL     OW33790  13.085  14.064  12.653
43984SOL    HW133791  13.173  14.100  12.663
43984SOL    HW233792  13.028  14.141  12.656
43985SOL     OW33793   9.504  10.105  14.258
43985SOL    HW133794   9.598  10.092  14.266
43985SOL    HW233795   9.475  10.037  14.197
43986SOL     OW33796  13.051  14.382   7.715
43986SOL    HW133797  12.959  14.370   7.693
43986SOL    HW233798  13.070  14.472   7.690
43987SOL     OW33799   6.974   0.788  13.789
43987SOL    HW133800   6.931   0.709  13.823
43987SOL    HW233801   6.949   0.857  13.851
43988SOL     OW33802   9.558   4.850  13.542
43988SOL    HW133803   9.585   4.770  13.586
43988SOL    HW233804   9.522   4.905  13.612
43989SOL     OW33805  13.654   2.531   1.908
43989SOL    HW133806  13.656   2.545   1.814
43989SOL    HW233807  13.575   2.577   1.937
43990SOL     OW33808   1.178   4.652   8.702
43990SOL    HW133809   1.126   4.732   8.707
43990SOL    HW233810   1.122   4.590   8.655
43991SOL     OW33811   4.880  13.269   5.868
43991SOL    HW133812   4.947  13.202   5.883
43991SOL    HW233813   4.798  13.221   5.859
43992SOL     OW33814   5.962   2.907   2.288
43992SOL    HW133815   5.989   2.844   2.354
43992SOL    HW233816   6.028   2.901   2.219
43993SOL     OW33817   2.189   7.495  10.644
43993SOL    HW133818   2.233   7.417  10.612
43993SOL    HW233819   2.097   7.483  10.619
43994SOL     OW33820  13.238   4.098  14.376
43994SOL    HW133821  13.270   4.177  14.333
43994SOL    HW233822  13.150   4.121  14.406
43995SOL     OW33823  13.872  10.118  12.124
43995SOL    HW133824  13.853  10.060  12.198
43995SOL    HW233825  13.897  10.059  12.053
43996SOL     OW33826   1.878   5.502  13.561
43996SOL    HW133827   1.858   5.411  13.541
43996SOL    HW233828   1.898   5.541  13.475
43997SOL     OW33829   5.932   5.833   6.191
43997SOL    HW133830   5.957   5.741   6.196
43997SOL    HW233831   5.957   5.860   6.102
43998SOL     OW33832   9.327   0.846   1.760
43998SOL    HW133833   9.235   0.874   1.764
43998SOL    HW233834   9.375   0.915   1.805
43999SOL     OW33835   1.983   7.344  11.563
43999SOL    HW133836   1.955   7.259  11.530
43999SOL    HW233837   2.076   7.350  11.540
44000SOL     OW33838   8.493   7.145   5.194
44000SOL    HW133839   8.442   7.073   5.157
44000SOL    HW233840   8.584   7.115   5.188
44001SOL     OW33841   5.722  14.303   8.946
44001SOL    HW133842   5.751  14.329   8.858
44001SOL    HW233843   5.666  14.227   8.931
44002SOL     OW33844   6.906   9.501  10.476
44002SOL    HW133845   6.998   9.475  10.470
44002SOL    HW233846   6.909   9.592  10.507
44003SOL     OW33847  14.388   4.893   1.960
44003SOL    HW133848  14.301   4.911   1.996
44003SOL    HW233849  14.430   4.836   2.025
44004SOL     OW33850  13.292  12.324   9.256
44004SOL    HW133851  13.354  12.275   9.203
44004SOL    HW233852  13.298  12.414   9.223
44005SOL     OW33853   0.372   5.488   2.514
44005SOL    HW133854   0.362   5.480   2.609
44005SOL    HW233855   0.450   5.436   2.494
44006SOL     OW33856   1.317   0.570   6.664
44006SOL    HW133857   1.361   0.641   6.711
44006SOL    HW233858   1.367   0.561   6.583
44007SOL     OW33859   0.699   6.604  12.868
44007SOL    HW133860   0.721   6.598  12.961
44007SOL    HW233861   0.723   6.693  12.843
44008SOL     OW33862   3.580  12.617   1.558
44008SOL    HW133863   3.515  12.688   1.559
44008SOL    HW233864   3.532  12.540   1.589
44009SOL     OW33865   6.028   5.272   1.984
44009SOL    HW133866   5.965   5.204   2.009
44009SOL    HW233867   6.014   5.285   1.890
44010SOL     OW33868   1.812  12.537  12.417
44010SOL    HW133869   1.784  12.454  12.456
44010SOL    HW233870   1.802  12.601  12.487
44011SOL     OW33871   6.580   4.167  11.717
44011SOL    HW133872   6.500   4.121  11.740
44011SOL    HW233873   6.618   4.193  11.801
44012SOL     OW33874   9.288   2.244   9.702
44012SOL    HW133875   9.301   2.167   9.757
44012SOL    HW233876   9.377   2.272   9.678
44013SOL     OW33877   9.793   6.681   0.636
44013SOL    HW133878   9.871   6.625   0.628
44013SOL    HW233879   9.722   6.620   0.653
44014SOL     OW33880   8.957   1.796   2.619
44014SOL    HW133881   8.981   1.743   2.543
44014SOL    HW233882   8.862   1.787   2.626
44015SOL     OW33883   8.525  11.633  10.263
44015SOL    HW133884   8.531  11.540  10.242
44015SOL    HW233885   8.586  11.675  10.204
44016SOL     OW33886   3.078  10.631  11.689
44016SOL    HW133887   3.021  10.686  11.741
44016SOL    HW233888   3.056  10.541  11.715
44017SOL     OW33889   9.006  12.353   8.887
44017SOL    HW133890   9.041  12.332   8.974
44017SOL    HW233891   9.067  12.417   8.851
44018SOL     OW33892   2.393  14.300  10.523
44018SOL    HW133893   2.389  14.265  10.613
44018SOL    HW233894   2.367  14.226  10.468
44019SOL     OW33895   9.981   5.613  12.975
44019SOL    HW133896   9.997   5.695  12.928
44019SOL    HW233897   9.886   5.605  12.975
44020SOL     OW33898  14.275   8.255  14.046
44020SOL    HW133899  14.352   8.290  14.091
44020SOL    HW233900  14.238   8.329  13.998
44021SOL     OW33901   6.287   2.615  13.843
44021SOL    HW133902   6.248   2.542  13.794
44021SOL    HW233903   6.321   2.673  13.775
44022SOL     OW33904  10.996   8.191   3.234
44022SOL    HW133905  10.919   8.135   3.229
44022SOL    HW233906  10.967   8.265   3.288
44023SOL     OW33907   5.845   1.138   2.699
44023SOL    HW133908   5.780   1.122   2.631
44023SOL    HW233909   5.796   1.129   2.781
44024SOL     OW33910   2.545  11.178   4.693
44024SOL    HW133911   2.599  11.243   4.647
44024SOL    HW233912   2.558  11.198   4.786
44025SOL     OW33913  12.086   6.688  13.681
44025SOL    HW133914  12.082   6.624  13.752
44025SOL    HW233915  12.032   6.651  13.611
44026SOL     OW33916   9.296   8.083  11.958
44026SOL    HW133917   9.312   8.057  12.049
44026SOL    HW233918   9.201   8.097  11.955
44027SOL     OW33919   1.189   5.435   7.070
44027SOL    HW133920   1.185   5.489   7.150
44027SOL    HW233921   1.133   5.360   7.089
44028SOL     OW33922   7.811  10.759  10.854
44028SOL    HW133923   7.785  10.725  10.940
44028SOL    HW233924   7.829  10.681  10.802
44029SOL     OW33925  13.415   5.040  13.917
44029SOL    HW133926  13.319   5.031  13.918
44029SOL    HW233927  13.431   5.122  13.870
44030SOL     OW33928   7.203   1.260   1.744
44030SOL    HW133929   7.158   1.319   1.683
44030SOL    HW233930   7.132   1.221   1.795
44031SOL     OW33931   6.744   3.944   5.067
44031SOL    HW133932   6.652   3.961   5.047
44031SOL    HW233933   6.790   4.022   5.036
44032SOL     OW33934   0.898  14.446   9.618
44032SOL    HW133935   0.927  14.409   9.702
44032SOL    HW233936   0.938  14.391   9.552
44033SOL     OW33937   6.282   4.954  11.521
44033SOL    HW133938   6.238   4.869  11.520
44033SOL    HW233939   6.276   4.983  11.612
44034SOL     OW33940   0.468   1.459   3.254
44034SOL    HW133941   0.555   1.424   3.275
44034SOL    HW233942   0.439   1.407   3.180
44035SOL     OW33943  14.779   3.161   9.828
44035SOL    HW133944  14.813   3.071   9.821
44035SOL    HW233945  14.777   3.177   9.923
44036SOL     OW33946   7.796   6.792   2.566
44036SOL    HW133947   7.836   6.835   2.642
44036SOL    HW233948   7.726   6.738   2.604
44037SOL     OW33949  11.974   3.940   3.249
44037SOL    HW133950  11.936   3.879   3.185
44037SOL    HW233951  11.923   3.927   3.329
44038SOL     OW33952   7.310   8.365   0.146
44038SOL    HW133953   7.378   8.381   0.211
44038SOL    HW233954   7.351   8.385   0.062
44039SOL     OW33955   0.388  14.755  10.456
44039SOL    HW133956   0.415  14.838  10.495
44039SOL    HW233957   0.313  14.727  10.509
44040SOL     OW33958  14.568   9.458   4.129
44040SOL    HW133959  14.638   9.500   4.079
44040SOL    HW233960  14.607   9.441   4.215
44041SOL     OW33961  10.518  13.335   9.356
44041SOL    HW133962  10.613  13.326   9.356
44041SOL    HW233963  10.497  13.365   9.444
44042SOL     OW33964   6.307  14.582   2.953
44042SOL    HW133965   6.223  14.553   2.919
44042SOL    HW233966   6.349  14.627   2.879
44043SOL     OW33967  11.071   8.397  13.793
44043SOL    HW133968  11.153   8.386  13.745
44043SOL    HW233969  11.047   8.308  13.820
44044SOL     OW33970  12.052   3.898   9.846
44044SOL    HW133971  12.139   3.860   9.858
44044SOL    HW233972  12.027   3.930   9.933
44045SOL     OW33973   5.384   7.917  13.300
44045SOL    HW133974   5.383   7.878  13.388
44045SOL    HW233975   5.292   7.921  13.275
44046SOL     OW33976  14.042  13.146  12.349
44046SOL    HW133977  13.977  13.165  12.417
44046SOL    HW233978  14.096  13.076  12.387
44047SOL     OW33979  14.384   0.053  12.960
44047SOL    HW133980  14.442   0.040  13.035
44047SOL    HW233981  14.440   0.038  12.884
44048SOL     OW33982  13.208   1.660  12.484
44048SOL    HW133983  13.138   1.718  12.453
44048SOL    HW233984  13.289   1.704  12.459
44049SOL     OW33985  12.971   3.185   8.005
44049SOL    HW133986  13.009   3.099   8.023
44049SOL    HW233987  12.932   3.212   8.088
44050SOL     OW33988   3.985  12.635   1.326
44050SOL    HW133989   3.947  12.580   1.258
44050SOL    HW233990   4.061  12.585   1.357
44051SOL     OW33991   3.238  10.738   3.293
44051SOL    HW133992   3.324  10.722   3.332
44051SOL    HW233993   3.230  10.672   3.224
44052SOL     OW33994   3.827  11.133   2.472
44052SOL    HW133995   3.914  11.098   2.490
44052SOL    HW233996   3.774  11.107   2.548
44053SOL     OW33997   7.237   7.549   3.558
44053SOL    HW133998   7.175   7.532   3.629
44053SOL    HW233999   7.220   7.480   3.494
44054SOL     OW34000   8.483   4.476   0.679
44054SOL    HW134001   8.483   4.519   0.593
44054SOL    HW234002   8.396   4.496   0.716
44055SOL     OW34003   6.916   7.797  10.815
44055SOL    HW134004   6.852   7.733  10.785
44055SOL    HW234005   6.873   7.843  10.887
44056SOL     OW34006  10.495   0.461   9.920
44056SOL    HW134007  10.456   0.545   9.945
44056SOL    HW234008  10.524   0.473   9.830
44057SOL     OW34009   3.996   4.868   0.506
44057SOL    HW134010   3.941   4.795   0.479
44057SOL    HW234011   4.076   4.858   0.455
44058SOL     OW34012   0.523  11.831  14.603
44058SOL    HW134013   0.617  11.827  14.619
44058SOL    HW234014   0.490  11.892  14.670
44059SOL     OW34015  10.216   3.770  14.397
44059SOL    HW134016  10.284   3.833  14.375
44059SOL    HW234017  10.231   3.696  14.338
44060SOL     OW34018   1.444   2.532   4.626
44060SOL    HW134019   1.497   2.594   4.576
44060SOL    HW234020   1.455   2.449   4.580
44061SOL     OW34021   5.410  13.253  10.520
44061SOL    HW134022   5.434  13.163  10.540
44061SOL    HW234023   5.487  13.305  10.545
44062SOL     OW34024  11.360  14.767  14.341
44062SOL    HW134025  11.383  14.674  14.354
44062SOL    HW234026  11.438  14.814  14.371
44063SOL     OW34027   5.506   6.317  12.966
44063SOL    HW134028   5.412   6.313  12.950
44063SOL    HW234029   5.532   6.226  12.978
44064SOL     OW34030   3.759  10.797   8.231
44064SOL    HW134031   3.839  10.744   8.227
44064SOL    HW234032   3.701  10.748   8.289
44065SOL     OW34033  13.963   5.024   9.994
44065SOL    HW134034  14.058   5.022   9.981
44065SOL    HW234035  13.936   4.933   9.990
44066SOL     OW34036   2.065   4.333  12.907
44066SOL    HW134037   1.987   4.348  12.961
44066SOL    HW234038   2.043   4.256  12.854
44067SOL     OW34039   2.104  14.050   1.752
44067SOL    HW134040   2.031  14.112   1.760
44067SOL    HW234041   2.155  14.064   1.832
44068SOL     OW34042  14.605   7.874   6.210
44068SOL    HW134043  14.618   7.854   6.303
44068SOL    HW234044  14.511   7.869   6.197
44069SOL     OW34045   9.999   6.429   7.205
44069SOL    HW134046   9.962   6.489   7.271
44069SOL    HW234047   9.932   6.361   7.195
44070SOL     OW34048   1.473  10.225  11.316
44070SOL    HW134049   1.539  10.243  11.249
44070SOL    HW234050   1.474  10.303  11.371
44071SOL     OW34051   0.409   8.156   5.425
44071SOL    HW134052   0.338   8.211   5.393
44071SOL    HW234053   0.485   8.213   5.428
44072SOL     OW34054   0.874   6.878  13.458
44072SOL    HW134055   0.969   6.894  13.462
44072SOL    HW234056   0.837   6.962  13.431
44073SOL     OW34057   6.377   2.832   6.084
44073SOL    HW134058   6.315   2.903   6.067
44073SOL    HW234059   6.452   2.874   6.125
44074SOL     OW34060  14.317   6.867  10.170
44074SOL    HW134061  14.285   6.780  10.144
44074SOL    HW234062  14.360   6.901  10.092
44075SOL     OW34063   8.527   5.057  14.096
44075SOL    HW134064   8.549   4.982  14.041
44075SOL    HW234065   8.460   5.024  14.156
44076SOL     OW34066  14.552   3.453  14.379
44076SOL    HW134067  14.507   3.481  14.300
44076SOL    HW234068  14.541   3.358  14.381
44077SOL     OW34069   1.978  10.012   2.901
44077SOL    HW134070   2.032   9.938   2.928
44077SOL    HW234071   1.894   9.973   2.878
44078SOL     OW34072   4.384   5.834   7.515
44078SOL    HW134073   4.291   5.856   7.525
44078SOL    HW234074   4.424   5.863   7.597
44079SOL     OW34075   8.594   2.016  11.579
44079SOL    HW134076   8.569   2.047  11.666
44079SOL    HW234077   8.517   1.968  11.548
44080SOL     OW34078   5.633   2.051   8.753
44080SOL    HW134079   5.571   1.994   8.799
44080SOL    HW234080   5.701   2.069   8.818
44081SOL     OW34081  10.713  12.634   3.824
44081SOL    HW134082  10.777  12.599   3.761
44081SOL    HW234083  10.765  12.690   3.882
44082SOL     OW34084   4.389   0.142   5.965
44082SOL    HW134085   4.433   0.199   5.903
44082SOL    HW234086   4.341   0.202   6.023
44083SOL     OW34087   4.851  10.049   5.194
44083SOL    HW134088   4.942  10.042   5.165
44083SOL    HW234089   4.825  10.138   5.170
44084SOL     OW34090   2.257   0.010   2.780
44084SOL    HW134091   2.325   0.005   2.848
44084SOL    HW234092   2.228  14.793   2.769
44085SOL     OW34093   3.740   5.909   1.583
44085SOL    HW134094   3.684   5.897   1.659
44085SOL    HW234095   3.687   5.959   1.521
44086SOL     OW34096   2.267  10.191   9.268
44086SOL    HW134097   2.296  10.112   9.314
44086SOL    HW234098   2.276  10.169   9.175
44087SOL     OW34099   9.061   1.081   7.722
44087SOL    HW134100   9.125   1.079   7.793
44087SOL    HW234101   9.047   0.989   7.699
44088SOL     OW34102   5.903   0.453   8.681
44088SOL    HW134103   5.809   0.454   8.701
44088SOL    HW234104   5.927   0.360   8.685
44089SOL     OW34105   3.905   5.394   1.636
44089SOL    HW134106   3.850   5.471   1.622
44089SOL    HW234107   3.925   5.396   1.730
44090SOL     OW34108  14.621   6.217   6.074
44090SOL    HW134109  14.557   6.287   6.064
44090SOL    HW234110  14.668   6.240   6.154
44091SOL     OW34111  13.555   2.413   1.635
44091SOL    HW134112  13.562   2.319   1.654
44091SOL    HW234113  13.641   2.437   1.602
44092SOL     OW34114  13.589   7.072  12.574
44092SOL    HW134115  13.495   7.057  12.581
44092SOL    HW234116  13.606   7.073  12.479
44093SOL     OW34117  14.070  10.006   8.330
44093SOL    HW134118  14.120   9.924   8.326
44093SOL    HW234119  14.135  10.075   8.324
44094SOL     OW34120   1.984   1.621   2.754
44094SOL    HW134121   1.899   1.639   2.795
44094SOL    HW234122   1.964   1.562   2.682
44095SOL     OW34123  14.169   9.492  10.480
44095SOL    HW134124  14.203   9.458  10.398
44095SOL    HW234125  14.165   9.587  10.467
44096SOL     OW34126  12.160   6.542   1.861
44096SOL    HW134127  12.127   6.511   1.945
44096SOL    HW234128  12.112   6.491   1.795
44097SOL     OW34129   8.799  14.779   6.189
44097SOL    HW134130   8.825  14.751   6.101
44097SOL    HW234131   8.880  14.773   6.240
44098SOL     OW34132   1.803  11.782   9.482
44098SOL    HW134133   1.779  11.697   9.519
44098SOL    HW234134   1.740  11.796   9.411
44099SOL     OW34135   1.973  13.879   9.291
44099SOL    HW134136   1.929  13.875   9.206
44099SOL    HW234137   1.977  13.787   9.320
44100SOL     OW34138   3.827   6.534   2.233
44100SOL    HW134139   3.790   6.547   2.321
44100SOL    HW234140   3.824   6.439   2.220
44101SOL     OW34141  11.411  11.099   8.325
44101SOL    HW134142  11.465  11.073   8.251
44101SOL    HW234143  11.380  11.187   8.302
44102SOL     OW34144   2.438  11.517  11.336
44102SOL    HW134145   2.420  11.608  11.314
44102SOL    HW234146   2.508  11.490  11.277
44103SOL     OW34147   8.837   2.293   9.385
44103SOL    HW134148   8.895   2.345   9.330
44103SOL    HW234149   8.858   2.202   9.362
44104SOL     OW34150  13.395   3.849   2.392
44104SOL    HW134151  13.318   3.891   2.353
44104SOL    HW234152  13.417   3.905   2.467
44105SOL     OW34153  12.911  11.321   5.955
44105SOL    HW134154  12.932  11.356   6.041
44105SOL    HW234155  12.938  11.229   5.960
44106SOL     OW34156  11.593   3.637   5.175
44106SOL    HW134157  11.659   3.678   5.231
44106SOL    HW234158  11.535   3.709   5.150
44107SOL     OW34159   8.357   9.356   2.416
44107SOL    HW134160   8.327   9.316   2.335
44107SOL    HW234161   8.317   9.304   2.486
44108SOL     OW34162  12.109   7.025   7.086
44108SOL    HW134163  12.196   7.009   7.121
44108SOL    HW234164  12.060   7.063   7.160
44109SOL     OW34165   8.643   2.464  14.402
44109SOL    HW134166   8.700   2.538  14.421
44109SOL    HW234167   8.704   2.393  14.378
44110SOL     OW34168  14.058   6.964  11.054
44110SOL    HW134169  13.974   6.983  11.096
44110SOL    HW234170  14.124   6.989  11.119
44111SOL     OW34171   6.275   7.458   9.376
44111SOL    HW134172   6.211   7.482   9.443
44111SOL    HW234173   6.294   7.541   9.331
44112SOL     OW34174   5.144  11.033   8.475
44112SOL    HW134175   5.076  11.011   8.411
44112SOL    HW234176   5.157  10.952   8.524
44113SOL     OW34177   2.832   2.638   0.163
44113SOL    HW134178   2.867   2.573   0.101
44113SOL    HW234179   2.738   2.625   0.160
44114SOL     OW34180   7.982  12.425  10.666
44114SOL    HW134181   8.001  12.412  10.573
44114SOL    HW234182   8.048  12.372  10.711
44115SOL     OW34183  13.101  11.993  13.472
44115SOL    HW134184  13.082  12.016  13.563
44115SOL    HW234185  13.194  12.010  13.461
44116SOL     OW34186   2.038   4.313   6.894
44116SOL    HW134187   1.946   4.308   6.865
44116SOL    HW234188   2.046   4.401   6.931
44117SOL     OW34189   8.994  13.507   0.588
44117SOL    HW134190   9.077  13.509   0.542
44117SOL    HW234191   8.931  13.477   0.523
44118SOL     OW34192   1.493   2.811  12.791
44118SOL    HW134193   1.509   2.772  12.877
44118SOL    HW234194   1.454   2.896  12.809
44119SOL     OW34195   0.966   2.529   3.999
44119SOL    HW134196   0.948   2.605   4.054
44119SOL    HW234197   0.893   2.526   3.937
44120SOL     OW34198   6.017   2.402  14.600
44120SOL    HW134199   5.948   2.344  14.633
44120SOL    HW234200   5.972   2.460  14.538
44121SOL     OW34201  12.752   9.769   7.036
44121SOL    HW134202  12.666   9.796   7.004
44121SOL    HW234203  12.813   9.797   6.969
44122SOL     OW34204   2.949   5.020  12.398
44122SOL    HW134205   2.904   5.049  12.478
44122SOL    HW234206   2.963   5.101  12.349
44123SOL     OW34207   7.175   6.515  12.005
44123SOL    HW134208   7.080   6.506  12.003
44123SOL    HW234209   7.204   6.496  11.916
44124SOL     OW34210  13.857   0.641   3.054
44124SOL    HW134211  13.798   0.666   2.983
44124SOL    HW234212  13.942   0.679   3.028
44125SOL     OW34213   0.042  10.051   5.112
44125SOL    HW134214   0.017   9.992   5.040
44125SOL    HW234215   0.051  10.137   5.070
44126SOL     OW34216  10.477   0.612   1.630
44126SOL    HW134217  10.562   0.640   1.664
44126SOL    HW234218  10.428   0.694   1.617
44127SOL     OW34219   3.264   5.687   1.962
44127SOL    HW134220   3.273   5.612   2.021
44127SOL    HW234221   3.340   5.741   1.979
44128SOL     OW34222   0.727   0.408   1.033
44128SOL    HW134223   0.823   0.407   1.029
44128SOL    HW234224   0.698   0.385   0.945
44129SOL     OW34225  13.637  10.486   0.028
44129SOL    HW134226  13.607  10.544   0.099
44129SOL    HW234227  13.557  10.456  14.858
44130SOL     OW34228   7.305   4.747   0.341
44130SOL    HW134229   7.336   4.837   0.333
44130SOL    HW234230   7.287   4.736   0.434
44131SOL     OW34231   1.787  13.347   3.350
44131SOL    HW134232   1.728  13.322   3.421
44131SOL    HW234233   1.754  13.432   3.321
44132SOL     OW34234  14.312   0.322   4.946
44132SOL    HW134235  14.403   0.342   4.967
44132SOL    HW234236  14.288   0.386   4.880
44133SOL     OW34237  12.535  11.076   5.588
44133SOL    HW134238  12.455  11.057   5.539
44133SOL    HW234239  12.595  11.005   5.565
44134SOL     OW34240   1.449   0.945   4.689
44134SOL    HW134241   1.542   0.943   4.667
44134SOL    HW234242   1.435   1.032   4.727
44135SOL     OW34243  10.785  14.476  12.948
44135SOL    HW134244  10.774  14.563  12.911
44135SOL    HW234245  10.880  14.466  12.956
44136SOL     OW34246   4.618   5.370   7.354
44136SOL    HW134247   4.589   5.372   7.445
44136SOL    HW234248   4.542   5.401   7.304
44137SOL     OW34249   9.221   2.311   9.341
44137SOL    HW134250   9.254   2.345   9.258
44137SOL    HW234251   9.293   2.259   9.376
44138SOL     OW34252   3.974   1.965  13.766
44138SOL    HW134253   4.015   1.999  13.687
44138SOL    HW234254   4.020   2.011  13.838
44139SOL     OW34255   5.656   2.701   8.136
44139SOL    HW134256   5.623   2.667   8.219
44139SOL    HW234257   5.658   2.625   8.078
44140SOL     OW34258   4.271   6.474   5.739
44140SOL    HW134259   4.296   6.530   5.812
44140SOL    HW234260   4.175   6.478   5.738
44141SOL     OW34261   1.320   8.907   3.250
44141SOL    HW134262   1.339   8.854   3.327
44141SOL    HW234263   1.356   8.857   3.177
44142SOL     OW34264   0.148   5.512   1.058
44142SOL    HW134265   0.083   5.456   1.015
44142SOL    HW234266   0.130   5.502   1.151
44143SOL     OW34267   3.263  10.121  13.579
44143SOL    HW134268   3.192  10.177  13.613
44143SOL    HW234269   3.220  10.038  13.559
44144SOL     OW34270  14.338   3.654   4.357
44144SOL    HW134271  14.287   3.702   4.293
44144SOL    HW234272  14.300   3.566   4.358
44145SOL     OW34273   6.746  14.236   3.900
44145SOL    HW134274   6.810  14.270   3.837
44145SOL    HW234275   6.661  14.259   3.862
44146SOL     OW34276   0.216   4.486   8.441
44146SOL    HW134277   0.190   4.394   8.447
44146SOL    HW234278   0.197   4.511   8.350
44147SOL     OW34279  13.021  13.875  14.060
44147SOL    HW134280  13.089  13.864  13.993
44147SOL    HW234281  12.954  13.810  14.038
44148SOL     OW34282   0.227   7.902   0.861
44148SOL    HW134283   0.138   7.916   0.830
44148SOL    HW234284   0.282   7.941   0.793
44149SOL     OW34285   7.857   3.133   5.135
44149SOL    HW134286   7.913   3.204   5.102
44149SOL    HW234287   7.883   3.124   5.227
44150SOL     OW34288   5.235   1.562   1.171
44150SOL    HW134289   5.151   1.516   1.176
44150SOL    HW234290   5.235   1.604   1.085
44151SOL     OW34291  11.129   9.444   0.407
44151SOL    HW134292  11.114   9.392   0.487
44151SOL    HW234293  11.209   9.493   0.427
44152SOL     OW34294  13.924   4.325   5.677
44152SOL    HW134295  13.987   4.260   5.645
44152SOL    HW234296  13.860   4.333   5.607
44153SOL     OW34297   6.488   9.518   0.580
44153SOL    HW134298   6.442   9.529   0.664
44153SOL    HW234299   6.431   9.561   0.516
44154SOL     OW34300   7.380  14.349  11.729
44154SOL    HW134301   7.393  14.301  11.811
44154SOL    HW234302   7.464  14.344  11.684
44155SOL     OW34303   7.599  11.741  12.266
44155SOL    HW134304   7.564  11.658  12.235
44155SOL    HW234305   7.642  11.719  12.349
44156SOL     OW34306  14.870  10.369   5.807
44156SOL    HW134307  14.779  10.345   5.789
44156SOL    HW234308   0.003  10.461   5.781
44157SOL     OW34309  13.300  12.884   7.060
44157SOL    HW134310  13.274  12.864   6.970
44157SOL    HW234311  13.351  12.965   7.053
44158SOL     OW34312  13.898   9.553   0.203
44158SOL    HW134313  13.908   9.641   0.167
44158SOL    HW234314  13.860   9.566   0.290
44159SOL     OW34315  13.209  13.457   3.724
44159SOL    HW134316  13.290  13.406   3.733
44159SOL    HW234317  13.202  13.504   3.807
44160SOL     OW34318   7.614  13.074  10.018
44160SOL    HW134319   7.550  13.003  10.027
44160SOL    HW234320   7.664  13.050   9.940
44161SOL     OW34321   8.229   0.273  13.492
44161SOL    HW134322   8.283   0.225  13.555
44161SOL    HW234323   8.187   0.341  13.544
44162SOL     OW34324  10.754  12.015  12.677
44162SOL    HW134325  10.701  12.045  12.603
44162SOL    HW234326  10.692  12.007  12.749
44163SOL     OW34327  13.505  12.469   8.205
44163SOL    HW134328  13.470  12.557   8.190
44163SOL    HW234329  13.592  12.483   8.242
44164SOL     OW34330  10.353   4.115   6.437
44164SOL    HW134331  10.404   4.132   6.358
44164SOL    HW234332  10.402   4.157   6.507
44165SOL     OW34333  12.688   0.210   7.271
44165SOL    HW134334  12.731   0.127   7.292
44165SOL    HW234335  12.620   0.219   7.338
44166SOL     OW34336   2.878  14.076   4.026
44166SOL    HW134337   2.858  14.167   4.047
44166SOL    HW234338   2.972  14.069   4.038
44167SOL     OW34339   8.292   1.243  11.802
44167SOL    HW134340   8.320   1.197  11.882
44167SOL    HW234341   8.232   1.311  11.833
44168SOL     OW34342  10.981  10.850  14.519
44168SOL    HW134343  10.926  10.923  14.489
44168SOL    HW234344  10.981  10.858  14.614
44169SOL     OW34345  13.592   6.271  13.005
44169SOL    HW134346  13.557   6.194  13.050
44169SOL    HW234347  13.578   6.253  12.912
44170SOL     OW34348   2.149   6.194   6.964
44170SOL    HW134349   2.122   6.160   7.049
44170SOL    HW234350   2.145   6.119   6.905
44171SOL     OW34351  12.473   7.466   7.525
44171SOL    HW134352  12.399   7.424   7.481
44171SOL    HW234353  12.433   7.522   7.591
44172SOL     OW34354   8.296  13.564   3.302
44172SOL    HW134355   8.307  13.541   3.210
44172SOL    HW234356   8.290  13.480   3.347
44173SOL     OW34357   0.027   7.480   5.825
44173SOL    HW134358  14.828   7.470   5.763
44173SOL    HW234359   0.041   7.574   5.830
44174SOL     OW34360   0.429   7.728  10.912
44174SOL    HW134361   0.506   7.764  10.956
44174SOL    HW234362   0.433   7.634  10.932
44175SOL     OW34363   3.830  13.524   9.462
44175SOL    HW134364   3.816  13.433   9.489
44175SOL    HW234365   3.795  13.528   9.373
44176SOL     OW34366  12.353  13.815  13.982
44176SOL    HW134367  12.297  13.884  14.017
44176SOL    HW234368  12.358  13.834  13.888
44177SOL     OW34369   1.777   4.488   8.428
44177SOL    HW134370   1.712   4.548   8.391
44177SOL    HW234371   1.812   4.442   8.351
44178SOL     OW34372   5.872   0.212   4.116
44178SOL    HW134373   5.838   0.275   4.052
44178SOL    HW234374   5.804   0.208   4.184
44179SOL     OW34375  13.381  12.486   5.515
44179SOL    HW134376  13.373  12.567   5.466
44179SOL    HW234377  13.417  12.512   5.599
44180SOL     OW34378   0.579  13.481  11.023
44180SOL    HW134379   0.668  13.500  10.994
44180SOL    HW234380   0.550  13.560  11.069
44181SOL     OW34381  14.171   8.986  13.519
44181SOL    HW134382  14.191   9.011  13.429
44181SOL    HW234383  14.249   9.010  13.569
44182SOL     OW34384  14.209   1.015   4.463
44182SOL    HW134385  14.125   1.034   4.505
44182SOL    HW234386  14.186   0.978   4.378
44183SOL     OW34387   4.240  12.396   6.505
44183SOL    HW134388   4.171  12.330   6.514
44183SOL    HW234389   4.319  12.353   6.538
44184SOL     OW34390   3.984   3.887   0.768
44184SOL    HW134391   3.891   3.867   0.776
44184SOL    HW234392   4.009   3.849   0.684
44185SOL     OW34393  10.821   1.297  12.611
44185SOL    HW134394  10.737   1.251  12.609
44185SOL    HW234395  10.823   1.340  12.696
44186SOL     OW34396  10.448   0.596   2.302
44186SOL    HW134397  10.531   0.569   2.263
44186SOL    HW234398  10.409   0.515   2.334
44187SOL     OW34399   2.576   0.604   4.247
44187SOL    HW134400   2.638   0.625   4.317
44187SOL    HW234401   2.510   0.549   4.289
44188SOL     OW34402  12.954  12.264   1.369
44188SOL    HW134403  13.032  12.227   1.328
44188SOL    HW234404  12.884  12.202   1.348
44189SOL     OW34405   0.365  13.066   4.566
44189SOL    HW134406   0.286  13.119   4.556
44189SOL    HW234407   0.349  12.987   4.514
44190SOL     OW34408   4.911  13.208   2.274
44190SOL    HW134409   4.896  13.113   2.271
44190SOL    HW234410   4.925  13.232   2.182
44191SOL     OW34411   4.562  14.792   8.198
44191SOL    HW134412   4.599   0.005   8.181
44191SOL    HW234413   4.530  14.763   8.113
44192SOL     OW34414   5.543   2.120  14.262
44192SOL    HW134415   5.636   2.102  14.272
44192SOL    HW234416   5.523   2.180  14.334
44193SOL     OW34417  12.185   4.837   7.506
44193SOL    HW134418  12.095   4.851   7.477
44193SOL    HW234419  12.230   4.919   7.484
44194SOL     OW34420   4.680  12.400  11.353
44194SOL    HW134421   4.724  12.338  11.412
44194SOL    HW234422   4.587  12.386  11.368
44195SOL     OW34423  13.578   3.088   2.932
44195SOL    HW134424  13.638   3.150   2.891
44195SOL    HW234425  13.567   3.018   2.867
44196SOL     OW34426   9.070   2.929   1.329
44196SOL    HW134427   9.022   2.959   1.406
44196SOL    HW234428   9.092   3.010   1.282
44197SOL     OW34429  11.079  14.255   6.576
44197SOL    HW134430  11.005  14.311   6.598
44197SOL    HW234431  11.053  14.211   6.496
44198SOL     OW34432   2.401   4.646  13.594
44198SOL    HW134433   2.338   4.581  13.563
44198SOL    HW234434   2.375   4.664  13.684
44199SOL     OW34435   4.206   9.861   5.670
44199SOL    HW134436   4.143   9.794   5.698
44199SOL    HW234437   4.236   9.832   5.584
44200SOL     OW34438   8.261   5.410   1.151
44200SOL    HW134439   8.225   5.351   1.085
44200SOL    HW234440   8.185   5.442   1.199
44201SOL     OW34441   7.902   2.725   8.290
44201SOL    HW134442   7.920   2.695   8.379
44201SOL    HW234443   7.849   2.804   8.302
44202SOL     OW34444   5.983   4.549   0.731
44202SOL    HW134445   6.011   4.458   0.725
44202SOL    HW234446   6.032   4.584   0.806
44203SOL     OW34447   3.586   8.185  13.951
44203SOL    HW134448   3.544   8.255  14.000
44203SOL    HW234449   3.520   8.115  13.946
44204SOL     OW34450   8.910   8.530   2.994
44204SOL    HW134451   8.970   8.552   3.065
44204SOL    HW234452   8.933   8.441   2.970
44205SOL     OW34453  12.702   9.634   9.725
44205SOL    HW134454  12.661   9.637   9.639
44205SOL    HW234455  12.791   9.665   9.711
44206SOL     OW34456  10.340  11.770   0.170
44206SOL    HW134457  10.281  11.709   0.126
44206SOL    HW234458  10.307  11.775   0.260
44207SOL     OW34459   8.642  11.629  10.957
44207SOL    HW134460   8.673  11.685  11.029
44207SOL    HW234461   8.722  11.600  10.914
44208SOL     OW34462   7.412  14.391  10.957
44208SOL    HW134463   7.353  14.358  11.025
44208SOL    HW234464   7.498  14.394  11.001
44209SOL     OW34465   1.378   5.583   9.020
44209SOL    HW134466   1.464   5.565   9.058
44209SOL    HW234467   1.328   5.503   9.032
44210SOL     OW34468  11.267   2.758  13.065
44210SOL    HW134469  11.196   2.822  13.058
44210SOL    HW234470  11.336   2.793  13.009
44211SOL     OW34471   0.672   5.621   0.303
44211SOL    HW134472   0.727   5.655   0.373
44211SOL    HW234473   0.733   5.575   0.245
44212SOL     OW34474   7.152  13.391   1.611
44212SOL    HW134475   7.067  13.347   1.619
44212SOL    HW234476   7.216  13.322   1.631
44213SOL     OW34477  14.212   3.560   3.765
44213SOL    HW134478  14.199   3.466   3.779
44213SOL    HW234479  14.304   3.575   3.786
44214SOL     OW34480  14.638   0.508   4.101
44214SOL    HW134481  14.670   0.418   4.106
44214SOL    HW234482  14.644   0.530   4.009
44215SOL     OW34483   8.292  12.185   0.058
44215SOL    HW134484   8.304  12.245   0.131
44215SOL    HW234485   8.197  12.178   0.048
44216SOL     OW34486   6.431   7.585   4.514
44216SOL    HW134487   6.350   7.533   4.510
44216SOL    HW234488   6.400   7.676   4.516
44217SOL     OW34489   0.069  10.521  14.371
44217SOL    HW134490   0.033  10.435  14.351
44217SOL    HW234491   0.018  10.581  14.315
44218SOL     OW34492   9.230   0.230   2.214
44218SOL    HW134493   9.151   0.282   2.201
44218SOL    HW234494   9.294   0.268   2.153
44219SOL     OW34495   0.599   0.505   3.283
44219SOL    HW134496   0.616   0.540   3.195
44219SOL    HW234497   0.628   0.414   3.279
44220SOL     OW34498   4.427  11.343   3.900
44220SOL    HW134499   4.446  11.349   3.807
44220SOL    HW234500   4.460  11.257   3.926
44221SOL     OW34501  10.425   0.849   9.709
44221SOL    HW134502  10.511   0.833   9.748
44221SOL    HW234503  10.420   0.944   9.700
44222SOL     OW34504   5.235  14.470   1.088
44222SOL    HW134505   5.327  14.491   1.101
44222SOL    HW234506   5.229  14.375   1.102
44223SOL     OW34507   4.646   6.069   2.402
44223SOL    HW134508   4.672   6.021   2.481
44223SOL    HW234509   4.569   6.119   2.429
44224SOL     OW34510   5.680   0.780  13.975
44224SOL    HW134511   5.693   0.828  14.056
44224SOL    HW234512   5.690   0.688  14.000
44225SOL     OW34513  14.828   4.568   9.223
44225SOL    HW134514  14.734   4.550   9.229
44225SOL    HW234515  14.834   4.637   9.157
44226SOL     OW34516   1.239  11.275   8.801
44226SOL    HW134517   1.264  11.318   8.882
44226SOL    HW234518   1.189  11.199   8.829
44227SOL     OW34519   8.365   3.972   0.081
44227SOL    HW134520   8.351   4.067   0.087
44227SOL    HW234521   8.400   3.958  14.867
44228SOL     OW34522   9.546   2.794   9.232
44228SOL    HW134523   9.600   2.814   9.156
44228SOL    HW234524   9.553   2.871   9.288
44229SOL     OW34525   4.778   1.084  14.374
44229SOL    HW134526   4.789   1.169  14.416
44229SOL    HW234527   4.797   1.020  14.443
44230SOL     OW34528   3.250   8.337  10.081
44230SOL    HW134529   3.248   8.289  10.164
44230SOL    HW234530   3.322   8.297  10.032
44231SOL     OW34531   4.541  10.238  12.030
44231SOL    HW134532   4.511  10.327  12.012
44231SOL    HW234533   4.609  10.249  12.096
44232SOL     OW34534   6.274   7.468   5.710
44232SOL    HW134535   6.238   7.388   5.673
44232SOL    HW234536   6.348   7.490   5.654
44233SOL     OW34537   2.226  14.105  13.591
44233SOL    HW134538   2.231  14.018  13.551
44233SOL    HW234539   2.208  14.164  13.517
44234SOL     OW34540   2.215  10.454  11.217
44234SOL    HW134541   2.202  10.441  11.124
44234SOL    HW234542   2.161  10.386  11.259
44235SOL     OW34543   7.648   6.009  13.564
44235SOL    HW134544   7.580   6.007  13.631
44235SOL    HW234545   7.635   6.092  13.519
44236SOL     OW34546   4.047   7.661  11.597
44236SOL    HW134547   3.976   7.662  11.532
44236SOL    HW234548   4.053   7.751  11.627
44237SOL     OW34549  14.371  14.734  13.995
44237SOL    HW134550  14.343  14.825  13.997
44237SOL    HW234551  14.430  14.728  13.920
44238SOL     OW34552   1.683   3.426   9.586
44238SOL    HW134553   1.731   3.445   9.667
44238SOL    HW234554   1.593   3.453   9.604
44239SOL     OW34555   2.899   2.967   7.052
44239SOL    HW134556   2.993   2.952   7.038
44239SOL    HW234557   2.894   3.057   7.083
44240SOL     OW34558  14.524  10.166   3.972
44240SOL    HW134559  14.432  10.190   3.977
44240SOL    HW234560  14.550  10.151   4.063
44241SOL     OW34561   9.072  10.613   3.050
44241SOL    HW134562   9.045  10.622   3.141
44241SOL    HW234563   9.017  10.543   3.015
44242SOL     OW34564   9.042   1.413   2.075
44242SOL    HW134565   9.030   1.359   2.153
44242SOL    HW234566   9.119   1.466   2.095
44243SOL     OW34567   9.618  13.507   0.777
44243SOL    HW134568   9.658  13.421   0.791
44243SOL    HW234569   9.692  13.567   0.771
44244SOL     OW34570   0.177   2.236  13.751
44244SOL    HW134571   0.148   2.326  13.766
44244SOL    HW234572   0.096   2.186  13.744
44245SOL     OW34573   6.589  11.855   9.379
44245SOL    HW134574   6.545  11.900   9.307
44245SOL    HW234575   6.668  11.819   9.341
44246SOL     OW34576   1.707  12.617   2.410
44246SOL    HW134577   1.785  12.585   2.365
44246SOL    HW234578   1.646  12.543   2.410
44247SOL     OW34579   9.693  11.015  10.485
44247SOL    HW134580   9.716  10.924  10.500
44247SOL    HW234581   9.774  11.063  10.503
44248SOL     OW34582   4.952   9.877   6.562
44248SOL    HW134583   4.915   9.821   6.630
44248SOL    HW234584   4.879   9.894   6.502
44249SOL     OW34585   8.907  12.643   2.185
44249SOL    HW134586   8.886  12.708   2.253
44249SOL    HW234587   8.962  12.579   2.229
44250SOL     OW34588  13.195   9.756  10.573
44250SOL    HW134589  13.122   9.754  10.510
44250SOL    HW234590  13.262   9.699  10.535
44251SOL     OW34591   5.971  10.396  12.610
44251SOL    HW134592   6.048  10.452  12.603
44251SOL    HW234593   5.919  10.433  12.682
44252SOL     OW34594   4.626  12.570   2.345
44252SOL    HW134595   4.580  12.580   2.261
44252SOL    HW234596   4.701  12.515   2.325
44253SOL     OW34597   7.141  10.915   2.267
44253SOL    HW134598   7.205  10.844   2.261
44253SOL    HW234599   7.173  10.982   2.208
44254SOL     OW34600  13.043  10.091  13.556
44254SOL    HW134601  13.034  10.082  13.461
44254SOL    HW234602  13.112  10.027  13.579
44255SOL     OW34603   1.909  10.078   9.996
44255SOL    HW134604   1.835  10.112  10.045
44255SOL    HW234605   1.891  10.103   9.905
44256SOL     OW34606   3.559   0.333   7.939
44256SOL    HW134607   3.499   0.345   8.013
44256SOL    HW234608   3.638   0.380   7.965
44257SOL     OW34609  11.628   9.844   4.954
44257SOL    HW134610  11.612   9.757   4.990
44257SOL    HW234611  11.622   9.903   5.029
44258SOL     OW34612   5.170   9.214   8.890
44258SOL    HW134613   5.229   9.247   8.822
44258SOL    HW234614   5.174   9.119   8.881
44259SOL     OW34615   9.657  12.965   1.405
44259SOL    HW134616   9.712  12.901   1.360
44259SOL    HW234617   9.715  13.038   1.423
44260SOL     OW34618  10.274   2.251   6.552
44260SOL    HW134619  10.263   2.344   6.569
44260SOL    HW234620  10.362   2.244   6.515
44261SOL     OW34621   4.717  12.849  13.759
44261SOL    HW134622   4.669  12.889  13.687
44261SOL    HW234623   4.783  12.914  13.783
44262SOL     OW34624   4.103  13.667   7.695
44262SOL    HW134625   4.173  13.709   7.745
44262SOL    HW234626   4.140  13.656   7.607
44263SOL     OW34627  10.123   2.487   8.298
44263SOL    HW134628  10.203   2.539   8.309
44263SOL    HW234629  10.132   2.447   8.212
44264SOL     OW34630  13.758   4.868   0.370
44264SOL    HW134631  13.806   4.951   0.372
44264SOL    HW234632  13.776   4.827   0.454
44265SOL     OW34633   6.704   5.496   8.557
44265SOL    HW134634   6.729   5.513   8.647
44265SOL    HW234635   6.628   5.553   8.541
44266SOL     OW34636   0.111  11.993   4.388
44266SOL    HW134637   0.096  12.087   4.374
44266SOL    HW234638   0.133  11.960   4.301
44267SOL     OW34639   8.212  12.043   1.745
44267SOL    HW134640   8.290  12.040   1.799
44267SOL    HW234641   8.173  11.956   1.752
44268SOL     OW34642   2.559   7.154   5.812
44268SOL    HW134643   2.554   7.074   5.759
44268SOL    HW234644   2.647   7.188   5.795
44269SOL     OW34645   5.723   8.164   9.269
44269SOL    HW134646   5.633   8.196   9.267
44269SOL    HW234647   5.744   8.157   9.362
44270SOL     OW34648   3.948   5.686   8.657
44270SOL    HW134649   3.894   5.691   8.578
44270SOL    HW234650   3.888   5.654   8.724
44271SOL     OW34651  11.713   8.686   9.423
44271SOL    HW134652  11.680   8.732   9.346
44271SOL    HW234653  11.770   8.618   9.388
44272SOL     OW34654   8.229   5.672  14.718
44272SOL    HW134655   8.147   5.693  14.762
44272SOL    HW234656   8.294   5.670  14.788
44273SOL     OW34657  14.376   6.796   9.411
44273SOL    HW134658  14.387   6.704   9.387
44273SOL    HW234659  14.464   6.833   9.404
44274SOL     OW34660   0.684   7.535  13.255
44274SOL    HW134661   0.714   7.620  13.287
44274SOL    HW234662   0.588   7.542  13.255
44275SOL     OW34663   4.222   6.147   1.670
44275SOL    HW134664   4.195   6.133   1.579
44275SOL    HW234665   4.250   6.238   1.673
44276SOL     OW34666   6.206   2.645  12.312
44276SOL    HW134667   6.270   2.665  12.244
44276SOL    HW234668   6.152   2.724  12.320
44277SOL     OW34669   1.591   1.450  10.178
44277SOL    HW134670   1.657   1.517  10.158
44277SOL    HW234671   1.619   1.373  10.129
44278SOL     OW34672  12.193  11.463   2.454
44278SOL    HW134673  12.278  11.493   2.486
44278SOL    HW234674  12.177  11.517   2.376
44279SOL     OW34675   1.319   7.948   6.735
44279SOL    HW134676   1.344   7.876   6.677
44279SOL    HW234677   1.273   7.906   6.808
44280SOL     OW34678  14.725   5.442   6.066
44280SOL    HW134679  14.734   5.377   6.135
44280SOL    HW234680  14.814   5.460   6.037
44281SOL     OW34681  10.160   5.690  10.670
44281SOL    HW134682  10.105   5.620  10.637
44281SOL    HW234683  10.199   5.730  10.592
44282SOL     OW34684   6.874   6.827   7.958
44282SOL    HW134685   6.814   6.778   8.015
44282SOL    HW234686   6.907   6.898   8.013
44283SOL     OW34687  10.815   5.252  11.032
44283SOL    HW134688  10.885   5.291  10.980
44283SOL    HW234689  10.741   5.312  11.021
44284SOL     OW34690   5.725   2.238   4.190
44284SOL    HW134691   5.807   2.225   4.236
44284SOL    HW234692   5.674   2.159   4.208
44285SOL     OW34693   8.846   3.296   4.876
44285SOL    HW134694   8.896   3.263   4.950
44285SOL    HW234695   8.855   3.230   4.808
44286SOL     OW34696  13.513  11.836  10.960
44286SOL    HW134697  13.446  11.824  10.893
44286SOL    HW234698  13.492  11.771  11.027
44287SOL     OW34699   3.736  14.616  11.827
44287SOL    HW134700   3.739  14.549  11.759
44287SOL    HW234701   3.649  14.655  11.818
44288SOL     OW34702   7.753   7.272   2.718
44288SOL    HW134703   7.834   7.274   2.667
44288SOL    HW234704   7.710   7.356   2.699
44289SOL     OW34705  11.806   2.033   6.415
44289SOL    HW134706  11.882   1.976   6.404
44289SOL    HW234707  11.818   2.101   6.348
44290SOL     OW34708  13.763   5.983   8.018
44290SOL    HW134709  13.713   5.984   8.099
44290SOL    HW234710  13.851   5.954   8.043
44291SOL     OW34711   6.932  14.826   3.025
44291SOL    HW134712   6.965  14.819   2.936
44291SOL    HW234713   6.899   0.042   3.032
44292SOL     OW34714   4.577   6.884  12.342
44292SOL    HW134715   4.558   6.909  12.252
44292SOL    HW234716   4.616   6.797  12.336
44293SOL     OW34717   7.530  12.230  10.869
44293SOL    HW134718   7.572  12.225  10.955
44293SOL    HW234719   7.587  12.288  10.819
44294SOL     OW34720  11.732   4.811  14.740
44294SOL    HW134721  11.700   4.865  14.668
44294SOL    HW234722  11.754   4.874  14.809
44295SOL     OW34723   4.152   6.263   3.130
44295SOL    HW134724   4.183   6.187   3.080
44295SOL    HW234725   4.150   6.232   3.220
44296SOL     OW34726   2.235   7.123   2.811
44296SOL    HW134727   2.184   7.203   2.801
44296SOL    HW234728   2.318   7.142   2.767
44297SOL     OW34729  13.134   0.592   5.450
44297SOL    HW134730  13.204   0.626   5.506
44297SOL    HW234731  13.062   0.654   5.460
44298SOL     OW34732  13.220  14.346   0.686
44298SOL    HW134733  13.162  14.406   0.639
44298SOL    HW234734  13.253  14.286   0.618
44299SOL     OW34735   2.417   4.954  10.055
44299SOL    HW134736   2.436   4.974  10.147
44299SOL    HW234737   2.404   5.040  10.014
44300SOL     OW34738   7.653  10.186   1.328
44300SOL    HW134739   7.723  10.121   1.334
44300SOL    HW234740   7.698  10.268   1.307
44301SOL     OW34741  14.711   3.021   7.229
44301SOL    HW134742  14.725   2.926   7.232
44301SOL    HW234743  14.707   3.048   7.321
44302SOL     OW34744   8.321   8.846   6.415
44302SOL    HW134745   8.400   8.793   6.416
44302SOL    HW234746   8.326   8.899   6.495
44303SOL     OW34747   3.260   3.904   7.731
44303SOL    HW134748   3.295   3.936   7.647
44303SOL    HW234749   3.236   3.813   7.713
44304SOL     OW34750  11.031  10.822  12.965
44304SOL    HW134751  11.001  10.823  12.874
44304SOL    HW234752  11.105  10.761  12.965
44305SOL     OW34753  12.374   2.758   7.306
44305SOL    HW134754  12.387   2.853   7.294
44305SOL    HW234755  12.426   2.718   7.236
44306SOL     OW34756  13.040  14.212  11.648
44306SOL    HW134757  13.019  14.266  11.571
44306SOL    HW234758  13.105  14.150  11.617
44307SOL     OW34759   6.414   1.441   9.204
44307SOL    HW134760   6.452   1.451   9.292
44307SOL    HW234761   6.383   1.529   9.182
44308SOL     OW34762  13.392   8.106  14.418
44308SOL    HW134763  13.303   8.111  14.383
44308SOL    HW234764  13.381   8.065  14.504
44309SOL     OW34765   8.928   8.088   2.575
44309SOL    HW134766   8.944   8.075   2.481
44309SOL    HW234767   8.955   8.179   2.590
44310SOL     OW34768  14.147  10.877   6.198
44310SOL    HW134769  14.172  10.934   6.270
44310SOL    HW234770  14.217  10.888   6.133
44311SOL     OW34771  14.454  13.696   1.341
44311SOL    HW134772  14.383  13.638   1.367
44311SOL    HW234773  14.527  13.637   1.323
44312SOL     OW34774  11.641   2.302   0.905
44312SOL    HW134775  11.573   2.254   0.951
44312SOL    HW234776  11.600   2.385   0.880
44313SOL     OW34777   2.788   6.293   9.932
44313SOL    HW134778   2.864   6.254   9.975
44313SOL    HW234779   2.777   6.243   9.851
44314SOL     OW34780   5.686   6.581   8.427
44314SOL    HW134781   5.624   6.618   8.490
44314SOL    HW234782   5.694   6.648   8.359
44315SOL     OW34783   2.202   8.147   3.584
44315SOL    HW134784   2.212   8.144   3.489
44315SOL    HW234785   2.258   8.219   3.612
44316SOL     OW34786   4.550   6.727   7.365
44316SOL    HW134787   4.574   6.820   7.359
44316SOL    HW234788   4.555   6.707   7.458
44317SOL     OW34789   6.273  10.863  13.628
44317SOL    HW134790   6.234  10.811  13.699
44317SOL    HW234791   6.239  10.823  13.548
44318SOL     OW34792  12.177   1.238   8.594
44318SOL    HW134793  12.269   1.211   8.590
44318SOL    HW234794  12.177   1.317   8.649
44319SOL     OW34795   9.572   1.151   4.214
44319SOL    HW134796   9.500   1.090   4.231
44319SOL    HW234797   9.571   1.163   4.119
44320SOL     OW34798   4.158   2.435   6.141
44320SOL    HW134799   4.224   2.498   6.112
44320SOL    HW234800   4.181   2.415   6.232
44321SOL     OW34801  10.545   8.900   3.088
44321SOL    HW134802  10.520   8.907   2.996
44321SOL    HW234803  10.462   8.880   3.133
44322SOL     OW34804  14.547   2.525   6.004
44322SOL    HW134805  14.552   2.454   6.068
44322SOL    HW234806  14.524   2.602   6.056
44323SOL     OW34807  11.593   2.198  11.696
44323SOL    HW134808  11.627   2.285  11.675
44323SOL    HW234809  11.555   2.167  11.613
44324SOL     OW34810   1.438   4.092  11.947
44324SOL    HW134811   1.515   4.064  11.996
44324SOL    HW234812   1.467   4.171  11.901
44325SOL     OW34813  12.313   2.796  11.836
44325SOL    HW134814  12.326   2.706  11.807
44325SOL    HW234815  12.386   2.845  11.798
44326SOL     OW34816   2.053   5.183  11.185
44326SOL    HW134817   2.004   5.208  11.107
44326SOL    HW234818   2.008   5.105  11.218
44327SOL     OW34819   4.756   3.424   0.785
44327SOL    HW134820   4.795   3.453   0.703
44327SOL    HW234821   4.811   3.464   0.853
44328SOL     OW34822   2.386  13.674  14.183
44328SOL    HW134823   2.373  13.690  14.276
44328SOL    HW234824   2.298  13.669  14.146
44329SOL     OW34825  10.003  10.659   3.501
44329SOL    HW134826  10.049  10.585   3.541
44329SOL    HW234827   9.920  10.664   3.549
44330SOL     OW34828  14.164   5.764  14.751
44330SOL    HW134829  14.115   5.695  14.796
44330SOL    HW234830  14.243   5.776  14.803
44331SOL     OW34831  12.554   1.358   5.420
44331SOL    HW134832  12.648   1.361   5.400
44331SOL    HW234833  12.550   1.369   5.515
44332SOL     OW34834   3.986   7.768   4.619
44332SOL    HW134835   3.953   7.784   4.530
44332SOL    HW234836   3.987   7.673   4.628
44333SOL     OW34837   6.624   9.349  14.290
44333SOL    HW134838   6.598   9.256  14.293
44333SOL    HW234839   6.581   9.388  14.367
44334SOL     OW34840   4.559   2.390   2.872
44334SOL    HW134841   4.615   2.366   2.798
44334SOL    HW234842   4.481   2.336   2.861
44335SOL     OW34843   6.819   1.389   6.643
44335SOL    HW134844   6.762   1.330   6.693
44335SOL    HW234845   6.784   1.385   6.554
44336SOL     OW34846   7.695   4.369   9.380
44336SOL    HW134847   7.601   4.348   9.385
44336SOL    HW234848   7.715   4.408   9.465
44337SOL     OW34849   0.950   3.223   8.119
44337SOL    HW134850   0.919   3.141   8.158
44337SOL    HW234851   1.045   3.213   8.117
44338SOL     OW34852   6.411  12.857  14.338
44338SOL    HW134853   6.348  12.786  14.349
44338SOL    HW234854   6.386  12.922  14.404
44339SOL     OW34855   1.196   8.473  11.444
44339SOL    HW134856   1.197   8.483  11.539
44339SOL    HW234857   1.288   8.467  11.419
44340SOL     OW34858   5.383  10.907   2.813
44340SOL    HW134859   5.418  10.875   2.731
44340SOL    HW234860   5.389  10.833   2.873
44341SOL     OW34861   2.354   1.191  14.689
44341SOL    HW134862   2.443   1.159  14.703
44341SOL    HW234863   2.361   1.247  14.612
44342SOL     OW34864  10.631   7.107  12.307
44342SOL    HW134865  10.588   7.130  12.225
44342SOL    HW234866  10.594   7.167  12.371
44343SOL     OW34867   7.696   9.673   6.336
44343SOL    HW134868   7.698   9.633   6.249
44343SOL    HW234869   7.788   9.671   6.364
44344SOL     OW34870   0.441   0.211   6.611
44344SOL    HW134871   0.525   0.180   6.576
44344SOL    HW234872   0.427   0.296   6.570
44345SOL     OW34873   7.183  13.203   7.846
44345SOL    HW134874   7.241  13.268   7.809
44345SOL    HW234875   7.231  13.121   7.840
44346SOL     OW34876  11.350   6.016   5.612
44346SOL    HW134877  11.331   6.022   5.706
44346SOL    HW234878  11.428   6.071   5.600
44347SOL     OW34879  10.715   1.264   2.153
44347SOL    HW134880  10.795   1.274   2.101
44347SOL    HW234881  10.682   1.353   2.162
44348SOL     OW34882   2.309   3.883  11.183
44348SOL    HW134883   2.304   3.965  11.133
44348SOL    HW234884   2.382   3.835  11.144
44349SOL     OW34885  10.197   3.755  13.640
44349SOL    HW134886  10.241   3.670  13.652
44349SOL    HW234887  10.172   3.756  13.548
44350SOL     OW34888   7.343  11.190   4.423
44350SOL    HW134889   7.414  11.173   4.485
44350SOL    HW234890   7.265  11.155   4.466
44351SOL     OW34891   2.541  11.470   8.315
44351SOL    HW134892   2.566  11.382   8.341
44351SOL    HW234893   2.462  11.458   8.262
44352SOL     OW34894   2.516  10.766   2.823
44352SOL    HW134895   2.579  10.719   2.768
44352SOL    HW234896   2.498  10.847   2.774
44353SOL     OW34897  14.725  14.035  13.479
44353SOL    HW134898  14.796  13.975  13.456
44353SOL    HW234899  14.701  14.011  13.568
44354SOL     OW34900  11.338  11.903   5.436
44354SOL    HW134901  11.284  11.977   5.464
44354SOL    HW234902  11.421  11.914   5.483
44355SOL     OW34903   6.619   8.507   2.166
44355SOL    HW134904   6.543   8.538   2.215
44355SOL    HW234905   6.581   8.460   2.091
44356SOL     OW34906  14.768   1.190   2.643
44356SOL    HW134907  14.766   1.148   2.729
44356SOL    HW234908  14.745   1.120   2.581
44357SOL     OW34909   1.187  12.915  11.385
44357SOL    HW134910   1.161  13.007  11.387
44357SOL    HW234911   1.113  12.869  11.425
44358SOL     OW34912  11.105  13.925   2.034
44358SOL    HW134913  11.195  13.917   2.068
44358SOL    HW234914  11.109  13.998   1.973
44359SOL     OW34915  11.882   5.171   0.874
44359SOL    HW134916  11.884   5.265   0.891
44359SOL    HW234917  11.965   5.152   0.832
44360SOL     OW34918  13.265  14.556   6.990
44360SOL    HW134919  13.183  14.604   6.981
44360SOL    HW234920  13.331  14.623   7.006
44361SOL     OW34921   0.967   2.546  11.125
44361SOL    HW134922   0.886   2.496  11.128
44361SOL    HW234923   0.943   2.634  11.155
44362SOL     OW34924   1.909  11.924   4.434
44362SOL    HW134925   1.939  11.913   4.344
44362SOL    HW234926   1.982  11.894   4.488
44363SOL     OW34927   9.909  12.911   4.595
44363SOL    HW134928   9.940  12.999   4.576
44363SOL    HW234929   9.946  12.857   4.526
44364SOL     OW34930  14.302   5.161   0.592
44364SOL    HW134931  14.394   5.173   0.569
44364SOL    HW234932  14.275   5.083   0.544
44365SOL     OW34933   4.031   4.589   4.447
44365SOL    HW134934   3.979   4.535   4.388
44365SOL    HW234935   3.971   4.658   4.476
44366SOL     OW34936   3.465  13.223   8.672
44366SOL    HW134937   3.558  13.200   8.673
44366SOL    HW234938   3.425  13.157   8.616
44367SOL     OW34939  14.500   5.260   1.950
44367SOL    HW134940  14.589   5.276   1.918
44367SOL    HW234941  14.503   5.284   2.043
44368SOL     OW34942  10.937   4.840   4.279
44368SOL    HW134943  10.853   4.798   4.264
44368SOL    HW234944  10.963   4.874   4.194
44369SOL     OW34945   4.695  10.128   4.317
44369SOL    HW134946   4.703  10.063   4.247
44369SOL    HW234947   4.785  10.155   4.336
44370SOL     OW34948   4.264  11.102   1.762
44370SOL    HW134949   4.286  11.028   1.819
44370SOL    HW234950   4.276  11.068   1.674
44371SOL     OW34951   6.038  10.151   2.715
44371SOL    HW134952   6.041  10.172   2.809
44371SOL    HW234953   6.123  10.177   2.682
44372SOL     OW34954   6.780   8.224  12.432
44372SOL    HW134955   6.787   8.155  12.498
44372SOL    HW234956   6.836   8.194  12.360
44373SOL     OW34957   5.518  11.173   2.678
44373SOL    HW134958   5.575  11.108   2.719
44373SOL    HW234959   5.555  11.185   2.590
44374SOL     OW34960  14.450   4.768   1.212
44374SOL    HW134961  14.529   4.747   1.262
44374SOL    HW234962  14.431   4.689   1.163
44375SOL     OW34963   0.905  13.339   8.376
44375SOL    HW134964   0.859  13.316   8.295
44375SOL    HW234965   0.953  13.259   8.399
44376SOL     OW34966   9.427   8.840   5.630
44376SOL    HW134967   9.505   8.878   5.589
44376SOL    HW234968   9.355   8.894   5.598
44377SOL     OW34969   4.087   7.647  10.926
44377SOL    HW134970   4.134   7.630  11.008
44377SOL    HW234971   3.995   7.633  10.948
44378SOL     OW34972   4.507   7.500   6.304
44378SOL    HW134973   4.501   7.540   6.218
44378SOL    HW234974   4.580   7.438   6.297
44379SOL     OW34975  11.577  10.002   2.647
44379SOL    HW134976  11.607   9.956   2.724
44379SOL    HW234977  11.513  10.066   2.680
44380SOL     OW34978   1.525   3.274   1.220
44380SOL    HW134979   1.601   3.243   1.270
44380SOL    HW234980   1.531   3.370   1.226
44381SOL     OW34981   8.416   2.601  14.331
44381SOL    HW134982   8.491   2.542  14.331
44381SOL    HW234983   8.405   2.626  14.423
44382SOL     OW34984  11.082   8.149  10.583
44382SOL    HW134985  11.060   8.089  10.511
44382SOL    HW234986  11.177   8.142  10.591
44383SOL     OW34987   2.680   1.488   3.021
44383SOL    HW134988   2.746   1.423   2.998
44383SOL    HW234989   2.602   1.462   2.971
44384SOL     OW34990   2.928  11.081  13.399
44384SOL    HW134991   2.916  11.164  13.445
44384SOL    HW234992   2.853  11.075  13.339
44385SOL     OW34993   0.207  10.638  10.470
44385SOL    HW134994   0.187  10.724  10.431
44385SOL    HW234995   0.303  10.636  10.474
44386SOL     OW34996  11.785  13.647   8.934
44386SOL    HW134997  11.754  13.626   9.021
44386SOL    HW234998  11.841  13.724   8.946
44387SOL     OW34999  11.472   2.242   4.885
44387SOL    HW135000  11.383   2.222   4.912
44387SOL    HW235001  11.480   2.337   4.897
44388SOL     OW35002  14.819   7.892  12.436
44388SOL    HW135003  14.732   7.910  12.472
44388SOL    HW235004  14.823   7.797  12.427
44389SOL     OW35005   7.452   8.634   0.069
44389SOL    HW135006   7.477   8.714   0.023
44389SOL    HW235007   7.484   8.563   0.013
44390SOL     OW35008   9.218   7.984   3.038
44390SOL    HW135009   9.226   8.061   3.095
44390SOL    HW235010   9.142   8.004   2.983
44391SOL     OW35011  14.607   5.420   0.600
44391SOL    HW135012  14.636   5.506   0.630
44391SOL    HW235013  14.597   5.369   0.680
44392SOL     OW35014   2.501  10.086   1.883
44392SOL    HW135015   2.499  10.090   1.787
44392SOL    HW235016   2.594  10.100   1.905
44393SOL     OW35017  10.829   8.291   5.457
44393SOL    HW135018  10.771   8.353   5.500
44393SOL    HW235019  10.835   8.218   5.519
44394SOL     OW35020  13.638  12.640   3.741
44394SOL    HW135021  13.695  12.681   3.805
44394SOL    HW235022  13.555  12.627   3.786
44395SOL     OW35023   3.169   6.596  12.543
44395SOL    HW135024   3.126   6.525  12.591
44395SOL    HW235025   3.260   6.592  12.572
44396SOL     OW35026   7.995  10.349   8.622
44396SOL    HW135027   8.009  10.304   8.538
44396SOL    HW235028   8.070  10.323   8.675
44397SOL     OW35029  10.823  10.694   4.016
44397SOL    HW135030  10.887  10.681   3.946
44397SOL    HW235031  10.739  10.693   3.971
44398SOL     OW35032   4.455   0.262  10.052
44398SOL    HW135033   4.453   0.201   9.979
44398SOL    HW235034   4.454   0.207  10.130
44399SOL     OW35035  11.432   2.160  14.522
44399SOL    HW135036  11.432   2.148  14.427
44399SOL    HW235037  11.373   2.234  14.537
44400SOL     OW35038   9.570   8.740  13.957
44400SOL    HW135039   9.567   8.651  13.922
44400SOL    HW235040   9.663   8.757  13.972
44401SOL     OW35041  11.181   9.434   9.636
44401SOL    HW135042  11.253   9.495   9.653
44401SOL    HW235043  11.183   9.421   9.541
44402SOL     OW35044   0.583  11.383  14.176
44402SOL    HW135045   0.587  11.479  14.176
44402SOL    HW235046   0.640  11.357  14.103
44403SOL     OW35047  14.642   8.233   3.958
44403SOL    HW135048  14.582   8.235   4.032
44403SOL    HW235049  14.587   8.210   3.883
44404SOL     OW35050   6.611   6.298  14.250
44404SOL    HW135051   6.673   6.360  14.211
44404SOL    HW235052   6.604   6.325  14.342
44405SOL     OW35053  12.504   9.326   4.616
44405SOL    HW135054  12.586   9.279   4.628
44405SOL    HW235055  12.438   9.270   4.656
44406SOL     OW35056  14.538   5.241   5.175
44406SOL    HW135057  14.475   5.174   5.204
44406SOL    HW235058  14.616   5.224   5.227
44407SOL     OW35059   0.097  12.843   2.009
44407SOL    HW135060   0.026  12.791   1.970
44407SOL    HW235061   0.154  12.778   2.050
44408SOL     OW35062  12.266   8.781  10.576
44408SOL    HW135063  12.330   8.729  10.624
44408SOL    HW235064  12.221   8.832  10.643
44409SOL     OW35065   4.716   3.341  12.097
44409SOL    HW135066   4.697   3.283  12.171
44409SOL    HW235067   4.801   3.380  12.119
44410SOL     OW35068   7.979   5.176  11.138
44410SOL    HW135069   7.919   5.105  11.113
44410SOL    HW235070   8.048   5.133  11.188
44411SOL     OW35071   8.636   9.006  12.157
44411SOL    HW135072   8.566   8.941  12.153
44411SOL    HW235073   8.612   9.070  12.090
44412SOL     OW35074   7.880   0.440   9.573
44412SOL    HW135075   7.921   0.453   9.487
44412SOL    HW235076   7.805   0.501   9.574
44413SOL     OW35077   7.522  14.843   5.055
44413SOL    HW135078   7.524  14.778   5.125
44413SOL    HW235079   7.487  14.795   4.979
44414SOL     OW35080   5.769  12.883   4.278
44414SOL    HW135081   5.707  12.875   4.205
44414SOL    HW235082   5.848  12.920   4.238
44415SOL     OW35083   1.720  10.740  13.529
44415SOL    HW135084   1.669  10.658  13.536
44415SOL    HW235085   1.791  10.728  13.592
44416SOL     OW35086  10.714   5.051   3.126
44416SOL    HW135087  10.643   5.076   3.185
44416SOL    HW235088  10.696   4.960   3.104
44417SOL     OW35089   4.372  12.691  13.788
44417SOL    HW135090   4.378  12.602  13.753
44417SOL    HW235091   4.355  12.746  13.711
44418SOL     OW35092   4.672  11.248   0.532
44418SOL    HW135093   4.641  11.320   0.587
44418SOL    HW235094   4.767  11.261   0.526
44419SOL     OW35095   3.043  12.449  11.535
44419SOL    HW135096   2.966  12.458  11.478
44419SOL    HW235097   3.115  12.482  11.481
44420SOL     OW35098   5.248  11.822   6.237
44420SOL    HW135099   5.259  11.915   6.219
44420SOL    HW235100   5.270  11.779   6.154
44421SOL     OW35101  13.947  14.359   2.300
44421SOL    HW135102  13.883  14.417   2.259
44421SOL    HW235103  13.899  14.278   2.316
44422SOL     OW35104  14.094   7.300   3.895
44422SOL    HW135105  14.189   7.305   3.910
44422SOL    HW235106  14.080   7.353   3.816
44423SOL     OW35107  14.620  11.970   0.495
44423SOL    HW135108  14.623  11.881   0.462
44423SOL    HW235109  14.529  11.997   0.485
44424SOL     OW35110   8.081   6.088  12.027
44424SOL    HW135111   8.131   6.128  11.956
44424SOL    HW235112   8.002   6.054  11.985
44425SOL     OW35113  12.166   7.257   4.592
44425SOL    HW135114  12.153   7.336   4.643
44425SOL    HW235115  12.176   7.187   4.657
44426SOL     OW35116  12.210   9.375   3.792
44426SOL    HW135117  12.226   9.312   3.721
44426SOL    HW235118  12.170   9.450   3.748
44427SOL     OW35119   7.629  11.684  14.698
44427SOL    HW135120   7.590  11.720  14.619
44427SOL    HW235121   7.571  11.613  14.724
44428SOL     OW35122  13.698   4.743   5.918
44428SOL    HW135123  13.755   4.681   5.874
44428SOL    HW235124  13.619   4.746   5.863
44429SOL     OW35125  13.136   0.575   5.899
44429SOL    HW135126  13.142   0.587   5.804
44429SOL    HW235127  13.227   0.568   5.928
44430SOL     OW35128   6.490   2.986   5.063
44430SOL    HW135129   6.416   3.045   5.077
44430SOL    HW235130   6.465   2.934   4.987
44431SOL     OW35131   7.688   4.782   6.252
44431SOL    HW135132   7.749   4.856   6.251
44431SOL    HW235133   7.675   4.763   6.345
44432SOL     OW35134  10.745   0.068  10.765
44432SOL    HW135135  10.802   0.141  10.789
44432SOL    HW235136  10.695   0.050  10.845
44433SOL     OW35137   8.248   9.743  11.242
44433SOL    HW135138   8.190   9.770  11.171
44433SOL    HW235139   8.190   9.705  11.307
44434SOL     OW35140   7.997  11.621   4.628
44434SOL    HW135141   8.058  11.551   4.607
44434SOL    HW235142   8.026  11.695   4.575
44435SOL     OW35143   8.027  14.426  11.481
44435SOL    HW135144   8.021  14.521  11.489
44435SOL    HW235145   8.114  14.404  11.512
44436SOL     OW35146   8.445   3.516   8.129
44436SOL    HW135147   8.381   3.587   8.128
44436SOL    HW235148   8.414   3.456   8.198
44437SOL     OW35149  12.443  11.248  13.460
44437SOL    HW135150  12.349  11.259  13.452
44437SOL    HW235151  12.469  11.311  13.527
44438SOL     OW35152  11.012  13.048   7.215
44438SOL    HW135153  11.085  12.988   7.232
44438SOL    HW235154  10.997  13.042   7.121
44439SOL     OW35155  10.870   7.406   1.353
44439SOL    HW135156  10.797   7.361   1.311
44439SOL    HW235157  10.832   7.448   1.430
44440SOL     OW35158   7.782   0.300  12.029
44440SOL    HW135159   7.690   0.282  12.048
44440SOL    HW235160   7.814   0.346  12.106
44441SOL     OW35161   4.516  12.722   7.696
44441SOL    HW135162   4.554  12.753   7.614
44441SOL    HW235163   4.426  12.697   7.672
44442SOL     OW35164  13.545   3.675   8.804
44442SOL    HW135165  13.488   3.616   8.853
44442SOL    HW235166  13.533   3.760   8.846
44443SOL     OW35167   1.261   2.248   4.275
44443SOL    HW135168   1.218   2.327   4.242
44443SOL    HW235169   1.328   2.280   4.335
44444SOL     OW35170   7.070   9.192   2.037
44444SOL    HW135171   7.008   9.202   2.109
44444SOL    HW235172   7.051   9.267   1.980
44445SOL     OW35173  10.664   8.020  14.798
44445SOL    HW135174  10.601   7.959  14.760
44445SOL    HW235175  10.749   7.992  14.763
44446SOL     OW35176   1.365   0.400   1.427
44446SOL    HW135177   1.317   0.413   1.345
44446SOL    HW235178   1.303   0.426   1.495
44447SOL     OW35179   5.902   4.676  10.706
44447SOL    HW135180   5.828   4.715  10.659
44447SOL    HW235181   5.967   4.746  10.710
44448SOL     OW35182   4.765   3.480   9.030
44448SOL    HW135183   4.845   3.532   9.024
44448SOL    HW235184   4.781   3.404   8.974
44449SOL     OW35185   2.704  10.226  12.737
44449SOL    HW135186   2.799  10.223  12.748
44449SOL    HW235187   2.691  10.240  12.643
44450SOL     OW35188  10.853  13.749  13.399
44450SOL    HW135189  10.846  13.745  13.495
44450SOL    HW235190  10.795  13.680  13.368
44451SOL     OW35191   9.419  11.781  12.752
44451SOL    HW135192   9.480  11.785  12.826
44451SOL    HW235193   9.395  11.688  12.746
44452SOL     OW35194   7.577   6.557   2.615
44452SOL    HW135195   7.581   6.542   2.710
44452SOL    HW235196   7.644   6.499   2.580
44453SOL     OW35197  13.491   7.082   5.175
44453SOL    HW135198  13.552   7.015   5.146
44453SOL    HW235199  13.536   7.165   5.155
44454SOL     OW35200   5.337  11.555   3.555
44454SOL    HW135201   5.350  11.643   3.588
44454SOL    HW235202   5.322  11.502   3.633
44455SOL     OW35203   5.920  11.130  13.527
44455SOL    HW135204   5.997  11.153  13.475
44455SOL    HW235205   5.910  11.202  13.589
44456SOL     OW35206   9.397   1.305  10.320
44456SOL    HW135207   9.409   1.225  10.268
44456SOL    HW235208   9.388   1.273  10.411
44457SOL     OW35209   7.380  14.466  12.120
44457SOL    HW135210   7.306  14.460  12.059
44457SOL    HW235211   7.385  14.559  12.142
44458SOL     OW35212   4.713   1.386   5.675
44458SOL    HW135213   4.728   1.478   5.695
44458SOL    HW235214   4.775   1.366   5.605
44459SOL     OW35215   2.011   6.633   7.587
44459SOL    HW135216   1.924   6.646   7.549
44459SOL    HW235217   1.998   6.646   7.681
44460SOL     OW35218   4.587  13.711  12.991
44460SOL    HW135219   4.599  13.783  12.929
44460SOL    HW235220   4.586  13.752  13.077
44461SOL     OW35221   2.028   7.303   7.271
44461SOL    HW135222   2.030   7.211   7.243
44461SOL    HW235223   1.937   7.318   7.297
44462SOL     OW35224   0.185  11.539  12.465
44462SOL    HW135225   0.196  11.618  12.518
44462SOL    HW235226   0.122  11.486  12.515
44463SOL     OW35227   5.372   1.616   6.100
44463SOL    HW135228   5.427   1.593   6.025
44463SOL    HW235229   5.364   1.535   6.150
44464SOL     OW35230  13.713  11.962  13.963
44464SOL    HW135231  13.801  11.968  14.000
44464SOL    HW235232  13.698  12.048  13.922
44465SOL     OW35233   3.608  12.139  11.340
44465SOL    HW135234   3.550  12.109  11.410
44465SOL    HW235235   3.696  12.116  11.370
44466SOL     OW35236  12.743   1.312  11.722
44466SOL    HW135237  12.797   1.234  11.735
44466SOL    HW235238  12.716   1.308  11.631
44467SOL     OW35239   7.777  10.585   4.469
44467SOL    HW135240   7.747  10.646   4.536
44467SOL    HW235241   7.774  10.636   4.388
44468SOL     OW35242  12.866  14.096   2.195
44468SOL    HW135243  12.814  14.141   2.262
44468SOL    HW235244  12.919  14.034   2.244
44469SOL     OW35245   3.204   3.969   8.686
44469SOL    HW135246   3.191   3.875   8.674
44469SOL    HW235247   3.272   3.976   8.752
44470SOL     OW35248  14.636   1.554  12.009
44470SOL    HW135249  14.617   1.470  11.969
44470SOL    HW235250  14.705   1.536  12.073
44471SOL     OW35251  10.690   4.647   8.129
44471SOL    HW135252  10.661   4.592   8.057
44471SOL    HW235253  10.641   4.729   8.119
44472SOL     OW35254  11.197   9.712  14.317
44472SOL    HW135255  11.278   9.666  14.339
44472SOL    HW235256  11.222   9.774  14.249
44473SOL     OW35257   1.194   8.165   6.825
44473SOL    HW135258   1.262   8.112   6.785
44473SOL    HW235259   1.163   8.221   6.754
44474SOL     OW35260   4.884   6.188  11.938
44474SOL    HW135261   4.829   6.117  11.972
44474SOL    HW235262   4.869   6.186  11.843
44475SOL     OW35263  14.533  10.869  11.538
44475SOL    HW135264  14.571  10.845  11.622
44475SOL    HW235265  14.441  10.842  11.544
44476SOL     OW35266   0.739   9.340   9.952
44476SOL    HW135267   0.777   9.333  10.040
44476SOL    HW235268   0.709   9.252   9.933
44477SOL     OW35269  11.684  12.811  14.749
44477SOL    HW135270  11.660  12.789  14.839
44477SOL    HW235271  11.608  12.784  14.697
44478SOL     OW35272   4.330   4.157  14.573
44478SOL    HW135273   4.296   4.068  14.565
44478SOL    HW235274   4.287   4.205  14.502
44479SOL     OW35275  11.086   4.070   2.003
44479SOL    HW135276  11.082   3.978   2.028
44479SOL    HW235277  11.177   4.095   2.017
44480SOL     OW35278   8.718  13.743   2.982
44480SOL    HW135279   8.699  13.654   2.951
44480SOL    HW235280   8.658  13.799   2.932
44481SOL     OW35281  10.128   9.890   9.827
44481SOL    HW135282  10.176   9.932   9.898
44481SOL    HW235283  10.045   9.938   9.823
44482SOL     OW35284   6.063   8.380   7.901
44482SOL    HW135285   6.004   8.448   7.934
44482SOL    HW235286   6.012   8.299   7.907
44483SOL     OW35287  13.697   3.823  11.743
44483SOL    HW135288  13.714   3.730  11.729
44483SOL    HW235289  13.738   3.843  11.828
44484SOL     OW35290  10.930   2.252   8.500
44484SOL    HW135291  10.911   2.320   8.435
44484SOL    HW235292  10.847   2.240   8.546
44485SOL     OW35293   2.410  14.314   5.255
44485SOL    HW135294   2.473  14.278   5.193
44485SOL    HW235295   2.416  14.258   5.332
44486SOL     OW35296  10.934   5.394  12.995
44486SOL    HW135297  11.017   5.434  12.971
44486SOL    HW235298  10.934   5.309  12.950
44487SOL     OW35299   8.653   4.512   4.955
44487SOL    HW135300   8.667   4.594   5.001
44487SOL    HW235301   8.672   4.531   4.864
44488SOL     OW35302   5.031  13.603  13.930
44488SOL    HW135303   5.016  13.578  14.021
44488SOL    HW235304   5.120  13.576  13.912
44489SOL     OW35305   1.792  13.483   5.201
44489SOL    HW135306   1.857  13.510   5.265
44489SOL    HW235307   1.735  13.422   5.248
44490SOL     OW35308   8.557   4.338  14.179
44490SOL    HW135309   8.541   4.275  14.249
44490SOL    HW235310   8.557   4.286  14.099
44491SOL     OW35311   1.602   2.436   9.124
44491SOL    HW135312   1.523   2.485   9.098
44491SOL    HW235313   1.639   2.487   9.196
44492SOL     OW35314   1.212  12.672  12.688
44492SOL    HW135315   1.207  12.726  12.609
44492SOL    HW235316   1.207  12.582  12.656
44493SOL     OW35317   9.964   3.895   9.136
44493SOL    HW135318   9.902   3.923   9.068
44493SOL    HW235319  10.023   3.834   9.091
44494SOL     OW35320   0.648  13.135   6.366
44494SOL    HW135321   0.703  13.087   6.304
44494SOL    HW235322   0.564  13.144   6.322
44495SOL     OW35323   0.084   7.246   3.606
44495SOL    HW135324  14.873   7.273   3.644
44495SOL    HW235325   0.128   7.199   3.676
44496SOL     OW35326   8.675  13.508   5.947
44496SOL    HW135327   8.668  13.473   6.035
44496SOL    HW235328   8.730  13.585   5.955
44497SOL     OW35329  10.237   9.449   7.782
44497SOL    HW135330  10.326   9.451   7.815
44497SOL    HW235331  10.206   9.361   7.803
44498SOL     OW35332   1.745   0.944   9.056
44498SOL    HW135333   1.836   0.914   9.056
44498SOL    HW235334   1.742   1.011   9.125
44499SOL     OW35335  12.353  12.464   3.508
44499SOL    HW135336  12.342  12.405   3.583
44499SOL    HW235337  12.423  12.524   3.534
44500SOL     OW35338   3.536   7.007  14.062
44500SOL    HW135339   3.476   6.993  13.988
44500SOL    HW235340   3.530   6.926  14.113
44501SOL     OW35341   5.209  12.366   3.207
44501SOL    HW135342   5.267  12.438   3.181
44501SOL    HW235343   5.258  12.318   3.273
44502SOL     OW35344   4.629  12.540   8.679
44502SOL    HW135345   4.716  12.538   8.720
44502SOL    HW235346   4.568  12.530   8.753
44503SOL     OW35347  13.451   8.228  10.619
44503SOL    HW135348  13.545   8.230  10.603
44503SOL    HW235349  13.443   8.217  10.714
44504SOL     OW35350   5.889  10.551   4.069
44504SOL    HW135351   5.872  10.572   4.161
44504SOL    HW235352   5.822  10.600   4.021
44505SOL     OW35353   6.752  11.503   9.516
44505SOL    HW135354   6.723  11.472   9.430
44505SOL    HW235355   6.807  11.579   9.497
44506SOL     OW35356  11.473   7.316  14.873
44506SOL    HW135357  11.405   7.267  14.827
44506SOL    HW235358  11.429   7.350   0.078
44507SOL     OW35359   4.010  10.695   4.316
44507SOL    HW135360   3.965  10.633   4.373
44507SOL    HW235361   3.942  10.726   4.255
44508SOL     OW35362   5.452   6.262   7.749
44508SOL    HW135363   5.454   6.345   7.701
44508SOL    HW235364   5.381   6.272   7.812
44509SOL     OW35365   7.840   0.323   5.883
44509SOL    HW135366   7.888   0.276   5.815
44509SOL    HW235367   7.764   0.359   5.837
44510SOL     OW35368   0.112  14.111   2.348
44510SOL    HW135369   0.179  14.173   2.379
44510SOL    HW235370   0.146  14.079   2.265
44511SOL     OW35371  10.775   6.371   4.159
44511SOL    HW135372  10.698   6.406   4.204
44511SOL    HW235373  10.841   6.364   4.228
44512SOL     OW35374  14.031   2.854   2.470
44512SOL    HW135375  14.030   2.917   2.398
44512SOL    HW235376  14.063   2.773   2.431
44513SOL     OW35377   1.736   2.315   5.639
44513SOL    HW135378   1.681   2.284   5.566
44513SOL    HW235379   1.801   2.371   5.598
44514SOL     OW35380  11.198   4.836   1.741
44514SOL    HW135381  11.198   4.752   1.787
44514SOL    HW235382  11.285   4.873   1.758
44515SOL     OW35383   9.860   6.359   8.729
44515SOL    HW135384   9.858   6.370   8.634
44515SOL    HW235385   9.808   6.432   8.763
44516SOL     OW35386   7.315  10.783  14.728
44516SOL    HW135387   7.381  10.747  14.669
44516SOL    HW235388   7.249  10.715  14.736
44517SOL     OW35389   0.454  13.347   3.407
44517SOL    HW135390   0.519  13.417   3.411
44517SOL    HW235391   0.408  13.361   3.325
44518SOL     OW35392  13.686  13.640  13.436
44518SOL    HW135393  13.740  13.614  13.361
44518SOL    HW235394  13.598  13.649  13.399
44519SOL     OW35395   2.479   1.799  14.539
44519SOL    HW135396   2.567   1.764  14.529
44519SOL    HW235397   2.482   1.850  14.620
44520SOL     OW35398   0.057   0.209   8.791
44520SOL    HW135399   0.012   0.293   8.796
44520SOL    HW235400   0.121   0.213   8.862
44521SOL     OW35401  12.193   5.134   4.917
44521SOL    HW135402  12.153   5.145   5.004
44521SOL    HW235403  12.240   5.051   4.923
44522SOL     OW35404   0.304   7.177   2.629
44522SOL    HW135405   0.359   7.180   2.550
44522SOL    HW235406   0.367   7.172   2.701
44523SOL     OW35407   3.327   5.858   0.803
44523SOL    HW135408   3.410   5.840   0.847
44523SOL    HW235409   3.331   5.806   0.723
44524SOL     OW35410   1.350   2.191  11.247
44524SOL    HW135411   1.292   2.124  11.282
44524SOL    HW235412   1.425   2.191  11.307
44525SOL     OW35413   2.882   2.212  11.788
44525SOL    HW135414   2.823   2.286  11.776
44525SOL    HW235415   2.968   2.245  11.760
44526SOL     OW35416   1.840   1.614   1.476
44526SOL    HW135417   1.885   1.583   1.398
44526SOL    HW235418   1.898   1.681   1.512
44527SOL     OW35419   5.879  12.923   3.871
44527SOL    HW135420   5.957  12.934   3.815
44527SOL    HW235421   5.843  12.838   3.846
44528SOL     OW35422   4.331  14.623   1.836
44528SOL    HW135423   4.407  14.677   1.858
44528SOL    HW235424   4.342  14.605   1.742
44529SOL     OW35425   8.514   3.523   7.814
44529SOL    HW135426   8.601   3.522   7.856
44529SOL    HW235427   8.461   3.465   7.868
44530SOL     OW35428  10.596   6.023   6.374
44530SOL    HW135429  10.533   6.095   6.381
44530SOL    HW235430  10.543   5.944   6.387
44531SOL     OW35431   0.596   3.545   2.441
44531SOL    HW135432   0.501   3.558   2.446
44531SOL    HW235433   0.630   3.590   2.518
44532SOL     OW35434   7.277  11.531   0.033
44532SOL    HW135435   7.325  11.525  14.824
44532SOL    HW235436   7.217  11.456   0.032
44533SOL     OW35437   7.064   4.738   5.016
44533SOL    HW135438   7.080   4.714   4.925
44533SOL    HW235439   7.149   4.731   5.058
44534SOL     OW35440   2.668   1.083  13.969
44534SOL    HW135441   2.748   1.133  13.981
44534SOL    HW235442   2.680   1.037  13.886
44535SOL     OW35443  14.401   3.324  13.068
44535SOL    HW135444  14.348   3.343  12.991
44535SOL    HW235445  14.339   3.324  13.141
44536SOL     OW35446   8.379  14.374   4.868
44536SOL    HW135447   8.467  14.365   4.831
44536SOL    HW235448   8.338  14.444   4.816
44537SOL     OW35449  12.119   3.876   6.513
44537SOL    HW135450  12.199   3.847   6.557
44537SOL    HW235451  12.136   3.858   6.420
44538SOL     OW35452  13.146   0.973   3.390
44538SOL    HW135453  13.207   0.904   3.364
44538SOL    HW235454  13.064   0.927   3.408
44539SOL     OW35455   7.106   8.866   7.791
44539SOL    HW135456   7.058   8.943   7.821
44539SOL    HW235457   7.189   8.869   7.838
44540SOL     OW35458  11.631  11.033  11.278
44540SOL    HW135459  11.720  11.006  11.301
44540SOL    HW235460  11.577  10.999  11.349
44541SOL     OW35461   7.381   4.479   8.532
44541SOL    HW135462   7.439   4.465   8.457
44541SOL    HW235463   7.301   4.431   8.509
44542SOL     OW35464  14.294  13.510   4.226
44542SOL    HW135465  14.248  13.583   4.269
44542SOL    HW235466  14.364  13.552   4.176
44543SOL     OW35467  11.347   6.530  13.901
44543SOL    HW135468  11.382   6.441  13.910
44543SOL    HW235469  11.420   6.580  13.863
44544SOL     OW35470  14.409   8.875   1.491
44544SOL    HW135471  14.322   8.861   1.529
44544SOL    HW235472  14.400   8.957   1.442
44545SOL     OW35473   6.810   2.768   9.324
44545SOL    HW135474   6.856   2.782   9.240
44545SOL    HW235475   6.872   2.717   9.376
44546SOL     OW35476  13.469   3.045   7.139
44546SOL    HW135477  13.477   2.949   7.138
44546SOL    HW235478  13.461   3.069   7.047
44547SOL     OW35479   6.944   5.281   4.541
44547SOL    HW135480   6.928   5.242   4.626
44547SOL    HW235481   6.941   5.375   4.556
44548SOL     OW35482   6.192  10.522  14.557
44548SOL    HW135483   6.136  10.579  14.504
44548SOL    HW235484   6.264  10.499  14.498
44549SOL     OW35485   0.472  10.798  10.717
44549SOL    HW135486   0.542  10.806  10.652
44549SOL    HW235487   0.407  10.863  10.690
44550SOL     OW35488   6.698  14.846   9.084
44550SOL    HW135489   6.613  14.813   9.113
44550SOL    HW235490   6.721  14.790   9.009
44551SOL     OW35491   7.554   8.656  10.829
44551SOL    HW135492   7.584   8.565  10.837
44551SOL    HW235493   7.634   8.706  10.812
44552SOL     OW35494  12.036   3.772  11.236
44552SOL    HW135495  12.114   3.777  11.182
44552SOL    HW235496  12.016   3.678  11.240
44553SOL     OW35497   1.341  12.664   6.492
44553SOL    HW135498   1.429  12.643   6.522
44553SOL    HW235499   1.329  12.756   6.515
44554SOL     OW35500  12.500   7.929   9.630
44554SOL    HW135501  12.423   7.874   9.619
44554SOL    HW235502  12.521   7.923   9.724
44555SOL     OW35503  11.635   1.726  11.049
44555SOL    HW135504  11.685   1.806  11.038
44555SOL    HW235505  11.693   1.656  11.017
44556SOL     OW35506  14.838  11.120  14.537
44556SOL    HW135507  14.760  11.147  14.488
44556SOL    HW235508   0.037  11.165  14.494
44557SOL     OW35509   6.572   4.204   4.621
44557SOL    HW135510   6.498   4.230   4.567
44557SOL    HW235511   6.533   4.159   4.696
44558SOL     OW35512   6.115  10.908   2.459
44558SOL    HW135513   6.077  10.941   2.540
44558SOL    HW235514   6.182  10.846   2.487
44559SOL     OW35515  12.271   7.342   7.742
44559SOL    HW135516  12.249   7.360   7.833
44559SOL    HW235517  12.302   7.251   7.742
44560SOL     OW35518   9.819  12.397   8.665
44560SOL    HW135519   9.901  12.432   8.699
44560SOL    HW235520   9.774  12.472   8.628
44561SOL     OW35521   0.864  10.213   2.773
44561SOL    HW135522   0.893  10.231   2.683
44561SOL    HW235523   0.855  10.118   2.777
44562SOL     OW35524  14.624   2.877  12.842
44562SOL    HW135525  14.674   2.867  12.923
44562SOL    HW235526  14.577   2.960  12.854
44563SOL     OW35527   3.500  11.375   5.554
44563SOL    HW135528   3.551  11.456   5.550
44563SOL    HW235529   3.499  11.353   5.647
44564SOL     OW35530   1.123  10.639   7.284
44564SOL    HW135531   1.038  10.679   7.304
44564SOL    HW235532   1.182  10.675   7.349
44565SOL     OW35533  10.532  12.194   8.621
44565SOL    HW135534  10.586  12.272   8.607
44565SOL    HW235535  10.444  12.228   8.635
44566SOL     OW35536   6.936   3.376  10.567
44566SOL    HW135537   6.937   3.285  10.538
44566SOL    HW235538   6.865   3.417  10.517
44567SOL     OW35539   8.247   2.881   7.583
44567SOL    HW135540   8.262   2.905   7.492
44567SOL    HW235541   8.152   2.872   7.591
44568SOL     OW35542  11.260   7.245   3.770
44568SOL    HW135543  11.270   7.161   3.816
44568SOL    HW235544  11.223   7.222   3.685
44569SOL     OW35545   9.678  11.256   4.262
44569SOL    HW135546   9.733  11.324   4.222
44569SOL    HW235547   9.701  11.176   4.215
44570SOL     OW35548  14.791   7.624   6.803
44570SOL    HW135549  14.809   7.649   6.893
44570SOL    HW235550  14.696   7.610   6.801
44571SOL     OW35551   5.076   8.476   6.016
44571SOL    HW135552   5.084   8.532   5.939
44571SOL    HW235553   5.036   8.395   5.983
44572SOL     OW35554   7.719  12.134  13.402
44572SOL    HW135555   7.655  12.063  13.396
44572SOL    HW235556   7.729  12.150  13.495
44573SOL     OW35557   4.377  13.598  10.105
44573SOL    HW135558   4.436  13.672  10.119
44573SOL    HW235559   4.434  13.528  10.073
44574SOL     OW35560  10.316   9.826  11.649
44574SOL    HW135561  10.339   9.733  11.650
44574SOL    HW235562  10.310   9.849  11.556
44575SOL     OW35563   7.019   6.022   1.067
44575SOL    HW135564   7.007   6.103   1.117
44575SOL    HW235565   7.095   6.040   1.011
44576SOL     OW35566   5.698  10.765   1.976
44576SOL    HW135567   5.622  10.739   1.925
44576SOL    HW235568   5.753  10.686   1.979
44577SOL     OW35569   8.920   9.650   1.893
44577SOL    HW135570   9.010   9.683   1.883
44577SOL    HW235571   8.889   9.638   1.803
44578SOL     OW35572   3.861  14.815   9.670
44578SOL    HW135573   3.820  14.855   9.594
44578SOL    HW235574   3.855  14.721   9.654
44579SOL     OW35575  13.983   2.466   3.612
44579SOL    HW135576  14.021   2.420   3.537
44579SOL    HW235577  14.023   2.423   3.688
44580SOL     OW35578   3.445   4.252   0.223
44580SOL    HW135579   3.492   4.259   0.306
44580SOL    HW235580   3.408   4.164   0.224
44581SOL     OW35581   8.201  12.870   0.145
44581SOL    HW135582   8.257  12.793   0.156
44581SOL    HW235583   8.259  12.944   0.166
44582SOL     OW35584   5.938   8.769   7.775
44582SOL    HW135585   6.027   8.805   7.775
44582SOL    HW235586   5.916   8.761   7.682
44583SOL     OW35587  13.626   6.842   0.327
44583SOL    HW135588  13.531   6.830   0.332
44583SOL    HW235589  13.641   6.927   0.369
44584SOL     OW35590   8.030  13.651  14.584
44584SOL    HW135591   7.953  13.666  14.638
44584SOL    HW235592   7.996  13.633  14.496
44585SOL     OW35593  14.272  11.434  13.809
44585SOL    HW135594  14.189  11.468  13.841
44585SOL    HW235595  14.285  11.479  13.725
44586SOL     OW35596  10.752   7.108   9.821
44586SOL    HW135597  10.783   7.116   9.731
44586SOL    HW235598  10.778   7.190   9.863
44587SOL     OW35599   1.762  12.213   9.136
44587SOL    HW135600   1.789  12.206   9.227
44587SOL    HW235601   1.842  12.197   9.086
44588SOL     OW35602  12.206  11.003  10.247
44588SOL    HW135603  12.139  11.051  10.198
44588SOL    HW235604  12.201  10.914  10.214
44589SOL     OW35605   4.865   5.059   8.860
44589SOL    HW135606   4.793   5.001   8.884
44589SOL    HW235607   4.829   5.147   8.867
44590SOL     OW35608   5.805   4.080   2.309
44590SOL    HW135609   5.744   4.014   2.275
44590SOL    HW235610   5.879   4.029   2.342
44591SOL     OW35611  13.553   1.568   6.819
44591SOL    HW135612  13.465   1.536   6.837
44591SOL    HW235613  13.540   1.639   6.756
44592SOL     OW35614   2.273   4.291   5.598
44592SOL    HW135615   2.350   4.236   5.605
44592SOL    HW235616   2.277   4.327   5.509
44593SOL     OW35617   6.630   3.240   7.928
44593SOL    HW135618   6.636   3.251   7.833
44593SOL    HW235619   6.561   3.300   7.955
44594SOL     OW35620   3.253   8.027   1.993
44594SOL    HW135621   3.201   7.957   1.954
44594SOL    HW235622   3.217   8.037   2.081
44595SOL     OW35623   1.340   9.798   3.651
44595SOL    HW135624   1.321   9.729   3.715
44595SOL    HW235625   1.433   9.819   3.665
44596SOL     OW35626   2.508   5.681   5.389
44596SOL    HW135627   2.536   5.638   5.308
44596SOL    HW235628   2.435   5.627   5.421
44597SOL     OW35629   4.168   3.125   4.942
44597SOL    HW135630   4.258   3.154   4.929
44597SOL    HW235631   4.174   3.030   4.953
44598SOL     OW35632  11.719  12.582   1.757
44598SOL    HW135633  11.718  12.638   1.680
44598SOL    HW235634  11.713  12.493   1.722
44599SOL     OW35635  10.053  10.880   5.021
44599SOL    HW135636  10.014  10.937   4.954
44599SOL    HW235637   9.978  10.852   5.074
44600SOL     OW35638   4.742   0.059  13.947
44600SOL    HW135639   4.708   0.002  13.878
44600SOL    HW235640   4.717   0.147  13.919
44601SOL     OW35641  10.062   5.163   6.269
44601SOL    HW135642  10.018   5.245   6.293
44601SOL    HW235643  10.064   5.112   6.350
44602SOL     OW35644   8.757  12.749   0.663
44602SOL    HW135645   8.803  12.672   0.629
44602SOL    HW235646   8.819  12.821   0.650
44603SOL     OW35647  11.348   4.957   3.973
44603SOL    HW135648  11.441   4.948   3.955
44603SOL    HW235649  11.323   5.038   3.928
44604SOL     OW35650   2.756  13.589   0.948
44604SOL    HW135651   2.785  13.568   0.860
44604SOL    HW235652   2.832  13.628   0.990
44605SOL     OW35653   3.353   9.859   7.828
44605SOL    HW135654   3.416   9.855   7.756
44605SOL    HW235655   3.291   9.928   7.801
44606SOL     OW35656  13.216   8.540   7.130
44606SOL    HW135657  13.124   8.534   7.104
44606SOL    HW235658  13.223   8.625   7.175
44607SOL     OW35659   1.330   3.214   9.809
44607SOL    HW135660   1.409   3.162   9.796
44607SOL    HW235661   1.323   3.223   9.904
44608SOL     OW35662   5.994   9.120   2.146
44608SOL    HW135663   6.057   9.184   2.115
44608SOL    HW235664   5.961   9.078   2.067
44609SOL     OW35665   4.965  14.347  10.862
44609SOL    HW135666   5.026  14.281  10.827
44609SOL    HW235667   4.894  14.296  10.901
44610SOL     OW35668   1.875   5.084   9.727
44610SOL    HW135669   1.860   5.065   9.820
44610SOL    HW235670   1.855   5.177   9.718
44611SOL     OW35671   8.906  13.306   0.360
44611SOL    HW135672   8.857  13.261   0.429
44611SOL    HW235673   8.965  13.240   0.326
44612SOL     OW35674   1.443   7.050  13.506
44612SOL    HW135675   1.471   6.997  13.581
44612SOL    HW235676   1.523   7.091  13.474
44613SOL     OW35677   2.450  11.700   1.168
44613SOL    HW135678   2.522  11.747   1.126
44613SOL    HW235679   2.378  11.705   1.104
44614SOL     OW35680   6.716  13.842  12.500
44614SOL    HW135681   6.643  13.902  12.482
44614SOL    HW235682   6.689  13.760  12.459
44615SOL     OW35683   5.790   0.220   7.756
44615SOL    HW135684   5.824   0.211   7.667
44615SOL    HW235685   5.843   0.291   7.794
44616SOL     OW35686   8.623  12.061   8.012
44616SOL    HW135687   8.702  12.109   8.036
44616SOL    HW235688   8.583  12.035   8.095
44617SOL     OW35689   6.819  14.470  10.210
44617SOL    HW135690   6.846  14.521  10.287
44617SOL    HW235691   6.800  14.535  10.143
44618SOL     OW35692   7.698   9.775   1.620
44618SOL    HW135693   7.616   9.782   1.570
44618SOL    HW235694   7.679   9.711   1.688
44619SOL     OW35695   5.184   5.295   1.515
44619SOL    HW135696   5.136   5.270   1.436
44619SOL    HW235697   5.118   5.336   1.571
44620SOL     OW35698  10.089   7.669  11.564
44620SOL    HW135699  10.161   7.724  11.532
44620SOL    HW235700  10.019   7.681  11.500
44621SOL     OW35701   9.165   7.708   4.756
44621SOL    HW135702   9.173   7.792   4.709
44621SOL    HW235703   9.239   7.708   4.817
44622SOL     OW35704   5.529   6.167  11.138
44622SOL    HW135705   5.517   6.152  11.044
44622SOL    HW235706   5.573   6.252  11.143
44623SOL     OW35707   7.925  14.817   2.004
44623SOL    HW135708   7.843  14.801   2.051
44623SOL    HW235709   7.993  14.806   2.070
44624SOL     OW35710   1.725   3.762  13.349
44624SOL    HW135711   1.806   3.748  13.398
44624SOL    HW235712   1.680   3.832  13.396
44625SOL     OW35713  13.293   5.679  10.117
44625SOL    HW135714  13.203   5.702  10.140
44625SOL    HW235715  13.308   5.595  10.161
44626SOL     OW35716   5.275  12.610   5.017
44626SOL    HW135717   5.317  12.626   4.933
44626SOL    HW235718   5.341  12.564   5.069
44627SOL     OW35719  10.923   7.911  12.344
44627SOL    HW135720  10.849   7.886  12.288
44627SOL    HW235721  10.912   8.006  12.355
44628SOL     OW35722   9.524   9.652   5.969
44628SOL    HW135723   9.593   9.642   6.035
44628SOL    HW235724   9.495   9.563   5.951
44629SOL     OW35725  11.732   4.462   1.398
44629SOL    HW135726  11.677   4.387   1.424
44629SOL    HW235727  11.792   4.474   1.471
44630SOL     OW35728  10.880   6.336   0.572
44630SOL    HW135729  10.858   6.428   0.556
44630SOL    HW235730  10.893   6.299   0.484
44631SOL     OW35731   4.494   5.591   9.058
44631SOL    HW135732   4.570   5.630   9.103
44631SOL    HW235733   4.507   5.614   8.966
44632SOL     OW35734   1.744  14.766  11.017
44632SOL    HW135735   1.722  14.673  11.008
44632SOL    HW235736   1.694  14.809  10.949
44633SOL     OW35737   4.081  11.260   2.527
44633SOL    HW135738   4.134  11.200   2.579
44633SOL    HW235739   4.113  11.248   2.437
44634SOL     OW35740   1.802  11.702   9.138
44634SOL    HW135741   1.740  11.748   9.194
44634SOL    HW235742   1.834  11.629   9.191
44635SOL     OW35743  14.576   4.196   9.503
44635SOL    HW135744  14.614   4.129   9.560
44635SOL    HW235745  14.608   4.279   9.540
44636SOL     OW35746  11.770  13.450   2.538
44636SOL    HW135747  11.795  13.446   2.446
44636SOL    HW235748  11.676  13.469   2.537
44637SOL     OW35749   8.473   0.507   1.753
44637SOL    HW135750   8.457   0.574   1.819
44637SOL    HW235751   8.537   0.448   1.794
44638SOL     OW35752  13.066   0.103   0.195
44638SOL    HW135753  12.979   0.066   0.211
44638SOL    HW235754  13.059   0.142   0.108
44639SOL     OW35755   5.342  13.127   1.888
44639SOL    HW135756   5.311  13.159   1.804
44639SOL    HW235757   5.310  13.191   1.952
44640SOL     OW35758   1.134  14.858   7.755
44640SOL    HW135759   1.139   0.075   7.787
44640SOL    HW235760   1.222  14.839   7.722
44641SOL     OW35761   3.560   6.141   3.213
44641SOL    HW135762   3.490   6.170   3.272
44641SOL    HW235763   3.631   6.114   3.271
44642SOL     OW35764  11.240   0.701  12.569
44642SOL    HW135765  11.160   0.735  12.529
44642SOL    HW235766  11.308   0.718  12.504
44643SOL     OW35767  10.484   8.843  14.868
44643SOL    HW135768  10.553   8.860   0.058
44643SOL    HW235769  10.407   8.886   0.032
44644SOL     OW35770  12.403   6.726   0.432
44644SOL    HW135771  12.471   6.791   0.446
44644SOL    HW235772  12.450   6.643   0.426
44645SOL     OW35773   7.042   8.504   6.906
44645SOL    HW135774   7.058   8.590   6.946
44645SOL    HW235775   7.085   8.442   6.965
44646SOL     OW35776  13.221  13.459   2.212
44646SOL    HW135777  13.210  13.549   2.181
44646SOL    HW235778  13.311  13.437   2.187
44647SOL     OW35779  10.659   0.232   6.962
44647SOL    HW135780  10.602   0.281   6.902
44647SOL    HW235781  10.746   0.237   6.923
44648SOL     OW35782   4.136   2.249  12.422
44648SOL    HW135783   4.071   2.308  12.384
44648SOL    HW235784   4.105   2.161  12.398
44649SOL     OW35785   6.623   2.111   2.395
44649SOL    HW135786   6.604   2.165   2.472
44649SOL    HW235787   6.537   2.086   2.361
44650SOL     OW35788   8.523   7.972   6.785
44650SOL    HW135789   8.481   8.055   6.808
44650SOL    HW235790   8.548   7.934   6.870
44651SOL     OW35791   8.978   5.664   6.416
44651SOL    HW135792   8.935   5.743   6.385
44651SOL    HW235793   9.018   5.690   6.499
44652SOL     OW35794  12.205  11.815   2.930
44652SOL    HW135795  12.257  11.770   2.997
44652SOL    HW235796  12.127  11.761   2.920
44653SOL     OW35797   3.521  12.028   6.249
44653SOL    HW135798   3.535  11.999   6.159
44653SOL    HW235799   3.428  12.013   6.265
44654SOL     OW35800   7.934   0.155   0.391
44654SOL    HW135801   7.848   0.120   0.369
44654SOL    HW235802   7.993   0.116   0.327
44655SOL     OW35803   0.438  10.990  11.399
44655SOL    HW135804   0.446  10.924  11.468
44655SOL    HW235805   0.351  10.976  11.362
44656SOL     OW35806  13.058   4.754   6.799
44656SOL    HW135807  13.105   4.789   6.723
44656SOL    HW235808  13.073   4.818   6.868
44657SOL     OW35809   3.861   1.878  10.891
44657SOL    HW135810   3.934   1.916  10.939
44657SOL    HW235811   3.897   1.857  10.805
44658SOL     OW35812   7.610   1.502  11.327
44658SOL    HW135813   7.519   1.478  11.313
44658SOL    HW235814   7.632   1.560  11.254
44659SOL     OW35815   4.476   7.348   5.237
44659SOL    HW135816   4.469   7.392   5.152
44659SOL    HW235817   4.570   7.348   5.257
44660SOL     OW35818   0.353   8.606   4.299
44660SOL    HW135819   0.279   8.601   4.238
44660SOL    HW235820   0.381   8.516   4.309
44661SOL     OW35821  12.697   5.323   5.747
44661SOL    HW135822  12.785   5.358   5.763
44661SOL    HW235823  12.639   5.398   5.760
44662SOL     OW35824   2.340   4.010  13.738
44662SOL    HW135825   2.305   4.016  13.648
44662SOL    HW235826   2.401   3.937  13.735
44663SOL     OW35827   3.298  13.699   4.860
44663SOL    HW135828   3.242  13.653   4.922
44663SOL    HW235829   3.356  13.752   4.915
44664SOL     OW35830   8.966   5.922  10.343
44664SOL    HW135831   8.959   5.922  10.438
44664SOL    HW235832   8.997   6.010  10.321
44665SOL     OW35833  11.746  11.182   9.710
44665SOL    HW135834  11.818  11.125   9.682
44665SOL    HW235835  11.765  11.201   9.802
44666SOL     OW35836   6.296   0.477  11.837
44666SOL    HW135837   6.321   0.561  11.875
44666SOL    HW235838   6.378   0.432  11.819
44667SOL     OW35839   2.212   2.681   5.133
44667SOL    HW135840   2.254   2.637   5.059
44667SOL    HW235841   2.284   2.726   5.178
44668SOL     OW35842   7.648   6.329   4.066
44668SOL    HW135843   7.594   6.258   4.029
44668SOL    HW235844   7.612   6.344   4.153
44669SOL     OW35845   8.083   4.793   9.871
44669SOL    HW135846   8.167   4.812   9.830
44669SOL    HW235847   8.076   4.856   9.943
44670SOL     OW35848   4.921   0.215  12.670
44670SOL    HW135849   4.946   0.268  12.594
44670SOL    HW235850   4.828   0.233  12.682
44671SOL     OW35851   7.338   5.055  11.984
44671SOL    HW135852   7.330   4.970  12.025
44671SOL    HW235853   7.423   5.052  11.940
44672SOL     OW35854   2.607   7.420  14.709
44672SOL    HW135855   2.651   7.349  14.756
44672SOL    HW235856   2.635   7.499  14.755
44673SOL     OW35857   5.820  13.872   8.374
44673SOL    HW135858   5.769  13.801   8.413
44673SOL    HW235859   5.850  13.837   8.290
44674SOL     OW35860  11.228   9.026   9.906
44674SOL    HW135861  11.264   9.067   9.985
44674SOL    HW235862  11.134   9.022   9.922
44675SOL     OW35863   5.904   2.967   1.873
44675SOL    HW135864   5.997   2.942   1.866
44675SOL    HW235865   5.857   2.894   1.834
44676SOL     OW35866  13.349  13.706  10.399
44676SOL    HW135867  13.406  13.751  10.462
44676SOL    HW235868  13.269  13.758  10.399
44677SOL     OW35869   9.472   0.414   6.519
44677SOL    HW135870   9.536   0.462   6.571
44677SOL    HW235871   9.521   0.385   6.441
44678SOL     OW35872  11.908   3.284  11.680
44678SOL    HW135873  11.971   3.316  11.615
44678SOL    HW235874  11.950   3.300  11.765
44679SOL     OW35875   7.126   3.526   6.054
44679SOL    HW135876   7.191   3.596   6.050
44679SOL    HW235877   7.041   3.572   6.056
44680SOL     OW35878   9.442   1.356   2.135
44680SOL    HW135879   9.494   1.407   2.073
44680SOL    HW235880   9.507   1.309   2.188
44681SOL     OW35881   3.140   2.276   5.073
44681SOL    HW135882   3.177   2.341   5.132
44681SOL    HW235883   3.209   2.210   5.062
44682SOL     OW35884   5.175   3.147   3.929
44682SOL    HW135885   5.127   3.167   3.848
44682SOL    HW235886   5.143   3.061   3.955
44683SOL     OW35887  10.545   8.176  11.838
44683SOL    HW135888  10.616   8.142  11.785
44683SOL    HW235889  10.532   8.266  11.807
44684SOL     OW35890   8.818   1.080  13.868
44684SOL    HW135891   8.765   1.000  13.879
44684SOL    HW235892   8.754   1.151  13.871
44685SOL     OW35893   7.299  11.822  11.920
44685SOL    HW135894   7.332  11.851  11.835
44685SOL    HW235895   7.347  11.741  11.938
44686SOL     OW35896   3.263  10.258  10.302
44686SOL    HW135897   3.254  10.333  10.361
44686SOL    HW235898   3.179  10.211  10.311
44687SOL     OW35899   0.017   0.116   2.385
44687SOL    HW135900   0.059   0.159   2.310
44687SOL    HW235901   0.089   0.090   2.441
44688SOL     OW35902  13.900  12.285  13.331
44688SOL    HW135903  13.897  12.316  13.241
44688SOL    HW235904  13.902  12.365  13.384
44689SOL     OW35905  12.937  14.666   4.320
44689SOL    HW135906  13.028  14.661   4.349
44689SOL    HW235907  12.942  14.710   4.235
44690SOL     OW35908  11.961   1.928   8.136
44690SOL    HW135909  12.007   2.007   8.111
44690SOL    HW235910  11.982   1.865   8.067
44691SOL     OW35911   5.027   2.666   5.941
44691SOL    HW135912   4.986   2.591   5.984
44691SOL    HW235913   5.014   2.739   6.001
44692SOL     OW35914  13.320  13.889   9.397
44692SOL    HW135915  13.323  13.920   9.306
44692SOL    HW235916  13.256  13.818   9.396
44693SOL     OW35917   5.489   3.025   7.794
44693SOL    HW135918   5.511   2.944   7.749
44693SOL    HW235919   5.494   3.003   7.887
44694SOL     OW35920   9.556   7.028   8.945
44694SOL    HW135921   9.500   7.101   8.921
44694SOL    HW235922   9.634   7.038   8.891
44695SOL     OW35923  13.407   1.281  10.595
44695SOL    HW135924  13.495   1.247  10.584
44695SOL    HW235925  13.417   1.376  10.598
44696SOL     OW35926   9.951  10.138   8.825
44696SOL    HW135927   9.974  10.230   8.814
44696SOL    HW235928   9.908  10.135   8.911
44697SOL     OW35929  12.088   5.578   6.732
44697SOL    HW135930  12.063   5.600   6.642
44697SOL    HW235931  12.074   5.660   6.781
44698SOL     OW35932   1.541  12.145  13.086
44698SOL    HW135933   1.467  12.086  13.096
44698SOL    HW235934   1.548  12.160  12.991
44699SOL     OW35935   3.241   5.476   3.249
44699SOL    HW135936   3.230   5.556   3.197
44699SOL    HW235937   3.191   5.493   3.329
44700SOL     OW35938   1.121  14.551  12.981
44700SOL    HW135939   1.165  14.632  12.957
44700SOL    HW235940   1.035  14.556  12.939
44701SOL     OW35941   2.693   0.621  12.485
44701SOL    HW135942   2.690   0.574  12.568
44701SOL    HW235943   2.779   0.600  12.448
44702SOL     OW35944   1.823  10.784   9.599
44702SOL    HW135945   1.782  10.699   9.611
44702SOL    HW235946   1.900  10.782   9.655
44703SOL     OW35947   8.207  12.592   1.929
44703SOL    HW135948   8.145  12.524   1.904
44703SOL    HW235949   8.258  12.608   1.850
44704SOL     OW35950  11.050   3.497  14.328
44704SOL    HW135951  11.099   3.506  14.246
44704SOL    HW235952  11.012   3.583  14.343
44705SOL     OW35953   4.206   0.861   6.800
44705SOL    HW135954   4.276   0.840   6.739
44705SOL    HW235955   4.240   0.834   6.885
44706SOL     OW35956   3.760  11.899   7.513
44706SOL    HW135957   3.822  11.950   7.461
44706SOL    HW235958   3.678  11.947   7.507
44707SOL     OW35959  12.591   3.046   8.864
44707SOL    HW135960  12.590   2.978   8.796
44707SOL    HW235961  12.529   3.111   8.833
44708SOL     OW35962   0.121   2.980   5.564
44708SOL    HW135963   0.070   2.935   5.630
44708SOL    HW235964   0.204   2.932   5.560
44709SOL     OW35965   5.415   9.634  14.115
44709SOL    HW135966   5.399   9.655  14.207
44709SOL    HW235967   5.506   9.602  14.113
44710SOL     OW35968   5.206  11.516   7.117
44710SOL    HW135969   5.241  11.527   7.028
44710SOL    HW235970   5.261  11.447   7.155
44711SOL     OW35971  11.283   3.741  12.016
44711SOL    HW135972  11.341   3.683  11.966
44711SOL    HW235973  11.327   3.754  12.099
44712SOL     OW35974   6.150  13.865  11.458
44712SOL    HW135975   6.221  13.917  11.419
44712SOL    HW235976   6.142  13.789  11.400
44713SOL     OW35977   2.190   3.481  12.523
44713SOL    HW135978   2.251   3.410  12.500
44713SOL    HW235979   2.164   3.462  12.613
44714SOL     OW35980   0.042  14.453   2.336
44714SOL    HW135981   0.062  14.473   2.245
44714SOL    HW235982   0.114  14.397   2.365
44715SOL     OW35983   0.966   0.049  13.819
44715SOL    HW135984   0.975   0.144  13.830
44715SOL    HW235985   0.872   0.035  13.809
44716SOL     OW35986   0.620   7.721   0.325
44716SOL    HW135987   0.545   7.735   0.268
44716SOL    HW235988   0.581   7.697   0.410
44717SOL     OW35989   4.953  13.825  10.684
44717SOL    HW135990   4.949  13.759  10.753
44717SOL    HW235991   4.966  13.775  10.604
44718SOL     OW35992   6.057   9.559   0.997
44718SOL    HW135993   6.120   9.566   1.068
44718SOL    HW235994   6.027   9.649   0.983
44719SOL     OW35995   0.752   9.641   8.537
44719SOL    HW135996   0.805   9.714   8.570
44719SOL    HW235997   0.662   9.665   8.560
44720SOL     OW35998   8.841   9.396   4.488
44720SOL    HW135999   8.896   9.334   4.535
44720SOL    HW236000   8.833   9.471   4.548
44721SOL     OW36001   2.170  11.313  13.338
44721SOL    HW136002   2.138  11.243  13.395
44721SOL    HW236003   2.103  11.381  13.344
44722SOL     OW36004   0.880   9.944   2.728
44722SOL    HW136005   0.799   9.919   2.684
44722SOL    HW236006   0.937   9.868   2.718
44723SOL     OW36007   1.284  11.482   9.941
44723SOL    HW136008   1.361  11.457   9.889
44723SOL    HW236009   1.251  11.561   9.898
44724SOL     OW36010  14.231  12.779   0.245
44724SOL    HW136011  14.233  12.785   0.150
44724SOL    HW236012  14.138  12.776   0.267
44725SOL     OW36013   8.816   4.256   6.079
44725SOL    HW136014   8.820   4.286   6.170
44725SOL    HW236015   8.752   4.185   6.080
44726SOL     OW36016   0.198   8.929  13.875
44726SOL    HW136017   0.272   8.975  13.835
44726SOL    HW236018   0.186   8.971  13.959
44727SOL     OW36019  10.542   7.114   7.906
44727SOL    HW136020  10.590   7.148   7.831
44727SOL    HW236021  10.450   7.114   7.877
44728SOL     OW36022   3.923  10.385   4.043
44728SOL    HW136023   3.890  10.357   3.958
44728SOL    HW236024   3.999  10.439   4.023
44729SOL     OW36025   4.013   9.924  10.546
44729SOL    HW136026   4.103   9.946  10.520
44729SOL    HW236027   4.023   9.876  10.628
44730SOL     OW36028  13.091   6.412  14.354
44730SOL    HW136029  13.066   6.348  14.422
44730SOL    HW236030  13.163   6.462  14.394
44731SOL     OW36031   0.932   7.542  11.974
44731SOL    HW136032   0.953   7.472  12.036
44731SOL    HW236033   0.896   7.497  11.898
44732SOL     OW36034  10.889   5.624   8.640
44732SOL    HW136035  10.861   5.581   8.720
44732SOL    HW236036  10.807   5.643   8.593
44733SOL     OW36037   5.235   4.169  11.917
44733SOL    HW136038   5.207   4.259  11.900
44733SOL    HW236039   5.207   4.121  11.839
44734SOL     OW36040   1.176  11.435   4.895
44734SOL    HW136041   1.101  11.486   4.928
44734SOL    HW236042   1.164  11.434   4.800
44735SOL     OW36043  12.218  11.624   3.422
44735SOL    HW136044  12.191  11.542   3.463
44735SOL    HW236045  12.139  11.655   3.377
44736SOL     OW36046   6.202   6.407   6.294
44736SOL    HW136047   6.203   6.448   6.207
44736SOL    HW236048   6.203   6.481   6.355
44737SOL     OW36049   8.991  13.891   3.223
44737SOL    HW136050   8.950  13.876   3.308
44737SOL    HW236051   8.937  13.842   3.161
44738SOL     OW36052  11.874  12.694  11.913
44738SOL    HW136053  11.899  12.786  11.911
44738SOL    HW236054  11.814  12.683  11.839
44739SOL     OW36055  13.864   2.747  13.693
44739SOL    HW136056  13.807   2.673  13.714
44739SOL    HW236057  13.931   2.746  13.761
44740SOL     OW36058  12.596   7.038   1.363
44740SOL    HW136059  12.505   7.012   1.348
44740SOL    HW236060  12.598   7.064   1.455
44741SOL     OW36061  10.436   3.348  14.259
44741SOL    HW136062  10.503   3.357  14.327
44741SOL    HW236063  10.458   3.266  14.214
44742SOL     OW36064   4.261  10.293  10.203
44742SOL    HW136065   4.335  10.339  10.164
44742SOL    HW236066   4.189  10.307  10.142
44743SOL     OW36067  10.945   6.502   1.913
44743SOL    HW136068  11.031   6.474   1.884
44743SOL    HW236069  10.944   6.482   2.007
44744SOL     OW36070  12.178  14.416  13.035
44744SOL    HW136071  12.153  14.387  13.123
44744SOL    HW236072  12.203  14.335  12.989
44745SOL     OW36073   4.376  11.818   2.857
44745SOL    HW136074   4.454  11.867   2.832
44745SOL    HW236075   4.375  11.821   2.953
44746SOL     OW36076   5.229  11.646   4.513
44746SOL    HW136077   5.209  11.740   4.514
44746SOL    HW236078   5.150  11.604   4.546
44747SOL     OW36079   5.572  13.783  12.135
44747SOL    HW136080   5.570  13.818  12.045
44747SOL    HW236081   5.491  13.817  12.175
44748SOL     OW36082  11.186   5.170  10.193
44748SOL    HW136083  11.202   5.259  10.162
44748SOL    HW236084  11.090   5.165  10.203
44749SOL     OW36085   7.636   8.634   7.289
44749SOL    HW136086   7.722   8.592   7.290
44749SOL    HW236087   7.579   8.571   7.334
44750SOL     OW36088   2.146  10.719   1.151
44750SOL    HW136089   2.175  10.795   1.202
44750SOL    HW236090   2.218  10.702   1.091
44751SOL     OW36091  11.636   9.075   2.922
44751SOL    HW136092  11.625   8.990   2.879
44751SOL    HW236093  11.601   9.062   3.010
44752SOL     OW36094   7.806  10.117   0.481
44752SOL    HW136095   7.832  10.181   0.547
44752SOL    HW236096   7.888  10.082   0.447
44753SOL     OW36097  12.829   3.566   7.998
44753SOL    HW136098  12.796   3.654   8.014
44753SOL    HW236099  12.754   3.509   8.010
44754SOL     OW36100  14.454   1.337   8.198
44754SOL    HW136101  14.493   1.268   8.252
44754SOL    HW236102  14.497   1.417   8.226
44755SOL     OW36103   5.364   1.006   7.156
44755SOL    HW136104   5.324   0.930   7.199
44755SOL    HW236105   5.357   0.989   7.063
44756SOL     OW36106  14.574   7.145   0.092
44756SOL    HW136107  14.478   7.149   0.088
44756SOL    HW236108  14.593   7.121   0.183
44757SOL     OW36109  12.325   2.957   9.643
44757SOL    HW136110  12.314   2.946   9.737
44757SOL    HW236111  12.290   3.045   9.625
44758SOL     OW36112   1.802  14.415   3.989
44758SOL    HW136113   1.872  14.425   4.054
44758SOL    HW236114   1.768  14.503   3.977
44759SOL     OW36115   8.864   5.351   1.232
44759SOL    HW136116   8.921   5.347   1.155
44759SOL    HW236117   8.919   5.321   1.304
44760SOL     OW36118   2.870   0.783   0.020
44760SOL    HW136119   2.950   0.743   0.053
44760SOL    HW236120   2.898   0.870  14.863
44761SOL     OW36121  13.207   7.160   6.955
44761SOL    HW136122  13.169   7.235   7.001
44761SOL    HW236123  13.161   7.085   6.990
44762SOL     OW36124   3.456   7.405  10.879
44762SOL    HW136125   3.471   7.369  10.966
44762SOL    HW236126   3.514   7.356  10.822
44763SOL     OW36127  13.039   6.374  13.281
44763SOL    HW136128  13.025   6.291  13.235
44763SOL    HW236129  12.998   6.439  13.224
44764SOL     OW36130   5.244   2.543   5.795
44764SOL    HW136131   5.203   2.498   5.721
44764SOL    HW236132   5.177   2.604   5.826
44765SOL     OW36133  12.417   4.933   4.948
44765SOL    HW136134  12.451   4.900   5.031
44765SOL    HW236135  12.423   4.858   4.889
44766SOL     OW36136   0.596  11.846  11.793
44766SOL    HW136137   0.652  11.848  11.872
44766SOL    HW236138   0.507  11.850  11.827
44767SOL     OW36139   2.656   5.902  14.790
44767SOL    HW136140   2.619   5.983  14.755
44767SOL    HW236141   2.603   5.882  14.867
44768SOL     OW36142   4.554  14.847  14.812
44768SOL    HW136143   4.515   0.059  14.795
44768SOL    HW236144   4.648  14.864  14.816
44769SOL     OW36145  13.020   3.364   8.648
44769SOL    HW136146  13.053   3.287   8.602
44769SOL    HW236147  12.940   3.334   8.690
44770SOL     OW36148  10.449   6.084  12.277
44770SOL    HW136149  10.433   6.120  12.364
44770SOL    HW236150  10.406   6.145  12.217
44771SOL     OW36151  10.896   5.622   2.599
44771SOL    HW136152  10.835   5.629   2.525
44771SOL    HW236153  10.940   5.707   2.601
44772SOL     OW36154   1.579   0.809   3.851
44772SOL    HW136155   1.535   0.894   3.852
44772SOL    HW236156   1.601   0.793   3.943
44773SOL     OW36157  13.492   7.324   3.192
44773SOL    HW136158  13.463   7.414   3.207
44773SOL    HW236159  13.443   7.295   3.116
44774SOL     OW36160   1.945   3.856  13.815
44774SOL    HW136161   1.967   3.773  13.773
44774SOL    HW236162   1.894   3.832  13.892
44775SOL     OW36163  13.218   1.998  14.715
44775SOL    HW136164  13.191   2.040  14.798
44775SOL    HW236165  13.264   2.067  14.668
44776SOL     OW36166  12.065   2.268   0.002
44776SOL    HW136167  12.075   2.361  14.855
44776SOL    HW236168  12.137   2.249   0.063
44777SOL     OW36169   5.773   8.948   7.928
44777SOL    HW136170   5.764   8.945   8.023
44777SOL    HW236171   5.841   8.884   7.909
44778SOL     OW36172  14.557   0.728   2.449
44778SOL    HW136173  14.533   0.673   2.375
44778SOL    HW236174  14.533   0.677   2.526
44779SOL     OW36175   2.897   5.405   0.244
44779SOL    HW136176   2.939   5.324   0.272
44779SOL    HW236177   2.970   5.461   0.215
44780SOL     OW36178   7.714   0.994   7.540
44780SOL    HW136179   7.780   0.997   7.470
44780SOL    HW236180   7.668   0.911   7.526
44781SOL     OW36181   2.586   8.219   7.224
44781SOL    HW136182   2.565   8.187   7.312
44781SOL    HW236183   2.679   8.200   7.214
44782SOL     OW36184  11.061   5.698   7.254
44782SOL    HW136185  11.093   5.702   7.164
44782SOL    HW236186  10.997   5.626   7.254
44783SOL     OW36187  10.915   6.376   4.983
44783SOL    HW136188  10.857   6.332   4.921
44783SOL    HW236189  10.906   6.469   4.962
44784SOL     OW36190   4.519   6.225  12.597
44784SOL    HW136191   4.598   6.244  12.647
44784SOL    HW236192   4.508   6.130  12.605
44785SOL     OW36193   8.639   9.184   5.358
44785SOL    HW136194   8.734   9.196   5.358
44785SOL    HW236195   8.608   9.236   5.432
44786SOL     OW36196  11.405   1.207  12.139
44786SOL    HW136197  11.495   1.212  12.108
44786SOL    HW236198  11.375   1.298  12.139
44787SOL     OW36199   3.585  12.046   1.492
44787SOL    HW136200   3.593  11.955   1.520
44787SOL    HW236201   3.491  12.063   1.490
44788SOL     OW36202   9.530   4.223   7.412
44788SOL    HW136203   9.537   4.191   7.502
44788SOL    HW236204   9.439   4.253   7.404
44789SOL     OW36205   6.629   7.306   4.670
44789SOL    HW136206   6.586   7.333   4.589
44789SOL    HW236207   6.602   7.215   4.682
44790SOL     OW36208  12.573   6.225   0.347
44790SOL    HW136209  12.637   6.232   0.276
44790SOL    HW236210  12.545   6.133   0.344
44791SOL     OW36211  11.344  10.069  12.264
44791SOL    HW136212  11.417  10.122  12.298
44791SOL    HW236213  11.281  10.134  12.232
44792SOL     OW36214   5.468   6.721   9.600
44792SOL    HW136215   5.472   6.816   9.611
44792SOL    HW236216   5.387   6.695   9.645
44793SOL     OW36217   6.103  12.659   6.067
44793SOL    HW136218   6.061  12.667   6.152
44793SOL    HW236219   6.070  12.733   6.016
44794SOL     OW36220   3.185   5.564   6.124
44794SOL    HW136221   3.260   5.569   6.184
44794SOL    HW236222   3.133   5.642   6.144
44795SOL     OW36223   7.093   4.394   7.658
44795SOL    HW136224   7.164   4.348   7.611
44795SOL    HW236225   7.099   4.484   7.627
44796SOL     OW36226  10.345   7.244   5.003
44796SOL    HW136227  10.370   7.166   4.954
44796SOL    HW236228  10.427   7.282   5.033
44797SOL     OW36229   2.610   3.443   2.891
44797SOL    HW136230   2.536   3.498   2.863
44797SOL    HW236231   2.590   3.422   2.983
44798SOL     OW36232  10.762   4.717   6.504
44798SOL    HW136233  10.708   4.723   6.426
44798SOL    HW236234  10.816   4.640   6.490
44799SOL     OW36235   8.976  10.570   4.632
44799SOL    HW136236   8.915  10.514   4.680
44799SOL    HW236237   9.011  10.513   4.563
44800SOL     OW36238   4.435   0.503  14.665
44800SOL    HW136239   4.512   0.538  14.711
44800SOL    HW236240   4.377   0.579  14.655
44801SOL     OW36241   9.558   0.669  11.180
44801SOL    HW136242   9.628   0.681  11.243
44801SOL    HW236243   9.542   0.755  11.143
44802SOL     OW36244   2.316  11.206   6.220
44802SOL    HW136245   2.234  11.157   6.214
44802SOL    HW236246   2.378  11.155   6.168
44803SOL     OW36247   9.071   1.025   4.345
44803SOL    HW136248   9.118   1.003   4.265
44803SOL    HW236249   8.994   0.968   4.343
44804SOL     OW36250   5.525   1.409  14.306
44804SOL    HW136251   5.479   1.379  14.385
44804SOL    HW236252   5.516   1.504  14.308
44805SOL     OW36253   8.751   2.679  12.541
44805SOL    HW136254   8.749   2.682  12.446
44805SOL    HW236255   8.663   2.707  12.568
44806SOL     OW36256   8.450   9.895  14.241
44806SOL    HW136257   8.438   9.986  14.269
44806SOL    HW236258   8.410   9.843  14.310
44807SOL     OW36259   7.770  10.004   6.511
44807SOL    HW136260   7.802  10.089   6.543
44807SOL    HW236261   7.814   9.992   6.427
44808SOL     OW36262   2.824   1.235  11.978
44808SOL    HW136263   2.916   1.224  11.952
44808SOL    HW236264   2.805   1.328  11.961
44809SOL     OW36265   9.156  14.540   6.308
44809SOL    HW136266   9.222  14.551   6.239
44809SOL    HW236267   9.082  14.499   6.264
44810SOL     OW36268  14.525   2.483  11.966
44810SOL    HW136269  14.449   2.436  11.931
44810SOL    HW236270  14.494   2.573  11.979
44811SOL     OW36271   7.298   2.703   5.196
44811SOL    HW136272   7.342   2.736   5.118
44811SOL    HW236273   7.252   2.778   5.232
44812SOL     OW36274   7.266  11.009  11.887
44812SOL    HW136275   7.176  11.018  11.919
44812SOL    HW236276   7.308  10.949  11.948
44813SOL     OW36277  12.286   0.209   8.303
44813SOL    HW136278  12.231   0.251   8.368
44813SOL    HW236279  12.314   0.127   8.345
44814SOL     OW36280   8.074   7.235   0.866
44814SOL    HW136281   8.145   7.247   0.930
44814SOL    HW236282   8.090   7.303   0.800
44815SOL     OW36283   1.308   6.781  14.093
44815SOL    HW136284   1.263   6.701  14.067
44815SOL    HW236285   1.273   6.848  14.034
44816SOL     OW36286   2.691   5.946   9.863
44816SOL    HW136287   2.746   6.006   9.813
44816SOL    HW236288   2.661   5.881   9.799
44817SOL     OW36289   2.466   6.576  14.165
44817SOL    HW136290   2.376   6.548  14.183
44817SOL    HW236291   2.505   6.587  14.252
44818SOL     OW36292  11.180  13.152  12.700
44818SOL    HW136293  11.245  13.089  12.731
44818SOL    HW236294  11.197  13.161  12.607
44819SOL     OW36295   3.302   5.779   1.344
44819SOL    HW136296   3.371   5.768   1.279
44819SOL    HW236297   3.294   5.873   1.355
44820SOL     OW36298   9.973  14.082   4.401
44820SOL    HW136299   9.973  14.161   4.455
44820SOL    HW236300  10.066  14.068   4.380
44821SOL     OW36301  10.990   1.084  14.699
44821SOL    HW136302  11.043   1.141  14.755
44821SOL    HW236303  10.922   1.050  14.757
44822SOL     OW36304  12.017   8.123  12.288
44822SOL    HW136305  11.993   8.141  12.197
44822SOL    HW236306  11.980   8.037  12.306
44823SOL     OW36307   4.362  14.340   0.542
44823SOL    HW136308   4.275  14.330   0.503
44823SOL    HW236309   4.348  14.330   0.636
44824SOL     OW36310  14.855   9.603   2.105
44824SOL    HW136311  14.816   9.649   2.031
44824SOL    HW236312   0.076   9.612   2.092
44825SOL     OW36313   6.678  11.818   8.415
44825SOL    HW136314   6.636  11.735   8.436
44825SOL    HW236315   6.772  11.800   8.423
44826SOL     OW36316  12.771   8.349  11.945
44826SOL    HW136317  12.847   8.390  11.987
44826SOL    HW236318  12.801   8.330  11.856
44827SOL     OW36319   6.165   5.276   7.676
44827SOL    HW136320   6.117   5.336   7.619
44827SOL    HW236321   6.245   5.323   7.699
44828SOL     OW36322   8.717   4.931  12.466
44828SOL    HW136323   8.764   4.941  12.549
44828SOL    HW236324   8.782   4.892  12.407
44829SOL     OW36325  10.614   6.186   6.965
44829SOL    HW136326  10.546   6.171   7.030
44829SOL    HW236327  10.636   6.279   6.973
44830SOL     OW36328  14.496   8.782   9.910
44830SOL    HW136329  14.496   8.689   9.885
44830SOL    HW236330  14.574   8.792   9.965
44831SOL     OW36331   0.091   7.652   0.917
44831SOL    HW136332   0.048   7.694   0.843
44831SOL    HW236333   0.139   7.722   0.961
44832SOL     OW36334  10.873   1.279  12.305
44832SOL    HW136335  10.854   1.310  12.393
44832SOL    HW236336  10.787   1.275  12.262
44833SOL     OW36337   1.733  12.200  13.819
44833SOL    HW136338   1.730  12.116  13.773
44833SOL    HW236339   1.824  12.208  13.849
44834SOL     OW36340  14.099  11.094  12.666
44834SOL    HW136341  14.191  11.119  12.656
44834SOL    HW236342  14.056  11.135  12.591
44835SOL     OW36343  14.551  13.455  13.668
44835SOL    HW136344  14.565  13.548  13.653
44835SOL    HW236345  14.626  13.427  13.719
44836SOL     OW36346   3.821   4.109   8.181
44836SOL    HW136347   3.853   4.024   8.210
44836SOL    HW236348   3.729   4.094   8.161
44837SOL     OW36349  14.508   5.252   5.966
44837SOL    HW136350  14.515   5.258   5.871
44837SOL    HW236351  14.567   5.319   5.999
44838SOL     OW36352   1.523  13.397  11.805
44838SOL    HW136353   1.575  13.447  11.868
44838SOL    HW236354   1.437  13.439  11.806
44839SOL     OW36355   2.508   5.562   0.895
44839SOL    HW136356   2.438   5.621   0.925
44839SOL    HW236357   2.482   5.476   0.925
44840SOL     OW36358  13.381  14.182   3.230
44840SOL    HW136359  13.294  14.197   3.191
44840SOL    HW236360  13.431  14.260   3.206
44841SOL     OW36361  12.868   3.785  12.794
44841SOL    HW136362  12.854   3.708  12.740
44841SOL    HW236363  12.962   3.800  12.790
44842SOL     OW36364   2.071   8.240  12.341
44842SOL    HW136365   2.034   8.200  12.262
44842SOL    HW236366   2.020   8.320  12.353
44843SOL     OW36367  13.419  12.718   8.146
44843SOL    HW136368  13.333  12.715   8.104
44843SOL    HW236369  13.429  12.809   8.174
44844SOL     OW36370  12.238   7.018   6.842
44844SOL    HW136371  12.193   7.038   6.924
44844SOL    HW236372  12.192   6.941   6.808
44845SOL     OW36373   3.211   3.648   6.484
44845SOL    HW136374   3.285   3.705   6.504
44845SOL    HW236375   3.193   3.663   6.391
44846SOL     OW36376   9.796   1.463   4.840
44846SOL    HW136377   9.750   1.486   4.760
44846SOL    HW236378   9.745   1.390   4.876
44847SOL     OW36379  14.245   8.009   9.729
44847SOL    HW136380  14.160   8.052   9.732
44847SOL    HW236381  14.280   8.032   9.644
44848SOL     OW36382   2.539  11.985   5.920
44848SOL    HW136383   2.483  12.008   5.994
44848SOL    HW236384   2.481  11.943   5.857
44849SOL     OW36385   2.233  11.711  10.324
44849SOL    HW136386   2.187  11.670  10.397
44849SOL    HW236387   2.225  11.648  10.253
44850SOL     OW36388  10.369  12.331   6.161
44850SOL    HW136389  10.391  12.318   6.069
44850SOL    HW236390  10.425  12.404   6.189
44851SOL     OW36391  12.051   1.227   1.933
44851SOL    HW136392  11.966   1.261   1.958
44851SOL    HW236393  12.034   1.173   1.856
44852SOL     OW36394  11.843  12.273   0.768
44852SOL    HW136395  11.835  12.354   0.818
44852SOL    HW236396  11.921  12.286   0.713
44853SOL     OW36397  10.784   7.227   1.088
44853SOL    HW136398  10.840   7.194   1.158
44853SOL    HW236399  10.814   7.181   1.010
44854SOL     OW36400  13.431   8.180  13.647
44854SOL    HW136401  13.502   8.224  13.694
44854SOL    HW236402  13.393   8.248  13.592
44855SOL     OW36403   7.449   2.946  10.818
44855SOL    HW136404   7.469   3.020  10.761
44855SOL    HW236405   7.480   2.869  10.769
44856SOL     OW36406   0.168   9.870  10.265
44856SOL    HW136407   0.219   9.800  10.225
44856SOL    HW236408   0.093   9.882  10.206
44857SOL     OW36409  12.161   8.484   4.509
44857SOL    HW136410  12.148   8.574   4.482
44857SOL    HW236411  12.078   8.441   4.488
44858SOL     OW36412  12.626   4.000   4.005
44858SOL    HW136413  12.638   4.090   3.976
44858SOL    HW236414  12.648   4.002   4.099
44859SOL     OW36415  10.756   8.190  13.491
44859SOL    HW136416  10.776   8.116  13.549
44859SOL    HW236417  10.764   8.267  13.548
44860SOL     OW36418   2.868   9.530   9.326
44860SOL    HW136419   2.806   9.544   9.398
44860SOL    HW236420   2.816   9.546   9.247
44861SOL     OW36421  14.329  11.208   7.160
44861SOL    HW136422  14.384  11.169   7.228
44861SOL    HW236423  14.247  11.231   7.205
44862SOL     OW36424  13.650   3.596  10.599
44862SOL    HW136425  13.736   3.636  10.587
44862SOL    HW236426  13.617   3.634  10.680
44863SOL     OW36427   6.264   7.573   3.140
44863SOL    HW136428   6.345   7.614   3.169
44863SOL    HW236429   6.221   7.640   3.086
44864SOL     OW36430   1.047   9.815   9.427
44864SOL    HW136431   1.123   9.756   9.424
44864SOL    HW236432   1.052   9.866   9.346
44865SOL     OW36433  14.192   2.106  14.292
44865SOL    HW136434  14.196   2.056  14.373
44865SOL    HW236435  14.118   2.067  14.244
44866SOL     OW36436  10.590  14.032   8.729
44866SOL    HW136437  10.535  13.955   8.745
44866SOL    HW236438  10.543  14.104   8.770
44867SOL     OW36439   1.046   3.894  10.652
44867SOL    HW136440   0.952   3.879  10.655
44867SOL    HW236441   1.055   3.988  10.668
44868SOL     OW36442   2.518   1.558   6.868
44868SOL    HW136443   2.511   1.556   6.773
44868SOL    HW236444   2.444   1.506   6.899
44869SOL     OW36445  11.541   5.849   8.566
44869SOL    HW136446  11.459   5.896   8.555
44869SOL    HW236447  11.561   5.859   8.659
44870SOL     OW36448   5.323   6.972   0.902
44870SOL    HW136449   5.370   7.052   0.925
44870SOL    HW236450   5.255   7.001   0.841
44871SOL     OW36451   7.793   9.252  12.210
44871SOL    HW136452   7.877   9.218  12.240
44871SOL    HW236453   7.750   9.177  12.169
44872SOL     OW36454  12.329  10.436  12.619
44872SOL    HW136455  12.332  10.369  12.551
44872SOL    HW236456  12.255  10.410  12.675
44873SOL     OW36457  11.894  12.240  14.478
44873SOL    HW136458  11.946  12.303  14.528
44873SOL    HW236459  11.903  12.158  14.527
44874SOL     OW36460   0.326  12.810  13.024
44874SOL    HW136461   0.378  12.824  12.945
44874SOL    HW236462   0.253  12.871  13.016
44875SOL     OW36463  10.910   6.609   6.036
44875SOL    HW136464  10.836   6.627   6.094
44875SOL    HW236465  10.902   6.516   6.015
44876SOL     OW36466   8.248  12.615   4.396
44876SOL    HW136467   8.248  12.529   4.355
44876SOL    HW236468   8.177  12.612   4.460
44877SOL     OW36469   5.643  10.221   9.808
44877SOL    HW136470   5.735  10.244   9.803
44877SOL    HW236471   5.602  10.292   9.857
44878SOL     OW36472   3.200  11.039   7.524
44878SOL    HW136473   3.160  11.066   7.606
44878SOL    HW236474   3.194  10.943   7.525
44879SOL     OW36475  12.850  14.325   6.936
44879SOL    HW136476  12.928  14.271   6.925
44879SOL    HW236477  12.777  14.265   6.922
44880SOL     OW36478   2.676   9.390   5.944
44880SOL    HW136479   2.583   9.404   5.963
44880SOL    HW236480   2.722   9.447   6.005
44881SOL     OW36481  10.128   2.026  11.928
44881SOL    HW136482  10.116   1.943  11.883
44881SOL    HW236483  10.216   2.020  11.966
44882SOL     OW36484   1.203   7.775   0.039
44882SOL    HW136485   1.168   7.835  14.846
44882SOL    HW236486   1.206   7.827   0.119
44883SOL     OW36487   0.927   3.635  14.080
44883SOL    HW136488   0.934   3.617  13.986
44883SOL    HW236489   0.989   3.575  14.121
44884SOL     OW36490   1.746   8.561   1.215
44884SOL    HW136491   1.749   8.656   1.223
44884SOL    HW236492   1.835   8.536   1.192
44885SOL     OW36493   3.525   9.498   9.679
44885SOL    HW136494   3.530   9.579   9.627
44885SOL    HW236495   3.439   9.462   9.658
44886SOL     OW36496  14.343   4.045   1.591
44886SOL    HW136497  14.310   4.122   1.544
44886SOL    HW236498  14.284   3.974   1.565
44887SOL     OW36499   2.571   2.299   3.670
44887SOL    HW136500   2.618   2.281   3.751
44887SOL    HW236501   2.515   2.374   3.690
44888SOL     OW36502  11.510   7.313  10.635
44888SOL    HW136503  11.588   7.264  10.662
44888SOL    HW236504  11.545   7.382  10.578
44889SOL     OW36505  12.969  12.674   7.896
44889SOL    HW136506  12.876  12.674   7.874
44889SOL    HW236507  12.993  12.582   7.901
44890SOL     OW36508  11.420  14.419   0.684
44890SOL    HW136509  11.363  14.445   0.756
44890SOL    HW236510  11.508  14.433   0.717
44891SOL     OW36511   1.392   6.845   5.273
44891SOL    HW136512   1.453   6.839   5.200
44891SOL    HW236513   1.434   6.798   5.345
44892SOL     OW36514   3.207  10.394   0.193
44892SOL    HW136515   3.284  10.446   0.169
44892SOL    HW236516   3.240  10.334   0.261
44893SOL     OW36517   0.973   2.083   1.771
44893SOL    HW136518   1.029   2.158   1.792
44893SOL    HW236519   0.988   2.020   1.841
44894SOL     OW36520   2.378   4.476  12.168
44894SOL    HW136521   2.436   4.537  12.122
44894SOL    HW236522   2.365   4.404  12.106
44895SOL     OW36523   3.624  13.006  12.922
44895SOL    HW136524   3.716  13.003  12.897
44895SOL    HW236525   3.589  13.084  12.879
44896SOL     OW36526   1.178  11.649  10.423
44896SOL    HW136527   1.089  11.615  10.409
44896SOL    HW236528   1.233  11.595  10.367
44897SOL     OW36529  14.717  11.091   7.231
44897SOL    HW136530  14.752  11.002   7.221
44897SOL    HW236531  14.627  11.078   7.260
44898SOL     OW36532   8.521   5.549   4.968
44898SOL    HW136533   8.465   5.541   4.890
44898SOL    HW236534   8.460   5.571   5.039
44899SOL     OW36535  13.109   0.062  10.248
44899SOL    HW136536  13.178   0.110  10.201
44899SOL    HW236537  13.134   0.069  10.340
44900SOL     OW36538   2.909   0.061   9.467
44900SOL    HW136539   2.848   0.026   9.531
44900SOL    HW236540   2.912  14.868   9.398
44901SOL     OW36541   6.569   3.910  12.959
44901SOL    HW136542   6.612   3.943  13.038
44901SOL    HW236543   6.476   3.927  12.973
44902SOL     OW36544   0.512   0.493   1.900
44902SOL    HW136545   0.498   0.508   1.994
44902SOL    HW236546   0.581   0.554   1.876
44903SOL     OW36547   4.248   2.062  14.816
44903SOL    HW136548   4.153   2.069  14.827
44903SOL    HW236549   4.263   2.070  14.722
44904SOL     OW36550   8.900   4.852   3.149
44904SOL    HW136551   8.895   4.803   3.068
44904SOL    HW236552   8.813   4.892   3.157
44905SOL     OW36553  11.629  13.844   1.901
44905SOL    HW136554  11.693  13.788   1.857
44905SOL    HW236555  11.553  13.788   1.914
44906SOL     OW36556  10.673   9.309   3.678
44906SOL    HW136557  10.762   9.289   3.708
44906SOL    HW236558  10.678   9.399   3.648
44907SOL     OW36559   4.873   1.222   1.039
44907SOL    HW136560   4.953   1.274   1.029
44907SOL    HW236561   4.862   1.214   1.134
44908SOL     OW36562  13.654  11.734   7.497
44908SOL    HW136563  13.678  11.648   7.462
44908SOL    HW236564  13.723  11.792   7.467
44909SOL     OW36565   8.638   8.610   7.421
44909SOL    HW136566   8.669   8.700   7.410
44909SOL    HW236567   8.703   8.570   7.479
44910SOL     OW36568  13.852   1.039   6.290
44910SOL    HW136569  13.946   1.039   6.271
44910SOL    HW236570  13.815   1.103   6.229
44911SOL     OW36571  14.304   2.316   3.560
44911SOL    HW136572  14.385   2.346   3.603
44911SOL    HW236573  14.278   2.239   3.611
44912SOL     OW36574   5.736  12.328  12.729
44912SOL    HW136575   5.811  12.308  12.672
44912SOL    HW236576   5.766  12.305  12.817
44913SOL     OW36577  13.629  11.609   0.603
44913SOL    HW136578  13.686  11.610   0.526
44913SOL    HW236579  13.616  11.701   0.624
44914SOL     OW36580   6.651   8.948   4.461
44914SOL    HW136581   6.630   8.926   4.552
44914SOL    HW236582   6.723   8.890   4.439
44915SOL     OW36583  13.652  10.353   7.161
44915SOL    HW136584  13.721  10.344   7.096
44915SOL    HW236585  13.647  10.447   7.177
44916SOL     OW36586   8.575  12.279  11.658
44916SOL    HW136587   8.486  12.265  11.688
44916SOL    HW236588   8.585  12.219  11.584
44917SOL     OW36589   6.848  13.398   9.724
44917SOL    HW136590   6.919  13.427   9.781
44917SOL    HW236591   6.890  13.342   9.659
44918SOL     OW36592   6.279   8.435   2.679
44918SOL    HW136593   6.370   8.460   2.662
44918SOL    HW236594   6.230   8.468   2.604
44919SOL     OW36595   4.375   2.957   6.125
44919SOL    HW136596   4.342   3.026   6.068
44919SOL    HW236597   4.427   3.004   6.191
44920SOL     OW36598  12.200  11.417  13.466
44920SOL    HW136599  12.163  11.388  13.383
44920SOL    HW236600  12.223  11.509  13.450
44921SOL     OW36601   7.876   8.570   6.343
44921SOL    HW136602   7.796   8.600   6.299
44921SOL    HW236603   7.945   8.626   6.307
44922SOL     OW36604   2.212   4.619  14.572
44922SOL    HW136605   2.268   4.689  14.607
44922SOL    HW236606   2.140   4.665  14.529
44923SOL     OW36607   9.182   1.563   7.619
44923SOL    HW136608   9.255   1.507   7.645
44923SOL    HW236609   9.147   1.596   7.701
44924SOL     OW36610   2.777  12.520   5.961
44924SOL    HW136611   2.818  12.435   5.943
44924SOL    HW236612   2.700  12.499   6.013
44925SOL     OW36613   5.860   4.243  14.482
44925SOL    HW136614   5.799   4.276  14.548
44925SOL    HW236615   5.804   4.209  14.412
44926SOL     OW36616   6.464   1.874  11.255
44926SOL    HW136617   6.395   1.882  11.189
44926SOL    HW236618   6.422   1.901  11.337
44927SOL     OW36619   6.341  11.040  11.143
44927SOL    HW136620   6.274  10.980  11.110
44927SOL    HW236621   6.332  11.119  11.089
44928SOL     OW36622   2.116  10.536   8.328
44928SOL    HW136623   2.065  10.584   8.262
44928SOL    HW236624   2.053  10.474   8.365
44929SOL     OW36625   6.487   8.015   0.776
44929SOL    HW136626   6.546   8.061   0.717
44929SOL    HW236627   6.461   7.936   0.728
44930SOL     OW36628   4.568  14.355   1.851
44930SOL    HW136629   4.629  14.290   1.886
44930SOL    HW236630   4.482  14.314   1.861
44931SOL     OW36631   5.479   6.864  13.483
44931SOL    HW136632   5.429   6.881  13.403
44931SOL    HW236633   5.552   6.810  13.455
44932SOL     OW36634  14.082  14.564   0.508
44932SOL    HW136635  14.127  14.549   0.424
44932SOL    HW236636  14.151  14.597   0.566
44933SOL     OW36637   4.097   0.707   3.713
44933SOL    HW136638   4.019   0.662   3.746
44933SOL    HW236639   4.063   0.771   3.651
44934SOL     OW36640  13.842   0.169   7.066
44934SOL    HW136641  13.904   0.193   6.997
44934SOL    HW236642  13.896   0.134   7.137
44935SOL     OW36643   7.758  14.550   1.638
44935SOL    HW136644   7.764  14.614   1.567
44935SOL    HW236645   7.823  14.578   1.702
44936SOL     OW36646   6.747   2.167  11.975
44936SOL    HW136647   6.728   2.074  11.987
44936SOL    HW236648   6.683   2.212  12.030
44937SOL     OW36649   8.855   2.860   1.732
44937SOL    HW136650   8.858   2.953   1.707
44937SOL    HW236651   8.911   2.817   1.667
44938SOL     OW36652   4.202   2.665  10.257
44938SOL    HW136653   4.285   2.620  10.273
44938SOL    HW236654   4.135   2.599  10.272
44939SOL     OW36655   8.650   8.674  14.042
44939SOL    HW136656   8.721   8.692  14.104
44939SOL    HW236657   8.570   8.685  14.094
44940SOL     OW36658   8.806   5.515   1.600
44940SOL    HW136659   8.868   5.576   1.563
44940SOL    HW236660   8.860   5.446   1.640
44941SOL     OW36661   0.272  13.190  14.215
44941SOL    HW136662   0.352  13.228  14.178
44941SOL    HW236663   0.250  13.247  14.288
44942SOL     OW36664   8.580   9.221   9.211
44942SOL    HW136665   8.563   9.314   9.198
44942SOL    HW236666   8.496   9.179   9.192
44943SOL     OW36667  12.499  11.170  11.146
44943SOL    HW136668  12.419  11.120  11.165
44943SOL    HW236669  12.563  11.137  11.210
44944SOL     OW36670   1.274   5.125  14.661
44944SOL    HW136671   1.216   5.169  14.724
44944SOL    HW236672   1.328   5.067  14.714
44945SOL     OW36673   9.797   4.529   2.871
44945SOL    HW136674   9.842   4.457   2.916
44945SOL    HW236675   9.752   4.576   2.941
44946SOL     OW36676  13.546   1.833   4.482
44946SOL    HW136677  13.496   1.914   4.474
44946SOL    HW236678  13.554   1.818   4.576
44947SOL     OW36679  12.752  11.928   0.652
44947SOL    HW136680  12.806  11.934   0.573
44947SOL    HW236681  12.756  11.836   0.677
44948SOL     OW36682   9.696   9.281   6.311
44948SOL    HW136683   9.765   9.235   6.358
44948SOL    HW236684   9.737   9.312   6.231
44949SOL     OW36685   2.397  12.224   1.216
44949SOL    HW136686   2.489  12.211   1.239
44949SOL    HW236687   2.387  12.183   1.131
44950SOL     OW36688  10.664   8.565   0.027
44950SOL    HW136689  10.577   8.600   0.046
44950SOL    HW236690  10.676   8.493   0.089
44951SOL     OW36691   8.672   4.755   9.109
44951SOL    HW136692   8.682   4.826   9.046
44951SOL    HW236693   8.640   4.798   9.188
44952SOL     OW36694   2.785   3.454   0.917
44952SOL    HW136695   2.705   3.470   0.867
44952SOL    HW236696   2.764   3.378   0.971
44953SOL     OW36697  11.336   0.971   4.390
44953SOL    HW136698  11.337   0.983   4.295
44953SOL    HW236699  11.280   1.042   4.422
44954SOL     OW36700  13.244  14.493   8.454
44954SOL    HW136701  13.154  14.526   8.462
44954SOL    HW236702  13.240  14.404   8.487
44955SOL     OW36703   8.447   8.756  10.346
44955SOL    HW136704   8.397   8.752  10.264
44955SOL    HW236705   8.479   8.667  10.359
44956SOL     OW36706   8.904   7.264   3.340
44956SOL    HW136707   8.965   7.289   3.409
44956SOL    HW236708   8.945   7.188   3.298
44957SOL     OW36709   0.613   4.304  14.323
44957SOL    HW136710   0.599   4.333  14.413
44957SOL    HW236711   0.705   4.278  14.321
44958SOL     OW36712   0.974   3.109   2.816
44958SOL    HW136713   0.886   3.131   2.785
44958SOL    HW236714   1.033   3.145   2.750
44959SOL     OW36715   1.599  10.321   0.912
44959SOL    HW136716   1.615  10.230   0.936
44959SOL    HW236717   1.626  10.326   0.820
44960SOL     OW36718   0.087   9.510  12.458
44960SOL    HW136719   0.137   9.469  12.388
44960SOL    HW236720   0.074   9.441  12.523
44961SOL     OW36721   0.016   3.136  11.487
44961SOL    HW136722   0.078   3.162  11.419
44961SOL    HW236723   0.049   3.052  11.518
44962SOL     OW36724  14.724   5.786   9.917
44962SOL    HW136725  14.817   5.762   9.921
44962SOL    HW236726  14.724   5.882   9.917
44963SOL     OW36727   8.662   2.222   0.850
44963SOL    HW136728   8.628   2.307   0.876
44963SOL    HW236729   8.601   2.159   0.890
44964SOL     OW36730   7.437   2.603   5.432
44964SOL    HW136731   7.408   2.640   5.349
44964SOL    HW236732   7.363   2.550   5.461
44965SOL     OW36733   1.260   4.245   1.982
44965SOL    HW136734   1.212   4.327   1.970
44965SOL    HW236735   1.219   4.204   2.058
44966SOL     OW36736  13.857   0.746  12.061
44966SOL    HW136737  13.774   0.699  12.051
44966SOL    HW236738  13.834   0.838  12.054
44967SOL     OW36739   3.146   3.282  10.765
44967SOL    HW136740   3.129   3.376  10.757
44967SOL    HW236741   3.110   3.245  10.684
44968SOL     OW36742   8.565  11.813  13.440
44968SOL    HW136743   8.557  11.832  13.347
44968SOL    HW236744   8.601  11.724  13.444
44969SOL     OW36745   3.351   8.410   1.170
44969SOL    HW136746   3.325   8.484   1.116
44969SOL    HW236747   3.435   8.437   1.208
44970SOL     OW36748  10.692   0.393  12.999
44970SOL    HW136749  10.767   0.343  13.031
44970SOL    HW236750  10.660   0.439  13.076
44971SOL     OW36751   4.234   3.148   9.224
44971SOL    HW136752   4.272   3.209   9.161
44971SOL    HW236753   4.263   3.180   9.309
44972SOL     OW36754   5.031   3.928   0.193
44972SOL    HW136755   4.984   3.999   0.148
44972SOL    HW236756   5.034   3.857   0.129
44973SOL     OW36757   1.170   1.425  13.088
44973SOL    HW136758   1.125   1.463  13.163
44973SOL    HW236759   1.131   1.468  13.012
44974SOL     OW36760  10.021   9.906   4.458
44974SOL    HW136761  10.004   9.990   4.416
44974SOL    HW236762   9.961   9.905   4.533
44975SOL     OW36763  11.761   8.897   3.373
44975SOL    HW136764  11.844   8.893   3.421
44975SOL    HW236765  11.696   8.920   3.440
44976SOL     OW36766   8.821  14.542   9.783
44976SOL    HW136767   8.787  14.595   9.855
44976SOL    HW236768   8.773  14.459   9.790
44977SOL     OW36769  14.130  14.087  13.789
44977SOL    HW136770  14.192  14.032  13.741
44977SOL    HW236771  14.135  14.056  13.879
44978SOL     OW36772  14.804   4.540  13.646
44978SOL    HW136773  14.761   4.457  13.624
44978SOL    HW236774  14.798   4.545  13.742
44979SOL     OW36775   2.643   3.740  11.547
44979SOL    HW136776   2.705   3.752  11.475
44979SOL    HW236777   2.615   3.829  11.569
44980SOL     OW36778  14.333   0.325   1.108
44980SOL    HW136779  14.400   0.282   1.055
44980SOL    HW236780  14.261   0.261   1.111
44981SOL     OW36781   7.110   4.334  11.303
44981SOL    HW136782   7.036   4.280  11.277
44981SOL    HW236783   7.071   4.415  11.336
44982SOL     OW36784   7.635   0.892  13.071
44982SOL    HW136785   7.649   0.860  12.983
44982SOL    HW236786   7.561   0.953  13.063
44983SOL     OW36787  11.628   1.089   6.002
44983SOL    HW136788  11.654   1.057   6.088
44983SOL    HW236789  11.540   1.124   6.014
44984SOL     OW36790   5.064   1.941   9.350
44984SOL    HW136791   5.146   1.966   9.308
44984SOL    HW236792   5.020   1.885   9.285
44985SOL     OW36793   6.831  10.135   9.391
44985SOL    HW136794   6.769  10.181   9.448
44985SOL    HW236795   6.784  10.057   9.363
44986SOL     OW36796  12.034   8.233  10.165
44986SOL    HW136797  12.128   8.226  10.149
44986SOL    HW236798  12.019   8.327  10.176
44987SOL     OW36799   3.148  10.425  10.482
44987SOL    HW136800   3.063  10.383  10.496
44987SOL    HW236801   3.162  10.476  10.562
44988SOL     OW36802   8.486   7.944   1.453
44988SOL    HW136803   8.573   7.916   1.481
44988SOL    HW236804   8.426   7.884   1.498
44989SOL     OW36805   9.910   0.942   2.887
44989SOL    HW136806   9.997   0.978   2.907
44989SOL    HW236807   9.921   0.848   2.897
44990SOL     OW36808   1.944   6.294  14.770
44990SOL    HW136809   2.008   6.357  14.737
44990SOL    HW236810   1.960   6.290  14.864
44991SOL     OW36811  14.482  12.594   9.213
44991SOL    HW136812  14.473  12.685   9.239
44991SOL    HW236813  14.533  12.596   9.132
44992SOL     OW36814  10.862   5.873  11.934
44992SOL    HW136815  10.829   5.842  11.850
44992SOL    HW236816  10.821   5.815  11.999
44993SOL     OW36817  14.346   9.132   7.457
44993SOL    HW136818  14.375   9.100   7.371
44993SOL    HW236819  14.284   9.202   7.436
44994SOL     OW36820   5.656   8.117  13.865
44994SOL    HW136821   5.624   8.139  13.952
44994SOL    HW236822   5.675   8.024  13.869
44995SOL     OW36823   5.922  10.576   1.959
44995SOL    HW136824   5.987  10.594   2.027
44995SOL    HW236825   5.936  10.484   1.936
44996SOL     OW36826  11.939   8.936   9.263
44996SOL    HW136827  11.920   8.890   9.182
44996SOL    HW236828  11.899   9.023   9.252
44997SOL     OW36829   6.923  11.930   7.631
44997SOL    HW136830   6.989  11.958   7.568
44997SOL    HW236831   6.839  11.941   7.586
44998SOL     OW36832  10.332   5.308   1.030
44998SOL    HW136833  10.257   5.343   1.078
44998SOL    HW236834  10.364   5.381   0.977
44999SOL     OW36835  11.850  13.389   8.782
44999SOL    HW136836  11.889  13.460   8.834
44999SOL    HW236837  11.760  13.419   8.765
45000SOL     OW36838   9.944  14.587   3.956
45000SOL    HW136839   9.878  14.616   4.018
45000SOL    HW236840   9.934  14.645   3.880
45001SOL     OW36841   6.472  12.135   9.681
45001SOL    HW136842   6.392  12.096   9.645
45001SOL    HW236843   6.447  12.169   9.767
45002SOL     OW36844  11.201  13.253   7.458
45002SOL    HW136845  11.186  13.212   7.543
45002SOL    HW236846  11.237  13.339   7.479
45003SOL     OW36847   1.803  10.422   7.054
45003SOL    HW136848   1.752  10.342   7.067
45003SOL    HW236849   1.832  10.417   6.963
45004SOL     OW36850   4.118   4.208   9.241
45004SOL    HW136851   4.038   4.212   9.293
45004SOL    HW236852   4.114   4.285   9.185
45005SOL     OW36853   0.639   3.129   9.058
45005SOL    HW136854   0.633   3.192   8.986
45005SOL    HW236855   0.708   3.068   9.031
45006SOL     OW36856   5.113  10.339   7.913
45006SOL    HW136857   5.157  10.404   7.968
45006SOL    HW236858   5.020  10.360   7.922
45007SOL     OW36859   2.921   4.463  14.207
45007SOL    HW136860   3.006   4.456  14.250
45007SOL    HW236861   2.884   4.375  14.214
45008SOL     OW36862   7.701   8.207   6.174
45008SOL    HW136863   7.682   8.133   6.232
45008SOL    HW236864   7.670   8.284   6.222
45009SOL     OW36865   6.297   9.821  11.947
45009SOL    HW136866   6.264   9.770  12.020
45009SOL    HW236867   6.364   9.878  11.985
45010SOL     OW36868   1.225   7.414   1.510
45010SOL    HW136869   1.309   7.443   1.474
45010SOL    HW236870   1.159   7.457   1.455
45011SOL     OW36871  14.367   5.851  14.489
45011SOL    HW136872  14.275   5.845  14.512
45011SOL    HW236873  14.409   5.780  14.537
45012SOL     OW36874   0.019   4.134   7.855
45012SOL    HW136875   0.004   4.185   7.934
45012SOL    HW236876  14.806   4.102   7.829
45013SOL     OW36877  13.808   5.666  11.162
45013SOL    HW136878  13.789   5.746  11.211
45013SOL    HW236879  13.849   5.696  11.081
45014SOL     OW36880  10.891   1.340   3.807
45014SOL    HW136881  10.945   1.412   3.775
45014SOL    HW236882  10.952   1.280   3.849
45015SOL     OW36883   8.819  11.512   5.779
45015SOL    HW136884   8.827  11.589   5.722
45015SOL    HW236885   8.836  11.438   5.721
45016SOL     OW36886   3.273   5.106   6.390
45016SOL    HW136887   3.215   5.182   6.383
45016SOL    HW236888   3.272   5.066   6.303
45017SOL     OW36889  11.479   2.856   4.605
45017SOL    HW136890  11.533   2.935   4.597
45017SOL    HW236891  11.477   2.820   4.517
45018SOL     OW36892   7.024   2.629   5.655
45018SOL    HW136893   6.972   2.664   5.582
45018SOL    HW236894   7.057   2.706   5.700
45019SOL     OW36895   0.446   8.769  11.797
45019SOL    HW136896   0.412   8.831  11.861
45019SOL    HW236897   0.443   8.816  11.713
45020SOL     OW36898  10.861   0.116   0.383
45020SOL    HW136899  10.867   0.100   0.289
45020SOL    HW236900  10.859   0.212   0.391
45021SOL     OW36901   2.522   6.487   0.847
45021SOL    HW136902   2.493   6.457   0.761
45021SOL    HW236903   2.442   6.509   0.894
45022SOL     OW36904   4.719   0.901  13.621
45022SOL    HW136905   4.741   0.808  13.617
45022SOL    HW236906   4.797   0.945  13.587
45023SOL     OW36907   4.065   6.097   4.051
45023SOL    HW136908   3.974   6.085   4.079
45023SOL    HW236909   4.108   6.015   4.073
45024SOL     OW36910   8.647   9.367   0.617
45024SOL    HW136911   8.595   9.447   0.631
45024SOL    HW236912   8.738   9.396   0.623
45025SOL     OW36913   1.665   5.256   4.626
45025SOL    HW136914   1.634   5.185   4.569
45025SOL    HW236915   1.613   5.332   4.601
45026SOL     OW36916  10.828  10.571   8.299
45026SOL    HW136917  10.859  10.512   8.368
45026SOL    HW236918  10.772  10.634   8.345
45027SOL     OW36919   3.209  11.512   6.310
45027SOL    HW136920   3.114  11.502   6.305
45027SOL    HW236921   3.243  11.448   6.248
45028SOL     OW36922   4.603   0.310   4.714
45028SOL    HW136923   4.559   0.258   4.782
45028SOL    HW236924   4.652   0.246   4.663
45029SOL     OW36925   7.857   3.252   0.340
45029SOL    HW136926   7.949   3.228   0.327
45029SOL    HW236927   7.855   3.347   0.328
45030SOL     OW36928   2.073   9.417   5.021
45030SOL    HW136929   2.132   9.354   4.980
45030SOL    HW236930   2.040   9.371   5.098
45031SOL     OW36931  11.561   7.782   7.373
45031SOL    HW136932  11.648   7.755   7.402
45031SOL    HW236933  11.555   7.875   7.397
45032SOL     OW36934  10.071   9.427   0.193
45032SOL    HW136935  10.063   9.517   0.159
45032SOL    HW236936  10.071   9.438   0.288
45033SOL     OW36937   0.457  13.117   8.843
45033SOL    HW136938   0.382  13.090   8.896
45033SOL    HW236939   0.443  13.210   8.827
45034SOL     OW36940   5.167   0.182   0.697
45034SOL    HW136941   5.257   0.154   0.681
45034SOL    HW236942   5.119   0.101   0.712
45035SOL     OW36943   6.111  13.032  12.665
45035SOL    HW136944   6.200  13.053  12.694
45035SOL    HW236945   6.088  12.952  12.712
45036SOL     OW36946   2.890  12.750   7.644
45036SOL    HW136947   2.955  12.773   7.577
45036SOL    HW236948   2.858  12.664   7.618
45037SOL     OW36949   2.408  12.961  14.403
45037SOL    HW136950   2.418  13.024  14.332
45037SOL    HW236951   2.472  12.989  14.469
45038SOL     OW36952   5.409   9.570  12.688
45038SOL    HW136953   5.449   9.589  12.603
45038SOL    HW236954   5.315   9.586  12.674
45039SOL     OW36955   9.821   7.758   5.587
45039SOL    HW136956   9.810   7.732   5.679
45039SOL    HW236957   9.792   7.681   5.538
45040SOL     OW36958  10.406   5.929   2.656
45040SOL    HW136959  10.383   6.018   2.631
45040SOL    HW236960  10.387   5.925   2.750
45041SOL     OW36961   9.432  11.866   0.656
45041SOL    HW136962   9.415  11.793   0.597
45041SOL    HW236963   9.357  11.868   0.715
45042SOL     OW36964   7.185  14.574   9.761
45042SOL    HW136965   7.245  14.499   9.755
45042SOL    HW236966   7.164  14.580   9.854
45043SOL     OW36967  13.394   1.378   9.348
45043SOL    HW136968  13.340   1.323   9.405
45043SOL    HW236969  13.484   1.358   9.374
45044SOL     OW36970   6.155   3.403   7.201
45044SOL    HW136971   6.193   3.465   7.139
45044SOL    HW236972   6.142   3.453   7.281
45045SOL     OW36973   2.915  12.604   3.225
45045SOL    HW136974   2.987  12.541   3.225
45045SOL    HW236975   2.939  12.669   3.291
45046SOL     OW36976   7.854   4.366  14.402
45046SOL    HW136977   7.914   4.438  14.383
45046SOL    HW236978   7.787   4.404  14.459
45047SOL     OW36979   2.279   8.444   7.617
45047SOL    HW136980   2.287   8.408   7.528
45047SOL    HW236981   2.349   8.401   7.666
45048SOL     OW36982  13.410   7.723   4.271
45048SOL    HW136983  13.431   7.674   4.191
45048SOL    HW236984  13.341   7.672   4.313
45049SOL     OW36985  13.410   9.200   5.397
45049SOL    HW136986  13.446   9.283   5.366
45049SOL    HW236987  13.415   9.205   5.492
45050SOL     OW36988   9.844  14.240  11.123
45050SOL    HW136989   9.928  14.196  11.115
45050SOL    HW236990   9.797  14.218  11.043
45051SOL     OW36991   0.960   2.067   3.435
45051SOL    HW136992   0.901   2.142   3.438
45051SOL    HW236993   1.048   2.105   3.447
45052SOL     OW36994   0.018   9.786  10.915
45052SOL    HW136995   0.083   9.724  10.882
45052SOL    HW236996   0.028   9.863  10.859
45053SOL     OW36997   5.695  13.533  10.487
45053SOL    HW136998   5.754  13.500  10.419
45053SOL    HW236999   5.615  13.556  10.440
45054SOL     OW37000   9.455   5.891   9.865
45054SOL    HW137001   9.427   5.879   9.956
45054SOL    HW237002   9.512   5.968   9.869
45055SOL     OW37003  13.815   4.274   8.586
45055SOL    HW137004  13.808   4.370   8.584
45055SOL    HW237005  13.851   4.255   8.673
45056SOL     OW37006   1.535  11.790   1.887
45056SOL    HW137007   1.536  11.879   1.924
45056SOL    HW237008   1.608  11.788   1.826
45057SOL     OW37009  13.166  10.636   9.487
45057SOL    HW137010  13.254  10.666   9.468
45057SOL    HW237011  13.117  10.650   9.406
45058SOL     OW37012   6.205   0.565   1.003
45058SOL    HW137013   6.237   0.478   1.026
45058SOL    HW237014   6.280   0.610   0.965
45059SOL     OW37015   9.671  12.037  11.989
45059SOL    HW137016   9.738  11.975  11.962
45059SOL    HW237017   9.599  12.022  11.928
45060SOL     OW37018   1.918   3.750   4.264
45060SOL    HW137019   1.860   3.809   4.313
45060SOL    HW237020   1.967   3.703   4.332
45061SOL     OW37021   7.465   6.055   4.905
45061SOL    HW137022   7.505   5.974   4.935
45061SOL    HW237023   7.539   6.108   4.875
45062SOL     OW37024   5.145   9.849  10.315
45062SOL    HW137025   5.173   9.841  10.406
45062SOL    HW237026   5.061   9.803  10.311
45063SOL     OW37027  14.411   1.613   5.388
45063SOL    HW137028  14.334   1.557   5.399
45063SOL    HW237029  14.469   1.563   5.331
45064SOL     OW37030   9.233   8.121  13.679
45064SOL    HW137031   9.201   8.052  13.620
45064SOL    HW237032   9.208   8.091  13.767
45065SOL     OW37033   0.582   8.375   8.722
45065SOL    HW137034   0.622   8.289   8.711
45065SOL    HW237035   0.529   8.387   8.643
45066SOL     OW37036  12.822   9.295  11.634
45066SOL    HW137037  12.821   9.279  11.728
45066SOL    HW237038  12.758   9.233  11.598
45067SOL     OW37039   4.087  13.373   5.999
45067SOL    HW137040   4.054  13.287   6.025
45067SOL    HW237041   4.176  13.376   6.033
45068SOL     OW37042   1.516   6.660   0.533
45068SOL    HW137043   1.507   6.667   0.438
45068SOL    HW237044   1.530   6.750   0.562
45069SOL     OW37045  11.498   1.636   8.658
45069SOL    HW137046  11.584   1.648   8.617
45069SOL    HW237047  11.436   1.673   8.595
45070SOL     OW37048   0.589   7.477   4.429
45070SOL    HW137049   0.634   7.481   4.513
45070SOL    HW237050   0.616   7.556   4.383
45071SOL     OW37051   8.263   7.795  12.437
45071SOL    HW137052   8.243   7.786  12.344
45071SOL    HW237053   8.321   7.721  12.456
45072SOL     OW37054   3.941   3.864   0.372
45072SOL    HW137055   4.033   3.851   0.394
45072SOL    HW237056   3.942   3.918   0.293
45073SOL     OW37057   0.105  11.691   5.526
45073SOL    HW137058   0.011  11.701   5.506
45073SOL    HW237059   0.139  11.781   5.524
45074SOL     OW37060   8.325   8.333   6.299
45074SOL    HW137061   8.355   8.271   6.365
45074SOL    HW237062   8.397   8.338   6.236
45075SOL     OW37063   6.846   7.765   0.953
45075SOL    HW137064   6.834   7.672   0.969
45075SOL    HW237065   6.828   7.776   0.859
45076SOL     OW37066   6.634   7.779   8.778
45076SOL    HW137067   6.618   7.864   8.736
45076SOL    HW237068   6.729   7.774   8.785
45077SOL     OW37069   2.683   4.247   0.788
45077SOL    HW137070   2.724   4.320   0.743
45077SOL    HW237071   2.602   4.231   0.739
45078SOL     OW37072   0.900   5.003   7.608
45078SOL    HW137073   0.927   5.041   7.692
45078SOL    HW237074   0.870   4.915   7.631
45079SOL     OW37075   6.531   1.896   5.941
45079SOL    HW137076   6.467   1.888   6.011
45079SOL    HW237077   6.508   1.828   5.878
45080SOL     OW37078   9.999  12.043   0.180
45080SOL    HW137079  10.055  12.034   0.257
45080SOL    HW237080   9.910  12.047   0.215
45081SOL     OW37081  12.997   7.374  12.463
45081SOL    HW137082  13.055   7.451  12.463
45081SOL    HW237083  12.971   7.365  12.371
45082SOL     OW37084  13.339  12.309   9.698
45082SOL    HW137085  13.362  12.249   9.769
45082SOL    HW237086  13.319  12.252   9.624
45083SOL     OW37087  11.607   3.454   9.923
45083SOL    HW137088  11.631   3.527   9.866
45083SOL    HW237089  11.539   3.407   9.874
45084SOL     OW37090   2.732   1.555  12.776
45084SOL    HW137091   2.817   1.594  12.797
45084SOL    HW237092   2.699   1.524  12.860
45085SOL     OW37093  10.686  12.214   3.334
45085SOL    HW137094  10.753  12.282   3.338
45085SOL    HW237095  10.603  12.262   3.340
45086SOL     OW37096   8.073  11.248   7.324
45086SOL    HW137097   8.098  11.166   7.365
45086SOL    HW237098   8.013  11.290   7.386
45087SOL     OW37099   0.716   9.183   2.048
45087SOL    HW137100   0.640   9.168   2.103
45087SOL    HW237101   0.769   9.103   2.059
45088SOL     OW37102   9.731   7.976   4.663
45088SOL    HW137103   9.657   8.029   4.692
45088SOL    HW237104   9.753   7.922   4.739
45089SOL     OW37105   9.195   4.222   0.980
45089SOL    HW137106   9.276   4.259   0.944
45089SOL    HW237107   9.161   4.166   0.910
45090SOL     OW37108   2.256   7.119   6.476
45090SOL    HW137109   2.179   7.068   6.453
45090SOL    HW237110   2.326   7.083   6.423
45091SOL     OW37111   1.383   2.464   8.389
45091SOL    HW137112   1.415   2.486   8.476
45091SOL    HW237113   1.299   2.419   8.404
45092SOL     OW37114  10.960   6.965   7.001
45092SOL    HW137115  10.865   6.962   6.988
45092SOL    HW237116  10.993   7.004   6.920
45093SOL     OW37117   4.651   6.414   9.634
45093SOL    HW137118   4.609   6.346   9.582
45093SOL    HW237119   4.731   6.435   9.588
45094SOL     OW37120   4.585  11.213   2.741
45094SOL    HW137121   4.598  11.185   2.650
45094SOL    HW237122   4.657  11.173   2.789
45095SOL     OW37123   2.030   6.791   3.527
45095SOL    HW137124   1.937   6.813   3.524
45095SOL    HW237125   2.073   6.875   3.546
45096SOL     OW37126   6.246   4.320   4.116
45096SOL    HW137127   6.304   4.257   4.074
45096SOL    HW237128   6.290   4.404   4.105
45097SOL     OW37129   9.867   3.273  10.813
45097SOL    HW137130   9.815   3.209  10.764
45097SOL    HW237131   9.818   3.285  10.895
45098SOL     OW37132  13.387   0.233   0.893
45098SOL    HW137133  13.326   0.242   0.967
45098SOL    HW237134  13.471   0.262   0.929
45099SOL     OW37135   1.647   6.912  11.765
45099SOL    HW137136   1.583   6.857  11.720
45099SOL    HW237137   1.630   6.898  11.858
45100SOL     OW37138   3.688   5.026   2.962
45100SOL    HW137139   3.661   4.936   2.980
45100SOL    HW237140   3.660   5.075   3.040
45101SOL     OW37141   6.163  11.801   2.461
45101SOL    HW137142   6.203  11.726   2.417
45101SOL    HW237143   6.137  11.859   2.389
45102SOL     OW37144   4.728   2.944  11.374
45102SOL    HW137145   4.801   2.884  11.389
45102SOL    HW237146   4.652   2.886  11.363
45103SOL     OW37147   0.651  12.495   9.378
45103SOL    HW137148   0.575  12.549   9.400
45103SOL    HW237149   0.616  12.406   9.370
45104SOL     OW37150   9.064   2.419   2.591
45104SOL    HW137151   9.033   2.337   2.553
45104SOL    HW237152   9.140   2.443   2.538
45105SOL     OW37153   0.398  12.185   4.087
45105SOL    HW137154   0.368  12.246   4.020
45105SOL    HW237155   0.420  12.105   4.039
45106SOL     OW37156   4.461   0.249   3.344
45106SOL    HW137157   4.449   0.189   3.270
45106SOL    HW237158   4.372   0.265   3.376
45107SOL     OW37159   9.522   8.901   9.140
45107SOL    HW137160   9.440   8.866   9.174
45107SOL    HW237161   9.571   8.824   9.112
45108SOL     OW37162   2.970  10.374   3.493
45108SOL    HW137163   2.956  10.283   3.464
45108SOL    HW237164   2.928  10.378   3.579
45109SOL     OW37165   5.188   2.638  11.516
45109SOL    HW137166   5.229   2.587  11.587
45109SOL    HW237167   5.260   2.690  11.480
45110SOL     OW37168   6.018   0.450   5.134
45110SOL    HW137169   6.096   0.396   5.144
45110SOL    HW237170   5.948   0.388   5.116
45111SOL     OW37171   3.327   6.791   1.771
45111SOL    HW137172   3.412   6.755   1.746
45111SOL    HW237173   3.264   6.738   1.723
45112SOL     OW37174   2.163   2.186   4.702
45112SOL    HW137175   2.253   2.187   4.737
45112SOL    HW237176   2.118   2.121   4.756
45113SOL     OW37177   9.985   8.875  12.989
45113SOL    HW137178   9.998   8.789  12.947
45113SOL    HW237179   9.897   8.901  12.963
45114SOL     OW37180   1.452   0.358  12.487
45114SOL    HW137181   1.527   0.415  12.473
45114SOL    HW237182   1.428   0.371  12.579
45115SOL     OW37183   0.374   9.571   9.603
45115SOL    HW137184   0.415   9.646   9.645
45115SOL    HW237185   0.297   9.552   9.658
45116SOL     OW37186   0.113   4.000   7.320
45116SOL    HW137187   0.164   4.027   7.396
45116SOL    HW237188   0.045   4.067   7.312
45117SOL     OW37189   4.683  14.837   4.165
45117SOL    HW137190   4.668  14.821   4.258
45117SOL    HW237191   4.611  14.792   4.120
45118SOL     OW37192   7.529  12.844   4.455
45118SOL    HW137193   7.603  12.905   4.450
45118SOL    HW237194   7.536  12.792   4.376
45119SOL     OW37195   7.297   1.641   3.360
45119SOL    HW137196   7.318   1.552   3.332
45119SOL    HW237197   7.227   1.668   3.300
45120SOL     OW37198  12.906   5.318   1.033
45120SOL    HW137199  12.842   5.388   1.045
45120SOL    HW237200  12.963   5.323   1.110
45121SOL     OW37201   0.571   9.062   2.907
45121SOL    HW137202   0.637   8.998   2.932
45121SOL    HW237203   0.594   9.087   2.817
45122SOL     OW37204  13.901   0.538   0.780
45122SOL    HW137205  13.967   0.568   0.719
45122SOL    HW237206  13.948   0.481   0.841
45123SOL     OW37207   3.264  14.173   1.237
45123SOL    HW137208   3.351  14.199   1.265
45123SOL    HW237209   3.206  14.202   1.308
45124SOL     OW37210  11.345   1.532  12.674
45124SOL    HW137211  11.329   1.490  12.758
45124SOL    HW237212  11.258   1.550  12.639
45125SOL     OW37213  12.882  13.088   1.350
45125SOL    HW137214  12.835  13.078   1.267
45125SOL    HW237215  12.916  13.178   1.348
45126SOL     OW37216  14.543   7.613   3.475
45126SOL    HW137217  14.486   7.681   3.441
45126SOL    HW237218  14.500   7.581   3.554
45127SOL     OW37219  14.213   5.623   3.593
45127SOL    HW137220  14.221   5.693   3.528
45127SOL    HW237221  14.195   5.669   3.675
45128SOL     OW37222  13.958   9.229   8.775
45128SOL    HW137223  13.957   9.319   8.808
45128SOL    HW237224  13.915   9.234   8.690
45129SOL     OW37225   6.270   2.003   6.687
45129SOL    HW137226   6.279   1.909   6.669
45129SOL    HW237227   6.271   2.044   6.600
45130SOL     OW37228   6.304   4.577   2.049
45130SOL    HW137229   6.241   4.596   1.980
45130SOL    HW237230   6.298   4.482   2.063
45131SOL     OW37231  14.662   9.435   6.656
45131SOL    HW137232  14.726   9.456   6.588
45131SOL    HW237233  14.589   9.495   6.640
45132SOL     OW37234   8.316   2.845   2.350
45132SOL    HW137235   8.230   2.887   2.361
45132SOL    HW237236   8.375   2.899   2.402
45133SOL     OW37237  10.852   0.017   6.819
45133SOL    HW137238  10.900   0.098   6.837
45133SOL    HW237239  10.822  14.860   6.905
45134SOL     OW37240   4.174  14.332   2.571
45134SOL    HW137241   4.186  14.414   2.523
45134SOL    HW237242   4.233  14.339   2.646
45135SOL     OW37243   1.214  10.416  10.193
45135SOL    HW137244   1.126  10.427  10.230
45135SOL    HW237245   1.222  10.489  10.131
45136SOL     OW37246   3.675   5.275   0.267
45136SOL    HW137247   3.759   5.305   0.301
45136SOL    HW237248   3.694   5.248   0.177
45137SOL     OW37249  11.674  14.690   5.146
45137SOL    HW137250  11.677  14.605   5.103
45137SOL    HW237251  11.594  14.687   5.199
45138SOL     OW37252   3.342   1.910   3.019
45138SOL    HW137253   3.247   1.924   3.028
45138SOL    HW237254   3.364   1.851   3.091
45139SOL     OW37255   0.329   2.931   2.066
45139SOL    HW137256   0.272   2.999   2.031
45139SOL    HW237257   0.347   2.958   2.156
45140SOL     OW37258  14.351  11.080   3.398
45140SOL    HW137259  14.256  11.097   3.399
45140SOL    HW237260  14.385  11.129   3.472
45141SOL     OW37261   1.446   3.087   7.680
45141SOL    HW137262   1.459   3.002   7.636
45141SOL    HW237263   1.354   3.107   7.666
45142SOL     OW37264  13.568   3.612   7.880
45142SOL    HW137265  13.609   3.682   7.932
45142SOL    HW237266  13.633   3.591   7.814
45143SOL     OW37267  13.902   9.982  11.462
45143SOL    HW137268  13.839   9.913  11.443
45143SOL    HW237269  13.861  10.035  11.531
45144SOL     OW37270   2.640   2.240  13.506
45144SOL    HW137271   2.626   2.293  13.585
45144SOL    HW237272   2.551   2.222  13.474
45145SOL     OW37273   9.551   6.833  14.093
45145SOL    HW137274   9.492   6.796  14.159
45145SOL    HW237275   9.621   6.769  14.084
45146SOL     OW37276  10.619  12.491   2.469
45146SOL    HW137277  10.528  12.466   2.480
45146SOL    HW237278  10.662  12.458   2.549
45147SOL     OW37279   6.987  12.881   2.027
45147SOL    HW137280   6.995  12.791   1.994
45147SOL    HW237281   6.947  12.929   1.954
45148SOL     OW37282   3.252  10.025   6.904
45148SOL    HW137283   3.340  10.018   6.867
45148SOL    HW237284   3.267  10.048   6.996
45149SOL     OW37285   9.358   5.381   7.875
45149SOL    HW137286   9.290   5.326   7.914
45149SOL    HW237287   9.310   5.448   7.827
45150SOL     OW37288   3.800  13.723   4.204
45150SOL    HW137289   3.838  13.662   4.267
45150SOL    HW237290   3.875  13.764   4.161
45151SOL     OW37291  12.729  11.460  10.434
45151SOL    HW137292  12.740  11.435  10.525
45151SOL    HW237293  12.750  11.380  10.385
45152SOL     OW37294   7.707   3.861   2.605
45152SOL    HW137295   7.750   3.898   2.681
45152SOL    HW237296   7.678   3.937   2.554
45153SOL     OW37297   4.688  13.979   0.391
45153SOL    HW137298   4.707  14.046   0.457
45153SOL    HW237299   4.676  14.028   0.310
45154SOL     OW37300   7.774   4.623   5.886
45154SOL    HW137301   7.855   4.618   5.936
45154SOL    HW237302   7.801   4.658   5.800
45155SOL     OW37303   7.757   5.322   3.505
45155SOL    HW137304   7.667   5.305   3.477
45155SOL    HW237305   7.758   5.415   3.527
45156SOL     OW37306   3.587   9.266   5.552
45156SOL    HW137307   3.562   9.245   5.642
45156SOL    HW237308   3.667   9.318   5.560
45157SOL     OW37309   5.573   5.513  11.471
45157SOL    HW137310   5.608   5.577  11.533
45157SOL    HW237311   5.582   5.556  11.385
45158SOL     OW37312   5.887  11.218   7.144
45158SOL    HW137313   5.894  11.136   7.194
45158SOL    HW237314   5.886  11.287   7.210
45159SOL     OW37315   9.800   0.292   8.736
45159SOL    HW137316   9.844   0.251   8.811
45159SOL    HW237317   9.707   0.274   8.752
45160SOL     OW37318   2.442  11.886   7.768
45160SOL    HW137319   2.492  11.816   7.727
45160SOL    HW237320   2.374  11.842   7.819
45161SOL     OW37321  12.166  12.994   4.985
45161SOL    HW137322  12.235  12.971   4.922
45161SOL    HW237323  12.191  13.081   5.017
45162SOL     OW37324  12.782   4.603   9.795
45162SOL    HW137325  12.791   4.528   9.736
45162SOL    HW237326  12.789   4.679   9.739
45163SOL     OW37327   4.372   7.402   0.511
45163SOL    HW137328   4.298   7.385   0.569
45163SOL    HW237329   4.384   7.319   0.463
45164SOL     OW37330  11.876  13.520  12.362
45164SOL    HW137331  11.859  13.520  12.268
45164SOL    HW237332  11.943  13.452  12.375
45165SOL     OW37333   0.370   2.332   2.934
45165SOL    HW137334   0.298   2.372   2.984
45165SOL    HW237335   0.448   2.378   2.965
45166SOL     OW37336   8.833   2.052  11.377
45166SOL    HW137337   8.802   2.132  11.336
45166SOL    HW237338   8.768   2.033  11.445
45167SOL     OW37339   6.702  12.931  10.711
45167SOL    HW137340   6.721  12.912  10.619
45167SOL    HW237341   6.781  12.974  10.743
45168SOL     OW37342   1.713   2.170   7.195
45168SOL    HW137343   1.640   2.119   7.232
45168SOL    HW237344   1.742   2.118   7.120
45169SOL     OW37345   4.000   8.143   3.010
45169SOL    HW137346   3.920   8.188   2.985
45169SOL    HW237347   3.988   8.053   2.978
45170SOL     OW37348   9.867   8.188   3.039
45170SOL    HW137349   9.778   8.213   3.016
45170SOL    HW237350   9.867   8.186   3.135
45171SOL     OW37351   9.585   8.382   7.296
45171SOL    HW137352   9.547   8.294   7.301
45171SOL    HW237353   9.595   8.409   7.387
45172SOL     OW37354   2.406   9.121  11.227
45172SOL    HW137355   2.465   9.093  11.298
45172SOL    HW237356   2.372   9.039  11.191
45173SOL     OW37357   1.551   5.687   2.714
45173SOL    HW137358   1.501   5.655   2.790
45173SOL    HW237359   1.546   5.782   2.721
45174SOL     OW37360   1.395   4.551   9.743
45174SOL    HW137361   1.472   4.580   9.695
45174SOL    HW237362   1.371   4.468   9.701
45175SOL     OW37363   8.694   8.825   0.920
45175SOL    HW137364   8.614   8.777   0.940
45175SOL    HW237365   8.664   8.907   0.880
45176SOL     OW37366  11.938  10.204   5.714
45176SOL    HW137367  11.912  10.124   5.666
45176SOL    HW237368  11.862  10.261   5.706
45177SOL     OW37369  11.671   7.269   3.761
45177SOL    HW137370  11.703   7.192   3.809
45177SOL    HW237371  11.751   7.313   3.730
45178SOL     OW37372   9.483   4.422  11.917
45178SOL    HW137373   9.550   4.380  11.863
45178SOL    HW237374   9.401   4.403  11.873
45179SOL     OW37375  12.481   0.938  12.772
45179SOL    HW137376  12.562   0.947  12.822
45179SOL    HW237377  12.498   0.987  12.691
45180SOL     OW37378   1.113   2.513  12.631
45180SOL    HW137379   1.091   2.588  12.687
45180SOL    HW237380   1.175   2.549  12.567
45181SOL     OW37381  10.015   8.197  13.705
45181SOL    HW137382   9.953   8.264  13.675
45181SOL    HW237383   9.963   8.117  13.711
45182SOL     OW37384   7.643  13.710   9.393
45182SOL    HW137385   7.605  13.668   9.316
45182SOL    HW237386   7.571  13.715   9.456
45183SOL     OW37387  11.070  14.238   3.777
45183SOL    HW137388  11.136  14.305   3.790
45183SOL    HW237389  10.998  14.263   3.835
45184SOL     OW37390   2.792   7.430   0.177
45184SOL    HW137391   2.770   7.481   0.256
45184SOL    HW237392   2.788   7.494   0.106
45185SOL     OW37393   8.962   6.219   0.391
45185SOL    HW137394   8.913   6.173   0.459
45185SOL    HW237395   8.999   6.295   0.435
45186SOL     OW37396   5.343  13.078   2.681
45186SOL    HW137397   5.272  13.080   2.744
45186SOL    HW237398   5.336  12.992   2.639
45187SOL     OW37399  13.899  13.676   8.331
45187SOL    HW137400  13.902  13.622   8.410
45187SOL    HW237401  13.807  13.700   8.322
45188SOL     OW37402   1.533   8.520   7.447
45188SOL    HW137403   1.534   8.550   7.356
45188SOL    HW237404   1.517   8.426   7.442
45189SOL     OW37405  11.488  12.371   0.525
45189SOL    HW137406  11.574  12.329   0.535
45189SOL    HW237407  11.506  12.465   0.528
45190SOL     OW37408  11.640   3.348   2.984
45190SOL    HW137409  11.639   3.269   3.038
45190SOL    HW237410  11.571   3.403   3.022
45191SOL     OW37411   5.035  10.030   2.057
45191SOL    HW137412   5.114  10.016   2.006
45191SOL    HW237413   4.986  10.096   2.008
45192SOL     OW37414   2.764   2.479  13.873
45192SOL    HW137415   2.844   2.461  13.924
45192SOL    HW237416   2.773   2.570  13.846
45193SOL     OW37417   4.135   3.805   4.228
45193SOL    HW137418   4.057   3.845   4.266
45193SOL    HW237419   4.188   3.878   4.198
45194SOL     OW37420   6.321   3.212   4.560
45194SOL    HW137421   6.391   3.263   4.601
45194SOL    HW237422   6.337   3.220   4.466
45195SOL     OW37423   9.572   1.971   0.780
45195SOL    HW137424   9.495   2.016   0.745
45195SOL    HW237425   9.606   2.031   0.847
45196SOL     OW37426   7.814   5.883   2.033
45196SOL    HW137427   7.907   5.882   2.052
45196SOL    HW237428   7.789   5.976   2.037
45197SOL     OW37429   3.211  12.140   9.357
45197SOL    HW137430   3.161  12.143   9.439
45197SOL    HW237431   3.146  12.161   9.289
45198SOL     OW37432   1.768   9.913   7.872
45198SOL    HW137433   1.687   9.868   7.846
45198SOL    HW237434   1.738   9.987   7.925
45199SOL     OW37435  14.665   4.187   2.548
45199SOL    HW137436  14.691   4.117   2.608
45199SOL    HW237437  14.569   4.183   2.546
45200SOL     OW37438   2.970  13.614  10.533
45200SOL    HW137439   2.984  13.525  10.502
45200SOL    HW237440   3.053  13.639  10.574
45201SOL     OW37441  12.503   7.388  14.014
45201SOL    HW137442  12.430   7.428  13.966
45201SOL    HW237443  12.526   7.311  13.963
45202SOL     OW37444   3.793  11.325   5.802
45202SOL    HW137445   3.734  11.368   5.864
45202SOL    HW237446   3.871  11.305   5.852
45203SOL     OW37447   6.618   2.206  13.221
45203SOL    HW137448   6.584   2.128  13.176
45203SOL    HW237449   6.682   2.172  13.283
45204SOL     OW37450  12.700   3.427   6.910
45204SOL    HW137451  12.754   3.479   6.969
45204SOL    HW237452  12.615   3.470   6.909
45205SOL     OW37453  11.675   8.598   1.211
45205SOL    HW137454  11.682   8.589   1.306
45205SOL    HW237455  11.743   8.541   1.176
45206SOL     OW37456   4.004   0.814  14.767
45206SOL    HW137457   4.022   0.905  14.791
45206SOL    HW237458   3.914   0.815  14.736
45207SOL     OW37459  12.432   2.023  13.427
45207SOL    HW137460  12.354   2.010  13.482
45207SOL    HW237461  12.402   2.007  13.338
45208SOL     OW37462   9.382   0.290   0.004
45208SOL    HW137463   9.312   0.311  14.815
45208SOL    HW237464   9.338   0.286   0.089
45209SOL     OW37465   5.447   4.756  11.302
45209SOL    HW137466   5.488   4.793  11.224
45209SOL    HW237467   5.506   4.685  11.328
45210SOL     OW37468  13.200   4.805  12.956
45210SOL    HW137469  13.221   4.754  13.034
45210SOL    HW237470  13.175   4.740  12.891
45211SOL     OW37471  11.415   3.874  12.407
45211SOL    HW137472  11.367   3.926  12.472
45211SOL    HW237473  11.444   3.938  12.342
45212SOL     OW37474   5.098  10.448   7.632
45212SOL    HW137475   5.111  10.353   7.629
45212SOL    HW237476   5.033  10.461   7.701
45213SOL     OW37477  14.548  11.828   8.229
45213SOL    HW137478  14.495  11.773   8.286
45213SOL    HW237479  14.606  11.767   8.184
45214SOL     OW37480   4.567   0.907   5.511
45214SOL    HW137481   4.472   0.904   5.526
45214SOL    HW237482   4.605   0.903   5.599
45215SOL     OW37483   3.391   7.985  13.995
45215SOL    HW137484   3.298   8.007  14.004
45215SOL    HW237485   3.406   7.917  14.061
45216SOL     OW37486   0.325   7.707   5.994
45216SOL    HW137487   0.302   7.619   5.963
45216SOL    HW237488   0.381   7.691   6.070
45217SOL     OW37489   8.618  13.590  12.807
45217SOL    HW137490   8.608  13.685  12.805
45217SOL    HW237491   8.707  13.574  12.773
45218SOL     OW37492   8.480   6.321   3.923
45218SOL    HW137493   8.417   6.392   3.915
45218SOL    HW237494   8.564   6.365   3.938
45219SOL     OW37495  12.481  12.731   2.367
45219SOL    HW137496  12.453  12.779   2.289
45219SOL    HW237497  12.399  12.718   2.416
45220SOL     OW37498   6.713   7.912   0.048
45220SOL    HW137499   6.734   7.828   0.089
45220SOL    HW237500   6.679   7.888  14.835
45221SOL     OW37501  14.615   2.359   2.624
45221SOL    HW137502  14.657   2.306   2.556
45221SOL    HW237503  14.669   2.346   2.701
45222SOL     OW37504   9.248   7.099   4.553
45222SOL    HW137505   9.236   7.081   4.460
45222SOL    HW237506   9.191   7.174   4.570
45223SOL     OW37507   8.208  12.370   8.394
45223SOL    HW137508   8.157  12.345   8.317
45223SOL    HW237509   8.143  12.400   8.457
45224SOL     OW37510   0.921   1.319  12.595
45224SOL    HW137511   0.848   1.332  12.656
45224SOL    HW237512   0.987   1.383  12.622
45225SOL     OW37513   5.791  10.729   0.526
45225SOL    HW137514   5.821  10.820   0.525
45225SOL    HW237515   5.726  10.726   0.596
45226SOL     OW37516  14.315   3.492   5.393
45226SOL    HW137517  14.257   3.501   5.317
45226SOL    HW237518  14.393   3.543   5.370
45227SOL     OW37519   5.240   5.444   0.712
45227SOL    HW137520   5.263   5.351   0.706
45227SOL    HW237521   5.184   5.459   0.636
45228SOL     OW37522  10.483   0.365   1.822
45228SOL    HW137523  10.504   0.450   1.860
45228SOL    HW237524  10.390   0.371   1.798
45229SOL     OW37525   3.487  12.635   7.244
45229SOL    HW137526   3.398  12.668   7.238
45229SOL    HW237527   3.520  12.670   7.327
45230SOL     OW37528   8.390   8.219   2.944
45230SOL    HW137529   8.372   8.306   2.908
45230SOL    HW237530   8.318   8.203   3.005
45231SOL     OW37531  12.593   7.000   5.928
45231SOL    HW137532  12.592   6.971   6.019
45231SOL    HW237533  12.503   6.986   5.898
45232SOL     OW37534   8.523   0.198   4.184
45232SOL    HW137535   8.457   0.203   4.254
45232SOL    HW237536   8.484   0.141   4.118
45233SOL     OW37537   5.229   9.287  11.225
45233SOL    HW137538   5.168   9.215  11.212
45233SOL    HW237539   5.276   9.295  11.141
45234SOL     OW37540   2.779   7.273   8.784
45234SOL    HW137541   2.696   7.316   8.804
45234SOL    HW237542   2.789   7.207   8.853
45235SOL     OW37543   0.547  11.148   1.471
45235SOL    HW137544   0.464  11.129   1.515
45235SOL    HW237545   0.589  11.063   1.461
45236SOL     OW37546  12.886   6.901   1.595
45236SOL    HW137547  12.879   6.807   1.613
45236SOL    HW237548  12.975   6.913   1.563
45237SOL     OW37549   4.909  10.800   2.971
45237SOL    HW137550   4.917  10.790   2.876
45237SOL    HW237551   4.979  10.862   2.994
45238SOL     OW37552  14.715  11.916  12.499
45238SOL    HW137553  14.780  11.870  12.447
45238SOL    HW237554  14.651  11.947  12.435
45239SOL     OW37555  10.619   0.537  10.148
45239SOL    HW137556  10.665   0.464  10.191
45239SOL    HW237557  10.584   0.498  10.067
45240SOL     OW37558   2.522  13.951   6.621
45240SOL    HW137559   2.573  13.887   6.572
45240SOL    HW237560   2.436  13.951   6.579
45241SOL     OW37561  12.249   3.495   0.376
45241SOL    HW137562  12.302   3.524   0.450
45241SOL    HW237563  12.211   3.576   0.340
45242SOL     OW37564   2.461   9.728   7.995
45242SOL    HW137565   2.399   9.794   8.026
45242SOL    HW237566   2.528   9.725   8.064
45243SOL     OW37567   9.386   6.570   0.227
45243SOL    HW137568   9.343   6.574   0.313
45243SOL    HW237569   9.467   6.522   0.244
45244SOL     OW37570   0.341  13.782   4.591
45244SOL    HW137571   0.305  13.838   4.660
45244SOL    HW237572   0.409  13.837   4.550
45245SOL     OW37573   7.319  13.395   6.375
45245SOL    HW137574   7.405  13.437   6.372
45245SOL    HW237575   7.331  13.321   6.436
45246SOL     OW37576   0.105   4.142   6.305
45246SOL    HW137577   0.039   4.198   6.346
45246SOL    HW237578   0.106   4.170   6.213
45247SOL     OW37579   0.594  12.849  11.982
45247SOL    HW137580   0.619  12.816  11.895
45247SOL    HW237581   0.637  12.790  12.043
45248SOL     OW37582   5.510   5.466   0.658
45248SOL    HW137583   5.567   5.527   0.705
45248SOL    HW237584   5.442   5.444   0.722
45249SOL     OW37585  13.080  12.990   8.460
45249SOL    HW137586  13.156  12.934   8.477
45249SOL    HW237587  13.081  13.005   8.366
45250SOL     OW37588  14.735   5.233   9.768
45250SOL    HW137589  14.702   5.312   9.811
45250SOL    HW237590  14.669   5.212   9.702
45251SOL     OW37591  10.875  11.302   1.633
45251SOL    HW137592  10.900  11.393   1.615
45251SOL    HW237593  10.954  11.251   1.616
45252SOL     OW37594   8.384   2.696   6.984
45252SOL    HW137595   8.360   2.788   6.967
45252SOL    HW237596   8.390   2.690   7.079
45253SOL     OW37597   5.855   6.206  11.584
45253SOL    HW137598   5.803   6.281  11.611
45253SOL    HW237599   5.944   6.227  11.613
45254SOL     OW37600   3.668  11.266  13.718
45254SOL    HW137601   3.712  11.285  13.800
45254SOL    HW237602   3.697  11.334  13.658
45255SOL     OW37603   2.704   2.068   1.795
45255SOL    HW137604   2.733   2.143   1.847
45255SOL    HW237605   2.713   2.096   1.704
45256SOL     OW37606  11.876  11.552  13.536
45256SOL    HW137607  11.852  11.642  13.557
45256SOL    HW237608  11.871  11.547  13.440
45257SOL     OW37609   6.012   3.818   6.188
45257SOL    HW137610   6.028   3.737   6.236
45257SOL    HW237611   5.932   3.853   6.226
45258SOL     OW37612   1.540   5.310   1.113
45258SOL    HW137613   1.635   5.296   1.122
45258SOL    HW237614   1.529   5.331   1.020
45259SOL     OW37615   8.638   7.963  10.294
45259SOL    HW137616   8.732   7.980  10.301
45259SOL    HW237617   8.596   8.039  10.335
45260SOL     OW37618   7.737  13.038   5.723
45260SOL    HW137619   7.750  12.947   5.749
45260SOL    HW237620   7.721  13.035   5.629
45261SOL     OW37621   5.175   1.837  12.417
45261SOL    HW137622   5.175   1.741  12.423
45261SOL    HW237623   5.093   1.857  12.371
45262SOL     OW37624  12.880   0.742  11.515
45262SOL    HW137625  12.790   0.715  11.533
45262SOL    HW237626  12.913   0.677  11.453
45263SOL     OW37627   4.790   1.351  10.022
45263SOL    HW137628   4.725   1.312  10.081
45263SOL    HW237629   4.803   1.285   9.954
45264SOL     OW37630   9.139  12.412  13.986
45264SOL    HW137631   9.103  12.337  13.939
45264SOL    HW237632   9.067  12.444  14.040
45265SOL     OW37633   9.804   5.589   7.029
45265SOL    HW137634   9.827   5.496   7.019
45265SOL    HW237635   9.865   5.636   6.973
45266SOL     OW37636  12.683   2.656  14.045
45266SOL    HW137637  12.686   2.741  14.089
45266SOL    HW237638  12.748   2.662  13.975
45267SOL     OW37639  11.732   6.678   8.674
45267SOL    HW137640  11.650   6.693   8.627
45267SOL    HW237641  11.745   6.583   8.668
45268SOL     OW37642   9.546  13.266   6.890
45268SOL    HW137643   9.629  13.246   6.933
45268SOL    HW237644   9.496  13.185   6.896
45269SOL     OW37645  11.987   7.614  11.494
45269SOL    HW137646  12.028   7.531  11.516
45269SOL    HW237647  11.906   7.590  11.450
45270SOL     OW37648   2.831  10.459   3.857
45270SOL    HW137649   2.906  10.442   3.914
45270SOL    HW237650   2.856  10.536   3.806
45271SOL     OW37651  13.590   6.771   6.132
45271SOL    HW137652  13.576   6.774   6.037
45271SOL    HW237653  13.660   6.835   6.148
45272SOL     OW37654   5.571   4.708  11.950
45272SOL    HW137655   5.662   4.737  11.954
45272SOL    HW237656   5.554   4.693  11.857
45273SOL     OW37657   8.170   9.135  11.804
45273SOL    HW137658   8.091   9.157  11.754
45273SOL    HW237659   8.164   9.040  11.818
45274SOL     OW37660   0.911  14.499   4.503
45274SOL    HW137661   0.865  14.442   4.442
45274SOL    HW237662   0.955  14.439   4.564
45275SOL     OW37663   3.063  12.177   8.474
45275SOL    HW137664   3.155  12.151   8.470
45275SOL    HW237665   3.065  12.263   8.517
45276SOL     OW37666   8.856  14.015   2.736
45276SOL    HW137667   8.795  13.986   2.668
45276SOL    HW237668   8.914  13.941   2.749
45277SOL     OW37669  13.201  11.160  12.140
45277SOL    HW137670  13.250  11.222  12.195
45277SOL    HW237671  13.110  11.175  12.163
45278SOL     OW37672   8.950   4.587   1.233
45278SOL    HW137673   8.865   4.597   1.190
45278SOL    HW237674   8.971   4.676   1.264
45279SOL     OW37675   4.189   9.387  10.875
45279SOL    HW137676   4.101   9.411  10.904
45279SOL    HW237677   4.189   9.291  10.875
45280SOL     OW37678  10.049   8.885   3.456
45280SOL    HW137679  10.037   8.840   3.540
45280SOL    HW237680  10.094   8.966   3.479
45281SOL     OW37681  14.592  13.724   3.764
45281SOL    HW137682  14.650  13.725   3.840
45281SOL    HW237683  14.537  13.801   3.773
45282SOL     OW37684   8.943  11.015  11.782
45282SOL    HW137685   8.987  11.068  11.715
45282SOL    HW237686   8.964  11.060  11.864
45283SOL     OW37687   1.732  13.421  11.617
45283SOL    HW137688   1.723  13.351  11.552
45283SOL    HW237689   1.645  13.428  11.656
45284SOL     OW37690   7.230   2.695  12.114
45284SOL    HW137691   7.163   2.707  12.182
45284SOL    HW237692   7.240   2.600  12.108
45285SOL     OW37693  14.250   6.454  10.868
45285SOL    HW137694  14.285   6.388  10.928
45285SOL    HW237695  14.272   6.538  10.908
45286SOL     OW37696   3.437   2.929   5.768
45286SOL    HW137697   3.362   2.873   5.746
45286SOL    HW237698   3.512   2.870   5.769
45287SOL     OW37699   0.859   0.148   7.157
45287SOL    HW137700   0.870   0.211   7.087
45287SOL    HW237701   0.775   0.170   7.198
45288SOL     OW37702  10.737   9.824   3.713
45288SOL    HW137703  10.652   9.855   3.745
45288SOL    HW237704  10.723   9.731   3.696
45289SOL     OW37705   1.621   1.939   9.423
45289SOL    HW137706   1.602   1.861   9.474
45289SOL    HW237707   1.686   1.911   9.359
45290SOL     OW37708   7.283   3.320  10.110
45290SOL    HW137709   7.369   3.336  10.071
45290SOL    HW237710   7.237   3.404  10.102
45291SOL     OW37711   2.455  11.452   2.740
45291SOL    HW137712   2.451  11.502   2.658
45291SOL    HW237713   2.503  11.372   2.718
45292SOL     OW37714   6.856  10.743   2.008
45292SOL    HW137715   6.946  10.721   2.035
45292SOL    HW237716   6.867  10.791   1.926
45293SOL     OW37717  12.625  10.911   3.869
45293SOL    HW137718  12.603  10.987   3.922
45293SOL    HW237719  12.691  10.864   3.921
45294SOL     OW37720   7.902   1.753   9.245
45294SOL    HW137721   7.824   1.806   9.227
45294SOL    HW237722   7.873   1.689   9.311
45295SOL     OW37723   8.429   1.050   8.037
45295SOL    HW137724   8.364   1.012   7.979
45295SOL    HW237725   8.425   1.144   8.020
45296SOL     OW37726   3.474  14.705   5.924
45296SOL    HW137727   3.552  14.693   5.870
45296SOL    HW237728   3.507  14.707   6.014
45297SOL     OW37729   5.900  12.861  14.301
45297SOL    HW137730   5.928  12.772  14.320
45297SOL    HW237731   5.872  12.858  14.210
45298SOL     OW37732  10.220  13.191   4.034
45298SOL    HW137733  10.191  13.133   3.963
45298SOL    HW237734  10.150  13.188   4.099
45299SOL     OW37735   2.409   6.364   3.438
45299SOL    HW137736   2.465   6.374   3.515
45299SOL    HW237737   2.348   6.438   3.443
45300SOL     OW37738  13.325  12.718   5.330
45300SOL    HW137739  13.302  12.688   5.243
45300SOL    HW237740  13.271  12.796   5.344
45301SOL     OW37741  11.472  10.906   2.340
45301SOL    HW137742  11.450  10.999   2.346
45301SOL    HW237743  11.431  10.867   2.418
45302SOL     OW37744   1.836   6.839  13.814
45302SOL    HW137745   1.774   6.776  13.851
45302SOL    HW237746   1.794   6.924  13.825
45303SOL     OW37747   1.779   7.144  10.074
45303SOL    HW137748   1.761   7.191   9.993
45303SOL    HW237749   1.701   7.091  10.089
45304SOL     OW37750  13.869  13.984   7.609
45304SOL    HW137751  13.925  13.989   7.532
45304SOL    HW237752  13.848  14.075   7.629
45305SOL     OW37753   0.726  10.428   9.455
45305SOL    HW137754   0.727  10.403   9.548
45305SOL    HW237755   0.637  10.409   9.426
45306SOL     OW37756   6.271   8.291  11.431
45306SOL    HW137757   6.257   8.230  11.504
45306SOL    HW237758   6.359   8.270  11.399
45307SOL     OW37759   3.481  13.991  11.393
45307SOL    HW137760   3.436  13.934  11.331
45307SOL    HW237761   3.416  14.012  11.459
45308SOL     OW37762  14.341   8.070  13.086
45308SOL    HW137763  14.305   7.989  13.123
45308SOL    HW237764  14.382   8.115  13.160
45309SOL     OW37765   8.442   3.392  10.805
45309SOL    HW137766   8.466   3.385  10.898
45309SOL    HW237767   8.407   3.481  10.796
45310SOL     OW37768  13.484   9.196  10.574
45310SOL    HW137769  13.569   9.205  10.531
45310SOL    HW237770  13.430   9.263  10.533
45311SOL     OW37771  13.059   9.724  12.180
45311SOL    HW137772  13.123   9.716  12.251
45311SOL    HW237773  13.039   9.818  12.177
45312SOL     OW37774   4.926  11.126   4.023
45312SOL    HW137775   4.915  11.202   4.080
45312SOL    HW237776   4.876  11.056   4.065
45313SOL     OW37777  13.186   4.181   9.067
45313SOL    HW137778  13.255   4.226   9.116
45313SOL    HW237779  13.194   4.215   8.978
45314SOL     OW37780   3.346  11.357  14.165
45314SOL    HW137781   3.386  11.300  14.101
45314SOL    HW237782   3.255  11.367  14.136
45315SOL     OW37783   3.098   0.592   5.008
45315SOL    HW137784   3.073   0.510   5.051
45315SOL    HW237785   3.055   0.589   4.923
45316SOL     OW37786   0.644   4.122   5.827
45316SOL    HW137787   0.588   4.129   5.750
45316SOL    HW237788   0.666   4.212   5.848
45317SOL     OW37789   4.459   9.810   0.854
45317SOL    HW137790   4.525   9.770   0.911
45317SOL    HW237791   4.381   9.817   0.909
45318SOL     OW37792   9.918   0.836  12.954
45318SOL    HW137793   9.885   0.924  12.938
45318SOL    HW237794   9.939   0.834  13.047
45319SOL     OW37795   7.968   9.197   8.146
45319SOL    HW137796   7.933   9.108   8.142
45319SOL    HW237797   8.044   9.190   8.204
45320SOL     OW37798   8.216   1.110   4.249
45320SOL    HW137799   8.207   1.081   4.158
45320SOL    HW237800   8.309   1.127   4.259
45321SOL     OW37801  11.239   5.788   6.567
45321SOL    HW137802  11.155   5.794   6.613
45321SOL    HW237803  11.255   5.877   6.534
45322SOL     OW37804   9.602  12.905  13.327
45322SOL    HW137805   9.676  12.880  13.271
45322SOL    HW237806   9.529  12.850  13.297
45323SOL     OW37807   7.654   6.750  11.835
45323SOL    HW137808   7.597   6.696  11.780
45323SOL    HW237809   7.740   6.709  11.826
45324SOL     OW37810  10.015  12.295  10.154
45324SOL    HW137811   9.934  12.248  10.136
45324SOL    HW237812   9.990  12.364  10.215
45325SOL     OW37813  12.629   1.272   1.373
45325SOL    HW137814  12.658   1.345   1.428
45325SOL    HW237815  12.533   1.276   1.377
45326SOL     OW37816   1.985   9.164  13.904
45326SOL    HW137817   1.979   9.212  13.822
45326SOL    HW237818   2.027   9.081  13.882
45327SOL     OW37819   8.051   9.286   7.605
45327SOL    HW137820   7.958   9.302   7.619
45327SOL    HW237821   8.066   9.311   7.514
45328SOL     OW37822   4.258  14.264   5.286
45328SOL    HW137823   4.298  14.350   5.290
45328SOL    HW237824   4.266  14.230   5.375
45329SOL     OW37825   2.560  12.912   4.599
45329SOL    HW137826   2.570  12.979   4.530
45329SOL    HW237827   2.490  12.945   4.654
45330SOL     OW37828  13.400   0.420   4.318
45330SOL    HW137829  13.407   0.374   4.402
45330SOL    HW237830  13.308   0.446   4.313
45331SOL     OW37831  11.791   6.477   4.934
45331SOL    HW137832  11.866   6.441   4.982
45331SOL    HW237833  11.720   6.478   4.999
45332SOL     OW37834   3.231  12.451  11.288
45332SOL    HW137835   3.217  12.466  11.194
45332SOL    HW237836   3.193  12.365  11.304
45333SOL     OW37837   8.040  11.418   2.736
45333SOL    HW137838   8.025  11.485   2.802
45333SOL    HW237839   8.104  11.358   2.776
45334SOL     OW37840  12.475   2.752   7.016
45334SOL    HW137841  12.455   2.841   6.987
45334SOL    HW237842  12.570   2.745   7.010
45335SOL     OW37843   6.517   4.136  13.882
45335SOL    HW137844   6.520   4.119  13.977
45335SOL    HW237845   6.486   4.055  13.843
45336SOL     OW37846   7.172  10.147   4.256
45336SOL    HW137847   7.192  10.188   4.340
45336SOL    HW237848   7.117  10.072   4.278
45337SOL     OW37849   0.341   9.769   5.224
45337SOL    HW137850   0.420   9.718   5.244
45337SOL    HW237851   0.271   9.704   5.216
45338SOL     OW37852  10.937   8.389   0.746
45338SOL    HW137853  10.983   8.400   0.663
45338SOL    HW237854  10.851   8.355   0.722
45339SOL     OW37855   3.776   9.847   1.025
45339SOL    HW137856   3.794   9.753   1.035
45339SOL    HW237857   3.682   9.855   1.036
45340SOL     OW37858   8.941   8.465   1.307
45340SOL    HW137859   8.909   8.496   1.222
45340SOL    HW237860   8.896   8.381   1.320
45341SOL     OW37861  12.970   0.468  14.859
45341SOL    HW137862  13.024   0.535  14.816
45341SOL    HW237863  13.006   0.460   0.074
45342SOL     OW37864   3.885  14.285  14.059
45342SOL    HW137865   3.852  14.215  14.116
45342SOL    HW237866   3.806  14.324  14.022
45343SOL     OW37867   8.176   1.412   2.538
45343SOL    HW137868   8.147   1.443   2.452
45343SOL    HW237869   8.099   1.422   2.594
45344SOL     OW37870  11.956   2.500   7.557
45344SOL    HW137871  11.936   2.408   7.572
45344SOL    HW237872  12.048   2.500   7.530
45345SOL     OW37873   9.326   6.143   0.610
45345SOL    HW137874   9.421   6.134   0.619
45345SOL    HW237875   9.307   6.108   0.523
45346SOL     OW37876   0.292  10.339  13.522
45346SOL    HW137877   0.216  10.368  13.573
45346SOL    HW237878   0.262  10.341  13.431
45347SOL     OW37879   2.368   4.226   3.939
45347SOL    HW137880   2.396   4.145   3.896
45347SOL    HW237881   2.375   4.207   4.032
45348SOL     OW37882   1.786   5.189   1.055
45348SOL    HW137883   1.840   5.147   1.122
45348SOL    HW237884   1.829   5.167   0.972
45349SOL     OW37885  14.763   9.861  13.035
45349SOL    HW137886  14.723   9.912  12.964
45349SOL    HW237887  14.807   9.925  13.090
45350SOL     OW37888  13.479  11.068  11.464
45350SOL    HW137889  13.535  11.058  11.387
45350SOL    HW237890  13.424  11.143  11.444
45351SOL     OW37891  11.711  12.172   7.634
45351SOL    HW137892  11.668  12.227   7.569
45351SOL    HW237893  11.804  12.175   7.612
45352SOL     OW37894   6.323   1.742  14.314
45352SOL    HW137895   6.354   1.829  14.340
45352SOL    HW237896   6.235   1.757  14.280
45353SOL     OW37897   1.880   2.051  14.701
45353SOL    HW137898   1.861   1.982  14.765
45353SOL    HW237899   1.856   2.132  14.746
45354SOL     OW37900  14.145   4.860   8.756
45354SOL    HW137901  14.226   4.901   8.785
45354SOL    HW237902  14.078   4.898   8.813
45355SOL     OW37903   2.504   4.123   5.563
45355SOL    HW137904   2.597   4.141   5.557
45355SOL    HW237905   2.497   4.027   5.562
45356SOL     OW37906   6.913   0.522   0.645
45356SOL    HW137907   6.942   0.474   0.567
45356SOL    HW237908   6.974   0.494   0.714
45357SOL     OW37909  13.463   3.719   7.050
45357SOL    HW137910  13.534   3.769   7.010
45357SOL    HW237911  13.479   3.629   7.025
45358SOL     OW37912   1.828   7.005  14.871
45358SOL    HW137913   1.750   7.017   0.052
45358SOL    HW237914   1.902   7.023   0.057
45359SOL     OW37915  13.181   2.891   7.061
45359SOL    HW137916  13.201   2.868   7.152
45359SOL    HW237917  13.266   2.902   7.019
45360SOL     OW37918   8.284   5.980   6.376
45360SOL    HW137919   8.287   5.985   6.472
45360SOL    HW237920   8.207   6.033   6.352
45361SOL     OW37921   9.047   1.074   0.733
45361SOL    HW137922   9.033   1.051   0.641
45361SOL    HW237923   9.110   1.146   0.730
45362SOL     OW37924   0.299   5.991   2.214
45362SOL    HW137925   0.306   5.916   2.273
45362SOL    HW237926   0.376   6.045   2.235
45363SOL     OW37927   4.786  14.365  13.223
45363SOL    HW137928   4.773  14.459  13.208
45363SOL    HW237929   4.723  14.322  13.166
45364SOL     OW37930   8.776   8.767   3.978
45364SOL    HW137931   8.854   8.735   4.023
45364SOL    HW237932   8.808   8.800   3.894
45365SOL     OW37933  13.697  11.643  14.431
45365SOL    HW137934  13.671  11.556  14.401
45365SOL    HW237935  13.641  11.660  14.507
45366SOL     OW37936   3.475   3.482   6.329
45366SOL    HW137937   3.477   3.577   6.315
45366SOL    HW237938   3.567   3.458   6.339
45367SOL     OW37939   4.032   8.883  11.379
45367SOL    HW137940   4.039   8.911  11.471
45367SOL    HW237941   3.948   8.838  11.375
45368SOL     OW37942   7.432   5.516  14.685
45368SOL    HW137943   7.355   5.492  14.737
45368SOL    HW237944   7.488   5.438  14.687
45369SOL     OW37945  11.543   6.213  14.676
45369SOL    HW137946  11.628   6.170  14.685
45369SOL    HW237947  11.522   6.205  14.583
45370SOL     OW37948  11.385   8.613   8.527
45370SOL    HW137949  11.399   8.686   8.466
45370SOL    HW237950  11.304   8.572   8.496
45371SOL     OW37951   3.149  13.722   7.561
45371SOL    HW137952   3.181  13.751   7.476
45371SOL    HW237953   3.224  13.679   7.602
45372SOL     OW37954  12.632   3.614  10.968
45372SOL    HW137955  12.583   3.531  10.975
45372SOL    HW237956  12.680   3.620  11.051
45373SOL     OW37957   8.490   0.214  12.658
45373SOL    HW137958   8.419   0.252  12.606
45373SOL    HW237959   8.567   0.266  12.633
45374SOL     OW37960   4.573   8.968   2.644
45374SOL    HW137961   4.516   8.908   2.595
45374SOL    HW237962   4.562   9.052   2.602
45375SOL     OW37963   7.441  14.484   3.536
45375SOL    HW137964   7.414  14.459   3.447
45375SOL    HW237965   7.465  14.576   3.528
45376SOL     OW37966   7.582   0.518   6.791
45376SOL    HW137967   7.650   0.560   6.738
45376SOL    HW237968   7.599   0.425   6.783
45377SOL     OW37969   8.301   2.607   1.888
45377SOL    HW137970   8.372   2.618   1.824
45377SOL    HW237971   8.330   2.656   1.965
45378SOL     OW37972  14.738   5.567   7.980
45378SOL    HW137973  14.701   5.478   7.974
45378SOL    HW237974  14.743   5.597   7.890
45379SOL     OW37975   4.925   2.226   5.620
45379SOL    HW137976   4.923   2.184   5.534
45379SOL    HW237977   4.845   2.197   5.663
45380SOL     OW37978   2.007   3.646  12.724
45380SOL    HW137979   1.929   3.697  12.744
45380SOL    HW237980   2.079   3.709  12.731
45381SOL     OW37981   8.041   8.890   3.387
45381SOL    HW137982   8.113   8.887   3.323
45381SOL    HW237983   7.994   8.971   3.366
45382SOL     OW37984   9.258   3.973   0.517
45382SOL    HW137985   9.196   4.037   0.480
45382SOL    HW237986   9.309   3.943   0.442
45383SOL     OW37987  14.582   2.936   0.521
45383SOL    HW137988  14.604   2.844   0.532
45383SOL    HW237989  14.487   2.937   0.508
45384SOL     OW37990  11.082  13.602   9.843
45384SOL    HW137991  11.003  13.648   9.871
45384SOL    HW237992  11.057  13.510   9.839
45385SOL     OW37993  12.775   0.501   5.012
45385SOL    HW137994  12.742   0.486   5.101
45385SOL    HW237995  12.869   0.517   5.025
45386SOL     OW37996   1.123  10.957  14.578
45386SOL    HW137997   1.111  10.946  14.484
45386SOL    HW237998   1.157  11.046  14.588
45387SOL     OW37999  13.858   9.278  13.670
45387SOL    HW138000  13.905   9.329  13.736
45387SOL    HW238001  13.793   9.339  13.635
45388SOL     OW38002   7.503   9.203   9.332
45388SOL    HW138003   7.482   9.151   9.410
45388SOL    HW238004   7.431   9.265   9.324
45389SOL     OW38005   6.712   1.556  12.598
45389SOL    HW138006   6.780   1.612  12.635
45389SOL    HW238007   6.678   1.606  12.524
45390SOL     OW38008   7.838   2.070   7.406
45390SOL    HW138009   7.873   2.114   7.329
45390SOL    HW238010   7.766   2.127   7.435
45391SOL     OW38011   7.807  12.028   1.657
45391SOL    HW138012   7.782  12.120   1.647
45391SOL    HW238013   7.792  12.008   1.750
45392SOL     OW38014  13.936   7.975  12.932
45392SOL    HW138015  13.976   7.888  12.930
45392SOL    HW238016  13.889   7.982  12.849
45393SOL     OW38017   1.642   7.692   0.218
45393SOL    HW138018   1.582   7.712   0.146
45393SOL    HW238019   1.599   7.620   0.265
45394SOL     OW38020   4.332   6.204   7.603
45394SOL    HW138021   4.414   6.231   7.561
45394SOL    HW238022   4.353   6.123   7.648
45395SOL     OW38023   5.004  11.402  12.209
45395SOL    HW138024   5.096  11.393  12.181
45395SOL    HW238025   5.001  11.486  12.254
45396SOL     OW38026   2.949   8.689   3.409
45396SOL    HW138027   3.043   8.695   3.394
45396SOL    HW238028   2.925   8.775   3.443
45397SOL     OW38029   9.080  12.148   7.356
45397SOL    HW138030   9.066  12.117   7.446
45397SOL    HW238031   8.994  12.138   7.314
45398SOL     OW38032   1.198   7.367   5.828
45398SOL    HW138033   1.150   7.389   5.748
45398SOL    HW238034   1.214   7.273   5.821
45399SOL     OW38035   6.208  14.389  10.867
45399SOL    HW138036   6.188  14.302  10.833
45399SOL    HW238037   6.125  14.420  10.903
45400SOL     OW38038  12.554   5.499   2.656
45400SOL    HW138039  12.482   5.448   2.695
45400SOL    HW238040  12.557   5.470   2.565
45401SOL     OW38041   7.189  13.342   0.721
45401SOL    HW138042   7.156  13.402   0.654
45401SOL    HW238043   7.176  13.255   0.683
45402SOL     OW38044   2.947   5.903   6.665
45402SOL    HW138045   3.039   5.928   6.665
45402SOL    HW238046   2.932   5.866   6.577
45403SOL     OW38047  14.645   8.056   2.497
45403SOL    HW138048  14.634   8.145   2.529
45403SOL    HW238049  14.596   8.053   2.415
45404SOL     OW38050  13.255  14.302  14.641
45404SOL    HW138051  13.184  14.280  14.581
45404SOL    HW238052  13.232  14.257  14.722
45405SOL     OW38053  14.132   2.078  10.482
45405SOL    HW138054  14.150   2.102  10.391
45405SOL    HW238055  14.192   2.005  10.499
45406SOL     OW38056   6.669  13.823   6.922
45406SOL    HW138057   6.652  13.898   6.979
45406SOL    HW238058   6.597  13.763   6.941
45407SOL     OW38059   5.711   1.255   2.006
45407SOL    HW138060   5.771   1.328   1.989
45407SOL    HW238061   5.625   1.290   1.985
45408SOL     OW38062   0.855   2.583   6.651
45408SOL    HW138063   0.946   2.553   6.648
45408SOL    HW238064   0.860   2.677   6.669
45409SOL     OW38065   8.725   4.003   0.077
45409SOL    HW138066   8.677   3.949   0.014
45409SOL    HW238067   8.688   4.091   0.066
45410SOL     OW38068   7.882  13.590   1.541
45410SOL    HW138069   7.894  13.632   1.627
45410SOL    HW238070   7.966  13.548   1.523
45411SOL     OW38071   0.979  12.229   0.263
45411SOL    HW138072   1.041  12.157   0.251
45411SOL    HW238073   0.895  12.185   0.276
45412SOL     OW38074   8.245   0.397   5.214
45412SOL    HW138075   8.197   0.347   5.280
45412SOL    HW238076   8.235   0.488   5.242
45413SOL     OW38077  10.109   8.099  12.473
45413SOL    HW138078  10.169   8.105  12.399
45413SOL    HW238079  10.157   8.138  12.546
45414SOL     OW38080  10.617   4.399   5.150
45414SOL    HW138081  10.578   4.312   5.163
45414SOL    HW238082  10.609   4.415   5.056
45415SOL     OW38083   4.278   7.969   4.910
45415SOL    HW138084   4.201   7.955   4.965
45415SOL    HW238085   4.351   7.972   4.971
45416SOL     OW38086  12.314   3.977   8.894
45416SOL    HW138087  12.383   3.944   8.951
45416SOL    HW238088  12.357   3.990   8.810
45417SOL     OW38089  14.025   7.385  11.378
45417SOL    HW138090  13.990   7.472  11.400
45417SOL    HW238091  13.974   7.325  11.432
45418SOL     OW38092  13.109  11.880   0.692
45418SOL    HW138093  13.072  11.793   0.680
45418SOL    HW238094  13.060  11.935   0.630
45419SOL     OW38095   6.735   9.866   9.393
45419SOL    HW138096   6.808   9.804   9.401
45419SOL    HW238097   6.702   9.854   9.304
45420SOL     OW38098   5.149   1.439  13.446
45420SOL    HW138099   5.167   1.529  13.472
45420SOL    HW238100   5.152   1.389  13.527
45421SOL     OW38101  10.847  10.618   8.026
45421SOL    HW138102  10.942  10.626   8.016
45421SOL    HW238103  10.835  10.594   8.118
45422SOL     OW38104   0.181  10.114   1.616
45422SOL    HW138105   0.168  10.187   1.556
45422SOL    HW238106   0.224  10.047   1.563
45423SOL     OW38107   8.598   4.785   6.881
45423SOL    HW138108   8.621   4.784   6.974
45423SOL    HW238109   8.565   4.874   6.866
45424SOL     OW38110  12.201   2.183   9.435
45424SOL    HW138111  12.272   2.214   9.380
45424SOL    HW238112  12.187   2.092   9.408
45425SOL     OW38113   1.247  13.271   4.048
45425SOL    HW138114   1.200  13.194   4.077
45425SOL    HW238115   1.191  13.345   4.072
45426SOL     OW38116  10.643   4.464  11.251
45426SOL    HW138117  10.715   4.527  11.249
45426SOL    HW238118  10.589   4.492  11.325
45427SOL     OW38119  11.469   2.347   0.081
45427SOL    HW138120  11.392   2.351   0.024
45427SOL    HW238121  11.496   2.439   0.091
45428SOL     OW38122   9.380   2.426   4.692
45428SOL    HW138123   9.294   2.437   4.651
45428SOL    HW238124   9.409   2.515   4.712
45429SOL     OW38125  12.700   4.503   4.159
45429SOL    HW138126  12.655   4.582   4.129
45429SOL    HW238127  12.793   4.524   4.153
45430SOL     OW38128   1.286  12.698   8.858
45430SOL    HW138129   1.285  12.654   8.943
45430SOL    HW238130   1.225  12.771   8.868
45431SOL     OW38131  13.553   1.849  14.685
45431SOL    HW138132  13.589   1.779  14.740
45431SOL    HW238133  13.464   1.819  14.663
45432SOL     OW38134  11.502  13.635  13.498
45432SOL    HW138135  11.441  13.562  13.493
45432SOL    HW238136  11.460  13.697  13.558
45433SOL     OW38137  14.709  14.730   6.060
45433SOL    HW138138  14.647  14.781   6.113
45433SOL    HW238139  14.779  14.707   6.121
45434SOL     OW38140   1.070   4.891   1.114
45434SOL    HW138141   1.127   4.913   1.187
45434SOL    HW238142   1.039   4.975   1.080
45435SOL     OW38143   0.691  14.248  12.267
45435SOL    HW138144   0.655  14.175  12.318
45435SOL    HW238145   0.784  14.226  12.258
45436SOL     OW38146   4.242   3.787   9.664
45436SOL    HW138147   4.153   3.808   9.637
45436SOL    HW238148   4.263   3.851   9.731
45437SOL     OW38149  11.986   4.218   0.060
45437SOL    HW138150  11.934   4.163   0.118
45437SOL    HW238151  12.058   4.162   0.031
45438SOL     OW38152  11.676  12.369  11.152
45438SOL    HW138153  11.746  12.326  11.103
45438SOL    HW238154  11.721  12.426  11.213
45439SOL     OW38155   0.864  12.687   8.893
45439SOL    HW138156   0.839  12.645   8.975
45439SOL    HW238157   0.788  12.740   8.869
45440SOL     OW38158   8.752  13.399  14.858
45440SOL    HW138159   8.664  13.425  14.829
45440SOL    HW238160   8.807  13.408  14.780
45441SOL     OW38161  11.662   6.431   5.488
45441SOL    HW138162  11.717   6.388   5.423
45441SOL    HW238163  11.719   6.495   5.531
45442SOL     OW38164   3.708   5.838   8.213
45442SOL    HW138165   3.633   5.855   8.270
45442SOL    HW238166   3.680   5.868   8.126
45443SOL     OW38167  12.263   8.150  13.858
45443SOL    HW138168  12.335   8.087  13.851
45443SOL    HW238169  12.197   8.118  13.796
45444SOL     OW38170   2.505   6.248  12.040
45444SOL    HW138171   2.460   6.310  11.983
45444SOL    HW238172   2.482   6.276  12.129
45445SOL     OW38173   0.735   9.997  13.792
45445SOL    HW138174   0.768  10.023  13.706
45445SOL    HW238175   0.792   9.925  13.819
45446SOL     OW38176   2.466   6.963   9.663
45446SOL    HW138177   2.423   6.908   9.597
45446SOL    HW238178   2.397   6.983   9.726
45447SOL     OW38179   1.660  10.173  13.614
45447SOL    HW138180   1.730  10.111  13.632
45447SOL    HW238181   1.705  10.254  13.590
45448SOL     OW38182  12.511   3.843   9.051
45448SOL    HW138183  12.605   3.863   9.053
45448SOL    HW238184  12.505   3.752   9.083
45449SOL     OW38185   6.692   0.853   7.535
45449SOL    HW138186   6.615   0.847   7.479
45449SOL    HW238187   6.766   0.839   7.477
45450SOL     OW38188  10.873   7.987  14.487
45450SOL    HW138189  10.783   8.013  14.470
45450SOL    HW238190  10.920   8.070  14.497
45451SOL     OW38191  12.052   6.944   2.037
45451SOL    HW138192  12.067   6.892   1.958
45451SOL    HW238193  11.990   7.011   2.009
45452SOL     OW38194   7.109   3.634   3.085
45452SOL    HW138195   7.085   3.696   3.155
45452SOL    HW238196   7.152   3.688   3.019
45453SOL     OW38197   5.463   5.642   4.374
45453SOL    HW138198   5.502   5.698   4.441
45453SOL    HW238199   5.452   5.557   4.418
45454SOL     OW38200   5.389   5.368  14.709
45454SOL    HW138201   5.453   5.307  14.673
45454SOL    HW238202   5.441   5.428  14.763
45455SOL     OW38203   8.238   7.913   6.412
45455SOL    HW138204   8.289   7.857   6.470
45455SOL    HW238205   8.269   7.890   6.324
45456SOL     OW38206   6.294   5.665  13.698
45456SOL    HW138207   6.224   5.661  13.633
45456SOL    HW238208   6.375   5.661  13.647
45457SOL     OW38209  12.573   9.863   7.362
45457SOL    HW138210  12.504   9.810   7.322
45457SOL    HW238211  12.626   9.799   7.411
45458SOL     OW38212  12.593   6.672   0.982
45458SOL    HW138213  12.591   6.580   0.957
45458SOL    HW238214  12.644   6.715   0.914
45459SOL     OW38215   6.160  13.299  11.536
45459SOL    HW138216   6.141  13.330  11.447
45459SOL    HW238217   6.233  13.238  11.525
45460SOL     OW38218   5.423   4.101   9.577
45460SOL    HW138219   5.353   4.040   9.555
45460SOL    HW238220   5.428   4.099   9.673
45461SOL     OW38221   4.954  11.341   2.351
45461SOL    HW138222   5.042  11.349   2.314
45461SOL    HW238223   4.931  11.249   2.338
45462SOL     OW38224   9.322   3.729   6.465
45462SOL    HW138225   9.415   3.725   6.444
45462SOL    HW238226   9.284   3.785   6.398
45463SOL     OW38227  10.323   3.167   4.042
45463SOL    HW138228  10.311   3.258   4.069
45463SOL    HW238229  10.404   3.140   4.084
45464SOL     OW38230  10.535   6.165   7.888
45464SOL    HW138231  10.600   6.233   7.870
45464SOL    HW238232  10.485   6.199   7.962
45465SOL     OW38233   5.748   7.304   6.357
45465SOL    HW138234   5.679   7.239   6.344
45465SOL    HW238235   5.707   7.388   6.332
45466SOL     OW38236  10.275   3.500  13.701
45466SOL    HW138237  10.253   3.431  13.763
45466SOL    HW238238  10.238   3.470  13.618
45467SOL     OW38239   4.777  10.819  13.411
45467SOL    HW138240   4.810  10.906  13.388
45467SOL    HW238241   4.822  10.797  13.492
45468SOL     OW38242  14.665  10.629  13.202
45468SOL    HW138243  14.666  10.672  13.116
45468SOL    HW238244  14.690  10.539  13.184
45469SOL     OW38245   4.340  13.393  11.397
45469SOL    HW138246   4.377  13.400  11.309
45469SOL    HW238247   4.413  13.411  11.456
45470SOL     OW38248  13.461   7.653   1.753
45470SOL    HW138249  13.444   7.581   1.693
45470SOL    HW238250  13.554   7.671   1.743
45471SOL     OW38251   4.498  10.567   1.602
45471SOL    HW138252   4.405  10.547   1.611
45471SOL    HW238253   4.542  10.505   1.661
45472SOL     OW38254   5.379   8.729  10.791
45472SOL    HW138255   5.397   8.651  10.844
45472SOL    HW238256   5.443   8.724  10.720
45473SOL     OW38257   5.282   3.211  14.761
45473SOL    HW138258   5.201   3.187  14.806
45473SOL    HW238259   5.267   3.187  14.670
45474SOL     OW38260   9.301  14.530   7.930
45474SOL    HW138261   9.372  14.465   7.928
45474SOL    HW238262   9.233  14.493   7.874
45475SOL     OW38263   3.892   1.741  11.175
45475SOL    HW138264   3.945   1.821  11.172
45475SOL    HW238265   3.824   1.755  11.109
45476SOL     OW38266   1.305  12.971   4.404
45476SOL    HW138267   1.232  12.965   4.466
45476SOL    HW238268   1.357  13.045   4.436
45477SOL     OW38269   0.243  13.831  13.017
45477SOL    HW138270   0.280  13.897  13.076
45477SOL    HW238271   0.316  13.775  12.994
45478SOL     OW38272  13.286  12.369  10.661
45478SOL    HW138273  13.359  12.394  10.718
45478SOL    HW238274  13.216  12.431  10.683
45479SOL     OW38275   6.212  11.865  14.266
45479SOL    HW138276   6.187  11.815  14.343
45479SOL    HW238277   6.265  11.805  14.214
45480SOL     OW38278   3.449  10.126   1.558
45480SOL    HW138279   3.386  10.090   1.495
45480SOL    HW238280   3.408  10.208   1.587
45481SOL     OW38281   6.905   2.071   1.040
45481SOL    HW138282   6.959   2.064   1.118
45481SOL    HW238283   6.861   2.156   1.048
45482SOL     OW38284  10.288   3.587   1.955
45482SOL    HW138285  10.366   3.590   2.011
45482SOL    HW238286  10.254   3.499   1.965
45483SOL     OW38287   4.043  12.160  13.687
45483SOL    HW138288   4.138  12.161  13.674
45483SOL    HW238289   4.029  12.096  13.757
45484SOL     OW38290   5.774   6.412   1.315
45484SOL    HW138291   5.745   6.503   1.325
45484SOL    HW238292   5.713   6.374   1.252
45485SOL     OW38293   8.315  11.666  11.384
45485SOL    HW138294   8.284  11.666  11.293
45485SOL    HW238295   8.279  11.586  11.421
45486SOL     OW38296  12.032  10.432  14.599
45486SOL    HW138297  11.945  10.432  14.638
45486SOL    HW238298  12.028  10.497  14.529
45487SOL     OW38299   5.399  12.972   1.277
45487SOL    HW138300   5.485  12.931   1.285
45487SOL    HW238301   5.353  12.946   1.357
45488SOL     OW38302   9.884  14.074   7.807
45488SOL    HW138303   9.851  13.984   7.801
45488SOL    HW238304   9.899  14.088   7.900
45489SOL     OW38305  12.055   2.981   9.938
45489SOL    HW138306  12.118   2.919   9.901
45489SOL    HW238307  11.970   2.942   9.919
45490SOL     OW38308  10.865  12.437  12.598
45490SOL    HW138309  10.943  12.404  12.553
45490SOL    HW238310  10.848  12.373  12.667
45491SOL     OW38311   3.834   5.497  11.671
45491SOL    HW138312   3.843   5.592  11.659
45491SOL    HW238313   3.906   5.460  11.620
45492SOL     OW38314   4.756   6.237   3.731
45492SOL    HW138315   4.747   6.172   3.661
45492SOL    HW238316   4.673   6.235   3.777
45493SOL     OW38317   7.084   2.956   5.353
45493SOL    HW138318   7.066   2.935   5.261
45493SOL    HW238319   7.058   3.047   5.363
45494SOL     OW38320  13.268  13.677   8.984
45494SOL    HW138321  13.217  13.672   9.065
45494SOL    HW238322  13.249  13.595   8.938
45495SOL     OW38323  10.642   4.257   4.493
45495SOL    HW138324  10.550   4.282   4.484
45495SOL    HW238325  10.659   4.196   4.421
45496SOL     OW38326  11.789  12.537   9.900
45496SOL    HW138327  11.709  12.499   9.936
45496SOL    HW238328  11.815  12.478   9.830
45497SOL     OW38329   9.643   4.575   5.753
45497SOL    HW138330   9.649   4.660   5.709
45497SOL    HW238331   9.594   4.520   5.692
45498SOL     OW38332  13.657  10.737  12.802
45498SOL    HW138333  13.670  10.664  12.741
45498SOL    HW238334  13.633  10.695  12.885
45499SOL     OW38335  10.598   5.213   1.554
45499SOL    HW138336  10.664   5.147   1.534
45499SOL    HW238337  10.619   5.286   1.496
45500SOL     OW38338   1.223   5.150   8.483
45500SOL    HW138339   1.308   5.195   8.479
45500SOL    HW238340   1.161   5.217   8.510
45501SOL     OW38341   4.950  13.501   0.871
45501SOL    HW138342   5.004  13.422   0.879
45501SOL    HW238343   4.978  13.542   0.790
45502SOL     OW38344   2.097  14.394   2.036
45502SOL    HW138345   2.018  14.416   1.987
45502SOL    HW238346   2.136  14.479   2.057
45503SOL     OW38347  13.240   3.076   9.818
45503SOL    HW138348  13.225   2.985   9.844
45503SOL    HW238349  13.335   3.087   9.826
45504SOL     OW38350  11.779   7.069  11.503
45504SOL    HW138351  11.686   7.052  11.515
45504SOL    HW238352  11.804   7.124  11.578
45505SOL     OW38353   2.511  14.170   3.667
45505SOL    HW138354   2.480  14.114   3.738
45505SOL    HW238355   2.544  14.109   3.600
45506SOL     OW38356   1.201  10.833  10.194
45506SOL    HW138357   1.156  10.749  10.189
45506SOL    HW238358   1.227  10.852  10.104
45507SOL     OW38359   6.237   4.733   7.496
45507SOL    HW138360   6.217   4.684   7.576
45507SOL    HW238361   6.152   4.745   7.453
45508SOL     OW38362   8.017   8.849   7.023
45508SOL    HW138363   8.088   8.801   7.065
45508SOL    HW238364   7.946   8.785   7.015
45509SOL     OW38365  12.344  13.085   8.275
45509SOL    HW138366  12.402  13.086   8.351
45509SOL    HW238367  12.402  13.072   8.200
45510SOL     OW38368   5.074  12.875   5.296
45510SOL    HW138369   4.998  12.835   5.338
45510SOL    HW238370   5.119  12.922   5.367
45511SOL     OW38371  10.488   4.293   7.222
45511SOL    HW138372  10.455   4.292   7.311
45511SOL    HW238373  10.493   4.385   7.198
45512SOL     OW38374   8.837   4.244   1.636
45512SOL    HW138375   8.823   4.162   1.588
45512SOL    HW238376   8.796   4.229   1.721
45513SOL     OW38377   6.019   1.881  10.489
45513SOL    HW138378   5.960   1.830  10.546
45513SOL    HW238379   5.991   1.858  10.400
45514SOL     OW38380  14.724   0.767  10.241
45514SOL    HW138381  14.657   0.810  10.188
45514SOL    HW238382  14.761   0.699  10.184
45515SOL     OW38383   4.664   7.823  13.978
45515SOL    HW138384   4.604   7.807  13.905
45515SOL    HW238385   4.610   7.811  14.056
45516SOL     OW38386  14.116   2.106  14.742
45516SOL    HW138387  14.046   2.127  14.680
45516SOL    HW238388  14.112   2.011  14.752
45517SOL     OW38389   3.851   4.502   0.853
45517SOL    HW138390   3.916   4.437   0.879
45517SOL    HW238391   3.889   4.586   0.880
45518SOL     OW38392   5.931   8.556  11.101
45518SOL    HW138393   5.975   8.493  11.158
45518SOL    HW238394   5.916   8.632  11.156
45519SOL     OW38395   6.887   1.932   6.250
45519SOL    HW138396   6.823   1.962   6.184
45519SOL    HW238397   6.955   1.888   6.199
45520SOL     OW38398   1.311  14.457   7.188
45520SOL    HW138399   1.223  14.462   7.225
45520SOL    HW238400   1.369  14.479   7.261
45521SOL     OW38401   4.290   8.246   8.078
45521SOL    HW138402   4.204   8.217   8.108
45521SOL    HW238403   4.322   8.174   8.024
45522SOL     OW38404   9.051  12.101   3.660
45522SOL    HW138405   9.056  12.018   3.708
45522SOL    HW238406   9.141  12.118   3.632
45523SOL     OW38407  11.434   4.733  11.682
45523SOL    HW138408  11.445   4.822  11.715
45523SOL    HW238409  11.348   4.707  11.713
45524SOL     OW38410   6.651   0.037   2.367
45524SOL    HW138411   6.649   0.128   2.337
45524SOL    HW238412   6.742   0.010   2.354
45525SOL     OW38413   1.767   1.922  12.146
45525SOL    HW138414   1.851   1.937  12.190
45525SOL    HW238415   1.707   1.898  12.217
45526SOL     OW38416   5.009   3.739   6.911
45526SOL    HW138417   5.032   3.727   6.818
45526SOL    HW238418   5.075   3.687   6.958
45527SOL     OW38419  10.508   4.143  14.036
45527SOL    HW138420  10.498   4.076  13.969
45527SOL    HW238421  10.433   4.131  14.094
45528SOL     OW38422  14.340  13.858   1.118
45528SOL    HW138423  14.331  13.823   1.207
45528SOL    HW238424  14.434  13.871   1.107
45529SOL     OW38425   2.324  14.448   4.823
45529SOL    HW138426   2.405  14.437   4.873
45529SOL    HW238427   2.267  14.379   4.855
45530SOL     OW38428   6.573   1.560  13.001
45530SOL    HW138429   6.611   1.633  12.951
45530SOL    HW238430   6.637   1.490  12.993
45531SOL     OW38431   4.676   3.535   1.784
45531SOL    HW138432   4.720   3.563   1.865
45531SOL    HW238433   4.719   3.585   1.715
45532SOL     OW38434   8.926  13.852   8.593
45532SOL    HW138435   8.894  13.791   8.527
45532SOL    HW238436   8.915  13.939   8.553
45533SOL     OW38437   6.083   6.852  11.769
45533SOL    HW138438   6.105   6.882  11.857
45533SOL    HW238439   6.001   6.895  11.748
45534SOL     OW38440   3.569  13.800   8.063
45534SOL    HW138441   3.517  13.869   8.022
45534SOL    HW238442   3.613  13.844   8.136
45535SOL     OW38443  12.317   4.537   6.041
45535SOL    HW138444  12.349   4.559   6.129
45535SOL    HW238445  12.311   4.622   5.996
45536SOL     OW38446   0.328   6.712   2.674
45536SOL    HW138447   0.387   6.776   2.633
45536SOL    HW238448   0.383   6.636   2.691
45537SOL     OW38449  13.900   4.194  12.400
45537SOL    HW138450  13.865   4.282  12.384
45537SOL    HW238451  13.824   4.144  12.430
45538SOL     OW38452   6.761   1.094   4.097
45538SOL    HW138453   6.730   1.176   4.060
45538SOL    HW238454   6.684   1.037   4.100
45539SOL     OW38455   8.562   6.804   1.634
45539SOL    HW138456   8.604   6.788   1.550
45539SOL    HW238457   8.602   6.739   1.693
45540SOL     OW38458   8.901   2.385   6.962
45540SOL    HW138459   8.848   2.316   7.001
45540SOL    HW238460   8.858   2.466   6.989
45541SOL     OW38461   0.003   8.108  12.590
45541SOL    HW138462   0.075   8.159  12.552
45541SOL    HW238463  14.864   8.034  12.531
45542SOL     OW38464   8.110   0.539  14.817
45542SOL    HW138465   8.158   0.463  14.785
45542SOL    HW238466   8.177   0.595  14.855
45543SOL     OW38467   4.853   6.082   8.311
45543SOL    HW138468   4.876   6.164   8.266
45543SOL    HW238469   4.891   6.091   8.398
45544SOL     OW38470   9.213   3.647  11.427
45544SOL    HW138471   9.204   3.658  11.332
45544SOL    HW238472   9.275   3.716  11.453
45545SOL     OW38473   3.589  14.404  10.046
45545SOL    HW138474   3.570  14.464  10.118
45545SOL    HW238475   3.594  14.318  10.087
45546SOL     OW38476   7.952  12.248   9.955
45546SOL    HW138477   8.019  12.182   9.936
45546SOL    HW238478   7.869  12.206   9.933
45547SOL     OW38479   4.392  11.172   9.918
45547SOL    HW138480   4.433  11.173  10.005
45547SOL    HW238481   4.316  11.229   9.926
45548SOL     OW38482   3.773   9.861  12.897
45548SOL    HW138483   3.707   9.795  12.916
45548SOL    HW238484   3.815   9.830  12.816
45549SOL     OW38485   3.700   1.159  12.910
45549SOL    HW138486   3.677   1.160  12.817
45549SOL    HW238487   3.754   1.237  12.922
45550SOL     OW38488  11.447   9.427   4.230
45550SOL    HW138489  11.449   9.504   4.286
45550SOL    HW238490  11.390   9.451   4.157
45551SOL     OW38491   3.868   2.862   8.016
45551SOL    HW138492   3.806   2.899   7.953
45551SOL    HW238493   3.890   2.936   8.073
45552SOL     OW38494  12.381   1.459   4.559
45552SOL    HW138495  12.384   1.422   4.647
45552SOL    HW238496  12.451   1.415   4.512
45553SOL     OW38497  12.073  13.910   3.832
45553SOL    HW138498  12.025  13.889   3.752
45553SOL    HW238499  12.161  13.932   3.802
45554SOL     OW38500   0.322   4.829   3.343
45554SOL    HW138501   0.302   4.868   3.258
45554SOL    HW238502   0.363   4.745   3.322
45555SOL     OW38503  13.936   6.922  12.101
45555SOL    HW138504  13.850   6.879  12.107
45555SOL    HW238505  13.928   6.982  12.027
45556SOL     OW38506   8.328   2.270   7.473
45556SOL    HW138507   8.290   2.231   7.394
45556SOL    HW238508   8.408   2.313   7.442
45557SOL     OW38509   8.547  12.666   8.711
45557SOL    HW138510   8.456  12.675   8.684
45557SOL    HW238511   8.544  12.608   8.788
45558SOL     OW38512   5.300  10.943  11.744
45558SOL    HW138513   5.360  11.011  11.713
45558SOL    HW238514   5.319  10.867  11.689
45559SOL     OW38515   6.223   8.260  10.936
45559SOL    HW138516   6.154   8.220  10.991
45559SOL    HW238517   6.175   8.318  10.877
45560SOL     OW38518   0.721   3.625   3.195
45560SOL    HW138519   0.781   3.551   3.209
45560SOL    HW238520   0.773   3.702   3.217
45561SOL     OW38521  10.116   4.471   1.477
45561SOL    HW138522  10.078   4.399   1.528
45561SOL    HW238523  10.085   4.550   1.521
45562SOL     OW38524  13.333   3.558   1.030
45562SOL    HW138525  13.414   3.576   1.079
45562SOL    HW238526  13.339   3.466   1.006
45563SOL     OW38527  11.251   8.953   5.332
45563SOL    HW138528  11.345   8.954   5.347
45563SOL    HW238529  11.219   9.030   5.378
45564SOL     OW38530  10.448   0.236   5.312
45564SOL    HW138531  10.356   0.262   5.307
45564SOL    HW238532  10.496   0.308   5.270
45565SOL     OW38533   1.231  13.960  10.703
45565SOL    HW138534   1.136  13.970  10.705
45565SOL    HW238535   1.248  13.875  10.744
45566SOL     OW38536   8.431   2.584   8.980
45566SOL    HW138537   8.432   2.526   9.056
45566SOL    HW238538   8.458   2.669   9.015
45567SOL     OW38539  14.584   6.744  14.210
45567SOL    HW138540  14.543   6.748  14.297
45567SOL    HW238541  14.639   6.666  14.214
45568SOL     OW38542   8.636   9.396  11.490
45568SOL    HW138543   8.615   9.342  11.414
45568SOL    HW238544   8.687   9.469  11.454
45569SOL     OW38545   1.870   7.351   0.718
45569SOL    HW138546   1.788   7.303   0.732
45569SOL    HW238547   1.923   7.331   0.795
45570SOL     OW38548   7.127   1.468  12.051
45570SOL    HW138549   7.184   1.419  11.991
45570SOL    HW238550   7.105   1.405  12.119
45571SOL     OW38551  11.634   8.366   3.577
45571SOL    HW138552  11.681   8.290   3.612
45571SOL    HW238553  11.541   8.341   3.584
45572SOL     OW38554   4.823   8.823  13.195
45572SOL    HW138555   4.835   8.741  13.244
45572SOL    HW238556   4.899   8.828  13.137
45573SOL     OW38557   4.326   5.159  14.159
45573SOL    HW138558   4.272   5.212  14.219
45573SOL    HW238559   4.413   5.161  14.198
45574SOL     OW38560  11.016   9.131  10.220
45574SOL    HW138561  11.105   9.098  10.213
45574SOL    HW238562  10.989   9.150  10.130
45575SOL     OW38563   1.414   5.394   8.018
45575SOL    HW138564   1.378   5.307   8.037
45575SOL    HW238565   1.351   5.455   8.057
45576SOL     OW38566   9.046   9.811   5.086
45576SOL    HW138567   9.024   9.903   5.103
45576SOL    HW238568   8.983   9.761   5.138
45577SOL     OW38569  12.495   5.426   0.092
45577SOL    HW138570  12.491   5.506   0.144
45577SOL    HW238571  12.435   5.442   0.019
45578SOL     OW38572   9.897  10.443   8.800
45578SOL    HW138573   9.832  10.501   8.762
45578SOL    HW238574   9.965  10.501   8.835
45579SOL     OW38575   7.707   2.601   9.194
45579SOL    HW138576   7.757   2.571   9.270
45579SOL    HW238577   7.635   2.538   9.186
45580SOL     OW38578   4.094   8.977  11.131
45580SOL    HW138579   4.058   8.966  11.219
45580SOL    HW238580   4.146   9.057  11.137
45581SOL     OW38581  13.538  11.955   4.964
45581SOL    HW138582  13.560  12.046   4.942
45581SOL    HW238583  13.495  11.962   5.050
45582SOL     OW38584  13.375   9.454  11.499
45582SOL    HW138585  13.422   9.516  11.556
45582SOL    HW238586  13.443   9.420  11.440
45583SOL     OW38587  11.125   8.531   9.936
45583SOL    HW138588  11.051   8.568   9.985
45583SOL    HW238589  11.172   8.478  10.001
45584SOL     OW38590  11.674  11.251   6.722
45584SOL    HW138591  11.661  11.345   6.708
45584SOL    HW238592  11.586  11.213   6.713
45585SOL     OW38593   4.198   5.913   5.385
45585SOL    HW138594   4.189   5.972   5.460
45585SOL    HW238595   4.248   5.839   5.419
45586SOL     OW38596   0.661   4.770   4.988
45586SOL    HW138597   0.576   4.731   4.964
45586SOL    HW238598   0.640   4.862   5.007
45587SOL     OW38599  12.624   9.427   7.537
45587SOL    HW138600  12.537   9.405   7.571
45587SOL    HW238601  12.677   9.349   7.554
45588SOL     OW38602   3.094   0.321  13.423
45588SOL    HW138603   3.119   0.389  13.486
45588SOL    HW238604   3.013   0.354  13.384
45589SOL     OW38605   1.605   7.255  14.231
45589SOL    HW138606   1.601   7.258  14.326
45589SOL    HW238607   1.535   7.313  14.202
45590SOL     OW38608  12.950   5.063  12.065
45590SOL    HW138609  12.936   5.158  12.059
45590SOL    HW238610  12.883   5.025  12.009
45591SOL     OW38611   4.728   3.502   7.315
45591SOL    HW138612   4.739   3.421   7.366
45591SOL    HW238613   4.644   3.536   7.344
45592SOL     OW38614  11.746   8.793   8.379
45592SOL    HW138615  11.710   8.845   8.307
45592SOL    HW238616  11.839   8.817   8.381
45593SOL     OW38617   7.080  12.236  12.821
45593SOL    HW138618   7.129  12.267  12.745
45593SOL    HW238619   6.997  12.206  12.785
45594SOL     OW38620   8.330  13.293   1.419
45594SOL    HW138621   8.320  13.380   1.380
45594SOL    HW238622   8.401  13.303   1.482
45595SOL     OW38623  14.001   3.444   4.503
45595SOL    HW138624  14.036   3.386   4.436
45595SOL    HW238625  13.908   3.422   4.508
45596SOL     OW38626   3.664  11.619  12.495
45596SOL    HW138627   3.615  11.701  12.504
45596SOL    HW238628   3.711  11.609  12.577
45597SOL     OW38629  13.336   2.456  13.928
45597SOL    HW138630  13.254   2.412  13.908
45597SOL    HW238631  13.404   2.391  13.910
45598SOL     OW38632  14.064  12.490  12.261
45598SOL    HW138633  14.131  12.429  12.230
45598SOL    HW238634  13.996  12.434  12.297
45599SOL     OW38635   4.837  12.846   0.327
45599SOL    HW138636   4.828  12.751   0.331
45599SOL    HW238637   4.763  12.880   0.377
45600SOL     OW38638   6.297   5.733   6.820
45600SOL    HW138639   6.270   5.797   6.886
45600SOL    HW238640   6.273   5.773   6.736
45601SOL     OW38641  11.744  10.208  14.380
45601SOL    HW138642  11.775  10.294  14.407
45601SOL    HW238643  11.821  10.151  14.391
45602SOL     OW38644   4.017  11.710   3.547
45602SOL    HW138645   3.957  11.777   3.580
45602SOL    HW238646   4.026  11.649   3.621
45603SOL     OW38647   8.558   5.685   6.555
45603SOL    HW138648   8.466   5.687   6.583
45603SOL    HW238649   8.607   5.680   6.637
45604SOL     OW38650  12.931   2.923   3.858
45604SOL    HW138651  12.923   2.848   3.917
45604SOL    HW238652  12.843   2.936   3.823
45605SOL     OW38653   2.888   2.007   5.122
45605SOL    HW138654   2.981   1.997   5.102
45605SOL    HW238655   2.849   1.922   5.100
45606SOL     OW38656   7.019   7.652  14.769
45606SOL    HW138657   6.987   7.738  14.741
45606SOL    HW238658   7.043   7.607  14.688
45607SOL     OW38659  14.042  11.970  12.894
45607SOL    HW138660  14.040  11.956  12.989
45607SOL    HW238661  14.129  11.941  12.867
45608SOL     OW38662   5.746   2.515   6.010
45608SOL    HW138663   5.698   2.579   6.064
45608SOL    HW238664   5.820   2.565   5.976
45609SOL     OW38665   1.181  13.163  12.196
45609SOL    HW138666   1.175  13.149  12.101
45609SOL    HW238667   1.274  13.150  12.216
45610SOL     OW38668  13.079  12.635   0.638
45610SOL    HW138669  12.985  12.634   0.659
45610SOL    HW238670  13.082  12.621   0.543
45611SOL     OW38671  14.091   7.424  10.567
45611SOL    HW138672  14.047   7.453  10.487
45611SOL    HW238673  14.043   7.347  10.595
45612SOL     OW38674   5.317   0.797  10.156
45612SOL    HW138675   5.371   0.872  10.129
45612SOL    HW238676   5.313   0.804  10.251
45613SOL     OW38677   9.900   3.531   6.173
45613SOL    HW138678   9.894   3.436   6.185
45613SOL    HW238679   9.881   3.567   6.259
45614SOL     OW38680  14.515   4.940   9.114
45614SOL    HW138681  14.463   5.020   9.121
45614SOL    HW238682  14.454   4.870   9.135
45615SOL     OW38683  12.070  14.838   8.046
45615SOL    HW138684  12.010   0.024   8.002
45615SOL    HW238685  12.157  14.871   8.025
45616SOL     OW38686   3.733  14.668   5.819
45616SOL    HW138687   3.754  14.689   5.910
45616SOL    HW238688   3.775  14.584   5.803
45617SOL     OW38689   3.261   8.227  11.579
45617SOL    HW138690   3.326   8.262  11.518
45617SOL    HW238691   3.288   8.261  11.665
45618SOL     OW38692  13.749  11.048   9.227
45618SOL    HW138693  13.788  11.078   9.145
45618SOL    HW238694  13.693  10.974   9.201
45619SOL     OW38695   4.175   9.154   9.734
45619SOL    HW138696   4.153   9.062   9.716
45619SOL    HW238697   4.225   9.151   9.816
45620SOL     OW38698   6.059   2.412  13.920
45620SOL    HW138699   6.086   2.424  13.829
45620SOL    HW238700   5.964   2.417  13.918
45621SOL     OW38701  10.735   9.246  14.193
45621SOL    HW138702  10.675   9.252  14.268
45621SOL    HW238703  10.779   9.331  14.191
45622SOL     OW38704  13.892   2.215   7.805
45622SOL    HW138705  13.960   2.187   7.866
45622SOL    HW238706  13.868   2.135   7.758
45623SOL     OW38707   0.030   3.967   4.760
45623SOL    HW138708   0.040   3.937   4.851
45623SOL    HW238709   0.000   3.889   4.713
45624SOL     OW38710   1.766   2.158   8.520
45624SOL    HW138711   1.732   2.247   8.511
45624SOL    HW238712   1.699   2.103   8.480
45625SOL     OW38713  11.310   4.354  14.286
45625SOL    HW138714  11.276   4.418  14.349
45625SOL    HW238715  11.326   4.405  14.207
45626SOL     OW38716   7.472   3.530   7.098
45626SOL    HW138717   7.535   3.599   7.121
45626SOL    HW238718   7.387   3.572   7.106
45627SOL     OW38719   7.377   0.181   1.518
45627SOL    HW138720   7.334   0.155   1.599
45627SOL    HW238721   7.445   0.242   1.545
45628SOL     OW38722   1.780   6.602  11.719
45628SOL    HW138723   1.783   6.620  11.813
45628SOL    HW238724   1.689   6.576  11.703
45629SOL     OW38725   3.044   9.251   6.916
45629SOL    HW138726   3.129   9.252   6.873
45629SOL    HW238727   2.991   9.190   6.865
45630SOL     OW38728  10.413   1.697   8.265
45630SOL    HW138729  10.483   1.724   8.326
45630SOL    HW238730  10.460   1.658   8.192
45631SOL     OW38731   9.436   1.679  13.504
45631SOL    HW138732   9.519   1.650  13.540
45631SOL    HW238733   9.453   1.768  13.472
45632SOL     OW38734   7.707  14.403   6.048
45632SOL    HW138735   7.688  14.494   6.071
45632SOL    HW238736   7.772  14.409   5.978
45633SOL     OW38737   3.508  11.325   2.764
45633SOL    HW138738   3.426  11.346   2.720
45633SOL    HW238739   3.482  11.288   2.848
45634SOL     OW38740   6.364  11.633   0.751
45634SOL    HW138741   6.333  11.715   0.713
45634SOL    HW238742   6.363  11.648   0.845
45635SOL     OW38743   1.088   2.859   8.093
45635SOL    HW138744   1.107   2.770   8.062
45635SOL    HW238745   1.007   2.850   8.143
45636SOL     OW38746   9.986   6.179   5.328
45636SOL    HW138747   9.895   6.208   5.323
45636SOL    HW238748  10.018   6.214   5.411
45637SOL     OW38749   7.734   1.309  14.315
45637SOL    HW138750   7.683   1.260  14.380
45637SOL    HW238751   7.824   1.305  14.348
45638SOL     OW38752   0.011   7.600   3.788
45638SOL    HW138753   0.088   7.553   3.757
45638SOL    HW238754  14.848   7.641   3.709
45639SOL     OW38755   6.215   9.027  14.065
45639SOL    HW138756   6.130   9.007  14.026
45639SOL    HW238757   6.200   9.105  14.118
45640SOL     OW38758   8.790   5.765   5.701
45640SOL    HW138759   8.726   5.835   5.684
45640SOL    HW238760   8.839   5.759   5.619
45641SOL     OW38761  10.144   1.362  14.420
45641SOL    HW138762  10.224   1.391  14.376
45641SOL    HW238763  10.077   1.362  14.352
45642SOL     OW38764   4.806   6.385  14.391
45642SOL    HW138765   4.783   6.412  14.480
45642SOL    HW238766   4.851   6.301  14.403
45643SOL     OW38767   7.103  11.882   8.950
45643SOL    HW138768   7.154  11.839   8.881
45643SOL    HW238769   7.148  11.964   8.966
45644SOL     OW38770   2.222  14.766   6.625
45644SOL    HW138771   2.292  14.735   6.682
45644SOL    HW238772   2.261  14.766   6.537
45645SOL     OW38773   7.180  10.929   4.780
45645SOL    HW138774   7.098  10.926   4.730
45645SOL    HW238775   7.248  10.939   4.714
45646SOL     OW38776  14.522   1.822   8.367
45646SOL    HW138777  14.561   1.883   8.430
45646SOL    HW238778  14.505   1.742   8.418
45647SOL     OW38779   8.029   6.303   3.613
45647SOL    HW138780   8.042   6.241   3.684
45647SOL    HW238781   7.965   6.262   3.556
45648SOL     OW38782  11.232   0.217  14.209
45648SOL    HW138783  11.226   0.294  14.266
45648SOL    HW238784  11.141   0.190  14.195
45649SOL     OW38785  12.657   2.453   1.325
45649SOL    HW138786  12.602   2.429   1.251
45649SOL    HW238787  12.672   2.371   1.372
45650SOL     OW38788  12.588  14.864   9.472
45650SOL    HW138789  12.550   0.011   9.387
45650SOL    HW238790  12.553   0.058   9.531
45651SOL     OW38791   3.261   3.821  13.713
45651SOL    HW138792   3.204   3.801  13.640
45651SOL    HW238793   3.311   3.741  13.728
45652SOL     OW38794  13.420   9.764   9.648
45652SOL    HW138795  13.407   9.858   9.642
45652SOL    HW238796  13.334   9.729   9.672
45653SOL     OW38797   8.937   1.953  11.110
45653SOL    HW138798   9.023   1.992  11.094
45653SOL    HW238799   8.898   2.007  11.178
45654SOL     OW38800  13.605  13.992   9.724
45654SOL    HW138801  13.629  14.011   9.633
45654SOL    HW238802  13.683  14.013   9.775
45655SOL     OW38803   4.042  10.656  10.454
45655SOL    HW138804   3.983  10.599  10.404
45655SOL    HW238805   3.997  10.668  10.538
45656SOL     OW38806   7.989  10.360   4.783
45656SOL    HW138807   7.983  10.426   4.714
45656SOL    HW238808   8.082  10.335   4.784
45657SOL     OW38809   1.242   0.902  13.943
45657SOL    HW138810   1.245   0.876  14.035
45657SOL    HW238811   1.213   0.993  13.945
45658SOL     OW38812  12.136   8.319   0.432
45658SOL    HW138813  12.066   8.268   0.391
45658SOL    HW238814  12.193   8.344   0.359
45659SOL     OW38815   8.234   5.949  13.191
45659SOL    HW138816   8.164   6.016  13.188
45659SOL    HW238817   8.309   5.996  13.228
45660SOL     OW38818  12.609   8.244  12.767
45660SOL    HW138819  12.589   8.299  12.691
45660SOL    HW238820  12.558   8.164  12.753
45661SOL     OW38821   6.343   9.392  11.792
45661SOL    HW138822   6.284   9.467  11.800
45661SOL    HW238823   6.380   9.381  11.879
45662SOL     OW38824  10.871  11.879   2.080
45662SOL    HW138825  10.871  11.881   2.176
45662SOL    HW238826  10.929  11.950   2.055
45663SOL     OW38827  14.247   3.697   2.651
45663SOL    HW138828  14.207   3.658   2.573
45663SOL    HW238829  14.341   3.684   2.638
45664SOL     OW38830   3.751   3.241  11.316
45664SOL    HW138831   3.841   3.250  11.346
45664SOL    HW238832   3.747   3.153  11.278
45665SOL     OW38833   1.430   6.397  13.267
45665SOL    HW138834   1.515   6.354  13.277
45665SOL    HW238835   1.449   6.490  13.282
45666SOL     OW38836  12.928   9.514   4.380
45666SOL    HW138837  12.848   9.515   4.432
45666SOL    HW238838  12.925   9.431   4.332
45667SOL     OW38839  13.391  12.624   6.043
45667SOL    HW138840  13.321  12.688   6.057
45667SOL    HW238841  13.472  12.673   6.058
45668SOL     OW38842   9.276  10.224  14.569
45668SOL    HW138843   9.314  10.139  14.593
45668SOL    HW238844   9.201  10.233  14.628
45669SOL     OW38845  13.675   6.367   4.980
45669SOL    HW138846  13.583   6.342   4.987
45669SOL    HW238847  13.694   6.410   5.063
45670SOL     OW38848   5.466  13.691  11.659
45670SOL    HW138849   5.440  13.600  11.643
45670SOL    HW238850   5.562  13.689  11.658
45671SOL     OW38851   0.843   3.209  13.947
45671SOL    HW138852   0.912   3.160  13.991
45671SOL    HW238853   0.885   3.246  13.869
45672SOL     OW38854   7.756   5.037  13.841
45672SOL    HW138855   7.711   5.121  13.837
45672SOL    HW238856   7.687   4.972  13.825
45673SOL     OW38857  12.559   5.350  10.164
45673SOL    HW138858  12.500   5.277  10.147
45673SOL    HW238859  12.520   5.423  10.116
45674SOL     OW38860   1.545  13.910  12.624
45674SOL    HW138861   1.632  13.939  12.651
45674SOL    HW238862   1.502  13.883  12.706
45675SOL     OW38863  13.296   3.692   6.815
45675SOL    HW138864  13.287   3.774   6.863
45675SOL    HW238865  13.390   3.674   6.816
45676SOL     OW38866   6.568   9.725  12.984
45676SOL    HW138867   6.657   9.744  12.953
45676SOL    HW238868   6.563   9.629  12.983
45677SOL     OW38869   4.840   0.777   4.074
45677SOL    HW138870   4.895   0.806   4.001
45677SOL    HW238871   4.882   0.697   4.105
45678SOL     OW38872  13.479   8.299   9.999
45678SOL    HW138873  13.466   8.312   9.905
45678SOL    HW238874  13.528   8.217  10.005
45679SOL     OW38875   5.457   5.589   2.552
45679SOL    HW138876   5.453   5.684   2.559
45679SOL    HW238877   5.441   5.571   2.460
45680SOL     OW38878  12.243  13.410  10.672
45680SOL    HW138879  12.149  13.421  10.658
45680SOL    HW238880  12.282  13.432  10.587
45681SOL     OW38881   8.479   8.456  10.387
45681SOL    HW138882   8.393   8.489  10.415
45681SOL    HW238883   8.463   8.419  10.300
45682SOL     OW38884  12.649   3.632   0.764
45682SOL    HW138885  12.684   3.625   0.853
45682SOL    HW238886  12.703   3.571   0.713
45683SOL     OW38887   5.240  10.604   2.491
45683SOL    HW138888   5.242  10.525   2.437
45683SOL    HW238889   5.203  10.671   2.433
45684SOL     OW38890   8.038   8.263   8.827
45684SOL    HW138891   8.108   8.301   8.880
45684SOL    HW238892   7.972   8.333   8.821
45685SOL     OW38893   4.500   2.868   2.455
45685SOL    HW138894   4.430   2.810   2.425
45685SOL    HW238895   4.561   2.873   2.381
45686SOL     OW38896  12.279   8.082  13.088
45686SOL    HW138897  12.219   8.023  13.043
45686SOL    HW238898  12.226   8.125  13.155
45687SOL     OW38899   8.686   8.710  13.170
45687SOL    HW138900   8.775   8.742  13.158
45687SOL    HW238901   8.634   8.759  13.106
45688SOL     OW38902  14.250  14.616   0.012
45688SOL    HW138903  14.199  14.561  14.825
45688SOL    HW238904  14.241  14.704  14.850
45689SOL     OW38905   3.903  10.702   8.564
45689SOL    HW138906   3.812  10.717   8.589
45689SOL    HW238907   3.952  10.713   8.646
45690SOL     OW38908  10.034   9.784  12.860
45690SOL    HW138909  10.041   9.707  12.916
45690SOL    HW238910   9.954   9.770  12.809
45691SOL     OW38911   9.741   4.698   2.655
45691SOL    HW138912   9.770   4.641   2.726
45691SOL    HW238913   9.688   4.765   2.699
45692SOL     OW38914   9.350  13.238   7.326
45692SOL    HW138915   9.370  13.203   7.413
45692SOL    HW238916   9.424  13.210   7.272
45693SOL     OW38917  12.477  13.914   7.430
45693SOL    HW138918  12.430  13.839   7.466
45693SOL    HW238919  12.550  13.875   7.381
45694SOL     OW38920   6.793   6.598  10.634
45694SOL    HW138921   6.836   6.586  10.549
45694SOL    HW238922   6.699   6.593  10.613
45695SOL     OW38923   2.080  13.626   6.396
45695SOL    HW138924   2.048  13.706   6.355
45695SOL    HW238925   2.152  13.655   6.452
45696SOL     OW38926   8.096   4.722   2.765
45696SOL    HW138927   8.082   4.779   2.690
45696SOL    HW238928   8.086   4.633   2.730
45697SOL     OW38929   8.967   8.268   7.537
45697SOL    HW138930   9.038   8.206   7.519
45697SOL    HW238931   9.001   8.322   7.609
45698SOL     OW38932  10.763   9.038   2.247
45698SOL    HW138933  10.744   9.109   2.309
45698SOL    HW238934  10.789   9.082   2.167
45699SOL     OW38935   1.284   4.940  14.260
45699SOL    HW138936   1.241   5.010  14.309
45699SOL    HW238937   1.273   4.965  14.168
45700SOL     OW38938  14.382   8.512  10.053
45700SOL    HW138939  14.365   8.527  10.146
45700SOL    HW238940  14.332   8.433  10.032
45701SOL     OW38941  11.360  14.367   1.759
45701SOL    HW138942  11.287  14.317   1.796
45701SOL    HW238943  11.423  14.374   1.831
45702SOL     OW38944  11.021  10.731   9.112
45702SOL    HW138945  11.092  10.774   9.065
45702SOL    HW238946  10.942  10.777   9.084
45703SOL     OW38947   9.265  14.223   0.081
45703SOL    HW138948   9.182  14.176   0.069
45703SOL    HW238949   9.241  14.315   0.072
45704SOL     OW38950  11.912   1.606   8.116
45704SOL    HW138951  11.975   1.535   8.123
45704SOL    HW238952  11.933   1.649   8.033
45705SOL     OW38953  10.962   4.364  12.110
45705SOL    HW138954  10.993   4.275  12.095
45705SOL    HW238955  11.032   4.420  12.077
45706SOL     OW38956   4.571   5.130   1.340
45706SOL    HW138957   4.481   5.097   1.335
45706SOL    HW238958   4.584   5.150   1.433
45707SOL     OW38959   0.060   1.323  13.792
45707SOL    HW138960  14.841   1.294  13.791
45707SOL    HW238961   0.062   1.390  13.860
45708SOL     OW38962  13.039   0.484   8.449
45708SOL    HW138963  13.082   0.567   8.471
45708SOL    HW238964  13.012   0.494   8.358
45709SOL     OW38965   3.490   6.297  12.591
45709SOL    HW138966   3.574   6.271  12.555
45709SOL    HW238967   3.452   6.355  12.525
45710SOL     OW38968  12.902   0.228   8.717
45710SOL    HW138969  12.975   0.170   8.738
45710SOL    HW238970  12.942   0.315   8.711
45711SOL     OW38971   5.586  11.328   4.117
45711SOL    HW138972   5.632  11.379   4.184
45711SOL    HW238973   5.655  11.282   4.070
45712SOL     OW38974   5.077   2.462   5.594
45712SOL    HW138975   5.008   2.396   5.602
45712SOL    HW238976   5.032   2.545   5.608
45713SOL     OW38977   4.949  14.488   3.840
45713SOL    HW138978   4.904  14.404   3.843
45713SOL    HW238979   5.038  14.468   3.870
45714SOL     OW38980  10.868  11.512  14.554
45714SOL    HW138981  10.924  11.587  14.534
45714SOL    HW238982  10.828  11.534  14.638
45715SOL     OW38983   8.173  11.819  12.531
45715SOL    HW138984   8.213  11.882  12.590
45715SOL    HW238985   8.202  11.845  12.444
45716SOL     OW38986  12.691   1.565   0.877
45716SOL    HW138987  12.628   1.494   0.865
45716SOL    HW238988  12.771   1.535   0.834
45717SOL     OW38989   5.799   5.771  13.639
45717SOL    HW138990   5.819   5.859  13.607
45717SOL    HW238991   5.714   5.749  13.599
45718SOL     OW38992   4.995   1.670   6.615
45718SOL    HW138993   4.994   1.616   6.694
45718SOL    HW238994   4.911   1.717   6.617
45719SOL     OW38995   2.473   6.418   0.170
45719SOL    HW138996   2.466   6.434   0.076
45719SOL    HW238997   2.538   6.348   0.177
45720SOL     OW38998   3.354   7.341  14.303
45720SOL    HW138999   3.260   7.357  14.313
45720SOL    HW239000   3.391   7.429  14.295
45721SOL     OW39001  14.561  10.042  10.790
45721SOL    HW139002  14.556   9.976  10.860
45721SOL    HW239003  14.495  10.014  10.726
45722SOL     OW39004   0.510   4.313   0.023
45722SOL    HW139005   0.556   4.313   0.106
45722SOL    HW239006   0.468   4.399   0.018
45723SOL     OW39007   2.206   6.570  12.228
45723SOL    HW139008   2.208   6.662  12.199
45723SOL    HW239009   2.257   6.570  12.309
45724SOL     OW39010   9.247   9.469   7.991
45724SOL    HW139011   9.283   9.443   7.906
45724SOL    HW239012   9.309   9.534   8.025
45725SOL     OW39013  12.536   5.761  13.942
45725SOL    HW139014  12.509   5.673  13.969
45725SOL    HW239015  12.486   5.778  13.862
45726SOL     OW39016   9.321   9.290   7.121
45726SOL    HW139017   9.415   9.287   7.108
45726SOL    HW239018   9.287   9.221   7.064
45727SOL     OW39019  11.468   5.508   2.282
45727SOL    HW139020  11.459   5.531   2.375
45727SOL    HW239021  11.559   5.478   2.274
45728SOL     OW39022   9.769   3.480  10.580
45728SOL    HW139023   9.704   3.450  10.517
45728SOL    HW239024   9.750   3.432  10.660
45729SOL     OW39025  13.216  12.952   0.033
45729SOL    HW139026  13.151  13.021   0.023
45729SOL    HW239027  13.299  12.993   0.009
45730SOL     OW39028   5.931   6.394  14.455
45730SOL    HW139029   5.935   6.472  14.400
45730SOL    HW239030   6.014   6.348  14.439
45731SOL     OW39031  14.390  11.737   6.177
45731SOL    HW139032  14.296  11.758   6.181
45731SOL    HW239033  14.398  11.656   6.226
45732SOL     OW39034   5.479  11.265   9.648
45732SOL    HW139035   5.568  11.232   9.637
45732SOL    HW239036   5.482  11.354   9.615
45733SOL     OW39037   6.743   6.466   0.287
45733SOL    HW139038   6.837   6.486   0.279
45733SOL    HW239039   6.722   6.485   0.379
45734SOL     OW39040  14.068   0.952  13.330
45734SOL    HW139041  14.074   1.033  13.381
45734SOL    HW239042  14.012   0.975  13.255
45735SOL     OW39043   2.469   1.529   4.949
45735SOL    HW139044   2.391   1.519   4.893
45735SOL    HW239045   2.537   1.478   4.904
45736SOL     OW39046   3.709   4.903  13.067
45736SOL    HW139047   3.756   4.969  13.016
45736SOL    HW239048   3.693   4.831  13.005
45737SOL     OW39049  13.943   4.987   8.903
45737SOL    HW139050  13.897   4.940   8.974
45737SOL    HW239051  13.883   5.059   8.881
45738SOL     OW39052   4.041   9.272   2.353
45738SOL    HW139053   4.021   9.339   2.418
45738SOL    HW239054   4.081   9.201   2.403
45739SOL     OW39055   5.128  11.664  13.432
45739SOL    HW139056   5.156  11.723  13.363
45739SOL    HW239057   5.199  11.600  13.440
45740SOL     OW39058   0.755  12.134   5.312
45740SOL    HW139059   0.815  12.061   5.300
45740SOL    HW239060   0.735  12.163   5.223
45741SOL     OW39061  10.588  12.444   0.171
45741SOL    HW139062  10.580  12.539   0.168
45741SOL    HW239063  10.609  12.419   0.081
45742SOL     OW39064   9.897  10.732   5.639
45742SOL    HW139065   9.807  10.750   5.667
45742SOL    HW239066   9.936  10.688   5.714
45743SOL     OW39067   4.905  13.148   8.935
45743SOL    HW139068   4.934  13.066   8.975
45743SOL    HW239069   4.811  13.136   8.920
45744SOL     OW39070   9.220   8.113   2.621
45744SOL    HW139071   9.187   8.178   2.558
45744SOL    HW239072   9.185   8.030   2.589
45745SOL     OW39073   0.582  13.606   2.784
45745SOL    HW139074   0.667  13.638   2.754
45745SOL    HW239075   0.594  13.511   2.791
45746SOL     OW39076  11.442  14.496  14.430
45746SOL    HW139077  11.514  14.434  14.423
45746SOL    HW239078  11.364  14.441  14.441
45747SOL     OW39079  11.678  14.228   9.782
45747SOL    HW139080  11.748  14.217   9.847
45747SOL    HW239081  11.621  14.295   9.820
45748SOL     OW39082   7.238   9.963  11.671
45748SOL    HW139083   7.230   9.940  11.763
45748SOL    HW239084   7.169   9.914  11.626
45749SOL     OW39085  14.159   7.735   0.954
45749SOL    HW139086  14.117   7.799   0.896
45749SOL    HW239087  14.099   7.660   0.952
45750SOL     OW39088   9.482   9.114   0.250
45750SOL    HW139089   9.523   9.060   0.317
45750SOL    HW239090   9.542   9.111   0.176
45751SOL     OW39091   3.596   6.811   5.872
45751SOL    HW139092   3.634   6.832   5.786
45751SOL    HW239093   3.670   6.816   5.933
45752SOL     OW39094  12.732  11.529   7.111
45752SOL    HW139095  12.734  11.536   7.207
45752SOL    HW239096  12.824  11.518   7.087
45753SOL     OW39097  14.169   8.668   2.173
45753SOL    HW139098  14.135   8.733   2.235
45753SOL    HW239099  14.256   8.647   2.205
45754SOL     OW39100  14.445  13.501   5.309
45754SOL    HW139101  14.473  13.410   5.297
45754SOL    HW239102  14.523  13.553   5.290
45755SOL     OW39103  14.826   9.495   6.415
45755SOL    HW139104   0.021   9.448   6.367
45755SOL    HW239105  14.744   9.464   6.379
45756SOL     OW39106   4.393  10.225  12.748
45756SOL    HW139107   4.351  10.198  12.666
45756SOL    HW239108   4.481  10.252  12.722
45757SOL     OW39109  13.227  11.780  11.254
45757SOL    HW139110  13.224  11.867  11.214
45757SOL    HW239111  13.302  11.784  11.314
45758SOL     OW39112   0.491  11.422   9.085
45758SOL    HW139113   0.512  11.514   9.072
45758SOL    HW239114   0.465  11.391   8.999
45759SOL     OW39115   3.771   7.525   8.946
45759SOL    HW139116   3.801   7.615   8.958
45759SOL    HW239117   3.804   7.477   9.022
45760SOL     OW39118   7.894   2.615  13.136
45760SOL    HW139119   7.879   2.571  13.220
45760SOL    HW239120   7.806   2.638  13.106
45761SOL     OW39121   8.579  12.786   8.197
45761SOL    HW139122   8.626  12.840   8.134
45761SOL    HW239123   8.548  12.847   8.263
45762SOL     OW39124  11.867  14.005  13.243
45762SOL    HW139125  11.825  14.069  13.300
45762SOL    HW239126  11.849  14.037  13.154
45763SOL     OW39127   6.898   0.247   8.923
45763SOL    HW139128   6.884   0.289   9.008
45763SOL    HW239129   6.919   0.156   8.944
45764SOL     OW39130  12.865   2.889  12.245
45764SOL    HW139131  12.790   2.921  12.295
45764SOL    HW239132  12.835   2.806  12.207
45765SOL     OW39133   3.436   7.572   8.398
45765SOL    HW139134   3.429   7.482   8.429
45765SOL    HW239135   3.425   7.565   8.303
45766SOL     OW39136   4.473   4.066   5.897
45766SOL    HW139137   4.401   4.009   5.923
45766SOL    HW239138   4.552   4.020   5.925
45767SOL     OW39139   0.176   8.150   9.961
45767SOL    HW139140   0.271   8.145   9.972
45767SOL    HW239141   0.157   8.243   9.948
45768SOL     OW39142   1.090  13.762   2.961
45768SOL    HW139143   1.040  13.799   2.888
45768SOL    HW239144   1.024  13.731   3.023
45769SOL     OW39145   5.380  14.401   2.483
45769SOL    HW139146   5.363  14.377   2.391
45769SOL    HW239147   5.293  14.401   2.523
45770SOL     OW39148   6.914   0.462  12.685
45770SOL    HW139149   6.924   0.454  12.780
45770SOL    HW239150   6.981   0.404  12.649
45771SOL     OW39151  13.604  14.076   2.902
45771SOL    HW139152  13.592  14.044   2.991
45771SOL    HW239153  13.699  14.079   2.890
45772SOL     OW39154  12.971   1.810   7.044
45772SOL    HW139155  12.965   1.716   7.059
45772SOL    HW239156  12.908   1.848   7.105
45773SOL     OW39157   3.404   0.386   9.767
45773SOL    HW139158   3.463   0.346   9.831
45773SOL    HW239159   3.372   0.464   9.810
45774SOL     OW39160   5.644  14.163  14.542
45774SOL    HW139161   5.603  14.115  14.614
45774SOL    HW239162   5.606  14.250  14.546
45775SOL     OW39163  14.051  11.564   0.787
45775SOL    HW139164  14.058  11.659   0.793
45775SOL    HW239165  14.098  11.542   0.707
45776SOL     OW39166  10.376   1.550   4.656
45776SOL    HW139167  10.464   1.574   4.626
45776SOL    HW239168  10.388   1.523   4.747
45777SOL     OW39169   0.298   3.287  10.368
45777SOL    HW139170   0.347   3.208  10.349
45777SOL    HW239171   0.271   3.278  10.459
45778SOL     OW39172   4.728   3.170   0.397
45778SOL    HW139173   4.648   3.212   0.430
45778SOL    HW239174   4.789   3.243   0.385
45779SOL     OW39175  10.645   3.208   5.737
45779SOL    HW139176  10.635   3.284   5.794
45779SOL    HW239177  10.711   3.235   5.673
45780SOL     OW39178   4.117   1.148   5.276
45780SOL    HW139179   4.194   1.144   5.333
45780SOL    HW239180   4.085   1.238   5.286
45781SOL     OW39181   9.549  14.701   2.103
45781SOL    HW139182   9.605  14.660   2.168
45781SOL    HW239183   9.571  14.794   2.108
45782SOL     OW39184  14.629   6.557   0.341
45782SOL    HW139185  14.611   6.539   0.433
45782SOL    HW239186  14.552   6.604   0.310
45783SOL     OW39187  13.697  13.939   0.637
45783SOL    HW139188  13.668  13.879   0.706
45783SOL    HW239189  13.629  13.935   0.571
45784SOL     OW39190   5.724   9.398  13.331
45784SOL    HW139191   5.801   9.455  13.321
45784SOL    HW239192   5.651   9.450  13.298
45785SOL     OW39193   0.961   0.073  14.388
45785SOL    HW139194   0.963   0.009  14.458
45785SOL    HW239195   1.053   0.095  14.372
45786SOL     OW39196  10.228  13.842   1.075
45786SOL    HW139197  10.148  13.883   1.107
45786SOL    HW239198  10.283  13.915   1.047
45787SOL     OW39199   7.461   2.807   2.295
45787SOL    HW139200   7.457   2.854   2.212
45787SOL    HW239201   7.504   2.869   2.355
45788SOL     OW39202   4.176  12.708   4.317
45788SOL    HW139203   4.200  12.704   4.410
45788SOL    HW239204   4.081  12.698   4.316
45789SOL     OW39205   3.412   3.066   9.452
45789SOL    HW139206   3.463   3.069   9.371
45789SOL    HW239207   3.346   2.999   9.435
45790SOL     OW39208   3.487   7.730   7.782
45790SOL    HW139209   3.558   7.793   7.776
45790SOL    HW239210   3.472   7.719   7.876
45791SOL     OW39211   2.816   1.539   1.738
45791SOL    HW139212   2.727   1.517   1.765
45791SOL    HW239213   2.815   1.635   1.729
45792SOL     OW39214   0.426  13.067   2.596
45792SOL    HW139215   0.339  13.028   2.595
45792SOL    HW239216   0.445  13.086   2.505
45793SOL     OW39217  13.198   3.316   7.937
45793SOL    HW139218  13.214   3.386   8.000
45793SOL    HW239219  13.115   3.277   7.965
45794SOL     OW39220  12.942   9.458   9.292
45794SOL    HW139221  12.933   9.398   9.217
45794SOL    HW239222  12.854   9.493   9.306
45795SOL     OW39223  11.932   5.393  14.164
45795SOL    HW139224  11.907   5.361  14.078
45795SOL    HW239225  12.018   5.433  14.151
45796SOL     OW39226  14.662  14.417  10.585
45796SOL    HW139227  14.734  14.472  10.614
45796SOL    HW239228  14.651  14.438  10.492
45797SOL     OW39229   9.390  10.717   1.119
45797SOL    HW139230   9.470  10.770   1.115
45797SOL    HW239231   9.354  10.722   1.030
45798SOL     OW39232   2.233   0.440  10.832
45798SOL    HW139233   2.295   0.378  10.793
45798SOL    HW239234   2.251   0.438  10.925
45799SOL     OW39235   9.818   8.116  13.119
45799SOL    HW139236   9.801   8.029  13.156
45799SOL    HW239237   9.880   8.100  13.048
45800SOL     OW39238   9.942   6.453   0.360
45800SOL    HW139239  10.030   6.491   0.357
45800SOL    HW239240   9.884   6.529   0.369
45801SOL     OW39241  12.276   9.286  10.379
45801SOL    HW139242  12.335   9.248  10.444
45801SOL    HW239243  12.310   9.374  10.364
45802SOL     OW39244   1.059   4.966   6.352
45802SOL    HW139245   1.079   4.901   6.420
45802SOL    HW239246   1.005   5.031   6.397
45803SOL     OW39247  11.821   0.711   0.483
45803SOL    HW139248  11.886   0.654   0.442
45803SOL    HW239249  11.867   0.794   0.499
45804SOL     OW39250   4.824  11.277  11.812
45804SOL    HW139251   4.788  11.332  11.742
45804SOL    HW239252   4.918  11.278  11.798
45805SOL     OW39253  14.210  13.648   3.166
45805SOL    HW139254  14.189  13.689   3.250
45805SOL    HW239255  14.124  13.624   3.130
45806SOL     OW39256  10.179   0.833   4.286
45806SOL    HW139257  10.156   0.818   4.194
45806SOL    HW239258  10.235   0.910   4.285
45807SOL     OW39259  13.488  13.729   2.281
45807SOL    HW139260  13.395  13.741   2.263
45807SOL    HW239261  13.531  13.743   2.196
45808SOL     OW39262   2.725  13.399   5.585
45808SOL    HW139263   2.710  13.363   5.498
45808SOL    HW239264   2.639  13.426   5.616
45809SOL     OW39265  13.682   0.812  10.216
45809SOL    HW139266  13.627   0.736  10.236
45809SOL    HW239267  13.696   0.854  10.301
45810SOL     OW39268   8.181   0.941   7.267
45810SOL    HW139269   8.110   0.879   7.280
45810SOL    HW239270   8.233   0.904   7.196
45811SOL     OW39271   8.531   2.782  11.885
45811SOL    HW139272   8.601   2.845  11.870
45811SOL    HW239273   8.454   2.836  11.904
45812SOL     OW39274   5.286  13.975   5.223
45812SOL    HW139275   5.231  13.989   5.300
45812SOL    HW239276   5.240  14.020   5.152
45813SOL     OW39277   7.336  10.714   2.255
45813SOL    HW139278   7.315  10.640   2.198
45813SOL    HW239279   7.430  10.727   2.243
45814SOL     OW39280   4.082   2.940  10.428
45814SOL    HW139281   4.102   2.857  10.470
45814SOL    HW239282   4.019   2.918  10.359
45815SOL     OW39283   3.561  10.478   0.884
45815SOL    HW139284   3.500  10.551   0.898
45815SOL    HW239285   3.534  10.440   0.801
45816SOL     OW39286   0.122  13.827  12.037
45816SOL    HW139287   0.048  13.767  12.023
45816SOL    HW239288   0.096  13.908  11.992
45817SOL     OW39289   2.289   9.079   6.897
45817SOL    HW139290   2.293   9.001   6.953
45817SOL    HW239291   2.262   9.046   6.812
45818SOL     OW39292  14.277   9.124   4.300
45818SOL    HW139293  14.313   9.136   4.212
45818SOL    HW239294  14.186   9.098   4.285
45819SOL     OW39295   4.913   8.125   8.824
45819SOL    HW139296   4.918   8.193   8.891
45819SOL    HW239297   4.975   8.058   8.854
45820SOL     OW39298  12.344   1.009   4.714
45820SOL    HW139299  12.290   0.970   4.782
45820SOL    HW239300  12.282   1.032   4.644
45821SOL     OW39301   7.815  12.998   3.062
45821SOL    HW139302   7.780  13.009   3.150
45821SOL    HW239303   7.863  12.916   3.065
45822SOL     OW39304   7.746   1.042   7.216
45822SOL    HW139305   7.760   1.096   7.138
45822SOL    HW239306   7.652   1.046   7.232
45823SOL     OW39307   2.508  11.049  11.244
45823SOL    HW139308   2.450  11.115  11.281
45823SOL    HW239309   2.582  11.044  11.305
45824SOL     OW39310   1.340   1.280   2.324
45824SOL    HW139311   1.335   1.206   2.264
45824SOL    HW239312   1.249   1.306   2.338
45825SOL     OW39313  10.632  10.654   5.408
45825SOL    HW139314  10.584  10.573   5.422
45825SOL    HW239315  10.567  10.716   5.376
45826SOL     OW39316   6.110   6.927  13.045
45826SOL    HW139317   6.140   6.843  13.011
45826SOL    HW239318   6.094   6.911  13.138
45827SOL     OW39319   8.055   2.089   4.841
45827SOL    HW139320   8.096   2.170   4.809
45827SOL    HW239321   8.044   2.036   4.762
45828SOL     OW39322   2.902  11.239  11.244
45828SOL    HW139323   2.907  11.149  11.275
45828SOL    HW239324   2.854  11.235  11.162
45829SOL     OW39325   0.015   9.846   0.813
45829SOL    HW139326  14.809   9.797   0.790
45829SOL    HW239327   0.041   9.888   0.731
45830SOL     OW39328  10.986  10.430   8.720
45830SOL    HW139329  11.062  10.379   8.747
45830SOL    HW239330  10.939  10.449   8.801
45831SOL     OW39331   5.990   2.879   0.751
45831SOL    HW139332   5.943   2.960   0.738
45831SOL    HW239333   6.068   2.887   0.696
45832SOL     OW39334  11.613   8.463   8.309
45832SOL    HW139335  11.698   8.471   8.353
45832SOL    HW239336  11.550   8.501   8.371
45833SOL     OW39337  12.136   3.784   6.267
45833SOL    HW139338  12.086   3.728   6.208
45833SOL    HW239339  12.220   3.741   6.276
45834SOL     OW39340   6.729   2.851  13.855
45834SOL    HW139341   6.773   2.785  13.908
45834SOL    HW239342   6.702   2.918  13.917
45835SOL     OW39343   6.421  12.650  11.310
45835SOL    HW139344   6.488  12.678  11.248
45835SOL    HW239345   6.438  12.704  11.388
45836SOL     OW39346  14.454  13.283   3.090
45836SOL    HW139347  14.526  13.342   3.113
45836SOL    HW239348  14.386  13.340   3.055
45837SOL     OW39349   1.380   2.353   3.748
45837SOL    HW139350   1.371   2.271   3.797
45837SOL    HW239351   1.292   2.374   3.719
45838SOL     OW39352   5.193  13.114   2.926
45838SOL    HW139353   5.141  13.077   2.998
45838SOL    HW239354   5.277  13.137   2.966
45839SOL     OW39355   8.417   8.670   7.200
45839SOL    HW139356   8.440   8.748   7.148
45839SOL    HW239357   8.444   8.693   7.289
45840SOL     OW39358   1.685  13.331   0.702
45840SOL    HW139359   1.672  13.315   0.608
45840SOL    HW239360   1.615  13.281   0.744
45841SOL     OW39361   3.067   4.527   0.415
45841SOL    HW139362   3.014   4.604   0.437
45841SOL    HW239363   3.157   4.554   0.436
45842SOL     OW39364   3.352   7.420   8.935
45842SOL    HW139365   3.368   7.476   9.011
45842SOL    HW239366   3.342   7.332   8.971
45843SOL     OW39367   3.283   5.061   1.531
45843SOL    HW139368   3.252   5.147   1.561
45843SOL    HW239369   3.299   5.073   1.437
45844SOL     OW39370   6.764   8.337   8.075
45844SOL    HW139371   6.810   8.420   8.062
45844SOL    HW239372   6.671   8.361   8.071
45845SOL     OW39373   1.345   6.409  13.612
45845SOL    HW139374   1.401   6.486  13.598
45845SOL    HW239375   1.406   6.335  13.608
45846SOL     OW39376   2.516   2.476   2.600
45846SOL    HW139377   2.602   2.445   2.571
45846SOL    HW239378   2.479   2.521   2.524
45847SOL     OW39379   8.801   0.748   1.884
45847SOL    HW139380   8.890   0.743   1.849
45847SOL    HW239381   8.782   0.660   1.915
45848SOL     OW39382  14.703  13.110   3.483
45848SOL    HW139383  14.651  13.073   3.411
45848SOL    HW239384  14.748  13.185   3.443
45849SOL     OW39385   1.413  14.133   6.018
45849SOL    HW139386   1.354  14.072   6.063
45849SOL    HW239387   1.447  14.189   6.087
45850SOL     OW39388   6.718   4.890   8.646
45850SOL    HW139389   6.651   4.924   8.706
45850SOL    HW239390   6.759   4.819   8.695
45851SOL     OW39391  11.204   9.281  12.227
45851SOL    HW139392  11.132   9.260  12.168
45851SOL    HW239393  11.162   9.307  12.309
45852SOL     OW39394   5.763  10.813   4.774
45852SOL    HW139395   5.848  10.813   4.818
45852SOL    HW239396   5.779  10.862   4.692
45853SOL     OW39397   9.393  14.057  12.412
45853SOL    HW139398   9.387  13.974  12.366
45853SOL    HW239399   9.435  14.116  12.350
45854SOL     OW39400   2.561   7.465   1.115
45854SOL    HW139401   2.492   7.522   1.081
45854SOL    HW239402   2.588   7.412   1.041
45855SOL     OW39403   5.218   7.798   3.625
45855SOL    HW139404   5.246   7.857   3.696
45855SOL    HW239405   5.241   7.711   3.656
45856SOL     OW39406  10.738   0.181  10.492
45856SOL    HW139407  10.830   0.190  10.468
45856SOL    HW239408  10.740   0.128  10.572
45857SOL     OW39409   3.944  14.457   5.415
45857SOL    HW139410   3.870  14.449   5.475
45857SOL    HW239411   3.913  14.414   5.334
45858SOL     OW39412   9.660   9.685   2.085
45858SOL    HW139413   9.738   9.730   2.052
45858SOL    HW239414   9.636   9.733   2.164
45859SOL     OW39415   2.691  13.149   2.797
45859SOL    HW139416   2.754  13.086   2.832
45859SOL    HW239417   2.715  13.232   2.838
45860SOL     OW39418  14.150   9.354  14.769
45860SOL    HW139419  14.144   9.359  14.673
45860SOL    HW239420  14.236   9.391  14.789
45861SOL     OW39421   5.657  11.111  14.275
45861SOL    HW139422   5.595  11.093  14.346
45861SOL    HW239423   5.602  11.140  14.202
45862SOL     OW39424   1.369   1.639   7.821
45862SOL    HW139425   1.300   1.689   7.865
45862SOL    HW239426   1.376   1.558   7.872
45863SOL     OW39427   8.211  14.273   2.052
45863SOL    HW139428   8.253  14.273   2.138
45863SOL    HW239429   8.257  14.205   2.004
45864SOL     OW39430  14.414  12.952   1.862
45864SOL    HW139431  14.328  12.915   1.843
45864SOL    HW239432  14.424  12.943   1.957
45865SOL     OW39433   3.150   0.377   6.039
45865SOL    HW139434   3.207   0.300   6.033
45865SOL    HW239435   3.178   0.433   5.966
45866SOL     OW39436   4.922   5.578   3.034
45866SOL    HW139437   4.885   5.595   2.947
45866SOL    HW239438   5.016   5.569   3.019
45867SOL     OW39439   0.986  11.667   3.287
45867SOL    HW139440   0.939  11.722   3.224
45867SOL    HW239441   1.010  11.589   3.237
45868SOL     OW39442   4.192   0.580  11.667
45868SOL    HW139443   4.267   0.546  11.716
45868SOL    HW239444   4.134   0.505  11.657
45869SOL     OW39445   0.148   6.743   6.040
45869SOL    HW139446   0.130   6.797   5.963
45869SOL    HW239447   0.209   6.794   6.092
45870SOL     OW39448   1.623  14.786   1.402
45870SOL    HW139449   1.589  14.731   1.331
45870SOL    HW239450   1.550  14.844   1.425
45871SOL     OW39451   2.412  12.946   5.275
45871SOL    HW139452   2.404  13.040   5.287
45871SOL    HW239453   2.500  12.924   5.306
45872SOL     OW39454   9.393   3.379   8.321
45872SOL    HW139455   9.395   3.363   8.226
45872SOL    HW239456   9.300   3.389   8.341
45873SOL     OW39457  11.426  11.048  11.088
45873SOL    HW139458  11.489  11.063  11.159
45873SOL    HW239459  11.452  10.965  11.049
45874SOL     OW39460   6.282   7.236   0.715
45874SOL    HW139461   6.366   7.278   0.697
45874SOL    HW239462   6.267   7.255   0.808
45875SOL     OW39463   1.123   0.651   4.456
45875SOL    HW139464   1.092   0.606   4.378
45875SOL    HW239465   1.079   0.736   4.453
45876SOL     OW39466   6.297   7.592   5.043
45876SOL    HW139467   6.364   7.596   5.111
45876SOL    HW239468   6.277   7.499   5.034
45877SOL     OW39469   7.183   7.194   5.283
45877SOL    HW139470   7.237   7.181   5.361
45877SOL    HW239471   7.094   7.174   5.312
45878SOL     OW39472   8.726   2.166  13.763
45878SOL    HW139473   8.762   2.152  13.850
45878SOL    HW239474   8.682   2.251  13.767
45879SOL     OW39475   7.838   5.153   8.062
45879SOL    HW139476   7.887   5.181   7.984
45879SOL    HW239477   7.860   5.061   8.073
45880SOL     OW39478  13.547   7.564  14.073
45880SOL    HW139479  13.592   7.546  14.155
45880SOL    HW239480  13.589   7.507  14.009
45881SOL     OW39481   8.057  11.658   7.586
45881SOL    HW139482   7.997  11.586   7.569
45881SOL    HW239483   8.144  11.618   7.582
45882SOL     OW39484  10.509   1.493   1.321
45882SOL    HW139485  10.554   1.422   1.274
45882SOL    HW239486  10.432   1.451   1.359
45883SOL     OW39487   3.979  10.459   5.845
45883SOL    HW139488   4.003  10.482   5.934
45883SOL    HW239489   4.060  10.427   5.805
45884SOL     OW39490   8.449  10.702   5.068
45884SOL    HW139491   8.408  10.688   5.153
45884SOL    HW239492   8.436  10.795   5.049
45885SOL     OW39493   6.734   7.819   7.001
45885SOL    HW139494   6.805   7.862   6.954
45885SOL    HW239495   6.699   7.887   7.060
45886SOL     OW39496  12.133   7.225   5.283
45886SOL    HW139497  12.172   7.214   5.196
45886SOL    HW239498  12.153   7.143   5.329
45887SOL     OW39499   2.626  13.733   2.067
45887SOL    HW139500   2.645  13.650   2.110
45887SOL    HW239501   2.712  13.772   2.051
45888SOL     OW39502   5.356  14.862  13.659
45888SOL    HW139503   5.348   0.072  13.706
45888SOL    HW239504   5.386  14.800  13.725
45889SOL     OW39505  10.674   2.477   5.415
45889SOL    HW139506  10.708   2.389   5.402
45889SOL    HW239507  10.721   2.531   5.352
45890SOL     OW39508   1.147   9.065   8.225
45890SOL    HW139509   1.096   9.027   8.154
45890SOL    HW239510   1.100   9.040   8.305
45891SOL     OW39511   8.684  14.241  10.294
45891SOL    HW139512   8.705  14.153  10.263
45891SOL    HW239513   8.590  14.238  10.313
45892SOL     OW39514   5.129   1.279   3.404
45892SOL    HW139515   5.193   1.232   3.350
45892SOL    HW239516   5.111   1.360   3.356
45893SOL     OW39517   5.581   5.779   5.795
45893SOL    HW139518   5.672   5.806   5.812
45893SOL    HW239519   5.584   5.743   5.706
45894SOL     OW39520  14.382   9.495   0.693
45894SOL    HW139521  14.298   9.494   0.647
45894SOL    HW239522  14.440   9.444   0.637
45895SOL     OW39523   1.219   7.128   5.228
45895SOL    HW139524   1.307   7.124   5.265
45895SOL    HW239525   1.181   7.041   5.245
45896SOL     OW39526  12.889   3.621   1.309
45896SOL    HW139527  12.862   3.555   1.245
45896SOL    HW239528  12.807   3.652   1.347
45897SOL     OW39529   3.080   9.426   1.564
45897SOL    HW139530   3.009   9.442   1.626
45897SOL    HW239531   3.152   9.394   1.618
45898SOL     OW39532   7.248  14.034   6.208
45898SOL    HW139533   7.293  14.116   6.229
45898SOL    HW239534   7.175  14.060   6.151
45899SOL     OW39535   9.210   3.021   2.169
45899SOL    HW139536   9.253   2.938   2.189
45899SOL    HW239537   9.269   3.065   2.108
45900SOL     OW39538  13.778  10.185  11.629
45900SOL    HW139539  13.715  10.219  11.566
45900SOL    HW239540  13.844  10.254  11.637
45901SOL     OW39541   6.436   6.077   9.848
45901SOL    HW139542   6.341   6.073   9.831
45901SOL    HW239543   6.474   6.017   9.784
45902SOL     OW39544  13.699  12.200  12.812
45902SOL    HW139545  13.694  12.116  12.768
45902SOL    HW239546  13.788  12.205  12.846
45903SOL     OW39547  14.704   3.383   7.133
45903SOL    HW139548  14.792   3.422   7.133
45903SOL    HW239549  14.645   3.458   7.121
45904SOL     OW39550  13.260   6.554  12.066
45904SOL    HW139551  13.304   6.521  12.145
45904SOL    HW239552  13.319   6.531  11.994
45905SOL     OW39553   7.900   9.046   7.153
45905SOL    HW139554   7.933   8.966   7.112
45905SOL    HW239555   7.880   9.105   7.080
45906SOL     OW39556   3.556   8.038   3.696
45906SOL    HW139557   3.641   7.995   3.705
45906SOL    HW239558   3.496   7.983   3.747
45907SOL     OW39559   8.157  12.832   6.599
45907SOL    HW139560   8.094  12.889   6.642
45907SOL    HW239561   8.161  12.865   6.509
45908SOL     OW39562   8.616   9.509  13.458
45908SOL    HW139563   8.560   9.480  13.386
45908SOL    HW239564   8.697   9.458  13.448
45909SOL     OW39565   9.923   3.481  11.101
45909SOL    HW139566   9.959   3.398  11.130
45909SOL    HW239567   9.870   3.512  11.175
45910SOL     OW39568   3.066   4.787   6.268
45910SOL    HW139569   2.979   4.751   6.255
45910SOL    HW239570   3.059   4.838   6.349
45911SOL     OW39571   6.505   1.032  11.116
45911SOL    HW139572   6.501   0.961  11.179
45911SOL    HW239573   6.465   1.107  11.161
45912SOL     OW39574  12.382   8.286   7.217
45912SOL    HW139575  12.433   8.366   7.208
45912SOL    HW239576  12.295   8.309   7.186
45913SOL     OW39577  14.497   4.176  11.500
45913SOL    HW139578  14.429   4.201  11.438
45913SOL    HW239579  14.562   4.130  11.447
45914SOL     OW39580   8.453  12.967  14.534
45914SOL    HW139581   8.432  12.938  14.446
45914SOL    HW239582   8.480  12.888  14.580
45915SOL     OW39583   6.832   6.935  12.514
45915SOL    HW139584   6.828   7.008  12.576
45915SOL    HW239585   6.790   6.862  12.559
45916SOL     OW39586   5.827   5.968  11.443
45916SOL    HW139587   5.839   6.044  11.501
45916SOL    HW239588   5.734   5.969  11.421
45917SOL     OW39589   8.418   1.745  10.584
45917SOL    HW139590   8.460   1.660  10.570
45917SOL    HW239591   8.489   1.809  10.573
45918SOL     OW39592   7.701   9.637  12.682
45918SOL    HW139593   7.717   9.687  12.602
45918SOL    HW239594   7.611   9.659  12.706
45919SOL     OW39595   9.464  14.187  12.881
45919SOL    HW139596   9.378  14.217  12.909
45919SOL    HW239597   9.489  14.122  12.946
45920SOL     OW39598   1.632   6.364   4.532
45920SOL    HW139599   1.662   6.287   4.580
45920SOL    HW239600   1.536   6.360   4.538
45921SOL     OW39601   8.928   7.341  12.067
45921SOL    HW139602   8.925   7.275  12.136
45921SOL    HW239603   8.877   7.415  12.101
45922SOL     OW39604   2.250   8.232   4.372
45922SOL    HW139605   2.261   8.253   4.280
45922SOL    HW239606   2.224   8.140   4.373
45923SOL     OW39607   2.928   5.832   8.483
45923SOL    HW139608   2.993   5.889   8.442
45923SOL    HW239609   2.914   5.869   8.570
45924SOL     OW39610   8.756   2.512  10.201
45924SOL    HW139611   8.714   2.529  10.116
45924SOL    HW239612   8.818   2.442  10.183
45925SOL     OW39613   1.337   2.364  13.695
45925SOL    HW139614   1.369   2.309  13.624
45925SOL    HW239615   1.349   2.311  13.774
45926SOL     OW39616   8.565   9.112   0.731
45926SOL    HW139617   8.559   9.199   0.693
45926SOL    HW239618   8.476   9.077   0.725
45927SOL     OW39619   7.064  12.131   0.067
45927SOL    HW139620   7.137  12.191   0.080
45927SOL    HW239621   7.077  12.063   0.134
45928SOL     OW39622   7.055   7.866   0.567
45928SOL    HW139623   7.123   7.918   0.523
45928SOL    HW239624   6.993   7.843   0.497
45929SOL     OW39625   3.544   1.893  13.159
45929SOL    HW139626   3.609   1.849  13.214
45929SOL    HW239627   3.588   1.902  13.074
45930SOL     OW39628   1.772   8.062   0.285
45930SOL    HW139629   1.806   8.028   0.202
45930SOL    HW239630   1.679   8.076   0.270
45931SOL     OW39631   0.357  12.190   7.239
45931SOL    HW139632   0.417  12.263   7.257
45931SOL    HW239633   0.342  12.194   7.145
45932SOL     OW39634   0.882   7.465  11.693
45932SOL    HW139635   0.963   7.494  11.651
45932SOL    HW239636   0.908   7.390  11.747
45933SOL     OW39637   5.752  13.015  10.667
45933SOL    HW139638   5.761  13.043  10.576
45933SOL    HW239639   5.809  13.074  10.716
45934SOL     OW39640   9.621   6.876  10.532
45934SOL    HW139641   9.689   6.942  10.549
45934SOL    HW239642   9.611   6.830  10.616
45935SOL     OW39643   2.934  12.546  10.567
45935SOL    HW139644   2.905  12.549  10.658
45935SOL    HW239645   2.927  12.454  10.542
45936SOL     OW39646   3.132   3.664  14.231
45936SOL    HW139647   3.145   3.742  14.285
45936SOL    HW239648   3.064   3.615  14.276
45937SOL     OW39649   8.150   1.497  12.225
45937SOL    HW139650   8.224   1.461  12.273
45937SOL    HW239651   8.130   1.579  12.269
45938SOL     OW39652  12.781   6.849  13.041
45938SOL    HW139653  12.855   6.800  13.004
45938SOL    HW239654  12.704   6.807  13.004
45939SOL     OW39655   3.047   0.159   2.832
45939SOL    HW139656   3.074   0.250   2.820
45939SOL    HW239657   3.114   0.108   2.786
45940SOL     OW39658   0.202  12.938   0.618
45940SOL    HW139659   0.161  12.878   0.680
45940SOL    HW239660   0.153  12.926   0.537
45941SOL     OW39661   0.885   1.251   6.047
45941SOL    HW139662   0.898   1.315   6.116
45941SOL    HW239663   0.963   1.259   5.992
45942SOL     OW39664  12.115   3.982   0.374
45942SOL    HW139665  12.026   3.973   0.410
45942SOL    HW239666  12.152   4.057   0.422
45943SOL     OW39667   3.238  14.341   8.913
45943SOL    HW139668   3.292  14.381   8.845
45943SOL    HW239669   3.183  14.413   8.945
45944SOL     OW39670   3.463   4.124   3.976
45944SOL    HW139671   3.370   4.115   3.996
45944SOL    HW239672   3.476   4.072   3.897
45945SOL     OW39673  13.680   1.765   3.272
45945SOL    HW139674  13.694   1.796   3.182
45945SOL    HW239675  13.585   1.769   3.284
45946SOL     OW39676   7.709   8.355   0.133
45946SOL    HW139677   7.668   8.359   0.219
45946SOL    HW239678   7.686   8.268   0.100
45947SOL     OW39679   7.686   5.600   5.814
45947SOL    HW139680   7.621   5.604   5.884
45947SOL    HW239681   7.635   5.584   5.735
45948SOL     OW39682   1.050  10.119   9.111
45948SOL    HW139683   1.133  10.142   9.069
45948SOL    HW239684   1.036  10.187   9.176
45949SOL     OW39685   5.925   7.981   5.564
45949SOL    HW139686   5.987   7.908   5.561
45949SOL    HW239687   5.978   8.059   5.551
45950SOL     OW39688   3.558  10.073  12.185
45950SOL    HW139689   3.634  10.118  12.149
45950SOL    HW239690   3.541  10.002  12.123
45951SOL     OW39691  12.318   7.492  13.560
45951SOL    HW139692  12.414   7.492  13.558
45951SOL    HW239693  12.295   7.402  13.584
45952SOL     OW39694  10.887   3.007  10.094
45952SOL    HW139695  10.869   2.930  10.042
45952SOL    HW239696  10.892   2.975  10.184
45953SOL     OW39697  14.548  13.285   8.622
45953SOL    HW139698  14.558  13.286   8.527
45953SOL    HW239699  14.581  13.370   8.651
45954SOL     OW39700   3.623  12.654   0.709
45954SOL    HW139701   3.625  12.599   0.787
45954SOL    HW239702   3.714  12.673   0.690
45955SOL     OW39703   7.429   3.302  13.825
45955SOL    HW139704   7.477   3.346  13.895
45955SOL    HW239705   7.347   3.273  13.866
45956SOL     OW39706   0.097   4.625   5.968
45956SOL    HW139707   0.166   4.606   5.904
45956SOL    HW239708   0.127   4.584   6.049
45957SOL     OW39709  13.601  12.519   9.248
45957SOL    HW139710  13.566  12.503   9.336
45957SOL    HW239711  13.649  12.601   9.256
45958SOL     OW39712  11.572   8.871   5.275
45958SOL    HW139713  11.552   8.829   5.358
45958SOL    HW239714  11.652   8.921   5.291
45959SOL     OW39715  11.736   3.290   2.752
45959SOL    HW139716  11.732   3.195   2.759
45959SOL    HW239717  11.695   3.322   2.832
45960SOL     OW39718  12.156  12.533   9.507
45960SOL    HW139719  12.165  12.504   9.416
45960SOL    HW239720  12.163  12.628   9.503
45961SOL     OW39721   0.651   7.323   6.689
45961SOL    HW139722   0.715   7.376   6.737
45961SOL    HW239723   0.700   7.245   6.664
45962SOL     OW39724   4.012   0.332  11.605
45962SOL    HW139725   4.079   0.264  11.607
45962SOL    HW239726   3.976   0.328  11.516
45963SOL     OW39727   3.408  13.599   8.140
45963SOL    HW139728   3.476  13.664   8.125
45963SOL    HW239729   3.338  13.648   8.184
45964SOL     OW39730   9.793   7.267  12.507
45964SOL    HW139731   9.724   7.225  12.456
45964SOL    HW239732   9.820   7.342  12.454
45965SOL     OW39733  13.777   5.717   2.897
45965SOL    HW139734  13.682   5.705   2.884
45965SOL    HW239735  13.798   5.659   2.971
45966SOL     OW39736   6.304  14.858   6.207
45966SOL    HW139737   6.249   0.005   6.131
45966SOL    HW239738   6.272   0.044   6.276
45967SOL     OW39739  12.341  10.766   4.588
45967SOL    HW139740  12.336  10.798   4.498
45967SOL    HW239741  12.435  10.761   4.607
45968SOL     OW39742   7.563   1.353   5.025
45968SOL    HW139743   7.578   1.277   5.081
45968SOL    HW239744   7.468   1.367   5.028
45969SOL     OW39745   9.560   8.833  13.653
45969SOL    HW139746   9.646   8.815  13.689
45969SOL    HW239747   9.525   8.747  13.630
45970SOL     OW39748   4.562   5.114   8.454
45970SOL    HW139749   4.519   5.061   8.387
45970SOL    HW239750   4.541   5.204   8.431
45971SOL     OW39751   3.412  10.645   1.193
45971SOL    HW139752   3.493  10.653   1.244
45971SOL    HW239753   3.348  10.695   1.243
45972SOL     OW39754   0.138   5.554   8.975
45972SOL    HW139755   0.059   5.585   9.019
45972SOL    HW239756   0.136   5.459   8.986
45973SOL     OW39757   4.818   4.059  10.404
45973SOL    HW139758   4.863   4.144  10.402
45973SOL    HW239759   4.747   4.072  10.467
45974SOL     OW39760  14.361   1.457   7.284
45974SOL    HW139761  14.434   1.491   7.233
45974SOL    HW239762  14.347   1.522   7.353
45975SOL     OW39763   2.031   7.206   7.553
45975SOL    HW139764   2.121   7.174   7.563
45975SOL    HW239765   2.026   7.233   7.461
45976SOL     OW39766   4.861   7.884   2.753
45976SOL    HW139767   4.802   7.903   2.680
45976SOL    HW239768   4.934   7.836   2.714
45977SOL     OW39769   7.755   6.013  10.758
45977SOL    HW139770   7.837   6.056  10.782
45977SOL    HW239771   7.687   6.075  10.786
45978SOL     OW39772  14.571  10.630  14.550
45978SOL    HW139773  14.569  10.574  14.628
45978SOL    HW239774  14.480  10.641  14.525
45979SOL     OW39775  14.371   4.304  11.946
45979SOL    HW139776  14.295   4.255  11.979
45979SOL    HW239777  14.356   4.310  11.851
45980SOL     OW39778   0.998   5.031   4.559
45980SOL    HW139779   0.912   5.027   4.601
45980SOL    HW239780   1.045   4.955   4.594
45981SOL     OW39781   5.261  13.078   4.941
45981SOL    HW139782   5.171  13.109   4.949
45981SOL    HW239783   5.254  12.982   4.948
45982SOL     OW39784  14.513   7.108  10.511
45982SOL    HW139785  14.447   7.150  10.566
45982SOL    HW239786  14.529   7.024  10.553
45983SOL     OW39787   5.004   5.452   9.214
45983SOL    HW139788   5.028   5.414   9.130
45983SOL    HW239789   4.911   5.469   9.207
45984SOL     OW39790  10.470  11.448   4.439
45984SOL    HW139791  10.476  11.499   4.519
45984SOL    HW239792  10.402  11.492   4.387
45985SOL     OW39793   3.510  12.232  10.446
45985SOL    HW139794   3.596  12.194  10.464
45985SOL    HW239795   3.524  12.327  10.452
45986SOL     OW39796   5.389   8.477   8.791
45986SOL    HW139797   5.332   8.553   8.784
45986SOL    HW239798   5.401   8.447   8.701
45987SOL     OW39799   1.256  12.401  11.889
45987SOL    HW139800   1.348  12.374  11.885
45987SOL    HW239801   1.214  12.351  11.820
45988SOL     OW39802  11.032  14.307  13.200
45988SOL    HW139803  11.074  14.390  13.177
45988SOL    HW239804  10.939  14.327  13.200
45989SOL     OW39805   0.557  10.243  13.591
45989SOL    HW139806   0.471  10.281  13.571
45989SOL    HW239807   0.538  10.175  13.656
45990SOL     OW39808  10.376   4.887   9.526
45990SOL    HW139809  10.358   4.942   9.602
45990SOL    HW239810  10.457   4.923   9.489
45991SOL     OW39811   0.521  10.311  14.225
45991SOL    HW139812   0.503  10.221  14.254
45991SOL    HW239813   0.604  10.333  14.267
45992SOL     OW39814  11.759   9.887   9.502
45992SOL    HW139815  11.697   9.929   9.444
45992SOL    HW239816  11.715   9.808   9.533
45993SOL     OW39817   1.615   4.167   6.006
45993SOL    HW139818   1.673   4.093   5.987
45993SOL    HW239819   1.639   4.233   5.941
45994SOL     OW39820   2.376  10.989   1.977
45994SOL    HW139821   2.358  11.028   2.063
45994SOL    HW239822   2.344  11.054   1.915
45995SOL     OW39823   4.445   6.426  14.777
45995SOL    HW139824   4.397   6.391  14.853
45995SOL    HW239825   4.422   6.367  14.705
45996SOL     OW39826   6.769   8.101  13.328
45996SOL    HW139827   6.739   8.126  13.241
45996SOL    HW239828   6.846   8.047  13.313
45997SOL     OW39829   9.784  11.772   1.438
45997SOL    HW139830   9.754  11.861   1.459
45997SOL    HW239831   9.710  11.716   1.459
45998SOL     OW39832   3.001  11.122   2.367
45998SOL    HW139833   3.039  11.040   2.335
45998SOL    HW239834   2.948  11.154   2.294
45999SOL     OW39835   8.764   9.697   2.648
45999SOL    HW139836   8.742   9.607   2.624
45999SOL    HW239837   8.755   9.746   2.566
46000SOL     OW39838  10.671  13.629   9.227
46000SOL    HW139839  10.679  13.719   9.197
46000SOL    HW239840  10.630  13.583   9.154
46001SOL     OW39841   5.808   4.352  10.104
46001SOL    HW139842   5.748   4.425  10.092
46001SOL    HW239843   5.855   4.346  10.021
46002SOL     OW39844  13.965   4.559  13.741
46002SOL    HW139845  13.935   4.619  13.673
46002SOL    HW239846  13.979   4.476  13.695
46003SOL     OW39847   0.656   9.430   1.934
46003SOL    HW139848   0.688   9.352   1.981
46003SOL    HW239849   0.574   9.452   1.978
46004SOL     OW39850   9.247   6.968   5.934
46004SOL    HW139851   9.254   6.984   6.028
46004SOL    HW239852   9.325   6.918   5.912
46005SOL     OW39853  12.285   7.158  14.382
46005SOL    HW139854  12.326   7.093  14.325
46005SOL    HW239855  12.299   7.242  14.338
46006SOL     OW39856  14.730   4.288   2.818
46006SOL    HW139857  14.726   4.254   2.728
46006SOL    HW239858  14.738   4.210   2.873
46007SOL     OW39859   9.028  12.841   5.581
46007SOL    HW139860   8.947  12.878   5.544
46007SOL    HW239861   9.077  12.810   5.506
46008SOL     OW39862  10.255  12.647   2.888
46008SOL    HW139863  10.286  12.674   2.802
46008SOL    HW239864  10.305  12.568   2.907
46009SOL     OW39865  10.213  10.482   6.483
46009SOL    HW139866  10.124  10.471   6.451
46009SOL    HW239867  10.253  10.395   6.475
46010SOL     OW39868   3.525   2.794   1.780
46010SOL    HW139869   3.442   2.820   1.741
46010SOL    HW239870   3.560   2.727   1.722
46011SOL     OW39871   2.741   8.130   6.007
46011SOL    HW139872   2.731   8.046   5.963
46011SOL    HW239873   2.652   8.152   6.036
46012SOL     OW39874   4.978   4.694  10.895
46012SOL    HW139875   4.994   4.788  10.881
46012SOL    HW239876   5.065   4.657  10.910
46013SOL     OW39877   7.013   8.777   6.477
46013SOL    HW139878   7.099   8.739   6.457
46013SOL    HW239879   7.009   8.857   6.423
46014SOL     OW39880   4.434   5.310  11.682
46014SOL    HW139881   4.484   5.261  11.617
46014SOL    HW239882   4.343   5.303  11.651
46015SOL     OW39883  11.491   3.673  10.706
46015SOL    HW139884  11.570   3.682  10.652
46015SOL    HW239885  11.432   3.619  10.653
46016SOL     OW39886   5.545   5.986   9.983
46016SOL    HW139887   5.466   6.034  10.007
46016SOL    HW239888   5.512   5.903   9.948
46017SOL     OW39889   9.231   2.714   7.022
46017SOL    HW139890   9.274   2.688   6.941
46017SOL    HW239891   9.163   2.775   6.995
46018SOL     OW39892   4.148   8.266   9.052
46018SOL    HW139893   4.233   8.224   9.038
46018SOL    HW239894   4.168   8.344   9.104
46019SOL     OW39895   0.884   6.083   3.666
46019SOL    HW139896   0.945   6.157   3.663
46019SOL    HW239897   0.861   6.068   3.574
46020SOL     OW39898   0.818   8.567   5.187
46020SOL    HW139899   0.842   8.531   5.101
46020SOL    HW239900   0.724   8.549   5.194
46021SOL     OW39901  11.749  13.508   0.351
46021SOL    HW139902  11.759  13.414   0.363
46021SOL    HW239903  11.655  13.524   0.364
46022SOL     OW39904   0.503   9.157   1.172
46022SOL    HW139905   0.481   9.081   1.119
46022SOL    HW239906   0.420   9.204   1.182
46023SOL     OW39907   6.196   3.560   0.868
46023SOL    HW139908   6.109   3.597   0.883
46023SOL    HW239909   6.199   3.543   0.774
46024SOL     OW39910  12.304   9.001  11.444
46024SOL    HW139911  12.322   8.993  11.350
46024SOL    HW239912  12.221   9.048  11.448
46025SOL     OW39913   3.100   5.357   6.724
46025SOL    HW139914   3.040   5.430   6.714
46025SOL    HW239915   3.059   5.300   6.789
46026SOL     OW39916  10.003  11.689   0.965
46026SOL    HW139917  10.005  11.778   1.000
46026SOL    HW239918   9.913  11.660   0.978
46027SOL     OW39919   6.890   8.871   1.314
46027SOL    HW139920   6.879   8.856   1.221
46027SOL    HW239921   6.874   8.965   1.326
46028SOL     OW39922   2.682  14.412  13.798
46028SOL    HW139923   2.593  14.400  13.831
46028SOL    HW239924   2.708  14.325  13.767
46029SOL     OW39925  14.425   8.768   3.408
46029SOL    HW139926  14.376   8.817   3.342
46029SOL    HW239927  14.488   8.716   3.357
46030SOL     OW39928   2.930  11.851   0.851
46030SOL    HW139929   2.907  11.837   0.943
46030SOL    HW239930   2.893  11.937   0.830
46031SOL     OW39931   1.611   6.542  13.634
46031SOL    HW139932   1.601   6.531  13.729
46031SOL    HW239933   1.704   6.524  13.617
46032SOL     OW39934  11.535   9.804  12.493
46032SOL    HW139935  11.615   9.772  12.452
46032SOL    HW239936  11.556   9.894  12.519
46033SOL     OW39937  14.841   1.642   3.962
46033SOL    HW139938  14.806   1.558   3.935
46033SOL    HW239939  14.824   1.700   3.888
46034SOL     OW39940   3.744  13.727   6.548
46034SOL    HW139941   3.775  13.700   6.634
46034SOL    HW239942   3.711  13.647   6.507
46035SOL     OW39943   2.536   4.167   8.454
46035SOL    HW139944   2.446   4.138   8.469
46035SOL    HW239945   2.587   4.120   8.519
46036SOL     OW39946   5.570  10.334   4.672
46036SOL    HW139947   5.594  10.311   4.582
46036SOL    HW239948   5.631  10.403   4.696
46037SOL     OW39949   7.478  14.511  11.306
46037SOL    HW139950   7.558  14.546  11.268
46037SOL    HW239951   7.453  14.575  11.373
46038SOL     OW39952  14.164   4.530  14.828
46038SOL    HW139953  14.241   4.480  14.855
46038SOL    HW239954  14.137   4.490  14.746
46039SOL     OW39955   2.188   9.347   0.016
46039SOL    HW139956   2.167   9.254   0.006
46039SOL    HW239957   2.172   9.384  14.802
46040SOL     OW39958  13.806   1.689  13.256
46040SOL    HW139959  13.799   1.764  13.197
46040SOL    HW239960  13.755   1.620  13.213
46041SOL     OW39961  10.138   6.257   3.277
46041SOL    HW139962  10.080   6.195   3.233
46041SOL    HW239963  10.181   6.205   3.346
46042SOL     OW39964   3.274  13.712   2.103
46042SOL    HW139965   3.329  13.634   2.110
46042SOL    HW239966   3.322  13.771   2.046
46043SOL     OW39967   0.276   7.701  12.820
46043SOL    HW139968   0.232   7.754  12.753
46043SOL    HW239969   0.262   7.611  12.792
46044SOL     OW39970   3.796   4.002   5.728
46044SOL    HW139971   3.840   4.083   5.751
46044SOL    HW239972   3.725   3.994   5.792
46045SOL     OW39973   2.029   6.240   9.893
46045SOL    HW139974   2.000   6.261   9.805
46045SOL    HW239975   2.038   6.145   9.893
46046SOL     OW39976   2.871   2.657   8.848
46046SOL    HW139977   2.888   2.607   8.928
46046SOL    HW239978   2.788   2.623   8.816
46047SOL     OW39979  11.514   7.460  14.467
46047SOL    HW139980  11.516   7.458  14.371
46047SOL    HW239981  11.457   7.388  14.492
46048SOL     OW39982   2.569   1.246   0.204
46048SOL    HW139983   2.640   1.183   0.189
46048SOL    HW239984   2.498   1.194   0.240
46049SOL     OW39985   4.437   6.035  14.241
46049SOL    HW139986   4.474   5.946  14.240
46049SOL    HW239987   4.443   6.064  14.150
46050SOL     OW39988   0.653  14.311   1.224
46050SOL    HW139989   0.709  14.369   1.172
46050SOL    HW239990   0.713  14.263   1.281
46051SOL     OW39991   9.154   9.097   9.072
46051SOL    HW139992   9.235   9.085   9.121
46051SOL    HW239993   9.097   9.146   9.131
46052SOL     OW39994   1.739   8.852  14.618
46052SOL    HW139995   1.832   8.842  14.638
46052SOL    HW239996   1.701   8.884  14.700
46053SOL     OW39997   6.852   3.418   6.954
46053SOL    HW139998   6.916   3.486   6.930
46053SOL    HW239999   6.846   3.362   6.877
46054SOL     OW40000   2.081  10.794   7.750
46054SOL    HW140001   1.997  10.793   7.704
46054SOL    HW240002   2.141  10.837   7.690
46055SOL     OW40003   3.240   3.994  10.284
46055SOL    HW140004   3.296   3.919  10.266
46055SOL    HW240005   3.301   4.064  10.309
46056SOL     OW40006   8.734  12.333   1.415
46056SOL    HW140007   8.676  12.366   1.347
46056SOL    HW240008   8.693  12.360   1.497
46057SOL     OW40009  14.263  11.952  11.221
46057SOL    HW140010  14.187  11.975  11.168
46057SOL    HW240011  14.317  12.031  11.223
46058SOL     OW40012   9.014  11.032  13.832
46058SOL    HW140013   8.970  11.111  13.863
46058SOL    HW240014   9.107  11.055  13.831
46059SOL     OW40015  14.437   4.939   0.743
46059SOL    HW140016  14.425   4.943   0.837
46059SOL    HW240017  14.351   4.913   0.709
46060SOL     OW40018  11.341   6.212   6.836
46060SOL    HW140019  11.286   6.197   6.913
46060SOL    HW240020  11.278   6.223   6.764
46061SOL     OW40021   5.057  10.368   5.661
46061SOL    HW140022   5.097  10.294   5.614
46061SOL    HW240023   4.968  10.338   5.680
46062SOL     OW40024  10.395   1.111   9.551
46062SOL    HW140025  10.351   1.168   9.489
46062SOL    HW240026  10.454   1.058   9.497
46063SOL     OW40027   4.731   1.209  14.833
46063SOL    HW140028   4.769   1.122  14.828
46063SOL    HW240029   4.713   1.232  14.742
46064SOL     OW40030   0.743   7.044   7.359
46064SOL    HW140031   0.686   6.982   7.313
46064SOL    HW240032   0.832   7.013   7.341
46065SOL     OW40033   1.912   4.015   0.151
46065SOL    HW140034   2.006   4.028   0.159
46065SOL    HW240035   1.900   3.920   0.158
46066SOL     OW40036   0.363   1.205   4.388
46066SOL    HW140037   0.398   1.261   4.319
46066SOL    HW240038   0.336   1.266   4.456
46067SOL     OW40039   3.696  11.386   9.508
46067SOL    HW140040   3.636  11.313   9.491
46067SOL    HW240041   3.728  11.412   9.422
46068SOL     OW40042   3.977   0.572  12.713
46068SOL    HW140043   4.038   0.641  12.738
46068SOL    HW240044   3.977   0.513  12.789
46069SOL     OW40045  13.313   6.517   8.396
46069SOL    HW140046  13.235   6.552   8.353
46069SOL    HW240047  13.319   6.566   8.478
46070SOL     OW40048   6.041  12.899   2.127
46070SOL    HW140049   6.052  12.854   2.211
46070SOL    HW240050   6.021  12.990   2.152
46071SOL     OW40051   0.457   7.838  14.492
46071SOL    HW140052   0.517   7.816  14.564
46071SOL    HW240053   0.445   7.756  14.444
46072SOL     OW40054   7.544  12.985   8.998
46072SOL    HW140055   7.615  12.924   8.978
46072SOL    HW240056   7.490  12.938   9.061
46073SOL     OW40057   5.101  14.209  12.634
46073SOL    HW140058   5.138  14.284  12.586
46073SOL    HW240059   5.049  14.247  12.704
46074SOL     OW40060   9.335  10.430   3.329
46074SOL    HW140061   9.284  10.455   3.406
46074SOL    HW240062   9.393  10.360   3.361
46075SOL     OW40063   8.329  13.758   1.117
46075SOL    HW140064   8.353  13.810   1.193
46075SOL    HW240065   8.406  13.762   1.060
46076SOL     OW40066   2.071   4.847   8.726
46076SOL    HW140067   2.027   4.927   8.697
46076SOL    HW240068   2.016   4.776   8.693
46077SOL     OW40069   6.116   2.677   7.372
46077SOL    HW140070   6.106   2.706   7.281
46077SOL    HW240071   6.040   2.714   7.417
46078SOL     OW40072   1.881   2.034   3.780
46078SOL    HW140073   1.887   2.117   3.732
46078SOL    HW240074   1.821   1.980   3.729
46079SOL     OW40075   7.064  10.203  11.861
46079SOL    HW140076   7.023  10.140  11.801
46079SOL    HW240077   6.998  10.271  11.872
46080SOL     OW40078   7.462  14.499  10.377
46080SOL    HW140079   7.439  14.414  10.414
46080SOL    HW240080   7.389  14.556  10.398
46081SOL     OW40081   6.811  13.802   0.052
46081SOL    HW140082   6.738  13.806   0.113
46081SOL    HW240083   6.884  13.768   0.104
46082SOL     OW40084   2.378   3.334  10.198
46082SOL    HW140085   2.396   3.424  10.173
46082SOL    HW240086   2.354   3.339  10.291
46083SOL     OW40087   9.028   9.624   2.817
46083SOL    HW140088   8.992   9.641   2.730
46083SOL    HW240089   8.988   9.541   2.844
46084SOL     OW40090   8.687   7.068  14.332
46084SOL    HW140091   8.684   6.979  14.368
46084SOL    HW240092   8.778   7.096  14.344
46085SOL     OW40093  13.961   5.153   9.332
46085SOL    HW140094  13.971   5.248   9.341
46085SOL    HW240095  14.039   5.117   9.374
46086SOL     OW40096   8.887   9.037  10.022
46086SOL    HW140097   8.943   9.074  10.090
46086SOL    HW240098   8.946   8.982   9.970
46087SOL     OW40099   7.678   0.379   8.778
46087SOL    HW140100   7.710   0.448   8.837
46087SOL    HW240101   7.740   0.307   8.790
46088SOL     OW40102  12.480   0.743   2.127
46088SOL    HW140103  12.574   0.736   2.111
46088SOL    HW240104  12.461   0.836   2.115
46089SOL     OW40105  12.205   5.766  10.197
46089SOL    HW140106  12.240   5.783  10.110
46089SOL    HW240107  12.178   5.851  10.230
46090SOL     OW40108   8.006   1.280  10.085
46090SOL    HW140109   8.004   1.339  10.160
46090SOL    HW240110   7.921   1.237  10.085
46091SOL     OW40111  11.887  13.692   9.359
46091SOL    HW140112  11.863  13.769   9.412
46091SOL    HW240113  11.940  13.728   9.288
46092SOL     OW40114   0.613   7.363   1.917
46092SOL    HW140115   0.575   7.350   1.831
46092SOL    HW240116   0.704   7.388   1.900
46093SOL     OW40117  14.666   8.401   6.560
46093SOL    HW140118  14.692   8.418   6.469
46093SOL    HW240119  14.733   8.339   6.592
46094SOL     OW40120   0.913  10.487   5.154
46094SOL    HW140121   0.858  10.515   5.227
46094SOL    HW240122   0.852  10.446   5.092
46095SOL     OW40123   7.763   8.156   4.157
46095SOL    HW140124   7.738   8.248   4.143
46095SOL    HW240125   7.751   8.142   4.251
46096SOL     OW40126   2.705   6.490   6.728
46096SOL    HW140127   2.672   6.580   6.719
46096SOL    HW240128   2.796   6.495   6.700
46097SOL     OW40129   0.452   2.844   9.843
46097SOL    HW140130   0.534   2.890   9.859
46097SOL    HW240131   0.471   2.785   9.771
46098SOL     OW40132   4.975   2.588  10.997
46098SOL    HW140133   5.060   2.551  10.973
46098SOL    HW240134   4.995   2.680  11.019
46099SOL     OW40135   4.206   5.393   4.807
46099SOL    HW140136   4.185   5.312   4.761
46099SOL    HW240137   4.294   5.416   4.778
46100SOL     OW40138   5.794   2.814   0.427
46100SOL    HW140139   5.818   2.854   0.510
46100SOL    HW240140   5.709   2.852   0.406
46101SOL     OW40141  11.525   0.627   1.343
46101SOL    HW140142  11.460   0.613   1.274
46101SOL    HW240143  11.529   0.722   1.353
46102SOL     OW40144   9.150   6.684  12.706
46102SOL    HW140145   9.101   6.621  12.653
46102SOL    HW240146   9.217   6.631  12.750
46103SOL     OW40147   4.724   0.959   2.032
46103SOL    HW140148   4.768   0.990   2.110
46103SOL    HW240149   4.638   0.930   2.063
46104SOL     OW40150  12.945   3.777   6.475
46104SOL    HW140151  13.037   3.774   6.450
46104SOL    HW240152  12.943   3.745   6.565
46105SOL     OW40153   9.685   3.810   7.439
46105SOL    HW140154   9.598   3.789   7.473
46105SOL    HW240155   9.741   3.811   7.516
46106SOL     OW40156   3.681   4.877   3.448
46106SOL    HW140157   3.692   4.872   3.353
46106SOL    HW240158   3.623   4.804   3.469
46107SOL     OW40159   3.370   7.902   6.244
46107SOL    HW140160   3.302   7.834   6.248
46107SOL    HW240161   3.400   7.900   6.153
46108SOL     OW40162   1.848   2.223   1.777
46108SOL    HW140163   1.848   2.130   1.757
46108SOL    HW240164   1.940   2.243   1.796
46109SOL     OW40165  13.134   3.954   2.321
46109SOL    HW140166  13.142   3.914   2.235
46109SOL    HW240167  13.043   3.982   2.327
46110SOL     OW40168  12.000   9.083   1.629
46110SOL    HW140169  12.078   9.135   1.610
46110SOL    HW240170  12.033   8.999   1.660
46111SOL     OW40171   1.258   2.658   0.337
46111SOL    HW140172   1.284   2.708   0.260
46111SOL    HW240173   1.309   2.695   0.409
46112SOL     OW40174   9.821   6.538  11.812
46112SOL    HW140175   9.734   6.515  11.844
46112SOL    HW240176   9.825   6.502  11.724
46113SOL     OW40177   4.150   5.962   5.885
46113SOL    HW140178   4.207   5.903   5.934
46113SOL    HW240179   4.204   6.041   5.871
46114SOL     OW40180   6.222   2.812   9.665
46114SOL    HW140181   6.193   2.818   9.574
46114SOL    HW240182   6.243   2.903   9.689
46115SOL     OW40183   0.535   6.201   5.146
46115SOL    HW140184   0.483   6.122   5.126
46115SOL    HW240185   0.470   6.270   5.158
46116SOL     OW40186   8.303   5.689  12.598
46116SOL    HW140187   8.317   5.594  12.599
46116SOL    HW240188   8.285   5.710  12.506
46117SOL     OW40189   7.458  12.267   6.515
46117SOL    HW140190   7.419  12.314   6.441
46117SOL    HW240191   7.552  12.279   6.504
46118SOL     OW40192   4.650  14.449   3.693
46118SOL    HW140193   4.677  14.449   3.785
46118SOL    HW240194   4.711  14.389   3.649
46119SOL     OW40195   4.710   6.116   1.619
46119SOL    HW140196   4.788   6.139   1.668
46119SOL    HW240197   4.723   6.156   1.533
46120SOL     OW40198  13.224   3.399   0.166
46120SOL    HW140199  13.199   3.412   0.257
46120SOL    HW240200  13.178   3.469   0.118
46121SOL     OW40201   4.877  14.847   9.828
46121SOL    HW140202   4.912  14.774   9.879
46121SOL    HW240203   4.952   0.006   9.777
46122SOL     OW40204   2.676  14.351   0.926
46122SOL    HW140205   2.663  14.344   1.021
46122SOL    HW240206   2.770  14.338   0.913
46123SOL     OW40207   9.848   3.570  14.847
46123SOL    HW140208   9.759   3.601  14.828
46123SOL    HW240209   9.846   3.477  14.824
46124SOL     OW40210   1.645   5.924   1.886
46124SOL    HW140211   1.735   5.894   1.896
46124SOL    HW240212   1.616   5.886   1.803
46125SOL     OW40213   3.340   6.953  13.878
46125SOL    HW140214   3.260   6.993  13.912
46125SOL    HW240215   3.352   6.993  13.792
46126SOL     OW40216   5.243   1.300   2.393
46126SOL    HW140217   5.188   1.244   2.447
46126SOL    HW240218   5.332   1.267   2.406
46127SOL     OW40219   7.140   4.228   3.680
46127SOL    HW140220   7.140   4.311   3.632
46127SOL    HW240221   7.185   4.167   3.621
46128SOL     OW40222   5.334   6.170   5.283
46128SOL    HW140223   5.338   6.215   5.368
46128SOL    HW240224   5.425   6.164   5.255
46129SOL     OW40225   2.761   7.679   2.932
46129SOL    HW140226   2.734   7.716   2.848
46129SOL    HW240227   2.701   7.718   2.996
46130SOL     OW40228   2.400   9.788   7.068
46130SOL    HW140229   2.419   9.744   6.985
46130SOL    HW240230   2.478   9.773   7.122
46131SOL     OW40231  14.128   0.695  13.755
46131SOL    HW140232  14.079   0.683  13.673
46131SOL    HW240233  14.093   0.775  13.793
46132SOL     OW40234   9.745   1.404   4.118
46132SOL    HW140235   9.740   1.404   4.214
46132SOL    HW240236   9.829   1.361   4.099
46133SOL     OW40237   1.867   6.604   7.242
46133SOL    HW140238   1.903   6.661   7.311
46133SOL    HW240239   1.911   6.520   7.254
46134SOL     OW40240  10.052  11.263   5.768
46134SOL    HW140241   9.996  11.226   5.700
46134SOL    HW240242  10.141  11.237   5.744
46135SOL     OW40243   1.356   8.761   4.069
46135SOL    HW140244   1.410   8.829   4.028
46135SOL    HW240245   1.269   8.775   4.033
46136SOL     OW40246   5.839   5.583   6.432
46136SOL    HW140247   5.884   5.506   6.398
46136SOL    HW240248   5.889   5.657   6.397
46137SOL     OW40249   9.726   8.203   1.941
46137SOL    HW140250   9.737   8.109   1.929
46137SOL    HW240251   9.655   8.227   1.882
46138SOL     OW40252   0.579   1.852   5.190
46138SOL    HW140253   0.532   1.854   5.273
46138SOL    HW240254   0.576   1.942   5.158
46139SOL     OW40255   8.153  12.376   1.606
46139SOL    HW140256   8.213  12.410   1.540
46139SOL    HW240257   8.124  12.292   1.572
46140SOL     OW40258   0.599  10.510   9.006
46140SOL    HW140259   0.589  10.541   9.096
46140SOL    HW240260   0.693  10.494   8.997
46141SOL     OW40261   4.805   5.811   0.900
46141SOL    HW140262   4.856   5.806   0.819
46141SOL    HW240263   4.718   5.838   0.871
46142SOL     OW40264   7.514  14.283   7.004
46142SOL    HW140265   7.450  14.217   6.979
46142SOL    HW240266   7.578  14.282   6.932
46143SOL     OW40267  14.604  14.687   4.836
46143SOL    HW140268  14.615  14.654   4.747
46143SOL    HW240269  14.550  14.622   4.881
46144SOL     OW40270   1.232  10.504   4.895
46144SOL    HW140271   1.209  10.411   4.893
46144SOL    HW240272   1.150  10.549   4.878
46145SOL     OW40273   8.216   7.138   1.403
46145SOL    HW140274   8.150   7.183   1.351
46145SOL    HW240275   8.166   7.081   1.461
46146SOL     OW40276   1.556   4.348  11.794
46146SOL    HW140277   1.497   4.379  11.725
46146SOL    HW240278   1.629   4.307  11.748
46147SOL     OW40279  10.939  13.396  11.576
46147SOL    HW140280  10.858  13.369  11.534
46147SOL    HW240281  10.917  13.406  11.669
46148SOL     OW40282  11.610   7.225  12.820
46148SOL    HW140283  11.688   7.275  12.797
46148SOL    HW240284  11.573   7.198  12.736
46149SOL     OW40285  13.827  12.061   5.151
46149SOL    HW140286  13.813  12.110   5.070
46149SOL    HW240287  13.747  12.010   5.162
46150SOL     OW40288   7.935  13.857   6.829
46150SOL    HW140289   7.941  13.788   6.894
46150SOL    HW240290   7.915  13.936   6.879
46151SOL     OW40291   4.781   6.262   1.382
46151SOL    HW140292   4.820   6.237   1.298
46151SOL    HW240293   4.704   6.314   1.357
46152SOL     OW40294   5.768   8.638   9.780
46152SOL    HW140295   5.859   8.666   9.787
46152SOL    HW240296   5.770   8.544   9.797
46153SOL     OW40297   1.903   5.455  14.188
46153SOL    HW140298   1.876   5.367  14.163
46153SOL    HW240299   1.924   5.499  14.106
46154SOL     OW40300   7.018   9.059   5.526
46154SOL    HW140301   7.006   9.080   5.434
46154SOL    HW240302   6.952   9.110   5.572
46155SOL     OW40303   8.167   2.552   8.874
46155SOL    HW140304   8.256   2.536   8.906
46155SOL    HW240305   8.126   2.604   8.943
46156SOL     OW40306   1.437  12.398  10.487
46156SOL    HW140307   1.527  12.393  10.453
46156SOL    HW240308   1.443  12.367  10.577
46157SOL     OW40309   4.585   6.022  14.598
46157SOL    HW140310   4.574   5.927  14.605
46157SOL    HW240311   4.664   6.033  14.545
46158SOL     OW40312   0.031   7.796  10.114
46158SOL    HW140313   0.080   7.849  10.177
46158SOL    HW240314  14.822   7.775  10.159
46159SOL     OW40315  12.127  13.665  10.850
46159SOL    HW140316  12.090  13.630  10.931
46159SOL    HW240317  12.152  13.587  10.800
46160SOL     OW40318   4.851   3.771   7.622
46160SOL    HW140319   4.891   3.779   7.708
46160SOL    HW240320   4.793   3.847   7.615
46161SOL     OW40321  11.365   2.550  10.530
46161SOL    HW140322  11.404   2.486  10.590
46161SOL    HW240323  11.293   2.502  10.489
46162SOL     OW40324  13.006  10.637   3.887
46162SOL    HW140325  13.049  10.701   3.831
46162SOL    HW240326  12.927  10.611   3.838
46163SOL     OW40327   2.961   8.020   7.867
46163SOL    HW140328   3.022   7.957   7.906
46163SOL    HW240329   2.878   8.002   7.910
46164SOL     OW40330   9.583   1.103  13.025
46164SOL    HW140331   9.578   1.156  12.945
46164SOL    HW240332   9.666   1.128  13.066
46165SOL     OW40333  14.653  13.481   7.793
46165SOL    HW140334  14.683  13.556   7.844
46165SOL    HW240335  14.603  13.520   7.721
46166SOL     OW40336  13.995   6.721   2.013
46166SOL    HW140337  13.940   6.644   1.997
46166SOL    HW240338  13.966   6.753   2.099
46167SOL     OW40339   7.044   4.741   1.096
46167SOL    HW140340   6.983   4.670   1.118
46167SOL    HW240341   7.048   4.794   1.175
46168SOL     OW40342  11.389   9.673   4.297
46168SOL    HW140343  11.357   9.755   4.335
46168SOL    HW240344  11.311   9.632   4.259
46169SOL     OW40345   6.388   2.217   0.532
46169SOL    HW140346   6.371   2.287   0.595
46169SOL    HW240347   6.453   2.254   0.472
46170SOL     OW40348   2.282   5.499   5.374
46170SOL    HW140349   2.239   5.414   5.374
46170SOL    HW240350   2.258   5.538   5.290
46171SOL     OW40351   7.182   6.866  14.319
46171SOL    HW140352   7.170   6.848  14.226
46171SOL    HW240353   7.277   6.877  14.329
46172SOL     OW40354   7.881  13.547  10.061
46172SOL    HW140355   7.801  13.598  10.048
46172SOL    HW240356   7.919  13.582  10.142
46173SOL     OW40357  11.441   4.623  14.632
46173SOL    HW140358  11.432   4.675  14.712
46173SOL    HW240359  11.412   4.535  14.657
46174SOL     OW40360   9.054   5.710   6.698
46174SOL    HW140361   9.140   5.750   6.688
46174SOL    HW240362   9.022   5.742   6.782
46175SOL     OW40363   7.498   4.297   4.819
46175SOL    HW140364   7.496   4.386   4.853
46175SOL    HW240365   7.551   4.303   4.740
46176SOL     OW40366  10.094   1.869   9.207
46176SOL    HW140367  10.051   1.868   9.292
46176SOL    HW240368  10.056   1.945   9.162
46177SOL     OW40369   5.111   1.247   4.238
46177SOL    HW140370   5.135   1.335   4.209
46177SOL    HW240371   5.023   1.234   4.202
46178SOL     OW40372  10.693  14.852   2.530
46178SOL    HW140373  10.766  14.826   2.475
46178SOL    HW240374  10.616  14.813   2.488
46179SOL     OW40375   1.426   8.991  14.703
46179SOL    HW140376   1.346   9.039  14.680
46179SOL    HW240377   1.463   9.039  14.777
46180SOL     OW40378   5.588   6.902  13.758
46180SOL    HW140379   5.551   6.890  13.671
46180SOL    HW240380   5.635   6.820  13.776
46181SOL     OW40381  10.852  13.943  14.749
46181SOL    HW140382  10.811  14.028  14.731
46181SOL    HW240383  10.932  13.944  14.697
46182SOL     OW40384  12.582   9.608   2.625
46182SOL    HW140385  12.519   9.631   2.556
46182SOL    HW240386  12.531   9.554   2.685
46183SOL     OW40387   4.763   5.271   6.163
46183SOL    HW140388   4.804   5.201   6.215
46183SOL    HW240389   4.785   5.351   6.210
46184SOL     OW40390  14.293   5.956   7.569
46184SOL    HW140391  14.361   5.899   7.534
46184SOL    HW240392  14.221   5.948   7.506
46185SOL     OW40393  10.823  13.711  14.465
46185SOL    HW140394  10.893  13.703  14.530
46185SOL    HW240395  10.842  13.643  14.400
46186SOL     OW40396   6.304   1.155   3.359
46186SOL    HW140397   6.264   1.153   3.446
46186SOL    HW240398   6.332   1.064   3.344
46187SOL     OW40399  11.022  12.715  11.758
46187SOL    HW140400  11.092  12.749  11.813
46187SOL    HW240401  10.944  12.763  11.786
46188SOL     OW40402   6.933   5.032  14.762
46188SOL    HW140403   6.959   4.969  14.694
46188SOL    HW240404   6.837   5.030  14.760
46189SOL     OW40405   3.241   6.227   3.599
46189SOL    HW140406   3.238   6.246   3.692
46189SOL    HW240407   3.185   6.150   3.588
46190SOL     OW40408  11.513   5.953   5.864
46190SOL    HW140409  11.554   6.029   5.825
46190SOL    HW240410  11.577   5.882   5.853
46191SOL     OW40411   0.443  12.835   0.073
46191SOL    HW140412   0.530  12.795   0.086
46191SOL    HW240413   0.436  12.900   0.143
46192SOL     OW40414   8.493  11.851  14.066
46192SOL    HW140415   8.418  11.794  14.053
46192SOL    HW240416   8.486  11.916  13.996
46193SOL     OW40417   2.419  10.204  12.443
46193SOL    HW140418   2.381  10.215  12.356
46193SOL    HW240419   2.347  10.223  12.503
46194SOL     OW40420   8.469  10.267   4.808
46194SOL    HW140421   8.507  10.210   4.875
46194SOL    HW240422   8.434  10.341   4.858
46195SOL     OW40423   1.417   0.907  10.601
46195SOL    HW140424   1.332   0.895  10.643
46195SOL    HW240425   1.396   0.938  10.513
46196SOL     OW40426   5.742  11.912   5.307
46196SOL    HW140427   5.776  11.850   5.371
46196SOL    HW240428   5.820  11.958   5.274
46197SOL     OW40429   1.643   3.109  11.740
46197SOL    HW140430   1.661   3.191  11.786
46197SOL    HW240431   1.557   3.081  11.771
46198SOL     OW40432  13.689  12.157  12.409
46198SOL    HW140433  13.612  12.107  12.439
46198SOL    HW240434  13.667  12.184  12.320
46199SOL     OW40435   7.640  13.678  13.474
46199SOL    HW140436   7.722  13.670  13.523
46199SOL    HW240437   7.649  13.759  13.424
46200SOL     OW40438   0.107   4.021  12.146
46200SOL    HW140439   0.080   3.998  12.235
46200SOL    HW240440   0.033   3.997  12.091
46201SOL     OW40441   1.976  13.349  13.971
46201SOL    HW140442   2.044  13.334  13.906
46201SOL    HW240443   1.933  13.264  13.981
46202SOL     OW40444   0.293   5.172  12.168
46202SOL    HW140445   0.295   5.076  12.159
46202SOL    HW240446   0.262   5.203  12.083
46203SOL     OW40447   1.515   9.788   2.557
46203SOL    HW140448   1.493   9.736   2.479
46203SOL    HW240449   1.500   9.879   2.530
46204SOL     OW40450   5.206   8.512   5.705
46204SOL    HW140451   5.249   8.432   5.733
46204SOL    HW240452   5.234   8.578   5.769
46205SOL     OW40453  10.742  10.496  13.072
46205SOL    HW140454  10.757  10.562  13.004
46205SOL    HW240455  10.675  10.536  13.129
46206SOL     OW40456  12.213   6.398  12.718
46206SOL    HW140457  12.130   6.350  12.715
46206SOL    HW240458  12.255   6.379  12.635
46207SOL     OW40459   3.034   1.239   6.687
46207SOL    HW140460   3.018   1.189   6.767
46207SOL    HW240461   3.129   1.238   6.677
46208SOL     OW40462  11.145   9.356  12.982
46208SOL    HW140463  11.165   9.263  12.967
46208SOL    HW240464  11.119   9.389  12.896
46209SOL     OW40465  13.063  10.774   8.060
46209SOL    HW140466  13.144  10.820   8.081
46209SOL    HW240467  13.075  10.686   8.095
46210SOL     OW40468  12.103   9.904  10.203
46210SOL    HW140469  12.090   9.973  10.138
46210SOL    HW240470  12.177   9.853  10.170
46211SOL     OW40471   3.845   7.331  12.690
46211SOL    HW140472   3.897   7.397  12.644
46211SOL    HW240473   3.890   7.248  12.671
46212SOL     OW40474  11.167   3.682  13.461
46212SOL    HW140475  11.177   3.595  13.499
46212SOL    HW240476  11.073   3.691  13.447
46213SOL     OW40477   8.899  10.947   1.518
46213SOL    HW140478   8.928  10.888   1.448
46213SOL    HW240479   8.980  10.987   1.550
46214SOL     OW40480   4.709   0.951   6.424
46214SOL    HW140481   4.694   1.000   6.505
46214SOL    HW240482   4.625   0.908   6.407
46215SOL     OW40483   5.289   9.214   0.917
46215SOL    HW140484   5.290   9.219   0.821
46215SOL    HW240485   5.381   9.218   0.942
46216SOL     OW40486   5.419   7.670   1.799
46216SOL    HW140487   5.503   7.682   1.843
46216SOL    HW240488   5.435   7.698   1.708
46217SOL     OW40489  10.643   9.274   1.968
46217SOL    HW140490  10.698   9.325   1.909
46217SOL    HW240491  10.663   9.183   1.948
46218SOL     OW40492   3.274  10.045   2.459
46218SOL    HW140493   3.203  10.105   2.439
46218SOL    HW240494   3.296  10.005   2.375
46219SOL     OW40495   4.759   2.767  14.178
46219SOL    HW140496   4.791   2.713  14.250
46219SOL    HW240497   4.708   2.835  14.220
46220SOL     OW40498   0.001  11.574   9.006
46220SOL    HW140499  14.780  11.589   9.004
46220SOL    HW240500   0.017  11.514   8.933
46221SOL     OW40501  10.996   0.570  10.093
46221SOL    HW140502  10.987   0.630  10.167
46221SOL    HW240503  10.963   0.486  10.125
46222SOL     OW40504  11.303   2.354   7.877
46222SOL    HW140505  11.374   2.412   7.905
46222SOL    HW240506  11.258   2.330   7.959
46223SOL     OW40507   4.305  11.589  12.784
46223SOL    HW140508   4.349  11.673  12.791
46223SOL    HW240509   4.273  11.586  12.694
46224SOL     OW40510  12.379  11.202  12.808
46224SOL    HW140511  12.319  11.199  12.883
46224SOL    HW240512  12.321  11.209  12.731
46225SOL     OW40513   8.892   1.947   6.488
46225SOL    HW140514   8.933   1.986   6.565
46225SOL    HW240515   8.800   1.972   6.495
46226SOL     OW40516   0.826   9.822   8.248
46226SOL    HW140517   0.830   9.839   8.342
46226SOL    HW240518   0.733   9.805   8.230
46227SOL     OW40519   7.223  11.182   5.816
46227SOL    HW140520   7.260  11.109   5.766
46227SOL    HW240521   7.297  11.215   5.867
46228SOL     OW40522   5.923   0.919   1.417
46228SOL    HW140523   5.837   0.945   1.452
46228SOL    HW240524   5.954   0.853   1.478
46229SOL     OW40525  10.107   1.326  13.004
46229SOL    HW140526  10.189   1.308  12.959
46229SOL    HW240527  10.043   1.268  12.960
46230SOL     OW40528   2.558  11.253  13.754
46230SOL    HW140529   2.569  11.169  13.799
46230SOL    HW240530   2.533  11.230  13.665
46231SOL     OW40531   1.945   2.586   9.006
46231SOL    HW140532   1.868   2.590   9.063
46231SOL    HW240533   1.961   2.492   8.993
46232SOL     OW40534   2.843  13.834   9.898
46232SOL    HW140535   2.874  13.776   9.828
46232SOL    HW240536   2.817  13.914   9.852
46233SOL     OW40537  10.250   9.539   8.079
46233SOL    HW140538  10.177   9.513   8.022
46233SOL    HW240539  10.328   9.520   8.027
46234SOL     OW40540   2.985  11.214  14.414
46234SOL    HW140541   3.062  11.160  14.427
46234SOL    HW240542   2.932  11.166  14.351
46235SOL     OW40543   2.813   1.499   9.477
46235SOL    HW140544   2.850   1.460   9.556
46235SOL    HW240545   2.885   1.498   9.414
46236SOL     OW40546  14.724  12.547   6.789
46236SOL    HW140547  14.672  12.582   6.716
46236SOL    HW240548  14.747  12.458   6.761
46237SOL     OW40549  10.360  14.155   7.121
46237SOL    HW140550  10.278  14.177   7.077
46237SOL    HW240551  10.380  14.232   7.173
46238SOL     OW40552   9.947   3.666   6.791
46238SOL    HW140553   9.914   3.730   6.728
46238SOL    HW240554   9.897   3.587   6.771
46239SOL     OW40555   0.076  13.870   5.372
46239SOL    HW140556   0.074  13.931   5.446
46239SOL    HW240557   0.063  13.784   5.412
46240SOL     OW40558   4.111   6.625   7.170
46240SOL    HW140559   4.034   6.643   7.117
46240SOL    HW240560   4.184   6.664   7.121
46241SOL     OW40561   3.693   8.554  14.138
46241SOL    HW140562   3.676   8.464  14.164
46241SOL    HW240563   3.719   8.547  14.046
46242SOL     OW40564   1.005   5.093   6.881
46242SOL    HW140565   1.006   5.008   6.836
46242SOL    HW240566   1.088   5.134   6.857
46243SOL     OW40567   6.411  13.128   0.932
46243SOL    HW140568   6.402  13.193   0.862
46243SOL    HW240569   6.351  13.158   1.001
46244SOL     OW40570  12.661  13.896   9.408
46244SOL    HW140571  12.708  13.980   9.408
46244SOL    HW240572  12.687  13.854   9.489
46245SOL     OW40573  10.914   2.007   1.919
46245SOL    HW140574  10.996   1.971   1.884
46245SOL    HW240575  10.912   2.097   1.887
46246SOL     OW40576  12.310  12.557   8.084
46246SOL    HW140577  12.313  12.652   8.092
46246SOL    HW240578  12.224  12.532   8.117
46247SOL     OW40579  10.063   9.770   8.604
46247SOL    HW140580  10.085   9.863   8.610
46247SOL    HW240581  10.009   9.753   8.682
46248SOL     OW40582  12.824   9.883  11.967
46248SOL    HW140583  12.732   9.906  11.984
46248SOL    HW240584  12.871   9.914  12.044
46249SOL     OW40585   1.146  14.195   7.896
46249SOL    HW140586   1.136  14.182   7.991
46249SOL    HW240587   1.068  14.154   7.858
46250SOL     OW40588  12.605   3.782   3.708
46250SOL    HW140589  12.577   3.705   3.658
46250SOL    HW240590  12.658   3.832   3.646
46251SOL     OW40591   2.568   2.737  14.359
46251SOL    HW140592   2.637   2.801  14.343
46251SOL    HW240593   2.555   2.739  14.454
46252SOL     OW40594   0.936   7.075   9.175
46252SOL    HW140595   0.975   6.999   9.220
46252SOL    HW240596   0.912   7.041   9.088
46253SOL     OW40597   9.490  13.717   4.765
46253SOL    HW140598   9.544  13.670   4.702
46253SOL    HW240599   9.524  13.806   4.764
46254SOL     OW40600   2.401   2.157   1.299
46254SOL    HW140601   2.493   2.137   1.317
46254SOL    HW240602   2.380   2.226   1.361
46255SOL     OW40603   7.324   6.883   2.179
46255SOL    HW140604   7.355   6.794   2.167
46255SOL    HW240605   7.359   6.932   2.105
46256SOL     OW40606   4.620   3.966   4.463
46256SOL    HW140607   4.580   3.897   4.516
46256SOL    HW240608   4.547   4.019   4.433
46257SOL     OW40609  13.987   4.723  11.182
46257SOL    HW140610  13.963   4.674  11.103
46257SOL    HW240611  13.953   4.671  11.254
46258SOL     OW40612   4.456   7.167   6.309
46258SOL    HW140613   4.521   7.184   6.377
46258SOL    HW240614   4.395   7.105   6.349
46259SOL     OW40615   9.839   4.519  13.960
46259SOL    HW140616   9.870   4.434  13.992
46259SOL    HW240617   9.790   4.499  13.881
46260SOL     OW40618  11.141   5.787   8.003
46260SOL    HW140619  11.188   5.785   8.087
46260SOL    HW240620  11.114   5.697   7.989
46261SOL     OW40621   9.085   6.113   6.134
46261SOL    HW140622   9.087   6.186   6.071
46261SOL    HW240623   9.000   6.072   6.120
46262SOL     OW40624   4.066   5.022  14.728
46262SOL    HW140625   4.141   5.081  14.732
46262SOL    HW240626   3.991   5.076  14.752
46263SOL     OW40627   2.024  12.221   9.057
46263SOL    HW140628   2.103  12.249   9.103
46263SOL    HW240629   2.031  12.126   9.052
46264SOL     OW40630   7.361   5.327  10.804
46264SOL    HW140631   7.399   5.348  10.719
46264SOL    HW240632   7.324   5.239  10.792
46265SOL     OW40633  10.868   1.720   5.780
46265SOL    HW140634  10.796   1.678   5.733
46265SOL    HW240635  10.935   1.734   5.713
46266SOL     OW40636  11.584   3.837  11.752
46266SOL    HW140637  11.663   3.826  11.804
46266SOL    HW240638  11.616   3.858  11.664
46267SOL     OW40639  10.052   4.603   1.840
46267SOL    HW140640  10.057   4.666   1.768
46267SOL    HW240641   9.971   4.626   1.886
46268SOL     OW40642  13.048   3.639   3.073
46268SOL    HW140643  12.955   3.626   3.050
46268SOL    HW240644  13.094   3.630   2.990
46269SOL     OW40645   5.228  13.707  12.795
46269SOL    HW140646   5.187  13.642  12.852
46269SOL    HW240647   5.176  13.786  12.808
46270SOL     OW40648   9.601   5.506   9.766
46270SOL    HW140649   9.637   5.542   9.848
46270SOL    HW240650   9.676   5.467   9.722
46271SOL     OW40651   4.191   5.552   7.955
46271SOL    HW140652   4.112   5.594   7.989
46271SOL    HW240653   4.260   5.618   7.966
46272SOL     OW40654  11.498  13.587   0.053
46272SOL    HW140655  11.415  13.635   0.051
46272SOL    HW240656  11.551  13.632   0.120
46273SOL     OW40657  11.222   4.036   6.059
46273SOL    HW140658  11.149   4.032   6.121
46273SOL    HW240659  11.291   3.984   6.100
46274SOL     OW40660   6.813  14.520  13.348
46274SOL    HW140661   6.908  14.519  13.349
46274SOL    HW240662   6.790  14.550  13.260
46275SOL     OW40663   2.285  13.875  13.430
46275SOL    HW140664   2.370  13.900  13.395
46275SOL    HW240665   2.290  13.780  13.442
46276SOL     OW40666  11.336   6.660   2.790
46276SOL    HW140667  11.354   6.754   2.786
46276SOL    HW240668  11.240   6.654   2.786
46277SOL     OW40669  12.096   5.486   2.152
46277SOL    HW140670  12.054   5.440   2.080
46277SOL    HW240671  12.066   5.576   2.145
46278SOL     OW40672  11.010   7.518   9.155
46278SOL    HW140673  11.001   7.523   9.060
46278SOL    HW240674  11.036   7.606   9.181
46279SOL     OW40675  11.996   2.042  13.791
46279SOL    HW140676  12.031   2.130  13.776
46279SOL    HW240677  12.056   2.002  13.853
46280SOL     OW40678  10.411   7.040   2.903
46280SOL    HW140679  10.474   7.112   2.903
46280SOL    HW240680  10.454   6.970   2.952
46281SOL     OW40681  11.899  10.712   0.635
46281SOL    HW140682  11.854  10.770   0.695
46281SOL    HW240683  11.914  10.765   0.556
46282SOL     OW40684   6.271  12.271  12.233
46282SOL    HW140685   6.339  12.229  12.180
46282SOL    HW240686   6.262  12.358  12.194
46283SOL     OW40687   9.956   4.271  14.070
46283SOL    HW140688   9.878   4.225  14.039
46283SOL    HW240689  10.029   4.217  14.042
46284SOL     OW40690   6.083   1.061  13.790
46284SOL    HW140691   6.155   1.107  13.746
46284SOL    HW240692   6.090   0.971  13.760
46285SOL     OW40693  14.476  14.502   1.104
46285SOL    HW140694  14.547  14.507   1.168
46285SOL    HW240695  14.423  14.427   1.132
46286SOL     OW40696  13.596  14.284   6.200
46286SOL    HW140697  13.579  14.196   6.166
46286SOL    HW240698  13.652  14.324   6.134
46287SOL     OW40699  11.432   2.423   3.995
46287SOL    HW140700  11.525   2.403   3.993
46287SOL    HW240701  11.424   2.499   4.053
46288SOL     OW40702   8.891   5.435  14.782
46288SOL    HW140703   8.817   5.482  14.742
46288SOL    HW240704   8.968   5.487  14.757
46289SOL     OW40705   3.216   3.034   3.903
46289SOL    HW140706   3.239   2.950   3.862
46289SOL    HW240707   3.204   3.093   3.829
46290SOL     OW40708   0.771   7.440   1.592
46290SOL    HW140709   0.719   7.483   1.525
46290SOL    HW240710   0.823   7.375   1.545
46291SOL     OW40711  12.221   3.609   8.875
46291SOL    HW140712  12.216   3.525   8.923
46291SOL    HW240713  12.305   3.646   8.902
46292SOL     OW40714   1.090   3.818   8.290
46292SOL    HW140715   1.091   3.901   8.242
46292SOL    HW240716   1.124   3.754   8.228
46293SOL     OW40717   9.999   5.176   7.446
46293SOL    HW140718  10.041   5.185   7.531
46293SOL    HW240719   9.957   5.260   7.431
46294SOL     OW40720  11.092   9.618   8.017
46294SOL    HW140721  11.054   9.679   7.953
46294SOL    HW240722  11.187   9.628   8.005
46295SOL     OW40723   7.995   6.072   8.623
46295SOL    HW140724   8.031   6.123   8.696
46295SOL    HW240725   7.901   6.093   8.623
46296SOL     OW40726  13.505   0.525   5.356
46296SOL    HW140727  13.556   0.450   5.387
46296SOL    HW240728  13.545   0.547   5.272
46297SOL     OW40729  12.906   4.737   7.963
46297SOL    HW140730  12.872   4.673   7.901
46297SOL    HW240731  12.991   4.762   7.927
46298SOL     OW40732   6.300  13.806   5.680
46298SOL    HW140733   6.386  13.764   5.678
46298SOL    HW240734   6.238  13.733   5.679
46299SOL     OW40735   9.951  13.655   5.630
46299SOL    HW140736   9.992  13.741   5.633
46299SOL    HW240737   9.988  13.614   5.551
46300SOL     OW40738  14.349   0.122   1.854
46300SOL    HW140739  14.280   0.058   1.871
46300SOL    HW240740  14.361   0.167   1.937
46301SOL     OW40741   9.077   7.008   5.259
46301SOL    HW140742   9.120   7.031   5.177
46301SOL    HW240743   9.143   6.961   5.309
46302SOL     OW40744  11.300   9.530  12.332
46302SOL    HW140745  11.276   9.438  12.343
46302SOL    HW240746  11.283   9.570  12.418
46303SOL     OW40747   8.458  11.138  13.403
46303SOL    HW140748   8.471  11.092  13.486
46303SOL    HW240749   8.397  11.082  13.355
46304SOL     OW40750   2.131   8.109   5.242
46304SOL    HW140751   2.168   8.142   5.161
46304SOL    HW240752   2.040   8.088   5.220
46305SOL     OW40753  12.086   7.620   7.437
46305SOL    HW140754  12.133   7.633   7.354
46305SOL    HW240755  12.025   7.694   7.442
46306SOL     OW40756   3.670   2.254   0.278
46306SOL    HW140757   3.580   2.241   0.308
46306SOL    HW240758   3.705   2.165   0.269
46307SOL     OW40759   8.632  14.036   8.097
46307SOL    HW140760   8.625  14.039   8.192
46307SOL    HW240761   8.725  14.021   8.079
46308SOL     OW40762  11.497   6.928  13.657
46308SOL    HW140763  11.562   6.930  13.586
46308SOL    HW240764  11.442   7.004  13.641
46309SOL     OW40765   7.993   7.542   8.110
46309SOL    HW140766   8.023   7.453   8.088
46309SOL    HW240767   8.070   7.585   8.146
46310SOL     OW40768  12.674  11.304   8.372
46310SOL    HW140769  12.628  11.388   8.378
46310SOL    HW240770  12.761  11.321   8.408
46311SOL     OW40771   5.241   8.204   5.792
46311SOL    HW140772   5.217   8.220   5.883
46311SOL    HW240773   5.178   8.139   5.761
46312SOL     OW40774   4.335   2.258   2.821
46312SOL    HW140775   4.253   2.269   2.869
46312SOL    HW240776   4.309   2.222   2.736
46313SOL     OW40777   0.129   8.972   5.002
46313SOL    HW140778   0.223   8.963   4.990
46313SOL    HW240779   0.091   8.946   4.918
46314SOL     OW40780   1.476   3.604  13.311
46314SOL    HW140781   1.541   3.648  13.365
46314SOL    HW240782   1.527   3.549  13.251
46315SOL     OW40783   0.253   8.476   5.904
46315SOL    HW140784   0.184   8.430   5.952
46315SOL    HW240785   0.309   8.512   5.972
46316SOL     OW40786   6.332  10.224   8.728
46316SOL    HW140787   6.271  10.151   8.717
46316SOL    HW240788   6.378  10.228   8.644
46317SOL     OW40789   4.250   3.648  12.111
46317SOL    HW140790   4.213   3.564  12.083
46317SOL    HW240791   4.182   3.712  12.090
46318SOL     OW40792   3.083   3.509   9.826
46318SOL    HW140793   3.023   3.565   9.876
46318SOL    HW240794   3.030   3.477   9.753
46319SOL     OW40795   9.736  11.818  10.351
46319SOL    HW140796   9.665  11.784  10.296
46319SOL    HW240797   9.713  11.791  10.440
46320SOL     OW40798   6.149  11.864   8.516
46320SOL    HW140799   6.114  11.783   8.478
46320SOL    HW240800   6.215  11.835   8.579
46321SOL     OW40801   2.246   5.684   8.043
46321SOL    HW140802   2.186   5.752   8.074
46321SOL    HW240803   2.305   5.728   7.983
46322SOL     OW40804   8.594  12.326  12.502
46322SOL    HW140805   8.689  12.332  12.496
46322SOL    HW240806   8.571  12.383  12.576
46323SOL     OW40807   0.720  14.513   5.641
46323SOL    HW140808   0.777  14.562   5.582
46323SOL    HW240809   0.715  14.426   5.603
46324SOL     OW40810  10.943   9.531  13.494
46324SOL    HW140811  11.006   9.480  13.442
46324SOL    HW240812  10.935   9.614  13.446
46325SOL     OW40813   3.206   3.368   0.257
46325SOL    HW140814   3.171   3.442   0.206
46325SOL    HW240815   3.131   3.311   0.271
46326SOL     OW40816  14.244   6.001  13.224
46326SOL    HW140817  14.300   6.026  13.298
46326SOL    HW240818  14.304   5.963  13.160
46327SOL     OW40819   4.768  11.552  11.294
46327SOL    HW140820   4.742  11.475  11.243
46327SOL    HW240821   4.857  11.570  11.265
46328SOL     OW40822  10.215   2.116   6.173
46328SOL    HW140823  10.239   2.051   6.108
46328SOL    HW240824  10.140   2.162   6.134
46329SOL     OW40825  13.153  14.244   6.204
46329SOL    HW140826  13.154  14.158   6.162
46329SOL    HW240827  13.081  14.290   6.162
46330SOL     OW40828   1.327   4.021  14.628
46330SOL    HW140829   1.299   4.009  14.538
46330SOL    HW240830   1.256   3.985  14.681
46331SOL     OW40831   9.490   5.324   9.225
46331SOL    HW140832   9.585   5.322   9.214
46331SOL    HW240833   9.456   5.312   9.136
46332SOL     OW40834   3.506  10.483   3.323
46332SOL    HW140835   3.441  10.414   3.309
46332SOL    HW240836   3.590  10.438   3.323
46333SOL     OW40837   7.098   3.981  12.805
46333SOL    HW140838   7.089   3.969  12.710
46333SOL    HW240839   7.019   4.029  12.830
46334SOL     OW40840   2.877   3.963  12.414
46334SOL    HW140841   2.801   4.014  12.385
46334SOL    HW240842   2.841   3.876  12.433
46335SOL     OW40843   2.505   8.463   7.113
46335SOL    HW140844   2.527   8.372   7.134
46335SOL    HW240845   2.441   8.488   7.181
46336SOL     OW40846   5.146  14.229  14.332
46336SOL    HW140847   5.123  14.162  14.268
46336SOL    HW240848   5.071  14.288  14.334
46337SOL     OW40849   7.507   2.081  12.062
46337SOL    HW140850   7.489   2.139  11.988
46337SOL    HW240851   7.587   2.034  12.036
46338SOL     OW40852  14.749   1.730  12.316
46338SOL    HW140853  14.743   1.690  12.403
46338SOL    HW240854  14.693   1.807  12.321
46339SOL     OW40855  11.745   0.319  11.574
46339SOL    HW140856  11.722   0.305  11.483
46339SOL    HW240857  11.833   0.357  11.571
46340SOL     OW40858   1.027   3.357  11.029
46340SOL    HW140859   0.990   3.442  11.003
46340SOL    HW240860   1.071   3.374  11.111
46341SOL     OW40861  14.034   5.736   6.909
46341SOL    HW140862  14.103   5.690   6.956
46341SOL    HW240863  14.054   5.721   6.817
46342SOL     OW40864   8.256  10.729   6.092
46342SOL    HW140865   8.167  10.702   6.068
46342SOL    HW240866   8.293  10.653   6.137
46343SOL     OW40867   7.276   5.912  12.891
46343SOL    HW140868   7.263   5.833  12.837
46343SOL    HW240869   7.280   5.879  12.981
46344SOL     OW40870   8.859   1.182  14.127
46344SOL    HW140871   8.852   1.124  14.051
46344SOL    HW240872   8.843   1.269  14.092
46345SOL     OW40873   9.951   6.558   3.508
46345SOL    HW140874   9.926   6.633   3.563
46345SOL    HW240875   9.980   6.492   3.571
46346SOL     OW40876   3.754  14.368   0.181
46346SOL    HW140877   3.674  14.407   0.147
46346SOL    HW240878   3.825  14.413   0.135
46347SOL     OW40879  12.404   7.457   9.664
46347SOL    HW140880  12.452   7.526   9.710
46347SOL    HW240881  12.325   7.500   9.632
46348SOL     OW40882  12.965   5.153   2.975
46348SOL    HW140883  12.954   5.243   3.006
46348SOL    HW240884  13.000   5.163   2.886
46349SOL     OW40885  11.648   4.873   2.965
46349SOL    HW140886  11.591   4.870   3.042
46349SOL    HW240887  11.709   4.945   2.983
46350SOL     OW40888  11.976   5.101  10.658
46350SOL    HW140889  11.957   5.111  10.752
46350SOL    HW240890  12.070   5.119  10.651
46351SOL     OW40891   5.178   0.690   8.928
46351SOL    HW140892   5.259   0.639   8.924
46351SOL    HW240893   5.188   0.758   8.862
46352SOL     OW40894   6.534   5.433   5.559
46352SOL    HW140895   6.468   5.376   5.597
46352SOL    HW240896   6.566   5.385   5.483
46353SOL     OW40897   1.731   3.504   8.305
46353SOL    HW140898   1.727   3.412   8.280
46353SOL    HW240899   1.704   3.551   8.226
46354SOL     OW40900   1.282   5.127   8.041
46354SOL    HW140901   1.248   5.056   8.096
46354SOL    HW240902   1.365   5.095   8.008
46355SOL     OW40903  13.342   9.142   7.672
46355SOL    HW140904  13.363   9.049   7.668
46355SOL    HW240905  13.273   9.154   7.607
46356SOL     OW40906  14.549   6.421   0.872
46356SOL    HW140907  14.509   6.506   0.892
46356SOL    HW240908  14.478   6.369   0.834
46357SOL     OW40909   0.722   8.000   9.127
46357SOL    HW140910   0.644   8.046   9.158
46357SOL    HW240911   0.795   8.053   9.160
46358SOL     OW40912   0.869   4.318   9.965
46358SOL    HW140913   0.832   4.263  10.034
46358SOL    HW240914   0.799   4.329   9.902
46359SOL     OW40915  13.169  14.053   8.176
46359SOL    HW140916  13.164  13.958   8.169
46359SOL    HW240917  13.091  14.077   8.228
46360SOL     OW40918   8.996   5.125  10.370
46360SOL    HW140919   8.979   5.121  10.276
46360SOL    HW240920   9.085   5.090  10.380
46361SOL     OW40921   5.213   8.916   1.412
46361SOL    HW140922   5.120   8.915   1.433
46361SOL    HW240923   5.251   8.848   1.468
46362SOL     OW40924   1.547   1.890  11.926
46362SOL    HW140925   1.538   1.900  12.020
46362SOL    HW240926   1.466   1.923  11.889
46363SOL     OW40927   3.175  12.165   7.613
46363SOL    HW140928   3.172  12.117   7.696
46363SOL    HW240929   3.119  12.241   7.627
46364SOL     OW40930   5.329   9.514   6.800
46364SOL    HW140931   5.415   9.553   6.788
46364SOL    HW240932   5.308   9.476   6.715
46365SOL     OW40933  12.765   4.120   8.494
46365SOL    HW140934  12.745   4.088   8.582
46365SOL    HW240935  12.729   4.209   8.492
46366SOL     OW40936   3.953   3.469   9.984
46366SOL    HW140937   4.031   3.455  10.038
46366SOL    HW240938   3.956   3.399   9.919
46367SOL     OW40939   7.355   7.489   7.576
46367SOL    HW140940   7.340   7.561   7.637
46367SOL    HW240941   7.309   7.515   7.496
46368SOL     OW40942   7.579   5.565   1.235
46368SOL    HW140943   7.659   5.618   1.236
46368SOL    HW240944   7.601   5.487   1.287
46369SOL     OW40945   0.070  14.359  13.766
46369SOL    HW140946   0.090  14.265  13.758
46369SOL    HW240947  14.854  14.361  13.802
46370SOL     OW40948   8.500   7.787   6.097
46370SOL    HW140949   8.434   7.718   6.088
46370SOL    HW240950   8.449   7.867   6.108
46371SOL     OW40951   8.354   1.782   3.456
46371SOL    HW140952   8.382   1.753   3.369
46371SOL    HW240953   8.270   1.826   3.440
46372SOL     OW40954   1.512   2.644  13.387
46372SOL    HW140955   1.528   2.641  13.292
46372SOL    HW240956   1.496   2.553  13.411
46373SOL     OW40957   5.666  11.308  11.894
46373SOL    HW140958   5.735  11.371  11.872
46373SOL    HW240959   5.671  11.299  11.990
46374SOL     OW40960  13.129   4.811   8.467
46374SOL    HW140961  13.149   4.805   8.373
46374SOL    HW240962  13.214   4.799   8.510
46375SOL     OW40963   8.767   3.833  11.223
46375SOL    HW140964   8.793   3.924  11.233
46375SOL    HW240965   8.728   3.828  11.136
46376SOL     OW40966   4.491   1.380   8.606
46376SOL    HW140967   4.486   1.328   8.686
46376SOL    HW240968   4.506   1.316   8.536
46377SOL     OW40969   0.283   8.619   7.615
46377SOL    HW140970   0.374   8.588   7.611
46377SOL    HW240971   0.232   8.545   7.582
46378SOL     OW40972  13.654   4.117  10.103
46378SOL    HW140973  13.616   4.194  10.143
46378SOL    HW240974  13.611   4.110  10.018
46379SOL     OW40975   3.285  11.317   7.507
46379SOL    HW140976   3.248  11.333   7.420
46379SOL    HW240977   3.261  11.226   7.526
46380SOL     OW40978   0.163   2.839   8.250
46380SOL    HW140979   0.071   2.843   8.275
46380SOL    HW240980   0.208   2.810   8.329
46381SOL     OW40981   2.580   8.312   2.852
46381SOL    HW140982   2.576   8.404   2.826
46381SOL    HW240983   2.668   8.302   2.889
46382SOL     OW40984  12.696   6.232  10.043
46382SOL    HW140985  12.745   6.178   9.981
46382SOL    HW240986  12.657   6.301   9.990
46383SOL     OW40987  14.389   1.169   7.861
46383SOL    HW140988  14.363   1.252   7.901
46383SOL    HW240989  14.337   1.164   7.781
46384SOL     OW40990   2.850   7.555   5.272
46384SOL    HW140991   2.914   7.619   5.302
46384SOL    HW240992   2.809   7.595   5.195
46385SOL     OW40993   0.314  10.553  11.348
46385SOL    HW140994   0.286  10.492  11.417
46385SOL    HW240995   0.289  10.510  11.266
46386SOL     OW40996   5.562  13.822   4.077
46386SOL    HW140997   5.593  13.754   4.136
46386SOL    HW240998   5.597  13.797   3.991
46387SOL     OW40999   4.140  10.873   0.492
46387SOL    HW141000   4.120  10.907   0.579
46387SOL    HW241001   4.075  10.804   0.478
46388SOL     OW41002  10.200   4.966  11.803
46388SOL    HW141003  10.259   4.967  11.728
46388SOL    HW241004  10.117   4.934  11.768
46389SOL     OW41005   6.161   8.036   6.723
46389SOL    HW141006   6.083   7.984   6.744
46389SOL    HW241007   6.144   8.122   6.761
46390SOL     OW41008   3.765   8.379   0.010
46390SOL    HW141009   3.813   8.438   0.068
46390SOL    HW241010   3.783   8.413  14.795
46391SOL     OW41011  13.808  12.388   7.433
46391SOL    HW141012  13.836  12.340   7.355
46391SOL    HW241013  13.857  12.470   7.430
46392SOL     OW41014  10.815   1.901   9.410
46392SOL    HW141015  10.818   1.832   9.475
46392SOL    HW241016  10.734   1.949   9.429
46393SOL     OW41017   1.118   4.989  13.574
46393SOL    HW141018   1.181   5.059  13.593
46393SOL    HW241019   1.034   5.024  13.603
46394SOL     OW41020   9.430   6.917   4.751
46394SOL    HW141021   9.340   6.922   4.718
46394SOL    HW241022   9.435   6.831   4.792
46395SOL     OW41023   7.912   5.069   9.746
46395SOL    HW141024   7.901   5.148   9.799
46395SOL    HW241025   7.999   5.077   9.708
46396SOL     OW41026   1.479  14.366  13.974
46396SOL    HW141027   1.525  14.379  14.057
46396SOL    HW241028   1.544  14.387  13.907
46397SOL     OW41029   6.644   6.332   7.972
46397SOL    HW141030   6.740   6.333   7.972
46397SOL    HW241031   6.620   6.400   8.035
46398SOL     OW41032  14.252   3.592   5.705
46398SOL    HW141033  14.282   3.602   5.614
46398SOL    HW241034  14.333   3.592   5.756
46399SOL     OW41035  13.219  13.993  14.250
46399SOL    HW141036  13.159  13.996  14.175
46399SOL    HW241037  13.206  13.906  14.287
46400SOL     OW41038  13.549  10.104   0.892
46400SOL    HW141039  13.611  10.059   0.834
46400SOL    HW241040  13.464  10.066   0.870
46401SOL     OW41041   1.902  10.190  10.303
46401SOL    HW141042   1.964  10.168  10.373
46401SOL    HW241043   1.862  10.272  10.331
46402SOL     OW41044   7.642  13.326  14.411
46402SOL    HW141045   7.692  13.246  14.391
46402SOL    HW241046   7.634  13.325  14.506
46403SOL     OW41047   8.345  12.537   1.457
46403SOL    HW141048   8.264  12.578   1.425
46403SOL    HW241049   8.359  12.463   1.398
46404SOL     OW41050   4.645   7.855   1.335
46404SOL    HW141051   4.561   7.849   1.379
46404SOL    HW241052   4.710   7.854   1.405
46405SOL     OW41053  12.315   7.038  13.347
46405SOL    HW141054  12.263   6.970  13.389
46405SOL    HW241055  12.371   6.990  13.286
46406SOL     OW41056  10.570   9.426   5.736
46406SOL    HW141057  10.569   9.382   5.821
46406SOL    HW241058  10.531   9.511   5.752
46407SOL     OW41059   5.848  12.449   5.350
46407SOL    HW141060   5.924  12.416   5.302
46407SOL    HW241061   5.881  12.523   5.400
46408SOL     OW41062  11.732   7.543   0.523
46408SOL    HW141063  11.779   7.554   0.605
46408SOL    HW241064  11.772   7.606   0.463
46409SOL     OW41065  10.369   8.445   1.106
46409SOL    HW141066  10.335   8.385   1.172
46409SOL    HW241067  10.425   8.505   1.155
46410SOL     OW41068   0.670  13.566   6.672
46410SOL    HW141069   0.708  13.520   6.747
46410SOL    HW241070   0.688  13.510   6.597
46411SOL     OW41071   2.624  12.768  14.716
46411SOL    HW141072   2.637  12.819  14.796
46411SOL    HW241073   2.682  12.811  14.652
46412SOL     OW41074   2.895   1.245  14.203
46412SOL    HW141075   2.821   1.297  14.173
46412SOL    HW241076   2.914   1.185  14.130
46413SOL     OW41077  10.393   2.617   1.172
46413SOL    HW141078  10.467   2.562   1.148
46413SOL    HW241079  10.413   2.649   1.260
46414SOL     OW41080   8.198   3.216   2.561
46414SOL    HW141081   8.249   3.146   2.603
46414SOL    HW241082   8.124   3.230   2.620
46415SOL     OW41083  13.541   9.267   4.956
46415SOL    HW141084  13.588   9.279   5.038
46415SOL    HW241085  13.448   9.273   4.980
46416SOL     OW41086   7.407   2.069   2.481
46416SOL    HW141087   7.492   2.055   2.439
46416SOL    HW241088   7.372   1.981   2.493
46417SOL     OW41089   9.444   9.486   9.998
46417SOL    HW141090   9.363   9.480   9.946
46417SOL    HW241091   9.472   9.395  10.008
46418SOL     OW41092   9.611  13.692   1.432
46418SOL    HW141093   9.647  13.694   1.343
46418SOL    HW241094   9.516  13.697   1.420
46419SOL     OW41095  11.220   7.403   7.086
46419SOL    HW141096  11.216   7.484   7.035
46419SOL    HW241097  11.235   7.431   7.176
46420SOL     OW41098  12.844   1.549   0.030
46420SOL    HW141099  12.813   1.624  14.853
46420SOL    HW241100  12.816   1.473  14.851
46421SOL     OW41101   2.058   6.114  13.198
46421SOL    HW141102   2.086   6.197  13.237
46421SOL    HW241103   2.029   6.137  13.109
46422SOL     OW41104   6.663  11.982  14.085
46422SOL    HW141105   6.672  11.973  13.990
46422SOL    HW241106   6.724  11.916  14.121
46423SOL     OW41107   5.495   4.430   7.752
46423SOL    HW141108   5.459   4.512   7.720
46423SOL    HW241109   5.590   4.441   7.745
46424SOL     OW41110   0.315   7.782   7.775
46424SOL    HW141111   0.223   7.759   7.788
46424SOL    HW241112   0.316   7.877   7.773
46425SOL     OW41113   0.193   7.029   3.091
46425SOL    HW141114   0.220   6.971   3.020
46425SOL    HW241115   0.194   7.116   3.052
46426SOL     OW41116   9.592   7.146   6.621
46426SOL    HW141117   9.535   7.113   6.691
46426SOL    HW241118   9.638   7.220   6.661
46427SOL     OW41119   2.947   6.419   9.248
46427SOL    HW141120   3.005   6.478   9.199
46427SOL    HW241121   2.992   6.405   9.331
46428SOL     OW41122   5.834  12.734  13.700
46428SOL    HW141123   5.915  12.772  13.734
46428SOL    HW241124   5.861  12.650  13.662
46429SOL     OW41125   3.746   1.575   3.872
46429SOL    HW141126   3.828   1.614   3.903
46429SOL    HW241127   3.769   1.483   3.855
46430SOL     OW41128   5.980   0.164  13.043
46430SOL    HW141129   5.942   0.188  13.127
46430SOL    HW241130   5.905   0.156  12.984
46431SOL     OW41131   2.866   7.436   9.535
46431SOL    HW141132   2.886   7.501   9.468
46431SOL    HW241133   2.948   7.426   9.584
46432SOL     OW41134   0.454  11.502   5.100
46432SOL    HW141135   0.448  11.588   5.140
46432SOL    HW241136   0.368  11.488   5.059
46433SOL     OW41137  10.975  12.238   9.116
46433SOL    HW141138  10.948  12.235   9.025
46433SOL    HW241139  10.898  12.210   9.165
46434SOL     OW41140   7.037   1.007  12.586
46434SOL    HW141141   7.083   1.084  12.554
46434SOL    HW241142   7.107   0.946  12.611
46435SOL     OW41143   6.565   1.489   9.716
46435SOL    HW141144   6.485   1.437   9.731
46435SOL    HW241145   6.636   1.429   9.739
46436SOL     OW41146   7.031   7.124   8.889
46436SOL    HW141147   6.969   7.168   8.947
46436SOL    HW241148   6.980   7.053   8.849
46437SOL     OW41149  13.583   3.298  11.782
46437SOL    HW141150  13.651   3.293  11.848
46437SOL    HW241151  13.626   3.334  11.705
46438SOL     OW41152   9.844   8.817   0.992
46438SOL    HW141153   9.869   8.889   1.050
46438SOL    HW241154   9.748   8.820   0.989
46439SOL     OW41155   4.702   4.968   1.762
46439SOL    HW141156   4.767   5.029   1.795
46439SOL    HW241157   4.747   4.883   1.761
46440SOL     OW41158   7.798  10.926   9.129
46440SOL    HW141159   7.856  10.973   9.070
46440SOL    HW241160   7.760  10.995   9.185
46441SOL     OW41161  12.104  12.466   4.866
46441SOL    HW141162  12.149  12.548   4.883
46441SOL    HW241163  12.174  12.400   4.867
46442SOL     OW41164   0.705   0.567   9.187
46442SOL    HW141165   0.695   0.484   9.142
46442SOL    HW241166   0.799   0.575   9.204
46443SOL     OW41167   0.938   8.024  14.087
46443SOL    HW141168   0.940   8.120  14.079
46443SOL    HW241169   1.025   7.997  14.060
46444SOL     OW41170   2.478   3.793   1.653
46444SOL    HW141171   2.521   3.713   1.623
46444SOL    HW241172   2.539   3.863   1.629
46445SOL     OW41173  14.653   4.989   2.661
46445SOL    HW141174  14.730   4.932   2.657
46445SOL    HW241175  14.630   4.992   2.754
46446SOL     OW41176   7.336   0.272  12.095
46446SOL    HW141177   7.362   0.364  12.093
46446SOL    HW241178   7.292   0.258  12.011
46447SOL     OW41179   5.814  11.324   7.431
46447SOL    HW141180   5.860  11.242   7.447
46447SOL    HW241181   5.809  11.366   7.517
46448SOL     OW41182   2.772  11.023   9.881
46448SOL    HW141183   2.840  11.049   9.943
46448SOL    HW241184   2.814  11.031   9.795
46449SOL     OW41185  14.375   9.724   0.123
46449SOL    HW141186  14.433   9.797   0.104
46449SOL    HW241187  14.352   9.688   0.037
46450SOL     OW41188  10.349   1.257   6.190
46450SOL    HW141189  10.329   1.270   6.097
46450SOL    HW241190  10.338   1.344   6.229
46451SOL     OW41191   7.858  12.324  12.227
46451SOL    HW141192   7.879  12.282  12.143
46451SOL    HW241193   7.763  12.323  12.231
46452SOL     OW41194   6.304   9.535   6.417
46452SOL    HW141195   6.266   9.622   6.404
46452SOL    HW241196   6.247   9.476   6.367
46453SOL     OW41197   8.422   4.143   7.716
46453SOL    HW141198   8.498   4.179   7.670
46453SOL    HW241199   8.395   4.069   7.663
46454SOL     OW41200   5.542   7.570   3.298
46454SOL    HW141201   5.541   7.476   3.313
46454SOL    HW241202   5.611   7.584   3.233
46455SOL     OW41203  14.399   7.034   2.073
46455SOL    HW141204  14.478   7.006   2.120
46455SOL    HW241205  14.427   7.040   1.982
46456SOL     OW41206   4.199   3.497   5.808
46456SOL    HW141207   4.105   3.495   5.790
46456SOL    HW241208   4.209   3.560   5.879
46457SOL     OW41209   3.118   1.888  12.093
46457SOL    HW141210   3.175   1.827  12.141
46457SOL    HW241211   3.070   1.933  12.162
46458SOL     OW41212  11.883   2.325   8.319
46458SOL    HW141213  11.876   2.420   8.330
46458SOL    HW241214  11.794   2.293   8.333
46459SOL     OW41215   8.856   8.438  14.278
46459SOL    HW141216   8.866   8.356  14.229
46459SOL    HW241217   8.774   8.426  14.327
46460SOL     OW41218  13.332   7.079  14.821
46460SOL    HW141219  13.398   7.074   0.017
46460SOL    HW241220  13.262   7.020  14.850
46461SOL     OW41221  13.738   2.848   3.227
46461SOL    HW141222  13.667   2.785   3.240
46461SOL    HW241223  13.695   2.933   3.219
46462SOL     OW41224   1.954   2.708  13.791
46462SOL    HW141225   1.970   2.655  13.869
46462SOL    HW241226   2.036   2.705  13.742
46463SOL     OW41227  11.258  14.549   4.161
46463SOL    HW141228  11.334  14.503   4.126
46463SOL    HW241229  11.295  14.621   4.212
46464SOL     OW41230   1.834   4.227   3.918
46464SOL    HW141231   1.921   4.205   3.885
46464SOL    HW241232   1.786   4.258   3.841
46465SOL     OW41233   1.816   4.974   4.481
46465SOL    HW141234   1.836   4.901   4.422
46465SOL    HW241235   1.828   5.052   4.427
46466SOL     OW41236   2.338  12.474  12.678
46466SOL    HW141237   2.379  12.388  12.665
46466SOL    HW241238   2.357  12.495  12.770
46467SOL     OW41239  11.430   3.586  13.912
46467SOL    HW141240  11.442   3.673  13.948
46467SOL    HW241241  11.405   3.601  13.821
46468SOL     OW41242  13.842   4.591   5.757
46468SOL    HW141243  13.881   4.505   5.771
46468SOL    HW241244  13.789   4.580   5.677
46469SOL     OW41245   0.378  14.248  10.757
46469SOL    HW141246   0.383  14.301  10.837
46469SOL    HW241247   0.361  14.312  10.687
46470SOL     OW41248  13.260  11.913  14.290
46470SOL    HW141249  13.269  11.847  14.222
46470SOL    HW241250  13.181  11.961  14.266
46471SOL     OW41251   4.192   0.226  12.514
46471SOL    HW141252   4.100   0.238  12.540
46471SOL    HW241253   4.187   0.173  12.434
46472SOL     OW41254   6.916   8.257   3.154
46472SOL    HW141255   6.959   8.243   3.239
46472SOL    HW241256   6.860   8.333   3.168
46473SOL     OW41257   3.048  12.804   9.615
46473SOL    HW141258   3.143  12.805   9.616
46473SOL    HW241259   3.025  12.756   9.535
46474SOL     OW41260   3.659  12.547   0.140
46474SOL    HW141261   3.694  12.503   0.217
46474SOL    HW241262   3.711  12.627   0.131
46475SOL     OW41263  12.546   8.250  12.426
46475SOL    HW141264  12.501   8.168  12.443
46475SOL    HW241265  12.634   8.237  12.462
46476SOL     OW41266   7.224  14.768   1.902
46476SOL    HW141267   7.297  14.709   1.883
46476SOL    HW241268   7.162  14.715   1.952
46477SOL     OW41269   2.402   9.499  10.448
46477SOL    HW141270   2.379   9.483  10.356
46477SOL    HW241271   2.319   9.521  10.490
46478SOL     OW41272   9.034  13.818   2.761
46478SOL    HW141273   9.126  13.821   2.736
46478SOL    HW241274   9.006  13.728   2.741
46479SOL     OW41275   1.445  10.140   6.023
46479SOL    HW141276   1.484  10.055   6.002
46479SOL    HW241277   1.518  10.192   6.058
46480SOL     OW41278  14.645  10.189  13.097
46480SOL    HW141279  14.619  10.123  13.161
46480SOL    HW241280  14.676  10.140  13.022
46481SOL     OW41281  12.681   6.536   7.660
46481SOL    HW141282  12.661   6.581   7.578
46481SOL    HW241283  12.673   6.443   7.639
46482SOL     OW41284   7.225  11.429   6.734
46482SOL    HW141285   7.253  11.479   6.657
46482SOL    HW241286   7.262  11.342   6.721
46483SOL     OW41287   0.568   5.280   7.012
46483SOL    HW141288   0.542   5.238   7.093
46483SOL    HW241289   0.542   5.371   7.021
46484SOL     OW41290   0.996   2.515  12.255
46484SOL    HW141291   1.053   2.478  12.187
46484SOL    HW241292   0.979   2.442  12.315
46485SOL     OW41293   6.074   7.825  14.095
46485SOL    HW141294   6.084   7.879  14.017
46485SOL    HW241295   5.988   7.847  14.130
46486SOL     OW41296  10.273  12.670  10.549
46486SOL    HW141297  10.317  12.686  10.465
46486SOL    HW241298  10.217  12.595  10.532
46487SOL     OW41299   8.786  10.285  12.602
46487SOL    HW141300   8.783  10.194  12.573
46487SOL    HW241301   8.862  10.322  12.559
46488SOL     OW41302   1.308   1.276  10.707
46488SOL    HW141303   1.394   1.256  10.743
46488SOL    HW241304   1.321   1.357  10.658
46489SOL     OW41305   4.696   8.017   4.765
46489SOL    HW141306   4.669   7.983   4.680
46489SOL    HW241307   4.764   8.081   4.745
46490SOL     OW41308   3.876   1.059   5.099
46490SOL    HW141309   3.873   0.968   5.069
46490SOL    HW241310   3.970   1.078   5.109
46491SOL     OW41311   6.411  10.834   2.404
46491SOL    HW141312   6.377  10.828   2.315
46491SOL    HW241313   6.489  10.889   2.397
46492SOL     OW41314   3.213   7.945   4.067
46492SOL    HW141315   3.226   7.862   4.114
46492SOL    HW241316   3.189   8.007   4.136
46493SOL     OW41317   0.008   8.626   0.796
46493SOL    HW141318  14.843   8.561   0.855
46493SOL    HW241319   0.101   8.605   0.793
46494SOL     OW41320   8.692   3.558   2.930
46494SOL    HW141321   8.654   3.613   2.999
46494SOL    HW241322   8.705   3.618   2.857
46495SOL     OW41323   9.873   9.529   7.703
46495SOL    HW141324   9.936   9.581   7.753
46495SOL    HW241325   9.921   9.449   7.680
46496SOL     OW41326   8.308  12.027   3.308
46496SOL    HW141327   8.397  12.034   3.274
46496SOL    HW241328   8.273  11.946   3.271
46497SOL     OW41329  14.338  12.838   6.093
46497SOL    HW141330  14.279  12.770   6.127
46497SOL    HW241331  14.425  12.799   6.098
46498SOL     OW41332  14.395  13.801   7.809
46498SOL    HW141333  14.351  13.735   7.862
46498SOL    HW241334  14.488  13.789   7.829
46499SOL     OW41335  13.493   0.153   0.276
46499SOL    HW141336  13.578   0.108   0.269
46499SOL    HW241337  13.498   0.199   0.359
46500SOL     OW41338  10.441   3.692   6.741
46500SOL    HW141339  10.480   3.741   6.813
46500SOL    HW241340  10.352   3.673   6.770
46501SOL     OW41341   9.353  12.729   7.458
46501SOL    HW141342   9.322  12.789   7.390
46501SOL    HW241343   9.429  12.685   7.419
46502SOL     OW41344   4.484   8.364  12.896
46502SOL    HW141345   4.535   8.293  12.935
46502SOL    HW241346   4.393   8.335  12.905
46503SOL     OW41347   6.195  11.268   3.149
46503SOL    HW141348   6.109  11.254   3.189
46503SOL    HW241349   6.221  11.181   3.117
46504SOL     OW41350   4.161   8.658  13.330
46504SOL    HW141351   4.244   8.678  13.373
46504SOL    HW241352   4.186   8.609  13.251
46505SOL     OW41353  13.662   8.025  11.601
46505SOL    HW141354  13.688   7.988  11.517
46505SOL    HW241355  13.737   8.010  11.658
46506SOL     OW41356   0.908   4.102   7.834
46506SOL    HW141357   0.970   4.103   7.761
46506SOL    HW241358   0.825   4.073   7.795
46507SOL     OW41359   7.676  11.272  14.571
46507SOL    HW141360   7.664  11.329  14.646
46507SOL    HW241361   7.713  11.191  14.608
46508SOL     OW41362   8.135   0.848  10.698
46508SOL    HW141363   8.061   0.889  10.743
46508SOL    HW241364   8.134   0.757  10.730
46509SOL     OW41365  11.935  10.821   3.047
46509SOL    HW141366  11.933  10.742   2.994
46509SOL    HW241367  11.844  10.835   3.074
46510SOL     OW41368   3.324   0.706   4.145
46510SOL    HW141369   3.275   0.742   4.072
46510SOL    HW241370   3.410   0.684   4.109
46511SOL     OW41371   3.734  14.548   7.130
46511SOL    HW141372   3.662  14.602   7.163
46511SOL    HW241373   3.800  14.550   7.199
46512SOL     OW41374   3.831   6.482   3.475
46512SOL    HW141375   3.876   6.564   3.493
46512SOL    HW241376   3.787   6.497   3.391
46513SOL     OW41377  12.372   0.238   6.649
46513SOL    HW141378  12.342   0.284   6.571
46513SOL    HW241379  12.407   0.155   6.616
46514SOL     OW41380   3.985   9.117   3.045
46514SOL    HW141381   3.997   9.036   3.094
46514SOL    HW241382   4.067   9.165   3.058
46515SOL     OW41383   4.282   2.590   0.501
46515SOL    HW141384   4.212   2.637   0.547
46515SOL    HW241385   4.236   2.539   0.434
46516SOL     OW41386  11.576   0.205  10.790
46516SOL    HW141387  11.571   0.139  10.722
46516SOL    HW241388  11.651   0.180  10.843
46517SOL     OW41389   9.641   6.568   3.166
46517SOL    HW141390   9.618   6.655   3.134
46517SOL    HW241391   9.653   6.516   3.087
46518SOL     OW41392   7.102   8.728   3.385
46518SOL    HW141393   7.149   8.793   3.332
46518SOL    HW241394   7.017   8.720   3.343
46519SOL     OW41395   3.885   8.745   0.514
46519SOL    HW141396   3.930   8.668   0.550
46519SOL    HW241397   3.955   8.797   0.474
46520SOL     OW41398   8.976  13.656   4.507
46520SOL    HW141399   8.974  13.719   4.580
46520SOL    HW241400   8.980  13.711   4.428
46521SOL     OW41401   6.156   8.925   6.433
46521SOL    HW141402   6.092   8.855   6.419
46521SOL    HW241403   6.119   9.000   6.387
46522SOL     OW41404  14.457  11.495  11.849
46522SOL    HW141405  14.436  11.497  11.943
46522SOL    HW241406  14.544  11.454  11.845
46523SOL     OW41407  11.147   3.691   1.305
46523SOL    HW141408  11.237   3.690   1.339
46523SOL    HW241409  11.107   3.768   1.344
46524SOL     OW41410   0.527   8.684  11.263
46524SOL    HW141411   0.510   8.736  11.342
46524SOL    HW241412   0.450   8.627  11.256
46525SOL     OW41413   1.016  14.570  14.259
46525SOL    HW141414   1.050  14.570  14.348
46525SOL    HW241415   1.038  14.657  14.225
46526SOL     OW41416  11.364  10.432   1.561
46526SOL    HW141417  11.412  10.444   1.643
46526SOL    HW241418  11.357  10.520   1.524
46527SOL     OW41419   4.178   1.434   1.020
46527SOL    HW141420   4.082   1.445   1.024
46527SOL    HW241421   4.193   1.346   1.053
46528SOL     OW41422   5.949  14.872  11.426
46528SOL    HW141423   6.032  14.828  11.446
46528SOL    HW241424   5.947   0.004  11.331
46529SOL     OW41425  12.609  12.764   1.828
46529SOL    HW141426  12.607  12.819   1.906
46529SOL    HW241427  12.618  12.826   1.756
46530SOL     OW41428   1.682   9.608   4.537
46530SOL    HW141429   1.752   9.653   4.489
46530SOL    HW241430   1.601   9.637   4.496
46531SOL     OW41431   3.576  14.229   5.381
46531SOL    HW141432   3.607  14.262   5.297
46531SOL    HW241433   3.510  14.293   5.408
46532SOL     OW41434   5.541   3.168   0.155
46532SOL    HW141435   5.636   3.177   0.156
46532SOL    HW241436   5.524   3.100   0.089
46533SOL     OW41437  14.728   9.020  12.778
46533SOL    HW141438  14.633   9.004  12.773
46533SOL    HW241439  14.766   8.933  12.795
46534SOL     OW41440   1.867   5.846   6.101
46534SOL    HW141441   1.898   5.935   6.118
46534SOL    HW241442   1.857   5.842   6.005
46535SOL     OW41443  14.691  11.013  14.745
46535SOL    HW141444  14.742  10.939  14.779
46535SOL    HW241445  14.741  11.043  14.668
46536SOL     OW41446   3.075   6.932   9.285
46536SOL    HW141447   3.145   6.997   9.283
46536SOL    HW241448   3.014   6.964   9.351
46537SOL     OW41449  11.585   5.633  12.294
46537SOL    HW141450  11.560   5.570  12.362
46537SOL    HW241451  11.536   5.712  12.315
46538SOL     OW41452   1.862  14.653   5.968
46538SOL    HW141453   1.916  14.608   5.904
46538SOL    HW241454   1.869  14.746   5.946
46539SOL     OW41455   1.503   7.074   7.814
46539SOL    HW141456   1.574   7.136   7.829
46539SOL    HW241457   1.428   7.128   7.790
46540SOL     OW41458  13.853   3.588   8.308
46540SOL    HW141459  13.765   3.591   8.345
46540SOL    HW241460  13.841   3.554   8.220
46541SOL     OW41461   9.383  12.000   4.012
46541SOL    HW141462   9.316  12.056   4.051
46541SOL    HW241463   9.455  12.060   3.991
46542SOL     OW41464   2.391   1.943   6.753
46542SOL    HW141465   2.433   1.961   6.668
46542SOL    HW241466   2.308   1.989   6.748
46543SOL     OW41467  13.107   9.898   8.498
46543SOL    HW141468  13.027   9.918   8.449
46543SOL    HW241469  13.139   9.983   8.527
46544SOL     OW41470   6.858   8.153  10.596
46544SOL    HW141471   6.871   8.080  10.535
46544SOL    HW241472   6.789   8.122  10.655
46545SOL     OW41473   0.491   4.660   8.575
46545SOL    HW141474   0.483   4.724   8.504
46545SOL    HW241475   0.403   4.652   8.610
46546SOL     OW41476   9.175  12.366   1.491
46546SOL    HW141477   9.125  12.438   1.527
46546SOL    HW241478   9.186  12.305   1.563
46547SOL     OW41479   0.516   8.630   2.354
46547SOL    HW141480   0.422   8.632   2.372
46547SOL    HW241481   0.536   8.718   2.322
46548SOL     OW41482   9.915   9.301   4.324
46548SOL    HW141483   9.921   9.370   4.258
46548SOL    HW241484   9.853   9.238   4.286
46549SOL     OW41485  12.638  13.203   5.513
46549SOL    HW141486  12.731  13.209   5.493
46549SOL    HW241487  12.594  13.249   5.441
46550SOL     OW41488  10.717   1.427   4.999
46550SOL    HW141489  10.724   1.502   5.058
46550SOL    HW241490  10.803   1.420   4.959
46551SOL     OW41491   5.337  11.567  10.294
46551SOL    HW141492   5.342  11.596  10.385
46551SOL    HW241493   5.378  11.637  10.244
46552SOL     OW41494   1.489  13.965   6.404
46552SOL    HW141495   1.431  13.978   6.329
46552SOL    HW241496   1.447  14.014   6.475
46553SOL     OW41497   3.199  12.419  12.097
46553SOL    HW141498   3.165  12.438  12.009
46553SOL    HW241499   3.287  12.456  12.097
46554SOL     OW41500   1.017   9.602   0.317
46554SOL    HW141501   0.937   9.612   0.369
46554SOL    HW241502   1.075   9.670   0.351
46555SOL     OW41503   7.664   1.372  10.306
46555SOL    HW141504   7.613   1.441  10.264
46555SOL    HW241505   7.691   1.410  10.390
46556SOL     OW41506  12.852  10.942   8.638
46556SOL    HW141507  12.784  10.984   8.691
46556SOL    HW241508  12.827  10.849   8.637
46557SOL     OW41509   9.722  13.168  11.236
46557SOL    HW141510   9.760  13.113  11.304
46557SOL    HW241511   9.668  13.108  11.184
46558SOL     OW41512  13.751   2.473  13.775
46558SOL    HW141513  13.685   2.526  13.819
46558SOL    HW241514  13.722   2.469  13.684
46559SOL     OW41515   9.102  12.232   4.992
46559SOL    HW141516   9.187  12.257   5.029
46559SOL    HW241517   9.062  12.315   4.966
46560SOL     OW41518   4.663  14.154   1.323
46560SOL    HW141519   4.577  14.195   1.330
46560SOL    HW241520   4.724  14.223   1.349
46561SOL     OW41521  13.756  13.883  10.539
46561SOL    HW141522  13.804  13.890  10.622
46561SOL    HW241523  13.807  13.935  10.478
46562SOL     OW41524   0.583  13.654   0.680
46562SOL    HW141525   0.661  13.599   0.682
46562SOL    HW241526   0.523  13.613   0.743
46563SOL     OW41527   8.309   8.984   7.848
46563SOL    HW141528   8.263   9.000   7.765
46563SOL    HW241529   8.381   9.047   7.848
46564SOL     OW41530  14.265  14.829   2.734
46564SOL    HW141531  14.267  14.778   2.652
46564SOL    HW241532  14.190  14.794   2.782
46565SOL     OW41533   0.132  14.458   9.868
46565SOL    HW141534   0.085  14.497   9.794
46565SOL    HW241535   0.188  14.391   9.828
46566SOL     OW41536   1.357   4.995   8.694
46566SOL    HW141537   1.289   5.036   8.640
46566SOL    HW241538   1.383   4.917   8.645
46567SOL     OW41539   7.223   6.361  11.238
46567SOL    HW141540   7.146   6.374  11.294
46567SOL    HW241541   7.248   6.270  11.252
46568SOL     OW41542   0.737   3.230   4.537
46568SOL    HW141543   0.806   3.221   4.472
46568SOL    HW241544   0.780   3.272   4.612
46569SOL     OW41545   4.353   8.365   5.097
46569SOL    HW141546   4.358   8.319   5.181
46569SOL    HW241547   4.413   8.440   5.108
46570SOL     OW41548   9.305   0.477   4.413
46570SOL    HW141549   9.243   0.404   4.415
46570SOL    HW241550   9.387   0.438   4.382
46571SOL     OW41551   9.818   3.029  11.753
46571SOL    HW141552   9.904   3.061  11.781
46571SOL    HW241553   9.756   3.087  11.798
46572SOL     OW41554   3.102   9.532   7.091
46572SOL    HW141555   3.102   9.437   7.076
46572SOL    HW241556   3.138   9.569   7.010
46573SOL     OW41557   2.164   4.673   5.229
46573SOL    HW141558   2.186   4.581   5.240
46573SOL    HW241559   2.163   4.686   5.134
46574SOL     OW41560  11.729   3.961  13.472
46574SOL    HW141561  11.759   3.933  13.386
46574SOL    HW241562  11.634   3.951  13.470
46575SOL     OW41563  11.326  11.442  13.859
46575SOL    HW141564  11.295  11.364  13.906
46575SOL    HW241565  11.324  11.417  13.767
46576SOL     OW41566   1.684   9.236   2.112
46576SOL    HW141567   1.668   9.206   2.023
46576SOL    HW241568   1.742   9.311   2.102
46577SOL     OW41569   3.197  13.297   9.603
46577SOL    HW141570   3.141  13.246   9.662
46577SOL    HW241571   3.149  13.299   9.520
46578SOL     OW41572   5.313   8.661  13.087
46578SOL    HW141573   5.319   8.594  13.019
46578SOL    HW241574   5.375   8.633  13.154
46579SOL     OW41575   6.375  10.842   8.359
46579SOL    HW141576   6.279  10.847   8.357
46579SOL    HW241577   6.394  10.749   8.370
46580SOL     OW41578   3.635   8.522   5.291
46580SOL    HW141579   3.622   8.447   5.232
46580SOL    HW241580   3.585   8.593   5.252
46581SOL     OW41581   7.816   1.676  11.553
46581SOL    HW141582   7.783   1.642  11.636
46581SOL    HW241583   7.844   1.598  11.505
46582SOL     OW41584   0.106   9.686   9.935
46582SOL    HW141585   0.062   9.770   9.944
46582SOL    HW241586   0.070   9.632  10.005
46583SOL     OW41587   7.389   1.790  12.438
46583SOL    HW141588   7.391   1.843  12.359
46583SOL    HW241589   7.435   1.709  12.414
46584SOL     OW41590  12.280   0.770   2.465
46584SOL    HW141591  12.214   0.839   2.450
46584SOL    HW241592  12.363   0.812   2.445
46585SOL     OW41593   8.440   7.844  13.168
46585SOL    HW141594   8.434   7.940  13.169
46585SOL    HW241595   8.509   7.825  13.105
46586SOL     OW41596   4.922   4.933  11.113
46586SOL    HW141597   4.991   4.950  11.177
46586SOL    HW241598   4.966   4.939  11.028
46587SOL     OW41599   9.175   1.363  10.961
46587SOL    HW141600   9.088   1.325  10.972
46587SOL    HW241601   9.170   1.447  11.007
46588SOL     OW41602   3.908   2.404   8.605
46588SOL    HW141603   3.856   2.416   8.525
46588SOL    HW241604   3.846   2.370   8.670
46589SOL     OW41605   7.259  14.316  10.138
46589SOL    HW141606   7.337  14.304  10.192
46589SOL    HW241607   7.267  14.250  10.069
46590SOL     OW41608   4.821   5.528   3.279
46590SOL    HW141609   4.817   5.615   3.318
46590SOL    HW241610   4.867   5.541   3.196
46591SOL     OW41611  13.330  10.021   7.250
46591SOL    HW141612  13.348   9.938   7.206
46591SOL    HW241613  13.411  10.071   7.242
46592SOL     OW41614   6.350  14.752   3.464
46592SOL    HW141615   6.355  14.733   3.558
46592SOL    HW241616   6.322  14.843   3.459
46593SOL     OW41617  13.741   6.948  14.115
46593SOL    HW141618  13.804   7.005  14.072
46593SOL    HW241619  13.679   7.007  14.158
46594SOL     OW41620   5.767  11.620  13.366
46594SOL    HW141621   5.850  11.627  13.320
46594SOL    HW241622   5.703  11.661  13.308
46595SOL     OW41623   4.867   1.568   5.350
46595SOL    HW141624   4.913   1.568   5.267
46595SOL    HW241625   4.778   1.598   5.329
46596SOL     OW41626  12.985   5.317   1.303
46596SOL    HW141627  12.914   5.371   1.336
46596SOL    HW241628  13.028   5.283   1.382
46597SOL     OW41629  12.714  10.482  10.842
46597SOL    HW141630  12.783  10.441  10.790
46597SOL    HW241631  12.678  10.550  10.785
46598SOL     OW41632   5.327  10.355   2.168
46598SOL    HW141633   5.273  10.317   2.099
46598SOL    HW241634   5.379  10.423   2.123
46599SOL     OW41635  13.190   8.060   5.337
46599SOL    HW141636  13.119   8.115   5.372
46599SOL    HW241637  13.165   7.971   5.362
46600SOL     OW41638  12.940   6.044   8.106
46600SOL    HW141639  12.955   6.135   8.134
46600SOL    HW241640  12.876   6.010   8.168
46601SOL     OW41641  13.282  10.054  10.239
46601SOL    HW141642  13.223  10.101  10.180
46601SOL    HW241643  13.316  10.122  10.298
46602SOL     OW41644   7.290   2.420  14.734
46602SOL    HW141645   7.375   2.452  14.763
46602SOL    HW241646   7.273   2.467  14.653
46603SOL     OW41647  10.646  12.670  14.647
46603SOL    HW141648  10.657  12.728  14.572
46603SOL    HW241649  10.678  12.585  14.616
46604SOL     OW41650   5.300   4.217   7.498
46604SOL    HW141651   5.387   4.221   7.458
46604SOL    HW241652   5.308   4.269   7.578
46605SOL     OW41653  10.244  10.159  13.687
46605SOL    HW141654  10.166  10.133  13.736
46605SOL    HW241655  10.244  10.102  13.610
46606SOL     OW41656   5.965   5.723   9.718
46606SOL    HW141657   6.059   5.729   9.731
46606SOL    HW241658   5.932   5.688   9.801
46607SOL     OW41659   4.938   3.459  12.138
46607SOL    HW141660   4.968   3.525  12.201
46607SOL    HW241661   5.003   3.389  12.145
46608SOL     OW41662  10.889  14.159   1.891
46608SOL    HW141663  10.895  14.174   1.986
46608SOL    HW241664  10.936  14.232   1.852
46609SOL     OW41665   3.348  14.742   3.469
46609SOL    HW141666   3.426  14.717   3.419
46609SOL    HW241667   3.288  14.779   3.404
46610SOL     OW41668   4.874   2.025   3.069
46610SOL    HW141669   4.947   2.086   3.080
46610SOL    HW241670   4.796   2.080   3.071
46611SOL     OW41671   5.110   4.129   6.477
46611SOL    HW141672   5.041   4.064   6.469
46611SOL    HW241673   5.172   4.092   6.540
46612SOL     OW41674   9.121   4.223  14.705
46612SOL    HW141675   9.196   4.231  14.763
46612SOL    HW241676   9.059   4.169  14.753
46613SOL     OW41677  12.981   4.095   6.870
46613SOL    HW141678  12.892   4.130   6.865
46613SOL    HW241679  13.037   4.172   6.872
46614SOL     OW41680   6.653  14.181   1.852
46614SOL    HW141681   6.590  14.157   1.920
46614SOL    HW241682   6.691  14.098   1.824
46615SOL     OW41683   8.551   8.925  13.282
46615SOL    HW141684   8.621   8.861  13.267
46615SOL    HW241685   8.482   8.876  13.327
46616SOL     OW41686  13.459  10.974   9.664
46616SOL    HW141687  13.498  10.996   9.579
46616SOL    HW241688  13.474  10.880   9.674
46617SOL     OW41689   6.070   8.303   0.618
46617SOL    HW141690   6.119   8.296   0.535
46617SOL    HW241691   6.138   8.299   0.685
46618SOL     OW41692  11.009   2.952   9.761
46618SOL    HW141693  11.028   2.864   9.728
46618SOL    HW241694  10.946   2.937   9.832
46619SOL     OW41695  10.630  11.337   0.086
46619SOL    HW141696  10.724  11.354   0.088
46619SOL    HW241697  10.600  11.372   0.002
46620SOL     OW41698   9.665   3.512   4.942
46620SOL    HW141699   9.740   3.552   4.897
46620SOL    HW241700   9.640   3.438   4.886
46621SOL     OW41701   9.336   1.647   3.879
46621SOL    HW141702   9.318   1.570   3.825
46621SOL    HW241703   9.252   1.694   3.882
46622SOL     OW41704  13.965   1.331  11.146
46622SOL    HW141705  13.889   1.332  11.204
46622SOL    HW241706  13.983   1.424  11.128
46623SOL     OW41707   8.266   7.623   6.256
46623SOL    HW141708   8.252   7.643   6.164
46623SOL    HW241709   8.182   7.590   6.286
46624SOL     OW41710   9.990   3.385   2.760
46624SOL    HW141711  10.056   3.345   2.817
46624SOL    HW241712  10.035   3.461   2.722
46625SOL     OW41713   4.615  12.163  14.125
46625SOL    HW141714   4.658  12.175  14.210
46625SOL    HW241715   4.567  12.081  14.134
46626SOL     OW41716  10.136   2.485   7.732
46626SOL    HW141717  10.129   2.451   7.642
46626SOL    HW241718  10.050   2.469   7.770
46627SOL     OW41719   2.070   9.470   9.724
46627SOL    HW141720   2.020   9.435   9.798
46627SOL    HW241721   2.004   9.510   9.668
46628SOL     OW41722   6.682   6.628   2.706
46628SOL    HW141723   6.768   6.656   2.737
46628SOL    HW241724   6.696   6.540   2.672
46629SOL     OW41725   7.861   4.590   3.811
46629SOL    HW141726   7.889   4.625   3.727
46629SOL    HW241727   7.940   4.549   3.847
46630SOL     OW41728   6.718  13.022  14.488
46630SOL    HW141729   6.684  12.984  14.407
46630SOL    HW241730   6.787  13.082  14.459
46631SOL     OW41731   9.466  11.691   4.320
46631SOL    HW141732   9.471  11.602   4.354
46631SOL    HW241733   9.549  11.703   4.273
46632SOL     OW41734   4.510   7.612  12.879
46632SOL    HW141735   4.431   7.642  12.833
46632SOL    HW241736   4.571   7.589  12.809
46633SOL     OW41737  11.555   9.513   5.073
46633SOL    HW141738  11.633   9.525   5.018
46633SOL    HW241739  11.512   9.436   5.038
46634SOL     OW41740   6.153   9.374  11.535
46634SOL    HW141741   6.118   9.462  11.527
46634SOL    HW241742   6.227   9.383  11.595
46635SOL     OW41743   2.329   0.989   5.757
46635SOL    HW141744   2.348   0.933   5.682
46635SOL    HW241745   2.414   1.010   5.794
46636SOL     OW41746   4.373   1.612   5.501
46636SOL    HW141747   4.418   1.611   5.586
46636SOL    HW241748   4.380   1.703   5.471
46637SOL     OW41749   8.647   5.057  12.086
46637SOL    HW141750   8.709   5.113  12.038
46637SOL    HW241751   8.653   5.087  12.176
46638SOL     OW41752   0.731  11.801   1.892
46638SOL    HW141753   0.696  11.743   1.960
46638SOL    HW241754   0.657  11.819   1.835
46639SOL     OW41755  14.749  10.754   4.291
46639SOL    HW141756  14.660  10.766   4.325
46639SOL    HW241757  14.749  10.664   4.256
46640SOL     OW41758   1.308  14.111   5.531
46640SOL    HW141759   1.287  14.154   5.448
46640SOL    HW241760   1.231  14.127   5.586
46641SOL     OW41761   3.536  11.414  11.008
46641SOL    HW141762   3.487  11.475  10.954
46641SOL    HW241763   3.615  11.395  10.958
46642SOL     OW41764   9.187   5.729   2.562
46642SOL    HW141765   9.275   5.737   2.526
46642SOL    HW241766   9.195   5.663   2.631
46643SOL     OW41767   6.956   6.691   8.776
46643SOL    HW141768   7.024   6.667   8.713
46643SOL    HW241769   6.876   6.651   8.741
46644SOL     OW41770   1.392   7.659  11.879
46644SOL    HW141771   1.386   7.742  11.926
46644SOL    HW241772   1.372   7.593  11.944
46645SOL     OW41773   5.979   3.091   5.370
46645SOL    HW141774   5.911   3.127   5.313
46645SOL    HW241775   6.042   3.163   5.381
46646SOL     OW41776   2.250   2.338   0.463
46646SOL    HW141777   2.324   2.389   0.430
46646SOL    HW241778   2.206   2.397   0.524
46647SOL     OW41779   3.511  14.509  13.752
46647SOL    HW141780   3.519  14.603  13.740
46647SOL    HW241781   3.530  14.472  13.666
46648SOL     OW41782   4.256   3.691   1.720
46648SOL    HW141783   4.201   3.661   1.648
46648SOL    HW241784   4.316   3.618   1.737
46649SOL     OW41785   3.921   4.174  13.868
46649SOL    HW141786   3.996   4.179  13.810
46649SOL    HW241787   3.848   4.207  13.817
46650SOL     OW41788   8.045   9.499   3.633
46650SOL    HW141789   8.121   9.508   3.576
46650SOL    HW241790   7.975   9.545   3.588
46651SOL     OW41791   5.727   1.360   0.146
46651SOL    HW141792   5.639   1.394   0.164
46651SOL    HW241793   5.773   1.434   0.107
46652SOL     OW41794  13.473   5.749   7.245
46652SOL    HW141795  13.386   5.714   7.225
46652SOL    HW241796  13.480   5.829   7.194
46653SOL     OW41797   6.473   9.797  13.306
46653SOL    HW141798   6.481   9.738  13.382
46653SOL    HW241799   6.407   9.756  13.251
46654SOL     OW41800   9.196   3.019   4.575
46654SOL    HW141801   9.235   2.965   4.644
46654SOL    HW241802   9.270   3.052   4.525
46655SOL     OW41803  11.327  14.664   4.913
46655SOL    HW141804  11.405  14.717   4.930
46655SOL    HW241805  11.271  14.678   4.989
46656SOL     OW41806   7.990  11.084   8.973
46656SOL    HW141807   8.015  11.114   8.885
46656SOL    HW241808   8.072  11.078   9.021
46657SOL     OW41809   3.677   1.907  10.369
46657SOL    HW141810   3.713   1.934  10.284
46657SOL    HW241811   3.754   1.894  10.425
46658SOL     OW41812   3.125  10.928   9.079
46658SOL    HW141813   3.184  11.000   9.056
46658SOL    HW241814   3.087  10.902   8.995
46659SOL     OW41815   4.551  12.125   5.562
46659SOL    HW141816   4.580  12.064   5.631
46659SOL    HW241817   4.507  12.195   5.610
46660SOL     OW41818  14.594   7.307  14.051
46660SOL    HW141819  14.605   7.218  14.018
46660SOL    HW241820  14.652   7.361  13.996
46661SOL     OW41821  11.933   4.561   4.444
46661SOL    HW141822  11.982   4.527   4.519
46661SOL    HW241823  11.890   4.640   4.477
46662SOL     OW41824  12.449   9.555   3.121
46662SOL    HW141825  12.369   9.563   3.172
46662SOL    HW241826  12.487   9.643   3.123
46663SOL     OW41827  13.747   6.090   6.089
46663SOL    HW141828  13.831   6.123   6.121
46663SOL    HW241829  13.698   6.069   6.169
46664SOL     OW41830   5.552   7.275   2.287
46664SOL    HW141831   5.558   7.193   2.336
46664SOL    HW241832   5.598   7.258   2.205
46665SOL     OW41833   0.206  12.533  14.582
46665SOL    HW141834   0.186  12.492  14.497
46665SOL    HW241835   0.161  12.617  14.578
46666SOL     OW41836   4.585   2.029  14.197
46666SOL    HW141837   4.660   2.086  14.181
46666SOL    HW241838   4.509   2.088  14.195
46667SOL     OW41839   5.513   0.052   9.236
46667SOL    HW141840   5.552   0.074   9.321
46667SOL    HW241841   5.584   0.009   9.188
46668SOL     OW41842   5.494  14.576   1.091
46668SOL    HW141843   5.522  14.489   1.119
46668SOL    HW241844   5.500  14.630   1.170
46669SOL     OW41845  10.423   1.881  13.323
46669SOL    HW141846  10.484   1.951  13.298
46669SOL    HW241847  10.470   1.800  13.301
46670SOL     OW41848  10.910   5.919   9.666
46670SOL    HW141849  10.889   5.931   9.573
46670SOL    HW241850  10.831   5.880   9.704
46671SOL     OW41851   5.347  14.185  14.798
46671SOL    HW141852   5.411  14.115  14.785
46671SOL    HW241853   5.285  14.174  14.726
46672SOL     OW41854   9.632   6.098   9.063
46672SOL    HW141855   9.591   6.145   9.136
46672SOL    HW241856   9.567   6.033   9.037
46673SOL     OW41857   7.192   2.894   6.769
46673SOL    HW141858   7.222   2.984   6.757
46673SOL    HW241859   7.264   2.840   6.736
46674SOL     OW41860   9.965   4.465  14.794
46674SOL    HW141861   9.985   4.558  14.782
46674SOL    HW241862  10.024   4.436  14.863
46675SOL     OW41863   6.621  13.768   1.161
46675SOL    HW141864   6.669  13.810   1.090
46675SOL    HW241865   6.687  13.719   1.210
46676SOL     OW41866   0.267  14.696  13.391
46676SOL    HW141867   0.251  14.632  13.322
46676SOL    HW241868   0.237  14.653  13.471
46677SOL     OW41869   1.647   5.202   6.018
46677SOL    HW141870   1.627   5.184   6.110
46677SOL    HW241871   1.567   5.178   5.971
46678SOL     OW41872   3.215   5.271   2.413
46678SOL    HW141873   3.304   5.277   2.448
46678SOL    HW241874   3.159   5.308   2.481
46679SOL     OW41875   0.753  13.430   9.769
46679SOL    HW141876   0.828  13.396   9.720
46679SOL    HW241877   0.757  13.525   9.755
46680SOL     OW41878   5.985   9.343  12.069
46680SOL    HW141879   5.967   9.319  12.160
46680SOL    HW241880   6.069   9.300  12.050
46681SOL     OW41881  10.956   0.141  14.475
46681SOL    HW141882  10.944   0.046  14.486
46681SOL    HW241883  10.912   0.179  14.551
46682SOL     OW41884   9.975  13.075  14.400
46682SOL    HW141885  10.042  13.023  14.444
46682SOL    HW241886   9.899  13.016  14.394
46683SOL     OW41887   4.033  13.437  11.382
46683SOL    HW141888   4.062  13.423  11.291
46683SOL    HW241889   4.098  13.389  11.434
46684SOL     OW41890   9.723  11.745   8.801
46684SOL    HW141891   9.665  11.672   8.820
46684SOL    HW241892   9.804  11.704   8.769
46685SOL     OW41893   1.807   5.751   1.538
46685SOL    HW141894   1.867   5.706   1.479
46685SOL    HW241895   1.862   5.808   1.591
46686SOL     OW41896   5.208  11.861   2.883
46686SOL    HW141897   5.238  11.910   2.961
46686SOL    HW241898   5.252  11.904   2.810
46687SOL     OW41899  12.054  14.692  14.420
46687SOL    HW141900  12.078  14.696  14.327
46687SOL    HW241901  11.967  14.651  14.420
46688SOL     OW41902   0.690  12.841   3.834
46688SOL    HW141903   0.620  12.789   3.874
46688SOL    HW241904   0.771  12.798   3.864
46689SOL     OW41905   3.771  13.289   6.089
46689SOL    HW141906   3.761  13.258   5.999
46689SOL    HW241907   3.760  13.210   6.142
46690SOL     OW41908   3.882  14.276  11.375
46690SOL    HW141909   3.954  14.331  11.408
46690SOL    HW241910   3.894  14.192  11.418
46691SOL     OW41911  10.846   1.155  11.150
46691SOL    HW141912  10.876   1.176  11.061
46691SOL    HW241913  10.863   1.061  11.159
46692SOL     OW41914   5.118   6.443   8.774
46692SOL    HW141915   5.028   6.414   8.761
46692SOL    HW241916   5.144   6.405   8.857
46693SOL     OW41917  12.129   4.048   4.920
46693SOL    HW141918  12.209   4.047   4.973
46693SOL    HW241919  12.105   4.141   4.915
46694SOL     OW41920   0.708  12.834   4.467
46694SOL    HW141921   0.784  12.892   4.464
46694SOL    HW241922   0.708  12.789   4.383
46695SOL     OW41923   4.310   1.110  12.851
46695SOL    HW141924   4.290   1.069  12.935
46695SOL    HW241925   4.224   1.122  12.810
46696SOL     OW41926   0.221  10.464   9.251
46696SOL    HW141927   0.257  10.437   9.166
46696SOL    HW241928   0.163  10.392   9.277
46697SOL     OW41929   9.137   6.010   6.876
46697SOL    HW141930   9.144   6.056   6.959
46697SOL    HW241931   9.081   5.935   6.895
46698SOL     OW41932  12.219   8.592   1.186
46698SOL    HW141933  12.242   8.677   1.150
46698SOL    HW241934  12.130   8.604   1.220
46699SOL     OW41935   5.994   9.753  10.522
46699SOL    HW141936   5.977   9.790  10.435
46699SOL    HW241937   6.069   9.695  10.509
46700SOL     OW41938   7.396   3.052  14.266
46700SOL    HW141939   7.306   3.043  14.297
46700SOL    HW241940   7.427   2.962  14.253
46701SOL     OW41941  13.756   6.716   8.366
46701SOL    HW141942  13.712   6.788   8.322
46701SOL    HW241943  13.843   6.750   8.388
46702SOL     OW41944   0.325   5.686  11.491
46702SOL    HW141945   0.402   5.659  11.441
46702SOL    HW241946   0.260   5.707  11.424
46703SOL     OW41947   7.142   7.606   6.659
46703SOL    HW141948   7.185   7.638   6.738
46703SOL    HW241949   7.214   7.584   6.599
46704SOL     OW41950   4.112   2.456   0.017
46704SOL    HW141951   4.183   2.514   0.045
46704SOL    HW241952   4.037   2.482   0.072
46705SOL     OW41953   8.597  13.783  10.651
46705SOL    HW141954   8.595  13.878  10.661
46705SOL    HW241955   8.574  13.768  10.560
46706SOL     OW41956   2.200  11.956  12.053
46706SOL    HW141957   2.167  11.988  11.970
46706SOL    HW241958   2.210  11.862  12.041
46707SOL     OW41959   9.151  11.522   0.575
46707SOL    HW141960   9.176  11.430   0.575
46707SOL    HW241961   9.057  11.522   0.558
46708SOL     OW41962   9.879   1.400   9.741
46708SOL    HW141963   9.842   1.321   9.780
46708SOL    HW241964   9.928   1.441   9.812
46709SOL     OW41965   9.795  12.392  11.431
46709SOL    HW141966   9.703  12.402  11.453
46709SOL    HW241967   9.840  12.458  11.485
46710SOL     OW41968   1.443   5.260   7.284
46710SOL    HW141969   1.382   5.211   7.339
46710SOL    HW241970   1.399   5.345   7.271
46711SOL     OW41971   5.115  11.780   8.609
46711SOL    HW141972   5.049  11.833   8.655
46711SOL    HW241973   5.174  11.844   8.569
46712SOL     OW41974  13.447   9.182   6.914
46712SOL    HW141975  13.480   9.204   7.001
46712SOL    HW241976  13.369   9.128   6.930
46713SOL     OW41977   1.136   2.369  12.073
46713SOL    HW141978   1.182   2.295  12.034
46713SOL    HW241979   1.100   2.416  11.998
46714SOL     OW41980   0.494  14.785   5.563
46714SOL    HW141981   0.422  14.725   5.579
46714SOL    HW241982   0.571  14.740   5.597
46715SOL     OW41983  10.413   8.003  12.449
46715SOL    HW141984  10.401   8.093  12.479
46715SOL    HW241985  10.332   7.984  12.401
46716SOL     OW41986  13.867   5.929   6.864
46716SOL    HW141987  13.868   5.925   6.769
46716SOL    HW241988  13.935   5.868   6.892
46717SOL     OW41989   9.204   4.636   7.561
46717SOL    HW141990   9.114   4.605   7.573
46717SOL    HW241991   9.243   4.631   7.649
46718SOL     OW41992  13.458   4.073   2.766
46718SOL    HW141993  13.387   4.041   2.822
46718SOL    HW241994  13.500   4.141   2.819
46719SOL     OW41995   0.854   8.172   5.190
46719SOL    HW141996   0.840   8.084   5.223
46719SOL    HW241997   0.767   8.200   5.160
46720SOL     OW41998  13.570  14.101   7.321
46720SOL    HW141999  13.618  14.027   7.357
46720SOL    HW242000  13.546  14.073   7.232
46721SOL     OW42001  10.758  10.433   6.487
46721SOL    HW142002  10.706  10.513   6.503
46721SOL    HW242003  10.724  10.398   6.405
46722SOL     OW42004   9.731   6.654  13.997
46722SOL    HW142005   9.805   6.594  14.005
46722SOL    HW242006   9.662   6.601  13.958
46723SOL     OW42007   4.324   8.826  11.339
46723SOL    HW142008   4.248   8.880  11.361
46723SOL    HW242009   4.287   8.743  11.310
46724SOL     OW42010   0.051  14.759   6.555
46724SOL    HW142011   0.133  14.712   6.571
46724SOL    HW242012   0.070  14.850   6.579
46725SOL     OW42013   4.941  11.241   5.506
46725SOL    HW142014   4.932  11.146   5.496
46725SOL    HW242015   4.912  11.277   5.422
46726SOL     OW42016  11.059  14.220  11.978
46726SOL    HW142017  10.974  14.261  11.993
46726SOL    HW242018  11.123  14.284  12.012
46727SOL     OW42019   4.447   7.736  11.630
46727SOL    HW142020   4.394   7.709  11.705
46727SOL    HW242021   4.538   7.723  11.659
46728SOL     OW42022   8.960   4.948   1.526
46728SOL    HW142023   9.052   4.944   1.499
46728SOL    HW242024   8.915   4.889   1.466
46729SOL     OW42025   5.095   6.609   8.073
46729SOL    HW142026   5.066   6.627   7.983
46729SOL    HW242027   5.061   6.681   8.124
46730SOL     OW42028  13.101   9.960   8.822
46730SOL    HW142029  13.011   9.931   8.804
46730SOL    HW242030  13.100  10.054   8.802
46731SOL     OW42031   0.126   1.543  14.688
46731SOL    HW142032   0.067   1.618  14.696
46731SOL    HW242033   0.210   1.575  14.721
46732SOL     OW42034   9.742   8.250  14.848
46732SOL    HW142035   9.827   8.293  14.858
46732SOL    HW242036   9.698   8.298  14.778
46733SOL     OW42037   2.456   4.669   4.020
46733SOL    HW142038   2.428   4.761   4.025
46733SOL    HW242039   2.439   4.644   3.929
46734SOL     OW42040   7.315   1.681  11.763
46734SOL    HW142041   7.356   1.652  11.682
46734SOL    HW242042   7.307   1.776  11.752
46735SOL     OW42043  13.783   5.885  11.304
46735SOL    HW142044  13.696   5.917  11.282
46735SOL    HW242045  13.842   5.955  11.279
46736SOL     OW42046   0.994  12.866   0.281
46736SOL    HW142047   0.924  12.854   0.217
46736SOL    HW242048   0.973  12.805   0.352
46737SOL     OW42049  14.052   6.071  13.411
46737SOL    HW142050  14.079   6.022  13.333
46737SOL    HW242051  14.133   6.087  13.459
46738SOL     OW42052   4.338   6.163  11.396
46738SOL    HW142053   4.287   6.203  11.467
46738SOL    HW242054   4.393   6.098  11.439
46739SOL     OW42055   5.484  11.315   8.960
46739SOL    HW142056   5.447  11.287   8.877
46739SOL    HW242057   5.433  11.269   9.026
46740SOL     OW42058   1.515  12.088  10.069
46740SOL    HW142059   1.526  12.163  10.128
46740SOL    HW242060   1.534  12.012  10.123
46741SOL     OW42061   7.218   8.943   6.657
46741SOL    HW142062   7.218   8.974   6.567
46741SOL    HW242063   7.126   8.945   6.684
46742SOL     OW42064   4.965   9.710   6.117
46742SOL    HW142065   4.919   9.675   6.040
46742SOL    HW242066   4.924   9.795   6.133
46743SOL     OW42067   6.190  11.915   3.842
46743SOL    HW142068   6.135  11.837   3.852
46743SOL    HW242069   6.279  11.882   3.854
46744SOL     OW42070   4.535  11.010  12.756
46744SOL    HW142071   4.615  10.961  12.774
46744SOL    HW242072   4.566  11.098  12.732
46745SOL     OW42073   0.442   5.933  14.489
46745SOL    HW142074   0.350   5.911  14.505
46745SOL    HW242075   0.441   5.976  14.404
46746SOL     OW42076   0.334   5.307   2.152
46746SOL    HW142077   0.300   5.396   2.159
46746SOL    HW242078   0.311   5.266   2.235
46747SOL     OW42079  13.500   4.413   4.915
46747SOL    HW142080  13.527   4.435   4.826
46747SOL    HW242081  13.478   4.319   4.911
46748SOL     OW42082   7.599  12.045   0.372
46748SOL    HW142083   7.511  12.081   0.380
46748SOL    HW242084   7.640  12.063   0.457
46749SOL     OW42085   6.022   8.721  14.515
46749SOL    HW142086   6.041   8.736  14.422
46749SOL    HW242087   6.078   8.784  14.561
46750SOL     OW42088   9.089   2.405   9.773
46750SOL    HW142089   9.085   2.430   9.681
46750SOL    HW242090   9.166   2.348   9.779
46751SOL     OW42091   2.812  12.640  11.116
46751SOL    HW142092   2.734  12.694  11.105
46751SOL    HW242093   2.883  12.692  11.079
46752SOL     OW42094   3.024  10.456   9.851
46752SOL    HW142095   2.970  10.532   9.829
46752SOL    HW242096   3.059  10.477   9.937
46753SOL     OW42097   0.174   0.623   0.688
46753SOL    HW142098   0.155   0.544   0.739
46753SOL    HW242099   0.164   0.596   0.597
46754SOL     OW42100  10.621  13.539   9.758
46754SOL    HW142101  10.563  13.603   9.718
46754SOL    HW242102  10.697  13.536   9.700
46755SOL     OW42103   4.718   0.882   6.805
46755SOL    HW142104   4.764   0.832   6.737
46755SOL    HW242105   4.788   0.927   6.853
46756SOL     OW42106   8.684   2.281   5.821
46756SOL    HW142107   8.710   2.208   5.876
46756SOL    HW242108   8.589   2.276   5.818
46757SOL     OW42109   3.608   4.422   0.980
46757SOL    HW142110   3.608   4.463   1.066
46757SOL    HW242111   3.692   4.447   0.941
46758SOL     OW42112   4.195   4.982   1.627
46758SOL    HW142113   4.122   4.925   1.649
46758SOL    HW242114   4.233   5.006   1.712
46759SOL     OW42115  12.581  12.607   0.827
46759SOL    HW142116  12.676  12.598   0.818
46759SOL    HW242117  12.544  12.553   0.758
46760SOL     OW42118  14.028   1.753   7.780
46760SOL    HW142119  13.964   1.725   7.714
46760SOL    HW242120  14.106   1.701   7.760
46761SOL     OW42121   2.539   8.491   6.803
46761SOL    HW142122   2.590   8.543   6.866
46761SOL    HW242123   2.448   8.519   6.817
46762SOL     OW42124  11.391   8.819   3.248
46762SOL    HW142125  11.409   8.734   3.288
46762SOL    HW242126  11.345   8.798   3.167
46763SOL     OW42127   7.450   9.741  10.656
46763SOL    HW142128   7.492   9.821  10.627
46763SOL    HW242129   7.515   9.672  10.638
46764SOL     OW42130   1.780   1.279   7.767
46764SOL    HW142131   1.786   1.374   7.780
46764SOL    HW242132   1.865   1.254   7.732
46765SOL     OW42133   8.003  11.688   3.415
46765SOL    HW142134   8.085  11.648   3.387
46765SOL    HW242135   7.982  11.646   3.499
46766SOL     OW42136   5.366   5.511   8.202
46766SOL    HW142137   5.299   5.477   8.143
46766SOL    HW242138   5.317   5.554   8.272
46767SOL     OW42139  14.377   1.762  14.847
46767SOL    HW142140  14.286   1.733  14.851
46767SOL    HW242141  14.403   1.749  14.756
46768SOL     OW42142  11.759   5.724   9.034
46768SOL    HW142143  11.789   5.814   9.041
46768SOL    HW242144  11.828   5.672   9.076
46769SOL     OW42145   4.518  10.325   1.993
46769SOL    HW142146   4.516  10.240   2.036
46769SOL    HW242147   4.562  10.309   1.910
46770SOL     OW42148   2.268   4.973   8.923
46770SOL    HW142149   2.363   4.978   8.932
46770SOL    HW242150   2.254   4.920   8.844
46771SOL     OW42151   6.526   3.350   4.715
46771SOL    HW142152   6.619   3.374   4.723
46771SOL    HW242153   6.487   3.382   4.797
46772SOL     OW42154   4.181  11.856  10.599
46772SOL    HW142155   4.166  11.876  10.691
46772SOL    HW242156   4.229  11.932  10.565
46773SOL     OW42157   4.878   3.802   8.646
46773SOL    HW142158   4.970   3.799   8.619
46773SOL    HW242159   4.853   3.710   8.653
46774SOL     OW42160   8.281   3.775  12.640
46774SOL    HW142161   8.210   3.838  12.625
46774SOL    HW242162   8.350   3.803  12.580
46775SOL     OW42163   0.274   9.951  13.061
46775SOL    HW142164   0.308   9.904  13.136
46775SOL    HW242165   0.352   9.975  13.010
46776SOL     OW42166  14.388   0.056   5.719
46776SOL    HW142167  14.375   0.080   5.811
46776SOL    HW242168  14.482   0.046   5.709
46777SOL     OW42169  12.474   1.683  14.838
46777SOL    HW142170  12.447   1.734   0.040
46777SOL    HW242171  12.554   1.725  14.807
46778SOL     OW42172  12.605   3.615  11.440
46778SOL    HW142173  12.678   3.569  11.482
46778SOL    HW242174  12.527   3.572  11.475
46779SOL     OW42175  13.757   8.879  11.395
46779SOL    HW142176  13.701   8.821  11.343
46779SOL    HW242177  13.825   8.821  11.430
46780SOL     OW42178  11.886   7.986  12.596
46780SOL    HW142179  11.923   7.901  12.621
46780SOL    HW242180  11.818   7.965  12.532
46781SOL     OW42181   1.297   7.937   6.361
46781SOL    HW142182   1.371   7.977   6.405
46781SOL    HW242183   1.221   7.988   6.389
46782SOL     OW42184  14.445   2.780   7.114
46782SOL    HW142185  14.440   2.828   7.197
46782SOL    HW242186  14.362   2.733   7.108
46783SOL     OW42187  11.927   7.729   8.960
46783SOL    HW142188  11.967   7.736   9.046
46783SOL    HW242189  11.843   7.685   8.976
46784SOL     OW42190   9.314  14.265   7.638
46784SOL    HW142191   9.408  14.250   7.651
46784SOL    HW242192   9.307  14.298   7.548
46785SOL     OW42193   2.160  11.331  11.051
46785SOL    HW142194   2.068  11.353  11.067
46785SOL    HW242195   2.173  11.249  11.098
46786SOL     OW42196   1.715  12.149   1.683
46786SOL    HW142197   1.634  12.173   1.728
46786SOL    HW242198   1.779  12.136   1.753
46787SOL     OW42199   1.552   5.629   8.329
46787SOL    HW142200   1.532   5.720   8.350
46787SOL    HW242201   1.570   5.629   8.235
46788SOL     OW42202   5.737   3.291   8.932
46788SOL    HW142203   5.775   3.250   9.010
46788SOL    HW242204   5.811   3.305   8.874
46789SOL     OW42205  10.983   5.035  14.795
46789SOL    HW142206  10.934   5.075  14.867
46789SOL    HW242207  11.061   5.090  14.785
46790SOL     OW42208   1.001   2.225   8.896
46790SOL    HW142209   1.004   2.170   8.974
46790SOL    HW242210   1.075   2.194   8.843
46791SOL     OW42211   4.446   3.724   7.868
46791SOL    HW142212   4.483   3.647   7.825
46791SOL    HW242213   4.377   3.689   7.924
46792SOL     OW42214   9.443   3.057  12.815
46792SOL    HW142215   9.449   2.983  12.755
46792SOL    HW242216   9.418   3.131  12.759
46793SOL     OW42217   8.625  12.680   2.465
46793SOL    HW142218   8.548  12.719   2.425
46793SOL    HW242219   8.699  12.718   2.418
46794SOL     OW42220  13.343  13.865   5.643
46794SOL    HW142221  13.438  13.859   5.630
46794SOL    HW242222  13.324  13.958   5.637
46795SOL     OW42223   7.811   3.858   9.084
46795SOL    HW142224   7.768   3.933   9.126
46795SOL    HW242225   7.813   3.790   9.151
46796SOL     OW42226   3.987   4.546  12.094
46796SOL    HW142227   3.941   4.462  12.105
46796SOL    HW242228   3.936   4.593  12.028
46797SOL     OW42229   4.518   2.569   2.148
46797SOL    HW142230   4.589   2.624   2.116
46797SOL    HW242231   4.557   2.521   2.222
46798SOL     OW42232   6.931  12.024   1.001
46798SOL    HW142233   6.893  12.092   0.946
46798SOL    HW242234   6.899  12.044   1.089
46799SOL     OW42235   7.045   8.656   7.487
46799SOL    HW142236   7.136   8.657   7.516
46799SOL    HW242237   7.018   8.565   7.497
46800SOL     OW42238   7.544  13.155   7.329
46800SOL    HW142239   7.626  13.202   7.347
46800SOL    HW242240   7.557  13.068   7.367
46801SOL     OW42241   8.069   8.365   8.189
46801SOL    HW142242   8.151   8.361   8.238
46801SOL    HW242243   8.058   8.457   8.167
46802SOL     OW42244   0.805   8.772   8.921
46802SOL    HW142245   0.876   8.735   8.973
46802SOL    HW242246   0.798   8.715   8.845
46803SOL     OW42247   2.808  11.310   9.213
46803SOL    HW142248   2.862  11.236   9.241
46803SOL    HW242249   2.848  11.386   9.256
46804SOL     OW42250   8.043  10.802   3.020
46804SOL    HW142251   8.011  10.750   2.947
46804SOL    HW242252   8.087  10.876   2.979
46805SOL     OW42253  10.053   4.946  13.410
46805SOL    HW142254  10.066   5.025  13.463
46805SOL    HW242255  10.139   4.929  13.372
46806SOL     OW42256  12.919   1.049  11.533
46806SOL    HW142257  12.997   1.027  11.483
46806SOL    HW242258  12.852   0.990  11.499
46807SOL     OW42259   0.466   5.776   2.815
46807SOL    HW142260   0.390   5.781   2.873
46807SOL    HW242261   0.535   5.739   2.870
46808SOL     OW42262  12.687  14.544   3.829
46808SOL    HW142263  12.642  14.513   3.751
46808SOL    HW242264  12.641  14.503   3.902
46809SOL     OW42265   3.051   4.877   5.377
46809SOL    HW142266   3.100   4.905   5.455
46809SOL    HW242267   3.033   4.784   5.392
46810SOL     OW42268   0.673   0.651   9.915
46810SOL    HW142269   0.706   0.615   9.833
46810SOL    HW242270   0.716   0.736   9.923
46811SOL     OW42271   3.570   9.680  14.118
46811SOL    HW142272   3.619   9.660  14.197
46811SOL    HW242273   3.528   9.598  14.093
46812SOL     OW42274  12.141   0.888   8.306
46812SOL    HW142275  12.230   0.891   8.340
46812SOL    HW242276  12.100   0.815   8.352
46813SOL     OW42277   5.185   5.199  11.113
46813SOL    HW142278   5.138   5.226  11.191
46813SOL    HW242279   5.251   5.137  11.144
46814SOL     OW42280   6.634  13.374   7.079
46814SOL    HW142281   6.629  13.376   6.983
46814SOL    HW242282   6.577  13.303   7.105
46815SOL     OW42283   8.597  12.051   2.222
46815SOL    HW142284   8.591  12.139   2.260
46815SOL    HW242285   8.671  12.056   2.161
46816SOL     OW42286  13.700   7.448   6.646
46816SOL    HW142287  13.650   7.514   6.693
46816SOL    HW242288  13.662   7.365   6.675
46817SOL     OW42289  14.353   4.678  14.018
46817SOL    HW142290  14.355   4.745  13.951
46817SOL    HW242291  14.260   4.664  14.036
46818SOL     OW42292   5.450   0.035   2.448
46818SOL    HW142293   5.536   0.074   2.463
46818SOL    HW242294   5.433  14.856   2.526
46819SOL     OW42295   9.418   4.845   1.704
46819SOL    HW142296   9.485   4.788   1.742
46819SOL    HW242297   9.368   4.788   1.645
46820SOL     OW42298  13.355   3.329  10.895
46820SOL    HW142299  13.394   3.411  10.926
46820SOL    HW242300  13.429   3.268  10.894
46821SOL     OW42301   0.170   8.223   9.127
46821SOL    HW142302   0.240   8.166   9.096
46821SOL    HW242303   0.135   8.264   9.047
46822SOL     OW42304  14.290   8.721  11.040
46822SOL    HW142305  14.345   8.691  10.967
46822SOL    HW242306  14.212   8.665  11.036
46823SOL     OW42307   5.292   5.425   5.465
46823SOL    HW142308   5.307   5.404   5.557
46823SOL    HW242309   5.205   5.392   5.446
46824SOL     OW42310  11.589   5.777   7.958
46824SOL    HW142311  11.500   5.808   7.941
46824SOL    HW242312  11.581   5.681   7.954
46825SOL     OW42313   9.484  12.638   5.336
46825SOL    HW142314   9.479  12.566   5.398
46825SOL    HW242315   9.534  12.706   5.382
46826SOL     OW42316  14.246   0.483   0.381
46826SOL    HW142317  14.170   0.446   0.336
46826SOL    HW242318  14.269   0.560   0.329
46827SOL     OW42319   1.372   9.732   3.213
46827SOL    HW142320   1.279   9.742   3.194
46827SOL    HW242321   1.395   9.648   3.174
46828SOL     OW42322  11.825   2.492   2.941
46828SOL    HW142323  11.891   2.455   2.883
46828SOL    HW242324  11.772   2.548   2.885
46829SOL     OW42325   4.449   8.760   8.165
46829SOL    HW142326   4.508   8.685   8.165
46829SOL    HW242327   4.386   8.741   8.235
46830SOL     OW42328   4.750   8.551   6.250
46830SOL    HW142329   4.805   8.531   6.325
46830SOL    HW242330   4.710   8.636   6.271
46831SOL     OW42331  12.121   9.175  10.688
46831SOL    HW142332  12.083   9.199  10.604
46831SOL    HW242333  12.215   9.190  10.677
46832SOL     OW42334   3.162   3.602   2.468
46832SOL    HW142335   3.190   3.643   2.386
46832SOL    HW242336   3.096   3.538   2.441
46833SOL     OW42337   9.480  12.871  14.430
46833SOL    HW142338   9.406  12.884  14.490
46833SOL    HW242339   9.459  12.927  14.354
46834SOL     OW42340  14.454   5.477   3.587
46834SOL    HW142341  14.369   5.493   3.628
46834SOL    HW242342  14.505   5.432   3.654
46835SOL     OW42343   1.516   2.913  11.266
46835SOL    HW142344   1.522   2.992  11.321
46835SOL    HW242345   1.440   2.929  11.210
46836SOL     OW42346   5.319   1.874   5.970
46836SOL    HW142347   5.340   1.785   5.999
46836SOL    HW242348   5.395   1.901   5.918
46837SOL     OW42349   0.903   4.085  14.642
46837SOL    HW142350   0.846   4.071  14.717
46837SOL    HW242351   0.851   4.141  14.583
46838SOL     OW42352   8.448  12.482   8.025
46838SOL    HW142353   8.398  12.509   7.949
46838SOL    HW242354   8.389  12.427   8.075
46839SOL     OW42355   2.188   2.526   3.901
46839SOL    HW142356   2.112   2.529   3.959
46839SOL    HW242357   2.182   2.440   3.859
46840SOL     OW42358   4.231   0.804   4.935
46840SOL    HW142359   4.187   0.809   5.019
46840SOL    HW242360   4.215   0.889   4.894
46841SOL     OW42361   2.663  14.853  13.488
46841SOL    HW142362   2.645   0.025  13.570
46841SOL    HW242363   2.705  14.771  13.513
46842SOL     OW42364  10.562  12.880   4.604
46842SOL    HW142365  10.655  12.860   4.619
46842SOL    HW242366  10.522  12.875   4.691
46843SOL     OW42367   3.748   3.455  11.157
46843SOL    HW142368   3.824   3.501  11.192
46843SOL    HW242369   3.753   3.368  11.196
46844SOL     OW42370   3.465  12.271  13.065
46844SOL    HW142371   3.551  12.232  13.082
46844SOL    HW242372   3.422  12.274  13.150
46845SOL     OW42373   5.512   0.785   5.466
46845SOL    HW142374   5.446   0.825   5.522
46845SOL    HW242375   5.544   0.857   5.411
46846SOL     OW42376   9.083  10.206   1.852
46846SOL    HW142377   9.098  10.163   1.768
46846SOL    HW242378   9.167  10.248   1.872
46847SOL     OW42379   3.842   1.834  12.100
46847SOL    HW142380   3.876   1.803  12.184
46847SOL    HW242381   3.858   1.929  12.101
46848SOL     OW42382   8.974   5.268   6.888
46848SOL    HW142383   8.997   5.202   6.823
46848SOL    HW242384   8.899   5.231   6.935
46849SOL     OW42385   0.271   1.757   4.032
46849SOL    HW142386   0.183   1.719   4.030
46849SOL    HW242387   0.284   1.791   3.943
46850SOL     OW42388   0.082   2.683   1.502
46850SOL    HW142389   0.169   2.718   1.484
46850SOL    HW242390   0.086   2.592   1.475
46851SOL     OW42391   1.448  14.210   1.063
46851SOL    HW142392   1.469  14.136   1.006
46851SOL    HW242393   1.526  14.265   1.061
46852SOL     OW42394  10.369  12.529   5.048
46852SOL    HW142395  10.354  12.437   5.069
46852SOL    HW242396  10.346  12.536   4.955
46853SOL     OW42397   3.192  12.475   7.621
46853SOL    HW142398   3.176  12.558   7.577
46853SOL    HW242399   3.239  12.422   7.556
46854SOL     OW42400   6.822   3.027   3.941
46854SOL    HW142401   6.883   2.974   3.992
46854SOL    HW242402   6.865   3.112   3.932
46855SOL     OW42403   2.562   0.326   5.932
46855SOL    HW142404   2.585   0.326   5.839
46855SOL    HW242405   2.586   0.413   5.963
46856SOL     OW42406   4.309   8.828   6.443
46856SOL    HW142407   4.379   8.775   6.483
46856SOL    HW242408   4.338   8.840   6.352
46857SOL     OW42409   6.763   9.301   0.470
46857SOL    HW142410   6.670   9.324   0.474
46857SOL    HW242411   6.783   9.300   0.376
46858SOL     OW42412   6.489   5.873   9.682
46858SOL    HW142413   6.492   5.778   9.697
46858SOL    HW242414   6.419   5.884   9.617
46859SOL     OW42415   9.865  13.887   9.072
46859SOL    HW142416   9.856  13.976   9.038
46859SOL    HW242417   9.783  13.870   9.118
46860SOL     OW42418   8.208  13.238   0.866
46860SOL    HW142419   8.203  13.318   0.918
46860SOL    HW242420   8.221  13.269   0.776
46861SOL     OW42421   4.652   1.748   0.651
46861SOL    HW142422   4.617   1.733   0.739
46861SOL    HW242423   4.652   1.843   0.640
46862SOL     OW42424  12.266   3.091   8.755
46862SOL    HW142425  12.262   3.033   8.832
46862SOL    HW242426  12.331   3.158   8.779
46863SOL     OW42427   8.489   3.146  14.535
46863SOL    HW142428   8.409   3.146  14.483
46863SOL    HW242429   8.541   3.218  14.499
46864SOL     OW42430   6.146   0.457   5.744
46864SOL    HW142431   6.067   0.422   5.704
46864SOL    HW242432   6.170   0.532   5.689
46865SOL     OW42433   0.205  12.921   5.991
46865SOL    HW142434   0.233  12.889   5.905
46865SOL    HW242435   0.181  13.012   5.975
46866SOL     OW42436   8.158  10.474  14.276
46866SOL    HW142437   8.138  10.552  14.328
46866SOL    HW242438   8.209  10.419  14.335
46867SOL     OW42439   8.429   6.560   6.224
46867SOL    HW142440   8.442   6.465   6.231
46867SOL    HW242441   8.363   6.570   6.155
46868SOL     OW42442   7.796   8.434  13.325
46868SOL    HW142443   7.860   8.484  13.375
46868SOL    HW242444   7.803   8.468  13.236
46869SOL     OW42445   2.848  12.704   8.732
46869SOL    HW142446   2.854  12.640   8.661
46869SOL    HW242447   2.893  12.781   8.699
46870SOL     OW42448  12.073  12.226  11.357
46870SOL    HW142449  12.139  12.214  11.426
46870SOL    HW242450  12.038  12.314  11.373
46871SOL     OW42451   1.582  13.557   1.716
46871SOL    HW142452   1.538  13.568   1.631
46871SOL    HW242453   1.512  13.537   1.777
46872SOL     OW42454  10.888  12.962   6.133
46872SOL    HW142455  10.832  13.023   6.182
46872SOL    HW242456  10.832  12.886   6.117
46873SOL     OW42457  13.812   1.407   8.278
46873SOL    HW142458  13.804   1.313   8.291
46873SOL    HW242459  13.723   1.437   8.263
46874SOL     OW42460  10.486   0.252   4.649
46874SOL    HW142461  10.496   0.175   4.706
46874SOL    HW242462  10.523   0.224   4.565
46875SOL     OW42463  14.741   9.050   2.377
46875SOL    HW142464  14.795   9.004   2.441
46875SOL    HW242465  14.654   9.010   2.385
46876SOL     OW42466   8.032   1.728   1.501
46876SOL    HW142467   8.061   1.769   1.420
46876SOL    HW242468   8.014   1.801   1.560
46877SOL     OW42469   6.840   0.579  13.881
46877SOL    HW142470   6.904   0.508  13.878
46877SOL    HW242471   6.756   0.535  13.893
46878SOL     OW42472   3.764   1.792   8.452
46878SOL    HW142473   3.755   1.818   8.544
46878SOL    HW242474   3.853   1.757   8.445
46879SOL     OW42475   4.932   0.920   2.768
46879SOL    HW142476   4.912   0.835   2.808
46879SOL    HW242477   4.871   0.981   2.810
46880SOL     OW42478   0.423   7.137  10.656
46880SOL    HW142479   0.466   7.214  10.618
46880SOL    HW242480   0.405   7.081  10.580
46881SOL     OW42481  14.847   1.065   8.862
46881SOL    HW142482  14.823   1.038   8.951
46881SOL    HW242483  14.854   0.983   8.813
46882SOL     OW42484  14.617   3.081   4.211
46882SOL    HW142485  14.616   3.014   4.143
46882SOL    HW242486  14.698   3.129   4.196
46883SOL     OW42487   7.557  13.341  10.625
46883SOL    HW142488   7.601  13.283  10.563
46883SOL    HW242489   7.588  13.428  10.604
46884SOL     OW42490  10.301  14.139  12.266
46884SOL    HW142491  10.249  14.092  12.201
46884SOL    HW242492  10.331  14.218  12.220
46885SOL     OW42493   4.320   5.114   7.676
46885SOL    HW142494   4.327   5.077   7.764
46885SOL    HW242495   4.273   5.197   7.688
46886SOL     OW42496   6.146   6.382   5.669
46886SOL    HW142497   6.053   6.360   5.671
46886SOL    HW242498   6.191   6.298   5.666
46887SOL     OW42499  11.927   5.763  14.040
46887SOL    HW142500  12.003   5.801  14.084
46887SOL    HW242501  11.957   5.678  14.007
46888SOL     OW42502   2.297   6.000   0.578
46888SOL    HW142503   2.228   6.067   0.570
46888SOL    HW242504   2.364   6.041   0.632
46889SOL     OW42505   1.182  12.767   7.771
46889SOL    HW142506   1.132  12.689   7.793
46889SOL    HW242507   1.177  12.822   7.849
46890SOL     OW42508  12.867  13.709   7.650
46890SOL    HW142509  12.874  13.789   7.597
46890SOL    HW242510  12.862  13.740   7.740
46891SOL     OW42511   1.260   4.990  13.976
46891SOL    HW142512   1.344   5.033  13.961
46891SOL    HW242513   1.195   5.058  13.958
46892SOL     OW42514  14.061   6.139   6.083
46892SOL    HW142515  14.058   6.082   6.007
46892SOL    HW242516  14.061   6.079   6.158
46893SOL     OW42517   3.927  12.888  14.045
46893SOL    HW142518   3.869  12.832  14.096
46893SOL    HW242519   4.007  12.836  14.034
46894SOL     OW42520  13.831   4.311   7.625
46894SOL    HW142521  13.756   4.271   7.670
46894SOL    HW242522  13.899   4.317   7.692
46895SOL     OW42523   7.262   9.645   6.146
46895SOL    HW142524   7.322   9.577   6.176
46895SOL    HW242525   7.192   9.646   6.211
46896SOL     OW42526   1.957  11.078  13.705
46896SOL    HW142527   1.987  11.127  13.782
46896SOL    HW242528   2.032  11.023  13.682
46897SOL     OW42529   9.896  14.593  11.491
46897SOL    HW142530   9.894  14.572  11.584
46897SOL    HW242531   9.970  14.652  11.481
46898SOL     OW42532   5.479   4.265   5.378
46898SOL    HW142533   5.462   4.183   5.332
46898SOL    HW242534   5.515   4.237   5.463
46899SOL     OW42535   2.232   1.579   0.492
46899SOL    HW142536   2.319   1.618   0.483
46899SOL    HW242537   2.207   1.598   0.582
46900SOL     OW42538   0.713  13.632   5.146
46900SOL    HW142539   0.753  13.600   5.226
46900SOL    HW242540   0.619  13.630   5.163
46901SOL     OW42541   2.125   5.422  14.402
46901SOL    HW142542   2.129   5.427  14.306
46901SOL    HW242543   2.032   5.427  14.422
46902SOL     OW42544   4.290   2.084   1.818
46902SOL    HW142545   4.283   2.110   1.727
46902SOL    HW242546   4.352   2.146   1.857
46903SOL     OW42547   1.673  13.982   5.052
46903SOL    HW142548   1.715  14.030   4.980
46903SOL    HW242549   1.580  13.985   5.031
46904SOL     OW42550   8.607   4.832   8.253
46904SOL    HW142551   8.512   4.832   8.244
46904SOL    HW242552   8.622   4.857   8.345
46905SOL     OW42553   1.534   1.465   9.584
46905SOL    HW142554   1.610   1.523   9.589
46905SOL    HW242555   1.522   1.433   9.674
46906SOL     OW42556  12.955  11.804   5.516
46906SOL    HW142557  12.958  11.885   5.465
46906SOL    HW242558  13.031  11.754   5.485
46907SOL     OW42559   7.501   1.452   9.074
46907SOL    HW142560   7.560   1.382   9.102
46907SOL    HW242561   7.462   1.419   8.993
46908SOL     OW42562  10.568  12.520  14.421
46908SOL    HW142563  10.512  12.453  14.382
46908SOL    HW242564  10.562  12.594  14.361
46909SOL     OW42565  13.620   2.539  13.227
46909SOL    HW142566  13.528   2.567  13.227
46909SOL    HW242567  13.670   2.621  13.234
46910SOL     OW42568   8.000   0.191   5.679
46910SOL    HW142569   7.919   0.176   5.631
46910SOL    HW242570   8.027   0.103   5.707
46911SOL     OW42571   8.309   1.731  12.724
46911SOL    HW142572   8.401   1.748  12.741
46911SOL    HW242573   8.308   1.653  12.668
46912SOL     OW42574  13.439  12.664   4.722
46912SOL    HW142575  13.493  12.734   4.685
46912SOL    HW242576  13.416  12.696   4.810
46913SOL     OW42577   2.396   8.892  12.133
46913SOL    HW142578   2.352   8.812  12.162
46913SOL    HW242579   2.479   8.862  12.097
46914SOL     OW42580   7.311   0.061   2.635
46914SOL    HW142581   7.271   0.108   2.708
46914SOL    HW242582   7.387   0.017   2.674
46915SOL     OW42583   0.829  11.065   1.191
46915SOL    HW142584   0.782  11.115   1.124
46915SOL    HW242585   0.865  10.989   1.145
46916SOL     OW42586  10.487   1.289   6.902
46916SOL    HW142587  10.408   1.235   6.892
46916SOL    HW242588  10.523   1.294   6.813
46917SOL     OW42589  11.122  14.666   6.042
46917SOL    HW142590  11.122  14.704   5.954
46917SOL    HW242591  11.115  14.741   6.101
46918SOL     OW42592   4.711  14.557   8.873
46918SOL    HW142593   4.715  14.544   8.778
46918SOL    HW242594   4.628  14.602   8.888
46919SOL     OW42595  12.882   1.517   6.260
46919SOL    HW142596  12.896   1.486   6.349
46919SOL    HW242597  12.875   1.438   6.207
46920SOL     OW42598   7.370   0.846   3.998
46920SOL    HW142599   7.428   0.919   3.974
46920SOL    HW242600   7.376   0.843   4.094
46921SOL     OW42601   4.037  11.910   6.681
46921SOL    HW142602   4.011  11.875   6.766
46921SOL    HW242603   4.096  11.983   6.702
46922SOL     OW42604   3.307  13.258   5.540
46922SOL    HW142605   3.284  13.181   5.488
46922SOL    HW242606   3.227  13.310   5.544
46923SOL     OW42607   4.598   3.992  12.599
46923SOL    HW142608   4.673   3.978  12.541
46923SOL    HW242609   4.522   3.989  12.541
46924SOL     OW42610  12.823   3.566  10.121
46924SOL    HW142611  12.917   3.580  10.128
46924SOL    HW242612  12.785   3.651  10.145
46925SOL     OW42613   9.669  11.491  13.408
46925SOL    HW142614   9.679  11.418  13.346
46925SOL    HW242615   9.733  11.556  13.379
46926SOL     OW42616  11.162  10.170  13.903
46926SOL    HW142617  11.176  10.130  13.989
46926SOL    HW242618  11.205  10.110  13.842
46927SOL     OW42619  13.062   5.796   3.400
46927SOL    HW142620  13.015   5.808   3.483
46927SOL    HW242621  13.126   5.727   3.419
46928SOL     OW42622   1.565   8.887  10.746
46928SOL    HW142623   1.599   8.957  10.690
46928SOL    HW242624   1.551   8.928  10.831
46929SOL     OW42625   1.518  10.873   8.327
46929SOL    HW142626   1.459  10.941   8.359
46929SOL    HW242627   1.604  10.897   8.360
46930SOL     OW42628  10.875   2.996   7.829
46930SOL    HW142629  10.848   3.067   7.771
46930SOL    HW242630  10.916   2.932   7.771
46931SOL     OW42631   9.036   5.750   4.963
46931SOL    HW142632   8.949   5.753   5.004
46931SOL    HW242633   9.053   5.840   4.936
46932SOL     OW42634   0.629  10.967  14.491
46932SOL    HW142635   0.620  11.060  14.472
46932SOL    HW242636   0.683  10.932  14.421
46933SOL     OW42637  13.409   2.462   9.974
46933SOL    HW142638  13.417   2.553   9.947
46933SOL    HW242639  13.498   2.430   9.979
46934SOL     OW42640   9.076   7.424   5.108
46934SOL    HW142641   9.023   7.483   5.056
46934SOL    HW242642   9.159   7.470   5.119
46935SOL     OW42643   0.489  13.277   5.560
46935SOL    HW142644   0.462  13.368   5.571
46935SOL    HW242645   0.515  13.272   5.468
46936SOL     OW42646   0.245   6.112   0.486
46936SOL    HW142647   0.188   6.068   0.423
46936SOL    HW242648   0.221   6.204   0.480
46937SOL     OW42649  10.237  12.494  10.946
46937SOL    HW142650  10.315  12.548  10.961
46937SOL    HW242651  10.236  12.433  11.019
46938SOL     OW42652   5.869   2.540   7.921
46938SOL    HW142653   5.777   2.520   7.936
46938SOL    HW242654   5.888   2.507   7.833
46939SOL     OW42655  11.815   6.149  12.859
46939SOL    HW142656  11.729   6.107  12.868
46939SOL    HW242657  11.877   6.077  12.852
46940SOL     OW42658   3.232   5.628   5.374
46940SOL    HW142659   3.304   5.627   5.312
46940SOL    HW242660   3.269   5.593   5.455
46941SOL     OW42661   9.380   7.865  10.678
46941SOL    HW142662   9.423   7.792  10.633
46941SOL    HW242663   9.361   7.928  10.610
46942SOL     OW42664   9.377   1.168  10.549
46942SOL    HW142665   9.288   1.136  10.534
46942SOL    HW242666   9.408   1.118  10.624
46943SOL     OW42667  13.021   7.931   6.527
46943SOL    HW142668  13.018   7.838   6.548
46943SOL    HW242669  12.939   7.948   6.480
46944SOL     OW42670   7.611   7.115  12.838
46944SOL    HW142671   7.595   7.141  12.747
46944SOL    HW242672   7.699   7.077  12.837
46945SOL     OW42673   7.597  12.581   6.256
46945SOL    HW142674   7.593  12.670   6.292
46945SOL    HW242675   7.629  12.593   6.167
46946SOL     OW42676   4.095   8.680  10.420
46946SOL    HW142677   4.100   8.617  10.492
46946SOL    HW242678   4.106   8.765  10.463
46947SOL     OW42679   8.548  13.841   7.326
46947SOL    HW142680   8.544  13.872   7.416
46947SOL    HW242681   8.627  13.880   7.290
46948SOL     OW42682   5.220   4.550  12.380
46948SOL    HW142683   5.202   4.473  12.326
46948SOL    HW242684   5.229   4.621  12.317
46949SOL     OW42685  11.602  12.043   6.947
46949SOL    HW142686  11.651  11.987   7.007
46949SOL    HW242687  11.650  12.037   6.865
46950SOL     OW42688   6.523  14.058   3.120
46950SOL    HW142689   6.444  14.106   3.092
46950SOL    HW242690   6.492  13.971   3.142
46951SOL     OW42691   1.784   9.348   0.326
46951SOL    HW142692   1.789   9.303   0.410
46951SOL    HW242693   1.870   9.388   0.314
46952SOL     OW42694   2.886   0.656   5.398
46952SOL    HW142695   2.894   0.747   5.426
46952SOL    HW242696   2.891   0.660   5.303
46953SOL     OW42697  11.181   8.230   3.947
46953SOL    HW142698  11.166   8.248   4.040
46953SOL    HW242699  11.275   8.242   3.935
46954SOL     OW42700   5.474   6.909   0.071
46954SOL    HW142701   5.421   6.926   0.149
46954SOL    HW242702   5.415   6.862   0.012
46955SOL     OW42703  11.164  11.481  11.063
46955SOL    HW142704  11.253  11.446  11.062
46955SOL    HW242705  11.110  11.408  11.030
46956SOL     OW42706  12.684   3.007   3.150
46956SOL    HW142707  12.704   2.916   3.174
46956SOL    HW242708  12.728   3.019   3.065
46957SOL     OW42709   3.985   6.238  12.106
46957SOL    HW142710   3.998   6.144  12.095
46957SOL    HW242711   4.045   6.262  12.177
46958SOL     OW42712  13.436   7.033  13.953
46958SOL    HW142713  13.449   7.002  14.043
46958SOL    HW242714  13.346   7.065  13.951
46959SOL     OW42715  12.667   8.274  13.030
46959SOL    HW142716  12.759   8.248  13.043
46959SOL    HW242717  12.643   8.232  12.947
46960SOL     OW42718  13.924  13.574   4.066
46960SOL    HW142719  13.954  13.661   4.093
46960SOL    HW242720  14.004  13.529   4.037
46961SOL     OW42721  11.380   5.239   1.847
46961SOL    HW142722  11.297   5.279   1.819
46961SOL    HW242723  11.392   5.271   1.936
46962SOL     OW42724   3.509   1.824   4.247
46962SOL    HW142725   3.580   1.780   4.294
46962SOL    HW242726   3.490   1.767   4.173
46963SOL     OW42727   1.440  11.148   7.271
46963SOL    HW142728   1.401  11.177   7.189
46963SOL    HW242729   1.366  11.115   7.323
46964SOL     OW42730   7.917  13.839   6.539
46964SOL    HW142731   7.910  13.926   6.501
46964SOL    HW242732   7.912  13.853   6.633
46965SOL     OW42733  12.788  12.758   8.104
46965SOL    HW142734  12.743  12.741   8.022
46965SOL    HW242735  12.875  12.720   8.093
46966SOL     OW42736  13.904   1.767   4.581
46966SOL    HW142737  13.965   1.830   4.620
46966SOL    HW242738  13.903   1.693   4.643
46967SOL     OW42739   8.014   3.376  12.717
46967SOL    HW142740   7.956   3.446  12.747
46967SOL    HW242741   8.077   3.365  12.789
46968SOL     OW42742  10.972  11.126   2.390
46968SOL    HW142743  10.903  11.089   2.335
46968SOL    HW242744  10.926  11.185   2.450
46969SOL     OW42745  10.765   2.711  12.201
46969SOL    HW142746  10.740   2.654  12.273
46969SOL    HW242747  10.736   2.664  12.122
46970SOL     OW42748  14.586   2.706   1.192
46970SOL    HW142749  14.625   2.673   1.273
46970SOL    HW242750  14.543   2.788   1.217
46971SOL     OW42751   4.279   5.760   8.887
46971SOL    HW142752   4.241   5.827   8.944
46971SOL    HW242753   4.243   5.678   8.920
46972SOL     OW42754   5.988   2.954   4.970
46972SOL    HW142755   5.962   2.867   5.000
46972SOL    HW242756   6.064   2.939   4.915
46973SOL     OW42757  13.725  12.960   3.317
46973SOL    HW142758  13.725  12.864   3.320
46973SOL    HW242759  13.818  12.983   3.320
46974SOL     OW42760   6.343  10.256   4.239
46974SOL    HW142761   6.405  10.219   4.302
46974SOL    HW242762   6.396  10.315   4.186
46975SOL     OW42763   5.198   7.605   8.127
46975SOL    HW142764   5.281   7.560   8.142
46975SOL    HW242765   5.221   7.697   8.122
46976SOL     OW42766   2.698   0.143   1.517
46976SOL    HW142767   2.638   0.215   1.533
46976SOL    HW242768   2.782   0.184   1.499
46977SOL     OW42769  12.067   6.407   1.628
46977SOL    HW142770  12.042   6.324   1.668
46977SOL    HW242771  12.114   6.381   1.548
46978SOL     OW42772   9.006   4.832  10.900
46978SOL    HW142773   8.955   4.858  10.977
46978SOL    HW242774   9.052   4.912  10.874
46979SOL     OW42775   3.815   5.509   9.521
46979SOL    HW142776   3.747   5.572   9.500
46979SOL    HW242777   3.767   5.433   9.556
46980SOL     OW42778  13.324   1.324   3.307
46980SOL    HW142779  13.352   1.252   3.249
46980SOL    HW242780  13.279   1.385   3.249
46981SOL     OW42781   6.740  13.033   3.146
46981SOL    HW142782   6.766  13.072   3.062
46981SOL    HW242783   6.754  12.939   3.135
46982SOL     OW42784   8.461   8.408   4.123
46982SOL    HW142785   8.501   8.494   4.116
46982SOL    HW242786   8.475   8.382   4.214
46983SOL     OW42787   2.159   7.669   4.796
46983SOL    HW142788   2.114   7.645   4.877
46983SOL    HW242789   2.177   7.763   4.807
46984SOL     OW42790   5.156  10.820   1.895
46984SOL    HW142791   5.174  10.788   1.983
46984SOL    HW242792   5.119  10.907   1.908
46985SOL     OW42793  12.839   0.418   3.111
46985SOL    HW142794  12.905   0.376   3.057
46985SOL    HW242795  12.809   0.493   3.059
46986SOL     OW42796  10.479   4.181   5.255
46986SOL    HW142797  10.467   4.234   5.334
46986SOL    HW242798  10.532   4.107   5.285
46987SOL     OW42799   5.953  12.342   0.815
46987SOL    HW142800   5.950  12.253   0.852
46987SOL    HW242801   6.012  12.390   0.872
46988SOL     OW42802  10.562   1.243   0.479
46988SOL    HW142803  10.523   1.155   0.480
46988SOL    HW242804  10.654   1.228   0.460
46989SOL     OW42805   4.048  14.234   6.803
46989SOL    HW142806   4.104  14.308   6.777
46989SOL    HW242807   3.992  14.270   6.871
46990SOL     OW42808   3.886   4.380  12.715
46990SOL    HW142809   3.791   4.395  12.719
46990SOL    HW242810   3.919   4.452  12.661
46991SOL     OW42811   7.737   0.560   4.140
46991SOL    HW142812   7.801   0.632   4.145
46991SOL    HW242813   7.700   0.566   4.052
46992SOL     OW42814  11.159  12.172   7.097
46992SOL    HW142815  11.246  12.168   7.058
46992SOL    HW242816  11.101  12.140   7.028
46993SOL     OW42817   5.872   1.617   9.695
46993SOL    HW142818   5.869   1.712   9.704
46993SOL    HW242819   5.842   1.584   9.779
46994SOL     OW42820   2.546   7.750   4.753
46994SOL    HW142821   2.494   7.801   4.816
46994SOL    HW242822   2.637   7.771   4.775
46995SOL     OW42823   4.912   6.671   2.355
46995SOL    HW142824   4.897   6.577   2.346
46995SOL    HW242825   5.007   6.682   2.344
46996SOL     OW42826   7.799   2.646  10.171
46996SOL    HW142827   7.850   2.728  10.167
46996SOL    HW242828   7.856   2.585  10.218
46997SOL     OW42829   1.247  12.915   9.915
46997SOL    HW142830   1.285  12.895   9.830
46997SOL    HW242831   1.162  12.871   9.916
46998SOL     OW42832  10.235   3.217  11.111
46998SOL    HW142833  10.141   3.236  11.104
46998SOL    HW242834  10.251   3.211  11.206
46999SOL     OW42835   3.670   3.270  11.702
46999SOL    HW142836   3.677   3.269  11.607
46999SOL    HW242837   3.576   3.268  11.719
47000SOL     OW42838   8.351   7.219   5.498
47000SOL    HW142839   8.427   7.198   5.444
47000SOL    HW242840   8.365   7.173   5.580
47001SOL     OW42841   1.379  10.393   7.889
47001SOL    HW142842   1.317  10.383   7.961
47001SOL    HW242843   1.463  10.410   7.932
47002SOL     OW42844  11.346  13.424   0.827
47002SOL    HW142845  11.274  13.483   0.845
47002SOL    HW242846  11.325  13.384   0.743
47003SOL     OW42847   7.526  11.276   7.239
47003SOL    HW142848   7.456  11.314   7.186
47003SOL    HW242849   7.481  11.243   7.317
47004SOL     OW42850  12.388   7.461   8.187
47004SOL    HW142851  12.409   7.375   8.151
47004SOL    HW242852  12.451   7.474   8.257
47005SOL     OW42853   7.621  11.518   5.257
47005SOL    HW142854   7.707  11.554   5.281
47005SOL    HW242855   7.571  11.520   5.339
47006SOL     OW42856   6.057   2.933   2.856
47006SOL    HW142857   6.068   2.838   2.850
47006SOL    HW242858   6.123   2.960   2.920
47007SOL     OW42859   5.736  14.127   0.446
47007SOL    HW142860   5.777  14.106   0.362
47007SOL    HW242861   5.644  14.146   0.424
47008SOL     OW42862  14.165   3.674   4.600
47008SOL    HW142863  14.208   3.720   4.528
47008SOL    HW242864  14.165   3.582   4.573
47009SOL     OW42865   2.885   8.095   6.235
47009SOL    HW142866   2.971   8.135   6.240
47009SOL    HW242867   2.872   8.077   6.142
47010SOL     OW42868  10.457  11.039   5.517
47010SOL    HW142869  10.530  10.982   5.494
47010SOL    HW242870  10.463  11.112   5.455
47011SOL     OW42871   3.326   3.121  12.813
47011SOL    HW142872   3.372   3.038  12.804
47011SOL    HW242873   3.240   3.098  12.846
47012SOL     OW42874   1.587  14.004  14.396
47012SOL    HW142875   1.637  14.085  14.391
47012SOL    HW242876   1.630  13.945  14.333
47013SOL     OW42877   4.618  11.249   7.585
47013SOL    HW142878   4.689  11.280   7.640
47013SOL    HW242879   4.550  11.315   7.595
47014SOL     OW42880  13.118  10.890   8.428
47014SOL    HW142881  13.152  10.894   8.518
47014SOL    HW242882  13.031  10.851   8.438
47015SOL     OW42883   9.196   3.549   6.607
47015SOL    HW142884   9.254   3.607   6.557
47015SOL    HW242885   9.244   3.467   6.615
47016SOL     OW42886   1.873  13.020  14.231
47016SOL    HW142887   1.959  12.997  14.267
47016SOL    HW242888   1.888  13.028  14.137
47017SOL     OW42889   1.116  13.227   4.444
47017SOL    HW142890   1.206  13.201   4.460
47017SOL    HW242891   1.121  13.322   4.431
47018SOL     OW42892   2.030  10.246  14.088
47018SOL    HW142893   1.961  10.241  14.154
47018SOL    HW242894   1.988  10.289  14.013
47019SOL     OW42895   2.805   1.106  11.223
47019SOL    HW142896   2.773   1.016  11.224
47019SOL    HW242897   2.761   1.148  11.296
47020SOL     OW42898  14.827   8.319  14.101
47020SOL    HW142899   0.020   8.369  14.053
47020SOL    HW242900   0.005   8.255  14.150
47021SOL     OW42901  13.525   9.463   6.433
47021SOL    HW142902  13.473   9.488   6.510
47021SOL    HW242903  13.589   9.534   6.423
47022SOL     OW42904   4.347   3.111   8.282
47022SOL    HW142905   4.331   3.087   8.374
47022SOL    HW242906   4.319   3.034   8.232
47023SOL     OW42907   7.515   0.297   2.063
47023SOL    HW142908   7.586   0.328   2.119
47023SOL    HW242909   7.495   0.210   2.096
47024SOL     OW42910  13.112   3.257   5.409
47024SOL    HW142911  13.112   3.193   5.338
47024SOL    HW242912  13.099   3.205   5.488
47025SOL     OW42913   4.382   6.308   9.037
47025SOL    HW142914   4.411   6.399   9.042
47025SOL    HW242915   4.398   6.282   8.947
47026SOL     OW42916  10.344   6.519  10.951
47026SOL    HW142917  10.433   6.487  10.967
47026SOL    HW242918  10.288   6.459  11.001
47027SOL     OW42919   1.545  14.287   8.379
47027SOL    HW142920   1.551  14.196   8.350
47027SOL    HW242921   1.542  14.338   8.298
47028SOL     OW42922  10.501   1.358   3.533
47028SOL    HW142923  10.506   1.437   3.587
47028SOL    HW242924  10.584   1.312   3.550
47029SOL     OW42925   6.391   1.978  14.394
47029SOL    HW142926   6.307   2.010  14.427
47029SOL    HW242927   6.457   2.021  14.449
47030SOL     OW42928   4.740   7.000  10.803
47030SOL    HW142929   4.688   6.966  10.876
47030SOL    HW242930   4.675   7.036  10.743
47031SOL     OW42931  11.252  13.245   4.253
47031SOL    HW142932  11.211  13.175   4.305
47031SOL    HW242933  11.226  13.326   4.298
47032SOL     OW42934  11.057   2.346   1.518
47032SOL    HW142935  11.119   2.296   1.572
47032SOL    HW242936  11.016   2.407   1.580
47033SOL     OW42937   6.476  14.334   4.412
47033SOL    HW142938   6.509  14.424   4.407
47033SOL    HW242939   6.381  14.343   4.408
47034SOL     OW42940   2.339  10.010  13.430
47034SOL    HW142941   2.255   9.985  13.469
47034SOL    HW242942   2.368  10.084  13.483
47035SOL     OW42943   6.276   9.361  12.819
47035SOL    HW142944   6.255   9.407  12.737
47035SOL    HW242945   6.372   9.360  12.822
47036SOL     OW42946  11.519   8.225   2.389
47036SOL    HW142947  11.450   8.160   2.395
47036SOL    HW242948  11.599   8.175   2.376
47037SOL     OW42949   7.657  14.502  10.158
47037SOL    HW142950   7.678  14.590  10.127
47037SOL    HW242951   7.590  14.516  10.225
47038SOL     OW42952   4.320   9.843   9.503
47038SOL    HW142953   4.267   9.830   9.582
47038SOL    HW242954   4.339   9.754   9.472
47039SOL     OW42955   2.429   9.006   1.312
47039SOL    HW142956   2.342   9.034   1.282
47039SOL    HW242957   2.470   9.085   1.345
47040SOL     OW42958   1.272   6.874  10.556
47040SOL    HW142959   1.267   6.866  10.651
47040SOL    HW242960   1.180   6.875  10.527
47041SOL     OW42961   7.813  12.838   7.506
47041SOL    HW142962   7.896  12.792   7.518
47041SOL    HW242963   7.750  12.789   7.558
47042SOL     OW42964   9.208  14.822   4.797
47042SOL    HW142965   9.172   0.037   4.801
47042SOL    HW242966   9.247  14.808   4.883
47043SOL     OW42967  13.733   2.009  11.974
47043SOL    HW142968  13.655   1.976  12.018
47043SOL    HW242969  13.755   1.941  11.910
47044SOL     OW42970   0.040   4.438  11.082
47044SOL    HW142971   0.030   4.473  11.170
47044SOL    HW242972   0.128   4.400  11.081
47045SOL     OW42973  11.139   0.904   1.882
47045SOL    HW142974  11.179   0.819   1.900
47045SOL    HW242975  11.119   0.902   1.789
47046SOL     OW42976  11.750   2.983   8.875
47046SOL    HW142977  11.812   2.935   8.821
47046SOL    HW242978  11.712   2.917   8.932
47047SOL     OW42979   9.770   0.755   6.659
47047SOL    HW142980   9.730   0.676   6.696
47047SOL    HW242981   9.847   0.771   6.713
47048SOL     OW42982  14.666  14.132  11.243
47048SOL    HW142983  14.591  14.079  11.215
47048SOL    HW242984  14.719  14.073  11.295
47049SOL     OW42985   0.325   6.877   8.083
47049SOL    HW142986   0.318   6.887   7.988
47049SOL    HW242987   0.239   6.901   8.116
47050SOL     OW42988   9.381  11.263   1.022
47050SOL    HW142989   9.455  11.313   1.056
47050SOL    HW242990   9.306  11.321   1.036
47051SOL     OW42991   7.973   5.777   8.990
47051SOL    HW142992   7.894   5.804   9.037
47051SOL    HW242993   7.956   5.801   8.899
47052SOL     OW42994   4.077   9.369   0.605
47052SOL    HW142995   4.071   9.275   0.617
47052SOL    HW242996   4.169   9.390   0.622
47053SOL     OW42997   8.236  14.534  14.146
47053SOL    HW142998   8.255  14.605  14.085
47053SOL    HW242999   8.236  14.575  14.232
47054SOL     OW43000   6.602   3.371  12.458
47054SOL    HW143001   6.514   3.335  12.463
47054SOL    HW243002   6.659   3.295  12.448
47055SOL     OW43003   8.607   3.875   4.150
47055SOL    HW143004   8.603   3.838   4.238
47055SOL    HW243005   8.546   3.822   4.098
47056SOL     OW43006   4.193  11.120   9.157
47056SOL    HW143007   4.180  11.026   9.140
47056SOL    HW243008   4.105  11.152   9.179
47057SOL     OW43009  14.809   3.142   1.700
47057SOL    HW143010  14.843   3.224   1.735
47057SOL    HW243011  14.739   3.169   1.640
47058SOL     OW43012   6.508   2.526   7.409
47058SOL    HW143013   6.424   2.530   7.455
47058SOL    HW243014   6.502   2.448   7.354
47059SOL     OW43015   7.658   0.496  11.148
47059SOL    HW143016   7.593   0.432  11.121
47059SOL    HW243017   7.703   0.455  11.222
47060SOL     OW43018   3.857  13.561  13.895
47060SOL    HW143019   3.943  13.601  13.911
47060SOL    HW243020   3.795  13.620  13.938
47061SOL     OW43021   8.818   9.670   1.098
47061SOL    HW143022   8.907   9.690   1.128
47061SOL    HW243023   8.771   9.648   1.179
47062SOL     OW43024   9.073  13.240   2.622
47062SOL    HW143025   9.005  13.185   2.663
47062SOL    HW243026   9.146  13.180   2.608
47063SOL     OW43027   0.087   1.154   1.276
47063SOL    HW143028   0.148   1.225   1.295
47063SOL    HW243029   0.075   1.157   1.181
47064SOL     OW43030  10.844   3.770   2.118
47064SOL    HW143031  10.829   3.676   2.118
47064SOL    HW243032  10.824   3.798   2.208
47065SOL     OW43033   8.503  11.795  11.164
47065SOL    HW143034   8.436  11.844  11.116
47065SOL    HW243035   8.459  11.766  11.244
47066SOL     OW43036   0.631   0.885   5.662
47066SOL    HW143037   0.673   0.970   5.650
47066SOL    HW243038   0.559   0.902   5.723
47067SOL     OW43039   9.044  13.068   6.207
47067SOL    HW143040   9.070  13.076   6.115
47067SOL    HW243041   8.949  13.069   6.206
47068SOL     OW43042   3.584   3.062  13.937
47068SOL    HW143043   3.529   2.985  13.922
47068SOL    HW243044   3.557   3.094  14.023
47069SOL     OW43045   9.361   6.613   1.836
47069SOL    HW143046   9.320   6.527   1.825
47069SOL    HW243047   9.293   6.676   1.814
47070SOL     OW43048   0.383   2.142   0.158
47070SOL    HW143049   0.368   2.202   0.086
47070SOL    HW243050   0.478   2.135   0.165
47071SOL     OW43051   1.873  10.018  12.277
47071SOL    HW143052   1.964  10.046  12.267
47071SOL    HW243053   1.875   9.952  12.346
47072SOL     OW43054  12.594   0.436  13.461
47072SOL    HW143055  12.553   0.464  13.379
47072SOL    HW243056  12.670   0.385  13.434
47073SOL     OW43057  11.146   7.859  13.690
47073SOL    HW143058  11.201   7.800  13.742
47073SOL    HW243059  11.057   7.830  13.708
47074SOL     OW43060   9.930   7.257   0.008
47074SOL    HW143061   9.872   7.234   0.080
47074SOL    HW243062   9.961   7.345   0.030
47075SOL     OW43063   2.450   5.872   3.144
47075SOL    HW143064   2.453   5.962   3.109
47075SOL    HW243065   2.509   5.823   3.087
47076SOL     OW43066   2.383   7.381   9.466
47076SOL    HW143067   2.375   7.318   9.538
47076SOL    HW243068   2.425   7.457   9.504
47077SOL     OW43069   0.007   8.162   3.867
47077SOL    HW143070  14.868   8.070   3.842
47077SOL    HW243071  14.804   8.182   3.921
47078SOL     OW43072   0.643  13.696   3.228
47078SOL    HW143073   0.562  13.747   3.229
47078SOL    HW243074   0.651  13.663   3.318
47079SOL     OW43075  11.264   1.767  11.467
47079SOL    HW143076  11.197   1.699  11.472
47079SOL    HW243077  11.305   1.755  11.381
47080SOL     OW43078   1.047  10.652   0.021
47080SOL    HW143079   0.998  10.713  14.840
47080SOL    HW243080   1.108  10.610  14.834
47081SOL     OW43081   2.565   4.442  10.151
47081SOL    HW143082   2.499   4.509  10.164
47081SOL    HW243083   2.561   4.421  10.058
47082SOL     OW43084  14.596  12.701   1.363
47082SOL    HW143085  14.649  12.780   1.376
47082SOL    HW243086  14.640  12.655   1.291
47083SOL     OW43087  14.182   4.576  14.314
47083SOL    HW143088  14.189   4.574  14.410
47083SOL    HW243089  14.206   4.488  14.286
47084SOL     OW43090   7.571   7.849  11.813
47084SOL    HW143091   7.610   7.780  11.759
47084SOL    HW243092   7.516   7.898  11.752
47085SOL     OW43093  12.164  12.277   0.208
47085SOL    HW143094  12.244  12.265   0.259
47085SOL    HW243095  12.194  12.294   0.119
47086SOL     OW43096   6.482   9.885   1.318
47086SOL    HW143097   6.525   9.967   1.295
47086SOL    HW243098   6.467   9.891   1.412
47087SOL     OW43099   8.771  13.152   0.571
47087SOL    HW143100   8.688  13.116   0.537
47087SOL    HW243101   8.749  13.185   0.658
47088SOL     OW43102   9.778   9.533  10.392
47088SOL    HW143103   9.707   9.543  10.455
47088SOL    HW243104   9.769   9.443  10.360
47089SOL     OW43105   0.819  13.030   8.445
47089SOL    HW143106   0.827  12.934   8.447
47089SOL    HW243107   0.901  13.060   8.406
47090SOL     OW43108   1.599  14.300   2.339
47090SOL    HW143109   1.504  14.317   2.334
47090SOL    HW243110   1.608  14.235   2.409
47091SOL     OW43111  11.874   7.880   1.247
47091SOL    HW143112  11.806   7.945   1.261
47091SOL    HW243113  11.895   7.847   1.335
47092SOL     OW43114  12.970   5.639   5.991
47092SOL    HW143115  12.923   5.672   5.915
47092SOL    HW243116  12.984   5.546   5.972
47093SOL     OW43117  12.245   0.795   6.147
47093SOL    HW143118  12.221   0.872   6.096
47093SOL    HW243119  12.247   0.827   6.238
47094SOL     OW43120  13.802   2.334   5.235
47094SOL    HW143121  13.836   2.345   5.323
47094SOL    HW243122  13.747   2.411   5.221
47095SOL     OW43123   4.716   8.072   0.282
47095SOL    HW143124   4.774   8.139   0.318
47095SOL    HW243125   4.711   8.094   0.188
47096SOL     OW43126   9.684   6.601   9.051
47096SOL    HW143127   9.749   6.623   8.985
47096SOL    HW243128   9.606   6.652   9.027
47097SOL     OW43129   7.573  12.232   1.121
47097SOL    HW143130   7.629  12.169   1.166
47097SOL    HW243131   7.598  12.225   1.029
47098SOL     OW43132   8.123   1.932   7.244
47098SOL    HW143133   8.126   2.022   7.210
47098SOL    HW243134   8.162   1.939   7.332
47099SOL     OW43135   6.702   7.130   4.302
47099SOL    HW143136   6.736   7.041   4.301
47099SOL    HW243137   6.780   7.186   4.297
47100SOL     OW43138   0.140  14.299   3.354
47100SOL    HW143139   0.071  14.365   3.349
47100SOL    HW243140   0.191  14.312   3.274
47101SOL     OW43141  13.383   7.246  13.090
47101SOL    HW143142  13.415   7.335  13.109
47101SOL    HW243143  13.297   7.243  13.131
47102SOL     OW43144   2.867   0.547   4.830
47102SOL    HW143145   2.844   0.511   4.744
47102SOL    HW243146   2.813   0.497   4.891
47103SOL     OW43147   1.101   5.788   1.718
47103SOL    HW143148   1.153   5.825   1.789
47103SOL    HW243149   1.147   5.708   1.693
47104SOL     OW43150   5.446   9.014   2.940
47104SOL    HW143151   5.490   9.061   2.870
47104SOL    HW243152   5.437   9.077   3.011
47105SOL     OW43153   7.473  14.822   0.832
47105SOL    HW143154   7.546  14.765   0.855
47105SOL    HW243155   7.396  14.779   0.869
47106SOL     OW43156   0.389   6.956   7.022
47106SOL    HW143157   0.456   6.963   7.090
47106SOL    HW243158   0.416   6.881   6.969
47107SOL     OW43159   6.146   2.288   9.056
47107SOL    HW143160   6.141   2.242   8.972
47107SOL    HW243161   6.239   2.312   9.064
47108SOL     OW43162  13.977   3.179   3.602
47108SOL    HW143163  13.969   3.127   3.523
47108SOL    HW243164  13.951   3.267   3.575
47109SOL     OW43165   9.970  11.330  10.885
47109SOL    HW143166   9.876  11.347  10.878
47109SOL    HW243167  10.003  11.399  10.943
47110SOL     OW43168   1.149   7.998   0.979
47110SOL    HW143169   1.184   8.086   0.962
47110SOL    HW243170   1.090   7.981   0.906
47111SOL     OW43171   6.984  13.074  12.518
47111SOL    HW143172   7.023  13.162  12.516
47111SOL    HW243173   6.903  13.085  12.569
47112SOL     OW43174   3.812   5.058   0.968
47112SOL    HW143175   3.875   5.004   0.920
47112SOL    HW243176   3.837   5.148   0.947
47113SOL     OW43177  11.791   3.031  10.817
47113SOL    HW143178  11.733   2.956  10.805
47113SOL    HW243179  11.818   3.055  10.729
47114SOL     OW43180   8.187   0.379   9.898
47114SOL    HW143181   8.161   0.319   9.968
47114SOL    HW243182   8.131   0.355   9.824
47115SOL     OW43183   7.593   2.176   6.164
47115SOL    HW143184   7.538   2.244   6.126
47115SOL    HW243185   7.537   2.133   6.229
47116SOL     OW43186   1.474  13.232   2.585
47116SOL    HW143187   1.568  13.248   2.581
47116SOL    HW243188   1.439  13.307   2.634
47117SOL     OW43189   8.940   9.448  14.571
47117SOL    HW143190   8.962   9.405  14.654
47117SOL    HW243191   9.008   9.515  14.560
47118SOL     OW43192   8.592   2.563   4.762
47118SOL    HW143193   8.608   2.612   4.843
47118SOL    HW243194   8.649   2.605   4.698
47119SOL     OW43195   2.202   6.170   7.620
47119SOL    HW143196   2.182   6.186   7.712
47119SOL    HW243197   2.173   6.249   7.574
47120SOL     OW43198   7.267  10.301  13.982
47120SOL    HW143199   7.310  10.239  13.924
47120SOL    HW243200   7.262  10.256  14.066
47121SOL     OW43201   1.124   6.481  11.922
47121SOL    HW143202   1.035   6.447  11.929
47121SOL    HW243203   1.130   6.548  11.991
47122SOL     OW43204   7.470   5.869  14.305
47122SOL    HW143205   7.514   5.833  14.382
47122SOL    HW243206   7.539   5.875  14.239
47123SOL     OW43207   6.847   5.982   4.631
47123SOL    HW143208   6.927   6.024   4.662
47123SOL    HW243209   6.866   5.957   4.541
47124SOL     OW43210   3.621  12.102   0.133
47124SOL    HW143211   3.578  12.152   0.064
47124SOL    HW243212   3.707  12.142   0.142
47125SOL     OW43213  12.877   7.553  12.985
47125SOL    HW143214  12.819   7.492  12.939
47125SOL    HW243215  12.847   7.640  12.959
47126SOL     OW43216  12.248  12.011  12.928
47126SOL    HW143217  12.303  11.934  12.944
47126SOL    HW243218  12.269  12.037  12.838
47127SOL     OW43219  13.420   4.231  14.657
47127SOL    HW143220  13.388   4.213  14.568
47127SOL    HW243221  13.433   4.326  14.659
47128SOL     OW43222  10.015   3.498  11.530
47128SOL    HW143223   9.963   3.551  11.590
47128SOL    HW243224  10.076   3.560  11.490
47129SOL     OW43225  14.664  11.938  11.614
47129SOL    HW143226  14.592  11.894  11.660
47129SOL    HW243227  14.652  11.913  11.522
47130SOL     OW43228  10.987  12.980   7.868
47130SOL    HW143229  11.061  12.921   7.878
47130SOL    HW243230  10.938  12.971   7.950
47131SOL     OW43231   0.296  12.732   3.366
47131SOL    HW143232   0.331  12.764   3.283
47131SOL    HW243233   0.353  12.770   3.432
47132SOL     OW43234   5.146   5.026  12.463
47132SOL    HW143235   5.117   5.080  12.537
47132SOL    HW243236   5.192   5.087  12.405
47133SOL     OW43237   0.257  13.798   5.134
47133SOL    HW143238   0.180  13.854   5.138
47133SOL    HW243239   0.319  13.847   5.080
47134SOL     OW43240  14.208  11.690  12.061
47134SOL    HW143241  14.255  11.675  12.143
47134SOL    HW243242  14.117  11.668  12.082
47135SOL     OW43243   4.901   2.720   1.117
47135SOL    HW143244   4.835   2.789   1.112
47135SOL    HW243245   4.915   2.706   1.211
47136SOL     OW43246   6.010   4.305   7.676
47136SOL    HW143247   5.967   4.263   7.751
47136SOL    HW243248   6.068   4.237   7.640
47137SOL     OW43249   9.893  11.586   6.710
47137SOL    HW143250   9.916  11.674   6.678
47137SOL    HW243251   9.949  11.527   6.660
47138SOL     OW43252   7.018   1.866  10.029
47138SOL    HW143253   7.113   1.855  10.021
47138SOL    HW243254   6.982   1.789   9.985
47139SOL     OW43255  12.236   4.215   1.276
47139SOL    HW143256  12.251   4.129   1.236
47139SOL    HW243257  12.312   4.267   1.251
47140SOL     OW43258   1.339   0.459   1.865
47140SOL    HW143259   1.295   0.441   1.948
47140SOL    HW243260   1.393   0.382   1.848
47141SOL     OW43261   9.766   4.099  13.998
47141SOL    HW143262   9.713   4.086  13.920
47141SOL    HW243263   9.714   4.063  14.070
47142SOL     OW43264   8.085   6.642  14.162
47142SOL    HW143265   8.162   6.641  14.105
47142SOL    HW243266   8.115   6.690  14.240
47143SOL     OW43267  13.426  13.313   2.694
47143SOL    HW143268  13.439  13.361   2.613
47143SOL    HW243269  13.508  13.323   2.741
47144SOL     OW43270  11.278   7.887  11.175
47144SOL    HW143271  11.331   7.925  11.105
47144SOL    HW243272  11.342   7.862  11.242
47145SOL     OW43273   6.790   4.712   4.953
47145SOL    HW143274   6.881   4.688   4.966
47145SOL    HW243275   6.771   4.689   4.862
47146SOL     OW43276   0.576   8.259  12.597
47146SOL    HW143277   0.578   8.164  12.590
47146SOL    HW243278   0.667   8.284  12.612
47147SOL     OW43279   3.384   0.356   6.303
47147SOL    HW143280   3.394   0.337   6.396
47147SOL    HW243281   3.338   0.280   6.267
47148SOL     OW43282   5.737  13.847   0.096
47148SOL    HW143283   5.776  13.798   0.169
47148SOL    HW243284   5.742  13.939   0.122
47149SOL     OW43285   6.859  13.347  11.382
47149SOL    HW143286   6.953  13.334  11.397
47149SOL    HW243287   6.852  13.374  11.291
47150SOL     OW43288  13.976   7.974   2.733
47150SOL    HW143289  13.929   7.962   2.651
47150SOL    HW243290  13.928   8.043   2.779
47151SOL     OW43291   6.481   8.382   3.363
47151SOL    HW143292   6.479   8.472   3.393
47151SOL    HW243293   6.469   8.330   3.442
47152SOL     OW43294   7.945   7.304   3.887
47152SOL    HW143295   7.907   7.237   3.831
47152SOL    HW243296   7.990   7.254   3.956
47153SOL     OW43297   9.348  13.149   1.737
47153SOL    HW143298   9.383  13.080   1.680
47153SOL    HW243299   9.381  13.230   1.698
47154SOL     OW43300   1.661  13.850  13.268
47154SOL    HW143301   1.612  13.788  13.214
47154SOL    HW243302   1.631  13.833  13.357
47155SOL     OW43303   1.089   7.633   5.303
47155SOL    HW143304   1.155   7.564   5.300
47155SOL    HW243305   1.100   7.675   5.388
47156SOL     OW43306   4.140   8.241   6.193
47156SOL    HW143307   4.219   8.288   6.166
47156SOL    HW243308   4.167   8.192   6.271
47157SOL     OW43309   5.376   6.488   6.474
47157SOL    HW143310   5.432   6.553   6.431
47157SOL    HW243311   5.382   6.410   6.418
47158SOL     OW43312   4.052   5.946  10.903
47158SOL    HW143313   4.144   5.928  10.888
47158SOL    HW243314   4.008   5.920  10.821
47159SOL     OW43315  14.283   4.868   7.179
47159SOL    HW143316  14.233   4.950   7.175
47159SOL    HW243317  14.356   4.886   7.238
47160SOL     OW43318   0.249   3.536   5.500
47160SOL    HW143319   0.192   3.484   5.444
47160SOL    HW243320   0.338   3.513   5.475
47161SOL     OW43321  13.099  13.354   8.030
47161SOL    HW143322  13.189  13.344   7.999
47161SOL    HW243323  13.045  13.334   7.954
47162SOL     OW43324   4.095   9.600   8.455
47162SOL    HW143325   4.040   9.678   8.464
47162SOL    HW243326   4.185   9.634   8.451
47163SOL     OW43327   9.725   7.173   8.475
47163SOL    HW143328   9.672   7.214   8.544
47163SOL    HW243329   9.805   7.145   8.520
47164SOL     OW43330   8.366  11.966   7.188
47164SOL    HW143331   8.420  11.904   7.139
47164SOL    HW243332   8.393  12.052   7.157
47165SOL     OW43333  14.392   5.946  11.037
47165SOL    HW143334  14.421   6.002  10.965
47165SOL    HW243335  14.412   5.997  11.116
47166SOL     OW43336  12.895   7.465   3.376
47166SOL    HW143337  12.856   7.526   3.313
47166SOL    HW243338  12.970   7.427   3.329
47167SOL     OW43339   3.932   5.364   2.229
47167SOL    HW143340   3.906   5.456   2.227
47167SOL    HW243341   4.026   5.367   2.246
47168SOL     OW43342  10.799   9.434   9.412
47168SOL    HW143343  10.709   9.466   9.404
47168SOL    HW243344  10.853   9.507   9.382
47169SOL     OW43345   0.141  13.717   4.095
47169SOL    HW143346   0.138  13.644   4.157
47169SOL    HW243347   0.176  13.680   4.015
47170SOL     OW43348   8.757  12.770   8.568
47170SOL    HW143349   8.692  12.760   8.638
47170SOL    HW243350   8.723  12.842   8.514
47171SOL     OW43351  13.494   8.116   3.181
47171SOL    HW143352  13.507   8.205   3.213
47171SOL    HW243353  13.481   8.126   3.087
47172SOL     OW43354   8.641  11.661  14.220
47172SOL    HW143355   8.596  11.728  14.167
47172SOL    HW243356   8.727  11.699  14.238
47173SOL     OW43357   6.238   1.614   2.562
47173SOL    HW143358   6.282   1.595   2.479
47173SOL    HW243359   6.242   1.709   2.571
47174SOL     OW43360   4.020  12.309   2.683
47174SOL    HW143361   4.002  12.256   2.761
47174SOL    HW243362   4.044  12.395   2.719
47175SOL     OW43363  11.465  10.878  14.539
47175SOL    HW143364  11.425  10.811  14.484
47175SOL    HW243365  11.477  10.835  14.624
47176SOL     OW43366   2.126  14.118   2.097
47176SOL    HW143367   2.130  14.213   2.088
47176SOL    HW243368   2.034  14.096   2.082
47177SOL     OW43369   4.672  11.725  13.090
47177SOL    HW143370   4.676  11.801  13.149
47177SOL    HW243371   4.606  11.668  13.129
47178SOL     OW43372  13.728   3.999   6.097
47178SOL    HW143373  13.737   4.090   6.125
47178SOL    HW243374  13.683   3.956   6.170
47179SOL     OW43375   5.234  11.971   8.963
47179SOL    HW143376   5.276  11.913   8.900
47179SOL    HW243377   5.185  11.912   9.021
47180SOL     OW43378   6.350   8.002   1.221
47180SOL    HW143379   6.326   8.041   1.305
47180SOL    HW243380   6.444   7.986   1.228
47181SOL     OW43381   0.531  11.029  14.214
47181SOL    HW143382   0.582  10.948  14.220
47181SOL    HW243383   0.577  11.090  14.271
47182SOL     OW43384   6.791   2.491  13.208
47182SOL    HW143385   6.776   2.424  13.274
47182SOL    HW243386   6.886   2.503  13.206
47183SOL     OW43387   7.745   9.251   2.428
47183SOL    HW143388   7.827   9.241   2.378
47183SOL    HW243389   7.740   9.172   2.482
47184SOL     OW43390   0.264  10.064   0.572
47184SOL    HW143391   0.285  10.157   0.566
47184SOL    HW243392   0.175  10.057   0.537
47185SOL     OW43393  14.049   5.480   6.520
47185SOL    HW143394  14.101   5.486   6.440
47185SOL    HW243395  14.043   5.386   6.538
47186SOL     OW43396  10.016   0.158   3.473
47186SOL    HW143397  10.094   0.213   3.476
47186SOL    HW243398   9.948   0.215   3.437
47187SOL     OW43399   5.556  13.959  11.502
47187SOL    HW143400   5.650  13.959  11.521
47187SOL    HW243401   5.521  13.887  11.554
47188SOL     OW43402   6.665   4.749   5.192
47188SOL    HW143403   6.726   4.722   5.124
47188SOL    HW243404   6.647   4.668   5.241
47189SOL     OW43405   7.653  11.800   5.778
47189SOL    HW143406   7.748  11.811   5.774
47189SOL    HW243407   7.618  11.887   5.759
47190SOL     OW43408  13.824   1.524  10.936
47190SOL    HW143409  13.833   1.602  10.880
47190SOL    HW243410  13.745   1.541  10.988
47191SOL     OW43411  10.487   3.474   3.348
47191SOL    HW143412  10.434   3.428   3.413
47191SOL    HW243413  10.548   3.526   3.401
47192SOL     OW43414   1.003  14.502   5.919
47192SOL    HW143415   1.031  14.588   5.952
47192SOL    HW243416   0.936  14.473   5.981
47193SOL     OW43417   0.728   6.837   4.475
47193SOL    HW143418   0.815   6.826   4.439
47193SOL    HW243419   0.741   6.892   4.553
47194SOL     OW43420   3.478  14.197   0.165
47194SOL    HW143421   3.423  14.274   0.154
47194SOL    HW243422   3.418  14.123   0.161
47195SOL     OW43423  10.661   9.095   8.260
47195SOL    HW143424  10.734   9.068   8.204
47195SOL    HW243425  10.685   9.066   8.348
47196SOL     OW43426  12.574  11.863   8.083
47196SOL    HW143427  12.541  11.773   8.077
47196SOL    HW243428  12.625  11.875   8.003
47197SOL     OW43429   6.464  14.821   9.267
47197SOL    HW143430   6.442   0.036   9.295
47197SOL    HW243431   6.470  14.771   9.349
47198SOL     OW43432   4.135  11.844   5.940
47198SOL    HW143433   4.091  11.876   5.861
47198SOL    HW243434   4.216  11.805   5.908
47199SOL     OW43435   2.409   1.438   2.628
47199SOL    HW143436   2.391   1.532   2.622
47199SOL    HW243437   2.374   1.402   2.546
47200SOL     OW43438   7.193   1.347  11.490
47200SOL    HW143439   7.159   1.304  11.568
47200SOL    HW243440   7.119   1.348  11.429
47201SOL     OW43441   3.255  14.785   5.787
47201SOL    HW143442   3.189  14.795   5.855
47201SOL    HW243443   3.338  14.777   5.834
47202SOL     OW43444   3.050   2.789   1.523
47202SOL    HW143445   3.104   2.756   1.452
47202SOL    HW243446   2.962   2.792   1.487
47203SOL     OW43447   3.087   9.118   9.927
47203SOL    HW143448   3.049   9.065   9.857
47203SOL    HW243449   3.012   9.152   9.975
47204SOL     OW43450  14.123   0.994   9.386
47204SOL    HW143451  14.050   0.934   9.367
47204SOL    HW243452  14.092   1.046   9.461
47205SOL     OW43453   0.186  13.352   7.863
47205SOL    HW143454   0.266  13.350   7.915
47205SOL    HW243455   0.216  13.341   7.773
47206SOL     OW43456  10.456   1.474  10.730
47206SOL    HW143457  10.452   1.458  10.824
47206SOL    HW243458  10.547   1.498  10.713
47207SOL     OW43459   7.795   3.527  12.849
47207SOL    HW143460   7.760   3.551  12.934
47207SOL    HW243461   7.760   3.439  12.832
47208SOL     OW43462   5.208   9.474  12.226
47208SOL    HW143463   5.295   9.441  12.206
47208SOL    HW243464   5.162   9.399  12.264
47209SOL     OW43465   8.592   7.911  11.266
47209SOL    HW143466   8.595   8.006  11.277
47209SOL    HW243467   8.502   7.893  11.237
47210SOL     OW43468   3.800  12.643  12.596
47210SOL    HW143469   3.739  12.708  12.561
47210SOL    HW243470   3.754  12.559  12.586
47211SOL     OW43471  12.599   1.712   2.809
47211SOL    HW143472  12.580   1.679   2.722
47211SOL    HW243473  12.557   1.798   2.812
47212SOL     OW43474  14.365   3.591   0.135
47212SOL    HW143475  14.341   3.553   0.050
47212SOL    HW243476  14.357   3.685   0.122
47213SOL     OW43477   0.743  10.827   5.044
47213SOL    HW143478   0.674  10.876   4.998
47213SOL    HW243479   0.708  10.738   5.049
47214SOL     OW43480   3.599   9.057  13.665
47214SOL    HW143481   3.546   9.127  13.704
47214SOL    HW243482   3.537   9.008  13.611
47215SOL     OW43483   9.819   2.279   6.988
47215SOL    HW143484   9.729   2.300   7.013
47215SOL    HW243485   9.873   2.314   7.059
47216SOL     OW43486   4.650   0.432   9.269
47216SOL    HW143487   4.730   0.485   9.272
47216SOL    HW243488   4.646   0.389   9.355
47217SOL     OW43489   9.365   2.508   4.240
47217SOL    HW143490   9.418   2.473   4.312
47217SOL    HW243491   9.324   2.430   4.202
47218SOL     OW43492  13.872   9.465  14.775
47218SOL    HW143493  13.799   9.491  14.832
47218SOL    HW243494  13.949   9.470  14.830
47219SOL     OW43495   4.614  12.484   1.254
47219SOL    HW143496   4.593  12.500   1.162
47219SOL    HW243497   4.703  12.451   1.252
47220SOL     OW43498   1.212   9.666  12.727
47220SOL    HW143499   1.241   9.635  12.641
47220SOL    HW243500   1.290   9.702  12.768
47221SOL     OW43501  11.885   9.713   1.736
47221SOL    HW143502  11.948   9.652   1.699
47221SOL    HW243503  11.922   9.738   1.821
47222SOL     OW43504   6.045   3.005   8.524
47222SOL    HW143505   6.063   3.069   8.456
47222SOL    HW243506   6.102   2.931   8.504
47223SOL     OW43507   3.498   9.515   1.742
47223SOL    HW143508   3.582   9.542   1.778
47223SOL    HW243509   3.503   9.537   1.649
47224SOL     OW43510   4.936   5.197  13.949
47224SOL    HW143511   4.870   5.201  13.879
47224SOL    HW243512   4.899   5.250  14.020
47225SOL     OW43513   5.048   6.315  13.784
47225SOL    HW143514   5.062   6.382  13.716
47225SOL    HW243515   5.125   6.258  13.777
47226SOL     OW43516   6.923  14.548   4.636
47226SOL    HW143517   6.975  14.595   4.702
47226SOL    HW243518   6.971  14.467   4.620
47227SOL     OW43519   1.504   1.478   1.953
47227SOL    HW143520   1.432   1.531   1.917
47227SOL    HW243521   1.490   1.391   1.916
47228SOL     OW43522   9.100   6.850  10.053
47228SOL    HW143523   9.054   6.848  10.137
47228SOL    HW243524   9.036   6.815   9.990
47229SOL     OW43525   2.163   9.478  11.087
47229SOL    HW143526   2.149   9.397  11.136
47229SOL    HW243527   2.077   9.519  11.083
47230SOL     OW43528   9.327  13.601  12.759
47230SOL    HW143529   9.279  13.599  12.676
47230SOL    HW243530   9.416  13.625  12.735
47231SOL     OW43531   7.790  12.247   4.699
47231SOL    HW143532   7.871  12.280   4.661
47231SOL    HW243533   7.760  12.316   4.758
47232SOL     OW43534   2.340   9.514  12.426
47232SOL    HW143535   2.404   9.574  12.388
47232SOL    HW243536   2.290   9.568  12.487
47233SOL     OW43537   8.926  13.781   4.270
47233SOL    HW143538   8.879  13.854   4.228
47233SOL    HW243539   8.884  13.703   4.234
47234SOL     OW43540   4.147   8.124  12.714
47234SOL    HW143541   4.214   8.153  12.651
47234SOL    HW243542   4.151   8.029  12.711
47235SOL     OW43543   0.033   0.358   3.749
47235SOL    HW143544   0.073   0.274   3.772
47235SOL    HW243545   0.018   0.401   3.833
47236SOL     OW43546   7.096   3.295  14.250
47236SOL    HW143547   7.060   3.285  14.339
47236SOL    HW243548   7.026   3.337  14.201
47237SOL     OW43549  13.307   9.749   3.153
47237SOL    HW143550  13.270   9.824   3.108
47237SOL    HW243551  13.289   9.765   3.246
47238SOL     OW43552  10.647   7.783   8.061
47238SOL    HW143553  10.613   7.872   8.065
47238SOL    HW243554  10.673   7.772   7.970
47239SOL     OW43555   6.179   5.669  14.807
47239SOL    HW143556   6.214   5.677   0.023
47239SOL    HW243557   6.179   5.758  14.773
47240SOL     OW43558   4.185   8.568   5.789
47240SOL    HW143559   4.092   8.549   5.796
47240SOL    HW243560   4.216   8.574   5.879
47241SOL     OW43561  12.877   0.037   1.078
47241SOL    HW143562  12.794   0.083   1.072
47241SOL    HW243563  12.908   0.031   0.987
47242SOL     OW43564  14.052   4.411   2.593
47242SOL    HW143565  14.111   4.428   2.667
47242SOL    HW243566  13.964   4.416   2.631
47243SOL     OW43567  14.116  12.997   3.295
47243SOL    HW143568  14.133  13.048   3.374
47243SOL    HW243569  14.142  12.907   3.318
47244SOL     OW43570   3.924   7.609   6.103
47244SOL    HW143571   4.015   7.580   6.104
47244SOL    HW243572   3.884   7.563   6.176
47245SOL     OW43573   8.359  10.272   5.832
47245SOL    HW143574   8.275  10.230   5.847
47245SOL    HW243575   8.370  10.332   5.907
47246SOL     OW43576   7.206  11.911   5.250
47246SOL    HW143577   7.275  11.911   5.183
47246SOL    HW243578   7.170  12.000   5.247
47247SOL     OW43579   0.895   9.176   1.243
47247SOL    HW143580   0.847   9.174   1.160
47247SOL    HW243581   0.893   9.268   1.270
47248SOL     OW43582   3.841   5.346   9.028
47248SOL    HW143583   3.822   5.440   9.030
47248SOL    HW243584   3.799   5.311   9.106
47249SOL     OW43585  10.912   2.905   0.216
47249SOL    HW143586  10.855   2.913   0.293
47249SOL    HW243587  10.995   2.943   0.244
47250SOL     OW43588  13.174   8.070   3.115
47250SOL    HW143589  13.113   8.138   3.084
47250SOL    HW243590  13.261   8.105   3.097
47251SOL     OW43591  10.193  14.806   6.699
47251SOL    HW143592  10.173  14.829   6.790
47251SOL    HW243593  10.168   0.011   6.649
47252SOL     OW43594   9.516   1.206  11.617
47252SOL    HW143595   9.520   1.298  11.642
47252SOL    HW243596   9.531   1.158  11.699
47253SOL     OW43597   3.869  10.624  12.142
47253SOL    HW143598   3.803  10.601  12.207
47253SOL    HW243599   3.819  10.656  12.067
47254SOL     OW43600  11.870   3.775   4.315
47254SOL    HW143601  11.898   3.713   4.382
47254SOL    HW243602  11.783   3.804   4.343
47255SOL     OW43603   2.199   0.663   8.366
47255SOL    HW143604   2.236   0.589   8.317
47255SOL    HW243605   2.237   0.656   8.453
47256SOL     OW43606  13.897   1.432  11.900
47256SOL    HW143607  13.944   1.424  11.818
47256SOL    HW243608  13.966   1.438  11.967
47257SOL     OW43609   7.441   0.181   3.688
47257SOL    HW143610   7.478   0.261   3.650
47257SOL    HW243611   7.415   0.206   3.776
47258SOL     OW43612  14.527  10.051   1.820
47258SOL    HW143613  14.502  10.114   1.752
47258SOL    HW243614  14.444  10.014   1.849
47259SOL     OW43615   3.543  12.290   9.662
47259SOL    HW143616   3.477  12.259   9.725
47259SOL    HW243617   3.525  12.240   9.582
47260SOL     OW43618   4.758   3.431   3.460
47260SOL    HW143619   4.790   3.483   3.534
47260SOL    HW243620   4.730   3.348   3.500
47261SOL     OW43621  12.574   6.564   1.646
47261SOL    HW143622  12.513   6.522   1.706
47261SOL    HW243623  12.525   6.638   1.610
47262SOL     OW43624  14.048   7.739  13.209
47262SOL    HW143625  14.065   7.661  13.261
47262SOL    HW243626  14.031   7.808  13.273
47263SOL     OW43627   6.366  12.199  12.702
47263SOL    HW143628   6.386  12.106  12.698
47263SOL    HW243629   6.413  12.230  12.780
47264SOL     OW43630   3.665   8.009   6.742
47264SOL    HW143631   3.644   7.982   6.652
47264SOL    HW243632   3.747   8.057   6.734
47265SOL     OW43633  13.554   3.298  12.565
47265SOL    HW143634  13.469   3.256  12.576
47265SOL    HW243635  13.534   3.386  12.533
47266SOL     OW43636  13.879   6.298   2.758
47266SOL    HW143637  13.963   6.343   2.752
47266SOL    HW243638  13.900   6.205   2.758
47267SOL     OW43639   6.174   5.854   8.534
47267SOL    HW143640   6.163   5.891   8.447
47267SOL    HW243641   6.107   5.785   8.540
47268SOL     OW43642   4.602  12.034   6.629
47268SOL    HW143643   4.609  12.014   6.723
47268SOL    HW243644   4.688  12.070   6.607
47269SOL     OW43645  12.061  10.648  14.417
47269SOL    HW143646  12.059  10.679  14.327
47269SOL    HW243647  12.147  10.676  14.450
47270SOL     OW43648   6.173   0.464   8.597
47270SOL    HW143649   6.097   0.480   8.652
47270SOL    HW243650   6.224   0.398   8.644
47271SOL     OW43651  12.059  11.834   6.395
47271SOL    HW143652  12.003  11.881   6.457
47271SOL    HW243653  12.144  11.877   6.403
47272SOL     OW43654   6.915   5.706   6.635
47272SOL    HW143655   6.947   5.777   6.691
47272SOL    HW243656   6.953   5.726   6.549
47273SOL     OW43657   5.781   8.531   8.575
47273SOL    HW143658   5.796   8.493   8.662
47273SOL    HW243659   5.856   8.502   8.523
47274SOL     OW43660  11.971   3.253   4.175
47274SOL    HW143661  11.885   3.265   4.214
47274SOL    HW243662  11.956   3.261   4.081
47275SOL     OW43663   1.933   3.201   9.101
47275SOL    HW143664   1.945   3.210   9.007
47275SOL    HW243665   1.916   3.289   9.132
47276SOL     OW43666   4.779  13.705  12.098
47276SOL    HW143667   4.868  13.720  12.064
47276SOL    HW243668   4.727  13.686  12.020
47277SOL     OW43669   1.411  13.830   2.673
47277SOL    HW143670   1.438  13.776   2.747
47277SOL    HW243671   1.463  13.797   2.599
47278SOL     OW43672   4.491   8.698   5.484
47278SOL    HW143673   4.565   8.759   5.480
47278SOL    HW243674   4.438   8.730   5.556
47279SOL     OW43675   4.891   1.316   5.482
47279SOL    HW143676   4.866   1.391   5.427
47279SOL    HW243677   4.970   1.282   5.441
47280SOL     OW43678   8.779   2.142   6.781
47280SOL    HW143679   8.738   2.162   6.697
47280SOL    HW243680   8.712   2.094   6.830
47281SOL     OW43681  13.827   7.940   7.092
47281SOL    HW143682  13.794   7.937   7.181
47281SOL    HW243683  13.808   8.029   7.062
47282SOL     OW43684  12.364   8.033  14.730
47282SOL    HW143685  12.335   8.110  14.779
47282SOL    HW243686  12.450   8.056  14.698
47283SOL     OW43687   5.922   4.737  11.078
47283SOL    HW143688   5.955   4.771  10.995
47283SOL    HW243689   5.963   4.792  11.145
47284SOL     OW43690  13.201   4.042   3.379
47284SOL    HW143691  13.240   3.954   3.373
47284SOL    HW243692  13.108   4.028   3.357
47285SOL     OW43693   2.528   8.007   8.716
47285SOL    HW143694   2.581   7.958   8.653
47285SOL    HW243695   2.592   8.041   8.779
47286SOL     OW43696  11.211   9.918   2.467
47286SOL    HW143697  11.211   9.879   2.379
47286SOL    HW243698  11.289   9.883   2.509
47287SOL     OW43699   1.957   4.654   9.458
47287SOL    HW143700   1.905   4.734   9.450
47287SOL    HW243701   1.933   4.602   9.381
47288SOL     OW43702   0.892   5.340   6.359
47288SOL    HW143703   0.983   5.326   6.383
47288SOL    HW243704   0.889   5.427   6.320
47289SOL     OW43705   8.441   2.134   8.454
47289SOL    HW143706   8.469   2.104   8.541
47289SOL    HW243707   8.449   2.229   8.459
47290SOL     OW43708   0.528   5.033  12.808
47290SOL    HW143709   0.443   5.008  12.844
47290SOL    HW243710   0.583   5.048  12.885
47291SOL     OW43711   2.777   0.310  10.199
47291SOL    HW143712   2.769   0.390  10.148
47291SOL    HW243713   2.812   0.246  10.137
47292SOL     OW43714  14.167   1.013   0.561
47292SOL    HW143715  14.108   1.075   0.517
47292SOL    HW243716  14.236   1.068   0.598
47293SOL     OW43717   2.980  10.243   0.494
47293SOL    HW143718   2.987  10.325   0.542
47293SOL    HW243719   2.939  10.267   0.411
47294SOL     OW43720  10.288   8.273   4.174
47294SOL    HW143721  10.367   8.236   4.136
47294SOL    HW243722  10.239   8.197   4.205
47295SOL     OW43723   3.335  11.699   0.428
47295SOL    HW143724   3.419  11.742   0.439
47295SOL    HW243725   3.338  11.660   0.341
47296SOL     OW43726   0.760   5.398   5.162
47296SOL    HW143727   0.805   5.437   5.087
47296SOL    HW243728   0.828   5.385   5.227
47297SOL     OW43729   6.030  11.230  10.084
47297SOL    HW143730   6.033  11.157  10.021
47297SOL    HW243731   6.099  11.209  10.147
47298SOL     OW43732   6.392   4.929   0.816
47298SOL    HW143733   6.455   4.858   0.801
47298SOL    HW243734   6.424   4.974   0.894
47299SOL     OW43735   6.028   7.841   2.113
47299SOL    HW143736   6.008   7.785   2.187
47299SOL    HW243737   6.054   7.924   2.151
47300SOL     OW43738   4.273   0.436   2.202
47300SOL    HW143739   4.193   0.487   2.188
47300SOL    HW243740   4.283   0.384   2.122
47301SOL     OW43741  13.142  13.899  12.388
47301SOL    HW143742  13.085  13.962  12.432
47301SOL    HW243743  13.143  13.928  12.297
47302SOL     OW43744  14.041  12.702   4.709
47302SOL    HW143745  14.079  12.736   4.790
47302SOL    HW243746  14.020  12.779   4.657
47303SOL     OW43747  12.931   5.779   0.151
47303SOL    HW143748  13.020   5.812   0.165
47303SOL    HW243749  12.944   5.696   0.105
47304SOL     OW43750   3.795  12.380  13.811
47304SOL    HW143751   3.774  12.294  13.847
47304SOL    HW243752   3.776  12.373  13.718
47305SOL     OW43753  13.632  13.622  12.232
47305SOL    HW143754  13.674  13.639  12.148
47305SOL    HW243755  13.703  13.590  12.288
47306SOL     OW43756  11.012   4.543   6.395
47306SOL    HW143757  11.069   4.503   6.460
47306SOL    HW243758  11.019   4.487   6.318
47307SOL     OW43759   2.677  11.454  11.215
47307SOL    HW143760   2.666  11.359  11.212
47307SOL    HW243761   2.708  11.477  11.127
47308SOL     OW43762   2.563  12.791   2.206
47308SOL    HW143763   2.607  12.819   2.126
47308SOL    HW243764   2.635  12.768   2.265
47309SOL     OW43765   7.267   3.204   1.256
47309SOL    HW143766   7.225   3.262   1.192
47309SOL    HW243767   7.195   3.151   1.291
47310SOL     OW43768   4.716   4.895   2.181
47310SOL    HW143769   4.650   4.846   2.231
47310SOL    HW243770   4.725   4.845   2.099
47311SOL     OW43771   9.682  13.618   8.494
47311SOL    HW143772   9.773  13.644   8.490
47311SOL    HW243773   9.670  13.585   8.584
47312SOL     OW43774   7.738   2.254   6.582
47312SOL    HW143775   7.708   2.294   6.500
47312SOL    HW243776   7.704   2.165   6.578
47313SOL     OW43777   3.180   9.283  10.296
47313SOL    HW143778   3.249   9.253  10.236
47313SOL    HW243779   3.177   9.214  10.363
47314SOL     OW43780   1.647   7.924   8.359
47314SOL    HW143781   1.567   7.911   8.307
47314SOL    HW243782   1.635   7.869   8.435
47315SOL     OW43783   2.690   1.465  14.101
47315SOL    HW143784   2.687   1.513  14.184
47315SOL    HW243785   2.599   1.441  14.084
47316SOL     OW43786  11.409  10.946  12.510
47316SOL    HW143787  11.499  10.919  12.497
47316SOL    HW243788  11.370  10.944  12.423
47317SOL     OW43789   7.562   1.027   3.916
47317SOL    HW143790   7.599   0.942   3.893
47317SOL    HW243791   7.552   1.073   3.833
47318SOL     OW43792   4.179  10.194   3.244
47318SOL    HW143793   4.169  10.265   3.180
47318SOL    HW243794   4.256  10.218   3.295
47319SOL     OW43795   3.786   4.275   3.428
47319SOL    HW143796   3.791   4.180   3.436
47319SOL    HW243797   3.713   4.300   3.485
47320SOL     OW43798   4.444   0.163   4.907
47320SOL    HW143799   4.352   0.143   4.888
47320SOL    HW243800   4.444   0.191   4.998
47321SOL     OW43801   4.607   4.818   1.530
47321SOL    HW143802   4.662   4.850   1.458
47321SOL    HW243803   4.628   4.875   1.603
47322SOL     OW43804   0.730  13.418   6.901
47322SOL    HW143805   0.795  13.361   6.860
47322SOL    HW243806   0.664  13.359   6.937
47323SOL     OW43807   8.085  12.880   2.566
47323SOL    HW143808   7.993  12.888   2.542
47323SOL    HW243809   8.089  12.801   2.621
47324SOL     OW43810  12.663   5.027   4.009
47324SOL    HW143811  12.625   5.011   3.923
47324SOL    HW243812  12.606   4.980   4.070
47325SOL     OW43813   1.917   2.581  11.799
47325SOL    HW143814   1.893   2.519  11.730
47325SOL    HW243815   1.843   2.578  11.861
47326SOL     OW43816   9.532   4.162   7.690
47326SOL    HW143817   9.585   4.082   7.687
47326SOL    HW243818   9.458   4.140   7.746
47327SOL     OW43819  10.250   4.076   5.152
47327SOL    HW143820  10.188   4.138   5.190
47327SOL    HW243821  10.326   4.079   5.210
47328SOL     OW43822  14.127  11.640   5.485
47328SOL    HW143823  14.102  11.684   5.567
47328SOL    HW243824  14.153  11.552   5.513
47329SOL     OW43825   3.757  10.725  12.529
47329SOL    HW143826   3.733  10.652  12.472
47329SOL    HW243827   3.774  10.798  12.469
47330SOL     OW43828  12.302   1.960   3.606
47330SOL    HW143829  12.388   1.964   3.565
47330SOL    HW243830  12.279   2.051   3.624
47331SOL     OW43831   0.612   2.724  11.354
47331SOL    HW143832   0.555   2.685  11.288
47331SOL    HW243833   0.558   2.793  11.394
47332SOL     OW43834  13.337   1.394   0.657
47332SOL    HW143835  13.335   1.395   0.561
47332SOL    HW243836  13.260   1.445   0.683
47333SOL     OW43837   1.830  14.492  11.645
47333SOL    HW143838   1.742  14.462  11.670
47333SOL    HW243839   1.839  14.467  11.553
47334SOL     OW43840   1.493   7.340   2.405
47334SOL    HW143841   1.548   7.325   2.328
47334SOL    HW243842   1.405   7.316   2.377
47335SOL     OW43843   5.604   1.708   5.178
47335SOL    HW143844   5.671   1.681   5.115
47335SOL    HW243845   5.535   1.642   5.169
47336SOL     OW43846  10.777   4.797  10.633
47336SOL    HW143847  10.866   4.828  10.616
47336SOL    HW243848  10.722   4.873  10.613
47337SOL     OW43849   0.422   3.944   2.396
47337SOL    HW143850   0.348   3.970   2.451
47337SOL    HW243851   0.486   3.907   2.457
47338SOL     OW43852   1.929  12.023  11.242
47338SOL    HW143853   1.838  12.051  11.255
47338SOL    HW243854   1.921  11.936  11.203
47339SOL     OW43855  11.783   3.583  11.398
47339SOL    HW143856  11.705   3.550  11.353
47339SOL    HW243857  11.831   3.504  11.422
47340SOL     OW43858  11.330  10.300  11.100
47340SOL    HW143859  11.363  10.227  11.048
47340SOL    HW243860  11.312  10.262  11.186
47341SOL     OW43861   9.595   8.775  12.493
47341SOL    HW143862   9.683   8.813  12.493
47341SOL    HW243863   9.557   8.801  12.577
47342SOL     OW43864   0.065   3.256   7.637
47342SOL    HW143865   0.076   3.247   7.542
47342SOL    HW243866   0.150   3.289   7.668
47343SOL     OW43867   7.138  10.538   1.672
47343SOL    HW143868   7.157  10.500   1.586
47343SOL    HW243869   7.101  10.465   1.722
47344SOL     OW43870   8.120   1.173   2.283
47344SOL    HW143871   8.090   1.153   2.194
47344SOL    HW243872   8.144   1.087   2.319
47345SOL     OW43873   0.602   5.936  13.297
47345SOL    HW143874   0.644   5.905  13.217
47345SOL    HW243875   0.539   6.002  13.267
47346SOL     OW43876   9.966   0.432   1.358
47346SOL    HW143877   9.925   0.517   1.379
47346SOL    HW243878  10.052   0.436   1.401
47347SOL     OW43879   9.513   9.353  11.437
47347SOL    HW143880   9.534   9.276  11.490
47347SOL    HW243881   9.462   9.318  11.363
47348SOL     OW43882  10.626   8.796   6.533
47348SOL    HW143883  10.717   8.824   6.525
47348SOL    HW243884  10.612   8.784   6.627
47349SOL     OW43885   5.685   5.946   9.092
47349SOL    HW143886   5.692   5.862   9.045
47349SOL    HW243887   5.774   5.964   9.122
47350SOL     OW43888   8.554   8.495  12.128
47350SOL    HW143889   8.621   8.444  12.173
47350SOL    HW243890   8.495   8.430  12.091
47351SOL     OW43891   3.109   6.871  12.439
47351SOL    HW143892   3.103   6.892  12.532
47351SOL    HW243893   3.149   6.784  12.436
47352SOL     OW43894   1.474   7.150   5.349
47352SOL    HW143895   1.559   7.109   5.331
47352SOL    HW243896   1.450   7.118   5.436
47353SOL     OW43897  13.550  14.758   1.396
47353SOL    HW143898  13.488  14.780   1.466
47353SOL    HW243899  13.523  14.813   1.322
47354SOL     OW43900   6.670   3.166   4.244
47354SOL    HW143901   6.744   3.216   4.277
47354SOL    HW243902   6.707   3.081   4.221
47355SOL     OW43903   4.690  11.279   5.685
47355SOL    HW143904   4.754  11.283   5.756
47355SOL    HW243905   4.742  11.252   5.608
47356SOL     OW43906  12.246   6.112  11.344
47356SOL    HW143907  12.207   6.087  11.261
47356SOL    HW243908  12.340   6.098  11.332
47357SOL     OW43909   3.478   3.706  13.474
47357SOL    HW143910   3.499   3.628  13.525
47357SOL    HW243911   3.524   3.777  13.520
47358SOL     OW43912  12.460   7.922   6.772
47358SOL    HW143913  12.522   7.850   6.763
47358SOL    HW243914  12.512   7.994   6.808
47359SOL     OW43915   4.049   1.895   7.211
47359SOL    HW143916   4.056   1.828   7.144
47359SOL    HW243917   4.110   1.868   7.280
47360SOL     OW43918   2.856   2.048   4.485
47360SOL    HW143919   2.771   2.055   4.442
47360SOL    HW243920   2.875   2.137   4.516
47361SOL     OW43921   6.912  11.010   8.114
47361SOL    HW143922   6.822  10.982   8.101
47361SOL    HW243923   6.962  10.958   8.051
47362SOL     OW43924  11.227  10.297  14.475
47362SOL    HW143925  11.135  10.281  14.497
47362SOL    HW243926  11.271  10.214  14.497
47363SOL     OW43927  12.167  12.007   9.912
47363SOL    HW143928  12.165  11.923   9.959
47363SOL    HW243929  12.199  12.070   9.976
47364SOL     OW43930   9.837  12.589  13.011
47364SOL    HW143931   9.901  12.523  12.983
47364SOL    HW243932   9.752  12.551  12.987
47365SOL     OW43933  10.605  12.685   8.279
47365SOL    HW143934  10.661  12.761   8.267
47365SOL    HW243935  10.611  12.637   8.196
47366SOL     OW43936  14.163   4.862  12.084
47366SOL    HW143937  14.182   4.778  12.043
47366SOL    HW243938  14.238   4.917  12.061
47367SOL     OW43939   7.412   6.615  14.390
47367SOL    HW143940   7.399   6.526  14.422
47367SOL    HW243941   7.361   6.619  14.309
47368SOL     OW43942  11.773   9.043  11.046
47368SOL    HW143943  11.718   8.990  10.989
47368SOL    HW243944  11.770   8.998  11.130
47369SOL     OW43945   0.338   9.892   3.718
47369SOL    HW143946   0.363   9.982   3.741
47369SOL    HW243947   0.334   9.846   3.802
47370SOL     OW43948  11.025   9.994  13.449
47370SOL    HW143949  10.994   9.908  13.421
47370SOL    HW243950  10.985  10.055  13.386
47371SOL     OW43951   4.794   1.037  12.227
47371SOL    HW143952   4.868   1.063  12.172
47371SOL    HW243953   4.738   0.987  12.167
47372SOL     OW43954  14.564  11.702   6.457
47372SOL    HW143955  14.503  11.629   6.444
47372SOL    HW243956  14.630  11.668   6.517
47373SOL     OW43957   7.897   9.354  12.771
47373SOL    HW143958   7.836   9.301  12.822
47373SOL    HW243959   7.843   9.393  12.702
47374SOL     OW43960  12.416   7.183  11.566
47374SOL    HW143961  12.456   7.096  11.571
47374SOL    HW243962  12.350   7.175  11.496
47375SOL     OW43963   3.013  11.121  10.040
47375SOL    HW143964   2.996  11.212  10.067
47375SOL    HW243965   3.082  11.129   9.974
47376SOL     OW43966  10.799   1.277  11.942
47376SOL    HW143967  10.840   1.191  11.952
47376SOL    HW243968  10.752   1.291  12.024
47377SOL     OW43969   3.626  14.086  13.090
47377SOL    HW143970   3.574  14.163  13.065
47377SOL    HW243971   3.576  14.012  13.056
47378SOL     OW43972  10.230   5.820   7.541
47378SOL    HW143973  10.264   5.908   7.553
47378SOL    HW243974  10.158   5.812   7.604
47379SOL     OW43975   5.891   1.806  10.940
47379SOL    HW143976   5.903   1.727  10.887
47379SOL    HW243977   5.960   1.865  10.910
47380SOL     OW43978   5.970  11.113   7.472
47380SOL    HW143979   5.954  11.053   7.545
47380SOL    HW243980   6.034  11.067   7.417
47381SOL     OW43981   1.983  14.324   0.568
47381SOL    HW143982   1.979  14.315   0.663
47381SOL    HW243983   1.997  14.418   0.553
47382SOL     OW43984   6.585   4.735   0.770
47382SOL    HW143985   6.657   4.745   0.833
47382SOL    HW243986   6.621   4.771   0.688
47383SOL     OW43987   7.529   6.156  12.835
47383SOL    HW143988   7.512   6.124  12.923
47383SOL    HW243989   7.443   6.152  12.792
47384SOL     OW43990   1.306   1.315   8.951
47384SOL    HW143991   1.273   1.252   9.015
47384SOL    HW243992   1.365   1.263   8.896
47385SOL     OW43993   2.356  14.363  12.587
47385SOL    HW143994   2.420  14.387  12.654
47385SOL    HW243995   2.375  14.271  12.567
47386SOL     OW43996   3.527   8.750  14.213
47386SOL    HW143997   3.552   8.783  14.127
47386SOL    HW243998   3.583   8.674  14.227
47387SOL     OW43999  12.504   8.711   0.089
47387SOL    HW144000  12.453   8.778   0.043
47387SOL    HW244001  12.497   8.735   0.182
47388SOL     OW44002   3.305  10.300   3.239
47388SOL    HW144003   3.229  10.353   3.216
47388SOL    HW244004   3.333  10.260   3.156
47389SOL     OW44005  12.906  13.923   0.235
47389SOL    HW144006  12.997  13.895   0.251
47389SOL    HW244007  12.898  14.005   0.284
47390SOL     OW44008  14.127   7.366   9.861
47390SOL    HW144009  14.032   7.374   9.864
47390SOL    HW244010  14.152   7.343   9.950
47391SOL     OW44011   7.944   0.733   4.141
47391SOL    HW144012   8.023   0.752   4.193
47391SOL    HW244013   7.976   0.724   4.051
47392SOL     OW44014   4.705  12.005   0.665
47392SOL    HW144015   4.647  11.997   0.741
47392SOL    HW244016   4.743  12.093   0.672
47393SOL     OW44017  12.821  14.383   8.827
47393SOL    HW144018  12.813  14.400   8.921
47393SOL    HW244019  12.735  14.407   8.791
47394SOL     OW44020   4.473  13.449   7.716
47394SOL    HW144021   4.445  13.405   7.796
47394SOL    HW244022   4.534  13.516   7.745
47395SOL     OW44023   1.151   9.114   3.302
47395SOL    HW144024   1.090   9.096   3.373
47395SOL    HW244025   1.190   9.028   3.282
47396SOL     OW44026   9.348  13.563   0.184
47396SOL    HW144027   9.272  13.575   0.128
47396SOL    HW244028   9.312  13.561   0.273
47397SOL     OW44029   8.329   5.101   5.119
47397SOL    HW144030   8.382   5.092   5.198
47397SOL    HW244031   8.293   5.013   5.104
47398SOL     OW44032   0.329  10.017  11.790
47398SOL    HW144033   0.370   9.973  11.864
47398SOL    HW244034   0.257  10.066  11.828
47399SOL     OW44035  13.896  11.097  13.686
47399SOL    HW144036  13.843  11.018  13.696
47399SOL    HW244037  13.979  11.065  13.651
47400SOL     OW44038  12.563   3.818  12.363
47400SOL    HW144039  12.477   3.860  12.357
47400SOL    HW244040  12.551   3.733  12.319
47401SOL     OW44041   8.493   8.701  11.914
47401SOL    HW144042   8.406   8.673  11.886
47401SOL    HW244043   8.504   8.659  11.999
47402SOL     OW44044   8.447  11.759   0.515
47402SOL    HW144045   8.441  11.727   0.605
47402SOL    HW244046   8.526  11.718   0.480
47403SOL     OW44047  14.286  11.670   6.691
47403SOL    HW144048  14.262  11.602   6.754
47403SOL    HW244049  14.350  11.724   6.738
47404SOL     OW44050   6.059  13.808  11.743
47404SOL    HW144051   6.101  13.721  11.740
47404SOL    HW244052   6.099  13.855  11.669
47405SOL     OW44053   0.854   6.352  12.307
47405SOL    HW144054   0.875   6.342  12.400
47405SOL    HW244055   0.854   6.446  12.292
47406SOL     OW44056  13.615   1.456   6.015
47406SOL    HW144057  13.637   1.496   5.931
47406SOL    HW244058  13.523   1.479   6.029
47407SOL     OW44059  10.494   3.145  14.104
47407SOL    HW144060  10.561   3.080  14.082
47407SOL    HW244061  10.412   3.106  14.075
47408SOL     OW44062   7.845   4.117   3.082
47408SOL    HW144063   7.926   4.169   3.087
47408SOL    HW244064   7.792   4.148   3.155
47409SOL     OW44065   8.994   4.658   3.310
47409SOL    HW144066   9.009   4.597   3.238
47409SOL    HW244067   8.955   4.735   3.268
47410SOL     OW44068   7.157   0.637  14.483
47410SOL    HW144069   7.155   0.554  14.531
47410SOL    HW244070   7.242   0.637  14.439
47411SOL     OW44071   1.907   5.658   0.179
47411SOL    HW144072   1.876   5.617   0.098
47411SOL    HW244073   1.844   5.631   0.246
47412SOL     OW44074   1.326   2.100  11.666
47412SOL    HW144075   1.375   2.021  11.646
47412SOL    HW244076   1.235   2.078  11.642
47413SOL     OW44077  11.784   0.156   0.265
47413SOL    HW144078  11.843   0.218   0.221
47413SOL    HW244079  11.712   0.145   0.203
47414SOL     OW44080   9.759   2.289   7.671
47414SOL    HW144081   9.755   2.304   7.576
47414SOL    HW244082   9.712   2.207   7.683
47415SOL     OW44083   6.915   9.245   1.005
47415SOL    HW144084   6.949   9.167   1.049
47415SOL    HW244085   6.932   9.228   0.912
47416SOL     OW44086   0.482   9.709   0.076
47416SOL    HW144087   0.559   9.716   0.132
47416SOL    HW244088   0.408   9.726   0.135
47417SOL     OW44089   9.421   4.606   9.978
47417SOL    HW144090   9.498   4.552   9.962
47417SOL    HW244091   9.357   4.577   9.913
47418SOL     OW44092   0.200   9.084   3.554
47418SOL    HW144093   0.288   9.067   3.519
47418SOL    HW244094   0.165   8.997   3.573
47419SOL     OW44095   9.266   1.984   4.807
47419SOL    HW144096   9.244   2.076   4.816
47419SOL    HW244097   9.276   1.953   4.897
47420SOL     OW44098   5.944  13.111   3.521
47420SOL    HW144099   5.978  13.076   3.603
47420SOL    HW244100   5.947  13.206   3.532
47421SOL     OW44101  13.790   5.059  12.624
47421SOL    HW144102  13.747   4.973  12.615
47421SOL    HW244103  13.781   5.080  12.717
47422SOL     OW44104   5.956  14.776  13.411
47422SOL    HW144105   6.037  14.726  13.403
47422SOL    HW244106   5.887  14.712  13.396
47423SOL     OW44107   9.937   9.589   5.420
47423SOL    HW144108   9.869   9.601   5.354
47423SOL    HW244109  10.017   9.578   5.369
47424SOL     OW44110  10.663  10.209  12.933
47424SOL    HW144111  10.571  10.233  12.931
47424SOL    HW244112  10.706  10.280  12.981
47425SOL     OW44113   5.572   0.188   0.902
47425SOL    HW144114   5.575   0.262   0.842
47425SOL    HW244115   5.649   0.136   0.881
47426SOL     OW44116  14.430   9.404   8.575
47426SOL    HW144117  14.396   9.398   8.486
47426SOL    HW244118  14.494   9.333   8.581
47427SOL     OW44119   5.454  14.690   6.544
47427SOL    HW144120   5.446  14.746   6.621
47427SOL    HW244121   5.547  14.692   6.523
47428SOL     OW44122  10.815  10.687   7.070
47428SOL    HW144123  10.874  10.653   7.138
47428SOL    HW244124  10.748  10.620   7.061
47429SOL     OW44125  13.355   6.070   8.089
47429SOL    HW144126  13.445   6.100   8.076
47429SOL    HW244127  13.304   6.151   8.099
47430SOL     OW44128   2.509   5.019   2.044
47430SOL    HW144129   2.554   4.996   2.126
47430SOL    HW244130   2.453   5.093   2.067
47431SOL     OW44131   3.091  11.373  14.040
47431SOL    HW144132   3.089  11.277  14.044
47431SOL    HW244133   3.133  11.392  13.956
47432SOL     OW44134  14.682   3.961   0.031
47432SOL    HW144135  14.670   3.970   0.125
47432SOL    HW244136  14.741   3.887   0.020
47433SOL     OW44137  12.554  13.495   0.103
47433SOL    HW144138  12.540  13.403   0.079
47433SOL    HW244139  12.561  13.540   0.019
47434SOL     OW44140   9.464  11.400  14.458
47434SOL    HW144141   9.450  11.359  14.373
47434SOL    HW244142   9.385  11.452  14.474
47435SOL     OW44143   0.785   2.769   0.499
47435SOL    HW144144   0.791   2.797   0.590
47435SOL    HW244145   0.718   2.701   0.499
47436SOL     OW44146  13.681   8.245  14.277
47436SOL    HW144147  13.764   8.229  14.231
47436SOL    HW244148  13.693   8.203  14.362
47437SOL     OW44149   6.184   4.283   7.068
47437SOL    HW144150   6.225   4.323   7.144
47437SOL    HW244151   6.158   4.356   7.012
47438SOL     OW44152   6.686  14.813  12.092
47438SOL    HW144153   6.628   0.010  12.061
47438SOL    HW244154   6.771  14.855  12.100
47439SOL     OW44155  12.601  14.171   1.894
47439SOL    HW144156  12.606  14.266   1.889
47439SOL    HW244157  12.647  14.140   1.816
47440SOL     OW44158   2.315   3.904  11.451
47440SOL    HW144159   2.313   3.899  11.355
47440SOL    HW244160   2.353   3.990  11.470
47441SOL     OW44161   8.835   2.369   0.997
47441SOL    HW144162   8.744   2.386   1.019
47441SOL    HW244163   8.835   2.356   0.902
47442SOL     OW44164  14.022   0.074  11.359
47442SOL    HW144165  13.968   0.052  11.283
47442SOL    HW244166  14.111   0.080  11.324
47443SOL     OW44167   0.892   6.335   0.319
47443SOL    HW144168   0.951   6.409   0.306
47443SOL    HW244169   0.945   6.258   0.298
47444SOL     OW44170   4.604  11.061  13.083
47444SOL    HW144171   4.673  11.017  13.133
47444SOL    HW244172   4.651  11.114  13.019
47445SOL     OW44173  12.235   6.389   4.227
47445SOL    HW144174  12.164   6.366   4.287
47445SOL    HW244175  12.194   6.385   4.140
47446SOL     OW44176   1.607   0.397  14.214
47446SOL    HW144177   1.641   0.361  14.296
47446SOL    HW244178   1.514   0.377  14.216
47447SOL     OW44179   0.541   8.655   7.468
47447SOL    HW144180   0.578   8.727   7.519
47447SOL    HW244181   0.521   8.694   7.382
47448SOL     OW44182   6.244  11.730   1.002
47448SOL    HW144183   6.164  11.766   1.041
47448SOL    HW244184   6.313  11.789   1.031
47449SOL     OW44185   4.817   1.053   5.576
47449SOL    HW144186   4.816   1.142   5.541
47449SOL    HW244187   4.820   0.997   5.499
47450SOL     OW44188   8.205   0.112  10.017
47450SOL    HW144189   8.131   0.088   9.962
47450SOL    HW244190   8.275   0.052   9.992
47451SOL     OW44191   6.990   5.157   3.727
47451SOL    HW144192   6.922   5.215   3.693
47451SOL    HW244193   6.959   5.133   3.814
47452SOL     OW44194   5.911   2.792   8.041
47452SOL    HW144195   5.821   2.804   8.071
47452SOL    HW244196   5.907   2.721   7.977
47453SOL     OW44197   7.287   1.829   9.977
47453SOL    HW144198   7.282   1.772   9.900
47453SOL    HW244199   7.286   1.768  10.051
47454SOL     OW44200  13.245   5.240   0.924
47454SOL    HW144201  13.320   5.298   0.912
47454SOL    HW244202  13.182   5.269   0.859
47455SOL     OW44203  13.712   0.869   3.536
47455SOL    HW144204  13.782   0.820   3.578
47455SOL    HW244205  13.713   0.840   3.445
47456SOL     OW44206   9.278  14.485   4.562
47456SOL    HW144207   9.192  14.514   4.595
47456SOL    HW244208   9.276  14.506   4.469
47457SOL     OW44209   3.761   1.828   6.288
47457SOL    HW144210   3.706   1.755   6.258
47457SOL    HW244211   3.826   1.839   6.218
47458SOL     OW44212   1.134   5.836  14.103
47458SOL    HW144213   1.083   5.903  14.150
47458SOL    HW244214   1.194   5.886  14.047
47459SOL     OW44215   5.451   2.913   4.300
47459SOL    HW144216   5.366   2.881   4.269
47459SOL    HW244217   5.429   2.972   4.372
47460SOL     OW44218   1.390   9.972  11.196
47460SOL    HW144219   1.371   9.993  11.104
47460SOL    HW244220   1.421  10.055  11.233
47461SOL     OW44221   5.512  11.502   2.368
47461SOL    HW144222   5.427  11.531   2.335
47461SOL    HW244223   5.499  11.493   2.463
47462SOL     OW44224  11.740   8.099   2.678
47462SOL    HW144225  11.676   8.154   2.722
47462SOL    HW244226  11.690   8.025   2.643
47463SOL     OW44227   1.793  13.608   6.285
47463SOL    HW144228   1.737  13.605   6.362
47463SOL    HW244229   1.861  13.542   6.300
47464SOL     OW44230  12.377   9.109   4.064
47464SOL    HW144231  12.357   9.165   4.139
47464SOL    HW244232  12.324   9.146   3.993
47465SOL     OW44233  13.283  11.840   7.375
47465SOL    HW144234  13.311  11.859   7.465
47465SOL    HW244235  13.202  11.891   7.364
47466SOL     OW44236   1.270   9.078   6.932
47466SOL    HW144237   1.176   9.088   6.921
47466SOL    HW244238   1.293   9.141   7.001
47467SOL     OW44239   6.615   7.650  14.512
47467SOL    HW144240   6.686   7.633  14.450
47467SOL    HW244241   6.537   7.614  14.470
47468SOL     OW44242   3.693   9.834  13.188
47468SOL    HW144243   3.681   9.844  13.093
47468SOL    HW244244   3.608   9.802  13.219
47469SOL     OW44245  13.323   4.369   9.224
47469SOL    HW144246  13.258   4.402   9.287
47469SOL    HW244247  13.398   4.427   9.234
47470SOL     OW44248   4.185   1.510  12.118
47470SOL    HW144249   4.094   1.524  12.145
47470SOL    HW244250   4.189   1.543  12.028
47471SOL     OW44251   5.868   5.578   2.870
47471SOL    HW144252   5.800   5.532   2.820
47471SOL    HW244253   5.873   5.665   2.829
47472SOL     OW44254   3.285   3.471  14.747
47472SOL    HW144255   3.356   3.460  14.811
47472SOL    HW244256   3.234   3.390  14.755
47473SOL     OW44257   1.777   7.596   9.935
47473SOL    HW144258   1.770   7.689   9.957
47473SOL    HW244259   1.869   7.583   9.911
47474SOL     OW44260   2.264   1.635   6.102
47474SOL    HW144261   2.228   1.669   6.021
47474SOL    HW244262   2.322   1.704   6.134
47475SOL     OW44263   1.134   0.220   7.882
47475SOL    HW144264   1.187   0.285   7.837
47475SOL    HW244265   1.074   0.272   7.936
47476SOL     OW44266  13.806   7.991   2.075
47476SOL    HW144267  13.816   7.965   2.166
47476SOL    HW244268  13.744   8.063   2.077
47477SOL     OW44269  10.575  11.474   7.653
47477SOL    HW144270  10.594  11.552   7.602
47477SOL    HW244271  10.546  11.508   7.738
47478SOL     OW44272   7.092  13.976  13.788
47478SOL    HW144273   7.100  14.050  13.849
47478SOL    HW244274   7.123  13.901  13.838
47479SOL     OW44275   0.286  12.341   6.825
47479SOL    HW144276   0.305  12.283   6.899
47479SOL    HW244277   0.214  12.396   6.856
47480SOL     OW44278   3.256   4.667  13.563
47480SOL    HW144279   3.178   4.715  13.592
47480SOL    HW244280   3.221   4.594  13.512
47481SOL     OW44281  13.253   4.625   9.751
47481SOL    HW144282  13.246   4.676   9.832
47481SOL    HW244283  13.165   4.624   9.715
47482SOL     OW44284   7.883   9.014   0.132
47482SOL    HW144285   7.956   8.956   0.156
47482SOL    HW244286   7.821   9.006   0.204
47483SOL     OW44287   1.159   9.511   8.392
47483SOL    HW144288   1.232   9.467   8.350
47483SOL    HW244289   1.088   9.446   8.389
47484SOL     OW44290  10.286   3.055  12.835
47484SOL    HW144291  10.192   3.062  12.815
47484SOL    HW244292  10.300   2.962  12.852
47485SOL     OW44293   6.742   1.007   9.708
47485SOL    HW144294   6.696   0.926   9.729
47485SOL    HW244295   6.824   0.978   9.669
47486SOL     OW44296  10.323   1.017   7.140
47486SOL    HW144297  10.257   1.014   7.070
47486SOL    HW244298  10.407   1.009   7.094
47487SOL     OW44299  13.635   0.908   2.012
47487SOL    HW144300  13.642   0.827   1.960
47487SOL    HW244301  13.546   0.939   1.995
47488SOL     OW44302   8.316   1.936   4.310
47488SOL    HW144303   8.224   1.960   4.296
47488SOL    HW244304   8.314   1.844   4.335
47489SOL     OW44305   6.563  10.239   3.016
47489SOL    HW144306   6.631  10.174   2.994
47489SOL    HW244307   6.609  10.322   3.018
47490SOL     OW44308   6.107   8.175   5.472
47490SOL    HW144309   6.040   8.220   5.420
47490SOL    HW244310   6.135   8.102   5.416
47491SOL     OW44311   2.452  13.873  12.056
47491SOL    HW144312   2.532  13.825  12.031
47491SOL    HW244313   2.454  13.874  12.151
47492SOL     OW44314  12.228   2.140   4.184
47492SOL    HW144315  12.310   2.190   4.173
47492SOL    HW244316  12.255   2.058   4.223
47493SOL     OW44317   5.061   2.078   0.865
47493SOL    HW144318   5.147   2.042   0.841
47493SOL    HW244319   5.001   2.004   0.854
47494SOL     OW44320   5.475   1.086  14.226
47494SOL    HW144321   5.492   1.153  14.292
47494SOL    HW244322   5.446   1.135  14.149
47495SOL     OW44323  10.527   2.279   6.411
47495SOL    HW144324  10.543   2.238   6.326
47495SOL    HW244325  10.503   2.369   6.390
47496SOL     OW44326   0.204  11.507   3.164
47496SOL    HW144327   0.200  11.567   3.089
47496SOL    HW244328   0.139  11.439   3.144
47497SOL     OW44329  12.092  14.354  11.151
47497SOL    HW144330  12.105  14.262  11.128
47497SOL    HW244331  12.169  14.376  11.203
47498SOL     OW44332   5.900   3.814  10.545
47498SOL    HW144333   5.904   3.843  10.454
47498SOL    HW244334   5.808   3.796  10.560
47499SOL     OW44335   3.710   9.083  12.283
47499SOL    HW144336   3.619   9.114  12.288
47499SOL    HW244337   3.712   9.030  12.203
47500SOL     OW44338   4.086  14.700  10.438
47500SOL    HW144339   4.034  14.638  10.489
47500SOL    HW244340   4.167  14.710  10.488
47501SOL     OW44341   4.774   6.111   9.458
47501SOL    HW144342   4.839   6.129   9.390
47501SOL    HW244343   4.803   6.030   9.498
47502SOL     OW44344   0.575   5.513  10.626
47502SOL    HW144345   0.568   5.608  10.630
47502SOL    HW244346   0.641   5.491  10.693
47503SOL     OW44347  11.493  10.718   1.023
47503SOL    HW144348  11.580  10.735   1.060
47503SOL    HW244349  11.488  10.623   1.016
47504SOL     OW44350  13.917  11.752  10.673
47504SOL    HW144351  13.886  11.669  10.709
47504SOL    HW244352  14.013  11.744  10.675
47505SOL     OW44353   1.197  10.448   9.606
47505SOL    HW144354   1.273  10.479   9.558
47505SOL    HW244355   1.158  10.381   9.550
47506SOL     OW44356  11.772  13.047  14.004
47506SOL    HW144357  11.832  12.998  13.947
47506SOL    HW244358  11.685  13.022  13.973
47507SOL     OW44359  10.532   9.514   8.690
47507SOL    HW144360  10.578   9.565   8.623
47507SOL    HW244361  10.465   9.465   8.642
47508SOL     OW44362   4.373  12.191  11.115
47508SOL    HW144363   4.439  12.138  11.159
47508SOL    HW244364   4.289  12.150  11.139
47509SOL     OW44365   4.850  10.187   6.972
47509SOL    HW144366   4.869  10.281   6.975
47509SOL    HW244367   4.886  10.158   6.888
47510SOL     OW44368  10.650   7.449   8.086
47510SOL    HW144369  10.642   7.484   7.998
47510SOL    HW244370  10.560   7.441   8.118
47511SOL     OW44371  11.258   3.479  12.529
47511SOL    HW144372  11.329   3.441  12.476
47511SOL    HW244373  11.236   3.560  12.483
47512SOL     OW44374   1.850  12.784   6.794
47512SOL    HW144375   1.926  12.756   6.846
47512SOL    HW244376   1.810  12.853   6.847
47513SOL     OW44377  13.012  12.496   1.231
47513SOL    HW144378  13.058  12.574   1.263
47513SOL    HW244379  13.006  12.438   1.307
47514SOL     OW44380  14.481  14.827   0.065
47514SOL    HW144381  14.422   0.020   0.030
47514SOL    HW244382  14.437  14.796   0.144
47515SOL     OW44383   9.888   9.786   6.682
47515SOL    HW144384   9.896   9.695   6.710
47515SOL    HW244385   9.886   9.781   6.587
47516SOL     OW44386  11.379   6.802   8.824
47516SOL    HW144387  11.394   6.884   8.872
47516SOL    HW244388  11.285   6.800   8.810
47517SOL     OW44389  11.747   9.976   0.874
47517SOL    HW144390  11.828   9.931   0.898
47517SOL    HW244391  11.748   9.979   0.778
47518SOL     OW44392   7.418   7.621   8.825
47518SOL    HW144393   7.363   7.571   8.886
47518SOL    HW244394   7.470   7.678   8.881
47519SOL     OW44395   6.663   0.814  10.105
47519SOL    HW144396   6.654   0.800  10.011
47519SOL    HW244397   6.752   0.786  10.125
47520SOL     OW44398   7.361   6.325  13.516
47520SOL    HW144399   7.271   6.352  13.499
47520SOL    HW244400   7.374   6.248  13.461
47521SOL     OW44401   9.484   4.391  11.489
47521SOL    HW144402   9.481   4.295  11.493
47521SOL    HW244403   9.557   4.414  11.547
47522SOL     OW44404  10.504  12.650   1.841
47522SOL    HW144405  10.454  12.694   1.909
47522SOL    HW244406  10.448  12.655   1.763
47523SOL     OW44407  14.351   1.113   3.100
47523SOL    HW144408  14.370   1.036   3.153
47523SOL    HW244409  14.295   1.167   3.156
47524SOL     OW44410   6.828  11.655   7.574
47524SOL    HW144411   6.736  11.681   7.572
47524SOL    HW244412   6.872  11.724   7.624
47525SOL     OW44413   1.969   2.838   3.952
47525SOL    HW144414   1.923   2.781   4.014
47525SOL    HW244415   1.901   2.867   3.891
47526SOL     OW44416  13.344  10.289  11.333
47526SOL    HW144417  13.354  10.366  11.278
47526SOL    HW244418  13.286  10.317  11.404
47527SOL     OW44419   8.040  12.053   5.751
47527SOL    HW144420   8.086  12.042   5.668
47527SOL    HW244421   8.080  11.989   5.810
47528SOL     OW44422   4.308  12.647   4.540
47528SOL    HW144423   4.388  12.620   4.495
47528SOL    HW244424   4.271  12.565   4.574
47529SOL     OW44425  13.530   8.515  14.505
47529SOL    HW144426  13.516   8.444  14.567
47529SOL    HW244427  13.617   8.499  14.469
47530SOL     OW44428   8.453  12.524   7.155
47530SOL    HW144429   8.507  12.566   7.221
47530SOL    HW244430   8.451  12.585   7.082
47531SOL     OW44431   6.266   1.584   5.279
47531SOL    HW144432   6.275   1.621   5.367
47531SOL    HW244433   6.173   1.593   5.259
47532SOL     OW44434   1.820   2.720  13.310
47532SOL    HW144435   1.831   2.815  13.309
47532SOL    HW244436   1.792   2.700  13.400
47533SOL     OW44437   8.644   1.867   2.190
47533SOL    HW144438   8.552   1.840   2.180
47533SOL    HW244439   8.694   1.792   2.156
47534SOL     OW44440   7.056  10.892   7.929
47534SOL    HW144441   7.146  10.862   7.925
47534SOL    HW244442   7.022  10.880   7.840
47535SOL     OW44443   7.342   2.391  12.957
47535SOL    HW144444   7.329   2.401  13.052
47535SOL    HW244445   7.392   2.310  12.948
47536SOL     OW44446   1.511   9.561  14.566
47536SOL    HW144447   1.472   9.476  14.585
47536SOL    HW244448   1.600   9.542  14.539
47537SOL     OW44449   5.087  10.756  14.720
47537SOL    HW144450   5.009  10.795  14.759
47537SOL    HW244451   5.070  10.756  14.626
47538SOL     OW44452   7.936   6.280   7.027
47538SOL    HW144453   7.999   6.217   7.065
47538SOL    HW244454   7.851   6.249   7.057
47539SOL     OW44455  13.738   7.670   2.043
47539SOL    HW144456  13.644   7.659   2.032
47539SOL    HW244457  13.777   7.616   1.974
47540SOL     OW44458   7.026  10.352   1.984
47540SOL    HW144459   7.071  10.291   1.925
47540SOL    HW244460   6.933  10.337   1.967
47541SOL     OW44461   9.773  14.202   2.731
47541SOL    HW144462   9.689  14.207   2.686
47541SOL    HW244463   9.782  14.287   2.775
47542SOL     OW44464   9.476  14.018   7.039
47542SOL    HW144465   9.505  13.942   6.988
47542SOL    HW244466   9.392  13.992   7.076
47543SOL     OW44467   7.578  10.860   4.390
47543SOL    HW144468   7.637  10.884   4.462
47543SOL    HW244469   7.635  10.851   4.314
47544SOL     OW44470   1.181   9.322   5.908
47544SOL    HW144471   1.248   9.350   5.970
47544SOL    HW244472   1.215   9.240   5.871
47545SOL     OW44473  12.185   2.103  10.968
47545SOL    HW144474  12.100   2.077  11.004
47545SOL    HW244475  12.237   2.022  10.968
47546SOL     OW44476  13.166   2.037   3.179
47546SOL    HW144477  13.133   2.099   3.243
47546SOL    HW244478  13.211   1.970   3.231
47547SOL     OW44479  14.700  13.309   6.208
47547SOL    HW144480  14.651  13.236   6.247
47547SOL    HW244481  14.743  13.352   6.282
47548SOL     OW44482   8.342  12.260   4.005
47548SOL    HW144483   8.282  12.197   3.965
47548SOL    HW244484   8.428  12.217   4.003
47549SOL     OW44485   5.651  10.824   7.465
47549SOL    HW144486   5.646  10.900   7.523
47549SOL    HW244487   5.562  10.790   7.460
47550SOL     OW44488  14.556   5.685  14.553
47550SOL    HW144489  14.553   5.600  14.596
47550SOL    HW244490  14.570   5.665  14.460
47551SOL     OW44491   0.917  10.655   8.694
47551SOL    HW144492   0.839  10.678   8.643
47551SOL    HW244493   0.916  10.559   8.697
47552SOL     OW44494   0.098  13.715   6.284
47552SOL    HW144495   0.022  13.744   6.334
47552SOL    HW244496   0.148  13.662   6.346
47553SOL     OW44497   2.821  11.378   5.022
47553SOL    HW144498   2.782  11.293   5.044
47553SOL    HW244499   2.893  11.356   4.963
47554SOL     OW44500   9.798   5.602   2.973
47554SOL    HW144501   9.871   5.577   3.030
47554SOL    HW244502   9.779   5.692   2.997
47555SOL     OW44503   4.355   2.291   6.543
47555SOL    HW144504   4.404   2.346   6.604
47555SOL    HW244505   4.386   2.202   6.560
47556SOL     OW44506   1.434  13.481  12.688
47556SOL    HW144507   1.400  13.392  12.697
47556SOL    HW244508   1.367  13.527  12.638
47557SOL     OW44509   7.898  13.593   8.192
47557SOL    HW144510   7.811  13.630   8.176
47557SOL    HW244511   7.958  13.658   8.155
47558SOL     OW44512  11.130   2.462  12.759
47558SOL    HW144513  11.132   2.366  12.766
47558SOL    HW244514  11.135   2.493  12.849
47559SOL     OW44515  12.507   2.617   5.824
47559SOL    HW144516  12.584   2.597   5.877
47559SOL    HW244517  12.454   2.674   5.880
47560SOL     OW44518   4.885  13.015   3.740
47560SOL    HW144519   4.796  12.981   3.725
47560SOL    HW244520   4.942  12.940   3.726
47561SOL     OW44521   9.506  11.562  13.952
47561SOL    HW144522   9.472  11.618  13.882
47561SOL    HW244523   9.598  11.587  13.960
47562SOL     OW44524   2.813   8.318  12.117
47562SOL    HW144525   2.887   8.280  12.164
47562SOL    HW244526   2.739   8.311  12.179
47563SOL     OW44527  13.868  10.896  11.081
47563SOL    HW144528  13.784  10.893  11.036
47563SOL    HW244529  13.852  10.856  11.166
47564SOL     OW44530   5.638   2.248   6.089
47564SOL    HW144531   5.716   2.294   6.057
47564SOL    HW244532   5.648   2.158   6.056
47565SOL     OW44533   6.063   8.380  11.274
47565SOL    HW144534   5.998   8.395  11.342
47565SOL    HW244535   6.129   8.324  11.315
47566SOL     OW44536   4.029   7.274  13.899
47566SOL    HW144537   3.978   7.251  13.977
47566SOL    HW244538   3.996   7.218  13.830
47567SOL     OW44539   0.956   9.879   1.940
47567SOL    HW144540   0.949   9.807   2.003
47567SOL    HW244541   0.967   9.835   1.856
47568SOL     OW44542   7.132   5.532   3.294
47568SOL    HW144543   7.144   5.454   3.348
47568SOL    HW244544   7.054   5.575   3.330
47569SOL     OW44545   3.668   7.140   5.210
47569SOL    HW144546   3.707   7.109   5.128
47569SOL    HW244547   3.741   7.143   5.272
47570SOL     OW44548   3.388  14.478   4.335
47570SOL    HW144549   3.329  14.404   4.347
47570SOL    HW244550   3.428  14.464   4.249
47571SOL     OW44551   2.879   9.827  10.004
47571SOL    HW144552   2.835   9.891   9.949
47571SOL    HW244553   2.965   9.866  10.023
47572SOL     OW44554   7.518   7.840   8.998
47572SOL    HW144555   7.569   7.908   9.042
47572SOL    HW244556   7.441   7.886   8.965
47573SOL     OW44557  12.773   3.949   6.620
47573SOL    HW144558  12.852   3.931   6.570
47573SOL    HW244559  12.770   4.045   6.626
47574SOL     OW44560   5.867  13.419  10.294
47574SOL    HW144561   5.883  13.476  10.218
47574SOL    HW244562   5.936  13.443  10.356
47575SOL     OW44563  13.367   3.206   8.304
47575SOL    HW144564  13.274   3.195   8.285
47575SOL    HW244565  13.391   3.288   8.263
47576SOL     OW44566   2.653   5.317   8.475
47576SOL    HW144567   2.717   5.246   8.472
47576SOL    HW244568   2.569   5.275   8.458
47577SOL     OW44569   9.897   7.211   9.283
47577SOL    HW144570   9.988   7.239   9.279
47577SOL    HW244571   9.886   7.180   9.373
47578SOL     OW44572   2.235   7.221  10.507
47578SOL    HW144573   2.189   7.261  10.434
47578SOL    HW244574   2.201   7.131  10.511
47579SOL     OW44575  13.540  13.502   1.728
47579SOL    HW144576  13.447  13.495   1.706
47579SOL    HW244577  13.547  13.462   1.814
47580SOL     OW44578  14.793  11.392   2.443
47580SOL    HW144579  14.716  11.392   2.387
47580SOL    HW244580  14.857  11.338   2.397
47581SOL     OW44581  13.116   0.547  10.915
47581SOL    HW144582  13.080   0.598  10.842
47581SOL    HW244583  13.044   0.492  10.943
47582SOL     OW44584   8.204  11.265   8.220
47582SOL    HW144585   8.271  11.200   8.240
47582SOL    HW244586   8.247  11.325   8.159
47583SOL     OW44587   8.667  12.811  10.851
47583SOL    HW144588   8.686  12.889  10.903
47583SOL    HW244589   8.655  12.844  10.762
47584SOL     OW44590   1.269   0.603  11.764
47584SOL    HW144591   1.199   0.541  11.785
47584SOL    HW244592   1.261   0.672  11.830
47585SOL     OW44593   0.545   6.870   6.187
47585SOL    HW144594   0.626   6.855   6.139
47585SOL    HW244595   0.499   6.786   6.183
47586SOL     OW44596   5.023  10.045  12.036
47586SOL    HW144597   4.958   9.976  12.047
47586SOL    HW244598   5.057  10.032  11.947
47587SOL     OW44599   7.409  10.899   8.905
47587SOL    HW144600   7.351  10.877   8.832
47587SOL    HW244601   7.428  10.815   8.947
47588SOL     OW44602   7.041   4.911   3.600
47588SOL    HW144603   7.018   4.997   3.636
47588SOL    HW244604   6.969   4.891   3.540
47589SOL     OW44605  11.521   2.912   6.476
47589SOL    HW144606  11.479   2.917   6.562
47589SOL    HW244607  11.563   2.826   6.474
47590SOL     OW44608   3.465  11.459   8.914
47590SOL    HW144609   3.489  11.373   8.880
47590SOL    HW244610   3.380  11.477   8.874
47591SOL     OW44611  14.297   6.366  12.531
47591SOL    HW144612  14.284   6.461  12.537
47591SOL    HW244613  14.392   6.356  12.524
47592SOL     OW44614   4.152   0.615   4.243
47592SOL    HW144615   4.064   0.615   4.205
47592SOL    HW244616   4.189   0.530   4.218
47593SOL     OW44617  12.426   2.223   6.564
47593SOL    HW144618  12.496   2.233   6.500
47593SOL    HW244619  12.459   2.159   6.626
47594SOL     OW44620  11.506  13.515   1.036
47594SOL    HW144621  11.544  13.433   1.069
47594SOL    HW244622  11.454  13.488   0.960
47595SOL     OW44623   1.044  14.376   9.819
47595SOL    HW144624   1.082  14.447   9.870
47595SOL    HW244625   1.044  14.301   9.879
47596SOL     OW44626   9.469  11.224  10.052
47596SOL    HW144627   9.514  11.201  10.133
47596SOL    HW244628   9.510  11.169   9.985
47597SOL     OW44629   0.816  12.728   0.126
47597SOL    HW144630   0.771  12.725   0.211
47597SOL    HW244631   0.840  12.637   0.108
47598SOL     OW44632   7.922  11.921  13.582
47598SOL    HW144633   7.959  12.007  13.603
47598SOL    HW244634   7.909  11.879  13.667
47599SOL     OW44635  13.514   5.091  14.216
47599SOL    HW144636  13.444   5.047  14.169
47599SOL    HW244637  13.574   5.021  14.243
47600SOL     OW44638   8.942  13.520   0.887
47600SOL    HW144639   8.942  13.508   0.792
47600SOL    HW244640   8.918  13.434   0.922
47601SOL     OW44641   0.074  11.703   6.326
47601SOL    HW144642   0.129  11.723   6.401
47601SOL    HW244643   0.044  11.613   6.340
47602SOL     OW44644   4.769  11.682   0.025
47602SOL    HW144645   4.835  11.750   0.035
47602SOL    HW244646   4.745  11.685  14.805
47603SOL     OW44647   6.397   1.731   4.069
47603SOL    HW144648   6.315   1.780   4.079
47603SOL    HW244649   6.442   1.743   4.152
47604SOL     OW44650   4.347   4.896  11.449
47604SOL    HW144651   4.411   4.876  11.517
47604SOL    HW244652   4.350   4.821  11.390
47605SOL     OW44653   0.496   9.419   4.277
47605SOL    HW144654   0.472   9.434   4.369
47605SOL    HW244655   0.436   9.473   4.227
47606SOL     OW44656   4.043   9.655  11.959
47606SOL    HW144657   4.008   9.667  12.048
47606SOL    HW244658   3.966   9.656  11.902
47607SOL     OW44659   9.352   3.129   2.390
47607SOL    HW144660   9.416   3.195   2.364
47607SOL    HW244661   9.310   3.102   2.308
47608SOL     OW44662   0.118  12.682  10.261
47608SOL    HW144663   0.157  12.714  10.342
47608SOL    HW244664   0.173  12.720  10.192
47609SOL     OW44665   0.477  10.440   4.113
47609SOL    HW144666   0.387  10.408   4.113
47609SOL    HW244667   0.470  10.530   4.145
47610SOL     OW44668   8.677   8.099   0.491
47610SOL    HW144669   8.640   8.057   0.568
47610SOL    HW244670   8.640   8.188   0.492
47611SOL     OW44671   1.864   6.479   7.855
47611SOL    HW144672   1.773   6.460   7.879
47611SOL    HW244673   1.874   6.573   7.872
47612SOL     OW44674   1.173  11.323   7.668
47612SOL    HW144675   1.126  11.365   7.740
47612SOL    HW244676   1.194  11.235   7.701
47613SOL     OW44677   9.446  10.541   4.607
47613SOL    HW144678   9.377  10.546   4.541
47613SOL    HW244679   9.438  10.621   4.658
47614SOL     OW44680   6.307   6.210   7.982
47614SOL    HW144681   6.316   6.284   7.923
47614SOL    HW244682   6.366   6.143   7.946
47615SOL     OW44683   1.511   0.425  13.574
47615SOL    HW144684   1.466   0.509  13.589
47615SOL    HW244685   1.549   0.403  13.659
47616SOL     OW44686   0.224   3.482  13.936
47616SOL    HW144687   0.265   3.505  13.853
47616SOL    HW244688   0.287   3.423  13.978
47617SOL     OW44689   1.814   6.078   9.103
47617SOL    HW144690   1.765   6.147   9.147
47617SOL    HW244691   1.902   6.084   9.139
47618SOL     OW44692   2.096   7.319   5.016
47618SOL    HW144693   2.017   7.356   4.976
47618SOL    HW244694   2.116   7.242   4.963
47619SOL     OW44695  14.197   7.107   1.388
47619SOL    HW144696  14.289   7.098   1.411
47619SOL    HW244697  14.150   7.089   1.470
47620SOL     OW44698   2.630  11.926   2.436
47620SOL    HW144699   2.661  11.867   2.366
47620SOL    HW244700   2.702  11.928   2.499
47621SOL     OW44701   6.246   4.529   9.463
47621SOL    HW144702   6.247   4.454   9.522
47621SOL    HW244703   6.293   4.499   9.386
47622SOL     OW44704   4.256  13.263   9.790
47622SOL    HW144705   4.191  13.199   9.818
47622SOL    HW244706   4.283  13.234   9.703
47623SOL     OW44707  14.792   4.447   3.649
47623SOL    HW144708  14.733   4.473   3.719
47623SOL    HW244709   0.006   4.464   3.684
47624SOL     OW44710   6.524   9.692   6.242
47624SOL    HW144711   6.496   9.733   6.324
47624SOL    HW244712   6.450   9.704   6.182
47625SOL     OW44713   3.090  10.582  10.112
47625SOL    HW144714   3.174  10.600  10.154
47625SOL    HW244715   3.035  10.546  10.182
47626SOL     OW44716   8.127   6.739  12.360
47626SOL    HW144717   8.115   6.832  12.374
47626SOL    HW244718   8.073   6.719  12.284
47627SOL     OW44719  14.552  12.516  12.548
47627SOL    HW144720  14.551  12.464  12.628
47627SOL    HW244721  14.522  12.603  12.575
47628SOL     OW44722   7.286  12.567  13.965
47628SOL    HW144723   7.248  12.642  14.009
47628SOL    HW244724   7.320  12.512  14.035
47629SOL     OW44725  12.223  11.324   8.803
47629SOL    HW144726  12.297  11.358   8.751
47629SOL    HW244727  12.203  11.239   8.764
47630SOL     OW44728   4.273   1.515   5.071
47630SOL    HW144729   4.195   1.487   5.023
47630SOL    HW244730   4.277   1.610   5.058
47631SOL     OW44731   3.567  14.586   3.085
47631SOL    HW144732   3.568  14.624   3.173
47631SOL    HW244733   3.490  14.529   3.084
47632SOL     OW44734  11.806  14.342  10.570
47632SOL    HW144735  11.834  14.433  10.577
47632SOL    HW244736  11.852  14.308  10.493
47633SOL     OW44737   9.364   9.141   8.309
47633SOL    HW144738   9.314   9.089   8.372
47633SOL    HW244739   9.452   9.145   8.345
47634SOL     OW44740  14.283   2.196   2.871
47634SOL    HW144741  14.359   2.172   2.924
47634SOL    HW244742  14.207   2.165   2.921
47635SOL     OW44743   1.821   3.041   9.286
47635SOL    HW144744   1.835   3.108   9.219
47635SOL    HW244745   1.753   2.984   9.249
47636SOL     OW44746   9.685  12.186   0.886
47636SOL    HW144747   9.696  12.131   0.809
47636SOL    HW244748   9.618  12.249   0.861
47637SOL     OW44749  13.225   6.822   9.440
47637SOL    HW144750  13.234   6.852   9.530
47637SOL    HW244751  13.217   6.903   9.388
47638SOL     OW44752   4.830  13.769  11.405
47638SOL    HW144753   4.846  13.860  11.430
47638SOL    HW244754   4.788  13.730  11.482
47639SOL     OW44755   1.098   6.982   0.064
47639SOL    HW144756   1.143   6.955  14.857
47639SOL    HW244757   1.011   6.945   0.057
47640SOL     OW44758   9.595  12.193  14.084
47640SOL    HW144759   9.579  12.254  14.011
47640SOL    HW244760   9.583  12.106  14.046
47641SOL     OW44761   6.327   2.853   3.262
47641SOL    HW144762   6.308   2.770   3.218
47641SOL    HW244763   6.357   2.827   3.349
47642SOL     OW44764   7.875  13.458  13.728
47642SOL    HW144765   7.870  13.537  13.676
47642SOL    HW244766   7.964  13.425  13.713
47643SOL     OW44767  12.697   0.585   0.500
47643SOL    HW144768  12.725   0.598   0.591
47643SOL    HW244769  12.751   0.646   0.449
47644SOL     OW44770   0.463  12.309  12.063
47644SOL    HW144771   0.403  12.358  12.008
47644SOL    HW244772   0.489  12.371  12.131
47645SOL     OW44773  11.793   4.565   5.792
47645SOL    HW144774  11.719   4.603   5.838
47645SOL    HW244775  11.754   4.511   5.724
47646SOL     OW44776   4.010  12.823  13.021
47646SOL    HW144777   3.972  12.855  13.103
47646SOL    HW244778   3.939  12.774  12.978
47647SOL     OW44779   3.333   4.578   0.369
47647SOL    HW144780   3.330   4.639   0.295
47647SOL    HW244781   3.344   4.492   0.329
47648SOL     OW44782  13.340   3.785  10.407
47648SOL    HW144783  13.420   3.736  10.388
47648SOL    HW244784  13.284   3.723  10.453
47649SOL     OW44785   6.120   2.198   0.759
47649SOL    HW144786   6.191   2.260   0.740
47649SOL    HW244787   6.165   2.117   0.783
47650SOL     OW44788   9.804   9.117   6.916
47650SOL    HW144789   9.823   9.025   6.933
47650SOL    HW244790   9.888   9.155   6.891
47651SOL     OW44791   9.214   3.424   3.182
47651SOL    HW144792   9.186   3.333   3.191
47651SOL    HW244793   9.172   3.469   3.255
47652SOL     OW44794   9.371   0.288   7.744
47652SOL    HW144795   9.444   0.349   7.753
47652SOL    HW244796   9.403   0.206   7.783
47653SOL     OW44797  12.521   4.907   2.152
47653SOL    HW144798  12.585   4.871   2.090
47653SOL    HW244799  12.440   4.860   2.132
47654SOL     OW44800   2.151  11.931  10.896
47654SOL    HW144801   2.228  11.926  10.953
47654SOL    HW244802   2.134  12.024  10.886
47655SOL     OW44803  14.838   9.469  14.565
47655SOL    HW144804   0.011   9.552  14.562
47655SOL    HW244805   0.016   9.417  14.628
47656SOL     OW44806  11.215  11.425  13.598
47656SOL    HW144807  11.134  11.374  13.606
47656SOL    HW244808  11.209  11.466  13.512
47657SOL     OW44809  10.621   3.977   5.351
47657SOL    HW144810  10.556   3.940   5.410
47657SOL    HW244811  10.704   3.940   5.380
47658SOL     OW44812  10.068   9.670   7.853
47658SOL    HW144813  10.095   9.747   7.904
47658SOL    HW244814  10.150   9.622   7.837
47659SOL     OW44815   9.033   3.056   4.006
47659SOL    HW144816   8.972   3.129   4.014
47659SOL    HW244817   9.085   3.076   3.928
47660SOL     OW44818   0.705   2.204   7.909
47660SOL    HW144819   0.772   2.233   7.847
47660SOL    HW244820   0.754   2.184   7.989
47661SOL     OW44821   9.131   1.442   5.129
47661SOL    HW144822   9.216   1.455   5.086
47661SOL    HW244823   9.138   1.356   5.169
47662SOL     OW44824   4.834  12.267   1.008
47662SOL    HW144825   4.855  12.319   1.085
47662SOL    HW244826   4.906  12.284   0.947
47663SOL     OW44827   8.455   3.207  12.709
47663SOL    HW144828   8.402   3.250  12.776
47663SOL    HW244829   8.392   3.185  12.640
47664SOL     OW44830  13.298  14.342  11.858
47664SOL    HW144831  13.353  14.264  11.853
47664SOL    HW244832  13.316  14.390  11.778
47665SOL     OW44833   1.799   6.711   0.676
47665SOL    HW144834   1.799   6.620   0.646
47665SOL    HW244835   1.707   6.730   0.694
47666SOL     OW44836  14.739   9.008  12.002
47666SOL    HW144837  14.834   9.013  11.994
47666SOL    HW244838  14.714   8.931  11.950
47667SOL     OW44839  14.804  14.040   3.851
47667SOL    HW144840  14.781  13.966   3.907
47667SOL    HW244841  14.720  14.072   3.818
47668SOL     OW44842  11.153   0.167   3.109
47668SOL    HW144843  11.083   0.116   3.070
47668SOL    HW244844  11.159   0.135   3.199
47669SOL     OW44845  12.406  10.076  13.833
47669SOL    HW144846  12.391   9.984  13.852
47669SOL    HW244847  12.498  10.091  13.856
47670SOL     OW44848   5.241   7.139   5.858
47670SOL    HW144849   5.156   7.183   5.857
47670SOL    HW244850   5.305   7.209   5.847
47671SOL     OW44851   7.076   1.266   7.436
47671SOL    HW144852   7.108   1.206   7.503
47671SOL    HW244853   7.134   1.342   7.442
47672SOL     OW44854   4.752   7.333  13.034
47672SOL    HW144855   4.839   7.335  13.075
47672SOL    HW244856   4.720   7.423  13.042
47673SOL     OW44857  13.937   6.785   2.944
47673SOL    HW144858  13.986   6.730   2.883
47673SOL    HW244859  13.846   6.756   2.934
47674SOL     OW44860  11.778  10.945  14.788
47674SOL    HW144861  11.874  10.947  14.786
47674SOL    HW244862  11.751  10.980  14.704
47675SOL     OW44863  13.318   5.738   2.497
47675SOL    HW144864  13.352   5.775   2.415
47675SOL    HW244865  13.267   5.662   2.470
47676SOL     OW44866  10.613   0.536   9.342
47676SOL    HW144867  10.534   0.541   9.395
47676SOL    HW244868  10.603   0.454   9.293
47677SOL     OW44869   3.926  11.446   2.054
47677SOL    HW144870   3.973  11.377   2.007
47677SOL    HW244871   3.859  11.399   2.104
47678SOL     OW44872  13.591  13.113  13.511
47678SOL    HW144873  13.547  13.192  13.478
47678SOL    HW244874  13.524  13.045  13.509
47679SOL     OW44875   0.035   3.053   3.367
47679SOL    HW144876   0.096   3.032   3.297
47679SOL    HW244877   0.055   3.144   3.389
47680SOL     OW44878   9.348  12.924   4.539
47680SOL    HW144879   9.326  12.975   4.617
47680SOL    HW244880   9.269  12.926   4.485
47681SOL     OW44881   5.658  11.550   0.881
47681SOL    HW144882   5.742  11.549   0.928
47681SOL    HW244883   5.669  11.618   0.815
47682SOL     OW44884   0.539   1.533   6.135
47682SOL    HW144885   0.539   1.519   6.230
47682SOL    HW244886   0.567   1.624   6.124
47683SOL     OW44887   1.219   6.255  13.831
47683SOL    HW144888   1.259   6.324  13.778
47683SOL    HW244889   1.124   6.269  13.821
47684SOL     OW44890  13.914  13.577   4.958
47684SOL    HW144891  13.960  13.501   4.993
47684SOL    HW244892  13.821  13.553   4.965
47685SOL     OW44893   0.233   3.799   2.600
47685SOL    HW144894   0.146   3.789   2.641
47685SOL    HW244895   0.264   3.884   2.630
47686SOL     OW44896   2.490   1.489  14.790
47686SOL    HW144897   2.566   1.483  14.848
47686SOL    HW244898   2.428   1.543  14.837
47687SOL     OW44899  13.380   5.062   6.625
47687SOL    HW144900  13.469   5.043   6.654
47687SOL    HW244901  13.374   5.158   6.627
47688SOL     OW44902   2.541   4.373  12.980
47688SOL    HW144903   2.560   4.374  13.074
47688SOL    HW244904   2.579   4.455  12.947
47689SOL     OW44905   1.681  14.554   8.934
47689SOL    HW144906   1.754  14.500   8.964
47689SOL    HW244907   1.708  14.584   8.846
47690SOL     OW44908   4.735   4.665   0.892
47690SOL    HW144909   4.690   4.583   0.873
47690SOL    HW244910   4.826   4.640   0.911
47691SOL     OW44911  12.214  14.624  13.544
47691SOL    HW144912  12.208  14.679  13.466
47691SOL    HW244913  12.251  14.542  13.512
47692SOL     OW44914  12.819   1.934   1.860
47692SOL    HW144915  12.877   1.986   1.915
47692SOL    HW244916  12.878   1.878   1.809
47693SOL     OW44917   8.801   0.353   0.893
47693SOL    HW144918   8.800   0.309   0.978
47693SOL    HW244919   8.773   0.442   0.912
47694SOL     OW44920   7.716   3.964   5.305
47694SOL    HW144921   7.655   3.901   5.344
47694SOL    HW244922   7.689   4.049   5.340
47695SOL     OW44923   6.409   5.675   8.590
47695SOL    HW144924   6.427   5.661   8.683
47695SOL    HW244925   6.364   5.759   8.586
47696SOL     OW44926  12.876   8.657  14.158
47696SOL    HW144927  12.872   8.675  14.064
47696SOL    HW244928  12.954   8.603  14.169
47697SOL     OW44929  13.462  14.400   0.927
47697SOL    HW144930  13.463  14.427   1.019
47697SOL    HW244931  13.526  14.457   0.884
47698SOL     OW44932   4.752  14.555   0.062
47698SOL    HW144933   4.692  14.582   0.132
47698SOL    HW244934   4.803  14.634   0.044
47699SOL     OW44935   5.118   1.982   5.525
47699SOL    HW144936   5.097   1.888   5.526
47699SOL    HW244937   5.102   2.011   5.614
47700SOL     OW44938   5.549   7.543   3.644
47700SOL    HW144939   5.582   7.460   3.610
47700SOL    HW244940   5.565   7.607   3.575
47701SOL     OW44941   6.243   7.112   8.252
47701SOL    HW144942   6.251   7.017   8.241
47701SOL    HW244943   6.152   7.126   8.280
47702SOL     OW44944   4.804   6.577   1.969
47702SOL    HW144945   4.789   6.485   1.949
47702SOL    HW244946   4.879   6.602   1.916
47703SOL     OW44947   0.839  13.450  13.029
47703SOL    HW144948   0.764  13.391  13.035
47703SOL    HW244949   0.801  13.538  13.037
47704SOL     OW44950  11.912   9.450  12.062
47704SOL    HW144951  11.877   9.362  12.048
47704SOL    HW244952  11.883   9.500  11.986
47705SOL     OW44953   1.208  14.441  13.229
47705SOL    HW144954   1.183  14.498  13.156
47705SOL    HW244955   1.270  14.379  13.191
47706SOL     OW44956   8.436   3.938   7.382
47706SOL    HW144957   8.462   3.905   7.296
47706SOL    HW244958   8.356   3.988   7.365
47707SOL     OW44959   6.428  13.878  14.325
47707SOL    HW144960   6.337  13.848  14.332
47707SOL    HW244961   6.423  13.972  14.342
47708SOL     OW44962   4.464   4.367   2.705
47708SOL    HW144963   4.369   4.357   2.712
47708SOL    HW244964   4.478   4.402   2.617
47709SOL     OW44965   4.945   1.402   7.071
47709SOL    HW144966   4.905   1.320   7.100
47709SOL    HW244967   5.016   1.417   7.134
47710SOL     OW44968   3.643  11.361   8.282
47710SOL    HW144969   3.629  11.286   8.224
47710SOL    HW244970   3.720  11.405   8.246
47711SOL     OW44971   5.510  11.486  14.635
47711SOL    HW144972   5.511  11.461  14.542
47711SOL    HW244973   5.502  11.403  14.682
47712SOL     OW44974   3.333   4.911   7.991
47712SOL    HW144975   3.258   4.968   8.009
47712SOL    HW244976   3.406   4.971   7.974
47713SOL     OW44977   8.166   0.899  10.447
47713SOL    HW144978   8.231   0.841  10.409
47713SOL    HW244979   8.152   0.865  10.536
47714SOL     OW44980   7.196   1.056  12.274
47714SOL    HW144981   7.246   1.111  12.213
47714SOL    HW244982   7.259   1.033  12.343
47715SOL     OW44983   4.133   6.974  10.190
47715SOL    HW144984   4.160   6.915  10.120
47715SOL    HW244985   4.207   6.974  10.251
47716SOL     OW44986   1.293   3.422   6.882
47716SOL    HW144987   1.365   3.414   6.944
47716SOL    HW244988   1.292   3.515   6.858
47717SOL     OW44989  10.083   1.066   1.154
47717SOL    HW144990  10.125   1.151   1.145
47717SOL    HW244991   9.998   1.077   1.110
47718SOL     OW44992   0.186  13.540  10.932
47718SOL    HW144993   0.146  13.453  10.929
47718SOL    HW244994   0.257  13.536  10.868
47719SOL     OW44995  12.044  14.377  12.206
47719SOL    HW144996  12.111  14.346  12.145
47719SOL    HW244997  11.975  14.311  12.201
47720SOL     OW44998   0.688   8.718   5.782
47720SOL    HW144999   0.597   8.688   5.777
47720SOL    HW245000   0.740   8.639   5.765
47721SOL     OW45001   5.435  12.732   7.642
47721SOL    HW145002   5.469  12.666   7.582
47721SOL    HW245003   5.488  12.721   7.722
47722SOL     OW45004   5.196  13.283  13.917
47722SOL    HW145005   5.261  13.337  13.962
47722SOL    HW245006   5.214  13.194  13.948
47723SOL     OW45007  11.395  13.430  12.740
47723SOL    HW145008  11.322  13.378  12.773
47723SOL    HW245009  11.473  13.383  12.770
47724SOL     OW45010   9.875   2.119   5.008
47724SOL    HW145011   9.865   2.215   5.009
47724SOL    HW245012   9.965   2.105   4.979
47725SOL     OW45013  10.546  12.747   7.341
47725SOL    HW145014  10.633  12.785   7.350
47725SOL    HW245015  10.535  12.692   7.418
47726SOL     OW45016   1.926   4.567   7.867
47726SOL    HW145017   1.954   4.581   7.777
47726SOL    HW245018   1.881   4.482   7.865
47727SOL     OW45019   8.614   3.345  14.429
47727SOL    HW145020   8.647   3.404  14.361
47727SOL    HW245021   8.537   3.390  14.465
47728SOL     OW45022  10.201  12.512   8.843
47728SOL    HW145023  10.167  12.528   8.931
47728SOL    HW245024  10.276  12.570   8.834
47729SOL     OW45025  10.277  12.967   8.336
47729SOL    HW145026  10.272  12.908   8.410
47729SOL    HW245027  10.371  12.984   8.324
47730SOL     OW45028  11.592   5.894   9.659
47730SOL    HW145029  11.552   5.974   9.626
47730SOL    HW245030  11.617   5.915   9.749
47731SOL     OW45031   0.180  13.328   2.986
47731SOL    HW145032   0.195  13.292   2.899
47731SOL    HW245033   0.084  13.334   2.994
47732SOL     OW45034   7.004  10.365   2.267
47732SOL    HW145035   6.936  10.432   2.259
47732SOL    HW245036   7.026  10.343   2.176
47733SOL     OW45037   6.735  11.010   6.621
47733SOL    HW145038   6.823  11.050   6.616
47733SOL    HW245039   6.680  11.079   6.659
47734SOL     OW45040  12.495  12.105   3.444
47734SOL    HW145041  12.429  12.119   3.511
47734SOL    HW245042  12.542  12.188   3.437
47735SOL     OW45043   8.265   9.782   7.779
47735SOL    HW145044   8.217   9.699   7.774
47735SOL    HW245045   8.356   9.757   7.790
47736SOL     OW45046   6.268   6.653   7.654
47736SOL    HW145047   6.193   6.712   7.662
47736SOL    HW245048   6.296   6.662   7.563
47737SOL     OW45049   5.314   2.012   0.823
47737SOL    HW145050   5.392   1.968   0.790
47737SOL    HW245051   5.347   2.097   0.854
47738SOL     OW45052  10.915  13.122   2.640
47738SOL    HW145053  10.819  13.127   2.635
47738SOL    HW245054  10.945  13.173   2.565
47739SOL     OW45055   3.183  13.708   6.681
47739SOL    HW145056   3.126  13.668   6.616
47739SOL    HW245057   3.216  13.788   6.640
47740SOL     OW45058   0.542   9.965  11.358
47740SOL    HW145059   0.509   9.995  11.442
47740SOL    HW245060   0.584  10.042  11.320
47741SOL     OW45061   1.426   9.180   2.870
47741SOL    HW145062   1.356   9.202   2.932
47741SOL    HW245063   1.380   9.148   2.793
47742SOL     OW45064   6.231  12.437   9.982
47742SOL    HW145065   6.244  12.431  10.077
47742SOL    HW245066   6.183  12.519   9.970
47743SOL     OW45067   4.476   7.524  10.104
47743SOL    HW145068   4.459   7.598  10.162
47743SOL    HW245069   4.395   7.511  10.056
47744SOL     OW45070   1.739  10.102  13.186
47744SOL    HW145071   1.826  10.107  13.147
47744SOL    HW245072   1.687  10.054  13.122
47745SOL     OW45073   9.960  10.702   0.492
47745SOL    HW145074  10.000  10.786   0.473
47745SOL    HW245075  10.001  10.641   0.430
47746SOL     OW45076  10.068  11.452   6.558
47746SOL    HW145077  10.074  11.406   6.475
47746SOL    HW245078  10.121  11.401   6.618
47747SOL     OW45079  11.680  14.517   6.354
47747SOL    HW145080  11.598  14.522   6.404
47747SOL    HW245081  11.655  14.477   6.270
47748SOL     OW45082   2.293   3.735   0.164
47748SOL    HW145083   2.346   3.815   0.168
47748SOL    HW245084   2.264   3.721   0.254
47749SOL     OW45085  12.901   9.895   0.785
47749SOL    HW145086  12.902   9.941   0.869
47749SOL    HW245087  12.811   9.903   0.754
47750SOL     OW45088  14.313  11.096   8.524
47750SOL    HW145089  14.329  11.172   8.580
47750SOL    HW245090  14.305  11.022   8.585
47751SOL     OW45091  14.111   8.370   8.041
47751SOL    HW145092  14.059   8.434   7.992
47751SOL    HW245093  14.141   8.418   8.118
47752SOL     OW45094   3.481  12.191   4.237
47752SOL    HW145095   3.422  12.265   4.222
47752SOL    HW245096   3.470  12.136   4.160
47753SOL     OW45097   4.336  12.710   6.448
47753SOL    HW145098   4.343  12.793   6.401
47753SOL    HW245099   4.242  12.696   6.460
47754SOL     OW45100  10.528  14.401  13.533
47754SOL    HW145101  10.524  14.345  13.456
47754SOL    HW245102  10.440  14.396  13.571
47755SOL     OW45103  11.885  10.330   9.141
47755SOL    HW145104  11.889  10.242   9.180
47755SOL    HW245105  11.822  10.377   9.195
47756SOL     OW45106   3.869   6.554   9.144
47756SOL    HW145107   3.876   6.635   9.194
47756SOL    HW245108   3.810   6.576   9.072
47757SOL     OW45109   6.649   7.376   7.583
47757SOL    HW145110   6.622   7.291   7.618
47757SOL    HW245111   6.744   7.375   7.590
47758SOL     OW45112   4.915  12.836  12.033
47758SOL    HW145113   4.902  12.821  12.126
47758SOL    HW245114   5.005  12.867  12.026
47759SOL     OW45115   4.707  13.433   9.059
47759SOL    HW145116   4.718  13.431   9.154
47759SOL    HW245117   4.776  13.492   9.029
47760SOL     OW45118   2.023   8.898   0.263
47760SOL    HW145119   1.992   8.856   0.344
47760SOL    HW245120   2.110   8.931   0.286
47761SOL     OW45121   5.229   3.020   1.907
47761SOL    HW145122   5.187   2.979   1.983
47761SOL    HW245123   5.262   3.103   1.941
47762SOL     OW45124  14.069   1.352   6.840
47762SOL    HW145125  14.115   1.398   6.910
47762SOL    HW245126  13.989   1.318   6.881
47763SOL     OW45127  13.853   0.510  13.419
47763SOL    HW145128  13.763   0.538  13.435
47763SOL    HW245129  13.860   0.506  13.324
47764SOL     OW45130  13.554   9.967  12.119
47764SOL    HW145131  13.616   9.994  12.051
47764SOL    HW245132  13.609   9.953  12.196
47765SOL     OW45133   5.115  13.316   7.965
47765SOL    HW145134   5.175  13.245   7.986
47765SOL    HW245135   5.153  13.393   8.007
47766SOL     OW45136  12.324  14.173   5.831
47766SOL    HW145137  12.336  14.168   5.926
47766SOL    HW245138  12.235  14.142   5.816
47767SOL     OW45139  11.620   8.432   9.124
47767SOL    HW145140  11.581   8.515   9.097
47767SOL    HW245141  11.550   8.386   9.171
47768SOL     OW45142   9.723   8.579   0.621
47768SOL    HW145143   9.791   8.511   0.623
47768SOL    HW245144   9.650   8.542   0.670
47769SOL     OW45145   6.884  13.869  10.637
47769SOL    HW145146   6.929  13.840  10.558
47769SOL    HW245147   6.885  13.794  10.695
47770SOL     OW45148   3.011   6.977  12.676
47770SOL    HW145149   3.005   6.959  12.770
47770SOL    HW245150   2.921   6.994  12.649
47771SOL     OW45151  13.448   8.845   2.079
47771SOL    HW145152  13.387   8.863   2.151
47771SOL    HW245153  13.392   8.827   2.004
47772SOL     OW45154  11.170   3.541   9.411
47772SOL    HW145155  11.095   3.500   9.367
47772SOL    HW245156  11.140   3.559   9.500
47773SOL     OW45157  10.946   2.826   9.108
47773SOL    HW145158  11.040   2.846   9.101
47773SOL    HW245159  10.938   2.782   9.193
47774SOL     OW45160   5.480   4.459  12.026
47774SOL    HW145161   5.522   4.545  12.020
47774SOL    HW245162   5.415   4.458  11.956
47775SOL     OW45163   2.210   3.673   1.262
47775SOL    HW145164   2.124   3.673   1.220
47775SOL    HW245165   2.224   3.763   1.289
47776SOL     OW45166   9.581   5.061  11.946
47776SOL    HW145167   9.576   5.136  11.888
47776SOL    HW245168   9.600   4.987  11.888
47777SOL     OW45169   4.897   1.339   8.382
47777SOL    HW145170   4.900   1.354   8.476
47777SOL    HW245171   4.980   1.298   8.361
47778SOL     OW45172  14.452   2.281  13.727
47778SOL    HW145173  14.469   2.370  13.756
47778SOL    HW245174  14.420   2.236  13.805
47779SOL     OW45175   1.606   7.790   6.361
47779SOL    HW145176   1.605   7.771   6.268
47779SOL    HW245177   1.609   7.886   6.366
47780SOL     OW45178   5.604   8.880   3.111
47780SOL    HW145179   5.663   8.818   3.068
47780SOL    HW245180   5.555   8.920   3.040
47781SOL     OW45181   5.088   4.222   1.857
47781SOL    HW145182   5.159   4.286   1.861
47781SOL    HW245183   5.044   4.231   1.942
47782SOL     OW45184  12.539   4.279   3.365
47782SOL    HW145185  12.628   4.289   3.397
47782SOL    HW245186  12.535   4.190   3.331
47783SOL     OW45187  11.911  12.905  14.628
47783SOL    HW145188  11.832  12.882  14.677
47783SOL    HW245189  11.887  12.982  14.578
47784SOL     OW45190   7.066   6.038   5.386
47784SOL    HW145191   6.975   6.030   5.357
47784SOL    HW245192   7.085   5.953   5.427
47785SOL     OW45193   1.981   4.310  13.680
47785SOL    HW145194   1.970   4.248  13.607
47785SOL    HW245195   1.939   4.267  13.754
47786SOL     OW45196   9.077   3.431   3.450
47786SOL    HW145197   8.994   3.472   3.475
47786SOL    HW245198   9.142   3.500   3.458
47787SOL     OW45199   8.986   2.921   2.299
47787SOL    HW145200   9.038   2.852   2.342
47787SOL    HW245201   9.047   2.960   2.236
47788SOL     OW45202   2.041   1.730   3.609
47788SOL    HW145203   2.105   1.773   3.553
47788SOL    HW245204   2.012   1.654   3.559
47789SOL     OW45205   0.403  10.306   5.530
47789SOL    HW145206   0.437  10.257   5.456
47789SOL    HW245207   0.315  10.270   5.544
47790SOL     OW45208   9.268   6.921   5.428
47790SOL    HW145209   9.233   6.981   5.495
47790SOL    HW245210   9.318   6.856   5.477
47791SOL     OW45211  11.666  12.117  14.216
47791SOL    HW145212  11.690  12.195  14.267
47791SOL    HW245213  11.582  12.090  14.252
47792SOL     OW45214  14.058   4.598   5.510
47792SOL    HW145215  14.013   4.629   5.588
47792SOL    HW245216  13.989   4.560   5.456
47793SOL     OW45217   2.453  13.280   6.140
47793SOL    HW145218   2.498  13.272   6.056
47793SOL    HW245219   2.389  13.349   6.126
47794SOL     OW45220   9.493  13.493   1.053
47794SOL    HW145221   9.509  13.581   1.086
47794SOL    HW245222   9.533  13.492   0.966
47795SOL     OW45223  13.539   9.872   0.284
47795SOL    HW145224  13.513   9.780   0.282
47795SOL    HW245225  13.604   9.877   0.354
47796SOL     OW45226   6.028   2.458  12.258
47796SOL    HW145227   6.092   2.523  12.288
47796SOL    HW245228   6.072   2.411  12.187
47797SOL     OW45229   8.242   2.537   5.162
47797SOL    HW145230   8.180   2.510   5.094
47797SOL    HW245231   8.209   2.622   5.193
47798SOL     OW45232   9.411   7.221  11.361
47798SOL    HW145233   9.378   7.304  11.396
47798SOL    HW245234   9.334   7.166  11.352
47799SOL     OW45235   2.844  11.149  12.452
47799SOL    HW145236   2.771  11.109  12.406
47799SOL    HW245237   2.840  11.113  12.541
47800SOL     OW45238   5.881  12.066   4.554
47800SOL    HW145239   5.903  12.144   4.605
47800SOL    HW245240   5.871  12.097   4.464
47801SOL     OW45241  12.112   0.053   2.918
47801SOL    HW145242  12.120  14.835   2.888
47801SOL    HW245243  12.110   0.046   3.014
47802SOL     OW45244  14.270   1.344   8.013
47802SOL    HW145245  14.193   1.374   8.060
47802SOL    HW245246  14.337   1.333   8.081
47803SOL     OW45247   0.648   2.362  11.066
47803SOL    HW145248   0.665   2.297  11.133
47803SOL    HW245249   0.566   2.404  11.093
47804SOL     OW45250  12.615  11.896  14.146
47804SOL    HW145251  12.563  11.831  14.193
47804SOL    HW245252  12.558  11.925  14.075
47805SOL     OW45253   1.023   0.693  10.188
47805SOL    HW145254   1.085   0.762  10.164
47805SOL    HW245255   1.038   0.679  10.281
47806SOL     OW45256   1.887   8.612   0.846
47806SOL    HW145257   1.798   8.633   0.875
47806SOL    HW245258   1.904   8.524   0.879
47807SOL     OW45259   6.802   6.091   2.357
47807SOL    HW145260   6.829   6.181   2.337
47807SOL    HW245261   6.881   6.049   2.391
47808SOL     OW45262   7.345   9.288   1.338
47808SOL    HW145263   7.370   9.200   1.311
47808SOL    HW245264   7.415   9.344   1.305
47809SOL     OW45265   5.435   6.227   8.925
47809SOL    HW145266   5.495   6.201   8.854
47809SOL    HW245267   5.351   6.190   8.900
47810SOL     OW45268   3.306   9.797   3.180
47810SOL    HW145269   3.359   9.821   3.104
47810SOL    HW245270   3.359   9.822   3.255
47811SOL     OW45271   7.064  10.007   9.832
47811SOL    HW145272   7.138   9.951   9.857
47811SOL    HW245273   6.986   9.955   9.853
47812SOL     OW45274  10.250   6.352  12.221
47812SOL    HW145275  10.211   6.432  12.185
47812SOL    HW245276  10.244   6.363  12.316
47813SOL     OW45277   7.414   2.353   1.281
47813SOL    HW145278   7.321   2.338   1.300
47813SOL    HW245279   7.417   2.367   1.186
47814SOL     OW45280   4.604  10.158   9.397
47814SOL    HW145281   4.589  10.167   9.303
47814SOL    HW245282   4.695  10.128   9.404
47815SOL     OW45283  11.042   0.921   4.229
47815SOL    HW145284  10.951   0.895   4.212
47815SOL    HW245285  11.095   0.864   4.174
47816SOL     OW45286   6.370   8.246   2.294
47816SOL    HW145287   6.401   8.227   2.383
47816SOL    HW245288   6.448   8.239   2.239
47817SOL     OW45289   7.110   7.058   3.966
47817SOL    HW145290   7.165   7.075   4.043
47817SOL    HW245291   7.172   7.045   3.895
47818SOL     OW45292  12.474  14.046  12.037
47818SOL    HW145293  12.516  14.128  12.010
47818SOL    HW245294  12.529  14.013  12.108
47819SOL     OW45295   4.730   6.316  13.803
47819SOL    HW145296   4.722   6.392  13.861
47819SOL    HW245297   4.823   6.311  13.782
47820SOL     OW45298   5.955  13.320   1.575
47820SOL    HW145299   6.026  13.263   1.544
47820SOL    HW245300   5.877  13.266   1.573
47821SOL     OW45301  10.664  11.581   7.060
47821SOL    HW145302  10.619  11.584   7.145
47821SOL    HW245303  10.722  11.505   7.066
47822SOL     OW45304  10.944  14.734  14.516
47822SOL    HW145305  10.864  14.693  14.547
47822SOL    HW245306  11.010  14.665  14.523
47823SOL     OW45307  11.529   2.844   8.360
47823SOL    HW145308  11.534   2.939   8.351
47823SOL    HW245309  11.478   2.831   8.440
47824SOL     OW45310   9.697  13.230   2.946
47824SOL    HW145311   9.699  13.325   2.933
47824SOL    HW245312   9.705  13.193   2.858
47825SOL     OW45313   3.831   9.680   2.295
47825SOL    HW145314   3.887   9.624   2.349
47825SOL    HW245315   3.754   9.698   2.349
47826SOL     OW45316   4.629  10.110   6.155
47826SOL    HW145317   4.682  10.030   6.150
47826SOL    HW245318   4.590  10.108   6.242
47827SOL     OW45319   3.688  13.351   4.843
47827SOL    HW145320   3.639  13.306   4.912
47827SOL    HW245321   3.711  13.282   4.781
47828SOL     OW45322   6.067   1.623   2.791
47828SOL    HW145323   5.995   1.673   2.754
47828SOL    HW245324   6.119   1.596   2.716
47829SOL     OW45325   8.215   7.626   2.297
47829SOL    HW145326   8.219   7.665   2.385
47829SOL    HW245327   8.297   7.651   2.256
47830SOL     OW45328   8.267  14.649   2.854
47830SOL    HW145329   8.222  14.613   2.777
47830SOL    HW245330   8.324  14.578   2.884
47831SOL     OW45331   5.949   5.797   1.486
47831SOL    HW145332   5.988   5.751   1.411
47831SOL    HW245333   6.019   5.796   1.552
47832SOL     OW45334  13.140   1.268   5.595
47832SOL    HW145335  13.224   1.239   5.630
47832SOL    HW245336  13.162   1.337   5.533
47833SOL     OW45337   4.431   9.457  11.464
47833SOL    HW145338   4.457   9.428  11.377
47833SOL    HW245339   4.408   9.549  11.454
47834SOL     OW45340   6.252   8.974  11.401
47834SOL    HW145341   6.249   8.938  11.312
47834SOL    HW245342   6.283   9.064  11.390
47835SOL     OW45343   6.507   8.904   9.774
47835SOL    HW145344   6.495   8.997   9.755
47835SOL    HW245345   6.442   8.859   9.721
47836SOL     OW45346   2.225   8.194   6.789
47836SOL    HW145347   2.288   8.244   6.737
47836SOL    HW245348   2.166   8.156   6.725
47837SOL     OW45349  11.668   5.128   9.246
47837SOL    HW145350  11.713   5.100   9.326
47837SOL    HW245351  11.738   5.146   9.184
47838SOL     OW45352   5.372   0.439   9.989
47838SOL    HW145353   5.447   0.497   9.980
47838SOL    HW245354   5.296   0.497   9.988
47839SOL     OW45355   9.526   1.394   7.830
47839SOL    HW145356   9.498   1.430   7.914
47839SOL    HW245357   9.447   1.353   7.794
47840SOL     OW45358   7.392   3.279  12.834
47840SOL    HW145359   7.394   3.366  12.795
47840SOL    HW245360   7.376   3.294  12.927
47841SOL     OW45361   8.970  14.835   9.482
47841SOL    HW145362   8.883   0.002   9.482
47841SOL    HW245363   9.014   0.002   9.408
47842SOL     OW45364   7.846   3.252   7.340
47842SOL    HW145365   7.814   3.213   7.421
47842SOL    HW245366   7.903   3.323   7.368
47843SOL     OW45367  14.152  14.741   2.026
47843SOL    HW145368  14.065  14.711   1.999
47843SOL    HW245369  14.145  14.753   2.121
47844SOL     OW45370   2.425   7.433  11.689
47844SOL    HW145371   2.498   7.377  11.714
47844SOL    HW245372   2.414   7.418  11.596
47845SOL     OW45373   0.763   0.567   8.817
47845SOL    HW145374   0.740   0.569   8.724
47845SOL    HW245375   0.718   0.490   8.852
47846SOL     OW45376  10.798   7.163   7.771
47846SOL    HW145377  10.809   7.200   7.684
47846SOL    HW245378  10.851   7.219   7.828
47847SOL     OW45379   5.985  14.686   1.765
47847SOL    HW145380   5.915  14.672   1.829
47847SOL    HW245381   6.066  14.685   1.817
47848SOL     OW45382   7.084   8.292  10.670
47848SOL    HW145383   7.011   8.251  10.625
47848SOL    HW245384   7.110   8.229  10.738
47849SOL     OW45385   3.056   1.969   0.029
47849SOL    HW145386   3.091   1.893  14.855
47849SOL    HW245387   3.090   2.045  14.854
47850SOL     OW45388   4.079   5.921   9.091
47850SOL    HW145389   4.013   5.859   9.122
47850SOL    HW245390   4.044   6.007   9.114
47851SOL     OW45391  12.659  10.486   1.667
47851SOL    HW145392  12.577  10.532   1.682
47851SOL    HW245393  12.715  10.513   1.740
47852SOL     OW45394  13.573   4.987   2.855
47852SOL    HW145395  13.537   5.059   2.906
47852SOL    HW245396  13.503   4.921   2.855
47853SOL     OW45397   0.098   3.523   8.913
47853SOL    HW145398   0.018   3.494   8.869
47853SOL    HW245399   0.088   3.490   9.003
47854SOL     OW45400  12.619  10.628   0.848
47854SOL    HW145401  12.614  10.705   0.791
47854SOL    HW245402  12.661  10.660   0.928
47855SOL     OW45403  13.154   8.062   8.794
47855SOL    HW145404  13.167   8.004   8.868
47855SOL    HW245405  13.079   8.116   8.819
47856SOL     OW45406   3.191   8.269   1.821
47856SOL    HW145407   3.278   8.307   1.805
47856SOL    HW245408   3.207   8.196   1.881
47857SOL     OW45409  12.340   3.172   9.132
47857SOL    HW145410  12.334   3.080   9.107
47857SOL    HW245411  12.433   3.193   9.121
47858SOL     OW45412   6.114   9.812   6.481
47858SOL    HW145413   6.054   9.786   6.551
47858SOL    HW245414   6.186   9.856   6.526
47859SOL     OW45415   7.311   6.782   5.723
47859SOL    HW145416   7.238   6.844   5.728
47859SOL    HW245417   7.280   6.713   5.664
47860SOL     OW45418   4.792   3.587   2.930
47860SOL    HW145419   4.833   3.667   2.897
47860SOL    HW245420   4.717   3.618   2.981
47861SOL     OW45421  10.004   2.497   1.428
47861SOL    HW145422  10.051   2.455   1.500
47861SOL    HW245423  10.020   2.591   1.441
47862SOL     OW45424  11.827   0.400   1.471
47862SOL    HW145425  11.781   0.346   1.406
47862SOL    HW245426  11.815   0.489   1.440
47863SOL     OW45427   0.378   5.338  11.300
47863SOL    HW145428   0.374   5.242  11.298
47863SOL    HW245429   0.418   5.362  11.216
47864SOL     OW45430   4.071   9.097   5.066
47864SOL    HW145431   4.087   9.003   5.055
47864SOL    HW245432   4.121   9.122   5.143
47865SOL     OW45433   0.242   4.541  13.110
47865SOL    HW145434   0.302   4.471  13.137
47865SOL    HW245435   0.177   4.545  13.181
47866SOL     OW45436   2.872   5.618   5.565
47866SOL    HW145437   2.944   5.571   5.607
47866SOL    HW245438   2.897   5.710   5.572
47867SOL     OW45439   0.582   5.431   4.099
47867SOL    HW145440   0.575   5.368   4.170
47867SOL    HW245441   0.493   5.465   4.088
47868SOL     OW45442   8.803   5.478  10.184
47868SOL    HW145443   8.782   5.475  10.091
47868SOL    HW245444   8.757   5.556  10.217
47869SOL     OW45445   8.340  10.961   1.115
47869SOL    HW145446   8.423  10.941   1.160
47869SOL    HW245447   8.280  10.893   1.146
47870SOL     OW45448  14.277  12.468   5.653
47870SOL    HW145449  14.204  12.408   5.667
47870SOL    HW245450  14.351  12.426   5.697
47871SOL     OW45451  13.743   8.869   0.310
47871SOL    HW145452  13.749   8.952   0.358
47871SOL    HW245453  13.751   8.894   0.218
47872SOL     OW45454  13.923   8.965   1.322
47872SOL    HW145455  13.881   9.043   1.357
47872SOL    HW245456  13.983   8.998   1.255
47873SOL     OW45457   1.175   8.932  13.098
47873SOL    HW145458   1.131   8.906  13.017
47873SOL    HW245459   1.241   8.865  13.112
47874SOL     OW45460   1.446  11.120  11.422
47874SOL    HW145461   1.484  11.064  11.354
47874SOL    HW245462   1.519  11.138  11.481
47875SOL     OW45463   1.369   4.749   8.019
47875SOL    HW145464   1.461   4.729   8.036
47875SOL    HW245465   1.369   4.791   7.932
47876SOL     OW45466   0.603  12.044  13.583
47876SOL    HW145467   0.650  11.966  13.554
47876SOL    HW245468   0.578  12.025  13.673
47877SOL     OW45469   3.980   3.057   8.239
47877SOL    HW145470   4.059   3.015   8.203
47877SOL    HW245471   3.953   2.999   8.310
47878SOL     OW45472   6.766  12.370   9.941
47878SOL    HW145473   6.703  12.303   9.968
47878SOL    HW245474   6.714  12.450   9.932
47879SOL     OW45475  13.077  12.924   2.292
47879SOL    HW145476  13.133  12.847   2.285
47879SOL    HW245477  13.064  12.937   2.386
47880SOL     OW45478   7.339  13.960  11.175
47880SOL    HW145479   7.247  13.946  11.154
47880SOL    HW245480   7.381  13.876  11.154
47881SOL     OW45481  11.658   0.861  13.558
47881SOL    HW145482  11.622   0.775  13.582
47881SOL    HW245483  11.675   0.903  13.642
47882SOL     OW45484   0.550   6.708  12.162
47882SOL    HW145485   0.474   6.748  12.204
47882SOL    HW245486   0.515   6.668  12.082
47883SOL     OW45487   2.556  13.300   9.457
47883SOL    HW145488   2.490  13.345   9.403
47883SOL    HW245489   2.510  13.222   9.490
47884SOL     OW45490   8.850   4.795   4.533
47884SOL    HW145491   8.796   4.763   4.460
47884SOL    HW245492   8.885   4.879   4.502
47885SOL     OW45493   8.850   2.201   3.490
47885SOL    HW145494   8.857   2.106   3.499
47885SOL    HW245495   8.756   2.218   3.485
47886SOL     OW45496   5.637   6.082   0.657
47886SOL    HW145497   5.665   6.133   0.580
47886SOL    HW245498   5.630   6.147   0.727
47887SOL     OW45499  13.670   5.452  10.725
47887SOL    HW145500  13.631   5.427  10.809
47887SOL    HW245501  13.726   5.379  10.701
47888SOL     OW45502   6.183  11.333   2.066
47888SOL    HW145503   6.171  11.258   2.124
47888SOL    HW245504   6.180  11.296   1.978
47889SOL     OW45505   8.423   6.203   2.116
47889SOL    HW145506   8.374   6.232   2.039
47889SOL    HW245507   8.500   6.160   2.080
47890SOL     OW45508  11.752   2.182   0.543
47890SOL    HW145509  11.746   2.102   0.490
47890SOL    HW245510  11.675   2.233   0.518
47891SOL     OW45511   3.257   6.963  11.999
47891SOL    HW145512   3.221   6.891  12.051
47891SOL    HW245513   3.182   7.018  11.979
47892SOL     OW45514   0.817  14.803  12.287
47892SOL    HW145515   0.790  14.868  12.222
47892SOL    HW245516   0.737  14.751  12.303
47893SOL     OW45517   9.479   6.787   3.363
47893SOL    HW145518   9.473   6.699   3.400
47893SOL    HW245519   9.443   6.778   3.274
47894SOL     OW45520   4.961  11.814  10.074
47894SOL    HW145521   4.877  11.769  10.061
47894SOL    HW245522   4.941  11.907  10.061
47895SOL     OW45523  12.985  10.611   4.640
47895SOL    HW145524  12.984  10.705   4.625
47895SOL    HW245525  12.935  10.599   4.721
47896SOL     OW45526   3.879   0.766  14.058
47896SOL    HW145527   3.902   0.774  13.965
47896SOL    HW245528   3.792   0.728  14.058
47897SOL     OW45529   9.948  13.005  13.497
47897SOL    HW145530   9.911  13.087  13.463
47897SOL    HW245531  10.009  13.033  13.565
47898SOL     OW45532   9.817   0.536  11.817
47898SOL    HW145533   9.761   0.463  11.843
47898SOL    HW245534   9.890   0.534  11.879
47899SOL     OW45535  14.589   5.464   2.579
47899SOL    HW145536  14.522   5.430   2.519
47899SOL    HW245537  14.541   5.523   2.638
47900SOL     OW45538   5.605  13.378   7.135
47900SOL    HW145539   5.574  13.329   7.059
47900SOL    HW245540   5.653  13.452   7.099
47901SOL     OW45541   5.623  10.718  10.365
47901SOL    HW145542   5.699  10.661  10.361
47901SOL    HW245543   5.557  10.675  10.310
47902SOL     OW45544  12.236   9.927   6.138
47902SOL    HW145545  12.285   9.999   6.099
47902SOL    HW245546  12.268   9.923   6.228
47903SOL     OW45547   3.364   2.474   1.450
47903SOL    HW145548   3.365   2.455   1.544
47903SOL    HW245549   3.435   2.422   1.413
47904SOL     OW45550   2.029   1.215   6.541
47904SOL    HW145551   2.105   1.240   6.594
47904SOL    HW245552   1.959   1.274   6.571
47905SOL     OW45553  14.114   0.460   6.267
47905SOL    HW145554  14.075   0.547   6.271
47905SOL    HW245555  14.046   0.405   6.227
47906SOL     OW45556   9.384   1.285   5.532
47906SOL    HW145557   9.428   1.331   5.604
47906SOL    HW245558   9.291   1.290   5.554
47907SOL     OW45559  12.616  14.570   4.558
47907SOL    HW145560  12.666  14.498   4.596
47907SOL    HW245561  12.604  14.632   4.630
47908SOL     OW45562   2.043   6.326   3.953
47908SOL    HW145563   2.090   6.303   4.033
47908SOL    HW245564   2.101   6.299   3.882
47909SOL     OW45565   6.545   2.908  10.347
47909SOL    HW145566   6.638   2.901  10.366
47909SOL    HW245567   6.523   2.826  10.303
47910SOL     OW45568   6.222   2.935  13.743
47910SOL    HW145569   6.282   2.896  13.680
47910SOL    HW245570   6.249   3.026  13.751
47911SOL     OW45571   9.853   3.565   0.409
47911SOL    HW145572   9.904   3.535   0.485
47911SOL    HW245573   9.833   3.656   0.429
47912SOL     OW45574   6.230  11.962  11.923
47912SOL    HW145575   6.260  12.024  11.989
47912SOL    HW245576   6.157  12.006  11.880
47913SOL     OW45577   9.581  14.108   2.973
47913SOL    HW145578   9.523  14.033   2.960
47913SOL    HW245579   9.668  14.070   2.983
47914SOL     OW45580   1.193  11.611   2.314
47914SOL    HW145581   1.166  11.540   2.256
47914SOL    HW245582   1.264  11.574   2.366
47915SOL     OW45583  10.963  11.893  13.008
47915SOL    HW145584  11.048  11.938  13.016
47915SOL    HW245585  10.964  11.855  12.920
47916SOL     OW45586  10.230  13.543   0.676
47916SOL    HW145587  10.215  13.625   0.723
47916SOL    HW245588  10.158  13.487   0.703
47917SOL     OW45589   7.914  14.481   3.998
47917SOL    HW145590   7.978  14.521   3.938
47917SOL    HW245591   7.918  14.387   3.979
47918SOL     OW45592   9.914   4.140   6.138
47918SOL    HW145593   9.909   4.205   6.068
47918SOL    HW245594   9.992   4.165   6.189
47919SOL     OW45595   3.278   5.242   8.894
47919SOL    HW145596   3.197   5.210   8.856
47919SOL    HW245597   3.312   5.168   8.945
47920SOL     OW45598  13.118  13.669   6.961
47920SOL    HW145599  13.024  13.649   6.964
47920SOL    HW245600  13.123  13.755   6.922
47921SOL     OW45601   3.409  11.160  12.524
47921SOL    HW145602   3.323  11.182  12.490
47921SOL    HW245603   3.460  11.241  12.514
47922SOL     OW45604   3.910  10.805   2.939
47922SOL    HW145605   3.918  10.713   2.913
47922SOL    HW245606   3.996  10.843   2.920
47923SOL     OW45607  14.228  10.740   3.842
47923SOL    HW145608  14.241  10.645   3.848
47923SOL    HW245609  14.137  10.753   3.868
47924SOL     OW45610   4.415   9.233   8.668
47924SOL    HW145611   4.340   9.287   8.643
47924SOL    HW245612   4.441   9.267   8.754
47925SOL     OW45613  14.828  11.966  12.749
47925SOL    HW145614  14.817  12.060  12.765
47925SOL    HW245615  14.769  11.948  12.676
47926SOL     OW45616   7.776  11.516   7.727
47926SOL    HW145617   7.806  11.604   7.751
47926SOL    HW245618   7.764  11.471   7.810
47927SOL     OW45619   0.022   6.431   7.335
47927SOL    HW145620  14.812   6.473   7.359
47927SOL    HW245621  14.869   6.351   7.289
47928SOL     OW45622   6.081  13.994   9.311
47928SOL    HW145623   6.015  13.924   9.313
47928SOL    HW245624   6.044  14.059   9.252
47929SOL     OW45625  11.300   5.790  11.528
47929SOL    HW145626  11.347   5.747  11.600
47929SOL    HW245627  11.251   5.860  11.572
47930SOL     OW45628  13.143   5.791   2.205
47930SOL    HW145629  13.155   5.816   2.296
47930SOL    HW245630  13.054   5.819   2.184
47931SOL     OW45631   9.772  14.609   2.248
47931SOL    HW145632   9.733  14.566   2.324
47931SOL    HW245633   9.852  14.559   2.230
47932SOL     OW45634   3.864  13.066   0.204
47932SOL    HW145635   3.790  13.097   0.152
47932SOL    HW245636   3.919  13.144   0.216
47933SOL     OW45637  11.577  12.142   5.147
47933SOL    HW145638  11.496  12.194   5.152
47933SOL    HW245639  11.569  12.095   5.064
47934SOL     OW45640  10.613   6.790  11.447
47934SOL    HW145641  10.577   6.722  11.504
47934SOL    HW245642  10.681   6.832  11.501
47935SOL     OW45643  12.671  10.785   5.615
47935SOL    HW145644  12.631  10.755   5.533
47935SOL    HW245645  12.734  10.852   5.587
47936SOL     OW45646   1.594   7.853   8.854
47936SOL    HW145647   1.526   7.894   8.801
47936SOL    HW245648   1.675   7.868   8.804
47937SOL     OW45649   5.295   9.300   6.964
47937SOL    HW145650   5.282   9.232   6.897
47937SOL    HW245651   5.294   9.382   6.914
47938SOL     OW45652   4.144  10.546   3.979
47938SOL    HW145653   4.181  10.543   4.068
47938SOL    HW245654   4.205  10.493   3.927
47939SOL     OW45655  10.693  14.231  12.900
47939SOL    HW145656  10.599  14.231  12.917
47939SOL    HW245657  10.718  14.324  12.903
47940SOL     OW45658   0.834   8.483   9.756
47940SOL    HW145659   0.838   8.443   9.842
47940SOL    HW245660   0.909   8.446   9.708
47941SOL     OW45661   0.267   6.361   9.658
47941SOL    HW145662   0.271   6.286   9.598
47941SOL    HW245663   0.331   6.422   9.623
47942SOL     OW45664  11.204  13.159   4.575
47942SOL    HW145665  11.151  13.177   4.653
47942SOL    HW245666  11.152  13.095   4.526
47943SOL     OW45667  10.044   0.494   6.209
47943SOL    HW145668  10.007   0.552   6.275
47943SOL    HW245669  10.091   0.552   6.149
47944SOL     OW45670   6.122   7.242   7.791
47944SOL    HW145671   6.171   7.318   7.824
47944SOL    HW245672   6.043   7.279   7.753
47945SOL     OW45673   3.713   2.622   1.631
47945SOL    HW145674   3.773   2.575   1.690
47945SOL    HW245675   3.681   2.554   1.571
47946SOL     OW45676   9.394   8.114  12.786
47946SOL    HW145677   9.357   8.197  12.814
47946SOL    HW245678   9.346   8.048  12.836
47947SOL     OW45679  14.752  11.129   8.128
47947SOL    HW145680  14.761  11.096   8.217
47947SOL    HW245681  14.663  11.104   8.102
47948SOL     OW45682   5.389   9.918  14.041
47948SOL    HW145683   5.417   9.865  13.966
47948SOL    HW245684   5.310   9.875  14.073
47949SOL     OW45685  13.124   5.012  13.368
47949SOL    HW145686  13.132   4.974  13.455
47949SOL    HW245687  13.063   4.955  13.321
47950SOL     OW45688   9.590   8.397  14.643
47950SOL    HW145689   9.546   8.474  14.606
47950SOL    HW245690   9.573   8.327  14.580
47951SOL     OW45691   3.784   9.382   4.624
47951SOL    HW145692   3.718   9.367   4.556
47951SOL    HW245693   3.866   9.350   4.586
47952SOL     OW45694  12.060   7.283  12.063
47952SOL    HW145695  12.075   7.374  12.086
47952SOL    HW245696  12.139   7.237  12.094
47953SOL     OW45697   8.245   2.800   0.167
47953SOL    HW145698   8.154   2.772   0.165
47953SOL    HW245699   8.247   2.881   0.116
47954SOL     OW45700  13.512  10.716   5.175
47954SOL    HW145701  13.433  10.737   5.125
47954SOL    HW245702  13.581  10.713   5.109
47955SOL     OW45703   2.084  11.473   9.539
47955SOL    HW145704   2.156  11.411   9.529
47955SOL    HW245705   2.096  11.535   9.468
47956SOL     OW45706  14.513  12.873   7.944
47956SOL    HW145707  14.570  12.803   7.914
47956SOL    HW245708  14.424  12.838   7.937
47957SOL     OW45709  13.286  12.102  10.708
47957SOL    HW145710  13.328  12.041  10.647
47957SOL    HW245711  13.288  12.186  10.664
47958SOL     OW45712   1.817   9.356   7.436
47958SOL    HW145713   1.770   9.385   7.358
47958SOL    HW245714   1.907   9.388   7.422
47959SOL     OW45715   0.454   3.613  11.388
47959SOL    HW145716   0.483   3.696  11.427
47959SOL    HW245717   0.368   3.597  11.427
47960SOL     OW45718   8.001  13.850   9.207
47960SOL    HW145719   8.000  13.754   9.199
47960SOL    HW245720   7.920  13.878   9.165
47961SOL     OW45721   8.369  10.998  14.137
47961SOL    HW145722   8.388  10.985  14.230
47961SOL    HW245723   8.274  11.012  14.134
47962SOL     OW45724  14.168  13.699   2.170
47962SOL    HW145725  14.224  13.775   2.154
47962SOL    HW245726  14.217  13.646   2.233
47963SOL     OW45727   0.572  10.953   4.859
47963SOL    HW145728   0.534  10.908   4.783
47963SOL    HW245729   0.583  11.043   4.831
47964SOL     OW45730   0.857   0.587   5.852
47964SOL    HW145731   0.880   0.503   5.812
47964SOL    HW245732   0.890   0.653   5.790
47965SOL     OW45733  14.544   7.597   5.737
47965SOL    HW145734  14.475   7.663   5.733
47965SOL    HW245735  14.504   7.524   5.785
47966SOL     OW45736  13.360  11.193   5.814
47966SOL    HW145737  13.359  11.129   5.743
47966SOL    HW245738  13.270  11.225   5.819
47967SOL     OW45739   3.419   8.812   1.257
47967SOL    HW145740   3.500   8.808   1.206
47967SOL    HW245741   3.361   8.748   1.216
47968SOL     OW45742   5.914  13.691  14.826
47968SOL    HW145743   5.985  13.739  14.782
47968SOL    HW245744   5.858  13.760  14.861
47969SOL     OW45745   3.600   0.105   7.650
47969SOL    HW145746   3.586   0.066   7.564
47969SOL    HW245747   3.612   0.198   7.632
47970SOL     OW45748  11.514   6.027   4.781
47970SOL    HW145749  11.527   5.978   4.700
47970SOL    HW245750  11.420   6.046   4.783
47971SOL     OW45751  11.277  14.183   8.127
47971SOL    HW145752  11.270  14.213   8.218
47971SOL    HW245753  11.189  14.191   8.092
47972SOL     OW45754   6.423  14.234   6.911
47972SOL    HW145755   6.394  14.165   6.850
47972SOL    HW245756   6.360  14.230   6.983
47973SOL     OW45757   2.125   4.093   7.425
47973SOL    HW145758   2.199   4.056   7.377
47973SOL    HW245759   2.103   4.026   7.490
47974SOL     OW45760   1.319   6.898  13.291
47974SOL    HW145761   1.375   6.958  13.339
47974SOL    HW245762   1.262   6.954  13.238
47975SOL     OW45763   2.655   6.161   0.193
47975SOL    HW145764   2.662   6.103   0.268
47975SOL    HW245765   2.744   6.170   0.160
47976SOL     OW45766   5.385   3.022   0.693
47976SOL    HW145767   5.323   3.041   0.623
47976SOL    HW245768   5.340   3.048   0.773
47977SOL     OW45769   2.771   2.838   2.455
47977SOL    HW145770   2.768   2.933   2.454
47977SOL    HW245771   2.722   2.812   2.533
47978SOL     OW45772   2.060   9.215   9.967
47978SOL    HW145773   1.995   9.271   9.924
47978SOL    HW245774   2.091   9.157   9.897
47979SOL     OW45775   7.509  11.214   4.670
47979SOL    HW145776   7.425  11.258   4.665
47979SOL    HW245777   7.532  11.216   4.763
47980SOL     OW45778   0.594  11.792  10.237
47980SOL    HW145779   0.650  11.727  10.195
47980SOL    HW245780   0.547  11.834  10.165
47981SOL     OW45781   0.039   3.083   4.732
47981SOL    HW145782   0.095   3.030   4.675
47981SOL    HW245783  14.873   3.148   4.673
47982SOL     OW45784  11.147   9.554   8.830
47982SOL    HW145785  11.123   9.483   8.890
47982SOL    HW245786  11.124   9.634   8.876
47983SOL     OW45787  13.154  14.177   8.506
47983SOL    HW145788  13.153  14.081   8.499
47983SOL    HW245789  13.111  14.207   8.426
47984SOL     OW45790   3.458   6.277   2.953
47984SOL    HW145791   3.531   6.267   2.891
47984SOL    HW245792   3.492   6.240   3.035
47985SOL     OW45793   3.550   2.019  11.809
47985SOL    HW145794   3.485   2.030  11.878
47985SOL    HW245795   3.567   2.108  11.777
47986SOL     OW45796   6.460  13.359   8.345
47986SOL    HW145797   6.460  13.266   8.367
47986SOL    HW245798   6.484  13.403   8.427
47987SOL     OW45799   8.402   7.297  12.698
47987SOL    HW145800   8.363   7.246  12.770
47987SOL    HW245801   8.352   7.271  12.621
47988SOL     OW45802  14.757   3.280  11.829
47988SOL    HW145803  14.828   3.323  11.877
47988SOL    HW245804  14.752   3.327  11.746
47989SOL     OW45805   4.906   3.892  14.614
47989SOL    HW145806   4.900   3.983  14.645
47989SOL    HW245807   4.975   3.894  14.548
47990SOL     OW45808   6.175   7.597   4.003
47990SOL    HW145809   6.107   7.629   3.944
47990SOL    HW245810   6.178   7.661   4.074
47991SOL     OW45811   6.678   3.296   8.337
47991SOL    HW145812   6.674   3.368   8.274
47991SOL    HW245813   6.744   3.236   8.301
47992SOL     OW45814  10.997  11.129   8.008
47992SOL    HW145815  10.943  11.060   7.970
47992SOL    HW245816  11.069  11.141   7.946
47993SOL     OW45817   3.055   2.488   3.717
47993SOL    HW145818   3.083   2.573   3.681
47993SOL    HW245819   2.987   2.458   3.657
47994SOL     OW45820  14.759   0.448   9.509
47994SOL    HW145821  14.848   0.447   9.472
47994SOL    HW245822  14.718   0.370   9.473
47995SOL     OW45823   7.080   0.200   2.346
47995SOL    HW145824   7.015   0.266   2.322
47995SOL    HW245825   7.143   0.247   2.400
47996SOL     OW45826   7.881   3.056   9.074
47996SOL    HW145827   7.808   2.999   9.097
47996SOL    HW245828   7.851   3.102   8.995
47997SOL     OW45829   8.550   6.810   1.343
47997SOL    HW145830   8.563   6.826   1.249
47997SOL    HW245831   8.462   6.775   1.350
47998SOL     OW45832   6.304   0.614   6.322
47998SOL    HW145833   6.358   0.692   6.309
47998SOL    HW245834   6.258   0.602   6.239
47999SOL     OW45835   1.179   6.563   8.369
47999SOL    HW145836   1.249   6.628   8.366
47999SOL    HW245837   1.141   6.564   8.281
48000SOL     OW45838   3.745   1.235   0.854
48000SOL    HW145839   3.790   1.205   0.932
48000SOL    HW245840   3.666   1.278   0.887
48001SOL     OW45841   3.317  14.241   0.751
48001SOL    HW145842   3.361  14.248   0.666
48001SOL    HW245843   3.257  14.168   0.741
48002SOL     OW45844   4.944  12.712   3.345
48002SOL    HW145845   4.861  12.755   3.367
48002SOL    HW245846   4.928  12.671   3.260
48003SOL     OW45847   7.669  10.779  10.282
48003SOL    HW145848   7.752  10.820  10.306
48003SOL    HW245849   7.683  10.746  10.193
48004SOL     OW45850   2.081   8.302  11.869
48004SOL    HW145851   2.055   8.281  11.958
48004SOL    HW245852   2.052   8.227  11.817
48005SOL     OW45853  12.866   5.140   8.626
48005SOL    HW145854  12.779   5.101   8.614
48005SOL    HW245855  12.849   5.229   8.656
48006SOL     OW45856   2.258  14.511   1.703
48006SOL    HW145857   2.268  14.428   1.748
48006SOL    HW245858   2.196  14.492   1.632
48007SOL     OW45859   6.037   8.789   9.523
48007SOL    HW145860   6.016   8.770   9.432
48007SOL    HW245861   5.970   8.851   9.551
48008SOL     OW45862   3.760  14.065  14.182
48008SOL    HW145863   3.825  13.994  14.182
48008SOL    HW245864   3.678  14.023  14.157
48009SOL     OW45865   4.464   0.944  12.403
48009SOL    HW145866   4.558   0.929  12.408
48009SOL    HW245867   4.447   0.962  12.310
48010SOL     OW45868  14.553   1.284   0.451
48010SOL    HW145869  14.501   1.245   0.381
48010SOL    HW245870  14.638   1.240   0.444
48011SOL     OW45871   9.599   7.592   4.539
48011SOL    HW145872   9.534   7.661   4.554
48011SOL    HW245873   9.569   7.548   4.460
48012SOL     OW45874  10.509  14.043   4.499
48012SOL    HW145875  10.526  14.104   4.571
48012SOL    HW245876  10.562  14.076   4.426
48013SOL     OW45877   5.002   9.444   6.619
48013SOL    HW145878   4.964   9.489   6.543
48013SOL    HW245879   4.966   9.356   6.615
48014SOL     OW45880  12.941   6.725   0.464
48014SOL    HW145881  13.031   6.737   0.492
48014SOL    HW245882  12.894   6.799   0.502
48015SOL     OW45883  12.559   2.630   1.651
48015SOL    HW145884  12.648   2.624   1.619
48015SOL    HW245885  12.565   2.603   1.743
48016SOL     OW45886  13.067  13.163   2.603
48016SOL    HW145887  13.005  13.199   2.666
48016SOL    HW245888  13.089  13.237   2.546
48017SOL     OW45889  13.661   0.867  11.646
48017SOL    HW145890  13.569   0.890  11.662
48017SOL    HW245891  13.711   0.939  11.684
48018SOL     OW45892   9.361   2.760  11.097
48018SOL    HW145893   9.346   2.818  11.172
48018SOL    HW245894   9.431   2.701  11.126
48019SOL     OW45895   0.418   8.436   3.573
48019SOL    HW145896   0.391   8.527   3.585
48019SOL    HW245897   0.345   8.384   3.606
48020SOL     OW45898   0.864   4.754  14.419
48020SOL    HW145899   0.856   4.848  14.433
48020SOL    HW245900   0.933   4.726  14.479
48021SOL     OW45901   7.315   8.494  10.771
48021SOL    HW145902   7.378   8.551  10.814
48021SOL    HW245903   7.230   8.520  10.806
48022SOL     OW45904  13.917  13.576   3.110
48022SOL    HW145905  13.910  13.492   3.064
48022SOL    HW245906  13.870  13.637   3.054
48023SOL     OW45907   3.816   4.728  14.205
48023SOL    HW145908   3.733   4.700  14.243
48023SOL    HW245909   3.880   4.714  14.275
48024SOL     OW45910   6.877  13.669  10.842
48024SOL    HW145911   6.792  13.709  10.827
48024SOL    HW245912   6.865  13.576  10.823
48025SOL     OW45913   4.395  10.651   8.053
48025SOL    HW145914   4.311  10.666   8.011
48025SOL    HW245915   4.449  10.611   7.986
48026SOL     OW45916   4.433  11.115  11.636
48026SOL    HW145917   4.388  11.189  11.595
48026SOL    HW245918   4.514  11.105  11.586
48027SOL     OW45919  14.338  12.800   1.404
48027SOL    HW145920  14.287  12.744   1.346
48027SOL    HW245921  14.429  12.774   1.390
48028SOL     OW45922   7.652   8.155   2.464
48028SOL    HW145923   7.703   8.074   2.460
48028SOL    HW245924   7.622   8.169   2.375
48029SOL     OW45925   3.587   2.267   3.459
48029SOL    HW145926   3.561   2.340   3.516
48029SOL    HW245927   3.584   2.190   3.516
48030SOL     OW45928  11.206   2.206   4.986
48030SOL    HW145929  11.117   2.180   4.961
48030SOL    HW245930  11.194   2.260   5.064
48031SOL     OW45931   8.906   6.407   5.771
48031SOL    HW145932   8.849   6.410   5.848
48031SOL    HW245933   8.898   6.494   5.731
48032SOL     OW45934  10.098   9.467  11.121
48032SOL    HW145935  10.039   9.392  11.132
48032SOL    HW245936  10.054   9.523  11.058
48033SOL     OW45937   2.191  14.710  11.001
48033SOL    HW145938   2.246  14.672  11.069
48033SOL    HW245939   2.223  14.671  10.920
48034SOL     OW45940   3.475   4.325   8.756
48034SOL    HW145941   3.525   4.390   8.806
48034SOL    HW245942   3.393   4.370   8.736
48035SOL     OW45943   6.495  13.532  12.886
48035SOL    HW145944   6.578  13.578  12.896
48035SOL    HW245945   6.435  13.576  12.946
48036SOL     OW45946   1.170   6.402   6.407
48036SOL    HW145947   1.088   6.353   6.396
48036SOL    HW245948   1.221   6.382   6.329
48037SOL     OW45949   7.278  12.864   9.468
48037SOL    HW145950   7.225  12.796   9.511
48037SOL    HW245951   7.214  12.928   9.438
48038SOL     OW45952   9.371  13.297  12.539
48038SOL    HW145953   9.462  13.320  12.558
48038SOL    HW245954   9.376  13.206  12.509
48039SOL     OW45955   8.864   0.253   5.938
48039SOL    HW145956   8.858   0.222   5.848
48039SOL    HW245957   8.837   0.345   5.934
48040SOL     OW45958  12.301   5.037   1.619
48040SOL    HW145959  12.289   5.130   1.637
48040SOL    HW245960  12.249   4.992   1.685
48041SOL     OW45961   6.488   2.303   7.263
48041SOL    HW145962   6.503   2.276   7.172
48041SOL    HW245963   6.393   2.304   7.272
48042SOL     OW45964   5.000   6.421   8.245
48042SOL    HW145965   5.035   6.486   8.183
48042SOL    HW245966   5.029   6.337   8.210
48043SOL     OW45967  11.958  10.734   9.972
48043SOL    HW145968  11.894  10.667   9.998
48043SOL    HW245969  11.979  10.713   9.882
48044SOL     OW45970   4.523   9.541   7.699
48044SOL    HW145971   4.476   9.611   7.744
48044SOL    HW245972   4.461   9.508   7.634
48045SOL     OW45973   7.157   5.387  14.828
48045SOL    HW145974   7.103   5.341  14.764
48045SOL    HW245975   7.108   5.467  14.847
48046SOL     OW45976   2.287   1.135   8.675
48046SOL    HW145977   2.217   1.197   8.656
48046SOL    HW245978   2.353   1.186   8.723
48047SOL     OW45979   9.920  13.639   8.125
48047SOL    HW145980   9.953  13.668   8.211
48047SOL    HW245981   9.921  13.719   8.072
48048SOL     OW45982   0.187   5.056   1.070
48048SOL    HW145983   0.151   5.128   1.121
48048SOL    HW245984   0.236   5.003   1.133
48049SOL     OW45985   0.734   2.302   5.793
48049SOL    HW145986   0.639   2.290   5.799
48049SOL    HW245987   0.761   2.244   5.722
48050SOL     OW45988  12.950   8.566   7.022
48050SOL    HW145989  12.855   8.572   7.009
48050SOL    HW245990  12.984   8.541   6.936
48051SOL     OW45991   2.186   7.963   4.411
48051SOL    HW145992   2.094   7.970   4.436
48051SOL    HW245993   2.208   7.870   4.425
48052SOL     OW45994  10.639   5.701   8.505
48052SOL    HW145995  10.616   5.693   8.412
48052SOL    HW245996  10.559   5.676   8.551
48053SOL     OW45997   0.641   7.473   2.254
48053SOL    HW145998   0.572   7.408   2.236
48053SOL    HW245999   0.614   7.550   2.205
48054SOL     OW46000  10.119   6.681   6.666
48054SOL    HW146001  10.171   6.715   6.739
48054SOL    HW246002  10.175   6.615   6.625
48055SOL     OW46003  10.195  10.756  12.006
48055SOL    HW146004  10.123  10.781  11.948
48055SOL    HW246005  10.202  10.827  12.069
48056SOL     OW46006   3.891   5.768  11.560
48056SOL    HW146007   3.845   5.822  11.495
48056SOL    HW246008   3.976   5.750  11.520
48057SOL     OW46009   3.784   6.928   6.052
48057SOL    HW146010   3.825   6.962   6.131
48057SOL    HW246011   3.842   6.956   5.981
48058SOL     OW46012   9.484   0.177   0.307
48058SOL    HW146013   9.523   0.095   0.279
48058SOL    HW246014   9.556   0.227   0.345
48059SOL     OW46015  10.471  12.848   9.936
48059SOL    HW146016  10.445  12.778   9.996
48059SOL    HW246017  10.483  12.804   9.852
48060SOL     OW46018   1.922  10.287   7.304
48060SOL    HW146019   1.834  10.252   7.291
48060SOL    HW246020   1.910  10.382   7.307
48061SOL     OW46021   8.548  13.805   8.440
48061SOL    HW146022   8.520  13.893   8.415
48061SOL    HW246023   8.485  13.778   8.507
48062SOL     OW46024   6.259   1.988   4.627
48062SOL    HW146025   6.350   1.999   4.653
48062SOL    HW246026   6.219   1.942   4.701
48063SOL     OW46027   9.989  11.183  12.429
48063SOL    HW146028  10.061  11.237  12.396
48063SOL    HW246029  10.032  11.107  12.467
48064SOL     OW46030  14.650   4.195  13.289
48064SOL    HW146031  14.601   4.137  13.346
48064SOL    HW246032  14.583   4.248  13.245
48065SOL     OW46033  12.212   6.583  13.081
48065SOL    HW146034  12.262   6.616  13.155
48065SOL    HW246035  12.274   6.533  13.029
48066SOL     OW46036   5.093  10.317   8.973
48066SOL    HW146037   5.014  10.357   8.935
48066SOL    HW246038   5.091  10.226   8.942
48067SOL     OW46039  12.535   6.001   7.280
48067SOL    HW146040  12.524   6.014   7.374
48067SOL    HW246041  12.537   6.089   7.243
48068SOL     OW46042  13.948  12.849  13.441
48068SOL    HW146043  14.033  12.813  13.417
48068SOL    HW246044  13.962  12.889  13.527
48069SOL     OW46045   2.014   8.645   4.711
48069SOL    HW146046   1.920   8.644   4.731
48069SOL    HW246047   2.035   8.554   4.689
48070SOL     OW46048   2.150   4.678   4.966
48070SOL    HW146049   2.073   4.735   4.962
48070SOL    HW246050   2.173   4.663   4.874
48071SOL     OW46051   7.394  14.546   7.670
48071SOL    HW146052   7.465  14.572   7.730
48071SOL    HW246053   7.342  14.626   7.659
48072SOL     OW46054   9.041   7.451  14.702
48072SOL    HW146055   9.136   7.445  14.708
48072SOL    HW246056   9.024   7.541  14.675
48073SOL     OW46057   7.715   1.352   2.032
48073SOL    HW146058   7.683   1.338   1.943
48073SOL    HW246059   7.664   1.426   2.065
48074SOL     OW46060   7.071   6.032  14.415
48074SOL    HW146061   6.994   5.984  14.445
48074SOL    HW246062   7.078   6.106  14.474
48075SOL     OW46063   2.121  11.616   9.104
48075SOL    HW146064   2.173  11.682   9.058
48075SOL    HW246065   2.059  11.584   9.038
48076SOL     OW46066   3.236  11.603   5.158
48076SOL    HW146067   3.286  11.592   5.077
48076SOL    HW246068   3.199  11.517   5.176
48077SOL     OW46069   7.360  12.668  12.927
48077SOL    HW146070   7.444  12.674  12.974
48077SOL    HW246071   7.300  12.629  12.991
48078SOL     OW46072   1.342   8.355   6.471
48078SOL    HW146073   1.273   8.316   6.526
48078SOL    HW246074   1.296   8.418   6.416
48079SOL     OW46075   3.208   1.797   6.925
48079SOL    HW146076   3.247   1.884   6.924
48079SOL    HW246077   3.114   1.813   6.938
48080SOL     OW46078  10.825  11.895  10.822
48080SOL    HW146079  10.884  11.870  10.751
48080SOL    HW246080  10.821  11.990  10.818
48081SOL     OW46081  14.793  10.148   4.199
48081SOL    HW146082  14.716  10.096   4.176
48081SOL    HW246083  14.852  10.138   4.125
48082SOL     OW46084   4.832   3.617   1.551
48082SOL    HW146085   4.906   3.652   1.502
48082SOL    HW246086   4.768   3.593   1.484
48083SOL     OW46087  11.111   3.387  12.056
48083SOL    HW146088  11.085   3.296  12.062
48083SOL    HW246089  11.098   3.410  11.964
48084SOL     OW46090   3.944   3.897  11.099
48084SOL    HW146091   3.913   3.814  11.064
48084SOL    HW246092   4.039   3.887  11.104
48085SOL     OW46093   4.842  11.596  11.811
48085SOL    HW146094   4.778  11.526  11.799
48085SOL    HW246095   4.920  11.566  11.764
48086SOL     OW46096   1.167   6.512   6.836
48086SOL    HW146097   1.199   6.475   6.919
48086SOL    HW246098   1.076   6.534   6.854
48087SOL     OW46099  12.353   9.324   4.267
48087SOL    HW146100  12.394   9.404   4.300
48087SOL    HW246101  12.326   9.277   4.345
48088SOL     OW46102  11.154   4.302   9.853
48088SOL    HW146103  11.131   4.394   9.839
48088SOL    HW246104  11.247   4.296   9.833
48089SOL     OW46105  12.821   8.037  12.940
48089SOL    HW146106  12.915   8.054  12.943
48089SOL    HW246107  12.811   7.962  12.883
48090SOL     OW46108  14.180   2.075  11.545
48090SOL    HW146109  14.236   2.001  11.522
48090SOL    HW246110  14.241   2.149  11.551
48091SOL     OW46111  14.236  11.282  12.358
48091SOL    HW146112  14.207  11.191  12.348
48091SOL    HW246113  14.219  11.322  12.273
48092SOL     OW46114   3.735   1.195   6.186
48092SOL    HW146115   3.647   1.206   6.223
48092SOL    HW246116   3.792   1.242   6.246
48093SOL     OW46117  13.574   0.104   7.094
48093SOL    HW146118  13.664   0.130   7.077
48093SOL    HW246119  13.521   0.180   7.070
48094SOL     OW46120  12.123   5.809   7.028
48094SOL    HW146121  12.139   5.895   6.988
48094SOL    HW246122  12.033   5.813   7.059
48095SOL     OW46123   6.820   8.421  11.811
48095SOL    HW146124   6.874   8.500  11.819
48095SOL    HW246125   6.801   8.414  11.718
48096SOL     OW46126  14.187   5.831   4.112
48096SOL    HW146127  14.127   5.764   4.146
48096SOL    HW246128  14.236   5.861   4.189
48097SOL     OW46129   1.411  13.817  12.406
48097SOL    HW146130   1.473  13.822  12.479
48097SOL    HW246131   1.346  13.752  12.435
48098SOL     OW46132   5.708   8.836   3.723
48098SOL    HW146133   5.625   8.862   3.685
48098SOL    HW246134   5.704   8.868   3.814
48099SOL     OW46135   9.617   1.122   9.051
48099SOL    HW146136   9.621   1.175   9.131
48099SOL    HW246137   9.702   1.077   9.048
48100SOL     OW46138  14.560  12.241   4.859
48100SOL    HW146139  14.563  12.148   4.880
48100SOL    HW246140  14.584  12.245   4.766
48101SOL     OW46141   5.744   7.654   6.980
48101SOL    HW146142   5.706   7.697   7.057
48101SOL    HW246143   5.687   7.681   6.907
48102SOL     OW46144   9.426   8.465   6.354
48102SOL    HW146145   9.358   8.472   6.287
48102SOL    HW246146   9.464   8.553   6.359
48103SOL     OW46147   9.685  13.133  12.754
48103SOL    HW146148   9.671  13.071  12.683
48103SOL    HW246149   9.659  13.218  12.717
48104SOL     OW46150  11.565  14.322   0.195
48104SOL    HW146151  11.606  14.236   0.196
48104SOL    HW246152  11.591  14.362   0.278
48105SOL     OW46153   0.492   5.615   8.366
48105SOL    HW146154   0.435   5.653   8.298
48105SOL    HW246155   0.452   5.530   8.386
48106SOL     OW46156  12.635  10.445   0.396
48106SOL    HW146157  12.659  10.477   0.309
48106SOL    HW246158  12.591  10.519   0.438
48107SOL     OW46159   3.478  10.036   6.638
48107SOL    HW146160   3.572  10.049   6.650
48107SOL    HW246161   3.448  10.116   6.595
48108SOL     OW46162  12.229  10.862   8.265
48108SOL    HW146163  12.205  10.792   8.326
48108SOL    HW246164  12.145  10.895   8.232
48109SOL     OW46165   0.185  13.425   1.880
48109SOL    HW146166   0.264  13.477   1.896
48109SOL    HW246167   0.218  13.337   1.862
48110SOL     OW46168  13.880   4.318   0.167
48110SOL    HW146169  13.906   4.269   0.245
48110SOL    HW246170  13.822   4.386   0.200
48111SOL     OW46171   1.087  10.164  11.297
48111SOL    HW146172   1.081  10.078  11.254
48111SOL    HW246173   1.168  10.202  11.264
48112SOL     OW46174   8.609  13.836   5.669
48112SOL    HW146175   8.560  13.876   5.597
48112SOL    HW246176   8.541  13.804   5.729
48113SOL     OW46177  11.745   1.305  12.177
48113SOL    HW146178  11.724   1.213  12.195
48113SOL    HW246179  11.697   1.354  12.244
48114SOL     OW46180  14.823  13.243   8.543
48114SOL    HW146181  14.798  13.326   8.502
48114SOL    HW246182  14.773  13.177   8.495
48115SOL     OW46183   0.829   0.849   0.648
48115SOL    HW146184   0.739   0.836   0.677
48115SOL    HW246185   0.826   0.842   0.553
48116SOL     OW46186  12.721  11.183  11.854
48116SOL    HW146187  12.815  11.171  11.864
48116SOL    HW246188  12.686  11.094  11.848
48117SOL     OW46189   3.500   9.496  11.503
48117SOL    HW146190   3.570   9.561  11.494
48117SOL    HW246191   3.543   9.418  11.538
48118SOL     OW46192   5.764   1.874   2.006
48118SOL    HW146193   5.761   1.894   1.912
48118SOL    HW246194   5.839   1.816   2.016
48119SOL     OW46195   3.329  12.881  13.863
48119SOL    HW146196   3.297  12.964  13.827
48119SOL    HW246197   3.328  12.821  13.789
48120SOL     OW46198   9.200  12.889   3.244
48120SOL    HW146199   9.152  12.924   3.320
48120SOL    HW246200   9.153  12.810   3.220
48121SOL     OW46201   4.978   5.471   1.284
48121SOL    HW146202   4.998   5.545   1.342
48121SOL    HW246203   4.910   5.504   1.225
48122SOL     OW46204  14.439   2.724   4.600
48122SOL    HW146205  14.431   2.640   4.555
48122SOL    HW246206  14.489   2.779   4.540
48123SOL     OW46207   5.140   3.105   4.786
48123SOL    HW146208   5.216   3.102   4.843
48123SOL    HW246209   5.162   3.170   4.719
48124SOL     OW46210   0.845  12.646   6.709
48124SOL    HW146211   0.770  12.601   6.670
48124SOL    HW246212   0.920  12.620   6.656
48125SOL     OW46213   4.841   1.218   9.764
48125SOL    HW146214   4.897   1.250   9.694
48125SOL    HW246215   4.876   1.132   9.787
48126SOL     OW46216  10.220  10.620   4.616
48126SOL    HW146217  10.313  10.597   4.621
48126SOL    HW246218  10.195  10.594   4.527
48127SOL     OW46219   3.547  10.488  12.821
48127SOL    HW146220   3.554  10.470  12.915
48127SOL    HW246221   3.506  10.410  12.785
48128SOL     OW46222   3.577   9.670  10.087
48128SOL    HW146223   3.600   9.657  10.179
48128SOL    HW246224   3.544   9.584  10.059
48129SOL     OW46225  10.027  11.624   5.640
48129SOL    HW146226  10.042  11.713   5.608
48129SOL    HW246227  10.001  11.636   5.732
48130SOL     OW46228   5.486  10.332   9.147
48130SOL    HW146229   5.486  10.251   9.097
48130SOL    HW246230   5.572  10.371   9.130
48131SOL     OW46231   6.082  11.532   6.226
48131SOL    HW146232   6.120  11.607   6.272
48131SOL    HW246233   6.046  11.476   6.295
48132SOL     OW46234   2.261  12.570  13.693
48132SOL    HW146235   2.314  12.496  13.663
48132SOL    HW246236   2.177  12.559  13.649
48133SOL     OW46237   4.519   7.150  12.734
48133SOL    HW146238   4.499   7.209  12.807
48133SOL    HW246239   4.488   7.197  12.657
48134SOL     OW46240   5.543   2.889   6.599
48134SOL    HW146241   5.538   2.983   6.616
48134SOL    HW246242   5.570   2.850   6.682
48135SOL     OW46243   6.172  14.244   2.161
48135SOL    HW146244   6.251  14.280   2.121
48135SOL    HW246245   6.118  14.321   2.181
48136SOL     OW46246   3.382   6.998   1.216
48136SOL    HW146247   3.456   6.975   1.159
48136SOL    HW246248   3.314   7.028   1.156
48137SOL     OW46249   6.168  14.318   1.285
48137SOL    HW146250   6.223  14.269   1.224
48137SOL    HW246251   6.179  14.274   1.369
48138SOL     OW46252   7.058   2.100  12.936
48138SOL    HW146253   7.019   2.161  12.999
48138SOL    HW246254   7.126   2.054  12.985
48139SOL     OW46255  13.545   6.791   8.762
48139SOL    HW146256  13.633   6.811   8.732
48139SOL    HW246257  13.506   6.876   8.781
48140SOL     OW46258   2.407   9.638  11.128
48140SOL    HW146259   2.465   9.598  11.193
48140SOL    HW246260   2.328   9.583  11.130
48141SOL     OW46261   6.965   7.832  11.896
48141SOL    HW146262   6.923   7.908  11.937
48141SOL    HW246263   6.895   7.766  11.893
48142SOL     OW46264   5.279  12.533  14.715
48142SOL    HW146265   5.241  12.524  14.627
48142SOL    HW246266   5.204  12.526  14.774
48143SOL     OW46267  14.731   8.820  11.733
48143SOL    HW146268  14.722   8.814  11.638
48143SOL    HW246269  14.653   8.867  11.762
48144SOL     OW46270   5.469   4.471   6.319
48144SOL    HW146271   5.533   4.456   6.249
48144SOL    HW246272   5.400   4.406   6.303
48145SOL     OW46273   5.367  11.175   5.670
48145SOL    HW146274   5.440  11.122   5.638
48145SOL    HW246275   5.317  11.196   5.591
48146SOL     OW46276   4.464  12.721   5.311
48146SOL    HW146277   4.467  12.747   5.219
48146SOL    HW246278   4.498  12.797   5.358
48147SOL     OW46279  14.190   9.712   9.593
48147SOL    HW146280  14.153   9.645   9.535
48147SOL    HW246281  14.115   9.759   9.627
48148SOL     OW46282   5.973   9.576   3.493
48148SOL    HW146283   5.946   9.661   3.527
48148SOL    HW246284   6.027   9.537   3.561
48149SOL     OW46285  14.737  14.072   7.006
48149SOL    HW146286  14.695  13.995   6.968
48149SOL    HW246287  14.813  14.088   6.951
48150SOL     OW46288   7.902   7.675  14.748
48150SOL    HW146289   7.858   7.618  14.685
48150SOL    HW246290   7.991   7.682  14.716
48151SOL     OW46291  12.537   8.973   4.589
48151SOL    HW146292  12.464   9.011   4.638
48151SOL    HW246293  12.559   8.893   4.638
48152SOL     OW46294   5.794  13.900  13.506
48152SOL    HW146295   5.888  13.892  13.493
48152SOL    HW246296   5.759  13.913  13.418
48153SOL     OW46297   8.856   9.719   9.794
48153SOL    HW146298   8.910   9.724   9.873
48153SOL    HW246299   8.766   9.720   9.827
48154SOL     OW46300   9.340  12.012   9.156
48154SOL    HW146301   9.394  12.049   9.225
48154SOL    HW246302   9.342  11.918   9.171
48155SOL     OW46303  14.153   8.995   4.769
48155SOL    HW146304  14.145   9.067   4.831
48155SOL    HW246305  14.110   8.921   4.812
48156SOL     OW46306   2.286   9.321   2.076
48156SOL    HW146307   2.236   9.394   2.039
48156SOL    HW246308   2.367   9.361   2.108
48157SOL     OW46309   6.459   6.755   7.386
48157SOL    HW146310   6.494   6.772   7.299
48157SOL    HW246311   6.433   6.663   7.384
48158SOL     OW46312   1.273  14.487   9.000
48158SOL    HW146313   1.367  14.476   8.990
48158SOL    HW246314   1.261  14.581   9.016
48159SOL     OW46315  12.918   4.345  12.978
48159SOL    HW146316  12.864   4.352  13.057
48159SOL    HW246317  12.969   4.265  12.990
48160SOL     OW46318  13.476   9.055   9.074
48160SOL    HW146319  13.505   8.971   9.109
48160SOL    HW246320  13.475   9.114   9.149
48161SOL     OW46321   1.004   6.462  10.298
48161SOL    HW146322   1.031   6.427  10.213
48161SOL    HW246323   1.025   6.555  10.293
48162SOL     OW46324  10.413   1.618   5.146
48162SOL    HW146325  10.508   1.623   5.159
48162SOL    HW246326  10.388   1.534   5.183
48163SOL     OW46327   1.195   5.656  13.885
48163SOL    HW146328   1.168   5.705  13.963
48163SOL    HW246329   1.285   5.630  13.902
48164SOL     OW46330  11.149  10.286   9.022
48164SOL    HW146331  11.125  10.206   9.070
48164SOL    HW246332  11.133  10.357   9.084
48165SOL     OW46333  11.382  13.142   6.026
48165SOL    HW146334  11.420  13.226   6.001
48165SOL    HW246335  11.451  13.079   6.009
48166SOL     OW46336  11.384  11.244   6.966
48166SOL    HW146337  11.361  11.212   6.879
48166SOL    HW246338  11.441  11.176   7.002
48167SOL     OW46339   2.307  10.152  11.397
48167SOL    HW146340   2.233  10.170  11.339
48167SOL    HW246341   2.307  10.056  11.406
48168SOL     OW46342   8.958   7.615   0.449
48168SOL    HW146343   8.870   7.643   0.424
48168SOL    HW246344   8.996   7.582   0.367
48169SOL     OW46345  13.146   2.846   1.818
48169SOL    HW146346  13.105   2.853   1.732
48169SOL    HW246347  13.134   2.755   1.844
48170SOL     OW46348   1.291  14.774   6.660
48170SOL    HW146349   1.306  14.739   6.572
48170SOL    HW246350   1.352  14.847   6.667
48171SOL     OW46351   0.297  13.406  13.059
48171SOL    HW146352   0.250  13.441  12.984
48171SOL    HW246353   0.262  13.317  13.070
48172SOL     OW46354   6.019  13.823  14.251
48172SOL    HW146355   6.092  13.798  14.307
48172SOL    HW246356   5.968  13.742  14.241
48173SOL     OW46357   9.603   1.583   5.162
48173SOL    HW146358   9.614   1.498   5.205
48173SOL    HW246359   9.584   1.643   5.234
48174SOL     OW46360   5.043   9.061  11.292
48174SOL    HW146361   4.962   9.033  11.336
48174SOL    HW246362   5.016   9.078  11.201
48175SOL     OW46363   1.717  12.479   7.314
48175SOL    HW146364   1.753  12.561   7.349
48175SOL    HW246365   1.765  12.410   7.360
48176SOL     OW46366   5.287  13.506  13.038
48176SOL    HW146367   5.271  13.449  12.963
48176SOL    HW246368   5.225  13.577  13.029
48177SOL     OW46369   4.297   8.918   3.849
48177SOL    HW146370   4.256   8.996   3.812
48177SOL    HW246371   4.391   8.937   3.846
48178SOL     OW46372   2.567   8.200  13.016
48178SOL    HW146373   2.509   8.134  12.979
48178SOL    HW246374   2.640   8.151  13.053
48179SOL     OW46375   5.994  10.822   8.409
48179SOL    HW146376   5.948  10.806   8.492
48179SOL    HW246377   6.033  10.908   8.420
48180SOL     OW46378  13.943   4.619   9.107
48180SOL    HW146379  13.868   4.663   9.147
48180SOL    HW246380  13.916   4.527   9.103
48181SOL     OW46381   9.587   2.635   8.258
48181SOL    HW146382   9.597   2.572   8.188
48181SOL    HW246383   9.672   2.679   8.264
48182SOL     OW46384   3.867   3.919  11.607
48182SOL    HW146385   3.844   4.010  11.622
48182SOL    HW246386   3.920   3.920  11.528
48183SOL     OW46387   4.548   5.893  13.746
48183SOL    HW146388   4.524   5.965  13.805
48183SOL    HW246389   4.491   5.906  13.669
48184SOL     OW46390   0.326   8.540   6.189
48184SOL    HW146391   0.388   8.524   6.261
48184SOL    HW246392   0.248   8.574   6.233
48185SOL     OW46393   8.381   5.862  13.518
48185SOL    HW146394   8.304   5.818  13.554
48185SOL    HW246395   8.346   5.943  13.479
48186SOL     OW46396   8.376  10.543   6.254
48186SOL    HW146397   8.402  10.453   6.235
48186SOL    HW246398   8.429  10.568   6.329
48187SOL     OW46399   0.102   3.087   6.092
48187SOL    HW146400   0.162   3.097   6.019
48187SOL    HW246401   0.025   3.044   6.055
48188SOL     OW46402  11.717   1.709   5.296
48188SOL    HW146403  11.652   1.709   5.226
48188SOL    HW246404  11.686   1.641   5.356
48189SOL     OW46405  13.854   5.073   8.100
48189SOL    HW146406  13.875   5.164   8.081
48189SOL    HW246407  13.800   5.077   8.179
48190SOL     OW46408   5.242   2.742   8.079
48190SOL    HW146409   5.216   2.758   7.988
48190SOL    HW246410   5.274   2.652   8.080
48191SOL     OW46411   6.096   1.389   9.318
48191SOL    HW146412   6.061   1.473   9.346
48191SOL    HW246413   6.047   1.367   9.238
48192SOL     OW46414  10.142   9.532   7.102
48192SOL    HW146415  10.224   9.512   7.057
48192SOL    HW246416  10.078   9.541   7.032
48193SOL     OW46417  14.180  14.018  14.692
48193SOL    HW146418  14.229  13.940  14.719
48193SOL    HW246419  14.238  14.061  14.629
48194SOL     OW46420   5.803   7.505   5.861
48194SOL    HW146421   5.813   7.533   5.770
48194SOL    HW246422   5.853   7.424   5.867
48195SOL     OW46423  12.025   7.879  14.791
48195SOL    HW146424  12.055   7.865   0.007
48195SOL    HW246425  11.974   7.961  14.795
48196SOL     OW46426  10.647  11.852   2.763
48196SOL    HW146427  10.615  11.776   2.715
48196SOL    HW246428  10.679  11.817   2.846
48197SOL     OW46429  14.660   9.013  13.303
48197SOL    HW146430  14.569   9.039  13.286
48197SOL    HW246431  14.705   9.027  13.220
48198SOL     OW46432   1.576   9.036   9.870
48198SOL    HW146433   1.665   9.002   9.872
48198SOL    HW246434   1.521   8.961   9.893
48199SOL     OW46435   1.521   8.548   1.836
48199SOL    HW146436   1.603   8.583   1.872
48199SOL    HW246437   1.532   8.453   1.840
48200SOL     OW46438  14.525   3.669   9.410
48200SOL    HW146439  14.484   3.583   9.403
48200SOL    HW246440  14.618   3.653   9.392
48201SOL     OW46441   8.208  13.845   3.729
48201SOL    HW146442   8.157  13.831   3.809
48201SOL    HW246443   8.160  13.797   3.661
48202SOL     OW46444   6.279   4.755   8.748
48202SOL    HW146445   6.255   4.845   8.772
48202SOL    HW246446   6.247   4.745   8.658
48203SOL     OW46447   5.273  12.307   3.521
48203SOL    HW146448   5.236  12.333   3.606
48203SOL    HW246449   5.351  12.362   3.512
48204SOL     OW46450   4.202  14.698   7.245
48204SOL    HW146451   4.221  14.651   7.327
48204SOL    HW246452   4.288  14.707   7.203
48205SOL     OW46453  13.610   6.067   3.611
48205SOL    HW146454  13.594   6.143   3.667
48205SOL    HW246455  13.523   6.041   3.580
48206SOL     OW46456   8.852   9.233  10.697
48206SOL    HW146457   8.928   9.187  10.661
48206SOL    HW246458   8.830   9.185  10.777
48207SOL     OW46459   7.409  10.562   2.793
48207SOL    HW146460   7.411  10.560   2.698
48207SOL    HW246461   7.500  10.546   2.819
48208SOL     OW46462   1.655   8.705   5.948
48208SOL    HW146463   1.618   8.765   6.013
48208SOL    HW246464   1.658   8.620   5.993
48209SOL     OW46465  12.870  13.620  10.249
48209SOL    HW146466  12.859  13.714  10.261
48209SOL    HW246467  12.957  13.601  10.284
48210SOL     OW46468   4.704   3.121  11.146
48210SOL    HW146469   4.703   3.065  11.223
48210SOL    HW246470   4.776   3.183  11.162
48211SOL     OW46471  13.393   9.058  11.279
48211SOL    HW146472  13.487   9.072  11.277
48211SOL    HW246473  13.379   8.992  11.347
48212SOL     OW46474   8.886   4.873   2.490
48212SOL    HW146475   8.850   4.897   2.576
48212SOL    HW246476   8.883   4.954   2.439
48213SOL     OW46477   8.871  13.278   0.988
48213SOL    HW146478   8.940  13.213   0.978
48213SOL    HW246479   8.866  13.293   1.083
48214SOL     OW46480  14.132  10.965  13.628
48214SOL    HW146481  14.186  10.938  13.554
48214SOL    HW246482  14.188  11.025  13.678
48215SOL     OW46483   2.963   7.223   4.266
48215SOL    HW146484   3.013   7.283   4.211
48215SOL    HW246485   2.994   7.241   4.355
48216SOL     OW46486  11.801  10.940  13.813
48216SOL    HW146487  11.833  10.918  13.725
48216SOL    HW246488  11.823  10.863  13.866
48217SOL     OW46489   4.303   9.490  14.232
48217SOL    HW146490   4.267   9.554  14.170
48217SOL    HW246491   4.278   9.405  14.196
48218SOL     OW46492   6.023  11.070   9.236
48218SOL    HW146493   5.949  11.130   9.243
48218SOL    HW246494   6.073  11.103   9.161
48219SOL     OW46495   1.833   8.019  12.818
48219SOL    HW146496   1.769   8.046  12.883
48219SOL    HW246497   1.905   7.980  12.868
48220SOL     OW46498   8.565   5.605   9.853
48220SOL    HW146499   8.544   5.653   9.773
48220SOL    HW246500   8.501   5.636   9.917
48221SOL     OW46501   9.964   4.823  12.500
48221SOL    HW146502   9.955   4.895  12.438
48221SOL    HW246503  10.007   4.754  12.450
48222SOL     OW46504  10.647   0.731   8.191
48222SOL    HW146505  10.625   0.681   8.113
48222SOL    HW246506  10.690   0.810   8.157
48223SOL     OW46507  12.369   7.922  14.107
48223SOL    HW146508  12.456   7.882  14.105
48223SOL    HW246509  12.360   7.954  14.196
48224SOL     OW46510  13.476   7.821   8.810
48224SOL    HW146511  13.409   7.756   8.829
48224SOL    HW246512  13.439   7.873   8.737
48225SOL     OW46513   8.217   2.007  13.978
48225SOL    HW146514   8.310   2.013  13.957
48225SOL    HW246515   8.206   2.065  14.054
48226SOL     OW46516  12.731   1.773  13.414
48226SOL    HW146517  12.694   1.795  13.328
48226SOL    HW246518  12.788   1.847  13.435
48227SOL     OW46519  14.603   2.112   1.911
48227SOL    HW146520  14.605   2.097   1.817
48227SOL    HW246521  14.538   2.048   1.943
48228SOL     OW46522   6.578  10.757  12.310
48228SOL    HW146523   6.599  10.672  12.347
48228SOL    HW246524   6.586  10.746  12.215
48229SOL     OW46525  14.462   2.231  10.082
48229SOL    HW146526  14.488   2.310  10.033
48229SOL    HW246527  14.379   2.206  10.043
48230SOL     OW46528   4.052   4.385   2.996
48230SOL    HW146529   4.094   4.422   2.918
48230SOL    HW246530   3.959   4.380   2.973
48231SOL     OW46531   3.512   1.363   0.660
48231SOL    HW146532   3.546   1.438   0.612
48231SOL    HW246533   3.578   1.294   0.647
48232SOL     OW46534  11.953   0.081   7.325
48232SOL    HW146535  11.897   0.115   7.255
48232SOL    HW246536  11.952  14.859   7.313
48233SOL     OW46537   2.779  12.727  10.399
48233SOL    HW146538   2.803  12.684  10.317
48233SOL    HW246539   2.851  12.708  10.459
48234SOL     OW46540  13.477   3.456   9.689
48234SOL    HW146541  13.538   3.430   9.758
48234SOL    HW246542  13.531   3.505   9.627
48235SOL     OW46543  14.612  12.510  14.478
48235SOL    HW146544  14.531  12.458  14.481
48235SOL    HW246545  14.665  12.475  14.549
48236SOL     OW46546  13.264   3.083  13.231
48236SOL    HW146547  13.296   3.152  13.290
48236SOL    HW246548  13.184   3.051  13.273
48237SOL     OW46549  11.289  13.862  12.897
48237SOL    HW146550  11.230  13.912  12.953
48237SOL    HW246551  11.331  13.928  12.842
48238SOL     OW46552   8.428  11.256   5.008
48238SOL    HW146553   8.345  11.302   4.998
48238SOL    HW246554   8.468  11.296   5.085
48239SOL     OW46555  13.990   2.753  14.737
48239SOL    HW146556  13.915   2.787  14.689
48239SOL    HW246557  14.066   2.794  14.696
48240SOL     OW46558  14.417  10.897   1.085
48240SOL    HW146559  14.476  10.896   1.010
48240SOL    HW246560  14.350  10.962   1.063
48241SOL     OW46561   6.317   2.267   4.530
48241SOL    HW146562   6.263   2.204   4.482
48241SOL    HW246563   6.313   2.237   4.621
48242SOL     OW46564  10.689  14.304   1.397
48242SOL    HW146565  10.665  14.319   1.488
48242SOL    HW246566  10.780  14.272   1.401
48243SOL     OW46567   1.145   0.091   0.458
48243SOL    HW146568   1.092   0.077   0.380
48243SOL    HW246569   1.219   0.031   0.448
48244SOL     OW46570   2.010   9.624   7.612
48244SOL    HW146571   2.074   9.664   7.554
48244SOL    HW246572   1.926   9.661   7.584
48245SOL     OW46573   3.073   2.077  14.383
48245SOL    HW146574   3.122   2.113  14.457
48245SOL    HW246575   3.054   2.153  14.328
48246SOL     OW46576  14.619   3.924  14.511
48246SOL    HW146577  14.659   3.848  14.469
48246SOL    HW246578  14.692   3.981  14.532
48247SOL     OW46579   9.976   1.919  10.102
48247SOL    HW146580   9.985   1.963  10.187
48247SOL    HW246581  10.049   1.953  10.050
48248SOL     OW46582  13.416   7.445   6.616
48248SOL    HW146583  13.440   7.493   6.694
48248SOL    HW246584  13.346   7.386   6.644
48249SOL     OW46585  13.053   5.999   7.114
48249SOL    HW146586  13.087   5.975   7.028
48249SOL    HW246587  12.972   5.949   7.123
48250SOL     OW46588   5.284   8.180   0.518
48250SOL    HW146589   5.375   8.191   0.545
48250SOL    HW246590   5.268   8.085   0.524
48251SOL     OW46591   1.937   4.689  11.980
48251SOL    HW146592   1.977   4.634  12.047
48251SOL    HW246593   1.963   4.778  12.003
48252SOL     OW46594  12.059   4.921   5.149
48252SOL    HW146595  11.970   4.954   5.138
48252SOL    HW246596  12.108   4.995   5.184
48253SOL     OW46597   2.829  11.068  14.269
48253SOL    HW146598   2.807  10.987  14.223
48253SOL    HW246599   2.769  11.133  14.233
48254SOL     OW46600   3.910  13.790  11.873
48254SOL    HW146601   3.892  13.765  11.964
48254SOL    HW246602   3.936  13.881  11.878
48255SOL     OW46603   2.679   0.010   4.218
48255SOL    HW146604   2.721  14.853   4.298
48255SOL    HW246605   2.719   0.096   4.201
48256SOL     OW46606  13.131  11.005  13.894
48256SOL    HW146607  13.075  11.078  13.918
48256SOL    HW246608  13.210  11.046  13.857
48257SOL     OW46609   0.604   9.811  13.113
48257SOL    HW146610   0.656   9.756  13.054
48257SOL    HW246611   0.532   9.754  13.140
48258SOL     OW46612   9.873   2.754   3.665
48258SOL    HW146613   9.847   2.695   3.594
48258SOL    HW246614   9.808   2.738   3.734
48259SOL     OW46615  10.752   4.342   7.408
48259SOL    HW146616  10.793   4.404   7.348
48259SOL    HW246617  10.811   4.266   7.407
48260SOL     OW46618  11.899   9.984  13.715
48260SOL    HW146619  11.954  10.003  13.791
48260SOL    HW246620  11.926  10.047  13.649
48261SOL     OW46621  11.894   7.515   5.605
48261SOL    HW146622  11.871   7.470   5.524
48261SOL    HW246623  11.940   7.449   5.657
48262SOL     OW46624  13.618   0.074   3.105
48262SOL    HW146625  13.559   0.148   3.095
48262SOL    HW246626  13.569   0.011   3.158
48263SOL     OW46627   9.129   0.984   6.120
48263SOL    HW146628   9.062   1.038   6.162
48263SOL    HW246629   9.098   0.973   6.030
48264SOL     OW46630   0.243  10.243   9.971
48264SOL    HW146631   0.243  10.245   9.875
48264SOL    HW246632   0.299  10.317   9.996
48265SOL     OW46633   7.907  12.686   4.345
48265SOL    HW146634   7.826  12.722   4.309
48265SOL    HW246635   7.971  12.757   4.335
48266SOL     OW46636   2.923  14.415   7.416
48266SOL    HW146637   2.944  14.464   7.495
48266SOL    HW246638   2.920  14.324   7.444
48267SOL     OW46639  12.020  11.724  10.803
48267SOL    HW146640  12.060  11.665  10.868
48267SOL    HW246641  12.037  11.681  10.719
48268SOL     OW46642   4.031   1.808  11.896
48268SOL    HW146643   3.992   1.831  11.812
48268SOL    HW246644   3.958   1.802  11.957
48269SOL     OW46645   1.464   1.077  10.391
48269SOL    HW146646   1.538   1.102  10.445
48269SOL    HW246647   1.501   1.064  10.303
48270SOL     OW46648  13.305   9.733   5.711
48270SOL    HW146649  13.319   9.667   5.643
48270SOL    HW246650  13.212   9.756   5.704
48271SOL     OW46651  13.181   4.977   5.386
48271SOL    HW146652  13.191   4.883   5.371
48271SOL    HW246653  13.086   4.990   5.397
48272SOL     OW46654   3.670   5.065  13.890
48272SOL    HW146655   3.666   5.009  13.967
48272SOL    HW246656   3.683   5.005  13.817
48273SOL     OW46657   6.752   1.859  14.467
48273SOL    HW146658   6.797   1.775  14.464
48273SOL    HW246659   6.664   1.838  14.499
48274SOL     OW46660   4.853   5.210   7.352
48274SOL    HW146661   4.808   5.140   7.399
48274SOL    HW246662   4.783   5.268   7.321
48275SOL     OW46663   4.481  13.931  14.386
48275SOL    HW146664   4.494  13.971  14.300
48275SOL    HW246665   4.569  13.913  14.418
48276SOL     OW46666   7.254  10.358   2.881
48276SOL    HW146667   7.310  10.435   2.872
48276SOL    HW246668   7.165  10.393   2.875
48277SOL     OW46669   7.293   5.985   3.568
48277SOL    HW146670   7.206   5.966   3.532
48277SOL    HW246671   7.320   5.902   3.609
48278SOL     OW46672  14.409   2.241  11.542
48278SOL    HW146673  14.495   2.232  11.500
48278SOL    HW246674  14.367   2.313  11.495
48279SOL     OW46675   2.893  11.999  14.444
48279SOL    HW146676   2.851  12.057  14.381
48279SOL    HW246677   2.969  12.048  14.476
48280SOL     OW46678   0.649   5.911  11.197
48280SOL    HW146679   0.588   5.897  11.124
48280SOL    HW246680   0.614   5.987  11.243
48281SOL     OW46681   0.857   0.037   8.353
48281SOL    HW146682   0.843  14.822   8.388
48281SOL    HW246683   0.865   0.024   8.258
48282SOL     OW46684   4.715   7.226  13.958
48282SOL    HW146685   4.775   7.214  14.032
48282SOL    HW246686   4.757   7.181  13.885
48283SOL     OW46687   4.793  11.147   2.083
48283SOL    HW146688   4.726  11.207   2.116
48283SOL    HW246689   4.813  11.090   2.157
48284SOL     OW46690  10.374   5.965   5.456
48284SOL    HW146691  10.373   5.877   5.419
48284SOL    HW246692  10.320   5.959   5.535
48285SOL     OW46693   8.037   3.770   7.858
48285SOL    HW146694   8.105   3.771   7.791
48285SOL    HW246695   8.084   3.778   7.941
48286SOL     OW46696   0.165   6.981   6.882
48286SOL    HW146697   0.246   6.968   6.932
48286SOL    HW246698   0.097   6.987   6.948
48287SOL     OW46699   7.586  11.277   5.649
48287SOL    HW146700   7.543  11.234   5.723
48287SOL    HW246701   7.596  11.208   5.584
48288SOL     OW46702   6.870   1.343   2.605
48288SOL    HW146703   6.887   1.436   2.618
48288SOL    HW246704   6.920   1.320   2.526
48289SOL     OW46705   7.100  12.142   4.472
48289SOL    HW146706   7.043  12.121   4.399
48289SOL    HW246707   7.041  12.152   4.547
48290SOL     OW46708   8.875   5.760   0.530
48290SOL    HW146709   8.918   5.691   0.479
48290SOL    HW246710   8.785   5.760   0.499
48291SOL     OW46711  10.774  11.363  12.972
48291SOL    HW146712  10.836  11.406  13.030
48291SOL    HW246713  10.815  11.368  12.885
48292SOL     OW46714   5.899   2.304   2.107
48292SOL    HW146715   5.880   2.213   2.132
48292SOL    HW246716   5.994   2.311   2.116
48293SOL     OW46717   5.378   3.763  11.775
48293SOL    HW146718   5.452   3.818  11.747
48293SOL    HW246719   5.419   3.682  11.805
48294SOL     OW46720   1.039   6.020  14.588
48294SOL    HW146721   0.987   6.096  14.614
48294SOL    HW246722   1.121   6.028  14.636
48295SOL     OW46723  13.847   6.370   6.357
48295SOL    HW146724  13.869   6.299   6.418
48295SOL    HW246725  13.883   6.448   6.398
48296SOL     OW46726   5.402   4.027   5.304
48296SOL    HW146727   5.307   4.035   5.303
48296SOL    HW246728   5.419   3.941   5.265
48297SOL     OW46729  10.974  11.659   6.113
48297SOL    HW146730  11.064  11.689   6.126
48297SOL    HW246731  10.930  11.679   6.196
48298SOL     OW46732  13.284  10.811   3.141
48298SOL    HW146733  13.314  10.897   3.169
48298SOL    HW246734  13.212  10.829   3.080
48299SOL     OW46735   3.478  12.804   5.090
48299SOL    HW146736   3.524  12.720   5.095
48299SOL    HW246737   3.525  12.852   5.022
48300SOL     OW46738   8.334  13.737   2.755
48300SOL    HW146739   8.341  13.724   2.660
48300SOL    HW246740   8.318  13.649   2.789
48301SOL     OW46741  13.864   0.496   1.909
48301SOL    HW146742  13.783   0.540   1.880
48301SOL    HW246743  13.931   0.527   1.849
48302SOL     OW46744   6.752  13.479  11.170
48302SOL    HW146745   6.675  13.458  11.223
48302SOL    HW246746   6.736  13.568  11.139
48303SOL     OW46747   2.172   7.592   8.834
48303SOL    HW146748   2.206   7.506   8.857
48303SOL    HW246749   2.247   7.641   8.802
48304SOL     OW46750   5.471   1.998  11.945
48304SOL    HW146751   5.379   1.981  11.927
48304SOL    HW246752   5.474   2.091  11.967
48305SOL     OW46753   1.344   6.762   6.809
48305SOL    HW146754   1.292   6.683   6.820
48305SOL    HW246755   1.295   6.830   6.854
48306SOL     OW46756   6.800   4.311   6.211
48306SOL    HW146757   6.731   4.270   6.159
48306SOL    HW246758   6.822   4.391   6.164
48307SOL     OW46759   9.085   1.669   5.645
48307SOL    HW146760   9.034   1.672   5.564
48307SOL    HW246761   9.172   1.639   5.617
48308SOL     OW46762   0.962   8.110   7.262
48308SOL    HW146763   0.892   8.176   7.259
48308SOL    HW246764   0.946   8.055   7.186
48309SOL     OW46765  11.414   9.780   9.929
48309SOL    HW146766  11.405   9.727   9.849
48309SOL    HW246767  11.475   9.730   9.984
48310SOL     OW46768  13.930  11.238  13.375
48310SOL    HW146769  13.971  11.152  13.379
48310SOL    HW246770  13.897  11.244  13.285
48311SOL     OW46771   0.655  11.474   9.769
48311SOL    HW146772   0.742  11.442   9.792
48311SOL    HW246773   0.613  11.401   9.724
48312SOL     OW46774   6.014   8.581   2.753
48312SOL    HW146775   6.006   8.488   2.732
48312SOL    HW246776   6.016   8.625   2.668
48313SOL     OW46777  13.405  14.592   2.482
48313SOL    HW146778  13.356  14.570   2.561
48313SOL    HW246779  13.462  14.517   2.467
48314SOL     OW46780   8.920   0.699   4.378
48314SOL    HW146781   8.839   0.660   4.412
48314SOL    HW246782   8.986   0.680   4.445
48315SOL     OW46783   0.561   0.256   1.648
48315SOL    HW146784   0.632   0.267   1.584
48315SOL    HW246785   0.600   0.281   1.732
48316SOL     OW46786   6.064  11.044   9.903
48316SOL    HW146787   6.128  10.993   9.952
48316SOL    HW246788   6.085  11.027   9.811
48317SOL     OW46789  11.171  10.199   5.704
48317SOL    HW146790  11.160  10.288   5.670
48317SOL    HW246791  11.179  10.211   5.799
48318SOL     OW46792  14.756   9.904   9.872
48318SOL    HW146793  14.682   9.959   9.849
48318SOL    HW246794  14.726   9.815   9.854
48319SOL     OW46795   8.149   2.698   6.451
48319SOL    HW146796   8.185   2.681   6.364
48319SOL    HW246797   8.076   2.636   6.459
48320SOL     OW46798  14.832   3.979   2.652
48320SOL    HW146799  14.818   3.984   2.747
48320SOL    HW246800  14.813   3.887   2.630
48321SOL     OW46801   2.788   4.467   4.589
48321SOL    HW146802   2.803   4.522   4.512
48321SOL    HW246803   2.773   4.379   4.554
48322SOL     OW46804   6.832  12.388   6.788
48322SOL    HW146805   6.824  12.336   6.867
48322SOL    HW246806   6.840  12.324   6.717
48323SOL     OW46807  10.199  12.415   3.460
48323SOL    HW146808  10.106  12.433   3.477
48323SOL    HW246809  10.241  12.500   3.467
48324SOL     OW46810   3.453   0.200  12.100
48324SOL    HW146811   3.492   0.287  12.107
48324SOL    HW246812   3.378   0.212  12.041
48325SOL     OW46813   0.015  10.000  10.756
48325SOL    HW146814   0.063  10.035  10.681
48325SOL    HW246815  14.796  10.013  10.734
48326SOL     OW46816   8.761   3.569   0.969
48326SOL    HW146817   8.755   3.632   0.898
48326SOL    HW246818   8.791   3.488   0.927
48327SOL     OW46819   7.617   5.878  13.121
48327SOL    HW146820   7.596   5.807  13.182
48327SOL    HW246821   7.614   5.837  13.035
48328SOL     OW46822   6.117   8.401  13.736
48328SOL    HW146823   6.088   8.423  13.824
48328SOL    HW246824   6.213   8.400  13.742
48329SOL     OW46825   4.790  11.536   3.798
48329SOL    HW146826   4.767  11.626   3.775
48329SOL    HW246827   4.751  11.523   3.884
48330SOL     OW46828   7.926  13.704   2.940
48330SOL    HW146829   7.833  13.703   2.962
48330SOL    HW246830   7.962  13.627   2.985
48331SOL     OW46831   8.362  13.557   6.158
48331SOL    HW146832   8.367  13.479   6.101
48331SOL    HW246833   8.291  13.609   6.120
48332SOL     OW46834   2.144   5.424  13.721
48332SOL    HW146835   2.077   5.399  13.657
48332SOL    HW246836   2.096   5.477  13.785
48333SOL     OW46837  14.705   6.903   6.430
48333SOL    HW146838  14.715   6.901   6.335
48333SOL    HW246839  14.613   6.879   6.445
48334SOL     OW46840   4.780   8.870   8.191
48334SOL    HW146841   4.744   8.785   8.215
48334SOL    HW246842   4.753   8.929   8.262
48335SOL     OW46843   9.130  12.032   0.573
48335SOL    HW146844   9.125  11.949   0.524
48335SOL    HW246845   9.213  12.071   0.545
48336SOL     OW46846   7.165   7.780   4.654
48336SOL    HW146847   7.149   7.832   4.733
48336SOL    HW246848   7.096   7.713   4.655
48337SOL     OW46849   0.137   8.253   6.048
48337SOL    HW146850   0.084   8.181   6.083
48337SOL    HW246851   0.226   8.235   6.079
48338SOL     OW46852   4.036   9.433   6.910
48338SOL    HW146853   4.116   9.478   6.935
48338SOL    HW246854   4.036   9.352   6.960
48339SOL     OW46855  12.381  13.982  12.670
48339SOL    HW146856  12.321  13.942  12.734
48339SOL    HW246857  12.386  14.074  12.697
48340SOL     OW46858   9.727   8.293   1.318
48340SOL    HW146859   9.762   8.219   1.369
48340SOL    HW246860   9.729   8.263   1.227
48341SOL     OW46861   2.625   6.589   1.505
48341SOL    HW146862   2.711   6.556   1.529
48341SOL    HW246863   2.564   6.541   1.561
48342SOL     OW46864  13.918  11.973   4.323
48342SOL    HW146865  13.964  11.890   4.312
48342SOL    HW246866  13.841  11.951   4.377
48343SOL     OW46867  12.486  12.933   6.324
48343SOL    HW146868  12.506  12.843   6.296
48343SOL    HW246869  12.402  12.953   6.283
48344SOL     OW46870   4.746  14.332   6.241
48344SOL    HW146871   4.728  14.380   6.321
48344SOL    HW246872   4.771  14.399   6.177
48345SOL     OW46873  14.317   5.152  14.097
48345SOL    HW146874  14.315   5.079  14.159
48345SOL    HW246875  14.265   5.121  14.023
48346SOL     OW46876  13.470   2.208   0.093
48346SOL    HW146877  13.459   2.303   0.093
48346SOL    HW246878  13.474   2.184  14.873
48347SOL     OW46879  12.197   5.338   1.677
48347SOL    HW146880  12.168   5.378   1.595
48347SOL    HW246881  12.134   5.367   1.742
48348SOL     OW46882  12.030   8.961   9.753
48348SOL    HW146883  11.969   8.936   9.683
48348SOL    HW246884  12.093   9.019   9.711
48349SOL     OW46885   9.724   9.960  10.261
48349SOL    HW146886   9.768  10.012  10.193
48349SOL    HW246887   9.663  10.020  10.302
48350SOL     OW46888   7.880   6.003   0.098
48350SOL    HW146889   7.964   5.965   0.122
48350SOL    HW246890   7.861   6.066   0.168
48351SOL     OW46891   2.708   2.700   3.700
48351SOL    HW146892   2.625   2.653   3.710
48351SOL    HW246893   2.753   2.653   3.630
48352SOL     OW46894   1.973  11.424   3.089
48352SOL    HW146895   2.059  11.443   3.126
48352SOL    HW246896   1.979  11.455   2.999
48353SOL     OW46897   7.581   4.695  13.014
48353SOL    HW146898   7.529   4.772  12.993
48353SOL    HW246899   7.651   4.728  13.070
48354SOL     OW46900   8.462  12.793   6.314
48354SOL    HW146901   8.513  12.872   6.299
48354SOL    HW246902   8.499  12.728   6.254
48355SOL     OW46903   6.936  14.527  14.809
48355SOL    HW146904   7.010  14.565  14.762
48355SOL    HW246905   6.975  14.485   0.013
48356SOL     OW46906   6.339   0.938  13.949
48356SOL    HW146907   6.345   0.895  13.863
48356SOL    HW246908   6.250   0.974  13.951
48357SOL     OW46909   0.805   4.872   0.020
48357SOL    HW146910   0.779   4.958   0.054
48357SOL    HW246911   0.743   4.811   0.059
48358SOL     OW46912   1.695   7.848   7.633
48358SOL    HW146913   1.682   7.778   7.697
48358SOL    HW246914   1.788   7.868   7.638
48359SOL     OW46915   3.084  11.478  13.125
48359SOL    HW146916   3.036  11.531  13.188
48359SOL    HW246917   3.128  11.412  13.178
48360SOL     OW46918   9.836  10.701  12.043
48360SOL    HW146919   9.813  10.629  12.102
48360SOL    HW246920   9.754  10.725  12.001
48361SOL     OW46921  10.572  12.776   3.551
48361SOL    HW146922  10.596  12.806   3.639
48361SOL    HW246923  10.566  12.856   3.499
48362SOL     OW46924   8.850   6.799   7.038
48362SOL    HW146925   8.921   6.765   7.093
48362SOL    HW246926   8.803   6.721   7.009
48363SOL     OW46927   2.306   9.883  11.329
48363SOL    HW146928   2.350   9.798  11.337
48363SOL    HW246929   2.213   9.862  11.324
48364SOL     OW46930  13.458   4.748  11.906
48364SOL    HW146931  13.493   4.688  11.840
48364SOL    HW246932  13.473   4.835  11.870
48365SOL     OW46933   4.285  14.476   4.651
48365SOL    HW146934   4.244  14.412   4.709
48365SOL    HW246935   4.256  14.452   4.563
48366SOL     OW46936  10.035   9.470  12.940
48366SOL    HW146937   9.946   9.457  12.906
48366SOL    HW246938  10.022   9.508  13.027
48367SOL     OW46939  14.551  10.959   8.467
48367SOL    HW146940  14.489  11.001   8.407
48367SOL    HW246941  14.506  10.959   8.552
48368SOL     OW46942   3.394   6.566   2.866
48368SOL    HW146943   3.477   6.527   2.839
48368SOL    HW246944   3.349   6.496   2.914
48369SOL     OW46945   9.870   9.033   5.162
48369SOL    HW146946   9.952   8.991   5.186
48369SOL    HW246947   9.864   9.108   5.221
48370SOL     OW46948   3.808   0.205   7.897
48370SOL    HW146949   3.824   0.112   7.887
48370SOL    HW246950   3.713   0.212   7.909
48371SOL     OW46951  12.076   5.841   5.273
48371SOL    HW146952  12.107   5.931   5.277
48371SOL    HW246953  12.126   5.801   5.202
48372SOL     OW46954   7.260  11.977   8.080
48372SOL    HW146955   7.192  11.913   8.059
48372SOL    HW246956   7.245  11.998   8.173
48373SOL     OW46957   8.547   3.865  14.301
48373SOL    HW146958   8.499   3.786  14.277
48373SOL    HW246959   8.639   3.839  14.299
48374SOL     OW46960  11.987   1.915  10.151
48374SOL    HW146961  12.029   1.993  10.116
48374SOL    HW246962  12.031   1.842  10.107
48375SOL     OW46963   9.063   6.996   0.901
48375SOL    HW146964   9.070   6.904   0.928
48375SOL    HW246965   9.084   7.046   0.979
48376SOL     OW46966  13.619  13.322   8.941
48376SOL    HW146967  13.641  13.365   9.024
48376SOL    HW246968  13.524  13.334   8.932
48377SOL     OW46969   7.949  12.553   1.661
48377SOL    HW146970   7.966  12.646   1.673
48377SOL    HW246971   8.034  12.516   1.636
48378SOL     OW46972  11.085   3.754   6.538
48378SOL    HW146973  11.018   3.725   6.477
48378SOL    HW246974  11.068   3.848   6.550
48379SOL     OW46975  10.253   6.772   3.549
48379SOL    HW146976  10.263   6.721   3.629
48379SOL    HW246977  10.159   6.786   3.541
48380SOL     OW46978   3.157  10.204   4.358
48380SOL    HW146979   3.233  10.240   4.404
48380SOL    HW246980   3.120  10.140   4.419
48381SOL     OW46981  10.781  14.270   3.104
48381SOL    HW146982  10.853  14.259   3.043
48381SOL    HW246983  10.746  14.358   3.086
48382SOL     OW46984   3.569   4.742   0.512
48382SOL    HW146985   3.660   4.722   0.493
48382SOL    HW246986   3.520   4.702   0.439
48383SOL     OW46987   2.072   1.033   7.291
48383SOL    HW146988   1.978   1.027   7.312
48383SOL    HW246989   2.076   1.095   7.218
48384SOL     OW46990   4.496   5.363  13.323
48384SOL    HW146991   4.532   5.439  13.277
48384SOL    HW246992   4.572   5.324  13.367
48385SOL     OW46993   3.698   2.511   0.330
48385SOL    HW146994   3.697   2.418   0.307
48385SOL    HW246995   3.693   2.512   0.426
48386SOL     OW46996   1.434   6.525   9.005
48386SOL    HW146997   1.436   6.475   8.924
48386SOL    HW246998   1.499   6.595   8.991
48387SOL     OW46999  13.279   2.156   8.947
48387SOL    HW147000  13.303   2.220   8.881
48387SOL    HW247001  13.197   2.189   8.984
48388SOL     OW47002   8.756   2.296   4.843
48388SOL    HW147003   8.727   2.281   4.753
48388SOL    HW247004   8.692   2.356   4.880
48389SOL     OW47005   2.933   3.695   3.183
48389SOL    HW147006   2.979   3.743   3.252
48389SOL    HW247007   2.865   3.754   3.153
48390SOL     OW47008  14.795   3.403   9.691
48390SOL    HW147009  14.802   3.322   9.742
48390SOL    HW247010  14.738   3.380   9.618
48391SOL     OW47011  10.214  10.718  14.732
48391SOL    HW147012  10.166  10.636  14.742
48391SOL    HW247013  10.275  10.719  14.806
48392SOL     OW47014   1.732  14.145   3.709
48392SOL    HW147015   1.803  14.206   3.727
48392SOL    HW247016   1.735  14.133   3.614
48393SOL     OW47017   9.566   7.122   4.001
48393SOL    HW147018   9.541   7.114   4.093
48393SOL    HW247019   9.518   7.199   3.971
48394SOL     OW47020   9.448   5.351   4.986
48394SOL    HW147021   9.501   5.288   4.937
48394SOL    HW247022   9.380   5.378   4.925
48395SOL     OW47023   8.618  13.144  13.412
48395SOL    HW147024   8.694  13.187  13.450
48395SOL    HW247025   8.651  13.103  13.332
48396SOL     OW47026  10.208   0.663   4.763
48396SOL    HW147027  10.146   0.716   4.713
48396SOL    HW247028  10.227   0.589   4.705
48397SOL     OW47029   5.687  14.402   4.025
48397SOL    HW147030   5.746  14.456   4.078
48397SOL    HW247031   5.644  14.345   4.089
48398SOL     OW47032   7.643   2.380   6.362
48398SOL    HW147033   7.685   2.466   6.370
48398SOL    HW247034   7.651   2.359   6.268
48399SOL     OW47035  14.447  10.334   8.379
48399SOL    HW147036  14.533  10.296   8.397
48399SOL    HW247037  14.397  10.322   8.461
48400SOL     OW47038  13.731   9.114   5.709
48400SOL    HW147039  13.694   9.029   5.687
48400SOL    HW247040  13.701   9.172   5.638
48401SOL     OW47041   4.293   7.143   3.621
48401SOL    HW147042   4.286   7.209   3.552
48401SOL    HW247043   4.260   7.187   3.700
48402SOL     OW47044  14.834   9.551   4.027
48402SOL    HW147045  14.777   9.532   3.952
48402SOL    HW247046   0.047   9.567   3.988
48403SOL     OW47047  14.766   6.311  12.336
48403SOL    HW147048  14.697   6.368  12.368
48403SOL    HW247049  14.824   6.299  12.411
48404SOL     OW47050   1.738   4.976   2.085
48404SOL    HW147051   1.799   4.927   2.139
48404SOL    HW247052   1.734   5.063   2.125
48405SOL     OW47053   7.223  13.817   7.953
48405SOL    HW147054   7.185  13.775   7.876
48405SOL    HW247055   7.291  13.756   7.983
48406SOL     OW47056   6.987  12.395   4.914
48406SOL    HW147057   7.080  12.373   4.923
48406SOL    HW247058   6.941  12.314   4.936
48407SOL     OW47059   8.566   6.716   3.820
48407SOL    HW147060   8.655   6.711   3.785
48407SOL    HW247061   8.511   6.681   3.750
48408SOL     OW47062   7.123  11.685   7.007
48408SOL    HW147063   7.066  11.731   7.069
48408SOL    HW247064   7.064  11.647   6.943
48409SOL     OW47065  11.585   8.050   6.243
48409SOL    HW147066  11.606   7.960   6.218
48409SOL    HW247067  11.523   8.041   6.315
48410SOL     OW47068   0.876   5.774   1.078
48410SOL    HW147069   0.839   5.743   1.161
48410SOL    HW247070   0.947   5.833   1.104
48411SOL     OW47071   7.383   6.874  12.629
48411SOL    HW147072   7.450   6.817  12.591
48411SOL    HW247073   7.300   6.830  12.610
48412SOL     OW47074  11.770  13.076  10.955
48412SOL    HW147075  11.719  13.020  11.013
48412SOL    HW247076  11.827  13.125  11.014
48413SOL     OW47077  11.165   0.205  12.027
48413SOL    HW147078  11.175   0.168  12.114
48413SOL    HW247079  11.225   0.280  12.026
48414SOL     OW47080  14.293   3.597  14.585
48414SOL    HW147081  14.273   3.518  14.534
48414SOL    HW247082  14.259   3.578  14.673
48415SOL     OW47083  12.855  12.888  12.954
48415SOL    HW147084  12.852  12.799  12.918
48415SOL    HW247085  12.779  12.893  13.012
48416SOL     OW47086  11.037   3.742  12.687
48416SOL    HW147087  11.031   3.669  12.626
48416SOL    HW247088  11.108   3.796  12.654
48417SOL     OW47089  11.945   8.294   7.338
48417SOL    HW147090  11.852   8.275   7.352
48417SOL    HW247091  11.955   8.299   7.243
48418SOL     OW47092  13.892   0.744   5.743
48418SOL    HW147093  13.916   0.736   5.836
48418SOL    HW247094  13.860   0.657   5.719
48419SOL     OW47095   9.238  13.597   0.432
48419SOL    HW147096   9.319  13.619   0.478
48419SOL    HW247097   9.194  13.682   0.420
48420SOL     OW47098   1.337   8.683  12.889
48420SOL    HW147099   1.311   8.775  12.885
48420SOL    HW247100   1.390   8.677  12.968
48421SOL     OW47101  12.548  14.278  14.837
48421SOL    HW147102  12.521  14.369  14.846
48421SOL    HW247103  12.488  14.229   0.021
48422SOL     OW47104  13.899   3.049   4.614
48422SOL    HW147105  13.851   3.075   4.693
48422SOL    HW247106  13.986   3.088   4.626
48423SOL     OW47107  10.617  10.302   5.752
48423SOL    HW147108  10.633  10.386   5.709
48423SOL    HW247109  10.638  10.317   5.844
48424SOL     OW47110   6.732  10.987   2.618
48424SOL    HW147111   6.769  10.939   2.544
48424SOL    HW247112   6.782  10.957   2.694
48425SOL     OW47113   2.511   7.352  14.324
48425SOL    HW147114   2.498   7.405  14.402
48425SOL    HW247115   2.606   7.341  14.317
48426SOL     OW47116   4.991   2.607   6.599
48426SOL    HW147117   5.018   2.543   6.534
48426SOL    HW247118   5.008   2.692   6.558
48427SOL     OW47119   0.674   5.722   4.837
48427SOL    HW147120   0.731   5.757   4.769
48427SOL    HW247121   0.603   5.678   4.790
48428SOL     OW47122   2.698  10.340   7.643
48428SOL    HW147123   2.662  10.309   7.726
48428SOL    HW247124   2.658  10.426   7.629
48429SOL     OW47125   0.226  10.361   4.082
48429SOL    HW147126   0.202  10.299   4.014
48429SOL    HW247127   0.158  10.428   4.080
48430SOL     OW47128   2.969   2.903   0.755
48430SOL    HW147129   3.010   2.925   0.838
48430SOL    HW247130   2.948   2.987   0.714
48431SOL     OW47131   7.080  11.411   2.632
48431SOL    HW147132   7.072  11.501   2.599
48431SOL    HW247133   7.042  11.357   2.563
48432SOL     OW47134   4.917  12.131   3.502
48432SOL    HW147135   4.850  12.093   3.559
48432SOL    HW247136   4.887  12.220   3.487
48433SOL     OW47137   1.019   5.554   8.044
48433SOL    HW147138   0.934   5.530   8.082
48433SOL    HW247139   1.039   5.484   7.983
48434SOL     OW47140   7.964  12.039  12.770
48434SOL    HW147141   7.939  12.056  12.861
48434SOL    HW247142   7.919  11.957  12.748
48435SOL     OW47143   5.904   2.446   8.703
48435SOL    HW147144   5.950   2.528   8.685
48435SOL    HW247145   5.970   2.390   8.743
48436SOL     OW47146   3.406   1.844  10.366
48436SOL    HW147147   3.489   1.888  10.345
48436SOL    HW247148   3.433   1.761  10.406
48437SOL     OW47149   2.329   9.043   6.366
48437SOL    HW147150   2.391   9.035   6.294
48437SOL    HW247151   2.288   9.129   6.354
48438SOL     OW47152   1.994  14.220   5.543
48438SOL    HW147153   1.935  14.205   5.618
48438SOL    HW247154   1.955  14.169   5.472
48439SOL     OW47155   6.086  12.605   6.574
48439SOL    HW147156   6.144  12.637   6.643
48439SOL    HW247157   6.010  12.569   6.621
48440SOL     OW47158  14.866  11.355   8.037
48440SOL    HW147159  14.863  11.328   7.946
48440SOL    HW247160  14.850  11.275   8.087
48441SOL     OW47161   4.624   8.828   5.126
48441SOL    HW147162   4.613   8.923   5.122
48441SOL    HW247163   4.717   8.816   5.143
48442SOL     OW47164   3.604  11.380   1.370
48442SOL    HW147165   3.637  11.416   1.288
48442SOL    HW247166   3.683  11.365   1.423
48443SOL     OW47167   6.489   9.308   9.319
48443SOL    HW147168   6.409   9.355   9.342
48443SOL    HW247169   6.459   9.221   9.293
48444SOL     OW47170   9.032  10.257  12.417
48444SOL    HW147171   9.025  10.281  12.325
48444SOL    HW247172   8.997  10.168  12.421
48445SOL     OW47173  10.070   4.463   8.192
48445SOL    HW147174  10.061   4.369   8.177
48445SOL    HW247175  10.120   4.469   8.274
48446SOL     OW47176   2.345   2.789   7.351
48446SOL    HW147177   2.357   2.805   7.257
48446SOL    HW247178   2.258   2.750   7.358
48447SOL     OW47179   2.284   3.529   2.488
48447SOL    HW147180   2.305   3.509   2.397
48447SOL    HW247181   2.271   3.624   2.490
48448SOL     OW47182   0.689   1.758   7.789
48448SOL    HW147183   0.776   1.789   7.811
48448SOL    HW247184   0.702   1.699   7.715
48449SOL     OW47185   8.958   3.185  12.367
48449SOL    HW147186   8.915   3.136  12.297
48449SOL    HW247187   8.978   3.270  12.329
48450SOL     OW47188  10.910   0.944   9.314
48450SOL    HW147189  10.975   0.875   9.303
48450SOL    HW247190  10.827   0.902   9.293
48451SOL     OW47191   6.350   0.554  11.312
48451SOL    HW147192   6.338   0.545  11.407
48451SOL    HW247193   6.405   0.479  11.288
48452SOL     OW47194   0.333  14.472   5.205
48452SOL    HW147195   0.401  14.452   5.268
48452SOL    HW247196   0.376  14.527   5.139
48453SOL     OW47197   9.046  13.874  12.537
48453SOL    HW147198   9.023  13.793  12.491
48453SOL    HW247199   9.140  13.866  12.553
48454SOL     OW47200  13.295   8.918  13.311
48454SOL    HW147201  13.249   8.989  13.356
48454SOL    HW247202  13.350   8.963  13.247
48455SOL     OW47203   1.051   2.911   6.418
48455SOL    HW147204   0.967   2.956   6.428
48455SOL    HW247205   1.038   2.852   6.344
48456SOL     OW47206   7.669   1.774   4.819
48456SOL    HW147207   7.589   1.770   4.767
48456SOL    HW247208   7.711   1.690   4.805
48457SOL     OW47209   1.380  11.176   5.525
48457SOL    HW147210   1.333  11.256   5.546
48457SOL    HW247211   1.429  11.197   5.445
48458SOL     OW47212   5.432   0.241   3.279
48458SOL    HW147213   5.361   0.297   3.308
48458SOL    HW247214   5.421   0.235   3.184
48459SOL     OW47215   2.872  13.226  14.847
48459SOL    HW147216   2.942  13.161  14.857
48459SOL    HW247217   2.900  13.300   0.028
48460SOL     OW47218   3.675   7.332   9.621
48460SOL    HW147219   3.700   7.304   9.709
48460SOL    HW247220   3.660   7.426   9.628
48461SOL     OW47221  13.317  11.246  14.403
48461SOL    HW147222  13.319  11.341  14.407
48461SOL    HW247223  13.368  11.217  14.479
48462SOL     OW47224   7.061   9.522   0.798
48462SOL    HW147225   7.121   9.447   0.805
48462SOL    HW247226   7.117   9.596   0.774
48463SOL     OW47227   0.768   3.274  12.440
48463SOL    HW147228   0.731   3.187  12.430
48463SOL    HW247229   0.696   3.327  12.474
48464SOL     OW47230  10.657  10.606  14.384
48464SOL    HW147231  10.736  10.653  14.410
48464SOL    HW247232  10.658  10.526  14.436
48465SOL     OW47233   3.188   8.263   6.720
48465SOL    HW147234   3.119   8.328   6.717
48465SOL    HW247235   3.186   8.221   6.634
48466SOL     OW47236   4.672   7.104   0.118
48466SOL    HW147237   4.700   7.192   0.143
48466SOL    HW247238   4.577   7.109   0.114
48467SOL     OW47239  12.177  11.351   9.559
48467SOL    HW147240  12.246  11.401   9.516
48467SOL    HW247241  12.116  11.417   9.592
48468SOL     OW47242   1.671   0.092   5.982
48468SOL    HW147243   1.704   0.181   5.970
48468SOL    HW247244   1.679   0.052   5.896
48469SOL     OW47245  12.961   9.661   8.049
48469SOL    HW147246  12.872   9.692   8.032
48469SOL    HW247247  13.005   9.735   8.091
48470SOL     OW47248   5.067   6.955   8.482
48470SOL    HW147249   5.022   7.033   8.515
48470SOL    HW247250   5.032   6.883   8.533
48471SOL     OW47251  11.528  13.211   1.437
48471SOL    HW147252  11.473  13.247   1.507
48471SOL    HW247253  11.467  13.197   1.364
48472SOL     OW47254   2.557   8.294   0.209
48472SOL    HW147255   2.473   8.315   0.250
48472SOL    HW247256   2.534   8.264   0.121
48473SOL     OW47257   6.140   3.810  10.958
48473SOL    HW147258   6.147   3.835  11.050
48473SOL    HW247259   6.088   3.730  10.959
48474SOL     OW47260   5.039   5.440   0.967
48474SOL    HW147261   4.986   5.499   1.021
48474SOL    HW247262   5.073   5.496   0.896
48475SOL     OW47263   5.193   6.126  11.953
48475SOL    HW147264   5.220   6.094  11.867
48475SOL    HW247265   5.099   6.107  11.957
48476SOL     OW47266   2.054   1.294  14.149
48476SOL    HW147267   2.111   1.219  14.166
48476SOL    HW247268   1.966   1.265  14.175
48477SOL     OW47269   6.300   7.826  14.677
48477SOL    HW147270   6.210   7.802  14.698
48477SOL    HW247271   6.353   7.770  14.733
48478SOL     OW47272   6.122  13.188   2.314
48478SOL    HW147273   6.027  13.197   2.311
48478SOL    HW247274   6.156  13.276   2.296
48479SOL     OW47275   8.702   2.959   1.315
48479SOL    HW147276   8.666   3.032   1.264
48479SOL    HW247277   8.726   2.894   1.249
48480SOL     OW47278   7.943  14.016   5.337
48480SOL    HW147279   7.940  14.062   5.422
48480SOL    HW247280   7.854  14.024   5.303
48481SOL     OW47281   5.946   8.309   8.478
48481SOL    HW147282   5.919   8.296   8.387
48481SOL    HW247283   5.906   8.236   8.525
48482SOL     OW47284   0.224   5.164   3.007
48482SOL    HW147285   0.314   5.138   3.027
48482SOL    HW247286   0.185   5.087   2.965
48483SOL     OW47287  13.808  12.714   5.561
48483SOL    HW147288  13.895  12.751   5.576
48483SOL    HW247289  13.771  12.768   5.491
48484SOL     OW47290   4.771   1.241   3.877
48484SOL    HW147291   4.820   1.205   3.803
48484SOL    HW247292   4.730   1.321   3.843
48485SOL     OW47293   7.539   1.969  13.918
48485SOL    HW147294   7.571   2.042  13.971
48485SOL    HW247295   7.449   1.954  13.950
48486SOL     OW47296   3.131   1.701   6.466
48486SOL    HW147297   3.085   1.738   6.390
48486SOL    HW247298   3.092   1.614   6.477
48487SOL     OW47299   8.971   0.111  10.616
48487SOL    HW147300   8.916   0.073  10.685
48487SOL    HW247301   9.050   0.057  10.616
48488SOL     OW47302  13.545  12.392   7.112
48488SOL    HW147303  13.478  12.325   7.103
48488SOL    HW247304  13.506  12.458   7.169
48489SOL     OW47305   1.571  14.802  12.540
48489SOL    HW147306   1.618  14.731  12.497
48489SOL    HW247307   1.486  14.765  12.561
48490SOL     OW47308  12.301   7.493   0.137
48490SOL    HW147309  12.283   7.415   0.085
48490SOL    HW247310  12.378   7.470   0.189
48491SOL     OW47311  11.364  10.788  12.744
48491SOL    HW147312  11.317  10.732  12.683
48491SOL    HW247313  11.392  10.863  12.692
48492SOL     OW47314   8.471   9.594   3.699
48492SOL    HW147315   8.479   9.501   3.678
48492SOL    HW247316   8.561   9.625   3.707
48493SOL     OW47317   3.106  11.688   1.547
48493SOL    HW147318   3.091  11.705   1.454
48493SOL    HW247319   3.047  11.616   1.568
48494SOL     OW47320   3.039   9.807   1.063
48494SOL    HW147321   3.023   9.715   1.086
48494SOL    HW247322   2.977   9.825   0.993
48495SOL     OW47323   6.851   1.782   5.787
48495SOL    HW147324   6.872   1.717   5.719
48495SOL    HW247325   6.845   1.865   5.739
48496SOL     OW47326  10.533   6.448   9.174
48496SOL    HW147327  10.569   6.397   9.247
48496SOL    HW247328  10.595   6.520   9.162
48497SOL     OW47329   2.370   4.859   0.637
48497SOL    HW147330   2.358   4.876   0.544
48497SOL    HW247331   2.286   4.823   0.666
48498SOL     OW47332   6.674   4.549  10.602
48498SOL    HW147333   6.608   4.481  10.592
48498SOL    HW247334   6.633   4.628  10.567
48499SOL     OW47335   1.028  13.054  13.899
48499SOL    HW147336   1.083  12.979  13.876
48499SOL    HW247337   0.992  13.033  13.985
48500SOL     OW47338   9.762   3.624  11.268
48500SOL    HW147339   9.688   3.573  11.301
48500SOL    HW247340   9.767   3.700  11.326
48501SOL     OW47341  14.252   7.991   1.068
48501SOL    HW147342  14.252   7.898   1.044
48501SOL    HW247343  14.160   8.011   1.086
48502SOL     OW47344   8.093   2.434   4.524
48502SOL    HW147345   8.019   2.494   4.531
48502SOL    HW247346   8.170   2.491   4.533
48503SOL     OW47347   8.834  12.094   9.432
48503SOL    HW147348   8.909  12.091   9.490
48503SOL    HW247349   8.759  12.106   9.490
48504SOL     OW47350  11.830  10.017   7.584
48504SOL    HW147351  11.904  10.012   7.524
48504SOL    HW247352  11.755   9.988   7.533
48505SOL     OW47353   1.793   5.655   2.944
48505SOL    HW147354   1.773   5.709   2.867
48505SOL    HW247355   1.871   5.696   2.982
48506SOL     OW47356   1.639   1.073  14.643
48506SOL    HW147357   1.626   1.017  14.567
48506SOL    HW247358   1.621   1.016  14.718
48507SOL     OW47359   2.625   4.381   1.395
48507SOL    HW147360   2.604   4.475   1.398
48507SOL    HW247361   2.693   4.373   1.329
48508SOL     OW47362   1.030   0.583   5.534
48508SOL    HW147363   0.995   0.669   5.561
48508SOL    HW247364   1.123   0.599   5.517
48509SOL     OW47365   8.010   1.824   8.789
48509SOL    HW147366   8.074   1.895   8.795
48509SOL    HW247367   8.044   1.767   8.720
48510SOL     OW47368   3.320  12.520   5.845
48510SOL    HW147369   3.344  12.461   5.773
48510SOL    HW247370   3.261  12.468   5.900
48511SOL     OW47371   4.649   9.288   5.381
48511SOL    HW147372   4.648   9.221   5.449
48511SOL    HW247373   4.740   9.317   5.377
48512SOL     OW47374  10.197   0.893   6.422
48512SOL    HW147375  10.274   0.842   6.399
48512SOL    HW247376  10.126   0.829   6.427
48513SOL     OW47377   4.148  10.986   2.635
48513SOL    HW147378   4.100  10.917   2.589
48513SOL    HW247379   4.158  10.953   2.724
48514SOL     OW47380   6.556   4.846   9.965
48514SOL    HW147381   6.505   4.911   9.917
48514SOL    HW247382   6.502   4.767   9.962
48515SOL     OW47383   4.110  11.186  12.478
48515SOL    HW147384   4.142  11.165  12.566
48515SOL    HW247385   4.188  11.207  12.428
48516SOL     OW47386  12.067   7.175   4.357
48516SOL    HW147387  12.116   7.216   4.427
48516SOL    HW247388  12.025   7.099   4.398
48517SOL     OW47389   2.048   7.700   8.021
48517SOL    HW147390   2.010   7.667   7.940
48517SOL    HW247391   1.973   7.734   8.070
48518SOL     OW47392  12.556   6.977   4.005
48518SOL    HW147393  12.489   6.965   4.072
48518SOL    HW247394  12.577   6.888   3.976
48519SOL     OW47395   1.337   1.004   5.306
48519SOL    HW147396   1.348   1.097   5.325
48519SOL    HW247397   1.252   0.981   5.344
48520SOL     OW47398   1.645   1.805   8.233
48520SOL    HW147399   1.654   1.870   8.163
48520SOL    HW247400   1.580   1.842   8.292
48521SOL     OW47401   3.247   7.146  12.596
48521SOL    HW147402   3.301   7.136  12.674
48521SOL    HW247403   3.161   7.113  12.622
48522SOL     OW47404   3.276   8.401  13.504
48522SOL    HW147405   3.323   8.429  13.425
48522SOL    HW247406   3.344   8.389  13.570
48523SOL     OW47407   8.557   1.614  11.991
48523SOL    HW147408   8.463   1.628  12.001
48523SOL    HW247409   8.564   1.554  11.917
48524SOL     OW47410   8.563  11.412   5.194
48524SOL    HW147411   8.488  11.469   5.181
48524SOL    HW247412   8.617  11.457   5.260
48525SOL     OW47413   9.001  14.671  11.081
48525SOL    HW147414   8.990  14.596  11.022
48525SOL    HW247415   8.921  14.722  11.070
48526SOL     OW47416   5.948  10.479   5.248
48526SOL    HW147417   5.940  10.386   5.269
48526SOL    HW247418   6.042  10.491   5.231
48527SOL     OW47419   0.733   2.442  13.599
48527SOL    HW147420   0.718   2.355  13.562
48527SOL    HW247421   0.827   2.444  13.617
48528SOL     OW47422   9.275   1.408   1.638
48528SOL    HW147423   9.206   1.474   1.635
48528SOL    HW247424   9.356   1.459   1.632
48529SOL     OW47425   3.714   4.296  13.772
48529SOL    HW147426   3.639   4.331  13.725
48529SOL    HW247427   3.676   4.237  13.837
48530SOL     OW47428  10.296   2.054   5.474
48530SOL    HW147429  10.274   2.147   5.486
48530SOL    HW247430  10.391   2.051   5.474
48531SOL     OW47431   5.325   3.036  10.544
48531SOL    HW147432   5.338   3.102  10.475
48531SOL    HW247433   5.287   2.961  10.499
48532SOL     OW47434   3.338   7.405   9.519
48532SOL    HW147435   3.291   7.441   9.444
48532SOL    HW247436   3.389   7.332   9.483
48533SOL     OW47437   3.536   9.655  12.415
48533SOL    HW147438   3.576   9.742  12.410
48533SOL    HW247439   3.450   9.672  12.453
48534SOL     OW47440   9.604   7.243   4.594
48534SOL    HW147441   9.526   7.210   4.638
48534SOL    HW247442   9.644   7.301   4.658
48535SOL     OW47443  13.357   6.865  12.989
48535SOL    HW147444  13.269   6.899  12.971
48535SOL    HW247445  13.345   6.803  13.061
48536SOL     OW47446   2.942   6.782   5.574
48536SOL    HW147447   3.017   6.748   5.622
48536SOL    HW247448   2.961   6.876   5.565
48537SOL     OW47449  13.351  11.942   8.444
48537SOL    HW147450  13.444  11.964   8.441
48537SOL    HW247451  13.311  11.995   8.375
48538SOL     OW47452   0.430   7.125  12.561
48538SOL    HW147453   0.449   7.035  12.536
48538SOL    HW247454   0.498   7.177  12.518
48539SOL     OW47455   5.199   0.427   6.678
48539SOL    HW147456   5.210   0.407   6.771
48539SOL    HW247457   5.262   0.371   6.633
48540SOL     OW47458  12.852   0.377   1.991
48540SOL    HW147459  12.784   0.360   2.057
48540SOL    HW247460  12.930   0.335   2.027
48541SOL     OW47461   7.365   0.136   0.023
48541SOL    HW147462   7.435   0.150  14.832
48541SOL    HW247463   7.363   0.041   0.034
48542SOL     OW47464  12.679   1.436  13.292
48542SOL    HW147465  12.608   1.375  13.273
48542SOL    HW247466  12.652   1.480  13.372
48543SOL     OW47467   2.367  10.092   2.734
48543SOL    HW147468   2.309  10.129   2.667
48543SOL    HW247469   2.408  10.168   2.774
48544SOL     OW47470  12.334  10.117   2.125
48544SOL    HW147471  12.319  10.145   2.216
48544SOL    HW247472  12.430  10.114   2.116
48545SOL     OW47473   5.985  10.563   0.667
48545SOL    HW147474   5.995  10.478   0.624
48545SOL    HW247475   5.914  10.606   0.618
48546SOL     OW47476   8.808   3.965   5.202
48546SOL    HW147477   8.867   3.890   5.195
48546SOL    HW247478   8.813   4.007   5.116
48547SOL     OW47479  10.464   2.875   6.275
48547SOL    HW147480  10.395   2.823   6.315
48547SOL    HW247481  10.450   2.866   6.180
48548SOL     OW47482   1.565   3.933  10.132
48548SOL    HW147483   1.575   3.976  10.217
48548SOL    HW247484   1.605   3.846  10.145
48549SOL     OW47485   0.143   3.597  10.414
48549SOL    HW147486   0.122   3.671  10.358
48549SOL    HW247487   0.237   3.604  10.430
48550SOL     OW47488   7.304   8.134  13.788
48550SOL    HW147489   7.354   8.124  13.707
48550SOL    HW247490   7.246   8.209  13.771
48551SOL     OW47491  10.914   3.221   8.069
48551SOL    HW147492  10.925   3.251   7.979
48551SOL    HW247493  10.856   3.145   8.062
48552SOL     OW47494   5.278   4.522   4.807
48552SOL    HW147495   5.226   4.574   4.746
48552SOL    HW247496   5.368   4.536   4.781
48553SOL     OW47497   1.098   1.855   8.617
48553SOL    HW147498   1.084   1.899   8.701
48553SOL    HW247499   1.042   1.777   8.622
48554SOL     OW47500  11.504   4.093   9.910
48554SOL    HW147501  11.415   4.070   9.935
48554SOL    HW247502  11.518   4.050   9.826
48555SOL     OW47503   7.947  12.745  13.047
48555SOL    HW147504   8.031  12.725  13.006
48555SOL    HW247505   7.962  12.828  13.092
48556SOL     OW47506   9.850   4.035   8.914
48556SOL    HW147507   9.870   4.126   8.938
48556SOL    HW247508   9.763   4.020   8.951
48557SOL     OW47509  14.057   1.343   4.572
48557SOL    HW147510  14.055   1.361   4.478
48557SOL    HW247511  13.992   1.274   4.585
48558SOL     OW47512   3.837   5.179  11.827
48558SOL    HW147513   3.772   5.210  11.764
48558SOL    HW247514   3.854   5.254  11.883
48559SOL     OW47515   2.043   2.256  14.164
48559SOL    HW147516   1.977   2.221  14.105
48559SOL    HW247517   2.120   2.200  14.151
48560SOL     OW47518   4.948   0.773  10.118
48560SOL    HW147519   5.039   0.750  10.099
48560SOL    HW247520   4.917   0.812  10.036
48561SOL     OW47521   3.422   4.195   1.735
48561SOL    HW147522   3.475   4.122   1.702
48561SOL    HW247523   3.477   4.235   1.803
48562SOL     OW47524   8.506  12.904  10.578
48562SOL    HW147525   8.455  12.862  10.647
48562SOL    HW247526   8.503  12.842  10.505
48563SOL     OW47527   3.949   8.660   6.102
48563SOL    HW147528   3.891   8.596   6.145
48563SOL    HW247529   3.938   8.740   6.153
48564SOL     OW47530   6.243   1.654  10.325
48564SOL    HW147531   6.284   1.578  10.285
48564SOL    HW247532   6.309   1.723  10.318
48565SOL     OW47533  11.954   9.050   4.422
48565SOL    HW147534  11.940   8.955   4.431
48565SOL    HW247535  11.911   9.087   4.499
48566SOL     OW47536  10.504   1.763   8.858
48566SOL    HW147537  10.565   1.717   8.801
48566SOL    HW247538  10.495   1.706   8.934
48567SOL     OW47539   9.425   9.978  12.321
48567SOL    HW147540   9.330   9.967  12.334
48567SOL    HW247541   9.433  10.012  12.232
48568SOL     OW47542   7.517  14.463   0.553
48568SOL    HW147543   7.455  14.510   0.498
48568SOL    HW247544   7.568  14.409   0.491
48569SOL     OW47545   9.171   2.503   9.517
48569SOL    HW147546   9.207   2.432   9.464
48569SOL    HW247547   9.244   2.562   9.532
48570SOL     OW47548   3.463  12.651   7.545
48570SOL    HW147549   3.411  12.676   7.622
48570SOL    HW247550   3.478  12.734   7.499
48571SOL     OW47551  10.758  10.408   7.377
48571SOL    HW147552  10.732  10.343   7.312
48571SOL    HW247553  10.835  10.450   7.339
48572SOL     OW47554   7.857  14.154  12.602
48572SOL    HW147555   7.824  14.094  12.534
48572SOL    HW247556   7.795  14.227  12.602
48573SOL     OW47557   2.704   8.017   8.253
48573SOL    HW147558   2.665   8.039   8.337
48573SOL    HW247559   2.789   8.060   8.254
48574SOL     OW47560  13.553   9.573   3.617
48574SOL    HW147561  13.489   9.560   3.688
48574SOL    HW247562  13.636   9.542   3.653
48575SOL     OW47563   2.144  12.724   3.167
48575SOL    HW147564   2.145  12.793   3.233
48575SOL    HW247565   2.205  12.659   3.201
48576SOL     OW47566   4.484   8.299   7.577
48576SOL    HW147567   4.438   8.325   7.657
48576SOL    HW247568   4.566   8.348   7.579
48577SOL     OW47569   3.784   9.660   7.551
48577SOL    HW147570   3.854   9.623   7.606
48577SOL    HW247571   3.815   9.748   7.530
48578SOL     OW47572  14.332  10.310   7.756
48578SOL    HW147573  14.402  10.374   7.743
48578SOL    HW247574  14.359  10.234   7.705
48579SOL     OW47575  12.086  10.877   1.461
48579SOL    HW147576  12.126  10.955   1.501
48579SOL    HW247577  12.135  10.863   1.380
48580SOL     OW47578   7.381   4.827  12.887
48580SOL    HW147579   7.336   4.745  12.905
48580SOL    HW247580   7.372   4.840  12.793
48581SOL     OW47581   9.194   7.110   8.013
48581SOL    HW147582   9.250   7.167   7.960
48581SOL    HW247583   9.210   7.136   8.103
48582SOL     OW47584   8.747   3.625   7.685
48582SOL    HW147585   8.772   3.655   7.773
48582SOL    HW247586   8.721   3.705   7.639
48583SOL     OW47587  11.041   9.854   3.425
48583SOL    HW147588  11.130   9.834   3.394
48583SOL    HW247589  10.995   9.885   3.347
48584SOL     OW47590   3.037   0.961   4.577
48584SOL    HW147591   3.013   0.921   4.494
48584SOL    HW247592   2.996   0.905   4.644
48585SOL     OW47593  12.790  10.289   8.157
48585SOL    HW147594  12.835  10.215   8.197
48585SOL    HW247595  12.698  10.263   8.152
48586SOL     OW47596   6.088   0.044   3.032
48586SOL    HW147597   6.144   0.004   3.099
48586SOL    HW247598   5.999   0.030   3.064
48587SOL     OW47599   1.238   8.576   8.403
48587SOL    HW147600   1.307   8.556   8.467
48587SOL    HW247601   1.234   8.498   8.348
48588SOL     OW47602  14.196   8.385  13.624
48588SOL    HW147603  14.180   8.399  13.717
48588SOL    HW247604  14.291   8.388  13.615
48589SOL     OW47605   2.005   2.459   6.327
48589SOL    HW147606   2.055   2.535   6.296
48589SOL    HW247607   2.065   2.385   6.317
48590SOL     OW47608  14.271   8.330   5.487
48590SOL    HW147609  14.200   8.332   5.423
48590SOL    HW247610  14.334   8.395   5.455
48591SOL     OW47611  10.312   3.509  10.564
48591SOL    HW147612  10.378   3.456  10.609
48591SOL    HW247613  10.230   3.460  10.577
48592SOL     OW47614  12.720  10.840   0.525
48592SOL    HW147615  12.650  10.890   0.566
48592SOL    HW247616  12.748  10.894   0.451
48593SOL     OW47617   6.635   7.320  13.640
48593SOL    HW147618   6.574   7.289  13.707
48593SOL    HW247619   6.685   7.242  13.615
48594SOL     OW47620   0.698  10.462   1.426
48594SOL    HW147621   0.616  10.510   1.436
48594SOL    HW247622   0.763  10.518   1.469
48595SOL     OW47623   6.262  11.816  10.411
48595SOL    HW147624   6.265  11.729  10.370
48595SOL    HW247625   6.354  11.839  10.424
48596SOL     OW47626   4.797   5.744  12.803
48596SOL    HW147627   4.860   5.719  12.735
48596SOL    HW247628   4.713   5.711  12.770
48597SOL     OW47629   4.470   4.455   2.438
48597SOL    HW147630   4.541   4.519   2.427
48597SOL    HW247631   4.509   4.372   2.412
48598SOL     OW47632   6.832   2.012   0.795
48598SOL    HW147633   6.766   2.075   0.766
48598SOL    HW247634   6.869   2.051   0.874
48599SOL     OW47635  12.760  13.315   2.378
48599SOL    HW147636  12.761  13.219   2.369
48599SOL    HW247637  12.816  13.345   2.306
48600SOL     OW47638   3.713  12.554   7.508
48600SOL    HW147639   3.762  12.636   7.509
48600SOL    HW247640   3.623  12.580   7.529
48601SOL     OW47641   9.835  13.355   2.420
48601SOL    HW147642   9.827  13.416   2.347
48601SOL    HW247643   9.745  13.337   2.447
48602SOL     OW47644   0.036   9.504  11.298
48602SOL    HW147645   0.055   9.597  11.302
48602SOL    HW247646   0.092   9.471  11.228
48603SOL     OW47647  11.442   1.876   8.030
48603SOL    HW147648  11.432   1.914   7.943
48603SOL    HW247649  11.509   1.930   8.072
48604SOL     OW47650  10.232   3.503   2.273
48604SOL    HW147651  10.138   3.511   2.263
48604SOL    HW247652  10.244   3.420   2.319
48605SOL     OW47653   3.250  11.095   5.987
48605SOL    HW147654   3.289  11.103   5.900
48605SOL    HW247655   3.225  11.003   5.994
48606SOL     OW47656   4.163   0.417   3.074
48606SOL    HW147657   4.253   0.430   3.046
48606SOL    HW247658   4.121   0.502   3.060
48607SOL     OW47659   0.187   8.173   4.613
48607SOL    HW147660   0.247   8.140   4.680
48607SOL    HW247661   0.141   8.096   4.581
48608SOL     OW47662   8.398   7.181   1.616
48608SOL    HW147663   8.476   7.221   1.576
48608SOL    HW247664   8.331   7.186   1.548
48609SOL     OW47665   7.694  11.494   4.677
48609SOL    HW147666   7.760  11.534   4.735
48609SOL    HW247667   7.631  11.455   4.737
48610SOL     OW47668   6.136   6.792   5.528
48610SOL    HW147669   6.227   6.787   5.559
48610SOL    HW247670   6.084   6.763   5.603
48611SOL     OW47671   7.938   4.442  12.569
48611SOL    HW147672   7.907   4.408  12.485
48611SOL    HW247673   7.865   4.494  12.603
48612SOL     OW47674   1.930  14.596   1.086
48612SOL    HW147675   1.908  14.566   1.174
48612SOL    HW247676   1.941  14.690   1.095
48613SOL     OW47677   1.799   1.498  13.430
48613SOL    HW147678   1.845   1.472  13.510
48613SOL    HW247679   1.823   1.432  13.366
48614SOL     OW47680   5.107   3.481   3.321
48614SOL    HW147681   5.108   3.403   3.377
48614SOL    HW247682   5.033   3.466   3.262
48615SOL     OW47683  11.677   5.730  10.535
48615SOL    HW147684  11.630   5.665  10.482
48615SOL    HW247685  11.609   5.768  10.591
48616SOL     OW47686  11.324   5.644   3.949
48616SOL    HW147687  11.299   5.707   3.881
48616SOL    HW247688  11.338   5.698   4.027
48617SOL     OW47689   5.084   2.875  10.122
48617SOL    HW147690   5.026   2.923  10.062
48617SOL    HW247691   5.029   2.857  10.198
48618SOL     OW47692   7.763   7.677   7.326
48618SOL    HW147693   7.793   7.603   7.379
48618SOL    HW247694   7.810   7.753   7.361
48619SOL     OW47695  12.681  11.504   3.192
48619SOL    HW147696  12.716  11.439   3.254
48619SOL    HW247697  12.613  11.550   3.241
48620SOL     OW47698  14.282  13.358  13.659
48620SOL    HW147699  14.252  13.400  13.739
48620SOL    HW247700  14.374  13.382  13.652
48621SOL     OW47701   1.209   9.628  10.616
48621SOL    HW147702   1.276   9.652  10.680
48621SOL    HW247703   1.135   9.599  10.669
48622SOL     OW47704   9.630   5.211   1.482
48622SOL    HW147705   9.573   5.185   1.411
48622SOL    HW247706   9.636   5.133   1.538
48623SOL     OW47707   0.155   5.290   8.934
48623SOL    HW147708   0.188   5.270   8.846
48623SOL    HW247709   0.065   5.259   8.933
48624SOL     OW47710   0.778   4.616  12.739
48624SOL    HW147711   0.688   4.597  12.713
48624SOL    HW247712   0.797   4.552  12.808
48625SOL     OW47713  13.782  14.547   4.875
48625SOL    HW147714  13.864  14.499   4.881
48625SOL    HW247715  13.783  14.607   4.950
48626SOL     OW47716   1.959  11.426  10.520
48626SOL    HW147717   1.912  11.412  10.438
48626SOL    HW247718   2.052  11.415  10.497
48627SOL     OW47719   2.550   4.556   7.104
48627SOL    HW147720   2.569   4.493   7.035
48627SOL    HW247721   2.464   4.531   7.136
48628SOL     OW47722  13.208   4.842   6.601
48628SOL    HW147723  13.276   4.803   6.546
48628SOL    HW247724  13.252   4.916   6.643
48629SOL     OW47725   3.040   9.302   3.147
48629SOL    HW147726   3.126   9.316   3.107
48629SOL    HW247727   3.014   9.215   3.117
48630SOL     OW47728   2.115  14.592   9.382
48630SOL    HW147729   2.054  14.518   9.377
48630SOL    HW247730   2.159  14.592   9.296
48631SOL     OW47731   8.439   5.728   1.482
48631SOL    HW147732   8.466   5.745   1.572
48631SOL    HW247733   8.350   5.762   1.477
48632SOL     OW47734   1.753  10.170   2.225
48632SOL    HW147735   1.841  10.170   2.262
48632SOL    HW247736   1.760  10.224   2.146
48633SOL     OW47737   7.189  11.877   1.001
48633SOL    HW147738   7.099  11.893   0.975
48633SOL    HW247739   7.225  11.964   1.018
48634SOL     OW47740  14.851   8.050  10.524
48634SOL    HW147741  14.827   8.008  10.607
48634SOL    HW247742  14.790   8.123  10.516
48635SOL     OW47743   8.614   4.850   4.026
48635SOL    HW147744   8.538   4.816   4.073
48635SOL    HW247745   8.612   4.944   4.042
48636SOL     OW47746   6.254  11.797  14.765
48636SOL    HW147747   6.177  11.790  14.822
48636SOL    HW247748   6.292  11.709  14.766
48637SOL     OW47749   5.808  11.978   4.995
48637SOL    HW147750   5.821  11.922   5.071
48637SOL    HW247751   5.872  11.947   4.931
48638SOL     OW47752   2.200  13.456   0.775
48638SOL    HW147753   2.154  13.417   0.850
48638SOL    HW247754   2.287  13.477   0.809
48639SOL     OW47755   5.530   1.914   1.585
48639SOL    HW147756   5.447   1.955   1.610
48639SOL    HW247757   5.527   1.827   1.624
48640SOL     OW47758  13.612  11.006  10.956
48640SOL    HW147759  13.527  10.965  10.940
48640SOL    HW247760  13.646  11.026  10.869
48641SOL     OW47761   1.078  14.247   4.597
48641SOL    HW147762   1.102  14.324   4.648
48641SOL    HW247763   1.134  14.250   4.520
48642SOL     OW47764  12.400   9.158  12.761
48642SOL    HW147765  12.375   9.126  12.848
48642SOL    HW247766  12.325   9.139  12.705
48643SOL     OW47767   4.977  13.408  11.037
48643SOL    HW147768   5.021  13.491  11.058
48643SOL    HW247769   4.893  13.434  10.999
48644SOL     OW47770  11.189  14.854   1.373
48644SOL    HW147771  11.197  14.864   1.468
48644SOL    HW247772  11.157  14.765   1.361
48645SOL     OW47773   9.597  10.024  12.570
48645SOL    HW147774   9.588  10.114  12.600
48645SOL    HW247775   9.539  10.018  12.494
48646SOL     OW47776   3.435  13.431  13.953
48646SOL    HW147777   3.529  13.441  13.971
48646SOL    HW247778   3.423  13.474  13.868
48647SOL     OW47779   0.255   5.987   9.818
48647SOL    HW147780   0.243   6.020   9.907
48647SOL    HW247781   0.306   6.056   9.774
48648SOL     OW47782  13.820   3.104  14.211
48648SOL    HW147783  13.808   3.051  14.290
48648SOL    HW247784  13.735   3.102  14.168
48649SOL     OW47785   8.507   3.943   7.094
48649SOL    HW147786   8.532   3.998   7.019
48649SOL    HW247787   8.412   3.955   7.102
48650SOL     OW47788   5.031  13.627  11.326
48650SOL    HW147789   4.949  13.659  11.363
48650SOL    HW247790   5.062  13.563  11.390
48651SOL     OW47791  10.903  14.622  10.077
48651SOL    HW147792  10.815  14.590  10.054
48651SOL    HW247793  10.889  14.712  10.106
48652SOL     OW47794  14.072   6.446   7.996
48652SOL    HW147795  14.038   6.481   8.079
48652SOL    HW247796  14.020   6.490   7.929
48653SOL     OW47797   2.344  14.047   7.074
48653SOL    HW147798   2.305  13.977   7.020
48653SOL    HW247799   2.421  14.074   7.025
48654SOL     OW47800   2.253   7.340  13.217
48654SOL    HW147801   2.180   7.400  13.198
48654SOL    HW247802   2.211   7.263  13.254
48655SOL     OW47803   0.498  11.646  12.316
48655SOL    HW147804   0.501  11.649  12.412
48655SOL    HW247805   0.451  11.725  12.291
48656SOL     OW47806   1.381  14.675   3.726
48656SOL    HW147807   1.343  14.650   3.642
48656SOL    HW247808   1.312  14.656   3.790
48657SOL     OW47809   4.258   0.467   8.042
48657SOL    HW147810   4.186   0.415   8.007
48657SOL    HW247811   4.330   0.405   8.050
48658SOL     OW47812   1.526  10.718  12.590
48658SOL    HW147813   1.509  10.788  12.528
48658SOL    HW247814   1.617  10.693  12.573
48659SOL     OW47815   6.041  12.529  13.665
48659SOL    HW147816   6.118  12.476  13.685
48659SOL    HW247817   6.021  12.574  13.746
48660SOL     OW47818  10.538   4.695   5.209
48660SOL    HW147819  10.573   4.608   5.228
48660SOL    HW247820  10.576   4.718   5.125
48661SOL     OW47821   9.189   4.414   5.342
48661SOL    HW147822   9.165   4.324   5.319
48661SOL    HW247823   9.272   4.429   5.296
48662SOL     OW47824   5.083   3.984  13.769
48662SOL    HW147825   5.076   3.895  13.803
48662SOL    HW247826   5.176   3.995  13.747
48663SOL     OW47827  10.163   4.255  10.425
48663SOL    HW147828  10.246   4.294  10.399
48663SOL    HW247829  10.099   4.292  10.365
48664SOL     OW47830   7.514   2.354   4.766
48664SOL    HW147831   7.422   2.353   4.792
48664SOL    HW247832   7.551   2.431   4.809
48665SOL     OW47833  12.019   9.221  13.252
48665SOL    HW147834  12.061   9.182  13.328
48665SOL    HW247835  12.002   9.148  13.192
48666SOL     OW47836  11.162   3.501  14.851
48666SOL    HW147837  11.089   3.562  14.864
48666SOL    HW247838  11.153   3.473  14.761
48667SOL     OW47839   7.985  13.359   6.333
48667SOL    HW147840   8.005  13.434   6.389
48667SOL    HW247841   8.006  13.389   6.244
48668SOL     OW47842   3.382   3.312   9.187
48668SOL    HW147843   3.442   3.240   9.207
48668SOL    HW247844   3.437   3.390   9.191
48669SOL     OW47845  13.273  12.782  10.595
48669SOL    HW147846  13.280  12.866  10.550
48669SOL    HW247847  13.213  12.798  10.668
48670SOL     OW47848   2.463   6.526  10.641
48670SOL    HW147849   2.435   6.498  10.554
48670SOL    HW247850   2.406   6.477  10.701
48671SOL     OW47851   5.969   0.722  14.535
48671SOL    HW147852   5.938   0.794  14.479
48671SOL    HW247853   6.031   0.763  14.595
48672SOL     OW47854   1.799   4.297   0.017
48672SOL    HW147855   1.789   4.288   0.112
48672SOL    HW247856   1.892   4.276   0.001
48673SOL     OW47857   6.353   9.092  13.368
48673SOL    HW147858   6.308   9.058  13.445
48673SOL    HW247859   6.396   9.016  13.329
48674SOL     OW47860   7.409   0.678   2.243
48674SOL    HW147861   7.500   0.696   2.218
48674SOL    HW247862   7.362   0.758   2.220
48675SOL     OW47863  13.806  12.471   3.128
48675SOL    HW147864  13.741  12.481   3.058
48675SOL    HW247865  13.754  12.451   3.206
48676SOL     OW47866   1.482   6.286   6.266
48676SOL    HW147867   1.557   6.266   6.210
48676SOL    HW247868   1.458   6.201   6.304
48677SOL     OW47869  14.041   5.125   7.271
48677SOL    HW147870  13.997   5.044   7.244
48677SOL    HW247871  14.071   5.164   7.189
48678SOL     OW47872  13.630  11.220   7.113
48678SOL    HW147873  13.654  11.146   7.168
48678SOL    HW247874  13.691  11.215   7.039
48679SOL     OW47875   5.498   9.686   4.211
48679SOL    HW147876   5.406   9.670   4.194
48679SOL    HW247877   5.503   9.705   4.305
48680SOL     OW47878  12.307   9.366   5.849
48680SOL    HW147879  12.216   9.383   5.873
48680SOL    HW247880  12.354   9.365   5.933
48681SOL     OW47881   4.478   5.883   3.729
48681SOL    HW147882   4.434   5.952   3.679
48681SOL    HW247883   4.551   5.856   3.673
48682SOL     OW47884   6.517   9.819   4.671
48682SOL    HW147885   6.555   9.733   4.687
48682SOL    HW247886   6.559   9.850   4.591
48683SOL     OW47887   1.838  13.332   9.426
48683SOL    HW147888   1.833  13.277   9.348
48683SOL    HW247889   1.922  13.376   9.419
48684SOL     OW47890   7.844   6.611   0.010
48684SOL    HW147891   7.788   6.586  14.810
48684SOL    HW247892   7.932   6.585  14.856
48685SOL     OW47893   1.833   9.554  13.544
48685SOL    HW147894   1.920   9.559  13.505
48685SOL    HW247895   1.775   9.593  13.479
48686SOL     OW47896  12.181   3.844   9.499
48686SOL    HW147897  12.111   3.905   9.475
48686SOL    HW247898  12.209   3.805   9.416
48687SOL     OW47899   8.140  12.295   7.185
48687SOL    HW147900   8.097  12.312   7.101
48687SOL    HW247901   8.232  12.313   7.168
48688SOL     OW47902   0.511   5.238  10.797
48688SOL    HW147903   0.605   5.250  10.780
48688SOL    HW247904   0.473   5.225  10.711
48689SOL     OW47905  13.518   6.656  10.933
48689SOL    HW147906  13.523   6.730  10.873
48689SOL    HW247907  13.454   6.683  10.999
48690SOL     OW47908  11.292   4.239   8.776
48690SOL    HW147909  11.378   4.205   8.752
48690SOL    HW247910  11.311   4.317   8.828
48691SOL     OW47911  12.256  11.499   1.919
48691SOL    HW147912  12.264  11.541   1.833
48691SOL    HW247913  12.291  11.411   1.906
48692SOL     OW47914   3.250   4.382  10.261
48692SOL    HW147915   3.326   4.340  10.301
48692SOL    HW247916   3.180   4.371  10.325
48693SOL     OW47917   2.001   4.370   0.631
48693SOL    HW147918   2.085   4.355   0.676
48693SOL    HW247919   1.999   4.465   0.618
48694SOL     OW47920  10.205   4.423  12.598
48694SOL    HW147921  10.153   4.351  12.633
48694SOL    HW247922  10.271   4.381  12.544
48695SOL     OW47923  14.303   7.364   1.506
48695SOL    HW147924  14.219   7.376   1.550
48695SOL    HW247925  14.301   7.275   1.473
48696SOL     OW47926   3.688   9.780   8.747
48696SOL    HW147927   3.697   9.773   8.842
48696SOL    HW247928   3.597   9.757   8.730
48697SOL     OW47929   1.681  12.812   3.294
48697SOL    HW147930   1.704  12.815   3.387
48697SOL    HW247931   1.745  12.752   3.255
48698SOL     OW47932   8.634   1.908   9.369
48698SOL    HW147933   8.663   1.835   9.425
48698SOL    HW247934   8.540   1.893   9.357
48699SOL     OW47935   7.068  12.131   5.882
48699SOL    HW147936   7.111  12.133   5.796
48699SOL    HW247937   7.121  12.190   5.936
48700SOL     OW47938   9.224  11.089  10.376
48700SOL    HW147939   9.154  11.028  10.357
48700SOL    HW247940   9.294  11.035  10.412
48701SOL     OW47941   7.421   5.156  12.735
48701SOL    HW147942   7.368   5.084  12.701
48701SOL    HW247943   7.373   5.235  12.711
48702SOL     OW47944  12.799   4.001   1.362
48702SOL    HW147945  12.729   4.066   1.363
48702SOL    HW247946  12.839   4.010   1.275
48703SOL     OW47947   5.238   1.048   7.971
48703SOL    HW147948   5.289   1.075   7.895
48703SOL    HW247949   5.154   1.092   7.960
48704SOL     OW47950   1.733   1.873   3.623
48704SOL    HW147951   1.758   1.870   3.531
48704SOL    HW247952   1.645   1.833   3.625
48705SOL     OW47953   8.538  14.694  10.846
48705SOL    HW147954   8.467  14.670  10.786
48705SOL    HW247955   8.495  14.710  10.930
48706SOL     OW47956  10.381   5.795  12.605
48706SOL    HW147957  10.376   5.702  12.625
48706SOL    HW247958  10.473   5.812  12.589
48707SOL     OW47959   2.995   1.329   5.922
48707SOL    HW147960   2.983   1.237   5.946
48707SOL    HW247961   2.945   1.340   5.841
48708SOL     OW47962   8.109   7.272   4.121
48708SOL    HW147963   8.171   7.342   4.103
48708SOL    HW247964   8.138   7.235   4.205
48709SOL     OW47965  14.180  10.446   3.439
48709SOL    HW147966  14.209  10.525   3.484
48709SOL    HW247967  14.117  10.477   3.374
48710SOL     OW47968  14.713   4.821  12.795
48710SOL    HW147969  14.626   4.780  12.792
48710SOL    HW247970  14.771   4.756  12.755
48711SOL     OW47971   2.713   6.288  13.874
48711SOL    HW147972   2.706   6.383  13.865
48711SOL    HW247973   2.681   6.271  13.963
48712SOL     OW47974   0.906   6.601  12.244
48712SOL    HW147975   0.917   6.633  12.154
48712SOL    HW247976   0.890   6.680  12.295
48713SOL     OW47977   5.813   1.111   7.385
48713SOL    HW147978   5.900   1.073   7.372
48713SOL    HW247979   5.820   1.160   7.466
48714SOL     OW47980   4.261   9.167   1.956
48714SOL    HW147981   4.353   9.166   1.982
48714SOL    HW247982   4.225   9.244   2.001
48715SOL     OW47983  11.605  14.117   2.828
48715SOL    HW147984  11.685  14.159   2.858
48715SOL    HW247985  11.539  14.185   2.831
48716SOL     OW47986   2.093   8.678   7.047
48716SOL    HW147987   2.058   8.658   7.134
48716SOL    HW247988   2.129   8.596   7.016
48717SOL     OW47989   8.663   0.044   0.922
48717SOL    HW147990   8.707  14.836   0.945
48717SOL    HW247991   8.721   0.086   0.858
48718SOL     OW47992   2.260   6.548   9.327
48718SOL    HW147993   2.303   6.621   9.372
48718SOL    HW247994   2.314   6.534   9.249
48719SOL     OW47995  10.165  11.274   7.128
48719SOL    HW147996  10.123  11.221   7.060
48719SOL    HW247997  10.252  11.292   7.094
48720SOL     OW47998  13.991   8.802   5.922
48720SOL    HW147999  13.963   8.891   5.900
48720SOL    HW248000  14.033   8.770   5.842
48721SOL     OW48001   2.168   2.223  10.074
48721SOL    HW148002   2.175   2.223  10.169
48721SOL    HW248003   2.074   2.218  10.057
48722SOL     OW48004  12.162  14.842   9.664
48722SOL    HW148005  12.143  14.752   9.688
48722SOL    HW248006  12.079   0.015   9.670
48723SOL     OW48007   3.830  13.929   4.911
48723SOL    HW148008   3.758  13.890   4.960
48723SOL    HW248009   3.899  13.863   4.912
48724SOL     OW48010  12.782   2.543   6.558
48724SOL    HW148011  12.759   2.627   6.517
48724SOL    HW248012  12.716   2.482   6.525
48725SOL     OW48013  12.707   9.239   4.262
48725SOL    HW148014  12.698   9.166   4.324
48725SOL    HW248015  12.801   9.256   4.258
48726SOL     OW48016   0.112   9.002   5.975
48726SOL    HW148017   0.145   9.054   6.048
48726SOL    HW248018   0.033   9.047   5.947
48727SOL     OW48019  13.805   0.689   4.818
48727SOL    HW148020  13.820   0.657   4.729
48727SOL    HW248021  13.739   0.758   4.809
48728SOL     OW48022  10.278  10.158   4.536
48728SOL    HW148023  10.276  10.143   4.631
48728SOL    HW248024  10.340  10.230   4.525
48729SOL     OW48025  13.893   2.528  11.095
48729SOL    HW148026  13.934   2.470  11.159
48729SOL    HW248027  13.809   2.551  11.134
48730SOL     OW48028  12.922   6.222  13.796
48730SOL    HW148029  12.932   6.317  13.800
48730SOL    HW248030  12.945   6.199  13.706
48731SOL     OW48031  14.840   8.369   2.559
48731SOL    HW148032  14.745   8.368   2.576
48731SOL    HW248033  14.847   8.382   2.465
48732SOL     OW48034   2.413  12.303   6.417
48732SOL    HW148035   2.450  12.347   6.493
48732SOL    HW248036   2.396  12.374   6.354
48733SOL     OW48037   9.443   4.118  11.490
48733SOL    HW148038   9.350   4.097  11.495
48733SOL    HW248039   9.486   4.045  11.534
48734SOL     OW48040   5.300   4.280  12.553
48734SOL    HW148041   5.301   4.185  12.544
48734SOL    HW248042   5.253   4.311  12.475
48735SOL     OW48043  13.641   0.161   4.723
48735SOL    HW148044  13.603   0.079   4.691
48735SOL    HW248045  13.666   0.141   4.813
48736SOL     OW48046  11.351  12.802  11.700
48736SOL    HW148047  11.360  12.732  11.635
48736SOL    HW248048  11.275  12.853  11.670
48737SOL     OW48049  12.488  12.590   0.047
48737SOL    HW148050  12.500  12.646  14.844
48737SOL    HW248051  12.571  12.542   0.055
48738SOL     OW48052   1.750   0.172   4.679
48738SOL    HW148053   1.683   0.179   4.611
48738SOL    HW248054   1.783   0.082   4.670
48739SOL     OW48055   9.062   5.328  13.890
48739SOL    HW148056   9.137   5.308  13.946
48739SOL    HW248057   8.998   5.367  13.950
48740SOL     OW48058  10.940   3.016   6.129
48740SOL    HW148059  10.883   2.985   6.200
48740SOL    HW248060  10.942   3.111   6.140
48741SOL     OW48061   4.812  11.761  11.611
48741SOL    HW148062   4.717  11.766  11.600
48741SOL    HW248063   4.824  11.735  11.702
48742SOL     OW48064  10.393  13.208   6.307
48742SOL    HW148065  10.481  13.172   6.296
48742SOL    HW248066  10.407  13.303   6.317
48743SOL     OW48067   9.307  14.550   3.279
48743SOL    HW148068   9.323  14.534   3.372
48743SOL    HW248069   9.394  14.564   3.242
48744SOL     OW48070   2.494   6.887   4.783
48744SOL    HW148071   2.505   6.981   4.767
48744SOL    HW248072   2.583   6.854   4.795
48745SOL     OW48073   5.694   8.988  13.259
48745SOL    HW148074   5.672   8.895  13.255
48745SOL    HW248075   5.781   8.991  13.297
48746SOL     OW48076  14.440   4.418   9.761
48746SOL    HW148077  14.356   4.454   9.732
48746SOL    HW248078  14.442   4.438   9.855
48747SOL     OW48079   7.360   2.351   0.146
48747SOL    HW148080   7.394   2.300   0.072
48747SOL    HW248081   7.345   2.287   0.215
48748SOL     OW48082   8.467   5.267   8.725
48748SOL    HW148083   8.554   5.300   8.749
48748SOL    HW248084   8.409   5.342   8.734
48749SOL     OW48085   6.598   4.011   3.670
48749SOL    HW148086   6.598   4.045   3.580
48749SOL    HW248087   6.572   4.086   3.724
48750SOL     OW48088   6.017   4.755   5.426
48750SOL    HW148089   6.059   4.691   5.482
48750SOL    HW248090   6.083   4.777   5.360
48751SOL     OW48091   8.172   9.668   2.984
48751SOL    HW148092   8.083   9.688   3.013
48751SOL    HW248093   8.185   9.724   2.907
48752SOL     OW48094   8.930  11.293  14.023
48752SOL    HW148095   8.861  11.248  14.071
48752SOL    HW248096   8.961  11.361  14.084
48753SOL     OW48097  10.159   6.074   3.954
48753SOL    HW148098  10.085   6.126   3.923
48753SOL    HW248099  10.186   6.117   4.036
48754SOL     OW48100  14.612   3.531   1.136
48754SOL    HW148101  14.667   3.496   1.065
48754SOL    HW248102  14.522   3.516   1.107
48755SOL     OW48103  13.990  12.372   9.678
48755SOL    HW148104  14.057  12.440   9.669
48755SOL    HW248105  13.907  12.417   9.665
48756SOL     OW48106   8.412   6.403   6.684
48756SOL    HW148107   8.331   6.352   6.685
48756SOL    HW248108   8.403   6.463   6.759
48757SOL     OW48109  13.090  13.198  11.941
48757SOL    HW148110  12.998  13.181  11.918
48757SOL    HW248111  13.086  13.232  12.031
48758SOL     OW48112   4.592   8.326   6.563
48758SOL    HW148113   4.578   8.236   6.595
48758SOL    HW248114   4.684   8.328   6.537
48759SOL     OW48115   0.841   3.151   3.552
48759SOL    HW148116   0.767   3.211   3.558
48759SOL    HW248117   0.904   3.183   3.616
48760SOL     OW48118   1.746   8.872  10.314
48760SOL    HW148119   1.722   8.960  10.343
48760SOL    HW248120   1.805   8.840  10.381
48761SOL     OW48121   3.573  12.657   1.934
48761SOL    HW148122   3.486  12.677   1.902
48761SOL    HW248123   3.631  12.713   1.883
48762SOL     OW48124   9.797   6.592  11.509
48762SOL    HW148125   9.828   6.638  11.432
48762SOL    HW248126   9.824   6.501  11.495
48763SOL     OW48127  12.768   8.077  11.130
48763SOL    HW148128  12.844   8.048  11.080
48763SOL    HW248129  12.749   8.164  11.097
48764SOL     OW48130  13.766   9.876   8.912
48764SOL    HW148131  13.768   9.818   8.836
48764SOL    HW248132  13.688   9.850   8.960
48765SOL     OW48133   1.383   8.719  10.475
48765SOL    HW148134   1.459   8.730  10.533
48765SOL    HW248135   1.316   8.777  10.511
48766SOL     OW48136   8.062  10.887  13.899
48766SOL    HW148137   8.038  10.795  13.908
48766SOL    HW248138   7.987  10.935  13.934
48767SOL     OW48139  10.883  14.795  11.192
48767SOL    HW148140  10.824  14.850  11.244
48767SOL    HW248141  10.923  14.736  11.256
48768SOL     OW48142   0.870   0.058  12.885
48768SOL    HW148143   0.940   0.081  12.947
48768SOL    HW248144   0.803   0.125  12.899
48769SOL     OW48145   2.242   2.919  13.323
48769SOL    HW148146   2.172   2.947  13.381
48769SOL    HW248147   2.207   2.932  13.235
48770SOL     OW48148   5.833  13.425   6.636
48770SOL    HW148149   5.761  13.363   6.651
48770SOL    HW248150   5.791  13.511   6.639
48771SOL     OW48151   4.590  11.674  10.343
48771SOL    HW148152   4.517  11.637  10.294
48771SOL    HW248153   4.554  11.696  10.429
48772SOL     OW48154   9.243  10.870   6.245
48772SOL    HW148155   9.162  10.906   6.282
48772SOL    HW248156   9.214  10.807   6.179
48773SOL     OW48157  11.070   2.444   6.876
48773SOL    HW148158  10.990   2.409   6.838
48773SOL    HW248159  11.122   2.366   6.897
48774SOL     OW48160   4.661  14.537   5.546
48774SOL    HW148161   4.641  14.599   5.476
48774SOL    HW248162   4.675  14.454   5.501
48775SOL     OW48163   2.847   3.991   3.341
48775SOL    HW148164   2.783   3.922   3.322
48775SOL    HW248165   2.905   3.952   3.406
48776SOL     OW48166   4.556   9.707   3.882
48776SOL    HW148167   4.555   9.635   3.946
48776SOL    HW248168   4.632   9.688   3.827
48777SOL     OW48169   4.526  13.302   8.491
48777SOL    HW148170   4.550  13.210   8.485
48777SOL    HW248171   4.608  13.350   8.475
48778SOL     OW48172   5.399  13.011  12.542
48778SOL    HW148173   5.361  13.074  12.480
48778SOL    HW248174   5.491  13.003  12.514
48779SOL     OW48175   0.487  12.895   2.064
48779SOL    HW148176   0.458  12.819   2.014
48779SOL    HW248177   0.581  12.882   2.077
48780SOL     OW48178  10.532   6.804   1.068
48780SOL    HW148179  10.438   6.801   1.085
48780SOL    HW248180  10.540   6.823   0.975
48781SOL     OW48181  11.773  11.488   0.996
48781SOL    HW148182  11.734  11.515   1.079
48781SOL    HW248183  11.862  11.522   0.998
48782SOL     OW48184  11.613   2.280   8.349
48782SOL    HW148185  11.563   2.260   8.428
48782SOL    HW248186  11.568   2.356   8.311
48783SOL     OW48187   9.853  13.363   1.018
48783SOL    HW148188   9.948  13.364   1.007
48783SOL    HW248189   9.831  13.452   1.044
48784SOL     OW48190   3.756   3.460  14.202
48784SOL    HW148191   3.667   3.461  14.167
48784SOL    HW248192   3.788   3.549  14.190
48785SOL     OW48193   9.986   9.965  10.821
48785SOL    HW148194   9.963   9.941  10.731
48785SOL    HW248195   9.928   9.912  10.875
48786SOL     OW48196  10.320   1.909   4.592
48786SOL    HW148197  10.231   1.926   4.562
48786SOL    HW248198  10.311   1.833   4.649
48787SOL     OW48199  14.616   1.155   2.279
48787SOL    HW148200  14.608   1.100   2.357
48787SOL    HW248201  14.539   1.133   2.226
48788SOL     OW48202   7.141  14.244   7.927
48788SOL    HW148203   7.102  14.157   7.937
48788SOL    HW248204   7.184  14.261   8.011
48789SOL     OW48205   4.744   7.355   0.201
48789SOL    HW148206   4.676   7.413   0.236
48789SOL    HW248207   4.784   7.404   0.129
48790SOL     OW48208  13.527   8.767  10.332
48790SOL    HW148209  13.493   8.696  10.386
48790SOL    HW248210  13.580   8.820  10.391
48791SOL     OW48211   4.375  12.296   1.316
48791SOL    HW148212   4.432  12.342   1.254
48791SOL    HW248213   4.339  12.223   1.265
48792SOL     OW48214  12.105   3.383   3.816
48792SOL    HW148215  12.177   3.428   3.859
48792SOL    HW248216  12.028   3.403   3.870
48793SOL     OW48217  13.740  12.865  11.346
48793SOL    HW148218  13.688  12.848  11.424
48793SOL    HW248219  13.680  12.848  11.273
48794SOL     OW48220   5.823  12.324   0.583
48794SOL    HW148221   5.871  12.331   0.665
48794SOL    HW248222   5.839  12.407   0.539
48795SOL     OW48223   3.333   0.428   1.512
48795SOL    HW148224   3.316   0.352   1.456
48795SOL    HW248225   3.270   0.494   1.482
48796SOL     OW48226   2.757  10.019  11.386
48796SOL    HW148227   2.676  10.025  11.335
48796SOL    HW248228   2.827  10.023  11.320
48797SOL     OW48229  12.036   9.258  10.457
48797SOL    HW148230  12.108   9.277  10.396
48797SOL    HW248231  11.995   9.343  10.472
48798SOL     OW48232   2.702  11.453   3.124
48798SOL    HW148233   2.768  11.424   3.061
48798SOL    HW248234   2.743  11.441   3.209
48799SOL     OW48235   6.673  13.201   2.325
48799SOL    HW148236   6.709  13.284   2.291
48799SOL    HW248237   6.587  13.224   2.359
48800SOL     OW48238   3.764  14.084   2.657
48800SOL    HW148239   3.815  14.165   2.661
48800SOL    HW248240   3.785  14.047   2.571
48801SOL     OW48241   9.916   2.807  14.693
48801SOL    HW148242   9.941   2.810  14.785
48801SOL    HW248243   9.929   2.716  14.668
48802SOL     OW48244   8.443   5.999   7.321
48802SOL    HW148245   8.428   6.065   7.388
48802SOL    HW248246   8.435   5.916   7.367
48803SOL     OW48247   2.658   8.130   2.570
48803SOL    HW148248   2.605   8.126   2.650
48803SOL    HW248249   2.746   8.151   2.601
48804SOL     OW48250   0.605   4.166  11.914
48804SOL    HW148251   0.521   4.185  11.956
48804SOL    HW248252   0.670   4.180  11.983
48805SOL     OW48253   6.385  12.682   4.674
48805SOL    HW148254   6.359  12.749   4.611
48805SOL    HW248255   6.476  12.661   4.651
48806SOL     OW48256   2.649  14.474   5.240
48806SOL    HW148257   2.671  14.401   5.298
48806SOL    HW248258   2.582  14.522   5.288
48807SOL     OW48259   3.074   2.059   6.376
48807SOL    HW148260   3.157   2.020   6.403
48807SOL    HW248261   3.090   2.154   6.379
48808SOL     OW48262   3.287   8.523   0.147
48808SOL    HW148263   3.281   8.469   0.225
48808SOL    HW248264   3.352   8.590   0.168
48809SOL     OW48265   7.132   2.760   7.555
48809SOL    HW148266   7.092   2.782   7.471
48809SOL    HW248267   7.063   2.778   7.619
48810SOL     OW48268   4.187   0.751   1.831
48810SOL    HW148269   4.252   0.803   1.783
48810SOL    HW248270   4.232   0.669   1.850
48811SOL     OW48271   2.942   1.448   4.868
48811SOL    HW148272   2.964   1.373   4.923
48811SOL    HW248273   3.020   1.459   4.813
48812SOL     OW48274   6.345   3.678  10.174
48812SOL    HW148275   6.341   3.756  10.118
48812SOL    HW248276   6.267   3.685  10.230
48813SOL     OW48277  10.759  13.964   2.270
48813SOL    HW148278  10.749  13.942   2.177
48813SOL    HW248279  10.817  14.041   2.270
48814SOL     OW48280   4.642   5.036   3.579
48814SOL    HW148281   4.617   5.027   3.487
48814SOL    HW248282   4.701   5.111   3.581
48815SOL     OW48283   9.069   9.073   1.340
48815SOL    HW148284   8.980   9.107   1.353
48815SOL    HW248285   9.056   8.980   1.321
48816SOL     OW48286  12.229   2.620   3.624
48816SOL    HW148287  12.253   2.683   3.692
48816SOL    HW248288  12.312   2.598   3.582
48817SOL     OW48289  12.194   2.146  12.413
48817SOL    HW148290  12.157   2.186  12.491
48817SOL    HW248291  12.131   2.164  12.343
48818SOL     OW48292  12.307  11.792  12.610
48818SOL    HW148293  12.262  11.712  12.582
48818SOL    HW248294  12.311  11.785  12.705
48819SOL     OW48295   3.438  10.753   9.429
48819SOL    HW148296   3.398  10.752   9.517
48819SOL    HW248297   3.369  10.719   9.372
48820SOL     OW48298  11.032   2.228   3.976
48820SOL    HW148299  11.047   2.291   4.047
48820SOL    HW248300  11.060   2.274   3.897
48821SOL     OW48301  12.991   5.576   3.828
48821SOL    HW148302  12.919   5.518   3.851
48821SOL    HW248303  12.949   5.657   3.800
48822SOL     OW48304   1.556   6.354  10.336
48822SOL    HW148305   1.558   6.265  10.373
48822SOL    HW248306   1.629   6.356  10.274
48823SOL     OW48307   0.877   7.662  14.549
48823SOL    HW148308   0.965   7.627  14.565
48823SOL    HW248309   0.838   7.669  14.637
48824SOL     OW48310  12.110   1.262   6.544
48824SOL    HW148311  12.040   1.272   6.609
48824SOL    HW248312  12.159   1.186   6.573
48825SOL     OW48313   9.176  12.979   5.253
48825SOL    HW148314   9.233  13.050   5.224
48825SOL    HW248315   9.111  12.970   5.184
48826SOL     OW48316  14.635   4.094   1.033
48826SOL    HW148317  14.596   4.011   1.008
48826SOL    HW248318  14.615   4.104   1.126
48827SOL     OW48319   9.698   4.100   9.544
48827SOL    HW148320   9.667   4.115   9.455
48827SOL    HW248321   9.626   4.054   9.587
48828SOL     OW48322   7.738  12.379   5.156
48828SOL    HW148323   7.723  12.436   5.081
48828SOL    HW248324   7.651  12.364   5.192
48829SOL     OW48325   2.127   7.810   2.245
48829SOL    HW148326   2.165   7.729   2.280
48829SOL    HW248327   2.199   7.873   2.248
48830SOL     OW48328  10.088   5.579   1.106
48830SOL    HW148329  10.125   5.641   1.170
48830SOL    HW248330  10.115   5.613   1.021
48831SOL     OW48331   0.456   4.527   1.762
48831SOL    HW148332   0.497   4.605   1.800
48831SOL    HW248333   0.444   4.549   1.669
48832SOL     OW48334  14.067  11.614   9.212
48832SOL    HW148335  14.139  11.555   9.237
48832SOL    HW248336  14.104  11.667   9.140
48833SOL     OW48337   4.294  10.179   9.135
48833SOL    HW148338   4.295  10.108   9.199
48833SOL    HW248339   4.387  10.196   9.117
48834SOL     OW48340   7.208  11.887   9.948
48834SOL    HW148341   7.185  11.930  10.030
48834SOL    HW248342   7.190  11.952   9.881
48835SOL     OW48343   8.776  11.840   7.710
48835SOL    HW148344   8.806  11.918   7.757
48835SOL    HW248345   8.701  11.870   7.659
48836SOL     OW48346   5.679  11.687   5.162
48836SOL    HW148347   5.614  11.724   5.101
48836SOL    HW248348   5.696  11.758   5.224
48837SOL     OW48349   5.501  10.642   4.162
48837SOL    HW148350   5.571  10.705   4.144
48837SOL    HW248351   5.448  10.642   4.082
48838SOL     OW48352   3.657   1.778   0.961
48838SOL    HW148353   3.741   1.737   0.941
48838SOL    HW248354   3.626   1.812   0.877
48839SOL     OW48355   7.365   5.875   8.748
48839SOL    HW148356   7.394   5.855   8.837
48839SOL    HW248357   7.288   5.930   8.759
48840SOL     OW48358   4.730   2.542   8.220
48840SOL    HW148359   4.672   2.484   8.269
48840SOL    HW248360   4.788   2.579   8.286
48841SOL     OW48361  11.490   0.711  11.753
48841SOL    HW148362  11.463   0.732  11.664
48841SOL    HW248363  11.410   0.681  11.796
48842SOL     OW48364   3.495  12.920  10.700
48842SOL    HW148365   3.406  12.928  10.666
48842SOL    HW248366   3.490  12.849  10.764
48843SOL     OW48367   2.158   7.148   6.744
48843SOL    HW148368   2.165   7.223   6.803
48843SOL    HW248369   2.187   7.183   6.659
48844SOL     OW48370   4.906   1.794   0.190
48844SOL    HW148371   4.912   1.809   0.096
48844SOL    HW248372   4.812   1.797   0.209
48845SOL     OW48373   8.086   9.396   0.496
48845SOL    HW148374   7.999   9.354   0.496
48845SOL    HW248375   8.085   9.453   0.573
48846SOL     OW48376   2.894   7.221   2.196
48846SOL    HW148377   2.909   7.176   2.279
48846SOL    HW248378   2.969   7.198   2.142
48847SOL     OW48379   4.799   5.602  14.359
48847SOL    HW148380   4.791   5.664  14.286
48847SOL    HW248381   4.864   5.642  14.417
48848SOL     OW48382  14.046   4.190   0.975
48848SOL    HW148383  14.045   4.267   0.918
48848SOL    HW248384  14.024   4.224   1.062
48849SOL     OW48385  11.199   7.196  11.014
48849SOL    HW148386  11.144   7.211  10.937
48849SOL    HW248387  11.280   7.159  10.978
48850SOL     OW48388   1.202   9.696  10.997
48850SOL    HW148389   1.118   9.727  10.962
48850SOL    HW248390   1.263   9.707  10.924
48851SOL     OW48391   8.916   2.930  14.583
48851SOL    HW148392   8.922   2.992  14.510
48851SOL    HW248393   8.973   2.968  14.651
48852SOL     OW48394   8.184  13.329   9.781
48852SOL    HW148395   8.150  13.402   9.729
48852SOL    HW248396   8.140  13.252   9.745
48853SOL     OW48397   5.554   0.352   6.282
48853SOL    HW148398   5.564   0.376   6.374
48853SOL    HW248399   5.637   0.377   6.241
48854SOL     OW48400  10.060   9.815   2.954
48854SOL    HW148401  10.098   9.728   2.939
48854SOL    HW248402   9.994   9.801   3.022
48855SOL     OW48403   0.249   6.948  14.572
48855SOL    HW148404   0.231   7.019  14.634
48855SOL    HW248405   0.321   6.980  14.519
48856SOL     OW48406  13.960  10.043  10.590
48856SOL    HW148407  13.956  10.056  10.685
48856SOL    HW248408  13.916   9.959  10.576
48857SOL     OW48409   3.443  14.067   5.188
48857SOL    HW148410   3.483  14.105   5.110
48857SOL    HW248411   3.505  14.085   5.258
48858SOL     OW48412   2.351  11.916   7.492
48858SOL    HW148413   2.270  11.963   7.510
48858SOL    HW248414   2.366  11.864   7.571
48859SOL     OW48415   2.272   5.229  12.978
48859SOL    HW148416   2.336   5.267  13.037
48859SOL    HW248417   2.260   5.295  12.909
48860SOL     OW48418   0.523  14.007  11.505
48860SOL    HW148419   0.614  14.032  11.521
48860SOL    HW248420   0.501  14.049  11.422
48861SOL     OW48421   3.577   4.908   9.592
48861SOL    HW148422   3.609   4.928   9.504
48861SOL    HW248423   3.655   4.904   9.646
48862SOL     OW48424   6.183  11.068   0.665
48862SOL    HW148425   6.257  11.036   0.614
48862SOL    HW248426   6.129  10.990   0.679
48863SOL     OW48427  14.699   6.426   1.560
48863SOL    HW148428  14.645   6.373   1.619
48863SOL    HW248429  14.646   6.432   1.480
48864SOL     OW48430   0.497   2.700  14.284
48864SOL    HW148431   0.564   2.752  14.240
48864SOL    HW248432   0.537   2.615  14.298
48865SOL     OW48433   0.204  11.200  14.456
48865SOL    HW148434   0.239  11.272  14.403
48865SOL    HW248435   0.234  11.121  14.411
48866SOL     OW48436   9.906   7.614   9.744
48866SOL    HW148437   9.888   7.535   9.693
48866SOL    HW248438   9.852   7.682   9.705
48867SOL     OW48439   3.203   9.654   8.906
48867SOL    HW148440   3.205   9.698   8.990
48867SOL    HW248441   3.112   9.630   8.892
48868SOL     OW48442   5.217   9.265  12.433
48868SOL    HW148443   5.255   9.204  12.369
48868SOL    HW248444   5.273   9.255  12.511
48869SOL     OW48445   7.545   7.703  11.418
48869SOL    HW148446   7.591   7.763  11.360
48869SOL    HW248447   7.465   7.679  11.371
48870SOL     OW48448   8.264   3.560   8.475
48870SOL    HW148449   8.228   3.488   8.527
48870SOL    HW248450   8.206   3.564   8.398
48871SOL     OW48451   1.090  13.087  11.917
48871SOL    HW148452   1.172  13.043  11.893
48871SOL    HW248453   1.041  13.092  11.835
48872SOL     OW48454   6.898   2.730   1.146
48872SOL    HW148455   6.872   2.798   1.208
48872SOL    HW248456   6.847   2.653   1.172
48873SOL     OW48457  14.258   6.724   0.648
48873SOL    HW148458  14.269   6.734   0.553
48873SOL    HW248459  14.170   6.688   0.658
48874SOL     OW48460   3.641   5.945  12.125
48874SOL    HW148461   3.729   5.965  12.096
48874SOL    HW248462   3.589   6.023  12.103
48875SOL     OW48463   7.180   6.873  12.015
48875SOL    HW148464   7.097   6.829  12.033
48875SOL    HW248465   7.156   6.964  12.002
48876SOL     OW48466   0.716   2.510   7.581
48876SOL    HW148467   0.664   2.515   7.661
48876SOL    HW248468   0.684   2.431   7.537
48877SOL     OW48469   5.301   3.754  14.086
48877SOL    HW148470   5.211   3.723  14.095
48877SOL    HW248471   5.303   3.835  14.138
48878SOL     OW48472   5.566   4.656   0.244
48878SOL    HW148473   5.638   4.711   0.213
48878SOL    HW248474   5.562   4.584   0.181
48879SOL     OW48475  13.816   7.268   3.064
48879SOL    HW148476  13.874   7.191   3.059
48879SOL    HW248477  13.815   7.291   3.157
48880SOL     OW48478   1.154   1.117   7.132
48880SOL    HW148479   1.089   1.114   7.202
48880SOL    HW248480   1.228   1.066   7.165
48881SOL     OW48481   2.914   5.365  14.049
48881SOL    HW148482   2.912   5.271  14.030
48881SOL    HW248483   2.862   5.405  13.979
48882SOL     OW48484  11.243   4.796   4.327
48882SOL    HW148485  11.153   4.765   4.344
48882SOL    HW248486  11.241   4.889   4.350
48883SOL     OW48487   4.421   0.953   8.325
48883SOL    HW148488   4.496   0.909   8.364
48883SOL    HW248489   4.452   0.980   8.238
48884SOL     OW48490   7.565   3.957   7.824
48884SOL    HW148491   7.652   3.957   7.863
48884SOL    HW248492   7.567   4.028   7.760
48885SOL     OW48493   7.426  12.465  12.741
48885SOL    HW148494   7.426  12.529  12.669
48885SOL    HW248495   7.411  12.517  12.820
48886SOL     OW48496   7.393  10.053   6.457
48886SOL    HW148497   7.304  10.064   6.491
48886SOL    HW248498   7.450  10.083   6.528
48887SOL     OW48499   5.938  13.441  12.649
48887SOL    HW148500   5.872  13.448  12.580
48887SOL    HW248501   5.996  13.370  12.619
48888SOL     OW48502   0.625   5.272  11.687
48888SOL    HW148503   0.662   5.344  11.635
48888SOL    HW248504   0.530   5.289  11.685
48889SOL     OW48505   9.222   0.210   4.357
48889SOL    HW148506   9.135   0.170   4.364
48889SOL    HW248507   9.277   0.159   4.417
48890SOL     OW48508   3.329  13.100   1.689
48890SOL    HW148509   3.284  13.120   1.772
48890SOL    HW248510   3.257  13.086   1.627
48891SOL     OW48511  12.751   7.712   8.726
48891SOL    HW148512  12.810   7.735   8.798
48891SOL    HW248513  12.677   7.773   8.736
48892SOL     OW48514   6.839   6.882   7.299
48892SOL    HW148515   6.867   6.822   7.369
48892SOL    HW248516   6.799   6.825   7.233
48893SOL     OW48517   8.995   6.688   3.769
48893SOL    HW148518   9.055   6.670   3.697
48893SOL    HW248519   8.908   6.687   3.729
48894SOL     OW48520  10.609   3.128   8.502
48894SOL    HW148521  10.647   3.103   8.418
48894SOL    HW248522  10.515   3.137   8.484
48895SOL     OW48523  14.568   1.879  10.346
48895SOL    HW148524  14.569   1.843  10.434
48895SOL    HW248525  14.522   1.814  10.293
48896SOL     OW48526   2.672  14.272   7.176
48896SOL    HW148527   2.612  14.265   7.102
48896SOL    HW248528   2.674  14.366   7.196
48897SOL     OW48529   3.788   7.445   0.638
48897SOL    HW148530   3.787   7.349   0.636
48897SOL    HW248531   3.709   7.468   0.686
48898SOL     OW48532   9.487   0.621   4.570
48898SOL    HW148533   9.426   0.562   4.527
48898SOL    HW248534   9.435   0.699   4.591
48899SOL     OW48535  13.989   5.817  13.238
48899SOL    HW148536  14.065   5.760  13.256
48899SOL    HW248537  13.933   5.766  13.181
48900SOL     OW48538   0.773   7.160   2.743
48900SOL    HW148539   0.824   7.083   2.768
48900SOL    HW248540   0.800   7.228   2.804
48901SOL     OW48541   9.234   6.662   8.167
48901SOL    HW148542   9.245   6.640   8.260
48901SOL    HW248543   9.204   6.753   8.168
48902SOL     OW48544   2.884   4.646   2.678
48902SOL    HW148545   2.794   4.676   2.664
48902SOL    HW248546   2.935   4.726   2.687
48903SOL     OW48547  11.408  14.720   7.365
48903SOL    HW148548  11.422  14.692   7.456
48903SOL    HW248549  11.314  14.718   7.353
48904SOL     OW48550  14.626  12.519   4.602
48904SOL    HW148551  14.581  12.463   4.538
48904SOL    HW248552  14.716  12.524   4.568
48905SOL     OW48553   6.373  14.005   1.754
48905SOL    HW148554   6.282  13.991   1.779
48905SOL    HW248555   6.382  14.101   1.752
48906SOL     OW48556   1.996   2.955   2.027
48906SOL    HW148557   2.006   2.877   1.972
48906SOL    HW248558   1.940   2.926   2.100
48907SOL     OW48559   4.791   0.993   0.900
48907SOL    HW148560   4.849   0.918   0.887
48907SOL    HW248561   4.842   1.054   0.953
48908SOL     OW48562   7.484  11.758  10.999
48908SOL    HW148563   7.469  11.775  11.092
48908SOL    HW248564   7.491  11.663  10.993
48909SOL     OW48565  12.163   3.359   3.207
48909SOL    HW148566  12.236   3.416   3.228
48909SOL    HW248567  12.098   3.418   3.167
48910SOL     OW48568   8.582   6.539   4.325
48910SOL    HW148569   8.569   6.445   4.335
48910SOL    HW248570   8.520   6.565   4.257
48911SOL     OW48571  12.481  14.570   2.025
48911SOL    HW148572  12.397  14.523   2.030
48911SOL    HW248573  12.515  14.549   1.939
48912SOL     OW48574   6.086  14.546  14.720
48912SOL    HW148575   6.107  14.638  14.736
48912SOL    HW248576   6.134  14.497  14.786
48913SOL     OW48577   0.556  13.497  10.349
48913SOL    HW148578   0.651  13.483  10.346
48913SOL    HW248579   0.531  13.472  10.437
48914SOL     OW48580   9.800   9.992   8.444
48914SOL    HW148581   9.714  10.004   8.404
48914SOL    HW248582   9.862  10.007   8.372
48915SOL     OW48583   6.415   4.045   0.129
48915SOL    HW148584   6.485   4.107   0.109
48915SOL    HW248585   6.416   3.984   0.056
48916SOL     OW48586   9.976   7.160   2.140
48916SOL    HW148587   9.938   7.072   2.142
48916SOL    HW248588   9.916   7.211   2.086
48917SOL     OW48589  12.996   1.882  12.377
48917SOL    HW148590  12.969   1.940  12.306
48917SOL    HW248591  12.915   1.840  12.406
48918SOL     OW48592   7.736   6.247   3.795
48918SOL    HW148593   7.710   6.286   3.879
48918SOL    HW248594   7.820   6.205   3.813
48919SOL     OW48595   5.978   3.527   9.558
48919SOL    HW148596   5.969   3.493   9.647
48919SOL    HW248597   6.039   3.467   9.516
48920SOL     OW48598   0.768   6.144  14.700
48920SOL    HW148599   0.709   6.196  14.754
48920SOL    HW248600   0.855   6.177  14.719
48921SOL     OW48601  12.560   8.264   0.206
48921SOL    HW148602  12.564   8.209   0.285
48921SOL    HW248603  12.611   8.216   0.141
48922SOL     OW48604  11.708   9.513   4.137
48922SOL    HW148605  11.801   9.504   4.160
48922SOL    HW248606  11.664   9.446   4.188
48923SOL     OW48607   4.123   3.314   1.945
48923SOL    HW148608   4.203   3.297   1.895
48923SOL    HW248609   4.137   3.401   1.983
48924SOL     OW48610   4.909   5.533   7.771
48924SOL    HW148611   4.903   5.529   7.866
48924SOL    HW248612   4.980   5.473   7.749
48925SOL     OW48613   1.827  11.280   1.644
48925SOL    HW148614   1.751  11.221   1.646
48925SOL    HW248615   1.795  11.360   1.686
48926SOL     OW48616  14.118   0.495   4.496
48926SOL    HW148617  14.056   0.440   4.447
48926SOL    HW248618  14.199   0.489   4.445
48927SOL     OW48619  14.333  10.836   1.912
48927SOL    HW148620  14.311  10.859   1.822
48927SOL    HW248621  14.406  10.774   1.904
48928SOL     OW48622   9.182   8.034  11.065
48928SOL    HW148623   9.213   7.953  11.024
48928SOL    HW248624   9.179   8.013  11.158
48929SOL     OW48625   0.025   6.797  12.789
48929SOL    HW148626   0.029   6.706  12.819
48929SOL    HW248627  14.808   6.825  12.808
48930SOL     OW48628  13.274   5.641  13.817
48930SOL    HW148629  13.265   5.565  13.874
48930SOL    HW248630  13.184   5.660  13.789
48931SOL     OW48631  11.694   3.480  10.312
48931SOL    HW148632  11.714   3.406  10.369
48931SOL    HW248633  11.727   3.454  10.226
48932SOL     OW48634   5.302   9.180   5.871
48932SOL    HW148635   5.289   9.259   5.922
48932SOL    HW248636   5.247   9.191   5.793
48933SOL     OW48637   5.489   4.653   3.857
48933SOL    HW148638   5.450   4.639   3.771
48933SOL    HW248639   5.553   4.582   3.866
48934SOL     OW48640   6.943   0.446   7.021
48934SOL    HW148641   7.016   0.430   6.962
48934SOL    HW248642   6.881   0.375   7.003
48935SOL     OW48643   3.929  11.607   3.300
48935SOL    HW148644   3.860  11.667   3.270
48935SOL    HW248645   3.956  11.642   3.385
48936SOL     OW48646   7.260   6.259   1.933
48936SOL    HW148647   7.237   6.209   1.854
48936SOL    HW248648   7.263   6.350   1.903
48937SOL     OW48649   0.175  14.347   4.072
48937SOL    HW148650   0.203  14.300   4.151
48937SOL    HW248651   0.220  14.304   4.000
48938SOL     OW48652   6.081   7.882  11.338
48938SOL    HW148653   6.150   7.890  11.272
48938SOL    HW248654   6.056   7.972  11.358
48939SOL     OW48655   8.162  12.086   8.774
48939SOL    HW148656   8.140  12.030   8.849
48939SOL    HW248657   8.251  12.061   8.750
48940SOL     OW48658   2.052   2.448   7.481
48940SOL    HW148659   2.098   2.508   7.422
48940SOL    HW248660   2.004   2.389   7.422
48941SOL     OW48661   2.073  12.809   1.212
48941SOL    HW148662   2.107  12.853   1.134
48941SOL    HW248663   2.085  12.716   1.194
48942SOL     OW48664   8.087   9.697  13.442
48942SOL    HW148665   8.079   9.636  13.368
48942SOL    HW248666   8.107   9.781  13.401
48943SOL     OW48667   9.173  12.277   1.774
48943SOL    HW148668   9.087  12.289   1.733
48943SOL    HW248669   9.158  12.295   1.867
48944SOL     OW48670  10.056   3.012  13.117
48944SOL    HW148671  10.092   3.041  13.033
48944SOL    HW248672   9.963   2.995  13.099
48945SOL     OW48673  11.754   4.552  12.935
48945SOL    HW148674  11.661   4.555  12.959
48945SOL    HW248675  11.767   4.626  12.877
48946SOL     OW48676   9.737   4.067   2.370
48946SOL    HW148677   9.705   4.113   2.292
48946SOL    HW248678   9.668   4.004   2.390
48947SOL     OW48679  12.098  12.623   7.424
48947SOL    HW148680  12.041  12.596   7.495
48947SOL    HW248681  12.104  12.545   7.368
48948SOL     OW48682   6.783   2.326  10.122
48948SOL    HW148683   6.823   2.243  10.097
48948SOL    HW248684   6.826   2.349  10.205
48949SOL     OW48685   1.435  11.990   6.889
48949SOL    HW148686   1.511  12.047   6.882
48949SOL    HW248687   1.366  12.046   6.926
48950SOL     OW48688  12.951   9.771   9.680
48950SOL    HW148689  12.929   9.787   9.588
48950SOL    HW248690  12.993   9.853   9.709
48951SOL     OW48691   8.444   2.024   4.913
48951SOL    HW148692   8.402   1.948   4.954
48951SOL    HW248693   8.480   2.073   4.987
48952SOL     OW48694  13.790  13.182   4.985
48952SOL    HW148695  13.786  13.167   4.890
48952SOL    HW248696  13.777  13.095   5.023
48953SOL     OW48697   1.419   7.652   8.689
48953SOL    HW148698   1.430   7.581   8.752
48953SOL    HW248699   1.324   7.661   8.679
48954SOL     OW48700  12.886   1.187   6.977
48954SOL    HW148701  12.794   1.161   6.977
48954SOL    HW248702  12.884   1.283   6.972
48955SOL     OW48703  14.047  11.010   2.403
48955SOL    HW148704  14.065  10.990   2.311
48955SOL    HW248705  14.133  11.008   2.445
48956SOL     OW48706   2.259  10.494   6.877
48956SOL    HW148707   2.176  10.462   6.842
48956SOL    HW248708   2.282  10.432   6.946
48957SOL     OW48709   9.081   1.335   9.651
48957SOL    HW148710   9.096   1.315   9.743
48957SOL    HW248711   9.005   1.394   9.651
48958SOL     OW48712   2.020   3.044   7.305
48958SOL    HW148713   2.057   3.026   7.218
48958SOL    HW248714   2.096   3.069   7.357
48959SOL     OW48715  14.085  13.039   1.137
48959SOL    HW148716  14.050  12.953   1.158
48959SOL    HW248717  14.179  13.030   1.151
48960SOL     OW48718   0.777   9.690  12.426
48960SOL    HW148719   0.748   9.778  12.401
48960SOL    HW248720   0.864   9.702  12.464
48961SOL     OW48721  11.452   2.788   2.616
48961SOL    HW148722  11.526   2.846   2.629
48961SOL    HW248723  11.476   2.708   2.663
48962SOL     OW48724   7.058  13.255   1.934
48962SOL    HW148725   7.035  13.169   1.900
48962SOL    HW248726   7.036  13.251   2.028
48963SOL     OW48727   0.950   3.426   9.900
48963SOL    HW148728   0.934   3.368   9.975
48963SOL    HW248729   1.015   3.381   9.848
48964SOL     OW48730  13.089   1.768   3.535
48964SOL    HW148731  13.101   1.786   3.442
48964SOL    HW248732  13.065   1.853   3.573
48965SOL     OW48733  12.308   6.165   4.748
48965SOL    HW148734  12.299   6.122   4.664
48965SOL    HW248735  12.357   6.103   4.802
48966SOL     OW48736   5.430  11.928   0.695
48966SOL    HW148737   5.389  11.842   0.707
48966SOL    HW248738   5.442  11.937   0.601
48967SOL     OW48739   8.549   3.855  11.001
48967SOL    HW148740   8.454   3.856  10.987
48967SOL    HW248741   8.584   3.904  10.927
48968SOL     OW48742   1.907  11.221   7.183
48968SOL    HW148743   1.839  11.253   7.242
48968SOL    HW248744   1.908  11.284   7.111
48969SOL     OW48745  14.545   5.812   2.954
48969SOL    HW148746  14.477   5.831   3.019
48969SOL    HW248747  14.609   5.882   2.965
48970SOL     OW48748  12.581   3.383   3.894
48970SOL    HW148749  12.658   3.416   3.940
48970SOL    HW248750  12.607   3.295   3.864
48971SOL     OW48751   4.291  11.353   7.292
48971SOL    HW148752   4.244  11.298   7.230
48971SOL    HW248753   4.262  11.323   7.378
48972SOL     OW48754   6.335  10.127  11.853
48972SOL    HW148755   6.361  10.070  11.926
48972SOL    HW248756   6.281  10.194  11.894
48973SOL     OW48757  14.462   9.119   8.534
48973SOL    HW148758  14.550   9.154   8.545
48973SOL    HW248759  14.459   9.089   8.443
48974SOL     OW48760   4.672   9.633  11.648
48974SOL    HW148761   4.733   9.602  11.714
48974SOL    HW248762   4.601   9.672  11.698
48975SOL     OW48763  10.657   5.945   1.076
48975SOL    HW148764  10.720   5.949   1.148
48975SOL    HW248765  10.673   6.024   1.025
48976SOL     OW48766   5.766   0.613   1.777
48976SOL    HW148767   5.782   0.519   1.785
48976SOL    HW248768   5.853   0.652   1.785
48977SOL     OW48769   7.328  10.803  10.107
48977SOL    HW148770   7.245  10.847  10.090
48977SOL    HW248771   7.306  10.730  10.164
48978SOL     OW48772   6.202  13.706   3.476
48978SOL    HW148773   6.233  13.660   3.399
48978SOL    HW248774   6.167  13.789   3.443
48979SOL     OW48775   9.124  10.688  12.231
48979SOL    HW148776   9.067  10.736  12.171
48979SOL    HW248777   9.126  10.742  12.310
48980SOL     OW48778  14.285   6.784   8.002
48980SOL    HW148779  14.225   6.762   8.074
48980SOL    HW248780  14.227   6.798   7.927
48981SOL     OW48781  10.895  12.367   1.878
48981SOL    HW148782  10.828  12.322   1.827
48981SOL    HW248783  10.862  12.457   1.886
48982SOL     OW48784   7.258   4.036  11.130
48982SOL    HW148785   7.216   4.050  11.045
48982SOL    HW248786   7.271   4.124  11.165
48983SOL     OW48787  10.492   7.586   4.098
48983SOL    HW148788  10.580   7.610   4.129
48983SOL    HW248789  10.491   7.612   4.006
48984SOL     OW48790   0.259  10.163   2.951
48984SOL    HW148791   0.332  10.152   3.012
48984SOL    HW248792   0.210  10.238   2.986
48985SOL     OW48793  13.286   1.951  11.814
48985SOL    HW148794  13.349   1.964  11.886
48985SOL    HW248795  13.209   2.001  11.840
48986SOL     OW48796   0.943   6.611   0.763
48986SOL    HW148797   0.849   6.609   0.781
48986SOL    HW248798   0.984   6.603   0.849
48987SOL     OW48799   1.520   1.218   7.696
48987SOL    HW148800   1.478   1.144   7.741
48987SOL    HW248801   1.608   1.222   7.733
48988SOL     OW48802   4.168   0.156   3.954
48988SOL    HW148803   4.242   0.110   3.915
48988SOL    HW248804   4.098   0.149   3.890
48989SOL     OW48805  13.426  12.070   9.856
48989SOL    HW148806  13.504  12.017   9.838
48989SOL    HW248807  13.353  12.009   9.845
48990SOL     OW48808   4.213   1.642   7.049
48990SOL    HW148809   4.161   1.585   7.105
48990SOL    HW248810   4.285   1.672   7.105
48991SOL     OW48811   8.577  14.551   3.537
48991SOL    HW148812   8.510  14.574   3.601
48991SOL    HW248813   8.631  14.630   3.529
48992SOL     OW48814  11.697  12.818  12.674
48992SOL    HW148815  11.621  12.784  12.625
48992SOL    HW248816  11.757  12.850  12.606
48993SOL     OW48817   9.189   6.471   6.219
48993SOL    HW148818   9.278   6.479   6.253
48993SOL    HW248819   9.138   6.437   6.293
48994SOL     OW48820   0.424  10.812   6.455
48994SOL    HW148821   0.375  10.829   6.375
48994SOL    HW248822   0.422  10.717   6.465
48995SOL     OW48823   6.666  11.936   2.838
48995SOL    HW148824   6.683  11.971   2.926
48995SOL    HW248825   6.624  12.008   2.791
48996SOL     OW48826  11.753   3.280   2.305
48996SOL    HW148827  11.680   3.218   2.296
48996SOL    HW248828  11.724   3.341   2.373
48997SOL     OW48829  14.091   2.152  13.973
48997SOL    HW148830  14.081   2.246  13.992
48997SOL    HW248831  14.022   2.110  14.024
48998SOL     OW48832  11.806   4.076   8.645
48998SOL    HW148833  11.839   4.047   8.560
48998SOL    HW248834  11.875   4.133   8.680
48999SOL     OW48835   1.581   8.640  12.691
48999SOL    HW148836   1.531   8.621  12.612
48999SOL    HW248837   1.519   8.629  12.763
49000SOL     OW48838  12.680   2.912  14.130
49000SOL    HW148839  12.647   3.002  14.139
49000SOL    HW248840  12.769   2.922  14.099
49001SOL     OW48841   6.162   9.285  14.227
49001SOL    HW148842   6.202   9.371  14.218
49001SOL    HW248843   6.107   9.292  14.306
49002SOL     OW48844  14.488   1.492  14.374
49002SOL    HW148845  14.548   1.493  14.300
49002SOL    HW248846  14.540   1.522  14.449
49003SOL     OW48847   1.611  13.014   0.236
49003SOL    HW148848   1.597  13.091   0.181
49003SOL    HW248849   1.669  13.045   0.306
49004SOL     OW48850  13.062   3.196   4.515
49004SOL    HW148851  13.114   3.199   4.435
49004SOL    HW248852  13.029   3.106   4.519
49005SOL     OW48853   9.334   9.188  10.796
49005SOL    HW148854   9.408   9.128  10.793
49005SOL    HW248855   9.257   9.131  10.805
49006SOL     OW48856  13.787   1.257  12.246
49006SOL    HW148857  13.839   1.292  12.319
49006SOL    HW248858  13.698   1.254  12.280
49007SOL     OW48859   7.580   5.038   9.449
49007SOL    HW148860   7.569   5.068   9.359
49007SOL    HW248861   7.608   5.116   9.497
49008SOL     OW48862  13.400  12.029   6.343
49008SOL    HW148863  13.457  12.014   6.268
49008SOL    HW248864  13.457  12.072   6.408
49009SOL     OW48865  10.159  12.508  13.814
49009SOL    HW148866  10.094  12.551  13.757
49009SOL    HW248867  10.131  12.417  13.818
49010SOL     OW48868   8.504   6.510   7.199
49010SOL    HW148869   8.546   6.442   7.146
49010SOL    HW248870   8.424   6.470   7.231
49011SOL     OW48871   9.960   0.845  13.231
49011SOL    HW148872  10.053   0.853  13.252
49011SOL    HW248873   9.920   0.924  13.268
49012SOL     OW48874   2.130   8.225   7.244
49012SOL    HW148875   2.201   8.189   7.192
49012SOL    HW248876   2.088   8.149   7.284
49013SOL     OW48877   3.961   1.387   9.272
49013SOL    HW148878   3.931   1.297   9.264
49013SOL    HW248879   3.986   1.413   9.183
49014SOL     OW48880   8.380  14.286   7.076
49014SOL    HW148881   8.433  14.235   7.137
49014SOL    HW248882   8.344  14.221   7.015
49015SOL     OW48883   8.827  12.405  11.646
49015SOL    HW148884   8.751  12.346  11.644
49015SOL    HW248885   8.791  12.488  11.680
49016SOL     OW48886   1.713  14.571  14.713
49016SOL    HW148887   1.696  14.540  14.802
49016SOL    HW248888   1.783  14.635  14.723
49017SOL     OW48889  12.647  10.677   2.550
49017SOL    HW148890  12.575  10.722   2.505
49017SOL    HW248891  12.610  10.649   2.634
49018SOL     OW48892   0.842  14.597   3.006
49018SOL    HW148893   0.793  14.599   3.088
49018SOL    HW248894   0.932  14.575   3.033
49019SOL     OW48895   6.166  13.993   5.870
49019SOL    HW148896   6.213  13.978   5.952
49019SOL    HW248897   6.195  13.922   5.813
49020SOL     OW48898   1.941   3.490   4.040
49020SOL    HW148899   1.963   3.583   4.044
49020SOL    HW248900   1.845   3.489   4.030
49021SOL     OW48901   3.618   2.859   9.330
49021SOL    HW148902   3.704   2.888   9.301
49021SOL    HW248903   3.631   2.830   9.420
49022SOL     OW48904   1.719   0.524   3.973
49022SOL    HW148905   1.635   0.486   3.999
49022SOL    HW248906   1.748   0.573   4.050
49023SOL     OW48907   4.943  10.439  10.731
49023SOL    HW148908   4.935  10.534  10.725
49023SOL    HW248909   5.034  10.422  10.706
49024SOL     OW48910   7.911   3.040   2.928
49024SOL    HW148911   7.854   3.108   2.965
49024SOL    HW248912   7.856   2.962   2.923
49025SOL     OW48913   2.069   9.598   8.652
49025SOL    HW148914   1.975   9.612   8.663
49025SOL    HW248915   2.080   9.580   8.559
49026SOL     OW48916   4.467  13.069   8.127
49026SOL    HW148917   4.507  12.991   8.089
49026SOL    HW248918   4.533  13.103   8.188
49027SOL     OW48919   3.782   4.249  10.066
49027SOL    HW148920   3.716   4.244   9.997
49027SOL    HW248921   3.842   4.178  10.048
49028SOL     OW48922   0.980  13.455  13.714
49028SOL    HW148923   0.896  13.417  13.737
49028SOL    HW248924   1.039  13.431  13.785
49029SOL     OW48925   2.787   5.839   7.545
49029SOL    HW148926   2.785   5.757   7.494
49029SOL    HW248927   2.820   5.904   7.484
49030SOL     OW48928   3.357  12.758   3.895
49030SOL    HW148929   3.323  12.669   3.888
49030SOL    HW248930   3.304  12.799   3.963
49031SOL     OW48931   0.795   9.249  10.755
49031SOL    HW148932   0.739   9.316  10.794
49031SOL    HW248933   0.734   9.190  10.710
49032SOL     OW48934  11.748   4.797   3.766
49032SOL    HW148935  11.839   4.826   3.765
49032SOL    HW248936  11.698   4.875   3.788
49033SOL     OW48937   0.853   6.206  10.086
49033SOL    HW148938   0.765   6.222  10.051
49033SOL    HW248939   0.910   6.264  10.035
49034SOL     OW48940   1.465   9.116   1.457
49034SOL    HW148941   1.462   9.182   1.527
49034SOL    HW248942   1.392   9.058   1.477
49035SOL     OW48943   2.395   1.100   7.677
49035SOL    HW148944   2.309   1.140   7.688
49035SOL    HW248945   2.391   1.057   7.592
49036SOL     OW48946  14.664   8.125  14.672
49036SOL    HW148947  14.591   8.186  14.685
49036SOL    HW248948  14.631   8.061  14.610
49037SOL     OW48949  11.999   7.510   3.355
49037SOL    HW148950  12.072   7.449   3.367
49037SOL    HW248951  12.032   7.594   3.386
49038SOL     OW48952   3.379   3.127   8.652
49038SOL    HW148953   3.388   3.140   8.746
49038SOL    HW248954   3.337   3.207   8.620
49039SOL     OW48955  11.433   6.913   2.846
49039SOL    HW148956  11.526   6.931   2.857
49039SOL    HW248957  11.410   6.954   2.762
49040SOL     OW48958   1.717  14.052   3.420
49040SOL    HW148959   1.763  14.126   3.381
49040SOL    HW248960   1.640  14.091   3.461
49041SOL     OW48961  10.585  14.659  13.486
49041SOL    HW148962  10.563  14.569  13.512
49041SOL    HW248963  10.637  14.648  13.406
49042SOL     OW48964   5.044  14.421   9.908
49042SOL    HW148965   5.026  14.359   9.979
49042SOL    HW248966   4.966  14.476   9.904
49043SOL     OW48967   1.192   7.113  11.537
49043SOL    HW148968   1.192   7.207  11.557
49043SOL    HW248969   1.263   7.102  11.474
49044SOL     OW48970  10.708   5.702  12.921
49044SOL    HW148971  10.614   5.689  12.931
49044SOL    HW248972  10.747   5.623  12.957
49045SOL     OW48973   9.459   8.532   0.773
49045SOL    HW148974   9.426   8.468   0.835
49045SOL    HW248975   9.384   8.553   0.717
49046SOL     OW48976  10.492  11.968   0.054
49046SOL    HW148977  10.578  11.969   0.097
49046SOL    HW248978  10.449  11.890   0.090
49047SOL     OW48979   1.288  12.128   5.578
49047SOL    HW148980   1.195  12.119   5.558
49047SOL    HW248981   1.297  12.218   5.608
49048SOL     OW48982   5.676   9.847  10.349
49048SOL    HW148983   5.765   9.868  10.323
49048SOL    HW248984   5.637   9.806  10.271
49049SOL     OW48985  13.145   5.508   2.129
49049SOL    HW148986  13.134   5.523   2.035
49049SOL    HW248987  13.153   5.596   2.166
49050SOL     OW48988  12.614  12.927   1.613
49050SOL    HW148989  12.531  12.962   1.582
49050SOL    HW248990  12.650  12.879   1.539
49051SOL     OW48991  13.377   9.431   1.375
49051SOL    HW148992  13.471   9.437   1.392
49051SOL    HW248993  13.367   9.453   1.282
49052SOL     OW48994   1.531  12.577   9.409
49052SOL    HW148995   1.535  12.496   9.360
49052SOL    HW248996   1.608  12.627   9.381
49053SOL     OW48997   4.179   2.124   9.995
49053SOL    HW148998   4.266   2.084   9.998
49053SOL    HW248999   4.140   2.092   9.913
49054SOL     OW49000  12.676   5.717  14.242
49054SOL    HW149001  12.661   5.810  14.225
49054SOL    HW249002  12.597   5.674  14.211
49055SOL     OW49003   2.861  12.130   1.699
49055SOL    HW149004   2.887  12.218   1.670
49055SOL    HW249005   2.922  12.072   1.653
49056SOL     OW49006   8.060   6.694   0.238
49056SOL    HW149007   7.978   6.729   0.203
49056SOL    HW249008   8.041   6.679   0.331
49057SOL     OW49009   4.808   9.399  14.564
49057SOL    HW149010   4.761   9.481  14.579
49057SOL    HW249011   4.845   9.409  14.476
49058SOL     OW49012   9.972   4.216  14.578
49058SOL    HW149013  10.002   4.284  14.639
49058SOL    HW249014  10.052   4.178  14.542
49059SOL     OW49015   4.509   9.657  12.292
49059SOL    HW149016   4.530   9.578  12.342
49059SOL    HW249017   4.425   9.686  12.326
49060SOL     OW49018   5.128   4.720   4.672
49060SOL    HW149019   5.147   4.786   4.738
49060SOL    HW249020   5.184   4.742   4.598
49061SOL     OW49021  14.344   0.434   3.052
49061SOL    HW149022  14.264   0.425   3.105
49061SOL    HW249023  14.350   0.352   3.003
49062SOL     OW49024   8.789   7.694   8.283
49062SOL    HW149025   8.810   7.604   8.258
49062SOL    HW249026   8.695   7.694   8.298
49063SOL     OW49027   7.506   4.745  13.349
49063SOL    HW149028   7.589   4.752  13.396
49063SOL    HW249029   7.486   4.835  13.322
49064SOL     OW49030   6.770   1.662   4.217
49064SOL    HW149031   6.851   1.667   4.269
49064SOL    HW249032   6.738   1.573   4.231
49065SOL     OW49033   4.281   6.156   6.640
49065SOL    HW149034   4.308   6.145   6.731
49065SOL    HW249035   4.330   6.089   6.592
49066SOL     OW49036   7.095   2.133   0.673
49066SOL    HW149037   7.076   2.171   0.587
49066SOL    HW249038   7.016   2.084   0.695
49067SOL     OW49039   7.946   6.877   3.718
49067SOL    HW149040   7.923   6.838   3.802
49067SOL    HW249041   7.948   6.804   3.657
49068SOL     OW49042  13.392   2.054   6.635
49068SOL    HW149043  13.442   2.008   6.568
49068SOL    HW249044  13.381   2.143   6.600
49069SOL     OW49045   9.885   3.775   5.593
49069SOL    HW149046   9.825   3.770   5.667
49069SOL    HW249047   9.896   3.868   5.576
49070SOL     OW49048   1.222   1.771   1.653
49070SOL    HW149049   1.210   1.748   1.561
49070SOL    HW249050   1.143   1.818   1.677
49071SOL     OW49051  13.279   2.194  10.951
49071SOL    HW149052  13.321   2.263  11.002
49071SOL    HW249053  13.206   2.238  10.908
49072SOL     OW49054   1.790   1.770   5.678
49072SOL    HW149055   1.728   1.705   5.646
49072SOL    HW249056   1.756   1.854   5.647
49073SOL     OW49057  14.789   3.399   6.453
49073SOL    HW149058  14.847   3.421   6.526
49073SOL    HW249059  14.846   3.397   6.376
49074SOL     OW49060  13.412  12.272   3.874
49074SOL    HW149061  13.352  12.230   3.813
49074SOL    HW249062  13.387  12.238   3.960
49075SOL     OW49063  13.396   0.677   9.113
49075SOL    HW149064  13.431   0.751   9.062
49075SOL    HW249065  13.448   0.602   9.084
49076SOL     OW49066   7.374   3.153   6.037
49076SOL    HW149067   7.441   3.196   6.090
49076SOL    HW249068   7.333   3.090   6.096
49077SOL     OW49069   8.153  13.076  11.222
49077SOL    HW149070   8.210  13.013  11.267
49077SOL    HW249071   8.064  13.046  11.242
49078SOL     OW49072  13.471   3.623  12.009
49078SOL    HW149073  13.551   3.601  11.961
49078SOL    HW249074  13.469   3.719  12.010
49079SOL     OW49075  12.802  12.344   3.729
49079SOL    HW149076  12.890  12.364   3.761
49079SOL    HW249077  12.744  12.397   3.783
49080SOL     OW49078   5.883   6.621  11.658
49080SOL    HW149079   5.930   6.678  11.720
49080SOL    HW249080   5.947   6.554  11.634
49081SOL     OW49081   8.883   3.422   8.095
49081SOL    HW149082   8.810   3.480   8.072
49081SOL    HW249083   8.855   3.335   8.066
49082SOL     OW49084   6.339   0.250   1.727
49082SOL    HW149085   6.266   0.200   1.689
49082SOL    HW249086   6.409   0.243   1.663
49083SOL     OW49087  12.598   0.319  12.663
49083SOL    HW149088  12.599   0.405  12.621
49083SOL    HW249089  12.508   0.309  12.694
49084SOL     OW49090   9.284   6.088  13.910
49084SOL    HW149091   9.195   6.117  13.928
49084SOL    HW249092   9.316   6.149  13.843
49085SOL     OW49093   2.737   3.501   4.777
49085SOL    HW149094   2.745   3.591   4.747
49085SOL    HW249095   2.683   3.458   4.710
49086SOL     OW49096  10.006   6.479   2.123
49086SOL    HW149097   9.912   6.485   2.103
49086SOL    HW249098  10.039   6.412   2.063
49087SOL     OW49099   7.467   9.793  13.815
49087SOL    HW149100   7.514   9.751  13.887
49087SOL    HW249101   7.375   9.777  13.835
49088SOL     OW49102   4.320   4.359   0.781
49088SOL    HW149103   4.354   4.408   0.706
49088SOL    HW249104   4.225   4.360   0.768
49089SOL     OW49105   8.338   1.872   9.329
49089SOL    HW149106   8.311   1.831   9.246
49089SOL    HW249107   8.337   1.800   9.392
49090SOL     OW49108   8.695   4.218  10.179
49090SOL    HW149109   8.623   4.275  10.153
49090SOL    HW249110   8.750   4.272  10.235
49091SOL     OW49111   7.225  11.113   3.080
49091SOL    HW149112   7.159  11.141   3.016
49091SOL    HW249113   7.299  11.172   3.064
49092SOL     OW49114   4.586   0.622  13.016
49092SOL    HW149115   4.682   0.623  13.017
49092SOL    HW249116   4.560   0.705  13.055
49093SOL     OW49117  11.382   1.433   4.580
49093SOL    HW149118  11.391   1.350   4.628
49093SOL    HW249119  11.427   1.497   4.635
49094SOL     OW49120   1.457   6.517   5.407
49094SOL    HW149121   1.426   6.442   5.458
49094SOL    HW249122   1.389   6.531   5.341
49095SOL     OW49123  11.335   4.541   2.440
49095SOL    HW149124  11.324   4.530   2.346
49095SOL    HW249125  11.348   4.635   2.452
49096SOL     OW49126   7.931   2.266   1.489
49096SOL    HW149127   7.937   2.303   1.577
49096SOL    HW249128   7.854   2.210   1.492
49097SOL     OW49129  11.289  12.156  14.708
49097SOL    HW149130  11.240  12.110  14.775
49097SOL    HW249131  11.333  12.087  14.658
49098SOL     OW49132   5.478   3.736   3.027
49098SOL    HW149133   5.423   3.765   3.100
49098SOL    HW249134   5.512   3.651   3.055
49099SOL     OW49135   2.613   1.454  13.003
49099SOL    HW149136   2.526   1.492  13.006
49099SOL    HW249137   2.644   1.456  13.094
49100SOL     OW49138  14.702  10.889   3.238
49100SOL    HW149139  14.735  10.961   3.291
49100SOL    HW249140  14.630  10.852   3.289
49101SOL     OW49141  14.043   1.854   3.281
49101SOL    HW149142  14.083   1.915   3.342
49101SOL    HW249143  13.985   1.907   3.228
49102SOL     OW49144  12.240   1.438   6.788
49102SOL    HW149145  12.203   1.478   6.866
49102SOL    HW249146  12.192   1.356   6.778
49103SOL     OW49147   6.189  14.202   1.525
49103SOL    HW149148   6.117  14.157   1.568
49103SOL    HW249149   6.245  14.233   1.596
49104SOL     OW49150  10.158  10.781  14.186
49104SOL    HW149151  10.249  10.796  14.159
49104SOL    HW249152  10.146  10.838  14.262
49105SOL     OW49153   6.726   4.641   3.447
49105SOL    HW149154   6.682   4.590   3.378
49105SOL    HW249155   6.741   4.727   3.407
49106SOL     OW49156   1.469   3.060   2.040
49106SOL    HW149157   1.536   3.019   1.986
49106SOL    HW249158   1.402   3.088   1.978
49107SOL     OW49159   7.420  10.662   6.970
49107SOL    HW149160   7.394  10.678   6.879
49107SOL    HW249161   7.424  10.749   7.010
49108SOL     OW49162   0.491   3.292  13.508
49108SOL    HW149163   0.568   3.242  13.479
49108SOL    HW249164   0.438   3.301  13.429
49109SOL     OW49165   4.628   5.698  10.212
49109SOL    HW149166   4.562   5.655  10.267
49109SOL    HW249167   4.686   5.741  10.274
49110SOL     OW49168  12.468   1.114  13.672
49110SOL    HW149169  12.545   1.061  13.691
49110SOL    HW249170  12.396   1.051  13.668
49111SOL     OW49171   7.638   1.207  12.075
49111SOL    HW149172   7.684   1.289  12.056
49111SOL    HW249173   7.623   1.210  12.169
49112SOL     OW49174  13.893   1.456   1.536
49112SOL    HW149175  13.963   1.435   1.598
49112SOL    HW249176  13.815   1.463   1.590
49113SOL     OW49177  11.875   4.903   7.439
49113SOL    HW149178  11.845   4.969   7.501
49113SOL    HW249179  11.824   4.825   7.460
49114SOL     OW49180  13.709   7.430  13.494
49114SOL    HW149181  13.680   7.495  13.430
49114SOL    HW249182  13.628   7.399  13.535
49115SOL     OW49183   7.337  13.868  14.613
49115SOL    HW149184   7.297  13.856  14.699
49115SOL    HW249185   7.423  13.906  14.631
49116SOL     OW49186   4.805  13.925   2.242
49116SOL    HW149187   4.812  13.859   2.311
49116SOL    HW249188   4.841  14.005   2.282
49117SOL     OW49189   4.521  10.386   9.518
49117SOL    HW149190   4.564  10.314   9.473
49117SOL    HW249191   4.549  10.465   9.471
49118SOL     OW49192  14.104   9.407   7.397
49118SOL    HW149193  14.152   9.349   7.337
49118SOL    HW249194  14.014   9.377   7.393
49119SOL     OW49195  14.051   7.408   1.602
49119SOL    HW149196  14.017   7.347   1.667
49119SOL    HW249197  14.032   7.495   1.638
49120SOL     OW49198   5.270   3.582   6.712
49120SOL    HW149199   5.269   3.488   6.696
49120SOL    HW249200   5.327   3.593   6.788
49121SOL     OW49201   3.207   4.456   5.382
49121SOL    HW149202   3.147   4.509   5.436
49121SOL    HW249203   3.286   4.449   5.435
49122SOL     OW49204  10.038   4.825   8.396
49122SOL    HW149205  10.097   4.818   8.321
49122SOL    HW249206  10.094   4.846   8.470
49123SOL     OW49207  10.485  11.539  10.627
49123SOL    HW149208  10.527  11.595  10.693
49123SOL    HW249209  10.541  11.462  10.621
49124SOL     OW49210   0.660   7.339  14.058
49124SOL    HW149211   0.617   7.256  14.080
49124SOL    HW249212   0.744   7.336  14.105
49125SOL     OW49213  10.880   8.586   8.502
49125SOL    HW149214  10.898   8.496   8.528
49125SOL    HW249215  10.829   8.622   8.574
49126SOL     OW49216   9.585   6.507   4.278
49126SOL    HW149217   9.503   6.461   4.262
49126SOL    HW249218   9.653   6.444   4.253
49127SOL     OW49219   5.073   1.130   2.637
49127SOL    HW149220   5.115   1.212   2.665
49127SOL    HW249221   5.003   1.116   2.701
49128SOL     OW49222  10.326   6.216   8.553
49128SOL    HW149223  10.339   6.308   8.534
49128SOL    HW249224  10.415   6.180   8.555
49129SOL     OW49225  13.955  11.852  12.680
49129SOL    HW149226  14.028  11.797  12.651
49129SOL    HW249227  13.980  11.882  12.767
49130SOL     OW49228  12.627   6.324  13.770
49130SOL    HW149229  12.710   6.276  13.776
49130SOL    HW249230  12.628   6.383  13.845
49131SOL     OW49231   2.962  11.755   4.541
49131SOL    HW149232   3.050  11.721   4.561
49131SOL    HW249233   2.903  11.703   4.595
49132SOL     OW49234   9.427   6.250   8.745
49132SOL    HW149235   9.466   6.296   8.670
49132SOL    HW249236   9.467   6.291   8.822
49133SOL     OW49237   6.449   0.821  14.162
49133SOL    HW149238   6.387   0.801  14.233
49133SOL    HW249239   6.400   0.878  14.103
49134SOL     OW49240  12.871   1.254   6.152
49134SOL    HW149241  12.825   1.211   6.081
49134SOL    HW249242  12.851   1.202   6.229
49135SOL     OW49243  13.738  13.002   7.189
49135SOL    HW149244  13.824  12.987   7.149
49135SOL    HW249245  13.697  12.916   7.191
49136SOL     OW49246   4.087   0.699  13.519
49136SOL    HW149247   3.992   0.709  13.531
49136SOL    HW249248   4.096   0.635  13.448
49137SOL     OW49249   1.546   2.539  10.759
49137SOL    HW149250   1.601   2.589  10.819
49137SOL    HW249251   1.607   2.485  10.709
49138SOL     OW49252   7.034   5.111   8.879
49138SOL    HW149253   7.023   5.019   8.854
49138SOL    HW249254   6.978   5.160   8.819
49139SOL     OW49255   7.199  10.277  14.256
49139SOL    HW149256   7.259  10.302  14.327
49139SOL    HW249257   7.119  10.250  14.302
49140SOL     OW49258  13.741   1.793   9.370
49140SOL    HW149259  13.732   1.862   9.305
49140SOL    HW249260  13.651   1.772   9.395
49141SOL     OW49261  11.940   7.660   6.367
49141SOL    HW149262  11.995   7.581   6.374
49141SOL    HW249263  11.880   7.641   6.296
49142SOL     OW49264  12.277   3.870   0.544
49142SOL    HW149265  12.190   3.908   0.531
49142SOL    HW249266  12.262   3.793   0.598
49143SOL     OW49267  11.903   4.546   5.375
49143SOL    HW149268  11.901   4.626   5.428
49143SOL    HW249269  11.927   4.576   5.287
49144SOL     OW49270   1.433   4.441  12.469
49144SOL    HW149271   1.524   4.411  12.475
49144SOL    HW249272   1.425   4.505  12.540
49145SOL     OW49273   2.566   2.927  11.346
49145SOL    HW149274   2.475   2.907  11.369
49145SOL    HW249275   2.560   2.975  11.263
49146SOL     OW49276   6.827  11.396   7.137
49146SOL    HW149277   6.833  11.480   7.184
49146SOL    HW249278   6.765  11.345   7.189
49147SOL     OW49279   4.257  14.065  14.522
49147SOL    HW149280   4.331  14.015  14.487
49147SOL    HW249281   4.200  13.999  14.562
49148SOL     OW49282   4.520   3.833  10.009
49148SOL    HW149283   4.528   3.739   9.995
49148SOL    HW249284   4.479   3.842  10.095
49149SOL     OW49285   5.806  11.140   3.690
49149SOL    HW149286   5.808  11.207   3.621
49149SOL    HW249287   5.859  11.068   3.655
49150SOL     OW49288   5.836  13.545   8.678
49150SOL    HW149289   5.896  13.474   8.655
49150SOL    HW249290   5.887  13.601   8.738
49151SOL     OW49291  14.043   5.667  11.909
49151SOL    HW149292  14.085   5.743  11.948
49151SOL    HW249293  14.064   5.595  11.968
49152SOL     OW49294   3.520   1.679   7.670
49152SOL    HW149295   3.519   1.754   7.730
49152SOL    HW249296   3.588   1.701   7.606
49153SOL     OW49297  10.726   2.377   0.272
49153SOL    HW149298  10.674   2.387   0.352
49153SOL    HW249299  10.784   2.453   0.270
49154SOL     OW49300  12.635  12.333   3.479
49154SOL    HW149301  12.703  12.325   3.545
49154SOL    HW249302  12.619  12.427   3.471
49155SOL     OW49303   2.301   8.945   4.877
49155SOL    HW149304   2.384   8.976   4.914
49155SOL    HW249305   2.323   8.861   4.835
49156SOL     OW49306   0.363   8.201   1.074
49156SOL    HW149307   0.398   8.277   1.028
49156SOL    HW249308   0.362   8.226   1.166
49157SOL     OW49309   7.606  14.663  10.712
49157SOL    HW149310   7.516  14.630  10.705
49157SOL    HW249311   7.637  14.665  10.622
49158SOL     OW49312   3.627   8.662  12.888
49158SOL    HW149313   3.547   8.688  12.843
49158SOL    HW249314   3.609   8.680  12.980
49159SOL     OW49315   8.899   9.328  11.665
49159SOL    HW149316   8.830   9.331  11.598
49159SOL    HW249317   8.884   9.245  11.710
49160SOL     OW49318  13.587   6.001  13.172
49160SOL    HW149319  13.536   5.949  13.234
49160SOL    HW249320  13.657   6.039  13.225
49161SOL     OW49321   9.781   0.482   5.373
49161SOL    HW149322   9.810   0.555   5.319
49161SOL    HW249323   9.803   0.507   5.462
49162SOL     OW49324   5.561   4.116   0.321
49162SOL    HW149325   5.523   4.050   0.379
49162SOL    HW249326   5.655   4.101   0.326
49163SOL     OW49327   3.524   9.873  11.976
49163SOL    HW149328   3.502   9.788  12.015
49163SOL    HW249329   3.571   9.851  11.896
49164SOL     OW49330   7.922   4.339   6.832
49164SOL    HW149331   7.911   4.313   6.741
49164SOL    HW249332   8.017   4.345   6.844
49165SOL     OW49333  11.116   6.502   1.401
49165SOL    HW149334  11.082   6.414   1.417
49165SOL    HW249335  11.195   6.507   1.455
49166SOL     OW49336   1.439   8.537   8.589
49166SOL    HW149337   1.504   8.499   8.648
49166SOL    HW249338   1.490   8.597   8.534
49167SOL     OW49339   8.015  10.885   7.141
49167SOL    HW149340   7.951  10.949   7.110
49167SOL    HW249341   7.963  10.810   7.167
49168SOL     OW49342   7.922   8.319   8.487
49168SOL    HW149343   7.927   8.296   8.395
49168SOL    HW249344   7.991   8.267   8.529
49169SOL     OW49345   6.562  14.810  10.112
49169SOL    HW149346   6.484  14.865  10.126
49169SOL    HW249347   6.629  14.871  10.081
49170SOL     OW49348   5.621   8.470  11.395
49170SOL    HW149349   5.608   8.487  11.489
49170SOL    HW249350   5.634   8.375  11.390
49171SOL     OW49351   2.153   2.358   9.499
49171SOL    HW149352   2.224   2.298   9.474
49171SOL    HW249353   2.154   2.425   9.430
49172SOL     OW49354   7.679  11.972  10.760
49172SOL    HW149355   7.713  12.005  10.677
49172SOL    HW249356   7.612  12.036  10.786
49173SOL     OW49357   3.808   5.564   2.950
49173SOL    HW149358   3.878   5.501   2.931
49173SOL    HW249359   3.795   5.610   2.867
49174SOL     OW49360   3.497  10.534   8.758
49174SOL    HW149361   3.585  10.568   8.772
49174SOL    HW249362   3.441  10.593   8.809
49175SOL     OW49363   9.507  11.379   5.626
49175SOL    HW149364   9.481  11.420   5.709
49175SOL    HW249365   9.453  11.300   5.621
49176SOL     OW49366   1.399   3.431   3.095
49176SOL    HW149367   1.416   3.511   3.045
49176SOL    HW249368   1.372   3.367   3.029
49177SOL     OW49369   5.503   5.146  14.058
49177SOL    HW149370   5.540   5.066  14.097
49177SOL    HW249371   5.555   5.160  13.979
49178SOL     OW49372   5.083  13.591   6.652
49178SOL    HW149373   5.026  13.665   6.631
49178SOL    HW249374   5.144  13.587   6.578
49179SOL     OW49375  13.521  10.193   7.327
49179SOL    HW149376  13.558  10.254   7.263
49179SOL    HW249377  13.518  10.243   7.409
49180SOL     OW49378  12.616   5.130   0.860
49180SOL    HW149379  12.564   5.209   0.849
49180SOL    HW249380  12.700   5.150   0.819
49181SOL     OW49381   2.647  11.470  12.299
49181SOL    HW149382   2.668  11.560  12.273
49181SOL    HW249383   2.689  11.416  12.233
49182SOL     OW49384   4.670   0.449   5.221
49182SOL    HW149385   4.639   0.537   5.241
49182SOL    HW249386   4.757   0.445   5.260
49183SOL     OW49387   4.702  10.568   5.522
49183SOL    HW149388   4.780  10.553   5.468
49183SOL    HW249389   4.657  10.484   5.521
49184SOL     OW49390   9.767  11.931   4.006
49184SOL    HW149391   9.851  11.956   4.046
49184SOL    HW249392   9.742  11.851   4.052
49185SOL     OW49393   6.303   9.939   9.372
49185SOL    HW149394   6.364   9.919   9.443
49185SOL    HW249395   6.233   9.990   9.414
49186SOL     OW49396   1.303   1.479   4.068
49186SOL    HW149397   1.358   1.522   4.132
49186SOL    HW249398   1.218   1.469   4.111
49187SOL     OW49399   3.949   8.933   2.553
49187SOL    HW149400   3.964   8.880   2.631
49187SOL    HW249401   3.926   8.870   2.485
49188SOL     OW49402   1.245  14.475  14.797
49188SOL    HW149403   1.289  14.547  14.841
49188SOL    HW249404   1.262  14.398  14.852
49189SOL     OW49405   7.727   3.422   2.946
49189SOL    HW149406   7.716   3.405   2.852
49189SOL    HW249407   7.768   3.509   2.950
49190SOL     OW49408   4.216   2.590   5.337
49190SOL    HW149409   4.295   2.628   5.300
49190SOL    HW249410   4.180   2.658   5.395
49191SOL     OW49411   4.551   1.228   4.770
49191SOL    HW149412   4.563   1.134   4.784
49191SOL    HW249413   4.518   1.234   4.680
49192SOL     OW49414  14.237   3.963  14.059
49192SOL    HW149415  14.299   4.031  14.032
49192SOL    HW249416  14.186   3.945  13.980
49193SOL     OW49417   9.713  14.177  14.698
49193SOL    HW149418   9.741  14.267  14.683
49193SOL    HW249419   9.732  14.132  14.615
49194SOL     OW49420  12.431  13.555   5.130
49194SOL    HW149421  12.502  13.497   5.160
49194SOL    HW249422  12.352  13.519   5.170
49195SOL     OW49423  14.074  12.428   4.799
49195SOL    HW149424  14.132  12.382   4.739
49195SOL    HW249425  14.093  12.520   4.785
49196SOL     OW49426   8.323   2.065   6.577
49196SOL    HW149427   8.401   2.120   6.577
49196SOL    HW249428   8.291   2.068   6.668
49197SOL     OW49429  12.648   9.665   8.230
49197SOL    HW149430  12.593   9.682   8.153
49197SOL    HW249431  12.702   9.744   8.238
49198SOL     OW49432   5.703  13.734   2.715
49198SOL    HW149433   5.751  13.654   2.697
49198SOL    HW249434   5.769  13.796   2.745
49199SOL     OW49435   4.599   4.406  10.996
49199SOL    HW149436   4.598   4.312  10.978
49199SOL    HW249437   4.539   4.417  11.070
49200SOL     OW49438   5.450  14.146  10.363
49200SOL    HW149439   5.544  14.149  10.381
49200SOL    HW249440   5.441  14.177  10.273
49201SOL     OW49441  10.758  13.282  11.366
49201SOL    HW149442  10.779  13.232  11.288
49201SOL    HW249443  10.742  13.371  11.335
49202SOL     OW49444   7.468  10.918  13.410
49202SOL    HW149445   7.378  10.929  13.381
49202SOL    HW249446   7.467  10.837  13.461
49203SOL     OW49447   4.232  14.550   8.716
49203SOL    HW149448   4.248  14.552   8.622
49203SOL    HW249449   4.137  14.543   8.725
49204SOL     OW49450  12.090   4.327   7.716
49204SOL    HW149451  12.054   4.405   7.759
49204SOL    HW249452  12.014   4.284   7.677
49205SOL     OW49453  13.644   2.121  13.115
49205SOL    HW149454  13.571   2.153  13.062
49205SOL    HW249455  13.687   2.201  13.148
49206SOL     OW49456   3.756   7.938  14.248
49206SOL    HW149457   3.773   7.851  14.283
49206SOL    HW249458   3.838   7.985  14.260
49207SOL     OW49459  10.266   8.359  10.476
49207SOL    HW149460  10.288   8.412  10.400
49207SOL    HW249461  10.190   8.308  10.449
49208SOL     OW49462   3.024   0.338   2.530
49208SOL    HW149463   3.033   0.319   2.436
49208SOL    HW249464   2.950   0.284   2.558
49209SOL     OW49465   8.200  11.932   6.704
49209SOL    HW149466   8.249  12.013   6.717
49209SOL    HW249467   8.265  11.868   6.675
49210SOL     OW49468   3.529   8.389  10.214
49210SOL    HW149469   3.541   8.294  10.214
49210SOL    HW249470   3.479   8.406  10.294
49211SOL     OW49471   6.960   2.801  11.317
49211SOL    HW149472   6.951   2.727  11.377
49211SOL    HW249473   6.984   2.762  11.233
49212SOL     OW49474   8.805  11.810   1.559
49212SOL    HW149475   8.859  11.821   1.638
49212SOL    HW249476   8.768  11.722   1.568
49213SOL     OW49477   6.142   0.311  13.506
49213SOL    HW149478   6.131   0.293  13.412
49213SOL    HW249479   6.226   0.270  13.528
49214SOL     OW49480  10.394   6.332  13.440
49214SOL    HW149481  10.352   6.379  13.512
49214SOL    HW249482  10.410   6.245  13.474
49215SOL     OW49483   2.367  12.556   3.183
49215SOL    HW149484   2.420  12.578   3.259
49215SOL    HW249485   2.382  12.628   3.122
49216SOL     OW49486   0.765  14.709   5.876
49216SOL    HW149487   0.744  14.620   5.845
49216SOL    HW249488   0.765  14.762   5.796
49217SOL     OW49489   3.053   4.212   2.583
49217SOL    HW149490   3.010   4.251   2.507
49217SOL    HW249491   3.005   4.248   2.658
49218SOL     OW49492   2.964  14.160   3.714
49218SOL    HW149493   2.892  14.159   3.777
49218SOL    HW249494   2.942  14.091   3.651
49219SOL     OW49495   7.395  10.243   9.208
49219SOL    HW149496   7.368  10.197   9.287
49219SOL    HW249497   7.489  10.257   9.218
49220SOL     OW49498   0.095   8.985   2.849
49220SOL    HW149499   0.031   9.046   2.886
49220SOL    HW249500   0.042   8.912   2.817
49221SOL     OW49501   5.251   0.354  13.515
49221SOL    HW149502   5.176   0.324  13.566
49221SOL    HW249503   5.325   0.307  13.552
49222SOL     OW49504   7.243   9.331   4.399
49222SOL    HW149505   7.222   9.262   4.336
49222SOL    HW249506   7.331   9.360   4.375
49223SOL     OW49507   9.274   4.011   5.481
49223SOL    HW149508   9.329   4.066   5.536
49223SOL    HW249509   9.243   4.069   5.411
49224SOL     OW49510   0.158  11.878   0.430
49224SOL    HW149511   0.207  11.811   0.383
49224SOL    HW249512   0.094  11.828   0.482
49225SOL     OW49513   0.778   8.637   7.267
49225SOL    HW149514   0.692   8.672   7.243
49225SOL    HW249515   0.788   8.662   7.359
49226SOL     OW49516   0.633   4.606  14.742
49226SOL    HW149517   0.719   4.604  14.699
49226SOL    HW249518   0.650   4.576  14.831
49227SOL     OW49519   3.526  10.094  13.547
49227SOL    HW149520   3.442  10.117  13.588
49227SOL    HW249521   3.503  10.061  13.460
49228SOL     OW49522   6.069   4.586   8.061
49228SOL    HW149523   6.035   4.668   8.096
49228SOL    HW249524   5.995   4.525   8.065
49229SOL     OW49525   3.164   8.114   4.277
49229SOL    HW149526   3.219   8.188   4.304
49229SOL    HW249527   3.074   8.148   4.282
49230SOL     OW49528   3.806  13.466  13.393
49230SOL    HW149529   3.879  13.519  13.425
49230SOL    HW249530   3.759  13.439  13.472
49231SOL     OW49531   9.487   3.256   0.603
49231SOL    HW149532   9.413   3.201   0.576
49231SOL    HW249533   9.555   3.239   0.538
49232SOL     OW49534   6.019  10.210  12.390
49232SOL    HW149535   6.106  10.217  12.353
49232SOL    HW249536   6.019  10.270  12.464
49233SOL     OW49537  11.252   0.935   1.597
49233SOL    HW149538  11.164   0.960   1.570
49233SOL    HW249539  11.249   0.840   1.607
49234SOL     OW49540  14.769  14.365   7.410
49234SOL    HW149541  14.814  14.449   7.418
49234SOL    HW249542  14.832  14.309   7.364
49235SOL     OW49543   1.595   1.754   1.587
49235SOL    HW149544   1.608   1.845   1.561
49235SOL    HW249545   1.660   1.706   1.536
49236SOL     OW49546  13.404   0.796  10.634
49236SOL    HW149547  13.314   0.825  10.651
49236SOL    HW249548  13.395   0.716  10.582
49237SOL     OW49549  10.833   7.986   4.818
49237SOL    HW149550  10.828   7.923   4.889
49237SOL    HW249551  10.751   8.036   4.824
49238SOL     OW49552   0.795   3.423  12.829
49238SOL    HW149553   0.701   3.436  12.841
49238SOL    HW249554   0.819   3.486  12.761
49239SOL     OW49555   3.508   8.219  14.631
49239SOL    HW149556   3.518   8.130  14.663
49239SOL    HW249557   3.456   8.264  14.698
49240SOL     OW49558   3.604  13.844  13.831
49240SOL    HW149559   3.645  13.930  13.824
49240SOL    HW249560   3.652  13.800  13.901
49241SOL     OW49561   1.840   6.591  10.339
49241SOL    HW149562   1.912   6.534  10.365
49241SOL    HW249563   1.779   6.533  10.294
49242SOL     OW49564   3.290  13.250   4.680
49242SOL    HW149565   3.329  13.186   4.740
49242SOL    HW249566   3.358  13.316   4.668
49243SOL     OW49567  11.387  14.099   2.363
49243SOL    HW149568  11.430  14.155   2.428
49243SOL    HW249569  11.382  14.013   2.406
49244SOL     OW49570   8.760   0.242   5.682
49244SOL    HW149571   8.676   0.196   5.676
49244SOL    HW249572   8.735   0.334   5.689
49245SOL     OW49573   9.371   4.015   7.926
49245SOL    HW149574   9.353   3.937   7.980
49245SOL    HW249575   9.451   4.051   7.964
49246SOL     OW49576   0.409   2.632   4.337
49246SOL    HW149577   0.360   2.714   4.342
49246SOL    HW249578   0.501   2.658   4.346
49247SOL     OW49579  10.752  14.062   6.908
49247SOL    HW149580  10.816  14.080   6.976
49247SOL    HW249581  10.688  14.133   6.917
49248SOL     OW49582   0.211  12.610   2.886
49248SOL    HW149583   0.181  12.643   2.971
49248SOL    HW249584   0.162  12.662   2.822
49249SOL     OW49585  11.224  10.195  11.340
49249SOL    HW149586  11.283  10.169  11.411
49249SOL    HW249587  11.138  10.204  11.382
49250SOL     OW49588   4.246   3.917   9.299
49250SOL    HW149589   4.193   3.979   9.349
49250SOL    HW249590   4.234   3.833   9.344
49251SOL     OW49591   1.635   0.758   2.876
49251SOL    HW149592   1.623   0.674   2.831
49251SOL    HW249593   1.565   0.814   2.844
49252SOL     OW49594   4.512  13.833  10.408
49252SOL    HW149595   4.573  13.854  10.479
49252SOL    HW249596   4.441  13.785  10.452
49253SOL     OW49597  11.222  13.777   3.263
49253SOL    HW149598  11.256  13.828   3.336
49253SOL    HW249599  11.129  13.765   3.283
49254SOL     OW49600  11.271  11.641  14.137
49254SOL    HW149601  11.208  11.570  14.124
49254SOL    HW249602  11.217  11.716  14.163
49255SOL     OW49603   7.360  14.435   4.901
49255SOL    HW149604   7.444  14.395   4.921
49255SOL    HW249605   7.329  14.470   4.985
49256SOL     OW49606   8.300   2.292   3.598
49256SOL    HW149607   8.272   2.201   3.603
49256SOL    HW249608   8.242   2.331   3.533
49257SOL     OW49609   3.514   1.760   0.653
49257SOL    HW149610   3.479   1.849   0.659
49257SOL    HW249611   3.469   1.712   0.722
49258SOL     OW49612  10.709   9.750   1.219
49258SOL    HW149613  10.670   9.669   1.251
49258SOL    HW249614  10.763   9.782   1.292
49259SOL     OW49615   6.154   8.908  14.653
49259SOL    HW149616   6.174   8.995  14.686
49259SOL    HW249617   6.217   8.850  14.696
49260SOL     OW49618   7.709   2.573  10.915
49260SOL    HW149619   7.735   2.653  10.962
49260SOL    HW249620   7.768   2.506  10.947
49261SOL     OW49621  10.034   1.989   3.742
49261SOL    HW149622  10.041   2.082   3.765
49261SOL    HW249623  10.074   1.983   3.655
49262SOL     OW49624   6.614   4.447   7.066
49262SOL    HW149625   6.595   4.385   7.137
49262SOL    HW249626   6.633   4.530   7.112
49263SOL     OW49627   3.407  13.456  12.631
49263SOL    HW149628   3.446  13.451  12.718
49263SOL    HW249629   3.313  13.450  12.646
49264SOL     OW49630  10.302  13.062   0.488
49264SOL    HW149631  10.350  13.058   0.405
49264SOL    HW249632  10.271  13.152   0.494
49265SOL     OW49633   9.984   0.398   3.081
49265SOL    HW149634   9.946   0.313   3.104
49265SOL    HW249635   9.962   0.455   3.155
49266SOL     OW49636  11.556  11.199  14.347
49266SOL    HW149637  11.553  11.287  14.308
49266SOL    HW249638  11.472  11.160  14.324
49267SOL     OW49639   9.115   5.046  10.782
49267SOL    HW149640   9.175   5.119  10.769
49267SOL    HW249641   9.112   5.002  10.697
49268SOL     OW49642   8.517   8.294   9.847
49268SOL    HW149643   8.565   8.214   9.866
49268SOL    HW249644   8.585   8.360   9.832
49269SOL     OW49645   9.608   7.769  13.977
49269SOL    HW149646   9.689   7.745  14.022
49269SOL    HW249647   9.627   7.754  13.884
49270SOL     OW49648   2.784   6.217   7.913
49270SOL    HW149649   2.820   6.286   7.857
49270SOL    HW249650   2.736   6.160   7.853
49271SOL     OW49651   9.867  10.515  11.841
49271SOL    HW149652   9.866  10.594  11.896
49271SOL    HW249653   9.906  10.448  11.896
49272SOL     OW49654   0.743   0.052   6.789
49272SOL    HW149655   0.734   0.074   6.697
49272SOL    HW249656   0.797  14.846   6.790
49273SOL     OW49657   2.646   4.014  12.601
49273SOL    HW149658   2.648   3.923  12.570
49273SOL    HW249659   2.632   4.066  12.522
49274SOL     OW49660  11.219   9.585   5.775
49274SOL    HW149661  11.171   9.655   5.819
49274SOL    HW249662  11.310   9.599   5.802
49275SOL     OW49663   7.994  11.136   9.639
49275SOL    HW149664   7.950  11.143   9.554
49275SOL    HW249665   8.080  11.177   9.625
49276SOL     OW49666  11.643  12.767  11.240
49276SOL    HW149667  11.669  12.769  11.148
49276SOL    HW249668  11.668  12.679  11.269
49277SOL     OW49669  10.614  14.479   5.927
49277SOL    HW149670  10.692  14.528   5.952
49277SOL    HW249671  10.606  14.493   5.833
49278SOL     OW49672   3.141   2.836   8.178
49278SOL    HW149673   3.146   2.749   8.218
49278SOL    HW249674   3.098   2.890   8.245
49279SOL     OW49675   2.424   8.062   6.293
49279SOL    HW149676   2.433   8.072   6.388
49279SOL    HW249677   2.462   8.142   6.257
49280SOL     OW49678  13.212   5.673   3.091
49280SOL    HW149679  13.149   5.652   3.161
49280SOL    HW249680  13.182   5.757   3.057
49281SOL     OW49681   5.643  11.299  13.814
49281SOL    HW149682   5.577  11.239  13.847
49281SOL    HW249683   5.594  11.364  13.764
49282SOL     OW49684  10.546  13.652   3.091
49282SOL    HW149685  10.538  13.597   3.169
49282SOL    HW249686  10.507  13.735   3.116
49283SOL     OW49687   1.478  14.822   0.958
49283SOL    HW149688   1.383  14.814   0.956
49283SOL    HW249689   1.510  14.738   0.927
49284SOL     OW49690   0.437  10.038  10.021
49284SOL    HW149691   0.431   9.986  10.101
49284SOL    HW249692   0.380  10.114  10.037
49285SOL     OW49693  10.037  13.562   2.160
49285SOL    HW149694   9.957  13.522   2.125
49285SOL    HW249695  10.010  13.649   2.189
49286SOL     OW49696   0.573  14.265   3.730
49286SOL    HW149697   0.649  14.212   3.705
49286SOL    HW249698   0.498  14.212   3.703
49287SOL     OW49699   0.936   5.961  10.563
49287SOL    HW149700   0.868   5.962  10.632
49287SOL    HW249701   0.903   6.022  10.497
49288SOL     OW49702   0.388   8.668   0.261
49288SOL    HW149703   0.373   8.755   0.299
49288SOL    HW249704   0.436   8.686   0.180
49289SOL     OW49705   7.833   5.962   8.329
49289SOL    HW149706   7.778   5.957   8.407
49289SOL    HW249707   7.874   6.048   8.333
49290SOL     OW49708   2.851  11.566   8.720
49290SOL    HW149709   2.758  11.578   8.704
49290SOL    HW249710   2.892  11.579   8.634
49291SOL     OW49711   0.481  10.914  11.056
49291SOL    HW149712   0.541  10.984  11.084
49291SOL    HW249713   0.457  10.938  10.966
49292SOL     OW49714   9.870   0.394  12.985
49292SOL    HW149715   9.872   0.418  13.077
49292SOL    HW249716   9.899   0.303  12.982
49293SOL     OW49717   2.800   2.840   1.457
49293SOL    HW149718   2.706   2.820   1.455
49293SOL    HW249719   2.825   2.849   1.365
49294SOL     OW49720   8.568   6.361  14.316
49294SOL    HW149721   8.493   6.386  14.263
49294SOL    HW249722   8.572   6.266  14.310
49295SOL     OW49723   1.516   4.798   1.519
49295SOL    HW149724   1.578   4.757   1.579
49295SOL    HW249725   1.532   4.892   1.527
49296SOL     OW49726   7.665   4.806   9.078
49296SOL    HW149727   7.751   4.847   9.074
49296SOL    HW249728   7.673   4.738   9.144
49297SOL     OW49729   6.553  11.048   8.393
49297SOL    HW149730   6.502  10.976   8.355
49297SOL    HW249731   6.594  11.090   8.318
49298SOL     OW49732  10.398   0.773   8.313
49298SOL    HW149733  10.418   0.849   8.367
49298SOL    HW249734  10.473   0.763   8.255
49299SOL     OW49735   7.162   7.019  12.837
49299SOL    HW149736   7.105   7.091  12.866
49299SOL    HW249737   7.249   7.057  12.834
49300SOL     OW49738  11.179   6.142  14.687
49300SOL    HW149739  11.189   6.083  14.762
49300SOL    HW249740  11.085   6.158  14.681
49301SOL     OW49741   2.794   0.750   2.422
49301SOL    HW149742   2.826   0.784   2.339
49301SOL    HW249743   2.742   0.674   2.399
49302SOL     OW49744   9.419  12.449   1.462
49302SOL    HW149745   9.326  12.433   1.479
49302SOL    HW249746   9.463  12.368   1.488
49303SOL     OW49747  12.515   9.769  14.467
49303SOL    HW149748  12.564   9.841  14.507
49303SOL    HW249749  12.423   9.790  14.486
49304SOL     OW49750   6.274   9.407   3.739
49304SOL    HW149751   6.308   9.459   3.811
49304SOL    HW249752   6.179   9.410   3.750
49305SOL     OW49753   6.050   3.453   5.622
49305SOL    HW149754   6.131   3.498   5.598
49305SOL    HW249755   6.068   3.415   5.708
49306SOL     OW49756  14.556  12.068   4.443
49306SOL    HW149757  14.504  11.989   4.462
49306SOL    HW249758  14.626  12.037   4.386
49307SOL     OW49759   7.455   2.732  11.924
49307SOL    HW149760   7.365   2.764  11.915
49307SOL    HW249761   7.481   2.710  11.835
49308SOL     OW49762   4.487   3.396   4.463
49308SOL    HW149763   4.506   3.470   4.405
49308SOL    HW249764   4.399   3.412   4.495
49309SOL     OW49765   1.594   9.222   0.909
49309SOL    HW149766   1.592   9.316   0.890
49309SOL    HW249767   1.577   9.216   1.003
49310SOL     OW49768  11.578   4.107   4.257
49310SOL    HW149769  11.583   4.197   4.287
49310SOL    HW249770  11.586   4.054   4.337
49311SOL     OW49771   7.742  13.187  11.511
49311SOL    HW149772   7.691  13.126  11.565
49311SOL    HW249773   7.760  13.261  11.568
49312SOL     OW49774   1.852  10.848  14.192
49312SOL    HW149775   1.921  10.889  14.140
49312SOL    HW249776   1.858  10.890  14.278
49313SOL     OW49777   1.045   7.699   5.783
49313SOL    HW149778   0.952   7.684   5.802
49313SOL    HW249779   1.063   7.785   5.819
49314SOL     OW49780   7.071  14.452  13.015
49314SOL    HW149781   7.051  14.443  12.922
49314SOL    HW249782   6.991  14.490  13.053
49315SOL     OW49783  14.034   9.838  12.796
49315SOL    HW149784  14.038   9.917  12.742
49315SOL    HW249785  13.942   9.827  12.816
49316SOL     OW49786   1.550   7.188  10.613
49316SOL    HW149787   1.561   7.280  10.586
49316SOL    HW249788   1.473   7.158  10.565
49317SOL     OW49789  12.185  13.950   2.254
49317SOL    HW149790  12.261  14.008   2.267
49317SOL    HW249791  12.217  13.864   2.280
49318SOL     OW49792   9.618  14.527   9.976
49318SOL    HW149793   9.602  14.454  10.035
49318SOL    HW249794   9.544  14.587   9.990
49319SOL     OW49795   8.622   8.608  11.276
49319SOL    HW149796   8.553   8.565  11.325
49319SOL    HW249797   8.631   8.555  11.196
49320SOL     OW49798   4.132   5.691  13.164
49320SOL    HW149799   4.075   5.658  13.094
49320SOL    HW249800   4.129   5.786  13.153
49321SOL     OW49801   5.977  11.672   8.425
49321SOL    HW149802   5.908  11.660   8.490
49321SOL    HW249803   5.937  11.728   8.358
49322SOL     OW49804  10.255  13.383  13.706
49322SOL    HW149805  10.248  13.407  13.798
49322SOL    HW249806  10.339  13.420  13.678
49323SOL     OW49807   9.473   9.835  13.599
49323SOL    HW149808   9.424   9.860  13.677
49323SOL    HW249809   9.545   9.781  13.632
49324SOL     OW49810   9.623  10.338   4.777
49324SOL    HW149811   9.664  10.272   4.720
49324SOL    HW249812   9.634  10.420   4.731
49325SOL     OW49813   6.224  10.506   1.239
49325SOL    HW149814   6.186  10.472   1.320
49325SOL    HW249815   6.272  10.584   1.265
49326SOL     OW49816   4.540  11.744  11.118
49326SOL    HW149817   4.601  11.814  11.137
49326SOL    HW249818   4.586  11.687  11.057
49327SOL     OW49819   2.119   3.935   6.553
49327SOL    HW149820   2.212   3.942   6.577
49327SOL    HW249821   2.085   4.024   6.560
49328SOL     OW49822   5.833   5.813   7.357
49328SOL    HW149823   5.855   5.793   7.448
49328SOL    HW249824   5.771   5.745   7.332
49329SOL     OW49825   1.840  11.693   0.505
49329SOL    HW149826   1.912  11.744   0.543
49329SOL    HW249827   1.879  11.609   0.483
49330SOL     OW49828  11.948   6.455   8.417
49330SOL    HW149829  12.036   6.423   8.399
49330SOL    HW249830  11.893   6.414   8.350
49331SOL     OW49831   4.967   8.893   6.925
49331SOL    HW149832   4.976   8.857   6.837
49331SOL    HW249833   4.992   8.985   6.917
49332SOL     OW49834   7.879  14.058   6.980
49332SOL    HW149835   7.969  14.084   7.002
49332SOL    HW249836   7.824  14.113   7.036
49333SOL     OW49837   7.960  12.183   1.156
49333SOL    HW149838   7.909  12.230   1.090
49333SOL    HW249839   8.017  12.125   1.104
49334SOL     OW49840   0.389   6.380  11.770
49334SOL    HW149841   0.464   6.327  11.742
49334SOL    HW249842   0.315   6.319  11.767
49335SOL     OW49843   8.889   2.038   0.912
49335SOL    HW149844   8.830   2.113   0.904
49335SOL    HW249845   8.960   2.070   0.969
49336SOL     OW49846  10.073   3.894   2.694
49336SOL    HW149847  10.128   3.819   2.717
49336SOL    HW249848  10.066   3.944   2.775
49337SOL     OW49849   0.095   3.103   3.027
49337SOL    HW149850   0.045   3.037   2.979
49337SOL    HW249851   0.163   3.131   2.965
49338SOL     OW49852   4.894   5.893  10.635
49338SOL    HW149853   4.895   5.808  10.679
49338SOL    HW249854   4.824   5.885  10.570
49339SOL     OW49855   2.660   2.448   6.780
49339SOL    HW149856   2.755   2.455   6.785
49339SOL    HW249857   2.641   2.451   6.686
49340SOL     OW49858   1.786   9.139  11.724
49340SOL    HW149859   1.718   9.072  11.731
49340SOL    HW249860   1.744   9.219  11.757
49341SOL     OW49861   8.039   9.922   9.061
49341SOL    HW149862   8.133   9.940   9.068
49341SOL    HW249863   8.029   9.832   9.092
49342SOL     OW49864   3.452  10.712  13.278
49342SOL    HW149865   3.545  10.693  13.293
49342SOL    HW249866   3.448  10.807  13.269
49343SOL     OW49867   7.029   3.493   1.039
49343SOL    HW149868   6.940   3.462   1.053
49343SOL    HW249869   7.081   3.414   1.029
49344SOL     OW49870   4.642   8.571   5.744
49344SOL    HW149871   4.646   8.649   5.800
49344SOL    HW249872   4.549   8.560   5.725
49345SOL     OW49873   0.971  13.672   9.273
49345SOL    HW149874   1.059  13.708   9.283
49345SOL    HW249875   0.982  13.578   9.284
49346SOL     OW49876   1.660   5.273   3.478
49346SOL    HW149877   1.661   5.354   3.428
49346SOL    HW249878   1.607   5.294   3.556
49347SOL     OW49879   1.230  14.813  12.852
49347SOL    HW149880   1.205   0.013  12.908
49347SOL    HW249881   1.231  14.850  12.764
49348SOL     OW49882   9.449   9.658   8.068
49348SOL    HW149883   9.504   9.666   7.991
49348SOL    HW249884   9.507   9.622   8.135
49349SOL     OW49885  14.459   8.441  13.582
49349SOL    HW149886  14.524   8.449  13.653
49349SOL    HW249887  14.464   8.525  13.537
49350SOL     OW49888  12.306   7.538  13.887
49350SOL    HW149889  12.254   7.615  13.913
49350SOL    HW249890  12.241   7.474  13.858
49351SOL     OW49891  12.063  11.956   2.658
49351SOL    HW149892  12.122  11.886   2.687
49351SOL    HW249893  12.062  11.949   2.562
49352SOL     OW49894  10.130  11.786   9.307
49352SOL    HW149895  10.063  11.721   9.330
49352SOL    HW249896  10.201  11.770   9.369
49353SOL     OW49897  12.854  10.057  13.013
49353SOL    HW149898  12.778  10.011  13.049
49353SOL    HW249899  12.892  10.103  13.088
49354SOL     OW49900   2.943  13.640  13.186
49354SOL    HW149901   2.868  13.647  13.245
49354SOL    HW249902   2.906  13.620  13.101
49355SOL     OW49903   9.888   3.594   6.444
49355SOL    HW149904   9.856   3.659   6.507
49355SOL    HW249905   9.970   3.562   6.483
49356SOL     OW49906   9.486   7.361   7.773
49356SOL    HW149907   9.539   7.312   7.836
49356SOL    HW249908   9.399   7.366   7.813
49357SOL     OW49909   0.769   9.465  14.738
49357SOL    HW149910   0.753   9.375  14.709
49357SOL    HW249911   0.817   9.505  14.665
49358SOL     OW49912   3.600   4.365  12.683
49358SOL    HW149913   3.553   4.282  12.682
49358SOL    HW249914   3.544   4.424  12.734
49359SOL     OW49915   3.618  10.274   4.381
49359SOL    HW149916   3.690  10.337   4.377
49359SOL    HW249917   3.657  10.191   4.355
49360SOL     OW49918  10.714   2.705   4.219
49360SOL    HW149919  10.635   2.660   4.250
49360SOL    HW249920  10.699   2.719   4.126
49361SOL     OW49921  13.308   3.541  12.205
49361SOL    HW149922  13.363   3.569  12.132
49361SOL    HW249923  13.236   3.494  12.163
49362SOL     OW49924   8.357   8.937  14.722
49362SOL    HW149925   8.414   9.008  14.754
49362SOL    HW249926   8.282   8.982  14.684
49363SOL     OW49927   9.381  14.570  14.782
49363SOL    HW149928   9.452  14.627  14.752
49363SOL    HW249929   9.410  14.536  14.866
49364SOL     OW49930   9.261  11.716   1.674
49364SOL    HW149931   9.216  11.686   1.594
49364SOL    HW249932   9.325  11.647   1.692
49365SOL     OW49933   9.261   2.450   9.089
49365SOL    HW149934   9.268   2.403   9.006
49365SOL    HW249935   9.194   2.517   9.073
49366SOL     OW49936   7.195  12.052  12.989
49366SOL    HW149937   7.268  12.032  12.930
49366SOL    HW249938   7.137  12.108  12.937
49367SOL     OW49939   4.793   9.371   1.294
49367SOL    HW149940   4.758   9.289   1.261
49367SOL    HW249941   4.851   9.345   1.366
49368SOL     OW49942   7.030   4.738   2.714
49368SOL    HW149943   6.988   4.658   2.683
49368SOL    HW249944   7.077   4.772   2.638
49369SOL     OW49945   5.892  13.309   4.922
49369SOL    HW149946   5.881  13.215   4.911
49369SOL    HW249947   5.937  13.337   4.842
49370SOL     OW49948   5.433  11.592   1.412
49370SOL    HW149949   5.427  11.602   1.507
49370SOL    HW249950   5.342  11.584   1.383
49371SOL     OW49951  13.221   5.658   5.047
49371SOL    HW149952  13.259   5.620   5.126
49371SOL    HW249953  13.129   5.631   5.049
49372SOL     OW49954  12.975   9.920   3.542
49372SOL    HW149955  13.006   9.930   3.632
49372SOL    HW249956  12.938   9.831   3.540
49373SOL     OW49957   9.050   8.800   1.311
49373SOL    HW149958   9.116   8.740   1.346
49373SOL    HW249959   8.978   8.744   1.283
49374SOL     OW49960  10.815  12.848  11.536
49374SOL    HW149961  10.871  12.912  11.491
49374SOL    HW249962  10.854  12.763  11.515
49375SOL     OW49963   7.501  13.276   8.720
49375SOL    HW149964   7.592  13.303   8.719
49375SOL    HW249965   7.455  13.347   8.765
49376SOL     OW49966   0.958  11.426   1.249
49376SOL    HW149967   1.008  11.455   1.325
49376SOL    HW249968   1.021  11.425   1.177
49377SOL     OW49969   1.688   8.872   5.594
49377SOL    HW149970   1.610   8.829   5.559
49377SOL    HW249971   1.660   8.909   5.677
49378SOL     OW49972   4.930   7.663  12.583
49378SOL    HW149973   4.859   7.687  12.642
49378SOL    HW249974   4.997   7.626  12.640
49379SOL     OW49975   8.338   4.823   8.276
49379SOL    HW149976   8.310   4.799   8.188
49379SOL    HW249977   8.288   4.766   8.334
49380SOL     OW49978  10.307  13.386  14.394
49380SOL    HW149979  10.269  13.375  14.481
49380SOL    HW249980  10.270  13.468  14.362
49381SOL     OW49981   1.386   0.483   5.610
49381SOL    HW149982   1.369   0.389   5.618
49381SOL    HW249983   1.472   0.495   5.650
49382SOL     OW49984  13.083   7.009  10.258
49382SOL    HW149985  13.168   7.051  10.273
49382SOL    HW249986  13.038   7.068  10.197
49383SOL     OW49987  13.138   3.295  14.354
49383SOL    HW149988  13.058   3.297  14.407
49383SOL    HW249989  13.209   3.308  14.417
49384SOL     OW49990   6.626  12.792   8.222
49384SOL    HW149991   6.702  12.734   8.220
49384SOL    HW249992   6.662  12.878   8.243
49385SOL     OW49993   2.893  10.156   6.332
49385SOL    HW149994   2.970  10.153   6.275
49385SOL    HW249995   2.827  10.106   6.284
49386SOL     OW49996   9.603   1.542  12.955
49386SOL    HW149997   9.546   1.575  12.885
49386SOL    HW249998   9.559   1.567  13.036
49387SOL     OW49999  14.603  14.412  11.273
49387SOL    HW150000  14.662  14.440  11.203
49387SOL    HW250001  14.617  14.317  11.280
49388SOL     OW50002  10.784  10.140   1.447
49388SOL    HW150003  10.697  10.177   1.455
49388SOL    HW250004  10.841  10.198   1.498
49389SOL     OW50005   0.952  10.215  13.154
49389SOL    HW150006   0.947  10.195  13.248
49389SOL    HW250007   0.934  10.309  13.149
49390SOL     OW50008   5.010  14.350   2.202
49390SOL    HW150009   4.917  14.345   2.182
49390SOL    HW250010   5.038  14.434   2.164
49391SOL     OW50011   1.800   2.552   6.180
49391SOL    HW150012   1.756   2.488   6.124
49391SOL    HW250013   1.877   2.506   6.214
49392SOL     OW50014   3.983   6.701   3.507
49392SOL    HW150015   3.958   6.790   3.483
49392SOL    HW250016   4.024   6.665   3.428
49393SOL     OW50017   7.548   9.205   8.227
49393SOL    HW150018   7.614   9.175   8.165
49393SOL    HW250019   7.593   9.206   8.311
49394SOL     OW50020  12.366  12.101   8.904
49394SOL    HW150021  12.416  12.135   8.978
49394SOL    HW250022  12.323  12.023   8.938
49395SOL     OW50023  10.468   6.932   8.250
49395SOL    HW150024  10.509   6.922   8.336
49395SOL    HW250025  10.504   7.015   8.217
49396SOL     OW50026   5.781   6.735   1.724
49396SOL    HW150027   5.691   6.727   1.756
49396SOL    HW250028   5.820   6.803   1.779
49397SOL     OW50029   4.155   3.008  11.371
49397SOL    HW150030   4.156   2.978  11.280
49397SOL    HW250031   4.171   2.929  11.423
49398SOL     OW50032  12.758   3.600   2.980
49398SOL    HW150033  12.798   3.542   2.916
49398SOL    HW250034  12.691   3.649   2.931
49399SOL     OW50035   8.498   5.007   1.076
49399SOL    HW150036   8.462   5.087   1.116
49399SOL    HW250037   8.515   5.032   0.985
49400SOL     OW50038   5.001   3.435  10.297
49400SOL    HW150039   5.038   3.370  10.238
49400SOL    HW250040   4.946   3.490  10.241
49401SOL     OW50041   1.852  12.272   0.735
49401SOL    HW150042   1.879  12.352   0.690
49401SOL    HW250043   1.758  12.284   0.749
49402SOL     OW50044   7.556   9.833   6.562
49402SOL    HW150045   7.644   9.864   6.542
49402SOL    HW250046   7.513   9.907   6.606
49403SOL     OW50047  12.779  13.288  10.543
49403SOL    HW150048  12.778  13.230  10.619
49403SOL    HW250049  12.832  13.363  10.571
49404SOL     OW50050   4.806  13.981  10.085
49404SOL    HW150051   4.772  14.067  10.058
49404SOL    HW250052   4.824  13.936  10.002
49405SOL     OW50053  13.771   3.362   3.904
49405SOL    HW150054  13.748   3.317   3.986
49405SOL    HW250055  13.687   3.377   3.861
49406SOL     OW50056   1.243   2.348   9.820
49406SOL    HW150057   1.265   2.259   9.793
49406SOL    HW250058   1.179   2.379   9.757
49407SOL     OW50059  10.640   8.793   2.528
49407SOL    HW150060  10.576   8.783   2.457
49407SOL    HW250061  10.695   8.715   2.522
49408SOL     OW50062   2.489   4.566   3.359
49408SOL    HW150063   2.506   4.480   3.319
49408SOL    HW250064   2.550   4.571   3.432
49409SOL     OW50065   0.290   5.743   8.198
49409SOL    HW150066   0.221   5.726   8.135
49409SOL    HW250067   0.272   5.831   8.231
49410SOL     OW50068  14.709  10.168  13.957
49410SOL    HW150069  14.619  10.140  13.977
49410SOL    HW250070  14.763  10.123  14.022
49411SOL     OW50071  11.316   7.702   0.652
49411SOL    HW150072  11.374   7.739   0.718
49411SOL    HW250073  11.229   7.706   0.692
49412SOL     OW50074   9.804   9.154  13.105
49412SOL    HW150075   9.777   9.180  13.192
49412SOL    HW250076   9.899   9.154  13.108
49413SOL     OW50077   2.413   9.362  11.408
49413SOL    HW150078   2.379   9.286  11.360
49413SOL    HW250079   2.473   9.325  11.473
49414SOL     OW50080   0.995   0.077  11.754
49414SOL    HW150081   0.904   0.102  11.742
49414SOL    HW250082   1.031   0.076  11.665
49415SOL     OW50083  11.895   4.416  12.169
49415SOL    HW150084  11.954   4.424  12.095
49415SOL    HW250085  11.917   4.332  12.209
49416SOL     OW50086   2.477   9.800  13.721
49416SOL    HW150087   2.457   9.763  13.635
49416SOL    HW250088   2.412   9.761  13.779
49417SOL     OW50089   1.640   6.876   0.993
49417SOL    HW150090   1.640   6.907   1.084
49417SOL    HW250091   1.723   6.909   0.957
49418SOL     OW50092  10.784   5.804   2.080
49418SOL    HW150093  10.872   5.830   2.108
49418SOL    HW250094  10.738   5.887   2.069
49419SOL     OW50095  11.143   0.518   3.187
49419SOL    HW150096  11.100   0.465   3.119
49419SOL    HW250097  11.201   0.576   3.139
49420SOL     OW50098   0.155   7.719  10.806
49420SOL    HW150099   0.242   7.737  10.842
49420SOL    HW250100   0.164   7.734  10.712
49421SOL     OW50101  12.600   6.649   2.781
49421SOL    HW150102  12.594   6.561   2.819
49421SOL    HW250103  12.655   6.638   2.704
49422SOL     OW50104   8.951   0.563  13.187
49422SOL    HW150105   8.859   0.573  13.162
49422SOL    HW250106   8.949   0.545  13.281
49423SOL     OW50107   8.347  13.161   2.330
49423SOL    HW150108   8.317  13.126   2.246
49423SOL    HW250109   8.341  13.087   2.390
49424SOL     OW50110  11.770  14.756   3.405
49424SOL    HW150111  11.770  14.848   3.432
49424SOL    HW250112  11.819  14.755   3.324
49425SOL     OW50113   5.241  12.698  11.569
49425SOL    HW150114   5.293  12.666  11.495
49425SOL    HW250115   5.182  12.763  11.530
49426SOL     OW50116  12.982  10.140  13.245
49426SOL    HW150117  12.960  10.054  13.281
49426SOL    HW250118  13.073  10.133  13.218
49427SOL     OW50119   6.767   2.167   2.157
49427SOL    HW150120   6.740   2.158   2.248
49427SOL    HW250121   6.685   2.172   2.107
49428SOL     OW50122  10.904   4.901   0.644
49428SOL    HW150123  10.847   4.842   0.595
49428SOL    HW250124  10.857   4.920   0.725
49429SOL     OW50125   5.678  11.656  10.272
49429SOL    HW150126   5.763  11.638  10.232
49429SOL    HW250127   5.617  11.654  10.198
49430SOL     OW50128   7.618  13.812   1.237
49430SOL    HW150129   7.616  13.883   1.301
49430SOL    HW250130   7.604  13.732   1.288
49431SOL     OW50131   0.910   7.334   8.280
49431SOL    HW150132   0.932   7.248   8.245
49431SOL    HW250133   0.970   7.394   8.235
49432SOL     OW50134   7.774   0.503   1.684
49432SOL    HW150135   7.833   0.544   1.747
49432SOL    HW250136   7.781   0.558   1.606
49433SOL     OW50137   6.158   4.041   8.996
49433SOL    HW150138   6.211   4.103   8.945
49433SOL    HW250139   6.109   3.993   8.930
49434SOL     OW50140   7.954   4.318   0.584
49434SOL    HW150141   8.026   4.280   0.533
49434SOL    HW250142   7.941   4.405   0.547
49435SOL     OW50143  11.855  12.489   4.805
49435SOL    HW150144  11.805  12.432   4.864
49435SOL    HW250145  11.941  12.497   4.847
49436SOL     OW50146   6.160   8.087  14.677
49436SOL    HW150147   6.216   8.014  14.701
49436SOL    HW250148   6.164   8.089  14.581
49437SOL     OW50149  11.096  13.807  10.772
49437SOL    HW150150  11.176  13.797  10.721
49437SOL    HW250151  11.027  13.770  10.718
49438SOL     OW50152   2.457   7.662  13.123
49438SOL    HW150153   2.365   7.648  13.102
49438SOL    HW250154   2.474   7.604  13.197
49439SOL     OW50155  10.985   4.420  11.189
49439SOL    HW150156  11.042   4.385  11.258
49439SOL    HW250157  10.952   4.503  11.225
49440SOL     OW50158   9.913  11.096   4.882
49440SOL    HW150159   9.874  11.098   4.795
49440SOL    HW250160   9.865  11.162   4.932
49441SOL     OW50161  12.337  12.316   7.548
49441SOL    HW150162  12.301  12.276   7.468
49441SOL    HW250163  12.263  12.319   7.608
49442SOL     OW50164  11.856   1.817   2.169
49442SOL    HW150165  11.890   1.900   2.203
49442SOL    HW250166  11.821   1.840   2.083
49443SOL     OW50167  14.473  11.362   9.625
49443SOL    HW150168  14.535  11.428   9.655
49443SOL    HW250169  14.528  11.286   9.606
49444SOL     OW50170  12.977  12.479   6.575
49444SOL    HW150171  12.987  12.401   6.521
49444SOL    HW250172  12.951  12.548   6.514
49445SOL     OW50173  11.660  14.088   0.200
49445SOL    HW150174  11.648  14.025   0.271
49445SOL    HW250175  11.643  14.038   0.120
49446SOL     OW50176   5.495   5.477   1.221
49446SOL    HW150177   5.497   5.388   1.255
49446SOL    HW250178   5.444   5.471   1.140
49447SOL     OW50179   3.499  13.130   5.709
49447SOL    HW150180   3.513  13.172   5.624
49447SOL    HW250181   3.405  13.116   5.714
49448SOL     OW50182   9.911   0.488   7.000
49448SOL    HW150183   9.893   0.411   6.947
49448SOL    HW250184   9.890   0.461   7.089
49449SOL     OW50185  12.900   8.878  12.914
49449SOL    HW150186  12.885   8.829  12.833
49449SOL    HW250187  12.820   8.929  12.927
49450SOL     OW50188   8.658  14.158   3.953
49450SOL    HW150189   8.591  14.122   4.011
49450SOL    HW250190   8.684  14.240   3.995
49451SOL     OW50191   7.688  14.589   2.280
49451SOL    HW150192   7.603  14.547   2.269
49451SOL    HW250193   7.688  14.661   2.216
49452SOL     OW50194   1.455   5.511  13.965
49452SOL    HW150195   1.493   5.544  14.046
49452SOL    HW250196   1.515   5.443  13.936
49453SOL     OW50197  12.679   0.271  14.559
49453SOL    HW150198  12.601   0.326  14.567
49453SOL    HW250199  12.752   0.330  14.581
49454SOL     OW50200   5.077   4.862   7.887
49454SOL    HW150201   5.123   4.842   7.806
49454SOL    HW250202   4.985   4.847   7.867
49455SOL     OW50203   0.212   9.530   5.185
49455SOL    HW150204   0.166   9.471   5.244
49455SOL    HW250205   0.162   9.525   5.103
49456SOL     OW50206  13.019  10.347  12.807
49456SOL    HW150207  13.036  10.342  12.901
49456SOL    HW250208  12.983  10.262  12.784
49457SOL     OW50209   1.336   2.392   1.486
49457SOL    HW150210   1.365   2.318   1.539
49457SOL    HW250211   1.246   2.408   1.513
49458SOL     OW50212   6.116  11.675  10.881
49458SOL    HW150213   6.147  11.736  10.814
49458SOL    HW250214   6.029  11.648  10.849
49459SOL     OW50215  12.424   4.527   1.561
49459SOL    HW150216  12.371   4.575   1.498
49459SOL    HW250217  12.365   4.509   1.634
49460SOL     OW50218   4.081   0.060  14.177
49460SOL    HW150219   4.089  14.841  14.151
49460SOL    HW250220   4.003   0.092  14.132
49461SOL     OW50221  10.632  10.853   2.527
49461SOL    HW150222  10.618  10.895   2.612
49461SOL    HW250223  10.573  10.778   2.527
49462SOL     OW50224  12.799   6.424  12.048
49462SOL    HW150225  12.754   6.391  11.970
49462SOL    HW250226  12.844   6.503  12.019
49463SOL     OW50227   1.974   7.589   7.777
49463SOL    HW150228   1.884   7.592   7.810
49463SOL    HW250229   1.991   7.679   7.749
49464SOL     OW50230  13.563  10.191   8.026
49464SOL    HW150231  13.536  10.133   7.954
49464SOL    HW250232  13.491  10.252   8.035
49465SOL     OW50233   6.995   0.623   2.461
49465SOL    HW150234   6.975   0.710   2.426
49465SOL    HW250235   6.967   0.627   2.552
49466SOL     OW50236   4.739   2.015  10.143
49466SOL    HW150237   4.706   1.971  10.065
49466SOL    HW250238   4.833   1.999  10.142
49467SOL     OW50239   7.552   5.040   8.904
49467SOL    HW150240   7.644   5.066   8.915
49467SOL    HW250241   7.540   4.968   8.967
49468SOL     OW50242   1.227   8.604   6.072
49468SOL    HW150243   1.306   8.650   6.045
49468SOL    HW250244   1.158   8.640   6.016
49469SOL     OW50245  11.130   0.419   4.459
49469SOL    HW150246  11.124   0.515   4.465
49469SOL    HW250247  11.052   0.394   4.410
49470SOL     OW50248   4.041   4.956   7.633
49470SOL    HW150249   4.031   4.988   7.544
49470SOL    HW250250   4.056   5.034   7.686
49471SOL     OW50251   1.882  12.063   5.255
49471SOL    HW150252   1.807  12.049   5.196
49471SOL    HW250253   1.947  12.106   5.200
49472SOL     OW50254   9.443   9.498  14.403
49472SOL    HW150255   9.515   9.473  14.345
49472SOL    HW250256   9.453   9.441  14.479
49473SOL     OW50257   7.321  13.170  14.559
49473SOL    HW150258   7.308  13.096  14.501
49473SOL    HW250259   7.416  13.174  14.572
49474SOL     OW50260   8.879   4.850  12.678
49474SOL    HW150261   8.866   4.766  12.721
49474SOL    HW250262   8.939   4.832  12.605
49475SOL     OW50263  12.548   2.776   2.085
49475SOL    HW150264  12.621   2.833   2.062
49475SOL    HW250265  12.508   2.818   2.161
49476SOL     OW50266   0.843  10.978   0.141
49476SOL    HW150267   0.824  11.012   0.229
49476SOL    HW250268   0.782  11.025   0.084
49477SOL     OW50269  11.124   8.248  13.325
49477SOL    HW150270  11.139   8.179  13.390
49477SOL    HW250271  11.161   8.213  13.244
49478SOL     OW50272  10.694   5.961   4.897
49478SOL    HW150273  10.649   6.009   4.828
49478SOL    HW250274  10.625   5.940   4.961
49479SOL     OW50275   7.792  10.080  11.785
49479SOL    HW150276   7.855  10.143  11.819
49479SOL    HW250277   7.711  10.130  11.773
49480SOL     OW50278   5.528   7.962  10.238
49480SOL    HW150279   5.616   7.970  10.274
49480SOL    HW250280   5.471   7.994  10.308
49481SOL     OW50281  11.261  12.742  12.651
49481SOL    HW150282  11.225  12.753  12.738
49481SOL    HW250283  11.265  12.831  12.615
49482SOL     OW50284   9.743  14.793   5.572
49482SOL    HW150285   9.705  14.866   5.621
49482SOL    HW250286   9.768  14.831   5.488
49483SOL     OW50287   4.952  13.154   1.227
49483SOL    HW150288   4.961  13.152   1.131
49483SOL    HW250289   4.910  13.071   1.249
49484SOL     OW50290  13.706   9.855   6.108
49484SOL    HW150291  13.667   9.942   6.107
49484SOL    HW250292  13.639   9.798   6.070
49485SOL     OW50293   3.305  12.579   6.158
49485SOL    HW150294   3.340  12.490   6.152
49485SOL    HW250295   3.310  12.613   6.069
49486SOL     OW50296  14.377   6.438   8.036
49486SOL    HW150297  14.287   6.444   8.002
49486SOL    HW250298  14.374   6.479   8.122
49487SOL     OW50299   9.778  12.317   0.098
49487SOL    HW150300   9.709  12.376   0.067
49487SOL    HW250301   9.836  12.374   0.149
49488SOL     OW50302   1.732   8.664  13.111
49488SOL    HW150303   1.674   8.700  13.179
49488SOL    HW250304   1.813   8.643  13.157
49489SOL     OW50305   9.204   4.025   8.935
49489SOL    HW150306   9.110   4.013   8.922
49489SOL    HW250307   9.242   4.017   8.848
49490SOL     OW50308  13.766   8.566   1.245
49490SOL    HW150309  13.744   8.631   1.178
49490SOL    HW250310  13.818   8.615   1.309
49491SOL     OW50311   9.091   8.323  14.711
49491SOL    HW150312   9.055   8.406  14.681
49491SOL    HW250313   9.082   8.264  14.636
49492SOL     OW50314   0.645  10.133   2.410
49492SOL    HW150315   0.733  10.097   2.418
49492SOL    HW250316   0.590  10.058   2.388
49493SOL     OW50317   1.997  10.225   0.584
49493SOL    HW150318   1.915  10.177   0.574
49493SOL    HW250319   2.054  10.189   0.516
49494SOL     OW50320  10.319  12.819  12.200
49494SOL    HW150321  10.393  12.867  12.236
49494SOL    HW250322  10.357  12.762  12.134
49495SOL     OW50323   0.047  12.381   0.512
49495SOL    HW150324   0.077  12.393   0.422
49495SOL    HW250325   0.121  12.409   0.566
49496SOL     OW50326   8.557   7.079   5.694
49496SOL    HW150327   8.629   7.088   5.630
49496SOL    HW250328   8.571   7.152   5.754
49497SOL     OW50329   7.389   8.729  11.820
49497SOL    HW150330   7.353   8.667  11.757
49497SOL    HW250331   7.483   8.712  11.819
49498SOL     OW50332   3.503  12.424  13.320
49498SOL    HW150333   3.438  12.483  13.281
49498SOL    HW250334   3.451  12.361  13.369
49499SOL     OW50335  10.449   5.699   7.394
49499SOL    HW150336  10.467   5.612   7.358
49499SOL    HW250337  10.395   5.682   7.472
49500SOL     OW50338   9.025  11.676  11.640
49500SOL    HW150339   8.964  11.750  11.639
49500SOL    HW250340   9.069  11.680  11.555
49501SOL     OW50341   7.084   1.093   8.759
49501SOL    HW150342   7.174   1.111   8.786
49501SOL    HW250343   7.066   1.006   8.797
49502SOL     OW50344   9.144  12.289   8.178
49502SOL    HW150345   9.158  12.308   8.270
49502SOL    HW250346   9.064  12.236   8.177
49503SOL     OW50347   3.659   2.072   2.691
49503SOL    HW150348   3.634   1.981   2.674
49503SOL    HW250349   3.754   2.072   2.686
49504SOL     OW50350  13.008  12.910  10.383
49504SOL    HW150351  12.946  12.923  10.454
49504SOL    HW250352  13.003  12.992  10.332
49505SOL     OW50353   6.162  11.752   5.868
49505SOL    HW150354   6.256  11.759   5.885
49505SOL    HW250355   6.121  11.762   5.954
49506SOL     OW50356  12.046   5.179  12.326
49506SOL    HW150357  11.972   5.227  12.288
49506SOL    HW250358  12.084   5.132  12.251
49507SOL     OW50359   8.694   5.671   9.393
49507SOL    HW150360   8.760   5.628   9.448
49507SOL    HW250361   8.627   5.702   9.454
49508SOL     OW50362  12.337  11.910  13.316
49508SOL    HW150363  12.424  11.942  13.338
49508SOL    HW250364  12.277  11.977  13.348
49509SOL     OW50365   8.327  11.657  13.736
49509SOL    HW150366   8.415  11.629  13.759
49509SOL    HW250367   8.327  11.661  13.641
49510SOL     OW50368   6.645  10.815   5.846
49510SOL    HW150369   6.709  10.862   5.899
49510SOL    HW250370   6.612  10.746   5.903
49511SOL     OW50371  13.743   4.438  14.227
49511SOL    HW150372  13.725   4.388  14.147
49511SOL    HW250373  13.716   4.379  14.298
49512SOL     OW50374   1.564  11.281  10.148
49512SOL    HW150375   1.513  11.299  10.228
49512SOL    HW250376   1.600  11.193  10.162
49513SOL     OW50377  14.028  11.951   0.049
49513SOL    HW150378  14.037  12.010   0.124
49513SOL    HW250379  14.112  11.958   0.003
49514SOL     OW50380   2.898   2.776   6.828
49514SOL    HW150381   2.839   2.795   6.755
49514SOL    HW250382   2.878   2.843   6.894
49515SOL     OW50383   2.995  12.804   3.407
49515SOL    HW150384   3.056  12.795   3.480
49515SOL    HW250385   2.930  12.867   3.437
49516SOL     OW50386  10.806   0.909   8.040
49516SOL    HW150387  10.829   0.817   8.055
49516SOL    HW250388  10.889   0.956   8.047
49517SOL     OW50389   3.150  11.915   0.424
49517SOL    HW150390   3.175  11.961   0.344
49517SOL    HW250391   3.196  11.831   0.419
49518SOL     OW50392   9.995   3.515   7.194
49518SOL    HW150393   9.944   3.595   7.183
49518SOL    HW250394  10.019   3.514   7.287
49519SOL     OW50395   6.391  12.173   3.898
49519SOL    HW150396   6.314  12.174   3.841
49519SOL    HW250397   6.394  12.260   3.936
49520SOL     OW50398   7.960   4.141   2.678
49520SOL    HW150399   7.905   4.216   2.700
49520SOL    HW250400   7.963   4.141   2.582
49521SOL     OW50401   0.460   7.463  13.582
49521SOL    HW150402   0.512   7.541  13.561
49521SOL    HW250403   0.481   7.400  13.513
49522SOL     OW50404  10.395   2.977  12.330
49522SOL    HW150405  10.391   3.050  12.391
49522SOL    HW250406  10.434   3.015  12.251
49523SOL     OW50407   3.295   5.736  14.630
49523SOL    HW150408   3.219   5.718  14.574
49523SOL    HW250409   3.325   5.822  14.601
49524SOL     OW50410   0.441  10.556   3.782
49524SOL    HW150411   0.468  10.617   3.850
49524SOL    HW250412   0.518  10.501   3.766
49525SOL     OW50413   2.051   5.579   4.081
49525SOL    HW150414   2.105   5.534   4.016
49525SOL    HW250415   2.067   5.532   4.163
49526SOL     OW50416  10.981   7.412   6.477
49526SOL    HW150417  11.073   7.409   6.504
49526SOL    HW250418  10.977   7.484   6.414
49527SOL     OW50419   2.668  14.025   2.429
49527SOL    HW150420   2.590  14.049   2.478
49527SOL    HW250421   2.659  13.932   2.412
49528SOL     OW50422  13.293   2.348  13.506
49528SOL    HW150423  13.356   2.377  13.573
49528SOL    HW250424  13.339   2.280  13.458
49529SOL     OW50425  14.557   3.769   6.413
49529SOL    HW150426  14.541   3.765   6.507
49529SOL    HW250427  14.579   3.679   6.390
49530SOL     OW50428   6.286  12.487   9.177
49530SOL    HW150429   6.300  12.459   9.087
49530SOL    HW250430   6.339  12.426   9.229
49531SOL     OW50431   6.809   1.207   7.047
49531SOL    HW150432   6.778   1.144   7.112
49531SOL    HW250433   6.895   1.233   7.078
49532SOL     OW50434   8.760   1.586   7.035
49532SOL    HW150435   8.734   1.627   7.118
49532SOL    HW250436   8.809   1.655   6.989
49533SOL     OW50437   1.351   7.453  12.041
49533SOL    HW150438   1.289   7.392  12.002
49533SOL    HW250439   1.431   7.402  12.052
49534SOL     OW50440   1.205  12.428  12.576
49534SOL    HW150441   1.135  12.444  12.513
49534SOL    HW250442   1.162  12.383  12.649
49535SOL     OW50443  14.425   1.530   9.915
49535SOL    HW150444  14.460   1.475   9.845
49535SOL    HW250445  14.379   1.601   9.870
49536SOL     OW50446   2.011   4.322   4.266
49536SOL    HW150447   2.031   4.319   4.359
49536SOL    HW250448   2.097   4.322   4.223
49537SOL     OW50449  14.461  10.061  14.043
49537SOL    HW150450  14.395  10.037  14.108
49537SOL    HW250451  14.411  10.088  13.966
49538SOL     OW50452  14.627   3.212   1.502
49538SOL    HW150453  14.538   3.178   1.506
49538SOL    HW250454  14.662   3.177   1.420
49539SOL     OW50455  10.588   9.997   1.190
49539SOL    HW150456  10.660  10.037   1.237
49539SOL    HW250457  10.610   9.904   1.186
49540SOL     OW50458  11.985  11.982   1.784
49540SOL    HW150459  12.046  12.047   1.818
49540SOL    HW250460  11.948  11.941   1.862
49541SOL     OW50461   7.057   0.576  10.428
49541SOL    HW150462   7.149   0.601  10.441
49541SOL    HW250463   7.015   0.656  10.397
49542SOL     OW50464  10.906  13.346   7.515
49542SOL    HW150465  10.842  13.298   7.461
49542SOL    HW250466  10.980  13.286   7.523
49543SOL     OW50467   5.576  14.064  14.274
49543SOL    HW150468   5.620  14.097  14.353
49543SOL    HW250469   5.632  13.993  14.244
49544SOL     OW50470   2.374   8.888   8.641
49544SOL    HW150471   2.427   8.814   8.613
49544SOL    HW250472   2.368   8.879   8.737
49545SOL     OW50473   4.358   7.166  11.933
49545SOL    HW150474   4.378   7.207  11.849
49545SOL    HW250475   4.297   7.095  11.911
49546SOL     OW50476   4.110  14.626  13.854
49546SOL    HW150477   4.022  14.638  13.820
49546SOL    HW250478   4.102  14.642  13.948
49547SOL     OW50479  10.827   3.629   5.038
49547SOL    HW150480  10.767   3.586   4.977
49547SOL    HW250481  10.825   3.721   5.011
49548SOL     OW50482   0.152  10.468   6.971
49548SOL    HW150483   0.184  10.548   6.931
49548SOL    HW250484   0.196  10.397   6.924
49549SOL     OW50485   0.498  10.725  12.961
49549SOL    HW150486   0.577  10.715  13.015
49549SOL    HW250487   0.481  10.638  12.926
49550SOL     OW50488  11.902   2.995   9.622
49550SOL    HW150489  11.924   2.916   9.573
49550SOL    HW250490  11.851   3.048   9.561
49551SOL     OW50491  11.875   3.519  13.874
49551SOL    HW150492  11.888   3.424  13.881
49551SOL    HW250493  11.817   3.531  13.799
49552SOL     OW50494   5.208   0.380   3.338
49552SOL    HW150495   5.173   0.450   3.392
49552SOL    HW250496   5.134   0.351   3.285
49553SOL     OW50497  12.449   7.542   4.837
49553SOL    HW150498  12.478   7.604   4.769
49553SOL    HW250499  12.471   7.585   4.919
49554SOL     OW50500  12.422  13.512  13.638
49554SOL    HW150501  12.505  13.498  13.683
49554SOL    HW250502  12.443  13.509  13.545
49555SOL     OW50503   6.643   1.382  12.206
49555SOL    HW150504   6.731   1.419  12.209
49555SOL    HW250505   6.591   1.438  12.263
49556SOL     OW50506  11.396   6.357   4.872
49556SOL    HW150507  11.317   6.364   4.820
49556SOL    HW250508  11.411   6.446   4.905
49557SOL     OW50509   9.745   1.779  13.251
49557SOL    HW150510   9.678   1.712  13.237
49557SOL    HW250511   9.764   1.777  13.344
49558SOL     OW50512   0.502  12.513  10.810
49558SOL    HW150513   0.407  12.511  10.793
49558SOL    HW250514   0.512  12.569  10.886
49559SOL     OW50515  12.211   2.881  10.746
49559SOL    HW150516  12.278   2.942  10.776
49559SOL    HW250517  12.260   2.810  10.703
49560SOL     OW50518   0.212   8.568  11.242
49560SOL    HW150519   0.229   8.482  11.204
49560SOL    HW250520   0.176   8.619  11.169
49561SOL     OW50521   2.356   0.960  11.382
49561SOL    HW150522   2.405   0.880  11.400
49561SOL    HW250523   2.270   0.945  11.420
49562SOL     OW50524   7.778   3.709   2.236
49562SOL    HW150525   7.811   3.793   2.205
49562SOL    HW250526   7.850   3.648   2.222
49563SOL     OW50527   1.227   7.528   2.474
49563SOL    HW150528   1.194   7.597   2.417
49563SOL    HW250529   1.268   7.465   2.415
49564SOL     OW50530   6.654   6.785  10.416
49564SOL    HW150531   6.614   6.706  10.379
49564SOL    HW250532   6.582   6.846  10.426
49565SOL     OW50533  11.549   9.474   0.669
49565SOL    HW150534  11.569   9.528   0.593
49565SOL    HW250535  11.487   9.408   0.637
49566SOL     OW50536   0.768   9.403   8.689
49566SOL    HW150537   0.779   9.488   8.645
49566SOL    HW250538   0.779   9.339   8.619
49567SOL     OW50539   5.679   0.385  12.097
49567SOL    HW150540   5.712   0.296  12.088
49567SOL    HW250541   5.586   0.379  12.073
49568SOL     OW50542   8.795   7.041   0.776
49568SOL    HW150543   8.862   7.002   0.833
49568SOL    HW250544   8.733   7.082   0.837
49569SOL     OW50545   1.272  12.580   5.240
49569SOL    HW150546   1.246  12.495   5.276
49569SOL    HW250547   1.247  12.575   5.147
49570SOL     OW50548   5.603  13.938   7.808
49570SOL    HW150549   5.663  13.958   7.880
49570SOL    HW250550   5.518  13.924   7.851
49571SOL     OW50551   5.138  13.666   1.421
49571SOL    HW150552   5.127  13.572   1.433
49571SOL    HW250553   5.129  13.703   1.509
49572SOL     OW50554   9.191  11.680  10.001
49572SOL    HW150555   9.205  11.661  10.093
49572SOL    HW250556   9.272  11.652   9.958
49573SOL     OW50557   3.933   0.730   1.923
49573SOL    HW150558   4.002   0.749   1.859
49573SOL    HW250559   3.884   0.658   1.884
49574SOL     OW50560   9.741  12.180   9.520
49574SOL    HW150561   9.770  12.188   9.611
49574SOL    HW250562   9.813  12.137   9.475
49575SOL     OW50563  12.278   3.877   6.977
49575SOL    HW150564  12.223   3.951   7.003
49575SOL    HW250565  12.317   3.905   6.894
49576SOL     OW50566   5.505  14.302   7.866
49576SOL    HW150567   5.467  14.385   7.835
49576SOL    HW250568   5.583  14.328   7.914
49577SOL     OW50569   7.433   4.675  11.607
49577SOL    HW150570   7.403   4.710  11.691
49577SOL    HW250571   7.513   4.725  11.587
49578SOL     OW50572   9.651   5.879   2.230
49578SOL    HW150573   9.731   5.896   2.180
49578SOL    HW250574   9.678   5.882   2.322
49579SOL     OW50575   2.900  13.003   9.918
49579SOL    HW150576   2.983  12.963   9.946
49579SOL    HW250577   2.848  13.009   9.998
49580SOL     OW50578   8.162  12.732   5.623
49580SOL    HW150579   8.224  12.669   5.659
49580SOL    HW250580   8.215  12.787   5.565
49581SOL     OW50581   9.953   2.123   5.648
49581SOL    HW150582   9.954   2.215   5.676
49581SOL    HW250583   9.976   2.127   5.555
49582SOL     OW50584   7.760   6.632   3.985
49582SOL    HW150585   7.848   6.669   3.990
49582SOL    HW250586   7.731   6.626   4.076
49583SOL     OW50587   3.355   1.315   2.693
49583SOL    HW150588   3.359   1.236   2.641
49583SOL    HW250589   3.328   1.384   2.632
49584SOL     OW50590  12.774   2.910  12.753
49584SOL    HW150591  12.746   2.819  12.765
49584SOL    HW250592  12.700   2.962  12.784
49585SOL     OW50593   9.690  14.749  11.861
49585SOL    HW150594   9.785  14.752  11.850
49585SOL    HW250595   9.673  14.665  11.903
49586SOL     OW50596   4.340  11.516   3.361
49586SOL    HW150597   4.417  11.477   3.319
49586SOL    HW250598   4.279  11.443   3.370
49587SOL     OW50599   6.707   3.357   5.951
49587SOL    HW150600   6.717   3.368   5.857
49587SOL    HW250601   6.725   3.265   5.968
49588SOL     OW50602  12.935   1.155   5.415
49588SOL    HW150603  12.993   1.190   5.483
49588SOL    HW250604  12.847   1.171   5.448
49589SOL     OW50605  12.187  10.043   7.540
49589SOL    HW150606  12.265  10.023   7.592
49589SOL    HW250607  12.162  10.131   7.568
49590SOL     OW50608  12.262   6.405  12.236
49590SOL    HW150609  12.263   6.381  12.329
49590SOL    HW250610  12.228   6.494  12.234
49591SOL     OW50611   5.324   2.033   8.297
49591SOL    HW150612   5.383   2.074   8.234
49591SOL    HW250613   5.372   2.034   8.379
49592SOL     OW50614   3.605   8.920   5.102
49592SOL    HW150615   3.599   9.014   5.089
49592SOL    HW250616   3.681   8.893   5.050
49593SOL     OW50617   8.399  11.423   5.530
49593SOL    HW150618   8.442  11.369   5.596
49593SOL    HW250619   8.385  11.507   5.573
49594SOL     OW50620   9.673  11.855   9.067
49594SOL    HW150621   9.697  11.796   8.996
49594SOL    HW250622   9.709  11.940   9.040
49595SOL     OW50623   0.397   7.890   7.510
49595SOL    HW150624   0.370   7.924   7.596
49595SOL    HW250625   0.365   7.954   7.447
49596SOL     OW50626  14.594   9.174   4.019
49596SOL    HW150627  14.669   9.202   4.071
49596SOL    HW250628  14.629   9.165   3.930
49597SOL     OW50629   8.688   1.333   8.923
49597SOL    HW150630   8.661   1.313   8.834
49597SOL    HW250631   8.783   1.345   8.917
49598SOL     OW50632   0.898  14.672   9.955
49598SOL    HW150633   0.806  14.698   9.942
49598SOL    HW250634   0.928  14.649   9.867
49599SOL     OW50635  13.016   5.855  12.906
49599SOL    HW150636  12.986   5.796  12.836
49599SOL    HW250637  13.048   5.796  12.974
49600SOL     OW50638   0.715   1.296   3.299
49600SOL    HW150639   0.810   1.310   3.294
49600SOL    HW250640   0.703   1.207   3.267
49601SOL     OW50641   5.732  14.639  11.176
49601SOL    HW150642   5.673  14.608  11.108
49601SOL    HW250643   5.692  14.610  11.258
49602SOL     OW50644  14.251  11.146  13.778
49602SOL    HW150645  14.279  11.091  13.852
49602SOL    HW250646  14.238  11.233  13.817
49603SOL     OW50647  14.104   3.147   9.724
49603SOL    HW150648  14.079   3.190   9.806
49603SOL    HW250649  14.117   3.218   9.662
49604SOL     OW50650   3.957   0.365  12.914
49604SOL    HW150651   3.953   0.272  12.938
49604SOL    HW250652   4.008   0.406  12.985
49605SOL     OW50653  10.595   8.282  10.832
49605SOL    HW150654  10.637   8.338  10.897
49605SOL    HW250655  10.505   8.272  10.864
49606SOL     OW50656   4.078   0.664   5.624
49606SOL    HW150657   4.057   0.751   5.657
49606SOL    HW250658   4.100   0.613   5.702
49607SOL     OW50659  13.838   2.337  14.215
49607SOL    HW150660  13.899   2.348  14.142
49607SOL    HW250661  13.758   2.381  14.185
49608SOL     OW50662   8.010   1.385   5.829
49608SOL    HW150663   8.000   1.381   5.734
49608SOL    HW250664   7.958   1.312   5.862
49609SOL     OW50665   4.095   3.102   3.575
49609SOL    HW150666   4.032   3.057   3.631
49609SOL    HW250667   4.124   3.036   3.512
49610SOL     OW50668   0.125   5.167   5.428
49610SOL    HW150669   0.209   5.199   5.395
49610SOL    HW250670   0.133   5.071   5.424
49611SOL     OW50671   1.841   6.643  12.651
49611SOL    HW150672   1.813   6.570  12.706
49611SOL    HW250673   1.911   6.607  12.597
49612SOL     OW50674   6.280  14.625   9.904
49612SOL    HW150675   6.198  14.655   9.943
49612SOL    HW250676   6.254  14.574   9.828
49613SOL     OW50677  10.533   2.845  11.299
49613SOL    HW150678  10.568   2.885  11.220
49613SOL    HW250679  10.604   2.852  11.363
49614SOL     OW50680   2.269  12.921   7.236
49614SOL    HW150681   2.260  12.873   7.318
49614SOL    HW250682   2.358  12.900   7.206
49615SOL     OW50683   3.427  11.694  11.306
49615SOL    HW150684   3.395  11.709  11.217
49615SOL    HW250685   3.357  11.729  11.362
49616SOL     OW50686   7.415  14.445  14.384
49616SOL    HW150687   7.390  14.536  14.403
49616SOL    HW250688   7.506  14.451  14.354
49617SOL     OW50689   7.420   3.754   8.241
49617SOL    HW150690   7.385   3.763   8.152
49617SOL    HW250691   7.502   3.803   8.239
49618SOL     OW50692   4.453   8.308   8.741
49618SOL    HW150693   4.501   8.227   8.725
49618SOL    HW250694   4.451   8.316   8.837
49619SOL     OW50695  12.658   3.213  11.827
49619SOL    HW150696  12.733   3.185  11.774
49619SOL    HW250697  12.590   3.148  11.808
49620SOL     OW50698   6.207   8.024   7.795
49620SOL    HW150699   6.236   8.027   7.704
49620SOL    HW250700   6.112   8.032   7.790
49621SOL     OW50701   8.237  12.280   3.382
49621SOL    HW150702   8.245  12.187   3.359
49621SOL    HW250703   8.297  12.324   3.322
49622SOL     OW50704   6.191  14.573   1.329
49622SOL    HW150705   6.219  14.571   1.420
49622SOL    HW250706   6.172  14.482   1.307
49623SOL     OW50707   9.955  11.044  10.954
49623SOL    HW150708   9.989  10.987  10.886
49623SOL    HW250709  10.028  11.102  10.976
49624SOL     OW50710   8.998   2.559   8.113
49624SOL    HW150711   9.013   2.631   8.052
49624SOL    HW250712   8.911   2.574   8.147
49625SOL     OW50713   2.252   9.789  14.812
49625SOL    HW150714   2.296   9.862  14.856
49625SOL    HW250715   2.318   9.719  14.811
49626SOL     OW50716   7.336   0.069  10.301
49626SOL    HW150717   7.325   0.164  10.308
49626SOL    HW250718   7.430   0.056  10.289
49627SOL     OW50719   1.757   3.959   3.682
49627SOL    HW150720   1.750   3.892   3.614
49627SOL    HW250721   1.808   4.029   3.641
49628SOL     OW50722  13.218  11.816   1.506
49628SOL    HW150723  13.143  11.761   1.482
49628SOL    HW250724  13.234  11.795   1.598
49629SOL     OW50725   9.725   0.074   2.702
49629SOL    HW150726   9.784  14.872   2.712
49629SOL    HW250727   9.766   0.126   2.632
49630SOL     OW50728  13.957   8.005  14.838
49630SOL    HW150729  14.000   7.989  14.754
49630SOL    HW250730  13.952   7.919   0.007
49631SOL     OW50731   3.222   8.740  12.594
49631SOL    HW150732   3.258   8.786  12.669
49631SOL    HW250733   3.136   8.710  12.623
49632SOL     OW50734  10.995   6.263   1.430
49632SOL    HW150735  10.940   6.200   1.475
49632SOL    HW250736  11.062   6.210   1.388
49633SOL     OW50737   9.468   1.723  12.622
49633SOL    HW150738   9.500   1.712  12.532
49633SOL    HW250739   9.376   1.746  12.612
49634SOL     OW50740  13.181  11.660  14.670
49634SOL    HW150741  13.263  11.709  14.664
49634SOL    HW250742  13.182  11.623  14.758
49635SOL     OW50743   9.561   9.664   6.711
49635SOL    HW150744   9.478   9.693   6.750
49635SOL    HW250745   9.572   9.722   6.635
49636SOL     OW50746  10.386   4.300   6.826
49636SOL    HW150747  10.461   4.306   6.768
49636SOL    HW250748  10.341   4.384   6.816
49637SOL     OW50749   1.945   5.374  12.883
49637SOL    HW150750   2.037   5.393  12.864
49637SOL    HW250751   1.919   5.313  12.814
49638SOL     OW50752   7.791   5.686  14.010
49638SOL    HW150753   7.843   5.607  14.024
49638SOL    HW250754   7.701   5.659  14.030
49639SOL     OW50755   4.746   8.418   9.607
49639SOL    HW150756   4.743   8.497   9.662
49639SOL    HW250757   4.738   8.451   9.518
49640SOL     OW50758   0.420  14.267   8.140
49640SOL    HW150759   0.447  14.314   8.219
49640SOL    HW250760   0.337  14.226   8.163
49641SOL     OW50761   4.789   8.909   0.550
49641SOL    HW150762   4.732   8.891   0.624
49641SOL    HW250763   4.857   8.842   0.555
49642SOL     OW50764   6.926   7.895   3.202
49642SOL    HW150765   6.877   7.836   3.260
49642SOL    HW250766   6.927   7.979   3.248
49643SOL     OW50767   6.953   9.664   8.285
49643SOL    HW150768   7.008   9.679   8.361
49643SOL    HW250769   6.864   9.653   8.321
49644SOL     OW50770   2.055   3.979   9.796
49644SOL    HW150771   2.029   3.926   9.720
49644SOL    HW250772   1.973   4.017   9.828
49645SOL     OW50773  14.409   6.643   0.859
49645SOL    HW150774  14.354   6.665   0.784
49645SOL    HW250775  14.350   6.653   0.934
49646SOL     OW50776   2.623   0.928   5.245
49646SOL    HW150777   2.678   0.855   5.219
49646SOL    HW250778   2.534   0.898   5.227
49647SOL     OW50779   1.305   8.629   2.838
49647SOL    HW150780   1.270   8.622   2.749
49647SOL    HW250781   1.388   8.675   2.828
49648SOL     OW50782  13.929   0.747   7.723
49648SOL    HW150783  14.008   0.696   7.742
49648SOL    HW250784  13.960   0.837   7.714
49649SOL     OW50785   8.459   7.749  11.553
49649SOL    HW150786   8.448   7.838  11.519
49649SOL    HW250787   8.546   7.749  11.592
49650SOL     OW50788   1.463   6.809   4.767
49650SOL    HW150789   1.538   6.831   4.712
49650SOL    HW250790   1.417   6.740   4.718
49651SOL     OW50791   5.040   0.691  14.543
49651SOL    HW150792   5.092   0.766  14.512
49651SOL    HW250793   5.088   0.661  14.621
49652SOL     OW50794  11.265   5.821   3.734
49652SOL    HW150795  11.217   5.786   3.659
49652SOL    HW250796  11.356   5.824   3.704
49653SOL     OW50797   3.740  11.738   5.107
49653SOL    HW150798   3.671  11.677   5.129
49653SOL    HW250799   3.766  11.714   5.018
49654SOL     OW50800  11.678  11.637   9.286
49654SOL    HW150801  11.674  11.724   9.246
49654SOL    HW250802  11.701  11.578   9.213
49655SOL     OW50803   8.708   9.222  10.300
49655SOL    HW150804   8.668   9.169  10.231
49655SOL    HW250805   8.654   9.205  10.377
49656SOL     OW50806   8.845   4.454   9.474
49656SOL    HW150807   8.923   4.439   9.527
49656SOL    HW250808   8.803   4.368   9.467
49657SOL     OW50809   7.748   6.802   0.170
49657SOL    HW150810   7.770   6.733   0.107
49657SOL    HW250811   7.675   6.849   0.130
49658SOL     OW50812  10.544   7.525   1.670
49658SOL    HW150813  10.608   7.570   1.614
49658SOL    HW250814  10.530   7.441   1.626
49659SOL     OW50815  13.943  11.231  13.924
49659SOL    HW150816  13.998  11.169  13.971
49659SOL    HW250817  13.904  11.180  13.853
49660SOL     OW50818   1.503   7.938   3.107
49660SOL    HW150819   1.493   7.992   3.185
49660SOL    HW250820   1.517   8.000   3.036
49661SOL     OW50821   4.905  10.776   3.900
49661SOL    HW150822   4.847  10.808   3.969
49661SOL    HW250823   4.870  10.815   3.819
49662SOL     OW50824   8.762   8.502   5.981
49662SOL    HW150825   8.747   8.423   5.929
49662SOL    HW250826   8.844   8.538   5.947
49663SOL     OW50827  14.057  10.027   8.833
49663SOL    HW150828  14.086  10.115   8.858
49663SOL    HW250829  14.034  10.035   8.740
49664SOL     OW50830   3.367   6.306  11.519
49664SOL    HW150831   3.304   6.305  11.591
49664SOL    HW250832   3.440   6.357  11.552
49665SOL     OW50833   6.753   1.939  14.823
49665SOL    HW150834   6.739   2.033  14.818
49665SOL    HW250835   6.736   1.917   0.042
49666SOL     OW50836   9.509  13.140  10.303
49666SOL    HW150837   9.429  13.108  10.346
49666SOL    HW250838   9.488  13.142  10.210
49667SOL     OW50839  14.169   3.533  13.775
49667SOL    HW150840  14.117   3.493  13.845
49667SOL    HW250841  14.258   3.502  13.791
49668SOL     OW50842   0.857   3.870   7.062
49668SOL    HW150843   0.893   3.947   7.018
49668SOL    HW250844   0.765   3.892   7.078
49669SOL     OW50845  10.738   4.025   2.701
49669SOL    HW150846  10.792   4.056   2.774
49669SOL    HW250847  10.739   4.096   2.638
49670SOL     OW50848   3.963  10.062   0.244
49670SOL    HW150849   4.002  10.089   0.161
49670SOL    HW250850   3.984   9.969   0.252
49671SOL     OW50851   0.369   2.980   5.783
49671SOL    HW150852   0.438   2.927   5.821
49671SOL    HW250853   0.359   2.946   5.694
49672SOL     OW50854  12.221  14.467  11.768
49672SOL    HW150855  12.251  14.378  11.786
49672SOL    HW250856  12.193  14.464  11.676
49673SOL     OW50857   2.368   6.758   6.979
49673SOL    HW150858   2.313   6.802   6.914
49673SOL    HW250859   2.346   6.800   7.062
49674SOL     OW50860  10.765   3.825   2.374
49674SOL    HW150861  10.686   3.779   2.403
49674SOL    HW250862  10.831   3.804   2.440
49675SOL     OW50863   5.012   3.291  14.590
49675SOL    HW150864   5.101   3.299  14.555
49675SOL    HW250865   5.016   3.336  14.675
49676SOL     OW50866  12.935   1.943   0.679
49676SOL    HW150867  12.949   1.978   0.767
49676SOL    HW250868  12.840   1.950   0.666
49677SOL     OW50869   5.301  13.285  11.384
49677SOL    HW150870   5.346  13.263  11.302
49677SOL    HW250871   5.211  13.303  11.357
49678SOL     OW50872   3.248   2.120  11.712
49678SOL    HW150873   3.276   2.101  11.622
49678SOL    HW250874   3.324   2.164  11.751
49679SOL     OW50875   2.520  13.859  14.044
49679SOL    HW150876   2.454  13.892  13.982
49679SOL    HW250877   2.479  13.781  14.082
49680SOL     OW50878  13.066   6.697   6.731
49680SOL    HW150879  13.048   6.604   6.719
49680SOL    HW250880  12.980   6.739   6.726
49681SOL     OW50881   7.608  11.754   5.084
49681SOL    HW150882   7.610  11.703   5.165
49681SOL    HW250883   7.700  11.764   5.059
49682SOL     OW50884  10.308   6.863   2.301
49682SOL    HW150885  10.389   6.862   2.250
49682SOL    HW250886  10.323   6.928   2.369
49683SOL     OW50887   5.034  10.655  14.167
49683SOL    HW150888   5.059  10.597  14.095
49683SOL    HW250889   4.989  10.598  14.230
49684SOL     OW50890  13.083  14.407   7.148
49684SOL    HW150891  12.990  14.420   7.127
49684SOL    HW250892  13.127  14.481   7.108
49685SOL     OW50893  14.073  11.126  10.695
49685SOL    HW150894  14.067  11.081  10.779
49685SOL    HW250895  14.001  11.089  10.643
49686SOL     OW50896   6.870   9.212  11.317
49686SOL    HW150897   6.924   9.278  11.361
49686SOL    HW250898   6.830   9.258  11.244
49687SOL     OW50899   0.702  10.416   4.592
49687SOL    HW150900   0.739  10.396   4.677
49687SOL    HW250901   0.677  10.331   4.555
49688SOL     OW50902   6.222  12.857  10.110
49688SOL    HW150903   6.159  12.900  10.169
49688SOL    HW250904   6.167  12.806  10.050
49689SOL     OW50905   1.936   5.401   8.410
49689SOL    HW150906   1.920   5.314   8.373
49689SOL    HW250907   2.027   5.399   8.438
49690SOL     OW50908   3.060  13.293   4.106
49690SOL    HW150909   3.006  13.292   4.185
49690SOL    HW250910   3.128  13.357   4.124
49691SOL     OW50911   3.317   1.792   6.647
49691SOL    HW150912   3.295   1.780   6.739
49691SOL    HW250913   3.248   1.745   6.600
49692SOL     OW50914   7.309  12.700  13.301
49692SOL    HW150915   7.361  12.621  13.315
49692SOL    HW250916   7.366  12.772  13.330
49693SOL     OW50917   3.513   1.076   4.216
49693SOL    HW150918   3.498   1.127   4.296
49693SOL    HW250919   3.522   0.986   4.246
49694SOL     OW50920   0.225  11.530  10.993
49694SOL    HW150921   0.230  11.445  10.949
49694SOL    HW250922   0.265  11.591  10.931
49695SOL     OW50923   4.593  13.421   6.057
49695SOL    HW150924   4.636  13.346   6.099
49695SOL    HW250925   4.500  13.405   6.068
49696SOL     OW50926  14.552  10.036   9.750
49696SOL    HW150927  14.572  10.130   9.751
49696SOL    HW250928  14.480  10.028   9.688
49697SOL     OW50929   2.429   2.564   4.545
49697SOL    HW150930   2.432   2.469   4.538
49697SOL    HW250931   2.389   2.593   4.463
49698SOL     OW50932  10.186   6.291   9.580
49698SOL    HW150933  10.135   6.371   9.566
49698SOL    HW250934  10.234   6.307   9.661
49699SOL     OW50935   1.621   9.506   6.133
49699SOL    HW150936   1.584   9.497   6.221
49699SOL    HW250937   1.667   9.423   6.118
49700SOL     OW50938  14.851   9.636   3.500
49700SOL    HW150939  14.792   9.679   3.562
49700SOL    HW250940  14.808   9.552   3.481
49701SOL     OW50941  12.807   2.293   4.041
49701SOL    HW150942  12.878   2.247   3.998
49701SOL    HW250943  12.765   2.226   4.095
49702SOL     OW50944  13.253   3.536   6.195
49702SOL    HW150945  13.289   3.448   6.192
49702SOL    HW250946  13.159   3.525   6.179
49703SOL     OW50947  10.282   9.089   4.541
49703SOL    HW150948  10.267   9.172   4.496
49703SOL    HW250949  10.312   9.029   4.472
49704SOL     OW50950   7.821   6.142  13.773
49704SOL    HW150951   7.743   6.089  13.789
49704SOL    HW250952   7.791   6.210  13.713
49705SOL     OW50953   5.371  13.652   8.255
49705SOL    HW150954   5.407  13.741   8.258
49705SOL    HW250955   5.312  13.648   8.330
49706SOL     OW50956   5.589   9.236   1.388
49706SOL    HW150957   5.599   9.315   1.441
49706SOL    HW250958   5.547   9.172   1.446
49707SOL     OW50959  11.480   3.825   7.511
49707SOL    HW150960  11.446   3.766   7.579
49707SOL    HW250961  11.403   3.849   7.460
49708SOL     OW50962   1.775  14.339   2.066
49708SOL    HW150963   1.716  14.413   2.079
49708SOL    HW250964   1.827  14.335   2.146
49709SOL     OW50965  10.461   0.785   4.718
49709SOL    HW150966  10.480   0.845   4.790
49709SOL    HW250967  10.373   0.752   4.737
49710SOL     OW50968   6.132   8.893   5.559
49710SOL    HW150969   6.059   8.934   5.513
49710SOL    HW250970   6.110   8.902   5.652
49711SOL     OW50971   9.452   5.673   5.994
49711SOL    HW150972   9.405   5.678   5.911
49711SOL    HW250973   9.513   5.600   5.983
49712SOL     OW50974   5.760  12.728   4.852
49712SOL    HW150975   5.818  12.653   4.863
49712SOL    HW250976   5.780  12.761   4.764
49713SOL     OW50977   0.266   0.503   3.000
49713SOL    HW150978   0.229   0.513   2.913
49713SOL    HW250979   0.288   0.410   3.007
49714SOL     OW50980  10.234  13.743   9.366
49714SOL    HW150981  10.322  13.710   9.384
49714SOL    HW250982  10.228  13.742   9.270
49715SOL     OW50983  14.828   8.988  12.317
49715SOL    HW150984  14.812   9.062  12.377
49715SOL    HW250985  14.742   8.969  12.279
49716SOL     OW50986  10.759   9.042   1.641
49716SOL    HW150987  10.765   8.953   1.605
49716SOL    HW250988  10.810   9.096   1.581
49717SOL     OW50989   4.726   8.413  14.150
49717SOL    HW150990   4.647   8.363  14.131
49717SOL    HW250991   4.744   8.396  14.243
49718SOL     OW50992  10.276   4.539   0.917
49718SOL    HW150993  10.235   4.600   0.980
49718SOL    HW250994  10.340   4.593   0.870
49719SOL     OW50995  13.133  10.279   5.113
49719SOL    HW150996  13.101  10.202   5.159
49719SOL    HW250997  13.209  10.308   5.163
49720SOL     OW50998   8.982   3.205   0.785
49720SOL    HW150999   8.968   3.206   0.690
49720SOL    HW251000   9.075   3.223   0.795
49721SOL     OW51001  14.351  11.783   4.841
49721SOL    HW151002  14.298  11.710   4.873
49721SOL    HW251003  14.319  11.798   4.752
49722SOL     OW51004   8.526  11.369   0.157
49722SOL    HW151005   8.469  11.332   0.089
49722SOL    HW251006   8.589  11.422   0.109
49723SOL     OW51007  14.038   3.177  11.294
49723SOL    HW151008  13.999   3.091  11.315
49723SOL    HW251009  14.050   3.175  11.199
49724SOL     OW51010   6.719  11.443   9.799
49724SOL    HW151011   6.765  11.450   9.715
49724SOL    HW251012   6.734  11.353   9.827
49725SOL     OW51013   2.216  10.928   9.368
49725SOL    HW151014   2.251  10.909   9.281
49725SOL    HW251015   2.165  11.009   9.356
49726SOL     OW51016   2.902  12.118  10.738
49726SOL    HW151017   2.949  12.182  10.792
49726SOL    HW251018   2.971  12.073  10.689
49727SOL     OW51019  10.270  12.041  12.354
49727SOL    HW151020  10.222  12.119  12.327
49727SOL    HW251021  10.240  12.025  12.444
49728SOL     OW51022   6.003   8.670   5.449
49728SOL    HW151023   6.075   8.719   5.490
49728SOL    HW251024   5.991   8.712   5.364
49729SOL     OW51025   2.056   7.195   5.561
49729SOL    HW151026   2.073   7.238   5.477
49729SOL    HW251027   2.141   7.194   5.605
49730SOL     OW51028   2.829   6.870   6.488
49730SOL    HW151029   2.850   6.913   6.571
49730SOL    HW251030   2.826   6.942   6.424
49731SOL     OW51031  13.979   9.020   2.068
49731SOL    HW151032  13.927   9.035   2.147
49731SOL    HW251033  13.916   8.986   2.004
49732SOL     OW51034   9.900   0.998   5.493
49732SOL    HW151035   9.821   0.945   5.500
49732SOL    HW251036   9.917   1.003   5.399
49733SOL     OW51037   2.041   2.284   6.831
49733SOL    HW151038   2.087   2.265   6.750
49733SOL    HW251039   2.108   2.316   6.890
49734SOL     OW51040   4.722   5.179   3.827
49734SOL    HW151041   4.708   5.135   3.743
49734SOL    HW251042   4.785   5.249   3.808
49735SOL     OW51043  10.445   9.576   1.926
49735SOL    HW151044  10.515   9.534   1.876
49735SOL    HW251045  10.364   9.541   1.888
49736SOL     OW51046  14.237   8.640   7.538
49736SOL    HW151047  14.292   8.713   7.509
49736SOL    HW251048  14.211   8.596   7.456
49737SOL     OW51049   4.250  13.339  10.840
49737SOL    HW151050   4.220  13.342  10.750
49737SOL    HW251051   4.343  13.363  10.835
49738SOL     OW51052   5.259   4.547   8.688
49738SOL    HW151053   5.244   4.501   8.606
49738SOL    HW251054   5.292   4.480   8.748
49739SOL     OW51055   1.313   1.582   9.492
49739SOL    HW151056   1.259   1.503   9.501
49739SOL    HW251057   1.399   1.556   9.527
49740SOL     OW51058   7.224   7.088   7.072
49740SOL    HW151059   7.134   7.064   7.092
49740SOL    HW251060   7.257   7.127   7.153
49741SOL     OW51061   5.877   1.297   1.519
49741SOL    HW151062   5.817   1.267   1.588
49741SOL    HW251063   5.838   1.264   1.438
49742SOL     OW51064   0.080   1.667  12.150
49742SOL    HW151065   0.095   1.572  12.153
49742SOL    HW251066   0.006   1.681  12.209
49743SOL     OW51067   4.746   3.412   9.975
49743SOL    HW151068   4.683   3.482   9.957
49743SOL    HW251069   4.831   3.452   9.960
49744SOL     OW51070   1.965  10.608  12.304
49744SOL    HW151071   1.929  10.527  12.340
49744SOL    HW251072   1.919  10.620  12.221
49745SOL     OW51073   8.737   2.157   4.563
49745SOL    HW151074   8.748   2.096   4.491
49745SOL    HW251075   8.821   2.155   4.610
49746SOL     OW51076   6.585  11.665   7.914
49746SOL    HW151077   6.611  11.680   7.823
49746SOL    HW251078   6.650  11.713   7.966
49747SOL     OW51079  11.529  12.813   9.299
49747SOL    HW151080  11.507  12.879   9.365
49747SOL    HW251081  11.486  12.845   9.219
49748SOL     OW51082   3.000   8.737   3.931
49748SOL    HW151083   2.934   8.675   3.961
49748SOL    HW251084   2.950   8.808   3.891
49749SOL     OW51085   7.090   5.404   9.679
49749SOL    HW151086   7.088   5.364   9.766
49749SOL    HW251087   7.106   5.497   9.696
49750SOL     OW51088  11.594  12.948  14.325
49750SOL    HW151089  11.514  12.985  14.362
49750SOL    HW251090  11.565  12.891  14.255
49751SOL     OW51091   6.809   5.843  10.600
49751SOL    HW151092   6.748   5.802  10.539
49751SOL    HW251093   6.753   5.878  10.670
49752SOL     OW51094   3.537   3.950  10.119
49752SOL    HW151095   3.503   3.865  10.147
49752SOL    HW251096   3.626   3.932  10.088
49753SOL     OW51097   3.825   4.474   6.266
49753SOL    HW151098   3.908   4.503   6.304
49753SOL    HW251099   3.778   4.555   6.247
49754SOL     OW51100  13.999   2.905   4.408
49754SOL    HW151101  13.917   2.912   4.359
49754SOL    HW251102  13.983   2.956   4.488
49755SOL     OW51103  13.205  13.140   0.885
49755SOL    HW151104  13.273  13.161   0.949
49755SOL    HW251105  13.250  13.090   0.818
49756SOL     OW51106   4.186   8.360   3.339
49756SOL    HW151107   4.255   8.365   3.405
49756SOL    HW251108   4.232   8.359   3.255
49757SOL     OW51109   2.888  10.456  10.235
49757SOL    HW151110   2.794  10.464  10.220
49757SOL    HW251111   2.901  10.363  10.254
49758SOL     OW51112  11.513   6.690  13.799
49758SOL    HW151113  11.518   6.743  13.878
49758SOL    HW251114  11.503   6.753  13.728
49759SOL     OW51115   2.841  10.137   6.589
49759SOL    HW151116   2.851  10.230   6.609
49759SOL    HW251117   2.874  10.129   6.500
49760SOL     OW51118   1.206  12.531   7.542
49760SOL    HW151119   1.290  12.486   7.527
49760SOL    HW251120   1.173  12.492   7.623
49761SOL     OW51121   3.191   4.802   2.712
49761SOL    HW151122   3.208   4.757   2.629
49761SOL    HW251123   3.170   4.892   2.686
49762SOL     OW51124   1.120   8.199   9.045
49762SOL    HW151125   1.045   8.252   9.017
49762SOL    HW251126   1.191   8.262   9.060
49763SOL     OW51127   8.367   4.620   9.835
49763SOL    HW151128   8.457   4.618   9.869
49763SOL    HW251129   8.356   4.710   9.805
49764SOL     OW51130   4.452  10.703   5.137
49764SOL    HW151131   4.419  10.774   5.191
49764SOL    HW251132   4.380  10.639   5.135
49765SOL     OW51133  11.055   0.187  13.045
49765SOL    HW151134  11.148   0.165  13.036
49765SOL    HW251135  11.018   0.114  13.095
49766SOL     OW51136   9.240  14.458   2.296
49766SOL    HW151137   9.165  14.445   2.237
49766SOL    HW251138   9.316  14.459   2.238
49767SOL     OW51139   6.511   9.888  12.342
49767SOL    HW151140   6.555   9.972  12.356
49767SOL    HW251141   6.458   9.876  12.421
49768SOL     OW51142   8.072   9.695   8.683
49768SOL    HW151143   8.129   9.619   8.698
49768SOL    HW251144   8.004   9.688   8.750
49769SOL     OW51145   6.877   7.308   1.702
49769SOL    HW151146   6.912   7.219   1.695
49769SOL    HW251147   6.882   7.329   1.795
49770SOL     OW51148   6.693   7.380   7.307
49770SOL    HW151149   6.641   7.309   7.343
49770SOL    HW251150   6.770   7.384   7.363
49771SOL     OW51151   5.519   3.155  10.279
49771SOL    HW151152   5.565   3.074  10.300
49771SOL    HW251153   5.472   3.136  10.198
49772SOL     OW51154   7.722   7.836   3.225
49772SOL    HW151155   7.779   7.759   3.227
49772SOL    HW251156   7.666   7.826   3.303
49773SOL     OW51157  13.507   3.826   0.706
49773SOL    HW151158  13.455   3.746   0.710
49773SOL    HW251159  13.500   3.863   0.793
49774SOL     OW51160   8.252  13.442  10.831
49774SOL    HW151161   8.276  13.359  10.874
49774SOL    HW251162   8.334  13.492  10.829
49775SOL     OW51163   5.397   5.876   2.492
49775SOL    HW151164   5.408   5.924   2.410
49775SOL    HW251165   5.471   5.902   2.546
49776SOL     OW51166  13.184   5.402  11.112
49776SOL    HW151167  13.129   5.329  11.142
49776SOL    HW251168  13.214   5.444  11.193
49777SOL     OW51169   1.911  13.427  10.271
49777SOL    HW151170   1.906  13.462  10.182
49777SOL    HW251171   1.956  13.343  10.261
49778SOL     OW51172   5.824   5.657   2.547
49778SOL    HW151173   5.762   5.673   2.475
49778SOL    HW251174   5.798   5.571   2.582
49779SOL     OW51175  13.957   7.775   9.976
49779SOL    HW151176  13.961   7.695   9.924
49779SOL    HW251177  13.913   7.838   9.919
49780SOL     OW51178   3.647  13.898  10.559
49780SOL    HW151179   3.690  13.814  10.575
49780SOL    HW251180   3.603  13.918  10.641
49781SOL     OW51181  10.829   6.367   5.261
49781SOL    HW151182  10.845   6.273   5.251
49781SOL    HW251183  10.834   6.401   5.171
49782SOL     OW51184   8.606   2.990  12.756
49782SOL    HW151185   8.592   2.937  12.678
49782SOL    HW251186   8.554   3.069  12.740
49783SOL     OW51187   8.983   9.662   3.218
49783SOL    HW151188   8.929   9.594   3.178
49783SOL    HW251189   9.070   9.623   3.226
49784SOL     OW51190   0.712   0.353  10.748
49784SOL    HW151191   0.807   0.352  10.758
49784SOL    HW251192   0.697   0.338  10.655
49785SOL     OW51193  13.855   5.986   3.736
49785SOL    HW151194  13.760   5.986   3.720
49785SOL    HW251195  13.894   5.993   3.649
49786SOL     OW51196  13.229   9.882   7.855
49786SOL    HW151197  13.222   9.835   7.937
49786SOL    HW251198  13.187   9.967   7.872
49787SOL     OW51199   3.081   3.346  14.498
49787SOL    HW151200   3.034   3.429  14.491
49787SOL    HW251201   3.073   3.322  14.590
49788SOL     OW51202  10.671  14.542   3.105
49788SOL    HW151203  10.694  14.629   3.074
49788SOL    HW251204  10.609  14.508   3.040
49789SOL     OW51205  12.793  11.558  11.520
49789SOL    HW151206  12.862  11.620  11.542
49789SOL    HW251207  12.793  11.554  11.425
49790SOL     OW51208   7.919  11.989  14.331
49790SOL    HW151209   7.882  11.908  14.295
49790SOL    HW251210   7.907  11.980  14.425
49791SOL     OW51211   0.275   5.348   9.283
49791SOL    HW151212   0.302   5.263   9.318
49791SOL    HW251213   0.186   5.333   9.251
49792SOL     OW51214  13.652   4.675   4.512
49792SOL    HW151215  13.694   4.716   4.436
49792SOL    HW251216  13.725   4.650   4.569
49793SOL     OW51217  10.100  12.444   1.482
49793SOL    HW151218  10.043  12.465   1.557
49793SOL    HW251219  10.043  12.396   1.422
49794SOL     OW51220   8.048   0.616  12.689
49794SOL    HW151221   8.008   0.699  12.714
49794SOL    HW251222   8.126   0.642  12.640
49795SOL     OW51223  14.223   6.176  12.753
49795SOL    HW151224  14.255   6.211  12.670
49795SOL    HW251225  14.148   6.121  12.730
49796SOL     OW51226   2.955  14.636   5.014
49796SOL    HW151227   3.009  14.699   4.966
49796SOL    HW251228   3.018  14.582   5.061
49797SOL     OW51229   0.833  12.408  11.607
49797SOL    HW151230   0.783  12.461  11.670
49797SOL    HW251231   0.870  12.337  11.660
49798SOL     OW51232   2.205   8.262  14.315
49798SOL    HW151233   2.258   8.183  14.306
49798SOL    HW251234   2.186   8.289  14.225
49799SOL     OW51235   7.498   1.941   3.147
49799SOL    HW151236   7.480   1.936   3.053
49799SOL    HW251237   7.420   1.982   3.184
49800SOL     OW51238   7.212   7.161  10.106
49800SOL    HW151239   7.174   7.239  10.147
49800SOL    HW251240   7.285   7.137  10.163
49801SOL     OW51241  12.266   5.534   1.937
49801SOL    HW151242  12.255   5.498   2.025
49801SOL    HW251243  12.218   5.473   1.881
49802SOL     OW51244   5.690   8.088  12.507
49802SOL    HW151245   5.653   8.123  12.426
49802SOL    HW251246   5.701   7.994  12.491
49803SOL     OW51247  11.240  14.112   4.074
49803SOL    HW151248  11.217  14.050   4.005
49803SOL    HW251249  11.336  14.113   4.074
49804SOL     OW51250  14.785   9.838   2.329
49804SOL    HW151251  14.777   9.746   2.352
49804SOL    HW251252  14.752   9.844   2.239
49805SOL     OW51253  12.632   0.138   6.846
49805SOL    HW151254  12.672   0.051   6.841
49805SOL    HW251255  12.567   0.131   6.915
49806SOL     OW51256  10.367  11.882   7.174
49806SOL    HW151257  10.436  11.817   7.190
49806SOL    HW251258  10.289  11.843   7.213
49807SOL     OW51259  11.678   7.262  13.658
49807SOL    HW151260  11.633   7.229  13.580
49807SOL    HW251261  11.726   7.186  13.692
49808SOL     OW51262   6.737   6.199   4.115
49808SOL    HW151263   6.799   6.126   4.118
49808SOL    HW251264   6.769   6.261   4.180
49809SOL     OW51265  14.820  11.012   8.373
49809SOL    HW151266  14.745  10.983   8.426
49809SOL    HW251267   0.020  11.015   8.434
49810SOL     OW51268  11.792   4.670   0.661
49810SOL    HW151269  11.828   4.698   0.577
49810SOL    HW251270  11.721   4.610   0.638
49811SOL     OW51271  13.882  14.801   4.278
49811SOL    HW151272  13.825  14.747   4.223
49811SOL    HW251273  13.898   0.006   4.226
49812SOL     OW51274   8.882  10.777   3.486
49812SOL    HW151275   8.793  10.803   3.511
49812SOL    HW251276   8.933  10.789   3.566
49813SOL     OW51277  14.276  11.017   9.481
49813SOL    HW151278  14.358  10.986   9.442
49813SOL    HW251279  14.300  11.098   9.526
49814SOL     OW51280  14.335   5.634  11.606
49814SOL    HW151281  14.248   5.670  11.588
49814SOL    HW251282  14.394   5.709  11.598
49815SOL     OW51283   2.130   4.888   6.035
49815SOL    HW151284   2.196   4.954   6.058
49815SOL    HW251285   2.046   4.931   6.050
49816SOL     OW51286   1.709   6.479  14.445
49816SOL    HW151287   1.731   6.505  14.356
49816SOL    HW251288   1.633   6.422  14.436
49817SOL     OW51289  14.372   5.925  14.062
49817SOL    HW151290  14.339   5.871  13.991
49817SOL    HW251291  14.334   5.887  14.141
49818SOL     OW51292  14.594   7.818   6.495
49818SOL    HW151293  14.579   7.829   6.589
49818SOL    HW251294  14.659   7.749   6.489
49819SOL     OW51295   9.143   7.507   2.630
49819SOL    HW151296   9.188   7.490   2.713
49819SOL    HW251297   9.069   7.562   2.654
49820SOL     OW51298   1.059  12.320   6.687
49820SOL    HW151299   1.141  12.299   6.642
49820SOL    HW251300   1.074  12.295   6.778
49821SOL     OW51301   3.758   5.911   7.783
49821SOL    HW151302   3.721   5.830   7.817
49821SOL    HW251303   3.684   5.970   7.773
49822SOL     OW51304   7.875   0.449   5.429
49822SOL    HW151305   7.830   0.462   5.346
49822SOL    HW251306   7.812   0.402   5.484
49823SOL     OW51307  11.031  12.363  10.991
49823SOL    HW151308  10.982  12.391  10.913
49823SOL    HW251309  11.088  12.292  10.959
49824SOL     OW51310   2.768   5.617  13.674
49824SOL    HW151311   2.683   5.652  13.703
49824SOL    HW251312   2.772   5.530  13.713
49825SOL     OW51313   3.659   7.194   1.116
49825SOL    HW151314   3.662   7.216   1.209
49825SOL    HW251315   3.589   7.249   1.081
49826SOL     OW51316   2.987   2.648  10.931
49826SOL    HW151317   3.049   2.617  10.996
49826SOL    HW251318   2.919   2.693  10.981
49827SOL     OW51319   2.483   4.721   5.100
49827SOL    HW151320   2.531   4.713   5.183
49827SOL    HW251321   2.458   4.631   5.078
49828SOL     OW51322   4.136   1.491   4.770
49828SOL    HW151323   4.197   1.562   4.793
49828SOL    HW251324   4.193   1.420   4.741
49829SOL     OW51325   2.747   0.931   4.956
49829SOL    HW151326   2.703   1.001   4.909
49829SOL    HW251327   2.676   0.879   4.994
49830SOL     OW51328   9.570  10.768  12.354
49830SOL    HW151329   9.661  10.747  12.376
49830SOL    HW251330   9.520  10.693  12.385
49831SOL     OW51331   6.903   7.774  12.627
49831SOL    HW151332   6.830   7.748  12.572
49831SOL    HW251333   6.946   7.845  12.578
49832SOL     OW51334   4.153  13.491   4.625
49832SOL    HW151335   4.214  13.543   4.677
49832SOL    HW251336   4.084  13.466   4.686
49833SOL     OW51337  14.618   0.187   7.617
49833SOL    HW151338  14.663   0.220   7.539
49833SOL    HW251339  14.670   0.221   7.690
49834SOL     OW51340  12.832   5.255   2.105
49834SOL    HW151341  12.881   5.294   2.177
49834SOL    HW251342  12.840   5.160   2.118
49835SOL     OW51343   5.869   5.038   9.993
49835SOL    HW151344   5.921   5.096  10.049
49835SOL    HW251345   5.933   4.974   9.960
49836SOL     OW51346   4.977   1.574   2.575
49836SOL    HW151347   5.052   1.518   2.597
49836SOL    HW251348   4.977   1.641   2.643
49837SOL     OW51349  13.232   3.113   4.225
49837SOL    HW151350  13.278   3.120   4.141
49837SOL    HW251351  13.270   3.182   4.279
49838SOL     OW51352  14.851   4.663   6.995
49838SOL    HW151353   0.038   4.720   6.947
49838SOL    HW251354  14.770   4.714   7.000
49839SOL     OW51355   0.229   0.784   9.456
49839SOL    HW151356   0.293   0.713   9.457
49839SOL    HW251357   0.279   0.861   9.485
49840SOL     OW51358  11.868  14.827   1.346
49840SOL    HW151359  11.930  14.770   1.391
49840SOL    HW251360  11.857   0.029   1.404
49841SOL     OW51361  10.075   4.450   0.751
49841SOL    HW151362  10.005   4.455   0.816
49841SOL    HW251363  10.150   4.492   0.793
49842SOL     OW51364  10.186  11.206   7.378
49842SOL    HW151365  10.189  11.228   7.285
49842SOL    HW251366  10.276  11.217   7.408
49843SOL     OW51367  11.553   6.281   0.610
49843SOL    HW151368  11.535   6.317   0.523
49843SOL    HW251369  11.648   6.278   0.616
49844SOL     OW51370  11.600   2.208  10.055
49844SOL    HW151371  11.531   2.207  10.122
49844SOL    HW251372  11.640   2.121  10.061
49845SOL     OW51373  12.549   4.916   8.794
49845SOL    HW151374  12.578   4.992   8.744
49845SOL    HW251375  12.615   4.849   8.776
49846SOL     OW51376   5.690  13.984   4.353
49846SOL    HW151377   5.714  13.996   4.445
49846SOL    HW251378   5.634  13.907   4.353
49847SOL     OW51379   7.625  10.177   2.725
49847SOL    HW151380   7.538  10.178   2.685
49847SOL    HW251381   7.686  10.186   2.651
49848SOL     OW51382   0.570   6.936   4.921
49848SOL    HW151383   0.611   6.864   4.969
49848SOL    HW251384   0.583   7.013   4.977
49849SOL     OW51385   0.744  13.706  11.350
49849SOL    HW151386   0.682  13.701  11.278
49849SOL    HW251387   0.698  13.668  11.425
49850SOL     OW51388   2.028   1.566   1.284
49850SOL    HW151389   2.111   1.537   1.323
49850SOL    HW251390   2.015   1.508   1.209
49851SOL     OW51391  13.126   7.201   8.508
49851SOL    HW151392  13.041   7.228   8.475
49851SOL    HW251393  13.189   7.242   8.448
49852SOL     OW51394  10.970  14.425   5.190
49852SOL    HW151395  10.953  14.469   5.107
49852SOL    HW251396  10.902  14.358   5.196
49853SOL     OW51397  11.536  10.214   1.726
49853SOL    HW151398  11.497  10.160   1.657
49853SOL    HW251399  11.602  10.266   1.681
49854SOL     OW51400   9.449  10.699  11.149
49854SOL    HW151401   9.514  10.766  11.132
49854SOL    HW251402   9.467  10.669  11.238
49855SOL     OW51403   3.771  14.291   5.565
49855SOL    HW151404   3.694  14.251   5.526
49855SOL    HW251405   3.839  14.224   5.556
49856SOL     OW51406   2.559   4.121   0.411
49856SOL    HW151407   2.493   4.173   0.457
49856SOL    HW251408   2.590   4.058   0.475
49857SOL     OW51409   0.456   8.644   5.421
49857SOL    HW151410   0.442   8.738   5.434
49857SOL    HW251411   0.442   8.605   5.507
49858SOL     OW51412   8.234   9.231   2.625
49858SOL    HW151413   8.185   9.311   2.612
49858SOL    HW251414   8.303   9.255   2.688
49859SOL     OW51415   8.814   0.231  14.432
49859SOL    HW151416   8.750   0.302  14.437
49859SOL    HW251417   8.770   0.155  14.470
49860SOL     OW51418   3.225  10.016  10.594
49860SOL    HW151419   3.202  10.058  10.510
49860SOL    HW251420   3.141  10.002  10.637
49861SOL     OW51421   1.487   8.814   7.530
49861SOL    HW151422   1.504   8.726   7.495
49861SOL    HW251423   1.442   8.860   7.459
49862SOL     OW51424  13.183   1.727   4.667
49862SOL    HW151425  13.113   1.772   4.715
49862SOL    HW251426  13.259   1.730   4.725
49863SOL     OW51427   5.740  13.685   2.287
49863SOL    HW151428   5.739  13.752   2.218
49863SOL    HW251429   5.756  13.603   2.241
49864SOL     OW51430  10.641   5.640   5.636
49864SOL    HW151431  10.699   5.680   5.700
49864SOL    HW251432  10.606   5.562   5.680
49865SOL     OW51433   7.433  13.363   2.801
49865SOL    HW151434   7.518  13.320   2.814
49865SOL    HW251435   7.444  13.413   2.720
49866SOL     OW51436   1.938   9.546   4.189
49866SOL    HW151437   1.997   9.476   4.217
49866SOL    HW251438   1.993   9.605   4.137
49867SOL     OW51439  12.061  14.298   2.774
49867SOL    HW151440  12.002  14.367   2.743
49867SOL    HW251441  12.144  14.315   2.729
49868SOL     OW51442   4.536   9.101   5.953
49868SOL    HW151443   4.510   9.186   5.987
49868SOL    HW251444   4.618   9.081   5.998
49869SOL     OW51445   8.878  13.444  10.660
49869SOL    HW151446   8.939  13.456  10.588
49869SOL    HW251447   8.834  13.529  10.668
49870SOL     OW51448   3.512   5.915   8.366
49870SOL    HW151449   3.525   5.895   8.459
49870SOL    HW251450   3.514   6.010   8.361
49871SOL     OW51451  14.101   7.420   0.003
49871SOL    HW151452  14.157   7.469  14.817
49871SOL    HW251453  14.049   7.364  14.819
49872SOL     OW51454   6.619   8.515   5.091
49872SOL    HW151455   6.649   8.571   5.162
49872SOL    HW251456   6.548   8.564   5.050
49873SOL     OW51457   2.920  14.137   7.424
49873SOL    HW151458   2.880  14.123   7.338
49873SOL    HW251459   2.847  14.133   7.485
49874SOL     OW51460  11.183   8.491   8.409
49874SOL    HW151461  11.180   8.401   8.377
49874SOL    HW251462  11.102   8.530   8.377
49875SOL     OW51463   7.320   3.170   9.628
49875SOL    HW151464   7.279   3.173   9.714
49875SOL    HW251465   7.411   3.146   9.646
49876SOL     OW51466   5.762  10.914   0.783
49876SOL    HW151467   5.857  10.922   0.786
49876SOL    HW251468   5.735  10.972   0.712
49877SOL     OW51469   6.382   4.253   1.175
49877SOL    HW151470   6.292   4.264   1.204
49877SOL    HW251471   6.379   4.269   1.080
49878SOL     OW51472   5.457  11.950   1.226
49878SOL    HW151473   5.380  12.007   1.232
49878SOL    HW251474   5.423  11.869   1.190
49879SOL     OW51475   5.389   2.252   5.022
49879SOL    HW151476   5.389   2.166   5.064
49879SOL    HW251477   5.480   2.281   5.028
49880SOL     OW51478   5.767   5.466   5.321
49880SOL    HW151479   5.701   5.400   5.343
49880SOL    HW251480   5.794   5.445   5.232
49881SOL     OW51481  10.357   9.650   4.100
49881SOL    HW151482  10.302   9.666   4.023
49881SOL    HW251483  10.336   9.560   4.127
49882SOL     OW51484  14.712  10.245   0.120
49882SOL    HW151485  14.683  10.183   0.053
49882SOL    HW251486  14.644  10.242   0.187
49883SOL     OW51487   0.200   5.830   9.564
49883SOL    HW151488   0.215   5.841   9.658
49883SOL    HW251489   0.156   5.745   9.556
49884SOL     OW51490  13.672   8.200   7.267
49884SOL    HW151491  13.651   8.250   7.188
49884SOL    HW251492  13.600   8.220   7.327
49885SOL     OW51493   3.437   5.727  10.952
49885SOL    HW151494   3.356   5.725  10.901
49885SOL    HW251495   3.466   5.636  10.955
49886SOL     OW51496  14.303   1.500   6.624
49886SOL    HW151497  14.366   1.476   6.692
49886SOL    HW251498  14.229   1.440   6.638
49887SOL     OW51499  12.398  12.315   4.096
49887SOL    HW151500  12.463  12.380   4.068
49887SOL    HW251501  12.347  12.360   4.164
49888SOL     OW51502   4.141   7.841   3.410
49888SOL    HW151503   4.128   7.917   3.353
49888SOL    HW251504   4.236   7.834   3.419
49889SOL     OW51505  12.470   4.098  14.769
49889SOL    HW151506  12.551   4.150  14.763
49889SOL    HW251507  12.499   4.012  14.799
49890SOL     OW51508   1.775   2.418  13.331
49890SOL    HW151509   1.784   2.476  13.406
49890SOL    HW251510   1.685   2.385  13.336
49891SOL     OW51511  10.583  13.447   0.680
49891SOL    HW151512  10.509  13.397   0.715
49891SOL    HW251513  10.545  13.531   0.655
49892SOL     OW51514  14.609  11.588   8.941
49892SOL    HW151515  14.562  11.506   8.957
49892SOL    HW251516  14.574  11.649   9.006
49893SOL     OW51517  12.622   8.026   0.071
49893SOL    HW151518  12.530   8.003   0.060
49893SOL    HW251519  12.655   7.964   0.136
49894SOL     OW51520   8.849  11.370   4.801
49894SOL    HW151521   8.876  11.329   4.882
49894SOL    HW251522   8.923  11.425   4.775
49895SOL     OW51523  12.054  13.788  10.231
49895SOL    HW151524  12.139  13.762  10.195
49895SOL    HW251525  11.997  13.794  10.155
49896SOL     OW51526   3.718  12.163   9.852
49896SOL    HW151527   3.645  12.182   9.793
49896SOL    HW251528   3.712  12.231   9.920
49897SOL     OW51529   8.507  13.892   2.898
49897SOL    HW151530   8.470  13.866   2.982
49897SOL    HW251531   8.447  13.856   2.833
49898SOL     OW51532   1.559  10.276   1.323
49898SOL    HW151533   1.526  10.321   1.245
49898SOL    HW251534   1.522  10.188   1.318
49899SOL     OW51535  13.358   2.444   5.255
49899SOL    HW151536  13.297   2.411   5.320
49899SOL    HW251537  13.337   2.397   5.175
49900SOL     OW51538   7.386   8.367   2.048
49900SOL    HW151539   7.402   8.451   2.092
49900SOL    HW251540   7.378   8.389   1.955
49901SOL     OW51541   1.594   8.903   6.142
49901SOL    HW151542   1.523   8.878   6.202
49901SOL    HW251543   1.674   8.882   6.190
49902SOL     OW51544  12.459   4.341   1.185
49902SOL    HW151545  12.471   4.273   1.119
49902SOL    HW251546  12.487   4.422   1.140
49903SOL     OW51547  10.541   3.200  11.587
49903SOL    HW151548  10.492   3.252  11.649
49903SOL    HW251549  10.599   3.262  11.543
49904SOL     OW51550   0.535   5.124   9.206
49904SOL    HW151551   0.540   5.030   9.191
49904SOL    HW251552   0.495   5.159   9.127
49905SOL     OW51553  10.996   4.371   1.173
49905SOL    HW151554  11.002   4.458   1.135
49905SOL    HW251555  10.908   4.369   1.212
49906SOL     OW51556   6.422   8.851   1.717
49906SOL    HW151557   6.512   8.883   1.707
49906SOL    HW251558   6.431   8.765   1.756
49907SOL     OW51559   4.645   3.428   6.450
49907SOL    HW151560   4.550   3.432   6.464
49907SOL    HW251561   4.658   3.470   6.366
49908SOL     OW51562   7.158   1.074   9.414
49908SOL    HW151563   7.188   1.163   9.434
49908SOL    HW251564   7.231   1.018   9.441
49909SOL     OW51565  14.100   1.332   3.090
49909SOL    HW151566  14.157   1.339   3.166
49909SOL    HW251567  14.101   1.419   3.050
49910SOL     OW51568   0.519  10.335   5.164
49910SOL    HW151569   0.581  10.324   5.236
49910SOL    HW251570   0.437  10.297   5.195
49911SOL     OW51571   4.349   6.530  10.307
49911SOL    HW151572   4.394   6.483  10.377
49911SOL    HW251573   4.293   6.465  10.266
49912SOL     OW51574  14.443   3.582   0.635
49912SOL    HW151575  14.394   3.501   0.647
49912SOL    HW251576  14.531   3.562   0.668
49913SOL     OW51577   1.886  12.529  12.818
49913SOL    HW151578   1.967  12.526  12.868
49913SOL    HW251579   1.865  12.437  12.799
49914SOL     OW51580   5.843   9.408   4.636
49914SOL    HW151581   5.912   9.434   4.697
49914SOL    HW251582   5.841   9.478   4.572
49915SOL     OW51583   5.419   9.568   4.705
49915SOL    HW151584   5.427   9.540   4.614
49915SOL    HW251585   5.471   9.505   4.755
49916SOL     OW51586   3.084  12.916   2.286
49916SOL    HW151587   3.167  12.957   2.307
49916SOL    HW251588   3.018  12.971   2.328
49917SOL     OW51589  10.307   4.404   9.274
49917SOL    HW151590  10.356   4.471   9.321
49917SOL    HW251591  10.343   4.406   9.185
49918SOL     OW51592   8.205   2.592   2.344
49918SOL    HW151593   8.239   2.680   2.327
49918SOL    HW251594   8.128   2.586   2.289
49919SOL     OW51595   5.286   0.976   2.622
49919SOL    HW151596   5.210   1.032   2.634
49919SOL    HW251597   5.348   1.005   2.688
49920SOL     OW51598   8.163   5.183   3.281
49920SOL    HW151599   8.241   5.204   3.331
49920SOL    HW251600   8.093   5.179   3.346
49921SOL     OW51601  10.621  12.153   6.037
49921SOL    HW151602  10.633  12.175   6.130
49921SOL    HW251603  10.577  12.230   6.000
49922SOL     OW51604   4.658   6.982   7.447
49922SOL    HW151605   4.737   7.035   7.445
49922SOL    HW251606   4.588   7.044   7.469
49923SOL     OW51607  10.307   5.164  10.265
49923SOL    HW151608  10.309   5.109  10.344
49923SOL    HW251609  10.320   5.253  10.298
49924SOL     OW51610  10.651   5.336   6.407
49924SOL    HW151611  10.714   5.382   6.463
49924SOL    HW251612  10.699   5.261   6.373
49925SOL     OW51613   0.346  10.697  11.680
49925SOL    HW151614   0.394  10.688  11.597
49925SOL    HW251615   0.368  10.784  11.710
49926SOL     OW51616  10.954  10.141   7.019
49926SOL    HW151617  10.946  10.081   6.945
49926SOL    HW251618  10.980  10.225   6.979
49927SOL     OW51619  12.865  14.708   8.519
49927SOL    HW151620  12.890  14.777   8.581
49927SOL    HW251621  12.903  14.737   8.436
49928SOL     OW51622   6.700  12.514   0.436
49928SOL    HW151623   6.717  12.509   0.342
49928SOL    HW251624   6.605  12.515   0.443
49929SOL     OW51625  10.197   1.534   7.825
49929SOL    HW151626  10.280   1.536   7.776
49929SOL    HW251627  10.208   1.462   7.887
49930SOL     OW51628   2.489  11.565   2.197
49930SOL    HW151629   2.549  11.500   2.233
49930SOL    HW251630   2.545  11.641   2.181
49931SOL     OW51631   1.225  12.912   4.717
49931SOL    HW151632   1.300  12.886   4.770
49931SOL    HW251633   1.170  12.962   4.777
49932SOL     OW51634  10.926  14.650   0.010
49932SOL    HW151635  10.928  14.627   0.103
49932SOL    HW251636  10.840  14.621  14.854
49933SOL     OW51637   6.859  10.764   3.498
49933SOL    HW151638   6.908  10.828   3.549
49933SOL    HW251639   6.910  10.753   3.418
49934SOL     OW51640   6.821   4.263  13.066
49934SOL    HW151641   6.909   4.288  13.094
49934SOL    HW251642   6.835   4.184  13.013
49935SOL     OW51643   3.539   0.146  10.809
49935SOL    HW151644   3.505   0.066  10.850
49935SOL    HW251645   3.486   0.216  10.846
49936SOL     OW51646   9.818  14.118   8.910
49936SOL    HW151647   9.728  14.149   8.907
49936SOL    HW251648   9.844  14.109   8.818
49937SOL     OW51649   5.576   9.962   5.232
49937SOL    HW151650   5.620   9.962   5.317
49937SOL    HW251651   5.617  10.033   5.184
49938SOL     OW51652  10.625   2.491   8.309
49938SOL    HW151653  10.561   2.550   8.349
49938SOL    HW251654  10.573   2.431   8.256
49939SOL     OW51655  13.831   1.107   8.367
49939SOL    HW151656  13.920   1.121   8.402
49939SOL    HW251657  13.842   1.038   8.302
49940SOL     OW51658   2.115   9.284  14.108
49940SOL    HW151659   2.038   9.261  14.055
49940SOL    HW251660   2.134   9.375  14.084
49941SOL     OW51661   4.257   0.388   4.904
49941SOL    HW151662   4.340   0.379   4.859
49941SOL    HW251663   4.279   0.432   4.987
49942SOL     OW51664   3.116   5.359   2.168
49942SOL    HW151665   3.152   5.280   2.128
49942SOL    HW251666   3.132   5.349   2.262
49943SOL     OW51667   0.436  12.488   6.358
49943SOL    HW151668   0.386  12.422   6.310
49943SOL    HW251669   0.373  12.527   6.419
49944SOL     OW51670  12.025   4.977  12.087
49944SOL    HW151671  11.937   5.006  12.108
49944SOL    HW251672  12.013   4.912  12.018
49945SOL     OW51673   3.584  13.467   3.230
49945SOL    HW151674   3.509  13.523   3.252
49945SOL    HW251675   3.545  13.393   3.183
49946SOL     OW51676   1.804  11.742  10.400
49946SOL    HW151677   1.856  11.738  10.480
49946SOL    HW251678   1.810  11.654  10.363
49947SOL     OW51679   9.628   2.975   8.074
49947SOL    HW151680   9.668   3.061   8.084
49947SOL    HW251681   9.701   2.917   8.052
49948SOL     OW51682   8.052   9.426   5.618
49948SOL    HW151683   8.084   9.392   5.534
49948SOL    HW251684   8.125   9.413   5.679
49949SOL     OW51685   3.141  14.439   0.554
49949SOL    HW151686   3.219  14.406   0.509
49949SOL    HW251687   3.068  14.392   0.513
49950SOL     OW51688   2.255  13.660   0.129
49950SOL    HW151689   2.221  13.730   0.185
49950SOL    HW251690   2.258  13.583   0.186
49951SOL     OW51691   3.947   9.174   2.772
49951SOL    HW151692   3.981   9.136   2.853
49951SOL    HW251693   3.954   9.104   2.707
49952SOL     OW51694   9.915   9.825   2.478
49952SOL    HW151695   9.843   9.768   2.504
49952SOL    HW251696   9.977   9.767   2.434
49953SOL     OW51697   5.492   1.967  12.642
49953SOL    HW151698   5.435   1.899  12.678
49953SOL    HW251699   5.579   1.928  12.643
49954SOL     OW51700  12.442   6.767   5.274
49954SOL    HW151701  12.420   6.686   5.320
49954SOL    HW251702  12.480   6.738   5.191
49955SOL     OW51703  11.252   5.659   4.448
49955SOL    HW151704  11.316   5.675   4.379
49955SOL    HW251705  11.206   5.742   4.458
49956SOL     OW51706   6.863   4.062   5.706
49956SOL    HW151707   6.799   4.010   5.754
49956SOL    HW251708   6.881   4.136   5.763
49957SOL     OW51709   0.409   4.303  11.645
49957SOL    HW151710   0.365   4.347  11.718
49957SOL    HW251711   0.483   4.359  11.625
49958SOL     OW51712   9.625   2.450   0.439
49958SOL    HW151713   9.552   2.489   0.488
49958SOL    HW251714   9.695   2.439   0.504
49959SOL     OW51715   2.144   0.081  10.111
49959SOL    HW151716   2.122   0.134  10.187
49959SOL    HW251717   2.146  14.865  10.144
49960SOL     OW51718   1.555   9.503   1.923
49960SOL    HW151719   1.623   9.530   1.985
49960SOL    HW251720   1.475   9.498   1.976
49961SOL     OW51721   2.176   5.104   0.495
49961SOL    HW151722   2.193   5.196   0.473
49961SOL    HW251723   2.242   5.055   0.446
49962SOL     OW51724  11.794   8.643   6.650
49962SOL    HW151725  11.752   8.602   6.726
49962SOL    HW251726  11.725   8.695   6.609
49963SOL     OW51727   5.747   8.343   5.802
49963SOL    HW151728   5.799   8.349   5.722
49963SOL    HW251729   5.681   8.276   5.783
49964SOL     OW51730   9.601   3.584   5.475
49964SOL    HW151731   9.512   3.563   5.503
49964SOL    HW251732   9.657   3.527   5.528
49965SOL     OW51733   6.440   6.278   5.140
49965SOL    HW151734   6.457   6.189   5.110
49965SOL    HW251735   6.518   6.302   5.189
49966SOL     OW51736  14.592  13.218   2.763
49966SOL    HW151737  14.633  13.223   2.677
49966SOL    HW251738  14.641  13.148   2.808
49967SOL     OW51739  10.587  13.386  14.413
49967SOL    HW151740  10.600  13.458  14.350
49967SOL    HW251741  10.496  13.360  14.400
49968SOL     OW51742   4.434  12.874   9.819
49968SOL    HW151743   4.501  12.914   9.873
49968SOL    HW251744   4.471  12.790   9.793
49969SOL     OW51745   9.567   2.467  10.124
49969SOL    HW151746   9.575   2.399  10.192
49969SOL    HW251747   9.611   2.543  10.161
49970SOL     OW51748  13.574   1.610  11.030
49970SOL    HW151749  13.539   1.618  10.941
49970SOL    HW251750  13.527   1.676  11.081
49971SOL     OW51751   7.356   3.296   6.662
49971SOL    HW151752   7.268   3.284   6.699
49971SOL    HW251753   7.374   3.215   6.615
49972SOL     OW51754   8.371   4.482   3.136
49972SOL    HW151755   8.368   4.389   3.113
49972SOL    HW251756   8.457   4.495   3.174
49973SOL     OW51757   3.541   2.462   5.738
49973SOL    HW151758   3.630   2.426   5.742
49973SOL    HW251759   3.493   2.414   5.805
49974SOL     OW51760   1.068   9.489  11.561
49974SOL    HW151761   1.002   9.552  11.532
49974SOL    HW251762   1.018   9.418  11.601
49975SOL     OW51763   2.599   5.564  13.149
49975SOL    HW151764   2.690   5.570  13.122
49975SOL    HW251765   2.601   5.571  13.244
49976SOL     OW51766   3.451  11.054   5.796
49976SOL    HW151767   3.460  10.980   5.737
49976SOL    HW251768   3.530  11.052   5.849
49977SOL     OW51769   3.534  11.590   1.182
49977SOL    HW151770   3.458  11.573   1.238
49977SOL    HW251771   3.524  11.529   1.109
49978SOL     OW51772   0.133   1.252   4.778
49978SOL    HW151773   0.196   1.301   4.830
49978SOL    HW251774   0.169   1.163   4.775
49979SOL     OW51775   0.681   1.278   9.921
49979SOL    HW151776   0.680   1.371   9.898
49979SOL    HW251777   0.705   1.276  10.013
49980SOL     OW51778   5.869  13.275   2.761
49980SOL    HW151779   5.807  13.298   2.692
49980SOL    HW251780   5.851  13.337   2.832
49981SOL     OW51781  13.664  14.563   0.830
49981SOL    HW151782  13.714  14.554   0.748
49981SOL    HW251783  13.633  14.653   0.829
49982SOL     OW51784   4.524  13.685   4.228
49982SOL    HW151785   4.607  13.645   4.203
49982SOL    HW251786   4.536  13.778   4.209
49983SOL     OW51787  11.250   9.796   2.232
49983SOL    HW151788  11.242   9.704   2.207
49983SOL    HW251789  11.337   9.822   2.200
49984SOL     OW51790   6.234   3.128   7.860
49984SOL    HW151791   6.316   3.116   7.813
49984SOL    HW251792   6.172   3.070   7.816
49985SOL     OW51793   2.514   5.265   5.441
49985SOL    HW151794   2.545   5.251   5.352
49985SOL    HW251795   2.440   5.325   5.431
49986SOL     OW51796   1.090   7.541  13.613
49986SOL    HW151797   1.166   7.483  13.614
49986SOL    HW251798   1.019   7.487  13.579
49987SOL     OW51799   2.509   9.202  14.436
49987SOL    HW151800   2.582   9.249  14.396
49987SOL    HW251801   2.432   9.234  14.389
49988SOL     OW51802   1.297   7.110   5.876
49988SOL    HW151803   1.233   7.062   5.824
49988SOL    HW251804   1.261   7.110   5.965
49989SOL     OW51805  14.577   5.692   1.592
49989SOL    HW151806  14.602   5.601   1.573
49989SOL    HW251807  14.596   5.740   1.511
49990SOL     OW51808   7.606   1.201  11.207
49990SOL    HW151809   7.609   1.114  11.247
49990SOL    HW251810   7.516   1.209  11.175
49991SOL     OW51811  13.092   2.119  11.962
49991SOL    HW151812  13.083   2.131  12.057
49991SOL    HW251813  13.003   2.105  11.931
49992SOL     OW51814   6.284   9.965   3.632
49992SOL    HW151815   6.240   9.880   3.642
49992SOL    HW251816   6.220  10.029   3.664
49993SOL     OW51817  12.508  14.259  11.573
49993SOL    HW151818  12.504  14.338  11.518
49993SOL    HW251819  12.582  14.275  11.632
49994SOL     OW51820   1.958  13.586   4.463
49994SOL    HW151821   1.918  13.671   4.484
49994SOL    HW251822   1.883  13.527   4.450
49995SOL     OW51823  12.431  12.995   8.024
49995SOL    HW151824  12.392  13.077   7.993
49995SOL    HW251825  12.508  12.983   7.968
49996SOL     OW51826  14.396   6.229  11.803
49996SOL    HW151827  14.447   6.164  11.851
49996SOL    HW251828  14.453   6.305  11.798
49997SOL     OW51829  11.098  12.223   8.521
49997SOL    HW151830  11.163  12.220   8.451
49997SOL    HW251831  11.127  12.157   8.584
49998SOL     OW51832   6.826   3.044  11.262
49998SOL    HW151833   6.859   2.961  11.296
49998SOL    HW251834   6.904   3.096  11.243
49999SOL     OW51835   2.388   5.636  12.211
49999SOL    HW151836   2.331   5.628  12.134
49999SOL    HW251837   2.464   5.583  12.189
50000SOL     OW51838  13.079   5.708  12.691
50000SOL    HW151839  13.108   5.798  12.673
50000SOL    HW251840  13.147   5.672  12.748
50001SOL     OW51841   7.036   4.704   3.204
50001SOL    HW151842   7.055   4.705   3.298
50001SOL    HW251843   7.091   4.634   3.169
50002SOL     OW51844  12.160   5.900   1.584
50002SOL    HW151845  12.191   5.869   1.499
50002SOL    HW251846  12.228   5.873   1.645
50003SOL     OW51847  11.866  12.003  12.086
50003SOL    HW151848  11.856  11.972  12.176
50003SOL    HW251849  11.781  11.987  12.045
50004SOL     OW51850   0.499   7.294   8.936
50004SOL    HW151851   0.577   7.269   8.986
50004SOL    HW251852   0.495   7.389   8.943
50005SOL     OW51853   9.115   6.795  11.121
50005SOL    HW151854   9.082   6.761  11.204
50005SOL    HW251855   9.040   6.839  11.082
50006SOL     OW51856   5.672  12.957   8.883
50006SOL    HW151857   5.705  12.999   8.804
50006SOL    HW251858   5.713  12.870   8.883
50007SOL     OW51859   1.266  11.629  11.862
50007SOL    HW151860   1.193  11.568  11.870
50007SOL    HW251861   1.270  11.650  11.769
50008SOL     OW51862  13.979   9.807  10.196
50008SOL    HW151863  13.914   9.817  10.126
50008SOL    HW251864  13.928   9.810  10.277
50009SOL     OW51865   2.227  11.928   3.991
50009SOL    HW151866   2.155  11.977   3.951
50009SOL    HW251867   2.306  11.971   3.958
50010SOL     OW51868   7.843   7.114  13.605
50010SOL    HW151869   7.760   7.156  13.584
50010SOL    HW251870   7.852   7.044  13.540
50011SOL     OW51871  11.510  11.039   7.097
50011SOL    HW151872  11.594  11.068   7.133
50011SOL    HW251873  11.445  11.072   7.159
50012SOL     OW51874   2.000   6.866  12.335
50012SOL    HW151875   1.976   6.878  12.243
50012SOL    HW251876   1.917   6.870  12.382
50013SOL     OW51877  14.157   7.831  12.035
50013SOL    HW151878  14.227   7.865  11.979
50013SOL    HW251879  14.164   7.736  12.028
50014SOL     OW51880   6.699   8.658   5.852
50014SOL    HW151881   6.768   8.715   5.885
50014SOL    HW251882   6.625   8.717   5.836
50015SOL     OW51883   3.067  11.748   5.545
50015SOL    HW151884   3.130  11.758   5.617
50015SOL    HW251885   3.020  11.831   5.542
50016SOL     OW51886   6.135  13.063   7.238
50016SOL    HW151887   6.072  13.135   7.233
50016SOL    HW251888   6.126  13.017   7.154
50017SOL     OW51889   5.583  11.094   0.177
50017SOL    HW151890   5.579  11.034   0.251
50017SOL    HW251891   5.549  11.044   0.103
50018SOL     OW51892   1.573   9.618  13.772
50018SOL    HW151893   1.503   9.611  13.837
50018SOL    HW251894   1.552   9.697  13.723
50019SOL     OW51895   8.957   3.391   9.790
50019SOL    HW151896   8.907   3.320   9.750
50019SOL    HW251897   8.921   3.400   9.878
50020SOL     OW51898   4.050   3.944   2.875
50020SOL    HW151899   4.049   3.909   2.786
50020SOL    HW251900   4.027   4.036   2.865
50021SOL     OW51901   9.619   6.570   7.284
50021SOL    HW151902   9.656   6.652   7.318
50021SOL    HW251903   9.578   6.596   7.201
50022SOL     OW51904  12.465   6.975   4.306
50022SOL    HW151905  12.553   6.938   4.310
50022SOL    HW251906  12.470   7.055   4.359
50023SOL     OW51907   6.006   7.269  12.903
50023SOL    HW151908   6.081   7.328  12.888
50023SOL    HW251909   5.935   7.308  12.852
50024SOL     OW51910   3.468  11.516   3.297
50024SOL    HW151911   3.502  11.427   3.286
50024SOL    HW251912   3.456  11.548   3.207
50025SOL     OW51913   2.457   7.211  14.037
50025SOL    HW151914   2.481   7.119  14.044
50025SOL    HW251915   2.495   7.252  14.115
50026SOL     OW51916  14.843   5.656  10.837
50026SOL    HW151917  14.867   5.678  10.927
50026SOL    HW251918   0.038   5.697  10.783
50027SOL     OW51919  13.291   0.265   2.350
50027SOL    HW151920  13.277   0.218   2.268
50027SOL    HW251921  13.235   0.221   2.414
50028SOL     OW51922   5.341  13.188   0.659
50028SOL    HW151923   5.322  13.113   0.602
50028SOL    HW251924   5.369  13.148   0.742
50029SOL     OW51925  13.772   7.929  11.352
50029SOL    HW151926  13.764   7.834  11.340
50029SOL    HW251927  13.848   7.953  11.299
50030SOL     OW51928  13.150  12.221   2.633
50030SOL    HW151929  13.155  12.290   2.699
50030SOL    HW251930  13.187  12.260   2.554
50031SOL     OW51931   8.630  14.069  13.844
50031SOL    HW151932   8.629  14.157  13.884
50031SOL    HW251933   8.581  14.014  13.905
50032SOL     OW51934   7.737   1.958   6.566
50032SOL    HW151935   7.788   1.891   6.521
50032SOL    HW251936   7.797   1.994   6.631
50033SOL     OW51937   1.970   2.680  10.595
50033SOL    HW151938   1.969   2.702  10.501
50033SOL    HW251939   1.907   2.740  10.634
50034SOL     OW51940   3.578   8.050   7.709
50034SOL    HW151941   3.640   8.015   7.644
50034SOL    HW251942   3.493   8.019   7.680
50035SOL     OW51943  12.034  14.128   7.761
50035SOL    HW151944  12.038  14.132   7.857
50035SOL    HW251945  12.111  14.077   7.736
50036SOL     OW51946  13.654   3.575   4.233
50036SOL    HW151947  13.712   3.499   4.235
50036SOL    HW251948  13.668   3.613   4.147
50037SOL     OW51949   3.569  11.844  13.273
50037SOL    HW151950   3.617  11.780  13.325
50037SOL    HW251951   3.623  11.857  13.195
50038SOL     OW51952   5.354  13.905   8.489
50038SOL    HW151953   5.263  13.934   8.489
50038SOL    HW251954   5.382  13.913   8.398
50039SOL     OW51955   7.917   4.900   7.811
50039SOL    HW151956   7.824   4.924   7.816
50039SOL    HW251957   7.961   4.981   7.782
50040SOL     OW51958  14.541  12.461  13.772
50040SOL    HW151959  14.578  12.452  13.684
50040SOL    HW251960  14.509  12.551  13.776
50041SOL     OW51961  12.414   8.176   5.705
50041SOL    HW151962  12.354   8.102   5.711
50041SOL    HW251963  12.363   8.251   5.737
50042SOL     OW51964  13.922   5.608  14.804
50042SOL    HW151965  13.915   5.531  14.747
50042SOL    HW251966  13.878   5.678  14.755
50043SOL     OW51967   7.319  13.515   9.842
50043SOL    HW151968   7.400  13.465   9.840
50043SOL    HW251969   7.342  13.601   9.809
50044SOL     OW51970   6.428   8.260   8.287
50044SOL    HW151971   6.360   8.323   8.265
50044SOL    HW251972   6.506   8.313   8.306
50045SOL     OW51973   4.806   2.152  13.046
50045SOL    HW151974   4.745   2.174  12.977
50045SOL    HW251975   4.865   2.228  13.051
50046SOL     OW51976   9.228   5.743   8.742
50046SOL    HW151977   9.194   5.797   8.814
50046SOL    HW251978   9.244   5.806   8.671
50047SOL     OW51979   8.746   8.910   9.836
50047SOL    HW151980   8.774   8.966   9.909
50047SOL    HW251981   8.769   8.822   9.864
50048SOL     OW51982   5.478  13.869  11.880
50048SOL    HW151983   5.501  13.849  11.790
50048SOL    HW251984   5.523  13.952  11.898
50049SOL     OW51985  11.362   1.632  10.815
50049SOL    HW151986  11.320   1.565  10.869
50049SOL    HW251987  11.354   1.598  10.726
50050SOL     OW51988  13.961   2.257   3.414
50050SOL    HW151989  13.910   2.207   3.349
50050SOL    HW251990  14.008   2.323   3.362
50051SOL     OW51991  10.885   2.384  11.005
50051SOL    HW151992  10.897   2.353  10.915
50051SOL    HW251993  10.797   2.357  11.028
50052SOL     OW51994   7.108   0.871   0.950
50052SOL    HW151995   7.041   0.818   0.992
50052SOL    HW251996   7.101   0.850   0.857
50053SOL     OW51997  14.374  14.184  13.802
50053SOL    HW151998  14.376  14.259  13.861
50053SOL    HW251999  14.285  14.183  13.767
50054SOL     OW52000   4.957   0.140   7.382
50054SOL    HW152001   4.873   0.154   7.339
50054SOL    HW252002   4.982   0.051   7.359
50055SOL     OW52003   6.864   3.822  12.193
50055SOL    HW152004   6.813   3.902  12.211
50055SOL    HW252005   6.951   3.854  12.169
50056SOL     OW52006   8.296  11.490  11.830
50056SOL    HW152007   8.386  11.461  11.843
50056SOL    HW252008   8.304  11.570  11.777
50057SOL     OW52009   7.713  13.877   7.881
50057SOL    HW152010   7.690  13.831   7.961
50057SOL    HW252011   7.640  13.860   7.821
50058SOL     OW52012   9.003  14.856   3.764
50058SOL    HW152013   9.021   0.004   3.856
50058SOL    HW252014   8.966  14.768   3.767
50059SOL     OW52015   2.125   0.515   9.417
50059SOL    HW152016   2.186   0.443   9.404
50059SOL    HW252017   2.166   0.589   9.372
50060SOL     OW52018   9.871  11.498   4.576
50060SOL    HW152019   9.891  11.492   4.669
50060SOL    HW252020   9.858  11.591   4.559
50061SOL     OW52021   3.570   3.003  11.798
50061SOL    HW152022   3.661   3.000  11.769
50061SOL    HW252023   3.564   3.083  11.850
50062SOL     OW52024   0.609  14.371   0.711
50062SOL    HW152025   0.637  14.280   0.717
50062SOL    HW252026   0.674  14.420   0.761
50063SOL     OW52027  10.673   1.269   8.623
50063SOL    HW152028  10.743   1.236   8.566
50063SOL    HW252029  10.630   1.337   8.571
50064SOL     OW52030  12.450  11.448   0.861
50064SOL    HW152031  12.400  11.377   0.903
50064SOL    HW252032  12.537  11.443   0.901
50065SOL     OW52033   6.921   1.824   1.730
50065SOL    HW152034   6.960   1.766   1.796
50065SOL    HW252035   6.845   1.862   1.773
50066SOL     OW52036  11.256   2.411  11.915
50066SOL    HW152037  11.330   2.416  11.854
50066SOL    HW252038  11.183   2.380  11.861
50067SOL     OW52039   4.250   4.042  10.489
50067SOL    HW152040   4.303   3.964  10.504
50067SOL    HW252041   4.303   4.097  10.431
50068SOL     OW52042  10.204   2.237  11.072
50068SOL    HW152043  10.215   2.237  11.167
50068SOL    HW252044  10.149   2.161  11.054
50069SOL     OW52045   8.243  13.083  12.246
50069SOL    HW152046   8.212  13.097  12.157
50069SOL    HW252047   8.275  13.169  12.274
50070SOL     OW52048   2.431  13.659  12.804
50070SOL    HW152049   2.525  13.658  12.821
50070SOL    HW252050   2.415  13.578  12.756
50071SOL     OW52051  13.847  10.376   8.632
50071SOL    HW152052  13.867  10.436   8.559
50071SOL    HW252053  13.888  10.294   8.607
50072SOL     OW52054   8.630   4.548   9.314
50072SOL    HW152055   8.617   4.643   9.307
50072SOL    HW252056   8.706   4.539   9.371
50073SOL     OW52057   5.989  10.029  10.958
50073SOL    HW152058   6.023   9.940  10.948
50073SOL    HW252059   5.979  10.040  11.052
50074SOL     OW52060   7.803  11.923  10.994
50074SOL    HW152061   7.776  11.938  10.904
50074SOL    HW252062   7.721  11.915  11.043
50075SOL     OW52063  13.807  12.205   4.428
50075SOL    HW152064  13.840  12.117   4.414
50075SOL    HW252065  13.807  12.245   4.341
50076SOL     OW52066   0.393  11.451   6.306
50076SOL    HW152067   0.429  11.528   6.350
50076SOL    HW252068   0.406  11.380   6.369
50077SOL     OW52069   3.606   6.139   4.872
50077SOL    HW152070   3.527   6.178   4.834
50077SOL    HW252071   3.646   6.090   4.800
50078SOL     OW52072   4.761   2.623  12.636
50078SOL    HW152073   4.845   2.583  12.614
50078SOL    HW252074   4.712   2.621  12.554
50079SOL     OW52075   6.290   0.584  14.353
50079SOL    HW152076   6.222   0.537  14.401
50079SOL    HW252077   6.318   0.522  14.285
50080SOL     OW52078  12.866  11.854   7.900
50080SOL    HW152079  12.907  11.828   7.982
50080SOL    HW252080  12.936  11.897   7.850
50081SOL     OW52081   0.700  11.841   8.402
50081SOL    HW152082   0.767  11.792   8.450
50081SOL    HW252083   0.751  11.896   8.342
50082SOL     OW52084   8.113   9.870   7.521
50082SOL    HW152085   8.077   9.953   7.552
50082SOL    HW252086   8.161   9.836   7.596
50083SOL     OW52087  13.889   4.026  12.188
50083SOL    HW152088  13.880   4.103  12.243
50083SOL    HW252089  13.859   3.953  12.243
50084SOL     OW52090   1.965   3.282   1.101
50084SOL    HW152091   1.944   3.294   1.194
50084SOL    HW252092   1.885   3.308   1.055
50085SOL     OW52093  12.718   0.250   0.600
50085SOL    HW152094  12.634   0.269   0.558
50085SOL    HW252095  12.761   0.336   0.605
50086SOL     OW52096  13.608  11.434   2.373
50086SOL    HW152097  13.529  11.443   2.426
50086SOL    HW252098  13.661  11.370   2.420
50087SOL     OW52099  14.117  13.977  12.423
50087SOL    HW152100  14.132  13.930  12.340
50087SOL    HW252101  14.037  14.027  12.408
50088SOL     OW52102  10.808  14.382  10.690
50088SOL    HW152103  10.811  14.287  10.700
50088SOL    HW252104  10.770  14.413  10.773
50089SOL     OW52105   3.790  14.511   1.027
50089SOL    HW152106   3.763  14.548   0.943
50089SOL    HW252107   3.782  14.416   1.015
50090SOL     OW52108   8.216  10.931  10.025
50090SOL    HW152109   8.152  10.996  10.053
50090SOL    HW252110   8.274  10.920  10.100
50091SOL     OW52111  13.685   6.325   8.151
50091SOL    HW152112  13.749   6.290   8.090
50091SOL    HW252113  13.646   6.248   8.193
50092SOL     OW52114   8.869  13.492  13.345
50092SOL    HW152115   8.795  13.545  13.374
50092SOL    HW252116   8.946  13.545  13.364
50093SOL     OW52117   5.925   7.125   5.967
50093SOL    HW152118   5.911   7.147   6.059
50093SOL    HW252119   5.977   7.198   5.932
50094SOL     OW52120   6.256   9.800   6.247
50094SOL    HW152121   6.187   9.827   6.307
50094SOL    HW252122   6.296   9.882   6.219
50095SOL     OW52123   2.750   2.378   9.378
50095SOL    HW152124   2.763   2.457   9.430
50095SOL    HW252125   2.830   2.327   9.391
50096SOL     OW52126  10.122   9.316   8.357
50096SOL    HW152127  10.110   9.233   8.403
50096SOL    HW252128  10.109   9.383   8.424
50097SOL     OW52129   2.674  12.711   1.527
50097SOL    HW152130   2.643  12.730   1.616
50097SOL    HW252131   2.703  12.619   1.531
50098SOL     OW52132  11.971  14.663  10.117
50098SOL    HW152133  11.937  14.689  10.203
50098SOL    HW252134  12.057  14.625  10.136
50099SOL     OW52135  14.116   7.191   7.100
50099SOL    HW152136  14.197   7.164   7.057
50099SOL    HW252137  14.047   7.157   7.044
50100SOL     OW52138  13.505   7.045   8.673
50100SOL    HW152139  13.520   7.076   8.584
50100SOL    HW252140  13.553   7.107   8.728
50101SOL     OW52141   8.901   4.387   9.889
50101SOL    HW152142   8.828   4.448   9.896
50101SOL    HW252143   8.953   4.402   9.967
50102SOL     OW52144  10.980   3.322  12.875
50102SOL    HW152145  11.069   3.356  12.874
50102SOL    HW252146  10.982   3.247  12.816
50103SOL     OW52147   2.085   6.638  13.306
50103SOL    HW152148   2.121   6.648  13.218
50103SOL    HW252149   2.153   6.672  13.364
50104SOL     OW52150   7.404   9.900   3.486
50104SOL    HW152151   7.377   9.836   3.420
50104SOL    HW252152   7.468   9.955   3.440
50105SOL     OW52153   4.573   8.365  10.405
50105SOL    HW152154   4.486   8.330  10.426
50105SOL    HW252155   4.604   8.402  10.487
50106SOL     OW52156   6.487  12.076  12.160
50106SOL    HW152157   6.497  11.982  12.147
50106SOL    HW252158   6.538  12.095  12.238
50107SOL     OW52159   6.915   5.087   8.101
50107SOL    HW152160   6.906   5.055   8.012
50107SOL    HW252161   6.912   5.182   8.093
50108SOL     OW52162   2.927   4.681   6.548
50108SOL    HW152163   3.014   4.685   6.586
50108SOL    HW252164   2.880   4.616   6.600
50109SOL     OW52165   8.759  11.480   6.269
50109SOL    HW152166   8.746  11.441   6.183
50109SOL    HW252167   8.825  11.548   6.256
50110SOL     OW52168   1.722   8.447   3.413
50110SOL    HW152169   1.800   8.393   3.399
50110SOL    HW252170   1.728   8.514   3.346
50111SOL     OW52171  14.515   9.706   8.101
50111SOL    HW152172  14.564   9.787   8.103
50111SOL    HW252173  14.459   9.713   8.023
50112SOL     OW52174  12.126   7.967   5.804
50112SOL    HW152175  12.092   7.877   5.803
50112SOL    HW252176  12.060   8.018   5.758
50113SOL     OW52177   7.351   6.301   3.347
50113SOL    HW152178   7.418   6.361   3.314
50113SOL    HW252179   7.334   6.332   3.436
50114SOL     OW52180   3.693   2.080   8.438
50114SOL    HW152181   3.650   2.000   8.409
50114SOL    HW252182   3.785   2.056   8.447
50115SOL     OW52183   1.032  14.835   9.436
50115SOL    HW152184   0.972   0.035   9.448
50115SOL    HW252185   1.106  14.871   9.388
50116SOL     OW52186   8.244  11.117   4.455
50116SOL    HW152187   8.319  11.153   4.407
50116SOL    HW252188   8.259  11.022   4.455
50117SOL     OW52189   0.555  14.153   4.009
50117SOL    HW152190   0.616  14.195   3.948
50117SOL    HW252191   0.476  14.137   3.958
50118SOL     OW52192  11.287   9.057   4.597
50118SOL    HW152193  11.234   8.993   4.549
50118SOL    HW252194  11.259   9.047   4.688
50119SOL     OW52195   2.079  10.103  10.487
50119SOL    HW152196   2.145  10.172  10.479
50119SOL    HW252197   2.116  10.042  10.552
50120SOL     OW52198   9.800  12.519  14.376
50120SOL    HW152199   9.710  12.508  14.404
50120SOL    HW252200   9.852  12.500  14.455
50121SOL     OW52201   9.971   4.354   1.145
50121SOL    HW152202   9.955   4.395   1.230
50121SOL    HW252203  10.065   4.339   1.144
50122SOL     OW52204   2.413  13.105  14.850
50122SOL    HW152205   2.390  13.019   0.012
50122SOL    HW252206   2.342  13.125  14.788
50123SOL     OW52207   8.725  10.658   1.079
50123SOL    HW152208   8.814  10.664   1.043
50123SOL    HW252209   8.727  10.580   1.134
50124SOL     OW52210   9.751   2.783   2.999
50124SOL    HW152211   9.776   2.691   3.009
50124SOL    HW252212   9.704   2.804   3.080
50125SOL     OW52213  11.872   2.007  10.671
50125SOL    HW152214  11.781   2.009  10.641
50125SOL    HW252215  11.893   2.099  10.688
50126SOL     OW52216   4.127  12.613   3.148
50126SOL    HW152217   4.125  12.621   3.053
50126SOL    HW252218   4.151  12.701   3.179
50127SOL     OW52219   0.648  10.135   7.793
50127SOL    HW152220   0.697  10.058   7.824
50127SOL    HW252221   0.695  10.162   7.714
50128SOL     OW52222   5.408   0.881   9.450
50128SOL    HW152223   5.356   0.864   9.371
50128SOL    HW252224   5.470   0.949   9.424
50129SOL     OW52225   4.304   8.083   1.130
50129SOL    HW152226   4.353   8.124   1.201
50129SOL    HW252227   4.215   8.078   1.162
50130SOL     OW52228   6.069   7.588   7.184
50130SOL    HW152229   6.121   7.651   7.135
50130SOL    HW252230   6.008   7.641   7.235
50131SOL     OW52231   3.542   6.077  10.468
50131SOL    HW152232   3.474   6.020  10.431
50131SOL    HW252233   3.579   6.122  10.392
50132SOL     OW52234   4.748   3.988   0.292
50132SOL    HW152235   4.681   3.925   0.315
50132SOL    HW252236   4.831   3.944   0.311
50133SOL     OW52237   8.722   4.932   8.506
50133SOL    HW152238   8.770   5.014   8.521
50133SOL    HW252239   8.683   4.912   8.591
50134SOL     OW52240   3.231   3.529  14.018
50134SOL    HW152241   3.188   3.560  13.939
50134SOL    HW252242   3.192   3.581  14.089
50135SOL     OW52243   9.149   6.172   6.641
50135SOL    HW152244   9.234   6.190   6.602
50135SOL    HW252245   9.168   6.109   6.711
50136SOL     OW52246   6.929   9.690   1.221
50136SOL    HW152247   6.983   9.649   1.288
50136SOL    HW252248   6.929   9.627   1.149
50137SOL     OW52249   8.494  10.170  12.586
50137SOL    HW152250   8.548  10.222  12.646
50137SOL    HW252251   8.430  10.233  12.551
50138SOL     OW52252   0.610  12.119   3.359
50138SOL    HW152253   0.650  12.168   3.287
50138SOL    HW252254   0.683  12.103   3.420
50139SOL     OW52255  12.627  13.657   7.471
50139SOL    HW152256  12.690  13.697   7.532
50139SOL    HW252257  12.542  13.667   7.515
50140SOL     OW52258   1.276   5.908   7.919
50140SOL    HW152259   1.260   5.876   8.008
50140SOL    HW252260   1.339   5.980   7.930
50141SOL     OW52261   4.166   2.432   3.697
50141SOL    HW152262   4.092   2.487   3.670
50141SOL    HW252263   4.162   2.357   3.638
50142SOL     OW52264  13.349   6.791  11.780
50142SOL    HW152265  13.432   6.797  11.828
50142SOL    HW252266  13.364   6.721  11.716
50143SOL     OW52267  11.925   6.655   6.643
50143SOL    HW152268  11.939   6.657   6.548
50143SOL    HW252269  11.831   6.647   6.653
50144SOL     OW52270  14.747  10.731   9.501
50144SOL    HW152271  14.736  10.706   9.409
50144SOL    HW252272  14.790  10.817   9.497
50145SOL     OW52273  14.330  14.374  10.900
50145SOL    HW152274  14.284  14.425  10.833
50145SOL    HW252275  14.395  14.435  10.936
50146SOL     OW52276  14.166   1.793  12.417
50146SOL    HW152277  14.252   1.825  12.445
50146SOL    HW252278  14.110   1.805  12.494
50147SOL     OW52279   4.684   4.530   8.308
50147SOL    HW152280   4.646   4.617   8.322
50147SOL    HW252281   4.653   4.504   8.221
50148SOL     OW52282   7.430   0.028   3.336
50148SOL    HW152283   7.341   0.011   3.367
50148SOL    HW252284   7.418   0.087   3.261
50149SOL     OW52285   9.819   8.693   3.405
50149SOL    HW152286   9.894   8.751   3.416
50149SOL    HW252287   9.799   8.697   3.312
50150SOL     OW52288   7.717  11.749  13.537
50150SOL    HW152289   7.795  11.799  13.560
50150SOL    HW252290   7.737  11.714  13.450
50151SOL     OW52291   8.194  14.769   4.898
50151SOL    HW152292   8.213  14.798   4.809
50151SOL    HW252293   8.274  14.786   4.947
50152SOL     OW52294   7.389   4.780  10.925
50152SOL    HW152295   7.453   4.781  10.997
50152SOL    HW252296   7.314   4.732  10.960
50153SOL     OW52297   0.808   7.340  12.157
50153SOL    HW152298   0.816   7.403  12.228
50153SOL    HW252299   0.715   7.338  12.136
50154SOL     OW52300   0.508   5.256   5.757
50154SOL    HW152301   0.456   5.336   5.766
50154SOL    HW252302   0.589   5.275   5.804
50155SOL     OW52303   4.231   8.379   1.674
50155SOL    HW152304   4.198   8.428   1.599
50155SOL    HW252305   4.246   8.445   1.741
50156SOL     OW52306   6.451   9.369  13.353
50156SOL    HW152307   6.436   9.277  13.330
50156SOL    HW252308   6.366   9.399  13.385
50157SOL     OW52309   7.443   3.979   2.767
50157SOL    HW152310   7.359   3.982   2.722
50157SOL    HW252311   7.430   4.034   2.845
50158SOL     OW52312   6.067   5.494  13.930
50158SOL    HW152313   6.019   5.569  13.897
50158SOL    HW252314   6.154   5.502  13.892
50159SOL     OW52315   7.678   5.853   9.539
50159SOL    HW152316   7.727   5.885   9.614
50159SOL    HW252317   7.664   5.930   9.484
50160SOL     OW52318  12.910   5.999   1.930
50160SOL    HW152319  12.860   6.074   1.899
50160SOL    HW252320  12.931   6.020   2.021
50161SOL     OW52321  12.462  12.204   4.423
50161SOL    HW152322  12.467  12.299   4.430
50161SOL    HW252323  12.428  12.175   4.508
50162SOL     OW52324   2.583  13.224  12.712
50162SOL    HW152325   2.538  13.304  12.684
50162SOL    HW252326   2.561  13.159  12.645
50163SOL     OW52327   4.566  12.888   1.632
50163SOL    HW152328   4.651  12.909   1.593
50163SOL    HW252329   4.506  12.953   1.595
50164SOL     OW52330   5.731   7.813  10.031
50164SOL    HW152331   5.722   7.893   9.979
50164SOL    HW252332   5.783   7.839  10.108
50165SOL     OW52333  11.410  14.748  10.805
50165SOL    HW152334  11.430  14.804  10.729
50165SOL    HW252335  11.397  14.661  10.767
50166SOL     OW52336   3.819   2.784  11.233
50166SOL    HW152337   3.815   2.872  11.196
50166SOL    HW252338   3.808   2.725  11.158
50167SOL     OW52339   4.995  13.523  14.210
50167SOL    HW152340   4.968  13.544  14.300
50167SOL    HW252341   5.090  13.526  14.212
50168SOL     OW52342   2.264   7.110  13.864
50168SOL    HW152343   2.187   7.167  13.874
50168SOL    HW252344   2.322   7.136  13.936
50169SOL     OW52345   9.959   2.145   6.078
50169SOL    HW152346   9.870   2.178   6.092
50169SOL    HW252347   9.947   2.056   6.044
50170SOL     OW52348   5.079  13.341   8.774
50170SOL    HW152349   5.127  13.393   8.838
50170SOL    HW252350   5.030  13.278   8.827
50171SOL     OW52351  14.471   9.462  11.207
50171SOL    HW152352  14.505   9.538  11.254
50171SOL    HW252353  14.443   9.497  11.123
50172SOL     OW52354   8.477  12.030  11.862
50172SOL    HW152355   8.405  11.986  11.906
50172SOL    HW252356   8.435  12.102  11.814
50173SOL     OW52357   6.684   3.568  14.682
50173SOL    HW152358   6.663   3.560  14.589
50173SOL    HW252359   6.652   3.655  14.706
50174SOL     OW52360   3.974   8.405  11.028
50174SOL    HW152361   4.009   8.375  11.112
50174SOL    HW252362   3.980   8.327  10.971
50175SOL     OW52363  11.719   3.815   0.581
50175SOL    HW152364  11.761   3.825   0.495
50175SOL    HW252365  11.696   3.722   0.586
50176SOL     OW52366  12.636   3.734   8.608
50176SOL    HW152367  12.641   3.762   8.517
50176SOL    HW252368  12.698   3.792   8.654
50177SOL     OW52369   8.443  13.428   9.960
50177SOL    HW152370   8.480  13.391   9.881
50177SOL    HW252371   8.349  13.434   9.943
50178SOL     OW52372   7.024   2.770  13.260
50178SOL    HW152373   6.935   2.761  13.296
50178SOL    HW252374   7.072   2.696  13.296
50179SOL     OW52375   0.740  12.724  14.719
50179SOL    HW152376   0.812  12.663  14.707
50179SOL    HW252377   0.731  12.732  14.814
50180SOL     OW52378   2.395  10.256  11.843
50180SOL    HW152379   2.391  10.294  11.755
50180SOL    HW252380   2.357  10.169  11.833
50181SOL     OW52381   2.912  10.271  10.588
50181SOL    HW152382   2.826  10.252  10.551
50181SOL    HW252383   2.910  10.233  10.676
50182SOL     OW52384   0.500   4.186   3.391
50182SOL    HW152385   0.468   4.218   3.475
50182SOL    HW252386   0.491   4.091   3.396
50183SOL     OW52387   3.820   9.296   7.797
50183SOL    HW152388   3.850   9.325   7.711
50183SOL    HW252389   3.835   9.202   7.797
50184SOL     OW52390  10.567   3.270   3.558
50184SOL    HW152391  10.600   3.261   3.469
50184SOL    HW252392  10.489   3.215   3.561
50185SOL     OW52393  11.360  13.638   4.284
50185SOL    HW152394  11.287  13.588   4.320
50185SOL    HW252395  11.382  13.593   4.202
50186SOL     OW52396   9.594   3.618   0.824
50186SOL    HW152397   9.647   3.545   0.856
50186SOL    HW252398   9.526   3.630   0.890
50187SOL     OW52399   3.039   6.793  13.824
50187SOL    HW152400   3.112   6.761  13.877
50187SOL    HW252401   2.964   6.791  13.884
50188SOL     OW52402   7.632   3.695   9.654
50188SOL    HW152403   7.669   3.688   9.566
50188SOL    HW252404   7.706   3.724   9.709
50189SOL     OW52405   5.012   1.523   4.320
50189SOL    HW152406   5.043   1.607   4.285
50189SOL    HW252407   4.947   1.494   4.256
50190SOL     OW52408   0.488  11.890  10.724
50190SOL    HW152409   0.452  11.977  10.741
50190SOL    HW252410   0.448  11.864  10.641
50191SOL     OW52411   6.591   5.740   6.954
50191SOL    HW152412   6.513   5.771   6.907
50191SOL    HW252413   6.621   5.665   6.903
50192SOL     OW52414   1.503   2.404   6.362
50192SOL    HW152415   1.438   2.382   6.295
50192SOL    HW252416   1.462   2.381   6.445
50193SOL     OW52417   3.676   7.795   9.880
50193SOL    HW152418   3.626   7.873   9.906
50193SOL    HW252419   3.712   7.761   9.962
50194SOL     OW52420   8.714   9.361   4.221
50194SOL    HW152421   8.739   9.415   4.296
50194SOL    HW252422   8.689   9.423   4.154
50195SOL     OW52423  11.644   3.421   0.124
50195SOL    HW152424  11.568   3.466   0.088
50195SOL    HW252425  11.649   3.339   0.076
50196SOL     OW52426  10.282  14.803   8.545
50196SOL    HW152427  10.303  14.791   8.452
50196SOL    HW252428  10.196  14.845   8.544
50197SOL     OW52429  12.278   6.661   8.797
50197SOL    HW152430  12.183   6.657   8.784
50197SOL    HW252431  12.291   6.627   8.885
50198SOL     OW52432   5.695   6.584   0.925
50198SOL    HW152433   5.646   6.542   0.996
50198SOL    HW252434   5.641   6.659   0.899
50199SOL     OW52435   2.077   1.670  14.372
50199SOL    HW152436   2.051   1.646  14.283
50199SOL    HW252437   2.171   1.688  14.366
50200SOL     OW52438  13.376   3.726  12.985
50200SOL    HW152439  13.310   3.657  12.983
50200SOL    HW252440  13.331   3.804  12.953
50201SOL     OW52441   5.750   9.600   7.500
50201SOL    HW152442   5.680   9.656   7.466
50201SOL    HW252443   5.825   9.619   7.445
50202SOL     OW52444   2.922   5.617  14.630
50202SOL    HW152445   2.958   5.575  14.708
50202SOL    HW252446   2.991   5.608  14.564
50203SOL     OW52447   1.091   7.688  11.610
50203SOL    HW152448   1.146   7.763  11.631
50203SOL    HW252449   1.025   7.723  11.549
50204SOL     OW52450   8.271   6.099   5.495
50204SOL    HW152451   8.270   6.057   5.581
50204SOL    HW252452   8.273   6.027   5.433
50205SOL     OW52453   3.966   7.837   8.721
50205SOL    HW152454   3.933   7.925   8.703
50205SOL    HW252455   3.935   7.785   8.647
50206SOL     OW52456  14.660   0.149   1.329
50206SOL    HW152457  14.630   0.240   1.339
50206SOL    HW252458  14.686   0.143   1.237
50207SOL     OW52459   5.792  11.490   8.825
50207SOL    HW152460   5.750  11.425   8.768
50207SOL    HW252461   5.787  11.452   8.913
50208SOL     OW52462   5.879   8.026   6.552
50208SOL    HW152463   5.798   7.986   6.520
50208SOL    HW252464   5.947   7.990   6.497
50209SOL     OW52465  12.755   6.821  12.065
50209SOL    HW152466  12.698   6.859  11.999
50209SOL    HW252467  12.837   6.803  12.018
50210SOL     OW52468   2.479  14.790  10.057
50210SOL    HW152469   2.446  14.701  10.068
50210SOL    HW252470   2.560  14.780  10.007
50211SOL     OW52471   9.146  13.381  14.849
50211SOL    HW152472   9.208  13.439  14.806
50211SOL    HW252473   9.086  13.353  14.780
50212SOL     OW52474   7.685   2.777   4.337
50212SOL    HW152475   7.643   2.777   4.423
50212SOL    HW252476   7.724   2.864   4.330
50213SOL     OW52477  13.193   1.136   3.863
50213SOL    HW152478  13.135   1.060   3.855
50213SOL    HW252479  13.249   1.133   3.786
50214SOL     OW52480   8.276   8.292   9.011
50214SOL    HW152481   8.362   8.252   8.995
50214SOL    HW252482   8.282   8.327   9.100
50215SOL     OW52483   6.201   4.688   0.847
50215SOL    HW152484   6.166   4.709   0.934
50215SOL    HW252485   6.274   4.748   0.835
50216SOL     OW52486   0.789   8.542  13.590
50216SOL    HW152487   0.718   8.602  13.568
50216SOL    HW252488   0.867   8.597  13.592
50217SOL     OW52489   1.677  12.290  12.518
50217SOL    HW152490   1.585  12.313  12.518
50217SOL    HW252491   1.679  12.195  12.509
50218SOL     OW52492   4.449   9.440   5.286
50218SOL    HW152493   4.501   9.496   5.228
50218SOL    HW252494   4.506   9.367   5.307
50219SOL     OW52495   7.653   6.019   3.995
50219SOL    HW152496   7.570   6.063   3.976
50219SOL    HW252497   7.633   5.958   4.065
50220SOL     OW52498   1.841   0.598   6.805
50220SOL    HW152499   1.804   0.613   6.718
50220SOL    HW252500   1.823   0.505   6.823
50221SOL     OW52501   0.106   2.537  13.437
50221SOL    HW152502   0.181   2.481  13.421
50221SOL    HW252503   0.143   2.623  13.456
50222SOL     OW52504   5.819  10.864   8.898
50222SOL    HW152505   5.805  10.932   8.965
50222SOL    HW252506   5.909  10.836   8.911
50223SOL     OW52507   0.355  14.807   8.025
50223SOL    HW152508   0.277  14.786   7.973
50223SOL    HW252509   0.343  14.760   8.107
50224SOL     OW52510   3.211   1.928   5.707
50224SOL    HW152511   3.261   1.955   5.630
50224SOL    HW252512   3.143   1.995   5.715
50225SOL     OW52513   5.594  12.173   1.077
50225SOL    HW152514   5.565  12.151   0.989
50225SOL    HW252515   5.561  12.101   1.132
50226SOL     OW52516   7.208  10.098   7.202
50226SOL    HW152517   7.203  10.036   7.275
50226SOL    HW252518   7.135  10.158   7.217
50227SOL     OW52519  12.724  10.178   8.591
50227SOL    HW152520  12.728  10.214   8.680
50227SOL    HW252521  12.813  10.185   8.558
50228SOL     OW52522   9.260  14.474   0.728
50228SOL    HW152523   9.345  14.518   0.729
50228SOL    HW252524   9.209  14.522   0.662
50229SOL     OW52525   7.971   1.412   0.958
50229SOL    HW152526   8.016   1.445   1.036
50229SOL    HW252527   7.941   1.491   0.912
50230SOL     OW52528   9.609   0.564   7.888
50230SOL    HW152529   9.562   0.636   7.930
50230SOL    HW252530   9.701   0.580   7.908
50231SOL     OW52531   9.110   6.747  11.709
50231SOL    HW152532   9.081   6.659  11.684
50231SOL    HW252533   9.054   6.806  11.660
50232SOL     OW52534   9.855   3.035   8.420
50232SOL    HW152535   9.889   3.117   8.385
50232SOL    HW252536   9.765   3.030   8.386
50233SOL     OW52537   5.028   5.679   4.037
50233SOL    HW152538   4.942   5.644   4.058
50233SOL    HW252539   5.077   5.673   4.119
50234SOL     OW52540   9.843   1.313  11.236
50234SOL    HW152541   9.930   1.318  11.197
50234SOL    HW252542   9.803   1.236  11.196
50235SOL     OW52543   2.569   8.594   8.116
50235SOL    HW152544   2.632   8.666   8.110
50235SOL    HW252545   2.499   8.627   8.172
50236SOL     OW52546   9.991  12.073  10.938
50236SOL    HW152547   9.980  12.044  10.847
50236SOL    HW252548  10.013  11.993  10.986
50237SOL     OW52549   7.867   5.275   8.629
50237SOL    HW152550   7.890   5.199   8.575
50237SOL    HW252551   7.918   5.347   8.591
50238SOL     OW52552  11.126   2.750   6.834
50238SOL    HW152553  11.203   2.700   6.804
50238SOL    HW252554  11.103   2.710   6.918
50239SOL     OW52555   7.254   5.246   9.004
50239SOL    HW152556   7.203   5.187   8.949
50239SOL    HW252557   7.190   5.307   9.039
50240SOL     OW52558  12.201   6.059   0.768
50240SOL    HW152559  12.229   5.968   0.759
50240SOL    HW252560  12.203   6.093   0.678
50241SOL     OW52561   9.766   2.184  11.889
50241SOL    HW152562   9.807   2.198  11.974
50241SOL    HW252563   9.789   2.094  11.866
50242SOL     OW52564  13.368   8.201   7.148
50242SOL    HW152565  13.435   8.133   7.152
50242SOL    HW252566  13.285   8.154   7.158
50243SOL     OW52567  10.541   3.847  14.170
50243SOL    HW152568  10.627   3.885  14.157
50243SOL    HW252569  10.558   3.764  14.215
50244SOL     OW52570   8.709   4.169   7.243
50244SOL    HW152571   8.712   4.075   7.258
50244SOL    HW252572   8.785   4.187   7.188
50245SOL     OW52573   6.143  13.696  10.656
50245SOL    HW152574   6.101  13.641  10.590
50245SOL    HW252575   6.132  13.785  10.623
50246SOL     OW52576   6.880   8.701   5.071
50246SOL    HW152577   6.974   8.717   5.070
50246SOL    HW252578   6.869   8.626   5.129
50247SOL     OW52579   2.439  10.907  13.735
50247SOL    HW152580   2.505  10.868  13.793
50247SOL    HW252581   2.394  10.971  13.790
50248SOL     OW52582   1.832   3.716   7.373
50248SOL    HW152583   1.802   3.799   7.337
50248SOL    HW252584   1.753   3.661   7.375
50249SOL     OW52585   2.360   1.209   7.147
50249SOL    HW152586   2.296   1.149   7.109
50249SOL    HW252587   2.433   1.154   7.175
50250SOL     OW52588   1.235   8.259   0.959
50250SOL    HW152589   1.190   8.342   0.975
50250SOL    HW252590   1.305   8.282   0.898
50251SOL     OW52591  14.450   3.611   5.150
50251SOL    HW152592  14.483   3.624   5.061
50251SOL    HW252593  14.525   3.631   5.207
50252SOL     OW52594   5.607   8.746  13.245
50252SOL    HW152595   5.574   8.672  13.195
50252SOL    HW252596   5.596   8.720  13.337
50253SOL     OW52597  12.454   3.892  12.986
50253SOL    HW152598  12.378   3.917  12.934
50253SOL    HW252599  12.431   3.808  13.024
50254SOL     OW52600   8.894   7.245   2.547
50254SOL    HW152601   8.857   7.161   2.576
50254SOL    HW252602   8.949   7.273   2.620
50255SOL     OW52603   6.446   8.686   8.085
50255SOL    HW152604   6.487   8.696   8.170
50255SOL    HW252605   6.407   8.772   8.067
50256SOL     OW52606   6.038  14.185   3.542
50256SOL    HW152607   5.981  14.121   3.583
50256SOL    HW252608   6.018  14.267   3.587
50257SOL     OW52609  13.039   6.548   2.722
50257SOL    HW152610  13.105   6.481   2.712
50257SOL    HW252611  13.056   6.587   2.808
50258SOL     OW52612  13.949   0.690  12.393
50258SOL    HW152613  13.906   0.663  12.312
50258SOL    HW252614  13.986   0.610  12.429
50259SOL     OW52615  13.112  10.851   1.674
50259SOL    HW152616  13.139  10.768   1.635
50259SOL    HW252617  13.194  10.899   1.687
50260SOL     OW52618   3.830   8.330   7.426
50260SOL    HW152619   3.914   8.367   7.456
50260SOL    HW252620   3.850   8.239   7.404
50261SOL     OW52621   0.165  10.547   5.496
50261SOL    HW152622   0.216  10.592   5.429
50261SOL    HW252623   0.229  10.516   5.559
50262SOL     OW52624   0.837   1.492  13.547
50262SOL    HW152625   0.770   1.467  13.484
50262SOL    HW252626   0.835   1.588  13.548
50263SOL     OW52627  13.788   1.898   5.609
50263SOL    HW152628  13.812   1.966   5.672
50263SOL    HW252629  13.730   1.943   5.547
50264SOL     OW52630   7.332   0.334  10.170
50264SOL    HW152631   7.241   0.330  10.143
50264SOL    HW252632   7.358   0.425  10.155
50265SOL     OW52633   9.584  11.774  12.337
50265SOL    HW152634   9.489  11.768  12.324
50265SOL    HW252635   9.594  11.808  12.426
50266SOL     OW52636   6.340  11.188   8.481
50266SOL    HW152637   6.426  11.146   8.489
50266SOL    HW252638   6.358  11.282   8.487
50267SOL     OW52639  11.995   5.942   9.239
50267SOL    HW152640  11.962   5.854   9.256
50267SOL    HW252641  11.957   5.996   9.307
50268SOL     OW52642   2.202   6.154  12.548
50268SOL    HW152643   2.113   6.187  12.535
50268SOL    HW252644   2.229   6.190  12.632
50269SOL     OW52645  12.347  10.097  14.232
50269SOL    HW152646  12.343  10.007  14.264
50269SOL    HW252647  12.290  10.146  14.292
50270SOL     OW52648   3.291   2.316   3.763
50270SOL    HW152649   3.378   2.326   3.725
50270SOL    HW252650   3.231   2.346   3.693
50271SOL     OW52651   2.674   7.530   8.173
50271SOL    HW152652   2.762   7.501   8.198
50271SOL    HW252653   2.627   7.537   8.256
50272SOL     OW52654  10.288  12.882   3.295
50272SOL    HW152655  10.281  12.961   3.349
50272SOL    HW252656  10.334  12.911   3.216
50273SOL     OW52657   3.380   2.266   6.701
50273SOL    HW152658   3.356   2.355   6.677
50273SOL    HW252659   3.352   2.213   6.626
50274SOL     OW52660   4.147  11.683   8.320
50274SOL    HW152661   4.173  11.752   8.380
50274SOL    HW252662   4.073  11.720   8.271
50275SOL     OW52663   5.427   1.895   6.476
50275SOL    HW152664   5.332   1.885   6.476
50275SOL    HW252665   5.451   1.904   6.568
50276SOL     OW52666   7.239  11.073   1.504
50276SOL    HW152667   7.152  11.090   1.541
50276SOL    HW252668   7.240  10.980   1.486
50277SOL     OW52669   2.410  14.577  14.509
50277SOL    HW152670   2.463  14.516  14.459
50277SOL    HW252671   2.412  14.543  14.598
50278SOL     OW52672   9.901   6.577   0.926
50278SOL    HW152673   9.930   6.555   0.837
50278SOL    HW252674   9.827   6.520   0.942
50279SOL     OW52675  13.696   5.101  11.386
50279SOL    HW152676  13.664   5.164  11.321
50279SOL    HW252677  13.618   5.072  11.433
50280SOL     OW52678  13.989   5.937  11.591
50280SOL    HW152679  14.016   5.851  11.621
50280SOL    HW252680  13.994   5.932  11.495
50281SOL     OW52681  13.766   5.465  12.836
50281SOL    HW152682  13.684   5.515  12.840
50281SOL    HW252683  13.777   5.445  12.743
50282SOL     OW52684  11.084  11.835   3.138
50282SOL    HW152685  11.138  11.802   3.066
50282SOL    HW252686  11.027  11.762   3.160
50283SOL     OW52687   0.059  13.276   6.066
50283SOL    HW152688   0.068  13.217   5.991
50283SOL    HW252689  14.841  13.303   6.065
50284SOL     OW52690  13.630   4.990   4.225
50284SOL    HW152691  13.647   5.084   4.213
50284SOL    HW252692  13.655   4.951   4.141
50285SOL     OW52693  13.516   2.656   9.190
50285SOL    HW152694  13.608   2.629   9.184
50285SOL    HW252695  13.501   2.708   9.112
50286SOL     OW52696   4.469  11.518   9.400
50286SOL    HW152697   4.396  11.564   9.440
50286SOL    HW252698   4.433  11.433   9.375
50287SOL     OW52699   3.775  11.139  11.344
50287SOL    HW152700   3.850  11.083  11.322
50287SOL    HW252701   3.796  11.173  11.431
50288SOL     OW52702  11.654  13.275   8.209
50288SOL    HW152703  11.683  13.194   8.167
50288SOL    HW252704  11.560  13.264   8.222
50289SOL     OW52705   2.007  10.416  10.516
50289SOL    HW152706   1.914  10.413  10.496
50289SOL    HW252707   2.011  10.424  10.612
50290SOL     OW52708   3.521   5.358   4.950
50290SOL    HW152709   3.560   5.446   4.947
50290SOL    HW252710   3.522   5.336   5.044
50291SOL     OW52711  12.014   3.167   6.382
50291SOL    HW152712  12.035   3.183   6.474
50291SOL    HW252713  11.961   3.087   6.383
50292SOL     OW52714   7.369  13.842  12.794
50292SOL    HW152715   7.435  13.906  12.768
50292SOL    HW252716   7.404  13.803  12.874
50293SOL     OW52717   9.267   7.220   8.583
50293SOL    HW152718   9.224   7.276   8.647
50293SOL    HW252719   9.201   7.205   8.516
50294SOL     OW52720   2.497  10.021  13.182
50294SOL    HW152721   2.472  10.019  13.274
50294SOL    HW252722   2.551   9.942  13.171
50295SOL     OW52723   8.316   6.346   7.758
50295SOL    HW152724   8.300   6.358   7.851
50295SOL    HW252725   8.369   6.422   7.733
50296SOL     OW52726  10.288  10.853   4.862
50296SOL    HW152727  10.239  10.836   4.942
50296SOL    HW252728  10.224  10.892   4.802
50297SOL     OW52729   2.567   4.475   2.762
50297SOL    HW152730   2.495   4.535   2.780
50297SOL    HW252731   2.584   4.432   2.846
50298SOL     OW52732  13.530   0.894   8.944
50298SOL    HW152733  13.552   0.968   8.887
50298SOL    HW252734  13.554   0.816   8.893
50299SOL     OW52735   1.620   7.186   9.117
50299SOL    HW152736   1.646   7.180   9.209
50299SOL    HW252737   1.537   7.233   9.119
50300SOL     OW52738  14.312   8.284   2.386
50300SOL    HW152739  14.277   8.197   2.407
50300SOL    HW252740  14.234   8.338   2.374
50301SOL     OW52741   2.591  11.596   8.664
50301SOL    HW152742   2.546  11.518   8.631
50301SOL    HW252743   2.599  11.653   8.587
50302SOL     OW52744   0.203   6.466  10.204
50302SOL    HW152745   0.128   6.422  10.245
50302SOL    HW252746   0.165   6.513  10.130
50303SOL     OW52747  11.330   3.546  11.782
50303SOL    HW152748  11.359   3.570  11.694
50303SOL    HW252749  11.346   3.452  11.788
50304SOL     OW52750  11.179  13.267   2.124
50304SOL    HW152751  11.152  13.197   2.184
50304SOL    HW252752  11.266  13.293   2.155
50305SOL     OW52753   3.365   2.129  11.981
50305SOL    HW152754   3.420   2.195  12.022
50305SOL    HW252755   3.282   2.133  12.029
50306SOL     OW52756   0.247   6.625   4.126
50306SOL    HW152757   0.324   6.680   4.113
50306SOL    HW252758   0.281   6.545   4.166
50307SOL     OW52759   1.498  14.512   4.184
50307SOL    HW152760   1.539  14.478   4.264
50307SOL    HW252761   1.565  14.567   4.144
50308SOL     OW52762   3.481   2.085  13.432
50308SOL    HW152763   3.541   2.019  13.466
50308SOL    HW252764   3.522   2.168  13.454
50309SOL     OW52765  11.257   5.600   8.421
50309SOL    HW152766  11.183   5.539   8.411
50309SOL    HW252767  11.248   5.660   8.347
50310SOL     OW52768   2.280   7.945   5.703
50310SOL    HW152769   2.234   7.894   5.770
50310SOL    HW252770   2.341   8.000   5.753
50311SOL     OW52771   0.385   4.970  10.276
50311SOL    HW152772   0.458   4.908  10.278
50311SOL    HW252773   0.406   5.030  10.205
50312SOL     OW52774  14.798   7.269  10.623
50312SOL    HW152775  14.859   7.335  10.655
50312SOL    HW252776  14.813   7.265  10.528
50313SOL     OW52777   3.742   4.926   6.784
50313SOL    HW152778   3.769   4.897   6.871
50313SOL    HW252779   3.759   4.851   6.727
50314SOL     OW52780  10.279   5.960   7.302
50314SOL    HW152781  10.226   5.911   7.365
50314SOL    HW252782  10.235   5.945   7.218
50315SOL     OW52783  10.242  13.247   8.337
50315SOL    HW152784  10.328  13.288   8.346
50315SOL    HW252785  10.258  13.154   8.348
50316SOL     OW52786   7.857   2.645   5.390
50316SOL    HW152787   7.924   2.617   5.452
50316SOL    HW252788   7.902   2.702   5.328
50317SOL     OW52789  11.670  12.941   5.490
50317SOL    HW152790  11.700  12.859   5.529
50317SOL    HW252791  11.591  12.917   5.441
50318SOL     OW52792  10.149  11.387  11.261
50318SOL    HW152793  10.225  11.403  11.317
50318SOL    HW252794  10.115  11.302  11.290
50319SOL     OW52795  13.872  13.340  10.526
50319SOL    HW152796  13.928  13.301  10.593
50319SOL    HW252797  13.822  13.407  10.571
50320SOL     OW52798   0.313  14.131   4.537
50320SOL    HW152799   0.263  14.212   4.550
50320SOL    HW252800   0.356  14.115   4.621
50321SOL     OW52801  13.874  13.348   2.319
50321SOL    HW152802  13.783  13.375   2.332
50321SOL    HW252803  13.898  13.385   2.234
50322SOL     OW52804  13.776   4.017   1.841
50322SOL    HW152805  13.797   3.957   1.769
50322SOL    HW252806  13.686   3.994   1.866
50323SOL     OW52807   2.075   1.309   8.663
50323SOL    HW152808   2.007   1.285   8.726
50323SOL    HW252809   2.052   1.262   8.583
50324SOL     OW52810   9.265   3.956  11.928
50324SOL    HW152811   9.327   4.020  11.961
50324SOL    HW252812   9.179   3.987  11.959
50325SOL     OW52813   6.465  13.806  12.164
50325SOL    HW152814   6.451  13.894  12.130
50325SOL    HW252815   6.418  13.804  12.248
50326SOL     OW52816  14.797  13.320   4.843
50326SOL    HW152817  14.763  13.251   4.900
50326SOL    HW252818  14.724  13.382   4.835
50327SOL     OW52819   7.213   9.958  10.939
50327SOL    HW152820   7.230  10.023  11.008
50327SOL    HW252821   7.297   9.950  10.894
50328SOL     OW52822   3.544   5.775   6.470
50328SOL    HW152823   3.579   5.837   6.407
50328SOL    HW252824   3.472   5.732   6.423
50329SOL     OW52825   7.141  12.787   3.230
50329SOL    HW152826   7.207  12.739   3.181
50329SOL    HW252827   7.129  12.868   3.181
50330SOL     OW52828  11.677   6.550   2.967
50330SOL    HW152829  11.732   6.473   2.948
50330SOL    HW252830  11.615   6.554   2.895
50331SOL     OW52831   7.816  10.548  12.010
50331SOL    HW152832   7.863  10.494  12.074
50331SOL    HW252833   7.729  10.557  12.047
50332SOL     OW52834   6.247  13.513   8.620
50332SOL    HW152835   6.276  13.581   8.559
50332SOL    HW252836   6.326  13.462   8.638
50333SOL     OW52837   6.081   2.123  10.423
50333SOL    HW152838   6.084   2.029  10.440
50333SOL    HW252839   5.988   2.145  10.427
50334SOL     OW52840  11.790   6.708  14.611
50334SOL    HW152841  11.713   6.762  14.631
50334SOL    HW252842  11.799   6.649  14.685
50335SOL     OW52843   2.556   6.926  14.049
50335SOL    HW152844   2.646   6.912  14.075
50335SOL    HW252845   2.556   6.911  13.954
50336SOL     OW52846  10.234   5.114  12.601
50336SOL    HW152847  10.198   5.189  12.553
50336SOL    HW252848  10.158   5.065  12.630
50337SOL     OW52849   5.398  14.612  13.178
50337SOL    HW152850   5.400  14.674  13.251
50337SOL    HW252851   5.485  14.621  13.137
50338SOL     OW52852   2.981   3.557   5.380
50338SOL    HW152853   2.990   3.558   5.476
50338SOL    HW252854   2.957   3.466   5.360
50339SOL     OW52855   0.950  10.778   0.941
50339SOL    HW152856   0.903  10.814   0.866
50339SOL    HW252857   0.881  10.756   1.004
50340SOL     OW52858   2.538   8.364  10.679
50340SOL    HW152859   2.599   8.307  10.726
50340SOL    HW252860   2.502   8.421  10.747
50341SOL     OW52861   2.956   1.015   7.153
50341SOL    HW152862   2.871   1.035   7.114
50341SOL    HW252863   3.005   1.097   7.147
50342SOL     OW52864   2.914  13.258   5.148
50342SOL    HW152865   2.839  13.310   5.121
50342SOL    HW252866   2.957  13.311   5.215
50343SOL     OW52867   9.405   4.091   1.894
50343SOL    HW152868   9.461   4.026   1.852
50343SOL    HW252869   9.368   4.142   1.822
50344SOL     OW52870  14.666   8.231   5.739
50344SOL    HW152871  14.593   8.209   5.681
50344SOL    HW252872  14.707   8.147   5.759
50345SOL     OW52873   1.230   4.628  14.841
50345SOL    HW152874   1.291   4.674  14.784
50345SOL    HW252875   1.144   4.658  14.813
50346SOL     OW52876  11.852   5.033   5.841
50346SOL    HW152877  11.904   4.968   5.890
50346SOL    HW252878  11.830   4.988   5.759
50347SOL     OW52879  10.657   3.712  12.733
50347SOL    HW152880  10.602   3.657  12.790
50347SOL    HW252881  10.710   3.650  12.684
50348SOL     OW52882   6.505  11.807  12.121
50348SOL    HW152883   6.582  11.776  12.168
50348SOL    HW252884   6.432  11.758  12.160
50349SOL     OW52885   3.012   9.711   3.621
50349SOL    HW152886   2.959   9.692   3.544
50349SOL    HW252887   3.084   9.766   3.587
50350SOL     OW52888   8.193   4.044   5.739
50350SOL    HW152889   8.218   3.954   5.759
50350SOL    HW252890   8.098   4.042   5.731
50351SOL     OW52891   5.923   1.729   4.838
50351SOL    HW152892   5.924   1.804   4.778
50351SOL    HW252893   5.895   1.766   4.922
50352SOL     OW52894  13.601   5.627   6.395
50352SOL    HW152895  13.518   5.617   6.441
50352SOL    HW252896  13.668   5.619   6.463
50353SOL     OW52897   4.540   8.767   4.464
50353SOL    HW152898   4.455   8.811   4.462
50353SOL    HW252899   4.554   8.745   4.556
50354SOL     OW52900  13.242   6.437   8.708
50354SOL    HW152901  13.178   6.369   8.725
50354SOL    HW252902  13.232   6.498   8.781
50355SOL     OW52903   9.235   6.375   1.780
50355SOL    HW152904   9.305   6.330   1.734
50355SOL    HW252905   9.188   6.423   1.712
50356SOL     OW52906   5.751  13.654   0.303
50356SOL    HW152907   5.779  13.570   0.265
50356SOL    HW252908   5.659  13.663   0.277
50357SOL     OW52909   4.445   5.600  14.798
50357SOL    HW152910   4.506   5.564  14.862
50357SOL    HW252911   4.437   5.532  14.731
50358SOL     OW52912  10.234   4.373   2.806
50358SOL    HW152913  10.306   4.345   2.750
50358SOL    HW252914  10.223   4.466   2.788
50359SOL     OW52915  10.004   1.933   6.290
50359SOL    HW152916  10.046   2.013   6.259
50359SOL    HW252917   9.973   1.890   6.211
50360SOL     OW52918  12.186  14.718   3.594
50360SOL    HW152919  12.265  14.772   3.585
50360SOL    HW252920  12.219  14.634   3.625
50361SOL     OW52921   0.544   9.797   8.279
50361SOL    HW152922   0.503   9.719   8.241
50361SOL    HW252923   0.508   9.802   8.368
50362SOL     OW52924   5.243   1.144   6.290
50362SOL    HW152925   5.219   1.105   6.374
50362SOL    HW252926   5.319   1.095   6.261
50363SOL     OW52927   3.430   0.800   2.363
50363SOL    HW152928   3.385   0.813   2.279
50363SOL    HW252929   3.467   0.712   2.357
50364SOL     OW52930  13.054   9.024  10.557
50364SOL    HW152931  12.974   8.974  10.572
50364SOL    HW252932  13.048   9.053  10.466
50365SOL     OW52933  12.456   8.655   5.662
50365SOL    HW152934  12.380   8.622   5.710
50365SOL    HW252935  12.420   8.715   5.597
50366SOL     OW52936   0.894   9.478  10.566
50366SOL    HW152937   0.800   9.462  10.559
50366SOL    HW252938   0.930   9.393  10.592
50367SOL     OW52939   3.581  13.696   6.052
50367SOL    HW152940   3.549  13.623   6.105
50367SOL    HW252941   3.651  13.658   5.999
50368SOL     OW52942  10.873   1.630   9.253
50368SOL    HW152943  10.915   1.716   9.266
50368SOL    HW252944  10.942   1.567   9.273
50369SOL     OW52945   8.068  10.093   1.735
50369SOL    HW152946   8.031  10.179   1.755
50369SOL    HW252947   8.121  10.108   1.656
50370SOL     OW52948   7.548  11.715   6.805
50370SOL    HW152949   7.518  11.806   6.800
50370SOL    HW252950   7.494  11.675   6.873
50371SOL     OW52951   4.764   4.161  14.627
50371SOL    HW152952   4.702   4.108  14.578
50371SOL    HW252953   4.710   4.228  14.669
50372SOL     OW52954  11.475  10.553   1.830
50372SOL    HW152955  11.566  10.573   1.808
50372SOL    HW252956  11.429  10.636   1.820
50373SOL     OW52957   9.094   1.815  11.947
50373SOL    HW152958   9.055   1.897  11.976
50373SOL    HW252959   9.097   1.823  11.851
50374SOL     OW52960   7.660   9.790   3.376
50374SOL    HW152961   7.732   9.852   3.381
50374SOL    HW252962   7.683   9.721   3.439
50375SOL     OW52963   7.232  12.497   5.476
50375SOL    HW152964   7.163  12.481   5.540
50375SOL    HW252965   7.263  12.585   5.497
50376SOL     OW52966   8.019  13.011   0.025
50376SOL    HW152967   8.059  13.073  14.837
50376SOL    HW252968   8.090  12.950   0.047
50377SOL     OW52969  10.789   0.622   7.468
50377SOL    HW152970  10.737   0.701   7.486
50377SOL    HW252971  10.853   0.619   7.538
50378SOL     OW52972   8.859   5.847  10.993
50378SOL    HW152973   8.810   5.857  11.075
50378SOL    HW252974   8.860   5.752  10.978
50379SOL     OW52975   7.134   3.213  11.941
50379SOL    HW152976   7.148   3.121  11.963
50379SOL    HW252977   7.088   3.212  11.858
50380SOL     OW52978   1.764   1.619   3.033
50380SOL    HW152979   1.808   1.536   3.015
50380SOL    HW252980   1.719   1.605   3.116
50381SOL     OW52981   3.471   0.325  14.252
50381SOL    HW152982   3.530   0.350  14.323
50381SOL    HW252983   3.485   0.392  14.185
50382SOL     OW52984  13.602   1.705   7.356
50382SOL    HW152985  13.547   1.780   7.335
50382SOL    HW252986  13.547   1.647   7.408
50383SOL     OW52987  11.818   7.221   4.307
50383SOL    HW152988  11.780   7.220   4.395
50383SOL    HW252989  11.913   7.213   4.322
50384SOL     OW52990   6.197  12.989   3.979
50384SOL    HW152991   6.169  12.995   4.070
50384SOL    HW252992   6.276  13.044   3.975
50385SOL     OW52993   4.092   8.692   9.916
50385SOL    HW152994   4.137   8.699  10.001
50385SOL    HW252995   4.048   8.607   9.919
50386SOL     OW52996   4.726   4.420  10.565
50386SOL    HW152997   4.679   4.338  10.553
50386SOL    HW252998   4.751   4.420  10.658
50387SOL     OW52999   3.261   3.469   6.962
50387SOL    HW153000   3.334   3.414   6.987
50387SOL    HW253001   3.213   3.418   6.897
50388SOL     OW53002  11.258   7.125  13.706
50388SOL    HW153003  11.272   7.092  13.795
50388SOL    HW253004  11.198   7.199  13.717
50389SOL     OW53005   7.963  10.239  11.899
50389SOL    HW153006   7.893  10.265  11.958
50389SOL    HW253007   8.006  10.165  11.943
50390SOL     OW53008   6.514  10.629   4.049
50390SOL    HW153009   6.608  10.620   4.065
50390SOL    HW253010   6.485  10.695   4.112
50391SOL     OW53011   2.775  12.844   4.894
50391SOL    HW153012   2.778  12.928   4.939
50391SOL    HW253013   2.702  12.797   4.934
50392SOL     OW53014   9.926   4.658   0.189
50392SOL    HW153015   9.996   4.702   0.140
50392SOL    HW253016   9.969   4.629   0.270
50393SOL     OW53017  14.844   5.520   2.541
50393SOL    HW153018  14.760   5.477   2.560
50393SOL    HW253019  14.843   5.599   2.594
50394SOL     OW53020   1.024  12.694   2.126
50394SOL    HW153021   1.000  12.669   2.216
50394SOL    HW253022   1.119  12.686   2.124
50395SOL     OW53023   0.564   7.872   7.911
50395SOL    HW153024   0.567   7.966   7.930
50395SOL    HW253025   0.471   7.852   7.903
50396SOL     OW53026   1.550   2.279   2.690
50396SOL    HW153027   1.475   2.254   2.745
50396SOL    HW253028   1.602   2.199   2.684
50397SOL     OW53029   7.562   3.213   5.219
50397SOL    HW153030   7.635   3.198   5.160
50397SOL    HW253031   7.517   3.128   5.223
50398SOL     OW53032  10.270   9.325  10.904
50398SOL    HW153033  10.249   9.247  10.955
50398SOL    HW253034  10.326   9.377  10.961
50399SOL     OW53035   9.909   2.961  14.005
50399SOL    HW153036   9.862   3.043  14.017
50399SOL    HW253037   9.842   2.894  14.010
50400SOL     OW53038   4.658   6.038  11.996
50400SOL    HW153039   4.656   5.946  11.968
50400SOL    HW253040   4.622   6.086  11.921
50401SOL     OW53041  14.034   1.517  13.941
50401SOL    HW153042  14.119   1.555  13.920
50401SOL    HW253043  14.049   1.467  14.021
50402SOL     OW53044   7.075   0.302   6.281
50402SOL    HW153045   7.112   0.299   6.369
50402SOL    HW253046   7.027   0.220   6.272
50403SOL     OW53047   6.614  14.025  11.942
50403SOL    HW153048   6.684  14.050  11.880
50403SOL    HW253049   6.535  14.022  11.888
50404SOL     OW53050   3.618   4.087   5.936
50404SOL    HW153051   3.656   4.175   5.938
50404SOL    HW253052   3.545   4.091   5.997
50405SOL     OW53053   2.857   3.140   6.674
50405SOL    HW153054   2.923   3.109   6.611
50405SOL    HW253055   2.811   3.060   6.701
50406SOL     OW53056   9.487   2.105   8.932
50406SOL    HW153057   9.538   2.102   9.013
50406SOL    HW253058   9.400   2.136   8.959
50407SOL     OW53059  10.021   1.017   5.817
50407SOL    HW153060  10.019   1.088   5.753
50407SOL    HW253061   9.930   1.007   5.845
50408SOL     OW53062   6.087  13.803   8.389
50408SOL    HW153063   6.099  13.892   8.356
50408SOL    HW253064   6.002  13.776   8.355
50409SOL     OW53065  14.789   3.644   6.030
50409SOL    HW153066  14.745   3.560   6.043
50409SOL    HW253067  14.720   3.709   6.039
50410SOL     OW53068  11.119   9.683   9.981
50410SOL    HW153069  11.211   9.709   9.990
50410SOL    HW253070  11.075   9.723  10.055
50411SOL     OW53071  10.279   1.193   2.092
50411SOL    HW153072  10.299   1.259   2.159
50411SOL    HW253073  10.184   1.198   2.081
50412SOL     OW53074   5.668   8.333   1.610
50412SOL    HW153075   5.655   8.399   1.678
50412SOL    HW253076   5.580   8.300   1.592
50413SOL     OW53077   4.061  10.720   3.741
50413SOL    HW153078   3.966  10.711   3.742
50413SOL    HW253079   4.092  10.658   3.806
50414SOL     OW53080  10.272   0.477   2.696
50414SOL    HW153081  10.244   0.482   2.787
50414SOL    HW253082  10.251   0.387   2.669
50415SOL     OW53083   6.964   0.862   5.882
50415SOL    HW153084   6.904   0.837   5.952
50415SOL    HW253085   6.912   0.854   5.801
50416SOL     OW53086  12.537  12.504   4.434
50416SOL    HW153087  12.585  12.461   4.364
50416SOL    HW253088  12.579  12.590   4.443
50417SOL     OW53089  12.915  11.932   9.732
50417SOL    HW153090  12.859  11.867   9.774
50417SOL    HW253091  12.872  11.951   9.649
50418SOL     OW53092   2.506   2.923   5.688
50418SOL    HW153093   2.541   2.836   5.706
50418SOL    HW253094   2.583   2.980   5.686
50419SOL     OW53095  10.882   6.254   9.068
50419SOL    HW153096  10.860   6.182   9.009
50419SOL    HW253097  10.962   6.225   9.112
50420SOL     OW53098  14.183   1.487   5.448
50420SOL    HW153099  14.104   1.506   5.499
50420SOL    HW253100  14.164   1.404   5.404
50421SOL     OW53101   5.223   8.179  12.213
50421SOL    HW153102   5.186   8.267  12.221
50421SOL    HW253103   5.152   8.127  12.174
50422SOL     OW53104   0.606  12.393   3.468
50422SOL    HW153105   0.527  12.435   3.435
50422SOL    HW253106   0.583  12.300   3.472
50423SOL     OW53107   5.385   1.605  13.700
50423SOL    HW153108   5.379   1.512  13.677
50423SOL    HW253109   5.427   1.605  13.786
50424SOL     OW53110   9.721   7.186   7.617
50424SOL    HW153111   9.719   7.189   7.713
50424SOL    HW253112   9.764   7.268   7.591
50425SOL     OW53113  14.081   3.134   4.947
50425SOL    HW153114  13.985   3.126   4.945
50425SOL    HW253115  14.106   3.131   4.855
50426SOL     OW53116  13.538   1.327  13.783
50426SOL    HW153117  13.534   1.423  13.777
50426SOL    HW253118  13.493   1.306  13.864
50427SOL     OW53119  10.801   2.505   6.299
50427SOL    HW153120  10.784   2.583   6.246
50427SOL    HW253121  10.766   2.526   6.385
50428SOL     OW53122   9.348   8.935  11.058
50428SOL    HW153123   9.428   8.967  11.101
50428SOL    HW253124   9.376   8.856  11.012
50429SOL     OW53125   4.303   7.140  13.571
50429SOL    HW153126   4.327   7.223  13.612
50429SOL    HW253127   4.352   7.073  13.620
50430SOL     OW53128  11.066  11.426  14.144
50430SOL    HW153129  11.068  11.358  14.076
50430SOL    HW253130  10.995  11.399  14.203
50431SOL     OW53131   6.969  12.785  14.212
50431SOL    HW153132   6.884  12.748  14.187
50431SOL    HW253133   6.972  12.870  14.167
50432SOL     OW53134   9.968   6.872   2.248
50432SOL    HW153135   9.879   6.848   2.272
50432SOL    HW253136  10.008   6.902   2.330
50433SOL     OW53137   1.921   6.495   2.007
50433SOL    HW153138   1.866   6.572   2.018
50433SOL    HW253139   2.010   6.526   2.025
50434SOL     OW53140   4.953  10.137   6.720
50434SOL    HW153141   4.999  10.216   6.693
50434SOL    HW253142   4.959  10.078   6.645
50435SOL     OW53143  10.815  10.253  10.516
50435SOL    HW153144  10.768  10.174  10.541
50435SOL    HW253145  10.871  10.273  10.592
50436SOL     OW53146  11.023  14.551  12.279
50436SOL    HW153147  10.991  14.582  12.364
50436SOL    HW253148  10.981  14.466  12.267
50437SOL     OW53149  13.030  14.734  14.813
50437SOL    HW153150  13.102  14.685  14.772
50437SOL    HW253151  12.982  14.669  14.864
50438SOL     OW53152   6.742  11.598   3.215
50438SOL    HW153153   6.712  11.528   3.157
50438SOL    HW253154   6.662  11.639   3.247
50439SOL     OW53155   8.425   4.917  12.561
50439SOL    HW153156   8.420   5.000  12.607
50439SOL    HW253157   8.516   4.913  12.529
50440SOL     OW53158   4.241   5.376  13.871
50440SOL    HW153159   4.258   5.358  13.963
50440SOL    HW253160   4.153   5.413  13.870
50441SOL     OW53161   4.417   1.019  12.140
50441SOL    HW153162   4.487   1.038  12.077
50441SOL    HW253163   4.367   1.100  12.145
50442SOL     OW53164   8.824   2.945   0.591
50442SOL    HW153165   8.873   2.885   0.646
50442SOL    HW253166   8.732   2.919   0.602
50443SOL     OW53167  10.445   0.194   4.257
50443SOL    HW153168  10.476   0.271   4.208
50443SOL    HW253169  10.361   0.173   4.217
50444SOL     OW53170   8.892  10.312   0.169
50444SOL    HW153171   8.910  10.218   0.174
50444SOL    HW253172   8.949  10.351   0.235
50445SOL     OW53173   5.529  13.578   5.153
50445SOL    HW153174   5.494  13.492   5.176
50445SOL    HW253175   5.623  13.571   5.168
50446SOL     OW53176   0.268   3.213   3.558
50446SOL    HW153177   0.267   3.117   3.555
50446SOL    HW253178   0.361   3.235   3.553
50447SOL     OW53179   4.272  13.920   9.675
50447SOL    HW153180   4.297  13.909   9.767
50447SOL    HW253181   4.243  14.011   9.669
50448SOL     OW53182   1.575   8.520  10.605
50448SOL    HW153183   1.552   8.430  10.585
50448SOL    HW253184   1.580   8.564  10.520
50449SOL     OW53185   7.008   7.871   2.693
50449SOL    HW153186   7.005   7.826   2.609
50449SOL    HW253187   7.062   7.949   2.676
50450SOL     OW53188   4.539  10.995   5.544
50450SOL    HW153189   4.464  10.939   5.525
50450SOL    HW253190   4.512  11.082   5.517
50451SOL     OW53191   4.811   6.529   2.992
50451SOL    HW153192   4.820   6.570   2.906
50451SOL    HW253193   4.744   6.462   2.980
50452SOL     OW53194   7.134  10.488   8.015
50452SOL    HW153195   7.148  10.537   7.934
50452SOL    HW253196   7.043  10.508   8.039
50453SOL     OW53197   3.434   8.465  13.283
50453SOL    HW153198   3.375   8.538  13.266
50453SOL    HW253199   3.403   8.395  13.225
50454SOL     OW53200   3.082   6.784   3.346
50454SOL    HW153201   3.110   6.741   3.265
50454SOL    HW253202   3.001   6.830   3.323
50455SOL     OW53203   5.123   5.764   6.840
50455SOL    HW153204   5.094   5.699   6.904
50455SOL    HW253205   5.057   5.761   6.771
50456SOL     OW53206   7.667   9.691   7.577
50456SOL    HW153207   7.641   9.625   7.512
50456SOL    HW253208   7.686   9.640   7.655
50457SOL     OW53209  13.185   7.494   5.603
50457SOL    HW153210  13.267   7.448   5.582
50457SOL    HW253211  13.139   7.500   5.519
50458SOL     OW53212   4.803   6.807  12.974
50458SOL    HW153213   4.757   6.883  13.008
50458SOL    HW253214   4.734   6.743  12.955
50459SOL     OW53215   1.517   2.339  11.934
50459SOL    HW153216   1.605   2.309  11.909
50459SOL    HW253217   1.529   2.431  11.955
50460SOL     OW53218   4.793   3.770  11.924
50460SOL    HW153219   4.844   3.846  11.897
50460SOL    HW253220   4.799   3.710  11.850
50461SOL     OW53221   2.738  11.082  13.930
50461SOL    HW153222   2.797  11.105  13.858
50461SOL    HW253223   2.724  10.988  13.920
50462SOL     OW53224   2.291   8.710   4.268
50462SOL    HW153225   2.348   8.690   4.194
50462SOL    HW253226   2.349   8.751   4.332
50463SOL     OW53227  11.952   2.275  14.360
50463SOL    HW153228  12.045   2.273  14.342
50463SOL    HW253229  11.946   2.290  14.455
50464SOL     OW53230   6.714   3.227  13.668
50464SOL    HW153231   6.794   3.280  13.659
50464SOL    HW253232   6.643   3.286  13.642
50465SOL     OW53233  13.789   6.987  10.532
50465SOL    HW153234  13.878   7.006  10.501
50465SOL    HW253235  13.799   6.910  10.588
50466SOL     OW53236   8.151   8.173   8.534
50466SOL    HW153237   8.215   8.215   8.592
50466SOL    HW253238   8.121   8.096   8.583
50467SOL     OW53239  12.906   8.593   5.382
50467SOL    HW153240  12.828   8.551   5.418
50467SOL    HW253241  12.970   8.523   5.374
50468SOL     OW53242   0.464   9.463   4.541
50468SOL    HW153243   0.536   9.461   4.603
50468SOL    HW253244   0.423   9.549   4.554
50469SOL     OW53245  11.444   4.526   3.758
50469SOL    HW153246  11.426   4.485   3.844
50469SOL    HW253247  11.411   4.615   3.767
50470SOL     OW53248  14.165   9.597  13.654
50470SOL    HW153249  14.232   9.662  13.632
50470SOL    HW253250  14.181   9.577  13.747
50471SOL     OW53251  11.964  11.490  12.457
50471SOL    HW153252  11.927  11.408  12.424
50471SOL    HW253253  11.888  11.539  12.490
50472SOL     OW53254   0.696   4.004   3.047
50472SOL    HW153255   0.643   3.940   3.000
50472SOL    HW253256   0.754   3.951   3.102
50473SOL     OW53257   9.820  10.436  14.840
50473SOL    HW153258   9.725  10.444  14.844
50473SOL    HW253259   9.836  10.343  14.821
50474SOL     OW53260   9.818   2.250   0.103
50474SOL    HW153261   9.825   2.243   0.008
50474SOL    HW253262   9.907   2.232   0.135
50475SOL     OW53263   8.263  14.591   7.853
50475SOL    HW153264   8.173  14.595   7.885
50475SOL    HW253265   8.275  14.673   7.805
50476SOL     OW53266   6.081  12.894   9.283
50476SOL    HW153267   6.142  12.959   9.247
50476SOL    HW253268   6.101  12.814   9.234
50477SOL     OW53269   3.113   9.658  10.985
50477SOL    HW153270   3.040   9.604  11.017
50477SOL    HW253271   3.181   9.648  11.051
50478SOL     OW53272  12.521   7.969  13.181
50478SOL    HW153273  12.444   8.021  13.156
50478SOL    HW253274  12.575   8.030  13.230
50479SOL     OW53275   3.295  12.057   6.026
50479SOL    HW153276   3.360  11.988   6.012
50479SOL    HW253277   3.333  12.134   5.984
50480SOL     OW53278   5.096   8.736   2.637
50480SOL    HW153279   5.052   8.696   2.712
50480SOL    HW253280   5.083   8.673   2.566
50481SOL     OW53281  11.261   4.709   7.781
50481SOL    HW153282  11.189   4.741   7.835
50481SOL    HW253283  11.324   4.781   7.780
50482SOL     OW53284  12.778  14.368   4.665
50482SOL    HW153285  12.815  14.306   4.602
50482SOL    HW253286  12.854  14.403   4.712
50483SOL     OW53287   6.409   2.266   6.411
50483SOL    HW153288   6.492   2.236   6.373
50483SOL    HW253289   6.429   2.349   6.453
50484SOL     OW53290   7.786   4.670   8.785
50484SOL    HW153291   7.831   4.628   8.859
50484SOL    HW253292   7.735   4.741   8.825
50485SOL     OW53293  11.317  10.306   0.669
50485SOL    HW153294  11.280  10.256   0.596
50485SOL    HW253295  11.352  10.385   0.628
50486SOL     OW53296  14.654   1.573   5.720
50486SOL    HW153297  14.654   1.489   5.674
50486SOL    HW253298  14.575   1.617   5.687
50487SOL     OW53299  11.457   2.634  12.657
50487SOL    HW153300  11.391   2.598  12.597
50487SOL    HW253301  11.416   2.713  12.693
50488SOL     OW53302   3.725   3.752   5.125
50488SOL    HW153303   3.801   3.730   5.071
50488SOL    HW253304   3.665   3.678   5.114
50489SOL     OW53305  12.002   5.794   3.264
50489SOL    HW153306  11.950   5.866   3.229
50489SOL    HW253307  12.088   5.804   3.223
50490SOL     OW53308  14.270   8.432   7.284
50490SOL    HW153309  14.192   8.378   7.271
50490SOL    HW253310  14.342   8.379   7.251
50491SOL     OW53311   8.420   8.226   1.528
50491SOL    HW153312   8.435   8.269   1.444
50491SOL    HW253313   8.435   8.133   1.510
50492SOL     OW53314  13.210  13.065  13.608
50492SOL    HW153315  13.183  13.106  13.526
50492SOL    HW253316  13.186  13.129  13.675
50493SOL     OW53317  14.826  11.647   4.693
50493SOL    HW153318  14.857  11.560   4.721
50493SOL    HW253319   0.030  11.688   4.654
50494SOL     OW53320   7.331   7.948   6.716
50494SOL    HW153321   7.380   8.009   6.771
50494SOL    HW253322   7.319   7.870   6.771
50495SOL     OW53323   4.860  12.936   6.806
50495SOL    HW153324   4.916  13.010   6.830
50495SOL    HW253325   4.869  12.874   6.878
50496SOL     OW53326  10.934   4.200  10.033
50496SOL    HW153327  10.988   4.175   9.958
50496SOL    HW253328  10.997   4.234  10.097
50497SOL     OW53329  12.905   0.862   2.266
50497SOL    HW153330  12.999   0.859   2.249
50497SOL    HW253331  12.897   0.916   2.345
50498SOL     OW53332  10.561   2.956   3.864
50498SOL    HW153333  10.629   3.015   3.830
50498SOL    HW253334  10.538   2.993   3.949
50499SOL     OW53335   5.515   4.636  11.682
50499SOL    HW153336   5.459   4.570  11.639
50499SOL    HW253337   5.594   4.587  11.707
50500SOL     OW53338   7.689   3.143  12.293
50500SOL    HW153339   7.757   3.198  12.331
50500SOL    HW253340   7.694   3.160  12.199
50501SOL     OW53341   5.454   9.655   9.029
50501SOL    HW153342   5.548   9.643   9.014
50501SOL    HW253343   5.416   9.655   8.942
50502SOL     OW53344   3.648  12.211   0.998
50502SOL    HW153345   3.722  12.251   0.954
50502SOL    HW253346   3.571  12.248   0.955
50503SOL     OW53347   4.906  10.582   3.199
50503SOL    HW153348   4.916  10.645   3.128
50503SOL    HW253349   4.991  10.581   3.243
50504SOL     OW53350  14.350   7.655  10.064
50504SOL    HW153351  14.288   7.721  10.032
50504SOL    HW253352  14.294   7.588  10.105
50505SOL     OW53353   7.317   2.884  14.675
50505SOL    HW153354   7.381   2.828  14.630
50505SOL    HW253355   7.366   2.965  14.694
50506SOL     OW53356   4.276   4.466   2.145
50506SOL    HW153357   4.366   4.492   2.165
50506SOL    HW253358   4.229   4.478   2.228
50507SOL     OW53359   5.267   3.471   5.945
50507SOL    HW153360   5.289   3.450   5.855
50507SOL    HW253361   5.335   3.533   5.972
50508SOL     OW53362   6.501   2.146  11.100
50508SOL    HW153363   6.566   2.097  11.149
50508SOL    HW253364   6.518   2.238  11.121
50509SOL     OW53365  13.532   8.583   8.170
50509SOL    HW153366  13.611   8.537   8.198
50509SOL    HW253367  13.562   8.643   8.101
50510SOL     OW53368  11.999   5.464   4.457
50510SOL    HW153369  12.058   5.458   4.381
50510SOL    HW253370  12.017   5.385   4.508
50511SOL     OW53371   4.314   6.435   6.550
50511SOL    HW153372   4.296   6.347   6.581
50511SOL    HW253373   4.408   6.447   6.562
50512SOL     OW53374  13.734  10.601   4.226
50512SOL    HW153375  13.717  10.679   4.279
50512SOL    HW253376  13.696  10.529   4.276
50513SOL     OW53377   4.128   1.988  14.252
50513SOL    HW153378   4.144   1.898  14.221
50513SOL    HW253379   4.049   2.016  14.204
50514SOL     OW53380   0.324   1.823   2.380
50514SOL    HW153381   0.255   1.848   2.319
50514SOL    HW253382   0.404   1.857   2.340
50515SOL     OW53383  11.340  13.143   2.540
50515SOL    HW153384  11.393  13.120   2.463
50515SOL    HW253385  11.256  13.172   2.503
50516SOL     OW53386   1.418   0.022   6.418
50516SOL    HW153387   1.472  14.816   6.421
50516SOL    HW253388   1.461   0.079   6.354
50517SOL     OW53389   0.545   8.777  12.234
50517SOL    HW153390   0.612   8.843  12.251
50517SOL    HW253391   0.511   8.755  12.321
50518SOL     OW53392   1.540   4.138  13.221
50518SOL    HW153393   1.566   4.113  13.309
50518SOL    HW253394   1.536   4.056  13.172
50519SOL     OW53395  10.030   6.488   0.638
50519SOL    HW153396  10.086   6.429   0.690
50519SOL    HW253397  10.092   6.536   0.582
50520SOL     OW53398  12.644  10.817   1.807
50520SOL    HW153399  12.712  10.750   1.815
50520SOL    HW253400  12.580  10.794   1.875
50521SOL     OW53401   1.805   5.407   6.376
50521SOL    HW153402   1.859   5.463   6.320
50521SOL    HW253403   1.819   5.319   6.342
50522SOL     OW53404   5.417   5.745   6.947
50522SOL    HW153405   5.332   5.754   6.904
50522SOL    HW253406   5.471   5.815   6.909
50523SOL     OW53407   4.337   1.674   7.876
50523SOL    HW153408   4.277   1.613   7.920
50523SOL    HW253409   4.421   1.660   7.920
50524SOL     OW53410  12.579   4.603   7.625
50524SOL    HW153411  12.581   4.510   7.649
50524SOL    HW253412  12.485   4.625   7.624
50525SOL     OW53413   9.516   9.396   6.711
50525SOL    HW153414   9.513   9.492   6.706
50525SOL    HW253415   9.535   9.368   6.621
50526SOL     OW53416   3.128   6.375  10.875
50526SOL    HW153417   3.218   6.402  10.889
50526SOL    HW253418   3.085   6.452  10.837
50527SOL     OW53419   3.590  12.330   1.893
50527SOL    HW153420   3.604  12.308   1.801
50527SOL    HW253421   3.587  12.425   1.895
50528SOL     OW53422   1.426   8.092   4.359
50528SOL    HW153423   1.378   8.114   4.279
50528SOL    HW253424   1.493   8.159   4.367
50529SOL     OW53425   9.578   8.652   9.015
50529SOL    HW153426   9.622   8.591   9.075
50529SOL    HW253427   9.487   8.622   9.015
50530SOL     OW53428   7.124   7.601  13.268
50530SOL    HW153429   7.034   7.623  13.246
50530SOL    HW253430   7.118   7.519  13.316
50531SOL     OW53431   4.029   8.174   1.603
50531SOL    HW153432   4.092   8.242   1.627
50531SOL    HW253433   4.000   8.137   1.686
50532SOL     OW53434  13.504   2.454   4.739
50532SOL    HW153435  13.592   2.473   4.772
50532SOL    HW253436  13.471   2.538   4.709
50533SOL     OW53437   0.732   2.534   3.328
50533SOL    HW153438   0.646   2.505   3.297
50533SOL    HW253439   0.775   2.567   3.250
50534SOL     OW53440   7.190   9.923   6.977
50534SOL    HW153441   7.205   9.990   7.044
50534SOL    HW253442   7.109   9.951   6.934
50535SOL     OW53443   1.193   5.519   4.024
50535SOL    HW153444   1.109   5.560   4.005
50535SOL    HW253445   1.180   5.426   4.006
50536SOL     OW53446   4.821   2.779   4.503
50536SOL    HW153447   4.792   2.860   4.546
50536SOL    HW253448   4.916   2.778   4.517
50537SOL     OW53449   7.498   6.366   5.190
50537SOL    HW153450   7.426   6.346   5.129
50537SOL    HW253451   7.555   6.290   5.184
50538SOL     OW53452   8.498   5.457   2.752
50538SOL    HW153453   8.489   5.363   2.736
50538SOL    HW253454   8.570   5.484   2.694
50539SOL     OW53455  13.671   3.806   8.047
50539SOL    HW153456  13.672   3.898   8.020
50539SOL    HW253457  13.763   3.780   8.047
50540SOL     OW53458   6.159  10.824   3.036
50540SOL    HW153459   6.193  10.913   3.028
50540SOL    HW253460   6.218  10.771   2.982
50541SOL     OW53461  14.174  13.464  11.571
50541SOL    HW153462  14.164  13.382  11.619
50541SOL    HW253463  14.139  13.530  11.630
50542SOL     OW53464   3.766   8.716  12.141
50542SOL    HW153465   3.724   8.669  12.069
50542SOL    HW253466   3.793   8.800  12.102
50543SOL     OW53467   8.368   0.740  11.255
50543SOL    HW153468   8.334   0.807  11.314
50543SOL    HW253469   8.366   0.660  11.306
50544SOL     OW53470  13.928   8.111  13.189
50544SOL    HW153471  13.893   8.063  13.264
50544SOL    HW253472  13.911   8.055  13.114
50545SOL     OW53473   4.575   0.561   2.746
50545SOL    HW153474   4.570   0.555   2.651
50545SOL    HW253475   4.583   0.655   2.764
50546SOL     OW53476   1.489  13.199   2.887
50546SOL    HW153477   1.433  13.223   2.813
50546SOL    HW253478   1.576  13.229   2.863
50547SOL     OW53479  10.095  10.493  14.845
50547SOL    HW153480  10.000  10.486  14.851
50547SOL    HW253481  10.126  10.403  14.837
50548SOL     OW53482   1.729  10.093  10.922
50548SOL    HW153483   1.658  10.152  10.948
50548SOL    HW253484   1.794  10.151  10.880
50549SOL     OW53485   5.899  12.187  13.238
50549SOL    HW153486   5.833  12.118  13.242
50549SOL    HW253487   5.896  12.229  13.324
50550SOL     OW53488  10.634   9.463   3.105
50550SOL    HW153489  10.673   9.525   3.167
50550SOL    HW253490  10.695   9.389   3.104
50551SOL     OW53491  10.344   7.541  10.068
50551SOL    HW153492  10.393   7.549  10.150
50551SOL    HW253493  10.257   7.510  10.095
50552SOL     OW53494   9.020   2.704   3.292
50552SOL    HW153495   8.938   2.687   3.246
50552SOL    HW253496   9.061   2.776   3.242
50553SOL     OW53497   6.572   2.636  11.140
50553SOL    HW153498   6.640   2.640  11.073
50553SOL    HW253499   6.492   2.665  11.094
50554SOL     OW53500  14.312   0.391   4.109
50554SOL    HW153501  14.250   0.463   4.126
50554SOL    HW253502  14.356   0.416   4.028
50555SOL     OW53503   2.629   3.185   8.847
50555SOL    HW153504   2.570   3.117   8.814
50555SOL    HW253505   2.646   3.160   8.938
50556SOL     OW53506   8.706   7.885   7.606
50556SOL    HW153507   8.759   7.808   7.584
50556SOL    HW253508   8.762   7.937   7.664
50557SOL     OW53509  13.241  13.953   4.971
50557SOL    HW153510  13.186  13.944   5.049
50557SOL    HW253511  13.313  13.892   4.986
50558SOL     OW53512   1.763   5.916   9.478
50558SOL    HW153513   1.851   5.947   9.459
50558SOL    HW253514   1.752   5.838   9.424
50559SOL     OW53515   8.264   1.673   0.780
50559SOL    HW153516   8.332   1.613   0.746
50559SOL    HW253517   8.264   1.658   0.874
50560SOL     OW53518  12.988   1.177   8.889
50560SOL    HW153519  13.005   1.083   8.885
50560SOL    HW253520  12.938   1.188   8.970
50561SOL     OW53521  12.143   9.271  12.074
50561SOL    HW153522  12.077   9.340  12.082
50561SOL    HW253523  12.119   9.207  12.142
50562SOL     OW53524  12.435   4.529   5.515
50562SOL    HW153525  12.357   4.479   5.537
50562SOL    HW253526  12.405   4.593   5.450
50563SOL     OW53527   7.495   4.373  11.214
50563SOL    HW153528   7.522   4.464  11.230
50563SOL    HW253529   7.539   4.323  11.282
50564SOL     OW53530   9.479  11.302   7.178
50564SOL    HW153531   9.460  11.394   7.161
50564SOL    HW253532   9.542  11.278   7.109
50565SOL     OW53533   4.137  13.710  13.691
50565SOL    HW153534   4.152  13.802  13.668
50565SOL    HW253535   4.119  13.711  13.785
50566SOL     OW53536   7.575   8.323   3.398
50566SOL    HW153537   7.665   8.292   3.412
50566SOL    HW253538   7.582   8.419   3.402
50567SOL     OW53539   8.499   9.147   7.756
50567SOL    HW153540   8.480   9.151   7.662
50567SOL    HW253541   8.524   9.236   7.779
50568SOL     OW53542   6.184  10.806  13.385
50568SOL    HW153543   6.116  10.789  13.320
50568SOL    HW253544   6.257  10.843  13.335
50569SOL     OW53545   6.135  10.878  12.699
50569SOL    HW153546   6.165  10.824  12.625
50569SOL    HW253547   6.201  10.947  12.706
50570SOL     OW53548   7.866   0.521   7.521
50570SOL    HW153549   7.783   0.518   7.474
50570SOL    HW253550   7.920   0.583   7.470
50571SOL     OW53551   6.385   5.302  11.954
50571SOL    HW153552   6.460   5.354  11.981
50571SOL    HW253553   6.313   5.364  11.948
50572SOL     OW53554  11.060   6.782   3.061
50572SOL    HW153555  11.114   6.767   3.138
50572SOL    HW253556  11.102   6.855   3.016
50573SOL     OW53557  11.146   4.525   3.010
50573SOL    HW153558  11.241   4.534   3.025
50573SOL    HW253559  11.136   4.536   2.915
50574SOL     OW53560   1.314   4.835  14.530
50574SOL    HW153561   1.309   4.859  14.437
50574SOL    HW253562   1.348   4.913  14.574
50575SOL     OW53563  14.341   0.846   4.860
50575SOL    HW153564  14.286   0.822   4.935
50575SOL    HW253565  14.306   0.794   4.788
50576SOL     OW53566   4.885   1.591  10.359
50576SOL    HW153567   4.937   1.539  10.298
50576SOL    HW253568   4.836   1.527  10.410
50577SOL     OW53569  13.652   1.216  10.458
50577SOL    HW153570  13.737   1.214  10.414
50577SOL    HW253571  13.650   1.135  10.510
50578SOL     OW53572  10.616  10.703  10.192
50578SOL    HW153573  10.648  10.674  10.277
50578SOL    HW253574  10.686  10.757  10.157
50579SOL     OW53575   2.496  14.266   2.581
50579SOL    HW153576   2.502  14.346   2.633
50579SOL    HW253577   2.404  14.264   2.551
50580SOL     OW53578   5.700  14.129  13.638
50580SOL    HW153579   5.775  14.186  13.617
50580SOL    HW253580   5.731  14.041  13.616
50581SOL     OW53581   4.365  13.532  12.032
50581SOL    HW153582   4.410  13.458  12.073
50581SOL    HW253583   4.290  13.493  11.988
50582SOL     OW53584   5.129   4.441   5.671
50582SOL    HW153585   5.094   4.526   5.696
50582SOL    HW253586   5.062   4.404   5.613
50583SOL     OW53587  13.029  10.298   3.690
50583SOL    HW153588  13.105  10.310   3.633
50583SOL    HW253589  12.955  10.328   3.636
50584SOL     OW53590  12.445  13.995   3.505
50584SOL    HW153591  12.381  13.928   3.482
50584SOL    HW253592  12.415  14.074   3.458
50585SOL     OW53593  13.115   9.431  12.506
50585SOL    HW153594  13.082   9.517  12.530
50585SOL    HW253595  13.211   9.439  12.513
50586SOL     OW53596  12.774   7.350   5.445
50586SOL    HW153597  12.776   7.258   5.416
50586SOL    HW253598  12.832   7.352   5.521
50587SOL     OW53599  10.341   1.496   9.255
50587SOL    HW153600  10.431   1.486   9.227
50587SOL    HW253601  10.334   1.589   9.279
50588SOL     OW53602  11.102  12.541   4.250
50588SOL    HW153603  11.170  12.603   4.222
50588SOL    HW253604  11.149  12.458   4.258
50589SOL     OW53605   6.064   5.348   8.134
50589SOL    HW153606   5.975   5.312   8.143
50589SOL    HW253607   6.105   5.295   8.066
50590SOL     OW53608   9.680  13.037   4.062
50590SOL    HW153609   9.672  13.095   4.138
50590SOL    HW253610   9.774  13.031   4.045
50591SOL     OW53611  11.698  10.681   6.563
50591SOL    HW153612  11.659  10.748   6.506
50591SOL    HW253613  11.764  10.728   6.614
50592SOL     OW53614   2.938  12.047   5.324
50592SOL    HW153615   3.031  12.048   5.303
50592SOL    HW253616   2.896  12.014   5.244
50593SOL     OW53617   9.796   3.191   1.697
50593SOL    HW153618   9.821   3.130   1.767
50593SOL    HW253619   9.856   3.265   1.707
50594SOL     OW53620  14.590   4.781   8.913
50594SOL    HW153621  14.592   4.829   8.995
50594SOL    HW253622  14.600   4.689   8.938
50595SOL     OW53623  11.443   9.126   5.501
50595SOL    HW153624  11.360   9.152   5.542
50595SOL    HW253625  11.458   9.191   5.433
50596SOL     OW53626   3.515   8.245   3.486
50596SOL    HW153627   3.521   8.217   3.395
50596SOL    HW253628   3.556   8.173   3.535
50597SOL     OW53629   2.109   6.592   3.995
50597SOL    HW153630   2.094   6.505   3.959
50597SOL    HW253631   2.203   6.605   3.990
50598SOL     OW53632   9.815  14.134   8.585
50598SOL    HW153633   9.725  14.159   8.564
50598SOL    HW253634   9.839  14.070   8.519
50599SOL     OW53635   1.122   1.606   8.294
50599SOL    HW153636   1.072   1.603   8.375
50599SOL    HW253637   1.058   1.629   8.227
50600SOL     OW53638   8.306   1.994  14.260
50600SOL    HW153639   8.229   2.008  14.315
50600SOL    HW253640   8.379   1.989  14.321
50601SOL     OW53641   7.006   5.851  13.348
50601SOL    HW153642   7.008   5.945  13.331
50601SOL    HW253643   7.013   5.811  13.261
50602SOL     OW53644   6.412   4.841   7.249
50602SOL    HW153645   6.317   4.830   7.240
50602SOL    HW253646   6.442   4.760   7.290
50603SOL     OW53647  13.001   8.791  14.423
50603SOL    HW153648  12.927   8.733  14.404
50603SOL    HW253649  13.010   8.844  14.344
50604SOL     OW53650  13.333   2.837   3.180
50604SOL    HW153651  13.270   2.799   3.241
50604SOL    HW253652  13.326   2.931   3.194
50605SOL     OW53653   0.307  11.366  14.253
50605SOL    HW153654   0.372  11.336  14.189
50605SOL    HW253655   0.359  11.403  14.325
50606SOL     OW53656   0.036   5.596   9.585
50606SOL    HW153657  14.825   5.605   9.630
50606SOL    HW253658   0.059   5.504   9.595
50607SOL     OW53659   4.987   8.377  11.443
50607SOL    HW153660   5.081   8.394  11.436
50607SOL    HW253661   4.954   8.446  11.499
50608SOL     OW53662   8.902   8.407   7.044
50608SOL    HW153663   8.902   8.501   7.027
50608SOL    HW253664   8.848   8.369   6.975
50609SOL     OW53665   8.737   3.112   4.669
50609SOL    HW153666   8.827   3.128   4.640
50609SOL    HW253667   8.743   3.038   4.729
50610SOL     OW53668   6.908  10.561   0.465
50610SOL    HW153669   6.903  10.521   0.378
50610SOL    HW253670   6.996  10.540   0.496
50611SOL     OW53671   4.507   7.023   9.521
50611SOL    HW153672   4.550   6.956   9.574
50611SOL    HW253673   4.573   7.091   9.509
50612SOL     OW53674   3.260  10.686  14.565
50612SOL    HW153675   3.195  10.685  14.495
50612SOL    HW253676   3.309  10.605  14.553
50613SOL     OW53677   4.185  14.482   8.440
50613SOL    HW153678   4.207  14.546   8.372
50613SOL    HW253679   4.135  14.415   8.395
50614SOL     OW53680  12.539   7.619   1.214
50614SOL    HW153681  12.507   7.557   1.280
50614SOL    HW253682  12.631   7.594   1.200
50615SOL     OW53683  14.432   3.058  10.294
50615SOL    HW153684  14.518   3.096  10.307
50615SOL    HW253685  14.378   3.131  10.263
50616SOL     OW53686  11.754   9.638  11.526
50616SOL    HW153687  11.725   9.590  11.603
50616SOL    HW253688  11.844   9.608  11.512
50617SOL     OW53689  12.382   2.696   7.884
50617SOL    HW153690  12.447   2.657   7.826
50617SOL    HW253691  12.299   2.654   7.859
50618SOL     OW53692   1.240   3.637   4.453
50618SOL    HW153693   1.283   3.558   4.483
50618SOL    HW253694   1.158   3.607   4.414
50619SOL     OW53695  12.596   3.377   8.579
50619SOL    HW153696  12.584   3.417   8.493
50619SOL    HW253697  12.677   3.326   8.572
50620SOL     OW53698   5.602  13.797  14.403
50620SOL    HW153699   5.599  13.791  14.308
50620SOL    HW253700   5.523  13.845  14.427
50621SOL     OW53701   0.092   2.920   1.749
50621SOL    HW153702   0.024   2.987   1.756
50621SOL    HW253703   0.152   2.953   1.682
50622SOL     OW53704  11.144   9.755  11.724
50622SOL    HW153705  11.097   9.761  11.807
50622SOL    HW253706  11.195   9.836  11.720
50623SOL     OW53707  10.687   6.079   7.264
50623SOL    HW153708  10.669   6.172   7.275
50623SOL    HW253709  10.753   6.059   7.331
50624SOL     OW53710   3.672   7.045  10.967
50624SOL    HW153711   3.719   7.122  10.935
50624SOL    HW253712   3.595   7.080  11.011
50625SOL     OW53713   9.326   5.708   5.750
50625SOL    HW153714   9.352   5.799   5.740
50625SOL    HW253715   9.356   5.665   5.671
50626SOL     OW53716  10.512   0.622  13.732
50626SOL    HW153717  10.540   0.676  13.806
50626SOL    HW253718  10.436   0.667  13.696
50627SOL     OW53719   1.877   2.777   6.875
50627SOL    HW153720   1.800   2.820   6.913
50627SOL    HW253721   1.847   2.747   6.789
50628SOL     OW53722  13.419   9.954  10.967
50628SOL    HW153723  13.373   9.991  11.043
50628SOL    HW253724  13.352   9.904  10.920
50629SOL     OW53725  12.855  13.443   5.425
50629SOL    HW153726  12.780  13.461   5.369
50629SOL    HW253727  12.864  13.521   5.479
50630SOL     OW53728   3.325   2.183  13.751
50630SOL    HW153729   3.414   2.168  13.783
50630SOL    HW253730   3.315   2.123  13.677
50631SOL     OW53731  12.427   7.603  13.274
50631SOL    HW153732  12.366   7.639  13.209
50631SOL    HW253733  12.490   7.552  13.223
50632SOL     OW53734   0.440   2.635   2.703
50632SOL    HW153735   0.408   2.690   2.775
50632SOL    HW253736   0.512   2.586   2.741
50633SOL     OW53737   6.964   2.866   9.102
50633SOL    HW153738   6.979   2.876   9.008
50633SOL    HW253739   6.994   2.948   9.140
50634SOL     OW53740  11.031   4.880   3.534
50634SOL    HW153741  11.070   4.967   3.546
50634SOL    HW253742  10.938   4.898   3.520
50635SOL     OW53743  13.768  12.651  10.533
50635SOL    HW153744  13.792  12.583  10.470
50635SOL    HW253745  13.705  12.609  10.592
50636SOL     OW53746   7.337   7.217   2.536
50636SOL    HW153747   7.404   7.193   2.601
50636SOL    HW253748   7.338   7.313   2.536
50637SOL     OW53749  11.555   0.026  10.583
50637SOL    HW153750  11.500   0.037  10.505
50637SOL    HW253751  11.645   0.028  10.549
50638SOL     OW53752   7.944   8.268   3.795
50638SOL    HW153753   7.854   8.256   3.827
50638SOL    HW253754   7.937   8.341   3.733
50639SOL     OW53755  10.139   5.796  14.171
50639SOL    HW153756  10.201   5.859  14.133
50639SOL    HW253757  10.112   5.835  14.253
50640SOL     OW53758   0.351   0.368   4.642
50640SOL    HW153759   0.320   0.459   4.642
50640SOL    HW253760   0.368   0.349   4.735
50641SOL     OW53761  12.294   7.042  10.859
50641SOL    HW153762  12.297   6.947  10.874
50641SOL    HW253763  12.200   7.063  10.861
50642SOL     OW53764   9.011   7.079   1.180
50642SOL    HW153765   8.934   7.099   1.127
50642SOL    HW253766   8.981   7.011   1.241
50643SOL     OW53767   4.408   6.517   7.943
50643SOL    HW153768   4.323   6.556   7.923
50643SOL    HW253769   4.446   6.576   8.009
50644SOL     OW53770  14.635  11.574   5.295
50644SOL    HW153771  14.585  11.563   5.376
50644SOL    HW253772  14.617  11.495   5.244
50645SOL     OW53773   1.072   8.154   7.749
50645SOL    HW153774   1.022   8.128   7.672
50645SOL    HW253775   1.139   8.213   7.714
50646SOL     OW53776  10.849  12.409   6.743
50646SOL    HW153777  10.884  12.493   6.715
50646SOL    HW253778  10.770  12.431   6.792
50647SOL     OW53779   3.248   3.999   6.361
50647SOL    HW153780   3.261   3.973   6.269
50647SOL    HW253781   3.314   3.948   6.409
50648SOL     OW53782   4.501   4.112   8.555
50648SOL    HW153783   4.518   4.052   8.482
50648SOL    HW253784   4.431   4.170   8.523
50649SOL     OW53785  13.353   3.665   3.037
50649SOL    HW153786  13.304   3.713   3.105
50649SOL    HW253787  13.356   3.725   2.963
50650SOL     OW53788   8.965  14.194  14.118
50650SOL    HW153789   8.987  14.103  14.099
50650SOL    HW253790   9.043  14.229  14.160
50651SOL     OW53791  10.327  11.718   1.269
50651SOL    HW153792  10.316  11.630   1.232
50651SOL    HW253793  10.418  11.720   1.298
50652SOL     OW53794  11.440   3.932   9.691
50652SOL    HW153795  11.364   3.876   9.674
50652SOL    HW253796  11.473   3.955   9.605
50653SOL     OW53797  11.951   3.552   6.602
50653SOL    HW153798  11.901   3.632   6.582
50653SOL    HW253799  11.931   3.493   6.529
50654SOL     OW53800   6.374  12.937  12.333
50654SOL    HW153801   6.300  12.912  12.389
50654SOL    HW253802   6.367  12.877  12.258
50655SOL     OW53803  12.093  10.232  12.090
50655SOL    HW153804  12.150  10.254  12.163
50655SOL    HW253805  12.067  10.142  12.106
50656SOL     OW53806   9.965   1.678  10.541
50656SOL    HW153807   9.969   1.772  10.520
50656SOL    HW253808   9.872   1.660  10.551
50657SOL     OW53809  14.565   6.876   0.588
50657SOL    HW153810  14.565   6.858   0.682
50657SOL    HW253811  14.479   6.848   0.558
50658SOL     OW53812   9.120   1.631  11.469
50658SOL    HW153813   9.040   1.580  11.474
50658SOL    HW253814   9.092   1.720  11.449
50659SOL     OW53815  10.965   5.267   3.294
50659SOL    HW153816  11.056   5.290   3.316
50659SOL    HW253817  10.970   5.235   3.204
50660SOL     OW53818   0.433   5.925  11.015
50660SOL    HW153819   0.376   5.983  10.965
50660SOL    HW253820   0.443   5.848  10.959
50661SOL     OW53821   3.994  11.015   5.534
50661SOL    HW153822   4.011  10.969   5.452
50661SOL    HW253823   3.935  11.086   5.511
50662SOL     OW53824   5.359  12.598   3.191
50662SOL    HW153825   5.423  12.600   3.120
50662SOL    HW253826   5.373  12.680   3.238
50663SOL     OW53827  14.612  13.189   6.903
50663SOL    HW153828  14.641  13.276   6.930
50663SOL    HW253829  14.665  13.129   6.955
50664SOL     OW53830   1.741   6.783   4.602
50664SOL    HW153831   1.764   6.776   4.510
50664SOL    HW253832   1.734   6.877   4.618
50665SOL     OW53833   2.237   7.346   6.364
50665SOL    HW153834   2.241   7.265   6.416
50665SOL    HW253835   2.159   7.391   6.395
50666SOL     OW53836   1.976   0.579  10.844
50666SOL    HW153837   1.969   0.595  10.750
50666SOL    HW253838   2.061   0.536  10.855
50667SOL     OW53839   4.340   5.898  10.859
50667SOL    HW153840   4.415   5.844  10.884
50667SOL    HW253841   4.362   5.986  10.890
50668SOL     OW53842   1.785   9.528  10.835
50668SOL    HW153843   1.822   9.486  10.913
50668SOL    HW253844   1.734   9.601  10.870
50669SOL     OW53845   8.941  11.102   9.200
50669SOL    HW153846   9.012  11.165   9.212
50669SOL    HW253847   8.950  11.041   9.274
50670SOL     OW53848   2.529   7.461   2.046
50670SOL    HW153849   2.493   7.411   2.119
50670SOL    HW253850   2.572   7.536   2.087
50671SOL     OW53851   2.726   1.226   2.387
50671SOL    HW153852   2.697   1.150   2.437
50671SOL    HW253853   2.657   1.239   2.321
50672SOL     OW53854   3.165  10.072   0.430
50672SOL    HW153855   3.088  10.129   0.435
50672SOL    HW253856   3.169  10.030   0.516
50673SOL     OW53857   9.281   6.455   2.433
50673SOL    HW153858   9.229   6.375   2.446
50673SOL    HW253859   9.216   6.526   2.436
50674SOL     OW53860   0.408   9.993   4.252
50674SOL    HW153861   0.419  10.051   4.327
50674SOL    HW253862   0.322   9.952   4.266
50675SOL     OW53863  14.345  10.448   0.294
50675SOL    HW153864  14.352  10.474   0.385
50675SOL    HW253865  14.423  10.396   0.277
50676SOL     OW53866  14.720   8.630  11.937
50676SOL    HW153867  14.729   8.667  11.849
50676SOL    HW253868  14.649   8.567  11.929
50677SOL     OW53869   9.780   2.724  13.941
50677SOL    HW153870   9.700   2.756  13.899
50677SOL    HW253871   9.846   2.724  13.871
50678SOL     OW53872  12.695   3.918   5.378
50678SOL    HW153873  12.634   3.913   5.304
50678SOL    HW253874  12.773   3.960   5.343
50679SOL     OW53875   2.140   1.332   3.979
50679SOL    HW153876   2.177   1.410   4.020
50679SOL    HW253877   2.048   1.354   3.967
50680SOL     OW53878   7.549   3.379  10.055
50680SOL    HW153879   7.547   3.424   9.971
50680SOL    HW253880   7.626   3.416  10.100
50681SOL     OW53881   6.924  12.181   4.673
50681SOL    HW153882   6.884  12.264   4.647
50681SOL    HW253883   6.876  12.156   4.753
50682SOL     OW53884   8.907   5.720   8.960
50682SOL    HW153885   8.812   5.730   8.948
50682SOL    HW253886   8.922   5.742   9.052
50683SOL     OW53887   8.443   9.491   2.813
50683SOL    HW153888   8.509   9.468   2.748
50683SOL    HW253889   8.456   9.429   2.884
50684SOL     OW53890   1.304  11.958   0.462
50684SOL    HW153891   1.384  11.991   0.503
50684SOL    HW253892   1.303  11.865   0.485
50685SOL     OW53893  13.259   7.455  12.709
50685SOL    HW153894  13.252   7.526  12.645
50685SOL    HW253895  13.352   7.431  12.708
50686SOL     OW53896  12.814   1.572   4.008
50686SOL    HW153897  12.768   1.567   4.092
50686SOL    HW253898  12.840   1.664   4.000
50687SOL     OW53899   5.014   4.422  10.098
50687SOL    HW153900   5.025   4.458  10.010
50687SOL    HW253901   5.040   4.493  10.157
50688SOL     OW53902  13.691   7.594   4.958
50688SOL    HW153903  13.640   7.550   5.026
50688SOL    HW253904  13.639   7.672   4.936
50689SOL     OW53905  13.349   7.653  13.173
50689SOL    HW153906  13.345   7.670  13.267
50689SOL    HW253907  13.405   7.577  13.164
50690SOL     OW53908  11.151   6.290  13.276
50690SOL    HW153909  11.100   6.246  13.345
50690SOL    HW253910  11.214   6.223  13.247
50691SOL     OW53911  11.573   3.063   6.230
50691SOL    HW153912  11.558   3.009   6.308
50691SOL    HW253913  11.490   3.108   6.216
50692SOL     OW53914   8.610   3.824   6.796
50692SOL    HW153915   8.620   3.918   6.804
50692SOL    HW253916   8.532   3.804   6.847
50693SOL     OW53917   1.924  12.965   5.052
50693SOL    HW153918   1.988  12.897   5.032
50693SOL    HW253919   1.975  13.044   5.065
50694SOL     OW53920   2.009   3.780  11.535
50694SOL    HW153921   2.011   3.742  11.448
50694SOL    HW253922   1.997   3.706  11.594
50695SOL     OW53923   6.201   9.403   9.962
50695SOL    HW153924   6.290   9.431   9.985
50695SOL    HW253925   6.199   9.404   9.867
50696SOL     OW53926   6.208   8.484   3.529
50696SOL    HW153927   6.170   8.478   3.617
50696SOL    HW253928   6.270   8.557   3.535
50697SOL     OW53929   2.031   6.969   2.702
50697SOL    HW153930   2.108   7.003   2.746
50697SOL    HW253931   1.975   6.935   2.772
50698SOL     OW53932   3.885   0.599   6.973
50698SOL    HW153933   3.802   0.603   7.021
50698SOL    HW253934   3.862   0.621   6.883
50699SOL     OW53935   2.981   5.582   3.207
50699SOL    HW153936   2.960   5.637   3.132
50699SOL    HW253937   2.963   5.638   3.283
50700SOL     OW53938   7.210   0.072   4.875
50700SOL    HW153939   7.120   0.088   4.849
50700SOL    HW253940   7.206  14.869   4.932
50701SOL     OW53941   2.369   2.042   3.592
50701SOL    HW153942   2.416   2.125   3.601
50701SOL    HW253943   2.399   1.989   3.665
50702SOL     OW53944   4.272   0.182   2.854
50702SOL    HW153945   4.178   0.201   2.852
50702SOL    HW253946   4.310   0.243   2.791
50703SOL     OW53947   5.148   5.350  13.821
50703SOL    HW153948   5.068   5.310  13.856
50703SOL    HW253949   5.210   5.348  13.894
50704SOL     OW53950  10.704   0.471  14.568
50704SOL    HW153951  10.750   0.397  14.609
50704SOL    HW253952  10.761   0.495  14.495
50705SOL     OW53953   4.846   7.771   7.345
50705SOL    HW153954   4.776   7.723   7.390
50705SOL    HW253955   4.914   7.781   7.412
50706SOL     OW53956   9.673  12.037   4.298
50706SOL    HW153957   9.646  12.120   4.338
50706SOL    HW253958   9.661  12.051   4.204
50707SOL     OW53959   5.203   9.638   9.531
50707SOL    HW153960   5.254   9.674   9.459
50707SOL    HW253961   5.256   9.653   9.609
50708SOL     OW53962   4.012   9.202   7.039
50708SOL    HW153963   4.067   9.163   7.107
50708SOL    HW253964   3.943   9.138   7.023
50709SOL     OW53965   5.078   8.014   2.189
50709SOL    HW153966   5.138   8.078   2.227
50709SOL    HW253967   5.014   7.997   2.259
50710SOL     OW53968   2.448   9.930   7.652
50710SOL    HW153969   2.411   9.859   7.704
50710SOL    HW253970   2.373   9.980   7.622
50711SOL     OW53971   5.758   7.464   8.179
50711SOL    HW153972   5.756   7.393   8.115
50711SOL    HW253973   5.816   7.530   8.140
50712SOL     OW53974   0.397  14.380   6.552
50712SOL    HW153975   0.443  14.409   6.474
50712SOL    HW253976   0.312  14.422   6.548
50713SOL     OW53977   4.324   5.552   0.961
50713SOL    HW153978   4.267   5.485   0.923
50713SOL    HW253979   4.406   5.543   0.913
50714SOL     OW53980  11.832  10.532   1.262
50714SOL    HW153981  11.761  10.468   1.258
50714SOL    HW253982  11.790  10.613   1.290
50715SOL     OW53983   9.927   1.552   2.914
50715SOL    HW153984   9.872   1.601   2.853
50715SOL    HW253985  10.016   1.570   2.885
50716SOL     OW53986   7.356   5.426   5.753
50716SOL    HW153987   7.349   5.342   5.708
50716SOL    HW253988   7.436   5.466   5.718
50717SOL     OW53989  10.886   5.775  12.222
50717SOL    HW153990  10.948   5.713  12.184
50717SOL    HW253991  10.803   5.728  12.226
50718SOL     OW53992   6.947  11.343  11.657
50718SOL    HW153993   6.947  11.416  11.595
50718SOL    HW253994   6.924  11.383  11.741
50719SOL     OW53995   5.061   5.133  12.899
50719SOL    HW153996   4.977   5.087  12.901
50719SOL    HW253997   5.045   5.215  12.945
50720SOL     OW53998  10.104  10.147  11.697
50720SOL    HW153999  10.134  10.125  11.609
50720SOL    HW254000  10.183  10.171  11.744
50721SOL     OW54001  13.943   0.417  13.153
50721SOL    HW154002  13.854   0.413  13.118
50721SOL    HW254003  13.999   0.409  13.076
50722SOL     OW54004   2.199   1.171   4.909
50722SOL    HW154005   2.126   1.227   4.884
50722SOL    HW254006   2.250   1.160   4.828
50723SOL     OW54007   7.249   6.430   3.547
50723SOL    HW154008   7.303   6.509   3.545
50723SOL    HW254009   7.161   6.463   3.567
50724SOL     OW54010   6.669   6.115   3.469
50724SOL    HW154011   6.710   6.201   3.471
50724SOL    HW254012   6.617   6.114   3.388
50725SOL     OW54013   6.140  14.437   1.835
50725SOL    HW154014   6.138  14.472   1.924
50725SOL    HW254015   6.073  14.369   1.834
50726SOL     OW54016  10.989   8.366  12.859
50726SOL    HW154017  10.977   8.405  12.945
50726SOL    HW254018  11.021   8.277  12.877
50727SOL     OW54019   6.239   2.324  14.497
50727SOL    HW154020   6.222   2.353  14.408
50727SOL    HW254021   6.184   2.380  14.552
50728SOL     OW54022  12.874   1.986   6.697
50728SOL    HW154023  12.803   2.011   6.756
50728SOL    HW254024  12.934   1.935   6.751
50729SOL     OW54025   3.897  13.475   4.729
50729SOL    HW154026   3.840  13.547   4.703
50729SOL    HW254027   3.843  13.421   4.786
50730SOL     OW54028  10.590   3.717   4.405
50730SOL    HW154029  10.537   3.683   4.333
50730SOL    HW254030  10.648   3.781   4.364
50731SOL     OW54031   4.882  11.145   3.721
50731SOL    HW154032   4.849  11.132   3.810
50731SOL    HW254033   4.966  11.099   3.720
50732SOL     OW54034  13.096   7.565  13.895
50732SOL    HW154035  13.146   7.530  13.969
50732SOL    HW254036  13.014   7.515  13.896
50733SOL     OW54037  14.313   5.877   8.037
50733SOL    HW154038  14.291   5.802   8.093
50733SOL    HW254039  14.383   5.846   7.980
50734SOL     OW54040   4.397   5.209  10.066
50734SOL    HW154041   4.392   5.300  10.096
50734SOL    HW254042   4.485   5.202  10.027
50735SOL     OW54043   2.365   7.202   3.088
50735SOL    HW154044   2.398   7.113   3.085
50735SOL    HW254045   2.354   7.227   2.996
50736SOL     OW54046   8.818   6.111  10.900
50736SOL    HW154047   8.855   6.025  10.922
50736SOL    HW254048   8.727   6.107  10.929
50737SOL     OW54049   6.582  11.092   1.999
50737SOL    HW154050   6.634  11.044   1.934
50737SOL    HW254051   6.496  11.101   1.959
50738SOL     OW54052   5.595   6.549  14.297
50738SOL    HW154053   5.570   6.468  14.342
50738SOL    HW254054   5.638   6.520  14.217
50739SOL     OW54055   7.223   5.787   5.514
50739SOL    HW154056   7.252   5.712   5.461
50739SOL    HW254057   7.182   5.747   5.591
50740SOL     OW54058   6.218   6.661   8.447
50740SOL    HW154059   6.149   6.696   8.503
50740SOL    HW254060   6.174   6.596   8.392
50741SOL     OW54061  12.100   4.370  10.188
50741SOL    HW154062  12.183   4.364  10.141
50741SOL    HW254063  12.116   4.433  10.258
50742SOL     OW54064   3.349   8.369  12.321
50742SOL    HW154065   3.402   8.300  12.360
50742SOL    HW254066   3.296   8.402  12.393
50743SOL     OW54067  10.962   5.112   5.892
50743SOL    HW154068  10.905   5.061   5.951
50743SOL    HW254069  11.007   5.173   5.951
50744SOL     OW54070   6.549   7.725   5.809
50744SOL    HW154071   6.530   7.694   5.720
50744SOL    HW254072   6.578   7.647   5.856
50745SOL     OW54073   8.866   3.803   9.019
50745SOL    HW154074   8.883   3.738   9.087
50745SOL    HW254075   8.836   3.752   8.944
50746SOL     OW54076   8.334   3.402  14.221
50746SOL    HW154077   8.242   3.412  14.196
50746SOL    HW254078   8.355   3.312  14.195
50747SOL     OW54079   8.806   2.662   3.468
50747SOL    HW154080   8.778   2.729   3.405
50747SOL    HW254081   8.871   2.611   3.421
50748SOL     OW54082   9.409   9.052   6.186
50748SOL    HW154083   9.476   8.987   6.163
50748SOL    HW254084   9.434   9.083   6.273
50749SOL     OW54085   7.216   3.455   7.720
50749SOL    HW154086   7.226   3.546   7.692
50749SOL    HW254087   7.305   3.422   7.729
50750SOL     OW54088   1.725  14.784   9.520
50750SOL    HW154089   1.818  14.808   9.523
50750SOL    HW254090   1.701  14.770   9.611
50751SOL     OW54091   9.378  13.342  11.374
50751SOL    HW154092   9.472  13.355  11.360
50751SOL    HW254093   9.354  13.410  11.437
50752SOL     OW54094   9.152   2.818  12.855
50752SOL    HW154095   9.075   2.837  12.803
50752SOL    HW254096   9.130   2.739  12.904
50753SOL     OW54097   5.341   0.434   1.066
50753SOL    HW154098   5.426   0.476   1.056
50753SOL    HW254099   5.362   0.349   1.105
50754SOL     OW54100  10.891   8.183  12.351
50754SOL    HW154101  10.827   8.226  12.294
50754SOL    HW254102  10.918   8.252  12.413
50755SOL     OW54103   3.047  10.743  10.994
50755SOL    HW154104   2.962  10.717  11.029
50755SOL    HW254105   3.037  10.836  10.974
50756SOL     OW54106  12.014  10.158   3.568
50756SOL    HW154107  11.930  10.136   3.530
50756SOL    HW254108  12.015  10.253   3.571
50757SOL     OW54109  14.028   0.537  11.018
50757SOL    HW154110  13.957   0.483  11.051
50757SOL    HW254111  13.988   0.623  11.005
50758SOL     OW54112  11.286  12.646  10.644
50758SOL    HW154113  11.213  12.702  10.672
50758SOL    HW254114  11.351  12.654  10.714
50759SOL     OW54115   6.550   2.469  11.467
50759SOL    HW154116   6.598   2.507  11.541
50759SOL    HW254117   6.614   2.466  11.396
50760SOL     OW54118   4.465  12.031   1.675
50760SOL    HW154119   4.373  12.057   1.668
50760SOL    HW254120   4.464  11.957   1.735
50761SOL     OW54121   6.746  13.510   8.231
50761SOL    HW154122   6.731  13.536   8.322
50761SOL    HW254123   6.798  13.582   8.194
50762SOL     OW54124   5.426   1.570  12.682
50762SOL    HW154125   5.404   1.661  12.666
50762SOL    HW254126   5.373   1.545  12.757
50763SOL     OW54127  11.578   0.012  12.986
50763SOL    HW154128  11.600   0.082  12.924
50763SOL    HW254129  11.644   0.021  13.056
50764SOL     OW54130   6.340   3.993   1.668
50764SOL    HW154131   6.299   4.058   1.612
50764SOL    HW254132   6.427   4.029   1.687
50765SOL     OW54133   7.869   9.573  12.332
50765SOL    HW154134   7.959   9.597  12.353
50765SOL    HW254135   7.851   9.498  12.389
50766SOL     OW54136   6.199   9.598  10.490
50766SOL    HW154137   6.240   9.593  10.403
50766SOL    HW254138   6.167   9.509  10.505
50767SOL     OW54139  11.988   1.894  12.184
50767SOL    HW154140  11.910   1.932  12.226
50767SOL    HW254141  12.010   1.955  12.114
50768SOL     OW54142   1.429   3.326   2.132
50768SOL    HW154143   1.521   3.300   2.136
50768SOL    HW254144   1.382   3.245   2.113
50769SOL     OW54145   6.474   9.102   8.921
50769SOL    HW154146   6.555   9.141   8.953
50769SOL    HW254147   6.465   9.134   8.831
50770SOL     OW54148  14.128   5.491   9.957
50770SOL    HW154149  14.150   5.573  10.002
50770SOL    HW254150  14.033   5.483   9.969
50771SOL     OW54151   5.592   3.594   0.508
50771SOL    HW154152   5.659   3.545   0.555
50771SOL    HW254153   5.563   3.535   0.438
50772SOL     OW54154  11.807  10.939   2.393
50772SOL    HW154155  11.890  10.892   2.398
50772SOL    HW254156  11.769  10.913   2.309
50773SOL     OW54157   0.400   7.324   4.954
50773SOL    HW154158   0.312   7.310   4.919
50773SOL    HW254159   0.450   7.356   4.879
50774SOL     OW54160  11.785   3.301  10.531
50774SOL    HW154161  11.690   3.292  10.536
50774SOL    HW254162  11.817   3.212  10.517
50775SOL     OW54163   7.832   1.142   1.622
50775SOL    HW154164   7.817   1.228   1.581
50775SOL    HW254165   7.783   1.081   1.567
50776SOL     OW54166   3.740  13.011   7.560
50776SOL    HW154167   3.820  13.047   7.521
50776SOL    HW254168   3.678  13.084   7.560
50777SOL     OW54169   9.902  10.052   2.321
50777SOL    HW154170   9.988  10.078   2.288
50777SOL    HW254171   9.913   9.960   2.345
50778SOL     OW54172  13.367  14.170   0.105
50778SOL    HW154173  13.318  14.133   0.032
50778SOL    HW254174  13.300  14.203   0.165
50779SOL     OW54175  13.139  13.688   7.333
50779SOL    HW154176  13.050  13.724   7.329
50779SOL    HW254177  13.136  13.612   7.275
50780SOL     OW54178   7.759   3.013   8.281
50780SOL    HW154179   7.676   3.052   8.257
50780SOL    HW254180   7.790   3.065   8.355
50781SOL     OW54181  13.820  10.405   9.786
50781SOL    HW154182  13.851  10.314   9.782
50781SOL    HW254183  13.786  10.414   9.875
50782SOL     OW54184  11.124   2.894  11.032
50782SOL    HW154185  11.058   2.826  11.018
50782SOL    HW254186  11.207   2.848  11.033
50783SOL     OW54187   6.371  11.397  11.523
50783SOL    HW154188   6.371  11.436  11.610
50783SOL    HW254189   6.464  11.386  11.502
50784SOL     OW54190  11.291   2.210   7.113
50784SOL    HW154191  11.326   2.294   7.084
50784SOL    HW254192  11.240   2.178   7.038
50785SOL     OW54193   3.171  13.977   6.287
50785SOL    HW154194   3.228  14.014   6.219
50785SOL    HW254195   3.201  13.887   6.296
50786SOL     OW54196   1.987   8.498  11.150
50786SOL    HW154197   2.075   8.512  11.116
50786SOL    HW254198   1.942   8.450  11.081
50787SOL     OW54199  11.817  12.975   7.821
50787SOL    HW154200  11.842  13.004   7.733
50787SOL    HW254201  11.835  12.881   7.821
50788SOL     OW54202  14.200  10.314  14.151
50788SOL    HW154203  14.227  10.364  14.228
50788SOL    HW254204  14.209  10.222  14.177
50789SOL     OW54205   5.290   4.183   0.871
50789SOL    HW154206   5.369   4.230   0.846
50789SOL    HW254207   5.311   4.090   0.858
50790SOL     OW54208   9.195   1.013   4.038
50790SOL    HW154209   9.127   1.063   3.993
50790SOL    HW254210   9.264   1.076   4.056
50791SOL     OW54211   4.624   8.448   1.699
50791SOL    HW154212   4.555   8.491   1.648
50791SOL    HW254213   4.705   8.483   1.665
50792SOL     OW54214   1.044   3.004   5.755
50792SOL    HW154215   1.106   3.071   5.727
50792SOL    HW254216   1.085   2.963   5.831
50793SOL     OW54217   1.710   7.888   4.352
50793SOL    HW154218   1.728   7.969   4.398
50793SOL    HW254219   1.766   7.823   4.394
50794SOL     OW54220   4.824   7.625  13.459
50794SOL    HW154221   4.733   7.597  13.470
50794SOL    HW254222   4.847   7.664  13.543
50795SOL     OW54223   2.994  11.875  12.652
50795SOL    HW154224   2.995  11.801  12.592
50795SOL    HW254225   3.087  11.896  12.665
50796SOL     OW54226   6.878  13.749   4.845
50796SOL    HW154227   6.963  13.737   4.887
50796SOL    HW254228   6.885  13.700   4.763
50797SOL     OW54229  13.085   4.325   6.111
50797SOL    HW154230  13.137   4.251   6.145
50797SOL    HW254231  13.144   4.369   6.050
50798SOL     OW54232  14.083   8.745  13.121
50798SOL    HW154233  14.031   8.678  13.076
50798SOL    HW254234  14.173   8.717  13.108
50799SOL     OW54235   2.782  13.672  10.133
50799SOL    HW154236   2.837  13.685  10.055
50799SOL    HW254237   2.710  13.616  10.103
50800SOL     OW54238   5.175   8.023   2.675
50800SOL    HW154239   5.240   8.050   2.739
50800SOL    HW254240   5.172   7.927   2.683
50801SOL     OW54241   7.632   3.490  11.460
50801SOL    HW154242   7.570   3.492  11.387
50801SOL    HW254243   7.582   3.455  11.534
50802SOL     OW54244   6.837   2.033   7.546
50802SOL    HW154245   6.892   1.992   7.480
50802SOL    HW254246   6.893   2.099   7.588
50803SOL     OW54247   2.636   6.822   9.798
50803SOL    HW154248   2.572   6.765   9.839
50803SOL    HW254249   2.584   6.885   9.748
50804SOL     OW54250  12.012  12.134  12.692
50804SOL    HW154251  12.099  12.129  12.732
50804SOL    HW254252  11.951  12.121  12.766
50805SOL     OW54253   8.887  10.165  11.786
50805SOL    HW154254   8.875  10.259  11.770
50805SOL    HW254255   8.818  10.123  11.736
50806SOL     OW54256  10.351   7.699   8.811
50806SOL    HW154257  10.402   7.661   8.883
50806SOL    HW254258  10.275   7.738   8.854
50807SOL     OW54259   6.216   9.125  14.780
50807SOL    HW154260   6.144   9.121  14.843
50807SOL    HW254261   6.233   9.218  14.769
50808SOL     OW54262   8.083   9.992   8.747
50808SOL    HW154263   8.068   9.927   8.678
50808SOL    HW254264   8.145   9.949   8.806
50809SOL     OW54265   5.285   0.824   7.722
50809SOL    HW154266   5.217   0.875   7.678
50809SOL    HW254267   5.331   0.779   7.652
50810SOL     OW54268   6.377   8.692   3.404
50810SOL    HW154269   6.347   8.762   3.462
50810SOL    HW254270   6.379   8.732   3.317
50811SOL     OW54271   1.069   0.471   0.868
50811SOL    HW154272   1.000   0.538   0.876
50811SOL    HW254273   1.108   0.487   0.782
50812SOL     OW54274   5.527   5.234   5.933
50812SOL    HW154275   5.568   5.191   6.009
50812SOL    HW254276   5.479   5.308   5.971
50813SOL     OW54277   6.690   8.881  14.204
50813SOL    HW154278   6.606   8.893  14.248
50813SOL    HW254279   6.730   8.807  14.248
50814SOL     OW54280   7.891  13.194   0.203
50814SOL    HW154281   7.908  13.111   0.159
50814SOL    HW254282   7.971  13.211   0.253
50815SOL     OW54283   9.480   5.918   6.935
50815SOL    HW154284   9.519   5.831   6.930
50815SOL    HW254285   9.554   5.977   6.950
50816SOL     OW54286   2.276   4.212   6.489
50816SOL    HW154287   2.309   4.144   6.548
50816SOL    HW254288   2.281   4.293   6.540
50817SOL     OW54289  12.884  14.368  14.588
50817SOL    HW154290  12.847  14.414  14.663
50817SOL    HW254291  12.808  14.332  14.543
50818SOL     OW54292  10.039  13.522   3.033
50818SOL    HW154293  10.091  13.454   2.990
50818SOL    HW254294   9.948  13.494   3.020
50819SOL     OW54295  12.388   4.833   8.492
50819SOL    HW154296  12.394   4.917   8.536
50819SOL    HW254297  12.317   4.787   8.536
50820SOL     OW54298  14.662  13.540   9.549
50820SOL    HW154299  14.675  13.522   9.456
50820SOL    HW254300  14.743  13.585   9.576
50821SOL     OW54301   8.809  13.814   4.900
50821SOL    HW154302   8.775  13.735   4.942
50821SOL    HW254303   8.897  13.790   4.872
50822SOL     OW54304  12.133  14.421   7.001
50822SOL    HW154305  12.156  14.421   7.094
50822SOL    HW254306  12.147  14.511   6.973
50823SOL     OW54307   6.883  13.632  12.183
50823SOL    HW154308   6.887  13.723  12.153
50823SOL    HW254309   6.793  13.620  12.212
50824SOL     OW54310   0.905   4.871  11.387
50824SOL    HW154311   0.996   4.866  11.359
50824SOL    HW254312   0.871   4.950  11.344
50825SOL     OW54313  12.996  12.334   0.600
50825SOL    HW154314  12.975  12.419   0.560
50825SOL    HW254315  13.090  12.338   0.617
50826SOL     OW54316  14.195   0.359  11.198
50826SOL    HW154317  14.249   0.396  11.268
50826SOL    HW254318  14.126   0.423  11.183
50827SOL     OW54319  13.698  10.019   8.505
50827SOL    HW154320  13.745   9.952   8.455
50827SOL    HW254321  13.628   9.972   8.549
50828SOL     OW54322   0.776   4.606   3.989
50828SOL    HW154323   0.852   4.550   4.007
50828SOL    HW254324   0.813   4.686   3.954
50829SOL     OW54325  10.228  14.116  12.534
50829SOL    HW154326  10.275  14.103  12.451
50829SOL    HW254327  10.296  14.111  12.601
50830SOL     OW54328  10.012  10.888  11.825
50830SOL    HW154329   9.939  10.858  11.879
50830SOL    HW254330   9.991  10.858  11.737
50831SOL     OW54331  14.764   4.871   2.217
50831SOL    HW154332  14.744   4.795   2.163
50831SOL    HW254333  14.684   4.886   2.269
50832SOL     OW54334   0.746   9.978  14.826
50832SOL    HW154335   0.759   9.911   0.020
50832SOL    HW254336   0.799   9.948  14.752
50833SOL     OW54337   3.299   2.061   6.894
50833SOL    HW154338   3.292   2.149   6.858
50833SOL    HW254339   3.350   2.072   6.975
50834SOL     OW54340   1.089   9.799   3.067
50834SOL    HW154341   0.997   9.773   3.072
50834SOL    HW254342   1.088   9.894   3.074
50835SOL     OW54343  12.652   0.985   4.858
50835SOL    HW154344  12.570   0.979   4.808
50835SOL    HW254345  12.645   1.068   4.905
50836SOL     OW54346  12.007   7.328  10.285
50836SOL    HW154347  12.020   7.233  10.290
50836SOL    HW254348  11.992   7.345  10.192
50837SOL     OW54349  13.886   9.434   2.675
50837SOL    HW154350  13.923   9.461   2.758
50837SOL    HW254351  13.958   9.443   2.612
50838SOL     OW54352  12.680   5.068   2.628
50838SOL    HW154353  12.643   5.044   2.543
50838SOL    HW254354  12.756   5.123   2.607
50839SOL     OW54355   2.614  11.477   9.945
50839SOL    HW154356   2.690  11.531   9.923
50839SOL    HW254357   2.548  11.500   9.879
50840SOL     OW54358  12.952   8.141  10.607
50840SOL    HW154359  13.040   8.104  10.601
50840SOL    HW254360  12.922   8.149  10.517
50841SOL     OW54361  11.781   6.258  11.996
50841SOL    HW154362  11.826   6.342  11.989
50841SOL    HW254363  11.791   6.218  11.910
50842SOL     OW54364   9.553   4.142   2.850
50842SOL    HW154365   9.559   4.187   2.765
50842SOL    HW254366   9.584   4.207   2.913
50843SOL     OW54367   9.196   5.682  12.243
50843SOL    HW154368   9.210   5.599  12.198
50843SOL    HW254369   9.130   5.662  12.310
50844SOL     OW54370   7.072   3.841   3.595
50844SOL    HW154371   7.040   3.851   3.505
50844SOL    HW254372   7.106   3.752   3.599
50845SOL     OW54373   6.341  13.795  12.425
50845SOL    HW154374   6.299  13.729  12.480
50845SOL    HW254375   6.367  13.864  12.487
50846SOL     OW54376  12.015   8.192  11.408
50846SOL    HW154377  12.094   8.207  11.461
50846SOL    HW254378  12.049   8.162  11.324
50847SOL     OW54379  10.296  11.759   3.512
50847SOL    HW154380  10.262  11.672   3.492
50847SOL    HW254381  10.222  11.818   3.497
50848SOL     OW54382   4.357  14.016  14.114
50848SOL    HW154383   4.297  14.081  14.150
50848SOL    HW254384   4.432  14.068  14.082
50849SOL     OW54385   1.355   1.904   4.714
50849SOL    HW154386   1.354   1.808   4.707
50849SOL    HW254387   1.340   1.921   4.807
50850SOL     OW54388   8.846   7.137   3.611
50850SOL    HW154389   8.790   7.213   3.593
50850SOL    HW254390   8.919   7.173   3.660
50851SOL     OW54391   5.351  10.595   0.162
50851SOL    HW154392   5.268  10.554   0.188
50851SOL    HW254393   5.334  10.628   0.074
50852SOL     OW54394   5.949  13.471  11.249
50852SOL    HW154395   5.962  13.377  11.258
50852SOL    HW254396   6.037  13.507  11.234
50853SOL     OW54397   8.611   6.205  11.267
50853SOL    HW154398   8.690   6.181  11.315
50853SOL    HW254399   8.634   6.190  11.175
50854SOL     OW54400   4.132   3.100  12.045
50854SOL    HW154401   4.079   3.036  12.093
50854SOL    HW254402   4.129   3.179  12.098
50855SOL     OW54403  14.295   3.024  11.691
50855SOL    HW154404  14.339   3.023  11.606
50855SOL    HW254405  14.291   2.932  11.717
50856SOL     OW54406   2.678   5.231  13.011
50856SOL    HW154407   2.659   5.293  12.942
50856SOL    HW254408   2.760   5.263  13.050
50857SOL     OW54409  14.820   8.785  12.845
50857SOL    HW154410  14.813   8.700  12.802
50857SOL    HW254411   0.027   8.780  12.897
50858SOL     OW54412   6.531   3.403   5.530
50858SOL    HW154413   6.598   3.459   5.570
50858SOL    HW254414   6.568   3.314   5.537
50859SOL     OW54415  10.343  13.499   2.985
50859SOL    HW154416  10.414  13.561   2.997
50859SOL    HW254417  10.357  13.462   2.898
50860SOL     OW54418   4.659  13.625   0.798
50860SOL    HW154419   4.694  13.539   0.774
50860SOL    HW254420   4.736  13.682   0.805
50861SOL     OW54421   7.465   7.617   5.303
50861SOL    HW154422   7.501   7.702   5.331
50861SOL    HW254423   7.459   7.566   5.384
50862SOL     OW54424   7.586   2.641  12.143
50862SOL    HW154425   7.507   2.636  12.195
50862SOL    HW254426   7.555   2.659  12.054
50863SOL     OW54427   9.373   4.860  12.839
50863SOL    HW154428   9.439   4.791  12.827
50863SOL    HW254429   9.378   4.883  12.932
50864SOL     OW54430  13.319   4.761   9.098
50864SOL    HW154431  13.375   4.705   9.043
50864SOL    HW254432  13.362   4.846   9.098
50865SOL     OW54433   2.649   3.320   6.310
50865SOL    HW154434   2.731   3.283   6.279
50865SOL    HW254435   2.601   3.345   6.231
50866SOL     OW54436   4.765   8.834   7.867
50866SOL    HW154437   4.773   8.909   7.926
50866SOL    HW254438   4.724   8.869   7.788
50867SOL     OW54439   6.100   3.357  13.794
50867SOL    HW154440   6.186   3.316  13.791
50867SOL    HW254441   6.045   3.301  13.740
50868SOL     OW54442   5.954   9.405   2.034
50868SOL    HW154443   6.004   9.392   2.115
50868SOL    HW254444   5.863   9.410   2.063
50869SOL     OW54445   5.473   4.482   4.270
50869SOL    HW154446   5.464   4.481   4.365
50869SOL    HW254447   5.475   4.575   4.247
50870SOL     OW54448   6.937   4.440   9.339
50870SOL    HW154449   6.885   4.380   9.391
50870SOL    HW254450   6.942   4.520   9.392
50871SOL     OW54451   2.434   7.322   2.839
50871SOL    HW154452   2.503   7.349   2.778
50871SOL    HW254453   2.358   7.375   2.813
50872SOL     OW54454   4.663   2.786   3.836
50872SOL    HW154455   4.702   2.843   3.902
50872SOL    HW254456   4.605   2.728   3.886
50873SOL     OW54457   3.234  10.530  12.007
50873SOL    HW154458   3.164  10.520  12.072
50873SOL    HW254459   3.232  10.448  11.957
50874SOL     OW54460   0.907   9.846   8.674
50874SOL    HW154461   0.906   9.919   8.613
50874SOL    HW254462   0.999   9.837   8.700
50875SOL     OW54463   8.030  10.031   0.368
50875SOL    HW154464   8.100  10.005   0.429
50875SOL    HW254465   8.052  10.120   0.342
50876SOL     OW54466   1.477   8.711   7.943
50876SOL    HW154467   1.528   8.669   7.874
50876SOL    HW254468   1.403   8.752   7.897
50877SOL     OW54469   8.605  12.367   7.596
50877SOL    HW154470   8.675  12.402   7.651
50877SOL    HW254471   8.602  12.426   7.520
50878SOL     OW54472  13.406  12.944  12.799
50878SOL    HW154473  13.316  12.923  12.824
50878SOL    HW254474  13.458  12.872  12.836
50879SOL     OW54475  10.859   5.265   4.756
50879SOL    HW154476  10.799   5.221   4.815
50879SOL    HW254477  10.811   5.271   4.673
50880SOL     OW54478  11.231   7.673  12.032
50880SOL    HW154479  11.308   7.707  12.078
50880SOL    HW254480  11.166   7.742  12.040
50881SOL     OW54481   2.716  12.245   9.591
50881SOL    HW154482   2.769  12.267   9.514
50881SOL    HW254483   2.645  12.190   9.557
50882SOL     OW54484   4.918   3.937   4.500
50882SOL    HW154485   4.830   3.935   4.462
50882SOL    HW254486   4.939   4.030   4.506
50883SOL     OW54487  10.947   3.056   3.348
50883SOL    HW154488  10.931   2.964   3.367
50883SOL    HW254489  10.942   3.062   3.253
50884SOL     OW54490   3.248   8.805   2.159
50884SOL    HW154491   3.202   8.826   2.078
50884SOL    HW254492   3.243   8.885   2.211
50885SOL     OW54493  12.493   7.769  12.065
50885SOL    HW154494  12.466   7.702  12.127
50885SOL    HW254495  12.469   7.852  12.107
50886SOL     OW54496   0.410  13.936   0.869
50886SOL    HW154497   0.474  13.876   0.908
50886SOL    HW254498   0.463  13.998   0.820
50887SOL     OW54499   0.476  10.273  13.953
50887SOL    HW154500   0.569  10.290  13.941
50887SOL    HW254501   0.466  10.260  14.047
50888SOL     OW54502   3.515   9.572   8.109
50888SOL    HW154503   3.440   9.607   8.061
50888SOL    HW254504   3.571   9.535   8.041
50889SOL     OW54505   6.180   4.837  12.355
50889SOL    HW154506   6.229   4.833  12.437
50889SOL    HW254507   6.111   4.901  12.371
50890SOL     OW54508   8.654  12.377   8.603
50890SOL    HW154509   8.656  12.469   8.577
50890SOL    HW254510   8.580  12.340   8.556
50891SOL     OW54511   5.107   0.344   5.215
50891SOL    HW154512   5.176   0.410   5.225
50891SOL    HW254513   5.102   0.330   5.120
50892SOL     OW54514   3.380  10.669   2.103
50892SOL    HW154515   3.434  10.748   2.098
50892SOL    HW254516   3.401  10.620   2.023
50893SOL     OW54517   5.767   5.548  10.320
50893SOL    HW154518   5.764   5.509  10.233
50893SOL    HW254519   5.796   5.477  10.377
50894SOL     OW54520  11.375  11.455   2.360
50894SOL    HW154521  11.369  11.385   2.295
50894SOL    HW254522  11.385  11.409   2.444
50895SOL     OW54523   5.833  12.887   6.060
50895SOL    HW154524   5.788  12.843   6.133
50895SOL    HW254525   5.780  12.965   6.043
50896SOL     OW54526  10.273   1.559  14.141
50896SOL    HW154527  10.234   1.633  14.187
50896SOL    HW254528  10.342   1.528  14.199
50897SOL     OW54529   8.039   8.748  14.448
50897SOL    HW154530   8.073   8.680  14.391
50897SOL    HW254531   8.046   8.828  14.397
50898SOL     OW54532   2.681   5.381   0.063
50898SOL    HW154533   2.759   5.374   0.119
50898SOL    HW254534   2.638   5.462   0.091
50899SOL     OW54535   9.841  11.222  14.144
50899SOL    HW154536   9.777  11.211  14.215
50899SOL    HW254537   9.887  11.302  14.166
50900SOL     OW54538  10.027  11.539  11.054
50900SOL    HW154539   9.941  11.543  11.095
50900SOL    HW254540  10.084  11.502  11.121
50901SOL     OW54541   6.960  10.242   2.911
50901SOL    HW154542   6.981  10.260   3.003
50901SOL    HW254543   6.915  10.321   2.881
50902SOL     OW54544   3.893   9.178  10.008
50902SOL    HW154545   3.815   9.224  10.039
50902SOL    HW254546   3.865   9.087  10.001
50903SOL     OW54547   1.387   0.253   2.516
50903SOL    HW154548   1.343   0.337   2.526
50903SOL    HW254549   1.415   0.252   2.424
50904SOL     OW54550   1.631  14.592   2.092
50904SOL    HW154551   1.543  14.556   2.087
50904SOL    HW254552   1.621  14.683   2.064
50905SOL     OW54553   9.808   4.268   4.825
50905SOL    HW154554   9.844   4.240   4.910
50905SOL    HW254555   9.854   4.214   4.761
50906SOL     OW54556  10.289   9.613  12.807
50906SOL    HW154557  10.270   9.520  12.808
50906SOL    HW254558  10.209   9.654  12.774
50907SOL     OW54559  14.155   1.323   7.639
50907SOL    HW154560  14.230   1.377   7.664
50907SOL    HW254561  14.190   1.264   7.572
50908SOL     OW54562   5.463   0.727   7.540
50908SOL    HW154563   5.494   0.690   7.457
50908SOL    HW254564   5.526   0.796   7.560
50909SOL     OW54565  13.618  14.305   4.935
50909SOL    HW154566  13.629  14.244   5.008
50909SOL    HW254567  13.600  14.389   4.978
50910SOL     OW54568   8.857   7.287   5.168
50910SOL    HW154569   8.939   7.322   5.134
50910SOL    HW254570   8.805   7.364   5.193
50911SOL     OW54571   8.682   0.050   4.920
50911SOL    HW154572   8.607  14.865   4.924
50911SOL    HW254573   8.719   0.036   4.833
50912SOL     OW54574   4.598  10.562   6.251
50912SOL    HW154575   4.647  10.629   6.204
50912SOL    HW254576   4.625  10.479   6.211
50913SOL     OW54577  12.790   5.506   7.796
50913SOL    HW154578  12.708   5.531   7.840
50913SOL    HW254579  12.844   5.585   7.800
50914SOL     OW54580   3.181  13.774  12.069
50914SOL    HW154581   3.133  13.697  12.099
50914SOL    HW254582   3.140  13.796  11.985
50915SOL     OW54583   3.723   6.014   0.556
50915SOL    HW154584   3.793   5.999   0.619
50915SOL    HW254585   3.651   6.050   0.608
50916SOL     OW54586   1.398   1.177   1.908
50916SOL    HW154587   1.355   1.223   1.835
50916SOL    HW254588   1.489   1.169   1.880
50917SOL     OW54589   9.379   5.111   3.770
50917SOL    HW154590   9.358   5.173   3.700
50917SOL    HW254591   9.473   5.093   3.759
50918SOL     OW54592   5.365   1.023   2.348
50918SOL    HW154593   5.313   0.961   2.296
50918SOL    HW254594   5.365   0.986   2.436
50919SOL     OW54595   6.556   1.134   1.368
50919SOL    HW154596   6.544   1.146   1.274
50919SOL    HW254597   6.470   1.152   1.405
50920SOL     OW54598  12.772  12.549   9.405
50920SOL    HW154599  12.827  12.514   9.475
50920SOL    HW254600  12.804  12.639   9.393
50921SOL     OW54601   4.891   3.008   8.566
50921SOL    HW154602   4.899   2.934   8.507
50921SOL    HW254603   4.965   3.065   8.543
50922SOL     OW54604  10.398  10.292   3.311
50922SOL    HW154605  10.459  10.233   3.267
50922SOL    HW254606  10.312  10.259   3.287
50923SOL     OW54607  13.900   1.740   7.059
50923SOL    HW154608  13.955   1.789   6.998
50923SOL    HW254609  13.855   1.675   7.005
50924SOL     OW54610   3.330   0.201   7.365
50924SOL    HW154611   3.413   0.154   7.357
50924SOL    HW254612   3.275   0.165   7.296
50925SOL     OW54613   7.216   9.623   9.218
50925SOL    HW154614   7.198   9.675   9.296
50925SOL    HW254615   7.257   9.685   9.157
50926SOL     OW54616  10.731  11.506   2.834
50926SOL    HW154617  10.813  11.509   2.784
50926SOL    HW254618  10.731  11.588   2.883
50927SOL     OW54619   1.707  12.038   9.847
50927SOL    HW154620   1.642  12.092   9.893
50927SOL    HW254621   1.776  12.024   9.911
50928SOL     OW54622   3.710  12.626   6.865
50928SOL    HW154623   3.728  12.670   6.947
50928SOL    HW254624   3.615  12.634   6.854
50929SOL     OW54625   1.020  13.177   1.732
50929SOL    HW154626   0.949  13.229   1.696
50929SOL    HW254627   1.003  13.088   1.701
50930SOL     OW54628  13.876  13.761   9.841
50930SOL    HW154629  13.797  13.709   9.859
50930SOL    HW254630  13.911  13.722   9.761
50931SOL     OW54631   9.696   5.907  11.285
50931SOL    HW154632   9.718   5.983  11.339
50931SOL    HW254633   9.649   5.848  11.343
50932SOL     OW54634   8.202   3.582   4.850
50932SOL    HW154635   8.268   3.605   4.785
50932SOL    HW254636   8.119   3.598   4.807
50933SOL     OW54637  11.748   5.992   3.476
50933SOL    HW154638  11.832   5.999   3.431
50933SOL    HW254639  11.761   6.038   3.559
50934SOL     OW54640  13.282   5.617   3.369
50934SOL    HW154641  13.312   5.666   3.292
50934SOL    HW254642  13.290   5.526   3.343
50935SOL     OW54643   5.120   9.377   5.108
50935SOL    HW154644   5.101   9.469   5.129
50935SOL    HW254645   5.147   9.339   5.192
50936SOL     OW54646   3.607   8.112  11.899
50936SOL    HW154647   3.684   8.094  11.953
50936SOL    HW254648   3.551   8.036  11.911
50937SOL     OW54649   9.893   9.263  13.813
50937SOL    HW154650   9.821   9.201  13.805
50937SOL    HW254651   9.972   9.211  13.800
50938SOL     OW54652   1.918  10.671  11.796
50938SOL    HW154653   1.970  10.597  11.828
50938SOL    HW254654   1.953  10.688  11.708
50939SOL     OW54655  12.602   5.867  11.168
50939SOL    HW154656  12.575   5.951  11.205
50939SOL    HW254657  12.558   5.862  11.083
50940SOL     OW54658   8.502  10.275  10.053
50940SOL    HW154659   8.515  10.346   9.990
50940SOL    HW254660   8.584  10.225  10.050
50941SOL     OW54661   0.941   9.014  11.271
50941SOL    HW154662   0.884   9.086  11.243
50941SOL    HW254663   0.967   8.971  11.190
50942SOL     OW54664  14.437  10.591   2.148
50942SOL    HW154665  14.350  10.552   2.150
50942SOL    HW254666  14.489  10.535   2.207
50943SOL     OW54667  11.706   0.683   3.118
50943SOL    HW154668  11.668   0.764   3.152
50943SOL    HW254669  11.717   0.698   3.024
50944SOL     OW54670   8.699  11.185   1.453
50944SOL    HW154671   8.706  11.247   1.380
50944SOL    HW254672   8.740  11.105   1.421
50945SOL     OW54673   2.221   8.330   0.042
50945SOL    HW154674   2.129   8.343   0.066
50945SOL    HW254675   2.230   8.368  14.828
50946SOL     OW54676  11.229   5.649  13.608
50946SOL    HW154677  11.288   5.691  13.545
50946SOL    HW254678  11.145   5.693  13.594
50947SOL     OW54679  14.535   2.158   3.337
50947SOL    HW154680  14.624   2.131   3.312
50947SOL    HW254681  14.504   2.087   3.393
50948SOL     OW54682  11.857   7.470   4.637
50948SOL    HW154683  11.849   7.375   4.637
50948SOL    HW254684  11.829   7.496   4.549
50949SOL     OW54685  12.074  10.330   2.644
50949SOL    HW154686  12.099  10.248   2.602
50949SOL    HW254687  11.992  10.356   2.601
50950SOL     OW54688   0.948   8.254  11.371
50950SOL    HW154689   0.908   8.311  11.305
50950SOL    HW254690   1.029   8.299  11.395
50951SOL     OW54691   8.941   5.829  12.726
50951SOL    HW154692   8.867   5.768  12.730
50951SOL    HW254693   9.014   5.776  12.693
50952SOL     OW54694   9.487  13.085   1.094
50952SOL    HW154695   9.472  12.990   1.091
50952SOL    HW254696   9.574  13.095   1.131
50953SOL     OW54697  12.052  11.147  14.664
50953SOL    HW154698  12.095  11.206  14.726
50953SOL    HW254699  11.962  11.181  14.657
50954SOL     OW54700   5.971   0.974  11.942
50954SOL    HW154701   6.043   0.919  11.910
50954SOL    HW254702   6.008   1.020  12.017
50955SOL     OW54703  13.245   9.732   7.530
50955SOL    HW154704  13.161   9.688   7.524
50955SOL    HW254705  13.287   9.695   7.608
50956SOL     OW54706   5.085   4.148   6.793
50956SOL    HW154707   5.027   4.101   6.732
50956SOL    HW254708   5.147   4.082   6.823
50957SOL     OW54709   5.164  12.131  11.417
50957SOL    HW154710   5.131  12.044  11.392
50957SOL    HW254711   5.115  12.154  11.495
50958SOL     OW54712  14.051   5.419  10.954
50958SOL    HW154713  14.044   5.512  10.931
50958SOL    HW254714  14.123   5.387  10.900
50959SOL     OW54715  11.835   6.584   5.880
50959SOL    HW154716  11.851   6.525   5.806
50959SOL    HW254717  11.740   6.581   5.893
50960SOL     OW54718   0.933   5.869   1.949
50960SOL    HW154719   0.844   5.871   1.914
50960SOL    HW254720   0.921   5.851   2.043
50961SOL     OW54721   6.903   8.475  14.674
50961SOL    HW154722   6.963   8.547  14.651
50961SOL    HW254723   6.936   8.442  14.757
50962SOL     OW54724   0.184   4.968   8.144
50962SOL    HW154725   0.178   5.001   8.054
50962SOL    HW254726   0.268   4.923   8.148
50963SOL     OW54727  11.069  14.598   1.086
50963SOL    HW154728  11.126  14.675   1.085
50963SOL    HW254729  11.106  14.539   1.021
50964SOL     OW54730   9.746   4.160   0.292
50964SOL    HW154731   9.833   4.127   0.270
50964SOL    HW254732   9.757   4.255   0.299
50965SOL     OW54733   5.365   7.294  11.052
50965SOL    HW154734   5.296   7.229  11.057
50965SOL    HW254735   5.443   7.245  11.027
50966SOL     OW54736   1.006  12.551  11.412
50966SOL    HW154737   0.953  12.496  11.470
50966SOL    HW254738   1.069  12.490  11.373
50967SOL     OW54739   2.696   4.767   0.998
50967SOL    HW154740   2.751   4.838   0.966
50967SOL    HW254741   2.751   4.689   0.992
50968SOL     OW54742   1.145  12.371  11.233
50968SOL    HW154743   1.125  12.281  11.256
50968SOL    HW254744   1.216  12.365  11.169
50969SOL     OW54745   9.262   9.415   3.926
50969SOL    HW154746   9.274   9.477   3.854
50969SOL    HW254747   9.170   9.424   3.950
50970SOL     OW54748  10.745   2.733   6.120
50970SOL    HW154749  10.670   2.753   6.063
50970SOL    HW254750  10.748   2.806   6.182
50971SOL     OW54751   4.121   1.113  13.069
50971SOL    HW154752   4.133   1.190  13.013
50971SOL    HW254753   4.055   1.140  13.133
50972SOL     OW54754  11.671   2.573   1.809
50972SOL    HW154755  11.673   2.477   1.811
50972SOL    HW254756  11.643   2.598   1.897
50973SOL     OW54757   0.456  14.674   0.905
50973SOL    HW154758   0.487  14.750   0.855
50973SOL    HW254759   0.459  14.602   0.843
50974SOL     OW54760   2.181  11.470   2.840
50974SOL    HW154761   2.243  11.457   2.768
50974SOL    HW254762   2.130  11.390   2.844
50975SOL     OW54763  12.562   2.952  11.743
50975SOL    HW154764  12.540   2.899  11.667
50975SOL    HW254765  12.635   2.905  11.784
50976SOL     OW54766   9.869  13.263  13.455
50976SOL    HW154767   9.784  13.253  13.498
50976SOL    HW254768   9.867  13.351  13.418
50977SOL     OW54769   0.580   7.360   9.776
50977SOL    HW154770   0.586   7.305   9.698
50977SOL    HW254771   0.530   7.307   9.838
50978SOL     OW54772  12.616   8.742   3.404
50978SOL    HW154773  12.681   8.736   3.334
50978SOL    HW254774  12.534   8.761   3.358
50979SOL     OW54775   9.038  10.182   9.496
50979SOL    HW154776   8.990  10.106   9.529
50979SOL    HW254777   9.114  10.146   9.451
50980SOL     OW54778   7.677   6.016   5.503
50980SOL    HW154779   7.597   6.013   5.451
50980SOL    HW254780   7.656   5.969   5.584
50981SOL     OW54781  11.429  11.953   9.109
50981SOL    HW154782  11.479  11.951   9.191
50981SOL    HW254783  11.469  12.024   9.059
50982SOL     OW54784   0.510  12.548   8.069
50982SOL    HW154785   0.447  12.565   8.138
50982SOL    HW254786   0.588  12.517   8.115
50983SOL     OW54787   7.387  12.244  11.679
50983SOL    HW154788   7.398  12.272  11.769
50983SOL    HW254789   7.370  12.325  11.630
50984SOL     OW54790   7.413   5.697   9.549
50984SOL    HW154791   7.468   5.735   9.481
50984SOL    HW254792   7.381   5.615   9.511
50985SOL     OW54793   3.391   1.801   2.520
50985SOL    HW154794   3.346   1.751   2.588
50985SOL    HW254795   3.477   1.820   2.556
50986SOL     OW54796   9.741  11.820   1.057
50986SOL    HW154797   9.662  11.874   1.049
50986SOL    HW254798   9.711  11.731   1.042
50987SOL     OW54799  12.632   5.179   1.898
50987SOL    HW154800  12.652   5.213   1.986
50987SOL    HW254801  12.669   5.244   1.839
50988SOL     OW54802  11.439  14.537   6.983
50988SOL    HW154803  11.414  14.601   7.050
50988SOL    HW254804  11.484  14.588   6.916
50989SOL     OW54805  12.622   1.011   8.743
50989SOL    HW154806  12.630   1.058   8.826
50989SOL    HW254807  12.565   1.066   8.690
50990SOL     OW54808  12.482  13.408  12.030
50990SOL    HW154809  12.464  13.488  11.981
50990SOL    HW254810  12.396  13.366  12.038
50991SOL     OW54811  13.435   3.291  12.270
50991SOL    HW154812  13.369   3.360  12.281
50991SOL    HW254813  13.399   3.216  12.316
50992SOL     OW54814  13.702  11.420   7.405
50992SOL    HW154815  13.735  11.331   7.390
50992SOL    HW254816  13.615  11.408   7.443
50993SOL     OW54817   8.948  11.020  10.054
50993SOL    HW154818   8.964  11.023  10.148
50993SOL    HW254819   8.959  11.110  10.025
50994SOL     OW54820   5.661  11.847   0.429
50994SOL    HW154821   5.659  11.789   0.353
50994SOL    HW254822   5.713  11.922   0.401
50995SOL     OW54823  11.856  14.412  13.384
50995SOL    HW154824  11.934  14.383  13.336
50995SOL    HW254825  11.890  14.439  13.470
50996SOL     OW54826   0.809   7.120   1.746
50996SOL    HW154827   0.903   7.130   1.739
50996SOL    HW254828   0.778   7.109   1.656
50997SOL     OW54829   3.507  13.873  10.811
50997SOL    HW154830   3.492  13.779  10.818
50997SOL    HW254831   3.542  13.899  10.896
50998SOL     OW54832  14.202  12.019   4.909
50998SOL    HW154833  14.249  11.936   4.916
50998SOL    HW254834  14.152  12.011   4.828
50999SOL     OW54835   3.118   1.258  13.329
50999SOL    HW154836   3.035   1.299  13.354
50999SOL    HW254837   3.106   1.234  13.237
51000SOL     OW54838   6.275  13.873   5.195
51000SOL    HW154839   6.307  13.915   5.275
51000SOL    HW254840   6.238  13.944   5.143
51001SOL     OW54841   5.446   2.152   7.853
51001SOL    HW154842   5.477   2.228   7.803
51001SOL    HW254843   5.475   2.077   7.801
51002SOL     OW54844  13.868  11.154   0.735
51002SOL    HW154845  13.854  11.163   0.829
51002SOL    HW254846  13.851  11.061   0.717
51003SOL     OW54847  11.310   3.124  10.894
51003SOL    HW154848  11.250   3.094  10.962
51003SOL    HW254849  11.340   3.044  10.851
51004SOL     OW54850   7.267  10.644   9.150
51004SOL    HW154851   7.196  10.615   9.092
51004SOL    HW254852   7.258  10.591   9.228
51005SOL     OW54853   0.735  10.830   4.559
51005SOL    HW154854   0.732  10.766   4.488
51005SOL    HW254855   0.721  10.779   4.638
51006SOL     OW54856   1.219   0.957  13.570
51006SOL    HW154857   1.309   0.940  13.542
51006SOL    HW254858   1.180   0.870  13.579
51007SOL     OW54859   6.200  13.050   0.102
51007SOL    HW154860   6.295  13.043   0.101
51007SOL    HW254861   6.169  12.960   0.102
51008SOL     OW54862   4.634  10.916   4.659
51008SOL    HW154863   4.578  10.911   4.737
51008SOL    HW254864   4.574  10.903   4.585
51009SOL     OW54865  13.807  10.265   8.145
51009SOL    HW154866  13.719  10.251   8.111
51009SOL    HW254867  13.805  10.354   8.180
51010SOL     OW54868   3.096   0.842  12.436
51010SOL    HW154869   3.192   0.844  12.432
51010SOL    HW254870   3.072   0.917  12.491
51011SOL     OW54871   8.038   3.243  13.619
51011SOL    HW154872   8.117   3.287  13.589
51011SOL    HW254873   8.063   3.202  13.702
51012SOL     OW54874   5.291   0.816   6.063
51012SOL    HW154875   5.310   0.724   6.077
51012SOL    HW254876   5.197   0.820   6.048
51013SOL     OW54877  12.615   8.719  14.236
51013SOL    HW154878  12.613   8.811  14.209
51013SOL    HW254879  12.694   8.684  14.196
51014SOL     OW54880   3.132   0.325   7.036
51014SOL    HW154881   3.166   0.267   6.968
51014SOL    HW254882   3.051   0.362   6.999
51015SOL     OW54883   6.907   7.154   4.563
51015SOL    HW154884   6.906   7.189   4.652
51015SOL    HW254885   6.935   7.227   4.509
51016SOL     OW54886   9.978   3.600   1.194
51016SOL    HW154887   9.912   3.659   1.229
51016SOL    HW254888   9.946   3.512   1.215
51017SOL     OW54889  10.755  12.994   0.714
51017SOL    HW154890  10.662  13.003   0.736
51017SOL    HW254891  10.772  12.900   0.720
51018SOL     OW54892   4.065   7.308  12.096
51018SOL    HW154893   4.029   7.224  12.065
51018SOL    HW254894   4.041   7.371  12.028
51019SOL     OW54895  12.636  11.619   1.228
51019SOL    HW154896  12.704  11.552   1.218
51019SOL    HW254897  12.648  11.652   1.317
51020SOL     OW54898   9.199   8.385   1.389
51020SOL    HW154899   9.114   8.401   1.349
51020SOL    HW254900   9.254   8.457   1.359
51021SOL     OW54901   2.585  10.703   6.468
51021SOL    HW154902   2.580  10.651   6.548
51021SOL    HW254903   2.677  10.727   6.460
51022SOL     OW54904  12.529   8.268   0.588
51022SOL    HW154905  12.459   8.223   0.635
51022SOL    HW254906  12.598   8.281   0.654
51023SOL     OW54907   8.421   2.268  13.692
51023SOL    HW154908   8.426   2.176  13.667
51023SOL    HW254909   8.450   2.315  13.613
51024SOL     OW54910   6.953   5.416  12.775
51024SOL    HW154911   6.860   5.404  12.795
51024SOL    HW254912   6.985   5.472  12.846
51025SOL     OW54913   1.340   3.494   8.704
51025SOL    HW154914   1.381   3.480   8.618
51025SOL    HW254915   1.378   3.426   8.759
51026SOL     OW54916  12.397   7.785   0.153
51026SOL    HW154917  12.481   7.741   0.142
51026SOL    HW254918  12.352   7.773   0.069
51027SOL     OW54919   2.147   4.945   7.389
51027SOL    HW154920   2.081   4.954   7.458
51027SOL    HW254921   2.129   5.018   7.330
51028SOL     OW54922   6.857  12.940   3.743
51028SOL    HW154923   6.847  12.898   3.658
51028SOL    HW254924   6.919  12.885   3.790
51029SOL     OW54925   5.259   8.886   3.135
51029SOL    HW154926   5.327   8.821   3.119
51029SOL    HW254927   5.258   8.939   3.055
51030SOL     OW54928   6.918   7.212  12.521
51030SOL    HW154929   7.006   7.203  12.486
51030SOL    HW254930   6.879   7.285  12.472
51031SOL     OW54931  11.581   6.407  12.149
51031SOL    HW154932  11.640   6.358  12.092
51031SOL    HW254933  11.608   6.498  12.138
51032SOL     OW54934   0.283   1.355  13.633
51032SOL    HW154935   0.313   1.446  13.637
51032SOL    HW254936   0.216   1.349  13.701
51033SOL     OW54937   1.112   1.471   0.225
51033SOL    HW154938   1.100   1.398   0.164
51033SOL    HW254939   1.043   1.460   0.290
51034SOL     OW54940   5.018   0.308   1.609
51034SOL    HW154941   5.044   0.306   1.517
51034SOL    HW254942   4.927   0.278   1.609
51035SOL     OW54943   2.123  11.888  14.852
51035SOL    HW154944   2.210  11.850  14.839
51035SOL    HW254945   2.072  11.816   0.017
51036SOL     OW54946   2.556  13.239  11.506
51036SOL    HW154947   2.498  13.173  11.468
51036SOL    HW254948   2.497  13.305  11.542
51037SOL     OW54949  14.848  14.487  13.274
51037SOL    HW154950  14.797  14.421  13.228
51037SOL    HW254951   0.065  14.456  13.268
51038SOL     OW54952  12.603   7.517  11.213
51038SOL    HW154953  12.508   7.518  11.216
51038SOL    HW254954  12.631   7.553  11.297
51039SOL     OW54955  11.161   4.332   1.386
51039SOL    HW154956  11.083   4.325   1.441
51039SOL    HW254957  11.127   4.326   1.297
51040SOL     OW54958   3.770   6.963   3.320
51040SOL    HW154959   3.772   6.868   3.305
51040SOL    HW254960   3.793   7.001   3.236
51041SOL     OW54961  10.493   0.553   5.015
51041SOL    HW154962  10.503   0.631   4.961
51041SOL    HW254963  10.421   0.504   4.974
51042SOL     OW54964  12.744   4.213   6.852
51042SOL    HW154965  12.749   4.249   6.764
51042SOL    HW254966  12.656   4.176   6.858
51043SOL     OW54967  10.420  14.481   6.852
51043SOL    HW154968  10.391  14.502   6.764
51043SOL    HW254969  10.372  14.541   6.909
51044SOL     OW54970   3.678   9.619  13.841
51044SOL    HW154971   3.617   9.683  13.877
51044SOL    HW254972   3.622   9.550  13.805
51045SOL     OW54973   0.014   2.264   5.503
51045SOL    HW154974  14.858   2.292   5.417
51045SOL    HW254975   0.107   2.287   5.506
51046SOL     OW54976   3.978   1.368   5.128
51046SOL    HW154977   3.920   1.432   5.087
51046SOL    HW254978   3.920   1.298   5.157
51047SOL     OW54979  11.079   2.279  14.439
51047SOL    HW154980  11.153   2.334  14.466
51047SOL    HW254981  11.010   2.342  14.418
51048SOL     OW54982   8.113   2.253  14.455
51048SOL    HW154983   8.201   2.278  14.426
51048SOL    HW254984   8.119   2.251  14.550
51049SOL     OW54985   2.862   1.758   6.643
51049SOL    HW154986   2.829   1.841   6.609
51049SOL    HW254987   2.937   1.738   6.588
51050SOL     OW54988   0.953   9.311   9.197
51050SOL    HW154989   0.861   9.285   9.200
51050SOL    HW254990   0.952   9.404   9.218
51051SOL     OW54991  10.051  10.589   5.287
51051SOL    HW154992   9.999  10.517   5.252
51051SOL    HW254993  10.088  10.554   5.368
51052SOL     OW54994   7.440   8.573  12.794
51052SOL    HW154995   7.469   8.662  12.810
51052SOL    HW254996   7.502   8.538  12.730
51053SOL     OW54997   9.599   8.979   7.831
51053SOL    HW154998   9.566   9.057   7.788
51053SOL    HW254999   9.561   8.982   7.919
51054SOL     OW55000   1.659  11.718   6.017
51054SOL    HW155001   1.754  11.714   6.005
51054SOL    HW255002   1.629  11.769   5.942
51055SOL     OW55003   1.659  10.700   2.689
51055SOL    HW155004   1.679  10.751   2.610
51055SOL    HW255005   1.699  10.615   2.673
51056SOL     OW55006   2.768  14.824   9.965
51056SOL    HW155007   2.850  14.785   9.995
51056SOL    HW255008   2.790   0.044   9.952
51057SOL     OW55009   4.506  11.231  13.885
51057SOL    HW155010   4.459  11.274  13.956
51057SOL    HW255011   4.521  11.142  13.915
51058SOL     OW55012  12.529   9.879  11.992
51058SOL    HW155013  12.491   9.829  11.920
51058SOL    HW255014  12.459   9.939  12.020
51059SOL     OW55015   1.325  11.044   3.175
51059SOL    HW155016   1.383  11.035   3.100
51059SOL    HW255017   1.371  11.001   3.247
51060SOL     OW55018   9.515   3.803  11.075
51060SOL    HW155019   9.598   3.783  11.032
51060SOL    HW255020   9.535   3.876  11.134
51061SOL     OW55021   4.298   6.829   7.886
51061SOL    HW155022   4.337   6.892   7.825
51061SOL    HW255023   4.292   6.748   7.837
51062SOL     OW55024   7.228  12.410  11.441
51062SOL    HW155025   7.217  12.428  11.347
51062SOL    HW255026   7.323  12.413  11.455
51063SOL     OW55027  10.779   5.082   6.782
51063SOL    HW155028  10.843   5.012   6.790
51063SOL    HW255029  10.734   5.065   6.700
51064SOL     OW55030   0.439   0.618   5.471
51064SOL    HW155031   0.446   0.532   5.514
51064SOL    HW255032   0.450   0.681   5.542
51065SOL     OW55033  13.395  13.684   1.487
51065SOL    HW155034  13.452  13.626   1.437
51065SOL    HW255035  13.331  13.625   1.528
51066SOL     OW55036  11.998  10.320  12.608
51066SOL    HW155037  11.914  10.311  12.562
51066SOL    HW255038  11.980  10.383  12.678
51067SOL     OW55039   8.232   1.641  13.937
51067SOL    HW155040   8.280   1.646  14.019
51067SOL    HW255041   8.212   1.548  13.926
51068SOL     OW55042   6.316   6.317   6.618
51068SOL    HW155043   6.284   6.333   6.707
51068SOL    HW255044   6.344   6.403   6.587
51069SOL     OW55045   7.958  12.994   8.896
51069SOL    HW155046   7.974  12.976   8.803
51069SOL    HW255047   7.863  12.999   8.904
51070SOL     OW55048  11.710   7.597   2.091
51070SOL    HW155049  11.753   7.656   2.029
51070SOL    HW255050  11.637   7.648   2.126
51071SOL     OW55051   5.218   0.842   4.360
51071SOL    HW155052   5.286   0.907   4.340
51071SOL    HW255053   5.144   0.894   4.391
51072SOL     OW55054   2.244   9.223   4.921
51072SOL    HW155055   2.229   9.131   4.900
51072SOL    HW255056   2.327   9.224   4.968
51073SOL     OW55057  13.027  13.738   1.587
51073SOL    HW155058  13.031  13.642   1.588
51073SOL    HW255059  13.020  13.760   1.494
51074SOL     OW55060   0.542   3.292   4.835
51074SOL    HW155061   0.526   3.365   4.895
51074SOL    HW255062   0.633   3.266   4.853
51075SOL     OW55063   9.583   1.960  11.793
51075SOL    HW155064   9.546   1.890  11.847
51075SOL    HW255065   9.676   1.942  11.790
51076SOL     OW55066   2.911   1.395   9.700
51076SOL    HW155067   2.829   1.422   9.741
51076SOL    HW255068   2.945   1.327   9.758
51077SOL     OW55069   1.116   3.294   9.665
51077SOL    HW155070   1.204   3.278   9.701
51077SOL    HW255071   1.084   3.207   9.643
51078SOL     OW55072   4.582  12.109  11.289
51078SOL    HW155073   4.525  12.103  11.365
51078SOL    HW255074   4.665  12.140  11.324
51079SOL     OW55075   6.119   9.620   6.070
51079SOL    HW155076   6.134   9.683   6.141
51079SOL    HW255077   6.202   9.573   6.063
51080SOL     OW55078  14.418  11.851   0.102
51080SOL    HW155079  14.409  11.861   0.197
51080SOL    HW255080  14.399  11.937   0.067
51081SOL     OW55081  12.555   6.383   4.260
51081SOL    HW155082  12.470   6.368   4.219
51081SOL    HW255083  12.545   6.351   4.350
51082SOL     OW55084   7.810  12.670  12.796
51082SOL    HW155085   7.758  12.749  12.782
51082SOL    HW255086   7.860  12.686  12.876
51083SOL     OW55087  12.354   7.628   9.283
51083SOL    HW155088  12.436   7.662   9.321
51083SOL    HW255089  12.368   7.636   9.189
51084SOL     OW55090  11.723   3.539  13.630
51084SOL    HW155091  11.742   3.525  13.537
51084SOL    HW255092  11.687   3.455  13.659
51085SOL     OW55093   4.389   3.180   3.244
51085SOL    HW155094   4.465   3.142   3.288
51085SOL    HW255095   4.425   3.223   3.167
51086SOL     OW55096   2.214   8.602  10.986
51086SOL    HW155097   2.144   8.579  10.924
51086SOL    HW255098   2.190   8.689  11.018
51087SOL     OW55099   8.890  10.411  13.981
51087SOL    HW155100   8.886  10.481  13.915
51087SOL    HW255101   8.976  10.420  14.020
51088SOL     OW55102   7.980   0.898   0.057
51088SOL    HW155103   7.947   0.810   0.039
51088SOL    HW255104   7.901   0.949   0.076
51089SOL     OW55105   8.048  12.689  10.606
51089SOL    HW155106   8.028  12.698  10.513
51089SOL    HW255107   8.026  12.599  10.628
51090SOL     OW55108   5.113   5.626   6.221
51090SOL    HW155109   5.190   5.679   6.200
51090SOL    HW255110   5.066   5.619   6.138
51091SOL     OW55111   8.678   3.354  12.218
51091SOL    HW155112   8.772   3.369  12.208
51091SOL    HW255113   8.639   3.441  12.211
51092SOL     OW55114   8.084   1.277   8.857
51092SOL    HW155115   8.022   1.349   8.863
51092SOL    HW255116   8.051   1.222   8.785
51093SOL     OW55117  12.248   5.958  12.587
51093SOL    HW155118  12.238   6.001  12.672
51093SOL    HW255119  12.342   5.942  12.579
51094SOL     OW55120   9.534   4.303  14.618
51094SOL    HW155121   9.605   4.332  14.674
51094SOL    HW255122   9.512   4.380  14.564
51095SOL     OW55123   2.557   4.867   7.978
51095SOL    HW155124   2.610   4.809   8.033
51095SOL    HW255125   2.467   4.855   8.009
51096SOL     OW55126   7.496  10.261  14.349
51096SOL    HW155127   7.501  10.307  14.433
51096SOL    HW255128   7.504  10.329  14.283
51097SOL     OW55129   7.682   3.472   3.409
51097SOL    HW155130   7.692   3.398   3.469
51097SOL    HW255131   7.602   3.452   3.360
51098SOL     OW55132   4.319   3.840   6.603
51098SOL    HW155133   4.386   3.893   6.646
51098SOL    HW255134   4.249   3.901   6.582
51099SOL     OW55135   3.114   3.408   6.491
51099SOL    HW155136   3.031   3.452   6.508
51099SOL    HW255137   3.178   3.479   6.481
51100SOL     OW55138  12.410  10.308   8.548
51100SOL    HW155139  12.471  10.252   8.597
51100SOL    HW255140  12.379  10.372   8.613
51101SOL     OW55141   1.910   0.803   7.600
51101SOL    HW155142   1.823   0.763   7.595
51101SOL    HW255143   1.901   0.873   7.664
51102SOL     OW55144  12.100  10.097  12.460
51102SOL    HW155145  12.020  10.086  12.409
51102SOL    HW255146  12.081  10.170  12.519
51103SOL     OW55147   7.891  13.306   7.940
51103SOL    HW155148   7.922  13.372   7.878
51103SOL    HW255149   7.896  13.223   7.892
51104SOL     OW55150   0.175  11.653  14.226
51104SOL    HW155151   0.198  11.566  14.259
51104SOL    HW255152   0.252  11.707  14.245
51105SOL     OW55153   7.770  12.049  14.780
51105SOL    HW155154   7.743  12.140  14.788
51105SOL    HW255155   7.793  12.023  14.870
51106SOL     OW55156   1.555   7.674   6.091
51106SOL    HW155157   1.640   7.687   6.050
51106SOL    HW255158   1.492   7.675   6.019
51107SOL     OW55159   9.048  10.014  11.463
51107SOL    HW155160   9.031  10.108  11.475
51107SOL    HW255161   8.980   9.985  11.402
51108SOL     OW55162   1.753  10.614  10.682
51108SOL    HW155163   1.680  10.609  10.743
51108SOL    HW255164   1.829  10.584  10.733
51109SOL     OW55165   1.213  11.709  10.718
51109SOL    HW155166   1.256  11.632  10.755
51109SOL    HW255167   1.181  11.680  10.632
51110SOL     OW55168   7.576   3.494   9.813
51110SOL    HW155169   7.631   3.426   9.775
51110SOL    HW255170   7.596   3.572   9.761
51111SOL     OW55171  11.131   6.597   9.898
51111SOL    HW155172  11.051   6.546   9.911
51111SOL    HW255173  11.197   6.550   9.948
51112SOL     OW55174   0.565  11.056  13.772
51112SOL    HW155175   0.556  10.962  13.792
51112SOL    HW255176   0.526  11.065  13.685
51113SOL     OW55177   3.977   1.552   7.498
51113SOL    HW155178   4.040   1.489   7.531
51113SOL    HW255179   3.992   1.631   7.551
51114SOL     OW55180   3.795   8.294  13.366
51114SOL    HW155181   3.850   8.224  13.402
51114SOL    HW255182   3.813   8.370  13.422
51115SOL     OW55183  13.464   5.928   5.692
51115SOL    HW155184  13.495   5.909   5.780
51115SOL    HW255185  13.540   5.962   5.646
51116SOL     OW55186   0.521  10.279   8.676
51116SOL    HW155187   0.508  10.286   8.582
51116SOL    HW255188   0.437  10.304   8.714
51117SOL     OW55189  13.260  14.159   5.705
51117SOL    HW155190  13.334  14.184   5.760
51117SOL    HW255191  13.196  14.123   5.766
51118SOL     OW55192   0.432   8.180   9.954
51118SOL    HW155193   0.446   8.240   9.880
51118SOL    HW255194   0.521   8.154   9.980
51119SOL     OW55195   2.366   1.716  10.830
51119SOL    HW155196   2.457   1.706  10.803
51119SOL    HW255197   2.350   1.811  10.827
51120SOL     OW55198   5.984   6.987   5.374
51120SOL    HW155199   5.898   7.019   5.399
51120SOL    HW255200   6.020   6.949   5.454
51121SOL     OW55201  14.272   0.136   0.670
51121SOL    HW155202  14.211   0.206   0.645
51121SOL    HW255203  14.358   0.172   0.652
51122SOL     OW55204  10.838   3.801   5.406
51122SOL    HW155205  10.905   3.754   5.356
51122SOL    HW255206  10.771   3.735   5.424
51123SOL     OW55207   0.255  12.367  11.383
51123SOL    HW155208   0.348  12.343  11.383
51123SOL    HW255209   0.244  12.419  11.303
51124SOL     OW55210  10.330  14.233   5.534
51124SOL    HW155211  10.295  14.322   5.542
51124SOL    HW255212  10.370  14.231   5.447
51125SOL     OW55213   9.968  11.570   9.427
51125SOL    HW155214   9.918  11.644   9.462
51125SOL    HW255215   9.979  11.511   9.502
51126SOL     OW55216   3.007   9.265   0.080
51126SOL    HW155217   3.028   9.284   0.171
51126SOL    HW255218   2.915   9.290   0.070
51127SOL     OW55219   5.703  10.932  12.635
51127SOL    HW155220   5.702  11.018  12.677
51127SOL    HW255221   5.760  10.943  12.559
51128SOL     OW55222   6.179   5.924   9.949
51128SOL    HW155223   6.182   5.957   9.859
51128SOL    HW255224   6.267   5.892   9.966
51129SOL     OW55225   2.123   5.056   6.507
51129SOL    HW155226   2.158   5.142   6.533
51129SOL    HW255227   2.081   5.071   6.423
51130SOL     OW55228   3.839   4.318  12.203
51130SOL    HW155229   3.830   4.378  12.277
51130SOL    HW255230   3.770   4.253  12.217
51131SOL     OW55231   8.054  10.934  12.846
51131SOL    HW155232   8.057  10.878  12.768
51131SOL    HW255233   8.055  11.024  12.811
51132SOL     OW55234   1.976  14.267   5.052
51132SOL    HW155235   1.893  14.245   5.010
51132SOL    HW255236   1.955  14.340   5.111
51133SOL     OW55237   2.557   4.735  13.397
51133SOL    HW155238   2.501   4.712  13.471
51133SOL    HW255239   2.507   4.706  13.320
51134SOL     OW55240  14.404   5.798   2.552
51134SOL    HW155241  14.347   5.768   2.481
51134SOL    HW255242  14.465   5.858   2.509
51135SOL     OW55243   0.471  10.570  10.411
51135SOL    HW155244   0.465  10.494  10.353
51135SOL    HW255245   0.545  10.552  10.468
51136SOL     OW55246   3.301   8.553   0.474
51136SOL    HW155247   3.274   8.535   0.564
51136SOL    HW255248   3.337   8.470   0.443
51137SOL     OW55249  11.323   9.035  10.901
51137SOL    HW155250  11.384   9.076  10.840
51137SOL    HW255251  11.322   9.093  10.977
51138SOL     OW55252   0.216   8.632   6.593
51138SOL    HW155253   0.156   8.699   6.626
51138SOL    HW255254   0.257   8.596   6.671
51139SOL     OW55255  10.502  13.552   6.049
51139SOL    HW155256  10.457  13.531   6.131
51139SOL    HW255257  10.514  13.647   6.052
51140SOL     OW55258   1.210   8.193  11.547
51140SOL    HW155259   1.239   8.277  11.511
51140SOL    HW255260   1.161   8.217  11.626
51141SOL     OW55261   1.636   0.406  14.756
51141SOL    HW155262   1.678   0.418  14.841
51141SOL    HW255263   1.638   0.494  14.716
51142SOL     OW55264   9.077  13.046  11.666
51142SOL    HW155265   9.034  13.125  11.699
51142SOL    HW255266   9.061  12.980  11.734
51143SOL     OW55267   5.384   0.935   6.881
51143SOL    HW155268   5.474   0.966   6.872
51143SOL    HW255269   5.381   0.854   6.829
51144SOL     OW55270   5.011   4.679   2.930
51144SOL    HW155271   4.999   4.743   3.001
51144SOL    HW255272   5.103   4.654   2.937
51145SOL     OW55273  10.450  14.682   0.144
51145SOL    HW155274  10.380  14.620   0.124
51145SOL    HW255275  10.493  14.696   0.060
51146SOL     OW55276   0.890  12.149   9.913
51146SOL    HW155277   0.975  12.175   9.878
51146SOL    HW255278   0.909  12.074   9.969
51147SOL     OW55279   5.186   7.560   6.734
51147SOL    HW155280   5.244   7.489   6.707
51147SOL    HW255281   5.219   7.637   6.687
51148SOL     OW55282  11.037  13.066   5.685
51148SOL    HW155283  11.090  13.010   5.629
51148SOL    HW255284  10.985  13.005   5.737
51149SOL     OW55285   7.108   9.610   8.520
51149SOL    HW155286   7.041   9.635   8.584
51149SOL    HW255287   7.190   9.608   8.571
51150SOL     OW55288   0.637  13.744  14.271
51150SOL    HW155289   0.676  13.697  14.345
51150SOL    HW255290   0.692  13.723  14.196
51151SOL     OW55291   9.965  10.289   6.399
51151SOL    HW155292  10.017  10.214   6.427
51151SOL    HW255293   9.908  10.309   6.473
51152SOL     OW55294   0.812  14.556   0.789
51152SOL    HW155295   0.900  14.593   0.788
51152SOL    HW255296   0.763  14.607   0.724
51153SOL     OW55297   1.776  13.373  12.628
51153SOL    HW155298   1.823  13.329  12.557
51153SOL    HW255299   1.765  13.306  12.695
51154SOL     OW55300   7.194   4.224  11.913
51154SOL    HW155301   7.158   4.190  11.831
51154SOL    HW255302   7.221   4.146  11.962
51155SOL     OW55303  14.625  11.384  10.394
51155SOL    HW155304  14.590  11.299  10.423
51155SOL    HW255305  14.710  11.363  10.355
51156SOL     OW55306   4.512   1.926   1.456
51156SOL    HW155307   4.566   1.991   1.411
51156SOL    HW255308   4.575   1.876   1.508
51157SOL     OW55309   4.584   8.880   2.140
51157SOL    HW155310   4.520   8.948   2.161
51157SOL    HW255311   4.640   8.919   2.073
51158SOL     OW55312  13.926   2.911  10.613
51158SOL    HW155313  13.925   2.816  10.618
51158SOL    HW255314  13.965   2.939  10.696
51159SOL     OW55315   0.338   2.745   2.930
51159SOL    HW155316   0.376   2.811   2.987
51159SOL    HW255317   0.245   2.747   2.949
51160SOL     OW55318   5.038   8.443   8.739
51160SOL    HW155319   5.088   8.389   8.800
51160SOL    HW255320   4.983   8.498   8.795
51161SOL     OW55321  10.708   4.144   4.999
51161SOL    HW155322  10.707   4.144   4.903
51161SOL    HW255323  10.618   4.166   5.024
51162SOL     OW55324  10.303   6.535   6.997
51162SOL    HW155325  10.258   6.499   7.073
51162SOL    HW255326  10.250   6.611   6.971
51163SOL     OW55327   5.289   6.778  13.714
51163SOL    HW155328   5.345   6.774  13.791
51163SOL    HW255329   5.339   6.830  13.651
51164SOL     OW55330   7.886   7.504  13.533
51164SOL    HW155331   7.914   7.466  13.450
51164SOL    HW255332   7.956   7.565  13.556
51165SOL     OW55333   1.693   4.157   7.622
51165SOL    HW155334   1.683   4.226   7.557
51165SOL    HW255335   1.788   4.151   7.636
51166SOL     OW55336   2.785   6.166  12.903
51166SOL    HW155337   2.705   6.176  12.954
51166SOL    HW255338   2.809   6.074  12.914
51167SOL     OW55339   5.455  11.384   7.871
51167SOL    HW155340   5.417  11.303   7.906
51167SOL    HW255341   5.385  11.421   7.817
51168SOL     OW55342   4.540  10.960   4.897
51168SOL    HW155343   4.611  10.944   4.958
51168SOL    HW255344   4.468  10.992   4.952
51169SOL     OW55345   5.049   2.890   2.608
51169SOL    HW155346   5.032   2.979   2.641
51169SOL    HW255347   4.962   2.852   2.597
51170SOL     OW55348   3.507  13.607  10.364
51170SOL    HW155349   3.589  13.592  10.316
51170SOL    HW255350   3.452  13.656  10.302
51171SOL     OW55351   3.931   5.854   6.294
51171SOL    HW155352   4.013   5.884   6.256
51171SOL    HW255353   3.958   5.802   6.371
51172SOL     OW55354   6.043   4.388   0.036
51172SOL    HW155355   6.138   4.382   0.031
51172SOL    HW255356   6.019   4.446  14.837
51173SOL     OW55357  12.765  10.451  13.044
51173SOL    HW155358  12.728  10.533  13.009
51173SOL    HW255359  12.707  10.427  13.116
51174SOL     OW55360   5.157   1.350   2.110
51174SOL    HW155361   5.097   1.425   2.114
51174SOL    HW255362   5.189   1.339   2.199
51175SOL     OW55363   8.998   2.072   3.254
51175SOL    HW155364   8.986   2.131   3.328
51175SOL    HW255365   9.061   2.007   3.286
51176SOL     OW55366   3.470  12.469  14.631
51176SOL    HW155367   3.510  12.549  14.596
51176SOL    HW255368   3.395  12.500  14.682
51177SOL     OW55369  12.551  12.163   6.581
51177SOL    HW155370  12.490  12.154   6.508
51177SOL    HW255371  12.613  12.090   6.570
51178SOL     OW55372   9.867   0.563   8.515
51178SOL    HW155373   9.849   0.620   8.590
51178SOL    HW255374   9.790   0.507   8.508
51179SOL     OW55375   4.863   2.099   2.716
51179SOL    HW155376   4.948   2.057   2.731
51179SOL    HW255377   4.881   2.193   2.726
51180SOL     OW55378   8.143   1.747  13.706
51180SOL    HW155379   8.210   1.692  13.664
51180SOL    HW255380   8.169   1.752  13.797
51181SOL     OW55381   4.614   7.942   1.769
51181SOL    HW155382   4.696   7.990   1.759
51181SOL    HW255383   4.594   7.948   1.862
51182SOL     OW55384  13.288   7.649   6.780
51182SOL    HW155385  13.379   7.680   6.780
51182SOL    HW255386  13.254   7.673   6.694
51183SOL     OW55387   8.061  14.206   8.131
51183SOL    HW155388   8.099  14.291   8.153
51183SOL    HW255389   7.993  14.192   8.197
51184SOL     OW55390   7.223   7.305   2.155
51184SOL    HW155391   7.291   7.241   2.179
51184SOL    HW255392   7.262   7.354   2.083
51185SOL     OW55393   6.534   5.438   4.228
51185SOL    HW155394   6.483   5.358   4.234
51185SOL    HW255395   6.471   5.508   4.243
51186SOL     OW55396   1.469   6.275  12.926
51186SOL    HW155397   1.469   6.346  12.861
51186SOL    HW255398   1.555   6.281  12.967
51187SOL     OW55399   7.003   3.895   3.861
51187SOL    HW155400   6.954   3.824   3.902
51187SOL    HW255401   7.015   3.868   3.770
51188SOL     OW55402   8.916   7.610   4.461
51188SOL    HW155403   8.983   7.546   4.484
51188SOL    HW255404   8.965   7.689   4.438
51189SOL     OW55405  12.958   3.505  11.195
51189SOL    HW155406  12.959   3.410  11.186
51189SOL    HW255407  13.027   3.523  11.259
51190SOL     OW55408   6.467   8.765   1.097
51190SOL    HW155409   6.494   8.857   1.088
51190SOL    HW255410   6.406   8.752   1.024
51191SOL     OW55411   4.580   2.766  11.181
51191SOL    HW155412   4.533   2.686  11.156
51191SOL    HW255413   4.623   2.795  11.100
51192SOL     OW55414   5.686  10.427   8.725
51192SOL    HW155415   5.610  10.415   8.668
51192SOL    HW255416   5.653  10.482   8.797
51193SOL     OW55417   1.711   4.423   5.412
51193SOL    HW155418   1.700   4.444   5.505
51193SOL    HW255419   1.725   4.329   5.410
51194SOL     OW55420   0.999   3.019   9.654
51194SOL    HW155421   0.949   3.019   9.572
51194SOL    HW255422   0.935   3.001   9.722
51195SOL     OW55423   3.722  14.586  10.475
51195SOL    HW155424   3.798  14.552  10.522
51195SOL    HW255425   3.722  14.680  10.494
51196SOL     OW55426   2.422  13.853  10.329
51196SOL    HW155427   2.336  13.812  10.341
51196SOL    HW255428   2.462  13.849  10.416
51197SOL     OW55429   7.810  13.261  12.513
51197SOL    HW155430   7.763  13.296  12.588
51197SOL    HW255431   7.882  13.210  12.551
51198SOL     OW55432   2.304   6.768   5.661
51198SOL    HW155433   2.210   6.773   5.677
51198SOL    HW255434   2.313   6.772   5.565
51199SOL     OW55435   5.763   9.480  14.365
51199SOL    HW155436   5.725   9.413  14.308
51199SOL    HW255437   5.774   9.556  14.309
51200SOL     OW55438   6.330   6.307  14.175
51200SOL    HW155439   6.320   6.364  14.098
51200SOL    HW255440   6.423   6.285  14.178
51201SOL     OW55441  13.272  11.507  11.813
51201SOL    HW155442  13.323  11.588  11.817
51201SOL    HW255443  13.210  11.521  11.742
51202SOL     OW55444  12.698   6.644   0.294
51202SOL    HW155445  12.738   6.717   0.342
51202SOL    HW255446  12.708   6.569   0.352
51203SOL     OW55447  11.128   4.868   3.817
51203SOL    HW155448  11.177   4.851   3.737
51203SOL    HW255449  11.195   4.869   3.886
51204SOL     OW55450   5.599  11.408  11.015
51204SOL    HW155451   5.675  11.421  11.072
51204SOL    HW255452   5.600  11.315  10.993
51205SOL     OW55453  13.904   8.552  12.699
51205SOL    HW155454  13.833   8.487  12.706
51205SOL    HW255455  13.867   8.622  12.646
51206SOL     OW55456   2.475   5.107   9.803
51206SOL    HW155457   2.424   5.027   9.797
51206SOL    HW255458   2.416   5.177   9.776
51207SOL     OW55459   1.079   5.471   1.733
51207SOL    HW155460   1.023   5.443   1.660
51207SOL    HW255461   1.019   5.511   1.795
51208SOL     OW55462  14.415   3.515  13.897
51208SOL    HW155463  14.487   3.464  13.933
51208SOL    HW255464  14.457   3.591  13.856
51209SOL     OW55465  13.756   3.386  13.420
51209SOL    HW155466  13.826   3.414  13.478
51209SOL    HW255467  13.749   3.291  13.435
51210SOL     OW55468   4.290  12.279   3.525
51210SOL    HW155469   4.196  12.274   3.509
51210SOL    HW255470   4.323  12.192   3.500
51211SOL     OW55471   6.112   7.187  13.508
51211SOL    HW155472   6.081   7.110  13.461
51211SOL    HW255473   6.116   7.256  13.441
51212SOL     OW55474  10.274   8.191   5.512
51212SOL    HW155475  10.341   8.213   5.577
51212SOL    HW255476  10.204   8.150   5.562
51213SOL     OW55477   8.875  10.989   8.750
51213SOL    HW155478   8.862  10.959   8.660
51213SOL    HW255479   8.897  11.081   8.742
51214SOL     OW55480   1.973  10.455   0.378
51214SOL    HW155481   1.944  10.518   0.312
51214SOL    HW255482   1.903  10.390   0.382
51215SOL     OW55483   0.251   5.144   4.721
51215SOL    HW155484   0.179   5.081   4.713
51215SOL    HW255485   0.211   5.229   4.706
51216SOL     OW55486  13.262   4.328  11.255
51216SOL    HW155487  13.353   4.329  11.228
51216SOL    HW255488  13.249   4.409  11.303
51217SOL     OW55489   7.907   6.692   6.690
51217SOL    HW155490   7.947   6.605   6.689
51217SOL    HW255491   7.975   6.750   6.655
51218SOL     OW55492  12.786   4.328  12.479
51218SOL    HW155493  12.836   4.319  12.560
51218SOL    HW255494  12.829   4.267  12.418
51219SOL     OW55495   3.377  11.602   3.051
51219SOL    HW155496   3.338  11.690   3.048
51219SOL    HW255497   3.301  11.544   3.059
51220SOL     OW55498   0.580   9.242   0.779
51220SOL    HW155499   0.661   9.238   0.727
51220SOL    HW255500   0.568   9.335   0.797
51221SOL     OW55501  10.068   6.792  14.172
51221SOL    HW155502  10.124   6.789  14.250
51221SOL    HW255503   9.996   6.732  14.193
51222SOL     OW55504   0.853   0.698  10.799
51222SOL    HW155505   0.771   0.738  10.770
51222SOL    HW255506   0.858   0.717  10.893
51223SOL     OW55507  11.723   3.874   8.003
51223SOL    HW155508  11.707   3.958   7.959
51223SOL    HW255509  11.711   3.892   8.096
51224SOL     OW55510   5.349   8.788  13.409
51224SOL    HW155511   5.307   8.846  13.472
51224SOL    HW255512   5.393   8.847  13.348
51225SOL     OW55513  11.774   0.077   7.121
51225SOL    HW155514  11.680   0.064   7.137
51225SOL    HW255515  11.804  14.867   7.084
51226SOL     OW55516   5.013   2.167  13.570
51226SOL    HW155517   5.057   2.214  13.640
51226SOL    HW255518   5.039   2.213  13.490
51227SOL     OW55519   8.225  12.333   9.917
51227SOL    HW155520   8.228  12.239   9.899
51227SOL    HW255521   8.131  12.354   9.914
51228SOL     OW55522  12.704   3.172  10.701
51228SOL    HW155523  12.707   3.169  10.606
51228SOL    HW255524  12.685   3.263  10.722
51229SOL     OW55525   9.679  12.523   1.819
51229SOL    HW155526   9.636  12.606   1.839
51229SOL    HW255527   9.608  12.459   1.816
51230SOL     OW55528  11.205   5.720   7.476
51230SOL    HW155529  11.150   5.796   7.497
51230SOL    HW255530  11.173   5.690   7.391
51231SOL     OW55531  10.791   6.003  14.506
51231SOL    HW155532  10.880   5.969  14.503
51231SOL    HW255533  10.748   5.963  14.430
51232SOL     OW55534   2.316   2.733  12.876
51232SOL    HW155535   2.292   2.644  12.901
51232SOL    HW255536   2.412   2.732  12.877
51233SOL     OW55537   7.145   0.755  11.880
51233SOL    HW155538   7.065   0.704  11.892
51233SOL    HW255539   7.186   0.757  11.967
51234SOL     OW55540   2.038  11.597  11.390
51234SOL    HW155541   2.052  11.632  11.302
51234SOL    HW255542   2.067  11.506  11.384
51235SOL     OW55543  13.039   4.474  10.965
51235SOL    HW155544  13.088   4.550  10.999
51235SOL    HW255545  13.011   4.427  11.043
51236SOL     OW55546   2.547   0.274   3.621
51236SOL    HW155547   2.587   0.208   3.678
51236SOL    HW255548   2.551   0.236   3.534
51237SOL     OW55549   8.035   6.198  11.097
51237SOL    HW155550   7.969   6.129  11.107
51237SOL    HW255551   7.988   6.279  11.115
51238SOL     OW55552   0.895  14.361  11.729
51238SOL    HW155553   0.931  14.446  11.706
51238SOL    HW255554   0.937  14.299  11.669
51239SOL     OW55555  10.189   9.955   1.729
51239SOL    HW155556  10.283   9.969   1.726
51239SOL    HW255557  10.171   9.897   1.655
51240SOL     OW55558  13.417   1.299  14.015
51240SOL    HW155559  13.321   1.303  14.017
51240SOL    HW255560  13.439   1.221  14.066
51241SOL     OW55561   7.349  13.854   0.035
51241SOL    HW155562   7.380  13.787   0.095
51241SOL    HW255563   7.288  13.906   0.087
51242SOL     OW55564   4.055   7.936   9.450
51242SOL    HW155565   4.149   7.925   9.466
51242SOL    HW255566   4.014   7.907   9.532
51243SOL     OW55567  13.088   5.134   5.708
51243SOL    HW155568  13.046   5.202   5.655
51243SOL    HW255569  13.048   5.052   5.679
51244SOL     OW55570   5.603   0.652   1.496
51244SOL    HW155571   5.618   0.561   1.471
51244SOL    HW255572   5.668   0.670   1.563
51245SOL     OW55573   6.756  12.823  11.429
51245SOL    HW155574   6.763  12.917  11.414
51245SOL    HW255575   6.769  12.784  11.342
51246SOL     OW55576   3.761  13.932   1.789
51246SOL    HW155577   3.704  13.950   1.863
51246SOL    HW255578   3.836  13.990   1.801
51247SOL     OW55579  12.131   0.857   2.004
51247SOL    HW155580  12.188   0.916   1.955
51247SOL    HW255581  12.164   0.769   1.983
51248SOL     OW55582  12.075   6.290   7.499
51248SOL    HW155583  12.085   6.377   7.537
51248SOL    HW255584  11.988   6.262   7.527
51249SOL     OW55585   3.873   1.395   6.329
51249SOL    HW155586   3.951   1.342   6.343
51249SOL    HW255587   3.894   1.480   6.369
51250SOL     OW55588   0.362  11.930   7.354
51250SOL    HW155589   0.445  11.894   7.322
51250SOL    HW255590   0.353  12.013   7.306
51251SOL     OW55591  12.592   8.169   2.347
51251SOL    HW155592  12.554   8.143   2.263
51251SOL    HW255593  12.532   8.133   2.413
51252SOL     OW55594  11.758  14.759   5.622
51252SOL    HW155595  11.834  14.812   5.596
51252SOL    HW255596  11.700  14.761   5.546
51253SOL     OW55597   4.862   8.988   0.097
51253SOL    HW155598   4.935   9.029   0.144
51253SOL    HW255599   4.848   9.046   0.022
51254SOL     OW55600   6.286   0.015  13.583
51254SOL    HW155601   6.292  14.852  13.495
51254SOL    HW255602   6.352   0.084  13.586
51255SOL     OW55603   4.574  11.102   6.437
51255SOL    HW155604   4.559  11.127   6.528
51255SOL    HW255605   4.538  11.014   6.430
51256SOL     OW55606   9.774  13.877   1.564
51256SOL    HW155607   9.769  13.892   1.658
51256SOL    HW255608   9.697  13.825   1.543
51257SOL     OW55609   4.872   4.241  12.691
51257SOL    HW155610   4.830   4.322  12.662
51257SOL    HW255611   4.893   4.194  12.611
51258SOL     OW55612  12.888  14.321   3.286
51258SOL    HW155613  12.948  14.267   3.336
51258SOL    HW255614  12.803  14.308   3.329
51259SOL     OW55615   8.207   6.363   0.489
51259SOL    HW155616   8.279   6.417   0.523
51259SOL    HW255617   8.251   6.290   0.445
51260SOL     OW55618   5.389   9.805   1.050
51260SOL    HW155619   5.327   9.809   1.122
51260SOL    HW255620   5.418   9.714   1.048
51261SOL     OW55621   3.730  12.638  10.596
51261SOL    HW155622   3.780  12.557  10.587
51261SOL    HW255623   3.784  12.693  10.653
51262SOL     OW55624  12.081  11.399   3.520
51262SOL    HW155625  11.988  11.406   3.500
51262SOL    HW255626  12.087  11.416   3.614
51263SOL     OW55627   2.941  12.359  10.304
51263SOL    HW155628   2.865  12.308  10.331
51263SOL    HW255629   2.995  12.298  10.253
51264SOL     OW55630   0.317   9.677   3.186
51264SOL    HW155631   0.313   9.773   3.192
51264SOL    HW255632   0.297   9.647   3.274
51265SOL     OW55633   2.795   8.987   9.172
51265SOL    HW155634   2.782   8.913   9.232
51265SOL    HW255635   2.872   9.033   9.207
51266SOL     OW55636   3.969   9.778  10.833
51266SOL    HW155637   3.878   9.799  10.814
51266SOL    HW255638   3.992   9.834  10.907
51267SOL     OW55639   9.508   3.526   1.860
51267SOL    HW155640   9.435   3.580   1.891
51267SOL    HW255641   9.550   3.494   1.940
51268SOL     OW55642  12.268   3.467   1.693
51268SOL    HW155643  12.256   3.433   1.604
51268SOL    HW255644  12.316   3.398   1.738
51269SOL     OW55645  12.015  10.639   3.924
51269SOL    HW155646  11.972  10.673   3.845
51269SOL    HW255647  11.996  10.705   3.991
51270SOL     OW55648  12.991   4.840  13.991
51270SOL    HW155649  13.012   4.758  13.945
51270SOL    HW255650  13.061   4.900  13.966
51271SOL     OW55651  10.441  13.944   4.942
51271SOL    HW155652  10.378  14.007   4.977
51271SOL    HW255653  10.402  13.858   4.960
51272SOL     OW55654   0.129   0.528  11.336
51272SOL    HW155655   0.059   0.501  11.276
51272SOL    HW255656   0.090   0.595  11.392
51273SOL     OW55657   4.756   1.796   6.572
51273SOL    HW155658   4.703   1.728   6.529
51273SOL    HW255659   4.697   1.871   6.580
51274SOL     OW55660  12.077   4.416  11.609
51274SOL    HW155661  12.128   4.459  11.540
51274SOL    HW255662  11.986   4.441  11.590
51275SOL     OW55663   5.442   9.546   0.940
51275SOL    HW155664   5.353   9.551   0.906
51275SOL    HW255665   5.448   9.458   0.978
51276SOL     OW55666   8.492   9.732   2.974
51276SOL    HW155667   8.491   9.730   2.878
51276SOL    HW255668   8.444   9.811   2.997
51277SOL     OW55669   8.106   7.547   0.251
51277SOL    HW155670   8.094   7.464   0.204
51277SOL    HW255671   8.193   7.577   0.225
51278SOL     OW55672   5.213   6.742   3.976
51278SOL    HW155673   5.257   6.676   3.922
51278SOL    HW255674   5.120   6.722   3.968
51279SOL     OW55675  12.996   4.465   4.683
51279SOL    HW155676  13.090   4.454   4.689
51279SOL    HW255677  12.982   4.559   4.689
51280SOL     OW55678   8.011   2.667   9.056
51280SOL    HW155679   7.928   2.703   9.087
51280SOL    HW255680   8.030   2.596   9.117
51281SOL     OW55681   8.750  11.045  10.332
51281SOL    HW155682   8.697  10.972  10.300
51281SOL    HW255683   8.706  11.073  10.412
51282SOL     OW55684   9.799  12.098   2.514
51282SOL    HW155685   9.808  12.010   2.478
51282SOL    HW255686   9.770  12.085   2.604
51283SOL     OW55687   1.286   1.378  12.823
51283SOL    HW155688   1.279   1.386  12.918
51283SOL    HW255689   1.273   1.284  12.806
51284SOL     OW55690   2.322  11.794   5.231
51284SOL    HW155691   2.239  11.826   5.195
51284SOL    HW255692   2.369  11.759   5.155
51285SOL     OW55693  14.625   5.002   1.891
51285SOL    HW155694  14.576   5.084   1.900
51285SOL    HW255695  14.564   4.934   1.920
51286SOL     OW55696   8.962   6.233   5.557
51286SOL    HW155697   8.965   6.150   5.605
51286SOL    HW255698   8.937   6.298   5.622
51287SOL     OW55699  13.922  12.744  14.272
51287SOL    HW155700  13.902  12.808  14.340
51287SOL    HW255701  14.013  12.719  14.289
51288SOL     OW55702   6.313   5.441  10.677
51288SOL    HW155703   6.370   5.495  10.732
51288SOL    HW255704   6.334   5.467  10.588
51289SOL     OW55705   5.855   1.768   4.500
51289SOL    HW155706   5.941   1.727   4.499
51289SOL    HW255707   5.795   1.698   4.525
51290SOL     OW55708   7.287   6.098   1.200
51290SOL    HW155709   7.376   6.128   1.217
51290SOL    HW255710   7.243   6.101   1.285
51291SOL     OW55711  11.905   0.944   0.571
51291SOL    HW155712  11.939   0.970   0.657
51291SOL    HW255713  11.811   0.963   0.575
51292SOL     OW55714   2.847   2.585   7.642
51292SOL    HW155715   2.937   2.606   7.614
51292SOL    HW255716   2.810   2.538   7.568
51293SOL     OW55717   6.971  14.157  14.848
51293SOL    HW155718   6.877  14.169  14.840
51293SOL    HW255719   6.985  14.134   0.067
51294SOL     OW55720   3.204   7.191   7.923
51294SOL    HW155721   3.138   7.201   7.855
51294SOL    HW255722   3.204   7.098   7.943
51295SOL     OW55723   2.073   4.000   4.354
51295SOL    HW155724   2.063   4.067   4.421
51295SOL    HW255725   2.030   3.922   4.391
51296SOL     OW55726   1.006  10.450   0.813
51296SOL    HW155727   1.053  10.394   0.875
51296SOL    HW255728   0.946  10.501   0.868
51297SOL     OW55729  13.486   3.078   5.372
51297SOL    HW155730  13.582   3.081   5.377
51297SOL    HW255731  13.462   3.154   5.319
51298SOL     OW55732   9.291   2.959  13.581
51298SOL    HW155733   9.261   2.916  13.501
51298SOL    HW255734   9.370   2.911  13.607
51299SOL     OW55735   6.468   6.893   5.605
51299SOL    HW155736   6.535   6.843   5.557
51299SOL    HW255737   6.462   6.848   5.690
51300SOL     OW55738   5.352   9.779   3.626
51300SOL    HW155739   5.406   9.703   3.602
51300SOL    HW255740   5.375   9.797   3.717
51301SOL     OW55741   2.444  14.848   2.972
51301SOL    HW155742   2.405  14.788   3.036
51301SOL    HW255743   2.467   0.052   3.023
51302SOL     OW55744   5.238   2.573   3.774
51302SOL    HW155745   5.291   2.543   3.848
51302SOL    HW255746   5.248   2.668   3.774
51303SOL     OW55747   4.696   3.937  12.171
51303SOL    HW155748   4.730   3.870  12.112
51303SOL    HW255749   4.701   4.018  12.121
51304SOL     OW55750   2.501  13.075  11.794
51304SOL    HW155751   2.552  13.151  11.763
51304SOL    HW255752   2.414  13.088  11.756
51305SOL     OW55753  11.768  12.396   6.283
51305SOL    HW155754  11.746  12.487   6.303
51305SOL    HW255755  11.862  12.390   6.301
51306SOL     OW55756  11.220  12.123   3.924
51306SOL    HW155757  11.183  12.060   3.863
51306SOL    HW255758  11.151  12.137   3.989
51307SOL     OW55759   1.700   8.129   0.638
51307SOL    HW155760   1.661   8.044   0.617
51307SOL    HW255761   1.791   8.108   0.662
51308SOL     OW55762   4.711   9.928   5.847
51308SOL    HW155763   4.618   9.919   5.829
51308SOL    HW255764   4.739  10.003   5.795
51309SOL     OW55765   4.912  13.019   8.168
51309SOL    HW155766   4.937  13.012   8.260
51309SOL    HW255767   4.885  12.930   8.144
51310SOL     OW55768   1.298   4.222  12.363
51310SOL    HW155769   1.336   4.293  12.415
51310SOL    HW255770   1.237   4.265  12.303
51311SOL     OW55771   7.401  12.203  13.592
51311SOL    HW155772   7.496  12.194  13.586
51311SOL    HW255773   7.366  12.130  13.542
51312SOL     OW55774  13.412  12.690   3.024
51312SOL    HW155775  13.325  12.707   2.988
51312SOL    HW255776  13.397  12.627   3.094
51313SOL     OW55777   1.998   5.868   7.933
51313SOL    HW155778   1.993   5.906   8.020
51313SOL    HW255779   1.991   5.774   7.947
51314SOL     OW55780   9.187   1.816   6.338
51314SOL    HW155781   9.222   1.782   6.256
51314SOL    HW255782   9.105   1.768   6.351
51315SOL     OW55783   3.073  13.370   8.387
51315SOL    HW155784   3.056  13.389   8.295
51315SOL    HW255785   3.155  13.416   8.406
51316SOL     OW55786   0.882   7.633   2.412
51316SOL    HW155787   0.794   7.668   2.417
51316SOL    HW255788   0.871   7.538   2.421
51317SOL     OW55789   1.153   9.166   2.102
51317SOL    HW155790   1.239   9.128   2.086
51317SOL    HW255791   1.094   9.091   2.107
51318SOL     OW55792   0.872   2.064  12.949
51318SOL    HW155793   0.795   2.084  13.003
51318SOL    HW255794   0.837   2.046  12.862
51319SOL     OW55795  10.431  10.478  10.026
51319SOL    HW155796  10.454  10.566   9.995
51319SOL    HW255797  10.424  10.426   9.946
51320SOL     OW55798   3.199  10.294   2.704
51320SOL    HW155799   3.215  10.327   2.793
51320SOL    HW255800   3.271  10.329   2.652
51321SOL     OW55801  12.318   2.767   3.845
51321SOL    HW155802  12.297   2.759   3.938
51321SOL    HW255803  12.393   2.710   3.832
51322SOL     OW55804   0.517  14.746   1.312
51322SOL    HW155805   0.505  14.840   1.318
51322SOL    HW255806   0.429  14.712   1.293
51323SOL     OW55807   8.040   3.489   7.755
51323SOL    HW155808   8.054   3.573   7.713
51323SOL    HW255809   7.952   3.494   7.792
51324SOL     OW55810   6.715   6.510   3.781
51324SOL    HW155811   6.702   6.565   3.858
51324SOL    HW255812   6.627   6.492   3.748
51325SOL     OW55813  12.683   5.099   0.417
51325SOL    HW155814  12.624   5.144   0.357
51325SOL    HW255815  12.745   5.167   0.444
51326SOL     OW55816   0.086  10.653   7.609
51326SOL    HW155817   0.097  10.748   7.617
51326SOL    HW255818   0.063  10.624   7.698
51327SOL     OW55819   6.971   9.396  14.355
51327SOL    HW155820   6.940   9.318  14.310
51327SOL    HW255821   7.058   9.373  14.387
51328SOL     OW55822   4.627  13.179  11.582
51328SOL    HW155823   4.684  13.193  11.507
51328SOL    HW255824   4.597  13.267  11.607
51329SOL     OW55825  12.921   3.978   5.261
51329SOL    HW155826  12.880   3.945   5.180
51329SOL    HW255827  12.924   4.073   5.249
51330SOL     OW55828   6.765   6.857   1.545
51330SOL    HW155829   6.688   6.803   1.527
51330SOL    HW255830   6.747   6.895   1.631
51331SOL     OW55831   0.946   4.385   3.979
51331SOL    HW155832   1.032   4.421   4.004
51331SOL    HW255833   0.952   4.373   3.885
51332SOL     OW55834  12.251   8.090   0.884
51332SOL    HW155835  12.254   8.148   0.807
51332SOL    HW255836  12.244   8.150   0.958
51333SOL     OW55837  10.603  11.872   6.244
51333SOL    HW155838  10.576  11.837   6.329
51333SOL    HW255839  10.692  11.904   6.259
51334SOL     OW55840   5.043  11.285   7.278
51334SOL    HW155841   5.030  11.253   7.188
51334SOL    HW255842   4.964  11.259   7.325
51335SOL     OW55843  13.485   3.448   5.728
51335SOL    HW155844  13.398   3.412   5.715
51335SOL    HW255845  13.520   3.400   5.803
51336SOL     OW55846  13.321   7.756  11.081
51336SOL    HW155847  13.316   7.847  11.052
51336SOL    HW255848  13.236   7.739  11.123
51337SOL     OW55849   1.609  13.220   4.668
51337SOL    HW155850   1.671  13.183   4.731
51337SOL    HW255851   1.628  13.314   4.668
51338SOL     OW55852  13.501   4.609   3.531
51338SOL    HW155853  13.546   4.587   3.450
51338SOL    HW255854  13.569   4.600   3.599
51339SOL     OW55855   2.491   0.505   2.821
51339SOL    HW155856   2.450   0.577   2.772
51339SOL    HW255857   2.528   0.448   2.754
51340SOL     OW55858   5.101   8.441   9.379
51340SOL    HW155859   5.149   8.359   9.396
51340SOL    HW255860   5.018   8.413   9.341
51341SOL     OW55861   4.472  13.053   7.495
51341SOL    HW155862   4.425  13.073   7.576
51341SOL    HW255863   4.503  13.138   7.464
51342SOL     OW55864  11.708   4.960   5.612
51342SOL    HW155865  11.624   4.954   5.657
51342SOL    HW255866  11.685   4.963   5.519
51343SOL     OW55867  14.760  11.466   2.705
51343SOL    HW155868  14.725  11.382   2.735
51343SOL    HW255869  14.773  11.453   2.611
51344SOL     OW55870  10.748  11.588  11.671
51344SOL    HW155871  10.756  11.679  11.644
51344SOL    HW255872  10.829  11.571  11.720
51345SOL     OW55873   0.331   2.896   4.310
51345SOL    HW155874   0.282   2.911   4.391
51345SOL    HW255875   0.407   2.954   4.317
51346SOL     OW55876   4.838   7.753   3.836
51346SOL    HW155877   4.785   7.796   3.770
51346SOL    HW255878   4.907   7.708   3.787
51347SOL     OW55879  10.320   8.488   3.956
51347SOL    HW155880  10.379   8.461   3.886
51347SOL    HW255881  10.304   8.407   4.005
51348SOL     OW55882  13.020   1.417   1.566
51348SOL    HW155883  12.927   1.400   1.578
51348SOL    HW255884  13.062   1.372   1.639
51349SOL     OW55885   3.413   4.291   5.033
51349SOL    HW155886   3.390   4.229   5.103
51349SOL    HW255887   3.340   4.352   5.031
51350SOL     OW55888  12.422   5.193   6.238
51350SOL    HW155889  12.442   5.152   6.154
51350SOL    HW255890  12.501   5.181   6.290
51351SOL     OW55891  12.537   4.915  12.215
51351SOL    HW155892  12.533   4.941  12.123
51351SOL    HW255893  12.454   4.870  12.231
51352SOL     OW55894  14.601   4.537  11.476
51352SOL    HW155895  14.516   4.494  11.470
51352SOL    HW255896  14.582   4.630  11.465
51353SOL     OW55897  12.235   3.744   1.611
51353SOL    HW155898  12.146   3.768   1.583
51353SOL    HW255899  12.234   3.649   1.614
51354SOL     OW55900   1.221  12.379  10.307
51354SOL    HW155901   1.298  12.394  10.362
51354SOL    HW255902   1.178  12.464  10.302
51355SOL     OW55903   7.062  14.402  12.763
51355SOL    HW155904   7.055  14.415  12.668
51355SOL    HW255905   7.030  14.313  12.776
51356SOL     OW55906   6.139  12.399   8.716
51356SOL    HW155907   6.071  12.426   8.654
51356SOL    HW255908   6.213  12.375   8.660
51357SOL     OW55909   3.341  10.663   5.509
51357SOL    HW155910   3.269  10.723   5.494
51357SOL    HW255911   3.329  10.633   5.599
51358SOL     OW55912  12.195   8.470   3.310
51358SOL    HW155913  12.150   8.551   3.335
51358SOL    HW255914  12.169   8.455   3.219
51359SOL     OW55915  12.238   3.338   4.228
51359SOL    HW155916  12.146   3.316   4.215
51359SOL    HW255917  12.271   3.356   4.139
51360SOL     OW55918   2.365  14.419  10.251
51360SOL    HW155919   2.396  14.454  10.335
51360SOL    HW255920   2.358  14.325  10.266
51361SOL     OW55921   8.848  11.489  12.755
51361SOL    HW155922   8.788  11.556  12.724
51361SOL    HW255923   8.827  11.412  12.703
51362SOL     OW55924  12.094   8.990  13.093
51362SOL    HW155925  12.013   8.956  13.055
51362SOL    HW255926  12.163   8.938  13.052
51363SOL     OW55927  12.827   0.144  13.745
51363SOL    HW155928  12.771   0.186  13.811
51363SOL    HW255929  12.909   0.128  13.792
51364SOL     OW55930   5.229  12.456   6.817
51364SOL    HW155931   5.174  12.528   6.787
51364SOL    HW255932   5.179  12.414   6.886
51365SOL     OW55933   9.640   1.291  12.846
51365SOL    HW155934   9.604   1.323  12.763
51365SOL    HW255935   9.655   1.370  12.898
51366SOL     OW55936  13.556   3.620   9.472
51366SOL    HW155937  13.554   3.714   9.490
51366SOL    HW255938  13.606   3.612   9.390
51367SOL     OW55939  13.574   5.144   7.602
51367SOL    HW155940  13.484   5.160   7.630
51367SOL    HW255941  13.566   5.102   7.517
51368SOL     OW55942  14.342   6.682   5.784
51368SOL    HW155943  14.310   6.772   5.781
51368SOL    HW255944  14.409   6.682   5.851
51369SOL     OW55945   4.134  11.099  13.500
51369SOL    HW155946   4.164  11.122  13.588
51369SOL    HW255947   4.086  11.177  13.470
51370SOL     OW55948  13.595   1.041   8.550
51370SOL    HW155949  13.569   0.951   8.531
51370SOL    HW255950  13.639   1.071   8.470
51371SOL     OW55951   6.221  14.118   8.906
51371SOL    HW155952   6.225  14.031   8.944
51371SOL    HW255953   6.311  14.135   8.876
51372SOL     OW55954   8.734   1.137   9.095
51372SOL    HW155955   8.705   1.060   9.048
51372SOL    HW255956   8.714   1.210   9.036
51373SOL     OW55957   9.623   0.116   9.411
51373SOL    HW155958   9.674   0.172   9.469
51373SOL    HW255959   9.542   0.165   9.395
51374SOL     OW55960  11.902   7.126   8.778
51374SOL    HW155961  11.842   7.055   8.804
51374SOL    HW255962  11.986   7.083   8.766
51375SOL     OW55963   5.525   2.072   0.619
51375SOL    HW155964   5.436   2.082   0.584
51375SOL    HW255965   5.565   2.005   0.563
51376SOL     OW55966   3.086   6.761   0.272
51376SOL    HW155967   3.137   6.826   0.321
51376SOL    HW255968   3.047   6.812   0.200
51377SOL     OW55969  10.474  10.639   2.532
51377SOL    HW155970  10.507  10.635   2.443
51377SOL    HW255971  10.384  10.672   2.523
51378SOL     OW55972  12.215  10.755   7.434
51378SOL    HW155973  12.209  10.834   7.488
51378SOL    HW255974  12.236  10.787   7.346
51379SOL     OW55975   0.476   8.827   3.935
51379SOL    HW155976   0.568   8.852   3.924
51379SOL    HW255977   0.444   8.884   4.006
51380SOL     OW55978  10.940   1.768  10.687
51380SOL    HW155979  10.978   1.746  10.773
51380SOL    HW255980  10.906   1.857  10.699
51381SOL     OW55981  12.495   8.625   2.395
51381SOL    HW155982  12.570   8.569   2.375
51381SOL    HW255983  12.435   8.567   2.443
51382SOL     OW55984   3.166   6.541  10.145
51382SOL    HW155985   3.165   6.617  10.203
51382SOL    HW255986   3.084   6.547  10.096
51383SOL     OW55987   5.742   6.770  13.053
51383SOL    HW155988   5.739   6.679  13.023
51383SOL    HW255989   5.782   6.818  12.981
51384SOL     OW55990  11.126   2.495  13.057
51384SOL    HW155991  11.177   2.576  13.061
51384SOL    HW255992  11.077   2.494  13.140
51385SOL     OW55993   4.194  12.536   8.590
51385SOL    HW155994   4.171  12.622   8.625
51385SOL    HW255995   4.230  12.554   8.503
51386SOL     OW55996  12.708   7.096   6.760
51386SOL    HW155997  12.694   7.094   6.855
51386SOL    HW255998  12.620   7.094   6.723
51387SOL     OW55999  10.593  13.492   7.885
51387SOL    HW156000  10.503  13.490   7.853
51387SOL    HW256001  10.647  13.496   7.806
51388SOL     OW56002   1.035   4.758  13.933
51388SOL    HW156003   1.090   4.808  13.993
51388SOL    HW256004   0.996   4.689  13.988
51389SOL     OW56005  11.929   0.471  14.058
51389SOL    HW156006  12.003   0.436  14.008
51389SOL    HW256007  11.949   0.564  14.069
51390SOL     OW56008   6.798   3.962  10.033
51390SOL    HW156009   6.893   3.963  10.040
51390SOL    HW256010   6.773   3.872  10.051
51391SOL     OW56011  13.470   4.962   2.517
51391SOL    HW156012  13.462   5.041   2.464
51391SOL    HW256013  13.557   4.967   2.556
51392SOL     OW56014   3.956   8.534  13.498
51392SOL    HW156015   4.008   8.454  13.504
51392SOL    HW256016   4.001   8.586  13.431
51393SOL     OW56017  12.126   0.839  12.780
51393SOL    HW156018  12.174   0.832  12.862
51393SOL    HW256019  12.034   0.841  12.806
51394SOL     OW56020   3.767   1.087   5.910
51394SOL    HW156021   3.725   1.126   5.987
51394SOL    HW256022   3.729   0.999   5.904
51395SOL     OW56023   5.516  13.676   9.146
51395SOL    HW156024   5.459  13.690   9.221
51395SOL    HW256025   5.604  13.698   9.177
51396SOL     OW56026   8.680   8.267   2.209
51396SOL    HW156027   8.771   8.237   2.206
51396SOL    HW256028   8.654   8.273   2.117
51397SOL     OW56029  10.550   5.258   2.677
51397SOL    HW156030  10.612   5.224   2.741
51397SOL    HW256031  10.525   5.344   2.710
51398SOL     OW56032   2.811   2.450  10.405
51398SOL    HW156033   2.786   2.485  10.491
51398SOL    HW256034   2.729   2.447  10.356
51399SOL     OW56035   7.073   4.918   3.037
51399SOL    HW156036   7.149   4.965   3.071
51399SOL    HW256037   7.062   4.844   3.096
51400SOL     OW56038   6.866   9.770   6.777
51400SOL    HW156039   6.773   9.778   6.755
51400SOL    HW256040   6.891   9.858   6.806
51401SOL     OW56041   1.343   2.204   2.861
51401SOL    HW156042   1.334   2.283   2.915
51401SOL    HW256043   1.346   2.132   2.924
51402SOL     OW56044   9.290   0.961   8.780
51402SOL    HW156045   9.240   1.014   8.842
51402SOL    HW256046   9.264   0.993   8.693
51403SOL     OW56047   2.970  13.485   6.896
51403SOL    HW156048   3.061  13.490   6.926
51403SOL    HW256049   2.947  13.393   6.904
51404SOL     OW56050   2.464   2.167   6.253
51404SOL    HW156051   2.407   2.100   6.217
51404SOL    HW256052   2.514   2.199   6.178
51405SOL     OW56053   1.697  12.154  11.378
51405SOL    HW156054   1.655  12.226  11.331
51405SOL    HW256055   1.652  12.153  11.463
51406SOL     OW56056   2.647  11.438   7.523
51406SOL    HW156057   2.602  11.520   7.545
51406SOL    HW256058   2.624  11.379   7.596
51407SOL     OW56059  13.814  10.617   7.762
51407SOL    HW156060  13.814  10.553   7.691
51407SOL    HW256061  13.903  10.654   7.761
51408SOL     OW56062   4.573   1.056   4.462
51408SOL    HW156063   4.652   1.029   4.415
51408SOL    HW256064   4.595   1.043   4.554
51409SOL     OW56065  11.159  13.666  14.184
51409SOL    HW156066  11.187  13.697  14.097
51409SOL    HW256067  11.205  13.724  14.245
51410SOL     OW56068  13.540   0.161  14.483
51410SOL    HW156069  13.511   0.094  14.545
51410SOL    HW256070  13.465   0.174  14.426
51411SOL     OW56071  13.679   3.819   7.545
51411SOL    HW156072  13.726   3.902   7.538
51411SOL    HW256073  13.587   3.844   7.548
51412SOL     OW56074   2.851  10.396  14.328
51412SOL    HW156075   2.893  10.314  14.357
51412SOL    HW256076   2.897  10.418  14.247
51413SOL     OW56077   7.480   6.903  14.697
51413SOL    HW156078   7.511   6.815  14.676
51413SOL    HW256079   7.395   6.909  14.654
51414SOL     OW56080   0.817   8.545  10.522
51414SOL    HW156081   0.840   8.633  10.493
51414SOL    HW256082   0.793   8.555  10.614
51415SOL     OW56083   1.545   3.586  11.264
51415SOL    HW156084   1.595   3.519  11.311
51415SOL    HW256085   1.533   3.549  11.176
51416SOL     OW56086   0.273   8.870   9.583
51416SOL    HW156087   0.316   8.853   9.666
51416SOL    HW256088   0.241   8.785   9.554
51417SOL     OW56089  11.958   9.757   4.353
51417SOL    HW156090  11.948   9.665   4.325
51417SOL    HW256091  12.049   9.764   4.380
51418SOL     OW56092  11.117  14.845   0.351
51418SOL    HW156093  11.073   0.050   0.316
51418SOL    HW256094  11.093  14.842   0.443
51419SOL     OW56095   8.347   6.708  11.788
51419SOL    HW156096   8.302   6.727  11.706
51419SOL    HW256097   8.279   6.676  11.847
51420SOL     OW56098   4.052   6.663  14.045
51420SOL    HW156099   3.965   6.698  14.066
51420SOL    HW256100   4.099   6.737  14.006
51421SOL     OW56101  12.717  11.875   4.856
51421SOL    HW156102  12.626  11.866   4.885
51421SOL    HW256103  12.745  11.959   4.892
51422SOL     OW56104   0.670   6.022   7.828
51422SOL    HW156105   0.603   5.987   7.770
51422SOL    HW256106   0.624   6.043   7.909
51423SOL     OW56107   4.845  12.419   2.275
51423SOL    HW156108   4.900  12.470   2.334
51423SOL    HW256109   4.907  12.374   2.218
51424SOL     OW56110   8.585  13.536  13.728
51424SOL    HW156111   8.614  13.627  13.739
51424SOL    HW256112   8.665  13.486  13.719
51425SOL     OW56113  14.386   0.122   4.222
51425SOL    HW156114  14.328   0.197   4.208
51425SOL    HW256115  14.432   0.142   4.304
51426SOL     OW56116   8.872   3.056  13.917
51426SOL    HW156117   8.851   3.000  13.991
51426SOL    HW256118   8.881   2.996  13.843
51427SOL     OW56119   1.444   9.256  13.393
51427SOL    HW156120   1.350   9.259  13.372
51427SOL    HW256121   1.459   9.333  13.447
51428SOL     OW56122  12.201  14.218   0.651
51428SOL    HW156123  12.295  14.224   0.666
51428SOL    HW256124  12.173  14.143   0.703
51429SOL     OW56125  13.197  11.651   7.647
51429SOL    HW156126  13.151  11.724   7.688
51429SOL    HW256127  13.290  11.671   7.658
51430SOL     OW56128   2.295  10.480   4.923
51430SOL    HW156129   2.238  10.551   4.893
51430SOL    HW256130   2.264  10.460   5.011
51431SOL     OW56131  10.262  12.637   1.332
51431SOL    HW156132  10.308  12.696   1.392
51431SOL    HW256133  10.199  12.591   1.387
51432SOL     OW56134  13.457   5.793   1.737
51432SOL    HW156135  13.405   5.802   1.817
51432SOL    HW256136  13.392   5.775   1.668
51433SOL     OW56137   4.072  11.843   2.298
51433SOL    HW156138   4.059  11.904   2.371
51433SOL    HW256139   4.094  11.760   2.340
51434SOL     OW56140   7.111   2.024  14.734
51434SOL    HW156141   7.084   1.956  14.672
51434SOL    HW256142   7.206   2.025  14.730
51435SOL     OW56143  11.783   0.413   0.806
51435SOL    HW156144  11.724   0.486   0.785
51435SOL    HW256145  11.739   0.366   0.876
51436SOL     OW56146   3.806   6.228  11.291
51436SOL    HW156147   3.815   6.165  11.363
51436SOL    HW256148   3.892   6.270  11.286
51437SOL     OW56149   4.326   3.778  10.535
51437SOL    HW156150   4.295   3.751  10.622
51437SOL    HW256151   4.292   3.711  10.476
51438SOL     OW56152   1.901   0.830  14.343
51438SOL    HW156153   1.816   0.788  14.353
51438SOL    HW256154   1.895   0.879  14.261
51439SOL     OW56155   8.433  10.897   4.004
51439SOL    HW156156   8.423  10.919   3.911
51439SOL    HW256157   8.474  10.975   4.043
51440SOL     OW56158   6.834   8.121   9.628
51440SOL    HW156159   6.927   8.143   9.627
51440SOL    HW256160   6.795   8.179   9.563
51441SOL     OW56161  12.282  13.215  13.215
51441SOL    HW156162  12.376  13.204  13.228
51441SOL    HW256163  12.251  13.257  13.295
51442SOL     OW56164  12.095  11.021   6.151
51442SOL    HW156165  12.060  11.095   6.102
51442SOL    HW256166  12.034  10.949   6.134
51443SOL     OW56167   5.988   9.956   1.524
51443SOL    HW156168   6.031   9.992   1.601
51443SOL    HW256169   5.999  10.023   1.456
51444SOL     OW56170   9.659   2.863   2.441
51444SOL    HW156171   9.629   2.915   2.516
51444SOL    HW256172   9.588   2.870   2.378
51445SOL     OW56173  11.316  12.109  13.203
51445SOL    HW156174  11.281  12.082  13.288
51445SOL    HW256175  11.389  12.049  13.188
51446SOL     OW56176   6.083   3.951   3.194
51446SOL    HW156177   6.078   4.012   3.120
51446SOL    HW256178   6.136   3.997   3.258
51447SOL     OW56179  10.975   6.881   0.334
51447SOL    HW156180  10.984   6.796   0.378
51447SOL    HW256181  10.957   6.943   0.405
51448SOL     OW56182   5.894  12.123   4.274
51448SOL    HW156183   5.851  12.038   4.265
51448SOL    HW256184   5.828  12.186   4.246
51449SOL     OW56185   2.922  14.647   2.104
51449SOL    HW156186   2.874  14.700   2.041
51449SOL    HW256187   2.936  14.704   2.179
51450SOL     OW56188   6.100  10.491   3.422
51450SOL    HW156189   6.126  10.572   3.378
51450SOL    HW256190   6.006  10.500   3.438
51451SOL     OW56191   5.840   7.890  10.293
51451SOL    HW156192   5.926   7.879  10.253
51451SOL    HW256193   5.853   7.957  10.360
51452SOL     OW56194  14.358   9.205   5.660
51452SOL    HW156195  14.386   9.179   5.572
51452SOL    HW256196  14.262   9.197   5.658
51453SOL     OW56197  10.611  12.980   3.802
51453SOL    HW156198  10.549  12.929   3.855
51453SOL    HW256199  10.563  13.059   3.778
51454SOL     OW56200   5.061   9.694   3.634
51454SOL    HW156201   5.022   9.771   3.592
51454SOL    HW256202   5.155   9.711   3.634
51455SOL     OW56203  10.742   6.045  14.770
51455SOL    HW156204  10.695   6.126  14.749
51455SOL    HW256205  10.770   6.012  14.685
51456SOL     OW56206   3.085  14.390   2.467
51456SOL    HW156207   3.139  14.455   2.423
51456SOL    HW256208   3.084  14.315   2.407
51457SOL     OW56209   4.113   5.160   3.470
51457SOL    HW156210   4.018   5.151   3.475
51457SOL    HW256211   4.144   5.141   3.559
51458SOL     OW56212   9.002   3.178   4.657
51458SOL    HW156213   9.084   3.135   4.632
51458SOL    HW256214   9.007   3.264   4.615
51459SOL     OW56215   1.251  11.878  11.971
51459SOL    HW156216   1.196  11.894  12.047
51459SOL    HW256217   1.235  11.787  11.948
51460SOL     OW56218   9.893  12.528   1.650
51460SOL    HW156219   9.820  12.520   1.711
51460SOL    HW256220   9.852  12.546   1.565
51461SOL     OW56221  13.098  13.240  13.373
51461SOL    HW156222  13.099  13.334  13.357
51461SOL    HW256223  13.005  13.219  13.386
51462SOL     OW56224  11.047   2.977  11.856
51462SOL    HW156225  10.997   3.026  11.921
51462SOL    HW256226  11.076   2.898  11.903
51463SOL     OW56227  10.898  10.315   3.613
51463SOL    HW156228  10.872  10.331   3.704
51463SOL    HW256229  10.924  10.223   3.612
51464SOL     OW56230   9.329   4.766   2.774
51464SOL    HW156231   9.375   4.799   2.852
51464SOL    HW256232   9.239   4.797   2.785
51465SOL     OW56233  12.141   1.644  14.090
51465SOL    HW156234  12.204   1.579  14.121
51465SOL    HW256235  12.070   1.641  14.153
51466SOL     OW56236  11.381  13.087   5.666
51466SOL    HW156237  11.293  13.089   5.705
51466SOL    HW256238  11.366  13.099   5.572
51467SOL     OW56239  13.741   4.404   5.053
51467SOL    HW156240  13.654   4.415   5.017
51467SOL    HW256241  13.792   4.475   5.016
51468SOL     OW56242  13.281   1.260  12.326
51468SOL    HW156243  13.217   1.280  12.258
51468SOL    HW256244  13.238   1.288  12.407
51469SOL     OW56245   4.746   2.483  12.164
51469SOL    HW156246   4.799   2.409  12.133
51469SOL    HW256247   4.796   2.518  12.238
51470SOL     OW56248   4.323  12.118   4.779
51470SOL    HW156249   4.418  12.101   4.780
51470SOL    HW256250   4.301  12.134   4.871
51471SOL     OW56251   6.205   5.592   8.267
51471SOL    HW156252   6.152   5.606   8.345
51471SOL    HW256253   6.157   5.526   8.217
51472SOL     OW56254   4.833  12.069   8.246
51472SOL    HW156255   4.925  12.067   8.222
51472SOL    HW256256   4.817  11.984   8.288
51473SOL     OW56257   7.270   4.674   9.361
51473SOL    HW156258   7.291   4.762   9.332
51473SOL    HW256259   7.303   4.669   9.451
51474SOL     OW56260   5.101   3.849   6.018
51474SOL    HW156261   5.106   3.873   5.925
51474SOL    HW256262   5.188   3.813   6.038
51475SOL     OW56263  12.830  13.744  12.373
51475SOL    HW156264  12.734  13.746  12.374
51475SOL    HW256265  12.856  13.821  12.424
51476SOL     OW56266   3.312  11.850   2.024
51476SOL    HW156267   3.387  11.849   2.083
51476SOL    HW256268   3.313  11.937   1.985
51477SOL     OW56269   7.454   9.591  14.237
51477SOL    HW156270   7.406   9.542  14.304
51477SOL    HW256271   7.404   9.672  14.226
51478SOL     OW56272   8.410   6.843   7.614
51478SOL    HW156273   8.450   6.812   7.532
51478SOL    HW256274   8.448   6.929   7.629
51479SOL     OW56275   7.916   8.132   5.526
51479SOL    HW156276   7.973   8.133   5.449
51479SOL    HW256277   7.975   8.145   5.599
51480SOL     OW56278  12.778   1.964   0.904
51480SOL    HW156279  12.696   1.920   0.882
51480SOL    HW256280  12.829   1.897   0.949
51481SOL     OW56281  14.871   3.099  12.405
51481SOL    HW156282  14.795   3.153  12.429
51481SOL    HW256283  14.870   3.028  12.469
51482SOL     OW56284   9.368  13.067   5.519
51482SOL    HW156285   9.318  13.118   5.455
51482SOL    HW256286   9.414  13.133   5.572
51483SOL     OW56287  11.220   6.205  12.728
51483SOL    HW156288  11.176   6.126  12.762
51483SOL    HW256289  11.212   6.198  12.633
51484SOL     OW56290   6.184   8.901   0.185
51484SOL    HW156291   6.185   8.820   0.237
51484SOL    HW256292   6.211   8.874   0.098
51485SOL     OW56293  12.907   3.398   4.467
51485SOL    HW156294  12.968   3.328   4.491
51485SOL    HW256295  12.915   3.462   4.538
51486SOL     OW56296   8.053  12.104   1.541
51486SOL    HW156297   7.964  12.079   1.566
51486SOL    HW256298   8.107  12.082   1.617
51487SOL     OW56299   7.202   9.469   2.675
51487SOL    HW156300   7.189   9.551   2.629
51487SOL    HW256301   7.211   9.495   2.767
51488SOL     OW56302   1.435   0.078   4.837
51488SOL    HW156303   1.516   0.115   4.873
51488SOL    HW256304   1.433  14.861   4.869
51489SOL     OW56305   3.153  14.694   4.688
51489SOL    HW156306   3.124  14.740   4.610
51489SOL    HW256307   3.138  14.756   4.759
51490SOL     OW56308  13.438   7.001   6.218
51490SOL    HW156309  13.456   7.091   6.191
51490SOL    HW256310  13.493   6.947   6.160
51491SOL     OW56311   1.175  14.844  13.648
51491SOL    HW156312   1.116  14.860  13.574
51491SOL    HW256313   1.119  14.853  13.725
51492SOL     OW56314   1.167   7.580   0.570
51492SOL    HW156315   1.119   7.650   0.525
51492SOL    HW256316   1.216   7.536   0.500
51493SOL     OW56317  11.844   5.631  10.798
51493SOL    HW156318  11.866   5.554  10.747
51493SOL    HW256319  11.893   5.702  10.756
51494SOL     OW56320  12.571   1.286   4.473
51494SOL    HW156321  12.656   1.244   4.464
51494SOL    HW256322  12.508   1.216   4.458
51495SOL     OW56323  10.447  12.437   3.059
51495SOL    HW156324  10.367  12.419   3.108
51495SOL    HW256325  10.437  12.386   2.978
51496SOL     OW56326   3.910   6.896  13.567
51496SOL    HW156327   3.930   6.826  13.630
51496SOL    HW256328   3.852   6.854  13.503
51497SOL     OW56329   3.041  10.332   9.490
51497SOL    HW156330   3.002  10.387   9.421
51497SOL    HW256331   3.097  10.392   9.540
51498SOL     OW56332   5.885  12.747   9.371
51498SOL    HW156333   5.967  12.789   9.343
51498SOL    HW256334   5.819  12.815   9.361
51499SOL     OW56335   2.712   7.881   8.540
51499SOL    HW156336   2.793   7.930   8.523
51499SOL    HW256337   2.736   7.819   8.609
51500SOL     OW56338  10.618  13.389   2.492
51500SOL    HW156339  10.615  13.363   2.400
51500SOL    HW256340  10.647  13.480   2.491
51501SOL     OW56341   8.280  13.091   7.729
51501SOL    HW156342   8.342  13.135   7.787
51501SOL    HW256343   8.214  13.054   7.788
51502SOL     OW56344   5.709  13.802   3.857
51502SOL    HW156345   5.798  13.835   3.872
51502SOL    HW256346   5.690  13.827   3.766
51503SOL     OW56347  11.069  13.565   4.642
51503SOL    HW156348  11.069  13.643   4.698
51503SOL    HW256349  11.134  13.507   4.682
51504SOL     OW56350   5.705   0.764  10.759
51504SOL    HW156351   5.674   0.679  10.789
51504SOL    HW256352   5.792   0.774  10.798
51505SOL     OW56353   1.007  13.014  12.675
51505SOL    HW156354   1.004  13.063  12.758
51505SOL    HW256355   0.939  13.054  12.621
51506SOL     OW56356   0.389  10.966  10.324
51506SOL    HW156357   0.376  10.931  10.412
51506SOL    HW256358   0.361  11.057  10.330
51507SOL     OW56359  11.580   9.043   0.344
51507SOL    HW156360  11.641   9.116   0.340
51507SOL    HW256361  11.615   8.980   0.280
51508SOL     OW56362   2.434   3.049  10.899
51508SOL    HW156363   2.387   2.976  10.861
51508SOL    HW256364   2.516   3.011  10.931
51509SOL     OW56365   0.725   6.427  14.269
51509SOL    HW156366   0.783   6.405  14.342
51509SOL    HW256367   0.664   6.491  14.306
51510SOL     OW56368   9.092   5.816   5.841
51510SOL    HW156369   9.180   5.794   5.809
51510SOL    HW256370   9.041   5.736   5.829
51511SOL     OW56371   7.798  10.141  10.015
51511SOL    HW156372   7.739  10.211   9.984
51511SOL    HW256373   7.876  10.187  10.045
51512SOL     OW56374  13.010   1.332   0.951
51512SOL    HW156375  12.960   1.331   0.870
51512SOL    HW256376  12.944   1.340   1.020
51513SOL     OW56377   8.743   3.719   0.309
51513SOL    HW156378   8.739   3.759   0.222
51513SOL    HW256379   8.837   3.718   0.330
51514SOL     OW56380  12.670   7.971  13.896
51514SOL    HW156381  12.687   7.941  13.807
51514SOL    HW256382  12.576   7.990  13.898
51515SOL     OW56383   0.228   9.531  12.748
51515SOL    HW156384   0.218   9.459  12.687
51515SOL    HW256385   0.139   9.560  12.768
51516SOL     OW56386  10.633  12.080   9.892
51516SOL    HW156387  10.596  11.997   9.864
51516SOL    HW256388  10.722  12.080   9.857
51517SOL     OW56389   6.473   4.499   2.376
51517SOL    HW156390   6.388   4.457   2.372
51517SOL    HW256391   6.474   4.544   2.461
51518SOL     OW56392   0.607   4.951  14.377
51518SOL    HW156393   0.689   4.985  14.342
51518SOL    HW256394   0.630   4.915  14.462
51519SOL     OW56395   0.443   1.480  11.413
51519SOL    HW156396   0.400   1.420  11.351
51519SOL    HW256397   0.382   1.552  11.425
51520SOL     OW56398   1.582  10.879   6.063
51520SOL    HW156399   1.570  10.973   6.069
51520SOL    HW256400   1.556  10.856   5.974
51521SOL     OW56401   3.572   3.967   3.373
51521SOL    HW156402   3.612   3.979   3.460
51521SOL    HW256403   3.642   3.991   3.312
51522SOL     OW56404   5.368   0.857   4.663
51522SOL    HW156405   5.433   0.838   4.595
51522SOL    HW256406   5.359   0.952   4.661
51523SOL     OW56407  14.869   6.768   9.725
51523SOL    HW156408  14.859   6.684   9.680
51523SOL    HW256409  14.790   6.775   9.780
51524SOL     OW56410   4.122  10.353   1.998
51524SOL    HW156411   4.138  10.447   1.986
51524SOL    HW256412   4.153  10.335   2.087
51525SOL     OW56413   6.281  10.732   3.760
51525SOL    HW156414   6.194  10.703   3.788
51525SOL    HW256415   6.338  10.656   3.774
51526SOL     OW56416  11.953  10.211   8.272
51526SOL    HW156417  12.036  10.207   8.319
51526SOL    HW256418  11.940  10.122   8.238
51527SOL     OW56419   1.403   0.019   0.534
51527SOL    HW156420   1.471  14.828   0.512
51527SOL    HW256421   1.446   0.079   0.595
51528SOL     OW56422   7.513   3.125   7.918
51528SOL    HW156423   7.442   3.070   7.884
51528SOL    HW256424   7.498   3.128   8.012
51529SOL     OW56425   0.474   2.505  10.320
51529SOL    HW156426   0.391   2.516  10.366
51529SOL    HW256427   0.534   2.563  10.367
51530SOL     OW56428  14.141   4.225   6.805
51530SOL    HW156429  14.046   4.220   6.813
51530SOL    HW256430  14.162   4.166   6.732
51531SOL     OW56431   7.190   2.670   4.605
51531SOL    HW156432   7.168   2.602   4.668
51531SOL    HW256433   7.127   2.659   4.534
51532SOL     OW56434   0.208   6.198  14.342
51532SOL    HW156435   0.260   6.144  14.283
51532SOL    HW256436   0.204   6.283  14.299
51533SOL     OW56437   0.864  10.778  12.770
51533SOL    HW156438   0.777  10.817  12.754
51533SOL    HW256439   0.908  10.784  12.685
51534SOL     OW56440   9.952  14.645  12.644
51534SOL    HW156441   9.897  14.637  12.722
51534SOL    HW256442   9.899  14.604  12.574
51535SOL     OW56443   1.576   9.257  12.847
51535SOL    HW156444   1.636   9.301  12.908
51535SOL    HW256445   1.522   9.202  12.903
51536SOL     OW56446   5.866   5.021  11.055
51536SOL    HW156447   5.927   5.090  11.027
51536SOL    HW256448   5.881   5.013  11.149
51537SOL     OW56449  12.059   8.701   2.440
51537SOL    HW156450  11.965   8.704   2.457
51537SOL    HW256451  12.069   8.735   2.351
51538SOL     OW56452  11.099   8.304  11.902
51538SOL    HW156453  11.038   8.364  11.858
51538SOL    HW256454  11.087   8.221  11.857
51539SOL     OW56455  12.357  11.211   0.514
51539SOL    HW156456  12.264  11.231   0.524
51539SOL    HW256457  12.390  11.280   0.456
51540SOL     OW56458   6.343   1.891   3.766
51540SOL    HW156459   6.324   1.969   3.819
51540SOL    HW256460   6.433   1.868   3.789
51541SOL     OW56461  11.777  11.119  14.169
51541SOL    HW156462  11.695  11.133  14.216
51541SOL    HW256463  11.823  11.203  14.173
51542SOL     OW56464   3.630   0.336   2.099
51542SOL    HW156465   3.538   0.335   2.125
51542SOL    HW256466   3.630   0.303   2.008
51543SOL     OW56467   7.632  11.285   8.877
51543SOL    HW156468   7.701  11.304   8.813
51543SOL    HW256469   7.647  11.348   8.947
51544SOL     OW56470   8.363  12.792  10.796
51544SOL    HW156471   8.441  12.765  10.845
51544SOL    HW256472   8.290  12.751  10.842
51545SOL     OW56473  13.661   4.010   6.588
51545SOL    HW156474  13.586   3.964   6.626
51545SOL    HW256475  13.665   4.093   6.635
51546SOL     OW56476  13.136   2.481  12.000
51546SOL    HW156477  13.187   2.416  11.953
51546SOL    HW256478  13.183   2.493  12.083
51547SOL     OW56479   4.171   3.019  13.906
51547SOL    HW156480   4.240   3.084  13.895
51547SOL    HW256481   4.090   3.065  13.885
51548SOL     OW56482  14.594   4.017  10.452
51548SOL    HW156483  14.660   4.053  10.393
51548SOL    HW256484  14.643   3.958  10.509
51549SOL     OW56485   6.376   9.720  13.701
51549SOL    HW156486   6.422   9.647  13.657
51549SOL    HW256487   6.436   9.794  13.692
51550SOL     OW56488   2.151   2.102   4.446
51550SOL    HW156489   2.163   2.152   4.527
51550SOL    HW256490   2.218   2.136   4.387
51551SOL     OW56491  10.636   3.422   0.308
51551SOL    HW156492  10.723   3.387   0.289
51551SOL    HW256493  10.585   3.404   0.230
51552SOL     OW56494   2.844  10.455   5.560
51552SOL    HW156495   2.876  10.532   5.607
51552SOL    HW256496   2.857  10.383   5.621
51553SOL     OW56497  10.817   0.950   6.607
51553SOL    HW156498  10.770   0.954   6.691
51553SOL    HW256499  10.803   1.036   6.568
51554SOL     OW56500   5.885   4.320   5.427
51554SOL    HW156501   5.943   4.372   5.482
51554SOL    HW256502   5.806   4.373   5.417
51555SOL     OW56503   2.165   0.137   8.148
51555SOL    HW156504   2.115   0.057   8.164
51555SOL    HW256505   2.238   0.108   8.093
51556SOL     OW56506  10.457  10.713   9.339
51556SOL    HW156507  10.402  10.700   9.417
51556SOL    HW256508  10.395  10.733   9.269
51557SOL     OW56509   4.773   8.456  12.110
51557SOL    HW156510   4.747   8.533  12.058
51557SOL    HW256511   4.731   8.382  12.066
51558SOL     OW56512   2.014   1.346   4.821
51558SOL    HW156513   1.961   1.352   4.742
51558SOL    HW256514   1.951   1.333   4.892
51559SOL     OW56515   1.933  13.250   0.814
51559SOL    HW156516   1.890  13.293   0.888
51559SOL    HW256517   1.884  13.280   0.737
51560SOL     OW56518  10.272  14.374   0.438
51560SOL    HW156519  10.222  14.308   0.485
51560SOL    HW256520  10.289  14.442   0.504
51561SOL     OW56521   0.092  13.406  12.887
51561SOL    HW156522   0.082  13.311  12.886
51561SOL    HW256523   0.007  13.439  12.915
51562SOL     OW56524   3.266  11.183  12.147
51562SOL    HW156525   3.219  11.119  12.201
51562SOL    HW256526   3.243  11.268  12.185
51563SOL     OW56527   0.197   2.551   8.828
51563SOL    HW156528   0.173   2.483   8.891
51563SOL    HW256529   0.168   2.632   8.870
51564SOL     OW56530  11.509  13.457   2.549
51564SOL    HW156531  11.482  13.370   2.579
51564SOL    HW256532  11.459  13.518   2.603
51565SOL     OW56533   5.984  10.042   7.350
51565SOL    HW156534   6.066  10.007   7.386
51565SOL    HW256535   6.011  10.114   7.293
51566SOL     OW56536   9.884  14.341  12.770
51566SOL    HW156537   9.849  14.258  12.738
51566SOL    HW256538   9.814  14.404  12.752
51567SOL     OW56539   4.501   1.456   3.116
51567SOL    HW156540   4.422   1.420   3.076
51567SOL    HW256541   4.477   1.545   3.141
51568SOL     OW56542   7.856  10.279   0.696
51568SOL    HW156543   7.903  10.328   0.763
51568SOL    HW256544   7.767  10.270   0.731
51569SOL     OW56545  10.637   5.318  10.183
51569SOL    HW156546  10.710   5.365  10.222
51569SOL    HW256547  10.561   5.345  10.235
51570SOL     OW56548   5.828   3.492   6.235
51570SOL    HW156549   5.899   3.508   6.297
51570SOL    HW256550   5.860   3.423   6.178
51571SOL     OW56551   1.813   7.303  12.618
51571SOL    HW156552   1.785   7.394  12.607
51571SOL    HW256553   1.907   7.304  12.597
51572SOL     OW56554  11.710   6.061   8.199
51572SOL    HW156555  11.681   6.102   8.280
51572SOL    HW256556  11.666   6.110   8.130
51573SOL     OW56557  11.161   1.576   9.034
51573SOL    HW156558  11.150   1.574   8.939
51573SOL    HW256559  11.254   1.563   9.048
51574SOL     OW56560  12.767   4.480  10.070
51574SOL    HW156561  12.690   4.528  10.102
51574SOL    HW256562  12.783   4.516   9.983
51575SOL     OW56563   7.589   0.130   1.236
51575SOL    HW156564   7.669   0.136   1.288
51575SOL    HW256565   7.583   0.214   1.191
51576SOL     OW56566   6.531   5.584   9.695
51576SOL    HW156567   6.609   5.532   9.677
51576SOL    HW256568   6.485   5.537   9.765
51577SOL     OW56569   2.588  12.380   6.628
51577SOL    HW156570   2.609  12.463   6.584
51577SOL    HW256571   2.658  12.321   6.602
51578SOL     OW56572   7.239   9.061   0.074
51578SOL    HW156573   7.188   9.084  14.869
51578SOL    HW256574   7.179   9.075   0.147
51579SOL     OW56575  13.300   3.912   8.683
51579SOL    HW156576  13.338   3.850   8.621
51579SOL    HW256577  13.376   3.957   8.721
51580SOL     OW56578   8.993  13.363  12.794
51580SOL    HW156579   9.088  13.371  12.796
51580SOL    HW256580   8.978  13.270  12.773
51581SOL     OW56581   4.405   5.241   3.239
51581SOL    HW156582   4.451   5.324   3.231
51581SOL    HW256583   4.315   5.265   3.260
51582SOL     OW56584   5.851   9.789   4.780
51582SOL    HW156585   5.883   9.877   4.764
51582SOL    HW256586   5.874   9.771   4.871
51583SOL     OW56587   3.862   6.346   3.980
51583SOL    HW156588   3.884   6.259   3.946
51583SOL    HW256589   3.943   6.377   4.022
51584SOL     OW56590   7.742  11.744  10.211
51584SOL    HW156591   7.756  11.651  10.196
51584SOL    HW256592   7.829  11.780  10.226
51585SOL     OW56593  11.202  13.361   6.168
51585SOL    HW156594  11.249  13.362   6.251
51585SOL    HW256595  11.236  13.283   6.123
51586SOL     OW56596  12.497   4.035   4.469
51586SOL    HW156597  12.515   4.086   4.547
51586SOL    HW256598  12.402   4.022   4.470
51587SOL     OW56599   3.067  10.021   9.662
51587SOL    HW156600   3.077   9.938   9.708
51587SOL    HW256601   3.083  10.088   9.729
51588SOL     OW56602  12.529  10.657  12.164
51588SOL    HW156603  12.508  10.658  12.257
51588SOL    HW256604  12.605  10.714  12.155
51589SOL     OW56605   1.567  13.928  12.902
51589SOL    HW156606   1.574  13.849  12.954
51589SOL    HW256607   1.651  13.973  12.914
51590SOL     OW56608   1.573  14.136   5.614
51590SOL    HW156609   1.607  14.083   5.542
51590SOL    HW256610   1.478  14.140   5.598
51591SOL     OW56611   2.223   5.789   3.858
51591SOL    HW156612   2.255   5.729   3.791
51591SOL    HW256613   2.148   5.832   3.818
51592SOL     OW56614  11.751   8.622  14.717
51592SOL    HW156615  11.750   8.629  14.812
51592SOL    HW256616  11.782   8.708  14.687
51593SOL     OW56617   6.700   0.390   6.668
51593SOL    HW156618   6.713   0.408   6.575
51593SOL    HW256619   6.613   0.424   6.687
51594SOL     OW56620   9.615   4.377   0.672
51594SOL    HW156621   9.652   4.292   0.694
51594SOL    HW256622   9.647   4.435   0.742
51595SOL     OW56623  14.343   6.495   8.294
51595SOL    HW156624  14.272   6.457   8.344
51595SOL    HW256625  14.418   6.438   8.311
51596SOL     OW56626   0.261   6.337  12.261
51596SOL    HW156627   0.255   6.403  12.330
51596SOL    HW256628   0.336   6.283  12.286
51597SOL     OW56629   9.369  12.519   3.503
51597SOL    HW156630   9.332  12.608   3.505
51597SOL    HW256631   9.292  12.462   3.501
51598SOL     OW56632  14.837  10.061   6.469
51598SOL    HW156633  14.824   9.978   6.422
51598SOL    HW256634   0.057  10.079   6.461
51599SOL     OW56635   5.680   5.289  14.754
51599SOL    HW156636   5.643   5.352  14.817
51599SOL    HW256637   5.769   5.319  14.739
51600SOL     OW56638  10.219   1.468   4.021
51600SOL    HW156639  10.227   1.553   4.063
51600SOL    HW256640  10.143   1.427   4.062
51601SOL     OW56641   4.537  13.996   3.875
51601SOL    HW156642   4.630  13.978   3.860
51601SOL    HW256643   4.495  13.978   3.790
51602SOL     OW56644   6.008  13.847  10.013
51602SOL    HW156645   5.934  13.905   9.996
51602SOL    HW256646   6.084  13.897   9.982
51603SOL     OW56647   9.865  13.300   9.040
51603SOL    HW156648   9.943  13.253   9.011
51603SOL    HW256649   9.838  13.254   9.120
51604SOL     OW56650  12.334   5.326  14.374
51604SOL    HW156651  12.425   5.346  14.398
51604SOL    HW256652  12.333   5.333  14.279
51605SOL     OW56653   5.187  13.963   0.927
51605SOL    HW156654   5.128  14.036   0.948
51605SOL    HW256655   5.264  13.979   0.981
51606SOL     OW56656   2.407   7.858   1.690
51606SOL    HW156657   2.408   7.953   1.675
51606SOL    HW256658   2.494   7.839   1.726
51607SOL     OW56659   4.846  13.965   5.516
51607SOL    HW156660   4.775  14.020   5.483
51607SOL    HW256661   4.822  13.876   5.490
51608SOL     OW56662   9.392   8.944   9.747
51608SOL    HW156663   9.471   8.892   9.760
51608SOL    HW256664   9.336   8.890   9.691
51609SOL     OW56665   1.115  10.656   0.676
51609SOL    HW156666   1.156  10.727   0.725
51609SOL    HW256667   1.102  10.587   0.741
51610SOL     OW56668  12.101   3.705  13.899
51610SOL    HW156669  12.052   3.782  13.928
51610SOL    HW256670  12.035   3.635  13.896
51611SOL     OW56671  12.766  13.660  10.808
51611SOL    HW156672  12.673  13.667  10.787
51611SOL    HW256673  12.807  13.634  10.725
51612SOL     OW56674   8.608   8.670  13.558
51612SOL    HW156675   8.556   8.691  13.636
51612SOL    HW256676   8.551   8.614  13.506
51613SOL     OW56677   5.169   6.595   2.876
51613SOL    HW156678   5.169   6.501   2.860
51613SOL    HW256679   5.173   6.634   2.788
51614SOL     OW56680   7.152   9.662  10.252
51614SOL    HW156681   7.141   9.750  10.216
51614SOL    HW256682   7.075   9.650  10.308
51615SOL     OW56683   8.986   8.741   8.653
51615SOL    HW156684   9.018   8.721   8.741
51615SOL    HW256685   9.064   8.736   8.598
51616SOL     OW56686   7.641  14.082   2.457
51616SOL    HW156687   7.551  14.093   2.489
51616SOL    HW256688   7.688  14.159   2.489
51617SOL     OW56689   2.570  13.255   3.223
51617SOL    HW156690   2.500  13.284   3.282
51617SOL    HW256691   2.543  13.286   3.136
51618SOL     OW56692   0.935   1.187   1.841
51618SOL    HW156693   0.971   1.136   1.914
51618SOL    HW256694   0.986   1.160   1.765
51619SOL     OW56695  13.980   3.762   2.215
51619SOL    HW156696  14.072   3.733   2.213
51619SOL    HW256697  13.981   3.846   2.169
51620SOL     OW56698  12.487   9.297   9.439
51620SOL    HW156699  12.430   9.370   9.414
51620SOL    HW256700  12.458   9.273   9.527
51621SOL     OW56701   9.421   6.774   2.647
51621SOL    HW156702   9.325   6.772   2.641
51621SOL    HW256703   9.441   6.857   2.691
51622SOL     OW56704   2.601  12.519  14.621
51622SOL    HW156705   2.599  12.609  14.656
51622SOL    HW256706   2.653  12.526  14.541
51623SOL     OW56707   7.022   8.092  12.948
51623SOL    HW156708   6.976   8.039  13.013
51623SOL    HW256709   7.033   8.178  12.989
51624SOL     OW56710   3.083   1.522   9.915
51624SOL    HW156711   3.002   1.510   9.865
51624SOL    HW256712   3.152   1.487   9.858
51625SOL     OW56713   7.148   8.284   5.686
51625SOL    HW156714   7.197   8.362   5.709
51625SOL    HW256715   7.157   8.277   5.591
51626SOL     OW56716   0.187  11.474   4.739
51626SOL    HW156717   0.256  11.491   4.676
51626SOL    HW256718   0.119  11.428   4.689
51627SOL     OW56719   3.148   4.692   7.840
51627SOL    HW156720   3.163   4.775   7.884
51627SOL    HW256721   3.137   4.716   7.748
51628SOL     OW56722  14.497   6.466   1.954
51628SOL    HW156723  14.583   6.495   1.986
51628SOL    HW256724  14.464   6.410   2.024
51629SOL     OW56725  11.057   3.302  12.387
51629SOL    HW156726  11.105   3.347  12.317
51629SOL    HW256727  11.078   3.351  12.466
51630SOL     OW56728  13.669   7.265   4.663
51630SOL    HW156729  13.622   7.326   4.720
51630SOL    HW256730  13.759   7.265   4.696
51631SOL     OW56731   2.110  12.474   3.840
51631SOL    HW156732   2.096  12.568   3.851
51631SOL    HW256733   2.133  12.464   3.748
51632SOL     OW56734   7.056   6.439   4.043
51632SOL    HW156735   7.092   6.406   4.125
51632SOL    HW256736   7.080   6.373   3.978
51633SOL     OW56737   0.370   6.805   1.127
51633SOL    HW156738   0.302   6.739   1.137
51633SOL    HW256739   0.438   6.763   1.074
51634SOL     OW56740   3.283   7.965   8.345
51634SOL    HW156741   3.332   7.968   8.427
51634SOL    HW256742   3.224   8.041   8.349
51635SOL     OW56743  12.725   2.671   7.458
51635SOL    HW156744  12.762   2.586   7.435
51635SOL    HW256745  12.775   2.734   7.406
51636SOL     OW56746  13.972   9.526  13.422
51636SOL    HW156747  14.043   9.464  13.440
51636SOL    HW256748  13.985   9.596  13.486
51637SOL     OW56749   1.802   4.730   3.114
51637SOL    HW156750   1.754   4.766   3.040
51637SOL    HW256751   1.861   4.801   3.141
51638SOL     OW56752   5.839   0.932  13.013
51638SOL    HW156753   5.798   0.846  13.013
51638SOL    HW256754   5.780   0.987  13.065
51639SOL     OW56755  12.800   4.564   8.307
51639SOL    HW156756  12.779   4.489   8.251
51639SOL    HW256757  12.758   4.638   8.264
51640SOL     OW56758   4.413   5.777  12.359
51640SOL    HW156759   4.374   5.851  12.312
51640SOL    HW256760   4.405   5.704  12.298
51641SOL     OW56761   0.754   0.865   7.077
51641SOL    HW156762   0.763   0.950   7.120
51641SOL    HW256763   0.818   0.809   7.121
51642SOL     OW56764  10.526  11.981  10.991
51642SOL    HW156765  10.464  12.052  11.008
51642SOL    HW256766  10.606  12.007  11.038
51643SOL     OW56767   6.582   4.261   6.074
51643SOL    HW156768   6.499   4.240   6.118
51643SOL    HW256769   6.573   4.222   5.987
51644SOL     OW56770   3.929   5.390  14.623
51644SOL    HW156771   3.926   5.323  14.692
51644SOL    HW256772   3.888   5.348  14.547
51645SOL     OW56773  12.887   3.038   6.728
51645SOL    HW156774  12.858   2.947   6.716
51645SOL    HW256775  12.948   3.054   6.656
51646SOL     OW56776   8.239   3.263  12.054
51646SOL    HW156777   8.329   3.235  12.073
51646SOL    HW256778   8.245   3.359  12.048
51647SOL     OW56779  10.320  13.120   7.080
51647SOL    HW156780  10.370  13.199   7.099
51647SOL    HW256781  10.228  13.146   7.093
51648SOL     OW56782   2.405  11.494   9.762
51648SOL    HW156783   2.330  11.435   9.759
51648SOL    HW256784   2.380  11.562   9.824
51649SOL     OW56785  13.602  10.006  10.477
51649SOL    HW156786  13.558   9.979  10.558
51649SOL    HW256787  13.547   9.970  10.408
51650SOL     OW56788   3.650   3.213   4.543
51650SOL    HW156789   3.643   3.307   4.528
51650SOL    HW256790   3.580   3.193   4.606
51651SOL     OW56791   6.594   2.477   8.095
51651SOL    HW156792   6.666   2.414   8.085
51651SOL    HW256793   6.525   2.443   8.037
51652SOL     OW56794  13.514   3.914   5.886
51652SOL    HW156795  13.572   3.873   5.822
51652SOL    HW256796  13.573   3.963   5.944
51653SOL     OW56797  11.796  12.087   5.294
51653SOL    HW156798  11.856  12.133   5.235
51653SOL    HW256799  11.709  12.105   5.258
51654SOL     OW56800   5.663  12.646   9.160
51654SOL    HW156801   5.743  12.594   9.168
51654SOL    HW256802   5.683  12.728   9.206
51655SOL     OW56803   4.785   4.012  11.278
51655SOL    HW156804   4.872   4.048  11.297
51655SOL    HW256805   4.801   3.921  11.256
51656SOL     OW56806   5.077  14.488  11.380
51656SOL    HW156807   5.049  14.403  11.345
51656SOL    HW256808   5.009  14.549  11.351
51657SOL     OW56809   6.401  13.245   1.319
51657SOL    HW156810   6.408  13.305   1.244
51657SOL    HW256811   6.443  13.165   1.290
51658SOL     OW56812   7.550   1.236  12.357
51658SOL    HW156813   7.535   1.146  12.385
51658SOL    HW256814   7.603   1.274  12.427
51659SOL     OW56815   4.922  10.770  10.318
51659SOL    HW156816   4.952  10.685  10.351
51659SOL    HW256817   4.901  10.754  10.226
51660SOL     OW56818  10.262   6.494   5.671
51660SOL    HW156819  10.237   6.586   5.664
51660SOL    HW256820  10.353   6.491   5.640
51661SOL     OW56821  10.785   9.906   7.661
51661SOL    HW156822  10.863   9.934   7.709
51661SOL    HW256823  10.717   9.899   7.727
51662SOL     OW56824   1.299   9.356  10.930
51662SOL    HW156825   1.209   9.384  10.915
51662SOL    HW256826   1.332   9.334  10.842
51663SOL     OW56827   3.424   5.940   1.644
51663SOL    HW156828   3.368   6.011   1.611
51663SOL    HW256829   3.451   5.969   1.731
51664SOL     OW56830   5.409  12.737   0.270
51664SOL    HW156831   5.372  12.658   0.309
51664SOL    HW256832   5.432  12.712   0.181
51665SOL     OW56833   6.781  12.554   8.976
51665SOL    HW156834   6.837  12.584   9.047
51665SOL    HW256835   6.825  12.476   8.943
51666SOL     OW56836  13.893   0.754  10.032
51666SOL    HW156837  13.824   0.756  10.099
51666SOL    HW256838  13.899   0.662  10.007
51667SOL     OW56839   7.927   6.969   2.318
51667SOL    HW156840   7.925   6.992   2.225
51667SOL    HW256841   7.973   6.885   2.321
51668SOL     OW56842  11.963   3.437   1.530
51668SOL    HW156843  12.052   3.423   1.498
51668SOL    HW256844  11.938   3.353   1.569
51669SOL     OW56845   4.995   1.633   1.763
51669SOL    HW156846   4.981   1.619   1.856
51669SOL    HW256847   4.935   1.572   1.720
51670SOL     OW56848   4.487   1.273   1.501
51670SOL    HW156849   4.564   1.329   1.496
51670SOL    HW256850   4.455   1.267   1.411
51671SOL     OW56851   7.194  12.588  10.039
51671SOL    HW156852   7.245  12.513  10.007
51671SOL    HW256853   7.221  12.599  10.130
51672SOL     OW56854   8.977  12.411   7.609
51672SOL    HW156855   9.022  12.484   7.566
51672SOL    HW256856   8.984  12.431   7.703
51673SOL     OW56857  10.550   9.083   5.327
51673SOL    HW156858  10.584   9.104   5.414
51673SOL    HW256859  10.587   9.149   5.270
51674SOL     OW56860   8.711  13.041   4.804
51674SOL    HW156861   8.617  13.035   4.784
51674SOL    HW256862   8.717  13.107   4.873
51675SOL     OW56863   4.673  13.873  14.852
51675SOL    HW156864   4.725  13.913  14.782
51675SOL    HW256865   4.586  13.863  14.814
51676SOL     OW56866   2.402   2.105   5.159
51676SOL    HW156867   2.456   2.126   5.235
51676SOL    HW256868   2.408   2.010   5.150
51677SOL     OW56869   4.088  13.127   8.608
51677SOL    HW156870   4.028  13.060   8.576
51677SOL    HW256871   4.142  13.149   8.533
51678SOL     OW56872   0.936   7.204   9.403
51678SOL    HW156873   0.941   7.171   9.314
51678SOL    HW256874   0.874   7.146   9.447
51679SOL     OW56875   6.305  11.458   6.987
51679SOL    HW156876   6.323  11.458   6.893
51679SOL    HW256877   6.375  11.406   7.025
51680SOL     OW56878   1.865  10.011   5.844
51680SOL    HW156879   1.916  10.090   5.859
51680SOL    HW256880   1.917   9.961   5.782
51681SOL     OW56881   8.524   8.984  11.182
51681SOL    HW156882   8.603   8.931  11.171
51681SOL    HW256883   8.473   8.967  11.103
51682SOL     OW56884  11.804   9.480   2.891
51682SOL    HW156885  11.862   9.418   2.936
51682SOL    HW256886  11.717   9.461   2.927
51683SOL     OW56887  11.233  12.433  10.021
51683SOL    HW156888  11.201  12.506   9.967
51683SOL    HW256889  11.220  12.356   9.966
51684SOL     OW56890   4.708   1.572   3.496
51684SOL    HW156891   4.785   1.618   3.528
51684SOL    HW256892   4.734   1.537   3.411
51685SOL     OW56893   1.581   7.275  13.905
51685SOL    HW156894   1.539   7.323  13.834
51685SOL    HW256895   1.563   7.328  13.983
51686SOL     OW56896  12.503   6.766   8.652
51686SOL    HW156897  12.446   6.718   8.712
51686SOL    HW256898  12.444   6.804   8.587
51687SOL     OW56899   8.319  14.394   7.656
51687SOL    HW156900   8.304  14.466   7.716
51687SOL    HW256901   8.393  14.346   7.693
51688SOL     OW56902  11.489   5.496  11.140
51688SOL    HW156903  11.540   5.495  11.059
51688SOL    HW256904  11.545   5.452  11.204
51689SOL     OW56905   5.001   3.154   4.307
51689SOL    HW156906   4.982   3.243   4.279
51689SOL    HW256907   4.919   3.107   4.295
51690SOL     OW56908   2.260  13.123  13.556
51690SOL    HW156909   2.351  13.127  13.527
51690SOL    HW256910   2.209  13.113  13.475
51691SOL     OW56911   7.824   3.378  12.119
51691SOL    HW156912   7.802   3.374  12.026
51691SOL    HW256913   7.904   3.430  12.123
51692SOL     OW56914   3.220   2.043  10.311
51692SOL    HW156915   3.285   1.979  10.338
51692SOL    HW256916   3.245   2.124  10.356
51693SOL     OW56917   5.337   1.099   3.332
51693SOL    HW156918   5.326   1.044   3.409
51693SOL    HW256919   5.428   1.130   3.337
51694SOL     OW56920  14.076  11.916   7.223
51694SOL    HW156921  14.081  11.962   7.139
51694SOL    HW256922  14.148  11.854   7.221
51695SOL     OW56923   2.124   2.415   5.715
51695SOL    HW156924   2.149   2.352   5.648
51695SOL    HW256925   2.145   2.372   5.798
51696SOL     OW56926   4.452   0.961   9.167
51696SOL    HW156927   4.388   0.955   9.097
51696SOL    HW256928   4.402   0.942   9.247
51697SOL     OW56929   3.517   1.984  14.039
51697SOL    HW156930   3.560   1.943  13.964
51697SOL    HW256931   3.559   1.944  14.115
51698SOL     OW56932   5.212   4.225  10.040
51698SOL    HW156933   5.184   4.317  10.046
51698SOL    HW256934   5.202   4.191  10.129
51699SOL     OW56935  11.212   2.192  12.517
51699SOL    HW156936  11.276   2.122  12.505
51699SOL    HW256937  11.201   2.199  12.611
51700SOL     OW56938   8.708  14.634  12.028
51700SOL    HW156939   8.796  14.657  12.058
51700SOL    HW256940   8.720  14.602  11.939
51701SOL     OW56941   2.451   4.648  11.112
51701SOL    HW156942   2.495   4.664  11.195
51701SOL    HW256943   2.438   4.735  11.074
51702SOL     OW56944  13.766   8.854  12.600
51702SOL    HW156945  13.700   8.818  12.541
51702SOL    HW256946  13.736   8.830  12.688
51703SOL     OW56947  13.610  13.000  12.313
51703SOL    HW156948  13.553  12.945  12.259
51703SOL    HW256949  13.698  12.975  12.286
51704SOL     OW56950   3.885  14.046   9.147
51704SOL    HW156951   3.866  13.979   9.081
51704SOL    HW256952   3.980  14.047   9.155
51705SOL     OW56953  13.642  11.678   2.638
51705SOL    HW156954  13.620  11.771   2.631
51705SOL    HW256955  13.569  11.633   2.595
51706SOL     OW56956  10.335   5.107   8.334
51706SOL    HW156957  10.325   5.067   8.421
51706SOL    HW256958  10.251   5.093   8.292
51707SOL     OW56959  10.650  13.005   3.364
51707SOL    HW156960  10.644  13.027   3.271
51707SOL    HW256961  10.739  12.973   3.376
51708SOL     OW56962   5.227   4.416   6.709
51708SOL    HW156963   5.190   4.336   6.746
51708SOL    HW256964   5.322   4.404   6.717
51709SOL     OW56965   4.999  14.117   9.698
51709SOL    HW156966   4.932  14.124   9.630
51709SOL    HW256967   5.036  14.205   9.704
51710SOL     OW56968   6.030  13.958   4.926
51710SOL    HW156969   6.096  14.013   4.968
51710SOL    HW256970   6.077  13.878   4.902
51711SOL     OW56971  12.534   9.141   1.409
51711SOL    HW156972  12.507   9.199   1.337
51711SOL    HW256973  12.459   9.083   1.422
51712SOL     OW56974   7.081   9.381  13.943
51712SOL    HW156975   7.051   9.453  13.889
51712SOL    HW256976   7.020   9.309  13.924
51713SOL     OW56977  12.108   7.073   8.223
51713SOL    HW156978  12.156   7.093   8.303
51713SOL    HW256979  12.070   7.157   8.197
51714SOL     OW56980   7.934   8.736  11.741
51714SOL    HW156981   7.910   8.646  11.763
51714SOL    HW256982   7.866   8.764  11.680
51715SOL     OW56983  12.188   7.819   1.621
51715SOL    HW156984  12.215   7.875   1.694
51715SOL    HW256985  12.270   7.780   1.589
51716SOL     OW56986   2.093   1.145   2.314
51716SOL    HW156987   2.055   1.220   2.359
51716SOL    HW256988   2.108   1.081   2.384
51717SOL     OW56989   1.952  14.101   6.955
51717SOL    HW156990   1.889  14.128   6.889
51717SOL    HW256991   1.940  14.006   6.963
51718SOL     OW56992  10.464   7.837  14.747
51718SOL    HW156993  10.491   7.800  14.663
51718SOL    HW256994  10.458   7.761  14.806
51719SOL     OW56995  11.575   2.834   7.477
51719SOL    HW156996  11.509   2.903   7.483
51719SOL    HW256997  11.542   2.775   7.410
51720SOL     OW56998   1.294   7.947  11.608
51720SOL    HW156999   1.341   7.951  11.692
51720SOL    HW257000   1.265   8.037  11.593
51721SOL     OW57001   8.280   5.717   0.377
51721SOL    HW157002   8.279   5.638   0.323
51721SOL    HW257003   8.247   5.688   0.462
51722SOL     OW57004  12.222  11.547   7.102
51722SOL    HW157005  12.311  11.529   7.069
51722SOL    HW257006  12.165  11.495   7.045
51723SOL     OW57007  10.632  11.976   8.487
51723SOL    HW157008  10.584  12.059   8.498
51723SOL    HW257009  10.719  11.995   8.521
51724SOL     OW57010   2.196   4.442   5.846
51724SOL    HW157011   2.153   4.523   5.818
51724SOL    HW257012   2.207   4.392   5.765
51725SOL     OW57013   7.960   9.200  10.760
51725SOL    HW157014   8.027   9.178  10.694
51725SOL    HW257015   7.886   9.232  10.708
51726SOL     OW57016   6.443   2.718  10.706
51726SOL    HW157017   6.399   2.704  10.622
51726SOL    HW257018   6.413   2.803  10.736
51727SOL     OW57019  11.356   6.026   9.544
51727SOL    HW157020  11.292   6.060   9.482
51727SOL    HW257021  11.309   6.019   9.627
51728SOL     OW57022   8.380   1.852  11.569
51728SOL    HW157023   8.292   1.815  11.576
51728SOL    HW257024   8.433   1.782  11.531
51729SOL     OW57025   8.365   8.878   2.344
51729SOL    HW157026   8.303   8.806   2.335
51729SOL    HW257027   8.416   8.877   2.263
51730SOL     OW57028  14.220   2.472   6.503
51730SOL    HW157029  14.153   2.493   6.438
51730SOL    HW257030  14.269   2.400   6.464
51731SOL     OW57031   2.203  12.375   5.836
51731SOL    HW157032   2.123  12.341   5.796
51731SOL    HW257033   2.274  12.342   5.780
51732SOL     OW57034  13.757  11.482   2.156
51732SOL    HW157035  13.775  11.574   2.138
51732SOL    HW257036  13.711  11.481   2.240
51733SOL     OW57037  13.657   1.900   5.042
51733SOL    HW157038  13.739   1.853   5.059
51733SOL    HW257039  13.683   1.993   5.039
51734SOL     OW57040  11.807   3.611   1.643
51734SOL    HW157041  11.868   3.549   1.604
51734SOL    HW257042  11.759   3.561   1.708
51735SOL     OW57043   6.828   9.410   4.054
51735SOL    HW157044   6.921   9.429   4.063
51735SOL    HW257045   6.801   9.461   3.977
51736SOL     OW57046   8.079   3.113  12.899
51736SOL    HW157047   8.057   3.043  12.838
51736SOL    HW257048   8.144   3.166  12.852
51737SOL     OW57049   5.499   0.949  13.158
51737SOL    HW157050   5.484   0.884  13.227
51737SOL    HW257051   5.573   1.000  13.189
51738SOL     OW57052  14.124  14.447  14.703
51738SOL    HW157053  14.100  14.366  14.748
51738SOL    HW257054  14.070  14.447  14.624
51739SOL     OW57055   1.041   3.385  11.645
51739SOL    HW157056   0.992   3.348  11.571
51739SOL    HW257057   1.003   3.472  11.659
51740SOL     OW57058   7.228  10.888   3.756
51740SOL    HW157059   7.312  10.875   3.712
51740SOL    HW257060   7.251  10.899   3.848
51741SOL     OW57061   6.110   5.804   9.037
51741SOL    HW157062   6.057   5.871   9.081
51741SOL    HW257063   6.184   5.790   9.096
51742SOL     OW57064   1.708  10.234  10.046
51742SOL    HW157065   1.632  10.192  10.004
51742SOL    HW257066   1.671  10.310  10.091
51743SOL     OW57067   1.702  10.614  11.463
51743SOL    HW157068   1.620  10.610  11.513
51743SOL    HW257069   1.676  10.595  11.373
51744SOL     OW57070   9.995   3.606   0.181
51744SOL    HW157071   9.928   3.587   0.246
51744SOL    HW257072   9.949   3.605   0.097
51745SOL     OW57073  14.381   5.292  10.511
51745SOL    HW157074  14.399   5.370  10.458
51745SOL    HW257075  14.463   5.243  10.509
51746SOL     OW57076   5.928  13.334  12.033
51746SOL    HW157077   5.914  13.293  11.947
51746SOL    HW257078   5.960  13.263  12.089
51747SOL     OW57079   3.673   5.295   5.763
51747SOL    HW157080   3.742   5.359   5.779
51747SOL    HW257081   3.674   5.238   5.840
51748SOL     OW57082  11.437   7.371   1.204
51748SOL    HW157083  11.503   7.329   1.149
51748SOL    HW257084  11.444   7.464   1.183
51749SOL     OW57085  11.175   7.669   2.937
51749SOL    HW157086  11.102   7.663   2.875
51749SOL    HW257087  11.193   7.578   2.962
51750SOL     OW57088   3.924   0.474   4.439
51750SOL    HW157089   3.876   0.537   4.385
51750SOL    HW257090   3.945   0.402   4.380
51751SOL     OW57091   6.832   7.575   3.595
51751SOL    HW157092   6.838   7.486   3.560
51751SOL    HW257093   6.913   7.617   3.566
51752SOL     OW57094   9.038   4.105   8.620
51752SOL    HW157095   9.050   4.164   8.695
51752SOL    HW257096   9.122   4.107   8.574
51753SOL     OW57097   3.013  14.526   3.195
51753SOL    HW157098   3.057  14.492   3.117
51753SOL    HW257099   2.933  14.567   3.161
51754SOL     OW57100  10.840   5.142   6.359
51754SOL    HW157101  10.901   5.175   6.426
51754SOL    HW257102  10.771   5.098   6.409
51755SOL     OW57103  11.345   4.570   8.183
51755SOL    HW157104  11.309   4.658   8.195
51755SOL    HW257105  11.269   4.512   8.194
51756SOL     OW57106   0.718  14.636  14.331
51756SOL    HW157107   0.645  14.607  14.275
51756SOL    HW257108   0.796  14.600  14.288
51757SOL     OW57109  12.727  12.213   2.314
51757SOL    HW157110  12.810  12.188   2.354
51757SOL    HW257111  12.742  12.302   2.282
51758SOL     OW57112   0.178   4.554  14.476
51758SOL    HW157113   0.267   4.578  14.452
51758SOL    HW257114   0.162   4.603  14.557
51759SOL     OW57115   0.081   6.804   5.042
51759SOL    HW157116   0.157   6.800   5.100
51759SOL    HW257117   0.057   6.712   5.028
51760SOL     OW57118   1.163   3.070   4.510
51760SOL    HW157119   1.206   2.995   4.469
51760SOL    HW257120   1.231   3.111   4.563
51761SOL     OW57121   7.838  12.287   7.839
51761SOL    HW157122   7.782  12.339   7.781
51761SOL    HW257123   7.804  12.198   7.832
51762SOL     OW57124   8.963   5.351   3.173
51762SOL    HW157125   8.957   5.417   3.103
51762SOL    HW257126   8.881   5.303   3.167
51763SOL     OW57127  11.004   4.821  13.928
51763SOL    HW157128  10.967   4.853  13.846
51763SOL    HW257129  11.077   4.880  13.946
51764SOL     OW57130   9.401   0.420   2.531
51764SOL    HW157131   9.356   0.481   2.473
51764SOL    HW257132   9.350   0.339   2.523
51765SOL     OW57133  11.032   5.017   5.165
51765SOL    HW157134  10.951   4.966   5.177
51765SOL    HW257135  11.013   5.101   5.206
51766SOL     OW57136   4.298  10.321  11.434
51766SOL    HW157137   4.271  10.229  11.434
51766SOL    HW257138   4.320  10.340  11.526
51767SOL     OW57139  12.693   2.603  13.336
51767SOL    HW157140  12.619   2.610  13.396
51767SOL    HW257141  12.653   2.605  13.248
51768SOL     OW57142   1.969   9.149   7.578
51768SOL    HW157143   1.909   9.214   7.541
51768SOL    HW257144   1.913   9.095   7.633
51769SOL     OW57145   9.073  12.330  11.922
51769SOL    HW157146   9.099  12.350  11.832
51769SOL    HW257147   9.040  12.240  11.917
51770SOL     OW57148   8.803   2.042   2.027
51770SOL    HW157149   8.775   2.127   1.994
51770SOL    HW257150   8.744   2.023   2.099
51771SOL     OW57151   3.449  11.765  14.455
51771SOL    HW157152   3.544  11.758  14.468
51771SOL    HW257153   3.433  11.719  14.373
51772SOL     OW57154  14.761   5.113   3.305
51772SOL    HW157155  14.705   5.040   3.278
51772SOL    HW257156  14.706   5.164   3.365
51773SOL     OW57157   3.838  11.352  14.588
51773SOL    HW157158   3.843  11.285  14.519
51773SOL    HW257159   3.748  11.383  14.585
51774SOL     OW57160   3.557   9.872   5.956
51774SOL    HW157161   3.579   9.846   6.045
51774SOL    HW257162   3.639   9.908   5.920
51775SOL     OW57163   5.433   2.802  14.175
51775SOL    HW157164   5.427   2.861  14.099
51775SOL    HW257165   5.520   2.762  14.166
51776SOL     OW57166   3.003  13.668  13.771
51776SOL    HW157167   3.039  13.630  13.851
51776SOL    HW257168   3.059  13.634  13.701
51777SOL     OW57169   8.244   6.645   9.237
51777SOL    HW157170   8.236   6.551   9.253
51777SOL    HW257171   8.316   6.653   9.175
51778SOL     OW57172   8.181  10.365   2.199
51778SOL    HW157173   8.220  10.279   2.187
51778SOL    HW257174   8.210  10.394   2.285
51779SOL     OW57175   4.417   0.161   9.783
51779SOL    HW157176   4.322   0.148   9.779
51779SOL    HW257177   4.452   0.073   9.796
51780SOL     OW57178   6.537   7.883   2.649
51780SOL    HW157179   6.578   7.823   2.586
51780SOL    HW257180   6.611   7.925   2.693
51781SOL     OW57181  10.686   4.739   4.239
51781SOL    HW157182  10.596   4.732   4.206
51781SOL    HW257183  10.676   4.734   4.335
51782SOL     OW57184   8.363   8.481   2.902
51782SOL    HW157185   8.427   8.476   2.831
51782SOL    HW257186   8.392   8.555   2.955
51783SOL     OW57187   9.573  14.555  12.027
51783SOL    HW157188   9.624  14.535  12.105
51783SOL    HW257189   9.515  14.627  12.053
51784SOL     OW57190  11.817  12.280   7.306
51784SOL    HW157191  11.729  12.294   7.341
51784SOL    HW257192  11.874  12.280   7.382
51785SOL     OW57193   4.895   2.659   1.398
51785SOL    HW157194   4.897   2.660   1.494
51785SOL    HW257195   4.811   2.616   1.377
51786SOL     OW57196  12.546   3.651   4.560
51786SOL    HW157197  12.474   3.687   4.612
51786SOL    HW257198  12.502   3.596   4.494
51787SOL     OW57199   0.431   6.960  10.433
51787SOL    HW157200   0.340   6.967  10.464
51787SOL    HW257201   0.453   6.868  10.448
51788SOL     OW57202   3.395   0.882  10.802
51788SOL    HW157203   3.490   0.890  10.808
51788SOL    HW257204   3.362   0.964  10.838
51789SOL     OW57205   3.440   1.741   3.570
51789SOL    HW157206   3.359   1.781   3.603
51789SOL    HW257207   3.456   1.668   3.629
51790SOL     OW57208   0.161   8.722   0.085
51790SOL    HW157209   0.174   8.808   0.126
51790SOL    HW257210   0.226   8.665   0.127
51791SOL     OW57211  11.932   7.812  10.656
51791SOL    HW157212  11.896   7.848  10.575
51791SOL    HW257213  11.950   7.720  10.635
51792SOL     OW57214   5.255   1.651  10.728
51792SOL    HW157215   5.327   1.678  10.786
51792SOL    HW257216   5.248   1.721  10.664
51793SOL     OW57217   9.748   2.829  11.578
51793SOL    HW157218   9.784   2.892  11.640
51793SOL    HW257219   9.821   2.808  11.519
51794SOL     OW57220   5.102   8.203   4.798
51794SOL    HW157221   5.121   8.119   4.756
51794SOL    HW257222   5.006   8.208   4.800
51795SOL     OW57223   9.454   8.470   7.914
51795SOL    HW157224   9.506   8.523   7.975
51795SOL    HW257225   9.418   8.400   7.968
51796SOL     OW57226   5.423   2.508   2.584
51796SOL    HW157227   5.350   2.511   2.646
51796SOL    HW257228   5.499   2.539   2.633
51797SOL     OW57229   5.730   2.867   2.527
51797SOL    HW157230   5.684   2.909   2.600
51797SOL    HW257231   5.741   2.936   2.462
51798SOL     OW57232   8.372   2.659  14.680
51798SOL    HW157233   8.345   2.747  14.653
51798SOL    HW257234   8.468   2.663  14.683
51799SOL     OW57235   4.242   9.361  10.176
51799SOL    HW157236   4.153   9.392  10.194
51799SOL    HW257237   4.299   9.433  10.203
51800SOL     OW57238  11.178   4.686  11.769
51800SOL    HW157239  11.099   4.647  11.807
51800SOL    HW257240  11.157   4.778  11.758
51801SOL     OW57241   5.360  11.083  10.332
51801SOL    HW157242   5.270  11.087  10.364
51801SOL    HW257243   5.378  11.171  10.300
51802SOL     OW57244   9.415   2.767   3.209
51802SOL    HW157245   9.444   2.704   3.143
51802SOL    HW257246   9.320   2.770   3.199
51803SOL     OW57247   8.030   3.232  14.327
51803SOL    HW157248   7.960   3.290  14.357
51803SOL    HW257249   8.038   3.249  14.234
51804SOL     OW57250   3.503   1.059   9.019
51804SOL    HW157251   3.547   0.974   9.022
51804SOL    HW257252   3.410   1.038   9.030
51805SOL     OW57253   2.831  14.060   4.599
51805SOL    HW157254   2.743  14.023   4.607
51805SOL    HW257255   2.885  13.987   4.567
51806SOL     OW57256   1.706   2.040   9.058
51806SOL    HW157257   1.770   2.101   9.021
51806SOL    HW257258   1.625   2.091   9.065
51807SOL     OW57259   0.793   6.853   7.043
51807SOL    HW157260   0.821   6.925   6.987
51807SOL    HW257261   0.763   6.786   6.983
51808SOL     OW57262   5.091   8.090  11.529
51808SOL    HW157263   5.105   8.090  11.624
51808SOL    HW257264   5.045   8.172  11.512
51809SOL     OW57265   9.157   2.521  12.607
51809SOL    HW157266   9.105   2.600  12.620
51809SOL    HW257267   9.233   2.549  12.557
51810SOL     OW57268   5.831   0.142  11.631
51810SOL    HW157269   5.897   0.211  11.630
51810SOL    HW257270   5.865   0.075  11.570
51811SOL     OW57271   1.914  12.904   0.461
51811SOL    HW157272   1.828  12.862   0.461
51811SOL    HW257273   1.954  12.878   0.543
51812SOL     OW57274   1.574   9.018  13.491
51812SOL    HW157275   1.545   9.103  13.459
51812SOL    HW257276   1.498   8.960  13.478
51813SOL     OW57277   0.894   5.086   7.869
51813SOL    HW157278   0.877   5.028   7.943
51813SOL    HW257279   0.813   5.135   7.857
51814SOL     OW57280   9.372  13.518   6.040
51814SOL    HW157281   9.447  13.572   6.068
51814SOL    HW257282   9.318  13.510   6.118
51815SOL     OW57283   8.016   4.576  11.146
51815SOL    HW157284   8.051   4.502  11.097
51815SOL    HW257285   7.977   4.633  11.079
51816SOL     OW57286   0.589  12.310  14.228
51816SOL    HW157287   0.592  12.262  14.310
51816SOL    HW257288   0.498  12.341  14.221
51817SOL     OW57289  12.214   7.939   7.328
51817SOL    HW157290  12.246   7.979   7.248
51817SOL    HW257291  12.224   7.845   7.314
51818SOL     OW57292   1.788   5.549   5.407
51818SOL    HW157293   1.791   5.481   5.474
51818SOL    HW257294   1.871   5.597   5.418
51819SOL     OW57295   9.679  12.529   3.149
51819SOL    HW157296   9.697  12.591   3.220
51819SOL    HW257297   9.747  12.547   3.085
51820SOL     OW57298   9.525   5.895   7.758
51820SOL    HW157299   9.512   5.966   7.694
51820SOL    HW257300   9.478   5.925   7.836
51821SOL     OW57301  13.582   2.764   1.206
51821SOL    HW157302  13.555   2.809   1.127
51821SOL    HW257303  13.677   2.751   1.195
51822SOL     OW57304   1.363   7.075   7.274
51822SOL    HW157305   1.419   7.111   7.204
51822SOL    HW257306   1.277   7.112   7.257
51823SOL     OW57307   0.676  10.361   9.716
51823SOL    HW157308   0.621  10.283   9.727
51823SOL    HW257309   0.716  10.375   9.802
51824SOL     OW57310  11.775   3.862   1.932
51824SOL    HW157311  11.683   3.887   1.924
51824SOL    HW257312  11.773   3.766   1.940
51825SOL     OW57313  12.544   1.312   1.042
51825SOL    HW157314  12.566   1.272   0.959
51825SOL    HW257315  12.468   1.263   1.074
51826SOL     OW57316  12.767   6.328   1.204
51826SOL    HW157317  12.788   6.408   1.252
51826SOL    HW257318  12.787   6.257   1.264
51827SOL     OW57319   5.844  14.634  13.928
51827SOL    HW157320   5.778  14.702  13.944
51827SOL    HW257321   5.900  14.672  13.860
51828SOL     OW57322   7.517   6.497  11.188
51828SOL    HW157323   7.449   6.547  11.143
51828SOL    HW257324   7.492   6.501  11.281
51829SOL     OW57325  14.788   1.719   7.087
51829SOL    HW157326  14.873   1.721   7.131
51829SOL    HW257327  14.802   1.664   7.010
51830SOL     OW57328   5.265  13.552  11.167
51830SOL    HW157329   5.211  13.535  11.244
51830SOL    HW257330   5.348  13.583  11.202
51831SOL     OW57331   1.792   9.855   0.426
51831SOL    HW157332   1.764   9.897   0.344
51831SOL    HW257333   1.885   9.876   0.434
51832SOL     OW57334   0.844   8.928   5.189
51832SOL    HW157335   0.870   8.963   5.104
51832SOL    HW257336   0.753   8.902   5.178
51833SOL     OW57337  14.402  10.516  10.075
51833SOL    HW157338  14.434  10.426  10.088
51833SOL    HW257339  14.308  10.511  10.092
51834SOL     OW57340  12.449   8.362   9.910
51834SOL    HW157341  12.507   8.314   9.969
51834SOL    HW257342  12.494   8.361   9.826
51835SOL     OW57343   4.570   6.731   9.234
51835SOL    HW157344   4.551   6.825   9.224
51835SOL    HW257345   4.657   6.729   9.274
51836SOL     OW57346   4.385   5.680   6.329
51836SOL    HW157347   4.471   5.656   6.365
51836SOL    HW257348   4.331   5.603   6.344
51837SOL     OW57349   7.652  13.831   5.973
51837SOL    HW157350   7.628  13.750   6.018
51837SOL    HW257351   7.675  13.891   6.044
51838SOL     OW57352   7.725  11.120   3.593
51838SOL    HW157353   7.750  11.106   3.684
51838SOL    HW257354   7.700  11.212   3.588
51839SOL     OW57355   6.650   6.990   9.531
51839SOL    HW157356   6.601   7.052   9.584
51839SOL    HW257357   6.613   6.904   9.552
51840SOL     OW57358   0.807   3.206   4.853
51840SOL    HW157359   0.825   3.230   4.944
51840SOL    HW257360   0.855   3.125   4.839
51841SOL     OW57361   0.040  12.535   7.434
51841SOL    HW157362   0.001  12.622   7.448
51841SOL    HW257363   0.097  12.547   7.358
51842SOL     OW57364   2.909   1.763   2.819
51842SOL    HW157365   2.902   1.675   2.855
51842SOL    HW257366   2.880   1.754   2.728
51843SOL     OW57367   2.702   9.745  12.034
51843SOL    HW157368   2.790   9.776  12.055
51843SOL    HW257369   2.645   9.817  12.059
51844SOL     OW57370   3.108   9.816  14.210
51844SOL    HW157371   3.060   9.734  14.201
51844SOL    HW257372   3.172   9.800  14.279
51845SOL     OW57373  10.220   7.234   2.847
51845SOL    HW157374  10.249   7.154   2.889
51845SOL    HW257375  10.285   7.252   2.780
51846SOL     OW57376   5.576   3.877   9.233
51846SOL    HW157377   5.487   3.903   9.258
51846SOL    HW257378   5.563   3.815   9.161
51847SOL     OW57379  14.370  14.812   0.317
51847SOL    HW157380  14.355  14.760   0.396
51847SOL    HW257381  14.432   0.006   0.344
51848SOL     OW57382   0.180  13.977   6.321
51848SOL    HW157383   0.174  13.888   6.289
51848SOL    HW257384   0.159  14.032   6.246
51849SOL     OW57385  13.544   4.118   2.237
51849SOL    HW157386  13.497   4.194   2.204
51849SOL    HW257387  13.510   4.105   2.325
51850SOL     OW57388   6.810  13.350  13.072
51850SOL    HW157389   6.844  13.321  12.987
51850SOL    HW257390   6.838  13.282  13.133
51851SOL     OW57391   2.611  13.690   7.857
51851SOL    HW157392   2.590  13.694   7.950
51851SOL    HW257393   2.615  13.596   7.838
51852SOL     OW57394  13.283   5.158   8.932
51852SOL    HW157395  13.229   5.147   8.854
51852SOL    HW257396  13.320   5.071   8.948
51853SOL     OW57397  14.000  10.466   8.418
51853SOL    HW157398  14.020  10.560   8.416
51853SOL    HW257399  13.964  10.447   8.332
51854SOL     OW57400   0.168  12.351   2.837
51854SOL    HW157401   0.187  12.330   2.745
51854SOL    HW257402   0.188  12.444   2.845
51855SOL     OW57403   5.294   6.147   9.641
51855SOL    HW157404   5.376   6.180   9.678
51855SOL    HW257405   5.321   6.095   9.565
51856SOL     OW57406   7.830   5.627   5.213
51856SOL    HW157407   7.875   5.625   5.129
51856SOL    HW257408   7.804   5.719   5.224
51857SOL     OW57409   8.358   3.354   8.992
51857SOL    HW157410   8.324   3.379   9.078
51857SOL    HW257411   8.310   3.275   8.969
51858SOL     OW57412   8.293   1.574   8.774
51858SOL    HW157413   8.248   1.611   8.698
51858SOL    HW257414   8.351   1.645   8.803
51859SOL     OW57415   6.649   7.293   8.265
51859SOL    HW157416   6.676   7.384   8.262
51859SOL    HW257417   6.658   7.267   8.357
51860SOL     OW57418   0.129   4.293  14.135
51860SOL    HW157419   0.081   4.222  14.178
51860SOL    HW257420   0.179   4.333  14.206
51861SOL     OW57421   9.596   3.145  10.217
51861SOL    HW157422   9.638   3.080  10.161
51861SOL    HW257423   9.600   3.107  10.305
51862SOL     OW57424   4.243  14.392  13.923
51862SOL    HW157425   4.208  14.480  13.909
51862SOL    HW257426   4.193  14.336  13.865
51863SOL     OW57427   0.697   1.891   1.199
51863SOL    HW157428   0.709   1.830   1.127
51863SOL    HW257429   0.636   1.956   1.166
51864SOL     OW57430   6.469   7.383   5.284
51864SOL    HW157431   6.523   7.331   5.224
51864SOL    HW257432   6.530   7.442   5.327
51865SOL     OW57433   4.091   0.654  12.266
51865SOL    HW157434   4.018   0.700  12.307
51865SOL    HW257435   4.109   0.704  12.187
51866SOL     OW57436   7.525  11.440   9.854
51866SOL    HW157437   7.510  11.535   9.848
51866SOL    HW257438   7.474  11.413   9.931
51867SOL     OW57439   2.665  14.499   7.665
51867SOL    HW157440   2.689  14.579   7.618
51867SOL    HW257441   2.578  14.476   7.631
51868SOL     OW57442   8.124   2.641   5.451
51868SOL    HW157443   8.149   2.673   5.364
51868SOL    HW257444   8.099   2.719   5.499
51869SOL     OW57445   6.075   1.863  11.337
51869SOL    HW157446   6.102   1.896  11.423
51869SOL    HW257447   6.125   1.782  11.326
51870SOL     OW57448   3.630   1.906   1.237
51870SOL    HW157449   3.655   1.886   1.147
51870SOL    HW257450   3.646   1.825   1.285
51871SOL     OW57451  14.654   4.954  10.416
51871SOL    HW157452  14.727   5.006  10.450
51871SOL    HW257453  14.598   5.016  10.370
51872SOL     OW57454   5.655   6.680   4.445
51872SOL    HW157455   5.616   6.598   4.412
51872SOL    HW257456   5.596   6.748   4.413
51873SOL     OW57457   6.436  10.645   1.397
51873SOL    HW157458   6.516  10.697   1.405
51873SOL    HW257459   6.373  10.704   1.355
51874SOL     OW57460   3.600   4.085  11.843
51874SOL    HW157461   3.656   4.098  11.767
51874SOL    HW257462   3.515   4.058  11.807
51875SOL     OW57463  11.911   0.967  10.856
51875SOL    HW157464  11.846   0.927  10.798
51875SOL    HW257465  11.974   1.008  10.797
51876SOL     OW57466   4.211   4.293   4.183
51876SOL    HW157467   4.303   4.297   4.211
51876SOL    HW257468   4.161   4.295   4.264
51877SOL     OW57469  14.177  12.378   0.370
51877SOL    HW157470  14.165  12.340   0.457
51877SOL    HW257471  14.173  12.302   0.311
51878SOL     OW57472   8.589   2.781   4.376
51878SOL    HW157473   8.638   2.709   4.415
51878SOL    HW257474   8.649   2.855   4.376
51879SOL     OW57475   9.591  12.977  12.976
51879SOL    HW157476   9.571  13.045  13.041
51879SOL    HW257477   9.633  13.024  12.904
51880SOL     OW57478   1.304   8.820   7.741
51880SOL    HW157479   1.367   8.840   7.672
51880SOL    HW257480   1.252   8.748   7.706
51881SOL     OW57481   8.256  10.218   6.548
51881SOL    HW157482   8.338  10.261   6.525
51881SOL    HW257483   8.251  10.225   6.644
51882SOL     OW57484   4.016   5.153   9.864
51882SOL    HW157485   3.927   5.187   9.857
51882SOL    HW257486   4.061   5.190   9.788
51883SOL     OW57487  13.011   5.789  10.405
51883SOL    HW157488  12.925   5.829  10.416
51883SOL    HW257489  13.071   5.863  10.394
51884SOL     OW57490   4.092   0.511  13.092
51884SOL    HW157491   4.096   0.606  13.084
51884SOL    HW257492   4.126   0.492  13.180
51885SOL     OW57493   7.122   7.449   4.475
51885SOL    HW157494   7.178   7.373   4.482
51885SOL    HW257495   7.182   7.523   4.468
51886SOL     OW57496   2.139   3.485  14.755
51886SOL    HW157497   2.198   3.558  14.777
51886SOL    HW257498   2.054   3.526  14.742
51887SOL     OW57499   3.842   2.919   9.593
51887SOL    HW157500   3.864   2.886   9.506
51887SOL    HW257501   3.884   3.005   9.597
51888SOL     OW57502   2.441   2.557   7.772
51888SOL    HW157503   2.438   2.574   7.678
51888SOL    HW257504   2.353   2.577   7.803
51889SOL     OW57505   0.038   3.720  11.698
51889SOL    HW157506   0.102   3.751  11.761
51889SOL    HW257507  14.827   3.749  11.733
51890SOL     OW57508  12.793   9.985  12.598
51890SOL    HW157509  12.867   9.986  12.537
51890SOL    HW257510  12.744  10.065  12.577
51891SOL     OW57511   6.143   1.269  10.198
51891SOL    HW157512   6.184   1.278  10.284
51891SOL    HW257513   6.199   1.319  10.139
51892SOL     OW57514  13.707  10.141   8.878
51892SOL    HW157515  13.742  10.054   8.898
51892SOL    HW257516  13.777  10.184   8.829
51893SOL     OW57517   9.929   1.943   6.748
51893SOL    HW157518   9.969   1.881   6.686
51893SOL    HW257519   9.946   2.029   6.710
51894SOL     OW57520  13.091   8.835   1.374
51894SOL    HW157521  13.130   8.756   1.337
51894SOL    HW257522  13.114   8.832   1.467
51895SOL     OW57523   8.922   4.022   8.034
51895SOL    HW157524   8.864   4.084   7.989
51895SOL    HW257525   8.904   4.036   8.127
51896SOL     OW57526  14.597   9.226   1.544
51896SOL    HW157527  14.581   9.134   1.564
51896SOL    HW257528  14.692   9.236   1.552
51897SOL     OW57529  12.375  13.861   6.293
51897SOL    HW157530  12.460  13.846   6.250
51897SOL    HW257531  12.391  13.841   6.385
51898SOL     OW57532  14.666  14.277  13.417
51898SOL    HW157533  14.683  14.280  13.323
51898SOL    HW257534  14.706  14.195  13.446
51899SOL     OW57535  10.951   1.896   6.035
51899SOL    HW157536  10.969   1.967   5.973
51899SOL    HW257537  10.870   1.857   6.003
51900SOL     OW57538   6.683   2.102   4.428
51900SOL    HW157539   6.685   2.016   4.468
51900SOL    HW257540   6.734   2.092   4.347
51901SOL     OW57541  13.758   1.324   5.712
51901SOL    HW157542  13.842   1.278   5.704
51901SOL    HW257543  13.712   1.303   5.631
51902SOL     OW57544   6.529  13.267  12.064
51902SOL    HW157545   6.572  13.296  12.144
51902SOL    HW257546   6.542  13.339  12.002
51903SOL     OW57547   1.348  10.239  10.682
51903SOL    HW157548   1.292  10.161  10.682
51903SOL    HW257549   1.436  10.205  10.696
51904SOL     OW57550   5.486   0.767   7.892
51904SOL    HW157551   5.524   0.852   7.912
51904SOL    HW257552   5.410   0.788   7.838
51905SOL     OW57553   5.256  11.161   1.703
51905SOL    HW157554   5.224  11.239   1.747
51905SOL    HW257555   5.234  11.174   1.611
51906SOL     OW57556   3.034   2.123   1.355
51906SOL    HW157557   3.101   2.060   1.329
51906SOL    HW257558   2.984   2.139   1.275
51907SOL     OW57559  11.571   9.302   7.896
51907SOL    HW157560  11.560   9.213   7.863
51907SOL    HW257561  11.612   9.349   7.824
51908SOL     OW57562   7.564   9.204   5.708
51908SOL    HW157563   7.575   9.287   5.661
51908SOL    HW257564   7.483   9.167   5.672
51909SOL     OW57565   8.625   9.374   9.693
51909SOL    HW157566   8.702   9.418   9.657
51909SOL    HW257567   8.562   9.373   9.621
51910SOL     OW57568  10.961  10.749  10.810
51910SOL    HW157569  10.897  10.718  10.873
51910SOL    HW257570  10.914  10.812  10.756
51911SOL     OW57571   4.487  11.395   4.338
51911SOL    HW157572   4.559  11.429   4.391
51911SOL    HW257573   4.459  11.315   4.384
51912SOL     OW57574  11.445   9.753   2.523
51912SOL    HW157575  11.481   9.785   2.440
51912SOL    HW257576  11.520   9.717   2.570
51913SOL     OW57577  10.191   0.128   7.709
51913SOL    HW157578  10.185   0.201   7.772
51913SOL    HW257579  10.119   0.143   7.648
51914SOL     OW57580   1.029   9.766   7.375
51914SOL    HW157581   1.028   9.765   7.279
51914SOL    HW257582   1.114   9.729   7.399
51915SOL     OW57583   1.386  11.144   0.624
51915SOL    HW157584   1.396  11.145   0.719
51915SOL    HW257585   1.409  11.233   0.596
51916SOL     OW57586   6.438   0.900  12.967
51916SOL    HW157587   6.367   0.960  12.944
51916SOL    HW257588   6.517   0.944  12.936
51917SOL     OW57589   0.848   7.933   9.838
51917SOL    HW157590   0.782   7.972   9.895
51917SOL    HW257591   0.931   7.970   9.867
51918SOL     OW57592  11.150  14.472  12.658
51918SOL    HW157593  11.204  14.453  12.581
51918SOL    HW257594  11.087  14.538  12.626
51919SOL     OW57595  12.378   3.030   7.264
51919SOL    HW157596  12.473   3.041   7.267
51919SOL    HW257597  12.354   3.056   7.175
51920SOL     OW57598   5.270  13.511   0.801
51920SOL    HW157599   5.226  13.441   0.848
51920SOL    HW257600   5.212  13.586   0.808
51921SOL     OW57601  10.692   2.743   3.942
51921SOL    HW157602  10.749   2.733   3.865
51921SOL    HW257603  10.634   2.815   3.920
51922SOL     OW57604  11.413   1.151   8.023
51922SOL    HW157605  11.379   1.240   8.033
51922SOL    HW257606  11.395   1.109   8.107
51923SOL     OW57607  12.349   7.994  10.572
51923SOL    HW157608  12.327   7.991  10.665
51923SOL    HW257609  12.282   7.940  10.529
51924SOL     OW57610   0.978   5.923  14.344
51924SOL    HW157611   1.013   5.934  14.432
51924SOL    HW257612   0.926   6.003  14.329
51925SOL     OW57613   6.507  10.281   6.164
51925SOL    HW157614   6.469  10.265   6.077
51925SOL    HW257615   6.451  10.348   6.202
51926SOL     OW57616   2.529   0.582   1.850
51926SOL    HW157617   2.522   0.677   1.845
51926SOL    HW257618   2.458   0.550   1.795
51927SOL     OW57619   9.627   0.511   7.405
51927SOL    HW157620   9.548   0.566   7.404
51927SOL    HW257621   9.698   0.572   7.423
51928SOL     OW57622   8.818   7.374   4.803
51928SOL    HW157623   8.779   7.432   4.738
51928SOL    HW257624   8.851   7.433   4.871
51929SOL     OW57625  13.841   4.645  13.980
51929SOL    HW157626  13.835   4.700  13.902
51929SOL    HW257627  13.842   4.555  13.947
51930SOL     OW57628   9.787  12.427   4.747
51930SOL    HW157629   9.713  12.473   4.787
51930SOL    HW257630   9.797  12.347   4.799
51931SOL     OW57631   5.957   2.670  11.262
51931SOL    HW157632   6.039   2.679  11.214
51931SOL    HW257633   5.964   2.734  11.334
51932SOL     OW57634   2.377   9.311  12.182
51932SOL    HW157635   2.376   9.360  12.100
51932SOL    HW257636   2.379   9.378  12.250
51933SOL     OW57637  11.021   1.459  14.313
51933SOL    HW157638  11.007   1.493  14.225
51933SOL    HW257639  11.017   1.364  14.303
51934SOL     OW57640   4.038   5.626   4.820
51934SOL    HW157641   4.097   5.694   4.787
51934SOL    HW257642   4.087   5.544   4.812
51935SOL     OW57643   3.645  13.904  14.542
51935SOL    HW157644   3.672  13.996  14.548
51935SOL    HW257645   3.575  13.896  14.606
51936SOL     OW57646  13.119   3.736  13.100
51936SOL    HW157647  13.035   3.782  13.099
51936SOL    HW257648  13.103   3.656  13.049
51937SOL     OW57649  14.134   6.005   7.095
51937SOL    HW157650  14.151   5.966   7.010
51937SOL    HW257651  14.121   6.098   7.077
51938SOL     OW57652  14.228   6.879   4.451
51938SOL    HW157653  14.148   6.912   4.491
51938SOL    HW257654  14.251   6.802   4.502
51939SOL     OW57655   1.856   4.069   4.131
51939SOL    HW157656   1.842   4.144   4.073
51939SOL    HW257657   1.919   4.100   4.196
51940SOL     OW57658   2.482   5.372   8.085
51940SOL    HW157659   2.444   5.407   8.005
51940SOL    HW257660   2.453   5.281   8.089
51941SOL     OW57661   5.036   4.809   3.189
51941SOL    HW157662   4.991   4.840   3.268
51941SOL    HW257663   5.114   4.863   3.183
51942SOL     OW57664  14.239   7.368  10.792
51942SOL    HW157665  14.189   7.370  10.710
51942SOL    HW257666  14.269   7.278  10.799
51943SOL     OW57667  12.981   9.301   9.980
51943SOL    HW157668  12.929   9.223   9.963
51943SOL    HW257669  12.948   9.366   9.918
51944SOL     OW57670   0.243  12.734   9.230
51944SOL    HW157671   0.187  12.656   9.226
51944SOL    HW257672   0.318  12.712   9.174
51945SOL     OW57673   4.601   0.149  13.513
51945SOL    HW157674   4.619   0.166  13.605
51945SOL    HW257675   4.638   0.062  13.497
51946SOL     OW57676   2.253  13.423   3.794
51946SOL    HW157677   2.242  13.426   3.889
51946SOL    HW257678   2.343  13.449   3.779
51947SOL     OW57679   9.905   8.400  14.389
51947SOL    HW157680   9.916   8.475  14.448
51947SOL    HW257681   9.825   8.420  14.341
51948SOL     OW57682   7.327  12.445  13.464
51948SOL    HW157683   7.352  12.359  13.497
51948SOL    HW257684   7.293  12.491  13.540
51949SOL     OW57685   4.298   0.031   8.837
51949SOL    HW157686   4.265   0.111   8.878
51949SOL    HW257687   4.221  14.848   8.828
51950SOL     OW57688   1.838   6.568   5.679
51950SOL    HW157689   1.825   6.585   5.772
51950SOL    HW257690   1.756   6.530   5.649
51951SOL     OW57691   8.679   1.434   3.670
51951SOL    HW157692   8.725   1.423   3.753
51951SOL    HW257693   8.612   1.501   3.689
51952SOL     OW57694   6.691  10.748   1.517
51952SOL    HW157695   6.728  10.675   1.468
51952SOL    HW257696   6.717  10.826   1.467
51953SOL     OW57697  12.605  10.116   5.886
51953SOL    HW157698  12.656  10.195   5.905
51953SOL    HW257699  12.517  10.136   5.920
51954SOL     OW57700   7.398   9.378   7.148
51954SOL    HW157701   7.351   9.348   7.070
51954SOL    HW257702   7.468   9.314   7.160
51955SOL     OW57703   3.181  10.994  13.141
51955SOL    HW157704   3.095  10.962  13.112
51955SOL    HW257705   3.242  10.955  13.078
51956SOL     OW57706   5.510   0.916  14.515
51956SOL    HW157707   5.577   0.893  14.579
51956SOL    HW257708   5.554   0.910  14.430
51957SOL     OW57709   1.695   4.302   2.247
51957SOL    HW157710   1.730   4.219   2.216
51957SOL    HW257711   1.622   4.322   2.188
51958SOL     OW57712  11.887  12.062   6.824
51958SOL    HW157713  11.880  11.979   6.777
51958SOL    HW257714  11.974  12.096   6.803
51959SOL     OW57715  11.077  10.950   1.599
51959SOL    HW157716  11.023  10.940   1.678
51959SOL    HW257717  11.014  10.967   1.529
51960SOL     OW57718  13.418   9.380  12.339
51960SOL    HW157719  13.462   9.458  12.307
51960SOL    HW257720  13.454   9.366  12.426
51961SOL     OW57721   5.246  11.692  14.722
51961SOL    HW157722   5.223  11.623  14.660
51961SOL    HW257723   5.169  11.749  14.725
51962SOL     OW57724   5.686   3.984  13.671
51962SOL    HW157725   5.693   4.051  13.603
51962SOL    HW257726   5.668   4.033  13.751
51963SOL     OW57727   7.227  14.598   1.626
51963SOL    HW157728   7.297  14.662   1.639
51963SOL    HW257729   7.193  14.582   1.714
51964SOL     OW57730   2.685   3.578   6.776
51964SOL    HW157731   2.621   3.641   6.743
51964SOL    HW257732   2.682   3.506   6.712
51965SOL     OW57733   1.196  13.463  11.979
51965SOL    HW157734   1.214  13.482  11.887
51965SOL    HW257735   1.121  13.403  11.977
51966SOL     OW57736  11.172   5.646  13.205
51966SOL    HW157737  11.153   5.685  13.120
51966SOL    HW257738  11.110   5.573  13.213
51967SOL     OW57739   0.873  11.440   8.209
51967SOL    HW157740   0.863  11.349   8.182
51967SOL    HW257741   0.791  11.461   8.255
51968SOL     OW57742   4.091   0.325   6.893
51968SOL    HW157743   4.107   0.398   6.953
51968SOL    HW257744   4.071   0.367   6.810
51969SOL     OW57745   9.336  10.589   4.357
51969SOL    HW157746   9.280  10.659   4.321
51969SOL    HW257747   9.416  10.593   4.304
51970SOL     OW57748   3.123   6.258   0.294
51970SOL    HW157749   3.071   6.298   0.364
51970SOL    HW257750   3.112   6.316   0.219
51971SOL     OW57751   8.186   0.766   1.023
51971SOL    HW157752   8.277   0.743   1.040
51971SOL    HW257753   8.139   0.743   1.103
51972SOL     OW57754   2.367   0.361   5.426
51972SOL    HW157755   2.301   0.298   5.454
51972SOL    HW257756   2.450   0.325   5.457
51973SOL     OW57757   3.924   6.728   5.811
51973SOL    HW157758   3.871   6.736   5.732
51973SOL    HW257759   3.938   6.819   5.839
51974SOL     OW57760   0.579  14.558   4.191
51974SOL    HW157761   0.549  14.482   4.242
51974SOL    HW257762   0.502  14.615   4.186
51975SOL     OW57763  12.040   5.640   3.484
51975SOL    HW157764  11.954   5.603   3.505
51975SOL    HW257765  12.023   5.697   3.408
51976SOL     OW57766   4.408  10.036   1.484
51976SOL    HW157767   4.494  10.003   1.460
51976SOL    HW257768   4.385   9.989   1.564
51977SOL     OW57769   5.330  10.220   2.872
51977SOL    HW157770   5.303  10.204   2.782
51977SOL    HW257771   5.424  10.200   2.873
51978SOL     OW57772  14.650   4.354   3.402
51978SOL    HW157773  14.714   4.392   3.462
51978SOL    HW257774  14.589   4.306   3.459
51979SOL     OW57775   5.470   8.355   4.875
51979SOL    HW157776   5.424   8.390   4.951
51979SOL    HW257777   5.560   8.387   4.884
51980SOL     OW57778   6.323  12.105  14.346
51980SOL    HW157779   6.356  12.022  14.314
51980SOL    HW257780   6.244  12.082  14.394
51981SOL     OW57781   8.214   7.981   1.345
51981SOL    HW157782   8.305   7.984   1.374
51981SOL    HW257783   8.174   7.913   1.399
51982SOL     OW57784   4.495   6.511   7.196
51982SOL    HW157785   4.454   6.553   7.120
51982SOL    HW257786   4.532   6.584   7.246
51983SOL     OW57787  11.897  14.544  11.746
51983SOL    HW157788  11.965  14.589  11.696
51983SOL    HW257789  11.831  14.612  11.762
51984SOL     OW57790   7.975  10.788  14.663
51984SOL    HW157791   7.886  10.787  14.698
51984SOL    HW257792   8.005  10.697  14.670
51985SOL     OW57793   9.728   0.623  12.912
51985SOL    HW157794   9.768   0.536  12.903
51985SOL    HW257795   9.801   0.680  12.935
51986SOL     OW57796  10.304   1.381   0.289
51986SOL    HW157797  10.230   1.367   0.230
51986SOL    HW257798  10.377   1.403   0.232
51987SOL     OW57799  14.423   6.009   5.964
51987SOL    HW157800  14.442   6.022   5.871
51987SOL    HW257801  14.500   6.045   6.009
51988SOL     OW57802  11.468  10.230   9.332
51988SOL    HW157803  11.468  10.314   9.285
51988SOL    HW257804  11.423  10.249   9.414
51989SOL     OW57805   3.836   5.838  11.853
51989SOL    HW157806   3.891   5.819  11.776
51989SOL    HW257807   3.756   5.789  11.837
51990SOL     OW57808   3.094   2.551   0.632
51990SOL    HW157809   3.146   2.631   0.626
51990SOL    HW257810   3.051   2.544   0.547
51991SOL     OW57811  13.489   7.300   9.833
51991SOL    HW157812  13.554   7.302   9.763
51991SOL    HW257813  13.448   7.214   9.826
51992SOL     OW57814  13.022   6.084  14.232
51992SOL    HW157815  13.021   6.022  14.304
51992SOL    HW257816  13.082   6.153  14.261
51993SOL     OW57817   0.186   1.896  13.051
51993SOL    HW157818   0.260   1.849  13.090
51993SOL    HW257819   0.115   1.831  13.050
51994SOL     OW57820   3.072   4.186   9.073
51994SOL    HW157821   3.055   4.186   8.978
51994SOL    HW257822   3.160   4.149   9.081
51995SOL     OW57823   6.571  11.051   0.735
51995SOL    HW157824   6.587  11.002   0.816
51995SOL    HW257825   6.567  11.142   0.763
51996SOL     OW57826   6.667  13.700   9.808
51996SOL    HW157827   6.640  13.765   9.872
51996SOL    HW257828   6.588  13.647   9.793
51997SOL     OW57829   8.997  13.316  14.172
51997SOL    HW157830   9.042  13.375  14.232
51997SOL    HW257831   8.943  13.373  14.118
51998SOL     OW57832   4.849   2.642   8.779
51998SOL    HW157833   4.782   2.695   8.735
51998SOL    HW257834   4.930   2.691   8.767
51999SOL     OW57835  14.124  12.397  10.828
51999SOL    HW157836  14.192  12.370  10.889
51999SOL    HW257837  14.125  12.493  10.833
52000SOL     OW57838   5.633   1.349  11.243
52000SOL    HW157839   5.711   1.303  11.212
52000SOL    HW257840   5.594   1.385  11.164
52001SOL     OW57841  11.982   8.500  13.815
52001SOL    HW157842  11.962   8.444  13.890
52001SOL    HW257843  11.912   8.565  13.813
52002SOL     OW57844  12.384   4.268  10.653
52002SOL    HW157845  12.434   4.187  10.653
52002SOL    HW257846  12.385   4.298  10.744
52003SOL     OW57847   9.407  10.818   7.309
52003SOL    HW157848   9.500  10.797   7.299
52003SOL    HW257849   9.406  10.900   7.359
52004SOL     OW57850   9.673  10.209   5.495
52004SOL    HW157851   9.708  10.139   5.551
52004SOL    HW257852   9.578  10.202   5.504
52005SOL     OW57853   4.080  12.296  10.017
52005SOL    HW157854   4.048  12.211  10.049
52005SOL    HW257855   4.001  12.350  10.011
52006SOL     OW57856  10.910  13.191   0.817
52006SOL    HW157857  10.842  13.131   0.785
52006SOL    HW257858  10.979  13.186   0.750
52007SOL     OW57859  12.014   4.756   6.143
52007SOL    HW157860  11.924   4.725   6.136
52007SOL    HW257861  12.031   4.760   6.237
52008SOL     OW57862   8.514  11.965   6.667
52008SOL    HW157863   8.584  12.028   6.649
52008SOL    HW257864   8.482  11.939   6.580
52009SOL     OW57865   1.123   9.493   4.257
52009SOL    HW157866   1.176   9.480   4.335
52009SOL    HW257867   1.083   9.579   4.269
52010SOL     OW57868  12.798  12.817  14.458
52010SOL    HW157869  12.807  12.912  14.451
52010SOL    HW257870  12.746  12.793  14.381
52011SOL     OW57871  11.141   6.160   5.505
52011SOL    HW157872  11.222   6.119   5.537
52011SOL    HW257873  11.161   6.186   5.415
52012SOL     OW57874   9.952  12.590  10.002
52012SOL    HW157875   9.896  12.515  10.022
52012SOL    HW257876   9.892  12.663   9.988
52013SOL     OW57877   5.720   1.272   6.605
52013SOL    HW157878   5.687   1.348   6.557
52013SOL    HW257879   5.701   1.292   6.697
52014SOL     OW57880   3.418   9.841  13.012
52014SOL    HW157881   3.420   9.775  12.943
52014SOL    HW257882   3.408   9.791  13.093
52015SOL     OW57883   8.240   9.503   4.446
52015SOL    HW157884   8.222   9.574   4.508
52015SOL    HW257885   8.295   9.543   4.379
52016SOL     OW57886  14.026  10.998   7.260
52016SOL    HW157887  14.023  10.963   7.349
52016SOL    HW257888  14.052  11.090   7.271
52017SOL     OW57889  13.483   2.560   0.636
52017SOL    HW157890  13.470   2.617   0.712
52017SOL    HW257891  13.527   2.616   0.572
52018SOL     OW57892   0.793   3.703  13.098
52018SOL    HW157893   0.873   3.730  13.144
52018SOL    HW257894   0.738   3.781  13.099
52019SOL     OW57895   4.714   6.981   3.369
52019SOL    HW157896   4.676   7.069   3.369
52019SOL    HW257897   4.644   6.925   3.333
52020SOL     OW57898   2.105   5.600   5.157
52020SOL    HW157899   2.117   5.508   5.131
52020SOL    HW257900   2.054   5.638   5.085
52021SOL     OW57901  10.562   5.203   8.976
52021SOL    HW157902  10.527   5.252   8.901
52021SOL    HW257903  10.560   5.112   8.949
52022SOL     OW57904   9.431  14.266   5.045
52022SOL    HW157905   9.339  14.257   5.071
52022SOL    HW257906   9.461  14.176   5.030
52023SOL     OW57907  12.508   1.045   2.131
52023SOL    HW157908  12.488   1.095   2.052
52023SOL    HW257909  12.446   1.077   2.196
52024SOL     OW57910   3.750  10.452   7.069
52024SOL    HW157911   3.740  10.494   6.983
52024SOL    HW257912   3.715  10.515   7.131
52025SOL     OW57913   6.056  13.989   9.774
52025SOL    HW157914   6.015  14.057   9.828
52025SOL    HW257915   6.104  14.037   9.707
52026SOL     OW57916  10.081  14.476  14.285
52026SOL    HW157917  10.121  14.510  14.365
52026SOL    HW257918  10.128  14.394  14.267
52027SOL     OW57919   9.334   3.952  10.962
52027SOL    HW157920   9.351   4.030  11.014
52027SOL    HW257921   9.394   3.886  10.998
52028SOL     OW57922   1.641   7.068   0.223
52028SOL    HW157923   1.550   7.058   0.249
52028SOL    HW257924   1.683   6.986   0.249
52029SOL     OW57925   8.911   1.807   4.992
52029SOL    HW157926   8.887   1.817   5.084
52029SOL    HW257927   8.940   1.895   4.966
52030SOL     OW57928   7.782   7.689   8.217
52030SOL    HW157929   7.844   7.638   8.165
52030SOL    HW257930   7.774   7.640   8.299
52031SOL     OW57931   2.842   0.216   9.899
52031SOL    HW157932   2.888   0.191   9.818
52031SOL    HW257933   2.891   0.292   9.932
52032SOL     OW57934   3.269   0.365  11.327
52032SOL    HW157935   3.227   0.447  11.300
52032SOL    HW257936   3.202   0.319  11.378
52033SOL     OW57937   4.871   6.589  10.431
52033SOL    HW157938   4.950   6.540  10.454
52033SOL    HW257939   4.850   6.639  10.509
52034SOL     OW57940   4.159  13.616  10.844
52034SOL    HW157941   4.154  13.681  10.774
52034SOL    HW257942   4.086  13.556  10.827
52035SOL     OW57943   1.065  14.515   0.377
52035SOL    HW157944   1.151  14.484   0.350
52035SOL    HW257945   1.061  14.497   0.471
52036SOL     OW57946  13.798  11.023   6.127
52036SOL    HW157947  13.815  10.958   6.196
52036SOL    HW257948  13.762  11.098   6.174
52037SOL     OW57949   6.674   8.329   6.991
52037SOL    HW157950   6.626   8.303   6.912
52037SOL    HW257951   6.624   8.402   7.026
52038SOL     OW57952   2.198   2.416  12.214
52038SOL    HW157953   2.233   2.395  12.301
52038SOL    HW257954   2.239   2.500  12.192
52039SOL     OW57955  12.137   7.772   2.402
52039SOL    HW157956  12.222   7.738   2.377
52039SOL    HW257957  12.134   7.764   2.497
52040SOL     OW57958   4.953   4.563   6.144
52040SOL    HW157959   5.019   4.626   6.172
52040SOL    HW257960   4.883   4.617   6.106
52041SOL     OW57961   6.387   5.716   3.858
52041SOL    HW157962   6.383   5.781   3.928
52041SOL    HW257963   6.301   5.719   3.818
52042SOL     OW57964   1.291  12.324   1.228
52042SOL    HW157965   1.241  12.248   1.198
52042SOL    HW257966   1.308  12.375   1.149
52043SOL     OW57967   0.246   1.163   7.090
52043SOL    HW157968   0.170   1.212   7.059
52043SOL    HW257969   0.245   1.082   7.038
52044SOL     OW57970   9.332   5.549  10.981
52044SOL    HW157971   9.273   5.529  10.908
52044SOL    HW257972   9.290   5.622  11.027
52045SOL     OW57973  12.491   7.173   2.751
52045SOL    HW157974  12.580   7.186   2.716
52045SOL    HW257975  12.435   7.169   2.673
52046SOL     OW57976  13.144   9.227   4.723
52046SOL    HW157977  13.199   9.210   4.647
52046SOL    HW257978  13.080   9.155   4.722
52047SOL     OW57979   4.340   1.688  11.068
52047SOL    HW157980   4.407   1.625  11.040
52047SOL    HW257981   4.387   1.769  11.082
52048SOL     OW57982  14.747   1.276   0.857
52048SOL    HW157983  14.813   1.325   0.906
52048SOL    HW257984  14.748   1.189   0.896
52049SOL     OW57985   8.239  11.351  11.178
52049SOL    HW157986   8.307  11.403  11.136
52049SOL    HW257987   8.171  11.342  11.111
52050SOL     OW57988  11.811   8.008   5.221
52050SOL    HW157989  11.782   8.001   5.130
52050SOL    HW257990  11.857   7.926   5.238
52051SOL     OW57991   3.891   6.932   3.824
52051SOL    HW157992   3.797   6.928   3.812
52051SOL    HW257993   3.922   6.845   3.799
52052SOL     OW57994   6.637  12.186   4.770
52052SOL    HW157995   6.606  12.199   4.859
52052SOL    HW257996   6.560  12.200   4.715
52053SOL     OW57997  13.420  14.844   9.213
52053SOL    HW157998  13.361   0.042   9.236
52053SOL    HW257999  13.363  14.773   9.182
52054SOL     OW58000  12.115   2.825  12.341
52054SOL    HW158001  12.164   2.860  12.267
52054SOL    HW258002  12.169   2.752  12.373
52055SOL     OW58003   3.427   6.516   3.354
52055SOL    HW158004   3.484   6.568   3.297
52055SOL    HW258005   3.458   6.536   3.443
52056SOL     OW58006   4.600   4.674   0.422
52056SOL    HW158007   4.552   4.742   0.468
52056SOL    HW258008   4.688   4.711   0.409
52057SOL     OW58009   1.846  13.922  13.088
52057SOL    HW158010   1.780  13.892  13.150
52057SOL    HW258011   1.892  13.843  13.060
52058SOL     OW58012  12.390   1.045   2.462
52058SOL    HW158013  12.337   1.073   2.537
52058SOL    HW258014  12.330   1.047   2.388
52059SOL     OW58015   5.428   3.861   2.272
52059SOL    HW158016   5.498   3.812   2.315
52059SOL    HW258017   5.400   3.804   2.200
52060SOL     OW58018   9.706  13.748  13.527
52060SOL    HW158019   9.630  13.801  13.551
52060SOL    HW258020   9.768  13.761  13.599
52061SOL     OW58021   9.748   1.316   2.077
52061SOL    HW158022   9.739   1.328   1.982
52061SOL    HW258023   9.755   1.405   2.112
52062SOL     OW58024   5.720   2.778   6.409
52062SOL    HW158025   5.721   2.683   6.424
52062SOL    HW258026   5.667   2.813   6.480
52063SOL     OW58027   0.969   3.222   4.385
52063SOL    HW158028   0.987   3.229   4.292
52063SOL    HW258029   1.042   3.171   4.421
52064SOL     OW58030   3.986  10.392   6.658
52064SOL    HW158031   4.010  10.425   6.745
52064SOL    HW258032   3.899  10.352   6.671
52065SOL     OW58033  13.420  13.303   4.834
52065SOL    HW158034  13.387  13.374   4.779
52065SOL    HW258035  13.506  13.284   4.799
52066SOL     OW58036   9.145  12.670  13.358
52066SOL    HW158037   9.180  12.753  13.391
52066SOL    HW258038   9.052  12.673  13.380
52067SOL     OW58039   6.955   6.633  12.766
52067SOL    HW158040   7.028   6.572  12.762
52067SOL    HW258041   6.889   6.595  12.708
52068SOL     OW58042   1.889   1.013   1.092
52068SOL    HW158043   1.955   1.082   1.100
52068SOL    HW258044   1.939   0.932   1.100
52069SOL     OW58045   4.717   4.283   3.158
52069SOL    HW158046   4.746   4.361   3.111
52069SOL    HW258047   4.639   4.255   3.110
52070SOL     OW58048   1.771   5.889  13.114
52070SOL    HW158049   1.703   5.953  13.095
52070SOL    HW258050   1.820   5.881  13.032
52071SOL     OW58051  11.747   4.143  12.789
52071SOL    HW158052  11.698   4.222  12.766
52071SOL    HW258053  11.819   4.175  12.843
52072SOL     OW58054   4.689   5.420  10.811
52072SOL    HW158055   4.617   5.390  10.866
52072SOL    HW258056   4.662   5.396  10.722
52073SOL     OW58057  11.894   9.747   6.890
52073SOL    HW158058  11.837   9.782   6.822
52073SOL    HW258059  11.834   9.710   6.955
52074SOL     OW58060   9.436  13.906   8.219
52074SOL    HW158061   9.418  13.880   8.129
52074SOL    HW258062   9.376  13.853   8.272
52075SOL     OW58063   3.601   5.046   4.900
52075SOL    HW158064   3.620   5.110   4.831
52075SOL    HW258065   3.683   5.040   4.949
52076SOL     OW58066   6.743  12.560   2.584
52076SOL    HW158067   6.729  12.580   2.677
52076SOL    HW258068   6.812  12.494   2.584
52077SOL     OW58069   4.921   4.806   0.423
52077SOL    HW158070   4.878   4.818   0.508
52077SOL    HW258071   4.978   4.730   0.435
52078SOL     OW58072   5.004   6.387  12.344
52078SOL    HW158073   4.999   6.381  12.249
52078SOL    HW258074   5.080   6.333  12.367
52079SOL     OW58075   8.305   5.496   8.706
52079SOL    HW158076   8.261   5.506   8.790
52079SOL    HW258077   8.353   5.578   8.694
52080SOL     OW58078   2.367   8.729   3.511
52080SOL    HW158079   2.392   8.656   3.567
52080SOL    HW258080   2.403   8.707   3.425
52081SOL     OW58081   0.410   0.322  10.637
52081SOL    HW158082   0.463   0.333  10.558
52081SOL    HW258083   0.463   0.361  10.707
52082SOL     OW58084   0.244   2.109   4.505
52082SOL    HW158085   0.335   2.081   4.509
52082SOL    HW258086   0.211   2.099   4.594
52083SOL     OW58087  11.574   4.941   0.441
52083SOL    HW158088  11.558   4.866   0.498
52083SOL    HW258089  11.594   5.013   0.500
52084SOL     OW58090   4.345   7.231   9.793
52084SOL    HW158091   4.348   7.228   9.698
52084SOL    HW258092   4.304   7.315   9.814
52085SOL     OW58093   2.444   6.089   3.941
52085SOL    HW158094   2.431   6.019   4.004
52085SOL    HW258095   2.377   6.075   3.874
52086SOL     OW58096   9.456   1.600   5.782
52086SOL    HW158097   9.372   1.557   5.769
52086SOL    HW258098   9.510   1.569   5.708
52087SOL     OW58099   8.974   3.951  11.410
52087SOL    HW158100   8.977   3.862  11.374
52087SOL    HW258101   8.954   4.006  11.335
52088SOL     OW58102   3.713   8.840  13.283
52088SOL    HW158103   3.676   8.753  13.265
52088SOL    HW258104   3.802   8.836  13.247
52089SOL     OW58105   6.381   7.803   2.254
52089SOL    HW158106   6.318   7.869   2.223
52089SOL    HW258107   6.385   7.739   2.183
52090SOL     OW58108   6.128   6.747   4.992
52090SOL    HW158109   6.163   6.743   4.903
52090SOL    HW258110   6.085   6.663   5.005
52091SOL     OW58111   7.603   1.158  14.529
52091SOL    HW158112   7.588   1.193  14.617
52091SOL    HW258113   7.606   1.063  14.541
52092SOL     OW58114   4.429  10.688   3.993
52092SOL    HW158115   4.340  10.716   3.974
52092SOL    HW258116   4.467  10.669   3.908
52093SOL     OW58117   2.276  14.749   6.358
52093SOL    HW158118   2.203  14.769   6.300
52093SOL    HW258119   2.258  14.659   6.388
52094SOL     OW58120   6.907  14.293   3.669
52094SOL    HW158121   6.850  14.265   3.597
52094SOL    HW258122   6.995  14.269   3.640
52095SOL     OW58123  11.129  11.475   6.906
52095SOL    HW158124  11.208  11.431   6.935
52095SOL    HW258125  11.145  11.568   6.924
52096SOL     OW58126   8.263  10.787  14.863
52096SOL    HW158127   8.240  10.872   0.027
52096SOL    HW258128   8.330  10.752   0.049
52097SOL     OW58129  12.158   5.870  12.162
52097SOL    HW158130  12.251   5.871  12.185
52097SOL    HW258131  12.136   5.961  12.145
52098SOL     OW58132  10.998  14.343  13.963
52098SOL    HW158133  11.040  14.408  13.907
52098SOL    HW258134  10.988  14.386  14.048
52099SOL     OW58135   4.952   1.035  13.489
52099SOL    HW158136   4.916   1.093  13.422
52099SOL    HW258137   5.044   1.025  13.464
52100SOL     OW58138  14.181  11.592   4.903
52100SOL    HW158139  14.088  11.611   4.921
52100SOL    HW258140  14.202  11.520   4.962
52101SOL     OW58141  11.956  12.381  11.063
52101SOL    HW158142  11.963  12.342  10.975
52101SOL    HW258143  12.045  12.377  11.098
52102SOL     OW58144   9.060  14.209   4.321
52102SOL    HW158145   9.068  14.143   4.390
52102SOL    HW258146   9.055  14.158   4.240
52103SOL     OW58147  13.852   6.460   3.502
52103SOL    HW158148  13.878   6.408   3.579
52103SOL    HW258149  13.896   6.418   3.429
52104SOL     OW58150   7.010  10.283   9.927
52104SOL    HW158151   7.098  10.312   9.952
52104SOL    HW258152   7.024  10.196   9.888
52105SOL     OW58153   7.933   9.289   1.493
52105SOL    HW158154   7.901   9.287   1.403
52105SOL    HW258155   8.028   9.276   1.485
52106SOL     OW58156   1.883  13.947   5.872
52106SOL    HW158157   1.799  13.992   5.873
52106SOL    HW258158   1.863  13.858   5.901
52107SOL     OW58159  13.822   0.769  13.810
52107SOL    HW158160  13.772   0.837  13.856
52107SOL    HW258161  13.895   0.817  13.769
52108SOL     OW58162   1.478  14.088  10.255
52108SOL    HW158163   1.471  14.030  10.331
52108SOL    HW258164   1.535  14.159  10.284
52109SOL     OW58165   4.641  14.098   5.382
52109SOL    HW158166   4.605  14.086   5.294
52109SOL    HW258167   4.695  14.177   5.376
52110SOL     OW58168   5.391  14.146  11.029
52110SOL    HW158169   5.324  14.175  11.090
52110SOL    HW258170   5.466  14.123  11.084
52111SOL     OW58171  13.619   8.618   3.561
52111SOL    HW158172  13.643   8.676   3.489
52111SOL    HW258173  13.701   8.574   3.584
52112SOL     OW58174   9.012   4.465  13.030
52112SOL    HW158175   9.010   4.560  13.024
52112SOL    HW258176   9.102   4.444  13.053
52113SOL     OW58177  13.277   2.579   2.151
52113SOL    HW158178  13.313   2.635   2.082
52113SOL    HW258179  13.300   2.490   2.123
52114SOL     OW58180   7.169  14.587  14.675
52114SOL    HW158181   7.172  14.491  14.679
52114SOL    HW258182   7.180  14.608  14.582
52115SOL     OW58183   4.030   1.483   2.006
52115SOL    HW158184   4.052   1.475   1.913
52115SOL    HW258185   3.951   1.537   2.007
52116SOL     OW58186  13.043  11.288  14.440
52116SOL    HW158187  13.126  11.303  14.394
52116SOL    HW258188  13.064  11.223  14.507
52117SOL     OW58189  11.811   5.479   6.148
52117SOL    HW158190  11.809   5.434   6.063
52117SOL    HW258191  11.736   5.444   6.196
52118SOL     OW58192   6.333  11.381   6.343
52118SOL    HW158193   6.239  11.402   6.350
52118SOL    HW258194   6.340  11.292   6.378
52119SOL     OW58195   1.014   7.470   8.002
52119SOL    HW158196   1.015   7.376   7.986
52119SOL    HW258197   0.944   7.504   7.946
52120SOL     OW58198   8.505   7.240   0.822
52120SOL    HW158199   8.444   7.266   0.891
52120SOL    HW258200   8.539   7.323   0.788
52121SOL     OW58201   3.311   2.229  12.894
52121SOL    HW158202   3.357   2.187  12.821
52121SOL    HW258203   3.290   2.158  12.954
52122SOL     OW58204   4.741   9.580   9.953
52122SOL    HW158205   4.779   9.667   9.968
52122SOL    HW258206   4.768   9.529  10.030
52123SOL     OW58207   8.402   7.468   5.408
52123SOL    HW158208   8.385   7.374   5.420
52123SOL    HW258209   8.466   7.489   5.476
52124SOL     OW58210   9.815   5.917  13.394
52124SOL    HW158211   9.764   5.974  13.337
52124SOL    HW258212   9.842   5.845  13.337
52125SOL     OW58213  14.634   7.054   7.659
52125SOL    HW158214  14.717   7.011   7.641
52125SOL    HW258215  14.659   7.139   7.697
52126SOL     OW58216   6.036   5.391  14.189
52126SOL    HW158217   6.069   5.422  14.105
52126SOL    HW258218   6.058   5.460  14.251
52127SOL     OW58219  11.995   6.928  13.013
52127SOL    HW158220  11.963   6.916  13.103
52127SOL    HW258221  12.088   6.908  13.018
52128SOL     OW58222   5.685   2.125   7.141
52128SOL    HW158223   5.702   2.047   7.193
52128SOL    HW258224   5.626   2.096   7.072
52129SOL     OW58225   6.294   1.822  11.525
52129SOL    HW158226   6.311   1.729  11.513
52129SOL    HW258227   6.232   1.827  11.597
52130SOL     OW58228   3.498  12.029   3.647
52130SOL    HW158229   3.462  12.054   3.732
52130SOL    HW258230   3.453  11.947   3.625
52131SOL     OW58231  12.805   2.148  11.909
52131SOL    HW158232  12.721   2.111  11.937
52131SOL    HW258233  12.787   2.187  11.824
52132SOL     OW58234   9.129   5.910  10.910
52132SOL    HW158235   9.159   5.820  10.898
52132SOL    HW258236   9.034   5.905  10.906
52133SOL     OW58237   1.474  12.008  11.912
52133SOL    HW158238   1.395  11.965  11.946
52133SOL    HW258239   1.473  11.988  11.818
52134SOL     OW58240  13.966   5.514  13.881
52134SOL    HW158241  13.945   5.568  13.957
52134SOL    HW258242  13.906   5.440  13.886
52135SOL     OW58243   8.161   3.373  10.714
52135SOL    HW158244   8.166   3.440  10.646
52135SOL    HW258245   8.133   3.420  10.792
52136SOL     OW58246   5.902   2.336   2.845
52136SOL    HW158247   5.826   2.322   2.789
52136SOL    HW258248   5.871   2.311   2.933
52137SOL     OW58249   0.781   5.366   2.016
52137SOL    HW158250   0.845   5.302   1.986
52137SOL    HW258251   0.735   5.394   1.936
52138SOL     OW58252   0.766  13.151  11.484
52138SOL    HW158253   0.707  13.225  11.497
52138SOL    HW258254   0.794  13.128  11.572
52139SOL     OW58255   3.606  11.726   8.923
52139SOL    HW158256   3.571  11.811   8.950
52139SOL    HW258257   3.537  11.663   8.946
52140SOL     OW58258  13.182  12.681   3.396
52140SOL    HW158259  13.159  12.665   3.305
52140SOL    HW258260  13.204  12.594   3.431
52141SOL     OW58261   5.505   7.501  12.828
52141SOL    HW158262   5.529   7.542  12.745
52141SOL    HW258263   5.415   7.472  12.816
52142SOL     OW58264   7.964  11.180   1.972
52142SOL    HW158265   7.877  11.196   2.006
52142SOL    HW258266   7.952  11.113   1.904
52143SOL     OW58267   0.051   8.335  12.263
52143SOL    HW158268   0.123   8.284  12.299
52143SOL    HW258269   0.066   8.335  12.168
52144SOL     OW58270   5.692   1.702  10.176
52144SOL    HW158271   5.660   1.755  10.103
52144SOL    HW258272   5.614   1.682  10.228
52145SOL     OW58273   6.998   9.127  13.382
52145SOL    HW158274   7.074   9.116  13.325
52145SOL    HW258275   6.952   9.044  13.379
52146SOL     OW58276   2.961   9.585   4.609
52146SOL    HW158277   2.892   9.519   4.599
52146SOL    HW258278   2.915   9.661   4.646
52147SOL     OW58279   6.516  11.889   0.719
52147SOL    HW158280   6.520  11.835   0.640
52147SOL    HW258281   6.607  11.894   0.749
52148SOL     OW58282   7.474  14.766   3.603
52148SOL    HW158283   7.467  14.832   3.671
52148SOL    HW258284   7.455  14.812   3.522
52149SOL     OW58285   9.463  12.355   0.813
52149SOL    HW158286   9.385  12.392   0.854
52149SOL    HW258287   9.428  12.291   0.750
52150SOL     OW58288   7.188   6.824   4.192
52150SOL    HW158289   7.153   6.887   4.256
52150SOL    HW258290   7.280   6.847   4.183
52151SOL     OW58291  14.516   5.488  10.406
52151SOL    HW158292  14.572   5.514  10.333
52151SOL    HW258293  14.571   5.432  10.461
52152SOL     OW58294   2.386   0.896   8.297
52152SOL    HW158295   2.318   0.835   8.325
52152SOL    HW258296   2.358   0.982   8.330
52153SOL     OW58297   2.966  13.495   0.078
52153SOL    HW158298   2.907  13.557   0.037
52153SOL    HW258299   2.955  13.510   0.172
52154SOL     OW58300  11.993  14.429   4.191
52154SOL    HW158301  12.071  14.484   4.186
52154SOL    HW258302  11.941  14.466   4.262
52155SOL     OW58303   8.406  14.193  10.232
52155SOL    HW158304   8.335  14.228  10.286
52155SOL    HW258305   8.396  14.098  10.238
52156SOL     OW58306   7.038   5.314  11.560
52156SOL    HW158307   7.107   5.259  11.522
52156SOL    HW258308   6.981   5.253  11.606
52157SOL     OW58309  11.544  13.265   4.959
52157SOL    HW158310  11.463  13.226   4.926
52157SOL    HW258311  11.560  13.340   4.902
52158SOL     OW58312   6.549   5.750  13.563
52158SOL    HW158313   6.528   5.774  13.473
52158SOL    HW258314   6.643   5.764  13.570
52159SOL     OW58315   8.363   9.284   9.977
52159SOL    HW158316   8.325   9.357   9.928
52159SOL    HW258317   8.456   9.305   9.982
52160SOL     OW58318   4.549   4.617   4.004
52160SOL    HW158319   4.471   4.604   3.950
52160SOL    HW258320   4.517   4.615   4.094
52161SOL     OW58321   0.337   0.902   3.104
52161SOL    HW158322   0.288   0.947   3.171
52161SOL    HW258323   0.410   0.860   3.151
52162SOL     OW58324  14.608  13.553  11.552
52162SOL    HW158325  14.623  13.465  11.517
52162SOL    HW258326  14.524  13.579  11.516
52163SOL     OW58327   5.009   6.159  13.514
52163SOL    HW158328   5.052   6.243  13.497
52163SOL    HW258329   5.066   6.116  13.578
52164SOL     OW58330  10.278  13.006   7.736
52164SOL    HW158331  10.223  13.076   7.770
52164SOL    HW258332  10.342  12.989   7.805
52165SOL     OW58333   1.497   0.172   6.224
52165SOL    HW158334   1.588   0.199   6.221
52165SOL    HW258335   1.451   0.234   6.168
52166SOL     OW58336  11.425   4.968   1.872
52166SOL    HW158337  11.401   5.061   1.876
52166SOL    HW258338  11.520   4.968   1.883
52167SOL     OW58339   9.143  12.410   6.011
52167SOL    HW158340   9.186  12.420   6.095
52167SOL    HW258341   9.183  12.331   5.973
52168SOL     OW58342   7.351  14.702   9.626
52168SOL    HW158343   7.286  14.657   9.681
52168SOL    HW258344   7.299  14.750   9.562
52169SOL     OW58345   9.855  10.847   2.211
52169SOL    HW158346   9.910  10.769   2.215
52169SOL    HW258347   9.787  10.826   2.147
52170SOL     OW58348  11.236   2.448   6.648
52170SOL    HW158349  11.165   2.434   6.585
52170SOL    HW258350  11.193   2.478   6.728
52171SOL     OW58351   5.796   8.951   9.581
52171SOL    HW158352   5.725   8.905   9.627
52171SOL    HW258353   5.776   9.044   9.593
52172SOL     OW58354   3.010   2.803  12.426
52172SOL    HW158355   2.938   2.853  12.388
52172SOL    HW258356   3.064   2.868  12.470
52173SOL     OW58357  14.762   1.180  13.577
52173SOL    HW158358  14.692   1.172  13.641
52173SOL    HW258359  14.840   1.147  13.622
52174SOL     OW58360   5.343  12.523  10.045
52174SOL    HW158361   5.382  12.610  10.041
52174SOL    HW258362   5.280  12.522   9.973
52175SOL     OW58363  14.186  12.169   5.778
52175SOL    HW158364  14.096  12.136   5.770
52175SOL    HW258365  14.219  12.127   5.858
52176SOL     OW58366  13.337  12.883   9.085
52176SOL    HW158367  13.256  12.838   9.109
52176SOL    HW258368  13.403  12.813   9.081
52177SOL     OW58369  12.382  11.686   7.307
52177SOL    HW158370  12.333  11.628   7.248
52177SOL    HW258371  12.332  11.684   7.388
52178SOL     OW58372   5.982   1.770   3.848
52178SOL    HW158373   5.937   1.828   3.786
52178SOL    HW258374   5.988   1.686   3.803
52179SOL     OW58375  14.370   5.171   0.276
52179SOL    HW158376  14.330   5.252   0.246
52179SOL    HW258377  14.320   5.102   0.233
52180SOL     OW58378   4.361   3.694   7.027
52180SOL    HW158379   4.360   3.765   7.091
52180SOL    HW258380   4.269   3.668   7.019
52181SOL     OW58381   6.291   0.296   9.627
52181SOL    HW158382   6.218   0.358   9.637
52181SOL    HW258383   6.275   0.230   9.694
52182SOL     OW58384   5.209   9.136   6.485
52182SOL    HW158385   5.167   9.136   6.399
52182SOL    HW258386   5.291   9.088   6.472
52183SOL     OW58387   5.446   2.060  10.167
52183SOL    HW158388   5.408   2.119  10.102
52183SOL    HW258389   5.468   2.117  10.241
52184SOL     OW58390   6.343   2.104   2.290
52184SOL    HW158391   6.257   2.105   2.333
52184SOL    HW258392   6.331   2.045   2.215
52185SOL     OW58393   8.185   4.357   6.861
52185SOL    HW158394   8.238   4.277   6.857
52185SOL    HW258395   8.230   4.419   6.804
52186SOL     OW58396   0.178  13.825   7.146
52186SOL    HW158397   0.252  13.860   7.196
52186SOL    HW258398   0.218  13.767   7.081
52187SOL     OW58399   6.521  10.529   9.898
52187SOL    HW158400   6.520  10.597   9.830
52187SOL    HW258401   6.434  10.489   9.893
52188SOL     OW58402   3.056  13.002   2.754
52188SOL    HW158403   2.989  12.977   2.691
52188SOL    HW258404   3.121  12.932   2.750
52189SOL     OW58405   0.611   4.086  11.285
52189SOL    HW158406   0.592   4.014  11.224
52189SOL    HW258407   0.633   4.160  11.228
52190SOL     OW58408   6.481  11.477   5.470
52190SOL    HW158409   6.469  11.570   5.485
52190SOL    HW258410   6.407  11.435   5.514
52191SOL     OW58411   6.893   3.545   0.401
52191SOL    HW158412   6.873   3.491   0.324
52191SOL    HW258413   6.807   3.573   0.433
52192SOL     OW58414   1.385  11.678   1.083
52192SOL    HW158415   1.337  11.603   1.119
52192SOL    HW258416   1.472  11.672   1.123
52193SOL     OW58417  14.637   9.886   7.624
52193SOL    HW158418  14.659   9.939   7.547
52193SOL    HW258419  14.722   9.858   7.659
52194SOL     OW58420  10.781  11.251   4.540
52194SOL    HW158421  10.761  11.158   4.530
52194SOL    HW258422  10.751  11.291   4.459
52195SOL     OW58423   3.289   8.883   6.725
52195SOL    HW158424   3.366   8.916   6.771
52195SOL    HW258425   3.223   8.872   6.794
52196SOL     OW58426   6.805   4.471   3.221
52196SOL    HW158427   6.802   4.396   3.161
52196SOL    HW258428   6.883   4.519   3.194
52197SOL     OW58429  10.718  10.014  14.562
52197SOL    HW158430  10.739  10.001  14.654
52197SOL    HW258431  10.692   9.927  14.531
52198SOL     OW58432   5.820   1.683  11.930
52198SOL    HW158433   5.842   1.702  12.021
52198SOL    HW258434   5.784   1.766  11.896
52199SOL     OW58435   6.717   4.665   6.515
52199SOL    HW158436   6.718   4.752   6.553
52199SOL    HW258437   6.808   4.648   6.490
52200SOL     OW58438   3.801  14.713   4.973
52200SOL    HW158439   3.756  14.779   4.920
52200SOL    HW258440   3.753  14.713   5.056
52201SOL     OW58441   9.701   2.224   9.580
52201SOL    HW158442   9.750   2.196   9.657
52201SOL    HW258443   9.768   2.251   9.516
52202SOL     OW58444   7.084   8.731   4.091
52202SOL    HW158445   7.135   8.802   4.053
52202SOL    HW258446   7.130   8.707   4.171
52203SOL     OW58447   2.905   9.486   5.003
52203SOL    HW158448   2.865   9.571   5.023
52203SOL    HW258449   2.924   9.447   5.088
52204SOL     OW58450   0.692   8.889   5.577
52204SOL    HW158451   0.732   8.972   5.603
52204SOL    HW258452   0.656   8.854   5.658
52205SOL     OW58453   5.213   6.898   4.204
52205SOL    HW158454   5.220   6.842   4.126
52205SOL    HW258455   5.176   6.841   4.271
52206SOL     OW58456  11.923  10.196   5.991
52206SOL    HW158457  11.839  10.240   6.005
52206SOL    HW258458  11.965  10.246   5.920
52207SOL     OW58459   6.900  10.390   0.224
52207SOL    HW158460   6.835  10.368   0.157
52207SOL    HW258461   6.984  10.376   0.182
52208SOL     OW58462  12.070   2.511  14.116
52208SOL    HW158463  12.115   2.446  14.170
52208SOL    HW258464  12.028   2.569  14.179
52209SOL     OW58465   5.232   7.732   3.013
52209SOL    HW158466   5.221   7.725   3.108
52209SOL    HW258467   5.327   7.740   3.001
52210SOL     OW58468   7.714  10.862  14.693
52210SOL    HW158469   7.717  10.876  14.599
52210SOL    HW258470   7.724  10.949  14.731
52211SOL     OW58471  14.248   9.073   0.373
52211SOL    HW158472  14.318   9.118   0.420
52211SOL    HW258473  14.244   8.986   0.412
52212SOL     OW58474   6.078   6.899   8.052
52212SOL    HW158475   6.130   6.859   8.121
52212SOL    HW258476   6.137   6.963   8.011
52213SOL     OW58477   7.371  11.603   7.085
52213SOL    HW158478   7.284  11.631   7.060
52213SOL    HW258479   7.376  11.512   7.056
52214SOL     OW58480  10.236   9.098   9.759
52214SOL    HW158481  10.270   9.045   9.831
52214SOL    HW258482  10.211   9.181   9.800
52215SOL     OW58483   5.725   0.086   5.839
52215SOL    HW158484   5.787   0.034   5.889
52215SOL    HW258485   5.651   0.028   5.823
52216SOL     OW58486   2.842   1.633  10.839
52216SOL    HW158487   2.808   1.606  10.924
52216SOL    HW258488   2.928   1.670  10.859
52217SOL     OW58489   0.373   9.869  12.016
52217SOL    HW158490   0.450   9.816  11.994
52217SOL    HW258491   0.406   9.935  12.078
52218SOL     OW58492   3.129  11.372   4.323
52218SOL    HW158493   3.192  11.381   4.394
52218SOL    HW258494   3.178  11.398   4.245
52219SOL     OW58495   9.537   7.259  13.209
52219SOL    HW158496   9.630   7.282  13.222
52219SOL    HW258497   9.532   7.166  13.229
52220SOL     OW58498  12.015   7.983   9.917
52220SOL    HW158499  12.090   7.990   9.858
52220SOL    HW258500  12.035   8.042   9.990
52221SOL     OW58501  14.465  13.040   2.379
52221SOL    HW158502  14.554  13.024   2.411
52221SOL    HW258503  14.464  13.002   2.291
52222SOL     OW58504   9.519  11.136   5.923
52222SOL    HW158505   9.442  11.176   5.883
52222SOL    HW258506   9.484  11.082   5.995
52223SOL     OW58507   7.206  14.100   5.946
52223SOL    HW158508   7.252  14.150   6.014
52223SOL    HW258509   7.202  14.160   5.871
52224SOL     OW58510   8.314  10.148   9.777
52224SOL    HW158511   8.258  10.176   9.705
52224SOL    HW258512   8.403  10.165   9.746
52225SOL     OW58513  11.883   8.788  10.249
52225SOL    HW158514  11.952   8.764  10.310
52225SOL    HW258515  11.862   8.879  10.271
52226SOL     OW58516   8.609   9.252  11.252
52226SOL    HW158517   8.564   9.174  11.219
52226SOL    HW258518   8.626   9.305  11.175
52227SOL     OW58519  12.801   8.534  11.605
52227SOL    HW158520  12.842   8.590  11.538
52227SOL    HW258521  12.826   8.574  11.688
52228SOL     OW58522   2.452  10.353   9.058
52228SOL    HW158523   2.519  10.345   8.990
52228SOL    HW258524   2.407  10.268   9.057
52229SOL     OW58525  10.615  14.113  14.321
52229SOL    HW158526  10.607  14.136  14.228
52229SOL    HW258527  10.564  14.180  14.367
52230SOL     OW58528  11.251   4.760   5.674
52230SOL    HW158529  11.318   4.826   5.663
52230SOL    HW258530  11.234   4.727   5.586
52231SOL     OW58531   6.606  11.901   7.323
52231SOL    HW158532   6.685  11.914   7.271
52231SOL    HW258533   6.636  11.905   7.414
52232SOL     OW58534  14.841   8.361   1.459
52232SOL    HW158535   0.037   8.423   1.435
52232SOL    HW258536  14.852   8.289   1.398
52233SOL     OW58537   3.875   3.931   2.506
52233SOL    HW158538   3.940   4.001   2.504
52233SOL    HW258539   3.793   3.976   2.529
52234SOL     OW58540   7.756  11.449   8.671
52234SOL    HW158541   7.838  11.497   8.661
52234SOL    HW258542   7.692  11.500   8.622
52235SOL     OW58543   7.970  12.232   2.503
52235SOL    HW158544   7.896  12.180   2.535
52235SOL    HW258545   7.972  12.308   2.562
52236SOL     OW58546   5.222  12.030   7.312
52236SOL    HW158547   5.150  12.073   7.266
52236SOL    HW258548   5.211  11.937   7.292
52237SOL     OW58549   5.256   3.438   2.317
52237SOL    HW158550   5.325   3.378   2.289
52237SOL    HW258551   5.303   3.511   2.358
52238SOL     OW58552   2.719  14.193  14.380
52238SOL    HW158553   2.805  14.227  14.406
52238SOL    HW258554   2.738  14.132  14.309
52239SOL     OW58555  11.600   9.356  13.935
52239SOL    HW158556  11.681   9.393  13.900
52239SOL    HW258557  11.566   9.423  13.994
52240SOL     OW58558   9.916   6.603  11.039
52240SOL    HW158559   9.869   6.647  11.110
52240SOL    HW258560   9.848   6.571  10.981
52241SOL     OW58561   1.076   8.080  13.151
52241SOL    HW158562   1.030   8.123  13.224
52241SOL    HW258563   1.057   8.136  13.075
52242SOL     OW58564   0.927   5.909  10.008
52242SOL    HW158565   0.906   5.921   9.916
52242SOL    HW258566   0.926   5.997  10.045
52243SOL     OW58567  13.794  14.706   6.456
52243SOL    HW158568  13.781  14.777   6.393
52243SOL    HW258569  13.797  14.750   6.541
52244SOL     OW58570   9.339  13.060  14.296
52244SOL    HW158571   9.314  13.117  14.369
52244SOL    HW258572   9.270  13.072  14.231
52245SOL     OW58573   0.178  11.216   4.487
52245SOL    HW158574   0.262  11.173   4.498
52245SOL    HW258575   0.157  11.206   4.394
52246SOL     OW58576  14.665  12.349   3.967
52246SOL    HW158577  14.636  12.300   3.890
52246SOL    HW258578  14.659  12.287   4.039
52247SOL     OW58579   3.557   0.063  13.922
52247SOL    HW158580   3.512  14.869  13.871
52247SOL    HW258581   3.486   0.112  13.964
52248SOL     OW58582  12.494   3.516  10.350
52248SOL    HW158583  12.531   3.591  10.397
52248SOL    HW258584  12.413   3.496  10.397
52249SOL     OW58585  12.664   9.682   6.434
52249SOL    HW158586  12.698   9.758   6.387
52249SOL    HW258587  12.586   9.656   6.384
52250SOL     OW58588   3.923  10.268  10.756
52250SOL    HW158589   3.857  10.304  10.697
52250SOL    HW258590   3.874  10.208  10.813
52251SOL     OW58591  10.704   5.588   4.829
52251SOL    HW158592  10.672   5.520   4.770
52251SOL    HW258593  10.780   5.625   4.785
52252SOL     OW58594  14.734   0.020   0.141
52252SOL    HW158595  14.707   0.109   0.121
52252SOL    HW258596  14.657  14.840   0.122
52253SOL     OW58597  11.197   9.839   4.180
52253SOL    HW158598  11.216   9.933   4.180
52253SOL    HW258599  11.255   9.803   4.113
52254SOL     OW58600   4.280  14.470   6.965
52254SOL    HW158601   4.317  14.557   6.951
52254SOL    HW258602   4.356  14.412   6.975
52255SOL     OW58603   9.126   4.693   0.912
52255SOL    HW158604   9.172   4.660   0.835
52255SOL    HW258605   9.092   4.614   0.955
52256SOL     OW58606  14.570   1.645   4.086
52256SOL    HW158607  14.653   1.667   4.043
52256SOL    HW258608  14.542   1.564   4.043
52257SOL     OW58609   4.354   2.073  13.198
52257SOL    HW158610   4.292   2.019  13.149
52257SOL    HW258611   4.395   2.012  13.260
52258SOL     OW58612  14.227  12.425   7.374
52258SOL    HW158613  14.232  12.337   7.411
52258SOL    HW258614  14.194  12.479   7.446
52259SOL     OW58615  11.711   3.447  12.173
52259SOL    HW158616  11.748   3.502  12.105
52259SOL    HW258617  11.624   3.424  12.141
52260SOL     OW58618  14.129  14.067  10.017
52260SOL    HW158619  14.173  14.004  10.074
52260SOL    HW258620  14.146  14.152  10.058
52261SOL     OW58621   7.522   6.385   4.505
52261SOL    HW158622   7.527   6.304   4.556
52261SOL    HW258623   7.503   6.357   4.416
52262SOL     OW58624  14.782   1.325   9.023
52262SOL    HW158625  14.807   1.269   8.950
52262SOL    HW258626  14.836   1.295   9.096
52263SOL     OW58627  14.111   5.131  11.327
52263SOL    HW158628  14.132   5.222  11.309
52263SOL    HW258629  14.192   5.094  11.361
52264SOL     OW58630   0.295  12.139   1.081
52264SOL    HW158631   0.214  12.181   1.053
52264SOL    HW258632   0.362  12.174   1.023
52265SOL     OW58633   6.334   9.427   3.449
52265SOL    HW158634   6.285   9.386   3.520
52265SOL    HW258635   6.298   9.387   3.370
52266SOL     OW58636   9.710  11.242   0.881
52266SOL    HW158637   9.628  11.283   0.855
52266SOL    HW258638   9.707  11.155   0.840
52267SOL     OW58639   2.089   3.159  11.572
52267SOL    HW158640   2.046   3.224  11.628
52267SOL    HW258641   2.042   3.078  11.590
52268SOL     OW58642   1.228  10.559  14.698
52268SOL    HW158643   1.279  10.637  14.722
52268SOL    HW258644   1.284  10.511  14.638
52269SOL     OW58645   8.779  11.951  12.612
52269SOL    HW158646   8.700  12.000  12.633
52269SOL    HW258647   8.823  11.940  12.696
52270SOL     OW58648   8.152   0.941   9.350
52270SOL    HW158649   8.095   1.011   9.319
52270SOL    HW258650   8.096   0.888   9.407
52271SOL     OW58651  10.476   3.565   3.919
52271SOL    HW158652  10.384   3.571   3.946
52271SOL    HW258653  10.483   3.626   3.845
52272SOL     OW58654   7.695   5.050   3.890
52272SOL    HW158655   7.685   5.035   3.796
52272SOL    HW258656   7.628   4.995   3.931
52273SOL     OW58657   9.505   9.167  12.059
52273SOL    HW158658   9.538   9.079  12.079
52273SOL    HW258659   9.462   9.195  12.140
52274SOL     OW58660   6.069   7.038  14.143
52274SOL    HW158661   5.977   7.064  14.145
52274SOL    HW258662   6.108   7.090  14.073
52275SOL     OW58663   3.295   7.028   3.007
52275SOL    HW158664   3.232   7.020   3.079
52275SOL    HW258665   3.380   7.015   3.049
52276SOL     OW58666   3.972  12.904   1.628
52276SOL    HW158667   4.055  12.891   1.583
52276SOL    HW258668   3.996  12.939   1.713
52277SOL     OW58669   5.269   2.852  10.808
52277SOL    HW158670   5.342   2.799  10.841
52277SOL    HW258671   5.306   2.902  10.736
52278SOL     OW58672  12.487  10.434  12.883
52278SOL    HW158673  12.541  10.513  12.884
52278SOL    HW258674  12.408  10.460  12.835
52279SOL     OW58675   5.074   9.844   2.328
52279SOL    HW158676   5.047   9.791   2.403
52279SOL    HW258677   5.140   9.904   2.364
52280SOL     OW58678   4.565   0.699   1.452
52280SOL    HW158679   4.653   0.667   1.472
52280SOL    HW258680   4.560   0.784   1.498
52281SOL     OW58681   1.891   7.848   6.574
52281SOL    HW158682   1.826   7.917   6.559
52281SOL    HW258683   1.859   7.801   6.651
52282SOL     OW58684   0.713   1.758  12.281
52282SOL    HW158685   0.788   1.746  12.339
52282SOL    HW258686   0.728   1.695  12.210
52283SOL     OW58687   7.305   4.011   5.866
52283SOL    HW158688   7.225   3.958   5.867
52283SOL    HW258689   7.279   4.093   5.825
52284SOL     OW58690  11.029  12.976   8.633
52284SOL    HW158691  11.011  12.886   8.662
52284SOL    HW258692  10.942  13.014   8.620
52285SOL     OW58693  12.422   7.014  12.032
52285SOL    HW158694  12.361   7.088  12.026
52285SOL    HW258695  12.431   6.999  12.126
52286SOL     OW58696   9.740  10.319  12.599
52286SOL    HW158697   9.785  10.402  12.615
52286SOL    HW258698   9.752  10.269  12.680
52287SOL     OW58699  10.943   7.340  14.002
52287SOL    HW158700  11.033   7.368  13.988
52287SOL    HW258701  10.945   7.245  13.993
52288SOL     OW58702  13.474   7.490  11.990
52288SOL    HW158703  13.393   7.503  12.039
52288SOL    HW258704  13.445   7.479  11.899
52289SOL     OW58705  12.293   4.473   3.878
52289SOL    HW158706  12.323   4.390   3.914
52289SOL    HW258707  12.198   4.469   3.883
52290SOL     OW58708  13.779   3.478   9.096
52290SOL    HW158709  13.726   3.554   9.121
52290SOL    HW258710  13.719   3.404   9.097
52291SOL     OW58711   8.703   0.486   5.799
52291SOL    HW158712   8.687   0.540   5.876
52291SOL    HW258713   8.671   0.539   5.726
52292SOL     OW58714   9.695   6.123   6.968
52292SOL    HW158715   9.739   6.158   7.045
52292SOL    HW258716   9.718   6.183   6.898
52293SOL     OW58717   6.336  10.643  14.820
52293SOL    HW158718   6.393  10.716  14.845
52293SOL    HW258719   6.325  10.652  14.725
52294SOL     OW58720   6.203   5.344  11.642
52294SOL    HW158721   6.196   5.251  11.662
52294SOL    HW258722   6.297   5.361  11.638
52295SOL     OW58723   3.315  12.322   3.760
52295SOL    HW158724   3.309  12.376   3.839
52295SOL    HW258725   3.242  12.352   3.705
52296SOL     OW58726   6.235   5.870  12.287
52296SOL    HW158727   6.279   5.851  12.370
52296SOL    HW258728   6.148   5.901  12.312
52297SOL     OW58729   4.232   1.168   5.521
52297SOL    HW158730   4.245   1.073   5.521
52297SOL    HW258731   4.311   1.203   5.563
52298SOL     OW58732   7.248  12.970   6.678
52298SOL    HW158733   7.250  12.890   6.625
52298SOL    HW258734   7.258  12.940   6.768
52299SOL     OW58735   0.230   5.845   1.462
52299SOL    HW158736   0.245   5.879   1.374
52299SOL    HW258737   0.315   5.811   1.490
52300SOL     OW58738   0.192   1.935  11.241
52300SOL    HW158739   0.215   2.006  11.182
52300SOL    HW258740   0.096   1.935  11.243
52301SOL     OW58741   7.215   3.935   1.080
52301SOL    HW158742   7.306   3.923   1.054
52301SOL    HW258743   7.168   3.865   1.035
52302SOL     OW58744   6.062  13.206   2.940
52302SOL    HW158745   6.104  13.235   2.859
52302SOL    HW258746   5.969  13.199   2.917
52303SOL     OW58747   4.179   4.544   5.179
52303SOL    HW158748   4.273   4.564   5.170
52303SOL    HW258749   4.177   4.464   5.231
52304SOL     OW58750  14.585   0.024  12.744
52304SOL    HW158751  14.637  14.854  12.676
52304SOL    HW258752  14.649   0.044  12.813
52305SOL     OW58753  10.448  14.658  12.066
52305SOL    HW158754  10.445  14.705  11.983
52305SOL    HW258755  10.538  14.671  12.098
52306SOL     OW58756   2.193   2.761   9.486
52306SOL    HW158757   2.131   2.738   9.556
52306SOL    HW258758   2.141   2.814   9.425
52307SOL     OW58759   1.738   0.624   6.536
52307SOL    HW158760   1.680   0.680   6.588
52307SOL    HW258761   1.747   0.670   6.452
52308SOL     OW58762  13.306  11.571  13.079
52308SOL    HW158763  13.357  11.495  13.052
52308SOL    HW258764  13.320  11.577  13.174
52309SOL     OW58765   7.082  11.500   8.163
52309SOL    HW158766   7.046  11.411   8.152
52309SOL    HW258767   7.151  11.507   8.097
52310SOL     OW58768   8.979   1.781   3.106
52310SOL    HW158769   8.991   1.793   3.011
52310SOL    HW258770   8.969   1.870   3.140
52311SOL     OW58771   2.905   3.502   2.720
52311SOL    HW158772   2.886   3.557   2.796
52311SOL    HW258773   2.846   3.428   2.728
52312SOL     OW58774   0.824  12.409  13.510
52312SOL    HW158775   0.877  12.472  13.461
52312SOL    HW258776   0.751  12.460  13.543
52313SOL     OW58777   8.657  13.497   0.609
52313SOL    HW158778   8.654  13.436   0.536
52313SOL    HW258779   8.617  13.449   0.682
52314SOL     OW58780   1.434   0.889   2.784
52314SOL    HW158781   1.443   0.928   2.697
52314SOL    HW258782   1.346   0.915   2.813
52315SOL     OW58783  11.984   7.118   0.128
52315SOL    HW158784  12.018   7.157   0.208
52315SOL    HW258785  11.999   7.184   0.060
52316SOL     OW58786   0.914   9.455  13.990
52316SOL    HW158787   0.905   9.445  13.895
52316SOL    HW258788   0.994   9.408  14.012
52317SOL     OW58789   4.247  13.197   0.760
52317SOL    HW158790   4.312  13.134   0.730
52317SOL    HW258791   4.286  13.283   0.742
52318SOL     OW58792   9.027   4.657   6.877
52318SOL    HW158793   9.074   4.577   6.853
52318SOL    HW258794   9.089   4.705   6.932
52319SOL     OW58795  13.701  12.607  10.030
52319SOL    HW158796  13.635  12.613   9.961
52319SOL    HW258797  13.669  12.539  10.089
52320SOL     OW58798   1.563   5.858  14.565
52320SOL    HW158799   1.528   5.919  14.629
52320SOL    HW258800   1.514   5.777  14.578
52321SOL     OW58801  10.406   4.919   9.835
52321SOL    HW158802  10.492   4.891   9.867
52321SOL    HW258803  10.375   4.982   9.901
52322SOL     OW58804  14.592  13.025   5.415
52322SOL    HW158805  14.593  13.060   5.326
52322SOL    HW258806  14.677  12.983   5.426
52323SOL     OW58807  12.399   9.691   7.228
52323SOL    HW158808  12.369   9.653   7.145
52323SOL    HW258809  12.428   9.616   7.280
52324SOL     OW58810   9.503  11.940  12.545
52324SOL    HW158811   9.439  12.010  12.534
52324SOL    HW258812   9.463  11.881  12.609
52325SOL     OW58813   5.471   5.306   6.806
52325SOL    HW158814   5.422   5.367   6.750
52325SOL    HW258815   5.425   5.223   6.797
52326SOL     OW58816  13.068   5.445   8.370
52326SOL    HW158817  13.105   5.371   8.323
52326SOL    HW258818  13.142   5.503   8.386
52327SOL     OW58819   6.909   5.551   4.511
52327SOL    HW158820   6.817   5.552   4.485
52327SOL    HW258821   6.907   5.533   4.605
52328SOL     OW58822   6.217   6.782   6.710
52328SOL    HW158823   6.188   6.819   6.794
52328SOL    HW258824   6.295   6.833   6.687
52329SOL     OW58825   7.890   3.897  14.696
52329SOL    HW158826   7.857   3.895  14.786
52329SOL    HW258827   7.838   3.964  14.653
52330SOL     OW58828  11.030   6.364  10.604
52330SOL    HW158829  10.936   6.347  10.616
52330SOL    HW258830  11.060   6.396  10.689
52331SOL     OW58831   4.859   7.077   4.721
52331SOL    HW158832   4.819   7.101   4.637
52331SOL    HW258833   4.851   6.982   4.724
52332SOL     OW58834   4.980  14.525  11.934
52332SOL    HW158835   5.031  14.539  11.854
52332SOL    HW258836   4.890  14.542  11.908
52333SOL     OW58837   7.374   9.562   8.592
52333SOL    HW158838   7.463   9.563   8.556
52333SOL    HW258839   7.329   9.493   8.543
52334SOL     OW58840   0.286   8.421  10.553
52334SOL    HW158841   0.245   8.496  10.511
52334SOL    HW258842   0.376   8.421  10.520
52335SOL     OW58843   2.720  11.718  12.874
52335SOL    HW158844   2.721  11.704  12.779
52335SOL    HW258845   2.786  11.785  12.890
52336SOL     OW58846  13.632   5.650   4.014
52336SOL    HW158847  13.716   5.615   3.983
52336SOL    HW258848  13.657   5.727   4.066
52337SOL     OW58849   2.212   5.256   4.167
52337SOL    HW158850   2.229   5.346   4.195
52337SOL    HW258851   2.124   5.259   4.130
52338SOL     OW58852   4.877   5.207  14.438
52338SOL    HW158853   4.928   5.196  14.518
52338SOL    HW258854   4.906   5.136  14.381
52339SOL     OW58855  13.499  14.700   7.465
52339SOL    HW158856  13.449  14.780   7.449
52339SOL    HW258857  13.469  14.639   7.397
52340SOL     OW58858   2.825   8.970  10.733
52340SOL    HW158859   2.809   9.029  10.807
52340SOL    HW258860   2.913   8.936  10.748
52341SOL     OW58861   4.605  10.169  10.268
52341SOL    HW158862   4.665  10.236  10.234
52341SOL    HW258863   4.542  10.218  10.321
52342SOL     OW58864  10.088  11.637  11.353
52342SOL    HW158865  10.173  11.641  11.396
52342SOL    HW258866  10.073  11.544  11.335
52343SOL     OW58867   2.600   0.911   9.785
52343SOL    HW158868   2.604   0.893   9.691
52343SOL    HW258869   2.527   0.973   9.794
52344SOL     OW58870   7.552   1.886  11.794
52344SOL    HW158871   7.625   1.948  11.801
52344SOL    HW258872   7.552   1.840  11.878
52345SOL     OW58873  11.607   0.553   3.926
52345SOL    HW158874  11.648   0.590   3.848
52345SOL    HW258875  11.513   0.563   3.910
52346SOL     OW58876   2.056   8.367   1.517
52346SOL    HW158877   2.131   8.426   1.505
52346SOL    HW258878   2.094   8.283   1.542
52347SOL     OW58879   0.395   2.034  10.467
52347SOL    HW158880   0.471   1.980  10.488
52347SOL    HW258881   0.322   1.990  10.512
52348SOL     OW58882  12.287  10.445  13.298
52348SOL    HW158883  12.228  10.379  13.337
52348SOL    HW258884  12.332  10.484  13.373
52349SOL     OW58885  10.364  11.543  10.088
52349SOL    HW158886  10.364  11.562  10.182
52349SOL    HW258887  10.294  11.479  10.076
52350SOL     OW58888  13.165   6.526   5.150
52350SOL    HW158889  13.174   6.439   5.188
52350SOL    HW258890  13.254   6.553   5.130
52351SOL     OW58891   6.279   1.442   4.072
52351SOL    HW158892   6.319   1.526   4.091
52351SOL    HW258893   6.185   1.458   4.080
52352SOL     OW58894   5.341   0.021   0.970
52352SOL    HW158895   5.360  14.814   0.921
52352SOL    HW258896   5.410   0.082   0.944
52353SOL     OW58897  11.328  14.064  14.705
52353SOL    HW158898  11.275  14.015  14.642
52353SOL    HW258899  11.265  14.099  14.768
52354SOL     OW58900  13.651   1.789   2.526
52354SOL    HW158901  13.705   1.857   2.568
52354SOL    HW258902  13.699   1.708   2.541
52355SOL     OW58903  11.860  10.429   8.884
52355SOL    HW158904  11.860  10.389   8.971
52355SOL    HW258905  11.794  10.498   8.888
52356SOL     OW58906  10.471   6.485   6.310
52356SOL    HW158907  10.525   6.564   6.302
52356SOL    HW258908  10.381   6.516   6.301
52357SOL     OW58909  10.878   8.588  10.076
52357SOL    HW158910  10.798   8.627  10.042
52357SOL    HW258911  10.901   8.642  10.152
52358SOL     OW58912   9.585   3.257  11.372
52358SOL    HW158913   9.680   3.247  11.380
52358SOL    HW258914   9.568   3.254  11.278
52359SOL     OW58915   8.685   5.205  10.016
52359SOL    HW158916   8.750   5.153  10.064
52359SOL    HW258917   8.735   5.250   9.948
52360SOL     OW58918  12.451   0.861   3.214
52360SOL    HW158919  12.452   0.834   3.122
52360SOL    HW258920  12.535   0.904   3.227
52361SOL     OW58921   7.719   5.576   3.620
52361SOL    HW158922   7.640   5.558   3.671
52361SOL    HW258923   7.695   5.651   3.564
52362SOL     OW58924   1.131  11.614   1.377
52362SOL    HW158925   1.214  11.569   1.396
52362SOL    HW258926   1.074  11.591   1.450
52363SOL     OW58927   0.138   1.071  13.797
52363SOL    HW158928   0.220   1.086  13.843
52363SOL    HW258929   0.105   1.159  13.777
52364SOL     OW58930  11.249   0.049   9.186
52364SOL    HW158931  11.222  14.847   9.134
52364SOL    HW258932  11.341   0.034   9.205
52365SOL     OW58933   9.881  14.655   3.101
52365SOL    HW158934   9.882  14.728   3.162
52365SOL    HW258935   9.867  14.578   3.157
52366SOL     OW58936  13.571   6.336   3.732
52366SOL    HW158937  13.534   6.402   3.790
52366SOL    HW258938  13.639   6.293   3.784
52367SOL     OW58939  14.352   2.270   1.310
52367SOL    HW158940  14.304   2.335   1.259
52367SOL    HW258941  14.444   2.286   1.290
52368SOL     OW58942  13.511   4.896  14.505
52368SOL    HW158943  13.460   4.913  14.426
52368SOL    HW258944  13.462   4.939  14.575
52369SOL     OW58945   1.443   4.988  12.900
52369SOL    HW158946   1.516   4.991  12.838
52369SOL    HW258947   1.443   4.899  12.933
52370SOL     OW58948   1.363   1.234   4.760
52370SOL    HW158949   1.292   1.239   4.696
52370SOL    HW258950   1.320   1.250   4.844
52371SOL     OW58951   6.036   3.164   2.755
52371SOL    HW158952   6.071   3.222   2.822
52371SOL    HW258953   6.066   3.077   2.781
52372SOL     OW58954  13.272  10.264   6.840
52372SOL    HW158955  13.263  10.308   6.925
52372SOL    HW258956  13.182  10.253   6.809
52373SOL     OW58957   5.982   1.911   9.449
52373SOL    HW158958   5.977   1.816   9.432
52373SOL    HW258959   5.931   1.923   9.529
52374SOL     OW58960   4.911  14.090   4.613
52374SOL    HW158961   4.900  14.026   4.542
52374SOL    HW258962   4.902  14.175   4.569
52375SOL     OW58963  13.756  11.149   7.411
52375SOL    HW158964  13.810  11.070   7.423
52375SOL    HW258965  13.667  11.121   7.430
52376SOL     OW58966  11.141   8.673  14.083
52376SOL    HW158967  11.161   8.683  13.990
52376SOL    HW258968  11.108   8.584  14.091
52377SOL     OW58969   2.634  10.835  13.919
52377SOL    HW158970   2.690  10.764  13.887
52377SOL    HW258971   2.646  10.834  14.013
52378SOL     OW58972   3.901  13.034   9.557
52378SOL    HW158973   3.870  12.943   9.557
52378SOL    HW258974   3.879  13.067   9.644
52379SOL     OW58975  12.337  12.703   7.652
52379SOL    HW158976  12.331  12.701   7.557
52379SOL    HW258977  12.334  12.611   7.678
52380SOL     OW58978   3.321   4.992   6.678
52380SOL    HW158979   3.304   5.082   6.706
52380SOL    HW258980   3.269   4.982   6.598
52381SOL     OW58981   0.045  10.031   1.189
52381SOL    HW158982   0.025  10.125   1.185
52381SOL    HW258983  14.839   9.988   1.157
52382SOL     OW58984  12.011   0.252   2.741
52382SOL    HW158985  11.919   0.248   2.766
52382SOL    HW258986  12.057   0.208   2.812
52383SOL     OW58987  12.543   4.740  11.134
52383SOL    HW158988  12.634   4.766  11.145
52383SOL    HW258989  12.499   4.771  11.213
52384SOL     OW58990  10.159   4.272   4.244
52384SOL    HW158991  10.195   4.315   4.166
52384SOL    HW258992  10.166   4.338   4.313
52385SOL     OW58993   4.838  12.322   9.110
52385SOL    HW158994   4.834  12.402   9.163
52385SOL    HW258995   4.911  12.337   9.051
52386SOL     OW58996  11.010   9.651  10.916
52386SOL    HW158997  11.104   9.651  10.935
52386SOL    HW258998  10.998   9.576  10.857
52387SOL     OW58999  12.585  12.384   9.714
52387SOL    HW159000  12.626  12.298   9.715
52387SOL    HW259001  12.492  12.367   9.698
52388SOL     OW59002  14.242   0.510   4.746
52388SOL    HW159003  14.155   0.493   4.783
52388SOL    HW259004  14.232   0.489   4.653
52389SOL     OW59005   0.025  14.137  13.189
52389SOL    HW159006  14.841  14.079  13.140
52389SOL    HW259007  14.845  14.215  13.206
52390SOL     OW59008   3.617   4.900  10.783
52390SOL    HW159009   3.644   4.817  10.743
52390SOL    HW259010   3.673   4.966  10.744
52391SOL     OW59011   9.311  10.679   0.847
52391SOL    HW159012   9.367  10.687   0.770
52391SOL    HW259013   9.236  10.735   0.828
52392SOL     OW59014  10.122  14.105   9.468
52392SOL    HW159015  10.032  14.075   9.454
52392SOL    HW259016  10.112  14.195   9.499
52393SOL     OW59017   1.544  13.799   1.177
52393SOL    HW159018   1.492  13.874   1.148
52393SOL    HW259019   1.505  13.724   1.132
52394SOL     OW59020  13.929  14.576   5.908
52394SOL    HW159021  13.882  14.617   5.836
52394SOL    HW259022  14.021  14.598   5.892
52395SOL     OW59023  11.106   6.004   0.815
52395SOL    HW159024  11.128   6.083   0.766
52395SOL    HW259025  11.038   6.032   0.877
52396SOL     OW59026  13.342   6.519  14.427
52396SOL    HW159027  13.423   6.545  14.383
52396SOL    HW259028  13.360   6.532  14.520
52397SOL     OW59029   2.919   6.582   1.592
52397SOL    HW159030   2.948   6.667   1.560
52397SOL    HW259031   2.952   6.520   1.526
52398SOL     OW59032   3.017   2.416  10.229
52398SOL    HW159033   3.095   2.394  10.279
52398SOL    HW259034   2.947   2.423  10.294
52399SOL     OW59035  13.427   2.645   2.428
52399SOL    HW159036  13.420   2.602   2.343
52399SOL    HW259037  13.519   2.634   2.453
52400SOL     OW59038   7.682   7.935  14.264
52400SOL    HW159039   7.737   7.972  14.195
52400SOL    HW259040   7.705   7.984  14.343
52401SOL     OW59041  11.853   8.456   3.755
52401SOL    HW159042  11.825   8.547   3.757
52401SOL    HW259043  11.787   8.412   3.700
52402SOL     OW59044  14.479  10.279  10.231
52402SOL    HW159045  14.520  10.307  10.313
52402SOL    HW259046  14.422  10.206  10.256
52403SOL     OW59047  12.661   3.965   4.280
52403SOL    HW159048  12.738   3.929   4.324
52403SOL    HW259049  12.607   4.000   4.351
52404SOL     OW59050   9.104  11.224  12.273
52404SOL    HW159051   9.049  11.301  12.289
52404SOL    HW259052   9.086  11.166  12.347
52405SOL     OW59053   0.791   7.596   5.549
52405SOL    HW159054   0.705   7.634   5.529
52405SOL    HW259055   0.800   7.606   5.644
52406SOL     OW59056   8.871  10.028  14.215
52406SOL    HW159057   8.941  10.003  14.276
52406SOL    HW259058   8.917  10.055  14.135
52407SOL     OW59059   3.099   9.066   8.948
52407SOL    HW159060   3.165   9.117   8.901
52407SOL    HW259061   3.146   9.027   9.021
52408SOL     OW59062  10.231   4.806   0.703
52408SOL    HW159063  10.273   4.740   0.648
52408SOL    HW259064  10.163   4.844   0.646
52409SOL     OW59065   4.264  10.469  13.690
52409SOL    HW159066   4.229  10.520  13.617
52409SOL    HW259067   4.193  10.467  13.754
52410SOL     OW59068   2.894  13.946   0.272
52410SOL    HW159069   2.957  13.927   0.203
52410SOL    HW259070   2.809  13.938   0.230
52411SOL     OW59071   6.557  12.805   2.505
52411SOL    HW159072   6.590  12.719   2.529
52411SOL    HW259073   6.609  12.867   2.557
52412SOL     OW59074   3.873   4.529   9.974
52412SOL    HW159075   3.875   4.547  10.068
52412SOL    HW259076   3.864   4.434   9.969
52413SOL     OW59077  13.805   8.429   8.255
52413SOL    HW159078  13.819   8.421   8.349
52413SOL    HW259079  13.725   8.379   8.238
52414SOL     OW59080   3.314   7.290   8.622
52414SOL    HW159081   3.265   7.240   8.556
52414SOL    HW259082   3.252   7.355   8.655
52415SOL     OW59083  11.535   9.105   5.085
52415SOL    HW159084  11.572   9.165   5.021
52415SOL    HW259085  11.484   9.161   5.143
52416SOL     OW59086   9.395   0.010   3.006
52416SOL    HW159087   9.363   0.100   3.001
52416SOL    HW259088   9.466   0.012   3.071
52417SOL     OW59089   2.124   7.005   4.401
52417SOL    HW159090   2.189   7.072   4.421
52417SOL    HW259091   2.167   6.947   4.339
52418SOL     OW59092  12.833  13.019  12.218
52418SOL    HW159093  12.849  12.934  12.178
52418SOL    HW259094  12.749  13.009  12.262
52419SOL     OW59095   0.790   5.125  11.854
52419SOL    HW159096   0.859   5.190  11.863
52419SOL    HW259097   0.718   5.172  11.812
52420SOL     OW59098   0.316   6.770   5.443
52420SOL    HW159099   0.377   6.834   5.481
52420SOL    HW259100   0.302   6.706   5.513
52421SOL     OW59101   9.275   3.036   7.368
52421SOL    HW159102   9.292   2.944   7.347
52421SOL    HW259103   9.338   3.085   7.314
52422SOL     OW59104  11.831   5.143  14.866
52422SOL    HW159105  11.764   5.099   0.047
52422SOL    HW259106  11.785   5.215  14.824
52423SOL     OW59107   4.336   1.285   6.694
52423SOL    HW159108   4.272   1.285   6.766
52423SOL    HW259109   4.319   1.367   6.647
52424SOL     OW59110  13.059   2.944   3.027
52424SOL    HW159111  13.035   2.948   3.119
52424SOL    HW259112  13.024   3.024   2.989
52425SOL     OW59113   2.936   7.050   9.511
52425SOL    HW159114   2.966   7.083   9.596
52425SOL    HW259115   2.845   7.025   9.526
52426SOL     OW59116  11.297   3.801   4.357
52426SOL    HW159117  11.360   3.831   4.292
52426SOL    HW259118  11.327   3.713   4.381
52427SOL     OW59119  11.989  13.017   8.290
52427SOL    HW159120  12.044  13.093   8.310
52427SOL    HW259121  11.980  13.018   8.195
52428SOL     OW59122   8.569  14.229  11.804
52428SOL    HW159123   8.618  14.311  11.810
52428SOL    HW259124   8.595  14.180  11.881
52429SOL     OW59125   6.888  10.070   5.047
52429SOL    HW159126   6.908  10.049   4.956
52429SOL    HW259127   6.811  10.017   5.068
52430SOL     OW59128   9.076   3.099  14.711
52430SOL    HW159129   9.124   3.134  14.637
52430SOL    HW259130   9.139   3.044  14.758
52431SOL     OW59131   5.138   4.557   5.364
52431SOL    HW159132   5.104   4.468   5.376
52431SOL    HW259133   5.097   4.607   5.435
52432SOL     OW59134   9.414  11.417  11.765
52432SOL    HW159135   9.384  11.506  11.782
52432SOL    HW259136   9.351  11.361  11.811
52433SOL     OW59137   5.209   7.939   1.684
52433SOL    HW159138   5.270   7.967   1.753
52433SOL    HW259139   5.146   7.883   1.729
52434SOL     OW59140   6.972   7.041   0.107
52434SOL    HW159141   7.021   7.080   0.179
52434SOL    HW259142   6.994   6.948   0.111
52435SOL     OW59143   0.998  12.789  11.537
52435SOL    HW159144   0.997  12.766  11.630
52435SOL    HW259145   1.009  12.706  11.492
52436SOL     OW59146  13.096   8.501  13.620
52436SOL    HW159147  13.071   8.412  13.596
52436SOL    HW259148  13.038   8.557  13.569
52437SOL     OW59149  11.879  11.477   0.507
52437SOL    HW159150  11.850  11.524   0.585
52437SOL    HW259151  11.808  11.488   0.444
52438SOL     OW59152  13.575  12.025  14.533
52438SOL    HW159153  13.670  12.019  14.529
52438SOL    HW259154  13.546  12.009  14.443
52439SOL     OW59155   3.963   3.333  13.710
52439SOL    HW159156   3.929   3.328  13.799
52439SOL    HW259157   3.905   3.277  13.658
52440SOL     OW59158   6.179   6.095   9.720
52440SOL    HW159159   6.197   6.177   9.767
52440SOL    HW259160   6.092   6.107   9.684
52441SOL     OW59161   5.257  12.201  10.887
52441SOL    HW159162   5.179  12.145  10.885
52441SOL    HW259163   5.270  12.219  10.981
52442SOL     OW59164  11.721   0.262   9.179
52442SOL    HW159165  11.791   0.318   9.147
52442SOL    HW259166  11.688   0.218   9.100
52443SOL     OW59167  12.878  12.790   9.793
52443SOL    HW159168  12.844  12.762   9.708
52443SOL    HW259169  12.858  12.717   9.852
52444SOL     OW59170   1.411   1.577   0.232
52444SOL    HW159171   1.322   1.567   0.266
52444SOL    HW259172   1.411   1.664   0.191
52445SOL     OW59173   2.549  14.105   1.916
52445SOL    HW159174   2.502  14.033   1.957
52445SOL    HW259175   2.490  14.180   1.923
52446SOL     OW59176  13.466   2.513  12.158
52446SOL    HW159177  13.466   2.583  12.093
52446SOL    HW259178  13.537   2.537  12.218
52447SOL     OW59179   4.926  10.103   8.205
52447SOL    HW159180   4.908  10.074   8.295
52447SOL    HW259181   4.959  10.026   8.160
52448SOL     OW59182  13.015   5.057  10.967
52448SOL    HW159183  13.110   5.069  10.979
52448SOL    HW259184  13.008   4.978  10.914
52449SOL     OW59185   4.970   4.186  13.943
52449SOL    HW159186   4.991   4.127  13.871
52449SOL    HW259187   5.042   4.175  14.005
52450SOL     OW59188  10.836   2.573   2.138
52450SOL    HW159189  10.799   2.508   2.077
52450SOL    HW259190  10.903   2.619   2.087
52451SOL     OW59191   8.976  12.713  11.088
52451SOL    HW159192   9.049  12.771  11.107
52451SOL    HW259193   8.959  12.725  10.995
52452SOL     OW59194   2.454   3.333  12.475
52452SOL    HW159195   2.481   3.420  12.503
52452SOL    HW259196   2.520   3.306  12.412
52453SOL     OW59197   7.864   2.339  11.007
52453SOL    HW159198   7.947   2.342  10.959
52453SOL    HW259199   7.889   2.359  11.098
52454SOL     OW59200   8.768   9.817  13.661
52454SOL    HW159201   8.726   9.786  13.580
52454SOL    HW259202   8.862   9.812  13.642
52455SOL     OW59203   1.259   5.748   9.224
52455SOL    HW159204   1.247   5.693   9.302
52455SOL    HW259205   1.321   5.699   9.170
52456SOL     OW59206   6.709  13.479   9.445
52456SOL    HW159207   6.630  13.532   9.455
52456SOL    HW259208   6.677  13.389   9.434
52457SOL     OW59209  11.078   2.715   9.650
52457SOL    HW159210  11.006   2.651   9.649
52457SOL    HW259211  11.126   2.698   9.569
52458SOL     OW59212   7.155   7.247  14.100
52458SOL    HW159213   7.240   7.271  14.062
52458SOL    HW259214   7.146   7.154  14.081
52459SOL     OW59215   5.329   4.463  11.556
52459SOL    HW159216   5.260   4.397  11.557
52459SOL    HW259217   5.363   4.461  11.466
52460SOL     OW59218  13.364   1.176   5.726
52460SOL    HW159219  13.436   1.217   5.775
52460SOL    HW259220  13.397   1.089   5.704
52461SOL     OW59221   1.731   2.466   5.886
52461SOL    HW159222   1.710   2.383   5.927
52461SOL    HW259223   1.729   2.447   5.792
52462SOL     OW59224  14.294   7.642  11.216
52462SOL    HW159225  14.366   7.594  11.257
52462SOL    HW259226  14.234   7.574  11.186
52463SOL     OW59227  14.421  11.476   1.518
52463SOL    HW159228  14.381  11.426   1.447
52463SOL    HW259229  14.374  11.560   1.517
52464SOL     OW59230   1.027  12.976  10.173
52464SOL    HW159231   0.967  12.999  10.101
52464SOL    HW259232   1.110  13.015  10.148
52465SOL     OW59233   2.671  14.698  13.737
52465SOL    HW159234   2.598  14.703  13.799
52465SOL    HW259235   2.698  14.606  13.739
52466SOL     OW59236   8.787  10.152   3.465
52466SOL    HW159237   8.730  10.206   3.519
52466SOL    HW259238   8.793  10.199   3.382
52467SOL     OW59239  14.542  13.638   7.369
52467SOL    HW159240  14.497  13.695   7.308
52467SOL    HW259241  14.506  13.661   7.455
52468SOL     OW59242   8.284   8.358   3.547
52468SOL    HW159243   8.274   8.429   3.611
52468SOL    HW259244   8.214   8.373   3.484
52469SOL     OW59245  14.053   0.026   5.900
52469SOL    HW159246  14.106  14.820   5.891
52469SOL    HW259247  14.111   0.097   5.870
52470SOL     OW59248  11.037   8.258   0.485
52470SOL    HW159249  10.988   8.196   0.539
52470SOL    HW259250  11.077   8.204   0.417
52471SOL     OW59251  14.205  14.607   8.235
52471SOL    HW159252  14.295  14.626   8.262
52471SOL    HW259253  14.178  14.536   8.292
52472SOL     OW59254   0.566   7.868   6.372
52472SOL    HW159255   0.656   7.845   6.393
52472SOL    HW259256   0.573   7.946   6.316
52473SOL     OW59257  14.169   4.079   9.749
52473SOL    HW159258  14.082   4.115   9.764
52473SOL    HW259259  14.195   4.113   9.663
52474SOL     OW59260   0.787  11.793  14.638
52474SOL    HW159261   0.852  11.729  14.609
52474SOL    HW259262   0.808  11.810  14.730
52475SOL     OW59263   1.271   4.193   2.739
52475SOL    HW159264   1.348   4.247   2.722
52475SOL    HW259265   1.302   4.127   2.801
52476SOL     OW59266  11.899   7.647  12.381
52476SOL    HW159267  11.953   7.713  12.339
52476SOL    HW259268  11.839   7.617  12.313
52477SOL     OW59269   9.064  14.829   6.327
52477SOL    HW159270   9.135  14.766   6.317
52477SOL    HW259271   9.033  14.817   6.416
52478SOL     OW59272  13.475   7.780   0.967
52478SOL    HW159273  13.407   7.801   0.903
52478SOL    HW259274  13.554   7.821   0.932
52479SOL     OW59275   8.985   4.196   5.559
52479SOL    HW159276   8.972   4.107   5.594
52479SOL    HW259277   8.898   4.225   5.533
52480SOL     OW59278   8.128  11.054   3.713
52480SOL    HW159279   8.086  11.140   3.718
52480SOL    HW259280   8.064  10.994   3.751
52481SOL     OW59281   2.274   7.369   5.520
52481SOL    HW159282   2.231   7.452   5.541
52481SOL    HW259283   2.286   7.327   5.605
52482SOL     OW59284   8.937   0.482   6.772
52482SOL    HW159285   8.972   0.393   6.781
52482SOL    HW259286   9.014   0.536   6.755
52483SOL     OW59287   6.820  11.015   0.665
52483SOL    HW159288   6.734  11.042   0.698
52483SOL    HW259289   6.835  11.073   0.590
52484SOL     OW59290   7.830   1.221  11.709
52484SOL    HW159291   7.908   1.173  11.683
52484SOL    HW259292   7.814   1.282  11.636
52485SOL     OW59293  10.507  11.156   6.228
52485SOL    HW159294  10.422  11.142   6.271
52485SOL    HW259295  10.570  11.114   6.287
52486SOL     OW59296  12.957   8.823  11.085
52486SOL    HW159297  12.961   8.812  10.990
52486SOL    HW259298  12.952   8.735  11.120
52487SOL     OW59299   3.408  11.253   2.995
52487SOL    HW159300   3.346  11.179   2.998
52487SOL    HW259301   3.464  11.240   3.072
52488SOL     OW59302  10.087  14.817  10.991
52488SOL    HW159303  10.116  14.744  10.936
52488SOL    HW259304  10.060  14.777  11.073
52489SOL     OW59305   8.731   3.437  13.926
52489SOL    HW159306   8.768   3.428  13.838
52489SOL    HW259307   8.654   3.380  13.925
52490SOL     OW59308   3.605   6.740   1.772
52490SOL    HW159309   3.592   6.690   1.853
52490SOL    HW259310   3.631   6.675   1.707
52491SOL     OW59311  13.616  10.854  12.351
52491SOL    HW159312  13.620  10.779  12.410
52491SOL    HW259313  13.560  10.917  12.396
52492SOL     OW59314  12.720   5.432   0.435
52492SOL    HW159315  12.762   5.489   0.371
52492SOL    HW259316  12.789   5.411   0.497
52493SOL     OW59317  13.136  14.167  10.618
52493SOL    HW159318  13.203  14.216  10.666
52493SOL    HW259319  13.087  14.121  10.686
52494SOL     OW59320   4.587  10.318   9.085
52494SOL    HW159321   4.622  10.335   8.997
52494SOL    HW259322   4.665  10.315   9.141
52495SOL     OW59323   4.745  10.693   6.052
52495SOL    HW159324   4.820  10.745   6.024
52495SOL    HW259325   4.708  10.659   5.971
52496SOL     OW59326   9.987   7.813  12.537
52496SOL    HW159327  10.001   7.906  12.552
52496SOL    HW259328   9.991   7.774  12.625
52497SOL     OW59329  14.485   4.412   2.835
52497SOL    HW159330  14.438   4.440   2.757
52497SOL    HW259331  14.569   4.380   2.802
52498SOL     OW59332  14.156  13.223  10.718
52498SOL    HW159333  14.079  13.166  10.710
52498SOL    HW259334  14.225  13.174  10.673
52499SOL     OW59335   8.011   9.151   2.961
52499SOL    HW159336   7.975   9.177   3.046
52499SOL    HW259337   8.022   9.233   2.913
52500SOL     OW59338   0.295  13.666   6.445
52500SOL    HW159339   0.374  13.622   6.413
52500SOL    HW259340   0.320  13.758   6.454
52501SOL     OW59341   9.032  13.110  12.731
52501SOL    HW159342   9.049  13.023  12.766
52501SOL    HW259343   9.116  13.155  12.734
52502SOL     OW59344   1.506   6.710   1.267
52502SOL    HW159345   1.484   6.801   1.250
52502SOL    HW259346   1.466   6.661   1.195
52503SOL     OW59347   9.043  11.841   8.295
52503SOL    HW159348   8.991  11.842   8.215
52503SOL    HW259349   8.999  11.901   8.354
52504SOL     OW59350   1.131   0.083   8.769
52504SOL    HW159351   1.108   0.067   8.677
52504SOL    HW259352   1.047   0.106   8.811
52505SOL     OW59353   6.238  14.060   8.510
52505SOL    HW159354   6.327  14.047   8.477
52505SOL    HW259355   6.229  13.996   8.581
52506SOL     OW59356  14.305  12.983   3.104
52506SOL    HW159357  14.223  13.003   3.149
52506SOL    HW259358  14.373  13.003   3.169
52507SOL     OW59359  14.872   4.310   8.061
52507SOL    HW159360  14.791   4.356   8.081
52507SOL    HW259361   0.067   4.378   8.065
52508SOL     OW59362   2.275  14.500   3.298
52508SOL    HW159363   2.314  14.511   3.211
52508SOL    HW259364   2.314  14.420   3.333
52509SOL     OW59365  11.469   1.087  14.415
52509SOL    HW159366  11.409   1.027  14.459
52509SOL    HW259367  11.411   1.143  14.363
52510SOL     OW59368   1.849   6.693   1.740
52510SOL    HW159369   1.912   6.711   1.809
52510SOL    HW259370   1.831   6.599   1.748
52511SOL     OW59371   7.500  12.235   4.113
52511SOL    HW159372   7.429  12.177   4.141
52511SOL    HW259373   7.580  12.188   4.137
52512SOL     OW59374   4.814   9.349   7.267
52512SOL    HW159375   4.798   9.348   7.361
52512SOL    HW259376   4.896   9.399   7.257
52513SOL     OW59377  10.402  10.015   2.181
52513SOL    HW159378  10.336  10.080   2.159
52513SOL    HW259379  10.444   9.993   2.098
52514SOL     OW59380  14.844   0.597   3.383
52514SOL    HW159381  14.856   0.505   3.407
52514SOL    HW259382   0.027   0.609   3.306
52515SOL     OW59383  12.643   0.646   1.749
52515SOL    HW159384  12.659   0.713   1.815
52515SOL    HW259385  12.629   0.694   1.667
52516SOL     OW59386  11.976  13.150   4.598
52516SOL    HW159387  11.900  13.194   4.635
52516SOL    HW259388  11.951  13.134   4.506
52517SOL     OW59389  10.235  14.203   5.993
52517SOL    HW159390  10.317  14.252   5.998
52517SOL    HW259391  10.261  14.112   6.006
52518SOL     OW59392  12.514   6.361  13.171
52518SOL    HW159393  12.520   6.273  13.208
52518SOL    HW259394  12.428   6.364  13.130
52519SOL     OW59395  14.178  10.998   8.025
52519SOL    HW159396  14.087  11.021   8.041
52519SOL    HW259397  14.221  11.008   8.110
52520SOL     OW59398  13.792   2.282   1.336
52520SOL    HW159399  13.743   2.281   1.418
52520SOL    HW259400  13.881   2.260   1.361
52521SOL     OW59401   5.925   4.146   4.575
52521SOL    HW159402   5.916   4.225   4.522
52521SOL    HW259403   5.947   4.178   4.662
52522SOL     OW59404   3.318   6.399  11.942
52522SOL    HW159405   3.308   6.468  12.008
52522SOL    HW259406   3.412   6.398  11.922
52523SOL     OW59407  14.721   5.601   6.305
52523SOL    HW159408  14.730   5.524   6.361
52523SOL    HW259409  14.666   5.572   6.233
52524SOL     OW59410   2.478   6.439  11.826
52524SOL    HW159411   2.557   6.485  11.854
52524SOL    HW259412   2.509   6.380  11.757
52525SOL     OW59413   7.320   8.017   1.480
52525SOL    HW159414   7.228   7.993   1.468
52525SOL    HW259415   7.334   8.012   1.575
52526SOL     OW59416  11.989  12.994  10.307
52526SOL    HW159417  12.012  13.083  10.334
52526SOL    HW259418  12.010  12.939  10.382
52527SOL     OW59419   5.669   3.881   6.925
52527SOL    HW159420   5.665   3.791   6.957
52527SOL    HW259421   5.614   3.930   6.986
52528SOL     OW59422  12.038   6.489   4.529
52528SOL    HW159423  12.048   6.455   4.618
52528SOL    HW259424  12.116   6.543   4.516
52529SOL     OW59425   2.053   4.141   6.219
52529SOL    HW159426   2.133   4.193   6.230
52529SOL    HW259427   1.983   4.199   6.249
52530SOL     OW59428   9.509  11.890  11.833
52530SOL    HW159429   9.575  11.832  11.796
52530SOL    HW259430   9.451  11.910  11.760
52531SOL     OW59431  11.198  11.052  14.808
52531SOL    HW159432  11.126  11.049  14.745
52531SOL    HW259433  11.204  10.963  14.842
52532SOL     OW59434   9.976  12.815  11.069
52532SOL    HW159435   9.894  12.769  11.087
52532SOL    HW259436   9.956  12.870  10.993
52533SOL     OW59437   0.367   0.998  10.018
52533SOL    HW159438   0.273   0.978  10.014
52533SOL    HW259439   0.372   1.082  10.063
52534SOL     OW59440  13.358   2.581   6.936
52534SOL    HW159441  13.332   2.643   6.868
52534SOL    HW259442  13.412   2.516   6.891
52535SOL     OW59443   0.065   2.963   7.652
52535SOL    HW159444   0.068   3.054   7.683
52535SOL    HW259445   0.138   2.920   7.698
52536SOL     OW59446   5.988   6.501   7.719
52536SOL    HW159447   5.959   6.410   7.709
52536SOL    HW259448   5.993   6.514   7.814
52537SOL     OW59449  13.238   6.377  11.596
52537SOL    HW159450  13.261   6.354  11.506
52537SOL    HW259451  13.300   6.329  11.651
52538SOL     OW59452   5.542  10.230   7.008
52538SOL    HW159453   5.622  10.184   7.034
52538SOL    HW259454   5.483  10.161   6.978
52539SOL     OW59455   6.006   9.242  13.087
52539SOL    HW159456   5.984   9.179  13.019
52539SOL    HW259457   5.941   9.227  13.156
52540SOL     OW59458  14.807   0.759   3.606
52540SOL    HW159459  14.830   0.686   3.547
52540SOL    HW259460   0.007   0.820   3.599
52541SOL     OW59461   0.440  10.216   6.135
52541SOL    HW159462   0.444  10.288   6.071
52541SOL    HW259463   0.455  10.258   6.220
52542SOL     OW59464  11.561   3.570   5.621
52542SOL    HW159465  11.634   3.509   5.634
52542SOL    HW259466  11.502   3.523   5.561
52543SOL     OW59467  11.282   2.767   5.823
52543SOL    HW159468  11.260   2.809   5.906
52543SOL    HW259469  11.357   2.712   5.842
52544SOL     OW59470  10.379   6.121   1.601
52544SOL    HW159471  10.444   6.119   1.672
52544SOL    HW259472  10.428   6.092   1.524
52545SOL     OW59473   5.905  10.469   1.417
52545SOL    HW159474   5.924  10.550   1.369
52545SOL    HW259475   5.817  10.444   1.389
52546SOL     OW59476   9.822  13.941   6.551
52546SOL    HW159477   9.807  13.857   6.595
52546SOL    HW259478   9.872  13.993   6.614
52547SOL     OW59479   8.597   3.735   8.901
52547SOL    HW159480   8.535   3.807   8.909
52547SOL    HW259481   8.556   3.674   8.840
52548SOL     OW59482   9.478   0.205  14.241
52548SOL    HW159483   9.397   0.158  14.262
52548SOL    HW259484   9.478   0.280  14.301
52549SOL     OW59485  12.423  12.343   9.089
52549SOL    HW159486  12.395  12.362   9.000
52549SOL    HW259487  12.498  12.400   9.104
52550SOL     OW59488   1.610   5.746  11.248
52550SOL    HW159489   1.571   5.763  11.163
52550SOL    HW259490   1.690   5.799  11.248
52551SOL     OW59491   2.709   0.125  11.332
52551SOL    HW159492   2.646   0.059  11.302
52551SOL    HW259493   2.730   0.097  11.421
52552SOL     OW59494   9.721  11.215   2.570
52552SOL    HW159495   9.785  11.282   2.547
52552SOL    HW259496   9.703  11.229   2.663
52553SOL     OW59497  10.581  11.496   2.312
52553SOL    HW159498  10.549  11.458   2.230
52553SOL    HW259499  10.557  11.588   2.307
52554SOL     OW59500  10.687   9.277   6.438
52554SOL    HW159501  10.695   9.183   6.419
52554SOL    HW259502  10.746   9.291   6.513
52555SOL     OW59503   5.455   5.837   7.384
52555SOL    HW159504   5.495   5.878   7.461
52555SOL    HW259505   5.477   5.895   7.312
52556SOL     OW59506   3.437   0.792   9.280
52556SOL    HW159507   3.399   0.790   9.368
52556SOL    HW259508   3.469   0.703   9.266
52557SOL     OW59509   7.991   1.098  14.488
52557SOL    HW159510   8.047   1.129  14.560
52557SOL    HW259511   8.014   1.155  14.414
52558SOL     OW59512  11.043   5.233  14.205
52558SOL    HW159513  10.969   5.181  14.173
52558SOL    HW259514  11.093   5.171  14.259
52559SOL     OW59515   3.665   0.020   9.126
52559SOL    HW159516   3.603  14.833   9.083
52559SOL    HW259517   3.629   0.107   9.108
52560SOL     OW59518   5.550  12.617   2.988
52560SOL    HW159519   5.597  12.554   2.933
52560SOL    HW259520   5.506  12.675   2.925
52561SOL     OW59521  14.628  12.250  10.099
52561SOL    HW159522  14.535  12.259  10.078
52561SOL    HW259523  14.631  12.181  10.165
52562SOL     OW59524   9.315  14.682   5.044
52562SOL    HW159525   9.330  14.602   5.094
52562SOL    HW259526   9.376  14.676   4.970
52563SOL     OW59527  13.893   8.443   4.979
52563SOL    HW159528  13.894   8.474   4.889
52563SOL    HW259529  13.986   8.430   5.001
52564SOL     OW59530   0.564   2.777  10.094
52564SOL    HW159531   0.500   2.804  10.028
52564SOL    HW259532   0.614   2.707  10.051
52565SOL     OW59533   4.160  12.634   2.578
52565SOL    HW159534   4.198  12.570   2.517
52565SOL    HW259535   4.099  12.685   2.525
52566SOL     OW59536   0.336   6.632   3.357
52566SOL    HW159537   0.290   6.583   3.425
52566SOL    HW259538   0.292   6.607   3.275
52567SOL     OW59539   7.225  11.848   7.451
52567SOL    HW159540   7.275  11.767   7.461
52567SOL    HW259541   7.285  11.908   7.407
52568SOL     OW59542   2.109   7.632  14.467
52568SOL    HW159543   2.136   7.563  14.407
52568SOL    HW259544   2.182   7.641  14.528
52569SOL     OW59545  10.111  14.801   9.236
52569SOL    HW159546  10.187  14.848   9.272
52569SOL    HW259547  10.047  14.870   9.217
52570SOL     OW59548   0.430   8.945  12.011
52570SOL    HW159549   0.459   8.880  12.075
52570SOL    HW259550   0.458   9.029  12.048
52571SOL     OW59551  11.266  13.024   8.512
52571SOL    HW159552  11.325  12.970   8.565
52571SOL    HW259553  11.179  13.006   8.548
52572SOL     OW59554  12.433   3.939   6.112
52572SOL    HW159555  12.527   3.959   6.110
52572SOL    HW259556  12.425   3.869   6.176
52573SOL     OW59557   8.636  12.994   6.048
52573SOL    HW159558   8.713  12.990   5.990
52573SOL    HW259559   8.673  13.007   6.135
52574SOL     OW59560   0.938  14.746   6.918
52574SOL    HW159561   0.969  14.744   6.827
52574SOL    HW259562   1.018  14.748   6.970
52575SOL     OW59563  10.930   7.894   5.614
52575SOL    HW159564  11.010   7.946   5.603
52575SOL    HW259565  10.908   7.903   5.706
52576SOL     OW59566   8.172  11.756   5.414
52576SOL    HW159567   8.091  11.805   5.422
52576SOL    HW259568   8.164  11.710   5.331
52577SOL     OW59569  13.122   1.640   0.046
52577SOL    HW159570  13.180   1.573   0.082
52577SOL    HW259571  13.037   1.596   0.037
52578SOL     OW59572   8.959   8.403  11.239
52578SOL    HW159573   8.953   8.483  11.187
52578SOL    HW259574   8.923   8.335  11.184
52579SOL     OW59575   7.394   3.667   6.376
52579SOL    HW159576   7.394   3.739   6.439
52579SOL    HW259577   7.484   3.634   6.377
52580SOL     OW59578   4.809  12.939   1.113
52580SOL    HW159579   4.776  12.865   1.061
52580SOL    HW259580   4.871  12.984   1.055
52581SOL     OW59581   4.772   2.980  12.122
52581SOL    HW159582   4.683   3.009  12.099
52581SOL    HW259583   4.801   2.931  12.046
52582SOL     OW59584   3.469  10.843   4.360
52582SOL    HW159585   3.543  10.802   4.406
52582SOL    HW259586   3.432  10.904   4.423
52583SOL     OW59587   7.125  11.774   2.793
52583SOL    HW159588   7.112  11.751   2.701
52583SOL    HW259589   7.038  11.771   2.832
52584SOL     OW59590   2.987   0.479  13.149
52584SOL    HW159591   2.929   0.466  13.224
52584SOL    HW259592   3.073   0.451  13.180
52585SOL     OW59593   9.844   7.271  11.406
52585SOL    HW159594   9.851   7.270  11.502
52585SOL    HW259595   9.812   7.358  11.385
52586SOL     OW59596   3.609   1.899  14.630
52586SOL    HW159597   3.702   1.882  14.644
52586SOL    HW259598   3.569   1.812  14.622
52587SOL     OW59599  12.532   1.358   9.743
52587SOL    HW159600  12.598   1.423   9.768
52587SOL    HW259601  12.451   1.408   9.733
52588SOL     OW59602   2.700  13.901  11.523
52588SOL    HW159603   2.648  13.834  11.568
52588SOL    HW259604   2.678  13.890  11.430
52589SOL     OW59605   1.010   5.433   8.770
52589SOL    HW159606   0.926   5.475   8.789
52589SOL    HW259607   1.075   5.498   8.795
52590SOL     OW59608  11.987   5.939  12.902
52590SOL    HW159609  12.073   5.942  12.860
52590SOL    HW259610  11.999   5.881  12.977
52591SOL     OW59611   3.582  13.027   1.495
52591SOL    HW159612   3.625  13.047   1.578
52591SOL    HW259613   3.644  12.971   1.449
52592SOL     OW59614  13.202  11.088   5.333
52592SOL    HW159615  13.129  11.045   5.376
52592SOL    HW259616  13.201  11.177   5.367
52593SOL     OW59617   3.858   3.379  10.855
52593SOL    HW159618   3.814   3.463  10.867
52593SOL    HW259619   3.907   3.366  10.937
52594SOL     OW59620  14.207   9.502  13.911
52594SOL    HW159621  14.212   9.567  13.980
52594SOL    HW259622  14.265   9.431  13.940
52595SOL     OW59623   4.586  11.127  11.089
52595SOL    HW159624   4.637  11.046  11.080
52595SOL    HW259625   4.495  11.099  11.081
52596SOL     OW59626  13.799   6.814  13.120
52596SOL    HW159627  13.732   6.808  13.052
52596SOL    HW259628  13.750   6.833  13.200
52597SOL     OW59629   0.408  10.624   7.241
52597SOL    HW159630   0.503  10.612   7.243
52597SOL    HW259631   0.376  10.577   7.318
52598SOL     OW59632   5.365   0.148   8.622
52598SOL    HW159633   5.311   0.078   8.585
52598SOL    HW259634   5.332   0.228   8.581
52599SOL     OW59635  13.277   9.017  10.691
52599SOL    HW159636  13.208   9.018  10.625
52599SOL    HW259637  13.345   9.074  10.655
52600SOL     OW59638   0.240   6.576  12.096
52600SOL    HW159639   0.233   6.498  12.150
52600SOL    HW259640   0.300   6.551  12.026
52601SOL     OW59641   6.239  13.403   6.984
52601SOL    HW159642   6.208  13.436   6.900
52601SOL    HW259643   6.161  13.399   7.039
52602SOL     OW59644  11.099   9.816  12.933
52602SOL    HW159645  11.054   9.838  12.852
52602SOL    HW259646  11.061   9.732  12.960
52603SOL     OW59647   0.728   2.657  10.770
52603SOL    HW159648   0.659   2.608  10.724
52603SOL    HW259649   0.740   2.736  10.718
52604SOL     OW59650   0.122   5.250   3.231
52604SOL    HW159651   0.153   5.212   3.149
52604SOL    HW259652   0.049   5.194   3.257
52605SOL     OW59653   0.173   7.313   4.830
52605SOL    HW159654   0.119   7.237   4.851
52605SOL    HW259655   0.159   7.327   4.737
52606SOL     OW59656  13.466   9.391   9.638
52606SOL    HW159657  13.393   9.451   9.653
52606SOL    HW259658  13.534   9.446   9.600
52607SOL     OW59659   4.969   6.383   1.562
52607SOL    HW159660   4.975   6.313   1.627
52607SOL    HW259661   4.921   6.344   1.489
52608SOL     OW59662   4.787   6.756   6.402
52608SOL    HW159663   4.803   6.778   6.310
52608SOL    HW259664   4.872   6.731   6.436
52609SOL     OW59665  10.853   7.395   2.712
52609SOL    HW159666  10.892   7.311   2.737
52609SOL    HW259667  10.919   7.460   2.736
52610SOL     OW59668   6.023   2.426   4.065
52610SOL    HW159669   6.115   2.407   4.045
52610SOL    HW259670   6.005   2.378   4.146
52611SOL     OW59671   5.244   8.994   9.991
52611SOL    HW159672   5.174   8.975   9.929
52611SOL    HW259673   5.277   9.081   9.965
52612SOL     OW59674   7.633  14.202  11.261
52612SOL    HW159675   7.677  14.120  11.237
52612SOL    HW259676   7.566  14.214  11.194
52613SOL     OW59677  12.287   3.351   6.767
52613SOL    HW159678  12.331   3.421   6.718
52613SOL    HW259679  12.340   3.340   6.846
52614SOL     OW59680   4.680   3.684   6.586
52614SOL    HW159681   4.668   3.735   6.667
52614SOL    HW259682   4.665   3.593   6.612
52615SOL     OW59683   1.179   6.964  12.469
52615SOL    HW159684   1.156   7.031  12.405
52615SOL    HW259685   1.213   6.891  12.417
52616SOL     OW59686   8.039   3.643   5.087
52616SOL    HW159687   8.081   3.588   5.021
52616SOL    HW259688   8.010   3.581   5.154
52617SOL     OW59689   6.519   1.323   3.295
52617SOL    HW159690   6.497   1.392   3.233
52617SOL    HW259691   6.441   1.269   3.300
52618SOL     OW59692   0.259   8.334   7.770
52618SOL    HW159693   0.229   8.361   7.683
52618SOL    HW259694   0.336   8.388   7.787
52619SOL     OW59695  13.459   5.699  10.872
52619SOL    HW159696  13.411   5.741  10.943
52619SOL    HW259697  13.465   5.607  10.898
52620SOL     OW59698  14.454   3.032   9.652
52620SOL    HW159699  14.529   2.976   9.636
52620SOL    HW259700  14.419   3.003   9.737
52621SOL     OW59701   7.666   0.809   8.519
52621SOL    HW159702   7.645   0.872   8.588
52621SOL    HW259703   7.595   0.745   8.522
52622SOL     OW59704  14.234   1.850   1.439
52622SOL    HW159705  14.219   1.941   1.416
52622SOL    HW259706  14.153   1.805   1.418
52623SOL     OW59707   8.883   3.586   4.925
52623SOL    HW159708   8.880   3.494   4.898
52623SOL    HW259709   8.928   3.631   4.854
52624SOL     OW59710   9.215  12.937   7.243
52624SOL    HW159711   9.218  13.002   7.314
52624SOL    HW259712   9.122  12.930   7.221
52625SOL     OW59713   9.200   2.046  12.514
52625SOL    HW159714   9.235   2.084  12.433
52625SOL    HW259715   9.130   2.106  12.540
52626SOL     OW59716   1.759  11.675   3.602
52626SOL    HW159717   1.820  11.686   3.530
52626SOL    HW259718   1.814  11.653   3.677
52627SOL     OW59719   9.669   1.470   3.775
52627SOL    HW159720   9.740   1.454   3.713
52627SOL    HW259721   9.597   1.502   3.721
52628SOL     OW59722  12.004  13.784  14.685
52628SOL    HW159723  12.067  13.752  14.620
52628SOL    HW259724  12.018  13.728  14.761
52629SOL     OW59725   7.222   5.196  13.329
52629SOL    HW159726   7.142   5.146  13.342
52629SOL    HW259727   7.287   5.130  13.301
52630SOL     OW59728   7.715   6.705   6.467
52630SOL    HW159729   7.725   6.789   6.423
52630SOL    HW259730   7.768   6.712   6.546
52631SOL     OW59731  12.036   9.481   0.546
52631SOL    HW159732  12.069   9.536   0.475
52631SOL    HW259733  11.941   9.489   0.540
52632SOL     OW59734  10.425   0.212  11.840
52632SOL    HW159735  10.350   0.241  11.892
52632SOL    HW259736  10.417   0.260  11.757
52633SOL     OW59737   9.858   1.931  11.829
52633SOL    HW159738   9.893   1.858  11.881
52633SOL    HW259739   9.913   1.933  11.751
52634SOL     OW59740   1.138   1.837  14.564
52634SOL    HW159741   1.089   1.893  14.504
52634SOL    HW259742   1.161   1.760  14.512
52635SOL     OW59743  12.843  10.705   7.243
52635SOL    HW159744  12.857  10.731   7.334
52635SOL    HW259745  12.795  10.623   7.248
52636SOL     OW59746   8.877   1.623   0.375
52636SOL    HW159747   8.947   1.682   0.403
52636SOL    HW259748   8.797   1.663   0.408
52637SOL     OW59749   7.301  11.907  14.820
52637SOL    HW159750   7.322  11.973   0.013
52637SOL    HW259751   7.368  11.919  14.753
52638SOL     OW59752  13.264   2.508  10.529
52638SOL    HW159753  13.172   2.502  10.506
52638SOL    HW259754  13.309   2.516  10.444
52639SOL     OW59755  10.229  10.774   5.877
52639SOL    HW159756  10.234  10.801   5.786
52639SOL    HW259757  10.137  10.752   5.892
52640SOL     OW59758  11.674   6.967   6.728
52640SOL    HW159759  11.746   7.010   6.772
52640SOL    HW259760  11.662   7.017   6.647
52641SOL     OW59761  13.460  12.368  10.412
52641SOL    HW159762  13.466  12.461  10.432
52641SOL    HW259763  13.479  12.324  10.494
52642SOL     OW59764   9.428   3.598   4.286
52642SOL    HW159765   9.339   3.564   4.291
52642SOL    HW259766   9.418   3.691   4.264
52643SOL     OW59767   5.288   0.292  11.091
52643SOL    HW159768   5.352   0.318  11.157
52643SOL    HW259769   5.206   0.282  11.140
52644SOL     OW59770   2.224  10.298   7.979
52644SOL    HW159771   2.244  10.312   7.886
52644SOL    HW259772   2.273  10.220   8.003
52645SOL     OW59773   9.921  10.148   9.193
52645SOL    HW159774   9.879  10.223   9.151
52645SOL    HW259775   9.897  10.155   9.285
52646SOL     OW59776   0.851   3.075  11.700
52646SOL    HW159777   0.918   3.077  11.768
52646SOL    HW259778   0.773   3.113  11.741
52647SOL     OW59779   5.535   9.274   2.992
52647SOL    HW159780   5.445   9.306   3.001
52647SOL    HW259781   5.589   9.343   3.030
52648SOL     OW59782   4.762   8.856   5.437
52648SOL    HW159783   4.813   8.934   5.416
52648SOL    HW259784   4.796   8.826   5.522
52649SOL     OW59785   0.217  11.105   9.312
52649SOL    HW159786   0.172  11.151   9.241
52649SOL    HW259787   0.277  11.170   9.349
52650SOL     OW59788   7.118  14.275   3.500
52650SOL    HW159789   7.132  14.188   3.464
52650SOL    HW259790   7.057  14.318   3.439
52651SOL     OW59791  11.413  12.232   5.958
52651SOL    HW159792  11.336  12.198   6.002
52651SOL    HW259793  11.481  12.234   6.025
52652SOL     OW59794   3.726  13.744   0.549
52652SOL    HW159795   3.807  13.707   0.584
52652SOL    HW259796   3.742  13.839   0.545
52653SOL     OW59797  14.079   6.687  13.216
52653SOL    HW159798  14.009   6.719  13.159
52653SOL    HW259799  14.034   6.653  13.293
52654SOL     OW59800   4.890   5.091   9.947
52654SOL    HW159801   4.930   5.004   9.945
52654SOL    HW259802   4.939   5.138  10.014
52655SOL     OW59803  13.892   5.605   3.924
52655SOL    HW159804  13.961   5.560   3.973
52655SOL    HW259805  13.938   5.658   3.859
52656SOL     OW59806  14.112   3.030   6.889
52656SOL    HW159807  14.064   2.998   6.813
52656SOL    HW259808  14.192   2.977   6.891
52657SOL     OW59809   1.030   5.667   4.809
52657SOL    HW159810   1.113   5.646   4.767
52657SOL    HW259811   1.042   5.755   4.843
52658SOL     OW59812  11.290   6.631   1.920
52658SOL    HW159813  11.316   6.680   1.842
52658SOL    HW259814  11.251   6.550   1.886
52659SOL     OW59815   2.287  10.250   1.266
52659SOL    HW159816   2.255  10.218   1.182
52659SOL    HW259817   2.208  10.264   1.318
52660SOL     OW59818   3.755  13.554   9.186
52660SOL    HW159819   3.701  13.537   9.109
52660SOL    HW259820   3.710  13.624   9.232
52661SOL     OW59821  13.147  12.872   4.158
52661SOL    HW159822  13.102  12.850   4.077
52661SOL    HW259823  13.236  12.893   4.132
52662SOL     OW59824  13.303   6.287   1.432
52662SOL    HW159825  13.223   6.340   1.433
52662SOL    HW259826  13.321   6.269   1.524
52663SOL     OW59827  13.553   4.656   8.973
52663SOL    HW159828  13.544   4.567   8.940
52663SOL    HW259829  13.604   4.702   8.905
52664SOL     OW59830   6.772  10.312  13.041
52664SOL    HW159831   6.842  10.368  13.008
52664SOL    HW259832   6.805  10.278  13.124
52665SOL     OW59833   2.463   2.378   9.188
52665SOL    HW159834   2.498   2.299   9.148
52665SOL    HW259835   2.449   2.355   9.280
52666SOL     OW59836   9.532   3.168   5.470
52666SOL    HW159837   9.466   3.098   5.475
52666SOL    HW259838   9.509   3.217   5.390
52667SOL     OW59839   8.878   8.630   0.081
52667SOL    HW159840   8.870   8.554   0.139
52667SOL    HW259841   8.795   8.677   0.091
52668SOL     OW59842   8.743  11.920   6.127
52668SOL    HW159843   8.795  11.840   6.140
52668SOL    HW259844   8.804  11.991   6.146
52669SOL     OW59845   0.101   3.495   2.854
52669SOL    HW159846   0.057   3.410   2.859
52669SOL    HW259847   0.086   3.535   2.939
52670SOL     OW59848   2.597  13.803   3.747
52670SOL    HW159849   2.633  13.869   3.806
52670SOL    HW259850   2.504  13.826   3.739
52671SOL     OW59851   0.020  13.292   3.381
52671SOL    HW159852  14.856  13.359   3.324
52671SOL    HW259853   0.095  13.335   3.423
52672SOL     OW59854   8.173   6.959   3.364
52672SOL    HW159855   8.214   6.961   3.277
52672SOL    HW259856   8.152   7.051   3.382
52673SOL     OW59857   6.888  10.570  13.397
52673SOL    HW159858   6.909  10.634  13.465
52673SOL    HW259859   6.972  10.528  13.377
52674SOL     OW59860  13.671  12.163   0.034
52674SOL    HW159861  13.738  12.163   0.102
52674SOL    HW259862  13.628  12.077   0.044
52675SOL     OW59863   8.398   3.901   9.270
52675SOL    HW159864   8.475   3.940   9.229
52675SOL    HW259865   8.337   3.974   9.280
52676SOL     OW59866  11.955  11.771  11.789
52676SOL    HW159867  11.986  11.737  11.705
52676SOL    HW259868  11.865  11.740  11.796
52677SOL     OW59869   0.688   4.674  11.317
52677SOL    HW159870   0.778   4.692  11.344
52677SOL    HW259871   0.641   4.756  11.332
52678SOL     OW59872  14.329   7.075   7.983
52678SOL    HW159873  14.239   7.107   7.977
52678SOL    HW259874  14.320   6.981   7.997
52679SOL     OW59875   1.509   5.221  12.601
52679SOL    HW159876   1.428   5.244  12.556
52679SOL    HW259877   1.500   5.262  12.688
52680SOL     OW59878   4.093   8.936  14.581
52680SOL    HW159879   4.057   8.875  14.645
52680SOL    HW259880   4.122   9.011  14.633
52681SOL     OW59881   8.301   4.823   9.043
52681SOL    HW159882   8.286   4.897   9.102
52681SOL    HW259883   8.302   4.862   8.956
52682SOL     OW59884   8.618   7.771   2.576
52682SOL    HW159885   8.533   7.770   2.531
52682SOL    HW259886   8.656   7.685   2.558
52683SOL     OW59887  11.021  12.435   8.705
52683SOL    HW159888  11.068  12.368   8.654
52683SOL    HW259889  10.929  12.409   8.699
52684SOL     OW59890   7.463  14.143   5.214
52684SOL    HW159891   7.372  14.171   5.199
52684SOL    HW259892   7.483  14.088   5.138
52685SOL     OW59893  10.435  11.448  12.691
52685SOL    HW159894  10.356  11.416  12.734
52685SOL    HW259895  10.404  11.487  12.609
52686SOL     OW59896   9.327  11.667  10.718
52686SOL    HW159897   9.395  11.724  10.754
52686SOL    HW259898   9.321  11.693  10.626
52687SOL     OW59899   5.749   1.112  12.183
52687SOL    HW159900   5.842   1.103  12.203
52687SOL    HW259901   5.723   1.193  12.226
52688SOL     OW59902   7.960   4.023   1.671
52688SOL    HW159903   7.909   4.082   1.615
52688SOL    HW259904   7.913   3.940   1.667
52689SOL     OW59905   6.333   1.199   1.037
52689SOL    HW159906   6.372   1.286   1.030
52689SOL    HW259907   6.278   1.203   1.115
52690SOL     OW59908   6.789   6.459   1.336
52690SOL    HW159909   6.817   6.457   1.427
52690SOL    HW259910   6.761   6.550   1.321
52691SOL     OW59911  11.239   4.992   5.976
52691SOL    HW159912  11.231   4.979   5.881
52691SOL    HW259913  11.155   5.029   6.003
52692SOL     OW59914  14.492  14.140   7.552
52692SOL    HW159915  14.428  14.123   7.621
52692SOL    HW259916  14.495  14.235   7.544
52693SOL     OW59917   0.444   1.807   3.780
52693SOL    HW159918   0.515   1.824   3.842
52693SOL    HW259919   0.451   1.878   3.716
52694SOL     OW59920  12.075   7.898  13.207
52694SOL    HW159921  12.045   7.807  13.197
52694SOL    HW259922  12.141   7.893  13.276
52695SOL     OW59923   6.663   1.049   6.601
52695SOL    HW159924   6.662   1.105   6.679
52695SOL    HW259925   6.724   0.979   6.624
52696SOL     OW59926  10.247   8.896  14.641
52696SOL    HW159927  10.260   8.848  14.723
52696SOL    HW259928  10.333   8.933  14.621
52697SOL     OW59929  11.963   2.013  11.140
52697SOL    HW159930  11.998   1.927  11.119
52697SOL    HW259931  11.890   2.025  11.080
52698SOL     OW59932   1.123   2.063   8.108
52698SOL    HW159933   1.198   2.105   8.150
52698SOL    HW259934   1.060   2.135   8.096
52699SOL     OW59935   8.856  11.981   0.316
52699SOL    HW159936   8.829  12.006   0.228
52699SOL    HW259937   8.944  12.016   0.325
52700SOL     OW59938   5.557  14.767   9.589
52700SOL    HW159939   5.489  14.780   9.655
52700SOL    HW259940   5.616  14.702   9.627
52701SOL     OW59941   7.239  10.635  11.349
52701SOL    HW159942   7.325  10.645  11.391
52701SOL    HW259943   7.202  10.723  11.351
52702SOL     OW59944   5.476  10.863   4.604
52702SOL    HW159945   5.382  10.845   4.607
52702SOL    HW259946   5.503  10.836   4.516
52703SOL     OW59947  12.129   5.601   0.452
52703SOL    HW159948  12.181   5.521   0.462
52703SOL    HW259949  12.108   5.627   0.541
52704SOL     OW59950   4.007  14.074  12.474
52704SOL    HW159951   3.984  14.067  12.567
52704SOL    HW259952   4.042  13.988  12.451
52705SOL     OW59953  13.463   8.410   8.959
52705SOL    HW159954  13.403   8.454   8.899
52705SOL    HW259955  13.438   8.317   8.953
52706SOL     OW59956   7.843   4.533  10.706
52706SOL    HW159957   7.912   4.533  10.639
52706SOL    HW259958   7.804   4.446  10.699
52707SOL     OW59959  11.162   1.595  13.706
52707SOL    HW159960  11.224   1.665  13.729
52707SOL    HW259961  11.098   1.637  13.649
52708SOL     OW59962   1.656   5.477  12.090
52708SOL    HW159963   1.589   5.498  12.155
52708SOL    HW259964   1.722   5.545  12.101
52709SOL     OW59965   5.151  12.472  10.842
52709SOL    HW159966   5.093  12.470  10.766
52709SOL    HW259967   5.172  12.380  10.858
52710SOL     OW59968   4.594  10.018   8.626
52710SOL    HW159969   4.509  10.061   8.639
52710SOL    HW259970   4.586   9.976   8.540
52711SOL     OW59971   3.991   0.836  14.306
52711SOL    HW159972   3.955   0.785  14.234
52711SOL    HW259973   4.079   0.801  14.319
52712SOL     OW59974   5.046  10.709  12.038
52712SOL    HW159975   5.016  10.668  12.119
52712SOL    HW259976   5.015  10.651  11.969
52713SOL     OW59977   3.086   1.275   2.814
52713SOL    HW159978   3.039   1.249   2.735
52713SOL    HW259979   3.176   1.292   2.784
52714SOL     OW59980  11.739   5.421  12.136
52714SOL    HW159981  11.834   5.422  12.132
52714SOL    HW259982  11.717   5.474  12.212
52715SOL     OW59983  10.777   3.342   1.570
52715SOL    HW159984  10.705   3.280   1.559
52715SOL    HW259985  10.762   3.407   1.502
52716SOL     OW59986   3.503   8.688  13.841
52716SOL    HW159987   3.579   8.630  13.836
52716SOL    HW259988   3.535   8.766  13.887
52717SOL     OW59989   0.498  12.775   7.056
52717SOL    HW159990   0.531  12.689   7.029
52717SOL    HW259991   0.506  12.829   6.978
52718SOL     OW59992  10.950  11.647  14.322
52718SOL    HW159993  10.931  11.565  14.278
52718SOL    HW259994  10.868  11.695  14.320
52719SOL     OW59995  12.275   7.404  12.477
52719SOL    HW159996  12.214   7.405  12.551
52719SOL    HW259997  12.350   7.355  12.509
52720SOL     OW59998  13.946   8.822  11.960
52720SOL    HW159999  13.860   8.799  11.996
52720SOL    HW260000  13.962   8.911  11.989
52721SOL     OW60001  14.151  12.182   9.558
52721SOL    HW160002  14.112  12.241   9.622
52721SOL    HW260003  14.207  12.240   9.505
52722SOL     OW60004  11.967   1.258   0.820
52722SOL    HW160005  11.982   1.174   0.862
52722SOL    HW260006  12.034   1.263   0.752
52723SOL     OW60007  10.548  13.556  14.201
52723SOL    HW160008  10.456  13.576  14.216
52723SOL    HW260009  10.588  13.641  14.180
52724SOL     OW60010   6.068   0.362  12.849
52724SOL    HW160011   6.034   0.282  12.890
52724SOL    HW260012   5.992   0.419  12.842
52725SOL     OW60013   5.552   4.856   9.074
52725SOL    HW160014   5.539   4.764   9.095
52725SOL    HW260015   5.615   4.856   9.003
52726SOL     OW60016   2.105   0.329   7.320
52726SOL    HW160017   2.161   0.297   7.250
52726SOL    HW260018   2.093   0.422   7.300
52727SOL     OW60019   3.401   4.384   4.339
52727SOL    HW160020   3.366   4.296   4.354
52727SOL    HW260021   3.404   4.423   4.426
52728SOL     OW60022   4.996   0.199  11.174
52728SOL    HW160023   4.904   0.176  11.187
52728SOL    HW260024   5.000   0.229  11.083
52729SOL     OW60025   1.575  13.915   2.080
52729SOL    HW160026   1.580  13.845   2.014
52729SOL    HW260027   1.533  13.988   2.034
52730SOL     OW60028  13.920   0.468  11.375
52730SOL    HW160029  13.896   0.560  11.389
52730SOL    HW260030  13.842   0.419  11.402
52731SOL     OW60031   5.357   9.959   3.389
52731SOL    HW160032   5.402   9.914   3.461
52731SOL    HW260033   5.427   9.990   3.333
52732SOL     OW60034   2.941  14.630  11.366
52732SOL    HW160035   2.953  14.632  11.271
52732SOL    HW260036   2.971  14.543  11.392
52733SOL     OW60037  10.856  11.988   6.216
52733SOL    HW160038  10.816  12.067   6.254
52733SOL    HW260039  10.868  12.010   6.124
52734SOL     OW60040   8.995   0.765   2.179
52734SOL    HW160041   8.995   0.861   2.183
52734SOL    HW260042   8.982   0.738   2.270
52735SOL     OW60043   4.486   4.021   0.542
52735SOL    HW160044   4.505   4.073   0.464
52735SOL    HW260045   4.397   4.048   0.567
52736SOL     OW60046  10.682  10.009   8.605
52736SOL    HW160047  10.710  10.026   8.695
52736SOL    HW260048  10.761   9.982   8.559
52737SOL     OW60049  12.206   5.991   5.497
52737SOL    HW160050  12.291   5.967   5.535
52737SOL    HW260051  12.151   5.914   5.509
52738SOL     OW60052   7.787   3.058  10.271
52738SOL    HW160053   7.703   3.101  10.257
52738SOL    HW260054   7.783   2.981  10.215
52739SOL     OW60055   0.890  10.819   0.519
52739SOL    HW160056   0.852  10.797   0.604
52739SOL    HW260057   0.984  10.805   0.530
52740SOL     OW60058   3.057   7.291   3.234
52740SOL    HW160059   2.990   7.285   3.302
52740SOL    HW260060   3.009   7.321   3.156
52741SOL     OW60061  14.470   0.893   7.371
52741SOL    HW160062  14.461   0.874   7.465
52741SOL    HW260063  14.530   0.968   7.368
52742SOL     OW60064   9.693   5.982  10.898
52742SOL    HW160065   9.784   5.988  10.870
52742SOL    HW260066   9.666   6.072  10.912
52743SOL     OW60067   1.048  14.193   8.905
52743SOL    HW160068   1.048  14.098   8.895
52743SOL    HW260069   1.015  14.226   8.822
52744SOL     OW60070   9.434   0.901   7.590
52744SOL    HW160071   9.463   0.985   7.624
52744SOL    HW260072   9.354   0.922   7.542
52745SOL     OW60073   7.067   8.281   9.614
52745SOL    HW160074   7.056   8.376   9.616
52745SOL    HW260075   7.088   8.260   9.523
52746SOL     OW60076   9.961   2.729   0.096
52746SOL    HW160077   9.956   2.805   0.154
52746SOL    HW260078   9.988   2.657   0.153
52747SOL     OW60079  11.391   7.559   8.940
52747SOL    HW160080  11.333   7.486   8.916
52747SOL    HW260081  11.391   7.615   8.862
52748SOL     OW60082   0.308   3.992  11.103
52748SOL    HW160083   0.312   3.965  11.195
52748SOL    HW260084   0.252   4.070  11.103
52749SOL     OW60085  11.755   9.053  13.400
52749SOL    HW160086  11.759   9.126  13.461
52749SOL    HW260087  11.707   9.088  13.324
52750SOL     OW60088   3.461  13.813   5.025
52750SOL    HW160089   3.545  13.788   5.064
52750SOL    HW260090   3.457  13.908   5.035
52751SOL     OW60091  12.229   0.765   0.091
52751SOL    HW160092  12.311   0.801   0.058
52751SOL    HW260093  12.178   0.842   0.118
52752SOL     OW60094   3.368   8.053   0.156
52752SOL    HW160095   3.421   8.009   0.090
52752SOL    HW260096   3.414   8.038   0.238
52753SOL     OW60097   7.791  10.229   2.476
52753SOL    HW160098   7.831  10.153   2.432
52753SOL    HW260099   7.764  10.286   2.404
52754SOL     OW60100   8.310   0.997   5.441
52754SOL    HW160101   8.363   1.056   5.495
52754SOL    HW260102   8.287   1.048   5.364
52755SOL     OW60103  10.507   5.092   4.279
52755SOL    HW160104  10.586   5.122   4.322
52755SOL    HW260105  10.538   5.047   4.200
52756SOL     OW60106   3.599   9.294   6.185
52756SOL    HW160107   3.674   9.254   6.229
52756SOL    HW260108   3.596   9.252   6.099
52757SOL     OW60109   3.713   2.476   0.613
52757SOL    HW160110   3.716   2.381   0.624
52757SOL    HW260111   3.733   2.511   0.700
52758SOL     OW60112   5.516  12.564   4.118
52758SOL    HW160113   5.439  12.536   4.166
52758SOL    HW260114   5.516  12.510   4.039
52759SOL     OW60115   3.610   0.412  12.124
52759SOL    HW160116   3.703   0.410  12.101
52759SOL    HW260117   3.599   0.493  12.174
52760SOL     OW60118  10.504   5.178   1.793
52760SOL    HW160119  10.443   5.251   1.804
52760SOL    HW260120  10.545   5.194   1.708
52761SOL     OW60121   4.143   1.259   6.898
52761SOL    HW160122   4.161   1.302   6.981
52761SOL    HW260123   4.077   1.193   6.919
52762SOL     OW60124   0.472   8.902   1.547
52762SOL    HW160125   0.498   8.811   1.563
52762SOL    HW260126   0.549   8.953   1.570
52763SOL     OW60127   6.398   0.555   5.279
52763SOL    HW160128   6.444   0.490   5.332
52763SOL    HW260129   6.446   0.637   5.294
52764SOL     OW60130   9.087   2.346  11.670
52764SOL    HW160131   9.120   2.275  11.726
52764SOL    HW260132   8.997   2.360  11.700
52765SOL     OW60133   3.153   9.954  11.953
52765SOL    HW160134   3.142   9.932  11.860
52765SOL    HW260135   3.246   9.975  11.961
52766SOL     OW60136   8.924   4.685   8.830
52766SOL    HW160137   8.955   4.772   8.804
52766SOL    HW260138   8.994   4.650   8.884
52767SOL     OW60139  11.935   5.475   3.945
52767SOL    HW160140  11.860   5.416   3.951
52767SOL    HW260141  12.002   5.423   3.900
52768SOL     OW60142  12.976   2.168  11.209
52768SOL    HW160143  13.015   2.119  11.282
52768SOL    HW260144  13.004   2.258  11.222
52769SOL     OW60145  11.756  13.503  13.954
52769SOL    HW160146  11.728  13.539  14.038
52769SOL    HW260147  11.725  13.566  13.889
52770SOL     OW60148   3.743   6.628   3.207
52770SOL    HW160149   3.809   6.615   3.139
52770SOL    HW260150   3.661   6.638   3.160
52771SOL     OW60151   7.471   0.963   4.986
52771SOL    HW160152   7.415   1.035   4.959
52771SOL    HW260153   7.429   0.927   5.064
52772SOL     OW60154   0.597   3.144   3.305
52772SOL    HW160155   0.538   3.092   3.359
52772SOL    HW260156   0.579   3.115   3.216
52773SOL     OW60157  10.143   6.417   7.680
52773SOL    HW160158  10.119   6.382   7.766
52773SOL    HW260159  10.109   6.354   7.617
52774SOL     OW60160  11.584   1.929  14.560
52774SOL    HW160161  11.547   2.017  14.550
52774SOL    HW260162  11.648   1.923  14.488
52775SOL     OW60163  14.377   1.512   2.046
52775SOL    HW160164  14.354   1.423   2.071
52775SOL    HW260165  14.393   1.508   1.951
52776SOL     OW60166  11.320   0.886  14.737
52776SOL    HW160167  11.319   0.801  14.782
52776SOL    HW260168  11.368   0.869  14.655
52777SOL     OW60169   9.286   0.069   4.116
52777SOL    HW160170   9.277   0.130   4.189
52777SOL    HW260171   9.210   0.086   4.061
52778SOL     OW60172  10.558   5.914   8.872
52778SOL    HW160173  10.583   5.879   8.958
52778SOL    HW260174  10.593   6.003   8.871
52779SOL     OW60175   0.962  11.210   3.549
52779SOL    HW160176   0.965  11.251   3.462
52779SOL    HW260177   0.964  11.284   3.610
52780SOL     OW60178   9.359   2.499   6.270
52780SOL    HW160179   9.275   2.480   6.313
52780SOL    HW260180   9.416   2.528   6.340
52781SOL     OW60181   9.792   2.788   4.128
52781SOL    HW160182   9.717   2.760   4.181
52781SOL    HW260183   9.808   2.878   4.155
52782SOL     OW60184   3.364   0.151   5.946
52782SOL    HW160185   3.459   0.143   5.954
52782SOL    HW260186   3.351   0.199   5.864
52783SOL     OW60187  12.518   2.950  10.038
52783SOL    HW160188  12.514   2.961  10.133
52783SOL    HW260189  12.468   3.023  10.003
52784SOL     OW60190   1.929  14.375   8.880
52784SOL    HW160191   2.022  14.359   8.866
52784SOL    HW260192   1.887  14.351   8.797
52785SOL     OW60193   1.752   6.682   8.678
52785SOL    HW160194   1.796   6.701   8.595
52785SOL    HW260195   1.718   6.767   8.707
52786SOL     OW60196   2.931  12.958  11.188
52786SOL    HW160197   2.976  13.042  11.184
52786SOL    HW260198   2.840  12.980  11.211
52787SOL     OW60199   5.980   1.301   6.320
52787SOL    HW160200   6.015   1.357   6.250
52787SOL    HW260201   5.914   1.355   6.364
52788SOL     OW60202  10.434  10.812  11.433
52788SOL    HW160203  10.517  10.789  11.391
52788SOL    HW260204  10.384  10.855  11.363
52789SOL     OW60205   5.126   3.760   7.265
52789SOL    HW160206   5.055   3.720   7.314
52789SOL    HW260207   5.163   3.825   7.325
52790SOL     OW60208  12.662   2.779  11.319
52790SOL    HW160209  12.639   2.725  11.243
52790SOL    HW260210  12.752   2.754  11.340
52791SOL     OW60211   8.698   8.103   9.909
52791SOL    HW160212   8.689   8.029   9.969
52791SOL    HW260213   8.722   8.063   9.825
52792SOL     OW60214   1.958   9.833   8.322
52792SOL    HW160215   1.908   9.866   8.397
52792SOL    HW260216   1.936   9.893   8.251
52793SOL     OW60217   4.335   3.249   9.462
52793SOL    HW160218   4.290   3.273   9.543
52793SOL    HW260219   4.401   3.317   9.451
52794SOL     OW60220   8.075   9.589   0.677
52794SOL    HW160221   8.150   9.621   0.627
52794SOL    HW260222   8.012   9.661   0.675
52795SOL     OW60223   6.549  11.305   0.849
52795SOL    HW160224   6.456  11.315   0.828
52795SOL    HW260225   6.566  11.370   0.917
52796SOL     OW60226  14.605   6.678   5.499
52796SOL    HW160227  14.686   6.721   5.474
52796SOL    HW260228  14.544   6.750   5.517
52797SOL     OW60229  10.999   3.219  10.248
52797SOL    HW160230  10.986   3.304  10.206
52797SOL    HW260231  10.980   3.155  10.180
52798SOL     OW60232   9.815  14.229   3.528
52798SOL    HW160233   9.898  14.233   3.481
52798SOL    HW260234   9.816  14.304   3.586
52799SOL     OW60235  10.470   2.474  10.022
52799SOL    HW160236  10.414   2.514   9.956
52799SOL    HW260237  10.417   2.474  10.102
52800SOL     OW60238   1.415   1.679  14.327
52800SOL    HW160239   1.441   1.603  14.379
52800SOL    HW260240   1.478   1.747  14.350
52801SOL     OW60241   7.591   4.818   7.518
52801SOL    HW160242   7.656   4.747   7.527
52801SOL    HW260243   7.634   4.894   7.557
52802SOL     OW60244  11.647  11.942  10.754
52802SOL    HW160245  11.623  11.999  10.681
52802SOL    HW260246  11.631  11.853  10.721
52803SOL     OW60247   2.397   4.019   0.724
52803SOL    HW160248   2.411   4.109   0.695
52803SOL    HW260249   2.302   4.009   0.727
52804SOL     OW60250   0.161   3.101  14.127
52804SOL    HW160251   0.205   3.030  14.173
52804SOL    HW260252   0.231   3.160  14.100
52805SOL     OW60253   9.121  12.982   9.848
52805SOL    HW160254   9.105  12.971   9.755
52805SOL    HW260255   9.215  12.994   9.855
52806SOL     OW60256   4.888   1.723   4.714
52806SOL    HW160257   4.884   1.776   4.793
52806SOL    HW260258   4.963   1.665   4.728
52807SOL     OW60259   1.664   8.791  10.065
52807SOL    HW160260   1.731   8.821  10.004
52807SOL    HW260261   1.688   8.832  10.148
52808SOL     OW60262   8.895  11.980   0.864
52808SOL    HW160263   8.896  12.070   0.830
52808SOL    HW260264   8.941  11.929   0.798
52809SOL     OW60265   3.292   5.740   4.052
52809SOL    HW160266   3.224   5.731   4.118
52809SOL    HW260267   3.310   5.651   4.023
52810SOL     OW60268   4.771   1.732   4.154
52810SOL    HW160269   4.696   1.789   4.135
52810SOL    HW260270   4.819   1.779   4.222
52811SOL     OW60271  12.586   5.596   8.460
52811SOL    HW160272  12.497   5.587   8.426
52811SOL    HW260273  12.585   5.679   8.509
52812SOL     OW60274  14.083   0.590  12.092
52812SOL    HW160275  13.996   0.629  12.094
52812SOL    HW260276  14.143   0.664  12.098
52813SOL     OW60277   9.030  12.320   4.313
52813SOL    HW160278   9.043  12.414   4.323
52813SOL    HW260279   9.110  12.281   4.348
52814SOL     OW60280   5.195   7.128   5.572
52814SOL    HW160281   5.224   7.089   5.655
52814SOL    HW260282   5.260   7.197   5.555
52815SOL     OW60283  13.635   7.426  10.650
52815SOL    HW160284  13.620   7.520  10.642
52815SOL    HW260285  13.664   7.414  10.740
52816SOL     OW60286   3.480  10.500   1.805
52816SOL    HW160287   3.552  10.444   1.777
52816SOL    HW260288   3.508  10.589   1.782
52817SOL     OW60289   3.962   2.324   7.476
52817SOL    HW160290   3.919   2.358   7.554
52817SOL    HW260291   4.047   2.368   7.473
52818SOL     OW60292  10.061   0.930   7.976
52818SOL    HW160293  10.012   0.929   7.893
52818SOL    HW260294  10.004   0.977   8.037
52819SOL     OW60295   0.417  10.545  13.875
52819SOL    HW160296   0.454  10.457  13.871
52819SOL    HW260297   0.323  10.532  13.882
52820SOL     OW60298   8.604   9.236   3.095
52820SOL    HW160299   8.556   9.156   3.120
52820SOL    HW260300   8.641   9.268   3.177
52821SOL     OW60301   2.374  12.559  14.210
52821SOL    HW160302   2.408  12.619  14.144
52821SOL    HW260303   2.335  12.615  14.277
52822SOL     OW60304   6.176   9.698   9.659
52822SOL    HW160305   6.198   9.749   9.737
52822SOL    HW260306   6.259   9.658   9.632
52823SOL     OW60307   6.907   8.783   5.950
52823SOL    HW160308   6.917   8.772   6.045
52823SOL    HW260309   6.990   8.753   5.914
52824SOL     OW60310   5.264   6.640   7.524
52824SOL    HW160311   5.240   6.603   7.439
52824SOL    HW260312   5.266   6.564   7.582
52825SOL     OW60313  14.022  13.307  12.856
52825SOL    HW160314  14.011  13.382  12.797
52825SOL    HW260315  13.973  13.332  12.934
52826SOL     OW60316   9.958  11.421  10.108
52826SOL    HW160317   9.885  11.373  10.145
52826SOL    HW260318   9.933  11.513  10.117
52827SOL     OW60319  13.461   5.418   4.057
52827SOL    HW160320  13.390   5.412   3.993
52827SOL    HW260321  13.501   5.503   4.040
52828SOL     OW60322   4.055   5.054   0.712
52828SOL    HW160323   3.974   5.106   0.714
52828SOL    HW260324   4.039   4.989   0.643
52829SOL     OW60325   5.518  13.711   6.536
52829SOL    HW160326   5.472  13.791   6.509
52829SOL    HW260327   5.595  13.708   6.480
52830SOL     OW60328   8.715  14.790   0.025
52830SOL    HW160329   8.644  14.750  14.847
52830SOL    HW260330   8.794  14.744  14.869
52831SOL     OW60331  13.288   7.052   5.905
52831SOL    HW160332  13.211   7.059   5.848
52831SOL    HW260333  13.344   6.988   5.862
52832SOL     OW60334  12.971   9.228  13.036
52832SOL    HW160335  12.894   9.171  13.031
52832SOL    HW260336  13.040   9.180  12.991
52833SOL     OW60337   2.418  12.947   8.354
52833SOL    HW160338   2.435  12.857   8.383
52833SOL    HW260339   2.505  12.981   8.332
52834SOL     OW60340   9.016  11.802   1.768
52834SOL    HW160341   9.081  11.735   1.749
52834SOL    HW260342   9.054  11.854   1.838
52835SOL     OW60343   0.759   2.770   9.622
52835SOL    HW160344   0.767   2.853   9.575
52835SOL    HW260345   0.850   2.744   9.640
52836SOL     OW60346  14.505   3.528  11.789
52836SOL    HW160347  14.561   3.451  11.780
52836SOL    HW260348  14.425   3.496  11.829
52837SOL     OW60349   0.936  12.245  14.405
52837SOL    HW160350   0.856  12.203  14.437
52837SOL    HW260351   0.923  12.252  14.311
52838SOL     OW60352   4.968  10.150   1.597
52838SOL    HW160353   4.962  10.213   1.525
52838SOL    HW260354   4.987  10.203   1.674
52839SOL     OW60355  10.410   7.056   0.517
52839SOL    HW160356  10.346   7.043   0.446
52839SOL    HW260357  10.447   7.142   0.501
52840SOL     OW60358  11.655  11.907   9.277
52840SOL    HW160359  11.641  11.987   9.327
52840SOL    HW260360  11.747  11.912   9.249
52841SOL     OW60361  10.655  10.956   9.865
52841SOL    HW160362  10.688  10.973   9.953
52841SOL    HW260363  10.639  11.043   9.828
52842SOL     OW60364  11.361   9.391   1.291
52842SOL    HW160365  11.390   9.420   1.377
52842SOL    HW260366  11.403   9.452   1.230
52843SOL     OW60367  10.609   6.499   6.904
52843SOL    HW160368  10.525   6.526   6.940
52843SOL    HW260369  10.668   6.573   6.923
52844SOL     OW60370   0.043   9.839   5.556
52844SOL    HW160371   0.023   9.907   5.491
52844SOL    HW260372   0.100   9.778   5.510
52845SOL     OW60373   0.445  10.118   9.265
52845SOL    HW160374   0.373  10.064   9.297
52845SOL    HW260375   0.451  10.096   9.172
52846SOL     OW60376   8.627   5.997   0.846
52846SOL    HW160377   8.563   5.950   0.900
52846SOL    HW260378   8.707   5.946   0.853
52847SOL     OW60379   1.761   8.468   0.265
52847SOL    HW160380   1.768   8.547   0.319
52847SOL    HW260381   1.809   8.401   0.313
52848SOL     OW60382   9.231   0.207   6.215
52848SOL    HW160383   9.224   0.300   6.233
52848SOL    HW260384   9.158   0.168   6.263
52849SOL     OW60385   8.576   0.311   9.528
52849SOL    HW160386   8.615   0.387   9.571
52849SOL    HW260387   8.552   0.253   9.600
52850SOL     OW60388   3.257  12.837   8.058
52850SOL    HW160389   3.181  12.783   8.081
52850SOL    HW260390   3.246  12.917   8.108
52851SOL     OW60391  13.813   4.261   6.114
52851SOL    HW160392  13.727   4.279   6.076
52851SOL    HW260393  13.871   4.249   6.039
52852SOL     OW60394   6.619   1.003   6.313
52852SOL    HW160395   6.697   1.033   6.267
52852SOL    HW260396   6.642   1.007   6.406
52853SOL     OW60397  14.486  14.178   5.233
52853SOL    HW160398  14.540  14.200   5.157
52853SOL    HW260399  14.426  14.252   5.243
52854SOL     OW60400   3.277   4.871  12.138
52854SOL    HW160401   3.339   4.809  12.175
52854SOL    HW260402   3.257   4.931  12.211
52855SOL     OW60403  12.938  12.108   4.933
52855SOL    HW160404  12.887  12.131   4.856
52855SOL    HW260405  13.029  12.121   4.906
52856SOL     OW60406   9.294  12.788  13.556
52856SOL    HW160407   9.271  12.721  13.621
52856SOL    HW260408   9.377  12.824  13.586
52857SOL     OW60409   6.919  13.781  11.240
52857SOL    HW160410   6.971  13.789  11.160
52857SOL    HW260411   6.971  13.725  11.298
52858SOL     OW60412   5.341   7.157  12.858
52858SOL    HW160413   5.389   7.203  12.788
52858SOL    HW260414   5.410   7.116  12.911
52859SOL     OW60415   5.486   8.908   3.599
52859SOL    HW160416   5.517   8.937   3.513
52859SOL    HW260417   5.422   8.839   3.579
52860SOL     OW60418   8.374  14.344   4.278
52860SOL    HW160419   8.453  14.375   4.322
52860SOL    HW260420   8.328  14.293   4.344
52861SOL     OW60421   2.819  11.830  10.747
52861SOL    HW160422   2.824  11.925  10.746
52861SOL    HW260423   2.773  11.807  10.667
52862SOL     OW60424   0.041  13.798  10.475
52862SOL    HW160425   0.077  13.712  10.497
52862SOL    HW260426  14.820  13.787  10.485
52863SOL     OW60427   5.778   8.421   0.627
52863SOL    HW160428   5.843   8.408   0.557
52863SOL    HW260429   5.725   8.494   0.597
52864SOL     OW60430   1.151   3.215   8.533
52864SOL    HW160431   1.238   3.220   8.493
52864SOL    HW260432   1.093   3.258   8.470
52865SOL     OW60433   7.245  12.313   0.198
52865SOL    HW160434   7.263  12.348   0.111
52865SOL    HW260435   7.241  12.390   0.255
52866SOL     OW60436   5.980   1.304  14.099
52866SOL    HW160437   5.990   1.348  14.014
52866SOL    HW260438   5.887   1.314  14.120
52867SOL     OW60439   9.195   9.839   7.066
52867SOL    HW160440   9.108   9.800   7.078
52867SOL    HW260441   9.179   9.934   7.069
52868SOL     OW60442   5.481  11.071   4.255
52868SOL    HW160443   5.447  11.020   4.182
52868SOL    HW260444   5.489  11.160   4.221
52869SOL     OW60445   8.829   9.528   9.596
52869SOL    HW160446   8.918   9.494   9.602
52869SOL    HW260447   8.829   9.605   9.652
52870SOL     OW60448  11.442  12.151   2.748
52870SOL    HW160449  11.530  12.117   2.731
52870SOL    HW260450  11.445  12.242   2.719
52871SOL     OW60451   1.529  12.807   4.354
52871SOL    HW160452   1.436  12.832   4.357
52871SOL    HW260453   1.576  12.886   4.381
52872SOL     OW60454  11.983   0.541   9.927
52872SOL    HW160455  11.946   0.467   9.975
52872SOL    HW260456  11.918   0.611   9.938
52873SOL     OW60457  14.648  13.862  12.014
52873SOL    HW160458  14.678  13.940  12.061
52873SOL    HW260459  14.623  13.801  12.084
52874SOL     OW60460   3.111   7.505  13.500
52874SOL    HW160461   3.128   7.479  13.410
52874SOL    HW260462   3.198   7.507  13.541
52875SOL     OW60463   5.935   0.105   1.914
52875SOL    HW160464   5.999   0.113   1.985
52875SOL    HW260465   5.931   0.012   1.895
52876SOL     OW60466   8.581   0.930  10.375
52876SOL    HW160467   8.662   0.971  10.404
52876SOL    HW260468   8.564   0.968  10.289
52877SOL     OW60469   9.016   4.732   9.727
52877SOL    HW160470   8.979   4.652   9.690
52877SOL    HW260471   9.091   4.752   9.670
52878SOL     OW60472   8.762  14.799  11.122
52878SOL    HW160473   8.770  14.868  11.188
52878SOL    HW260474   8.669  14.778  11.121
52879SOL     OW60475   1.775  11.170   4.850
52879SOL    HW160476   1.710  11.106   4.878
52879SOL    HW260477   1.743  11.254   4.884
52880SOL     OW60478  13.311   2.181   5.871
52880SOL    HW160479  13.238   2.120   5.887
52880SOL    HW260480  13.388   2.136   5.905
52881SOL     OW60481   4.803  14.566   2.418
52881SOL    HW160482   4.752  14.490   2.391
52881SOL    HW260483   4.790  14.570   2.513
52882SOL     OW60484   0.283   6.568   4.451
52882SOL    HW160485   0.264   6.640   4.511
52882SOL    HW260486   0.198   6.544   4.415
52883SOL     OW60487   9.983   0.294   9.587
52883SOL    HW160488   9.992   0.242   9.507
52883SOL    HW260489   9.889   0.305   9.598
52884SOL     OW60490   0.689  14.289   3.108
52884SOL    HW160491   0.601  14.255   3.090
52884SOL    HW260492   0.742  14.212   3.124
52885SOL     OW60493   3.527   2.288  12.168
52885SOL    HW160494   3.571   2.265  12.250
52885SOL    HW260495   3.541   2.382  12.158
52886SOL     OW60496  11.903   7.687   4.801
52886SOL    HW160497  11.898   7.613   4.740
52886SOL    HW260498  11.841   7.751   4.766
52887SOL     OW60499   0.272  14.780  12.159
52887SOL    HW160500   0.296  14.734  12.239
52887SOL    HW260501   0.349  14.771  12.102
52888SOL     OW60502  14.103   2.200   3.081
52888SOL    HW160503  14.113   2.124   3.138
52888SOL    HW260504  14.085   2.272   3.141
52889SOL     OW60505   5.745  13.698   6.378
52889SOL    HW160506   5.789  13.613   6.377
52889SOL    HW260507   5.734  13.720   6.286
52890SOL     OW60508   1.897   3.566  12.471
52890SOL    HW160509   1.927   3.486  12.427
52890SOL    HW260510   1.968   3.588  12.530
52891SOL     OW60511   7.256   4.746   0.609
52891SOL    HW160512   7.294   4.833   0.619
52891SOL    HW260513   7.173   4.750   0.657
52892SOL     OW60514  12.809  10.531   3.296
52892SOL    HW160515  12.802  10.477   3.375
52892SOL    HW260516  12.757  10.609   3.316
52893SOL     OW60517   9.003   3.827  14.617
52893SOL    HW160518   8.949   3.750  14.638
52893SOL    HW260519   9.069   3.829  14.687
52894SOL     OW60520   5.027  10.840   8.690
52894SOL    HW160521   4.934  10.825   8.706
52894SOL    HW260522   5.053  10.905   8.755
52895SOL     OW60523   6.846   9.017   5.849
52895SOL    HW160524   6.930   9.061   5.839
52895SOL    HW260525   6.865   8.940   5.902
52896SOL     OW60526   8.090   7.548   7.598
52896SOL    HW160527   8.176   7.531   7.560
52896SOL    HW260528   8.097   7.636   7.636
52897SOL     OW60529   5.549   2.752   1.952
52897SOL    HW160530   5.574   2.786   1.866
52897SOL    HW260531   5.463   2.713   1.938
52898SOL     OW60532   1.943   6.856  10.414
52898SOL    HW160533   1.940   6.761  10.399
52898SOL    HW260534   1.854   6.879  10.438
52899SOL     OW60535   7.251  13.786   1.239
52899SOL    HW160536   7.280  13.720   1.302
52899SOL    HW260537   7.310  13.860   1.253
52900SOL     OW60538   4.593   0.049   5.606
52900SOL    HW160539   4.680   0.088   5.600
52900SOL    HW260540   4.560   0.050   5.516
52901SOL     OW60541   3.917  11.643  10.756
52901SOL    HW160542   3.877  11.673  10.675
52901SOL    HW260543   4.001  11.606  10.729
52902SOL     OW60544  11.149   6.627   3.372
52902SOL    HW160545  11.157   6.559   3.305
52902SOL    HW260546  11.065   6.609   3.415
52903SOL     OW60547   5.383   3.349  14.250
52903SOL    HW160548   5.371   3.423  14.190
52903SOL    HW260549   5.294   3.319  14.269
52904SOL     OW60550   3.608   5.002   9.326
52904SOL    HW160551   3.657   5.017   9.245
52904SOL    HW260552   3.557   4.923   9.308
52905SOL     OW60553  14.448   6.038   6.583
52905SOL    HW160554  14.501   5.961   6.604
52905SOL    HW260555  14.364   6.021   6.626
52906SOL     OW60556   0.106   2.621   7.133
52906SOL    HW160557   0.191   2.631   7.176
52906SOL    HW260558   0.094   2.703   7.086
52907SOL     OW60559   5.004   6.115   4.358
52907SOL    HW160560   4.956   6.141   4.279
52907SOL    HW260561   4.936   6.088   4.420
52908SOL     OW60562   5.641  14.209   3.390
52908SOL    HW160563   5.581  14.277   3.358
52908SOL    HW260564   5.593  14.167   3.461
52909SOL     OW60565   5.861  11.102   0.007
52909SOL    HW160566   5.794  11.119   0.074
52909SOL    HW260567   5.903  11.021   0.034
52910SOL     OW60568   5.430  11.665  12.378
52910SOL    HW160569   5.396  11.745  12.338
52910SOL    HW260570   5.523  11.682  12.392
52911SOL     OW60571   6.489   5.848  11.494
52911SOL    HW160572   6.525   5.929  11.531
52911SOL    HW260573   6.513   5.851  11.401
52912SOL     OW60574   9.323   6.794  10.944
52912SOL    HW160575   9.268   6.783  11.021
52912SOL    HW260576   9.387   6.722  10.949
52913SOL     OW60577  13.592  10.326   7.691
52913SOL    HW160578  13.505  10.293   7.716
52913SOL    HW260579  13.620  10.379   7.766
52914SOL     OW60580   1.606  14.030   6.962
52914SOL    HW160581   1.629  14.069   7.046
52914SOL    HW260582   1.542  13.962   6.984
52915SOL     OW60583   7.782   1.561   2.579
52915SOL    HW160584   7.790   1.523   2.492
52915SOL    HW260585   7.853   1.521   2.630
52916SOL     OW60586   9.130   4.687  13.412
52916SOL    HW160587   9.193   4.620  13.440
52916SOL    HW260588   9.178   4.769  13.420
52917SOL     OW60589   9.862   3.026   7.491
52917SOL    HW160590   9.778   2.995   7.524
52917SOL    HW260591   9.839   3.086   7.420
52918SOL     OW60592   3.225   7.902   9.919
52918SOL    HW160593   3.237   7.812   9.947
52918SOL    HW260594   3.182   7.945   9.993
52919SOL     OW60595   6.388   6.580   2.192
52919SOL    HW160596   6.342   6.523   2.131
52919SOL    HW260597   6.397   6.528   2.272
52920SOL     OW60598   5.452   2.479  12.789
52920SOL    HW160599   5.536   2.510  12.756
52920SOL    HW260600   5.455   2.384  12.777
52921SOL     OW60601   1.903   2.302   9.266
52921SOL    HW160602   1.811   2.325   9.272
52921SOL    HW260603   1.931   2.291   9.357
52922SOL     OW60604  14.184  13.068  10.089
52922SOL    HW160605  14.177  13.151  10.041
52922SOL    HW260606  14.095  13.033  10.089
52923SOL     OW60607  13.287  11.750  13.871
52923SOL    HW160608  13.317  11.727  13.783
52923SOL    HW260609  13.367  11.763  13.922
52924SOL     OW60610   4.643   8.080   5.712
52924SOL    HW160611   4.590   8.026   5.772
52924SOL    HW260612   4.585   8.097   5.638
52925SOL     OW60613   0.302  10.404  11.864
52925SOL    HW160614   0.327  10.404  11.772
52925SOL    HW260615   0.370  10.455  11.908
52926SOL     OW60616  10.975   9.187  12.638
52926SOL    HW160617  10.955   9.094  12.648
52926SOL    HW260618  10.893   9.232  12.659
52927SOL     OW60619   6.648  11.988   7.611
52927SOL    HW160620   6.671  12.069   7.566
52927SOL    HW260621   6.568  12.010   7.660
52928SOL     OW60622   2.308   0.535   1.668
52928SOL    HW160623   2.245   0.565   1.733
52928SOL    HW260624   2.261   0.538   1.585
52929SOL     OW60625  12.877  11.346   9.739
52929SOL    HW160626  12.811  11.413   9.755
52929SOL    HW260627  12.938  11.354   9.813
52930SOL     OW60628  10.885   0.556  11.815
52930SOL    HW160629  10.936   0.628  11.852
52930SOL    HW260630  10.857   0.505  11.891
52931SOL     OW60631   2.553  10.495   9.905
52931SOL    HW160632   2.483  10.530   9.960
52931SOL    HW260633   2.576  10.568   9.847
52932SOL     OW60634   0.285   8.872   7.017
52932SOL    HW160635   0.379   8.876   6.996
52932SOL    HW260636   0.267   8.955   7.062
52933SOL     OW60637   4.476   8.652   1.574
52933SOL    HW160638   4.380   8.646   1.580
52933SOL    HW260639   4.503   8.692   1.657
52934SOL     OW60640   0.808   9.795  12.851
52934SOL    HW160641   0.860   9.853  12.796
52934SOL    HW260642   0.728   9.780  12.800
52935SOL     OW60643   5.715   1.547   3.534
52935SOL    HW160644   5.622   1.559   3.516
52935SOL    HW260645   5.722   1.458   3.568
52936SOL     OW60646  12.568  12.435   8.086
52936SOL    HW160647  12.604  12.441   8.175
52936SOL    HW260648  12.482  12.477   8.092
52937SOL     OW60649   2.005   7.081   1.952
52937SOL    HW160650   2.004   7.121   1.866
52937SOL    HW260651   1.913   7.062   1.972
52938SOL     OW60652   8.865  13.646  10.043
52938SOL    HW160653   8.822  13.676   9.963
52938SOL    HW260654   8.940  13.595  10.012
52939SOL     OW60655   8.128   5.826  13.977
52939SOL    HW160656   8.106   5.855  13.889
52939SOL    HW260657   8.051   5.776  14.006
52940SOL     OW60658  10.481   1.839   7.463
52940SOL    HW160659  10.494   1.890   7.543
52940SOL    HW260660  10.388   1.815   7.466
52941SOL     OW60661   2.923  11.471  11.881
52941SOL    HW160662   2.994  11.407  11.889
52941SOL    HW260663   2.859  11.427  11.824
52942SOL     OW60664   5.480   2.119   6.939
52942SOL    HW160665   5.385   2.132   6.938
52942SOL    HW260666   5.510   2.156   6.856
52943SOL     OW60667   2.094   5.201   2.285
52943SOL    HW160668   2.121   5.243   2.203
52943SOL    HW260669   2.159   5.133   2.300
52944SOL     OW60670  12.638   9.994  14.584
52944SOL    HW160671  12.605  10.003  14.673
52944SOL    HW260672  12.710  10.056  14.578
52945SOL     OW60673  12.109   1.090   6.320
52945SOL    HW160674  12.023   1.053   6.304
52945SOL    HW260675  12.095   1.154   6.389
52946SOL     OW60676  11.833   5.451  13.562
52946SOL    HW160677  11.742   5.477  13.547
52946SOL    HW260678  11.829   5.391  13.635
52947SOL     OW60679  10.674   3.093   8.787
52947SOL    HW160680  10.604   3.151   8.817
52947SOL    HW260681  10.684   3.113   8.694
52948SOL     OW60682  12.901  12.582  13.555
52948SOL    HW160683  12.847  12.557  13.631
52948SOL    HW260684  12.882  12.516  13.489
52949SOL     OW60685  10.992   2.802   3.092
52949SOL    HW160686  11.060   2.814   3.026
52949SOL    HW260687  10.909   2.815   3.045
52950SOL     OW60688  14.790   6.349   8.302
52950SOL    HW160689  14.788   6.260   8.336
52950SOL    HW260690  14.735   6.399   8.361
52951SOL     OW60691   1.895   9.439  12.815
52951SOL    HW160692   1.984   9.447  12.848
52951SOL    HW260693   1.846   9.400  12.887
52952SOL     OW60694  13.869  14.198   2.623
52952SOL    HW160695  13.893  14.113   2.660
52952SOL    HW260696  13.950  14.249   2.624
52953SOL     OW60697   5.183  13.761   0.468
52953SOL    HW160698   5.099  13.724   0.495
52953SOL    HW260699   5.160  13.826   0.401
52954SOL     OW60700  11.931   1.513  12.076
52954SOL    HW160701  11.957   1.494  11.986
52954SOL    HW260702  11.887   1.433  12.106
52955SOL     OW60703  12.836   3.243   7.775
52955SOL    HW160704  12.869   3.223   7.863
52955SOL    HW260705  12.907   3.290   7.733
52956SOL     OW60706   2.263   6.280   0.918
52956SOL    HW160707   2.336   6.242   0.869
52956SOL    HW260708   2.243   6.216   0.986
52957SOL     OW60709   0.934   8.953   7.782
52957SOL    HW160710   0.884   9.017   7.833
52957SOL    HW260711   0.966   9.003   7.706
52958SOL     OW60712   3.593   5.863  13.990
52958SOL    HW160713   3.531   5.935  13.976
52958SOL    HW260714   3.637   5.853  13.905
52959SOL     OW60715   5.551   7.627   5.912
52959SOL    HW160716   5.513   7.660   5.830
52959SOL    HW260717   5.635   7.589   5.886
52960SOL     OW60718   5.869   4.629   0.176
52960SOL    HW160719   5.897   4.561   0.115
52960SOL    HW260720   5.842   4.581   0.255
52961SOL     OW60721   2.362   5.637   3.650
52961SOL    HW160722   2.343   5.573   3.581
52961SOL    HW260723   2.408   5.708   3.606
52962SOL     OW60724   9.829   4.731   1.957
52962SOL    HW160725   9.735   4.719   1.939
52962SOL    HW260726   9.831   4.795   2.029
52963SOL     OW60727   7.345   4.223  12.685
52963SOL    HW160728   7.335   4.130  12.709
52963SOL    HW260729   7.343   4.269  12.769
52964SOL     OW60730   8.475   3.294   9.358
52964SOL    HW160731   8.467   3.330   9.446
52964SOL    HW260732   8.558   3.246   9.360
52965SOL     OW60733   8.419   7.131  13.653
52965SOL    HW160734   8.410   7.135  13.558
52965SOL    HW260735   8.369   7.054  13.679
52966SOL     OW60736   9.450   9.317   2.028
52966SOL    HW160737   9.377   9.373   2.000
52966SOL    HW260738   9.434   9.234   1.984
52967SOL     OW60739  12.663   7.062  14.454
52967SOL    HW160740  12.640   6.972  14.431
52967SOL    HW260741  12.755   7.057  14.480
52968SOL     OW60742   2.025  14.407   0.920
52968SOL    HW160743   2.113  14.438   0.900
52968SOL    HW260744   1.997  14.460   0.995
52969SOL     OW60745  13.534  10.841  12.102
52969SOL    HW160746  13.510  10.929  12.074
52969SOL    HW260747  13.560  10.850  12.193
52970SOL     OW60748  14.386   7.263   3.824
52970SOL    HW160749  14.395   7.247   3.731
52970SOL    HW260750  14.367   7.177   3.862
52971SOL     OW60751   2.753   1.717   0.669
52971SOL    HW160752   2.739   1.639   0.723
52971SOL    HW260753   2.761   1.789   0.733
52972SOL     OW60754  13.247   5.260   1.185
52972SOL    HW160755  13.164   5.283   1.226
52972SOL    HW260756  13.223   5.235   1.096
52973SOL     OW60757   2.805   0.600  12.925
52973SOL    HW160758   2.867   0.603  12.998
52973SOL    HW260759   2.741   0.533  12.951
52974SOL     OW60760  10.651   7.753   5.408
52974SOL    HW160761  10.593   7.695   5.359
52974SOL    HW260762  10.597   7.830   5.426
52975SOL     OW60763   2.267   6.892  13.546
52975SOL    HW160764   2.286   6.892  13.453
52975SOL    HW260765   2.175   6.917  13.552
52976SOL     OW60766  11.522   8.295   5.086
52976SOL    HW160767  11.576   8.364   5.125
52976SOL    HW260768  11.462   8.342   5.028
52977SOL     OW60769   3.041   7.259   1.670
52977SOL    HW160770   2.957   7.255   1.715
52977SOL    HW260771   3.091   7.186   1.705
52978SOL     OW60772   6.585   2.421   5.621
52978SOL    HW160773   6.522   2.407   5.691
52978SOL    HW260774   6.663   2.372   5.648
52979SOL     OW60775  13.461   4.087   9.620
52979SOL    HW160776  13.373   4.068   9.649
52979SOL    HW260777  13.518   4.031   9.672
52980SOL     OW60778   5.237  12.396  12.254
52980SOL    HW160779   5.181  12.390  12.177
52980SOL    HW260780   5.198  12.337  12.318
52981SOL     OW60781   1.860   7.847  14.026
52981SOL    HW160782   1.836   7.924  14.077
52981SOL    HW260783   1.876   7.779  14.091
52982SOL     OW60784   5.647   4.989   6.639
52982SOL    HW160785   5.617   4.974   6.728
52982SOL    HW260786   5.693   4.909   6.614
52983SOL     OW60787  10.575   9.347   4.084
52983SOL    HW160788  10.481   9.358   4.075
52983SOL    HW260789  10.612   9.422   4.036
52984SOL     OW60790   2.591   4.769   6.823
52984SOL    HW160791   2.592   4.788   6.917
52984SOL    HW260792   2.679   4.792   6.793
52985SOL     OW60793   8.275   2.329  11.658
52985SOL    HW160794   8.307   2.412  11.694
52985SOL    HW260795   8.185   2.322  11.689
52986SOL     OW60796   8.092  14.704  10.175
52986SOL    HW160797   8.059  14.696  10.265
52986SOL    HW260798   8.109  14.614  10.148
52987SOL     OW60799  13.883   7.512  10.405
52987SOL    HW160800  13.819   7.533  10.473
52987SOL    HW260801  13.893   7.593  10.356
52988SOL     OW60802   9.210   6.298   7.363
52988SOL    HW160803   9.291   6.314   7.314
52988SOL    HW260804   9.202   6.373   7.422
52989SOL     OW60805   9.097   3.026  14.363
52989SOL    HW160806   9.019   3.080  14.344
52989SOL    HW260807   9.148   3.078  14.424
52990SOL     OW60808  12.752  11.642   4.351
52990SOL    HW160809  12.841  11.621   4.382
52990SOL    HW260810  12.762  11.724   4.304
52991SOL     OW60811   8.098   2.265  12.840
52991SOL    HW160812   8.059   2.182  12.812
52991SOL    HW260813   8.030   2.331  12.821
52992SOL     OW60814   5.206  13.442   3.313
52992SOL    HW160815   5.172  13.522   3.273
52992SOL    HW260816   5.141  13.418   3.378
52993SOL     OW60817   6.945  10.333  10.222
52993SOL    HW160818   6.871  10.393  10.233
52993SOL    HW260819   6.943  10.309  10.130
52994SOL     OW60820   4.687   7.519   8.163
52994SOL    HW160821   4.686   7.614   8.177
52994SOL    HW260822   4.605   7.500   8.119
52995SOL     OW60823  14.275   4.421  12.687
52995SOL    HW160824  14.318   4.343  12.651
52995SOL    HW260825  14.338   4.456  12.750
52996SOL     OW60826  13.299   1.741  14.670
52996SOL    HW160827  13.246   1.819  14.652
52996SOL    HW260828  13.241   1.684  14.721
52997SOL     OW60829   3.588   5.533   8.352
52997SOL    HW160830   3.626   5.457   8.397
52997SOL    HW260831   3.525   5.569   8.415
52998SOL     OW60832   9.157   3.483   4.145
52998SOL    HW160833   9.122   3.556   4.196
52998SOL    HW260834   9.096   3.411   4.162
52999SOL     OW60835  14.157   9.166  11.781
52999SOL    HW160836  14.209   9.245  11.772
52999SOL    HW260837  14.144   9.157  11.876
53000SOL     OW60838  12.398   3.965   3.464
53000SOL    HW160839  12.412   4.005   3.550
53000SOL    HW260840  12.460   3.892   3.460
53001SOL     OW60841   0.369   0.923   1.970
53001SOL    HW160842   0.280   0.935   2.004
53001SOL    HW260843   0.356   0.877   1.887
53002SOL     OW60844  12.506   5.449  11.382
53002SOL    HW160845  12.440   5.413  11.442
53002SOL    HW260846  12.516   5.382  11.315
53003SOL     OW60847   6.389  10.289   5.905
53003SOL    HW160848   6.396  10.197   5.880
53003SOL    HW260849   6.382  10.337   5.822
53004SOL     OW60850  10.707   9.408   0.110
53004SOL    HW160851  10.765   9.466   0.159
53004SOL    HW260852  10.688   9.336   0.170
53005SOL     OW60853   0.398   6.368   0.530
53005SOL    HW160854   0.408   6.273   0.540
53005SOL    HW260855   0.464   6.392   0.464
53006SOL     OW60856  13.742   9.388   5.859
53006SOL    HW160857  13.750   9.348   5.946
53006SOL    HW260858  13.701   9.320   5.806
53007SOL     OW60859   6.792   8.292  13.883
53007SOL    HW160860   6.832   8.367  13.927
53007SOL    HW260861   6.811   8.218  13.940
53008SOL     OW60862   5.136   9.499  14.230
53008SOL    HW160863   5.215   9.447  14.245
53008SOL    HW260864   5.140   9.567  14.297
53009SOL     OW60865   4.595   6.345   9.309
53009SOL    HW160866   4.562   6.269   9.356
53009SOL    HW260867   4.594   6.319   9.217
53010SOL     OW60868  10.268   4.410   1.862
53010SOL    HW160869  10.343   4.454   1.904
53010SOL    HW260870  10.200   4.478   1.859
53011SOL     OW60871   6.816   1.900   0.236
53011SOL    HW160872   6.877   1.957   0.188
53011SOL    HW260873   6.816   1.935   0.325
53012SOL     OW60874   4.636   0.243   8.602
53012SOL    HW160875   4.554   0.194   8.596
53012SOL    HW260876   4.683   0.203   8.675
53013SOL     OW60877  12.088   3.062   8.264
53013SOL    HW160878  12.036   3.107   8.331
53013SOL    HW260879  12.175   3.054   8.302
53014SOL     OW60880  11.262   6.025   5.875
53014SOL    HW160881  11.340   6.011   5.928
53014SOL    HW260882  11.197   6.061   5.936
53015SOL     OW60883  13.197   2.359   5.459
53015SOL    HW160884  13.262   2.365   5.530
53015SOL    HW260885  13.154   2.275   5.474
53016SOL     OW60886  12.410   4.084   2.368
53016SOL    HW160887  12.435   4.155   2.426
53016SOL    HW260888  12.492   4.049   2.335
53017SOL     OW60889   1.118   0.173   0.868
53017SOL    HW160890   1.077   0.133   0.791
53017SOL    HW260891   1.095   0.266   0.862
53018SOL     OW60892   0.659   3.738  11.602
53018SOL    HW160893   0.650   3.827  11.637
53018SOL    HW260894   0.590   3.688  11.645
53019SOL     OW60895  11.120  14.282   8.899
53019SOL    HW160896  11.173  14.298   8.977
53019SOL    HW260897  11.043  14.235   8.932
53020SOL     OW60898  13.834   6.702   9.987
53020SOL    HW160899  13.756   6.700   9.931
53020SOL    HW260900  13.812   6.647  10.062
53021SOL     OW60901   3.248   9.261   7.226
53021SOL    HW160902   3.270   9.203   7.152
53021SOL    HW260903   3.178   9.216   7.272
53022SOL     OW60904   6.488  10.984   5.042
53022SOL    HW160905   6.433  11.039   4.986
53022SOL    HW260906   6.476  11.019   5.130
53023SOL     OW60907  14.445   0.364   3.861
53023SOL    HW160908  14.511   0.303   3.828
53023SOL    HW260909  14.489   0.450   3.857
53024SOL     OW60910   8.498  12.707   2.692
53024SOL    HW160911   8.554  12.693   2.616
53024SOL    HW260912   8.449  12.625   2.702
53025SOL     OW60913   1.746  12.689   9.300
53025SOL    HW160914   1.755  12.693   9.204
53025SOL    HW260915   1.721  12.778   9.325
53026SOL     OW60916  13.420  10.573   3.571
53026SOL    HW160917  13.443  10.524   3.650
53026SOL    HW260918  13.414  10.664   3.599
53027SOL     OW60919   1.482  14.489  12.288
53027SOL    HW160920   1.405  14.514  12.339
53027SOL    HW260921   1.556  14.522  12.339
53028SOL     OW60922   6.554  12.521   4.930
53028SOL    HW160923   6.553  12.444   4.986
53028SOL    HW260924   6.464  12.555   4.935
53029SOL     OW60925  14.562  10.616   2.874
53029SOL    HW160926  14.517  10.532   2.860
53029SOL    HW260927  14.638  10.613   2.815
53030SOL     OW60928   4.045   3.399   3.337
53030SOL    HW160929   4.024   3.333   3.270
53030SOL    HW260930   4.027   3.483   3.295
53031SOL     OW60931   3.406   4.052   8.831
53031SOL    HW160932   3.363   4.050   8.916
53031SOL    HW260933   3.437   4.142   8.821
53032SOL     OW60934   8.433   1.104   8.822
53032SOL    HW160935   8.385   1.164   8.878
53032SOL    HW260936   8.423   1.019   8.865
53033SOL     OW60937  10.459   5.772   7.932
53033SOL    HW160938  10.523   5.765   8.003
53033SOL    HW260939  10.436   5.682   7.911
53034SOL     OW60940  10.248   2.267   2.992
53034SOL    HW160941  10.336   2.273   2.956
53034SOL    HW260942  10.190   2.262   2.916
53035SOL     OW60943  12.311   5.991   4.479
53035SOL    HW160944  12.326   5.918   4.419
53035SOL    HW260945  12.216   6.004   4.478
53036SOL     OW60946  14.074   3.670   5.904
53036SOL    HW160947  14.137   3.639   5.838
53036SOL    HW260948  14.116   3.650   5.988
53037SOL     OW60949  11.340   1.010  12.339
53037SOL    HW160950  11.334   0.917  12.315
53037SOL    HW260951  11.342   1.056  12.256
53038SOL     OW60952   1.020   9.349   0.545
53038SOL    HW160953   1.091   9.369   0.483
53038SOL    HW260954   1.066   9.330   0.627
53039SOL     OW60955   3.540   2.369   7.719
53039SOL    HW160956   3.450   2.398   7.702
53039SOL    HW260957   3.536   2.331   7.807
53040SOL     OW60958   4.173   9.246   4.839
53040SOL    HW160959   4.261   9.245   4.877
53040SOL    HW260960   4.118   9.203   4.905
53041SOL     OW60961   7.222  14.455   6.400
53041SOL    HW160962   7.155  14.520   6.379
53041SOL    HW260963   7.173  14.379   6.432
53042SOL     OW60964   3.295   0.019   5.356
53042SOL    HW160965   3.200   0.032   5.366
53042SOL    HW260966   3.303  14.804   5.322
53043SOL     OW60967   9.257  14.720   2.687
53043SOL    HW160968   9.230  14.789   2.626
53043SOL    HW260969   9.335  14.756   2.730
53044SOL     OW60970   5.142  12.472  11.976
53044SOL    HW160971   5.233  12.481  11.947
53044SOL    HW260972   5.107  12.561  11.972
53045SOL     OW60973  10.364   7.952  12.863
53045SOL    HW160974  10.456   7.931  12.879
53045SOL    HW260975  10.329   7.975  12.949
53046SOL     OW60976  12.068   1.753  11.907
53046SOL    HW160977  11.975   1.737  11.891
53046SOL    HW260978  12.071   1.787  11.996
53047SOL     OW60979  12.384   2.066   5.294
53047SOL    HW160980  12.420   2.041   5.379
53047SOL    HW260981  12.360   1.983   5.252
53048SOL     OW60982  10.393  13.325  12.000
53048SOL    HW160983  10.368  13.243  12.042
53048SOL    HW260984  10.328  13.338  11.932
53049SOL     OW60985  11.135   0.152   2.598
53049SOL    HW160986  11.181   0.105   2.668
53049SOL    HW260987  11.162   0.109   2.518
53050SOL     OW60988  14.423   4.682   9.174
53050SOL    HW160989  14.423   4.589   9.195
53050SOL    HW260990  14.362   4.690   9.101
53051SOL     OW60991   0.142   2.873  13.785
53051SOL    HW160992   0.189   2.838  13.860
53051SOL    HW260993   0.188   2.955  13.764
53052SOL     OW60994   2.140   8.570   2.269
53052SOL    HW160995   2.173   8.552   2.181
53052SOL    HW260996   2.163   8.491   2.319
53053SOL     OW60997   3.864  10.007  11.890
53053SOL    HW160998   3.842   9.921  11.856
53053SOL    HW260999   3.957  10.019  11.870
53054SOL     OW61000  14.115   5.058   6.671
53054SOL    HW161001  14.084   5.079   6.583
53054SOL    HW261002  14.134   5.143   6.711
53055SOL     OW61003  11.423   5.793   0.459
53055SOL    HW161004  11.380   5.754   0.383
53055SOL    HW261005  11.442   5.883   0.433
53056SOL     OW61006   3.893   4.724  12.420
53056SOL    HW161007   3.847   4.699  12.340
53056SOL    HW261008   3.962   4.784  12.391
53057SOL     OW61009  11.806   4.078  11.674
53057SOL    HW161010  11.742   4.139  11.639
53057SOL    HW261011  11.774   3.992  11.646
53058SOL     OW61012   5.119   4.375   0.090
53058SOL    HW161013   5.133   4.470   0.092
53058SOL    HW261014   5.132   4.347   0.180
53059SOL     OW61015  11.087   8.672  11.614
53059SOL    HW161016  11.172   8.661  11.657
53059SOL    HW261017  11.024   8.632  11.675
53060SOL     OW61018   6.841   1.299   9.111
53060SOL    HW161019   6.935   1.312   9.120
53060SOL    HW261020   6.827   1.291   9.017
53061SOL     OW61021   8.208   3.992  10.642
53061SOL    HW161022   8.137   3.941  10.604
53061SOL    HW261023   8.180   4.083  10.634
53062SOL     OW61024  11.920   2.451   5.117
53062SOL    HW161025  11.841   2.486   5.076
53062SOL    HW261026  11.903   2.458   5.211
53063SOL     OW61027  10.996  14.814   1.882
53063SOL    HW161028  11.092  14.815   1.886
53063SOL    HW261029  10.969   0.024   1.920
53064SOL     OW61030   7.411  12.086  12.806
53064SOL    HW161031   7.469  12.031  12.753
53064SOL    HW261032   7.378  12.151  12.744
53065SOL     OW61033   4.353   7.960   6.578
53065SOL    HW161034   4.282   7.970   6.641
53065SOL    HW261035   4.430   7.943   6.631
53066SOL     OW61036   8.070  13.050  14.489
53066SOL    HW161037   8.131  13.078  14.421
53066SOL    HW261038   8.121  12.994  14.547
53067SOL     OW61039   8.223   8.060   2.377
53067SOL    HW161040   8.142   8.048   2.328
53067SOL    HW261041   8.237   7.977   2.421
53068SOL     OW61042  12.711   6.635   7.921
53068SOL    HW161043  12.732   6.608   7.831
53068SOL    HW261044  12.779   6.700   7.942
53069SOL     OW61045  10.297   1.362   1.087
53069SOL    HW161046  10.325   1.272   1.097
53069SOL    HW261047  10.323   1.405   1.168
53070SOL     OW61048   3.462   4.125   5.629
53070SOL    HW161049   3.373   4.156   5.645
53070SOL    HW261050   3.518   4.199   5.652
53071SOL     OW61051   3.679   3.250   5.942
53071SOL    HW161052   3.753   3.293   5.984
53071SOL    HW261053   3.714   3.217   5.859
53072SOL     OW61054  13.992  10.487   2.955
53072SOL    HW161055  13.992  10.561   2.894
53072SOL    HW261056  14.081  10.454   2.952
53073SOL     OW61057   5.680   2.031   3.566
53073SOL    HW161058   5.609   1.986   3.612
53073SOL    HW261059   5.693   1.980   3.486
53074SOL     OW61060   7.752   1.121  14.872
53074SOL    HW161061   7.684   1.173  14.828
53074SOL    HW261062   7.704   1.048   0.039
53075SOL     OW61063   8.119   9.764  11.998
53075SOL    HW161064   8.158   9.722  11.922
53075SOL    HW261065   8.153   9.714  12.073
53076SOL     OW61066  13.397   4.794   2.026
53076SOL    HW161067  13.384   4.750   2.110
53076SOL    HW261068  13.310   4.822   1.999
53077SOL     OW61069   0.511   3.024   0.796
53077SOL    HW161070   0.546   2.970   0.866
53077SOL    HW261071   0.467   3.097   0.841
53078SOL     OW61072  10.606  10.644   2.792
53078SOL    HW161073  10.551  10.723   2.793
53078SOL    HW261074  10.575  10.595   2.716
53079SOL     OW61075   7.487   9.826  11.658
53079SOL    HW161076   7.535   9.763  11.712
53079SOL    HW261077   7.395   9.812  11.681
53080SOL     OW61078  10.790   4.200   2.469
53080SOL    HW161079  10.855   4.151   2.418
53080SOL    HW261080  10.826   4.289   2.473
53081SOL     OW61081  14.862   1.600  10.083
53081SOL    HW161082  14.869   1.695  10.090
53081SOL    HW261083   0.076   1.568  10.105
53082SOL     OW61084  14.642   9.188  11.656
53082SOL    HW161085  14.678   9.225  11.576
53082SOL    HW261086  14.708   9.206  11.723
53083SOL     OW61087   4.074  14.737  12.993
53083SOL    HW161088   4.029  14.678  12.933
53083SOL    HW261089   4.162  14.699  13.003
53084SOL     OW61090  13.440  10.762   7.382
53084SOL    HW161091  13.448  10.842   7.331
53084SOL    HW261092  13.458  10.692   7.320
53085SOL     OW61093   3.992  10.846  13.621
53085SOL    HW161094   3.981  10.916  13.556
53085SOL    HW261095   4.024  10.891  13.699
53086SOL     OW61096  11.191  10.750  14.821
53086SOL    HW161097  11.155  10.690  14.756
53086SOL    HW261098  11.281  10.721  14.834
53087SOL     OW61099  11.909   3.608   9.772
53087SOL    HW161100  11.829   3.590   9.722
53087SOL    HW261101  11.942   3.690   9.734
53088SOL     OW61102   8.574   8.208  10.927
53088SOL    HW161103   8.658   8.174  10.959
53088SOL    HW261104   8.517   8.132  10.921
53089SOL     OW61105  12.476  13.396  11.521
53089SOL    HW161106  12.522  13.431  11.597
53089SOL    HW261107  12.532  13.326  11.489
53090SOL     OW61108   7.380   1.872   7.871
53090SOL    HW161109   7.367   1.791   7.919
53090SOL    HW261110   7.292   1.901   7.848
53091SOL     OW61111   4.200   7.121   2.476
53091SOL    HW161112   4.264   7.053   2.458
53091SOL    HW261113   4.144   7.122   2.399
53092SOL     OW61114   2.220   6.918  14.302
53092SOL    HW161115   2.275   6.892  14.228
53092SOL    HW261116   2.264   6.882  14.379
53093SOL     OW61117  10.254   9.619   6.206
53093SOL    HW161118  10.268   9.595   6.298
53093SOL    HW261119  10.341   9.613   6.166
53094SOL     OW61120   5.449   8.171   8.554
53094SOL    HW161121   5.498   8.252   8.544
53094SOL    HW261122   5.371   8.183   8.499
53095SOL     OW61123   5.421  12.875  11.005
53095SOL    HW161124   5.377  12.832  10.932
53095SOL    HW261125   5.514  12.858  10.990
53096SOL     OW61126   5.983   1.479   5.903
53096SOL    HW161127   6.033   1.419   5.958
53096SOL    HW261128   5.911   1.426   5.868
53097SOL     OW61129  12.420  11.085   5.989
53097SOL    HW161130  12.370  11.047   5.918
53097SOL    HW261131  12.362  11.150   6.027
53098SOL     OW61132   1.195  13.902   0.787
53098SOL    HW161133   1.197  13.993   0.759
53098SOL    HW261134   1.242  13.854   0.719
53099SOL     OW61135   0.249   0.962   8.141
53099SOL    HW161136   0.294   1.007   8.211
53099SOL    HW261137   0.291   0.993   8.061
53100SOL     OW61138   0.857   0.048   6.277
53100SOL    HW161139   0.765   0.073   6.270
53100SOL    HW261140   0.879   0.014   6.190
53101SOL     OW61141   9.427   4.434   5.605
53101SOL    HW161142   9.385   4.510   5.565
53101SOL    HW261143   9.357   4.370   5.615
53102SOL     OW61144   6.066   0.784  14.151
53102SOL    HW161145   6.159   0.774  14.168
53102SOL    HW261146   6.051   0.878  14.150
53103SOL     OW61147  13.147  14.317  11.196
53103SOL    HW161148  13.214  14.266  11.150
53103SOL    HW261149  13.093  14.354  11.126
53104SOL     OW61150   0.496   1.234   7.048
53104SOL    HW161151   0.403   1.216   7.066
53104SOL    HW261152   0.505   1.329   7.061
53105SOL     OW61153  14.150   9.973   6.470
53105SOL    HW161154  14.161  10.041   6.537
53105SOL    HW261155  14.060   9.985   6.439
53106SOL     OW61156  11.224   0.606  13.606
53106SOL    HW161157  11.234   0.513  13.628
53106SOL    HW261158  11.314   0.638  13.598
53107SOL     OW61159   2.735  10.858   3.001
53107SOL    HW161160   2.644  10.849   2.970
53107SOL    HW261161   2.737  10.809   3.083
53108SOL     OW61162   8.062   1.265   3.584
53108SOL    HW161163   8.018   1.302   3.660
53108SOL    HW261164   7.998   1.274   3.513
53109SOL     OW61165  11.635  12.253   5.570
53109SOL    HW161166  11.632  12.339   5.527
53109SOL    HW261167  11.718  12.215   5.540
53110SOL     OW61168  10.026   1.296   6.103
53110SOL    HW161169   9.938   1.280   6.069
53110SOL    HW261170  10.022   1.266   6.194
53111SOL     OW61171   2.399   4.092   8.057
53111SOL    HW161172   2.482   4.055   8.089
53111SOL    HW261173   2.412   4.101   7.963
53112SOL     OW61174   2.680   0.006  14.819
53112SOL    HW161175   2.660  14.786  14.811
53112SOL    HW261176   2.696   0.020   0.039
53113SOL     OW61177  12.509   6.406   1.403
53113SOL    HW161178  12.464   6.459   1.337
53113SOL    HW261179  12.523   6.465   1.477
53114SOL     OW61180  11.499   7.312   9.846
53114SOL    HW161181  11.426   7.249   9.841
53114SOL    HW261182  11.457   7.398   9.845
53115SOL     OW61183   4.340  13.380   3.014
53115SOL    HW161184   4.332  13.340   3.101
53115SOL    HW261185   4.422  13.346   2.979
53116SOL     OW61186   0.701  11.222   4.882
53116SOL    HW161187   0.721  11.183   4.967
53116SOL    HW261188   0.680  11.314   4.901
53117SOL     OW61189   4.142   2.463  12.910
53117SOL    HW161190   4.199   2.539  12.898
53117SOL    HW261191   4.162   2.432  12.998
53118SOL     OW61192   4.114  11.413  13.155
53118SOL    HW161193   4.182  11.387  13.093
53118SOL    HW261194   4.037  11.429  13.100
53119SOL     OW61195   2.358  12.628  13.421
53119SOL    HW161196   2.354  12.687  13.496
53119SOL    HW261197   2.315  12.548  13.450
53120SOL     OW61198  10.151   7.577   3.008
53120SOL    HW161199  10.203   7.639   3.059
53120SOL    HW261200  10.174   7.491   3.044
53121SOL     OW61201   3.541   5.219  14.526
53121SOL    HW161202   3.507   5.182  14.607
53121SOL    HW261203   3.486   5.180  14.458
53122SOL     OW61204   3.703  14.698   6.098
53122SOL    HW161205   3.783  14.731   6.139
53122SOL    HW261206   3.643  14.685   6.170
53123SOL     OW61207   7.032  13.599  11.737
53123SOL    HW161208   7.067  13.570  11.821
53123SOL    HW261209   6.945  13.559  11.731
53124SOL     OW61210  14.255   9.717  11.760
53124SOL    HW161211  14.264   9.784  11.827
53124SOL    HW261212  14.162   9.717  11.738
53125SOL     OW61213  14.171  11.347   8.359
53125SOL    HW161214  14.159  11.256   8.385
53125SOL    HW261215  14.089  11.371   8.317
53126SOL     OW61216  13.639   1.163   1.851
53126SOL    HW161217  13.733   1.183   1.851
53126SOL    HW261218  13.609   1.190   1.938
53127SOL     OW61219  13.249   0.142   7.833
53127SOL    HW161220  13.214   0.079   7.896
53127SOL    HW261221  13.244   0.226   7.877
53128SOL     OW61222  10.682   1.966  11.504
53128SOL    HW161223  10.643   1.943  11.419
53128SOL    HW261224  10.613   1.949  11.567
53129SOL     OW61225   1.423  10.096  12.893
53129SOL    HW161226   1.358  10.133  12.833
53129SOL    HW261227   1.487  10.166  12.904
53130SOL     OW61228   9.451   2.199  11.840
53130SOL    HW161229   9.367   2.155  11.826
53130SOL    HW261230   9.516   2.129  11.833
53131SOL     OW61231   6.240   9.751   5.764
53131SOL    HW161232   6.294   9.678   5.795
53131SOL    HW261233   6.154   9.735   5.803
53132SOL     OW61234  10.221   3.085  10.568
53132SOL    HW161235  10.218   3.067  10.475
53132SOL    HW261236  10.165   3.162  10.579
53133SOL     OW61237   6.820  10.205  13.269
53133SOL    HW161238   6.768  10.124  13.272
53133SOL    HW261239   6.848  10.218  13.360
53134SOL     OW61240  10.670   3.648  11.549
53134SOL    HW161241  10.684   3.726  11.494
53134SOL    HW261242  10.578   3.652  11.574
53135SOL     OW61243   7.612   7.972   1.514
53135SOL    HW161244   7.628   8.004   1.425
53135SOL    HW261245   7.532   7.920   1.507
53136SOL     OW61246  12.341  12.455  12.622
53136SOL    HW161247  12.250  12.433  12.641
53136SOL    HW261248  12.346  12.457  12.526
53137SOL     OW61249   0.458   1.337   1.292
53137SOL    HW161250   0.457   1.303   1.382
53137SOL    HW261251   0.372   1.376   1.280
53138SOL     OW61252  10.802  14.405  12.637
53138SOL    HW161253  10.842  14.372  12.718
53138SOL    HW261254  10.853  14.482  12.614
53139SOL     OW61255   3.086   0.403   0.518
53139SOL    HW161256   3.105   0.325   0.571
53139SOL    HW261257   3.172   0.436   0.491
53140SOL     OW61258   0.046   5.283   5.082
53140SOL    HW161259   0.017   5.193   5.070
53140SOL    HW261260  14.870   5.333   5.016
53141SOL     OW61261   1.982  10.313  14.654
53141SOL    HW161262   1.935  10.252  14.598
53141SOL    HW261263   2.060  10.337  14.603
53142SOL     OW61264   4.811  10.457   8.482
53142SOL    HW161265   4.880  10.477   8.544
53142SOL    HW261266   4.794  10.363   8.494
53143SOL     OW61267  10.891   9.550   6.691
53143SOL    HW161268  10.959   9.577   6.629
53143SOL    HW261269  10.870   9.460   6.667
53144SOL     OW61270   7.413   3.463  11.227
53144SOL    HW161271   7.455   3.399  11.171
53144SOL    HW261272   7.321   3.437  11.230
53145SOL     OW61273  11.222   7.358   9.217
53145SOL    HW161274  11.140   7.403   9.196
53145SOL    HW261275  11.204   7.266   9.198
53146SOL     OW61276   9.810   2.444   4.525
53146SOL    HW161277   9.838   2.460   4.616
53146SOL    HW261278   9.891   2.448   4.474
53147SOL     OW61279   9.274   2.425   7.878
53147SOL    HW161280   9.242   2.336   7.892
53147SOL    HW261281   9.206   2.481   7.915
53148SOL     OW61282   9.457  13.850   3.758
53148SOL    HW161283   9.536  13.904   3.762
53148SOL    HW261284   9.389  13.905   3.798
53149SOL     OW61285   1.477  11.929   2.781
53149SOL    HW161286   1.393  11.905   2.821
53149SOL    HW261287   1.502  11.851   2.730
53150SOL     OW61288   6.832  10.012  12.071
53150SOL    HW161289   6.831  10.103  12.099
53150SOL    HW261290   6.863   9.963  12.148
53151SOL     OW61291   2.903   5.344   9.141
53151SOL    HW161292   2.855   5.284   9.083
53151SOL    HW261293   2.883   5.431   9.107
53152SOL     OW61294  12.223   9.756   3.278
53152SOL    HW161295  12.226   9.714   3.364
53152SOL    HW261296  12.129   9.762   3.258
53153SOL     OW61297   9.603   7.607  13.729
53153SOL    HW161298   9.572   7.518  13.711
53153SOL    HW261299   9.533   7.663  13.696
53154SOL     OW61300   9.002   7.728  14.313
53154SOL    HW161301   8.913   7.763  14.306
53154SOL    HW261302   9.054   7.780  14.252
53155SOL     OW61303   6.196  11.450  13.898
53155SOL    HW161304   6.201  11.395  13.820
53155SOL    HW261305   6.228  11.394  13.969
53156SOL     OW61306   2.438   1.310   1.168
53156SOL    HW161307   2.461   1.217   1.157
53156SOL    HW261308   2.522   1.356   1.158
53157SOL     OW61309   0.261  11.298   1.984
53157SOL    HW161310   0.222  11.231   1.928
53157SOL    HW261311   0.222  11.380   1.954
53158SOL     OW61312  11.212  14.035  12.176
53158SOL    HW161313  11.296  13.989  12.170
53158SOL    HW261314  11.158  13.996  12.107
53159SOL     OW61315  13.639  10.783   6.045
53159SOL    HW161316  13.725  10.760   6.080
53159SOL    HW261317  13.615  10.864   6.090
53160SOL     OW61318   2.768   8.015  10.383
53160SOL    HW161319   2.722   8.042  10.304
53160SOL    HW261320   2.728   7.931  10.406
53161SOL     OW61321   7.523   4.960   0.475
53161SOL    HW161322   7.534   5.001   0.561
53161SOL    HW261323   7.469   5.022   0.425
53162SOL     OW61324  12.665   3.350   9.403
53162SOL    HW161325  12.644   3.395   9.485
53162SOL    HW261326  12.613   3.270   9.405
53163SOL     OW61327   0.025   8.839   8.293
53163SOL    HW161328   0.067   8.816   8.210
53163SOL    HW261329   0.090   8.891   8.340
53164SOL     OW61330   4.954  12.307  14.798
53164SOL    HW161331   4.966  12.402  14.795
53164SOL    HW261332   4.881  12.290  14.738
53165SOL     OW61333  13.064   7.014   4.636
53165SOL    HW161334  13.013   6.992   4.558
53165SOL    HW261335  13.073   6.932   4.684
53166SOL     OW61336  13.219   9.713   5.435
53166SOL    HW161337  13.175   9.630   5.456
53166SOL    HW261338  13.197   9.729   5.343
53167SOL     OW61339  14.056   2.795   7.351
53167SOL    HW161340  14.067   2.781   7.257
53167SOL    HW261341  14.070   2.889   7.364
53168SOL     OW61342   5.363   3.007  12.318
53168SOL    HW161343   5.368   2.977  12.408
53168SOL    HW261344   5.454   3.012  12.289
53169SOL     OW61345   4.084   1.079  12.316
53169SOL    HW161346   4.100   0.984  12.321
53169SOL    HW261347   4.146   1.110  12.250
53170SOL     OW61348  10.910   9.774  13.948
53170SOL    HW161349  10.934   9.831  13.875
53170SOL    HW261350  10.834   9.816  13.987
53171SOL     OW61351   8.899   0.855   8.343
53171SOL    HW161352   8.898   0.823   8.433
53171SOL    HW261353   8.810   0.885   8.327
53172SOL     OW61354   7.295   3.628   5.038
53172SOL    HW161355   7.288   3.544   5.082
53172SOL    HW261356   7.205   3.653   5.018
53173SOL     OW61357   0.582  11.348   5.272
53173SOL    HW161358   0.550  11.416   5.213
53173SOL    HW261359   0.650  11.303   5.222
53174SOL     OW61360   5.361   9.552   4.975
53174SOL    HW161361   5.371   9.593   4.889
53174SOL    HW261362   5.343   9.624   5.034
53175SOL     OW61363   2.503  10.476  11.147
53175SOL    HW161364   2.414  10.455  11.175
53175SOL    HW261365   2.557  10.459  11.223
53176SOL     OW61366   2.149  14.290   6.049
53176SOL    HW161367   2.101  14.278   5.968
53176SOL    HW261368   2.152  14.385   6.062
53177SOL     OW61369  12.185   5.679  10.526
53177SOL    HW161370  12.118   5.661  10.460
53177SOL    HW261371  12.135   5.698  10.606
53178SOL     OW61372  13.917   6.095  14.563
53178SOL    HW161373  14.009   6.101  14.590
53178SOL    HW261374  13.922   6.073  14.469
53179SOL     OW61375  11.593   4.894   4.317
53179SOL    HW161376  11.577   4.802   4.336
53179SOL    HW261377  11.687   4.900   4.302
53180SOL     OW61378   9.405   7.597  14.043
53180SOL    HW161379   9.460   7.666  14.006
53180SOL    HW261380   9.465   7.544  14.096
53181SOL     OW61381  10.402   1.552   1.804
53181SOL    HW161382  10.428   1.548   1.712
53181SOL    HW261383  10.325   1.609   1.804
53182SOL     OW61384  12.347   2.510   2.737
53182SOL    HW161385  12.375   2.513   2.829
53182SOL    HW261386  12.359   2.600   2.706
53183SOL     OW61387   6.800  14.399   4.265
53183SOL    HW161388   6.800  14.485   4.308
53183SOL    HW261389   6.869  14.406   4.198
53184SOL     OW61390   1.952  10.150  13.723
53184SOL    HW161391   1.922  10.064  13.693
53184SOL    HW261392   2.044  10.152  13.698
53185SOL     OW61393   8.788  14.463  13.690
53185SOL    HW161394   8.823  14.379  13.661
53185SOL    HW261395   8.758  14.447  13.779
53186SOL     OW61396   0.836  11.122   8.851
53186SOL    HW161397   0.831  11.216   8.834
53186SOL    HW261398   0.930  11.105   8.859
53187SOL     OW61399  13.879  10.500  14.190
53187SOL    HW161400  13.925  10.494  14.273
53187SOL    HW261401  13.790  10.468  14.209
53188SOL     OW61402   3.922   6.613   9.720
53188SOL    HW161403   3.948   6.704   9.709
53188SOL    HW261404   3.939   6.593   9.812
53189SOL     OW61405   1.447  14.514   8.788
53189SOL    HW161406   1.422  14.598   8.749
53189SOL    HW261407   1.516  14.535   8.849
53190SOL     OW61408   8.349   9.295   5.256
53190SOL    HW161409   8.361   9.200   5.250
53190SOL    HW261410   8.257   9.305   5.283
53191SOL     OW61411  14.604  10.674   6.358
53191SOL    HW161412  14.580  10.760   6.393
53191SOL    HW261413  14.699  10.677   6.350
53192SOL     OW61414  11.339   2.085   3.995
53192SOL    HW161415  11.418   2.048   4.034
53192SOL    HW261416  11.316   2.024   3.925
53193SOL     OW61417  10.247  11.880   2.642
53193SOL    HW161418  10.251  11.796   2.689
53193SOL    HW261419  10.218  11.857   2.554
53194SOL     OW61420   3.566  11.616  13.520
53194SOL    HW161421   3.510  11.584  13.449
53194SOL    HW261422   3.524  11.698  13.548
53195SOL     OW61423   4.573   3.690   3.091
53195SOL    HW161424   4.491   3.641   3.088
53195SOL    HW261425   4.605   3.678   3.180
53196SOL     OW61426  12.016   7.294  10.664
53196SOL    HW161427  12.064   7.309  10.583
53196SOL    HW261428  12.064   7.344  10.730
53197SOL     OW61429   6.746   2.432   1.712
53197SOL    HW161430   6.781   2.473   1.791
53197SOL    HW261431   6.653   2.421   1.730
53198SOL     OW61432   8.630   5.904  13.675
53198SOL    HW161433   8.701   5.846  13.650
53198SOL    HW261434   8.556   5.846  13.692
53199SOL     OW61435  12.314  13.603   6.828
53199SOL    HW161436  12.392  13.548   6.816
53199SOL    HW261437  12.342  13.670   6.890
53200SOL     OW61438  14.460  13.227   2.128
53200SOL    HW161439  14.519  13.152   2.118
53200SOL    HW261440  14.406  13.205   2.204
53201SOL     OW61441   2.427  11.798  14.862
53201SOL    HW161442   2.467  11.776  14.778
53201SOL    HW261443   2.449  11.890   0.003
53202SOL     OW61444   8.653   0.707   2.530
53202SOL    HW161445   8.715   0.774   2.499
53202SOL    HW261446   8.608   0.749   2.603
53203SOL     OW61447   2.413  13.952  12.315
53203SOL    HW161448   2.326  13.918  12.292
53203SOL    HW261449   2.414  14.041  12.280
53204SOL     OW61450   8.308   9.365  14.545
53204SOL    HW161451   8.357   9.351  14.464
53204SOL    HW261452   8.257   9.445  14.529
53205SOL     OW61453  10.339  11.669   6.281
53205SOL    HW161454  10.386  11.609   6.339
53205SOL    HW261455  10.400  11.741   6.266
53206SOL     OW61456   8.259  11.479  14.669
53206SOL    HW161457   8.281  11.549  14.608
53206SOL    HW261458   8.223  11.409  14.614
53207SOL     OW61459  14.631  14.732   0.980
53207SOL    HW161460  14.570  14.677   1.029
53207SOL    HW261461  14.671  14.673   0.916
53208SOL     OW61462   8.709   1.832  12.037
53208SOL    HW161463   8.631   1.887  12.037
53208SOL    HW261464   8.675   1.743  12.026
53209SOL     OW61465   8.032   6.075  13.622
53209SOL    HW161466   7.956   6.095  13.677
53209SOL    HW261467   8.059   6.160  13.586
53210SOL     OW61468   3.790  13.995   5.356
53210SOL    HW161469   3.716  14.047   5.388
53210SOL    HW261470   3.866  14.049   5.375
53211SOL     OW61471   4.339   6.666  12.744
53211SOL    HW161472   4.252   6.652  12.706
53211SOL    HW261473   4.378   6.733  12.688
53212SOL     OW61474  10.545   4.762  11.694
53212SOL    HW161475  10.595   4.789  11.772
53212SOL    HW261476  10.500   4.842  11.666
53213SOL     OW61477   4.204   6.195   0.499
53213SOL    HW161478   4.114   6.163   0.497
53213SOL    HW261479   4.194   6.291   0.499
53214SOL     OW61480   8.983   3.638   0.553
53214SOL    HW161481   9.042   3.628   0.627
53214SOL    HW261482   9.040   3.629   0.476
53215SOL     OW61483  10.066   4.752   1.593
53215SOL    HW161484  10.155   4.781   1.613
53215SOL    HW261485  10.060   4.756   1.498
53216SOL     OW61486   0.008  11.401   5.375
53216SOL    HW161487   0.099  11.430   5.370
53216SOL    HW261488  14.848  11.439   5.457
53217SOL     OW61489   1.283   2.227  14.446
53217SOL    HW161490   1.215   2.274  14.495
53217SOL    HW261491   1.275   2.260  14.356
53218SOL     OW61492   8.605  13.850  14.550
53218SOL    HW161493   8.580  13.764  14.515
53218SOL    HW261494   8.685  13.833  14.600
53219SOL     OW61495   2.657   7.095  12.996
53219SOL    HW161496   2.605   7.114  12.918
53219SOL    HW261497   2.629   7.160  13.060
53220SOL     OW61498   0.177   3.492   1.013
53220SOL    HW161499   0.112   3.559   0.988
53220SOL    HW261500   0.261   3.532   0.993
53221SOL     OW61501   4.443  14.438   5.031
53221SOL    HW161502   4.426  14.519   4.982
53221SOL    HW261503   4.402  14.452   5.116
53222SOL     OW61504   7.605  11.044   3.843
53222SOL    HW161505   7.556  11.004   3.772
53222SOL    HW261506   7.546  11.042   3.918
53223SOL     OW61507   7.951  11.866   1.228
53223SOL    HW161508   7.991  11.918   1.158
53223SOL    HW261509   7.961  11.775   1.199
53224SOL     OW61510   4.629   2.154   7.259
53224SOL    HW161511   4.646   2.248   7.257
53224SOL    HW261512   4.539   2.147   7.291
53225SOL     OW61513  11.106   4.761  13.042
53225SOL    HW161514  11.166   4.744  13.115
53225SOL    HW261515  11.030   4.705  13.060
53226SOL     OW61516   2.089  10.762   3.149
53226SOL    HW161517   2.166  10.747   3.093
53226SOL    HW261518   2.016  10.728   3.097
53227SOL     OW61519   6.711   1.068  12.610
53227SOL    HW161520   6.667   1.148  12.581
53227SOL    HW261521   6.731   1.021  12.529
53228SOL     OW61522   4.222   7.359   1.883
53228SOL    HW161523   4.135   7.390   1.908
53228SOL    HW261524   4.263   7.333   1.965
53229SOL     OW61525  11.348  10.417   4.179
53229SOL    HW161526  11.395  10.487   4.225
53229SOL    HW261527  11.274  10.397   4.236
53230SOL     OW61528   5.744   0.097   0.012
53230SOL    HW161529   5.731   0.145   0.094
53230SOL    HW261530   5.768   0.008   0.039
53231SOL     OW61531   4.846   9.668   2.158
53231SOL    HW161532   4.773   9.680   2.096
53231SOL    HW261533   4.867   9.757   2.188
53232SOL     OW61534   8.787  11.553   2.420
53232SOL    HW161535   8.756  11.634   2.381
53232SOL    HW261536   8.877  11.573   2.447
53233SOL     OW61537   4.495  10.244  13.003
53233SOL    HW161538   4.449  10.253  12.919
53233SOL    HW261539   4.587  10.240  12.979
53234SOL     OW61540   9.780   6.867   4.173
53234SOL    HW161541   9.750   6.890   4.261
53234SOL    HW261542   9.751   6.939   4.117
53235SOL     OW61543   8.265   9.542   9.006
53235SOL    HW161544   8.211   9.463   9.008
53235SOL    HW261545   8.328   9.526   8.935
53236SOL     OW61546   9.367  11.043   0.639
53236SOL    HW161547   9.308  10.968   0.644
53236SOL    HW261548   9.448  11.007   0.602
53237SOL     OW61549  13.681   1.532  13.081
53237SOL    HW161550  13.635   1.448  13.069
53237SOL    HW261551  13.752   1.529  13.018
53238SOL     OW61552   4.209   9.871   2.063
53238SOL    HW161553   4.145   9.928   2.020
53238SOL    HW261554   4.273   9.932   2.100
53239SOL     OW61555   5.973  13.936   6.139
53239SOL    HW161556   5.927  13.873   6.195
53239SOL    HW261557   6.047  13.965   6.191
53240SOL     OW61558   7.082   1.831   5.011
53240SOL    HW161559   7.003   1.851   4.961
53240SOL    HW261560   7.070   1.741   5.040
53241SOL     OW61561   2.265   3.938  10.788
53241SOL    HW161562   2.201   3.880  10.830
53241SOL    HW261563   2.223   3.963  10.705
53242SOL     OW61564   7.001   6.817   3.025
53242SOL    HW161565   6.932   6.830   3.090
53242SOL    HW261566   6.961   6.762   2.957
53243SOL     OW61567  11.840  10.041   0.518
53243SOL    HW161568  11.788  10.120   0.535
53243SOL    HW261569  11.808  10.010   0.434
53244SOL     OW61570   4.861  12.165  12.620
53244SOL    HW161571   4.836  12.103  12.688
53244SOL    HW261572   4.908  12.234  12.666
53245SOL     OW61573  12.877   6.763  10.306
53245SOL    HW161574  12.930   6.835  10.270
53245SOL    HW261575  12.864   6.786  10.398
53246SOL     OW61576  13.544  13.885   3.211
53246SOL    HW161577  13.625  13.928   3.240
53246SOL    HW261578  13.479  13.910   3.276
53247SOL     OW61579   4.586   7.608  10.668
53247SOL    HW161580   4.676   7.581  10.686
53247SOL    HW261581   4.594   7.689  10.617
53248SOL     OW61582   3.251   0.806   3.284
53248SOL    HW161583   3.254   0.744   3.357
53248SOL    HW261584   3.299   0.762   3.213
53249SOL     OW61585   5.090   4.435   8.243
53249SOL    HW161586   5.044   4.518   8.232
53249SOL    HW261587   5.023   4.368   8.227
53250SOL     OW61588   2.408   2.190   8.246
53250SOL    HW161589   2.425   2.217   8.156
53250SOL    HW261590   2.313   2.181   8.251
53251SOL     OW61591   0.856   1.383   8.690
53251SOL    HW161592   0.764   1.356   8.692
53251SOL    HW261593   0.867   1.439   8.767
53252SOL     OW61594   9.559   0.870  10.040
53252SOL    HW161595   9.579   0.780  10.065
53252SOL    HW261596   9.523   0.862   9.951
53253SOL     OW61597   4.872   6.323   8.690
53253SOL    HW161598   4.859   6.371   8.609
53253SOL    HW261599   4.911   6.240   8.663
53254SOL     OW61600  11.339  12.773  13.846
53254SOL    HW161601  11.363  12.682  13.858
53254SOL    HW261602  11.402  12.822  13.899
53255SOL     OW61603   0.662  12.652   2.151
53255SOL    HW161604   0.722  12.579   2.162
53255SOL    HW261605   0.713  12.730   2.176
53256SOL     OW61606   4.398   1.290   5.010
53256SOL    HW161607   4.425   1.317   4.922
53256SOL    HW261608   4.369   1.371   5.052
53257SOL     OW61609  14.356  12.451   0.990
53257SOL    HW161610  14.327  12.464   0.899
53257SOL    HW261611  14.276  12.451   1.041
53258SOL     OW61612   2.917   6.912  13.344
53258SOL    HW161613   2.949   6.889  13.431
53258SOL    HW261614   2.844   6.851  13.329
53259SOL     OW61615   1.150   0.767  10.433
53259SOL    HW161616   1.203   0.783  10.354
53259SOL    HW261617   1.107   0.851  10.450
53260SOL     OW61618   2.083  12.581   8.125
53260SOL    HW161619   2.116  12.565   8.036
53260SOL    HW261620   2.145  12.644   8.162
53261SOL     OW61621  12.954   6.624  11.363
53261SOL    HW161622  13.028   6.637  11.423
53261SOL    HW261623  12.922   6.536  11.384
53262SOL     OW61624   1.143  11.964   0.727
53262SOL    HW161625   1.232  11.996   0.709
53262SOL    HW261626   1.152  11.908   0.804
53263SOL     OW61627  10.975  13.871  10.152
53263SOL    HW161628  10.907  13.923  10.195
53263SOL    HW261629  11.020  13.934  10.095
53264SOL     OW61630   8.655   0.222   3.220
53264SOL    HW161631   8.696   0.228   3.306
53264SOL    HW261632   8.728   0.223   3.158
53265SOL     OW61633  10.278  14.712   0.909
53265SOL    HW161634  10.252  14.801   0.930
53265SOL    HW261635  10.360  14.699   0.957
53266SOL     OW61636   1.283  14.013   9.275
53266SOL    HW161637   1.369  14.045   9.302
53266SOL    HW261638   1.241  14.089   9.236
53267SOL     OW61639  13.585   1.791   1.622
53267SOL    HW161640  13.512   1.835   1.579
53267SOL    HW261641  13.574   1.699   1.597
53268SOL     OW61642  12.457   3.048   2.840
53268SOL    HW161643  12.471   3.140   2.817
53268SOL    HW261644  12.403   3.051   2.919
53269SOL     OW61645  10.426   3.610  12.493
53269SOL    HW161646  10.470   3.692  12.517
53269SOL    HW261647  10.427   3.557  12.573
53270SOL     OW61648   1.361   1.728   8.248
53270SOL    HW161649   1.429   1.664   8.266
53270SOL    HW261650   1.285   1.697   8.298
53271SOL     OW61651  14.655   3.504   3.074
53271SOL    HW161652  14.584   3.537   3.018
53271SOL    HW261653  14.700   3.439   3.021
53272SOL     OW61654   3.319  14.397   9.355
53272SOL    HW161655   3.350  14.352   9.434
53272SOL    HW261656   3.228  14.420   9.374
53273SOL     OW61657   6.664   2.455   2.442
53273SOL    HW161658   6.706   2.467   2.357
53273SOL    HW261659   6.735   2.431   2.501
53274SOL     OW61660   7.102   7.005   0.409
53274SOL    HW161661   7.177   6.956   0.376
53274SOL    HW261662   7.068   6.952   0.481
53275SOL     OW61663  11.715  13.262  10.250
53275SOL    HW161664  11.790  13.303  10.294
53275SOL    HW261665  11.718  13.295  10.160
53276SOL     OW61666  10.549  12.265  11.079
53276SOL    HW161667  10.547  12.273  10.984
53276SOL    HW261668  10.530  12.353  11.111
53277SOL     OW61669  10.451  10.670   0.795
53277SOL    HW161670  10.453  10.765   0.794
53277SOL    HW261671  10.455  10.644   0.703
53278SOL     OW61672  13.801   9.836  10.000
53278SOL    HW161673  13.729   9.774   9.983
53278SOL    HW261674  13.837   9.854   9.913
53279SOL     OW61675   2.390   8.561  13.958
53279SOL    HW161676   2.371   8.486  13.902
53279SOL    HW261677   2.407   8.633  13.898
53280SOL     OW61678   4.180  14.514   4.208
53280SOL    HW161679   4.261  14.501   4.257
53280SOL    HW261680   4.156  14.427   4.177
53281SOL     OW61681   5.999   5.629   4.060
53281SOL    HW161682   6.009   5.535   4.074
53281SOL    HW261683   5.964   5.637   3.972
53282SOL     OW61684   2.301   0.966   2.634
53282SOL    HW161685   2.209   0.962   2.659
53282SOL    HW261686   2.305   0.921   2.549
53283SOL     OW61687  14.172   9.683   6.313
53283SOL    HW161688  14.171   9.675   6.408
53283SOL    HW261689  14.099   9.741   6.293
53284SOL     OW61690  12.229   8.239   9.206
53284SOL    HW161691  12.135   8.225   9.200
53284SOL    HW261692  12.244   8.322   9.161
53285SOL     OW61693  11.549  11.119   7.526
53285SOL    HW161694  11.637  11.080   7.526
53285SOL    HW261695  11.495  11.056   7.480
53286SOL     OW61696  10.153   6.967   5.991
53286SOL    HW161697  10.062   6.945   5.968
53286SOL    HW261698  10.145   7.034   6.058
53287SOL     OW61699   0.021  13.044  13.846
53287SOL    HW161700   0.115  13.028  13.836
53287SOL    HW261701   0.014  13.139  13.854
53288SOL     OW61702  12.127   2.165   9.012
53288SOL    HW161703  12.036   2.136   9.001
53288SOL    HW261704  12.177   2.085   9.024
53289SOL     OW61705   5.184   4.026  14.676
53289SOL    HW161706   5.102   4.026  14.726
53289SOL    HW261707   5.230   4.104  14.706
53290SOL     OW61708  10.494   1.665   0.252
53290SOL    HW161709  10.407   1.663   0.294
53290SOL    HW261710  10.477   1.699   0.164
53291SOL     OW61711   4.657  13.228   6.606
53291SOL    HW161712   4.593  13.297   6.621
53291SOL    HW261713   4.732  13.252   6.660
53292SOL     OW61714   3.970   5.073   5.906
53292SOL    HW161715   3.892   5.116   5.942
53292SOL    HW261716   3.969   4.986   5.946
53293SOL     OW61717   3.895   5.665  14.590
53293SOL    HW161718   3.801   5.671  14.571
53293SOL    HW261719   3.916   5.573  14.574
53294SOL     OW61720   1.221   7.605   4.370
53294SOL    HW161721   1.216   7.577   4.279
53294SOL    HW261722   1.229   7.700   4.366
53295SOL     OW61723  14.264   9.165   1.571
53295SOL    HW161724  14.178   9.182   1.533
53295SOL    HW261725  14.321   9.153   1.496
53296SOL     OW61726   3.944   4.254  14.667
53296SOL    HW161727   3.893   4.216  14.739
53296SOL    HW261728   4.019   4.294  14.711
53297SOL     OW61729   0.848   3.622   1.550
53297SOL    HW161730   0.807   3.596   1.632
53297SOL    HW261731   0.776   3.625   1.487
53298SOL     OW61732   7.440   5.005   8.639
53298SOL    HW161733   7.501   4.988   8.568
53298SOL    HW261734   7.494   5.009   8.718
53299SOL     OW61735   1.301  14.614  12.467
53299SOL    HW161736   1.212  14.647  12.481
53299SOL    HW261737   1.334  14.597  12.555
53300SOL     OW61738  10.080  10.960  13.795
53300SOL    HW161739  10.005  10.965  13.855
53300SOL    HW261740  10.092  10.867  13.778
53301SOL     OW61741  13.240   8.750   5.842
53301SOL    HW161742  13.271   8.795   5.920
53301SOL    HW261743  13.279   8.799   5.769
53302SOL     OW61744   7.428   2.464  10.988
53302SOL    HW161745   7.512   2.477  10.943
53302SOL    HW261746   7.363   2.461  10.918
53303SOL     OW61747  13.714   9.241  14.783
53303SOL    HW161748  13.642   9.247  14.720
53303SOL    HW261749  13.771   9.314  14.761
53304SOL     OW61750   1.564   6.816  13.622
53304SOL    HW161751   1.564   6.720  13.623
53304SOL    HW261752   1.586   6.841  13.712
53305SOL     OW61753   2.325   5.348  10.304
53305SOL    HW161754   2.313   5.367  10.398
53305SOL    HW261755   2.236   5.340  10.270
53306SOL     OW61756   1.278  12.748   3.327
53306SOL    HW161757   1.288  12.710   3.240
53306SOL    HW261758   1.253  12.839   3.311
53307SOL     OW61759   5.517   1.847   3.916
53307SOL    HW161760   5.517   1.873   3.824
53307SOL    HW261761   5.596   1.888   3.953
53308SOL     OW61762   6.846  10.366  11.906
53308SOL    HW161763   6.785  10.295  11.883
53308SOL    HW261764   6.806  10.445  11.868
53309SOL     OW61765  13.483   7.251  13.600
53309SOL    HW161766  13.548   7.186  13.574
53309SOL    HW261767  13.404   7.227  13.552
53310SOL     OW61768   1.952   2.907   4.840
53310SOL    HW161769   1.923   2.885   4.929
53310SOL    HW261770   1.968   3.001   4.843
53311SOL     OW61771  11.369   7.678   6.088
53311SOL    HW161772  11.357   7.588   6.058
53311SOL    HW261773  11.338   7.678   6.178
53312SOL     OW61774   9.364   4.689  12.549
53312SOL    HW161775   9.399   4.629  12.483
53312SOL    HW261776   9.281   4.720  12.512
53313SOL     OW61777   9.796  14.380  13.243
53313SOL    HW161778   9.832  14.324  13.174
53313SOL    HW261779   9.835  14.466  13.227
53314SOL     OW61780   9.914   5.956   7.281
53314SOL    HW161781   9.986   5.897   7.258
53314SOL    HW261782   9.836   5.902   7.276
53315SOL     OW61783   7.189  12.756  12.690
53315SOL    HW161784   7.220  12.826  12.632
53315SOL    HW261785   7.259  12.745  12.754
53316SOL     OW61786   6.341   3.271  12.451
53316SOL    HW161787   6.350   3.284  12.356
53316SOL    HW261788   6.256   3.308  12.472
53317SOL     OW61789   3.310   5.315   4.249
53317SOL    HW161790   3.313   5.399   4.296
53317SOL    HW261791   3.229   5.274   4.279
53318SOL     OW61792   7.454   4.247   9.424
53318SOL    HW161793   7.369   4.203   9.423
53318SOL    HW261794   7.451   4.302   9.503
53319SOL     OW61795   6.113  11.882  12.731
53319SOL    HW161796   6.044  11.933  12.772
53319SOL    HW261797   6.069  11.804  12.696
53320SOL     OW61798  13.286  11.572  12.192
53320SOL    HW161799  13.356  11.619  12.146
53320SOL    HW261800  13.213  11.634  12.193
53321SOL     OW61801   5.849   3.185  12.185
53321SOL    HW161802   5.872   3.269  12.224
53321SOL    HW261803   5.926   3.160  12.134
53322SOL     OW61804   7.407   3.898   1.361
53322SOL    HW161805   7.390   3.855   1.445
53322SOL    HW261806   7.323   3.939   1.339
53323SOL     OW61807  10.602  10.697  13.223
53323SOL    HW161808  10.522  10.750  13.222
53323SOL    HW261809  10.673  10.761  13.213
53324SOL     OW61810  14.212   8.223   2.674
53324SOL    HW161811  14.272   8.171   2.728
53324SOL    HW261812  14.178   8.161   2.609
53325SOL     OW61813  11.041   5.795  14.827
53325SOL    HW161814  10.947   5.797  14.839
53325SOL    HW261815  11.076   5.852   0.022
53326SOL     OW61816   9.594   4.228   2.592
53326SOL    HW161817   9.565   4.292   2.527
53326SOL    HW261818   9.567   4.143   2.557
53327SOL     OW61819  14.549   7.034  11.806
53327SOL    HW161820  14.614   7.101  11.825
53327SOL    HW261821  14.481   7.046  11.872
53328SOL     OW61822  11.018  12.350   4.679
53328SOL    HW161823  11.109  12.373   4.697
53328SOL    HW261824  11.003  12.270   4.729
53329SOL     OW61825  10.415   5.221   5.541
53329SOL    HW161826  10.443   5.144   5.590
53329SOL    HW261827  10.463   5.216   5.459
53330SOL     OW61828   3.316   5.828  11.224
53330SOL    HW161829   3.400   5.867  11.248
53330SOL    HW261830   3.331   5.790  11.138
53331SOL     OW61831  11.521   0.478   4.323
53331SOL    HW161832  11.599   0.488   4.268
53331SOL    HW261833  11.485   0.566   4.330
53332SOL     OW61834   7.087   6.396   7.732
53332SOL    HW161835   7.138   6.319   7.757
53332SOL    HW261836   7.066   6.439   7.815
53333SOL     OW61837   3.785   0.031   1.589
53333SOL    HW161838   3.719   0.062   1.651
53333SOL    HW261839   3.864   0.081   1.611
53334SOL     OW61840  13.937  13.915   8.809
53334SOL    HW161841  14.025  13.881   8.821
53334SOL    HW261842  13.882  13.837   8.801
53335SOL     OW61843   0.952   8.665  13.113
53335SOL    HW161844   0.881   8.722  13.144
53335SOL    HW261845   0.983   8.707  13.033
53336SOL     OW61846   3.594   1.465  12.106
53336SOL    HW161847   3.508   1.438  12.073
53336SOL    HW261848   3.580   1.554  12.137
53337SOL     OW61849   3.818   6.723  14.162
53337SOL    HW161850   3.822   6.812  14.195
53337SOL    HW261851   3.758   6.677  14.221
53338SOL     OW61852  13.069  12.191   9.354
53338SOL    HW161853  13.153  12.230   9.331
53338SOL    HW261854  13.015  12.201   9.275
53339SOL     OW61855   3.422  13.044  12.604
53339SOL    HW161856   3.449  13.094  12.682
53339SOL    HW261857   3.457  12.957  12.618
53340SOL     OW61858   2.337   4.420  14.377
53340SOL    HW161859   2.323   4.479  14.303
53340SOL    HW261860   2.331   4.476  14.454
53341SOL     OW61861  13.143   9.348   9.428
53341SOL    HW161862  13.086   9.356   9.505
53341SOL    HW261863  13.084   9.362   9.353
53342SOL     OW61864  13.954   7.628   0.726
53342SOL    HW161865  13.932   7.570   0.653
53342SOL    HW261866  14.031   7.677   0.696
53343SOL     OW61867   8.875  13.327   9.687
53343SOL    HW161868   8.782  13.338   9.703
53343SOL    HW261869   8.913  13.314   9.774
53344SOL     OW61870  14.629   6.713  10.938
53344SOL    HW161871  14.577   6.642  10.975
53344SOL    HW261872  14.586   6.793  10.969
53345SOL     OW61873   7.116  13.951   2.500
53345SOL    HW161874   7.083  14.025   2.448
53345SOL    HW261875   7.108  13.980   2.590
53346SOL     OW61876  11.758   6.442  11.286
53346SOL    HW161877  11.807   6.523  11.291
53346SOL    HW261878  11.718   6.443  11.199
53347SOL     OW61879   4.344   5.528   2.534
53347SOL    HW161880   4.340   5.589   2.608
53347SOL    HW261881   4.265   5.474   2.544
53348SOL     OW61882   5.505  10.746  13.050
53348SOL    HW161883   5.446  10.795  13.107
53348SOL    HW261884   5.467  10.658  13.047
53349SOL     OW61885  13.853   7.600   8.211
53349SOL    HW161886  13.882   7.630   8.297
53349SOL    HW261887  13.912   7.644   8.150
53350SOL     OW61888   5.194   7.967  10.139
53350SOL    HW161889   5.109   8.011  10.130
53350SOL    HW261890   5.180   7.879  10.104
53351SOL     OW61891  10.602   4.949  13.852
53351SOL    HW161892  10.522   4.987  13.888
53351SOL    HW261893  10.622   4.876  13.909
53352SOL     OW61894   9.649   8.152   7.623
53352SOL    HW161895   9.606   8.116   7.545
53352SOL    HW261896   9.660   8.076   7.681
53353SOL     OW61897   1.957  10.798   6.264
53353SOL    HW161898   1.944  10.800   6.169
53353SOL    HW261899   1.951  10.706   6.287
53354SOL     OW61900  13.201  10.613  12.849
53354SOL    HW161901  13.133  10.628  12.914
53354SOL    HW261902  13.280  10.651  12.888
53355SOL     OW61903   1.631   3.060   8.502
53355SOL    HW161904   1.552   3.103   8.471
53355SOL    HW261905   1.678   3.035   8.423
53356SOL     OW61906   4.045   5.014  11.750
53356SOL    HW161907   4.107   5.072  11.704
53356SOL    HW261908   3.972   5.071  11.772
53357SOL     OW61909   3.897   8.514  13.049
53357SOL    HW161910   3.953   8.441  13.073
53357SOL    HW261911   3.938   8.550  12.969
53358SOL     OW61912   7.864   4.349   0.266
53358SOL    HW161913   7.954   4.319   0.279
53358SOL    HW261914   7.852   4.418   0.331
53359SOL     OW61915   4.974   4.263  10.336
53359SOL    HW161916   5.060   4.224  10.350
53359SOL    HW261917   4.989   4.337  10.278
53360SOL     OW61918   5.775   2.362   0.047
53360SOL    HW161919   5.781   2.339   0.140
53360SOL    HW261920   5.702   2.423   0.042
53361SOL     OW61921  10.444  14.253   8.823
53361SOL    HW161922  10.403  14.301   8.751
53361SOL    HW261923  10.437  14.312   8.898
53362SOL     OW61924  13.635   9.160   1.369
53362SOL    HW161925  13.563   9.100   1.389
53362SOL    HW261926  13.667   9.130   1.283
53363SOL     OW61927  11.390   4.255   6.314
53363SOL    HW161928  11.347   4.178   6.351
53363SOL    HW261929  11.468   4.221   6.271
53364SOL     OW61930   9.578   4.744   7.840
53364SOL    HW161931   9.520   4.684   7.793
53364SOL    HW261932   9.520   4.808   7.880
53365SOL     OW61933   4.913  14.377   8.217
53365SOL    HW161934   4.927  14.283   8.219
53365SOL    HW261935   4.819  14.387   8.198
53366SOL     OW61936   2.832   6.532   1.859
53366SOL    HW161937   2.826   6.591   1.783
53366SOL    HW261938   2.741   6.517   1.884
53367SOL     OW61939   7.754   7.410   1.516
53367SOL    HW161940   7.792   7.329   1.548
53367SOL    HW261941   7.743   7.397   1.422
53368SOL     OW61942   8.428  13.364  12.756
53368SOL    HW161943   8.498  13.429  12.759
53368SOL    HW261944   8.366  13.391  12.823
53369SOL     OW61945   4.519  11.189   8.134
53369SOL    HW161946   4.424  11.183   8.124
53369SOL    HW261947   4.547  11.247   8.063
53370SOL     OW61948   9.402  11.979  13.685
53370SOL    HW161949   9.401  11.933  13.601
53370SOL    HW261950   9.398  11.909  13.750
53371SOL     OW61951  14.306   9.390   7.050
53371SOL    HW161952  14.242   9.460   7.042
53371SOL    HW261953  14.333   9.371   6.960
53372SOL     OW61954   4.682   0.794   2.563
53372SOL    HW161955   4.749   0.854   2.597
53372SOL    HW261956   4.722   0.756   2.485
53373SOL     OW61957  10.285   5.182   2.128
53373SOL    HW161958  10.354   5.248   2.127
53373SOL    HW261959  10.222   5.211   2.062
53374SOL     OW61960   3.438  13.968   9.146
53374SOL    HW161961   3.419  14.062   9.135
53374SOL    HW261962   3.533  13.962   9.144
53375SOL     OW61963   8.765   2.564  10.555
53375SOL    HW161964   8.809   2.649  10.552
53375SOL    HW261965   8.724   2.556  10.469
53376SOL     OW61966  10.580   7.268  11.392
53376SOL    HW161967  10.656   7.319  11.419
53376SOL    HW261968  10.536   7.246  11.474
53377SOL     OW61969   7.154   5.109   9.459
53377SOL    HW161970   7.078   5.138   9.408
53377SOL    HW261971   7.120   5.097   9.548
53378SOL     OW61972   8.423   5.809   9.694
53378SOL    HW161973   8.378   5.738   9.649
53378SOL    HW261974   8.357   5.877   9.706
53379SOL     OW61975   9.799   6.349  12.245
53379SOL    HW161976   9.823   6.399  12.167
53379SOL    HW261977   9.783   6.261  12.213
53380SOL     OW61978   7.500   1.210   0.564
53380SOL    HW161979   7.526   1.301   0.572
53380SOL    HW261980   7.520   1.171   0.649
53381SOL     OW61981   0.552   7.824   6.646
53381SOL    HW161982   0.490   7.758   6.674
53381SOL    HW261983   0.531   7.839   6.554
53382SOL     OW61984   3.376  14.062   7.110
53382SOL    HW161985   3.286  14.042   7.137
53382SOL    HW261986   3.370  14.078   7.016
53383SOL     OW61987   1.790   2.290   1.093
53383SOL    HW161988   1.820   2.295   1.184
53383SOL    HW261989   1.712   2.235   1.097
53384SOL     OW61990  14.633   6.114   7.733
53384SOL    HW161991  14.676   6.157   7.807
53384SOL    HW261992  14.575   6.181   7.697
53385SOL     OW61993  13.311   7.907   9.955
53385SOL    HW161994  13.398   7.880   9.925
53385SOL    HW261995  13.278   7.963   9.885
53386SOL     OW61996  14.251   2.126   3.729
53386SOL    HW161997  14.296   2.054   3.772
53386SOL    HW261998  14.181   2.151   3.790
53387SOL     OW61999  14.319  13.669  12.006
53387SOL    HW162000  14.249  13.609  11.978
53387SOL    HW262001  14.356  13.702  11.925
53388SOL     OW62002   6.896   4.377  10.519
53388SOL    HW162003   6.850   4.431  10.583
53388SOL    HW262004   6.906   4.292  10.563
53389SOL     OW62005  14.831   4.275   8.714
53389SOL    HW162006  14.849   4.368   8.724
53389SOL    HW262007   0.023   4.231   8.769
53390SOL     OW62008   8.188   3.724   4.493
53390SOL    HW162009   8.212   3.683   4.410
53390SOL    HW262010   8.237   3.807   4.494
53391SOL     OW62011   0.901   6.484   6.896
53391SOL    HW162012   0.895   6.449   6.985
53391SOL    HW262013   0.826   6.543   6.888
53392SOL     OW62014   9.564   6.085   3.113
53392SOL    HW162015   9.516   6.074   3.031
53392SOL    HW262016   9.622   6.160   3.097
53393SOL     OW62017  14.318   3.965   6.436
53393SOL    HW162018  14.269   3.963   6.354
53393SOL    HW262019  14.385   3.897   6.425
53394SOL     OW62020  13.592  10.651  10.392
53394SOL    HW162021  13.576  10.569  10.439
53394SOL    HW262022  13.548  10.718  10.444
53395SOL     OW62023  12.910   5.616   6.874
53395SOL    HW162024  12.853   5.639   6.800
53395SOL    HW262025  12.967   5.547   6.840
53396SOL     OW62026  14.454  14.494   5.046
53396SOL    HW162027  14.450  14.494   5.142
53396SOL    HW262028  14.369  14.530   5.018
53397SOL     OW62029   6.520   1.265  12.816
53397SOL    HW162030   6.598   1.321  12.819
53397SOL    HW262031   6.451   1.318  12.856
53398SOL     OW62032   7.087   8.276  14.017
53398SOL    HW162033   7.097   8.267  13.922
53398SOL    HW262034   7.025   8.207  14.041
53399SOL     OW62035   6.308   7.546  13.390
53399SOL    HW162036   6.263   7.477  13.342
53399SOL    HW262037   6.312   7.513  13.480
53400SOL     OW62038  11.961   9.701  13.803
53400SOL    HW162039  11.950   9.770  13.738
53400SOL    HW262040  11.980   9.748  13.884
53401SOL     OW62041  14.203  11.792  10.738
53401SOL    HW162042  14.243  11.755  10.659
53401SOL    HW262043  14.261  11.764  10.809
53402SOL     OW62044   4.769   4.009   2.683
53402SOL    HW162045   4.817   4.046   2.757
53402SOL    HW262046   4.813   3.926   2.665
53403SOL     OW62047   0.117   3.782   8.647
53403SOL    HW162048   0.027   3.815   8.651
53403SOL    HW262049   0.142   3.768   8.739
53404SOL     OW62050   4.013   4.000   0.151
53404SOL    HW162051   3.926   4.036   0.131
53404SOL    HW262052   4.045   3.968   0.067
53405SOL     OW62053   5.800   8.025  14.139
53405SOL    HW162054   5.810   8.088  14.068
53405SOL    HW262055   5.787   8.079  14.217
53406SOL     OW62056  12.271  10.208  13.626
53406SOL    HW162057  12.298  10.161  13.705
53406SOL    HW262058  12.302  10.154  13.554
53407SOL     OW62059   7.552  12.048   6.049
53407SOL    HW162060   7.620  12.107   6.017
53407SOL    HW262061   7.521  12.089   6.130
53408SOL     OW62062  14.452   5.393   2.878
53408SOL    HW162063  14.454   5.487   2.859
53408SOL    HW262064  14.403   5.354   2.806
53409SOL     OW62065   6.974   6.495   3.629
53409SOL    HW162066   6.895   6.506   3.681
53409SOL    HW262067   6.956   6.542   3.548
53410SOL     OW62068   3.397   6.606   8.739
53410SOL    HW162069   3.387   6.686   8.790
53410SOL    HW262070   3.419   6.637   8.651
53411SOL     OW62071   0.845   2.417   1.425
53411SOL    HW162072   0.764   2.467   1.438
53411SOL    HW262073   0.842   2.389   1.334
53412SOL     OW62074   9.090  11.846   7.635
53412SOL    HW162075   9.095  11.930   7.681
53412SOL    HW262076   9.174  11.839   7.590
53413SOL     OW62077   9.135   8.889  12.081
53413SOL    HW162078   9.214   8.868  12.030
53413SOL    HW262079   9.166   8.950  12.148
53414SOL     OW62080  13.741   3.885   2.283
53414SOL    HW162081  13.826   3.840   2.281
53414SOL    HW262082  13.677   3.816   2.265
53415SOL     OW62083   1.453   4.502   8.761
53415SOL    HW162084   1.424   4.510   8.852
53415SOL    HW262085   1.403   4.428   8.726
53416SOL     OW62086   1.660  13.135  12.668
53416SOL    HW162087   1.653  13.048  12.708
53416SOL    HW262088   1.576  13.177  12.687
53417SOL     OW62089   5.061   9.097  11.767
53417SOL    HW162090   5.146   9.122  11.805
53417SOL    HW262091   4.999   9.159  11.804
53418SOL     OW62092   6.621  11.394   8.067
53418SOL    HW162093   6.620  11.372   8.161
53418SOL    HW262094   6.577  11.479   8.062
53419SOL     OW62095   3.829   0.471   8.914
53419SOL    HW162096   3.850   0.398   8.972
53419SOL    HW262097   3.733   0.472   8.912
53420SOL     OW62098  10.420   7.832   5.713
53420SOL    HW162099  10.489   7.895   5.732
53420SOL    HW262100  10.384   7.809   5.798
53421SOL     OW62101   5.038   6.620   4.295
53421SOL    HW162102   5.050   6.570   4.214
53421SOL    HW262103   5.000   6.703   4.267
53422SOL     OW62104  12.463   6.166   3.806
53422SOL    HW162105  12.454   6.260   3.789
53422SOL    HW262106  12.436   6.124   3.724
53423SOL     OW62107   8.460   3.981   3.123
53423SOL    HW162108   8.530   4.013   3.066
53423SOL    HW262109   8.501   3.972   3.209
53424SOL     OW62110   0.943   1.342   8.239
53424SOL    HW162111   0.949   1.347   8.335
53424SOL    HW262112   0.849   1.344   8.221
53425SOL     OW62113   7.712  11.350   0.474
53425SOL    HW162114   7.665  11.278   0.516
53425SOL    HW262115   7.671  11.359   0.388
53426SOL     OW62116   4.802   1.242  11.488
53426SOL    HW162117   4.772   1.243  11.397
53426SOL    HW262118   4.861   1.317  11.495
53427SOL     OW62119  14.431   6.737   6.844
53427SOL    HW162120  14.380   6.810   6.807
53427SOL    HW262121  14.381   6.659   6.822
53428SOL     OW62122   2.320   3.359  10.461
53428SOL    HW162123   2.348   3.302  10.534
53428SOL    HW262124   2.295   3.441  10.504
53429SOL     OW62125   8.428   2.927   1.732
53429SOL    HW162126   8.363   2.986   1.772
53429SOL    HW262127   8.496   2.919   1.798
53430SOL     OW62128  10.515  11.753   2.299
53430SOL    HW162129  10.484  11.825   2.244
53430SOL    HW262130  10.553  11.796   2.375
53431SOL     OW62131  12.877   7.268   7.529
53431SOL    HW162132  12.837   7.354   7.530
53431SOL    HW262133  12.836   7.221   7.602
53432SOL     OW62134   8.158   4.449   4.600
53432SOL    HW162135   8.098   4.396   4.653
53432SOL    HW262136   8.241   4.444   4.647
53433SOL     OW62137   1.389   6.639   3.760
53433SOL    HW162138   1.390   6.734   3.772
53433SOL    HW262139   1.444   6.605   3.830
53434SOL     OW62140   8.685   5.019   2.675
53434SOL    HW162141   8.607   5.074   2.675
53434SOL    HW262142   8.652   4.931   2.656
53435SOL     OW62143   1.614   3.244   0.938
53435SOL    HW162144   1.597   3.149   0.932
53435SOL    HW262145   1.557   3.273   1.010
53436SOL     OW62146  14.031   6.203   2.471
53436SOL    HW162147  14.028   6.123   2.525
53436SOL    HW262148  14.113   6.195   2.422
53437SOL     OW62149   0.471  14.374  11.427
53437SOL    HW162150   0.389  14.422  11.416
53437SOL    HW262151   0.537  14.442  11.439
53438SOL     OW62152  11.390   9.070  11.332
53438SOL    HW162153  11.377   8.976  11.345
53438SOL    HW262154  11.415   9.078  11.240
53439SOL     OW62155   8.669   1.423  11.786
53439SOL    HW162156   8.722   1.471  11.849
53439SOL    HW262157   8.732   1.380  11.729
53440SOL     OW62158   5.720   5.822   8.733
53440SOL    HW162159   5.813   5.799   8.742
53440SOL    HW262160   5.689   5.769   8.659
53441SOL     OW62161   8.043  10.155   4.990
53441SOL    HW162162   8.015  10.206   4.913
53441SOL    HW262163   8.134  10.134   4.972
53442SOL     OW62164   3.161  14.258   5.507
53442SOL    HW162165   3.245  14.217   5.528
53442SOL    HW262166   3.168  14.346   5.544
53443SOL     OW62167  14.819   7.636  12.856
53443SOL    HW162168  14.849   7.726  12.867
53443SOL    HW262169   0.024   7.588  12.826
53444SOL     OW62170   1.145   1.822   3.123
53444SOL    HW162171   1.144   1.834   3.218
53444SOL    HW262172   1.064   1.864   3.093
53445SOL     OW62173  12.152  11.420   6.713
53445SOL    HW162174  12.074  11.431   6.659
53445SOL    HW262175  12.209  11.364   6.660
53446SOL     OW62176   3.346  13.456  12.371
53446SOL    HW162177   3.357  13.460  12.466
53446SOL    HW262178   3.433  13.478  12.337
53447SOL     OW62179  12.611   8.402  10.845
53447SOL    HW162180  12.541   8.440  10.898
53447SOL    HW262181  12.569   8.382  10.762
53448SOL     OW62182   4.402  11.709   8.604
53448SOL    HW162183   4.495  11.727   8.591
53448SOL    HW262184   4.362  11.795   8.619
53449SOL     OW62185   0.461   8.605  13.599
53449SOL    HW162186   0.434   8.615  13.690
53449SOL    HW262187   0.407   8.535  13.564
53450SOL     OW62188   5.120   3.733  12.047
53450SOL    HW162189   5.084   3.687  12.122
53450SOL    HW262190   5.214   3.713  12.049
53451SOL     OW62191  13.153   1.211  13.933
53451SOL    HW162192  13.100   1.184  14.007
53451SOL    HW262193  13.099   1.276  13.887
53452SOL     OW62194   4.797   2.302  10.073
53452SOL    HW162195   4.795   2.254  10.156
53452SOL    HW262196   4.813   2.393  10.099
53453SOL     OW62197   7.246  12.836   1.193
53453SOL    HW162198   7.246  12.749   1.232
53453SOL    HW262199   7.322  12.879   1.233
53454SOL     OW62200   6.098   1.277   6.591
53454SOL    HW162201   6.084   1.370   6.576
53454SOL    HW262202   6.061   1.234   6.513
53455SOL     OW62203   4.417  12.184   4.107
53455SOL    HW162204   4.420  12.093   4.078
53455SOL    HW262205   4.378  12.231   4.033
53456SOL     OW62206   4.237   6.831   8.160
53456SOL    HW162207   4.268   6.741   8.165
53456SOL    HW262208   4.229   6.848   8.066
53457SOL     OW62209   7.513   3.768   3.546
53457SOL    HW162210   7.599   3.741   3.578
53457SOL    HW262211   7.455   3.695   3.569
53458SOL     OW62212  10.174   9.931   7.966
53458SOL    HW162213  10.137   9.966   8.047
53458SOL    HW262214  10.173  10.005   7.905
53459SOL     OW62215  11.098   2.994   7.423
53459SOL    HW162216  11.083   3.058   7.491
53459SOL    HW262217  11.043   2.919   7.447
53460SOL     OW62218   2.963   3.928   1.902
53460SOL    HW162219   3.019   3.868   1.952
53460SOL    HW262220   2.880   3.880   1.892
53461SOL     OW62221   0.569  11.979   6.130
53461SOL    HW162222   0.619  11.901   6.154
53461SOL    HW262223   0.490  11.945   6.087
53462SOL     OW62224   8.289   4.099   2.297
53462SOL    HW162225   8.222   4.136   2.239
53462SOL    HW262226   8.266   4.133   2.384
53463SOL     OW62227  10.155   5.967   1.604
53463SOL    HW162228  10.141   5.915   1.684
53463SOL    HW262229  10.236   6.016   1.621
53464SOL     OW62230   0.992   2.736  13.951
53464SOL    HW162231   0.948   2.754  13.868
53464SOL    HW262232   1.060   2.673  13.929
53465SOL     OW62233  11.762  12.299   6.576
53465SOL    HW162234  11.754  12.335   6.487
53465SOL    HW262235  11.793  12.373   6.629
53466SOL     OW62236   9.443   2.999   4.391
53466SOL    HW162237   9.404   2.926   4.439
53466SOL    HW262238   9.491   2.957   4.320
53467SOL     OW62239   2.127  11.967   4.260
53467SOL    HW162240   2.181  11.961   4.338
53467SOL    HW262241   2.181  11.928   4.191
53468SOL     OW62242   8.093   3.120  11.844
53468SOL    HW162243   8.017   3.065  11.867
53468SOL    HW262244   8.117   3.163  11.926
53469SOL     OW62245  11.083   8.624   1.098
53469SOL    HW162246  11.060   8.648   1.188
53469SOL    HW262247  11.124   8.702   1.062
53470SOL     OW62248  10.573   5.319   5.039
53470SOL    HW162249  10.505   5.253   5.026
53470SOL    HW262250  10.655   5.273   5.026
53471SOL     OW62251   4.565   9.351  13.006
53471SOL    HW162252   4.496   9.402  13.049
53471SOL    HW262253   4.597   9.293  13.075
53472SOL     OW62254   5.369  11.852   0.403
53472SOL    HW162255   5.327  11.887   0.325
53472SOL    HW262256   5.463  11.869   0.389
53473SOL     OW62257   4.863  13.997   3.260
53473SOL    HW162258   4.937  13.940   3.282
53473SOL    HW262259   4.820  13.953   3.188
53474SOL     OW62260   4.801   9.628   3.759
53474SOL    HW162261   4.810   9.533   3.767
53474SOL    HW262262   4.886   9.657   3.728
53475SOL     OW62263  12.343  13.386   5.420
53475SOL    HW162264  12.249  13.393   5.405
53475SOL    HW262265  12.358  13.430   5.504
53476SOL     OW62266   6.507   4.535  12.697
53476SOL    HW162267   6.421   4.572  12.718
53476SOL    HW262268   6.545   4.596  12.634
53477SOL     OW62269  14.330  10.892   8.707
53477SOL    HW162270  14.352  10.799   8.704
53477SOL    HW262271  14.293  10.905   8.794
53478SOL     OW62272  10.735  11.719   6.023
53478SOL    HW162273  10.829  11.707   6.034
53478SOL    HW262274  10.707  11.763   6.104
53479SOL     OW62275   6.871  10.396   8.730
53479SOL    HW162276   6.881  10.468   8.668
53479SOL    HW262277   6.902  10.432   8.813
53480SOL     OW62278  11.117  14.373   0.464
53480SOL    HW162279  11.163  14.436   0.408
53480SOL    HW262280  11.059  14.426   0.518
53481SOL     OW62281  14.482   5.907  13.741
53481SOL    HW162282  14.479   5.834  13.802
53481SOL    HW262283  14.552   5.885  13.680
53482SOL     OW62284  10.793   5.468   8.820
53482SOL    HW162285  10.698   5.460   8.830
53482SOL    HW262286  10.829   5.431   8.901
53483SOL     OW62287   5.638   9.506   5.605
53483SOL    HW162288   5.660   9.427   5.655
53483SOL    HW262289   5.592   9.473   5.528
53484SOL     OW62290   1.917   5.789  12.886
53484SOL    HW162291   1.912   5.720  12.819
53484SOL    HW262292   1.985   5.759  12.946
53485SOL     OW62293   6.006  12.790  12.733
53485SOL    HW162294   5.927  12.837  12.757
53485SOL    HW262295   5.976  12.724  12.670
53486SOL     OW62296  10.856  13.821   9.388
53486SOL    HW162297  10.899  13.737   9.406
53486SOL    HW262298  10.883  13.877   9.461
53487SOL     OW62299   3.064  14.769   9.958
53487SOL    HW162300   3.081  14.770   9.864
53487SOL    HW262301   3.117  14.697   9.992
53488SOL     OW62302   6.628   7.639  10.008
53488SOL    HW162303   6.695   7.571  10.011
53488SOL    HW262304   6.663   7.704   9.947
53489SOL     OW62305   9.365  10.404  12.934
53489SOL    HW162306   9.315  10.479  12.902
53489SOL    HW262307   9.299  10.338  12.953
53490SOL     OW62308  14.562   6.276  13.550
53490SOL    HW162309  14.543   6.310  13.638
53490SOL    HW262310  14.623   6.204  13.565
53491SOL     OW62311   6.761   1.911  11.584
53491SOL    HW162312   6.675   1.952  11.588
53491SOL    HW262313   6.813   1.971  11.530
53492SOL     OW62314  14.315   1.720  10.293
53492SOL    HW162315  14.364   1.651  10.249
53492SOL    HW262316  14.276   1.771  10.222
53493SOL     OW62317   6.345  10.696   0.807
53493SOL    HW162318   6.285  10.629   0.840
53493SOL    HW262319   6.340  10.688   0.711
53494SOL     OW62320   2.749   0.395  11.228
53494SOL    HW162321   2.729   0.305  11.251
53494SOL    HW262322   2.752   0.396  11.132
53495SOL     OW62323   4.741   3.209  10.891
53495SOL    HW162324   4.795   3.278  10.929
53495SOL    HW262325   4.711   3.158  10.966
53496SOL     OW62326  13.911   6.460   8.244
53496SOL    HW162327  13.843   6.399   8.270
53496SOL    HW262328  13.871   6.546   8.253
53497SOL     OW62329  12.814   3.239   3.178
53497SOL    HW162330  12.775   3.157   3.207
53497SOL    HW262331  12.878   3.213   3.112
53498SOL     OW62332   8.992   4.866   4.277
53498SOL    HW162333   9.042   4.911   4.209
53498SOL    HW262334   8.914   4.920   4.289
53499SOL     OW62335   6.699   1.298   3.942
53499SOL    HW162336   6.795   1.307   3.949
53499SOL    HW262337   6.670   1.382   3.906
53500SOL     OW62338   8.407   0.282  14.091
53500SOL    HW162339   8.328   0.229  14.107
53500SOL    HW262340   8.406   0.347  14.162
53501SOL     OW62341  11.607  11.530   6.417
53501SOL    HW162342  11.649  11.533   6.503
53501SOL    HW262343  11.514  11.519   6.437
53502SOL     OW62344   5.746   9.224   5.647
53502SOL    HW162345   5.748   9.128   5.643
53502SOL    HW262346   5.716   9.244   5.736
53503SOL     OW62347  11.423  14.773  11.780
53503SOL    HW162348  11.470  14.701  11.822
53503SOL    HW262349  11.369  14.810  11.850
53504SOL     OW62350  12.524   6.876   7.583
53504SOL    HW162351  12.470   6.846   7.657
53504SOL    HW262352  12.522   6.804   7.521
53505SOL     OW62353   3.673   7.218  13.972
53505SOL    HW162354   3.604   7.264  13.924
53505SOL    HW262355   3.643   7.127  13.977
53506SOL     OW62356   6.050  13.734   2.327
53506SOL    HW162357   6.013  13.744   2.415
53506SOL    HW262358   6.017  13.809   2.278
53507SOL     OW62359   4.477  14.036  13.062
53507SOL    HW162360   4.505  14.126  13.077
53507SOL    HW262361   4.522  14.009  12.983
53508SOL     OW62362   2.480   5.248   3.730
53508SOL    HW162363   2.454   5.311   3.797
53508SOL    HW262364   2.472   5.162   3.773
53509SOL     OW62365  13.433   6.127  12.539
53509SOL    HW162366  13.447   6.086  12.454
53509SOL    HW262367  13.518   6.123  12.583
53510SOL     OW62368   5.219   2.191   6.377
53510SOL    HW162369   5.252   2.182   6.466
53510SOL    HW262370   5.202   2.101   6.348
53511SOL     OW62371   1.411   5.446   3.201
53511SOL    HW162372   1.373   5.379   3.143
53511SOL    HW262373   1.505   5.428   3.201
53512SOL     OW62374  13.735   5.336   7.391
53512SOL    HW162375  13.740   5.339   7.296
53512SOL    HW262376  13.646   5.364   7.412
53513SOL     OW62377   2.010   0.027  13.754
53513SOL    HW162378   1.924   0.040  13.713
53513SOL    HW262379   2.054   0.112  13.743
53514SOL     OW62380   1.446   7.120   2.626
53514SOL    HW162381   1.403   7.202   2.648
53514SOL    HW262382   1.376   7.055   2.628
53515SOL     OW62383   6.309   8.198   7.231
53515SOL    HW162384   6.353   8.181   7.314
53515SOL    HW262385   6.362   8.151   7.166
53516SOL     OW62386   8.029  14.339   6.256
53516SOL    HW162387   8.086  14.404   6.298
53516SOL    HW262388   8.074  14.316   6.175
53517SOL     OW62389   5.292   3.598   9.370
53517SOL    HW162390   5.333   3.647   9.442
53517SOL    HW262391   5.359   3.536   9.342
53518SOL     OW62392   5.496  11.496   8.370
53518SOL    HW162393   5.464  11.466   8.455
53518SOL    HW262394   5.494  11.418   8.315
53519SOL     OW62395   7.299   7.934  12.593
53519SOL    HW162396   7.391   7.933  12.566
53519SOL    HW262397   7.283   7.846  12.627
53520SOL     OW62398  12.829   4.443   0.148
53520SOL    HW162399  12.788   4.452   0.234
53520SOL    HW262400  12.895   4.513   0.146
53521SOL     OW62401  13.304   3.284  10.186
53521SOL    HW162402  13.233   3.219  10.190
53521SOL    HW262403  13.372   3.249  10.242
53522SOL     OW62404  14.106   9.667   4.982
53522SOL    HW162405  14.170   9.715   5.034
53522SOL    HW262406  14.072   9.732   4.921
53523SOL     OW62407   4.664   3.799  14.043
53523SOL    HW162408   4.598   3.774  13.978
53523SOL    HW262409   4.624   3.873  14.090
53524SOL     OW62410   8.900   9.158   7.227
53524SOL    HW162411   8.868   9.145   7.317
53524SOL    HW262412   8.990   9.125   7.229
53525SOL     OW62413   8.460   6.104  12.761
53525SOL    HW162414   8.513   6.154  12.823
53525SOL    HW262415   8.435   6.169  12.695
53526SOL     OW62416   2.906  12.553  12.465
53526SOL    HW162417   2.997  12.529  12.447
53526SOL    HW262418   2.854  12.492  12.412
53527SOL     OW62419   1.816   9.819   5.288
53527SOL    HW162420   1.726   9.851   5.280
53527SOL    HW262421   1.868   9.880   5.235
53528SOL     OW62422   4.597   7.329   1.467
53528SOL    HW162423   4.576   7.405   1.521
53528SOL    HW262424   4.512   7.290   1.447
53529SOL     OW62425   8.294  13.027   7.452
53529SOL    HW162426   8.382  12.990   7.441
53529SOL    HW262427   8.285  13.040   7.546
53530SOL     OW62428   1.857   7.733  10.360
53530SOL    HW162429   1.781   7.677  10.376
53530SOL    HW262430   1.839   7.774  10.275
53531SOL     OW62431   3.785   2.751  14.762
53531SOL    HW162432   3.723   2.798  14.707
53531SOL    HW262433   3.853   2.721  14.701
53532SOL     OW62434   9.004   9.277   4.034
53532SOL    HW162435   8.981   9.224   3.958
53532SOL    HW262436   8.966   9.363   4.016
53533SOL     OW62437  11.875  12.334  12.525
53533SOL    HW162438  11.893  12.261  12.584
53533SOL    HW262439  11.945  12.396  12.541
53534SOL     OW62440   9.158  14.520  12.113
53534SOL    HW162441   9.228  14.513  12.048
53534SOL    HW262442   9.166  14.440  12.166
53535SOL     OW62443  12.329   0.418  11.385
53535SOL    HW162444  12.405   0.476  11.379
53535SOL    HW262445  12.256   0.470  11.351
53536SOL     OW62446   2.608   8.677   9.706
53536SOL    HW162447   2.587   8.678   9.613
53536SOL    HW262448   2.677   8.612   9.715
53537SOL     OW62449  12.303  12.685  12.809
53537SOL    HW162450  12.381  12.740  12.795
53537SOL    HW262451  12.329  12.599  12.776
53538SOL     OW62452  14.216  13.882  10.747
53538SOL    HW162453  14.181  13.969  10.765
53538SOL    HW262454  14.180  13.827  10.817
53539SOL     OW62455   4.107   6.276  12.757
53539SOL    HW162456   4.042   6.344  12.741
53539SOL    HW262457   4.083   6.205  12.697
53540SOL     OW62458   0.437   8.901   8.903
53540SOL    HW162459   0.477   8.929   8.985
53540SOL    HW262460   0.509   8.900   8.840
53541SOL     OW62461  12.893   7.955   0.615
53541SOL    HW162462  12.868   7.863   0.615
53541SOL    HW262463  12.945   7.965   0.535
53542SOL     OW62464   0.557  11.008   7.642
53542SOL    HW162465   0.519  11.096   7.639
53542SOL    HW262466   0.495  10.957   7.695
53543SOL     OW62467  11.236  11.476  13.334
53543SOL    HW162468  11.211  11.393  13.292
53543SOL    HW262469  11.316  11.455  13.382
53544SOL     OW62470   8.403   3.864   4.902
53544SOL    HW162471   8.310   3.847   4.915
53544SOL    HW262472   8.416   3.952   4.936
53545SOL     OW62473  10.399   5.109  10.915
53545SOL    HW162474  10.488   5.075  10.926
53545SOL    HW262475  10.411   5.199  10.883
53546SOL     OW62476  11.338  13.458   5.695
53546SOL    HW162477  11.416  13.428   5.743
53546SOL    HW262478  11.271  13.392   5.714
53547SOL     OW62479   2.310  10.142  10.227
53547SOL    HW162480   2.383  10.099  10.181
53547SOL    HW262481   2.235  10.085  10.211
53548SOL     OW62482   2.171   6.977   9.443
53548SOL    HW162483   2.110   7.012   9.378
53548SOL    HW262484   2.116   6.959   9.520
53549SOL     OW62485   1.509  12.329   5.043
53549SOL    HW162486   1.566  12.328   5.120
53549SOL    HW262487   1.563  12.370   4.975
53550SOL     OW62488   7.283  11.251   3.784
53550SOL    HW162489   7.240  11.331   3.756
53550SOL    HW262490   7.318  11.213   3.703
53551SOL     OW62491   3.841  11.786   0.334
53551SOL    HW162492   3.815  11.705   0.378
53551SOL    HW262493   3.933  11.772   0.312
53552SOL     OW62494   0.836   9.074   0.036
53552SOL    HW162495   0.859   9.001  14.850
53552SOL    HW262496   0.910   9.134   0.030
53553SOL     OW62497  13.738   8.341  13.101
53553SOL    HW162498  13.713   8.411  13.161
53553SOL    HW262499  13.785   8.279  13.156
53554SOL     OW62500   5.955   4.641   2.344
53554SOL    HW162501   5.981   4.554   2.314
53554SOL    HW262502   6.037   4.691   2.348
53555SOL     OW62503  13.107   1.159  11.681
53555SOL    HW162504  13.053   1.110  11.619
53555SOL    HW262505  13.170   1.094  11.713
53556SOL     OW62506   2.815   7.283   1.810
53556SOL    HW162507   2.755   7.234   1.866
53556SOL    HW262508   2.759   7.340   1.758
53557SOL     OW62509   1.980   5.724   5.356
53557SOL    HW162510   2.044   5.792   5.380
53557SOL    HW262511   2.029   5.666   5.297
53558SOL     OW62512   0.582   5.455   5.371
53558SOL    HW162513   0.604   5.431   5.462
53558SOL    HW262514   0.627   5.538   5.357
53559SOL     OW62515   9.470   9.831   4.591
53559SOL    HW162516   9.394   9.805   4.643
53559SOL    HW262517   9.539   9.847   4.656
53560SOL     OW62518   9.360   5.228   6.120
53560SOL    HW162519   9.287   5.172   6.096
53560SOL    HW262520   9.389   5.268   6.038
53561SOL     OW62521  10.845  12.545  10.078
53561SOL    HW162522  10.911  12.584  10.020
53561SOL    HW262523  10.880  12.459  10.100
53562SOL     OW62524   6.945   3.182   8.595
53562SOL    HW162525   6.992   3.171   8.677
53562SOL    HW262526   6.853   3.190   8.621
53563SOL     OW62527   6.730  11.208   5.128
53563SOL    HW162528   6.744  11.147   5.200
53563SOL    HW262529   6.751  11.294   5.165
53564SOL     OW62530  14.005   7.020   4.587
53564SOL    HW162531  13.993   7.113   4.608
53564SOL    HW262532  13.933   7.000   4.527
53565SOL     OW62533   9.930   4.272   9.028
53565SOL    HW162534   9.981   4.285   9.108
53565SOL    HW262535   9.870   4.346   9.026
53566SOL     OW62536   3.435  10.915  13.820
53566SOL    HW162537   3.429  10.898  13.914
53566SOL    HW262538   3.405  10.834  13.779
53567SOL     OW62539  12.900   2.726   0.985
53567SOL    HW162540  12.851   2.721   0.903
53567SOL    HW262541  12.890   2.639   1.024
53568SOL     OW62542  11.796   7.617  12.787
53568SOL    HW162543  11.860   7.612  12.715
53568SOL    HW262544  11.833   7.563  12.856
53569SOL     OW62545  14.833   6.131   3.788
53569SOL    HW162546  14.846   6.226   3.794
53569SOL    HW262547  14.813   6.104   3.877
53570SOL     OW62548   1.952  13.244  12.435
53570SOL    HW162549   2.033  13.215  12.392
53570SOL    HW262550   1.901  13.164  12.447
53571SOL     OW62551   4.536   3.779   4.877
53571SOL    HW162552   4.457   3.826   4.905
53571SOL    HW262553   4.543   3.798   4.783
53572SOL     OW62554   9.735   4.442   5.497
53572SOL    HW162555   9.777   4.481   5.421
53572SOL    HW262556   9.645   4.423   5.469
53573SOL     OW62557  14.552   5.034  12.570
53573SOL    HW162558  14.522   5.122  12.592
53573SOL    HW262559  14.602   5.006  12.647
53574SOL     OW62560   1.763  14.540  13.190
53574SOL    HW162561   1.784  14.604  13.257
53574SOL    HW262562   1.675  14.510  13.212
53575SOL     OW62563   8.562  12.049  11.488
53575SOL    HW162564   8.558  11.996  11.567
53575SOL    HW262565   8.477  12.037  11.446
53576SOL     OW62566   1.242   7.802   4.084
53576SOL    HW162567   1.330   7.838   4.098
53576SOL    HW262568   1.197   7.815   4.168
53577SOL     OW62569   7.589   4.850   7.225
53577SOL    HW162570   7.641   4.930   7.214
53577SOL    HW262571   7.572   4.845   7.319
53578SOL     OW62572   3.574  11.424  10.357
53578SOL    HW162573   3.618  11.462  10.433
53578SOL    HW262574   3.561  11.498  10.297
53579SOL     OW62575  13.754   4.237  12.806
53579SOL    HW162576  13.785   4.148  12.827
53579SOL    HW262577  13.833   4.283  12.777
53580SOL     OW62578   8.263  11.890   3.921
53580SOL    HW162579   8.187  11.939   3.952
53580SOL    HW262580   8.316  11.954   3.875
53581SOL     OW62581  13.882  13.197   6.002
53581SOL    HW162582  13.878  13.138   6.078
53581SOL    HW262583  13.798  13.243   6.004
53582SOL     OW62584   0.698   4.605  13.704
53582SOL    HW162585   0.736   4.686  13.737
53582SOL    HW262586   0.665   4.560  13.782
53583SOL     OW62587   4.914  10.408  10.282
53583SOL    HW162588   4.943  10.326  10.242
53583SOL    HW262589   4.871  10.381  10.364
53584SOL     OW62590   1.647   0.864   1.127
53584SOL    HW162591   1.596   0.852   1.047
53584SOL    HW262592   1.704   0.939   1.108
53585SOL     OW62593   0.126   3.021   1.326
53585SOL    HW162594   0.079   3.102   1.343
53585SOL    HW262595   0.117   3.007   1.232
53586SOL     OW62596  12.007  10.185  13.527
53586SOL    HW162597  12.077  10.228  13.577
53586SOL    HW262598  12.030  10.200  13.435
53587SOL     OW62599   1.730  13.993   5.410
53587SOL    HW162600   1.809  14.023   5.366
53587SOL    HW262601   1.710  13.909   5.368
53588SOL     OW62602  13.859   9.961  14.033
53588SOL    HW162603  13.799   9.942  13.961
53588SOL    HW262604  13.903  10.042  14.007
53589SOL     OW62605  10.825  13.262  14.045
53589SOL    HW162606  10.750  13.222  14.089
53589SOL    HW262607  10.839  13.345  14.092
53590SOL     OW62608  11.365   0.831   3.740
53590SOL    HW162609  11.439   0.873   3.696
53590SOL    HW262610  11.392   0.827   3.832
53591SOL     OW62611   7.649  14.810   8.604
53591SOL    HW162612   7.562  14.794   8.641
53591SOL    HW262613   7.645   0.026   8.570
53592SOL     OW62614   9.400   9.510   7.430
53592SOL    HW162615   9.353   9.589   7.400
53592SOL    HW262616   9.489   9.522   7.398
53593SOL     OW62617  13.071  14.110   2.517
53593SOL    HW162618  13.112  14.189   2.483
53593SOL    HW262619  13.121  14.089   2.596
53594SOL     OW62620   1.319  10.392   6.149
53594SOL    HW162621   1.242  10.350   6.112
53594SOL    HW262622   1.347  10.333   6.219
53595SOL     OW62623  14.784  13.386  13.791
53595SOL    HW162624  14.812  13.359  13.704
53595SOL    HW262625  14.864  13.389  13.843
53596SOL     OW62626  12.133  13.276   1.397
53596SOL    HW162627  12.222  13.240   1.397
53596SOL    HW262628  12.126  13.321   1.313
53597SOL     OW62629   1.025   6.726   1.580
53597SOL    HW162630   1.014   6.821   1.577
53597SOL    HW262631   1.079   6.711   1.658
53598SOL     OW62632  12.116   4.744  14.362
53598SOL    HW162633  12.184   4.716  14.423
53598SOL    HW262634  12.154   4.818  14.315
53599SOL     OW62635   6.798   7.260   9.580
53599SOL    HW162636   6.804   7.169   9.551
53599SOL    HW262637   6.872   7.272   9.638
53600SOL     OW62638   6.532   5.540   3.739
53600SOL    HW162639   6.527   5.570   3.649
53600SOL    HW262640   6.472   5.597   3.787
53601SOL     OW62641   0.659   7.793  14.088
53601SOL    HW162642   0.669   7.856  14.159
53601SOL    HW262643   0.723   7.820  14.022
53602SOL     OW62644   1.037   2.267  13.812
53602SOL    HW162645   1.066   2.315  13.734
53602SOL    HW262646   1.113   2.214  13.837
53603SOL     OW62647   5.494   4.002   2.966
53603SOL    HW162648   5.519   3.916   3.000
53603SOL    HW262649   5.577   4.043   2.942
53604SOL     OW62650   8.853  10.169   8.577
53604SOL    HW162651   8.812  10.196   8.496
53604SOL    HW262652   8.944  10.150   8.553
53605SOL     OW62653   8.754  11.232   9.036
53605SOL    HW162654   8.816  11.183   9.091
53605SOL    HW262655   8.695  11.166   9.003
53606SOL     OW62656   2.209  13.124   4.377
53606SOL    HW162657   2.250  13.201   4.417
53606SOL    HW262658   2.116  13.134   4.397
53607SOL     OW62659   1.387  10.730   5.189
53607SOL    HW162660   1.300  10.694   5.174
53607SOL    HW262661   1.423  10.742   5.101
53608SOL     OW62662   8.881  14.058   5.438
53608SOL    HW162663   8.828  14.134   5.414
53608SOL    HW262664   8.847  13.987   5.383
53609SOL     OW62665  11.339  12.737   2.190
53609SOL    HW162666  11.427  12.773   2.182
53609SOL    HW262667  11.281  12.813   2.180
53610SOL     OW62668   8.105   4.971   5.539
53610SOL    HW162669   8.057   4.951   5.618
53610SOL    HW262670   8.081   4.902   5.477
53611SOL     OW62671   4.066  10.258   9.995
53611SOL    HW162672   3.977  10.270   9.961
53611SOL    HW262673   4.121  10.251   9.917
53612SOL     OW62674   9.706   7.346   6.351
53612SOL    HW162675   9.731   7.303   6.433
53612SOL    HW262676   9.627   7.396   6.374
53613SOL     OW62677  12.004   9.536   9.007
53613SOL    HW162678  11.918   9.578   9.010
53613SOL    HW262679  11.990   9.457   8.954
53614SOL     OW62680   7.838   3.875  13.396
53614SOL    HW162681   7.828   3.867  13.301
53614SOL    HW262682   7.797   3.959  13.417
53615SOL     OW62683   2.383   7.011   9.177
53615SOL    HW162684   2.435   6.997   9.098
53615SOL    HW262685   2.320   7.079   9.153
53616SOL     OW62686   4.518  11.769  10.043
53616SOL    HW162687   4.577  11.819   9.986
53616SOL    HW262688   4.434  11.814  10.035
53617SOL     OW62689  10.597   7.982   5.806
53617SOL    HW162690  10.671   8.034   5.774
53617SOL    HW262691  10.601   7.991   5.901
53618SOL     OW62692   9.391  10.088  11.296
53618SOL    HW162693   9.388  10.088  11.392
53618SOL    HW262694   9.469  10.139  11.275
53619SOL     OW62695  10.869   3.187   5.552
53619SOL    HW162696  10.835   3.268   5.513
53619SOL    HW262697  10.958   3.209   5.580
53620SOL     OW62698   2.180   6.968   1.471
53620SOL    HW162699   2.200   7.050   1.517
53620SOL    HW262700   2.182   6.901   1.539
53621SOL     OW62701  10.917  10.616   6.256
53621SOL    HW162702  10.925  10.556   6.182
53621SOL    HW262703  10.833  10.593   6.296
53622SOL     OW62704  10.897  13.608   8.522
53622SOL    HW162705  10.934  13.662   8.451
53622SOL    HW262706  10.844  13.668   8.574
53623SOL     OW62707   7.315   3.723   6.118
53623SOL    HW162708   7.271   3.808   6.111
53623SOL    HW262709   7.357   3.725   6.205
53624SOL     OW62710   9.466   3.769   8.987
53624SOL    HW162711   9.536   3.705   8.969
53624SOL    HW262712   9.412   3.767   8.909
53625SOL     OW62713  12.103   0.500  12.571
53625SOL    HW162714  12.111   0.414  12.611
53625SOL    HW262715  12.052   0.551  12.634
53626SOL     OW62716  10.332   3.026  10.938
53626SOL    HW162717  10.419   3.043  10.902
53626SOL    HW262718  10.320   3.095  11.004
53627SOL     OW62719   0.296   4.080   3.729
53627SOL    HW162720   0.255   4.125   3.803
53627SOL    HW262721   0.338   4.150   3.679
53628SOL     OW62722   2.345  14.818   7.014
53628SOL    HW162723   2.300  14.734   7.020
53628SOL    HW262724   2.433  14.801   7.050
53629SOL     OW62725  12.513   7.685   5.518
53629SOL    HW162726  12.503   7.723   5.606
53629SOL    HW262727  12.510   7.591   5.532
53630SOL     OW62728   7.103   0.773   5.575
53630SOL    HW162729   7.040   0.841   5.601
53630SOL    HW262730   7.056   0.691   5.586
53631SOL     OW62731   6.808  11.846   4.709
53631SOL    HW162732   6.877  11.881   4.767
53631SOL    HW262733   6.849  11.771   4.666
53632SOL     OW62734   8.626   1.164   4.012
53632SOL    HW162735   8.559   1.166   3.944
53632SOL    HW262736   8.648   1.256   4.027
53633SOL     OW62737   4.693   7.732   3.569
53633SOL    HW162738   4.769   7.688   3.607
53633SOL    HW262739   4.730   7.796   3.508
53634SOL     OW62740  12.936   0.774   6.960
53634SOL    HW162741  12.943   0.864   6.929
53634SOL    HW262742  12.864   0.776   7.024
53635SOL     OW62743   0.248  13.147  10.121
53635SOL    HW162744   0.290  13.195  10.050
53635SOL    HW262745   0.318  13.131  10.184
53636SOL     OW62746   8.745   5.185  13.942
53636SOL    HW162747   8.666   5.158  13.988
53636SOL    HW262748   8.762   5.274  13.974
53637SOL     OW62749   3.868   1.134   1.141
53637SOL    HW162750   3.926   1.089   1.202
53637SOL    HW262751   3.795   1.073   1.127
53638SOL     OW62752   3.366  12.294   5.115
53638SOL    HW162753   3.401  12.373   5.155
53638SOL    HW262754   3.407  12.222   5.163
53639SOL     OW62755   6.308   8.012   9.393
53639SOL    HW162756   6.345   7.990   9.479
53639SOL    HW262757   6.226   7.963   9.389
53640SOL     OW62758   5.084  12.979   9.683
53640SOL    HW162759   5.099  13.004   9.591
53640SOL    HW262760   5.123  13.050   9.733
53641SOL     OW62761   3.362   1.198   6.932
53641SOL    HW162762   3.302   1.143   6.982
53641SOL    HW262763   3.323   1.203   6.845
53642SOL     OW62764   9.226   6.041   9.697
53642SOL    HW162765   9.177   6.042   9.779
53642SOL    HW262766   9.304   6.092   9.715
53643SOL     OW62767   3.478   8.123   2.616
53643SOL    HW162768   3.498   8.085   2.702
53643SOL    HW262769   3.564   8.142   2.579
53644SOL     OW62770  10.894   0.261   2.441
53644SOL    HW162771  10.878   0.355   2.441
53644SOL    HW262772  10.989   0.252   2.450
53645SOL     OW62773  10.088   2.020  12.457
53645SOL    HW162774  10.025   2.054  12.520
53645SOL    HW262775  10.141   1.958  12.507
53646SOL     OW62776  11.211   2.874  14.318
53646SOL    HW162777  11.185   2.956  14.276
53646SOL    HW262778  11.306   2.870  14.305
53647SOL     OW62779   8.724  13.063   8.186
53647SOL    HW162780   8.712  13.043   8.279
53647SOL    HW262781   8.638  13.047   8.147
53648SOL     OW62782   0.119  10.924  10.384
53648SOL    HW162783   0.136  10.991  10.317
53648SOL    HW262784   0.025  10.932  10.401
53649SOL     OW62785   4.622   4.595   2.802
53649SOL    HW162786   4.561   4.525   2.778
53649SOL    HW262787   4.579   4.675   2.772
53650SOL     OW62788   5.815   0.643   8.153
53650SOL    HW162789   5.893   0.587   8.152
53650SOL    HW262790   5.808   0.676   8.063
53651SOL     OW62791   4.472  11.507   8.351
53651SOL    HW162792   4.385  11.540   8.372
53651SOL    HW262793   4.508  11.570   8.288
53652SOL     OW62794  12.754  14.422   5.958
53652SOL    HW162795  12.747  14.448   5.867
53652SOL    HW262796  12.681  14.361   5.971
53653SOL     OW62797   8.801  12.530  14.845
53653SOL    HW162798   8.826  12.496  14.759
53653SOL    HW262799   8.798  12.625  14.833
53654SOL     OW62800   0.343   1.330   9.705
53654SOL    HW162801   0.376   1.414   9.737
53654SOL    HW262802   0.274   1.306   9.768
53655SOL     OW62803   8.944   8.288   8.902
53655SOL    HW162804   9.037   8.296   8.879
53655SOL    HW262805   8.933   8.195   8.921
53656SOL     OW62806   9.966  13.899   9.898
53656SOL    HW162807   9.934  13.851   9.822
53656SOL    HW262808   9.887  13.926   9.945
53657SOL     OW62809   3.596  12.575  13.928
53657SOL    HW162810   3.605  12.600  13.836
53657SOL    HW262811   3.687  12.569  13.960
53658SOL     OW62812   7.193   9.402  12.685
53658SOL    HW162813   7.172   9.468  12.618
53658SOL    HW262814   7.173   9.318  12.643
53659SOL     OW62815  11.689   6.077   6.088
53659SOL    HW162816  11.606   6.125   6.093
53659SOL    HW262817  11.706   6.048   6.177
53660SOL     OW62818   0.776   6.849  12.107
53660SOL    HW162819   0.764   6.900  12.027
53660SOL    HW262820   0.700   6.791  12.110
53661SOL     OW62821   6.389   8.078   4.973
53661SOL    HW162822   6.460   8.110   5.029
53661SOL    HW262823   6.350   8.158   4.936
53662SOL     OW62824   0.491  14.293  14.307
53662SOL    HW162825   0.522  14.370  14.259
53662SOL    HW262826   0.446  14.240  14.241
53663SOL     OW62827   1.130   6.090  13.085
53663SOL    HW162828   1.140   6.147  13.009
53663SOL    HW262829   1.133   6.149  13.160
53664SOL     OW62830   4.442   7.204   6.749
53664SOL    HW162831   4.480   7.217   6.663
53664SOL    HW262832   4.514   7.171   6.803
53665SOL     OW62833   1.550   9.091   7.563
53665SOL    HW162834   1.536   9.012   7.614
53665SOL    HW262835   1.560   9.061   7.473
53666SOL     OW62836   8.109   2.138   0.372
53666SOL    HW162837   8.059   2.085   0.310
53666SOL    HW262838   8.199   2.134   0.340
53667SOL     OW62839   7.860   6.041   5.309
53667SOL    HW162840   7.950   6.037   5.341
53667SOL    HW262841   7.805   6.031   5.387
53668SOL     OW62842   5.826   4.548  13.936
53668SOL    HW162843   5.814   4.497  13.856
53668SOL    HW262844   5.783   4.495  14.004
53669SOL     OW62845  12.992  14.237   8.292
53669SOL    HW162846  12.897  14.250   8.303
53669SOL    HW262847  13.014  14.291   8.216
53670SOL     OW62848   4.888   0.561   0.571
53670SOL    HW162849   4.810   0.525   0.614
53670SOL    HW262850   4.961   0.523   0.619
53671SOL     OW62851   5.127   2.670   5.062
53671SOL    HW162852   5.164   2.586   5.035
53671SOL    HW262853   5.056   2.647   5.122
53672SOL     OW62854  11.045   5.807   2.911
53672SOL    HW162855  10.977   5.740   2.904
53672SOL    HW262856  10.996   5.889   2.914
53673SOL     OW62857  13.175  11.628   0.058
53673SOL    HW162858  13.247  11.689   0.073
53673SOL    HW262859  13.174  11.572   0.135
53674SOL     OW62860   6.721   4.542  12.349
53674SOL    HW162861   6.696   4.615  12.405
53674SOL    HW262862   6.767   4.482  12.408
53675SOL     OW62863   5.680   0.677   3.920
53675SOL    HW162864   5.622   0.750   3.903
53675SOL    HW262865   5.757   0.716   3.960
53676SOL     OW62866   2.145   0.109   3.777
53676SOL    HW162867   2.106   0.106   3.864
53676SOL    HW262868   2.239   0.099   3.792
53677SOL     OW62869  11.703   5.716  13.230
53677SOL    HW162870  11.766   5.711  13.302
53677SOL    HW262871  11.708   5.807  13.201
53678SOL     OW62872   5.984   0.913   5.349
53678SOL    HW162873   5.932   0.869   5.283
53678SOL    HW262874   5.927   0.918   5.426
53679SOL     OW62875  14.433   3.010   8.827
53679SOL    HW162876  14.524   2.982   8.821
53679SOL    HW262877  14.382   2.929   8.817
53680SOL     OW62878  12.444   1.155   0.076
53680SOL    HW162879  12.537   1.147   0.057
53680SOL    HW262880  12.424   1.248   0.061
53681SOL     OW62881  10.242   7.100  10.820
53681SOL    HW162882  10.261   7.180  10.770
53681SOL    HW262883  10.213   7.037  10.754
53682SOL     OW62884   2.954   2.557   8.083
53682SOL    HW162885   2.942   2.646   8.051
53682SOL    HW262886   2.866   2.520   8.086
53683SOL     OW62887  10.625   9.520   1.312
53683SOL    HW162888  10.654   9.466   1.385
53683SOL    HW262889  10.529   9.521   1.319
53684SOL     OW62890   0.094   8.476   6.398
53684SOL    HW162891   0.038   8.531   6.343
53684SOL    HW262892   0.128   8.535   6.465
53685SOL     OW62893   8.742   0.678  10.802
53685SOL    HW162894   8.759   0.770  10.822
53685SOL    HW262895   8.822   0.632  10.826
53686SOL     OW62896  11.234   0.784  13.165
53686SOL    HW162897  11.186   0.864  13.144
53686SOL    HW262898  11.253   0.744  13.080
53687SOL     OW62899   5.717   4.746   3.195
53687SOL    HW162900   5.651   4.781   3.136
53687SOL    HW262901   5.783   4.708   3.138
53688SOL     OW62902   2.196  12.441  10.352
53688SOL    HW162903   2.188  12.365  10.411
53688SOL    HW262904   2.137  12.421  10.280
53689SOL     OW62905   9.138  14.748   3.152
53689SOL    HW162906   9.204  14.810   3.121
53689SOL    HW262907   9.187  14.686   3.206
53690SOL     OW62908   5.437  13.752   1.094
53690SOL    HW162909   5.445  13.810   1.169
53690SOL    HW262910   5.354  13.706   1.107
53691SOL     OW62911   7.157  13.154  11.905
53691SOL    HW162912   7.081  13.166  11.849
53691SOL    HW262913   7.167  13.238  11.951
53692SOL     OW62914  10.390  14.519   4.029
53692SOL    HW162915  10.375  14.439   3.978
53692SOL    HW262916  10.373  14.590   3.967
53693SOL     OW62917   4.939   4.974  13.607
53693SOL    HW162918   4.902   5.054  13.569
53693SOL    HW262919   4.911   4.975  13.698
53694SOL     OW62920   2.779   4.561   3.188
53694SOL    HW162921   2.868   4.541   3.217
53694SOL    HW262922   2.722   4.519   3.252
53695SOL     OW62923  12.878   6.016  13.980
53695SOL    HW162924  12.913   6.071  13.910
53695SOL    HW262925  12.918   6.050  14.060
53696SOL     OW62926  11.690  10.329   2.805
53696SOL    HW162927  11.778  10.294   2.821
53696SOL    HW262928  11.685  10.407   2.861
53697SOL     OW62929  12.984   7.266   2.577
53697SOL    HW162930  13.053   7.241   2.639
53697SOL    HW262931  13.012   7.228   2.494
53698SOL     OW62932   1.351  12.101   3.713
53698SOL    HW162933   1.418  12.081   3.777
53698SOL    HW262934   1.394  12.157   3.649
53699SOL     OW62935   5.710   4.533  14.397
53699SOL    HW162936   5.797   4.572  14.400
53699SOL    HW262937   5.705   4.492  14.310
53700SOL     OW62938   0.497  11.040   8.311
53700SOL    HW162939   0.419  11.080   8.274
53700SOL    HW262940   0.554  11.024   8.236
53701SOL     OW62941   9.958  14.018   5.056
53701SOL    HW162942   9.960  13.990   5.148
53701SOL    HW262943   9.974  14.113   5.060
53702SOL     OW62944   4.445   5.653   1.911
53702SOL    HW162945   4.402   5.660   1.826
53702SOL    HW262946   4.399   5.716   1.967
53703SOL     OW62947   3.570   0.306   9.278
53703SOL    HW162948   3.551   0.234   9.338
53703SOL    HW262949   3.503   0.299   9.210
53704SOL     OW62950   4.070   3.656  14.636
53704SOL    HW162951   4.049   3.647  14.543
53704SOL    HW262952   4.009   3.596  14.680
53705SOL     OW62953   1.537  12.497  10.893
53705SOL    HW162954   1.569  12.584  10.918
53705SOL    HW262955   1.460  12.484  10.948
53706SOL     OW62956  11.456   8.554  10.951
53706SOL    HW162957  11.489   8.591  10.870
53706SOL    HW262958  11.458   8.626  11.014
53707SOL     OW62959  12.472  14.698   7.872
53707SOL    HW162960  12.426  14.656   7.799
53707SOL    HW262961  12.417  14.681   7.949
53708SOL     OW62962  13.921  12.387   1.404
53708SOL    HW162963  14.000  12.362   1.452
53708SOL    HW262964  13.878  12.304   1.384
53709SOL     OW62965   9.394   7.388  13.845
53709SOL    HW162966   9.398   7.310  13.900
53709SOL    HW262967   9.390   7.461  13.907
53710SOL     OW62968  14.012  12.788   1.185
53710SOL    HW162969  14.009  12.749   1.098
53710SOL    HW262970  14.064  12.727   1.238
53711SOL     OW62971   0.612   7.008   1.893
53711SOL    HW162972   0.625   6.942   1.825
53711SOL    HW262973   0.658   7.085   1.860
53712SOL     OW62974   8.358  10.415   8.902
53712SOL    HW162975   8.295  10.342   8.897
53712SOL    HW262976   8.352  10.445   8.993
53713SOL     OW62977  10.082   4.813   4.829
53713SOL    HW162978  10.152   4.836   4.768
53713SOL    HW262979  10.002   4.846   4.787
53714SOL     OW62980   4.492   5.852   8.500
53714SOL    HW162981   4.528   5.812   8.420
53714SOL    HW262982   4.422   5.793   8.527
53715SOL     OW62983   6.182   3.894  13.999
53715SOL    HW162984   6.167   3.799  13.991
53715SOL    HW262985   6.165   3.928  13.911
53716SOL     OW62986  11.861   4.104   0.860
53716SOL    HW162987  11.899   4.181   0.901
53716SOL    HW262988  11.913   4.090   0.781
53717SOL     OW62989   4.759   9.028   3.484
53717SOL    HW162990   4.805   8.980   3.553
53717SOL    HW262991   4.667   9.006   3.496
53718SOL     OW62992   8.949  11.201   8.177
53718SOL    HW162993   8.996  11.180   8.258
53718SOL    HW262994   8.946  11.296   8.175
53719SOL     OW62995   6.295   0.730  13.574
53719SOL    HW162996   6.209   0.764  13.599
53719SOL    HW262997   6.279   0.683  13.493
53720SOL     OW62998   6.887   3.303   8.001
53720SOL    HW162999   6.913   3.351   7.922
53720SOL    HW263000   6.794   3.287   7.989
53721SOL     OW63001   5.345  14.764   9.774
53721SOL    HW163002   5.260  14.728   9.750
53721SOL    HW263003   5.333  14.796   9.864
53722SOL     OW63004   0.197   9.389  11.054
53722SOL    HW163005   0.137   9.317  11.031
53722SOL    HW263006   0.277   9.345  11.084
53723SOL     OW63007  13.371   2.643  13.237
53723SOL    HW163008  13.377   2.609  13.326
53723SOL    HW263009  13.384   2.738  13.246
53724SOL     OW63010   8.618   5.533  11.078
53724SOL    HW163011   8.631   5.552  10.985
53724SOL    HW263012   8.633   5.617  11.121
53725SOL     OW63013   0.362   2.036   1.793
53725SOL    HW163014   0.349   2.041   1.888
53725SOL    HW263015   0.385   2.125   1.767
53726SOL     OW63016   1.942   9.515   3.514
53726SOL    HW163017   1.856   9.486   3.546
53726SOL    HW263018   2.004   9.482   3.580
53727SOL     OW63019   3.208  12.517  12.946
53727SOL    HW163020   3.208  12.421  12.953
53727SOL    HW263021   3.202  12.534  12.852
53728SOL     OW63022   8.867   6.623  12.357
53728SOL    HW163023   8.808   6.695  12.332
53728SOL    HW263024   8.949   6.645  12.314
53729SOL     OW63025  10.635   2.493   3.268
53729SOL    HW163026  10.567   2.544   3.312
53729SOL    HW263027  10.686   2.558   3.219
53730SOL     OW63028  11.286   5.369   5.936
53730SOL    HW163029  11.343   5.441   5.908
53730SOL    HW263030  11.216   5.412   5.985
53731SOL     OW63031  10.242   1.203  11.542
53731SOL    HW163032  10.154   1.165  11.540
53731SOL    HW263033  10.279   1.184  11.456
53732SOL     OW63034  13.125   0.368  14.428
53732SOL    HW163035  13.050   0.379  14.486
53732SOL    HW263036  13.155   0.457  14.410
53733SOL     OW63037  14.288   1.034   7.073
53733SOL    HW163038  14.221   0.980   7.030
53733SOL    HW263039  14.247   1.062   7.155
53734SOL     OW63040   3.747   4.269   2.359
53734SOL    HW163041   3.795   4.229   2.285
53734SOL    HW263042   3.721   4.355   2.327
53735SOL     OW63043   8.045  14.494   2.125
53735SOL    HW163044   8.104  14.427   2.091
53735SOL    HW263045   7.958  14.467   2.096
53736SOL     OW63046   2.396  10.083   8.058
53736SOL    HW163047   2.430  10.111   8.143
53736SOL    HW263048   2.332  10.015   8.079
53737SOL     OW63049  11.123   7.128   7.578
53737SOL    HW163050  11.158   7.209   7.539
53737SOL    HW263051  11.057   7.098   7.517
53738SOL     OW63052  11.908   4.095   2.018
53738SOL    HW163053  11.881   4.029   1.953
53738SOL    HW263054  11.955   4.045   2.084
53739SOL     OW63055  14.631  13.964   9.841
53739SOL    HW163056  14.564  13.899   9.863
53739SOL    HW263057  14.585  14.048   9.841
53740SOL     OW63058   0.387  13.539   9.609
53740SOL    HW163059   0.365  13.475   9.676
53740SOL    HW263060   0.389  13.623   9.656
53741SOL     OW63061  12.839   2.965   1.081
53741SOL    HW163062  12.881   2.883   1.056
53741SOL    HW263063  12.751   2.960   1.044
53742SOL     OW63064   4.889   6.562   0.046
53742SOL    HW163065   4.966   6.617   0.059
53742SOL    HW263066   4.886   6.548  14.825
53743SOL     OW63067   5.386  13.401  11.934
53743SOL    HW163068   5.377  13.397  12.029
53743SOL    HW263069   5.317  13.344  11.901
53744SOL     OW63070   4.390   2.080  12.048
53744SOL    HW163071   4.420   1.992  12.022
53744SOL    HW263072   4.447   2.104  12.121
53745SOL     OW63073   2.027   8.582  13.823
53745SOL    HW163074   1.954   8.521  13.837
53745SOL    HW263075   2.099   8.527  13.791
53746SOL     OW63076  12.970   8.262   8.266
53746SOL    HW163077  12.875   8.254   8.274
53746SOL    HW263078  13.005   8.189   8.318
53747SOL     OW63079   5.232   6.986   5.335
53747SOL    HW163080   5.234   7.028   5.421
53747SOL    HW263081   5.161   7.030   5.289
53748SOL     OW63082   0.897   4.194   1.847
53748SOL    HW163083   0.822   4.249   1.827
53748SOL    HW263084   0.971   4.255   1.852
53749SOL     OW63085   9.137   9.603   9.745
53749SOL    HW163086   9.079   9.668   9.784
53749SOL    HW263087   9.125   9.614   9.650
53750SOL     OW63088  13.092   6.254   4.155
53750SOL    HW163089  13.077   6.339   4.196
53750SOL    HW263090  13.185   6.237   4.170
53751SOL     OW63091   1.168   9.436  14.108
53751SOL    HW163092   1.173   9.342  14.119
53751SOL    HW263093   1.257   9.467  14.120
53752SOL     OW63094  13.343   4.031  13.900
53752SOL    HW163095  13.312   3.968  13.835
53752SOL    HW263096  13.438   4.027  13.894
53753SOL     OW63097   3.601   1.996   3.233
53753SOL    HW163098   3.586   2.058   3.161
53753SOL    HW263099   3.532   1.930   3.223
53754SOL     OW63100   2.237   6.936   8.470
53754SOL    HW163101   2.222   6.990   8.392
53754SOL    HW263102   2.305   6.875   8.445
53755SOL     OW63103   0.816   6.030   8.393
53755SOL    HW163104   0.873   5.997   8.324
53755SOL    HW263105   0.748   5.963   8.401
53756SOL     OW63106   7.938   5.329   2.618
53756SOL    HW163107   7.906   5.394   2.682
53756SOL    HW263108   7.954   5.380   2.538
53757SOL     OW63109  13.662  14.083   9.188
53757SOL    HW163110  13.589  14.021   9.192
53757SOL    HW263111  13.694  14.076   9.098
53758SOL     OW63112   4.538   3.180   1.102
53758SOL    HW163113   4.567   3.175   1.012
53758SOL    HW263114   4.486   3.100   1.115
53759SOL     OW63115   3.645   7.412   2.734
53759SOL    HW163116   3.693   7.337   2.769
53759SOL    HW263117   3.603   7.380   2.654
53760SOL     OW63118  10.716  11.108  10.982
53760SOL    HW163119  10.653  11.179  10.965
53760SOL    HW263120  10.697  11.081  11.072
53761SOL     OW63121   9.864  11.043   6.364
53761SOL    HW163122   9.822  11.022   6.447
53761SOL    HW263123   9.807  11.003   6.298
53762SOL     OW63124   4.871   8.291   6.553
53762SOL    HW163125   4.962   8.313   6.536
53762SOL    HW263126   4.862   8.200   6.525
53763SOL     OW63127  13.504   8.790  14.237
53763SOL    HW163128  13.558   8.777  14.159
53763SOL    HW263129  13.534   8.722  14.298
53764SOL     OW63130   9.215  11.401   5.107
53764SOL    HW163131   9.309  11.399   5.090
53764SOL    HW263132   9.202  11.337   5.177
53765SOL     OW63133   9.917   0.976   7.235
53765SOL    HW163134   9.895   0.933   7.152
53765SOL    HW263135   9.931   0.905   7.297
53766SOL     OW63136   4.108   0.693   0.758
53766SOL    HW163137   4.184   0.737   0.722
53766SOL    HW263138   4.033   0.731   0.712
53767SOL     OW63139  11.401   0.310   8.964
53767SOL    HW163140  11.446   0.227   8.952
53767SOL    HW263141  11.311   0.286   8.987
53768SOL     OW63142   6.845   9.014   2.843
53768SOL    HW163143   6.914   8.993   2.780
53768SOL    HW263144   6.836   9.109   2.838
53769SOL     OW63145   7.535  11.996  12.215
53769SOL    HW163146   7.580  12.034  12.291
53769SOL    HW263147   7.557  11.903  12.219
53770SOL     OW63148   3.583   0.879   4.986
53770SOL    HW163149   3.610   0.919   4.903
53770SOL    HW263150   3.566   0.787   4.965
53771SOL     OW63151   3.387  11.770  14.132
53771SOL    HW163152   3.437  11.702  14.176
53771SOL    HW263153   3.302  11.729  14.113
53772SOL     OW63154   7.212   1.960   5.962
53772SOL    HW163155   7.130   1.911   5.971
53772SOL    HW263156   7.215   2.016   6.040
53773SOL     OW63157  13.504  12.142  12.986
53773SOL    HW163158  13.566  12.188  12.929
53773SOL    HW263159  13.421  12.187  12.971
53774SOL     OW63160   2.307  10.303   7.148
53774SOL    HW163161   2.339  10.216   7.172
53774SOL    HW263162   2.211  10.294   7.151
53775SOL     OW63163   9.444   0.299   3.843
53775SOL    HW163164   9.534   0.330   3.853
53775SOL    HW263165   9.406   0.306   3.930
53776SOL     OW63166   2.766   7.660   3.958
53776SOL    HW163167   2.756   7.565   3.963
53776SOL    HW263168   2.700   7.688   3.894
53777SOL     OW63169   1.738   9.490   9.455
53777SOL    HW163170   1.692   9.512   9.536
53777SOL    HW263171   1.726   9.567   9.399
53778SOL     OW63172  14.533   8.974  11.790
53778SOL    HW163173  14.442   8.971  11.759
53778SOL    HW263174  14.572   9.046  11.740
53779SOL     OW63175  14.839   2.201   3.843
53779SOL    HW163176  14.838   2.174   3.751
53779SOL    HW263177   0.049   2.248   3.853
53780SOL     OW63178   3.053  10.406   4.678
53780SOL    HW163179   3.079  10.461   4.604
53780SOL    HW263180   2.969  10.367   4.651
53781SOL     OW63181  12.320   8.371  14.033
53781SOL    HW163182  12.248   8.434  14.024
53781SOL    HW263183  12.297   8.300  13.974
53782SOL     OW63184  14.861  13.832  14.345
53782SOL    HW163185  14.775  13.838  14.386
53782SOL    HW263186  14.843  13.824  14.252
53783SOL     OW63187   9.401  10.837   9.182
53783SOL    HW163188   9.354  10.915   9.210
53783SOL    HW263189   9.487  10.869   9.154
53784SOL     OW63190  14.008   6.481  13.723
53784SOL    HW163191  14.037   6.411  13.782
53784SOL    HW263192  13.934   6.443  13.676
53785SOL     OW63193  14.358   4.651   9.974
53785SOL    HW163194  14.300   4.602  10.033
53785SOL    HW263195  14.338   4.616   9.887
53786SOL     OW63196  13.175  13.268   9.008
53786SOL    HW163197  13.133  13.188   8.977
53786SOL    HW263198  13.142  13.337   8.951
53787SOL     OW63199   4.526   1.209  14.252
53787SOL    HW163200   4.616   1.204  14.283
53787SOL    HW263201   4.524   1.288  14.197
53788SOL     OW63202   7.026   8.594   1.301
53788SOL    HW163203   6.981   8.640   1.371
53788SOL    HW263204   7.003   8.502   1.314
53789SOL     OW63205   2.581   2.170   5.371
53789SOL    HW163206   2.612   2.091   5.415
53789SOL    HW263207   2.588   2.239   5.437
53790SOL     OW63208  13.897  10.318   2.165
53790SOL    HW163209  13.824  10.310   2.226
53790SOL    HW263210  13.856  10.339   2.081
53791SOL     OW63211   9.404   1.474   5.019
53791SOL    HW163212   9.415   1.477   4.924
53791SOL    HW263213   9.476   1.528   5.053
53792SOL     OW63214   4.197   6.531   3.726
53792SOL    HW163215   4.190   6.533   3.630
53792SOL    HW263216   4.239   6.447   3.745
53793SOL     OW63217   4.624   5.107  11.728
53793SOL    HW163218   4.551   5.163  11.754
53793SOL    HW263219   4.698   5.167  11.718
53794SOL     OW63220   1.001   2.076  11.943
53794SOL    HW163221   1.078   2.084  12.000
53794SOL    HW263222   0.936   2.031  11.997
53795SOL     OW63223   9.223  12.990   7.976
53795SOL    HW163224   9.225  12.954   7.888
53795SOL    HW263225   9.170  12.928   8.026
53796SOL     OW63226   3.530   4.072  14.735
53796SOL    HW163227   3.511   3.978  14.737
53796SOL    HW263228   3.573   4.086  14.650
53797SOL     OW63229   0.771   9.975  12.401
53797SOL    HW163230   0.722  10.013  12.474
53797SOL    HW263231   0.837  10.041  12.380
53798SOL     OW63232   6.310   9.756   4.398
53798SOL    HW163233   6.378   9.760   4.465
53798SOL    HW263234   6.232   9.725   4.445
53799SOL     OW63235  14.137   3.748  12.760
53799SOL    HW163236  14.151   3.794  12.843
53799SOL    HW263237  14.060   3.790  12.722
53800SOL     OW63238  12.873   8.760  11.768
53800SOL    HW163239  12.948   8.818  11.754
53800SOL    HW263240  12.802   8.802  11.719
53801SOL     OW63241  12.094   6.844   2.933
53801SOL    HW163242  12.140   6.899   2.996
53801SOL    HW263243  12.027   6.901   2.896
53802SOL     OW63244   9.553  13.768  14.627
53802SOL    HW163245   9.640  13.729  14.622
53802SOL    HW263246   9.550  13.830  14.554
53803SOL     OW63247   0.238   1.055  14.527
53803SOL    HW163248   0.202   1.038  14.441
53803SOL    HW263249   0.328   1.081  14.511
53804SOL     OW63250   8.339  11.419   6.583
53804SOL    HW163251   8.390  11.377   6.514
53804SOL    HW263252   8.282  11.349   6.616
53805SOL     OW63253  12.133   3.723  10.902
53805SOL    HW163254  12.184   3.783  10.848
53805SOL    HW263255  12.044   3.729  10.868
53806SOL     OW63256   6.215   1.643   1.460
53806SOL    HW163257   6.287   1.670   1.404
53806SOL    HW263258   6.173   1.725   1.487
53807SOL     OW63259   2.960   5.432   4.244
53807SOL    HW163260   3.023   5.503   4.237
53807SOL    HW263261   2.942   5.424   4.338
53808SOL     OW63262   6.000  13.140  14.694
53808SOL    HW163263   5.988  13.167  14.603
53808SOL    HW263264   6.006  13.044  14.690
53809SOL     OW63265   4.647   5.301   1.604
53809SOL    HW163266   4.648   5.336   1.693
53809SOL    HW263267   4.735   5.264   1.592
53810SOL     OW63268  14.184   5.655   9.327
53810SOL    HW163269  14.215   5.739   9.294
53810SOL    HW263270  14.254   5.625   9.385
53811SOL     OW63271   1.009  11.162  12.586
53811SOL    HW163272   1.058  11.242  12.603
53811SOL    HW263273   0.924  11.176  12.629
53812SOL     OW63274   3.276  12.230  13.353
53812SOL    HW163275   3.218  12.283  13.408
53812SOL    HW263276   3.218  12.185  13.293
53813SOL     OW63277   2.063  12.864  14.760
53813SOL    HW163278   2.095  12.931  14.699
53813SOL    HW263279   2.002  12.911  14.817
53814SOL     OW63280   2.242   2.867  10.786
53814SOL    HW163281   2.174   2.824  10.839
53814SOL    HW263282   2.195   2.899  10.709
53815SOL     OW63283   3.365   1.176   2.027
53815SOL    HW163284   3.326   1.254   1.986
53815SOL    HW263285   3.397   1.207   2.112
53816SOL     OW63286  13.209   8.617   1.294
53816SOL    HW163287  13.223   8.522   1.302
53816SOL    HW263288  13.297   8.653   1.278
53817SOL     OW63289   9.480  13.956   5.969
53817SOL    HW163290   9.405  13.932   6.022
53817SOL    HW263291   9.518  13.872   5.942
53818SOL     OW63292  10.613  14.258   5.674
53818SOL    HW163293  10.534  14.220   5.635
53818SOL    HW263294  10.650  14.313   5.605
53819SOL     OW63295   2.401   4.322  14.067
53819SOL    HW163296   2.352   4.392  14.110
53819SOL    HW263297   2.337   4.250  14.058
53820SOL     OW63298   6.580  10.902   2.951
53820SOL    HW163299   6.608  10.966   3.016
53820SOL    HW263300   6.499  10.866   2.986
53821SOL     OW63301   1.983   1.168   5.513
53821SOL    HW163302   2.022   1.081   5.520
53821SOL    HW263303   1.958   1.175   5.421
53822SOL     OW63304  11.507   0.815   2.711
53822SOL    HW163305  11.446   0.879   2.674
53822SOL    HW263306  11.466   0.731   2.693
53823SOL     OW63307   6.544   0.501   3.050
53823SOL    HW163308   6.507   0.478   3.135
53823SOL    HW263309   6.490   0.574   3.019
53824SOL     OW63310   8.250   2.108   7.727
53824SOL    HW163311   8.268   2.093   7.634
53824SOL    HW263312   8.271   2.200   7.741
53825SOL     OW63313   9.191  12.563   0.195
53825SOL    HW163314   9.213  12.484   0.146
53825SOL    HW263315   9.222  12.546   0.284
53826SOL     OW63316   4.016   4.057   2.224
53826SOL    HW163317   4.064   4.086   2.301
53826SOL    HW263318   4.066   4.093   2.150
53827SOL     OW63319   9.363   5.112   3.411
53827SOL    HW163320   9.276   5.115   3.372
53827SOL    HW263321   9.366   5.188   3.469
53828SOL     OW63322   6.419   5.536  10.446
53828SOL    HW163323   6.385   5.511  10.361
53828SOL    HW263324   6.511   5.558  10.430
53829SOL     OW63325  14.274   2.803   5.770
53829SOL    HW163326  14.336   2.763   5.709
53829SOL    HW263327  14.324   2.872   5.813
53830SOL     OW63328   7.869   7.447   7.495
53830SOL    HW163329   7.833   7.430   7.582
53830SOL    HW263330   7.960   7.472   7.511
53831SOL     OW63331   2.894   1.134   5.145
53831SOL    HW163332   2.942   1.153   5.065
53831SOL    HW263333   2.810   1.099   5.116
53832SOL     OW63334   7.394   1.485  13.865
53832SOL    HW163335   7.449   1.560  13.889
53832SOL    HW263336   7.329   1.479  13.936
53833SOL     OW63337   7.723   8.070   3.116
53833SOL    HW163338   7.774   8.058   3.035
53833SOL    HW263339   7.707   7.980   3.146
53834SOL     OW63340  10.534   9.600  11.599
53834SOL    HW163341  10.482   9.545  11.541
53834SOL    HW263342  10.576   9.664  11.541
53835SOL     OW63343   6.358   7.882  12.751
53835SOL    HW163344   6.409   7.805  12.778
53835SOL    HW263345   6.407   7.919  12.678
53836SOL     OW63346   0.259   0.157   8.995
53836SOL    HW163347   0.334   0.133   8.941
53836SOL    HW263348   0.289   0.234   9.044
53837SOL     OW63349   3.011   6.469   5.255
53837SOL    HW163350   3.009   6.385   5.209
53837SOL    HW263351   2.920   6.498   5.257
53838SOL     OW63352   7.058   1.219   5.268
53838SOL    HW163353   7.151   1.199   5.269
53838SOL    HW263354   7.035   1.223   5.176
53839SOL     OW63355  10.104   5.668   0.850
53839SOL    HW163356  10.094   5.650   0.757
53839SOL    HW263357  10.125   5.761   0.854
53840SOL     OW63358   8.579  13.628  11.416
53840SOL    HW163359   8.639  13.703  11.411
53840SOL    HW263360   8.629  13.555  11.379
53841SOL     OW63361  11.508  10.650   5.587
53841SOL    HW163362  11.530  10.558   5.599
53841SOL    HW263363  11.578  10.698   5.632
53842SOL     OW63364   8.889  12.061   7.856
53842SOL    HW163365   8.964  12.085   7.801
53842SOL    HW263366   8.876  12.136   7.913
53843SOL     OW63367   3.028  11.588  10.661
53843SOL    HW163368   2.975  11.556  10.588
53843SOL    HW263369   3.003  11.680  10.671
53844SOL     OW63370   8.753   2.633  11.116
53844SOL    HW163371   8.729   2.586  11.037
53844SOL    HW263372   8.670   2.652  11.159
53845SOL     OW63373   0.801   8.899  12.057
53845SOL    HW163374   0.805   8.908  12.152
53845SOL    HW263375   0.784   8.806  12.043
53846SOL     OW63376   6.490   8.405   0.916
53846SOL    HW163377   6.564   8.440   0.966
53846SOL    HW263378   6.437   8.359   0.981
53847SOL     OW63379  11.322   2.162   7.389
53847SOL    HW163380  11.355   2.249   7.411
53847SOL    HW263381  11.335   2.155   7.295
53848SOL     OW63382   8.567   9.435   6.222
53848SOL    HW163383   8.507   9.392   6.282
53848SOL    HW263384   8.654   9.406   6.249
53849SOL     OW63385   1.159  13.279   9.033
53849SOL    HW163386   1.231  13.323   8.989
53849SOL    HW263387   1.164  13.189   9.001
53850SOL     OW63388  14.789   3.837   3.185
53850SOL    HW163389  14.839   3.770   3.232
53850SOL    HW263390  14.723   3.866   3.248
53851SOL     OW63391   9.066   9.467  10.315
53851SOL    HW163392   8.994   9.449  10.376
53851SOL    HW263393   9.122   9.529  10.361
53852SOL     OW63394  12.032   2.471   1.335
53852SOL    HW163395  11.943   2.505   1.333
53852SOL    HW263396  12.038   2.425   1.419
53853SOL     OW63397   5.459   3.793   7.238
53853SOL    HW163398   5.429   3.706   7.212
53853SOL    HW263399   5.442   3.797   7.332
53854SOL     OW63400  10.329   6.968   0.243
53854SOL    HW163401  10.377   6.999   0.166
53854SOL    HW263402  10.262   7.034   0.258
53855SOL     OW63403   4.679   8.508   3.036
53855SOL    HW163404   4.731   8.493   3.115
53855SOL    HW263405   4.679   8.603   3.025
53856SOL     OW63406  13.940   6.739   2.275
53856SOL    HW163407  14.012   6.784   2.319
53856SOL    HW263408  13.934   6.654   2.319
53857SOL     OW63409   7.242   0.420  14.059
53857SOL    HW163410   7.335   0.403  14.078
53857SOL    HW263411   7.194   0.368  14.124
53858SOL     OW63412  11.872   1.563   0.484
53858SOL    HW163413  11.904   1.607   0.563
53858SOL    HW263414  11.949   1.522   0.446
53859SOL     OW63415  14.621   0.996   6.042
53859SOL    HW163416  14.600   1.070   5.985
53859SOL    HW263417  14.643   0.925   5.983
53860SOL     OW63418   8.655   4.824   7.174
53860SOL    HW163419   8.745   4.857   7.163
53860SOL    HW263420   8.660   4.766   7.250
53861SOL     OW63421   1.841   5.377   9.321
53861SOL    HW163422   1.851   5.409   9.231
53861SOL    HW263423   1.904   5.428   9.372
53862SOL     OW63424   4.070   8.518   4.030
53862SOL    HW163425   4.089   8.584   3.965
53862SOL    HW263426   4.064   8.566   4.113
53863SOL     OW63427   5.561  12.228  10.866
53863SOL    HW163428   5.515  12.294  10.813
53863SOL    HW263429   5.503  12.152  10.866
53864SOL     OW63430  14.312   5.911   8.462
53864SOL    HW163431  14.374   5.850   8.423
53864SOL    HW263432  14.323   5.992   8.413
53865SOL     OW63433   6.976   8.840  13.348
53865SOL    HW163434   6.962   8.747  13.333
53865SOL    HW263435   7.071   8.851  13.347
53866SOL     OW63436   8.604   8.701   8.397
53866SOL    HW163437   8.552   8.764   8.447
53866SOL    HW263438   8.589   8.617   8.441
53867SOL     OW63439   0.567   3.447   9.026
53867SOL    HW163440   0.647   3.403   8.996
53867SOL    HW263441   0.596   3.501   9.099
53868SOL     OW63442  10.384   2.547   8.515
53868SOL    HW163443  10.305   2.551   8.568
53868SOL    HW263444  10.423   2.462   8.535
53869SOL     OW63445   0.348   1.903  10.187
53869SOL    HW163446   0.374   1.884  10.277
53869SOL    HW263447   0.413   1.966  10.156
53870SOL     OW63448   3.817   1.951   9.083
53870SOL    HW163449   3.799   1.864   9.049
53870SOL    HW263450   3.797   2.010   9.010
53871SOL     OW63451  14.464   6.961  10.993
53871SOL    HW163452  14.531   7.020  10.959
53871SOL    HW263453  14.402   7.017  11.039
53872SOL     OW63454   1.820  12.714   9.051
53872SOL    HW163455   1.906  12.737   9.087
53872SOL    HW263456   1.839  12.650   8.981
53873SOL     OW63457   8.878  14.802   9.808
53873SOL    HW163458   8.898  14.844   9.724
53873SOL    HW263459   8.890  14.709   9.792
53874SOL     OW63460   7.815   0.074   1.767
53874SOL    HW163461   7.859   0.021   1.833
53874SOL    HW263462   7.880   0.081   1.696
53875SOL     OW63463   4.429   3.818   1.235
53875SOL    HW163464   4.347   3.778   1.208
53875SOL    HW263465   4.434   3.803   1.329
53876SOL     OW63466   8.843  12.971   9.918
53876SOL    HW163467   8.796  12.905   9.867
53876SOL    HW263468   8.933  12.965   9.888
53877SOL     OW63469  10.003   1.901   7.241
53877SOL    HW163470  10.002   1.930   7.149
53877SOL    HW263471  10.016   1.807   7.236
53878SOL     OW63472  12.044   4.771   1.177
53878SOL    HW163473  11.992   4.696   1.203
53878SOL    HW263474  12.118   4.734   1.129
53879SOL     OW63475   9.215   1.768   1.727
53879SOL    HW163476   9.220   1.737   1.818
53879SOL    HW263477   9.191   1.861   1.735
53880SOL     OW63478  13.901   2.740   0.639
53880SOL    HW163479  13.820   2.791   0.641
53880SOL    HW263480  13.959   2.790   0.581
53881SOL     OW63481   4.661   5.260   9.883
53881SOL    HW163482   4.729   5.192   9.884
53881SOL    HW263483   4.687   5.319   9.954
53882SOL     OW63484   2.791   1.774   9.022
53882SOL    HW163485   2.788   1.713   8.948
53882SOL    HW263486   2.830   1.723   9.093
53883SOL     OW63487   9.165   5.216   2.499
53883SOL    HW163488   9.201   5.238   2.413
53883SOL    HW263489   9.080   5.176   2.480
53884SOL     OW63490   4.287   2.185   8.296
53884SOL    HW163491   4.330   2.183   8.381
53884SOL    HW263492   4.357   2.166   8.233
53885SOL     OW63493  12.563  13.652   2.185
53885SOL    HW163494  12.619  13.647   2.108
53885SOL    HW263495  12.624  13.657   2.259
53886SOL     OW63496  10.120  12.877   4.797
53886SOL    HW163497  10.140  12.880   4.703
53886SOL    HW263498  10.073  12.959   4.814
53887SOL     OW63499  12.755   0.600   2.315
53887SOL    HW163500  12.748   0.693   2.294
53887SOL    HW263501  12.844   0.575   2.288
53888SOL     OW63502   4.458   7.304   9.434
53888SOL    HW163503   4.508   7.353   9.499
53888SOL    HW263504   4.523   7.271   9.372
53889SOL     OW63505   7.017   5.893   3.195
53889SOL    HW163506   7.079   5.964   3.213
53889SOL    HW263507   6.985   5.867   3.281
53890SOL     OW63508   6.079  10.706   0.389
53890SOL    HW163509   6.067  10.677   0.298
53890SOL    HW263510   5.990  10.704   0.426
53891SOL     OW63511   4.410   4.133   1.896
53891SOL    HW163512   4.377   4.121   1.985
53891SOL    HW263513   4.504   4.124   1.904
53892SOL     OW63514  10.467  13.950   8.427
53892SOL    HW163515  10.470  13.978   8.335
53892SOL    HW263516  10.534  14.003   8.470
53893SOL     OW63517   8.735   7.893   1.530
53893SOL    HW163518   8.804   7.931   1.584
53893SOL    HW263519   8.737   7.800   1.552
53894SOL     OW63520  10.783   2.729  10.881
53894SOL    HW163521  10.787   2.754  10.973
53894SOL    HW263522  10.693   2.700  10.868
53895SOL     OW63523  12.324   8.070  10.006
53895SOL    HW163524  12.403   8.017  10.000
53895SOL    HW263525  12.328   8.112  10.091
53896SOL     OW63526   5.044   3.019   0.720
53896SOL    HW163527   5.071   2.928   0.729
53896SOL    HW263528   5.090   3.065   0.791
53897SOL     OW63529   2.335   4.691   6.781
53897SOL    HW163530   2.286   4.727   6.855
53897SOL    HW263531   2.413   4.746   6.775
53898SOL     OW63532  13.371   0.624   7.609
53898SOL    HW163533  13.303   0.594   7.668
53898SOL    HW263534  13.384   0.552   7.548
53899SOL     OW63535  11.971  13.843  13.752
53899SOL    HW163536  11.934  13.830  13.664
53899SOL    HW263537  11.983  13.755  13.787
53900SOL     OW63538   9.554   1.449   2.522
53900SOL    HW163539   9.585   1.359   2.521
53900SOL    HW263540   9.553   1.473   2.615
53901SOL     OW63541  12.924   9.909  13.347
53901SOL    HW163542  12.889   9.861  13.422
53901SOL    HW263543  12.944   9.841  13.282
53902SOL     OW63544  13.709  11.437  10.050
53902SOL    HW163545  13.618  11.409  10.041
53902SOL    HW263546  13.760  11.356  10.039
53903SOL     OW63547   3.162   2.274   9.798
53903SOL    HW163548   3.078   2.251   9.759
53903SOL    HW263549   3.175   2.209   9.867
53904SOL     OW63550   2.987   8.462   7.005
53904SOL    HW163551   3.050   8.504   6.946
53904SOL    HW263552   3.011   8.493   7.092
53905SOL     OW63553   1.925   6.728   6.543
53905SOL    HW163554   1.861   6.790   6.578
53905SOL    HW263555   1.873   6.659   6.503
53906SOL     OW63556  13.770  12.425  10.374
53906SOL    HW163557  13.852  12.437  10.327
53906SOL    HW263558  13.702  12.442  10.309
53907SOL     OW63559  14.140   6.339   1.285
53907SOL    HW163560  14.208   6.315   1.347
53907SOL    HW263561  14.107   6.424   1.316
53908SOL     OW63562   5.528   9.267   8.603
53908SOL    HW163563   5.456   9.303   8.654
53908SOL    HW263564   5.534   9.175   8.630
53909SOL     OW63565  12.277  13.170   9.290
53909SOL    HW163566  12.296  13.084   9.327
53909SOL    HW263567  12.284  13.158   9.196
53910SOL     OW63568  11.057   9.846   8.920
53910SOL    HW163569  11.103   9.881   8.844
53910SOL    HW263570  10.965   9.868   8.905
53911SOL     OW63571  11.940   3.569   5.074
53911SOL    HW163572  11.875   3.625   5.116
53911SOL    HW263573  12.018   3.625   5.067
53912SOL     OW63574   3.127   0.642   9.234
53912SOL    HW163575   3.123   0.571   9.169
53912SOL    HW263576   3.194   0.613   9.296
53913SOL     OW63577  14.314   0.960   6.079
53913SOL    HW163578  14.317   0.981   5.986
53913SOL    HW263579  14.301   0.865   6.082
53914SOL     OW63580  11.061  11.569   5.190
53914SOL    HW163581  11.114  11.532   5.120
53914SOL    HW263582  11.121  11.578   5.264
53915SOL     OW63583  13.092  12.414   5.652
53915SOL    HW163584  13.136  12.499   5.644
53915SOL    HW263585  13.163  12.350   5.643
53916SOL     OW63586  13.619   6.398  10.346
53916SOL    HW163587  13.575   6.366  10.425
53916SOL    HW263588  13.606   6.327  10.282
53917SOL     OW63589   0.265   5.434   8.389
53917SOL    HW163590   0.178   5.436   8.350
53917SOL    HW263591   0.292   5.343   8.382
53918SOL     OW63592   5.338   0.025  13.097
53918SOL    HW163593   5.411   0.071  13.137
53918SOL    HW263594   5.335   0.058  13.007
53919SOL     OW63595  13.393   3.728  14.812
53919SOL    HW163596  13.450   3.731   0.016
53919SOL    HW263597  13.366   3.818  14.798
53920SOL     OW63598   2.187  10.054  11.055
53920SOL    HW163599   2.259   9.991  11.045
53920SOL    HW263600   2.215  10.130  11.005
53921SOL     OW63601  10.018  12.073   4.681
53921SOL    HW163602  10.020  11.978   4.679
53921SOL    HW263603  10.001  12.099   4.590
53922SOL     OW63604   4.301   4.762   3.361
53922SOL    HW163605   4.373   4.727   3.308
53922SOL    HW263606   4.226   4.708   3.337
53923SOL     OW63607   5.162  14.852   8.470
53923SOL    HW163608   5.094  14.784   8.468
53923SOL    HW263609   5.186  14.865   8.379
53924SOL     OW63610   4.661  14.079   7.919
53924SOL    HW163611   4.670  14.169   7.889
53924SOL    HW263612   4.692  14.026   7.845
53925SOL     OW63613   5.213  14.375   5.604
53925SOL    HW163614   5.173  14.419   5.529
53925SOL    HW263615   5.143  14.368   5.668
53926SOL     OW63616   5.220   1.437   7.897
53926SOL    HW163617   5.306   1.402   7.921
53926SOL    HW263618   5.226   1.452   7.802
53927SOL     OW63619  14.108   5.431  12.404
53927SOL    HW163620  14.025   5.429  12.357
53927SOL    HW263621  14.100   5.504  12.464
53928SOL     OW63622   0.372  13.512  10.743
53928SOL    HW163623   0.459  13.511  10.703
53928SOL    HW263624   0.338  13.423  10.728
53929SOL     OW63625   5.799   6.277   1.541
53929SOL    HW163626   5.799   6.321   1.456
53929SOL    HW263627   5.749   6.197   1.526
53930SOL     OW63628   0.043   4.224   3.553
53930SOL    HW163629   0.035   4.168   3.630
53930SOL    HW263630  14.869   4.304   3.576
53931SOL     OW63631   0.938   8.087   7.524
53931SOL    HW163632   0.854   8.042   7.528
53931SOL    HW263633   0.966   8.076   7.433
53932SOL     OW63634   1.621  13.571   3.605
53932SOL    HW163635   1.603  13.524   3.686
53932SOL    HW263636   1.594  13.511   3.535
53933SOL     OW63637  14.683   1.477   0.611
53933SOL    HW163638  14.637   1.408   0.563
53933SOL    HW263639  14.759   1.433   0.650
53934SOL     OW63640  14.495   6.198   4.977
53934SOL    HW163641  14.423   6.251   5.010
53934SOL    HW263642  14.498   6.122   5.035
53935SOL     OW63643   4.264   4.655   7.001
53935SOL    HW163644   4.273   4.563   6.975
53935SOL    HW263645   4.354   4.688   7.003
53936SOL     OW63646  14.170   9.607   1.865
53936SOL    HW163647  14.258   9.646   1.870
53936SOL    HW263648  14.112   9.675   1.899
53937SOL     OW63649   8.396  11.444   2.506
53937SOL    HW163650   8.302  11.458   2.512
53937SOL    HW263651   8.407  11.378   2.438
53938SOL     OW63652   0.433   9.304  14.606
53938SOL    HW163653   0.418   9.212  14.631
53938SOL    HW263654   0.440   9.350  14.690
53939SOL     OW63655   5.651  11.578  10.558
53939SOL    HW163656   5.642  11.613  10.469
53939SOL    HW263657   5.619  11.488  10.552
53940SOL     OW63658   1.562  14.079   1.475
53940SOL    HW163659   1.512  14.067   1.556
53940SOL    HW263660   1.641  14.025   1.488
53941SOL     OW63661   9.001   7.083  13.293
53941SOL    HW163662   8.923   7.090  13.348
53941SOL    HW263663   9.051   7.162  13.314
53942SOL     OW63664   9.272   9.196  13.580
53942SOL    HW163665   9.350   9.141  13.574
53942SOL    HW263666   9.242   9.185  13.671
53943SOL     OW63667   6.170   4.549   5.479
53943SOL    HW163668   6.179   4.464   5.437
53943SOL    HW263669   6.259   4.585   5.480
53944SOL     OW63670   5.213   2.473  10.935
53944SOL    HW163671   5.234   2.412  10.864
53944SOL    HW263672   5.284   2.537  10.933
53945SOL     OW63673   7.946   8.788   8.405
53945SOL    HW163674   8.032   8.787   8.447
53945SOL    HW263675   7.913   8.698   8.413
53946SOL     OW63676   2.867   9.763   3.053
53946SOL    HW163677   2.809   9.740   2.980
53946SOL    HW263678   2.885   9.680   3.097
53947SOL     OW63679   1.338   4.405   6.062
53947SOL    HW163680   1.267   4.362   6.016
53947SOL    HW263681   1.312   4.497   6.065
53948SOL     OW63682  11.452   0.498   1.972
53948SOL    HW163683  11.462   0.462   2.060
53948SOL    HW263684  11.483   0.429   1.914
53949SOL     OW63685  11.181   2.159  14.164
53949SOL    HW163686  11.276   2.147  14.157
53949SOL    HW263687  11.170   2.243  14.209
53950SOL     OW63688  13.276  12.960  10.084
53950SOL    HW163689  13.186  12.928  10.081
53950SOL    HW263690  13.322  12.895  10.138
53951SOL     OW63691   3.374   4.825   6.880
53951SOL    HW163692   3.370   4.901   6.823
53951SOL    HW263693   3.294   4.829   6.932
53952SOL     OW63694   7.033  11.600   3.922
53952SOL    HW163695   7.054  11.525   3.978
53952SOL    HW263696   7.095  11.668   3.948
53953SOL     OW63697   3.760   7.845   4.757
53953SOL    HW163698   3.848   7.839   4.720
53953SOL    HW263699   3.702   7.828   4.683
53954SOL     OW63700   9.845   1.635   2.543
53954SOL    HW163701   9.928   1.604   2.505
53954SOL    HW263702   9.804   1.557   2.578
53955SOL     OW63703   9.672   6.668   3.675
53955SOL    HW163704   9.598   6.643   3.731
53955SOL    HW263705   9.656   6.760   3.655
53956SOL     OW63706   4.024   8.373  11.290
53956SOL    HW163707   4.057   8.284  11.305
53956SOL    HW263708   3.986   8.399  11.374
53957SOL     OW63709   3.909   4.194   0.551
53957SOL    HW163710   3.970   4.192   0.477
53957SOL    HW263711   3.856   4.115   0.541
53958SOL     OW63712   7.035   5.836  10.847
53958SOL    HW163713   6.963   5.786  10.811
53958SOL    HW263714   7.094   5.771  10.886
53959SOL     OW63715   6.838   9.788   9.827
53959SOL    HW163716   6.878   9.762   9.910
53959SOL    HW263717   6.858   9.716   9.767
53960SOL     OW63718   9.554   9.107   4.507
53960SOL    HW163719   9.558   9.169   4.435
53960SOL    HW263720   9.630   9.128   4.561
53961SOL     OW63721   3.394   4.621   0.111
53961SOL    HW163722   3.424   4.551   0.052
53961SOL    HW263723   3.402   4.701   0.060
53962SOL     OW63724  10.866   7.312   9.947
53962SOL    HW163725  10.830   7.399   9.931
53962SOL    HW263726  10.958   7.327   9.968
53963SOL     OW63727   8.806   9.701  14.527
53963SOL    HW163728   8.828   9.622  14.577
53963SOL    HW263729   8.733   9.740  14.576
53964SOL     OW63730   4.151   7.692  13.062
53964SOL    HW163731   4.184   7.603  13.046
53964SOL    HW263732   4.064   7.693  13.021
53965SOL     OW63733  10.648   6.679  13.995
53965SOL    HW163734  10.694   6.655  14.075
53965SOL    HW263735  10.716   6.678  13.927
53966SOL     OW63736   5.705  12.349  14.005
53966SOL    HW163737   5.715  12.441  14.029
53966SOL    HW263738   5.795  12.317  13.996
53967SOL     OW63739  12.482   6.824   6.670
53967SOL    HW163740  12.400   6.814   6.621
53967SOL    HW263741  12.461   6.793   6.758
53968SOL     OW63742   3.443  14.643  14.150
53968SOL    HW163743   3.537  14.653  14.163
53968SOL    HW263744   3.404  14.677  14.231
53969SOL     OW63745   3.020   5.692  13.845
53969SOL    HW163746   2.969   5.661  13.770
53969SOL    HW263747   3.080   5.757  13.808
53970SOL     OW63748   7.350   2.344   8.857
53970SOL    HW163749   7.267   2.297   8.859
53970SOL    HW263750   7.345   2.404   8.931
53971SOL     OW63751   7.015   3.271  11.287
53971SOL    HW163752   6.928   3.308  11.298
53971SOL    HW263753   7.054   3.274  11.374
53972SOL     OW63754   5.252  10.457   1.326
53972SOL    HW163755   5.289  10.482   1.411
53972SOL    HW263756   5.325  10.460   1.265
53973SOL     OW63757  12.518  14.313  13.755
53973SOL    HW163758  12.486  14.270  13.676
53973SOL    HW263759  12.442  14.314  13.814
53974SOL     OW63760   7.801   2.955   1.492
53974SOL    HW163761   7.734   3.022   1.477
53974SOL    HW263762   7.754   2.872   1.483
53975SOL     OW63763   6.100   2.277   6.601
53975SOL    HW163764   6.183   2.273   6.554
53975SOL    HW263765   6.094   2.367   6.632
53976SOL     OW63766   4.475  12.267   9.693
53976SOL    HW163767   4.501  12.292   9.782
53976SOL    HW263768   4.547  12.213   9.661
53977SOL     OW63769   0.512  11.847   8.187
53977SOL    HW163770   0.568  11.839   8.265
53977SOL    HW263771   0.566  11.896   8.125
53978SOL     OW63772   2.039   8.443   1.240
53978SOL    HW163773   2.026   8.446   1.335
53978SOL    HW263774   2.006   8.357   1.214
53979SOL     OW63775   6.480  11.780  10.176
53979SOL    HW163776   6.440  11.695  10.162
53979SOL    HW263777   6.516  11.805  10.091
53980SOL     OW63778   4.844   7.558  14.232
53980SOL    HW163779   4.844   7.554  14.136
53980SOL    HW263780   4.797   7.639  14.253
53981SOL     OW63781   8.818   8.364  12.875
53981SOL    HW163782   8.785   8.275  12.858
53981SOL    HW263783   8.913   8.353  12.883
53982SOL     OW63784   0.533   5.080   3.065
53982SOL    HW163785   0.555   5.133   3.142
53982SOL    HW263786   0.563   4.992   3.088
53983SOL     OW63787  13.826   6.491   9.728
53983SOL    HW163788  13.833   6.400   9.699
53983SOL    HW263789  13.913   6.528   9.713
53984SOL     OW63790   0.431   0.755  10.082
53984SOL    HW163791   0.523   0.735  10.062
53984SOL    HW263792   0.423   0.849  10.065
53985SOL     OW63793   5.235  14.558   9.145
53985SOL    HW163794   5.294  14.562   9.220
53985SOL    HW263795   5.255  14.637   9.095
53986SOL     OW63796   9.523   9.102   5.858
53986SOL    HW163797   9.540   9.011   5.834
53986SOL    HW263798   9.428   9.111   5.854
53987SOL     OW63799  10.478  12.646   7.068
53987SOL    HW163800  10.508  12.688   7.149
53987SOL    HW263801  10.395  12.606   7.092
53988SOL     OW63802   4.692  11.291  10.092
53988SOL    HW163803   4.725  11.212  10.135
53988SOL    HW263804   4.627  11.326  10.153
53989SOL     OW63805  12.806  11.178   5.176
53989SOL    HW163806  12.764  11.107   5.225
53989SOL    HW263807  12.768  11.258   5.213
53990SOL     OW63808  12.859  13.584   2.936
53990SOL    HW163809  12.892  13.608   2.849
53990SOL    HW263810  12.765  13.568   2.922
53991SOL     OW63811   3.096  13.989  12.376
53991SOL    HW163812   3.020  13.943  12.341
53991SOL    HW263813   3.078  13.997  12.470
53992SOL     OW63814  14.248   2.632   6.143
53992SOL    HW163815  14.168   2.673   6.174
53992SOL    HW263816  14.315   2.699   6.154
53993SOL     OW63817   0.834   6.976   3.907
53993SOL    HW163818   0.802   6.887   3.892
53993SOL    HW263819   0.795   7.002   3.990
53994SOL     OW63820   0.474   8.570   8.037
53994SOL    HW163821   0.480   8.574   8.132
53994SOL    HW263822   0.541   8.506   8.012
53995SOL     OW63823  13.030   6.636   7.326
53995SOL    HW163824  13.111   6.652   7.374
53995SOL    HW263825  13.046   6.674   7.239
53996SOL     OW63826   9.799   2.275   6.324
53996SOL    HW163827   9.771   2.198   6.373
53996SOL    HW263828   9.718   2.322   6.306
53997SOL     OW63829   4.967   7.623   2.632
53997SOL    HW163830   4.974   7.568   2.554
53997SOL    HW263831   4.920   7.569   2.696
53998SOL     OW63832  10.789   9.839   0.551
53998SOL    HW163833  10.757   9.921   0.588
53998SOL    HW263834  10.797   9.857   0.457
53999SOL     OW63835   3.121  14.708   7.060
53999SOL    HW163836   3.164  14.756   6.990
53999SOL    HW263837   3.186  14.644   7.089
54000SOL     OW63838  11.160   8.734   5.606
54000SOL    HW163839  11.205   8.690   5.534
54000SOL    HW263840  11.229   8.785   5.649
54001SOL     OW63841  11.211   2.856   1.182
54001SOL    HW163842  11.225   2.801   1.258
54001SOL    HW263843  11.251   2.808   1.109
54002SOL     OW63844   6.857   9.131  10.542
54002SOL    HW163845   6.851   9.044  10.583
54002SOL    HW263846   6.897   9.186  10.609
54003SOL     OW63847   5.590   4.490  10.495
54003SOL    HW163848   5.675   4.473  10.534
54003SOL    HW263849   5.598   4.458  10.405
54004SOL     OW63850   4.763   9.657   5.931
54004SOL    HW163851   4.753   9.750   5.910
54004SOL    HW263852   4.689   9.636   5.987
54005SOL     OW63853   8.784  11.895  14.816
54005SOL    HW163854   8.779  11.984  14.852
54005SOL    HW263855   8.744  11.901  14.730
54006SOL     OW63856   3.440   3.851   0.882
54006SOL    HW163857   3.461   3.940   0.911
54006SOL    HW263858   3.395   3.862   0.798
54007SOL     OW63859   9.263   6.463   9.086
54007SOL    HW163860   9.210   6.483   9.009
54007SOL    HW263861   9.244   6.534   9.147
54008SOL     OW63862   0.943   5.775   7.590
54008SOL    HW163863   0.935   5.711   7.520
54008SOL    HW263864   0.875   5.750   7.653
54009SOL     OW63865  11.102   2.272   8.751
54009SOL    HW163866  11.102   2.240   8.841
54009SOL    HW263867  11.045   2.211   8.704
54010SOL     OW63868   5.522   8.809   9.194
54010SOL    HW163869   5.589   8.812   9.263
54010SOL    HW263870   5.440   8.796   9.242
54011SOL     OW63871  11.988  11.902  12.937
54011SOL    HW163872  11.981  11.929  12.846
54011SOL    HW263873  12.072  11.938  12.966
54012SOL     OW63874   6.496  13.229   4.936
54012SOL    HW163875   6.586  13.208   4.911
54012SOL    HW263876   6.505  13.303   4.997
54013SOL     OW63877   0.049   7.638  13.234
54013SOL    HW163878  14.830   7.646  13.211
54013SOL    HW263879   0.089   7.718  13.199
54014SOL     OW63880  11.093   8.876   4.479
54014SOL    HW163881  11.035   8.942   4.442
54014SOL    HW263882  11.061   8.863   4.569
54015SOL     OW63883   1.293  14.531   2.430
54015SOL    HW163884   1.237  14.511   2.505
54015SOL    HW263885   1.308  14.446   2.388
54016SOL     OW63886   2.666   5.506   7.134
54016SOL    HW163887   2.657   5.600   7.117
54016SOL    HW263888   2.583   5.481   7.174
54017SOL     OW63889   6.753   3.602  11.743
54017SOL    HW163890   6.711   3.670  11.795
54017SOL    HW263891   6.705   3.522  11.766
54018SOL     OW63892  13.591   5.299   7.135
54018SOL    HW163893  13.503   5.300   7.097
54018SOL    HW263894  13.607   5.207   7.156
54019SOL     OW63895  10.648   5.402  12.218
54019SOL    HW163896  10.680   5.483  12.258
54019SOL    HW263897  10.562   5.426  12.183
54020SOL     OW63898   2.562   3.333   6.010
54020SOL    HW163899   2.556   3.286   5.927
54020SOL    HW263900   2.583   3.423   5.986
54021SOL     OW63901  11.990  13.672   1.600
54021SOL    HW163902  12.040  13.689   1.521
54021SOL    HW263903  12.005  13.748   1.656
54022SOL     OW63904   9.756  10.448   9.598
54022SOL    HW163905   9.807  10.490   9.530
54022SOL    HW263906   9.799  10.473   9.680
54023SOL     OW63907   5.052   0.310  10.926
54023SOL    HW163908   5.016   0.300  10.838
54023SOL    HW263909   5.123   0.374  10.916
54024SOL     OW63910  10.167   5.762   5.904
54024SOL    HW163911  10.157   5.857   5.912
54024SOL    HW263912  10.189   5.733   5.993
54025SOL     OW63913   5.882  13.783   4.542
54025SOL    HW163914   5.966  13.750   4.511
54025SOL    HW263915   5.836  13.707   4.576
54026SOL     OW63916   8.134   3.253   3.063
54026SOL    HW163917   8.116   3.305   2.984
54026SOL    HW263918   8.059   3.270   3.120
54027SOL     OW63919  13.020  10.727  14.842
54027SOL    HW163920  13.099  10.694   0.012
54027SOL    HW263921  12.982  10.788   0.032
54028SOL     OW63922   7.627   6.867  12.080
54028SOL    HW163923   7.635   6.822  11.996
54028SOL    HW263924   7.540   6.844  12.112
54029SOL     OW63925   4.576   4.996   4.000
54029SOL    HW163926   4.484   5.021   3.993
54029SOL    HW263927   4.622   5.058   3.943
54030SOL     OW63928  14.277  11.360   4.514
54030SOL    HW163929  14.227  11.299   4.568
54030SOL    HW263930  14.368  11.335   4.528
54031SOL     OW63931  10.414  11.972   2.899
54031SOL    HW163932  10.434  11.918   2.823
54031SOL    HW263933  10.461  12.054   2.883
54032SOL     OW63934   0.457   1.739   9.077
54032SOL    HW163935   0.369   1.773   9.064
54032SOL    HW263936   0.469   1.675   9.006
54033SOL     OW63937   6.481   9.419   4.058
54033SOL    HW163938   6.539   9.377   3.995
54033SOL    HW263939   6.535   9.486   4.101
54034SOL     OW63940   9.601   4.249   6.939
54034SOL    HW163941   9.618   4.172   6.993
54034SOL    HW263942   9.638   4.322   6.989
54035SOL     OW63943   0.257   7.815   4.289
54035SOL    HW163944   0.350   7.824   4.270
54035SOL    HW263945   0.216   7.806   4.203
54036SOL     OW63946   4.038   8.078  10.326
54036SOL    HW163947   4.076   8.143  10.268
54036SOL    HW263948   3.959   8.119  10.360
54037SOL     OW63949   5.540  13.593   5.955
54037SOL    HW163950   5.516  13.504   5.928
54037SOL    HW263951   5.511  13.600   6.046
54038SOL     OW63952   1.099   0.159   1.297
54038SOL    HW163953   1.102   0.231   1.234
54038SOL    HW263954   1.084   0.201   1.381
54039SOL     OW63955  10.682  11.525  12.132
54039SOL    HW163956  10.621  11.574  12.078
54039SOL    HW263957  10.766  11.570  12.121
54040SOL     OW63958   3.399   2.810   8.510
54040SOL    HW163959   3.317   2.778   8.546
54040SOL    HW263960   3.460   2.806   8.583
54041SOL     OW63961   5.712   2.481  12.730
54041SOL    HW163962   5.792   2.533  12.728
54041SOL    HW263963   5.734   2.405  12.785
54042SOL     OW63964   5.461   7.451  11.571
54042SOL    HW163965   5.464   7.357  11.550
54042SOL    HW263966   5.504   7.457  11.657
54043SOL     OW63967   4.315   6.817   1.553
54043SOL    HW163968   4.311   6.724   1.530
54043SOL    HW263969   4.238   6.831   1.609
54044SOL     OW63970   7.680   7.416   4.996
54044SOL    HW163971   7.737   7.433   5.071
54044SOL    HW263972   7.603   7.470   5.011
54045SOL     OW63973   9.110  11.279  13.190
54045SOL    HW163974   9.096  11.328  13.109
54045SOL    HW263975   9.025  11.280  13.234
54046SOL     OW63976   9.986   0.072   1.445
54046SOL    HW163977   9.909   0.116   1.410
54046SOL    HW263978   9.974   0.074   1.540
54047SOL     OW63979   8.739   0.013   0.581
54047SOL    HW163980   8.710   0.091   0.534
54047SOL    HW263981   8.671  14.822   0.565
54048SOL     OW63982  10.669   8.574   5.074
54048SOL    HW163983  10.627   8.611   4.996
54048SOL    HW263984  10.640   8.630   5.146
54049SOL     OW63985   7.021   5.828  14.059
54049SOL    HW163986   6.990   5.913  14.090
54049SOL    HW263987   7.101   5.811  14.109
54050SOL     OW63988  13.083   2.182   1.543
54050SOL    HW163989  13.175   2.207   1.535
54050SOL    HW263990  13.083   2.109   1.605
54051SOL     OW63991  14.178  12.232  10.241
54051SOL    HW163992  14.155  12.140  10.254
54051SOL    HW263993  14.165  12.273  10.326
54052SOL     OW63994  11.077  14.536   1.884
54052SOL    HW163995  11.042  14.476   1.818
54052SOL    HW263996  11.070  14.623   1.843
54053SOL     OW63997   9.937  12.105   5.470
54053SOL    HW163998   9.966  12.063   5.389
54053SOL    HW263999   9.858  12.056   5.495
54054SOL     OW64000   4.306   6.621   6.321
54054SOL    HW164001   4.315   6.567   6.399
54054SOL    HW264002   4.395   6.631   6.287
54055SOL     OW64003  12.306   6.906   8.491
54055SOL    HW164004  12.252   6.833   8.462
54055SOL    HW264005  12.244   6.976   8.511
54056SOL     OW64006   7.772   5.229   2.407
54056SOL    HW164007   7.804   5.278   2.332
54056SOL    HW264008   7.801   5.279   2.483
54057SOL     OW64009   1.072  11.687  12.370
54057SOL    HW164010   1.051  11.686  12.463
54057SOL    HW264011   1.140  11.620  12.360
54058SOL     OW64012  10.559   0.833   5.106
54058SOL    HW164013  10.631   0.839   5.169
54058SOL    HW264014  10.599   0.854   5.022
54059SOL     OW64015   3.611  14.002   8.534
54059SOL    HW164016   3.545  13.983   8.468
54059SOL    HW264017   3.563  14.041   8.606
54060SOL     OW64018  11.894   5.426  13.255
54060SOL    HW164019  11.980   5.393  13.232
54060SOL    HW264020  11.886   5.412  13.350
54061SOL     OW64021  13.506  11.747  10.243
54061SOL    HW164022  13.462  11.831  10.258
54061SOL    HW264023  13.512  11.739  10.148
54062SOL     OW64024  12.584  11.378   6.474
54062SOL    HW164025  12.627  11.452   6.431
54062SOL    HW264026  12.571  11.315   6.403
54063SOL     OW64027   5.848   5.446  11.550
54063SOL    HW164028   5.826   5.399  11.630
54063SOL    HW264029   5.764   5.457  11.505
54064SOL     OW64030   6.652   1.803   8.623
54064SOL    HW164031   6.743   1.779   8.640
54064SOL    HW264032   6.602   1.727   8.653
54065SOL     OW64033   4.240  13.341   0.446
54065SOL    HW164034   4.154  13.322   0.483
54065SOL    HW264035   4.291  13.373   0.520
54066SOL     OW64036   1.555  12.346   7.137
54066SOL    HW164037   1.513  12.407   7.077
54066SOL    HW264038   1.606  12.401   7.196
54067SOL     OW64039   0.372   8.012   4.766
54067SOL    HW164040   0.320   7.945   4.721
54067SOL    HW264041   0.358   7.994   4.859
54068SOL     OW64042   2.566   9.403   2.446
54068SOL    HW164043   2.486   9.361   2.478
54068SOL    HW264044   2.567   9.489   2.488
54069SOL     OW64045   1.887  11.411  11.056
54069SOL    HW164046   1.842  11.488  11.093
54069SOL    HW264047   1.866  11.414  10.963
54070SOL     OW64048   1.034   8.704   5.919
54070SOL    HW164049   0.992   8.639   5.863
54070SOL    HW264050   1.003   8.788   5.886
54071SOL     OW64051   1.830  10.977   4.574
54071SOL    HW164052   1.897  10.908   4.573
54071SOL    HW264053   1.863  11.043   4.513
54072SOL     OW64054  13.001   4.520   4.110
54072SOL    HW164055  13.090   4.527   4.074
54072SOL    HW264056  12.983   4.607   4.145
54073SOL     OW64057   9.875   0.440  12.372
54073SOL    HW164058   9.888   0.345  12.363
54073SOL    HW264059   9.781   0.453  12.362
54074SOL     OW64060   2.710   5.530   7.734
54074SOL    HW164061   2.657   5.607   7.758
54074SOL    HW264062   2.733   5.491   7.818
54075SOL     OW64063  12.074  13.844  13.250
54075SOL    HW164064  12.002  13.907  13.238
54075SOL    HW264065  12.035  13.774  13.302
54076SOL     OW64066  11.367  11.869  11.662
54076SOL    HW164067  11.377  11.790  11.609
54076SOL    HW264068  11.357  11.837  11.752
54077SOL     OW64069   6.695   3.668   1.307
54077SOL    HW164070   6.640   3.617   1.247
54077SOL    HW264071   6.751   3.720   1.250
54078SOL     OW64072   8.286   0.567   4.139
54078SOL    HW164073   8.289   0.654   4.100
54078SOL    HW264074   8.197   0.557   4.171
54079SOL     OW64075   4.689   8.973   6.993
54079SOL    HW164076   4.657   8.973   6.903
54079SOL    HW264077   4.781   8.999   6.986
54080SOL     OW64078  11.668   2.049   3.780
54080SOL    HW164079  11.579   2.080   3.762
54080SOL    HW264080  11.687   2.081   3.869
54081SOL     OW64081  10.448   1.773  10.245
54081SOL    HW164082  10.408   1.711  10.183
54081SOL    HW264083  10.507   1.720  10.298
54082SOL     OW64084  13.339   6.211  14.641
54082SOL    HW164085  13.410   6.230  14.580
54082SOL    HW264086  13.359   6.263  14.718
54083SOL     OW64087  13.580  10.192  10.197
54083SOL    HW164088  13.515  10.219  10.261
54083SOL    HW264089  13.531  10.143  10.131
54084SOL     OW64090   5.044  14.201   2.619
54084SOL    HW164091   5.112  14.134   2.631
54084SOL    HW264092   5.000  14.205   2.704
54085SOL     OW64093   9.076   8.637   2.711
54085SOL    HW164094   9.097   8.651   2.803
54085SOL    HW264095   9.161   8.637   2.667
54086SOL     OW64096   9.424  13.152   1.428
54086SOL    HW164097   9.449  13.190   1.344
54086SOL    HW264098   9.449  13.060   1.421
54087SOL     OW64099  13.513   1.270   4.686
54087SOL    HW164100  13.525   1.248   4.593
54087SOL    HW264101  13.571   1.345   4.699
54088SOL     OW64102   9.859  13.018   8.255
54088SOL    HW164103   9.838  12.930   8.223
54088SOL    HW264104   9.813  13.025   8.339
54089SOL     OW64105   7.964   0.364   6.463
54089SOL    HW164106   7.913   0.283   6.460
54089SOL    HW264107   8.055   0.336   6.471
54090SOL     OW64108   5.226   6.713   6.548
54090SOL    HW164109   5.238   6.741   6.638
54090SOL    HW264110   5.265   6.626   6.544
54091SOL     OW64111   8.436   9.273   4.923
54091SOL    HW164112   8.439   9.316   4.838
54091SOL    HW264113   8.374   9.325   4.974
54092SOL     OW64114  12.499   4.868   3.512
54092SOL    HW164115  12.416   4.907   3.485
54092SOL    HW264116  12.525   4.815   3.436
54093SOL     OW64117   9.226   8.446   4.365
54093SOL    HW164118   9.234   8.430   4.459
54093SOL    HW264119   9.208   8.539   4.358
54094SOL     OW64120  13.638   1.346  13.373
54094SOL    HW164121  13.623   1.253  13.362
54094SOL    HW264122  13.572   1.389  13.319
54095SOL     OW64123  14.456  11.145   6.000
54095SOL    HW164124  14.373  11.176   5.964
54095SOL    HW264125  14.493  11.090   5.931
54096SOL     OW64126  14.158   4.436  13.196
54096SOL    HW164127  14.175   4.502  13.129
54096SOL    HW264128  14.071   4.401  13.173
54097SOL     OW64129   6.727  11.236   3.262
54097SOL    HW164130   6.715  11.160   3.205
54097SOL    HW264131   6.684  11.308   3.215
54098SOL     OW64132   7.417   1.950   3.891
54098SOL    HW164133   7.501   1.905   3.888
54098SOL    HW264134   7.439   2.043   3.882
54099SOL     OW64135  14.327  13.705  13.999
54099SOL    HW164136  14.244  13.733  14.037
54099SOL    HW264137  14.383  13.783  14.005
54100SOL     OW64138   3.194  14.364  12.344
54100SOL    HW164139   3.194  14.395  12.435
54100SOL    HW264140   3.111  14.395  12.308
54101SOL     OW64141   2.116   4.491   8.298
54101SOL    HW164142   2.169   4.543   8.238
54101SOL    HW264143   2.096   4.410   8.250
54102SOL     OW64144   9.494   3.080   5.168
54102SOL    HW164145   9.422   3.081   5.105
54102SOL    HW264146   9.512   3.172   5.186
54103SOL     OW64147  14.608   2.878   1.599
54103SOL    HW164148  14.643   2.945   1.541
54103SOL    HW264149  14.580   2.926   1.677
54104SOL     OW64150   9.085   8.463  10.907
54104SOL    HW164151   9.157   8.513  10.945
54104SOL    HW264152   9.011   8.479  10.966
54105SOL     OW64153   8.250  12.907  13.335
54105SOL    HW164154   8.175  12.966  13.331
54105SOL    HW264155   8.213  12.821  13.353
54106SOL     OW64156  12.128   5.452   1.404
54106SOL    HW164157  12.117   5.517   1.334
54106SOL    HW264158  12.043   5.447   1.446
54107SOL     OW64159  14.634  14.326  12.866
54107SOL    HW164160  14.549  14.295  12.834
54107SOL    HW264161  14.698  14.274  12.818
54108SOL     OW64162   7.262   8.209   5.939
54108SOL    HW164163   7.267   8.119   5.971
54108SOL    HW264164   7.241   8.201   5.846
54109SOL     OW64165   2.045   0.334   6.796
54109SOL    HW164166   2.035   0.240   6.780
54109SOL    HW264167   2.013   0.376   6.716
54110SOL     OW64168   5.947   7.566   8.789
54110SOL    HW164169   5.919   7.524   8.870
54110SOL    HW264170   6.042   7.570   8.796
54111SOL     OW64171   2.290   2.494   8.872
54111SOL    HW164172   2.238   2.450   8.940
54111SOL    HW264173   2.324   2.422   8.818
54112SOL     OW64174  13.410   6.190   0.976
54112SOL    HW164175  13.385   6.098   0.964
54112SOL    HW264176  13.326   6.237   0.981
54113SOL     OW64177   2.511   8.125   3.995
54113SOL    HW164178   2.596   8.079   3.994
54113SOL    HW264179   2.497   8.151   3.904
54114SOL     OW64180  11.681   4.610   9.256
54114SOL    HW164181  11.686   4.573   9.344
54114SOL    HW264182  11.737   4.688   9.260
54115SOL     OW64183  11.896   0.895   9.565
54115SOL    HW164184  11.847   0.945   9.631
54115SOL    HW264185  11.920   0.814   9.609
54116SOL     OW64186  12.807   2.680  10.593
54116SOL    HW164187  12.737   2.637  10.545
54116SOL    HW264188  12.767   2.759  10.628
54117SOL     OW64189   7.660   0.817   3.801
54117SOL    HW164190   7.646   0.750   3.735
54117SOL    HW264191   7.730   0.872   3.766
54118SOL     OW64192  12.994   1.659   5.018
54118SOL    HW164193  13.089   1.666   5.004
54118SOL    HW264194  12.984   1.581   5.073
54119SOL     OW64195   3.549   9.420   3.658
54119SOL    HW164196   3.468   9.409   3.610
54119SOL    HW264197   3.561   9.338   3.707
54120SOL     OW64198   1.770  13.557  13.905
54120SOL    HW164199   1.829  13.565  13.831
54120SOL    HW264200   1.822  13.516  13.974
54121SOL     OW64201   1.810   6.266   0.445
54121SOL    HW164202   1.755   6.189   0.459
54121SOL    HW264203   1.780   6.328   0.511
54122SOL     OW64204   9.413   6.843  10.073
54122SOL    HW164205   9.408   6.837  10.168
54122SOL    HW264206   9.461   6.764  10.047
54123SOL     OW64207   9.676   8.813   1.773
54123SOL    HW164208   9.605   8.765   1.815
54123SOL    HW264209   9.656   8.810   1.680
54124SOL     OW64210   8.948  13.723   9.037
54124SOL    HW164211   8.921  13.633   9.053
54124SOL    HW264212   8.912  13.773   9.110
54125SOL     OW64213   9.230   7.293  10.795
54125SOL    HW164214   9.169   7.227  10.762
54125SOL    HW264215   9.214   7.297  10.889
54126SOL     OW64216  14.697   5.338  11.348
54126SOL    HW164217  14.667   5.273  11.284
54126SOL    HW264218  14.619   5.359  11.399
54127SOL     OW64219   5.425   2.206   4.126
54127SOL    HW164220   5.475   2.274   4.171
54127SOL    HW264221   5.458   2.124   4.163
54128SOL     OW64222   7.098   2.997   1.354
54128SOL    HW164223   7.124   2.957   1.437
54128SOL    HW264224   7.004   2.981   1.348
54129SOL     OW64225  12.841  10.957   0.895
54129SOL    HW164226  12.892  10.897   0.839
54129SOL    HW264227  12.802  10.901   0.961
54130SOL     OW64228  14.848  12.835   0.259
54130SOL    HW164229  14.766  12.802   0.297
54130SOL    HW264230  14.825  12.920   0.223
54131SOL     OW64231  13.706  11.457  13.169
54131SOL    HW164232  13.655  11.503  13.236
54131SOL    HW264233  13.719  11.369  13.204
54132SOL     OW64234  13.458  10.626   1.072
54132SOL    HW164235  13.513  10.597   0.999
54132SOL    HW264236  13.514  10.619   1.149
54133SOL     OW64237  11.464   2.591  13.551
54133SOL    HW164238  11.448   2.633  13.466
54133SOL    HW264239  11.406   2.515  13.551
54134SOL     OW64240   5.612   0.081  12.549
54134SOL    HW164241   5.616   0.018  12.476
54134SOL    HW264242   5.563   0.155  12.513
54135SOL     OW64243  14.557   6.445   4.660
54135SOL    HW164244  14.595   6.530   4.640
54135SOL    HW264245  14.551   6.401   4.575
54136SOL     OW64246  11.320   8.337   6.392
54136SOL    HW164247  11.297   8.244   6.388
54136SOL    HW264248  11.278   8.375   6.315
54137SOL     OW64249   3.479   3.458  10.029
54137SOL    HW164250   3.559   3.473  10.080
54137SOL    HW264251   3.429   3.539  10.040
54138SOL     OW64252   3.347  11.878   4.943
54138SOL    HW164253   3.355  11.784   4.959
54138SOL    HW264254   3.406  11.894   4.869
54139SOL     OW64255  13.408  10.375  10.006
54139SOL    HW164256  13.375  10.286   9.990
54139SOL    HW264257  13.380  10.425   9.929
54140SOL     OW64258  13.354  11.541   9.077
54140SOL    HW164259  13.362  11.576   9.166
54140SOL    HW264260  13.279  11.481   9.081
54141SOL     OW64261   0.951   5.449   2.316
54141SOL    HW164262   0.938   5.358   2.290
54141SOL    HW264263   1.007   5.486   2.248
54142SOL     OW64264   5.589   0.349   1.889
54142SOL    HW164265   5.574   0.443   1.892
54142SOL    HW264266   5.502   0.311   1.905
54143SOL     OW64267   6.678   2.458  12.717
54143SOL    HW164268   6.684   2.449  12.812
54143SOL    HW264269   6.729   2.385  12.682
54144SOL     OW64270   4.432   1.568   9.599
54144SOL    HW164271   4.378   1.590   9.523
54144SOL    HW264272   4.372   1.572   9.673
54145SOL     OW64273  10.483   6.378   3.990
54145SOL    HW164274  10.483   6.415   3.902
54145SOL    HW264275  10.484   6.455   4.048
54146SOL     OW64276  12.992   6.065  11.330
54146SOL    HW164277  12.925   6.021  11.382
54146SOL    HW264278  13.018   6.001  11.264
54147SOL     OW64279   3.463   0.856   4.712
54147SOL    HW164280   3.520   0.933   4.704
54147SOL    HW264281   3.517   0.783   4.681
54148SOL     OW64282   1.653   3.763  13.705
54148SOL    HW164283   1.682   3.839  13.756
54148SOL    HW264284   1.728   3.742  13.649
54149SOL     OW64285  14.135   2.967   0.668
54149SOL    HW164286  14.208   3.000   0.719
54149SOL    HW264287  14.100   2.894   0.719
54150SOL     OW64288  13.922   5.495   1.318
54150SOL    HW164289  13.876   5.426   1.271
54150SOL    HW264290  13.997   5.451   1.358
54151SOL     OW64291   6.703  12.526   5.502
54151SOL    HW164292   6.754  12.605   5.482
54151SOL    HW264293   6.760  12.475   5.559
54152SOL     OW64294  11.623   0.355   1.738
54152SOL    HW164295  11.566   0.299   1.791
54152SOL    HW264296  11.568   0.382   1.664
54153SOL     OW64297   4.607  10.400  10.782
54153SOL    HW164298   4.543  10.357  10.839
54153SOL    HW264299   4.690  10.392  10.828
54154SOL     OW64300   7.657   7.056   1.193
54154SOL    HW164301   7.597   6.988   1.161
54154SOL    HW264302   7.704   7.085   1.114
54155SOL     OW64303   5.554   6.177   5.911
54155SOL    HW164304   5.609   6.221   5.847
54155SOL    HW264305   5.466   6.179   5.873
54156SOL     OW64306  10.423  12.296  13.797
54156SOL    HW164307  10.406  12.351  13.721
54156SOL    HW264308  10.389  12.346  13.871
54157SOL     OW64309  11.402   2.935  12.883
54157SOL    HW164310  11.493   2.935  12.851
54157SOL    HW264311  11.401   3.000  12.953
54158SOL     OW64312   4.671  12.430  12.680
54158SOL    HW164313   4.715  12.499  12.729
54158SOL    HW264314   4.667  12.356  12.741
54159SOL     OW64315  10.767   5.295  13.629
54159SOL    HW164316  10.673   5.296  13.645
54159SOL    HW264317  10.790   5.202  13.622
54160SOL     OW64318  11.891  12.705   8.887
54160SOL    HW164319  11.969  12.736   8.934
54160SOL    HW264320  11.840  12.658   8.954
54161SOL     OW64321   0.058  13.429  14.385
54161SOL    HW164322   0.028  13.442  14.295
54161SOL    HW264323  14.851  13.434  14.438
54162SOL     OW64324   4.573   6.209   3.916
54162SOL    HW164325   4.615   6.127   3.943
54162SOL    HW264326   4.581   6.267   3.992
54163SOL     OW64327   6.061  11.026   4.375
54163SOL    HW164328   6.004  11.026   4.452
54163SOL    HW264329   6.149  11.043   4.409
54164SOL     OW64330  10.153   2.246   5.843
54164SOL    HW164331  10.159   2.176   5.778
54164SOL    HW264332  10.244   2.268   5.864
54165SOL     OW64333   0.846   2.283  14.262
54165SOL    HW164334   0.902   2.339  14.208
54165SOL    HW264335   0.850   2.321  14.349
54166SOL     OW64336   5.416   2.434  14.293
54166SOL    HW164337   5.332   2.398  14.265
54166SOL    HW264338   5.472   2.426  14.216
54167SOL     OW64339  12.645   0.510   1.112
54167SOL    HW164340  12.705   0.462   1.170
54167SOL    HW264341  12.700   0.577   1.071
54168SOL     OW64342   7.079   2.729  11.776
54168SOL    HW164343   7.133   2.660  11.816
54168SOL    HW264344   7.120   2.745  11.691
54169SOL     OW64345   5.333   8.674  11.684
54169SOL    HW164346   5.274   8.722  11.742
54169SOL    HW264347   5.405   8.646  11.741
54170SOL     OW64348   7.543   0.747   1.972
54170SOL    HW164349   7.471   0.802   2.002
54170SOL    HW264350   7.600   0.738   2.049
54171SOL     OW64351   0.813   1.626  13.062
54171SOL    HW164352   0.791   1.533  13.061
54171SOL    HW264353   0.748   1.666  13.004
54172SOL     OW64354   6.502  12.376   6.486
54172SOL    HW164355   6.487  12.319   6.561
54172SOL    HW264356   6.596  12.394   6.487
54173SOL     OW64357  10.404  10.650   6.598
54173SOL    HW164358  10.329  10.595   6.575
54173SOL    HW264359  10.465  10.639   6.525
54174SOL     OW64360   1.630   1.309   2.337
54174SOL    HW164361   1.540   1.338   2.321
54174SOL    HW264362   1.684   1.379   2.300
54175SOL     OW64363   4.554  13.588   0.095
54175SOL    HW164364   4.577  13.632   0.013
54175SOL    HW264365   4.514  13.656   0.149
54176SOL     OW64366  11.824  13.384  11.059
54176SOL    HW164367  11.754  13.438  11.095
54176SOL    HW264368  11.856  13.333  11.134
54177SOL     OW64369   1.789   0.819   2.050
54177SOL    HW164370   1.846   0.812   2.126
54177SOL    HW264371   1.803   0.908   2.018
54178SOL     OW64372   7.367   7.149   6.099
54178SOL    HW164373   7.321   7.232   6.108
54178SOL    HW264374   7.429   7.148   6.172
54179SOL     OW64375  11.737   1.126   6.248
54179SOL    HW164376  11.672   1.169   6.303
54179SOL    HW264377  11.764   1.049   6.299
54180SOL     OW64378   4.388   7.585   7.780
54180SOL    HW164379   4.341   7.632   7.849
54180SOL    HW264380   4.476   7.623   7.781
54181SOL     OW64381   0.134   9.694   3.812
54181SOL    HW164382   0.212   9.639   3.813
54181SOL    HW264383   0.146   9.752   3.737
54182SOL     OW64384  11.770  11.944   7.157
54182SOL    HW164385  11.719  11.951   7.237
54182SOL    HW264386  11.823  11.865   7.168
54183SOL     OW64387   6.782   8.730  10.999
54183SOL    HW164388   6.723   8.721  11.074
54183SOL    HW264389   6.787   8.643  10.961
54184SOL     OW64390   3.305  10.642   4.274
54184SOL    HW164391   3.373  10.598   4.224
54184SOL    HW264392   3.350  10.714   4.317
54185SOL     OW64393   3.869   2.887   3.967
54185SOL    HW164394   3.779   2.918   3.980
54185SOL    HW264395   3.879   2.815   4.029
54186SOL     OW64396   8.958   2.479   5.141
54186SOL    HW164397   9.007   2.413   5.191
54186SOL    HW264398   8.876   2.488   5.188
54187SOL     OW64399   7.844   8.433   4.002
54187SOL    HW164400   7.835   8.514   4.052
54187SOL    HW264401   7.816   8.457   3.913
54188SOL     OW64402   7.540   0.735   9.417
54188SOL    HW164403   7.632   0.749   9.395
54188SOL    HW264404   7.505   0.683   9.344
54189SOL     OW64405  10.710   0.159   5.618
54189SOL    HW164406  10.650   0.165   5.692
54189SOL    HW264407  10.697   0.070   5.583
54190SOL     OW64408  12.730   3.982  13.955
54190SOL    HW164409  12.808   3.939  13.919
54190SOL    HW264410  12.760   4.069  13.982
54191SOL     OW64411   9.124   7.909  11.328
54191SOL    HW164412   9.051   7.849  11.320
54191SOL    HW264413   9.200   7.853  11.344
54192SOL     OW64414   7.500  10.855   1.898
54192SOL    HW164415   7.412  10.834   1.930
54192SOL    HW264416   7.504  10.951   1.902
54193SOL     OW64417  14.556  10.688  13.596
54193SOL    HW164418  14.522  10.698  13.507
54193SOL    HW264419  14.505  10.616  13.633
54194SOL     OW64420  10.511   0.948   0.924
54194SOL    HW164421  10.539   0.977   0.837
54194SOL    HW264422  10.487   0.856   0.911
54195SOL     OW64423  13.843   1.565  12.825
54195SOL    HW164424  13.852   1.469  12.817
54195SOL    HW264425  13.928   1.599  12.797
54196SOL     OW64426  11.841  12.549  13.081
54196SOL    HW164427  11.833  12.565  12.987
54196SOL    HW264428  11.778  12.480  13.100
54197SOL     OW64429   8.417   4.538   2.207
54197SOL    HW164430   8.500   4.509   2.245
54197SOL    HW264431   8.432   4.536   2.112
54198SOL     OW64432  12.969  11.186   1.239
54198SOL    HW164433  13.059  11.212   1.221
54198SOL    HW264434  12.964  11.094   1.211
54199SOL     OW64435   1.674   7.195   9.388
54199SOL    HW164436   1.663   7.264   9.453
54199SOL    HW264437   1.598   7.138   9.400
54200SOL     OW64438   5.356   5.678   4.681
54200SOL    HW164439   5.291   5.748   4.682
54200SOL    HW264440   5.438   5.722   4.659
54201SOL     OW64441  11.493  12.995  13.987
54201SOL    HW164442  11.438  13.068  13.956
54201SOL    HW264443  11.450  12.968  14.069
54202SOL     OW64444  12.660  12.432   8.833
54202SOL    HW164445  12.616  12.517   8.831
54202SOL    HW264446  12.742  12.447   8.785
54203SOL     OW64447   7.191   2.168   4.005
54203SOL    HW164448   7.238   2.141   3.926
54203SOL    HW264449   7.231   2.251   4.030
54204SOL     OW64450   4.882   7.397   8.992
54204SOL    HW164451   4.919   7.345   9.064
54204SOL    HW264452   4.864   7.333   8.923
54205SOL     OW64453   6.319   7.181   9.528
54205SOL    HW164454   6.285   7.226   9.606
54205SOL    HW264455   6.325   7.250   9.462
54206SOL     OW64456   7.691   2.413   5.448
54206SOL    HW164457   7.744   2.492   5.438
54206SOL    HW264458   7.601   2.445   5.447
54207SOL     OW64459   6.316   9.410   7.338
54207SOL    HW164460   6.376   9.398   7.412
54207SOL    HW264461   6.372   9.435   7.265
54208SOL     OW64462   0.375   1.759  13.165
54208SOL    HW164463   0.466   1.781  13.182
54208SOL    HW264464   0.360   1.678  13.213
54209SOL     OW64465   2.888   6.381   7.720
54209SOL    HW164466   2.881   6.324   7.643
54209SOL    HW264467   2.977   6.415   7.715
54210SOL     OW64468  10.868   9.551  11.483
54210SOL    HW164469  10.905   9.633  11.451
54210SOL    HW264470  10.797   9.578  11.542
54211SOL     OW64471   9.807  13.613  10.530
54211SOL    HW164472   9.847  13.647  10.450
54211SOL    HW264473   9.726  13.663  10.538
54212SOL     OW64474   3.379   7.985   3.183
54212SOL    HW164475   3.355   7.895   3.204
54212SOL    HW264476   3.325   8.038   3.240
54213SOL     OW64477   1.777   2.034   5.731
54213SOL    HW164478   1.750   2.126   5.732
54213SOL    HW264479   1.822   2.022   5.815
54214SOL     OW64480  14.741   6.882   4.833
54214SOL    HW164481  14.779   6.822   4.768
54214SOL    HW264482  14.816   6.917   4.881
54215SOL     OW64483   9.147   9.415   2.441
54215SOL    HW164484   9.198   9.493   2.461
54215SOL    HW264485   9.169   9.395   2.350
54216SOL     OW64486  13.351  14.396  13.426
54216SOL    HW164487  13.308  14.331  13.370
54216SOL    HW264488  13.334  14.480  13.383
54217SOL     OW64489   8.665   1.915  12.953
54217SOL    HW164490   8.596   1.849  12.960
54217SOL    HW264491   8.674   1.930  12.859
54218SOL     OW64492   8.945   1.277   1.821
54218SOL    HW164493   9.001   1.325   1.883
54218SOL    HW264494   8.953   1.326   1.739
54219SOL     OW64495  12.569  10.861  14.300
54219SOL    HW164496  12.663  10.872  14.292
54219SOL    HW264497  12.558  10.783  14.354
54220SOL     OW64498  11.363   9.593   3.468
54220SOL    HW164499  11.356   9.517   3.410
54220SOL    HW264500  11.417   9.562   3.541
54221SOL     OW64501   6.708  13.060   5.303
54221SOL    HW164502   6.724  13.015   5.220
54221SOL    HW264503   6.676  13.147   5.277
54222SOL     OW64504   1.747   2.362   8.005
54222SOL    HW164505   1.801   2.397   7.934
54222SOL    HW264506   1.729   2.437   8.061
54223SOL     OW64507  12.485   2.925   8.031
54223SOL    HW164508  12.505   2.883   7.947
54223SOL    HW264509  12.524   3.013   8.023
54224SOL     OW64510  10.797   9.243   3.100
54224SOL    HW164511  10.882   9.279   3.127
54224SOL    HW264512  10.803   9.149   3.120
54225SOL     OW64513   6.942  13.476   8.651
54225SOL    HW164514   7.029  13.467   8.614
54225SOL    HW264515   6.950  13.442   8.740
54226SOL     OW64516   4.731  10.298  13.430
54226SOL    HW164517   4.660  10.360  13.446
54226SOL    HW264518   4.768  10.326  13.346
54227SOL     OW64519   0.243  12.743  11.904
54227SOL    HW164520   0.164  12.764  11.854
54227SOL    HW264521   0.272  12.827  11.938
54228SOL     OW64522  10.567  10.523   7.100
54228SOL    HW164523  10.530  10.450   7.150
54228SOL    HW264524  10.583  10.487   7.013
54229SOL     OW64525  11.248  11.591  12.409
54229SOL    HW164526  11.200  11.674  12.405
54229SOL    HW264527  11.186  11.531  12.452
54230SOL     OW64528   1.210   4.147   0.057
54230SOL    HW164529   1.187   4.170  14.840
54230SOL    HW264530   1.225   4.231   0.101
54231SOL     OW64531   6.415   4.466   9.778
54231SOL    HW164532   6.465   4.506   9.707
54231SOL    HW264533   6.336   4.433   9.736
54232SOL     OW64534   0.776  14.436   6.093
54232SOL    HW164535   0.750  14.352   6.130
54232SOL    HW264536   0.729  14.442   6.010
54233SOL     OW64537   0.182   3.865  14.334
54233SOL    HW164538   0.158   3.844  14.243
54233SOL    HW264539   0.269   3.904  14.327
54234SOL     OW64540  11.804   0.172  14.665
54234SOL    HW164541  11.759   0.090  14.687
54234SOL    HW264542  11.867   0.147  14.597
54235SOL     OW64543   9.593  14.463   6.117
54235SOL    HW164544   9.545  14.429   6.192
54235SOL    HW264545   9.673  14.411   6.114
54236SOL     OW64546  11.983  10.909  12.857
54236SOL    HW164547  11.979  11.004  12.853
54236SOL    HW264548  12.064  10.890  12.904
54237SOL     OW64549  12.339   4.058   0.776
54237SOL    HW164550  12.342   4.089   0.685
54237SOL    HW264551  12.287   3.978   0.771
54238SOL     OW64552   7.860  14.606   0.568
54238SOL    HW164553   7.820  14.675   0.515
54238SOL    HW264554   7.839  14.630   0.658
54239SOL     OW64555   2.662   3.465   1.238
54239SOL    HW164556   2.678   3.485   1.330
54239SOL    HW264557   2.722   3.522   1.190
54240SOL     OW64558   8.088   5.007  11.330
54240SOL    HW164559   8.033   4.929  11.336
54240SOL    HW264560   8.133   5.012  11.414
54241SOL     OW64561  14.864   0.393   8.518
54241SOL    HW164562   0.026   0.304   8.517
54241SOL    HW264563   0.066   0.448   8.497
54242SOL     OW64564   5.206   3.858   4.021
54242SOL    HW164565   5.235   3.949   4.028
54242SOL    HW264566   5.168   3.839   4.107
54243SOL     OW64567  11.600   4.076   6.221
54243SOL    HW164568  11.637   4.000   6.265
54243SOL    HW264569  11.653   4.088   6.143
54244SOL     OW64570   4.297   6.344   4.656
54244SOL    HW164571   4.302   6.332   4.751
54244SOL    HW264572   4.205   6.359   4.638
54245SOL     OW64573   3.771   7.440   4.468
54245SOL    HW164574   3.771   7.436   4.563
54245SOL    HW264575   3.799   7.353   4.440
54246SOL     OW64576   0.640  13.972   2.298
54246SOL    HW164577   0.608  14.000   2.212
54246SOL    HW264578   0.576  13.907   2.327
54247SOL     OW64579   9.765   1.313   4.391
54247SOL    HW164580   9.707   1.248   4.351
54247SOL    HW264581   9.718   1.343   4.468
54248SOL     OW64582   5.555   8.969   4.436
54248SOL    HW164583   5.628   9.024   4.465
54248SOL    HW264584   5.576   8.881   4.468
54249SOL     OW64585   4.445   1.870  12.280
54249SOL    HW164586   4.416   1.787  12.241
54249SOL    HW264587   4.529   1.849  12.320
54250SOL     OW64588  13.501   9.448   5.353
54250SOL    HW164589  13.498   9.516   5.421
54250SOL    HW264590  13.594   9.426   5.345
54251SOL     OW64591   9.800  13.967   3.045
54251SOL    HW164592   9.851  13.996   3.121
54251SOL    HW264593   9.851  13.896   3.007
54252SOL     OW64594  14.694   1.682   0.237
54252SOL    HW164595  14.690   1.623   0.161
54252SOL    HW264596  14.602   1.696   0.260
54253SOL     OW64597   6.790  12.202   0.072
54253SOL    HW164598   6.881  12.175   0.083
54253SOL    HW264599   6.739  12.123   0.091
54254SOL     OW64600  11.197  11.736  13.868
54254SOL    HW164601  11.240  11.655  13.894
54254SOL    HW264602  11.160  11.771  13.949
54255SOL     OW64603   8.190   6.651   8.251
54255SOL    HW164604   8.232   6.663   8.336
54255SOL    HW264605   8.247   6.698   8.190
54256SOL     OW64606   8.727  11.208   3.448
54256SOL    HW164607   8.684  11.204   3.363
54256SOL    HW264608   8.657  11.193   3.512
54257SOL     OW64609  10.094   1.661   2.667
54257SOL    HW164610  10.127   1.707   2.744
54257SOL    HW264611  10.170   1.616   2.631
54258SOL     OW64612  14.292  11.023   0.574
54258SOL    HW164613  14.315  11.084   0.504
54258SOL    HW264614  14.244  11.075   0.638
54259SOL     OW64615   5.329   3.785  14.399
54259SOL    HW164616   5.263   3.854  14.404
54259SOL    HW264617   5.400   3.816  14.456
54260SOL     OW64618   1.635   8.692   0.211
54260SOL    HW164619   1.649   8.721   0.121
54260SOL    HW264620   1.666   8.601   0.212
54261SOL     OW64621   0.427   6.645  10.000
54261SOL    HW164622   0.415   6.649   9.905
54261SOL    HW264623   0.391   6.729  10.031
54262SOL     OW64624  11.756  11.365   6.242
54262SOL    HW164625  11.704  11.401   6.314
54262SOL    HW264626  11.840  11.409   6.248
54263SOL     OW64627  10.186   3.930   6.751
54263SOL    HW164628  10.099   3.970   6.757
54263SOL    HW264629  10.187   3.866   6.823
54264SOL     OW64630   8.560   0.372  12.993
54264SOL    HW164631   8.482   0.365  12.938
54264SOL    HW264632   8.525   0.383  13.082
54265SOL     OW64633  12.923   5.079  11.735
54265SOL    HW164634  12.828   5.086  11.748
54265SOL    HW264635  12.935   4.993  11.694
54266SOL     OW64636   4.175   9.472   5.349
54266SOL    HW164637   4.268   9.455   5.330
54266SOL    HW264638   4.138   9.493   5.263
54267SOL     OW64639   2.875   4.545  13.840
54267SOL    HW164640   2.906   4.455  13.856
54267SOL    HW264641   2.811   4.536  13.770
54268SOL     OW64642  11.380  13.998  11.546
54268SOL    HW164643  11.353  14.017  11.636
54268SOL    HW264644  11.375  13.903  11.538
54269SOL     OW64645  14.576  10.826   2.109
54269SOL    HW164646  14.531  10.742   2.115
54269SOL    HW264647  14.535  10.881   2.176
54270SOL     OW64648  12.848   9.674   2.595
54270SOL    HW164649  12.755   9.676   2.619
54270SOL    HW264650  12.889   9.621   2.664
54271SOL     OW64651   3.826   6.100  11.789
54271SOL    HW164652   3.762   6.092  11.718
54271SOL    HW264653   3.835   6.011  11.823
54272SOL     OW64654   9.228   1.796   5.038
54272SOL    HW164655   9.161   1.762   4.979
54272SOL    HW264656   9.210   1.753   5.122
54273SOL     OW64657   8.036  14.556   2.715
54273SOL    HW164658   7.992  14.499   2.652
54273SOL    HW264659   7.966  14.588   2.771
54274SOL     OW64660  10.589   6.889   9.789
54274SOL    HW164661  10.635   6.969   9.817
54274SOL    HW264662  10.559   6.909   9.701
54275SOL     OW64663  14.775   1.383   7.741
54275SOL    HW164664  14.845   1.407   7.801
54275SOL    HW264665  14.744   1.466   7.705
54276SOL     OW64666   5.889  14.368  11.272
54276SOL    HW164667   5.823  14.436  11.288
54276SOL    HW264668   5.910  14.334  11.359
54277SOL     OW64669   8.297   7.300   1.025
54277SOL    HW164670   8.355   7.264   1.092
54277SOL    HW264671   8.246   7.366   1.070
54278SOL     OW64672  14.193  12.663   6.948
54278SOL    HW164673  14.247  12.647   6.870
54278SOL    HW264674  14.204  12.756   6.966
54279SOL     OW64675   6.410  13.881   4.923
54279SOL    HW164676   6.446  13.963   4.889
54279SOL    HW264677   6.468  13.857   4.995
54280SOL     OW64678  10.943   8.925  12.756
54280SOL    HW164679  10.976   8.857  12.697
54280SOL    HW264680  10.992   8.912  12.837
54281SOL     OW64681   5.319   1.424   9.034
54281SOL    HW164682   5.284   1.393   8.951
54281SOL    HW264683   5.405   1.459   9.012
54282SOL     OW64684  14.597   5.564   6.753
54282SOL    HW164685  14.638   5.493   6.704
54282SOL    HW264686  14.669   5.621   6.780
54283SOL     OW64687   0.907   7.538  11.234
54283SOL    HW164688   0.956   7.608  11.277
54283SOL    HW264689   0.937   7.458  11.276
54284SOL     OW64690   6.411   8.391  11.948
54284SOL    HW164691   6.434   8.445  11.873
54284SOL    HW264692   6.493   8.381  11.997
54285SOL     OW64693   7.728   8.301  12.299
54285SOL    HW164694   7.718   8.349  12.217
54285SOL    HW264695   7.772   8.362  12.358
54286SOL     OW64696  10.308   2.448  10.297
54286SOL    HW164697  10.265   2.528  10.327
54286SOL    HW264698  10.382   2.436  10.357
54287SOL     OW64699   8.381   3.423   0.876
54287SOL    HW164700   8.311   3.422   0.811
54287SOL    HW264701   8.440   3.354   0.848
54288SOL     OW64702   8.478  10.649   7.979
54288SOL    HW164703   8.565  10.635   8.016
54288SOL    HW264704   8.423  10.669   8.054
54289SOL     OW64705   1.170  12.565   3.076
54289SOL    HW164706   1.214  12.528   2.999
54289SOL    HW264707   1.078  12.565   3.053
54290SOL     OW64708   1.652   9.783   7.581
54290SOL    HW164709   1.664   9.863   7.531
54290SOL    HW264710   1.634   9.716   7.515
54291SOL     OW64711   8.280   1.046   8.570
54291SOL    HW164712   8.363   1.060   8.525
54291SOL    HW264713   8.293   1.086   8.656
54292SOL     OW64714  13.822   3.589   6.078
54292SOL    HW164715  13.733   3.564   6.100
54292SOL    HW264716  13.848   3.527   6.009
54293SOL     OW64717   4.987   6.956  13.717
54293SOL    HW164718   4.960   7.047  13.703
54293SOL    HW264719   5.076   6.952  13.682
54294SOL     OW64720  12.539   5.954   7.612
54294SOL    HW164721  12.487   5.875   7.600
54294SOL    HW264722  12.486   6.009   7.671
54295SOL     OW64723   3.139   9.605  13.463
54295SOL    HW164724   3.068   9.613  13.527
54295SOL    HW264725   3.095   9.583  13.381
54296SOL     OW64726   2.663   1.533  12.498
54296SOL    HW164727   2.716   1.587  12.439
54296SOL    HW264728   2.687   1.564  12.586
54297SOL     OW64729   9.401   7.268  10.569
54297SOL    HW164730   9.382   7.183  10.528
54297SOL    HW264731   9.343   7.270  10.645
54298SOL     OW64732  13.978  14.736   5.273
54298SOL    HW164733  14.073  14.740   5.271
54298SOL    HW264734  13.959  14.642   5.272
54299SOL     OW64735   4.373   4.227  13.015
54299SOL    HW164736   4.381   4.168  12.940
54299SOL    HW264737   4.286   4.209  13.050
54300SOL     OW64738  12.942  14.315   0.291
54300SOL    HW164739  12.957  14.359   0.375
54300SOL    HW264740  12.992  14.233   0.298
54301SOL     OW64741  13.227   5.084  10.083
54301SOL    HW164742  13.158   5.106  10.145
54301SOL    HW264743  13.306   5.122  10.121
54302SOL     OW64744   2.798   1.744   4.544
54302SOL    HW164745   2.760   1.810   4.602
54302SOL    HW264746   2.891   1.764   4.543
54303SOL     OW64747   2.633  10.492  11.735
54303SOL    HW164748   2.587  10.573  11.713
54303SOL    HW264749   2.598  10.468  11.821
54304SOL     OW64750   1.413  10.858   8.769
54304SOL    HW164751   1.320  10.837   8.763
54304SOL    HW264752   1.418  10.953   8.754
54305SOL     OW64753  11.959  10.537   3.369
54305SOL    HW164754  11.884  10.574   3.323
54305SOL    HW264755  11.949  10.442   3.359
54306SOL     OW64756   8.429  14.661   0.374
54306SOL    HW164757   8.336  14.645   0.358
54306SOL    HW264758   8.430  14.726   0.444
54307SOL     OW64759   8.411   7.768  14.505
54307SOL    HW164760   8.419   7.674  14.520
54307SOL    HW264761   8.317   7.781  14.489
54308SOL     OW64762   3.678   4.918   7.388
54308SOL    HW164763   3.729   4.841   7.363
54308SOL    HW264764   3.606   4.921   7.325
54309SOL     OW64765   5.689   4.185  12.545
54309SOL    HW164766   5.771   4.232  12.553
54309SOL    HW264767   5.692   4.118  12.614
54310SOL     OW64768   0.363   9.474  13.362
54310SOL    HW164769   0.365   9.528  13.283
54310SOL    HW264770   0.446   9.493  13.406
54311SOL     OW64771  11.690   5.066   6.084
54311SOL    HW164772  11.608   5.113   6.069
54311SOL    HW264773  11.752   5.106   6.023
54312SOL     OW64774  12.056   7.281   2.663
54312SOL    HW164775  12.104   7.304   2.583
54312SOL    HW264776  12.123   7.280   2.732
54313SOL     OW64777  10.963  13.786   3.375
54313SOL    HW164778  10.992  13.798   3.465
54313SOL    HW264779  10.868  13.781   3.381
54314SOL     OW64780   4.503  13.965  11.730
54314SOL    HW164781   4.588  13.961  11.775
54314SOL    HW264782   4.448  13.904  11.778
54315SOL     OW64783   6.408   8.944   1.450
54315SOL    HW164784   6.460   9.023   1.462
54315SOL    HW264785   6.408   8.901   1.536
54316SOL     OW64786   4.233  12.162   6.256
54316SOL    HW164787   4.196  12.185   6.341
54316SOL    HW264788   4.298  12.094   6.275
54317SOL     OW64789   1.279   9.428   7.641
54317SOL    HW164790   1.315   9.453   7.726
54317SOL    HW264791   1.185   9.417   7.657
54318SOL     OW64792  14.099   8.015   6.070
54318SOL    HW164793  14.140   8.099   6.050
54318SOL    HW264794  14.072   7.980   5.985
54319SOL     OW64795   7.200   8.752   7.008
54319SOL    HW164796   7.231   8.789   7.090
54319SOL    HW264797   7.153   8.824   6.966
54320SOL     OW64798   9.308   0.021   5.581
54320SOL    HW164799   9.395   0.050   5.609
54320SOL    HW264800   9.270   0.098   5.539
54321SOL     OW64801   6.945   8.058   9.246
54321SOL    HW164802   6.936   8.016   9.332
54321SOL    HW264803   6.977   7.989   9.189
54322SOL     OW64804   1.675   6.033   0.519
54322SOL    HW164805   1.726   5.966   0.565
54322SOL    HW264806   1.668   6.000   0.429
54323SOL     OW64807  10.218   6.780   5.194
54323SOL    HW164808  10.265   6.701   5.221
54323SOL    HW264809  10.272   6.852   5.227
54324SOL     OW64810  10.814  10.931   4.443
54324SOL    HW164811  10.800  10.904   4.534
54324SOL    HW264812  10.734  10.907   4.397
54325SOL     OW64813  12.216  13.508   7.903
54325SOL    HW164814  12.240  13.476   7.816
54325SOL    HW264815  12.228  13.603   7.899
54326SOL     OW64816  13.890   5.828  10.932
54326SOL    HW164817  13.912   5.770  10.859
54326SOL    HW264818  13.963   5.889  10.937
54327SOL     OW64819   7.944   8.314  10.839
54327SOL    HW164820   7.868   8.284  10.789
54327SOL    HW264821   7.908   8.342  10.923
54328SOL     OW64822   2.393   0.220   0.804
54328SOL    HW164823   2.399   0.290   0.740
54328SOL    HW264824   2.483   0.190   0.816
54329SOL     OW64825  13.981  10.375   4.829
54329SOL    HW164826  14.024  10.461   4.829
54329SOL    HW264827  14.004  10.337   4.914
54330SOL     OW64828  10.305   9.035   9.130
54330SOL    HW164829  10.368   9.099   9.163
54330SOL    HW264830  10.229   9.046   9.187
54331SOL     OW64831   4.670   9.142   1.487
54331SOL    HW164832   4.754   9.103   1.465
54331SOL    HW264833   4.605   9.083   1.450
54332SOL     OW64834  11.736   6.577   4.097
54332SOL    HW164835  11.784   6.634   4.037
54332SOL    HW264836  11.656   6.625   4.118
54333SOL     OW64837  14.157   9.345  14.499
54333SOL    HW164838  14.107   9.320  14.421
54333SOL    HW264839  14.248   9.344  14.471
54334SOL     OW64840   9.472  10.458   5.371
54334SOL    HW164841   9.443  10.416   5.452
54334SOL    HW264842   9.567  10.446   5.371
54335SOL     OW64843  14.828   0.293   3.151
54335SOL    HW164844  14.859   0.367   3.204
54335SOL    HW264845   0.035   0.256   3.114
54336SOL     OW64846   0.152   4.105   4.399
54336SOL    HW164847   0.168   4.011   4.396
54336SOL    HW264848   0.059   4.113   4.419
54337SOL     OW64849  11.802   2.498  14.840
54337SOL    HW164850  11.760   2.500  14.753
54337SOL    HW264851  11.890   2.532  14.825
54338SOL     OW64852   5.874  12.428  11.603
54338SOL    HW164853   5.943  12.494  11.596
54338SOL    HW264854   5.920  12.344  11.598
54339SOL     OW64855  13.847  10.091   4.975
54339SOL    HW164856  13.916  10.136   5.024
54339SOL    HW264857  13.800  10.040   5.041
54340SOL     OW64858  14.836   3.364  14.580
54340SOL    HW164859  14.847   3.445  14.530
54340SOL    HW264860  14.821   3.297  14.513
54341SOL     OW64861   0.100   0.150   9.588
54341SOL    HW164862   0.172   0.156   9.525
54341SOL    HW264863   0.026   0.117   9.536
54342SOL     OW64864   8.896   8.675   4.305
54342SOL    HW164865   8.852   8.619   4.369
54342SOL    HW264866   8.887   8.764   4.341
54343SOL     OW64867   1.797  11.279   0.326
54343SOL    HW164868   1.728  11.344   0.335
54343SOL    HW264869   1.758  11.198   0.359
54344SOL     OW64870   0.267   3.621   4.869
54344SOL    HW164871   0.283   3.680   4.794
54344SOL    HW264872   0.231   3.542   4.829
54345SOL     OW64873  12.089   7.938   8.811
54345SOL    HW164874  12.018   7.882   8.840
54345SOL    HW264875  12.156   7.929   8.880
54346SOL     OW64876   9.429  12.726   5.939
54346SOL    HW164877   9.380  12.687   5.866
54346SOL    HW264878   9.519  12.728   5.908
54347SOL     OW64879   2.667   7.197   2.031
54347SOL    HW164880   2.739   7.206   2.093
54347SOL    HW264881   2.614   7.276   2.044
54348SOL     OW64882   3.945   7.567   1.852
54348SOL    HW164883   3.956   7.652   1.809
54348SOL    HW264884   3.890   7.516   1.792
54349SOL     OW64885  10.539   2.442  10.491
54349SOL    HW164886  10.541   2.538  10.480
54349SOL    HW264887  10.621   2.412  10.452
54350SOL     OW64888   0.398   5.713  10.829
54350SOL    HW164889   0.460   5.748  10.766
54350SOL    HW264890   0.436   5.630  10.857
54351SOL     OW64891  11.347  13.259  11.016
54351SOL    HW164892  11.405  13.213  11.077
54351SOL    HW264893  11.394  13.259  10.933
54352SOL     OW64894   1.625  13.997  14.782
54352SOL    HW164895   1.696  14.027  14.726
54352SOL    HW264896   1.559  13.964  14.721
54353SOL     OW64897   2.857   2.384  13.583
54353SOL    HW164898   2.873   2.372  13.677
54353SOL    HW264899   2.802   2.309  13.559
54354SOL     OW64900  10.331   6.171   2.596
54354SOL    HW164901  10.310   6.248   2.543
54354SOL    HW264902  10.249   6.149   2.640
54355SOL     OW64903  11.492  13.923   9.069
54355SOL    HW164904  11.567  13.933   9.128
54355SOL    HW264905  11.484  14.008   9.026
54356SOL     OW64906   0.194   9.018  12.910
54356SOL    HW164907   0.099   9.013  12.922
54356SOL    HW264908   0.211   9.110  12.892
54357SOL     OW64909  10.708   4.038   0.775
54357SOL    HW164910  10.797   4.005   0.783
54357SOL    HW264911  10.660   3.999   0.848
54358SOL     OW64912   1.823   0.263  12.998
54358SOL    HW164913   1.757   0.203  12.961
54358SOL    HW264914   1.878   0.207  13.052
54359SOL     OW64915   3.758   0.591   2.915
54359SOL    HW164916   3.699   0.657   2.878
54359SOL    HW264917   3.700   0.523   2.949
54360SOL     OW64918   0.893  14.222   7.345
54360SOL    HW164919   0.924  14.300   7.299
54360SOL    HW264920   0.852  14.257   7.425
54361SOL     OW64921  13.223   0.832   5.025
54361SOL    HW164922  13.133   0.864   5.032
54361SOL    HW264923  13.250   0.854   4.936
54362SOL     OW64924  11.972   7.860   6.547
54362SOL    HW164925  11.957   7.938   6.494
54362SOL    HW264926  11.950   7.787   6.490
54363SOL     OW64927   0.565   2.619   0.486
54363SOL    HW164928   0.553   2.559   0.412
54363SOL    HW264929   0.487   2.606   0.540
54364SOL     OW64930   1.205   5.153   9.334
54364SOL    HW164931   1.275   5.105   9.379
54364SOL    HW264932   1.171   5.090   9.270
54365SOL     OW64933   8.533   6.789   0.008
54365SOL    HW164934   8.465   6.752   0.064
54365SOL    HW264935   8.599   6.822   0.068
54366SOL     OW64936   1.615   9.161   5.822
54366SOL    HW164937   1.665   9.217   5.881
54366SOL    HW264938   1.658   9.170   5.737
54367SOL     OW64939   6.695   8.352  10.483
54367SOL    HW164940   6.623   8.376  10.542
54367SOL    HW264941   6.735   8.276  10.524
54368SOL     OW64942   9.235   7.094   7.577
54368SOL    HW164943   9.237   7.189   7.564
54368SOL    HW264944   9.206   7.083   7.667
54369SOL     OW64945  14.557  12.227   0.080
54369SOL    HW164946  14.507  12.173   0.141
54369SOL    HW264947  14.622  12.167   0.042
54370SOL     OW64948  14.417   3.188   7.608
54370SOL    HW164949  14.426   3.174   7.702
54370SOL    HW264950  14.326   3.212   7.595
54371SOL     OW64951   9.455   0.018   7.450
54371SOL    HW164952   9.528  14.858   7.398
54371SOL    HW264953   9.459   0.113   7.440
54372SOL     OW64954  11.834   0.779   5.690
54372SOL    HW164955  11.831   0.846   5.622
54372SOL    HW264956  11.927   0.774   5.714
54373SOL     OW64957  12.303   3.682   4.783
54373SOL    HW164958  12.257   3.707   4.863
54373SOL    HW264959  12.380   3.634   4.813
54374SOL     OW64960   6.853   9.871  11.444
54374SOL    HW164961   6.789   9.908  11.383
54374SOL    HW264962   6.848   9.777  11.432
54375SOL     OW64963   2.589   1.600   4.560
54375SOL    HW164964   2.656   1.667   4.566
54375SOL    HW264965   2.550   1.613   4.474
54376SOL     OW64966  11.473   2.145  13.285
54376SOL    HW164967  11.529   2.069  13.297
54376SOL    HW264968  11.514   2.214  13.337
54377SOL     OW64969   7.787   9.569  14.195
54377SOL    HW164970   7.871   9.615  14.193
54377SOL    HW264971   7.752   9.585  14.282
54378SOL     OW64972  13.463  13.553   0.259
54378SOL    HW164973  13.552  13.551   0.223
54378SOL    HW264974  13.412  13.500   0.199
54379SOL     OW64975   6.012   4.993   1.323
54379SOL    HW164976   5.967   5.016   1.404
54379SOL    HW264977   6.093   4.951   1.351
54380SOL     OW64978  11.979  11.397   8.145
54380SOL    HW164979  12.059  11.409   8.197
54380SOL    HW264980  11.926  11.473   8.167
54381SOL     OW64981  12.203   7.287   8.036
54381SOL    HW164982  12.289   7.244   8.044
54381SOL    HW264983  12.144   7.218   8.008
54382SOL     OW64984  10.388  11.091   6.639
54382SOL    HW164985  10.386  11.004   6.601
54382SOL    HW264986  10.478  11.121   6.626
54383SOL     OW64987  14.806   4.208  11.588
54383SOL    HW164988   0.023   4.240  11.583
54383SOL    HW264989  14.757   4.281  11.628
54384SOL     OW64990   7.132   9.460   9.922
54384SOL    HW164991   7.074   9.524   9.965
54384SOL    HW264992   7.119   9.379   9.972
54385SOL     OW64993  12.277   4.395   6.629
54385SOL    HW164994  12.241   4.467   6.681
54385SOL    HW264995  12.246   4.315   6.673
54386SOL     OW64996   7.238   2.409  10.383
54386SOL    HW164997   7.153   2.430  10.421
54386SOL    HW264998   7.250   2.475  10.314
54387SOL     OW64999   2.628  12.498  12.988
54387SOL    HW165000   2.542  12.540  12.983
54387SOL    HW265001   2.630  12.438  12.913
54388SOL     OW65002  13.219   7.268   6.698
54388SOL    HW165003  13.238   7.207   6.770
54388SOL    HW265004  13.123   7.275   6.699
54389SOL     OW65005  12.402  13.197   1.337
54389SOL    HW165006  12.418  13.204   1.243
54389SOL    HW265007  12.463  13.259   1.376
54390SOL     OW65008  13.142   9.169  11.075
54390SOL    HW165009  13.160   9.213  11.158
54390SOL    HW265010  13.074   9.105  11.097
54391SOL     OW65011   7.346   5.243   2.247
54391SOL    HW165012   7.374   5.324   2.204
54391SOL    HW265013   7.336   5.180   2.176
54392SOL     OW65014  12.222   5.916   1.063
54392SOL    HW165015  12.237   5.873   0.979
54392SOL    HW265016  12.208   6.008   1.042
54393SOL     OW65017  14.439   9.987   0.257
54393SOL    HW165018  14.469   9.991   0.167
54393SOL    HW265019  14.343   9.987   0.251
54394SOL     OW65020   7.323   1.902   3.439
54394SOL    HW165021   7.301   1.932   3.351
54394SOL    HW265022   7.323   1.806   3.433
54395SOL     OW65023   9.772   9.914   4.549
54395SOL    HW165024   9.713   9.988   4.536
54395SOL    HW265025   9.781   9.907   4.644
54396SOL     OW65026  10.576   2.993   2.870
54396SOL    HW165027  10.616   3.007   2.784
54396SOL    HW265028  10.506   2.931   2.854
54397SOL     OW65029   1.644   6.380   6.752
54397SOL    HW165030   1.646   6.475   6.766
54397SOL    HW265031   1.562   6.365   6.704
54398SOL     OW65032   7.649   6.021   7.009
54398SOL    HW165033   7.650   6.014   6.913
54398SOL    HW265034   7.559   5.997   7.033
54399SOL     OW65035   5.182  10.738  14.443
54399SOL    HW165036   5.132  10.770  14.368
54399SOL    HW265037   5.273  10.743  14.413
54400SOL     OW65038   2.146   2.647   6.156
54400SOL    HW165039   2.094   2.660   6.077
54400SOL    HW265040   2.141   2.731   6.202
54401SOL     OW65041  13.555   7.395   3.543
54401SOL    HW165042  13.555   7.356   3.631
54401SOL    HW265043  13.466   7.381   3.511
54402SOL     OW65044   2.975   4.205  10.461
54402SOL    HW165045   2.973   4.249  10.546
54402SOL    HW265046   2.923   4.261  10.404
54403SOL     OW65047   1.506  12.573   7.460
54403SOL    HW165048   1.485  12.650   7.406
54403SOL    HW265049   1.585  12.537   7.420
54404SOL     OW65050   6.536  12.664  11.027
54404SOL    HW165051   6.504  12.625  10.945
54404SOL    HW265052   6.501  12.753  11.027
54405SOL     OW65053   1.641  14.020   5.845
54405SOL    HW165054   1.581  14.072   5.898
54405SOL    HW265055   1.638  14.060   5.758
54406SOL     OW65056   1.677  14.102  13.563
54406SOL    HW165057   1.621  14.036  13.603
54406SOL    HW265058   1.623  14.140  13.493
54407SOL     OW65059  11.191  12.351  11.711
54407SOL    HW165060  11.207  12.257  11.714
54407SOL    HW265061  11.181  12.377  11.803
54408SOL     OW65062  13.319   8.758   8.975
54408SOL    HW165063  13.273   8.697   9.033
54408SOL    HW265064  13.391   8.792   9.028
54409SOL     OW65065   5.952   9.523  14.741
54409SOL    HW165066   5.893   9.505  14.814
54409SOL    HW265067   5.896   9.516  14.663
54410SOL     OW65068   5.389   0.417  12.476
54410SOL    HW165069   5.439   0.495  12.454
54410SOL    HW265070   5.376   0.422  12.571
54411SOL     OW65071   9.110   9.705   3.897
54411SOL    HW165072   9.081   9.796   3.891
54411SOL    HW265073   9.201   9.706   3.868
54412SOL     OW65074   7.916   1.689  10.210
54412SOL    HW165075   7.954   1.604  10.234
54412SOL    HW265076   7.889   1.728  10.293
54413SOL     OW65077   9.350   0.618  13.145
54413SOL    HW165078   9.284   0.658  13.201
54413SOL    HW265079   9.412   0.578  13.206
54414SOL     OW65080  13.663   0.950   2.325
54414SOL    HW165081  13.709   0.866   2.326
54414SOL    HW265082  13.717   1.005   2.269
54415SOL     OW65083  12.018  14.846   6.538
54415SOL    HW165084  12.094  14.854   6.480
54415SOL    HW265085  11.943  14.860   6.481
54416SOL     OW65086   6.049   7.276  12.577
54416SOL    HW165087   6.090   7.363  12.582
54416SOL    HW265088   6.091   7.226  12.647
54417SOL     OW65089   9.074   1.234   7.382
54417SOL    HW165090   9.023   1.203   7.457
54417SOL    HW265091   9.019   1.303   7.343
54418SOL     OW65092   7.461   9.980   3.985
54418SOL    HW165093   7.523   9.981   3.912
54418SOL    HW265094   7.413  10.063   3.976
54419SOL     OW65095   8.060   8.260   2.934
54419SOL    HW165096   7.973   8.260   2.975
54419SOL    HW265097   8.116   8.216   2.999
54420SOL     OW65098   2.703  13.856   1.331
54420SOL    HW165099   2.661  13.866   1.246
54420SOL    HW265100   2.672  13.930   1.383
54421SOL     OW65101   9.766   7.877   3.558
54421SOL    HW165102   9.795   7.955   3.607
54421SOL    HW265103   9.675   7.865   3.585
54422SOL     OW65104   3.231   4.137   4.341
54422SOL    HW165105   3.219   4.175   4.253
54422SOL    HW265106   3.142   4.123   4.372
54423SOL     OW65107   3.748   6.004   3.379
54423SOL    HW165108   3.786   5.996   3.291
54423SOL    HW265109   3.810   6.059   3.427
54424SOL     OW65110   6.476  12.259  14.783
54424SOL    HW165111   6.542  12.245  14.715
54424SOL    HW265112   6.436  12.173  14.796
54425SOL     OW65113  14.232   9.723   6.559
54425SOL    HW165114  14.209   9.706   6.650
54425SOL    HW265115  14.207   9.814   6.544
54426SOL     OW65116   6.344   5.264  13.822
54426SOL    HW165117   6.289   5.292  13.749
54426SOL    HW265118   6.352   5.341  13.878
54427SOL     OW65119   0.446  10.045  13.795
54427SOL    HW165120   0.441  10.114  13.861
54427SOL    HW265121   0.516   9.988  13.826
54428SOL     OW65122   2.682   2.249  11.503
54428SOL    HW165123   2.590   2.268  11.518
54428SOL    HW265124   2.718   2.330  11.468
54429SOL     OW65125   9.430   3.728  11.927
54429SOL    HW165126   9.373   3.791  11.885
54429SOL    HW265127   9.380   3.696  12.002
54430SOL     OW65128   0.260   4.310  14.379
54430SOL    HW165129   0.225   4.393  14.411
54430SOL    HW265130   0.342   4.298  14.427
54431SOL     OW65131  10.670   0.730   0.807
54431SOL    HW165132  10.634   0.778   0.733
54431SOL    HW265133  10.606   0.661   0.825
54432SOL     OW65134   3.614   8.164   1.230
54432SOL    HW165135   3.568   8.244   1.256
54432SOL    HW265136   3.687   8.157   1.292
54433SOL     OW65137  10.723   8.325  14.215
54433SOL    HW165138  10.768   8.301  14.296
54433SOL    HW265139  10.697   8.416  14.228
54434SOL     OW65140   8.001   9.309  10.177
54434SOL    HW165141   8.071   9.249  10.201
54434SOL    HW265142   8.044   9.394  10.169
54435SOL     OW65143  10.401   4.289   0.919
54435SOL    HW165144  10.365   4.373   0.893
54435SOL    HW265145  10.496   4.303   0.923
54436SOL     OW65146   2.585   2.100  12.052
54436SOL    HW165147   2.564   2.026  11.996
54436SOL    HW265148   2.502   2.124  12.093
54437SOL     OW65149  10.474  14.237   3.308
54437SOL    HW165150  10.484  14.254   3.215
54437SOL    HW265151  10.397  14.180   3.314
54438SOL     OW65152   8.902   6.709   5.665
54438SOL    HW165153   8.894   6.739   5.575
54438SOL    HW265154   8.953   6.777   5.709
54439SOL     OW65155   1.766   7.710   5.925
54439SOL    HW165156   1.729   7.775   5.865
54439SOL    HW265157   1.816   7.651   5.869
54440SOL     OW65158  13.461  12.240  12.655
54440SOL    HW165159  13.468  12.178  12.582
54440SOL    HW265160  13.548  12.241  12.694
54441SOL     OW65161   2.550   4.674   7.518
54441SOL    HW165162   2.455   4.682   7.517
54441SOL    HW265163   2.578   4.730   7.591
54442SOL     OW65164   8.835   9.708   6.321
54442SOL    HW165165   8.750   9.683   6.358
54442SOL    HW265166   8.821   9.796   6.286
54443SOL     OW65167   7.249  13.585   9.005
54443SOL    HW165168   7.280  13.668   8.969
54443SOL    HW265169   7.210  13.607   9.090
54444SOL     OW65170   5.789   7.559   0.481
54444SOL    HW165171   5.808   7.483   0.426
54444SOL    HW265172   5.709   7.596   0.443
54445SOL     OW65173   6.795   8.489   3.227
54445SOL    HW165174   6.823   8.577   3.254
54445SOL    HW265175   6.717   8.504   3.174
54446SOL     OW65176  12.992   2.212  12.824
54446SOL    HW165177  12.902   2.233  12.801
54446SOL    HW265178  12.997   2.116  12.822
54447SOL     OW65179   0.230   9.754   2.086
54447SOL    HW165180   0.269   9.835   2.052
54447SOL    HW265181   0.232   9.765   2.181
54448SOL     OW65182   9.490   3.746   9.287
54448SOL    HW165183   9.488   3.778   9.196
54448SOL    HW265184   9.575   3.704   9.295
54449SOL     OW65185   8.045   5.235  12.142
54449SOL    HW165186   8.083   5.172  12.203
54449SOL    HW265187   8.102   5.312  12.147
54450SOL     OW65188   6.758   9.162   4.779
54450SOL    HW165189   6.790   9.073   4.795
54450SOL    HW265190   6.706   9.155   4.699
54451SOL     OW65191   0.794   3.685  13.393
54451SOL    HW165192   0.862   3.753  13.397
54451SOL    HW265193   0.836   3.611  13.350
54452SOL     OW65194  12.700   2.126  14.786
54452SOL    HW165195  12.775   2.162  14.833
54452SOL    HW265196  12.642   2.094  14.855
54453SOL     OW65197  11.860   7.205   7.638
54453SOL    HW165198  11.876   7.265   7.710
54453SOL    HW265199  11.767   7.215   7.619
54454SOL     OW65200   5.677   2.483   9.220
54454SOL    HW165201   5.622   2.549   9.178
54454SOL    HW265202   5.761   2.489   9.173
54455SOL     OW65203   1.955   0.821  12.749
54455SOL    HW165204   1.912   0.875  12.683
54455SOL    HW265205   2.042   0.860  12.759
54456SOL     OW65206   6.125   2.869   3.749
54456SOL    HW165207   6.192   2.821   3.799
54456SOL    HW265208   6.139   2.961   3.773
54457SOL     OW65209  13.593  11.549   4.797
54457SOL    HW165210  13.523  11.487   4.821
54457SOL    HW265211  13.636  11.569   4.880
54458SOL     OW65212  10.146  12.016  10.284
54458SOL    HW165213  10.166  12.082  10.350
54458SOL    HW265214  10.069  12.050  10.239
54459SOL     OW65215  10.570   3.531  13.370
54459SOL    HW165216  10.483   3.570  13.372
54459SOL    HW265217  10.587   3.514  13.278
54460SOL     OW65218   9.096   0.735   9.655
54460SOL    HW165219   9.050   0.789   9.721
54460SOL    HW265220   9.146   0.798   9.603
54461SOL     OW65221   3.567   0.607   4.991
54461SOL    HW165222   3.626   0.543   5.032
54461SOL    HW265223   3.579   0.592   4.897
54462SOL     OW65224  12.807   1.281  11.405
54462SOL    HW165225  12.870   1.344  11.440
54462SOL    HW265226  12.848   1.196  11.418
54463SOL     OW65227   8.928   1.343   0.009
54463SOL    HW165228   8.849   1.355   0.061
54463SOL    HW265229   8.896   1.311  14.798
54464SOL     OW65230   2.560   6.438   8.840
54464SOL    HW165231   2.565   6.472   8.751
54464SOL    HW265232   2.523   6.509   8.892
54465SOL     OW65233  13.487   0.352   7.019
54465SOL    HW165234  13.434   0.428   6.994
54465SOL    HW265235  13.577   0.379   7.001
54466SOL     OW65236  11.891  10.522   4.674
54466SOL    HW165237  11.891  10.597   4.734
54466SOL    HW265238  11.830  10.460   4.714
54467SOL     OW65239  12.204   9.821   4.406
54467SOL    HW165240  12.197   9.896   4.465
54467SOL    HW265241  12.238   9.857   4.324
54468SOL     OW65242  11.644   1.632   6.241
54468SOL    HW165243  11.585   1.559   6.260
54468SOL    HW265244  11.656   1.675   6.326
54469SOL     OW65245   6.178   2.880  11.494
54469SOL    HW165246   6.185   2.974  11.505
54469SOL    HW265247   6.198   2.864  11.402
54470SOL     OW65248  12.407   2.527   2.996
54470SOL    HW165249  12.428   2.620   2.981
54470SOL    HW265250  12.472   2.498   3.060
54471SOL     OW65251   0.328   5.698   7.037
54471SOL    HW165252   0.372   5.634   6.981
54471SOL    HW265253   0.347   5.669   7.126
54472SOL     OW65254  10.156  13.020   3.835
54472SOL    HW165255  10.176  13.033   3.743
54472SOL    HW265256  10.158  12.925   3.848
54473SOL     OW65257  10.763   6.064   2.419
54473SOL    HW165258  10.678   6.108   2.408
54473SOL    HW265259  10.827   6.128   2.387
54474SOL     OW65260   5.530   2.456   3.160
54474SOL    HW165261   5.569   2.447   3.248
54474SOL    HW265262   5.573   2.534   3.123
54475SOL     OW65263   3.463   9.886  11.089
54475SOL    HW165264   3.468   9.792  11.071
54475SOL    HW265265   3.545   9.906  11.135
54476SOL     OW65266   6.413   0.405   4.721
54476SOL    HW165267   6.323   0.425   4.746
54476SOL    HW265268   6.454   0.372   4.801
54477SOL     OW65269   3.283  11.897   1.259
54477SOL    HW165270   3.196  11.858   1.254
54477SOL    HW265271   3.315  11.874   1.346
54478SOL     OW65272   8.327   0.044   2.872
54478SOL    HW165273   8.301  14.825   2.880
54478SOL    HW265274   8.312   0.080   2.960
54479SOL     OW65275   4.474   9.726  11.818
54479SOL    HW165276   4.534   9.713  11.892
54479SOL    HW265277   4.412   9.792  11.848
54480SOL     OW65278   7.096   1.156  10.841
54480SOL    HW165279   7.132   1.230  10.792
54480SOL    HW265280   7.127   1.079  10.795
54481SOL     OW65281   6.580  11.110  13.452
54481SOL    HW165282   6.655  11.161  13.482
54481SOL    HW265283   6.504  11.159  13.482
54482SOL     OW65284   5.717   7.835   7.639
54482SOL    HW165285   5.793   7.784   7.608
54482SOL    HW265286   5.648   7.770   7.650
54483SOL     OW65287   4.651   9.381  13.468
54483SOL    HW165288   4.691   9.299  13.439
54483SOL    HW265289   4.695   9.449  13.417
54484SOL     OW65290   9.435  12.235  12.242
54484SOL    HW165291   9.470  12.161  12.292
54484SOL    HW265292   9.510  12.266  12.192
54485SOL     OW65293  10.695  12.162   0.811
54485SOL    HW165294  10.655  12.126   0.732
54485SOL    HW265295  10.663  12.106   0.882
54486SOL     OW65296   6.782   8.640   9.993
54486SOL    HW165297   6.716   8.612   9.931
54486SOL    HW265298   6.865   8.609   9.956
54487SOL     OW65299  13.022   2.081   7.795
54487SOL    HW165300  13.094   2.112   7.849
54487SOL    HW265301  13.002   2.154   7.736
54488SOL     OW65302  13.824   7.662   9.076
54488SOL    HW165303  13.776   7.738   9.107
54488SOL    HW265304  13.910   7.696   9.051
54489SOL     OW65305   1.066   0.589   9.410
54489SOL    HW165306   1.063   0.633   9.325
54489SOL    HW265307   1.036   0.655   9.473
54490SOL     OW65308  10.785   1.759   5.406
54490SOL    HW165309  10.779   1.693   5.475
54490SOL    HW265310  10.879   1.777   5.399
54491SOL     OW65311   0.629  11.221   9.638
54491SOL    HW165312   0.617  11.162   9.563
54491SOL    HW265313   0.706  11.187   9.684
54492SOL     OW65314  14.768   1.286   8.435
54492SOL    HW165315  14.722   1.208   8.402
54492SOL    HW265316  14.773   1.344   8.359
54493SOL     OW65317   1.690  12.909   6.080
54493SOL    HW165318   1.776  12.885   6.114
54493SOL    HW265319   1.639  12.933   6.157
54494SOL     OW65320   1.818   1.994  13.086
54494SOL    HW165321   1.875   1.999  13.162
54494SOL    HW265322   1.822   1.902  13.059
54495SOL     OW65323  11.106   5.159   3.618
54495SOL    HW165324  11.136   5.192   3.533
54495SOL    HW265325  11.057   5.232   3.656
54496SOL     OW65326   9.716   3.244   8.211
54496SOL    HW165327   9.795   3.286   8.245
54496SOL    HW265328   9.646   3.307   8.229
54497SOL     OW65329  13.594  14.410  14.372
54497SOL    HW165330  13.548  14.334  14.408
54497SOL    HW265331  13.621  14.382  14.284
54498SOL     OW65332   5.296   0.468   1.887
54498SOL    HW165333   5.260   0.557   1.888
54498SOL    HW265334   5.331   0.456   1.975
54499SOL     OW65335   5.218   0.147   5.450
54499SOL    HW165336   5.221   0.184   5.362
54499SOL    HW265337   5.239   0.220   5.508
54500SOL     OW65338   6.340   8.575   3.792
54500SOL    HW165339   6.384   8.636   3.851
54500SOL    HW265340   6.401   8.563   3.720
54501SOL     OW65341   4.990   9.980  14.036
54501SOL    HW165342   5.005   9.973  13.942
54501SOL    HW265343   5.048  10.050  14.065
54502SOL     OW65344  11.813  12.212   8.016
54502SOL    HW165345  11.809  12.201   8.111
54502SOL    HW265346  11.738  12.162   7.983
54503SOL     OW65347   5.793   0.591   6.465
54503SOL    HW165348   5.776   0.497   6.476
54503SOL    HW265349   5.854   0.597   6.392
54504SOL     OW65350   7.954   6.235   2.441
54504SOL    HW165351   8.048   6.243   2.426
54504SOL    HW265352   7.946   6.168   2.508
54505SOL     OW65353   5.530  13.461   8.087
54505SOL    HW165354   5.492  13.394   8.144
54505SOL    HW265355   5.480  13.540   8.107
54506SOL     OW65356  10.957   6.774   7.609
54506SOL    HW165357  10.878   6.790   7.659
54506SOL    HW265358  10.971   6.855   7.559
54507SOL     OW65359   4.228  10.723  11.859
54507SOL    HW165360   4.198  10.792  11.918
54507SOL    HW265361   4.319  10.707  11.885
54508SOL     OW65362   9.705   5.245   8.012
54508SOL    HW165363   9.740   5.173   8.064
54508SOL    HW265364   9.783   5.293   7.983
54509SOL     OW65365  12.850   1.569  13.068
54509SOL    HW165366  12.883   1.480  13.079
54509SOL    HW265367  12.799   1.586  13.147
54510SOL     OW65368   1.489   8.868  13.889
54510SOL    HW165369   1.525   8.956  13.881
54510SOL    HW265370   1.509   8.826  13.805
54511SOL     OW65371   3.631  10.686   8.012
54511SOL    HW165372   3.585  10.607   8.041
54511SOL    HW265373   3.693  10.705   8.082
54512SOL     OW65374  11.011   7.022   7.929
54512SOL    HW165375  11.092   7.071   7.914
54512SOL    HW265376  10.959   7.037   7.850
54513SOL     OW65377   9.062   4.527  12.434
54513SOL    HW165378   9.124   4.510  12.364
54513SOL    HW265379   9.097   4.605  12.479
54514SOL     OW65380   7.555  10.835  13.937
54514SOL    HW165381   7.583  10.851  14.027
54514SOL    HW265382   7.548  10.740  13.931
54515SOL     OW65383   1.954  12.811  13.562
54515SOL    HW165384   2.006  12.732  13.551
54515SOL    HW265385   1.943  12.845  13.474
54516SOL     OW65386   4.100   7.132   8.515
54516SOL    HW165387   4.195   7.123   8.530
54516SOL    HW265388   4.067   7.168   8.597
54517SOL     OW65389   0.288   6.016  11.892
54517SOL    HW165390   0.328   5.977  11.814
54517SOL    HW265391   0.271   6.107  11.866
54518SOL     OW65392   4.629  12.219   1.887
54518SOL    HW165393   4.716  12.180   1.883
54518SOL    HW265394   4.589  12.196   1.803
54519SOL     OW65395   1.406   7.238  13.073
54519SOL    HW165396   1.471   7.168  13.075
54519SOL    HW265397   1.339   7.208  13.012
54520SOL     OW65398  11.469   0.383   4.801
54520SOL    HW165399  11.453   0.336   4.719
54520SOL    HW265400  11.388   0.432   4.815
54521SOL     OW65401  11.806   7.481   3.630
54521SOL    HW165402  11.803   7.465   3.535
54521SOL    HW265403  11.899   7.487   3.650
54522SOL     OW65404  13.195   0.020  11.168
54522SOL    HW165405  13.144   0.099  11.184
54522SOL    HW265406  13.129  14.824  11.157
54523SOL     OW65407   5.351  12.043  14.470
54523SOL    HW165408   5.319  12.111  14.529
54523SOL    HW265409   5.436  12.076  14.439
54524SOL     OW65410  11.475   2.534   8.017
54524SOL    HW165411  11.423   2.552   8.095
54524SOL    HW265412  11.480   2.617   7.971
54525SOL     OW65413  14.404  10.986   5.026
54525SOL    HW165414  14.402  10.959   5.118
54525SOL    HW265415  14.496  11.001   5.008
54526SOL     OW65416   1.228   0.489  14.550
54526SOL    HW165417   1.288   0.427  14.508
54526SOL    HW265418   1.238   0.569  14.499
54527SOL     OW65419   7.111   0.195   7.933
54527SOL    HW165420   7.090   0.194   8.026
54527SOL    HW265421   7.138   0.285   7.915
54528SOL     OW65422  11.333  10.380   0.295
54528SOL    HW165423  11.367  10.424   0.373
54528SOL    HW265424  11.408  10.331   0.260
54529SOL     OW65425   5.694   9.495   8.616
54529SOL    HW165426   5.656   9.542   8.542
54529SOL    HW265427   5.630   9.426   8.634
54530SOL     OW65428   4.922   5.320   8.730
54530SOL    HW165429   4.881   5.398   8.766
54530SOL    HW265430   4.953   5.347   8.643
54531SOL     OW65431   3.771  14.097  11.959
54531SOL    HW165432   3.734  14.168  12.011
54531SOL    HW265433   3.860  14.086  11.992
54532SOL     OW65434  12.291  12.159   8.648
54532SOL    HW165435  12.326  12.126   8.731
54532SOL    HW265436  12.348  12.122   8.581
54533SOL     OW65437   1.066  13.842   6.427
54533SOL    HW165438   1.140  13.797   6.468
54533SOL    HW265439   1.005  13.856   6.499
54534SOL     OW65440  11.692  11.007   1.102
54534SOL    HW165441  11.616  10.985   1.048
54534SOL    HW265442  11.739  11.073   1.051
54535SOL     OW65443   2.389   3.673   6.717
54535SOL    HW165444   2.442   3.673   6.637
54535SOL    HW265445   2.299   3.659   6.686
54536SOL     OW65446   1.459   0.757   9.863
54536SOL    HW165447   1.490   0.671   9.833
54536SOL    HW265448   1.467   0.753   9.959
54537SOL     OW65449   0.673   7.614  12.089
54537SOL    HW165450   0.743   7.585  12.147
54537SOL    HW265451   0.594   7.611  12.144
54538SOL     OW65452  11.486   4.880  13.206
54538SOL    HW165453  11.473   4.975  13.207
54538SOL    HW265454  11.505   4.860  13.114
54539SOL     OW65455   7.085   3.105  11.573
54539SOL    HW165456   7.119   3.025  11.611
54539SOL    HW265457   6.993   3.087  11.555
54540SOL     OW65458   4.235   4.077   0.610
54540SOL    HW165459   4.165   4.135   0.639
54540SOL    HW265460   4.200   3.989   0.623
54541SOL     OW65461   0.734   5.629   2.184
54541SOL    HW165462   0.747   5.652   2.276
54541SOL    HW265463   0.747   5.534   2.180
54542SOL     OW65464  11.212  12.189   9.245
54542SOL    HW165465  11.130  12.199   9.196
54542SOL    HW265466  11.246  12.104   9.218
54543SOL     OW65467   2.390   7.139   6.985
54543SOL    HW165468   2.343   7.221   7.004
54543SOL    HW265469   2.352   7.075   7.044
54544SOL     OW65470   4.902   0.815  14.099
54544SOL    HW165471   4.964   0.799  14.171
54544SOL    HW265472   4.856   0.732  14.089
54545SOL     OW65473   1.737  10.623   3.671
54545SOL    HW165474   1.707  10.578   3.592
54545SOL    HW265475   1.831  10.634   3.658
54546SOL     OW65476   9.829   2.776   8.276
54546SOL    HW165477   9.855   2.862   8.309
54546SOL    HW265478   9.887   2.760   8.202
54547SOL     OW65479   7.032  10.908  12.482
54547SOL    HW165480   6.938  10.897  12.471
54547SOL    HW265481   7.057  10.972  12.416
54548SOL     OW65482   4.732  13.095  13.923
54548SOL    HW165483   4.682  13.127  13.998
54548SOL    HW265484   4.799  13.163  13.909
54549SOL     OW65485  10.251   3.839  10.027
54549SOL    HW165486  10.237   3.912  10.088
54549SOL    HW265487  10.203   3.864   9.948
54550SOL     OW65488   9.756  11.548   2.280
54550SOL    HW165489   9.683  11.570   2.222
54550SOL    HW265490   9.722  11.560   2.368
54551SOL     OW65491   1.895  11.438   3.755
54551SOL    HW165492   1.914  11.527   3.787
54551SOL    HW265493   1.864  11.391   3.833
54552SOL     OW65494   2.488   1.926   5.720
54552SOL    HW165495   2.501   1.835   5.694
54552SOL    HW265496   2.573   1.955   5.751
54553SOL     OW65497   2.960   2.695  11.471
54553SOL    HW165498   2.934   2.704  11.563
54553SOL    HW265499   3.054   2.711  11.471
54554SOL     OW65500   8.926   3.142   8.804
54554SOL    HW165501   8.917   3.232   8.836
54554SOL    HW265502   8.837   3.107   8.801
54555SOL     OW65503  11.428   9.384   0.423
54555SOL    HW165504  11.473   9.381   0.339
54555SOL    HW265505  11.400   9.294   0.439
54556SOL     OW65506  13.347  11.275   2.494
54556SOL    HW165507  13.277  11.254   2.432
54556SOL    HW265508  13.367  11.192   2.536
54557SOL     OW65509  12.061   7.818   3.197
54557SOL    HW165510  12.059   7.779   3.284
54557SOL    HW265511  12.153   7.838   3.182
54558SOL     OW65512   4.777  12.321   4.870
54558SOL    HW165513   4.843  12.368   4.819
54558SOL    HW265514   4.742  12.387   4.930
54559SOL     OW65515   3.213   6.019   2.581
54559SOL    HW165516   3.234   6.098   2.630
54559SOL    HW265517   3.228   5.948   2.644
54560SOL     OW65518   1.810  12.572   3.622
54560SOL    HW165519   1.807  12.546   3.714
54560SOL    HW265520   1.897  12.545   3.592
54561SOL     OW65521  12.198   2.208   3.302
54561SOL    HW165522  12.184   2.260   3.223
54561SOL    HW265523  12.259   2.260   3.355
54562SOL     OW65524  11.024  13.682  13.179
54562SOL    HW165525  11.014  13.739  13.103
54562SOL    HW265526  10.971  13.722  13.247
54563SOL     OW65527   1.772   5.434  10.812
54563SOL    HW165528   1.724   5.413  10.732
54563SOL    HW265529   1.759   5.528  10.824
54564SOL     OW65530   5.490   3.345   7.588
54564SOL    HW165531   5.482   3.405   7.514
54564SOL    HW265532   5.400   3.320   7.609
54565SOL     OW65533   4.816  11.506   8.383
54565SOL    HW165534   4.743  11.474   8.435
54565SOL    HW265535   4.817  11.448   8.306
54566SOL     OW65536  12.016  10.770   2.458
54566SOL    HW165537  11.982  10.721   2.533
54566SOL    HW265538  12.111  10.775   2.473
54567SOL     OW65539   6.745  12.098   2.286
54567SOL    HW165540   6.703  12.043   2.352
54567SOL    HW265541   6.747  12.185   2.325
54568SOL     OW65542   3.575   9.517   6.581
54568SOL    HW165543   3.606   9.512   6.671
54568SOL    HW265544   3.484   9.489   6.585
54569SOL     OW65545   5.253   7.643  13.466
54569SOL    HW165546   5.254   7.735  13.491
54569SOL    HW265547   5.193   7.602  13.529
54570SOL     OW65548   2.011  11.959   8.917
54570SOL    HW165549   2.070  11.888   8.941
54570SOL    HW265550   1.925  11.917   8.911
54571SOL     OW65551  13.801   1.913   2.076
54571SOL    HW165552  13.842   1.980   2.023
54571SOL    HW265553  13.773   1.846   2.014
54572SOL     OW65554   8.550   5.210   6.920
54572SOL    HW165555   8.507   5.131   6.886
54572SOL    HW265556   8.484   5.249   6.978
54573SOL     OW65557   6.709  13.060   4.754
54573SOL    HW165558   6.751  12.999   4.693
54573SOL    HW265559   6.773  13.130   4.765
54574SOL     OW65560   5.226  11.673  11.792
54574SOL    HW165561   5.212  11.698  11.884
54574SOL    HW265562   5.317  11.643  11.789
54575SOL     OW65563   6.677   5.889  13.980
54575SOL    HW165564   6.693   5.916  13.890
54575SOL    HW265565   6.749   5.928  14.030
54576SOL     OW65566   7.422   2.697  14.307
54576SOL    HW165567   7.373   2.615  14.298
54576SOL    HW265568   7.424   2.713  14.401
54577SOL     OW65569   7.356   1.182  11.105
54577SOL    HW165570   7.296   1.246  11.069
54577SOL    HW265571   7.317   1.156  11.188
54578SOL     OW65572   7.060  11.349   5.437
54578SOL    HW165573   7.019  11.263   5.442
54578SOL    HW265574   7.151  11.330   5.414
54579SOL     OW65575  11.622   8.545   5.195
54579SOL    HW165576  11.692   8.543   5.261
54579SOL    HW265577  11.638   8.624   5.145
54580SOL     OW65578   3.590   3.242   5.379
54580SOL    HW165579   3.535   3.273   5.452
54580SOL    HW265580   3.553   3.285   5.302
54581SOL     OW65581   5.213  12.522   3.975
54581SOL    HW165582   5.144  12.477   3.926
54581SOL    HW265583   5.169  12.554   4.054
54582SOL     OW65584   5.486   6.358   2.701
54582SOL    HW165585   5.487   6.323   2.790
54582SOL    HW265586   5.418   6.307   2.656
54583SOL     OW65587  14.032   9.552  12.824
54583SOL    HW165588  13.978   9.543  12.902
54583SOL    HW265589  14.051   9.645  12.818
54584SOL     OW65590  12.191   6.207  14.525
54584SOL    HW165591  12.158   6.117  14.531
54584SOL    HW265592  12.221   6.216  14.434
54585SOL     OW65593   0.256  12.643   6.491
54585SOL    HW165594   0.260  12.654   6.586
54585SOL    HW265595   0.171  12.680   6.467
54586SOL     OW65596  10.437   4.738   7.318
54586SOL    HW165597  10.477   4.712   7.401
54586SOL    HW265598  10.360   4.787   7.343
54587SOL     OW65599   9.914   2.736  13.167
54587SOL    HW165600   9.934   2.766  13.256
54587SOL    HW265601   9.882   2.815  13.122
54588SOL     OW65602   7.427  11.245   1.559
54588SOL    HW165603   7.373  11.170   1.534
54588SOL    HW265604   7.517  11.215   1.545
54589SOL     OW65605   8.531   2.259   2.247
54589SOL    HW165606   8.578   2.198   2.304
54589SOL    HW265607   8.592   2.331   2.233
54590SOL     OW65608   3.683   4.795   8.139
54590SOL    HW165609   3.663   4.784   8.046
54590SOL    HW265610   3.598   4.816   8.179
54591SOL     OW65611   1.146   9.387   9.411
54591SOL    HW165612   1.230   9.414   9.374
54591SOL    HW265613   1.081   9.430   9.356
54592SOL     OW65614   0.646   2.581   9.927
54592SOL    HW165615   0.640   2.603   9.834
54592SOL    HW265616   0.570   2.525   9.943
54593SOL     OW65617   4.642  14.796   6.807
54593SOL    HW165618   4.589  14.824   6.882
54593SOL    HW265619   4.709  14.739   6.846
54594SOL     OW65620   0.498   4.084  10.661
54594SOL    HW165621   0.423   4.051  10.610
54594SOL    HW265622   0.550   4.006  10.680
54595SOL     OW65623  11.970   4.853   7.180
54595SOL    HW165624  11.936   4.861   7.269
54595SOL    HW265625  12.033   4.780   7.186
54596SOL     OW65626   8.608   9.787  12.294
54596SOL    HW165627   8.679   9.805  12.356
54596SOL    HW265628   8.653   9.768  12.212
54597SOL     OW65629   8.025   6.800   5.964
54597SOL    HW165630   8.014   6.797   6.059
54597SOL    HW265631   8.034   6.708   5.938
54598SOL     OW65632  10.514   2.751  14.614
54598SOL    HW165633  10.524   2.806  14.692
54598SOL    HW265634  10.462   2.805  14.554
54599SOL     OW65635   5.929  13.742   3.091
54599SOL    HW165636   5.929  13.781   3.178
54599SOL    HW265637   5.841  13.757   3.057
54600SOL     OW65638   4.200   4.760   2.644
54600SOL    HW165639   4.127   4.741   2.702
54600SOL    HW265640   4.250   4.828   2.689
54601SOL     OW65641   2.798  14.153   8.551
54601SOL    HW165642   2.748  14.138   8.631
54601SOL    HW265643   2.861  14.081   8.548
54602SOL     OW65644   9.072  11.162   6.342
54602SOL    HW165645   9.029  11.088   6.387
54602SOL    HW265646   9.031  11.239   6.380
54603SOL     OW65647   2.488   6.708  13.453
54603SOL    HW165648   2.526   6.796  13.452
54603SOL    HW265649   2.523   6.667  13.373
54604SOL     OW65650   9.411  13.688   3.520
54604SOL    HW165651   9.412  13.739   3.601
54604SOL    HW265652   9.362  13.742   3.458
54605SOL     OW65653   5.672  12.197   3.590
54605SOL    HW165654   5.631  12.130   3.645
54605SOL    HW265655   5.757  12.213   3.631
54606SOL     OW65656  11.915   1.555  13.748
54606SOL    HW165657  11.865   1.588  13.822
54606SOL    HW265658  11.862   1.575  13.671
54607SOL     OW65659  11.854   1.112   1.438
54607SOL    HW165660  11.810   1.108   1.353
54607SOL    HW265661  11.868   1.021   1.463
54608SOL     OW65662   5.048   7.607   4.103
54608SOL    HW165663   5.054   7.552   4.025
54608SOL    HW265664   5.133   7.597   4.146
54609SOL     OW65665   4.129   3.466  10.191
54609SOL    HW165666   4.098   3.543  10.240
54609SOL    HW265667   4.099   3.391  10.242
54610SOL     OW65668   9.082   4.942  11.473
54610SOL    HW165669   9.098   4.880  11.543
54610SOL    HW265670   9.031   5.012  11.513
54611SOL     OW65671   2.075  12.524  13.191
54611SOL    HW165672   2.017  12.448  13.197
54611SOL    HW265673   2.083  12.540  13.097
54612SOL     OW65674   9.427  10.891  14.487
54612SOL    HW165675   9.337  10.907  14.518
54612SOL    HW265676   9.425  10.799  14.458
54613SOL     OW65677   7.631  13.116  11.048
54613SOL    HW165678   7.721  13.130  11.020
54613SOL    HW265679   7.624  13.161  11.132
54614SOL     OW65680   4.628  10.832   9.290
54614SOL    HW165681   4.661  10.817   9.202
54614SOL    HW265682   4.534  10.847   9.279
54615SOL     OW65683   1.001  12.391  13.093
54615SOL    HW165684   0.962  12.305  13.101
54615SOL    HW265685   1.090  12.380  13.126
54616SOL     OW65686   2.318   7.642   0.426
54616SOL    HW165687   2.339   7.587   0.502
54616SOL    HW265688   2.240   7.601   0.389
54617SOL     OW65689   9.341   7.975   2.360
54617SOL    HW165690   9.425   7.929   2.358
54617SOL    HW265691   9.363   8.066   2.339
54618SOL     OW65692   5.340  10.239  13.200
54618SOL    HW165693   5.253  10.202  13.188
54618SOL    HW265694   5.367  10.208  13.287
54619SOL     OW65695  12.567   2.818   9.016
54619SOL    HW165696  12.492   2.763   8.991
54619SOL    HW265697  12.547   2.904   8.979
54620SOL     OW65698   2.288  11.961  13.703
54620SOL    HW165699   2.381  11.974  13.686
54620SOL    HW265700   2.244  12.013  13.635
54621SOL     OW65701   1.859   2.765   3.506
54621SOL    HW165702   1.946   2.775   3.544
54621SOL    HW265703   1.874   2.747   3.414
54622SOL     OW65704   7.046   1.865   2.730
54622SOL    HW165705   7.078   1.952   2.753
54622SOL    HW265706   7.005   1.877   2.644
54623SOL     OW65707   7.967  11.509   1.472
54623SOL    HW165708   7.872  11.524   1.474
54623SOL    HW265709   7.988  11.475   1.559
54624SOL     OW65710   8.245  10.672  10.358
54624SOL    HW165711   8.200  10.590  10.378
54624SOL    HW265712   8.328  10.645  10.319
54625SOL     OW65713  14.218   1.621  12.959
54625SOL    HW165714  14.301   1.637  13.004
54625SOL    HW265715  14.165   1.699  12.978
54626SOL     OW65716  11.379  14.828   4.008
54626SOL    HW165717  11.456   0.004   3.979
54626SOL    HW265718  11.366  14.761   3.941
54627SOL     OW65719   1.047   4.605   6.300
54627SOL    HW165720   0.957   4.637   6.309
54627SOL    HW265721   1.060   4.550   6.378
54628SOL     OW65722  13.702   2.703  14.478
54628SOL    HW165723  13.756   2.625  14.479
54628SOL    HW265724  13.625   2.679  14.426
54629SOL     OW65725   1.718   5.474   0.332
54629SOL    HW165726   1.663   5.420   0.276
54629SOL    HW265727   1.660   5.542   0.366
54630SOL     OW65728   4.264   1.392   3.686
54630SOL    HW165729   4.295   1.448   3.758
54630SOL    HW265730   4.327   1.407   3.615
54631SOL     OW65731  11.050  11.306   3.679
54631SOL    HW165732  11.091  11.374   3.733
54631SOL    HW265733  10.968  11.286   3.724
54632SOL     OW65734  13.220   7.196   3.924
54632SOL    HW165735  13.215   7.268   3.988
54632SOL    HW265736  13.289   7.140   3.958
54633SOL     OW65737   3.413  11.093  14.315
54633SOL    HW165738   3.437  11.182  14.287
54633SOL    HW265739   3.368  11.106  14.399
54634SOL     OW65740   0.688   5.530  10.900
54634SOL    HW165741   0.723   5.448  10.865
54634SOL    HW265742   0.761   5.592  10.893
54635SOL     OW65743   3.213   7.721   2.241
54635SOL    HW165744   3.219   7.810   2.206
54635SOL    HW265745   3.205   7.665   2.163
54636SOL     OW65746   8.725  14.023   1.519
54636SOL    HW165747   8.643  14.012   1.567
54636SOL    HW265748   8.705  14.087   1.452
54637SOL     OW65749   9.095   0.868  12.306
54637SOL    HW165750   9.073   0.777  12.325
54637SOL    HW265751   9.166   0.862  12.242
54638SOL     OW65752   9.543  12.102  14.337
54638SOL    HW165753   9.565  12.133  14.249
54638SOL    HW265754   9.627  12.086  14.379
54639SOL     OW65755  11.896  10.076   9.246
54639SOL    HW165756  11.805  10.047   9.252
54639SOL    HW265757  11.943  10.020   9.307
54640SOL     OW65758   7.340  14.297  11.206
54640SOL    HW165759   7.373  14.381  11.239
54640SOL    HW265760   7.318  14.247  11.285
54641SOL     OW65761   8.988   0.610   8.643
54641SOL    HW165762   9.080   0.607   8.617
54641SOL    HW265763   8.961   0.701   8.626
54642SOL     OW65764  11.608   0.947   3.188
54642SOL    HW165765  11.634   1.002   3.113
54642SOL    HW265766  11.513   0.944   3.183
54643SOL     OW65767   3.180   2.735  13.310
54643SOL    HW165768   3.151   2.652  13.348
54643SOL    HW265769   3.152   2.730  13.219
54644SOL     OW65770   3.147  14.281   4.297
54644SOL    HW165771   3.087  14.356   4.304
54644SOL    HW265772   3.126  14.227   4.374
54645SOL     OW65773   6.552  10.544   8.873
54645SOL    HW165774   6.562  10.454   8.840
54645SOL    HW265775   6.460  10.566   8.855
54646SOL     OW65776   3.953   8.084   9.014
54646SOL    HW165777   3.926   8.037   9.093
54646SOL    HW265778   4.008   8.155   9.046
54647SOL     OW65779   2.380   0.736   7.522
54647SOL    HW165780   2.370   0.829   7.502
54647SOL    HW265781   2.299   0.695   7.492
54648SOL     OW65782  10.864  14.184  11.653
54648SOL    HW165783  10.878  14.128  11.578
54648SOL    HW265784  10.883  14.128  11.729
54649SOL     OW65785  13.935  11.632  11.998
54649SOL    HW165786  13.862  11.658  11.941
54649SOL    HW265787  13.923  11.538  12.010
54650SOL     OW65788   5.356  10.650   3.010
54650SOL    HW165789   5.295  10.581   2.985
54650SOL    HW265790   5.417  10.608   3.070
54651SOL     OW65791   7.402  11.319   8.235
54651SOL    HW165792   7.397  11.260   8.160
54651SOL    HW265793   7.419  11.262   8.309
54652SOL     OW65794  14.371   7.783   0.187
54652SOL    HW165795  14.327   7.699   0.178
54652SOL    HW265796  14.402   7.784   0.278
54653SOL     OW65797  13.302   5.977   3.522
54653SOL    HW165798  13.288   6.065   3.558
54653SOL    HW265799  13.266   5.981   3.434
54654SOL     OW65800  13.135  13.222  13.830
54654SOL    HW165801  13.047  13.259  13.834
54654SOL    HW265802  13.182  13.264  13.902
54655SOL     OW65803   9.758   5.015   7.568
54655SOL    HW165804   9.802   4.985   7.489
54655SOL    HW265805   9.751   4.937   7.623
54656SOL     OW65806   2.761   2.014   2.613
54656SOL    HW165807   2.788   2.093   2.661
54656SOL    HW265808   2.841   1.985   2.569
54657SOL     OW65809   0.008  12.933  12.714
54657SOL    HW165810   0.047  12.925  12.627
54657SOL    HW265811  14.866  13.026  12.726
54658SOL     OW65812  13.404  14.535   7.903
54658SOL    HW165813  13.465  14.578   7.843
54658SOL    HW265814  13.386  14.450   7.862
54659SOL     OW65815   2.603   8.560   7.383
54659SOL    HW165816   2.519   8.603   7.402
54659SOL    HW265817   2.601   8.546   7.288
54660SOL     OW65818  13.108  11.327   7.223
54660SOL    HW165819  13.199  11.355   7.233
54660SOL    HW265820  13.077  11.313   7.313
54661SOL     OW65821   2.981   8.013   9.304
54661SOL    HW165822   3.053   8.059   9.261
54661SOL    HW265823   2.909   8.017   9.241
54662SOL     OW65824   5.184   0.457  11.336
54662SOL    HW165825   5.098   0.430  11.303
54662SOL    HW265826   5.200   0.399  11.410
54663SOL     OW65827   3.198   3.741  10.959
54663SOL    HW165828   3.126   3.770  11.016
54663SOL    HW265829   3.190   3.797  10.881
54664SOL     OW65830   5.567   9.211   7.646
54664SOL    HW165831   5.648   9.164   7.664
54664SOL    HW265832   5.505   9.144   7.617
54665SOL     OW65833  11.371   5.701  10.386
54665SOL    HW165834  11.343   5.789  10.410
54665SOL    HW265835  11.339   5.645  10.456
54666SOL     OW65836  13.111   5.799   4.643
54666SOL    HW165837  13.171   5.724   4.644
54666SOL    HW265838  13.137   5.848   4.565
54667SOL     OW65839   0.670  13.592   3.467
54667SOL    HW165840   0.753  13.545   3.461
54667SOL    HW265841   0.646  13.587   3.560
54668SOL     OW65842   7.991   5.226  13.857
54668SOL    HW165843   8.071   5.244  13.906
54668SOL    HW265844   7.932   5.185  13.920
54669SOL     OW65845   1.985   1.226   9.422
54669SOL    HW165846   2.027   1.248   9.505
54669SOL    HW265847   2.003   1.301   9.365
54670SOL     OW65848   4.674   2.431  11.488
54670SOL    HW165849   4.689   2.460  11.578
54670SOL    HW265850   4.754   2.453  11.442
54671SOL     OW65851   1.706  11.181   8.701
54671SOL    HW165852   1.705  11.115   8.770
54671SOL    HW265853   1.752  11.256   8.739
54672SOL     OW65854  10.100  12.422   7.507
54672SOL    HW165855  10.101  12.374   7.424
54672SOL    HW265856  10.123  12.511   7.484
54673SOL     OW65857   6.169  10.206  13.614
54673SOL    HW165858   6.195  10.139  13.551
54673SOL    HW265859   6.128  10.157  13.685
54674SOL     OW65860   1.582   3.517   1.872
54674SOL    HW165861   1.489   3.537   1.882
54674SOL    HW265862   1.606   3.553   1.787
54675SOL     OW65863  12.143  13.056   6.848
54675SOL    HW165864  12.153  13.151   6.843
54675SOL    HW265865  12.106  13.040   6.935
54676SOL     OW65866   1.115   3.760   2.457
54676SOL    HW165867   1.190   3.819   2.457
54676SOL    HW265868   1.058   3.793   2.388
54677SOL     OW65869   5.631   8.896   7.328
54677SOL    HW165870   5.668   8.973   7.285
54677SOL    HW265871   5.600   8.842   7.256
54678SOL     OW65872   6.496   9.939   6.002
54678SOL    HW165873   6.406   9.969   5.986
54678SOL    HW265874   6.537   9.939   5.915
54679SOL     OW65875   2.408   3.201  11.452
54679SOL    HW165876   2.378   3.128  11.398
54679SOL    HW265877   2.364   3.278  11.415
54680SOL     OW65878  10.607  10.707  14.129
54680SOL    HW165879  10.682  10.668  14.174
54680SOL    HW265880  10.590  10.647  14.057
54681SOL     OW65881   9.046   9.634  10.979
54681SOL    HW165882   9.075   9.702  11.040
54681SOL    HW265883   9.017   9.563  11.035
54682SOL     OW65884   3.093  13.086   9.716
54682SOL    HW165885   3.127  13.006   9.675
54682SOL    HW265886   3.017  13.056   9.766
54683SOL     OW65887   9.585  14.426   1.556
54683SOL    HW165888   9.608  14.519   1.564
54683SOL    HW265889   9.548  14.418   1.468
54684SOL     OW65890   0.906  14.144   7.752
54684SOL    HW165891   0.850  14.221   7.746
54684SOL    HW265892   0.846  14.071   7.767
54685SOL     OW65893   1.173  12.176   6.062
54685SOL    HW165894   1.099  12.145   6.113
54685SOL    HW265895   1.184  12.111   5.993
54686SOL     OW65896  10.807   8.506   2.775
54686SOL    HW165897  10.810   8.546   2.688
54686SOL    HW265898  10.733   8.549   2.819
54687SOL     OW65899  13.278   9.777   6.451
54687SOL    HW165900  13.319   9.713   6.509
54687SOL    HW265901  13.195   9.737   6.426
54688SOL     OW65902  13.536   0.770   5.812
54688SOL    HW165903  13.602   0.839   5.801
54688SOL    HW265904  13.456   0.817   5.834
54689SOL     OW65905   3.257  11.597  10.434
54689SOL    HW165906   3.273  11.514  10.480
54689SOL    HW265907   3.262  11.663  10.503
54690SOL     OW65908  10.988   2.654  10.705
54690SOL    HW165909  10.958   2.673  10.616
54690SOL    HW265910  10.921   2.692  10.762
54691SOL     OW65911  12.668  13.968  13.512
54691SOL    HW165912  12.648  14.038  13.451
54691SOL    HW265913  12.628  13.890  13.474
54692SOL     OW65914   5.248  11.877  10.352
54692SOL    HW165915   5.331  11.925  10.342
54692SOL    HW265916   5.269  11.805  10.412
54693SOL     OW65917   9.938   3.071   5.616
54693SOL    HW165918   9.927   3.024   5.699
54693SOL    HW265919  10.002   3.020   5.567
54694SOL     OW65920  12.680  13.743   3.135
54694SOL    HW165921  12.732  13.670   3.100
54694SOL    HW265922  12.738  13.786   3.197
54695SOL     OW65923   8.995  10.918  10.348
54695SOL    HW165924   8.975  10.835  10.306
54695SOL    HW265925   8.910  10.959  10.364
54696SOL     OW65926   4.305  14.656   8.258
54696SOL    HW165927   4.398  14.681   8.259
54696SOL    HW265928   4.264  14.716   8.320
54697SOL     OW65929  14.670  11.907  14.621
54697SOL    HW165930  14.671  11.964  14.544
54697SOL    HW265931  14.763  11.895  14.643
54698SOL     OW65932   3.913  13.659   7.913
54698SOL    HW165933   3.962  13.723   7.965
54698SOL    HW265934   3.961  13.654   7.830
54699SOL     OW65935   3.668   9.030  14.351
54699SOL    HW165936   3.758   9.062  14.349
54699SOL    HW265937   3.664   8.964  14.281
54700SOL     OW65938   9.431   6.017   1.644
54700SOL    HW165939   9.409   6.031   1.736
54700SOL    HW265940   9.368   5.951   1.614
54701SOL     OW65941   9.577   6.983  13.232
54701SOL    HW165942   9.508   6.930  13.271
54701SOL    HW265943   9.572   6.964  13.139
54702SOL     OW65944  13.055   3.357  13.195
54702SOL    HW165945  12.986   3.420  13.215
54702SOL    HW265946  13.020   3.307  13.121
54703SOL     OW65947   2.702   0.997   0.217
54703SOL    HW165948   2.796   1.010   0.201
54703SOL    HW265949   2.697   0.910   0.257
54704SOL     OW65950   1.285   3.913  10.362
54704SOL    HW165951   1.211   3.863  10.329
54704SOL    HW265952   1.312   3.865  10.441
54705SOL     OW65953   5.247  14.006   6.243
54705SOL    HW165954   5.264  13.999   6.149
54705SOL    HW265955   5.293  14.085   6.270
54706SOL     OW65956   6.587  10.783  13.328
54706SOL    HW165957   6.587  10.688  13.333
54706SOL    HW265958   6.508  10.805  13.278
54707SOL     OW65959   5.701   9.412   1.585
54707SOL    HW165960   5.762   9.402   1.658
54707SOL    HW265961   5.754   9.451   1.516
54708SOL     OW65962   6.840  10.561   2.242
54708SOL    HW165963   6.855  10.637   2.186
54708SOL    HW265964   6.803  10.597   2.323
54709SOL     OW65965   7.406  14.282   2.803
54709SOL    HW165966   7.452  14.366   2.804
54709SOL    HW265967   7.316  14.304   2.781
54710SOL     OW65968   6.986   4.576   9.089
54710SOL    HW165969   7.055   4.510   9.081
54710SOL    HW265970   6.927   4.541   9.156
54711SOL     OW65971  10.714   3.377   8.518
54711SOL    HW165972  10.744   3.414   8.435
54711SOL    HW265973  10.697   3.284   8.499
54712SOL     OW65974   2.020  11.107   4.757
54712SOL    HW165975   1.926  11.124   4.769
54712SOL    HW265976   2.026  11.011   4.755
54713SOL     OW65977   3.808   9.495   8.387
54713SOL    HW165978   3.759   9.510   8.468
54713SOL    HW265979   3.899   9.486   8.415
54714SOL     OW65980   9.241   7.564   6.975
54714SOL    HW165981   9.166   7.623   6.967
54714SOL    HW265982   9.216   7.504   7.046
54715SOL     OW65983  11.428  13.995   6.458
54715SOL    HW165984  11.346  13.965   6.417
54715SOL    HW265985  11.481  14.025   6.384
54716SOL     OW65986  11.165   2.670   7.990
54716SOL    HW165987  11.140   2.701   7.903
54716SOL    HW265988  11.170   2.749   8.043
54717SOL     OW65989   4.109  11.040   4.096
54717SOL    HW165990   4.169  10.998   4.034
54717SOL    HW265991   4.140  11.131   4.101
54718SOL     OW65992   3.508   4.224   6.412
54718SOL    HW165993   3.443   4.248   6.346
54718SOL    HW265994   3.511   4.299   6.471
54719SOL     OW65995   2.458  10.466  13.382
54719SOL    HW165996   2.489  10.525  13.313
54719SOL    HW265997   2.416  10.394  13.335
54720SOL     OW65998   6.469   9.379  12.054
54720SOL    HW165999   6.538   9.321  12.023
54720SOL    HW266000   6.451   9.349  12.143
54721SOL     OW66001   4.900   5.206   0.008
54721SOL    HW166002   4.907   5.112  14.865
54721SOL    HW266003   4.977   5.243  14.837
54722SOL     OW66004   3.194   3.756   5.086
54722SOL    HW166005   3.235   3.830   5.130
54722SOL    HW266006   3.100   3.776   5.090
54723SOL     OW66007   3.681   4.720  12.869
54723SOL    HW166008   3.611   4.655  12.876
54723SOL    HW266009   3.682   4.745  12.776
54724SOL     OW66010  10.799   5.484  12.617
54724SOL    HW166011  10.842   5.402  12.595
54724SOL    HW266012  10.739   5.462  12.688
54725SOL     OW66013  14.313   2.253   8.687
54725SOL    HW166014  14.325   2.316   8.758
54725SOL    HW266015  14.248   2.293   8.630
54726SOL     OW66016   7.140   5.623  11.554
54726SOL    HW166017   7.129   5.718  11.549
54726SOL    HW266018   7.219   5.610  11.606
54727SOL     OW66019   6.783   8.192   8.348
54727SOL    HW166020   6.794   8.256   8.417
54727SOL    HW266021   6.752   8.243   8.273
54728SOL     OW66022   6.502  13.366  14.088
54728SOL    HW166023   6.536  13.374  14.178
54728SOL    HW266024   6.492  13.457  14.059
54729SOL     OW66025   3.298   9.997  10.883
54729SOL    HW166026   3.351   9.965  10.956
54729SOL    HW266027   3.357   9.995  10.807
54730SOL     OW66028  12.421   2.119  12.912
54730SOL    HW166029  12.462   2.205  12.922
54730SOL    HW266030  12.459   2.083  12.832
54731SOL     OW66031  13.204   8.025   9.664
54731SOL    HW166032  13.151   8.094   9.624
54731SOL    HW266033  13.290   8.065   9.676
54732SOL     OW66034   3.878   4.450  10.940
54732SOL    HW166035   3.855   4.361  10.964
54732SOL    HW266036   3.968   4.444  10.910
54733SOL     OW66037  10.687  13.077  11.841
54733SOL    HW166038  10.602  13.074  11.886
54733SOL    HW266039  10.672  13.134  11.766
54734SOL     OW66040  11.957   1.579   7.042
54734SOL    HW166041  11.989   1.506   7.095
54734SOL    HW266042  12.029   1.599   6.983
54735SOL     OW66043   5.864   4.173  10.525
54735SOL    HW166044   5.778   4.162  10.566
54735SOL    HW266045   5.906   4.242  10.576
54736SOL     OW66046  10.861  11.085   7.076
54736SOL    HW166047  10.919  11.047   7.011
54736SOL    HW266048  10.787  11.024   7.082
54737SOL     OW66049   4.000   8.262   2.099
54737SOL    HW166050   4.084   8.284   2.060
54737SOL    HW266051   3.935   8.302   2.041
54738SOL     OW66052   0.161   0.548  12.018
54738SOL    HW166053   0.133   0.636  11.993
54738SOL    HW266054   0.241   0.533  11.969
54739SOL     OW66055  14.551   2.836  11.899
54739SOL    HW166056  14.549   2.925  11.864
54739SOL    HW266057  14.609   2.788  11.840
54740SOL     OW66058  14.176  13.807  13.186
54740SOL    HW166059  14.215  13.894  13.183
54740SOL    HW266060  14.239  13.753  13.234
54741SOL     OW66061   9.192  12.485   9.494
54741SOL    HW166062   9.254  12.415   9.475
54741SOL    HW266063   9.235  12.564   9.463
54742SOL     OW66064  13.167   6.046  11.585
54742SOL    HW166065  13.119   6.125  11.610
54742SOL    HW266066  13.131   6.023  11.499
54743SOL     OW66067  10.532   2.823   5.993
54743SOL    HW166068  10.493   2.769   5.924
54743SOL    HW266069  10.518   2.913   5.964
54744SOL     OW66070   3.434   5.009   6.082
54744SOL    HW166071   3.515   4.998   6.131
54744SOL    HW266072   3.409   5.100   6.095
54745SOL     OW66073   6.583  14.437   1.729
54745SOL    HW166074   6.598  14.489   1.808
54745SOL    HW266075   6.639  14.360   1.740
54746SOL     OW66076  14.523   8.217   5.991
54746SOL    HW166077  14.488   8.128   5.993
54746SOL    HW266078  14.578   8.220   5.913
54747SOL     OW66079   6.590   9.171  14.062
54747SOL    HW166080   6.525   9.181  14.131
54747SOL    HW266081   6.610   9.077  14.061
54748SOL     OW66082   9.344   2.131   8.668
54748SOL    HW166083   9.318   2.040   8.678
54748SOL    HW266084   9.394   2.151   8.747
54749SOL     OW66085  11.324   1.094   0.995
54749SOL    HW166086  11.248   1.130   0.949
54749SOL    HW266087  11.345   1.160   1.061
54750SOL     OW66088   5.227  10.229   3.336
54750SOL    HW166089   5.242  10.135   3.344
54750SOL    HW266090   5.315  10.267   3.329
54751SOL     OW66091  13.759  11.592   3.323
54751SOL    HW166092  13.838  11.541   3.335
54751SOL    HW266093  13.739  11.585   3.230
54752SOL     OW66094   7.303   1.878   5.635
54752SOL    HW166095   7.331   1.949   5.694
54752SOL    HW266096   7.231   1.916   5.585
54753SOL     OW66097   4.731   7.273  10.955
54753SOL    HW166098   4.756   7.362  10.977
54753SOL    HW266099   4.721   7.229  11.039
54754SOL     OW66100   3.207   0.121  10.051
54754SOL    HW166101   3.158   0.044  10.021
54754SOL    HW266102   3.217   0.176   9.973
54755SOL     OW66103  11.032  12.552  14.341
54755SOL    HW166104  10.945  12.564  14.305
54755SOL    HW266105  11.060  12.466  14.310
54756SOL     OW66106   3.281   5.184   2.835
54756SOL    HW166107   3.248   5.270   2.809
54756SOL    HW266108   3.278   5.185   2.931
54757SOL     OW66109   0.929  10.547  13.351
54757SOL    HW166110   0.861  10.495  13.395
54757SOL    HW266111   0.930  10.630  13.400
54758SOL     OW66112   0.655   3.025   9.857
54758SOL    HW166113   0.685   3.100   9.804
54758SOL    HW266114   0.602   3.065   9.926
54759SOL     OW66115   4.435   2.716  14.057
54759SOL    HW166116   4.440   2.742  13.965
54759SOL    HW266117   4.383   2.785  14.099
54760SOL     OW66118  12.094   1.453   2.464
54760SOL    HW166119  12.102   1.445   2.369
54760SOL    HW266120  12.073   1.364   2.494
54761SOL     OW66121   6.093  10.447   6.395
54761SOL    HW166122   6.022  10.444   6.459
54761SOL    HW266123   6.053  10.485   6.317
54762SOL     OW66124  12.667  12.821   5.309
54762SOL    HW166125  12.651  12.757   5.240
54762SOL    HW266126  12.699  12.769   5.383
54763SOL     OW66127  12.517  11.057   6.408
54763SOL    HW166128  12.539  11.071   6.500
54763SOL    HW266129  12.432  11.012   6.410
54764SOL     OW66130   3.516   2.163   7.077
54764SOL    HW166131   3.572   2.236   7.104
54764SOL    HW266132   3.578   2.091   7.059
54765SOL     OW66133  14.768   2.589   6.455
54765SOL    HW166134  14.718   2.657   6.501
54765SOL    HW266135  14.745   2.508   6.501
54766SOL     OW66136   9.680   4.414  14.839
54766SOL    HW166137   9.715   4.380   0.049
54766SOL    HW266138   9.703   4.507  14.840
54767SOL     OW66139   2.862   2.727  10.372
54767SOL    HW166140   2.838   2.738  10.280
54767SOL    HW266141   2.863   2.632  10.385
54768SOL     OW66142   8.660   4.391   7.015
54768SOL    HW166143   8.698   4.460   7.069
54768SOL    HW266144   8.632   4.324   7.076
54769SOL     OW66145   2.682   6.686   7.360
54769SOL    HW166146   2.725   6.747   7.300
54769SOL    HW266147   2.655   6.613   7.304
54770SOL     OW66148   1.941   3.475   9.439
54770SOL    HW166149   1.857   3.472   9.486
54770SOL    HW266150   1.933   3.552   9.383
54771SOL     OW66151   5.970   1.693   1.986
54771SOL    HW166152   6.025   1.743   2.046
54771SOL    HW266153   6.002   1.715   1.898
54772SOL     OW66154  11.445   8.224   6.047
54772SOL    HW166155  11.515   8.165   6.076
54772SOL    HW266156  11.371   8.202   6.103
54773SOL     OW66157   1.862   0.604  10.292
54773SOL    HW166158   1.905   0.587  10.375
54773SOL    HW266159   1.887   0.694  10.270
54774SOL     OW66160  14.256  13.483   8.310
54774SOL    HW166161  14.236  13.398   8.350
54774SOL    HW266162  14.300  13.532   8.379
54775SOL     OW66163  10.603   1.079   4.207
54775SOL    HW166164  10.552   1.039   4.278
54775SOL    HW266165  10.602   1.172   4.227
54776SOL     OW66166  13.656  10.682   0.913
54776SOL    HW166167  13.603  10.759   0.936
54776SOL    HW266168  13.733  10.688   0.971
54777SOL     OW66169   6.050  14.230   4.012
54777SOL    HW166170   6.010  14.177   4.081
54777SOL    HW266171   5.975  14.264   3.962
54778SOL     OW66172  13.990   4.268   7.381
54778SOL    HW166173  13.952   4.289   7.466
54778SOL    HW266174  14.083   4.285   7.391
54779SOL     OW66175   3.939   9.074  14.348
54779SOL    HW166176   4.019   9.091  14.298
54779SOL    HW266177   3.963   9.007  14.412
54780SOL     OW66178   3.721   5.106   4.452
54780SOL    HW166179   3.746   5.020   4.419
54780SOL    HW266180   3.653   5.136   4.392
54781SOL     OW66181  14.216   1.678  11.079
54781SOL    HW166182  14.177   1.765  11.065
54781SOL    HW266183  14.271   1.664  11.002
54782SOL     OW66184  13.141   0.044  14.088
54782SOL    HW166185  13.229   0.036  14.051
54782SOL    HW266186  13.088  14.854  14.039
54783SOL     OW66187   6.512  11.498   1.606
54783SOL    HW166188   6.551  11.515   1.692
54783SOL    HW266189   6.551  11.564   1.549
54784SOL     OW66190  13.115   1.820   1.293
54784SOL    HW166191  13.130   1.915   1.283
54784SOL    HW266192  13.201   1.786   1.319
54785SOL     OW66193   7.708   2.839  14.733
54785SOL    HW166194   7.747   2.913  14.781
54785SOL    HW266195   7.680   2.778  14.802
54786SOL     OW66196  14.000   0.963   4.271
54786SOL    HW166197  13.933   0.967   4.203
54786SOL    HW266198  14.012   0.869   4.288
54787SOL     OW66199   0.624  13.385   4.668
54787SOL    HW166200   0.550  13.359   4.722
54787SOL    HW266201   0.660  13.303   4.635
54788SOL     OW66202  11.062  10.695   8.377
54788SOL    HW166203  11.148  10.657   8.362
54788SOL    HW266204  11.010  10.669   8.302
54789SOL     OW66205   6.652  10.452   5.273
54789SOL    HW166206   6.746  10.445   5.257
54789SOL    HW266207   6.637  10.543   5.296
54790SOL     OW66208  10.936   5.603   3.866
54790SOL    HW166209  10.867   5.624   3.930
54790SOL    HW266210  10.982   5.686   3.853
54791SOL     OW66211   4.758  14.177   0.567
54791SOL    HW166212   4.840  14.202   0.611
54791SOL    HW266213   4.710  14.259   0.559
54792SOL     OW66214  14.577  14.195   4.764
54792SOL    HW166215  14.599  14.167   4.853
54792SOL    HW266216  14.660  14.223   4.726
54793SOL     OW66217  13.395   7.585   4.990
54793SOL    HW166218  13.411   7.517   5.055
54793SOL    HW266219  13.316   7.630   5.020
54794SOL     OW66220   0.368  12.662  11.128
54794SOL    HW166221   0.460  12.654  11.102
54794SOL    HW266222   0.371  12.706  11.213
54795SOL     OW66223   4.435   6.170  11.874
54795SOL    HW166224   4.374   6.219  11.818
54795SOL    HW266225   4.399   6.081  11.877
54796SOL     OW66226   1.195   6.631   1.790
54796SOL    HW166227   1.283   6.616   1.756
54796SOL    HW266228   1.151   6.547   1.782
54797SOL     OW66229  14.260  14.360   9.057
54797SOL    HW166230  14.227  14.400   9.138
54797SOL    HW266231  14.242  14.267   9.068
54798SOL     OW66232   0.098   7.556   5.367
54798SOL    HW166233   0.169   7.585   5.424
54798SOL    HW266234   0.140   7.498   5.303
54799SOL     OW66235  14.855   4.850   5.670
54799SOL    HW166236  14.815   4.927   5.629
54799SOL    HW266237   0.069   4.879   5.695
54800SOL     OW66238   8.062  12.318   5.825
54800SOL    HW166239   8.051  12.229   5.793
54800SOL    HW266240   7.977  12.359   5.812
54801SOL     OW66241   7.260   8.497   9.436
54801SOL    HW166242   7.354   8.480   9.438
54801SOL    HW266243   7.224   8.425   9.383
54802SOL     OW66244  11.307   2.644   0.121
54802SOL    HW166245  11.282   2.730   0.089
54802SOL    HW266246  11.398   2.633   0.092
54803SOL     OW66247   5.466   0.569   4.636
54803SOL    HW166248   5.530   0.637   4.615
54803SOL    HW266249   5.397   0.614   4.684
54804SOL     OW66250   1.331  11.538   4.082
54804SOL    HW166251   1.240  11.566   4.081
54804SOL    HW266252   1.380  11.614   4.052
54805SOL     OW66253  12.008   5.389  12.112
54805SOL    HW166254  12.067   5.437  12.170
54805SOL    HW266255  12.064   5.329  12.064
54806SOL     OW66256   4.443   5.029   9.455
54806SOL    HW166257   4.490   5.078   9.523
54806SOL    HW266258   4.449   5.085   9.377
54807SOL     OW66259   7.431  10.932   2.500
54807SOL    HW166260   7.359  10.981   2.540
54807SOL    HW266261   7.390  10.880   2.431
54808SOL     OW66262   2.435  10.833  10.259
54808SOL    HW166263   2.431  10.756  10.316
54808SOL    HW266264   2.513  10.820  10.206
54809SOL     OW66265   4.436   1.924  13.421
54809SOL    HW166266   4.504   1.979  13.460
54809SOL    HW266267   4.386   1.892  13.496
54810SOL     OW66268  13.119   2.082   0.933
54810SOL    HW166269  13.172   2.046   1.004
54810SOL    HW266270  13.146   2.174   0.928
54811SOL     OW66271   7.705  13.421  12.698
54811SOL    HW166272   7.676  13.511  12.687
54811SOL    HW266273   7.723  13.412  12.792
54812SOL     OW66274   3.372   6.649   5.831
54812SOL    HW166275   3.449   6.706   5.834
54812SOL    HW266276   3.397   6.572   5.882
54813SOL     OW66277   4.841   7.878   9.180
54813SOL    HW166278   4.821   7.842   9.266
54813SOL    HW266279   4.838   7.802   9.121
54814SOL     OW66280   1.916  14.871   9.948
54814SOL    HW166281   1.991   0.034   9.996
54814SOL    HW266282   1.843   0.004  10.009
54815SOL     OW66283  12.899   6.920  14.282
54815SOL    HW166284  12.954   6.930  14.205
54815SOL    HW266285  12.875   7.009  14.307
54816SOL     OW66286   6.734   9.218   8.949
54816SOL    HW166287   6.764   9.263   8.870
54816SOL    HW266288   6.749   9.280   9.020
54817SOL     OW66289   0.363  12.132   1.854
54817SOL    HW166290   0.404  12.167   1.775
54817SOL    HW266291   0.362  12.037   1.840
54818SOL     OW66292  12.948   9.929   2.557
54818SOL    HW166293  13.038   9.911   2.586
54818SOL    HW266294  12.902   9.846   2.567
54819SOL     OW66295   4.377   9.567  11.038
54819SOL    HW166296   4.346   9.504  10.973
54819SOL    HW266297   4.306   9.572  11.102
54820SOL     OW66298  14.472   1.419   3.908
54820SOL    HW166299  14.395   1.402   3.962
54820SOL    HW266300  14.440   1.414   3.818
54821SOL     OW66301   8.324  10.867  11.407
54821SOL    HW166302   8.239  10.874  11.450
54821SOL    HW266303   8.351  10.777  11.422
54822SOL     OW66304  13.922  14.090  14.392
54822SOL    HW166305  13.880  14.061  14.311
54822SOL    HW266306  14.006  14.126  14.364
54823SOL     OW66307   4.484   2.892  11.649
54823SOL    HW166308   4.573   2.926  11.659
54823SOL    HW266309   4.438   2.959  11.597
54824SOL     OW66310   6.338   0.456   1.915
54824SOL    HW166311   6.354   0.539   1.871
54824SOL    HW266312   6.347   0.390   1.847
54825SOL     OW66313   6.465   9.207  13.599
54825SOL    HW166314   6.501   9.140  13.657
54825SOL    HW266315   6.470   9.169  13.512
54826SOL     OW66316   4.321  12.105   6.825
54826SOL    HW166317   4.302  12.159   6.903
54826SOL    HW266318   4.267  12.143   6.756
54827SOL     OW66319  10.946   2.664  10.423
54827SOL    HW166320  10.934   2.754  10.392
54827SOL    HW266321  10.858   2.625  10.417
54828SOL     OW66322   7.433   9.858   9.770
54828SOL    HW166323   7.515   9.890   9.734
54828SOL    HW266324   7.450   9.766   9.792
54829SOL     OW66325   7.009  14.526   1.229
54829SOL    HW166326   7.067  14.482   1.291
54829SOL    HW266327   6.941  14.565   1.284
54830SOL     OW66328   4.921  13.243   7.571
54830SOL    HW166329   4.850  13.183   7.592
54830SOL    HW266330   5.000  13.190   7.580
54831SOL     OW66331   6.926  14.849   1.136
54831SOL    HW166332   6.854  14.787   1.124
54831SOL    HW266333   6.884   0.060   1.148
54832SOL     OW66334   9.542  11.481   7.856
54832SOL    HW166335   9.504  11.569   7.863
54832SOL    HW266336   9.550  11.451   7.946
54833SOL     OW66337   2.516   6.435   2.164
54833SOL    HW166338   2.598   6.464   2.202
54833SOL    HW266339   2.454   6.433   2.238
54834SOL     OW66340  11.228   5.998  14.375
54834SOL    HW166341  11.305   5.942  14.384
54834SOL    HW266342  11.198   6.012  14.465
54835SOL     OW66343  13.257  10.912  11.539
54835SOL    HW166344  13.288  10.873  11.621
54835SOL    HW266345  13.328  10.971  11.513
54836SOL     OW66346  10.635  12.508   9.918
54836SOL    HW166347  10.719  12.523   9.961
54836SOL    HW266348  10.570  12.529   9.985
54837SOL     OW66349  10.819   3.453   8.257
54837SOL    HW166350  10.742   3.474   8.204
54837SOL    HW266351  10.851   3.370   8.221
54838SOL     OW66352   8.397   4.506  13.024
54838SOL    HW166353   8.319   4.560  13.012
54838SOL    HW266354   8.460   4.542  12.961
54839SOL     OW66355   2.512  12.307   1.643
54839SOL    HW166356   2.542  12.216   1.645
54839SOL    HW266357   2.442  12.311   1.709
54840SOL     OW66358   2.855   6.139   5.562
54840SOL    HW166359   2.782   6.201   5.567
54840SOL    HW266360   2.921   6.174   5.623
54841SOL     OW66361   8.858   1.182   4.635
54841SOL    HW166362   8.918   1.177   4.709
54841SOL    HW266363   8.828   1.092   4.622
54842SOL     OW66364   6.906   8.874   3.637
54842SOL    HW166365   6.996   8.891   3.662
54842SOL    HW266366   6.900   8.778   3.632
54843SOL     OW66367   5.232   6.188  11.137
54843SOL    HW166368   5.278   6.263  11.174
54843SOL    HW266369   5.291   6.114  11.151
54844SOL     OW66370   1.398  14.811   7.688
54844SOL    HW166371   1.478  14.805   7.741
54844SOL    HW266372   1.426  14.856   7.608
54845SOL     OW66373  10.172   5.507   9.380
54845SOL    HW166374  10.098   5.529   9.436
54845SOL    HW266375  10.146   5.536   9.293
54846SOL     OW66376  12.755   1.660  10.635
54846SOL    HW166377  12.768   1.738  10.688
54846SOL    HW266378  12.795   1.589  10.687
54847SOL     OW66379   7.406  14.498   4.175
54847SOL    HW166380   7.386  14.547   4.254
54847SOL    HW266381   7.501  14.500   4.168
54848SOL     OW66382   4.480   5.495   6.772
54848SOL    HW166383   4.552   5.469   6.830
54848SOL    HW266384   4.412   5.429   6.788
54849SOL     OW66385   6.063   4.464   3.790
54849SOL    HW166386   6.121   4.445   3.717
54849SOL    HW266387   6.001   4.391   3.791
54850SOL     OW66388  12.125   5.749  14.831
54850SOL    HW166389  12.063   5.680  14.810
54850SOL    HW266390  12.179   5.712   0.029
54851SOL     OW66391  10.474   3.585   1.676
54851SOL    HW166392  10.401   3.574   1.738
54851SOL    HW266393  10.432   3.584   1.590
54852SOL     OW66394  10.290   2.064   9.027
54852SOL    HW166395  10.272   1.972   9.045
54852SOL    HW266396  10.306   2.068   8.933
54853SOL     OW66397   7.310  10.383  12.213
54853SOL    HW166398   7.247  10.320  12.177
54853SOL    HW266399   7.307  10.367  12.307
54854SOL     OW66400   6.286   5.326   1.974
54854SOL    HW166401   6.290   5.274   1.893
54854SOL    HW266402   6.198   5.310   2.008
54855SOL     OW66403   8.417   3.796   6.312
54855SOL    HW166404   8.325   3.772   6.325
54855SOL    HW266405   8.439   3.848   6.389
54856SOL     OW66406  12.544  10.531  14.007
54856SOL    HW166407  12.598  10.607  14.026
54856SOL    HW266408  12.603  10.470  13.962
54857SOL     OW66409  11.726   3.936  12.179
54857SOL    HW166410  11.778   4.003  12.225
54857SOL    HW266411  11.731   3.859  12.236
54858SOL     OW66412   5.556   2.662  13.418
54858SOL    HW166413   5.631   2.710  13.453
54858SOL    HW266414   5.566   2.668  13.323
54859SOL     OW66415  10.774  12.475  13.622
54859SOL    HW166416  10.685  12.495  13.592
54859SOL    HW266417  10.799  12.396  13.572
54860SOL     OW66418   2.644   4.295  10.555
54860SOL    HW166419   2.624   4.230  10.622
54860SOL    HW266420   2.665   4.374  10.604
54861SOL     OW66421  11.157   2.775   4.256
54861SOL    HW166422  11.177   2.728   4.175
54861SOL    HW266423  11.089   2.722   4.298
54862SOL     OW66424   2.339   9.551   9.769
54862SOL    HW166425   2.377   9.481   9.714
54862SOL    HW266426   2.249   9.524   9.782
54863SOL     OW66427   0.005   4.880   9.111
54863SOL    HW166428   0.078   4.939   9.093
54863SOL    HW266429  14.849   4.905   9.199
54864SOL     OW66430  12.345   6.715   7.267
54864SOL    HW166431  12.255   6.746   7.274
54864SOL    HW266432  12.398   6.793   7.277
54865SOL     OW66433  14.556  14.519  14.135
54865SOL    HW166434  14.630  14.527  14.194
54865SOL    HW266435  14.544  14.607  14.099
54866SOL     OW66436  14.117   7.419   0.447
54866SOL    HW166437  14.113   7.348   0.511
54866SOL    HW266438  14.050   7.481   0.474
54867SOL     OW66439  11.596   7.118  12.436
54867SOL    HW166440  11.643   7.193  12.400
54867SOL    HW266441  11.511   7.153  12.462
54868SOL     OW66442  10.189  10.667   1.471
54868SOL    HW166443  10.119  10.601   1.473
54868SOL    HW266444  10.217  10.669   1.379
54869SOL     OW66445   3.683   7.031   9.619
54869SOL    HW166446   3.732   7.113   9.626
54869SOL    HW266447   3.601   7.048   9.667
54870SOL     OW66448   6.135   6.288   2.413
54870SOL    HW166449   6.116   6.198   2.385
54870SOL    HW266450   6.214   6.280   2.466
54871SOL     OW66451   6.218   5.179   7.947
54871SOL    HW166452   6.258   5.221   7.870
54871SOL    HW266453   6.275   5.106   7.967
54872SOL     OW66454   7.161  13.718  14.202
54872SOL    HW166455   7.153  13.623  14.197
54872SOL    HW266456   7.229  13.733  14.267
54873SOL     OW66457  12.421  11.996  13.976
54873SOL    HW166458  12.481  12.070  13.967
54873SOL    HW266459  12.334  12.035  13.975
54874SOL     OW66460   3.129   8.048  12.947
54874SOL    HW166461   3.171   7.971  12.909
54874SOL    HW266462   3.154   8.045  13.040
54875SOL     OW66463  13.411   9.814  14.557
54875SOL    HW166464  13.327   9.779  14.589
54875SOL    HW266465  13.431   9.886  14.617
54876SOL     OW66466  12.042  12.568  13.288
54876SOL    HW166467  12.099  12.644  13.283
54876SOL    HW266468  11.988  12.572  13.209
54877SOL     OW66469   6.039   6.693  14.326
54877SOL    HW166470   5.959   6.736  14.294
54877SOL    HW266471   6.109   6.731  14.273
54878SOL     OW66472   1.309   8.269   2.861
54878SOL    HW166473   1.277   8.356   2.885
54878SOL    HW266474   1.262   8.246   2.781
54879SOL     OW66475   6.119   1.717  11.091
54879SOL    HW166476   6.112   1.735  10.998
54879SOL    HW266477   6.047   1.656  11.110
54880SOL     OW66478   4.586  14.746   1.960
54880SOL    HW166479   4.577  14.709   2.048
54880SOL    HW266480   4.639  14.825   1.973
54881SOL     OW66481  11.437   4.457  11.819
54881SOL    HW166482  11.484   4.539  11.826
54881SOL    HW266483  11.504   4.391  11.801
54882SOL     OW66484   3.352  12.696  12.271
54882SOL    HW166485   3.409  12.725  12.343
54882SOL    HW266486   3.410  12.687  12.196
54883SOL     OW66487   4.086  12.447   2.235
54883SOL    HW166488   4.028  12.381   2.199
54883SOL    HW266489   4.029  12.502   2.289
54884SOL     OW66490   4.276   4.728   3.648
54884SOL    HW166491   4.343   4.790   3.677
54884SOL    HW266492   4.265   4.747   3.555
54885SOL     OW66493   7.833   1.684   3.735
54885SOL    HW166494   7.766   1.616   3.733
54885SOL    HW266495   7.904   1.649   3.681
54886SOL     OW66496  10.161   5.750   4.543
54886SOL    HW166497  10.184   5.801   4.466
54886SOL    HW266498  10.245   5.719   4.578
54887SOL     OW66499   8.014  12.737  10.984
54887SOL    HW166500   8.005  12.785  10.901
54887SOL    HW266501   7.953  12.779  11.043
54888SOL     OW66502  13.503   1.930  12.780
54888SOL    HW166503  13.463   2.009  12.815
54888SOL    HW266504  13.433   1.865  12.780
54889SOL     OW66505   6.515  13.374  11.288
54889SOL    HW166506   6.502  13.437  11.359
54889SOL    HW266507   6.459  13.406  11.217
54890SOL     OW66508   3.234   5.995   9.406
54890SOL    HW166509   3.329   6.002   9.407
54890SOL    HW266510   3.215   5.940   9.330
54891SOL     OW66511   3.656   4.796   5.249
54891SOL    HW166512   3.614   4.855   5.311
54891SOL    HW266513   3.750   4.811   5.261
54892SOL     OW66514   1.272   7.186  10.807
54892SOL    HW166515   1.242   7.171  10.717
54892SOL    HW266516   1.280   7.098  10.844
54893SOL     OW66517  11.275   0.040   2.790
54893SOL    HW166518  11.250   0.101   2.859
54893SOL    HW266519  11.362   0.069   2.762
54894SOL     OW66520  10.269   1.435   9.718
54894SOL    HW166521  10.365   1.439   9.720
54894SOL    HW266522  10.249   1.404   9.630
54895SOL     OW66523   0.676   5.036   1.223
54895SOL    HW166524   0.630   5.003   1.301
54895SOL    HW266525   0.723   4.960   1.189
54896SOL     OW66526  12.432   0.130  14.112
54896SOL    HW166527  12.415   0.181  14.191
54896SOL    HW266528  12.497   0.065  14.139
54897SOL     OW66529  13.920   9.038   2.771
54897SOL    HW166530  14.007   9.076   2.776
54897SOL    HW266531  13.865   9.110   2.740
54898SOL     OW66532  14.010  11.344  11.668
54898SOL    HW166533  14.103  11.348  11.646
54898SOL    HW266534  13.972  11.420  11.624
54899SOL     OW66535   3.855  13.948   9.749
54899SOL    HW166536   3.917  13.880   9.777
54899SOL    HW266537   3.864  14.017   9.814
54900SOL     OW66538   3.768   6.887   1.421
54900SOL    HW166539   3.854   6.859   1.390
54900SOL    HW266540   3.707   6.823   1.384
54901SOL     OW66541  14.423   7.942  10.207
54901SOL    HW166542  14.349   7.912  10.154
54901SOL    HW266543  14.453   8.022  10.164
54902SOL     OW66544   1.661  11.465   7.853
54902SOL    HW166545   1.684  11.558   7.861
54902SOL    HW266546   1.571  11.466   7.819
54903SOL     OW66547  11.217   0.534   9.929
54903SOL    HW166548  11.278   0.605   9.952
54903SOL    HW266549  11.145   0.543   9.991
54904SOL     OW66550  14.801   8.474   5.759
54904SOL    HW166551  14.744   8.505   5.830
54904SOL    HW266552  14.755   8.398   5.723
54905SOL     OW66553  13.825   1.197   0.997
54905SOL    HW166554  13.860   1.121   0.951
54905SOL    HW266555  13.902   1.243   1.030
54906SOL     OW66556   1.667   1.076   6.432
54906SOL    HW166557   1.591   1.130   6.453
54906SOL    HW266558   1.685   1.027   6.513
54907SOL     OW66559   9.946  12.460   7.753
54907SOL    HW166560   9.962  12.441   7.660
54907SOL    HW266561   9.968  12.553   7.762
54908SOL     OW66562  14.223   1.935  14.488
54908SOL    HW166563  14.156   1.876  14.522
54908SOL    HW266564  14.294   1.930  14.553
54909SOL     OW66565   1.101   6.578   0.380
54909SOL    HW166566   1.108   6.628   0.462
54909SOL    HW266567   1.146   6.496   0.398
54910SOL     OW66568   3.151   1.903   2.079
54910SOL    HW166569   3.207   1.863   2.146
54910SOL    HW266570   3.063   1.900   2.117
54911SOL     OW66571   3.173   9.490   7.489
54911SOL    HW166572   3.116   9.441   7.549
54911SOL    HW266573   3.179   9.435   7.411
54912SOL     OW66574  14.544   7.293   8.881
54912SOL    HW166575  14.619   7.242   8.909
54912SOL    HW266576  14.533   7.272   8.788
54913SOL     OW66577   9.077   8.405   0.490
54913SOL    HW166578   9.138   8.337   0.521
54913SOL    HW266579   9.004   8.356   0.453
54914SOL     OW66580   7.645   3.409   1.476
54914SOL    HW166581   7.557   3.446   1.470
54914SOL    HW266582   7.694   3.453   1.406
54915SOL     OW66583  12.149  14.751   5.767
54915SOL    HW166584  12.075  14.756   5.706
54915SOL    HW266585  12.206  14.823   5.742
54916SOL     OW66586   5.757   8.473   7.802
54916SOL    HW166587   5.821   8.411   7.768
54916SOL    HW266588   5.804   8.521   7.870
54917SOL     OW66589  12.759  13.040   5.063
54917SOL    HW166590  12.761  12.947   5.083
54917SOL    HW266591  12.802  13.047   4.977
54918SOL     OW66592   6.123  10.887  10.993
54918SOL    HW166593   6.134  10.846  11.078
54918SOL    HW266594   6.167  10.829  10.931
54919SOL     OW66595  12.909  13.335   3.768
54919SOL    HW166596  12.967  13.373   3.702
54919SOL    HW266597  12.823  13.371   3.748
54920SOL     OW66598  12.140  11.127   3.462
54920SOL    HW166599  12.200  11.137   3.388
54920SOL    HW266600  12.155  11.206   3.515
54921SOL     OW66601   6.624   4.320   3.486
54921SOL    HW166602   6.655   4.391   3.430
54921SOL    HW266603   6.701   4.296   3.538
54922SOL     OW66604   2.921   7.032   8.475
54922SOL    HW166605   2.996   7.085   8.501
54922SOL    HW266606   2.893   6.988   8.555
54923SOL     OW66607  13.620   9.811   3.560
54923SOL    HW166608  13.592   9.856   3.480
54923SOL    HW266609  13.586   9.722   3.550
54924SOL     OW66610   9.259   0.599   2.167
54924SOL    HW166611   9.323   0.558   2.108
54924SOL    HW266612   9.174   0.579   2.129
54925SOL     OW66613   1.461  10.086   3.073
54925SOL    HW166614   1.517  10.011   3.093
54925SOL    HW266615   1.522  10.155   3.047
54926SOL     OW66616   4.070   0.334   0.734
54926SOL    HW166617   4.087   0.250   0.775
54926SOL    HW266618   4.135   0.393   0.772
54927SOL     OW66619   2.875  11.120  11.660
54927SOL    HW166620   2.961  11.093  11.629
54927SOL    HW266621   2.881  11.215  11.668
54928SOL     OW66622  11.342   3.763   0.554
54928SOL    HW166623  11.269   3.730   0.503
54928SOL    HW266624  11.364   3.847   0.514
54929SOL     OW66625   0.315   4.903   2.074
54929SOL    HW166626   0.273   4.962   2.137
54929SOL    HW266627   0.352   4.833   2.128
54930SOL     OW66628   6.331   6.487   3.105
54930SOL    HW166629   6.245   6.473   3.146
54930SOL    HW266630   6.324   6.444   3.020
54931SOL     OW66631  10.507   8.252   3.946
54931SOL    HW166632  10.542   8.314   4.010
54931SOL    HW266633  10.581   8.195   3.924
54932SOL     OW66634   5.677  12.778   3.305
54932SOL    HW166635   5.602  12.816   3.350
54932SOL    HW266636   5.640  12.739   3.226
54933SOL     OW66637   7.724  10.064   0.938
54933SOL    HW166638   7.818  10.074   0.953
54933SOL    HW266639   7.717  10.034   0.848
54934SOL     OW66640   7.823  10.339  12.569
54934SOL    HW166641   7.780  10.372  12.490
54934SOL    HW266642   7.917  10.351  12.551
54935SOL     OW66643   5.337   7.680  10.517
54935SOL    HW166644   5.394   7.748  10.479
54935SOL    HW266645   5.378   7.598  10.491
54936SOL     OW66646   1.281   4.200   3.226
54936SOL    HW166647   1.203   4.146   3.212
54936SOL    HW266648   1.313   4.173   3.312
54937SOL     OW66649  14.518   1.258   8.517
54937SOL    HW166650  14.612   1.265   8.504
54937SOL    HW266651  14.508   1.202   8.594
54938SOL     OW66652   4.235   4.234   1.025
54938SOL    HW166653   4.191   4.149   1.028
54938SOL    HW266654   4.251   4.249   0.932
54939SOL     OW66655   7.284   6.168   3.004
54939SOL    HW166656   7.227   6.243   2.987
54939SOL    HW266657   7.248   6.127   3.083
54940SOL     OW66658   1.504   5.384   5.553
54940SOL    HW166659   1.585   5.353   5.595
54940SOL    HW266660   1.504   5.342   5.467
54941SOL     OW66661   1.843  13.796  11.139
54941SOL    HW166662   1.838  13.730  11.070
54941SOL    HW266663   1.831  13.746  11.220
54942SOL     OW66664   9.602   7.974   3.888
54942SOL    HW166665   9.527   7.958   3.944
54942SOL    HW266666   9.663   7.903   3.907
54943SOL     OW66667   9.851  10.943   0.725
54943SOL    HW166668   9.830  10.882   0.797
54943SOL    HW266669   9.766  10.977   0.697
54944SOL     OW66670   4.391   0.189  14.834
54944SOL    HW166671   4.345   0.236  14.765
54944SOL    HW266672   4.445   0.255   0.003
54945SOL     OW66673   7.342   9.592  10.944
54945SOL    HW166674   7.404   9.665  10.938
54945SOL    HW266675   7.326   9.568  10.852
54946SOL     OW66676   3.325   2.104   5.495
54946SOL    HW166677   3.267   2.057   5.435
54946SOL    HW266678   3.315   2.196   5.470
54947SOL     OW66679  11.699   0.060   5.405
54947SOL    HW166680  11.755   0.019   5.339
54947SOL    HW266681  11.618   0.079   5.358
54948SOL     OW66682   7.391  12.452   3.262
54948SOL    HW166683   7.383  12.421   3.352
54948SOL    HW266684   7.450  12.389   3.220
54949SOL     OW66685   2.676  13.218   6.645
54949SOL    HW166686   2.724  13.138   6.624
54949SOL    HW266687   2.641  13.203   6.733
54950SOL     OW66688  10.247   5.430   6.736
54950SOL    HW166689  10.153   5.413   6.741
54950SOL    HW266690  10.277   5.430   6.827
54951SOL     OW66691  11.258   1.187   0.524
54951SOL    HW166692  11.325   1.221   0.465
54951SOL    HW266693  11.191   1.149   0.467
54952SOL     OW66694  13.091   4.909   4.278
54952SOL    HW166695  13.078   4.924   4.185
54952SOL    HW266696  13.014   4.860   4.306
54953SOL     OW66697  10.200   9.590   2.944
54953SOL    HW166698  10.169   9.538   3.019
54953SOL    HW266699  10.274   9.541   2.910
54954SOL     OW66700   3.289   4.957  13.801
54954SOL    HW166701   3.327   5.028  13.854
54954SOL    HW266702   3.227   4.915  13.860
54955SOL     OW66703   7.508  12.656   3.467
54955SOL    HW166704   7.495  12.660   3.561
54955SOL    HW266705   7.491  12.565   3.444
54956SOL     OW66706  13.844   2.381   7.424
54956SOL    HW166707  13.940   2.383   7.423
54956SOL    HW266708  13.822   2.288   7.426
54957SOL     OW66709   0.861  11.754   7.084
54957SOL    HW166710   0.889  11.798   7.164
54957SOL    HW266711   0.935  11.763   7.025
54958SOL     OW66712   9.365   7.066  10.370
54958SOL    HW166713   9.313   6.986  10.373
54958SOL    HW266714   9.353   7.099  10.281
54959SOL     OW66715  11.346   8.816  11.413
54959SOL    HW166716  11.392   8.732  11.422
54959SOL    HW266717  11.327   8.843  11.503
54960SOL     OW66718   7.408   6.100   6.370
54960SOL    HW166719   7.451   6.019   6.343
54960SOL    HW266720   7.363   6.076   6.451
54961SOL     OW66721  14.040  12.458   1.892
54961SOL    HW166722  14.126  12.415   1.888
54961SOL    HW266723  14.053  12.541   1.846
54962SOL     OW66724   1.801   0.938   3.577
54962SOL    HW166725   1.746   0.997   3.629
54962SOL    HW266726   1.743   0.865   3.555
54963SOL     OW66727   7.680  12.132   4.489
54963SOL    HW166728   7.589  12.159   4.496
54963SOL    HW266729   7.722  12.168   4.567
54964SOL     OW66730   8.077   0.672   1.234
54964SOL    HW166731   8.089   0.614   1.308
54964SOL    HW266732   8.056   0.757   1.273
54965SOL     OW66733   2.706   7.320   9.734
54965SOL    HW166734   2.612   7.298   9.738
54965SOL    HW266735   2.720   7.348   9.643
54966SOL     OW66736  11.673   0.605  14.532
54966SOL    HW166737  11.745   0.587  14.472
54966SOL    HW266738  11.648   0.519  14.566
54967SOL     OW66739   0.462   0.140   5.446
54967SOL    HW166740   0.471   0.058   5.494
54967SOL    HW266741   0.546   0.185   5.457
54968SOL     OW66742   4.282  12.543   4.137
54968SOL    HW166743   4.276  12.603   4.211
54968SOL    HW266744   4.205  12.486   4.146
54969SOL     OW66745   2.699   8.031  14.422
54969SOL    HW166746   2.678   8.087  14.347
54969SOL    HW266747   2.667   7.944  14.398
54970SOL     OW66748   2.316  11.991   4.462
54970SOL    HW166749   2.312  12.081   4.491
54970SOL    HW266750   2.392  11.987   4.405
54971SOL     OW66751   6.291   3.730   9.276
54971SOL    HW166752   6.319   3.753   9.364
54971SOL    HW266753   6.202   3.765   9.269
54972SOL     OW66754  11.808  14.598  11.128
54972SOL    HW166755  11.771  14.654  11.060
54972SOL    HW266756  11.764  14.514  11.116
54973SOL     OW66757  10.839  14.745  10.413
54973SOL    HW166758  10.845  14.811  10.343
54973SOL    HW266759  10.885  14.784  10.487
54974SOL     OW66760   0.544   4.488  12.725
54974SOL    HW166761   0.542   4.536  12.808
54974SOL    HW266762   0.453   4.484  12.697
54975SOL     OW66763  14.363   3.690   8.987
54975SOL    HW166764  14.314   3.689   8.904
54975SOL    HW266765  14.332   3.612   9.034
54976SOL     OW66766  11.577   5.135   0.639
54976SOL    HW166767  11.599   5.227   0.655
54976SOL    HW266768  11.549   5.102   0.724
54977SOL     OW66769  14.346   5.168   9.074
54977SOL    HW166770  14.301   5.143   8.993
54977SOL    HW266771  14.313   5.255   9.094
54978SOL     OW66772  13.145   9.518   1.646
54978SOL    HW166773  13.228   9.536   1.690
54978SOL    HW266774  13.165   9.448   1.583
54979SOL     OW66775   7.823  12.128   8.739
54979SOL    HW166776   7.856  12.151   8.653
54979SOL    HW266777   7.863  12.044   8.760
54980SOL     OW66778  12.434   2.490  12.226
54980SOL    HW166779  12.359   2.531  12.269
54980SOL    HW266780  12.403   2.465  12.139
54981SOL     OW66781  10.034   5.139  10.958
54981SOL    HW166782  10.052   5.208  11.021
54981SOL    HW266783   9.948   5.161  10.921
54982SOL     OW66784   2.033  14.294  11.460
54982SOL    HW166785   2.120  14.320  11.429
54982SOL    HW266786   2.048  14.261  11.549
54983SOL     OW66787   6.853   1.729   0.490
54983SOL    HW166788   6.829   1.710   0.581
54983SOL    HW266789   6.910   1.656   0.465
54984SOL     OW66790   3.030   9.664  12.548
54984SOL    HW166791   3.008   9.598  12.482
54984SOL    HW266792   3.117   9.694  12.525
54985SOL     OW66793   6.971   6.593  13.253
54985SOL    HW166794   6.962   6.499  13.236
54985SOL    HW266795   7.061   6.603  13.285
54986SOL     OW66796   7.665  10.940   2.367
54986SOL    HW166797   7.663  10.853   2.325
54986SOL    HW266798   7.581  10.946   2.412
54987SOL     OW66799  13.032   2.643   7.972
54987SOL    HW166800  13.004   2.635   7.881
54987SOL    HW266801  13.123   2.669   7.967
54988SOL     OW66802   4.203  10.869  10.907
54988SOL    HW166803   4.117  10.827  10.905
54988SOL    HW266804   4.191  10.946  10.962
54989SOL     OW66805   1.850  10.077  12.731
54989SOL    HW166806   1.769  10.087  12.681
54989SOL    HW266807   1.830  10.113  12.817
54990SOL     OW66808   5.847   5.001   4.667
54990SOL    HW166809   5.797   5.002   4.749
54990SOL    HW266810   5.938   5.009   4.693
54991SOL     OW66811   8.930   0.783   9.888
54991SOL    HW166812   8.923   0.844   9.962
54991SOL    HW266813   8.918   0.697   9.927
54992SOL     OW66814   4.046  13.733   4.496
54992SOL    HW166815   3.983  13.772   4.558
54992SOL    HW266816   4.099  13.674   4.550
54993SOL     OW66817   2.737   4.146   3.144
54993SOL    HW166818   2.797   4.116   3.212
54993SOL    HW266819   2.731   4.073   3.083
54994SOL     OW66820   4.705  11.223   7.155
54994SOL    HW166821   4.710  11.313   7.124
54994SOL    HW266822   4.754  11.223   7.238
54995SOL     OW66823   5.369   6.422   1.290
54995SOL    HW166824   5.352   6.453   1.379
54995SOL    HW266825   5.284   6.423   1.247
54996SOL     OW66826   9.728   7.947  11.492
54996SOL    HW166827   9.692   8.009  11.428
54996SOL    HW266828   9.652   7.899  11.525
54997SOL     OW66829   3.905   9.530   8.955
54997SOL    HW166830   3.877   9.617   8.984
54997SOL    HW266831   3.941   9.545   8.867
54998SOL     OW66832   2.365  11.233  10.568
54998SOL    HW166833   2.292  11.237  10.630
54998SOL    HW266834   2.372  11.140  10.546
54999SOL     OW66835   9.642  14.290  12.631
54999SOL    HW166836   9.555  14.273  12.667
54999SOL    HW266837   9.658  14.217  12.571
55000SOL     OW66838   9.923   1.254  12.246
55000SOL    HW166839   9.872   1.274  12.324
55000SOL    HW266840  10.008   1.226  12.280
55001SOL     OW66841   2.919   9.886   5.988
55001SOL    HW166842   2.858   9.939   6.040
55001SOL    HW266843   2.981   9.852   6.052
55002SOL     OW66844   0.672  12.662   1.525
55002SOL    HW166845   0.603  12.706   1.477
55002SOL    HW266846   0.747  12.660   1.465
55003SOL     OW66847   2.765  11.892   8.614
55003SOL    HW166848   2.741  11.830   8.544
55003SOL    HW266849   2.858  11.908   8.600
55004SOL     OW66850  11.954   8.854   7.574
55004SOL    HW166851  11.911   8.916   7.514
55004SOL    HW266852  12.041   8.891   7.588
55005SOL     OW66853   3.004   2.420   4.833
55005SOL    HW166854   3.036   2.386   4.917
55005SOL    HW266855   2.922   2.463   4.855
55006SOL     OW66856   6.392  14.683  13.717
55006SOL    HW166857   6.357  14.757  13.667
55006SOL    HW266858   6.471  14.657  13.670
55007SOL     OW66859   4.410   3.450  12.699
55007SOL    HW166860   4.320   3.477  12.718
55007SOL    HW266861   4.443   3.519  12.641
55008SOL     OW66862   2.292  12.984  12.825
55008SOL    HW166863   2.348  12.937  12.762
55008SOL    HW266864   2.346  12.991  12.903
55009SOL     OW66865  13.688  14.581   0.196
55009SOL    HW166866  13.623  14.554   0.132
55009SOL    HW266867  13.649  14.561   0.281
55010SOL     OW66868  13.421   7.239   6.021
55010SOL    HW166869  13.366   7.317   6.017
55010SOL    HW266870  13.374   7.173   5.970
55011SOL     OW66871  11.406   9.550   2.139
55011SOL    HW166872  11.457   9.473   2.113
55011SOL    HW266873  11.443   9.576   2.223
55012SOL     OW66874   7.787   2.238  14.597
55012SOL    HW166875   7.737   2.160  14.575
55012SOL    HW266876   7.862   2.205  14.648
55013SOL     OW66877   2.446   2.562   3.812
55013SOL    HW166878   2.450   2.624   3.885
55013SOL    HW266879   2.359   2.523   3.820
55014SOL     OW66880  14.206  13.290   2.308
55014SOL    HW166881  14.130  13.345   2.327
55014SOL    HW266882  14.176  13.230   2.239
55015SOL     OW66883   0.706   7.586   9.216
55015SOL    HW166884   0.722   7.655   9.150
55015SOL    HW266885   0.624   7.613   9.259
55016SOL     OW66886  11.516   9.145  12.808
55016SOL    HW166887  11.461   9.201  12.753
55016SOL    HW266888  11.469   9.062  12.814
55017SOL     OW66889   0.529   5.144   3.587
55017SOL    HW166890   0.522   5.098   3.670
55017SOL    HW266891   0.443   5.133   3.546
55018SOL     OW66892   6.966  14.212   2.174
55018SOL    HW166893   7.019  14.156   2.118
55018SOL    HW266894   6.944  14.287   2.119
55019SOL     OW66895   3.409   8.668   7.681
55019SOL    HW166896   3.426   8.631   7.767
55019SOL    HW266897   3.327   8.626   7.653
55020SOL     OW66898  13.729  12.060   9.893
55020SOL    HW166899  13.825  12.064   9.898
55020SOL    HW266900  13.709  12.094   9.805
55021SOL     OW66901  12.065   5.234   4.643
55021SOL    HW166902  11.998   5.172   4.672
55021SOL    HW266903  12.132   5.230   4.710
55022SOL     OW66904   4.361   1.888   9.831
55022SOL    HW166905   4.325   1.919   9.748
55022SOL    HW266906   4.320   1.803   9.845
55023SOL     OW66907   4.052   9.836  14.210
55023SOL    HW166908   3.977   9.863  14.157
55023SOL    HW266909   4.104   9.780  14.152
55024SOL     OW66910   1.977   6.569   0.091
55024SOL    HW166911   1.894   6.573   0.139
55024SOL    HW266912   1.976   6.647   0.035
55025SOL     OW66913   1.160  13.487   2.954
55025SOL    HW166914   1.078  13.453   2.989
55025SOL    HW266915   1.151  13.582   2.959
55026SOL     OW66916   5.034   5.436   7.345
55026SOL    HW166917   5.002   5.346   7.343
55026SOL    HW266918   5.073   5.445   7.432
55027SOL     OW66919  14.790   2.420   6.968
55027SOL    HW166920  14.761   2.510   6.982
55027SOL    HW266921   0.005   2.429   6.931
55028SOL     OW66922   6.141  11.389  10.672
55028SOL    HW166923   6.055  11.423  10.697
55028SOL    HW266924   6.143  11.301  10.710
55029SOL     OW66925  10.321   9.938   9.997
55029SOL    HW166926  10.276   9.908  10.076
55029SOL    HW266927  10.371  10.015  10.025
55030SOL     OW66928   0.244   5.566  12.300
55030SOL    HW166929   0.166   5.622  12.301
55030SOL    HW266930   0.306   5.612  12.243
55031SOL     OW66931   2.375   0.282  12.864
55031SOL    HW166932   2.321   0.206  12.843
55031SOL    HW266933   2.423   0.257  12.943
55032SOL     OW66934   7.188  11.060  13.939
55032SOL    HW166935   7.121  11.083  13.874
55032SOL    HW266936   7.271  11.085  13.898
55033SOL     OW66937   5.394  10.391   7.207
55033SOL    HW166938   5.442  10.364   7.129
55033SOL    HW266939   5.320  10.330   7.212
55034SOL     OW66940  14.571  14.161   0.079
55034SOL    HW166941  14.590  14.148  14.859
55034SOL    HW266942  14.651  14.199   0.115
55035SOL     OW66943  11.058   5.464   7.449
55035SOL    HW166944  11.017   5.388   7.490
55035SOL    HW266945  11.025   5.539   7.499
55036SOL     OW66946   2.292   0.014  13.915
55036SOL    HW166947   2.272   0.100  13.952
55036SOL    HW266948   2.252   0.015  13.828
55037SOL     OW66949  11.724   2.234   9.544
55037SOL    HW166950  11.744   2.211   9.634
55037SOL    HW266951  11.754   2.159   9.492
55038SOL     OW66952   7.594   0.522  10.523
55038SOL    HW166953   7.607   0.539  10.430
55038SOL    HW266954   7.593   0.608  10.564
55039SOL     OW66955   2.312  14.068   4.816
55039SOL    HW166956   2.371  13.995   4.836
55039SOL    HW266957   2.301  14.115   4.898
55040SOL     OW66958   1.606  12.904   2.281
55040SOL    HW166959   1.598  12.817   2.321
55040SOL    HW266960   1.568  12.963   2.346
55041SOL     OW66961   8.420  14.262  10.522
55041SOL    HW166962   8.332  14.228  10.509
55041SOL    HW266963   8.417  14.351  10.487
55042SOL     OW66964  12.113   8.929   4.619
55042SOL    HW166965  12.050   8.923   4.691
55042SOL    HW266966  12.090   8.856   4.561
55043SOL     OW66967   6.252  14.373   4.138
55043SOL    HW166968   6.329  14.319   4.120
55043SOL    HW266969   6.179  14.320   4.109
55044SOL     OW66970   3.924   8.452  11.533
55044SOL    HW166971   3.946   8.414  11.618
55044SOL    HW266972   3.917   8.546  11.551
55045SOL     OW66973  13.902   9.700  14.628
55045SOL    HW166974  13.857   9.618  14.650
55045SOL    HW266975  13.849   9.737  14.557
55046SOL     OW66976  14.255   9.712  14.070
55046SOL    HW166977  14.289   9.657  14.140
55046SOL    HW266978  14.292   9.799  14.087
55047SOL     OW66979   7.736   9.449  10.804
55047SOL    HW166980   7.769   9.538  10.797
55047SOL    HW266981   7.677   9.439  10.729
55048SOL     OW66982   3.691   0.497  11.088
55048SOL    HW166983   3.640   0.537  11.018
55048SOL    HW266984   3.635   0.427  11.121
55049SOL     OW66985  10.941  12.266   1.420
55049SOL    HW166986  10.905  12.281   1.332
55049SOL    HW266987  10.968  12.353   1.450
55050SOL     OW66988  12.635  11.197   3.204
55050SOL    HW166989  12.548  11.160   3.187
55050SOL    HW266990  12.624  11.291   3.188
55051SOL     OW66991   0.585   7.871   7.061
55051SOL    HW166992   0.671   7.831   7.065
55051SOL    HW266993   0.595   7.954   7.108
55052SOL     OW66994   1.930   0.604   1.114
55052SOL    HW166995   1.845   0.562   1.104
55052SOL    HW266996   1.985   0.563   1.047
55053SOL     OW66997  12.757  11.460   4.919
55053SOL    HW166998  12.782  11.529   4.858
55053SOL    HW266999  12.741  11.506   5.002
55054SOL     OW67000   7.206  13.248   2.889
55054SOL    HW167001   7.274  13.296   2.843
55054SOL    HW267002   7.153  13.316   2.931
55055SOL     OW67003  12.609   2.264   7.279
55055SOL    HW167004  12.563   2.241   7.359
55055SOL    HW267005  12.609   2.360   7.277
55056SOL     OW67006   2.775   2.593   3.437
55056SOL    HW167007   2.827   2.607   3.358
55056SOL    HW267008   2.799   2.505   3.467
55057SOL     OW67009   7.262  11.434   9.111
55057SOL    HW167010   7.192  11.442   9.046
55057SOL    HW267011   7.216  11.426   9.195
55058SOL     OW67012  13.586  12.021   6.863
55058SOL    HW167013  13.542  11.973   6.794
55058SOL    HW267014  13.672  11.980   6.870
55059SOL     OW67015   1.689  11.015   6.901
55059SOL    HW167016   1.605  10.970   6.893
55059SOL    HW267017   1.727  10.981   6.981
55060SOL     OW67018   8.375   7.102   6.296
55060SOL    HW167019   8.297   7.054   6.267
55060SOL    HW267020   8.361   7.116   6.389
55061SOL     OW67021   2.232  10.360  10.716
55061SOL    HW167022   2.194  10.445  10.692
55061SOL    HW267023   2.272  10.328  10.634
55062SOL     OW67024  13.173  13.381   2.887
55062SOL    HW167025  13.201  13.337   2.968
55062SOL    HW267026  13.213  13.328   2.818
55063SOL     OW67027   3.558  13.331   3.533
55063SOL    HW167028   3.516  13.320   3.619
55063SOL    HW267029   3.638  13.279   3.539
55064SOL     OW67030  13.090   1.321  11.920
55064SOL    HW167031  13.029   1.392  11.941
55064SOL    HW267032  13.061   1.290  11.834
55065SOL     OW67033  12.423   5.955  14.495
55065SOL    HW167034  12.384   5.950  14.408
55065SOL    HW267035  12.447   6.047  14.505
55066SOL     OW67036  14.265  10.121   4.781
55066SOL    HW167037  14.262  10.139   4.875
55066SOL    HW267038  14.278  10.207   4.740
55067SOL     OW67039   3.103   3.951  10.595
55067SOL    HW167040   3.020   3.960  10.643
55067SOL    HW267041   3.171   3.966  10.661
55068SOL     OW67042   8.305  14.516   5.652
55068SOL    HW167043   8.332  14.508   5.560
55068SOL    HW267044   8.378  14.477   5.701
55069SOL     OW67045   4.198   5.076   8.705
55069SOL    HW167046   4.247   5.085   8.624
55069SOL    HW267047   4.160   4.988   8.700
55070SOL     OW67048   3.808  13.663   5.909
55070SOL    HW167049   3.861  13.743   5.907
55070SOL    HW267050   3.873  13.592   5.913
55071SOL     OW67051  12.580   6.262   6.541
55071SOL    HW167052  12.491   6.238   6.514
55071SOL    HW267053  12.586   6.356   6.524
55072SOL     OW67054  10.270   4.667   7.566
55072SOL    HW167055  10.187   4.621   7.579
55072SOL    HW267056  10.245   4.758   7.548
55073SOL     OW67057   9.595  11.540   0.681
55073SOL    HW167058   9.542  11.468   0.716
55073SOL    HW267059   9.538  11.584   0.619
55074SOL     OW67060   5.788  10.172  11.853
55074SOL    HW167061   5.759  10.211  11.935
55074SOL    HW267062   5.839  10.241  11.811
55075SOL     OW67063  12.669   6.842   2.501
55075SOL    HW167064  12.725   6.884   2.566
55075SOL    HW267065  12.685   6.890   2.420
55076SOL     OW67066   8.072   6.968  10.914
55076SOL    HW167067   8.031   6.942  10.996
55076SOL    HW267068   8.001   7.007  10.863
55077SOL     OW67069   2.683   1.568   2.701
55077SOL    HW167070   2.728   1.525   2.773
55077SOL    HW267071   2.594   1.532   2.704
55078SOL     OW67072   7.900   6.214   4.623
55078SOL    HW167073   7.832   6.156   4.587
55078SOL    HW267074   7.881   6.299   4.585
55079SOL     OW67075  11.351   6.808  11.228
55079SOL    HW167076  11.370   6.796  11.321
55079SOL    HW267077  11.414   6.875  11.200
55080SOL     OW67078   2.328   4.759   3.461
55080SOL    HW167079   2.380   4.785   3.537
55080SOL    HW267080   2.385   4.701   3.411
55081SOL     OW67081  10.478  14.242   3.023
55081SOL    HW167082  10.478  14.328   2.981
55081SOL    HW267083  10.395  14.201   2.996
55082SOL     OW67084   2.634   7.808   2.067
55082SOL    HW167085   2.719   7.773   2.040
55082SOL    HW267086   2.631   7.895   2.027
55083SOL     OW67087   6.771  13.692  10.224
55083SOL    HW167088   6.680  13.666  10.236
55083SOL    HW267089   6.822  13.622  10.264
55084SOL     OW67090   2.089  14.149  13.845
55084SOL    HW167091   2.107  14.243  13.857
55084SOL    HW267092   2.139  14.125  13.767
55085SOL     OW67093  11.184   5.476  11.596
55085SOL    HW167094  11.093   5.444  11.596
55085SOL    HW267095  11.192   5.526  11.515
55086SOL     OW67096  14.552  13.271   9.609
55086SOL    HW167097  14.592  13.355   9.589
55086SOL    HW267098  14.610  13.232   9.675
55087SOL     OW67099   9.450   6.009  11.140
55087SOL    HW167100   9.503   5.929  11.151
55087SOL    HW267101   9.513   6.075  11.110
55088SOL     OW67102   6.569  13.510   2.831
55088SOL    HW167103   6.502  13.495   2.897
55088SOL    HW267104   6.628  13.575   2.871
55089SOL     OW67105   9.885  13.926   8.391
55089SOL    HW167106   9.954  13.861   8.386
55089SOL    HW267107   9.840  13.921   8.307
55090SOL     OW67108   9.168  10.207   3.939
55090SOL    HW167109   9.113  10.285   3.939
55090SOL    HW267110   9.110  10.136   3.913
55091SOL     OW67111   0.660   4.250   5.276
55091SOL    HW167112   0.741   4.202   5.296
55091SOL    HW267113   0.684   4.308   5.204
55092SOL     OW67114   6.294  14.277   6.302
55092SOL    HW167115   6.246  14.305   6.224
55092SOL    HW267116   6.237  14.212   6.344
55093SOL     OW67117   8.699   1.305   7.138
55093SOL    HW167118   8.681   1.383   7.086
55093SOL    HW267119   8.757   1.252   7.083
55094SOL     OW67120   9.890   7.042   9.503
55094SOL    HW167121   9.887   7.063   9.597
55094SOL    HW267122   9.983   7.038   9.483
55095SOL     OW67123   4.223   7.631   1.227
55095SOL    HW167124   4.152   7.696   1.227
55095SOL    HW267125   4.244   7.619   1.319
55096SOL     OW67126   3.846   6.491   7.916
55096SOL    HW167127   3.758   6.520   7.942
55096SOL    HW267128   3.870   6.550   7.845
55097SOL     OW67129   2.138   1.849   4.371
55097SOL    HW167130   2.114   1.839   4.279
55097SOL    HW267131   2.144   1.944   4.384
55098SOL     OW67132   6.627   5.188   7.349
55098SOL    HW167133   6.624   5.271   7.301
55098SOL    HW267134   6.632   5.121   7.281
55099SOL     OW67135   7.436   5.697  13.345
55099SOL    HW167136   7.489   5.620  13.324
55099SOL    HW267137   7.467   5.725  13.431
55100SOL     OW67138   6.291  12.567  14.100
55100SOL    HW167139   6.376  12.547  14.060
55100SOL    HW267140   6.311  12.579  14.193
55101SOL     OW67141   8.068  13.179   9.388
55101SOL    HW167142   8.037  13.258   9.432
55101SOL    HW267143   7.990  13.140   9.350
55102SOL     OW67144  12.429  12.817   3.656
55102SOL    HW167145  12.443  12.910   3.642
55102SOL    HW267146  12.351  12.812   3.710
55103SOL     OW67147  11.926   6.588   5.411
55103SOL    HW167148  11.878   6.609   5.331
55103SOL    HW267149  11.959   6.499   5.397
55104SOL     OW67150  13.087   7.101  10.712
55104SOL    HW167151  13.095   7.050  10.792
55104SOL    HW267152  13.146   7.058  10.650
55105SOL     OW67153   7.585   7.216   8.891
55105SOL    HW167154   7.645   7.215   8.816
55105SOL    HW267155   7.510   7.164   8.861
55106SOL     OW67156  10.294   6.527   5.266
55106SOL    HW167157  10.333   6.445   5.296
55106SOL    HW267158  10.206   6.503   5.236
55107SOL     OW67159   3.558   3.022   0.869
55107SOL    HW167160   3.496   3.076   0.917
55107SOL    HW267161   3.517   3.008   0.784
55108SOL     OW67162   7.571  12.399   5.912
55108SOL    HW167163   7.635  12.386   5.842
55108SOL    HW267164   7.615  12.459   5.973
55109SOL     OW67165  14.798   5.962   8.006
55109SOL    HW167166  14.760   6.049   8.015
55109SOL    HW267167  14.815   5.953   7.912
55110SOL     OW67168  12.592  14.357   4.219
55110SOL    HW167169  12.682  14.388   4.209
55110SOL    HW267170  12.553  14.419   4.281
55111SOL     OW67171   3.738   5.741  10.135
55111SOL    HW167172   3.678   5.813  10.117
55111SOL    HW267173   3.751   5.699  10.050
55112SOL     OW67174  14.593  12.019   1.905
55112SOL    HW167175  14.580  11.995   1.997
55112SOL    HW267176  14.678  12.065   1.904
55113SOL     OW67177   8.005  14.852   2.650
55113SOL    HW167178   7.997  14.805   2.733
55113SOL    HW267179   8.088  14.822   2.613
55114SOL     OW67180   3.152   8.288  12.790
55114SOL    HW167181   3.168   8.204  12.834
55114SOL    HW267182   3.110   8.263  12.707
55115SOL     OW67183   6.196   8.283  10.543
55115SOL    HW167184   6.233   8.197  10.562
55115SOL    HW267185   6.254   8.320  10.477
55116SOL     OW67186   5.871  10.098   0.407
55116SOL    HW167187   5.880  10.023   0.466
55116SOL    HW267188   5.957  10.107   0.366
55117SOL     OW67189  11.616  11.545  13.069
55117SOL    HW167190  11.585  11.566  12.981
55117SOL    HW267191  11.623  11.449  13.069
55118SOL     OW67192   0.803   3.037   8.242
55118SOL    HW167193   0.715   3.074   8.237
55118SOL    HW267194   0.821   3.033   8.336
55119SOL     OW67195  13.827   1.929   1.348
55119SOL    HW167196  13.874   1.935   1.264
55119SOL    HW267197  13.772   1.851   1.339
55120SOL     OW67198   2.414   1.600   3.652
55120SOL    HW167199   2.433   1.598   3.558
55120SOL    HW267200   2.470   1.532   3.690
55121SOL     OW67201   9.776   5.220   0.003
55121SOL    HW167202   9.694   5.201  14.831
55121SOL    HW267203   9.837   5.245  14.807
55122SOL     OW67204  13.186   1.595   8.099
55122SOL    HW167205  13.132   1.674   8.096
55122SOL    HW267206  13.244   1.608   8.174
55123SOL     OW67207   5.929   3.231   9.173
55123SOL    HW167208   6.001   3.167   9.177
55123SOL    HW267209   5.973   3.314   9.154
55124SOL     OW67210   9.244   7.967   8.037
55124SOL    HW167211   9.277   7.995   7.951
55124SOL    HW267212   9.321   7.938   8.084
55125SOL     OW67213   2.515   0.535   3.069
55125SOL    HW167214   2.592   0.590   3.090
55125SOL    HW267215   2.509   0.538   2.974
55126SOL     OW67216   6.345   7.680   2.596
55126SOL    HW167217   6.366   7.609   2.656
55126SOL    HW267218   6.392   7.756   2.631
55127SOL     OW67219  12.213  11.992   0.077
55127SOL    HW167220  12.195  12.071   0.128
55127SOL    HW267221  12.251  11.931   0.139
55128SOL     OW67222   2.237  14.195   5.047
55128SOL    HW167223   2.268  14.224   5.133
55128SOL    HW267224   2.147  14.227   5.042
55129SOL     OW67225  11.625   1.524  12.609
55129SOL    HW167226  11.665   1.517  12.696
55129SOL    HW267227  11.532   1.540  12.627
55130SOL     OW67228   6.080  11.764   3.429
55130SOL    HW167229   6.045  11.832   3.370
55130SOL    HW267230   6.071  11.683   3.378
55131SOL     OW67231   5.539   7.374   8.498
55131SOL    HW167232   5.587   7.439   8.548
55131SOL    HW267233   5.482   7.332   8.563
55132SOL     OW67234   7.351   1.015  11.858
55132SOL    HW167235   7.278   1.072  11.884
55132SOL    HW267236   7.338   1.000  11.765
55133SOL     OW67237   6.792   6.630  13.664
55133SOL    HW167238   6.797   6.656  13.572
55133SOL    HW267239   6.700   6.606  13.677
55134SOL     OW67240   9.137   1.742   8.638
55134SOL    HW167241   9.186   1.819   8.610
55134SOL    HW267242   9.172   1.671   8.584
55135SOL     OW67243   7.203  10.515   5.905
55135SOL    HW167244   7.209  10.422   5.883
55135SOL    HW267245   7.110  10.531   5.918
55136SOL     OW67246  11.390   0.478  12.885
55136SOL    HW167247  11.470   0.529  12.882
55136SOL    HW267248  11.380   0.453  12.977
55137SOL     OW67249  13.962   1.576   3.279
55137SOL    HW167250  14.014   1.654   3.256
55137SOL    HW267251  13.901   1.567   3.206
55138SOL     OW67252   5.977   7.401   9.901
55138SOL    HW167253   6.035   7.406   9.977
55138SOL    HW267254   5.959   7.492   9.879
55139SOL     OW67255  11.922   1.343  10.533
55139SOL    HW167256  11.851   1.360  10.471
55139SOL    HW267257  11.888   1.274  10.590
55140SOL     OW67258   6.425   2.869  13.253
55140SOL    HW167259   6.502   2.925  13.261
55140SOL    HW267260   6.382   2.899  13.173
55141SOL     OW67261   3.569  13.541   7.533
55141SOL    HW167262   3.635  13.591   7.582
55141SOL    HW267263   3.485  13.568   7.571
55142SOL     OW67264   4.362   7.084   8.602
55142SOL    HW167265   4.362   7.019   8.532
55142SOL    HW267266   4.432   7.145   8.577
55143SOL     OW67267  11.785   1.748   7.464
55143SOL    HW167268  11.706   1.696   7.477
55143SOL    HW267269  11.800   1.745   7.369
55144SOL     OW67270  14.514  13.311   8.335
55144SOL    HW167271  14.444  13.285   8.275
55144SOL    HW267272  14.588  13.330   8.277
55145SOL     OW67273   6.620   7.944   1.232
55145SOL    HW167274   6.651   7.947   1.141
55145SOL    HW267275   6.697   7.970   1.283
55146SOL     OW67276  12.137  12.568   4.081
55146SOL    HW167277  12.084  12.639   4.115
55146SOL    HW267278  12.171  12.524   4.159
55147SOL     OW67279   9.052   8.256   3.318
55147SOL    HW167280   9.047   8.243   3.223
55147SOL    HW267281   8.961   8.263   3.347
55148SOL     OW67282   6.462  12.282  11.463
55148SOL    HW167283   6.536  12.327  11.502
55148SOL    HW267284   6.409  12.254  11.538
55149SOL     OW67285   8.871  10.978   4.042
55149SOL    HW167286   8.877  10.995   4.136
55149SOL    HW267287   8.896  10.886   4.033
55150SOL     OW67288  13.236  12.235   5.105
55150SOL    HW167289  13.204  12.158   5.058
55150SOL    HW267290  13.330  12.237   5.088
55151SOL     OW67291   7.392   9.116   4.550
55151SOL    HW167292   7.320   9.173   4.522
55151SOL    HW267293   7.445   9.171   4.607
55152SOL     OW67294  14.793  14.840  14.167
55152SOL    HW167295  14.699  14.858  14.172
55152SOL    HW267296  14.819   0.002  14.082
55153SOL     OW67297  10.596  14.161   9.343
55153SOL    HW167298  10.525  14.143   9.281
55153SOL    HW267299  10.567  14.240   9.389
55154SOL     OW67300   6.421   2.145   1.473
55154SOL    HW167301   6.403   2.226   1.521
55154SOL    HW267302   6.485   2.099   1.527
55155SOL     OW67303   1.658   1.045   4.911
55155SOL    HW167304   1.693   1.023   4.825
55155SOL    HW267305   1.690   1.134   4.927
55156SOL     OW67306   6.106  11.245  14.448
55156SOL    HW167307   6.101  11.216  14.357
55156SOL    HW267308   6.126  11.339  14.443
55157SOL     OW67309   7.242   8.099   6.511
55157SOL    HW167310   7.266   8.031   6.573
55157SOL    HW267311   7.166   8.064   6.464
55158SOL     OW67312   5.624  13.093   2.532
55158SOL    HW167313   5.555  13.061   2.590
55158SOL    HW267314   5.659  13.171   2.576
55159SOL     OW67315  12.704  12.691   7.849
55159SOL    HW167316  12.668  12.769   7.806
55159SOL    HW267317  12.649  12.619   7.820
55160SOL     OW67318   6.673  13.281  11.585
55160SOL    HW167319   6.723  13.335  11.523
55160SOL    HW267320   6.740  13.244  11.642
55161SOL     OW67321   2.171   3.960   3.746
55161SOL    HW167322   2.227   3.883   3.742
55161SOL    HW267323   2.102   3.944   3.682
55162SOL     OW67324  14.094   3.016   9.009
55162SOL    HW167325  14.070   2.977   8.925
55162SOL    HW267326  14.079   3.110   8.997
55163SOL     OW67327   7.880   9.398   5.980
55163SOL    HW167328   7.875   9.355   5.895
55163SOL    HW267329   7.970   9.381   6.010
55164SOL     OW67330  12.877   6.373  14.184
55164SOL    HW167331  12.841   6.295  14.226
55164SOL    HW267332  12.946   6.403  14.243
55165SOL     OW67333  13.433   7.770  13.922
55165SOL    HW167334  13.449   7.693  13.976
55165SOL    HW267335  13.346   7.800  13.947
55166SOL     OW67336  13.864   3.909  13.751
55166SOL    HW167337  13.801   3.934  13.684
55166SOL    HW267338  13.816   3.915  13.833
55167SOL     OW67339   3.620   1.528   1.141
55167SOL    HW167340   3.577   1.449   1.108
55167SOL    HW267341   3.592   1.598   1.083
55168SOL     OW67342  13.760   4.666   6.636
55168SOL    HW167343  13.827   4.729   6.662
55168SOL    HW267344  13.759   4.601   6.706
55169SOL     OW67345   8.676   5.242  10.344
55169SOL    HW167346   8.698   5.332  10.318
55169SOL    HW267347   8.756   5.210  10.386
55170SOL     OW67348  13.071   8.746   3.771
55170SOL    HW167349  13.063   8.656   3.741
55170SOL    HW267350  13.065   8.740   3.867
55171SOL     OW67351   4.545  10.143   7.422
55171SOL    HW167352   4.574  10.052   7.433
55171SOL    HW267353   4.539  10.154   7.327
55172SOL     OW67354   0.456  14.004   6.091
55172SOL    HW167355   0.433  13.912   6.105
55172SOL    HW267356   0.467  14.040   6.179
55173SOL     OW67357   2.454  14.856  12.724
55173SOL    HW167358   2.436  14.796  12.796
55173SOL    HW267359   2.381   0.044  12.725
55174SOL     OW67360   7.592  10.974   0.138
55174SOL    HW167361   7.592  10.883   0.107
55174SOL    HW267362   7.610  10.967   0.232
55175SOL     OW67363  10.174   0.846   8.481
55175SOL    HW167364  10.097   0.899   8.498
55175SOL    HW267365  10.180   0.786   8.555
55176SOL     OW67366  12.749   0.800   4.210
55176SOL    HW167367  12.659   0.772   4.196
55176SOL    HW267368  12.769   0.856   4.134
55177SOL     OW67369  14.104   7.812  11.304
55177SOL    HW167370  14.180   7.774  11.260
55177SOL    HW267371  14.070   7.876  11.242
55178SOL     OW67372  11.894   4.403   1.919
55178SOL    HW167373  11.893   4.448   2.004
55178SOL    HW267374  11.933   4.318   1.937
55179SOL     OW67375  14.794  13.593  14.827
55179SOL    HW167376  14.705  13.606  14.859
55179SOL    HW267377  14.850  13.626   0.024
55180SOL     OW67378  14.248   6.759   1.017
55180SOL    HW167379  14.283   6.841   1.052
55180SOL    HW267380  14.172   6.740   1.073
55181SOL     OW67381  12.742   5.848   5.660
55181SOL    HW167382  12.714   5.825   5.748
55181SOL    HW267383  12.835   5.825   5.657
55182SOL     OW67384   5.034   1.817   7.601
55182SOL    HW167385   5.021   1.849   7.691
55182SOL    HW267386   5.009   1.724   7.605
55183SOL     OW67387   7.107  11.735  12.958
55183SOL    HW167388   7.081  11.818  12.997
55183SOL    HW267389   7.195  11.719  12.992
55184SOL     OW67390  14.546  14.361   7.246
55184SOL    HW167391  14.623  14.326   7.289
55184SOL    HW267392  14.504  14.416   7.312
55185SOL     OW67393   7.094   1.600   5.125
55185SOL    HW167394   7.013   1.585   5.173
55185SOL    HW267395   7.129   1.512   5.109
55186SOL     OW67396   9.901  11.316  10.451
55186SOL    HW167397   9.835  11.369  10.407
55186SOL    HW267398   9.985  11.345  10.415
55187SOL     OW67399   5.824   1.149  12.711
55187SOL    HW167400   5.863   1.233  12.690
55187SOL    HW267401   5.894   1.085  12.695
55188SOL     OW67402  12.805  11.864  10.929
55188SOL    HW167403  12.846  11.871  11.015
55188SOL    HW267404  12.859  11.918  10.871
55189SOL     OW67405   7.264   1.203  12.870
55189SOL    HW167406   7.256   1.191  12.775
55189SOL    HW267407   7.235   1.294  12.884
55190SOL     OW67408   5.927   1.721   6.568
55190SOL    HW167409   5.945   1.806   6.609
55190SOL    HW267410   5.952   1.656   6.633
55191SOL     OW67411  10.464   4.147  13.281
55191SOL    HW167412  10.555   4.175  13.270
55191SOL    HW267413  10.428   4.207  13.346
55192SOL     OW67414   2.628  10.371  11.385
55192SOL    HW167415   2.587  10.290  11.414
55192SOL    HW267416   2.722  10.351  11.385
55193SOL     OW67417   0.144   1.409   5.609
55193SOL    HW167418   0.106   1.462   5.680
55193SOL    HW267419   0.146   1.320   5.645
55194SOL     OW67420   7.487   3.489   8.128
55194SOL    HW167421   7.448   3.544   8.195
55194SOL    HW267422   7.437   3.407   8.131
55195SOL     OW67423   1.000  10.480   7.914
55195SOL    HW167424   1.063  10.419   7.875
55195SOL    HW267425   0.930  10.487   7.849
55196SOL     OW67426   5.704   9.611   6.336
55196SOL    HW167427   5.772   9.592   6.401
55196SOL    HW267428   5.624   9.577   6.376
55197SOL     OW67429  10.656   7.268   8.565
55197SOL    HW167430  10.632   7.359   8.585
55197SOL    HW267431  10.582   7.235   8.514
55198SOL     OW67432   8.470   1.338  13.287
55198SOL    HW167433   8.398   1.349  13.224
55198SOL    HW267434   8.436   1.274  13.350
55199SOL     OW67435   4.370  12.200  10.292
55199SOL    HW167436   4.452  12.248  10.285
55199SOL    HW267437   4.385  12.118  10.245
55200SOL     OW67438  13.306  13.839  10.808
55200SOL    HW167439  13.353  13.907  10.760
55200SOL    HW267440  13.240  13.887  10.859
55201SOL     OW67441   2.168   2.363   7.717
55201SOL    HW167442   2.183   2.443   7.767
55201SOL    HW267443   2.152   2.392   7.628
55202SOL     OW67444   7.663  13.232  12.305
55202SOL    HW167445   7.699  13.236  12.394
55202SOL    HW267446   7.726  13.179  12.256
55203SOL     OW67447   1.117   9.102   9.370
55203SOL    HW167448   1.196   9.111   9.317
55203SOL    HW267449   1.086   9.192   9.382
55204SOL     OW67450   8.801   6.050   8.426
55204SOL    HW167451   8.860   6.067   8.352
55204SOL    HW267452   8.766   6.137   8.449
55205SOL     OW67453   6.630   2.110  14.527
55205SOL    HW167454   6.704   2.051  14.513
55205SOL    HW267455   6.649   2.186  14.471
55206SOL     OW67456   4.006  12.113   7.732
55206SOL    HW167457   3.922  12.097   7.774
55206SOL    HW267458   3.988  12.181   7.667
55207SOL     OW67459  11.317  11.370   7.894
55207SOL    HW167460  11.391  11.425   7.870
55207SOL    HW267461  11.356  11.289   7.926
55208SOL     OW67462   4.548   1.588   1.796
55208SOL    HW167463   4.482   1.629   1.739
55208SOL    HW267464   4.619   1.564   1.737
55209SOL     OW67465   1.313  10.823  11.763
55209SOL    HW167466   1.247  10.837  11.696
55209SOL    HW267467   1.372  10.898  11.755
55210SOL     OW67468   6.945   3.478   2.570
55210SOL    HW167469   6.951   3.444   2.659
55210SOL    HW267470   6.992   3.414   2.517
55211SOL     OW67471   6.824   1.292   0.688
55211SOL    HW167472   6.809   1.342   0.608
55211SOL    HW267473   6.915   1.266   0.684
55212SOL     OW67474  13.658   2.081   4.254
55212SOL    HW167475  13.699   2.075   4.340
55212SOL    HW267476  13.681   2.168   4.222
55213SOL     OW67477   4.400   3.115   7.025
55213SOL    HW167478   4.348   3.112   6.945
55213SOL    HW267479   4.484   3.154   6.997
55214SOL     OW67480   7.282   1.564  13.624
55214SOL    HW167481   7.254   1.478  13.595
55214SOL    HW267482   7.343   1.546  13.696
55215SOL     OW67483   3.219   6.621  13.147
55215SOL    HW167484   3.171   6.650  13.224
55215SOL    HW267485   3.154   6.620  13.076
55216SOL     OW67486   9.738   5.676  12.270
55216SOL    HW167487   9.800   5.743  12.295
55216SOL    HW267488   9.674   5.721  12.214
55217SOL     OW67489   4.035   8.381   3.762
55217SOL    HW167490   4.031   8.328   3.841
55217SOL    HW267491   4.124   8.367   3.728
55218SOL     OW67492   0.249   8.214  12.425
55218SOL    HW167493   0.310   8.180  12.490
55218SOL    HW267494   0.293   8.199  12.341
55219SOL     OW67495  10.145  13.141  13.676
55219SOL    HW167496  10.162  13.110  13.765
55219SOL    HW267497  10.164  13.235  13.679
55220SOL     OW67498   7.928  10.398  12.217
55220SOL    HW167499   7.914  10.311  12.255
55220SOL    HW267500   8.019  10.399  12.190
55221SOL     OW67501   3.073   7.703   9.572
55221SOL    HW167502   3.053   7.674   9.483
55221SOL    HW267503   3.102   7.794   9.562
55222SOL     OW67504   1.194  10.944   5.592
55222SOL    HW167505   1.158  10.913   5.509
55222SOL    HW267506   1.229  11.030   5.572
55223SOL     OW67507  14.067   9.318   4.343
55223SOL    HW167508  14.008   9.393   4.355
55223SOL    HW267509  14.078   9.311   4.249
55224SOL     OW67510   0.426   2.124  12.671
55224SOL    HW167511   0.385   2.127  12.584
55224SOL    HW267512   0.513   2.087  12.655
55225SOL     OW67513   3.731   1.686   8.927
55225SOL    HW167514   3.638   1.662   8.930
55225SOL    HW267515   3.777   1.602   8.924
55226SOL     OW67516   4.419  14.412   2.140
55226SOL    HW167517   4.461  14.445   2.061
55226SOL    HW267518   4.479  14.346   2.174
55227SOL     OW67519   7.322   0.873   9.537
55227SOL    HW167520   7.412   0.858   9.508
55227SOL    HW267521   7.269   0.820   9.477
55228SOL     OW67522   1.340   1.588   3.454
55228SOL    HW167523   1.362   1.598   3.361
55228SOL    HW267524   1.245   1.594   3.457
55229SOL     OW67525   6.062   3.256   4.682
55229SOL    HW167526   6.027   3.281   4.597
55229SOL    HW267527   6.157   3.250   4.668
55230SOL     OW67528  11.451   7.616   9.198
55230SOL    HW167529  11.397   7.621   9.119
55230SOL    HW267530  11.444   7.525   9.226
55231SOL     OW67531  12.796   2.774   4.603
55231SOL    HW167532  12.731   2.833   4.565
55231SOL    HW267533  12.807   2.705   4.537
55232SOL     OW67534  10.171   2.552   2.936
55232SOL    HW167535  10.209   2.488   2.876
55232SOL    HW267536  10.081   2.564   2.904
55233SOL     OW67537   1.114  13.650  13.169
55233SOL    HW167538   1.184  13.586  13.156
55233SOL    HW267539   1.115  13.704  13.090
55234SOL     OW67540   3.518  10.862  10.259
55234SOL    HW167541   3.570  10.931  10.300
55234SOL    HW267542   3.571  10.832  10.186
55235SOL     OW67543  13.672  13.880   0.135
55235SOL    HW167544  13.699  13.840   0.052
55235SOL    HW267545  13.576  13.881   0.131
55236SOL     OW67546   0.382   4.176   4.257
55236SOL    HW167547   0.437   4.253   4.275
55236SOL    HW267548   0.301   4.192   4.304
55237SOL     OW67549   5.940   2.494   0.481
55237SOL    HW167550   6.016   2.523   0.432
55237SOL    HW267551   5.874   2.562   0.466
55238SOL     OW67552   1.169   3.654   0.093
55238SOL    HW167553   1.154   3.669  14.873
55238SOL    HW267554   1.234   3.720   0.117
55239SOL     OW67555  14.008   7.177   8.048
55239SOL    HW167556  14.086   7.225   8.077
55239SOL    HW267557  13.993   7.208   7.959
55240SOL     OW67558   2.530   9.060   5.578
55240SOL    HW167559   2.472   9.052   5.654
55240SOL    HW267560   2.566   8.972   5.566
55241SOL     OW67561  13.265  12.920   6.401
55241SOL    HW167562  13.268  12.932   6.496
55241SOL    HW267563  13.249  12.826   6.389
55242SOL     OW67564   9.230   6.328   5.109
55242SOL    HW167565   9.173   6.269   5.157
55242SOL    HW267566   9.226   6.298   5.018
55243SOL     OW67567   6.363   5.682   0.535
55243SOL    HW167568   6.320   5.767   0.540
55243SOL    HW267569   6.451   5.697   0.570
55244SOL     OW67570   2.174  14.204   3.494
55244SOL    HW167571   2.257  14.242   3.466
55244SOL    HW267572   2.133  14.273   3.546
55245SOL     OW67573  10.848   1.826  13.268
55245SOL    HW167574  10.834   1.912  13.229
55245SOL    HW267575  10.868   1.843  13.359
55246SOL     OW67576   6.560  14.228  13.075
55246SOL    HW167577   6.646  14.211  13.111
55246SOL    HW267578   6.566  14.199  12.984
55247SOL     OW67579  11.689   3.386  13.387
55247SOL    HW167580  11.597   3.409  13.398
55247SOL    HW267581  11.693   3.343  13.302
55248SOL     OW67582  12.851   4.813   2.706
55248SOL    HW167583  12.801   4.750   2.760
55248SOL    HW267584  12.787   4.882   2.685
55249SOL     OW67585  10.136   4.446  13.292
55249SOL    HW167586  10.059   4.490  13.257
55249SOL    HW267587  10.185   4.516  13.336
55250SOL     OW67588  11.679  10.887   3.707
55250SOL    HW167589  11.692  10.956   3.641
55250SOL    HW267590  11.641  10.932   3.782
55251SOL     OW67591   7.532   5.825   3.723
55251SOL    HW167592   7.460   5.781   3.770
55251SOL    HW267593   7.611   5.792   3.764
55252SOL     OW67594  12.629   0.352  12.306
55252SOL    HW167595  12.535   0.364  12.316
55252SOL    HW267596  12.640   0.257  12.296
55253SOL     OW67597   5.698  14.440   1.922
55253SOL    HW167598   5.761  14.511   1.911
55253SOL    HW267599   5.705  14.417   2.015
55254SOL     OW67600   8.657   6.623  13.809
55254SOL    HW167601   8.734   6.674  13.785
55254SOL    HW267602   8.689   6.534  13.822
55255SOL     OW67603  10.171   6.534  11.238
55255SOL    HW167604  10.122   6.531  11.155
55255SOL    HW267605  10.223   6.454  11.238
55256SOL     OW67606  14.537  12.277  12.327
55256SOL    HW167607  14.587  12.358  12.316
55256SOL    HW267608  14.515  12.275  12.420
55257SOL     OW67609   0.675  14.353   9.934
55257SOL    HW167610   0.672  14.385  10.025
55257SOL    HW267611   0.745  14.288   9.934
55258SOL     OW67612   7.607   5.069   4.289
55258SOL    HW167613   7.590   4.985   4.331
55258SOL    HW267614   7.544   5.073   4.217
55259SOL     OW67615   7.079   4.276  12.520
55259SOL    HW167616   7.077   4.279  12.424
55259SOL    HW267617   7.170   4.295  12.543
55260SOL     OW67618  13.259   1.170   4.631
55260SOL    HW167619  13.344   1.214   4.637
55260SOL    HW267620  13.205   1.229   4.579
55261SOL     OW67621   2.010   4.111   7.122
55261SOL    HW167622   2.093   4.076   7.153
55261SOL    HW267623   2.033   4.167   7.048
55262SOL     OW67624  14.517   7.392  12.178
55262SOL    HW167625  14.527   7.344  12.096
55262SOL    HW267626  14.563   7.474  12.164
55263SOL     OW67627  11.916  14.628   8.438
55263SOL    HW167628  11.991  14.675   8.477
55263SOL    HW267629  11.933  14.536   8.457
55264SOL     OW67630   6.673   5.636  11.356
55264SOL    HW167631   6.719   5.554  11.372
55264SOL    HW267632   6.609   5.642  11.426
55265SOL     OW67633   0.289  10.971  13.209
55265SOL    HW167634   0.227  10.947  13.140
55265SOL    HW267635   0.287  10.898  13.271
55266SOL     OW67636   3.732   4.460  14.043
55266SOL    HW167637   3.653   4.482  13.993
55266SOL    HW267638   3.759   4.542  14.083
55267SOL     OW67639   9.665   9.488   9.714
55267SOL    HW167640   9.691   9.543   9.788
55267SOL    HW267641   9.747   9.449   9.683
55268SOL     OW67642  11.522   7.277   2.559
55268SOL    HW167643  11.606   7.267   2.603
55268SOL    HW267644  11.531   7.357   2.508
55269SOL     OW67645  11.496   9.342  10.854
55269SOL    HW167646  11.571   9.294  10.819
55269SOL    HW267647  11.527   9.381  10.935
55270SOL     OW67648   5.472  11.099   9.348
55270SOL    HW167649   5.490  11.083   9.441
55270SOL    HW267650   5.498  11.018   9.305
55271SOL     OW67651  10.025   6.905   2.629
55271SOL    HW167652   9.995   6.906   2.720
55271SOL    HW267653  10.017   6.996   2.600
55272SOL     OW67654   3.403  14.128  10.272
55272SOL    HW167655   3.411  14.043  10.316
55272SOL    HW267656   3.423  14.192  10.341
55273SOL     OW67657   1.577   5.767   5.456
55273SOL    HW167658   1.645   5.701   5.441
55273SOL    HW267659   1.598   5.804   5.542
55274SOL     OW67660   7.206   7.501   0.914
55274SOL    HW167661   7.203   7.492   0.819
55274SOL    HW267662   7.287   7.550   0.930
55275SOL     OW67663   4.635   8.243   9.963
55275SOL    HW167664   4.728   8.262   9.976
55275SOL    HW267665   4.631   8.148   9.950
55276SOL     OW67666  13.236  11.283   8.531
55276SOL    HW167667  13.147  11.247   8.534
55276SOL    HW267668  13.293  11.211   8.555
55277SOL     OW67669   9.297   3.257   6.794
55277SOL    HW167670   9.315   3.217   6.709
55277SOL    HW267671   9.202   3.256   6.802
55278SOL     OW67672  12.776   1.952   3.371
55278SOL    HW167673  12.850   2.006   3.399
55278SOL    HW267674  12.795   1.865   3.405
55279SOL     OW67675  11.806  10.642  12.952
55279SOL    HW167676  11.804  10.736  12.971
55279SOL    HW267677  11.714  10.619  12.936
55280SOL     OW67678   2.538  10.977   7.986
55280SOL    HW167679   2.598  11.003   7.916
55280SOL    HW267680   2.461  11.033   7.975
55281SOL     OW67681   2.771  12.808   9.726
55281SOL    HW167682   2.862  12.796   9.700
55281SOL    HW267683   2.773  12.883   9.786
55282SOL     OW67684   6.765   7.757   0.655
55282SOL    HW167685   6.795   7.667   0.667
55282SOL    HW267686   6.815   7.790   0.580
55283SOL     OW67687  11.181  13.478   5.432
55283SOL    HW167688  11.190  13.427   5.513
55283SOL    HW267689  11.271  13.494   5.405
55284SOL     OW67690  14.520  11.880  10.597
55284SOL    HW167691  14.529  11.785  10.600
55284SOL    HW267692  14.554  11.910  10.681
55285SOL     OW67693   5.866   4.152   9.154
55285SOL    HW167694   5.876   4.176   9.062
55285SOL    HW267695   5.840   4.234   9.197
55286SOL     OW67696   8.598  10.811  10.325
55286SOL    HW167697   8.615  10.751  10.252
55286SOL    HW267698   8.594  10.754  10.402
55287SOL     OW67699   3.491  10.610   2.477
55287SOL    HW167700   3.437  10.545   2.523
55287SOL    HW267701   3.542  10.652   2.547
55288SOL     OW67702   5.753  11.191   9.591
55288SOL    HW167703   5.831  11.245   9.585
55288SOL    HW267704   5.745  11.169   9.683
55289SOL     OW67705   9.558   6.167   2.181
55289SOL    HW167706   9.467   6.164   2.151
55289SOL    HW267707   9.590   6.078   2.169
55290SOL     OW67708   8.924  11.977   3.125
55290SOL    HW167709   9.012  11.971   3.162
55290SOL    HW267710   8.893  11.886   3.121
55291SOL     OW67711   2.970  11.195   1.911
55291SOL    HW167712   3.037  11.248   1.952
55291SOL    HW267713   2.931  11.144   1.982
55292SOL     OW67714  11.382   0.264   0.805
55292SOL    HW167715  11.443   0.223   0.743
55292SOL    HW267716  11.310   0.201   0.811
55293SOL     OW67717  12.335  12.499   8.867
55293SOL    HW167718  12.403  12.548   8.821
55293SOL    HW267719  12.300  12.559   8.932
55294SOL     OW67720   2.079  10.483   8.859
55294SOL    HW167721   2.087  10.577   8.869
55294SOL    HW267722   2.157  10.458   8.808
55295SOL     OW67723  12.102  13.329  12.377
55295SOL    HW167724  12.172  13.322  12.442
55295SOL    HW267725  12.042  13.258  12.398
55296SOL     OW67726   8.817  11.826   9.974
55296SOL    HW167727   8.819  11.828  10.070
55296SOL    HW267728   8.730  11.860   9.952
55297SOL     OW67729  14.303   4.159  14.450
55297SOL    HW167730  14.317   4.210  14.529
55297SOL    HW267731  14.273   4.073  14.481
55298SOL     OW67732   2.231  12.984  10.145
55298SOL    HW167733   2.274  12.904  10.116
55298SOL    HW267734   2.278  13.009  10.225
55299SOL     OW67735   9.945   4.220  13.221
55299SOL    HW167736   9.896   4.151  13.175
55299SOL    HW267737   9.962   4.286  13.155
55300SOL     OW67738   7.714  10.071  12.762
55300SOL    HW167739   7.694  10.144  12.704
55300SOL    HW267740   7.668   9.997  12.723
55301SOL     OW67741   2.727  11.812  14.745
55301SOL    HW167742   2.659  11.873  14.717
55301SOL    HW267743   2.761  11.775  14.663
55302SOL     OW67744  13.539   6.921  14.445
55302SOL    HW167745  13.458   6.943  14.491
55302SOL    HW267746  13.537   6.826  14.438
55303SOL     OW67747   9.287   1.493  14.448
55303SOL    HW167748   9.300   1.556  14.519
55303SOL    HW267749   9.326   1.411  14.481
55304SOL     OW67750  14.520   3.302   9.880
55304SOL    HW167751  14.549   3.377   9.932
55304SOL    HW267752  14.598   3.246   9.873
55305SOL     OW67753  13.793   0.017  13.020
55305SOL    HW167754  13.779   0.049  12.931
55305SOL    HW267755  13.884   0.040  13.040
55306SOL     OW67756   5.101   9.148   4.055
55306SOL    HW167757   5.163   9.076   4.039
55306SOL    HW267758   5.094   9.152   4.151
55307SOL     OW67759  13.542   7.021   2.761
55307SOL    HW167760  13.605   7.048   2.694
55307SOL    HW267761  13.587   7.034   2.844
55308SOL     OW67762   6.173   5.819   2.898
55308SOL    HW167763   6.262   5.791   2.880
55308SOL    HW267764   6.136   5.839   2.812
55309SOL     OW67765   7.490   2.609   1.966
55309SOL    HW167766   7.585   2.599   1.960
55309SOL    HW267767   7.458   2.592   1.877
55310SOL     OW67768   5.866   7.440   9.073
55310SOL    HW167769   5.824   7.526   9.080
55310SOL    HW267770   5.959   7.461   9.062
55311SOL     OW67771   8.451  13.133   9.488
55311SOL    HW167772   8.473  13.054   9.438
55311SOL    HW267773   8.359  13.150   9.468
55312SOL     OW67774   9.475   0.833   3.643
55312SOL    HW167775   9.483   0.804   3.734
55312SOL    HW267776   9.397   0.889   3.643
55313SOL     OW67777   8.169   2.338  10.298
55313SOL    HW167778   8.191   2.246  10.280
55313SOL    HW267779   8.247   2.387  10.270
55314SOL     OW67780   7.614  14.598  12.436
55314SOL    HW167781   7.543  14.615  12.375
55314SOL    HW267782   7.669  14.677  12.432
55315SOL     OW67783   9.815   6.402  10.848
55315SOL    HW167784   9.743   6.358  10.892
55315SOL    HW267785   9.786   6.411  10.757
55316SOL     OW67786   8.318  11.504  10.730
55316SOL    HW167787   8.407  11.538  10.734
55316SOL    HW267788   8.328  11.412  10.708
55317SOL     OW67789   2.584   0.651   0.707
55317SOL    HW167790   2.654   0.638   0.770
55317SOL    HW267791   2.597   0.583   0.640
55318SOL     OW67792   6.094  12.330  14.231
55318SOL    HW167793   6.108  12.282  14.149
55318SOL    HW267794   6.076  12.261  14.295
55319SOL     OW67795   3.265   6.214   5.059
55319SOL    HW167796   3.195   6.253   5.007
55319SOL    HW267797   3.220   6.154   5.119
55320SOL     OW67798   7.330   0.894   5.240
55320SOL    HW167799   7.261   0.838   5.205
55320SOL    HW267800   7.321   0.885   5.335
55321SOL     OW67801   7.776   2.940   6.334
55321SOL    HW167802   7.863   2.978   6.340
55321SOL    HW267803   7.717   3.012   6.357
55322SOL     OW67804   6.154   2.824   8.175
55322SOL    HW167805   6.231   2.824   8.118
55322SOL    HW267806   6.080   2.822   8.115
55323SOL     OW67807  10.156   9.259  12.413
55323SOL    HW167808  10.166   9.293  12.502
55323SOL    HW267809  10.245   9.260  12.377
55324SOL     OW67810   9.458   9.586   1.900
55324SOL    HW167811   9.364   9.587   1.919
55324SOL    HW267812   9.497   9.631   1.975
55325SOL     OW67813   4.809   5.835  14.659
55325SOL    HW167814   4.742   5.767  14.649
55325SOL    HW267815   4.846   5.819  14.746
55326SOL     OW67816   5.532  14.835   6.902
55326SOL    HW167817   5.485   0.016   6.966
55326SOL    HW267818   5.529  14.747   6.938
55327SOL     OW67819   3.710   1.044   0.526
55327SOL    HW167820   3.666   1.066   0.445
55327SOL    HW267821   3.745   1.127   0.558
55328SOL     OW67822   6.259  14.263  13.093
55328SOL    HW167823   6.353  14.254  13.105
55328SOL    HW267824   6.246  14.357  13.078
55329SOL     OW67825   1.875  14.033  13.715
55329SOL    HW167826   1.802  14.062  13.660
55329SOL    HW267827   1.946  14.094  13.696
55330SOL     OW67828   0.017   5.804   4.474
55330SOL    HW167829   0.079   5.733   4.491
55330SOL    HW267830   0.062   5.862   4.414
55331SOL     OW67831   8.673   2.859   5.556
55331SOL    HW167832   8.671   2.845   5.651
55331SOL    HW267833   8.748   2.808   5.526
55332SOL     OW67834   4.930  12.373   4.307
55332SOL    HW167835   4.941  12.313   4.234
55332SOL    HW267836   4.836  12.373   4.325
55333SOL     OW67837   9.530  12.778   8.473
55333SOL    HW167838   9.486  12.722   8.408
55333SOL    HW267839   9.459  12.825   8.516
55334SOL     OW67840   6.492   1.290  10.568
55334SOL    HW167841   6.499   1.317  10.660
55334SOL    HW267842   6.581   1.298  10.534
55335SOL     OW67843   7.703   4.549   2.216
55335SOL    HW167844   7.696   4.550   2.120
55335SOL    HW267845   7.787   4.506   2.233
55336SOL     OW67846  11.657  14.469   0.835
55336SOL    HW167847  11.635  14.534   0.901
55336SOL    HW267848  11.750  14.483   0.818
55337SOL     OW67849   4.183   5.818  14.367
55337SOL    HW167850   4.191   5.913  14.380
55337SOL    HW267851   4.113   5.809  14.302
55338SOL     OW67852   2.153  14.092  14.286
55338SOL    HW167853   2.171  14.034  14.211
55338SOL    HW267854   2.197  14.174  14.264
55339SOL     OW67855   4.900  10.965   8.345
55339SOL    HW167856   4.838  11.012   8.401
55339SOL    HW267857   4.861  10.879   8.333
55340SOL     OW67858   3.893   3.959   4.824
55340SOL    HW167859   3.824   3.898   4.852
55340SOL    HW267860   3.874   3.975   4.731
55341SOL     OW67861   1.831   5.148   1.494
55341SOL    HW167862   1.748   5.104   1.514
55341SOL    HW267863   1.844   5.208   1.568
55342SOL     OW67864   9.285   3.263  13.468
55342SOL    HW167865   9.197   3.268  13.430
55342SOL    HW267866   9.272   3.221  13.553
55343SOL     OW67867  12.799  13.401   1.718
55343SOL    HW167868  12.815  13.356   1.801
55343SOL    HW267869  12.713  13.370   1.690
55344SOL     OW67870   4.470  10.036  14.822
55344SOL    HW167871   4.424   9.982  14.758
55344SOL    HW267872   4.412  10.036   0.026
55345SOL     OW67873  14.090   6.990   9.549
55345SOL    HW167874  14.144   7.059   9.511
55345SOL    HW267875  14.103   6.914   9.492
55346SOL     OW67876   0.778   2.369  10.034
55346SOL    HW167877   0.717   2.331  10.098
55346SOL    HW267878   0.735   2.449  10.004
55347SOL     OW67879   9.868   9.038   2.352
55347SOL    HW167880   9.857   9.126   2.388
55347SOL    HW267881   9.932   9.049   2.281
55348SOL     OW67882   4.718  10.046   3.594
55348SOL    HW167883   4.713  10.005   3.680
55348SOL    HW267884   4.627  10.065   3.572
55349SOL     OW67885   8.307   6.138   9.592
55349SOL    HW167886   8.315   6.151   9.497
55349SOL    HW267887   8.226   6.183   9.616
55350SOL     OW67888   0.433   7.856   0.119
55350SOL    HW167889   0.392   7.941   0.107
55350SOL    HW267890   0.375   7.808   0.178
55351SOL     OW67891  12.947   1.392   8.418
55351SOL    HW167892  12.874   1.427   8.366
55351SOL    HW267893  13.005   1.351   8.353
55352SOL     OW67894   6.332   9.960  10.603
55352SOL    HW167895   6.359   9.871  10.626
55352SOL    HW267896   6.299   9.998  10.684
55353SOL     OW67897   6.399   1.729  13.583
55353SOL    HW167898   6.408   1.817  13.546
55353SOL    HW267899   6.488   1.703  13.604
55354SOL     OW67900  11.648   3.086   4.634
55354SOL    HW167901  11.602   3.130   4.706
55354SOL    HW267902  11.716   3.147   4.607
55355SOL     OW67903  10.871   9.281   6.645
55355SOL    HW167904  10.873   9.240   6.731
55355SOL    HW267905  10.928   9.226   6.591
55356SOL     OW67906   0.154  13.034   8.931
55356SOL    HW167907   0.148  13.020   9.025
55356SOL    HW267908   0.167  12.946   8.895
55357SOL     OW67909   0.745  11.615  11.141
55357SOL    HW167910   0.675  11.561  11.105
55357SOL    HW267911   0.750  11.689  11.080
55358SOL     OW67912   0.069   7.718   8.577
55358SOL    HW167913  14.861   7.669   8.590
55358SOL    HW267914   0.055   7.801   8.622
55359SOL     OW67915  13.263   8.477  14.446
55359SOL    HW167916  13.246   8.546  14.510
55359SOL    HW267917  13.356   8.488  14.424
55360SOL     OW67918   4.985   9.961  12.529
55360SOL    HW167919   5.071   9.972  12.489
55360SOL    HW267920   4.927  10.016  12.478
55361SOL     OW67921  14.421  10.200   0.037
55361SOL    HW167922  14.454  10.140  14.843
55361SOL    HW267923  14.334  10.168   0.058
55362SOL     OW67924   8.433   0.911   7.747
55362SOL    HW167925   8.450   0.953   7.663
55362SOL    HW267926   8.361   0.850   7.730
55363SOL     OW67927  13.127  13.503   8.847
55363SOL    HW167928  13.146  13.490   8.754
55363SOL    HW267929  13.032  13.516   8.850
55364SOL     OW67930   0.464   2.122   6.846
55364SOL    HW167931   0.530   2.138   6.915
55364SOL    HW267932   0.453   2.207   6.803
55365SOL     OW67933   4.097   0.840  12.060
55365SOL    HW167934   4.050   0.804  11.985
55365SOL    HW267935   4.110   0.932  12.038
55366SOL     OW67936   0.081   2.040   3.052
55366SOL    HW167937   0.171   2.038   3.020
55366SOL    HW267938   0.030   2.069   2.976
55367SOL     OW67939   3.402   4.617   5.839
55367SOL    HW167940   3.352   4.618   5.921
55367SOL    HW267941   3.485   4.659   5.862
55368SOL     OW67942   0.717  14.539   3.236
55368SOL    HW167943   0.628  14.555   3.266
55368SOL    HW267944   0.712  14.455   3.189
55369SOL     OW67945   1.620   6.916   3.139
55369SOL    HW167946   1.653   6.890   3.225
55369SOL    HW267947   1.620   7.012   3.141
55370SOL     OW67948   6.717   0.621  11.471
55370SOL    HW167949   6.630   0.647  11.500
55370SOL    HW267950   6.734   0.538  11.515
55371SOL     OW67951   7.568  10.624   8.420
55371SOL    HW167952   7.558  10.529   8.415
55371SOL    HW267953   7.657  10.637   8.454
55372SOL     OW67954   3.708   3.834   0.746
55372SOL    HW167955   3.627   3.850   0.796
55372SOL    HW267956   3.703   3.742   0.721
55373SOL     OW67957   9.622  10.319   7.187
55373SOL    HW167958   9.615  10.361   7.273
55373SOL    HW267959   9.652  10.388   7.128
55374SOL     OW67960   5.657  13.307  14.539
55374SOL    HW167961   5.661  13.403  14.544
55374SOL    HW267962   5.665  13.278  14.630
55375SOL     OW67963   1.991   7.494  14.696
55375SOL    HW167964   1.999   7.490  14.601
55375SOL    HW267965   1.898   7.480  14.713
55376SOL     OW67966  13.723  14.118  12.748
55376SOL    HW167967  13.716  14.083  12.659
55376SOL    HW267968  13.690  14.208  12.741
55377SOL     OW67969   2.051  14.336   3.034
55377SOL    HW167970   2.012  14.392   3.101
55377SOL    HW267971   2.002  14.357   2.954
55378SOL     OW67972  11.291   9.221  14.568
55378SOL    HW167973  11.244   9.304  14.555
55378SOL    HW267974  11.378   9.237  14.532
55379SOL     OW67975   1.833  13.573  12.357
55379SOL    HW167976   1.740  13.553  12.350
55379SOL    HW267977   1.875  13.512  12.296
55380SOL     OW67978   6.231   8.692  10.506
55380SOL    HW167979   6.252   8.753  10.435
55380SOL    HW267980   6.215   8.608  10.463
55381SOL     OW67981   3.017   1.232  14.476
55381SOL    HW167982   3.015   1.328  14.485
55381SOL    HW267983   2.980   1.215  14.390
55382SOL     OW67984   6.250   2.518   7.527
55382SOL    HW167985   6.182   2.557   7.471
55382SOL    HW267986   6.239   2.561   7.611
55383SOL     OW67987  11.598  14.444   3.295
55383SOL    HW167988  11.690  14.426   3.310
55383SOL    HW267989  11.576  14.513   3.358
55384SOL     OW67990   4.645  12.788   0.620
55384SOL    HW167991   4.613  12.844   0.549
55384SOL    HW267992   4.566  12.755   0.662
55385SOL     OW67993   3.170   2.357   5.659
55385SOL    HW167994   3.236   2.325   5.598
55385SOL    HW267995   3.114   2.282   5.677
55386SOL     OW67996   4.492   5.247   4.763
55386SOL    HW167997   4.400   5.221   4.769
55386SOL    HW267998   4.523   5.208   4.681
55387SOL     OW67999   2.299   4.280  11.954
55387SOL    HW168000   2.258   4.301  11.870
55387SOL    HW268001   2.384   4.244  11.931
55388SOL     OW68002   8.920  12.653   6.074
55388SOL    HW168003   8.962  12.589   6.016
55388SOL    HW268004   8.976  12.656   6.151
55389SOL     OW68005   2.269   7.172  13.567
55389SOL    HW168006   2.212   7.229  13.619
55389SOL    HW268007   2.275   7.091  13.618
55390SOL     OW68008  14.746  11.378   5.833
55390SOL    HW168009  14.821  11.403   5.780
55390SOL    HW268010  14.711  11.299   5.790
55391SOL     OW68011   4.475  11.736  12.282
55391SOL    HW168012   4.413  11.665  12.298
55391SOL    HW268013   4.518  11.713  12.200
55392SOL     OW68014   8.431   6.848   9.861
55392SOL    HW168015   8.395   6.781   9.803
55392SOL    HW268016   8.505   6.805   9.904
55393SOL     OW68017  10.416  10.556   4.873
55393SOL    HW168018  10.379  10.644   4.864
55393SOL    HW268019  10.416  10.539   4.967
55394SOL     OW68020  14.867   5.762   2.752
55394SOL    HW168021  14.863   5.715   2.835
55394SOL    HW268022   0.047   5.839   2.770
55395SOL     OW68023  14.026   0.697   9.507
55395SOL    HW168024  14.064   0.614   9.478
55395SOL    HW268025  13.948   0.673   9.557
55396SOL     OW68026  11.331  13.797   3.686
55396SOL    HW168027  11.341  13.827   3.596
55396SOL    HW268028  11.282  13.867   3.730
55397SOL     OW68029   0.096   2.836  11.119
55397SOL    HW168030   0.172   2.870  11.070
55397SOL    HW268031   0.135   2.791  11.194
55398SOL     OW68032  10.688   5.913   2.654
55398SOL    HW168033  10.711   5.985   2.594
55398SOL    HW268034  10.592   5.909   2.650
55399SOL     OW68035  11.134  14.733  14.167
55399SOL    HW168036  11.078  14.805  14.195
55399SOL    HW268037  11.217  14.749  14.212
55400SOL     OW68038  12.811   1.070   1.778
55400SOL    HW168039  12.888   1.017   1.753
55400SOL    HW268040  12.811   1.068   1.874
55401SOL     OW68041   9.576   0.566   6.717
55401SOL    HW168042   9.590   0.617   6.797
55401SOL    HW268043   9.521   0.493   6.746
55402SOL     OW68044   4.332   9.379   0.690
55402SOL    HW168045   4.353   9.471   0.705
55402SOL    HW268046   4.408   9.343   0.645
55403SOL     OW68047   8.724   9.051   7.549
55403SOL    HW168048   8.757   9.133   7.586
55403SOL    HW268049   8.775   8.982   7.592
55404SOL     OW68050   0.605   6.017   3.037
55404SOL    HW168051   0.574   5.938   3.081
55404SOL    HW268052   0.535   6.041   2.977
55405SOL     OW68053  12.052   1.111  10.655
55405SOL    HW168054  12.145   1.098  10.677
55405SOL    HW268055  12.053   1.169  10.579
55406SOL     OW68056   2.495   3.773   4.202
55406SOL    HW168057   2.415   3.750   4.249
55406SOL    HW268058   2.467   3.779   4.110
55407SOL     OW68059  12.691  12.313   0.250
55407SOL    HW168060  12.676  12.397   0.292
55407SOL    HW268061  12.727  12.335   0.163
55408SOL     OW68062   0.716   3.927  13.913
55408SOL    HW168063   0.761   3.912  13.830
55408SOL    HW268064   0.696   4.021  13.912
55409SOL     OW68065  10.396  10.792   6.839
55409SOL    HW168066  10.379  10.722   6.902
55409SOL    HW268067  10.404  10.747   6.754
55410SOL     OW68068   0.546   7.344   3.032
55410SOL    HW168069   0.639   7.338   3.013
55410SOL    HW268070   0.519   7.428   2.996
55411SOL     OW68071  12.580  11.839   7.235
55411SOL    HW168072  12.513  11.772   7.243
55411SOL    HW268073  12.532  11.919   7.214
55412SOL     OW68074   0.452   9.450  12.090
55412SOL    HW168075   0.428   9.470  12.181
55412SOL    HW268076   0.532   9.500  12.076
55413SOL     OW68077   9.802   8.262   3.536
55413SOL    HW168078   9.853   8.339   3.562
55413SOL    HW268079   9.806   8.204   3.612
55414SOL     OW68080   3.408   2.127   9.709
55414SOL    HW168081   3.475   2.195   9.717
55414SOL    HW268082   3.361   2.149   9.629
55415SOL     OW68083  13.715  14.330   8.557
55415SOL    HW168084  13.712  14.373   8.642
55415SOL    HW268085  13.623  14.307   8.539
55416SOL     OW68086   0.141   0.177   1.534
55416SOL    HW168087   0.056   0.134   1.527
55416SOL    HW268088   0.195   0.116   1.584
55417SOL     OW68089   7.767  13.938  11.143
55417SOL    HW168090   7.760  13.932  11.238
55417SOL    HW268091   7.860  13.930  11.125
55418SOL     OW68092   7.086   7.818   0.170
55418SOL    HW168093   7.081   7.890   0.107
55418SOL    HW268094   7.004   7.770   0.160
55419SOL     OW68095   5.033   8.685   3.222
55419SOL    HW168096   5.087   8.713   3.148
55419SOL    HW268097   4.961   8.748   3.225
55420SOL     OW68098  11.260  11.109  13.552
55420SOL    HW168099  11.299  11.186  13.512
55420SOL    HW268100  11.284  11.037  13.493
55421SOL     OW68101  12.164   4.919   9.666
55421SOL    HW168102  12.253   4.917   9.702
55421SOL    HW268103  12.122   4.841   9.702
55422SOL     OW68104   3.108   4.715   9.682
55422SOL    HW168105   3.146   4.781   9.624
55422SOL    HW268106   3.168   4.641   9.676
55423SOL     OW68107   5.517   5.349  10.515
55423SOL    HW168108   5.548   5.267  10.476
55423SOL    HW268109   5.587   5.375  10.575
55424SOL     OW68110  13.423   9.223   3.176
55424SOL    HW168111  13.487   9.294   3.174
55424SOL    HW268112  13.455   9.159   3.112
55425SOL     OW68113   3.274   2.417   7.350
55425SOL    HW168114   3.365   2.433   7.375
55425SOL    HW268115   3.273   2.326   7.321
55426SOL     OW68116   3.290   1.048   4.799
55426SOL    HW168117   3.337   0.964   4.791
55426SOL    HW268118   3.198   1.024   4.795
55427SOL     OW68119  11.694   4.520   2.394
55427SOL    HW168120  11.696   4.473   2.477
55427SOL    HW268121  11.671   4.610   2.419
55428SOL     OW68122   8.768   3.192  11.000
55428SOL    HW168123   8.774   3.223  10.909
55428SOL    HW268124   8.787   3.099  10.994
55429SOL     OW68125   0.751  14.828   2.848
55429SOL    HW168126   0.843  14.836   2.874
55429SOL    HW268127   0.745  14.743   2.805
55430SOL     OW68128  11.390   7.476   5.936
55430SOL    HW168129  11.450   7.512   5.871
55430SOL    HW268130  11.373   7.387   5.906
55431SOL     OW68131  10.839  12.662   8.058
55431SOL    HW168132  10.868  12.743   8.100
55431SOL    HW268133  10.918  12.608   8.053
55432SOL     OW68134   6.660  13.018  10.246
55432SOL    HW168135   6.708  13.012  10.329
55432SOL    HW268136   6.659  12.929  10.212
55433SOL     OW68137  11.490   2.432  14.071
55433SOL    HW168138  11.454   2.450  13.985
55433SOL    HW268139  11.536   2.512  14.096
55434SOL     OW68140   5.676   9.733   3.355
55434SOL    HW168141   5.657   9.735   3.261
55434SOL    HW268142   5.745   9.797   3.367
55435SOL     OW68143  11.674   3.122  14.374
55435SOL    HW168144  11.680   3.080  14.289
55435SOL    HW268145  11.740   3.191  14.371
55436SOL     OW68146   9.424   1.213   9.938
55436SOL    HW168147   9.486   1.276   9.902
55436SOL    HW268148   9.358   1.203   9.869
55437SOL     OW68149  14.065   6.658   1.210
55437SOL    HW168150  13.997   6.723   1.231
55437SOL    HW268151  14.086   6.617   1.295
55438SOL     OW68152   3.365  10.943   7.818
55438SOL    HW168153   3.456  10.943   7.848
55438SOL    HW268154   3.371  10.968   7.726
55439SOL     OW68155  12.495  11.481  13.610
55439SOL    HW168156  12.521  11.567  13.577
55439SOL    HW268157  12.426  11.501  13.674
55440SOL     OW68158   7.438   0.620   2.740
55440SOL    HW168159   7.390   0.646   2.662
55440SOL    HW268160   7.452   0.701   2.789
55441SOL     OW68161  13.723   6.058   4.331
55441SOL    HW168162  13.806   6.095   4.301
55441SOL    HW268163  13.710   6.094   4.418
55442SOL     OW68164   2.116  12.443   3.244
55442SOL    HW168165   2.110  12.347   3.251
55442SOL    HW268166   2.209  12.462   3.253
55443SOL     OW68167  12.199   5.451  13.859
55443SOL    HW168168  12.179   5.535  13.817
55443SOL    HW268169  12.120   5.431  13.909
55444SOL     OW68170   5.386   0.398   8.774
55444SOL    HW168171   5.388   0.308   8.808
55444SOL    HW268172   5.331   0.393   8.696
55445SOL     OW68173  11.829   3.029   9.201
55445SOL    HW168174  11.835   2.982   9.118
55445SOL    HW268175  11.865   2.969   9.266
55446SOL     OW68176  12.877   9.113   8.568
55446SOL    HW168177  12.919   9.197   8.550
55446SOL    HW268178  12.949   9.056   8.596
55447SOL     OW68179   3.723   7.668   5.787
55447SOL    HW168180   3.760   7.690   5.872
55447SOL    HW268181   3.716   7.573   5.787
55448SOL     OW68182  11.450   0.735   4.364
55448SOL    HW168183  11.415   0.823   4.377
55448SOL    HW268184  11.479   0.708   4.451
55449SOL     OW68185  12.495  14.739  10.850
55449SOL    HW168186  12.455  14.826  10.853
55449SOL    HW268187  12.588  14.754  10.867
55450SOL     OW68188   2.775   8.463   9.754
55450SOL    HW168189   2.737   8.377   9.771
55450SOL    HW268190   2.792   8.499   9.842
55451SOL     OW68191   7.140   3.205   4.131
55451SOL    HW168192   7.178   3.134   4.079
55451SOL    HW268193   7.182   3.284   4.097
55452SOL     OW68194   3.053   2.930  13.492
55452SOL    HW168195   3.079   2.865  13.426
55452SOL    HW268196   3.058   3.014  13.446
55453SOL     OW68197   9.316   5.439  14.032
55453SOL    HW168198   9.276   5.517  14.071
55453SOL    HW268199   9.409   5.459  14.028
55454SOL     OW68200  14.750  12.538   2.729
55454SOL    HW168201  14.664  12.542   2.687
55454SOL    HW268202  14.734  12.569   2.819
55455SOL     OW68203  11.046   8.062  11.193
55455SOL    HW168204  10.971   8.004  11.179
55455SOL    HW268205  11.120   8.002  11.205
55456SOL     OW68206  11.293   7.464   2.556
55456SOL    HW168207  11.304   7.399   2.626
55456SOL    HW268208  11.223   7.430   2.502
55457SOL     OW68209   8.643   0.838   5.719
55457SOL    HW168210   8.550   0.815   5.708
55457SOL    HW268211   8.647   0.878   5.806
55458SOL     OW68212  10.278   3.946   3.508
55458SOL    HW168213  10.359   3.983   3.542
55458SOL    HW268214  10.299   3.853   3.494
55459SOL     OW68215   9.484  10.621   6.077
55459SOL    HW168216   9.506  10.620   5.984
55459SOL    HW268217   9.398  10.580   6.082
55460SOL     OW68218   5.864  14.241  14.338
55460SOL    HW168219   5.786  14.242  14.394
55460SOL    HW268220   5.933  14.280  14.391
55461SOL     OW68221   0.882   7.359  14.227
55461SOL    HW168222   0.963   7.411  14.231
55461SOL    HW268223   0.912   7.269  14.234
55462SOL     OW68224   5.626  11.497   9.364
55462SOL    HW168225   5.629  11.406   9.336
55462SOL    HW268226   5.548  11.503   9.418
55463SOL     OW68227   7.032  12.771  13.458
55463SOL    HW168228   7.104  12.779  13.520
55463SOL    HW268229   7.057  12.829  13.385
55464SOL     OW68230  11.648   0.775  12.400
55464SOL    HW168231  11.692   0.766  12.485
55464SOL    HW268232  11.576   0.712  12.404
55465SOL     OW68233  12.927   0.862  14.361
55465SOL    HW168234  12.948   0.917  14.286
55465SOL    HW268235  12.952   0.773  14.334
55466SOL     OW68236   7.496   9.221   5.378
55466SOL    HW168237   7.514   9.291   5.440
55466SOL    HW268238   7.544   9.245   5.299
55467SOL     OW68239   0.730   0.956   2.295
55467SOL    HW168240   0.662   0.890   2.308
55467SOL    HW268241   0.717   0.986   2.205
55468SOL     OW68242   7.963  14.580   3.275
55468SOL    HW168243   8.014  14.621   3.205
55468SOL    HW268244   7.993  14.489   3.276
55469SOL     OW68245   2.514  14.561  13.205
55469SOL    HW168246   2.608  14.572  13.189
55469SOL    HW268247   2.490  14.635  13.259
55470SOL     OW68248   5.071  14.188  11.779
55470SOL    HW168249   5.159  14.212  11.750
55470SOL    HW268250   5.074  14.197  11.875
55471SOL     OW68251   4.392   7.989   7.642
55471SOL    HW168252   4.431   8.071   7.613
55471SOL    HW268253   4.421   7.925   7.578
55472SOL     OW68254   1.664   3.285   3.824
55472SOL    HW168255   1.595   3.231   3.786
55472SOL    HW268256   1.739   3.226   3.830
55473SOL     OW68257  14.292   6.922   6.660
55473SOL    HW168258  14.215   6.870   6.636
55473SOL    HW268259  14.265   7.012   6.646
55474SOL     OW68260   3.532   9.511   8.844
55474SOL    HW168261   3.459   9.456   8.873
55474SOL    HW268262   3.544   9.574   8.915
55475SOL     OW68263   7.131   9.221  12.936
55475SOL    HW168264   7.155   9.313  12.946
55475SOL    HW268265   7.174   9.194  12.854
55476SOL     OW68266  12.841  11.771   5.797
55476SOL    HW168267  12.882  11.758   5.711
55476SOL    HW268268  12.907  11.741   5.860
55477SOL     OW68269   0.748  11.883   6.479
55477SOL    HW168270   0.730  11.874   6.573
55477SOL    HW268271   0.726  11.974   6.459
55478SOL     OW68272  10.476  11.930   5.997
55478SOL    HW168273  10.507  12.020   5.983
55478SOL    HW268274  10.483  11.917   6.091
55479SOL     OW68275  14.694   8.771   3.673
55479SOL    HW168276  14.750   8.694   3.676
55479SOL    HW268277  14.754   8.845   3.687
55480SOL     OW68278  12.505   0.019   3.912
55480SOL    HW168279  12.506   0.105   3.868
55480SOL    HW268280  12.474   0.037   4.000
55481SOL     OW68281   2.602   0.324   8.792
55481SOL    HW168282   2.576   0.315   8.700
55481SOL    HW268283   2.679   0.380   8.790
55482SOL     OW68284  13.087  14.672   5.730
55482SOL    HW168285  13.070  14.725   5.809
55482SOL    HW268286  13.163  14.713   5.689
55483SOL     OW68287   3.378  13.501   6.498
55483SOL    HW168288   3.285  13.522   6.490
55483SOL    HW268289   3.407  13.549   6.576
55484SOL     OW68290  13.609  10.633  12.487
55484SOL    HW168291  13.529  10.594  12.451
55484SOL    HW268292  13.651  10.562  12.536
55485SOL     OW68293  11.202   9.232   2.984
55485SOL    HW168294  11.190   9.326   2.972
55485SOL    HW268295  11.127   9.205   3.036
55486SOL     OW68296  13.867  12.018   0.504
55486SOL    HW168297  13.931  12.078   0.541
55486SOL    HW268298  13.802  12.007   0.573
55487SOL     OW68299  14.254  10.719   6.565
55487SOL    HW168300  14.258  10.626   6.544
55487SOL    HW268301  14.335  10.736   6.614
55488SOL     OW68302   0.901  13.471  11.941
55488SOL    HW168303   0.904  13.408  12.012
55488SOL    HW268304   0.816  13.455  11.899
55489SOL     OW68305  12.816   3.297   6.049
55489SOL    HW168306  12.881   3.351   6.094
55489SOL    HW268307  12.866   3.254   5.979
55490SOL     OW68308  10.753   2.859  11.848
55490SOL    HW168309  10.658   2.871  11.857
55490SOL    HW268310  10.781   2.830  11.935
55491SOL     OW68311  10.423   8.138   2.837
55491SOL    HW168312  10.462   8.195   2.903
55491SOL    HW268313  10.328   8.148   2.850
55492SOL     OW68314   2.850  10.777  12.720
55492SOL    HW168315   2.813  10.769  12.807
55492SOL    HW268316   2.925  10.718  12.719
55493SOL     OW68317   9.785   9.452   9.417
55493SOL    HW168318   9.794   9.527   9.359
55493SOL    HW268319   9.834   9.382   9.373
55494SOL     OW68320   7.296   7.140   7.312
55494SOL    HW168321   7.379   7.097   7.292
55494SOL    HW268322   7.308   7.175   7.400
55495SOL     OW68323   7.967   7.417   7.228
55495SOL    HW168324   7.917   7.456   7.156
55495SOL    HW268325   7.918   7.441   7.307
55496SOL     OW68326  14.854  11.808  10.733
55496SOL    HW168327  14.872  11.714  10.745
55496SOL    HW268328   0.027  11.850  10.806
55497SOL     OW68329  12.740  12.794   2.655
55497SOL    HW168330  12.759  12.755   2.740
55497SOL    HW268331  12.694  12.725   2.607
55498SOL     OW68332  13.638  10.959   3.339
55498SOL    HW168333  13.641  10.959   3.434
55498SOL    HW268334  13.545  10.945   3.318
55499SOL     OW68335  10.560  12.907   6.267
55499SOL    HW168336  10.507  12.881   6.342
55499SOL    HW268337  10.601  12.990   6.295
55500SOL     OW68338   0.805  10.093   7.067
55500SOL    HW168339   0.732  10.033   7.074
55500SOL    HW268340   0.767  10.174   7.034
55501SOL     OW68341   6.962   7.024   8.406
55501SOL    HW168342   7.046   6.983   8.426
55501SOL    HW268343   6.901   6.950   8.398
55502SOL     OW68344   7.353   4.479   3.844
55502SOL    HW168345   7.393   4.542   3.905
55502SOL    HW268346   7.265   4.465   3.879
55503SOL     OW68347   3.442   2.861  12.009
55503SOL    HW168348   3.487   2.918  11.946
55503SOL    HW268349   3.512   2.809  12.048
55504SOL     OW68350   1.287   9.642   7.439
55504SOL    HW168351   1.370   9.612   7.402
55504SOL    HW268352   1.271   9.584   7.513
55505SOL     OW68353   8.368   2.835   3.265
55505SOL    HW168354   8.281   2.861   3.296
55505SOL    HW268355   8.415   2.811   3.345
55506SOL     OW68356  14.056  12.669   2.550
55506SOL    HW168357  14.129  12.613   2.576
55506SOL    HW268358  14.034  12.640   2.461
55507SOL     OW68359  11.097  11.273  10.884
55507SOL    HW168360  11.028  11.245  10.824
55507SOL    HW268361  11.149  11.336  10.833
55508SOL     OW68362   5.831   4.052   0.226
55508SOL    HW168363   5.878   3.981   0.182
55508SOL    HW268364   5.885   4.073   0.303
55509SOL     OW68365  12.547  11.907  10.624
55509SOL    HW168366  12.633  11.925  10.586
55509SOL    HW268367  12.508  11.842  10.566
55510SOL     OW68368   0.110  12.681   3.731
55510SOL    HW168369   0.049  12.609   3.747
55510SOL    HW268370   0.062  12.741   3.674
55511SOL     OW68371   4.495   3.552   8.949
55511SOL    HW168372   4.584   3.519   8.964
55511SOL    HW268373   4.492   3.635   8.996
55512SOL     OW68374   0.484  12.715   2.927
55512SOL    HW168375   0.533  12.635   2.944
55512SOL    HW268376   0.407  12.687   2.879
55513SOL     OW68377   7.273   1.626  10.430
55513SOL    HW168378   7.337   1.664  10.369
55513SOL    HW268379   7.235   1.552  10.381
55514SOL     OW68380   7.742   7.812  13.245
55514SOL    HW168381   7.680   7.877  13.278
55514SOL    HW268382   7.811   7.809  13.311
55515SOL     OW68383   6.584  13.666   3.432
55515SOL    HW168384   6.489  13.662   3.443
55515SOL    HW268385   6.617  13.591   3.481
55516SOL     OW68386   6.879   4.834   5.977
55516SOL    HW168387   6.916   4.807   5.893
55516SOL    HW268388   6.881   4.929   5.975
55517SOL     OW68389   5.018   7.713  13.026
55517SOL    HW168390   5.038   7.788  13.082
55517SOL    HW268391   4.941   7.673  13.067
55518SOL     OW68392  14.687  12.472  13.516
55518SOL    HW168393  14.758  12.409  13.521
55518SOL    HW268394  14.728  12.554  13.487
55519SOL     OW68395  10.778  13.846   0.541
55519SOL    HW168396  10.694  13.821   0.577
55519SOL    HW268397  10.799  13.929   0.583
55520SOL     OW68398  12.257   9.449  11.352
55520SOL    HW168399  12.225   9.371  11.308
55520SOL    HW268400  12.347   9.459  11.320
55521SOL     OW68401   0.832  13.485  10.963
55521SOL    HW168402   0.906  13.546  10.970
55521SOL    HW268403   0.867  13.411  10.913
55522SOL     OW68404   6.650   5.541   4.489
55522SOL    HW168405   6.606   5.623   4.468
55522SOL    HW268406   6.633   5.485   4.413
55523SOL     OW68407  11.912   1.671  13.170
55523SOL    HW168408  11.980   1.708  13.227
55523SOL    HW268409  11.912   1.577  13.191
55524SOL     OW68410  10.468   5.694   2.526
55524SOL    HW168411  10.534   5.737   2.471
55524SOL    HW268412  10.424   5.766   2.571
55525SOL     OW68413  10.463   3.209   4.869
55525SOL    HW168414  10.379   3.163   4.876
55525SOL    HW268415  10.490   3.223   4.959
55526SOL     OW68416   9.119   3.795   6.748
55526SOL    HW168417   9.142   3.737   6.676
55526SOL    HW268418   9.139   3.883   6.716
55527SOL     OW68419  11.002  13.904   7.898
55527SOL    HW168420  11.004  13.989   7.941
55527SOL    HW268421  11.012  13.840   7.970
55528SOL     OW68422   4.417   8.465  14.572
55528SOL    HW168423   4.450   8.555  14.565
55528SOL    HW268424   4.342   8.472  14.632
55529SOL     OW68425   4.899  13.140   5.598
55529SOL    HW168426   4.971  13.182   5.645
55529SOL    HW268427   4.891  13.054   5.638
55530SOL     OW68428   9.418   5.615  12.452
55530SOL    HW168429   9.499   5.578  12.417
55530SOL    HW268430   9.398   5.688  12.394
55531SOL     OW68431   6.311   4.887   8.094
55531SOL    HW168432   6.307   4.888   7.998
55531SOL    HW268433   6.293   4.796   8.117
55532SOL     OW68434   3.717   0.859   8.170
55532SOL    HW168435   3.776   0.932   8.151
55532SOL    HW268436   3.680   0.879   8.256
55533SOL     OW68437   6.348   5.850   2.295
55533SOL    HW168438   6.295   5.809   2.227
55533SOL    HW268439   6.396   5.778   2.336
55534SOL     OW68440   5.216  10.426   6.343
55534SOL    HW168441   5.147  10.359   6.344
55534SOL    HW268442   5.293  10.380   6.312
55535SOL     OW68443  11.681  12.334   4.996
55535SOL    HW168444  11.629  12.298   4.924
55535SOL    HW268445  11.665  12.273   5.069
55536SOL     OW68446   2.476   0.497   6.502
55536SOL    HW168447   2.572   0.500   6.508
55536SOL    HW268448   2.446   0.512   6.591
55537SOL     OW68449   7.690   0.692   6.068
55537SOL    HW168450   7.635   0.701   5.990
55537SOL    HW268451   7.755   0.762   6.059
55538SOL     OW68452   5.130   4.312   4.870
55538SOL    HW168453   5.201   4.248   4.868
55538SOL    HW268454   5.173   4.396   4.853
55539SOL     OW68455   1.930  13.446   8.308
55539SOL    HW168456   2.013  13.484   8.338
55539SOL    HW268457   1.888  13.516   8.258
55540SOL     OW68458   7.780  14.117   3.716
55540SOL    HW168459   7.730  14.098   3.795
55540SOL    HW268460   7.717  14.157   3.656
55541SOL     OW68461  13.471   9.976   3.800
55541SOL    HW168462  13.483  10.031   3.723
55541SOL    HW268463  13.559   9.963   3.835
55542SOL     OW68464  11.906   9.930   7.240
55542SOL    HW168465  11.825   9.898   7.280
55542SOL    HW268466  11.972   9.866   7.264
55543SOL     OW68467   3.909  13.516   4.351
55543SOL    HW168468   3.975  13.450   4.332
55543SOL    HW268469   3.950  13.573   4.416
55544SOL     OW68470  12.960   0.246   5.110
55544SOL    HW168471  13.049   0.282   5.104
55544SOL    HW268472  12.935   0.230   5.019
55545SOL     OW68473   1.974  10.822  11.160
55545SOL    HW168474   2.050  10.866  11.122
55545SOL    HW268475   2.010  10.759  11.222
55546SOL     OW68476   8.357  14.075   7.411
55546SOL    HW168477   8.435  14.122   7.385
55546SOL    HW268478   8.389  13.988   7.438
55547SOL     OW68479  12.144   0.297  10.575
55547SOL    HW168480  12.234   0.264  10.572
55547SOL    HW268481  12.122   0.314  10.484
55548SOL     OW68482  13.274   6.280  11.350
55548SOL    HW168483  13.249   6.198  11.308
55548SOL    HW268484  13.240   6.348  11.292
55549SOL     OW68485   4.213   3.009  13.583
55549SOL    HW168486   4.217   3.104  13.572
55549SOL    HW268487   4.302   2.979  13.562
55550SOL     OW68488   6.502   6.782  13.838
55550SOL    HW168489   6.513   6.830  13.757
55550SOL    HW268490   6.527   6.692  13.817
55551SOL     OW68491  12.132   1.049   4.529
55551SOL    HW168492  12.044   1.018   4.547
55551SOL    HW268493  12.126   1.091   4.443
55552SOL     OW68494  10.149  12.697  13.018
55552SOL    HW168495  10.064  12.655  13.031
55552SOL    HW268496  10.191  12.646  12.949
55553SOL     OW68497  10.852   6.273  13.375
55553SOL    HW168498  10.840   6.314  13.461
55553SOL    HW268499  10.902   6.337  13.324
55554SOL     OW68500   3.495   7.162  13.352
55554SOL    HW168501   3.465   7.074  13.329
55554SOL    HW268502   3.545   7.149  13.432
55555SOL     OW68503   1.649  13.625  11.921
55555SOL    HW168504   1.623  13.667  12.004
55555SOL    HW268505   1.717  13.682  11.886
55556SOL     OW68506   0.952  14.679   1.207
55556SOL    HW168507   0.861  14.672   1.179
55556SOL    HW268508   0.969  14.772   1.215
55557SOL     OW68509   4.338   7.329   4.083
55557SOL    HW168510   4.273   7.343   4.153
55557SOL    HW268511   4.408   7.391   4.103
55558SOL     OW68512  10.891   7.495  13.787
55558SOL    HW168513  10.888   7.438  13.864
55558SOL    HW268514  10.883   7.435  13.713
55559SOL     OW68515  10.741  13.232   7.034
55559SOL    HW168516  10.647  13.216   7.038
55559SOL    HW268517  10.764  13.264   7.122
55560SOL     OW68518  12.465   0.026  11.139
55560SOL    HW168519  12.499   0.041  11.227
55560SOL    HW268520  12.392  14.839  11.151
55561SOL     OW68521  11.479   1.482  12.399
55561SOL    HW168522  11.384   1.475  12.411
55561SOL    HW268523  11.515   1.468  12.486
55562SOL     OW68524  14.258   3.278   5.614
55562SOL    HW168525  14.239   3.187   5.591
55562SOL    HW268526  14.255   3.325   5.531
55563SOL     OW68527   8.982  11.480  12.368
55563SOL    HW168528   8.972  11.545  12.298
55563SOL    HW268529   8.995  11.532  12.447
55564SOL     OW68530   0.126   1.091  13.320
55564SOL    HW168531   0.053   1.148  13.294
55564SOL    HW268532   0.181   1.085  13.242
55565SOL     OW68533   6.817  12.616   5.152
55565SOL    HW168534   6.812  12.631   5.057
55565SOL    HW268535   6.901  12.653   5.178
55566SOL     OW68536   7.136   7.152   1.508
55566SOL    HW168537   7.085   7.216   1.458
55566SOL    HW268538   7.083   7.134   1.586
55567SOL     OW68539   0.022   8.496   2.956
55567SOL    HW168540  14.805   8.526   2.942
55567SOL    HW268541   0.073   8.576   2.963
55568SOL     OW68542   2.087   4.211   9.345
55568SOL    HW168543   2.093   4.282   9.281
55568SOL    HW268544   2.000   4.173   9.330
55569SOL     OW68545   8.783   4.483   3.945
55569SOL    HW168546   8.869   4.444   3.958
55569SOL    HW268547   8.740   4.475   4.031
55570SOL     OW68548  11.979   6.219  14.229
55570SOL    HW168549  11.988   6.127  14.253
55570SOL    HW268550  12.041   6.265  14.286
55571SOL     OW68551  12.325  13.768   8.792
55571SOL    HW168552  12.398  13.827   8.810
55571SOL    HW268553  12.273  13.770   8.872
55572SOL     OW68554   3.320   4.015  11.811
55572SOL    HW168555   3.330   3.941  11.751
55572SOL    HW268556   3.247   4.066  11.775
55573SOL     OW68557  12.377   9.768   0.419
55573SOL    HW168558  12.410   9.806   0.501
55573SOL    HW268559  12.422   9.818   0.351
55574SOL     OW68560   1.712  13.193   0.051
55574SOL    HW168561   1.784  13.196  14.860
55574SOL    HW268562   1.639  13.155   0.003
55575SOL     OW68563  14.073  13.981   0.151
55575SOL    HW168564  14.038  14.070   0.147
55575SOL    HW268565  14.002  13.929   0.189
55576SOL     OW68566   2.770   4.970  10.206
55576SOL    HW168567   2.746   5.002  10.119
55576SOL    HW268568   2.721   4.888  10.215
55577SOL     OW68569   5.038   3.731   0.892
55577SOL    HW168570   5.118   3.707   0.938
55577SOL    HW268571   4.972   3.670   0.925
55578SOL     OW68572   9.098  13.166  13.395
55578SOL    HW168573   9.184  13.206  13.408
55578SOL    HW268574   9.108  13.114  13.315
55579SOL     OW68575   7.860  12.700  14.737
55579SOL    HW168576   7.952  12.720  14.724
55579SOL    HW268577   7.822  12.780  14.773
55580SOL     OW68578   2.206  11.752   7.857
55580SOL    HW168579   2.123  11.798   7.865
55580SOL    HW268580   2.187  11.677   7.801
55581SOL     OW68581   3.503  13.067  14.754
55581SOL    HW168582   3.504  13.096  14.663
55581SOL    HW268583   3.424  13.014  14.761
55582SOL     OW68584   0.185   0.199   8.461
55582SOL    HW168585   0.276   0.231   8.457
55582SOL    HW268586   0.165   0.176   8.370
55583SOL     OW68587  12.877  12.075  11.564
55583SOL    HW168588  12.942  12.070  11.633
55583SOL    HW268589  12.895  11.999  11.508
55584SOL     OW68590   0.883  12.368   7.575
55584SOL    HW168591   0.859  12.460   7.580
55584SOL    HW268592   0.818  12.323   7.629
55585SOL     OW68593   0.794  10.088   6.528
55585SOL    HW168594   0.742  10.008   6.520
55585SOL    HW268595   0.834  10.082   6.614
55586SOL     OW68596  14.306  14.484  13.858
55586SOL    HW168597  14.315  14.568  13.902
55586SOL    HW268598  14.291  14.506  13.766
55587SOL     OW68599   1.197   0.025  10.651
55587SOL    HW168600   1.272   0.076  10.680
55587SOL    HW268601   1.130   0.040  10.718
55588SOL     OW68602   6.101  13.330   9.661
55588SOL    HW168603   6.129  13.386   9.733
55588SOL    HW268604   6.024  13.283   9.694
55589SOL     OW68605  12.654   1.743  11.022
55589SOL    HW168606  12.669   1.775  10.933
55589SOL    HW268607  12.703   1.802  11.079
55590SOL     OW68608   8.398   6.765   4.914
55590SOL    HW168609   8.385   6.850   4.871
55590SOL    HW268610   8.382   6.783   5.006
55591SOL     OW68611   1.310  13.580  13.481
55591SOL    HW168612   1.250  13.508  13.500
55591SOL    HW268613   1.253  13.654  13.460
55592SOL     OW68614   0.978   4.463   6.066
55592SOL    HW168615   0.896   4.511   6.055
55592SOL    HW268616   1.028   4.515   6.129
55593SOL     OW68617  13.645   4.094  12.473
55593SOL    HW168618  13.579   4.099  12.542
55593SOL    HW268619  13.594   4.077  12.393
55594SOL     OW68620   7.633  10.630   9.990
55594SOL    HW168621   7.689  10.706   9.973
55594SOL    HW268622   7.573  10.628   9.915
55595SOL     OW68623   2.283   9.935   9.415
55595SOL    HW168624   2.217   9.958   9.480
55595SOL    HW268625   2.308   9.845   9.438
55596SOL     OW68626  11.826  12.714   5.325
55596SOL    HW168627  11.763  12.693   5.256
55596SOL    HW268628  11.890  12.771   5.283
55597SOL     OW68629   8.746   0.208   8.709
55597SOL    HW168630   8.824   0.174   8.752
55597SOL    HW268631   8.778   0.274   8.649
55598SOL     OW68632   3.852   2.052  14.454
55598SOL    HW168633   3.857   2.029  14.361
55598SOL    HW268634   3.909   1.988  14.497
55599SOL     OW68635   1.377   4.772   2.834
55599SOL    HW168636   1.299   4.735   2.792
55599SOL    HW268637   1.342   4.833   2.898
55600SOL     OW68638  14.740   5.693   3.996
55600SOL    HW168639  14.703   5.619   4.044
55600SOL    HW268640  14.663   5.743   3.966
55601SOL     OW68641  12.607   3.442  10.681
55601SOL    HW168642  12.546   3.510  10.651
55601SOL    HW268643  12.690   3.488  10.692
55602SOL     OW68644  10.159   6.024   4.798
55602SOL    HW168645  10.251   6.030   4.774
55602SOL    HW268646  10.144   5.932   4.817
55603SOL     OW68647  14.629   8.406   2.107
55603SOL    HW168648  14.707   8.413   2.052
55603SOL    HW268649  14.568   8.353   2.056
55604SOL     OW68650   8.875   4.700   2.937
55604SOL    HW168651   8.814   4.627   2.924
55604SOL    HW268652   8.899   4.728   2.849
55605SOL     OW68653   4.610   8.849   8.839
55605SOL    HW168654   4.660   8.841   8.920
55605SOL    HW268655   4.595   8.943   8.829
55606SOL     OW68656  12.872   6.478   3.341
55606SOL    HW168657  12.786   6.490   3.301
55606SOL    HW268658  12.900   6.391   3.313
55607SOL     OW68659   9.286  11.630  12.096
55607SOL    HW168660   9.355  11.563  12.091
55607SOL    HW268661   9.278  11.661  12.006
55608SOL     OW68662   8.171   8.310   4.886
55608SOL    HW168663   8.157   8.350   4.801
55608SOL    HW268664   8.265   8.292   4.890
55609SOL     OW68665   9.367  10.456   8.588
55609SOL    HW168666   9.328  10.510   8.656
55609SOL    HW268667   9.293  10.413   8.546
55610SOL     OW68668   6.383  14.847   8.752
55610SOL    HW168669   6.448   0.041   8.772
55610SOL    HW268670   6.432  14.765   8.756
55611SOL     OW68671   8.172   1.693  11.630
55611SOL    HW168672   8.190   1.635  11.704
55611SOL    HW268673   8.113   1.759  11.665
55612SOL     OW68674  12.695   4.219  11.643
55612SOL    HW168675  12.641   4.223  11.564
55612SOL    HW268676  12.748   4.140  11.632
55613SOL     OW68677   7.779   1.670  13.357
55613SOL    HW168678   7.860   1.714  13.380
55613SOL    HW268679   7.732   1.660  13.440
55614SOL     OW68680  12.408   7.340   8.984
55614SOL    HW168681  12.343   7.292   9.035
55614SOL    HW268682  12.474   7.367   9.048
55615SOL     OW68683   4.717   6.875   1.770
55615SOL    HW168684   4.754   6.917   1.692
55615SOL    HW268685   4.742   6.783   1.762
55616SOL     OW68686  13.489   5.449   6.167
55616SOL    HW168687  13.556   5.393   6.206
55616SOL    HW268688  13.494   5.530   6.218
55617SOL     OW68689   7.484   2.502   5.807
55617SOL    HW168690   7.533   2.519   5.887
55617SOL    HW268691   7.478   2.407   5.802
55618SOL     OW68692   2.883   5.771   3.382
55618SOL    HW168693   2.962   5.825   3.373
55618SOL    HW268694   2.815   5.821   3.337
55619SOL     OW68695   3.838   1.978  13.424
55619SOL    HW168696   3.761   1.928  13.396
55619SOL    HW268697   3.808   2.069  13.427
55620SOL     OW68698   8.392   0.023   0.062
55620SOL    HW168699   8.481   0.045   0.089
55620SOL    HW268700   8.400  14.813   0.017
55621SOL     OW68701  11.632   3.712  10.932
55621SOL    HW168702  11.694   3.779  10.904
55621SOL    HW268703  11.589   3.683  10.851
55622SOL     OW68704  12.000   0.095   9.428
55622SOL    HW168705  11.913   0.124   9.453
55622SOL    HW268706  11.988   0.004   9.400
55623SOL     OW68707   6.555   5.056  12.031
55623SOL    HW168708   6.510   4.980  12.067
55623SOL    HW268709   6.488   5.125  12.030
55624SOL     OW68710   8.306   2.014   1.444
55624SOL    HW168711   8.324   1.931   1.402
55624SOL    HW268712   8.294   1.992   1.537
55625SOL     OW68713   5.739   2.254   3.044
55625SOL    HW168714   5.664   2.309   3.066
55625SOL    HW268715   5.715   2.167   3.076
55626SOL     OW68716   8.411   0.653  11.559
55626SOL    HW168717   8.453   0.733  11.589
55626SOL    HW268718   8.339   0.638  11.621
55627SOL     OW68719   5.480   8.112  13.635
55627SOL    HW168720   5.533   8.033  13.638
55627SOL    HW268721   5.501   8.159  13.715
55628SOL     OW68722   2.415   5.685  12.983
55628SOL    HW168723   2.390   5.732  13.063
55628SOL    HW268724   2.493   5.635  13.008
55629SOL     OW68725   2.322  14.561   3.012
55629SOL    HW168726   2.241  14.591   2.970
55629SOL    HW268727   2.366  14.508   2.945
55630SOL     OW68728  10.917  14.573   0.271
55630SOL    HW168729  11.000  14.610   0.301
55630SOL    HW268730  10.851  14.612   0.329
55631SOL     OW68731  14.381   2.560  10.523
55631SOL    HW168732  14.447   2.544  10.455
55631SOL    HW268733  14.410   2.641  10.566
55632SOL     OW68734  10.138   0.534   9.889
55632SOL    HW168735  10.203   0.587   9.934
55632SOL    HW268736  10.128   0.577   9.804
55633SOL     OW68737   9.124  11.790   1.413
55633SOL    HW168738   9.067  11.822   1.342
55633SOL    HW268739   9.131  11.864   1.473
55634SOL     OW68740   2.359   9.860  11.003
55634SOL    HW168741   2.386   9.792  11.064
55634SOL    HW268742   2.337   9.813  10.922
55635SOL     OW68743  12.206   2.699  11.340
55635SOL    HW168744  12.196   2.654  11.256
55635SOL    HW268745  12.270   2.647  11.388
55636SOL     OW68746  10.702  13.899   9.858
55636SOL    HW168747  10.649  13.909   9.937
55636SOL    HW268748  10.784  13.945   9.879
55637SOL     OW68749  14.525   0.187   8.584
55637SOL    HW168750  14.453   0.123   8.581
55637SOL    HW268751  14.604   0.133   8.576
55638SOL     OW68752   0.071  11.717   0.046
55638SOL    HW168753   0.091  11.626   0.067
55638SOL    HW268754  14.849  11.723   0.055
55639SOL     OW68755   4.109   8.412   0.855
55639SOL    HW168756   4.189   8.363   0.875
55639SOL    HW268757   4.038   8.355   0.886
55640SOL     OW68758  14.550   3.189  12.099
55640SOL    HW168759  14.579   3.280  12.105
55640SOL    HW268760  14.624   3.144  12.058
55641SOL     OW68761   5.892  14.451   4.417
55641SOL    HW168762   5.884  14.383   4.484
55641SOL    HW268763   5.817  14.509   4.433
55642SOL     OW68764  11.983   9.902   0.138
55642SOL    HW168765  11.969   9.885   0.045
55642SOL    HW268766  12.067   9.947   0.142
55643SOL     OW68767  14.214   3.735   4.136
55643SOL    HW168768  14.154   3.786   4.082
55643SOL    HW268769  14.167   3.653   4.152
55644SOL     OW68770   6.785   2.092   7.024
55644SOL    HW168771   6.706   2.095   6.970
55644SOL    HW268772   6.838   2.023   6.986
55645SOL     OW68773   3.852   7.433  11.115
55645SOL    HW168774   3.815   7.517  11.088
55645SOL    HW268775   3.777   7.375  11.123
55646SOL     OW68776   2.259   0.245   4.108
55646SOL    HW168777   2.347   0.211   4.090
55646SOL    HW268778   2.215   0.173   4.153
55647SOL     OW68779   1.078   8.794  12.384
55647SOL    HW168780   1.102   8.861  12.320
55647SOL    HW268781   1.133   8.814  12.460
55648SOL     OW68782  13.179   9.479   3.381
55648SOL    HW168783  13.169   9.517   3.468
55648SOL    HW268784  13.103   9.510   3.331
55649SOL     OW68785  10.962   0.660  13.757
55649SOL    HW168786  10.925   0.747  13.742
55649SOL    HW268787  11.055   0.676  13.770
55650SOL     OW68788   8.843  11.349  14.769
55650SOL    HW168789   8.932  11.369  14.741
55650SOL    HW268790   8.830  11.404  14.846
55651SOL     OW68791  10.960  10.148   8.379
55651SOL    HW168792  10.899  10.152   8.306
55651SOL    HW268793  10.940  10.226   8.431
55652SOL     OW68794   4.942   7.056   5.636
55652SOL    HW168795   5.038   7.059   5.633
55652SOL    HW268796   4.915   7.066   5.545
55653SOL     OW68797  11.753   7.773   7.138
55653SOL    HW168798  11.767   7.693   7.189
55653SOL    HW268799  11.673   7.756   7.088
55654SOL     OW68800  13.086  10.569   6.145
55654SOL    HW168801  13.176  10.602   6.138
55654SOL    HW268802  13.093  10.476   6.121
55655SOL     OW68803  12.902   4.273   9.109
55655SOL    HW168804  12.952   4.338   9.160
55655SOL    HW268805  12.958   4.253   9.034
55656SOL     OW68806   0.475  14.211   1.049
55656SOL    HW168807   0.504  14.235   0.961
55656SOL    HW268808   0.543  14.245   1.107
55657SOL     OW68809   5.765  12.854  13.432
55657SOL    HW168810   5.681  12.900  13.442
55657SOL    HW268811   5.777  12.808  13.514
55658SOL     OW68812   7.993   9.350   9.651
55658SOL    HW168813   7.964   9.286   9.716
55658SOL    HW268814   7.914   9.370   9.601
55659SOL     OW68815   2.587  11.732   3.140
55659SOL    HW168816   2.639  11.657   3.110
55659SOL    HW268817   2.522  11.745   3.072
55660SOL     OW68818  12.897   4.093   7.972
55660SOL    HW168819  12.802   4.098   7.961
55660SOL    HW268820  12.927   4.184   7.961
55661SOL     OW68821   2.855  12.633  13.015
55661SOL    HW168822   2.770  12.590  13.018
55661SOL    HW268823   2.887  12.616  12.926
55662SOL     OW68824  12.446  10.430   2.896
55662SOL    HW168825  12.376  10.470   2.948
55662SOL    HW268826  12.486  10.366   2.955
55663SOL     OW68827   2.038   6.703  14.392
55663SOL    HW168828   1.972   6.740  14.451
55663SOL    HW268829   2.066   6.778  14.339
55664SOL     OW68830   1.800   5.450   4.827
55664SOL    HW168831   1.803   5.354   4.824
55664SOL    HW268832   1.817   5.477   4.736
55665SOL     OW68833  14.151   2.861  11.345
55665SOL    HW168834  14.136   2.823  11.258
55665SOL    HW268835  14.120   2.794  11.406
55666SOL     OW68836   3.503  12.018  11.110
55666SOL    HW168837   3.531  12.022  11.202
55666SOL    HW268838   3.480  11.926  11.096
55667SOL     OW68839   8.286  12.531   7.818
55667SOL    HW168840   8.241  12.448   7.833
55667SOL    HW268841   8.277  12.547   7.724
55668SOL     OW68842  12.196   6.684   8.376
55668SOL    HW168843  12.176   6.603   8.423
55668SOL    HW268844  12.136   6.684   8.301
55669SOL     OW68845  14.287   2.342  10.914
55669SOL    HW168846  14.251   2.415  10.864
55669SOL    HW268847  14.240   2.265  10.881
55670SOL     OW68848   6.843   9.995   0.868
55670SOL    HW168849   6.904   9.944   0.815
55670SOL    HW268850   6.774   9.932   0.893
55671SOL     OW68851   9.150  11.942  14.258
55671SOL    HW168852   9.172  11.884  14.331
55671SOL    HW268853   9.202  11.910  14.185
55672SOL     OW68854   0.781   3.206   2.501
55672SOL    HW168855   0.803   3.290   2.462
55672SOL    HW268856   0.753   3.226   2.590
55673SOL     OW68857  13.354   4.604   7.767
55673SOL    HW168858  13.326   4.549   7.840
55673SOL    HW268859  13.321   4.558   7.689
55674SOL     OW68860  14.588  12.258   8.890
55674SOL    HW168861  14.663  12.281   8.836
55674SOL    HW268862  14.513  12.295   8.843
55675SOL     OW68863   7.324   5.855   0.313
55675SOL    HW168864   7.280   5.792   0.255
55675SOL    HW268865   7.335   5.933   0.259
55676SOL     OW68866   7.543  10.368   6.988
55676SOL    HW168867   7.458  10.332   6.963
55676SOL    HW268868   7.531  10.463   6.983
55677SOL     OW68869   7.436   2.443   4.388
55677SOL    HW168870   7.514   2.451   4.442
55677SOL    HW268871   7.412   2.533   4.366
55678SOL     OW68872   7.263   6.469   8.661
55678SOL    HW168873   7.333   6.404   8.669
55678SOL    HW268874   7.282   6.515   8.579
55679SOL     OW68875  11.393   4.893   1.411
55679SOL    HW168876  11.372   4.963   1.472
55679SOL    HW268877  11.443   4.830   1.462
55680SOL     OW68878   4.801   3.696   9.641
55680SOL    HW168879   4.730   3.747   9.603
55680SOL    HW268880   4.806   3.724   9.732
55681SOL     OW68881   5.217   9.375   6.032
55681SOL    HW168882   5.242   9.419   6.113
55681SOL    HW268883   5.145   9.427   5.998
55682SOL     OW68884   9.797   9.382   6.080
55682SOL    HW168885   9.798   9.294   6.043
55682SOL    HW268886   9.888   9.412   6.070
55683SOL     OW68887   0.399  12.691   0.880
55683SOL    HW168888   0.490  12.720   0.883
55683SOL    HW268889   0.348  12.772   0.883
55684SOL     OW68890   0.057   1.657   0.106
55684SOL    HW168891   0.126   1.722   0.122
55684SOL    HW268892  14.856   1.688   0.157
55685SOL     OW68893  14.118   9.335   4.059
55685SOL    HW168894  14.155   9.423   4.058
55685SOL    HW268895  14.193   9.277   4.044
55686SOL     OW68896   7.970  12.916   6.813
55686SOL    HW168897   7.997  12.986   6.872
55686SOL    HW268898   7.958  12.840   6.870
55687SOL     OW68899   8.595   8.766   1.742
55687SOL    HW168900   8.657   8.729   1.680
55687SOL    HW268901   8.641   8.840   1.781
55688SOL     OW68902   2.624  14.709   1.121
55688SOL    HW168903   2.716  14.738   1.127
55688SOL    HW268904   2.574  14.787   1.145
55689SOL     OW68905   6.867   3.126  10.790
55689SOL    HW168906   6.860   3.121  10.695
55689SOL    HW268907   6.962   3.131  10.806
55690SOL     OW68908  14.536  14.681  11.273
55690SOL    HW168909  14.616  14.684  11.325
55690SOL    HW268910  14.529  14.590  11.244
55691SOL     OW68911   5.685   6.600   4.713
55691SOL    HW168912   5.613   6.632   4.767
55691SOL    HW268913   5.675   6.646   4.630
55692SOL     OW68914   0.552   5.950   0.184
55692SOL    HW168915   0.498   5.912   0.115
55692SOL    HW268916   0.641   5.952   0.147
55693SOL     OW68917  10.583   3.860   2.847
55693SOL    HW168918  10.618   3.907   2.770
55693SOL    HW268919  10.513   3.917   2.880
55694SOL     OW68920  12.594   7.665   6.486
55694SOL    HW168921  12.613   7.675   6.579
55694SOL    HW268922  12.568   7.752   6.457
55695SOL     OW68923  12.389  13.225   2.870
55695SOL    HW168924  12.445  13.216   2.793
55695SOL    HW268925  12.304  13.252   2.835
55696SOL     OW68926   5.512   0.293   4.846
55696SOL    HW168927   5.461   0.307   4.766
55696SOL    HW268928   5.595   0.256   4.816
55697SOL     OW68929   4.532   3.007   6.466
55697SOL    HW168930   4.593   3.026   6.396
55697SOL    HW268931   4.523   3.091   6.513
55698SOL     OW68932   0.211   8.792   9.136
55698SOL    HW168933   0.243   8.856   9.073
55698SOL    HW268934   0.208   8.709   9.088
55699SOL     OW68935  11.782  13.917   1.097
55699SOL    HW168936  11.805  13.887   1.185
55699SOL    HW268937  11.687  13.923   1.097
55700SOL     OW68938  11.207  12.903   1.195
55700SOL    HW168939  11.164  12.821   1.217
55700SOL    HW268940  11.225  12.896   1.101
55701SOL     OW68941   3.106   4.112   6.607
55701SOL    HW168942   3.170   4.138   6.673
55701SOL    HW268943   3.159   4.076   6.535
55702SOL     OW68944   1.984  11.661   2.826
55702SOL    HW168945   1.938  11.615   2.756
55702SOL    HW268946   2.066  11.614   2.836
55703SOL     OW68947   2.079   0.831   4.773
55703SOL    HW168948   2.025   0.776   4.717
55703SOL    HW268949   2.075   0.918   4.732
55704SOL     OW68950   0.509  12.287   8.579
55704SOL    HW168951   0.466  12.206   8.549
55704SOL    HW268952   0.456  12.314   8.655
55705SOL     OW68953   3.405   4.409  11.683
55705SOL    HW168954   3.414   4.320  11.651
55705SOL    HW268955   3.382   4.460  11.605
55706SOL     OW68956   8.378  13.634  12.190
55706SOL    HW168957   8.445  13.607  12.252
55706SOL    HW268958   8.323  13.556  12.179
55707SOL     OW68959  11.979   1.800  12.616
55707SOL    HW168960  11.934   1.882  12.594
55707SOL    HW268961  11.997   1.806  12.710
55708SOL     OW68962   6.061   8.847  10.016
55708SOL    HW168963   6.046   8.754  10.029
55708SOL    HW268964   6.102   8.854   9.930
55709SOL     OW68965   1.493   1.899  11.035
55709SOL    HW168966   1.582   1.877  11.007
55709SOL    HW268967   1.454   1.815  11.060
55710SOL     OW68968  11.880   9.567   5.147
55710SOL    HW168969  11.814   9.591   5.213
55710SOL    HW268970  11.842   9.491   5.103
55711SOL     OW68971   0.021   3.806  14.837
55711SOL    HW168972   0.029   3.803  14.742
55711SOL    HW268973   0.109   3.824  14.869
55712SOL     OW68974   9.617  10.659  13.091
55712SOL    HW168975   9.639  10.581  13.041
55712SOL    HW268976   9.521  10.659  13.094
55713SOL     OW68977   7.712  11.239   5.221
55713SOL    HW168978   7.785  11.253   5.161
55713SOL    HW268979   7.660  11.318   5.215
55714SOL     OW68980   7.175   4.587  10.107
55714SOL    HW168981   7.080   4.600  10.111
55714SOL    HW268982   7.205   4.607  10.196
55715SOL     OW68983  10.985   4.880   6.850
55715SOL    HW168984  11.050   4.897   6.782
55715SOL    HW268985  11.036   4.870   6.930
55716SOL     OW68986   7.987   5.406   8.229
55716SOL    HW168987   7.952   5.384   8.143
55716SOL    HW268988   8.082   5.402   8.218
55717SOL     OW68989  13.201  12.285   5.368
55717SOL    HW168990  13.210  12.288   5.273
55717SOL    HW268991  13.263  12.351   5.400
55718SOL     OW68992  10.560   6.302   8.255
55718SOL    HW168993  10.524   6.364   8.319
55718SOL    HW268994  10.634   6.263   8.300
55719SOL     OW68995  10.176   8.721   6.323
55719SOL    HW168996  10.145   8.699   6.235
55719SOL    HW268997  10.160   8.815   6.330
55720SOL     OW68998   2.329  13.438   2.671
55720SOL    HW168999   2.398  13.438   2.605
55720SOL    HW269000   2.344  13.518   2.722
55721SOL     OW69001   8.024   0.285  11.827
55721SOL    HW169002   7.949   0.264  11.883
55721SOL    HW269003   8.048   0.374  11.852
55722SOL     OW69004   4.706  11.630   7.512
55722SOL    HW169005   4.763  11.640   7.589
55722SOL    HW269006   4.755  11.572   7.454
55723SOL     OW69007  12.486   2.747   2.679
55723SOL    HW169008  12.582   2.744   2.677
55723SOL    HW269009  12.464   2.820   2.622
55724SOL     OW69010   6.715   2.207  11.518
55724SOL    HW169011   6.641   2.147  11.529
55724SOL    HW269012   6.682   2.274  11.458
55725SOL     OW69013  10.416  13.820  10.552
55725SOL    HW169014  10.366  13.791  10.477
55725SOL    HW269015  10.420  13.915  10.543
55726SOL     OW69016   0.680   1.175  13.833
55726SOL    HW169017   0.684   1.148  13.742
55726SOL    HW269018   0.674   1.093  13.882
55727SOL     OW69019   1.569  13.382   1.071
55727SOL    HW169020   1.617  13.308   1.110
55727SOL    HW269021   1.638  13.441   1.042
55728SOL     OW69022   9.006   2.061   0.226
55728SOL    HW169023   9.022   1.967   0.223
55728SOL    HW269024   9.093   2.100   0.217
55729SOL     OW69025   3.978  10.341  12.621
55729SOL    HW169026   3.986  10.361  12.528
55729SOL    HW269027   4.021  10.413  12.666
55730SOL     OW69028   9.755   9.694   7.510
55730SOL    HW169029   9.815   9.633   7.553
55730SOL    HW269030   9.740   9.655   7.423
55731SOL     OW69031  10.324  11.204  12.419
55731SOL    HW169032  10.410  11.218  12.380
55731SOL    HW269033  10.324  11.111  12.444
55732SOL     OW69034   1.469   7.460   6.243
55732SOL    HW169035   1.459   7.399   6.169
55732SOL    HW269036   1.456   7.547   6.205
55733SOL     OW69037  12.615   0.751   1.495
55733SOL    HW169038  12.541   0.783   1.546
55733SOL    HW269039  12.576   0.702   1.423
55734SOL     OW69040   3.844  13.976   1.107
55734SOL    HW169041   3.931  13.938   1.094
55734SOL    HW269042   3.792  13.905   1.144
55735SOL     OW69043   9.648   0.010   8.156
55735SOL    HW169044   9.643  14.848   8.067
55735SOL    HW269045   9.558   0.035   8.176
55736SOL     OW69046   1.701   5.511   8.572
55736SOL    HW169047   1.657   5.554   8.498
55736SOL    HW269048   1.781   5.474   8.535
55737SOL     OW69049   9.340   1.777   2.884
55737SOL    HW169050   9.254   1.817   2.867
55737SOL    HW269051   9.339   1.697   2.832
55738SOL     OW69052   2.504   4.375   9.858
55738SOL    HW169053   2.454   4.455   9.875
55738SOL    HW269054   2.452   4.306   9.897
55739SOL     OW69055  13.144   8.383   9.076
55739SOL    HW169056  13.172   8.456   9.131
55739SOL    HW269057  13.163   8.413   8.986
55740SOL     OW69058  13.287   6.813   1.340
55740SOL    HW169059  13.369   6.861   1.351
55740SOL    HW269060  13.315   6.724   1.318
55741SOL     OW69061   3.444  14.394  10.855
55741SOL    HW169062   3.357  14.435  10.858
55741SOL    HW269063   3.425  14.300  10.851
55742SOL     OW69064   3.865  13.411  14.484
55742SOL    HW169065   3.851  13.428  14.577
55742SOL    HW269066   3.843  13.319  14.472
55743SOL     OW69067   6.978  10.707   0.062
55743SOL    HW169068   7.056  10.676   0.108
55743SOL    HW269069   6.919  10.737   0.131
55744SOL     OW69070   2.979   7.454   1.105
55744SOL    HW169071   2.899   7.495   1.139
55744SOL    HW269072   2.961   7.438   1.013
55745SOL     OW69073  11.902   7.080   6.878
55745SOL    HW169074  11.971   7.051   6.938
55745SOL    HW269075  11.847   7.137   6.932
55746SOL     OW69076   7.720   9.870  12.518
55746SOL    HW169077   7.785   9.932  12.485
55746SOL    HW269078   7.695   9.819  12.441
55747SOL     OW69079   7.658  11.545   6.298
55747SOL    HW169080   7.655  11.619   6.238
55747SOL    HW269081   7.606  11.477   6.255
55748SOL     OW69082   7.272  13.469  13.680
55748SOL    HW169083   7.209  13.526  13.637
55748SOL    HW269084   7.235  13.381  13.670
55749SOL     OW69085  12.240  11.503  13.736
55749SOL    HW169086  12.235  11.482  13.643
55749SOL    HW269087  12.190  11.584  13.745
55750SOL     OW69088   0.597  10.088  11.917
55750SOL    HW169089   0.680  10.069  11.873
55750SOL    HW269090   0.584  10.182  11.905
55751SOL     OW69091   8.062   5.971  12.374
55751SOL    HW169092   8.075   5.945  12.283
55751SOL    HW269093   8.024   6.059  12.369
55752SOL     OW69094   8.358  14.503   0.070
55752SOL    HW169095   8.434  14.511   0.126
55752SOL    HW269096   8.378  14.429   0.012
55753SOL     OW69097   1.409   4.751   3.960
55753SOL    HW169098   1.464   4.797   3.897
55753SOL    HW269099   1.469   4.698   4.011
55754SOL     OW69100   0.154  13.494  10.471
55754SOL    HW169101   0.097  13.467  10.399
55754SOL    HW269102   0.184  13.412  10.510
55755SOL     OW69103  10.698   1.735   7.783
55755SOL    HW169104  10.698   1.662   7.721
55755SOL    HW269105  10.709   1.813   7.728
55756SOL     OW69106   5.260   4.494  11.838
55756SOL    HW169107   5.245   4.586  11.860
55756SOL    HW269108   5.286   4.495  11.746
55757SOL     OW69109   5.581   0.789   7.106
55757SOL    HW169110   5.624   0.815   7.024
55757SOL    HW269111   5.501   0.841   7.108
55758SOL     OW69112   4.644  11.242  12.615
55758SOL    HW169113   4.739  11.243  12.617
55758SOL    HW269114   4.620  11.326  12.575
55759SOL     OW69115   8.860   2.748   6.659
55759SOL    HW169116   8.879   2.673   6.603
55759SOL    HW269117   8.804   2.714   6.728
55760SOL     OW69118   2.389   6.289  12.716
55760SOL    HW169119   2.484   6.295  12.725
55760SOL    HW269120   2.360   6.380  12.720
55761SOL     OW69121   5.952   6.870   9.108
55761SOL    HW169122   6.019   6.872   9.175
55761SOL    HW269123   5.989   6.922   9.036
55762SOL     OW69124  12.574  13.036  13.880
55762SOL    HW169125  12.501  13.057  13.822
55762SOL    HW269126  12.652  13.054  13.827
55763SOL     OW69127   3.375   7.587   4.543
55763SOL    HW169128   3.359   7.540   4.625
55763SOL    HW269129   3.341   7.528   4.475
55764SOL     OW69130   6.555   8.335   4.754
55764SOL    HW169131   6.644   8.347   4.786
55764SOL    HW269132   6.553   8.383   4.671
55765SOL     OW69133   5.239  13.031   9.947
55765SOL    HW169134   5.243  13.102   9.884
55765SOL    HW269135   5.271  13.069  10.029
55766SOL     OW69136   0.363  11.912   0.829
55766SOL    HW169137   0.289  11.911   0.890
55766SOL    HW269138   0.406  11.828   0.844
55767SOL     OW69139   5.998  13.479   9.007
55767SOL    HW169140   6.056  13.404   9.001
55767SOL    HW269141   6.040  13.548   8.955
55768SOL     OW69142  12.057   0.290  11.929
55768SOL    HW169143  12.098   0.236  11.862
55768SOL    HW269144  12.073   0.380  11.901
55769SOL     OW69145   3.405  11.776   9.978
55769SOL    HW169146   3.493  11.793   9.947
55769SOL    HW269147   3.348  11.804   9.907
55770SOL     OW69148  13.041   0.566   7.804
55770SOL    HW169149  13.072   0.553   7.715
55770SOL    HW269150  13.118   0.549   7.859
55771SOL     OW69151   9.417  12.785  12.647
55771SOL    HW169152   9.498  12.734  12.653
55771SOL    HW269153   9.348  12.720  12.637
55772SOL     OW69154   7.733   1.248   9.852
55772SOL    HW169155   7.660   1.197   9.818
55772SOL    HW269156   7.718   1.251   9.947
55773SOL     OW69157   4.084   8.597  12.104
55773SOL    HW169158   4.020   8.527  12.117
55773SOL    HW269159   4.080   8.648  12.185
55774SOL     OW69160   0.622   9.648  12.651
55774SOL    HW169161   0.572   9.720  12.611
55774SOL    HW269162   0.669   9.608  12.578
55775SOL     OW69163   0.342   3.260   2.620
55775SOL    HW169164   0.265   3.302   2.581
55775SOL    HW269165   0.406   3.331   2.628
55776SOL     OW69166   1.963   1.610  12.258
55776SOL    HW169167   2.031   1.675  12.275
55776SOL    HW269168   1.964   1.555  12.336
55777SOL     OW69169   5.584   7.471   7.145
55777SOL    HW169170   5.492   7.455   7.124
55777SOL    HW269171   5.622   7.506   7.064
55778SOL     OW69172   3.063   6.736   0.916
55778SOL    HW169173   3.029   6.701   0.834
55778SOL    HW269174   3.151   6.767   0.895
55779SOL     OW69175   0.703   7.998  14.263
55779SOL    HW169176   0.766   8.031  14.199
55779SOL    HW269177   0.757   7.965  14.335
55780SOL     OW69178   4.612   5.400  10.545
55780SOL    HW169179   4.700   5.406  10.506
55780SOL    HW269180   4.567   5.478  10.511
55781SOL     OW69181  13.848  10.278   3.830
55781SOL    HW169182  13.807  10.262   3.745
55781SOL    HW269183  13.920  10.338   3.811
55782SOL     OW69184   1.012  12.439  10.034
55782SOL    HW169185   0.934  12.403  10.076
55782SOL    HW269186   1.020  12.528  10.071
55783SOL     OW69187   5.486   4.222  14.593
55783SOL    HW169188   5.555   4.288  14.598
55783SOL    HW269189   5.433   4.236  14.671
55784SOL     OW69190  13.393  11.065  10.544
55784SOL    HW169191  13.416  11.154  10.571
55784SOL    HW269192  13.300  11.070  10.521
55785SOL     OW69193   1.164   8.969   6.523
55785SOL    HW169194   1.157   8.983   6.428
55785SOL    HW269195   1.120   9.045   6.561
55786SOL     OW69196   2.994   4.935   4.172
55786SOL    HW169197   2.928   4.965   4.109
55786SOL    HW269198   2.959   4.960   4.257
55787SOL     OW69199   0.459   5.686   7.593
55787SOL    HW169200   0.525   5.755   7.593
55787SOL    HW269201   0.500   5.613   7.547
55788SOL     OW69202   8.425  12.749   2.288
55788SOL    HW169203   8.435  12.753   2.193
55788SOL    HW269204   8.361  12.679   2.302
55789SOL     OW69205   4.452  10.077   9.595
55789SOL    HW169206   4.381  10.029   9.551
55789SOL    HW269207   4.497  10.124   9.525
55790SOL     OW69208   3.735   9.504   5.882
55790SOL    HW169209   3.809   9.513   5.942
55790SOL    HW269210   3.730   9.588   5.836
55791SOL     OW69211   2.698  12.214   0.476
55791SOL    HW169212   2.709  12.273   0.402
55791SOL    HW269213   2.706  12.270   0.554
55792SOL     OW69214  11.619   1.338   1.343
55792SOL    HW169215  11.582   1.293   1.268
55792SOL    HW269216  11.708   1.361   1.315
55793SOL     OW69217   1.102  14.560   9.260
55793SOL    HW169218   1.157  14.587   9.187
55793SOL    HW269219   1.135  14.610   9.335
55794SOL     OW69220   9.527  12.441  14.364
55794SOL    HW169221   9.457  12.500  14.392
55794SOL    HW269222   9.502  12.414  14.275
55795SOL     OW69223  12.519  12.667   6.213
55795SOL    HW169224  12.586  12.615   6.257
55795SOL    HW269225  12.495  12.615   6.136
55796SOL     OW69226   0.655   6.765  12.507
55796SOL    HW169227   0.654   6.681  12.460
55796SOL    HW269228   0.720   6.818  12.460
55797SOL     OW69229   7.855   8.999  11.182
55797SOL    HW169230   7.790   9.033  11.243
55797SOL    HW269231   7.932   8.980  11.237
55798SOL     OW69232  10.302   7.562   8.567
55798SOL    HW169233  10.243   7.542   8.640
55798SOL    HW269234  10.322   7.655   8.577
55799SOL     OW69235  11.905   0.848  12.508
55799SOL    HW169236  11.879   0.885  12.592
55799SOL    HW269237  11.908   0.924  12.449
55800SOL     OW69238   7.599   7.162   1.735
55800SOL    HW169239   7.612   7.225   1.805
55800SOL    HW269240   7.530   7.200   1.680
55801SOL     OW69241  10.750   1.984   5.718
55801SOL    HW169242  10.783   1.897   5.737
55801SOL    HW269243  10.816   2.044   5.753
55802SOL     OW69244  14.660   9.624   6.935
55802SOL    HW169245  14.596   9.580   6.991
55802SOL    HW269246  14.735   9.565   6.931
55803SOL     OW69247  11.872   6.030   9.481
55803SOL    HW169248  11.835   5.942   9.471
55803SOL    HW269249  11.952   6.017   9.531
55804SOL     OW69250   5.975   9.737   6.700
55804SOL    HW169251   5.915   9.801   6.739
55804SOL    HW269252   5.918   9.667   6.669
55805SOL     OW69253  11.030  12.814   1.545
55805SOL    HW169254  11.054  12.902   1.574
55805SOL    HW269255  11.100  12.757   1.578
55806SOL     OW69256   8.920   4.375   0.010
55806SOL    HW169257   8.912   4.434  14.809
55806SOL    HW269258   8.855   4.307  14.867
55807SOL     OW69259   5.960   8.075  10.752
55807SOL    HW169260   6.020   8.002  10.766
55807SOL    HW269261   5.974   8.133  10.827
55808SOL     OW69262   4.436   7.964   5.133
55808SOL    HW169263   4.487   8.044   5.147
55808SOL    HW269264   4.482   7.897   5.183
55809SOL     OW69265   1.297   8.193  10.223
55809SOL    HW169266   1.334   8.116  10.181
55809SOL    HW269267   1.365   8.260  10.214
55810SOL     OW69268   1.513   4.799   3.434
55810SOL    HW169269   1.524   4.714   3.477
55810SOL    HW269270   1.497   4.860   3.506
55811SOL     OW69271   9.883   9.275   9.636
55811SOL    HW169272   9.823   9.283   9.562
55811SOL    HW269273   9.945   9.347   9.626
55812SOL     OW69274   7.205  11.723  14.161
55812SOL    HW169275   7.210  11.816  14.141
55812SOL    HW269276   7.124  11.694  14.118
55813SOL     OW69277   9.030  12.112  10.003
55813SOL    HW169278   9.000  12.201   9.984
55813SOL    HW269279   8.994  12.059   9.932
55814SOL     OW69280   3.334   7.176   9.004
55814SOL    HW169281   3.255   7.161   9.056
55814SOL    HW269282   3.402   7.126   9.049
55815SOL     OW69283  12.232   6.225  13.144
55815SOL    HW169284  12.144   6.218  13.109
55815SOL    HW269285  12.224   6.202  13.236
55816SOL     OW69286   9.384   6.691  11.991
55816SOL    HW169287   9.446   6.643  11.936
55816SOL    HW269288   9.309   6.707  11.934
55817SOL     OW69289   7.076   5.689  10.559
55817SOL    HW169290   7.072   5.616  10.620
55817SOL    HW269291   6.987   5.697  10.525
55818SOL     OW69292   4.594   6.582  10.585
55818SOL    HW169293   4.646   6.648  10.540
55818SOL    HW269294   4.567   6.625  10.667
55819SOL     OW69295  11.013   6.802   1.880
55819SOL    HW169296  10.981   6.714   1.899
55819SOL    HW269297  11.067   6.826   1.955
55820SOL     OW69298  14.116   1.317   9.156
55820SOL    HW169299  14.065   1.384   9.110
55820SOL    HW269300  14.082   1.234   9.124
55821SOL     OW69301   9.823   3.422   7.818
55821SOL    HW169302   9.914   3.394   7.827
55821SOL    HW269303   9.783   3.354   7.763
55822SOL     OW69304   4.192  12.007   1.875
55822SOL    HW169305   4.127  12.010   1.945
55822SOL    HW269306   4.241  12.088   1.885
55823SOL     OW69307   2.932  14.223  14.598
55823SOL    HW169308   2.995  14.235  14.528
55823SOL    HW269309   2.984  14.193  14.673
55824SOL     OW69310   8.748   1.968   0.654
55824SOL    HW169311   8.787   2.050   0.622
55824SOL    HW269312   8.779   1.961   0.744
55825SOL     OW69313   8.740   2.594   1.453
55825SOL    HW169314   8.712   2.686   1.452
55825SOL    HW269315   8.669   2.547   1.409
55826SOL     OW69316   2.726  10.715  11.418
55826SOL    HW169317   2.816  10.686  11.412
55826SOL    HW269318   2.698  10.689  11.506
55827SOL     OW69319  10.156  13.176  10.989
55827SOL    HW169320  10.062  13.189  11.000
55827SOL    HW269321  10.174  13.203  10.899
55828SOL     OW69322   6.087   1.033   7.301
55828SOL    HW169323   6.155   0.970   7.327
55828SOL    HW269324   6.129   1.087   7.234
55829SOL     OW69325   5.914   1.381   7.877
55829SOL    HW169326   5.826   1.417   7.865
55829SOL    HW269327   5.946   1.421   7.958
55830SOL     OW69328  12.196   6.757  10.042
55830SOL    HW169329  12.177   6.826  10.105
55830SOL    HW269330  12.117   6.752   9.987
55831SOL     OW69331  13.807   5.638   6.584
55831SOL    HW169332  13.776   5.600   6.666
55831SOL    HW269333  13.900   5.616   6.581
55832SOL     OW69334  14.613   2.282  11.375
55832SOL    HW169335  14.638   2.245  11.291
55832SOL    HW269336  14.627   2.377  11.364
55833SOL     OW69337  13.544   9.046  14.344
55833SOL    HW169338  13.469   9.045  14.404
55833SOL    HW269339  13.548   8.957  14.310
55834SOL     OW69340   0.590   2.534   1.522
55834SOL    HW169341   0.598   2.616   1.570
55834SOL    HW269342   0.548   2.474   1.584
55835SOL     OW69343   4.450   9.268   4.925
55835SOL    HW169344   4.515   9.237   4.988
55835SOL    HW269345   4.445   9.362   4.941
55836SOL     OW69346   0.360  10.533   2.611
55836SOL    HW169347   0.269  10.517   2.637
55836SOL    HW269348   0.403  10.448   2.622
55837SOL     OW69349  13.691   4.125   0.305
55837SOL    HW169350  13.735   4.074   0.373
55837SOL    HW269351  13.599   4.098   0.312
55838SOL     OW69352  14.406   2.973   6.328
55838SOL    HW169353  14.469   3.043   6.342
55838SOL    HW269354  14.322   3.011   6.352
55839SOL     OW69355   3.553   4.038  14.444
55839SOL    HW169356   3.518   3.961  14.399
55839SOL    HW269357   3.478   4.096  14.455
55840SOL     OW69358   9.899  11.002  14.409
55840SOL    HW169359   9.949  10.952  14.473
55840SOL    HW269360   9.842  10.937  14.367
55841SOL     OW69361  12.881   2.008  13.431
55841SOL    HW169362  12.879   2.090  13.481
55841SOL    HW269363  12.931   2.030  13.352
55842SOL     OW69364   5.063   4.440   9.205
55842SOL    HW169365   5.000   4.511   9.219
55842SOL    HW269366   5.144   4.472   9.244
55843SOL     OW69367   9.401   8.052   5.070
55843SOL    HW169368   9.481   8.001   5.084
55843SOL    HW269369   9.331   7.997   5.103
55844SOL     OW69370  14.055  10.834   9.761
55844SOL    HW169371  14.106  10.880   9.828
55844SOL    HW269372  13.964  10.844   9.788
55845SOL     OW69373   7.441  13.745  13.055
55845SOL    HW169374   7.533  13.720  13.044
55845SOL    HW269375   7.445  13.831  13.096
55846SOL     OW69376   0.730   9.259   8.480
55846SOL    HW169377   0.744   9.308   8.399
55846SOL    HW269378   0.648   9.211   8.465
55847SOL     OW69379   5.096  14.706  11.072
55847SOL    HW169380   5.164  14.769  11.048
55847SOL    HW269381   5.143  14.625  11.090
55848SOL     OW69382   7.164  12.592   8.351
55848SOL    HW169383   7.247  12.548   8.371
55848SOL    HW269384   7.190  12.674   8.309
55849SOL     OW69385   3.216  13.201  11.678
55849SOL    HW169386   3.177  13.127  11.724
55849SOL    HW269387   3.146  13.236  11.624
55850SOL     OW69388  10.768  11.238  11.917
55850SOL    HW169389  10.756  11.272  12.006
55850SOL    HW269390  10.819  11.306  11.873
55851SOL     OW69391   6.881   1.523  12.218
55851SOL    HW169392   6.875   1.616  12.239
55851SOL    HW269393   6.964   1.515  12.170
55852SOL     OW69394  10.130   3.820   7.929
55852SOL    HW169395  10.062   3.887   7.933
55852SOL    HW269396  10.098   3.751   7.987
55853SOL     OW69397   2.458   2.309   1.563
55853SOL    HW169398   2.392   2.369   1.530
55853SOL    HW269399   2.533   2.364   1.585
55854SOL     OW69400   4.005  11.556   9.983
55854SOL    HW169401   4.088  11.523  10.019
55854SOL    HW269402   3.954  11.580  10.061
55855SOL     OW69403   1.048  11.373   7.015
55855SOL    HW169404   1.085  11.287   7.035
55855SOL    HW269405   1.113  11.414   6.959
55856SOL     OW69406   8.851   1.740   0.904
55856SOL    HW169407   8.898   1.744   0.821
55856SOL    HW269408   8.850   1.830   0.935
55857SOL     OW69409   1.583   3.668   2.348
55857SOL    HW169410   1.618   3.700   2.265
55857SOL    HW269411   1.506   3.616   2.323
55858SOL     OW69412  14.723   4.743   9.490
55858SOL    HW169413  14.818   4.755   9.489
55858SOL    HW269414  14.709   4.672   9.553
55859SOL     OW69415  13.043  13.850  10.169
55859SOL    HW169416  13.039  13.872  10.262
55859SOL    HW269417  13.040  13.934  10.124
55860SOL     OW69418   5.817   3.378  10.842
55860SOL    HW169419   5.732   3.368  10.884
55860SOL    HW269420   5.801   3.355  10.751
55861SOL     OW69421  11.327  14.863   6.737
55861SOL    HW169422  11.295   0.077   6.710
55861SOL    HW269423  11.257  14.803   6.711
55862SOL     OW69424   9.619  14.597   5.868
55862SOL    HW169425   9.616  14.541   5.945
55862SOL    HW269426   9.527  14.613   5.846
55863SOL     OW69427   7.727  12.423   8.214
55863SOL    HW169428   7.783  12.348   8.236
55863SOL    HW269429   7.777  12.471   8.148
55864SOL     OW69430   8.785   4.672  11.932
55864SOL    HW169431   8.823   4.586  11.913
55864SOL    HW269432   8.773   4.713  11.847
55865SOL     OW69433   6.544   7.495   0.520
55865SOL    HW169434   6.637   7.506   0.502
55865SOL    HW269435   6.542   7.437   0.597
55866SOL     OW69436   5.168   5.905   1.360
55866SOL    HW169437   5.094   5.922   1.302
55866SOL    HW269438   5.230   5.857   1.305
55867SOL     OW69439   4.195  11.303   3.482
55867SOL    HW169440   4.104  11.281   3.462
55867SOL    HW269441   4.246  11.238   3.433
55868SOL     OW69442   0.550   7.731  12.826
55868SOL    HW169443   0.454   7.732  12.836
55868SOL    HW269444   0.573   7.638  12.829
55869SOL     OW69445  10.598  13.220   2.727
55869SOL    HW169446  10.630  13.283   2.791
55869SOL    HW269447  10.574  13.273   2.651
55870SOL     OW69448   0.548  10.285   4.370
55870SOL    HW169449   0.484  10.313   4.436
55870SOL    HW269450   0.510  10.315   4.287
55871SOL     OW69451   4.593   3.050   4.016
55871SOL    HW169452   4.588   3.109   4.091
55871SOL    HW269453   4.684   3.053   3.989
55872SOL     OW69454   6.642   2.715   7.578
55872SOL    HW169455   6.596   2.653   7.520
55872SOL    HW269456   6.616   2.801   7.545
55873SOL     OW69457  12.750  12.807   5.938
55873SOL    HW169458  12.781  12.845   5.856
55873SOL    HW269459  12.705  12.878   5.983
55874SOL     OW69460   4.237  13.901  13.124
55874SOL    HW169461   4.193  13.977  13.085
55874SOL    HW269462   4.330  13.920  13.116
55875SOL     OW69463   0.444  11.037   8.861
55875SOL    HW169464   0.488  10.991   8.790
55875SOL    HW269465   0.482  11.000   8.941
55876SOL     OW69466   5.512  12.619   8.932
55876SOL    HW169467   5.556  12.552   8.880
55876SOL    HW269468   5.560  12.620   9.015
55877SOL     OW69469   2.191   8.067   6.155
55877SOL    HW169470   2.275   8.055   6.199
55877SOL    HW269471   2.129   8.016   6.207
55878SOL     OW69472  14.165  14.149   5.426
55878SOL    HW169473  14.167  14.158   5.522
55878SOL    HW269474  14.236  14.089   5.406
55879SOL     OW69475   5.511  14.316   5.540
55879SOL    HW169476   5.514  14.239   5.597
55879SOL    HW269477   5.434  14.365   5.569
55880SOL     OW69478   0.855   9.756   8.921
55880SOL    HW169479   0.869   9.779   8.830
55880SOL    HW269480   0.830   9.664   8.919
55881SOL     OW69481   5.751  12.102  11.546
55881SOL    HW169482   5.770  12.165  11.476
55881SOL    HW269483   5.826  12.041  11.544
55882SOL     OW69484   5.428  14.202  13.657
55882SOL    HW169485   5.422  14.291  13.621
55882SOL    HW269486   5.521  14.186  13.669
55883SOL     OW69487   0.142  13.516   9.393
55883SOL    HW169488   0.196  13.564   9.330
55883SOL    HW269489   0.199  13.446   9.425
55884SOL     OW69490   4.455  11.267  10.784
55884SOL    HW169491   4.373  11.269  10.834
55884SOL    HW269492   4.478  11.174  10.782
55885SOL     OW69493   9.583   2.470  13.948
55885SOL    HW169494   9.564   2.468  14.042
55885SOL    HW269495   9.586   2.563  13.926
55886SOL     OW69496   1.041   4.559  10.539
55886SOL    HW169497   1.132   4.571  10.567
55886SOL    HW269498   1.029   4.464  10.537
55887SOL     OW69499   2.014  11.126  14.663
55887SOL    HW169500   2.099  11.093  14.633
55887SOL    HW269501   2.006  11.092  14.752
55888SOL     OW69502  10.493  11.922  10.717
55888SOL    HW169503  10.555  11.850  10.706
55888SOL    HW269504  10.490  11.938  10.811
55889SOL     OW69505   2.302  10.163   9.651
55889SOL    HW169506   2.394  10.182   9.630
55889SOL    HW269507   2.301  10.154   9.746
55890SOL     OW69508   1.712  11.942   4.753
55890SOL    HW169509   1.751  11.856   4.739
55890SOL    HW269510   1.765  12.002   4.701
55891SOL     OW69511   6.882   3.516   8.194
55891SOL    HW169512   6.904   3.449   8.130
55891SOL    HW269513   6.801   3.556   8.160
55892SOL     OW69514   2.874   1.148  10.535
55892SOL    HW169515   2.801   1.132  10.594
55892SOL    HW269516   2.901   1.238  10.553
55893SOL     OW69517   7.176   5.711  13.470
55893SOL    HW169518   7.235   5.683  13.400
55893SOL    HW269519   7.123   5.780  13.431
55894SOL     OW69520   9.744   1.593   7.802
55894SOL    HW169521   9.677   1.536   7.840
55894SOL    HW269522   9.827   1.550   7.823
55895SOL     OW69523   5.026   6.473  10.057
55895SOL    HW169524   5.106   6.520  10.081
55895SOL    HW269525   4.956   6.517  10.105
55896SOL     OW69526  12.792  13.372  11.219
55896SOL    HW169527  12.812  13.451  11.169
55896SOL    HW269528  12.849  13.378  11.296
55897SOL     OW69529   5.817   1.122   1.061
55897SOL    HW169530   5.902   1.096   1.098
55897SOL    HW269531   5.839   1.163   0.977
55898SOL     OW69532  13.527  11.811   7.240
55898SOL    HW169533  13.433  11.813   7.259
55898SOL    HW269534  13.568  11.795   7.325
55899SOL     OW69535   4.719  13.085   4.181
55899SOL    HW169536   4.683  13.011   4.229
55899SOL    HW269537   4.750  13.145   4.249
55900SOL     OW69538  14.325   1.667  14.023
55900SOL    HW169539  14.413   1.679  13.989
55900SOL    HW269540  14.286   1.755  14.021
55901SOL     OW69541   8.190   9.567   2.313
55901SOL    HW169542   8.100   9.551   2.339
55901SOL    HW269543   8.243   9.538   2.388
55902SOL     OW69544  13.930  10.256   4.563
55902SOL    HW169545  13.942  10.330   4.621
55902SOL    HW269546  13.948  10.291   4.475
55903SOL     OW69547   9.968  12.533   5.325
55903SOL    HW169548  10.031  12.584   5.374
55903SOL    HW269549   9.937  12.592   5.256
55904SOL     OW69550   2.683   3.063   7.788
55904SOL    HW169551   2.682   3.003   7.713
55904SOL    HW269552   2.631   3.138   7.759
55905SOL     OW69553   9.152   5.850   0.651
55905SOL    HW169554   9.129   5.770   0.698
55905SOL    HW269555   9.068   5.891   0.631
55906SOL     OW69556   2.011   8.434   5.089
55906SOL    HW169557   2.094   8.465   5.054
55906SOL    HW269558   1.989   8.357   5.035
55907SOL     OW69559   6.929  13.607   0.667
55907SOL    HW169560   6.869  13.537   0.691
55907SOL    HW269561   6.878  13.662   0.606
55908SOL     OW69562   4.458  11.522   4.938
55908SOL    HW169563   4.477  11.613   4.916
55908SOL    HW269564   4.363  11.514   4.929
55909SOL     OW69565   0.863   1.151   8.953
55909SOL    HW169566   0.880   1.136   8.860
55909SOL    HW269567   0.882   1.067   8.994
55910SOL     OW69568  14.189  12.111   5.410
55910SOL    HW169569  14.236  12.110   5.326
55910SOL    HW269570  14.137  12.030   5.409
55911SOL     OW69571   4.606  11.430   2.917
55911SOL    HW169572   4.603  11.365   2.847
55911SOL    HW269573   4.520  11.424   2.959
55912SOL     OW69574   3.256   6.177   0.718
55912SOL    HW169575   3.262   6.149   0.809
55912SOL    HW269576   3.265   6.097   0.666
55913SOL     OW69577   3.779  10.847   0.140
55913SOL    HW169578   3.739  10.847   0.227
55913SOL    HW269579   3.866  10.809   0.153
55914SOL     OW69580   0.423   5.860   3.919
55914SOL    HW169581   0.352   5.823   3.972
55914SOL    HW269582   0.384   5.936   3.875
55915SOL     OW69583  13.371   6.345  12.775
55915SOL    HW169584  13.289   6.341  12.824
55915SOL    HW269585  13.360   6.280  12.706
55916SOL     OW69586  10.333   2.275  10.626
55916SOL    HW169587  10.407   2.328  10.596
55916SOL    HW269588  10.323   2.208  10.558
55917SOL     OW69589   6.231   0.005   4.909
55917SOL    HW169590   6.161  14.845   4.852
55917SOL    HW269591   6.197  14.865   4.997
55918SOL     OW69592   0.349  13.826  14.837
55918SOL    HW169593   0.435  13.867  14.846
55918SOL    HW269594   0.306  13.877  14.768
55919SOL     OW69595   5.602   9.727   8.142
55919SOL    HW169596   5.647   9.715   8.059
55919SOL    HW269597   5.510   9.734   8.119
55920SOL     OW69598   2.013   9.061   4.644
55920SOL    HW169599   2.075   8.998   4.608
55920SOL    HW269600   2.068   9.123   4.692
55921SOL     OW69601  11.640   3.809   4.420
55921SOL    HW169602  11.645   3.867   4.496
55921SOL    HW269603  11.589   3.734   4.450
55922SOL     OW69604   0.776   4.869  11.992
55922SOL    HW169605   0.860   4.864  12.038
55922SOL    HW269606   0.779   4.953  11.946
55923SOL     OW69607   5.094   1.384   0.626
55923SOL    HW169608   5.017   1.331   0.608
55923SOL    HW269609   5.154   1.366   0.554
55924SOL     OW69610  11.996   1.552  10.679
55924SOL    HW169611  11.957   1.496  10.613
55924SOL    HW269612  11.925   1.611  10.706
55925SOL     OW69613   4.042   5.427   6.786
55925SOL    HW169614   4.105   5.398   6.851
55925SOL    HW269615   4.070   5.516   6.764
55926SOL     OW69616  10.861   1.382  12.865
55926SOL    HW169617  10.869   1.478  12.864
55926SOL    HW269618  10.852   1.360  12.957
55927SOL     OW69619  14.305   5.332   2.641
55927SOL    HW169620  14.334   5.278   2.568
55927SOL    HW269621  14.262   5.271   2.701
55928SOL     OW69622  14.550   0.544   2.650
55928SOL    HW169623  14.563   0.449   2.660
55928SOL    HW269624  14.476   0.564   2.708
55929SOL     OW69625  11.018   1.659  10.967
55929SOL    HW169626  11.048   1.726  11.029
55929SOL    HW269627  10.938   1.625  11.007
55930SOL     OW69628  12.007   8.988  11.373
55930SOL    HW169629  12.026   9.000  11.466
55930SOL    HW269630  11.912   8.978  11.369
55931SOL     OW69631   7.836  13.831  13.808
55931SOL    HW169632   7.825  13.775  13.885
55931SOL    HW269633   7.896  13.899  13.837
55932SOL     OW69634  10.572  10.660   3.887
55932SOL    HW169635  10.599  10.632   3.799
55932SOL    HW269636  10.484  10.695   3.875
55933SOL     OW69637   3.511   1.189  12.435
55933SOL    HW169638   3.556   1.176  12.352
55933SOL    HW269639   3.551   1.125  12.494
55934SOL     OW69640  13.939  12.343   2.558
55934SOL    HW169641  13.848  12.372   2.562
55934SOL    HW269642  13.978  12.372   2.640
55935SOL     OW69643   8.046   4.445  14.739
55935SOL    HW169644   7.955   4.449  14.767
55935SOL    HW269645   8.067   4.352  14.741
55936SOL     OW69646  12.731   9.155   2.153
55936SOL    HW169647  12.719   9.245   2.184
55936SOL    HW269648  12.688   9.154   2.067
55937SOL     OW69649   1.193  14.808  12.101
55937SOL    HW169650   1.108  14.848  12.083
55937SOL    HW269651   1.182  14.715  12.081
55938SOL     OW69652   9.372   7.239   7.208
55938SOL    HW169653   9.416   7.289   7.276
55938SOL    HW269654   9.357   7.153   7.248
55939SOL     OW69655  13.906   2.403   4.861
55939SOL    HW169656  13.929   2.497   4.860
55939SOL    HW269657  13.817   2.400   4.895
55940SOL     OW69658  10.355   3.756   2.664
55940SOL    HW169659  10.331   3.848   2.650
55940SOL    HW269660  10.430   3.760   2.723
55941SOL     OW69661   4.458   4.946   7.482
55941SOL    HW169662   4.413   5.007   7.541
55941SOL    HW269663   4.428   4.860   7.511
55942SOL     OW69664  13.534  14.053   5.986
55942SOL    HW169665  13.585  14.132   6.000
55942SOL    HW269666  13.580  13.985   6.036
55943SOL     OW69667   5.565  12.155  10.521
55943SOL    HW169668   5.502  12.198  10.579
55943SOL    HW269669   5.628  12.224  10.500
55944SOL     OW69670   3.474   0.373   4.477
55944SOL    HW169671   3.504   0.372   4.386
55944SOL    HW269672   3.505   0.291   4.514
55945SOL     OW69673   6.595   3.488   9.676
55945SOL    HW169674   6.647   3.433   9.616
55945SOL    HW269675   6.649   3.566   9.689
55946SOL     OW69676  11.936   9.736   3.208
55946SOL    HW169677  11.933   9.660   3.266
55946SOL    HW269678  11.849   9.776   3.217
55947SOL     OW69679   1.876   9.654  12.275
55947SOL    HW169680   1.895   9.560  12.282
55947SOL    HW269681   1.947   9.688  12.220
55948SOL     OW69682   5.828   3.762  12.626
55948SOL    HW169683   5.817   3.667  12.636
55948SOL    HW269684   5.787   3.799  12.704
55949SOL     OW69685  14.668   0.199  14.361
55949SOL    HW169686  14.639   0.290  14.354
55949SOL    HW269687  14.592   0.148  14.334
55950SOL     OW69688   7.059  10.634  11.115
55950SOL    HW169689   7.005  10.661  11.190
55950SOL    HW269690   7.147  10.626  11.151
55951SOL     OW69691  11.438   0.485   0.933
55951SOL    HW169692  11.403   0.542   0.865
55951SOL    HW269693  11.438   0.397   0.894
55952SOL     OW69694   1.467   3.625   5.538
55952SOL    HW169695   1.509   3.552   5.586
55952SOL    HW269696   1.468   3.597   5.447
55953SOL     OW69697  10.642   5.023   2.560
55953SOL    HW169698  10.578   5.092   2.579
55953SOL    HW269699  10.593   4.957   2.510
55954SOL     OW69700   8.312   3.109  14.203
55954SOL    HW169701   8.291   3.063  14.122
55954SOL    HW269702   8.230   3.108  14.253
55955SOL     OW69703   7.795   2.182   5.514
55955SOL    HW169704   7.750   2.267   5.515
55955SOL    HW269705   7.749   2.132   5.447
55956SOL     OW69706   1.489   9.749  11.824
55956SOL    HW169707   1.532   9.752  11.738
55956SOL    HW269708   1.555   9.712  11.883
55957SOL     OW69709   6.213   4.779   5.235
55957SOL    HW169710   6.177   4.694   5.209
55957SOL    HW269711   6.260   4.810   5.157
55958SOL     OW69712   0.977   2.849  13.677
55958SOL    HW169713   0.905   2.810  13.628
55958SOL    HW269714   1.050   2.848  13.615
55959SOL     OW69715  14.299   7.997   3.110
55959SOL    HW169716  14.257   7.959   3.033
55959SOL    HW269717  14.373   8.047   3.075
55960SOL     OW69718   3.820   1.958   2.383
55960SOL    HW169719   3.896   1.961   2.325
55960SOL    HW269720   3.758   2.019   2.344
55961SOL     OW69721   3.467   7.255   4.197
55961SOL    HW169722   3.512   7.268   4.113
55961SOL    HW269723   3.450   7.161   4.200
55962SOL     OW69724   4.959   3.202   5.344
55962SOL    HW169725   4.938   3.238   5.258
55962SOL    HW269726   4.882   3.152   5.370
55963SOL     OW69727   0.206   6.460   3.547
55963SOL    HW169728   0.253   6.504   3.618
55963SOL    HW269729   0.120   6.440   3.584
55964SOL     OW69730   8.796   9.101   3.491
55964SOL    HW169731   8.727   9.101   3.425
55964SOL    HW269732   8.873   9.066   3.446
55965SOL     OW69733   5.303   2.340   2.999
55965SOL    HW169734   5.319   2.246   3.005
55965SOL    HW269735   5.374   2.380   3.048
55966SOL     OW69736  12.195   5.161  12.563
55966SOL    HW169737  12.148   5.183  12.483
55966SOL    HW269738  12.238   5.242  12.589
55967SOL     OW69739   7.540   9.083  11.631
55967SOL    HW169740   7.497   9.008  11.672
55967SOL    HW269741   7.548   9.148  11.701
55968SOL     OW69742  10.355   5.298   3.828
55968SOL    HW169743  10.263   5.283   3.852
55968SOL    HW269744  10.361   5.392   3.815
55969SOL     OW69745   6.796  11.791  14.474
55969SOL    HW169746   6.708  11.800  14.511
55969SOL    HW269747   6.854  11.790  14.550
55970SOL     OW69748  11.512  13.507  14.206
55970SOL    HW169749  11.517  13.591  14.252
55970SOL    HW269750  11.509  13.442  14.276
55971SOL     OW69751  10.284  10.717  13.013
55971SOL    HW169752  10.294  10.633  12.970
55971SOL    HW269753  10.370  10.758  13.004
55972SOL     OW69754   0.448   3.599  11.706
55972SOL    HW169755   0.386   3.601  11.780
55972SOL    HW269756   0.392   3.604  11.628
55973SOL     OW69757   7.027   8.761  12.528
55973SOL    HW169758   6.984   8.824  12.470
55973SOL    HW269759   6.985   8.677  12.509
55974SOL     OW69760   2.683  13.581   8.270
55974SOL    HW169761   2.600  13.549   8.307
55974SOL    HW269762   2.657  13.627   8.190
55975SOL     OW69763   7.920   8.443  11.527
55975SOL    HW169764   7.848   8.402  11.574
55975SOL    HW269765   7.932   8.387  11.449
55976SOL     OW69766   1.118   7.770   5.079
55976SOL    HW169767   1.030   7.797   5.053
55976SOL    HW269768   1.107   7.730   5.165
55977SOL     OW69769  14.364  13.062  12.168
55977SOL    HW169770  14.269  13.049  12.167
55977SOL    HW269771  14.375  13.157  12.171
55978SOL     OW69772   3.339  13.965   8.828
55978SOL    HW169773   3.388  13.890   8.863
55978SOL    HW269774   3.406  14.030   8.808
55979SOL     OW69775   2.825   9.902  14.569
55979SOL    HW169776   2.837   9.997  14.574
55979SOL    HW269777   2.914   9.867  14.569
55980SOL     OW69778  12.469   2.580  13.498
55980SOL    HW169779  12.496   2.504  13.549
55980SOL    HW269780  12.380   2.598  13.527
55981SOL     OW69781  10.980   8.935  11.591
55981SOL    HW169782  11.039   9.005  11.564
55981SOL    HW269783  11.030   8.854  11.575
55982SOL     OW69784  14.494   0.933   5.522
55982SOL    HW169785  14.560   0.977   5.468
55982SOL    HW269786  14.431   1.003   5.543
55983SOL     OW69787   2.324   2.425   7.285
55983SOL    HW169788   2.329   2.353   7.347
55983SOL    HW269789   2.413   2.434   7.251
55984SOL     OW69790   9.914  11.088   5.535
55984SOL    HW169791   9.832  11.087   5.584
55984SOL    HW269792   9.938  10.996   5.527
55985SOL     OW69793  11.810  11.399  10.216
55985SOL    HW169794  11.901  11.407  10.245
55985SOL    HW269795  11.763  11.465  10.267
55986SOL     OW69796   1.233   1.167   0.811
55986SOL    HW169797   1.315   1.214   0.822
55986SOL    HW269798   1.171   1.213   0.868
55987SOL     OW69799  11.663  14.509   9.400
55987SOL    HW169800  11.713  14.444   9.450
55987SOL    HW269801  11.675  14.591   9.448
55988SOL     OW69802  12.830   6.645  14.367
55988SOL    HW169803  12.890   6.625  14.439
55988SOL    HW269804  12.864   6.727  14.330
55989SOL     OW69805   3.346   3.260  10.393
55989SOL    HW169806   3.275   3.258  10.329
55989SOL    HW269807   3.367   3.167  10.408
55990SOL     OW69808   1.761  10.162   4.855
55990SOL    HW169809   1.842  10.148   4.807
55990SOL    HW269810   1.789  10.186   4.943
55991SOL     OW69811   9.949   4.027   6.525
55991SOL    HW169812   9.973   4.099   6.582
55991SOL    HW269813  10.006   4.037   6.449
55992SOL     OW69814   5.606   3.666   4.882
55992SOL    HW169815   5.630   3.582   4.922
55992SOL    HW269816   5.531   3.645   4.826
55993SOL     OW69817   8.120  14.689   8.991
55993SOL    HW169818   8.126  14.764   8.932
55993SOL    HW269819   8.152  14.615   8.939
55994SOL     OW69820  12.567   2.607  10.763
55994SOL    HW169821  12.599   2.697  10.759
55994SOL    HW269822  12.616   2.561  10.695
55995SOL     OW69823   2.821   8.389  12.573
55995SOL    HW169824   2.827   8.353  12.661
55995SOL    HW269825   2.731   8.372  12.546
55996SOL     OW69826   5.504   4.803   3.027
55996SOL    HW169827   5.490   4.849   2.944
55996SOL    HW269828   5.423   4.818   3.076
55997SOL     OW69829   8.220   1.204   7.227
55997SOL    HW169830   8.198   1.111   7.234
55997SOL    HW269831   8.251   1.227   7.315
55998SOL     OW69832   1.677   2.580  11.905
55998SOL    HW169833   1.649   2.638  11.976
55998SOL    HW269834   1.642   2.620  11.825
55999SOL     OW69835   5.695  13.853  14.144
55999SOL    HW169836   5.740  13.770  14.155
55999SOL    HW269837   5.762  13.912  14.108
56000SOL     OW69838   2.194  12.429  11.229
56000SOL    HW169839   2.161  12.343  11.256
56000SOL    HW269840   2.203  12.422  11.134
56001SOL     OW69841   4.899   9.521  14.109
56001SOL    HW169842   4.860   9.524  14.197
56001SOL    HW269843   4.993   9.510  14.125
56002SOL     OW69844   4.618  14.797   9.792
56002SOL    HW169845   4.611  14.810   9.698
56002SOL    HW269846   4.711  14.813   9.811
56003SOL     OW69847  12.179  10.097  14.537
56003SOL    HW169848  12.159  10.173  14.483
56003SOL    HW269849  12.233  10.131  14.609
56004SOL     OW69850   7.818   8.110   8.772
56004SOL    HW169851   7.894   8.165   8.788
56004SOL    HW269852   7.770   8.154   8.701
56005SOL     OW69853   6.047   3.566   4.021
56005SOL    HW169854   6.074   3.658   4.017
56005SOL    HW269855   5.953   3.570   4.038
56006SOL     OW69856   7.657   4.135   1.408
56006SOL    HW169857   7.611   4.051   1.407
56006SOL    HW269858   7.599   4.195   1.360
56007SOL     OW69859  14.448   3.479  12.340
56007SOL    HW169860  14.386   3.551  12.330
56007SOL    HW269861  14.488   3.470  12.253
56008SOL     OW69862   2.225   3.473  12.839
56008SOL    HW169863   2.240   3.561  12.871
56008SOL    HW269864   2.161   3.435  12.900
56009SOL     OW69865   1.068   3.953   0.204
56009SOL    HW169866   0.977   3.948   0.174
56009SOL    HW269867   1.109   4.016   0.145
56010SOL     OW69868  10.748  12.203   6.323
56010SOL    HW169869  10.724  12.160   6.405
56010SOL    HW269870  10.798  12.280   6.350
56011SOL     OW69871   5.942  10.305  11.649
56011SOL    HW169872   6.007  10.339  11.587
56011SOL    HW269873   5.859  10.308  11.601
56012SOL     OW69874   1.112   5.343   1.357
56012SOL    HW169875   1.068   5.294   1.287
56012SOL    HW269876   1.047   5.348   1.427
56013SOL     OW69877  11.824   9.488   8.301
56013SOL    HW169878  11.873   9.570   8.305
56013SOL    HW269879  11.841   9.454   8.214
56014SOL     OW69880  12.823  12.028  12.593
56014SOL    HW169881  12.902  12.018  12.540
56014SOL    HW269882  12.780  11.943  12.589
56015SOL     OW69883  13.993   8.517   2.699
56015SOL    HW169884  13.930   8.450   2.728
56015SOL    HW269885  14.075   8.493   2.742
56016SOL     OW69886   5.757  14.520  12.030
56016SOL    HW169887   5.700  14.457  11.984
56016SOL    HW269888   5.819  14.549  11.963
56017SOL     OW69889   5.851  13.148   6.744
56017SOL    HW169890   5.935  13.194   6.749
56017SOL    HW269891   5.819  13.147   6.834
56018SOL     OW69892   1.436   7.690  10.201
56018SOL    HW169893   1.478   7.753  10.142
56018SOL    HW269894   1.401   7.744  10.273
56019SOL     OW69895   5.414   6.602   3.274
56019SOL    HW169896   5.393   6.642   3.190
56019SOL    HW269897   5.470   6.528   3.252
56020SOL     OW69898   3.907   7.268   2.081
56020SOL    HW169899   3.891   7.361   2.095
56020SOL    HW269900   3.826   7.225   2.107
56021SOL     OW69901   7.512   4.377   5.235
56021SOL    HW169902   7.490   4.368   5.142
56021SOL    HW269903   7.427   4.387   5.278
56022SOL     OW69904   8.478   8.898   8.570
56022SOL    HW169905   8.468   8.992   8.585
56022SOL    HW269906   8.538   8.869   8.639
56023SOL     OW69907  12.092   8.953   0.033
56023SOL    HW169908  12.121   9.031   0.080
56023SOL    HW269909  12.100   8.882   0.097
56024SOL     OW69910  10.807   4.852   9.879
56024SOL    HW169911  10.896   4.817   9.883
56024SOL    HW269912  10.758   4.785   9.830
56025SOL     OW69913   5.943   7.711   3.096
56025SOL    HW169914   5.968   7.801   3.115
56025SOL    HW269915   5.915   7.675   3.180
56026SOL     OW69916  10.726   8.165  12.556
56026SOL    HW169917  10.794   8.151  12.491
56026SOL    HW269918  10.687   8.079  12.570
56027SOL     OW69919   6.788  11.048  11.968
56027SOL    HW169920   6.783  11.086  12.056
56027SOL    HW269921   6.704  11.069  11.928
56028SOL     OW69922   9.711   6.413   3.887
56028SOL    HW169923   9.679   6.490   3.935
56028SOL    HW269924   9.677   6.424   3.799
56029SOL     OW69925  14.019   6.543   6.854
56029SOL    HW169926  14.094   6.599   6.830
56029SOL    HW269927  14.014   6.480   6.782
56030SOL     OW69928   7.733   0.672   0.230
56030SOL    HW169929   7.676   0.633   0.296
56030SOL    HW269930   7.799   0.605   0.213
56031SOL     OW69931   4.779   4.786   6.410
56031SOL    HW169932   4.739   4.700   6.423
56031SOL    HW269933   4.766   4.805   6.317
56032SOL     OW69934   5.556  10.812   4.365
56032SOL    HW169935   5.519  10.751   4.302
56032SOL    HW269936   5.541  10.898   4.327
56033SOL     OW69937  13.440  11.333   4.872
56033SOL    HW169938  13.503  11.270   4.838
56033SOL    HW269939  13.356  11.287   4.869
56034SOL     OW69940   9.806  14.783   0.761
56034SOL    HW169941   9.818  14.769   0.667
56034SOL    HW269942   9.853  14.711   0.802
56035SOL     OW69943   4.233  13.655   6.554
56035SOL    HW169944   4.210  13.645   6.646
56035SOL    HW269945   4.214  13.747   6.534
56036SOL     OW69946   4.508   3.762   4.587
56036SOL    HW169947   4.574   3.698   4.559
56036SOL    HW269948   4.430   3.740   4.537
56037SOL     OW69949   6.056   6.107   4.400
56037SOL    HW169950   6.124   6.102   4.467
56037SOL    HW269951   6.001   6.181   4.427
56038SOL     OW69952   8.083   7.791  14.339
56038SOL    HW169953   8.066   7.845  14.416
56038SOL    HW269954   8.076   7.701  14.372
56039SOL     OW69955  11.343   3.536   9.800
56039SOL    HW169956  11.367   3.452   9.759
56039SOL    HW269957  11.286   3.578   9.735
56040SOL     OW69958  13.325  11.050   8.683
56040SOL    HW169959  13.261  10.984   8.706
56040SOL    HW269960  13.396  11.037   8.746
56041SOL     OW69961  13.148   9.821   6.097
56041SOL    HW169962  13.236   9.814   6.136
56041SOL    HW269963  13.098   9.871   6.162
56042SOL     OW69964  11.149  14.283   1.254
56042SOL    HW169965  11.074  14.305   1.199
56042SOL    HW269966  11.153  14.188   1.254
56043SOL     OW69967   2.225   7.417   8.553
56043SOL    HW169968   2.260   7.376   8.474
56043SOL    HW269969   2.230   7.511   8.536
56044SOL     OW69970   0.039   2.160  11.894
56044SOL    HW169971  14.864   2.188  11.972
56044SOL    HW269972  14.858   2.189  11.821
56045SOL     OW69973   1.776  10.339   7.863
56045SOL    HW169974   1.782  10.280   7.788
56045SOL    HW269975   1.863  10.379   7.869
56046SOL     OW69976  11.354   1.666   2.414
56046SOL    HW169977  11.357   1.723   2.491
56046SOL    HW269978  11.428   1.695   2.360
56047SOL     OW69979   1.837  14.140  10.367
56047SOL    HW169980   1.850  14.233  10.350
56047SOL    HW269981   1.871  14.096  10.290
56048SOL     OW69982  11.381   3.662   7.703
56048SOL    HW169983  11.412   3.572   7.697
56048SOL    HW269984  11.418   3.696   7.784
56049SOL     OW69985   7.588  12.423  14.267
56049SOL    HW169986   7.597  12.328  14.256
56049SOL    HW269987   7.497  12.441  14.242
56050SOL     OW69988   5.957   2.446   7.676
56050SOL    HW169989   6.040   2.402   7.658
56050SOL    HW269990   5.893   2.376   7.682
56051SOL     OW69991  10.840  13.269  13.786
56051SOL    HW169992  10.859  13.282  13.879
56051SOL    HW269993  10.921  13.232  13.750
56052SOL     OW69994   0.186  11.445   5.005
56052SOL    HW169995   0.184  11.492   4.921
56052SOL    HW269996   0.112  11.480   5.054
56053SOL     OW69997   1.798   8.614   4.191
56053SOL    HW169998   1.814   8.698   4.235
56053SOL    HW269999   1.813   8.633   4.098
56054SOL     OW70000  14.115   2.210   8.157
56054SOL    HW170001  14.027   2.247   8.162
56054SOL    HW270002  14.121   2.153   8.233
56055SOL     OW70003   9.193   8.755   2.943
56055SOL    HW170004   9.181   8.850   2.941
56055SOL    HW270005   9.277   8.743   2.987
56056SOL     OW70006  13.488   8.388   1.157
56056SOL    HW170007  13.488   8.483   1.166
56056SOL    HW270008  13.503   8.355   1.246
56057SOL     OW70009   3.192  11.343   5.605
56057SOL    HW170010   3.256  11.335   5.676
56057SOL    HW270011   3.244  11.335   5.525
56058SOL     OW70012   3.045  10.522   7.805
56058SOL    HW170013   2.988  10.538   7.880
56058SOL    HW270014   3.132  10.515   7.843
56059SOL     OW70015  13.818   0.485   8.846
56059SOL    HW170016  13.872   0.453   8.774
56059SOL    HW270017  13.768   0.408   8.874
56060SOL     OW70018  13.533  12.538   5.168
56060SOL    HW170019  13.439  12.554   5.177
56060SOL    HW270020  13.571  12.625   5.157
56061SOL     OW70021   2.114   1.270  12.597
56061SOL    HW170022   2.173   1.198  12.575
56061SOL    HW270023   2.061   1.236  12.669
56062SOL     OW70024  13.701   2.151   4.958
56062SOL    HW170025  13.721   2.228   5.011
56062SOL    HW270026  13.722   2.177   4.868
56063SOL     OW70027   4.624  12.834   9.595
56063SOL    HW170028   4.555  12.812   9.532
56063SOL    HW270029   4.628  12.758   9.653
56064SOL     OW70030  14.241   2.941   3.230
56064SOL    HW170031  14.166   2.913   3.176
56064SOL    HW270032  14.307   2.873   3.217
56065SOL     OW70033  10.445   4.493   8.616
56065SOL    HW170034  10.443   4.423   8.681
56065SOL    HW270035  10.495   4.457   8.543
56066SOL     OW70036   7.798  10.506   8.580
56066SOL    HW170037   7.876  10.450   8.574
56066SOL    HW270038   7.800  10.540   8.669
56067SOL     OW70039   3.001  13.709   9.698
56067SOL    HW170040   3.072  13.752   9.651
56067SOL    HW270041   3.044  13.656   9.765
56068SOL     OW70042   6.548   0.149  13.987
56068SOL    HW170043   6.576   0.057  13.986
56068SOL    HW270044   6.602   0.189  14.055
56069SOL     OW70045  13.541   5.484   2.207
56069SOL    HW170046  13.480   5.420   2.169
56069SOL    HW270047  13.531   5.562   2.152
56070SOL     OW70048   4.302   1.942   2.487
56070SOL    HW170049   4.312   1.920   2.394
56070SOL    HW270050   4.282   1.859   2.529
56071SOL     OW70051   0.392  11.530  13.541
56071SOL    HW170052   0.419  11.617  13.571
56071SOL    HW270053   0.314  11.546  13.488
56072SOL     OW70054   8.068   0.067   6.207
56072SOL    HW170055   8.111   0.151   6.223
56072SOL    HW270056   8.021   0.048   6.288
56073SOL     OW70057   9.520   0.724   9.781
56073SOL    HW170058   9.559   0.787   9.720
56073SOL    HW270059   9.594   0.675   9.816
56074SOL     OW70060  10.595   2.975   6.881
56074SOL    HW170061  10.572   3.032   6.807
56074SOL    HW270062  10.649   3.030   6.937
56075SOL     OW70063   6.988   2.992   9.513
56075SOL    HW170064   6.956   2.979   9.602
56075SOL    HW270065   6.945   2.924   9.461
56076SOL     OW70066  10.949   5.315  11.652
56076SOL    HW170067  10.944   5.275  11.566
56076SOL    HW270068  10.859   5.317  11.684
56077SOL     OW70069   3.236   8.522   9.540
56077SOL    HW170070   3.172   8.499   9.607
56077SOL    HW270071   3.318   8.534   9.588
56078SOL     OW70072  10.221   5.304  13.867
56078SOL    HW170073  10.244   5.389  13.828
56078SOL    HW270074  10.129   5.314  13.892
56079SOL     OW70075  11.652   7.820  12.886
56079SOL    HW170076  11.690   7.739  12.851
56079SOL    HW270077  11.728   7.875  12.907
56080SOL     OW70078   3.629  10.983   9.707
56080SOL    HW170079   3.545  10.989   9.753
56080SOL    HW270080   3.664  11.072   9.709
56081SOL     OW70081   0.620  11.104   0.984
56081SOL    HW170082   0.698  11.123   0.932
56081SOL    HW270083   0.548  11.106   0.922
56082SOL     OW70084   0.177  11.960   2.136
56082SOL    HW170085   0.195  12.053   2.122
56082SOL    HW270086   0.197  11.945   2.228
56083SOL     OW70087  10.106  12.302   0.175
56083SOL    HW170088  10.060  12.219   0.163
56083SOL    HW270089  10.196  12.283   0.146
56084SOL     OW70090   0.468  11.226   6.871
56084SOL    HW170091   0.507  11.177   6.944
56084SOL    HW270092   0.457  11.315   6.904
56085SOL     OW70093   4.449   3.208   4.845
56085SOL    HW170094   4.451   3.224   4.750
56085SOL    HW270095   4.493   3.283   4.883
56086SOL     OW70096  11.289   5.541   1.641
56086SOL    HW170097  11.376   5.545   1.679
56086SOL    HW270098  11.238   5.490   1.704
56087SOL     OW70099   9.752   3.288   7.590
56087SOL    HW170100   9.709   3.203   7.585
56087SOL    HW270101   9.682   3.351   7.569
56088SOL     OW70102   4.155  13.792  12.741
56088SOL    HW170103   4.195  13.791  12.654
56088SOL    HW270104   4.209  13.731  12.792
56089SOL     OW70105  12.052   9.036  11.630
56089SOL    HW170106  12.065   9.113  11.685
56089SOL    HW270107  12.083   8.963  11.684
56090SOL     OW70108   4.457  14.826   2.775
56090SOL    HW170109   4.401   0.021   2.812
56090SOL    HW270110   4.546  14.852   2.801
56091SOL     OW70111   0.579   5.298   2.487
56091SOL    HW170112   0.670   5.313   2.511
56091SOL    HW270113   0.582   5.269   2.396
56092SOL     OW70114   6.791   3.564  13.857
56092SOL    HW170115   6.708   3.598  13.822
56092SOL    HW270116   6.831   3.518  13.783
56093SOL     OW70117  12.746   4.763   9.081
56093SOL    HW170118  12.763   4.710   9.003
56093SOL    HW270119  12.670   4.817   9.058
56094SOL     OW70120   9.995   1.104  11.441
56094SOL    HW170121   9.997   1.118  11.346
56094SOL    HW270122   9.929   1.035  11.453
56095SOL     OW70123   1.601  11.689   2.668
56095SOL    HW170124   1.642  11.738   2.597
56095SOL    HW270125   1.637  11.600   2.660
56096SOL     OW70126  14.213  14.110   0.914
56096SOL    HW170127  14.287  14.112   0.975
56096SOL    HW270128  14.240  14.049   0.845
56097SOL     OW70129   1.476  13.939   1.700
56097SOL    HW170130   1.415  13.866   1.691
56097SOL    HW270131   1.562  13.902   1.682
56098SOL     OW70132  13.632  11.100  11.699
56098SOL    HW170133  13.572  11.078  11.628
56098SOL    HW270134  13.643  11.195  11.692
56099SOL     OW70135  11.778   2.563   1.330
56099SOL    HW170136  11.697   2.532   1.290
56099SOL    HW270137  11.757   2.652   1.360
56100SOL     OW70138   6.988  11.847  11.012
56100SOL    HW170139   7.043  11.796  11.071
56100SOL    HW270140   6.926  11.892  11.070
56101SOL     OW70141   0.536   8.181   9.227
56101SOL    HW170142   0.473   8.155   9.161
56101SOL    HW270143   0.591   8.247   9.184
56102SOL     OW70144   7.413  11.248  13.790
56102SOL    HW170145   7.450  11.182  13.731
56102SOL    HW270146   7.484  11.270  13.850
56103SOL     OW70147   3.670   8.168   4.629
56103SOL    HW170148   3.704   8.229   4.563
56103SOL    HW270149   3.576   8.183   4.629
56104SOL     OW70150   8.188   4.735   8.032
56104SOL    HW170151   8.095   4.752   8.047
56104SOL    HW270152   8.192   4.701   7.943
56105SOL     OW70153   0.586   3.702   4.434
56105SOL    HW170154   0.651   3.704   4.504
56105SOL    HW270155   0.528   3.630   4.456
56106SOL     OW70156   0.292   9.928  10.883
56106SOL    HW170157   0.201   9.939  10.853
56106SOL    HW270158   0.344   9.929  10.802
56107SOL     OW70159   0.323   0.149  14.413
56107SOL    HW170160   0.307   0.162  14.320
56107SOL    HW270161   0.418   0.136  14.420
56108SOL     OW70162  11.563   1.400   4.879
56108SOL    HW170163  11.610   1.422   4.959
56108SOL    HW270164  11.533   1.484   4.845
56109SOL     OW70165  13.227   6.543   8.975
56109SOL    HW170166  13.178   6.595   9.038
56109SOL    HW270167  13.314   6.584   8.973
56110SOL     OW70168   2.349  12.714  11.151
56110SOL    HW170169   2.402  12.685  11.225
56110SOL    HW270170   2.370  12.653  11.080
56111SOL     OW70171  14.078   9.948   4.870
56111SOL    HW170172  14.002  10.003   4.885
56111SOL    HW270173  14.144  10.007   4.833
56112SOL     OW70174  13.845   8.629  11.079
56112SOL    HW170175  13.758   8.620  11.117
56112SOL    HW270176  13.904   8.607  11.151
56113SOL     OW70177   8.121   8.087  12.952
56113SOL    HW170178   8.209   8.119  12.930
56113SOL    HW270179   8.122   7.995  12.926
56114SOL     OW70180  10.448   3.367   8.832
56114SOL    HW170181  10.436   3.404   8.919
56114SOL    HW270182  10.359   3.360   8.796
56115SOL     OW70183  10.389   0.460  12.052
56115SOL    HW170184  10.433   0.510  11.983
56115SOL    HW270185  10.452   0.458  12.124
56116SOL     OW70186   6.684   0.121   2.746
56116SOL    HW170187   6.632   0.175   2.806
56116SOL    HW270188   6.774   0.149   2.761
56117SOL     OW70189   4.647  12.426   6.769
56117SOL    HW170190   4.586  12.491   6.804
56117SOL    HW270191   4.686  12.469   6.693
56118SOL     OW70192   9.042   4.142   0.418
56118SOL    HW170193   9.059   4.178   0.331
56118SOL    HW270194   8.948   4.154   0.431
56119SOL     OW70195   8.076   8.837   2.229
56119SOL    HW170196   8.072   8.824   2.323
56119SOL    HW270197   8.167   8.863   2.212
56120SOL     OW70198   6.690   1.878   4.568
56120SOL    HW170199   6.642   1.796   4.554
56120SOL    HW270200   6.767   1.853   4.618
56121SOL     OW70201   9.523   9.078  13.543
56121SOL    HW170202   9.607   9.119  13.525
56121SOL    HW270203   9.544   9.004  13.600
56122SOL     OW70204  12.719   4.950  12.899
56122SOL    HW170205  12.734   5.006  12.823
56122SOL    HW270206  12.778   4.986  12.966
56123SOL     OW70207  12.846   3.931  10.812
56123SOL    HW170208  12.887   3.868  10.871
56123SOL    HW270209  12.786   3.878  10.759
56124SOL     OW70210  13.656   6.194   6.334
56124SOL    HW170211  13.709   6.273   6.330
56124SOL    HW270212  13.588   6.214   6.399
56125SOL     OW70213   9.327   0.821   1.285
56125SOL    HW170214   9.288   0.796   1.369
56125SOL    HW270215   9.252   0.840   1.229
56126SOL     OW70216   4.012   9.343   6.514
56126SOL    HW170217   4.079   9.404   6.546
56126SOL    HW270218   3.951   9.334   6.588
56127SOL     OW70219   4.912   7.216   0.702
56127SOL    HW170220   4.835   7.184   0.748
56127SOL    HW270221   4.964   7.137   0.685
56128SOL     OW70222   8.502   7.876   7.761
56128SOL    HW170223   8.564   7.883   7.689
56128SOL    HW270224   8.536   7.804   7.815
56129SOL     OW70225  11.913   3.448  10.716
56129SOL    HW170226  11.863   3.425  10.795
56129SOL    HW270227  11.887   3.383  10.651
56130SOL     OW70228   3.326   5.176   5.737
56130SOL    HW170229   3.280   5.235   5.796
56130SOL    HW270230   3.410   5.220   5.719
56131SOL     OW70231  10.101   9.598   9.158
56131SOL    HW170232  10.049   9.678   9.154
56131SOL    HW270233  10.039   9.529   9.135
56132SOL     OW70234  11.746   3.665   7.550
56132SOL    HW170235  11.661   3.678   7.508
56132SOL    HW270236  11.759   3.571   7.548
56133SOL     OW70237   1.834  13.795   3.295
56133SOL    HW170238   1.889  13.782   3.373
56133SOL    HW270239   1.802  13.885   3.303
56134SOL     OW70240   2.445   5.576   2.609
56134SOL    HW170241   2.491   5.660   2.603
56134SOL    HW270242   2.515   5.510   2.613
56135SOL     OW70243   7.336   9.452   3.596
56135SOL    HW170244   7.251   9.428   3.633
56135SOL    HW270245   7.329   9.429   3.504
56136SOL     OW70246   7.190   0.718   9.344
56136SOL    HW170247   7.133   0.754   9.276
56136SOL    HW270248   7.249   0.659   9.297
56137SOL     OW70249  14.027  12.143   8.950
56137SOL    HW170250  14.052  12.193   9.028
56137SOL    HW270251  14.016  12.209   8.882
56138SOL     OW70252  14.840   7.934  14.200
56138SOL    HW170253  14.785   7.859  14.225
56138SOL    HW270254  14.834   7.937  14.105
56139SOL     OW70255  14.055  14.860   8.420
56139SOL    HW170256  13.978   0.033   8.387
56139SOL    HW270257  14.021  14.798   8.484
56140SOL     OW70258   3.473   3.257   1.105
56140SOL    HW170259   3.406   3.203   1.061
56140SOL    HW270260   3.445   3.347   1.089
56141SOL     OW70261  14.556   0.072   4.915
56141SOL    HW170262  14.564  14.860   4.871
56141SOL    HW270263  14.473   0.067   4.963
56142SOL     OW70264   5.859   9.350   9.931
56142SOL    HW170265   5.839   9.408  10.004
56142SOL    HW270266   5.918   9.285   9.969
56143SOL     OW70267  13.410   5.007   0.979
56143SOL    HW170268  13.386   5.100   0.973
56143SOL    HW270269  13.421   4.992   1.073
56144SOL     OW70270  12.313   7.637  12.664
56144SOL    HW170271  12.391   7.688  12.686
56144SOL    HW270272  12.341   7.578  12.595
56145SOL     OW70273  12.753   7.307  11.121
56145SOL    HW170274  12.789   7.336  11.037
56145SOL    HW270275  12.697   7.380  11.149
56146SOL     OW70276  10.145  13.631   0.901
56146SOL    HW170277  10.196  13.703   0.938
56146SOL    HW270278  10.172  13.554   0.951
56147SOL     OW70279   4.161   8.892  13.946
56147SOL    HW170280   4.128   8.810  13.983
56147SOL    HW270281   4.101   8.911  13.873
56148SOL     OW70282   5.264   4.543  13.481
56148SOL    HW170283   5.310   4.498  13.410
56148SOL    HW270284   5.171   4.529  13.462
56149SOL     OW70285   0.539  14.715   8.352
56149SOL    HW170286   0.579  14.631   8.371
56149SOL    HW270287   0.445  14.700   8.364
56150SOL     OW70288   4.542  13.775   8.214
56150SOL    HW170289   4.464  13.723   8.235
56150SOL    HW270290   4.612  13.711   8.203
56151SOL     OW70291   5.551   7.963   5.348
56151SOL    HW170292   5.534   7.882   5.301
56151SOL    HW270293   5.637   7.992   5.316
56152SOL     OW70294   6.263   8.302   0.433
56152SOL    HW170295   6.307   8.352   0.365
56152SOL    HW270296   6.322   8.307   0.509
56153SOL     OW70297  14.057   3.023  12.744
56153SOL    HW170298  14.107   2.969  12.683
56153SOL    HW270299  14.064   3.112  12.710
56154SOL     OW70300   9.825  13.474  11.532
56154SOL    HW170301   9.761  13.488  11.601
56154SOL    HW270302   9.902  13.439  11.577
56155SOL     OW70303   7.113  10.961  14.630
56155SOL    HW170304   7.036  10.931  14.678
56155SOL    HW270305   7.187  10.918  14.672
56156SOL     OW70306   4.680  11.078  11.538
56156SOL    HW170307   4.702  11.171  11.544
56156SOL    HW270308   4.742  11.035  11.597
56157SOL     OW70309   1.656   7.311  11.233
56157SOL    HW170310   1.661   7.222  11.268
56157SOL    HW270311   1.564   7.322  11.210
56158SOL     OW70312  12.001   1.648   6.235
56158SOL    HW170313  11.908   1.659   6.218
56158SOL    HW270314  12.007   1.635   6.330
56159SOL     OW70315   6.523   3.554  12.126
56159SOL    HW170316   6.573   3.567  12.207
56159SOL    HW270317   6.586   3.569  12.056
56160SOL     OW70318   8.284   2.977  13.971
56160SOL    HW170319   8.341   2.997  13.897
56160SOL    HW270320   8.196   2.978  13.935
56161SOL     OW70321   1.284   0.029   9.370
56161SOL    HW170322   1.369   0.069   9.382
56161SOL    HW270323   1.293  14.814   9.406
56162SOL     OW70324  10.421   2.787   6.616
56162SOL    HW170325  10.331   2.786   6.648
56162SOL    HW270326  10.453   2.875   6.635
56163SOL     OW70327   0.309   0.986  11.475
56163SOL    HW170328   0.244   1.048  11.442
56163SOL    HW270329   0.392   1.033  11.470
56164SOL     OW70330  12.248  13.866   3.381
56164SOL    HW170331  12.206  13.938   3.334
56164SOL    HW270332  12.217  13.787   3.336
56165SOL     OW70333   1.593   0.210   5.483
56165SOL    HW170334   1.625   0.300   5.482
56165SOL    HW270335   1.553   0.199   5.569
56166SOL     OW70336   6.139   2.459   1.527
56166SOL    HW170337   6.155   2.440   1.435
56166SOL    HW270338   6.046   2.440   1.540
56167SOL     OW70339   9.160   0.488   0.390
56167SOL    HW170340   9.192   0.419   0.332
56167SOL    HW270341   9.139   0.561   0.331
56168SOL     OW70342   3.010   9.065   3.016
56168SOL    HW170343   2.989   8.981   3.057
56168SOL    HW270344   3.093   9.050   2.971
56169SOL     OW70345   8.514  11.305   0.859
56169SOL    HW170346   8.518  11.211   0.843
56169SOL    HW270347   8.542  11.344   0.776
56170SOL     OW70348  12.188  12.157   6.786
56170SOL    HW170349  12.162  12.152   6.695
56170SOL    HW270350  12.274  12.114   6.789
56171SOL     OW70351   9.620   0.368   9.842
56171SOL    HW170352   9.662   0.284   9.857
56171SOL    HW270353   9.527   0.353   9.859
56172SOL     OW70354  14.540   1.827   2.569
56172SOL    HW170355  14.611   1.889   2.588
56172SOL    HW270356  14.461   1.873   2.597
56173SOL     OW70357  12.574   9.268   3.361
56173SOL    HW170358  12.518   9.216   3.303
56173SOL    HW270359  12.625   9.202   3.409
56174SOL     OW70360   5.456  10.912  10.920
56174SOL    HW170361   5.396  10.897  10.993
56174SOL    HW270362   5.513  10.835  10.919
56175SOL     OW70363   2.308   5.277  11.066
56175SOL    HW170364   2.234   5.271  11.126
56175SOL    HW270365   2.280   5.336  10.997
56176SOL     OW70366  12.492   6.369   4.511
56176SOL    HW170367  12.535   6.287   4.534
56176SOL    HW270368  12.554   6.437   4.540
56177SOL     OW70369   4.595   8.939   8.405
56177SOL    HW170370   4.520   8.887   8.436
56177SOL    HW270371   4.671   8.898   8.444
56178SOL     OW70372   9.305  14.279  13.235
56178SOL    HW170373   9.329  14.204  13.289
56178SOL    HW270374   9.302  14.353  13.297
56179SOL     OW70375   9.027   5.131  12.403
56179SOL    HW170376   8.969   5.207  12.400
56179SOL    HW270377   9.073   5.133  12.318
56180SOL     OW70378   8.447   0.627  14.448
56180SOL    HW170379   8.399   0.692  14.499
56180SOL    HW270380   8.469   0.672  14.366
56181SOL     OW70381  12.193   4.550   8.229
56181SOL    HW170382  12.217   4.527   8.140
56181SOL    HW270383  12.212   4.471   8.281
56182SOL     OW70384  14.324  14.165   1.957
56182SOL    HW170385  14.352  14.233   2.019
56182SOL    HW270386  14.246  14.201   1.916
56183SOL     OW70387  14.799  12.856   2.670
56183SOL    HW170388  14.710  12.821   2.669
56183SOL    HW270389  14.793  12.935   2.723
56184SOL     OW70390   1.677   7.871   0.512
56184SOL    HW170391   1.723   7.791   0.538
56184SOL    HW270392   1.746   7.930   0.483
56185SOL     OW70393   2.991   5.956  14.294
56185SOL    HW170394   2.969   5.933  14.204
56185SOL    HW270395   3.055   5.890  14.321
56186SOL     OW70396   4.165  11.918  11.693
56186SOL    HW170397   4.170  11.840  11.639
56186SOL    HW270398   4.154  11.990  11.630
56187SOL     OW70399   9.349   3.297  11.515
56187SOL    HW170400   9.358   3.369  11.578
56187SOL    HW270401   9.428   3.303  11.461
56188SOL     OW70402  11.876  13.539  10.236
56188SOL    HW170403  11.828  13.524  10.155
56188SOL    HW270404  11.852  13.628  10.262
56189SOL     OW70405  14.087   5.865  14.532
56189SOL    HW170406  14.122   5.825  14.612
56189SOL    HW270407  13.993   5.845  14.535
56190SOL     OW70408   3.765   6.874  10.343
56190SOL    HW170409   3.855   6.854  10.369
56190SOL    HW270410   3.711   6.828  10.406
56191SOL     OW70411   2.244   8.495   8.275
56191SOL    HW170412   2.209   8.485   8.363
56191SOL    HW270413   2.322   8.440   8.274
56192SOL     OW70414   1.981   9.463   9.234
56192SOL    HW170415   1.955   9.381   9.276
56192SOL    HW270416   2.032   9.509   9.300
56193SOL     OW70417  14.376   9.765  12.868
56193SOL    HW170418  14.288   9.803  12.870
56193SOL    HW270419  14.435   9.840  12.875
56194SOL     OW70420   8.583   9.379   6.704
56194SOL    HW170421   8.630   9.453   6.744
56194SOL    HW270422   8.652   9.329   6.659
56195SOL     OW70423  10.614   3.718   3.505
56195SOL    HW170424  10.585   3.764   3.426
56195SOL    HW270425  10.706   3.742   3.514
56196SOL     OW70426   6.322  13.953   2.258
56196SOL    HW170427   6.259  13.904   2.310
56196SOL    HW270428   6.363  14.013   2.320
56197SOL     OW70429   0.406  11.014   4.410
56197SOL    HW170430   0.461  10.972   4.344
56197SOL    HW270431   0.319  11.019   4.369
56198SOL     OW70432   4.304  10.875   5.357
56198SOL    HW170433   4.288  10.880   5.451
56198SOL    HW270434   4.290  10.965   5.326
56199SOL     OW70435   6.209   9.925   9.901
56199SOL    HW170436   6.176   9.846   9.943
56199SOL    HW270437   6.278   9.957   9.960
56200SOL     OW70438   3.343   1.569   6.881
56200SOL    HW170439   3.259   1.523   6.887
56200SOL    HW270440   3.322   1.661   6.895
56201SOL     OW70441  11.462   4.930   5.728
56201SOL    HW170442  11.457   4.897   5.818
56201SOL    HW270443  11.418   5.016   5.731
56202SOL     OW70444  10.401   0.147  11.291
56202SOL    HW170445  10.386   0.064  11.244
56202SOL    HW270446  10.339   0.144  11.364
56203SOL     OW70447   3.372   0.122   5.623
56203SOL    HW170448   3.352   0.062   5.695
56203SOL    HW270449   3.381   0.065   5.547
56204SOL     OW70450  13.722   5.409   1.600
56204SOL    HW170451  13.781   5.461   1.654
56204SOL    HW270452  13.681   5.472   1.541
56205SOL     OW70453   3.111   2.588   2.084
56205SOL    HW170454   3.157   2.668   2.059
56205SOL    HW270455   3.035   2.584   2.025
56206SOL     OW70456   9.331   6.857   9.759
56206SOL    HW170457   9.343   6.851   9.664
56206SOL    HW270458   9.280   6.779   9.781
56207SOL     OW70459   1.646   7.194   0.786
56207SOL    HW170460   1.679   7.226   0.870
56207SOL    HW270461   1.556   7.227   0.782
56208SOL     OW70462   5.982   8.963  11.891
56208SOL    HW170463   5.990   8.871  11.915
56208SOL    HW270464   6.024   8.970  11.806
56209SOL     OW70465   8.940  12.554   1.520
56209SOL    HW170466   8.892  12.616   1.466
56209SOL    HW270467   8.878  12.483   1.537
56210SOL     OW70468   5.216   1.405   9.728
56210SOL    HW170469   5.201   1.492   9.691
56210SOL    HW270470   5.293   1.416   9.784
56211SOL     OW70471   7.291   8.653   3.082
56211SOL    HW170472   7.238   8.574   3.086
56211SOL    HW270473   7.380   8.622   3.068
56212SOL     OW70474  14.394  11.478  10.748
56212SOL    HW170475  14.383  11.459  10.841
56212SOL    HW270476  14.306  11.465  10.711
56213SOL     OW70477   0.477   2.552  11.163
56213SOL    HW170478   0.398   2.587  11.205
56213SOL    HW270479   0.486   2.603  11.083
56214SOL     OW70480   0.102   4.072   3.224
56214SOL    HW170481   0.081   4.046   3.314
56214SOL    HW270482   0.049   4.013   3.170
56215SOL     OW70483   4.614   9.744  13.717
56215SOL    HW170484   4.708   9.734  13.704
56215SOL    HW270485   4.574   9.694  13.645
56216SOL     OW70486   1.407   0.713   7.992
56216SOL    HW170487   1.410   0.627   7.951
56216SOL    HW270488   1.415   0.694   8.086
56217SOL     OW70489   0.396   3.951  14.197
56217SOL    HW170490   0.483   3.946  14.236
56217SOL    HW270491   0.385   4.042  14.172
56218SOL     OW70492  10.847  12.978   3.092
56218SOL    HW170493  10.816  12.976   3.002
56218SOL    HW270494  10.942  12.989   3.085
56219SOL     OW70495   8.914   6.690   8.995
56219SOL    HW170496   8.941   6.688   9.087
56219SOL    HW270497   8.830   6.645   8.994
56220SOL     OW70498   3.832   8.494   6.601
56220SOL    HW170499   3.811   8.451   6.684
56220SOL    HW270500   3.927   8.483   6.592
56221SOL     OW70501   3.239  14.474   7.981
56221SOL    HW170502   3.230  14.380   7.967
56221SOL    HW270503   3.264  14.509   7.895
56222SOL     OW70504   2.642  14.011   3.916
56222SOL    HW170505   2.732  14.021   3.945
56222SOL    HW270506   2.612  14.100   3.898
56223SOL     OW70507  12.731   2.307   4.364
56223SOL    HW170508  12.696   2.229   4.408
56223SOL    HW270509  12.654   2.361   4.348
56224SOL     OW70510   5.751   0.851  11.615
56224SOL    HW170511   5.816   0.789  11.583
56224SOL    HW270512   5.679   0.797  11.646
56225SOL     OW70513   1.442   0.083  11.127
56225SOL    HW170514   1.511   0.047  11.182
56225SOL    HW270515   1.446   0.178  11.141
56226SOL     OW70516  11.203  12.673   3.916
56226SOL    HW170517  11.155  12.608   3.967
56226SOL    HW270518  11.175  12.657   3.826
56227SOL     OW70519  13.942   6.745   3.493
56227SOL    HW170520  13.952   6.668   3.548
56227SOL    HW270521  13.890   6.715   3.418
56228SOL     OW70522   9.325  14.364   8.185
56228SOL    HW170523   9.376  14.304   8.239
56228SOL    HW270524   9.368  14.362   8.100
56229SOL     OW70525  12.998   0.012   6.546
56229SOL    HW170526  12.950   0.071   6.487
56229SOL    HW270527  13.078  14.864   6.498
56230SOL     OW70528   9.265   4.809  14.440
56230SOL    HW170529   9.224   4.786  14.356
56230SOL    HW270530   9.356   4.779  14.431
56231SOL     OW70531   6.279   3.092   8.736
56231SOL    HW170532   6.252   3.183   8.738
56231SOL    HW270533   6.293   3.072   8.643
56232SOL     OW70534  10.910  14.753   3.243
56232SOL    HW170535  10.834  14.811   3.239
56232SOL    HW270536  10.900  14.706   3.327
56233SOL     OW70537  11.596  12.706   4.093
56233SOL    HW170538  11.519  12.754   4.064
56233SOL    HW270539  11.670  12.758   4.061
56234SOL     OW70540   5.891  14.542   1.562
56234SOL    HW170541   5.923  14.604   1.628
56234SOL    HW270542   5.945  14.464   1.574
56235SOL     OW70543   2.013   7.786  13.229
56235SOL    HW170544   1.969   7.850  13.284
56235SOL    HW270545   1.942   7.733  13.192
56236SOL     OW70546   2.186   9.192   8.712
56236SOL    HW170547   2.265   9.208   8.763
56236SOL    HW270548   2.116   9.237   8.761
56237SOL     OW70549   4.845  11.269  14.602
56237SOL    HW170550   4.887  11.235  14.681
56237SOL    HW270551   4.767  11.314  14.634
56238SOL     OW70552  13.692  10.861   3.641
56238SOL    HW170553  13.675  10.794   3.708
56238SOL    HW270554  13.647  10.939   3.674
56239SOL     OW70555  10.929   2.909   7.120
56239SOL    HW170556  10.952   2.860   7.042
56239SOL    HW270557  10.947   2.849   7.193
56240SOL     OW70558   1.719   2.581   0.426
56240SOL    HW170559   1.756   2.496   0.447
56240SOL    HW270560   1.688   2.572   0.335
56241SOL     OW70561  12.489   3.133   2.559
56241SOL    HW170562  12.407   3.124   2.607
56241SOL    HW270563  12.467   3.110   2.469
56242SOL     OW70564  13.975   3.693   3.676
56242SOL    HW170565  14.034   3.752   3.628
56242SOL    HW270566  14.033   3.646   3.737
56243SOL     OW70567  14.591   2.824   3.490
56243SOL    HW170568  14.633   2.904   3.523
56243SOL    HW270569  14.498   2.844   3.488
56244SOL     OW70570  11.272   9.488   3.190
56244SOL    HW170571  11.297   9.397   3.175
56244SOL    HW270572  11.240   9.519   3.105
56245SOL     OW70573   8.596  14.663   5.273
56245SOL    HW170574   8.666  14.687   5.334
56245SOL    HW270575   8.517  14.699   5.314
56246SOL     OW70576   4.593   9.708   1.290
56246SOL    HW170577   4.673   9.739   1.334
56246SOL    HW270578   4.610   9.724   1.197
56247SOL     OW70579  13.194   3.954  11.238
56247SOL    HW170580  13.250   3.961  11.161
56247SOL    HW270581  13.242   3.897  11.298
56248SOL     OW70582   3.188   7.272   2.862
56248SOL    HW170583   3.235   7.202   2.907
56248SOL    HW270584   3.204   7.350   2.915
56249SOL     OW70585   4.174   3.984   8.621
56249SOL    HW170586   4.117   3.914   8.589
56249SOL    HW270587   4.262   3.955   8.599
56250SOL     OW70588   6.808   7.829   7.778
56250SOL    HW170589   6.762   7.893   7.723
56250SOL    HW270590   6.871   7.788   7.718
56251SOL     OW70591  10.560  11.816  14.645
56251SOL    HW170592  10.499  11.826  14.571
56251SOL    HW270593  10.530  11.882  14.708
56252SOL     OW70594  10.021   6.729   4.247
56252SOL    HW170595  10.075   6.683   4.311
56252SOL    HW270596   9.939   6.745   4.293
56253SOL     OW70597   0.018  10.004  14.197
56253SOL    HW170598  14.814   9.956  14.167
56253SOL    HW270599   0.033   9.973  14.286
56254SOL     OW70600  13.627   3.993   9.205
56254SOL    HW170601  13.545   4.017   9.247
56254SOL    HW270602  13.655   4.073   9.160
56255SOL     OW70603  12.033   3.534   7.776
56255SOL    HW170604  11.964   3.598   7.792
56255SOL    HW270605  11.987   3.453   7.753
56256SOL     OW70606   8.986   4.431   1.009
56256SOL    HW170607   9.002   4.468   1.095
56256SOL    HW270608   9.064   4.379   0.991
56257SOL     OW70609   8.011   4.622  11.555
56257SOL    HW170610   8.065   4.680  11.608
56257SOL    HW270611   7.933   4.606  11.607
56258SOL     OW70612   8.215   2.691   9.846
56258SOL    HW170613   8.132   2.728   9.815
56258SOL    HW270614   8.273   2.696   9.770
56259SOL     OW70615   7.122  12.075   9.735
56259SOL    HW170616   7.196  12.131   9.713
56259SOL    HW270617   7.067  12.129   9.792
56260SOL     OW70618   8.034   5.233   1.391
56260SOL    HW170619   8.048   5.139   1.395
56260SOL    HW270620   8.010   5.258   1.481
56261SOL     OW70621   5.795  13.941  11.200
56261SOL    HW170622   5.794  13.871  11.135
56261SOL    HW270623   5.840  14.013  11.157
56262SOL     OW70624  13.375   7.224   2.981
56262SOL    HW170625  13.383   7.175   2.899
56262SOL    HW270626  13.334   7.307   2.956
56263SOL     OW70627   3.909  10.507  14.312
56263SOL    HW170628   3.842  10.572  14.292
56263SOL    HW270629   3.958  10.544  14.385
56264SOL     OW70630   1.512   2.883   2.266
56264SOL    HW170631   1.480   2.963   2.224
56264SOL    HW270632   1.469   2.813   2.217
56265SOL     OW70633   8.679   2.458  13.197
56265SOL    HW170634   8.740   2.500  13.258
56265SOL    HW270635   8.599   2.511  13.204
56266SOL     OW70636  10.437   5.070  10.056
56266SOL    HW170637  10.464   5.158  10.028
56266SOL    HW270638  10.394   5.084  10.140
56267SOL     OW70639   1.432   3.215   8.378
56267SOL    HW170640   1.423   3.199   8.284
56267SOL    HW270641   1.436   3.311   8.385
56268SOL     OW70642   6.210   7.061   1.080
56268SOL    HW170643   6.218   7.156   1.086
56268SOL    HW270644   6.173   7.045   0.993
56269SOL     OW70645   7.475  12.060  14.030
56269SOL    HW170646   7.390  12.102  14.021
56269SOL    HW270647   7.464  11.973  13.990
56270SOL     OW70648   6.234  13.537  14.155
56270SOL    HW170649   6.185  13.494  14.085
56270SOL    HW270650   6.269  13.616  14.114
56271SOL     OW70651  11.537   1.280  14.003
56271SOL    HW170652  11.464   1.238  13.959
56271SOL    HW270653  11.500   1.360  14.040
56272SOL     OW70654  12.208   7.889   2.122
56272SOL    HW170655  12.138   7.935   2.167
56272SOL    HW270656  12.187   7.796   2.133
56273SOL     OW70657   2.977   7.948  13.439
56273SOL    HW170658   2.969   7.879  13.505
56273SOL    HW270659   3.056   7.995  13.463
56274SOL     OW70660   8.088   5.952   1.626
56274SOL    HW170661   8.067   5.933   1.535
56274SOL    HW270662   8.009   5.927   1.675
56275SOL     OW70663  10.428  10.983   3.941
56275SOL    HW170664  10.391  10.957   4.025
56275SOL    HW270665  10.353  10.985   3.881
56276SOL     OW70666  10.387  11.008  11.739
56276SOL    HW170667  10.375  11.045  11.652
56276SOL    HW270668  10.436  10.927  11.724
56277SOL     OW70669   5.055  12.749  13.860
56277SOL    HW170670   5.141  12.715  13.886
56277SOL    HW270671   5.071  12.790  13.775
56278SOL     OW70672   9.470   5.442   6.999
56278SOL    HW170673   9.423   5.483   7.071
56278SOL    HW270674   9.402   5.397   6.949
56279SOL     OW70675  10.228   6.286   4.079
56279SOL    HW170676  10.295   6.344   4.043
56279SOL    HW270677  10.145   6.332   4.065
56280SOL     OW70678  11.791   4.258   9.108
56280SOL    HW170679  11.734   4.239   9.182
56280SOL    HW270680  11.815   4.172   9.073
56281SOL     OW70681   1.623   3.658   1.572
56281SOL    HW170682   1.654   3.603   1.499
56281SOL    HW270683   1.550   3.708   1.535
56282SOL     OW70684   5.400   9.824   0.054
56282SOL    HW170685   5.427   9.913   0.076
56282SOL    HW270686   5.481   9.781   0.026
56283SOL     OW70687   8.461   8.794   6.751
56283SOL    HW170688   8.435   8.845   6.828
56283SOL    HW270689   8.424   8.842   6.677
56284SOL     OW70690  11.801   0.962  11.401
56284SOL    HW170691  11.778   1.012  11.480
56284SOL    HW270692  11.818   0.874  11.433
56285SOL     OW70693  11.460   3.086   2.943
56285SOL    HW170694  11.389   3.037   2.903
56285SOL    HW270695  11.444   3.177   2.917
56286SOL     OW70696   4.326   8.984   8.746
56286SOL    HW170697   4.321   8.993   8.841
56286SOL    HW270698   4.371   9.064   8.717
56287SOL     OW70699   7.584  12.628  10.878
56287SOL    HW170700   7.660  12.579  10.848
56287SOL    HW270701   7.514  12.605  10.817
56288SOL     OW70702  11.586   9.662  11.334
56288SOL    HW170703  11.644   9.671  11.409
56288SOL    HW270704  11.502   9.634  11.372
56289SOL     OW70705  14.491   5.969   5.093
56289SOL    HW170706  14.556   5.920   5.144
56289SOL    HW270707  14.460   5.906   5.027
56290SOL     OW70708   8.704   0.734   5.040
56290SOL    HW170709   8.696   0.650   5.084
56290SOL    HW270710   8.672   0.718   4.951
56291SOL     OW70711   9.416   0.635   7.669
56291SOL    HW170712   9.448   0.723   7.648
56291SOL    HW270713   9.474   0.604   7.738
56292SOL     OW70714   1.657  10.008   3.357
56292SOL    HW170715   1.567  10.015   3.390
56292SOL    HW270716   1.710  10.000   3.436
56293SOL     OW70717   1.102   4.669  14.547
56293SOL    HW170718   1.178   4.727  14.553
56293SOL    HW270719   1.136   4.588  14.510
56294SOL     OW70720  14.300   6.616  11.803
56294SOL    HW170721  14.371   6.651  11.857
56294SOL    HW270722  14.231   6.593  11.867
56295SOL     OW70723   0.466   8.378   0.298
56295SOL    HW170724   0.449   8.466   0.263
56295SOL    HW270725   0.543   8.390   0.354
56296SOL     OW70726   3.019   6.818   6.722
56296SOL    HW170727   2.934   6.853   6.748
56296SOL    HW270728   3.054   6.881   6.660
56297SOL     OW70729   3.940   0.071   2.744
56297SOL    HW170730   3.948   0.162   2.773
56297SOL    HW270731   3.927   0.078   2.649
56298SOL     OW70732  13.161  13.121   8.221
56298SOL    HW170733  13.148  13.215   8.208
56298SOL    HW270734  13.119  13.080   8.146
56299SOL     OW70735   3.631   5.105   3.206
56299SOL    HW170736   3.564   5.151   3.257
56299SOL    HW270737   3.603   5.013   3.208
56300SOL     OW70738   6.464   0.885   0.637
56300SOL    HW170739   6.469   0.794   0.605
56300SOL    HW270740   6.546   0.898   0.684
56301SOL     OW70741  11.230   0.647  14.869
56301SOL    HW170742  11.224   0.596  14.788
56301SOL    HW270743  11.197   0.588   0.064
56302SOL     OW70744   8.710  13.329  11.039
56302SOL    HW170745   8.796  13.340  10.998
56302SOL    HW270746   8.727  13.273  11.115
56303SOL     OW70747  11.321   2.399  14.527
56303SOL    HW170748  11.272   2.469  14.572
56303SOL    HW270749  11.400   2.442  14.494
56304SOL     OW70750  13.531  11.938   3.181
56304SOL    HW170751  13.577  12.012   3.220
56304SOL    HW270752  13.600  11.875   3.161
56305SOL     OW70753  10.183  10.632   0.902
56305SOL    HW170754  10.139  10.703   0.854
56305SOL    HW270755  10.267  10.622   0.857
56306SOL     OW70756   2.609  14.444   4.165
56306SOL    HW170757   2.665  14.376   4.128
56306SOL    HW270758   2.576  14.408   4.247
56307SOL     OW70759   3.929   0.928   5.421
56307SOL    HW170760   3.922   1.002   5.481
56307SOL    HW270761   3.983   0.961   5.348
56308SOL     OW70762   2.700   2.435   8.100
56308SOL    HW170763   2.670   2.351   8.067
56308SOL    HW270764   2.687   2.496   8.027
56309SOL     OW70765   9.069   2.763   5.188
56309SOL    HW170766   9.163   2.782   5.186
56309SOL    HW270767   9.059   2.690   5.127
56310SOL     OW70768  11.081   4.017   5.795
56310SOL    HW170769  11.132   3.995   5.872
56310SOL    HW270770  11.109   4.106   5.772
56311SOL     OW70771   1.537   5.489   9.211
56311SOL    HW170772   1.627   5.466   9.231
56311SOL    HW270773   1.485   5.438   9.273
56312SOL     OW70774   3.433   5.411   8.760
56312SOL    HW170775   3.363   5.422   8.696
56312SOL    HW270776   3.402   5.342   8.819
56313SOL     OW70777   2.115  11.479  14.036
56313SOL    HW170778   2.110  11.463  14.130
56313SOL    HW270779   2.126  11.574  14.028
56314SOL     OW70780   7.887   3.096  12.652
56314SOL    HW170781   7.916   3.164  12.713
56314SOL    HW270782   7.801   3.127  12.622
56315SOL     OW70783   8.253   5.159   9.990
56315SOL    HW170784   8.300   5.224  10.040
56315SOL    HW270785   8.237   5.200   9.905
56316SOL     OW70786   5.536   0.716   0.325
56316SOL    HW170787   5.452   0.670   0.326
56316SOL    HW270788   5.519   0.795   0.273
56317SOL     OW70789   4.723  10.394   9.994
56317SOL    HW170790   4.802  10.349  10.024
56317SOL    HW270791   4.698  10.348   9.914
56318SOL     OW70792  10.226   4.286   1.141
56318SOL    HW170793  10.300   4.320   1.090
56318SOL    HW270794  10.257   4.203   1.176
56319SOL     OW70795   1.276   7.532  12.893
56319SOL    HW170796   1.184   7.510  12.901
56319SOL    HW270797   1.277   7.619  12.852
56320SOL     OW70798   0.372   6.637   6.230
56320SOL    HW170799   0.287   6.598   6.209
56320SOL    HW270800   0.412   6.575   6.291
56321SOL     OW70801  14.794   2.819  14.713
56321SOL    HW170802  14.873   2.862  14.679
56321SOL    HW270803  14.739   2.892  14.743
56322SOL     OW70804   1.602  13.348   5.379
56322SOL    HW170805   1.599  13.406   5.455
56322SOL    HW270806   1.540  13.387   5.317
56323SOL     OW70807  10.896   9.812  10.132
56323SOL    HW170808  10.854   9.758  10.200
56323SOL    HW270809  10.868   9.772  10.050
56324SOL     OW70810   3.206   0.095  13.452
56324SOL    HW170811   3.294   0.132  13.444
56324SOL    HW270812   3.150   0.170  13.470
56325SOL     OW70813   1.875  13.688  11.375
56325SOL    HW170814   1.955  13.729  11.342
56325SOL    HW270815   1.903  13.641  11.453
56326SOL     OW70816   4.847  13.461   5.693
56326SOL    HW170817   4.865  13.391   5.756
56326SOL    HW270818   4.776  13.427   5.639
56327SOL     OW70819  12.629  10.562   7.603
56327SOL    HW170820  12.622  10.537   7.695
56327SOL    HW270821  12.540  10.550   7.568
56328SOL     OW70822  13.534   1.103  13.276
56328SOL    HW170823  13.544   1.007  13.275
56328SOL    HW270824  13.446   1.117  13.309
56329SOL     OW70825  14.822   4.826  14.497
56329SOL    HW170826  14.731   4.855  14.498
56329SOL    HW270827  14.870   4.896  14.452
56330SOL     OW70828   9.699   5.694   5.486
56330SOL    HW170829   9.753   5.635   5.539
56330SOL    HW270830   9.756   5.718   5.413
56331SOL     OW70831   7.353   0.263   4.772
56331SOL    HW170832   7.302   0.186   4.796
56331SOL    HW270833   7.413   0.276   4.845
56332SOL     OW70834  14.667   2.215   8.635
56332SOL    HW170835  14.730   2.240   8.567
56332SOL    HW270836  14.674   2.120   8.641
56333SOL     OW70837   0.915   5.611   6.287
56333SOL    HW170838   0.983   5.659   6.336
56333SOL    HW270839   0.940   5.621   6.195
56334SOL     OW70840   4.781   3.199   7.744
56334SOL    HW170841   4.705   3.174   7.796
56334SOL    HW270842   4.845   3.229   7.809
56335SOL     OW70843   3.989   3.867   3.830
56335SOL    HW170844   3.930   3.901   3.897
56335SOL    HW270845   4.035   3.945   3.797
56336SOL     OW70846  11.218  11.153   4.640
56336SOL    HW170847  11.195  11.121   4.728
56336SOL    HW270848  11.277  11.227   4.657
56337SOL     OW70849   7.091  14.069  14.424
56337SOL    HW170850   7.166  14.116  14.460
56337SOL    HW270851   7.115  14.051  14.333
56338SOL     OW70852  11.701   2.985  13.564
56338SOL    HW170853  11.681   2.929  13.489
56338SOL    HW270854  11.795   2.972  13.579
56339SOL     OW70855   5.973   1.571  13.627
56339SOL    HW170856   5.977   1.567  13.532
56339SOL    HW270857   6.040   1.635  13.652
56340SOL     OW70858   2.173   2.083   2.275
56340SOL    HW170859   2.198   2.160   2.224
56340SOL    HW270860   2.108   2.039   2.221
56341SOL     OW70861  11.949   2.888  13.575
56341SOL    HW170862  12.044   2.897  13.565
56341SOL    HW270863  11.936   2.795  13.596
56342SOL     OW70864   6.251  10.681  12.550
56342SOL    HW170865   6.345  10.664  12.558
56342SOL    HW270866   6.236  10.683  12.455
56343SOL     OW70867   4.952   4.928   0.015
56343SOL    HW170868   4.894   4.893   0.083
56343SOL    HW270869   4.936   4.872  14.812
56344SOL     OW70870   2.155   5.292  12.126
56344SOL    HW170871   2.144   5.244  12.208
56344SOL    HW270872   2.083   5.261  12.071
56345SOL     OW70873   0.822   5.828   4.636
56345SOL    HW170874   0.901   5.871   4.670
56345SOL    HW270875   0.828   5.836   4.541
56346SOL     OW70876   8.215  11.691  11.138
56346SOL    HW170877   8.249  11.777  11.114
56346SOL    HW270878   8.126  11.690  11.103
56347SOL     OW70879   2.053   0.994   0.436
56347SOL    HW170880   2.067   1.051   0.361
56347SOL    HW270881   1.984   1.037   0.487
56348SOL     OW70882  13.606  10.976   1.880
56348SOL    HW170883  13.621  11.060   1.838
56348SOL    HW270884  13.692  10.934   1.881
56349SOL     OW70885   2.177  14.236   0.086
56349SOL    HW170886   2.183  14.198   0.174
56349SOL    HW270887   2.205  14.165   0.028
56350SOL     OW70888   6.512   8.515   1.863
56350SOL    HW170889   6.421   8.516   1.833
56350SOL    HW270890   6.525   8.600   1.906
56351SOL     OW70891   7.562  11.156   1.955
56351SOL    HW170892   7.561  11.251   1.957
56351SOL    HW270893   7.643  11.131   2.001
56352SOL     OW70894   1.043   7.544   1.348
56352SOL    HW170895   1.053   7.553   1.253
56352SOL    HW270896   0.954   7.512   1.360
56353SOL     OW70897   3.489  14.607   6.303
56353SOL    HW170898   3.410  14.580   6.258
56353SOL    HW270899   3.539  14.526   6.317
56354SOL     OW70900   1.408   5.318  13.421
56354SOL    HW170901   1.462   5.267  13.360
56354SOL    HW270902   1.468   5.384  13.456
56355SOL     OW70903  10.774  13.491   0.884
56355SOL    HW170904  10.723  13.460   0.809
56355SOL    HW270905  10.795  13.582   0.864
56356SOL     OW70906   1.150  12.021  12.696
56356SOL    HW170907   1.084  11.953  12.714
56356SOL    HW270908   1.136  12.086  12.764
56357SOL     OW70909   6.525  11.154   9.719
56357SOL    HW170910   6.467  11.079   9.726
56357SOL    HW270911   6.586  11.130   9.649
56358SOL     OW70912   6.193  12.153   1.138
56358SOL    HW170913   6.117  12.178   1.191
56358SOL    HW270914   6.243  12.234   1.130
56359SOL     OW70915  12.280  10.171  10.843
56359SOL    HW170916  12.303  10.251  10.891
56359SOL    HW270917  12.355  10.113  10.856
56360SOL     OW70918   0.001   6.696   4.178
56360SOL    HW170919   0.002   6.785   4.143
56360SOL    HW270920   0.093   6.668   4.174
56361SOL     OW70921  14.811   0.982   9.122
56361SOL    HW170922  14.864   0.903   9.133
56361SOL    HW270923  14.738   0.970   9.183
56362SOL     OW70924   3.726   9.042   2.185
56362SOL    HW170925   3.741   9.102   2.258
56362SOL    HW270926   3.685   9.096   2.117
56363SOL     OW70927   1.292   5.821  12.379
56363SOL    HW170928   1.283   5.809  12.284
56363SOL    HW270929   1.219   5.879  12.402
56364SOL     OW70930   3.988   8.030  13.670
56364SOL    HW170931   4.072   7.984  13.674
56364SOL    HW270932   3.950   8.019  13.757
56365SOL     OW70933   0.547   2.970  11.511
56365SOL    HW170934   0.510   3.058  11.507
56365SOL    HW270935   0.641   2.983  11.501
56366SOL     OW70936  13.154   4.481  14.780
56366SOL    HW170937  13.097   4.405  14.790
56366SOL    HW270938  13.096   4.550  14.748
56367SOL     OW70939   8.347  12.607   8.341
56367SOL    HW170940   8.283  12.551   8.384
56367SOL    HW270941   8.427  12.554   8.339
56368SOL     OW70942   0.965  10.405   0.091
56368SOL    HW170943   1.058  10.395   0.073
56368SOL    HW270944   0.941  10.487   0.048
56369SOL     OW70945   1.581   2.962  12.033
56369SOL    HW170946   1.543   3.004  12.111
56369SOL    HW270947   1.553   3.016  11.960
56370SOL     OW70948   4.259  11.639   4.661
56370SOL    HW170949   4.188  11.614   4.720
56370SOL    HW270950   4.238  11.729   4.636
56371SOL     OW70951  14.030   6.271  12.400
56371SOL    HW170952  14.002   6.359  12.425
56371SOL    HW270953  14.116   6.261  12.440
56372SOL     OW70954   7.856  14.114   2.022
56372SOL    HW170955   7.838  14.186   2.082
56372SOL    HW270956   7.794  14.045   2.047
56373SOL     OW70957   4.467  11.181   5.891
56373SOL    HW170958   4.546  11.139   5.858
56373SOL    HW270959   4.480  11.186   5.986
56374SOL     OW70960   4.165   7.118   2.757
56374SOL    HW170961   4.188   7.208   2.779
56374SOL    HW270962   4.150   7.119   2.663
56375SOL     OW70963   9.296   0.883   0.670
56375SOL    HW170964   9.313   0.977   0.665
56375SOL    HW270965   9.231   0.875   0.740
56376SOL     OW70966   8.455   7.916   0.083
56376SOL    HW170967   8.532   7.874   0.122
56376SOL    HW270968   8.480   7.933  14.866
56377SOL     OW70969   3.388   4.391   9.535
56377SOL    HW170970   3.471   4.373   9.581
56377SOL    HW270971   3.329   4.421   9.604
56378SOL     OW70972   8.852  14.782   3.010
56378SOL    HW170973   8.774  14.761   3.062
56378SOL    HW270974   8.926  14.756   3.065
56379SOL     OW70975   3.249   9.585   4.629
56379SOL    HW170976   3.157   9.565   4.645
56379SOL    HW270977   3.270   9.535   4.550
56380SOL     OW70978  14.812   8.112   9.239
56380SOL    HW170979   0.030   8.141   9.232
56380SOL    HW270980  14.761   8.188   9.211
56381SOL     OW70981   1.018   4.477   8.155
56381SOL    HW170982   0.989   4.543   8.218
56381SOL    HW270983   0.948   4.411   8.155
56382SOL     OW70984   1.249  13.866  14.093
56382SOL    HW170985   1.285  13.954  14.103
56382SOL    HW270986   1.270  13.822  14.175
56383SOL     OW70987   0.935   6.097   7.831
56383SOL    HW170988   0.839   6.087   7.828
56383SOL    HW270989   0.969   6.008   7.819
56384SOL     OW70990   2.062   2.760   9.935
56384SOL    HW170991   2.065   2.835   9.995
56384SOL    HW270992   1.977   2.718   9.954
56385SOL     OW70993   8.277   6.792   4.142
56385SOL    HW170994   8.321   6.874   4.119
56385SOL    HW270995   8.329   6.725   4.098
56386SOL     OW70996   8.891  14.706   6.534
56386SOL    HW170997   8.835  14.629   6.542
56386SOL    HW270998   8.836  14.779   6.564
56387SOL     OW70999  14.302   1.630   4.652
56387SOL    HW171000  14.384   1.672   4.679
56387SOL    HW271001  14.261   1.604   4.734
56388SOL     OW71002  10.059  10.048   8.589
56388SOL    HW171003   9.980  10.056   8.535
56388SOL    HW271004  10.032  10.077   8.676
56389SOL     OW71005   2.335   0.799  13.137
56389SOL    HW171006   2.287   0.881  13.128
56389SOL    HW271007   2.267   0.731  13.136
56390SOL     OW71008   2.668  13.280  14.377
56390SOL    HW171009   2.585  13.323  14.399
56390SOL    HW271010   2.720  13.286  14.457
56391SOL     OW71011  11.082   7.531   1.600
56391SOL    HW171012  11.121   7.447   1.623
56391SOL    HW271013  11.140   7.566   1.531
56392SOL     OW71014  11.865   6.333  14.799
56392SOL    HW171015  11.800   6.399  14.776
56392SOL    HW271016  11.929   6.379  14.853
56393SOL     OW71017   3.706  10.462   1.130
56393SOL    HW171018   3.643  10.483   1.060
56393SOL    HW271019   3.756  10.388   1.095
56394SOL     OW71020   5.687   9.194   5.004
56394SOL    HW171021   5.781   9.185   5.018
56394SOL    HW271022   5.666   9.125   4.941
56395SOL     OW71023   1.499   1.403   9.839
56395SOL    HW171024   1.493   1.324   9.892
56395SOL    HW271025   1.491   1.475   9.901
56396SOL     OW71026   1.936   7.975   1.249
56396SOL    HW171027   1.961   7.924   1.173
56396SOL    HW271028   2.017   7.990   1.297
56397SOL     OW71029  14.716   7.921   3.192
56397SOL    HW171030  14.800   7.903   3.233
56397SOL    HW271031  14.651   7.886   3.253
56398SOL     OW71032   0.157  11.848   8.451
56398SOL    HW171033   0.103  11.779   8.490
56398SOL    HW271034   0.196  11.808   8.374
56399SOL     OW71035   8.315   7.198  11.482
56399SOL    HW171036   8.368   7.210  11.403
56399SOL    HW271037   8.240   7.256  11.469
56400SOL     OW71038   5.486  10.609   8.151
56400SOL    HW171039   5.531  10.567   8.078
56400SOL    HW271040   5.556  10.633   8.212
56401SOL     OW71041   5.582   6.822  12.744
56401SOL    HW171042   5.626   6.737  12.735
56401SOL    HW271043   5.509   6.805  12.804
56402SOL     OW71044   0.419   0.472   2.161
56402SOL    HW171045   0.425   0.403   2.227
56402SOL    HW271046   0.343   0.524   2.188
56403SOL     OW71047  13.341   8.561  13.767
56403SOL    HW171048  13.397   8.593  13.697
56403SOL    HW271049  13.261   8.532  13.722
56404SOL     OW71050   3.316   0.752   6.620
56404SOL    HW171051   3.306   0.801   6.701
56404SOL    HW271052   3.348   0.666   6.648
56405SOL     OW71053   0.108  13.375   5.163
56405SOL    HW171054   0.152  13.297   5.128
56405SOL    HW271055   0.022  13.374   5.121
56406SOL     OW71056   8.060   1.563   3.154
56406SOL    HW171057   7.994   1.604   3.211
56406SOL    HW271058   8.054   1.470   3.175
56407SOL     OW71059   0.992  11.769   7.634
56407SOL    HW171060   1.010  11.761   7.541
56407SOL    HW271061   0.955  11.684   7.659
56408SOL     OW71062   1.385   7.648   7.177
56408SOL    HW171063   1.434   7.606   7.248
56408SOL    HW271064   1.378   7.740   7.203
56409SOL     OW71065   0.709   4.282   1.272
56409SOL    HW171066   0.737   4.315   1.186
56409SOL    HW271067   0.692   4.361   1.323
56410SOL     OW71068   1.244  11.212   9.248
56410SOL    HW171069   1.280  11.176   9.167
56410SOL    HW271070   1.309  11.191   9.314
56411SOL     OW71071   0.968  13.921  14.155
56411SOL    HW171072   1.050  13.898  14.111
56411SOL    HW271073   0.960  13.856  14.225
56412SOL     OW71074   2.934   2.572   9.926
56412SOL    HW171075   2.922   2.485   9.888
56412SOL    HW271076   2.989   2.558  10.003
56413SOL     OW71077   0.653   9.254   0.386
56413SOL    HW171078   0.567   9.282   0.354
56413SOL    HW271079   0.674   9.177   0.334
56414SOL     OW71080  11.614  14.826  10.185
56414SOL    HW171081  11.644  14.737  10.206
56414SOL    HW271082  11.550  14.846  10.253
56415SOL     OW71083   6.239   0.838  14.354
56415SOL    HW171084   6.167   0.849  14.415
56415SOL    HW271085   6.262   0.745  14.360
56416SOL     OW71086  12.091   6.910   4.760
56416SOL    HW171087  12.026   6.868   4.705
56416SOL    HW271088  12.094   6.856   4.839
56417SOL     OW71089  13.481  11.303   3.643
56417SOL    HW171090  13.508  11.388   3.678
56417SOL    HW271091  13.409  11.324   3.583
56418SOL     OW71092   8.994   0.028   7.441
56418SOL    HW171093   9.026   0.025   7.531
56418SOL    HW271094   9.060  14.854   7.391
56419SOL     OW71095  12.488   3.230  14.562
56419SOL    HW171096  12.472   3.286  14.638
56419SOL    HW271097  12.558   3.274  14.513
56420SOL     OW71098   9.374   0.447   5.063
56420SOL    HW171099   9.288   0.436   5.104
56420SOL    HW271100   9.418   0.364   5.078
56421SOL     OW71101   8.085  14.791   3.419
56421SOL    HW171102   8.008  14.749   3.380
56421SOL    HW271103   8.152  14.723   3.421
56422SOL     OW71104   0.077  12.442   5.180
56422SOL    HW171105   0.112  12.374   5.238
56422SOL    HW271106  14.856  12.426   5.178
56423SOL     OW71107   7.254   2.289   4.878
56423SOL    HW171108   7.176   2.238   4.859
56423SOL    HW271109   7.232   2.338   4.958
56424SOL     OW71110   6.429  13.617   4.343
56424SOL    HW171111   6.343  13.613   4.385
56424SOL    HW271112   6.491  13.614   4.416
56425SOL     OW71113  11.598   4.559   6.657
56425SOL    HW171114  11.543   4.533   6.583
56425SOL    HW271115  11.650   4.481   6.676
56426SOL     OW71116   2.909   7.176  14.214
56426SOL    HW171117   2.834   7.193  14.271
56426SOL    HW271118   2.950   7.098  14.251
56427SOL     OW71119   0.111  11.898  10.950
56427SOL    HW171120   0.048  11.880  11.020
56427SOL    HW271121   0.146  11.985  10.971
56428SOL     OW71122  14.301  11.396   5.114
56428SOL    HW171123  14.395  11.407   5.099
56428SOL    HW271124  14.294  11.373   5.207
56429SOL     OW71125  13.757   9.997   7.018
56429SOL    HW171126  13.746   9.912   7.061
56429SOL    HW271127  13.672  10.040   7.028
56430SOL     OW71128   6.231  10.626   7.759
56430SOL    HW171129   6.244  10.636   7.853
56430SOL    HW271130   6.315  10.595   7.726
56431SOL     OW71131   5.537   9.454   2.580
56431SOL    HW171132   5.522   9.520   2.647
56431SOL    HW271133   5.591   9.388   2.622
56432SOL     OW71134  12.256  11.299  12.176
56432SOL    HW171135  12.167  11.329  12.160
56432SOL    HW271136  12.246  11.208  12.203
56433SOL     OW71137   2.698  13.210  12.286
56433SOL    HW171138   2.783  13.177  12.255
56433SOL    HW271139   2.711  13.304  12.296
56434SOL     OW71140   6.661   3.174  11.581
56434SOL    HW171141   6.737   3.116  11.591
56434SOL    HW271142   6.586   3.119  11.599
56435SOL     OW71143   3.343  14.794  10.218
56435SOL    HW171144   3.261  14.748  10.232
56435SOL    HW271145   3.325  14.854  10.145
56436SOL     OW71146   1.139  11.590  11.377
56436SOL    HW171147   1.155  11.643  11.299
56436SOL    HW271148   1.044  11.579  11.380
56437SOL     OW71149   8.850  10.974   9.808
56437SOL    HW171150   8.764  10.944   9.837
56437SOL    HW271151   8.896  10.996   9.889
56438SOL     OW71152   3.856  10.512  13.283
56438SOL    HW171153   3.896  10.487  13.366
56438SOL    HW271154   3.807  10.434  13.256
56439SOL     OW71155   9.384   7.834   6.056
56439SOL    HW171156   9.425   7.832   6.143
56439SOL    HW271157   9.292   7.816   6.073
56440SOL     OW71158   0.040   3.289   1.346
56440SOL    HW171159   0.076   3.369   1.307
56440SOL    HW271160   0.012   3.316   1.433
56441SOL     OW71161  12.094  11.550   1.364
56441SOL    HW171162  12.080  11.557   1.269
56441SOL    HW271163  12.007  11.538   1.400
56442SOL     OW71164   3.138   8.551   6.410
56442SOL    HW171165   3.233   8.549   6.420
56442SOL    HW271166   3.122   8.505   6.327
56443SOL     OW71167   9.015   3.273   2.797
56443SOL    HW171168   8.947   3.297   2.735
56443SOL    HW271169   9.078   3.223   2.745
56444SOL     OW71170   6.791   4.779   7.943
56444SOL    HW171171   6.845   4.844   7.899
56444SOL    HW271172   6.821   4.780   8.034
56445SOL     OW71173   7.312   2.998   3.994
56445SOL    HW171174   7.385   2.948   4.031
56445SOL    HW271175   7.354   3.069   3.945
56446SOL     OW71176   8.579   7.849  10.051
56446SOL    HW171177   8.591   7.903  10.130
56446SOL    HW271178   8.564   7.761  10.084
56447SOL     OW71179   1.950   5.350   3.672
56447SOL    HW171180   1.859   5.335   3.699
56447SOL    HW271181   1.944   5.403   3.594
56448SOL     OW71182   5.547  14.476   3.743
56448SOL    HW171183   5.544  14.384   3.770
56448SOL    HW271184   5.639  14.493   3.727
56449SOL     OW71185   6.498   5.641   2.397
56449SOL    HW171186   6.457   5.591   2.468
56449SOL    HW271187   6.561   5.580   2.358
56450SOL     OW71188   3.856   4.819   5.997
56450SOL    HW171189   3.841   4.725   5.985
56450SOL    HW271190   3.896   4.826   6.083
56451SOL     OW71191  12.602  11.168   4.023
56451SOL    HW171192  12.587  11.250   3.975
56451SOL    HW271193  12.517  11.149   4.063
56452SOL     OW71194   2.965   8.221   1.334
56452SOL    HW171195   2.987   8.312   1.351
56452SOL    HW271196   2.917   8.192   1.412
56453SOL     OW71197   8.061   0.992   6.229
56453SOL    HW171198   8.125   1.039   6.282
56453SOL    HW271199   8.113   0.938   6.170
56454SOL     OW71200   5.455  14.165   0.326
56454SOL    HW171201   5.484  14.074   0.319
56454SOL    HW271202   5.378  14.161   0.384
56455SOL     OW71203   1.608   0.478   3.269
56455SOL    HW171204   1.555   0.503   3.345
56455SOL    HW271205   1.650   0.396   3.295
56456SOL     OW71206  10.494   5.705   5.908
56456SOL    HW171207  10.427   5.666   5.853
56456SOL    HW271208  10.560   5.738   5.846
56457SOL     OW71209  12.385   1.650   8.185
56457SOL    HW171210  12.436   1.579   8.224
56457SOL    HW271211  12.311   1.606   8.144
56458SOL     OW71212   5.874   6.584   3.576
56458SOL    HW171213   5.922   6.503   3.593
56458SOL    HW271214   5.938   6.654   3.593
56459SOL     OW71215   3.376  11.499   6.611
56459SOL    HW171216   3.470  11.507   6.628
56459SOL    HW271217   3.360  11.559   6.538
56460SOL     OW71218  12.086   5.167  13.177
56460SOL    HW171219  12.111   5.152  13.086
56460SOL    HW271220  12.000   5.124  13.186
56461SOL     OW71221   0.604   8.158  10.572
56461SOL    HW171222   0.556   8.127  10.649
56461SOL    HW271223   0.669   8.090  10.556
56462SOL     OW71224   7.819   0.600   1.408
56462SOL    HW171225   7.731   0.591   1.371
56462SOL    HW271226   7.878   0.592   1.333
56463SOL     OW71227   8.234   6.658   4.686
56463SOL    HW171228   8.240   6.747   4.653
56463SOL    HW271229   8.283   6.659   4.768
56464SOL     OW71230   0.257  12.115   8.201
56464SOL    HW171231   0.216  12.192   8.161
56464SOL    HW271232   0.221  12.040   8.153
56465SOL     OW71233  14.134  11.969   6.391
56465SOL    HW171234  14.186  11.889   6.401
56465SOL    HW271235  14.197  12.034   6.358
56466SOL     OW71236   6.801   2.185   1.632
56466SOL    HW171237   6.768   2.273   1.646
56466SOL    HW271238   6.859   2.169   1.706
56467SOL     OW71239   9.097   8.002   9.962
56467SOL    HW171240   9.184   7.967   9.980
56467SOL    HW271241   9.102   8.094   9.987
56468SOL     OW71242   6.507  13.286   2.027
56468SOL    HW171243   6.451  13.254   1.956
56468SOL    HW271244   6.571  13.217   2.041
56469SOL     OW71245   5.679   9.932   6.186
56469SOL    HW171246   5.773   9.919   6.174
56469SOL    HW271247   5.659   9.890   6.270
56470SOL     OW71248  12.864   0.066  10.467
56470SOL    HW171249  12.870   0.108  10.381
56470SOL    HW271250  12.875  14.846  10.450
56471SOL     OW71251   5.407   8.757  13.870
56471SOL    HW171252   5.458   8.697  13.924
56471SOL    HW271253   5.427   8.844  13.904
56472SOL     OW71254  11.974   1.652   8.381
56472SOL    HW171255  12.002   1.561   8.390
56472SOL    HW271256  11.956   1.662   8.287
56473SOL     OW71257   1.953  10.575   8.089
56473SOL    HW171258   1.895  10.650   8.074
56473SOL    HW271259   1.977  10.545   8.002
56474SOL     OW71260  12.259  12.793  14.495
56474SOL    HW171261  12.221  12.880  14.509
56474SOL    HW271262  12.345  12.811  14.457
56475SOL     OW71263   7.032   7.283  12.878
56475SOL    HW171264   7.127   7.297  12.877
56475SOL    HW271265   6.996   7.353  12.824
56476SOL     OW71266   3.810   4.261  10.326
56476SOL    HW171267   3.791   4.272  10.232
56476SOL    HW271268   3.905   4.271  10.332
56477SOL     OW71269   9.611  13.344  13.957
56477SOL    HW171270   9.557  13.346  14.036
56477SOL    HW271271   9.560  13.292  13.895
56478SOL     OW71272   2.259   6.055   0.140
56478SOL    HW171273   2.296   6.120   0.080
56478SOL    HW271274   2.216   6.107   0.208
56479SOL     OW71275   4.489  13.699   6.903
56479SOL    HW171276   4.523  13.736   6.822
56479SOL    HW271277   4.432  13.768   6.939
56480SOL     OW71278   8.649  13.217   9.309
56480SOL    HW171279   8.645  13.312   9.303
56480SOL    HW271280   8.613  13.197   9.395
56481SOL     OW71281   3.732  10.186   9.166
56481SOL    HW171282   3.679  10.249   9.215
56481SOL    HW271283   3.747  10.114   9.227
56482SOL     OW71284  13.954   9.592  11.486
56482SOL    HW171285  13.877   9.638  11.453
56482SOL    HW271286  14.028   9.638  11.446
56483SOL     OW71287   8.968   0.038   4.384
56483SOL    HW171288   8.972   0.133   4.374
56483SOL    HW271289   8.883   0.013   4.347
56484SOL     OW71290  12.117   7.293  11.778
56484SOL    HW171291  12.208   7.266  11.794
56484SOL    HW271292  12.075   7.289  11.864
56485SOL     OW71293  12.298   8.865   4.302
56485SOL    HW171294  12.314   8.953   4.336
56485SOL    HW271295  12.352   8.860   4.223
56486SOL     OW71296  12.753  12.354   1.697
56486SOL    HW171297  12.779  12.263   1.683
56486SOL    HW271298  12.716  12.381   1.614
56487SOL     OW71299  10.271  11.456   5.613
56487SOL    HW171300  10.254  11.371   5.652
56487SOL    HW271301  10.189  11.505   5.624
56488SOL     OW71302   1.326   4.224   0.588
56488SOL    HW171303   1.371   4.258   0.511
56488SOL    HW271304   1.377   4.147   0.613
56489SOL     OW71305   9.277  13.147   8.851
56489SOL    HW171306   9.305  13.117   8.937
56489SOL    HW271307   9.218  13.220   8.869
56490SOL     OW71308  13.874  14.326   0.696
56490SOL    HW171309  13.818  14.304   0.771
56490SOL    HW271310  13.963  14.327   0.732
56491SOL     OW71311  14.256   8.490   9.551
56491SOL    HW171312  14.170   8.449   9.542
56491SOL    HW271313  14.248   8.573   9.504
56492SOL     OW71314  14.222   7.697   5.637
56492SOL    HW171315  14.273   7.770   5.672
56492SOL    HW271316  14.134   7.732   5.626
56493SOL     OW71317  10.115  10.294  14.205
56493SOL    HW171318  10.203  10.281  14.168
56493SOL    HW271319  10.084  10.375  14.163
56494SOL     OW71320  12.440   0.292   8.671
56494SOL    HW171321  12.521   0.287   8.722
56494SOL    HW271322  12.417   0.385   8.672
56495SOL     OW71323  13.603  12.049   8.467
56495SOL    HW171324  13.620  12.143   8.461
56495SOL    HW271325  13.638  12.024   8.553
56496SOL     OW71326  14.088  12.366   5.279
56496SOL    HW171327  14.051  12.320   5.354
56496SOL    HW271328  14.072  12.308   5.205
56497SOL     OW71329   5.252   1.761   6.846
56497SOL    HW171330   5.283   1.778   6.935
56497SOL    HW271331   5.222   1.846   6.814
56498SOL     OW71332   7.437   8.673   1.381
56498SOL    HW171333   7.478   8.641   1.461
56498SOL    HW271334   7.494   8.641   1.311
56499SOL     OW71335   2.188  13.160  11.877
56499SOL    HW171336   2.164  13.200  11.793
56499SOL    HW271337   2.121  13.094  11.893
56500SOL     OW71338   1.018   5.798   5.302
56500SOL    HW171339   1.081   5.783   5.373
56500SOL    HW271340   1.054   5.751   5.227
56501SOL     OW71341  10.612   4.716  14.013
56501SOL    HW171342  10.678   4.658  13.974
56501SOL    HW271343  10.529   4.676  13.987
56502SOL     OW71344   1.473  12.280   3.519
56502SOL    HW171345   1.513  12.367   3.527
56502SOL    HW271346   1.543  12.225   3.484
56503SOL     OW71347   2.568  14.610   5.484
56503SOL    HW171348   2.624  14.679   5.519
56503SOL    HW271349   2.484  14.623   5.527
56504SOL     OW71350   2.917   0.096  13.307
56504SOL    HW171351   2.842   0.107  13.365
56504SOL    HW271352   2.939   0.185  13.279
56505SOL     OW71353   9.646  12.783   7.969
56505SOL    HW171354   9.626  12.877   7.970
56505SOL    HW271355   9.590  12.748   7.899
56506SOL     OW71356  12.620   3.119   4.179
56506SOL    HW171357  12.588   3.189   4.236
56506SOL    HW271358  12.705   3.150   4.149
56507SOL     OW71359   6.123   9.954   1.774
56507SOL    HW171360   6.189   9.885   1.782
56507SOL    HW271361   6.139  10.012   1.849
56508SOL     OW71362   9.878   7.951   5.422
56508SOL    HW171363   9.942   7.985   5.484
56508SOL    HW271364   9.860   7.862   5.453
56509SOL     OW71365  10.691   6.675   5.771
56509SOL    HW171366  10.703   6.580   5.773
56509SOL    HW271367  10.702   6.702   5.863
56510SOL     OW71368   5.879   7.985  14.677
56510SOL    HW171369   5.850   7.962  14.588
56510SOL    HW271370   5.956   8.040  14.664
56511SOL     OW71371   7.254   4.501   1.433
56511SOL    HW171372   7.268   4.593   1.411
56511SOL    HW271373   7.236   4.459   1.349
56512SOL     OW71374   3.300   8.513  14.034
56512SOL    HW171375   3.281   8.591  13.982
56512SOL    HW271376   3.279   8.539  14.124
56513SOL     OW71377   1.915  12.853   8.730
56513SOL    HW171378   1.910  12.759   8.746
56513SOL    HW271379   1.825  12.884   8.739
56514SOL     OW71380  12.949   6.712   3.704
56514SOL    HW171381  12.986   6.784   3.653
56514SOL    HW271382  12.972   6.634   3.655
56515SOL     OW71383  12.544   7.898   9.930
56515SOL    HW171384  12.628   7.943   9.919
56515SOL    HW271385  12.569   7.810   9.958
56516SOL     OW71386   4.868  12.364  13.722
56516SOL    HW171387   4.807  12.377  13.794
56516SOL    HW271388   4.863  12.445  13.671
56517SOL     OW71389  12.142   0.435  13.608
56517SOL    HW171390  12.085   0.502  13.647
56517SOL    HW271391  12.228   0.476  13.604
56518SOL     OW71392   5.650   6.035   5.571
56518SOL    HW171393   5.564   5.998   5.589
56518SOL    HW271394   5.669   6.010   5.481
56519SOL     OW71395   1.608  12.399   4.021
56519SOL    HW171396   1.515  12.415   4.005
56519SOL    HW271397   1.616  12.396   4.116
56520SOL     OW71398   7.170   5.737   2.157
56520SOL    HW171399   7.177   5.832   2.149
56520SOL    HW271400   7.197   5.719   2.248
56521SOL     OW71401   5.036   2.300   2.337
56521SOL    HW171402   5.074   2.241   2.272
56521SOL    HW271403   5.085   2.280   2.418
56522SOL     OW71404   9.627   3.048  10.473
56522SOL    HW171405   9.688   3.001  10.531
56522SOL    HW271406   9.562   3.085  10.531
56523SOL     OW71407   2.766   8.314   6.988
56523SOL    HW171408   2.703   8.385   6.994
56523SOL    HW271409   2.851   8.358   6.991
56524SOL     OW71410   1.031   1.725   8.968
56524SOL    HW171411   1.014   1.721   9.062
56524SOL    HW271412   1.104   1.663   8.955
56525SOL     OW71413   8.557   3.131  12.107
56525SOL    HW171414   8.531   3.081  12.184
56525SOL    HW271415   8.581   3.217  12.142
56526SOL     OW71416  11.511   7.347  14.202
56526SOL    HW171417  11.508   7.350  14.106
56526SOL    HW271418  11.498   7.255  14.224
56527SOL     OW71419  11.170  14.562   4.695
56527SOL    HW171420  11.214  14.627   4.750
56527SOL    HW271421  11.164  14.484   4.750
56528SOL     OW71422   6.449  13.516   9.496
56528SOL    HW171423   6.379  13.534   9.558
56528SOL    HW271424   6.414  13.544   9.412
56529SOL     OW71425  11.492   1.966   6.695
56529SOL    HW171426  11.488   2.062   6.702
56529SOL    HW271427  11.428   1.935   6.758
56530SOL     OW71428   5.518   8.176   5.742
56530SOL    HW171429   5.550   8.230   5.670
56530SOL    HW271430   5.422   8.181   5.735
56531SOL     OW71431   6.478  14.329   3.795
56531SOL    HW171432   6.472  14.407   3.740
56531SOL    HW271433   6.387  14.300   3.806
56532SOL     OW71434   8.220   2.210  10.007
56532SOL    HW171435   8.177   2.294   9.992
56532SOL    HW271436   8.178   2.150   9.946
56533SOL     OW71437   8.328   7.858   3.334
56533SOL    HW171438   8.273   7.827   3.262
56533SOL    HW271439   8.269   7.909   3.389
56534SOL     OW71440  10.679   3.420   2.867
56534SOL    HW171441  10.641   3.429   2.954
56534SOL    HW271442  10.612   3.376   2.816
56535SOL     OW71443  12.618  10.370   6.159
56535SOL    HW171444  12.543  10.411   6.203
56535SOL    HW271445  12.682  10.355   6.228
56536SOL     OW71446   4.034   1.132   5.963
56536SOL    HW171447   4.057   1.222   5.942
56536SOL    HW271448   3.938   1.132   5.967
56537SOL     OW71449   4.745  14.204   2.847
56537SOL    HW171450   4.698  14.224   2.766
56537SOL    HW271451   4.675  14.189   2.911
56538SOL     OW71452   8.907   2.346   1.490
56538SOL    HW171453   8.842   2.416   1.482
56538SOL    HW271454   8.990   2.392   1.504
56539SOL     OW71455   9.963   3.009   2.660
56539SOL    HW171456  10.043   3.003   2.711
56539SOL    HW271457   9.900   3.050   2.719
56540SOL     OW71458  14.336   5.708   7.305
56540SOL    HW171459  14.381   5.773   7.251
56540SOL    HW271460  14.268   5.758   7.350
56541SOL     OW71461  12.169   2.221   5.324
56541SOL    HW171462  12.257   2.183   5.317
56541SOL    HW271463  12.111   2.150   5.298
56542SOL     OW71464   3.227   8.549   7.253
56542SOL    HW171465   3.285   8.626   7.249
56542SOL    HW271466   3.284   8.475   7.230
56543SOL     OW71467   3.679   1.371  10.375
56543SOL    HW171468   3.622   1.448  10.367
56543SOL    HW271469   3.756   1.403  10.422
56544SOL     OW71470  11.256  13.534   3.673
56544SOL    HW171471  11.282  13.626   3.668
56544SOL    HW271472  11.321  13.494   3.731
56545SOL     OW71473   6.846   3.466   9.164
56545SOL    HW171474   6.762   3.430   9.136
56545SOL    HW271475   6.828   3.504   9.250
56546SOL     OW71476  14.829  11.442   1.137
56546SOL    HW171477  14.785  11.522   1.166
56546SOL    HW271478   0.048  11.455   1.160
56547SOL     OW71479  14.774  12.153   4.146
56547SOL    HW171480  14.727  12.077   4.111
56547SOL    HW271481  14.855  12.158   4.095
56548SOL     OW71482  10.183   8.338  14.684
56548SOL    HW171483  10.109   8.281  14.706
56548SOL    HW271484  10.258   8.278  14.675
56549SOL     OW71485   7.839   3.624   9.440
56549SOL    HW171486   7.799   3.705   9.408
56549SOL    HW271487   7.770   3.558   9.430
56550SOL     OW71488   2.311   1.352  11.174
56550SOL    HW171489   2.341   1.375  11.086
56550SOL    HW271490   2.365   1.277  11.199
56551SOL     OW71491   5.556  12.997   7.987
56551SOL    HW171492   5.567  13.077   7.935
56551SOL    HW271493   5.644  12.978   8.020
56552SOL     OW71494   8.269  11.969   2.686
56552SOL    HW171495   8.337  11.979   2.620
56552SOL    HW271496   8.314  11.934   2.762
56553SOL     OW71497   7.445  12.145   8.954
56553SOL    HW171498   7.464  12.149   8.860
56553SOL    HW271499   7.529  12.122   8.994
56554SOL     OW71500   9.772  10.354  10.817
56554SOL    HW171501   9.700  10.334  10.758
56554SOL    HW271502   9.730  10.378  10.899
56555SOL     OW71503   4.884  12.057   6.620
56555SOL    HW171504   4.939  12.135   6.612
56555SOL    HW271505   4.946  11.984   6.623
56556SOL     OW71506  13.455  11.869   3.988
56556SOL    HW171507  13.412  11.863   3.902
56556SOL    HW271508  13.534  11.920   3.972
56557SOL     OW71509   5.846   5.255   3.774
56557SOL    HW171510   5.860   5.299   3.858
56557SOL    HW271511   5.914   5.188   3.770
56558SOL     OW71512  14.416  10.263   5.523
56558SOL    HW171513  14.343  10.254   5.461
56558SOL    HW271514  14.436  10.174   5.550
56559SOL     OW71515   3.962   8.068   4.571
56559SOL    HW171516   3.996   7.996   4.518
56559SOL    HW271517   3.992   8.147   4.528
56560SOL     OW71518   8.930   2.481   5.871
56560SOL    HW171519   8.902   2.463   5.961
56560SOL    HW271520   8.960   2.396   5.838
56561SOL     OW71521   7.170   6.252   7.438
56561SOL    HW171522   7.096   6.246   7.498
56561SOL    HW271523   7.222   6.325   7.471
56562SOL     OW71524  11.593   9.828  11.607
56562SOL    HW171525  11.645   9.754  11.575
56562SOL    HW271526  11.503   9.805  11.584
56563SOL     OW71527   2.194   0.470   7.735
56563SOL    HW171528   2.281   0.431   7.729
56563SOL    HW271529   2.210   0.561   7.761
56564SOL     OW71530   6.216  11.503  13.377
56564SOL    HW171531   6.221  11.553  13.458
56564SOL    HW271532   6.130  11.462  13.379
56565SOL     OW71533   5.827   7.010  12.980
56565SOL    HW171534   5.821   7.088  13.036
56565SOL    HW271535   5.918   6.981  12.990
56566SOL     OW71536   4.534   6.635   1.907
56566SOL    HW171537   4.616   6.653   1.953
56566SOL    HW271538   4.489   6.572   1.963
56567SOL     OW71539   0.171   0.378   2.766
56567SOL    HW171540   0.155   0.283   2.770
56567SOL    HW271541   0.214   0.391   2.682
56568SOL     OW71542   4.138   9.299  10.487
56568SOL    HW171543   4.062   9.326  10.539
56568SOL    HW271544   4.123   9.207  10.467
56569SOL     OW71545   8.624  10.768   8.285
56569SOL    HW171546   8.691  10.700   8.287
56569SOL    HW271547   8.650  10.826   8.213
56570SOL     OW71548  13.615   7.346   1.677
56570SOL    HW171549  13.557   7.412   1.638
56570SOL    HW271550  13.560   7.268   1.684
56571SOL     OW71551   7.280   2.418  12.082
56571SOL    HW171552   7.352   2.374  12.127
56571SOL    HW271553   7.202   2.372  12.111
56572SOL     OW71554  14.452  11.186   1.868
56572SOL    HW171555  14.408  11.166   1.950
56572SOL    HW271556  14.425  11.275   1.847
56573SOL     OW71557   2.136  12.253  12.319
56573SOL    HW171558   2.077  12.281  12.249
56573SOL    HW271559   2.087  12.186  12.367
56574SOL     OW71560   2.211   8.661   6.001
56574SOL    HW171561   2.155   8.612   5.940
56574SOL    HW271562   2.156   8.676   6.078
56575SOL     OW71563   6.488   4.690  14.205
56575SOL    HW171564   6.566   4.696  14.149
56575SOL    HW271565   6.448   4.777  14.199
56576SOL     OW71566   8.298   1.282  12.683
56576SOL    HW171567   8.243   1.211  12.650
56576SOL    HW271568   8.353   1.240  12.750
56577SOL     OW71569   0.211   6.934   0.743
56577SOL    HW171570   0.149   6.969   0.679
56577SOL    HW271571   0.156   6.907   0.817
56578SOL     OW71572   6.294  10.070  11.078
56578SOL    HW171573   6.240  10.127  11.023
56578SOL    HW271574   6.334  10.008  11.016
56579SOL     OW71575  14.483   3.623   5.883
56579SOL    HW171576  14.499   3.543   5.833
56579SOL    HW271577  14.458   3.592   5.970
56580SOL     OW71578   3.866   1.019   3.797
56580SOL    HW171579   3.907   1.106   3.794
56580SOL    HW271580   3.874   0.992   3.889
56581SOL     OW71581  11.244   8.722   2.998
56581SOL    HW171582  11.187   8.654   2.963
56581SOL    HW271583  11.269   8.774   2.921
56582SOL     OW71584   2.053   9.463  11.539
56582SOL    HW171585   2.039   9.494  11.628
56582SOL    HW271586   2.033   9.369  11.543
56583SOL     OW71587  11.520  14.479   5.802
56583SOL    HW171588  11.591  14.541   5.790
56583SOL    HW271589  11.516  14.430   5.720
56584SOL     OW71590   3.349   1.081  10.981
56584SOL    HW171591   3.375   1.078  11.073
56584SOL    HW271592   3.266   1.129  10.981
56585SOL     OW71593   9.539  14.558   4.637
56585SOL    HW171594   9.572  14.494   4.700
56585SOL    HW271595   9.444  14.550   4.642
56586SOL     OW71596  10.002   8.887   3.744
56586SOL    HW171597   9.977   8.936   3.823
56586SOL    HW271598  10.088   8.851   3.764
56587SOL     OW71599   7.971  13.432  10.937
56587SOL    HW171600   7.933  13.520  10.940
56587SOL    HW271601   8.041  13.438  10.872
56588SOL     OW71602  11.619   8.490   0.538
56588SOL    HW171603  11.682   8.556   0.508
56588SOL    HW271604  11.536   8.515   0.497
56589SOL     OW71605   8.170   2.644   3.794
56589SOL    HW171606   8.121   2.715   3.835
56589SOL    HW271607   8.136   2.641   3.704
56590SOL     OW71608  14.196   0.337   7.240
56590SOL    HW171609  14.259   0.269   7.215
56590SOL    HW271610  14.214   0.410   7.180
56591SOL     OW71611  10.315   9.620  13.615
56591SOL    HW171612  10.399   9.655  13.642
56591SOL    HW271613  10.292   9.557  13.684
56592SOL     OW71614   3.388   9.154   4.533
56592SOL    HW171615   3.333   9.152   4.611
56592SOL    HW271616   3.332   9.119   4.464
56593SOL     OW71617   6.428  13.506   9.043
56593SOL    HW171618   6.434  13.411   9.036
56593SOL    HW271619   6.496  13.539   8.984
56594SOL     OW71620   6.847   8.452   5.416
56594SOL    HW171621   6.871   8.395   5.489
56594SOL    HW271622   6.809   8.530   5.458
56595SOL     OW71623  11.557  10.294   2.001
56595SOL    HW171624  11.539  10.266   1.911
56595SOL    HW271625  11.638  10.346   1.994
56596SOL     OW71626  14.116   5.319  14.725
56596SOL    HW171627  14.190   5.368  14.759
56596SOL    HW271628  14.154   5.260  14.660
56597SOL     OW71629   5.395   2.551  12.520
56597SOL    HW171630   5.357   2.470  12.554
56597SOL    HW271631   5.490   2.540  12.531
56598SOL     OW71632   9.386   0.151  13.802
56598SOL    HW171633   9.417   0.156  13.711
56598SOL    HW271634   9.326   0.076  13.802
56599SOL     OW71635   6.996  13.028  14.632
56599SOL    HW171636   7.003  13.090  14.560
56599SOL    HW271637   7.023  12.944  14.595
56600SOL     OW71638   4.223   9.853   6.949
56600SOL    HW171639   4.256   9.897   7.027
56600SOL    HW271640   4.274   9.772   6.944
56601SOL     OW71641   3.878   9.965  13.746
56601SOL    HW171642   3.840  10.053  13.742
56601SOL    HW271643   3.886   9.938  13.655
56602SOL     OW71644  10.241  11.421  13.215
56602SOL    HW171645  10.212  11.412  13.306
56602SOL    HW271646  10.172  11.379  13.164
56603SOL     OW71647   1.690   5.844   2.499
56603SOL    HW171648   1.705   5.750   2.489
56603SOL    HW271649   1.596   5.852   2.513
56604SOL     OW71650   8.843   8.780  13.492
56604SOL    HW171651   8.753   8.764  13.520
56604SOL    HW271652   8.872   8.696  13.456
56605SOL     OW71653   6.209   8.827   8.948
56605SOL    HW171654   6.292   8.792   8.915
56605SOL    HW271655   6.226   8.846   9.040
56606SOL     OW71656   0.952   5.288   3.083
56606SOL    HW171657   0.986   5.251   3.002
56606SOL    HW271658   1.021   5.349   3.112
56607SOL     OW71659  10.372  10.392  14.398
56607SOL    HW171660  10.426  10.375  14.320
56607SOL    HW271661  10.301  10.448  14.366
56608SOL     OW71662  12.682   5.096   9.313
56608SOL    HW171663  12.606   5.061   9.267
56608SOL    HW271664  12.661   5.188   9.327
56609SOL     OW71665  11.496  11.188   3.145
56609SOL    HW171666  11.437  11.142   3.205
56609SOL    HW271667  11.489  11.280   3.170
56610SOL     OW71668   4.946   0.143   8.588
56610SOL    HW171669   5.035   0.108   8.600
56610SOL    HW271670   4.896   0.106   8.661
56611SOL     OW71671   8.822  10.138   7.577
56611SOL    HW171672   8.872  10.172   7.503
56611SOL    HW271673   8.864  10.177   7.654
56612SOL     OW71674   4.186   9.388  11.533
56612SOL    HW171675   4.217   9.354  11.617
56612SOL    HW271676   4.263   9.388  11.477
56613SOL     OW71677   7.557  14.234  13.762
56613SOL    HW171678   7.476  14.277  13.788
56613SOL    HW271679   7.537  14.140  13.767
56614SOL     OW71680  13.573   6.664  10.544
56614SOL    HW171681  13.555   6.589  10.602
56614SOL    HW271682  13.513   6.652  10.471
56615SOL     OW71683   5.352   1.968  14.142
56615SOL    HW171684   5.351   1.895  14.205
56615SOL    HW271685   5.410   2.033  14.181
56616SOL     OW71686   4.850   3.902   9.347
56616SOL    HW171687   4.870   3.945   9.430
56616SOL    HW271688   4.858   3.971   9.281
56617SOL     OW71689   3.117  11.225   8.391
56617SOL    HW171690   3.209  11.250   8.388
56617SOL    HW271691   3.080  11.259   8.309
56618SOL     OW71692   0.271  10.762   8.127
56618SOL    HW171693   0.179  10.788   8.128
56618SOL    HW271694   0.271  10.671   8.097
56619SOL     OW71695  13.353   7.463   2.484
56619SOL    HW171696  13.294   7.393   2.454
56619SOL    HW271697  13.411   7.419   2.546
56620SOL     OW71698   2.006  11.805   2.392
56620SOL    HW171699   1.970  11.821   2.305
56620SOL    HW271700   1.932  11.822   2.451
56621SOL     OW71701   4.960   8.755   9.256
56621SOL    HW171702   5.017   8.812   9.205
56621SOL    HW271703   4.961   8.792   9.344
56622SOL     OW71704   2.593   2.491  13.180
56622SOL    HW171705   2.581   2.561  13.244
56622SOL    HW271706   2.506   2.453  13.169
56623SOL     OW71707  14.236  13.140   4.568
56623SOL    HW171708  14.259  13.159   4.477
56623SOL    HW271709  14.312  13.171   4.618
56624SOL     OW71710  10.605  14.869   3.754
56624SOL    HW171711  10.611   0.012   3.849
56624SOL    HW271712  10.628  14.776   3.745
56625SOL     OW71713  12.631   0.616   4.474
56625SOL    HW171714  12.591   0.699   4.501
56625SOL    HW271715  12.725   0.630   4.485
56626SOL     OW71716  14.228   8.210   8.907
56626SOL    HW171717  14.314   8.181   8.877
56626SOL    HW271718  14.243   8.239   8.997
56627SOL     OW71719   0.332   5.696   9.134
56627SOL    HW171720   0.269   5.664   9.070
56627SOL    HW271721   0.395   5.625   9.144
56628SOL     OW71722   6.829   9.235   6.912
56628SOL    HW171723   6.752   9.286   6.938
56628SOL    HW271724   6.870   9.287   6.842
56629SOL     OW71725  14.779   7.535  10.025
56629SOL    HW171726  14.828   7.614  10.046
56629SOL    HW271727  14.695   7.567   9.992
56630SOL     OW71728   0.201   5.048   7.606
56630SOL    HW171729   0.271   4.983   7.615
56630SOL    HW271730   0.194   5.061   7.511
56631SOL     OW71731   8.355   4.006   1.130
56631SOL    HW171732   8.450   4.018   1.133
56631SOL    HW271733   8.320   4.081   1.179
56632SOL     OW71734   4.874   8.899  11.084
56632SOL    HW171735   4.861   8.941  10.999
56632SOL    HW271736   4.962   8.861  11.078
56633SOL     OW71737   8.868   8.696  14.211
56633SOL    HW171738   8.894   8.679  14.120
56633SOL    HW271739   8.866   8.609  14.252
56634SOL     OW71740   3.324  12.251   8.750
56634SOL    HW171741   3.326  12.179   8.813
56634SOL    HW271742   3.334  12.330   8.804
56635SOL     OW71743   2.579   3.999   1.479
56635SOL    HW171744   2.661   4.004   1.428
56635SOL    HW271745   2.581   4.076   1.535
56636SOL     OW71746   5.149  12.072  12.046
56636SOL    HW171747   5.210  12.039  11.980
56636SOL    HW271748   5.199  12.069  12.128
56637SOL     OW71749   4.466   4.065   0.159
56637SOL    HW171750   4.427   3.978   0.165
56637SOL    HW271751   4.554   4.049   0.127
56638SOL     OW71752   7.254  13.744   8.564
56638SOL    HW171753   7.189  13.753   8.494
56638SOL    HW271754   7.324  13.804   8.539
56639SOL     OW71755  11.965  12.587   7.658
56639SOL    HW171756  11.918  12.568   7.740
56639SOL    HW271757  11.905  12.642   7.608
56640SOL     OW71758   0.020  10.877   8.126
56640SOL    HW171759  14.867  10.961   8.163
56640SOL    HW271760  14.810  10.836   8.100
56641SOL     OW71761   6.520  14.087   7.588
56641SOL    HW171762   6.593  14.142   7.558
56641SOL    HW271763   6.524  14.010   7.533
56642SOL     OW71764   5.194  13.942   2.639
56642SOL    HW171765   5.271  13.890   2.663
56642SOL    HW271766   5.127  13.877   2.619
56643SOL     OW71767   1.527   6.205  13.585
56643SOL    HW171768   1.477   6.162  13.515
56643SOL    HW271769   1.608   6.154  13.590
56644SOL     OW71770  10.879   7.104   8.624
56644SOL    HW171771  10.820   7.154   8.568
56644SOL    HW271772  10.869   7.144   8.711
56645SOL     OW71773  11.466  11.067   6.017
56645SOL    HW171774  11.539  11.128   6.025
56645SOL    HW271775  11.466  11.041   5.925
56646SOL     OW71776  11.157   5.746   2.234
56646SOL    HW171777  11.090   5.813   2.248
56646SOL    HW271778  11.155   5.730   2.139
56647SOL     OW71779   9.933  10.706  13.909
56647SOL    HW171780   9.939  10.780  13.970
56647SOL    HW271781   9.862  10.730  13.849
56648SOL     OW71782   5.132   1.067  14.293
56648SOL    HW171783   5.189   1.094  14.222
56648SOL    HW271784   5.047   1.050  14.252
56649SOL     OW71785   1.699   5.871   0.836
56649SOL    HW171786   1.645   5.862   0.915
56649SOL    HW271787   1.688   5.787   0.791
56650SOL     OW71788  10.097   2.815   0.482
56650SOL    HW171789  10.117   2.822   0.575
56650SOL    HW271790  10.182   2.809   0.439
56651SOL     OW71791   6.536  14.132   2.454
56651SOL    HW171792   6.614  14.146   2.399
56651SOL    HW271793   6.527  14.214   2.502
56652SOL     OW71794   0.687   2.822  10.327
56652SOL    HW171795   0.621   2.819  10.257
56652SOL    HW271796   0.745   2.748  10.308
56653SOL     OW71797  12.027   4.615  12.318
56653SOL    HW171798  11.989   4.627  12.406
56653SOL    HW271799  11.963   4.562  12.272
56654SOL     OW71800  10.777  10.160   4.130
56654SOL    HW171801  10.854  10.215   4.132
56654SOL    HW271802  10.805  10.081   4.082
56655SOL     OW71803   2.084   3.082   5.574
56655SOL    HW171804   1.994   3.059   5.551
56655SOL    HW271805   2.132   3.074   5.492
56656SOL     OW71806  13.635   2.489   8.353
56656SOL    HW171807  13.632   2.563   8.415
56656SOL    HW271808  13.726   2.488   8.323
56657SOL     OW71809   6.001   8.769  13.963
56657SOL    HW171810   6.055   8.749  13.887
56657SOL    HW271811   5.914   8.787  13.927
56658SOL     OW71812   0.213  13.280   0.141
56658SOL    HW171813   0.130  13.242   0.112
56658SOL    HW271814   0.268  13.278   0.063
56659SOL     OW71815   0.382   3.142   6.986
56659SOL    HW171816   0.369   3.070   7.047
56659SOL    HW271817   0.301   3.192   6.990
56660SOL     OW71818  10.373   5.435   1.813
56660SOL    HW171819  10.356   5.473   1.727
56660SOL    HW271820  10.289   5.441   1.859
56661SOL     OW71821   0.553   2.260   3.211
56661SOL    HW171822   0.490   2.191   3.232
56661SOL    HW271823   0.623   2.214   3.164
56662SOL     OW71824   9.934   2.739   1.530
56662SOL    HW171825   9.843   2.733   1.500
56662SOL    HW271826   9.951   2.833   1.535
56663SOL     OW71827   5.486   3.113   4.642
56663SOL    HW171828   5.441   3.184   4.688
56663SOL    HW271829   5.575   3.115   4.677
56664SOL     OW71830   7.128  10.055   6.496
56664SOL    HW171831   7.044  10.012   6.480
56664SOL    HW271832   7.114  10.145   6.466
56665SOL     OW71833  10.779   7.674  12.507
56665SOL    HW171834  10.844   7.615  12.467
56665SOL    HW271835  10.832   7.741  12.551
56666SOL     OW71836   4.730  13.678   8.603
56666SOL    HW171837   4.768  13.610   8.547
56666SOL    HW271838   4.639  13.685   8.574
56667SOL     OW71839   6.113   2.491  13.655
56667SOL    HW171840   6.054   2.527  13.589
56667SOL    HW271841   6.147   2.411  13.615
56668SOL     OW71842   0.828   2.626   0.826
56668SOL    HW171843   0.817   2.718   0.801
56668SOL    HW271844   0.906   2.597   0.778
56669SOL     OW71845  13.574   7.130   7.186
56669SOL    HW171846  13.515   7.066   7.227
56669SOL    HW271847  13.660   7.110   7.224
56670SOL     OW71848   8.380  13.089   0.207
56670SOL    HW171849   8.467  13.115   0.179
56670SOL    HW271850   8.323  13.162   0.182
56671SOL     OW71851   7.880   3.658   2.864
56671SOL    HW171852   7.881   3.697   2.951
56671SOL    HW271853   7.818   3.710   2.814
56672SOL     OW71854   6.938   4.771   0.160
56672SOL    HW171855   6.893   4.703   0.209
56672SOL    HW271856   6.913   4.853   0.204
56673SOL     OW71857   7.577   4.830  12.557
56673SOL    HW171858   7.552   4.923  12.557
56673SOL    HW271859   7.493   4.784  12.557
56674SOL     OW71860  14.395   4.649   2.690
56674SOL    HW171861  14.315   4.689   2.723
56674SOL    HW271862  14.366   4.598   2.614
56675SOL     OW71863  12.402  11.484   1.202
56675SOL    HW171864  12.410  11.420   1.273
56675SOL    HW271865  12.484  11.533   1.204
56676SOL     OW71866  13.389  10.925  13.620
56676SOL    HW171867  13.296  10.939  13.598
56676SOL    HW271868  13.405  10.984  13.694
56677SOL     OW71869   2.696  12.295  12.799
56677SOL    HW171870   2.645  12.242  12.738
56677SOL    HW271871   2.737  12.231  12.857
56678SOL     OW71872  14.179  12.042   1.230
56678SOL    HW171873  14.187  11.970   1.292
56678SOL    HW271874  14.153  12.117   1.283
56679SOL     OW71875   9.372   9.512   7.764
56679SOL    HW171876   9.346   9.602   7.746
56679SOL    HW271877   9.466   9.510   7.749
56680SOL     OW71878   0.535  14.266  12.031
56680SOL    HW171879   0.597  14.279  12.103
56680SOL    HW271880   0.564  14.328  11.963
56681SOL     OW71881   4.196   8.938   4.107
56681SOL    HW171882   4.277   8.961   4.153
56681SOL    HW271883   4.221   8.932   4.015
56682SOL     OW71884   0.593   6.063   9.502
56682SOL    HW171885   0.614   5.969   9.501
56682SOL    HW271886   0.590   6.088   9.410
56683SOL     OW71887   6.433  13.858   2.528
56683SOL    HW171888   6.453  13.781   2.474
56683SOL    HW271889   6.493  13.925   2.497
56684SOL     OW71890   9.162  13.752  10.970
56684SOL    HW171891   9.216  13.712  10.902
56684SOL    HW271892   9.072  13.724  10.949
56685SOL     OW71893   8.596   6.113  14.266
56685SOL    HW171894   8.688   6.087  14.255
56685SOL    HW271895   8.548   6.057  14.205
56686SOL     OW71896   3.901   3.195  14.709
56686SOL    HW171897   3.927   3.176  14.619
56686SOL    HW271898   3.938   3.123  14.760
56687SOL     OW71899   2.101   7.050   0.642
56687SOL    HW171900   2.162   7.101   0.695
56687SOL    HW271901   2.138   6.962   0.640
56688SOL     OW71902   9.587   4.042   8.986
56688SOL    HW171903   9.584   4.094   8.906
56688SOL    HW271904   9.524   3.972   8.971
56689SOL     OW71905   7.029  12.639   9.099
56689SOL    HW171906   7.106  12.585   9.116
56689SOL    HW271907   7.064  12.716   9.054
56690SOL     OW71908  11.055   7.003   6.744
56690SOL    HW171909  11.038   7.052   6.663
56690SOL    HW271910  11.006   6.921   6.732
56691SOL     OW71911   1.742  13.324   2.236
56691SOL    HW171912   1.821  13.374   2.255
56691SOL    HW271913   1.763  13.234   2.263
56692SOL     OW71914   1.352  11.791   8.266
56692SOL    HW171915   1.324  11.753   8.349
56692SOL    HW271916   1.271  11.797   8.214
56693SOL     OW71917   8.730   0.080   3.934
56693SOL    HW171918   8.792   0.125   3.877
56693SOL    HW271919   8.646   0.088   3.889
56694SOL     OW71920  11.279   4.935  10.707
56694SOL    HW171921  11.264   4.872  10.777
56694SOL    HW271922  11.199   4.987  10.704
56695SOL     OW71923   4.594   2.132  13.521
56695SOL    HW171924   4.594   2.220  13.559
56695SOL    HW271925   4.668   2.088  13.563
56696SOL     OW71926   2.108  13.897  11.337
56696SOL    HW171927   2.121  13.884  11.431
56696SOL    HW271928   2.143  13.817  11.296
56697SOL     OW71929  11.613  14.760   1.321
56697SOL    HW171930  11.594  14.700   1.394
56697SOL    HW271931  11.708  14.768   1.322
56698SOL     OW71932  10.966  11.427  11.881
56698SOL    HW171933  11.028  11.418  11.954
56698SOL    HW271934  11.006  11.491  11.823
56699SOL     OW71935   7.201  14.457   0.760
56699SOL    HW171936   7.198  14.425   0.669
56699SOL    HW271937   7.201  14.553   0.751
56700SOL     OW71938  12.495   8.071   3.727
56700SOL    HW171939  12.557   8.113   3.786
56700SOL    HW271940  12.417   8.126   3.731
56701SOL     OW71941  14.570   5.965   6.907
56701SOL    HW171942  14.664   5.960   6.924
56701SOL    HW271943  14.552   6.059   6.906
56702SOL     OW71944  10.654  13.348   3.742
56702SOL    HW171945  10.660  13.440   3.715
56702SOL    HW271946  10.721  13.303   3.690
56703SOL     OW71947  13.537  13.951  11.156
56703SOL    HW171948  13.449  13.920  11.177
56703SOL    HW271949  13.583  13.954  11.240
56704SOL     OW71950   7.381  12.270   6.806
56704SOL    HW171951   7.473  12.296   6.797
56704SOL    HW271952   7.352  12.252   6.717
56705SOL     OW71953  11.062   8.946   4.019
56705SOL    HW171954  11.014   8.986   3.946
56705SOL    HW271955  11.145   8.993   4.022
56706SOL     OW71956   4.083  10.031  11.725
56706SOL    HW171957   4.104  10.110  11.776
56706SOL    HW271958   4.114  10.052  11.636
56707SOL     OW71959  10.961   4.517   5.570
56707SOL    HW171960  11.021   4.537   5.499
56707SOL    HW271961  10.918   4.600   5.590
56708SOL     OW71962  10.203  13.465   2.377
56708SOL    HW171963  10.147  13.488   2.302
56708SOL    HW271964  10.249  13.546   2.398
56709SOL     OW71965   6.320   4.375   3.289
56709SOL    HW171966   6.284   4.384   3.201
56709SOL    HW271967   6.397   4.432   3.289
56710SOL     OW71968   7.481   6.269   2.517
56710SOL    HW171969   7.514   6.216   2.590
56710SOL    HW271970   7.558   6.315   2.484
56711SOL     OW71971   0.087   0.623  13.378
56711SOL    HW171972   0.058   0.705  13.418
56711SOL    HW271973   0.006   0.580  13.351
56712SOL     OW71974  13.021   1.051  14.157
56712SOL    HW171975  12.937   1.091  14.134
56712SOL    HW271976  13.078   1.124  14.180
56713SOL     OW71977   5.479   0.022  14.666
56713SOL    HW171978   5.569   0.026  14.698
56713SOL    HW271979   5.439   0.103  14.696
56714SOL     OW71980  12.604   4.376   1.938
56714SOL    HW171981  12.643   4.329   1.865
56714SOL    HW271982  12.570   4.308   1.996
56715SOL     OW71983  11.130   1.340  13.714
56715SOL    HW171984  11.207   1.336  13.656
56715SOL    HW271985  11.120   1.434  13.732
56716SOL     OW71986   8.282   2.354   0.953
56716SOL    HW171987   8.220   2.366   0.881
56716SOL    HW271988   8.285   2.438   0.998
56717SOL     OW71989   2.471  10.056   0.860
56717SOL    HW171990   2.538  10.012   0.808
56717SOL    HW271991   2.458  10.140   0.817
56718SOL     OW71992   8.280   5.394   4.449
56718SOL    HW171993   8.359   5.353   4.484
56718SOL    HW271994   8.290   5.487   4.468
56719SOL     OW71995   8.109   3.022   9.240
56719SOL    HW171996   8.057   3.018   9.159
56719SOL    HW271997   8.153   3.106   9.236
56720SOL     OW71998  13.140  14.131  14.813
56720SOL    HW171999  13.060  14.182  14.816
56720SOL    HW272000  13.113  14.044  14.786
56721SOL     OW72001   7.488  13.653   6.121
56721SOL    HW172002   7.507  13.623   6.210
56721SOL    HW272003   7.504  13.576   6.066
56722SOL     OW72004   0.139   8.416   7.534
56722SOL    HW172005   0.053   8.450   7.558
56722SOL    HW272006   0.121   8.355   7.462
56723SOL     OW72007   1.116  10.358  14.495
56723SOL    HW172008   1.190  10.353  14.555
56723SOL    HW272009   1.142  10.423  14.430
56724SOL     OW72010   3.303  10.366   3.735
56724SOL    HW172011   3.243  10.304   3.777
56724SOL    HW272012   3.369  10.311   3.692
56725SOL     OW72013   3.646  12.902   5.824
56725SOL    HW172014   3.726  12.913   5.774
56725SOL    HW272015   3.590  12.975   5.798
56726SOL     OW72016   4.796  14.188  10.998
56726SOL    HW172017   4.803  14.105  11.046
56726SOL    HW272018   4.714  14.227  11.029
56727SOL     OW72019   5.789   0.006   2.408
56727SOL    HW172020   5.818  14.801   2.456
56727SOL    HW272021   5.747   0.061   2.475
56728SOL     OW72022   5.126   9.889   8.243
56728SOL    HW172023   5.124   9.929   8.330
56728SOL    HW272024   5.059   9.820   8.247
56729SOL     OW72025   6.924   3.677   3.320
56729SOL    HW172026   6.950   3.768   3.304
56729SOL    HW272027   6.829   3.681   3.334
56730SOL     OW72028   9.219   7.415   1.513
56730SOL    HW172029   9.230   7.337   1.458
56730SOL    HW272030   9.237   7.384   1.602
56731SOL     OW72031   4.731  10.885   5.318
56731SOL    HW172032   4.789  10.826   5.367
56731SOL    HW272033   4.680  10.930   5.386
56732SOL     OW72034  13.918   4.509  14.415
56732SOL    HW172035  13.971   4.486  14.339
56732SOL    HW272036  13.829   4.517  14.381
56733SOL     OW72037  14.639   4.615   5.693
56733SOL    HW172038  14.694   4.537   5.695
56733SOL    HW272039  14.701   4.688   5.690
56734SOL     OW72040  12.213   4.392   8.524
56734SOL    HW172041  12.233   4.331   8.453
56734SOL    HW272042  12.298   4.422   8.555
56735SOL     OW72043  10.879   7.310  14.769
56735SOL    HW172044  10.971   7.327  14.787
56735SOL    HW272045  10.845   7.274  14.851
56736SOL     OW72046   4.565  12.862   7.066
56736SOL    HW172047   4.519  12.783   7.096
56736SOL    HW272048   4.657  12.846   7.088
56737SOL     OW72049   7.087   8.321  13.730
56737SOL    HW172050   7.009   8.293  13.681
56737SOL    HW272051   7.080   8.417  13.733
56738SOL     OW72052  12.260   6.785  10.950
56738SOL    HW172053  12.266   6.701  10.995
56738SOL    HW272054  12.210   6.766  10.870
56739SOL     OW72055   7.034   8.379   3.572
56739SOL    HW172056   7.122   8.377   3.535
56739SOL    HW272057   7.035   8.312   3.641
56740SOL     OW72058   6.682   7.393   3.926
56740SOL    HW172059   6.768   7.358   3.905
56740SOL    HW272060   6.629   7.316   3.947
56741SOL     OW72061   5.884  13.061   5.611
56741SOL    HW172062   5.969  13.085   5.647
56741SOL    HW272063   5.895  13.070   5.516
56742SOL     OW72064   7.333   9.124  13.434
56742SOL    HW172065   7.355   9.209  13.472
56742SOL    HW272066   7.302   9.145  13.346
56743SOL     OW72067   5.168   0.534   2.478
56743SOL    HW172068   5.206   0.456   2.519
56743SOL    HW272069   5.224   0.606   2.508
56744SOL     OW72070   2.449   9.430   4.435
56744SOL    HW172071   2.531   9.398   4.472
56744SOL    HW272072   2.402   9.468   4.509
56745SOL     OW72073   1.982   6.200   5.491
56745SOL    HW172074   2.008   6.292   5.500
56745SOL    HW272075   1.933   6.196   5.409
56746SOL     OW72076   9.077  13.669   3.664
56746SOL    HW172077   9.000  13.632   3.707
56746SOL    HW272078   9.076  13.632   3.576
56747SOL     OW72079   1.610   6.494   7.606
56747SOL    HW172080   1.663   6.561   7.563
56747SOL    HW272081   1.667   6.417   7.609
56748SOL     OW72082  12.280   7.412   2.165
56748SOL    HW172083  12.264   7.318   2.181
56748SOL    HW272084  12.203   7.440   2.116
56749SOL     OW72085  11.647   1.646  10.547
56749SOL    HW172086  11.623   1.717  10.487
56749SOL    HW272087  11.701   1.688  10.613
56750SOL     OW72088   1.422   7.797   0.472
56750SOL    HW172089   1.429   7.716   0.523
56750SOL    HW272090   1.507   7.840   0.484
56751SOL     OW72091   1.426   7.487   6.761
56751SOL    HW172092   1.468   7.546   6.825
56751SOL    HW272093   1.436   7.532   6.677
56752SOL     OW72094   0.168   0.779   2.625
56752SOL    HW172095   0.207   0.813   2.705
56752SOL    HW272096   0.109   0.709   2.654
56753SOL     OW72097   0.756  12.284   5.630
56753SOL    HW172098   0.677  12.233   5.652
56753SOL    HW272099   0.771  12.339   5.707
56754SOL     OW72100   0.021   6.207   9.680
56754SOL    HW172101   0.106   6.249   9.697
56754SOL    HW272102   0.034   6.161   9.597
56755SOL     OW72103   3.244   1.159  12.435
56755SOL    HW172104   3.339   1.172  12.435
56755SOL    HW272105   3.212   1.213  12.507
56756SOL     OW72106   2.615   9.905   6.306
56756SOL    HW172107   2.527   9.866   6.300
56756SOL    HW272108   2.641   9.919   6.215
56757SOL     OW72109   4.540  14.285  12.819
56757SOL    HW172110   4.492  14.246  12.746
56757SOL    HW272111   4.626  14.244  12.816
56758SOL     OW72112  10.181   6.875   2.979
56758SOL    HW172113  10.209   6.798   3.030
56758SOL    HW272114  10.261   6.923   2.961
56759SOL     OW72115  11.977  12.510   0.488
56759SOL    HW172116  12.017  12.541   0.407
56759SOL    HW272117  11.970  12.415   0.477
56760SOL     OW72118   4.240   5.180  12.575
56760SOL    HW172119   4.261   5.233  12.652
56760SOL    HW272120   4.264   5.234  12.501
56761SOL     OW72121   5.225  13.726  10.290
56761SOL    HW172122   5.244  13.725  10.196
56761SOL    HW272123   5.137  13.690  10.297
56762SOL     OW72124   6.582   6.669   3.972
56762SOL    HW172125   6.602   6.760   3.993
56762SOL    HW272126   6.582   6.624   4.057
56763SOL     OW72127   3.351   9.098   5.579
56763SOL    HW172128   3.289   9.105   5.652
56763SOL    HW272129   3.379   9.188   5.563
56764SOL     OW72130   7.166   3.895  11.800
56764SOL    HW172131   7.120   3.978  11.788
56764SOL    HW272132   7.143   3.843  11.724
56765SOL     OW72133   9.693  13.827   2.462
56765SOL    HW172134   9.627  13.759   2.466
56765SOL    HW272135   9.674  13.875   2.381
56766SOL     OW72136   5.272   5.863  10.228
56766SOL    HW172137   5.178   5.844  10.237
56766SOL    HW272138   5.295   5.828  10.142
56767SOL     OW72139   5.023   0.770  13.005
56767SOL    HW172140   4.944   0.825  13.007
56767SOL    HW272141   5.073   0.799  13.082
56768SOL     OW72142   5.087   5.054   6.753
56768SOL    HW172143   5.041   5.001   6.687
56768SOL    HW272144   5.180   5.038   6.735
56769SOL     OW72145   8.830   7.940   1.843
56769SOL    HW172146   8.737   7.921   1.832
56769SOL    HW272147   8.842   7.948   1.937
56770SOL     OW72148  12.637  10.879  10.879
56770SOL    HW172149  12.608  10.826  10.806
56770SOL    HW272150  12.733  10.881  10.871
56771SOL     OW72151   1.894   4.391   2.399
56771SOL    HW172152   1.814   4.384   2.347
56771SOL    HW272153   1.896   4.481   2.429
56772SOL     OW72154   1.845   1.614   9.188
56772SOL    HW172155   1.890   1.539   9.149
56772SOL    HW272156   1.784   1.642   9.120
56773SOL     OW72157   6.376   2.270   7.007
56773SOL    HW172158   6.364   2.175   7.001
56773SOL    HW272159   6.293   2.301   7.043
56774SOL     OW72160   4.115   8.088   4.098
56774SOL    HW172161   4.160   8.167   4.067
56774SOL    HW272162   4.079   8.048   4.019
56775SOL     OW72163  12.582   8.977   2.303
56775SOL    HW172164  12.555   9.059   2.344
56775SOL    HW272165  12.651   9.003   2.241
56776SOL     OW72166   0.245   6.314   2.741
56776SOL    HW172167   0.270   6.320   2.649
56776SOL    HW272168   0.160   6.359   2.745
56777SOL     OW72169  12.634   1.673   9.790
56777SOL    HW172170  12.714   1.646   9.836
56777SOL    HW272171  12.570   1.686   9.860
56778SOL     OW72172   8.989   3.924  12.333
56778SOL    HW172173   9.002   4.017  12.356
56778SOL    HW272174   9.068   3.881  12.365
56779SOL     OW72175  11.855   1.348   9.225
56779SOL    HW172176  11.781   1.297   9.258
56779SOL    HW272177  11.872   1.312   9.138
56780SOL     OW72178   0.092  14.005   8.911
56780SOL    HW172179   0.163  14.069   8.916
56780SOL    HW272180   0.028  14.045   8.853
56781SOL     OW72181  14.347  12.561  10.538
56781SOL    HW172182  14.286  12.487  10.529
56781SOL    HW272183  14.434  12.522  10.532
56782SOL     OW72184   2.579   1.464   1.823
56782SOL    HW172185   2.484   1.465   1.811
56782SOL    HW272186   2.592   1.431   1.912
56783SOL     OW72187   1.248   4.477   7.658
56783SOL    HW172188   1.229   4.461   7.565
56783SOL    HW272189   1.294   4.561   7.659
56784SOL     OW72190  12.056   3.060   4.349
56784SOL    HW172191  12.124   3.094   4.408
56784SOL    HW272192  12.041   3.131   4.286
56785SOL     OW72193  14.406   3.754   9.706
56785SOL    HW172194  14.432   3.672   9.748
56785SOL    HW272195  14.482   3.811   9.715
56786SOL     OW72196   2.933   1.206   3.041
56786SOL    HW172197   2.900   1.117   3.054
56786SOL    HW272198   2.950   1.212   2.947
56787SOL     OW72199   0.891   1.310   7.615
56787SOL    HW172200   0.862   1.273   7.532
56787SOL    HW272201   0.810   1.332   7.661
56788SOL     OW72202   6.265   3.994  12.097
56788SOL    HW172203   6.242   3.913  12.143
56788SOL    HW272204   6.251   4.063  12.162
56789SOL     OW72205  11.217  10.385  12.425
56789SOL    HW172206  11.122  10.371  12.430
56789SOL    HW272207  11.246  10.332  12.351
56790SOL     OW72208  13.571   2.112   1.296
56790SOL    HW172209  13.575   2.185   1.235
56790SOL    HW272210  13.655   2.067   1.285
56791SOL     OW72211  11.868   5.227  12.899
56791SOL    HW172212  11.961   5.242  12.912
56791SOL    HW272213  11.826   5.261  12.978
56792SOL     OW72214  11.796   0.220   7.497
56792SOL    HW172215  11.761   0.133   7.513
56792SOL    HW272216  11.850   0.210   7.419
56793SOL     OW72217   0.614   3.713   6.428
56793SOL    HW172218   0.665   3.653   6.482
56793SOL    HW272219   0.589   3.660   6.352
56794SOL     OW72220  13.932   0.761   1.695
56794SOL    HW172221  13.868   0.739   1.763
56794SOL    HW272222  13.887   0.742   1.612
56795SOL     OW72223   0.368  11.914  12.771
56795SOL    HW172224   0.315  11.928  12.849
56795SOL    HW272225   0.410  11.998  12.755
56796SOL     OW72226   1.245  13.339   1.717
56796SOL    HW172227   1.185  13.280   1.763
56796SOL    HW272228   1.238  13.422   1.765
56797SOL     OW72229   4.464   4.094   1.304
56797SOL    HW172230   4.483   4.076   1.212
56797SOL    HW272231   4.516   4.030   1.353
56798SOL     OW72232  12.653  12.100   3.035
56798SOL    HW172233  12.661  12.158   3.110
56798SOL    HW272234  12.717  12.134   2.972
56799SOL     OW72235   0.915   8.507   0.206
56799SOL    HW172236   0.837   8.466   0.244
56799SOL    HW272237   0.958   8.550   0.280
56800SOL     OW72238  11.210   5.048   2.976
56800SOL    HW172239  11.153   5.109   3.023
56800SOL    HW272240  11.205   4.967   3.028
56801SOL     OW72241   9.005   4.952  13.310
56801SOL    HW172242   9.092   4.939  13.347
56801SOL    HW272243   9.012   5.033  13.259
56802SOL     OW72244   5.564   5.468   0.078
56802SOL    HW172245   5.564   5.562   0.057
56802SOL    HW272246   5.524   5.463   0.164
56803SOL     OW72247   1.611  12.090   7.233
56803SOL    HW172248   1.610  12.092   7.328
56803SOL    HW272249   1.569  12.172   7.207
56804SOL     OW72250  14.399   3.392   0.989
56804SOL    HW172251  14.373   3.401   0.897
56804SOL    HW272252  14.442   3.306   0.993
56805SOL     OW72253   9.044  10.246   1.289
56805SOL    HW172254   9.051  10.341   1.286
56805SOL    HW272255   9.106  10.215   1.223
56806SOL     OW72256  11.885  12.563   9.216
56806SOL    HW172257  11.977  12.544   9.233
56806SOL    HW272258  11.859  12.623   9.286
56807SOL     OW72259  14.358   7.210   6.407
56807SOL    HW172260  14.447   7.240   6.389
56807SOL    HW272261  14.356   7.198   6.502
56808SOL     OW72262   4.036  12.033  12.120
56808SOL    HW172263   4.067  12.098  12.183
56808SOL    HW272264   4.107  11.970  12.113
56809SOL     OW72265   7.248   2.821  12.444
56809SOL    HW172266   7.271   2.852  12.532
56809SOL    HW272267   7.203   2.895  12.404
56810SOL     OW72268   6.947   0.181   8.452
56810SOL    HW172269   6.973   0.218   8.368
56810SOL    HW272270   7.011   0.112   8.470
56811SOL     OW72271   6.518   9.267   5.023
56811SOL    HW172272   6.610   9.287   5.036
56811SOL    HW272273   6.500   9.196   5.084
56812SOL     OW72274  11.559  11.490   7.916
56812SOL    HW172275  11.641  11.453   7.885
56812SOL    HW272276  11.575  11.512   8.007
56813SOL     OW72277   7.055   5.045   2.476
56813SOL    HW172278   6.992   4.973   2.478
56813SOL    HW272279   7.130   5.013   2.526
56814SOL     OW72280   5.199  12.144   7.832
56814SOL    HW172281   5.203  12.240   7.827
56814SOL    HW272282   5.183  12.116   7.742
56815SOL     OW72283   1.112  13.545   7.690
56815SOL    HW172284   1.115  13.636   7.719
56815SOL    HW272285   1.048  13.544   7.620
56816SOL     OW72286  11.115  13.522   1.657
56816SOL    HW172287  11.051  13.457   1.629
56816SOL    HW272288  11.125  13.579   1.581
56817SOL     OW72289   6.876  11.967   2.077
56817SOL    HW172290   6.819  11.892   2.061
56817SOL    HW272291   6.835  12.014   2.150
56818SOL     OW72292  12.548   5.758   5.478
56818SOL    HW172293  12.528   5.844   5.516
56818SOL    HW272294  12.643   5.758   5.466
56819SOL     OW72295   1.319   9.294  10.665
56819SOL    HW172296   1.237   9.264  10.626
56819SOL    HW272297   1.370   9.329  10.592
56820SOL     OW72298   2.521  14.569   1.721
56820SOL    HW172299   2.429  14.545   1.726
56820SOL    HW272300   2.563  14.520   1.791
56821SOL     OW72301   1.897   2.139  13.967
56821SOL    HW172302   1.832   2.209  13.973
56821SOL    HW272303   1.846   2.058  13.959
56822SOL     OW72304  10.348   2.535   1.545
56822SOL    HW172305  10.396   2.472   1.491
56822SOL    HW272306  10.323   2.485   1.623
56823SOL     OW72307  12.659  11.903   9.917
56823SOL    HW172308  12.723  11.904   9.988
56823SOL    HW272309  12.601  11.977   9.937
56824SOL     OW72310  12.021   3.147  13.641
56824SOL    HW172311  11.979   3.063  13.624
56824SOL    HW272312  11.956   3.212  13.617
56825SOL     OW72313  11.934  11.357  11.234
56825SOL    HW172314  11.989  11.315  11.168
56825SOL    HW272315  11.945  11.450  11.219
56826SOL     OW72316  11.401  13.671  12.346
56826SOL    HW172317  11.315  13.711  12.336
56826SOL    HW272318  11.416  13.669  12.441
56827SOL     OW72319   0.008   5.148   4.060
56827SOL    HW172320   0.006   5.091   4.137
56827SOL    HW272321   0.026   5.235   4.095
56828SOL     OW72322   0.088   5.920  11.510
56828SOL    HW172323   0.104   6.015  11.505
56828SOL    HW272324   0.006   5.913  11.559
56829SOL     OW72325  14.505   0.447   0.412
56829SOL    HW172326  14.412   0.468   0.405
56829SOL    HW272327  14.539   0.512   0.475
56830SOL     OW72328   4.718   6.218  12.784
56830SOL    HW172329   4.802   6.195  12.824
56830SOL    HW272330   4.653   6.193  12.851
56831SOL     OW72331   4.580   1.405  12.084
56831SOL    HW172332   4.543   1.424  11.998
56831SOL    HW272333   4.505   1.380  12.137
56832SOL     OW72334   6.398   2.494  10.891
56832SOL    HW172335   6.478   2.449  10.866
56832SOL    HW272336   6.410   2.585  10.862
56833SOL     OW72337   2.610   6.387   6.096
56833SOL    HW172338   2.608   6.387   6.192
56833SOL    HW272339   2.549   6.455   6.070
56834SOL     OW72340  10.017   8.334   1.141
56834SOL    HW172341   9.998   8.420   1.103
56834SOL    HW272342  10.105   8.343   1.179
56835SOL     OW72343   2.513  14.204   3.035
56835SOL    HW172344   2.488  14.117   3.066
56835SOL    HW272345   2.444  14.228   2.973
56836SOL     OW72346   4.552   5.954  13.150
56836SOL    HW172347   4.519   6.010  13.080
56836SOL    HW272348   4.634   5.995  13.176
56837SOL     OW72349   4.631   4.662   4.626
56837SOL    HW172350   4.548   4.701   4.600
56837SOL    HW272351   4.675   4.730   4.677
56838SOL     OW72352   5.290  14.708   2.046
56838SOL    HW172353   5.306  14.656   1.967
56838SOL    HW272354   5.362  14.686   2.105
56839SOL     OW72355   8.743  12.779   5.672
56839SOL    HW172356   8.820  12.836   5.674
56839SOL    HW272357   8.775  12.694   5.642
56840SOL     OW72358  13.528  10.428  13.783
56840SOL    HW172359  13.564  10.511  13.815
56840SOL    HW272360  13.515  10.375  13.862
56841SOL     OW72361   0.225   2.491  11.842
56841SOL    HW172362   0.190   2.476  11.929
56841SOL    HW272363   0.316   2.516  11.857
56842SOL     OW72364   6.640   5.309  10.440
56842SOL    HW172365   6.576   5.242  10.413
56842SOL    HW272366   6.618   5.386  10.387
56843SOL     OW72367   1.828   1.122   0.847
56843SOL    HW172368   1.831   1.071   0.928
56843SOL    HW272369   1.869   1.065   0.781
56844SOL     OW72370   7.746  13.090   1.717
56844SOL    HW172371   7.708  13.015   1.671
56844SOL    HW272372   7.823  13.114   1.666
56845SOL     OW72373   4.803   2.450   1.729
56845SOL    HW172374   4.765   2.371   1.689
56845SOL    HW272375   4.867   2.480   1.665
56846SOL     OW72376  10.714   4.000  13.366
56846SOL    HW172377  10.716   3.960  13.279
56846SOL    HW272378  10.632   3.968  13.404
56847SOL     OW72379   4.862   2.270  12.088
56847SOL    HW172380   4.831   2.180  12.076
56847SOL    HW272381   4.950   2.261  12.125
56848SOL     OW72382  10.353  13.926  11.243
56848SOL    HW172383  10.372  14.018  11.222
56848SOL    HW272384  10.261  13.925  11.268
56849SOL     OW72385   1.650   3.687  10.098
56849SOL    HW172386   1.624   3.595  10.086
56849SOL    HW272387   1.713   3.684  10.170
56850SOL     OW72388  14.762   9.774  11.166
56850SOL    HW172389  14.825   9.788  11.237
56850SOL    HW272390  14.812   9.789  11.086
56851SOL     OW72391   1.786  12.828  11.040
56851SOL    HW172392   1.769  12.846  10.947
56851SOL    HW272393   1.871  12.784  11.041
56852SOL     OW72394   8.271   6.653   5.509
56852SOL    HW172395   8.295   6.561   5.518
56852SOL    HW272396   8.341   6.701   5.553
56853SOL     OW72397   8.313  12.172  13.621
56853SOL    HW172398   8.228  12.128  13.621
56853SOL    HW272399   8.356  12.143  13.541
56854SOL     OW72400   9.668   5.704   8.568
56854SOL    HW172401   9.640   5.628   8.620
56854SOL    HW272402   9.639   5.780   8.619
56855SOL     OW72403  14.529   1.751   7.181
56855SOL    HW172404  14.617   1.722   7.157
56855SOL    HW272405  14.536   1.771   7.275
56856SOL     OW72406   3.628  11.648   8.136
56856SOL    HW172407   3.614  11.615   8.225
56856SOL    HW272408   3.665  11.736   8.148
56857SOL     OW72409  11.434   6.263   1.188
56857SOL    HW172410  11.527   6.262   1.166
56857SOL    HW272411  11.427   6.213   1.269
56858SOL     OW72412   7.172   1.304   9.174
56858SOL    HW172413   7.122   1.300   9.093
56858SOL    HW272414   7.262   1.321   9.146
56859SOL     OW72415   9.316  11.202  13.535
56859SOL    HW172416   9.362  11.119  13.541
56859SOL    HW272417   9.261  11.194  13.457
56860SOL     OW72418  11.485   3.213   1.162
56860SOL    HW172419  11.442   3.298   1.150
56860SOL    HW272420  11.426   3.165   1.221
56861SOL     OW72421   2.020   6.500   3.715
56861SOL    HW172422   2.016   6.475   3.808
56861SOL    HW272423   2.090   6.565   3.711
56862SOL     OW72424   1.467   9.935   8.202
56862SOL    HW172425   1.526  10.001   8.239
56862SOL    HW272426   1.520   9.892   8.134
56863SOL     OW72427   0.629   8.208  10.209
56863SOL    HW172428   0.544   8.232  10.245
56863SOL    HW272429   0.690   8.272  10.245
56864SOL     OW72430   9.969   3.033   3.557
56864SOL    HW172431  10.033   3.053   3.625
56864SOL    HW272432   9.943   2.942   3.575
56865SOL     OW72433  10.313  12.597   9.728
56865SOL    HW172434  10.326  12.517   9.778
56865SOL    HW272435  10.218  12.604   9.720
56866SOL     OW72436   2.065  14.164   0.819
56866SOL    HW172437   2.053  14.100   0.889
56866SOL    HW272438   2.048  14.248   0.860
56867SOL     OW72439   5.659  11.875   1.366
56867SOL    HW172440   5.702  11.806   1.316
56867SOL    HW272441   5.585  11.902   1.312
56868SOL     OW72442   3.408  13.885  14.697
56868SOL    HW172443   3.401  13.980  14.686
56868SOL    HW272444   3.319  13.856  14.720
56869SOL     OW72445  12.457  13.623  11.838
56869SOL    HW172446  12.361  13.626  11.841
56869SOL    HW272447  12.481  13.696  11.782
56870SOL     OW72448   8.066  11.982  10.723
56870SOL    HW172449   8.082  11.889  10.739
56870SOL    HW272450   8.154  12.021  10.720
56871SOL     OW72451  13.209  11.935   4.014
56871SOL    HW172452  13.302  11.912   4.013
56871SOL    HW272453  13.173  11.887   4.088
56872SOL     OW72454   5.091   5.927  13.939
56872SOL    HW172455   5.158   5.888  13.996
56872SOL    HW272456   5.045   5.990  13.995
56873SOL     OW72457   9.130   9.406  13.229
56873SOL    HW172458   9.225   9.420  13.225
56873SOL    HW272459   9.120   9.311  13.233
56874SOL     OW72460   3.468   6.817  11.243
56874SOL    HW172461   3.414   6.760  11.189
56874SOL    HW272462   3.411   6.891  11.264
56875SOL     OW72463  11.854  13.487   6.712
56875SOL    HW172464  11.804  13.559   6.752
56875SOL    HW272465  11.940  13.526   6.692
56876SOL     OW72466   8.965  12.067  11.897
56876SOL    HW172467   8.973  12.039  11.988
56876SOL    HW272468   9.029  12.014  11.849
56877SOL     OW72469   8.994   6.796  12.012
56877SOL    HW172470   8.946   6.875  11.987
56877SOL    HW272471   9.036   6.767  11.931
56878SOL     OW72472   6.047   6.427   7.462
56878SOL    HW172473   6.036   6.473   7.545
56878SOL    HW272474   6.056   6.334   7.487
56879SOL     OW72475   2.796   7.106  11.592
56879SOL    HW172476   2.827   7.019  11.566
56879SOL    HW272477   2.870   7.144  11.640
56880SOL     OW72478  11.620   5.023  14.597
56880SOL    HW172479  11.531   4.996  14.618
56880SOL    HW272480  11.620   5.036  14.503
56881SOL     OW72481   8.709   4.054   6.430
56881SOL    HW172482   8.789   4.004   6.444
56881SOL    HW272483   8.729   4.141   6.464
56882SOL     OW72484   3.484  11.405   3.587
56882SOL    HW172485   3.497  11.313   3.567
56882SOL    HW272486   3.392  11.411   3.615
56883SOL     OW72487  10.225   0.726  11.962
56883SOL    HW172488  10.289   0.710  12.031
56883SOL    HW272489  10.278   0.743  11.884
56884SOL     OW72490  12.157   1.682   9.178
56884SOL    HW172491  12.132   1.730   9.098
56884SOL    HW272492  12.252   1.674   9.172
56885SOL     OW72493  14.033   1.093  12.286
56885SOL    HW172494  14.047   1.047  12.369
56885SOL    HW272495  13.940   1.113  12.285
56886SOL     OW72496   8.003   3.445   7.452
56886SOL    HW172497   7.953   3.525   7.471
56886SOL    HW272498   8.070   3.442   7.520
56887SOL     OW72499  14.631   6.627   2.750
56887SOL    HW172500  14.590   6.704   2.789
56887SOL    HW272501  14.723   6.633   2.777
56888SOL     OW72502   1.408  12.749  10.084
56888SOL    HW172503   1.362  12.668  10.062
56888SOL    HW272504   1.351  12.818  10.050
56889SOL     OW72505  12.671   8.446   9.241
56889SOL    HW172506  12.591   8.492   9.268
56889SOL    HW272507  12.651   8.353   9.253
56890SOL     OW72508   0.411  10.894  10.067
56890SOL    HW172509   0.322  10.867  10.046
56890SOL    HW272510   0.407  10.921  10.159
56891SOL     OW72511  10.277  13.298   3.311
56891SOL    HW172512  10.274  13.322   3.219
56891SOL    HW272513  10.226  13.217   3.317
56892SOL     OW72514   6.534   4.094  11.384
56892SOL    HW172515   6.455   4.137  11.414
56892SOL    HW272516   6.589   4.086  11.462
56893SOL     OW72517  12.827  10.134   2.437
56893SOL    HW172518  12.734  10.119   2.450
56893SOL    HW272519  12.870  10.056   2.473
56894SOL     OW72520  11.295   1.692  13.126
56894SOL    HW172521  11.374   1.673  13.177
56894SOL    HW272522  11.326   1.750  13.056
56895SOL     OW72523   0.220  11.965   5.494
56895SOL    HW172524   0.315  11.962   5.506
56895SOL    HW272525   0.192  12.043   5.540
56896SOL     OW72526   0.760   1.365  13.080
56896SOL    HW172527   0.817   1.300  13.120
56896SOL    HW272528   0.681   1.365  13.135
56897SOL     OW72529   8.499   8.662  12.740
56897SOL    HW172530   8.557   8.589  12.720
56897SOL    HW272531   8.419   8.620  12.773
56898SOL     OW72532   9.865   4.053   5.614
56898SOL    HW172533   9.903   4.139   5.634
56898SOL    HW272534   9.795   4.043   5.678
56899SOL     OW72535  10.861   8.214  13.234
56899SOL    HW172536  10.823   8.213  13.322
56899SOL    HW272537  10.948   8.253  13.245
56900SOL     OW72538   3.524  11.416   7.943
56900SOL    HW172539   3.560  11.491   7.992
56900SOL    HW272540   3.461  11.455   7.883
56901SOL     OW72541   7.765   6.303  14.476
56901SOL    HW172542   7.747   6.354  14.397
56901SOL    HW272543   7.720   6.220  14.462
56902SOL     OW72544   3.176   9.551   4.201
56902SOL    HW172545   3.213   9.617   4.143
56902SOL    HW272546   3.250   9.524   4.256
56903SOL     OW72547   0.589  13.458   1.686
56903SOL    HW172548   0.543  13.482   1.766
56903SOL    HW272549   0.522  13.463   1.618
56904SOL     OW72550   9.376  11.556   0.246
56904SOL    HW172551   9.386  11.616   0.172
56904SOL    HW272552   9.445  11.491   0.234
56905SOL     OW72553   0.938   8.089   1.482
56905SOL    HW172554   0.923   8.144   1.559
56905SOL    HW272555   1.027   8.055   1.494
56906SOL     OW72556   1.456  14.538   5.980
56906SOL    HW172557   1.419  14.475   5.917
56906SOL    HW272558   1.387  14.549   6.046
56907SOL     OW72559  12.259  10.253  14.037
56907SOL    HW172560  12.291  10.214  13.955
56907SOL    HW272561  12.293  10.195  14.105
56908SOL     OW72562   0.764  13.102   0.366
56908SOL    HW172563   0.681  13.136   0.399
56908SOL    HW272564   0.806  13.063   0.444
56909SOL     OW72565  13.289   9.998  11.211
56909SOL    HW172566  13.277  10.061  11.282
56909SOL    HW272567  13.214   9.940  11.218
56910SOL     OW72568  13.887   9.294  13.085
56910SOL    HW172569  13.835   9.362  13.128
56910SOL    HW272570  13.945   9.261  13.154
56911SOL     OW72571  10.449  11.184   0.231
56911SOL    HW172572  10.502  11.241   0.175
56911SOL    HW272573  10.467  11.215   0.320
56912SOL     OW72574  13.062   7.562  11.614
56912SOL    HW172575  12.979   7.581  11.658
56912SOL    HW272576  13.062   7.618  11.537
56913SOL     OW72577  10.947   1.437   7.756
56913SOL    HW172578  10.997   1.500   7.703
56913SOL    HW272579  10.856   1.454   7.733
56914SOL     OW72580  14.121   2.910   0.090
56914SOL    HW172581  14.184   2.951   0.031
56914SOL    HW272582  14.091   2.833   0.041
56915SOL     OW72583   3.202   1.647  11.826
56915SOL    HW172584   3.291   1.679  11.839
56915SOL    HW272585   3.150   1.726  11.809
56916SOL     OW72586   3.408  12.119   9.816
56916SOL    HW172587   3.447  12.047   9.865
56916SOL    HW272588   3.318  12.092   9.801
56917SOL     OW72589   8.339   5.447  10.906
56917SOL    HW172590   8.431   5.428  10.889
56917SOL    HW272591   8.309   5.373  10.959
56918SOL     OW72592   1.566  12.259   2.609
56918SOL    HW172593   1.570  12.319   2.535
56918SOL    HW272594   1.577  12.315   2.686
56919SOL     OW72595   3.100   1.562   0.970
56919SOL    HW172596   3.053   1.486   1.004
56919SOL    HW272597   3.064   1.637   1.019
56920SOL     OW72598   1.855  11.789  14.856
56920SOL    HW172599   1.856  11.732  14.779
56920SOL    HW272600   1.822  11.733   0.053
56921SOL     OW72601   7.802   9.594   4.149
56921SOL    HW172602   7.718   9.639   4.142
56921SOL    HW272603   7.780   9.501   4.139
56922SOL     OW72604   0.515  13.643   7.548
56922SOL    HW172605   0.609  13.655   7.567
56922SOL    HW272606   0.473  13.721   7.585
56923SOL     OW72607   6.284   5.927   0.502
56923SOL    HW172608   6.283   6.004   0.445
56923SOL    HW272609   6.284   5.964   0.591
56924SOL     OW72610   4.365   8.163   6.381
56924SOL    HW172611   4.449   8.145   6.341
56924SOL    HW272612   4.352   8.092   6.444
56925SOL     OW72613   8.692  13.894   8.736
56925SOL    HW172614   8.645  13.812   8.748
56925SOL    HW272615   8.769  13.870   8.684
56926SOL     OW72616   1.341   5.014   5.316
56926SOL    HW172617   1.328   5.054   5.402
56926SOL    HW272618   1.253   5.010   5.278
56927SOL     OW72619  11.916   5.782   1.588
56927SOL    HW172620  11.995   5.831   1.565
56927SOL    HW272621  11.916   5.708   1.527
56928SOL     OW72622   0.253  10.191   4.894
56928SOL    HW172623   0.177  10.224   4.942
56928SOL    HW272624   0.254  10.242   4.813
56929SOL     OW72625   0.131   5.636   7.960
56929SOL    HW172626   0.187   5.568   7.998
56929SOL    HW272627   0.042   5.604   7.971
56930SOL     OW72628  10.799  11.086   1.923
56930SOL    HW172629  10.804  11.181   1.928
56930SOL    HW272630  10.706  11.066   1.930
56931SOL     OW72631   4.226   6.330   7.832
56931SOL    HW172632   4.293   6.392   7.862
56931SOL    HW272633   4.256   6.305   7.745
56932SOL     OW72634  12.844   4.251  12.748
56932SOL    HW172635  12.860   4.320  12.812
56932SOL    HW272636  12.773   4.199  12.786
56933SOL     OW72637   3.952  14.008  12.195
56933SOL    HW172638   3.884  13.953  12.234
56933SOL    HW272639   3.943  14.092  12.240
56934SOL     OW72640   7.455  13.469  12.846
56934SOL    HW172641   7.503  13.485  12.928
56934SOL    HW272642   7.497  13.391  12.808
56935SOL     OW72643  11.242   6.342  14.502
56935SOL    HW172644  11.224   6.278  14.571
56935SOL    HW272645  11.302   6.297  14.443
56936SOL     OW72646   3.884  14.020  11.466
56936SOL    HW172647   3.890  13.924  11.467
56936SOL    HW272648   3.905  14.047  11.555
56937SOL     OW72649   2.207  13.352   7.994
56937SOL    HW172650   2.270  13.343   8.065
56937SOL    HW272651   2.122  13.348   8.037
56938SOL     OW72652  11.693   4.371  10.956
56938SOL    HW172653  11.751   4.317  11.010
56938SOL    HW272654  11.609   4.324  10.956
56939SOL     OW72655   3.178  11.048   0.411
56939SOL    HW172656   3.105  11.058   0.351
56939SOL    HW272657   3.249  11.014   0.357
56940SOL     OW72658   6.219   5.457   6.808
56940SOL    HW172659   6.243   5.549   6.796
56940SOL    HW272660   6.143   5.459   6.866
56941SOL     OW72661   6.285  11.860   3.136
56941SOL    HW172662   6.198  11.898   3.124
56941SOL    HW272663   6.343  11.917   3.085
56942SOL     OW72664   3.125  11.799  14.592
56942SOL    HW172665   3.075  11.865  14.544
56942SOL    HW272666   3.203  11.845  14.623
56943SOL     OW72667  10.166   5.690   3.234
56943SOL    HW172668  10.095   5.628   3.216
56943SOL    HW272669  10.244   5.648   3.199
56944SOL     OW72670   4.845   3.650  14.243
56944SOL    HW172671   4.771   3.673  14.186
56944SOL    HW272672   4.813   3.666  14.332
56945SOL     OW72673   6.392   5.672  13.247
56945SOL    HW172674   6.437   5.720  13.178
56945SOL    HW272675   6.349   5.740  13.299
56946SOL     OW72676   3.021   3.329   7.318
56946SOL    HW172677   2.972   3.331   7.236
56946SOL    HW272678   3.112   3.335   7.292
56947SOL     OW72679  12.110   0.058   5.158
56947SOL    HW172680  12.063  14.850   5.176
56947SOL    HW272681  12.084   0.082   5.069
56948SOL     OW72682   7.985   3.586  12.084
56948SOL    HW172683   8.068   3.618  12.050
56948SOL    HW272684   7.953   3.657  12.140
56949SOL     OW72685   4.670   4.357   1.858
56949SOL    HW172686   4.670   4.267   1.890
56949SOL    HW272687   4.682   4.411   1.936
56950SOL     OW72688   3.284   0.920   9.073
56950SOL    HW172689   3.238   0.961   9.146
56950SOL    HW272690   3.330   0.845   9.111
56951SOL     OW72691   1.722   1.118   6.130
56951SOL    HW172692   1.815   1.141   6.130
56951SOL    HW272693   1.706   1.087   6.219
56952SOL     OW72694  12.768   4.716   5.516
56952SOL    HW172695  12.677   4.735   5.492
56952SOL    HW272696  12.804   4.669   5.441
56953SOL     OW72697   5.178  11.298  14.472
56953SOL    HW172698   5.109  11.234  14.488
56953SOL    HW272699   5.162  11.367  14.536
56954SOL     OW72700   0.677   2.180   7.039
56954SOL    HW172701   0.691   2.162   7.132
56954SOL    HW272702   0.754   2.142   6.995
56955SOL     OW72703   8.505   3.264   8.027
56955SOL    HW172704   8.473   3.336   8.082
56955SOL    HW272705   8.585   3.235   8.071
56956SOL     OW72706   7.522  11.844   4.348
56956SOL    HW172707   7.469  11.855   4.428
56956SOL    HW272708   7.612  11.835   4.380
56957SOL     OW72709  12.661   2.563   2.286
56957SOL    HW172710  12.754   2.549   2.268
56957SOL    HW272711  12.617   2.540   2.204
56958SOL     OW72712   4.336  11.802   6.743
56958SOL    HW172713   4.326  11.760   6.828
56958SOL    HW272714   4.348  11.895   6.763
56959SOL     OW72715   9.254   7.980  14.652
56959SOL    HW172716   9.174   7.969  14.704
56959SOL    HW272717   9.233   8.049  14.590
56960SOL     OW72718   9.907   6.270   5.723
56960SOL    HW172719   9.841   6.238   5.662
56960SOL    HW272720   9.872   6.250   5.810
56961SOL     OW72721   2.462   6.619   5.982
56961SOL    HW172722   2.385   6.669   6.010
56961SOL    HW272723   2.533   6.684   5.981
56962SOL     OW72724  12.147   3.498  10.591
56962SOL    HW172725  12.152   3.416  10.541
56962SOL    HW272726  12.084   3.479  10.660
56963SOL     OW72727   9.279   4.952   7.579
56963SOL    HW172728   9.318   4.870   7.549
56963SOL    HW272729   9.237   4.930   7.661
56964SOL     OW72730  11.939   3.213   0.435
56964SOL    HW172731  11.892   3.133   0.460
56964SOL    HW272732  11.872   3.270   0.397
56965SOL     OW72733   9.103  13.135   1.873
56965SOL    HW172734   9.086  13.042   1.854
56965SOL    HW272735   9.193  13.149   1.844
56966SOL     OW72736  13.446   7.757   6.145
56966SOL    HW172737  13.442   7.718   6.233
56966SOL    HW272738  13.501   7.697   6.095
56967SOL     OW72739  10.489   9.144  10.312
56967SOL    HW172740  10.578   9.171  10.288
56967SOL    HW272741  10.498   9.103  10.398
56968SOL     OW72742   0.912   0.010   3.392
56968SOL    HW172743   0.950   0.082   3.443
56968SOL    HW272744   0.909   0.043   3.302
56969SOL     OW72745  13.593   1.216  11.448
56969SOL    HW172746  13.596   1.273  11.525
56969SOL    HW272747  13.502   1.189  11.441
56970SOL     OW72748   3.443   3.412   0.847
56970SOL    HW172749   3.366   3.414   0.790
56970SOL    HW272750   3.488   3.331   0.825
56971SOL     OW72751   5.715  12.735   1.002
56971SOL    HW172752   5.744  12.661   1.055
56971SOL    HW272753   5.734  12.709   0.912
56972SOL     OW72754  14.403   1.484   0.222
56972SOL    HW172755  14.352   1.510   0.299
56972SOL    HW272756  14.427   1.393   0.238
56973SOL     OW72757   3.490   5.490   0.935
56973SOL    HW172758   3.569   5.544   0.939
56973SOL    HW272759   3.494   5.435   1.013
56974SOL     OW72760   6.109  10.476   7.553
56974SOL    HW172761   6.143  10.397   7.595
56974SOL    HW272762   6.146  10.548   7.605
56975SOL     OW72763   2.962   2.061   7.622
56975SOL    HW172764   2.911   2.139   7.645
56975SOL    HW272765   3.053   2.087   7.636
56976SOL     OW72766  11.216   5.055   4.198
56976SOL    HW172767  11.256   5.142   4.200
56976SOL    HW272768  11.270   5.005   4.137
56977SOL     OW72769   6.655   8.442   6.272
56977SOL    HW172770   6.671   8.359   6.228
56977SOL    HW272771   6.598   8.419   6.345
56978SOL     OW72772   2.704   9.776  10.784
56978SOL    HW172773   2.630   9.725  10.752
56978SOL    HW272774   2.725   9.837  10.713
56979SOL     OW72775  13.434   4.696   6.307
56979SOL    HW172776  13.364   4.738   6.257
56979SOL    HW272777  13.513   4.708   6.253
56980SOL     OW72778   9.251  13.283  12.796
56980SOL    HW172779   9.301  13.321  12.724
56980SOL    HW272780   9.308  13.293  12.873
56981SOL     OW72781   8.762  10.715   3.008
56981SOL    HW172782   8.802  10.657   2.944
56981SOL    HW272783   8.739  10.658   3.082
56982SOL     OW72784  10.953  10.611  10.459
56982SOL    HW172785  10.905  10.578  10.383
56982SOL    HW272786  10.888  10.611  10.530
56983SOL     OW72787  10.381   6.001  10.706
56983SOL    HW172788  10.442   6.064  10.742
56983SOL    HW272789  10.374   5.933  10.773
56984SOL     OW72790   6.829   1.570   6.851
56984SOL    HW172791   6.922   1.587   6.865
56984SOL    HW272792   6.826   1.522   6.769
56985SOL     OW72793  11.646   5.695  10.009
56985SOL    HW172794  11.722   5.645   9.980
56985SOL    HW272795  11.663   5.712  10.102
56986SOL     OW72796   5.546  14.058  12.435
56986SOL    HW172797   5.504  14.067  12.521
56986SOL    HW272798   5.495  13.990  12.392
56987SOL     OW72799  13.677   8.418   7.075
56987SOL    HW172800  13.751   8.437   7.132
56987SOL    HW272801  13.606   8.471   7.110
56988SOL     OW72802   3.108   4.163  11.726
56988SOL    HW172803   3.037   4.126  11.779
56988SOL    HW272804   3.130   4.246  11.770
56989SOL     OW72805   3.374   3.964   0.484
56989SOL    HW172806   3.308   3.991   0.420
56989SOL    HW272807   3.450   3.942   0.431
56990SOL     OW72808   3.151   3.612  11.325
56990SOL    HW172809   3.154   3.556  11.248
56990SOL    HW272810   3.129   3.699  11.291
56991SOL     OW72811   1.845  12.737   7.668
56991SOL    HW172812   1.903  12.777   7.733
56991SOL    HW272813   1.764  12.720   7.717
56992SOL     OW72814  12.374   5.444   3.818
56992SOL    HW172815  12.342   5.481   3.736
56992SOL    HW272816  12.338   5.355   3.820
56993SOL     OW72817   8.164  13.328   3.391
56993SOL    HW172818   8.082  13.291   3.360
56993SOL    HW272819   8.151  13.339   3.485
56994SOL     OW72820   7.814   0.593   6.330
56994SOL    HW172821   7.722   0.604   6.305
56994SOL    HW272822   7.838   0.507   6.297
56995SOL     OW72823   2.720   9.295   5.213
56995SOL    HW172824   2.778   9.245   5.155
56995SOL    HW272825   2.779   9.351   5.263
56996SOL     OW72826   6.706  14.078  11.667
56996SOL    HW172827   6.647  14.134  11.617
56996SOL    HW272828   6.708  13.995  11.619
56997SOL     OW72829  12.647  13.873   7.016
56997SOL    HW172830  12.619  13.782   7.030
56997SOL    HW272831  12.722  13.867   6.958
56998SOL     OW72832   6.535  10.046   3.683
56998SOL    HW172833   6.601   9.986   3.647
56998SOL    HW272834   6.452  10.001   3.669
56999SOL     OW72835  13.758  13.745  13.942
56999SOL    HW172836  13.848  13.713  13.941
56999SOL    HW272837  13.756  13.816  13.879
57000SOL     OW72838  14.682   2.491  13.042
57000SOL    HW172839  14.734   2.434  13.099
57000SOL    HW272840  14.737   2.569  13.031
57001SOL     OW72841   6.347  14.041  12.568
57001SOL    HW172842   6.341  14.077  12.657
57001SOL    HW272843   6.258  14.051  12.533
57002SOL     OW72844   1.897   7.695   6.966
57002SOL    HW172845   1.979   7.698   6.916
57002SOL    HW272846   1.873   7.602   6.966
57003SOL     OW72847  12.003   2.148  14.084
57003SOL    HW172848  11.985   2.183  14.172
57003SOL    HW272849  11.995   2.053  14.095
57004SOL     OW72850   8.169   3.382   0.698
57004SOL    HW172851   8.178   3.292   0.730
57004SOL    HW272852   8.093   3.379   0.640
57005SOL     OW72853  14.313  11.016  14.361
57005SOL    HW172854  14.327  11.005  14.455
57005SOL    HW272855  14.269  11.101  14.353
57006SOL     OW72856  14.103  12.182  12.556
57006SOL    HW172857  14.166  12.232  12.505
57006SOL    HW272858  14.141  12.094  12.562
57007SOL     OW72859  13.227   0.901   7.510
57007SOL    HW172860  13.145   0.949   7.512
57007SOL    HW272861  13.202   0.811   7.488
57008SOL     OW72862  13.272   5.015   0.700
57008SOL    HW172863  13.242   5.069   0.774
57008SOL    HW272864  13.321   4.944   0.741
57009SOL     OW72865  14.420   7.623  12.325
57009SOL    HW172866  14.500   7.580  12.355
57009SOL    HW272867  14.438   7.648  12.235
57010SOL     OW72868  10.945   8.859   8.364
57010SOL    HW172869  10.926   8.775   8.407
57010SOL    HW272870  10.998   8.907   8.427
57011SOL     OW72871   8.707   3.479  10.592
57011SOL    HW172872   8.711   3.517  10.680
57011SOL    HW272873   8.641   3.531  10.546
57012SOL     OW72874   0.006  12.558   8.124
57012SOL    HW172875  14.803  12.598   8.081
57012SOL    HW272876   0.001  12.589   8.214
57013SOL     OW72877   3.111  12.830   5.939
57013SOL    HW172878   3.120  12.766   5.868
57013SOL    HW272879   3.018  12.829   5.961
57014SOL     OW72880   3.898   3.971  10.650
57014SOL    HW172881   3.862   4.024  10.580
57014SOL    HW272882   3.847   3.890  10.648
57015SOL     OW72883   6.298   0.606   8.209
57015SOL    HW172884   6.273   0.529   8.260
57015SOL    HW272885   6.311   0.675   8.275
57016SOL     OW72886  12.551   6.651   6.059
57016SOL    HW172887  12.486   6.712   6.093
57016SOL    HW272888  12.633   6.679   6.101
57017SOL     OW72889   2.240  12.377   0.833
57017SOL    HW172890   2.300  12.390   0.906
57017SOL    HW272891   2.259  12.448   0.772
57018SOL     OW72892  10.339  14.048   7.675
57018SOL    HW172893  10.349  14.026   7.583
57018SOL    HW272894  10.418  14.096   7.697
57019SOL     OW72895   6.284   1.563   9.462
57019SOL    HW172896   6.216   1.588   9.524
57019SOL    HW272897   6.248   1.488   9.416
57020SOL     OW72898  14.697   7.460  11.557
57020SOL    HW172899  14.695   7.409  11.638
57020SOL    HW272900  14.755   7.534  11.577
57021SOL     OW72901  10.493  13.326   9.631
57021SOL    HW172902  10.527  13.400   9.681
57021SOL    HW272903  10.398  13.334   9.638
57022SOL     OW72904   9.408   7.177  14.031
57022SOL    HW172905   9.485   7.120  14.038
57022SOL    HW272906   9.416   7.239  14.103
57023SOL     OW72907  13.190  13.896   8.802
57023SOL    HW172908  13.262  13.959   8.797
57023SOL    HW272909  13.230  13.816   8.836
57024SOL     OW72910  10.571   0.031   4.020
57024SOL    HW172911  10.539   0.084   4.093
57024SOL    HW272912  10.613  14.828   4.062
57025SOL     OW72913  14.541   4.891   4.435
57025SOL    HW172914  14.523   4.887   4.341
57025SOL    HW272915  14.523   4.981   4.459
57026SOL     OW72916  10.139  11.551   0.002
57026SOL    HW172917  10.044  11.540   0.010
57026SOL    HW272918  10.175  11.505   0.078
57027SOL     OW72919  13.169  11.260   2.256
57027SOL    HW172920  13.091  11.206   2.249
57027SOL    HW272921  13.137  11.345   2.286
57028SOL     OW72922  12.740   7.536  14.042
57028SOL    HW172923  12.647   7.511  14.041
57028SOL    HW272924  12.776   7.496  13.963
57029SOL     OW72925  11.243  14.473   6.285
57029SOL    HW172926  11.279  14.505   6.203
57029SOL    HW272927  11.291  14.393   6.303
57030SOL     OW72928   0.665  12.373  12.889
57030SOL    HW172929   0.653  12.416  12.974
57030SOL    HW272930   0.741  12.316  12.901
57031SOL     OW72931   5.000  11.744  10.322
57031SOL    HW172932   4.988  11.767  10.230
57031SOL    HW272933   5.079  11.792  10.348
57032SOL     OW72934   1.434   6.937   6.507
57032SOL    HW172935   1.356   6.962   6.557
57032SOL    HW272936   1.466   6.859   6.552
57033SOL     OW72937   8.617  14.647  12.280
57033SOL    HW172938   8.703  14.649  12.322
57033SOL    HW272939   8.636  14.653  12.186
57034SOL     OW72940   6.398  12.617   8.800
57034SOL    HW172941   6.312  12.634   8.761
57034SOL    HW272942   6.446  12.699   8.787
57035SOL     OW72943   9.983  13.465  11.980
57035SOL    HW172944   9.999  13.415  12.060
57035SOL    HW272945  10.001  13.556  12.005
57036SOL     OW72946  13.811   2.108   7.420
57036SOL    HW172947  13.811   2.039   7.354
57036SOL    HW272948  13.780   2.065   7.500
57037SOL     OW72949  13.317   1.815   0.093
57037SOL    HW172950  13.253   1.744   0.091
57037SOL    HW272951  13.304   1.862   0.010
57038SOL     OW72952   1.573   5.176  13.255
57038SOL    HW172953   1.613   5.100  13.214
57038SOL    HW272954   1.627   5.250  13.226
57039SOL     OW72955   2.150  14.792   3.468
57039SOL    HW172956   2.230  14.796   3.521
57039SOL    HW272957   2.110   0.006   3.478
57040SOL     OW72958   6.788  10.306  10.957
57040SOL    HW172959   6.856  10.366  10.927
57040SOL    HW272960   6.825  10.219  10.940
57041SOL     OW72961   6.393  11.881  12.850
57041SOL    HW172962   6.322  11.824  12.880
57041SOL    HW272963   6.377  11.892  12.756
57042SOL     OW72964   6.179   0.610  12.167
57042SOL    HW172965   6.117   0.576  12.232
57042SOL    HW272966   6.130   0.610  12.085
57043SOL     OW72967   5.996   4.477   6.974
57043SOL    HW172968   5.905   4.504   6.969
57043SOL    HW272969   6.017   4.479   7.068
57044SOL     OW72970   9.623   4.810   7.365
57044SOL    HW172971   9.540   4.833   7.323
57044SOL    HW272972   9.612   4.719   7.391
57045SOL     OW72973  12.261  11.986   7.438
57045SOL    HW172974  12.251  11.964   7.531
57045SOL    HW272975  12.204  11.925   7.393
57046SOL     OW72976  13.280   3.897   4.566
57046SOL    HW172977  13.365   3.902   4.610
57046SOL    HW272978  13.232   3.972   4.599
57047SOL     OW72979   0.198   7.476  11.944
57047SOL    HW172980   0.239   7.429  11.871
57047SOL    HW272981   0.183   7.564  11.910
57048SOL     OW72982   2.649   0.278  13.243
57048SOL    HW172983   2.612   0.216  13.181
57048SOL    HW272984   2.578   0.298  13.303
57049SOL     OW72985   5.582  13.534   1.253
57049SOL    HW172986   5.676  13.539   1.235
57049SOL    HW272987   5.543  13.599   1.194
57050SOL     OW72988   9.069  11.976  14.555
57050SOL    HW172989   8.995  11.993  14.497
57050SOL    HW272990   9.045  12.016  14.638
57051SOL     OW72991   7.134   4.970   5.650
57051SOL    HW172992   7.053   4.918   5.650
57051SOL    HW272993   7.191   4.924   5.588
57052SOL     OW72994   3.111   5.295   5.423
57052SOL    HW172995   3.156   5.308   5.340
57052SOL    HW272996   3.066   5.377   5.440
57053SOL     OW72997   8.411   0.448   9.338
57053SOL    HW172998   8.481   0.385   9.355
57053SOL    HW272999   8.447   0.532   9.367
57054SOL     OW73000   6.424  12.841   1.507
57054SOL    HW173001   6.357  12.837   1.438
57054SOL    HW273002   6.393  12.781   1.574
57055SOL     OW73003   7.842  10.271   3.896
57055SOL    HW173004   7.821  10.262   3.989
57055SOL    HW273005   7.908  10.340   3.893
57056SOL     OW73006   4.441   0.636   7.857
57056SOL    HW173007   4.455   0.542   7.852
57056SOL    HW273008   4.347   0.646   7.870
57057SOL     OW73009   5.673   6.116   2.324
57057SOL    HW173010   5.741   6.085   2.263
57057SOL    HW273011   5.676   6.211   2.316
57058SOL     OW73012   2.198  13.850  13.133
57058SOL    HW173013   2.191  13.928  13.078
57058SOL    HW273014   2.216  13.884  13.220
57059SOL     OW73015   8.085   3.137  12.244
57059SOL    HW173016   8.067   3.045  12.225
57059SOL    HW273017   8.134   3.168  12.168
57060SOL     OW73018   5.099   5.745  11.222
57060SOL    HW173019   5.183   5.702  11.239
57060SOL    HW273020   5.095   5.752  11.127
57061SOL     OW73021   0.519  10.583   9.239
57061SOL    HW173022   0.491  10.503   9.285
57061SOL    HW273023   0.450  10.647   9.259
57062SOL     OW73024   1.291   1.593   8.871
57062SOL    HW173025   1.296   1.600   8.776
57062SOL    HW273026   1.299   1.499   8.889
57063SOL     OW73027  13.363  11.461  13.534
57063SOL    HW173028  13.420  11.396  13.492
57063SOL    HW273029  13.279  11.450  13.491
57064SOL     OW73030   8.275  12.044  10.107
57064SOL    HW173031   8.344  12.105  10.081
57064SOL    HW273032   8.229  12.024  10.026
57065SOL     OW73033  14.211   2.970   4.226
57065SOL    HW173034  14.268   3.015   4.288
57065SOL    HW273035  14.132   2.949   4.275
57066SOL     OW73036   9.868   0.553   1.795
57066SOL    HW173037   9.915   0.470   1.797
57066SOL    HW273038   9.804   0.546   1.866
57067SOL     OW73039   2.316   4.146   5.094
57067SOL    HW173040   2.335   4.053   5.098
57067SOL    HW273041   2.402   4.189   5.106
57068SOL     OW73042   6.128   1.768   8.065
57068SOL    HW173043   6.110   1.849   8.111
57068SOL    HW273044   6.075   1.702   8.109
57069SOL     OW73045   8.023  14.836   0.203
57069SOL    HW173046   8.030   0.028   0.132
57069SOL    HW273047   7.940  14.791   0.186
57070SOL     OW73048   5.402  12.791   3.364
57070SOL    HW173049   5.364  12.878   3.375
57070SOL    HW273050   5.360  12.738   3.432
57071SOL     OW73051   4.839   4.450  11.106
57071SOL    HW173052   4.764   4.424  11.053
57071SOL    HW273053   4.801   4.479  11.189
57072SOL     OW73054   4.700   0.403   8.914
57072SOL    HW173055   4.751   0.442   8.843
57072SOL    HW273056   4.661   0.478   8.960
57073SOL     OW73057   4.276  13.466   2.518
57073SOL    HW173058   4.247  13.393   2.573
57073SOL    HW273059   4.361  13.490   2.553
57074SOL     OW73060  10.471  12.977   2.841
57074SOL    HW173061  10.401  12.978   2.775
57074SOL    HW273062  10.511  13.063   2.835
57075SOL     OW73063   1.989   0.238   5.662
57075SOL    HW173064   1.938   0.200   5.591
57075SOL    HW273065   1.974   0.333   5.653
57076SOL     OW73066  14.735  13.279   9.842
57076SOL    HW173067  14.805  13.271   9.776
57076SOL    HW273068  14.756  13.211   9.906
57077SOL     OW73069   7.343   9.548   7.683
57077SOL    HW173070   7.346   9.608   7.757
57077SOL    HW273071   7.433   9.514   7.675
57078SOL     OW73072   3.152  14.638  14.035
57078SOL    HW173073   3.074  14.594  14.003
57078SOL    HW273074   3.225  14.586  14.000
57079SOL     OW73075   2.969  10.231  13.453
57079SOL    HW173076   2.976  10.280  13.535
57079SOL    HW273077   2.901  10.277  13.404
57080SOL     OW73078  12.609   6.376   2.841
57080SOL    HW173079  12.564   6.293   2.826
57080SOL    HW273080  12.682   6.354   2.899
57081SOL     OW73081   0.901   5.419   1.532
57081SOL    HW173082   0.857   5.488   1.581
57081SOL    HW273083   0.843   5.400   1.458
57082SOL     OW73084   5.818   8.710   2.893
57082SOL    HW173085   5.888   8.663   2.848
57082SOL    HW273086   5.768   8.641   2.939
57083SOL     OW73087  14.671  14.546   1.294
57083SOL    HW173088  14.626  14.630   1.296
57083SOL    HW273089  14.752  14.561   1.343
57084SOL     OW73090  14.201  14.419  11.681
57084SOL    HW173091  14.203  14.375  11.596
57084SOL    HW273092  14.147  14.497  11.666
57085SOL     OW73093  12.811   1.195  12.843
57085SOL    HW173094  12.715   1.188  12.838
57085SOL    HW273095  12.843   1.123  12.789
57086SOL     OW73096  11.392   1.920  10.877
57086SOL    HW173097  11.389   1.824  10.882
57086SOL    HW273098  11.303   1.946  10.853
57087SOL     OW73099   0.936   5.766   3.379
57087SOL    HW173100   0.922   5.712   3.301
57087SOL    HW273101   0.900   5.714   3.451
57088SOL     OW73102  13.094   2.973   5.036
57088SOL    HW173103  13.066   2.956   5.125
57088SOL    HW273104  13.189   2.986   5.043
57089SOL     OW73105   2.184  13.413   8.966
57089SOL    HW173106   2.215  13.471   9.036
57089SOL    HW273107   2.162  13.332   9.011
57090SOL     OW73108   9.555  10.873   2.577
57090SOL    HW173109   9.548  10.966   2.557
57090SOL    HW273110   9.570  10.870   2.672
57091SOL     OW73111   6.644  14.286  10.960
57091SOL    HW173112   6.571  14.335  10.998
57091SOL    HW273113   6.713  14.351  10.948
57092SOL     OW73114   6.431  14.213   8.211
57092SOL    HW173115   6.469  14.181   8.130
57092SOL    HW273116   6.443  14.142   8.274
57093SOL     OW73117  10.897  14.005  11.873
57093SOL    HW173118  10.886  13.934  11.936
57093SOL    HW273119  10.956  14.067  11.917
57094SOL     OW73120   9.647   9.854   7.149
57094SOL    HW173121   9.698   9.804   7.085
57094SOL    HW273122   9.713   9.895   7.205
57095SOL     OW73123  14.589   1.161  10.925
57095SOL    HW173124  14.499   1.127  10.920
57095SOL    HW273125  14.644   1.083  10.931
57096SOL     OW73126   8.228  10.401   7.481
57096SOL    HW173127   8.275  10.347   7.545
57096SOL    HW273128   8.233  10.352   7.400
57097SOL     OW73129   6.833   8.763   5.347
57097SOL    HW173130   6.894   8.720   5.407
57097SOL    HW273131   6.871   8.748   5.260
57098SOL     OW73132   4.209   8.751  11.676
57098SOL    HW173133   4.286   8.726  11.625
57098SOL    HW273134   4.224   8.844  11.698
57099SOL     OW73135  12.172   2.500  10.849
57099SOL    HW173136  12.206   2.556  10.780
57099SOL    HW273137  12.218   2.417  10.838
57100SOL     OW73138   4.041   6.354  11.243
57100SOL    HW173139   4.019   6.445  11.226
57100SOL    HW273140   4.038   6.312  11.156
57101SOL     OW73141   0.582  14.415   8.995
57101SOL    HW173142   0.593  14.344   9.058
57101SOL    HW273143   0.584  14.495   9.047
57102SOL     OW73144   9.025  12.165   2.280
57102SOL    HW173145   9.119  12.145   2.274
57102SOL    HW273146   9.019  12.234   2.346
57103SOL     OW73147   9.506   7.709  12.535
57103SOL    HW173148   9.587   7.659  12.528
57103SOL    HW273149   9.455   7.683  12.457
57104SOL     OW73150   1.942  12.896   3.011
57104SOL    HW173151   1.898  12.964   3.063
57104SOL    HW273152   1.983  12.839   3.077
57105SOL     OW73153   7.085   7.645   8.597
57105SOL    HW173154   7.171   7.603   8.592
57105SOL    HW273155   7.046   7.631   8.511
57106SOL     OW73156   7.464   7.937   7.375
57106SOL    HW173157   7.450   7.900   7.462
57106SOL    HW273158   7.465   7.861   7.317
57107SOL     OW73159  10.173   0.371  10.483
57107SOL    HW173160  10.225   0.416  10.417
57107SOL    HW273161  10.233   0.307  10.521
57108SOL     OW73162   5.487   2.829  14.568
57108SOL    HW173163   5.576   2.793  14.568
57108SOL    HW273164   5.432   2.755  14.593
57109SOL     OW73165   7.202  13.401   2.357
57109SOL    HW173166   7.297  13.408   2.359
57109SOL    HW273167   7.185  13.314   2.322
57110SOL     OW73168  13.087  11.638  12.671
57110SOL    HW173169  13.077  11.609  12.762
57110SOL    HW273170  13.164  11.592  12.640
57111SOL     OW73171   5.704   6.341   7.881
57111SOL    HW173172   5.617   6.343   7.842
57111SOL    HW273173   5.760   6.303   7.814
57112SOL     OW73174   5.809   4.270   4.080
57112SOL    HW173175   5.896   4.231   4.073
57112SOL    HW273176   5.819   4.341   4.142
57113SOL     OW73177   1.003   7.772  13.761
57113SOL    HW173178   0.997   7.683  13.725
57113SOL    HW273179   0.959   7.827  13.696
57114SOL     OW73180  14.684  11.262  13.392
57114SOL    HW173181  14.739  11.194  13.432
57114SOL    HW273182  14.718  11.271  13.303
57115SOL     OW73183   3.205   7.725   8.240
57115SOL    HW173184   3.168   7.705   8.326
57115SOL    HW273185   3.270   7.793   8.257
57116SOL     OW73186   7.183   2.211  12.457
57116SOL    HW173187   7.162   2.156  12.532
57116SOL    HW273188   7.098   2.230  12.416
57117SOL     OW73189   8.664  12.471   0.309
57117SOL    HW173190   8.755  12.488   0.284
57117SOL    HW273191   8.667  12.386   0.354
57118SOL     OW73192   5.179   2.962   8.554
57118SOL    HW173193   5.200   2.894   8.490
57118SOL    HW273194   5.255   3.020   8.554
57119SOL     OW73195   7.472   5.555   8.323
57119SOL    HW173196   7.376   5.549   8.330
57119SOL    HW273197   7.486   5.610   8.246
57120SOL     OW73198  12.923  12.744   6.936
57120SOL    HW173199  12.969  12.664   6.913
57120SOL    HW273200  12.973  12.814   6.894
57121SOL     OW73201   9.222   7.604   7.909
57121SOL    HW173202   9.167   7.681   7.916
57121SOL    HW273203   9.289   7.616   7.977
57122SOL     OW73204   5.889   6.067   7.986
57122SOL    HW173205   5.971   6.048   7.941
57122SOL    HW273206   5.910   6.141   8.044
57123SOL     OW73207   1.441   1.385   6.698
57123SOL    HW173208   1.405   1.465   6.738
57123SOL    HW273209   1.471   1.413   6.612
57124SOL     OW73210  13.108   8.944   3.442
57124SOL    HW173211  13.166   9.017   3.422
57124SOL    HW273212  13.167   8.870   3.457
57125SOL     OW73213  12.294   0.700   3.865
57125SOL    HW173214  12.357   0.641   3.823
57125SOL    HW273215  12.331   0.787   3.854
57126SOL     OW73216  12.923  13.837   8.628
57126SOL    HW173217  12.973  13.876   8.700
57126SOL    HW273218  12.888  13.756   8.664
57127SOL     OW73219   9.134   1.170   8.898
57127SOL    HW173220   9.097   1.148   8.983
57127SOL    HW273221   9.077   1.238   8.863
57128SOL     OW73222  13.181   6.759   5.624
57128SOL    HW173223  13.239   6.694   5.663
57128SOL    HW273224  13.170   6.730   5.534
57129SOL     OW73225  10.297   1.023   4.817
57129SOL    HW173226  10.341   1.095   4.772
57129SOL    HW273227  10.291   0.954   4.751
57130SOL     OW73228  12.182   1.903  13.908
57130SOL    HW173229  12.155   1.861  13.989
57130SOL    HW273230  12.189   1.832  13.844
57131SOL     OW73231   2.445  13.083   9.558
57131SOL    HW173232   2.379  13.086   9.627
57131SOL    HW273233   2.407  13.028   9.490
57132SOL     OW73234   1.090   0.847   4.225
57132SOL    HW173235   1.016   0.855   4.285
57132SOL    HW273236   1.061   0.891   4.145
57133SOL     OW73237   3.461  12.652   9.713
57133SOL    HW173238   3.492  12.580   9.768
57133SOL    HW273239   3.409  12.706   9.771
57134SOL     OW73240   1.989  10.073  11.959
57134SOL    HW173241   1.956  10.100  12.045
57134SOL    HW273242   1.990  10.153  11.907
57135SOL     OW73243  14.286   8.135   9.482
57135SOL    HW173244  14.246   8.221   9.465
57135SOL    HW273245  14.240   8.075   9.423
57136SOL     OW73246   3.184   4.340   8.155
57136SOL    HW173247   3.112   4.282   8.130
57136SOL    HW273248   3.218   4.373   8.073
57137SOL     OW73249   4.880   5.100   5.233
57137SOL    HW173250   4.867   5.083   5.140
57137SOL    HW273251   4.943   5.035   5.262
57138SOL     OW73252   7.508   9.426  13.019
57138SOL    HW173253   7.425   9.439  12.973
57138SOL    HW273254   7.487   9.446  13.110
57139SOL     OW73255   1.296   8.142  10.586
57139SOL    HW173256   1.211   8.116  10.551
57139SOL    HW273257   1.287   8.132  10.681
57140SOL     OW73258   9.472   9.977  14.584
57140SOL    HW173259   9.509   9.915  14.521
57140SOL    HW273260   9.545  10.035  14.606
57141SOL     OW73261   1.425   6.085   7.562
57141SOL    HW173262   1.385   6.139   7.494
57141SOL    HW273263   1.504   6.050   7.520
57142SOL     OW73264   8.170   6.457   4.191
57142SOL    HW173265   8.082   6.420   4.181
57142SOL    HW273266   8.158   6.534   4.247
57143SOL     OW73267   2.793   8.969   9.988
57143SOL    HW173268   2.784   8.881  10.026
57143SOL    HW273269   2.714   8.979   9.934
57144SOL     OW73270   0.455  10.556   0.405
57144SOL    HW173271   0.532  10.612   0.413
57144SOL    HW273272   0.455  10.528   0.314
57145SOL     OW73273   6.875   5.235  12.207
57145SOL    HW173274   6.871   5.331  12.201
57145SOL    HW273275   6.789   5.210  12.241
57146SOL     OW73276   9.810   2.895   1.901
57146SOL    HW173277   9.899   2.870   1.876
57146SOL    HW273278   9.821   2.944   1.983
57147SOL     OW73279   8.885   9.669   6.054
57147SOL    HW173280   8.842   9.679   6.139
57147SOL    HW273281   8.945   9.595   6.066
57148SOL     OW73282   1.418   2.623   0.986
57148SOL    HW173283   1.367   2.702   1.004
57148SOL    HW273284   1.487   2.624   1.053
57149SOL     OW73285   7.012   2.215  11.500
57149SOL    HW173286   6.917   2.204  11.499
57149SOL    HW273287   7.044   2.139  11.550
57150SOL     OW73288  11.791  14.796  11.781
57150SOL    HW173289  11.749   0.008  11.791
57150SOL    HW273290  11.880  14.816  11.751
57151SOL     OW73291   9.340  12.043   2.670
57151SOL    HW173292   9.389  12.121   2.644
57151SOL    HW273293   9.254  12.077   2.697
57152SOL     OW73294   5.185   0.915  14.509
57152SOL    HW173295   5.277   0.892  14.498
57152SOL    HW273296   5.163   0.967  14.432
57153SOL     OW73297  14.353   9.856   8.445
57153SOL    HW173298  14.273   9.808   8.428
57153SOL    HW273299  14.328   9.922   8.509
57154SOL     OW73300  10.836  13.794   4.127
57154SOL    HW173301  10.918  13.746   4.140
57154SOL    HW273302  10.837  13.819   4.035
57155SOL     OW73303   9.817   5.370   0.590
57155SOL    HW173304   9.741   5.393   0.536
57155SOL    HW273305   9.846   5.286   0.556
57156SOL     OW73306  11.470   3.399   7.519
57156SOL    HW173307  11.469   3.314   7.476
57156SOL    HW273308  11.405   3.392   7.589
57157SOL     OW73309   0.076   8.376   4.820
57157SOL    HW173310   0.115   8.332   4.744
57157SOL    HW273311   0.144   8.436   4.850
57158SOL     OW73312   2.077  12.494   3.567
57158SOL    HW173313   2.117  12.574   3.534
57158SOL    HW273314   2.118  12.424   3.517
57159SOL     OW73315  10.504   2.354   4.466
57159SOL    HW173316  10.562   2.394   4.531
57159SOL    HW273317  10.541   2.267   4.451
57160SOL     OW73318  11.188  14.680  10.961
57160SOL    HW173319  11.156  14.602  10.915
57160SOL    HW273320  11.278  14.689  10.932
57161SOL     OW73321  12.306   3.338   2.363
57161SOL    HW173322  12.269   3.358   2.277
57161SOL    HW273323  12.256   3.263   2.395
57162SOL     OW73324   0.901  13.827   0.892
57162SOL    HW173325   0.960  13.890   0.933
57162SOL    HW273326   0.836  13.807   0.960
57163SOL     OW73327   7.192  14.819   1.419
57163SOL    HW173328   7.217   0.023   1.369
57163SOL    HW273329   7.219  14.745   1.365
57164SOL     OW73330   4.939  14.676   8.629
57164SOL    HW173331   4.912  14.597   8.583
57164SOL    HW273332   5.015  14.649   8.681
57165SOL     OW73333   6.484   5.062   8.011
57165SOL    HW173334   6.431   4.996   8.056
57165SOL    HW273335   6.559   5.077   8.069
57166SOL     OW73336   6.804  11.202   9.897
57166SOL    HW173337   6.759  11.143   9.837
57166SOL    HW273338   6.775  11.173   9.984
57167SOL     OW73339   2.862   8.698   5.280
57167SOL    HW173340   2.862   8.630   5.347
57167SOL    HW273341   2.935   8.755   5.304
57168SOL     OW73342   5.395   3.228  11.792
57168SOL    HW173343   5.327   3.238  11.858
57168SOL    HW273344   5.478   3.229  11.841
57169SOL     OW73345   3.795   8.695  11.676
57169SOL    HW173346   3.722   8.655  11.723
57169SOL    HW273347   3.859   8.715  11.745
57170SOL     OW73348   2.482  13.116   2.203
57170SOL    HW173349   2.446  13.201   2.177
57170SOL    HW273350   2.406  13.063   2.224
57171SOL     OW73351   2.879   0.862   0.680
57171SOL    HW173352   2.953   0.909   0.642
57171SOL    HW273353   2.905   0.770   0.677
57172SOL     OW73354  12.669   0.363   2.220
57172SOL    HW173355  12.694   0.446   2.262
57172SOL    HW273356  12.642   0.307   2.293
57173SOL     OW73357  14.743  11.341  11.879
57173SOL    HW173358  14.754  11.425  11.924
57173SOL    HW273359  14.786  11.354  11.794
57174SOL     OW73360   3.131  14.724   9.692
57174SOL    HW173361   3.208  14.763   9.652
57174SOL    HW273362   3.132  14.633   9.663
57175SOL     OW73363   7.905   5.218   4.043
57175SOL    HW173364   7.835   5.171   3.997
57175SOL    HW273365   7.918   5.297   3.991
57176SOL     OW73366   4.167   3.526   4.259
57176SOL    HW173367   4.203   3.537   4.347
57176SOL    HW273368   4.191   3.436   4.235
57177SOL     OW73369   0.279   0.438   2.508
57177SOL    HW173370   0.350   0.389   2.467
57177SOL    HW273371   0.270   0.517   2.455
57178SOL     OW73372   2.995   4.164   8.125
57178SOL    HW173373   2.972   4.092   8.184
57178SOL    HW273374   3.045   4.122   8.054
57179SOL     OW73375  12.269  11.641   1.699
57179SOL    HW173376  12.272  11.605   1.611
57179SOL    HW273377  12.181  11.679   1.707
57180SOL     OW73378   6.853   3.733   0.020
57180SOL    HW173379   6.809   3.777  14.821
57180SOL    HW273380   6.939   3.709  14.858
57181SOL     OW73381  13.432   2.830   4.302
57181SOL    HW173382  13.469   2.753   4.259
57181SOL    HW273383  13.507   2.873   4.343
57182SOL     OW73384   2.781   5.783   2.059
57182SOL    HW173385   2.827   5.755   1.980
57182SOL    HW273386   2.713   5.843   2.028
57183SOL     OW73387   3.476   3.391  13.592
57183SOL    HW173388   3.438   3.315  13.637
57183SOL    HW273389   3.496   3.358  13.504
57184SOL     OW73390  13.846   4.325   7.147
57184SOL    HW173391  13.886   4.247   7.108
57184SOL    HW273392  13.895   4.339   7.227
57185SOL     OW73393   6.975  10.733  14.167
57185SOL    HW173394   7.028  10.653  14.169
57185SOL    HW273395   7.023  10.795  14.222
57186SOL     OW73396   3.697  14.124   0.014
57186SOL    HW173397   3.628  14.160   0.069
57186SOL    HW273398   3.776  14.129   0.067
57187SOL     OW73399   2.198   7.367   6.944
57187SOL    HW173400   2.103   7.372   6.937
57187SOL    HW273401   2.223   7.452   6.981
57188SOL     OW73402   6.535   7.650  10.443
57188SOL    HW173403   6.522   7.716  10.376
57188SOL    HW273404   6.488   7.683  10.520
57189SOL     OW73405  10.421  12.408   1.697
57189SOL    HW173406  10.476  12.416   1.619
57189SOL    HW273407  10.373  12.490   1.701
57190SOL     OW73408  12.704  13.913   2.013
57190SOL    HW173409  12.707  13.980   2.082
57190SOL    HW273410  12.616  13.923   1.975
57191SOL     OW73411   6.176   6.586  10.263
57191SOL    HW173412   6.145   6.502  10.299
57191SOL    HW273413   6.247   6.561  10.204
57192SOL     OW73414  11.091   3.685  11.679
57192SOL    HW173415  11.103   3.692  11.584
57192SOL    HW273416  11.176   3.658  11.712
57193SOL     OW73417   2.769  14.189   0.252
57193SOL    HW173418   2.827  14.113   0.257
57193SOL    HW273419   2.721  14.178   0.170
57194SOL     OW73420  10.482   3.278  10.089
57194SOL    HW173421  10.421   3.303  10.158
57194SOL    HW273422  10.437   3.209  10.040
57195SOL     OW73423   3.018   5.644  12.392
57195SOL    HW173424   3.059   5.657  12.478
57195SOL    HW273425   2.932   5.685  12.399
57196SOL     OW73426  10.951   7.581  11.006
57196SOL    HW173427  11.019   7.579  11.074
57196SOL    HW273428  10.869   7.571  11.054
57197SOL     OW73429   1.992  12.732   7.228
57197SOL    HW173430   1.935  12.712   7.302
57197SOL    HW273431   1.989  12.827   7.221
57198SOL     OW73432   0.092   8.039   3.561
57198SOL    HW173433   0.002   8.059   3.536
57198SOL    HW273434   0.114   7.961   3.510
57199SOL     OW73435   2.133  14.822  12.395
57199SOL    HW173436   2.206  14.815  12.334
57199SOL    HW273437   2.129  14.737  12.438
57200SOL     OW73438  13.721  10.743   3.911
57200SOL    HW173439  13.747  10.661   3.952
57200SOL    HW273440  13.652  10.778   3.967
57201SOL     OW73441   5.224  10.728   4.646
57201SOL    HW173442   5.226  10.674   4.568
57201SOL    HW273443   5.265  10.674   4.714
57202SOL     OW73444  13.010   5.362   2.716
57202SOL    HW173445  12.990   5.454   2.733
57202SOL    HW273446  13.100   5.351   2.748
57203SOL     OW73447   5.764   0.739   7.907
57203SOL    HW173448   5.679   0.764   7.872
57203SOL    HW273449   5.827   0.772   7.843
57204SOL     OW73450   4.802   5.042  12.876
57204SOL    HW173451   4.793   5.031  12.781
57204SOL    HW273452   4.768   4.961  12.913
57205SOL     OW73453  14.829  12.304   6.706
57205SOL    HW173454   0.016  12.342   6.642
57205SOL    HW273455  14.778  12.240   6.656
57206SOL     OW73456   0.839  12.872   0.959
57206SOL    HW173457   0.931  12.888   0.937
57206SOL    HW273458   0.835  12.882   1.054
57207SOL     OW73459   7.921   9.666   5.154
57207SOL    HW173460   7.864   9.626   5.089
57207SOL    HW273461   7.897   9.758   5.154
57208SOL     OW73462  14.432  10.031  13.268
57208SOL    HW173463  14.470  10.010  13.353
57208SOL    HW273464  14.416   9.946  13.227
57209SOL     OW73465  11.259  11.404   0.974
57209SOL    HW173466  11.353  11.423   0.969
57209SOL    HW273467  11.246  11.373   1.063
57210SOL     OW73468   2.067  10.965   2.646
57210SOL    HW173469   2.003  10.906   2.688
57210SOL    HW273470   2.126  10.906   2.600
57211SOL     OW73471   1.017   0.056  13.422
57211SOL    HW173472   0.946   0.111  13.390
57211SOL    HW273473   1.007  14.847  13.373
57212SOL     OW73474   3.937   8.487   2.930
57212SOL    HW173475   3.928   8.579   2.954
57212SOL    HW273476   3.849   8.451   2.941
57213SOL     OW73477   9.331   6.787   1.555
57213SOL    HW173478   9.274   6.710   1.557
57213SOL    HW273479   9.413   6.756   1.594
57214SOL     OW73480   0.277   4.570   9.499
57214SOL    HW173481   0.203   4.510   9.491
57214SOL    HW273482   0.241   4.655   9.473
57215SOL     OW73483   2.769   9.893   4.936
57215SOL    HW173484   2.825   9.895   5.014
57215SOL    HW273485   2.705   9.825   4.954
57216SOL     OW73486   5.671   9.918  13.947
57216SOL    HW173487   5.615   9.968  14.006
57216SOL    HW273488   5.610   9.868  13.894
57217SOL     OW73489   2.388   3.150  11.151
57217SOL    HW173490   2.393   3.130  11.057
57217SOL    HW273491   2.303   3.115  11.178
57218SOL     OW73492  11.968   9.916   1.971
57218SOL    HW173493  11.937   9.962   2.049
57218SOL    HW273494  12.032   9.854   2.004
57219SOL     OW73495  12.862   4.270  14.569
57219SOL    HW173496  12.776   4.248  14.606
57219SOL    HW273497  12.925   4.244  14.637
57220SOL     OW73498   2.951  11.545   9.254
57220SOL    HW173499   2.932  11.636   9.274
57220SOL    HW273500   2.930  11.536   9.161
57221SOL     OW73501   0.696  13.206  10.175
57221SOL    HW173502   0.748  13.194  10.254
57221SOL    HW273503   0.605  13.200  10.205
57222SOL     OW73504   1.640   4.001   4.299
57222SOL    HW173505   1.709   4.009   4.233
57222SOL    HW273506   1.575   3.943   4.258
57223SOL     OW73507   5.515  11.519   6.358
57223SOL    HW173508   5.536  11.611   6.373
57223SOL    HW273509   5.422  11.519   6.332
57224SOL     OW73510   2.889   5.643  11.592
57224SOL    HW173511   2.957   5.693  11.548
57224SOL    HW273512   2.935   5.592  11.659
57225SOL     OW73513   7.297  13.484   1.276
57225SOL    HW173514   7.381  13.475   1.321
57225SOL    HW273515   7.291  13.406   1.221
57226SOL     OW73516   1.720  12.085  12.242
57226SOL    HW173517   1.703  11.993  12.220
57226SOL    HW273518   1.650  12.133  12.198
57227SOL     OW73519   3.963   6.897   8.189
57227SOL    HW173520   3.919   6.869   8.109
57227SOL    HW273521   4.053   6.866   8.179
57228SOL     OW73522  10.783  13.906   2.019
57228SOL    HW173523  10.807  13.815   2.004
57228SOL    HW273524  10.848  13.956   1.969
57229SOL     OW73525   9.628  11.369  13.646
57229SOL    HW173526   9.646  11.418  13.566
57229SOL    HW273527   9.713  11.334  13.673
57230SOL     OW73528  12.906  14.213   9.720
57230SOL    HW173529  12.903  14.260   9.637
57230SOL    HW273530  12.855  14.268   9.780
57231SOL     OW73531   2.897  10.424   6.535
57231SOL    HW173532   2.885  10.504   6.484
57231SOL    HW273533   2.853  10.442   6.618
57232SOL     OW73534  12.726   3.915   7.504
57232SOL    HW173535  12.779   3.914   7.425
57232SOL    HW273536  12.778   3.867   7.569
57233SOL     OW73537   3.479  11.867   5.955
57233SOL    HW173538   3.558  11.895   5.909
57233SOL    HW273539   3.486  11.772   5.960
57234SOL     OW73540   8.380   5.604   3.329
57234SOL    HW173541   8.400   5.550   3.252
57234SOL    HW273542   8.440   5.571   3.397
57235SOL     OW73543   2.107   7.553   0.287
57235SOL    HW173544   2.043   7.624   0.285
57235SOL    HW273545   2.066   7.483   0.237
57236SOL     OW73546   3.911  10.681   7.140
57236SOL    HW173547   3.952  10.642   7.217
57236SOL    HW273548   3.818  10.687   7.162
57237SOL     OW73549  10.820  13.192   5.945
57237SOL    HW173550  10.861  13.106   5.956
57237SOL    HW273551  10.726  13.173   5.944
57238SOL     OW73552   7.256  10.725   1.868
57238SOL    HW173553   7.225  10.668   1.797
57238SOL    HW273554   7.258  10.669   1.945
57239SOL     OW73555   6.080   1.790   2.208
57239SOL    HW173556   6.050   1.699   2.206
57239SOL    HW273557   6.038   1.827   2.285
57240SOL     OW73558   9.341   8.914   0.066
57240SOL    HW173559   9.411   8.851   0.085
57240SOL    HW273560   9.341   8.973   0.141
57241SOL     OW73561   1.032  13.616   2.392
57241SOL    HW173562   1.072  13.549   2.337
57241SOL    HW273563   1.078  13.608   2.476
57242SOL     OW73564   5.652  10.583   2.538
57242SOL    HW173565   5.742  10.555   2.520
57242SOL    HW273566   5.602  10.501   2.543
57243SOL     OW73567   6.637   8.470  11.569
57243SOL    HW173568   6.617   8.399  11.508
57243SOL    HW273569   6.684   8.534  11.516
57244SOL     OW73570  11.815   1.644  12.461
57244SOL    HW173571  11.876   1.696  12.513
57244SOL    HW273572  11.743   1.624  12.521
57245SOL     OW73573   7.619   1.600   0.316
57245SOL    HW173574   7.529   1.588   0.285
57245SOL    HW273575   7.622   1.553   0.399
57246SOL     OW73576  10.215  13.382   9.679
57246SOL    HW173577  10.216  13.450   9.747
57246SOL    HW273578  10.167  13.422   9.607
57247SOL     OW73579   2.232   4.468   2.021
57247SOL    HW173580   2.217   4.562   2.029
57247SOL    HW273581   2.170   4.429   2.082
57248SOL     OW73582   1.892   8.511   9.069
57248SOL    HW173583   1.851   8.528   8.984
57248SOL    HW273584   1.823   8.471   9.122
57249SOL     OW73585  13.580  12.064  11.101
57249SOL    HW173586  13.587  11.978  11.061
57249SOL    HW273587  13.640  12.120  11.051
57250SOL     OW73588   9.604   2.402   6.169
57250SOL    HW173589   9.571   2.389   6.080
57250SOL    HW273590   9.525   2.418   6.222
57251SOL     OW73591   4.717   7.166  13.318
57251SOL    HW173592   4.756   7.210  13.393
57251SOL    HW273593   4.660   7.098  13.356
57252SOL     OW73594   2.340   4.038   3.169
57252SOL    HW173595   2.365   3.949   3.145
57252SOL    HW273596   2.306   4.077   3.088
57253SOL     OW73597   8.049   3.782   5.804
57253SOL    HW173598   8.024   3.774   5.712
57253SOL    HW273599   8.141   3.757   5.807
57254SOL     OW73600   4.748   9.453  11.086
57254SOL    HW173601   4.690   9.382  11.058
57254SOL    HW273602   4.733   9.460  11.181
57255SOL     OW73603  13.927  10.254   2.663
57255SOL    HW173604  13.963  10.199   2.733
57255SOL    HW273605  13.871  10.196   2.612
57256SOL     OW73606  10.057  13.144   2.745
57256SOL    HW173607  10.071  13.237   2.725
57256SOL    HW273608  10.037  13.142   2.838
57257SOL     OW73609   5.429  10.226   9.512
57257SOL    HW173610   5.498  10.179   9.464
57257SOL    HW273611   5.348  10.190   9.478
57258SOL     OW73612   6.377  14.765   0.592
57258SOL    HW173613   6.324  14.845   0.586
57258SOL    HW273614   6.459  14.794   0.632
57259SOL     OW73615   5.422   3.971   4.482
57259SOL    HW173616   5.376   4.018   4.412
57259SOL    HW273617   5.423   4.033   4.555
57260SOL     OW73618   4.543   3.064  14.761
57260SOL    HW173619   4.564   3.082  14.670
57260SOL    HW273620   4.474   3.126  14.783
57261SOL     OW73621   4.027   8.288   0.187
57261SOL    HW173622   3.971   8.365   0.175
57261SOL    HW273623   4.043   8.256   0.098
57262SOL     OW73624  13.371  11.962   5.913
57262SOL    HW173625  13.429  11.916   5.973
57262SOL    HW273626  13.290  11.975   5.963
57263SOL     OW73627   7.348   6.744   7.479
57263SOL    HW173628   7.283   6.726   7.548
57263SOL    HW273629   7.296   6.749   7.399
57264SOL     OW73630  13.724   5.281   2.751
57264SOL    HW173631  13.667   5.334   2.695
57264SOL    HW273632  13.664   5.223   2.798
57265SOL     OW73633   3.359   0.397  10.077
57265SOL    HW173634   3.439   0.366  10.035
57265SOL    HW273635   3.378   0.395  10.170
57266SOL     OW73636  11.267   3.404   8.561
57266SOL    HW173637  11.281   3.453   8.480
57266SOL    HW273638  11.355   3.380   8.590
57267SOL     OW73639   3.703   9.265   7.170
57267SOL    HW173640   3.619   9.271   7.125
57267SOL    HW273641   3.722   9.354   7.200
57268SOL     OW73642  14.153   6.881   4.812
57268SOL    HW173643  14.177   6.939   4.883
57268SOL    HW273644  14.081   6.926   4.767
57269SOL     OW73645  11.828  14.311   9.574
57269SOL    HW173646  11.766  14.278   9.639
57269SOL    HW273647  11.904  14.254   9.583
57270SOL     OW73648   1.526   7.502   2.623
57270SOL    HW173649   1.503   7.439   2.554
57270SOL    HW273650   1.529   7.586   2.578
57271SOL     OW73651   3.235   3.302   5.481
57271SOL    HW173652   3.220   3.246   5.404
57271SOL    HW273653   3.197   3.253   5.554
57272SOL     OW73654  10.858  10.847  10.186
57272SOL    HW173655  10.857  10.892  10.271
57272SOL    HW273656  10.940  10.799  10.185
57273SOL     OW73657   7.498   5.254   3.499
57273SOL    HW173658   7.412   5.232   3.535
57273SOL    HW273659   7.486   5.245   3.404
57274SOL     OW73660   4.267  10.233   7.470
57274SOL    HW173661   4.354  10.195   7.459
57274SOL    HW273662   4.223  10.218   7.387
57275SOL     OW73663  14.644  14.133   5.459
57275SOL    HW173664  14.579  14.141   5.389
57275SOL    HW273665  14.594  14.145   5.540
57276SOL     OW73666  13.281   6.272   7.241
57276SOL    HW173667  13.206   6.213   7.253
57276SOL    HW273668  13.349   6.235   7.297
57277SOL     OW73669   7.723  13.281   2.296
57277SOL    HW173670   7.701  13.218   2.365
57277SOL    HW273671   7.733  13.227   2.217
57278SOL     OW73672   9.840  11.213  12.651
57278SOL    HW173673   9.852  11.308  12.646
57278SOL    HW273674   9.876  11.180  12.568
57279SOL     OW73675  12.427   3.976   3.763
57279SOL    HW173676  12.478   4.036   3.818
57279SOL    HW273677  12.486   3.904   3.745
57280SOL     OW73678   1.080   7.864   2.847
57280SOL    HW173679   1.061   7.851   2.940
57280SOL    HW273680   1.144   7.795   2.826
57281SOL     OW73681   1.835  14.174  14.004
57281SOL    HW173682   1.929  14.161  13.991
57281SOL    HW273683   1.797  14.087  13.993
57282SOL     OW73684   5.116   2.459  12.008
57282SOL    HW173685   5.140   2.380  12.056
57282SOL    HW273686   5.173   2.527  12.043
57283SOL     OW73687   1.441  14.462   0.674
57283SOL    HW173688   1.387  14.428   0.745
57283SOL    HW273689   1.434  14.557   0.682
57284SOL     OW73690   3.303   2.578  14.129
57284SOL    HW173691   3.351   2.571  14.047
57284SOL    HW273692   3.211   2.568  14.104
57285SOL     OW73693  13.178   4.664   0.722
57285SOL    HW173694  13.251   4.694   0.775
57285SOL    HW273695  13.141   4.743   0.683
57286SOL     OW73696   6.855   4.264   9.052
57286SOL    HW173697   6.815   4.279   9.138
57286SOL    HW273698   6.937   4.218   9.071
57287SOL     OW73699   5.192  13.262  11.672
57287SOL    HW173700   5.126  13.207  11.714
57287SOL    HW273701   5.217  13.213  11.594
57288SOL     OW73702  13.932   5.992  10.086
57288SOL    HW173703  13.897   6.055  10.149
57288SOL    HW273704  14.025   6.015  10.079
57289SOL     OW73705   4.559   6.974  13.483
57289SOL    HW173706   4.472   6.940  13.505
57289SOL    HW273707   4.615   6.945  13.556
57290SOL     OW73708   0.474  13.585   6.858
57290SOL    HW173709   0.527  13.568   6.935
57290SOL    HW273710   0.536  13.582   6.785
57291SOL     OW73711   1.293   5.728   0.043
57291SOL    HW173712   1.198   5.734   0.039
57291SOL    HW273713   1.321   5.733  14.825
57292SOL     OW73714   9.183   2.158   3.049
57292SOL    HW173715   9.097   2.141   3.086
57292SOL    HW273716   9.182   2.252   3.028
57293SOL     OW73717   0.212   0.759   5.562
57293SOL    HW173718   0.203   0.834   5.620
57293SOL    HW273719   0.198   0.794   5.474
57294SOL     OW73720   5.058   5.361  13.070
57294SOL    HW173721   4.978   5.346  13.121
57294SOL    HW273722   5.032   5.424  13.003
57295SOL     OW73723   2.396   4.671  10.150
57295SOL    HW173724   2.330   4.632  10.093
57295SOL    HW273725   2.404   4.761  10.119
57296SOL     OW73726   4.438  14.370   0.239
57296SOL    HW173727   4.393  14.333   0.315
57296SOL    HW273728   4.481  14.296   0.197
57297SOL     OW73729   9.570   0.120   4.115
57297SOL    HW173730   9.482   0.082   4.113
57297SOL    HW273731   9.557   0.210   4.145
57298SOL     OW73732   5.610  14.597   3.227
57298SOL    HW173733   5.694  14.571   3.263
57298SOL    HW273734   5.611  14.693   3.229
57299SOL     OW73735   1.532   7.457   7.903
57299SOL    HW173736   1.444   7.418   7.906
57299SOL    HW273737   1.565   7.449   7.992
57300SOL     OW73738   5.472   4.642  12.414
57300SOL    HW173739   5.434   4.713  12.361
57300SOL    HW273740   5.397   4.587  12.437
57301SOL     OW73741  12.201  10.878   0.669
57301SOL    HW173742  12.156  10.794   0.678
57301SOL    HW273743  12.172  10.929   0.744
57302SOL     OW73744  13.860   2.481  14.465
57302SOL    HW173745  13.861   2.404  14.408
57302SOL    HW273746  13.950   2.488  14.498
57303SOL     OW73747   4.145   7.860  14.786
57303SOL    HW173748   4.179   7.770  14.778
57303SOL    HW273749   4.139   7.875   0.007
57304SOL     OW73750   8.949   6.222   0.118
57304SOL    HW173751   8.925   6.310   0.091
57304SOL    HW273752   8.967   6.230   0.212
57305SOL     OW73753   3.075   7.302   5.310
57305SOL    HW173754   3.126   7.383   5.306
57305SOL    HW273755   3.059   7.288   5.403
57306SOL     OW73756   8.068   1.932   7.841
57306SOL    HW173757   8.099   1.841   7.837
57306SOL    HW273758   8.143   1.984   7.814
57307SOL     OW73759  13.314  14.689  11.796
57307SOL    HW173760  13.255  14.615  11.783
57307SOL    HW273761  13.355  14.702  11.710
57308SOL     OW73762   9.147   4.327  11.249
57308SOL    HW173763   9.086   4.393  11.214
57308SOL    HW273764   9.226   4.377  11.269
57309SOL     OW73765  10.663   7.935  12.262
57309SOL    HW173766  10.622   7.854  12.292
57309SOL    HW273767  10.601   8.003  12.287
57310SOL     OW73768   8.408   9.851   0.388
57310SOL    HW173769   8.361   9.812   0.315
57310SOL    HW273770   8.500   9.831   0.371
57311SOL     OW73771   0.642   0.873  13.055
57311SOL    HW173772   0.566   0.849  13.002
57311SOL    HW273773   0.717   0.850  13.000
57312SOL     OW73774  11.783   5.651   4.394
57312SOL    HW173775  11.797   5.705   4.472
57312SOL    HW273776  11.858   5.592   4.392
57313SOL     OW73777  13.424   2.701   9.793
57313SOL    HW173778  13.425   2.612   9.756
57313SOL    HW273779  13.489   2.749   9.742
57314SOL     OW73780  13.173  11.857  12.023
57314SOL    HW173781  13.079  11.862  12.011
57314SOL    HW273782  13.198  11.943  12.058
57315SOL     OW73783   9.442  10.032   4.427
57315SOL    HW173784   9.381  10.024   4.355
57315SOL    HW273785   9.437   9.947   4.473
57316SOL     OW73786  14.452   9.108   8.255
57316SOL    HW173787  14.415   9.115   8.167
57316SOL    HW273788  14.525   9.046   8.245
57317SOL     OW73789   9.765   3.477   3.781
57317SOL    HW173790   9.785   3.420   3.707
57317SOL    HW273791   9.727   3.555   3.741
57318SOL     OW73792   5.113   7.711  10.021
57318SOL    HW173793   5.097   7.645  10.088
57318SOL    HW273794   5.148   7.661   9.947
57319SOL     OW73795  14.668  13.675   2.144
57319SOL    HW173796  14.690  13.586   2.117
57319SOL    HW273797  14.605  13.706   2.079
57320SOL     OW73798   1.540   5.058   7.559
57320SOL    HW173799   1.517   5.132   7.616
57320SOL    HW273800   1.628   5.078   7.528
57321SOL     OW73801   8.608   0.061   6.280
57321SOL    HW173802   8.681   0.011   6.243
57321SOL    HW273803   8.642   0.095   6.362
57322SOL     OW73804   2.616   2.952   0.270
57322SOL    HW173805   2.609   3.047   0.256
57322SOL    HW273806   2.709   2.938   0.291
57323SOL     OW73807   2.713  13.380   1.902
57323SOL    HW173808   2.688  13.471   1.914
57323SOL    HW273809   2.746  13.353   1.988
57324SOL     OW73810   5.306   6.591   0.004
57324SOL    HW173811   5.307   6.619  14.786
57324SOL    HW273812   5.398   6.578   0.026
57325SOL     OW73813   2.115   9.008  10.624
57325SOL    HW173814   2.091   9.038  10.711
57325SOL    HW273815   2.203   8.970  10.635
57326SOL     OW73816  10.665   7.553  11.741
57326SOL    HW173817  10.705   7.635  11.767
57326SOL    HW273818  10.577   7.556  11.777
57327SOL     OW73819  11.280   7.889   0.132
57327SOL    HW173820  11.338   7.855   0.064
57327SOL    HW273821  11.198   7.906   0.086
57328SOL     OW73822  13.971  12.339  13.097
57328SOL    HW173823  14.058  12.378  13.089
57328SOL    HW273824  13.958  12.291  13.016
57329SOL     OW73825   5.429   2.576   2.313
57329SOL    HW173826   5.336   2.594   2.298
57329SOL    HW273827   5.436   2.559   2.407
57330SOL     OW73828   1.495   7.304   3.834
57330SOL    HW173829   1.448   7.330   3.754
57330SOL    HW273830   1.464   7.366   3.901
57331SOL     OW73831   3.029  14.818   3.047
57331SOL    HW173832   3.072  14.781   2.970
57331SOL    HW273833   2.982   0.022   3.015
57332SOL     OW73834   2.250  10.421  10.180
57332SOL    HW173835   2.161  10.429  10.146
57332SOL    HW273836   2.254  10.332  10.216
57333SOL     OW73837  12.197   7.725  14.032
57333SOL    HW173838  12.143   7.779  13.975
57333SOL    HW273839  12.267   7.784  14.062
57334SOL     OW73840  11.895   1.455   5.645
57334SOL    HW173841  11.838   1.391   5.688
57334SOL    HW273842  11.945   1.494   5.717
57335SOL     OW73843  12.906  11.991   5.201
57335SOL    HW173844  12.929  12.017   5.111
57335SOL    HW273845  12.865  11.905   5.192
57336SOL     OW73846   6.806   1.274   7.502
57336SOL    HW173847   6.890   1.234   7.523
57336SOL    HW273848   6.823   1.368   7.501
57337SOL     OW73849  14.681   0.369   1.526
57337SOL    HW173850  14.592   0.371   1.491
57337SOL    HW273851  14.676   0.415   1.609
57338SOL     OW73852   9.589  11.919  13.399
57338SOL    HW173853   9.596  12.013  13.412
57338SOL    HW273854   9.505  11.906  13.356
57339SOL     OW73855  14.272   9.434  11.735
57339SOL    HW173856  14.239   9.435  11.645
57339SOL    HW273857  14.294   9.525  11.754
57340SOL     OW73858   4.091  10.952   4.369
57340SOL    HW173859   4.080  10.994   4.284
57340SOL    HW273860   4.058  10.863   4.357
57341SOL     OW73861   3.502   5.028   5.368
57341SOL    HW173862   3.434   5.049   5.432
57341SOL    HW273863   3.455   5.019   5.285
57342SOL     OW73864  13.449   9.272  13.878
57342SOL    HW173865  13.467   9.198  13.819
57342SOL    HW273866  13.533   9.314  13.891
57343SOL     OW73867   6.287  10.802  12.268
57343SOL    HW173868   6.382  10.812  12.275
57343SOL    HW273869   6.272  10.782  12.176
57344SOL     OW73870   3.171   8.749  13.496
57344SOL    HW173871   3.229   8.734  13.571
57344SOL    HW273872   3.215   8.706  13.423
57345SOL     OW73873   8.959   1.380   8.820
57345SOL    HW173874   8.966   1.474   8.831
57345SOL    HW273875   8.896   1.368   8.749
57346SOL     OW73876   1.457   8.108   8.126
57346SOL    HW173877   1.370   8.133   8.095
57346SOL    HW273878   1.517   8.141   8.059
57347SOL     OW73879   5.034   8.937  12.038
57347SOL    HW173880   5.054   8.908  12.127
57347SOL    HW273881   4.961   8.881  12.011
57348SOL     OW73882   5.503   5.158   2.999
57348SOL    HW173883   5.445   5.198   2.934
57348SOL    HW273884   5.443   5.112   3.058
57349SOL     OW73885   1.258   4.792  10.409
57349SOL    HW173886   1.244   4.760  10.320
57349SOL    HW273887   1.304   4.720  10.453
57350SOL     OW73888   5.022  11.851  14.644
57350SOL    HW173889   4.932  11.824  14.625
57350SOL    HW273890   5.045  11.911  14.573
57351SOL     OW73891   2.924   8.704   6.771
57351SOL    HW173892   2.992   8.637   6.761
57351SOL    HW273893   2.892   8.720   6.683
57352SOL     OW73894   6.854   5.283   5.881
57352SOL    HW173895   6.938   5.241   5.861
57352SOL    HW273896   6.788   5.222   5.847
57353SOL     OW73897   3.295  14.804   1.111
57353SOL    HW173898   3.229  14.746   1.072
57353SOL    HW273899   3.344  14.747   1.171
57354SOL     OW73900   6.737   9.992   2.648
57354SOL    HW173901   6.808   9.977   2.586
57354SOL    HW273902   6.677   9.918   2.634
57355SOL     OW73903   4.353   2.683  12.574
57355SOL    HW173904   4.356   2.594  12.538
57355SOL    HW273905   4.367   2.672  12.668
57356SOL     OW73906   4.517  11.715   1.452
57356SOL    HW173907   4.474  11.693   1.535
57356SOL    HW273908   4.603  11.673   1.458
57357SOL     OW73909  10.808  13.420   3.413
57357SOL    HW173910  10.890  13.441   3.457
57357SOL    HW273911  10.834  13.379   3.331
57358SOL     OW73912  11.300   0.800   9.741
57358SOL    HW173913  11.319   0.847   9.660
57358SOL    HW273914  11.301   0.868   9.809
57359SOL     OW73915   0.216   7.029   8.990
57359SOL    HW173916   0.235   6.936   8.973
57359SOL    HW273917   0.201   7.033   9.085
57360SOL     OW73918  14.593  14.744   1.924
57360SOL    HW173919  14.677  14.742   1.878
57360SOL    HW273920  14.610  14.797   2.002
57361SOL     OW73921  12.904  10.213  13.783
57361SOL    HW173922  12.977  10.205  13.844
57361SOL    HW273923  12.926  10.153  13.711
57362SOL     OW73924  10.248   4.170   8.086
57362SOL    HW173925  10.176   4.187   8.147
57362SOL    HW273926  10.326   4.168   8.142
57363SOL     OW73927  12.234   0.510   0.191
57363SOL    HW173928  12.168   0.565   0.234
57363SOL    HW273929  12.286   0.571   0.140
57364SOL     OW73930   0.902  10.785  14.698
57364SOL    HW173931   0.975  10.831  14.658
57364SOL    HW273932   0.832  10.850  14.702
57365SOL     OW73933   9.443  14.406   1.001
57365SOL    HW173934   9.384  14.338   1.031
57365SOL    HW273935   9.515  14.359   0.959
57366SOL     OW73936   8.056   0.931   2.907
57366SOL    HW173937   8.062   0.839   2.883
57366SOL    HW273938   8.084   0.934   2.998
57367SOL     OW73939   0.818  11.758   4.193
57367SOL    HW173940   0.824  11.821   4.265
57367SOL    HW273941   0.909  11.737   4.171
57368SOL     OW73942   0.878  12.930   0.567
57368SOL    HW173943   0.891  12.838   0.543
57368SOL    HW273944   0.822  12.926   0.645
57369SOL     OW73945   1.678  12.081   2.272
57369SOL    HW173946   1.599  12.066   2.324
57369SOL    HW273947   1.651  12.063   2.182
57370SOL     OW73948  10.744   9.265  11.961
57370SOL    HW173949  10.830   9.306  11.952
57370SOL    HW273950  10.683   9.329  11.924
57371SOL     OW73951   5.829  14.202   6.333
57371SOL    HW173952   5.883  14.258   6.389
57371SOL    HW273953   5.835  14.116   6.373
57372SOL     OW73954  12.602   8.115  10.607
57372SOL    HW173955  12.634   8.066  10.682
57372SOL    HW273956  12.541   8.055  10.563
57373SOL     OW73957   1.598  14.726   5.328
57373SOL    HW173958   1.610  14.689   5.415
57373SOL    HW273959   1.513  14.771   5.331
57374SOL     OW73960   3.342   2.944  14.776
57374SOL    HW173961   3.381   2.868  14.733
57374SOL    HW273962   3.292   2.987  14.707
57375SOL     OW73963   1.905   4.745   3.971
57375SOL    HW173964   1.874   4.660   4.001
57375SOL    HW273965   1.908   4.737   3.876
57376SOL     OW73966   0.869   1.706   0.344
57376SOL    HW173967   0.935   1.775   0.340
57376SOL    HW273968   0.866   1.670   0.255
57377SOL     OW73969   4.461   6.576   1.396
57377SOL    HW173970   4.504   6.581   1.482
57377SOL    HW273971   4.522   6.619   1.336
57378SOL     OW73972   0.799   4.587   5.666
57378SOL    HW173973   0.750   4.666   5.642
57378SOL    HW273974   0.868   4.617   5.725
57379SOL     OW73975   0.147   5.684   1.856
57379SOL    HW173976   0.058   5.671   1.823
57379SOL    HW273977   0.145   5.769   1.899
57380SOL     OW73978   7.366   4.888  14.063
57380SOL    HW173979   7.319   4.940  14.128
57380SOL    HW273980   7.430   4.839  14.114
57381SOL     OW73981  10.374   2.284   7.519
57381SOL    HW173982  10.463   2.269   7.486
57381SOL    HW273983  10.317   2.257   7.446
57382SOL     OW73984   3.243   6.694  11.094
57382SOL    HW173985   3.177   6.667  11.030
57382SOL    HW273986   3.309   6.624  11.091
57383SOL     OW73987   2.410   2.123   0.414
57383SOL    HW173988   2.414   2.074   0.496
57383SOL    HW273989   2.356   2.199   0.434
57384SOL     OW73990   7.644   0.874  14.641
57384SOL    HW173991   7.692   0.852  14.720
57384SOL    HW273992   7.607   0.791  14.611
57385SOL     OW73993   8.828  11.141  11.025
57385SOL    HW173994   8.841  11.133  10.931
57385SOL    HW273995   8.804  11.233  11.039
57386SOL     OW73996  14.168   7.384   6.484
57386SOL    HW173997  14.206   7.313   6.431
57386SOL    HW273998  14.244   7.431   6.517
57387SOL     OW73999   7.687   9.390   4.463
57387SOL    HW174000   7.623   9.420   4.397
57387SOL    HW274001   7.768   9.434   4.439
57388SOL     OW74002  12.593  14.037   6.398
57388SOL    HW174003  12.508  14.080   6.396
57388SOL    HW274004  12.645  14.088   6.460
57389SOL     OW74005   3.127  13.487   6.232
57389SOL    HW174006   3.078  13.483   6.150
57389SOL    HW274007   3.148  13.580   6.243
57390SOL     OW74008   6.897  13.981   3.324
57390SOL    HW174009   6.845  13.959   3.401
57390SOL    HW274010   6.982  14.006   3.359
57391SOL     OW74011   6.825   9.093   9.428
57391SOL    HW174012   6.833   9.180   9.468
57391SOL    HW274013   6.751   9.053   9.473
57392SOL     OW74014  11.483  12.849   0.629
57392SOL    HW174015  11.514  12.840   0.719
57392SOL    HW274016  11.495  12.762   0.591
57393SOL     OW74017   4.518   6.733   6.837
57393SOL    HW174018   4.607   6.736   6.873
57393SOL    HW274019   4.530   6.744   6.742
57394SOL     OW74020   9.528   7.387   8.573
57394SOL    HW174021   9.451   7.336   8.599
57394SOL    HW274022   9.552   7.437   8.651
57395SOL     OW74023   8.549   0.070   8.869
57395SOL    HW174024   8.582   0.060   8.959
57395SOL    HW274025   8.615   0.123   8.825
57396SOL     OW74026  14.188   1.572   4.905
57396SOL    HW174027  14.172   1.623   4.985
57396SOL    HW274028  14.132   1.495   4.915
57397SOL     OW74029   0.180  14.267   0.178
57397SOL    HW174030   0.241  14.304   0.242
57397SOL    HW274031   0.236  14.227   0.112
57398SOL     OW74032  14.689  12.496   8.958
57398SOL    HW174033  14.669  12.529   8.870
57398SOL    HW274034  14.648  12.409   8.961
57399SOL     OW74035  10.407   2.417   0.932
57399SOL    HW174036  10.342   2.468   0.978
57399SOL    HW274037  10.375   2.413   0.842
57400SOL     OW74038  14.040  12.142   6.862
57400SOL    HW174039  14.111  12.206   6.859
57400SOL    HW274040  13.961  12.193   6.845
57401SOL     OW74041  14.755   6.340  11.747
57401SOL    HW174042  14.682   6.357  11.807
57401SOL    HW274043  14.715   6.302  11.670
57402SOL     OW74044  13.542  11.084   4.191
57402SOL    HW174045  13.603  11.073   4.265
57402SOL    HW274046  13.457  11.062   4.228
57403SOL     OW74047   9.089   3.973  13.328
57403SOL    HW174048   9.182   3.995  13.331
57403SOL    HW274049   9.052   4.014  13.406
57404SOL     OW74050  11.508   2.707  11.747
57404SOL    HW174051  11.467   2.758  11.677
57404SOL    HW274052  11.602   2.716  11.730
57405SOL     OW74053  14.504   8.747  10.517
57405SOL    HW174054  14.526   8.835  10.545
57405SOL    HW274055  14.460   8.708  10.593
57406SOL     OW74056   8.757   6.179  12.843
57406SOL    HW174057   8.774   6.095  12.885
57406SOL    HW274058   8.771   6.162  12.750
57407SOL     OW74059  12.355   1.165   9.860
57407SOL    HW174060  12.417   1.228   9.822
57407SOL    HW274061  12.404   1.122   9.930
57408SOL     OW74062   6.376   7.109   8.479
57408SOL    HW174063   6.366   7.145   8.391
57408SOL    HW274064   6.286   7.097   8.510
57409SOL     OW74065   8.617   4.831  13.979
57409SOL    HW174066   8.703   4.794  13.955
57409SOL    HW274067   8.556   4.791  13.916
57410SOL     OW74068  11.258   6.891  12.072
57410SOL    HW174069  11.307   6.962  12.029
57410SOL    HW274070  11.266   6.817  12.013
57411SOL     OW74071   0.741   2.446   6.024
57411SOL    HW174072   0.757   2.386   5.951
57411SOL    HW274073   0.765   2.396   6.102
57412SOL     OW74074  14.461  12.934  10.113
57412SOL    HW174075  14.382  12.983  10.089
57412SOL    HW274076  14.530  12.972  10.060
57413SOL     OW74077   0.662   9.790   3.818
57413SOL    HW174078   0.733   9.812   3.758
57413SOL    HW274079   0.672   9.851   3.891
57414SOL     OW74080   0.408  11.601   8.464
57414SOL    HW174081   0.341  11.636   8.406
57414SOL    HW274082   0.447  11.678   8.505
57415SOL     OW74083   3.235   7.353  11.500
57415SOL    HW174084   3.278   7.438  11.489
57415SOL    HW274085   3.152   7.362  11.454
57416SOL     OW74086   6.676   6.709  14.464
57416SOL    HW174087   6.644   6.619  14.453
57416SOL    HW274088   6.714   6.732  14.379
57417SOL     OW74089   4.152   3.052   5.949
57417SOL    HW174090   4.074   3.002   5.972
57417SOL    HW274091   4.155   3.049   5.854
57418SOL     OW74092   1.536   8.224   8.397
57418SOL    HW174093   1.612   8.280   8.415
57418SOL    HW274094   1.574   8.140   8.371
57419SOL     OW74095   0.027   0.386   1.363
57419SOL    HW174096  14.827   0.403   1.423
57419SOL    HW274097   0.086   0.329   1.412
57420SOL     OW74098   5.066   2.882  10.979
57420SOL    HW174099   5.011   2.923  10.912
57420SOL    HW274100   5.145   2.856  10.931
57421SOL     OW74101   5.152   9.997   3.915
57421SOL    HW174102   5.132   9.955   3.831
57421SOL    HW274103   5.113   9.939   3.981
57422SOL     OW74104   4.167  12.473   7.404
57422SOL    HW174105   4.106  12.418   7.452
57422SOL    HW274106   4.237  12.413   7.377
57423SOL     OW74107  14.112   9.587  14.361
57423SOL    HW174108  14.123   9.522  14.431
57423SOL    HW274109  14.021   9.579  14.334
57424SOL     OW74110  14.870   7.327   7.546
57424SOL    HW174111   0.080   7.282   7.530
57424SOL    HW274112  14.848   7.304   7.636
57425SOL     OW74113   9.687  12.994   3.360
57425SOL    HW174114   9.648  13.059   3.418
57425SOL    HW274115   9.643  13.007   3.276
57426SOL     OW74116   8.170  11.190   3.133
57426SOL    HW174117   8.185  11.143   3.051
57426SOL    HW274118   8.239  11.160   3.192
57427SOL     OW74119  11.136   3.723   6.815
57427SOL    HW174120  11.148   3.814   6.840
57427SOL    HW274121  11.127   3.725   6.719
57428SOL     OW74122  11.366   6.816   0.540
57428SOL    HW174123  11.306   6.755   0.583
57428SOL    HW274124  11.386   6.774   0.456
57429SOL     OW74125  13.436   1.871   2.072
57429SOL    HW174126  13.474   1.878   2.160
57429SOL    HW274127  13.429   1.776   2.057
57430SOL     OW74128  13.975   6.635   4.812
57430SOL    HW174129  14.009   6.562   4.864
57430SOL    HW274130  14.025   6.711   4.842
57431SOL     OW74131   4.771   4.817   0.630
57431SOL    HW174132   4.760   4.772   0.713
57431SOL    HW274133   4.685   4.857   0.613
57432SOL     OW74134   7.354  11.926   4.085
57432SOL    HW174135   7.382  11.874   4.161
57432SOL    HW274136   7.428  11.923   4.025
57433SOL     OW74137   1.212  10.937   1.521
57433SOL    HW174138   1.122  10.959   1.498
57433SOL    HW274139   1.218  10.843   1.507
57434SOL     OW74140  12.645   3.138   6.832
57434SOL    HW174141  12.634   3.222   6.787
57434SOL    HW274142  12.733   3.110   6.808
57435SOL     OW74143   9.176   4.114  11.468
57435SOL    HW174144   9.183   4.164  11.387
57435SOL    HW274145   9.102   4.055  11.454
57436SOL     OW74146   8.814   5.935  12.936
57436SOL    HW174147   8.755   5.864  12.963
57436SOL    HW274148   8.859   5.901  12.859
57437SOL     OW74149   0.656   4.814   7.528
57437SOL    HW174150   0.669   4.720   7.512
57437SOL    HW274151   0.693   4.857   7.451
57438SOL     OW74152   3.231   9.455   2.281
57438SOL    HW174153   3.220   9.473   2.188
57438SOL    HW274154   3.154   9.404   2.305
57439SOL     OW74155  11.788   5.926   6.305
57439SOL    HW174156  11.763   5.857   6.243
57439SOL    HW274157  11.730   5.912   6.380
57440SOL     OW74158  13.942   4.470   3.205
57440SOL    HW174159  14.008   4.406   3.230
57440SOL    HW274160  13.889   4.482   3.284
57441SOL     OW74161   8.649   0.040   8.487
57441SOL    HW174162   8.696  14.835   8.460
57441SOL    HW274163   8.699   0.075   8.561
57442SOL     OW74164   5.166  12.434   7.790
57442SOL    HW174165   5.252  12.466   7.819
57442SOL    HW274166   5.103  12.482   7.844
57443SOL     OW74167  14.163  10.800  14.672
57443SOL    HW174168  14.116  10.877  14.639
57443SOL    HW274169  14.141  10.799  14.766
57444SOL     OW74170   6.674   4.133  12.623
57444SOL    HW174171   6.593   4.148  12.672
57444SOL    HW274172   6.723   4.215  12.632
57445SOL     OW74173   7.354  13.057   5.877
57445SOL    HW174174   7.317  13.045   5.789
57445SOL    HW274175   7.432  13.110   5.864
57446SOL     OW74176  11.730  13.388   7.683
57446SOL    HW174177  11.776  13.468   7.656
57446SOL    HW274178  11.690  13.411   7.767
57447SOL     OW74179   9.312  10.902   5.694
57447SOL    HW174180   9.239  10.891   5.756
57447SOL    HW274181   9.370  10.829   5.713
57448SOL     OW74182   1.261  10.192   8.952
57448SOL    HW174183   1.356  10.194   8.937
57448SOL    HW274184   1.226  10.148   8.875
57449SOL     OW74185   0.148  13.105   8.335
57449SOL    HW174186   0.143  13.125   8.429
57449SOL    HW274187   0.057  13.096   8.308
57450SOL     OW74188   7.031   4.177   5.970
57450SOL    HW174189   7.094   4.185   6.042
57450SOL    HW274190   6.961   4.122   6.005
57451SOL     OW74191  13.421   8.434   6.646
57451SOL    HW174192  13.499   8.475   6.684
57451SOL    HW274193  13.387   8.499   6.585
57452SOL     OW74194   8.622   7.059   4.630
57452SOL    HW174195   8.648   6.999   4.560
57452SOL    HW274196   8.546   7.106   4.595
57453SOL     OW74197   1.260   5.362  12.509
57453SOL    HW174198   1.256   5.449  12.468
57453SOL    HW274199   1.219   5.374  12.595
57454SOL     OW74200   4.874   0.953   9.633
57454SOL    HW174201   4.900   0.950   9.541
57454SOL    HW274202   4.803   1.018   9.635
57455SOL     OW74203   5.807  11.242   2.717
57455SOL    HW174204   5.768  11.277   2.797
57455SOL    HW274205   5.777  11.300   2.647
57456SOL     OW74206   4.473  13.882   7.591
57456SOL    HW174207   4.545  13.940   7.567
57456SOL    HW274208   4.395  13.925   7.557
57457SOL     OW74209  12.621   1.785   6.956
57457SOL    HW174210  12.647   1.867   6.914
57457SOL    HW274211  12.530   1.772   6.929
57458SOL     OW74212  12.466  13.159  11.181
57458SOL    HW174213  12.533  13.166  11.249
57458SOL    HW274214  12.386  13.189  11.224
57459SOL     OW74215   0.018  13.070   4.216
57459SOL    HW174216   0.014  12.981   4.252
57459SOL    HW274217   0.067  13.060   4.135
57460SOL     OW74218   5.272   3.039  14.074
57460SOL    HW174219   5.365   3.061  14.069
57460SOL    HW274220   5.234   3.080  13.996
57461SOL     OW74221   7.129   3.881   4.236
57461SOL    HW174222   7.081   3.817   4.289
57461SOL    HW274223   7.061   3.933   4.194
57462SOL     OW74224  14.290   5.634  10.548
57462SOL    HW174225  14.230   5.579  10.598
57462SOL    HW274226  14.366   5.579  10.531
57463SOL     OW74227   7.111   9.428   7.588
57463SOL    HW174228   7.128   9.411   7.495
57463SOL    HW274229   7.188   9.476   7.618
57464SOL     OW74230   2.369  12.165   2.599
57464SOL    HW174231   2.332  12.084   2.566
57464SOL    HW274232   2.300  12.204   2.652
57465SOL     OW74233   6.723   2.089   6.065
57465SOL    HW174234   6.671   2.032   6.008
57465SOL    HW274235   6.797   2.116   6.010
57466SOL     OW74236   1.420   6.434   2.091
57466SOL    HW174237   1.348   6.460   2.148
57466SOL    HW274238   1.404   6.341   2.074
57467SOL     OW74239   2.047   3.346  11.771
57467SOL    HW174240   1.965   3.396  11.770
57467SOL    HW274241   2.115   3.409  11.748
57468SOL     OW74242   9.833  12.482   5.034
57468SOL    HW174243   9.831  12.392   5.003
57468SOL    HW274244   9.896  12.526   4.976
57469SOL     OW74245   8.380   2.372   7.067
57469SOL    HW174246   8.440   2.396   6.997
57469SOL    HW274247   8.301   2.424   7.051
57470SOL     OW74248   3.564   2.031  12.375
57470SOL    HW174249   3.609   1.962  12.328
57470SOL    HW274250   3.473   2.025  12.346
57471SOL     OW74251   1.359   1.149   0.283
57471SOL    HW174252   1.280   1.098   0.263
57471SOL    HW274253   1.398   1.104   0.357
57472SOL     OW74254  13.470  11.074   7.457
57472SOL    HW174255  13.459  11.054   7.364
57472SOL    HW274256  13.389  11.045   7.498
57473SOL     OW74257  14.613   8.847   8.093
57473SOL    HW174258  14.627   8.834   8.187
57473SOL    HW274259  14.538   8.791   8.073
57474SOL     OW74260   1.498   8.165   6.367
57474SOL    HW174261   1.459   8.234   6.421
57474SOL    HW274262   1.536   8.212   6.293
57475SOL     OW74263   0.123   4.773   2.394
57475SOL    HW174264   0.196   4.724   2.356
57475SOL    HW274265   0.046   4.719   2.376
57476SOL     OW74266  11.681   2.081   8.086
57476SOL    HW174267  11.700   2.175   8.084
57476SOL    HW274268  11.755   2.043   8.134
57477SOL     OW74269  10.242   4.226   0.527
57477SOL    HW174270  10.315   4.276   0.563
57477SOL    HW274271  10.269   4.134   0.535
57478SOL     OW74272   2.364   5.458   7.054
57478SOL    HW174273   2.316   5.483   6.975
57478SOL    HW274274   2.330   5.517   7.121
57479SOL     OW74275   0.263  13.915  11.504
57479SOL    HW174276   0.264  13.842  11.566
57479SOL    HW274277   0.348  13.956  11.514
57480SOL     OW74278  11.871   5.301   2.695
57480SOL    HW174279  11.849   5.210   2.679
57480SOL    HW274280  11.915   5.301   2.780
57481SOL     OW74281   5.326   0.055  11.561
57481SOL    HW174282   5.252   0.059  11.621
57481SOL    HW274283   5.292   0.090  11.478
57482SOL     OW74284  10.978   9.420   3.225
57482SOL    HW174285  11.027   9.377   3.295
57482SOL    HW274286  11.036   9.490   3.194
57483SOL     OW74287   1.966   6.838  11.625
57483SOL    HW174288   2.012   6.863  11.706
57483SOL    HW274289   1.916   6.760  11.648
57484SOL     OW74290   0.406  12.607   9.462
57484SOL    HW174291   0.341  12.573   9.523
57484SOL    HW274292   0.369  12.690   9.431
57485SOL     OW74293   6.506  11.805  14.622
57485SOL    HW174294   6.557  11.878  14.657
57485SOL    HW274295   6.424  11.806  14.673
57486SOL     OW74296  10.387   5.852   3.433
57486SOL    HW174297  10.314   5.915   3.434
57486SOL    HW274298  10.420   5.857   3.343
57487SOL     OW74299  12.446   7.873   5.324
57487SOL    HW174300  12.463   7.955   5.370
57487SOL    HW274301  12.453   7.805   5.392
57488SOL     OW74302   7.078  13.775  10.161
57488SOL    HW174303   7.147  13.719  10.197
57488SOL    HW274304   7.121  13.858  10.143
57489SOL     OW74305   2.040  10.238   7.546
57489SOL    HW174306   2.094  10.312   7.575
57489SOL    HW274307   1.996  10.270   7.467
57490SOL     OW74308   4.382  10.088   2.794
57490SOL    HW174309   4.446  10.049   2.735
57490SOL    HW274310   4.421  10.079   2.881
57491SOL     OW74311   4.747   1.272   6.550
57491SOL    HW174312   4.782   1.303   6.633
57491SOL    HW274313   4.690   1.199   6.574
57492SOL     OW74314   9.489   5.156   6.591
57492SOL    HW174315   9.516   5.116   6.674
57492SOL    HW274316   9.409   5.109   6.566
57493SOL     OW74317  12.098   7.593   3.694
57493SOL    HW174318  12.144   7.663   3.741
57493SOL    HW274319  12.161   7.521   3.692
57494SOL     OW74320   0.043   1.088   2.326
57494SOL    HW174321  14.835   1.096   2.375
57494SOL    HW274322   0.021   1.116   2.237
57495SOL     OW74323   4.470  13.453   5.371
57495SOL    HW174324   4.378  13.426   5.372
57495SOL    HW274325   4.484  13.494   5.456
57496SOL     OW74326   6.805  13.245   4.171
57496SOL    HW174327   6.753  13.254   4.092
57496SOL    HW274328   6.764  13.305   4.234
57497SOL     OW74329   1.340  11.463   5.594
57497SOL    HW174330   1.434  11.449   5.579
57497SOL    HW274331   1.325  11.554   5.568
57498SOL     OW74332   9.229   6.963  14.771
57498SOL    HW174333   9.291   7.015  14.720
57498SOL    HW274334   9.280   6.933  14.847
57499SOL     OW74335  10.263   4.895  13.231
57499SOL    HW174336  10.329   4.962  13.214
57499SOL    HW274337  10.238   4.864  13.145
57500SOL     OW74338  13.519  11.708   8.670
57500SOL    HW174339  13.442  11.656   8.694
57500SOL    HW274340  13.496  11.797   8.697
57501SOL     OW74341   0.872   8.759   7.476
57501SOL    HW174342   0.859   8.847   7.443
57501SOL    HW274343   0.816   8.754   7.553
57502SOL     OW74344   6.407   9.020  10.777
57502SOL    HW174345   6.499   8.999  10.759
57502SOL    HW274346   6.395   9.109  10.743
57503SOL     OW74347   2.630   7.854   6.571
57503SOL    HW174348   2.550   7.898   6.597
57503SOL    HW274349   2.692   7.924   6.552
57504SOL     OW74350   2.507   0.245   2.970
57504SOL    HW174351   2.514   0.299   2.891
57504SOL    HW274352   2.425   0.273   3.011
57505SOL     OW74353  12.854  10.747   9.513
57505SOL    HW174354  12.775  10.798   9.530
57505SOL    HW274355  12.888  10.725   9.600
57506SOL     OW74356   6.876   2.810   7.731
57506SOL    HW174357   6.906   2.896   7.703
57506SOL    HW274358   6.799   2.793   7.676
57507SOL     OW74359  11.696  10.971   6.327
57507SOL    HW174360  11.615  10.969   6.379
57507SOL    HW274361  11.754  11.030   6.376
57508SOL     OW74362  12.625   2.368   6.431
57508SOL    HW174363  12.628   2.282   6.388
57508SOL    HW274364  12.573   2.423   6.372
57509SOL     OW74365   0.343  12.440   1.071
57509SOL    HW174366   0.377  12.492   0.998
57509SOL    HW274367   0.419  12.391   1.104
57510SOL     OW74368   8.615   4.510   3.234
57510SOL    HW174369   8.634   4.598   3.268
57510SOL    HW274370   8.690   4.457   3.260
57511SOL     OW74371  13.726   2.772  11.382
57511SOL    HW174372  13.673   2.707  11.335
57511SOL    HW274373  13.710   2.753  11.474
57512SOL     OW74374  10.513   4.257   2.270
57512SOL    HW174375  10.498   4.183   2.211
57512SOL    HW274376  10.583   4.307   2.229
57513SOL     OW74377   8.324  14.417   2.998
57513SOL    HW174378   8.296  14.339   2.952
57513SOL    HW274379   8.270  14.421   3.076
57514SOL     OW74380   2.519   2.286   9.446
57514SOL    HW174381   2.607   2.322   9.431
57514SOL    HW274382   2.518   2.264   9.539
57515SOL     OW74383   3.969   1.299  13.476
57515SOL    HW174384   4.043   1.242  13.497
57515SOL    HW274385   3.937   1.267  13.392
57516SOL     OW74386  12.099   4.474   3.291
57516SOL    HW174387  12.112   4.395   3.344
57516SOL    HW274388  12.090   4.544   3.355
57517SOL     OW74389   4.682   0.194   1.669
57517SOL    HW174390   4.742   0.191   1.595
57517SOL    HW274391   4.659   0.287   1.677
57518SOL     OW74392   2.559  13.070  14.594
57518SOL    HW174393   2.509  13.074  14.675
57518SOL    HW274394   2.635  13.126  14.610
57519SOL     OW74395   3.591  12.159   5.644
57519SOL    HW174396   3.548  12.083   5.605
57519SOL    HW274397   3.681  12.130   5.659
57520SOL     OW74398  10.315  11.009   1.779
57520SOL    HW174399  10.271  10.951   1.841
57520SOL    HW274400  10.277  11.095   1.796
57521SOL     OW74401  11.353   9.729   3.886
57521SOL    HW174402  11.437   9.732   3.932
57521SOL    HW274403  11.354   9.806   3.829
57522SOL     OW74404  10.087   4.135  12.279
57522SOL    HW174405  10.049   4.088  12.205
57522SOL    HW274406  10.182   4.126  12.268
57523SOL     OW74407  11.814  11.580   3.917
57523SOL    HW174408  11.766  11.640   3.859
57523SOL    HW274409  11.777  11.494   3.897
57524SOL     OW74410   0.862   1.869   5.151
57524SOL    HW174411   0.774   1.875   5.187
57524SOL    HW274412   0.879   1.775   5.145
57525SOL     OW74413   5.242  13.657   7.211
57525SOL    HW174414   5.230  13.728   7.147
57525SOL    HW274415   5.321  13.681   7.259
57526SOL     OW74416   4.454   0.709   5.030
57526SOL    HW174417   4.373   0.749   5.000
57526SOL    HW274418   4.481   0.651   4.959
57527SOL     OW74419   9.835   6.314   0.689
57527SOL    HW174420   9.900   6.377   0.657
57527SOL    HW274421   9.818   6.257   0.614
57528SOL     OW74422  10.574   7.415   5.751
57528SOL    HW174423  10.643   7.425   5.686
57528SOL    HW274424  10.534   7.330   5.731
57529SOL     OW74425   8.348   2.827  11.363
57529SOL    HW174426   8.306   2.768  11.425
57529SOL    HW274427   8.406   2.881  11.417
57530SOL     OW74428   2.666   4.116   8.226
57530SOL    HW174429   2.748   4.091   8.268
57530SOL    HW274430   2.612   4.152   8.297
57531SOL     OW74431   5.529   3.214   3.411
57531SOL    HW174432   5.473   3.212   3.334
57531SOL    HW274433   5.553   3.306   3.421
57532SOL     OW74434   9.802   4.741  13.660
57532SOL    HW174435   9.830   4.689  13.585
57532SOL    HW274436   9.878   4.795  13.681
57533SOL     OW74437   7.673   1.510   5.258
57533SOL    HW174438   7.703   1.570   5.189
57533SOL    HW274439   7.616   1.448   5.212
57534SOL     OW74440  13.428  12.462   2.066
57534SOL    HW174441  13.341  12.494   2.091
57534SOL    HW274442  13.487  12.533   2.091
57535SOL     OW74443   8.720   2.526   5.280
57535SOL    HW174444   8.704   2.478   5.362
57535SOL    HW274445   8.647   2.499   5.223
57536SOL     OW74446   6.599  12.102   6.380
57536SOL    HW174447   6.631  12.178   6.331
57536SOL    HW274448   6.526  12.137   6.432
57537SOL     OW74449  11.777   8.705   0.456
57537SOL    HW174450  11.868   8.720   0.481
57537SOL    HW274451  11.731   8.783   0.488
57538SOL     OW74452  12.866  11.894  10.093
57538SOL    HW174453  12.939  11.956  10.089
57538SOL    HW274454  12.871  11.857  10.181
57539SOL     OW74455  10.009   6.483   9.477
57539SOL    HW174456   9.952   6.515   9.546
57539SOL    HW274457   9.965   6.404   9.444
57540SOL     OW74458   6.071   7.363   5.946
57540SOL    HW174459   6.130   7.356   6.022
57540SOL    HW274460   6.115   7.425   5.888
57541SOL     OW74461   7.910   1.661   7.620
57541SOL    HW174462   7.901   1.706   7.536
57541SOL    HW274463   7.824   1.671   7.661
57542SOL     OW74464  14.078   9.387   3.661
57542SOL    HW174465  13.995   9.342   3.675
57542SOL    HW274466  14.054   9.476   3.639
57543SOL     OW74467   2.754   6.143   9.679
57543SOL    HW174468   2.819   6.140   9.609
57543SOL    HW274469   2.670   6.129   9.634
57544SOL     OW74470   5.908   4.522   6.589
57544SOL    HW174471   5.842   4.457   6.613
57544SOL    HW274472   5.982   4.503   6.647
57545SOL     OW74473   7.936  11.181  10.503
57545SOL    HW174474   8.031  11.196  10.506
57545SOL    HW274475   7.919  11.120  10.575
57546SOL     OW74476   8.992   1.559   1.736
57546SOL    HW174477   9.056   1.623   1.768
57546SOL    HW274478   8.951   1.603   1.661
57547SOL     OW74479  11.282   4.717   4.068
57547SOL    HW174480  11.304   4.806   4.042
57547SOL    HW274481  11.265   4.723   4.162
57548SOL     OW74482   2.046   8.067   5.573
57548SOL    HW174483   2.113   8.038   5.635
57548SOL    HW274484   2.068   8.158   5.554
57549SOL     OW74485   9.133   2.460   3.932
57549SOL    HW174486   9.148   2.396   4.002
57549SOL    HW274487   9.053   2.430   3.889
57550SOL     OW74488   2.981   5.150  13.816
57550SOL    HW174489   2.926   5.097  13.759
57550SOL    HW274490   3.010   5.090  13.885
57551SOL     OW74491   1.750   0.103   0.422
57551SOL    HW174492   1.722   0.148   0.502
57551SOL    HW274493   1.734   0.166   0.352
57552SOL     OW74494   4.184   2.951   1.424
57552SOL    HW174495   4.161   2.985   1.510
57552SOL    HW274496   4.131   3.001   1.363
57553SOL     OW74497   7.709   1.054  12.574
57553SOL    HW174498   7.767   1.108  12.520
57553SOL    HW274499   7.748   1.057  12.662
57554SOL     OW74500   9.184   0.000   8.664
57554SOL    HW174501   9.236  14.793   8.668
57554SOL    HW274502   9.239   0.062   8.615
57555SOL     OW74503  14.741  12.292   1.345
57555SOL    HW174504  14.786  12.376   1.347
57555SOL    HW274505  14.655  12.311   1.306
57556SOL     OW74506   8.270  12.317   2.415
57556SOL    HW174507   8.229  12.323   2.329
57556SOL    HW274508   8.204  12.274   2.470
57557SOL     OW74509   1.237  10.764   6.630
57557SOL    HW174510   1.195  10.686   6.593
57557SOL    HW274511   1.167  10.807   6.679
57558SOL     OW74512   2.704  10.715   9.120
57558SOL    HW174513   2.673  10.699   9.210
57558SOL    HW274514   2.625  10.707   9.067
57559SOL     OW74515   2.630  11.420  13.935
57559SOL    HW174516   2.610  11.346  13.877
57559SOL    HW274517   2.709  11.459  13.897
57560SOL     OW74518  12.829   5.605   4.819
57560SOL    HW174519  12.836   5.526   4.764
57560SOL    HW274520  12.755   5.653   4.782
57561SOL     OW74521  12.089  14.744   4.040
57561SOL    HW174522  12.140  14.683   4.093
57561SOL    HW274523  12.010  14.761   4.092
57562SOL     OW74524   3.382  13.930   1.255
57562SOL    HW174525   3.411  13.880   1.179
57562SOL    HW274526   3.330  14.002   1.219
57563SOL     OW74527   4.485   5.967  12.626
57563SOL    HW174528   4.576   5.956  12.601
57563SOL    HW274529   4.438   5.898  12.579
57564SOL     OW74530  11.981   5.988  13.573
57564SOL    HW174531  12.074   6.009  13.565
57564SOL    HW274532  11.966   5.921  13.507
57565SOL     OW74533   9.558   4.852  11.435
57565SOL    HW174534   9.583   4.812  11.351
57565SOL    HW274535   9.489   4.914  11.412
57566SOL     OW74536   0.028   7.242   2.160
57566SOL    HW174537  14.822   7.189   2.150
57566SOL    HW274538   0.098   7.187   2.125
57567SOL     OW74539  10.308   2.317   9.513
57567SOL    HW174540  10.276   2.369   9.588
57567SOL    HW274541  10.234   2.313   9.453
57568SOL     OW74542   9.272   4.367   7.394
57568SOL    HW174543   9.209   4.384   7.464
57568SOL    HW274544   9.265   4.442   7.336
57569SOL     OW74545   8.202  12.982   1.215
57569SOL    HW174546   8.296  12.973   1.201
57569SOL    HW274547   8.194  13.032   1.296
57570SOL     OW74548   6.938   4.553   7.394
57570SOL    HW174549   6.873   4.531   7.461
57570SOL    HW274550   6.990   4.623   7.433
57571SOL     OW74551  12.503  13.040  14.681
57571SOL    HW174552  12.510  13.056  14.587
57571SOL    HW274553  12.455  13.115  14.715
57572SOL     OW74554  11.510   6.302  13.941
57572SOL    HW174555  11.563   6.348  14.006
57572SOL    HW274556  11.520   6.210  13.963
57573SOL     OW74557   3.636   4.446   4.186
57573SOL    HW174558   3.566   4.397   4.230
57573SOL    HW274559   3.612   4.538   4.197
57574SOL     OW74560   5.688  14.531   8.311
57574SOL    HW174561   5.715  14.585   8.236
57574SOL    HW274562   5.593  14.525   8.303
57575SOL     OW74563  13.418  12.892  13.532
57575SOL    HW174564  13.331  12.927  13.551
57575SOL    HW274565  13.423  12.812  13.585
57576SOL     OW74566   1.599  11.137   6.234
57576SOL    HW174567   1.597  11.092   6.318
57576SOL    HW274568   1.691  11.137   6.209
57577SOL     OW74569   3.899   3.367  10.590
57577SOL    HW174570   3.963   3.438  10.602
57577SOL    HW274571   3.862   3.353  10.677
57578SOL     OW74572   4.750  11.926   5.088
57578SOL    HW174573   4.826  11.886   5.132
57578SOL    HW274574   4.761  12.020   5.103
57579SOL     OW74575   4.036   3.644  12.558
57579SOL    HW174576   3.972   3.608  12.495
57579SOL    HW274577   4.007   3.733  12.574
57580SOL     OW74578   4.165   2.833   5.042
57580SOL    HW174579   4.234   2.771   5.015
57580SOL    HW274580   4.175   2.839   5.137
57581SOL     OW74581   0.721   7.811  10.665
57581SOL    HW174582   0.737   7.866  10.742
57581SOL    HW274583   0.771   7.853  10.595
57582SOL     OW74584   7.851  10.672   8.791
57582SOL    HW174585   7.875  10.638   8.877
57582SOL    HW274586   7.806  10.755   8.811
57583SOL     OW74587   2.956   7.051  10.446
57583SOL    HW174588   2.884   6.989  10.448
57583SOL    HW274589   3.029   7.002  10.407
57584SOL     OW74590   2.820   6.576   5.746
57584SOL    HW174591   2.847   6.629   5.671
57584SOL    HW274592   2.749   6.626   5.786
57585SOL     OW74593   4.179   8.617   1.522
57585SOL    HW174594   4.159   8.569   1.442
57585SOL    HW274595   4.096   8.658   1.547
57586SOL     OW74596  11.849   1.113   9.800
57586SOL    HW174597  11.851   1.157   9.885
57586SOL    HW274598  11.936   1.128   9.763
57587SOL     OW74599   6.785   9.817  12.877
57587SOL    HW174600   6.860   9.774  12.836
57587SOL    HW274601   6.785   9.905  12.840
57588SOL     OW74602   6.069   7.485   1.492
57588SOL    HW174603   6.133   7.512   1.427
57588SOL    HW274604   6.080   7.547   1.564
57589SOL     OW74605  10.729   1.831  14.698
57589SOL    HW174606  10.724   1.926  14.702
57589SOL    HW274607  10.820   1.812  14.674
57590SOL     OW74608  12.287  10.936   6.341
57590SOL    HW174609  12.213  10.952   6.282
57590SOL    HW274610  12.329  10.857   6.306
57591SOL     OW74611  10.950   5.584   4.714
57591SOL    HW174612  11.015   5.654   4.720
57591SOL    HW274613  10.997   5.511   4.675
57592SOL     OW74614   5.125   5.907  13.264
57592SOL    HW174615   5.200   5.966  13.275
57592SOL    HW274616   5.164   5.821  13.250
57593SOL     OW74617  13.593   8.311   4.554
57593SOL    HW174618  13.550   8.244   4.608
57593SOL    HW274619  13.553   8.301   4.468
57594SOL     OW74620  14.390   3.201   0.436
57594SOL    HW174621  14.338   3.265   0.388
57594SOL    HW274622  14.479   3.237   0.437
57595SOL     OW74623   5.770   5.662  10.829
57595SOL    HW174624   5.828   5.710  10.769
57595SOL    HW274625   5.726   5.731  10.879
57596SOL     OW74626  13.482   7.560   7.023
57596SOL    HW174627  13.406   7.534   7.074
57596SOL    HW274628  13.552   7.500   7.051
57597SOL     OW74629   4.040   1.359  10.567
57597SOL    HW174630   4.011   1.444  10.599
57597SOL    HW274631   4.050   1.370  10.473
57598SOL     OW74632  13.473   1.894   2.341
57598SOL    HW174633  13.546   1.884   2.402
57598SOL    HW274634  13.402   1.845   2.381
57599SOL     OW74635   4.000   4.950  11.059
57599SOL    HW174636   3.943   5.021  11.030
57599SOL    HW274637   4.089   4.982  11.042
57600SOL     OW74638   3.042   4.717  10.092
57600SOL    HW174639   2.997   4.647  10.043
57600SOL    HW274640   3.037   4.793  10.034
57601SOL     OW74641   6.620   1.254   4.886
57601SOL    HW174642   6.557   1.238   4.816
57601SOL    HW274643   6.567   1.258   4.966
57602SOL     OW74644   2.234   3.228   1.392
57602SOL    HW174645   2.150   3.185   1.404
57602SOL    HW274646   2.234   3.300   1.455
57603SOL     OW74647  11.674   3.540   2.240
57603SOL    HW174648  11.721   3.618   2.270
57603SOL    HW274649  11.582   3.562   2.249
57604SOL     OW74650  11.161  13.165   7.722
57604SOL    HW174651  11.224  13.184   7.791
57604SOL    HW274652  11.085  13.128   7.767
57605SOL     OW74653   9.723   6.825  11.835
57605SOL    HW174654   9.814   6.824  11.807
57605SOL    HW274655   9.711   6.743  11.882
57606SOL     OW74656  13.585   6.905   1.679
57606SOL    HW174657  13.666   6.918   1.728
57606SOL    HW274658  13.567   6.811   1.686
57607SOL     OW74659   5.293   3.547   0.817
57607SOL    HW174660   5.234   3.472   0.822
57607SOL    HW274661   5.341   3.545   0.899
57608SOL     OW74662   4.783   5.119   2.005
57608SOL    HW174663   4.706   5.106   1.950
57608SOL    HW274664   4.762   5.075   2.087
57609SOL     OW74665   2.978   9.272   0.636
57609SOL    HW174666   2.963   9.179   0.618
57609SOL    HW274667   2.966   9.281   0.730
57610SOL     OW74668   0.789   1.160   3.997
57610SOL    HW174669   0.724   1.184   3.931
57610SOL    HW274670   0.776   1.066   4.009
57611SOL     OW74671  13.285   1.932   0.746
57611SOL    HW174672  13.258   1.964   0.660
57611SOL    HW274673  13.222   1.972   0.807
57612SOL     OW74674  12.915   4.205  13.645
57612SOL    HW174675  13.007   4.211  13.619
57612SOL    HW274676  12.867   4.200  13.563
57613SOL     OW74677  12.451   8.727  14.650
57613SOL    HW174678  12.439   8.794  14.717
57613SOL    HW274679  12.546   8.723  14.637
57614SOL     OW74680   7.399   3.789   4.852
57614SOL    HW174681   7.361   3.727   4.913
57614SOL    HW274682   7.433   3.860   4.907
57615SOL     OW74683   1.858  14.146   2.266
57615SOL    HW174684   1.865  14.080   2.197
57615SOL    HW274685   1.767  14.176   2.262
57616SOL     OW74686   9.760   4.228   8.534
57616SOL    HW174687   9.813   4.149   8.519
57616SOL    HW274688   9.788   4.287   8.464
57617SOL     OW74689   7.887  10.038   6.892
57617SOL    HW174690   7.859  10.031   6.983
57617SOL    HW274691   7.872  10.130   6.870
57618SOL     OW74692  11.042   6.476   0.228
57618SOL    HW174693  11.049   6.516   0.315
57618SOL    HW274694  10.950   6.451   0.220
57619SOL     OW74695   2.053   9.355   4.374
57619SOL    HW174696   1.982   9.340   4.436
57619SOL    HW274697   2.118   9.288   4.395
57620SOL     OW74698   4.504   2.589   9.477
57620SOL    HW174699   4.544   2.507   9.447
57620SOL    HW274700   4.418   2.563   9.511
57621SOL     OW74701   1.565   6.346   3.545
57621SOL    HW174702   1.659   6.342   3.564
57621SOL    HW274703   1.525   6.294   3.615
57622SOL     OW74704   3.175   1.577  13.174
57622SOL    HW174705   3.220   1.537  13.100
57622SOL    HW274706   3.095   1.525  13.184
57623SOL     OW74707   2.730   5.924   3.209
57623SOL    HW174708   2.637   5.938   3.225
57623SOL    HW274709   2.759   6.004   3.165
57624SOL     OW74710  12.068   5.778   5.738
57624SOL    HW174711  12.137   5.774   5.804
57624SOL    HW274712  12.025   5.862   5.753
57625SOL     OW74713   7.984   1.983   1.302
57625SOL    HW174714   7.919   2.037   1.346
57625SOL    HW274715   7.995   2.024   1.216
57626SOL     OW74716  12.725  13.228   7.477
57626SOL    HW174717  12.745  13.297   7.415
57626SOL    HW274718  12.755  13.147   7.434
57627SOL     OW74719  14.142   5.043   2.812
57627SOL    HW174720  14.088   5.113   2.850
57627SOL    HW274721  14.231   5.067   2.836
57628SOL     OW74722   3.969  13.725   3.306
57628SOL    HW174723   3.882  13.741   3.269
57628SOL    HW274724   3.952  13.703   3.398
57629SOL     OW74725   8.128  12.535   6.425
57629SOL    HW174726   8.058  12.555   6.488
57629SOL    HW274727   8.188  12.480   6.474
57630SOL     OW74728  14.118  10.642  10.696
57630SOL    HW174729  14.153  10.564  10.654
57630SOL    HW274730  14.072  10.689  10.626
57631SOL     OW74731  10.238   1.634   8.596
57631SOL    HW174732  10.313   1.693   8.589
57631SOL    HW274733  10.166   1.683   8.557
57632SOL     OW74734   5.644   0.195   8.414
57632SOL    HW174735   5.631   0.272   8.360
57632SOL    HW274736   5.574   0.135   8.388
57633SOL     OW74737   6.460  12.374   9.394
57633SOL    HW174738   6.505  12.396   9.476
57633SOL    HW274739   6.489  12.285   9.373
57634SOL     OW74740   8.260  13.818  10.026
57634SOL    HW174741   8.226  13.877   9.959
57634SOL    HW274742   8.232  13.731   9.998
57635SOL     OW74743   1.678   3.053  10.182
57635SOL    HW174744   1.597   3.081  10.223
57635SOL    HW274745   1.740   3.123  10.201
57636SOL     OW74746   7.086   7.652   7.628
57636SOL    HW174747   7.039   7.572   7.606
57636SOL    HW274748   7.092   7.699   7.545
57637SOL     OW74749  14.575   9.357   6.054
57637SOL    HW174750  14.540   9.358   6.142
57637SOL    HW274751  14.498   9.354   5.997
57638SOL     OW74752  13.819   4.192  13.748
57638SOL    HW174753  13.896   4.249  13.747
57638SOL    HW274754  13.822   4.145  13.665
57639SOL     OW74755   7.252   0.255  13.000
57639SOL    HW174756   7.321   0.308  12.960
57639SOL    HW274757   7.173   0.309  12.995
57640SOL     OW74758  10.170  11.400   8.727
57640SOL    HW174759  10.248  11.436   8.686
57640SOL    HW274760  10.136  11.337   8.664
57641SOL     OW74761   4.472  12.732  12.846
57641SOL    HW174762   4.476  12.756  12.754
57641SOL    HW274763   4.385  12.695  12.858
57642SOL     OW74764   3.841   0.867  10.536
57642SOL    HW174765   3.760   0.903  10.572
57642SOL    HW274766   3.822   0.852  10.443
57643SOL     OW74767   0.601   5.793  10.678
57643SOL    HW174768   0.664   5.835  10.737
57643SOL    HW274769   0.619   5.832  10.592
57644SOL     OW74770   7.069   9.909   4.299
57644SOL    HW174771   7.105   9.858   4.372
57644SOL    HW274772   7.123   9.885   4.224
57645SOL     OW74773   9.511   0.951   1.488
57645SOL    HW174774   9.465   0.867   1.482
57645SOL    HW274775   9.464   1.001   1.554
57646SOL     OW74776  13.684   6.706   1.307
57646SOL    HW174777  13.646   6.658   1.233
57646SOL    HW274778  13.682   6.643   1.379
57647SOL     OW74779  11.891  10.661   5.893
57647SOL    HW174780  11.846  10.694   5.971
57647SOL    HW274781  11.851  10.709   5.821
57648SOL     OW74782  10.580  12.374  11.997
57648SOL    HW174783  10.558  12.287  12.030
57648SOL    HW274784  10.618  12.357  11.911
57649SOL     OW74785   6.970   3.009  13.108
57649SOL    HW174786   7.024   2.950  13.160
57649SOL    HW274787   6.987   2.984  13.018
57650SOL     OW74788   7.125   1.967  12.342
57650SOL    HW174789   7.167   2.039  12.389
57650SOL    HW274790   7.198   1.921  12.300
57651SOL     OW74791   3.597   3.099   9.177
57651SOL    HW174792   3.620   3.010   9.203
57651SOL    HW274793   3.624   3.105   9.085
57652SOL     OW74794  13.147   4.697  12.456
57652SOL    HW174795  13.066   4.746  12.442
57652SOL    HW274796  13.159   4.646  12.376
57653SOL     OW74797   5.953   2.219  12.731
57653SOL    HW174798   5.920   2.222  12.642
57653SOL    HW274799   6.028   2.278  12.731
57654SOL     OW74800  13.414   7.097   7.714
57654SOL    HW174801  13.411   7.176   7.659
57654SOL    HW274802  13.327   7.058   7.704
57655SOL     OW74803  14.827   3.714   0.236
57655SOL    HW174804   0.021   3.778   0.258
57655SOL    HW274805  14.848   3.687   0.147
57656SOL     OW74806   6.989   2.064   0.118
57656SOL    HW174807   6.980   2.159   0.122
57656SOL    HW274808   7.050   2.049   0.046
57657SOL     OW74809   0.446  13.941  12.251
57657SOL    HW174810   0.511  13.920  12.184
57657SOL    HW274811   0.485  13.910  12.333
57658SOL     OW74812   8.122   4.903   3.681
57658SOL    HW174813   8.204   4.906   3.731
57658SOL    HW274814   8.086   4.991   3.690
57659SOL     OW74815   9.001   5.021  10.114
57659SOL    HW174816   9.080   4.969  10.099
57659SOL    HW274817   9.022   5.107  10.077
57660SOL     OW74818   1.548  11.860   8.959
57660SOL    HW174819   1.459  11.830   8.940
57660SOL    HW274820   1.560  11.843   9.052
57661SOL     OW74821  10.489  14.608   9.788
57661SOL    HW174822  10.568  14.554   9.778
57661SOL    HW274823  10.439  14.564   9.857
57662SOL     OW74824  12.754  10.105  12.310
57662SOL    HW174825  12.708  10.181  12.274
57662SOL    HW274826  12.685  10.042  12.328
57663SOL     OW74827  13.888  11.567   9.820
57663SOL    HW174828  13.824  11.564   9.891
57663SOL    HW274829  13.847  11.621   9.753
57664SOL     OW74830   7.722   6.557  13.799
57664SOL    HW174831   7.640   6.545  13.847
57664SOL    HW274832   7.783   6.589  13.865
57665SOL     OW74833   3.983   9.212   6.013
57665SOL    HW174834   4.024   9.270   6.077
57665SOL    HW274835   4.049   9.203   5.944
57666SOL     OW74836   3.257  11.290  12.828
57666SOL    HW174837   3.171  11.273  12.865
57666SOL    HW274838   3.251  11.257  12.738
57667SOL     OW74839  10.940  11.555   7.897
57667SOL    HW174840  10.998  11.583   7.969
57667SOL    HW274841  10.995  11.498   7.843
57668SOL     OW74842   2.666   9.718   0.497
57668SOL    HW174843   2.676   9.629   0.529
57668SOL    HW274844   2.711   9.720   0.413
57669SOL     OW74845  11.400   3.731  14.530
57669SOL    HW174846  11.463   3.792  14.491
57669SOL    HW274847  11.362   3.685  14.456
57670SOL     OW74848   2.908   4.756   7.172
57670SOL    HW174849   2.873   4.765   7.261
57670SOL    HW274850   2.995   4.718   7.185
57671SOL     OW74851   0.124   3.016  12.751
57671SOL    HW174852   0.121   3.109  12.731
57671SOL    HW274853   0.119   3.011  12.846
57672SOL     OW74854   0.189   7.083  12.062
57672SOL    HW174855   0.119   7.019  12.046
57672SOL    HW274856   0.262   7.052  12.007
57673SOL     OW74857   7.081  13.667  14.618
57673SOL    HW174858   7.078  13.759  14.643
57673SOL    HW274859   7.026  13.661  14.540
57674SOL     OW74860   8.713  13.686   2.508
57674SOL    HW174861   8.798  13.644   2.524
57674SOL    HW274862   8.649  13.628   2.550
57675SOL     OW74863   9.471  11.018   6.227
57675SOL    HW174864   9.538  10.950   6.225
57675SOL    HW274865   9.388  10.970   6.230
57676SOL     OW74866   4.943   7.756  13.675
57676SOL    HW174867   4.888   7.817  13.724
57676SOL    HW274868   5.001   7.718  13.741
57677SOL     OW74869   7.089  10.066   3.564
57677SOL    HW174870   7.087   9.989   3.621
57677SOL    HW274871   6.998  10.094   3.558
57678SOL     OW74872  12.415   9.707   4.709
57678SOL    HW174873  12.507   9.716   4.686
57678SOL    HW274874  12.393   9.786   4.758
57679SOL     OW74875   3.406   9.161  10.986
57679SOL    HW174876   3.423   9.081  10.936
57679SOL    HW274877   3.347   9.212  10.931
57680SOL     OW74878   9.131  13.041   2.829
57680SOL    HW174879   9.101  13.131   2.843
57680SOL    HW274880   9.218  13.038   2.870
57681SOL     OW74881   4.707   7.782  11.730
57681SOL    HW174882   4.723   7.833  11.809
57681SOL    HW274883   4.793   7.749  11.704
57682SOL     OW74884  14.610   1.242   3.315
57682SOL    HW174885  14.652   1.294   3.384
57682SOL    HW274886  14.521   1.227   3.347
57683SOL     OW74887   0.953   3.335  13.743
57683SOL    HW174888   1.006   3.326  13.663
57683SOL    HW274889   0.928   3.427  13.744
57684SOL     OW74890  14.381  12.397   6.962
57684SOL    HW174891  14.413  12.484   6.938
57684SOL    HW274892  14.451  12.358   7.014
57685SOL     OW74893   8.792  12.802  14.777
57685SOL    HW174894   8.845  12.838  14.706
57685SOL    HW274895   8.800  12.867  14.848
57686SOL     OW74896   4.534   3.280  10.745
57686SOL    HW174897   4.619   3.256  10.781
57686SOL    HW274898   4.484   3.198  10.748
57687SOL     OW74899  10.769  14.478   8.559
57687SOL    HW174900  10.818  14.461   8.479
57687SOL    HW274901  10.785  14.401   8.613
57688SOL     OW74902   1.513  14.214   3.504
57688SOL    HW174903   1.492  14.225   3.597
57688SOL    HW274904   1.505  14.302   3.467
57689SOL     OW74905  14.186  13.316   1.117
57689SOL    HW174906  14.245  13.327   1.042
57689SOL    HW274907  14.156  13.226   1.111
57690SOL     OW74908  13.486  11.021   2.616
57690SOL    HW174909  13.573  11.050   2.643
57690SOL    HW274910  13.455  10.968   2.690
57691SOL     OW74911   9.345   6.476  11.493
57691SOL    HW174912   9.290   6.475  11.572
57691SOL    HW274913   9.406   6.548  11.509
57692SOL     OW74914   9.203   8.303  14.020
57692SOL    HW174915   9.130   8.325  13.962
57692SOL    HW274916   9.181   8.345  14.103
57693SOL     OW74917   4.644   4.284  13.120
57693SOL    HW174918   4.681   4.332  13.046
57693SOL    HW274919   4.551   4.278  13.101
57694SOL     OW74920   3.148  13.448  12.694
57694SOL    HW174921   3.054  13.450  12.715
57694SOL    HW274922   3.191  13.426  12.777
57695SOL     OW74923   5.449   3.668   4.168
57695SOL    HW174924   5.517   3.604   4.145
57695SOL    HW274925   5.497   3.749   4.185
57696SOL     OW74926  12.007   4.019   6.237
57696SOL    HW174927  12.042   4.076   6.168
57696SOL    HW274928  12.070   3.947   6.242
57697SOL     OW74929   9.722  11.940   4.972
57697SOL    HW174930   9.703  11.896   4.889
57697SOL    HW274931   9.654  11.908   5.032
57698SOL     OW74932   1.661   7.077   4.645
57698SOL    HW174933   1.748   7.100   4.612
57698SOL    HW274934   1.602   7.139   4.604
57699SOL     OW74935   4.450   3.508   6.013
57699SOL    HW174936   4.359   3.538   6.008
57699SOL    HW274937   4.497   3.568   5.955
57700SOL     OW74938   9.027   7.229  14.510
57700SOL    HW174939   8.971   7.223  14.588
57700SOL    HW274940   8.980   7.288  14.451
57701SOL     OW74941  11.670   8.042   0.240
57701SOL    HW174942  11.618   8.117   0.210
57701SOL    HW274943  11.607   7.988   0.288
57702SOL     OW74944  14.764   5.352   2.838
57702SOL    HW174945  14.674   5.346   2.806
57702SOL    HW274946  14.756   5.366   2.932
57703SOL     OW74947  10.493   1.901  11.931
57703SOL    HW174948  10.452   1.896  11.845
57703SOL    HW274949  10.577   1.945  11.916
57704SOL     OW74950   5.486   1.705   9.827
57704SOL    HW174951   5.542   1.721   9.903
57704SOL    HW274952   5.421   1.775   9.830
57705SOL     OW74953   8.949  12.971   4.734
57705SOL    HW174954   8.987  13.034   4.671
57705SOL    HW274955   8.857  12.997   4.741
57706SOL     OW74956   0.021   0.012   7.261
57706SOL    HW174957   0.070   0.093   7.275
57706SOL    HW274958   0.080  14.816   7.291
57707SOL     OW74959   5.564  13.364  14.215
57707SOL    HW174960   5.585  13.270  14.215
57707SOL    HW274961   5.521  13.379  14.299
57708SOL     OW74962   9.160  14.030   4.811
57708SOL    HW174963   9.205  14.008   4.893
57708SOL    HW274964   9.211  14.102   4.774
57709SOL     OW74965   1.653   8.402   5.400
57709SOL    HW174966   1.661   8.453   5.481
57709SOL    HW274967   1.744   8.380   5.377
57710SOL     OW74968  12.876  11.971  13.831
57710SOL    HW174969  12.892  11.966  13.925
57710SOL    HW274970  12.942  11.915  13.791
57711SOL     OW74971   7.941  13.835  10.737
57711SOL    HW174972   8.031  13.812  10.761
57711SOL    HW274973   7.949  13.923  10.699
57712SOL     OW74974  13.480   2.874   4.781
57712SOL    HW174975  13.394   2.848   4.751
57712SOL    HW274976  13.465   2.957   4.828
57713SOL     OW74977  12.118  14.457   5.755
57713SOL    HW174978  12.163  14.441   5.839
57713SOL    HW274979  12.120  14.552   5.745
57714SOL     OW74980   1.797   5.184  14.538
57714SOL    HW174981   1.864   5.117  14.548
57714SOL    HW274982   1.812   5.245  14.610
57715SOL     OW74983  14.510   0.179   0.969
57715SOL    HW174984  14.590   0.158   1.017
57715SOL    HW274985  14.539   0.234   0.896
57716SOL     OW74986   7.443  10.103   3.693
57716SOL    HW174987   7.532  10.120   3.661
57716SOL    HW274988   7.415  10.025   3.645
57717SOL     OW74989   5.898  13.549   2.593
57717SOL    HW174990   5.943  13.583   2.516
57717SOL    HW274991   5.964  13.550   2.662
57718SOL     OW74992  10.239   7.046   5.558
57718SOL    HW174993  10.219   7.105   5.631
57718SOL    HW274994  10.334   7.045   5.553
57719SOL     OW74995   0.844  13.094   9.967
57719SOL    HW174996   0.906  13.163   9.945
57719SOL    HW274997   0.794  13.129  10.041
57720SOL     OW74998   9.498   7.037  13.568
57720SOL    HW174999   9.579   7.084  13.549
57720SOL    HW275000   9.456   7.027  13.482
57721SOL     OW75001  11.424   1.600   5.679
57721SOL    HW175002  11.397   1.655   5.753
57721SOL    HW275003  11.390   1.646   5.602
57722SOL     OW75004   9.620   1.222   4.685
57722SOL    HW175005   9.561   1.167   4.737
57722SOL    HW275006   9.660   1.162   4.622
57723SOL     OW75007  12.294  14.636   0.161
57723SOL    HW175008  12.354  14.668   0.229
57723SOL    HW275009  12.226  14.703   0.156
57724SOL     OW75010  11.724   8.711   5.702
57724SOL    HW175011  11.777   8.714   5.622
57724SOL    HW275012  11.782   8.746   5.769
57725SOL     OW75013   6.409  14.766   2.371
57725SOL    HW175014   6.463  14.700   2.414
57725SOL    HW275015   6.468  14.839   2.353
57726SOL     OW75016   8.620  13.146   0.118
57726SOL    HW175017   8.627  13.130   0.024
57726SOL    HW275018   8.686  13.212   0.136
57727SOL     OW75019  14.506   5.651  14.269
57727SOL    HW175020  14.531   5.570  14.225
57727SOL    HW275021  14.413   5.662  14.250
57728SOL     OW75022  12.024   9.616  11.416
57728SOL    HW175023  12.099   9.563  11.388
57728SOL    HW275024  11.983   9.645  11.334
57729SOL     OW75025   2.908   8.549  10.281
57729SOL    HW175026   2.816   8.525  10.271
57729SOL    HW275027   2.955   8.484  10.229
57730SOL     OW75028  14.618  13.689  13.567
57730SOL    HW175029  14.665  13.743  13.630
57730SOL    HW275030  14.674  13.688  13.489
57731SOL     OW75031   6.231   9.990   8.507
57731SOL    HW175032   6.230   9.895   8.493
57731SOL    HW275033   6.164  10.006   8.573
57732SOL     OW75034   1.223  10.866  13.706
57732SOL    HW175035   1.181  10.780  13.700
57732SOL    HW275036   1.156  10.927  13.677
57733SOL     OW75037   0.552   1.243   0.565
57733SOL    HW175038   0.483   1.308   0.549
57733SOL    HW275039   0.524   1.166   0.516
57734SOL     OW75040   2.162  14.203   0.382
57734SOL    HW175041   2.245  14.174   0.420
57734SOL    HW275042   2.106  14.223   0.457
57735SOL     OW75043   4.962   8.847   1.552
57735SOL    HW175044   4.958   8.925   1.607
57735SOL    HW275045   4.995   8.778   1.610
57736SOL     OW75046   7.241   6.310   5.916
57736SOL    HW175047   7.237   6.257   5.837
57736SOL    HW275048   7.255   6.247   5.987
57737SOL     OW75049   9.605  10.871   1.087
57737SOL    HW175050   9.661  10.880   1.164
57737SOL    HW275051   9.664  10.842   1.017
57738SOL     OW75052  13.662   4.766   3.050
57738SOL    HW175053  13.671   4.853   3.088
57738SOL    HW275054  13.610   4.780   2.971
57739SOL     OW75055   6.243   4.467   8.850
57739SOL    HW175056   6.292   4.549   8.844
57739SOL    HW275057   6.220   4.447   8.760
57740SOL     OW75058   2.215   4.530  10.921
57740SOL    HW175059   2.295   4.481  10.905
57740SOL    HW275060   2.182   4.495  11.004
57741SOL     OW75061   0.433   5.491  14.419
57741SOL    HW175062   0.467   5.573  14.455
57741SOL    HW275063   0.463   5.423  14.480
57742SOL     OW75064  11.021  12.679   7.084
57742SOL    HW175065  11.018  12.586   7.061
57742SOL    HW275066  10.932  12.710   7.069
57743SOL     OW75067  11.501   9.592   1.110
57743SOL    HW175068  11.571   9.588   1.045
57743SOL    HW275069  11.503   9.683   1.142
57744SOL     OW75070   8.140   7.941   8.325
57744SOL    HW175071   8.054   7.918   8.359
57744SOL    HW275072   8.201   7.885   8.373
57745SOL     OW75073   5.605   8.675  10.640
57745SOL    HW175074   5.588   8.604  10.577
57745SOL    HW275075   5.695   8.659  10.669
57746SOL     OW75076  13.101  11.385  11.560
57746SOL    HW175077  13.123  11.296  11.587
57746SOL    HW275078  13.009  11.380  11.533
57747SOL     OW75079   1.638   5.107   3.260
57747SOL    HW175080   1.640   5.159   3.340
57747SOL    HW275081   1.709   5.043   3.271
57748SOL     OW75082   7.497  14.798   6.838
57748SOL    HW175083   7.570  14.771   6.782
57748SOL    HW275084   7.433  14.727   6.831
57749SOL     OW75085   4.174  14.320   3.532
57749SOL    HW175086   4.230  14.386   3.573
57749SOL    HW275087   4.217  14.237   3.550
57750SOL     OW75088   8.580  10.037   4.345
57750SOL    HW175089   8.491  10.046   4.310
57750SOL    HW275090   8.597   9.943   4.344
57751SOL     OW75091   7.404   5.502   1.731
57751SOL    HW175092   7.367   5.574   1.782
57751SOL    HW275093   7.341   5.488   1.660
57752SOL     OW75094   2.317   8.658   4.836
57752SOL    HW175095   2.380   8.620   4.775
57752SOL    HW275096   2.236   8.664   4.786
57753SOL     OW75097   8.611   8.785   3.317
57753SOL    HW175098   8.695   8.795   3.273
57753SOL    HW275099   8.633   8.755   3.405
57754SOL     OW75100   7.579  12.474   9.436
57754SOL    HW175101   7.544  12.385   9.437
57754SOL    HW275102   7.641  12.477   9.509
57755SOL     OW75103   4.978   4.264   3.886
57755SOL    HW175104   5.025   4.333   3.839
57755SOL    HW275105   4.958   4.199   3.819
57756SOL     OW75106  10.805  12.899   4.367
57756SOL    HW175107  10.755  12.886   4.287
57756SOL    HW275108  10.829  12.810   4.395
57757SOL     OW75109  14.208   4.143   7.991
57757SOL    HW175110  14.266   4.124   7.918
57757SOL    HW275111  14.179   4.057   8.023
57758SOL     OW75112   6.493   6.673  10.151
57758SOL    HW175113   6.548   6.745  10.181
57758SOL    HW275114   6.454   6.705  10.069
57759SOL     OW75115   6.662   4.407   9.516
57759SOL    HW175116   6.711   4.392   9.596
57759SOL    HW275117   6.629   4.497   9.525
57760SOL     OW75118   6.884   8.994  12.769
57760SOL    HW175119   6.962   8.954  12.730
57760SOL    HW275120   6.873   9.076  12.720
57761SOL     OW75121  14.763   2.813  12.628
57761SOL    HW175122  14.701   2.830  12.699
57761SOL    HW275123  14.848   2.839  12.665
57762SOL     OW75124   3.999  13.244  12.651
57762SOL    HW175125   4.014  13.326  12.699
57762SOL    HW275126   4.082  13.226  12.607
57763SOL     OW75127  14.223   3.689   6.168
57763SOL    HW175128  14.273   3.770   6.168
57763SOL    HW275129  14.289   3.620   6.158
57764SOL     OW75130   6.744   8.521   7.602
57764SOL    HW175131   6.788   8.569   7.672
57764SOL    HW275132   6.814   8.497   7.542
57765SOL     OW75133   5.254   4.869   4.493
57765SOL    HW175134   5.303   4.941   4.533
57765SOL    HW275135   5.253   4.890   4.400
57766SOL     OW75136   1.336   1.653   9.970
57766SOL    HW175137   1.275   1.644   9.896
57766SOL    HW275138   1.392   1.726   9.946
57767SOL     OW75139   0.031   4.768   1.336
57767SOL    HW175140   0.027   4.858   1.369
57767SOL    HW275141   0.107   4.767   1.278
57768SOL     OW75142   3.423  12.422   1.629
57768SOL    HW175143   3.416  12.354   1.695
57768SOL    HW275144   3.367  12.392   1.557
57769SOL     OW75145   3.487   2.759  12.801
57769SOL    HW175146   3.506   2.669  12.827
57769SOL    HW275147   3.490   2.809  12.883
57770SOL     OW75148   5.790  11.577   7.685
57770SOL    HW175149   5.733  11.501   7.697
57770SOL    HW275150   5.770  11.608   7.597
57771SOL     OW75151  14.262   2.954   9.842
57771SOL    HW175152  14.251   3.002   9.924
57771SOL    HW275153  14.218   3.008   9.776
57772SOL     OW75154   2.146   6.364  13.269
57772SOL    HW175155   2.221   6.331  13.318
57772SOL    HW275156   2.116   6.440  13.318
57773SOL     OW75157  10.687   0.385   5.441
57773SOL    HW175158  10.747   0.343   5.379
57773SOL    HW275159  10.636   0.313   5.477
57774SOL     OW75160   3.351   3.389   3.969
57774SOL    HW175161   3.286   3.362   4.034
57774SOL    HW275162   3.431   3.342   3.993
57775SOL     OW75163   1.048   8.267   5.754
57775SOL    HW175164   0.986   8.277   5.826
57775SOL    HW275165   1.128   8.309   5.786
57776SOL     OW75166   5.179  12.872   0.237
57776SOL    HW175167   5.134  12.845   0.318
57776SOL    HW275168   5.256  12.815   0.232
57777SOL     OW75169  12.023   9.309  10.031
57777SOL    HW175170  11.964   9.337  10.101
57777SOL    HW275171  12.090   9.256  10.075
57778SOL     OW75172  12.712   4.927  10.791
57778SOL    HW175173  12.654   4.862  10.751
57778SOL    HW275174  12.684   5.010  10.752
57779SOL     OW75175   2.448  13.311  10.239
57779SOL    HW175176   2.453  13.392  10.289
57779SOL    HW275177   2.423  13.245  10.303
57780SOL     OW75178   8.654   7.823   4.673
57780SOL    HW175179   8.727   7.875   4.706
57780SOL    HW275180   8.576   7.872   4.700
57781SOL     OW75181   9.427   5.775   8.401
57781SOL    HW175182   9.508   5.763   8.450
57781SOL    HW275183   9.380   5.844   8.447
57782SOL     OW75184   6.780   1.184   3.240
57782SOL    HW175185   6.694   1.226   3.247
57782SOL    HW275186   6.764   1.091   3.258
57783SOL     OW75187   4.478  14.545  13.731
57783SOL    HW175188   4.510  14.477  13.672
57783SOL    HW275189   4.399  14.579  13.688
57784SOL     OW75190   9.390   7.631   2.060
57784SOL    HW175191   9.402   7.661   2.150
57784SOL    HW275192   9.315   7.682   2.027
57785SOL     OW75193   3.397  13.717  11.096
57785SOL    HW175194   3.390  13.724  11.191
57785SOL    HW275195   3.451  13.792  11.070
57786SOL     OW75196   0.440   3.377  14.293
57786SOL    HW175197   0.386   3.322  14.349
57786SOL    HW275198   0.404   3.465  14.303
57787SOL     OW75199   5.130  12.554  14.469
57787SOL    HW175200   5.082  12.483  14.427
57787SOL    HW275201   5.063  12.619  14.491
57788SOL     OW75202  11.379  10.317   7.250
57788SOL    HW175203  11.370  10.255   7.321
57788SOL    HW275204  11.293  10.317   7.207
57789SOL     OW75205   6.975   4.554   5.335
57789SOL    HW175206   7.024   4.552   5.253
57789SOL    HW275207   6.987   4.467   5.373
57790SOL     OW75208   9.119   3.171   1.506
57790SOL    HW175209   9.031   3.143   1.479
57790SOL    HW275210   9.113   3.266   1.511
57791SOL     OW75211  14.116  12.648   9.348
57791SOL    HW175212  14.062  12.658   9.427
57791SOL    HW275213  14.196  12.696   9.368
57792SOL     OW75214   5.947   9.887  10.267
57792SOL    HW175215   5.941   9.900  10.173
57792SOL    HW275216   6.037   9.913  10.289
57793SOL     OW75217  14.221   8.545  11.715
57793SOL    HW175218  14.178   8.628  11.694
57793SOL    HW275219  14.163   8.503  11.779
57794SOL     OW75220   1.313   3.448  13.492
57794SOL    HW175221   1.350   3.360  13.499
57794SOL    HW275222   1.364   3.490  13.422
57795SOL     OW75223   9.245  11.362  10.456
57795SOL    HW175224   9.304  11.335  10.526
57795SOL    HW275225   9.246  11.289  10.394
57796SOL     OW75226   8.521  11.252   3.622
57796SOL    HW175227   8.468  11.327   3.650
57796SOL    HW275228   8.479  11.177   3.664
57797SOL     OW75229   1.588  11.243   9.693
57797SOL    HW175230   1.573  11.324   9.743
57797SOL    HW275231   1.598  11.175   9.761
57798SOL     OW75232   8.833   6.455   0.036
57798SOL    HW175233   8.810   6.400  14.835
57798SOL    HW275234   8.748   6.484   0.071
57799SOL     OW75235   2.505  14.062   0.862
57799SOL    HW175236   2.571  14.009   0.816
57799SOL    HW275237   2.554  14.108   0.930
57800SOL     OW75238  14.732  14.289   9.069
57800SOL    HW175239  14.781  14.227   9.123
57800SOL    HW275240  14.796  14.357   9.047
57801SOL     OW75241   1.914   7.051   2.454
57801SOL    HW175242   1.847   7.113   2.485
57801SOL    HW275243   1.952   7.016   2.535
57802SOL     OW75244  12.445   6.252   0.718
57802SOL    HW175245  12.426   6.189   0.649
57802SOL    HW275246  12.408   6.334   0.686
57803SOL     OW75247   5.377   4.079   2.633
57803SOL    HW175248   5.384   3.986   2.656
57803SOL    HW275249   5.462   4.101   2.595
57804SOL     OW75250   9.652  11.259   7.392
57804SOL    HW175251   9.608  11.299   7.317
57804SOL    HW275252   9.653  11.328   7.458
57805SOL     OW75253   2.581  11.418  12.953
57805SOL    HW175254   2.675  11.433  12.965
57805SOL    HW275255   2.566  11.435  12.860
57806SOL     OW75256  12.310   1.718   5.745
57806SOL    HW175257  12.361   1.655   5.796
57806SOL    HW275258  12.340   1.804   5.776
57807SOL     OW75259   5.766   7.793   1.692
57807SOL    HW175260   5.786   7.886   1.678
57807SOL    HW275261   5.696   7.774   1.630
57808SOL     OW75262   4.822  11.789   2.050
57808SOL    HW175263   4.772  11.844   2.110
57808SOL    HW275264   4.794  11.700   2.070
57809SOL     OW75265   0.498  14.719  11.691
57809SOL    HW175266   0.487  14.793  11.631
57809SOL    HW275267   0.416  14.671  11.685
57810SOL     OW75268   8.127   8.540   6.051
57810SOL    HW175269   8.104   8.466   6.106
57810SOL    HW275270   8.205   8.511   6.003
57811SOL     OW75271   2.344   4.947   4.961
57811SOL    HW175272   2.390   4.873   5.000
57811SOL    HW275273   2.294   4.985   5.032
57812SOL     OW75274  12.316   0.896   6.824
57812SOL    HW175275  12.268   0.882   6.906
57812SOL    HW275276  12.314   0.810   6.781
57813SOL     OW75277  14.282  10.749  13.068
57813SOL    HW175278  14.339  10.772  12.995
57813SOL    HW275279  14.262  10.832  13.111
57814SOL     OW75280   9.727   7.980   7.830
57814SOL    HW175281   9.814   7.951   7.803
57814SOL    HW275282   9.732   7.984   7.926
57815SOL     OW75283   7.607  13.358   1.330
57815SOL    HW175284   7.633  13.343   1.239
57815SOL    HW275285   7.674  13.312   1.381
57816SOL     OW75286   2.330  14.200  12.177
57816SOL    HW175287   2.295  14.170  12.093
57816SOL    HW275288   2.289  14.286  12.190
57817SOL     OW75289   7.539  14.057   0.029
57817SOL    HW175290   7.472  13.989   0.016
57817SOL    HW275291   7.571  14.042   0.118
57818SOL     OW75292   8.043   4.720   8.665
57818SOL    HW175293   7.949   4.700   8.670
57818SOL    HW275294   8.049   4.810   8.697
57819SOL     OW75295  13.030   7.062   5.031
57819SOL    HW175296  13.076   6.979   5.020
57819SOL    HW275297  13.046   7.087   5.122
57820SOL     OW75298   1.147   0.753   3.309
57820SOL    HW175299   1.227   0.763   3.258
57820SOL    HW275300   1.176   0.741   3.399
57821SOL     OW75301  12.950  11.335   2.486
57821SOL    HW175302  12.913  11.290   2.563
57821SOL    HW275303  13.031  11.375   2.518
57822SOL     OW75304   4.911   2.152   0.580
57822SOL    HW175305   4.830   2.132   0.627
57822SOL    HW275306   4.976   2.092   0.618
57823SOL     OW75307  12.423   3.553   7.444
57823SOL    HW175308  12.487   3.554   7.516
57823SOL    HW275309  12.470   3.592   7.370
57824SOL     OW75310  14.091  10.466   1.530
57824SOL    HW175311  14.006  10.506   1.512
57824SOL    HW275312  14.152  10.539   1.531
57825SOL     OW75313   8.877   5.959   4.461
57825SOL    HW175314   8.837   5.990   4.542
57825SOL    HW275315   8.839   6.013   4.392
57826SOL     OW75316   8.733   9.332   1.658
57826SOL    HW175317   8.661   9.396   1.660
57826SOL    HW275318   8.736   9.297   1.747
57827SOL     OW75319   8.023   4.866  12.477
57827SOL    HW175320   7.943   4.842  12.430
57827SOL    HW275321   8.031   4.801  12.547
57828SOL     OW75322   1.684   2.505   7.401
57828SOL    HW175323   1.762   2.549   7.367
57828SOL    HW275324   1.718   2.424   7.439
57829SOL     OW75325   9.209   6.397   2.061
57829SOL    HW175326   9.219   6.355   1.975
57829SOL    HW275327   9.293   6.441   2.075
57830SOL     OW75328  13.287  14.448  11.602
57830SOL    HW175329  13.296  14.515  11.535
57830SOL    HW275330  13.247  14.374  11.556
57831SOL     OW75331   4.370   4.725   1.391
57831SOL    HW175332   4.445   4.772   1.428
57831SOL    HW275333   4.323   4.692   1.467
57832SOL     OW75334  12.259  12.741   8.996
57832SOL    HW175335  12.263  12.764   8.903
57832SOL    HW275336  12.192  12.799   9.032
57833SOL     OW75337   1.448   0.052   6.803
57833SOL    HW175338   1.496  14.851   6.839
57833SOL    HW275339   1.433   0.109   6.878
57834SOL     OW75340  14.472   4.309   0.959
57834SOL    HW175341  14.418   4.230   0.966
57834SOL    HW275342  14.554   4.286   1.005
57835SOL     OW75343   2.887   8.322   9.473
57835SOL    HW175344   2.837   8.385   9.524
57835SOL    HW275345   2.930   8.267   9.538
57836SOL     OW75346   4.758   4.036  13.122
57836SOL    HW175347   4.727   4.124  13.146
57836SOL    HW275348   4.766   4.039  13.027
57837SOL     OW75349   7.895   7.173  12.537
57837SOL    HW175350   7.927   7.263  12.523
57837SOL    HW275351   7.807   7.173  12.498
57838SOL     OW75352   1.213   4.316  10.668
57838SOL    HW175353   1.262   4.259  10.609
57838SOL    HW275354   1.127   4.274  10.676
57839SOL     OW75355  13.327  13.462   0.690
57839SOL    HW175356  13.387  13.398   0.653
57839SOL    HW275357  13.241  13.420   0.685
57840SOL     OW75358  12.590  12.809   5.695
57840SOL    HW175359  12.510  12.836   5.652
57840SOL    HW275360  12.629  12.745   5.635
57841SOL     OW75361   3.572   6.048  11.655
57841SOL    HW175362   3.490   6.095  11.671
57841SOL    HW275363   3.577   6.042  11.559
57842SOL     OW75364  10.001   6.211   4.678
57842SOL    HW175365  10.056   6.146   4.721
57842SOL    HW275366   9.912   6.191   4.707
57843SOL     OW75367  12.230   6.385   8.437
57843SOL    HW175368  12.313   6.416   8.402
57843SOL    HW275369  12.243   6.384   8.532
57844SOL     OW75370   9.301   0.719   5.780
57844SOL    HW175371   9.209   0.728   5.754
57844SOL    HW275372   9.301   0.737   5.874
57845SOL     OW75373  12.717   5.189  14.562
57845SOL    HW175374  12.760   5.234  14.634
57845SOL    HW275375  12.647   5.138  14.603
57846SOL     OW75376  10.148   9.149  14.679
57846SOL    HW175377  10.137   9.186  14.591
57846SOL    HW275378  10.203   9.071  14.666
57847SOL     OW75379   8.974   0.042  10.025
57847SOL    HW175380   8.927  14.867  10.093
57847SOL    HW275381   8.947   0.001   9.943
57848SOL     OW75382  10.753   4.821   9.302
57848SOL    HW175383  10.704   4.752   9.257
57848SOL    HW275384  10.688   4.888   9.320
57849SOL     OW75385  14.665   0.974   2.504
57849SOL    HW175386  14.671   0.891   2.457
57849SOL    HW275387  14.600   0.958   2.572
57850SOL     OW75388   4.169  11.480   8.133
57850SOL    HW175389   4.121  11.425   8.196
57850SOL    HW275390   4.173  11.566   8.175
57851SOL     OW75391  10.769   3.796   9.285
57851SOL    HW175392  10.739   3.781   9.195
57851SOL    HW275393  10.714   3.868   9.317
57852SOL     OW75394   6.742   2.216   2.860
57852SOL    HW175395   6.837   2.214   2.845
57852SOL    HW275396   6.712   2.130   2.831
57853SOL     OW75397   4.552   7.704  11.234
57853SOL    HW175398   4.492   7.659  11.173
57853SOL    HW275399   4.584   7.635  11.291
57854SOL     OW75400   9.382  10.597   7.797
57854SOL    HW175401   9.377  10.652   7.875
57854SOL    HW275402   9.470  10.610   7.763
57855SOL     OW75403  13.954  14.745  12.721
57855SOL    HW175404  13.985  14.669  12.674
57855SOL    HW275405  13.973  14.726  12.813
57856SOL     OW75406   4.381   3.175  12.635
57856SOL    HW175407   4.405   3.117  12.707
57856SOL    HW275408   4.409   3.262  12.663
57857SOL     OW75409   6.744   8.964  11.584
57857SOL    HW175410   6.788   8.948  11.500
57857SOL    HW275411   6.654   8.937  11.570
57858SOL     OW75412   8.222   3.321   6.923
57858SOL    HW175413   8.295   3.267   6.955
57858SOL    HW275414   8.173   3.344   7.002
57859SOL     OW75415   6.575   6.993   2.051
57859SOL    HW175416   6.504   7.055   2.039
57859SOL    HW275417   6.558   6.924   1.986
57860SOL     OW75418   3.459  13.770   8.970
57860SOL    HW175419   3.380  13.722   8.993
57860SOL    HW275420   3.476  13.827   9.045
57861SOL     OW75421   2.686  14.488   9.720
57861SOL    HW175422   2.643  14.571   9.699
57861SOL    HW275423   2.740  14.468   9.643
57862SOL     OW75424  11.303   0.133   7.866
57862SOL    HW175425  11.351   0.214   7.850
57862SOL    HW275426  11.293   0.129   7.961
57863SOL     OW75427   4.113  12.515   6.165
57863SOL    HW175428   4.124  12.466   6.247
57863SOL    HW275429   4.149  12.457   6.098
57864SOL     OW75430   0.968   6.033   1.652
57864SOL    HW175431   1.031   5.966   1.679
57864SOL    HW275432   1.020   6.097   1.605
57865SOL     OW75433   5.311  11.661   6.901
57865SOL    HW175434   5.275  11.746   6.924
57865SOL    HW275435   5.404  11.668   6.920
57866SOL     OW75436   4.165   7.205   3.360
57866SOL    HW175437   4.153   7.280   3.417
57866SOL    HW275438   4.199   7.241   3.278
57867SOL     OW75439   2.920  10.817  14.200
57867SOL    HW175440   2.957  10.851  14.119
57867SOL    HW275441   2.828  10.802  14.179
57868SOL     OW75442   7.609  11.309  11.818
57868SOL    HW175443   7.657  11.339  11.741
57868SOL    HW275444   7.665  11.241  11.856
57869SOL     OW75445   5.333   1.791   2.575
57869SOL    HW175446   5.368   1.746   2.499
57869SOL    HW275447   5.326   1.882   2.548
57870SOL     OW75448  14.127   6.256   6.975
57870SOL    HW175449  14.110   6.350   6.987
57870SOL    HW275450  14.164   6.250   6.886
57871SOL     OW75451   4.292   4.668  11.266
57871SOL    HW175452   4.357   4.639  11.201
57871SOL    HW275453   4.217   4.697  11.214
57872SOL     OW75454   9.437  14.466   9.581
57872SOL    HW175455   9.505  14.408   9.546
57872SOL    HW275456   9.439  14.543   9.524
57873SOL     OW75457   7.341   9.211   7.980
57873SOL    HW175458   7.417   9.212   8.038
57873SOL    HW275459   7.275   9.263   8.026
57874SOL     OW75460  12.017  11.783   3.241
57874SOL    HW175461  11.988  11.761   3.329
57874SOL    HW275462  12.078  11.856   3.253
57875SOL     OW75463   6.941   4.658  10.899
57875SOL    HW175464   6.872   4.594  10.882
57875SOL    HW275465   6.981   4.673  10.813
57876SOL     OW75466  10.908  12.529   9.101
57876SOL    HW175467  10.954  12.450   9.072
57876SOL    HW275468  10.976  12.583   9.141
57877SOL     OW75469   0.615   6.436   4.442
57877SOL    HW175470   0.646   6.373   4.377
57877SOL    HW275471   0.541   6.392   4.485
57878SOL     OW75472  11.485  13.517   5.467
57878SOL    HW175473  11.458  13.477   5.549
57878SOL    HW275474  11.580  13.530   5.477
57879SOL     OW75475   5.673   2.960   2.786
57879SOL    HW175476   5.769   2.970   2.788
57879SOL    HW275477   5.641   3.048   2.764
57880SOL     OW75478  14.199   7.677  12.499
57880SOL    HW175479  14.272   7.651  12.444
57880SOL    HW275480  14.158   7.750  12.453
57881SOL     OW75481   7.210  13.121  10.235
57881SOL    HW175482   7.235  13.031  10.214
57881SOL    HW275483   7.150  13.147  10.165
57882SOL     OW75484  10.887   6.342  10.256
57882SOL    HW175485  10.970   6.326  10.302
57882SOL    HW275486  10.899   6.428  10.216
57883SOL     OW75487  12.059  14.703   1.724
57883SOL    HW175488  12.146  14.743   1.726
57883SOL    HW275489  12.002  14.766   1.768
57884SOL     OW75490   1.887   9.269   9.539
57884SOL    HW175491   1.841   9.348   9.511
57884SOL    HW275492   1.818   9.212   9.572
57885SOL     OW75493   9.215   8.369   0.185
57885SOL    HW175494   9.194   8.457   0.154
57885SOL    HW275495   9.271   8.383   0.261
57886SOL     OW75496   8.328   0.610  10.653
57886SOL    HW175497   8.378   0.597  10.734
57886SOL    HW275498   8.385   0.663  10.598
57887SOL     OW75499   4.817   7.773   4.115
57887SOL    HW175500   4.857   7.686   4.125
57887SOL    HW275501   4.864   7.813   4.042
57888SOL     OW75502   8.146   5.239   9.672
57888SOL    HW175503   8.241   5.236   9.662
57888SOL    HW275504   8.129   5.329   9.701
57889SOL     OW75505  10.322   6.088   6.964
57889SOL    HW175506  10.324   6.129   7.050
57889SOL    HW275507  10.298   6.158   6.904
57890SOL     OW75508  10.995   3.831   9.464
57890SOL    HW175509  11.065   3.859   9.405
57890SOL    HW275510  10.927   3.797   9.406
57891SOL     OW75511  11.867  12.849  13.569
57891SOL    HW175512  11.866  12.754  13.574
57891SOL    HW275513  11.824  12.870  13.486
57892SOL     OW75514   8.486   7.362   4.329
57892SOL    HW175515   8.442   7.387   4.248
57892SOL    HW275516   8.578   7.381   4.314
57893SOL     OW75517   8.558   0.115  10.981
57893SOL    HW175518   8.537   0.105  10.888
57893SOL    HW275519   8.519   0.038  11.023
57894SOL     OW75520   8.346  13.143   8.345
57894SOL    HW175521   8.423  13.199   8.341
57894SOL    HW275522   8.310  13.157   8.433
57895SOL     OW75523   4.781   7.048  12.706
57895SOL    HW175524   4.761   7.025  12.616
57895SOL    HW275525   4.704   7.096  12.736
57896SOL     OW75526   8.062   0.275  13.862
57896SOL    HW175527   7.977   0.252  13.824
57896SOL    HW275528   8.120   0.285  13.787
57897SOL     OW75529   9.561  14.145  11.135
57897SOL    HW175530   9.614  14.159  11.056
57897SOL    HW275531   9.472  14.167  11.108
57898SOL     OW75532   9.322   6.286  12.972
57898SOL    HW175533   9.333   6.197  12.939
57898SOL    HW275534   9.306   6.338  12.893
57899SOL     OW75535   6.665  11.787  12.578
57899SOL    HW175536   6.744  11.801  12.527
57899SOL    HW275537   6.694  11.789  12.669
57900SOL     OW75538   2.748  13.426   2.972
57900SOL    HW175539   2.803  13.381   3.037
57900SOL    HW275540   2.810  13.466   2.912
57901SOL     OW75541   7.390  11.672   1.074
57901SOL    HW175542   7.331  11.739   1.040
57901SOL    HW275543   7.381  11.680   1.169
57902SOL     OW75544   5.089  12.271   6.054
57902SOL    HW175545   5.047  12.343   6.008
57902SOL    HW275546   5.165  12.249   6.000
57903SOL     OW75547   5.899   2.462   8.317
57903SOL    HW175548   5.990   2.470   8.289
57903SOL    HW275549   5.849   2.452   8.236
57904SOL     OW75550  10.977   1.877   1.413
57904SOL    HW175551  11.047   1.917   1.464
57904SOL    HW275552  11.020   1.850   1.331
57905SOL     OW75553   7.109  11.605   1.796
57905SOL    HW175554   7.013  11.613   1.798
57905SOL    HW275555   7.124  11.515   1.769
57906SOL     OW75556  12.015  13.907   9.174
57906SOL    HW175557  12.087  13.970   9.178
57906SOL    HW275558  12.020  13.871   9.085
57907SOL     OW75559   7.346   2.945  13.986
57907SOL    HW175560   7.341   2.981  13.898
57907SOL    HW275561   7.348   3.022  14.043
57908SOL     OW75562   3.274  13.128   6.945
57908SOL    HW175563   3.212  13.181   6.894
57908SOL    HW275564   3.250  13.144   7.036
57909SOL     OW75565   1.457  13.412   8.978
57909SOL    HW175566   1.449  13.507   8.985
57909SOL    HW275567   1.466  13.396   8.884
57910SOL     OW75568   9.426   0.484   1.972
57910SOL    HW175569   9.389   0.397   1.954
57910SOL    HW275570   9.420   0.530   1.888
57911SOL     OW75571   5.450   2.250  13.306
57911SOL    HW175572   5.538   2.222  13.329
57911SOL    HW275573   5.423   2.308  13.378
57912SOL     OW75574  13.756  12.602   1.415
57912SOL    HW175575  13.829  12.545   1.393
57912SOL    HW275576  13.680  12.544   1.416
57913SOL     OW75577  13.185   4.038   9.739
57913SOL    HW175578  13.166   3.945   9.732
57913SOL    HW275579  13.189   4.055   9.833
57914SOL     OW75580  12.983   9.704  13.643
57914SOL    HW175581  13.027   9.787  13.628
57914SOL    HW275582  12.971   9.699  13.738
57915SOL     OW75583   8.723   5.891   1.829
57915SOL    HW175584   8.799   5.856   1.876
57915SOL    HW275585   8.754   5.901   1.739
57916SOL     OW75586  11.291  12.503  13.096
57916SOL    HW175587  11.254  12.451  13.024
57916SOL    HW275588  11.327  12.581  13.054
57917SOL     OW75589  13.141   2.897   9.386
57917SOL    HW175590  13.169   2.925   9.298
57917SOL    HW275591  13.204   2.939   9.445
57918SOL     OW75592  12.642   2.054   0.567
57918SOL    HW175593  12.614   2.131   0.615
57918SOL    HW275594  12.606   1.980   0.616
57919SOL     OW75595  13.280   8.003   4.206
57919SOL    HW175596  13.320   7.917   4.212
57919SOL    HW275597  13.349   8.059   4.172
57920SOL     OW75598  12.607  12.066   0.168
57920SOL    HW175599  12.649  12.149   0.189
57920SOL    HW275600  12.667  12.022   0.108
57921SOL     OW75601   1.103  11.533   3.519
57921SOL    HW175602   1.153  11.603   3.560
57921SOL    HW275603   1.058  11.575   3.446
57922SOL     OW75604   2.297   0.253  14.647
57922SOL    HW175605   2.341   0.194  14.708
57922SOL    HW275606   2.313   0.340  14.682
57923SOL     OW75607  12.465   5.171   0.245
57923SOL    HW175608  12.475   5.256   0.203
57923SOL    HW275609  12.406   5.122   0.188
57924SOL     OW75610  10.043  11.197   5.302
57924SOL    HW175611   9.983  11.148   5.245
57924SOL    HW275612  10.041  11.149   5.385
57925SOL     OW75613  14.818  13.471  14.155
57925SOL    HW175614  14.741  13.417  14.172
57925SOL    HW275615  14.783  13.560  14.146
57926SOL     OW75616   3.648   9.154  13.997
57926SOL    HW175617   3.661   9.238  14.042
57926SOL    HW275618   3.555   9.155  13.973
57927SOL     OW75619  13.055   6.247   3.237
57927SOL    HW175620  13.060   6.151   3.232
57927SOL    HW275621  13.147   6.275   3.240
57928SOL     OW75622   0.352  14.380   8.369
57928SOL    HW175623   0.310  14.319   8.430
57928SOL    HW275624   0.324  14.467   8.399
57929SOL     OW75625   4.023   4.341   2.629
57929SOL    HW175626   4.066   4.410   2.679
57929SOL    HW275627   3.947   4.384   2.589
57930SOL     OW75628   1.485   0.658   0.004
57930SOL    HW175629   1.573   0.619   0.009
57930SOL    HW275630   1.457   0.665   0.096
57931SOL     OW75631   4.353  10.116   0.847
57931SOL    HW175632   4.306  10.042   0.808
57931SOL    HW275633   4.286  10.182   0.862
57932SOL     OW75634  13.845   7.204   5.752
57932SOL    HW175635  13.849   7.299   5.755
57932SOL    HW275636  13.779   7.180   5.817
57933SOL     OW75637   6.841  11.404  12.100
57933SOL    HW175638   6.856  11.488  12.056
57933SOL    HW275639   6.764  11.367  12.056
57934SOL     OW75640  11.641   6.644   1.288
57934SOL    HW175641  11.647   6.643   1.383
57934SOL    HW275642  11.560   6.598   1.268
57935SOL     OW75643  13.792   8.879   4.426
57935SOL    HW175644  13.698   8.894   4.431
57935SOL    HW275645  13.804   8.789   4.458
57936SOL     OW75646   5.997  11.875   5.253
57936SOL    HW175647   6.055  11.932   5.202
57936SOL    HW275648   6.032  11.787   5.239
57937SOL     OW75649  13.417  10.735   3.811
57937SOL    HW175650  13.367  10.655   3.829
57937SOL    HW275651  13.443  10.767   3.897
57938SOL     OW75652   2.319   3.778   2.947
57938SOL    HW175653   2.319   3.703   2.887
57938SOL    HW275654   2.387   3.836   2.911
57939SOL     OW75655   0.945  14.651   0.178
57939SOL    HW175656   0.882  14.591   0.137
57939SOL    HW275657   0.971  14.608   0.259
57940SOL     OW75658   0.397   6.203   9.000
57940SOL    HW175659   0.304   6.194   9.019
57940SOL    HW275660   0.433   6.114   9.012
57941SOL     OW75661   5.832  11.206  14.493
57941SOL    HW175662   5.814  11.162  14.410
57941SOL    HW275663   5.924  11.232  14.487
57942SOL     OW75664   0.202   5.141   8.723
57942SOL    HW175665   0.137   5.073   8.740
57942SOL    HW275666   0.248   5.112   8.644
57943SOL     OW75667  14.680   2.327   7.873
57943SOL    HW175668  14.775   2.340   7.881
57943SOL    HW275669  14.652   2.392   7.808
57944SOL     OW75670   9.655  10.093   8.671
57944SOL    HW175671   9.704  10.143   8.736
57944SOL    HW275672   9.722  10.051   8.618
57945SOL     OW75673  11.420   2.607  14.708
57945SOL    HW175674  11.332   2.641  14.724
57945SOL    HW275675  11.463   2.612  14.793
57946SOL     OW75676   0.343  13.307  14.754
57946SOL    HW175677   0.435  13.330  14.739
57946SOL    HW275678   0.297  13.390  14.754
57947SOL     OW75679  13.992   4.339   9.839
57947SOL    HW175680  14.004   4.379   9.926
57947SOL    HW275681  13.947   4.256   9.857
57948SOL     OW75682   7.050   1.117  12.005
57948SOL    HW175683   7.107   1.191  11.980
57948SOL    HW275684   7.068   1.104  12.098
57949SOL     OW75685  12.177   3.147   5.431
57949SOL    HW175686  12.244   3.143   5.499
57949SOL    HW275687  12.207   3.085   5.364
57950SOL     OW75688   9.858  11.510   0.081
57950SOL    HW175689   9.836  11.465   0.163
57950SOL    HW275690   9.848  11.443   0.013
57951SOL     OW75691  12.077   1.794   7.491
57951SOL    HW175692  11.982   1.781   7.490
57951SOL    HW275693  12.109   1.732   7.557
57952SOL     OW75694   0.263  12.885  10.815
57952SOL    HW175695   0.339  12.914  10.867
57952SOL    HW275696   0.188  12.902  10.872
57953SOL     OW75697   8.405   4.854   5.291
57953SOL    HW175698   8.319   4.815   5.307
57953SOL    HW275699   8.421   4.908   5.369
57954SOL     OW75700   5.003  14.830   4.791
57954SOL    HW175701   4.974  14.741   4.771
57954SOL    HW275702   5.050  14.858   4.712
57955SOL     OW75703   1.029   5.825   0.680
57955SOL    HW175704   0.985   5.786   0.756
57955SOL    HW275705   1.121   5.801   0.690
57956SOL     OW75706   8.724   3.534   9.752
57956SOL    HW175707   8.800   3.551   9.808
57956SOL    HW275708   8.749   3.458   9.700
57957SOL     OW75709   9.660   9.924   4.816
57957SOL    HW175710   9.616  10.001   4.854
57957SOL    HW275711   9.651   9.856   4.882
57958SOL     OW75712   9.513   9.383   1.697
57958SOL    HW175713   9.438   9.403   1.642
57958SOL    HW275714   9.497   9.430   1.779
57959SOL     OW75715  12.408   8.294   7.785
57959SOL    HW175716  12.369   8.359   7.842
57959SOL    HW275717  12.334   8.241   7.754
57960SOL     OW75718   3.727   9.727   4.199
57960SOL    HW175719   3.701   9.749   4.289
57960SOL    HW275720   3.674   9.651   4.177
57961SOL     OW75721  12.776   6.235   6.712
57961SOL    HW175722  12.691   6.249   6.671
57961SOL    HW275723  12.760   6.170   6.780
57962SOL     OW75724   2.512   2.958   8.452
57962SOL    HW175725   2.605   2.949   8.430
57962SOL    HW275726   2.470   2.883   8.410
57963SOL     OW75727   4.411   2.825  12.195
57963SOL    HW175728   4.472   2.792  12.129
57963SOL    HW275729   4.335   2.853  12.145
57964SOL     OW75730   0.900   6.627   8.903
57964SOL    HW175731   0.987   6.666   8.906
57964SOL    HW275732   0.903   6.566   8.830
57965SOL     OW75733   5.557   4.198   4.185
57965SOL    HW175734   5.628   4.191   4.121
57965SOL    HW275735   5.568   4.285   4.224
57966SOL     OW75736   1.485   4.231  14.617
57966SOL    HW175737   1.432   4.152  14.632
57966SOL    HW275738   1.567   4.198  14.580
57967SOL     OW75739  12.259   6.083   7.123
57967SOL    HW175740  12.340   6.114   7.165
57967SOL    HW275741  12.192   6.146   7.151
57968SOL     OW75742   1.899  12.098  14.128
57968SOL    HW175743   1.825  12.143  14.167
57968SOL    HW275744   1.904  12.133  14.039
57969SOL     OW75745   2.463   3.598  11.191
57969SOL    HW175746   2.417   3.591  11.275
57969SOL    HW275747   2.513   3.517  11.185
57970SOL     OW75748   0.262  11.432   5.299
57970SOL    HW175749   0.348  11.390   5.305
57970SOL    HW275750   0.233  11.415   5.210
57971SOL     OW75751   6.027   6.325   0.115
57971SOL    HW175752   6.095   6.283   0.168
57971SOL    HW275753   6.065   6.408   0.088
57972SOL     OW75754   7.883   9.284  14.211
57972SOL    HW175755   7.954   9.336  14.249
57972SOL    HW275756   7.808   9.343  14.209
57973SOL     OW75757   1.400   9.621  14.805
57973SOL    HW175758   1.443   9.622  14.719
57973SOL    HW275759   1.308   9.603  14.785
57974SOL     OW75760  11.862  13.881  12.624
57974SOL    HW175761  11.878  13.946  12.556
57974SOL    HW275762  11.944  13.832  12.630
57975SOL     OW75763   7.582   0.155   5.933
57975SOL    HW175764   7.672   0.175   5.958
57975SOL    HW275765   7.529   0.223   5.975
57976SOL     OW75766  13.154  10.271  13.943
57976SOL    HW175767  13.200  10.214  14.005
57976SOL    HW275768  13.155  10.357  13.986
57977SOL     OW75769   4.014  12.117  11.221
57977SOL    HW175770   4.016  12.176  11.146
57977SOL    HW275771   4.035  12.031  11.185
57978SOL     OW75772   7.040   8.854   0.582
57978SOL    HW175773   7.078   8.915   0.645
57978SOL    HW275774   6.996   8.910   0.518
57979SOL     OW75775  14.170   0.487   3.658
57979SOL    HW175776  14.185   0.581   3.665
57979SOL    HW275777  14.158   0.458   3.749
57980SOL     OW75778  10.870   2.859  14.831
57980SOL    HW175779  10.931   2.927  14.803
57980SOL    HW275780  10.867   2.868   0.053
57981SOL     OW75781  10.750   5.912   6.990
57981SOL    HW175782  10.764   5.957   7.074
57981SOL    HW275783  10.696   5.973   6.939
57982SOL     OW75784   6.502   4.773   2.058
57982SOL    HW175785   6.435   4.705   2.062
57982SOL    HW275786   6.552   4.762   2.139
57983SOL     OW75787   7.253   9.288   8.513
57983SOL    HW175788   7.211   9.215   8.558
57983SOL    HW275789   7.344   9.260   8.503
57984SOL     OW75790  10.899  12.917  11.956
57984SOL    HW175791  10.847  12.980  11.906
57984SOL    HW275792  10.835  12.864  12.003
57985SOL     OW75793   1.918  14.423   2.828
57985SOL    HW175794   1.929  14.485   2.756
57985SOL    HW275795   1.833  14.446   2.866
57986SOL     OW75796   1.187  13.649   7.427
57986SOL    HW175797   1.178  13.655   7.332
57986SOL    HW275798   1.131  13.575   7.452
57987SOL     OW75799   1.437  12.084   5.857
57987SOL    HW175800   1.522  12.115   5.887
57987SOL    HW275801   1.374  12.122   5.918
57988SOL     OW75802  11.572  10.467   7.369
57988SOL    HW175803  11.538  10.557   7.373
57988SOL    HW275804  11.515  10.423   7.306
57989SOL     OW75805   1.848   3.550   6.536
57989SOL    HW175806   1.826   3.522   6.447
57989SOL    HW275807   1.885   3.637   6.525
57990SOL     OW75808   3.839   3.638   9.801
57990SOL    HW175809   3.769   3.578   9.775
57990SOL    HW275810   3.880   3.596   9.877
57991SOL     OW75811   7.007  13.388   9.285
57991SOL    HW175812   7.017  13.483   9.285
57991SOL    HW275813   7.095  13.355   9.300
57992SOL     OW75814   1.489   9.339   1.705
57992SOL    HW175815   1.543   9.380   1.638
57992SOL    HW275816   1.506   9.390   1.784
57993SOL     OW75817   1.625  14.590  12.853
57993SOL    HW175818   1.642  14.647  12.928
57993SOL    HW275819   1.621  14.502  12.890
57994SOL     OW75820   1.308   5.562   6.842
57994SOL    HW175821   1.292   5.491   6.904
57994SOL    HW275822   1.221   5.584   6.808
57995SOL     OW75823  10.400  14.520   3.355
57995SOL    HW175824  10.410  14.428   3.330
57995SOL    HW275825  10.490  14.552   3.363
57996SOL     OW75826   3.569   8.198   3.222
57996SOL    HW175827   3.653   8.232   3.254
57996SOL    HW275828   3.587   8.166   3.134
57997SOL     OW75829  14.295   4.637   7.688
57997SOL    HW175830  14.239   4.706   7.651
57997SOL    HW275831  14.292   4.652   7.783
57998SOL     OW75832  10.393   9.205   7.737
57998SOL    HW175833  10.346   9.167   7.811
57998SOL    HW275834  10.440   9.131   7.698
57999SOL     OW75835   6.846   5.069   1.184
57999SOL    HW175836   6.829   5.130   1.112
57999SOL    HW275837   6.767   5.016   1.189
58000SOL     OW75838   0.969   0.502   2.745
58000SOL    HW175839   0.936   0.532   2.660
58000SOL    HW275840   0.895   0.512   2.804
58001SOL     OW75841   1.129   5.727   6.451
58001SOL    HW175842   1.169   5.801   6.496
58001SOL    HW275843   1.113   5.663   6.520
58002SOL     OW75844   3.723   4.659  11.605
58002SOL    HW175845   3.747   4.729  11.666
58002SOL    HW275846   3.628   4.654  11.610
58003SOL     OW75847  13.070  10.257   2.972
58003SOL    HW175848  13.041  10.277   2.883
58003SOL    HW275849  13.005  10.194   3.005
58004SOL     OW75850  12.734   0.122   4.640
58004SOL    HW175851  12.640   0.142   4.631
58004SOL    HW275852  12.757   0.079   4.558
58005SOL     OW75853   3.088  13.612   8.088
58005SOL    HW175854   3.159  13.659   8.044
58005SOL    HW275855   3.043  13.566   8.017
58006SOL     OW75856  13.825   3.085  13.678
58006SOL    HW175857  13.770   3.046  13.746
58006SOL    HW275858  13.818   3.179  13.692
58007SOL     OW75859   5.461  12.823   4.341
58007SOL    HW175860   5.526  12.894   4.338
58007SOL    HW275861   5.511  12.744   4.322
58008SOL     OW75862   8.740  12.428   2.782
58008SOL    HW175863   8.717  12.499   2.843
58008SOL    HW275864   8.831  12.408   2.802
58009SOL     OW75865  12.311   2.644  10.663
58009SOL    HW175866  12.390   2.626  10.714
58009SOL    HW275867  12.305   2.571  10.601
58010SOL     OW75868  10.106   6.963  10.617
58010SOL    HW175869  10.024   6.992  10.657
58010SOL    HW275870  10.126   7.029  10.551
58011SOL     OW75871  14.190  10.039   7.055
58011SOL    HW175872  14.283  10.059   7.065
58011SOL    HW275873  14.146  10.099   7.115
58012SOL     OW75874  12.151   9.912   7.803
58012SOL    HW175875  12.133   9.859   7.726
58012SOL    HW275876  12.085   9.981   7.802
58013SOL     OW75877   4.465   5.504   2.134
58013SOL    HW175878   4.556   5.486   2.159
58013SOL    HW275879   4.472   5.542   2.046
58014SOL     OW75880   9.832   1.055  12.824
58014SOL    HW175881   9.779   1.130  12.850
58014SOL    HW275882   9.920   1.090  12.813
58015SOL     OW75883   5.276   2.052  13.431
58015SOL    HW175884   5.324   2.128  13.399
58015SOL    HW275885   5.190   2.059  13.390
58016SOL     OW75886   4.757   6.766  11.290
58016SOL    HW175887   4.746   6.725  11.375
58016SOL    HW275888   4.694   6.839  11.290
58017SOL     OW75889   5.704   8.127   2.787
58017SOL    HW175890   5.735   8.211   2.753
58017SOL    HW275891   5.782   8.084   2.821
58018SOL     OW75892  10.178   4.886  10.124
58018SOL    HW175893  10.191   4.898  10.218
58018SOL    HW275894  10.099   4.833  10.117
58019SOL     OW75895   3.200   1.852   9.090
58019SOL    HW175896   3.201   1.771   9.141
58019SOL    HW275897   3.152   1.914   9.144
58020SOL     OW75898  10.482  10.735   8.003
58020SOL    HW175899  10.404  10.744   7.948
58020SOL    HW275900  10.502  10.642   8.001
58021SOL     OW75901  10.767   2.801   5.693
58021SOL    HW175902  10.812   2.820   5.611
58021SOL    HW275903  10.803   2.865   5.755
58022SOL     OW75904   0.700   8.156   2.255
58022SOL    HW175905   0.680   8.219   2.325
58022SOL    HW275906   0.615   8.121   2.230
58023SOL     OW75907  12.106  12.006  10.782
58023SOL    HW175908  12.049  11.937  10.814
58023SOL    HW275909  12.052  12.085  10.780
58024SOL     OW75910   1.691   1.593  12.110
58024SOL    HW175911   1.741   1.605  12.191
58024SOL    HW275912   1.731   1.654  12.048
58025SOL     OW75913   6.526   2.401   5.366
58025SOL    HW175914   6.432   2.393   5.379
58025SOL    HW275915   6.563   2.401   5.454
58026SOL     OW75916   2.492   1.649  11.127
58026SOL    HW175917   2.492   1.582  11.058
58026SOL    HW275918   2.583   1.677  11.133
58027SOL     OW75919   0.729   1.774   7.457
58027SOL    HW175920   0.657   1.811   7.406
58027SOL    HW275921   0.721   1.679   7.444
58028SOL     OW75922   1.361   7.680  13.832
58028SOL    HW175923   1.294   7.614  13.849
58028SOL    HW275924   1.444   7.631  13.832
58029SOL     OW75925   6.987   4.966  12.148
58029SOL    HW175926   6.957   5.052  12.176
58029SOL    HW275927   6.968   4.909  12.223
58030SOL     OW75928  11.142   7.194   7.224
58030SOL    HW175929  11.151   7.238   7.309
58030SOL    HW275930  11.177   7.256   7.161
58031SOL     OW75931   1.970   0.917  10.454
58031SOL    HW175932   1.933   0.920  10.542
58031SOL    HW275933   2.056   0.958  10.462
58032SOL     OW75934   0.427  14.210  12.487
58032SOL    HW175935   0.475  14.139  12.445
58032SOL    HW275936   0.494  14.262  12.531
58033SOL     OW75937   5.027   5.888   6.509
58033SOL    HW175938   4.999   5.813   6.561
58033SOL    HW275939   5.118   5.870   6.488
58034SOL     OW75940   7.278   9.146   5.585
58034SOL    HW175941   7.306   9.192   5.506
58034SOL    HW275942   7.189   9.116   5.564
58035SOL     OW75943   7.675   0.067  11.734
58035SOL    HW175944   7.592   0.036  11.699
58035SOL    HW275945   7.700   0.001  11.799
58036SOL     OW75946  14.220   7.466   5.512
58036SOL    HW175947  14.216   7.558   5.536
58036SOL    HW275948  14.247   7.421   5.591
58037SOL     OW75949  13.852   3.138  12.997
58037SOL    HW175950  13.797   3.202  13.043
58037SOL    HW275951  13.819   3.138  12.907
58038SOL     OW75952   8.255   2.205   1.728
58038SOL    HW175953   8.212   2.235   1.809
58038SOL    HW275954   8.237   2.275   1.665
58039SOL     OW75955   5.732  10.597   5.074
58039SOL    HW175956   5.678  10.535   5.025
58039SOL    HW275957   5.803  10.543   5.110
58040SOL     OW75958   5.624   6.889   5.186
58040SOL    HW175959   5.674   6.808   5.181
58040SOL    HW275960   5.534   6.863   5.168
58041SOL     OW75961   7.054   2.493   9.762
58041SOL    HW175962   7.117   2.470   9.694
58041SOL    HW275963   6.970   2.461   9.728
58042SOL     OW75964   9.484  14.774  10.216
58042SOL    HW175965   9.531  14.835  10.160
58042SOL    HW275966   9.436  14.717  10.155
58043SOL     OW75967   1.329   1.552   7.132
58043SOL    HW175968   1.416   1.513   7.143
58043SOL    HW275969   1.289   1.502   7.061
58044SOL     OW75970   8.304  10.598   1.237
58044SOL    HW175971   8.245  10.586   1.163
58044SOL    HW275972   8.309  10.511   1.278
58045SOL     OW75973   9.549  11.435   1.137
58045SOL    HW175974   9.471  11.484   1.161
58045SOL    HW275975   9.619  11.474   1.188
58046SOL     OW75976  12.051   1.348  14.253
58046SOL    HW175977  12.044   1.282  14.184
58046SOL    HW275978  12.071   1.298  14.332
58047SOL     OW75979  11.080   5.249   5.536
58047SOL    HW175980  11.134   5.200   5.598
58047SOL    HW275981  11.042   5.320   5.588
58048SOL     OW75982   5.461   8.643   6.150
58048SOL    HW175983   5.430   8.731   6.171
58048SOL    HW275984   5.552   8.656   6.123
58049SOL     OW75985  11.602  11.127  11.825
58049SOL    HW175986  11.608  11.034  11.848
58049SOL    HW275987  11.528  11.159  11.875
58050SOL     OW75988   1.610  10.648   6.262
58050SOL    HW175989   1.676  10.581   6.281
58050SOL    HW275990   1.647  10.698   6.189
58051SOL     OW75991   4.529   8.791   3.289
58051SOL    HW175992   4.466   8.809   3.219
58051SOL    HW275993   4.516   8.862   3.351
58052SOL     OW75994  12.686   9.980  13.206
58052SOL    HW175995  12.742   9.946  13.276
58052SOL    HW275996  12.612   9.920  13.204
58053SOL     OW75997   1.625   1.831  13.748
58053SOL    HW175998   1.630   1.739  13.772
58053SOL    HW275999   1.650   1.878  13.827
58054SOL     OW76000  11.788  11.830   5.447
58054SOL    HW176001  11.754  11.740   5.439
58054SOL    HW276002  11.808  11.856   5.357
58055SOL     OW76003   4.244   7.467   3.501
58055SOL    HW176004   4.329   7.490   3.464
58055SOL    HW276005   4.239   7.517   3.582
58056SOL     OW76006   7.578  12.685   5.007
58056SOL    HW176007   7.626  12.746   4.951
58056SOL    HW276008   7.488  12.716   5.005
58057SOL     OW76009   5.272   8.386   4.378
58057SOL    HW176010   5.277   8.364   4.471
58057SOL    HW276011   5.245   8.304   4.336
58058SOL     OW76012   3.062   3.528  13.547
58058SOL    HW176013   3.003   3.488  13.484
58058SOL    HW276014   3.050   3.622  13.535
58059SOL     OW76015   7.774   0.942   8.289
58059SOL    HW176016   7.726   0.923   8.369
58059SOL    HW276017   7.741   0.880   8.225
58060SOL     OW76018   8.350   3.767   1.243
58060SOL    HW176019   8.382   3.693   1.190
58060SOL    HW276020   8.336   3.837   1.180
58061SOL     OW76021  10.915   9.786  11.877
58061SOL    HW176022  10.846   9.822  11.820
58061SOL    HW276023  10.868   9.755  11.954
58062SOL     OW76024   5.949  13.916   3.928
58062SOL    HW176025   6.040  13.928   3.955
58062SOL    HW276026   5.898  13.951   4.001
58063SOL     OW76027   3.172   8.627  11.975
58063SOL    HW176028   3.090   8.611  11.928
58063SOL    HW276029   3.239   8.587  11.920
58064SOL     OW76030   2.928   9.000   2.711
58064SOL    HW176031   3.014   8.977   2.678
58064SOL    HW276032   2.939   9.086   2.751
58065SOL     OW76033   7.484   6.496   7.186
58065SOL    HW176034   7.456   6.431   7.250
58065SOL    HW276035   7.414   6.497   7.121
58066SOL     OW76036   7.561   1.050  13.451
58066SOL    HW176037   7.536   0.978  13.393
58066SOL    HW276038   7.581   1.122  13.391
58067SOL     OW76039   7.993  10.408  13.437
58067SOL    HW176040   8.020  10.322  13.470
58067SOL    HW276041   7.927  10.389  13.370
58068SOL     OW76042   5.374  10.762   7.440
58068SOL    HW176043   5.290  10.800   7.466
58068SOL    HW276044   5.362  10.667   7.448
58069SOL     OW76045   2.725   4.982   0.299
58069SOL    HW176046   2.742   4.896   0.259
58069SOL    HW276047   2.658   4.965   0.365
58070SOL     OW76048   4.430   0.464  11.745
58070SOL    HW176049   4.469   0.459  11.832
58070SOL    HW276050   4.504   0.481  11.687
58071SOL     OW76051   0.723   0.497  14.085
58071SOL    HW176052   0.682   0.503  13.999
58071SOL    HW276053   0.814   0.523  14.070
58072SOL     OW76054   0.316   6.281   1.405
58072SOL    HW176055   0.233   6.233   1.399
58072SOL    HW276056   0.380   6.225   1.362
58073SOL     OW76057  12.333  14.625  11.186
58073SOL    HW176058  12.330  14.558  11.255
58073SOL    HW276059  12.244  14.660  11.182
58074SOL     OW76060  12.496  11.226  14.703
58074SOL    HW176061  12.478  11.149  14.650
58074SOL    HW276062  12.471  11.201  14.792
58075SOL     OW76063   8.728  12.235   6.991
58075SOL    HW176064   8.730  12.145   7.024
58075SOL    HW276065   8.819  12.264   6.994
58076SOL     OW76066   9.279   9.628   2.522
58076SOL    HW176067   9.242   9.716   2.533
58076SOL    HW276068   9.328   9.633   2.440
58077SOL     OW76069   5.531   3.441   9.961
58077SOL    HW176070   5.438   3.447   9.940
58077SOL    HW276071   5.535   3.453  10.056
58078SOL     OW76072   7.574  13.460   2.032
58078SOL    HW176073   7.551  13.367   2.031
58078SOL    HW276074   7.509  13.500   2.089
58079SOL     OW76075   2.777   6.486   6.981
58079SOL    HW176076   2.774   6.578   7.005
58079SOL    HW276077   2.737   6.482   6.894
58080SOL     OW76078  11.640  11.241   0.020
58080SOL    HW176079  11.669  11.242  14.802
58080SOL    HW276080  11.705  11.187   0.066
58081SOL     OW76081   3.276  13.872   2.324
58081SOL    HW176082   3.281  13.833   2.237
58081SOL    HW276083   3.183  13.891   2.336
58082SOL     OW76084  10.034   0.039   8.576
58082SOL    HW176085  10.023   0.117   8.631
58082SOL    HW276086  10.053   0.075   8.489
58083SOL     OW76087   0.987   2.240  10.734
58083SOL    HW176088   0.923   2.171  10.752
58083SOL    HW276089   0.940   2.321  10.752
58084SOL     OW76090   4.431  10.496  12.345
58084SOL    HW176091   4.341  10.484  12.375
58084SOL    HW276092   4.481  10.426  12.388
58085SOL     OW76093   7.097   6.274   9.973
58085SOL    HW176094   7.062   6.350  10.019
58085SOL    HW276095   7.172   6.308   9.924
58086SOL     OW76096  12.479   7.681   7.952
58086SOL    HW176097  12.567   7.669   7.989
58086SOL    HW276098  12.420   7.649   8.020
58087SOL     OW76099  11.838  10.867   1.548
58087SOL    HW176100  11.778  10.843   1.477
58087SOL    HW276101  11.923  10.878   1.505
58088SOL     OW76102   3.199  12.850   4.105
58088SOL    HW176103   3.259  12.886   4.171
58088SOL    HW276104   3.128  12.811   4.156
58089SOL     OW76105   2.225   9.683   6.725
58089SOL    HW176106   2.244   9.747   6.656
58089SOL    HW276107   2.310   9.664   6.765
58090SOL     OW76108   1.618   9.003   4.486
58090SOL    HW176109   1.591   9.074   4.428
58090SOL    HW276110   1.564   8.929   4.460
58091SOL     OW76111  10.142   9.393   3.186
58091SOL    HW176112  10.178   9.419   3.271
58091SOL    HW276113  10.069   9.334   3.208
58092SOL     OW76114   0.213   3.854   6.372
58092SOL    HW176115   0.187   3.789   6.306
58092SOL    HW276116   0.151   3.926   6.362
58093SOL     OW76117  13.159   5.850   8.647
58093SOL    HW176118  13.116   5.767   8.629
58093SOL    HW276119  13.105   5.916   8.604
58094SOL     OW76120   0.387   2.987  10.313
58094SOL    HW176121   0.305   3.007  10.267
58094SOL    HW276122   0.366   2.910  10.367
58095SOL     OW76123   0.732  12.626   5.025
58095SOL    HW176124   0.676  12.703   5.019
58095SOL    HW276125   0.803  12.643   4.963
58096SOL     OW76126   1.104   8.528   7.083
58096SOL    HW176127   1.123   8.537   6.989
58096SOL    HW276128   1.116   8.435   7.101
58097SOL     OW76129   1.597  13.702  11.316
58097SOL    HW176130   1.621  13.610  11.306
58097SOL    HW276131   1.676  13.743  11.352
58098SOL     OW76132  14.538   6.577   7.343
58098SOL    HW176133  14.559   6.515   7.413
58098SOL    HW276134  14.561   6.663   7.379
58099SOL     OW76135  12.486   7.096  12.846
58099SOL    HW176136  12.566   7.121  12.801
58099SOL    HW276137  12.465   7.009  12.812
58100SOL     OW76138  13.580   3.823   3.317
58100SOL    HW176139  13.608   3.744   3.272
58100SOL    HW276140  13.512   3.860   3.261
58101SOL     OW76141   7.805   7.491   6.167
58101SOL    HW176142   7.773   7.402   6.177
58101SOL    HW276143   7.857   7.489   6.087
58102SOL     OW76144  12.574  11.840   3.514
58102SOL    HW176145  12.557  11.934   3.501
58102SOL    HW276146  12.670  11.834   3.517
58103SOL     OW76147   8.447   3.582  14.812
58103SOL    HW176148   8.459   3.553  14.721
58103SOL    HW276149   8.435   3.500  14.861
58104SOL     OW76150  10.275  12.999   9.149
58104SOL    HW176151  10.353  13.034   9.191
58104SOL    HW276152  10.223  12.963   9.221
58105SOL     OW76153   7.311   7.554   9.420
58105SOL    HW176154   7.375   7.488   9.445
58105SOL    HW276155   7.342   7.588   9.336
58106SOL     OW76156  11.690   5.201  10.709
58106SOL    HW176157  11.679   5.171  10.799
58106SOL    HW276158  11.781   5.179  10.687
58107SOL     OW76159   1.529  10.039   4.958
58107SOL    HW176160   1.609  10.065   4.912
58107SOL    HW276161   1.508  10.113   5.014
58108SOL     OW76162  11.475  14.518  10.663
58108SOL    HW176163  11.406  14.468  10.620
58108SOL    HW276164  11.512  14.458  10.727
58109SOL     OW76165  11.616  10.967   0.418
58109SOL    HW176166  11.522  10.949   0.427
58109SOL    HW276167  11.622  11.062   0.416
58110SOL     OW76168  12.178  12.162   1.599
58110SOL    HW176169  12.193  12.246   1.643
58110SOL    HW276170  12.239  12.101   1.641
58111SOL     OW76171   6.738   5.289  13.736
58111SOL    HW176172   6.676   5.302  13.663
58111SOL    HW276173   6.752   5.378  13.770
58112SOL     OW76174   6.671  11.332   4.748
58112SOL    HW176175   6.633  11.357   4.832
58112SOL    HW276176   6.596  11.305   4.695
58113SOL     OW76177  14.413   7.283   2.841
58113SOL    HW176178  14.505   7.292   2.865
58113SOL    HW276179  14.406   7.327   2.756
58114SOL     OW76180   6.648   5.524  12.496
58114SOL    HW176181   6.646   5.509  12.591
58114SOL    HW276182   6.741   5.517  12.473
58115SOL     OW76183  14.590  12.543   8.629
58115SOL    HW176184  14.598  12.553   8.534
58115SOL    HW276185  14.496  12.546   8.646
58116SOL     OW76186   1.780  13.095   3.161
58116SOL    HW176187   1.764  13.169   3.220
58116SOL    HW276188   1.695  13.050   3.156
58117SOL     OW76189  14.321  11.208  12.965
58117SOL    HW176190  14.241  11.157  12.977
58117SOL    HW276191  14.331  11.257  13.047
58118SOL     OW76192   6.393   4.292  11.533
58118SOL    HW176193   6.474   4.287  11.584
58118SOL    HW276194   6.407   4.363  11.472
58119SOL     OW76195  13.598  11.475   1.688
58119SOL    HW176196  13.625  11.534   1.618
58119SOL    HW276197  13.590  11.531   1.765
58120SOL     OW76198  13.018   0.483   7.519
58120SOL    HW176199  12.968   0.426   7.461
58120SOL    HW276200  13.105   0.442   7.525
58121SOL     OW76201   5.439  10.222  10.666
58121SOL    HW176202   5.486  10.155  10.616
58121SOL    HW276203   5.349  10.189  10.670
58122SOL     OW76204  14.254   2.600   9.131
58122SOL    HW176205  14.280   2.635   9.216
58122SOL    HW276206  14.315   2.528   9.116
58123SOL     OW76207   3.325  14.479   3.150
58123SOL    HW176208   3.332  14.410   3.215
58123SOL    HW276209   3.304  14.434   3.068
58124SOL     OW76210   9.937  10.548   5.011
58124SOL    HW176211  10.027  10.519   4.996
58124SOL    HW276212   9.899  10.554   4.924
58125SOL     OW76213   3.670   3.119   8.928
58125SOL    HW176214   3.683   3.077   8.843
58125SOL    HW276215   3.726   3.197   8.924
58126SOL     OW76216   3.642  10.936   8.890
58126SOL    HW176217   3.640  10.855   8.840
58126SOL    HW276218   3.725  10.977   8.867
58127SOL     OW76219   3.791   1.267   2.783
58127SOL    HW176220   3.762   1.284   2.873
58127SOL    HW276221   3.880   1.300   2.780
58128SOL     OW76222   1.730  11.986  10.323
58128SOL    HW176223   1.748  11.898  10.357
58128SOL    HW276224   1.655  12.017  10.374
58129SOL     OW76225  13.832   9.308   6.112
58129SOL    HW176226  13.756   9.284   6.165
58129SOL    HW276227  13.872   9.381   6.159
58130SOL     OW76228   1.082   2.024   5.112
58130SOL    HW176229   1.119   2.044   5.198
58130SOL    HW276230   1.001   1.976   5.132
58131SOL     OW76231   0.976   0.261   3.532
58131SOL    HW176232   1.036   0.249   3.606
58131SOL    HW276233   0.891   0.232   3.566
58132SOL     OW76234  11.709   9.360   8.981
58132SOL    HW176235  11.653   9.295   8.938
58132SOL    HW276236  11.788   9.363   8.928
58133SOL     OW76237   7.082   3.435   2.110
58133SOL    HW176238   7.050   3.481   2.032
58133SOL    HW276239   7.090   3.503   2.177
58134SOL     OW76240  11.963   0.270   6.994
58134SOL    HW176241  11.939   0.220   6.917
58134SOL    HW276242  11.884   0.272   7.047
58135SOL     OW76243  10.516  10.190   5.485
58135SOL    HW176244  10.504  10.274   5.440
58135SOL    HW276245  10.592  10.204   5.541
58136SOL     OW76246   2.271  13.253   2.484
58136SOL    HW176247   2.272  13.157   2.487
58136SOL    HW276248   2.295  13.280   2.572
58137SOL     OW76249  13.469   9.114  12.913
58137SOL    HW176250  13.565   9.119  12.907
58137SOL    HW276251  13.439   9.150  12.830
58138SOL     OW76252   1.250  10.779   3.263
58138SOL    HW176253   1.214  10.852   3.313
58138SOL    HW276254   1.229  10.701   3.316
58139SOL     OW76255  13.717  12.054   9.274
58139SOL    HW176256  13.649  12.057   9.341
58139SOL    HW276257  13.760  11.969   9.287
58140SOL     OW76258   5.088  13.303   7.026
58140SOL    HW176259   5.161  13.336   7.079
58140SOL    HW276260   5.077  13.213   7.054
58141SOL     OW76261   5.642  13.661  10.139
58141SOL    HW176262   5.590  13.625  10.211
58141SOL    HW276263   5.668  13.748  10.170
58142SOL     OW76264  10.633   1.892  13.879
58142SOL    HW176265  10.564   1.841  13.837
58142SOL    HW276266  10.635   1.974  13.831
58143SOL     OW76267   5.753   1.616   3.961
58143SOL    HW176268   5.793   1.558   3.896
58143SOL    HW276269   5.659   1.599   3.953
58144SOL     OW76270   8.470   0.420  13.858
58144SOL    HW176271   8.565   0.411  13.857
58144SOL    HW276272   8.444   0.402  13.948
58145SOL     OW76273  11.719   6.905   2.991
58145SOL    HW176274  11.728   6.818   3.030
58145SOL    HW276275  11.738   6.965   3.062
58146SOL     OW76276   3.261   1.652  12.133
58146SOL    HW176277   3.191   1.602  12.090
58146SOL    HW276278   3.289   1.597  12.206
58147SOL     OW76279   1.298   2.885   4.350
58147SOL    HW176280   1.393   2.879   4.344
58147SOL    HW276281   1.270   2.910   4.262
58148SOL     OW76282  10.206   3.022   2.875
58148SOL    HW176283  10.157   2.954   2.923
58148SOL    HW276284  10.232   3.085   2.942
58149SOL     OW76285   7.565  10.101   3.089
58149SOL    HW176286   7.610  10.186   3.092
58149SOL    HW276287   7.472  10.124   3.097
58150SOL     OW76288   8.591   7.870   8.962
58150SOL    HW176289   8.644   7.794   8.984
58150SOL    HW276290   8.596   7.877   8.866
58151SOL     OW76291   4.510   8.169  14.370
58151SOL    HW176292   4.457   8.248  14.376
58151SOL    HW276293   4.586   8.195  14.318
58152SOL     OW76294   9.798   5.619   1.863
58152SOL    HW176295   9.845   5.582   1.789
58152SOL    HW276296   9.816   5.560   1.936
58153SOL     OW76297  10.070   9.066   8.481
58153SOL    HW176298  10.110   9.003   8.421
58153SOL    HW276299   9.982   9.031   8.496
58154SOL     OW76300  13.223  14.489   3.622
58154SOL    HW176301  13.143  14.528   3.658
58154SOL    HW276302  13.197  14.459   3.534
58155SOL     OW76303   9.957  12.176  12.621
58155SOL    HW176304   9.973  12.269  12.632
58155SOL    HW276305   9.885  12.156  12.681
58156SOL     OW76306  11.067   6.384   1.126
58156SOL    HW176307  11.156   6.418   1.119
58156SOL    HW276308  11.029   6.434   1.199
58157SOL     OW76309   1.919   5.977   6.781
58157SOL    HW176310   2.011   5.952   6.773
58157SOL    HW276311   1.907   6.046   6.716
58158SOL     OW76312   0.770   0.927   1.843
58158SOL    HW176313   0.799   0.863   1.778
58158SOL    HW276314   0.841   0.991   1.847
58159SOL     OW76315   6.895   4.418  12.845
58159SOL    HW176316   6.902   4.337  12.895
58159SOL    HW276317   6.844   4.477  12.900
58160SOL     OW76318  12.399  12.117   7.791
58160SOL    HW176319  12.476  12.074   7.754
58160SOL    HW276320  12.406  12.208   7.764
58161SOL     OW76321   5.825   1.545   1.321
58161SOL    HW176322   5.787   1.479   1.379
58161SOL    HW276323   5.765   1.620   1.327
58162SOL     OW76324  11.659   1.427  11.816
58162SOL    HW176325  11.648   1.425  11.721
58162SOL    HW276326  11.754   1.423  11.829
58163SOL     OW76327  11.062   2.353   7.204
58163SOL    HW176328  11.128   2.286   7.191
58163SOL    HW276329  10.989   2.308   7.246
58164SOL     OW76330   1.641  12.350   4.539
58164SOL    HW176331   1.552  12.328   4.511
58164SOL    HW276332   1.634  12.440   4.572
58165SOL     OW76333   7.032  14.630  12.166
58165SOL    HW176334   6.997  14.638  12.255
58165SOL    HW276335   7.112  14.580  12.177
58166SOL     OW76336   1.647  12.507  13.458
58166SOL    HW176337   1.657  12.567  13.385
58166SOL    HW276338   1.589  12.553  13.520
58167SOL     OW76339   6.644  10.024   4.171
58167SOL    HW176340   6.577  10.039   4.105
58167SOL    HW276341   6.664  10.112   4.204
58168SOL     OW76342   1.020  10.272   1.552
58168SOL    HW176343   0.930  10.298   1.530
58168SOL    HW276344   1.019  10.176   1.547
58169SOL     OW76345  13.153   9.390   5.769
58169SOL    HW176346  13.151   9.454   5.839
58169SOL    HW276347  13.072   9.340   5.779
58170SOL     OW76348   5.142   9.179   5.637
58170SOL    HW176349   5.048   9.193   5.643
58170SOL    HW276350   5.151   9.098   5.586
58171SOL     OW76351   7.684  11.413   4.220
58171SOL    HW176352   7.628  11.421   4.297
58171SOL    HW276353   7.730  11.330   4.231
58172SOL     OW76354   3.139   9.139  11.245
58172SOL    HW176355   3.087   9.217  11.266
58172SOL    HW276356   3.228   9.162  11.269
58173SOL     OW76357   6.354  11.035  13.817
58173SOL    HW176358   6.338  10.981  13.739
58173SOL    HW276359   6.268  11.047  13.856
58174SOL     OW76360   8.742   1.698  14.766
58174SOL    HW176361   8.825   1.720  14.808
58174SOL    HW276362   8.692   1.653  14.834
58175SOL     OW76363   5.124  12.697   6.928
58175SOL    HW176364   5.057  12.698   6.996
58175SOL    HW276365   5.187  12.631   6.956
58176SOL     OW76366  11.496   4.802   5.976
58176SOL    HW176367  11.543   4.853   6.042
58176SOL    HW276368  11.521   4.711   5.994
58177SOL     OW76369  10.817   0.224  14.703
58177SOL    HW176370  10.833   0.252  14.793
58177SOL    HW276371  10.722   0.213  14.698
58178SOL     OW76372  12.566   4.183   0.247
58178SOL    HW176373  12.640   4.196   0.306
58178SOL    HW276374  12.524   4.103   0.278
58179SOL     OW76375   1.196   9.541   8.094
58179SOL    HW176376   1.105   9.572   8.103
58179SOL    HW276377   1.249   9.608   8.137
58180SOL     OW76378   5.308   0.707   6.675
58180SOL    HW176379   5.268   0.761   6.607
58180SOL    HW276380   5.239   0.646   6.701
58181SOL     OW76381   1.016   2.394  14.093
58181SOL    HW176382   1.044   2.374  14.004
58181SOL    HW276383   1.063   2.473  14.116
58182SOL     OW76384  12.222  10.222   6.626
58182SOL    HW176385  12.136  10.249   6.658
58182SOL    HW276386  12.283  10.286   6.662
58183SOL     OW76387   1.156  13.799  12.581
58183SOL    HW176388   1.221  13.754  12.635
58183SOL    HW276389   1.188  13.890  12.577
58184SOL     OW76390   5.986   5.068   3.373
58184SOL    HW176391   5.936   5.112   3.304
58184SOL    HW276392   5.922   5.010   3.415
58185SOL     OW76393   8.675   3.101   9.407
58185SOL    HW176394   8.709   3.105   9.496
58185SOL    HW276395   8.694   3.012   9.378
58186SOL     OW76396   8.624   3.656   3.722
58186SOL    HW176397   8.543   3.706   3.722
58186SOL    HW276398   8.692   3.721   3.707
58187SOL     OW76399   1.373   4.394   4.772
58187SOL    HW176400   1.442   4.374   4.836
58187SOL    HW276401   1.395   4.482   4.740
58188SOL     OW76402  14.206  12.554   9.644
58188SOL    HW176403  14.283  12.499   9.627
58188SOL    HW276404  14.241  12.630   9.690
58189SOL     OW76405   0.983   8.410  13.041
58189SOL    HW176406   1.009   8.499  13.062
58189SOL    HW276407   0.895   8.402  13.076
58190SOL     OW76408   3.188  10.746   0.161
58190SOL    HW176409   3.231  10.815   0.213
58190SOL    HW276410   3.249  10.673   0.162
58191SOL     OW76411   3.263   7.989   9.122
58191SOL    HW176412   3.351   8.009   9.092
58191SOL    HW276413   3.242   8.059   9.183
58192SOL     OW76414   7.046  14.336  14.327
58192SOL    HW176415   6.983  14.359  14.395
58192SOL    HW276416   7.071  14.246  14.347
58193SOL     OW76417   5.891   9.656   2.314
58193SOL    HW176418   5.853   9.622   2.232
58193SOL    HW276419   5.859   9.596   2.381
58194SOL     OW76420   3.164   1.355  10.767
58194SOL    HW176421   3.078   1.335  10.803
58194SOL    HW276422   3.215   1.386  10.841
58195SOL     OW76423  11.244   4.197   1.043
58195SOL    HW176424  11.301   4.198   0.967
58195SOL    HW276425  11.278   4.266   1.100
58196SOL     OW76426   3.340   2.646   5.730
58196SOL    HW176427   3.272   2.621   5.667
58196SOL    HW276428   3.411   2.584   5.715
58197SOL     OW76429   1.968  11.442   0.460
58197SOL    HW176430   1.934  11.375   0.401
58197SOL    HW276431   2.038  11.398   0.508
58198SOL     OW76432  12.152  11.117   8.637
58198SOL    HW176433  12.174  11.116   8.544
58198SOL    HW276434  12.059  11.098   8.640
58199SOL     OW76435   5.013   5.639   2.750
58199SOL    HW176436   4.962   5.635   2.669
58199SOL    HW276437   5.100   5.608   2.725
58200SOL     OW76438   2.022   6.798   5.686
58200SOL    HW176439   2.018   6.834   5.775
58200SOL    HW276440   1.932   6.772   5.667
58201SOL     OW76441   5.670   6.052  14.638
58201SOL    HW176442   5.750   6.022  14.594
58201SOL    HW276443   5.602   5.992  14.606
58202SOL     OW76444   4.606  11.444  11.740
58202SOL    HW176445   4.549  11.383  11.692
58202SOL    HW276446   4.547  11.492  11.798
58203SOL     OW76447   5.085   5.430   9.469
58203SOL    HW176448   5.081   5.442   9.374
58203SOL    HW276449   5.096   5.336   9.481
58204SOL     OW76450   1.768  12.909   4.771
58204SOL    HW176451   1.763  12.967   4.847
58204SOL    HW276452   1.834  12.844   4.795
58205SOL     OW76453   6.778  14.385   5.616
58205SOL    HW176454   6.871  14.385   5.636
58205SOL    HW276455   6.756  14.478   5.605
58206SOL     OW76456   4.168   6.195   8.049
58206SOL    HW176457   4.126   6.111   8.029
58206SOL    HW276458   4.167   6.242   7.966
58207SOL     OW76459   5.526   1.324   4.171
58207SOL    HW176460   5.556   1.414   4.164
58207SOL    HW276461   5.535   1.288   4.083
58208SOL     OW76462   7.673   8.996  14.859
58208SOL    HW176463   7.606   9.001   0.054
58208SOL    HW276464   7.756   9.000   0.034
58209SOL     OW76465   2.176  12.115  13.202
58209SOL    HW176466   2.101  12.155  13.158
58209SOL    HW276467   2.245  12.181  13.197
58210SOL     OW76468  14.357  13.691   9.077
58210SOL    HW176469  14.287  13.632   9.052
58210SOL    HW276470  14.437  13.637   9.075
58211SOL     OW76471   3.781  14.732   1.920
58211SOL    HW176472   3.813  14.751   2.008
58211SOL    HW276473   3.860  14.709   1.870
58212SOL     OW76474   9.822  11.378   7.864
58212SOL    HW176475   9.887  11.310   7.849
58212SOL    HW276476   9.739  11.337   7.841
58213SOL     OW76477   1.169   9.135   1.300
58213SOL    HW176478   1.184   9.068   1.368
58213SOL    HW276479   1.075   9.131   1.283
58214SOL     OW76480   1.169  14.070  14.721
58214SOL    HW176481   1.117  14.025  14.788
58214SOL    HW276482   1.110  14.079  14.646
58215SOL     OW76483   9.332   8.248   1.202
58215SOL    HW176484   9.340   8.157   1.229
58215SOL    HW276485   9.286   8.290   1.275
58216SOL     OW76486  11.408  10.996  11.485
58216SOL    HW176487  11.363  10.917  11.516
58216SOL    HW276488  11.338  11.059  11.469
58217SOL     OW76489   6.844   7.618  13.175
58217SOL    HW176490   6.878   7.528  13.175
58217SOL    HW276491   6.751   7.608  13.195
58218SOL     OW76492   5.624  14.501  13.784
58218SOL    HW176493   5.697  14.508  13.846
58218SOL    HW276494   5.549  14.478  13.838
58219SOL     OW76495  10.225  10.944   4.512
58219SOL    HW176496  10.277  10.863   4.505
58219SOL    HW276497  10.275  11.009   4.462
58220SOL     OW76498  11.096  12.010   7.913
58220SOL    HW176499  11.019  11.989   7.861
58220SOL    HW276500  11.061  12.041   7.996
58221SOL     OW76501   6.305   9.058  11.834
58221SOL    HW176502   6.374   9.051  11.768
58221SOL    HW276503   6.293   8.968  11.865
58222SOL     OW76504  10.731   5.603   8.049
58222SOL    HW176505  10.808   5.594   8.105
58222SOL    HW276506  10.670   5.655   8.101
58223SOL     OW76507   5.423   7.804   7.633
58223SOL    HW176508   5.475   7.872   7.589
58223SOL    HW276509   5.372   7.764   7.563
58224SOL     OW76510   7.332  14.803  14.074
58224SOL    HW176511   7.268  14.732  14.077
58224SOL    HW276512   7.298  14.870  14.132
58225SOL     OW76513  10.001   0.798  10.857
58225SOL    HW176514   9.977   0.818  10.766
58225SOL    HW276515   9.943   0.727  10.882
58226SOL     OW76516   9.960   3.679   9.747
58226SOL    HW176517  10.030   3.671   9.682
58226SOL    HW276518   9.916   3.761   9.727
58227SOL     OW76519   2.937   5.932  12.581
58227SOL    HW176520   2.857   5.897  12.542
58227SOL    HW276521   3.005   5.918  12.515
58228SOL     OW76522  13.105   1.954   3.778
58228SOL    HW176523  13.099   2.001   3.861
58228SOL    HW276524  13.196   1.924   3.775
58229SOL     OW76525  10.098   6.525  13.220
58229SOL    HW176526  10.028   6.552  13.280
58229SOL    HW276527  10.125   6.439  13.252
58230SOL     OW76528   9.268  11.839   6.545
58230SOL    HW176529   9.211  11.875   6.477
58230SOL    HW276530   9.281  11.748   6.520
58231SOL     OW76531  12.647   7.094   7.677
58231SOL    HW176532  12.584   7.145   7.727
58231SOL    HW276533  12.596   7.022   7.641
58232SOL     OW76534   3.933   5.206  11.286
58232SOL    HW176535   3.873   5.137  11.314
58232SOL    HW276536   4.020   5.167  11.295
58233SOL     OW76537   8.481   1.709   8.933
58233SOL    HW176538   8.541   1.700   8.858
58233SOL    HW276539   8.514   1.785   8.981
58234SOL     OW76540   2.702   0.559   9.341
58234SOL    HW176541   2.696   0.491   9.409
58234SOL    HW276542   2.705   0.509   9.259
58235SOL     OW76543  14.585   6.999  14.194
58235SOL    HW176544  14.591   6.904  14.201
58235SOL    HW276545  14.549   7.015  14.106
58236SOL     OW76546  12.379   2.199  14.824
58236SOL    HW176547  12.344   2.210   0.039
58236SOL    HW276548  12.325   2.130  14.785
58237SOL     OW76549  10.239  12.256   9.633
58237SOL    HW176550  10.236  12.206   9.552
58237SOL    HW276551  10.321  12.306   9.628
58238SOL     OW76552   9.504   6.250   5.926
58238SOL    HW176553   9.494   6.164   5.966
58238SOL    HW276554   9.425   6.262   5.874
58239SOL     OW76555  12.586   7.845   3.531
58239SOL    HW176556  12.653   7.816   3.469
58239SOL    HW276557  12.626   7.829   3.617
58240SOL     OW76558  13.022   2.507  12.887
58240SOL    HW176559  13.030   2.415  12.860
58240SOL    HW276560  13.102   2.524  12.937
58241SOL     OW76561  13.190  11.064  13.521
58241SOL    HW176562  13.115  11.074  13.463
58241SOL    HW276563  13.174  11.126  13.592
58242SOL     OW76564   4.707  14.234  11.951
58242SOL    HW176565   4.656  14.290  11.893
58242SOL    HW276566   4.641  14.189  12.004
58243SOL     OW76567   7.161   0.334   2.028
58243SOL    HW176568   7.242   0.297   1.992
58243SOL    HW276569   7.185   0.365   2.115
58244SOL     OW76570   1.387   9.729  14.389
58244SOL    HW176571   1.420   9.696  14.472
58244SOL    HW276572   1.350   9.815  14.411
58245SOL     OW76573   6.009   6.344   3.627
58245SOL    HW176574   6.003   6.300   3.542
58245SOL    HW276575   6.015   6.273   3.691
58246SOL     OW76576   8.566   3.600  12.850
58246SOL    HW176577   8.610   3.591  12.766
58246SOL    HW276578   8.617   3.546  12.910
58247SOL     OW76579  14.596   4.448   4.913
58247SOL    HW176580  14.534   4.399   4.860
58247SOL    HW276581  14.598   4.400   4.997
58248SOL     OW76582   4.799   5.865  14.145
58248SOL    HW176583   4.746   5.921  14.088
58248SOL    HW276584   4.785   5.776  14.112
58249SOL     OW76585   3.482   9.041  11.564
58249SOL    HW176586   3.431   8.961  11.552
58249SOL    HW276587   3.573   9.011  11.566
58250SOL     OW76588  14.510  10.034   4.500
58250SOL    HW176589  14.435   9.981   4.526
58250SOL    HW276590  14.586   9.976   4.510
58251SOL     OW76591  11.354   8.587   7.248
58251SOL    HW176592  11.369   8.680   7.261
58251SOL    HW276593  11.364   8.574   7.154
58252SOL     OW76594   7.421   9.075   2.936
58252SOL    HW176595   7.453   9.005   2.880
58252SOL    HW276596   7.459   9.057   3.022
58253SOL     OW76597   0.228  10.883   6.660
58253SOL    HW176598   0.300  10.914   6.605
58253SOL    HW276599   0.223  10.946   6.731
58254SOL     OW76600   8.333   3.808   5.863
58254SOL    HW176601   8.325   3.727   5.913
58254SOL    HW276602   8.424   3.811   5.835
58255SOL     OW76603   6.096   2.838  12.714
58255SOL    HW176604   6.181   2.856  12.754
58255SOL    HW276605   6.080   2.913  12.657
58256SOL     OW76606   7.247   8.745   4.738
58256SOL    HW176607   7.331   8.766   4.698
58256SOL    HW276608   7.184   8.801   4.692
58257SOL     OW76609   1.142   2.716   2.853
58257SOL    HW176610   1.182   2.771   2.921
58257SOL    HW276611   1.217   2.671   2.813
58258SOL     OW76612  10.854  10.736   5.270
58258SOL    HW176613  10.796  10.695   5.335
58258SOL    HW276614  10.819  10.707   5.186
58259SOL     OW76615  12.950   8.493   8.512
58259SOL    HW176616  12.948   8.455   8.600
58259SOL    HW276617  12.860   8.483   8.480
58260SOL     OW76618   4.056  13.798   0.224
58260SOL    HW176619   4.020  13.845   0.299
58260SOL    HW276620   4.090  13.716   0.262
58261SOL     OW76621  11.289   7.549  14.664
58261SOL    HW176622  11.347   7.565  14.739
58261SOL    HW276623  11.347   7.550  14.588
58262SOL     OW76624  11.724  13.806   2.841
58262SOL    HW176625  11.668  13.882   2.823
58262SOL    HW276626  11.813  13.842   2.840
58263SOL     OW76627   6.822   7.941   5.674
58263SOL    HW176628   6.822   8.036   5.683
58263SOL    HW276629   6.735   7.919   5.641
58264SOL     OW76630   5.971  11.655   3.711
58264SOL    HW176631   5.896  11.672   3.653
58264SOL    HW276632   6.047  11.657   3.653
58265SOL     OW76633  11.600   7.340   7.275
58265SOL    HW176634  11.543   7.272   7.311
58265SOL    HW276635  11.543   7.416   7.265
58266SOL     OW76636   8.048  14.623   5.212
58266SOL    HW176637   8.071  14.674   5.134
58266SOL    HW276638   8.004  14.545   5.177
58267SOL     OW76639   3.539   1.481   4.714
58267SOL    HW176640   3.467   1.418   4.705
58267SOL    HW276641   3.499   1.557   4.756
58268SOL     OW76642   9.654   9.986   1.846
58268SOL    HW176643   9.618   9.989   1.935
58268SOL    HW276644   9.718   9.915   1.848
58269SOL     OW76645  12.816   7.199   8.196
58269SOL    HW176646  12.729   7.168   8.172
58269SOL    HW276647  12.867   7.118   8.211
58270SOL     OW76648  12.711   6.311  12.270
58270SOL    HW176649  12.727   6.342  12.181
58270SOL    HW276650  12.798   6.301  12.308
58271SOL     OW76651   5.612  13.929   1.506
58271SOL    HW176652   5.681  13.936   1.440
58271SOL    HW276653   5.610  14.014   1.548
58272SOL     OW76654   8.626   4.042   8.008
58272SOL    HW176655   8.565   3.987   7.958
58272SOL    HW276656   8.604   4.026   8.099
58273SOL     OW76657   2.115   6.007  14.797
58273SOL    HW176658   2.174   6.033  14.726
58273SOL    HW276659   2.169   6.014   0.003
58274SOL     OW76660   9.111   6.175  11.333
58274SOL    HW176661   9.092   6.172  11.240
58274SOL    HW276662   9.118   6.269  11.353
58275SOL     OW76663   6.908  10.228   4.544
58275SOL    HW176664   7.003  10.241   4.537
58275SOL    HW276665   6.874  10.310   4.578
58276SOL     OW76666  14.706   9.380   5.811
58276SOL    HW176667  14.693   9.362   5.904
58276SOL    HW276668  14.785   9.435   5.809
58277SOL     OW76669   8.068   0.369   1.670
58277SOL    HW176670   8.115   0.401   1.747
58277SOL    HW276671   7.976   0.388   1.688
58278SOL     OW76672  11.065   1.046   8.029
58278SOL    HW176673  11.100   1.102   8.098
58278SOL    HW276674  11.074   1.097   7.949
58279SOL     OW76675   8.547   6.923   2.535
58279SOL    HW176676   8.510   7.008   2.508
58279SOL    HW276677   8.480   6.859   2.509
58280SOL     OW76678   5.330  14.395  11.675
58280SOL    HW176679   5.324  14.328  11.744
58280SOL    HW276680   5.335  14.345  11.594
58281SOL     OW76681   0.446   2.285  12.139
58281SOL    HW176682   0.440   2.315  12.048
58281SOL    HW276683   0.400   2.352  12.189
58282SOL     OW76684  10.026   5.306   2.080
58282SOL    HW176685  10.023   5.225   2.130
58282SOL    HW276686   9.939   5.344   2.091
58283SOL     OW76687   1.529   5.037   7.939
58283SOL    HW176688   1.552   5.108   7.879
58283SOL    HW276689   1.487   4.971   7.885
58284SOL     OW76690  11.518   9.841   1.198
58284SOL    HW176691  11.453   9.833   1.267
58284SOL    HW276692  11.602   9.850   1.244
58285SOL     OW76693   3.906   6.881   9.685
58285SOL    HW176694   3.939   6.960   9.727
58285SOL    HW276695   3.817   6.905   9.656
58286SOL     OW76696   0.674  14.040   1.672
58286SOL    HW176697   0.607  13.982   1.637
58286SOL    HW276698   0.716  13.988   1.742
58287SOL     OW76699   9.888   0.260   7.903
58287SOL    HW176700   9.871   0.316   7.827
58287SOL    HW276701   9.827   0.290   7.969
58288SOL     OW76702  10.316  13.219   1.122
58288SOL    HW176703  10.277  13.157   1.184
58288SOL    HW276704  10.409  13.217   1.141
58289SOL     OW76705   4.647   5.559  11.677
58289SOL    HW176706   4.579   5.500  11.643
58289SOL    HW276707   4.717   5.554  11.611
58290SOL     OW76708   6.601   2.118   3.688
58290SOL    HW176709   6.667   2.186   3.703
58290SOL    HW276710   6.600   2.068   3.770
58291SOL     OW76711   6.178   9.272   4.688
58291SOL    HW176712   6.235   9.285   4.764
58291SOL    HW276713   6.121   9.349   4.688
58292SOL     OW76714  11.877  12.864  12.460
58292SOL    HW176715  11.971  12.848  12.468
58292SOL    HW276716  11.853  12.825  12.376
58293SOL     OW76717   9.184   5.508   3.333
58293SOL    HW176718   9.136   5.559   3.268
58293SOL    HW276719   9.192   5.421   3.293
58294SOL     OW76720   1.902   7.719  11.732
58294SOL    HW176721   1.910   7.673  11.649
58294SOL    HW276722   1.921   7.653  11.799
58295SOL     OW76723   3.427  13.853  13.511
58295SOL    HW176724   3.396  13.796  13.441
58295SOL    HW276725   3.522  13.841  13.512
58296SOL     OW76726  12.919  11.070   7.595
58296SOL    HW176727  12.844  11.044   7.541
58296SOL    HW276728  12.904  11.024   7.678
58297SOL     OW76729  14.748  11.147  12.074
58297SOL    HW176730  14.812  11.080  12.050
58297SOL    HW276731  14.747  11.208  12.000
58298SOL     OW76732   0.149   0.305   5.823
58298SOL    HW176733   0.153   0.376   5.758
58298SOL    HW276734   0.187   0.230   5.778
58299SOL     OW76735  10.888   6.661   4.875
58299SOL    HW176736  10.862   6.687   4.787
58299SOL    HW276737  10.980   6.689   4.882
58300SOL     OW76738   5.639  11.517  13.089
58300SOL    HW176739   5.720  11.467  13.076
58300SOL    HW276740   5.583  11.458  13.140
58301SOL     OW76741   1.677  11.247  12.231
58301SOL    HW176742   1.622  11.178  12.193
58301SOL    HW276743   1.697  11.216  12.319
58302SOL     OW76744  10.477   5.998  13.296
58302SOL    HW176745  10.556   5.947  13.279
58302SOL    HW276746  10.495   6.084  13.257
58303SOL     OW76747   9.972   7.406  12.069
58303SOL    HW176748  10.062   7.383  12.091
58303SOL    HW276749   9.976   7.499  12.044
58304SOL     OW76750   9.134   5.568   6.238
58304SOL    HW176751   9.078   5.509   6.188
58304SOL    HW276752   9.076   5.605   6.305
58305SOL     OW76753   9.173  14.173   6.003
58305SOL    HW176754   9.188  14.186   6.096
58305SOL    HW276755   9.183  14.079   5.990
58306SOL     OW76756  11.960   9.532   2.495
58306SOL    HW176757  12.048   9.563   2.515
58306SOL    HW276758  11.959   9.521   2.400
58307SOL     OW76759   0.562   2.729  13.239
58307SOL    HW176760   0.542   2.781  13.317
58307SOL    HW276761   0.537   2.640  13.263
58308SOL     OW76762   8.082  14.558  14.591
58308SOL    HW176763   8.144  14.493  14.558
58308SOL    HW276764   8.039  14.515  14.665
58309SOL     OW76765   0.715  13.403   6.466
58309SOL    HW176766   0.691  13.310   6.459
58309SOL    HW276767   0.787  13.413   6.403
58310SOL     OW76768  10.058   0.122  13.692
58310SOL    HW176769  10.015   0.054  13.640
58310SOL    HW276770   9.989   0.185  13.710
58311SOL     OW76771  13.200   9.590  12.789
58311SOL    HW176772  13.111   9.556  12.799
58311SOL    HW276773  13.255   9.512  12.779
58312SOL     OW76774  10.694   1.545   2.167
58312SOL    HW176775  10.670   1.614   2.230
58312SOL    HW276776  10.781   1.571   2.136
58313SOL     OW76777  12.540   9.604   5.972
58313SOL    HW176778  12.582   9.687   5.995
58313SOL    HW276779  12.464   9.629   5.919
58314SOL     OW76780  12.854  11.233   2.727
58314SOL    HW176781  12.910  11.269   2.795
58314SOL    HW276782  12.773  11.208   2.772
58315SOL     OW76783   3.567   8.928   5.482
58315SOL    HW176784   3.567   8.983   5.404
58315SOL    HW276785   3.514   8.976   5.546
58316SOL     OW76786  11.869   8.553   2.226
58316SOL    HW176787  11.927   8.593   2.290
58316SOL    HW276788  11.888   8.599   2.144
58317SOL     OW76789  14.558   4.448   2.200
58317SOL    HW176790  14.562   4.375   2.138
58317SOL    HW276791  14.465   4.456   2.222
58318SOL     OW76792   6.110  13.760   4.243
58318SOL    HW176793   6.139  13.749   4.334
58318SOL    HW276794   6.136  13.850   4.221
58319SOL     OW76795   9.139  12.109  10.416
58319SOL    HW176796   9.101  12.197  10.414
58319SOL    HW276797   9.192  12.103  10.337
58320SOL     OW76798   0.112   2.115   1.719
58320SOL    HW176799   0.168   2.058   1.771
58320SOL    HW276800   0.073   2.175   1.781
58321SOL     OW76801   0.965   8.580  12.477
58321SOL    HW176802   0.932   8.614  12.561
58321SOL    HW276803   1.001   8.657  12.433
58322SOL     OW76804  14.467   0.434  13.936
58322SOL    HW176805  14.401   0.458  14.002
58322SOL    HW276806  14.550   0.438  13.982
58323SOL     OW76807   2.919   5.392  13.702
58323SOL    HW176808   2.906   5.305  13.741
58323SOL    HW276809   3.012   5.395  13.680
58324SOL     OW76810   2.489   6.113   3.031
58324SOL    HW176811   2.484   6.201   3.067
58324SOL    HW276812   2.437   6.116   2.951
58325SOL     OW76813   5.024   8.372   7.949
58325SOL    HW176814   4.985   8.294   7.988
58325SOL    HW276815   4.959   8.441   7.963
58326SOL     OW76816   2.389  13.529   5.202
58326SOL    HW176817   2.450  13.535   5.275
58326SOL    HW276818   2.333  13.455   5.224
58327SOL     OW76819   5.534  11.895  10.862
58327SOL    HW176820   5.591  11.922  10.934
58327SOL    HW276821   5.449  11.935  10.882
58328SOL     OW76822   2.054   6.176   0.582
58328SOL    HW176823   2.024   6.163   0.492
58328SOL    HW276824   1.977   6.155   0.636
58329SOL     OW76825   3.581  11.768   0.798
58329SOL    HW176826   3.532  11.813   0.867
58329SOL    HW276827   3.541  11.799   0.717
58330SOL     OW76828   0.665   4.469   3.746
58330SOL    HW176829   0.662   4.506   3.834
58330SOL    HW276830   0.698   4.540   3.690
58331SOL     OW76831  10.620   8.026   0.702
58331SOL    HW176832  10.571   8.100   0.665
58331SOL    HW276833  10.566   7.997   0.775
58332SOL     OW76834   7.863   2.074   8.479
58332SOL    HW176835   7.899   2.011   8.417
58332SOL    HW276836   7.936   2.134   8.498
58333SOL     OW76837  12.801  14.777   6.258
58333SOL    HW176838  12.772  14.789   6.168
58333SOL    HW276839  12.793  14.864   6.297
58334SOL     OW76840   5.950   4.890   0.116
58334SOL    HW176841   5.934   4.803   0.151
58334SOL    HW276842   5.926   4.950   0.188
58335SOL     OW76843   4.009   5.489  13.973
58335SOL    HW176844   3.972   5.464  14.057
58335SOL    HW276845   4.070   5.560  13.994
58336SOL     OW76846   4.538   7.036   0.391
58336SOL    HW176847   4.538   6.948   0.429
58336SOL    HW276848   4.627   7.046   0.356
58337SOL     OW76849   5.547   4.688   7.679
58337SOL    HW176850   5.626   4.706   7.628
58337SOL    HW276851   5.475   4.714   7.621
58338SOL     OW76852   6.898  12.429   9.509
58338SOL    HW176853   6.850  12.359   9.467
58338SOL    HW276854   6.839  12.462   9.577
58339SOL     OW76855   6.815   7.507   0.489
58339SOL    HW176856   6.867   7.535   0.413
58339SOL    HW276857   6.875   7.452   0.540
58340SOL     OW76858   6.690   7.077   8.687
58340SOL    HW176859   6.775   7.039   8.712
58340SOL    HW276860   6.651   7.011   8.630
58341SOL     OW76861   5.419   4.538  12.865
58341SOL    HW176862   5.481   4.496  12.805
58341SOL    HW276863   5.352   4.471  12.881
58342SOL     OW76864   8.316  14.528  11.206
58342SOL    HW176865   8.277  14.476  11.136
58342SOL    HW276866   8.370  14.465  11.255
58343SOL     OW76867  12.567  10.646  13.428
58343SOL    HW176868  12.574  10.634  13.522
58343SOL    HW276869  12.544  10.739  13.418
58344SOL     OW76870   8.705  13.489   1.544
58344SOL    HW176871   8.779  13.443   1.584
58344SOL    HW276872   8.728  13.582   1.552
58345SOL     OW76873   2.313  14.399  11.406
58345SOL    HW176874   2.390  14.366  11.360
58345SOL    HW276875   2.335  14.393  11.498
58346SOL     OW76876  13.069  14.124   8.923
58346SOL    HW176877  13.121  14.055   8.881
58346SOL    HW276878  13.119  14.204   8.908
58347SOL     OW76879  14.299  13.360   6.750
58347SOL    HW176880  14.378  13.410   6.730
58347SOL    HW276881  14.330  13.284   6.799
58348SOL     OW76882   7.832   3.551  13.860
58348SOL    HW176883   7.800   3.642  13.856
58348SOL    HW276884   7.752   3.499  13.858
58349SOL     OW76885   2.852   2.383   3.590
58349SOL    HW176886   2.819   2.337   3.667
58349SOL    HW276887   2.886   2.313   3.534
58350SOL     OW76888   3.634   3.376   4.804
58350SOL    HW176889   3.713   3.322   4.804
58350SOL    HW276890   3.666   3.465   4.788
58351SOL     OW76891  11.879  10.945   9.116
58351SOL    HW176892  11.970  10.942   9.146
58351SOL    HW276893  11.843  11.023   9.160
58352SOL     OW76894   4.518  12.495   5.469
58352SOL    HW176895   4.556  12.435   5.404
58352SOL    HW276896   4.494  12.572   5.418
58353SOL     OW76897   2.207   7.174   4.636
58353SOL    HW176898   2.126   7.122   4.637
58353SOL    HW276899   2.177   7.265   4.635
58354SOL     OW76900  13.765   9.303   8.538
58354SOL    HW176901  13.799   9.327   8.452
58354SOL    HW276902  13.685   9.255   8.520
58355SOL     OW76903   6.652  14.531   1.985
58355SOL    HW176904   6.573  14.574   2.017
58355SOL    HW276905   6.713  14.602   1.968
58356SOL     OW76906  11.366   2.037   5.251
58356SOL    HW176907  11.330   2.123   5.272
58356SOL    HW276908  11.449   2.034   5.299
58357SOL     OW76909   4.609   0.700   5.895
58357SOL    HW176910   4.638   0.724   5.983
58357SOL    HW276911   4.558   0.776   5.865
58358SOL     OW76912  13.466   7.348   4.851
58358SOL    HW176913  13.373   7.326   4.854
58358SOL    HW276914  13.469   7.443   4.862
58359SOL     OW76915   7.082  10.785   3.320
58359SOL    HW176916   7.120  10.870   3.341
58359SOL    HW276917   7.136  10.721   3.366
58360SOL     OW76918   1.648   0.186   1.065
58360SOL    HW176919   1.610   0.111   1.020
58360SOL    HW276920   1.741   0.182   1.044
58361SOL     OW76921   0.226   1.474   8.951
58361SOL    HW176922   0.214   1.396   8.897
58361SOL    HW276923   0.311   1.509   8.924
58362SOL     OW76924   7.950   1.173   1.220
58362SOL    HW176925   8.007   1.138   1.152
58362SOL    HW276926   8.011   1.207   1.286
58363SOL     OW76927  14.855  12.949   5.459
58363SOL    HW176928  14.855  12.921   5.551
58363SOL    HW276929   0.064  12.999   5.450
58364SOL     OW76930   6.777   1.358   7.889
58364SOL    HW176931   6.753   1.431   7.947
58364SOL    HW276932   6.832   1.302   7.944
58365SOL     OW76933  13.371   3.271  14.798
58365SOL    HW176934  13.331   3.187  14.819
58365SOL    HW276935  13.354   3.326   0.001
58366SOL     OW76936   8.555   0.982   6.613
58366SOL    HW176937   8.522   1.005   6.526
58366SOL    HW276938   8.649   0.998   6.607
58367SOL     OW76939   9.536  12.064  10.437
58367SOL    HW176940   9.481  12.133  10.473
58367SOL    HW276941   9.608  12.110  10.395
58368SOL     OW76942   4.836  14.837   3.610
58368SOL    HW176943   4.821  14.865   3.701
58368SOL    HW276944   4.847   0.046   3.562
58369SOL     OW76945   0.257   0.142   0.296
58369SOL    HW176946   0.246   0.065   0.240
58369SOL    HW276947   0.170   0.181   0.300
58370SOL     OW76948   2.231   5.538   6.357
58370SOL    HW176949   2.299   5.487   6.313
58370SOL    HW276950   2.212   5.610   6.297
58371SOL     OW76951   2.907   0.679  13.637
58371SOL    HW176952   2.905   0.683  13.541
58371SOL    HW276953   2.993   0.641  13.657
58372SOL     OW76954   0.301   1.092   3.330
58372SOL    HW176955   0.309   1.127   3.418
58372SOL    HW276956   0.362   1.144   3.278
58373SOL     OW76957   6.437   4.042   5.508
58373SOL    HW176958   6.373   3.974   5.487
58373SOL    HW276959   6.426   4.108   5.440
58374SOL     OW76960  13.636   4.555   9.264
58374SOL    HW176961  13.579   4.590   9.196
58374SOL    HW276962  13.646   4.626   9.327
58375SOL     OW76963   6.414   7.512   6.468
58375SOL    HW176964   6.337   7.479   6.421
58375SOL    HW276965   6.384   7.527   6.558
58376SOL     OW76966   7.751  11.820  11.320
58376SOL    HW176967   7.739  11.740  11.269
58376SOL    HW276968   7.785  11.789  11.404
58377SOL     OW76969   2.164   7.816  11.171
58377SOL    HW176970   2.197   7.896  11.130
58377SOL    HW276971   2.084   7.796  11.123
58378SOL     OW76972   6.962   8.124   7.685
58378SOL    HW176973   6.897   8.116   7.615
58378SOL    HW276974   6.911   8.118   7.766
58379SOL     OW76975   0.414   1.627   7.665
58379SOL    HW176976   0.401   1.648   7.757
58379SOL    HW276977   0.334   1.582   7.639
58380SOL     OW76978  12.617  14.467  13.408
58380SOL    HW176979  12.593  14.494  13.497
58380SOL    HW276980  12.644  14.548  13.365
58381SOL     OW76981   2.873   5.774   3.021
58381SOL    HW176982   2.816   5.808   3.091
58381SOL    HW276983   2.821   5.783   2.941
58382SOL     OW76984   7.862   0.720   2.836
58382SOL    HW176985   7.802   0.657   2.798
58382SOL    HW276986   7.838   0.804   2.796
58383SOL     OW76987   4.375   8.857   6.166
58383SOL    HW176988   4.371   8.787   6.101
58383SOL    HW276989   4.323   8.928   6.129
58384SOL     OW76990   6.582   2.032   9.141
58384SOL    HW176991   6.580   2.028   9.236
58384SOL    HW276992   6.547   1.948   9.112
58385SOL     OW76993   4.800  12.783   4.783
58385SOL    HW176994   4.862  12.848   4.816
58385SOL    HW276995   4.842  12.749   4.704
58386SOL     OW76996   7.130   4.766  11.053
58386SOL    HW176997   7.052   4.729  11.010
58386SOL    HW276998   7.108   4.858  11.066
58387SOL     OW76999  12.984   6.117   3.774
58387SOL    HW177000  12.911   6.090   3.830
58387SOL    HW277001  13.053   6.052   3.791
58388SOL     OW77002  11.303   4.385   9.354
58388SOL    HW177003  11.356   4.440   9.411
58388SOL    HW277004  11.214   4.418   9.365
58389SOL     OW77005   0.248  11.395   0.046
58389SOL    HW177006   0.282  11.380   0.134
58389SOL    HW277007   0.267  11.315  14.872
58390SOL     OW77008   6.964  11.093   7.543
58390SOL    HW177009   6.996  11.147   7.615
58390SOL    HW277010   6.994  11.138   7.464
58391SOL     OW77011   5.088   8.483   5.442
58391SOL    HW177012   5.004   8.437   5.450
58391SOL    HW277013   5.132   8.468   5.525
58392SOL     OW77014   7.603   0.537   4.605
58392SOL    HW177015   7.583   0.508   4.516
58392SOL    HW277016   7.647   0.463   4.645
58393SOL     OW77017  13.473   0.243  12.715
58393SOL    HW177018  13.434   0.308  12.774
58393SOL    HW277019  13.407   0.174  12.708
58394SOL     OW77020  14.049   5.731   5.411
58394SOL    HW177021  13.995   5.788   5.357
58394SOL    HW277022  14.132   5.724   5.365
58395SOL     OW77023   7.991   7.370  13.029
58395SOL    HW177024   8.037   7.303  12.978
58395SOL    HW277025   7.901   7.367  12.996
58396SOL     OW77026  14.497  11.766  11.771
58396SOL    HW177027  14.494  11.671  11.764
58396SOL    HW277028  14.422  11.789  11.826
58397SOL     OW77029   6.309  14.198   3.048
58397SOL    HW177030   6.249  14.129   3.021
58397SOL    HW277031   6.253  14.272   3.071
58398SOL     OW77032  13.880   8.198  14.095
58398SOL    HW177033  13.903   8.178  14.004
58398SOL    HW277034  13.952   8.160  14.146
58399SOL     OW77035   6.928   5.642   3.496
58399SOL    HW177036   6.869   5.608   3.563
58399SOL    HW277037   6.886   5.724   3.467
58400SOL     OW77038  12.244   1.701  11.693
58400SOL    HW177039  12.192   1.715  11.772
58400SOL    HW277040  12.241   1.784  11.646
58401SOL     OW77041   5.331   1.879   3.119
58401SOL    HW177042   5.306   1.964   3.081
58401SOL    HW277043   5.321   1.817   3.047
58402SOL     OW77044  10.224   5.191  13.159
58402SOL    HW177045  10.268   5.199  13.075
58402SOL    HW277046  10.140   5.150  13.140
58403SOL     OW77047  13.709  12.575   8.378
58403SOL    HW177048  13.792  12.609   8.412
58403SOL    HW277049  13.642  12.626   8.424
58404SOL     OW77050  13.257  10.088  14.179
58404SOL    HW177051  13.226  10.003  14.209
58404SOL    HW277052  13.205  10.151  14.229
58405SOL     OW77053   6.035   5.615  13.587
58405SOL    HW177054   5.963   5.667  13.623
58405SOL    HW277055   6.013   5.604  13.494
58406SOL     OW77056  11.961   4.375   2.586
58406SOL    HW177057  11.926   4.336   2.506
58406SOL    HW277058  11.921   4.325   2.657
58407SOL     OW77059   9.204   7.766   3.336
58407SOL    HW177060   9.200   7.728   3.249
58407SOL    HW277061   9.174   7.856   3.325
58408SOL     OW77062  13.774   1.266   3.676
58408SOL    HW177063  13.679   1.263   3.668
58408SOL    HW277064  13.804   1.302   3.592
58409SOL     OW77065   9.900  13.392   4.077
58409SOL    HW177066   9.838  13.358   4.012
58409SOL    HW277067   9.857  13.469   4.114
58410SOL     OW77068   6.601   5.006   5.159
58410SOL    HW177069   6.513   5.044   5.168
58410SOL    HW277070   6.595   4.923   5.207
58411SOL     OW77071   3.473  11.485   7.120
58411SOL    HW177072   3.495  11.564   7.170
58411SOL    HW277073   3.414  11.517   7.051
58412SOL     OW77074  10.928   4.298   6.903
58412SOL    HW177075  10.990   4.269   6.970
58412SOL    HW277076  10.846   4.314   6.951
58413SOL     OW77077   3.205   3.781  12.164
58413SOL    HW177078   3.222   3.758  12.256
58413SOL    HW277079   3.290   3.806  12.129
58414SOL     OW77080  13.612   3.763   5.653
58414SOL    HW177081  13.679   3.695   5.642
58414SOL    HW277082  13.550   3.748   5.582
58415SOL     OW77083   8.964   0.566  14.324
58415SOL    HW177084   9.023   0.499  14.359
58415SOL    HW277085   9.003   0.649  14.352
58416SOL     OW77086   8.528   9.819   6.727
58416SOL    HW177087   8.434   9.813   6.743
58416SOL    HW277088   8.540   9.907   6.692
58417SOL     OW77089   5.442  13.422  11.595
58417SOL    HW177090   5.408  13.383  11.676
58417SOL    HW277091   5.409  13.365  11.525
58418SOL     OW77092   3.463   0.471  13.782
58418SOL    HW177093   3.384   0.418  13.789
58418SOL    HW277094   3.513   0.431  13.711
58419SOL     OW77095   3.903   4.914  10.002
58419SOL    HW177096   3.992   4.949   9.992
58419SOL    HW277097   3.906   4.863  10.083
58420SOL     OW77098   3.365   5.742   7.968
58420SOL    HW177099   3.420   5.665   7.981
58420SOL    HW277100   3.359   5.782   8.055
58421SOL     OW77101  11.388  12.366   7.223
58421SOL    HW177102  11.318  12.372   7.158
58421SOL    HW277103  11.467  12.349   7.172
58422SOL     OW77104   1.799   6.517  10.906
58422SOL    HW177105   1.715   6.513  10.860
58422SOL    HW277106   1.777   6.494  10.996
58423SOL     OW77107  10.364   9.293   1.319
58423SOL    HW177108  10.332   9.383   1.320
58423SOL    HW277109  10.346   9.260   1.407
58424SOL     OW77110   7.184   1.690  11.431
58424SOL    HW177111   7.232   1.612  11.459
58424SOL    HW277112   7.232   1.721  11.354
58425SOL     OW77113   6.749   5.564   1.493
58425SOL    HW177114   6.763   5.650   1.532
58425SOL    HW277115   6.836   5.535   1.467
58426SOL     OW77116  12.764   8.424   5.917
58426SOL    HW177117  12.849   8.381   5.904
58426SOL    HW277118  12.770   8.460   6.005
58427SOL     OW77119   6.386   7.749   8.971
58427SOL    HW177120   6.349   7.769   9.057
58427SOL    HW277121   6.412   7.834   8.935
58428SOL     OW77122   0.393   7.475  13.240
58428SOL    HW177123   0.312   7.429  13.260
58428SOL    HW277124   0.365   7.561  13.208
58429SOL     OW77125  10.604   5.294   3.014
58429SOL    HW177126  10.679   5.239   3.038
58429SOL    HW277127  10.531   5.232   3.006
58430SOL     OW77128  13.443   4.747   2.288
58430SOL    HW177129  13.526   4.783   2.256
58430SOL    HW277130  13.461   4.721   2.378
58431SOL     OW77131   6.938   0.430   8.738
58431SOL    HW177132   6.952   0.355   8.796
58431SOL    HW277133   6.969   0.506   8.788
58432SOL     OW77134   7.540  10.635   7.894
58432SOL    HW177135   7.524  10.609   7.985
58432SOL    HW277136   7.570  10.556   7.850
58433SOL     OW77137   2.246   9.748   2.184
58433SOL    HW177138   2.319   9.700   2.223
58433SOL    HW277139   2.219   9.810   2.252
58434SOL     OW77140   1.643   2.592   3.556
58434SOL    HW177141   1.715   2.654   3.555
58434SOL    HW277142   1.652   2.543   3.474
58435SOL     OW77143   5.099   4.455  11.202
58435SOL    HW177144   5.015   4.453  11.156
58435SOL    HW277145   5.121   4.364  11.218
58436SOL     OW77146  12.496  14.088   7.020
58436SOL    HW177147  12.551  14.090   6.942
58436SOL    HW277148  12.505  13.999   7.053
58437SOL     OW77149   1.716   4.568  11.552
58437SOL    HW177150   1.688   4.648  11.597
58437SOL    HW277151   1.789   4.535  11.606
58438SOL     OW77152   8.696   5.097   2.132
58438SOL    HW177153   8.720   5.004   2.136
58438SOL    HW277154   8.609   5.101   2.173
58439SOL     OW77155   8.684  10.555  14.275
58439SOL    HW177156   8.692  10.493  14.203
58439SOL    HW277157   8.741  10.628  14.252
58440SOL     OW77158  10.232   0.625   8.677
58440SOL    HW177159  10.174   0.569   8.728
58440SOL    HW277160  10.318   0.584   8.684
58441SOL     OW77161   6.849   6.123   3.112
58441SOL    HW177162   6.778   6.083   3.161
58441SOL    HW277163   6.927   6.075   3.138
58442SOL     OW77164  13.265  10.149  12.549
58442SOL    HW177165  13.328  10.187  12.488
58442SOL    HW277166  13.239  10.223  12.605
58443SOL     OW77167   4.608   1.434   7.251
58443SOL    HW177168   4.680   1.377   7.279
58443SOL    HW277169   4.598   1.414   7.158
58444SOL     OW77170   5.949   6.035   9.149
58444SOL    HW177171   5.991   6.092   9.085
58444SOL    HW277172   5.961   6.080   9.233
58445SOL     OW77173   6.378  14.016  11.810
58445SOL    HW177174   6.314  14.082  11.782
58445SOL    HW277175   6.379  13.952  11.739
58446SOL     OW77176   4.356   6.789  10.400
58446SOL    HW177177   4.353   6.694  10.411
58446SOL    HW277178   4.447   6.812  10.417
58447SOL     OW77179   9.192  12.157   1.062
58447SOL    HW177180   9.224  12.100   0.993
58447SOL    HW277181   9.193  12.244   1.023
58448SOL     OW77182   9.798   3.043  12.513
58448SOL    HW177183   9.894   3.049  12.512
58448SOL    HW277184   9.769   3.132  12.530
58449SOL     OW77185   5.419   3.184  12.664
58449SOL    HW177186   5.475   3.151  12.734
58449SOL    HW277187   5.367   3.108  12.637
58450SOL     OW77188   9.632   6.453   0.323
58450SOL    HW177189   9.587   6.432   0.405
58450SOL    HW277190   9.699   6.516   0.348
58451SOL     OW77191  13.246   7.670   3.618
58451SOL    HW177192  13.232   7.680   3.712
58451SOL    HW277193  13.162   7.694   3.579
58452SOL     OW77194   0.037   1.968   7.776
58452SOL    HW177195   0.116   1.985   7.827
58452SOL    HW277196  14.847   1.934   7.839
58453SOL     OW77197   8.963  13.720   5.199
58453SOL    HW177198   8.909  13.800   5.196
58453SOL    HW277199   9.034  13.742   5.260
58454SOL     OW77200   4.938   0.251   3.898
58454SOL    HW177201   4.974   0.166   3.922
58454SOL    HW277202   4.997   0.284   3.831
58455SOL     OW77203  12.278   3.652   9.286
58455SOL    HW177204  12.250   3.673   9.197
58455SOL    HW277205  12.320   3.566   9.279
58456SOL     OW77206   7.702   1.044   9.333
58456SOL    HW177207   7.724   1.097   9.410
58456SOL    HW277208   7.730   0.955   9.357
58457SOL     OW77209  14.325   5.765  12.694
58457SOL    HW177210  14.344   5.758  12.601
58457SOL    HW277211  14.378   5.840  12.723
58458SOL     OW77212  13.844   2.895   7.869
58458SOL    HW177213  13.770   2.937   7.827
58458SOL    HW277214  13.892   2.853   7.797
58459SOL     OW77215   6.213  12.633   0.777
58459SOL    HW177216   6.170  12.597   0.855
58459SOL    HW277217   6.305  12.644   0.804
58460SOL     OW77218   6.419   4.056   2.639
58460SOL    HW177219   6.341   4.071   2.586
58460SOL    HW277220   6.461   3.980   2.598
58461SOL     OW77221   1.879   2.409  11.592
58461SOL    HW177222   1.919   2.335  11.546
58461SOL    HW277223   1.806   2.435  11.536
58462SOL     OW77224   4.279   2.712   1.202
58462SOL    HW177225   4.345   2.780   1.215
58462SOL    HW277226   4.299   2.675   1.117
58463SOL     OW77227   6.470  13.380   2.443
58463SOL    HW177228   6.495  13.354   2.532
58463SOL    HW277229   6.481  13.475   2.442
58464SOL     OW77230   3.778   7.496  13.930
58464SOL    HW177231   3.745   7.411  13.958
58464SOL    HW277232   3.823   7.478  13.847
58465SOL     OW77233   4.405   3.822  13.257
58465SOL    HW177234   4.367   3.904  13.290
58465SOL    HW277235   4.472   3.800  13.321
58466SOL     OW77236   9.665   2.316  13.257
58466SOL    HW177237   9.664   2.268  13.340
58466SOL    HW277238   9.691   2.252  13.191
58467SOL     OW77239   9.922  12.792   9.595
58467SOL    HW177240   9.867  12.800   9.517
58467SOL    HW277241  10.006  12.830   9.568
58468SOL     OW77242   3.762   9.993   2.851
58468SOL    HW177243   3.791  10.014   2.763
58468SOL    HW277244   3.842   9.977   2.900
58469SOL     OW77245  10.216   6.786   0.817
58469SOL    HW177246  10.206   6.743   0.902
58469SOL    HW277247  10.127   6.814   0.793
58470SOL     OW77248   9.415  13.494   8.699
58470SOL    HW177249   9.387  13.531   8.783
58470SOL    HW277250   9.495  13.445   8.721
58471SOL     OW77251   4.071  11.204   8.821
58471SOL    HW177252   4.099  11.271   8.884
58471SOL    HW277253   4.152  11.155   8.801
58472SOL     OW77254   0.113   9.130   6.532
58472SOL    HW177255   0.157   9.215   6.532
58472SOL    HW277256   0.030   9.146   6.486
58473SOL     OW77257   1.122   2.741   9.067
58473SOL    HW177258   1.207   2.698   9.080
58473SOL    HW277259   1.125   2.773   8.977
58474SOL     OW77260   3.851   4.904  13.323
58474SOL    HW177261   3.865   4.998  13.333
58474SOL    HW277262   3.801   4.896  13.241
58475SOL     OW77263  13.741  12.036   7.846
58475SOL    HW177264  13.758  12.044   7.753
58475SOL    HW277265  13.682  12.109   7.866
58476SOL     OW77266  11.981   1.307   7.690
58476SOL    HW177267  11.996   1.221   7.728
58476SOL    HW277268  11.963   1.290   7.597
58477SOL     OW77269  13.403  14.258   2.881
58477SOL    HW177270  13.491  14.222   2.872
58477SOL    HW277271  13.410  14.346   2.843
58478SOL     OW77272   4.075   4.637   1.385
58478SOL    HW177273   4.163   4.665   1.360
58478SOL    HW277274   4.040   4.593   1.307
58479SOL     OW77275   3.455   2.877   2.931
58479SOL    HW177276   3.530   2.867   2.991
58479SOL    HW277277   3.459   2.969   2.905
58480SOL     OW77278   3.375  10.772  11.036
58480SOL    HW177279   3.329  10.820  11.105
58480SOL    HW277280   3.315  10.776  10.961
58481SOL     OW77281   2.838  11.409  12.520
58481SOL    HW177282   2.753  11.439  12.487
58481SOL    HW277283   2.837  11.314  12.507
58482SOL     OW77284   9.817  13.721  14.598
58482SOL    HW177285   9.864  13.717  14.515
58482SOL    HW277286   9.846  13.642  14.645
58483SOL     OW77287   8.026   5.488  11.980
58483SOL    HW177288   7.974   5.521  11.908
58483SOL    HW277289   8.021   5.556  12.047
58484SOL     OW77290   4.074   0.807   6.222
58484SOL    HW177291   3.988   0.838   6.193
58484SOL    HW277292   4.062   0.714   6.239
58485SOL     OW77293  14.773   4.027   2.939
58485SOL    HW177294  14.810   3.947   2.977
58485SOL    HW277295  14.744   4.078   3.015
58486SOL     OW77296  10.673  13.797   4.829
58486SOL    HW177297  10.663  13.759   4.742
58486SOL    HW277298  10.586  13.832   4.850
58487SOL     OW77299  10.851   5.605   2.851
58487SOL    HW177300  10.842   5.579   2.759
58487SOL    HW277301  10.762   5.596   2.886
58488SOL     OW77302  11.033  11.322   7.392
58488SOL    HW177303  11.067  11.318   7.481
58488SOL    HW277304  11.009  11.231   7.372
58489SOL     OW77305   5.890   8.882  11.547
58489SOL    HW177306   5.956   8.945  11.576
58489SOL    HW277307   5.815   8.897  11.605
58490SOL     OW77308   6.852   2.981  11.623
58490SOL    HW177309   6.830   2.948  11.710
58490SOL    HW277310   6.811   2.919  11.563
58491SOL     OW77311   2.077  10.359   1.831
58491SOL    HW177312   2.124  10.330   1.753
58491SOL    HW277313   2.006  10.413   1.798
58492SOL     OW77314   3.289   6.078  12.554
58492SOL    HW177315   3.369   6.128  12.562
58492SOL    HW277316   3.297   6.009  12.620
58493SOL     OW77317   0.692   2.015   9.379
58493SOL    HW177318   0.725   2.055   9.459
58493SOL    HW277319   0.652   2.087   9.331
58494SOL     OW77320  13.193  12.129   2.985
58494SOL    HW177321  13.158  12.211   2.949
58494SOL    HW277322  13.263  12.157   3.044
58495SOL     OW77323   4.904   9.356   6.304
58495SOL    HW177324   4.941   9.441   6.282
58495SOL    HW277325   4.956   9.294   6.253
58496SOL     OW77326  11.199  11.794   0.138
58496SOL    HW177327  11.251  11.728   0.093
58496SOL    HW277328  11.262  11.843   0.190
58497SOL     OW77329  11.962   6.775  10.421
58497SOL    HW177330  12.054   6.770  10.394
58497SOL    HW277331  11.914   6.789  10.339
58498SOL     OW77332   5.822   3.261   1.766
58498SOL    HW177333   5.816   3.207   1.845
58498SOL    HW277334   5.913   3.252   1.737
58499SOL     OW77335   6.325  12.196  11.683
58499SOL    HW177336   6.399  12.176  11.740
58499SOL    HW277337   6.309  12.114  11.636
58500SOL     OW77338  11.436   7.997  12.883
58500SOL    HW177339  11.403   8.006  12.793
58500SOL    HW277340  11.512   7.940  12.874
58501SOL     OW77341   9.002   0.486   2.869
58501SOL    HW177342   8.929   0.505   2.811
58501SOL    HW277343   8.977   0.405   2.915
58502SOL     OW77344   2.514  11.770  13.546
58502SOL    HW177345   2.489  11.698  13.605
58502SOL    HW277346   2.536  11.842  13.604
58503SOL     OW77347   2.783   9.673  11.773
58503SOL    HW177348   2.865   9.627  11.758
58503SOL    HW277349   2.775   9.678  11.868
58504SOL     OW77350  11.903   2.471   2.292
58504SOL    HW177351  11.968   2.413   2.250
58504SOL    HW277352  11.841   2.411   2.334
58505SOL     OW77353  13.461  13.449   3.028
58505SOL    HW177354  13.415  13.399   2.961
58505SOL    HW277355  13.538  13.396   3.048
58506SOL     OW77356   2.191  10.377  14.519
58506SOL    HW177357   2.241  10.296  14.508
58506SOL    HW277358   2.255  10.440  14.552
58507SOL     OW77359   1.002  13.076  14.723
58507SOL    HW177360   0.930  13.033  14.676
58507SOL    HW277361   0.958  13.133  14.786
58508SOL     OW77362   4.229   0.907  13.620
58508SOL    HW177363   4.190   0.831  13.577
58508SOL    HW277364   4.317   0.879  13.644
58509SOL     OW77365   5.871   6.257   7.693
58509SOL    HW177366   5.908   6.174   7.722
58509SOL    HW277367   5.840   6.239   7.604
58510SOL     OW77368  13.548   2.165  13.418
58510SOL    HW177369  13.634   2.124  13.404
58510SOL    HW277370  13.519   2.133  13.503
58511SOL     OW77371   1.937  10.540   1.679
58511SOL    HW177372   1.842  10.529   1.665
58511SOL    HW277373   1.967  10.589   1.603
58512SOL     OW77374   1.993   4.854  10.572
58512SOL    HW177375   2.077   4.815  10.548
58512SOL    HW277376   2.014   4.914  10.644
58513SOL     OW77377   5.050  12.850   6.284
58513SOL    HW177378   5.028  12.764   6.249
58513SOL    HW277379   5.028  12.845   6.377
58514SOL     OW77380   1.971  10.974   5.632
58514SOL    HW177381   1.910  10.992   5.561
58514SOL    HW277382   2.014  10.892   5.607
58515SOL     OW77383  12.880  11.440   1.169
58515SOL    HW177384  12.970  11.468   1.186
58515SOL    HW277385  12.883  11.345   1.174
58516SOL     OW77386   3.691   7.060   0.286
58516SOL    HW177387   3.766   7.001   0.297
58516SOL    HW277388   3.708   7.104   0.203
58517SOL     OW77389   0.373   1.874   8.661
58517SOL    HW177390   0.356   1.902   8.571
58517SOL    HW277391   0.468   1.858   8.663
58518SOL     OW77392  10.455   1.746   3.321
58518SOL    HW177393  10.493   1.808   3.384
58518SOL    HW277394  10.377   1.712   3.364
58519SOL     OW77395   9.766   4.047  13.094
58519SOL    HW177396   9.791   3.976  13.034
58519SOL    HW277397   9.682   4.078  13.061
58520SOL     OW77398   9.777  13.344  10.564
58520SOL    HW177399   9.811  13.433  10.571
58520SOL    HW277400   9.683  13.356  10.546
58521SOL     OW77401   2.763  10.747  14.806
58521SOL    HW177402   2.818  10.685  14.759
58521SOL    HW277403   2.778  10.831  14.762
58522SOL     OW77404   7.528   7.453   4.274
58522SOL    HW177405   7.461   7.449   4.343
58522SOL    HW277406   7.611   7.451   4.322
58523SOL     OW77407  11.920   1.571   4.358
58523SOL    HW177408  11.853   1.579   4.426
58523SOL    HW277409  11.916   1.479   4.331
58524SOL     OW77410   8.613   8.612  14.401
58524SOL    HW177411   8.619   8.691  14.455
58524SOL    HW277412   8.624   8.540  14.464
58525SOL     OW77413  12.579   0.636   8.036
58525SOL    HW177414  12.641   0.620   7.964
58525SOL    HW277415  12.561   0.549   8.072
58526SOL     OW77416  13.791   8.341   2.097
58526SOL    HW177417  13.733   8.413   2.120
58526SOL    HW277418  13.756   8.266   2.146
58527SOL     OW77419   5.447   7.293   6.324
58527SOL    HW177420   5.490   7.217   6.287
58527SOL    HW277421   5.396   7.330   6.252
58528SOL     OW77422  11.430  11.414  14.872
58528SOL    HW177423  11.395  11.433   0.086
58528SOL    HW277424  11.502  11.353   0.015
58529SOL     OW77425   1.893  11.460   9.954
58529SOL    HW177426   1.810  11.477   9.910
58529SOL    HW277427   1.907  11.536  10.010
58530SOL     OW77428  13.180   9.314   7.493
58530SOL    HW177429  13.143   9.295   7.408
58530SOL    HW277430  13.243   9.385   7.477
58531SOL     OW77431   9.953   8.455   9.046
58531SOL    HW177432   9.955   8.548   9.068
58531SOL    HW277433  10.045   8.429   9.042
58532SOL     OW77434   4.809   1.323   6.811
58532SOL    HW177435   4.742   1.333   6.879
58532SOL    HW277436   4.860   1.404   6.816
58533SOL     OW77437  14.711   1.600   8.793
58533SOL    HW177438  14.744   1.658   8.862
58533SOL    HW277439  14.761   1.519   8.803
58534SOL     OW77440   8.319  13.471   3.041
58534SOL    HW177441   8.304  13.473   2.947
58534SOL    HW277442   8.401  13.422   3.052
58535SOL     OW77443  11.057  12.408   9.384
58535SOL    HW177444  11.123  12.339   9.374
58535SOL    HW277445  11.095  12.483   9.338
58536SOL     OW77446   3.307   8.479   9.046
58536SOL    HW177447   3.383   8.455   8.993
58536SOL    HW277448   3.323   8.440   9.132
58537SOL     OW77449   5.874   2.479  10.957
58537SOL    HW177450   5.899   2.568  10.931
58537SOL    HW277451   5.780   2.485  10.977
58538SOL     OW77452   2.126   9.147   2.941
58538SOL    HW177453   2.086   9.234   2.931
58538SOL    HW277454   2.219   9.165   2.950
58539SOL     OW77455   1.901   9.601  11.110
58539SOL    HW177456   1.926   9.690  11.135
58539SOL    HW277457   1.849   9.569  11.183
58540SOL     OW77458   0.077   6.327   2.423
58540SOL    HW177459   0.003   6.330   2.363
58540SOL    HW277460   0.038   6.344   2.509
58541SOL     OW77461   0.587  14.261   2.382
58541SOL    HW177462   0.632  14.326   2.328
58541SOL    HW277463   0.626  14.177   2.357
58542SOL     OW77464   3.582  12.481   6.436
58542SOL    HW177465   3.609  12.396   6.472
58542SOL    HW277466   3.625  12.486   6.351
58543SOL     OW77467  13.346   4.235   5.199
58543SOL    HW177468  13.432   4.199   5.175
58543SOL    HW277469  13.292   4.158   5.215
58544SOL     OW77470   4.902   6.231   4.078
58544SOL    HW177471   4.842   6.164   4.113
58544SOL    HW277472   4.936   6.193   3.997
58545SOL     OW77473   6.979  12.024   7.025
58545SOL    HW177474   6.911  12.090   7.010
58545SOL    HW277475   7.029  12.057   7.100
58546SOL     OW77476   0.757   1.140   1.551
58546SOL    HW177477   0.723   1.191   1.625
58546SOL    HW277478   0.679   1.100   1.512
58547SOL     OW77479   1.375   5.085   1.882
58547SOL    HW177480   1.413   5.007   1.922
58547SOL    HW277481   1.293   5.055   1.842
58548SOL     OW77482  13.563   7.713  12.734
58548SOL    HW177483  13.559   7.617  12.730
58548SOL    HW277484  13.481   7.738  12.777
58549SOL     OW77485  11.595  14.435   0.437
58549SOL    HW177486  11.635  14.521   0.451
58549SOL    HW277487  11.564  14.408   0.523
58550SOL     OW77488   4.282   1.807   1.376
58550SOL    HW177489   4.283   1.815   1.281
58550SOL    HW277490   4.341   1.876   1.407
58551SOL     OW77491   9.402   2.935  14.527
58551SOL    HW177492   9.489   2.899  14.510
58551SOL    HW277493   9.361   2.941  14.440
58552SOL     OW77494  14.234   8.454   8.509
58552SOL    HW177495  14.183   8.461   8.590
58552SOL    HW277496  14.279   8.538   8.502
58553SOL     OW77497   7.779   1.816   9.800
58553SOL    HW177498   7.780   1.845   9.709
58553SOL    HW277499   7.693   1.776   9.812
58554SOL     OW77500   3.064   9.309   8.221
58554SOL    HW177501   3.039   9.326   8.311
58554SOL    HW277502   3.155   9.280   8.226
58555SOL     OW77503   6.937  11.267   1.069
58555SOL    HW177504   7.027  11.238   1.055
58555SOL    HW277505   6.917  11.322   0.993
58556SOL     OW77506   5.521   4.324   3.636
58556SOL    HW177507   5.542   4.301   3.546
58556SOL    HW277508   5.465   4.252   3.667
58557SOL     OW77509   8.224   5.807   1.970
58557SOL    HW177510   8.297   5.798   2.030
58557SOL    HW277511   8.172   5.880   2.005
58558SOL     OW77512   3.808   4.368   1.224
58558SOL    HW177513   3.899   4.386   1.199
58558SOL    HW277514   3.761   4.449   1.204
58559SOL     OW77515  13.669  13.887   6.157
58559SOL    HW177516  13.656  13.905   6.250
58559SOL    HW277517  13.687  13.793   6.152
58560SOL     OW77518   6.986  13.184  14.412
58560SOL    HW177519   7.073  13.219  14.395
58560SOL    HW277520   6.927  13.258  14.398
58561SOL     OW77521   6.398  10.064   0.155
58561SOL    HW177522   6.323  10.017   0.118
58561SOL    HW277523   6.474  10.017   0.121
58562SOL     OW77524   5.629  12.633  10.750
58562SOL    HW177525   5.640  12.588  10.833
58562SOL    HW277526   5.653  12.568  10.684
58563SOL     OW77527   3.713   4.667   6.939
58563SOL    HW177528   3.751   4.581   6.958
58563SOL    HW277529   3.658   4.686   7.016
58564SOL     OW77530  12.314  11.847  12.257
58564SOL    HW177531  12.391  11.801  12.223
58564SOL    HW277532  12.256  11.777  12.288
58565SOL     OW77533   2.324   9.396   3.566
58565SOL    HW177534   2.394   9.331   3.568
58565SOL    HW277535   2.297   9.399   3.475
58566SOL     OW77536   0.670   5.247   7.788
58566SOL    HW177537   0.733   5.304   7.745
58566SOL    HW277538   0.601   5.305   7.818
58567SOL     OW77539  12.237   3.395  10.334
58567SOL    HW177540  12.203   3.333  10.270
58567SOL    HW277541  12.181   3.472  10.326
58568SOL     OW77542   7.411  11.499  10.984
58568SOL    HW177543   7.437  11.411  11.012
58568SOL    HW277544   7.339  11.484  10.922
58569SOL     OW77545   4.722   0.600  13.642
58569SOL    HW177546   4.703   0.573  13.552
58569SOL    HW277547   4.638   0.594  13.687
58570SOL     OW77548   1.429  12.822  12.866
58570SOL    HW177549   1.395  12.828  12.955
58570SOL    HW277550   1.351  12.819  12.810
58571SOL     OW77551   3.173   3.902  12.492
58571SOL    HW177552   3.097   3.902  12.551
58571SOL    HW277553   3.172   3.815  12.452
58572SOL     OW77554  11.783   6.362   1.463
58572SOL    HW177555  11.748   6.450   1.452
58572SOL    HW277556  11.850   6.371   1.531
58573SOL     OW77557  14.773  11.909   1.640
58573SOL    HW177558  14.702  11.847   1.619
58573SOL    HW277559  14.848  11.876   1.591
58574SOL     OW77560  13.672   1.815   6.000
58574SOL    HW177561  13.733   1.766   5.945
58574SOL    HW277562  13.587   1.802   5.958
58575SOL     OW77563   7.895   4.657   2.939
58575SOL    HW177564   7.980   4.700   2.948
58575SOL    HW277565   7.833   4.727   2.919
58576SOL     OW77566   4.447   6.141   4.873
58576SOL    HW177567   4.438   6.213   4.935
58576SOL    HW277568   4.423   6.063   4.923
58577SOL     OW77569  11.056   8.367  10.942
58577SOL    HW177570  10.986   8.342  10.881
58577SOL    HW277571  11.137   8.345  10.895
58578SOL     OW77572  13.456   6.252   6.499
58578SOL    HW177573  13.364   6.275   6.490
58578SOL    HW277574  13.472   6.256   6.593
58579SOL     OW77575  13.938   7.977  12.024
58579SOL    HW177576  13.915   7.957  11.933
58579SOL    HW277577  13.996   7.906  12.051
58580SOL     OW77578  11.635  11.803   0.488
58580SOL    HW177579  11.597  11.878   0.533
58580SOL    HW277580  11.674  11.750   0.557
58581SOL     OW77581   8.197  14.433   7.416
58581SOL    HW177582   8.176  14.346   7.382
58581SOL    HW277583   8.239  14.417   7.501
58582SOL     OW77584   5.924   4.462   4.252
58582SOL    HW177585   5.877   4.520   4.312
58582SOL    HW277586   5.996   4.428   4.304
58583SOL     OW77587   6.596   9.354  10.820
58583SOL    HW177588   6.509   9.343  10.782
58583SOL    HW277589   6.595   9.299  10.899
58584SOL     OW77590   7.524   6.905   6.558
58584SOL    HW177591   7.519   6.818   6.599
58584SOL    HW277592   7.590   6.951   6.610
58585SOL     OW77593   3.876   8.144  12.205
58585SOL    HW177594   3.823   8.073  12.168
58585SOL    HW277595   3.821   8.222  12.197
58586SOL     OW77596   6.040   4.947   2.875
58586SOL    HW177597   5.991   4.975   2.952
58586SOL    HW277598   6.006   5.003   2.804
58587SOL     OW77599   3.695   3.016   3.532
58587SOL    HW177600   3.654   3.090   3.575
58587SOL    HW277601   3.654   2.939   3.571
58588SOL     OW77602  11.468  14.205   7.080
58588SOL    HW177603  11.520  14.283   7.095
58588SOL    HW277604  11.378  14.237   7.073
58589SOL     OW77605  11.912   8.050   2.090
58589SOL    HW177606  11.891   8.141   2.068
58589SOL    HW277607  11.946   8.054   2.180
58590SOL     OW77608  13.872  11.081  12.200
58590SOL    HW177609  13.957  11.076  12.156
58590SOL    HW277610  13.808  11.078  12.129
58591SOL     OW77611  10.509   8.528   4.366
58591SOL    HW177612  10.440   8.566   4.311
58591SOL    HW277613  10.528   8.597   4.431
58592SOL     OW77614   7.745   8.996   1.569
58592SOL    HW177615   7.739   9.010   1.475
58592SOL    HW277616   7.703   9.074   1.607
58593SOL     OW77617   6.415   7.961   9.640
58593SOL    HW177618   6.370   7.893   9.690
58593SOL    HW277619   6.477   7.998   9.702
58594SOL     OW77620   1.480   0.597   8.224
58594SOL    HW177621   1.571   0.576   8.244
58594SOL    HW277622   1.435   0.512   8.226
58595SOL     OW77623   0.164   7.848   9.332
58595SOL    HW177624   0.145   7.772   9.387
58595SOL    HW277625   0.156   7.923   9.391
58596SOL     OW77626  14.657   7.603  13.070
58596SOL    HW177627  14.655   7.508  13.084
58596SOL    HW277628  14.721   7.615  12.999
58597SOL     OW77629  11.049   7.236   9.640
58597SOL    HW177630  11.065   7.142   9.640
58597SOL    HW277631  10.959   7.245   9.609
58598SOL     OW77632   4.245   5.115   8.459
58598SOL    HW177633   4.161   5.143   8.424
58598SOL    HW277634   4.309   5.167   8.411
58599SOL     OW77635  13.005  11.820   1.254
58599SOL    HW177636  12.987  11.772   1.173
58599SOL    HW277637  13.001  11.753   1.323
58600SOL     OW77638  14.623   1.103   8.293
58600SOL    HW177639  14.660   1.033   8.346
58600SOL    HW277640  14.581   1.058   8.219
58601SOL     OW77641   6.767   9.707  13.943
58601SOL    HW177642   6.808   9.676  14.024
58601SOL    HW277643   6.714   9.633  13.913
58602SOL     OW77644   7.007   3.986  12.524
58602SOL    HW177645   7.010   4.080  12.509
58602SOL    HW277646   7.087   3.952  12.482
58603SOL     OW77647   0.041   7.265   8.219
58603SOL    HW177648   0.070   7.294   8.305
58603SOL    HW277649  14.824   7.296   8.212
58604SOL     OW77650   2.552   0.214  10.339
58604SOL    HW177651   2.624   0.245  10.283
58604SOL    HW277652   2.481   0.275  10.321
58605SOL     OW77653   3.315   0.767   6.013
58605SOL    HW177654   3.399   0.809   6.034
58605SOL    HW277655   3.306   0.779   5.918
58606SOL     OW77656   8.031   4.249  11.420
58606SOL    HW177657   7.985   4.307  11.480
58606SOL    HW277658   7.961   4.195  11.382
58607SOL     OW77659  10.096  14.170   7.670
58607SOL    HW177660  10.172  14.112   7.673
58607SOL    HW277661  10.027  14.123   7.717
58608SOL     OW77662   6.073   5.093   6.640
58608SOL    HW177663   6.122   5.136   6.711
58608SOL    HW277664   5.981   5.111   6.659
58609SOL     OW77665   5.544   7.090   4.770
58609SOL    HW177666   5.461   7.112   4.811
58609SOL    HW277667   5.611   7.127   4.828
58610SOL     OW77668   6.052  14.459   3.646
58610SOL    HW177669   6.065  14.553   3.655
58610SOL    HW277670   6.009  14.433   3.727
58611SOL     OW77671   6.118   5.477   4.577
58611SOL    HW177672   6.025   5.455   4.579
58611SOL    HW277673   6.135   5.499   4.486
58612SOL     OW77674   9.442   4.598  14.606
58612SOL    HW177675   9.502   4.642  14.666
58612SOL    HW277676   9.467   4.629  14.519
58613SOL     OW77677  10.451   5.663   8.730
58613SOL    HW177678  10.504   5.741   8.715
58613SOL    HW277679  10.485   5.626   8.812
58614SOL     OW77680   4.929  13.894  13.911
58614SOL    HW177681   4.969  13.812  13.885
58614SOL    HW277682   4.991  13.961  13.883
58615SOL     OW77683  14.036   5.852   8.792
58615SOL    HW177684  14.039   5.942   8.761
58615SOL    HW277685  14.127   5.824   8.796
58616SOL     OW77686   4.691   2.774  12.832
58616SOL    HW177687   4.652   2.837  12.771
58616SOL    HW277688   4.706   2.696  12.780
58617SOL     OW77689   3.681   4.069   7.032
58617SOL    HW177690   3.677   4.133   6.961
58617SOL    HW277691   3.636   4.111   7.105
58618SOL     OW77692   1.814  11.342  11.364
58618SOL    HW177693   1.831  11.253  11.332
58618SOL    HW277694   1.867  11.398  11.308
58619SOL     OW77695   5.943  11.715   0.482
58619SOL    HW177696   5.931  11.660   0.560
58619SOL    HW277697   5.889  11.673   0.415
58620SOL     OW77698   4.323  12.869  14.571
58620SOL    HW177699   4.277  12.895  14.651
58620SOL    HW277700   4.409  12.911  14.578
58621SOL     OW77701   3.029   1.721   7.185
58621SOL    HW177702   2.998   1.805   7.151
58621SOL    HW277703   2.989   1.714   7.272
58622SOL     OW77704   1.233   1.342   6.980
58622SOL    HW177705   1.198   1.261   7.017
58622SOL    HW277706   1.323   1.320   6.954
58623SOL     OW77707  10.363   9.914   9.289
58623SOL    HW177708  10.277   9.899   9.329
58623SOL    HW277709  10.364   9.856   9.212
58624SOL     OW77710   3.340   6.948   1.998
58624SOL    HW177711   3.313   6.927   1.908
58624SOL    HW277712   3.428   6.912   2.006
58625SOL     OW77713   1.501  12.339  13.763
58625SOL    HW177714   1.572  12.280  13.790
58625SOL    HW277715   1.467  12.375  13.845
58626SOL     OW77716   9.499  12.212   2.484
58626SOL    HW177717   9.503  12.118   2.466
58626SOL    HW277718   9.570  12.228   2.546
58627SOL     OW77719   3.982   5.349   2.973
58627SOL    HW177720   4.007   5.299   2.896
58627SOL    HW277721   3.965   5.283   3.040
58628SOL     OW77722  10.208   7.766  14.615
58628SOL    HW177723  10.204   7.861  14.626
58628SOL    HW277724  10.118   7.740  14.599
58629SOL     OW77725   7.018   0.982  11.025
58629SOL    HW177726   7.106   0.945  11.033
58629SOL    HW277727   7.025   1.045  10.953
58630SOL     OW77728   0.623   0.561   9.572
58630SOL    HW177729   0.632   0.617   9.495
58630SOL    HW277730   0.554   0.603   9.624
58631SOL     OW77731   3.132  12.831  12.177
58631SOL    HW177732   3.204  12.769  12.190
58631SOL    HW277733   3.133  12.886  12.255
58632SOL     OW77734   1.341  10.967   9.570
58632SOL    HW177735   1.276  10.921   9.518
58632SOL    HW277736   1.409  10.991   9.508
58633SOL     OW77737   2.423  10.227   0.109
58633SOL    HW177738   2.472  10.232   0.191
58633SOL    HW277739   2.438  10.311   0.067
58634SOL     OW77740   7.927   3.124  10.788
58634SOL    HW177741   7.974   3.040  10.785
58634SOL    HW277742   7.964   3.169  10.864
58635SOL     OW77743   0.465   4.998   0.547
58635SOL    HW177744   0.377   5.019   0.518
58635SOL    HW277745   0.495   5.077   0.592
58636SOL     OW77746   0.131  13.698  13.954
58636SOL    HW177747   0.180  13.710  14.035
58636SOL    HW277748   0.198  13.681  13.888
58637SOL     OW77749   4.056  12.985  10.133
58637SOL    HW177750   4.084  12.896  10.112
58637SOL    HW277751   4.103  13.007  10.213
58638SOL     OW77752   0.117  11.328   1.555
58638SOL    HW177753   0.051  11.292   1.495
58638SOL    HW277754   0.066  11.370   1.624
58639SOL     OW77755  11.857   4.053   1.167
58639SOL    HW177756  11.833   4.052   1.075
58639SOL    HW277757  11.944   4.093   1.169
58640SOL     OW77758   0.342   1.061   0.934
58640SOL    HW177759   0.384   1.008   0.866
58640SOL    HW277760   0.303   0.996   0.993
58641SOL     OW77761  14.171  14.290  11.192
58641SOL    HW177762  14.224  14.346  11.136
58641SOL    HW277763  14.189  14.319  11.281
58642SOL     OW77764   5.520   0.347  13.101
58642SOL    HW177765   5.520   0.334  13.006
58642SOL    HW277766   5.427   0.357  13.123
58643SOL     OW77767   8.971  13.428   4.673
58643SOL    HW177768   9.036  13.489   4.638
58643SOL    HW277769   8.891  13.480   4.680
58644SOL     OW77770   0.286  10.368   0.524
58644SOL    HW177771   0.351  10.427   0.485
58644SOL    HW277772   0.229  10.427   0.575
58645SOL     OW77773  10.675   7.061  11.823
58645SOL    HW177774  10.703   7.149  11.848
58645SOL    HW277775  10.699   7.007  11.898
58646SOL     OW77776   1.341   3.868   4.547
58646SOL    HW177777   1.294   3.791   4.515
58646SOL    HW277778   1.309   3.881   4.636
58647SOL     OW77779   0.871  12.195  11.759
58647SOL    HW177780   0.823  12.239  11.829
58647SOL    HW277781   0.919  12.125  11.803
58648SOL     OW77782  10.448  12.134  13.151
58648SOL    HW177783  10.511  12.069  13.121
58648SOL    HW277784  10.470  12.150  13.242
58649SOL     OW77785   4.821   7.669  14.630
58649SOL    HW177786   4.728   7.689  14.625
58649SOL    HW277787   4.865   7.753  14.621
58650SOL     OW77788   3.969   1.763   8.190
58650SOL    HW177789   3.910   1.837   8.177
58650SOL    HW277790   4.040   1.798   8.244
58651SOL     OW77791  13.091  12.954   6.882
58651SOL    HW177792  13.161  12.997   6.833
58651SOL    HW277793  13.075  13.013   6.956
58652SOL     OW77794   0.680   1.840   1.928
58652SOL    HW177795   0.770   1.809   1.925
58652SOL    HW277796   0.663   1.874   1.840
58653SOL     OW77797  12.130   2.935   5.731
58653SOL    HW177798  12.214   2.905   5.696
58653SOL    HW277799  12.154   2.997   5.799
58654SOL     OW77800  12.624   5.131   4.561
58654SOL    HW177801  12.710   5.108   4.598
58654SOL    HW277802  12.641   5.208   4.507
58655SOL     OW77803   5.682   4.906   9.814
58655SOL    HW177804   5.633   4.953   9.746
58655SOL    HW277805   5.707   4.974   9.877
58656SOL     OW77806   3.179  13.843   9.556
58656SOL    HW177807   3.260  13.796   9.575
58656SOL    HW277808   3.205  13.914   9.498
58657SOL     OW77809   9.985  13.209  10.124
58657SOL    HW177810  10.010  13.286  10.176
58657SOL    HW277811   9.909  13.173  10.170
58658SOL     OW77812   0.530  13.584   4.496
58658SOL    HW177813   0.455  13.623   4.540
58658SOL    HW277814   0.539  13.498   4.536
58659SOL     OW77815  14.817   3.936  13.345
58659SOL    HW177816  14.780   4.019  13.373
58659SOL    HW277817  14.805   3.935  13.250
58660SOL     OW77818   6.760   8.902   7.386
58660SOL    HW177819   6.839   8.891   7.333
58660SOL    HW277820   6.788   8.886   7.476
58661SOL     OW77821   9.666   2.338   8.663
58661SOL    HW177822   9.693   2.246   8.664
58661SOL    HW277823   9.609   2.345   8.586
58662SOL     OW77824   0.958   8.264  14.688
58662SOL    HW177825   1.031   8.267  14.750
58662SOL    HW277826   0.998   8.278  14.603
58663SOL     OW77827   2.283  12.051  11.194
58663SOL    HW177828   2.303  12.142  11.173
58663SOL    HW277829   2.303  12.043  11.288
58664SOL     OW77830   3.800  13.596  11.659
58664SOL    HW177831   3.833  13.654  11.728
58664SOL    HW277832   3.725  13.643  11.623
58665SOL     OW77833  13.117  11.903   0.312
58665SOL    HW177834  13.141  11.943   0.229
58665SOL    HW277835  13.036  11.856   0.295
58666SOL     OW77836   6.204   9.685  13.229
58666SOL    HW177837   6.201   9.631  13.150
58666SOL    HW277838   6.163   9.631  13.297
58667SOL     OW77839  12.541   6.604  12.115
58667SOL    HW177840  12.603   6.531  12.113
58667SOL    HW277841  12.595   6.681  12.131
58668SOL     OW77842   3.383  10.869   2.367
58668SOL    HW177843   3.408  10.777   2.378
58668SOL    HW277844   3.291  10.867   2.344
58669SOL     OW77845   9.546  14.437  11.781
58669SOL    HW177846   9.512  14.517  11.741
58669SOL    HW277847   9.574  14.465  11.868
58670SOL     OW77848   1.548   5.356   0.156
58670SOL    HW177849   1.454   5.352   0.140
58670SOL    HW277850   1.578   5.432   0.105
58671SOL     OW77851   6.063   7.000   3.836
58671SOL    HW177852   6.055   6.910   3.806
58671SOL    HW277853   6.004   7.006   3.911
58672SOL     OW77854  12.458  13.391  14.311
58672SOL    HW177855  12.372  13.371  14.347
58672SOL    HW277856  12.442  13.464  14.251
58673SOL     OW77857  11.317   6.565   1.177
58673SOL    HW177858  11.321   6.587   1.270
58673SOL    HW277859  11.335   6.472   1.173
58674SOL     OW77860   8.068   5.641   5.576
58674SOL    HW177861   8.073   5.591   5.657
58674SOL    HW277862   8.005   5.711   5.594
58675SOL     OW77863   8.818   0.202  12.562
58675SOL    HW177864   8.845   0.255  12.638
58675SOL    HW277865   8.863   0.119  12.574
58676SOL     OW77866  10.406   2.903   9.786
58676SOL    HW177867  10.490   2.947   9.771
58676SOL    HW277868  10.379   2.875   9.698
58677SOL     OW77869   3.896  12.707   4.338
58677SOL    HW177870   3.877  12.788   4.291
58677SOL    HW277871   3.830  12.645   4.308
58678SOL     OW77872  11.677   1.939   7.859
58678SOL    HW177873  11.689   1.982   7.944
58678SOL    HW277874  11.637   2.006   7.804
58679SOL     OW77875   2.781   4.644   9.583
58679SOL    HW177876   2.728   4.688   9.516
58679SOL    HW277877   2.732   4.565   9.605
58680SOL     OW77878  13.017   2.451  13.709
58680SOL    HW177879  13.072   2.522  13.676
58680SOL    HW277880  13.080   2.385  13.740
58681SOL     OW77881  10.730   2.045   6.356
58681SOL    HW177882  10.636   2.032   6.345
58681SOL    HW277883  10.752   2.114   6.293
58682SOL     OW77884   2.643  10.093   9.126
58682SOL    HW177885   2.689  10.013   9.104
58682SOL    HW277886   2.707  10.146   9.174
58683SOL     OW77887  12.037   8.482   7.520
58683SOL    HW177888  11.977   8.501   7.593
58683SOL    HW277889  12.016   8.392   7.495
58684SOL     OW77890   8.681  13.590  11.801
58684SOL    HW177891   8.746  13.637  11.749
58684SOL    HW277892   8.728  13.564  11.880
58685SOL     OW77893   1.895   2.224  13.698
58685SOL    HW177894   1.865   2.216  13.788
58685SOL    HW277895   1.820   2.197  13.645
58686SOL     OW77896   1.527  10.543  13.487
58686SOL    HW177897   1.448  10.589  13.459
58686SOL    HW277898   1.571  10.519  13.405
58687SOL     OW77899   0.048   7.246   7.058
58687SOL    HW177900  14.827   7.261   7.051
58687SOL    HW277901   0.076   7.222   6.969
58688SOL     OW77902   1.294   5.635   3.359
58688SOL    HW177903   1.258   5.700   3.300
58688SOL    HW277904   1.333   5.569   3.301
58689SOL     OW77905   1.130   3.625  14.694
58689SOL    HW177906   1.203   3.593  14.642
58689SOL    HW277907   1.053   3.611  14.638
58690SOL     OW77908  12.790   5.408   6.688
58690SOL    HW177909  12.744   5.355   6.623
58690SOL    HW277910  12.845   5.467   6.637
58691SOL     OW77911   1.988   5.024   5.300
58691SOL    HW177912   1.965   4.942   5.343
58691SOL    HW277913   1.942   5.091   5.349
58692SOL     OW77914   0.348   1.917   3.500
58692SOL    HW177915   0.366   1.826   3.476
58692SOL    HW277916   0.435   1.957   3.508
58693SOL     OW77917  14.747   3.194  13.458
58693SOL    HW177918  14.708   3.134  13.522
58693SOL    HW277919  14.685   3.197  13.386
58694SOL     OW77920   5.862   9.219   2.388
58694SOL    HW177921   5.914   9.199   2.311
58694SOL    HW277922   5.841   9.134   2.427
58695SOL     OW77923   1.321   2.600  10.619
58695SOL    HW177924   1.311   2.507  10.603
58695SOL    HW277925   1.398   2.607  10.675
58696SOL     OW77926   2.430   0.732  12.562
58696SOL    HW177927   2.480   0.782  12.627
58696SOL    HW277928   2.494   0.670  12.526
58697SOL     OW77929   7.805  12.741   7.175
58697SOL    HW177930   7.749  12.734   7.097
58697SOL    HW277931   7.894  12.742   7.140
58698SOL     OW77932   6.770  12.928   4.515
58698SOL    HW177933   6.721  12.953   4.437
58698SOL    HW277934   6.862  12.931   4.488
58699SOL     OW77935   6.498   0.323   8.435
58699SOL    HW177936   6.416   0.329   8.387
58699SOL    HW277937   6.476   0.349   8.524
58700SOL     OW77938   7.431   2.977   2.106
58700SOL    HW177939   7.394   2.997   2.020
58700SOL    HW277940   7.520   3.012   2.102
58701SOL     OW77941  13.392   6.594   0.767
58701SOL    HW177942  13.349   6.649   0.833
58701SOL    HW277943  13.323   6.537   0.735
58702SOL     OW77944   0.828   0.753   1.359
58702SOL    HW177945   0.832   0.744   1.264
58702SOL    HW277946   0.760   0.691   1.386
58703SOL     OW77947   0.051   3.813   5.830
58703SOL    HW177948  14.863   3.786   5.898
58703SOL    HW277949   0.119   3.745   5.831
58704SOL     OW77950   4.360   5.260   9.277
58704SOL    HW177951   4.326   5.330   9.221
58704SOL    HW277952   4.431   5.301   9.326
58705SOL     OW77953  12.083   2.445   2.823
58705SOL    HW177954  12.044   2.419   2.740
58705SOL    HW277955  12.172   2.472   2.800
58706SOL     OW77956   5.895   0.571  14.066
58706SOL    HW177957   5.923   0.493  14.114
58706SOL    HW277958   5.956   0.639  14.093
58707SOL     OW77959  12.215   6.840   5.979
58707SOL    HW177960  12.248   6.902   5.913
58707SOL    HW277961  12.211   6.756   5.933
58708SOL     OW77962   6.080  10.820   4.645
58708SOL    HW177963   6.018  10.890   4.629
58708SOL    HW277964   6.077  10.805   4.739
58709SOL     OW77965   2.804   8.505   1.436
58709SOL    HW177966   2.806   8.459   1.520
58709SOL    HW277967   2.711   8.523   1.421
58710SOL     OW77968   8.019  11.709  12.137
58710SOL    HW177969   7.942  11.667  12.099
58710SOL    HW277970   7.990  11.799  12.156
58711SOL     OW77971   8.369   2.750  13.172
58711SOL    HW177972   8.422   2.804  13.114
58711SOL    HW277973   8.287   2.736  13.124
58712SOL     OW77974   4.753  12.070  12.376
58712SOL    HW177975   4.821  12.059  12.310
58712SOL    HW277976   4.798  12.110  12.451
58713SOL     OW77977   2.299   1.105   9.052
58713SOL    HW177978   2.279   1.062   8.968
58713SOL    HW277979   2.216   1.105   9.099
58714SOL     OW77980   1.782  13.255   6.970
58714SOL    HW177981   1.726  13.330   6.949
58714SOL    HW277982   1.825  13.232   6.888
58715SOL     OW77983   1.278   7.249   0.937
58715SOL    HW177984   1.205   7.283   0.886
58715SOL    HW277985   1.356   7.280   0.892
58716SOL     OW77986   1.831  10.999   2.936
58716SOL    HW177987   1.824  11.079   2.989
58716SOL    HW277988   1.790  11.021   2.853
58717SOL     OW77989   0.806  10.699  10.737
58717SOL    HW177990   0.724  10.689  10.785
58717SOL    HW277991   0.841  10.784  10.766
58718SOL     OW77992   4.173  14.246  10.820
58718SOL    HW177993   4.228  14.276  10.748
58718SOL    HW277994   4.100  14.309  10.823
58719SOL     OW77995  10.962   1.223   5.834
58719SOL    HW177996  10.931   1.153   5.776
58719SOL    HW277997  10.888   1.284   5.839
58720SOL     OW77998  10.947   1.735   0.083
58720SOL    HW177999  11.025   1.786   0.103
58720SOL    HW278000  10.945   1.731  14.861
58721SOL     OW78001   2.850  10.424   6.998
58721SOL    HW178002   2.884  10.337   6.974
58721SOL    HW278003   2.846  10.422   7.094
58722SOL     OW78004  12.205   5.643   6.242
58722SOL    HW178005  12.137   5.661   6.306
58722SOL    HW278006  12.170   5.572   6.189
58723SOL     OW78007  10.615   6.090   9.754
58723SOL    HW178008  10.636   5.997   9.753
58723SOL    HW278009  10.699   6.134   9.757
58724SOL     OW78010  14.284   1.617   7.507
58724SOL    HW178011  14.209   1.669   7.536
58724SOL    HW278012  14.314   1.573   7.587
58725SOL     OW78013   9.125  13.900   2.195
58725SOL    HW178014   9.098  13.957   2.123
58725SOL    HW278015   9.071  13.929   2.269
58726SOL     OW78016   5.107   7.353   0.006
58726SOL    HW178017   5.138   7.442  14.864
58726SOL    HW278018   5.031   7.344  14.821
58727SOL     OW78019   8.907   3.657   7.085
58727SOL    HW178020   8.923   3.563   7.098
58727SOL    HW278021   8.816   3.669   7.111
58728SOL     OW78022   9.665  11.041  11.806
58728SOL    HW178023   9.572  11.057  11.793
58728SOL    HW278024   9.684  11.079  11.892
58729SOL     OW78025   4.721   0.335  12.098
58729SOL    HW178026   4.672   0.292  12.028
58729SOL    HW278027   4.722   0.428  12.073
58730SOL     OW78028   4.100   7.857   1.327
58730SOL    HW178029   4.012   7.833   1.300
58730SOL    HW278030   4.093   7.871   1.421
58731SOL     OW78031   1.204   9.094  11.725
58731SOL    HW178032   1.179   9.109  11.633
58731SOL    HW278033   1.121   9.074  11.769
58732SOL     OW78034   3.504   1.875   4.585
58732SOL    HW178035   3.589   1.859   4.545
58732SOL    HW278036   3.485   1.797   4.636
58733SOL     OW78037   4.860  11.924   7.757
58733SOL    HW178038   4.846  11.922   7.663
58733SOL    HW278039   4.948  11.889   7.769
58734SOL     OW78040   7.645   6.566   5.060
58734SOL    HW178041   7.716   6.512   5.025
58734SOL    HW278042   7.584   6.503   5.099
58735SOL     OW78043   1.109   8.919  13.511
58735SOL    HW178044   1.024   8.939  13.473
58735SOL    HW278045   1.090   8.891  13.600
58736SOL     OW78046  10.307   0.701   5.414
58736SOL    HW178047  10.251   0.651   5.355
58736SOL    HW278048  10.396   0.682   5.384
58737SOL     OW78049   0.863  10.217  11.453
58737SOL    HW178050   0.950  10.207  11.414
58737SOL    HW278051   0.802  10.213  11.379
58738SOL     OW78052   0.707  10.234  11.676
58738SOL    HW178053   0.738  10.165  11.734
58738SOL    HW278054   0.776  10.245  11.611
58739SOL     OW78055   0.701   7.050   4.121
58739SOL    HW178056   0.679   7.018   4.209
58739SOL    HW278057   0.660   7.136   4.117
58740SOL     OW78058   7.944  13.532   7.792
58740SOL    HW178059   7.962  13.524   7.698
58740SOL    HW278060   7.913  13.622   7.803
58741SOL     OW78061  12.136  11.700   5.133
58741SOL    HW178062  12.217  11.650   5.138
58741SOL    HW278063  12.106  11.688   5.043
58742SOL     OW78064   0.247  11.549  10.388
58742SOL    HW178065   0.264  11.495  10.465
58742SOL    HW278066   0.269  11.638  10.415
58743SOL     OW78067   5.333   1.355   6.805
58743SOL    HW178068   5.381   1.317   6.732
58743SOL    HW278069   5.241   1.353   6.778
58744SOL     OW78070  13.287  13.704   7.567
58744SOL    HW178071  13.211  13.701   7.509
58744SOL    HW278072  13.320  13.794   7.559
58745SOL     OW78073   7.331   7.147   3.406
58745SOL    HW178074   7.385   7.080   3.363
58745SOL    HW278075   7.369   7.156   3.493
58746SOL     OW78076   0.124  13.627   7.823
58746SOL    HW178077   0.037  13.621   7.861
58746SOL    HW278078   0.155  13.536   7.820
58747SOL     OW78079   3.881  12.699   2.973
58747SOL    HW178080   3.822  12.775   2.968
58747SOL    HW278081   3.943  12.721   3.042
58748SOL     OW78082  10.688   0.014   3.281
58748SOL    HW178083  10.666   0.094   3.232
58748SOL    HW278084  10.618   0.006   3.346
58749SOL     OW78085  13.127   9.268   7.184
58749SOL    HW178086  13.139   9.363   7.190
58749SOL    HW278087  13.096   9.254   7.094
58750SOL     OW78088   0.112   4.681   8.165
58750SOL    HW178089   0.097   4.645   8.077
58750SOL    HW278090   0.152   4.766   8.149
58751SOL     OW78091   1.815   9.741   8.888
58751SOL    HW178092   1.733   9.698   8.910
58751SOL    HW278093   1.883   9.686   8.927
58752SOL     OW78094   7.774   6.010   1.454
58752SOL    HW178095   7.790   6.053   1.538
58752SOL    HW278096   7.826   5.929   1.458
58753SOL     OW78097   4.154   9.235   1.117
58753SOL    HW178098   4.185   9.217   1.028
58753SOL    HW278099   4.228   9.212   1.173
58754SOL     OW78100   0.922   7.743   8.275
58754SOL    HW178101   0.989   7.762   8.210
58754SOL    HW278102   0.969   7.701   8.347
58755SOL     OW78103  10.622   4.706  14.306
58755SOL    HW178104  10.672   4.781  14.337
58755SOL    HW278105  10.602   4.727  14.215
58756SOL     OW78106   8.289   9.941   6.491
58756SOL    HW178107   8.243  10.022   6.515
58756SOL    HW278108   8.366   9.971   6.443
58757SOL     OW78109  13.617   5.521   8.881
58757SOL    HW178110  13.537   5.478   8.912
58757SOL    HW278111  13.675   5.448   8.857
58758SOL     OW78112   5.276   6.510  10.643
58758SOL    HW178113   5.338   6.446  10.605
58758SOL    HW278114   5.322   6.546  10.718
58759SOL     OW78115  12.962   6.518   8.134
58759SOL    HW178116  13.008   6.436   8.152
58759SOL    HW278117  13.032   6.582   8.119
58760SOL     OW78118   3.736  14.342  12.092
58760SOL    HW178119   3.805  14.405  12.069
58760SOL    HW278120   3.701  14.374  12.175
58761SOL     OW78121   9.014  12.077   6.060
58761SOL    HW178122   9.068  12.067   6.138
58761SOL    HW278123   9.031  11.998   6.009
58762SOL     OW78124   3.915   6.113  14.296
58762SOL    HW178125   4.002   6.151  14.280
58762SOL    HW278126   3.933   6.032  14.343
58763SOL     OW78127   9.270   4.757  10.888
58763SOL    HW178128   9.178   4.782  10.902
58763SOL    HW278129   9.292   4.795  10.803
58764SOL     OW78130   3.340   1.669   8.031
58764SOL    HW178131   3.298   1.691   8.114
58764SOL    HW278132   3.355   1.754   7.988
58765SOL     OW78133   8.167   6.846  14.433
58765SOL    HW178134   8.235   6.841  14.500
58765SOL    HW278135   8.139   6.937  14.434
58766SOL     OW78136   4.599   4.772   8.646
58766SOL    HW178137   4.689   4.804   8.658
58766SOL    HW278138   4.584   4.777   8.552
58767SOL     OW78139  10.393   0.699   2.612
58767SOL    HW178140  10.412   0.654   2.529
58767SOL    HW278141  10.334   0.639   2.658
58768SOL     OW78142   6.745  13.414  10.908
58768SOL    HW178143   6.751  13.428  11.003
58768SOL    HW278144   6.677  13.348  10.898
58769SOL     OW78145   5.153   5.444   9.826
58769SOL    HW178146   5.140   5.513   9.762
58769SOL    HW278147   5.097   5.373   9.796
58770SOL     OW78148   7.992   3.557   1.068
58770SOL    HW178149   7.951   3.596   0.991
58770SOL    HW278150   8.010   3.466   1.042
58771SOL     OW78151   1.570   3.973   6.900
58771SOL    HW178152   1.648   3.952   6.951
58771SOL    HW278153   1.568   3.908   6.830
58772SOL     OW78154   0.476   6.608   0.071
58772SOL    HW178155   0.397   6.652   0.037
58772SOL    HW278156   0.465   6.610   0.166
58773SOL     OW78157  13.508  11.006   2.914
58773SOL    HW178158  13.590  11.046   2.943
58773SOL    HW278159  13.463  11.076   2.866
58774SOL     OW78160   9.136   9.892   1.794
58774SOL    HW178161   9.093   9.877   1.710
58774SOL    HW278162   9.229   9.893   1.773
58775SOL     OW78163   2.938   6.896  11.538
58775SOL    HW178164   2.979   6.893  11.452
58775SOL    HW278165   3.011   6.907  11.599
58776SOL     OW78166   2.252   4.588   7.200
58776SOL    HW178167   2.242   4.497   7.229
58776SOL    HW278168   2.188   4.598   7.130
58777SOL     OW78169   2.932   7.779  14.677
58777SOL    HW178170   2.906   7.871  14.675
58777SOL    HW278171   2.953   7.757  14.586
58778SOL     OW78172   2.078   8.546   7.957
58778SOL    HW178173   2.135   8.563   8.031
58778SOL    HW278174   2.130   8.569   7.880
58779SOL     OW78175   2.426   0.099  11.610
58779SOL    HW178176   2.507   0.149  11.621
58779SOL    HW278177   2.454   0.018  11.567
58780SOL     OW78178   8.873  14.070   3.643
58780SOL    HW178179   8.941  14.003   3.647
58780SOL    HW278180   8.862  14.089   3.549
58781SOL     OW78181  11.662  10.619   7.952
58781SOL    HW178182  11.681  10.539   8.001
58781SOL    HW278183  11.567  10.629   7.958
58782SOL     OW78184  11.721   6.619  12.900
58782SOL    HW178185  11.814   6.596  12.896
58782SOL    HW278186  11.712   6.668  12.982
58783SOL     OW78187   5.361  10.532  12.786
58783SOL    HW178188   5.404  10.615  12.768
58783SOL    HW278189   5.368  10.483  12.704
58784SOL     OW78190   7.691   6.015   8.581
58784SOL    HW178191   7.722   6.069   8.653
58784SOL    HW278192   7.626   6.069   8.536
58785SOL     OW78193  13.391  13.502   6.570
58785SOL    HW178194  13.398  13.409   6.549
58785SOL    HW278195  13.469  13.521   6.622
58786SOL     OW78196  13.124  10.213   7.206
58786SOL    HW178197  13.198  10.154   7.220
58786SOL    HW278198  13.050  10.156   7.188
58787SOL     OW78199   1.659   0.658  12.609
58787SOL    HW178200   1.725   0.687  12.671
58787SOL    HW278201   1.699   0.673  12.523
58788SOL     OW78202   1.313  12.943   6.284
58788SOL    HW178203   1.359  12.935   6.368
58788SOL    HW278204   1.255  12.867   6.281
58789SOL     OW78205   0.077  11.353  14.083
58789SOL    HW178206   0.116  11.296  14.016
58789SOL    HW278207   0.142  11.354  14.154
58790SOL     OW78208  10.090   7.007   4.437
58790SOL    HW178209  10.041   6.954   4.500
58790SOL    HW278210  10.060   6.975   4.352
58791SOL     OW78211  12.066   0.434   7.441
58791SOL    HW178212  12.060   0.363   7.504
58791SOL    HW278213  12.148   0.417   7.394
58792SOL     OW78214  13.394   3.562   3.606
58792SOL    HW178215  13.314   3.519   3.576
58792SOL    HW278216  13.366   3.651   3.629
58793SOL     OW78217  14.209   4.626   1.442
58793SOL    HW178218  14.244   4.651   1.528
58793SOL    HW278219  14.209   4.708   1.392
58794SOL     OW78220  10.452   6.621   4.140
58794SOL    HW178221  10.479   6.653   4.227
58794SOL    HW278222  10.391   6.688   4.108
58795SOL     OW78223   1.802   0.988   7.277
58795SOL    HW178224   1.757   1.060   7.321
58795SOL    HW278225   1.737   0.955   7.214
58796SOL     OW78226   0.776  13.247   2.025
58796SOL    HW178227   0.745  13.211   2.108
58796SOL    HW278228   0.789  13.170   1.969
58797SOL     OW78229  12.491  10.175   2.719
58797SOL    HW178230  12.509  10.269   2.718
58797SOL    HW278231  12.478  10.153   2.811
58798SOL     OW78232   6.940   4.048   0.894
58798SOL    HW178233   6.995   4.124   0.880
58798SOL    HW278234   7.001   3.975   0.903
58799SOL     OW78235  13.417  13.115   1.845
58799SOL    HW178236  13.406  13.202   1.883
58799SOL    HW278237  13.391  13.055   1.915
58800SOL     OW78238   6.517   1.490   8.441
58800SOL    HW178239   6.599   1.456   8.476
58800SOL    HW278240   6.536   1.581   8.419
58801SOL     OW78241   7.158   9.012   6.057
58801SOL    HW178242   7.251   9.027   6.041
58801SOL    HW278243   7.125   8.973   5.976
58802SOL     OW78244   0.519   5.782   3.162
58802SOL    HW178245   0.455   5.711   3.152
58802SOL    HW278246   0.492   5.827   3.242
58803SOL     OW78247   7.533   6.612  11.612
58803SOL    HW178248   7.474   6.590  11.540
58803SOL    HW278249   7.616   6.573  11.587
58804SOL     OW78250  14.395  12.088   1.709
58804SOL    HW178251  14.465  12.089   1.644
58804SOL    HW278252  14.439  12.071   1.792
58805SOL     OW78253  11.463  12.444  14.328
58805SOL    HW178254  11.519  12.477  14.398
58805SOL    HW278255  11.507  12.470  14.248
58806SOL     OW78256   9.696   0.059  10.096
58806SOL    HW178257   9.724   0.048  10.005
58806SOL    HW278258   9.639   0.135  10.095
58807SOL     OW78259   7.510  10.372   5.458
58807SOL    HW178260   7.545  10.326   5.534
58807SOL    HW278261   7.566  10.449   5.448
58808SOL     OW78262  13.671  11.402   1.121
58808SOL    HW178263  13.697  11.489   1.153
58808SOL    HW278264  13.737  11.380   1.056
58809SOL     OW78265   4.772   5.878   2.983
58809SOL    HW178266   4.805   5.967   2.968
58809SOL    HW278267   4.838   5.837   3.040
58810SOL     OW78268   8.330   4.891   9.751
58810SOL    HW178269   8.402   4.926   9.803
58810SOL    HW278270   8.323   4.950   9.676
58811SOL     OW78271   4.992   3.162  12.162
58811SOL    HW178272   4.917   3.109  12.136
58811SOL    HW278273   5.032   3.113  12.233
58812SOL     OW78274  13.387   5.465   3.626
58812SOL    HW178275  13.316   5.439   3.568
58812SOL    HW278276  13.387   5.561   3.622
58813SOL     OW78277   7.959  11.225   0.841
58813SOL    HW178278   7.932  11.141   0.805
58813SOL    HW278279   8.040  11.206   0.888
58814SOL     OW78280  11.069  11.022   7.238
58814SOL    HW178281  10.987  11.047   7.195
58814SOL    HW278282  11.042  10.967   7.311
58815SOL     OW78283   0.281  13.941  12.556
58815SOL    HW178284   0.363  13.983  12.582
58815SOL    HW278285   0.261  13.978  12.470
58816SOL     OW78286  13.755  11.301  11.398
58816SOL    HW178287  13.773  11.379  11.451
58816SOL    HW278288  13.828  11.298  11.335
58817SOL     OW78289   1.215   4.237   9.149
58817SOL    HW178290   1.132   4.189   9.160
58817SOL    HW278291   1.189   4.328   9.140
58818SOL     OW78292   9.389   7.429   9.738
58818SOL    HW178293   9.404   7.468   9.824
58818SOL    HW278294   9.453   7.473   9.681
58819SOL     OW78295   6.835   3.767   8.772
58819SOL    HW178296   6.756   3.736   8.817
58819SOL    HW278297   6.837   3.861   8.789
58820SOL     OW78298   8.542   0.773  14.836
58820SOL    HW178299   8.460   0.757   0.009
58820SOL    HW278300   8.527   0.853  14.786
58821SOL     OW78301  10.319   0.192  14.097
58821SOL    HW178302  10.244   0.229  14.142
58821SOL    HW278303  10.315   0.228  14.009
58822SOL     OW78304   1.072   2.783  11.716
58822SOL    HW178305   1.123   2.730  11.655
58822SOL    HW278306   0.996   2.812  11.666
58823SOL     OW78307   6.636  11.912  13.805
58823SOL    HW178308   6.573  11.962  13.752
58823SOL    HW278309   6.589  11.832  13.828
58824SOL     OW78310   4.016  11.500   9.295
58824SOL    HW178311   4.047  11.506   9.386
58824SOL    HW278312   3.921  11.506   9.303
58825SOL     OW78313   3.878  12.158   5.414
58825SOL    HW178314   3.853  12.090   5.352
58825SOL    HW278315   3.972  12.145   5.427
58826SOL     OW78316  11.808   5.036   3.126
58826SOL    HW178317  11.798   5.099   3.197
58826SOL    HW278318  11.878   4.978   3.155
58827SOL     OW78319   3.205   0.679   4.686
58827SOL    HW178320   3.273   0.738   4.717
58827SOL    HW278321   3.127   0.703   4.736
58828SOL     OW78322  14.260   9.333   2.576
58828SOL    HW178323  14.204   9.409   2.565
58828SOL    HW278324  14.291   9.312   2.488
58829SOL     OW78325   1.803  13.178   6.194
58829SOL    HW178326   1.825  13.215   6.280
58829SOL    HW278327   1.719  13.135   6.206
58830SOL     OW78328  11.194   3.364  13.451
58830SOL    HW178329  11.100   3.346  13.462
58830SOL    HW278330  11.225   3.294  13.394
58831SOL     OW78331   5.067   8.753  10.304
58831SOL    HW178332   5.040   8.805  10.229
58831SOL    HW278333   5.014   8.673  10.298
58832SOL     OW78334   7.743   5.076   7.257
58832SOL    HW178335   7.804   5.039   7.320
58832SOL    HW278336   7.793   5.143   7.211
58833SOL     OW78337   5.442   1.277   3.820
58833SOL    HW178338   5.353   1.287   3.787
58833SOL    HW278339   5.438   1.201   3.879
58834SOL     OW78340  13.625   7.961   6.018
58834SOL    HW178341  13.579   7.947   6.100
58834SOL    HW278342  13.709   8.000   6.044
58835SOL     OW78343  12.698   2.884   8.646
58835SOL    HW178344  12.690   2.889   8.550
58835SOL    HW278345  12.776   2.831   8.661
58836SOL     OW78346  11.478  10.714  14.741
58836SOL    HW178347  11.482  10.692  14.834
58836SOL    HW278348  11.465  10.630  14.697
58837SOL     OW78349   4.480  12.300   8.124
58837SOL    HW178350   4.430  12.381   8.138
58837SOL    HW278351   4.436  12.257   8.051
58838SOL     OW78352   5.489   7.428  13.653
58838SOL    HW178353   5.465   7.367  13.723
58838SOL    HW278354   5.520   7.373  13.582
58839SOL     OW78355  11.543   2.058   0.751
58839SOL    HW178356  11.548   2.057   0.655
58839SOL    HW278357  11.574   2.145   0.776
58840SOL     OW78358  10.453  11.415   9.483
58840SOL    HW178359  10.514  11.373   9.422
58840SOL    HW278360  10.375  11.433   9.431
58841SOL     OW78361   8.896  13.776  11.765
58841SOL    HW178362   8.836  13.848  11.782
58841SOL    HW278363   8.927  13.748  11.851
58842SOL     OW78364  13.123   2.778   2.255
58842SOL    HW178365  13.191   2.713   2.234
58842SOL    HW278366  13.144   2.807   2.343
58843SOL     OW78367  13.064  11.971   0.954
58843SOL    HW178368  12.976  12.007   0.965
58843SOL    HW278369  13.068  11.942   0.863
58844SOL     OW78370  11.907   5.152   4.039
58844SOL    HW178371  11.906   5.173   4.133
58844SOL    HW278372  11.822   5.182   4.007
58845SOL     OW78373   2.338   4.658   2.471
58845SOL    HW178374   2.385   4.742   2.465
58845SOL    HW278375   2.357   4.614   2.388
58846SOL     OW78376  11.478  14.411   4.050
58846SOL    HW178377  11.563  14.454   4.049
58846SOL    HW278378  11.498  14.318   4.063
58847SOL     OW78379   6.410   9.848  10.921
58847SOL    HW178380   6.475   9.903  10.877
58847SOL    HW278381   6.456   9.765  10.937
58848SOL     OW78382   8.713  12.031  14.135
58848SOL    HW178383   8.683  12.122  14.134
58848SOL    HW278384   8.658  11.988  14.069
58849SOL     OW78385  11.831  11.120   0.185
58849SOL    HW178386  11.869  11.032   0.186
58849SOL    HW278387  11.902  11.177   0.214
58850SOL     OW78388   6.022  11.621   2.889
58850SOL    HW178389   6.105  11.668   2.881
58850SOL    HW278390   5.958  11.677   2.844
58851SOL     OW78391  10.523   7.248   2.373
58851SOL    HW178392  10.529   7.332   2.329
58851SOL    HW278393  10.516   7.183   2.303
58852SOL     OW78394   6.480   0.160   8.942
58852SOL    HW178395   6.539   0.235   8.953
58852SOL    HW278396   6.500   0.103   9.016
58853SOL     OW78397   4.509   0.243   6.786
58853SOL    HW178398   4.514   0.193   6.705
58853SOL    HW278399   4.469   0.183   6.849
58854SOL     OW78400  13.483   2.193  11.648
58854SOL    HW178401  13.526   2.112  11.620
58854SOL    HW278402  13.426   2.215  11.575
58855SOL     OW78403   1.719   3.503   8.042
58855SOL    HW178404   1.812   3.522   8.032
58855SOL    HW278405   1.713   3.409   8.024
58856SOL     OW78406   9.654   7.387   1.796
58856SOL    HW178407   9.722   7.403   1.731
58856SOL    HW278408   9.686   7.313   1.848
58857SOL     OW78409  13.625   2.422  10.220
58857SOL    HW178410  13.650   2.347  10.166
58857SOL    HW278411  13.687   2.419  10.293
58858SOL     OW78412   9.266   0.388   7.387
58858SOL    HW178413   9.222   0.351   7.311
58858SOL    HW278414   9.336   0.326   7.407
58859SOL     OW78415   8.633  10.486   3.142
58859SOL    HW178416   8.585  10.471   3.223
58859SOL    HW278417   8.708  10.427   3.148
58860SOL     OW78418  13.294   7.642   8.970
58860SOL    HW178419  13.315   7.630   9.062
58860SOL    HW278420  13.279   7.553   8.937
58861SOL     OW78421   9.349   2.822   8.199
58861SOL    HW178422   9.401   2.743   8.187
58861SOL    HW278423   9.394   2.869   8.270
58862SOL     OW78424   1.124   3.606   9.677
58862SOL    HW178425   1.068   3.561   9.740
58862SOL    HW278426   1.208   3.559   9.683
58863SOL     OW78427   7.061  14.683   5.501
58863SOL    HW178428   7.058  14.635   5.418
58863SOL    HW278429   6.969  14.686   5.529
58864SOL     OW78430   0.173  12.642   1.785
58864SOL    HW178431   0.117  12.608   1.854
58864SOL    HW278432   0.170  12.575   1.717
58865SOL     OW78433   2.461   3.039   8.026
58865SOL    HW178434   2.487   3.101   7.958
58865SOL    HW278435   2.476   3.086   8.108
58866SOL     OW78436   8.053   3.468   6.268
58866SOL    HW178437   7.968   3.435   6.240
58866SOL    HW278438   8.103   3.389   6.290
58867SOL     OW78439   4.535  10.961   2.952
58867SOL    HW178440   4.458  11.004   2.916
58867SOL    HW278441   4.609  11.004   2.909
58868SOL     OW78442  14.236   0.140   9.752
58868SOL    HW178443  14.201   0.092   9.827
58868SOL    HW278444  14.204   0.092   9.675
58869SOL     OW78445   0.014  13.905  14.645
58869SOL    HW178446   0.006  13.980  14.704
58869SOL    HW278447   0.106  13.903  14.621
58870SOL     OW78448   3.416   9.002   6.264
58870SOL    HW178449   3.457   8.921   6.233
58870SOL    HW278450   3.329   8.975   6.293
58871SOL     OW78451   7.304   9.747   7.479
58871SOL    HW178452   7.313   9.715   7.389
58871SOL    HW278453   7.298   9.667   7.532
58872SOL     OW78454   5.114   6.555  12.748
58872SOL    HW178455   5.122   6.625  12.812
58872SOL    HW278456   5.203   6.540  12.716
58873SOL     OW78457  14.617   3.589   2.183
58873SOL    HW178458  14.605   3.680   2.159
58873SOL    HW278459  14.656   3.592   2.271
58874SOL     OW78460  11.169   5.208   2.568
58874SOL    HW178461  11.180   5.233   2.476
58874SOL    HW278462  11.255   5.174   2.594
58875SOL     OW78463   5.166   1.304  12.556
58875SOL    HW178464   5.080   1.279  12.588
58875SOL    HW278465   5.227   1.247  12.603
58876SOL     OW78466   2.800   0.070  12.417
58876SOL    HW178467   2.856   0.012  12.468
58876SOL    HW278468   2.778   0.019  12.339
58877SOL     OW78469  12.148   2.204   8.539
58877SOL    HW178470  12.071   2.243   8.581
58877SOL    HW278471  12.112   2.146   8.472
58878SOL     OW78472   0.114  11.850   7.489
58878SOL    HW178473   0.065  11.926   7.455
58878SOL    HW278474   0.205  11.869   7.465
58879SOL     OW78475  12.364   3.920   5.588
58879SOL    HW178476  12.368   4.014   5.573
58879SOL    HW278477  12.337   3.911   5.679
58880SOL     OW78478   7.189   3.919  13.081
58880SOL    HW178479   7.283   3.927  13.070
58880SOL    HW278480   7.153   3.927  12.992
58881SOL     OW78481  12.469  10.473   9.651
58881SOL    HW178482  12.386  10.518   9.668
58881SOL    HW278483  12.484  10.421   9.729
58882SOL     OW78484   0.407  11.300   8.834
58882SOL    HW178485   0.374  11.319   8.746
58882SOL    HW278486   0.464  11.224   8.823
58883SOL     OW78487   5.217  13.486   8.961
58883SOL    HW178488   5.209  13.448   9.048
58883SOL    HW278489   5.270  13.565   8.974
58884SOL     OW78490   3.704   5.423  14.400
58884SOL    HW178491   3.657   5.354  14.446
58884SOL    HW278492   3.638   5.489  14.381
58885SOL     OW78493  12.257  10.523   6.961
58885SOL    HW178494  12.186  10.473   7.003
58885SOL    HW278495  12.281  10.471   6.884
58886SOL     OW78496  13.386   9.991   6.697
58886SOL    HW178497  13.324  10.044   6.647
58886SOL    HW278498  13.472  10.018   6.666
58887SOL     OW78499   8.536  10.559   2.713
58887SOL    HW178500   8.498  10.556   2.801
58887SOL    HW278501   8.527  10.470   2.679
58888SOL     OW78502   8.352   7.665   0.173
58888SOL    HW178503   8.400   7.605   0.116
58888SOL    HW278504   8.374   7.752   0.138
58889SOL     OW78505   2.971   0.797   4.780
58889SOL    HW178506   2.891   0.846   4.799
58889SOL    HW278507   2.944   0.705   4.782
58890SOL     OW78508   6.430  12.868   7.767
58890SOL    HW178509   6.414  12.835   7.678
58890SOL    HW278510   6.525  12.876   7.773
58891SOL     OW78511   9.585   6.365  11.236
58891SOL    HW178512   9.563   6.451  11.200
58891SOL    HW278513   9.503   6.332  11.272
58892SOL     OW78514   9.574  12.713   3.822
58892SOL    HW178515   9.641  12.771   3.784
58892SOL    HW278516   9.496  12.730   3.770
58893SOL     OW78517   1.260   0.086   5.230
58893SOL    HW178518   1.279   0.071   5.323
58893SOL    HW278519   1.320   0.155   5.205
58894SOL     OW78520  13.376  11.511   6.691
58894SOL    HW178521  13.291  11.478   6.718
58894SOL    HW278522  13.431  11.503   6.769
58895SOL     OW78523   8.130   5.283  13.361
58895SOL    HW178524   8.116   5.223  13.434
58895SOL    HW278525   8.140   5.369  13.402
58896SOL     OW78526   1.515   3.423  10.148
58896SOL    HW178527   1.514   3.339  10.194
58896SOL    HW278528   1.432   3.427  10.102
58897SOL     OW78529   9.124  10.152   1.554
58897SOL    HW178530   9.105  10.196   1.472
58897SOL    HW278531   9.219  10.160   1.565
58898SOL     OW78532  12.114  10.510   5.937
58898SOL    HW178533  12.052  10.570   5.895
58898SOL    HW278534  12.109  10.532   6.030
58899SOL     OW78535   6.474  13.774  13.328
58899SOL    HW178536   6.468  13.860  13.287
58899SOL    HW278537   6.567  13.752  13.323
58900SOL     OW78538  10.740   7.204   5.303
58900SOL    HW178539  10.809   7.209   5.237
58900SOL    HW278540  10.787   7.199   5.387
58901SOL     OW78541   2.736   8.159   0.370
58901SOL    HW178542   2.737   8.199   0.457
58901SOL    HW278543   2.647   8.172   0.339
58902SOL     OW78544   6.368   9.490   7.031
58902SOL    HW178545   6.273   9.496   7.030
58902SOL    HW278546   6.397   9.532   6.950
58903SOL     OW78547   5.655   0.385   8.658
58903SOL    HW178548   5.663   0.304   8.606
58903SOL    HW278549   5.615   0.356   8.740
58904SOL     OW78550  10.957   3.277  13.539
58904SOL    HW178551  10.865   3.294  13.560
58904SOL    HW278552  10.979   3.199  13.589
58905SOL     OW78553   8.281   7.412  11.834
58905SOL    HW178554   8.193   7.449  11.840
58905SOL    HW278555   8.311   7.435  11.746
58906SOL     OW78556   3.014   6.955   4.125
58906SOL    HW178557   3.076   6.962   4.198
58906SOL    HW278558   2.969   7.040   4.124
58907SOL     OW78559  10.367  13.664   7.225
58907SOL    HW178560  10.451  13.657   7.269
58907SOL    HW278561  10.387  13.710   7.143
58908SOL     OW78562  10.277   4.713   2.234
58908SOL    HW178563  10.360   4.667   2.227
58908SOL    HW278564  10.226   4.662   2.297
58909SOL     OW78565   8.527   3.704  11.582
58909SOL    HW178566   8.453   3.657  11.620
58909SOL    HW278567   8.547   3.657  11.502
58910SOL     OW78568  13.447   1.684   2.978
58910SOL    HW178569  13.381   1.669   2.911
58910SOL    HW278570  13.453   1.780   2.984
58911SOL     OW78571  13.352   4.554  14.376
58911SOL    HW178572  13.378   4.561  14.468
58911SOL    HW278573  13.424   4.594  14.327
58912SOL     OW78574  11.201   6.532  13.411
58912SOL    HW178575  11.214   6.502  13.501
58912SOL    HW278576  11.181   6.453  13.362
58913SOL     OW78577   8.180   8.078   7.979
58913SOL    HW178578   8.138   8.058   7.896
58913SOL    HW278579   8.109   8.099   8.038
58914SOL     OW78580   6.641   9.475   7.549
58914SOL    HW178581   6.679   9.400   7.594
58914SOL    HW278582   6.715   9.536   7.538
58915SOL     OW78583  12.912   2.702   3.620
58915SOL    HW178584  12.997   2.741   3.640
58915SOL    HW278585  12.901   2.635   3.687
58916SOL     OW78586  13.569   4.569   2.483
58916SOL    HW178587  13.633   4.551   2.553
58916SOL    HW278588  13.609   4.531   2.404
58917SOL     OW78589  12.796   5.824   5.190
58917SOL    HW178590  12.747   5.877   5.127
58917SOL    HW278591  12.840   5.889   5.246
58918SOL     OW78592  14.557  10.686   0.094
58918SOL    HW178593  14.472  10.665   0.132
58918SOL    HW278594  14.538  10.749   0.024
58919SOL     OW78595  11.354  11.234   9.465
58919SOL    HW178596  11.404  11.310   9.435
58919SOL    HW278597  11.271  11.270   9.495
58920SOL     OW78598  14.807   6.154   7.399
58920SOL    HW178599  14.848   6.195   7.476
58920SOL    HW278600  14.713   6.159   7.417
58921SOL     OW78601  12.048  12.654   5.755
58921SOL    HW178602  11.993  12.706   5.814
58921SOL    HW278603  12.051  12.705   5.674
58922SOL     OW78604   4.406   3.457   1.709
58922SOL    HW178605   4.355   3.380   1.735
58922SOL    HW278606   4.494   3.440   1.742
58923SOL     OW78607   4.834  11.221  10.852
58923SOL    HW178608   4.885  11.145  10.879
58923SOL    HW278609   4.807  11.201  10.762
58924SOL     OW78610   8.695   7.175  14.783
58924SOL    HW178611   8.781   7.214  14.799
58924SOL    HW278612   8.653   7.175  14.869
58925SOL     OW78613   4.466   9.750  11.459
58925SOL    HW178614   4.470   9.691  11.534
58925SOL    HW278615   4.461   9.838  11.498
58926SOL     OW78616  10.592   9.039  14.012
58926SOL    HW178617  10.618   9.097  14.083
58926SOL    HW278618  10.626   8.953  14.036
58927SOL     OW78619  10.576   2.234  11.296
58927SOL    HW178620  10.511   2.164  11.288
58927SOL    HW278621  10.579   2.274  11.209
58928SOL     OW78622   5.581   1.513  10.571
58928SOL    HW178623   5.524   1.520  10.648
58928SOL    HW278624   5.569   1.424  10.540
58929SOL     OW78625  14.448   4.626   5.500
58929SOL    HW178626  14.521   4.639   5.561
58929SOL    HW278627  14.376   4.595   5.555
58930SOL     OW78628   2.042   3.456   1.335
58930SOL    HW178629   2.059   3.419   1.422
58930SOL    HW278630   2.092   3.538   1.334
58931SOL     OW78631   5.492   5.519  14.348
58931SOL    HW178632   5.538   5.437  14.364
58931SOL    HW278633   5.557   5.587  14.364
58932SOL     OW78634   1.297  12.270   6.578
58932SOL    HW178635   1.318  12.303   6.490
58932SOL    HW278636   1.314  12.176   6.573
58933SOL     OW78637   6.011  12.285   7.951
58933SOL    HW178638   5.919  12.302   7.969
58933SOL    HW278639   6.015  12.267   7.857
58934SOL     OW78640   6.383   8.801  11.188
58934SOL    HW178641   6.469   8.786  11.226
58934SOL    HW278642   6.340   8.716  11.192
58935SOL     OW78643  11.269   9.349   1.774
58935SOL    HW178644  11.222   9.374   1.695
58935SOL    HW278645  11.343   9.410   1.778
58936SOL     OW78646   7.198   9.436  13.226
58936SOL    HW178647   7.105   9.456  13.221
58936SOL    HW278648   7.234   9.467  13.143
58937SOL     OW78649   1.772  14.156  12.991
58937SOL    HW178650   1.837  14.202  12.937
58937SOL    HW278651   1.813  14.072  13.011
58938SOL     OW78652  10.059   5.740   6.472
58938SOL    HW178653  10.042   5.781   6.387
58938SOL    HW278654  10.116   5.666   6.451
58939SOL     OW78655   0.068   3.549   4.089
58939SOL    HW178656   0.059   3.642   4.109
58939SOL    HW278657   0.007   3.535   4.017
58940SOL     OW78658   8.633   7.781  12.976
58940SOL    HW178659   8.542   7.786  12.945
58940SOL    HW278660   8.686   7.794  12.898
58941SOL     OW78661   9.768   5.494  12.594
58941SOL    HW178662   9.692   5.448  12.629
58941SOL    HW278663   9.817   5.426  12.547
58942SOL     OW78664   4.763  11.359   3.603
58942SOL    HW178665   4.781  11.432   3.662
58942SOL    HW278666   4.808  11.284   3.643
58943SOL     OW78667   6.949   1.189   2.839
58943SOL    HW178668   6.903   1.230   2.765
58943SOL    HW278669   7.023   1.247   2.856
58944SOL     OW78670  13.202  11.996   0.082
58944SOL    HW178671  13.271  11.930   0.079
58944SOL    HW278672  13.169  12.000  14.865
58945SOL     OW78673  14.295   1.615   0.770
58945SOL    HW178674  14.253   1.592   0.853
58945SOL    HW278675  14.386   1.631   0.792
58946SOL     OW78676   4.456  13.796   0.239
58946SOL    HW178677   4.410  13.797   0.323
58946SOL    HW278678   4.437  13.881   0.200
58947SOL     OW78679   9.882   6.698   3.938
58947SOL    HW178680   9.807   6.734   3.891
58947SOL    HW278681   9.873   6.731   4.028
58948SOL     OW78682   0.859   7.679   8.749
58948SOL    HW178683   0.890   7.768   8.728
58948SOL    HW278684   0.848   7.637   8.664
58949SOL     OW78685  14.103   1.750   8.818
58949SOL    HW178686  14.017   1.768   8.782
58949SOL    HW278687  14.129   1.831   8.861
58950SOL     OW78688  10.993   4.464   2.088
58950SOL    HW178689  10.900   4.476   2.108
58950SOL    HW278690  11.038   4.491   2.168
58951SOL     OW78691   4.042  10.726   8.799
58951SOL    HW178692   4.028  10.661   8.868
58951SOL    HW278693   4.134  10.750   8.806
58952SOL     OW78694  12.412  10.294   7.672
58952SOL    HW178695  12.320  10.291   7.644
58952SOL    HW278696  12.450  10.213   7.639
58953SOL     OW78697   0.126  10.072  11.981
58953SOL    HW178698   0.194  10.085  12.047
58953SOL    HW278699   0.078   9.996  12.012
58954SOL     OW78700   2.798   0.397   1.520
58954SOL    HW178701   2.748   0.447   1.455
58954SOL    HW278702   2.748   0.406   1.601
58955SOL     OW78703  12.273   7.875  10.863
58955SOL    HW178704  12.239   7.859  10.951
58955SOL    HW278705  12.338   7.806  10.850
58956SOL     OW78706   3.292   9.245  12.530
58956SOL    HW178707   3.362   9.240  12.465
58956SOL    HW278708   3.335   9.278  12.609
58957SOL     OW78709  13.610  13.113  11.958
58957SOL    HW178710  13.528  13.093  12.004
58957SOL    HW278711  13.659  13.168  12.020
58958SOL     OW78712   1.792   6.789   5.241
58958SOL    HW178713   1.880   6.760   5.266
58958SOL    HW278714   1.807   6.845   5.164
58959SOL     OW78715   3.406   3.257  10.757
58959SOL    HW178716   3.442   3.235  10.671
58959SOL    HW278717   3.315   3.227  10.753
58960SOL     OW78718  13.444   0.587   3.040
58960SOL    HW178719  13.483   0.568   3.125
58960SOL    HW278720  13.506   0.552   2.977
58961SOL     OW78721   3.530   6.457  14.174
58961SOL    HW178722   3.555   6.536  14.126
58961SOL    HW278723   3.603   6.397  14.160
58962SOL     OW78724   5.701   9.341   6.755
58962SOL    HW178725   5.781   9.314   6.799
58962SOL    HW278726   5.653   9.391   6.821
58963SOL     OW78727   1.073  10.300   4.671
58963SOL    HW178728   1.068  10.302   4.766
58963SOL    HW278729   1.047  10.388   4.644
58964SOL     OW78730   6.309   4.868   7.809
58964SOL    HW178731   6.286   4.780   7.779
58964SOL    HW278732   6.256   4.926   7.754
58965SOL     OW78733  11.861   5.722  14.504
58965SOL    HW178734  11.902   5.661  14.566
58965SOL    HW278735  11.808   5.666  14.447
58966SOL     OW78736   4.505   1.660  10.519
58966SOL    HW178737   4.526   1.567  10.512
58966SOL    HW278738   4.479   1.672  10.611
58967SOL     OW78739  10.207   7.083  12.258
58967SOL    HW178740  10.289   7.037  12.243
58967SOL    HW278741  10.140   7.021  12.229
58968SOL     OW78742   8.612   9.688   9.886
58968SOL    HW178743   8.549   9.718   9.952
58968SOL    HW278744   8.576   9.720   9.803
58969SOL     OW78745   9.672   8.392   2.506
58969SOL    HW178746   9.763   8.420   2.494
58969SOL    HW278747   9.679   8.298   2.522
58970SOL     OW78748   3.100   7.415   0.552
58970SOL    HW178749   3.085   7.361   0.474
58970SOL    HW278750   3.191   7.398   0.576
58971SOL     OW78751   6.293   2.729   2.729
58971SOL    HW178752   6.387   2.745   2.719
58971SOL    HW278753   6.251   2.802   2.682
58972SOL     OW78754   1.288   0.083   2.250
58972SOL    HW178755   1.323   0.012   2.305
58972SOL    HW278756   1.362   0.142   2.237
58973SOL     OW78757  14.458  11.075   7.390
58973SOL    HW178758  14.401  11.010   7.430
58973SOL    HW278759  14.472  11.141   7.458
58974SOL     OW78760  10.198  10.730  13.718
58974SOL    HW178761  10.248  10.650  13.701
58974SOL    HW278762  10.258  10.785  13.770
58975SOL     OW78763   0.041   7.281  14.644
58975SOL    HW178764  14.858   7.215  14.686
58975SOL    HW278765   0.046   7.252  14.553
58976SOL     OW78766   0.397   7.796   9.715
58976SOL    HW178767   0.344   7.807   9.794
58976SOL    HW278768   0.486   7.786   9.747
58977SOL     OW78769  10.947   4.489  13.541
58977SOL    HW178770  11.043   4.485  13.537
58977SOL    HW278771  10.922   4.404  13.577
58978SOL     OW78772  13.185  14.367   2.456
58978SOL    HW178773  13.247  14.416   2.403
58978SOL    HW278774  13.106  14.422   2.458
58979SOL     OW78775   2.578   7.834   7.320
58979SOL    HW178776   2.652   7.895   7.314
58979SOL    HW278777   2.525   7.854   7.243
58980SOL     OW78778   8.097   3.728  11.458
58980SOL    HW178779   8.146   3.784  11.398
58980SOL    HW278780   8.023   3.697  11.407
58981SOL     OW78781   6.808   4.220  14.621
58981SOL    HW178782   6.837   4.284  14.556
58981SOL    HW278783   6.718   4.244  14.640
58982SOL     OW78784  12.041   6.248   7.223
58982SOL    HW178785  11.996   6.326   7.190
58982SOL    HW278786  12.037   6.257   7.318
58983SOL     OW78787   0.942  11.402   8.823
58983SOL    HW178788   1.036  11.406   8.842
58983SOL    HW278789   0.906  11.481   8.863
58984SOL     OW78790   0.046   4.367   9.384
58984SOL    HW178791   0.027   4.442   9.327
58984SOL    HW278792  14.840   4.356   9.436
58985SOL     OW78793  13.820   4.257   1.970
58985SOL    HW178794  13.806   4.177   1.919
58985SOL    HW278795  13.879   4.310   1.916
58986SOL     OW78796  14.360  10.247  12.204
58986SOL    HW178797  14.422  10.225  12.135
58986SOL    HW278798  14.327  10.162  12.235
58987SOL     OW78799   0.178  14.587  13.646
58987SOL    HW178800   0.208  14.631  13.725
58987SOL    HW278801   0.132  14.509  13.678
58988SOL     OW78802   5.435   0.561  11.233
58988SOL    HW178803   5.494   0.487  11.235
58988SOL    HW278804   5.361   0.535  11.288
58989SOL     OW78805   7.067   1.322   8.922
58989SOL    HW178806   7.067   1.246   8.864
58989SOL    HW278807   7.072   1.397   8.862
58990SOL     OW78808   7.592   7.980  13.711
58990SOL    HW178809   7.611   7.931  13.631
58990SOL    HW278810   7.669   8.036  13.723
58991SOL     OW78811   9.469   0.070   7.892
58991SOL    HW178812   9.557   0.038   7.907
58991SOL    HW278813   9.415   0.025   7.956
58992SOL     OW78814   9.908   0.926   6.160
58992SOL    HW178815   9.975   0.990   6.182
58992SOL    HW278816   9.896   0.935   6.065
58993SOL     OW78817   0.338   3.334   9.623
58993SOL    HW178818   0.394   3.382   9.684
58993SOL    HW278819   0.327   3.247   9.663
58994SOL     OW78820   7.475   9.309  11.125
58994SOL    HW178821   7.434   9.329  11.041
58994SOL    HW278822   7.569   9.315  11.108
58995SOL     OW78823   1.598  11.147   1.624
58995SOL    HW178824   1.545  11.081   1.669
58995SOL    HW278825   1.632  11.101   1.547
58996SOL     OW78826   3.700   3.588   0.640
58996SOL    HW178827   3.679   3.590   0.547
58996SOL    HW278828   3.634   3.531   0.679
58997SOL     OW78829  12.827   3.969   8.255
58997SOL    HW178830  12.808   4.046   8.201
58997SOL    HW278831  12.831   4.002   8.344
58998SOL     OW78832   5.856   9.515   0.256
58998SOL    HW178833   5.905   9.594   0.276
58998SOL    HW278834   5.797   9.503   0.330
58999SOL     OW78835   1.050   6.723  10.305
58999SOL    HW178836   1.043   6.785  10.232
58999SOL    HW278837   1.027   6.775  10.382
59000SOL     OW78838  10.376  13.060  10.119
59000SOL    HW178839  10.422  13.112  10.185
59000SOL    HW278840  10.354  13.122  10.050
59001SOL     OW78841   1.514  10.411  13.003
59001SOL    HW178842   1.428  10.413  13.043
59001SOL    HW278843   1.533  10.503  12.983
59002SOL     OW78844   7.997  12.535   8.488
59002SOL    HW178845   7.999  12.584   8.570
59002SOL    HW278846   7.984  12.601   8.421
59003SOL     OW78847  13.880  10.617   5.723
59003SOL    HW178848  13.813  10.684   5.731
59003SOL    HW278849  13.841  10.551   5.665
59004SOL     OW78850   4.695   2.569   0.998
59004SOL    HW178851   4.755   2.609   1.061
59004SOL    HW278852   4.675   2.640   0.937
59005SOL     OW78853   7.838  11.761   3.231
59005SOL    HW178854   7.907  11.736   3.292
59005SOL    HW278855   7.832  11.689   3.169
59006SOL     OW78856   4.629   0.357  10.586
59006SOL    HW178857   4.603   0.402  10.505
59006SOL    HW278858   4.655   0.270  10.558
59007SOL     OW78859  11.216   9.999   0.836
59007SOL    HW178860  11.255   9.929   0.784
59007SOL    HW278861  11.227   9.970   0.927
59008SOL     OW78862   6.064  11.220   1.782
59008SOL    HW178863   6.088  11.188   1.695
59008SOL    HW278864   6.031  11.143   1.828
59009SOL     OW78865   3.503   5.019   1.340
59009SOL    HW178866   3.546   4.966   1.273
59009SOL    HW278867   3.515   4.969   1.421
59010SOL     OW78868   2.788  13.226   2.109
59010SOL    HW178869   2.717  13.178   2.152
59010SOL    HW278870   2.855  13.160   2.094
59011SOL     OW78871  13.607   1.211  11.044
59011SOL    HW178872  13.693   1.248  11.064
59011SOL    HW278873  13.619   1.163  10.962
59012SOL     OW78874   0.673   7.906   3.232
59012SOL    HW178875   0.617   7.984   3.232
59012SOL    HW278876   0.613   7.833   3.242
59013SOL     OW78877   5.441   3.969   8.522
59013SOL    HW178878   5.429   3.914   8.445
59013SOL    HW278879   5.521   3.935   8.563
59014SOL     OW78880  13.743  14.790  13.436
59014SOL    HW178881  13.711   0.006  13.421
59014SOL    HW278882  13.768  14.758  13.349
59015SOL     OW78883   2.150   2.163   1.590
59015SOL    HW178884   2.217   2.173   1.658
59015SOL    HW278885   2.154   2.071   1.565
59016SOL     OW78886   4.958  10.952   5.514
59016SOL    HW178887   4.936  10.876   5.568
59016SOL    HW278888   5.035  10.924   5.464
59017SOL     OW78889   1.227  14.680   5.633
59017SOL    HW178890   1.212  14.612   5.698
59017SOL    HW278891   1.168  14.751   5.659
59018SOL     OW78892   4.535   7.024   9.212
59018SOL    HW178893   4.532   7.105   9.161
59018SOL    HW278894   4.528   7.053   9.303
59019SOL     OW78895   4.045   7.195  10.453
59019SOL    HW178896   4.025   7.197  10.359
59019SOL    HW278897   3.979   7.252  10.492
59020SOL     OW78898   7.664   2.339  12.284
59020SOL    HW178899   7.612   2.265  12.316
59020SOL    HW278900   7.611   2.416  12.306
59021SOL     OW78901   2.217   3.741   4.283
59021SOL    HW178902   2.147   3.795   4.247
59021SOL    HW278903   2.235   3.780   4.369
59022SOL     OW78904   9.962   7.774   0.462
59022SOL    HW178905   9.942   7.688   0.500
59022SOL    HW278906   9.997   7.825   0.535
59023SOL     OW78907   3.508   9.004   0.869
59023SOL    HW178908   3.561   8.933   0.834
59023SOL    HW278909   3.502   9.067   0.797
59024SOL     OW78910  11.726  12.911  10.758
59024SOL    HW178911  11.743  12.976  10.826
59024SOL    HW278912  11.672  12.958  10.694
59025SOL     OW78913  13.410  14.467   9.941
59025SOL    HW178914  13.382  14.502  10.026
59025SOL    HW278915  13.329  14.462   9.889
59026SOL     OW78916   5.899  11.583   9.104
59026SOL    HW178917   5.834  11.513   9.105
59026SOL    HW278918   5.848  11.663   9.092
59027SOL     OW78919   6.297  13.545   3.687
59027SOL    HW178920   6.261  13.589   3.610
59027SOL    HW278921   6.268  13.455   3.679
59028SOL     OW78922   5.791   5.267   8.155
59028SOL    HW178923   5.813   5.194   8.213
59028SOL    HW278924   5.707   5.300   8.188
59029SOL     OW78925   1.228  12.642   3.851
59029SOL    HW178926   1.320  12.631   3.830
59029SOL    HW278927   1.226  12.656   3.945
59030SOL     OW78928   5.519   4.736   7.219
59030SOL    HW178929   5.550   4.646   7.218
59030SOL    HW278930   5.593   4.786   7.253
59031SOL     OW78931  14.454   7.762  12.645
59031SOL    HW178932  14.383   7.716  12.602
59031SOL    HW278933  14.432   7.761  12.738
59032SOL     OW78934   4.850   6.129   3.482
59032SOL    HW178935   4.829   6.152   3.391
59032SOL    HW278936   4.942   6.150   3.492
59033SOL     OW78937  10.907  10.720  14.257
59033SOL    HW178938  10.917  10.768  14.339
59033SOL    HW278939  10.994  10.686  14.238
59034SOL     OW78940   2.698   6.431   9.172
59034SOL    HW178941   2.786   6.416   9.207
59034SOL    HW278942   2.666   6.344   9.149
59035SOL     OW78943   0.952   5.603   1.929
59035SOL    HW178944   0.982   5.690   1.957
59035SOL    HW278945   0.867   5.592   1.971
59036SOL     OW78946   8.350  10.806   8.175
59036SOL    HW178947   8.261  10.836   8.189
59036SOL    HW278948   8.395  10.823   8.258
59037SOL     OW78949   5.570   4.762  10.229
59037SOL    HW178950   5.605   4.775  10.317
59037SOL    HW278951   5.648   4.755  10.174
59038SOL     OW78952   5.044  14.665   6.720
59038SOL    HW178953   4.991  14.725   6.666
59038SOL    HW278954   4.983  14.628   6.783
59039SOL     OW78955  12.319   2.007   0.882
59039SOL    HW178956  12.332   2.102   0.881
59039SOL    HW278957  12.404   1.972   0.907
59040SOL     OW78958   3.258   8.251   2.516
59040SOL    HW178959   3.335   8.195   2.528
59040SOL    HW278960   3.184   8.191   2.524
59041SOL     OW78961  12.043  14.600   7.918
59041SOL    HW178962  12.022  14.686   7.955
59041SOL    HW278963  12.007  14.537   7.980
59042SOL     OW78964   6.857   2.794  12.499
59042SOL    HW178965   6.912   2.866  12.531
59042SOL    HW278966   6.786   2.837  12.452
59043SOL     OW78967   3.079   0.342   2.247
59043SOL    HW178968   3.102   0.408   2.181
59043SOL    HW278969   3.023   0.280   2.200
59044SOL     OW78970  11.124  12.211   2.238
59044SOL    HW178971  11.038  12.252   2.229
59044SOL    HW278972  11.131  12.189   2.331
59045SOL     OW78973  11.056   7.657  11.716
59045SOL    HW178974  11.144   7.624  11.727
59045SOL    HW278975  11.004   7.611  11.782
59046SOL     OW78976   6.805   5.130  11.437
59046SOL    HW178977   6.838   5.047  11.472
59046SOL    HW278978   6.712   5.132  11.461
59047SOL     OW78979   0.619   0.672   5.032
59047SOL    HW178980   0.635   0.720   4.951
59047SOL    HW278981   0.637   0.581   5.010
59048SOL     OW78982   6.468   8.977  11.614
59048SOL    HW178983   6.490   9.065  11.583
59048SOL    HW278984   6.396   8.949  11.559
59049SOL     OW78985   8.329  11.560   9.005
59049SOL    HW178986   8.389  11.500   9.049
59049SOL    HW278987   8.299  11.512   8.928
59050SOL     OW78988   1.942   8.534  14.416
59050SOL    HW178989   2.001   8.526  14.341
59050SOL    HW278990   1.996   8.569  14.486
59051SOL     OW78991   4.820   5.336  14.211
59051SOL    HW178992   4.797   5.280  14.286
59051SOL    HW278993   4.859   5.414  14.251
59052SOL     OW78994  12.409   4.258  12.853
59052SOL    HW178995  12.395   4.300  12.769
59052SOL    HW278996  12.339   4.193  12.859
59053SOL     OW78997  14.457  12.516   9.891
59053SOL    HW178998  14.465  12.459   9.814
59053SOL    HW278999  14.488  12.602   9.860
59054SOL     OW79000  10.100   5.929   2.529
59054SOL    HW179001  10.133   5.984   2.459
59054SOL    HW279002  10.097   5.986   2.606
59055SOL     OW79003  14.838   3.905  13.063
59055SOL    HW179004  14.767   3.909  12.998
59055SOL    HW279005   0.045   3.910  13.011
59056SOL     OW79006  12.221   6.596  14.666
59056SOL    HW179007  12.279   6.566  14.596
59056SOL    HW279008  12.162   6.658  14.623
59057SOL     OW79009   6.093   6.168  14.102
59057SOL    HW179010   6.037   6.164  14.179
59057SOL    HW279011   6.178   6.196  14.135
59058SOL     OW79012   0.300   1.602  13.783
59058SOL    HW179013   0.298   1.650  13.700
59058SOL    HW279014   0.375   1.637  13.829
59059SOL     OW79015  11.381  10.102  12.883
59059SOL    HW179016  11.312  10.130  12.823
59059SOL    HW279017  11.396  10.178  12.940
59060SOL     OW79018   5.818   4.463   8.046
59060SOL    HW179019   5.795   4.372   8.063
59060SOL    HW279020   5.769   4.513   8.111
59061SOL     OW79021   8.555  11.119   2.427
59061SOL    HW179022   8.576  11.202   2.385
59061SOL    HW279023   8.463  11.104   2.406
59062SOL     OW79024  10.945   8.926  12.441
59062SOL    HW179025  10.963   8.936  12.348
59062SOL    HW279026  10.961   8.833  12.459
59063SOL     OW79027   7.821   5.491   5.450
59063SOL    HW179028   7.862   5.521   5.531
59063SOL    HW279029   7.862   5.544   5.382
59064SOL     OW79030  12.956  11.737   4.082
59064SOL    HW179031  13.034  11.759   4.133
59064SOL    HW279032  12.883  11.752   4.142
59065SOL     OW79033   4.736   0.200  14.678
59065SOL    HW179034   4.740   0.206  14.773
59065SOL    HW279035   4.828   0.198  14.650
59066SOL     OW79036   9.807   5.864  10.332
59066SOL    HW179037   9.835   5.939  10.279
59066SOL    HW279038   9.762   5.807  10.270
59067SOL     OW79039  10.600  11.881   9.307
59067SOL    HW179040  10.580  11.787   9.301
59067SOL    HW279041  10.555  11.910   9.386
59068SOL     OW79042  12.632   0.729  11.169
59068SOL    HW179043  12.589   0.809  11.139
59068SOL    HW279044  12.644   0.677  11.090
59069SOL     OW79045   5.540   8.831  14.809
59069SOL    HW179046   5.450   8.818  14.840
59069SOL    HW279047   5.568   8.913  14.850
59070SOL     OW79048  13.419  11.784  11.442
59070SOL    HW179049  13.388  11.701  11.479
59070SOL    HW279050  13.385  11.851  11.502
59071SOL     OW79051  13.961  14.798   6.178
59071SOL    HW179052  13.976  14.707   6.201
59071SOL    HW279053  14.033  14.820   6.118
59072SOL     OW79054  13.892  11.216   7.728
59072SOL    HW179055  13.824  11.243   7.789
59072SOL    HW279056  13.862  11.131   7.695
59073SOL     OW79057   3.700   6.226  14.179
59073SOL    HW179058   3.726   6.238  14.088
59073SOL    HW279059   3.781   6.203  14.225
59074SOL     OW79060   4.885   6.130   2.286
59074SOL    HW179061   4.961   6.088   2.326
59074SOL    HW279062   4.813   6.114   2.347
59075SOL     OW79063   0.231   5.952   1.198
59075SOL    HW179064   0.178   5.901   1.138
59075SOL    HW279065   0.200   6.042   1.187
59076SOL     OW79066  13.140   9.857  14.262
59076SOL    HW179067  13.121   9.764  14.253
59076SOL    HW279068  13.136   9.873  14.356
59077SOL     OW79069  10.931  10.066   6.512
59077SOL    HW179070  10.869  10.001   6.479
59077SOL    HW279071  10.916  10.143   6.457
59078SOL     OW79072   9.981   9.880  11.222
59078SOL    HW179073   9.930   9.839  11.292
59078SOL    HW279074   9.958   9.973  11.227
59079SOL     OW79075   8.892  13.653  14.344
59079SOL    HW179076   8.909  13.738  14.384
59079SOL    HW279077   8.797  13.651  14.332
59080SOL     OW79078  14.674   8.029   3.528
59080SOL    HW179079  14.668   7.949   3.581
59080SOL    HW279080  14.602   8.021   3.466
59081SOL     OW79081   4.467  12.889  10.796
59081SOL    HW179082   4.391  12.940  10.768
59081SOL    HW279083   4.430  12.813  10.840
59082SOL     OW79084  11.402   6.541   3.157
59082SOL    HW179085  11.430   6.531   3.248
59082SOL    HW279086  11.482   6.535   3.106
59083SOL     OW79087   6.370   3.324  14.536
59083SOL    HW179088   6.291   3.346  14.584
59083SOL    HW279089   6.397   3.238  14.570
59084SOL     OW79090   5.936   4.047  14.097
59084SOL    HW179091   6.022   4.006  14.100
59084SOL    HW279092   5.883   3.988  14.045
59085SOL     OW79093   1.793   4.852  14.391
59085SOL    HW179094   1.765   4.942  14.378
59085SOL    HW279095   1.711   4.803  14.404
59086SOL     OW79096   5.825   8.665  11.947
59086SOL    HW179097   5.835   8.589  12.004
59086SOL    HW279098   5.775   8.728  11.999
59087SOL     OW79099   6.441  13.877  14.665
59087SOL    HW179100   6.493  13.904  14.741
59087SOL    HW279101   6.430  13.783  14.676
59088SOL     OW79102   4.469   4.020   8.811
59088SOL    HW179103   4.542   3.966   8.842
59088SOL    HW279104   4.477   4.018   8.715
59089SOL     OW79105  13.644  13.734   0.795
59089SOL    HW179106  13.640  13.639   0.806
59089SOL    HW279107  13.714  13.762   0.854
59090SOL     OW79108   3.438  12.872   6.078
59090SOL    HW179109   3.496  12.822   6.020
59090SOL    HW279110   3.453  12.964   6.053
59091SOL     OW79111   6.809   9.436   2.779
59091SOL    HW179112   6.714   9.428   2.783
59091SOL    HW279113   6.842   9.356   2.821
59092SOL     OW79114   4.003  13.080   7.475
59092SOL    HW179115   4.051  13.134   7.412
59092SOL    HW279116   4.056  13.001   7.484
59093SOL     OW79117  13.661   3.600   1.773
59093SOL    HW179118  13.600   3.668   1.746
59093SOL    HW279119  13.714   3.641   1.842
59094SOL     OW79120   4.628  11.653   3.121
59094SOL    HW179121   4.607  11.597   3.046
59094SOL    HW279122   4.721  11.637   3.138
59095SOL     OW79123  13.262   0.149   4.960
59095SOL    HW179124  13.233   0.233   4.924
59095SOL    HW279125  13.183   0.096   4.963
59096SOL     OW79126   9.304   1.025  14.608
59096SOL    HW179127   9.274   0.967  14.678
59096SOL    HW279128   9.254   1.106  14.621
59097SOL     OW79129   6.054   0.736   2.424
59097SOL    HW179130   6.042   0.831   2.434
59097SOL    HW279131   6.137   0.718   2.468
59098SOL     OW79132   3.566   9.958   3.461
59098SOL    HW179133   3.585   9.867   3.482
59098SOL    HW279134   3.628  10.008   3.513
59099SOL     OW79135   4.085   2.230   2.321
59099SOL    HW179136   4.064   2.307   2.267
59099SOL    HW279137   4.058   2.155   2.267
59100SOL     OW79138   8.433   7.781   3.825
59100SOL    HW179139   8.503   7.838   3.857
59100SOL    HW279140   8.457   7.762   3.735
59101SOL     OW79141   0.701   3.909   9.799
59101SOL    HW179142   0.747   3.933   9.880
59101SOL    HW279143   0.766   3.922   9.730
59102SOL     OW79144   5.410  10.175   8.647
59102SOL    HW179145   5.416  10.269   8.631
59102SOL    HW279146   5.400  10.136   8.560
59103SOL     OW79147  11.310   5.587   7.719
59103SOL    HW179148  11.269   5.627   7.643
59103SOL    HW279149  11.240   5.577   7.783
59104SOL     OW79150   0.262   1.488  13.315
59104SOL    HW179151   0.299   1.419  13.258
59104SOL    HW279152   0.186   1.446  13.356
59105SOL     OW79153   3.830   1.470   7.082
59105SOL    HW179154   3.739   1.441   7.073
59105SOL    HW279155   3.825   1.565   7.075
59106SOL     OW79156   9.191  11.955  11.747
59106SOL    HW179157   9.233  11.954  11.661
59106SOL    HW279158   9.230  12.030  11.792
59107SOL     OW79159   3.778   2.074   8.862
59107SOL    HW179160   3.794   2.001   8.803
59107SOL    HW279161   3.695   2.112   8.833
59108SOL     OW79162   1.413   3.967   9.773
59108SOL    HW179163   1.401   3.959   9.868
59108SOL    HW279164   1.327   3.995   9.741
59109SOL     OW79165   3.467   7.101   0.427
59109SOL    HW179166   3.486   7.195   0.435
59109SOL    HW279167   3.537   7.068   0.370
59110SOL     OW79168   6.064   6.183   5.282
59110SOL    HW179169   6.126   6.134   5.335
59110SOL    HW279170   6.106   6.268   5.267
59111SOL     OW79171  13.176  14.245   0.942
59111SOL    HW179172  13.199  14.230   0.850
59111SOL    HW279173  13.219  14.175   0.990
59112SOL     OW79174  10.778   5.713   0.194
59112SOL    HW179175  10.816   5.779   0.252
59112SOL    HW279176  10.686   5.739   0.184
59113SOL     OW79177   3.315  13.153   2.929
59113SOL    HW179178   3.371  13.114   2.862
59113SOL    HW279179   3.267  13.079   2.966
59114SOL     OW79180   4.775   3.132   1.577
59114SOL    HW179181   4.816   3.216   1.594
59114SOL    HW279182   4.844   3.077   1.541
59115SOL     OW79183   0.283  11.506   3.422
59115SOL    HW179184   0.225  11.432   3.436
59115SOL    HW279185   0.283  11.519   3.327
59116SOL     OW79186   4.369   6.853  13.649
59116SOL    HW179187   4.326   6.807  13.578
59116SOL    HW279188   4.390   6.784  13.713
59117SOL     OW79189  11.214  12.809   9.481
59117SOL    HW179190  11.273  12.741   9.514
59117SOL    HW279191  11.271  12.884   9.465
59118SOL     OW79192   3.430   9.227  12.005
59118SOL    HW179193   3.463   9.308  11.967
59118SOL    HW279194   3.396   9.177  11.931
59119SOL     OW79195   5.488   6.028  12.917
59119SOL    HW179196   5.533   5.947  12.893
59119SOL    HW279197   5.460   6.015  13.007
59120SOL     OW79198   3.029   5.090   6.569
59120SOL    HW179199   2.965   5.023   6.544
59120SOL    HW279200   2.979   5.171   6.572
59121SOL     OW79201   2.864   9.013   3.863
59121SOL    HW179202   2.860   9.089   3.806
59121SOL    HW279203   2.788   8.960   3.837
59122SOL     OW79204   5.957   5.844   2.379
59122SOL    HW179205   5.885   5.811   2.433
59122SOL    HW279206   5.965   5.780   2.308
59123SOL     OW79207   5.856  12.273  13.719
59123SOL    HW179208   5.771  12.318  13.718
59123SOL    HW279209   5.872  12.254  13.811
59124SOL     OW79210   2.912   3.240   7.826
59124SOL    HW179211   2.851   3.167   7.820
59124SOL    HW279212   2.907   3.269   7.917
59125SOL     OW79213  12.138   8.501   9.140
59125SOL    HW179214  12.067   8.480   9.080
59125SOL    HW279215  12.211   8.525   9.083
59126SOL     OW79216  14.762  14.407  10.323
59126SOL    HW179217  14.826  14.337  10.333
59126SOL    HW279218  14.811  14.479  10.282
59127SOL     OW79219   5.934   9.477   5.365
59127SOL    HW179220   6.005   9.514   5.418
59127SOL    HW279221   5.939   9.383   5.380
59128SOL     OW79222   5.028   3.857   3.818
59128SOL    HW179223   4.996   3.784   3.871
59128SOL    HW279224   5.117   3.872   3.849
59129SOL     OW79225  14.463   9.739  13.232
59129SOL    HW179226  14.552   9.754  13.262
59129SOL    HW279227  14.418   9.700  13.307
59130SOL     OW79228   1.520   7.033   1.454
59130SOL    HW179229   1.489   7.118   1.422
59130SOL    HW279230   1.449   7.001   1.510
59131SOL     OW79231   3.294   6.088  13.123
59131SOL    HW179232   3.287   6.181  13.147
59131SOL    HW279233   3.304   6.042  13.206
59132SOL     OW79234   8.713   5.196   0.710
59132SOL    HW179235   8.728   5.135   0.782
59132SOL    HW279236   8.772   5.165   0.640
59133SOL     OW79237   8.258  14.383  12.767
59133SOL    HW179238   8.238  14.324  12.694
59133SOL    HW279239   8.332  14.340  12.812
59134SOL     OW79240   4.365   7.858  12.942
59134SOL    HW179241   4.289   7.800  12.949
59134SOL    HW279242   4.345   7.932  13.000
59135SOL     OW79243   0.408   2.283   8.676
59135SOL    HW179244   0.313   2.272   8.671
59135SOL    HW279245   0.440   2.248   8.593
59136SOL     OW79246   7.057   3.082   9.255
59136SOL    HW179247   7.033   3.057   9.344
59136SOL    HW279248   7.128   3.145   9.266
59137SOL     OW79249  12.939  12.520   7.492
59137SOL    HW179250  12.854  12.491   7.525
59137SOL    HW279251  12.918  12.589   7.429
59138SOL     OW79252   2.462  14.455   3.818
59138SOL    HW179253   2.435  14.368   3.846
59138SOL    HW279254   2.558  14.449   3.811
59139SOL     OW79255   9.796   9.743  11.368
59139SOL    HW179256   9.803   9.650  11.387
59139SOL    HW279257   9.762   9.746  11.278
59140SOL     OW79258   1.326   0.017   8.058
59140SOL    HW179259   1.409   0.063   8.044
59140SOL    HW279260   1.290   0.005   7.970
59141SOL     OW79261   4.086   1.841  12.610
59141SOL    HW179262   4.074   1.877  12.522
59141SOL    HW279263   4.103   1.917  12.665
59142SOL     OW79264  10.763   8.552  12.555
59142SOL    HW179265  10.778   8.599  12.637
59142SOL    HW279266  10.842   8.566  12.503
59143SOL     OW79267   9.971   4.125   4.663
59143SOL    HW179268  10.043   4.126   4.599
59143SOL    HW279269  10.012   4.097   4.745
59144SOL     OW79270   2.332  10.572  10.419
59144SOL    HW179271   2.322  10.528  10.503
59144SOL    HW279272   2.272  10.526  10.360
59145SOL     OW79273   5.940   2.386   9.805
59145SOL    HW179274   5.896   2.450   9.861
59145SOL    HW279275   6.014   2.434   9.768
59146SOL     OW79276   3.663   0.801   5.948
59146SOL    HW179277   3.612   0.788   6.028
59146SOL    HW279278   3.702   0.716   5.929
59147SOL     OW79279   9.223  10.711   9.014
59147SOL    HW179280   9.287  10.764   9.062
59147SOL    HW279281   9.262  10.624   9.008
59148SOL     OW79282   5.156  12.711  12.839
59148SOL    HW179283   5.155  12.751  12.752
59148SOL    HW279284   5.238  12.663  12.843
59149SOL     OW79285   3.576   5.788  11.796
59149SOL    HW179286   3.559   5.864  11.741
59149SOL    HW279287   3.501   5.730  11.782
59150SOL     OW79288  12.572   9.797   0.123
59150SOL    HW179289  12.597   9.827   0.210
59150SOL    HW279290  12.635   9.728   0.102
59151SOL     OW79291   2.196  14.796  10.513
59151SOL    HW179292   2.177  14.794  10.420
59151SOL    HW279293   2.219  14.706  10.535
59152SOL     OW79294  11.827   8.820  10.660
59152SOL    HW179295  11.766   8.861  10.599
59152SOL    HW279296  11.863   8.745  10.612
59153SOL     OW79297   5.795   7.235  12.504
59153SOL    HW179298   5.774   7.156  12.554
59153SOL    HW279299   5.891   7.241  12.510
59154SOL     OW79300  11.909  10.463  12.015
59154SOL    HW179301  11.830  10.410  12.022
59154SOL    HW279302  11.977  10.410  12.057
59155SOL     OW79303  11.952   2.066   8.377
59155SOL    HW179304  11.929   2.005   8.307
59155SOL    HW279305  11.938   2.153   8.338
59156SOL     OW79306   2.902   5.500   8.152
59156SOL    HW179307   2.956   5.565   8.108
59156SOL    HW279308   2.852   5.550   8.217
59157SOL     OW79309  14.221  13.185   0.421
59157SOL    HW179310  14.286  13.114   0.423
59157SOL    HW279311  14.196  13.196   0.513
59158SOL     OW79312  12.465  10.363   7.057
59158SOL    HW179313  12.420  10.358   7.141
59158SOL    HW279314  12.435  10.444   7.017
59159SOL     OW79315  11.182  12.074   0.084
59159SOL    HW179316  11.189  12.105   0.174
59159SOL    HW279317  11.137  11.989   0.092
59160SOL     OW79318  14.017  14.821  14.067
59160SOL    HW179319  13.963  14.811  13.989
59160SOL    HW279320  14.102  14.783  14.042
59161SOL     OW79321   0.049   4.300   1.860
59161SOL    HW179322   0.050   4.297   1.955
59161SOL    HW279323   0.105   4.227   1.833
59162SOL     OW79324   0.412  11.879  12.179
59162SOL    HW179325   0.479  11.927  12.131
59162SOL    HW279326   0.338  11.874  12.118
59163SOL     OW79327  11.437   7.387  10.289
59163SOL    HW179328  11.493   7.423  10.358
59163SOL    HW279329  11.433   7.293  10.307
59164SOL     OW79330  12.599   1.924   3.823
59164SOL    HW179331  12.527   1.898   3.881
59164SOL    HW279332  12.557   1.936   3.738
59165SOL     OW79333   4.575   9.699  12.726
59165SOL    HW179334   4.644   9.688  12.661
59165SOL    HW279335   4.560   9.793  12.730
59166SOL     OW79336  14.669  11.265   0.360
59166SOL    HW179337  14.646  11.200   0.426
59166SOL    HW279338  14.674  11.216   0.278
59167SOL     OW79339   2.730   9.025   4.255
59167SOL    HW179340   2.762   9.103   4.209
59167SOL    HW279341   2.790   9.014   4.328
59168SOL     OW79342   0.645   0.232   7.270
59168SOL    HW179343   0.551   0.236   7.251
59168SOL    HW279344   0.650   0.184   7.353
59169SOL     OW79345   3.745  14.554   4.368
59169SOL    HW179346   3.719  14.495   4.439
59169SOL    HW279347   3.793  14.625   4.412
59170SOL     OW79348   8.092   9.021   6.003
59170SOL    HW179349   8.046   8.976   5.932
59170SOL    HW279350   8.134   8.950   6.052
59171SOL     OW79351  10.495  10.393   3.557
59171SOL    HW179352  10.508  10.309   3.602
59171SOL    HW279353  10.456  10.368   3.473
59172SOL     OW79354   4.913  13.951   4.077
59172SOL    HW179355   4.895  13.970   3.985
59172SOL    HW279356   4.933  13.857   4.078
59173SOL     OW79357  10.971   1.316   2.082
59173SOL    HW179358  11.008   1.341   1.997
59173SOL    HW279359  11.048   1.298   2.137
59174SOL     OW79360   9.580   2.258   1.566
59174SOL    HW179361   9.638   2.226   1.497
59174SOL    HW279362   9.619   2.342   1.593
59175SOL     OW79363   9.313  11.338   6.460
59175SOL    HW179364   9.331  11.270   6.396
59175SOL    HW279365   9.258  11.295   6.526
59176SOL     OW79366   6.061  10.965  12.282
59176SOL    HW179367   6.034  10.953  12.191
59176SOL    HW279368   6.142  10.914  12.289
59177SOL     OW79369  11.825   0.718   5.962
59177SOL    HW179370  11.841   0.733   5.868
59177SOL    HW279371  11.777   0.795   5.991
59178SOL     OW79372   4.267  13.280   9.060
59178SOL    HW179373   4.254  13.228   9.139
59178SOL    HW279374   4.358  13.309   9.064
59179SOL     OW79375   8.752   2.492  10.878
59179SOL    HW179376   8.742   2.450  10.792
59179SOL    HW279377   8.703   2.574  10.870
59180SOL     OW79378   7.882   4.556   6.232
59180SOL    HW179379   7.799   4.600   6.217
59180SOL    HW279380   7.882   4.534   6.325
59181SOL     OW79381   6.130  10.959   0.274
59181SOL    HW179382   6.105  10.873   0.308
59181SOL    HW279383   6.054  11.015   0.290
59182SOL     OW79384   8.225  13.398   2.344
59182SOL    HW179385   8.275  13.319   2.323
59182SOL    HW279386   8.136  13.378   2.316
59183SOL     OW79387   1.350   3.039  12.969
59183SOL    HW179388   1.398   3.056  13.050
59183SOL    HW279389   1.290   2.968  12.991
59184SOL     OW79390   5.075  10.854  12.309
59184SOL    HW179391   5.159  10.810  12.322
59184SOL    HW279392   5.015  10.785  12.282
59185SOL     OW79393   7.441   7.966   2.066
59185SOL    HW179394   7.469   7.879   2.095
59185SOL    HW279395   7.499   7.987   1.994
59186SOL     OW79396   6.627  12.281  13.657
59186SOL    HW179397   6.580  12.287  13.574
59186SOL    HW279398   6.570  12.228  13.713
59187SOL     OW79399  14.295   2.046   5.792
59187SOL    HW179400  14.320   2.126   5.839
59187SOL    HW279401  14.342   1.977   5.838
59188SOL     OW79402   1.440   8.352  11.380
59188SOL    HW179403   1.515   8.335  11.436
59188SOL    HW279404   1.467   8.319  11.294
59189SOL     OW79405  14.621  14.369   3.431
59189SOL    HW179406  14.642  14.394   3.521
59189SOL    HW279407  14.554  14.302   3.440
59190SOL     OW79408   3.149  10.159  13.909
59190SOL    HW179409   3.168  10.066  13.897
59190SOL    HW279410   3.193  10.181  13.991
59191SOL     OW79411   0.791   2.694   4.118
59191SOL    HW179412   0.741   2.708   4.038
59191SOL    HW279413   0.742   2.739   4.186
59192SOL     OW79414   7.616  12.691   4.252
59192SOL    HW179415   7.587  12.718   4.165
59192SOL    HW279416   7.575  12.606   4.265
59193SOL     OW79417   7.548  10.515  14.229
59193SOL    HW179418   7.596  10.507  14.147
59193SOL    HW279419   7.467  10.561  14.205
59194SOL     OW79420   7.431   8.497   6.715
59194SOL    HW179421   7.365   8.567   6.705
59194SOL    HW279422   7.433   8.479   6.809
59195SOL     OW79423   8.853  13.996   5.698
59195SOL    HW179424   8.874  14.025   5.609
59195SOL    HW279425   8.763  13.964   5.691
59196SOL     OW79426   7.759  14.856  13.824
59196SOL    HW179427   7.692  14.862  13.755
59196SOL    HW279428   7.804  14.774  13.805
59197SOL     OW79429   6.962   8.289   5.233
59197SOL    HW179430   6.902   8.351   5.273
59197SOL    HW279431   7.035   8.283   5.295
59198SOL     OW79432   3.723  14.169  13.579
59198SOL    HW179433   3.700  14.128  13.495
59198SOL    HW279434   3.817  14.185  13.573
59199SOL     OW79435   4.094  13.693  13.970
59199SOL    HW179436   4.153  13.629  14.010
59199SOL    HW279437   4.060  13.744  14.043
59200SOL     OW79438  12.079  11.480  14.449
59200SOL    HW179439  12.042  11.529  14.376
59200SOL    HW279440  12.123  11.405  14.408
59201SOL     OW79441  11.647  12.568  14.541
59201SOL    HW179442  11.618  12.502  14.604
59201SOL    HW279443  11.602  12.648  14.569
59202SOL     OW79444  13.780  11.294  12.352
59202SOL    HW179445  13.698  11.255  12.383
59202SOL    HW279446  13.825  11.221  12.309
59203SOL     OW79447  14.356   1.843  11.577
59203SOL    HW179448  14.410   1.826  11.654
59203SOL    HW279449  14.411   1.820  11.503
59204SOL     OW79450   0.863   0.969   8.119
59204SOL    HW179451   0.814   0.962   8.036
59204SOL    HW279452   0.796   0.991   8.184
59205SOL     OW79453  14.080   2.051   7.521
59205SOL    HW179454  14.005   2.109   7.520
59205SOL    HW279455  14.108   2.046   7.430
59206SOL     OW79456  10.843   4.208  11.061
59206SOL    HW179457  10.846   4.126  11.111
59206SOL    HW279458  10.898   4.269  11.110
59207SOL     OW79459   1.606  11.402   4.798
59207SOL    HW179460   1.594  11.448   4.715
59207SOL    HW279461   1.606  11.471   4.865
59208SOL     OW79462   5.412   9.668  10.014
59208SOL    HW179463   5.405   9.620   9.932
59208SOL    HW279464   5.372   9.610  10.079
59209SOL     OW79465  12.747  11.485  13.314
59209SOL    HW179466  12.657  11.455  13.329
59209SOL    HW279467  12.756  11.484  13.218
59210SOL     OW79468   0.900   2.773   7.838
59210SOL    HW179469   0.843   2.778   7.915
59210SOL    HW279470   0.940   2.859   7.832
59211SOL     OW79471   4.244   8.801  14.382
59211SOL    HW179472   4.213   8.718  14.346
59211SOL    HW279473   4.181   8.821  14.451
59212SOL     OW79474   7.206  12.318   3.973
59212SOL    HW179475   7.239  12.267   4.047
59212SOL    HW279476   7.152  12.386   4.012
59213SOL     OW79477   9.661   6.214   2.733
59213SOL    HW179478   9.727   6.284   2.730
59213SOL    HW279479   9.672   6.167   2.651
59214SOL     OW79480   0.920   6.919   2.248
59214SOL    HW179481   0.860   6.988   2.222
59214SOL    HW279482   0.998   6.965   2.279
59215SOL     OW79483  12.842   4.324  12.155
59215SOL    HW179484  12.803   4.394  12.101
59215SOL    HW279485  12.783   4.250  12.143
59216SOL     OW79486  11.900   7.479   7.258
59216SOL    HW179487  11.932   7.508   7.343
59216SOL    HW279488  11.806   7.468   7.270
59217SOL     OW79489   3.864   8.847  10.594
59217SOL    HW179490   3.802   8.894  10.649
59217SOL    HW279491   3.823   8.762  10.577
59218SOL     OW79492   2.296  12.002  10.369
59218SOL    HW179493   2.270  11.929  10.314
59218SOL    HW279494   2.341  11.961  10.444
59219SOL     OW79495  12.569  12.413  10.274
59219SOL    HW179496  12.603  12.364  10.349
59219SOL    HW279497  12.534  12.345  10.216
59220SOL     OW79498   4.427  11.120  10.479
59220SOL    HW179499   4.476  11.048  10.440
59220SOL    HW279500   4.368  11.077  10.542
59221SOL     OW79501   7.724  13.035   9.773
59221SOL    HW179502   7.639  13.068   9.742
59221SOL    HW279503   7.782  13.042   9.697
59222SOL     OW79504   3.294  12.315   4.645
59222SOL    HW179505   3.236  12.358   4.707
59222SOL    HW279506   3.265  12.346   4.559
59223SOL     OW79507   0.554   3.921  14.566
59223SOL    HW179508   0.494   3.955  14.499
59223SOL    HW279509   0.626   3.883  14.515
59224SOL     OW79510  12.503   6.313  10.727
59224SOL    HW179511  12.473   6.395  10.687
59224SOL    HW279512  12.581   6.289  10.677
59225SOL     OW79513   6.084   4.858  14.258
59225SOL    HW179514   6.179   4.874  14.255
59225SOL    HW279515   6.067   4.800  14.184
59226SOL     OW79516   4.851   4.766   4.216
59226SOL    HW179517   4.802   4.799   4.291
59226SOL    HW279518   4.819   4.676   4.204
59227SOL     OW79519   2.279   3.219   2.957
59227SOL    HW179520   2.241   3.306   2.951
59227SOL    HW279521   2.248   3.173   2.879
59228SOL     OW79522  10.321   7.764  13.339
59228SOL    HW179523  10.298   7.802  13.254
59228SOL    HW279524  10.402   7.717  13.323
59229SOL     OW79525   9.828   3.204   9.149
59229SOL    HW179526   9.822   3.229   9.241
59229SOL    HW279527   9.824   3.108   9.150
59230SOL     OW79528   2.718   1.519   9.871
59230SOL    HW179529   2.630   1.483   9.856
59230SOL    HW279530   2.720   1.538   9.965
59231SOL     OW79531  14.013   8.386  14.611
59231SOL    HW179532  14.081   8.359  14.673
59231SOL    HW279533  13.931   8.371  14.657
59232SOL     OW79534   8.784   0.453   9.681
59232SOL    HW179535   8.824   0.488   9.760
59232SOL    HW279536   8.821   0.505   9.610
59233SOL     OW79537   4.862  10.756   5.649
59233SOL    HW179538   4.934  10.699   5.676
59233SOL    HW279539   4.798  10.697   5.609
59234SOL     OW79540   7.715  13.299   1.096
59234SOL    HW179541   7.772  13.326   1.025
59234SOL    HW279542   7.635  13.268   1.053
59235SOL     OW79543  10.500   3.677  13.748
59235SOL    HW179544  10.443   3.608  13.713
59235SOL    HW279545  10.588   3.641  13.741
59236SOL     OW79546   8.220  12.733   5.983
59236SOL    HW179547   8.305  12.769   6.008
59236SOL    HW279548   8.177  12.713   6.066
59237SOL     OW79549   5.562   4.462   7.225
59237SOL    HW179550   5.503   4.392   7.198
59237SOL    HW279551   5.621   4.420   7.289
59238SOL     OW79552  14.111   4.294  14.312
59238SOL    HW179553  14.028   4.264  14.348
59238SOL    HW279554  14.177   4.235  14.349
59239SOL     OW79555   8.081   3.720   3.509
59239SOL    HW179556   8.105   3.692   3.421
59239SOL    HW279557   8.161   3.705   3.561
59240SOL     OW79558   8.548   1.233   2.105
59240SOL    HW179559   8.643   1.220   2.096
59240SOL    HW279560   8.534   1.241   2.199
59241SOL     OW79561   0.348   5.856   0.467
59241SOL    HW179562   0.345   5.951   0.475
59241SOL    HW279563   0.411   5.828   0.533
59242SOL     OW79564   2.954   8.701   5.569
59242SOL    HW179565   2.905   8.624   5.542
59242SOL    HW279566   2.972   8.687   5.662
59243SOL     OW79567   7.545   9.285   5.980
59243SOL    HW179568   7.626   9.268   6.029
59243SOL    HW279569   7.562   9.254   5.892
59244SOL     OW79570   0.041   5.351   3.710
59244SOL    HW179571   0.047   5.259   3.684
59244SOL    HW279572   0.008   5.396   3.633
59245SOL     OW79573   4.971   3.391   6.687
59245SOL    HW179574   4.983   3.456   6.618
59245SOL    HW279575   4.911   3.327   6.649
59246SOL     OW79576  10.167   3.844   7.023
59246SOL    HW179577  10.076   3.816   7.030
59246SOL    HW279578  10.186   3.885   7.108
59247SOL     OW79579   3.565   2.127   8.706
59247SOL    HW179580   3.546   2.034   8.715
59247SOL    HW279581   3.574   2.141   8.611
59248SOL     OW79582   7.285   7.355  12.838
59248SOL    HW179583   7.273   7.439  12.792
59248SOL    HW279584   7.338   7.302  12.778
59249SOL     OW79585   1.489  12.443   6.079
59249SOL    HW179586   1.457  12.393   6.154
59249SOL    HW279587   1.433  12.416   6.006
59250SOL     OW79588   0.489   0.302   2.390
59250SOL    HW179589   0.546   0.336   2.458
59250SOL    HW279590   0.528   0.220   2.363
59251SOL     OW79591   2.540   0.466  10.816
59251SOL    HW179592   2.603   0.415  10.868
59251SOL    HW279593   2.579   0.469  10.729
59252SOL     OW79594   9.818   5.142   5.919
59252SOL    HW179595   9.787   5.222   5.962
59252SOL    HW279596   9.751   5.076   5.939
59253SOL     OW79597  13.562   8.287  14.652
59253SOL    HW179598  13.600   8.264  14.567
59253SOL    HW279599  13.516   8.207  14.679
59254SOL     OW79600   5.959   3.678   1.081
59254SOL    HW179601   5.997   3.751   1.132
59254SOL    HW279602   6.010   3.602   1.107
59255SOL     OW79603   8.925  10.023   0.974
59255SOL    HW179604   8.913  10.116   0.996
59255SOL    HW279605   8.839   9.984   0.990
59256SOL     OW79606   5.550   7.559   2.302
59256SOL    HW179607   5.595   7.478   2.327
59256SOL    HW279608   5.590   7.627   2.356
59257SOL     OW79609  11.331   3.785   8.221
59257SOL    HW179610  11.408   3.730   8.206
59257SOL    HW279611  11.257   3.727   8.206
59258SOL     OW79612  13.506  11.699   9.957
59258SOL    HW179613  13.430  11.641   9.964
59258SOL    HW279614  13.494  11.745   9.874
59259SOL     OW79615  11.039  11.326   4.883
59259SOL    HW179616  11.043  11.350   4.791
59259SOL    HW279617  10.948  11.337   4.908
59260SOL     OW79618  12.350   6.599   3.363
59260SOL    HW179619  12.313   6.687   3.357
59260SOL    HW279620  12.428   6.603   3.307
59261SOL     OW79621   2.162   3.169   4.293
59261SOL    HW179622   2.111   3.227   4.236
59261SOL    HW279623   2.218   3.229   4.342
59262SOL     OW79624   2.771  13.854   5.720
59262SOL    HW179625   2.709  13.927   5.721
59262SOL    HW279626   2.794  13.842   5.628
59263SOL     OW79627   1.436   7.769  13.239
59263SOL    HW179628   1.483   7.744  13.317
59263SOL    HW279629   1.448   7.696  13.178
59264SOL     OW79630   7.190   9.595   2.233
59264SOL    HW179631   7.260   9.540   2.198
59264SOL    HW279632   7.204   9.680   2.192
59265SOL     OW79633   0.474   0.362  14.782
59265SOL    HW179634   0.513   0.288  14.736
59265SOL    HW279635   0.480   0.435  14.720
59266SOL     OW79636  13.839   2.581  12.086
59266SOL    HW179637  13.817   2.515  12.152
59266SOL    HW279638  13.935   2.580  12.084
59267SOL     OW79639   5.320   5.185   0.740
59267SOL    HW179640   5.358   5.131   0.671
59267SOL    HW279641   5.280   5.123   0.801
59268SOL     OW79642   8.653   4.956   3.159
59268SOL    HW179643   8.564   4.978   3.131
59268SOL    HW279644   8.640   4.896   3.233
59269SOL     OW79645  12.656  14.041   4.755
59269SOL    HW179646  12.620  13.969   4.805
59269SOL    HW279647  12.745  14.051   4.788
59270SOL     OW79648  12.282   3.369   6.461
59270SOL    HW179649  12.204   3.317   6.439
59270SOL    HW279650  12.326   3.382   6.377
59271SOL     OW79651  12.864   2.636  12.139
59271SOL    HW179652  12.837   2.555  12.095
59271SOL    HW279653  12.952   2.617  12.172
59272SOL     OW79654  12.313   5.654   7.883
59272SOL    HW179655  12.239   5.653   7.822
59272SOL    HW279656  12.276   5.622   7.966
59273SOL     OW79657   0.588  11.270   8.082
59273SOL    HW179658   0.574  11.326   8.158
59273SOL    HW279659   0.502  11.235   8.061
59274SOL     OW79660   9.208  12.273   8.498
59274SOL    HW179661   9.117  12.261   8.526
59274SOL    HW279662   9.259  12.242   8.573
59275SOL     OW79663   8.508   1.522  10.289
59275SOL    HW179664   8.423   1.525  10.245
59275SOL    HW279665   8.488   1.533  10.382
59276SOL     OW79666  10.212   4.973  10.773
59276SOL    HW179667  10.296   4.942  10.739
59276SOL    HW279668  10.236   5.046  10.830
59277SOL     OW79669  11.277   7.676   3.288
59277SOL    HW179670  11.360   7.632   3.306
59277SOL    HW279671  11.273   7.682   3.192
59278SOL     OW79672   3.065   7.040   2.703
59278SOL    HW179673   3.076   7.099   2.777
59278SOL    HW279674   3.152   7.003   2.688
59279SOL     OW79675   6.036   8.732   7.388
59279SOL    HW179676   6.112   8.724   7.330
59279SOL    HW279677   6.001   8.643   7.394
59280SOL     OW79678  10.107  10.435   9.066
59280SOL    HW179679  10.065  10.521   9.069
59280SOL    HW279680  10.127  10.416   9.158
59281SOL     OW79681  13.692  14.026   7.935
59281SOL    HW179682  13.653  14.114   7.936
59281SOL    HW279683  13.753  14.027   8.009
59282SOL     OW79684   5.062  14.406   4.987
59282SOL    HW179685   5.062  14.481   5.047
59282SOL    HW279686   5.142  14.418   4.935
59283SOL     OW79687  13.761   9.758   8.673
59283SOL    HW179688  13.721   9.671   8.680
59283SOL    HW279689  13.784   9.766   8.580
59284SOL     OW79690  14.570  11.709   0.949
59284SOL    HW179691  14.518  11.727   1.027
59284SOL    HW279692  14.551  11.781   0.889
59285SOL     OW79693   4.040   5.988  12.081
59285SOL    HW179694   4.056   5.950  11.995
59285SOL    HW279695   4.032   5.913  12.140
59286SOL     OW79696  10.617  14.196   4.275
59286SOL    HW179697  10.658  14.142   4.207
59286SOL    HW279698  10.689  14.224   4.330
59287SOL     OW79699  12.066   9.394   5.247
59287SOL    HW179700  12.037   9.482   5.226
59287SOL    HW279701  12.053   9.386   5.341
59288SOL     OW79702  12.703   3.927  11.151
59288SOL    HW179703  12.778   3.947  11.094
59288SOL    HW279704  12.720   3.839  11.184
59289SOL     OW79705   0.869   2.958   9.404
59289SOL    HW179706   0.823   3.042   9.404
59289SOL    HW279707   0.949   2.974   9.355
59290SOL     OW79708  10.164   4.273   0.074
59290SOL    HW179709  10.162   4.182   0.042
59290SOL    HW279710  10.120   4.269   0.159
59291SOL     OW79711  14.543  13.834   9.411
59291SOL    HW179712  14.604  13.852   9.483
59291SOL    HW279713  14.586  13.765   9.360
59292SOL     OW79714   9.932   5.925   9.423
59292SOL    HW179715   9.944   5.972   9.341
59292SOL    HW279716  10.001   5.959   9.480
59293SOL     OW79717  10.044   9.985   2.725
59293SOL    HW179718  10.054   9.928   2.801
59293SOL    HW279719   9.967   9.953   2.680
59294SOL     OW79720  10.193   3.204  12.157
59294SOL    HW179721  10.238   3.135  12.108
59294SOL    HW279722  10.150   3.158  12.230
59295SOL     OW79723  10.336  10.706   4.348
59295SOL    HW179724  10.286  10.625   4.337
59295SOL    HW279725  10.408  10.682   4.407
59296SOL     OW79726  10.853   5.588   5.418
59296SOL    HW179727  10.769   5.581   5.373
59296SOL    HW279728  10.831   5.606   5.509
59297SOL     OW79729  12.378   8.916  11.883
59297SOL    HW179730  12.378   8.952  11.971
59297SOL    HW279731  12.462   8.870  11.875
59298SOL     OW79732   4.744   7.384  11.270
59298SOL    HW179733   4.791   7.415  11.348
59298SOL    HW279734   4.689   7.313  11.302
59299SOL     OW79735   3.597  11.734   4.188
59299SOL    HW179736   3.537  11.747   4.114
59299SOL    HW279737   3.684  11.730   4.148
59300SOL     OW79738  11.902   9.959  11.972
59300SOL    HW179739  11.934   9.972  11.883
59300SOL    HW279740  11.888   9.864  11.979
59301SOL     OW79741  12.166  11.581  10.998
59301SOL    HW179742  12.257  11.593  10.971
59301SOL    HW279743  12.168  11.509  11.060
59302SOL     OW79744  14.453   2.591  12.983
59302SOL    HW179745  14.531   2.548  13.018
59302SOL    HW279746  14.483   2.679  12.959
59303SOL     OW79747  13.265   5.304   2.803
59303SOL    HW179748  13.333   5.326   2.739
59303SOL    HW279749  13.290   5.354   2.881
59304SOL     OW79750  13.434   6.123   2.770
59304SOL    HW179751  13.371   6.136   2.840
59304SOL    HW279752  13.406   6.043   2.726
59305SOL     OW79753   9.333   2.611   7.475
59305SOL    HW179754   9.296   2.600   7.563
59305SOL    HW279755   9.414   2.560   7.477
59306SOL     OW79756  11.315   9.639  11.102
59306SOL    HW179757  11.346   9.715  11.151
59306SOL    HW279758  11.244   9.604  11.156
59307SOL     OW79759   1.422   3.918   6.358
59307SOL    HW179760   1.333   3.943   6.336
59307SOL    HW279761   1.475   3.996   6.338
59308SOL     OW79762   0.646   6.279   0.414
59308SOL    HW179763   0.725   6.294   0.362
59308SOL    HW279764   0.590   6.226   0.357
59309SOL     OW79765   4.750   6.299   1.946
59309SOL    HW179766   4.672   6.255   1.912
59309SOL    HW279767   4.821   6.238   1.929
59310SOL     OW79768  13.371  14.870  13.064
59310SOL    HW179769  13.323   0.021  13.143
59310SOL    HW279770  13.462   0.018  13.084
59311SOL     OW79771   8.764   9.879   7.801
59311SOL    HW179772   8.829   9.870   7.872
59311SOL    HW279773   8.728   9.967   7.814
59312SOL     OW79774   9.843   3.828  12.456
59312SOL    HW179775   9.815   3.853  12.368
59312SOL    HW279776   9.763   3.827  12.508
59313SOL     OW79777  14.679  10.651  11.996
59313SOL    HW179778  14.657  10.595  11.921
59313SOL    HW279779  14.673  10.592  12.071
59314SOL     OW79780  12.221   9.131   4.429
59314SOL    HW179781  12.212   9.095   4.518
59314SOL    HW279782  12.150   9.090   4.380
59315SOL     OW79783   5.089   3.447   8.135
59315SOL    HW179784   5.129   3.468   8.220
59315SOL    HW279785   4.998   3.426   8.156
59316SOL     OW79786   6.275   9.937   7.418
59316SOL    HW179787   6.355   9.964   7.464
59316SOL    HW279788   6.242   9.863   7.468
59317SOL     OW79789   7.939   2.744   6.970
59317SOL    HW179790   7.982   2.709   6.892
59317SOL    HW279791   7.849   2.760   6.942
59318SOL     OW79792   9.324   8.306   7.726
59318SOL    HW179793   9.241   8.351   7.709
59318SOL    HW279794   9.377   8.371   7.772
59319SOL     OW79795   5.243   7.975   6.095
59319SOL    HW179796   5.327   7.986   6.140
59319SOL    HW279797   5.262   7.917   6.022
59320SOL     OW79798  12.907   5.768  10.837
59320SOL    HW179799  12.836   5.800  10.781
59320SOL    HW279800  12.967   5.724  10.776
59321SOL     OW79801   4.770   7.058  12.437
59321SOL    HW179802   4.851   7.029  12.395
59321SOL    HW279803   4.700   7.013  12.391
59322SOL     OW79804   0.832  10.390   8.599
59322SOL    HW179805   0.744  10.375   8.635
59322SOL    HW279806   0.822  10.376   8.505
59323SOL     OW79807  14.694  13.418  10.471
59323SOL    HW179808  14.710  13.509  10.499
59323SOL    HW279809  14.614  13.424  10.418
59324SOL     OW79810  12.425   6.879   2.270
59324SOL    HW179811  12.482   6.891   2.346
59324SOL    HW279812  12.416   6.966   2.232
59325SOL     OW79813   3.099   0.658   0.128
59325SOL    HW179814   3.162   0.704   0.183
59325SOL    HW279815   3.073   0.582   0.180
59326SOL     OW79816  11.078  14.212   2.973
59326SOL    HW179817  11.095  14.139   3.032
59326SOL    HW279818  11.126  14.286   3.011
59327SOL     OW79819   1.287  11.666   0.562
59327SOL    HW179820   1.350  11.647   0.631
59327SOL    HW279821   1.202  11.642   0.599
59328SOL     OW79822  12.889  11.921   2.769
59328SOL    HW179823  12.806  11.884   2.799
59328SOL    HW279824  12.950  11.847   2.770
59329SOL     OW79825   4.670  14.272  14.172
59329SOL    HW179826   4.667  14.191  14.223
59329SOL    HW279827   4.611  14.256  14.099
59330SOL     OW79828  13.940  13.652  10.301
59330SOL    HW179829  14.008  13.663  10.367
59330SOL    HW279830  13.940  13.733  10.251
59331SOL     OW79831   6.408  10.022  12.609
59331SOL    HW179832   6.490  10.065  12.631
59331SOL    HW279833   6.340  10.082  12.642
59332SOL     OW79834  10.742   1.078  14.850
59332SOL    HW179835  10.709   1.167  14.861
59332SOL    HW279836  10.678   1.024   0.023
59333SOL     OW79837  14.658  13.617   4.470
59333SOL    HW179838  14.663  13.697   4.418
59333SOL    HW279839  14.749  13.591   4.483
59334SOL     OW79840   3.815   8.461   0.322
59334SOL    HW179841   3.867   8.399   0.373
59334SOL    HW279842   3.772   8.516   0.388
59335SOL     OW79843   7.844  10.974  12.169
59335SOL    HW179844   7.892  10.924  12.103
59335SOL    HW279845   7.845  10.919  12.247
59336SOL     OW79846   9.877   6.575  14.298
59336SOL    HW179847   9.847   6.584  14.388
59336SOL    HW279848   9.818   6.511  14.259
59337SOL     OW79849   8.055  11.085  14.744
59337SOL    HW179850   8.098  11.099  14.828
59337SOL    HW279851   8.065  10.991  14.728
59338SOL     OW79852   7.921   3.180   3.502
59338SOL    HW179853   7.864   3.202   3.428
59338SOL    HW279854   7.968   3.261   3.521
59339SOL     OW79855   6.408  10.826   7.049
59339SOL    HW179856   6.332  10.826   6.991
59339SOL    HW279857   6.393  10.753   7.109
59340SOL     OW79858   4.055   6.845   6.825
59340SOL    HW179859   3.962   6.866   6.836
59340SOL    HW279860   4.058   6.749   6.820
59341SOL     OW79861  11.439   2.044   2.037
59341SOL    HW179862  11.393   1.981   1.982
59341SOL    HW279863  11.424   2.013   2.127
59342SOL     OW79864   6.283  10.622   4.978
59342SOL    HW179865   6.370  10.658   4.991
59342SOL    HW279866   6.283  10.539   5.024
59343SOL     OW79867  13.030  11.085   5.615
59343SOL    HW179868  13.051  11.159   5.673
59343SOL    HW279869  13.114  11.042   5.600
59344SOL     OW79870   4.017   8.347  12.428
59344SOL    HW179871   3.948   8.401  12.391
59344SOL    HW279872   3.974   8.294  12.495
59345SOL     OW79873   2.505   0.697  10.167
59345SOL    HW179874   2.453   0.744  10.102
59345SOL    HW279875   2.586   0.675  10.123
59346SOL     OW79876   9.336   4.642   2.235
59346SOL    HW179877   9.424   4.644   2.200
59346SOL    HW279878   9.346   4.668   2.327
59347SOL     OW79879  12.657   7.111   4.979
59347SOL    HW179880  12.745   7.106   4.942
59347SOL    HW279881  12.670   7.149   5.066
59348SOL     OW79882   9.034  13.616  14.669
59348SOL    HW179883   9.122  13.654  14.675
59348SOL    HW279884   9.048  13.532  14.625
59349SOL     OW79885   2.984   3.028   6.192
59349SOL    HW179886   2.965   3.051   6.101
59349SOL    HW279887   2.927   2.953   6.210
59350SOL     OW79888   2.745   7.236   3.621
59350SOL    HW179889   2.819   7.178   3.635
59350SOL    HW279890   2.685   7.186   3.566
59351SOL     OW79891   5.699   3.422   6.476
59351SOL    HW179892   5.755   3.429   6.399
59351SOL    HW279893   5.686   3.328   6.488
59352SOL     OW79894  10.301  10.641   2.986
59352SOL    HW179895  10.308  10.556   2.944
59352SOL    HW279896  10.319  10.625   3.079
59353SOL     OW79897  10.062   7.436  13.708
59353SOL    HW179898  10.030   7.381  13.780
59353SOL    HW279899  10.025   7.522  13.726
59354SOL     OW79900  14.182  12.801  14.432
59354SOL    HW179901  14.262  12.845  14.462
59354SOL    HW279902  14.196  12.787  14.338
59355SOL     OW79903   8.125  13.101  13.546
59355SOL    HW179904   8.112  13.009  13.569
59355SOL    HW279905   8.220  13.111  13.537
59356SOL     OW79906  10.596   7.733   8.307
59356SOL    HW179907  10.666   7.667   8.304
59356SOL    HW279908  10.612   7.789   8.232
59357SOL     OW79909   8.734  11.301  12.231
59357SOL    HW179910   8.813  11.313  12.179
59357SOL    HW279911   8.664  11.293  12.166
59358SOL     OW79912  12.402   5.109   5.794
59358SOL    HW179913  12.387   5.203   5.790
59358SOL    HW279914  12.379   5.084   5.884
59359SOL     OW79915   5.814   1.914   0.099
59359SOL    HW179916   5.727   1.882   0.075
59359SOL    HW279917   5.840   1.859   0.173
59360SOL     OW79918   4.113  10.387   1.522
59360SOL    HW179919   4.091  10.480   1.527
59360SOL    HW279920   4.031  10.342   1.542
59361SOL     OW79921   7.850  11.875  14.586
59361SOL    HW179922   7.841  11.939  14.656
59361SOL    HW279923   7.886  11.797  14.629
59362SOL     OW79924   9.347  14.361  11.073
59362SOL    HW179925   9.378  14.407  10.995
59362SOL    HW279926   9.398  14.398  11.144
59363SOL     OW79927  13.286   8.522   1.897
59363SOL    HW179928  13.282   8.617   1.899
59363SOL    HW279929  13.355   8.502   1.833
59364SOL     OW79930  11.950   8.865  13.403
59364SOL    HW179931  11.874   8.924  13.399
59364SOL    HW279932  12.026   8.923  13.403
59365SOL     OW79933  12.961   4.311   3.683
59365SOL    HW179934  12.910   4.295   3.762
59365SOL    HW279935  12.960   4.406   3.672
59366SOL     OW79936  13.396   8.833  12.921
59366SOL    HW179937  13.428   8.924  12.921
59366SOL    HW279938  13.302   8.840  12.935
59367SOL     OW79939  13.552   3.134  10.880
59367SOL    HW179940  13.588   3.053  10.844
59367SOL    HW279941  13.581   3.135  10.972
59368SOL     OW79942  11.308   7.461   0.188
59368SOL    HW179943  11.335   7.422   0.271
59368SOL    HW279944  11.311   7.555   0.204
59369SOL     OW79945  14.542  13.306  14.315
59369SOL    HW179946  14.520  13.355  14.236
59369SOL    HW279947  14.583  13.370  14.372
59370SOL     OW79948   5.283  11.374  12.085
59370SOL    HW179949   5.371  11.411  12.076
59370SOL    HW279950   5.294  11.301  12.146
59371SOL     OW79951  14.245   2.703  13.159
59371SOL    HW179952  14.310   2.647  13.117
59371SOL    HW279953  14.238   2.779  13.102
59372SOL     OW79954  12.877   0.873  10.966
59372SOL    HW179955  12.800   0.863  11.021
59372SOL    HW279956  12.928   0.943  11.007
59373SOL     OW79957   9.782   6.985   0.038
59373SOL    HW179958   9.741   7.050  14.854
59373SOL    HW279959   9.869   6.972   0.001
59374SOL     OW79960   2.099   4.383  14.022
59374SOL    HW179961   2.018   4.370  14.071
59374SOL    HW279962   2.129   4.295  14.001
59375SOL     OW79963   1.719   8.049   4.622
59375SOL    HW179964   1.634   8.078   4.589
59375SOL    HW279965   1.699   7.971   4.674
59376SOL     OW79966  14.114   5.096   8.441
59376SOL    HW179967  14.079   5.022   8.491
59376SOL    HW279968  14.202   5.069   8.417
59377SOL     OW79969   7.692  10.987   0.416
59377SOL    HW179970   7.753  10.938   0.472
59377SOL    HW279971   7.665  11.061   0.469
59378SOL     OW79972   5.429  10.119   0.659
59378SOL    HW179973   5.434  10.085   0.748
59378SOL    HW279974   5.473  10.052   0.605
59379SOL     OW79975  12.315   6.101   3.300
59379SOL    HW179976  12.388   6.100   3.239
59379SOL    HW279977  12.356   6.097   3.387
59380SOL     OW79978   5.628   8.612  13.501
59380SOL    HW179979   5.712   8.580  13.532
59380SOL    HW279980   5.612   8.691  13.553
59381SOL     OW79981   8.435  11.342   9.555
59381SOL    HW179982   8.462  11.421   9.507
59381SOL    HW279983   8.492  11.340   9.632
59382SOL     OW79984  10.465  10.228   0.563
59382SOL    HW179985  10.422  10.227   0.649
59382SOL    HW279986  10.419  10.161   0.513
59383SOL     OW79987  14.267   2.249   6.804
59383SOL    HW179988  14.226   2.244   6.717
59383SOL    HW279989  14.285   2.158   6.827
59384SOL     OW79990   1.558  14.345   7.687
59384SOL    HW179991   1.499  14.420   7.678
59384SOL    HW279992   1.499  14.270   7.694
59385SOL     OW79993   7.994   5.187   7.304
59385SOL    HW179994   8.007   5.268   7.253
59385SOL    HW279995   8.051   5.123   7.261
59386SOL     OW79996   6.604   5.475  10.217
59386SOL    HW179997   6.658   5.538  10.169
59386SOL    HW279998   6.576   5.412  10.151
59387SOL     OW79999   3.754   4.749  12.163
59387SOL    HW180000   3.753   4.845  12.159
59387SOL    HW280001   3.773   4.722  12.073
59388SOL     OW80002   2.046  14.869   1.137
59388SOL    HW180003   2.011   0.068   1.085
59388SOL    HW280004   2.035   0.024   1.228
59389SOL     OW80005   2.759  14.087  11.131
59389SOL    HW180006   2.776  14.132  11.214
59389SOL    HW280007   2.799  14.143  11.064
59390SOL     OW80008  12.492   6.747   5.609
59390SOL    HW180009  12.453   6.673   5.561
59390SOL    HW280010  12.517   6.710   5.693
59391SOL     OW80011   8.690   6.261  12.279
59391SOL    HW180012   8.617   6.321  12.295
59391SOL    HW280013   8.767   6.318  12.281
59392SOL     OW80014  10.214   5.390   2.746
59392SOL    HW180015  10.241   5.430   2.829
59392SOL    HW280016  10.265   5.437   2.679
59393SOL     OW80017   5.848  14.853  12.680
59393SOL    HW180018   5.767   0.016  12.645
59393SOL    HW280019   5.901  14.832  12.603
59394SOL     OW80020   4.239   1.058   4.239
59394SOL    HW180021   4.300   1.126   4.265
59394SOL    HW280022   4.267   1.033   4.151
59395SOL     OW80023   5.862   0.385   5.485
59395SOL    HW180024   5.899   0.467   5.454
59395SOL    HW280025   5.924   0.318   5.456
59396SOL     OW80026   2.665  13.131   9.741
59396SOL    HW180027   2.635  13.065   9.803
59396SOL    HW280028   2.635  13.100   9.655
59397SOL     OW80029  10.248   1.365   5.947
59397SOL    HW180030  10.191   1.373   5.871
59397SOL    HW280031  10.191   1.333   6.017
59398SOL     OW80032  14.740   8.964   5.661
59398SOL    HW180033  14.728   8.933   5.571
59398SOL    HW280034  14.768   8.886   5.709
59399SOL     OW80035  10.964  10.865   5.531
59399SOL    HW180036  10.888  10.906   5.572
59399SOL    HW280037  10.938  10.854   5.439
59400SOL     OW80038  14.265   4.495   5.660
59400SOL    HW180039  14.223   4.500   5.746
59400SOL    HW280040  14.201   4.531   5.599
59401SOL     OW80041   6.145  10.082   5.938
59401SOL    HW180042   6.159  10.169   5.903
59401SOL    HW280043   6.212  10.028   5.897
59402SOL     OW80044   6.632   9.558   4.650
59402SOL    HW180045   6.674   9.509   4.720
59402SOL    HW280046   6.633   9.498   4.575
59403SOL     OW80047   9.215  12.647  14.200
59403SOL    HW180048   9.282  12.580  14.184
59403SOL    HW280049   9.258  12.730  14.176
59404SOL     OW80050   2.091   3.397   3.826
59404SOL    HW180051   2.150   3.471   3.841
59404SOL    HW280052   2.010   3.421   3.870
59405SOL     OW80053   4.234   3.601   4.837
59405SOL    HW180054   4.168   3.541   4.869
59405SOL    HW280055   4.238   3.671   4.902
59406SOL     OW80056   0.190   4.658  12.056
59406SOL    HW180057   0.140   4.577  12.060
59406SOL    HW280058   0.279   4.630  12.033
59407SOL     OW80059   2.073   8.590   0.507
59407SOL    HW180060   2.132   8.664   0.521
59407SOL    HW280061   1.994   8.628   0.469
59408SOL     OW80062  13.631   5.493   2.473
59408SOL    HW180063  13.626   5.587   2.486
59408SOL    HW280064  13.605   5.479   2.382
59409SOL     OW80065   2.081   6.098   9.003
59409SOL    HW180066   2.151   6.157   9.031
59409SOL    HW280067   2.098   6.083   8.910
59410SOL     OW80068   9.018  10.540   8.038
59410SOL    HW180069   8.997  10.620   8.086
59410SOL    HW280070   9.103  10.514   8.072
59411SOL     OW80071   3.800  13.659   7.605
59411SOL    HW180072   3.884  13.692   7.575
59411SOL    HW280073   3.762  13.731   7.655
59412SOL     OW80074   2.844   8.602  13.654
59412SOL    HW180075   2.879   8.657  13.584
59412SOL    HW280076   2.915   8.596  13.717
59413SOL     OW80077   2.881   3.673   1.583
59413SOL    HW180078   2.862   3.708   1.496
59413SOL    HW280079   2.909   3.583   1.567
59414SOL     OW80080   9.142  10.893  10.788
59414SOL    HW180081   9.178  10.826  10.730
59414SOL    HW280082   9.203  10.966  10.780
59415SOL     OW80083  10.113  12.520   9.133
59415SOL    HW180084  10.207  12.509   9.117
59415SOL    HW280085  10.109  12.568   9.216
59416SOL     OW80086  13.201  10.147   9.898
59416SOL    HW180087  13.159  10.173   9.980
59416SOL    HW280088  13.135  10.093   9.854
59417SOL     OW80089   5.256  14.601   5.771
59417SOL    HW180090   5.169  14.618   5.807
59417SOL    HW280091   5.244  14.524   5.715
59418SOL     OW80092   6.601   1.424   0.238
59418SOL    HW180093   6.624   1.516   0.248
59418SOL    HW280094   6.518   1.415   0.284
59419SOL     OW80095   2.473  13.874   0.461
59419SOL    HW180096   2.395  13.821   0.480
59419SOL    HW280097   2.518  13.826   0.391
59420SOL     OW80098  10.529  12.416   3.453
59420SOL    HW180099  10.526  12.366   3.534
59420SOL    HW280100  10.439  12.447   3.441
59421SOL     OW80101   6.177  12.294   4.493
59421SOL    HW180102   6.176  12.350   4.570
59421SOL    HW280103   6.093  12.311   4.450
59422SOL     OW80104   4.412   9.738   9.125
59422SOL    HW180105   4.460   9.656   9.137
59422SOL    HW280106   4.320   9.713   9.121
59423SOL     OW80107  10.037   6.735  10.438
59423SOL    HW180108  10.036   6.693  10.524
59423SOL    HW280109  10.064   6.825  10.455
59424SOL     OW80110   8.552  14.745  13.095
59424SOL    HW180111   8.541  14.700  13.012
59424SOL    HW280112   8.634  14.710  13.130
59425SOL     OW80113   6.856   6.620   7.170
59425SOL    HW180114   6.787   6.557   7.148
59425SOL    HW280115   6.880   6.598   7.260
59426SOL     OW80116  14.757   8.625   5.504
59426SOL    HW180117  14.784   8.559   5.440
59426SOL    HW280118  14.738   8.574   5.583
59427SOL     OW80119   1.344  10.738  12.802
59427SOL    HW180120   1.428  10.722  12.843
59427SOL    HW280121   1.365  10.752  12.710
59428SOL     OW80122   3.754   6.118   9.260
59428SOL    HW180123   3.757   6.211   9.282
59428SOL    HW280124   3.832   6.082   9.302
59429SOL     OW80125  11.162   0.770   6.852
59429SOL    HW180126  11.162   0.849   6.798
59429SOL    HW280127  11.100   0.711   6.809
59430SOL     OW80128   8.009   9.643   3.245
59430SOL    HW180129   7.956   9.674   3.318
59430SOL    HW280130   7.992   9.706   3.175
59431SOL     OW80131  13.369   5.814   0.586
59431SOL    HW180132  13.284   5.801   0.629
59431SOL    HW280133  13.400   5.898   0.620
59432SOL     OW80134   0.978   7.845   4.608
59432SOL    HW180135   1.033   7.859   4.685
59432SOL    HW280136   1.001   7.917   4.549
59433SOL     OW80137   7.771  14.266  13.930
59433SOL    HW180138   7.692  14.293  13.884
59433SOL    HW280139   7.740  14.234  14.015
59434SOL     OW80140  10.012  11.770  10.896
59434SOL    HW180141  10.093  11.820  10.910
59434SOL    HW280142  10.025  11.690  10.947
59435SOL     OW80143   7.829   6.001  13.366
59435SOL    HW180144   7.789   5.926  13.323
59435SOL    HW280145   7.790   6.002  13.453
59436SOL     OW80146   4.086  10.285   4.690
59436SOL    HW180147   4.167  10.241   4.663
59436SOL    HW280148   4.018  10.242   4.639
59437SOL     OW80149  13.219  12.755  14.731
59437SOL    HW180150  13.236  12.825  14.795
59437SOL    HW280151  13.231  12.797  14.646
59438SOL     OW80152  10.931  11.563  10.504
59438SOL    HW180153  10.991  11.501  10.462
59438SOL    HW280154  10.848  11.552  10.457
59439SOL     OW80155   9.668   3.316   3.385
59439SOL    HW180156   9.707   3.280   3.306
59439SOL    HW280157   9.577   3.334   3.361
59440SOL     OW80158  11.209   8.978  14.685
59440SOL    HW180159  11.287   8.922  14.692
59440SOL    HW280160  11.239   9.054  14.635
59441SOL     OW80161  13.159   0.145   1.637
59441SOL    HW180162  13.152   0.110   1.726
59441SOL    HW280163  13.078   0.195   1.624
59442SOL     OW80164   8.155  14.473  10.003
59442SOL    HW180165   8.248  14.496  10.007
59442SOL    HW280166   8.131  14.488   9.912
59443SOL     OW80167   8.078  10.564  13.813
59443SOL    HW180168   8.011  10.496  13.816
59443SOL    HW280169   8.139  10.540  13.883
59444SOL     OW80170   3.831  10.177  12.113
59444SOL    HW180171   3.876  10.255  12.082
59444SOL    HW280172   3.838  10.114  12.041
59445SOL     OW80173   8.971   4.289  13.239
59445SOL    HW180174   8.968   4.364  13.179
59445SOL    HW280175   9.041   4.234  13.205
59446SOL     OW80176   4.714   4.045   0.008
59446SOL    HW180177   4.800   4.068   0.044
59446SOL    HW280178   4.724   4.058  14.787
59447SOL     OW80179  12.013   1.946   1.463
59447SOL    HW180180  12.090   1.917   1.415
59447SOL    HW280181  11.939   1.914   1.410
59448SOL     OW80182   2.346  13.202   5.348
59448SOL    HW180183   2.332  13.214   5.442
59448SOL    HW280184   2.259  13.202   5.310
59449SOL     OW80185   4.183  12.837   9.728
59449SOL    HW180186   4.122  12.892   9.777
59449SOL    HW280187   4.270  12.867   9.757
59450SOL     OW80188  14.016   2.906   5.754
59450SOL    HW180189  14.021   2.973   5.822
59450SOL    HW280190  14.089   2.847   5.773
59451SOL     OW80191   2.447  10.137   5.783
59451SOL    HW180192   2.492  10.110   5.704
59451SOL    HW280193   2.510  10.194   5.828
59452SOL     OW80194   7.778  12.820  11.103
59452SOL    HW180195   7.689  12.793  11.128
59452SOL    HW280196   7.811  12.869  11.178
59453SOL     OW80197   1.159   6.505   9.706
59453SOL    HW180198   1.079   6.528   9.753
59453SOL    HW280199   1.198   6.435   9.758
59454SOL     OW80200   4.915  11.909   3.187
59454SOL    HW180201   4.964  11.977   3.233
59454SOL    HW280202   4.898  11.947   3.100
59455SOL     OW80203  12.373  13.735  11.129
59455SOL    HW180204  12.420  13.653  11.118
59455SOL    HW280205  12.294  13.712  11.177
59456SOL     OW80206  13.387   1.426  13.226
59456SOL    HW180207  13.382   1.484  13.150
59456SOL    HW280208  13.308   1.372  13.221
59457SOL     OW80209   2.120  12.679   5.589
59457SOL    HW180210   2.205  12.706   5.556
59457SOL    HW280211   2.103  12.595   5.546
59458SOL     OW80212   4.829   2.801  11.913
59458SOL    HW180213   4.921   2.780  11.933
59458SOL    HW280214   4.834   2.871  11.848
59459SOL     OW80215   7.514  14.438   8.350
59459SOL    HW180216   7.538  14.352   8.316
59459SOL    HW280217   7.541  14.500   8.282
59460SOL     OW80218   9.418   2.726   1.637
59460SOL    HW180219   9.382   2.811   1.613
59460SOL    HW280220   9.487   2.746   1.700
59461SOL     OW80221  14.681   3.782   4.952
59461SOL    HW180222  14.774   3.794   4.972
59461SOL    HW280223  14.648   3.871   4.937
59462SOL     OW80224   0.547   4.851  11.004
59462SOL    HW180225   0.505   4.937  10.997
59462SOL    HW280226   0.641   4.870  11.010
59463SOL     OW80227   2.413  12.086   0.964
59463SOL    HW180228   2.461  12.142   0.904
59463SOL    HW280229   2.382  12.013   0.910
59464SOL     OW80230   8.338   6.573   3.684
59464SOL    HW180231   8.310   6.559   3.775
59464SOL    HW280232   8.306   6.660   3.662
59465SOL     OW80233   3.059   1.104  11.117
59465SOL    HW180234   2.975   1.106  11.163
59465SOL    HW280235   3.079   1.011  11.107
59466SOL     OW80236  11.429   3.467  10.150
59466SOL    HW180237  11.467   3.517  10.222
59466SOL    HW280238  11.503   3.451  10.091
59467SOL     OW80239   6.599  10.203  13.570
59467SOL    HW180240   6.553  10.212  13.486
59467SOL    HW280241   6.691  10.193  13.546
59468SOL     OW80242   2.153  13.460   8.520
59468SOL    HW180243   2.238  13.452   8.564
59468SOL    HW280244   2.118  13.543   8.551
59469SOL     OW80245   9.245   8.036  13.946
59469SOL    HW180246   9.187   8.106  13.978
59469SOL    HW280247   9.190   7.958  13.947
59470SOL     OW80248  13.201   3.009   8.171
59470SOL    HW180249  13.174   2.917   8.179
59470SOL    HW280250  13.289   3.012   8.208
59471SOL     OW80251  12.213  11.811  11.185
59471SOL    HW180252  12.128  11.856  11.187
59471SOL    HW280253  12.212  11.761  11.104
59472SOL     OW80254   2.849   4.158   3.567
59472SOL    HW180255   2.825   4.102   3.493
59472SOL    HW280256   2.766   4.188   3.603
59473SOL     OW80257   7.979   0.433  10.982
59473SOL    HW180258   7.950   0.344  10.999
59473SOL    HW280259   7.912   0.469  10.923
59474SOL     OW80260   8.862   8.648  12.165
59474SOL    HW180261   8.874   8.711  12.095
59474SOL    HW280262   8.878   8.698  12.246
59475SOL     OW80263  12.786  14.135   9.274
59475SOL    HW180264  12.878  14.149   9.248
59475SOL    HW280265  12.758  14.220   9.308
59476SOL     OW80266  10.624  11.557  14.723
59476SOL    HW180267  10.589  11.502  14.654
59476SOL    HW280268  10.593  11.645  14.702
59477SOL     OW80269   6.475   3.996   5.019
59477SOL    HW180270   6.417   4.069   5.042
59477SOL    HW280271   6.423   3.918   5.037
59478SOL     OW80272   1.544  12.959  13.164
59478SOL    HW180273   1.475  12.929  13.223
59478SOL    HW280274   1.564  13.047  13.194
59479SOL     OW80275   3.224  11.258   1.358
59479SOL    HW180276   3.276  11.178   1.347
59479SOL    HW280277   3.140  11.237   1.316
59480SOL     OW80278   8.607   2.026   1.515
59480SOL    HW180279   8.656   1.963   1.463
59480SOL    HW280280   8.589   2.098   1.455
59481SOL     OW80281   1.209  14.150   0.657
59481SOL    HW180282   1.245  14.197   0.582
59481SOL    HW280283   1.228  14.207   0.732
59482SOL     OW80284   6.666  10.870   4.499
59482SOL    HW180285   6.696  10.904   4.584
59482SOL    HW280286   6.746  10.842   4.455
59483SOL     OW80287   9.972   2.834  12.458
59483SOL    HW180288   9.961   2.786  12.540
59483SOL    HW280289   9.905   2.902  12.462
59484SOL     OW80290  12.214   8.705   9.614
59484SOL    HW180291  12.155   8.737   9.682
59484SOL    HW280292  12.156   8.670   9.546
59485SOL     OW80293   9.827   0.459  10.677
59485SOL    HW180294   9.901   0.437  10.734
59485SOL    HW280295   9.867   0.505  10.603
59486SOL     OW80296   4.531   4.714   9.892
59486SOL    HW180297   4.598   4.686   9.955
59486SOL    HW280298   4.579   4.764   9.826
59487SOL     OW80299   6.824   5.936   0.399
59487SOL    HW180300   6.863   5.999   0.461
59487SOL    HW280301   6.815   5.986   0.318
59488SOL     OW80302  11.933  12.868   2.087
59488SOL    HW180303  11.868  12.818   2.038
59488SOL    HW280304  11.945  12.818   2.168
59489SOL     OW80305   8.243  12.116   2.995
59489SOL    HW180306   8.311  12.057   2.963
59489SOL    HW280307   8.291  12.193   3.026
59490SOL     OW80308  12.037   3.662   3.530
59490SOL    HW180309  12.071   3.573   3.524
59490SOL    HW280310  12.071   3.706   3.452
59491SOL     OW80311  11.193   3.555   2.169
59491SOL    HW180312  11.117   3.523   2.217
59491SOL    HW280313  11.209   3.490   2.101
59492SOL     OW80314   3.596   7.396   1.565
59492SOL    HW180315   3.594   7.352   1.481
59492SOL    HW280316   3.548   7.338   1.624
59493SOL     OW80317   2.150  12.901   5.393
59493SOL    HW180318   2.242  12.882   5.379
59493SOL    HW280319   2.130  12.861   5.478
59494SOL     OW80320   8.090   3.980  10.329
59494SOL    HW180321   8.095   3.888  10.302
59494SOL    HW280322   8.174   4.017  10.302
59495SOL     OW80323   2.618  12.243  14.093
59495SOL    HW180324   2.623  12.334  14.065
59495SOL    HW280325   2.527  12.230  14.119
59496SOL     OW80326   5.132   9.578   0.138
59496SOL    HW180327   5.131   9.627   0.056
59496SOL    HW280328   5.107   9.489   0.113
59497SOL     OW80329   6.454   3.088  11.290
59497SOL    HW180330   6.421   3.154  11.350
59497SOL    HW280331   6.376   3.039  11.263
59498SOL     OW80332  10.583   9.164  10.966
59498SOL    HW180333  10.627   9.145  10.883
59498SOL    HW280334  10.529   9.088  10.982
59499SOL     OW80335  14.453  11.122  12.191
59499SOL    HW180336  14.466  11.085  12.278
59499SOL    HW280337  14.539  11.114  12.148
59500SOL     OW80338   0.132  14.822   5.774
59500SOL    HW180339   0.124  14.858   5.862
59500SOL    HW280340   0.227  14.818   5.758
59501SOL     OW80341  13.221   1.981  13.088
59501SOL    HW180342  13.242   1.939  13.005
59501SOL    HW280343  13.305   2.014  13.121
59502SOL     OW80344   8.361   2.940   0.386
59502SOL    HW180345   8.455   2.937   0.367
59502SOL    HW280346   8.320   2.901   0.309
59503SOL     OW80347  10.786   6.716   9.742
59503SOL    HW180348  10.714   6.778   9.754
59503SOL    HW280349  10.743   6.631   9.730
59504SOL     OW80350   3.451   3.497  10.361
59504SOL    HW180351   3.422   3.410  10.385
59504SOL    HW280352   3.546   3.495  10.373
59505SOL     OW80353  11.908   5.574   3.094
59505SOL    HW180354  11.952   5.643   3.144
59505SOL    HW280355  11.949   5.579   3.007
59506SOL     OW80356   4.272  14.751   6.803
59506SOL    HW180357   4.209  14.691   6.764
59506SOL    HW280358   4.222  14.801   6.867
59507SOL     OW80359   2.722   1.494   6.254
59507SOL    HW180360   2.648   1.453   6.297
59507SOL    HW280361   2.685   1.536   6.176
59508SOL     OW80362   4.230   3.840  11.032
59508SOL    HW180363   4.278   3.778  11.087
59508SOL    HW280364   4.280   3.921  11.037
59509SOL     OW80365   3.727   6.606   0.696
59509SOL    HW180366   3.654   6.553   0.664
59509SOL    HW280367   3.776   6.629   0.617
59510SOL     OW80368  11.283   1.226  11.546
59510SOL    HW180369  11.224   1.167  11.500
59510SOL    HW280370  11.262   1.214  11.639
59511SOL     OW80371  12.951  14.561   5.300
59511SOL    HW180372  13.019  14.603   5.249
59511SOL    HW280373  12.896  14.634   5.330
59512SOL     OW80374   3.124  11.020  11.626
59512SOL    HW180375   3.144  11.001  11.718
59512SOL    HW280376   3.209  11.017  11.582
59513SOL     OW80377  12.988   8.835   2.442
59513SOL    HW180378  12.972   8.902   2.508
59513SOL    HW280379  12.914   8.775   2.451
59514SOL     OW80380   2.100   0.420  14.861
59514SOL    HW180381   2.160   0.357  14.822
59514SOL    HW280382   2.021   0.415  14.807
59515SOL     OW80383  13.271   2.482  13.026
59515SOL    HW180384  13.297   2.394  13.054
59515SOL    HW280385  13.312   2.541  13.089
59516SOL     OW80386   8.739   0.518   2.180
59516SOL    HW180387   8.726   0.613   2.181
59516SOL    HW280388   8.706   0.488   2.264
59517SOL     OW80389   4.088  14.811   0.189
59517SOL    HW180390   4.058  14.751   0.120
59517SOL    HW280391   4.009  14.835   0.236
59518SOL     OW80392   5.229  10.337   9.231
59518SOL    HW180393   5.324  10.331   9.218
59518SOL    HW280394   5.194  10.349   9.142
59519SOL     OW80395  13.658  11.536   8.108
59519SOL    HW180396  13.640  11.622   8.071
59519SOL    HW280397  13.636  11.544   8.201
59520SOL     OW80398  10.856   4.125  10.807
59520SOL    HW180399  10.839   4.140  10.900
59520SOL    HW280400  10.919   4.193  10.783
59521SOL     OW80401  11.124   2.662   9.916
59521SOL    HW180402  11.172   2.734   9.958
59521SOL    HW280403  11.097   2.697   9.832
59522SOL     OW80404  11.789   4.027  14.453
59522SOL    HW180405  11.880   4.055  14.454
59522SOL    HW280406  11.782   3.968  14.378
59523SOL     OW80407   4.601   3.350  13.940
59523SOL    HW180408   4.689   3.383  13.954
59523SOL    HW280409   4.546   3.429  13.938
59524SOL     OW80410  14.630   9.288   0.716
59524SOL    HW180411  14.697   9.220   0.727
59524SOL    HW280412  14.637   9.341   0.796
59525SOL     OW80413   2.459   8.057  13.734
59525SOL    HW180414   2.516   8.127  13.703
59525SOL    HW280415   2.424   8.018  13.654
59526SOL     OW80416   7.645   8.206   7.694
59526SOL    HW180417   7.699   8.248   7.760
59526SOL    HW280418   7.557   8.242   7.708
59527SOL     OW80419  12.074   8.054  11.810
59527SOL    HW180420  11.983   8.085  11.807
59527SOL    HW280421  12.080   8.009  11.894
59528SOL     OW80422   6.076   2.964   4.287
59528SOL    HW180423   6.035   2.883   4.257
59528SOL    HW280424   6.062   3.027   4.216
59529SOL     OW80425  14.091   5.317   7.047
59529SOL    HW180426  14.106   5.319   6.952
59529SOL    HW280427  14.035   5.393   7.063
59530SOL     OW80428   6.122  14.073  13.720
59530SOL    HW180429   6.158  14.152  13.679
59530SOL    HW280430   6.133  14.005  13.653
59531SOL     OW80431   1.798   5.075  11.340
59531SOL    HW180432   1.719   5.068  11.393
59531SOL    HW280433   1.775   5.136  11.269
59532SOL     OW80434   9.745   7.230   1.466
59532SOL    HW180435   9.782   7.142   1.460
59532SOL    HW280436   9.714   7.249   1.378
59533SOL     OW80437   6.164  12.262   7.175
59533SOL    HW180438   6.205  12.229   7.255
59533SOL    HW280439   6.126  12.185   7.134
59534SOL     OW80440  10.255   3.219   2.386
59534SOL    HW180441  10.170   3.175   2.396
59534SOL    HW280442  10.319   3.153   2.411
59535SOL     OW80443  11.074   6.144   8.837
59535SOL    HW180444  11.058   6.187   8.921
59535SOL    HW280445  11.166   6.160   8.818
59536SOL     OW80446  12.741   7.643   3.694
59536SOL    HW180447  12.682   7.585   3.646
59536SOL    HW280448  12.752   7.602   3.779
59537SOL     OW80449   5.064   3.071  14.851
59537SOL    HW180450   5.007   3.018  14.796
59537SOL    HW280451   5.095   3.011   0.046
59538SOL     OW80452  13.047   8.990  14.716
59538SOL    HW180453  13.125   9.033  14.751
59538SOL    HW280454  13.039   8.909  14.766
59539SOL     OW80455   8.712   0.366   0.019
59539SOL    HW180456   8.789   0.341  14.840
59539SOL    HW280457   8.700   0.293   0.081
59540SOL     OW80458   4.303   5.712  12.781
59540SOL    HW180459   4.348   5.698  12.864
59540SOL    HW280460   4.229   5.769  12.802
59541SOL     OW80461  12.318  14.247  13.969
59541SOL    HW180462  12.291  14.183  14.034
59541SOL    HW280463  12.299  14.332  14.010
59542SOL     OW80464   4.929   3.420   2.108
59542SOL    HW180465   4.887   3.357   2.166
59542SOL    HW280466   4.968   3.486   2.166
59543SOL     OW80467   3.505   2.038   0.601
59543SOL    HW180468   3.589   2.083   0.611
59543SOL    HW280469   3.512   1.993   0.517
59544SOL     OW80470   2.142   9.558   2.012
59544SOL    HW180471   2.160   9.628   2.075
59544SOL    HW280472   2.172   9.594   1.928
59545SOL     OW80473  13.169   8.297   1.256
59545SOL    HW180474  13.241   8.330   1.202
59545SOL    HW280475  13.097   8.285   1.194
59546SOL     OW80476  10.434   5.548  12.117
59546SOL    HW180477  10.420   5.569  12.210
59546SOL    HW280478  10.387   5.616  12.069
59547SOL     OW80479  12.229   7.159   9.144
59547SOL    HW180480  12.214   7.076   9.189
59547SOL    HW280481  12.146   7.207   9.153
59548SOL     OW80482   5.523   1.863  13.802
59548SOL    HW180483   5.466   1.920  13.750
59548SOL    HW280484   5.544   1.791  13.743
59549SOL     OW80485  13.469   2.180   3.888
59549SOL    HW180486  13.551   2.139   3.914
59549SOL    HW280487  13.429   2.116   3.828
59550SOL     OW80488   2.470   2.621   2.358
59550SOL    HW180489   2.429   2.690   2.307
59550SOL    HW280490   2.563   2.645   2.361
59551SOL     OW80491  13.278   8.861  10.259
59551SOL    HW180492  13.224   8.836  10.333
59551SOL    HW280493  13.356   8.804  10.266
59552SOL     OW80494  12.613  13.481  10.252
59552SOL    HW180495  12.572  13.556  10.208
59552SOL    HW280496  12.706  13.501  10.251
59553SOL     OW80497   5.961  14.803  11.127
59553SOL    HW180498   5.885  14.747  11.140
59553SOL    HW280499   5.962  14.820  11.032
59554SOL     OW80500  11.512   4.945   3.689
59554SOL    HW180501  11.547   4.994   3.615
59554SOL    HW280502  11.433   4.902   3.654
59555SOL     OW80503   3.870  12.821   6.721
59555SOL    HW180504   3.798  12.883   6.737
59555SOL    HW280505   3.840  12.739   6.760
59556SOL     OW80506  10.021   0.707   1.149
59556SOL    HW180507   9.974   0.780   1.186
59556SOL    HW280508  10.079   0.746   1.083
59557SOL     OW80509   9.255   9.318   6.691
59557SOL    HW180510   9.181   9.365   6.729
59557SOL    HW280511   9.331   9.350   6.740
59558SOL     OW80512   5.234  14.872   0.006
59558SOL    HW180513   5.227  14.783  14.845
59558SOL    HW280514   5.317  14.872   0.054
59559SOL     OW80515   1.795   4.524  10.359
59559SOL    HW180516   1.882   4.539  10.397
59559SOL    HW280517   1.760   4.611  10.345
59560SOL     OW80518   6.058   0.346  13.767
59560SOL    HW180519   6.076   0.252  13.774
59560SOL    HW280520   6.091   0.371  13.681
59561SOL     OW80521   8.614  11.301   6.767
59561SOL    HW180522   8.562  11.352   6.828
59561SOL    HW280523   8.673  11.364   6.726
59562SOL     OW80524  11.070   2.991   5.153
59562SOL    HW180525  11.076   2.924   5.221
59562SOL    HW280526  11.122   2.957   5.081
59563SOL     OW80527   5.728  10.207  14.483
59563SOL    HW180528   5.658  10.144  14.500
59563SOL    HW280529   5.754  10.238  14.570
59564SOL     OW80530   1.479   6.537  13.957
59564SOL    HW180531   1.528   6.615  13.984
59564SOL    HW280532   1.547   6.472  13.937
59565SOL     OW80533   9.111   2.111  14.354
59565SOL    HW180534   9.118   2.188  14.410
59565SOL    HW280535   9.062   2.048  14.407
59566SOL     OW80536   1.707   7.785   3.254
59566SOL    HW180537   1.751   7.730   3.189
59566SOL    HW280538   1.625   7.811   3.212
59567SOL     OW80539  12.720  10.673  13.686
59567SOL    HW180540  12.785  10.604  13.678
59567SOL    HW280541  12.766  10.753  13.660
59568SOL     OW80542  10.191   6.029   5.228
59568SOL    HW180543  10.104   6.051   5.261
59568SOL    HW280544  10.233   5.981   5.299
59569SOL     OW80545   2.057  11.082   6.914
59569SOL    HW180546   1.988  11.148   6.905
59569SOL    HW280547   2.035  11.037   6.996
59570SOL     OW80548   5.763   0.314   8.981
59570SOL    HW180549   5.830   0.378   9.006
59570SOL    HW280550   5.685   0.343   9.028
59571SOL     OW80551  10.259  11.563   3.746
59571SOL    HW180552  10.274  11.657   3.748
59571SOL    HW280553  10.340  11.525   3.780
59572SOL     OW80554   4.654   8.789  14.019
59572SOL    HW180555   4.560   8.774  14.011
59572SOL    HW280556   4.665   8.882  13.998
59573SOL     OW80557   4.017   9.235   9.422
59573SOL    HW180558   4.109   9.209   9.431
59573SOL    HW280559   3.983   9.234   9.512
59574SOL     OW80560   1.073   4.283  13.893
59574SOL    HW180561   1.086   4.246  13.980
59574SOL    HW280562   1.025   4.365  13.909
59575SOL     OW80563   2.684   6.193   3.929
59575SOL    HW180564   2.598   6.152   3.944
59575SOL    HW280565   2.735   6.126   3.883
59576SOL     OW80566   4.641  13.744  13.258
59576SOL    HW180567   4.611  13.678  13.320
59576SOL    HW280568   4.715  13.785  13.302
59577SOL     OW80569  12.684   7.184  10.791
59577SOL    HW180570  12.692   7.238  10.713
59577SOL    HW280571  12.739   7.108  10.774
59578SOL     OW80572  10.112  12.356   4.183
59578SOL    HW180573  10.093  12.283   4.242
59578SOL    HW280574  10.060  12.428   4.217
59579SOL     OW80575   3.684   8.284   6.477
59579SOL    HW180576   3.717   8.195   6.466
59579SOL    HW280577   3.682   8.297   6.572
59580SOL     OW80578  11.725  10.635   1.689
59580SOL    HW180579  11.794  10.589   1.642
59580SOL    HW280580  11.746  10.727   1.679
59581SOL     OW80581   0.240   3.768  13.162
59581SOL    HW180582   0.265   3.823  13.237
59581SOL    HW280583   0.161   3.723  13.190
59582SOL     OW80584   1.682  12.965   5.569
59582SOL    HW180585   1.609  13.023   5.588
59582SOL    HW280586   1.692  12.912   5.648
59583SOL     OW80587   1.551   2.834   9.277
59583SOL    HW180588   1.509   2.910   9.235
59583SOL    HW280589   1.536   2.847   9.370
59584SOL     OW80590   7.114   6.139   3.271
59584SOL    HW180591   7.036   6.192   3.285
59584SOL    HW280592   7.185   6.191   3.306
59585SOL     OW80593   5.927  11.411  10.372
59585SOL    HW180594   5.885  11.366  10.298
59585SOL    HW280595   5.973  11.484  10.333
59586SOL     OW80596  12.404   6.722   6.902
59586SOL    HW180597  12.435   6.659   6.966
59586SOL    HW280598  12.312   6.738   6.926
59587SOL     OW80599  12.587   5.349   3.453
59587SOL    HW180600  12.511   5.298   3.426
59587SOL    HW280601  12.655   5.327   3.388
59588SOL     OW80602   1.790  11.738   8.868
59588SOL    HW180603   1.730  11.810   8.883
59588SOL    HW280604   1.804  11.699   8.954
59589SOL     OW80605  13.961  11.577  14.537
59589SOL    HW180606  13.870  11.550  14.523
59589SOL    HW280607  13.973  11.652  14.478
59590SOL     OW80608   2.384   5.515  11.420
59590SOL    HW180609   2.479   5.524  11.412
59590SOL    HW280610   2.361   5.448  11.356
59591SOL     OW80611   8.870  11.840   1.259
59591SOL    HW180612   8.893  11.923   1.217
59591SOL    HW280613   8.811  11.864   1.330
59592SOL     OW80614  13.985   0.498   6.706
59592SOL    HW180615  13.985   0.503   6.802
59592SOL    HW280616  13.963   0.586   6.677
59593SOL     OW80617   9.040   7.733  10.840
59593SOL    HW180618   8.984   7.749  10.916
59593SOL    HW280619   9.116   7.790  10.854
59594SOL     OW80620   3.175  13.106   6.033
59594SOL    HW180621   3.222  13.150   6.104
59594SOL    HW280622   3.183  13.013   6.053
59595SOL     OW80623   4.717   6.692   2.192
59595SOL    HW180624   4.783   6.683   2.260
59595SOL    HW280625   4.751   6.640   2.119
59596SOL     OW80626   0.284   2.884  14.253
59596SOL    HW180627   0.233   2.893  14.334
59596SOL    HW280628   0.321   2.796  14.257
59597SOL     OW80629  10.599   1.624   8.664
59597SOL    HW180630  10.649   1.576   8.598
59597SOL    HW280631  10.524   1.659   8.617
59598SOL     OW80632   4.527   9.011   0.470
59598SOL    HW180633   4.567   8.988   0.386
59598SOL    HW280634   4.568   8.951   0.533
59599SOL     OW80635   8.113  14.308   5.460
59599SOL    HW180636   8.148  14.234   5.409
59599SOL    HW280637   8.161  14.384   5.427
59600SOL     OW80638   6.623   2.999  11.078
59600SOL    HW180639   6.715   3.019  11.094
59600SOL    HW280640   6.575   3.049  11.143
59601SOL     OW80641   7.958   6.198   6.059
59601SOL    HW180642   7.951   6.280   6.107
59601SOL    HW280643   7.946   6.222   5.967
59602SOL     OW80644   0.906   1.313  13.759
59602SOL    HW180645   0.859   1.375  13.704
59602SOL    HW280646   0.837   1.265  13.806
59603SOL     OW80647  12.280   3.856   9.973
59603SOL    HW180648  12.286   3.765   9.999
59603SOL    HW280649  12.267   3.904  10.055
59604SOL     OW80650   1.551   1.037  12.612
59604SOL    HW180651   1.489   1.096  12.570
59604SOL    HW280652   1.544   1.058  12.705
59605SOL     OW80653  11.472   7.139   3.274
59605SOL    HW180654  11.438   7.219   3.314
59605SOL    HW280655  11.490   7.081   3.348
59606SOL     OW80656  11.515  13.972   1.076
59606SOL    HW180657  11.429  13.939   1.048
59606SOL    HW280658  11.531  14.048   1.019
59607SOL     OW80659  12.656   0.329   8.797
59607SOL    HW180660  12.743   0.295   8.775
59607SOL    HW280661  12.672   0.412   8.841
59608SOL     OW80662  11.232  11.931  12.186
59608SOL    HW180663  11.176  11.875  12.240
59608SOL    HW280664  11.286  11.979  12.249
59609SOL     OW80665   5.463   1.055   3.996
59609SOL    HW180666   5.413   0.975   3.981
59609SOL    HW280667   5.549   1.025   4.025
59610SOL     OW80668   9.340   9.147   6.490
59610SOL    HW180669   9.377   9.233   6.472
59610SOL    HW280670   9.289   9.158   6.570
59611SOL     OW80671   9.033   9.053   9.370
59611SOL    HW180672   9.064   9.116   9.435
59611SOL    HW280673   9.103   8.988   9.364
59612SOL     OW80674   9.337   5.747   0.977
59612SOL    HW180675   9.244   5.771   0.973
59612SOL    HW280676   9.382   5.813   0.924
59613SOL     OW80677   9.212   9.386   0.024
59613SOL    HW180678   9.305   9.374   0.041
59613SOL    HW280679   9.169   9.356   0.104
59614SOL     OW80680  12.962   5.315   5.571
59614SOL    HW180681  12.868   5.332   5.573
59614SOL    HW280682  12.985   5.318   5.478
59615SOL     OW80683  11.863   6.725   3.929
59615SOL    HW180684  11.912   6.806   3.914
59615SOL    HW280685  11.841   6.694   3.841
59616SOL     OW80686  13.083  11.289  13.671
59616SOL    HW180687  13.029  11.345  13.615
59616SOL    HW280688  13.027  11.267  13.746
59617SOL     OW80689  10.864   9.569   8.477
59617SOL    HW180690  10.800   9.504   8.448
59617SOL    HW280691  10.935   9.564   8.413
59618SOL     OW80692   5.127   4.451   9.843
59618SOL    HW180693   5.063   4.498   9.790
59618SOL    HW280694   5.190   4.416   9.780
59619SOL     OW80695  14.832   0.313   0.692
59619SOL    HW180696   0.018   0.280   0.761
59619SOL    HW280697  14.754   0.341   0.740
59620SOL     OW80698  13.230   7.476   2.946
59620SOL    HW180699  13.293   7.510   3.010
59620SOL    HW280700  13.203   7.554   2.896
59621SOL     OW80701  10.460   7.111  10.500
59621SOL    HW180702  10.434   7.022  10.475
59621SOL    HW280703  10.506   7.145  10.423
59622SOL     OW80704  10.131   6.595  10.759
59622SOL    HW180705  10.153   6.504  10.780
59622SOL    HW280706  10.120   6.638  10.844
59623SOL     OW80707   5.994  11.483   2.353
59623SOL    HW180708   6.048  11.549   2.308
59623SOL    HW280709   5.942  11.443   2.283
59624SOL     OW80710  14.775  14.242   2.461
59624SOL    HW180711  14.805  14.323   2.419
59624SOL    HW280712  14.827  14.173   2.419
59625SOL     OW80713   1.027   2.799  10.388
59625SOL    HW180714   1.118   2.815  10.415
59625SOL    HW280715   1.034   2.728  10.324
59626SOL     OW80716   8.164  10.156   6.027
59626SOL    HW180717   8.142  10.203   6.108
59626SOL    HW280718   8.126  10.069   6.039
59627SOL     OW80719   0.250  12.455   7.598
59627SOL    HW180720   0.270  12.365   7.572
59627SOL    HW280721   0.168  12.475   7.553
59628SOL     OW80722  12.244   7.158   1.959
59628SOL    HW180723  12.156   7.190   1.941
59628SOL    HW280724  12.232   7.069   1.990
59629SOL     OW80725   6.853  10.334  12.717
59629SOL    HW180726   6.946  10.314  12.707
59629SOL    HW280727   6.850  10.410  12.775
59630SOL     OW80728  10.007  13.177   4.221
59630SOL    HW180729   9.980  13.099   4.172
59630SOL    HW280730   9.955  13.248   4.182
59631SOL     OW80731   1.282  12.070  13.287
59631SOL    HW180732   1.314  12.069  13.377
59631SOL    HW280733   1.198  12.024  13.291
59632SOL     OW80734   7.284   0.061   6.355
59632SOL    HW180735   7.376   0.054   6.329
59632SOL    HW280736   7.280   0.142   6.405
59633SOL     OW80737   9.195   2.873   4.178
59633SOL    HW180738   9.145   2.795   4.152
59633SOL    HW280739   9.144   2.946   4.146
59634SOL     OW80740   8.016   4.642   6.016
59634SOL    HW180741   7.998   4.616   6.106
59634SOL    HW280742   8.101   4.685   6.020
59635SOL     OW80743  14.537   5.934  12.749
59635SOL    HW180744  14.542   5.911  12.656
59635SOL    HW280745  14.581   6.019  12.754
59636SOL     OW80746   0.582  11.039   2.427
59636SOL    HW180747   0.610  11.125   2.458
59636SOL    HW280748   0.593  10.981   2.502
59637SOL     OW80749   2.239   6.837   0.575
59637SOL    HW180750   2.239   6.791   0.491
59637SOL    HW280751   2.221   6.770   0.640
59638SOL     OW80752   8.170   9.554  12.276
59638SOL    HW180753   8.248   9.605  12.256
59638SOL    HW280754   8.189   9.514  12.361
59639SOL     OW80755   7.154   7.356   9.551
59639SOL    HW180756   7.230   7.406   9.521
59639SOL    HW280757   7.137   7.294   9.480
59640SOL     OW80758  11.703  12.637   1.365
59640SOL    HW180759  11.793  12.629   1.397
59640SOL    HW280760  11.677  12.547   1.345
59641SOL     OW80761  14.230   5.801   6.037
59641SOL    HW180762  14.172   5.867   6.000
59641SOL    HW280763  14.316   5.842   6.040
59642SOL     OW80764  11.346   1.334   0.108
59642SOL    HW180765  11.411   1.282   0.155
59642SOL    HW280766  11.301   1.271   0.051
59643SOL     OW80767   0.375  12.694   1.460
59643SOL    HW180768   0.391  12.683   1.554
59643SOL    HW280769   0.351  12.606   1.430
59644SOL     OW80770  11.141  14.322  11.530
59644SOL    HW180771  11.162  14.230  11.548
59644SOL    HW280772  11.219  14.369  11.558
59645SOL     OW80773   2.604  11.226   1.453
59645SOL    HW180774   2.666  11.176   1.505
59645SOL    HW280775   2.632  11.213   1.363
59646SOL     OW80776   5.385  10.929  13.209
59646SOL    HW180777   5.401  10.957  13.300
59646SOL    HW280778   5.290  10.935  13.199
59647SOL     OW80779  12.162   2.307   1.145
59647SOL    HW180780  12.116   2.359   1.211
59647SOL    HW280781  12.251   2.298   1.180
59648SOL     OW80782   2.994  12.414  13.274
59648SOL    HW180783   2.936  12.338  13.266
59648SOL    HW280784   3.009  12.443  13.184
59649SOL     OW80785  10.648   0.924  11.630
59649SOL    HW180786  10.601   0.881  11.702
59649SOL    HW280787  10.660   0.855  11.565
59650SOL     OW80788   4.100   5.714  10.500
59650SOL    HW180789   4.158   5.657  10.449
59650SOL    HW280790   4.013   5.697  10.466
59651SOL     OW80791   7.250   0.768   8.183
59651SOL    HW180792   7.180   0.716   8.224
59651SOL    HW280793   7.264   0.726   8.099
59652SOL     OW80794   6.711   7.385  12.477
59652SOL    HW180795   6.719   7.477  12.450
59652SOL    HW280796   6.643   7.385  12.544
59653SOL     OW80797   5.768   8.792  13.838
59653SOL    HW180798   5.695   8.744  13.800
59653SOL    HW280799   5.788   8.861  13.775
59654SOL     OW80800   5.317  10.650   9.068
59654SOL    HW180801   5.260  10.646   9.145
59654SOL    HW280802   5.257  10.654   8.994
59655SOL     OW80803   2.457   0.061   6.228
59655SOL    HW180804   2.465   0.148   6.267
59655SOL    HW280805   2.408   0.010   6.292
59656SOL     OW80806   7.695   4.221   7.478
59656SOL    HW180807   7.704   4.298   7.421
59656SOL    HW280808   7.615   4.237   7.528
59657SOL     OW80809   0.158  13.910   3.609
59657SOL    HW180810   0.098  13.949   3.545
59657SOL    HW280811   0.106  13.903   3.689
59658SOL     OW80812  10.978   2.505   0.608
59658SOL    HW180813  10.884   2.515   0.594
59658SOL    HW280814  10.992   2.529   0.700
59659SOL     OW80815   6.821   8.958  11.274
59659SOL    HW180816   6.914   8.936  11.269
59659SOL    HW280817   6.819   9.054  11.273
59660SOL     OW80818  14.818  13.981   7.951
59660SOL    HW180819  14.841  13.997   7.859
59660SOL    HW280820  14.768  14.057   7.977
59661SOL     OW80821  14.730  10.258   0.654
59661SOL    HW180822  14.798  10.216   0.707
59661SOL    HW280823  14.766  10.260   0.565
59662SOL     OW80824  12.852   1.062  11.834
59662SOL    HW180825  12.893   1.029  11.754
59662SOL    HW280826  12.763   1.027  11.832
59663SOL     OW80827  10.752   5.654   9.486
59663SOL    HW180828  10.815   5.594   9.526
59663SOL    HW280829  10.688   5.597   9.443
59664SOL     OW80830   2.970  13.211   3.519
59664SOL    HW180831   2.897  13.152   3.537
59664SOL    HW280832   2.929  13.288   3.479
59665SOL     OW80833   4.464  14.777  14.519
59665SOL    HW180834   4.439  14.869  14.511
59665SOL    HW280835   4.554  14.780  14.553
59666SOL     OW80836   7.014  13.393   0.936
59666SOL    HW180837   7.073  13.360   0.867
59666SOL    HW280838   6.926  13.373   0.903
59667SOL     OW80839  11.001  11.441  13.115
59667SOL    HW180840  10.970  11.383  13.184
59667SOL    HW280841  11.078  11.396  13.079
59668SOL     OW80842  13.734   8.729   5.259
59668SOL    HW180843  13.752   8.791   5.329
59668SOL    HW280844  13.700   8.782   5.188
59669SOL     OW80845   8.305   4.229   3.052
59669SOL    HW180846   8.361   4.160   3.089
59669SOL    HW280847   8.253   4.184   2.986
59670SOL     OW80848   9.739  11.273  12.353
59670SOL    HW180849   9.829  11.241  12.363
59670SOL    HW280850   9.732  11.344  12.416
59671SOL     OW80851   8.520  12.257   2.827
59671SOL    HW180852   8.596  12.314   2.838
59671SOL    HW280853   8.471  12.265   2.909
59672SOL     OW80854   8.728   8.123   7.856
59672SOL    HW180855   8.679   8.080   7.926
59672SOL    HW280856   8.664   8.183   7.816
59673SOL     OW80857   3.848   5.180  13.365
59673SOL    HW180858   3.925   5.168  13.421
59673SOL    HW280859   3.867   5.259  13.315
59674SOL     OW80860   8.206   7.514  14.513
59674SOL    HW180861   8.111   7.524  14.508
59674SOL    HW280862   8.231   7.480  14.427
59675SOL     OW80863   9.081  11.329   9.940
59675SOL    HW180864   9.026  11.394   9.984
59675SOL    HW280865   9.151  11.311  10.002
59676SOL     OW80866  11.303   4.657  13.275
59676SOL    HW180867  11.340   4.746  13.272
59676SOL    HW280868  11.328   4.623  13.360
59677SOL     OW80869   4.509   7.462   8.422
59677SOL    HW180870   4.559   7.462   8.340
59677SOL    HW280871   4.419   7.476   8.394
59678SOL     OW80872   5.995  10.168   7.105
59678SOL    HW180873   6.001  10.240   7.042
59678SOL    HW280874   6.076  10.118   7.092
59679SOL     OW80875   2.555  14.634  11.031
59679SOL    HW180876   2.565  14.549  10.988
59679SOL    HW280877   2.607  14.694  10.978
59680SOL     OW80878   1.122   4.268  14.202
59680SOL    HW180879   1.101   4.361  14.202
59680SOL    HW280880   1.038   4.224  14.186
59681SOL     OW80881   1.649   2.843   0.457
59681SOL    HW180882   1.688   2.766   0.416
59681SOL    HW280883   1.563   2.812   0.488
59682SOL     OW80884   8.449  11.307  10.040
59682SOL    HW180885   8.536  11.269  10.036
59682SOL    HW280886   8.404  11.272   9.963
59683SOL     OW80887   2.560   9.968  12.384
59683SOL    HW180888   2.561   9.973  12.480
59683SOL    HW280889   2.512  10.047  12.357
59684SOL     OW80890   6.323  11.707   1.885
59684SOL    HW180891   6.243  11.658   1.869
59684SOL    HW280892   6.294  11.793   1.915
59685SOL     OW80893   3.648  10.074  12.721
59685SOL    HW180894   3.666  10.066  12.814
59685SOL    HW280895   3.733  10.064  12.679
59686SOL     OW80896  11.202   9.618   2.643
59686SOL    HW180897  11.260   9.687   2.609
59686SOL    HW280898  11.257   9.540   2.645
59687SOL     OW80899   9.675   2.370   9.902
59687SOL    HW180900   9.712   2.313   9.970
59687SOL    HW280901   9.617   2.429   9.950
59688SOL     OW80902   1.938   9.251   3.210
59688SOL    HW180903   1.973   9.288   3.129
59688SOL    HW280904   1.848   9.228   3.189
59689SOL     OW80905   6.391   3.524  12.749
59689SOL    HW180906   6.424   3.594  12.806
59689SOL    HW280907   6.358   3.570  12.672
59690SOL     OW80908   0.879   1.755   2.207
59690SOL    HW180909   0.849   1.772   2.118
59690SOL    HW280910   0.864   1.661   2.220
59691SOL     OW80911   3.956   7.604  12.249
59691SOL    HW180912   3.911   7.663  12.309
59691SOL    HW280913   3.885   7.554  12.208
59692SOL     OW80914   4.250  11.192   8.109
59692SOL    HW180915   4.172  11.142   8.132
59692SOL    HW280916   4.240  11.275   8.156
59693SOL     OW80917   2.860   6.594  14.266
59693SOL    HW180918   2.779   6.634  14.297
59693SOL    HW280919   2.842   6.500  14.268
59694SOL     OW80920  11.305   1.668   8.249
59694SOL    HW180921  11.263   1.722   8.182
59694SOL    HW280922  11.398   1.667   8.223
59695SOL     OW80923   8.000   7.586  12.076
59695SOL    HW180924   7.916   7.629  12.093
59695SOL    HW280925   7.992   7.500  12.118
59696SOL     OW80926   9.175   3.144  10.357
59696SOL    HW180927   9.137   3.194  10.285
59696SOL    HW280928   9.227   3.207  10.405
59697SOL     OW80929   1.534   3.164  14.481
59697SOL    HW180930   1.484   3.124  14.410
59697SOL    HW280931   1.468   3.199  14.541
59698SOL     OW80932   4.160   1.966   4.948
59698SOL    HW180933   4.139   2.020   4.872
59698SOL    HW280934   4.105   2.001   5.018
59699SOL     OW80935   0.622  13.325   5.898
59699SOL    HW180936   0.686  13.253   5.897
59699SOL    HW280937   0.646  13.376   5.975
59700SOL     OW80938  12.535   0.858   1.035
59700SOL    HW180939  12.591   0.873   1.111
59700SOL    HW280940  12.447   0.850   1.072
59701SOL     OW80941   2.651   3.610   7.244
59701SOL    HW180942   2.599   3.571   7.314
59701SOL    HW280943   2.662   3.540   7.180
59702SOL     OW80944  14.474   5.527  13.513
59702SOL    HW180945  14.438   5.439  13.499
59702SOL    HW280946  14.509   5.552  13.427
59703SOL     OW80947   6.776   4.255   1.503
59703SOL    HW180948   6.737   4.184   1.554
59703SOL    HW280949   6.709   4.278   1.439
59704SOL     OW80950   6.536   1.448  13.582
59704SOL    HW180951   6.557   1.355  13.576
59704SOL    HW280952   6.592   1.480  13.652
59705SOL     OW80953  13.641   0.184   9.356
59705SOL    HW180954  13.639   0.271   9.315
59705SOL    HW280955  13.562   0.182   9.411
59706SOL     OW80956   7.832   9.545   8.780
59706SOL    HW180957   7.870   9.463   8.748
59706SOL    HW280958   7.751   9.519   8.824
59707SOL     OW80959   7.674   6.481  14.224
59707SOL    HW180960   7.629   6.561  14.251
59707SOL    HW280961   7.765   6.495  14.248
59708SOL     OW80962  13.166  12.813   0.295
59708SOL    HW180963  13.154  12.837   0.203
59708SOL    HW280964  13.237  12.749   0.294
59709SOL     OW80965   9.211   7.371   7.562
59709SOL    HW180966   9.299   7.390   7.532
59709SOL    HW280967   9.213   7.387   7.657
59710SOL     OW80968   1.417   9.594   4.442
59710SOL    HW180969   1.336   9.643   4.428
59710SOL    HW280970   1.387   9.505   4.462
59711SOL     OW80971   8.518   1.893   4.119
59711SOL    HW180972   8.445   1.925   4.172
59711SOL    HW280973   8.505   1.798   4.115
59712SOL     OW80974  12.381   9.261   4.923
59712SOL    HW180975  12.401   9.348   4.889
59712SOL    HW280976  12.335   9.278   5.006
59713SOL     OW80977  13.712  13.040   1.074
59713SOL    HW180978  13.741  12.960   1.119
59713SOL    HW280979  13.646  13.011   1.013
59714SOL     OW80980   6.426   9.217   7.515
59714SOL    HW180981   6.432   9.150   7.447
59714SOL    HW280982   6.509   9.212   7.561
59715SOL     OW80983  13.348   0.057  14.699
59715SOL    HW180984  13.334   0.149  14.679
59715SOL    HW280985  13.332   0.049  14.793
59716SOL     OW80986   2.462  10.559  14.138
59716SOL    HW180987   2.396  10.541  14.071
59716SOL    HW280988   2.543  10.521  14.104
59717SOL     OW80989   1.503   7.223  12.071
59717SOL    HW180990   1.590   7.238  12.107
59717SOL    HW280991   1.515   7.153  12.006
59718SOL     OW80992   1.419   2.221   5.674
59718SOL    HW180993   1.325   2.206   5.666
59718SOL    HW280994   1.441   2.189   5.762
59719SOL     OW80995   5.530  10.933  10.490
59719SOL    HW180996   5.459  10.962  10.433
59719SOL    HW280997   5.557  10.849  10.454
59720SOL     OW80998   2.279   4.903  13.453
59720SOL    HW180999   2.321   4.828  13.411
59720SOL    HW281000   2.196   4.868  13.486
59721SOL     OW81001   4.979   3.157   3.717
59721SOL    HW181002   5.018   3.094   3.657
59721SOL    HW281003   4.965   3.236   3.664
59722SOL     OW81004   9.409   8.437   7.077
59722SOL    HW181005   9.478   8.431   7.144
59722SOL    HW281006   9.328   8.421   7.125
59723SOL     OW81007  11.544  11.082   2.043
59723SOL    HW181008  11.610  11.139   2.082
59723SOL    HW281009  11.588  10.998   2.031
59724SOL     OW81010  12.219   0.364   1.700
59724SOL    HW181011  12.297   0.324   1.739
59724SOL    HW281012  12.161   0.290   1.682
59725SOL     OW81013   4.301   9.436   9.771
59725SOL    HW181014   4.380   9.490   9.765
59725SOL    HW281015   4.331   9.354   9.811
59726SOL     OW81016  11.628   1.471   9.490
59726SOL    HW181017  11.576   1.440   9.415
59726SOL    HW281018  11.633   1.566   9.478
59727SOL     OW81019  10.533   8.943  12.220
59727SOL    HW181020  10.505   8.892  12.296
59727SOL    HW281021  10.593   9.008  12.256
59728SOL     OW81022   5.114   7.453   5.124
59728SOL    HW181023   5.166   7.423   5.050
59728SOL    HW281024   5.087   7.542   5.099
59729SOL     OW81025   2.639   7.188   1.091
59729SOL    HW181026   2.701   7.141   1.146
59729SOL    HW281027   2.692   7.228   1.023
59730SOL     OW81028   9.751  14.482  11.003
59730SOL    HW181029   9.752  14.442  11.090
59730SOL    HW281030   9.721  14.412  10.944
59731SOL     OW81031   7.825  14.718  10.903
59731SOL    HW181032   7.768  14.722  10.826
59731SOL    HW281033   7.774  14.759  10.973
59732SOL     OW81034   5.105  11.542   9.473
59732SOL    HW181035   5.039  11.520   9.539
59732SOL    HW281036   5.070  11.620   9.430
59733SOL     OW81037  10.248  11.425   9.301
59733SOL    HW181038  10.178  11.476   9.342
59733SOL    HW281039  10.264  11.468   9.217
59734SOL     OW81040   3.835  13.560   3.859
59734SOL    HW181041   3.864  13.646   3.889
59734SOL    HW281042   3.770  13.532   3.923
59735SOL     OW81043  11.562  13.691   6.861
59735SOL    HW181044  11.504  13.639   6.917
59735SOL    HW281045  11.581  13.770   6.913
59736SOL     OW81046   6.844   6.155   0.742
59736SOL    HW181047   6.882   6.157   0.654
59736SOL    HW281048   6.862   6.242   0.778
59737SOL     OW81049  11.116   1.245   7.858
59737SOL    HW181050  11.203   1.283   7.850
59737SOL    HW281051  11.057   1.315   7.829
59738SOL     OW81052   4.174   2.152   2.582
59738SOL    HW181053   4.139   2.185   2.499
59738SOL    HW281054   4.231   2.080   2.557
59739SOL     OW81055  13.875   3.578   9.580
59739SOL    HW181056  13.811   3.590   9.509
59739SOL    HW281057  13.899   3.667   9.605
59740SOL     OW81058   6.994   2.298   4.458
59740SOL    HW181059   7.076   2.253   4.476
59740SOL    HW281060   6.934   2.269   4.527
59741SOL     OW81061  11.825  13.179   0.843
59741SOL    HW181062  11.755  13.242   0.860
59741SOL    HW281063  11.903  13.234   0.828
59742SOL     OW81064   7.019   7.898   9.031
59742SOL    HW181065   7.013   7.817   8.981
59742SOL    HW281066   6.999   7.967   8.967
59743SOL     OW81067   0.968   6.867   0.395
59743SOL    HW181068   0.950   6.830   0.309
59743SOL    HW281069   0.888   6.914   0.418
59744SOL     OW81070  14.858   1.717  10.607
59744SOL    HW181071   0.033   1.673  10.537
59744SOL    HW281072  14.775   1.670  10.613
59745SOL     OW81073   8.564   2.257   3.513
59745SOL    HW181074   8.593   2.341   3.479
59745SOL    HW281075   8.476   2.273   3.546
59746SOL     OW81076  12.326  10.061  10.087
59746SOL    HW181077  12.394  10.127  10.075
59746SOL    HW281078  12.244  10.108  10.069
59747SOL     OW81079   1.733   5.347  11.283
59747SOL    HW181080   1.764   5.411  11.219
59747SOL    HW281081   1.655   5.386  11.321
59748SOL     OW81082   3.587   0.303   9.940
59748SOL    HW181083   3.626   0.217   9.954
59748SOL    HW281084   3.659   0.364   9.957
59749SOL     OW81085   8.602   6.817  11.637
59749SOL    HW181086   8.540   6.862  11.580
59749SOL    HW281087   8.587   6.724  11.619
59750SOL     OW81088  13.979  13.394   9.210
59750SOL    HW181089  13.982  13.432   9.297
59750SOL    HW281090  13.899  13.341   9.209
59751SOL     OW81091  12.140  12.251  10.569
59751SOL    HW181092  12.130  12.261  10.474
59751SOL    HW281093  12.221  12.297  10.589
59752SOL     OW81094  11.869   3.819   7.347
59752SOL    HW181095  11.850   3.743   7.292
59752SOL    HW281096  11.834   3.797   7.433
59753SOL     OW81097  11.572   8.340   5.556
59753SOL    HW181098  11.509   8.277   5.591
59753SOL    HW281099  11.590   8.398   5.629
59754SOL     OW81100   8.540  10.142   0.698
59754SOL    HW181101   8.601  10.213   0.717
59754SOL    HW281102   8.454  10.178   0.717
59755SOL     OW81103   9.019   0.146   8.438
59755SOL    HW181104   9.043   0.054   8.453
59755SOL    HW281105   9.103   0.192   8.436
59756SOL     OW81106  12.281   5.753  11.014
59756SOL    HW181107  12.360   5.706  10.988
59756SOL    HW281108  12.266   5.726  11.105
59757SOL     OW81109   6.915  13.493   2.727
59757SOL    HW181110   6.944  13.506   2.817
59757SOL    HW281111   6.996  13.476   2.679
59758SOL     OW81112  11.050   7.030   4.681
59758SOL    HW181113  11.016   7.090   4.615
59758SOL    HW281114  11.127   6.989   4.640
59759SOL     OW81115   1.070  11.879  13.258
59759SOL    HW181116   1.101  11.790  13.239
59759SOL    HW281117   1.024  11.871  13.342
59760SOL     OW81118   7.502   9.950  11.219
59760SOL    HW181119   7.459  10.022  11.173
59760SOL    HW281120   7.493   9.971  11.312
59761SOL     OW81121   7.163  10.367   0.108
59761SOL    HW181122   7.219  10.398   0.179
59761SOL    HW281123   7.198  10.410   0.030
59762SOL     OW81124   6.120  14.376  12.618
59762SOL    HW181125   6.028  14.400  12.625
59762SOL    HW281126   6.122  14.282  12.633
59763SOL     OW81127  13.132   8.763   0.665
59763SOL    HW181128  13.220   8.775   0.630
59763SOL    HW281129  13.114   8.844   0.713
59764SOL     OW81130  10.609   0.545   1.166
59764SOL    HW181131  10.589   0.637   1.183
59764SOL    HW281132  10.566   0.497   1.236
59765SOL     OW81133  13.748  12.138  13.548
59765SOL    HW181134  13.750  12.154  13.454
59765SOL    HW281135  13.840  12.142  13.575
59766SOL     OW81136   8.578   5.282   4.513
59766SOL    HW181137   8.667   5.291   4.547
59766SOL    HW281138   8.588   5.293   4.418
59767SOL     OW81139  11.566  14.037   1.358
59767SOL    HW181140  11.551  14.044   1.264
59767SOL    HW281141  11.514  14.108   1.396
59768SOL     OW81142   7.991   7.452  11.853
59768SOL    HW181143   7.962   7.375  11.903
59768SOL    HW281144   8.003   7.520  11.920
59769SOL     OW81145  13.967   8.485   0.616
59769SOL    HW181146  14.035   8.438   0.666
59769SOL    HW281147  13.891   8.484   0.673
59770SOL     OW81148   0.665   8.792   6.190
59770SOL    HW181149   0.713   8.714   6.163
59770SOL    HW281150   0.582   8.787   6.142
59771SOL     OW81151   3.803   8.411   8.375
59771SOL    HW181152   3.878   8.442   8.324
59771SOL    HW281153   3.842   8.356   8.443
59772SOL     OW81154  10.878  12.185   9.841
59772SOL    HW181155  10.883  12.235   9.759
59772SOL    HW281156  10.904  12.248   9.908
59773SOL     OW81157  14.520   2.813   2.876
59773SOL    HW181158  14.485   2.725   2.864
59773SOL    HW281159  14.552   2.814   2.966
59774SOL     OW81160   0.734  12.411   5.395
59774SOL    HW181161   0.752  12.363   5.476
59774SOL    HW281162   0.640  12.396   5.379
59775SOL     OW81163   6.478  10.155   9.273
59775SOL    HW181164   6.428  10.078   9.299
59775SOL    HW281165   6.423  10.199   9.208
59776SOL     OW81166  12.315   0.597   2.670
59776SOL    HW181167  12.311   0.661   2.599
59776SOL    HW281168  12.223   0.576   2.689
59777SOL     OW81169  11.229   9.949   5.031
59777SOL    HW181170  11.249   9.958   5.124
59777SOL    HW281171  11.179  10.028   5.010
59778SOL     OW81172   1.282  13.151   9.477
59778SOL    HW181173   1.313  13.151   9.567
59778SOL    HW281174   1.331  13.220   9.434
59779SOL     OW81175   2.999   5.561   8.455
59779SOL    HW181176   2.929   5.501   8.427
59779SOL    HW281177   2.964   5.648   8.439
59780SOL     OW81178   0.135   2.980  13.050
59780SOL    HW181179   0.213   2.951  13.098
59780SOL    HW281180   0.073   3.004  13.119
59781SOL     OW81181   8.455  12.186   1.546
59781SOL    HW181182   8.383  12.208   1.604
59781SOL    HW281183   8.533  12.190   1.601
59782SOL     OW81184   2.642   7.040   7.000
59782SOL    HW181185   2.552   7.068   6.986
59782SOL    HW281186   2.641   6.995   7.084
59783SOL     OW81187   4.677   2.474   5.223
59783SOL    HW181188   4.698   2.519   5.142
59783SOL    HW281189   4.599   2.518   5.256
59784SOL     OW81190  14.568   4.824   2.393
59784SOL    HW181191  14.565   4.873   2.475
59784SOL    HW281192  14.494   4.764   2.398
59785SOL     OW81193   1.612  12.233   8.452
59785SOL    HW181194   1.658  12.227   8.536
59785SOL    HW281195   1.574  12.147   8.439
59786SOL     OW81196   5.928   4.270  12.620
59786SOL    HW181197   5.960   4.248  12.707
59786SOL    HW281198   6.000   4.246  12.561
59787SOL     OW81199  12.609   8.800   3.049
59787SOL    HW181200  12.566   8.729   3.001
59787SOL    HW281201  12.696   8.805   3.011
59788SOL     OW81202   8.917   4.625  10.702
59788SOL    HW181203   8.955   4.689  10.761
59788SOL    HW281204   8.862   4.570  10.758
59789SOL     OW81205   9.576   7.841   5.490
59789SOL    HW181206   9.669   7.836   5.511
59789SOL    HW281207   9.538   7.891   5.562
59790SOL     OW81208   5.607   9.069   2.395
59790SOL    HW181209   5.692   9.027   2.408
59790SOL    HW281210   5.559   9.010   2.337
59791SOL     OW81211  10.531   2.468  12.316
59791SOL    HW181212  10.543   2.560  12.340
59791SOL    HW281213  10.505   2.426  12.398
59792SOL     OW81214  12.422  14.327   5.621
59792SOL    HW181215  12.439  14.387   5.694
59792SOL    HW281216  12.361  14.262   5.658
59793SOL     OW81217  13.636   3.097   5.788
59793SOL    HW181218  13.678   3.039   5.853
59793SOL    HW281219  13.578   3.039   5.739
59794SOL     OW81220   3.289   8.625   3.306
59794SOL    HW181221   3.379   8.606   3.332
59794SOL    HW281222   3.267   8.705   3.354
59795SOL     OW81223   9.334  12.247  13.733
59795SOL    HW181224   9.242  12.256  13.757
59795SOL    HW281225   9.342  12.158  13.699
59796SOL     OW81226  10.596  10.273   8.605
59796SOL    HW181227  10.508  10.294   8.575
59796SOL    HW281228  10.604  10.179   8.593
59797SOL     OW81229  11.155  10.695   6.720
59797SOL    HW181230  11.157  10.655   6.633
59797SOL    HW281231  11.066  10.681   6.751
59798SOL     OW81232  11.893   2.065  12.602
59798SOL    HW181233  11.943   2.146  12.608
59798SOL    HW281234  11.821   2.076  12.664
59799SOL     OW81235   8.120   7.191  11.126
59799SOL    HW181236   8.168   7.260  11.080
59799SOL    HW281237   8.178   7.115  11.123
59800SOL     OW81238   1.013   2.029  13.592
59800SOL    HW181239   1.069   2.093  13.548
59800SOL    HW281240   1.053   2.016  13.678
59801SOL     OW81241   3.744   7.818   1.569
59801SOL    HW181242   3.658   7.789   1.601
59801SOL    HW281243   3.753   7.778   1.483
59802SOL     OW81244   0.990   6.981  10.055
59802SOL    HW181245   0.922   6.926  10.016
59802SOL    HW281246   1.012   7.044   9.986
59803SOL     OW81247   4.482  14.852   0.502
59803SOL    HW181248   4.503   0.070   0.522
59803SOL    HW281249   4.468  14.850   0.407
59804SOL     OW81250  10.923  13.608   6.009
59804SOL    HW181251  10.892  13.677   6.068
59804SOL    HW281252  10.975  13.654   5.944
59805SOL     OW81253  10.521  10.298   1.171
59805SOL    HW181254  10.457  10.292   1.100
59805SOL    HW281255  10.537  10.207   1.197
59806SOL     OW81256   9.317   9.032   4.978
59806SOL    HW181257   9.289   9.085   5.053
59806SOL    HW281258   9.358   9.095   4.919
59807SOL     OW81259   6.566   1.899   3.519
59807SOL    HW181260   6.575   1.844   3.596
59807SOL    HW281261   6.556   1.988   3.554
59808SOL     OW81262  13.688   8.829  12.070
59808SOL    HW181263  13.660   8.866  11.986
59808SOL    HW281264  13.675   8.899  12.133
59809SOL     OW81265   4.815  13.217   3.374
59809SOL    HW181266   4.836  13.257   3.290
59809SOL    HW281267   4.877  13.145   3.383
59810SOL     OW81268  13.710  12.353  11.301
59810SOL    HW181269  13.739  12.416  11.367
59810SOL    HW281270  13.789  12.334  11.250
59811SOL     OW81271   3.868   2.008   8.114
59811SOL    HW181272   3.962   2.020   8.103
59811SOL    HW281273   3.828   2.064   8.047
59812SOL     OW81274   6.601   5.001   1.834
59812SOL    HW181275   6.569   5.016   1.745
59812SOL    HW281276   6.630   4.910   1.834
59813SOL     OW81277   3.082   6.817   9.773
59813SOL    HW181278   3.054   6.887   9.832
59813SOL    HW281279   3.002   6.769   9.752
59814SOL     OW81280   4.298   6.927  10.628
59814SOL    HW181281   4.280   6.876  10.549
59814SOL    HW281282   4.272   6.869  10.700
59815SOL     OW81283   9.238   6.704  13.192
59815SOL    HW181284   9.232   6.697  13.097
59815SOL    HW281285   9.148   6.696  13.223
59816SOL     OW81286  11.033   9.110   3.211
59816SOL    HW181287  10.957   9.054   3.202
59816SOL    HW281288  11.082   9.073   3.285
59817SOL     OW81289  14.089   8.911   2.437
59817SOL    HW181290  14.057   8.824   2.461
59817SOL    HW281291  14.009   8.964   2.429
59818SOL     OW81292   6.059  12.541   0.322
59818SOL    HW181293   6.019  12.605   0.262
59818SOL    HW281294   6.103  12.479   0.264
59819SOL     OW81295   6.371   9.344   5.316
59819SOL    HW181296   6.431   9.418   5.311
59819SOL    HW281297   6.408   9.278   5.258
59820SOL     OW81298   4.890   3.012  14.194
59820SOL    HW181299   4.975   2.988  14.231
59820SOL    HW281300   4.871   2.942  14.131
59821SOL     OW81301  11.890   5.433   0.701
59821SOL    HW181302  11.862   5.350   0.662
59821SOL    HW281303  11.819   5.456   0.761
59822SOL     OW81304   8.028   4.355   3.140
59822SOL    HW181305   8.111   4.342   3.094
59822SOL    HW281306   8.053   4.363   3.232
59823SOL     OW81307  12.153  13.042   6.001
59823SOL    HW181308  12.215  13.021   5.931
59823SOL    HW281309  12.134  13.135   5.989
59824SOL     OW81310   5.948  10.740   1.361
59824SOL    HW181311   6.035  10.778   1.353
59824SOL    HW281312   5.896  10.809   1.403
59825SOL     OW81313   4.537   7.588   8.972
59825SOL    HW181314   4.560   7.495   8.964
59825SOL    HW281315   4.455   7.587   9.022
59826SOL     OW81316  13.326  12.990   8.839
59826SOL    HW181317  13.347  12.960   8.928
59826SOL    HW281318  13.271  12.921   8.803
59827SOL     OW81319   4.603  12.605  14.659
59827SOL    HW181320   4.663  12.662  14.708
59827SOL    HW281321   4.595  12.647  14.574
59828SOL     OW81322   4.541  11.761  11.574
59828SOL    HW181323   4.495  11.742  11.493
59828SOL    HW281324   4.557  11.855  11.572
59829SOL     OW81325  14.371   3.067   5.326
59829SOL    HW181326  14.310   3.131   5.290
59829SOL    HW281327  14.426   3.042   5.252
59830SOL     OW81328  13.442  11.860   7.626
59830SOL    HW181329  13.449  11.851   7.721
59830SOL    HW281330  13.525  11.827   7.592
59831SOL     OW81331  13.220   2.092  10.542
59831SOL    HW181332  13.232   2.026  10.610
59831SOL    HW281333  13.287   2.158  10.561
59832SOL     OW81334   7.420   8.416  14.750
59832SOL    HW181335   7.448   8.482  14.686
59832SOL    HW281336   7.427   8.333  14.703
59833SOL     OW81337  11.935  11.213  12.863
59833SOL    HW181338  11.862  11.254  12.817
59833SOL    HW281339  11.949  11.270  12.939
59834SOL     OW81340   5.378  14.636  11.848
59834SOL    HW181341   5.389  14.574  11.920
59834SOL    HW281342   5.407  14.589  11.770
59835SOL     OW81343   6.860   9.455  13.644
59835SOL    HW181344   6.785   9.488  13.693
59835SOL    HW281345   6.836   9.364  13.624
59836SOL     OW81346  14.327   7.418   5.833
59836SOL    HW181347  14.241   7.393   5.866
59836SOL    HW281348  14.343   7.360   5.759
59837SOL     OW81349   9.135  13.087  14.117
59837SOL    HW181350   9.102  13.171  14.149
59837SOL    HW281351   9.065  13.053  14.061
59838SOL     OW81352   2.421   8.111   1.629
59838SOL    HW181353   2.326   8.124   1.625
59838SOL    HW281354   2.458   8.198   1.614
59839SOL     OW81355   1.847   4.568  12.604
59839SOL    HW181356   1.773   4.616  12.642
59839SOL    HW281357   1.915   4.572  12.670
59840SOL     OW81358  14.075   8.869  11.368
59840SOL    HW181359  14.060   8.786  11.322
59840SOL    HW281360  14.118   8.843  11.449
59841SOL     OW81361   7.769   5.121   3.210
59841SOL    HW181362   7.828   5.148   3.140
59841SOL    HW281363   7.825   5.120   3.288
59842SOL     OW81364  14.532   3.127  12.923
59842SOL    HW181365  14.478   3.189  12.972
59842SOL    HW281366  14.621   3.142  12.956
59843SOL     OW81367   8.928   7.861   4.288
59843SOL    HW181368   8.963   7.950   4.284
59843SOL    HW281369   8.838   7.872   4.318
59844SOL     OW81370   8.867   5.830   9.229
59844SOL    HW181371   8.812   5.787   9.294
59844SOL    HW281372   8.920   5.891   9.280
59845SOL     OW81373   3.221  14.708   4.271
59845SOL    HW181374   3.283  14.636   4.285
59845SOL    HW281375   3.258  14.759   4.199
59846SOL     OW81376   9.739  10.550   7.064
59846SOL    HW181377   9.752  10.597   7.146
59846SOL    HW281378   9.735  10.619   6.997
59847SOL     OW81379  11.478  14.632   9.876
59847SOL    HW181380  11.540  14.703   9.891
59847SOL    HW281381  11.392  14.674   9.887
59848SOL     OW81382   8.618   4.870   7.698
59848SOL    HW181383   8.712   4.876   7.711
59848SOL    HW281384   8.597   4.941   7.637
59849SOL     OW81385  12.537  10.805   6.011
59849SOL    HW181386  12.451  10.766   6.025
59849SOL    HW281387  12.523  10.899   6.019
59850SOL     OW81388  11.832  11.469   1.489
59850SOL    HW181389  11.752  11.442   1.445
59850SOL    HW281390  11.874  11.387   1.515
59851SOL     OW81391   7.699   1.174  13.183
59851SOL    HW181392   7.660   1.108  13.126
59851SOL    HW281393   7.719   1.247  13.125
59852SOL     OW81394  11.807   2.812  10.378
59852SOL    HW181395  11.869   2.865  10.327
59852SOL    HW281396  11.752   2.769  10.313
59853SOL     OW81397   8.236  10.409  13.999
59853SOL    HW181398   8.233  10.316  14.021
59853SOL    HW281399   8.246  10.453  14.084
59854SOL     OW81400   7.414   1.537  11.550
59854SOL    HW181401   7.363   1.461  11.521
59854SOL    HW281402   7.457   1.568  11.471
59855SOL     OW81403   8.236   6.644   9.756
59855SOL    HW181404   8.188   6.726   9.766
59855SOL    HW281405   8.201   6.606   9.675
59856SOL     OW81406   1.429   0.643   4.501
59856SOL    HW181407   1.372   0.671   4.572
59856SOL    HW281408   1.382   0.667   4.421
59857SOL     OW81409   1.107   7.931   3.868
59857SOL    HW181410   1.170   7.878   3.917
59857SOL    HW281411   1.060   7.867   3.814
59858SOL     OW81412   0.054  11.417  13.051
59858SOL    HW181413   0.138  11.386  13.018
59858SOL    HW281414   0.058  11.405  13.146
59859SOL     OW81415   3.173   5.546   3.866
59859SOL    HW181416   3.237   5.510   3.805
59859SOL    HW281417   3.090   5.506   3.839
59860SOL     OW81418  12.883   7.746   6.247
59860SOL    HW181419  12.937   7.820   6.219
59860SOL    HW281420  12.824   7.783   6.313
59861SOL     OW81421   0.941  11.283   6.238
59861SOL    HW181422   0.972  11.282   6.329
59861SOL    HW281423   1.017  11.314   6.188
59862SOL     OW81424   3.686  11.698  12.811
59862SOL    HW181425   3.594  11.702  12.835
59862SOL    HW281426   3.693  11.756  12.735
59863SOL     OW81427  12.729   1.233  10.194
59863SOL    HW181428  12.774   1.157  10.156
59863SOL    HW281429  12.797   1.300  10.200
59864SOL     OW81430   9.781   2.511  12.058
59864SOL    HW181431   9.694   2.471  12.064
59864SOL    HW281432   9.773   2.593  12.106
59865SOL     OW81433   3.841  10.391   5.476
59865SOL    HW181434   3.887  10.321   5.522
59865SOL    HW281435   3.910  10.455   5.455
59866SOL     OW81436  11.674   3.957   5.031
59866SOL    HW181437  11.617   3.926   4.961
59866SOL    HW281438  11.619   3.956   5.110
59867SOL     OW81439   7.240   8.189  11.578
59867SOL    HW181440   7.206   8.100  11.588
59867SOL    HW281441   7.182   8.230  11.514
59868SOL     OW81442   0.420   3.730  10.051
59868SOL    HW181443   0.377   3.718  10.136
59868SOL    HW281444   0.404   3.821  10.028
59869SOL     OW81445   2.436   2.275  10.478
59869SOL    HW181446   2.486   2.336  10.531
59869SOL    HW281447   2.439   2.192  10.526
59870SOL     OW81448   6.537  12.127   6.889
59870SOL    HW181449   6.514  12.216   6.860
59870SOL    HW281450   6.605  12.100   6.827
59871SOL     OW81451  11.049  10.533   2.880
59871SOL    HW181452  10.983  10.600   2.892
59871SOL    HW281453  11.124  10.564   2.931
59872SOL     OW81454   9.453   2.272   3.684
59872SOL    HW181455   9.388   2.307   3.623
59872SOL    HW281456   9.451   2.332   3.759
59873SOL     OW81457   6.417   3.487   6.268
59873SOL    HW181458   6.478   3.514   6.337
59873SOL    HW281459   6.350   3.437   6.314
59874SOL     OW81460  14.026   6.887   6.444
59874SOL    HW181461  13.975   6.849   6.516
59874SOL    HW281462  14.074   6.812   6.407
59875SOL     OW81463   2.866   2.652   5.354
59875SOL    HW181464   2.870   2.741   5.390
59875SOL    HW281465   2.901   2.596   5.423
59876SOL     OW81466  13.318   8.124   0.191
59876SOL    HW181467  13.372   8.137   0.269
59876SOL    HW281468  13.347   8.191   0.130
59877SOL     OW81469   6.390   4.998  14.449
59877SOL    HW181470   6.454   4.929  14.467
59877SOL    HW281471   6.403   5.019  14.357
59878SOL     OW81472   3.616  11.073  10.362
59878SOL    HW181473   3.705  11.109  10.364
59878SOL    HW281474   3.562  11.139  10.406
59879SOL     OW81475   8.678   4.088   1.833
59879SOL    HW181476   8.761   4.110   1.875
59879SOL    HW281477   8.686   3.996   1.809
59880SOL     OW81478   3.715   1.717   7.510
59880SOL    HW181479   3.715   1.741   7.417
59880SOL    HW281480   3.770   1.638   7.514
59881SOL     OW81481   4.961   0.626  12.544
59881SOL    HW181482   5.042   0.666  12.576
59881SOL    HW281483   4.989   0.543  12.507
59882SOL     OW81484  14.445   7.231   7.322
59882SOL    HW181485  14.366   7.274   7.290
59882SOL    HW281486  14.505   7.302   7.343
59883SOL     OW81487   9.511   2.270   9.386
59883SOL    HW181488   9.515   2.364   9.366
59883SOL    HW281489   9.576   2.257   9.455
59884SOL     OW81490   3.656  12.818   7.942
59884SOL    HW181491   3.691  12.903   7.969
59884SOL    HW281492   3.711  12.754   7.988
59885SOL     OW81493  10.036  14.754   8.254
59885SOL    HW181494  10.062  14.846   8.254
59885SOL    HW281495  10.031  14.731   8.161
59886SOL     OW81496   5.127   1.596   6.188
59886SOL    HW181497   5.135   1.580   6.282
59886SOL    HW281498   5.217   1.603   6.157
59887SOL     OW81499   0.216   9.261  11.635
59887SOL    HW181500   0.127   9.255  11.671
59887SOL    HW281501   0.252   9.341  11.674
59888SOL     OW81502   2.781  10.024   5.225
59888SOL    HW181503   2.812  10.113   5.212
59888SOL    HW281504   2.841   9.986   5.288
59889SOL     OW81505   2.720   9.296   1.884
59889SOL    HW181506   2.816   9.291   1.881
59889SOL    HW281507   2.701   9.389   1.884
59890SOL     OW81508   0.864   3.013  10.328
59890SOL    HW181509   0.782   2.968  10.348
59890SOL    HW281510   0.930   2.943  10.328
59891SOL     OW81511   3.374  10.805  12.245
59891SOL    HW181512   3.288  10.845  12.229
59891SOL    HW281513   3.354  10.722  12.288
59892SOL     OW81514   1.756   6.260   3.230
59892SOL    HW181515   1.751   6.337   3.173
59892SOL    HW281516   1.666   6.248   3.261
59893SOL     OW81517   0.073  14.596   2.588
59893SOL    HW181518   0.092  14.627   2.499
59893SOL    HW281519   0.095  14.502   2.586
59894SOL     OW81520  12.145   5.341  10.426
59894SOL    HW181521  12.192   5.410  10.379
59894SOL    HW281522  12.055   5.372  10.432
59895SOL     OW81523   1.815   7.525   1.519
59895SOL    HW181524   1.904   7.534   1.554
59895SOL    HW281525   1.796   7.610   1.480
59896SOL     OW81526  14.385   3.348   8.417
59896SOL    HW181527  14.314   3.398   8.457
59896SOL    HW281528  14.344   3.300   8.345
59897SOL     OW81529   1.293   7.391  10.378
59897SOL    HW181530   1.342   7.394  10.296
59897SOL    HW281531   1.285   7.298  10.398
59898SOL     OW81532   0.509   7.568   8.943
59898SOL    HW181533   0.600   7.596   8.954
59898SOL    HW281534   0.457   7.636   8.985
59899SOL     OW81535  11.329   6.800  14.424
59899SOL    HW181536  11.336   6.878  14.480
59899SOL    HW281537  11.329   6.727  14.486
59900SOL     OW81538   4.713   2.145  11.714
59900SOL    HW181539   4.777   2.165  11.646
59900SOL    HW281540   4.709   2.223  11.768
59901SOL     OW81541   0.598   1.427  10.349
59901SOL    HW181542   0.518   1.469  10.382
59901SOL    HW281543   0.611   1.351  10.406
59902SOL     OW81544   0.619   3.680   5.082
59902SOL    HW181545   0.621   3.775   5.087
59902SOL    HW281546   0.708   3.653   5.104
59903SOL     OW81547   6.024   9.325   6.530
59903SOL    HW181548   6.068   9.399   6.571
59903SOL    HW281549   6.072   9.311   6.448
59904SOL     OW81550  11.354  12.654   7.342
59904SOL    HW181551  11.388  12.678   7.428
59904SOL    HW281552  11.432  12.630   7.291
59905SOL     OW81553   0.104   3.045  12.164
59905SOL    HW181554   0.045   2.971  12.149
59905SOL    HW281555   0.069   3.089  12.242
59906SOL     OW81556   3.393  12.515   8.870
59906SOL    HW181557   3.363  12.600   8.837
59906SOL    HW281558   3.487  12.527   8.886
59907SOL     OW81559   2.712  12.244   5.259
59907SOL    HW181560   2.737  12.325   5.214
59907SOL    HW281561   2.793  12.194   5.266
59908SOL     OW81562   0.835   2.158   5.571
59908SOL    HW181563   0.889   2.209   5.511
59908SOL    HW281564   0.752   2.146   5.525
59909SOL     OW81565   2.753   2.835   5.995
59909SOL    HW181566   2.842   2.864   5.975
59909SOL    HW281567   2.757   2.811   6.088
59910SOL     OW81568   5.702   3.474   1.599
59910SOL    HW181569   5.719   3.392   1.645
59910SOL    HW281570   5.775   3.482   1.538
59911SOL     OW81571  14.063   0.624   2.721
59911SOL    HW181572  14.119   0.547   2.719
59911SOL    HW281573  14.123   0.698   2.707
59912SOL     OW81574   9.742   9.663  13.423
59912SOL    HW181575   9.650   9.651  13.399
59912SOL    HW281576   9.744   9.646  13.517
59913SOL     OW81577   0.102   5.389   0.357
59913SOL    HW181578   0.086   5.421   0.268
59913SOL    HW281579   0.024   5.337   0.377
59914SOL     OW81580   4.934   3.418   6.126
59914SOL    HW181581   5.009   3.406   6.184
59914SOL    HW281582   4.920   3.332   6.087
59915SOL     OW81583   9.027   1.597  14.663
59915SOL    HW181584   9.117   1.598  14.694
59915SOL    HW281585   9.014   1.510  14.626
59916SOL     OW81586   7.707  11.610   1.482
59916SOL    HW181587   7.638  11.629   1.545
59916SOL    HW281588   7.750  11.694   1.467
59917SOL     OW81589  11.521   7.375   6.567
59917SOL    HW181590  11.519   7.359   6.661
59917SOL    HW281591  11.594   7.436   6.554
59918SOL     OW81592   8.379  14.346   3.531
59918SOL    HW181593   8.385  14.256   3.497
59918SOL    HW281594   8.468  14.380   3.523
59919SOL     OW81595   7.827  11.476  14.077
59919SOL    HW181596   7.792  11.433  13.999
59919SOL    HW281597   7.864  11.405  14.129
59920SOL     OW81598   7.549  13.725   0.969
59920SOL    HW181599   7.551  13.776   1.050
59920SOL    HW281600   7.639  13.692   0.960
59921SOL     OW81601   9.524   1.035   6.072
59921SOL    HW181602   9.478   0.953   6.056
59921SOL    HW281603   9.476   1.076   6.144
59922SOL     OW81604   0.115   2.216   8.642
59922SOL    HW181605   0.076   2.169   8.569
59922SOL    HW281606   0.125   2.149   8.710
59923SOL     OW81607  10.004   6.818  11.699
59923SOL    HW181608   9.970   6.729  11.690
59923SOL    HW281609   9.973   6.864  11.621
59924SOL     OW81610  11.285  13.987   7.447
59924SOL    HW181611  11.270  13.968   7.355
59924SOL    HW281612  11.377  14.015   7.451
59925SOL     OW81613   9.605   6.018   1.417
59925SOL    HW181614   9.528   6.041   1.468
59925SOL    HW281615   9.657   5.963   1.476
59926SOL     OW81616   8.367  12.107  11.313
59926SOL    HW181617   8.328  12.054  11.244
59926SOL    HW281618   8.428  12.165  11.266
59927SOL     OW81619   5.738   7.055  12.702
59927SOL    HW181620   5.682   6.979  12.717
59927SOL    HW281621   5.776   7.074  12.788
59928SOL     OW81622   6.396   3.746  10.823
59928SOL    HW181623   6.367   3.661  10.855
59928SOL    HW281624   6.343   3.809  10.871
59929SOL     OW81625  12.293   3.657   9.747
59929SOL    HW181626  12.250   3.660   9.661
59929SOL    HW281627  12.379   3.619   9.729
59930SOL     OW81628  12.986   1.584   2.285
59930SOL    HW181629  13.032   1.666   2.264
59930SOL    HW281630  12.944   1.558   2.204
59931SOL     OW81631   9.729   5.913   5.925
59931SOL    HW181632   9.643   5.914   5.968
59931SOL    HW281633   9.764   6.000   5.940
59932SOL     OW81634  10.296  13.030   2.598
59932SOL    HW181635  10.201  13.034   2.610
59932SOL    HW281636  10.309  12.966   2.527
59933SOL     OW81637   9.520  12.433  10.718
59933SOL    HW181638   9.564  12.381  10.785
59933SOL    HW281639   9.589  12.485  10.678
59934SOL     OW81640   8.313   1.324   1.008
59934SOL    HW181641   8.355   1.314   0.923
59934SOL    HW281642   8.379   1.365   1.064
59935SOL     OW81643  13.222  12.594  11.299
59935SOL    HW181644  13.222  12.509  11.344
59935SOL    HW281645  13.226  12.572  11.206
59936SOL     OW81646  11.698   1.819  13.154
59936SOL    HW181647  11.723   1.896  13.205
59936SOL    HW281648  11.779   1.768  13.147
59937SOL     OW81649   4.344   2.178  14.183
59937SOL    HW181650   4.315   2.246  14.122
59937SOL    HW281651   4.267   2.122  14.194
59938SOL     OW81652   1.908  13.621  11.642
59938SOL    HW181653   1.885  13.671  11.719
59938SOL    HW281654   1.843  13.550  11.639
59939SOL     OW81655  11.507   2.345   0.592
59939SOL    HW181656  11.588   2.397   0.592
59939SOL    HW281657  11.467   2.363   0.507
59940SOL     OW81658   9.113   2.785  10.980
59940SOL    HW181659   9.174   2.802  11.052
59940SOL    HW281660   9.159   2.815  10.902
59941SOL     OW81661  14.522   6.712  14.849
59941SOL    HW181662  14.442   6.721  14.797
59941SOL    HW281663  14.491   6.710   0.066
59942SOL     OW81664   1.674   1.852   2.116
59942SOL    HW181665   1.617   1.909   2.065
59942SOL    HW281666   1.762   1.869   2.082
59943SOL     OW81667  12.274   8.770   4.927
59943SOL    HW181668  12.340   8.716   4.884
59943SOL    HW281669  12.258   8.725   5.010
59944SOL     OW81670   6.970  14.863  12.044
59944SOL    HW181671   6.995  14.776  12.077
59944SOL    HW281672   7.039   0.048  12.076
59945SOL     OW81673   6.362   0.805  13.224
59945SOL    HW181674   6.382   0.884  13.274
59945SOL    HW281675   6.404   0.819  13.139
59946SOL     OW81676   0.370   6.251  11.228
59946SOL    HW181677   0.318   6.331  11.220
59946SOL    HW281678   0.337   6.194  11.159
59947SOL     OW81679  11.295  12.714  11.135
59947SOL    HW181680  11.298  12.657  11.212
59947SOL    HW281681  11.205  12.707  11.104
59948SOL     OW81682  11.421   4.682   2.893
59948SOL    HW181683  11.502   4.722   2.925
59948SOL    HW281684  11.447   4.592   2.872
59949SOL     OW81685   5.627   7.960   1.913
59949SOL    HW181686   5.701   8.021   1.914
59949SOL    HW281687   5.640   7.905   1.991
59950SOL     OW81688  10.798   6.759  12.218
59950SOL    HW181689  10.825   6.706  12.143
59950SOL    HW281690  10.711   6.726  12.240
59951SOL     OW81691  11.663   1.903  12.020
59951SOL    HW181692  11.679   1.814  12.050
59951SOL    HW281693  11.645   1.952  12.100
59952SOL     OW81694   1.140  10.775   8.288
59952SOL    HW181695   1.169  10.854   8.243
59952SOL    HW281696   1.172  10.784   8.378
59953SOL     OW81697  12.463  10.685   1.990
59953SOL    HW181698  12.371  10.711   1.986
59953SOL    HW281699  12.493  10.718   2.075
59954SOL     OW81700   9.742   7.027   6.976
59954SOL    HW181701   9.799   7.096   6.941
59954SOL    HW281702   9.657   7.043   6.935
59955SOL     OW81703   8.989   7.809  13.802
59955SOL    HW181704   8.910   7.786  13.851
59955SOL    HW281705   8.966   7.887  13.753
59956SOL     OW81706  13.232   3.090  12.248
59956SOL    HW181707  13.288   3.014  12.230
59956SOL    HW281708  13.250   3.150  12.176
59957SOL     OW81709   2.161   0.899   1.461
59957SOL    HW181710   2.171   0.902   1.556
59957SOL    HW281711   2.098   0.829   1.445
59958SOL     OW81712   5.912   0.648   3.306
59958SOL    HW181713   5.844   0.645   3.239
59958SOL    HW281714   5.980   0.705   3.269
59959SOL     OW81715   2.848  11.205   7.606
59959SOL    HW181716   2.934  11.196   7.647
59959SOL    HW281717   2.826  11.297   7.616
59960SOL     OW81718   9.271  10.062   3.135
59960SOL    HW181719   9.313  10.037   3.052
59960SOL    HW281720   9.323  10.017   3.202
59961SOL     OW81721  11.596   8.687   6.072
59961SOL    HW181722  11.600   8.773   6.113
59961SOL    HW281723  11.670   8.638   6.109
59962SOL     OW81724  10.919   6.956  14.559
59962SOL    HW181725  10.934   6.976  14.467
59962SOL    HW281726  10.985   7.007  14.606
59963SOL     OW81727   7.304   0.785   1.171
59963SOL    HW181728   7.348   0.865   1.198
59963SOL    HW281729   7.240   0.813   1.106
59964SOL     OW81730  12.403   1.514   7.735
59964SOL    HW181731  12.451   1.588   7.698
59964SOL    HW281732  12.313   1.545   7.742
59965SOL     OW81733   7.242   3.661   7.175
59965SOL    HW181734   7.280   3.697   7.255
59965SOL    HW281735   7.162   3.617   7.205
59966SOL     OW81736   3.391   7.541   9.161
59966SOL    HW181737   3.474   7.509   9.197
59966SOL    HW281738   3.376   7.623   9.207
59967SOL     OW81739   9.917   6.591   1.306
59967SOL    HW181740   9.984   6.559   1.245
59967SOL    HW281741   9.861   6.647   1.253
59968SOL     OW81742  10.596   6.732   6.025
59968SOL    HW181743  10.638   6.690   6.099
59968SOL    HW281744  10.594   6.825   6.047
59969SOL     OW81745  12.193   9.561   4.622
59969SOL    HW181746  12.155   9.642   4.587
59969SOL    HW281747  12.280   9.587   4.652
59970SOL     OW81748   5.602   2.939  11.748
59970SOL    HW181749   5.575   2.862  11.698
59970SOL    HW281750   5.548   3.010  11.714
59971SOL     OW81751   6.400   8.549   1.262
59971SOL    HW181752   6.402   8.463   1.221
59971SOL    HW281753   6.411   8.610   1.188
59972SOL     OW81754  12.654   5.082   4.928
59972SOL    HW181755  12.663   5.159   4.985
59972SOL    HW281756  12.573   5.041   4.957
59973SOL     OW81757   3.119   3.697   8.666
59973SOL    HW181758   3.097   3.615   8.621
59973SOL    HW281759   3.091   3.683   8.757
59974SOL     OW81760  14.347   6.853  12.135
59974SOL    HW181761  14.283   6.811  12.193
59974SOL    HW281762  14.419   6.790  12.128
59975SOL     OW81763  10.758  14.706   4.128
59975SOL    HW181764  10.717  14.622   4.145
59975SOL    HW281765  10.846  14.684   4.097
59976SOL     OW81766   8.143  10.100  14.036
59976SOL    HW181767   8.047  10.096  14.038
59976SOL    HW281768   8.169  10.115  14.127
59977SOL     OW81769   1.039   3.226   3.711
59977SOL    HW181770   1.052   3.303   3.766
59977SOL    HW281771   1.015   3.157   3.772
59978SOL     OW81772  12.660   9.276   2.702
59978SOL    HW181773  12.612   9.225   2.767
59978SOL    HW281774  12.706   9.343   2.753
59979SOL     OW81775  12.357   8.159   5.065
59979SOL    HW181776  12.330   8.164   5.157
59979SOL    HW281777  12.403   8.075   5.059
59980SOL     OW81778   2.764   4.300  10.305
59980SOL    HW181779   2.685   4.323  10.255
59980SOL    HW281780   2.734   4.294  10.396
59981SOL     OW81781  10.668   4.634   4.956
59981SOL    HW181782  10.683   4.558   4.900
59981SOL    HW281783  10.703   4.708   4.906
59982SOL     OW81784  12.336   8.333   3.470
59982SOL    HW181785  12.331   8.251   3.420
59982SOL    HW281786  12.281   8.394   3.421
59983SOL     OW81787  13.774   6.118   5.079
59983SOL    HW181788  13.777   6.203   5.122
59983SOL    HW281789  13.777   6.139   4.985
59984SOL     OW81790   6.573  14.637  10.597
59984SOL    HW181791   6.606  14.558  10.555
59984SOL    HW281792   6.584  14.706  10.531
59985SOL     OW81793  14.121   5.721   0.843
59985SOL    HW181794  14.185   5.765   0.787
59985SOL    HW281795  14.074   5.662   0.785
59986SOL     OW81796  10.476   2.721  12.993
59986SOL    HW181797  10.470   2.742  13.086
59986SOL    HW281798  10.400   2.665  12.976
59987SOL     OW81799  10.856   5.216  14.632
59987SOL    HW181800  10.906   5.138  14.657
59987SOL    HW281801  10.894   5.243  14.549
59988SOL     OW81802   5.240   7.102   9.128
59988SOL    HW181803   5.297   7.138   9.196
59988SOL    HW281804   5.210   7.019   9.164
59989SOL     OW81805   0.543   2.513  10.655
59989SOL    HW181806   0.528   2.436  10.600
59989SOL    HW281807   0.471   2.572  10.634
59990SOL     OW81808   8.126  11.506   9.796
59990SOL    HW181809   8.144  11.454   9.718
59990SOL    HW281810   8.072  11.578   9.765
59991SOL     OW81811   7.967  10.572   0.540
59991SOL    HW181812   8.037  10.541   0.483
59991SOL    HW281813   7.894  10.593   0.480
59992SOL     OW81814   0.415   8.445   3.260
59992SOL    HW181815   0.328   8.422   3.293
59992SOL    HW281816   0.475   8.419   3.329
59993SOL     OW81817  11.568   4.325   4.790
59993SOL    HW181818  11.643   4.368   4.749
59993SOL    HW281819  11.592   4.321   4.883
59994SOL     OW81820  13.474   6.166   8.785
59994SOL    HW181821  13.552   6.116   8.809
59994SOL    HW281822  13.401   6.114   8.819
59995SOL     OW81823   9.421  10.843  13.316
59995SOL    HW181824   9.487  10.899  13.355
59995SOL    HW281825   9.349  10.902  13.293
59996SOL     OW81826  12.770   3.002  13.505
59996SOL    HW181827  12.805   2.989  13.594
59996SOL    HW281828  12.755   3.096  13.499
59997SOL     OW81829   4.524  13.514  14.168
59997SOL    HW181830   4.483  13.600  14.158
59997SOL    HW281831   4.590  13.511  14.098
59998SOL     OW81832   2.921   7.229  11.844
59998SOL    HW181833   3.013   7.223  11.820
59998SOL    HW281834   2.904   7.149  11.894
59999SOL     OW81835   4.461   0.580   9.190
59999SOL    HW181836   4.525   0.510   9.204
59999SOL    HW281837   4.436   0.607   9.278
60000SOL     OW81838   8.956   8.111  13.995
60000SOL    HW181839   8.925   8.022  13.979
60000SOL    HW281840   8.927   8.132  14.084
60001SOL     OW81841   2.991   7.338  10.419
60001SOL    HW181842   2.958   7.249  10.436
60001SOL    HW281843   3.080   7.324  10.388
60002SOL     OW81844   3.032   2.209   8.756
60002SOL    HW181845   2.966   2.246   8.815
60002SOL    HW281846   3.092   2.282   8.738
60003SOL     OW81847   9.305  10.085   5.903
60003SOL    HW181848   9.243  10.013   5.891
60003SOL    HW281849   9.382  10.044   5.942
60004SOL     OW81850   6.531   9.873  14.603
60004SOL    HW181851   6.479   9.950  14.627
60004SOL    HW281852   6.511   9.859  14.511
60005SOL     OW81853  10.346   3.964   0.907
60005SOL    HW181854  10.362   4.026   0.979
60005SOL    HW281855  10.288   4.010   0.848
60006SOL     OW81856   1.570   7.996   2.384
60006SOL    HW181857   1.518   8.075   2.367
60006SOL    HW281858   1.631   8.022   2.453
60007SOL     OW81859  14.322   4.331   2.292
60007SOL    HW181860  14.286   4.242   2.297
60007SOL    HW281861  14.249   4.385   2.260
60008SOL     OW81862  11.581   9.195   1.163
60008SOL    HW181863  11.621   9.270   1.206
60008SOL    HW281864  11.653   9.152   1.117
60009SOL     OW81865   7.258  10.684  11.766
60009SOL    HW181866   7.198  10.683  11.841
60009SOL    HW281867   7.222  10.617  11.706
60010SOL     OW81868  10.556  11.996   1.238
60010SOL    HW181869  10.572  12.007   1.144
60010SOL    HW281870  10.633  11.950   1.270
60011SOL     OW81871   6.525   6.037   2.403
60011SOL    HW181872   6.616   6.043   2.371
60011SOL    HW281873   6.485   5.971   2.346
60012SOL     OW81874   3.523   3.653  12.880
60012SOL    HW181875   3.491   3.724  12.937
60012SOL    HW281876   3.551   3.585  12.941
60013SOL     OW81877  13.589   0.190   8.644
60013SOL    HW181878  13.535   0.255   8.599
60013SOL    HW281879  13.528   0.119   8.664
60014SOL     OW81880   6.171   8.324  12.667
60014SOL    HW181881   6.139   8.234  12.667
60014SOL    HW281882   6.265   8.317  12.649
60015SOL     OW81883   0.512   8.425   1.022
60015SOL    HW181884   0.450   8.497   1.034
60015SOL    HW281885   0.593   8.467   0.992
60016SOL     OW81886   5.955   9.515   9.050
60016SOL    HW181887   5.965   9.429   9.008
60016SOL    HW281888   6.039   9.530   9.094
60017SOL     OW81889   1.003  12.174  14.661
60017SOL    HW181890   1.078  12.224  14.694
60017SOL    HW281891   0.996  12.201  14.569
60018SOL     OW81892  13.345   1.147   6.937
60018SOL    HW181893  13.327   1.077   7.000
60018SOL    HW281894  13.316   1.227   6.981
60019SOL     OW81895  10.008  14.871   3.722
60019SOL    HW181896  10.096   0.014   3.756
60019SOL    HW281897  10.002   0.054   3.645
60020SOL     OW81898   5.431   1.504  14.579
60020SOL    HW181899   5.462   1.427  14.626
60020SOL    HW281900   5.337   1.507  14.596
60021SOL     OW81901   9.136   8.452  12.908
60021SOL    HW181902   9.174   8.452  12.820
60021SOL    HW281903   9.097   8.539  12.916
60022SOL     OW81904   3.385   7.942  12.103
60022SOL    HW181905   3.337   8.023  12.084
60022SOL    HW281906   3.339   7.903  12.177
60023SOL     OW81907   3.137   1.254   8.973
60023SOL    HW181908   3.210   1.234   9.031
60023SOL    HW281909   3.178   1.292   8.895
60024SOL     OW81910  13.236   1.250  10.109
60024SOL    HW181911  13.269   1.331  10.071
60024SOL    HW281912  13.236   1.266  10.204
60025SOL     OW81913   1.424   9.130   0.691
60025SOL    HW181914   1.448   9.178   0.770
60025SOL    HW281915   1.443   9.190   0.619
60026SOL     OW81916   0.389   5.722   5.022
60026SOL    HW181917   0.431   5.637   5.031
60026SOL    HW281918   0.458   5.786   5.038
60027SOL     OW81919   6.998  13.909   7.437
60027SOL    HW181920   7.050  13.841   7.395
60027SOL    HW281921   6.925  13.923   7.377
60028SOL     OW81922  11.573   7.570  11.182
60028SOL    HW181923  11.575   7.614  11.097
60028SOL    HW281924  11.502   7.506  11.174
60029SOL     OW81925   4.125   4.423   1.195
60029SOL    HW181926   4.152   4.353   1.136
60029SOL    HW281927   4.204   4.447   1.242
60030SOL     OW81928   8.363   5.372   1.467
60030SOL    HW181929   8.366   5.372   1.371
60030SOL    HW281930   8.455   5.378   1.494
60031SOL     OW81931   5.857  12.832   7.951
60031SOL    HW181932   5.894  12.804   8.034
60031SOL    HW281933   5.876  12.926   7.946
60032SOL     OW81934   5.518   5.401   7.070
60032SOL    HW181935   5.506   5.416   6.976
60032SOL    HW281936   5.512   5.488   7.109
60033SOL     OW81937   0.603   9.502  13.447
60033SOL    HW181938   0.595   9.532  13.538
60033SOL    HW281939   0.698   9.497  13.432
60034SOL     OW81940   2.760  11.319   1.735
60034SOL    HW181941   2.677  11.347   1.774
60034SOL    HW281942   2.816  11.300   1.809
60035SOL     OW81943  11.027   5.842   1.078
60035SOL    HW181944  10.961   5.907   1.054
60035SOL    HW281945  11.109   5.877   1.043
60036SOL     OW81946   8.040   5.613   6.511
60036SOL    HW181947   7.960   5.561   6.504
60036SOL    HW281948   8.109   5.558   6.475
60037SOL     OW81949  11.047   4.888  13.389
60037SOL    HW181950  11.085   4.904  13.476
60037SOL    HW281951  11.042   4.975  13.349
60038SOL     OW81952   3.139  12.094  13.140
60038SOL    HW181953   3.206  12.039  13.099
60038SOL    HW281954   3.101  12.144  13.068
60039SOL     OW81955  10.309   9.775   4.821
60039SOL    HW181956  10.322   9.793   4.914
60039SOL    HW281957  10.286   9.683   4.817
60040SOL     OW81958   2.913   8.219   8.994
60040SOL    HW181959   2.883   8.308   9.014
60040SOL    HW281960   3.008   8.227   8.986
60041SOL     OW81961  10.671   9.560   2.697
60041SOL    HW181962  10.765   9.557   2.716
60041SOL    HW281963  10.661   9.631   2.634
60042SOL     OW81964   6.724   5.476   3.177
60042SOL    HW181965   6.790   5.474   3.107
60042SOL    HW281966   6.773   5.454   3.256
60043SOL     OW81967   2.488   2.507  11.681
60043SOL    HW181968   2.499   2.587  11.630
60043SOL    HW281969   2.438   2.534  11.758
60044SOL     OW81970  13.991  11.732   2.579
60044SOL    HW181971  13.933  11.790   2.531
60044SOL    HW281972  13.952  11.645   2.569
60045SOL     OW81973   5.570   0.394   6.547
60045SOL    HW181974   5.561   0.311   6.593
60045SOL    HW281975   5.573   0.460   6.617
60046SOL     OW81976   4.717   6.581   1.030
60046SOL    HW181977   4.794   6.551   0.980
60046SOL    HW281978   4.754   6.638   1.097
60047SOL     OW81979  12.653   4.837   0.707
60047SOL    HW181980  12.696   4.823   0.792
60047SOL    HW281981  12.709   4.901   0.662
60048SOL     OW81982  12.850  13.853  10.430
60048SOL    HW181983  12.829  13.866  10.523
60048SOL    HW281984  12.904  13.929  10.407
60049SOL     OW81985   4.947   4.471  13.930
60049SOL    HW181986   4.937   4.376  13.939
60049SOL    HW281987   4.949   4.503  14.020
60050SOL     OW81988   2.427   5.154   6.203
60050SOL    HW181989   2.466   5.083   6.152
60050SOL    HW281990   2.477   5.155   6.285
60051SOL     OW81991   9.666   1.887   9.502
60051SOL    HW181992   9.648   1.831   9.426
60051SOL    HW281993   9.579   1.903   9.541
60052SOL     OW81994  10.010   9.394   1.487
60052SOL    HW181995   9.976   9.346   1.412
60052SOL    HW281996  10.077   9.336   1.525
60053SOL     OW81997   7.667  10.348   3.081
60053SOL    HW181998   7.613  10.375   3.155
60053SOL    HW281999   7.674  10.427   3.027
60054SOL     OW82000  10.408   9.634   4.477
60054SOL    HW182001  10.467   9.646   4.403
60054SOL    HW282002  10.377   9.722   4.498
60055SOL     OW82003  10.548   0.636   7.960
60055SOL    HW182004  10.628   0.611   7.913
60055SOL    HW282005  10.486   0.566   7.942
60056SOL     OW82006   5.672   7.536   7.665
60056SOL    HW182007   5.741   7.504   7.722
60056SOL    HW282008   5.704   7.518   7.576
60057SOL     OW82009   6.322   0.670   6.692
60057SOL    HW182010   6.228   0.683   6.679
60057SOL    HW282011   6.361   0.755   6.672
60058SOL     OW82012  12.017   2.412   7.043
60058SOL    HW182013  12.039   2.353   6.970
60058SOL    HW282014  12.057   2.496   7.018
60059SOL     OW82015   9.329   4.831   7.281
60059SOL    HW182016   9.326   4.920   7.246
60059SOL    HW282017   9.252   4.787   7.244
60060SOL     OW82018  13.470  11.708   7.856
60060SOL    HW182019  13.409  11.708   7.930
60060SOL    HW282020  13.551  11.743   7.892
60061SOL     OW82021   0.676   1.759   8.160
60061SOL    HW182022   0.681   1.854   8.170
60061SOL    HW282023   0.593   1.744   8.114
60062SOL     OW82024   4.733   7.707   2.392
60062SOL    HW182025   4.767   7.762   2.322
60062SOL    HW282026   4.808   7.654   2.419
60063SOL     OW82027  10.589   3.045  10.208
60063SOL    HW182028  10.591   3.089  10.293
60063SOL    HW282029  10.603   3.115  10.145
60064SOL     OW82030  13.021   1.794  10.936
60064SOL    HW182031  12.983   1.882  10.935
60064SOL    HW282032  13.097   1.802  10.994
60065SOL     OW82033  14.663   2.504  11.239
60065SOL    HW182034  14.636   2.490  11.148
60065SOL    HW282035  14.646   2.597  11.256
60066SOL     OW82036  12.658  13.074   9.563
60066SOL    HW182037  12.639  13.100   9.473
60066SOL    HW282038  12.599  13.001   9.581
60067SOL     OW82039   7.986  10.923   0.572
60067SOL    HW182040   8.065  10.977   0.566
60067SOL    HW282041   7.951  10.941   0.659
60068SOL     OW82042   4.846   6.045  13.271
60068SOL    HW182043   4.900   6.081  13.341
60068SOL    HW282044   4.885   6.078  13.190
60069SOL     OW82045  14.753   9.274  10.706
60069SOL    HW182046  14.765   9.367  10.689
60069SOL    HW282047  14.681   9.248  10.648
60070SOL     OW82048   1.611   1.502   0.688
60070SOL    HW182049   1.576   1.465   0.606
60070SOL    HW282050   1.536   1.545   0.728
60071SOL     OW82051  13.525   0.106   5.690
60071SOL    HW182052  13.612   0.100   5.650
60071SOL    HW282053  13.539   0.153   5.771
60072SOL     OW82054   2.904   0.246  10.606
60072SOL    HW182055   2.964   0.321  10.598
60072SOL    HW282056   2.951   0.184  10.661
60073SOL     OW82057   4.921   8.844   6.384
60073SOL    HW182058   4.917   8.754   6.416
60073SOL    HW282059   4.833   8.862   6.352
60074SOL     OW82060   2.070   8.682   9.211
60074SOL    HW182061   2.021   8.753   9.171
60074SOL    HW282062   2.035   8.603   9.169
60075SOL     OW82063   9.853   5.784  13.636
60075SOL    HW182064   9.939   5.752  13.611
60075SOL    HW282065   9.821   5.832  13.559
60076SOL     OW82066   6.528   6.400   2.858
60076SOL    HW182067   6.582   6.399   2.938
60076SOL    HW282068   6.504   6.309   2.844
60077SOL     OW82069  11.970   0.115  14.435
60077SOL    HW182070  11.997   0.118  14.343
60077SOL    HW282071  12.051   0.097  14.483
60078SOL     OW82072   1.324  10.806  14.709
60078SOL    HW182073   1.258  10.860  14.666
60078SOL    HW282074   1.406  10.830  14.666
60079SOL     OW82075  14.146   9.401   9.045
60079SOL    HW182076  14.233   9.386   9.009
60079SOL    HW282077  14.152   9.485   9.090
60080SOL     OW82078   2.119   7.173  10.777
60080SOL    HW182079   2.121   7.131  10.692
60080SOL    HW282080   2.061   7.248  10.766
60081SOL     OW82081   4.825   8.882   4.798
60081SOL    HW182082   4.853   8.889   4.889
60081SOL    HW282083   4.753   8.945   4.790
60082SOL     OW82084  14.545   1.479   1.799
60082SOL    HW182085  14.617   1.424   1.830
60082SOL    HW282086  14.584   1.565   1.785
60083SOL     OW82087  12.804  13.562   6.385
60083SOL    HW182088  12.797  13.468   6.405
60083SOL    HW282089  12.893  13.574   6.352
60084SOL     OW82090   4.675   4.549   1.486
60084SOL    HW182091   4.654   4.636   1.520
60084SOL    HW282092   4.656   4.555   1.392
60085SOL     OW82093   7.285   8.774   2.826
60085SOL    HW182094   7.271   8.775   2.920
60085SOL    HW282095   7.337   8.695   2.810
60086SOL     OW82096   8.759   0.170   1.657
60086SOL    HW182097   8.664   0.178   1.664
60086SOL    HW282098   8.781   0.095   1.713
60087SOL     OW82099  14.608   6.384   3.829
60087SOL    HW182100  14.649   6.380   3.742
60087SOL    HW282101  14.649   6.459   3.871
60088SOL     OW82102   3.561  10.719   3.951
60088SOL    HW182103   3.554  10.803   3.996
60088SOL    HW282104   3.535  10.654   4.017
60089SOL     OW82105   5.051  10.006   9.201
60089SOL    HW182106   5.015  10.053   9.277
60089SOL    HW282107   5.011   9.920   9.205
60090SOL     OW82108  14.471   2.213   2.176
60090SOL    HW182109  14.461   2.180   2.266
60090SOL    HW282110  14.494   2.137   2.124
60091SOL     OW82111   7.717   1.256   4.467
60091SOL    HW182112   7.673   1.333   4.502
60091SOL    HW282113   7.774   1.290   4.399
60092SOL     OW82114  13.067   8.603  13.876
60092SOL    HW182115  13.098   8.548  13.948
60092SOL    HW282116  13.105   8.563  13.797
60093SOL     OW82117   4.575   5.608  11.203
60093SOL    HW182118   4.599   5.518  11.228
60093SOL    HW282119   4.638   5.632  11.135
60094SOL     OW82120   8.107   8.993  14.325
60094SOL    HW182121   8.121   9.061  14.391
60094SOL    HW282122   8.049   9.034  14.261
60095SOL     OW82123   1.783  11.069   2.120
60095SOL    HW182124   1.806  11.078   2.213
60095SOL    HW282125   1.756  11.157   2.094
60096SOL     OW82126   8.243   3.079   8.413
60096SOL    HW182127   8.183   3.042   8.349
60096SOL    HW282128   8.329   3.045   8.387
60097SOL     OW82129   3.371   8.432   6.135
60097SOL    HW182130   3.393   8.510   6.084
60097SOL    HW282131   3.420   8.361   6.093
60098SOL     OW82132   6.422   9.019   3.396
60098SOL    HW182133   6.511   9.003   3.427
60098SOL    HW282134   6.381   9.069   3.467
60099SOL     OW82135  10.498   9.706   5.793
60099SOL    HW182136  10.584   9.692   5.833
60099SOL    HW282137  10.499   9.799   5.768
60100SOL     OW82138   5.779   1.156   8.942
60100SOL    HW182139   5.722   1.165   8.866
60100SOL    HW282140   5.843   1.090   8.917
60101SOL     OW82141   5.491   6.798   1.530
60101SOL    HW182142   5.575   6.843   1.517
60101SOL    HW282143   5.485   6.786   1.625
60102SOL     OW82144   0.723   8.672  11.820
60102SOL    HW182145   0.641   8.712  11.792
60102SOL    HW282146   0.697   8.610  11.888
60103SOL     OW82147  14.658   2.932   7.765
60103SOL    HW182148  14.744   2.895   7.742
60103SOL    HW282149  14.677   2.995   7.835
60104SOL     OW82150   6.158  12.694  13.475
60104SOL    HW182151   6.125  12.633  13.541
60104SOL    HW282152   6.084  12.709  13.416
60105SOL     OW82153   6.464   7.475  11.494
60105SOL    HW182154   6.475   7.469  11.589
60105SOL    HW282155   6.549   7.506  11.462
60106SOL     OW82156  12.758   1.093   6.414
60106SOL    HW182157  12.747   1.038   6.492
60106SOL    HW282158  12.763   1.182   6.449
60107SOL     OW82159  12.561   9.104   5.597
60107SOL    HW182160  12.500   9.110   5.523
60107SOL    HW282161  12.597   9.015   5.591
60108SOL     OW82162   7.611   9.539   0.773
60108SOL    HW182163   7.677   9.563   0.838
60108SOL    HW282164   7.613   9.610   0.709
60109SOL     OW82165  13.750   3.228  10.560
60109SOL    HW182166  13.669   3.261  10.522
60109SOL    HW282167  13.743   3.132  10.553
60110SOL     OW82168   0.476  10.557  14.537
60110SOL    HW182169   0.571  10.548  14.534
60110SOL    HW282170   0.462  10.643  14.577
60111SOL     OW82171   9.974   0.348   0.414
60111SOL    HW182172  10.032   0.274   0.397
60111SOL    HW282173   9.903   0.312   0.466
60112SOL     OW82174   6.276   0.948   9.260
60112SOL    HW182175   6.247   1.037   9.278
60112SOL    HW282176   6.201   0.893   9.280
60113SOL     OW82177   4.962  13.440   7.762
60113SOL    HW182178   4.959  13.368   7.698
60113SOL    HW282179   5.024  13.409   7.829
60114SOL     OW82180   8.429   2.339   4.739
60114SOL    HW182181   8.450   2.331   4.646
60114SOL    HW282182   8.483   2.411   4.770
60115SOL     OW82183  12.108   3.770   8.638
60115SOL    HW182184  12.148   3.749   8.723
60115SOL    HW282185  12.164   3.727   8.574
60116SOL     OW82186   2.446  13.208   7.126
60116SOL    HW182187   2.369  13.164   7.090
60116SOL    HW282188   2.456  13.172   7.214
60117SOL     OW82189  11.829  13.667   1.827
60117SOL    HW182190  11.853  13.648   1.737
60117SOL    HW282191  11.880  13.605   1.879
60118SOL     OW82192   9.655  14.586   8.662
60118SOL    HW182193   9.715  14.660   8.652
60118SOL    HW282194   9.708  14.518   8.705
60119SOL     OW82195   7.981  13.910   1.396
60119SOL    HW182196   7.981  13.848   1.323
60119SOL    HW282197   7.896  13.897   1.438
60120SOL     OW82198   8.127   7.392   8.981
60120SOL    HW182199   8.043   7.373   9.024
60120SOL    HW282200   8.110   7.376   8.888
60121SOL     OW82201   7.583  10.938  11.987
60121SOL    HW182202   7.585  10.846  12.012
60121SOL    HW282203   7.559  10.984  12.068
60122SOL     OW82204  10.026   2.753  11.456
60122SOL    HW182205  10.072   2.791  11.382
60122SOL    HW282206   9.964   2.691  11.417
60123SOL     OW82207   4.708   1.677  13.972
60123SOL    HW182208   4.641   1.745  13.971
60123SOL    HW282209   4.695   1.629  13.891
60124SOL     OW82210   7.471   4.013  14.541
60124SOL    HW182211   7.512   3.955  14.477
60124SOL    HW282212   7.392   3.967  14.569
60125SOL     OW82213   3.392   8.401   8.172
60125SOL    HW182214   3.486   8.390   8.166
60125SOL    HW282215   3.361   8.325   8.220
60126SOL     OW82216   7.416   1.979  14.393
60126SOL    HW182217   7.340   2.029  14.365
60126SOL    HW282218   7.417   1.902  14.337
60127SOL     OW82219   7.132  10.119  10.335
60127SOL    HW182220   7.107  10.047  10.277
60127SOL    HW282221   7.117  10.198  10.283
60128SOL     OW82222  14.862  12.872   7.983
60128SOL    HW182223  14.835  12.876   7.891
60128SOL    HW282224   0.082  12.893   7.983
60129SOL     OW82225   4.548   3.289   4.218
60129SOL    HW182226   4.491   3.323   4.149
60129SOL    HW282227   4.518   3.332   4.298
60130SOL     OW82228   5.812   8.819   7.524
60130SOL    HW182229   5.760   8.865   7.457
60130SOL    HW282230   5.888   8.785   7.477
60131SOL     OW82231   7.757  11.463   9.458
60131SOL    HW182232   7.788  11.536   9.404
60131SOL    HW282233   7.669  11.488   9.484
60132SOL     OW82234   8.326  13.662   6.534
60132SOL    HW182235   8.404  13.693   6.579
60132SOL    HW282236   8.354  13.583   6.487
60133SOL     OW82237   5.376   0.343  10.360
60133SOL    HW182238   5.442   0.409  10.338
60133SOL    HW282239   5.416   0.293  10.431
60134SOL     OW82240   4.994   3.444  11.318
60134SOL    HW182241   5.041   3.361  11.318
60134SOL    HW282242   4.964   3.454  11.408
60135SOL     OW82243  10.249   4.768   3.273
60135SOL    HW182244  10.292   4.720   3.203
60135SOL    HW282245  10.211   4.845   3.230
60136SOL     OW82246   6.229  12.295   0.710
60136SOL    HW182247   6.243  12.386   0.683
60136SOL    HW282248   6.150  12.298   0.762
60137SOL     OW82249  11.611   9.527  12.944
60137SOL    HW182250  11.681   9.591  12.957
60137SOL    HW282251  11.536   9.565  12.990
60138SOL     OW82252   8.462  10.765   1.700
60138SOL    HW182253   8.439  10.697   1.764
60138SOL    HW282254   8.389  10.765   1.638
60139SOL     OW82255   8.211   8.586   3.692
60139SOL    HW182256   8.160   8.555   3.767
60139SOL    HW282257   8.271   8.651   3.728
60140SOL     OW82258   0.925   5.872   0.309
60140SOL    HW182259   0.993   5.808   0.331
60140SOL    HW282260   0.859   5.860   0.377
60141SOL     OW82261   0.763   7.225   4.595
60141SOL    HW182262   0.728   7.156   4.653
60141SOL    HW282263   0.777   7.299   4.653
60142SOL     OW82264   8.346  11.669  14.472
60142SOL    HW182265   8.418  11.610  14.450
60142SOL    HW282266   8.378  11.756  14.445
60143SOL     OW82267   6.192  13.088   4.258
60143SOL    HW182268   6.243  13.151   4.207
60143SOL    HW282269   6.102  13.103   4.231
60144SOL     OW82270   3.098  10.313  11.963
60144SOL    HW182271   3.073  10.221  11.963
60144SOL    HW282272   3.064  10.346  12.047
60145SOL     OW82273   5.238   5.842  13.545
60145SOL    HW182274   5.146   5.869  13.547
60145SOL    HW282275   5.245   5.775  13.613
60146SOL     OW82276  13.493   8.725   9.948
60146SOL    HW182277  13.480   8.733   9.854
60146SOL    HW282278  13.460   8.807   9.984
60147SOL     OW82279  14.260  13.936  10.311
60147SOL    HW182280  14.187  13.959  10.368
60147SOL    HW282281  14.336  13.978  10.351
60148SOL     OW82282   5.952   2.100  12.099
60148SOL    HW182283   5.873   2.096  12.153
60148SOL    HW282284   5.924   2.140  12.017
60149SOL     OW82285   1.989   3.926   0.446
60149SOL    HW182286   2.043   3.987   0.396
60149SOL    HW282287   2.041   3.845   0.449
60150SOL     OW82288   7.412   1.559   6.810
60150SOL    HW182289   7.437   1.469   6.831
60150SOL    HW282290   7.424   1.607   6.892
60151SOL     OW82291   2.271   1.588   0.044
60151SOL    HW182292   2.343   1.639   0.081
60151SOL    HW282293   2.236   1.538   0.118
60152SOL     OW82294  11.337   5.332   2.125
60152SOL    HW182295  11.294   5.285   2.196
60152SOL    HW282296  11.391   5.398   2.169
60153SOL     OW82297   3.349  13.725  10.148
60153SOL    HW182298   3.280  13.772  10.195
60153SOL    HW282299   3.353  13.767  10.062
60154SOL     OW82300  12.145   8.202   7.965
60154SOL    HW182301  12.233   8.180   7.996
60154SOL    HW282302  12.154   8.210   7.870
60155SOL     OW82303   1.085   4.972   3.387
60155SOL    HW182304   1.106   4.986   3.479
60155SOL    HW282305   1.159   5.011   3.340
60156SOL     OW82306   8.527  13.359   3.625
60156SOL    HW182307   8.434  13.377   3.633
60156SOL    HW282308   8.568  13.415   3.691
60157SOL     OW82309   3.989   1.147  14.535
60157SOL    HW182310   3.969   1.218  14.595
60157SOL    HW282311   3.909   1.094  14.533
60158SOL     OW82312   1.984  13.506  13.669
60158SOL    HW182313   1.935  13.446  13.613
60158SOL    HW282314   2.033  13.448  13.728
60159SOL     OW82315   5.483  12.503   5.178
60159SOL    HW182316   5.550  12.552   5.130
60159SOL    HW282317   5.531  12.440   5.231
60160SOL     OW82318   7.165   3.456   1.431
60160SOL    HW182319   7.094   3.395   1.410
60160SOL    HW282320   7.133   3.542   1.403
60161SOL     OW82321  10.553  11.853   4.813
60161SOL    HW182322  10.536  11.928   4.757
60161SOL    HW282323  10.647  11.856   4.830
60162SOL     OW82324  13.325  10.807   5.006
60162SOL    HW182325  13.237  10.801   5.044
60162SOL    HW282326  13.327  10.737   4.940
60163SOL     OW82327   7.677  11.420   7.945
60163SOL    HW182328   7.590  11.401   7.911
60163SOL    HW282329   7.731  11.346   7.917
60164SOL     OW82330   7.079  12.782  12.044
60164SOL    HW182331   7.044  12.693  12.047
60164SOL    HW282332   7.072  12.813  12.134
60165SOL     OW82333   5.693   7.413  13.959
60165SOL    HW182334   5.732   7.496  13.987
60165SOL    HW282335   5.766   7.352  13.954
60166SOL     OW82336   2.013   2.483   2.262
60166SOL    HW182337   2.104   2.455   2.274
60166SOL    HW282338   2.018   2.579   2.255
60167SOL     OW82339  10.946  14.833  13.138
60167SOL    HW182340  10.950  14.781  13.219
60167SOL    HW282341  10.854  14.856  13.128
60168SOL     OW82342   7.429  13.803  12.197
60168SOL    HW182343   7.434  13.708  12.198
60168SOL    HW282344   7.521  13.832  12.202
60169SOL     OW82345  12.880   8.586   9.111
60169SOL    HW182346  12.816   8.523   9.142
60169SOL    HW282347  12.941   8.596   9.184
60170SOL     OW82348  13.858   9.403   9.878
60170SOL    HW182349  13.923   9.391   9.809
60170SOL    HW282350  13.906   9.445   9.949
60171SOL     OW82351  11.322   9.526  10.383
60171SOL    HW182352  11.370   9.586  10.325
60171SOL    HW282353  11.243   9.574  10.407
60172SOL     OW82354  14.280   5.096  13.674
60172SOL    HW182355  14.305   5.014  13.718
60172SOL    HW282356  14.186   5.103  13.690
60173SOL     OW82357  10.128   1.891   3.498
60173SOL    HW182358  10.214   1.929   3.517
60173SOL    HW282359  10.131   1.805   3.538
60174SOL     OW82360   2.048   7.263  14.850
60174SOL    HW182361   2.022   7.302   0.060
60174SOL    HW282362   2.038   7.334  14.786
60175SOL     OW82363   2.542   7.161   9.342
60175SOL    HW182364   2.484   7.133   9.271
60175SOL    HW282365   2.494   7.232   9.385
60176SOL     OW82366   3.163   0.249  10.290
60176SOL    HW182367   3.159   0.197  10.211
60176SOL    HW282368   3.256   0.270  10.300
60177SOL     OW82369   2.220   0.576   2.734
60177SOL    HW182370   2.224   0.511   2.804
60177SOL    HW282371   2.134   0.617   2.744
60178SOL     OW82372  13.682   1.975  11.693
60178SOL    HW182373  13.765   1.939  11.725
60178SOL    HW282374  13.654   2.035  11.762
60179SOL     OW82375  11.781   2.400  12.749
60179SOL    HW182376  11.803   2.492  12.733
60179SOL    HW282377  11.788   2.390  12.844
60180SOL     OW82378  14.417   6.591  12.809
60180SOL    HW182379  14.467   6.558  12.884
60180SOL    HW282380  14.484   6.614  12.744
60181SOL     OW82381   8.801   4.799  11.696
60181SOL    HW182382   8.731   4.863  11.684
60181SOL    HW282383   8.796   4.742  11.619
60182SOL     OW82384   7.339   6.932  13.147
60182SOL    HW182385   7.288   6.884  13.082
60182SOL    HW282386   7.430   6.913  13.126
60183SOL     OW82387   5.136   6.848   9.178
60183SOL    HW182388   5.198   6.787   9.218
60183SOL    HW282389   5.073   6.792   9.132
60184SOL     OW82390   4.056  10.787  14.033
60184SOL    HW182391   3.967  10.760  14.010
60184SOL    HW282392   4.112  10.727  13.984
60185SOL     OW82393   1.221   9.459   5.696
60185SOL    HW182394   1.197   9.424   5.781
60185SOL    HW282395   1.280   9.532   5.715
60186SOL     OW82396   8.193   2.313   1.379
60186SOL    HW182397   8.239   2.230   1.387
60186SOL    HW282398   8.117   2.305   1.437
60187SOL     OW82399   5.699   9.800  12.834
60187SOL    HW182400   5.722   9.892  12.839
60187SOL    HW282401   5.732   9.772  12.748
60188SOL     OW82402   7.458   4.068   4.974
60188SOL    HW182403   7.444   4.161   4.956
60188SOL    HW282404   7.554   4.059   4.978
60189SOL     OW82405   0.228   4.413  11.813
60189SOL    HW182406   0.154   4.435  11.869
60189SOL    HW282407   0.295   4.477  11.836
60190SOL     OW82408   8.813   3.749   9.531
60190SOL    HW182409   8.735   3.797   9.503
60190SOL    HW282410   8.819   3.765   9.625
60191SOL     OW82411   9.041   8.293  13.584
60191SOL    HW182412   9.058   8.322  13.494
60191SOL    HW282413   9.112   8.231  13.603
60192SOL     OW82414   8.434  13.530   0.177
60192SOL    HW182415   8.511  13.485   0.210
60192SOL    HW282416   8.466  13.614   0.145
60193SOL     OW82417  14.634   6.211   2.686
60193SOL    HW182418  14.695   6.143   2.658
60193SOL    HW282419  14.557   6.199   2.629
60194SOL     OW82420   5.983   4.100   9.415
60194SOL    HW182421   5.941   4.020   9.446
60194SOL    HW282422   5.948   4.115   9.327
60195SOL     OW82423  10.596   5.409   7.752
60195SOL    HW182424  10.538   5.381   7.822
60195SOL    HW282425  10.545   5.473   7.702
60196SOL     OW82426  11.421   8.042  12.574
60196SOL    HW182427  11.435   8.135  12.592
60196SOL    HW282428  11.497   8.015  12.523
60197SOL     OW82429   5.107   3.358   0.834
60197SOL    HW182430   5.074   3.381   0.746
60197SOL    HW282431   5.037   3.305   0.872
60198SOL     OW82432   4.113   5.144   2.832
60198SOL    HW182433   4.080   5.114   2.917
60198SOL    HW282434   4.193   5.093   2.819
60199SOL     OW82435  13.500   6.448   7.864
60199SOL    HW182436  13.558   6.508   7.817
60199SOL    HW282437  13.550   6.367   7.871
60200SOL     OW82438  10.911  12.775  12.406
60200SOL    HW182439  10.855  12.851  12.421
60200SOL    HW282440  10.999  12.811  12.399
60201SOL     OW82441  14.789   8.511   9.764
60201SOL    HW182442  14.750   8.591   9.729
60201SOL    HW282443  14.717   8.468   9.810
60202SOL     OW82444  13.441   4.175  13.618
60202SOL    HW182445  13.461   4.192  13.710
60202SOL    HW282446  13.481   4.090  13.599
60203SOL     OW82447  13.346  11.237  11.776
60203SOL    HW182448  13.336  11.316  11.830
60203SOL    HW282449  13.256  11.215  11.750
60204SOL     OW82450   1.270   6.558   6.004
60204SOL    HW182451   1.352   6.529   5.962
60204SOL    HW282452   1.299   6.605   6.082
60205SOL     OW82453   2.652   4.540  13.665
60205SOL    HW182454   2.574   4.594  13.668
60205SOL    HW282455   2.621   4.451  13.684
60206SOL     OW82456   7.684  11.618   8.128
60206SOL    HW182457   7.695  11.554   8.058
60206SOL    HW282458   7.657  11.698   8.084
60207SOL     OW82459  11.251   1.561  10.560
60207SOL    HW182460  11.181   1.598  10.613
60207SOL    HW282461  11.209   1.491  10.511
60208SOL     OW82462   9.406   6.578   3.762
60208SOL    HW182463   9.383   6.617   3.846
60208SOL    HW282464   9.349   6.621   3.699
60209SOL     OW82465   2.638   2.471  12.911
60209SOL    HW182466   2.649   2.442  13.002
60209SOL    HW282467   2.614   2.564  12.919
60210SOL     OW82468   5.265  10.003  11.269
60210SOL    HW182469   5.342  10.054  11.246
60210SOL    HW282470   5.291   9.952  11.346
60211SOL     OW82471   1.746   4.858   5.444
60211SOL    HW182472   1.696   4.917   5.500
60211SOL    HW282473   1.681   4.816   5.388
60212SOL     OW82474   1.423   5.304  12.847
60212SOL    HW182475   1.506   5.261  12.868
60212SOL    HW282476   1.411   5.369  12.916
60213SOL     OW82477  13.764  12.156   1.345
60213SOL    HW182478  13.688  12.213   1.349
60213SOL    HW282479  13.744  12.095   1.274
60214SOL     OW82480  14.841   1.976  12.615
60214SOL    HW182481  14.810   2.034  12.685
60214SOL    HW282482  14.770   1.914  12.601
60215SOL     OW82483  10.832  10.416   2.065
60215SOL    HW182484  10.881  10.333   2.070
60215SOL    HW282485  10.741  10.390   2.080
60216SOL     OW82486   3.612   0.738  11.355
60216SOL    HW182487   3.661   0.657  11.370
60216SOL    HW282488   3.631   0.762  11.265
60217SOL     OW82489   0.081   4.439  13.376
60217SOL    HW182490  14.873   4.489  13.386
60217SOL    HW282491   0.088   4.388  13.457
60218SOL     OW82492   1.270   0.751   9.626
60218SOL    HW182493   1.250   0.823   9.686
60218SOL    HW282494   1.261   0.672   9.680
60219SOL     OW82495   7.466  14.322   5.777
60219SOL    HW182496   7.371  14.324   5.766
60219SOL    HW282497   7.481  14.246   5.834
60220SOL     OW82498  10.807  11.375   5.011
60220SOL    HW182499  10.836  11.417   5.093
60220SOL    HW282500  10.759  11.443   4.965
60221SOL     OW82501   1.061   3.471  12.090
60221SOL    HW182502   1.112   3.420  12.027
60221SOL    HW282503   1.127   3.507  12.150
60222SOL     OW82504  11.453   8.313   3.959
60222SOL    HW182505  11.472   8.396   3.916
60222SOL    HW282506  11.537   8.268   3.963
60223SOL     OW82507   0.238   9.271   4.028
60223SOL    HW182508   0.199   9.252   3.943
60223SOL    HW282509   0.307   9.205   4.038
60224SOL     OW82510   0.131   2.270   0.899
60224SOL    HW182511   0.209   2.304   0.944
60224SOL    HW282512   0.124   2.180   0.929
60225SOL     OW82513   7.087   3.421  13.031
60225SOL    HW182514   7.135   3.497  13.066
60225SOL    HW282515   7.016   3.460  12.980
60226SOL     OW82516  13.654   2.197  10.455
60226SOL    HW182517  13.734   2.146  10.471
60226SOL    HW282518  13.615   2.207  10.542
60227SOL     OW82519   0.785  13.765  12.625
60227SOL    HW182520   0.820  13.825  12.559
60227SOL    HW282521   0.843  13.777  12.701
60228SOL     OW82522   1.884   0.175   1.692
60228SOL    HW182523   1.889   0.114   1.618
60228SOL    HW282524   1.884   0.262   1.653
60229SOL     OW82525   0.359  12.417   1.474
60229SOL    HW182526   0.345  12.363   1.396
60229SOL    HW282527   0.446  12.392   1.505
60230SOL     OW82528   4.540   0.321  14.493
60230SOL    HW182529   4.480   0.376  14.543
60230SOL    HW282530   4.592   0.276  14.559
60231SOL     OW82531   9.578   8.765   1.452
60231SOL    HW182532   9.651   8.703   1.441
60231SOL    HW282533   9.602   8.839   1.397
60232SOL     OW82534  12.601   8.587   8.625
60232SOL    HW182535  12.531   8.630   8.576
60232SOL    HW282536  12.558   8.557   8.706
60233SOL     OW82537  13.633  14.426  11.173
60233SOL    HW182538  13.598  14.408  11.260
60233SOL    HW282539  13.592  14.507  11.146
60234SOL     OW82540   6.152   2.516   8.147
60234SOL    HW182541   6.228   2.534   8.202
60234SOL    HW282542   6.159   2.578   8.074
60235SOL     OW82543   4.280  14.842  11.673
60235SOL    HW182544   4.359  14.804  11.634
60235SOL    HW282545   4.268   0.051  11.627
60236SOL     OW82546   4.253   4.808   0.406
60236SOL    HW182547   4.263   4.883   0.347
60236SOL    HW282548   4.315   4.825   0.477
60237SOL     OW82549   4.747  11.372   4.477
60237SOL    HW182550   4.766  11.415   4.561
60237SOL    HW282551   4.724  11.282   4.502
60238SOL     OW82552   2.193  11.588   5.930
60238SOL    HW182553   2.146  11.570   5.848
60238SOL    HW282554   2.270  11.533   5.926
60239SOL     OW82555   0.882  14.602  12.834
60239SOL    HW182556   0.841  14.565  12.755
60239SOL    HW282557   0.892  14.695  12.814
60240SOL     OW82558  14.123  11.698   6.108
60240SOL    HW182559  14.068  11.746   6.046
60240SOL    HW282560  14.062  11.641   6.154
60241SOL     OW82561   0.558  12.570  13.113
60241SOL    HW182562   0.634  12.619  13.081
60241SOL    HW282563   0.501  12.636  13.151
60242SOL     OW82564  12.838   7.766  12.140
60242SOL    HW182565  12.847   7.828  12.212
60242SOL    HW282566  12.888   7.804  12.068
60243SOL     OW82567   8.985   9.406   3.601
60243SOL    HW182568   8.957   9.497   3.595
60243SOL    HW282569   8.932   9.369   3.671
60244SOL     OW82570  14.497   9.059   2.144
60244SOL    HW182571  14.540   8.985   2.102
60244SOL    HW282572  14.416   9.023   2.181
60245SOL     OW82573   7.103  11.230  11.226
60245SOL    HW182574   7.108  11.198  11.316
60245SOL    HW282575   7.187  11.204  11.187
60246SOL     OW82576   1.347   8.240   1.453
60246SOL    HW182577   1.293   8.211   1.379
60246SOL    HW282578   1.352   8.335   1.442
60247SOL     OW82579   9.312   5.933   4.163
60247SOL    HW182580   9.250   5.871   4.124
60247SOL    HW282581   9.331   5.995   4.094
60248SOL     OW82582   3.366   0.791  11.970
60248SOL    HW182583   3.400   0.728  11.906
60248SOL    HW282584   3.377   0.876  11.928
60249SOL     OW82585   1.505  13.683   7.072
60249SOL    HW182586   1.418  13.647   7.087
60249SOL    HW282587   1.542  13.695   7.160
60250SOL     OW82588   1.613   8.899   1.711
60250SOL    HW182589   1.579   8.815   1.742
60250SOL    HW282590   1.606   8.893   1.615
60251SOL     OW82591   8.777   0.985  14.348
60251SOL    HW182592   8.786   1.046  14.275
60251SOL    HW282593   8.867   0.966  14.375
60252SOL     OW82594   9.732   4.077   1.671
60252SOL    HW182595   9.805   4.087   1.733
60252SOL    HW282596   9.747   4.145   1.606
60253SOL     OW82597  12.051   6.504   9.892
60253SOL    HW182598  12.057   6.430   9.953
60253SOL    HW282599  11.990   6.565   9.934
60254SOL     OW82600  13.632   7.394  14.619
60254SOL    HW182601  13.644   7.466  14.557
60254SOL    HW282602  13.539   7.394  14.640
60255SOL     OW82603   5.955   7.348   3.292
60255SOL    HW182604   5.878   7.296   3.315
60255SOL    HW282605   5.957   7.346   3.196
60256SOL     OW82606   3.537   5.817   3.342
60256SOL    HW182607   3.621   5.822   3.297
60256SOL    HW282608   3.528   5.901   3.386
60257SOL     OW82609  13.459  10.178   4.828
60257SOL    HW182610  13.438  10.094   4.788
60257SOL    HW282611  13.549  10.197   4.802
60258SOL     OW82612   2.709   5.078   7.555
60258SOL    HW182613   2.675   5.161   7.522
60258SOL    HW282614   2.742   5.099   7.643
60259SOL     OW82615   8.933   5.069  14.276
60259SOL    HW182616   9.006   5.082  14.215
60259SOL    HW282617   8.949   5.133  14.345
60260SOL     OW82618   0.949   9.741   2.179
60260SOL    HW182619   0.868   9.698   2.206
60260SOL    HW282620   1.006   9.735   2.256
60261SOL     OW82621   6.456   0.261  13.559
60261SOL    HW182622   6.496   0.322  13.497
60261SOL    HW282623   6.516   0.187  13.563
60262SOL     OW82624   8.904   4.967   9.376
60262SOL    HW182625   8.866   5.044   9.332
60262SOL    HW282626   8.922   4.906   9.304
60263SOL     OW82627  12.203   4.504  10.424
60263SOL    HW182628  12.295   4.512  10.451
60263SOL    HW282629  12.173   4.595  10.416
60264SOL     OW82630  14.333   6.842   6.089
60264SOL    HW182631  14.425   6.843   6.062
60264SOL    HW282632  14.293   6.914   6.040
60265SOL     OW82633   0.781   2.157  14.772
60265SOL    HW182634   0.736   2.074  14.787
60265SOL    HW282635   0.869   2.143  14.805
60266SOL     OW82636   1.478   6.234  12.088
60266SOL    HW182637   1.416   6.164  12.068
60266SOL    HW282638   1.555   6.214  12.036
60267SOL     OW82639   4.400  14.160   1.648
60267SOL    HW182640   4.349  14.086   1.681
60267SOL    HW282641   4.380  14.231   1.710
60268SOL     OW82642  14.306  13.232   2.789
60268SOL    HW182643  14.293  13.147   2.747
60268SOL    HW282644  14.401  13.237   2.803
60269SOL     OW82645  14.766   2.093   3.582
60269SOL    HW182646  14.830   2.040   3.535
60269SOL    HW282647  14.682   2.051   3.564
60270SOL     OW82648  11.159   5.489  14.510
60270SOL    HW182649  11.094   5.559  14.503
60270SOL    HW282650  11.195   5.481  14.422
60271SOL     OW82651   5.378  13.294   8.831
60271SOL    HW182652   5.449  13.356   8.816
60271SOL    HW282653   5.307  13.348   8.867
60272SOL     OW82654   5.318   9.157  11.880
60272SOL    HW182655   5.393   9.099  11.867
60272SOL    HW282656   5.336   9.232  11.823
60273SOL     OW82657   4.462   1.078  14.532
60273SOL    HW182658   4.495   1.163  14.562
60273SOL    HW282659   4.526   1.050  14.466
60274SOL     OW82660  14.303   5.423   7.687
60274SOL    HW182661  14.342   5.335   7.691
60274SOL    HW282662  14.210   5.408   7.704
60275SOL     OW82663   0.456   7.106   2.316
60275SOL    HW182664   0.490   7.039   2.257
60275SOL    HW282665   0.430   7.178   2.259
60276SOL     OW82666   1.397  11.615  10.980
60276SOL    HW182667   1.469  11.627  10.918
60276SOL    HW282668   1.396  11.521  10.999
60277SOL     OW82669   4.653   8.059   8.088
60277SOL    HW182670   4.737   8.053   8.042
60277SOL    HW282671   4.647   7.978   8.140
60278SOL     OW82672   1.666  11.764   8.535
60278SOL    HW182673   1.657  11.745   8.442
60278SOL    HW282674   1.760  11.764   8.551
60279SOL     OW82675  11.470   4.063  11.881
60279SOL    HW182676  11.508   3.986  11.839
60279SOL    HW282677  11.417   4.104  11.812
60280SOL     OW82678   7.532   6.042  12.060
60280SOL    HW182679   7.602   6.095  12.097
60280SOL    HW282680   7.539   5.958  12.106
60281SOL     OW82681   4.301   4.760   9.754
60281SOL    HW182682   4.241   4.819   9.799
60281SOL    HW282683   4.383   4.768   9.803
60282SOL     OW82684   0.782   5.738   3.136
60282SOL    HW182685   0.808   5.655   3.096
60282SOL    HW282686   0.687   5.733   3.143
60283SOL     OW82687   8.439   8.504   5.473
60283SOL    HW182688   8.489   8.469   5.399
60283SOL    HW282689   8.372   8.439   5.490
60284SOL     OW82690   3.294   8.956   9.633
60284SOL    HW182691   3.308   8.918   9.546
60284SOL    HW282692   3.234   8.896   9.677
60285SOL     OW82693   4.441  11.308   3.641
60285SOL    HW182694   4.353  11.324   3.605
60285SOL    HW282695   4.500  11.346   3.577
60286SOL     OW82696  10.693   7.848   2.687
60286SOL    HW182697  10.651   7.924   2.645
60286SOL    HW282698  10.623   7.783   2.693
60287SOL     OW82699   4.537   6.358   4.167
60287SOL    HW182700   4.447   6.366   4.137
60287SOL    HW282701   4.547   6.427   4.233
60288SOL     OW82702   7.391  12.625  12.159
60288SOL    HW182703   7.393  12.562  12.087
60288SOL    HW282704   7.334  12.585  12.225
60289SOL     OW82705   2.919   1.418  10.612
60289SOL    HW182706   2.884   1.455  10.693
60289SOL    HW282707   3.014   1.424  10.621
60290SOL     OW82708  13.629  11.865  13.407
60290SOL    HW182709  13.679  11.938  13.370
60290SOL    HW282710  13.663  11.855  13.496
60291SOL     OW82711   3.092   0.239   7.576
60291SOL    HW182712   3.137   0.242   7.492
60291SOL    HW282713   3.102   0.149   7.606
60292SOL     OW82714   0.349  12.422   5.178
60292SOL    HW182715   0.270  12.473   5.163
60292SOL    HW282716   0.406  12.444   5.104
60293SOL     OW82717   5.066   2.971  12.332
60293SOL    HW182718   5.051   2.892  12.384
60293SOL    HW282719   5.158   2.966  12.306
60294SOL     OW82720   1.444   4.664  13.411
60294SOL    HW182721   1.351   4.647  13.427
60294SOL    HW282722   1.461   4.630  13.323
60295SOL     OW82723  11.501  11.528   9.825
60295SOL    HW182724  11.573  11.590   9.820
60295SOL    HW282725  11.423  11.581   9.838
60296SOL     OW82726   3.354  11.846   7.017
60296SOL    HW182727   3.400  11.832   6.934
60296SOL    HW282728   3.323  11.759   7.042
60297SOL     OW82729   0.992   2.997   3.829
60297SOL    HW182730   1.059   2.934   3.803
60297SOL    HW282731   0.918   2.943   3.857
60298SOL     OW82732   6.246   6.908  14.398
60298SOL    HW182733   6.167   6.921  14.450
60298SOL    HW282734   6.313   6.883  14.462
60299SOL     OW82735  11.142   5.024  14.384
60299SOL    HW182736  11.059   4.984  14.410
60299SOL    HW282737  11.165   5.081  14.458
60300SOL     OW82738   4.008  13.578   8.235
60300SOL    HW182739   4.027  13.664   8.271
60300SOL    HW282740   3.953  13.536   8.301
60301SOL     OW82741  12.959   9.672  11.896
60301SOL    HW182742  12.906   9.751  11.896
60301SOL    HW282743  12.973   9.652  11.989
60302SOL     OW82744   3.766  12.326  14.626
60302SOL    HW182745   3.811  12.409  14.640
60302SOL    HW282746   3.753  12.290  14.715
60303SOL     OW82747  13.779   0.885   7.013
60303SOL    HW182748  13.733   0.895   6.930
60303SOL    HW282749  13.781   0.791   7.029
60304SOL     OW82750   8.233   1.271  10.940
60304SOL    HW182751   8.328   1.275  10.931
60304SOL    HW282752   8.218   1.195  10.997
60305SOL     OW82753   0.531  10.218   9.014
60305SOL    HW182754   0.450  10.268   9.028
60305SOL    HW282755   0.587  10.277   8.964
60306SOL     OW82756  11.475   9.949   9.543
60306SOL    HW182757  11.434   9.951   9.629
60306SOL    HW282758  11.468  10.039   9.511
60307SOL     OW82759   5.600   8.687   9.467
60307SOL    HW182760   5.573   8.692   9.559
60307SOL    HW282761   5.692   8.662   9.471
60308SOL     OW82762  13.253  14.191   7.179
60308SOL    HW182763  13.199  14.265   7.153
60308SOL    HW282764  13.334  14.230   7.210
60309SOL     OW82765  11.987  13.364   3.232
60309SOL    HW182766  11.948  13.290   3.279
60309SOL    HW282767  12.074  13.333   3.208
60310SOL     OW82768   5.013   4.982  14.299
60310SOL    HW182769   5.052   4.903  14.336
60310SOL    HW282770   5.087   5.035  14.269
60311SOL     OW82771  11.883  11.458   1.842
60311SOL    HW182772  11.827  11.535   1.844
60311SOL    HW282773  11.921  11.458   1.754
60312SOL     OW82774   8.739   5.159  14.601
60312SOL    HW182775   8.671   5.136  14.664
60312SOL    HW282776   8.740   5.086  14.539
60313SOL     OW82777  13.720   9.242   2.705
60313SOL    HW182778  13.651   9.293   2.747
60313SOL    HW282779  13.786   9.307   2.680
60314SOL     OW82780   2.341   1.977   5.478
60314SOL    HW182781   2.379   1.938   5.400
60314SOL    HW282782   2.361   1.915   5.548
60315SOL     OW82783  12.819  14.671   5.629
60315SOL    HW182784  12.913  14.655   5.637
60315SOL    HW282785  12.779  14.590   5.660
60316SOL     OW82786   9.949  11.718   6.933
60316SOL    HW182787   9.941  11.649   6.868
60316SOL    HW282788   9.885  11.784   6.906
60317SOL     OW82789   7.143   4.174   9.086
60317SOL    HW182790   7.154   4.246   9.148
60317SOL    HW282791   7.111   4.102   9.140
60318SOL     OW82792   5.286   4.138   4.018
60318SOL    HW182793   5.236   4.193   4.079
60318SOL    HW282794   5.377   4.162   4.034
60319SOL     OW82795  12.590   2.484   2.532
60319SOL    HW182796  12.591   2.500   2.437
60319SOL    HW282797  12.523   2.543   2.565
60320SOL     OW82798  10.551   4.786  11.332
60320SOL    HW182799  10.462   4.808  11.307
60320SOL    HW282800  10.602   4.796  11.251
60321SOL     OW82801   5.003   2.921   1.746
60321SOL    HW182802   5.027   2.870   1.823
60321SOL    HW282803   4.950   2.993   1.781
60322SOL     OW82804   1.197   5.200  10.220
60322SOL    HW182805   1.123   5.184  10.161
60322SOL    HW282806   1.273   5.204  10.163
60323SOL     OW82807  11.207   8.420   2.573
60323SOL    HW182808  11.284   8.406   2.628
60323SOL    HW282809  11.173   8.505   2.599
60324SOL     OW82810   9.235   4.482   0.040
60324SOL    HW182811   9.292   4.406   0.028
60324SOL    HW282812   9.148   4.450   0.018
60325SOL     OW82813   3.373   3.560  12.659
60325SOL    HW182814   3.395   3.617  12.732
60325SOL    HW282815   3.408   3.474  12.684
60326SOL     OW82816   1.353   2.144  13.539
60326SOL    HW182817   1.349   2.051  13.560
60326SOL    HW282818   1.286   2.156  13.471
60327SOL     OW82819   6.234   8.574  11.152
60327SOL    HW182820   6.197   8.583  11.064
60327SOL    HW282821   6.204   8.488  11.182
60328SOL     OW82822   1.942  10.163   9.231
60328SOL    HW182823   1.938  10.195   9.140
60328SOL    HW282824   1.948  10.243   9.283
60329SOL     OW82825   9.731   4.572   7.533
60329SOL    HW182826   9.643   4.552   7.501
60329SOL    HW282827   9.747   4.506   7.601
60330SOL     OW82828   9.142   7.860   3.717
60330SOL    HW182829   9.195   7.932   3.682
60330SOL    HW282830   9.115   7.891   3.803
60331SOL     OW82831   8.788  10.525   6.288
60331SOL    HW182832   8.693  10.530   6.296
60331SOL    HW282833   8.821  10.586   6.354
60332SOL     OW82834  10.371  11.183   6.000
60332SOL    HW182835  10.428  11.173   6.076
60332SOL    HW282836  10.353  11.093   5.971
60333SOL     OW82837   8.491   7.628  13.980
60333SOL    HW182838   8.553   7.557  13.966
60333SOL    HW282839   8.422   7.614  13.914
60334SOL     OW82840  12.122  12.668  10.499
60334SOL    HW182841  12.168  12.741  10.540
60334SOL    HW282842  12.030  12.682  10.521
60335SOL     OW82843   3.556   2.574  12.129
60335SOL    HW182844   3.549   2.591  12.223
60335SOL    HW282845   3.467   2.553  12.101
60336SOL     OW82846   2.682   9.057  10.991
60336SOL    HW182847   2.710   9.141  10.954
60336SOL    HW282848   2.718   9.057  11.080
60337SOL     OW82849  10.490  10.506   4.466
60337SOL    HW182850  10.553  10.469   4.404
60337SOL    HW282851  10.459  10.431   4.517
60338SOL     OW82852   3.562   0.600   0.808
60338SOL    HW182853   3.542   0.689   0.780
60338SOL    HW282854   3.657   0.593   0.802
60339SOL     OW82855   2.913  14.852  13.763
60339SOL    HW182856   2.871   0.057  13.727
60339SOL    HW282857   2.842  14.802  13.801
60340SOL     OW82858   6.473   5.325   3.426
60340SOL    HW182859   6.489   5.349   3.334
60340SOL    HW282860   6.378   5.329   3.436
60341SOL     OW82861   4.162   2.649  12.331
60341SOL    HW182862   4.150   2.591  12.256
60341SOL    HW282863   4.222   2.717  12.299
60342SOL     OW82864   8.488   5.932  11.309
60342SOL    HW182865   8.474   6.022  11.280
60342SOL    HW282866   8.544   5.940  11.386
60343SOL     OW82867  14.870   4.317   2.113
60343SOL    HW182868   0.067   4.358   2.164
60343SOL    HW282869  14.802   4.383   2.107
60344SOL     OW82870  12.515  11.582   8.025
60344SOL    HW182871  12.513  11.490   8.054
60344SOL    HW282872  12.436  11.592   7.974
60345SOL     OW82873  12.161   4.145   6.064
60345SOL    HW182874  12.155   4.216   6.000
60345SOL    HW282875  12.245   4.160   6.108
60346SOL     OW82876  12.133   7.083   4.087
60346SOL    HW182877  12.198   7.012   4.088
60346SOL    HW282878  12.095   7.081   4.175
60347SOL     OW82879   8.495   1.149  13.628
60347SOL    HW182880   8.567   1.105  13.584
60347SOL    HW282881   8.524   1.158  13.719
60348SOL     OW82882  14.340  14.184   8.682
60348SOL    HW182883  14.378  14.097   8.667
60348SOL    HW282884  14.249  14.176   8.651
60349SOL     OW82885   1.735   7.464   8.554
60349SOL    HW182886   1.806   7.477   8.618
60349SOL    HW282887   1.704   7.552   8.535
60350SOL     OW82888  14.327   2.377   6.142
60350SOL    HW182889  14.244   2.330   6.139
60350SOL    HW282890  14.302   2.469   6.149
60351SOL     OW82891  11.654   9.289   9.769
60351SOL    HW182892  11.578   9.243   9.734
60351SOL    HW282893  11.619   9.343   9.840
60352SOL     OW82894   1.703   7.855  14.390
60352SOL    HW182895   1.625   7.909  14.376
60352SOL    HW282896   1.671   7.765  14.390
60353SOL     OW82897   0.574  13.365  12.742
60353SOL    HW182898   0.660  13.375  12.782
60353SOL    HW282899   0.560  13.446  12.694
60354SOL     OW82900   0.579   7.700  13.555
60354SOL    HW182901   0.577   7.780  13.608
60354SOL    HW282902   0.572   7.731  13.465
60355SOL     OW82903  11.748  11.146   7.147
60355SOL    HW182904  11.789  11.164   7.063
60355SOL    HW282905  11.822  11.136   7.208
60356SOL     OW82906  11.776  12.234  13.985
60356SOL    HW182907  11.840  12.295  14.022
60356SOL    HW282908  11.750  12.178  14.058
60357SOL     OW82909  13.858  13.174  11.118
60357SOL    HW182910  13.809  13.106  11.073
60357SOL    HW282911  13.890  13.231  11.049
60358SOL     OW82912   6.992   3.001  12.605
60358SOL    HW182913   7.046   3.079  12.599
60358SOL    HW282914   6.968   2.995  12.697
60359SOL     OW82915   5.106  13.458   5.637
60359SOL    HW182916   5.022  13.470   5.681
60359SOL    HW282917   5.082  13.431   5.548
60360SOL     OW82918  13.334  13.374   0.113
60360SOL    HW182919  13.299  13.412   0.033
60360SOL    HW282920  13.331  13.279   0.098
60361SOL     OW82921   5.997   5.013   1.586
60361SOL    HW182922   6.051   4.984   1.659
60361SOL    HW282923   5.991   5.108   1.595
60362SOL     OW82924   6.322   9.809  12.923
60362SOL    HW182925   6.405   9.779  12.960
60362SOL    HW282926   6.306   9.894  12.964
60363SOL     OW82927   5.571   0.554   9.508
60363SOL    HW182928   5.515   0.510   9.443
60363SOL    HW282929   5.659   0.523   9.488
60364SOL     OW82930   1.750   6.374   9.028
60364SOL    HW182931   1.729   6.420   9.110
60364SOL    HW282932   1.680   6.399   8.968
60365SOL     OW82933   6.074  12.892   8.115
60365SOL    HW182934   6.136  12.856   8.052
60365SOL    HW282935   6.127  12.946   8.173
60366SOL     OW82936  10.875  11.900   9.342
60366SOL    HW182937  10.890  11.994   9.357
60366SOL    HW282938  10.784  11.895   9.312
60367SOL     OW82939  12.833   8.809   5.850
60367SOL    HW182940  12.883   8.728   5.857
60367SOL    HW282941  12.844   8.852   5.935
60368SOL     OW82942  11.089   7.583   8.284
60368SOL    HW182943  11.124   7.645   8.220
60368SOL    HW282944  11.110   7.622   8.369
60369SOL     OW82945  10.201   5.394   8.826
60369SOL    HW182946  10.196   5.380   8.921
60369SOL    HW282947  10.181   5.486   8.814
60370SOL     OW82948   5.017   9.475   4.505
60370SOL    HW182949   5.020   9.454   4.411
60370SOL    HW282950   5.066   9.405   4.547
60371SOL     OW82951   9.521   8.184  13.721
60371SOL    HW182952   9.427   8.193  13.710
60371SOL    HW282953   9.531   8.106  13.776
60372SOL     OW82954  10.819  13.508   4.013
60372SOL    HW182955  10.741  13.563   4.007
60372SOL    HW282956  10.891  13.571   4.024
60373SOL     OW82957  13.594  13.541   6.734
60373SOL    HW182958  13.650  13.463   6.738
60373SOL    HW282959  13.646  13.610   6.775
60374SOL     OW82960   1.261   4.464   5.105
60374SOL    HW182961   1.245   4.381   5.060
60374SOL    HW282962   1.348   4.490   5.075
60375SOL     OW82963   5.964   3.676   6.628
60375SOL    HW182964   6.005   3.762   6.626
60375SOL    HW282965   5.995   3.636   6.710
60376SOL     OW82966   3.362   3.011   8.325
60376SOL    HW182967   3.370   2.944   8.394
60376SOL    HW282968   3.327   3.087   8.370
60377SOL     OW82969   5.525   1.898   6.778
60377SOL    HW182970   5.548   1.819   6.828
60377SOL    HW282971   5.499   1.961   6.845
60378SOL     OW82972   7.252   5.713   6.716
60378SOL    HW182973   7.174   5.720   6.772
60378SOL    HW282974   7.239   5.631   6.668
60379SOL     OW82975   1.281   3.769  10.608
60379SOL    HW182976   1.306   3.744  10.697
60379SOL    HW282977   1.200   3.818  10.619
60380SOL     OW82978  10.226   1.372  10.306
60380SOL    HW182979  10.189   1.284  10.308
60380SOL    HW282980  10.189   1.416  10.383
60381SOL     OW82981  14.738   2.141  12.812
60381SOL    HW182982  14.808   2.137  12.878
60381SOL    HW282983  14.661   2.106  12.857
60382SOL     OW82984   1.937   8.692  13.317
60382SOL    HW182985   1.850   8.728  13.338
60382SOL    HW282986   1.988   8.704  13.396
60383SOL     OW82987  14.835   9.668  13.506
60383SOL    HW182988   0.036   9.703  13.555
60383SOL    HW282989  14.866   9.583  13.473
60384SOL     OW82990   8.434  12.716   2.026
60384SOL    HW182991   8.362  12.667   1.985
60384SOL    HW282992   8.506  12.653   2.030
60385SOL     OW82993  14.488   9.342  12.714
60385SOL    HW182994  14.507   9.294  12.634
60385SOL    HW282995  14.566   9.397  12.728
60386SOL     OW82996   3.172   1.826  11.565
60386SOL    HW182997   3.176   1.908  11.517
60386SOL    HW282998   3.135   1.849  11.650
60387SOL     OW82999  12.342   9.407   7.551
60387SOL    HW183000  12.357   9.346   7.623
60387SOL    HW283001  12.312   9.352   7.479
60388SOL     OW83002   4.696  13.318  11.342
60388SOL    HW183003   4.714  13.405  11.308
60388SOL    HW283004   4.631  13.282  11.282
60389SOL     OW83005   0.926   0.330  11.004
60389SOL    HW183006   0.835   0.354  11.024
60389SOL    HW283007   0.967   0.413  10.979
60390SOL     OW83008   6.724  11.401   5.365
60390SOL    HW183009   6.637  11.417   5.404
60390SOL    HW283010   6.762  11.489   5.357
60391SOL     OW83011   5.159   4.553  13.116
60391SOL    HW183012   5.096   4.617  13.082
60391SOL    HW283013   5.122   4.527  13.201
60392SOL     OW83014  13.879   2.620   6.845
60392SOL    HW183015  13.898   2.559   6.916
60392SOL    HW283016  13.947   2.602   6.779
60393SOL     OW83017  12.721  10.507   0.157
60393SOL    HW183018  12.812  10.535   0.164
60393SOL    HW283019  12.680  10.573   0.101
60394SOL     OW83020  12.322   7.518  11.283
60394SOL    HW183021  12.297   7.538  11.373
60394SOL    HW283022  12.239   7.519  11.234
60395SOL     OW83023   3.935   1.810   0.222
60395SOL    HW183024   3.985   1.762   0.156
60395SOL    HW283025   3.991   1.810   0.300
60396SOL     OW83026   8.755   8.885   2.516
60396SOL    HW183027   8.782   8.814   2.574
60396SOL    HW283028   8.675   8.920   2.556
60397SOL     OW83029   0.987   7.009   1.209
60397SOL    HW183030   1.052   6.946   1.177
60397SOL    HW283031   1.038   7.087   1.229
60398SOL     OW83032  13.470  12.311   1.087
60398SOL    HW183033  13.488  12.365   1.165
60398SOL    HW283034  13.376  12.321   1.073
60399SOL     OW83035  10.583   4.629   9.191
60399SOL    HW183036  10.575   4.540   9.157
60399SOL    HW283037  10.531   4.629   9.272
60400SOL     OW83038   4.333  11.690   5.835
60400SOL    HW183039   4.419  11.731   5.833
60400SOL    HW283040   4.351  11.597   5.849
60401SOL     OW83041   0.128   5.979   8.197
60401SOL    HW183042   0.050   5.955   8.148
60401SOL    HW283043   0.187   6.016   8.132
60402SOL     OW83044   0.766   0.062  11.583
60402SOL    HW183045   0.675   0.041  11.606
60402SOL    HW283046   0.758   0.110  11.500
60403SOL     OW83047   9.910  14.831   2.117
60403SOL    HW183048   9.915  14.761   2.053
60403SOL    HW283049   9.856  14.796   2.188
60404SOL     OW83050   0.589   8.376   7.165
60404SOL    HW183051   0.526   8.430   7.117
60404SOL    HW283052   0.554   8.374   7.255
60405SOL     OW83053   9.050  10.971   8.063
60405SOL    HW183054   9.130  11.016   8.035
60405SOL    HW283055   8.990  11.042   8.085
60406SOL     OW83056   7.313  13.235   8.499
60406SOL    HW183057   7.257  13.313   8.505
60406SOL    HW283058   7.376  13.245   8.570
60407SOL     OW83059  10.386   1.909   5.084
60407SOL    HW183060  10.381   1.817   5.109
60407SOL    HW283061  10.457   1.945   5.137
60408SOL     OW83062   6.216  10.682  10.211
60408SOL    HW183063   6.181  10.621  10.146
60408SOL    HW283064   6.139  10.727  10.246
60409SOL     OW83065   4.249  14.154  12.109
60409SOL    HW183066   4.232  14.060  12.108
60409SOL    HW283067   4.184  14.189  12.170
60410SOL     OW83068   2.586   0.524   0.461
60410SOL    HW183069   2.646   0.456   0.492
60410SOL    HW283070   2.641   0.583   0.410
60411SOL     OW83071   2.815  13.858   7.771
60411SOL    HW183072   2.774  13.788   7.822
60411SOL    HW283073   2.751  13.877   7.702
60412SOL     OW83074   3.075   9.641   2.499
60412SOL    HW183075   3.054   9.732   2.519
60412SOL    HW283076   2.990   9.599   2.485
60413SOL     OW83077   4.227  10.148   5.580
60413SOL    HW183078   4.314  10.156   5.541
60413SOL    HW283079   4.217  10.055   5.599
60414SOL     OW83080  14.522   1.459   4.467
60414SOL    HW183081  14.512   1.553   4.452
60414SOL    HW283082  14.554   1.453   4.557
60415SOL     OW83083   9.567  14.434   1.290
60415SOL    HW183084   9.624  14.367   1.252
60415SOL    HW283085   9.596  14.516   1.248
60416SOL     OW83086   7.597   0.155  10.372
60416SOL    HW183087   7.668   0.160  10.436
60416SOL    HW283088   7.627   0.211  10.300
60417SOL     OW83089  12.056   6.845   1.748
60417SOL    HW183090  12.100   6.759   1.753
60417SOL    HW283091  12.056   6.867   1.655
60418SOL     OW83092   0.598  11.033   6.140
60418SOL    HW183093   0.608  11.050   6.234
60418SOL    HW283094   0.504  11.024   6.128
60419SOL     OW83095   4.907   1.056   6.955
60419SOL    HW183096   4.874   1.141   6.925
60419SOL    HW283097   4.995   1.051   6.917
60420SOL     OW83098   4.017  11.952   9.196
60420SOL    HW183099   4.063  11.876   9.160
60420SOL    HW283100   4.042  12.024   9.140
60421SOL     OW83101   9.767  12.194   6.734
60421SOL    HW183102   9.775  12.140   6.813
60421SOL    HW283103   9.849  12.176   6.686
60422SOL     OW83104   0.852  14.321   5.480
60422SOL    HW183105   0.861  14.304   5.386
60422SOL    HW283106   0.849  14.235   5.521
60423SOL     OW83107   4.946  12.577  14.769
60423SOL    HW183108   4.867  12.592  14.822
60423SOL    HW283109   4.948  12.651  14.708
60424SOL     OW83110  12.604  12.483  13.057
60424SOL    HW183111  12.520  12.456  13.094
60424SOL    HW283112  12.657  12.404  13.055
60425SOL     OW83113  14.260  11.608   5.875
60425SOL    HW183114  14.234  11.670   5.808
60425SOL    HW283115  14.227  11.646   5.957
60426SOL     OW83116   7.464   4.886  11.247
60426SOL    HW183117   7.554   4.910  11.268
60426SOL    HW283118   7.422   4.969  11.225
60427SOL     OW83119  11.231   4.840   8.214
60427SOL    HW183120  11.279   4.919   8.190
60427SOL    HW283121  11.184   4.864   8.294
60428SOL     OW83122  12.367   9.851   1.806
60428SOL    HW183123  12.302   9.866   1.738
60428SOL    HW283124  12.340   9.769   1.847
60429SOL     OW83125   2.947   5.240  11.443
60429SOL    HW183126   3.036   5.207  11.455
60429SOL    HW283127   2.944   5.269  11.352
60430SOL     OW83128   4.334   4.240   5.002
60430SOL    HW183129   4.325   4.262   5.095
60430SOL    HW283130   4.276   4.301   4.957
60431SOL     OW83131   5.749  14.141   8.382
60431SOL    HW183132   5.750  14.045   8.377
60431SOL    HW283133   5.663  14.165   8.347
60432SOL     OW83134  13.347   0.633   9.383
60432SOL    HW183135  13.352   0.723   9.416
60432SOL    HW283136  13.369   0.640   9.290
60433SOL     OW83137   2.719  10.109   0.519
60433SOL    HW183138   2.654  10.173   0.490
60433SOL    HW283139   2.800  10.138   0.478
60434SOL     OW83140  11.801   3.811   5.865
60434SOL    HW183141  11.869   3.876   5.886
60434SOL    HW283142  11.815   3.792   5.772
60435SOL     OW83143   3.913   9.219   9.739
60435SOL    HW183144   3.898   9.206   9.833
60435SOL    HW283145   4.008   9.212   9.729
60436SOL     OW83146   8.566   3.066   7.817
60436SOL    HW183147   8.567   3.162   7.826
60436SOL    HW283148   8.615   3.034   7.893
60437SOL     OW83149  11.267  12.317   4.243
60437SOL    HW183150  11.319  12.299   4.322
60437SOL    HW283151  11.329  12.304   4.171
60438SOL     OW83152  10.228  14.324   2.026
60438SOL    HW183153  10.289  14.371   1.969
60438SOL    HW283154  10.257  14.233   2.024
60439SOL     OW83155   2.681   6.211   6.729
60439SOL    HW183156   2.677   6.307   6.730
60439SOL    HW283157   2.629   6.186   6.653
60440SOL     OW83158   0.417  10.843  14.606
60440SOL    HW183159   0.360  10.854  14.529
60440SOL    HW283160   0.496  10.892  14.584
60441SOL     OW83161   0.117   6.824   9.259
60441SOL    HW183162   0.083   6.771   9.187
60441SOL    HW283163   0.124   6.764   9.333
60442SOL     OW83164   4.070   4.814   3.991
60442SOL    HW183165   4.016   4.883   3.952
60442SOL    HW283166   4.086   4.843   4.081
60443SOL     OW83167  10.935  13.731   4.469
60443SOL    HW183168  10.992  13.776   4.407
60443SOL    HW283169  10.993  13.673   4.518
60444SOL     OW83170  11.195  12.773  14.309
60444SOL    HW183171  11.147  12.692  14.329
60444SOL    HW283172  11.130  12.831  14.271
60445SOL     OW83173   2.273  11.732   0.236
60445SOL    HW183174   2.358  11.726   0.193
60445SOL    HW283175   2.261  11.825   0.254
60446SOL     OW83176   2.809  11.646  14.164
60446SOL    HW183177   2.843  11.657  14.075
60446SOL    HW283178   2.874  11.591  14.208
60447SOL     OW83179   8.258   3.388   7.588
60447SOL    HW183180   8.264   3.296   7.612
60447SOL    HW283181   8.229   3.432   7.667
60448SOL     OW83182   5.660   7.578   4.156
60448SOL    HW183183   5.747   7.608   4.179
60448SOL    HW283184   5.672   7.529   4.075
60449SOL     OW83185  13.208   1.873  10.692
60449SOL    HW183186  13.181   1.831  10.611
60449SOL    HW283187  13.146   1.841  10.758
60450SOL     OW83188  11.798   6.518  13.844
60450SOL    HW183189  11.703   6.521  13.833
60450SOL    HW283190  11.830   6.480  13.763
60451SOL     OW83191  11.105  12.787  12.879
60451SOL    HW183192  11.054  12.706  12.869
60451SOL    HW283193  11.048  12.856  12.846
60452SOL     OW83194   4.031   2.627   3.191
60452SOL    HW183195   4.070   2.680   3.121
60452SOL    HW283196   3.955   2.586   3.150
60453SOL     OW83197   7.285   7.311  14.830
60453SOL    HW183198   7.253   7.383   0.011
60453SOL    HW283199   7.368   7.285  14.870
60454SOL     OW83200   2.411   5.939   6.929
60454SOL    HW183201   2.347   5.931   6.999
60454SOL    HW283202   2.459   6.019   6.950
60455SOL     OW83203  11.458   1.891   5.724
60455SOL    HW183204  11.540   1.866   5.681
60455SOL    HW283205  11.471   1.982   5.748
60456SOL     OW83206   9.331   3.548  14.749
60456SOL    HW183207   9.269   3.513  14.813
60456SOL    HW283208   9.308   3.640  14.740
60457SOL     OW83209  10.935   6.574   5.381
60457SOL    HW183210  10.898   6.491   5.352
60457SOL    HW283211  10.865   6.638   5.370
60458SOL     OW83212   0.939  14.118   9.188
60458SOL    HW183213   1.032  14.136   9.198
60458SOL    HW283214   0.926  14.112   9.094
60459SOL     OW83215  10.789   3.142  12.577
60459SOL    HW183216  10.878   3.135  12.612
60459SOL    HW283217  10.802   3.152  12.482
60460SOL     OW83218   1.840   9.468  14.119
60460SOL    HW183219   1.848   9.459  14.024
60460SOL    HW283220   1.866   9.558  14.138
60461SOL     OW83221  10.501   1.062   6.312
60461SOL    HW183222  10.501   0.983   6.258
60461SOL    HW283223  10.433   1.118   6.274
60462SOL     OW83224   3.000   2.935  13.763
60462SOL    HW183225   3.002   2.894  13.677
60462SOL    HW283226   2.914   2.978  13.767
60463SOL     OW83227   0.388   1.996   9.282
60463SOL    HW183228   0.473   2.021   9.245
60463SOL    HW283229   0.375   2.056   9.355
60464SOL     OW83230   2.908  10.444   7.260
60464SOL    HW183231   2.837  10.507   7.268
60464SOL    HW283232   2.954  10.449   7.344
60465SOL     OW83233   7.864  12.415  14.032
60465SOL    HW183234   7.847  12.505  14.061
60465SOL    HW283235   7.813  12.361  14.092
60466SOL     OW83236  11.385  10.725  12.190
60466SOL    HW183237  11.431  10.684  12.263
60466SOL    HW283238  11.448  10.726  12.119
60467SOL     OW83239   8.945   9.329   1.956
60467SOL    HW183240   8.960   9.235   1.961
60467SOL    HW283241   8.850   9.339   1.965
60468SOL     OW83242   9.330  14.615   6.942
60468SOL    HW183243   9.376  14.604   6.858
60468SOL    HW283244   9.276  14.693   6.929
60469SOL     OW83245   5.198   3.463   6.207
60469SOL    HW183246   5.218   3.480   6.114
60469SOL    HW283247   5.284   3.465   6.250
60470SOL     OW83248  13.796  10.955   7.722
60470SOL    HW183249  13.854  10.907   7.782
60470SOL    HW283250  13.759  10.887   7.665
60471SOL     OW83251  12.255   3.623  13.704
60471SOL    HW183252  12.189   3.642  13.771
60471SOL    HW283253  12.251   3.698  13.645
60472SOL     OW83254  13.205  13.776  14.418
60472SOL    HW183255  13.123  13.733  14.444
60472SOL    HW283256  13.258  13.705  14.381
60473SOL     OW83257   0.535  13.287   0.710
60473SOL    HW183258   0.623  13.297   0.748
60473SOL    HW283259   0.546  13.310   0.618
60474SOL     OW83260   0.202  12.194   7.478
60474SOL    HW183261   0.218  12.193   7.384
60474SOL    HW283262   0.115  12.155   7.489
60475SOL     OW83263  11.675   2.989   4.361
60475SOL    HW183264  11.680   3.031   4.447
60475SOL    HW283265  11.734   2.914   4.368
60476SOL     OW83266   0.063  14.528  12.851
60476SOL    HW183267  14.865  14.584  12.882
60476SOL    HW283268   0.072  14.550  12.758
60477SOL     OW83269   9.486  12.868   2.290
60477SOL    HW183270   9.506  12.793   2.235
60477SOL    HW283271   9.401  12.899   2.258
60478SOL     OW83272   2.038  12.008   1.719
60478SOL    HW183273   2.051  12.031   1.627
60478SOL    HW283274   2.124  11.980   1.750
60479SOL     OW83275   3.289   7.085  14.370
60479SOL    HW183276   3.366   7.038  14.402
60479SOL    HW283277   3.323   7.171  14.344
60480SOL     OW83278  14.384   7.433  12.794
60480SOL    HW183279  14.385   7.519  12.835
60480SOL    HW283280  14.291   7.414  12.780
60481SOL     OW83281  13.445   8.613  11.805
60481SOL    HW183282  13.413   8.567  11.882
60481SOL    HW283283  13.395   8.694  11.803
60482SOL     OW83284  10.247  13.095   3.497
60482SOL    HW183285  10.157  13.124   3.511
60482SOL    HW283286  10.294  13.174   3.470
60483SOL     OW83287  13.396   7.131  10.888
60483SOL    HW183288  13.383   7.226  10.890
60483SOL    HW283289  13.378   7.107  10.797
60484SOL     OW83290   6.183  13.129   2.006
60484SOL    HW183291   6.175  13.172   2.091
60484SOL    HW283292   6.183  13.200   1.942
60485SOL     OW83293   8.174   2.327   4.794
60485SOL    HW183294   8.269   2.324   4.792
60485SOL    HW283295   8.149   2.352   4.705
60486SOL     OW83296   7.257   0.954  10.172
60486SOL    HW183297   7.275   0.869  10.132
60486SOL    HW283298   7.299   0.949  10.259
60487SOL     OW83299   8.488  12.936   3.393
60487SOL    HW183300   8.480  13.032   3.392
60487SOL    HW283301   8.583  12.920   3.396
60488SOL     OW83302  12.230   0.028   5.401
60488SOL    HW183303  12.290  14.829   5.382
60488SOL    HW283304  12.214   0.070   5.316
60489SOL     OW83305   5.482   5.402   0.325
60489SOL    HW183306   5.450   5.312   0.329
60489SOL    HW283307   5.519   5.417   0.412
60490SOL     OW83308   1.176   7.312  11.087
60490SOL    HW183309   1.179   7.288  10.994
60490SOL    HW283310   1.218   7.240  11.132
60491SOL     OW83311  13.345   7.291   8.389
60491SOL    HW183312  13.341   7.299   8.294
60491SOL    HW283313  13.390   7.208   8.405
60492SOL     OW83314   8.545  12.025   0.597
60492SOL    HW183315   8.563  11.993   0.686
60492SOL    HW283316   8.516  11.948   0.549
60493SOL     OW83317   8.468   6.893   6.567
60493SOL    HW183318   8.425   6.827   6.512
60493SOL    HW283319   8.492   6.846   6.647
60494SOL     OW83320  11.385   4.912   7.063
60494SOL    HW183321  11.438   4.859   7.122
60494SOL    HW283322  11.408   5.003   7.085
60495SOL     OW83323  14.299   6.726   8.448
60495SOL    HW183324  14.319   6.653   8.391
60495SOL    HW283325  14.288   6.687   8.535
60496SOL     OW83326   0.657  11.766   2.603
60496SOL    HW183327   0.584  11.767   2.541
60496SOL    HW283328   0.630  11.705   2.671
60497SOL     OW83329   7.807  10.447  11.733
60497SOL    HW183330   7.770  10.361  11.752
60497SOL    HW283331   7.821  10.487  11.819
60498SOL     OW83332   7.083   6.563  11.513
60498SOL    HW183333   7.027   6.568  11.590
60498SOL    HW283334   7.037   6.504  11.453
60499SOL     OW83335   5.798   8.862  14.158
60499SOL    HW183336   5.778   8.789  14.100
60499SOL    HW283337   5.713   8.897  14.183
60500SOL     OW83338   8.613   6.422  10.511
60500SOL    HW183339   8.532   6.458  10.547
60500SOL    HW283340   8.663   6.498  10.482
60501SOL     OW83341  14.462   2.983   5.816
60501SOL    HW183342  14.490   2.999   5.725
60501SOL    HW283343  14.534   2.932   5.854
60502SOL     OW83344   8.947   3.220   3.743
60502SOL    HW183345   8.904   3.260   3.818
60502SOL    HW283346   9.040   3.235   3.758
60503SOL     OW83347   4.015   8.367  11.783
60503SOL    HW183348   4.019   8.454  11.824
60503SOL    HW283349   4.102   8.331  11.795
60504SOL     OW83350   7.343  13.505  14.582
60504SOL    HW183351   7.300  13.536  14.502
60504SOL    HW283352   7.293  13.546  14.653
60505SOL     OW83353  11.025   2.343   5.544
60505SOL    HW183354  11.057   2.422   5.587
60505SOL    HW283355  11.061   2.271   5.596
60506SOL     OW83356   7.930   8.219   0.350
60506SOL    HW183357   7.948   8.232   0.257
60506SOL    HW283358   7.962   8.298   0.393
60507SOL     OW83359  13.874  14.090  13.061
60507SOL    HW183360  13.790  14.130  13.085
60507SOL    HW283361  13.880  14.012  13.117
60508SOL     OW83362  13.637  13.382   5.432
60508SOL    HW183363  13.715  13.404   5.382
60508SOL    HW283364  13.575  13.350   5.367
60509SOL     OW83365   0.803   1.065  11.968
60509SOL    HW183366   0.830   1.005  12.038
60509SOL    HW283367   0.830   1.022  11.887
60510SOL     OW83368  10.827   1.446   1.149
60510SOL    HW183369  10.776   1.516   1.109
60510SOL    HW283370  10.873   1.488   1.222
60511SOL     OW83371   3.977  10.218   6.440
60511SOL    HW183372   3.998  10.278   6.511
60511SOL    HW283373   3.983  10.272   6.361
60512SOL     OW83374   5.985   9.424  12.751
60512SOL    HW183375   6.050   9.364  12.787
60512SOL    HW283376   5.910   9.416  12.810
60513SOL     OW83377   3.100  10.662   4.097
60513SOL    HW183378   3.025  10.715   4.124
60513SOL    HW283379   3.165  10.676   4.166
60514SOL     OW83380   2.831   5.157   7.790
60514SOL    HW183381   2.808   5.242   7.827
60514SOL    HW283382   2.835   5.098   7.865
60515SOL     OW83383  13.063   1.169   4.100
60515SOL    HW183384  13.128   1.178   4.170
60515SOL    HW283385  13.115   1.168   4.020
60516SOL     OW83386   3.136   2.581   5.174
60516SOL    HW183387   3.048   2.613   5.152
60516SOL    HW283388   3.186   2.594   5.094
60517SOL     OW83389   6.251   9.179   2.642
60517SOL    HW183390   6.332   9.216   2.675
60517SOL    HW283391   6.193   9.255   2.629
60518SOL     OW83392   8.740  13.118   3.043
60518SOL    HW183393   8.650  13.095   3.064
60518SOL    HW283394   8.763  13.186   3.106
60519SOL     OW83395   5.283   2.626  14.504
60519SOL    HW183396   5.338   2.595  14.432
60519SOL    HW283397   5.246   2.546  14.541
60520SOL     OW83398  10.303   1.563   2.498
60520SOL    HW183399  10.269   1.493   2.442
60520SOL    HW283400  10.395   1.541   2.511
60521SOL     OW83401  13.451   9.786   2.740
60521SOL    HW183402  13.533   9.747   2.708
60521SOL    HW283403  13.469   9.880   2.741
60522SOL     OW83404   6.052  10.228  10.326
60522SOL    HW183405   5.971  10.265  10.360
60522SOL    HW283406   6.060  10.265  10.238
60523SOL     OW83407  13.515   8.692   0.322
60523SOL    HW183408  13.441   8.742   0.288
60523SOL    HW283409  13.592   8.738   0.290
60524SOL     OW83410   8.547   6.182   2.658
60524SOL    HW183411   8.554   6.094   2.621
60524SOL    HW283412   8.512   6.168   2.746
60525SOL     OW83413  12.628   1.553  13.534
60525SOL    HW183414  12.613   1.583  13.624
60525SOL    HW283415  12.637   1.633  13.483
60526SOL     OW83416  10.673   4.412   0.991
60526SOL    HW183417  10.712   4.499   0.984
60526SOL    HW283418  10.671   4.394   1.085
60527SOL     OW83419  14.110   1.339   0.802
60527SOL    HW183420  14.117   1.320   0.895
60527SOL    HW283421  14.152   1.265   0.758
60528SOL     OW83422  12.323   8.725  13.288
60528SOL    HW183423  12.298   8.637  13.260
60528SOL    HW283424  12.318   8.721  13.384
60529SOL     OW83425   7.869   9.363  14.500
60529SOL    HW183426   7.781   9.377  14.464
60529SOL    HW283427   7.863   9.394  14.590
60530SOL     OW83428  10.363  12.627  13.943
60530SOL    HW183429  10.293  12.578  13.899
60530SOL    HW283430  10.329  12.645  14.030
60531SOL     OW83431   6.362   9.624   9.286
60531SOL    HW183432   6.317   9.545   9.313
60531SOL    HW283433   6.380   9.671   9.367
60532SOL     OW83434  11.857  14.439   6.562
60532SOL    HW183435  11.782  14.420   6.618
60532SOL    HW283436  11.821  14.450   6.475
60533SOL     OW83437   7.355  12.527   1.686
60533SOL    HW183438   7.358  12.578   1.767
60533SOL    HW283439   7.335  12.438   1.715
60534SOL     OW83440   4.894  12.500   9.339
60534SOL    HW183441   4.819  12.504   9.399
60534SOL    HW283442   4.951  12.433   9.377
60535SOL     OW83443  13.159   5.212   4.821
60535SOL    HW183444  13.129   5.231   4.732
60535SOL    HW283445  13.240   5.262   4.831
60536SOL     OW83446   0.371   5.895   3.360
60536SOL    HW183447   0.292   5.866   3.406
60536SOL    HW283448   0.368   5.990   3.367
60537SOL     OW83449   8.033   7.090   4.768
60537SOL    HW183450   8.094   7.114   4.838
60537SOL    HW283451   7.947   7.110   4.805
60538SOL     OW83452  11.385   6.850  12.932
60538SOL    HW183453  11.371   6.811  13.018
60538SOL    HW283454  11.475   6.884  12.936
60539SOL     OW83455  12.372   9.606   6.973
60539SOL    HW183456  12.432   9.540   6.940
60539SOL    HW283457  12.301   9.608   6.909
60540SOL     OW83458   0.542   5.616   3.604
60540SOL    HW183459   0.638   5.624   3.604
60540SOL    HW283460   0.523   5.561   3.528
60541SOL     OW83461   2.975   4.220  14.870
60541SOL    HW183462   2.983   4.144  14.812
60541SOL    HW283463   2.963   4.183   0.084
60542SOL     OW83464   0.494   7.960  12.902
60542SOL    HW183465   0.539   7.877  12.888
60542SOL    HW283466   0.435   7.969  12.827
60543SOL     OW83467   8.918  11.194   5.300
60543SOL    HW183468   8.934  11.227   5.389
60543SOL    HW283469   8.895  11.102   5.313
60544SOL     OW83470   6.941   1.114   7.985
60544SOL    HW183471   7.026   1.071   7.973
60544SOL    HW283472   6.881   1.063   7.931
60545SOL     OW83473  13.605   8.718   2.306
60545SOL    HW183474  13.620   8.769   2.227
60545SOL    HW283475  13.650   8.767   2.375
60546SOL     OW83476  12.604   4.641   0.065
60546SOL    HW183477  12.682   4.610   0.111
60546SOL    HW283478  12.545   4.565   0.065
60547SOL     OW83479   3.571   2.607   5.027
60547SOL    HW183480   3.581   2.595   4.932
60547SOL    HW283481   3.503   2.674   5.035
60548SOL     OW83482   6.144   7.056  12.757
60548SOL    HW183483   6.102   7.101  12.830
60548SOL    HW283484   6.164   6.969  12.791
60549SOL     OW83485  10.172  14.260   5.231
60549SOL    HW183486  10.244  14.198   5.225
60549SOL    HW283487  10.205  14.331   5.286
60550SOL     OW83488  14.427  14.462   8.529
60550SOL    HW183489  14.342  14.435   8.495
60550SOL    HW283490  14.412  14.482   8.621
60551SOL     OW83491  12.297   8.597   4.087
60551SOL    HW183492  12.371   8.655   4.110
60551SOL    HW283493  12.236   8.606   4.160
60552SOL     OW83494   1.967   7.178  12.036
60552SOL    HW183495   1.962   7.206  12.127
60552SOL    HW283496   2.061   7.176  12.016
60553SOL     OW83497  11.316   2.649   5.229
60553SOL    HW183498  11.295   2.656   5.322
60553SOL    HW283499  11.393   2.704   5.217
60554SOL     OW83500   2.537  13.670   6.978
60554SOL    HW183501   2.563  13.602   7.040
60554SOL    HW283502   2.471  13.721   7.025
60555SOL     OW83503   4.133   2.766  14.411
60555SOL    HW183504   4.201   2.780  14.477
60555SOL    HW283505   4.173   2.796  14.329
60556SOL     OW83506  14.427   1.929   2.030
60556SOL    HW183507  14.436   1.872   2.107
60556SOL    HW283508  14.350   1.896   1.984
60557SOL     OW83509   0.324  10.671  14.123
60557SOL    HW183510   0.410  10.649  14.088
60557SOL    HW283511   0.266  10.604  14.088
60558SOL     OW83512   0.967  14.565  13.936
60558SOL    HW183513   1.049  14.518  13.919
60558SOL    HW283514   0.993  14.642  13.987
60559SOL     OW83515   8.352   2.191  11.394
60559SOL    HW183516   8.304   2.194  11.477
60559SOL    HW283517   8.428   2.248  11.409
60560SOL     OW83518   7.032  11.006  12.057
60560SOL    HW183519   7.008  11.051  12.138
60560SOL    HW283520   6.953  11.013  12.002
60561SOL     OW83521   7.729  14.435  10.805
60561SOL    HW183522   7.668  14.501  10.772
60561SOL    HW283523   7.726  14.445  10.900
60562SOL     OW83524   9.005   0.164  13.052
60562SOL    HW183525   9.038   0.248  13.082
60562SOL    HW283526   8.919   0.156  13.094
60563SOL     OW83527   5.986  12.033   8.369
60563SOL    HW183528   6.039  11.968   8.416
60563SOL    HW283529   6.051  12.088   8.325
60564SOL     OW83530   1.451   5.370   5.032
60564SOL    HW183531   1.457   5.300   4.967
60564SOL    HW283532   1.540   5.378   5.068
60565SOL     OW83533   2.922  12.373   9.429
60565SOL    HW183534   2.909  12.344   9.338
60565SOL    HW283535   2.942  12.466   9.421
60566SOL     OW83536   3.547   5.284  10.679
60566SOL    HW183537   3.607   5.352  10.709
60566SOL    HW283538   3.549   5.290  10.583
60567SOL     OW83539   2.296  10.269  14.192
60567SOL    HW183540   2.315  10.363  14.196
60567SOL    HW283541   2.202  10.264  14.176
60568SOL     OW83542   5.741   8.439   6.249
60568SOL    HW183543   5.654   8.400   6.257
60568SOL    HW283544   5.728   8.512   6.188
60569SOL     OW83545   6.039   0.420  10.931
60569SOL    HW183546   6.114   0.363  10.912
60569SOL    HW283547   5.997   0.434  10.847
60570SOL     OW83548   8.065  13.244   0.409
60570SOL    HW183549   8.141  13.280   0.364
60570SOL    HW283550   8.029  13.317   0.459
60571SOL     OW83551   2.288  13.940   2.845
60571SOL    HW183552   2.281  13.964   2.753
60571SOL    HW283553   2.290  14.023   2.892
60572SOL     OW83554  12.710   1.067  14.285
60572SOL    HW183555  12.663   1.067  14.201
60572SOL    HW283556  12.715   0.975  14.310
60573SOL     OW83557   1.819   8.491  11.599
60573SOL    HW183558   1.768   8.412  11.619
60573SOL    HW283559   1.872   8.467  11.524
60574SOL     OW83560   2.968   5.451   3.654
60574SOL    HW183561   2.908   5.388   3.615
60574SOL    HW283562   2.962   5.436   3.748
60575SOL     OW83563  12.646   8.885  11.644
60575SOL    HW183564  12.593   8.832  11.584
60575SOL    HW283565  12.613   8.861  11.731
60576SOL     OW83566   0.899  11.542  10.443
60576SOL    HW183567   0.841  11.617  10.427
60576SOL    HW283568   0.873  11.478  10.377
60577SOL     OW83569   0.713  14.074   6.463
60577SOL    HW183570   0.669  13.996   6.427
60577SOL    HW283571   0.684  14.079   6.554
60578SOL     OW83572   0.266   3.352   7.374
60578SOL    HW183573   0.294   3.412   7.305
60578SOL    HW283574   0.204   3.293   7.331
60579SOL     OW83575   7.804   4.226  12.078
60579SOL    HW183576   7.709   4.241  12.076
60579SOL    HW283577   7.833   4.247  11.990
60580SOL     OW83578   6.867   8.941  12.357
60580SOL    HW183579   6.840   8.871  12.297
60580SOL    HW283580   6.919   9.000  12.302
60581SOL     OW83581   4.360   8.597  12.001
60581SOL    HW183582   4.295   8.663  11.979
60581SOL    HW283583   4.386   8.618  12.091
60582SOL     OW83584   1.334   6.577  13.018
60582SOL    HW183585   1.356   6.576  12.925
60582SOL    HW283586   1.380   6.501  13.054
60583SOL     OW83587   8.706  12.663  11.149
60583SOL    HW183588   8.718  12.569  11.139
60583SOL    HW283589   8.795  12.698  11.152
60584SOL     OW83590   4.441  12.259   6.626
60584SOL    HW183591   4.490  12.333   6.663
60584SOL    HW283592   4.493  12.182   6.650
60585SOL     OW83593   3.241   9.280   0.394
60585SOL    HW183594   3.168   9.329   0.356
60585SOL    HW283595   3.236   9.299   0.488
60586SOL     OW83596   4.113   7.582   6.892
60586SOL    HW183597   4.134   7.532   6.971
60586SOL    HW283598   4.119   7.517   6.821
60587SOL     OW83599  10.637   5.821  12.568
60587SOL    HW183600  10.708   5.815  12.633
60587SOL    HW283601  10.639   5.912  12.539
60588SOL     OW83602   4.881   7.394   8.331
60588SOL    HW183603   4.864   7.300   8.324
60588SOL    HW283604   4.810   7.435   8.282
60589SOL     OW83605   7.995   8.199  14.599
60589SOL    HW183606   8.021   8.264  14.535
60589SOL    HW283607   7.965   8.250  14.674
60590SOL     OW83608  13.782  12.980   0.017
60590SOL    HW183609  13.811  13.063   0.055
60590SOL    HW283610  13.715  13.004  14.826
60591SOL     OW83611  13.800   7.790  14.208
60591SOL    HW183612  13.787   7.698  14.231
60591SOL    HW283613  13.713   7.829  14.215
60592SOL     OW83614   2.469   0.363   7.360
60592SOL    HW183615   2.434   0.364   7.271
60592SOL    HW283616   2.522   0.442   7.366
60593SOL     OW83617   2.943  10.026   8.124
60593SOL    HW183618   2.980   9.945   8.160
60593SOL    HW283619   2.853  10.003   8.101
60594SOL     OW83620  14.864   6.573   0.734
60594SOL    HW183621  14.796   6.557   0.670
60594SOL    HW283622   0.073   6.558   0.686
60595SOL     OW83623   4.165  13.116  10.476
60595SOL    HW183624   4.180  13.022  10.467
60595SOL    HW283625   4.186  13.152  10.390
60596SOL     OW83626   6.833  13.621  14.346
60596SOL    HW183627   6.843  13.704  14.392
60596SOL    HW283628   6.915  13.610  14.297
60597SOL     OW83629   2.517   6.266   3.668
60597SOL    HW183630   2.555   6.210   3.600
60597SOL    HW283631   2.563   6.242   3.748
60598SOL     OW83632   1.377   2.476   1.782
60598SOL    HW183633   1.467   2.503   1.804
60598SOL    HW283634   1.324   2.554   1.800
60599SOL     OW83635  14.456  12.269   4.158
60599SOL    HW183636  14.450  12.347   4.103
60599SOL    HW283637  14.461  12.196   4.096
60600SOL     OW83638  11.294  10.760  11.605
60600SOL    HW183639  11.363  10.695  11.591
60600SOL    HW283640  11.215  10.708  11.621
60601SOL     OW83641   4.339  10.104   8.627
60601SOL    HW183642   4.297  10.069   8.706
60601SOL    HW283643   4.298  10.189   8.613
60602SOL     OW83644   0.684   0.351  12.280
60602SOL    HW183645   0.613   0.415  12.279
60602SOL    HW283646   0.693   0.327  12.372
60603SOL     OW83647   0.812  12.762   9.777
60603SOL    HW183648   0.747  12.727   9.839
60603SOL    HW283649   0.822  12.692   9.712
60604SOL     OW83650   0.005   0.934  10.051
60604SOL    HW183651  14.844   0.887  10.127
60604SOL    HW283652  14.845   1.023  10.061
60605SOL     OW83653   7.893   9.919  14.151
60605SOL    HW183654   7.861   9.930  14.240
60605SOL    HW283655   7.939   9.835  14.152
60606SOL     OW83656  11.119   5.987   3.441
60606SOL    HW183657  11.062   5.977   3.365
60606SOL    HW283658  11.150   5.898   3.460
60607SOL     OW83659   2.313  13.513   7.811
60607SOL    HW183660   2.279  13.461   7.884
60607SOL    HW283661   2.378  13.571   7.851
60608SOL     OW83662   2.606   7.765  12.898
60608SOL    HW183663   2.670   7.694  12.890
60608SOL    HW283664   2.556   7.742  12.976
60609SOL     OW83665  11.844   7.410  13.269
60609SOL    HW183666  11.799   7.349  13.211
60609SOL    HW283667  11.909   7.452  13.213
60610SOL     OW83668   1.543  11.325   1.089
60610SOL    HW183669   1.555  11.265   1.162
60610SOL    HW283670   1.617  11.386   1.096
60611SOL     OW83671   3.007   0.546  11.272
60611SOL    HW183672   3.065   0.587  11.208
60611SOL    HW283673   2.928   0.522  11.223
60612SOL     OW83674  11.825   3.322  10.060
60612SOL    HW183675  11.903   3.337  10.007
60612SOL    HW283676  11.754   3.360  10.009
60613SOL     OW83677   3.156   9.536   8.104
60613SOL    HW183678   3.207   9.495   8.033
60613SOL    HW283679   3.123   9.462   8.155
60614SOL     OW83680  12.988  10.403   1.736
60614SOL    HW183681  12.914  10.345   1.720
60614SOL    HW283682  13.005  10.395   1.830
60615SOL     OW83683   2.361   2.680   4.311
60615SOL    HW183684   2.407   2.708   4.232
60615SOL    HW283685   2.281   2.731   4.312
60616SOL     OW83686   3.264   9.856   8.093
60616SOL    HW183687   3.289   9.864   8.001
60616SOL    HW283688   3.209   9.778   8.096
60617SOL     OW83689   7.915   9.022   1.986
60617SOL    HW183690   7.952   8.987   2.067
60617SOL    HW283691   7.824   9.041   2.007
60618SOL     OW83692  11.300  13.455  11.750
60618SOL    HW183693  11.392  13.482  11.754
60618SOL    HW283694  11.272  13.479  11.662
60619SOL     OW83695   1.204   8.526   7.393
60619SOL    HW183696   1.206   8.431   7.400
60619SOL    HW283697   1.248   8.545   7.310
60620SOL     OW83698   1.780   5.239  13.538
60620SOL    HW183699   1.831   5.193  13.605
60620SOL    HW283700   1.693   5.199  13.542
60621SOL     OW83701   3.710  12.702   7.127
60621SOL    HW183702   3.773  12.634   7.152
60621SOL    HW283703   3.628  12.674   7.167
60622SOL     OW83704   4.981  12.421   7.262
60622SOL    HW183705   5.032  12.432   7.342
60622SOL    HW283706   4.902  12.472   7.276
60623SOL     OW83707   0.963   0.005   3.816
60623SOL    HW183708   0.951   0.100   3.820
60623SOL    HW283709   0.883  14.845   3.775
60624SOL     OW83710  12.411   7.921   7.850
60624SOL    HW183711  12.338   7.924   7.788
60624SOL    HW283712  12.417   7.830   7.877
60625SOL     OW83713   6.820  10.243   7.297
60625SOL    HW183714   6.810  10.221   7.390
60625SOL    HW283715   6.907  10.282   7.291
60626SOL     OW83716   2.238   8.121   9.212
60626SOL    HW183717   2.157   8.161   9.180
60626SOL    HW283718   2.268   8.066   9.140
60627SOL     OW83719   8.002  13.145   1.944
60627SOL    HW183720   8.010  13.239   1.927
60627SOL    HW283721   7.921  13.136   1.994
60628SOL     OW83722   7.554   5.825   0.434
60628SOL    HW183723   7.475   5.851   0.387
60628SOL    HW283724   7.559   5.730   0.423
60629SOL     OW83725   4.283   8.285   3.717
60629SOL    HW183726   4.360   8.327   3.678
60629SOL    HW283727   4.296   8.191   3.701
60630SOL     OW83728   7.893   3.955   2.184
60630SOL    HW183729   7.979   3.960   2.144
60630SOL    HW283730   7.843   4.026   2.142
60631SOL     OW83731  11.740   5.192   2.118
60631SOL    HW183732  11.708   5.148   2.039
60631SOL    HW283733  11.828   5.156   2.133
60632SOL     OW83734   6.398   4.629   1.131
60632SOL    HW183735   6.453   4.601   1.204
60632SOL    HW283736   6.460   4.643   1.059
60633SOL     OW83737   0.035   6.191   1.876
60633SOL    HW183738   0.069   6.281   1.874
60633SOL    HW283739  14.850   6.186   1.800
60634SOL     OW83740   0.631  14.537   3.935
60634SOL    HW183741   0.616  14.534   4.030
60634SOL    HW283742   0.722  14.564   3.926
60635SOL     OW83743   7.685   0.877  14.166
60635SOL    HW183744   7.591   0.896  14.158
60635SOL    HW283745   7.702   0.877  14.260
60636SOL     OW83746   5.992   4.316  10.792
60636SOL    HW183747   5.998   4.360  10.876
60636SOL    HW283748   5.940   4.375  10.737
60637SOL     OW83749   7.160   0.428   1.726
60637SOL    HW183750   7.217   0.351   1.722
60637SOL    HW283751   7.178   0.468   1.811
60638SOL     OW83752   6.748   0.730   6.081
60638SOL    HW183753   6.785   0.652   6.038
60638SOL    HW283754   6.776   0.723   6.172
60639SOL     OW83755   6.317   9.209  13.076
60639SOL    HW183756   6.223   9.223  13.080
60639SOL    HW283757   6.353   9.295  13.053
60640SOL     OW83758   7.927  14.560  11.809
60640SOL    HW183759   7.847  14.516  11.781
60640SOL    HW283760   7.986  14.489  11.834
60641SOL     OW83761   1.613   2.954   8.064
60641SOL    HW183762   1.633   2.869   8.024
60641SOL    HW283763   1.529   2.940   8.109
60642SOL     OW83764   0.453  12.320  13.875
60642SOL    HW183765   0.444  12.353  13.785
60642SOL    HW283766   0.475  12.397  13.927
60643SOL     OW83767   1.591  10.837  10.052
60643SOL    HW183768   1.645  10.794  10.119
60643SOL    HW283769   1.655  10.876   9.992
60644SOL     OW83770  10.672   6.553   7.957
60644SOL    HW183771  10.614   6.586   8.026
60644SOL    HW283772  10.662   6.616   7.886
60645SOL     OW83773   4.584  10.726   2.135
60645SOL    HW183774   4.628  10.783   2.072
60645SOL    HW283775   4.554  10.651   2.084
60646SOL     OW83776   0.069  10.864   4.561
60646SOL    HW183777   0.118  10.839   4.483
60646SOL    HW283778   0.135  10.900   4.620
60647SOL     OW83779  11.842   6.296   5.356
60647SOL    HW183780  11.888   6.255   5.429
60647SOL    HW283781  11.849   6.233   5.285
60648SOL     OW83782   2.048  11.522   5.698
60648SOL    HW183783   2.031  11.572   5.618
60648SOL    HW283784   2.034  11.430   5.673
60649SOL     OW83785  12.652   0.706   0.837
60649SOL    HW183786  12.565   0.672   0.817
60649SOL    HW283787  12.637   0.775   0.902
60650SOL     OW83788  12.235  14.475   6.004
60650SOL    HW183789  12.169  14.417   6.042
60650SOL    HW283790  12.284  14.508   6.079
60651SOL     OW83791  12.706   8.532   5.660
60651SOL    HW183792  12.626   8.584   5.652
60651SOL    HW283793  12.706   8.500   5.750
60652SOL     OW83794   7.102   9.572  11.733
60652SOL    HW183795   7.030   9.508  11.732
60652SOL    HW283796   7.180   9.519  11.715
60653SOL     OW83797   2.226   4.378   6.243
60653SOL    HW183798   2.276   4.402   6.165
60653SOL    HW283799   2.288   4.388   6.315
60654SOL     OW83800   5.711  12.309   1.300
60654SOL    HW183801   5.662  12.245   1.248
60654SOL    HW283802   5.670  12.393   1.281
60655SOL     OW83803   5.464  13.042  10.201
60655SOL    HW183804   5.539  13.023  10.257
60655SOL    HW283805   5.501  13.090  10.127
60656SOL     OW83806   6.201   3.751   9.006
60656SOL    HW183807   6.183   3.844   9.018
60656SOL    HW283808   6.239   3.722   9.089
60657SOL     OW83809   8.447  14.380   9.268
60657SOL    HW183810   8.459  14.447   9.202
60657SOL    HW283811   8.377  14.324   9.233
60658SOL     OW83812  11.252  11.277   5.784
60658SOL    HW183813  11.272  11.348   5.844
60658SOL    HW283814  11.326  11.276   5.723
60659SOL     OW83815  11.204   7.086   6.972
60659SOL    HW183816  11.127   7.079   7.029
60659SOL    HW283817  11.174   7.057   6.886
60660SOL     OW83818   9.658   7.373   9.384
60660SOL    HW183819   9.600   7.407   9.315
60660SOL    HW283820   9.676   7.282   9.358
60661SOL     OW83821  13.815   8.185  10.035
60661SOL    HW183822  13.743   8.128  10.061
60661SOL    HW283823  13.792   8.271  10.071
60662SOL     OW83824   3.809   9.585   1.024
60662SOL    HW183825   3.899   9.563   1.001
60662SOL    HW283826   3.757   9.511   0.991
60663SOL     OW83827  14.491   5.636   2.748
60663SOL    HW183828  14.514   5.683   2.828
60663SOL    HW283829  14.468   5.706   2.686
60664SOL     OW83830  12.944   1.639   9.692
60664SOL    HW183831  13.020   1.687   9.723
60664SOL    HW283832  12.884   1.636   9.766
60665SOL     OW83833   7.715  14.213   3.461
60665SOL    HW183834   7.622  14.190   3.455
60665SOL    HW283835   7.730  14.274   3.389
60666SOL     OW83836  11.378  12.985   6.791
60666SOL    HW183837  11.351  13.072   6.820
60666SOL    HW283838  11.463  12.998   6.750
60667SOL     OW83839   5.301  11.024   3.689
60667SOL    HW183840   5.258  11.107   3.710
60667SOL    HW283841   5.390  11.035   3.721
60668SOL     OW83842   5.269  11.258  13.428
60668SOL    HW183843   5.238  11.308  13.504
60668SOL    HW283844   5.222  11.175  13.433
60669SOL     OW83845   7.925  11.882   8.757
60669SOL    HW183846   7.885  11.827   8.824
60669SOL    HW283847   8.018  11.860   8.759
60670SOL     OW83848   4.729   3.361   2.773
60670SOL    HW183849   4.753   3.414   2.849
60670SOL    HW283850   4.715   3.424   2.702
60671SOL     OW83851  12.063   9.751   5.020
60671SOL    HW183852  11.995   9.685   5.036
60671SOL    HW283853  12.054   9.773   4.927
60672SOL     OW83854   1.383   6.109   5.260
60672SOL    HW183855   1.462   6.055   5.256
60672SOL    HW283856   1.343   6.099   5.173
60673SOL     OW83857   0.899   5.277   5.868
60673SOL    HW183858   0.810   5.305   5.892
60673SOL    HW283859   0.954   5.354   5.886
60674SOL     OW83860   7.361  13.819   4.563
60674SOL    HW183861   7.269  13.838   4.586
60674SOL    HW283862   7.359  13.730   4.529
60675SOL     OW83863   8.518   4.363   8.576
60675SOL    HW183864   8.448   4.310   8.616
60675SOL    HW283865   8.521   4.332   8.485
60676SOL     OW83866   5.763   4.712   4.668
60676SOL    HW183867   5.760   4.680   4.578
60676SOL    HW283868   5.790   4.803   4.660
60677SOL     OW83869   0.398   3.002   9.114
60677SOL    HW183870   0.366   3.062   9.181
60677SOL    HW283871   0.478   3.043   9.082
60678SOL     OW83872  13.499  10.234   8.424
60678SOL    HW183873  13.453  10.155   8.394
60678SOL    HW283874  13.584  10.203   8.455
60679SOL     OW83875   9.035   2.168   7.649
60679SOL    HW183876   9.106   2.142   7.589
60679SOL    HW283877   8.955   2.142   7.604
60680SOL     OW83878   4.004  10.905   3.467
60680SOL    HW183879   3.971  10.868   3.549
60680SOL    HW283880   3.974  10.996   3.468
60681SOL     OW83881  11.465  11.916   0.972
60681SOL    HW183882  11.532  11.977   0.940
60681SOL    HW283883  11.438  11.952   1.056
60682SOL     OW83884   7.655  14.291   0.394
60682SOL    HW183885   7.647  14.209   0.346
60682SOL    HW283886   7.712  14.270   0.468
60683SOL     OW83887   5.884  13.967   6.558
60683SOL    HW183888   5.794  13.941   6.577
60683SOL    HW283889   5.924  13.889   6.519
60684SOL     OW83890   8.706   4.707   4.318
60684SOL    HW183891   8.686   4.753   4.236
60684SOL    HW283892   8.621   4.692   4.358
60685SOL     OW83893  10.398   8.022  10.927
60685SOL    HW183894  10.384   7.956  10.859
60685SOL    HW283895  10.353   8.100  10.894
60686SOL     OW83896  14.140  13.431   3.644
60686SOL    HW183897  14.062  13.453   3.594
60686SOL    HW283898  14.173  13.515   3.676
60687SOL     OW83899   4.992   9.224  11.059
60687SOL    HW183900   5.034   9.239  10.974
60687SOL    HW283901   4.903   9.258  11.049
60688SOL     OW83902   3.308  12.670   2.264
60688SOL    HW183903   3.275  12.673   2.354
60688SOL    HW283904   3.250  12.729   2.216
60689SOL     OW83905   7.729   1.265   8.871
60689SOL    HW183906   7.787   1.338   8.852
60689SOL    HW283907   7.709   1.273   8.964
60690SOL     OW83908   0.086   2.959   0.191
60690SOL    HW183909   0.118   2.892   0.131
60690SOL    HW283910   0.002   2.924   0.222
60691SOL     OW83911   5.322   5.119   8.185
60691SOL    HW183912   5.370   5.139   8.104
60691SOL    HW283913   5.309   5.024   8.182
60692SOL     OW83914   3.658   0.066   2.203
60692SOL    HW183915   3.635   0.153   2.170
60692SOL    HW283916   3.587   0.010   2.174
60693SOL     OW83917   2.264   6.994   8.219
60693SOL    HW183918   2.240   6.915   8.172
60693SOL    HW283919   2.282   7.059   8.151
60694SOL     OW83920   8.133   3.509   4.076
60694SOL    HW183921   8.046   3.534   4.108
60694SOL    HW283922   8.193   3.558   4.132
60695SOL     OW83923   2.473   8.703  14.205
60695SOL    HW183924   2.463   8.649  14.126
60695SOL    HW283925   2.506   8.786  14.172
60696SOL     OW83926  13.592   3.132   1.511
60696SOL    HW183927  13.550   3.051   1.482
60696SOL    HW283928  13.557   3.147   1.599
60697SOL     OW83929   1.159  14.691   3.905
60697SOL    HW183930   1.101  14.732   3.841
60697SOL    HW283931   1.111  14.695   3.988
60698SOL     OW83932  14.202   7.022   2.238
60698SOL    HW183933  14.269   7.024   2.170
60698SOL    HW283934  14.209   6.934   2.276
60699SOL     OW83935   9.590   6.313   9.432
60699SOL    HW183936   9.578   6.407   9.445
60699SOL    HW283937   9.531   6.291   9.360
60700SOL     OW83938   6.825   7.100   1.384
60700SOL    HW183939   6.746   7.138   1.347
60700SOL    HW283940   6.799   7.071   1.471
60701SOL     OW83941  10.592   1.975   9.003
60701SOL    HW183942  10.512   1.981   9.056
60701SOL    HW283943  10.571   1.909   8.937
60702SOL     OW83944   5.023   7.646   8.348
60702SOL    HW183945   5.065   7.635   8.263
60702SOL    HW283946   4.994   7.558   8.372
60703SOL     OW83947   1.801  12.548   5.549
60703SOL    HW183948   1.734  12.609   5.520
60703SOL    HW283949   1.865  12.603   5.596
60704SOL     OW83950   1.190   1.054   3.705
60704SOL    HW183951   1.205   1.107   3.783
60704SOL    HW283952   1.259   1.081   3.644
60705SOL     OW83953   1.040  12.853   5.115
60705SOL    HW183954   1.123  12.808   5.102
60705SOL    HW283955   1.028  12.904   5.035
60706SOL     OW83956   1.628   2.712  14.540
60706SOL    HW183957   1.705   2.733  14.487
60706SOL    HW283958   1.624   2.616  14.539
60707SOL     OW83959   7.008   0.123   4.563
60707SOL    HW183960   7.037   0.079   4.483
60707SOL    HW283961   6.965   0.055   4.614
60708SOL     OW83962  13.784   5.418   9.439
60708SOL    HW183963  13.759   5.453   9.354
60708SOL    HW283964  13.877   5.440   9.448
60709SOL     OW83965  10.563   4.013   7.996
60709SOL    HW183966  10.532   4.009   8.086
60709SOL    HW283967  10.484   4.003   7.943
60710SOL     OW83968   0.470  13.379   7.991
60710SOL    HW183969   0.517  13.349   8.068
60710SOL    HW283970   0.427  13.460   8.018
60711SOL     OW83971   8.162  14.757  11.221
60711SOL    HW183972   8.217  14.679  11.218
60711SOL    HW283973   8.119  14.759  11.136
60712SOL     OW83974   1.764   8.034  14.200
60712SOL    HW183975   1.833   8.075  14.252
60712SOL    HW283976   1.716   7.979  14.262
60713SOL     OW83977  10.926   8.558  11.392
60713SOL    HW183978  10.999   8.619  11.408
60713SOL    HW283979  10.964   8.490  11.336
60714SOL     OW83980   0.100  14.304   2.682
60714SOL    HW183981   0.025  14.266   2.729
60714SOL    HW283982   0.120  14.240   2.614
60715SOL     OW83983  10.109  12.842  11.415
60715SOL    HW183984  10.073  12.929  11.400
60715SOL    HW283985  10.129  12.840  11.509
60716SOL     OW83986   6.577  11.273  10.205
60716SOL    HW183987   6.509  11.245  10.144
60716SOL    HW283988   6.579  11.204  10.271
60717SOL     OW83989  13.315  13.216   3.959
60717SOL    HW183990  13.338  13.132   3.999
60717SOL    HW283991  13.365  13.218   3.877
60718SOL     OW83992  11.192   4.820   7.525
60718SOL    HW183993  11.127   4.890   7.522
60718SOL    HW283994  11.156   4.752   7.468
60719SOL     OW83995   6.071  13.427   6.770
60719SOL    HW183996   6.035  13.386   6.849
60719SOL    HW283997   5.997  13.427   6.709
60720SOL     OW83998  11.932   9.963   2.689
60720SOL    HW183999  11.944  10.032   2.754
60720SOL    HW284000  11.959   9.883   2.735
60721SOL     OW84001   7.168   1.188  13.178
60721SOL    HW184002   7.208   1.104  13.153
60721SOL    HW284003   7.118   1.214  13.102
60722SOL     OW84004   6.582   4.718  12.500
60722SOL    HW184005   6.502   4.768  12.486
60722SOL    HW284006   6.649   4.784  12.520
60723SOL     OW84007  14.316   4.036   5.130
60723SOL    HW184008  14.282   3.948   5.147
60723SOL    HW284009  14.388   4.046   5.192
60724SOL     OW84010   9.850   1.483   5.632
60724SOL    HW184011   9.940   1.451   5.642
60724SOL    HW284012   9.860   1.571   5.597
60725SOL     OW84013   1.346  10.886   9.977
60725SOL    HW184014   1.325  10.844   9.894
60725SOL    HW284015   1.441  10.892   9.977
60726SOL     OW84016   9.656  13.899   0.955
60726SOL    HW184017   9.678  13.990   0.973
60726SOL    HW284018   9.709  13.876   0.878
60727SOL     OW84019   9.564   9.339   5.705
60727SOL    HW184020   9.642   9.390   5.724
60727SOL    HW284021   9.567   9.266   5.767
60728SOL     OW84022   6.318   7.951  12.995
60728SOL    HW184023   6.294   8.044  12.994
60728SOL    HW284024   6.334   7.930  12.903
60729SOL     OW84025   1.759   2.902   7.745
60729SOL    HW184026   1.722   2.829   7.795
60729SOL    HW284027   1.688   2.929   7.687
60730SOL     OW84028   9.348  10.557   7.208
60730SOL    HW184029   9.373  10.498   7.279
60730SOL    HW284030   9.368  10.645   7.241
60731SOL     OW84031  11.453  14.055   5.405
60731SOL    HW184032  11.365  14.070   5.372
60731SOL    HW284033  11.506  14.038   5.328
60732SOL     OW84034  14.148   1.194  11.848
60732SOL    HW184035  14.096   1.154  11.918
60732SOL    HW284036  14.238   1.168  11.866
60733SOL     OW84037   6.529  11.842   2.190
60733SOL    HW184038   6.613  11.797   2.183
60733SOL    HW284039   6.535  11.891   2.272
60734SOL     OW84040   1.059   9.782   8.421
60734SOL    HW184041   1.109   9.802   8.501
60734SOL    HW284042   1.079   9.690   8.404
60735SOL     OW84043  10.934   6.085   6.618
60735SOL    HW184044  10.985   6.163   6.640
60735SOL    HW284045  10.954   6.023   6.688
60736SOL     OW84046   7.627  12.900   1.987
60736SOL    HW184047   7.649  12.875   1.898
60736SOL    HW284048   7.680  12.843   2.042
60737SOL     OW84049   5.615   6.731  13.272
60737SOL    HW184050   5.663   6.760  13.194
60737SOL    HW284051   5.680   6.731  13.342
60738SOL     OW84052  14.327   7.213  13.523
60738SOL    HW184053  14.257   7.268  13.558
60738SOL    HW284054  14.323   7.226  13.428
60739SOL     OW84055   2.897  12.070  13.602
60739SOL    HW184056   2.892  11.994  13.659
60739SOL    HW284057   2.824  12.061  13.542
60740SOL     OW84058   3.549  10.434  11.446
60740SOL    HW184059   3.532  10.359  11.503
60740SOL    HW284060   3.610  10.489  11.496
60741SOL     OW84061  12.464   7.194   9.735
60741SOL    HW184062  12.448   7.279   9.694
60741SOL    HW284063  12.389   7.140   9.710
60742SOL     OW84064  13.508   2.469   9.685
60742SOL    HW184065  13.588   2.465   9.632
60742SOL    HW284066  13.480   2.378   9.694
60743SOL     OW84067  14.145   4.888   2.119
60743SOL    HW184068  14.070   4.885   2.060
60743SOL    HW284069  14.108   4.873   2.206
60744SOL     OW84070   7.971  11.402   0.606
60744SOL    HW184071   7.888  11.371   0.570
60744SOL    HW284072   7.974  11.366   0.695
60745SOL     OW84073  14.524  11.691  10.093
60745SOL    HW184074  14.481  11.669  10.176
60745SOL    HW284075  14.604  11.737  10.118
60746SOL     OW84076   9.631   9.458   7.769
60746SOL    HW184077   9.717   9.491   7.742
60746SOL    HW284078   9.650   9.378   7.818
60747SOL     OW84079   1.161  13.818   7.782
60747SOL    HW184080   1.241  13.768   7.798
60747SOL    HW284081   1.141  13.858   7.867
60748SOL     OW84082   1.225  12.400  12.181
60748SOL    HW184083   1.233  12.495  12.193
60748SOL    HW284084   1.221  12.388  12.086
60749SOL     OW84085  13.197  10.082   9.464
60749SOL    HW184086  13.291  10.100   9.456
60749SOL    HW284087  13.171  10.053   9.376
60750SOL     OW84088   3.590  11.368  12.460
60750SOL    HW184089   3.662  11.325  12.413
60750SOL    HW284090   3.624  11.456  12.479
60751SOL     OW84091   9.054  10.015   5.424
60751SOL    HW184092   8.989   9.944   5.421
60751SOL    HW284093   9.052  10.044   5.516
60752SOL     OW84094   0.471  11.056  13.500
60752SOL    HW184095   0.502  11.081  13.413
60752SOL    HW284096   0.439  10.966  13.490
60753SOL     OW84097  10.741   0.378   0.856
60753SOL    HW184098  10.821   0.407   0.900
60753SOL    HW284099  10.708   0.456   0.812
60754SOL     OW84100   2.299   3.016  13.652
60754SOL    HW184101   2.209   2.999  13.623
60754SOL    HW284102   2.323   2.938  13.701
60755SOL     OW84103   0.974   5.967   1.263
60755SOL    HW184104   0.905   5.992   1.325
60755SOL    HW284105   1.040   5.923   1.317
60756SOL     OW84106   5.657   4.143   8.858
60756SOL    HW184107   5.573   4.115   8.823
60756SOL    HW284108   5.719   4.076   8.829
60757SOL     OW84109   3.463  11.371  13.233
60757SOL    HW184110   3.452  11.393  13.141
60757SOL    HW284111   3.542  11.318  13.236
60758SOL     OW84112   7.952   5.757   3.483
60758SOL    HW184113   7.862   5.748   3.453
60758SOL    HW284114   7.997   5.681   3.446
60759SOL     OW84115   2.795   2.266   7.674
60759SOL    HW184116   2.732   2.206   7.715
60759SOL    HW284117   2.747   2.303   7.600
60760SOL     OW84118   0.909   4.428   2.424
60760SOL    HW184119   0.974   4.367   2.461
60760SOL    HW284120   0.860   4.460   2.500
60761SOL     OW84121   0.206   9.896   4.776
60761SOL    HW184122   0.274   9.908   4.842
60761SOL    HW284123   0.124   9.904   4.825
60762SOL     OW84124  14.141   0.049   9.478
60762SOL    HW184125  14.149   0.099   9.397
60762SOL    HW284126  14.188  14.841   9.461
60763SOL     OW84127   7.923   3.556  10.705
60763SOL    HW184128   7.979   3.587  10.634
60763SOL    HW284129   7.936   3.619  10.776
60764SOL     OW84130   9.997   8.672  10.669
60764SOL    HW184131   9.905   8.654  10.650
60764SOL    HW284132  10.018   8.750  10.617
60765SOL     OW84133  12.310   2.280  10.802
60765SOL    HW184134  12.402   2.292  10.827
60765SOL    HW284135  12.282   2.202  10.850
60766SOL     OW84136  14.613  10.529  10.877
60766SOL    HW184137  14.538  10.572  10.836
60766SOL    HW284138  14.611  10.440  10.843
60767SOL     OW84139  12.664   9.946   7.767
60767SOL    HW184140  12.635  10.001   7.694
60767SOL    HW284141  12.629   9.989   7.845
60768SOL     OW84142  14.597   5.481  12.300
60768SOL    HW184143  14.506   5.471  12.273
60768SOL    HW284144  14.620   5.396  12.337
60769SOL     OW84145  14.032   5.988  11.236
60769SOL    HW184146  14.105   5.944  11.279
60769SOL    HW284147  14.051   5.979  11.142
60770SOL     OW84148   4.524   9.623  13.499
60770SOL    HW184149   4.452   9.633  13.437
60770SOL    HW284150   4.558   9.535  13.482
60771SOL     OW84151   0.100   4.220   6.665
60771SOL    HW184152   0.194   4.211   6.677
60771SOL    HW284153   0.084   4.314   6.673
60772SOL     OW84154  13.540  12.992   8.650
60772SOL    HW184155  13.474  12.990   8.719
60772SOL    HW284156  13.600  13.062   8.676
60773SOL     OW84157  13.052   3.086   6.504
60773SOL    HW184158  13.000   3.088   6.424
60773SOL    HW284159  13.088   3.174   6.512
60774SOL     OW84160   1.376   3.009   2.768
60774SOL    HW184161   1.368   2.992   2.674
60774SOL    HW284162   1.448   2.953   2.796
60775SOL     OW84163   6.764  10.539   9.547
60775SOL    HW184164   6.734  10.463   9.596
60775SOL    HW284165   6.857  10.546   9.568
60776SOL     OW84166   2.426   8.766   1.452
60776SOL    HW184167   2.400   8.798   1.538
60776SOL    HW284168   2.431   8.845   1.397
60777SOL     OW84169  12.885   3.900  14.298
60777SOL    HW184170  12.887   3.995  14.284
60777SOL    HW284171  12.793   3.876  14.285
60778SOL     OW84172  10.669   7.888   0.485
60778SOL    HW184173  10.633   7.952   0.424
60778SOL    HW284174  10.652   7.925   0.571
60779SOL     OW84175   0.312   7.193   0.734
60779SOL    HW184176   0.240   7.244   0.770
60779SOL    HW284177   0.286   7.102   0.745
60780SOL     OW84178   6.767   5.695  10.137
60780SOL    HW184179   6.833   5.639  10.097
60780SOL    HW284180   6.793   5.784  10.114
60781SOL     OW84181   4.174   4.862   4.861
60781SOL    HW184182   4.092   4.871   4.813
60781SOL    HW284183   4.212   4.780   4.830
60782SOL     OW84184   2.323   9.868  14.084
60782SOL    HW184185   2.299   9.948  14.131
60782SOL    HW284186   2.291   9.882  13.995
60783SOL     OW84187   0.922   7.936  11.518
60783SOL    HW184188   0.833   7.903  11.521
60783SOL    HW284189   0.940   7.965  11.608
60784SOL     OW84190  10.597   2.999   4.696
60784SOL    HW184191  10.668   2.965   4.750
60784SOL    HW284192  10.557   3.068   4.749
60785SOL     OW84193   4.040   5.001   1.254
60785SOL    HW184194   4.025   4.999   1.160
60785SOL    HW284195   3.972   5.058   1.289
60786SOL     OW84196   7.820   6.482   2.551
60786SOL    HW184197   7.868   6.409   2.512
60786SOL    HW284198   7.858   6.492   2.638
60787SOL     OW84199   8.364   9.785  13.716
60787SOL    HW184200   8.324   9.846  13.655
60787SOL    HW284201   8.451   9.768  13.679
60788SOL     OW84202   4.530  10.061   6.404
60788SOL    HW184203   4.543  10.135   6.464
60788SOL    HW284204   4.451  10.083   6.355
60789SOL     OW84205   2.296   3.339   0.564
60789SOL    HW184206   2.207   3.338   0.529
60789SOL    HW284207   2.320   3.247   0.574
60790SOL     OW84208  10.260  12.326   8.662
60790SOL    HW184209  10.256  12.390   8.592
60790SOL    HW284210  10.256  12.377   8.742
60791SOL     OW84211  11.574  13.719   3.839
60791SOL    HW184212  11.641  13.777   3.803
60791SOL    HW284213  11.502  13.724   3.776
60792SOL     OW84214  11.299  12.922   4.794
60792SOL    HW184215  11.379  12.871   4.782
60792SOL    HW284216  11.229  12.864   4.764
60793SOL     OW84217   0.504   1.479   6.404
60793SOL    HW184218   0.579   1.536   6.418
60793SOL    HW284219   0.462   1.473   6.490
60794SOL     OW84220   7.210   7.742   5.691
60794SOL    HW184221   7.158   7.822   5.688
60794SOL    HW284222   7.183   7.693   5.613
60795SOL     OW84223   1.906   0.359  14.672
60795SOL    HW184224   1.935   0.405  14.594
60795SOL    HW284225   1.810   0.360  14.666
60796SOL     OW84226  11.363  13.864  13.635
60796SOL    HW184227  11.345  13.947  13.591
60796SOL    HW284228  11.288  13.852  13.694
60797SOL     OW84229  11.305   9.948   5.322
60797SOL    HW184230  11.317   9.917   5.412
60797SOL    HW284231  11.322  10.042   5.327
60798SOL     OW84232  12.872  12.529  11.792
60798SOL    HW184233  12.843  12.437  11.793
60798SOL    HW284234  12.804  12.574  11.742
60799SOL     OW84235   6.805   3.962  11.578
60799SOL    HW184236   6.783   3.940  11.669
60799SOL    HW284237   6.751   3.903  11.526
60800SOL     OW84238   4.551   2.562   1.745
60800SOL    HW184239   4.639   2.536   1.719
60800SOL    HW284240   4.549   2.656   1.732
60801SOL     OW84241   5.378   3.166   5.588
60801SOL    HW184242   5.465   3.130   5.571
60801SOL    HW284243   5.324   3.135   5.515
60802SOL     OW84244  10.305   0.819  10.259
60802SOL    HW184245  10.256   0.808  10.340
60802SOL    HW284246  10.243   0.860  10.199
60803SOL     OW84247   9.078   8.050  13.265
60803SOL    HW184248   9.071   8.015  13.176
60803SOL    HW284249   8.990   8.040  13.301
60804SOL     OW84250   4.091   4.489   9.104
60804SOL    HW184251   4.027   4.547   9.145
60804SOL    HW284252   4.175   4.515   9.141
60805SOL     OW84253  11.064   3.866  10.129
60805SOL    HW184254  11.035   3.875  10.220
60805SOL    HW284255  11.136   3.803  10.133
60806SOL     OW84256   6.172   7.667  11.062
60806SOL    HW184257   6.091   7.637  11.102
60806SOL    HW284258   6.185   7.608  10.987
60807SOL     OW84259   4.963   3.367   0.018
60807SOL    HW184260   5.042   3.407   0.055
60807SOL    HW284261   4.978   3.273   0.028
60808SOL     OW84262   7.824   4.225   8.660
60808SOL    HW184263   7.896   4.248   8.601
60808SOL    HW284264   7.841   4.134   8.684
60809SOL     OW84265  14.060   4.426   8.214
60809SOL    HW184266  14.007   4.444   8.136
60809SOL    HW284267  14.147   4.407   8.179
60810SOL     OW84268   4.921   9.502   1.083
60810SOL    HW184269   5.004   9.457   1.103
60810SOL    HW284270   4.864   9.482   1.157
60811SOL     OW84271   2.578   9.199   6.618
60811SOL    HW184272   2.568   9.212   6.713
60811SOL    HW284273   2.666   9.233   6.599
60812SOL     OW84274  13.576   2.429   2.210
60812SOL    HW184275  13.615   2.430   2.122
60812SOL    HW284276  13.513   2.357   2.207
60813SOL     OW84277  14.238  11.958   6.756
60813SOL    HW184278  14.145  11.977   6.743
60813SOL    HW284279  14.257  11.887   6.694
60814SOL     OW84280  13.199  13.741   8.116
60814SOL    HW184281  13.290  13.723   8.138
60814SOL    HW284282  13.195  13.733   8.020
60815SOL     OW84283   6.974   3.868   7.156
60815SOL    HW184284   7.036   3.872   7.229
60815SOL    HW284285   6.908   3.805   7.184
60816SOL     OW84286  13.127  10.198  11.786
60816SOL    HW184287  13.123  10.107  11.756
60816SOL    HW284288  13.139  10.248  11.705
60817SOL     OW84289  12.905  12.483   9.617
60817SOL    HW184290  12.999  12.488   9.635
60817SOL    HW284291  12.863  12.521   9.694
60818SOL     OW84292   9.565   5.824   2.809
60818SOL    HW184293   9.541   5.731   2.801
60818SOL    HW284294   9.559   5.858   2.720
60819SOL     OW84295  11.831  11.151   1.335
60819SOL    HW184296  11.924  11.163   1.313
60819SOL    HW284297  11.796  11.101   1.261
60820SOL     OW84298   5.231  12.898   7.542
60820SOL    HW184299   5.287  12.848   7.601
60820SOL    HW284300   5.148  12.906   7.589
60821SOL     OW84301   0.002   9.170   4.561
60821SOL    HW184302  14.793   9.211   4.587
60821SOL    HW284303   0.057   9.243   4.532
60822SOL     OW84304   2.275   8.479   5.022
60822SOL    HW184305   2.287   8.539   4.949
60822SOL    HW284306   2.350   8.496   5.080
60823SOL     OW84307   9.182   3.101   6.194
60823SOL    HW184308   9.120   3.140   6.255
60823SOL    HW284309   9.268   3.125   6.229
60824SOL     OW84310  11.637   5.667   3.186
60824SOL    HW184311  11.721   5.634   3.154
60824SOL    HW284312  11.643   5.657   3.281
60825SOL     OW84313   5.357  13.406   7.791
60825SOL    HW184314   5.285  13.356   7.831
60825SOL    HW284315   5.410  13.434   7.865
60826SOL     OW84316  12.048   9.897  10.477
60826SOL    HW184317  12.090   9.970  10.521
60826SOL    HW284318  12.079   9.902  10.386
60827SOL     OW84319  11.073  12.331  13.472
60827SOL    HW184320  11.073  12.296  13.383
60827SOL    HW284321  11.140  12.400  13.470
60828SOL     OW84322   8.887   2.928  12.780
60828SOL    HW184323   8.904   3.007  12.728
60828SOL    HW284324   8.796   2.907  12.761
60829SOL     OW84325   4.559  13.016  13.571
60829SOL    HW184326   4.576  12.996  13.479
60829SOL    HW284327   4.475  12.974  13.589
60830SOL     OW84328   6.371   1.358   5.830
60830SOL    HW184329   6.337   1.341   5.918
60830SOL    HW284330   6.294   1.382   5.779
60831SOL     OW84331   1.535   5.156   4.083
60831SOL    HW184332   1.445   5.123   4.089
60831SOL    HW284333   1.590   5.078   4.091
60832SOL     OW84334  12.088   1.483   3.179
60832SOL    HW184335  12.113   1.573   3.157
60832SOL    HW284336  12.146   1.459   3.251
60833SOL     OW84337   3.768  13.163  14.468
60833SOL    HW184338   3.802  13.074  14.459
60833SOL    HW284339   3.673  13.153  14.459
60834SOL     OW84340  10.463   8.428   3.704
60834SOL    HW184341  10.543   8.479   3.690
60834SOL    HW284342  10.488   8.338   3.683
60835SOL     OW84343   6.576  11.009   8.690
60835SOL    HW184344   6.620  10.926   8.706
60835SOL    HW284345   6.567  11.013   8.594
60836SOL     OW84346   6.553  11.381  12.041
60836SOL    HW184347   6.512  11.302  12.007
60836SOL    HW284348   6.489  11.417  12.103
60837SOL     OW84349  13.439  14.719  14.382
60837SOL    HW184350  13.355  14.763  14.399
60837SOL    HW284351  13.415  14.640  14.333
60838SOL     OW84352   0.156   3.397  13.016
60838SOL    HW184353   0.182   3.402  12.924
60838SOL    HW284354   0.236   3.416  13.065
60839SOL     OW84355   5.986  13.196   5.223
60839SOL    HW184356   5.903  13.168   5.184
60839SOL    HW284357   6.032  13.241   5.152
60840SOL     OW84358  11.824  13.970  14.259
60840SOL    HW184359  11.831  13.978  14.163
60840SOL    HW284360  11.875  14.043  14.293
60841SOL     OW84361  10.670  14.348   4.879
60841SOL    HW184362  10.702  14.260   4.896
60841SOL    HW284363  10.749  14.402   4.872
60842SOL     OW84364   4.231  13.624  12.242
60842SOL    HW184365   4.297  13.589  12.183
60842SOL    HW284366   4.209  13.551  12.300
60843SOL     OW84367  10.758   8.901   8.720
60843SOL    HW184368  10.779   8.884   8.812
60843SOL    HW284369  10.686   8.841   8.700
60844SOL     OW84370  11.197  12.201   4.955
60844SOL    HW184371  11.139  12.276   4.970
60844SOL    HW284372  11.140  12.125   4.963
60845SOL     OW84373  10.220  11.116   0.512
60845SOL    HW184374  10.306  11.077   0.522
60845SOL    HW284375  10.221  11.194   0.568
60846SOL     OW84376   3.237   2.857   1.696
60846SOL    HW184377   3.290   2.916   1.644
60846SOL    HW284378   3.169   2.826   1.636
60847SOL     OW84379   7.339  12.706   6.564
60847SOL    HW184380   7.247  12.691   6.541
60847SOL    HW284381   7.377  12.750   6.488
60848SOL     OW84382   8.297   5.092   8.324
60848SOL    HW184383   8.302   5.001   8.294
60848SOL    HW284384   8.362   5.138   8.271
60849SOL     OW84385   3.167   7.196  11.135
60849SOL    HW184386   3.112   7.267  11.100
60849SOL    HW284387   3.114   7.117  11.123
60850SOL     OW84388   1.510   3.975   8.627
60850SOL    HW184389   1.571   4.041   8.658
60850SOL    HW284390   1.565   3.905   8.592
60851SOL     OW84391  10.586  12.324   1.899
60851SOL    HW184392  10.616  12.398   1.952
60851SOL    HW284393  10.534  12.364   1.830
60852SOL     OW84394  13.066   0.421   3.324
60852SOL    HW184395  13.100   0.510   3.311
60852SOL    HW284396  12.988   0.416   3.269
60853SOL     OW84397   9.388  11.125   4.234
60853SOL    HW184398   9.350  11.122   4.322
60853SOL    HW284399   9.452  11.196   4.238
60854SOL     OW84400   7.482  11.369   3.921
60854SOL    HW184401   7.434  11.303   3.870
60854SOL    HW284402   7.572  11.338   3.921
60855SOL     OW84403  12.298  10.721  14.252
60855SOL    HW184404  12.298  10.791  14.186
60855SOL    HW284405  12.306  10.767  14.335
60856SOL     OW84406  12.897  12.346   8.417
60856SOL    HW184407  12.848  12.266   8.399
60856SOL    HW284408  12.847  12.416   8.374
60857SOL     OW84409  13.914   7.264   0.841
60857SOL    HW184410  13.912   7.201   0.913
60857SOL    HW284411  13.877   7.344   0.878
60858SOL     OW84412  11.451   6.404  10.366
60858SOL    HW184413  11.458   6.323  10.316
60858SOL    HW284414  11.361   6.433  10.353
60859SOL     OW84415   6.891   5.187   7.056
60859SOL    HW184416   6.955   5.230   7.000
60859SOL    HW284417   6.853   5.258   7.109
60860SOL     OW84418  10.431   3.694   3.696
60860SOL    HW184419  10.484   3.736   3.628
60860SOL    HW284420  10.363   3.758   3.716
60861SOL     OW84421   7.709   3.683  13.558
60861SOL    HW184422   7.743   3.755  13.505
60861SOL    HW284423   7.774   3.613  13.548
60862SOL     OW84424   1.059  13.475   4.071
60862SOL    HW184425   0.969  13.469   4.038
60862SOL    HW284426   1.091  13.559   4.037
60863SOL     OW84427  10.886   0.321  10.156
60863SOL    HW184428  10.888   0.276  10.071
60863SOL    HW284429  10.801   0.297  10.193
60864SOL     OW84430   4.779   6.801  13.338
60864SOL    HW184431   4.691   6.767  13.322
60864SOL    HW284432   4.768   6.866  13.407
60865SOL     OW84433   5.945   6.823   2.980
60865SOL    HW184434   5.969   6.879   3.054
60865SOL    HW284435   5.871   6.772   3.011
60866SOL     OW84436  13.626   3.893   6.326
60866SOL    HW184437  13.674   3.929   6.401
60866SOL    HW284438  13.541   3.869   6.362
60867SOL     OW84439   2.530  14.419  12.804
60867SOL    HW184440   2.566  14.353  12.862
60867SOL    HW284441   2.600  14.437  12.741
60868SOL     OW84442   7.326   1.380   3.287
60868SOL    HW184443   7.241   1.348   3.259
60868SOL    HW284444   7.388   1.341   3.225
60869SOL     OW84445  11.360  14.640   7.624
60869SOL    HW184446  11.439  14.586   7.623
60869SOL    HW284447  11.333  14.641   7.716
60870SOL     OW84448   5.354   9.316  10.426
60870SOL    HW184449   5.365   9.375  10.500
60870SOL    HW284450   5.416   9.245  10.442
60871SOL     OW84451   9.577   9.291   3.301
60871SOL    HW184452   9.615   9.310   3.387
60871SOL    HW284453   9.519   9.217   3.317
60872SOL     OW84454   9.479  10.706  13.565
60872SOL    HW184455   9.537  10.655  13.509
60872SOL    HW284456   9.432  10.764  13.506
60873SOL     OW84457  12.869   9.382   3.718
60873SOL    HW184458  12.821   9.414   3.642
60873SOL    HW284459  12.912   9.302   3.688
60874SOL     OW84460   3.036  11.794  10.047
60874SOL    HW184461   3.089  11.831   9.977
60874SOL    HW284462   3.091  11.728  10.088
60875SOL     OW84463   1.133   6.685   1.342
60875SOL    HW184464   1.219   6.659   1.375
60875SOL    HW284465   1.093   6.733   1.415
60876SOL     OW84466   0.818   2.865   3.585
60876SOL    HW184467   0.813   2.960   3.595
60876SOL    HW284468   0.759   2.846   3.512
60877SOL     OW84469  11.508   7.976  10.282
60877SOL    HW184470  11.574   7.926  10.234
60877SOL    HW284471  11.426   7.960  10.235
60878SOL     OW84472   6.416   2.504   8.464
60878SOL    HW184473   6.332   2.467   8.489
60878SOL    HW284474   6.429   2.578   8.522
60879SOL     OW84475   7.480   7.017  13.828
60879SOL    HW184476   7.512   7.043  13.742
60879SOL    HW284477   7.386   7.031  13.825
60880SOL     OW84478  14.641   6.280   5.327
60880SOL    HW184479  14.704   6.351   5.311
60880SOL    HW284480  14.583   6.314   5.395
60881SOL     OW84481  14.657   6.807   8.466
60881SOL    HW184482  14.573   6.853   8.474
60881SOL    HW284483  14.657   6.745   8.538
60882SOL     OW84484  12.006   6.673   8.749
60882SOL    HW184485  11.911   6.666   8.748
60882SOL    HW284486  12.025   6.745   8.688
60883SOL     OW84487  12.209   1.688   6.562
60883SOL    HW184488  12.217   1.610   6.507
60883SOL    HW284489  12.272   1.674   6.633
60884SOL     OW84490   0.548   0.224  14.229
60884SOL    HW184491   0.638   0.207  14.199
60884SOL    HW284492   0.553   0.311  14.270
60885SOL     OW84493  14.344   5.263   9.484
60885SOL    HW184494  14.331   5.333   9.548
60885SOL    HW284495  14.435   5.275   9.454
60886SOL     OW84496  13.745   9.588  12.993
60886SOL    HW184497  13.658   9.581  13.031
60886SOL    HW284498  13.804   9.594  13.068
60887SOL     OW84499   1.058   9.283   2.374
60887SOL    HW184500   1.118   9.238   2.314
60887SOL    HW284501   1.116   9.323   2.440
60888SOL     OW84502   1.166   3.259  11.848
60888SOL    HW184503   1.125   3.310  11.778
60888SOL    HW284504   1.118   3.177  11.850
60889SOL     OW84505   4.722   0.987   4.704
60889SOL    HW184506   4.794   1.044   4.678
60889SOL    HW284507   4.764   0.910   4.742
60890SOL     OW84508   2.635   2.697   4.992
60890SOL    HW184509   2.592   2.719   5.075
60890SOL    HW284510   2.583   2.742   4.925
60891SOL     OW84511   2.471   6.068   0.786
60891SOL    HW184512   2.518   6.020   0.854
60891SOL    HW284513   2.533   6.134   0.756
60892SOL     OW84514   6.564  11.950   4.470
60892SOL    HW184515   6.645  11.977   4.514
60892SOL    HW284516   6.560  12.005   4.391
60893SOL     OW84517   7.175  14.119   1.157
60893SOL    HW184518   7.181  14.125   1.062
60893SOL    HW284519   7.265  14.103   1.186
60894SOL     OW84520  12.521   1.359  11.896
60894SOL    HW184521  12.599   1.335  11.846
60894SOL    HW284522  12.471   1.415  11.837
60895SOL     OW84523  14.159  10.835  14.231
60895SOL    HW184524  14.206  10.877  14.303
60895SOL    HW284525  14.205  10.753  14.216
60896SOL     OW84526   9.572  13.896   8.514
60896SOL    HW184527   9.666  13.888   8.495
60896SOL    HW284528   9.540  13.806   8.511
60897SOL     OW84529  14.660  13.058   6.268
60897SOL    HW184530  14.751  13.052   6.297
60897SOL    HW284531  14.628  12.968   6.270
60898SOL     OW84532   6.866   0.527   1.961
60898SOL    HW184533   6.863   0.432   1.967
60898SOL    HW284534   6.819   0.548   1.880
60899SOL     OW84535  12.217  11.922  10.498
60899SOL    HW184536  12.237  12.016  10.507
60899SOL    HW284537  12.165  11.902  10.576
60900SOL     OW84538  11.048   3.146  12.647
60900SOL    HW184539  11.104   3.168  12.573
60900SOL    HW284540  11.089   3.068  12.686
60901SOL     OW84541  12.620   4.115   5.022
60901SOL    HW184542  12.576   4.099   4.938
60901SOL    HW284543  12.579   4.054   5.083
60902SOL     OW84544  13.280  14.861   5.618
60902SOL    HW184545  13.287  14.825   5.530
60902SOL    HW284546  13.370  14.872   5.647
60903SOL     OW84547   3.751   6.224  13.181
60903SOL    HW184548   3.677   6.253  13.235
60903SOL    HW284549   3.825   6.277  13.209
60904SOL     OW84550  11.203  10.155   2.747
60904SOL    HW184551  11.190  10.220   2.817
60904SOL    HW284552  11.296  10.161   2.726
60905SOL     OW84553  10.711   3.948   6.699
60905SOL    HW184554  10.672   3.950   6.787
60905SOL    HW284555  10.637   3.931   6.641
60906SOL     OW84556   6.531   6.185   5.732
60906SOL    HW184557   6.561   6.246   5.665
60906SOL    HW284558   6.611   6.154   5.775
60907SOL     OW84559  10.655   4.071   9.058
60907SOL    HW184560  10.564   4.093   9.073
60907SOL    HW284561  10.658   4.036   8.969
60908SOL     OW84562   7.550   8.217   5.057
60908SOL    HW184563   7.519   8.304   5.030
60908SOL    HW284564   7.509   8.157   4.995
60909SOL     OW84565  13.932   4.115  10.360
60909SOL    HW184566  13.850   4.082  10.325
60909SOL    HW284567  13.995   4.043  10.347
60910SOL     OW84568   0.000   7.175  12.937
60910SOL    HW184569   0.002   7.267  12.965
60910SOL    HW284570   0.085   7.140  12.964
60911SOL     OW84571   7.249   8.705   3.607
60911SOL    HW184572   7.277   8.614   3.610
60911SOL    HW284573   7.194   8.712   3.529
60912SOL     OW84574   8.103  14.562   4.214
60912SOL    HW184575   8.062  14.638   4.172
60912SOL    HW284576   8.084  14.489   4.155
60913SOL     OW84577  10.881  10.011   1.235
60913SOL    HW184578  10.853  10.056   1.314
60913SOL    HW284579  10.920   9.929   1.266
60914SOL     OW84580   9.222   9.102   5.883
60914SOL    HW184581   9.178   9.152   5.815
60914SOL    HW284582   9.196   9.012   5.868
60915SOL     OW84583  12.040   8.316   4.218
60915SOL    HW184584  11.953   8.355   4.219
60915SOL    HW284585  12.027   8.230   4.177
60916SOL     OW84586  13.963   6.902   1.806
60916SOL    HW184587  13.900   6.966   1.840
60916SOL    HW284588  13.981   6.844   1.880
60917SOL     OW84589  14.155  14.868  10.315
60917SOL    HW184590  14.193   0.039  10.239
60917SOL    HW284591  14.204  14.786  10.321
60918SOL     OW84592  10.811  13.514  10.237
60918SOL    HW184593  10.844  13.584  10.182
60918SOL    HW284594  10.802  13.554  10.324
60919SOL     OW84595   9.236  10.436  13.401
60919SOL    HW184596   9.159  10.447  13.456
60919SOL    HW284597   9.292  10.376  13.450
60920SOL     OW84598   9.658  13.851   0.332
60920SOL    HW184599   9.650  13.819   0.242
60920SOL    HW284600   9.745  13.825   0.359
60921SOL     OW84601   2.079   9.984  10.205
60921SOL    HW184602   2.006  10.010  10.148
60921SOL    HW284603   2.050  10.009  10.293
60922SOL     OW84604   9.837  10.527   9.345
60922SOL    HW184605   9.794  10.535   9.260
60922SOL    HW284606   9.927  10.555   9.328
60923SOL     OW84607  14.793   7.704   3.547
60923SOL    HW184608  14.844   7.737   3.473
60923SOL    HW284609  14.714   7.668   3.507
60924SOL     OW84610   5.605   8.732   5.082
60924SOL    HW184611   5.588   8.824   5.106
60924SOL    HW284612   5.553   8.681   5.145
60925SOL     OW84613   5.047   5.926   8.060
60925SOL    HW184614   5.081   5.864   7.995
60925SOL    HW284615   5.100   5.910   8.138
60926SOL     OW84616   4.819   3.508   7.917
60926SOL    HW184617   4.860   3.590   7.945
60926SOL    HW284618   4.878   3.439   7.950
60927SOL     OW84619   1.682  12.410   8.260
60927SOL    HW184620   1.653  12.341   8.319
60927SOL    HW284621   1.729  12.472   8.317
60928SOL     OW84622  11.998   9.559   1.011
60928SOL    HW184623  11.976   9.642   1.053
60928SOL    HW284624  11.962   9.567   0.922
60929SOL     OW84625   0.673   8.716   9.990
60929SOL    HW184626   0.626   8.703  10.072
60929SOL    HW284627   0.636   8.650   9.931
60930SOL     OW84628   2.991   6.301  11.908
60930SOL    HW184629   2.907   6.288  11.952
60930SOL    HW284630   3.054   6.257  11.965
60931SOL     OW84631  12.512  10.891   1.250
60931SOL    HW184632  12.497  10.830   1.323
60931SOL    HW284633  12.591  10.939   1.275
60932SOL     OW84634   1.529   6.881   5.041
60932SOL    HW184635   1.516   6.855   4.950
60932SOL    HW284636   1.618   6.917   5.044
60933SOL     OW84637   0.462   9.571   1.664
60933SOL    HW184638   0.414   9.602   1.741
60933SOL    HW284639   0.516   9.499   1.696
60934SOL     OW84640  11.048  13.892   6.563
60934SOL    HW184641  10.957  13.875   6.589
60934SOL    HW284642  11.100  13.831   6.615
60935SOL     OW84643  11.512   2.509   2.620
60935SOL    HW184644  11.417   2.506   2.606
60935SOL    HW284645  11.541   2.419   2.608
60936SOL     OW84646   2.093   3.117   6.485
60936SOL    HW184647   2.163   3.179   6.504
60936SOL    HW284648   2.103   3.049   6.553
60937SOL     OW84649   9.116   3.547   7.852
60937SOL    HW184650   9.090   3.618   7.794
60937SOL    HW284651   9.056   3.475   7.830
60938SOL     OW84652  10.035   9.338  10.739
60938SOL    HW184653  10.106   9.315  10.799
60938SOL    HW284654  10.044   9.432  10.725
60939SOL     OW84655   2.134   7.367   3.647
60939SOL    HW184656   2.070   7.393   3.713
60939SOL    HW284657   2.217   7.405   3.677
60940SOL     OW84658   1.684   4.040  10.886
60940SOL    HW184659   1.636   4.099  10.945
60940SOL    HW284660   1.688   3.957  10.934
60941SOL     OW84661   3.082   2.667   9.368
60941SOL    HW184662   3.123   2.749   9.396
60941SOL    HW284663   3.008   2.657   9.427
60942SOL     OW84664  11.854  12.417   5.780
60942SOL    HW184665  11.943  12.444   5.758
60942SOL    HW284666  11.857  12.321   5.779
60943SOL     OW84667   1.963   9.657   2.904
60943SOL    HW184668   1.884   9.690   2.862
60943SOL    HW284669   1.956   9.688   2.995
60944SOL     OW84670   9.237  13.676   9.519
60944SOL    HW184671   9.170  13.723   9.470
60944SOL    HW284672   9.201  13.588   9.531
60945SOL     OW84673  11.422   6.506   5.987
60945SOL    HW184674  11.397   6.419   5.958
60945SOL    HW284675  11.471   6.543   5.913
60946SOL     OW84676  14.438   5.235  11.947
60946SOL    HW184677  14.514   5.290  11.968
60946SOL    HW284678  14.407   5.205  12.032
60947SOL     OW84679   4.643   3.134  14.231
60947SOL    HW184680   4.730   3.097  14.216
60947SOL    HW284681   4.660   3.221  14.268
60948SOL     OW84682  11.286   3.132   3.787
60948SOL    HW184683  11.237   3.084   3.721
60948SOL    HW284684  11.371   3.150   3.746
60949SOL     OW84685   0.433   9.274  11.192
60949SOL    HW184686   0.493   9.245  11.261
60949SOL    HW284687   0.417   9.366  11.211
60950SOL     OW84688  11.977  10.973   5.541
60950SOL    HW184689  11.947  10.961   5.631
60950SOL    HW284690  12.052  10.914   5.533
60951SOL     OW84691   9.378  10.347  11.913
60951SOL    HW184692   9.330  10.353  11.831
60951SOL    HW284693   9.467  10.375  11.891
60952SOL     OW84694   2.214   2.322   3.469
60952SOL    HW184695   2.121   2.297   3.467
60952SOL    HW284696   2.249   2.292   3.385
60953SOL     OW84697  14.753   2.887   8.344
60953SOL    HW184698  14.682   2.854   8.398
60953SOL    HW284699  14.756   2.981   8.364
60954SOL     OW84700  11.242  11.069  12.985
60954SOL    HW184701  11.163  11.065  12.930
60954SOL    HW284702  11.276  10.980  12.985
60955SOL     OW84703  12.829  11.462   0.516
60955SOL    HW184704  12.744  11.423   0.540
60955SOL    HW284705  12.842  11.438   0.425
60956SOL     OW84706   3.646  13.583   5.336
60956SOL    HW184707   3.608  13.656   5.386
60956SOL    HW284708   3.737  13.578   5.365
60957SOL     OW84709   2.735  12.070   4.093
60957SOL    HW184710   2.754  11.977   4.079
60957SOL    HW284711   2.717  12.105   4.006
60958SOL     OW84712   2.824  11.848  11.252
60958SOL    HW184713   2.750  11.900  11.285
60958SOL    HW284714   2.784  11.764  11.227
60959SOL     OW84715   0.598   1.957   5.718
60959SOL    HW184716   0.536   2.018   5.676
60959SOL    HW284717   0.564   1.946   5.806
60960SOL     OW84718   0.458   5.255   4.872
60960SOL    HW184719   0.545   5.258   4.832
60960SOL    HW284720   0.407   5.198   4.815
60961SOL     OW84721  13.833  11.098   8.980
60961SOL    HW184722  13.758  11.116   8.923
60961SOL    HW284723  13.899  11.162   8.953
60962SOL     OW84724   7.342   8.763   9.128
60962SOL    HW184725   7.293   8.681   9.122
60962SOL    HW284726   7.412   8.754   9.064
60963SOL     OW84727   9.186   9.629  14.713
60963SOL    HW184728   9.182   9.537  14.739
60963SOL    HW284729   9.280   9.650  14.711
60964SOL     OW84730  11.530   7.005  11.111
60964SOL    HW184731  11.505   7.095  11.132
60964SOL    HW284732  11.570   7.011  11.023
60965SOL     OW84733   1.358   0.660  13.581
60965SOL    HW184734   1.384   0.680  13.672
60965SOL    HW284735   1.406   0.725  13.529
60966SOL     OW84736   7.814   7.909   5.026
60966SOL    HW184737   7.836   7.992   4.984
60966SOL    HW284738   7.803   7.931   5.119
60967SOL     OW84739  12.045   4.320   3.533
60967SOL    HW184740  12.120   4.267   3.507
60967SOL    HW284741  12.072   4.362   3.615
60968SOL     OW84742   0.385   7.933  11.483
60968SOL    HW184743   0.339   7.955  11.402
60968SOL    HW284744   0.318   7.937  11.551
60969SOL     OW84745  14.659   8.100  11.760
60969SOL    HW184746  14.647   8.194  11.749
60969SOL    HW284747  14.665   8.066  11.671
60970SOL     OW84748   0.705  10.681   2.200
60970SOL    HW184749   0.653  10.615   2.246
60970SOL    HW284750   0.641  10.744   2.168
60971SOL     OW84751   9.077  11.157  11.579
60971SOL    HW184752   9.040  11.127  11.496
60971SOL    HW284753   9.169  11.173  11.561
60972SOL     OW84754  12.661   2.282  10.165
60972SOL    HW184755  12.696   2.369  10.145
60972SOL    HW284756  12.631   2.248  10.081
60973SOL     OW84757   1.944   9.934   8.711
60973SOL    HW184758   1.911   9.861   8.764
60973SOL    HW284759   1.884   9.939   8.637
60974SOL     OW84760  14.454   2.659   5.614
60974SOL    HW184761  14.507   2.604   5.671
60974SOL    HW284762  14.516   2.697   5.552
60975SOL     OW84763   7.556   9.150  12.646
60975SOL    HW184764   7.492   9.113  12.706
60975SOL    HW284765   7.576   9.236  12.682
60976SOL     OW84766   5.644  11.428  11.451
60976SOL    HW184767   5.633  11.511  11.495
60976SOL    HW284768   5.739  11.419  11.439
60977SOL     OW84769   9.087   0.075   5.866
60977SOL    HW184770   9.025   0.113   5.928
60977SOL    HW284771   9.075   0.126   5.786
60978SOL     OW84772  14.294  11.571  13.573
60978SOL    HW184773  14.276  11.663  13.555
60978SOL    HW284774  14.225  11.524  13.525
60979SOL     OW84775   3.607   6.508   4.663
60979SOL    HW184776   3.630   6.583   4.718
60979SOL    HW284777   3.680   6.446   4.675
60980SOL     OW84778   8.822  10.074  12.403
60980SOL    HW184779   8.740  10.076  12.355
60980SOL    HW284780   8.830   9.984  12.434
60981SOL     OW84781   2.250   3.345   4.826
60981SOL    HW184782   2.239   3.402   4.901
60981SOL    HW284783   2.279   3.261   4.863
60982SOL     OW84784   5.473  11.342  12.333
60982SOL    HW184785   5.467  11.251  12.362
60982SOL    HW284786   5.382  11.372  12.328
60983SOL     OW84787  13.515   3.254   9.302
60983SOL    HW184788  13.587   3.229   9.360
60983SOL    HW284789  13.455   3.302   9.358
60984SOL     OW84790   8.113   0.471  13.041
60984SOL    HW184791   8.139   0.549  13.090
60984SOL    HW284792   8.097   0.405  13.108
60985SOL     OW84793  10.381  14.832  10.775
60985SOL    HW184794  10.305  14.795  10.730
60985SOL    HW284795  10.454  14.776  10.749
60986SOL     OW84796  10.389   3.387  11.716
60986SOL    HW184797  10.372   3.423  11.803
60986SOL    HW284798  10.385   3.463  11.657
60987SOL     OW84799   1.499   9.612   0.380
60987SOL    HW184800   1.509   9.649   0.292
60987SOL    HW284801   1.542   9.674   0.438
60988SOL     OW84802   3.048   5.502  11.769
60988SOL    HW184803   3.135   5.468  11.750
60988SOL    HW284804   3.001   5.428  11.808
60989SOL     OW84805  14.613  12.672   6.529
60989SOL    HW184806  14.584  12.581   6.528
60989SOL    HW284807  14.549  12.719   6.476
60990SOL     OW84808  12.365   0.072   0.636
60990SOL    HW184809  12.397   0.028   0.715
60990SOL    HW284810  12.295   0.130   0.667
60991SOL     OW84811   0.158   5.772  11.280
60991SOL    HW184812   0.129   5.846  11.334
60991SOL    HW284813   0.160   5.807  11.191
60992SOL     OW84814   8.470   5.868  10.179
60992SOL    HW184815   8.421   5.918  10.245
60992SOL    HW284816   8.551   5.917  10.168
60993SOL     OW84817   7.928   8.272  12.946
60993SOL    HW184818   7.861   8.231  13.000
60993SOL    HW284819   7.993   8.204  12.932
60994SOL     OW84820  12.790   3.050   9.052
60994SOL    HW184821  12.837   3.133   9.054
60994SOL    HW284822  12.722   3.062   8.986
60995SOL     OW84823   2.796   9.553   2.418
60995SOL    HW184824   2.772   9.479   2.473
60995SOL    HW284825   2.778   9.523   2.329
60996SOL     OW84826   3.829   9.131   6.386
60996SOL    HW184827   3.779   9.095   6.459
60996SOL    HW284828   3.873   9.207   6.423
60997SOL     OW84829   8.563   8.348   3.179
60997SOL    HW184830   8.488   8.303   3.217
60997SOL    HW284831   8.619   8.278   3.145
60998SOL     OW84832   7.518   6.148  13.109
60998SOL    HW184833   7.430   6.154  13.070
60998SOL    HW284834   7.536   6.054  13.113
60999SOL     OW84835  13.118   2.002   5.890
60999SOL    HW184836  13.122   1.921   5.840
60999SOL    HW284837  13.078   1.977   5.973
61000SOL     OW84838   3.504  13.820   5.555
61000SOL    HW184839   3.572  13.770   5.601
61000SOL    HW284840   3.428  13.814   5.613
61001SOL     OW84841   1.681   2.223   1.993
61001SOL    HW184842   1.740   2.258   2.060
61001SOL    HW284843   1.736   2.215   1.915
61002SOL     OW84844   1.735   2.283   3.084
61002SOL    HW184845   1.714   2.196   3.118
61002SOL    HW284846   1.797   2.320   3.147
61003SOL     OW84847   6.455   6.930   2.952
61003SOL    HW184848   6.364   6.902   2.954
61003SOL    HW284849   6.505   6.849   2.941
61004SOL     OW84850  10.349   5.151  12.913
61004SOL    HW184851  10.324   5.129  12.823
61004SOL    HW284852  10.442   5.128  12.918
61005SOL     OW84853  14.830   8.707   8.855
61005SOL    HW184854  14.741   8.714   8.821
61005SOL    HW284855   0.013   8.712   8.777
61006SOL     OW84856  13.699   8.308   2.409
61006SOL    HW184857  13.622   8.280   2.360
61006SOL    HW284858  13.664   8.331   2.496
61007SOL     OW84859   3.885  14.755   3.455
61007SOL    HW184860   3.878  14.807   3.375
61007SOL    HW284861   3.950  14.687   3.434
61008SOL     OW84862   1.875   7.825   8.194
61008SOL    HW184863   1.797   7.870   8.227
61008SOL    HW284864   1.948   7.879   8.223
61009SOL     OW84865  14.707   6.248   3.194
61009SOL    HW184866  14.623   6.211   3.220
61009SOL    HW284867  14.691   6.283   3.106
61010SOL     OW84868   2.104   1.182   1.113
61010SOL    HW184869   2.115   1.163   1.207
61010SOL    HW284870   2.076   1.273   1.111
61011SOL     OW84871   6.400  11.428   2.751
61011SOL    HW184872   6.467  11.360   2.756
61011SOL    HW284873   6.321  11.383   2.721
61012SOL     OW84874   2.936   5.914   2.582
61012SOL    HW184875   3.030   5.922   2.566
61012SOL    HW284876   2.899   5.898   2.495
61013SOL     OW84877   7.290  12.585  13.690
61013SOL    HW184878   7.271  12.669  13.649
61013SOL    HW284879   7.266  12.597  13.782
61014SOL     OW84880  13.819  14.737   7.050
61014SOL    HW184881  13.728  14.759   7.029
61014SOL    HW284882  13.865  14.821   7.049
61015SOL     OW84883   9.745   2.981  11.084
61015SOL    HW184884   9.809   2.910  11.087
61015SOL    HW284885   9.683   2.960  11.153
61016SOL     OW84886   4.140   6.263   0.990
61016SOL    HW184887   4.178   6.303   1.068
61016SOL    HW284888   4.213   6.251   0.930
61017SOL     OW84889   6.371   0.228   0.838
61017SOL    HW184890   6.311   0.251   0.909
61017SOL    HW284891   6.387   0.135   0.849
61018SOL     OW84892   4.425   5.341  10.924
61018SOL    HW184893   4.364   5.336  10.851
61018SOL    HW284894   4.369   5.339  11.002
61019SOL     OW84895   1.820   2.007   7.591
61019SOL    HW184896   1.888   1.944   7.566
61019SOL    HW284897   1.868   2.086   7.616
61020SOL     OW84898   4.443  12.604   7.953
61020SOL    HW184899   4.483  12.611   7.867
61020SOL    HW284900   4.516  12.607   8.014
61021SOL     OW84901   5.794  10.617  14.537
61021SOL    HW184902   5.870  10.652  14.490
61021SOL    HW284903   5.751  10.560  14.473
61022SOL     OW84904   8.609   2.662  11.557
61022SOL    HW184905   8.604   2.750  11.520
61022SOL    HW284906   8.566   2.607  11.492
61023SOL     OW84907   2.846   1.244  14.699
61023SOL    HW184908   2.891   1.226  14.617
61023SOL    HW284909   2.898   1.311  14.742
61024SOL     OW84910  11.347   0.615   8.067
61024SOL    HW184911  11.429   0.664   8.064
61024SOL    HW284912  11.287   0.667   8.012
61025SOL     OW84913   2.044   1.986  12.707
61025SOL    HW184914   2.053   2.046  12.632
61025SOL    HW284915   1.972   2.022  12.758
61026SOL     OW84916  14.063  11.902  11.524
61026SOL    HW184917  13.980  11.945  11.503
61026SOL    HW284918  14.121  11.973  11.550
61027SOL     OW84919   8.017  11.929   7.920
61027SOL    HW184920   8.109  11.954   7.916
61027SOL    HW284921   7.987  11.933   7.829
61028SOL     OW84922   1.194   3.410   0.545
61028SOL    HW184923   1.230   3.326   0.514
61028SOL    HW284924   1.103   3.391   0.567
61029SOL     OW84925   7.453   7.508   2.046
61029SOL    HW184926   7.378   7.535   2.101
61029SOL    HW284927   7.510   7.584   2.045
61030SOL     OW84928   3.026   8.413  13.409
61030SOL    HW184929   3.112   8.428  13.449
61030SOL    HW284930   3.046   8.360  13.332
61031SOL     OW84931   9.686   3.617  11.864
61031SOL    HW184932   9.615   3.663  11.908
61031SOL    HW284933   9.743   3.587  11.935
61032SOL     OW84934   8.704   7.690   3.172
61032SOL    HW184935   8.625   7.650   3.210
61032SOL    HW284936   8.731   7.755   3.237
61033SOL     OW84937   9.671   1.556   9.560
61033SOL    HW184938   9.750   1.561   9.615
61033SOL    HW284939   9.695   1.603   9.480
61034SOL     OW84940  12.205   2.862  14.639
61034SOL    HW184941  12.124   2.913  14.647
61034SOL    HW284942  12.198   2.796  14.709
61035SOL     OW84943   7.205  13.646  12.981
61035SOL    HW184944   7.226  13.566  12.934
61035SOL    HW284945   7.290  13.683  13.005
61036SOL     OW84946   5.976   5.153   0.946
61036SOL    HW184947   5.896   5.138   0.896
61036SOL    HW284948   6.020   5.224   0.899
61037SOL     OW84949   8.228   5.388   1.840
61037SOL    HW184950   8.307   5.384   1.894
61037SOL    HW284951   8.242   5.463   1.783
61038SOL     OW84952  11.025   5.886  11.423
61038SOL    HW184953  11.120   5.894  11.433
61038SOL    HW284954  10.992   5.974  11.440
61039SOL     OW84955  10.184  14.046  12.024
61039SOL    HW184956  10.184  13.951  12.023
61039SOL    HW284957  10.116  14.071  11.961
61040SOL     OW84958  14.141   5.740  10.316
61040SOL    HW184959  14.192   5.710  10.391
61040SOL    HW284960  14.177   5.826  10.295
61041SOL     OW84961  14.020   2.279   1.501
61041SOL    HW184962  13.986   2.311   1.584
61041SOL    HW284963  14.090   2.340   1.478
61042SOL     OW84964  12.103   2.638   7.782
61042SOL    HW184965  12.077   2.596   7.700
61042SOL    HW284966  12.058   2.723   7.781
61043SOL     OW84967   1.535   3.140   5.260
61043SOL    HW184968   1.582   3.205   5.207
61043SOL    HW284969   1.563   3.056   5.226
61044SOL     OW84970  10.532   0.147  13.683
61044SOL    HW184971  10.498   0.215  13.740
61044SOL    HW284972  10.471   0.074  13.693
61045SOL     OW84973  10.632   5.832   2.348
61045SOL    HW184974  10.692   5.758   2.341
61045SOL    HW284975  10.689   5.908   2.359
61046SOL     OW84976   9.039  14.609   4.717
61046SOL    HW184977   9.024  14.566   4.802
61046SOL    HW284978   9.076  14.694   4.740
61047SOL     OW84979   7.589  10.738   2.151
61047SOL    HW184980   7.675  10.698   2.163
61047SOL    HW284981   7.601  10.801   2.080
61048SOL     OW84982   1.982  13.683   0.359
61048SOL    HW184983   1.928  13.762   0.366
61048SOL    HW284984   1.987  13.648   0.448
61049SOL     OW84985  13.261   6.084  13.640
61049SOL    HW184986  13.344   6.128  13.659
61049SOL    HW284987  13.206   6.153  13.602
61050SOL     OW84988  10.237   9.315   4.385
61050SOL    HW184989  10.145   9.289   4.376
61050SOL    HW284990  10.237   9.409   4.370
61051SOL     OW84991  13.673  14.771   6.176
61051SOL    HW184992  13.752  14.722   6.201
61051SOL    HW284993  13.623  14.709   6.124
61052SOL     OW84994  12.372   8.861  10.302
61052SOL    HW184995  12.455   8.900  10.329
61052SOL    HW284996  12.323   8.848  10.383
61053SOL     OW84997  12.095   6.776   7.919
61053SOL    HW184998  12.070   6.763   7.827
61053SOL    HW284999  12.016   6.808   7.961
61054SOL     OW85000   4.192   0.339  14.464
61054SOL    HW185001   4.152   0.253  14.481
61054SOL    HW285002   4.211   0.373  14.551
61055SOL     OW85003   3.619   3.184  10.568
61055SOL    HW185004   3.705   3.175  10.609
61055SOL    HW285005   3.602   3.098  10.529
61056SOL     OW85006  13.826   0.316   0.390
61056SOL    HW185007  13.779   0.238   0.361
61056SOL    HW285008  13.897   0.327   0.327
61057SOL     OW85009   6.842   5.644  10.797
61057SOL    HW185010   6.788   5.689  10.732
61057SOL    HW285011   6.779   5.614  10.863
61058SOL     OW85012   0.787  12.809   7.806
61058SOL    HW185013   0.797  12.809   7.901
61058SOL    HW285014   0.698  12.779   7.791
61059SOL     OW85015   4.480   3.388  11.537
61059SOL    HW185016   4.425   3.310  11.536
61059SOL    HW285017   4.499   3.403  11.630
61060SOL     OW85018   8.055   0.823  14.303
61060SOL    HW185019   7.990   0.876  14.350
61060SOL    HW285020   8.025   0.823  14.212
61061SOL     OW85021   1.112   8.380   9.493
61061SOL    HW185022   1.199   8.388   9.455
61061SOL    HW285023   1.128   8.364   9.586
61062SOL     OW85024   4.791  13.167  13.059
61062SOL    HW185025   4.819  13.231  12.995
61062SOL    HW285026   4.705  13.137  13.028
61063SOL     OW85027   6.169  14.750   8.908
61063SOL    HW185028   6.238  14.794   8.858
61063SOL    HW285029   6.089  14.768   8.859
61064SOL     OW85030  11.565  11.378  13.656
61064SOL    HW185031  11.591  11.459  13.699
61064SOL    HW285032  11.610  11.309  13.705
61065SOL     OW85033   4.790  14.375   6.955
61065SOL    HW185034   4.700  14.343   6.956
61065SOL    HW285035   4.830  14.334   6.879
61066SOL     OW85036   9.844   9.089   2.897
61066SOL    HW185037   9.860   9.082   2.992
61066SOL    HW285038   9.749   9.097   2.889
61067SOL     OW85039   7.043  12.153   7.801
61067SOL    HW185040   7.094  12.072   7.796
61067SOL    HW285041   6.981  12.138   7.873
61068SOL     OW85042   8.605   0.190   1.999
61068SOL    HW185043   8.616   0.107   2.045
61068SOL    HW285044   8.563   0.166   1.917
61069SOL     OW85045   9.479  10.329   4.329
61069SOL    HW185046   9.440  10.401   4.380
61069SOL    HW285047   9.416  10.312   4.259
61070SOL     OW85048  11.820   2.000   9.399
61070SOL    HW185049  11.787   1.949   9.324
61070SOL    HW285050  11.915   2.001   9.387
61071SOL     OW85051   8.826  12.783   4.331
61071SOL    HW185052   8.743  12.735   4.330
61071SOL    HW285053   8.889  12.724   4.290
61072SOL     OW85054  12.094   3.347  14.350
61072SOL    HW185055  12.047   3.422  14.314
61072SOL    HW285056  12.061   3.272  14.300
61073SOL     OW85057  14.295   8.063   3.541
61073SOL    HW185058  14.283   8.138   3.482
61073SOL    HW285059  14.331   8.102   3.621
61074SOL     OW85060   4.735   6.757   2.540
61074SOL    HW185061   4.785   6.830   2.574
61074SOL    HW285062   4.788   6.722   2.468
61075SOL     OW85063   7.305   5.889   9.049
61075SOL    HW185064   7.233   5.946   9.023
61075SOL    HW285065   7.372   5.948   9.084
61076SOL     OW85066  12.282  12.945   3.183
61076SOL    HW185067  12.324  12.874   3.232
61076SOL    HW285068  12.206  12.904   3.142
61077SOL     OW85069   4.603   7.395  12.089
61077SOL    HW185070   4.595   7.430  12.177
61077SOL    HW285071   4.674   7.330  12.095
61078SOL     OW85072   0.824  14.306   8.516
61078SOL    HW185073   0.900  14.251   8.534
61078SOL    HW285074   0.787  14.325   8.602
61079SOL     OW85075  11.605  10.039   0.066
61079SOL    HW185076  11.575  10.115   0.117
61079SOL    HW285077  11.667  10.076   0.003
61080SOL     OW85078  13.495   6.647   9.916
61080SOL    HW185079  13.408   6.614   9.937
61080SOL    HW285080  13.553   6.604   9.980
61081SOL     OW85081   2.719   2.470   1.581
61081SOL    HW185082   2.799   2.507   1.619
61081SOL    HW285083   2.734   2.471   1.487
61082SOL     OW85084   1.078  13.372  14.286
61082SOL    HW185085   1.119  13.349  14.370
61082SOL    HW285086   1.035  13.291  14.258
61083SOL     OW85087   0.683  10.410  10.010
61083SOL    HW185088   0.731  10.338  10.051
61083SOL    HW285089   0.750  10.474   9.986
61084SOL     OW85090   9.493   5.798  12.662
61084SOL    HW185091   9.489   5.854  12.585
61084SOL    HW285092   9.459   5.714  12.632
61085SOL     OW85093   1.003  13.782   3.380
61085SOL    HW185094   1.003  13.714   3.447
61085SOL    HW285095   1.094  13.814   3.378
61086SOL     OW85096   0.818   5.969   0.076
61086SOL    HW185097   0.862   5.910   0.014
61086SOL    HW285098   0.861   5.952   0.159
61087SOL     OW85099  11.223   8.925  11.958
61087SOL    HW185100  11.275   8.936  12.037
61087SOL    HW285101  11.148   8.982  11.970
61088SOL     OW85102  14.581   0.297   4.424
61088SOL    HW185103  14.574   0.238   4.499
61088SOL    HW285104  14.673   0.290   4.397
61089SOL     OW85105   1.994   6.388   0.887
61089SOL    HW185106   2.082   6.355   0.902
61089SOL    HW285107   1.983   6.457   0.953
61090SOL     OW85108  13.171   3.810  11.872
61090SOL    HW185109  13.131   3.815  11.786
61090SOL    HW285110  13.098   3.813  11.933
61091SOL     OW85111   8.050  11.149  13.560
61091SOL    HW185112   8.116  11.080  13.570
61091SOL    HW285113   8.053  11.171  13.467
61092SOL     OW85114   6.014  11.136   6.500
61092SOL    HW185115   5.921  11.126   6.521
61092SOL    HW285116   6.060  11.092   6.572
61093SOL     OW85117   9.418   8.795   4.853
61093SOL    HW185118   9.500   8.779   4.899
61093SOL    HW285119   9.379   8.869   4.899
61094SOL     OW85120   0.443   6.682  10.494
61094SOL    HW185121   0.355   6.653  10.519
61094SOL    HW285122   0.463   6.632  10.415
61095SOL     OW85123   6.722   2.821   3.793
61095SOL    HW185124   6.784   2.877   3.838
61095SOL    HW285125   6.653   2.880   3.762
61096SOL     OW85126   3.641   7.250   3.960
61096SOL    HW185127   3.708   7.290   3.906
61096SOL    HW285128   3.686   7.179   4.006
61097SOL     OW85129   7.513  14.504   0.811
61097SOL    HW185130   7.420  14.482   0.810
61097SOL    HW285131   7.544  14.482   0.723
61098SOL     OW85132  14.706   1.205   9.566
61098SOL    HW185133  14.646   1.148   9.518
61098SOL    HW285134  14.712   1.284   9.512
61099SOL     OW85135  11.900   7.367   5.337
61099SOL    HW185136  11.891   7.411   5.252
61099SOL    HW285137  11.965   7.298   5.320
61100SOL     OW85138   7.797   7.912   8.978
61100SOL    HW185139   7.762   7.941   9.062
61100SOL    HW285140   7.787   7.988   8.920
61101SOL     OW85141  14.862  11.583   5.150
61101SOL    HW185142  14.771  11.604   5.128
61101SOL    HW285143  14.856  11.526   5.226
61102SOL     OW85144  10.759  11.051   5.622
61102SOL    HW185145  10.827  11.076   5.685
61102SOL    HW285146  10.785  11.095   5.540
61103SOL     OW85147   1.816   0.904   1.361
61103SOL    HW185148   1.741   0.849   1.336
61103SOL    HW285149   1.892   0.857   1.329
61104SOL     OW85150  14.757   9.272   5.105
61104SOL    HW185151  14.754   9.179   5.082
61104SOL    HW285152  14.796   9.314   5.028
61105SOL     OW85153  12.800   5.217  10.038
61105SOL    HW185154  12.755   5.302  10.039
61105SOL    HW285155  12.729   5.153  10.030
61106SOL     OW85156  10.363   4.663   4.133
61106SOL    HW185157  10.335   4.678   4.224
61106SOL    HW285158  10.307   4.720   4.081
61107SOL     OW85159   6.521   6.506   0.058
61107SOL    HW185160   6.441   6.477   0.102
61107SOL    HW285161   6.570   6.552   0.126
61108SOL     OW85162  13.496   0.448   0.167
61108SOL    HW185163  13.495   0.357   0.136
61108SOL    HW285164  13.481   0.441   0.261
61109SOL     OW85165   5.452   6.630   4.873
61109SOL    HW185166   5.375   6.669   4.831
61109SOL    HW285167   5.464   6.681   4.953
61110SOL     OW85168   4.845   0.605   0.109
61110SOL    HW185169   4.791   0.657   0.049
61110SOL    HW285170   4.781   0.558   0.163
61111SOL     OW85171   9.891   6.677   1.724
61111SOL    HW185172   9.874   6.583   1.723
61111SOL    HW285173   9.927   6.694   1.811
61112SOL     OW85174  12.203   3.015   1.720
61112SOL    HW185175  12.148   2.946   1.755
61112SOL    HW285176  12.292   2.989   1.743
61113SOL     OW85177  13.766   0.696   1.445
61113SOL    HW185178  13.722   0.629   1.497
61113SOL    HW285179  13.699   0.727   1.385
61114SOL     OW85180   3.896   4.908   5.331
61114SOL    HW185181   3.909   4.846   5.404
61114SOL    HW285182   3.972   4.895   5.275
61115SOL     OW85183  14.288  12.446   9.325
61115SOL    HW185184  14.365  12.499   9.303
61115SOL    HW285185  14.214  12.504   9.309
61116SOL     OW85186  14.244   3.177   6.451
61116SOL    HW185187  14.259   3.260   6.496
61116SOL    HW285188  14.298   3.114   6.498
61117SOL     OW85189   8.309  12.033   0.706
61117SOL    HW185190   8.236  12.043   0.645
61117SOL    HW285191   8.387  12.049   0.653
61118SOL     OW85192   7.511   1.580  12.335
61118SOL    HW185193   7.605   1.594  12.337
61118SOL    HW285194   7.493   1.549  12.246
61119SOL     OW85195   7.587   6.417  10.441
61119SOL    HW185196   7.597   6.343  10.501
61119SOL    HW285197   7.661   6.408  10.381
61120SOL     OW85198   2.135   7.626   6.823
61120SOL    HW185199   2.180   7.665   6.897
61120SOL    HW285200   2.203   7.610   6.758
61121SOL     OW85201   7.603  13.701   8.917
61121SOL    HW185202   7.604  13.761   8.843
61121SOL    HW285203   7.684  13.650   8.907
61122SOL     OW85204  11.555  13.726   3.043
61122SOL    HW185205  11.467  13.754   3.019
61122SOL    HW285206  11.608  13.742   2.965
61123SOL     OW85207  13.059   6.866  14.530
61123SOL    HW185208  13.005   6.879  14.452
61123SOL    HW285209  13.069   6.771  14.536
61124SOL     OW85210   5.986   3.297  11.274
61124SOL    HW185211   5.949   3.348  11.346
61124SOL    HW285212   5.911   3.254  11.233
61125SOL     OW85213  13.160   7.142   6.147
61125SOL    HW185214  13.223   7.131   6.076
61125SOL    HW285215  13.214   7.160   6.224
61126SOL     OW85216   6.999   2.459   3.326
61126SOL    HW185217   6.911   2.468   3.361
61126SOL    HW285218   7.026   2.371   3.351
61127SOL     OW85219   9.068  10.594  11.639
61127SOL    HW185220   9.140  10.538  11.612
61127SOL    HW285221   9.043  10.642  11.560
61128SOL     OW85222   1.544  10.584   8.039
61128SOL    HW185223   1.474  10.639   8.004
61128SOL    HW285224   1.610  10.646   8.068
61129SOL     OW85225  14.539   2.725   8.433
61129SOL    HW185226  14.532   2.725   8.338
61129SOL    HW285227  14.589   2.646   8.454
61130SOL     OW85228  12.502  14.803  13.467
61130SOL    HW185229  12.517  14.745  13.541
61130SOL    HW285230  12.572  14.782  13.405
61131SOL     OW85231   8.179   1.612   7.372
61131SOL    HW185232   8.124   1.643   7.299
61131SOL    HW285233   8.250   1.565   7.330
61132SOL     OW85234   8.053  11.970   4.677
61132SOL    HW185235   7.990  11.976   4.748
61132SOL    HW285236   8.113  11.900   4.704
61133SOL     OW85237   1.470  12.185   1.782
61133SOL    HW185238   1.428  12.100   1.775
61133SOL    HW285239   1.434  12.236   1.709
61134SOL     OW85240   3.781   1.318   5.421
61134SOL    HW185241   3.706   1.326   5.480
61134SOL    HW285242   3.746   1.275   5.343
61135SOL     OW85243   3.085   9.468   2.002
61135SOL    HW185244   3.154   9.499   1.942
61135SOL    HW285245   3.033   9.409   1.948
61136SOL     OW85246  11.788   8.153  10.058
61136SOL    HW185247  11.865   8.164  10.113
61136SOL    HW285248  11.823   8.140   9.970
61137SOL     OW85249   1.872  10.128  11.360
61137SOL    HW185250   1.815  10.090  11.293
61137SOL    HW285251   1.812  10.181  11.414
61138SOL     OW85252  12.049   1.507   3.890
61138SOL    HW185253  12.057   1.573   3.822
61138SOL    HW285254  11.960   1.517   3.923
61139SOL     OW85255   9.886   9.820  11.604
61139SOL    HW185256   9.797   9.786  11.613
61139SOL    HW285257   9.889   9.854  11.514
61140SOL     OW85258  10.710  11.818  11.904
61140SOL    HW185259  10.738  11.789  11.991
61140SOL    HW285260  10.741  11.909  11.898
61141SOL     OW85261   6.443   7.017   6.539
61141SOL    HW185262   6.403   6.962   6.471
61141SOL    HW285263   6.474   7.094   6.493
61142SOL     OW85264   9.361   2.769   3.686
61142SOL    HW185265   9.384   2.678   3.707
61142SOL    HW285266   9.305   2.762   3.609
61143SOL     OW85267  13.672  12.171   0.985
61143SOL    HW185268  13.704  12.260   0.973
61143SOL    HW285269  13.584  12.182   1.022
61144SOL     OW85270   9.541  10.064  13.202
61144SOL    HW185271   9.565  10.033  13.115
61144SOL    HW285272   9.620  10.049  13.255
61145SOL     OW85273  12.658  14.293  10.552
61145SOL    HW185274  12.577  14.246  10.573
61145SOL    HW285275  12.639  14.384  10.574
61146SOL     OW85276   9.757  14.243   5.217
61146SOL    HW185277   9.682  14.184   5.222
61146SOL    HW285278   9.784  14.257   5.308
61147SOL     OW85279  13.646  14.171   3.658
61147SOL    HW185280  13.687  14.223   3.589
61147SOL    HW285281  13.581  14.231   3.696
61148SOL     OW85282   7.844  11.349   4.497
61148SOL    HW185283   7.773  11.371   4.557
61148SOL    HW285284   7.891  11.432   4.485
61149SOL     OW85285   7.111   7.180   9.344
61149SOL    HW185286   7.154   7.197   9.261
61149SOL    HW285287   7.128   7.087   9.362
61150SOL     OW85288   3.709   1.556   0.602
61150SOL    HW185289   3.699   1.598   0.688
61150SOL    HW285290   3.690   1.626   0.539
61151SOL     OW85291   7.504   4.384   9.919
61151SOL    HW185292   7.456   4.301   9.924
61151SOL    HW285293   7.496   4.410   9.827
61152SOL     OW85294   9.833  13.572  12.225
61152SOL    HW185295   9.792  13.659  12.216
61152SOL    HW285296   9.788  13.518  12.161
61153SOL     OW85297   0.970   1.443   3.210
61153SOL    HW185298   0.969   1.353   3.177
61153SOL    HW285299   0.924   1.493   3.144
61154SOL     OW85300  11.338  12.439   2.720
61154SOL    HW185301  11.420  12.487   2.733
61154SOL    HW285302  11.274  12.507   2.699
61155SOL     OW85303   9.782  13.160  10.322
61155SOL    HW185304   9.688  13.167  10.304
61155SOL    HW285305   9.796  13.218  10.397
61156SOL     OW85306  14.751   8.526   4.264
61156SOL    HW185307  14.674   8.536   4.207
61156SOL    HW285308  14.770   8.433   4.263
61157SOL     OW85309  10.346   8.235   0.912
61157SOL    HW185310  10.252   8.215   0.904
61157SOL    HW285311  10.348   8.312   0.970
61158SOL     OW85312   0.650  13.774   9.779
61158SOL    HW185313   0.563  13.746   9.751
61158SOL    HW285314   0.642  13.785   9.874
61159SOL     OW85315  12.280   0.775  13.884
61159SOL    HW185316  12.373   0.758  13.900
61159SOL    HW285317  12.236   0.735  13.959
61160SOL     OW85318  10.788   7.215   2.162
61160SOL    HW185319  10.797   7.263   2.079
61160SOL    HW285320  10.797   7.281   2.230
61161SOL     OW85321  12.796  14.852  11.445
61161SOL    HW185322  12.814   0.027  11.365
61161SOL    HW285323  12.774   0.046  11.509
61162SOL     OW85324   5.657   8.945   3.955
61162SOL    HW185325   5.582   8.900   3.993
61162SOL    HW285326   5.649   9.036   3.986
61163SOL     OW85327   4.093   1.645  10.379
61163SOL    HW185328   4.148   1.708  10.427
61163SOL    HW285329   4.149   1.568  10.369
61164SOL     OW85330   2.011  13.286   1.221
61164SOL    HW185331   2.048  13.216   1.274
61164SOL    HW285332   1.975  13.348   1.285
61165SOL     OW85333  14.446   4.664   3.455
61165SOL    HW185334  14.397   4.747   3.460
61165SOL    HW285335  14.385   4.599   3.489
61166SOL     OW85336   4.490   3.667  12.537
61166SOL    HW185337   4.459   3.747  12.494
61166SOL    HW285338   4.536   3.698  12.615
61167SOL     OW85339   6.515  13.093   8.440
61167SOL    HW185340   6.515  13.107   8.534
61167SOL    HW285341   6.438  13.039   8.423
61168SOL     OW85342   0.575   3.118   2.303
61168SOL    HW185343   0.615   3.128   2.389
61168SOL    HW285344   0.649   3.109   2.243
61169SOL     OW85345   7.857  11.537  12.757
61169SOL    HW185346   7.781  11.494  12.719
61169SOL    HW285347   7.851  11.520  12.851
61170SOL     OW85348   8.241   2.538   5.681
61170SOL    HW185349   8.224   2.576   5.595
61170SOL    HW285350   8.160   2.554   5.730
61171SOL     OW85351   1.200  13.723  14.587
61171SOL    HW185352   1.186  13.642  14.637
61171SOL    HW285353   1.276  13.763  14.628
61172SOL     OW85354  10.792   4.860   7.481
61172SOL    HW185355  10.856   4.840   7.413
61172SOL    HW285356  10.788   4.780   7.534
61173SOL     OW85357   5.621   1.204   8.643
61173SOL    HW185358   5.696   1.263   8.652
61173SOL    HW285359   5.626   1.171   8.553
61174SOL     OW85360   1.983   5.424  11.421
61174SOL    HW185361   1.900   5.376  11.416
61174SOL    HW285362   2.024   5.412  11.335
61175SOL     OW85363   1.685  11.012   7.398
61175SOL    HW185364   1.655  11.039   7.485
61175SOL    HW285365   1.621  11.050   7.337
61176SOL     OW85366   8.725   9.808  14.022
61176SOL    HW185367   8.639   9.831  13.988
61176SOL    HW285368   8.740   9.868  14.095
61177SOL     OW85369   0.457   0.539   0.404
61177SOL    HW185370   0.500   0.458   0.377
61177SOL    HW285371   0.378   0.544   0.350
61178SOL     OW85372  10.142   4.514   5.777
61178SOL    HW185373  10.059   4.554   5.801
61178SOL    HW285374  10.207   4.583   5.791
61179SOL     OW85375   0.928  13.493   3.474
61179SOL    HW185376   0.888  13.414   3.509
61179SOL    HW285377   1.008  13.462   3.430
61180SOL     OW85378   7.191  14.229   4.803
61180SOL    HW185379   7.204  14.201   4.712
61180SOL    HW285380   7.265  14.288   4.820
61181SOL     OW85381   4.679   3.514   6.173
61181SOL    HW185382   4.615   3.502   6.103
61181SOL    HW285383   4.764   3.496   6.132
61182SOL     OW85384   4.440   1.303  11.125
61182SOL    HW185385   4.438   1.273  11.215
61182SOL    HW285386   4.425   1.224  11.073
61183SOL     OW85387   6.148   8.735  11.528
61183SOL    HW185388   6.052   8.742  11.525
61183SOL    HW285389   6.179   8.821  11.497
61184SOL     OW85390   7.099   4.364   9.965
61184SOL    HW185391   7.151   4.441   9.987
61184SOL    HW285392   7.010   4.387   9.992
61185SOL     OW85393  12.021   1.885   6.485
61185SOL    HW185394  12.079   1.814   6.512
61185SOL    HW285395  12.073   1.936   6.422
61186SOL     OW85396  14.841   4.544   7.455
61186SOL    HW185397  14.821   4.637   7.469
61186SOL    HW285398  14.860   4.510   7.542
61187SOL     OW85399   2.742   8.898   1.594
61187SOL    HW185400   2.719   8.817   1.640
61187SOL    HW285401   2.678   8.962   1.625
61188SOL     OW85402   9.920   6.488   6.024
61188SOL    HW185403   9.968   6.561   5.985
61188SOL    HW285404   9.856   6.530   6.082
61189SOL     OW85405   0.160  14.309   6.797
61189SOL    HW185406   0.202  14.386   6.835
61189SOL    HW285407   0.185  14.237   6.854
61190SOL     OW85408   2.603   0.234  12.314
61190SOL    HW185409   2.665   0.196  12.376
61190SOL    HW285410   2.520   0.235  12.361
61191SOL     OW85411  13.112   8.800  12.551
61191SOL    HW185412  13.043   8.766  12.610
61191SOL    HW285413  13.193   8.784  12.599
61192SOL     OW85414   3.392   6.304   1.258
61192SOL    HW185415   3.382   6.363   1.183
61192SOL    HW285416   3.368   6.357   1.334
61193SOL     OW85417   3.710   1.553   6.540
61193SOL    HW185418   3.756   1.470   6.555
61193SOL    HW285419   3.679   1.548   6.450
61194SOL     OW85420   9.419   0.873   2.498
61194SOL    HW185421   9.476   0.830   2.561
61194SOL    HW285422   9.476   0.935   2.452
61195SOL     OW85423   8.214  12.757   2.866
61195SOL    HW185424   8.275  12.820   2.828
61195SOL    HW285425   8.190  12.699   2.794
61196SOL     OW85426   7.365  13.662   8.134
61196SOL    HW185427   7.348  13.568   8.138
61196SOL    HW285428   7.296  13.701   8.189
61197SOL     OW85429   8.839   8.059  10.857
61197SOL    HW185430   8.840   7.964  10.867
61197SOL    HW285431   8.892   8.076  10.779
61198SOL     OW85432   3.142  10.823   8.517
61198SOL    HW185433   3.198  10.896   8.546
61198SOL    HW285434   3.063  10.832   8.570
61199SOL     OW85435  13.218  14.263   4.258
61199SOL    HW185436  13.261  14.190   4.302
61199SOL    HW285437  13.186  14.319   4.329
61200SOL     OW85438  13.899  11.699   6.684
61200SOL    HW185439  13.935  11.725   6.769
61200SOL    HW285440  13.950  11.623   6.657
61201SOL     OW85441   4.378   1.654   1.581
61201SOL    HW185442   4.363   1.729   1.523
61201SOL    HW285443   4.415   1.586   1.524
61202SOL     OW85444   2.817   6.854  11.180
61202SOL    HW185445   2.830   6.923  11.115
61202SOL    HW285446   2.894   6.859  11.236
61203SOL     OW85447  14.504   3.323   6.708
61203SOL    HW185448  14.431   3.361   6.659
61203SOL    HW285449  14.521   3.239   6.664
61204SOL     OW85450  12.348  10.461   2.251
61204SOL    HW185451  12.349  10.374   2.290
61204SOL    HW285452  12.415  10.458   2.182
61205SOL     OW85453   7.370   6.361  12.623
61205SOL    HW185454   7.405   6.340  12.537
61205SOL    HW285455   7.341   6.277  12.659
61206SOL     OW85456  13.156   6.665  10.214
61206SOL    HW185457  13.188   6.612  10.141
61206SOL    HW285458  13.072   6.700  10.183
61207SOL     OW85459   6.203   6.721   3.327
61207SOL    HW185460   6.263   6.700   3.398
61207SOL    HW285461   6.162   6.637   3.304
61208SOL     OW85462   8.118   7.786   5.651
61208SOL    HW185463   8.098   7.852   5.584
61208SOL    HW285464   8.209   7.802   5.675
61209SOL     OW85465  12.578  10.324   4.542
61209SOL    HW185466  12.667  10.289   4.535
61209SOL    HW285467  12.537  10.273   4.611
61210SOL     OW85468  12.291  13.627  10.106
61210SOL    HW185469  12.329  13.650  10.021
61210SOL    HW285470  12.298  13.532  10.111
61211SOL     OW85471   0.359  11.236  10.321
61211SOL    HW185472   0.425  11.277  10.377
61211SOL    HW285473   0.379  11.267  10.233
61212SOL     OW85474   7.387  10.177  11.946
61212SOL    HW185475   7.400  10.084  11.966
61212SOL    HW285476   7.304  10.180  11.899
61213SOL     OW85477   1.538   7.273   8.394
61213SOL    HW185478   1.629   7.286   8.422
61213SOL    HW285479   1.510   7.359   8.363
61214SOL     OW85480   1.091   7.003  13.188
61214SOL    HW185481   1.114   7.031  13.099
61214SOL    HW285482   1.040   6.922  13.175
61215SOL     OW85483  11.431  12.082  10.861
61215SOL    HW185484  11.425  12.027  10.938
61215SOL    HW285485  11.492  12.036  10.803
61216SOL     OW85486  12.863   2.496   1.091
61216SOL    HW185487  12.860   2.416   1.039
61216SOL    HW285488  12.787   2.491   1.148
61217SOL     OW85489   0.293   8.087   5.757
61217SOL    HW185490   0.248   8.117   5.836
61217SOL    HW285491   0.225   8.043   5.706
61218SOL     OW85492   3.024   0.869   0.269
61218SOL    HW185493   2.991   0.781   0.253
61218SOL    HW285494   3.007   0.917   0.188
61219SOL     OW85495  10.686   9.356  10.035
61219SOL    HW185496  10.688   9.343  10.130
61219SOL    HW285497  10.593   9.367  10.015
61220SOL     OW85498   0.437   6.834  13.419
61220SOL    HW185499   0.449   6.896  13.347
61220SOL    HW285500   0.343   6.819  13.422
61221SOL     OW85501  13.435   2.073   4.539
61221SOL    HW185502  13.510   2.095   4.594
61221SOL    HW285503  13.367   2.136   4.566
61222SOL     OW85504   8.041   3.002   6.390
61222SOL    HW185505   8.109   3.063   6.359
61222SOL    HW285506   8.090   2.931   6.431
61223SOL     OW85507  14.281  11.888  12.831
61223SOL    HW185508  14.373  11.910  12.845
61223SOL    HW285509  14.283  11.797  12.801
61224SOL     OW85510  13.700   7.044   8.947
61224SOL    HW185511  13.674   7.111   8.884
61224SOL    HW285512  13.754   7.090   9.011
61225SOL     OW85513   1.863   0.963  13.834
61225SOL    HW185514   1.902   1.046  13.858
61225SOL    HW285515   1.854   0.967  13.739
61226SOL     OW85516   0.555   2.880   6.176
61226SOL    HW185517   0.581   2.806   6.231
61226SOL    HW285518   0.468   2.903   6.206
61227SOL     OW85519   2.161   5.460   2.796
61227SOL    HW185520   2.213   5.539   2.787
61227SOL    HW285521   2.073   5.484   2.765
61228SOL     OW85522   8.666  10.183   7.272
61228SOL    HW185523   8.592  10.189   7.333
61228SOL    HW285524   8.707  10.099   7.291
61229SOL     OW85525   2.084   0.664   3.731
61229SOL    HW185526   2.103   0.593   3.792
61229SOL    HW285527   2.156   0.660   3.667
61230SOL     OW85528   5.105   4.840   9.416
61230SOL    HW185529   5.098   4.936   9.412
61230SOL    HW285530   5.127   4.815   9.326
61231SOL     OW85531  10.574   3.921   0.238
61231SOL    HW185532  10.604   3.973   0.312
61231SOL    HW285533  10.508   3.862   0.275
61232SOL     OW85534   3.843  13.647   2.745
61232SOL    HW185535   3.791  13.615   2.819
61232SOL    HW285536   3.864  13.738   2.768
61233SOL     OW85537   6.356   7.831   7.238
61233SOL    HW185538   6.392   7.748   7.208
61233SOL    HW285539   6.285   7.850   7.178
61234SOL     OW85540  11.053  14.086  11.212
61234SOL    HW185541  11.072  14.179  11.224
61234SOL    HW285542  11.136  14.048  11.183
61235SOL     OW85543   8.903   2.531   6.418
61235SOL    HW185544   8.995   2.504   6.416
61235SOL    HW285545   8.897   2.603   6.355
61236SOL     OW85546  10.707   3.890   3.730
61236SOL    HW185547  10.647   3.934   3.670
61236SOL    HW285548  10.789   3.939   3.723
61237SOL     OW85549   9.652   4.790   6.116
61237SOL    HW185550   9.636   4.854   6.046
61237SOL    HW285551   9.747   4.778   6.116
61238SOL     OW85552   7.390   6.804   0.867
61238SOL    HW185553   7.347   6.749   0.933
61238SOL    HW285554   7.455   6.746   0.828
61239SOL     OW85555  10.480   8.664   7.658
61239SOL    HW185556  10.435   8.699   7.582
61239SOL    HW285557  10.503   8.574   7.633
61240SOL     OW85558   1.283  10.846   1.920
61240SOL    HW185559   1.245  10.775   1.867
61240SOL    HW285560   1.216  10.864   1.986
61241SOL     OW85561  11.354   7.822   1.696
61241SOL    HW185562  11.374   7.899   1.751
61241SOL    HW285563  11.302   7.857   1.624
61242SOL     OW85564  10.196   6.484  11.506
61242SOL    HW185565  10.187   6.511  11.415
61242SOL    HW285566  10.221   6.564  11.552
61243SOL     OW85567   5.077   4.231   9.036
61243SOL    HW185568   5.083   4.310   9.091
61243SOL    HW285569   5.161   4.188   9.047
61244SOL     OW85570   4.516   9.114  12.858
61244SOL    HW185571   4.517   9.208  12.878
61244SOL    HW285572   4.575   9.075  12.922
61245SOL     OW85573  10.976  13.389   4.961
61245SOL    HW185574  11.005  13.400   5.052
61245SOL    HW285575  10.907  13.454   4.949
61246SOL     OW85576   3.914   1.418   1.074
61246SOL    HW185577   3.899   1.326   1.098
61246SOL    HW285578   3.864   1.468   1.139
61247SOL     OW85579   8.244   1.536  11.007
61247SOL    HW185580   8.264   1.442  11.008
61247SOL    HW285581   8.204   1.552  11.093
61248SOL     OW85582   9.388  13.906   5.232
61248SOL    HW185583   9.464  13.936   5.283
61248SOL    HW285584   9.426  13.852   5.162
61249SOL     OW85585   2.906   4.763  12.978
61249SOL    HW185586   2.994   4.732  13.002
61249SOL    HW285587   2.873   4.803  13.059
61250SOL     OW85588   3.013   8.613   5.814
61250SOL    HW185589   3.013   8.530   5.765
61250SOL    HW285590   3.077   8.601   5.883
61251SOL     OW85591   9.302   6.201   5.739
61251SOL    HW185592   9.215   6.195   5.778
61251SOL    HW285593   9.300   6.283   5.688
61252SOL     OW85594   7.714   0.122   9.500
61252SOL    HW185595   7.634   0.106   9.450
61252SOL    HW285596   7.767   0.043   9.485
61253SOL     OW85597   0.112  12.133   3.956
61253SOL    HW185598   0.117  12.207   3.895
61253SOL    HW285599   0.143  12.058   3.904
61254SOL     OW85600   3.110   3.496  12.635
61254SOL    HW185601   3.094   3.561  12.703
61254SOL    HW285602   3.201   3.510  12.608
61255SOL     OW85603   3.694   1.929   5.192
61255SOL    HW185604   3.618   1.912   5.249
61255SOL    HW285605   3.698   1.853   5.135
61256SOL     OW85606  13.874  13.245  13.599
61256SOL    HW185607  13.917  13.304  13.537
61256SOL    HW285608  13.783  13.240  13.569
61257SOL     OW85609  12.193  10.925  13.330
61257SOL    HW185610  12.217  10.919  13.422
61257SOL    HW285611  12.269  10.889  13.284
61258SOL     OW85612  13.096   3.689  14.452
61258SOL    HW185613  13.061   3.748  14.385
61258SOL    HW285614  13.181   3.726  14.474
61259SOL     OW85615   9.069   9.519  12.937
61259SOL    HW185616   9.073   9.481  13.024
61259SOL    HW285617   9.076   9.444  12.877
61260SOL     OW85618  11.573   0.144   1.453
61260SOL    HW185619  11.633   0.154   1.526
61260SOL    HW285620  11.622   0.093   1.388
61261SOL     OW85621   7.788  12.804   6.637
61261SOL    HW185622   7.849  12.844   6.699
61261SOL    HW285623   7.703  12.807   6.681
61262SOL     OW85624   0.643   0.611  12.997
61262SOL    HW185625   0.590   0.647  12.925
61262SOL    HW285626   0.579   0.590  13.065
61263SOL     OW85627  10.559   1.993  12.403
61263SOL    HW185628  10.537   2.073  12.452
61263SOL    HW285629  10.655   1.993  12.400
61264SOL     OW85630  10.064   1.985   0.307
61264SOL    HW185631  10.057   1.908   0.363
61264SOL    HW285632   9.975   2.001   0.276
61265SOL     OW85633   3.567   4.062   4.954
61265SOL    HW185634   3.588   4.066   5.047
61265SOL    HW285635   3.500   4.129   4.942
61266SOL     OW85636   4.293   6.378   2.726
61266SOL    HW185637   4.283   6.418   2.640
61266SOL    HW285638   4.376   6.331   2.722
61267SOL     OW85639  14.088   5.779   3.814
61267SOL    HW185640  14.102   5.794   3.908
61267SOL    HW285641  14.140   5.846   3.771
61268SOL     OW85642  10.918   1.705   6.829
61268SOL    HW185643  11.010   1.679   6.823
61268SOL    HW285644  10.885   1.657   6.906
61269SOL     OW85645   1.727  14.788   4.594
61269SOL    HW185646   1.643  14.821   4.624
61269SOL    HW285647   1.721  14.693   4.602
61270SOL     OW85648   6.878  10.272  12.242
61270SOL    HW185649   6.958  10.268  12.189
61270SOL    HW285650   6.872  10.363  12.270
61271SOL     OW85651   5.920   0.614   6.869
61271SOL    HW185652   5.833   0.648   6.850
61271SOL    HW285653   5.922   0.602   6.964
61272SOL     OW85654  11.170   8.920   8.105
61272SOL    HW185655  11.169   8.889   8.014
61272SOL    HW285656  11.232   8.993   8.105
61273SOL     OW85657   0.155   5.581   6.425
61273SOL    HW185658   0.196   5.667   6.426
61273SOL    HW285659   0.101   5.580   6.504
61274SOL     OW85660  12.090  14.286   6.164
61274SOL    HW185661  11.995  14.277   6.166
61274SOL    HW285662  12.114  14.312   6.253
61275SOL     OW85663   2.793  11.256   8.540
61275SOL    HW185664   2.748  11.234   8.459
61275SOL    HW285665   2.723  11.277   8.602
61276SOL     OW85666   8.276   0.290   4.349
61276SOL    HW185667   8.223   0.360   4.311
61276SOL    HW285668   8.264   0.299   4.444
61277SOL     OW85669  10.034  10.735   8.268
61277SOL    HW185670  10.065  10.647   8.251
61277SOL    HW285671  10.113  10.789   8.265
61278SOL     OW85672   1.950  14.632   2.558
61278SOL    HW185673   1.934  14.721   2.589
61278SOL    HW285674   1.891  14.621   2.484
61279SOL     OW85675   3.078  10.773   5.511
61279SOL    HW185676   3.071  10.867   5.528
61279SOL    HW285677   2.997  10.736   5.547
61280SOL     OW85678   5.265  12.596   4.605
61280SOL    HW185679   5.272  12.673   4.548
61280SOL    HW285680   5.324  12.615   4.678
61281SOL     OW85681   9.244  12.125   6.545
61281SOL    HW185682   9.311  12.065   6.575
61281SOL    HW285683   9.292  12.205   6.523
61282SOL     OW85684   7.122   6.505  13.900
61282SOL    HW185685   7.033   6.475  13.916
61282SOL    HW285686   7.177   6.429  13.918
61283SOL     OW85687  11.092   1.229  12.924
61283SOL    HW185688  11.160   1.285  12.885
61283SOL    HW285689  11.013   1.283  12.923
61284SOL     OW85690   1.650   1.018  13.330
61284SOL    HW185691   1.746   1.014  13.330
61284SOL    HW285692   1.629   1.097  13.380
61285SOL     OW85693   2.030   5.035  14.585
61285SOL    HW185694   2.032   4.972  14.658
61285SOL    HW285695   2.114   5.080  14.591
61286SOL     OW85696   1.834  10.273   3.252
61286SOL    HW185697   1.864  10.270   3.161
61286SOL    HW285698   1.810  10.183   3.273
61287SOL     OW85699   4.550   8.207   5.241
61287SOL    HW185700   4.521   8.274   5.302
61287SOL    HW285701   4.641   8.231   5.221
61288SOL     OW85702   3.363   9.205   9.910
61288SOL    HW185703   3.275   9.178   9.934
61288SOL    HW285704   3.363   9.207   9.814
61289SOL     OW85705   8.623   3.727  13.352
61289SOL    HW185706   8.538   3.692  13.326
61289SOL    HW285707   8.622   3.724  13.448
61290SOL     OW85708   4.066  14.162  13.062
61290SOL    HW185709   4.066  14.224  12.989
61290SOL    HW285710   4.020  14.207  13.133
61291SOL     OW85711  11.854  12.797   9.479
61291SOL    HW185712  11.894  12.795   9.566
61291SOL    HW285713  11.771  12.751   9.489
61292SOL     OW85714   3.952   2.349   5.985
61292SOL    HW185715   3.926   2.259   6.005
61292SOL    HW285716   4.030   2.364   6.039
61293SOL     OW85717   0.350   8.107   3.863
61293SOL    HW185718   0.346   8.174   3.794
61293SOL    HW285719   0.296   8.143   3.933
61294SOL     OW85720  13.270  14.225   4.974
61294SOL    HW185721  13.330  14.271   5.032
61294SOL    HW285722  13.297  14.133   4.979
61295SOL     OW85723   3.891  12.564   3.591
61295SOL    HW185724   3.822  12.497   3.589
61295SOL    HW285725   3.933  12.558   3.505
61296SOL     OW85726  13.232   0.189   6.309
61296SOL    HW185727  13.177   0.246   6.363
61296SOL    HW285728  13.320   0.197   6.347
61297SOL     OW85729  12.949  14.732   7.301
61297SOL    HW185730  13.030  14.702   7.341
61297SOL    HW285731  12.885  14.663   7.323
61298SOL     OW85732   4.115   9.529   4.831
61298SOL    HW185733   4.142   9.438   4.820
61298SOL    HW285734   4.197   9.578   4.836
61299SOL     OW85735   6.518   7.824   1.490
61299SOL    HW185736   6.533   7.866   1.405
61299SOL    HW285737   6.545   7.889   1.554
61300SOL     OW85738   0.387   2.505   5.643
61300SOL    HW185739   0.458   2.519   5.706
61300SOL    HW285740   0.347   2.592   5.633
61301SOL     OW85741   5.712   2.300   3.924
61301SOL    HW185742   5.699   2.392   3.948
61301SOL    HW285743   5.725   2.256   4.008
61302SOL     OW85744   4.862   5.360   2.419
61302SOL    HW185745   4.872   5.267   2.439
61302SOL    HW285746   4.770   5.379   2.436
61303SOL     OW85747   5.277  14.696   4.484
61303SOL    HW185748   5.283  14.726   4.393
61303SOL    HW285749   5.267  14.601   4.477
61304SOL     OW85750  10.255   4.927   4.670
61304SOL    HW185751  10.258   4.977   4.588
61304SOL    HW285752  10.323   4.861   4.659
61305SOL     OW85753   3.036  10.197   9.173
61305SOL    HW185754   2.949  10.219   9.207
61305SOL    HW285755   3.043  10.102   9.184
61306SOL     OW85756  10.300   6.516   0.585
61306SOL    HW185757  10.290   6.485   0.495
61306SOL    HW285758  10.394   6.530   0.595
61307SOL     OW85759   2.806   7.653   4.229
61307SOL    HW185760   2.792   7.658   4.135
61307SOL    HW285761   2.742   7.715   4.266
61308SOL     OW85762   1.906  11.598   5.952
61308SOL    HW185763   1.915  11.547   5.872
61308SOL    HW285764   1.992  11.593   5.993
61309SOL     OW85765   6.828  13.701   6.506
61309SOL    HW185766   6.827  13.625   6.449
61309SOL    HW285767   6.803  13.774   6.449
61310SOL     OW85768   4.787   0.599   3.444
61310SOL    HW185769   4.701   0.585   3.407
61310SOL    HW285770   4.783   0.558   3.531
61311SOL     OW85771   2.677   5.571  13.421
61311SOL    HW185772   2.694   5.478  13.436
61311SOL    HW285773   2.738   5.616  13.480
61312SOL     OW85774   9.444   5.414   6.466
61312SOL    HW185775   9.498   5.446   6.539
61312SOL    HW285776   9.441   5.319   6.478
61313SOL     OW85777   3.668  13.814   2.074
61313SOL    HW185778   3.702  13.748   2.135
61313SOL    HW285779   3.696  13.898   2.112
61314SOL     OW85780   4.436  12.732   0.785
61314SOL    HW185781   4.434  12.786   0.864
61314SOL    HW285782   4.349  12.692   0.781
61315SOL     OW85783   2.760   5.328   0.899
61315SOL    HW185784   2.819   5.399   0.926
61315SOL    HW285785   2.705   5.367   0.832
61316SOL     OW85786  14.578   5.303   8.017
61316SOL    HW185787  14.514   5.372   7.996
61316SOL    HW285788  14.551   5.272   8.104
61317SOL     OW85789   1.039   9.624   9.947
61317SOL    HW185790   1.037   9.641  10.041
61317SOL    HW285791   1.018   9.708   9.907
61318SOL     OW85792  14.854  12.821   4.299
61318SOL    HW185793  14.772  12.780   4.326
61318SOL    HW285794  14.873  12.782   4.213
61319SOL     OW85795   4.639  12.281   8.331
61319SOL    HW185796   4.587  12.286   8.251
61319SOL    HW285797   4.694  12.203   8.319
61320SOL     OW85798   6.169   2.270  12.092
61320SOL    HW185799   6.220   2.267  12.173
61320SOL    HW285800   6.102   2.203  12.103
61321SOL     OW85801   0.977   5.177   2.202
61321SOL    HW185802   0.959   5.192   2.109
61321SOL    HW285803   1.067   5.145   2.204
61322SOL     OW85804   8.397   0.372  11.906
61322SOL    HW185805   8.365   0.286  11.879
61322SOL    HW285806   8.318   0.419  11.936
61323SOL     OW85807  12.691   1.222   5.041
61323SOL    HW185808  12.676   1.145   5.095
61323SOL    HW285809  12.603   1.251   5.017
61324SOL     OW85810  10.077   7.619   1.042
61324SOL    HW185811  10.164   7.583   1.057
61324SOL    HW285812  10.023   7.582   1.112
61325SOL     OW85813   1.623   9.737  12.252
61325SOL    HW185814   1.717   9.720  12.261
61325SOL    HW285815   1.616   9.833  12.259
61326SOL     OW85816  13.674  12.191  13.833
61326SOL    HW185817  13.692  12.278  13.869
61326SOL    HW285818  13.704  12.196  13.742
61327SOL     OW85819  13.229   9.635  11.014
61327SOL    HW185820  13.177   9.562  11.047
61327SOL    HW285821  13.215   9.706  11.078
61328SOL     OW85822   0.723  13.124   7.286
61328SOL    HW185823   0.793  13.143   7.348
61328SOL    HW285824   0.643  13.148   7.333
61329SOL     OW85825   1.231   7.857  13.039
61329SOL    HW185826   1.293   7.853  13.111
61329SOL    HW285827   1.169   7.925  13.064
61330SOL     OW85828   5.139   4.941   0.595
61330SOL    HW185829   5.107   4.856   0.563
61330SOL    HW285830   5.166   4.923   0.685
61331SOL     OW85831   1.009  10.754  13.979
61331SOL    HW185832   0.972  10.668  13.961
61331SOL    HW285833   0.937  10.815  13.964
61332SOL     OW85834   3.284   2.630   4.949
61332SOL    HW185835   3.330   2.566   4.894
61332SOL    HW285836   3.256   2.699   4.889
61333SOL     OW85837   1.692   0.460   1.065
61333SOL    HW185838   1.695   0.365   1.076
61333SOL    HW285839   1.615   0.475   1.009
61334SOL     OW85840   2.276   5.361   0.046
61334SOL    HW185841   2.285   5.440   0.100
61334SOL    HW285842   2.339   5.374  14.848
61335SOL     OW85843   3.882   7.733  12.813
61335SOL    HW185844   3.882   7.780  12.897
61335SOL    HW285845   3.946   7.781  12.759
61336SOL     OW85846   7.393   1.961   9.473
61336SOL    HW185847   7.390   1.918   9.387
61336SOL    HW285848   7.302   1.986   9.490
61337SOL     OW85849   0.500  13.909   4.399
61337SOL    HW185850   0.458  13.924   4.314
61337SOL    HW285851   0.573  13.850   4.379
61338SOL     OW85852  10.970   6.472  14.496
61338SOL    HW185853  11.048   6.472  14.441
61338SOL    HW285854  10.914   6.405  14.458
61339SOL     OW85855   9.588   2.841   4.660
61339SOL    HW185856   9.616   2.849   4.569
61339SOL    HW285857   9.638   2.909   4.707
61340SOL     OW85858   2.403  10.270  13.211
61340SOL    HW185859   2.330  10.275  13.149
61340SOL    HW285860   2.415  10.176  13.226
61341SOL     OW85861   9.218   0.934   3.522
61341SOL    HW185862   9.177   0.986   3.453
61341SOL    HW285863   9.148   0.922   3.587
61342SOL     OW85864   3.138   3.435  12.301
61342SOL    HW185865   3.062   3.454  12.247
61342SOL    HW285866   3.181   3.361  12.258
61343SOL     OW85867  12.107   5.268  10.006
61343SOL    HW185868  12.090   5.183  10.047
61343SOL    HW285869  12.093   5.253   9.912
61344SOL     OW85870   0.453   7.754   3.709
61344SOL    HW185871   0.412   7.811   3.644
61344SOL    HW285872   0.547   7.761   3.691
61345SOL     OW85873  11.043   4.780   7.983
61345SOL    HW185874  10.964   4.824   8.014
61345SOL    HW285875  11.101   4.779   8.060
61346SOL     OW85876  11.324   6.464  12.182
61346SOL    HW185877  11.333   6.481  12.276
61346SOL    HW285878  11.411   6.437  12.154
61347SOL     OW85879   3.974  10.319   4.297
61347SOL    HW185880   3.940  10.381   4.362
61347SOL    HW285881   3.924  10.338   4.218
61348SOL     OW85882   6.233   4.943   6.126
61348SOL    HW185883   6.300   4.948   6.194
61348SOL    HW285884   6.192   4.858   6.138
61349SOL     OW85885   8.039   6.390   9.819
61349SOL    HW185886   8.109   6.355   9.764
61349SOL    HW285887   7.994   6.453   9.764
61350SOL     OW85888  11.404   9.178  13.886
61350SOL    HW185889  11.456   9.257  13.899
61350SOL    HW285890  11.345   9.174  13.961
61351SOL     OW85891   6.144   1.206   1.586
61351SOL    HW185892   6.068   1.251   1.550
61351SOL    HW285893   6.118   1.185   1.676
61352SOL     OW85894   7.940   1.978   6.265
61352SOL    HW185895   7.995   1.961   6.189
61352SOL    HW285896   7.899   1.894   6.285
61353SOL     OW85897  12.741   0.303   9.949
61353SOL    HW185898  12.796   0.382   9.956
61353SOL    HW285899  12.683   0.322   9.876
61354SOL     OW85900   8.292   6.297  10.517
61354SOL    HW185901   8.315   6.390  10.520
61354SOL    HW285902   8.205   6.295  10.477
61355SOL     OW85903   5.853   7.673   0.034
61355SOL    HW185904   5.788   7.647  14.842
61355SOL    HW285905   5.810   7.743   0.083
61356SOL     OW85906   2.918   9.782   6.844
61356SOL    HW185907   2.907   9.812   6.753
61356SOL    HW285908   3.010   9.756   6.849
61357SOL     OW85909  10.127  14.737  13.925
61357SOL    HW185910  10.188  14.768  13.858
61357SOL    HW285911  10.096  14.653  13.892
61358SOL     OW85912   3.568  10.026  13.829
61358SOL    HW185913   3.577  10.039  13.735
61358SOL    HW285914   3.521   9.943  13.837
61359SOL     OW85915  11.085   4.804   6.495
61359SOL    HW185916  11.008   4.773   6.446
61359SOL    HW285917  11.157   4.751   6.461
61360SOL     OW85918  11.911  10.770  10.314
61360SOL    HW185919  11.906  10.836  10.245
61360SOL    HW285920  11.837  10.790  10.372
61361SOL     OW85921  11.103   6.019   9.416
61361SOL    HW185922  11.087   6.048   9.326
61361SOL    HW285923  11.080   5.926   9.415
61362SOL     OW85924   2.873   1.094   8.448
61362SOL    HW185925   2.796   1.040   8.430
61362SOL    HW285926   2.853   1.137   8.531
61363SOL     OW85927  14.434  14.642  12.714
61363SOL    HW185928  14.396  14.621  12.629
61363SOL    HW285929  14.487  14.720  12.698
61364SOL     OW85930  14.807  11.919   1.123
61364SOL    HW185931   0.018  11.908   1.078
61364SOL    HW285932  14.765  11.992   1.078
61365SOL     OW85933  13.059  14.850   4.986
61365SOL    HW185934  12.995  14.807   5.042
61365SOL    HW285935  13.013  14.865   4.903
61366SOL     OW85936   2.677   9.566   0.170
61366SOL    HW185937   2.587   9.593   0.185
61366SOL    HW285938   2.674   9.471   0.163
61367SOL     OW85939   3.775  11.892   7.995
61367SOL    HW185940   3.807  11.845   7.918
61367SOL    HW285941   3.736  11.972   7.960
61368SOL     OW85942   7.888  10.340  13.833
61368SOL    HW185943   7.884  10.245  13.816
61368SOL    HW285944   7.928  10.347  13.919
61369SOL     OW85945   1.619  11.399   1.436
61369SOL    HW185946   1.652  11.310   1.448
61369SOL    HW285947   1.694  11.455   1.456
61370SOL     OW85948   2.361   0.882  13.932
61370SOL    HW185949   2.373   0.795  13.969
61370SOL    HW285950   2.345   0.866  13.839
61371SOL     OW85951   0.224   0.245  13.011
61371SOL    HW185952   0.265   0.320  12.967
61371SOL    HW285953   0.153   0.284  13.061
61372SOL     OW85954  13.067  12.666   2.711
61372SOL    HW185955  13.031  12.740   2.663
61372SOL    HW285956  13.118  12.618   2.646
61373SOL     OW85957  13.609   6.083   7.662
61373SOL    HW185958  13.537   6.066   7.602
61373SOL    HW285959  13.648   5.997   7.679
61374SOL     OW85960  11.698   0.421   0.384
61374SOL    HW185961  11.617   0.470   0.370
61374SOL    HW285962  11.726   0.395   0.296
61375SOL     OW85963   1.341  11.998   6.541
61375SOL    HW185964   1.409  12.012   6.475
61375SOL    HW285965   1.341  11.903   6.555
61376SOL     OW85966   8.627   9.404   2.619
61376SOL    HW185967   8.576   9.325   2.641
61376SOL    HW285968   8.695   9.373   2.561
61377SOL     OW85969  13.406  14.437   3.125
61377SOL    HW185970  13.375  14.400   3.042
61377SOL    HW285971  13.368  14.525   3.127
61378SOL     OW85972  13.441  11.541   9.325
61378SOL    HW185973  13.533  11.518   9.314
61378SOL    HW285974  13.442  11.619   9.381
61379SOL     OW85975   6.221   2.416   1.246
61379SOL    HW185976   6.278   2.365   1.189
61379SOL    HW285977   6.166   2.468   1.186
61380SOL     OW85978   7.014   9.268   9.155
61380SOL    HW185979   7.028   9.183   9.197
61380SOL    HW285980   7.030   9.252   9.062
61381SOL     OW85981   6.312   9.293   9.716
61381SOL    HW185982   6.240   9.238   9.687
61381SOL    HW285983   6.391   9.247   9.688
61382SOL     OW85984   4.340  14.793  13.879
61382SOL    HW185985   4.405  14.763  13.815
61382SOL    HW285986   4.266  14.732  13.868
61383SOL     OW85987  14.804  13.905   2.067
61383SOL    HW185988  14.740  13.836   2.086
61383SOL    HW285989  14.755  13.986   2.073
61384SOL     OW85990   3.563   7.243  11.507
61384SOL    HW185991   3.628   7.314  11.499
61384SOL    HW285992   3.483   7.287  11.536
61385SOL     OW85993   8.980  13.951   2.398
61385SOL    HW185994   8.918  13.976   2.466
61385SOL    HW285995   8.992  13.856   2.411
61386SOL     OW85996   2.947  13.879   8.554
61386SOL    HW185997   2.970  13.819   8.484
61386SOL    HW285998   3.030  13.920   8.579
61387SOL     OW85999   1.904  10.112  14.503
61387SOL    HW186000   1.879  10.021  14.519
61387SOL    HW286001   1.913  10.118  14.407
61388SOL     OW86002  14.015  10.571   4.196
61388SOL    HW186003  13.922  10.594   4.197
61388SOL    HW286004  14.057  10.642   4.148
61389SOL     OW86005   7.578   1.757   8.641
61389SOL    HW186006   7.636   1.714   8.704
61389SOL    HW286007   7.556   1.841   8.682
61390SOL     OW86008   7.982   4.632  14.319
61390SOL    HW186009   7.925   4.656  14.246
61390SOL    HW286010   7.959   4.693  14.389
61391SOL     OW86011   7.091   1.412  14.788
61391SOL    HW186012   7.056   1.366  14.865
61391SOL    HW286013   7.140   1.486  14.825
61392SOL     OW86014   0.538  12.147   0.858
61392SOL    HW186015   0.585  12.101   0.928
61392SOL    HW286016   0.490  12.079   0.812
61393SOL     OW86017   1.598   6.051   5.086
61393SOL    HW186018   1.620   6.144   5.100
61393SOL    HW286019   1.682   6.007   5.080
61394SOL     OW86020   0.037   2.923   9.763
61394SOL    HW186021   0.111   2.971   9.726
61394SOL    HW286022   0.071   2.883   9.843
61395SOL     OW86023   4.120   1.784   6.792
61395SOL    HW186024   4.118   1.694   6.824
61395SOL    HW286025   4.040   1.792   6.739
61396SOL     OW86026  13.627   8.042   0.300
61396SOL    HW186027  13.663   8.130   0.290
61396SOL    HW286028  13.610   8.033   0.394
61397SOL     OW86029  10.296  10.541   7.369
61397SOL    HW186030  10.362  10.599   7.408
61397SOL    HW286031  10.345  10.461   7.348
61398SOL     OW86032  14.815  12.191   5.797
61398SOL    HW186033  14.760  12.143   5.736
61398SOL    HW286034  14.784  12.163   5.884
61399SOL     OW86035   7.449   6.324   0.252
61399SOL    HW186036   7.462   6.359   0.341
61399SOL    HW286037   7.535   6.332   0.210
61400SOL     OW86038  11.708  10.574   8.600
61400SOL    HW186039  11.689  10.486   8.634
61400SOL    HW286040  11.780  10.605   8.655
61401SOL     OW86041  10.281  12.918  11.664
61401SOL    HW186042  10.332  12.993  11.634
61401SOL    HW286043  10.345  12.862  11.708
61402SOL     OW86044  13.824  11.146  12.634
61402SOL    HW186045  13.768  11.106  12.701
61402SOL    HW286046  13.839  11.076  12.570
61403SOL     OW86047   1.681   4.239   7.945
61403SOL    HW186048   1.636   4.246   7.860
61403SOL    HW286049   1.738   4.162   7.935
61404SOL     OW86050   6.958  13.364  13.828
61404SOL    HW186051   6.865  13.363  13.853
61404SOL    HW286052   6.995  13.438  13.876
61405SOL     OW86053   9.187   1.913   7.941
61405SOL    HW186054   9.232   1.953   7.866
61405SOL    HW286055   9.095   1.909   7.914
61406SOL     OW86056   2.006   1.403   8.388
61406SOL    HW186057   2.089   1.449   8.402
61406SOL    HW286058   1.940   1.473   8.390
61407SOL     OW86059  12.672   7.803  13.382
61407SOL    HW186060  12.599   7.760  13.337
61407SOL    HW286061  12.687   7.883  13.331
61408SOL     OW86062   9.336   2.770   5.195
61408SOL    HW186063   9.403   2.790   5.261
61408SOL    HW286064   9.378   2.791   5.111
61409SOL     OW86065  12.099  14.837  13.101
61409SOL    HW186066  12.137  14.780  13.033
61409SOL    HW286067  12.160  14.832  13.174
61410SOL     OW86068  12.019   3.986   5.877
61410SOL    HW186069  12.087   3.922   5.857
61410SOL    HW286070  12.055   4.039   5.947
61411SOL     OW86071   8.722   8.849  11.811
61411SOL    HW186072   8.657   8.785  11.840
61411SOL    HW286073   8.777   8.863  11.888
61412SOL     OW86074   9.546   4.826   3.741
61412SOL    HW186075   9.461   4.793   3.711
61412SOL    HW286076   9.551   4.915   3.706
61413SOL     OW86077   4.729   9.301   3.438
61413SOL    HW186078   4.817   9.325   3.410
61413SOL    HW286079   4.736   9.208   3.463
61414SOL     OW86080  13.313  10.469   7.329
61414SOL    HW186081  13.267  10.386   7.337
61414SOL    HW286082  13.332  10.495   7.420
61415SOL     OW86083   5.690   5.551   1.647
61415SOL    HW186084   5.780   5.583   1.637
61415SOL    HW286085   5.697   5.456   1.639
61416SOL     OW86086   6.916   3.987  14.706
61416SOL    HW186087   6.951   4.026  14.785
61416SOL    HW286088   6.886   4.062  14.653
61417SOL     OW86089  10.392   2.422   0.307
61417SOL    HW186090  10.453   2.408   0.380
61417SOL    HW286091  10.347   2.338   0.296
61418SOL     OW86092  14.507   9.000  14.009
61418SOL    HW186093  14.581   9.040  13.964
61418SOL    HW286094  14.527   9.008  14.102
61419SOL     OW86095   1.624   2.709  14.189
61419SOL    HW186096   1.660   2.796  14.206
61419SOL    HW286097   1.695   2.662  14.144
61420SOL     OW86098   4.199   0.894   7.933
61420SOL    HW186099   4.180   0.833   8.004
61420SOL    HW286100   4.159   0.855   7.856
61421SOL     OW86101   0.232   9.282  12.933
61421SOL    HW186102   0.298   9.351  12.918
61421SOL    HW286103   0.151   9.330  12.949
61422SOL     OW86104   9.938   2.907   1.025
61422SOL    HW186105   9.899   2.853   1.094
61422SOL    HW286106   9.863   2.951   0.985
61423SOL     OW86107   8.796   1.416  10.482
61423SOL    HW186108   8.882   1.373  10.477
61423SOL    HW286109   8.776   1.441  10.392
61424SOL     OW86110   8.682   4.240   5.499
61424SOL    HW186111   8.707   4.311   5.441
61424SOL    HW286112   8.650   4.171   5.440
61425SOL     OW86113  14.396  11.482  14.322
61425SOL    HW186114  14.463  11.536  14.280
61425SOL    HW286115  14.315  11.505  14.277
61426SOL     OW86116   5.521  10.398   0.228
61426SOL    HW186117   5.452  10.462   0.210
61426SOL    HW286118   5.601  10.438   0.193
61427SOL     OW86119  10.426  12.222   4.457
61427SOL    HW186120  10.375  12.197   4.380
61427SOL    HW286121  10.467  12.306   4.433
61428SOL     OW86122   1.584   4.598   0.922
61428SOL    HW186123   1.585   4.600   0.826
61428SOL    HW286124   1.514   4.536   0.944
61429SOL     OW86125  12.359   2.465   8.123
61429SOL    HW186126  12.432   2.403   8.124
61429SOL    HW286127  12.292   2.423   8.070
61430SOL     OW86128   0.661  13.954   5.596
61430SOL    HW186129   0.647  13.896   5.521
61430SOL    HW286130   0.594  13.928   5.659
61431SOL     OW86131   1.287   3.136   1.860
61431SOL    HW186132   1.193   3.156   1.864
61431SOL    HW286133   1.308   3.134   1.767
61432SOL     OW86134   2.524  12.072   9.551
61432SOL    HW186135   2.476  11.995   9.522
61432SOL    HW286136   2.462  12.119   9.607
61433SOL     OW86137   9.731  12.709  11.135
61433SOL    HW186138   9.683  12.767  11.076
61433SOL    HW286139   9.680  12.628  11.135
61434SOL     OW86140   7.137   6.674   7.648
61434SOL    HW186141   7.076   6.716   7.588
61434SOL    HW286142   7.089   6.599   7.683
61435SOL     OW86143   6.443   9.910   8.161
61435SOL    HW186144   6.395   9.980   8.205
61435SOL    HW286145   6.380   9.838   8.155
61436SOL     OW86146  13.909   4.382  12.087
61436SOL    HW186147  13.854   4.414  12.015
61436SOL    HW286148  13.857   4.398  12.166
61437SOL     OW86149   2.303   9.908  10.677
61437SOL    HW186150   2.364   9.940  10.612
61437SOL    HW286151   2.330   9.818  10.694
61438SOL     OW86152  12.855   8.991   6.057
61438SOL    HW186153  12.801   9.064   6.027
61438SOL    HW286154  12.817   8.967   6.142
61439SOL     OW86155   4.989   0.326   4.324
61439SOL    HW186156   4.952   0.256   4.270
61439SOL    HW286157   4.914   0.367   4.366
61440SOL     OW86158   3.000   1.484   3.397
61440SOL    HW186159   2.929   1.438   3.353
61440SOL    HW286160   3.079   1.439   3.368
61441SOL     OW86161   6.874   3.384  14.573
61441SOL    HW186162   6.946   3.446  14.561
61441SOL    HW286163   6.801   3.437  14.605
61442SOL     OW86164   0.429   0.778  12.873
61442SOL    HW186165   0.425   0.844  12.803
61442SOL    HW286166   0.342   0.738  12.872
61443SOL     OW86167   3.799  11.835   3.043
61443SOL    HW186168   3.778  11.897   2.973
61443SOL    HW286169   3.725  11.775   3.046
61444SOL     OW86170   2.725   0.709   2.754
61444SOL    HW186171   2.672   0.761   2.694
61444SOL    HW286172   2.741   0.627   2.706
61445SOL     OW86173   2.602  13.241   6.891
61445SOL    HW186174   2.552  13.220   6.970
61445SOL    HW286175   2.567  13.326   6.863
61446SOL     OW86176   6.420  10.818  12.955
61446SOL    HW186177   6.477  10.782  12.888
61446SOL    HW286178   6.356  10.749  12.973
61447SOL     OW86179   6.801   1.029   1.571
61447SOL    HW186180   6.765   1.001   1.655
61447SOL    HW286181   6.800   1.125   1.576
61448SOL     OW86182   8.687   2.184  12.196
61448SOL    HW186183   8.617   2.136  12.152
61448SOL    HW286184   8.645   2.226  12.271
61449SOL     OW86185  11.663  12.652  10.441
61449SOL    HW186186  11.573  12.640  10.471
61449SOL    HW286187  11.655  12.678  10.349
61450SOL     OW86188   1.798   4.377   1.713
61450SOL    HW186189   1.742   4.391   1.636
61450SOL    HW286190   1.886   4.367   1.677
61451SOL     OW86191  14.364   5.411  10.154
61451SOL    HW186192  14.274   5.433  10.127
61451SOL    HW286193  14.365   5.425  10.248
61452SOL     OW86194  10.795   0.130  13.818
61452SOL    HW186195  10.780   0.052  13.870
61452SOL    HW286196  10.709   0.154  13.785
61453SOL     OW86197   5.991  11.732   8.833
61453SOL    HW186198   6.057  11.663   8.836
61453SOL    HW286199   5.907  11.685   8.835
61454SOL     OW86200   3.503   6.182  12.245
61454SOL    HW186201   3.417   6.223  12.252
61454SOL    HW286202   3.551   6.236  12.183
61455SOL     OW86203   0.629   5.720  12.932
61455SOL    HW186204   0.658   5.650  12.991
61455SOL    HW286205   0.538   5.736  12.957
61456SOL     OW86206  14.470   2.303   8.426
61456SOL    HW186207  14.497   2.252   8.503
61456SOL    HW286208  14.508   2.389   8.441
61457SOL     OW86209   0.055  14.496   9.448
61457SOL    HW186210   0.061  14.574   9.504
61457SOL    HW286211   0.109  14.518   9.371
61458SOL     OW86212   5.778   4.563   5.370
61458SOL    HW186213   5.707   4.621   5.396
61458SOL    HW286214   5.839   4.619   5.322
61459SOL     OW86215   6.231   1.650  12.269
61459SOL    HW186216   6.253   1.649  12.176
61459SOL    HW286217   6.168   1.579  12.280
61460SOL     OW86218   5.641  12.092   0.051
61460SOL    HW186219   5.729  12.129   0.041
61460SOL    HW286220   5.634  12.074   0.145
61461SOL     OW86221   4.537  12.257   7.082
61461SOL    HW186222   4.524  12.225   7.172
61461SOL    HW286223   4.450  12.253   7.042
61462SOL     OW86224  10.889  12.086  11.336
61462SOL    HW186225  10.841  12.095  11.253
61462SOL    HW286226  10.978  12.117  11.315
61463SOL     OW86227   1.910   6.483   2.964
61463SOL    HW186228   1.823   6.472   3.002
61463SOL    HW286229   1.934   6.574   2.984
61464SOL     OW86230   4.573   1.091  13.780
61464SOL    HW186231   4.608   1.028  13.717
61464SOL    HW286232   4.581   1.048  13.865
61465SOL     OW86233  10.632  10.805   4.240
61465SOL    HW186234  10.567  10.845   4.298
61465SOL    HW286235  10.584  10.787   4.159
61466SOL     OW86236  10.954   9.148  13.351
61466SOL    HW186237  10.991   9.100  13.426
61466SOL    HW286238  10.925   9.080  13.291
61467SOL     OW86239   0.389  13.157  12.696
61467SOL    HW186240   0.323  13.211  12.653
61467SOL    HW286241   0.463  13.217  12.710
61468SOL     OW86242   4.110   9.678   3.675
61468SOL    HW186243   4.055   9.728   3.614
61468SOL    HW286244   4.196   9.679   3.634
61469SOL     OW86245   1.762   6.405   1.751
61469SOL    HW186246   1.821   6.388   1.825
61469SOL    HW286247   1.807   6.368   1.676
61470SOL     OW86248   6.669   3.839   6.169
61470SOL    HW186249   6.641   3.925   6.137
61470SOL    HW286250   6.595   3.782   6.150
61471SOL     OW86251   5.467  14.376  12.049
61471SOL    HW186252   5.436  14.451  12.101
61471SOL    HW286253   5.526  14.329  12.108
61472SOL     OW86254  11.271  14.090  11.815
61472SOL    HW186255  11.249  14.168  11.865
61472SOL    HW286256  11.205  14.025  11.841
61473SOL     OW86257   4.873   7.120   0.347
61473SOL    HW186258   4.829   7.204   0.341
61473SOL    HW286259   4.949   7.128   0.290
61474SOL     OW86260  10.636   9.280   2.421
61474SOL    HW186261  10.695   9.317   2.487
61474SOL    HW286262  10.561   9.249   2.472
61475SOL     OW86263  13.361   3.636   2.038
61475SOL    HW186264  13.318   3.592   1.964
61475SOL    HW286265  13.303   3.709   2.059
61476SOL     OW86266  10.052   3.114   3.301
61476SOL    HW186267  10.061   3.047   3.369
61476SOL    HW286268  10.063   3.197   3.347
61477SOL     OW86269  14.743  14.535   4.308
61477SOL    HW186270  14.791  14.538   4.225
61477SOL    HW286271  14.711  14.625   4.320
61478SOL     OW86272   9.163  10.701   7.056
61478SOL    HW186273   9.146  10.769   7.122
61478SOL    HW286274   9.199  10.628   7.106
61479SOL     OW86275   6.508   2.504   4.886
61479SOL    HW186276   6.414   2.514   4.870
61479SOL    HW286277   6.523   2.551   4.969
61480SOL     OW86278   0.558  13.169  14.395
61480SOL    HW186279   0.469  13.204  14.385
61480SOL    HW286280   0.589  13.155  14.306
61481SOL     OW86281  10.236   8.696   1.024
61481SOL    HW186282  10.246   8.602   1.006
61481SOL    HW286283  10.224   8.700   1.119
61482SOL     OW86284  12.863   0.489   6.895
61482SOL    HW186285  12.785   0.473   6.949
61482SOL    HW286286  12.869   0.585   6.891
61483SOL     OW86287  13.453  14.695  11.094
61483SOL    HW186288  13.470  14.709  11.001
61483SOL    HW286289  13.414  14.778  11.123
61484SOL     OW86290  10.455   7.048   8.540
61484SOL    HW186291  10.441   6.966   8.587
61484SOL    HW286292  10.368   7.071   8.507
61485SOL     OW86293   4.923   9.126   9.899
61485SOL    HW186294   4.916   9.206   9.847
61485SOL    HW286295   4.945   9.156   9.987
61486SOL     OW86296   2.667  11.603   1.870
61486SOL    HW186297   2.716  11.529   1.907
61486SOL    HW286298   2.734  11.659   1.831
61487SOL     OW86299  14.546  12.838   7.173
61487SOL    HW186300  14.500  12.888   7.240
61487SOL    HW286301  14.546  12.748   7.205
61488SOL     OW86302   9.199   5.606  12.645
61488SOL    HW186303   9.277   5.606  12.589
61488SOL    HW286304   9.152   5.527  12.620
61489SOL     OW86305   2.642   1.177   9.559
61489SOL    HW186306   2.646   1.224   9.476
61489SOL    HW286307   2.679   1.091   9.539
61490SOL     OW86308   4.383   3.794   0.153
61490SOL    HW186309   4.334   3.745   0.220
61490SOL    HW286310   4.351   3.761   0.070
61491SOL     OW86311   9.780  14.743   8.985
61491SOL    HW186312   9.754  14.675   9.047
61491SOL    HW286313   9.870  14.722   8.963
61492SOL     OW86314  12.426  14.391  10.202
61492SOL    HW186315  12.479  14.323  10.162
61492SOL    HW286316  12.390  14.351  10.281
61493SOL     OW86317   4.175   2.754   5.645
61493SOL    HW186318   4.169   2.849   5.637
61493SOL    HW286319   4.269   2.735   5.643
61494SOL     OW86320   5.108   2.101   1.833
61494SOL    HW186321   5.031   2.080   1.886
61494SOL    HW286322   5.088   2.064   1.747
61495SOL     OW86323  14.482   7.468  11.401
61495SOL    HW186324  14.507   7.387  11.357
61495SOL    HW286325  14.550   7.481  11.467
61496SOL     OW86326   3.725   9.626   1.835
61496SOL    HW186327   3.761   9.658   1.918
61496SOL    HW286328   3.792   9.567   1.801
61497SOL     OW86329   6.911   7.497   6.829
61497SOL    HW186330   6.861   7.466   6.904
61497SOL    HW286331   6.995   7.526   6.866
61498SOL     OW86332   5.631   3.780   3.289
61498SOL    HW186333   5.663   3.846   3.350
61498SOL    HW286334   5.705   3.759   3.233
61499SOL     OW86335   0.065  10.483  13.326
61499SOL    HW186336   0.125  10.543  13.283
61499SOL    HW286337   0.027  10.432  13.255
61500SOL     OW86338   9.708  14.160  10.906
61500SOL    HW186339   9.686  14.202  10.823
61500SOL    HW286340   9.758  14.082  10.881
61501SOL     OW86341   4.306   1.539   8.324
61501SOL    HW186342   4.338   1.455   8.289
61501SOL    HW286343   4.332   1.603   8.258
61502SOL     OW86344   1.816  14.602  13.914
61502SOL    HW186345   1.785  14.691  13.895
61502SOL    HW286346   1.909  14.614  13.933
61503SOL     OW86347  10.626   7.802   6.242
61503SOL    HW186348  10.699   7.857   6.214
61503SOL    HW286349  10.628   7.726   6.183
61504SOL     OW86350  11.447  12.968  11.374
61504SOL    HW186351  11.478  12.883  11.343
61504SOL    HW286352  11.386  12.946  11.445
61505SOL     OW86353  14.844   0.040   3.480
61505SOL    HW186354  14.833  14.871   3.395
61505SOL    HW286355  14.761   0.024   3.525
61506SOL     OW86356   8.351  13.298   5.309
61506SOL    HW186357   8.342  13.268   5.219
61506SOL    HW286358   8.274  13.353   5.324
61507SOL     OW86359   6.436   9.955   8.965
61507SOL    HW186360   6.356   9.923   8.922
61507SOL    HW286361   6.449  10.043   8.929
61508SOL     OW86362   9.316   3.945  12.820
61508SOL    HW186363   9.320   3.866  12.767
61508SOL    HW286364   9.228   3.980  12.804
61509SOL     OW86365   1.516   6.639   9.648
61509SOL    HW186366   1.515   6.599   9.735
61509SOL    HW286367   1.609   6.651   9.628
61510SOL     OW86368   0.368   0.220  12.434
61510SOL    HW186369   0.429   0.175  12.491
61510SOL    HW286370   0.400   0.202  12.345
61511SOL     OW86371  12.162   6.640   5.591
61511SOL    HW186372  12.082   6.601   5.554
61511SOL    HW286373  12.168   6.726   5.549
61512SOL     OW86374  10.846  10.009  14.824
61512SOL    HW186375  10.828   9.915  14.819
61512SOL    HW286376  10.924  10.016   0.006
61513SOL     OW86377  11.070  13.819   9.157
61513SOL    HW186378  11.004  13.792   9.221
61513SOL    HW286379  11.125  13.742   9.145
61514SOL     OW86380   5.978   8.945   3.904
61514SOL    HW186381   5.970   8.935   3.809
61514SOL    HW286382   5.888   8.941   3.936
61515SOL     OW86383   8.054   1.614   8.602
61515SOL    HW186384   8.097   1.590   8.520
61515SOL    HW286385   8.027   1.530   8.640
61516SOL     OW86386   5.277   2.245  11.858
61516SOL    HW186387   5.220   2.264  11.932
61516SOL    HW286388   5.228   2.181  11.806
61517SOL     OW86389   9.476   0.991   5.593
61517SOL    HW186390   9.483   1.083   5.566
61517SOL    HW286391   9.430   0.948   5.520
61518SOL     OW86392   8.365   9.719   8.324
61518SOL    HW186393   8.389   9.784   8.390
61518SOL    HW286394   8.270   9.724   8.318
61519SOL     OW86395   9.119   0.742   6.976
61519SOL    HW186396   9.185   0.687   7.017
61519SOL    HW286397   9.108   0.816   7.036
61520SOL     OW86398  11.718   4.869  10.594
61520SOL    HW186399  11.813   4.875  10.589
61520SOL    HW286400  11.686   4.937  10.535
61521SOL     OW86401  10.591   4.990   5.630
61521SOL    HW186402  10.678   5.028   5.641
61521SOL    HW286403  10.590   4.961   5.539
61522SOL     OW86404   6.530   2.163  13.536
61522SOL    HW186405   6.590   2.230  13.567
61522SOL    HW286406   6.485   2.133  13.615
61523SOL     OW86407   3.607   0.927  12.378
61523SOL    HW186408   3.691   0.961  12.409
61523SOL    HW286409   3.630   0.874  12.301
61524SOL     OW86410   8.198   7.763   4.785
61524SOL    HW186411   8.262   7.698   4.814
61524SOL    HW286412   8.115   7.735   4.825
61525SOL     OW86413   5.845   0.113   9.667
61525SOL    HW186414   5.814   0.090   9.755
61525SOL    HW286415   5.766   0.131   9.617
61526SOL     OW86416   0.114  13.381   0.961
61526SOL    HW186417   0.141  13.322   0.890
61526SOL    HW286418   0.046  13.333   1.007
61527SOL     OW86419   7.610   9.435   8.931
61527SOL    HW186420   7.598   9.355   8.981
61527SOL    HW286421   7.542   9.432   8.864
61528SOL     OW86422   1.025   2.840   0.388
61528SOL    HW186423   1.077   2.764   0.416
61528SOL    HW286424   0.937   2.822   0.420
61529SOL     OW86425  14.789   5.148   8.958
61529SOL    HW186426  14.746   5.072   8.997
61529SOL    HW286427  14.720   5.195   8.913
61530SOL     OW86428   8.153   9.538  10.122
61530SOL    HW186429   8.163   9.559  10.029
61530SOL    HW286430   8.241   9.545  10.158
61531SOL     OW86431   7.654   0.272   6.955
61531SOL    HW186432   7.731   0.324   6.978
61531SOL    HW286433   7.679   0.225   6.876
61532SOL     OW86434   9.980  14.120   3.861
61532SOL    HW186435   9.940  14.096   3.944
61532SOL    HW286436  10.015  14.208   3.876
61533SOL     OW86437  10.221   3.813   5.079
61533SOL    HW186438  10.287   3.813   5.010
61533SOL    HW286439  10.229   3.900   5.119
61534SOL     OW86440   2.512   5.175   0.907
61534SOL    HW186441   2.525   5.244   0.842
61534SOL    HW286442   2.598   5.164   0.948
61535SOL     OW86443   5.911   2.302   8.074
61535SOL    HW186444   5.909   2.396   8.057
61535SOL    HW286445   5.976   2.268   8.012
61536SOL     OW86446   6.108   3.871   0.626
61536SOL    HW186447   6.177   3.932   0.602
61536SOL    HW286448   6.148   3.785   0.617
61537SOL     OW86449   4.882  10.594  11.409
61537SOL    HW186450   4.887  10.567  11.318
61537SOL    HW286451   4.789  10.605  11.426
61538SOL     OW86452   0.275   9.540   4.122
61538SOL    HW186453   0.268   9.451   4.088
61538SOL    HW286454   0.298   9.594   4.046
61539SOL     OW86455  13.719   6.437   8.448
61539SOL    HW186456  13.711   6.530   8.426
61539SOL    HW286457  13.640   6.417   8.497
61540SOL     OW86458   3.857   5.475  10.246
61540SOL    HW186459   3.916   5.440  10.179
61540SOL    HW286460   3.793   5.527  10.197
61541SOL     OW86461  12.793  10.808   4.769
61541SOL    HW186462  12.704  10.800   4.735
61541SOL    HW286463  12.842  10.847   4.697
61542SOL     OW86464   6.466  12.124  10.787
61542SOL    HW186465   6.541  12.079  10.748
61542SOL    HW286466   6.465  12.210  10.746
61543SOL     OW86467   9.900   1.933  10.454
61543SOL    HW186468   9.825   1.992  10.465
61543SOL    HW286469   9.973   1.992  10.433
61544SOL     OW86470   6.215  14.458   0.083
61544SOL    HW186471   6.267  14.536   0.102
61544SOL    HW286472   6.135  14.469   0.133
61545SOL     OW86473  14.043   0.789   8.860
61545SOL    HW186474  14.134   0.792   8.889
61545SOL    HW286475  14.048   0.771   8.766
61546SOL     OW86476   1.828   1.803   5.997
61546SOL    HW186477   1.843   1.723   6.047
61546SOL    HW286478   1.814   1.773   5.907
61547SOL     OW86479  10.797   1.435  10.801
61547SOL    HW186480  10.761   1.486  10.728
61547SOL    HW286481  10.781   1.490  10.878
61548SOL     OW86482   6.279   6.837   8.224
61548SOL    HW186483   6.359   6.831   8.173
61548SOL    HW286484   6.278   6.757   8.277
61549SOL     OW86485   4.703  14.403   1.182
61549SOL    HW186486   4.702  14.350   1.103
61549SOL    HW286487   4.791  14.391   1.219
61550SOL     OW86488  13.079  10.834   0.807
61550SOL    HW186489  13.133  10.902   0.766
61550SOL    HW286490  13.121  10.817   0.891
61551SOL     OW86491   6.635  12.618  14.804
61551SOL    HW186492   6.689  12.696  14.798
61551SOL    HW286493   6.687  12.556  14.856
61552SOL     OW86494  13.930   3.114   3.865
61552SOL    HW186495  13.843   3.112   3.826
61552SOL    HW286496  13.988   3.139   3.793
61553SOL     OW86497  12.510  14.159   9.695
61553SOL    HW186498  12.509  14.253   9.713
61553SOL    HW286499  12.484  14.151   9.604
61554SOL     OW86500   9.824   0.575   9.839
61554SOL    HW186501   9.747   0.518   9.842
61554SOL    HW286502   9.898   0.515   9.840
61555SOL     OW86503  14.041  13.768   3.348
61555SOL    HW186504  14.103  13.747   3.417
61555SOL    HW286505  13.983  13.692   3.344
61556SOL     OW86506  10.705   6.331   2.232
61556SOL    HW186507  10.653   6.290   2.301
61556SOL    HW286508  10.641   6.364   2.169
61557SOL     OW86509   4.237   9.768   5.411
61557SOL    HW186510   4.205   9.818   5.336
61557SOL    HW286511   4.171   9.699   5.423
61558SOL     OW86512   7.116   3.184   3.485
61558SOL    HW186513   7.068   3.247   3.430
61558SOL    HW286514   7.051   3.116   3.504
61559SOL     OW86515   8.252  14.325  13.983
61559SOL    HW186516   8.178  14.383  13.967
61559SOL    HW286517   8.302  14.368  14.052
61560SOL     OW86518   7.986  10.676   9.082
61560SOL    HW186519   7.950  10.736   9.146
61560SOL    HW286520   8.020  10.603   9.134
61561SOL     OW86521   7.471   8.774   9.722
61561SOL    HW186522   7.504   8.715   9.790
61561SOL    HW286523   7.537   8.844   9.717
61562SOL     OW86524   3.368  11.351  10.526
61562SOL    HW186525   3.431  11.378  10.460
61562SOL    HW286526   3.413  11.286  10.579
61563SOL     OW86527  14.735   8.977   5.076
61563SOL    HW186528  14.705   8.887   5.090
61563SOL    HW286529  14.828   8.968   5.054
61564SOL     OW86530  13.023   7.356   2.057
61564SOL    HW186531  13.034   7.307   2.138
61564SOL    HW286532  13.086   7.316   1.996
61565SOL     OW86533   2.701  11.350  11.692
61565SOL    HW186534   2.637  11.413  11.727
61565SOL    HW286535   2.653  11.268  11.685
61566SOL     OW86536   8.635   8.063  13.853
61566SOL    HW186537   8.582   8.040  13.777
61566SOL    HW286538   8.705   8.119  13.817
61567SOL     OW86539   6.418  13.435   3.100
61567SOL    HW186540   6.500  13.394   3.126
61567SOL    HW286541   6.358  13.361   3.085
61568SOL     OW86542   7.758   1.875   9.519
61568SOL    HW186543   7.690   1.929   9.480
61568SOL    HW286544   7.840   1.921   9.499
61569SOL     OW86545  13.910   9.536   8.069
61569SOL    HW186546  13.840   9.522   8.006
61569SOL    HW286547  13.913   9.631   8.082
61570SOL     OW86548  12.348  14.567   6.247
61570SOL    HW186549  12.364  14.658   6.223
61570SOL    HW286550  12.409  14.550   6.319
61571SOL     OW86551   3.071   0.440   2.002
61571SOL    HW186552   3.135   0.424   1.932
61571SOL    HW286553   3.006   0.497   1.961
61572SOL     OW86554   4.703  10.286  12.724
61572SOL    HW186555   4.780  10.283  12.780
61572SOL    HW286556   4.687  10.380  12.712
61573SOL     OW86557   6.218  10.035   7.171
61573SOL    HW186558   6.195   9.946   7.144
61573SOL    HW286559   6.249  10.025   7.261
61574SOL     OW86560   0.022  14.456  10.836
61574SOL    HW186561  14.849  14.537  10.813
61574SOL    HW286562  14.829  14.404  10.881
61575SOL     OW86563   8.938  14.186   4.814
61575SOL    HW186564   8.998  14.115   4.790
61575SOL    HW286565   8.900  14.158   4.897
61576SOL     OW86566   9.749   5.131   2.861
61576SOL    HW186567   9.765   5.220   2.830
61576SOL    HW286568   9.657   5.115   2.842
61577SOL     OW86569   2.518   9.556  11.664
61577SOL    HW186570   2.590   9.613  11.688
61577SOL    HW286571   2.548   9.468  11.686
61578SOL     OW86572  10.043   6.899   3.803
61578SOL    HW186573  10.009   6.816   3.838
61578SOL    HW286574  10.042   6.959   3.878
61579SOL     OW86575  10.650   1.580   5.643
61579SOL    HW186576  10.586   1.567   5.714
61579SOL    HW286577  10.621   1.520   5.574
61580SOL     OW86578   1.779   6.904   2.879
61580SOL    HW186579   1.735   6.939   2.957
61580SOL    HW286580   1.731   6.824   2.858
61581SOL     OW86581  14.586   8.444   1.356
61581SOL    HW186582  14.672   8.431   1.397
61581SOL    HW286583  14.573   8.539   1.358
61582SOL     OW86584  13.782   4.716   1.480
61582SOL    HW186585  13.781   4.729   1.575
61582SOL    HW286586  13.791   4.621   1.469
61583SOL     OW86587   4.194   1.590  11.853
61583SOL    HW186588   4.182   1.562  11.763
61583SOL    HW286589   4.129   1.660  11.865
61584SOL     OW86590   8.228   5.823   2.796
61584SOL    HW186591   8.137   5.793   2.808
61584SOL    HW286592   8.270   5.751   2.748
61585SOL     OW86593   5.068   6.343   0.283
61585SOL    HW186594   5.086   6.340   0.189
61585SOL    HW286595   4.972   6.346   0.288
61586SOL     OW86596   8.915  14.208   5.955
61586SOL    HW186597   9.004  14.233   5.981
61586SOL    HW286598   8.921  14.193   5.861
61587SOL     OW86599  12.642   2.090  12.449
61587SOL    HW186600  12.726   2.117  12.411
61587SOL    HW286601  12.663   2.063  12.538
61588SOL     OW86602  10.042   8.099  11.098
61588SOL    HW186603   9.996   8.176  11.064
61588SOL    HW286604  10.129   8.130  11.120
61589SOL     OW86605  12.048   7.061  10.343
61589SOL    HW186606  12.092   6.979  10.322
61589SOL    HW286607  11.982   7.037  10.408
61590SOL     OW86608   7.174   1.857   1.892
61590SOL    HW186609   7.084   1.881   1.912
61590SOL    HW286610   7.216   1.939   1.867
61591SOL     OW86611   3.910   4.307  11.919
61591SOL    HW186612   3.885   4.258  11.998
61591SOL    HW286613   3.829   4.349  11.891
61592SOL     OW86614   6.560  12.631   8.016
61592SOL    HW186615   6.584  12.671   8.099
61592SOL    HW286616   6.618  12.556   8.007
61593SOL     OW86617   2.636  14.470   6.225
61593SOL    HW186618   2.684  14.519   6.158
61593SOL    HW286619   2.703  14.436   6.283
61594SOL     OW86620  12.343   9.018  12.125
61594SOL    HW186621  12.383   9.018  12.212
61594SOL    HW286622  12.248   9.019  12.142
61595SOL     OW86623   6.659  14.741   3.754
61595SOL    HW186624   6.681  14.827   3.718
61595SOL    HW286625   6.742  14.706   3.786
61596SOL     OW86626  12.996   8.125   9.067
61596SOL    HW186627  13.026   8.088   9.150
61596SOL    HW286628  13.029   8.215   9.067
61597SOL     OW86629   2.832   9.310   6.601
61597SOL    HW186630   2.909   9.337   6.552
61597SOL    HW286631   2.844   9.348   6.688
61598SOL     OW86632   0.074  10.085   9.544
61598SOL    HW186633   0.002  10.127   9.497
61598SOL    HW286634   0.066   9.992   9.521
61599SOL     OW86635   9.109   9.594   5.833
61599SOL    HW186636   9.106   9.536   5.909
61599SOL    HW286637   9.185   9.564   5.783
61600SOL     OW86638  10.262  11.750   1.844
61600SOL    HW186639  10.236  11.813   1.911
61600SOL    HW286640  10.240  11.664   1.881
61601SOL     OW86641   1.717   3.187   1.403
61601SOL    HW186642   1.707   3.101   1.445
61601SOL    HW286643   1.727   3.248   1.476
61602SOL     OW86644  10.695  11.523  12.697
61602SOL    HW186645  10.726  11.474  12.621
61602SOL    HW286646  10.609  11.486  12.716
61603SOL     OW86647   2.154   7.605   5.574
61603SOL    HW186648   2.186   7.693   5.556
61603SOL    HW286649   2.104   7.581   5.495
61604SOL     OW86650   1.339   7.358   1.848
61604SOL    HW186651   1.332   7.444   1.890
61604SOL    HW286652   1.340   7.378   1.754
61605SOL     OW86653  14.576   0.124   1.692
61605SOL    HW186654  14.525   0.102   1.770
61605SOL    HW286655  14.557   0.217   1.676
61606SOL     OW86656   1.869   7.081   8.615
61606SOL    HW186657   1.961   7.107   8.621
61606SOL    HW286658   1.853   7.073   8.521
61607SOL     OW86659  10.713  12.605   8.679
61607SOL    HW186660  10.757  12.668   8.622
61607SOL    HW286661  10.735  12.633   8.767
61608SOL     OW86662   6.356  12.364   6.253
61608SOL    HW186663   6.267  12.362   6.289
61608SOL    HW286664   6.412  12.379   6.329
61609SOL     OW86665   3.132  10.570   2.419
61609SOL    HW186666   3.202  10.509   2.397
61609SOL    HW286667   3.091  10.593   2.336
61610SOL     OW86668   1.682  13.225  10.808
61610SOL    HW186669   1.595  13.262  10.793
61610SOL    HW286670   1.673  13.132  10.785
61611SOL     OW86671  11.661  11.578  10.349
61611SOL    HW186672  11.635  11.570  10.440
61611SOL    HW286673  11.579  11.582  10.300
61612SOL     OW86674   6.161   8.183  13.311
61612SOL    HW186675   6.118   8.176  13.226
61612SOL    HW286676   6.130   8.266  13.347
61613SOL     OW86677  10.127   5.162   7.678
61613SOL    HW186678  10.105   5.215   7.755
61613SOL    HW286679  10.211   5.123   7.699
61614SOL     OW86680  11.254  11.370  10.632
61614SOL    HW186681  11.194  11.366  10.557
61614SOL    HW286682  11.302  11.288  10.629
61615SOL     OW86683  11.441   3.998   9.392
61615SOL    HW186684  11.368   4.043   9.349
61615SOL    HW286685  11.421   3.905   9.380
61616SOL     OW86686   7.994  14.070   4.703
61616SOL    HW186687   7.963  14.000   4.645
61616SOL    HW286688   8.033  14.024   4.778
61617SOL     OW86689   1.757   8.233   9.619
61617SOL    HW186690   1.715   8.147   9.622
61617SOL    HW286691   1.840   8.218   9.572
61618SOL     OW86692  14.851   4.423   1.196
61618SOL    HW186693  14.839   4.339   1.152
61618SOL    HW286694   0.059   4.458   1.160
61619SOL     OW86695   2.819  10.711   0.993
61619SOL    HW186696   2.812  10.775   1.064
61619SOL    HW286697   2.730  10.704   0.958
61620SOL     OW86698   9.628  13.717   2.855
61620SOL    HW186699   9.547  13.768   2.852
61620SOL    HW286700   9.698  13.783   2.849
61621SOL     OW86701   4.782  13.185   0.360
61621SOL    HW186702   4.785  13.260   0.301
61621SOL    HW286703   4.874  13.163   0.377
61622SOL     OW86704   7.422  11.305   5.948
61622SOL    HW186705   7.403  11.318   6.041
61622SOL    HW286706   7.462  11.387   5.921
61623SOL     OW86707   2.973   0.054   8.458
61623SOL    HW186708   3.007   0.134   8.419
61623SOL    HW286709   2.938   0.004   8.384
61624SOL     OW86710  14.046   3.352   9.553
61624SOL    HW186711  14.001   3.292   9.494
61624SOL    HW286712  13.983   3.422   9.569
61625SOL     OW86713   7.963   4.706   3.613
61625SOL    HW186714   7.921   4.752   3.540
61625SOL    HW286715   8.036   4.762   3.639
61626SOL     OW86716   6.406   3.283   9.572
61626SOL    HW186717   6.481   3.324   9.613
61626SOL    HW286718   6.423   3.189   9.579
61627SOL     OW86719   8.563   3.965  13.733
61627SOL    HW186720   8.491   4.018  13.764
61627SOL    HW286721   8.600   4.014  13.659
61628SOL     OW86722  13.580  12.317   9.054
61628SOL    HW186723  13.602  12.384   9.119
61628SOL    HW286724  13.630  12.240   9.081
61629SOL     OW86725   2.711  11.081   0.565
61629SOL    HW186726   2.722  11.174   0.549
61629SOL    HW286727   2.708  11.042   0.478
61630SOL     OW86728  11.763   6.785  13.118
61630SOL    HW186729  11.728   6.867  13.083
61630SOL    HW286730  11.738   6.786  13.211
61631SOL     OW86731   0.820   9.566  13.705
61631SOL    HW186732   0.866   9.552  13.622
61631SOL    HW286733   0.794   9.478  13.734
61632SOL     OW86734  10.554   2.390  11.518
61632SOL    HW186735  10.547   2.347  11.433
61632SOL    HW286736  10.559   2.483  11.499
61633SOL     OW86737   5.936  12.241  12.577
61633SOL    HW186738   6.029  12.257  12.559
61633SOL    HW286739   5.914  12.165  12.524
61634SOL     OW86740   2.392   2.826  10.367
61634SOL    HW186741   2.391   2.811  10.273
61634SOL    HW286742   2.457   2.895  10.380
61635SOL     OW86743   2.372  12.098  11.785
61635SOL    HW186744   2.417  12.020  11.817
61635SOL    HW286745   2.283  12.068  11.767
61636SOL     OW86746  11.781  14.196   8.652
61636SOL    HW186747  11.796  14.136   8.725
61636SOL    HW286748  11.692  14.176   8.622
61637SOL     OW86749   8.432  13.840  11.784
61637SOL    HW186750   8.348  13.880  11.763
61637SOL    HW286751   8.422  13.748  11.763
61638SOL     OW86752   8.062   3.567   8.303
61638SOL    HW186753   8.120   3.556   8.229
61638SOL    HW286754   7.975   3.543   8.269
61639SOL     OW86755  14.610   8.983   0.083
61639SOL    HW186756  14.657   8.904   0.110
61639SOL    HW286757  14.607   8.977  14.860
61640SOL     OW86758   0.522   3.261   6.457
61640SOL    HW186759   0.475   3.345   6.460
61640SOL    HW286760   0.600   3.276   6.511
61641SOL     OW86761   5.091   6.686   0.783
61641SOL    HW186762   5.086   6.779   0.761
61641SOL    HW286763   5.174   6.657   0.745
61642SOL     OW86764  12.116   3.005  10.535
61642SOL    HW186765  12.133   2.937  10.600
61642SOL    HW286766  12.202   3.043  10.515
61643SOL     OW86767   1.717   9.074   6.715
61643SOL    HW186768   1.746   9.001   6.771
61643SOL    HW286769   1.667   9.032   6.645
61644SOL     OW86770   7.828   6.687   3.172
61644SOL    HW186771   7.820   6.749   3.245
61644SOL    HW286772   7.845   6.603   3.215
61645SOL     OW86773   6.224   7.486  13.952
61645SOL    HW186774   6.289   7.417  13.942
61645SOL    HW286775   6.182   7.467  14.036
61646SOL     OW86776  13.668   7.286   5.104
61646SOL    HW186777  13.711   7.219   5.051
61646SOL    HW286778  13.738   7.344   5.132
61647SOL     OW86779   3.746  10.369   4.784
61647SOL    HW186780   3.725  10.277   4.770
61647SOL    HW286781   3.668  10.416   4.752
61648SOL     OW86782   0.654  14.231   9.186
61648SOL    HW186783   0.750  14.227   9.180
61648SOL    HW286784   0.638  14.253   9.278
61649SOL     OW86785  10.701  11.973   3.103
61649SOL    HW186786  10.781  11.983   3.052
61649SOL    HW286787  10.716  12.023   3.183
61650SOL     OW86788   4.612  12.301  10.426
61650SOL    HW186789   4.676  12.365  10.394
61650SOL    HW286790   4.633  12.220  10.380
61651SOL     OW86791  11.081   8.775  10.251
61651SOL    HW186792  11.002   8.818  10.218
61651SOL    HW286793  11.047   8.703  10.305
61652SOL     OW86794   6.408  12.463   2.938
61652SOL    HW186795   6.437  12.404   3.007
61652SOL    HW286796   6.480  12.525   2.928
61653SOL     OW86797  12.147  11.375   8.458
61653SOL    HW186798  12.172  11.291   8.420
61653SOL    HW286799  12.190  11.440   8.403
61654SOL     OW86800   4.022  13.934  10.471
61654SOL    HW186801   3.985  13.929  10.383
61654SOL    HW286802   4.034  14.028  10.487
61655SOL     OW86803   0.754   4.074   2.376
61655SOL    HW186804   0.689   4.072   2.305
61655SOL    HW286805   0.811   4.148   2.354
61656SOL     OW86806   0.977   8.689  11.520
61656SOL    HW186807   1.009   8.624  11.457
61656SOL    HW286808   1.051   8.704  11.579
61657SOL     OW86809  10.695   1.875   1.849
61657SOL    HW186810  10.676   1.814   1.920
61657SOL    HW286811  10.773   1.922   1.878
61658SOL     OW86812  13.923   8.404  13.552
61658SOL    HW186813  13.899   8.485  13.599
61658SOL    HW286814  14.017   8.396  13.565
61659SOL     OW86815   4.190   7.870  10.811
61659SOL    HW186816   4.185   7.785  10.856
61659SOL    HW286817   4.101   7.905  10.816
61660SOL     OW86818   7.022   7.487   2.845
61660SOL    HW186819   7.084   7.540   2.894
61660SOL    HW286820   7.076   7.423   2.799
61661SOL     OW86821   9.777  14.825   8.665
61661SOL    HW186822   9.731   0.015   8.721
61661SOL    HW286823   9.867  14.858   8.662
61662SOL     OW86824   3.370   4.750  10.938
61662SOL    HW186825   3.439   4.789  10.885
61662SOL    HW286826   3.302   4.726  10.876
61663SOL     OW86827   5.038   6.589   3.106
61663SOL    HW186828   5.085   6.609   3.025
61663SOL    HW286829   4.946   6.585   3.080
61664SOL     OW86830  12.318   2.780   6.252
61664SOL    HW186831  12.258   2.766   6.179
61664SOL    HW286832  12.264   2.771   6.330
61665SOL     OW86833  11.490   1.882   1.516
61665SOL    HW186834  11.534   1.828   1.581
61665SOL    HW286835  11.529   1.856   1.433
61666SOL     OW86836   4.839   9.690   4.089
61666SOL    HW186837   4.868   9.647   4.008
61666SOL    HW286838   4.811   9.618   4.146
61667SOL     OW86839   3.578  12.728   3.376
61667SOL    HW186840   3.495  12.768   3.350
61667SOL    HW286841   3.554  12.639   3.403
61668SOL     OW86842   3.697   9.347  10.133
61668SOL    HW186843   3.671   9.405  10.061
61668SOL    HW286844   3.616   9.307  10.162
61669SOL     OW86845   5.188   3.902  10.916
61669SOL    HW186846   5.243   3.947  10.980
61669SOL    HW286847   5.145   3.833  10.966
61670SOL     OW86848  11.059   1.473   7.321
61670SOL    HW186849  11.032   1.384   7.299
61670SOL    HW286850  11.107   1.503   7.243
61671SOL     OW86851  12.872   5.376   8.795
61671SOL    HW186852  12.934   5.404   8.863
61671SOL    HW286853  12.791   5.357   8.842
61672SOL     OW86854  14.470   6.485  11.640
61672SOL    HW186855  14.420   6.492  11.721
61672SOL    HW286856  14.465   6.571  11.600
61673SOL     OW86857  11.453   9.314   5.302
61673SOL    HW186858  11.486   9.398   5.335
61673SOL    HW286859  11.371   9.337   5.257
61674SOL     OW86860  10.371  11.862  12.142
61674SOL    HW186861  10.329  11.926  12.199
61674SOL    HW286862  10.301  11.831  12.084
61675SOL     OW86863   1.416   0.827  12.492
61675SOL    HW186864   1.502   0.815  12.532
61675SOL    HW286865   1.383   0.908  12.530
61676SOL     OW86866   3.470  11.812   9.645
61676SOL    HW186867   3.523  11.890   9.628
61676SOL    HW286868   3.533  11.740   9.651
61677SOL     OW86869  14.774   9.715   1.292
61677SOL    HW186870  14.786   9.805   1.322
61677SOL    HW286871  14.696   9.718   1.237
61678SOL     OW86872   0.146   6.077   6.322
61678SOL    HW186873   0.087   6.002   6.328
61678SOL    HW286874   0.162   6.087   6.228
61679SOL     OW86875   8.848   5.336  12.384
61679SOL    HW186876   8.839   5.384  12.302
61679SOL    HW286877   8.828   5.401  12.452
61680SOL     OW86878   7.247   2.216   4.390
61680SOL    HW186879   7.281   2.163   4.463
61680SOL    HW286880   7.299   2.296   4.392
61681SOL     OW86881  12.613   4.235   5.642
61681SOL    HW186882  12.680   4.170   5.622
61681SOL    HW286883  12.607   4.234   5.738
61682SOL     OW86884   8.464  10.524   7.413
61682SOL    HW186885   8.465  10.607   7.461
61682SOL    HW286886   8.406  10.468   7.465
61683SOL     OW86887   4.821  13.558  13.019
61683SOL    HW186888   4.749  13.617  12.999
61683SOL    HW286889   4.809  13.536  13.111
61684SOL     OW86890   0.572   3.663  11.027
61684SOL    HW186891   0.525   3.590  11.067
61684SOL    HW286892   0.508   3.704  10.969
61685SOL     OW86893   6.955  10.824   2.434
61685SOL    HW186894   6.985  10.804   2.523
61685SOL    HW286895   7.035  10.851   2.388
61686SOL     OW86896  14.232   9.660   3.870
61686SOL    HW186897  14.274   9.584   3.909
61686SOL    HW286898  14.149   9.627   3.835
61687SOL     OW86899   3.196  12.121   5.660
61687SOL    HW186900   3.214  12.028   5.673
61687SOL    HW286901   3.101  12.128   5.663
61688SOL     OW86902  13.361   1.389   6.700
61688SOL    HW186903  13.369   1.324   6.770
61688SOL    HW286904  13.348   1.337   6.621
61689SOL     OW86905   8.127   2.445  13.157
61689SOL    HW186906   8.097   2.380  13.094
61689SOL    HW286907   8.085   2.526  13.129
61690SOL     OW86908  10.218   5.603  11.215
61690SOL    HW186909  10.157   5.635  11.281
61690SOL    HW286910  10.259   5.682  11.180
61691SOL     OW86911   2.619   0.548  12.748
61691SOL    HW186912   2.685   0.595  12.798
61691SOL    HW286913   2.551   0.527  12.811
61692SOL     OW86914   0.075   9.469   1.761
61692SOL    HW186915   0.160   9.504   1.789
61692SOL    HW286916   0.012   9.538   1.783
61693SOL     OW86917  12.640   4.603   6.649
61693SOL    HW186918  12.561   4.647   6.681
61693SOL    HW286919  12.679   4.564   6.728
61694SOL     OW86920   0.518  12.192   2.833
61694SOL    HW186921   0.482  12.260   2.777
61694SOL    HW286922   0.607  12.222   2.853
61695SOL     OW86923   0.180  13.095   5.400
61695SOL    HW186924   0.270  13.068   5.414
61695SOL    HW286925   0.158  13.148   5.477
61696SOL     OW86926  14.018  12.023   9.925
61696SOL    HW186927  14.114  12.020   9.929
61696SOL    HW286928  13.989  11.951   9.981
61697SOL     OW86929   7.089   6.269   2.150
61697SOL    HW186930   7.140   6.262   2.069
61697SOL    HW286931   7.127   6.344   2.196
61698SOL     OW86932   4.465   6.986   8.864
61698SOL    HW186933   4.423   6.998   8.779
61698SOL    HW286934   4.483   6.892   8.869
61699SOL     OW86935   4.181   0.369   3.659
61699SOL    HW186936   4.248   0.391   3.593
61699SOL    HW286937   4.222   0.390   3.742
61700SOL     OW86938   9.709   7.658   0.599
61700SOL    HW186939   9.625   7.622   0.627
61700SOL    HW286940   9.742   7.705   0.675
61701SOL     OW86941   0.693   5.617   6.578
61701SOL    HW186942   0.753   5.570   6.520
61701SOL    HW286943   0.743   5.692   6.609
61702SOL     OW86944   3.204   0.738   0.527
61702SOL    HW186945   3.188   0.823   0.486
61702SOL    HW286946   3.278   0.702   0.478
61703SOL     OW86947  13.075   7.406   3.775
61703SOL    HW186948  13.027   7.443   3.848
61703SOL    HW286949  13.120   7.330   3.811
61704SOL     OW86950  13.459  11.060   3.746
61704SOL    HW186951  13.464  11.149   3.712
61704SOL    HW286952  13.371  11.031   3.723
61705SOL     OW86953   9.998  12.541   5.932
61705SOL    HW186954  10.002  12.625   5.885
61705SOL    HW286955   9.912  12.506   5.910
61706SOL     OW86956   7.937  13.181   3.939
61706SOL    HW186957   8.026  13.157   3.966
61706SOL    HW286958   7.911  13.112   3.878
61707SOL     OW86959   4.544  12.265   8.885
61707SOL    HW186960   4.466  12.311   8.854
61707SOL    HW286961   4.584  12.324   8.948
61708SOL     OW86962   3.094   1.988  11.096
61708SOL    HW186963   3.077   2.022  11.184
61708SOL    HW286964   3.179   1.945  11.102
61709SOL     OW86965   0.374  14.023   5.399
61709SOL    HW186966   0.345  14.005   5.489
61709SOL    HW286967   0.315  14.092   5.369
61710SOL     OW86968   4.308   6.047   4.624
61710SOL    HW186969   4.346   6.108   4.687
61710SOL    HW286970   4.383   6.013   4.575
61711SOL     OW86971  14.481  11.066   1.423
61711SOL    HW186972  14.462  11.105   1.338
61711SOL    HW286973  14.572  11.035   1.416
61712SOL     OW86974   2.112  12.928   7.623
61712SOL    HW186975   2.139  12.993   7.688
61712SOL    HW286976   2.060  12.865   7.673
61713SOL     OW86977   4.853   4.565   0.049
61713SOL    HW186978   4.941   4.592   0.076
61713SOL    HW286979   4.802   4.565   0.130
61714SOL     OW86980   5.435   2.324   9.023
61714SOL    HW186981   5.485   2.376   8.959
61714SOL    HW286982   5.500   2.299   9.089
61715SOL     OW86983  10.505   6.859   6.422
61715SOL    HW186984  10.477   6.816   6.503
61715SOL    HW286985  10.460   6.943   6.422
61716SOL     OW86986   9.797   4.478  11.547
61716SOL    HW186987   9.843   4.500  11.629
61716SOL    HW286988   9.769   4.562  11.511
61717SOL     OW86989   9.320   9.677   6.857
61717SOL    HW186990   9.257   9.607   6.839
61717SOL    HW286991   9.276   9.733   6.921
61718SOL     OW86992  13.082   1.689   6.534
61718SOL    HW186993  13.177   1.677   6.521
61718SOL    HW286994  13.071   1.693   6.629
61719SOL     OW86995   4.727   4.071  11.858
61719SOL    HW186996   4.654   4.129  11.879
61719SOL    HW286997   4.728   4.067  11.763
61720SOL     OW86998   9.221  12.008   6.866
61720SOL    HW186999   9.308  12.025   6.903
61720SOL    HW287000   9.240  11.964   6.783
61721SOL     OW87001   0.954   0.284  12.213
61721SOL    HW187002   0.859   0.282  12.208
61721SOL    HW287003   0.983   0.226  12.142
61722SOL     OW87004   4.556   9.257   0.579
61722SOL    HW187005   4.528   9.176   0.537
61722SOL    HW287006   4.599   9.230   0.659
61723SOL     OW87007   7.436   9.193  14.548
61723SOL    HW187008   7.484   9.119  14.510
61723SOL    HW287009   7.345   9.177  14.525
61724SOL     OW87010   2.122  13.604  12.080
61724SOL    HW187011   2.042  13.554  12.061
61724SOL    HW287012   2.175  13.545  12.133
61725SOL     OW87013  12.946   4.195   2.068
61725SOL    HW187014  12.974   4.259   2.004
61725SOL    HW287015  12.906   4.125   2.016
61726SOL     OW87016   5.229   5.145  14.281
61726SOL    HW187017   5.324   5.152  14.282
61726SOL    HW287018   5.201   5.191  14.360
61727SOL     OW87019  14.226   4.657   7.370
61727SOL    HW187020  14.234   4.725   7.302
61727SOL    HW287021  14.200   4.705   7.449
61728SOL     OW87022   7.586   0.722  11.792
61728SOL    HW187023   7.515   0.747  11.733
61728SOL    HW287024   7.607   0.802  11.839
61729SOL     OW87025   1.261   4.811  12.331
61729SOL    HW187026   1.264   4.874  12.403
61729SOL    HW287027   1.169   4.786  12.325
61730SOL     OW87028  12.952   2.277  14.343
61730SOL    HW187029  12.891   2.251  14.411
61730SOL    HW287030  12.942   2.210  14.275
61731SOL     OW87031   7.114   5.599   5.702
61731SOL    HW187032   7.190   5.541   5.713
61731SOL    HW287033   7.053   5.572   5.771
61732SOL     OW87034  12.653   4.030   2.281
61732SOL    HW187035  12.633   4.065   2.195
61732SOL    HW287036  12.714   3.958   2.264
61733SOL     OW87037  14.261  12.194   3.051
61733SOL    HW187038  14.315  12.215   2.975
61733SOL    HW287039  14.321  12.198   3.125
61734SOL     OW87040   7.638   5.875   5.740
61734SOL    HW187041   7.572   5.875   5.809
61734SOL    HW287042   7.675   5.787   5.741
61735SOL     OW87043  14.552   7.599   9.880
61735SOL    HW187044  14.491   7.555   9.821
61735SOL    HW287045  14.496   7.642   9.944
61736SOL     OW87046  10.214   7.169  12.534
61736SOL    HW187047  10.298   7.125  12.527
61736SOL    HW287048  10.169   7.146  12.452
61737SOL     OW87049   7.835   4.249  12.351
61737SOL    HW187050   7.862   4.226  12.262
61737SOL    HW287051   7.742   4.225  12.354
61738SOL     OW87052  10.539  10.820  12.137
61738SOL    HW187053  10.530  10.814  12.042
61738SOL    HW287054  10.570  10.734  12.165
61739SOL     OW87055  12.896   8.521   1.519
61739SOL    HW187056  12.992   8.515   1.523
61739SOL    HW287057  12.869   8.520   1.611
61740SOL     OW87058   1.984   3.265  13.590
61740SOL    HW187059   1.937   3.313  13.658
61740SOL    HW287060   1.951   3.301  13.508
61741SOL     OW87061   9.637   6.175   3.981
61741SOL    HW187062   9.654   6.262   3.946
61741SOL    HW287063   9.572   6.138   3.922
61742SOL     OW87064   1.859   6.250   8.306
61742SOL    HW187065   1.873   6.335   8.266
61742SOL    HW287066   1.935   6.236   8.362
61743SOL     OW87067   8.643   3.671   3.200
61743SOL    HW187068   8.712   3.605   3.198
61743SOL    HW287069   8.678   3.741   3.256
61744SOL     OW87070  13.260  14.354   1.258
61744SOL    HW187071  13.353  14.335   1.268
61744SOL    HW287072  13.246  14.357   1.163
61745SOL     OW87073   3.535   4.589   9.851
61745SOL    HW187074   3.562   4.667   9.898
61745SOL    HW287075   3.565   4.516   9.904
61746SOL     OW87076  13.237   3.566   9.190
61746SOL    HW187077  13.143   3.568   9.169
61746SOL    HW287078  13.240   3.569   9.285
61747SOL     OW87079   6.302   8.968  12.598
61747SOL    HW187080   6.330   8.908  12.666
61747SOL    HW287081   6.247   8.915  12.540
61748SOL     OW87082  14.288  11.006  11.375
61748SOL    HW187083  14.266  10.956  11.454
61748SOL    HW287084  14.207  11.011  11.326
61749SOL     OW87085   3.255   6.227  10.107
61749SOL    HW187086   3.182   6.250  10.165
61749SOL    HW287087   3.322   6.292  10.127
61750SOL     OW87088   2.697   1.396   1.057
61750SOL    HW187089   2.747   1.329   1.011
61750SOL    HW287090   2.699   1.472   0.999
61751SOL     OW87091   5.303  12.889  11.257
61751SOL    HW187092   5.317  12.812  11.312
61751SOL    HW287093   5.320  12.859  11.168
61752SOL     OW87094   2.039  12.563   2.942
61752SOL    HW187095   2.079  12.635   2.894
61752SOL    HW287096   2.062  12.580   3.034
61753SOL     OW87097   7.484  12.293   7.243
61753SOL    HW187098   7.553  12.355   7.265
61753SOL    HW287099   7.427  12.341   7.182
61754SOL     OW87100  13.941  12.971   0.464
61754SOL    HW187101  13.948  12.907   0.393
61754SOL    HW287102  13.990  12.932   0.536
61755SOL     OW87103  14.303   0.891   1.496
61755SOL    HW187104  14.231   0.830   1.481
61755SOL    HW287105  14.263   0.963   1.546
61756SOL     OW87106   0.729  11.866  13.406
61756SOL    HW187107   0.817  11.903  13.416
61756SOL    HW287108   0.738  11.775  13.434
61757SOL     OW87109   8.676   0.653   6.013
61757SOL    HW187110   8.658   0.747   6.013
61757SOL    HW287111   8.738   0.641   6.085
61758SOL     OW87112   0.860  12.084   5.869
61758SOL    HW187113   0.882  12.034   5.790
61758SOL    HW287114   0.907  12.039   5.940
61759SOL     OW87115  12.003   9.396   5.530
61759SOL    HW187116  12.000   9.315   5.581
61759SOL    HW287117  11.911   9.415   5.511
61760SOL     OW87118   8.566   3.107  12.421
61760SOL    HW187119   8.491   3.147  12.376
61760SOL    HW287120   8.634   3.174  12.417
61761SOL     OW87121  10.161   5.768   4.855
61761SOL    HW187122  10.175   5.727   4.770
61761SOL    HW287123  10.203   5.708   4.917
61762SOL     OW87124   3.303   2.960   6.447
61762SOL    HW187125   3.286   2.881   6.396
61762SOL    HW287126   3.382   2.998   6.409
61763SOL     OW87127   4.297   5.732  13.784
61763SOL    HW187128   4.356   5.700  13.853
61763SOL    HW287129   4.264   5.652  13.743
61764SOL     OW87130  14.039  14.611   9.760
61764SOL    HW187131  13.968  14.660   9.803
61764SOL    HW287132  14.053  14.535   9.817
61765SOL     OW87133   2.722   1.262   3.998
61765SOL    HW187134   2.659   1.191   4.005
61765SOL    HW287135   2.741   1.286   4.089
61766SOL     OW87136   4.709   4.023   7.632
61766SOL    HW187137   4.750   4.107   7.611
61766SOL    HW287138   4.736   4.005   7.722
61767SOL     OW87139   2.765   8.643   3.600
61767SOL    HW187140   2.831   8.641   3.531
61767SOL    HW287141   2.744   8.551   3.616
61768SOL     OW87142  13.278  13.947   9.642
61768SOL    HW187143  13.357  13.961   9.694
61768SOL    HW287144  13.309  13.904   9.563
61769SOL     OW87145  14.333   5.524   6.711
61769SOL    HW187146  14.416   5.528   6.759
61769SOL    HW287147  14.322   5.612   6.676
61770SOL     OW87148  10.411   4.933   2.078
61770SOL    HW187149  10.358   4.883   2.140
61770SOL    HW287150  10.382   5.024   2.090
61771SOL     OW87151   0.763  14.030  10.802
61771SOL    HW187152   0.672  13.999  10.802
61771SOL    HW287153   0.762  14.105  10.861
61772SOL     OW87154  13.679   6.064   5.582
61772SOL    HW187155  13.693   6.122   5.656
61772SOL    HW287156  13.697   6.118   5.505
61773SOL     OW87157   3.023   2.104   6.045
61773SOL    HW187158   3.119   2.099   6.051
61773SOL    HW287159   2.993   2.020   6.080
61774SOL     OW87160   2.184  12.515   7.821
61774SOL    HW187161   2.188  12.604   7.855
61774SOL    HW287162   2.140  12.523   7.737
61775SOL     OW87163   4.734   4.673  12.127
61775SOL    HW187164   4.676   4.635  12.193
61775SOL    HW287165   4.777   4.746  12.171
61776SOL     OW87166   8.737   2.858   9.273
61776SOL    HW187167   8.818   2.808   9.278
61776SOL    HW287168   8.735   2.892   9.183
61777SOL     OW87169  11.452   7.984   4.862
61777SOL    HW187170  11.413   7.994   4.949
61777SOL    HW287171  11.382   7.949   4.808
61778SOL     OW87172  11.405  10.441   2.181
61778SOL    HW187173  11.468  10.507   2.210
61778SOL    HW287174  11.453  10.387   2.119
61779SOL     OW87175  13.504   3.331   1.361
61779SOL    HW187176  13.531   3.410   1.409
61779SOL    HW287177  13.537   3.259   1.415
61780SOL     OW87178   1.605   4.401  13.811
61780SOL    HW187179   1.679   4.416  13.752
61780SOL    HW287180   1.540   4.466  13.784
61781SOL     OW87181   2.719   9.041   2.531
61781SOL    HW187182   2.659   8.968   2.516
61781SOL    HW287183   2.788   9.005   2.587
61782SOL     OW87184   8.607  11.148   3.196
61782SOL    HW187185   8.636  11.097   3.120
61782SOL    HW287186   8.573  11.083   3.256
61783SOL     OW87187   2.617  13.150  14.056
61783SOL    HW187188   2.540  13.205  14.071
61783SOL    HW287189   2.691  13.208  14.075
61784SOL     OW87190   4.351   5.121  10.736
61784SOL    HW187191   4.287   5.189  10.712
61784SOL    HW287192   4.380   5.085  10.653
61785SOL     OW87193  14.465   6.192  10.147
61785SOL    HW187194  14.517   6.145  10.212
61785SOL    HW287195  14.461   6.282  10.179
61786SOL     OW87196   9.098   3.524   9.582
61786SOL    HW187197   9.046   3.490   9.655
61786SOL    HW287198   9.036   3.577   9.531
61787SOL     OW87199  14.616   2.299  12.332
61787SOL    HW187200  14.642   2.331  12.419
61787SOL    HW287201  14.521   2.307  12.332
61788SOL     OW87202   8.669   1.321   0.014
61788SOL    HW187203   8.607   1.371  14.835
61788SOL    HW287204   8.621   1.298   0.094
61789SOL     OW87205   2.084   6.246   2.199
61789SOL    HW187206   2.017   6.196   2.244
61789SOL    HW287207   2.065   6.337   2.221
61790SOL     OW87208   0.474   6.493  10.262
61790SOL    HW187209   0.513   6.546  10.192
61790SOL    HW287210   0.393   6.459  10.223
61791SOL     OW87211   8.471   1.567   1.457
61791SOL    HW187212   8.531   1.526   1.519
61791SOL    HW287213   8.384   1.545   1.489
61792SOL     OW87214  12.449   5.938  10.930
61792SOL    HW187215  12.415   5.983  10.853
61792SOL    HW287216  12.377   5.880  10.957
61793SOL     OW87217   3.085   5.873  10.201
61793SOL    HW187218   3.001   5.901  10.236
61793SOL    HW287219   3.074   5.780  10.181
61794SOL     OW87220   1.629  10.479   1.697
61794SOL    HW187221   1.561  10.513   1.755
61794SOL    HW287222   1.635  10.386   1.719
61795SOL     OW87223   0.963   2.793  14.501
61795SOL    HW187224   1.028   2.859  14.525
61795SOL    HW287225   0.901   2.793  14.574
61796SOL     OW87226   5.954   8.739   3.255
61796SOL    HW187227   5.908   8.810   3.299
61796SOL    HW287228   5.887   8.672   3.241
61797SOL     OW87229   5.026   7.587   1.050
61797SOL    HW187230   5.027   7.519   0.982
61797SOL    HW287231   4.974   7.658   1.012
61798SOL     OW87232   2.661  10.569   0.271
61798SOL    HW187233   2.683  10.597   0.182
61798SOL    HW287234   2.603  10.638   0.304
61799SOL     OW87235   7.557   1.891   0.463
61799SOL    HW187236   7.476   1.840   0.461
61799SOL    HW287237   7.627   1.825   0.453
61800SOL     OW87238  10.345   0.699   3.970
61800SOL    HW187239  10.301   0.638   3.910
61800SOL    HW287240  10.289   0.777   3.969
61801SOL     OW87241  10.958  12.484  11.254
61801SOL    HW187242  10.947  12.424  11.180
61801SOL    HW287243  11.049  12.472  11.281
61802SOL     OW87244   9.819   9.963  14.274
61802SOL    HW187245   9.859   9.884  14.312
61802SOL    HW287246   9.849   9.962  14.183
61803SOL     OW87247   9.417  14.105   9.380
61803SOL    HW187248   9.342  14.103   9.439
61803SOL    HW287249   9.473  14.034   9.411
61804SOL     OW87250  10.708  12.716   6.148
61804SOL    HW187251  10.678  12.733   6.059
61804SOL    HW287252  10.671  12.788   6.199
61805SOL     OW87253   9.676  11.896   9.340
61805SOL    HW187254   9.676  11.880   9.246
61805SOL    HW287255   9.754  11.949   9.355
61806SOL     OW87256   2.310  14.166   4.210
61806SOL    HW187257   2.339  14.074   4.218
61806SOL    HW287258   2.236  14.173   4.271
61807SOL     OW87259   1.488   6.812  14.726
61807SOL    HW187260   1.510   6.900  14.695
61807SOL    HW287261   1.492   6.819  14.821
61808SOL     OW87262   5.661  13.719  12.382
61808SOL    HW187263   5.637  13.725  12.289
61808SOL    HW287264   5.722  13.792  12.395
61809SOL     OW87265   9.931   4.319  13.511
61809SOL    HW187266   9.997   4.380  13.546
61809SOL    HW287267   9.932   4.334  13.417
61810SOL     OW87268   7.658   5.697   7.684
61810SOL    HW187269   7.707   5.616   7.692
61810SOL    HW287270   7.632   5.702   7.592
61811SOL     OW87271  11.041  11.088   0.667
61811SOL    HW187272  10.967  11.124   0.616
61811SOL    HW287273  11.048  11.147   0.742
61812SOL     OW87274   1.789   5.020  10.239
61812SOL    HW187275   1.882   5.037  10.255
61812SOL    HW287276   1.749   5.028  10.325
61813SOL     OW87277  10.031   7.713   6.739
61813SOL    HW187278   9.970   7.782   6.765
61813SOL    HW287279  10.102   7.718   6.804
61814SOL     OW87280   6.095   0.089  14.671
61814SOL    HW187281   6.157   0.017  14.660
61814SOL    HW287282   6.017   0.060  14.623
61815SOL     OW87283  12.804   3.463  11.561
61815SOL    HW187284  12.835   3.391  11.508
61815SOL    HW287285  12.761   3.422  11.636
61816SOL     OW87286   4.009   2.185   0.194
61816SOL    HW187287   3.926   2.141   0.211
61816SOL    HW287288   3.992   2.240   0.117
61817SOL     OW87289  14.056   6.051   0.484
61817SOL    HW187290  13.995   6.013   0.421
61817SOL    HW287291  14.053   6.145   0.467
61818SOL     OW87292   1.161  11.861   0.975
61818SOL    HW187293   1.096  11.810   1.025
61818SOL    HW287294   1.241  11.809   0.981
61819SOL     OW87295   6.725   1.652  13.418
61819SOL    HW187296   6.691   1.606  13.495
61819SOL    HW287297   6.658   1.640  13.351
61820SOL     OW87298   4.281   7.290   1.623
61820SOL    HW187299   4.322   7.209   1.651
61820SOL    HW287300   4.252   7.332   1.705
61821SOL     OW87301   6.372  12.045   3.486
61821SOL    HW187302   6.441  12.001   3.535
61821SOL    HW287303   6.293  12.031   3.538
61822SOL     OW87304   3.118   6.932   7.963
61822SOL    HW187305   3.172   6.855   7.980
61822SOL    HW287306   3.067   6.943   8.043
61823SOL     OW87307   2.905   3.530  13.124
61823SOL    HW187308   2.894   3.490  13.210
61823SOL    HW287309   2.998   3.520  13.105
61824SOL     OW87310   8.664   2.924  10.563
61824SOL    HW187311   8.589   2.882  10.522
61824SOL    HW287312   8.627   2.983  10.629
61825SOL     OW87313   9.151  10.604   4.857
61825SOL    HW187314   9.134  10.600   4.763
61825SOL    HW287315   9.227  10.547   4.871
61826SOL     OW87316   6.224  10.117  11.548
61826SOL    HW187317   6.239  10.095  11.640
61826SOL    HW287318   6.311  10.121  11.510
61827SOL     OW87319  12.219   1.025   2.238
61827SOL    HW187320  12.234   0.974   2.158
61827SOL    HW287321  12.125   1.017   2.254
61828SOL     OW87322   0.659  10.175  14.629
61828SOL    HW187323   0.717  10.119  14.681
61828SOL    HW287324   0.606  10.221  14.694
61829SOL     OW87325   9.737   7.712  12.114
61829SOL    HW187326   9.829   7.710  12.085
61829SOL    HW287327   9.738   7.771  12.190
61830SOL     OW87328   0.150   4.917  13.516
61830SOL    HW187329   0.134   4.900  13.423
61830SOL    HW287330   0.235   4.876  13.533
61831SOL     OW87331  13.451  14.749   6.975
61831SOL    HW187332  13.462  14.822   7.037
61831SOL    HW287333  13.508  14.771   6.901
61832SOL     OW87334   6.511   5.263   8.497
61832SOL    HW187335   6.425   5.277   8.538
61832SOL    HW287336   6.556   5.347   8.506
61833SOL     OW87337  13.883   2.233  13.471
61833SOL    HW187338  13.937   2.189  13.405
61833SOL    HW287339  13.939   2.237  13.548
61834SOL     OW87340  10.453   3.929  10.652
61834SOL    HW187341  10.518   3.955  10.718
61834SOL    HW287342  10.433   4.009  10.605
61835SOL     OW87343  14.122   3.942   5.874
61835SOL    HW187344  14.106   3.849   5.893
61835SOL    HW287345  14.039   3.985   5.896
61836SOL     OW87346   2.883   8.242   2.710
61836SOL    HW187347   2.876   8.255   2.805
61836SOL    HW287348   2.883   8.331   2.674
61837SOL     OW87349   8.928   2.074   4.903
61837SOL    HW187350   8.971   2.051   4.821
61837SOL    HW287351   8.874   2.149   4.882
61838SOL     OW87352   7.610   8.950   5.406
61838SOL    HW187353   7.618   9.037   5.366
61838SOL    HW287354   7.646   8.890   5.342
61839SOL     OW87355  13.210   5.664   7.226
61839SOL    HW187356  13.115   5.662   7.213
61839SOL    HW287357  13.233   5.575   7.250
61840SOL     OW87358   2.658   1.934  12.291
61840SOL    HW187359   2.638   1.934  12.198
61840SOL    HW287360   2.720   1.862  12.302
61841SOL     OW87361   4.919   4.440  12.943
61841SOL    HW187362   4.973   4.397  12.877
61841SOL    HW287363   4.906   4.528  12.910
61842SOL     OW87364   1.847   8.114  11.290
61842SOL    HW187365   1.892   8.046  11.340
61842SOL    HW287366   1.901   8.193  11.303
61843SOL     OW87367  11.015   3.526   5.213
61843SOL    HW187368  11.001   3.432   5.204
61843SOL    HW287369  10.950   3.565   5.156
61844SOL     OW87370   3.192  13.288  10.869
61844SOL    HW187371   3.275  13.246  10.889
61844SOL    HW287372   3.135  13.216  10.841
61845SOL     OW87373   6.796  10.331   3.359
61845SOL    HW187374   6.818  10.261   3.420
61845SOL    HW287375   6.726  10.381   3.403
61846SOL     OW87376   9.490   3.080   9.299
61846SOL    HW187377   9.487   3.086   9.204
61846SOL    HW287378   9.399   3.087   9.327
61847SOL     OW87379   0.910   4.733  13.473
61847SOL    HW187380   0.937   4.775  13.391
61847SOL    HW287381   0.815   4.726  13.466
61848SOL     OW87382   2.978   0.060   1.340
61848SOL    HW187383   3.050   0.040   1.401
61848SOL    HW287384   2.905   0.007   1.372
61849SOL     OW87385   8.473   7.446   0.046
61849SOL    HW187386   8.441   7.411  14.836
61849SOL    HW287387   8.563   7.415   0.052
61850SOL     OW87388  10.041   4.638   9.154
61850SOL    HW187389  10.022   4.699   9.082
61850SOL    HW287390  10.056   4.695   9.230
61851SOL     OW87391  13.001  12.698   5.915
61851SOL    HW187392  12.968  12.609   5.909
61851SOL    HW287393  12.933  12.746   5.962
61852SOL     OW87394   9.883   0.377   5.718
61852SOL    HW187395   9.875   0.348   5.809
61852SOL    HW287396   9.840   0.463   5.716
61853SOL     OW87397   0.162   7.957   2.188
61853SOL    HW187398   0.139   8.012   2.262
61853SOL    HW287399   0.218   7.889   2.225
61854SOL     OW87400  12.245  12.743  13.351
61854SOL    HW187401  12.318  12.744  13.290
61854SOL    HW287402  12.273  12.797  13.424
61855SOL     OW87403   8.551  10.448   0.191
61855SOL    HW187404   8.551  10.394   0.271
61855SOL    HW287405   8.612  10.403   0.132
61856SOL     OW87406   3.587  11.294   4.871
61856SOL    HW187407   3.675  11.287   4.833
61856SOL    HW287408   3.596  11.259   4.959
61857SOL     OW87409   2.481  11.850  10.602
61857SOL    HW187410   2.494  11.821  10.511
61857SOL    HW287411   2.510  11.776  10.655
61858SOL     OW87412   5.159   9.248  12.942
61858SOL    HW187413   5.169   9.302  13.020
61858SOL    HW287414   5.247   9.217  12.923
61859SOL     OW87415   4.779   9.407   4.199
61859SOL    HW187416   4.875   9.397   4.195
61859SOL    HW287417   4.757   9.383   4.289
61860SOL     OW87418  12.886   3.449   6.697
61860SOL    HW187419  12.813   3.449   6.758
61860SOL    HW287420  12.934   3.529   6.716
61861SOL     OW87421   3.144   3.560  10.743
61861SOL    HW187422   3.186   3.600  10.820
61861SOL    HW287423   3.191   3.597  10.668
61862SOL     OW87424   6.385   3.343   2.514
61862SOL    HW187425   6.306   3.308   2.473
61862SOL    HW287426   6.361   3.431   2.542
61863SOL     OW87427   5.687   2.840  12.636
61863SOL    HW187428   5.592   2.843  12.624
61863SOL    HW287429   5.720   2.789  12.562
61864SOL     OW87430   6.256   6.473  14.598
61864SOL    HW187431   6.205   6.554  14.594
61864SOL    HW287432   6.214   6.422  14.668
61865SOL     OW87433   1.619   9.352  10.685
61865SOL    HW187434   1.678   9.401  10.743
61865SOL    HW287435   1.617   9.403  10.604
61866SOL     OW87436   7.375   3.823   7.986
61866SOL    HW187437   7.287   3.857   7.971
61866SOL    HW287438   7.433   3.882   7.937
61867SOL     OW87439   5.566  12.305  13.394
61867SOL    HW187440   5.591  12.223  13.353
61867SOL    HW287441   5.487  12.333  13.346
61868SOL     OW87442  10.679  10.110  14.240
61868SOL    HW187443  10.600  10.060  14.264
61868SOL    HW287444  10.646  10.185  14.191
61869SOL     OW87445   8.096  10.485   6.239
61869SOL    HW187446   8.177  10.526   6.270
61869SOL    HW287447   8.037  10.488   6.314
61870SOL     OW87448  10.124   9.214   3.930
61870SOL    HW187449  10.039   9.168   3.932
61870SOL    HW287450  10.188   9.144   3.914
61871SOL     OW87451   2.811   1.650   8.751
61871SOL    HW187452   2.730   1.608   8.721
61871SOL    HW287453   2.881   1.601   8.710
61872SOL     OW87454  12.184   2.768   0.032
61872SOL    HW187455  12.114   2.821   0.070
61872SOL    HW287456  12.235   2.737   0.107
61873SOL     OW87457   4.990   2.792   5.300
61873SOL    HW187458   5.007   2.848   5.225
61873SOL    HW287459   4.896   2.801   5.316
61874SOL     OW87460  11.487   5.667   6.528
61874SOL    HW187461  11.540   5.590   6.511
61874SOL    HW287462  11.404   5.650   6.482
61875SOL     OW87463   1.612  11.651  12.874
61875SOL    HW187464   1.649  11.572  12.912
61875SOL    HW287465   1.662  11.665  12.793
61876SOL     OW87466  14.357  14.224   6.567
61876SOL    HW187467  14.384  14.228   6.659
61876SOL    HW287468  14.270  14.264   6.565
61877SOL     OW87469   4.891  11.020  13.061
61877SOL    HW187470   4.903  11.111  13.086
61877SOL    HW287471   4.977  10.979  13.073
61878SOL     OW87472   4.230  10.509   1.311
61878SOL    HW187473   4.255  10.438   1.251
61878SOL    HW287474   4.180  10.465   1.380
61879SOL     OW87475  13.022   7.738   8.381
61879SOL    HW187476  13.056   7.721   8.468
61879SOL    HW287477  12.927   7.739   8.393
61880SOL     OW87478   6.895  11.882  11.907
61880SOL    HW187479   6.838  11.843  11.972
61880SOL    HW287480   6.953  11.810  11.879
61881SOL     OW87481   5.306   2.228  14.843
61881SOL    HW187482   5.349   2.278   0.040
61881SOL    HW287483   5.370   2.161  14.819
61882SOL     OW87484  10.438  10.083   1.665
61882SOL    HW187485  10.486  10.141   1.606
61882SOL    HW287486  10.479  10.095   1.750
61883SOL     OW87487   9.887   2.885   6.909
61883SOL    HW187488   9.981   2.891   6.924
61883SOL    HW287489   9.863   2.971   6.875
61884SOL     OW87490   8.291   7.755   1.519
61884SOL    HW187491   8.291   7.793   1.606
61884SOL    HW287492   8.289   7.660   1.534
61885SOL     OW87493  14.848   0.376  11.681
61885SOL    HW187494  14.803   0.320  11.744
61885SOL    HW287495   0.030   0.433  11.734
61886SOL     OW87496   7.034  13.169  13.615
61886SOL    HW187497   7.129  13.165  13.616
61886SOL    HW287498   7.010  13.200  13.702
61887SOL     OW87499  13.980  12.393   0.049
61887SOL    HW187500  14.075  12.405   0.053
61887SOL    HW287501  13.945  12.482   0.051
61888SOL     OW87502   3.623  10.784   6.357
61888SOL    HW187503   3.623  10.822   6.445
61888SOL    HW287504   3.594  10.855   6.300
61889SOL     OW87505   6.750  12.465   0.163
61889SOL    HW187506   6.754  12.372   0.140
61889SOL    HW287507   6.841  12.490   0.175
61890SOL     OW87508   5.777   1.514   6.393
61890SOL    HW187509   5.775   1.577   6.321
61890SOL    HW287510   5.823   1.559   6.464
61891SOL     OW87511   8.401   8.815   1.477
61891SOL    HW187512   8.455   8.880   1.522
61891SOL    HW287513   8.317   8.820   1.522
61892SOL     OW87514  11.595   5.933   8.810
61892SOL    HW187515  11.510   5.931   8.856
61892SOL    HW287516  11.660   5.927   8.880
61893SOL     OW87517   9.157  10.234  12.879
61893SOL    HW187518   9.062  10.243  12.872
61893SOL    HW287519   9.187  10.225  12.788
61894SOL     OW87520   0.569  13.426   2.092
61894SOL    HW187521   0.541  13.412   2.182
61894SOL    HW287522   0.646  13.371   2.080
61895SOL     OW87523   9.445   6.677  12.362
61895SOL    HW187524   9.422   6.767  12.386
61895SOL    HW287525   9.440   6.629  12.445
61896SOL     OW87526  11.378   4.884  12.714
61896SOL    HW187527  11.322   4.809  12.735
61896SOL    HW287528  11.318   4.957  12.703
61897SOL     OW87529   8.863   4.383   3.273
61897SOL    HW187530   8.807   4.320   3.228
61897SOL    HW287531   8.941   4.390   3.218
61898SOL     OW87532   0.833  11.552  13.311
61898SOL    HW187533   0.924  11.583  13.309
61898SOL    HW287534   0.839  11.460  13.338
61899SOL     OW87535   1.573  12.371   2.892
61899SOL    HW187536   1.627  12.412   2.960
61899SOL    HW287537   1.605  12.280   2.889
61900SOL     OW87538   1.898   5.272  10.972
61900SOL    HW187539   1.827   5.211  10.954
61900SOL    HW287540   1.874   5.352  10.926
61901SOL     OW87541   0.571   1.022   4.345
61901SOL    HW187542   0.563   0.937   4.388
61901SOL    HW287543   0.516   1.081   4.397
61902SOL     OW87544   3.040   8.185   9.634
61902SOL    HW187545   3.034   8.103   9.684
61902SOL    HW287546   3.038   8.253   9.701
61903SOL     OW87547   6.653   7.893  14.639
61903SOL    HW187548   6.644   7.811  14.589
61903SOL    HW287549   6.595   7.955  14.594
61904SOL     OW87550   1.158   9.542   1.542
61904SOL    HW187551   1.171   9.473   1.607
61904SOL    HW287552   1.198   9.508   1.463
61905SOL     OW87553   2.494  10.921   3.207
61905SOL    HW187554   2.414  10.871   3.224
61905SOL    HW287555   2.506  10.975   3.285
61906SOL     OW87556  14.321  11.384   1.263
61906SOL    HW187557  14.311  11.449   1.194
61906SOL    HW287558  14.382  11.320   1.227
61907SOL     OW87559   5.123   3.491   3.815
61907SOL    HW187560   5.181   3.430   3.861
61907SOL    HW287561   5.075   3.536   3.885
61908SOL     OW87562   7.534  13.539  12.286
61908SOL    HW187563   7.558  13.586  12.365
61908SOL    HW287564   7.593  13.463  12.285
61909SOL     OW87565  13.336   8.714   2.966
61909SOL    HW187566  13.284   8.778   3.015
61909SOL    HW287567  13.337   8.747   2.876
61910SOL     OW87568   5.154   0.450   7.091
61910SOL    HW187569   5.232   0.492   7.054
61910SOL    HW287570   5.188   0.384   7.152
61911SOL     OW87571   3.710  12.728   8.723
61911SOL    HW187572   3.649  12.782   8.772
61911SOL    HW287573   3.694  12.751   8.631
61912SOL     OW87574   7.277  13.768  13.809
61912SOL    HW187575   7.238  13.808  13.732
61912SOL    HW287576   7.253  13.675  13.803
61913SOL     OW87577  14.220   5.860  11.357
61913SOL    HW187578  14.281   5.888  11.426
61913SOL    HW287579  14.259   5.781  11.321
61914SOL     OW87580   0.177  11.981   4.744
61914SOL    HW187581   0.170  11.908   4.682
61914SOL    HW287582   0.245  11.953   4.806
61915SOL     OW87583   1.355   8.832   2.614
61915SOL    HW187584   1.437   8.880   2.600
61915SOL    HW287585   1.325   8.861   2.700
61916SOL     OW87586   8.941  10.623   9.065
61916SOL    HW187587   9.034  10.633   9.046
61916SOL    HW287588   8.903  10.710   9.047
61917SOL     OW87589   0.496  11.104   8.577
61917SOL    HW187590   0.554  11.048   8.628
61917SOL    HW287591   0.511  11.078   8.486
61918SOL     OW87592   3.436   3.867   2.335
61918SOL    HW187593   3.371   3.881   2.404
61918SOL    HW287594   3.447   3.953   2.294
61919SOL     OW87595   2.300  11.269   9.555
61919SOL    HW187596   2.385  11.288   9.594
61919SOL    HW287597   2.319  11.214   9.479
61920SOL     OW87598   7.953  14.096  10.528
61920SOL    HW187599   7.967  14.069  10.437
61920SOL    HW287600   7.865  14.135  10.528
61921SOL     OW87601   2.735  12.922  12.345
61921SOL    HW187602   2.650  12.918  12.301
61921SOL    HW287603   2.784  12.988  12.295
61922SOL     OW87604   1.562   9.776  11.075
61922SOL    HW187605   1.492   9.823  11.119
61922SOL    HW287606   1.531   9.686  11.070
61923SOL     OW87607   8.592  14.798   2.076
61923SOL    HW187608   8.655  14.786   2.147
61923SOL    HW287609   8.551  14.712   2.067
61924SOL     OW87610  12.887   5.642   6.311
61924SOL    HW187611  12.902   5.720   6.365
61924SOL    HW287612  12.894   5.673   6.221
61925SOL     OW87613   4.278  12.933   9.076
61925SOL    HW187614   4.216  12.965   9.141
61925SOL    HW287615   4.258  12.983   8.997
61926SOL     OW87616  12.139   1.354   4.482
61926SOL    HW187617  12.090   1.354   4.564
61926SOL    HW287618  12.222   1.395   4.504
61927SOL     OW87619   9.456   8.764  10.581
61927SOL    HW187620   9.537   8.773  10.530
61927SOL    HW287621   9.444   8.670  10.591
61928SOL     OW87622   6.498   2.110  12.862
61928SOL    HW187623   6.439   2.132  12.790
61928SOL    HW287624   6.570   2.062  12.819
61929SOL     OW87625   4.785   9.056  14.430
61929SOL    HW187626   4.716   9.052  14.364
61929SOL    HW287627   4.800   8.965  14.454
61930SOL     OW87628  10.201   2.163   8.144
61930SOL    HW187629  10.172   2.246   8.107
61930SOL    HW287630  10.219   2.107   8.067
61931SOL     OW87631   0.798   8.933  11.483
61931SOL    HW187632   0.843   8.974  11.410
61931SOL    HW287633   0.826   8.841  11.480
61932SOL     OW87634  11.481  10.381   8.242
61932SOL    HW187635  11.449  10.292   8.259
61932SOL    HW287636  11.515  10.377   8.153
61933SOL     OW87637  13.819   1.529   6.475
61933SOL    HW187638  13.797   1.582   6.398
61933SOL    HW287639  13.878   1.585   6.526
61934SOL     OW87640   2.491  14.355  14.360
61934SOL    HW187641   2.429  14.308  14.416
61934SOL    HW287642   2.563  14.293  14.346
61935SOL     OW87643  14.481   2.041   1.222
61935SOL    HW187644  14.561   2.089   1.243
61935SOL    HW287645  14.412   2.089   1.268
61936SOL     OW87646   5.168   7.625   3.298
61936SOL    HW187647   5.183   7.554   3.361
61936SOL    HW287648   5.163   7.704   3.352
61937SOL     OW87649   4.765  14.676   5.088
61937SOL    HW187650   4.755  14.766   5.056
61937SOL    HW287651   4.859  14.665   5.101
61938SOL     OW87652   2.754   6.444   3.999
61938SOL    HW187653   2.734   6.353   3.977
61938SOL    HW287654   2.677   6.494   3.973
61939SOL     OW87655   7.325   6.266   8.284
61939SOL    HW187656   7.304   6.231   8.197
61939SOL    HW287657   7.290   6.355   8.283
61940SOL     OW87658  13.176   0.336  10.410
61940SOL    HW187659  13.123   0.309  10.485
61940SOL    HW287660  13.113   0.356  10.341
61941SOL     OW87661   4.848   3.218  13.359
61941SOL    HW187662   4.905   3.279  13.311
61941SOL    HW287663   4.800   3.273  13.421
61942SOL     OW87664   9.771   1.334  11.496
61942SOL    HW187665   9.698   1.272  11.489
61942SOL    HW287666   9.822   1.318  11.417
61943SOL     OW87667  11.220  11.283  13.136
61943SOL    HW187668  11.312  11.306  13.120
61943SOL    HW287669  11.209  11.199  13.091
61944SOL     OW87670  12.465   6.909  11.617
61944SOL    HW187671  12.410   6.834  11.639
61944SOL    HW287672  12.540   6.871  11.572
61945SOL     OW87673  14.519   0.512  14.421
61945SOL    HW187674  14.606   0.511  14.459
61945SOL    HW287675  14.460   0.514  14.496
61946SOL     OW87676   7.783  10.126  14.597
61946SOL    HW187677   7.774  10.221  14.588
61946SOL    HW287678   7.849  10.114  14.666
61947SOL     OW87679  11.432   3.698   1.359
61947SOL    HW187680  11.487   3.643   1.303
61947SOL    HW287681  11.487   3.716   1.435
61948SOL     OW87682   1.257   6.154  14.696
61948SOL    HW187683   1.265   6.209  14.618
61948SOL    HW287684   1.297   6.205  14.766
61949SOL     OW87685   3.646   7.533   9.230
61949SOL    HW187686   3.706   7.590   9.277
61949SOL    HW287687   3.703   7.476   9.178
61950SOL     OW87688  13.927   4.258   4.945
61950SOL    HW187689  13.853   4.300   4.989
61950SOL    HW287690  13.933   4.302   4.860
61951SOL     OW87691   7.791   6.992   0.553
61951SOL    HW187692   7.778   6.994   0.459
61951SOL    HW287693   7.709   6.959   0.589
61952SOL     OW87694   2.881   5.015  14.831
61952SOL    HW187695   2.909   5.021   0.049
61952SOL    HW287696   2.895   4.923  14.807
61953SOL     OW87697   6.139  10.666   4.247
61953SOL    HW187698   6.162  10.661   4.340
61953SOL    HW287699   6.119  10.758   4.232
61954SOL     OW87700   6.970  12.367   2.557
61954SOL    HW187701   6.994  12.431   2.624
61954SOL    HW287702   7.039  12.301   2.560
61955SOL     OW87703   9.679   5.297   7.097
61955SOL    HW187704   9.605   5.326   7.043
61955SOL    HW287705   9.660   5.329   7.184
61956SOL     OW87706   5.350   2.879   3.245
61956SOL    HW187707   5.439   2.902   3.270
61956SOL    HW287708   5.302   2.876   3.328
61957SOL     OW87709   7.648   9.935   5.403
61957SOL    HW187710   7.564   9.940   5.449
61957SOL    HW287711   7.692   9.859   5.442
61958SOL     OW87712   7.902   4.634  13.150
61958SOL    HW187713   7.838   4.701  13.127
61958SOL    HW287714   7.911   4.641  13.245
61959SOL     OW87715   4.201   2.747   3.828
61959SOL    HW187716   4.180   2.744   3.735
61959SOL    HW287717   4.171   2.834   3.857
61960SOL     OW87718  11.722   3.819  13.750
61960SOL    HW187719  11.722   3.879  13.676
61960SOL    HW287720  11.729   3.732  13.710
61961SOL     OW87721  10.015  12.760   3.295
61961SOL    HW187722  10.025  12.672   3.259
61961SOL    HW287723  10.105  12.791   3.308
61962SOL     OW87724  14.367  10.779   8.149
61962SOL    HW187725  14.295  10.727   8.113
61962SOL    HW287726  14.324  10.858   8.183
61963SOL     OW87727  12.809  12.930  10.020
61963SOL    HW187728  12.830  12.910   9.929
61963SOL    HW287729  12.827  13.023  10.029
61964SOL     OW87730   4.069   4.388   4.694
61964SOL    HW187731   4.081   4.394   4.788
61964SOL    HW287732   3.977   4.410   4.679
61965SOL     OW87733   6.707   9.423   1.477
61965SOL    HW187734   6.770   9.400   1.409
61965SOL    HW287735   6.664   9.502   1.444
61966SOL     OW87736  12.431  10.212  13.151
61966SOL    HW187737  12.502  10.225  13.087
61966SOL    HW287738  12.411  10.301  13.182
61967SOL     OW87739   7.248   8.416   3.350
61967SOL    HW187740   7.215   8.493   3.305
61967SOL    HW287741   7.341   8.434   3.364
61968SOL     OW87742   7.762   5.208   1.137
61968SOL    HW187743   7.675   5.198   1.174
61968SOL    HW287744   7.818   5.152   1.191
61969SOL     OW87745   9.506   6.296   1.640
61969SOL    HW187746   9.500   6.200   1.638
61969SOL    HW287747   9.474   6.323   1.554
61970SOL     OW87748  14.342   8.990  11.368
61970SOL    HW187749  14.288   9.000  11.290
61970SOL    HW287750  14.398   9.068  11.369
61971SOL     OW87751   8.389   3.793   7.908
61971SOL    HW187752   8.354   3.822   7.823
61971SOL    HW287753   8.461   3.734   7.885
61972SOL     OW87754   1.821   9.072   1.353
61972SOL    HW187755   1.879   9.125   1.299
61972SOL    HW287756   1.825   9.112   1.440
61973SOL     OW87757   7.335   7.167   6.530
61973SOL    HW187758   7.320   7.086   6.482
61973SOL    HW287759   7.277   7.232   6.489
61974SOL     OW87760   0.457  10.711   5.909
61974SOL    HW187761   0.546  10.722   5.942
61974SOL    HW287762   0.443  10.785   5.849
61975SOL     OW87763   2.783  13.456   4.917
61975SOL    HW187764   2.755  13.503   4.839
61975SOL    HW287765   2.855  13.401   4.887
61976SOL     OW87766  12.520   9.665   1.493
61976SOL    HW187767  12.479   9.750   1.508
61976SOL    HW287768  12.553   9.639   1.579
61977SOL     OW87769   0.615  11.171  12.057
61977SOL    HW187770   0.556  11.225  12.004
61977SOL    HW287771   0.635  11.226  12.133
61978SOL     OW87772  10.484  10.248   8.337
61978SOL    HW187773  10.475  10.164   8.383
61978SOL    HW287774  10.404  10.295   8.358
61979SOL     OW87775   2.292   4.900   9.800
61979SOL    HW187776   2.276   4.891   9.894
61979SOL    HW287777   2.215   4.859   9.759
61980SOL     OW87778   7.961   6.497   3.826
61980SOL    HW187779   7.871   6.497   3.792
61980SOL    HW287780   8.016   6.487   3.748
61981SOL     OW87781   0.448  12.706  11.681
61981SOL    HW187782   0.416  12.624  11.644
61981SOL    HW287783   0.390  12.722  11.756
61982SOL     OW87784   5.316   1.261  12.319
61982SOL    HW187785   5.263   1.277  12.398
61982SOL    HW287786   5.267   1.303  12.248
61983SOL     OW87787   7.102   7.571   7.049
61983SOL    HW187788   7.042   7.581   7.123
61983SOL    HW287789   7.165   7.643   7.059
61984SOL     OW87790   3.874  12.765   7.583
61984SOL    HW187791   3.829  12.849   7.596
61984SOL    HW287792   3.952  12.788   7.533
61985SOL     OW87793   7.076   0.383  12.207
61985SOL    HW187794   7.047   0.436  12.281
61985SOL    HW287795   7.007   0.393  12.142
61986SOL     OW87796   7.035   1.527   3.024
61986SOL    HW187797   7.025   1.476   3.104
61986SOL    HW287798   7.094   1.474   2.969
61987SOL     OW87799   8.827   1.461  11.987
61987SOL    HW187800   8.792   1.547  12.012
61987SOL    HW287801   8.831   1.412  12.068
61988SOL     OW87802   9.212   4.459   7.087
61988SOL    HW187803   9.302   4.488   7.100
61988SOL    HW287804   9.218   4.388   7.024
61989SOL     OW87805   1.054   0.661   7.466
61989SOL    HW187806   1.112   0.585   7.466
61989SOL    HW287807   1.070   0.703   7.550
61990SOL     OW87808  14.745   7.130   5.219
61990SOL    HW187809  14.662   7.148   5.175
61990SOL    HW287810  14.727   7.056   5.277
61991SOL     OW87811   2.240   5.346   0.510
61991SOL    HW187812   2.176   5.414   0.533
61991SOL    HW287813   2.310   5.393   0.465
61992SOL     OW87814   5.581   1.190  11.441
61992SOL    HW187815   5.605   1.266  11.387
61992SOL    HW287816   5.613   1.114  11.390
61993SOL     OW87817   1.319  11.104  14.284
61993SOL    HW187818   1.371  11.183  14.304
61993SOL    HW287819   1.379  11.032  14.302
61994SOL     OW87820   4.227   7.945  13.602
61994SOL    HW187821   4.241   7.869  13.659
61994SOL    HW287822   4.238   7.911  13.513
61995SOL     OW87823   0.015   2.181   2.779
61995SOL    HW187824  14.813   2.128   2.754
61995SOL    HW287825   0.090   2.138   2.738
61996SOL     OW87826   8.951   7.006   8.733
61996SOL    HW187827   8.863   7.009   8.694
61996SOL    HW287828   9.004   7.060   8.675
61997SOL     OW87829   6.048   4.928   2.485
61997SOL    HW187830   6.110   4.951   2.554
61997SOL    HW287831   6.103   4.917   2.407
61998SOL     OW87832  11.464   4.029  12.169
61998SOL    HW187833  11.552   4.038  12.207
61998SOL    HW287834  11.476   4.048  12.076
61999SOL     OW87835   8.868   5.383  13.183
61999SOL    HW187836   8.833   5.326  13.250
61999SOL    HW287837   8.792   5.414  13.134
62000SOL     OW87838   0.764   4.613   0.171
62000SOL    HW187839   0.852   4.643   0.196
62000SOL    HW287840   0.717   4.606   0.254
62001SOL     OW87841  12.714   1.523  12.278
62001SOL    HW187842  12.795   1.476  12.298
62001SOL    HW287843  12.726   1.557  12.190
62002SOL     OW87844   9.157  11.731  11.165
62002SOL    HW187845   9.204  11.661  11.210
62002SOL    HW287846   9.214  11.755  11.092
62003SOL     OW87847  14.450   6.056  10.790
62003SOL    HW187848  14.498   6.137  10.769
62003SOL    HW287849  14.380   6.052  10.725
62004SOL     OW87850  13.770  11.626   4.126
62004SOL    HW187851  13.698  11.676   4.164
62004SOL    HW287852  13.729  11.545   4.096
62005SOL     OW87853   7.300  12.475   3.766
62005SOL    HW187854   7.277  12.407   3.828
62005SOL    HW287855   7.303  12.555   3.818
62006SOL     OW87856  14.538   3.762   8.775
62006SOL    HW187857  14.543   3.693   8.709
62006SOL    HW287858  14.457   3.742   8.824
62007SOL     OW87859   9.920  13.812   0.414
62007SOL    HW187860   9.912  13.801   0.509
62007SOL    HW287861   9.963  13.897   0.403
62008SOL     OW87862   6.970   6.755   1.364
62008SOL    HW187863   6.913   6.778   1.438
62008SOL    HW287864   6.910   6.726   1.296
62009SOL     OW87865   0.435   8.329  12.017
62009SOL    HW187866   0.439   8.367  11.930
62009SOL    HW287867   0.485   8.390  12.072
62010SOL     OW87868   0.058   6.436   4.661
62010SOL    HW187869   0.047   6.344   4.682
62010SOL    HW287870   0.038   6.442   4.567
62011SOL     OW87871   0.913  10.685  10.288
62011SOL    HW187872   0.822  10.669  10.262
62011SOL    HW287873   0.953  10.598  10.289
62012SOL     OW87874   0.929   7.195   2.135
62012SOL    HW187875   0.883   7.210   2.053
62012SOL    HW287876   1.021   7.181   2.109
62013SOL     OW87877  11.567  13.481   8.733
62013SOL    HW187878  11.609  13.563   8.705
62013SOL    HW287879  11.529  13.446   8.653
62014SOL     OW87880   9.912  14.020   5.620
62014SOL    HW187881   9.833  13.997   5.572
62014SOL    HW287882   9.881  14.050   5.705
62015SOL     OW87883   8.836   9.654   8.903
62015SOL    HW187884   8.756   9.621   8.864
62015SOL    HW287885   8.808   9.694   8.986
62016SOL     OW87886  13.800  10.555   1.735
62016SOL    HW187887  13.749  10.602   1.669
62016SOL    HW287888  13.856  10.622   1.774
62017SOL     OW87889   6.066   6.752   0.255
62017SOL    HW187890   6.132   6.713   0.313
62017SOL    HW287891   6.090   6.845   0.250
62018SOL     OW87892  10.662  13.399  11.993
62018SOL    HW187893  10.675  13.359  12.078
62018SOL    HW287894  10.572  13.375  11.969
62019SOL     OW87895   0.223   2.468  12.256
62019SOL    HW187896   0.160   2.443  12.324
62019SOL    HW287897   0.170   2.506  12.187
62020SOL     OW87898   8.530  14.487  13.258
62020SOL    HW187899   8.440  14.518  13.261
62020SOL    HW287900   8.577  14.546  13.317
62021SOL     OW87901   5.252   7.919   6.792
62021SOL    HW187902   5.302   7.869   6.728
62021SOL    HW287903   5.271   7.876   6.875
62022SOL     OW87904   5.450  11.672   4.300
62022SOL    HW187905   5.405  11.665   4.385
62022SOL    HW287906   5.395  11.731   4.249
62023SOL     OW87907   4.326   0.495   5.144
62023SOL    HW187908   4.301   0.505   5.236
62023SOL    HW287909   4.390   0.564   5.128
62024SOL     OW87910  11.293   5.167   5.720
62024SOL    HW187911  11.339   5.246   5.690
62024SOL    HW287912  11.279   5.182   5.814
62025SOL     OW87913   8.620  10.680   4.026
62025SOL    HW187914   8.694  10.677   4.087
62025SOL    HW287915   8.592  10.772   4.028
62026SOL     OW87916   6.365   9.769   1.796
62026SOL    HW187917   6.387   9.806   1.881
62026SOL    HW287918   6.394   9.678   1.801
62027SOL     OW87919   7.450   5.328   6.647
62027SOL    HW187920   7.453   5.241   6.608
62027SOL    HW287921   7.518   5.377   6.601
62028SOL     OW87922   5.910  14.864   4.509
62028SOL    HW187923   5.990   0.020   4.464
62028SOL    HW287924   5.863   0.071   4.529
62029SOL     OW87925  11.509   4.544  13.526
62029SOL    HW187926  11.530   4.581  13.612
62029SOL    HW287927  11.420   4.509  13.536
62030SOL     OW87928   7.229   4.207  11.516
62030SOL    HW187929   7.184   4.272  11.463
62030SOL    HW287930   7.300   4.256  11.558
62031SOL     OW87931  13.504   4.134  12.709
62031SOL    HW187932  13.589   4.168  12.739
62031SOL    HW287933  13.471   4.082  12.782
62032SOL     OW87934   3.240   7.314  12.386
62032SOL    HW187935   3.254   7.243  12.448
62032SOL    HW287936   3.292   7.289  12.309
62033SOL     OW87937   4.815   1.199   7.180
62033SOL    HW187938   4.732   1.163   7.212
62033SOL    HW287939   4.850   1.131   7.122
62034SOL     OW87940  13.475  11.292   6.857
62034SOL    HW187941  13.539  11.289   6.929
62034SOL    HW287942  13.501  11.221   6.799
62035SOL     OW87943   2.868  13.246   4.332
62035SOL    HW187944   2.849  13.321   4.275
62035SOL    HW287945   2.794  13.241   4.392
62036SOL     OW87946   9.467   4.561   7.059
62036SOL    HW187947   9.471   4.642   7.008
62036SOL    HW287948   9.557   4.529   7.062
62037SOL     OW87949  12.401  11.069   7.829
62037SOL    HW187950  12.336  11.046   7.895
62037SOL    HW287951  12.479  11.018   7.854
62038SOL     OW87952  11.899  13.102   5.412
62038SOL    HW187953  11.819  13.070   5.453
62038SOL    HW287954  11.964  13.100   5.482
62039SOL     OW87955  12.308  10.087   4.488
62039SOL    HW187956  12.349  10.102   4.573
62039SOL    HW287957  12.246  10.159   4.478
62040SOL     OW87958   0.077   4.084   5.819
62040SOL    HW187959   0.061   3.991   5.800
62040SOL    HW287960   0.142   4.111   5.754
62041SOL     OW87961  12.893  13.171  10.311
62041SOL    HW187962  12.823  13.182  10.247
62041SOL    HW287963  12.850  13.184  10.396
62042SOL     OW87964  11.068   4.283   0.693
62042SOL    HW187965  11.131   4.335   0.743
62042SOL    HW287966  11.094   4.192   0.707
62043SOL     OW87967   7.657  10.282  11.200
62043SOL    HW187968   7.719  10.311  11.267
62043SOL    HW287969   7.572  10.285  11.245
62044SOL     OW87970  14.804  11.402   3.381
62044SOL    HW187971  14.743  11.444   3.440
62044SOL    HW287972  14.783  11.438   3.295
62045SOL     OW87973   1.546  13.300   3.551
62045SOL    HW187974   1.453  13.322   3.564
62045SOL    HW287975   1.544  13.216   3.505
62046SOL     OW87976   8.291   3.738   0.164
62046SOL    HW187977   8.368   3.684   0.185
62046SOL    HW287978   8.326   3.826   0.152
62047SOL     OW87979   8.793   6.694   3.108
62047SOL    HW187980   8.738   6.621   3.137
62047SOL    HW287981   8.882   6.666   3.128
62048SOL     OW87982  10.947   0.277   6.821
62048SOL    HW187983  10.960   0.361   6.864
62048SOL    HW287984  11.008   0.277   6.747
62049SOL     OW87985   0.719   9.656   2.294
62049SOL    HW187986   0.692   9.564   2.294
62049SOL    HW287987   0.654   9.700   2.239
62050SOL     OW87988  14.217   8.552  14.504
62050SOL    HW187989  14.160   8.553  14.427
62050SOL    HW287990  14.175   8.491  14.565
62051SOL     OW87991   4.707   2.962   1.874
62051SOL    HW187992   4.733   2.940   1.785
62051SOL    HW287993   4.714   2.880   1.923
62052SOL     OW87994   5.749   7.385  11.288
62052SOL    HW187995   5.803   7.317  11.328
62052SOL    HW287996   5.741   7.358  11.196
62053SOL     OW87997   2.279   9.295  14.353
62053SOL    HW187998   2.254   9.203  14.341
62053SOL    HW287999   2.264   9.335  14.268
62054SOL     OW88000   6.644   0.003  11.612
62054SOL    HW188001   6.684  14.857  11.697
62054SOL    HW288002   6.687   0.084  11.584
62055SOL     OW88003   5.006   1.008   3.343
62055SOL    HW188004   5.059   1.087   3.329
62055SOL    HW288005   4.968   0.991   3.257
62056SOL     OW88006   8.986   5.781   6.964
62056SOL    HW188007   8.974   5.689   6.985
62056SOL    HW288008   8.898   5.812   6.942
62057SOL     OW88009   0.856   6.723   5.389
62057SOL    HW188010   0.873   6.661   5.318
62057SOL    HW288011   0.918   6.696   5.458
62058SOL     OW88012   7.209   9.709   3.274
62058SOL    HW188013   7.132   9.673   3.230
62058SOL    HW288014   7.276   9.714   3.206
62059SOL     OW88015  14.261   0.897   9.915
62059SOL    HW188016  14.214   0.878   9.834
62059SOL    HW288017  14.273   0.811   9.956
62060SOL     OW88018   0.425   5.362   6.465
62060SOL    HW188019   0.458   5.448   6.438
62060SOL    HW288020   0.470   5.300   6.407
62061SOL     OW88021  11.603  11.251   1.700
62061SOL    HW188022  11.544  11.176   1.703
62061SOL    HW288023  11.570  11.310   1.768
62062SOL     OW88024   7.087  10.907   7.284
62062SOL    HW188025   7.065  10.992   7.323
62062SOL    HW288026   7.025  10.897   7.212
62063SOL     OW88027  10.428   3.646   0.330
62063SOL    HW188028  10.499   3.585   0.351
62063SOL    HW288029  10.403   3.684   0.414
62064SOL     OW88030   6.679   2.255   0.713
62064SOL    HW188031   6.699   2.312   0.787
62064SOL    HW288032   6.715   2.301   0.637
62065SOL     OW88033   2.925  10.912  13.146
62065SOL    HW188034   2.846  10.861  13.166
62065SOL    HW288035   2.953  10.947  13.231
62066SOL     OW88036  10.927   3.733  10.996
62066SOL    HW188037  10.977   3.682  11.059
62066SOL    HW288038  10.988   3.799  10.965
62067SOL     OW88039   7.740   8.802  10.675
62067SOL    HW188040   7.721   8.887  10.636
62067SOL    HW288041   7.827   8.811  10.713
62068SOL     OW88042  13.692  11.880  12.689
62068SOL    HW188043  13.636  11.803  12.683
62068SOL    HW288044  13.781  11.846  12.683
62069SOL     OW88045   3.507  11.383   0.997
62069SOL    HW188046   3.597  11.365   0.970
62069SOL    HW288047   3.456  11.375   0.917
62070SOL     OW88048   9.668   8.409  12.237
62070SOL    HW188049   9.638   8.361  12.160
62070SOL    HW288050   9.631   8.497  12.227
62071SOL     OW88051  11.430  11.524   6.958
62071SOL    HW188052  11.418  11.439   6.999
62071SOL    HW288053  11.353  11.575   6.985
62072SOL     OW88054   4.905   4.533  11.969
62072SOL    HW188055   4.940   4.592  11.902
62072SOL    HW288056   4.841   4.586  12.017
62073SOL     OW88057  11.886   6.120  10.550
62073SOL    HW188058  11.793   6.108  10.567
62073SOL    HW288059  11.915   6.181  10.619
62074SOL     OW88060   3.725   3.721   2.767
62074SOL    HW188061   3.664   3.685   2.831
62074SOL    HW288062   3.675   3.725   2.685
62075SOL     OW88063   2.804   8.605   9.971
62075SOL    HW188064   2.869   8.552  10.017
62075SOL    HW288065   2.766   8.661  10.039
62076SOL     OW88066   4.633   7.899   4.537
62076SOL    HW188067   4.597   7.811   4.531
62076SOL    HW288068   4.654   7.923   4.447
62077SOL     OW88069  14.667   5.336  10.554
62077SOL    HW188070  14.750   5.293  10.531
62077SOL    HW288071  14.674   5.353  10.648
62078SOL     OW88072   9.744   3.562   2.769
62078SOL    HW188073   9.784   3.649   2.761
62078SOL    HW288074   9.813   3.508   2.808
62079SOL     OW88075   1.344  10.464   6.667
62079SOL    HW188076   1.339  10.478   6.572
62079SOL    HW288077   1.281  10.393   6.684
62080SOL     OW88078   7.221   8.530   2.690
62080SOL    HW188079   7.204   8.439   2.715
62080SOL    HW288080   7.164   8.581   2.747
62081SOL     OW88081   9.889   8.734  10.000
62081SOL    HW188082   9.914   8.730   9.908
62081SOL    HW288083   9.839   8.815  10.008
62082SOL     OW88084  11.112   3.113   9.131
62082SOL    HW188085  11.103   3.056   9.208
62082SOL    HW288086  11.028   3.105   9.086
62083SOL     OW88087  13.310   3.029   8.681
62083SOL    HW188088  13.282   2.959   8.740
62083SOL    HW288089  13.229   3.062   8.642
62084SOL     OW88090  13.680  12.533   2.858
62084SOL    HW188091  13.699  12.465   2.793
62084SOL    HW288092  13.756  12.591   2.855
62085SOL     OW88093   0.755  14.660   0.518
62085SOL    HW188094   0.754  14.580   0.467
62085SOL    HW288095   0.787  14.727   0.458
62086SOL     OW88096   9.134   8.007   7.542
62086SOL    HW188097   9.080   8.000   7.620
62086SOL    HW288098   9.180   7.922   7.538
62087SOL     OW88099   5.029  10.991   2.816
62087SOL    HW188100   5.084  10.914   2.804
62087SOL    HW288101   5.088  11.058   2.851
62088SOL     OW88102  10.691   0.881   5.619
62088SOL    HW188103  10.599   0.903   5.602
62088SOL    HW288104  10.736   0.899   5.537
62089SOL     OW88105   8.049   7.018  14.707
62089SOL    HW188106   8.086   6.970  14.781
62089SOL    HW288107   7.985   6.958  14.669
62090SOL     OW88108   2.305   8.374  12.684
62090SOL    HW188109   2.260   8.456  12.663
62090SOL    HW288110   2.341   8.388  12.772
62091SOL     OW88111   3.510   6.384   5.169
62091SOL    HW188112   3.465   6.318   5.220
62091SOL    HW288113   3.599   6.350   5.158
62092SOL     OW88114   4.965   3.600   7.412
62092SOL    HW188115   4.926   3.633   7.494
62092SOL    HW288116   4.890   3.590   7.353
62093SOL     OW88117  14.719   9.816  14.700
62093SOL    HW188118  14.640   9.764  14.716
62093SOL    HW288119  14.786   9.777  14.755
62094SOL     OW88120  10.702   7.614  11.109
62094SOL    HW188121  10.636   7.561  11.153
62094SOL    HW288122  10.657   7.653  11.035
62095SOL     OW88123  12.367   1.149   5.404
62095SOL    HW188124  12.452   1.193   5.397
62095SOL    HW288125  12.331   1.179   5.487
62096SOL     OW88126   0.619   6.510  12.361
62096SOL    HW188127   0.596   6.580  12.299
62096SOL    HW288128   0.660   6.443  12.306
62097SOL     OW88129   1.606   8.173   5.201
62097SOL    HW188130   1.632   8.260   5.232
62097SOL    HW288131   1.637   8.169   5.110
62098SOL     OW88132  10.656  10.946   8.078
62098SOL    HW188133  10.609  10.866   8.055
62098SOL    HW288134  10.625  11.011   8.015
62099SOL     OW88135   0.764   2.597  14.125
62099SOL    HW188136   0.797   2.670  14.178
62099SOL    HW288137   0.836   2.577  14.065
62100SOL     OW88138   4.116  14.225   9.887
62100SOL    HW188139   4.043  14.275   9.923
62100SOL    HW288140   4.088  14.201   9.799
62101SOL     OW88141   8.895   2.230  10.361
62101SOL    HW188142   8.926   2.271  10.441
62101SOL    HW288143   8.971   2.231  10.302
62102SOL     OW88144  12.634  10.187  12.851
62102SOL    HW188145  12.718  10.167  12.893
62102SOL    HW288146  12.607  10.271  12.889
62103SOL     OW88147  12.016   6.301  10.756
62103SOL    HW188148  11.995   6.308  10.850
62103SOL    HW288149  12.038   6.390  10.730
62104SOL     OW88150  13.807  10.854   9.819
62104SOL    HW188151  13.793  10.907   9.740
62104SOL    HW288152  13.726  10.805   9.829
62105SOL     OW88153   3.594   3.224   4.018
62105SOL    HW188154   3.624   3.190   4.102
62105SOL    HW288155   3.657   3.293   3.996
62106SOL     OW88156   8.386   7.606   4.871
62106SOL    HW188157   8.414   7.553   4.796
62106SOL    HW288158   8.383   7.544   4.944
62107SOL     OW88159   2.839   5.649   7.372
62107SOL    HW188160   2.830   5.678   7.282
62107SOL    HW288161   2.822   5.555   7.369
62108SOL     OW88162   1.454  12.293   0.622
62108SOL    HW188163   1.484  12.223   0.564
62108SOL    HW288164   1.503  12.370   0.594
62109SOL     OW88165  10.552   6.399  10.009
62109SOL    HW188166  10.580   6.443   9.929
62109SOL    HW288167  10.543   6.307   9.984
62110SOL     OW88168  13.764   5.180  12.299
62110SOL    HW188169  13.856   5.176  12.272
62110SOL    HW288170  13.715   5.176  12.218
62111SOL     OW88171  13.202   0.081   7.102
62111SOL    HW188172  13.234   0.101   7.015
62111SOL    HW288173  13.160  14.868   7.093
62112SOL     OW88174   3.959   1.177   2.150
62112SOL    HW188175   4.016   1.254   2.141
62112SOL    HW288176   4.004   1.109   2.100
62113SOL     OW88177   2.560   9.972  12.049
62113SOL    HW188178   2.491   9.985  11.983
62113SOL    HW288179   2.587  10.060  12.073
62114SOL     OW88180  14.374   3.981   7.867
62114SOL    HW188181  14.358   3.901   7.816
62114SOL    HW288182  14.345   3.959   7.955
62115SOL     OW88183   3.161  13.544   9.878
62115SOL    HW188184   3.095  13.474   9.879
62115SOL    HW288185   3.209  13.533   9.959
62116SOL     OW88186   8.483   0.823   3.872
62116SOL    HW188187   8.486   0.810   3.777
62116SOL    HW288188   8.390   0.829   3.892
62117SOL     OW88189   0.222  13.372  12.630
62117SOL    HW188190   0.247  13.456  12.593
62117SOL    HW288191   0.191  13.393  12.718
62118SOL     OW88192   3.782   3.813   4.062
62118SOL    HW188193   3.851   3.829   4.127
62118SOL    HW288194   3.707   3.864   4.093
62119SOL     OW88195   1.737  12.460   9.963
62119SOL    HW188196   1.730  12.520   9.889
62119SOL    HW288197   1.790  12.507  10.028
62120SOL     OW88198  12.249   0.116  14.503
62120SOL    HW188199  12.216   0.200  14.469
62120SOL    HW288200  12.328   0.099  14.451
62121SOL     OW88201   8.976  12.285   2.524
62121SOL    HW188202   9.012  12.371   2.542
62121SOL    HW288203   8.882  12.295   2.538
62122SOL     OW88204   8.886  14.204   6.960
62122SOL    HW188205   8.943  14.136   6.996
62122SOL    HW288206   8.922  14.286   6.994
62123SOL     OW88207   8.279   2.394   6.378
62123SOL    HW188208   8.269   2.329   6.308
62123SOL    HW288209   8.266   2.478   6.335
62124SOL     OW88210   6.941   1.378   4.064
62124SOL    HW188211   7.004   1.429   4.013
62124SOL    HW288212   6.969   1.390   4.155
62125SOL     OW88213   9.715   9.372   1.501
62125SOL    HW188214   9.795   9.363   1.552
62125SOL    HW288215   9.647   9.393   1.565
62126SOL     OW88216   5.813   0.440   9.389
62126SOL    HW188217   5.849   0.519   9.349
62126SOL    HW288218   5.840   0.369   9.331
62127SOL     OW88219  10.465   9.544  13.147
62127SOL    HW188220  10.406   9.616  13.172
62127SOL    HW288221  10.439   9.522  13.058
62128SOL     OW88222  11.370   5.092   1.590
62128SOL    HW188223  11.274   5.090   1.590
62128SOL    HW288224  11.393   5.150   1.662
62129SOL     OW88225   6.943   9.458   2.182
62129SOL    HW188226   6.951   9.528   2.247
62129SOL    HW288227   6.914   9.382   2.232
62130SOL     OW88228  13.031   0.149   4.541
62130SOL    HW188229  12.988   0.226   4.577
62130SOL    HW288230  12.991   0.137   4.455
62131SOL     OW88231   8.142   8.641   7.166
62131SOL    HW188232   8.133   8.563   7.111
62131SOL    HW288233   8.236   8.646   7.186
62132SOL     OW88234  10.161   5.413   7.324
62132SOL    HW188235  10.075   5.443   7.353
62132SOL    HW288236  10.197   5.485   7.274
62133SOL     OW88237   7.824   9.835  11.886
62133SOL    HW188238   7.828   9.931  11.886
62133SOL    HW288239   7.859   9.810  11.971
62134SOL     OW88240   6.125   5.423   2.230
62134SOL    HW188241   6.089   5.371   2.303
62134SOL    HW288242   6.075   5.395   2.154
62135SOL     OW88243   6.684  14.645  11.008
62135SOL    HW188244   6.633  14.666  10.929
62135SOL    HW288245   6.757  14.592  10.976
62136SOL     OW88246   5.043   8.720  14.678
62136SOL    HW188247   5.122   8.735  14.627
62136SOL    HW288248   5.073   8.675  14.757
62137SOL     OW88249  13.596  11.076   8.362
62137SOL    HW188250  13.518  11.028   8.335
62137SOL    HW288251  13.664  11.009   8.370
62138SOL     OW88252   0.495   6.446  13.272
62138SOL    HW188253   0.465   6.396  13.196
62138SOL    HW288254   0.442   6.525  13.271
62139SOL     OW88255   6.840   1.016   8.508
62139SOL    HW188256   6.788   0.964   8.570
62139SOL    HW288257   6.787   1.017   8.428
62140SOL     OW88258   2.298   4.229  10.664
62140SOL    HW188259   2.219   4.225  10.717
62140SOL    HW288260   2.295   4.149  10.611
62141SOL     OW88261  13.936   9.607  13.160
62141SOL    HW188262  13.944   9.565  13.246
62141SOL    HW288263  14.026   9.628  13.136
62142SOL     OW88264  12.897   1.525  14.090
62142SOL    HW188265  12.965   1.502  14.154
62142SOL    HW288266  12.945   1.533  14.007
62143SOL     OW88267   4.305   8.526  14.171
62143SOL    HW188268   4.287   8.489  14.258
62143SOL    HW288269   4.348   8.455  14.124
62144SOL     OW88270   4.182   3.685   9.400
62144SOL    HW188271   4.215   3.695   9.489
62144SOL    HW288272   4.087   3.693   9.408
62145SOL     OW88273   2.764   2.608   9.534
62145SOL    HW188274   2.681   2.631   9.574
62145SOL    HW288275   2.823   2.680   9.556
62146SOL     OW88276  13.483   7.615   4.039
62146SOL    HW188277  13.548   7.551   4.068
62146SOL    HW288278  13.497   7.624   3.945
62147SOL     OW88279   5.300   0.256   7.212
62147SOL    HW188280   5.371   0.279   7.272
62147SOL    HW288281   5.277   0.166   7.234
62148SOL     OW88282  13.202  11.417   3.820
62148SOL    HW188283  13.141  11.491   3.813
62148SOL    HW288284  13.278  11.454   3.864
62149SOL     OW88285   2.131  11.506  11.783
62149SOL    HW188286   2.211  11.558  11.775
62149SOL    HW288287   2.065  11.557  11.736
62150SOL     OW88288   3.536   8.878   9.796
62150SOL    HW188289   3.612   8.925   9.762
62150SOL    HW288290   3.472   8.880   9.725
62151SOL     OW88291   9.630   4.436  14.321
62151SOL    HW188292   9.697   4.495  14.356
62151SOL    HW288293   9.625   4.457  14.228
62152SOL     OW88294   9.306   4.284   9.009
62152SOL    HW188295   9.354   4.306   8.929
62152SOL    HW288296   9.255   4.207   8.987
62153SOL     OW88297  10.364   8.649   4.164
62153SOL    HW188298  10.454   8.678   4.146
62153SOL    HW288299  10.342   8.592   4.090
62154SOL     OW88300   8.654  11.949   3.852
62154SOL    HW188301   8.570  11.976   3.815
62154SOL    HW288302   8.674  11.866   3.807
62155SOL     OW88303   2.272   2.449  12.483
62155SOL    HW188304   2.325   2.448  12.562
62155SOL    HW288305   2.258   2.541  12.464
62156SOL     OW88306   9.106   6.156   7.563
62156SOL    HW188307   9.043   6.224   7.587
62156SOL    HW288308   9.130   6.176   7.473
62157SOL     OW88309   7.301   6.122  13.355
62157SOL    HW188310   7.208   6.120  13.335
62157SOL    HW288311   7.342   6.162  13.278
62158SOL     OW88312   3.744   4.281   8.393
62158SOL    HW188313   3.668   4.238   8.431
62158SOL    HW288314   3.752   4.242   8.306
62159SOL     OW88315   3.364   3.393   8.521
62159SOL    HW188316   3.349   3.447   8.443
62159SOL    HW288317   3.389   3.456   8.589
62160SOL     OW88318   6.571   5.665   3.017
62160SOL    HW188319   6.582   5.623   2.931
62160SOL    HW288320   6.618   5.608   3.078
62161SOL     OW88321   6.531  10.826  14.836
62161SOL    HW188322   6.552  10.769   0.037
62161SOL    HW288323   6.583  10.790  14.764
62162SOL     OW88324  10.210   5.480   0.362
62162SOL    HW188325  10.170   5.394   0.361
62162SOL    HW288326  10.238   5.495   0.271
62163SOL     OW88327   1.300   2.957  13.408
62163SOL    HW188328   1.222   2.996  13.448
62163SOL    HW288329   1.318   2.878  13.460
62164SOL     OW88330  10.079   3.228   7.302
62164SOL    HW188331  10.137   3.198   7.371
62164SOL    HW288332  10.004   3.267   7.349
62165SOL     OW88333   8.176  10.769   5.706
62165SOL    HW188334   8.085  10.741   5.703
62165SOL    HW288335   8.184  10.831   5.633
62166SOL     OW88336   6.180   2.593  12.629
62166SOL    HW188337   6.185   2.634  12.542
62166SOL    HW288338   6.143   2.662  12.685
62167SOL     OW88339   4.766   5.563   4.093
62167SOL    HW188340   4.685   5.540   4.047
62167SOL    HW288341   4.803   5.480   4.120
62168SOL     OW88342   9.672   1.705  10.569
62168SOL    HW188343   9.635   1.682  10.655
62168SOL    HW288344   9.597   1.731  10.517
62169SOL     OW88345  12.560   5.813   7.077
62169SOL    HW188346  12.656   5.818   7.070
62169SOL    HW288347  12.539   5.862   7.157
62170SOL     OW88348   9.844  12.628   6.936
62170SOL    HW188349   9.929  12.592   6.962
62170SOL    HW288350   9.830  12.594   6.847
62171SOL     OW88351   4.922  13.284   3.143
62171SOL    HW188352   4.910  13.212   3.081
62171SOL    HW288353   5.017  13.292   3.151
62172SOL     OW88354  13.173   4.075   1.917
62172SOL    HW188355  13.077   4.076   1.909
62172SOL    HW288356  13.198   4.167   1.910
62173SOL     OW88357   7.582   9.971   4.619
62173SOL    HW188358   7.529  10.025   4.560
62173SOL    HW288359   7.645  10.031   4.658
62174SOL     OW88360   6.774   8.448  10.954
62174SOL    HW188361   6.722   8.369  10.974
62174SOL    HW288362   6.743   8.475  10.868
62175SOL     OW88363   9.194  10.044   0.898
62175SOL    HW188364   9.100  10.046   0.914
62175SOL    HW288365   9.203  10.033   0.804
62176SOL     OW88366   4.932  12.531   8.389
62176SOL    HW188367   5.014  12.571   8.363
62176SOL    HW288368   4.872  12.604   8.404
62177SOL     OW88369   7.520  14.725   5.304
62177SOL    HW188370   7.542  14.793   5.367
62177SOL    HW288371   7.595  14.665   5.305
62178SOL     OW88372  14.366  13.365   7.427
62178SOL    HW188373  14.317  13.401   7.502
62178SOL    HW288374  14.427  13.435   7.403
62179SOL     OW88375   5.412   4.049  12.093
62179SOL    HW188376   5.440   4.118  12.152
62179SOL    HW288377   5.333   4.083  12.050
62180SOL     OW88378   1.173  11.006   5.199
62180SOL    HW188379   1.198  10.937   5.137
62180SOL    HW288380   1.147  11.080   5.145
62181SOL     OW88381   1.012  12.791  12.219
62181SOL    HW188382   0.965  12.853  12.164
62181SOL    HW288383   1.067  12.741  12.158
62182SOL     OW88384   1.553   5.262   2.890
62182SOL    HW188385   1.461   5.241   2.873
62182SOL    HW288386   1.601   5.218   2.819
62183SOL     OW88387  13.113  10.823   3.709
62183SOL    HW188388  13.025  10.848   3.680
62183SOL    HW288389  13.172  10.862   3.645
62184SOL     OW88390  11.048  11.375   0.321
62184SOL    HW188391  11.003  11.394   0.403
62184SOL    HW288392  10.990  11.410   0.253
62185SOL     OW88393   6.798   4.737  14.314
62185SOL    HW188394   6.758   4.720  14.229
62185SOL    HW288395   6.800   4.832  14.321
62186SOL     OW88396   7.886   9.879   4.531
62186SOL    HW188397   7.948   9.902   4.462
62186SOL    HW288398   7.850   9.963   4.560
62187SOL     OW88399   8.261  14.564   3.416
62187SOL    HW188400   8.294  14.487   3.464
62187SOL    HW288401   8.336  14.623   3.412
62188SOL     OW88402   4.276  12.097  10.519
62188SOL    HW188403   4.347  12.124  10.577
62188SOL    HW288404   4.304  12.127  10.432
62189SOL     OW88405   1.191   0.655  12.654
62189SOL    HW188406   1.179   0.623  12.565
62189SOL    HW288407   1.285   0.646  12.670
62190SOL     OW88408  13.200   4.029  10.003
62190SOL    HW188409  13.154   4.100  10.047
62190SOL    HW288410  13.275   4.011  10.059
62191SOL     OW88411   4.639   4.305   9.421
62191SOL    HW188412   4.615   4.261   9.502
62191SOL    HW288413   4.578   4.271   9.356
62192SOL     OW88414   0.473   9.027   0.881
62192SOL    HW188415   0.516   9.085   0.819
62192SOL    HW288416   0.527   8.948   0.881
62193SOL     OW88417  10.344   4.776  10.347
62193SOL    HW188418  10.398   4.746  10.273
62193SOL    HW288419  10.383   4.733  10.423
62194SOL     OW88420  11.766   6.267  11.512
62194SOL    HW188421  11.672   6.268  11.532
62194SOL    HW288422  11.771   6.292  11.420
62195SOL     OW88423  10.689   0.718  10.443
62195SOL    HW188424  10.733   0.639  10.476
62195SOL    HW288425  10.621   0.736  10.508
62196SOL     OW88426   3.772  11.154  12.010
62196SOL    HW188427   3.689  11.181  12.048
62196SOL    HW288428   3.828  11.233  12.015
62197SOL     OW88429   9.521   5.131   7.828
62197SOL    HW188430   9.455   5.199   7.837
62197SOL    HW288431   9.594   5.160   7.882
62198SOL     OW88432   3.208   4.143   1.900
62198SOL    HW188433   3.180   4.053   1.917
62198SOL    HW288434   3.290   4.133   1.852
62199SOL     OW88435  13.275  12.285  12.985
62199SOL    HW188436  13.318  12.349  13.041
62199SOL    HW288437  13.181  12.304  12.995
62200SOL     OW88438   5.366   2.867  12.574
62200SOL    HW188439   5.392   2.788  12.526
62200SOL    HW288440   5.302   2.836  12.638
62201SOL     OW88441  14.315   6.224  12.994
62201SOL    HW188442  14.358   6.141  13.014
62201SOL    HW288443  14.281   6.213  12.905
62202SOL     OW88444  13.553   4.073   8.757
62202SOL    HW188445  13.540   4.161   8.722
62202SOL    HW288446  13.638   4.045   8.722
62203SOL     OW88447   4.474   7.504   6.840
62203SOL    HW188448   4.458   7.527   6.749
62203SOL    HW288449   4.561   7.466   6.841
62204SOL     OW88450   2.961  14.411  14.191
62204SOL    HW188451   2.884  14.464  14.213
62204SOL    HW288452   2.946  14.385  14.100
62205SOL     OW88453   0.239   0.258   0.863
62205SOL    HW188454   0.191   0.177   0.880
62205SOL    HW288455   0.327   0.242   0.896
62206SOL     OW88456  11.199   8.461  12.432
62206SOL    HW188457  11.181   8.434  12.342
62206SOL    HW288458  11.145   8.402  12.485
62207SOL     OW88459   2.516   6.681   3.708
62207SOL    HW188460   2.587   6.725   3.755
62207SOL    HW288461   2.559   6.639   3.634
62208SOL     OW88462  12.953   3.646  12.373
62208SOL    HW188463  12.989   3.627  12.287
62208SOL    HW288464  13.025   3.689  12.420
62209SOL     OW88465   6.771   4.547  11.397
62209SOL    HW188466   6.866   4.557  11.403
62209SOL    HW288467   6.754   4.460  11.432
62210SOL     OW88468   7.542   1.756   9.863
62210SOL    HW188469   7.484   1.822   9.903
62210SOL    HW288470   7.506   1.743   9.775
62211SOL     OW88471   8.152   6.003  12.807
62211SOL    HW188472   8.103   6.075  12.847
62211SOL    HW288473   8.240   6.039  12.793
62212SOL     OW88474  14.189  10.122   5.798
62212SOL    HW188475  14.239  10.044   5.774
62212SOL    HW288476  14.246  10.169   5.859
62213SOL     OW88477  11.635   6.818   3.252
62213SOL    HW188478  11.642   6.783   3.341
62213SOL    HW288479  11.545   6.850   3.245
62214SOL     OW88480   1.170  10.450  12.809
62214SOL    HW188481   1.159  10.526  12.866
62214SOL    HW288482   1.240  10.475  12.749
62215SOL     OW88483  10.723   5.577  11.318
62215SOL    HW188484  10.640   5.592  11.364
62215SOL    HW288485  10.728   5.482  11.308
62216SOL     OW88486   9.710   6.930  12.391
62216SOL    HW188487   9.779   6.973  12.443
62216SOL    HW288488   9.672   7.001  12.339
62217SOL     OW88489   2.914   2.124   1.100
62217SOL    HW188490   2.938   2.041   1.057
62217SOL    HW288491   2.928   2.190   1.032
62218SOL     OW88492   4.224   0.941   4.673
62218SOL    HW188493   4.245   0.896   4.590
62218SOL    HW288494   4.306   0.939   4.722
62219SOL     OW88495  10.415   3.837   4.884
62219SOL    HW188496  10.438   3.903   4.819
62219SOL    HW288497  10.484   3.844   4.950
62220SOL     OW88498   4.196   8.872   0.177
62220SOL    HW188499   4.264   8.807   0.193
62220SOL    HW288500   4.220   8.946   0.232
62221SOL     OW88501  14.012   4.106   4.124
62221SOL    HW188502  14.018   4.019   4.084
62221SOL    HW288503  13.990   4.089   4.216
62222SOL     OW88504   2.989  14.675  11.077
62222SOL    HW188505   3.049  14.749  11.084
62222SOL    HW288506   2.929  14.698  11.006
62223SOL     OW88507   6.147   0.947   6.797
62223SOL    HW188508   6.124   0.856   6.775
62223SOL    HW288509   6.190   0.980   6.719
62224SOL     OW88510   3.416   2.090   1.257
62224SOL    HW188511   3.480   2.019   1.266
62224SOL    HW288512   3.332   2.045   1.243
62225SOL     OW88513   9.271   2.450   5.755
62225SOL    HW188514   9.206   2.498   5.805
62225SOL    HW288515   9.239   2.360   5.753
62226SOL     OW88516  11.771   6.031   4.030
62226SOL    HW188517  11.848   6.080   4.000
62226SOL    HW288518  11.781   5.944   3.991
62227SOL     OW88519   0.101   0.259   4.587
62227SOL    HW188520   0.082   0.331   4.647
62227SOL    HW288521   0.196   0.254   4.584
62228SOL     OW88522   5.048  12.247  12.381
62228SOL    HW188523   5.011  12.222  12.466
62228SOL    HW288524   4.973  12.275  12.330
62229SOL     OW88525   6.551  10.251  10.852
62229SOL    HW188526   6.591  10.166  10.830
62229SOL    HW288527   6.615  10.293  10.909
62230SOL     OW88528  11.901   5.747   8.015
62230SOL    HW188529  11.903   5.652   8.006
62230SOL    HW288530  11.820   5.773   7.970
62231SOL     OW88531   8.577   9.016  13.614
62231SOL    HW188532   8.483   9.027  13.626
62231SOL    HW288533   8.598   8.937  13.663
62232SOL     OW88534  10.398   5.035   1.255
62232SOL    HW188535  10.430   5.075   1.174
62232SOL    HW288536  10.472   4.984   1.287
62233SOL     OW88537   7.574   1.301   2.529
62233SOL    HW188538   7.593   1.394   2.540
62233SOL    HW288539   7.651   1.266   2.483
62234SOL     OW88540   8.520   2.866  12.995
62234SOL    HW188541   8.533   2.774  12.973
62234SOL    HW288542   8.555   2.914  12.920
62235SOL     OW88543   9.635   3.986   6.753
62235SOL    HW188544   9.643   4.066   6.702
62235SOL    HW288545   9.549   3.992   6.795
62236SOL     OW88546   7.448   9.318   0.626
62236SOL    HW188547   7.498   9.376   0.683
62236SOL    HW288548   7.389   9.376   0.579
62237SOL     OW88549   3.770   5.235   9.278
62237SOL    HW188550   3.696   5.247   9.338
62237SOL    HW288551   3.816   5.159   9.313
62238SOL     OW88552   1.406   8.620   6.866
62238SOL    HW188553   1.442   8.579   6.788
62238SOL    HW288554   1.347   8.688   6.832
62239SOL     OW88555   6.714   7.145  12.715
62239SOL    HW188556   6.768   7.074  12.750
62239SOL    HW288557   6.777   7.206  12.675
62240SOL     OW88558  13.244  11.254   7.726
62240SOL    HW188559  13.160  11.300   7.732
62240SOL    HW288560  13.224  11.172   7.682
62241SOL     OW88561   6.515   3.889   4.460
62241SOL    HW188562   6.460   3.810   4.464
62241SOL    HW288563   6.459   3.955   4.418
62242SOL     OW88564  12.162   7.870   7.689
62242SOL    HW188565  12.078   7.882   7.645
62242SOL    HW288566  12.168   7.776   7.705
62243SOL     OW88567   6.048   6.139   8.542
62243SOL    HW188568   6.012   6.129   8.630
62243SOL    HW288569   6.000   6.212   8.504
62244SOL     OW88570   5.741   8.228  13.433
62244SOL    HW188571   5.661   8.270  13.464
62244SOL    HW288572   5.741   8.142  13.474
62245SOL     OW88573  13.592  13.867   8.789
62245SOL    HW188574  13.655  13.797   8.809
62245SOL    HW288575  13.555  13.842   8.704
62246SOL     OW88576  12.404   1.328   1.729
62246SOL    HW188577  12.337   1.307   1.665
62246SOL    HW288578  12.463   1.252   1.729
62247SOL     OW88579  12.981   9.636   7.514
62247SOL    HW188580  12.999   9.635   7.421
62247SOL    HW288581  12.895   9.677   7.522
62248SOL     OW88582   8.265  10.879   8.482
62248SOL    HW188583   8.265  10.975   8.474
62248SOL    HW288584   8.248  10.863   8.575
62249SOL     OW88585   1.826   0.643  11.399
62249SOL    HW188586   1.773   0.592  11.339
62249SOL    HW288587   1.820   0.596  11.482
62250SOL     OW88588  12.030   2.163   3.987
62250SOL    HW188589  12.019   2.257   3.971
62250SOL    HW288590  12.102   2.158   4.050
62251SOL     OW88591  11.907   0.278  12.681
62251SOL    HW188592  11.931   0.343  12.747
62251SOL    HW288593  11.990   0.235  12.659
62252SOL     OW88594   2.900   8.887  12.505
62252SOL    HW188595   2.817   8.932  12.490
62252SOL    HW288596   2.874   8.800  12.536
62253SOL     OW88597  13.287   2.020   1.147
62253SOL    HW188598  13.376   2.031   1.179
62253SOL    HW288599  13.287   1.935   1.103
62254SOL     OW88600   5.678   7.956   5.704
62254SOL    HW188601   5.753   7.966   5.645
62254SOL    HW288602   5.630   8.038   5.695
62255SOL     OW88603  10.720   6.320  10.746
62255SOL    HW188604  10.690   6.345  10.834
62255SOL    HW288605  10.652   6.352  10.687
62256SOL     OW88606  14.605   5.169   8.757
62256SOL    HW188607  14.567   5.241   8.706
62256SOL    HW288608  14.537   5.102   8.758
62257SOL     OW88609   0.097   0.216   6.569
62257SOL    HW188610   0.192   0.213   6.580
62257SOL    HW288611   0.079   0.306   6.545
62258SOL     OW88612   6.981   5.687   0.691
62258SOL    HW188613   7.077   5.687   0.691
62258SOL    HW288614   6.957   5.767   0.738
62259SOL     OW88615  14.811  11.710   2.965
62259SOL    HW188616  14.872  11.742   3.032
62259SOL    HW288617  14.859  11.640   2.921
62260SOL     OW88618   7.392   1.916   7.117
62260SOL    HW188619   7.467   1.972   7.097
62260SOL    HW288620   7.354   1.953   7.197
62261SOL     OW88621   5.944   4.732   7.628
62261SOL    HW188622   6.028   4.708   7.668
62261SOL    HW288623   5.880   4.716   7.697
62262SOL     OW88624   1.460   6.351   6.543
62262SOL    HW188625   1.368   6.379   6.546
62262SOL    HW288626   1.477   6.337   6.450
62263SOL     OW88627  13.725   5.756   1.836
62263SOL    HW188628  13.779   5.737   1.759
62263SOL    HW288629  13.643   5.790   1.800
62264SOL     OW88630   7.805  12.688  13.997
62264SOL    HW188631   7.782  12.724  14.083
62264SOL    HW288632   7.898  12.709  13.987
62265SOL     OW88633   0.503  12.955  10.941
62265SOL    HW188634   0.483  13.048  10.928
62265SOL    HW288635   0.480  12.939  11.033
62266SOL     OW88636   5.626  13.849  13.245
62266SOL    HW188637   5.593  13.918  13.189
62266SOL    HW288638   5.572  13.773  13.225
62267SOL     OW88639  11.778  12.813  13.270
62267SOL    HW188640  11.861  12.861  13.266
62267SOL    HW288641  11.787  12.744  13.205
62268SOL     OW88642   0.136  11.766   4.532
62268SOL    HW188643   0.175  11.699   4.476
62268SOL    HW288644   0.111  11.836   4.472
62269SOL     OW88645   8.334  12.668  13.931
62269SOL    HW188646   8.372  12.601  13.874
62269SOL    HW288647   8.406  12.728  13.949
62270SOL     OW88648   3.456   1.674   4.023
62270SOL    HW188649   3.510   1.695   3.947
62270SOL    HW288650   3.447   1.579   4.020
62271SOL     OW88651   6.313   2.928   0.353
62271SOL    HW188652   6.250   2.866   0.316
62271SOL    HW288653   6.387   2.925   0.293
62272SOL     OW88654   6.675   9.892   5.749
62272SOL    HW188655   6.612   9.868   5.681
62272SOL    HW288656   6.715   9.810   5.775
62273SOL     OW88657   3.487  11.198  12.954
62273SOL    HW188658   3.409  11.218  12.903
62273SOL    HW288659   3.495  11.103  12.950
62274SOL     OW88660   4.840  13.367   7.153
62274SOL    HW188661   4.916  13.359   7.095
62274SOL    HW288662   4.785  13.434   7.113
62275SOL     OW88663   2.928  10.967  11.336
62275SOL    HW188664   2.910  10.887  11.285
62275SOL    HW288665   2.971  10.936  11.415
62276SOL     OW88666  13.175   5.689  11.990
62276SOL    HW188667  13.155   5.599  12.017
62276SOL    HW288668  13.102   5.741  12.025
62277SOL     OW88669  14.425   7.537   3.705
62277SOL    HW188670  14.339   7.579   3.700
62277SOL    HW288671  14.433   7.510   3.797
62278SOL     OW88672   0.243  12.302   4.624
62278SOL    HW188673   0.238  12.397   4.629
62278SOL    HW288674   0.322  12.279   4.673
62279SOL     OW88675  11.216   6.291  11.342
62279SOL    HW188676  11.138   6.296  11.398
62279SOL    HW288677  11.202   6.359  11.276
62280SOL     OW88678   3.490  14.752   7.846
62280SOL    HW188679   3.568  14.788   7.805
62280SOL    HW288680   3.522  14.684   7.905
62281SOL     OW88681   2.894  12.435   8.118
62281SOL    HW188682   2.800  12.424   8.133
62281SOL    HW288683   2.900  12.501   8.050
62282SOL     OW88684   0.305  14.533   5.549
62282SOL    HW188685   0.273  14.459   5.602
62282SOL    HW288686   0.227  14.565   5.503
62283SOL     OW88687   5.179   0.153  10.649
62283SOL    HW188688   5.213   0.081  10.596
62283SOL    HW288689   5.087   0.132  10.663
62284SOL     OW88690   3.254   6.604   9.681
62284SOL    HW188691   3.249   6.526   9.736
62284SOL    HW288692   3.195   6.666   9.723
62285SOL     OW88693   8.878  13.591  12.713
62285SOL    HW188694   8.883  13.632  12.800
62285SOL    HW288695   8.909  13.501  12.727
62286SOL     OW88696   0.875   5.225  13.036
62286SOL    HW188697   0.961   5.267  13.027
62286SOL    HW288698   0.887   5.138  12.996
62287SOL     OW88699   6.137   8.453   0.884
62287SOL    HW188700   6.173   8.367   0.906
62287SOL    HW288701   6.186   8.514   0.939
62288SOL     OW88702  13.312   9.870   1.203
62288SOL    HW188703  13.350   9.958   1.207
62288SOL    HW288704  13.318   9.837   1.293
62289SOL     OW88705  13.887  14.115   3.383
62289SOL    HW188706  13.830  14.192   3.384
62289SOL    HW288707  13.856  14.063   3.308
62290SOL     OW88708  13.979   1.509   9.008
62290SOL    HW188709  14.009   1.593   8.972
62290SOL    HW288710  13.963   1.454   8.931
62291SOL     OW88711   6.378   2.747  12.081
62291SOL    HW188712   6.392   2.842  12.079
62291SOL    HW288713   6.380   2.721  11.988
62292SOL     OW88714  10.157   6.256   5.548
62292SOL    HW188715  10.086   6.239   5.610
62292SOL    HW288716  10.189   6.342   5.572
62293SOL     OW88717   7.915   4.873   4.013
62293SOL    HW188718   7.919   4.885   3.919
62293SOL    HW288719   7.826   4.898   4.038
62294SOL     OW88720  10.613   6.877   9.144
62294SOL    HW188721  10.605   6.972   9.136
62294SOL    HW288722  10.523   6.847   9.160
62295SOL     OW88723   0.123   4.181   5.445
62295SOL    HW188724   0.101   4.240   5.374
62295SOL    HW288725   0.050   4.119   5.448
62296SOL     OW88726  13.361   8.062   8.364
62296SOL    HW188727  13.405   8.146   8.353
62296SOL    HW288728  13.320   8.045   8.279
62297SOL     OW88729  13.780  11.368   4.391
62297SOL    HW188730  13.704  11.426   4.396
62297SOL    HW288731  13.837  11.397   4.462
62298SOL     OW88732   2.786   1.294   3.573
62298SOL    HW188733   2.741   1.211   3.556
62298SOL    HW288734   2.789   1.337   3.488
62299SOL     OW88735   6.761   9.133  14.705
62299SOL    HW188736   6.804   9.200  14.652
62299SOL    HW288737   6.698   9.181  14.759
62300SOL     OW88738   4.644   5.104   7.177
62300SOL    HW188739   4.615   5.182   7.224
62300SOL    HW288740   4.673   5.044   7.246
62301SOL     OW88741   4.061  14.281   1.075
62301SOL    HW188742   4.115  14.216   1.030
62301SOL    HW288743   4.117  14.316   1.143
62302SOL     OW88744   5.045  12.935   9.053
62302SOL    HW188745   5.112  12.882   9.010
62302SOL    HW288746   5.092  12.990   9.115
62303SOL     OW88747   3.545   1.051   5.394
62303SOL    HW188748   3.610   0.992   5.355
62303SOL    HW288749   3.570   1.058   5.486
62304SOL     OW88750  14.784  10.663   3.043
62304SOL    HW188751  14.716  10.672   2.976
62304SOL    HW288752  14.773  10.740   3.099
62305SOL     OW88753  13.788   8.257   3.230
62305SOL    HW188754  13.876   8.292   3.237
62305SOL    HW288755  13.751   8.264   3.318
62306SOL     OW88756   1.386   6.375   4.265
62306SOL    HW188757   1.457   6.440   4.266
62306SOL    HW288758   1.308   6.426   4.242
62307SOL     OW88759   3.933   9.025   4.134
62307SOL    HW188760   3.902   8.981   4.214
62307SOL    HW288761   4.026   9.002   4.130
62308SOL     OW88762  13.818  11.385  13.629
62308SOL    HW188763  13.870  11.333  13.568
62308SOL    HW288764  13.746  11.327  13.655
62309SOL     OW88765   6.803  10.543   1.358
62309SOL    HW188766   6.893  10.514   1.341
62309SOL    HW288767   6.765  10.557   1.271
62310SOL     OW88768  12.385   4.841  13.882
62310SOL    HW188769  12.404   4.810  13.794
62310SOL    HW288770  12.385   4.762  13.937
62311SOL     OW88771   5.175   0.366   4.896
62311SOL    HW188772   5.200   0.298   4.834
62311SOL    HW288773   5.104   0.413   4.853
62312SOL     OW88774   6.013   1.158  14.369
62312SOL    HW188775   6.024   1.233  14.311
62312SOL    HW288776   6.100   1.142  14.406
62313SOL     OW88777   0.393   7.717   5.262
62313SOL    HW188778   0.335   7.792   5.249
62313SOL    HW288779   0.418   7.690   5.174
62314SOL     OW88780  13.417  10.203  12.095
62314SOL    HW188781  13.456  10.119  12.116
62314SOL    HW288782  13.479  10.268  12.128
62315SOL     OW88783  13.993   3.713  11.472
62315SOL    HW188784  14.016   3.758  11.391
62315SOL    HW288785  14.070   3.659  11.492
62316SOL     OW88786   7.846   7.272   4.198
62316SOL    HW188787   7.938   7.272   4.171
62316SOL    HW288788   7.835   7.354   4.246
62317SOL     OW88789  13.371  10.013   8.360
62317SOL    HW188790  13.382   9.967   8.443
62317SOL    HW288791  13.441   9.980   8.304
62318SOL     OW88792   6.608  11.113  11.773
62318SOL    HW188793   6.670  11.128  11.702
62318SOL    HW288794   6.561  11.196  11.782
62319SOL     OW88795  12.755  11.388   4.659
62319SOL    HW188796  12.789  11.476   4.643
62319SOL    HW288797  12.749  11.381   4.754
62320SOL     OW88798  13.647   1.409   7.580
62320SOL    HW188799  13.626   1.404   7.486
62320SOL    HW288800  13.742   1.409   7.583
62321SOL     OW88801   1.338   6.149   9.183
62321SOL    HW188802   1.391   6.224   9.207
62321SOL    HW288803   1.315   6.108   9.267
62322SOL     OW88804   8.365   7.782  12.848
62322SOL    HW188805   8.280   7.803  12.887
62322SOL    HW288806   8.372   7.840  12.772
62323SOL     OW88807  10.789  10.740  11.022
62323SOL    HW188808  10.770  10.666  11.079
62323SOL    HW288809  10.871  10.777  11.056
62324SOL     OW88810   3.418   5.520   9.621
62324SOL    HW188811   3.474   5.587   9.582
62324SOL    HW288812   3.344   5.513   9.561
62325SOL     OW88813  10.084   6.049   6.548
62325SOL    HW188814  10.023   6.002   6.491
62325SOL    HW288815  10.170   6.015   6.523
62326SOL     OW88816   1.484  13.048   8.086
62326SOL    HW188817   1.475  13.140   8.112
62326SOL    HW288818   1.397  13.010   8.103
62327SOL     OW88819  12.396   9.499   1.040
62327SOL    HW188820  12.378   9.552   1.118
62327SOL    HW288821  12.486   9.520   1.017
62328SOL     OW88822   8.379   2.197   4.274
62328SOL    HW188823   8.405   2.197   4.182
62328SOL    HW288824   8.363   2.104   4.294
62329SOL     OW88825   9.927   0.282   1.805
62329SOL    HW188826   9.900   0.210   1.748
62329SOL    HW288827  10.018   0.262   1.828
62330SOL     OW88828  10.676   9.152  12.979
62330SOL    HW188829  10.586   9.173  13.004
62330SOL    HW288830  10.693   9.067  13.019
62331SOL     OW88831   6.247   6.912   6.968
62331SOL    HW188832   6.334   6.943   6.942
62331SOL    HW288833   6.208   6.986   7.015
62332SOL     OW88834   8.494   5.874  14.098
62332SOL    HW188835   8.502   5.797  14.153
62332SOL    HW288836   8.460   5.841  14.015
62333SOL     OW88837  13.485  13.701  11.624
62333SOL    HW188838  13.504  13.607  11.632
62333SOL    HW288839  13.417  13.707  11.558
62334SOL     OW88840   6.510   6.928   0.485
62334SOL    HW188841   6.538   7.015   0.458
62334SOL    HW288842   6.421   6.941   0.519
62335SOL     OW88843   2.248   5.796   4.196
62335SOL    HW188844   2.196   5.759   4.124
62335SOL    HW288845   2.270   5.721   4.250
62336SOL     OW88846   6.731   9.042   3.519
62336SOL    HW188847   6.784   9.120   3.534
62336SOL    HW288848   6.777   8.973   3.567
62337SOL     OW88849   9.055   4.214   6.430
62337SOL    HW188850   9.127   4.273   6.451
62337SOL    HW288851   9.067   4.193   6.337
62338SOL     OW88852  13.768   5.497   7.029
62338SOL    HW188853  13.694   5.470   7.083
62338SOL    HW288854  13.837   5.520   7.092
62339SOL     OW88855   0.300  14.161   4.261
62339SOL    HW188856   0.302  14.146   4.356
62339SOL    HW288857   0.312  14.074   4.222
62340SOL     OW88858   9.713   2.884  10.658
62340SOL    HW188859   9.660   2.845  10.728
62340SOL    HW288860   9.790   2.826  10.652
62341SOL     OW88861   8.200   3.446   0.149
62341SOL    HW188862   8.197   3.513   0.080
62341SOL    HW288863   8.291   3.418   0.152
62342SOL     OW88864  14.247   6.242   7.364
62342SOL    HW188865  14.268   6.156   7.402
62342SOL    HW288866  14.152   6.238   7.349
62343SOL     OW88867   4.946  13.371   2.049
62343SOL    HW188868   4.938  13.394   1.957
62343SOL    HW288869   4.938  13.454   2.096
62344SOL     OW88870   0.890   3.620   4.113
62344SOL    HW188871   0.884   3.541   4.058
62344SOL    HW288872   0.976   3.656   4.093
62345SOL     OW88873   8.599   8.648   8.101
62345SOL    HW188874   8.627   8.676   8.189
62345SOL    HW288875   8.562   8.728   8.062
62346SOL     OW88876  11.092  12.593   2.368
62346SOL    HW188877  11.106  12.507   2.408
62346SOL    HW288878  11.054  12.573   2.282
62347SOL     OW88879  12.868   0.116  13.241
62347SOL    HW188880  12.902   0.205  13.247
62347SOL    HW288881  12.834   0.097  13.328
62348SOL     OW88882  11.576   5.078  12.320
62348SOL    HW188883  11.618   5.105  12.402
62348SOL    HW288884  11.522   5.153  12.295
62349SOL     OW88885   5.324   4.102   8.151
62349SOL    HW188886   5.360   4.166   8.213
62349SOL    HW288887   5.342   4.140   8.065
62350SOL     OW88888  10.619   4.370  13.339
62350SOL    HW188889  10.667   4.334  13.264
62350SOL    HW288890  10.599   4.460  13.313
62351SOL     OW88891   9.849   2.473   8.410
62351SOL    HW188892   9.914   2.504   8.347
62351SOL    HW288893   9.779   2.538   8.405
62352SOL     OW88894  14.730   9.201   0.213
62352SOL    HW188895  14.648   9.236   0.248
62352SOL    HW288896  14.704   9.123   0.164
62353SOL     OW88897  11.688   1.211   8.672
62353SOL    HW188898  11.770   1.169   8.697
62353SOL    HW288899  11.639   1.219   8.754
62354SOL     OW88900   1.173   8.499   7.764
62354SOL    HW188901   1.142   8.571   7.709
62354SOL    HW288902   1.264   8.486   7.736
62355SOL     OW88903   3.062   7.690  11.617
62355SOL    HW188904   3.103   7.639  11.687
62355SOL    HW288905   3.093   7.779  11.631
62356SOL     OW88906  12.155  14.138   1.557
62356SOL    HW188907  12.132  14.062   1.610
62356SOL    HW288908  12.246  14.157   1.579
62357SOL     OW88909   5.734  11.616   4.339
62357SOL    HW188910   5.719  11.521   4.340
62357SOL    HW288911   5.647  11.654   4.328
62358SOL     OW88912  13.960   4.635  10.290
62358SOL    HW188913  13.867   4.658  10.297
62358SOL    HW288914  13.972   4.615  10.197
62359SOL     OW88915   5.541   3.265  11.352
62359SOL    HW188916   5.589   3.246  11.272
62359SOL    HW288917   5.609   3.290  11.415
62360SOL     OW88918   2.700  14.536   0.321
62360SOL    HW188919   2.792  14.537   0.293
62360SOL    HW288920   2.664  14.456   0.284
62361SOL     OW88921   5.521  11.715   4.941
62361SOL    HW188922   5.461  11.664   4.887
62361SOL    HW288923   5.603  11.717   4.891
62362SOL     OW88924   0.900   1.322   7.015
62362SOL    HW188925   0.992   1.341   7.034
62362SOL    HW288926   0.873   1.391   6.954
62363SOL     OW88927   5.472   1.286   7.925
62363SOL    HW188928   5.462   1.191   7.933
62363SOL    HW288929   5.497   1.315   8.012
62364SOL     OW88930  14.860   6.950   3.473
62364SOL    HW188931   0.023   6.882   3.417
62364SOL    HW288932   0.044   7.026   3.459
62365SOL     OW88933   4.596   4.945   4.302
62365SOL    HW188934   4.523   4.906   4.350
62365SOL    HW288935   4.589   4.909   4.214
62366SOL     OW88936   8.257  13.212  12.583
62366SOL    HW188937   8.321  13.247  12.645
62366SOL    HW288938   8.172  13.237  12.619
62367SOL     OW88939  10.545   0.746   4.271
62367SOL    HW188940  10.453   0.765   4.287
62367SOL    HW288941  10.586   0.747   4.357
62368SOL     OW88942  14.571   3.411   7.966
62368SOL    HW188943  14.603   3.388   7.878
62368SOL    HW288944  14.565   3.327   8.011
62369SOL     OW88945   2.551   6.189  14.630
62369SOL    HW188946   2.606   6.153  14.560
62369SOL    HW288947   2.472   6.220  14.586
62370SOL     OW88948   1.439   1.219   6.378
62370SOL    HW188949   1.397   1.251   6.298
62370SOL    HW288950   1.390   1.140   6.401
62371SOL     OW88951  12.846   5.825   7.062
62371SOL    HW188952  12.856   5.759   7.130
62371SOL    HW288953  12.838   5.775   6.980
62372SOL     OW88954   4.221   9.769   0.441
62372SOL    HW188955   4.281   9.720   0.498
62372SOL    HW288956   4.195   9.845   0.493
62373SOL     OW88957  13.926  13.090   3.132
62373SOL    HW188958  13.967  13.098   3.046
62373SOL    HW288959  13.989  13.041   3.184
62374SOL     OW88960   9.008   6.148  13.160
62374SOL    HW188961   8.953   6.077  13.195
62374SOL    HW288962   9.024   6.123  13.069
62375SOL     OW88963   1.249   3.103  13.814
62375SOL    HW188964   1.252   3.162  13.889
62375SOL    HW288965   1.259   3.161  13.738
62376SOL     OW88966  13.327   1.795  12.202
62376SOL    HW188967  13.377   1.714  12.190
62376SOL    HW288968  13.243   1.766  12.239
62377SOL     OW88969   0.984   5.243   1.885
62377SOL    HW188970   1.036   5.312   1.844
62377SOL    HW288971   0.978   5.175   1.817
62378SOL     OW88972  13.995   3.653   4.828
62378SOL    HW188973  14.065   3.666   4.765
62378SOL    HW288974  13.914   3.661   4.777
62379SOL     OW88975   9.340   7.846   1.536
62379SOL    HW188976   9.313   7.766   1.490
62379SOL    HW288977   9.353   7.819   1.627
62380SOL     OW88978   1.123   7.416   6.765
62380SOL    HW188979   1.191   7.467   6.808
62380SOL    HW288980   1.104   7.345   6.826
62381SOL     OW88981   5.599   7.099  10.691
62381SOL    HW188982   5.546   7.023  10.671
62381SOL    HW288983   5.687   7.065  10.703
62382SOL     OW88984  14.295   7.183   0.001
62382SOL    HW188985  14.272   7.109   0.058
62382SOL    HW288986  14.211   7.225  14.856
62383SOL     OW88987   4.489   0.745  11.962
62383SOL    HW188988   4.528   0.830  11.982
62383SOL    HW288989   4.439   0.722  12.040
62384SOL     OW88990  14.581   1.518  12.531
62384SOL    HW188991  14.565   1.475  12.614
62384SOL    HW288992  14.494   1.530  12.492
62385SOL     OW88993  14.084   0.668   2.412
62385SOL    HW188994  14.169   0.687   2.372
62385SOL    HW288995  14.105   0.654   2.505
62386SOL     OW88996  13.017   2.276   3.774
62386SOL    HW188997  12.998   2.185   3.795
62386SOL    HW288998  13.111   2.279   3.757
62387SOL     OW88999   8.283  13.543   8.349
62387SOL    HW189000   8.327  13.589   8.278
62387SOL    HW289001   8.241  13.468   8.307
62388SOL     OW89002   0.274   4.697   3.082
62388SOL    HW189003   0.322   4.622   3.116
62388SOL    HW289004   0.183   4.678   3.103
62389SOL     OW89005   2.600  11.202   8.336
62389SOL    HW189006   2.529  11.163   8.388
62389SOL    HW289007   2.628  11.131   8.278
62390SOL     OW89008   7.005  12.366  11.867
62390SOL    HW189009   7.061  12.413  11.805
62390SOL    HW289010   6.987  12.282  11.825
62391SOL     OW89011  12.029   4.318   0.653
62391SOL    HW189012  12.023   4.355   0.565
62391SOL    HW289013  12.030   4.394   0.710
62392SOL     OW89014   9.785   7.934  14.434
62392SOL    HW189015   9.772   7.885  14.353
62392SOL    HW289016   9.699   7.968  14.456
62393SOL     OW89017   7.596  12.732  10.386
62393SOL    HW189018   7.651  12.791  10.334
62393SOL    HW289019   7.552  12.789  10.449
62394SOL     OW89020   7.741   8.140   4.424
62394SOL    HW189021   7.664   8.085   4.437
62394SOL    HW289022   7.722   8.219   4.475
62395SOL     OW89023   0.920   0.998  10.562
62395SOL    HW189024   1.002   1.017  10.517
62395SOL    HW289025   0.852   1.036  10.507
62396SOL     OW89026   5.147   5.309   1.178
62396SOL    HW189027   5.090   5.370   1.225
62396SOL    HW289028   5.145   5.341   1.087
62397SOL     OW89029   2.258   3.343   2.669
62397SOL    HW189030   2.267   3.387   2.585
62397SOL    HW289031   2.279   3.251   2.651
62398SOL     OW89032   2.840   8.677   8.078
62398SOL    HW189033   2.872   8.766   8.069
62398SOL    HW289034   2.908   8.632   8.130
62399SOL     OW89035  12.309  12.936   4.434
62399SOL    HW189036  12.240  12.916   4.497
62399SOL    HW289037  12.265  12.984   4.364
62400SOL     OW89038  12.459   1.959   2.825
62400SOL    HW189039  12.367   1.943   2.846
62400SOL    HW289040  12.460   2.045   2.783
62401SOL     OW89041   4.150  14.502   6.500
62401SOL    HW189042   4.174  14.417   6.464
62401SOL    HW289043   4.206  14.564   6.454
62402SOL     OW89044   0.290  13.189   9.513
62402SOL    HW189045   0.345  13.114   9.537
62402SOL    HW289046   0.351  13.260   9.498
62403SOL     OW89047   5.857   6.335   3.130
62403SOL    HW189048   5.839   6.359   3.039
62403SOL    HW289049   5.895   6.247   3.124
62404SOL     OW89050   6.868   1.700   5.529
62404SOL    HW189051   6.883   1.626   5.470
62404SOL    HW289052   6.825   1.766   5.474
62405SOL     OW89053   0.156   0.938  11.191
62405SOL    HW189054   0.093   0.868  11.209
62405SOL    HW289055   0.192   0.916  11.105
62406SOL     OW89056   7.863   6.050   7.447
62406SOL    HW189057   7.952   6.037   7.481
62406SOL    HW289058   7.817   6.095   7.519
62407SOL     OW89059   2.362   7.410  11.414
62407SOL    HW189060   2.356   7.480  11.349
62407SOL    HW289061   2.355   7.329  11.363
62408SOL     OW89062   4.189  14.728   9.570
62408SOL    HW189063   4.226  14.724   9.658
62408SOL    HW289064   4.226  14.807   9.532
62409SOL     OW89065   0.437   5.104  12.397
62409SOL    HW189066   0.392   5.097  12.313
62409SOL    HW289067   0.461   5.014  12.420
62410SOL     OW89068   3.679   8.848   2.921
62410SOL    HW189069   3.611   8.818   2.982
62410SOL    HW289070   3.682   8.943   2.933
62411SOL     OW89071   6.289  10.248   2.605
62411SOL    HW189072   6.382  10.228   2.605
62411SOL    HW289073   6.259  10.228   2.516
62412SOL     OW89074   5.887   9.455   5.040
62412SOL    HW189075   5.890   9.478   5.133
62412SOL    HW289076   5.919   9.364   5.037
62413SOL     OW89077   7.147   3.276  12.511
62413SOL    HW189078   7.065   3.322  12.494
62413SOL    HW289079   7.185   3.261  12.425
62414SOL     OW89080   4.866  13.654   2.190
62414SOL    HW189081   4.921  13.698   2.126
62414SOL    HW289082   4.779  13.693   2.178
62415SOL     OW89083   5.278  13.901   6.495
62415SOL    HW189084   5.292  13.927   6.404
62415SOL    HW289085   5.262  13.983   6.542
62416SOL     OW89086   8.051  11.773  11.795
62416SOL    HW189087   7.960  11.803  11.801
62416SOL    HW289088   8.063  11.721  11.874
62417SOL     OW89089  11.940  13.869  10.833
62417SOL    HW189090  11.916  13.803  10.768
62417SOL    HW289091  12.031  13.850  10.855
62418SOL     OW89092   8.730   5.704   4.906
62418SOL    HW189093   8.652   5.650   4.914
62418SOL    HW289094   8.799   5.643   4.878
62419SOL     OW89095   9.207   6.549  10.727
62419SOL    HW189096   9.143   6.620  10.740
62419SOL    HW289097   9.158   6.480  10.683
62420SOL     OW89098   7.325  13.746   4.089
62420SOL    HW189099   7.302  13.654   4.089
62420SOL    HW289100   7.374  13.759   4.171
62421SOL     OW89101   7.475   1.550  12.057
62421SOL    HW189102   7.514   1.494  11.990
62421SOL    HW289103   7.400   1.591  12.013
62422SOL     OW89104  14.542   6.196   7.375
62422SOL    HW189105  14.466   6.240   7.413
62422SOL    HW289106  14.517   6.179   7.284
62423SOL     OW89107   4.914   8.870  10.119
62423SOL    HW189108   4.886   8.958  10.145
62423SOL    HW289109   4.853   8.845  10.050
62424SOL     OW89110   3.409   0.180   2.500
62424SOL    HW189111   3.430   0.271   2.520
62424SOL    HW289112   3.493   0.134   2.505
62425SOL     OW89113   7.767   7.783   6.066
62425SOL    HW189114   7.851   7.744   6.038
62425SOL    HW289115   7.790   7.839   6.139
62426SOL     OW89116   4.032  13.127   9.881
62426SOL    HW189117   4.041  13.081   9.965
62426SOL    HW289118   3.939  13.122   9.862
62427SOL     OW89119   3.894  14.394  11.139
62427SOL    HW189120   3.936  14.470  11.179
62427SOL    HW289121   3.880  14.334  11.212
62428SOL     OW89122   5.246   6.737  11.837
62428SOL    HW189123   5.252   6.766  11.746
62428SOL    HW289124   5.222   6.644  11.831
62429SOL     OW89125   9.238   4.166   6.212
62429SOL    HW189126   9.312   4.226   6.225
62429SOL    HW289127   9.219   4.171   6.118
62430SOL     OW89128   7.244  11.983  12.513
62430SOL    HW189129   7.243  11.969  12.418
62430SOL    HW289130   7.220  11.898  12.550
62431SOL     OW89131   5.655  12.960  10.352
62431SOL    HW189132   5.591  12.907  10.401
62431SOL    HW289133   5.718  12.896  10.319
62432SOL     OW89134   1.941   5.539  12.013
62432SOL    HW189135   1.902   5.619  12.049
62432SOL    HW289136   1.940   5.552  11.919
62433SOL     OW89137  12.431   1.106   0.878
62433SOL    HW189138  12.367   1.066   0.819
62433SOL    HW289139  12.510   1.053   0.867
62434SOL     OW89140   6.577   4.223   4.207
62434SOL    HW189141   6.632   4.261   4.276
62434SOL    HW289142   6.617   4.138   4.188
62435SOL     OW89143   4.575   8.694   4.733
62435SOL    HW189144   4.494   8.691   4.785
62435SOL    HW289145   4.641   8.726   4.793
62436SOL     OW89146   7.216   3.141   0.213
62436SOL    HW189147   7.273   3.122   0.287
62436SOL    HW289148   7.247   3.226   0.180
62437SOL     OW89149  11.963  12.446  10.112
62437SOL    HW189150  11.879  12.403  10.099
62437SOL    HW289151  11.974  12.503  10.036
62438SOL     OW89152  14.600  10.153   6.028
62438SOL    HW189153  14.618  10.107   5.946
62438SOL    HW289154  14.631  10.243   6.012
62439SOL     OW89155   5.400   5.206   8.426
62439SOL    HW189156   5.363   5.163   8.349
62439SOL    HW289157   5.380   5.146   8.498
62440SOL     OW89158  14.566  10.693   7.098
62440SOL    HW189159  14.635  10.676   7.163
62440SOL    HW289160  14.613  10.708   7.016
62441SOL     OW89161  12.733   7.256   1.332
62441SOL    HW189162  12.652   7.306   1.321
62441SOL    HW289163  12.704   7.165   1.341
62442SOL     OW89164   4.240   3.259   2.801
62442SOL    HW189165   4.237   3.252   2.706
62442SOL    HW289166   4.191   3.338   2.821
62443SOL     OW89167   1.300   6.401  10.255
62443SOL    HW189168   1.244   6.359  10.321
62443SOL    HW289169   1.388   6.366  10.272
62444SOL     OW89170   9.926   1.629   7.328
62444SOL    HW189171   9.875   1.552   7.303
62444SOL    HW289172   9.978   1.601   7.403
62445SOL     OW89173  14.307  12.685  12.699
62445SOL    HW189174  14.252  12.696  12.777
62445SOL    HW289175  14.253  12.633  12.639
62446SOL     OW89176  12.932   8.549   7.295
62446SOL    HW189177  12.850   8.500   7.302
62446SOL    HW289178  12.929   8.587   7.207
62447SOL     OW89179  14.696  11.948   3.249
62447SOL    HW189180  14.763  11.910   3.193
62447SOL    HW289181  14.614  11.908   3.220
62448SOL     OW89182   5.932   9.653  11.733
62448SOL    HW189183   5.893   9.586  11.678
62448SOL    HW289184   5.878   9.655  11.812
62449SOL     OW89185   8.513  13.519  14.728
62449SOL    HW189186   8.460  13.592  14.760
62449SOL    HW289187   8.460  13.479  14.658
62450SOL     OW89188   3.480   6.784  14.196
62450SOL    HW189189   3.453   6.790  14.288
62450SOL    HW289190   3.410   6.733  14.154
62451SOL     OW89191   7.341  11.693   5.724
62451SOL    HW189192   7.421  11.660   5.765
62451SOL    HW289193   7.354  11.787   5.718
62452SOL     OW89194   4.523   1.860  13.973
62452SOL    HW189195   4.544   1.914  14.050
62452SOL    HW289196   4.428   1.870  13.962
62453SOL     OW89197  14.555  11.213   5.551
62453SOL    HW189198  14.519  11.212   5.462
62453SOL    HW289199  14.623  11.146   5.550
62454SOL     OW89200   9.641   3.594   6.006
62454SOL    HW189201   9.661   3.631   5.920
62454SOL    HW289202   9.564   3.642   6.035
62455SOL     OW89203   7.027  10.870   8.357
62455SOL    HW189204   6.979  10.787   8.350
62455SOL    HW289205   6.998  10.921   8.281
62456SOL     OW89206  12.576  11.704  12.728
62456SOL    HW189207  12.527  11.724  12.648
62456SOL    HW289208  12.667  11.721  12.705
62457SOL     OW89209   8.247  10.135   6.975
62457SOL    HW189210   8.195  10.215   6.973
62457SOL    HW289211   8.322  10.154   6.919
62458SOL     OW89212   4.561  13.235   1.357
62458SOL    HW189213   4.635  13.289   1.387
62458SOL    HW289214   4.535  13.276   1.274
62459SOL     OW89215   8.692   2.076   8.263
62459SOL    HW189216   8.700   2.055   8.170
62459SOL    HW289217   8.618   2.137   8.268
62460SOL     OW89218   5.284   4.719   9.569
62460SOL    HW189219   5.321   4.788   9.625
62460SOL    HW289220   5.215   4.763   9.520
62461SOL     OW89221   6.516   9.186   2.813
62461SOL    HW189222   6.504   9.142   2.728
62461SOL    HW289223   6.481   9.124   2.876
62462SOL     OW89224   6.869  11.915   6.395
62462SOL    HW189225   6.878  11.974   6.320
62462SOL    HW289226   6.958  11.906   6.430
62463SOL     OW89227  11.014  14.782  12.763
62463SOL    HW189228  11.082  14.768  12.829
62463SOL    HW289229  10.932  14.769  12.809
62464SOL     OW89230  13.467   6.590   9.640
62464SOL    HW189231  13.547   6.629   9.604
62464SOL    HW289232  13.456   6.632   9.725
62465SOL     OW89233   9.725  12.478  13.277
62465SOL    HW189234   9.643  12.496  13.231
62465SOL    HW289235   9.790  12.533  13.233
62466SOL     OW89236   4.973  10.383   1.449
62466SOL    HW189237   4.903  10.417   1.393
62466SOL    HW289238   5.027  10.460   1.467
62467SOL     OW89239   7.138  11.875   3.431
62467SOL    HW189240   7.186  11.859   3.350
62467SOL    HW289241   7.200  11.855   3.501
62468SOL     OW89242   6.700   9.220  10.097
62468SOL    HW189243   6.750   9.281  10.151
62468SOL    HW289244   6.690   9.142  10.151
62469SOL     OW89245   1.363   5.714   1.143
62469SOL    HW189246   1.330   5.650   1.079
62469SOL    HW289247   1.323   5.687   1.226
62470SOL     OW89248  12.795   1.940   7.242
62470SOL    HW189249  12.774   1.966   7.332
62470SOL    HW289250  12.715   1.958   7.193
62471SOL     OW89251   4.432   3.609   3.604
62471SOL    HW189252   4.345   3.574   3.587
62471SOL    HW289253   4.463   3.636   3.517
62472SOL     OW89254  14.556   1.726  10.578
62472SOL    HW189255  14.569   1.635  10.549
62472SOL    HW289256  14.463   1.732  10.597
62473SOL     OW89257   8.238   3.354  12.903
62473SOL    HW189258   8.322   3.318  12.932
62473SOL    HW289259   8.235   3.442  12.942
62474SOL     OW89260   8.163   4.096   4.351
62474SOL    HW189261   8.109   4.173   4.338
62474SOL    HW289262   8.117   4.025   4.305
62475SOL     OW89263   2.865  14.026  13.429
62475SOL    HW189264   2.775  14.045  13.402
62475SOL    HW289265   2.919  14.058  13.357
62476SOL     OW89266   9.359  12.783  11.604
62476SOL    HW189267   9.393  12.871  11.624
62476SOL    HW289268   9.368  12.776  11.509
62477SOL     OW89269   8.643   5.218  10.719
62477SOL    HW189270   8.567   5.253  10.671
62477SOL    HW289271   8.714   5.221  10.655
62478SOL     OW89272   7.083  11.771  12.666
62478SOL    HW189273   7.114  11.681  12.660
62478SOL    HW289274   7.074  11.788  12.760
62479SOL     OW89275   8.751   8.853   1.407
62479SOL    HW189276   8.705   8.923   1.453
62479SOL    HW289277   8.768   8.887   1.320
62480SOL     OW89278   4.860   6.068   0.264
62480SOL    HW189279   4.856   6.160   0.290
62480SOL    HW289280   4.798   6.060   0.192
62481SOL     OW89281  11.376   8.485  10.332
62481SOL    HW189282  11.354   8.577  10.323
62481SOL    HW289283  11.430   8.465  10.256
62482SOL     OW89284   2.733  14.672   3.379
62482SOL    HW189285   2.719  14.622   3.298
62482SOL    HW289286   2.648  14.715   3.395
62483SOL     OW89287  11.299  14.780   1.875
62483SOL    HW189288  11.313  14.719   1.947
62483SOL    HW289289  11.307  14.726   1.796
62484SOL     OW89290  12.842   0.738   7.735
62484SOL    HW189291  12.804   0.691   7.661
62484SOL    HW289292  12.915   0.682   7.763
62485SOL     OW89293   2.453   9.742   0.150
62485SOL    HW189294   2.512   9.753   0.075
62485SOL    HW289295   2.460   9.824   0.198
62486SOL     OW89296   1.748   8.214  10.723
62486SOL    HW189297   1.739   8.275  10.650
62486SOL    HW289298   1.699   8.136  10.695
62487SOL     OW89299  12.968   2.338   3.341
62487SOL    HW189300  12.959   2.292   3.258
62487SOL    HW289301  12.963   2.269   3.407
62488SOL     OW89302   5.477   8.633   5.319
62488SOL    HW189303   5.407   8.652   5.381
62488SOL    HW289304   5.473   8.538   5.307
62489SOL     OW89305  11.811   6.206   2.486
62489SOL    HW189306  11.722   6.213   2.521
62489SOL    HW289307  11.825   6.289   2.440
62490SOL     OW89308   4.498  10.900   6.038
62490SOL    HW189309   4.565  10.908   5.969
62490SOL    HW289310   4.513  10.975   6.095
62491SOL     OW89311   5.181   5.224  10.801
62491SOL    HW189312   5.164   5.198  10.891
62491SOL    HW289313   5.275   5.209  10.790
62492SOL     OW89314  12.219  10.578   8.933
62492SOL    HW189315  12.265  10.627   9.002
62492SOL    HW289316  12.127  10.596   8.948
62493SOL     OW89317  11.198   2.254   2.691
62493SOL    HW189318  11.257   2.260   2.766
62493SOL    HW289319  11.121   2.306   2.717
62494SOL     OW89320  10.133   4.382  11.223
62494SOL    HW189321  10.212   4.372  11.169
62494SOL    HW289322  10.073   4.432  11.168
62495SOL     OW89323   0.014   9.867   3.982
62495SOL    HW189324   0.068   9.815   3.922
62495SOL    HW289325  14.837   9.802   4.032
62496SOL     OW89326   0.559  12.730  14.503
62496SOL    HW189327   0.622  12.738  14.575
62496SOL    HW289328   0.480  12.772  14.536
62497SOL     OW89329   0.101  14.086  13.759
62497SOL    HW189330   0.192  14.079  13.729
62497SOL    HW289331   0.103  14.054  13.849
62498SOL     OW89332   3.622  13.676  12.157
62498SOL    HW189333   3.533  13.691  12.190
62498SOL    HW289334   3.612  13.663  12.063
62499SOL     OW89335   2.090  14.645  13.800
62499SOL    HW189336   2.082  14.605  13.714
62499SOL    HW289337   2.081  14.739  13.783
62500SOL     OW89338  11.241   7.728  14.324
62500SOL    HW189339  11.148   7.713  14.344
62500SOL    HW289340  11.266   7.802  14.380
62501SOL     OW89341   6.100  12.024  14.618
62501SOL    HW189342   6.165  11.955  14.632
62501SOL    HW289343   6.047  12.023  14.698
62502SOL     OW89344   2.205  11.099  11.193
62502SOL    HW189345   2.219  11.028  11.130
62502SOL    HW289346   2.243  11.067  11.275
62503SOL     OW89347   8.635   6.258   8.235
62503SOL    HW189348   8.682   6.195   8.290
62503SOL    HW289349   8.597   6.204   8.165
62504SOL     OW89350  12.009  13.184   0.538
62504SOL    HW189351  12.057  13.110   0.500
62504SOL    HW289352  11.975  13.151   0.621
62505SOL     OW89353  11.659   7.257   5.383
62505SOL    HW189354  11.746   7.294   5.397
62505SOL    HW289355  11.627   7.300   5.303
62506SOL     OW89356   6.500  11.472   6.117
62506SOL    HW189357   6.574  11.528   6.140
62506SOL    HW289358   6.486  11.417   6.194
62507SOL     OW89359  12.979  13.324   5.826
62507SOL    HW189360  12.915  13.267   5.867
62507SOL    HW289361  12.969  13.308   5.732
62508SOL     OW89362  13.513   6.411   8.659
62508SOL    HW189363  13.430   6.459   8.661
62508SOL    HW289364  13.494   6.330   8.706
62509SOL     OW89365   5.631   7.160   0.543
62509SOL    HW189366   5.562   7.195   0.598
62509SOL    HW289367   5.611   7.191   0.455
62510SOL     OW89368   2.244  11.136   0.003
62510SOL    HW189369   2.295  11.149  14.796
62510SOL    HW289370   2.179  11.206   0.002
62511SOL     OW89371  10.554  14.295   4.625
62511SOL    HW189372  10.588  14.330   4.707
62511SOL    HW289373  10.615  14.326   4.558
62512SOL     OW89374  12.798   7.749   5.378
62512SOL    HW189375  12.860   7.763   5.449
62512SOL    HW289376  12.714   7.778   5.414
62513SOL     OW89377   5.039   5.541   7.012
62513SOL    HW189378   5.073   5.467   7.064
62513SOL    HW289379   4.971   5.503   6.957
62514SOL     OW89380   2.291   7.047  11.038
62514SOL    HW189381   2.310   7.141  11.042
62514SOL    HW289382   2.252   7.027  11.123
62515SOL     OW89383  13.504   4.863  10.651
62515SOL    HW189384  13.484   4.815  10.571
62515SOL    HW289385  13.568   4.929  10.624
62516SOL     OW89386   9.193   6.063  12.037
62516SOL    HW189387   9.210   6.147  12.078
62516SOL    HW289388   9.100   6.064  12.017
62517SOL     OW89389  12.028   0.353  13.365
62517SOL    HW189390  12.062   0.384  13.449
62517SOL    HW289391  12.106   0.343  13.310
62518SOL     OW89392  13.244  13.113  13.176
62518SOL    HW189393  13.182  13.147  13.112
62518SOL    HW289394  13.207  13.139  13.261
62519SOL     OW89395  11.569   6.656   4.541
62519SOL    HW189396  11.665   6.659   4.543
62519SOL    HW289397  11.542   6.738   4.581
62520SOL     OW89398   9.363   9.067   3.134
62520SOL    HW189399   9.358   9.137   3.198
62520SOL    HW289400   9.308   8.997   3.170
62521SOL     OW89401   0.068   1.628  13.211
62521SOL    HW189402  14.860   1.584  13.187
62521SOL    HW289403   0.125   1.557  13.240
62522SOL     OW89404  14.801   6.653   6.491
62522SOL    HW189405  14.708   6.644   6.512
62522SOL    HW289406  14.825   6.740   6.524
62523SOL     OW89407   0.228   3.142   6.494
62523SOL    HW189408   0.307   3.193   6.516
62523SOL    HW289409   0.247   3.054   6.527
62524SOL     OW89410   5.652   2.358   8.709
62524SOL    HW189411   5.736   2.404   8.706
62524SOL    HW289412   5.675   2.267   8.727
62525SOL     OW89413  14.662  12.009   9.314
62525SOL    HW189414  14.594  12.072   9.337
62525SOL    HW289415  14.658  12.005   9.218
62526SOL     OW89416  12.578  14.434   8.740
62526SOL    HW189417  12.579  14.515   8.688
62526SOL    HW289418  12.544  14.368   8.680
62527SOL     OW89419   8.978  13.331  10.900
62527SOL    HW189420   9.062  13.366  10.930
62527SOL    HW289421   8.963  13.374  10.816
62528SOL     OW89422   4.556  12.878   4.748
62528SOL    HW189423   4.537  12.893   4.655
62528SOL    HW289424   4.652  12.868   4.752
62529SOL     OW89425  10.837   7.825   3.918
62529SOL    HW189426  10.924   7.862   3.932
62529SOL    HW289427  10.802   7.813   4.006
62530SOL     OW89428   4.976   4.571   6.938
62530SOL    HW189429   5.072   4.563   6.940
62530SOL    HW289430   4.945   4.481   6.945
62531SOL     OW89431   1.440   4.177  13.708
62531SOL    HW189432   1.470   4.264  13.734
62531SOL    HW289433   1.345   4.180  13.719
62532SOL     OW89434   0.379   3.807   8.530
62532SOL    HW189435   0.379   3.902   8.526
62532SOL    HW289436   0.291   3.784   8.560
62533SOL     OW89437   7.988   6.596   9.136
62533SOL    HW189438   8.074   6.625   9.166
62533SOL    HW289439   7.931   6.672   9.147
62534SOL     OW89440   2.160   9.422   3.333
62534SOL    HW189441   2.092   9.448   3.396
62534SOL    HW289442   2.134   9.334   3.305
62535SOL     OW89443   9.513   4.702   4.126
62535SOL    HW189444   9.496   4.663   4.040
62535SOL    HW289445   9.445   4.665   4.183
62536SOL     OW89446  12.320   9.040  13.725
62536SOL    HW189447  12.380   9.091  13.779
62536SOL    HW289448  12.360   9.039  13.639
62537SOL     OW89449   9.887   5.800  11.835
62537SOL    HW189450   9.810   5.842  11.872
62537SOL    HW289451   9.949   5.797  11.908
62538SOL     OW89452  11.849   9.511   3.311
62538SOL    HW189453  11.753   9.514   3.306
62538SOL    HW289454  11.876   9.475   3.227
62539SOL     OW89455   3.251   0.153   8.644
62539SOL    HW189456   3.287   0.241   8.644
62539SOL    HW289457   3.156   0.166   8.634
62540SOL     OW89458   3.461  14.230   2.277
62540SOL    HW189459   3.459  14.157   2.339
62540SOL    HW289460   3.400  14.204   2.207
62541SOL     OW89461   0.024  13.790  12.318
62541SOL    HW189462   0.028  13.793  12.222
62541SOL    HW289463   0.085  13.857  12.347
62542SOL     OW89464   0.965   0.848   4.488
62542SOL    HW189465   1.019   0.912   4.535
62542SOL    HW289466   0.890   0.832   4.546
62543SOL     OW89467   2.216   3.139   7.483
62543SOL    HW189468   2.240   3.062   7.534
62543SOL    HW289469   2.232   3.213   7.541
62544SOL     OW89470  13.559   7.306   9.210
62544SOL    HW189471  13.645   7.347   9.221
62544SOL    HW289472  13.549   7.250   9.286
62545SOL     OW89473  12.394   5.803   5.254
62545SOL    HW189474  12.373   5.896   5.262
62545SOL    HW289475  12.446   5.783   5.332
62546SOL     OW89476  12.874   6.482   1.882
62546SOL    HW189477  12.937   6.436   1.938
62546SOL    HW289478  12.795   6.488   1.936
62547SOL     OW89479   2.565  14.069   9.957
62547SOL    HW189480   2.630  14.027  10.014
62547SOL    HW289481   2.575  14.162   9.974
62548SOL     OW89482  11.710   4.460   5.525
62548SOL    HW189483  11.735   4.367   5.524
62548SOL    HW289484  11.777   4.504   5.474
62549SOL     OW89485   1.928   5.229  13.290
62549SOL    HW189486   1.885   5.247  13.374
62549SOL    HW289487   1.896   5.296  13.231
62550SOL     OW89488   5.913   8.091  11.396
62550SOL    HW189489   5.928   8.174  11.443
62550SOL    HW289490   5.828   8.061  11.428
62551SOL     OW89491   5.720   4.297   0.733
62551SOL    HW189492   5.669   4.294   0.814
62551SOL    HW289493   5.674   4.360   0.678
62552SOL     OW89494  12.262   3.501  13.132
62552SOL    HW189495  12.250   3.415  13.091
62552SOL    HW289496  12.343   3.493  13.181
62553SOL     OW89497   1.966  12.277  11.049
62553SOL    HW189498   1.871  12.272  11.061
62553SOL    HW289499   2.001  12.208  11.105
62554SOL     OW89500   3.935   5.151   4.808
62554SOL    HW189501   3.850   5.186   4.783
62554SOL    HW289502   3.934   5.060   4.778
62555SOL     OW89503  11.948   7.771   5.723
62555SOL    HW189504  11.865   7.811   5.696
62555SOL    HW289505  11.948   7.685   5.682
62556SOL     OW89506   9.573   9.122   8.963
62556SOL    HW189507   9.516   9.115   8.887
62556SOL    HW289508   9.555   9.042   9.014
62557SOL     OW89509   8.791  12.898   8.905
62557SOL    HW189510   8.779  12.935   8.992
62557SOL    HW289511   8.886  12.903   8.890
62558SOL     OW89512   6.769   7.737  14.292
62558SOL    HW189513   6.855   7.770  14.265
62558SOL    HW289514   6.714   7.815  14.297
62559SOL     OW89515   2.610   3.438   8.451
62559SOL    HW189516   2.602   3.502   8.522
62559SOL    HW289517   2.644   3.489   8.378
62560SOL     OW89518   0.901  14.069   5.609
62560SOL    HW189519   0.814  14.028   5.604
62560SOL    HW289520   0.954  14.006   5.658
62561SOL     OW89521  13.122  12.832   7.624
62561SOL    HW189522  13.028  12.832   7.606
62561SOL    HW289523  13.132  12.888   7.701
62562SOL     OW89524  11.146   0.693   1.622
62562SOL    HW189525  11.085   0.673   1.551
62562SOL    HW289526  11.194   0.612   1.636
62563SOL     OW89527  11.604   2.587  12.909
62563SOL    HW189528  11.555   2.584  12.827
62563SOL    HW289529  11.695   2.570  12.883
62564SOL     OW89530   1.873   3.966  13.148
62564SOL    HW189531   1.955   3.974  13.099
62564SOL    HW289532   1.851   3.873  13.143
62565SOL     OW89533   4.103   1.018   7.163
62565SOL    HW189534   4.038   0.949   7.151
62565SOL    HW289535   4.053   1.100   7.161
62566SOL     OW89536   1.797   7.484   9.169
62566SOL    HW189537   1.854   7.479   9.246
62566SOL    HW289538   1.829   7.415   9.111
62567SOL     OW89539   2.280  13.057   8.097
62567SOL    HW189540   2.213  13.116   8.132
62567SOL    HW289541   2.339  13.041   8.170
62568SOL     OW89542  11.814   9.274   3.671
62568SOL    HW189543  11.853   9.361   3.669
62568SOL    HW289544  11.887   9.215   3.656
62569SOL     OW89545   9.539   8.069   0.054
62569SOL    HW189546   9.621   8.105   0.020
62569SOL    HW289547   9.471   8.117   0.009
62570SOL     OW89548   4.421   8.036  10.866
62570SOL    HW189549   4.346   7.978  10.851
62570SOL    HW289550   4.418   8.056  10.960
62571SOL     OW89551  14.589  14.325   0.539
62571SOL    HW189552  14.587  14.419   0.518
62571SOL    HW289553  14.623  14.321   0.628
62572SOL     OW89554   2.686   6.489   2.736
62572SOL    HW189555   2.592   6.471   2.740
62572SOL    HW289556   2.692   6.584   2.751
62573SOL     OW89557   3.230  12.955   8.809
62573SOL    HW189558   3.175  12.966   8.731
62573SOL    HW289559   3.226  13.041   8.853
62574SOL     OW89560  14.271   1.303  14.750
62574SOL    HW189561  14.278   1.399  14.745
62574SOL    HW289562  14.195   1.288  14.805
62575SOL     OW89563  12.911   7.907  14.192
62575SOL    HW189564  12.893   7.989  14.145
62575SOL    HW289565  12.965   7.856  14.131
62576SOL     OW89566   3.294   1.256   0.740
62576SOL    HW189567   3.311   1.166   0.711
62576SOL    HW289568   3.370   1.305   0.710
62577SOL     OW89569  11.134   9.747  10.492
62577SOL    HW189570  11.168   9.762  10.581
62577SOL    HW289571  11.050   9.703  10.506
62578SOL     OW89572  14.070  14.653   4.425
62578SOL    HW189573  14.066  14.567   4.383
62578SOL    HW289574  13.997  14.702   4.386
62579SOL     OW89575  13.752  14.653   9.036
62579SOL    HW189576  13.845  14.664   9.058
62579SOL    HW289577  13.714  14.610   9.112
62580SOL     OW89578   8.433   5.149   2.682
62580SOL    HW189579   8.349   5.165   2.640
62580SOL    HW289580   8.416   5.078   2.744
62581SOL     OW89581  13.480   2.612  10.785
62581SOL    HW189582  13.508   2.532  10.740
62581SOL    HW289583  13.435   2.663  10.717
62582SOL     OW89584   3.107   1.397   2.247
62582SOL    HW189585   3.139   1.353   2.326
62582SOL    HW289586   3.110   1.490   2.268
62583SOL     OW89587   3.214   5.043   5.534
62583SOL    HW189588   3.160   5.119   5.510
62583SOL    HW289589   3.257   5.069   5.615
62584SOL     OW89590  14.017   3.457   0.540
62584SOL    HW189591  13.923   3.450   0.526
62584SOL    HW289592  14.049   3.367   0.532
62585SOL     OW89593  12.686  14.555   8.286
62585SOL    HW189594  12.701  14.519   8.199
62585SOL    HW289595  12.750  14.626   8.294
62586SOL     OW89596   3.477  13.498   2.087
62586SOL    HW189597   3.454  13.405   2.080
62586SOL    HW289598   3.517  13.519   2.003
62587SOL     OW89599   0.921  11.496   2.755
62587SOL    HW189600   0.965  11.424   2.801
62587SOL    HW289601   0.828  11.484   2.775
62588SOL     OW89602  12.964  11.742   3.130
62588SOL    HW189603  12.943  11.833   3.148
62588SOL    HW289604  12.879  11.699   3.121
62589SOL     OW89605  11.897   2.543  10.010
62589SOL    HW189606  11.833   2.607  10.041
62589SOL    HW289607  11.844   2.469   9.980
62590SOL     OW89608   1.200  13.912   0.397
62590SOL    HW189609   1.156  13.955   0.324
62590SOL    HW289610   1.141  13.924   0.471
62591SOL     OW89611   3.935  12.030   0.427
62591SOL    HW189612   3.879  11.956   0.404
62591SOL    HW289613   3.977  12.055   0.344
62592SOL     OW89614   6.255   4.981   3.427
62592SOL    HW189615   6.164   5.011   3.433
62592SOL    HW289616   6.287   5.020   3.345
62593SOL     OW89617  12.362   0.330  12.827
62593SOL    HW189618  12.317   0.293  12.903
62593SOL    HW289619  12.411   0.404  12.862
62594SOL     OW89620   1.758  11.865   0.254
62594SOL    HW189621   1.816  11.935   0.225
62594SOL    HW289622   1.816  11.792   0.274
62595SOL     OW89623   2.472  12.684   8.414
62595SOL    HW189624   2.390  12.635   8.418
62595SOL    HW289625   2.486  12.716   8.503
62596SOL     OW89626  14.519   8.907   2.931
62596SOL    HW189627  14.484   8.988   2.968
62596SOL    HW289628  14.444   8.848   2.927
62597SOL     OW89629   8.512  11.324   6.367
62597SOL    HW189630   8.451  11.387   6.329
62597SOL    HW289631   8.588  11.326   6.310
62598SOL     OW89632   7.399   4.040   8.844
62598SOL    HW189633   7.473   4.006   8.896
62598SOL    HW289634   7.437   4.112   8.793
62599SOL     OW89635  13.364   7.513   8.573
62599SOL    HW189636  13.442   7.564   8.554
62599SOL    HW289637  13.375   7.431   8.524
62600SOL     OW89638  10.479   5.733   0.659
62600SOL    HW189639  10.493   5.639   0.645
62600SOL    HW289640  10.554   5.760   0.712
62601SOL     OW89641   7.953  10.381   7.450
62601SOL    HW189642   8.047  10.389   7.468
62601SOL    HW289643   7.912  10.446   7.508
62602SOL     OW89644   4.454  12.129   9.953
62602SOL    HW189645   4.539  12.115   9.911
62602SOL    HW289646   4.391  12.125   9.881
62603SOL     OW89647   2.570   5.899   7.267
62603SOL    HW189648   2.648   5.922   7.216
62603SOL    HW289649   2.516   5.978   7.266
62604SOL     OW89650   5.531   5.979   1.266
62604SOL    HW189651   5.534   5.903   1.324
62604SOL    HW289652   5.492   6.048   1.320
62605SOL     OW89653   0.243  14.656   8.298
62605SOL    HW189654   0.168  14.672   8.356
62605SOL    HW289655   0.208  14.599   8.230
62606SOL     OW89656   6.946   2.641  14.725
62606SOL    HW189657   6.995   2.602  14.653
62606SOL    HW289658   7.010   2.652  14.795
62607SOL     OW89659   1.138  13.580   8.058
62607SOL    HW189660   1.112  13.503   8.007
62607SOL    HW289661   1.223  13.557   8.095
62608SOL     OW89662  11.634   5.621   1.390
62608SOL    HW189663  11.666   5.599   1.303
62608SOL    HW289664  11.543   5.592   1.391
62609SOL     OW89665  10.243   0.139   5.962
62609SOL    HW189666  10.268   0.215   5.910
62609SOL    HW289667  10.323   0.086   5.967
62610SOL     OW89668  11.453   2.771   4.852
62610SOL    HW189669  11.439   2.810   4.766
62610SOL    HW289670  11.547   2.755   4.857
62611SOL     OW89671   8.084  14.643   1.495
62611SOL    HW189672   8.009  14.702   1.489
62611SOL    HW289673   8.048  14.556   1.476
62612SOL     OW89674  10.261  10.316   0.272
62612SOL    HW189675  10.223  10.285   0.189
62612SOL    HW289676  10.283  10.236   0.320
62613SOL     OW89677   4.720   6.512   0.466
62613SOL    HW189678   4.651   6.468   0.516
62613SOL    HW289679   4.776   6.552   0.533
62614SOL     OW89680   6.717  14.222  11.319
62614SOL    HW189681   6.655  14.221  11.391
62614SOL    HW289682   6.718  14.312  11.288
62615SOL     OW89683   6.560   7.630   3.002
62615SOL    HW189684   6.531   7.658   3.089
62615SOL    HW289685   6.639   7.681   2.986
62616SOL     OW89686   7.029  11.742   7.820
62616SOL    HW189687   7.015  11.817   7.763
62616SOL    HW289688   7.121  11.719   7.809
62617SOL     OW89689   0.822   9.284   2.644
62617SOL    HW189690   0.916   9.296   2.654
62617SOL    HW289691   0.809   9.189   2.648
62618SOL     OW89692   0.270   0.104   2.486
62618SOL    HW189693   0.332   0.163   2.442
62618SOL    HW289694   0.297   0.105   2.578
62619SOL     OW89695   7.984  11.670  14.715
62619SOL    HW189696   8.059  11.617  14.743
62619SOL    HW289697   7.937  11.689  14.796
62620SOL     OW89698   0.585   6.647   2.125
62620SOL    HW189699   0.629   6.591   2.061
62620SOL    HW289700   0.606   6.607   2.209
62621SOL     OW89701  11.803   5.207   9.627
62621SOL    HW189702  11.786   5.301   9.631
62621SOL    HW289703  11.868   5.198   9.557
62622SOL     OW89704  11.513   9.229   2.758
62622SOL    HW189705  11.551   9.205   2.842
62622SOL    HW289706  11.560   9.176   2.694
62623SOL     OW89707   2.998  11.521   7.309
62623SOL    HW189708   2.916  11.471   7.302
62623SOL    HW289709   3.064  11.455   7.332
62624SOL     OW89710   9.861   9.815   1.899
62624SOL    HW189711   9.933   9.873   1.926
62624SOL    HW289712   9.886   9.786   1.811
62625SOL     OW89713   5.306  13.812  13.742
62625SOL    HW189714   5.318  13.884  13.680
62625SOL    HW289715   5.252  13.849  13.812
62626SOL     OW89716   5.216  11.451   6.387
62626SOL    HW189717   5.130  11.465   6.347
62626SOL    HW289718   5.204  11.477   6.478
62627SOL     OW89719   5.252  13.687  11.938
62627SOL    HW189720   5.302  13.609  11.911
62627SOL    HW289721   5.315  13.759  11.933
62628SOL     OW89722   9.008   8.767  14.430
62628SOL    HW189723   8.971   8.762  14.342
62628SOL    HW289724   9.060   8.847  14.429
62629SOL     OW89725   9.211   1.915   5.881
62629SOL    HW189726   9.306   1.911   5.875
62629SOL    HW289727   9.182   1.832   5.842
62630SOL     OW89728  11.111   0.877   7.691
62630SOL    HW189729  11.092   0.958   7.644
62630SOL    HW289730  11.193   0.846   7.651
62631SOL     OW89731  12.756  13.333   9.057
62631SOL    HW189732  12.775  13.269   8.988
62631SOL    HW289733  12.660  13.340   9.057
62632SOL     OW89734   5.739   0.599  12.426
62632SOL    HW189735   5.779   0.649  12.355
62632SOL    HW289736   5.672   0.658  12.462
62633SOL     OW89737   7.665   8.487  12.072
62633SOL    HW189738   7.664   8.582  12.083
62633SOL    HW289739   7.642   8.474  11.980
62634SOL     OW89740   5.333   2.839   3.797
62634SOL    HW189741   5.418   2.797   3.798
62634SOL    HW289742   5.345   2.917   3.743
62635SOL     OW89743  13.011   5.662  13.136
62635SOL    HW189744  13.002   5.571  13.166
62635SOL    HW289745  13.040   5.710  13.214
62636SOL     OW89746   5.523  13.634   1.492
62636SOL    HW189747   5.547  13.606   1.404
62636SOL    HW289748   5.564  13.720   1.501
62637SOL     OW89749  14.585  10.014  12.530
62637SOL    HW189750  14.490  10.013  12.518
62637SOL    HW289751  14.602   9.939  12.588
62638SOL     OW89752  11.012   6.394   4.331
62638SOL    HW189753  11.017   6.480   4.288
62638SOL    HW289754  11.097   6.354   4.315
62639SOL     OW89755   6.912  13.881   5.351
62639SOL    HW189756   6.871  13.932   5.421
62639SOL    HW289757   6.864  13.905   5.272
62640SOL     OW89758  11.109   9.481  12.726
62640SOL    HW189759  11.126   9.570  12.694
62640SOL    HW289760  11.014   9.470  12.715
62641SOL     OW89761  11.977   0.011   5.522
62641SOL    HW189762  11.937   0.092   5.492
62641SOL    HW289763  12.050  14.870   5.463
62642SOL     OW89764  13.397  12.874   7.642
62642SOL    HW189765  13.304  12.867   7.619
62642SOL    HW289766  13.397  12.899   7.734
62643SOL     OW89767   0.394   6.973   1.337
62643SOL    HW189768   0.390   6.912   1.410
62643SOL    HW289769   0.401   6.918   1.260
62644SOL     OW89770   0.323   8.360  13.636
62644SOL    HW189771   0.304   8.282  13.585
62644SOL    HW289772   0.277   8.347  13.719
62645SOL     OW89773   8.327   5.753   3.719
62645SOL    HW189774   8.413   5.793   3.727
62645SOL    HW289775   8.266   5.826   3.715
62646SOL     OW89776   1.190   6.766  11.165
62646SOL    HW189777   1.111   6.727  11.202
62646SOL    HW289778   1.256   6.757  11.233
62647SOL     OW89779   6.175   2.391  10.555
62647SOL    HW189780   6.178   2.326  10.625
62647SOL    HW289781   6.109   2.358  10.494
62648SOL     OW89782  14.600   8.776   9.596
62648SOL    HW189783  14.574   8.754   9.506
62648SOL    HW289784  14.542   8.725   9.651
62649SOL     OW89785   9.061   1.280  12.876
62649SOL    HW189786   9.137   1.236  12.838
62649SOL    HW289787   8.992   1.269  12.811
62650SOL     OW89788   2.268  14.277   6.845
62650SOL    HW189789   2.224  14.269   6.760
62650SOL    HW289790   2.208  14.235   6.907
62651SOL     OW89791   3.987   6.904  14.766
62651SOL    HW189792   3.966   6.865  14.681
62651SOL    HW289793   4.041   6.837  14.809
62652SOL     OW89794   5.660   6.584  14.869
62652SOL    HW189795   5.721   6.579  14.796
62652SOL    HW289796   5.708   6.631   0.064
62653SOL     OW89797   0.705   4.045   0.616
62653SOL    HW189798   0.696   4.073   0.707
62653SOL    HW289799   0.723   3.951   0.622
62654SOL     OW89800   4.336   2.728   1.515
62654SOL    HW189801   4.292   2.647   1.539
62654SOL    HW289802   4.265   2.792   1.507
62655SOL     OW89803   0.313  14.419  10.538
62655SOL    HW189804   0.244  14.485  10.536
62655SOL    HW289805   0.345  14.415  10.448
62656SOL     OW89806   5.765  14.085   6.005
62656SOL    HW189807   5.722  14.132   6.077
62656SOL    HW289808   5.843  14.046   6.046
62657SOL     OW89809   1.294   5.802   7.268
62657SOL    HW189810   1.242   5.835   7.195
62657SOL    HW289811   1.243   5.826   7.346
62658SOL     OW89812  13.652   7.845   2.350
62658SOL    HW189813  13.594   7.782   2.393
62658SOL    HW289814  13.706   7.792   2.291
62659SOL     OW89815   9.306  11.467   2.608
62659SOL    HW189816   9.318  11.402   2.539
62659SOL    HW289817   9.342  11.425   2.686
62660SOL     OW89818  14.564   6.444  13.007
62660SOL    HW189819  14.620   6.372  13.035
62660SOL    HW289820  14.488   6.438  13.065
62661SOL     OW89821  10.156   1.307   8.010
62661SOL    HW189822  10.172   1.389   8.055
62661SOL    HW289823  10.187   1.239   8.071
62662SOL     OW89824   2.609   4.329   3.286
62662SOL    HW189825   2.657   4.286   3.217
62662SOL    HW289826   2.586   4.259   3.347
62663SOL     OW89827   5.868   8.921  10.282
62663SOL    HW189828   5.830   8.991  10.228
62663SOL    HW289829   5.856   8.842  10.229
62664SOL     OW89830   8.081   6.191   9.999
62664SOL    HW189831   8.061   6.261   9.937
62664SOL    HW289832   8.000   6.142  10.008
62665SOL     OW89833   0.126   1.210   1.025
62665SOL    HW189834   0.153   1.301   1.017
62665SOL    HW289835   0.193   1.160   0.978
62666SOL     OW89836   4.006   7.251  11.226
62666SOL    HW189837   4.078   7.222  11.170
62666SOL    HW289838   3.946   7.297  11.167
62667SOL     OW89839  11.489  10.422   5.854
62667SOL    HW189840  11.499  10.397   5.946
62667SOL    HW289841  11.415  10.482   5.854
62668SOL     OW89842  11.742   7.021   0.108
62668SOL    HW189843  11.698   7.031   0.192
62668SOL    HW289844  11.824   7.070   0.118
62669SOL     OW89845   8.515  12.736   7.661
62669SOL    HW189846   8.511  12.752   7.567
62669SOL    HW289847   8.503  12.641   7.669
62670SOL     OW89848   2.359  10.147   9.915
62670SOL    HW189849   2.380  10.074   9.973
62670SOL    HW289850   2.426  10.213   9.935
62671SOL     OW89851   7.520   1.260  12.927
62671SOL    HW189852   7.440   1.208  12.924
62671SOL    HW289853   7.510   1.317  13.003
62672SOL     OW89854  11.439   5.607   5.954
62672SOL    HW189855  11.528   5.623   5.923
62672SOL    HW289856  11.383   5.650   5.889
62673SOL     OW89857   5.530   4.747  14.275
62673SOL    HW189858   5.493   4.691  14.207
62673SOL    HW289859   5.574   4.686  14.335
62674SOL     OW89860   2.881  13.574  10.883
62674SOL    HW189861   2.965  13.614  10.905
62674SOL    HW289862   2.885  13.558  10.788
62675SOL     OW89863   0.443  14.278   0.289
62675SOL    HW189864   0.529  14.249   0.320
62675SOL    HW289865   0.431  14.233   0.205
62676SOL     OW89866  14.459   2.428   9.108
62676SOL    HW189867  14.464   2.350   9.163
62676SOL    HW289868  14.527   2.415   9.042
62677SOL     OW89869   7.418  11.243  14.775
62677SOL    HW189870   7.434  11.224  14.683
62677SOL    HW289871   7.326  11.219  14.789
62678SOL     OW89872   3.054   5.018   1.122
62678SOL    HW189873   3.128   5.013   1.061
62678SOL    HW289874   3.089   4.989   1.206
62679SOL     OW89875  11.254  13.512   2.667
62679SOL    HW189876  11.223  13.588   2.715
62679SOL    HW289877  11.175  13.460   2.651
62680SOL     OW89878  14.183  12.533  13.073
62680SOL    HW189879  14.196  12.593  13.147
62680SOL    HW289880  14.120  12.577  13.017
62681SOL     OW89881   0.499  13.987  10.773
62681SOL    HW189882   0.451  14.070  10.773
62681SOL    HW289883   0.445  13.928  10.720
62682SOL     OW89884   2.680  10.359   3.620
62682SOL    HW189885   2.604  10.331   3.671
62682SOL    HW289886   2.732  10.413   3.681
62683SOL     OW89887   1.949   7.326   2.985
62683SOL    HW189888   1.923   7.315   3.076
62683SOL    HW289889   1.876   7.292   2.934
62684SOL     OW89890   9.947   0.702  11.161
62684SOL    HW189891   9.880   0.683  11.226
62684SOL    HW289892   9.927   0.643  11.088
62685SOL     OW89893   9.638   7.190  12.290
62685SOL    HW189894   9.692   7.267  12.277
62685SOL    HW289895   9.589   7.181  12.208
62686SOL     OW89896   1.436   8.669   6.397
62686SOL    HW189897   1.353   8.708   6.370
62686SOL    HW289898   1.482   8.740   6.443
62687SOL     OW89899   2.575  13.707  12.492
62687SOL    HW189900   2.535  13.790  12.467
62687SOL    HW289901   2.598  13.719  12.584
62688SOL     OW89902   9.895   0.987   1.884
62688SOL    HW189903   9.805   0.958   1.869
62688SOL    HW289904   9.949   0.918   1.845
62689SOL     OW89905   5.472   0.989   6.391
62689SOL    HW189906   5.504   0.905   6.359
62689SOL    HW289907   5.521   1.054   6.341
62690SOL     OW89908  13.342   0.522  13.610
62690SOL    HW189909  13.387   0.586  13.666
62690SOL    HW289910  13.252   0.552  13.607
62691SOL     OW89911   9.124  10.896   5.903
62691SOL    HW189912   9.051  10.850   5.861
62691SOL    HW289913   9.151  10.839   5.974
62692SOL     OW89914   3.910  10.678   5.672
62692SOL    HW189915   3.943  10.601   5.718
62692SOL    HW289916   3.824  10.694   5.710
62693SOL     OW89917   3.905   8.918   6.277
62693SOL    HW189918   3.869   8.866   6.349
62693SOL    HW289919   3.882   9.008   6.299
62694SOL     OW89920   8.446   6.858  12.870
62694SOL    HW189921   8.364   6.822  12.903
62694SOL    HW289922   8.421   6.914  12.797
62695SOL     OW89923  13.237  14.600  14.686
62695SOL    HW189924  13.235  14.505  14.676
62695SOL    HW289925  13.312  14.617  14.742
62696SOL     OW89926   4.756   1.699   1.935
62696SOL    HW189927   4.678   1.652   1.906
62696SOL    HW289928   4.725   1.755   2.006
62697SOL     OW89929   6.583  12.587  12.195
62697SOL    HW189930   6.654  12.573  12.257
62697SOL    HW289931   6.581  12.507  12.142
62698SOL     OW89932   2.792   3.205   7.117
62698SOL    HW189933   2.739   3.197   7.197
62698SOL    HW289934   2.739   3.260   7.059
62699SOL     OW89935   2.309   1.081  12.539
62699SOL    HW189936   2.373   1.148  12.517
62699SOL    HW289937   2.296   1.032  12.458
62700SOL     OW89938  12.986  10.094   7.729
62700SOL    HW189939  13.005  10.176   7.685
62700SOL    HW289940  12.968  10.032   7.658
62701SOL     OW89941  13.224   0.311  14.686
62701SOL    HW189942  13.199   0.329  14.595
62701SOL    HW289943  13.259   0.395  14.718
62702SOL     OW89944   5.930  14.184   2.871
62702SOL    HW189945   5.876  14.215   2.943
62702SOL    HW289946   5.878  14.202   2.792
62703SOL     OW89947   4.214   8.587  11.263
62703SOL    HW189948   4.152   8.514  11.261
62703SOL    HW289949   4.254   8.586  11.176
62704SOL     OW89950   8.389  11.770   1.562
62704SOL    HW189951   8.302  11.769   1.522
62704SOL    HW289952   8.443  11.820   1.500
62705SOL     OW89953   4.455  13.654   4.509
62705SOL    HW189954   4.470  13.687   4.421
62705SOL    HW289955   4.471  13.560   4.503
62706SOL     OW89956  11.378  13.176   8.271
62706SOL    HW189957  11.342  13.174   8.183
62706SOL    HW289958  11.324  13.115   8.321
62707SOL     OW89959  14.133   5.319  12.645
62707SOL    HW189960  14.043   5.287  12.653
62707SOL    HW289961  14.130   5.379  12.570
62708SOL     OW89962  13.700  12.045   6.180
62708SOL    HW189963  13.658  11.959   6.184
62708SOL    HW289964  13.791  12.027   6.205
62709SOL     OW89965   4.670  11.927  14.516
62709SOL    HW189966   4.609  11.982  14.565
62709SOL    HW289967   4.630  11.840  14.517
62710SOL     OW89968   5.493   3.429  14.480
62710SOL    HW189969   5.435   3.408  14.407
62710SOL    HW289970   5.526   3.344  14.510
62711SOL     OW89971   4.897  11.725   3.402
62711SOL    HW189972   4.831  11.667   3.364
62711SOL    HW289973   4.894  11.804   3.346
62712SOL     OW89974   1.871   8.886   4.351
62712SOL    HW189975   1.951   8.858   4.395
62712SOL    HW289976   1.819   8.928   4.420
62713SOL     OW89977  14.159   9.175   6.025
62713SOL    HW189978  14.156   9.253   5.970
62713SOL    HW289979  14.105   9.111   5.979
62714SOL     OW89980  12.167  12.624   5.195
62714SOL    HW189981  12.099  12.685   5.165
62714SOL    HW289982  12.210  12.595   5.115
62715SOL     OW89983   9.337  10.561   4.026
62715SOL    HW189984   9.290  10.595   4.103
62715SOL    HW289985   9.359  10.471   4.049
62716SOL     OW89986  13.816   0.028  11.147
62716SOL    HW189987  13.854   0.092  11.086
62716SOL    HW289988  13.826  14.817  11.102
62717SOL     OW89989  10.374   1.999  11.241
62717SOL    HW189990  10.319   2.077  11.241
62717SOL    HW289991  10.355   1.956  11.158
62718SOL     OW89992  10.865   1.775   2.499
62718SOL    HW189993  10.904   1.861   2.490
62718SOL    HW289994  10.936   1.714   2.480
62719SOL     OW89995  13.436   5.126   5.088
62719SOL    HW189996  13.388   5.200   5.050
62719SOL    HW289997  13.456   5.070   5.013
62720SOL     OW89998   9.684  10.460   5.701
62720SOL    HW189999   9.705  10.409   5.622
62720SOL    HW290000   9.732  10.415   5.771
62721SOL     OW90001   6.900  14.818   6.531
62721SOL    HW190002   6.937  14.749   6.585
62721SOL    HW290003   6.809  14.825   6.558
62722SOL     OW90004   6.581   8.372   1.467
62722SOL    HW190005   6.606   8.464   1.463
62722SOL    HW290006   6.485   8.373   1.471
62723SOL     OW90007  11.657   4.735  13.380
62723SOL    HW190008  11.594   4.674  13.418
62723SOL    HW290009  11.611   4.774  13.305
62724SOL     OW90010  14.831   8.512  12.818
62724SOL    HW190011  14.767   8.453  12.778
62724SOL    HW290012   0.043   8.479  12.789
62725SOL     OW90013   9.822  14.317   6.129
62725SOL    HW190014   9.882  14.243   6.141
62725SOL    HW290015   9.875  14.395   6.144
62726SOL     OW90016  13.423   7.791  11.489
62726SOL    HW190017  13.401   7.736  11.564
62726SOL    HW290018  13.507   7.831  11.512
62727SOL     OW90019   7.676   4.828   1.896
62727SOL    HW190020   7.702   4.784   1.816
62727SOL    HW290021   7.601   4.881   1.871
62728SOL     OW90022  10.905   1.411   4.450
62728SOL    HW190023  10.928   1.403   4.358
62728SOL    HW290024  10.841   1.340   4.465
62729SOL     OW90025   9.266   8.616   0.570
62729SOL    HW190026   9.184   8.567   0.577
62729SOL    HW290027   9.273   8.639   0.477
62730SOL     OW90028   2.485  14.811   9.357
62730SOL    HW190029   2.545   0.013   9.365
62730SOL    HW290030   2.406  14.849   9.318
62731SOL     OW90031  11.134  11.057  14.324
62731SOL    HW190032  11.109  11.145  14.352
62731SOL    HW290033  11.173  11.016  14.401
62732SOL     OW90034  13.885   0.909  14.592
62732SOL    HW190035  13.904   0.967  14.517
62732SOL    HW290036  13.843   0.833  14.553
62733SOL     OW90037   4.819  12.896   2.712
62733SOL    HW190038   4.846  12.978   2.670
62733SOL    HW290039   4.793  12.839   2.640
62734SOL     OW90040   3.778   5.915   8.861
62734SOL    HW190041   3.791   5.933   8.768
62734SOL    HW290042   3.683   5.905   8.870
62735SOL     OW90043  11.616   1.851  10.301
62735SOL    HW190044  11.605   1.814  10.214
62735SOL    HW290045  11.706   1.884  10.303
62736SOL     OW90046  10.085   9.902   5.747
62736SOL    HW190047  10.115   9.914   5.837
62736SOL    HW290048  10.027   9.826   5.751
62737SOL     OW90049   6.250   4.485   1.597
62737SOL    HW190050   6.190   4.507   1.526
62737SOL    HW290051   6.246   4.390   1.603
62738SOL     OW90052   3.672   4.508   5.323
62738SOL    HW190053   3.669   4.597   5.287
62738SOL    HW290054   3.716   4.456   5.256
62739SOL     OW90055   3.846   7.739  11.103
62739SOL    HW190056   3.881   7.824  11.130
62739SOL    HW290057   3.780   7.761  11.037
62740SOL     OW90058  14.033   7.177  14.706
62740SOL    HW190059  14.100   7.228  14.660
62740SOL    HW290060  13.958   7.178  14.647
62741SOL     OW90061   4.799   8.124   5.019
62741SOL    HW190062   4.749   8.102   4.940
62741SOL    HW290063   4.803   8.042   5.068
62742SOL     OW90064  12.953   7.555   7.541
62742SOL    HW190065  12.874   7.607   7.559
62742SOL    HW290066  12.994   7.599   7.466
62743SOL     OW90067   8.039  13.971  13.535
62743SOL    HW190068   8.055  14.030  13.461
62743SOL    HW290069   7.957  14.002  13.573
62744SOL     OW90070   5.501   8.613   1.350
62744SOL    HW190071   5.428   8.575   1.400
62744SOL    HW290072   5.516   8.698   1.392
62745SOL     OW90073   8.461  14.237  11.504
62745SOL    HW190074   8.496  14.159  11.462
62745SOL    HW290075   8.491  14.232  11.594
62746SOL     OW90076  14.243  10.278   3.193
62746SOL    HW190077  14.195  10.198   3.213
62746SOL    HW290078  14.178  10.347   3.196
62747SOL     OW90079   7.587   0.603  14.628
62747SOL    HW190080   7.555   0.586  14.540
62747SOL    HW290081   7.651   0.533  14.644
62748SOL     OW90082  13.896  14.381   3.780
62748SOL    HW190083  13.941  14.305   3.817
62748SOL    HW290084  13.936  14.393   3.694
62749SOL     OW90085  12.187  10.421   0.243
62749SOL    HW190086  12.174  10.380   0.329
62749SOL    HW290087  12.129  10.372   0.185
62750SOL     OW90088   2.997  13.684   2.041
62750SOL    HW190089   2.999  13.710   1.949
62750SOL    HW290090   3.088  13.693   2.070
62751SOL     OW90091   6.187   4.743   6.793
62751SOL    HW190092   6.281   4.742   6.809
62751SOL    HW290093   6.172   4.671   6.732
62752SOL     OW90094   7.380  14.532   6.040
62752SOL    HW190095   7.439  14.491   5.977
62752SOL    HW290096   7.415  14.620   6.052
62753SOL     OW90097   4.687  11.441  13.840
62753SOL    HW190098   4.643  11.361  13.868
62753SOL    HW290099   4.668  11.505  13.909
62754SOL     OW90100   6.509   0.616  12.871
62754SOL    HW190101   6.452   0.693  12.872
62754SOL    HW290102   6.450   0.541  12.872
62755SOL     OW90103   0.253  12.902   0.919
62755SOL    HW190104   0.327  12.958   0.940
62755SOL    HW290105   0.183  12.931   0.978
62756SOL     OW90106   5.441   7.693   0.658
62756SOL    HW190107   5.387   7.772   0.662
62756SOL    HW290108   5.426   7.649   0.742
62757SOL     OW90109   9.885  13.092  11.578
62757SOL    HW190110   9.945  13.122  11.646
62757SOL    HW290111   9.936  13.099  11.497
62758SOL     OW90112  10.193   2.791   2.491
62758SOL    HW190113  10.169   2.707   2.529
62758SOL    HW290114  10.162   2.786   2.401
62759SOL     OW90115   7.391  12.117  14.520
62759SOL    HW190116   7.462  12.089  14.577
62759SOL    HW290117   7.388  12.212  14.530
62760SOL     OW90118  11.769   5.321   6.703
62760SOL    HW190119  11.698   5.257   6.693
62760SOL    HW290120  11.742   5.375   6.777
62761SOL     OW90121   8.325  11.638   8.327
62761SOL    HW190122   8.394  11.684   8.279
62761SOL    HW290123   8.277  11.589   8.260
62762SOL     OW90124   7.952  11.222  11.281
62762SOL    HW190125   7.951  11.131  11.312
62762SOL    HW290126   8.045  11.243  11.272
62763SOL     OW90127   8.809   1.253   1.278
62763SOL    HW190128   8.753   1.305   1.220
62763SOL    HW290129   8.754   1.236   1.355
62764SOL     OW90130   5.429   8.905   6.489
62764SOL    HW190131   5.411   8.829   6.544
62764SOL    HW290132   5.445   8.976   6.551
62765SOL     OW90133   9.543   2.546   8.511
62765SOL    HW190134   9.548   2.589   8.426
62765SOL    HW290135   9.503   2.461   8.493
62766SOL     OW90136   3.891   2.657  11.722
62766SOL    HW190137   3.837   2.599  11.776
62766SOL    HW290138   3.885   2.620  11.634
62767SOL     OW90139   7.814  11.205   9.443
62767SOL    HW190140   7.783  11.192   9.354
62767SOL    HW290141   7.788  11.295   9.465
62768SOL     OW90142  12.096   7.935  12.944
62768SOL    HW190143  12.013   7.964  12.907
62768SOL    HW290144  12.074   7.899  13.029
62769SOL     OW90145   3.769  13.804   8.641
62769SOL    HW190146   3.721  13.873   8.594
62769SOL    HW290147   3.861  13.828   8.629
62770SOL     OW90148   7.909   9.607  11.055
62770SOL    HW190149   7.909   9.626  11.149
62770SOL    HW290150   7.825   9.641  11.025
62771SOL     OW90151   1.898   3.678  14.696
62771SOL    HW190152   1.814   3.718  14.721
62771SOL    HW290153   1.964   3.737  14.731
62772SOL     OW90154   9.992  13.131   4.493
62772SOL    HW190155  10.071  13.177   4.520
62772SOL    HW290156   9.989  13.140   4.398
62773SOL     OW90157  14.296   5.933  10.559
62773SOL    HW190158  14.287   5.966  10.470
62773SOL    HW290159  14.291   5.838  10.550
62774SOL     OW90160  14.090   6.012  10.871
62774SOL    HW190161  14.179   6.040  10.892
62774SOL    HW290162  14.045   6.093  10.845
62775SOL     OW90163  14.311   8.334   1.370
62775SOL    HW190164  14.404   8.353   1.382
62775SOL    HW290165  14.266   8.408   1.409
62776SOL     OW90166   4.285   8.320  12.198
62776SOL    HW190167   4.305   8.410  12.226
62776SOL    HW290168   4.268   8.328  12.104
62777SOL     OW90169   2.481   6.400   1.644
62777SOL    HW190170   2.512   6.419   1.733
62777SOL    HW290171   2.467   6.305   1.644
62778SOL     OW90172   2.543  12.826   6.240
62778SOL    HW190173   2.603  12.870   6.180
62778SOL    HW290174   2.474  12.891   6.256
62779SOL     OW90175   5.294   1.138  12.027
62779SOL    HW190176   5.355   1.138  12.101
62779SOL    HW290177   5.340   1.185  11.958
62780SOL     OW90178   1.644   6.478   4.283
62780SOL    HW190179   1.697   6.439   4.212
62780SOL    HW290180   1.678   6.436   4.363
62781SOL     OW90181  11.646   4.730   5.360
62781SOL    HW190182  11.735   4.731   5.395
62781SOL    HW290183  11.596   4.679   5.424
62782SOL     OW90184   0.347   7.141  14.070
62782SOL    HW190185   0.409   7.090  14.019
62782SOL    HW290186   0.292   7.184  14.003
62783SOL     OW90187   4.419   3.906   3.617
62783SOL    HW190188   4.505   3.937   3.590
62783SOL    HW290189   4.436   3.827   3.668
62784SOL     OW90190   9.369   2.482   5.157
62784SOL    HW190191   9.341   2.426   5.230
62784SOL    HW290192   9.348   2.571   5.186
62785SOL     OW90193   8.637   6.554   8.236
62785SOL    HW190194   8.659   6.462   8.221
62785SOL    HW290195   8.659   6.569   8.328
62786SOL     OW90196   5.724  12.724   4.550
62786SOL    HW190197   5.808  12.757   4.520
62786SOL    HW290198   5.734  12.628   4.549
62787SOL     OW90199  10.623   3.279  13.917
62787SOL    HW190200  10.572   3.262  13.838
62787SOL    HW290201  10.557   3.285  13.987
62788SOL     OW90202   8.491  11.092   6.570
62788SOL    HW190203   8.544  11.144   6.629
62788SOL    HW290204   8.485  11.145   6.490
62789SOL     OW90205  14.765  10.396  10.654
62789SOL    HW190206  14.770  10.354  10.740
62789SOL    HW290207  14.831  10.465  10.657
62790SOL     OW90208   8.724   1.359  10.793
62790SOL    HW190209   8.757   1.275  10.763
62790SOL    HW290210   8.802   1.412  10.807
62791SOL     OW90211   8.315   4.845  10.587
62791SOL    HW190212   8.405   4.832  10.616
62791SOL    HW290213   8.323   4.895  10.506
62792SOL     OW90214  13.546  11.917   8.830
62792SOL    HW190215  13.560  11.839   8.883
62792SOL    HW290216  13.625  11.923   8.775
62793SOL     OW90217   3.502   7.632   1.543
62793SOL    HW190218   3.546   7.547   1.539
62793SOL    HW290219   3.500   7.663   1.452
62794SOL     OW90220  12.795  11.843   8.480
62794SOL    HW190221  12.805  11.881   8.567
62794SOL    HW290222  12.883  11.812   8.458
62795SOL     OW90223  14.082   4.292   1.850
62795SOL    HW190224  14.146   4.355   1.818
62795SOL    HW290225  14.074   4.311   1.944
62796SOL     OW90226   7.910   5.842   5.624
62796SOL    HW190227   7.831   5.889   5.653
62796SOL    HW290228   7.975   5.910   5.609
62797SOL     OW90229   0.873  13.740   3.102
62797SOL    HW190230   0.796  13.684   3.117
62797SOL    HW290231   0.895  13.774   3.189
62798SOL     OW90232   2.565  10.164   3.453
62798SOL    HW190233   2.476  10.172   3.487
62798SOL    HW290234   2.609  10.244   3.480
62799SOL     OW90235  13.622  10.084   6.618
62799SOL    HW190236  13.708  10.088   6.659
62799SOL    HW290237  13.614  10.166   6.570
62800SOL     OW90238  10.326   0.221   2.231
62800SOL    HW190239  10.358   0.265   2.309
62800SOL    HW290240  10.391   0.153   2.213
62801SOL     OW90241   8.543   4.078   4.633
62801SOL    HW190242   8.591   4.004   4.670
62801SOL    HW290243   8.497   4.117   4.708
62802SOL     OW90244   0.729   8.872   1.323
62802SOL    HW190245   0.783   8.927   1.265
62802SOL    HW290246   0.735   8.914   1.408
62803SOL     OW90247  12.921   9.918   8.259
62803SOL    HW190248  12.830   9.948   8.260
62803SOL    HW290249  12.952   9.938   8.171
62804SOL     OW90250   4.540  14.449   2.461
62804SOL    HW190251   4.469  14.385   2.454
62804SOL    HW290252   4.496  14.532   2.479
62805SOL     OW90253   3.657  11.893   9.953
62805SOL    HW190254   3.712  11.886  10.031
62805SOL    HW290255   3.681  11.976   9.913
62806SOL     OW90256  12.554   9.092   2.880
62806SOL    HW190257  12.632   9.037   2.876
62806SOL    HW290258  12.528   9.090   2.972
62807SOL     OW90259  12.997   8.017   8.422
62807SOL    HW190260  12.952   8.014   8.507
62807SOL    HW290261  13.010   7.925   8.399
62808SOL     OW90262  10.347   2.222  11.612
62808SOL    HW190263  10.414   2.290  11.622
62808SOL    HW290264  10.300   2.222  11.695
62809SOL     OW90265  11.833   7.978   1.677
62809SOL    HW190266  11.902   8.039   1.651
62809SOL    HW290267  11.787   8.024   1.748
62810SOL     OW90268  12.337   7.971   0.546
62810SOL    HW190269  12.297   8.046   0.502
62810SOL    HW290270  12.291   7.964   0.629
62811SOL     OW90271   8.978   0.410  11.904
62811SOL    HW190272   8.995   0.353  11.980
62811SOL    HW290273   8.887   0.390  11.880
62812SOL     OW90274   1.267  10.038  10.956
62812SOL    HW190275   1.266  10.132  10.971
62812SOL    HW290276   1.231  10.027  10.868
62813SOL     OW90277  14.795   4.661  13.331
62813SOL    HW190278  14.750   4.708  13.401
62813SOL    HW290279  14.842   4.728  13.282
62814SOL     OW90280   3.235   9.917   1.538
62814SOL    HW190281   3.139   9.917   1.539
62814SOL    HW290282   3.258   9.892   1.449
62815SOL     OW90283   5.333   8.105   9.944
62815SOL    HW190284   5.265   8.152   9.895
62815SOL    HW290285   5.286   8.063  10.016
62816SOL     OW90286   8.999   7.525  14.121
62816SOL    HW190287   9.005   7.612  14.160
62816SOL    HW290288   9.077   7.479  14.153
62817SOL     OW90289   0.619  14.694   9.846
62817SOL    HW190290   0.627  14.733   9.759
62817SOL    HW290291   0.591  14.603   9.829
62818SOL     OW90292   5.036   8.045   7.849
62818SOL    HW190293   5.002   7.961   7.879
62818SOL    HW290294   4.965   8.083   7.798
62819SOL     OW90295   9.668   8.576   3.624
62819SOL    HW190296   9.696   8.525   3.548
62819SOL    HW290297   9.732   8.554   3.692
62820SOL     OW90298   2.121  10.904  14.080
62820SOL    HW190299   2.192  10.850  14.112
62820SOL    HW290300   2.159  10.953  14.007
62821SOL     OW90301   6.404  11.978   8.020
62821SOL    HW190302   6.416  12.031   8.098
62821SOL    HW290303   6.319  11.934   8.033
62822SOL     OW90304   7.762   8.183  13.462
62822SOL    HW190305   7.819   8.243  13.413
62822SOL    HW290306   7.709   8.140  13.394
62823SOL     OW90307   3.735   4.574   8.406
62823SOL    HW190308   3.644   4.602   8.393
62823SOL    HW290309   3.740   4.488   8.363
62824SOL     OW90310  11.157   4.258  13.339
62824SOL    HW190311  11.083   4.201  13.362
62824SOL    HW290312  11.229   4.197  13.321
62825SOL     OW90313   8.759  12.856   3.861
62825SOL    HW190314   8.703  12.933   3.868
62825SOL    HW290315   8.786  12.854   3.769
62826SOL     OW90316   1.547   5.802   2.118
62826SOL    HW190317   1.626   5.761   2.154
62826SOL    HW290318   1.574   5.833   2.032
62827SOL     OW90319  14.157   6.031   9.281
62827SOL    HW190320  14.128   6.120   9.301
62827SOL    HW290321  14.246   6.026   9.315
62828SOL     OW90322  11.258   5.740   5.782
62828SOL    HW190323  11.267   5.711   5.691
62828SOL    HW290324  11.263   5.835   5.777
62829SOL     OW90325   2.559   0.120   7.594
62829SOL    HW190326   2.596   0.116   7.506
62829SOL    HW290327   2.478   0.169   7.584
62830SOL     OW90328   9.587  14.727   4.421
62830SOL    HW190329   9.576  14.673   4.342
62830SOL    HW290330   9.570  14.667   4.494
62831SOL     OW90331   6.880   4.344   8.795
62831SOL    HW190332   6.951   4.280   8.797
62831SOL    HW290333   6.836   4.335   8.879
62832SOL     OW90334   9.550   9.581  12.775
62832SOL    HW190335   9.474   9.537  12.813
62832SOL    HW290336   9.531   9.586  12.681
62833SOL     OW90337  14.828   7.436   4.716
62833SOL    HW190338  14.823   7.367   4.651
62833SOL    HW290339   0.006   7.505   4.674
62834SOL     OW90340   6.249   2.625   5.643
62834SOL    HW190341   6.190   2.688   5.602
62834SOL    HW290342   6.334   2.669   5.644
62835SOL     OW90343   3.417   5.000   1.975
62835SOL    HW190344   3.383   4.911   1.971
62835SOL    HW290345   3.408   5.026   2.066
62836SOL     OW90346   7.274   2.310   7.118
62836SOL    HW190347   7.312   2.309   7.205
62836SOL    HW290348   7.189   2.266   7.128
62837SOL     OW90349   1.063   4.286   8.790
62837SOL    HW190350   1.066   4.358   8.853
62837SOL    HW290351   1.088   4.327   8.707
62838SOL     OW90352   2.478  11.080   6.035
62838SOL    HW190353   2.420  11.005   6.051
62838SOL    HW290354   2.502  11.073   5.943
62839SOL     OW90355   0.246   7.019  12.900
62839SOL    HW190356   0.330   6.972  12.901
62839SOL    HW290357   0.237   7.051  12.810
62840SOL     OW90358   8.123   3.690   3.261
62840SOL    HW190359   8.039   3.691   3.216
62840SOL    HW290360   8.164   3.774   3.239
62841SOL     OW90361   6.879   9.582   9.659
62841SOL    HW190362   6.901   9.620   9.575
62841SOL    HW290363   6.943   9.511   9.671
62842SOL     OW90364   8.969  13.046  13.029
62842SOL    HW190365   9.046  13.031  13.084
62842SOL    HW290366   8.960  13.141  13.026
62843SOL     OW90367   4.275   4.469  12.706
62843SOL    HW190368   4.217   4.518  12.765
62843SOL    HW290369   4.250   4.378  12.719
62844SOL     OW90370   9.355  11.502   6.700
62844SOL    HW190371   9.339  11.462   6.615
62844SOL    HW290372   9.451  11.506   6.707
62845SOL     OW90373   4.738   5.747   9.153
62845SOL    HW190374   4.818   5.792   9.181
62845SOL    HW290375   4.705   5.800   9.080
62846SOL     OW90376   8.596   4.517   0.164
62846SOL    HW190377   8.519   4.561   0.127
62846SOL    HW290378   8.658   4.587   0.181
62847SOL     OW90379   8.733   3.388  12.638
62847SOL    HW190380   8.736   3.477  12.602
62847SOL    HW290381   8.639   3.367  12.640
62848SOL     OW90382   6.266   3.001   3.046
62848SOL    HW190383   6.326   3.068   3.013
62848SOL    HW290384   6.313   2.960   3.118
62849SOL     OW90385   5.933   9.933   5.845
62849SOL    HW190386   5.975   9.877   5.780
62849SOL    HW290387   6.002   9.993   5.873
62850SOL     OW90388  10.676   3.587   4.818
62850SOL    HW190389  10.699   3.499   4.791
62850SOL    HW290390  10.595   3.607   4.770
62851SOL     OW90391  14.006   1.243   4.301
62851SOL    HW190392  14.027   1.155   4.270
62851SOL    HW290393  13.914   1.255   4.279
62852SOL     OW90394  12.951   8.598   8.849
62852SOL    HW190395  12.901   8.657   8.793
62852SOL    HW290396  12.931   8.625   8.938
62853SOL     OW90397   3.563   7.387   0.369
62853SOL    HW190398   3.658   7.392   0.370
62853SOL    HW290399   3.536   7.449   0.301
62854SOL     OW90400  12.808  11.155   4.532
62854SOL    HW190401  12.766  11.225   4.582
62854SOL    HW290402  12.828  11.195   4.448
62855SOL     OW90403   5.175  11.412  13.647
62855SOL    HW190404   5.082  11.408  13.671
62855SOL    HW290405   5.195  11.505  13.643
62856SOL     OW90406   7.758   7.818   0.850
62856SOL    HW190407   7.714   7.777   0.925
62856SOL    HW290408   7.765   7.748   0.785
62857SOL     OW90409   1.410  11.799   6.125
62857SOL    HW190410   1.358  11.778   6.048
62857SOL    HW290411   1.501  11.787   6.097
62858SOL     OW90412  14.407  14.576  10.670
62858SOL    HW190413  14.480  14.520  10.695
62858SOL    HW290414  14.432  14.663  10.702
62859SOL     OW90415   6.345   4.966   4.230
62859SOL    HW190416   6.264   4.919   4.254
62859SOL    HW290417   6.411   4.932   4.291
62860SOL     OW90418   4.119   2.794   0.764
62860SOL    HW190419   4.197   2.836   0.728
62860SOL    HW290420   4.046   2.840   0.723
62861SOL     OW90421   5.354  13.796   1.921
62861SOL    HW190422   5.330  13.742   1.996
62861SOL    HW290423   5.436  13.758   1.890
62862SOL     OW90424   6.160  12.925  12.069
62862SOL    HW190425   6.224  12.996  12.067
62862SOL    HW290426   6.212  12.846  12.057
62863SOL     OW90427  12.956   4.663   6.188
62863SOL    HW190428  13.003   4.651   6.270
62863SOL    HW290429  12.923   4.576   6.166
62864SOL     OW90430   6.220   3.354   8.590
62864SOL    HW190431   6.281   3.428   8.592
62864SOL    HW290432   6.255   3.295   8.523
62865SOL     OW90433  13.630   7.190  11.342
62865SOL    HW190434  13.588   7.215  11.260
62865SOL    HW290435  13.561   7.196  11.408
62866SOL     OW90436   8.403  10.910   6.233
62866SOL    HW190437   8.431  10.866   6.313
62866SOL    HW290438   8.359  10.842   6.182
62867SOL     OW90439   4.072  14.571   9.761
62867SOL    HW190440   3.982  14.556   9.729
62867SOL    HW290441   4.110  14.633   9.699
62868SOL     OW90442  11.142  14.400   9.426
62868SOL    HW190443  11.235  14.385   9.445
62868SOL    HW290444  11.142  14.470   9.360
62869SOL     OW90445   5.207   2.484   1.395
62869SOL    HW190446   5.171   2.571   1.379
62869SOL    HW290447   5.264   2.494   1.471
62870SOL     OW90448   8.914   8.608   9.326
62870SOL    HW190449   8.915   8.517   9.298
62870SOL    HW290450   8.868   8.607   9.410
62871SOL     OW90451  12.956  10.360   2.355
62871SOL    HW190452  13.045  10.341   2.384
62871SOL    HW290453  12.909  10.277   2.366
62872SOL     OW90454   2.479  10.722   7.864
62872SOL    HW190455   2.432  10.667   7.928
62872SOL    HW290456   2.480  10.809   7.904
62873SOL     OW90457  10.604   7.139   9.069
62873SOL    HW190458  10.581   7.132   8.977
62873SOL    HW290459  10.695   7.167   9.069
62874SOL     OW90460   3.866   8.927  11.918
62874SOL    HW190461   3.933   8.930  11.987
62874SOL    HW290462   3.800   8.989  11.947
62875SOL     OW90463   5.217   4.285  10.537
62875SOL    HW190464   5.204   4.241  10.621
62875SOL    HW290465   5.306   4.260  10.510
62876SOL     OW90466  13.132   8.368   9.814
62876SOL    HW190467  13.184   8.432   9.862
62876SOL    HW290468  13.050   8.362   9.863
62877SOL     OW90469   7.480   0.098   8.110
62877SOL    HW190470   7.569   0.064   8.105
62877SOL    HW290471   7.438   0.069   8.029
62878SOL     OW90472   4.291   4.074   2.935
62878SOL    HW190473   4.223   4.035   2.881
62878SOL    HW290474   4.244   4.112   3.010
62879SOL     OW90475   0.945   8.022   6.954
62879SOL    HW190476   0.968   8.113   6.934
62879SOL    HW290477   0.979   7.971   6.881
62880SOL     OW90478  13.713  11.199   4.659
62880SOL    HW190479  13.703  11.213   4.754
62880SOL    HW290480  13.727  11.287   4.624
62881SOL     OW90481   1.492   0.524   6.444
62881SOL    HW190482   1.501   0.429   6.440
62881SOL    HW290483   1.564   0.552   6.501
62882SOL     OW90484   0.979   2.491   8.645
62882SOL    HW190485   0.885   2.477   8.658
62882SOL    HW290486   0.992   2.584   8.666
62883SOL     OW90487   9.879  11.515   3.624
62883SOL    HW190488   9.835  11.554   3.549
62883SOL    HW290489   9.859  11.574   3.697
62884SOL     OW90490   4.718   6.513   7.541
62884SOL    HW190491   4.770   6.470   7.609
62884SOL    HW290492   4.779   6.576   7.501
62885SOL     OW90493   5.463  10.837   9.540
62885SOL    HW190494   5.384  10.835   9.593
62885SOL    HW290495   5.521  10.772   9.580
62886SOL     OW90496   4.138   0.319  13.650
62886SOL    HW190497   4.146   0.246  13.712
62886SOL    HW290498   4.073   0.376  13.690
62887SOL     OW90499   4.218   7.623   6.133
62887SOL    HW190500   4.225   7.676   6.054
62887SOL    HW290501   4.190   7.684   6.201
62888SOL     OW90502  11.384   3.310   4.026
62888SOL    HW190503  11.449   3.262   4.077
62888SOL    HW290504  11.340   3.242   3.974
62889SOL     OW90505  10.517   0.599  13.441
62889SOL    HW190506  10.544   0.634  13.526
62889SOL    HW290507  10.461   0.524  13.462
62890SOL     OW90508   2.411   2.819   7.073
62890SOL    HW190509   2.426   2.766   6.995
62890SOL    HW290510   2.428   2.909   7.046
62891SOL     OW90511   2.733  10.444   2.589
62891SOL    HW190512   2.821  10.454   2.625
62891SOL    HW290513   2.746  10.399   2.505
62892SOL     OW90514  10.277  13.698  10.756
62892SOL    HW190515  10.317  13.749  10.686
62892SOL    HW290516  10.344  13.693  10.824
62893SOL     OW90517   7.055   5.488   2.175
62893SOL    HW190518   7.080   5.440   2.253
62893SOL    HW290519   7.105   5.570   2.180
62894SOL     OW90520  11.744   3.836   3.110
62894SOL    HW190521  11.692   3.837   3.030
62894SOL    HW290522  11.709   3.908   3.163
62895SOL     OW90523   2.616   6.901   8.984
62895SOL    HW190524   2.702   6.936   8.959
62895SOL    HW290525   2.630   6.861   9.069
62896SOL     OW90526   7.533  10.939   1.229
62896SOL    HW190527   7.470  10.893   1.285
62896SOL    HW290528   7.493  11.025   1.215
62897SOL     OW90529   6.250   2.965  13.066
62897SOL    HW190530   6.295   2.955  12.983
62897SOL    HW290531   6.194   3.042  13.055
62898SOL     OW90532   1.353   0.896   7.188
62898SOL    HW190533   1.404   0.854   7.257
62898SOL    HW290534   1.274   0.842   7.181
62899SOL     OW90535   1.892  10.928  14.451
62899SOL    HW190536   1.977  10.890  14.471
62899SOL    HW290537   1.834  10.897  14.521
62900SOL     OW90538   5.616   5.534   4.713
62900SOL    HW190539   5.698   5.573   4.742
62900SOL    HW290540   5.585   5.593   4.643
62901SOL     OW90541  11.351  14.105   7.732
62901SOL    HW190542  11.380  14.081   7.645
62901SOL    HW290543  11.319  14.023   7.771
62902SOL     OW90544   2.093   9.331   3.667
62902SOL    HW190545   2.083   9.238   3.649
62902SOL    HW290546   2.180   9.353   3.632
62903SOL     OW90547  13.060  11.268  12.935
62903SOL    HW190548  12.972  11.245  12.904
62903SOL    HW290549  13.099  11.184  12.960
62904SOL     OW90550   8.642   3.126   3.078
62904SOL    HW190551   8.662   3.144   2.986
62904SOL    HW290552   8.551   3.153   3.089
62905SOL     OW90553   3.176  12.452  14.521
62905SOL    HW190554   3.251  12.440  14.463
62905SOL    HW290555   3.214  12.482  14.604
62906SOL     OW90556   1.282   7.167   0.577
62906SOL    HW190557   1.195   7.198   0.602
62906SOL    HW290558   1.297   7.090   0.632
62907SOL     OW90559   5.205   2.191  11.541
62907SOL    HW190560   5.228   2.273  11.499
62907SOL    HW290561   5.289   2.153  11.567
62908SOL     OW90562   2.358  12.050  11.453
62908SOL    HW190563   2.384  11.974  11.503
62908SOL    HW290564   2.406  12.123  11.493
62909SOL     OW90565  12.883   2.481   7.367
62909SOL    HW190566  12.957   2.527   7.407
62909SOL    HW290567  12.906   2.388   7.375
62910SOL     OW90568   2.663   7.810   2.722
62910SOL    HW190569   2.622   7.893   2.749
62910SOL    HW290570   2.730   7.836   2.658
62911SOL     OW90571   5.587   8.310  12.940
62911SOL    HW190572   5.598   8.235  12.882
62911SOL    HW290573   5.622   8.281  13.025
62912SOL     OW90574   0.887  12.802  11.834
62912SOL    HW190575   0.902  12.738  11.903
62912SOL    HW290576   0.941  12.878  11.859
62913SOL     OW90577   7.705  14.513  11.650
62913SOL    HW190578   7.646  14.457  11.599
62913SOL    HW290579   7.743  14.572  11.585
62914SOL     OW90580  13.532  14.651   3.831
62914SOL    HW190581  13.627  14.640   3.828
62914SOL    HW290582  13.504  14.595   3.903
62915SOL     OW90583   4.777  10.544   4.894
62915SOL    HW190584   4.858  10.502   4.923
62915SOL    HW290585   4.779  10.537   4.799
62916SOL     OW90586  13.453  10.948   6.156
62916SOL    HW190587  13.395  10.940   6.080
62916SOL    HW290588  13.408  10.900   6.225
62917SOL     OW90589   6.498   9.327  10.354
62917SOL    HW190590   6.513   9.234  10.338
62917SOL    HW290591   6.496   9.334  10.450
62918SOL     OW90592   9.573   9.536   7.038
62918SOL    HW190593   9.656   9.580   7.018
62918SOL    HW290594   9.518   9.552   6.962
62919SOL     OW90595  13.494   1.989   7.734
62919SOL    HW190596  13.518   1.948   7.817
62919SOL    HW290597  13.418   1.940   7.704
62920SOL     OW90598  14.829   6.023   2.561
62920SOL    HW190599   0.016   6.005   2.488
62920SOL    HW290600   0.013   6.035   2.637
62921SOL     OW90601   2.640   0.807   1.492
62921SOL    HW190602   2.549   0.825   1.468
62921SOL    HW290603   2.691   0.874   1.447
62922SOL     OW90604   0.270   7.622   1.593
62922SOL    HW190605   0.226   7.579   1.520
62922SOL    HW290606   0.340   7.562   1.617
62923SOL     OW90607   2.358   8.355   8.871
62923SOL    HW190608   2.391   8.334   8.784
62923SOL    HW290609   2.317   8.441   8.861
62924SOL     OW90610   3.405   7.973   4.390
62924SOL    HW190611   3.316   8.004   4.401
62924SOL    HW290612   3.396   7.889   4.344
62925SOL     OW90613  10.366   0.086   9.273
62925SOL    HW190614  10.448   0.050   9.241
62925SOL    HW290615  10.392   0.146   9.343
62926SOL     OW90616  12.529   0.232  10.123
62926SOL    HW190617  12.550   0.251  10.031
62926SOL    HW290618  12.576   0.298  10.173
62927SOL     OW90619   1.898   2.888   7.518
62927SOL    HW190620   1.851   2.917   7.596
62927SOL    HW290621   1.923   2.969   7.474
62928SOL     OW90622   2.231   5.950  12.777
62928SOL    HW190623   2.189   6.012  12.837
62928SOL    HW290624   2.239   5.998  12.694
62929SOL     OW90625   6.806   4.551   4.179
62929SOL    HW190626   6.753   4.624   4.147
62929SOL    HW290627   6.820   4.497   4.102
62930SOL     OW90628   3.129   3.777  13.473
62930SOL    HW190629   3.139   3.869  13.448
62930SOL    HW290630   3.190   3.730  13.417
62931SOL     OW90631   5.514   7.167  13.797
62931SOL    HW190632   5.544   7.077  13.782
62931SOL    HW290633   5.592   7.212  13.831
62932SOL     OW90634   7.874   1.199   6.150
62932SOL    HW190635   7.858   1.176   6.058
62932SOL    HW290636   7.945   1.141   6.177
62933SOL     OW90637   0.836   6.123  14.108
62933SOL    HW190638   0.788   6.198  14.073
62933SOL    HW290639   0.786   6.047  14.078
62934SOL     OW90640  14.394   9.161  11.983
62934SOL    HW190641  14.460   9.130  11.921
62934SOL    HW290642  14.340   9.084  12.002
62935SOL     OW90643   7.409   2.331   6.499
62935SOL    HW190644   7.469   2.312   6.426
62935SOL    HW290645   7.439   2.275   6.570
62936SOL     OW90646  13.250   6.081  11.132
62936SOL    HW190647  13.174   6.031  11.102
62936SOL    HW290648  13.241   6.166  11.089
62937SOL     OW90649   0.055   6.526   5.898
62937SOL    HW190650   0.090   6.595   5.955
62937SOL    HW290651   0.077   6.445   5.944
62938SOL     OW90652   1.297   0.454   1.159
62938SOL    HW190653   1.348   0.506   1.097
62938SOL    HW290654   1.345   0.372   1.167
62939SOL     OW90655   4.325   7.340   4.928
62939SOL    HW190656   4.282   7.425   4.941
62939SOL    HW290657   4.272   7.278   4.977
62940SOL     OW90658   6.553   1.754   8.365
62940SOL    HW190659   6.588   1.785   8.449
62940SOL    HW290660   6.498   1.826   8.334
62941SOL     OW90661   4.736   5.831  13.421
62941SOL    HW190662   4.738   5.780  13.340
62941SOL    HW290663   4.761   5.919  13.394
62942SOL     OW90664  11.782  13.312  13.138
62942SOL    HW190665  11.773  13.223  13.170
62942SOL    HW290666  11.709  13.324  13.077
62943SOL     OW90667  13.249   3.721  10.991
62943SOL    HW190668  13.203   3.710  10.908
62943SOL    HW290669  13.255   3.816  11.003
62944SOL     OW90670   6.899   7.287   8.500
62944SOL    HW190671   6.992   7.309   8.495
62944SOL    HW290672   6.894   7.196   8.470
62945SOL     OW90673   5.623   4.550   0.600
62945SOL    HW190674   5.656   4.594   0.522
62945SOL    HW290675   5.623   4.619   0.667
62946SOL     OW90676   9.895   1.780   9.017
62946SOL    HW190677   9.923   1.814   9.103
62946SOL    HW290678   9.911   1.853   8.957
62947SOL     OW90679   4.374   8.370   6.128
62947SOL    HW190680   4.413   8.341   6.210
62947SOL    HW290681   4.433   8.335   6.060
62948SOL     OW90682  10.185   0.154   7.429
62948SOL    HW190683  10.211   0.085   7.368
62948SOL    HW290684  10.244   0.144   7.503
62949SOL     OW90685   2.391   0.022   7.989
62949SOL    HW190686   2.461   0.022   7.923
62949SOL    HW290687   2.378  14.803   8.009
62950SOL     OW90688   4.596  12.942  12.304
62950SOL    HW190689   4.518  12.971  12.353
62950SOL    HW290690   4.579  12.970  12.214
62951SOL     OW90691   8.184   9.854   3.495
62951SOL    HW190692   8.260   9.912   3.489
62951SOL    HW290693   8.212   9.773   3.453
62952SOL     OW90694   3.208   7.139   1.031
62952SOL    HW190695   3.167   7.219   1.063
62952SOL    HW290696   3.149   7.106   0.964
62953SOL     OW90697  13.855   9.465   4.731
62953SOL    HW190698  13.896   9.482   4.816
62953SOL    HW290699  13.888   9.535   4.674
62954SOL     OW90700  11.649   6.789   2.095
62954SOL    HW190701  11.691   6.787   2.009
62954SOL    HW290702  11.721   6.808   2.156
62955SOL     OW90703  10.546  13.229  13.548
62955SOL    HW190704  10.568  13.193  13.634
62955SOL    HW290705  10.514  13.154  13.497
62956SOL     OW90706   5.083  13.441  12.169
62956SOL    HW190707   5.063  13.362  12.119
62956SOL    HW290708   5.171  13.466  12.140
62957SOL     OW90709  13.407   9.271   2.842
62957SOL    HW190710  13.422   9.359   2.809
62957SOL    HW290711  13.345   9.282   2.914
62958SOL     OW90712  11.682   3.584   9.624
62958SOL    HW190713  11.697   3.651   9.557
62958SOL    HW290714  11.597   3.546   9.602
62959SOL     OW90715  12.929   0.786   3.182
62959SOL    HW190716  13.004   0.741   3.143
62959SOL    HW290717  12.854   0.757   3.131
62960SOL     OW90718   5.704  12.418   3.230
62960SOL    HW190719   5.723  12.489   3.169
62960SOL    HW290720   5.778  12.358   3.220
62961SOL     OW90721   5.954   1.611   9.403
62961SOL    HW190722   5.950   1.611   9.499
62961SOL    HW290723   5.873   1.567   9.376
62962SOL     OW90724   5.150   3.378   1.373
62962SOL    HW190725   5.228   3.416   1.334
62962SOL    HW290726   5.158   3.398   1.467
62963SOL     OW90727   5.220  13.072   8.329
62963SOL    HW190728   5.238  13.148   8.384
62963SOL    HW290729   5.142  13.031   8.368
62964SOL     OW90730   9.792   3.681   9.040
62964SOL    HW190731   9.829   3.592   9.038
62964SOL    HW290732   9.781   3.700   9.133
62965SOL     OW90733   6.778   5.516  12.202
62965SOL    HW190734   6.773   5.564  12.119
62965SOL    HW290735   6.689   5.484  12.216
62966SOL     OW90736   0.902  10.777   3.359
62966SOL    HW190737   0.831  10.840   3.344
62966SOL    HW290738   0.982  10.829   3.352
62967SOL     OW90739   8.700  11.347   2.250
62967SOL    HW190740   8.722  11.402   2.325
62967SOL    HW290741   8.774  11.356   2.190
62968SOL     OW90742  12.045   7.177   4.910
62968SOL    HW190743  12.043   7.106   4.846
62968SOL    HW290744  11.958   7.217   4.904
62969SOL     OW90745   2.306   4.511   4.811
62969SOL    HW190746   2.311   4.495   4.905
62969SOL    HW290747   2.396   4.500   4.780
62970SOL     OW90748   7.512   5.445  10.561
62970SOL    HW190749   7.580   5.489  10.612
62970SOL    HW290750   7.558   5.378  10.511
62971SOL     OW90751   3.601   0.609   4.651
62971SOL    HW190752   3.665   0.543   4.678
62971SOL    HW290753   3.544   0.563   4.589
62972SOL     OW90754   8.467   0.679   0.283
62972SOL    HW190755   8.517   0.649   0.359
62972SOL    HW290756   8.394   0.729   0.321
62973SOL     OW90757  11.438   8.176   5.750
62973SOL    HW190758  11.448   8.215   5.836
62973SOL    HW290759  11.420   8.083   5.767
62974SOL     OW90760   3.790  11.589  11.568
62974SOL    HW190761   3.718  11.546  11.520
62974SOL    HW290762   3.780  11.682  11.547
62975SOL     OW90763   4.900   8.207  10.697
62975SOL    HW190764   4.829   8.190  10.759
62975SOL    HW290765   4.960   8.133  10.710
62976SOL     OW90766   7.416   6.659   3.298
62976SOL    HW190767   7.343   6.712   3.263
62976SOL    HW290768   7.400   6.657   3.392
62977SOL     OW90769   5.842   6.434  10.091
62977SOL    HW190770   5.874   6.408  10.178
62977SOL    HW290771   5.813   6.352  10.052
62978SOL     OW90772   2.519  12.175   7.434
62978SOL    HW190773   2.432  12.206   7.461
62978SOL    HW290774   2.541  12.108   7.499
62979SOL     OW90775   7.369   2.139   2.744
62979SOL    HW190776   7.456   2.177   2.756
62979SOL    HW290777   7.363   2.121   2.650
62980SOL     OW90778  14.749  11.571  14.138
62980SOL    HW190779  14.767  11.577  14.044
62980SOL    HW290780  14.817  11.514  14.172
62981SOL     OW90781   5.091   3.051   7.907
62981SOL    HW190782   5.114   2.983   7.843
62981SOL    HW290783   5.170   3.062   7.959
62982SOL     OW90784   8.791  10.347   6.714
62982SOL    HW190785   8.886  10.362   6.712
62982SOL    HW290786   8.762  10.360   6.624
62983SOL     OW90787   2.322   2.842   1.257
62983SOL    HW190788   2.318   2.937   1.244
62983SOL    HW290789   2.259   2.806   1.194
62984SOL     OW90790   3.570   6.710   5.335
62984SOL    HW190791   3.609   6.644   5.392
62984SOL    HW290792   3.476   6.704   5.352
62985SOL     OW90793   7.007   6.571   3.354
62985SOL    HW190794   7.085   6.585   3.300
62985SOL    HW290795   6.975   6.659   3.373
62986SOL     OW90796  11.513   9.710  14.737
62986SOL    HW190797  11.478   9.654  14.667
62986SOL    HW290798  11.594   9.667  14.765
62987SOL     OW90799   5.894   3.207   5.940
62987SOL    HW190800   5.897   3.217   6.036
62987SOL    HW290801   5.911   3.295   5.907
62988SOL     OW90802   9.775   8.666  12.127
62988SOL    HW190803   9.683   8.678  12.149
62988SOL    HW290804   9.816   8.636  12.208
62989SOL     OW90805   2.223   3.547   2.219
62989SOL    HW190806   2.275   3.483   2.171
62989SOL    HW290807   2.132   3.525   2.199
62990SOL     OW90808  11.051   9.518  10.669
62990SOL    HW190809  11.040   9.506  10.575
62990SOL    HW290810  11.118   9.454  10.694
62991SOL     OW90811   6.792   1.169   8.843
62991SOL    HW190812   6.706   1.169   8.801
62991SOL    HW290813   6.854   1.164   8.771
62992SOL     OW90814   9.661  11.131   5.680
62992SOL    HW190815   9.660  11.140   5.775
62992SOL    HW290816   9.615  11.208   5.648
62993SOL     OW90817   2.669   0.704  13.417
62993SOL    HW190818   2.703   0.683  13.504
62993SOL    HW290819   2.734   0.668  13.357
62994SOL     OW90820   7.100   9.474   4.098
62994SOL    HW190821   7.127   9.560   4.067
62994SOL    HW290822   7.140   9.412   4.037
62995SOL     OW90823   2.098   8.158   3.187
62995SOL    HW190824   2.035   8.088   3.168
62995SOL    HW290825   2.080   8.225   3.121
62996SOL     OW90826  14.177   3.618   0.426
62996SOL    HW190827  14.111   3.569   0.474
62996SOL    HW290828  14.252   3.559   0.420
62997SOL     OW90829  13.235  14.714   1.111
62997SOL    HW190830  13.204  14.664   1.186
62997SOL    HW290831  13.208  14.662   1.035
62998SOL     OW90832   5.918  14.481  12.260
62998SOL    HW190833   5.897  14.522  12.344
62998SOL    HW290834   5.849  14.511  12.201
62999SOL     OW90835  11.217  11.699   8.547
62999SOL    HW190836  11.184  11.694   8.637
62999SOL    HW290837  11.172  11.628   8.501
63000SOL     OW90838   2.087  13.430   9.383
63000SOL    HW190839   2.090  13.464   9.473
63000SOL    HW290840   2.176  13.401   9.365
63001SOL     OW90841   6.538   3.821   2.577
63001SOL    HW190842   6.573   3.738   2.545
63001SOL    HW290843   6.604   3.853   2.638
63002SOL     OW90844   4.444   4.907   3.749
63002SOL    HW190845   4.523   4.952   3.720
63002SOL    HW290846   4.460   4.887   3.841
63003SOL     OW90847   1.326  13.545  13.777
63003SOL    HW190848   1.294  13.457  13.796
63003SOL    HW290849   1.319  13.553  13.682
63004SOL     OW90850   9.898   1.552   6.007
63004SOL    HW190851   9.917   1.459   6.001
63004SOL    HW290852   9.973   1.594   5.964
63005SOL     OW90853  14.110   1.059   7.266
63005SOL    HW190854  14.051   1.109   7.210
63005SOL    HW290855  14.052   1.007   7.322
63006SOL     OW90856   1.991   5.802   8.777
63006SOL    HW190857   2.048   5.729   8.800
63006SOL    HW290858   1.908   5.783   8.820
63007SOL     OW90859   9.605   9.033   5.104
63007SOL    HW190860   9.593   9.126   5.084
63007SOL    HW290861   9.694   9.027   5.138
63008SOL     OW90862   4.485   4.935  14.416
63008SOL    HW190863   4.392   4.953  14.431
63008SOL    HW290864   4.494   4.930  14.321
63009SOL     OW90865   6.716  11.034   1.413
63009SOL    HW190866   6.699  11.076   1.497
63009SOL    HW290867   6.745  11.104   1.356
63010SOL     OW90868  14.787  12.694   8.726
63010SOL    HW190869  14.861  12.680   8.666
63010SOL    HW290870  14.710  12.669   8.674
63011SOL     OW90871   3.215   7.035   5.047
63011SOL    HW190872   3.186   7.071   4.963
63011SOL    HW290873   3.263   6.956   5.024
63012SOL     OW90874   0.835  13.094   7.777
63012SOL    HW190875   0.744  13.122   7.770
63012SOL    HW290876   0.830  12.999   7.794
63013SOL     OW90877   5.642   6.924   5.597
63013SOL    HW190878   5.656   6.965   5.683
63013SOL    HW290879   5.631   6.998   5.537
63014SOL     OW90880   0.041   9.054   7.738
63014SOL    HW190881   0.048   9.140   7.780
63014SOL    HW290882   0.131   9.026   7.726
63015SOL     OW90883   0.767   4.871   7.286
63015SOL    HW190884   0.769   4.925   7.207
63015SOL    HW290885   0.758   4.781   7.254
63016SOL     OW90886   1.760   9.321  13.034
63016SOL    HW190887   1.754   9.242  13.088
63016SOL    HW290888   1.775   9.391  13.097
63017SOL     OW90889  14.137   4.116   2.291
63017SOL    HW190890  14.082   4.075   2.224
63017SOL    HW290891  14.144   4.050   2.360
63018SOL     OW90892  13.894  13.625  14.609
63018SOL    HW190893  13.930  13.712  14.592
63018SOL    HW290894  13.830  13.611  14.539
63019SOL     OW90895   6.950   3.907   6.641
63019SOL    HW190896   6.858   3.933   6.650
63019SOL    HW290897   6.948   3.811   6.637
63020SOL     OW90898  11.227   7.079   5.532
63020SOL    HW190899  11.169   7.032   5.472
63020SOL    HW290900  11.315   7.046   5.511
63021SOL     OW90901   8.768  10.523  13.074
63021SOL    HW190902   8.823  10.528  13.152
63021SOL    HW290903   8.699  10.460  13.096
63022SOL     OW90904  10.912   6.956   5.764
63022SOL    HW190905  10.991   6.967   5.815
63022SOL    HW290906  10.925   6.872   5.718
63023SOL     OW90907   8.547   9.165   8.547
63023SOL    HW190908   8.607   9.228   8.506
63023SOL    HW290909   8.512   9.212   8.622
63024SOL     OW90910   1.615   0.166   4.445
63024SOL    HW190911   1.531   0.173   4.400
63024SOL    HW290912   1.632   0.072   4.450
63025SOL     OW90913   2.999   2.783   2.328
63025SOL    HW190914   2.916   2.779   2.375
63025SOL    HW290915   3.015   2.692   2.300
63026SOL     OW90916  14.800  13.264   7.767
63026SOL    HW190917  14.734  13.333   7.770
63026SOL    HW290918   0.002  13.301   7.815
63027SOL     OW90919  11.784   8.245   3.026
63027SOL    HW190920  11.806   8.158   2.993
63027SOL    HW290921  11.726   8.282   2.959
63028SOL     OW90922   4.054   2.173   7.184
63028SOL    HW190923   4.024   2.213   7.266
63028SOL    HW290924   4.082   2.085   7.209
63029SOL     OW90925   1.895   8.172   1.670
63029SOL    HW190926   1.837   8.109   1.713
63029SOL    HW290927   1.837   8.243   1.643
63030SOL     OW90928  14.460   1.137  14.853
63030SOL    HW190929  14.411   1.196  14.796
63030SOL    HW290930  14.398   1.067   0.001
63031SOL     OW90931   6.449   5.346   6.704
63031SOL    HW190932   6.367   5.388   6.731
63031SOL    HW290933   6.445   5.258   6.742
63032SOL     OW90934   8.881   7.577   7.810
63032SOL    HW190935   8.931   7.495   7.811
63032SOL    HW290936   8.929   7.635   7.869
63033SOL     OW90937   7.897  12.456  11.685
63033SOL    HW190938   7.896  12.376  11.632
63033SOL    HW290939   7.947  12.519  11.633
63034SOL     OW90940   0.193  11.486   4.155
63034SOL    HW190941   0.244  11.406   4.140
63034SOL    HW290942   0.104  11.455   4.171
63035SOL     OW90943   2.338   4.705   8.689
63035SOL    HW190944   2.277   4.667   8.752
63035SOL    HW290945   2.419   4.656   8.702
63036SOL     OW90946   1.871   7.854   5.571
63036SOL    HW190947   1.820   7.865   5.651
63036SOL    HW290948   1.925   7.933   5.566
63037SOL     OW90949   2.788   2.294   1.935
63037SOL    HW190950   2.720   2.283   2.002
63037SOL    HW290951   2.870   2.286   1.983
63038SOL     OW90952  14.250  14.381  10.536
63038SOL    HW190953  14.226  14.459  10.486
63038SOL    HW290954  14.314  14.413  10.600
63039SOL     OW90955   0.666   9.170   3.241
63039SOL    HW190956   0.700   9.081   3.235
63039SOL    HW290957   0.577   9.165   3.205
63040SOL     OW90958  13.131   7.693   8.631
63040SOL    HW190959  13.180   7.768   8.665
63040SOL    HW290960  13.199   7.632   8.600
63041SOL     OW90961   1.884   2.261   2.166
63041SOL    HW190962   1.948   2.202   2.127
63041SOL    HW290963   1.936   2.331   2.204
63042SOL     OW90964   4.990   2.429  13.335
63042SOL    HW190965   5.070   2.481  13.331
63042SOL    HW290966   4.926   2.487  13.378
63043SOL     OW90967   7.098   6.923   9.992
63043SOL    HW190968   7.141   6.997  10.035
63043SOL    HW290969   7.076   6.955   9.905
63044SOL     OW90970   2.378   2.860   2.247
63044SOL    HW190971   2.458   2.913   2.248
63044SOL    HW290972   2.333   2.886   2.167
63045SOL     OW90973   2.731   1.073  12.809
63045SOL    HW190974   2.819   1.111  12.813
63045SOL    HW290975   2.673   1.149  12.808
63046SOL     OW90976   8.080   5.737  10.158
63046SOL    HW190977   8.147   5.786  10.206
63046SOL    HW290978   8.096   5.759  10.066
63047SOL     OW90979   8.460  11.979   2.901
63047SOL    HW190980   8.513  11.933   2.965
63047SOL    HW290981   8.519  12.043   2.862
63048SOL     OW90982   7.762   4.109  14.566
63048SOL    HW190983   7.667   4.102  14.579
63048SOL    HW290984   7.775   4.193  14.523
63049SOL     OW90985   0.379   0.140   4.399
63049SOL    HW190986   0.466   0.111   4.372
63049SOL    HW290987   0.394   0.197   4.474
63050SOL     OW90988   2.386   1.632   8.883
63050SOL    HW190989   2.312   1.592   8.837
63050SOL    HW290990   2.377   1.602   8.973
63051SOL     OW90991   9.211   7.328   7.829
63051SOL    HW190992   9.217   7.423   7.841
63051SOL    HW290993   9.122   7.306   7.857
63052SOL     OW90994   3.319  14.614   0.746
63052SOL    HW190995   3.260  14.541   0.727
63052SOL    HW290996   3.397  14.571   0.783
63053SOL     OW90997   3.157   1.659   5.832
63053SOL    HW190998   3.099   1.691   5.901
63053SOL    HW290999   3.210   1.736   5.808
63054SOL     OW91000   3.900   0.999   2.372
63054SOL    HW191001   3.887   1.045   2.289
63054SOL    HW291002   3.983   1.034   2.405
63055SOL     OW91003   9.135  12.976   9.586
63055SOL    HW191004   9.207  12.998   9.527
63055SOL    HW291005   9.056  13.000   9.537
63056SOL     OW91006   2.109   6.813   1.951
63056SOL    HW191007   2.139   6.805   2.042
63056SOL    HW291008   2.065   6.898   1.948
63057SOL     OW91009  13.690   0.393  13.054
63057SOL    HW191010  13.687   0.441  12.971
63057SOL    HW291011  13.641   0.313  13.037
63058SOL     OW91012  11.756  12.614   3.600
63058SOL    HW191013  11.827  12.571   3.647
63058SOL    HW291014  11.724  12.547   3.540
63059SOL     OW91015   0.311  14.718   5.961
63059SOL    HW191016   0.395  14.765   5.965
63059SOL    HW291017   0.249  14.778   6.003
63060SOL     OW91018  13.569   6.284   1.205
63060SOL    HW191019  13.501   6.250   1.147
63060SOL    HW291020  13.650   6.245   1.172
63061SOL     OW91021   5.702  10.666   5.786
63061SOL    HW191022   5.709  10.629   5.874
63061SOL    HW291023   5.732  10.756   5.796
63062SOL     OW91024   5.984   2.359   6.354
63062SOL    HW191025   6.003   2.360   6.260
63062SOL    HW291026   5.979   2.452   6.378
63063SOL     OW91027   3.370   3.358   9.573
63063SOL    HW191028   3.383   3.273   9.531
63063SOL    HW291029   3.329   3.338   9.656
63064SOL     OW91030   4.609  14.511   8.611
63064SOL    HW191031   4.602  14.600   8.578
63064SOL    HW291032   4.558  14.458   8.550
63065SOL     OW91033  13.050  10.675   5.099
63065SOL    HW191034  13.044  10.595   5.047
63065SOL    HW291035  13.065  10.644   5.188
63066SOL     OW91036   5.306  11.008  12.926
63066SOL    HW191037   5.224  10.985  12.969
63066SOL    HW291038   5.365  10.936  12.945
63067SOL     OW91039  14.387   9.168   7.727
63067SOL    HW191040  14.382   9.262   7.744
63067SOL    HW291041  14.383   9.161   7.631
63068SOL     OW91042   5.324  13.392   7.162
63068SOL    HW191043   5.312  13.486   7.167
63068SOL    HW291044   5.417  13.379   7.180
63069SOL     OW91045   7.394  13.726   9.533
63069SOL    HW191046   7.336  13.661   9.573
63069SOL    HW291047   7.342  13.763   9.461
63070SOL     OW91048   6.053  13.583   1.861
63070SOL    HW191049   6.063  13.570   1.955
63070SOL    HW291050   6.067  13.677   1.848
63071SOL     OW91051  12.318   2.859   0.899
63071SOL    HW191052  12.247   2.922   0.907
63071SOL    HW291053  12.341   2.860   0.806
63072SOL     OW91054  11.617   9.014   8.197
63072SOL    HW191055  11.568   9.052   8.124
63072SOL    HW291056  11.644   9.089   8.249
63073SOL     OW91057   0.502  13.161   7.444
63073SOL    HW191058   0.489  13.153   7.538
63073SOL    HW291059   0.414  13.169   7.408
63074SOL     OW91060   8.715   5.535   2.598
63074SOL    HW191061   8.761   5.511   2.517
63074SOL    HW291062   8.747   5.623   2.619
63075SOL     OW91063  14.431   2.363   1.948
63075SOL    HW191064  14.456   2.315   2.027
63075SOL    HW291065  14.497   2.336   1.883
63076SOL     OW91066   4.586   4.518   7.450
63076SOL    HW191067   4.610   4.505   7.359
63076SOL    HW291068   4.495   4.489   7.455
63077SOL     OW91069   3.614   1.749   2.190
63077SOL    HW191070   3.597   1.688   2.262
63077SOL    HW291071   3.679   1.810   2.225
63078SOL     OW91072   2.123  10.513   7.583
63078SOL    HW191073   2.132  10.577   7.512
63078SOL    HW291074   2.115  10.565   7.662
63079SOL     OW91075  13.837   9.201   4.029
63079SOL    HW191076  13.900   9.271   4.041
63079SOL    HW291077  13.849   9.144   4.105
63080SOL     OW91078   0.343   7.347   4.125
63080SOL    HW191079   0.355   7.330   4.218
63080SOL    HW291080   0.362   7.440   4.115
63081SOL     OW91081   7.643  12.268  12.673
63081SOL    HW191082   7.568  12.326  12.661
63081SOL    HW291083   7.695  12.310  12.742
63082SOL     OW91084   2.818   9.778  13.908
63082SOL    HW191085   2.804   9.788  13.814
63082SOL    HW291086   2.730   9.776  13.945
63083SOL     OW91087   3.132   9.106   2.300
63083SOL    HW191088   3.102   9.103   2.209
63083SOL    HW291089   3.113   9.195   2.329
63084SOL     OW91090   0.132  13.208   6.741
63084SOL    HW191091   0.182  13.242   6.815
63084SOL    HW291092   0.157  13.265   6.668
63085SOL     OW91093   5.249   1.164  14.040
63085SOL    HW191094   5.186   1.227  14.005
63085SOL    HW291095   5.249   1.093  13.976
63086SOL     OW91096  13.801  11.935   2.530
63086SOL    HW191097  13.791  11.971   2.618
63086SOL    HW291098  13.723  11.964   2.483
63087SOL     OW91099   4.208   7.935  12.070
63087SOL    HW191100   4.264   7.987  12.012
63087SOL    HW291101   4.180   7.997  12.137
63088SOL     OW91102   1.072   2.332  14.618
63088SOL    HW191103   1.098   2.416  14.580
63088SOL    HW291104   1.137   2.317  14.688
63089SOL     OW91105   8.595  10.795   6.761
63089SOL    HW191106   8.621  10.884   6.739
63089SOL    HW291107   8.560  10.801   6.850
63090SOL     OW91108   5.245  11.278   3.396
63090SOL    HW191109   5.163  11.306   3.437
63090SOL    HW291110   5.217  11.229   3.319
63091SOL     OW91111   2.534   6.074   6.256
63091SOL    HW191112   2.554   6.048   6.167
63091SOL    HW291113   2.589   6.151   6.272
63092SOL     OW91114   6.924   0.386  10.644
63092SOL    HW191115   6.880   0.422  10.720
63092SOL    HW291116   6.925   0.457  10.580
63093SOL     OW91117  14.113   8.315   9.386
63093SOL    HW191118  14.056   8.290   9.313
63093SOL    HW291119  14.053   8.336   9.458
63094SOL     OW91120   8.017   7.920   3.197
63094SOL    HW191121   8.010   7.870   3.115
63094SOL    HW291122   7.930   7.912   3.237
63095SOL     OW91123  12.675  12.668   7.044
63095SOL    HW191124  12.761  12.695   7.011
63095SOL    HW291125  12.689  12.580   7.079
63096SOL     OW91126   4.143  12.535   1.989
63096SOL    HW191127   4.135  12.507   2.080
63096SOL    HW291128   4.081  12.480   1.941
63097SOL     OW91129  10.395  10.890  14.584
63097SOL    HW191130  10.337  10.829  14.630
63097SOL    HW291131  10.410  10.850  14.499
63098SOL     OW91132  12.046  11.817   9.598
63098SOL    HW191133  12.111  11.834   9.667
63098SOL    HW291134  12.089  11.847   9.517
63099SOL     OW91135   8.196   0.128  14.074
63099SOL    HW191136   8.130   0.061  14.088
63099SOL    HW291137   8.164   0.177  13.997
63100SOL     OW91138  13.346   0.965  14.790
63100SOL    HW191139  13.296   0.974  14.709
63100SOL    HW291140  13.314   1.036  14.845
63101SOL     OW91141   7.338   3.394  13.223
63101SOL    HW191142   7.392   3.388  13.302
63101SOL    HW291143   7.256   3.352  13.247
63102SOL     OW91144  14.221   7.990   8.023
63102SOL    HW191145  14.182   8.022   7.943
63102SOL    HW291146  14.311   7.966   7.998
63103SOL     OW91147   8.692   1.441   4.014
63103SOL    HW191148   8.760   1.459   4.079
63103SOL    HW291149   8.696   1.515   3.954
63104SOL     OW91150   5.228  10.229   4.838
63104SOL    HW191151   5.321  10.214   4.824
63104SOL    HW291152   5.202  10.287   4.767
63105SOL     OW91153  12.949   2.343   7.986
63105SOL    HW191154  12.913   2.375   8.069
63105SOL    HW291155  12.900   2.390   7.919
63106SOL     OW91156  12.653   2.127  10.383
63106SOL    HW191157  12.641   2.166  10.470
63106SOL    HW291158  12.656   2.202  10.324
63107SOL     OW91159   4.217  10.683   1.536
63107SOL    HW191160   4.275  10.665   1.463
63107SOL    HW291161   4.190  10.774   1.524
63108SOL     OW91162   3.562   9.960   9.544
63108SOL    HW191163   3.553   9.869   9.515
63108SOL    HW291164   3.472   9.991   9.553
63109SOL     OW91165   8.852   3.841  13.875
63109SOL    HW191166   8.889   3.914  13.925
63109SOL    HW291167   8.767   3.873  13.846
63110SOL     OW91168   0.389  13.876   8.751
63110SOL    HW191169   0.440  13.848   8.827
63110SOL    HW291170   0.396  13.971   8.750
63111SOL     OW91171   7.969   8.794   5.413
63111SOL    HW191172   8.019   8.745   5.478
63111SOL    HW291173   7.908   8.731   5.377
63112SOL     OW91174   0.123   3.153  14.871
63112SOL    HW191175   0.062   3.225   0.014
63112SOL    HW291176   0.114   3.097   0.075
63113SOL     OW91177   4.850   0.259  12.956
63113SOL    HW191178   4.878   0.271  12.865
63113SOL    HW291179   4.836   0.347  12.989
63114SOL     OW91180   7.491   4.297   0.667
63114SOL    HW191181   7.531   4.310   0.582
63114SOL    HW291182   7.502   4.203   0.684
63115SOL     OW91183   2.568   6.392  12.426
63115SOL    HW191184   2.663   6.385  12.433
63115SOL    HW291185   2.534   6.324  12.484
63116SOL     OW91186  11.905  12.141  13.206
63116SOL    HW191187  11.909  12.221  13.259
63116SOL    HW291188  11.921  12.171  13.116
63117SOL     OW91189  14.067   4.944   7.958
63117SOL    HW191190  14.031   4.933   7.871
63117SOL    HW291191  13.996   4.980   8.010
63118SOL     OW91192   4.901  13.605   8.992
63118SOL    HW191193   4.973  13.541   8.988
63118SOL    HW291194   4.934  13.673   9.051
63119SOL     OW91195   5.160  12.049   3.593
63119SOL    HW191196   5.069  12.021   3.601
63119SOL    HW291197   5.156  12.142   3.572
63120SOL     OW91198   9.870  13.988   9.348
63120SOL    HW191199   9.827  13.903   9.357
63120SOL    HW291200   9.827  14.045   9.412
63121SOL     OW91201  11.643  11.695   5.893
63121SOL    HW191202  11.627  11.649   5.976
63121SOL    HW291203  11.720  11.651   5.857
63122SOL     OW91204   4.190   9.415   3.322
63122SOL    HW191205   4.148   9.435   3.406
63122SOL    HW291206   4.283   9.408   3.342
63123SOL     OW91207   0.862   3.867   3.187
63123SOL    HW191208   0.935   3.810   3.210
63123SOL    HW291209   0.837   3.910   3.269
63124SOL     OW91210   4.611  13.190   4.770
63124SOL    HW191211   4.563  13.270   4.748
63124SOL    HW291212   4.633  13.151   4.685
63125SOL     OW91213   0.675   7.884   0.956
63125SOL    HW191214   0.752   7.928   0.991
63125SOL    HW291215   0.638   7.835   1.030
63126SOL     OW91216   1.016   2.324   7.446
63126SOL    HW191217   1.015   2.406   7.396
63126SOL    HW291218   1.087   2.335   7.509
63127SOL     OW91219   9.483   2.181   4.513
63127SOL    HW191220   9.475   2.271   4.544
63127SOL    HW291221   9.576   2.161   4.523
63128SOL     OW91222   5.027  14.192  13.651
63128SOL    HW191223   4.963  14.237  13.594
63128SOL    HW291224   5.103  14.250  13.652
63129SOL     OW91225  12.253   2.679   4.745
63129SOL    HW191226  12.175   2.687   4.800
63129SOL    HW291227  12.297   2.600   4.776
63130SOL     OW91228   2.336   6.644   5.121
63130SOL    HW191229   2.411   6.700   5.097
63130SOL    HW291230   2.266   6.673   5.063
63131SOL     OW91231   7.079  14.687   0.840
63131SOL    HW191232   7.107  14.704   0.930
63131SOL    HW291233   6.984  14.701   0.841
63132SOL     OW91234  14.238  12.770  11.279
63132SOL    HW191235  14.143  12.777  11.279
63132SOL    HW291236  14.266  12.815  11.199
63133SOL     OW91237   1.197   7.171   1.371
63133SOL    HW191238   1.245   7.245   1.407
63133SOL    HW291239   1.263   7.122   1.321
63134SOL     OW91240   1.813  10.689   6.986
63134SOL    HW191241   1.851  10.742   7.056
63134SOL    HW291242   1.814  10.600   7.020
63135SOL     OW91243   5.527  13.339  10.930
63135SOL    HW191244   5.442  13.373  10.900
63135SOL    HW291245   5.579  13.332  10.850
63136SOL     OW91246   6.592   2.988  14.666
63136SOL    HW191247   6.683   3.016  14.661
63136SOL    HW291248   6.548   3.056  14.717
63137SOL     OW91249   5.036   3.479   5.661
63137SOL    HW191250   5.131   3.480   5.674
63137SOL    HW291251   5.023   3.424   5.583
63138SOL     OW91252   2.841   0.416  13.369
63138SOL    HW191253   2.793   0.438  13.448
63138SOL    HW291254   2.774   0.384  13.308
63139SOL     OW91255   5.062   7.147   0.154
63139SOL    HW191256   5.022   7.097   0.083
63139SOL    HW291257   5.089   7.229   0.113
63140SOL     OW91258   5.949   5.125   6.302
63140SOL    HW191259   5.982   5.145   6.215
63140SOL    HW291260   5.854   5.136   6.295
63141SOL     OW91261   8.049   9.419  11.268
63141SOL    HW191262   8.143   9.421  11.284
63141SOL    HW291263   8.041   9.385  11.179
63142SOL     OW91264   6.769  12.602  10.560
63142SOL    HW191265   6.729  12.518  10.581
63142SOL    HW291266   6.863  12.589  10.575
63143SOL     OW91267   3.729  12.746   9.233
63143SOL    HW191268   3.647  12.715   9.195
63143SOL    HW291269   3.715  12.839   9.249
63144SOL     OW91270  10.147   3.047   9.523
63144SOL    HW191271  10.150   3.124   9.579
63144SOL    HW291272  10.224   3.055   9.467
63145SOL     OW91273   6.171   8.308   2.879
63145SOL    HW191274   6.246   8.299   2.938
63145SOL    HW291275   6.205   8.356   2.804
63146SOL     OW91276   2.516  10.118  14.056
63146SOL    HW191277   2.501  10.118  13.962
63146SOL    HW291278   2.436  10.157  14.092
63147SOL     OW91279  12.334   6.445   7.364
63147SOL    HW191280  12.285   6.403   7.294
63147SOL    HW291281  12.360   6.530   7.328
63148SOL     OW91282   5.919  14.325   3.335
63148SOL    HW191283   5.956  14.263   3.398
63148SOL    HW291284   5.873  14.389   3.389
63149SOL     OW91285   5.834   3.951   5.820
63149SOL    HW191286   5.838   4.005   5.741
63149SOL    HW291287   5.867   3.865   5.792
63150SOL     OW91288  14.717   9.675  13.843
63150SOL    HW191289  14.646   9.643  13.899
63150SOL    HW291290  14.677   9.681  13.756
63151SOL     OW91291   3.108   7.674   5.947
63151SOL    HW191292   3.096   7.579   5.952
63151SOL    HW291293   3.025   7.711   5.977
63152SOL     OW91294   4.925   5.311   4.519
63152SOL    HW191295   4.870   5.298   4.442
63152SOL    HW291296   4.929   5.225   4.561
63153SOL     OW91297   3.666  13.701  13.455
63153SOL    HW191298   3.687  13.617  13.413
63153SOL    HW291299   3.725  13.764  13.414
63154SOL     OW91300   4.046   6.102   8.521
63154SOL    HW191301   4.021   6.153   8.598
63154SOL    HW291302   4.102   6.161   8.470
63155SOL     OW91303   7.188   3.901   6.486
63155SOL    HW191304   7.257   3.867   6.543
63155SOL    HW291305   7.108   3.894   6.539
63156SOL     OW91306   1.679   8.326   1.635
63156SOL    HW191307   1.604   8.318   1.695
63156SOL    HW291308   1.667   8.411   1.593
63157SOL     OW91309   6.295   9.464   3.088
63157SOL    HW191310   6.349   9.456   3.010
63157SOL    HW291311   6.304   9.556   3.114
63158SOL     OW91312  10.103   3.351   3.417
63158SOL    HW191313  10.173   3.392   3.469
63158SOL    HW291314  10.041   3.422   3.401
63159SOL     OW91315   1.788   7.316   4.516
63159SOL    HW191316   1.869   7.354   4.548
63159SOL    HW291317   1.722   7.385   4.528
63160SOL     OW91318   0.788  13.718  14.804
63160SOL    HW191319   0.827  13.631  14.814
63160SOL    HW291320   0.825  13.769   0.002
63161SOL     OW91321   7.786  12.063  11.462
63161SOL    HW191322   7.757  11.991  11.406
63161SOL    HW291323   7.837  12.119  11.404
63162SOL     OW91324  11.641   6.606   7.286
63162SOL    HW191325  11.605   6.550   7.355
63162SOL    HW291326  11.607   6.569   7.205
63163SOL     OW91327   5.604   0.027   7.812
63163SOL    HW191328   5.671  14.836   7.837
63163SOL    HW291329   5.654   0.102   7.781
63164SOL     OW91330   8.014  13.130   1.624
63164SOL    HW191331   8.104  13.144   1.595
63164SOL    HW291332   8.019  13.129   1.719
63165SOL     OW91333   3.158   1.995   5.292
63165SOL    HW191334   3.158   2.001   5.197
63165SOL    HW291335   3.178   1.903   5.311
63166SOL     OW91336  13.880   4.940   2.982
63166SOL    HW191337  13.847   4.854   2.957
63166SOL    HW291338  13.930   4.970   2.906
63167SOL     OW91339  12.116  12.526   2.752
63167SOL    HW191340  12.075  12.571   2.826
63167SOL    HW291341  12.210  12.534   2.767
63168SOL     OW91342   4.211   9.104  10.861
63168SOL    HW191343   4.131   9.051  10.860
63168SOL    HW291344   4.265   9.067  10.791
63169SOL     OW91345   2.193  12.955   8.691
63169SOL    HW191346   2.100  12.956   8.713
63169SOL    HW291347   2.227  12.876   8.732
63170SOL     OW91348  12.701   0.788  12.642
63170SOL    HW191349  12.718   0.721  12.708
63170SOL    HW291350  12.611   0.770  12.613
63171SOL     OW91351   7.781  13.137  10.569
63171SOL    HW191352   7.855  13.125  10.510
63171SOL    HW291353   7.821  13.148  10.656
63172SOL     OW91354  10.798   7.706   9.432
63172SOL    HW191355  10.811   7.612   9.420
63172SOL    HW291356  10.710   7.723   9.398
63173SOL     OW91357   5.962  13.835  13.938
63173SOL    HW191358   6.010  13.903  13.890
63173SOL    HW291359   6.006  13.830  14.023
63174SOL     OW91360   3.522  11.094   5.100
63174SOL    HW191361   3.511  11.011   5.146
63174SOL    HW291362   3.484  11.079   5.014
63175SOL     OW91363   3.169   6.650   3.087
63175SOL    HW191364   3.080   6.681   3.072
63175SOL    HW291365   3.167   6.557   3.065
63176SOL     OW91366  11.845  13.166  11.736
63176SOL    HW191367  11.865  13.256  11.762
63176SOL    HW291368  11.750  13.159  11.746
63177SOL     OW91369   8.090   8.908   3.029
63177SOL    HW191370   8.088   8.855   2.949
63177SOL    HW291371   8.073   8.997   2.999
63178SOL     OW91372   1.292   8.824   8.337
63178SOL    HW191373   1.260   8.856   8.421
63178SOL    HW291374   1.279   8.729   8.342
63179SOL     OW91375   1.743  11.411  14.282
63179SOL    HW191376   1.791  11.334  14.310
63179SOL    HW291377   1.805  11.483  14.292
63180SOL     OW91378  13.446   5.805   2.960
63180SOL    HW191379  13.463   5.724   3.008
63180SOL    HW291380  13.471   5.784   2.870
63181SOL     OW91381   1.785   3.507  12.007
63181SOL    HW191382   1.809   3.600  12.008
63181SOL    HW291383   1.830   3.471  12.083
63182SOL     OW91384   1.810   2.434   7.731
63182SOL    HW191385   1.882   2.498   7.736
63182SOL    HW291386   1.793   2.424   7.638
63183SOL     OW91387  13.460  11.365  13.024
63183SOL    HW191388  13.552  11.373  13.051
63183SOL    HW291389  13.458  11.286  12.971
63184SOL     OW91390  12.688   9.933   0.361
63184SOL    HW191391  12.727   9.864   0.416
63184SOL    HW291392  12.750  10.005   0.366
63185SOL     OW91393   8.239   3.967   7.094
63185SOL    HW191394   8.207   4.039   7.148
63185SOL    HW291395   8.163   3.941   7.042
63186SOL     OW91396   4.764  11.452   9.897
63186SOL    HW191397   4.843  11.486   9.939
63186SOL    HW291398   4.737  11.379   9.953
63187SOL     OW91399   5.568   2.129  10.948
63187SOL    HW191400   5.603   2.085  10.870
63187SOL    HW291401   5.642   2.178  10.983
63188SOL     OW91402  13.649   2.043   3.566
63188SOL    HW191403  13.656   2.133   3.597
63188SOL    HW291404  13.718   1.996   3.612
63189SOL     OW91405  11.149   6.498   8.124
63189SOL    HW191406  11.136   6.410   8.160
63189SOL    HW291407  11.125   6.557   8.196
63190SOL     OW91408  13.481   2.923   1.431
63190SOL    HW191409  13.510   2.859   1.366
63190SOL    HW291410  13.386   2.927   1.420
63191SOL     OW91411   6.741   8.575   6.548
63191SOL    HW191412   6.818   8.623   6.517
63191SOL    HW291413   6.750   8.573   6.643
63192SOL     OW91414  12.437   8.657  10.766
63192SOL    HW191415  12.521   8.686  10.802
63192SOL    HW291416  12.389   8.623  10.841
63193SOL     OW91417   5.955  13.961   7.103
63193SOL    HW191418   5.863  13.937   7.119
63193SOL    HW291419   5.993  13.883   7.063
63194SOL     OW91420  14.769  12.478  11.806
63194SOL    HW191421  14.728  12.560  11.835
63194SOL    HW291422  14.759  12.419  11.881
63195SOL     OW91423   5.354   0.185   6.296
63195SOL    HW191424   5.436   0.233   6.289
63195SOL    HW291425   5.377   0.095   6.271
63196SOL     OW91426   0.364  14.158  10.240
63196SOL    HW191427   0.350  14.091  10.307
63196SOL    HW291428   0.372  14.110  10.158
63197SOL     OW91429   1.854   1.554   3.299
63197SOL    HW191430   1.888   1.513   3.378
63197SOL    HW291431   1.926   1.545   3.235
63198SOL     OW91432  12.859   4.898   6.296
63198SOL    HW191433  12.858   4.849   6.379
63198SOL    HW291434  12.817   4.840   6.233
63199SOL     OW91435  11.413   8.135   1.429
63199SOL    HW191436  11.499   8.175   1.440
63199SOL    HW291437  11.385   8.163   1.342
63200SOL     OW91438  14.202   3.853   9.874
63200SOL    HW191439  14.205   3.932   9.820
63200SOL    HW291440  14.249   3.787   9.824
63201SOL     OW91441   0.534  12.537   1.931
63201SOL    HW191442   0.586  12.575   2.002
63201SOL    HW291443   0.580  12.457   1.908
63202SOL     OW91444   4.865   5.930  12.982
63202SOL    HW191445   4.866   5.868  13.055
63202SOL    HW291446   4.854   5.875  12.904
63203SOL     OW91447   8.646   0.694   8.833
63203SOL    HW191448   8.584   0.767   8.835
63203SOL    HW291449   8.731   0.735   8.849
63204SOL     OW91450  13.448   1.184   0.811
63204SOL    HW191451  13.458   1.113   0.747
63204SOL    HW291452  13.408   1.256   0.760
63205SOL     OW91453  10.057  13.744  12.036
63205SOL    HW191454  10.029  13.791  12.115
63205SOL    HW291455  10.147  13.718  12.055
63206SOL     OW91456   5.668  12.067   3.334
63206SOL    HW191457   5.581  12.046   3.369
63206SOL    HW291458   5.691  12.150   3.373
63207SOL     OW91459   0.401  13.101   3.517
63207SOL    HW191460   0.401  13.188   3.479
63207SOL    HW291461   0.493  13.073   3.513
63208SOL     OW91462  10.797   9.204  14.585
63208SOL    HW191463  10.810   9.124  14.635
63208SOL    HW291464  10.800   9.274  14.651
63209SOL     OW91465  14.645   9.696   9.771
63209SOL    HW191466  14.691   9.617   9.746
63209SOL    HW291467  14.575   9.705   9.706
63210SOL     OW91468  11.544  12.882   0.139
63210SOL    HW191469  11.554  12.939   0.216
63210SOL    HW291470  11.515  12.798   0.175
63211SOL     OW91471  11.658   9.168  14.140
63211SOL    HW191472  11.633   9.232  14.073
63211SOL    HW291473  11.740   9.202  14.175
63212SOL     OW91474   6.934  10.374   6.073
63212SOL    HW191475   6.866  10.393   6.137
63212SOL    HW291476   6.926  10.280   6.058
63213SOL     OW91477   4.922  11.239  14.136
63213SOL    HW191478   4.885  11.152  14.151
63213SOL    HW291479   4.899  11.289  14.214
63214SOL     OW91480   6.775   5.228   7.595
63214SOL    HW191481   6.705   5.201   7.655
63214SOL    HW291482   6.730   5.249   7.513
63215SOL     OW91483   2.523   4.821   1.200
63215SOL    HW191484   2.514   4.917   1.201
63215SOL    HW291485   2.584   4.804   1.128
63216SOL     OW91486   1.475   3.205  10.870
63216SOL    HW191487   1.423   3.232  10.795
63216SOL    HW291488   1.492   3.112  10.856
63217SOL     OW91489   1.295  14.609  10.602
63217SOL    HW191490   1.275  14.597  10.695
63217SOL    HW291491   1.271  14.700  10.583
63218SOL     OW91492  12.025   6.295   8.840
63218SOL    HW191493  11.985   6.376   8.810
63218SOL    HW291494  12.021   6.299   8.935
63219SOL     OW91495   6.586  11.650   1.861
63219SOL    HW191496   6.627  11.658   1.947
63219SOL    HW291497   6.507  11.705   1.867
63220SOL     OW91498   7.386  10.197  13.545
63220SOL    HW191499   7.416  10.263  13.608
63220SOL    HW291500   7.456  10.132  13.543
63221SOL     OW91501  14.360   1.928   3.909
63221SOL    HW191502  14.286   1.913   3.969
63221SOL    HW291503  14.433   1.951   3.967
63222SOL     OW91504   8.315   8.889   4.198
63222SOL    HW191505   8.399   8.851   4.224
63222SOL    HW291506   8.309   8.971   4.247
63223SOL     OW91507   2.795   9.238   2.356
63223SOL    HW191508   2.757   9.172   2.414
63223SOL    HW291509   2.825   9.189   2.280
63224SOL     OW91510   1.296   0.572   8.852
63224SOL    HW191511   1.258   0.484   8.860
63224SOL    HW291512   1.308   0.601   8.942
63225SOL     OW91513   5.319   8.310   4.642
63225SOL    HW191514   5.402   8.329   4.686
63225SOL    HW291515   5.266   8.269   4.710
63226SOL     OW91516   3.343   4.881  10.543
63226SOL    HW191517   3.330   4.832  10.462
63226SOL    HW291518   3.423   4.931  10.528
63227SOL     OW91519   4.844   3.378   4.303
63227SOL    HW191520   4.876   3.463   4.273
63227SOL    HW291521   4.762   3.366   4.257
63228SOL     OW91522   8.880   1.368   0.594
63228SOL    HW191523   8.917   1.403   0.514
63228SOL    HW291524   8.848   1.281   0.570
63229SOL     OW91525  11.255   9.854  12.440
63229SOL    HW191526  11.270   9.936  12.392
63229SOL    HW291527  11.339   9.834  12.480
63230SOL     OW91528   4.791   3.814   1.108
63230SOL    HW191529   4.730   3.877   1.068
63230SOL    HW291530   4.766   3.814   1.200
63231SOL     OW91531   1.863   6.976  10.780
63231SOL    HW191532   1.955   6.959  10.758
63231SOL    HW291533   1.815   6.903  10.741
63232SOL     OW91534   7.740  13.159   6.761
63232SOL    HW191535   7.811  13.096   6.749
63232SOL    HW291536   7.682  13.118   6.826
63233SOL     OW91537  13.540   7.831  13.031
63233SOL    HW191538  13.535   7.768  12.959
63233SOL    HW291539  13.564   7.778  13.107
63234SOL     OW91540   5.297   8.290   1.820
63234SOL    HW191541   5.282   8.196   1.811
63234SOL    HW291542   5.272   8.309   1.910
63235SOL     OW91543  14.158   5.275  11.882
63235SOL    HW191544  14.163   5.321  11.798
63235SOL    HW291545  14.249   5.255  11.904
63236SOL     OW91546   7.466   1.840  14.791
63236SOL    HW191547   7.400   1.781  14.756
63236SOL    HW291548   7.453   1.922  14.743
63237SOL     OW91549   3.341   4.209   3.194
63237SOL    HW191550   3.307   4.135   3.143
63237SOL    HW291551   3.433   4.188   3.207
63238SOL     OW91552   3.952  13.115   3.272
63238SOL    HW191553   3.860  13.133   3.252
63238SOL    HW291554   3.995  13.200   3.263
63239SOL     OW91555  11.336  13.263   1.889
63239SOL    HW191556  11.421  13.299   1.915
63239SOL    HW291557  11.311  13.206   1.961
63240SOL     OW91558   9.194   8.379   4.668
63240SOL    HW191559   9.228   8.303   4.714
63240SOL    HW291560   9.099   8.368   4.672
63241SOL     OW91561  10.432   8.522  13.979
63241SOL    HW191562  10.470   8.569  13.905
63241SOL    HW291563  10.444   8.430  13.957
63242SOL     OW91564   3.828  10.073  14.825
63242SOL    HW191565   3.818   9.978  14.832
63242SOL    HW291566   3.922  10.086  14.813
63243SOL     OW91567   5.206   1.529   5.593
63243SOL    HW191568   5.203   1.532   5.688
63243SOL    HW291569   5.139   1.591   5.565
63244SOL     OW91570  11.942   1.376   2.807
63244SOL    HW191571  11.947   1.317   2.883
63244SOL    HW291572  11.851   1.372   2.780
63245SOL     OW91573  11.592  12.298   1.118
63245SOL    HW191574  11.563  12.292   1.209
63245SOL    HW291575  11.607  12.391   1.103
63246SOL     OW91576   7.784  10.334   9.409
63246SOL    HW191577   7.866  10.307   9.449
63246SOL    HW291578   7.754  10.407   9.463
63247SOL     OW91579  12.633   4.972  11.589
63247SOL    HW191580  12.666   5.057  11.561
63247SOL    HW291581  12.550   4.961  11.542
63248SOL     OW91582  11.602   7.055  10.104
63248SOL    HW191583  11.627   7.024  10.017
63248SOL    HW291584  11.507   7.045  10.107
63249SOL     OW91585   9.282  13.374  13.953
63249SOL    HW191586   9.192  13.345  13.939
63249SOL    HW291587   9.332  13.329  13.886
63250SOL     OW91588   0.432   8.406   4.706
63250SOL    HW191589   0.342   8.432   4.686
63250SOL    HW291590   0.452   8.338   4.642
63251SOL     OW91591   3.218  13.367   0.696
63251SOL    HW191592   3.166  13.437   0.733
63251SOL    HW291593   3.217  13.298   0.763
63252SOL     OW91594  13.368   0.280  13.853
63252SOL    HW191595  13.343   0.364  13.890
63252SOL    HW291596  13.385   0.224  13.929
63253SOL     OW91597   2.337  12.311   3.008
63253SOL    HW191598   2.381  12.259   3.076
63253SOL    HW291599   2.326  12.398   3.048
63254SOL     OW91600   1.974   1.617   1.820
63254SOL    HW191601   2.004   1.533   1.785
63254SOL    HW291602   1.879   1.607   1.826
63255SOL     OW91603   0.407  11.608   4.562
63255SOL    HW191604   0.410  11.691   4.610
63255SOL    HW291605   0.376  11.631   4.475
63256SOL     OW91606  13.858  10.164  13.481
63256SOL    HW191607  13.929  10.101  13.497
63256SOL    HW291608  13.808  10.126  13.409
63257SOL     OW91609  12.525   9.226   2.473
63257SOL    HW191610  12.590   9.288   2.442
63257SOL    HW291611  12.560   9.193   2.556
63258SOL     OW91612   7.650  12.959   1.018
63258SOL    HW191613   7.714  13.020   0.981
63258SOL    HW291614   7.701  12.884   1.047
63259SOL     OW91615   1.060   0.127   8.495
63259SOL    HW191616   1.126   0.120   8.426
63259SOL    HW291617   0.981   0.089   8.457
63260SOL     OW91618   4.344   2.426  11.631
63260SOL    HW191619   4.394   2.347  11.612
63260SOL    HW291620   4.368   2.487  11.562
63261SOL     OW91621   6.108   4.899  13.133
63261SOL    HW191622   6.068   4.819  13.098
63261SOL    HW291623   6.124   4.953  13.056
63262SOL     OW91624  12.314   1.503   9.987
63262SOL    HW191625  12.289   1.483   9.896
63262SOL    HW291626  12.305   1.419  10.032
63263SOL     OW91627   1.096   1.463   5.183
63263SOL    HW191628   1.168   1.493   5.238
63263SOL    HW291629   1.028   1.530   5.194
63264SOL     OW91630   9.176   4.141   2.029
63264SOL    HW191631   9.253   4.132   1.972
63264SOL    HW291632   9.187   4.226   2.071
63265SOL     OW91633   1.803   5.260  12.402
63265SOL    HW191634   1.832   5.348  12.378
63265SOL    HW291635   1.708   5.268  12.411
63266SOL     OW91636   4.427  12.942   5.936
63266SOL    HW191637   4.486  12.869   5.953
63266SOL    HW291638   4.379  12.954   6.019
63267SOL     OW91639  14.449  10.692   4.387
63267SOL    HW191640  14.434  10.622   4.324
63267SOL    HW291641  14.370  10.746   4.383
63268SOL     OW91642   9.527  14.715   0.728
63268SOL    HW191643   9.620  14.734   0.738
63268SOL    HW291644   9.498  14.688   0.815
63269SOL     OW91645   8.591   9.101  14.684
63269SOL    HW191646   8.663   9.040  14.669
63269SOL    HW291647   8.614   9.177  14.630
63270SOL     OW91648  14.842  10.449   7.449
63270SOL    HW191649  14.865  10.522   7.506
63270SOL    HW291650  14.766  10.480   7.399
63271SOL     OW91651  13.139   6.272   0.953
63271SOL    HW191652  13.161   6.215   0.879
63271SOL    HW291653  13.044   6.262   0.962
63272SOL     OW91654   2.446  11.606   3.358
63272SOL    HW191655   2.514  11.539   3.356
63272SOL    HW291656   2.465  11.662   3.282
63273SOL     OW91657   8.295   1.722   5.842
63273SOL    HW191658   8.292   1.660   5.768
63273SOL    HW291659   8.205   1.725   5.874
63274SOL     OW91660   0.206   3.141   1.572
63274SOL    HW191661   0.220   3.163   1.480
63274SOL    HW291662   0.113   3.161   1.587
63275SOL     OW91663   8.256   9.056  12.473
63275SOL    HW191664   8.336   9.108  12.482
63275SOL    HW291665   8.185   9.118  12.488
63276SOL     OW91666   1.096  12.929   2.496
63276SOL    HW191667   1.152  12.859   2.462
63276SOL    HW291668   1.093  12.912   2.591
63277SOL     OW91669   8.982   7.098   1.776
63277SOL    HW191670   8.975   7.160   1.704
63277SOL    HW291671   9.072   7.067   1.773
63278SOL     OW91672   2.742  12.842   5.278
63278SOL    HW191673   2.722  12.766   5.224
63278SOL    HW291674   2.752  12.807   5.366
63279SOL     OW91675   1.539   9.711   6.377
63279SOL    HW191676   1.540   9.616   6.386
63279SOL    HW291677   1.628   9.738   6.401
63280SOL     OW91678  12.951   3.692   2.397
63280SOL    HW191679  12.890   3.670   2.467
63280SOL    HW291680  13.038   3.679   2.436
63281SOL     OW91681   1.860   2.942  12.009
63281SOL    HW191682   1.768   2.916  12.001
63281SOL    HW291683   1.856   3.028  12.051
63282SOL     OW91684   9.801   9.311   4.571
63282SOL    HW191685   9.819   9.322   4.478
63282SOL    HW291686   9.874   9.257   4.603
63283SOL     OW91687  11.279   0.040   5.388
63283SOL    HW191688  11.228   0.117   5.412
63283SOL    HW291689  11.296  14.868   5.471
63284SOL     OW91690   2.964   0.392   9.106
63284SOL    HW191691   3.007   0.326   9.161
63284SOL    HW291692   2.971   0.357   9.017
63285SOL     OW91693  12.091   7.028  13.817
63285SOL    HW191694  12.006   7.053  13.782
63285SOL    HW291695  12.072   6.976  13.895
63286SOL     OW91696  10.978  10.077   9.117
63286SOL    HW191697  10.984   9.989   9.155
63286SOL    HW291698  10.937  10.064   9.032
63287SOL     OW91699   6.134   0.081  13.828
63287SOL    HW191700   6.191   0.061  13.753
63287SOL    HW291701   6.081   0.002  13.839
63288SOL     OW91702   4.112   3.036   5.668
63288SOL    HW191703   4.142   3.076   5.586
63288SOL    HW291704   4.030   3.080   5.687
63289SOL     OW91705   3.794   4.014   3.216
63289SOL    HW191706   3.829   3.975   3.296
63289SOL    HW291707   3.816   3.952   3.147
63290SOL     OW91708   7.133   2.974   7.103
63290SOL    HW191709   7.210   3.025   7.079
63290SOL    HW291710   7.074   2.982   7.028
63291SOL     OW91711   4.238   3.450   4.537
63291SOL    HW191712   4.226   3.371   4.589
63291SOL    HW291713   4.228   3.522   4.599
63292SOL     OW91714  11.377   8.298  13.821
63292SOL    HW191715  11.298   8.334  13.861
63292SOL    HW291716  11.444   8.308  13.888
63293SOL     OW91717  12.189  10.613   7.870
63293SOL    HW191718  12.156  10.567   7.948
63293SOL    HW291719  12.277  10.578   7.857
63294SOL     OW91720   8.090   1.471   6.085
63294SOL    HW191721   8.034   1.406   6.127
63294SOL    HW291722   8.090   1.446   5.992
63295SOL     OW91723  11.979   9.522   3.935
63295SOL    HW191724  12.038   9.576   3.883
63295SOL    HW291725  12.031   9.445   3.959
63296SOL     OW91726   0.847  11.832  11.400
63296SOL    HW191727   0.756  11.801  11.401
63296SOL    HW291728   0.861  11.867  11.488
63297SOL     OW91729  10.194   5.863   4.256
63297SOL    HW191730  10.107   5.901   4.271
63297SOL    HW291731  10.254   5.923   4.301
63298SOL     OW91732  13.185   0.676  11.144
63298SOL    HW191733  13.164   0.656  11.052
63298SOL    HW291734  13.277   0.700  11.143
63299SOL     OW91735   5.022   9.985   2.674
63299SOL    HW191736   5.008   9.984   2.768
63299SOL    HW291737   5.082  10.059   2.659
63300SOL     OW91738  10.925   1.484   0.184
63300SOL    HW191739  10.840   1.498   0.226
63300SOL    HW291740  10.941   1.566   0.137
63301SOL     OW91741   1.469  12.003  13.461
63301SOL    HW191742   1.532  12.067  13.427
63301SOL    HW291743   1.509  11.971  13.542
63302SOL     OW91744   0.290   6.072   4.591
63302SOL    HW191745   0.334   6.156   4.600
63302SOL    HW291746   0.212   6.091   4.539
63303SOL     OW91747   9.682   1.825  10.286
63303SOL    HW191748   9.674   1.730  10.295
63303SOL    HW291749   9.773   1.844  10.309
63304SOL     OW91750   9.773   6.309  11.463
63304SOL    HW191751   9.724   6.341  11.387
63304SOL    HW291752   9.832   6.243  11.427
63305SOL     OW91753   9.893  11.100   3.666
63305SOL    HW191754   9.872  11.046   3.590
63305SOL    HW291755   9.949  11.045   3.721
63306SOL     OW91756   2.921  14.101   6.273
63306SOL    HW191757   2.998  14.045   6.277
63306SOL    HW291758   2.934  14.156   6.196
63307SOL     OW91759  11.005  10.761  13.872
63307SOL    HW191760  10.959  10.732  13.793
63307SOL    HW291761  10.979  10.699  13.940
63308SOL     OW91762   7.859  12.007   4.868
63308SOL    HW191763   7.846  12.026   4.961
63308SOL    HW291764   7.829  12.086   4.823
63309SOL     OW91765   4.955   2.050   2.065
63309SOL    HW191766   4.901   1.975   2.091
63309SOL    HW291767   5.023   2.055   2.131
63310SOL     OW91768   6.739   9.149   8.651
63310SOL    HW191769   6.728   9.167   8.558
63310SOL    HW291770   6.803   9.214   8.681
63311SOL     OW91771  10.871   7.163   4.467
63311SOL    HW191772  10.836   7.242   4.425
63311SOL    HW291773  10.850   7.092   4.406
63312SOL     OW91774   0.545   9.043   9.709
63312SOL    HW191775   0.639   9.034   9.723
63312SOL    HW291776   0.523   9.131   9.738
63313SOL     OW91777  12.451  10.838   1.547
63313SOL    HW191778  12.381  10.901   1.531
63313SOL    HW291779  12.517  10.886   1.597
63314SOL     OW91780  13.945   4.181  14.810
63314SOL    HW191781  13.875   4.116  14.822
63314SOL    HW291782  13.930   4.245   0.006
63315SOL     OW91783   4.094  13.631   7.343
63315SOL    HW191784   4.008  13.595   7.319
63315SOL    HW291785   4.141  13.557   7.382
63316SOL     OW91786  12.594  12.504   4.083
63316SOL    HW191787  12.601  12.512   3.987
63316SOL    HW291788  12.643  12.579   4.117
63317SOL     OW91789  11.888  10.836  12.277
63317SOL    HW191790  11.942  10.759  12.263
63317SOL    HW291791  11.888  10.882  12.194
63318SOL     OW91792   8.543   0.475  10.781
63318SOL    HW191793   8.553   0.461  10.686
63318SOL    HW291794   8.603   0.547  10.800
63319SOL     OW91795   6.069  13.545  10.435
63319SOL    HW191796   6.095  13.620  10.381
63319SOL    HW291797   6.140  13.482  10.423
63320SOL     OW91798  14.241   6.263   4.038
63320SOL    HW191799  14.232   6.239   4.130
63320SOL    HW291800  14.330   6.235   4.015
63321SOL     OW91801   4.730   1.501  13.759
63321SOL    HW191802   4.761   1.445  13.688
63321SOL    HW291803   4.692   1.441  13.823
63322SOL     OW91804   1.345  10.114   4.624
63322SOL    HW191805   1.403  10.161   4.564
63322SOL    HW291806   1.270  10.173   4.635
63323SOL     OW91807   7.522   6.319   0.732
63323SOL    HW191808   7.615   6.341   0.739
63323SOL    HW291809   7.519   6.225   0.748
63324SOL     OW91810   3.110  13.606   9.341
63324SOL    HW191811   3.190  13.557   9.325
63324SOL    HW291812   3.102  13.609   9.437
63325SOL     OW91813   1.410  11.408   9.558
63325SOL    HW191814   1.497  11.368   9.554
63325SOL    HW291815   1.353  11.344   9.515
63326SOL     OW91816   7.914   8.219  12.023
63326SOL    HW191817   7.880   8.134  12.051
63326SOL    HW291818   7.876   8.232  11.936
63327SOL     OW91819  10.416   6.555  12.816
63327SOL    HW191820  10.322   6.561  12.837
63327SOL    HW291821  10.442   6.470  12.852
63328SOL     OW91822   8.810   3.110   6.265
63328SOL    HW191823   8.856   3.058   6.331
63328SOL    HW291824   8.840   3.200   6.281
63329SOL     OW91825  10.983   5.672   1.267
63329SOL    HW191826  10.991   5.727   1.190
63329SOL    HW291827  10.970   5.584   1.233
63330SOL     OW91828   7.325  10.765   1.392
63330SOL    HW191829   7.372  10.707   1.452
63330SOL    HW291830   7.233  10.760   1.420
63331SOL     OW91831  14.675   2.021   9.748
63331SOL    HW191832  14.764   2.053   9.738
63331SOL    HW291833  14.622   2.081   9.696
63332SOL     OW91834  13.799   1.279   6.820
63332SOL    HW191835  13.819   1.237   6.736
63332SOL    HW291836  13.721   1.233   6.852
63333SOL     OW91837   4.252   5.047  13.218
63333SOL    HW191838   4.258   4.966  13.269
63333SOL    HW291839   4.196   5.024  13.144
63334SOL     OW91840  13.470  11.569  10.710
63334SOL    HW191841  13.498  11.530  10.793
63334SOL    HW291842  13.552  11.592  10.666
63335SOL     OW91843   0.914   4.031   4.549
63335SOL    HW191844   0.953   4.060   4.631
63335SOL    HW291845   0.923   3.936   4.550
63336SOL     OW91846   7.426  10.658  14.483
63336SOL    HW191847   7.380  10.654  14.399
63336SOL    HW291848   7.499  10.718  14.467
63337SOL     OW91849   4.227  12.036   0.450
63337SOL    HW191850   4.292  12.022   0.520
63337SOL    HW291851   4.143  12.019   0.492
63338SOL     OW91852   4.396   7.139   4.399
63338SOL    HW191853   4.366   7.088   4.474
63338SOL    HW291854   4.475   7.093   4.369
63339SOL     OW91855  14.566  13.212  12.475
63339SOL    HW191856  14.574  13.162  12.556
63339SOL    HW291857  14.512  13.156  12.418
63340SOL     OW91858   7.626   2.045   2.320
63340SOL    HW191859   7.721   2.036   2.328
63340SOL    HW291860   7.609   2.139   2.328
63341SOL     OW91861   7.166   5.756  10.205
63341SOL    HW191862   7.100   5.703  10.160
63341SOL    HW291863   7.198   5.700  10.275
63342SOL     OW91864   3.371   5.254   6.721
63342SOL    HW191865   3.421   5.309   6.661
63342SOL    HW291866   3.286   5.299   6.730
63343SOL     OW91867  11.535   0.595   8.533
63343SOL    HW191868  11.588   0.540   8.591
63343SOL    HW291869  11.486   0.652   8.593
63344SOL     OW91870  12.818  11.669   4.687
63344SOL    HW191871  12.867  11.702   4.612
63344SOL    HW291872  12.752  11.736   4.704
63345SOL     OW91873   5.242   6.383   9.850
63345SOL    HW191874   5.269   6.431   9.772
63345SOL    HW291875   5.261   6.441   9.923
63346SOL     OW91876  13.763   5.032   9.633
63346SOL    HW191877  13.709   5.088   9.576
63346SOL    HW291878  13.792   5.091   9.703
63347SOL     OW91879   4.446   9.234   9.224
63347SOL    HW191880   4.390   9.236   9.302
63347SOL    HW291881   4.519   9.176   9.248
63348SOL     OW91882   1.479  13.130   5.591
63348SOL    HW191883   1.516  13.216   5.570
63348SOL    HW291884   1.442  13.141   5.679
63349SOL     OW91885   4.080  14.499   7.141
63349SOL    HW191886   4.134  14.482   7.064
63349SOL    HW291887   4.125  14.571   7.187
63350SOL     OW91888  14.828   7.002  10.715
63350SOL    HW191889  14.797   7.091  10.701
63350SOL    HW291890  14.841   6.995  10.810
63351SOL     OW91891   5.520   0.672   9.959
63351SOL    HW191892   5.483   0.703   9.876
63351SOL    HW291893   5.447   0.673  10.020
63352SOL     OW91894   2.938   9.857  12.103
63352SOL    HW191895   2.942   9.927  12.168
63352SOL    HW291896   2.991   9.890  12.030
63353SOL     OW91897   8.759   7.129  13.459
63353SOL    HW191898   8.672   7.114  13.422
63353SOL    HW291899   8.754   7.217  13.498
63354SOL     OW91900   2.064  10.032   1.985
63354SOL    HW191901   2.031  10.000   2.069
63354SOL    HW291902   2.129  10.098   2.008
63355SOL     OW91903   8.134   2.476   7.094
63355SOL    HW191904   8.133   2.520   7.179
63355SOL    HW291905   8.132   2.548   7.031
63356SOL     OW91906  12.709   8.169   4.065
63356SOL    HW191907  12.720   8.173   3.970
63356SOL    HW291908  12.714   8.076   4.086
63357SOL     OW91909   9.048  14.056  14.871
63357SOL    HW191910   9.044  13.977   0.053
63357SOL    HW291911   8.975  14.110   0.029
63358SOL     OW91912  10.120   8.410  11.077
63358SOL    HW191913  10.045   8.382  11.025
63358SOL    HW291914  10.082   8.432  11.163
63359SOL     OW91915   3.476   9.897   7.150
63359SOL    HW191916   3.439   9.904   7.238
63359SOL    HW291917   3.571   9.897   7.163
63360SOL     OW91918   6.155   6.429   8.307
63360SOL    HW191919   6.077   6.398   8.262
63360SOL    HW291920   6.218   6.357   8.299
63361SOL     OW91921  13.478  12.508   9.844
63361SOL    HW191922  13.433  12.424   9.845
63361SOL    HW291923  13.407  12.573   9.852
63362SOL     OW91924  11.184   1.940   8.211
63362SOL    HW191925  11.156   1.966   8.299
63362SOL    HW291926  11.280   1.945   8.214
63363SOL     OW91927   5.489   6.092   0.291
63363SOL    HW191928   5.420   6.114   0.229
63363SOL    HW291929   5.555   6.047   0.238
63364SOL     OW91930   9.443  13.030   4.859
63364SOL    HW191931   9.444  12.944   4.900
63364SOL    HW291932   9.355  13.040   4.823
63365SOL     OW91933   4.754  10.000   3.166
63365SOL    HW191934   4.815   9.933   3.196
63365SOL    HW291935   4.775  10.078   3.218
63366SOL     OW91936   1.714   3.187   7.927
63366SOL    HW191937   1.805   3.157   7.924
63366SOL    HW291938   1.667   3.119   7.974
63367SOL     OW91939  10.527   0.058   7.210
63367SOL    HW191940  10.491   0.137   7.250
63367SOL    HW291941  10.569   0.011   7.282
63368SOL     OW91942   9.573   2.991   8.613
63368SOL    HW191943   9.645   2.930   8.628
63368SOL    HW291944   9.600   3.071   8.658
63369SOL     OW91945  12.470   1.633  11.799
63369SOL    HW191946  12.512   1.629  11.713
63369SOL    HW291947  12.384   1.670  11.783
63370SOL     OW91948  10.132   4.750   6.039
63370SOL    HW191949  10.091   4.834   6.020
63370SOL    HW291950  10.075   4.686   5.995
63371SOL     OW91951   9.607   0.532   8.285
63371SOL    HW191952   9.523   0.551   8.242
63371SOL    HW291953   9.596   0.565   8.374
63372SOL     OW91954   8.830   2.988   5.978
63372SOL    HW191955   8.924   2.972   5.975
63372SOL    HW291956   8.816   3.035   6.060
63373SOL     OW91957  12.144   4.229   1.799
63373SOL    HW191958  12.080   4.179   1.749
63373SOL    HW291959  12.229   4.198   1.767
63374SOL     OW91960  11.601  10.995   9.215
63374SOL    HW191961  11.680  10.947   9.189
63374SOL    HW291962  11.605  10.996   9.311
63375SOL     OW91963   8.784   9.561  10.058
63375SOL    HW191964   8.704   9.597  10.018
63375SOL    HW291965   8.766   9.468  10.067
63376SOL     OW91966  12.044   1.508   9.365
63376SOL    HW191967  12.062   1.570   9.294
63376SOL    HW291968  11.960   1.468   9.342
63377SOL     OW91969  11.728  14.507  12.226
63377SOL    HW191970  11.669  14.581  12.234
63377SOL    HW291971  11.798  14.538  12.169
63378SOL     OW91972   8.313   8.056  13.940
63378SOL    HW191973   8.331   8.047  14.034
63378SOL    HW291974   8.249   7.986  13.922
63379SOL     OW91975   5.802   0.641   4.421
63379SOL    HW191976   5.778   0.570   4.480
63379SOL    HW291977   5.891   0.620   4.393
63380SOL     OW91978   8.856  13.725  12.955
63380SOL    HW191979   8.823  13.788  13.019
63380SOL    HW291980   8.923  13.675  13.002
63381SOL     OW91981   2.134   2.488   5.380
63381SOL    HW191982   2.166   2.436   5.306
63381SOL    HW291983   2.186   2.459   5.455
63382SOL     OW91984   6.115   5.770   3.155
63382SOL    HW191985   6.031   5.728   3.172
63382SOL    HW291986   6.115   5.785   3.060
63383SOL     OW91987   6.529   9.099   2.561
63383SOL    HW191988   6.624   9.106   2.567
63383SOL    HW291989   6.505   9.148   2.483
63384SOL     OW91990   2.583  10.219   7.856
63384SOL    HW191991   2.634  10.278   7.911
63384SOL    HW291992   2.501  10.207   7.903
63385SOL     OW91993   7.024   2.690   2.883
63385SOL    HW191994   6.952   2.749   2.860
63385SOL    HW291995   7.061   2.728   2.963
63386SOL     OW91996   2.195   0.374  12.157
63386SOL    HW191997   2.247   0.451  12.138
63386SOL    HW291998   2.105   0.406  12.160
63387SOL     OW91999   3.788   2.429  14.658
63387SOL    HW192000   3.858   2.484  14.621
63387SOL    HW292001   3.756   2.479  14.733
63388SOL     OW92002   1.234   1.863   7.957
63388SOL    HW192003   1.201   1.953   7.963
63388SOL    HW292004   1.273   1.846   8.043
63389SOL     OW92005  13.685  13.967   6.415
63389SOL    HW192006  13.658  13.877   6.434
63389SOL    HW292007  13.686  14.011   6.500
63390SOL     OW92008  11.738   6.533   0.163
63390SOL    HW192009  11.669   6.573   0.110
63390SOL    HW292010  11.806   6.600   0.167
63391SOL     OW92011  11.730  10.056   3.523
63391SOL    HW192012  11.688  10.101   3.597
63391SOL    HW292013  11.770   9.979   3.562
63392SOL     OW92014  13.596  11.334   6.608
63392SOL    HW192015  13.520  11.390   6.629
63392SOL    HW292016  13.567  11.282   6.533
63393SOL     OW92017  13.890   6.210   8.458
63393SOL    HW192018  13.824   6.143   8.477
63393SOL    HW292019  13.840   6.291   8.448
63394SOL     OW92020   3.722   6.816  10.091
63394SOL    HW192021   3.640   6.852  10.057
63394SOL    HW292022   3.712   6.819  10.186
63395SOL     OW92023  13.304   8.830   5.243
63395SOL    HW192024  13.394   8.823   5.213
63395SOL    HW292025  13.251   8.808   5.166
63396SOL     OW92026   1.601   2.515   0.183
63396SOL    HW192027   1.626   2.579   0.116
63396SOL    HW292028   1.506   2.506   0.172
63397SOL     OW92029  12.567   2.934   4.467
63397SOL    HW192030  12.504   2.940   4.539
63397SOL    HW292031  12.579   3.024   4.438
63398SOL     OW92032   6.591   3.381   9.124
63398SOL    HW192033   6.523   3.415   9.183
63398SOL    HW292034   6.549   3.307   9.080
63399SOL     OW92035   5.068   7.079   2.876
63399SOL    HW192036   5.145   7.028   2.852
63399SOL    HW292037   5.086   7.112   2.964
63400SOL     OW92038  10.012   7.389   6.074
63400SOL    HW192039   9.972   7.445   6.140
63400SOL    HW292040  10.065   7.327   6.123
63401SOL     OW92041   5.484   6.638   8.571
63401SOL    HW192042   5.485   6.613   8.664
63401SOL    HW292043   5.410   6.589   8.534
63402SOL     OW92044   5.405   8.359   5.189
63402SOL    HW192045   5.354   8.294   5.237
63402SOL    HW292046   5.492   8.319   5.179
63403SOL     OW92047   6.966  14.626   0.454
63403SOL    HW192048   6.939  14.535   0.465
63403SOL    HW292049   6.894  14.668   0.407
63404SOL     OW92050   0.615   1.251   6.015
63404SOL    HW192051   0.621   1.333   6.063
63404SOL    HW292052   0.706   1.220   6.010
63405SOL     OW92053  13.942   1.956  12.128
63405SOL    HW192054  13.912   1.919  12.211
63405SOL    HW292055  13.863   1.994  12.089
63406SOL     OW92056  10.366   9.841   7.737
63406SOL    HW192057  10.374   9.936   7.738
63406SOL    HW292058  10.402   9.814   7.822
63407SOL     OW92059  10.964   5.096   4.059
63407SOL    HW192060  11.048   5.107   4.014
63407SOL    HW292061  10.906   5.057   3.994
63408SOL     OW92062   7.361   2.930  12.173
63408SOL    HW192063   7.456   2.928  12.175
63408SOL    HW292064   7.336   2.844  12.139
63409SOL     OW92065   9.200  12.323  12.369
63409SOL    HW192066   9.173  12.413  12.350
63409SOL    HW292067   9.285  12.314  12.326
63410SOL     OW92068   5.857   4.100   7.813
63410SOL    HW192069   5.822   4.075   7.727
63410SOL    HW292070   5.793   4.066   7.875
63411SOL     OW92071   8.561   8.041   3.709
63411SOL    HW192072   8.607   8.121   3.733
63411SOL    HW292073   8.471   8.068   3.691
63412SOL     OW92074   9.669  13.388   7.461
63412SOL    HW192075   9.666  13.409   7.555
63412SOL    HW292076   9.694  13.295   7.458
63413SOL     OW92077   9.854  14.479   7.077
63413SOL    HW192078   9.932  14.493   7.023
63413SOL    HW292079   9.819  14.395   7.046
63414SOL     OW92080   1.369  11.492   3.177
63414SOL    HW192081   1.430  11.558   3.146
63414SOL    HW292082   1.340  11.524   3.262
63415SOL     OW92083  14.637  11.454  11.156
63415SOL    HW192084  14.679  11.418  11.234
63415SOL    HW292085  14.701  11.442  11.086
63416SOL     OW92086   8.408   0.344  14.412
63416SOL    HW192087   8.495   0.383  14.423
63416SOL    HW292088   8.348   0.413  14.439
63417SOL     OW92089   2.530   8.898   7.756
63417SOL    HW192090   2.539   8.803   7.757
63417SOL    HW292091   2.620   8.931   7.764
63418SOL     OW92092   3.667   1.341  14.818
63418SOL    HW192093   3.720   1.264  14.840
63418SOL    HW292094   3.636   1.373   0.029
63419SOL     OW92095   6.470   5.931  10.960
63419SOL    HW192096   6.557   5.899  10.935
63419SOL    HW292097   6.472   6.025  10.939
63420SOL     OW92098   9.153  13.222   4.359
63420SOL    HW192099   9.209  13.186   4.290
63420SOL    HW292100   9.156  13.317   4.346
63421SOL     OW92101   7.850   8.949   5.097
63421SOL    HW192102   7.919   8.910   5.151
63421SOL    HW292103   7.769   8.909   5.131
63422SOL     OW92104  13.628   0.896   1.719
63422SOL    HW192105  13.632   0.972   1.776
63422SOL    HW292106  13.623   0.932   1.631
63423SOL     OW92107   6.323  13.648  10.854
63423SOL    HW192108   6.258  13.679  10.790
63423SOL    HW292109   6.406  13.684  10.824
63424SOL     OW92110   5.916   7.527   1.766
63424SOL    HW192111   5.926   7.550   1.859
63424SOL    HW292112   5.892   7.609   1.723
63425SOL     OW92113   9.263  11.991  10.646
63425SOL    HW192114   9.295  11.909  10.608
63425SOL    HW292115   9.215  12.033  10.574
63426SOL     OW92116   6.212   0.157   9.842
63426SOL    HW192117   6.197   0.212   9.919
63426SOL    HW292118   6.231   0.070   9.878
63427SOL     OW92119   2.277  12.771   8.173
63427SOL    HW192120   2.370  12.750   8.176
63427SOL    HW292121   2.262  12.825   8.251
63428SOL     OW92122   5.270   8.720   9.877
63428SOL    HW192123   5.249   8.633   9.911
63428SOL    HW292124   5.244   8.780   9.947
63429SOL     OW92125   4.067  12.631  14.223
63429SOL    HW192126   4.084  12.653  14.132
63429SOL    HW292127   4.096  12.708  14.272
63430SOL     OW92128  12.163   2.893   1.339
63430SOL    HW192129  12.139   2.808   1.303
63430SOL    HW292130  12.228   2.874   1.406
63431SOL     OW92131   2.497  13.854   4.831
63431SOL    HW192132   2.580  13.835   4.876
63431SOL    HW292133   2.481  13.776   4.778
63432SOL     OW92134  10.461  10.133   5.048
63432SOL    HW192135  10.475  10.071   5.120
63432SOL    HW292136  10.467  10.219   5.089
63433SOL     OW92137  14.863  12.761   6.465
63433SOL    HW192138  14.847  12.839   6.518
63433SOL    HW292139  14.777  12.718   6.459
63434SOL     OW92140  11.099  13.262   3.432
63434SOL    HW192141  11.052  13.256   3.349
63434SOL    HW292142  11.036  13.230   3.497
63435SOL     OW92143   7.391   7.245   1.545
63435SOL    HW192144   7.424   7.317   1.491
63435SOL    HW292145   7.297   7.242   1.526
63436SOL     OW92146   8.778   7.896   5.556
63436SOL    HW192147   8.708   7.960   5.570
63436SOL    HW292148   8.744   7.839   5.487
63437SOL     OW92149  12.540   1.330   2.043
63437SOL    HW192150  12.618   1.366   2.000
63437SOL    HW292151  12.527   1.386   2.119
63438SOL     OW92152   8.722  14.502  11.795
63438SOL    HW192153   8.670  14.547  11.728
63438SOL    HW292154   8.804  14.480  11.750
63439SOL     OW92155   4.835   5.178   1.254
63439SOL    HW192156   4.740   5.167   1.248
63439SOL    HW292157   4.851   5.201   1.346
63440SOL     OW92158  14.152   0.568   0.612
63440SOL    HW192159  14.195   0.530   0.534
63440SOL    HW292160  14.094   0.635   0.577
63441SOL     OW92161   4.917   9.580   0.418
63441SOL    HW192162   4.957   9.645   0.359
63441SOL    HW292163   4.830   9.566   0.382
63442SOL     OW92164   7.795   3.470   1.227
63442SOL    HW192165   7.870   3.520   1.195
63442SOL    HW292166   7.721   3.531   1.223
63443SOL     OW92167   6.396   3.541   4.068
63443SOL    HW192168   6.444   3.458   4.074
63443SOL    HW292169   6.330   3.525   4.001
63444SOL     OW92170   6.584  11.046  10.353
63444SOL    HW192171   6.514  10.989  10.385
63444SOL    HW292172   6.664  11.010  10.394
63445SOL     OW92173   8.543  13.700   4.257
63445SOL    HW192174   8.488  13.740   4.324
63445SOL    HW292175   8.623  13.673   4.302
63446SOL     OW92176   1.000   9.305   8.363
63446SOL    HW192177   0.961   9.313   8.450
63446SOL    HW292178   1.015   9.211   8.352
63447SOL     OW92179   6.921   2.519   1.503
63447SOL    HW192180   6.867   2.498   1.580
63447SOL    HW292181   6.860   2.518   1.430
63448SOL     OW92182   8.765   9.336   6.418
63448SOL    HW192183   8.844   9.370   6.375
63448SOL    HW292184   8.797   9.301   6.502
63449SOL     OW92185   9.831  13.640   0.076
63449SOL    HW192186   9.755  13.689   0.044
63449SOL    HW292187   9.904  13.702   0.070
63450SOL     OW92188   1.085   5.858   9.076
63450SOL    HW192189   1.142   5.816   9.140
63450SOL    HW292190   1.138   5.929   9.040
63451SOL     OW92191   5.897   0.296   9.920
63451SOL    HW192192   5.811   0.262   9.895
63451SOL    HW292193   5.926   0.346   9.844
63452SOL     OW92194   8.780  13.746   1.537
63452SOL    HW192195   8.741  13.833   1.526
63452SOL    HW292196   8.871  13.758   1.512
63453SOL     OW92197  11.052   0.007   0.621
63453SOL    HW192198  11.126   0.024   0.678
63453SOL    HW292199  11.002   0.089   0.621
63454SOL     OW92200   5.983   2.932  13.578
63454SOL    HW192201   6.067   2.926  13.625
63454SOL    HW292202   6.008   2.949  13.487
63455SOL     OW92203  13.165   2.023   9.989
63455SOL    HW192204  13.178   2.116   9.970
63455SOL    HW292205  13.140   2.021  10.082
63456SOL     OW92206   6.599   9.991  11.430
63456SOL    HW192207   6.524  10.026  11.382
63456SOL    HW292208   6.569   9.985  11.520
63457SOL     OW92209  11.837   8.415   7.695
63457SOL    HW192210  11.746   8.396   7.673
63457SOL    HW292211  11.851   8.372   7.779
63458SOL     OW92212   8.001   2.276   6.971
63458SOL    HW192213   8.071   2.226   6.930
63458SOL    HW292214   8.046   2.347   7.018
63459SOL     OW92215   0.793   7.948   5.315
63459SOL    HW192216   0.716   7.919   5.363
63459SOL    HW292217   0.862   7.955   5.381
63460SOL     OW92218   9.465   5.362   1.229
63460SOL    HW192219   9.550   5.327   1.204
63460SOL    HW292220   9.474   5.457   1.222
63461SOL     OW92221   9.875   7.044  14.225
63461SOL    HW192222   9.927   6.969  14.193
63461SOL    HW292223   9.930   7.120  14.207
63462SOL     OW92224   5.717   9.874   6.755
63462SOL    HW192225   5.680   9.956   6.722
63462SOL    HW292226   5.786   9.902   6.815
63463SOL     OW92227   7.606   6.165   5.791
63463SOL    HW192228   7.591   6.071   5.786
63463SOL    HW292229   7.583   6.198   5.704
63464SOL     OW92230  12.079  13.425  14.612
63464SOL    HW192231  12.010  13.487  14.591
63464SOL    HW292232  12.048  13.380  14.691
63465SOL     OW92233   8.321  13.985   0.482
63465SOL    HW192234   8.411  14.015   0.468
63465SOL    HW292235   8.266  14.058   0.452
63466SOL     OW92236   0.605  10.253   3.935
63466SOL    HW192237   0.632  10.174   3.982
63466SOL    HW292238   0.554  10.303   3.999
63467SOL     OW92239   3.692  14.360   0.623
63467SOL    HW192240   3.631  14.288   0.631
63467SOL    HW292241   3.654  14.417   0.556
63468SOL     OW92242   3.615   8.864   2.624
63468SOL    HW192243   3.596   8.880   2.716
63468SOL    HW292244   3.630   8.951   2.587
63469SOL     OW92245   3.584   1.677   9.510
63469SOL    HW192246   3.598   1.657   9.417
63469SOL    HW292247   3.599   1.771   9.518
63470SOL     OW92248  14.193   3.395  11.129
63470SOL    HW192249  14.161   3.305  11.125
63470SOL    HW292250  14.248   3.404  11.051
63471SOL     OW92251   4.825  11.354   5.287
63471SOL    HW192252   4.887  11.416   5.250
63471SOL    HW292253   4.755  11.348   5.222
63472SOL     OW92254  11.100   8.406   5.343
63472SOL    HW192255  11.007   8.393   5.357
63472SOL    HW292256  11.136   8.317   5.334
63473SOL     OW92257  13.590  12.561  14.400
63473SOL    HW192258  13.568  12.470  14.423
63473SOL    HW292259  13.642  12.592  14.474
63474SOL     OW92260   8.269   5.763  11.275
63474SOL    HW192261   8.214   5.836  11.304
63474SOL    HW292262   8.357   5.800  11.270
63475SOL     OW92263  11.992  13.608   0.040
63475SOL    HW192264  11.913  13.557   0.027
63475SOL    HW292265  12.011  13.599   0.133
63476SOL     OW92266   0.301   9.868  11.182
63476SOL    HW192267   0.380   9.901  11.226
63476SOL    HW292268   0.315   9.888  11.090
63477SOL     OW92269   6.464   1.533  14.547
63477SOL    HW192270   6.439   1.626  14.548
63477SOL    HW292271   6.442   1.503  14.459
63478SOL     OW92272  10.916   7.911   3.016
63478SOL    HW192273  10.894   7.961   3.095
63478SOL    HW292274  10.963   7.973   2.961
63479SOL     OW92275  11.870  10.774   7.982
63479SOL    HW192276  11.906  10.761   7.894
63479SOL    HW292277  11.789  10.724   7.983
63480SOL     OW92278   1.613  14.028   9.228
63480SOL    HW192279   1.652  14.114   9.237
63480SOL    HW292280   1.633  13.983   9.310
63481SOL     OW92281   5.157   1.787   3.715
63481SOL    HW192282   5.196   1.745   3.638
63481SOL    HW292283   5.156   1.880   3.694
63482SOL     OW92284   9.840   0.337   3.336
63482SOL    HW192285   9.871   0.385   3.412
63482SOL    HW292286   9.749   0.315   3.357
63483SOL     OW92287   8.895   4.168   1.986
63483SOL    HW192288   8.912   4.255   2.021
63483SOL    HW292289   8.982   4.128   1.976
63484SOL     OW92290  13.520   7.529   0.667
63484SOL    HW192291  13.585   7.593   0.693
63484SOL    HW292292  13.437   7.562   0.702
63485SOL     OW92293   4.336   6.937   6.876
63485SOL    HW192294   4.255   6.886   6.874
63485SOL    HW292295   4.398   6.886   6.823
63486SOL     OW92296   5.383   9.830  11.485
63486SOL    HW192297   5.373   9.832  11.580
63486SOL    HW292298   5.308   9.780  11.454
63487SOL     OW92299   8.903   8.618   5.439
63487SOL    HW192300   8.982   8.663   5.468
63487SOL    HW292301   8.863   8.584   5.519
63488SOL     OW92302   7.945   2.297  11.545
63488SOL    HW192303   7.972   2.206  11.534
63488SOL    HW292304   7.867   2.292  11.601
63489SOL     OW92305   8.342   9.880   2.423
63489SOL    HW192306   8.423   9.922   2.392
63489SOL    HW292307   8.368   9.789   2.441
63490SOL     OW92308  10.116  14.220  10.377
63490SOL    HW192309  10.150  14.297  10.424
63490SOL    HW292310  10.156  14.227  10.290
63491SOL     OW92311  12.147  11.564   5.941
63491SOL    HW192312  12.067  11.595   5.984
63491SOL    HW292313  12.116  11.516   5.865
63492SOL     OW92314   2.927   5.545   1.007
63492SOL    HW192315   2.870   5.589   1.070
63492SOL    HW292316   2.986   5.614   0.976
63493SOL     OW92317   3.449  14.538  12.658
63493SOL    HW192318   3.475  14.446  12.660
63493SOL    HW292319   3.530  14.586  12.676
63494SOL     OW92320  10.732   6.149   8.834
63494SOL    HW192321  10.719   6.123   8.743
63494SOL    HW292322  10.715   6.243   8.835
63495SOL     OW92323   5.407  13.125   6.201
63495SOL    HW192324   5.433  13.217   6.209
63495SOL    HW292325   5.353  13.109   6.278
63496SOL     OW92326  14.230   8.563   1.807
63496SOL    HW192327  14.303   8.606   1.851
63496SOL    HW292328  14.160   8.563   1.872
63497SOL     OW92329   4.284  14.429   9.958
63497SOL    HW192330   4.215  14.456   9.897
63497SOL    HW292331   4.272  14.334   9.967
63498SOL     OW92332  13.245   5.469   3.889
63498SOL    HW192333  13.167   5.523   3.877
63498SOL    HW292334  13.270   5.443   3.800
63499SOL     OW92335   2.243  10.563   3.929
63499SOL    HW192336   2.259  10.510   4.007
63499SOL    HW292337   2.288  10.646   3.947
63500SOL     OW92338   9.363  11.818  14.028
63500SOL    HW192339   9.275  11.796  13.997
63500SOL    HW292340   9.390  11.740  14.078
63501SOL     OW92341   3.442   0.938   1.588
63501SOL    HW192342   3.480   0.954   1.675
63501SOL    HW292343   3.513   0.960   1.527
63502SOL     OW92344   7.534  11.778   7.692
63502SOL    HW192345   7.567  11.778   7.602
63502SOL    HW292346   7.611  11.764   7.746
63503SOL     OW92347   0.950  10.264   4.426
63503SOL    HW192348   1.007  10.272   4.502
63503SOL    HW292349   0.965  10.345   4.377
63504SOL     OW92350   5.456   7.989   1.223
63504SOL    HW192351   5.549   8.005   1.238
63504SOL    HW292352   5.421   7.963   1.308
63505SOL     OW92353  14.697   0.726  11.744
63505SOL    HW192354  14.657   0.672  11.813
63505SOL    HW292355  14.773   0.675  11.715
63506SOL     OW92356   0.503   5.153   7.257
63506SOL    HW192357   0.429   5.160   7.317
63506SOL    HW292358   0.576   5.126   7.313
63507SOL     OW92359   7.332   4.965  13.643
63507SOL    HW192360   7.304   4.874  13.628
63507SOL    HW292361   7.252   5.010  13.671
63508SOL     OW92362   6.496  11.653   0.255
63508SOL    HW192363   6.407  11.676   0.280
63508SOL    HW292364   6.538  11.625   0.337
63509SOL     OW92365  13.619  11.395  11.752
63509SOL    HW192366  13.603  11.384  11.846
63509SOL    HW292367  13.534  11.415  11.715
63510SOL     OW92368  13.624   1.279   2.838
63510SOL    HW192369  13.660   1.362   2.807
63510SOL    HW292370  13.588   1.299   2.924
63511SOL     OW92371   7.338   3.585   2.791
63511SOL    HW192372   7.304   3.549   2.709
63511SOL    HW292373   7.297   3.671   2.798
63512SOL     OW92374   0.593  14.224  13.775
63512SOL    HW192375   0.651  14.261  13.709
63512SOL    HW292376   0.643  14.228  13.857
63513SOL     OW92377   8.855  12.245  14.409
63513SOL    HW192378   8.909  12.241  14.330
63513SOL    HW292379   8.828  12.155  14.425
63514SOL     OW92380   3.965   1.447  10.259
63514SOL    HW192381   4.015   1.527  10.273
63514SOL    HW292382   3.879   1.477  10.229
63515SOL     OW92383   9.048  12.143   7.656
63515SOL    HW192384   9.127  12.162   7.707
63515SOL    HW292385   9.016  12.228   7.628
63516SOL     OW92386   9.798   9.788  13.111
63516SOL    HW192387   9.783   9.855  13.178
63516SOL    HW292388   9.889   9.802  13.083
63517SOL     OW92389   6.747   0.479   5.509
63517SOL    HW192390   6.696   0.557   5.527
63517SOL    HW292391   6.797   0.464   5.589
63518SOL     OW92392   0.014   2.369  13.207
63518SOL    HW192393  14.847   2.297  13.257
63518SOL    HW292394   0.065   2.417  13.273
63519SOL     OW92395  10.561   9.562   9.330
63519SOL    HW192396  10.524   9.507   9.261
63519SOL    HW292397  10.552   9.651   9.297
63520SOL     OW92398  11.951   2.292  10.383
63520SOL    HW192399  12.013   2.264  10.451
63520SOL    HW292400  11.988   2.374  10.350
63521SOL     OW92401   1.008  14.247   6.430
63521SOL    HW192402   0.985  14.162   6.393
63521SOL    HW292403   0.925  14.296   6.431
63522SOL     OW92404  12.124   8.132   4.576
63522SOL    HW192405  12.066   8.197   4.536
63522SOL    HW292406  12.189   8.185   4.624
63523SOL     OW92407   1.974   6.917   5.969
63523SOL    HW192408   2.052   6.875   6.004
63523SOL    HW292409   1.985   7.010   5.989
63524SOL     OW92410   4.200  11.392   0.934
63524SOL    HW192411   4.263  11.333   0.975
63524SOL    HW292412   4.131  11.335   0.902
63525SOL     OW92413   5.451   2.498   5.155
63525SOL    HW192414   5.429   2.476   5.245
63525SOL    HW292415   5.400   2.577   5.136
63526SOL     OW92416   9.853  12.562   2.958
63526SOL    HW192417   9.879  12.593   2.871
63526SOL    HW292418   9.931  12.571   3.011
63527SOL     OW92419  11.905   2.352   7.838
63527SOL    HW192420  11.991   2.355   7.881
63527SOL    HW292421  11.843   2.340   7.910
63528SOL     OW92422  10.308  10.333  13.895
63528SOL    HW192423  10.268  10.287  13.822
63528SOL    HW292424  10.357  10.405  13.855
63529SOL     OW92425   0.642   3.327   2.712
63529SOL    HW192426   0.642   3.375   2.795
63529SOL    HW292427   0.619   3.393   2.646
63530SOL     OW92428   0.830  11.181   0.862
63530SOL    HW192429   0.825  11.262   0.914
63530SOL    HW292430   0.922  11.175   0.836
63531SOL     OW92431   5.189  10.214   7.218
63531SOL    HW192432   5.149  10.294   7.184
63531SOL    HW292433   5.117  10.169   7.263
63532SOL     OW92434   8.312  11.122  12.653
63532SOL    HW192435   8.349  11.049  12.702
63532SOL    HW292436   8.262  11.081  12.582
63533SOL     OW92437   7.197   8.557   3.875
63533SOL    HW192438   7.186   8.590   3.786
63533SOL    HW292439   7.164   8.626   3.931
63534SOL     OW92440   1.581   9.276   4.935
63534SOL    HW192441   1.577   9.264   4.840
63534SOL    HW292442   1.665   9.319   4.951
63535SOL     OW92443   4.755  11.222   0.050
63535SOL    HW192444   4.753  11.154   0.118
63535SOL    HW292445   4.665  11.225   0.018
63536SOL     OW92446  12.845   4.647  12.694
63536SOL    HW192447  12.791   4.686  12.762
63536SOL    HW292448  12.794   4.659  12.613
63537SOL     OW92449  13.298   1.569  13.483
63537SOL    HW192450  13.347   1.501  13.528
63537SOL    HW292451  13.333   1.569  13.393
63538SOL     OW92452  13.676   6.015   9.059
63538SOL    HW192453  13.680   6.083   8.993
63538SOL    HW292454  13.767   5.996   9.080
63539SOL     OW92455   5.573   1.022   7.971
63539SOL    HW192456   5.522   1.012   8.051
63539SOL    HW292457   5.662   0.995   7.995
63540SOL     OW92458  12.471   0.732   2.960
63540SOL    HW192459  12.386   0.696   2.934
63540SOL    HW292460  12.506   0.769   2.880
63541SOL     OW92461   1.158  12.737   1.403
63541SOL    HW192462   1.246  12.749   1.366
63541SOL    HW292463   1.151  12.643   1.418
63542SOL     OW92464  13.887   5.679  13.023
63542SOL    HW192465  13.907   5.691  12.930
63542SOL    HW292466  13.871   5.585  13.033
63543SOL     OW92467  14.784   1.801  13.863
63543SOL    HW192468  14.815   1.827  13.775
63543SOL    HW292469  14.761   1.884  13.905
63544SOL     OW92470   3.482   3.632   5.006
63544SOL    HW192471   3.416   3.626   5.075
63544SOL    HW292472   3.477   3.548   4.960
63545SOL     OW92473  12.823  14.801   8.230
63545SOL    HW192474  12.759  14.864   8.262
63545SOL    HW292475  12.805  14.793   8.136
63546SOL     OW92476   5.453  11.586   0.445
63546SOL    HW192477   5.432  11.525   0.375
63546SOL    HW292478   5.429  11.672   0.410
63547SOL     OW92479  13.759  13.996  11.015
63547SOL    HW192480  13.804  14.074  11.048
63547SOL    HW292481  13.670  14.003  11.049
63548SOL     OW92482   8.334   1.993   3.733
63548SOL    HW192483   8.313   1.942   3.811
63548SOL    HW292484   8.416   1.955   3.701
63549SOL     OW92485   8.744   7.786  14.308
63549SOL    HW192486   8.739   7.830  14.393
63549SOL    HW292487   8.658   7.800  14.268
63550SOL     OW92488   4.855   5.082   9.630
63550SOL    HW192489   4.894   5.152   9.683
63550SOL    HW292490   4.828   5.125   9.550
63551SOL     OW92491  11.674   7.490   4.151
63551SOL    HW192492  11.616   7.416   4.168
63551SOL    HW292493  11.661   7.510   4.059
63552SOL     OW92494   3.261   0.712  13.090
63552SOL    HW192495   3.329   0.670  13.037
63552SOL    HW292496   3.236   0.645  13.154
63553SOL     OW92497   5.464   1.289  11.884
63553SOL    HW192498   5.549   1.320  11.915
63553SOL    HW292499   5.449   1.337  11.802
63554SOL     OW92500   4.724   2.057   7.013
63554SOL    HW192501   4.735   2.118   6.940
63554SOL    HW292502   4.693   2.111   7.085
63555SOL     OW92503   4.161  12.680   7.144
63555SOL    HW192504   4.192  12.705   7.057
63555SOL    HW292505   4.241  12.670   7.196
63556SOL     OW92506  12.475   1.213  14.332
63556SOL    HW192507  12.440   1.124  14.325
63556SOL    HW292508  12.567   1.205  14.309
63557SOL     OW92509   2.379  11.636  11.848
63557SOL    HW192510   2.450  11.574  11.864
63557SOL    HW292511   2.384  11.654  11.754
63558SOL     OW92512   3.734  11.067   8.576
63558SOL    HW192513   3.680  11.013   8.518
63558SOL    HW292514   3.704  11.157   8.559
63559SOL     OW92515   0.132   5.167  10.973
63559SOL    HW192516   0.052   5.116  10.965
63559SOL    HW292517   0.124   5.234  10.905
63560SOL     OW92518   9.271  13.496  10.889
63560SOL    HW192519   9.357  13.537  10.878
63560SOL    HW292520   9.252  13.505  10.983
63561SOL     OW92521  11.526   9.285   2.179
63561SOL    HW192522  11.584   9.268   2.105
63561SOL    HW292523  11.521   9.201   2.225
63562SOL     OW92524   7.165   3.883  14.620
63562SOL    HW192525   7.139   3.919  14.535
63562SOL    HW292526   7.094   3.908  14.679
63563SOL     OW92527   6.288  10.640   5.855
63563SOL    HW192528   6.360  10.629   5.917
63563SOL    HW292529   6.329  10.636   5.769
63564SOL     OW92530   0.306  12.136  11.521
63564SOL    HW192531   0.256  12.196  11.466
63564SOL    HW292532   0.275  12.154  11.610
63565SOL     OW92533   8.477   8.209   2.034
63565SOL    HW192534   8.507   8.214   1.943
63565SOL    HW292535   8.392   8.254   2.033
63566SOL     OW92536   6.360   2.328   1.658
63566SOL    HW192537   6.307   2.391   1.609
63566SOL    HW292538   6.388   2.375   1.736
63567SOL     OW92539   7.802   3.688   3.552
63567SOL    HW192540   7.896   3.689   3.535
63567SOL    HW292541   7.769   3.614   3.501
63568SOL     OW92542   8.009   9.932   5.435
63568SOL    HW192543   7.926   9.913   5.392
63568SOL    HW292544   8.043  10.009   5.389
63569SOL     OW92545   0.456   5.703   1.078
63569SOL    HW192546   0.386   5.722   1.016
63569SOL    HW292547   0.412   5.657   1.150
63570SOL     OW92548   7.323   9.860  13.289
63570SOL    HW192549   7.409   9.897  13.305
63570SOL    HW292550   7.267   9.901  13.355
63571SOL     OW92551   9.386   5.981  14.135
63571SOL    HW192552   9.334   6.017  14.062
63571SOL    HW292553   9.378   6.046  14.204
63572SOL     OW92554   3.850  14.402   5.826
63572SOL    HW192555   3.816  14.347   5.755
63572SOL    HW292556   3.945  14.406   5.811
63573SOL     OW92557  10.111   2.722   7.054
63573SOL    HW192558  10.173   2.784   7.016
63573SOL    HW292559  10.122   2.733   7.148
63574SOL     OW92560  10.408  10.177   8.905
63574SOL    HW192561  10.400  10.100   8.848
63574SOL    HW292562  10.339  10.236   8.876
63575SOL     OW92563   1.239   0.918  14.223
63575SOL    HW192564   1.148   0.905  14.250
63575SOL    HW292565   1.271   0.990  14.277
63576SOL     OW92566   0.146   1.708   4.657
63576SOL    HW192567   0.160   1.687   4.565
63576SOL    HW292568   0.092   1.635   4.690
63577SOL     OW92569   2.763   9.836   8.415
63577SOL    HW192570   2.677   9.797   8.432
63577SOL    HW292571   2.773   9.835   8.320
63578SOL     OW92572  13.583   3.699  10.293
63578SOL    HW192573  13.666   3.695  10.245
63578SOL    HW292574  13.517   3.675  10.229
63579SOL     OW92575   3.085   1.713  13.511
63579SOL    HW192576   3.094   1.804  13.537
63579SOL    HW292577   3.005   1.684  13.555
63580SOL     OW92578   3.695   6.293   8.502
63580SOL    HW192579   3.732   6.315   8.587
63580SOL    HW292580   3.606   6.329   8.504
63581SOL     OW92581  11.853   6.653   1.889
63581SOL    HW192582  11.807   6.571   1.875
63581SOL    HW292583  11.824   6.709   1.816
63582SOL     OW92584   2.826  10.663   1.878
63582SOL    HW192585   2.886  10.736   1.894
63582SOL    HW292586   2.739  10.701   1.883
63583SOL     OW92587   8.307   8.547  13.977
63583SOL    HW192588   8.261   8.504  13.905
63583SOL    HW292589   8.329   8.634  13.943
63584SOL     OW92590  14.815   9.743   1.904
63584SOL    HW192591  14.740   9.802   1.918
63584SOL    HW292592   0.015   9.801   1.883
63585SOL     OW92593   5.069  10.676   6.684
63585SOL    HW192594   5.091  10.615   6.614
63585SOL    HW292595   5.131  10.654   6.754
63586SOL     OW92596   8.413   7.443   7.231
63586SOL    HW192597   8.396   7.486   7.315
63586SOL    HW292598   8.386   7.352   7.245
63587SOL     OW92599   5.883   9.311   0.055
63587SOL    HW192600   5.962   9.267   0.086
63587SOL    HW292601   5.859   9.370   0.126
63588SOL     OW92602  12.534  10.457  14.660
63588SOL    HW192603  12.491  10.450  14.745
63588SOL    HW292604  12.544  10.366  14.631
63589SOL     OW92605  10.091  10.046  11.993
63589SOL    HW192606  10.133   9.963  12.014
63589SOL    HW292607  10.019  10.023  11.934
63590SOL     OW92608   9.701  13.966   8.145
63590SOL    HW192609   9.689  14.060   8.161
63590SOL    HW292610   9.627  13.924   8.190
63591SOL     OW92611   9.037  14.336  10.315
63591SOL    HW192612   9.065  14.244  10.322
63591SOL    HW292613   8.982  14.350  10.392
63592SOL     OW92614  11.734   9.433   7.700
63592SOL    HW192615  11.811   9.384   7.671
63592SOL    HW292616  11.733   9.511   7.645
63593SOL     OW92617   8.370   3.272  13.614
63593SOL    HW192618   8.353   3.328  13.690
63593SOL    HW292619   8.444   3.314  13.571
63594SOL     OW92620   5.153  10.052   2.971
63594SOL    HW192621   5.122  10.092   3.052
63594SOL    HW292622   5.224  10.109   2.942
63595SOL     OW92623   4.280   3.207  10.981
63595SOL    HW192624   4.369   3.230  11.008
63595SOL    HW292625   4.276   3.112  10.987
63596SOL     OW92626   8.544   0.804   4.533
63596SOL    HW192627   8.515   0.738   4.470
63596SOL    HW292628   8.470   0.866   4.538
63597SOL     OW92629  13.407   4.166   6.504
63597SOL    HW192630  13.483   4.187   6.449
63597SOL    HW292631  13.390   4.074   6.486
63598SOL     OW92632   4.261   4.575  14.381
63598SOL    HW192633   4.329   4.591  14.315
63598SOL    HW292634   4.294   4.618  14.460
63599SOL     OW92635   9.658   9.790  14.045
63599SOL    HW192636   9.733   9.851  14.046
63599SOL    HW292637   9.698   9.703  14.051
63600SOL     OW92638  10.515   0.025  14.207
63600SOL    HW192639  10.567   0.087  14.257
63600SOL    HW292640  10.432   0.070  14.190
63601SOL     OW92641   6.149   9.354  11.257
63601SOL    HW192642   6.134   9.322  11.346
63601SOL    HW292643   6.243   9.345  11.243
63602SOL     OW92644  13.952  13.996   8.043
63602SOL    HW192645  13.957  14.084   8.006
63602SOL    HW292646  13.917  14.009   8.132
63603SOL     OW92647   0.611   8.635   9.057
63603SOL    HW192648   0.559   8.685   9.119
63603SOL    HW292649   0.664   8.701   9.010
63604SOL     OW92650   5.719  10.401  11.521
63604SOL    HW192651   5.680  10.366  11.441
63604SOL    HW292652   5.735  10.494  11.501
63605SOL     OW92653   0.985   1.305   2.157
63605SOL    HW192654   1.004   1.224   2.109
63605SOL    HW292655   1.039   1.300   2.236
63606SOL     OW92656   7.711   5.884   5.157
63606SOL    HW192657   7.636   5.888   5.216
63606SOL    HW292658   7.777   5.940   5.198
63607SOL     OW92659   6.568  10.347   1.429
63607SOL    HW192660   6.623  10.420   1.401
63607SOL    HW292661   6.630  10.283   1.465
63608SOL     OW92662   9.954   1.120  10.595
63608SOL    HW192663  10.002   1.105  10.513
63608SOL    HW292664   9.934   1.033  10.628
63609SOL     OW92665   9.370  13.136   8.372
63609SOL    HW192666   9.360  13.217   8.422
63609SOL    HW292667   9.464  13.117   8.377
63610SOL     OW92668   1.937   5.784  13.954
63610SOL    HW192669   2.029   5.808  13.968
63610SOL    HW292670   1.905   5.849  13.891
63611SOL     OW92671   6.839   8.409   2.562
63611SOL    HW192672   6.865   8.415   2.654
63611SOL    HW292673   6.755   8.364   2.563
63612SOL     OW92674   8.732  12.510   5.410
63612SOL    HW192675   8.639  12.521   5.427
63612SOL    HW292676   8.773  12.514   5.496
63613SOL     OW92677  13.521   2.379   4.429
63613SOL    HW192678  13.536   2.405   4.519
63613SOL    HW292679  13.608   2.371   4.390
63614SOL     OW92680   7.081   0.265   5.430
63614SOL    HW192681   7.034   0.208   5.491
63614SOL    HW292682   7.013   0.322   5.394
63615SOL     OW92683  13.309   6.828  11.087
63615SOL    HW192684  13.237   6.769  11.068
63615SOL    HW292685  13.307   6.893  11.017
63616SOL     OW92686   4.077  11.331  11.608
63616SOL    HW192687   4.005  11.386  11.639
63616SOL    HW292688   4.043  11.241  11.615
63617SOL     OW92689   5.556  14.699  12.698
63617SOL    HW192690   5.545  14.789  12.669
63617SOL    HW292691   5.492  14.650  12.647
63618SOL     OW92692  13.345   5.014  14.694
63618SOL    HW192693  13.268   5.068  14.680
63618SOL    HW292694  13.339   4.987  14.786
63619SOL     OW92695   5.460  10.812   6.382
63619SOL    HW192696   5.548  10.836   6.412
63619SOL    HW292697   5.440  10.730   6.428
63620SOL     OW92698  12.050   6.693  10.799
63620SOL    HW192699  12.037   6.665  10.709
63620SOL    HW292700  11.962   6.701  10.835
63621SOL     OW92701  12.282   9.812   9.518
63621SOL    HW192702  12.373   9.839   9.518
63621SOL    HW292703  12.280   9.735   9.575
63622SOL     OW92704  12.629  13.774  14.205
63622SOL    HW192705  12.613  13.862  14.239
63622SOL    HW292706  12.592  13.776  14.116
63623SOL     OW92707  14.551  14.873   4.510
63623SOL    HW192708  14.641   0.023   4.532
63623SOL    HW292709  14.543  14.780   4.533
63624SOL     OW92710   8.889  12.541  11.387
63624SOL    HW192711   8.844  12.510  11.308
63624SOL    HW292712   8.906  12.461  11.438
63625SOL     OW92713  12.681  12.845  12.480
63625SOL    HW192714  12.599  12.891  12.460
63625SOL    HW292715  12.675  12.762  12.433
63626SOL     OW92716   8.577   1.255   4.561
63626SOL    HW192717   8.568   1.349   4.580
63626SOL    HW292718   8.665   1.233   4.592
63627SOL     OW92719   8.215   8.681   0.488
63627SOL    HW192720   8.216   8.617   0.417
63627SOL    HW292721   8.165   8.755   0.453
63628SOL     OW92722   5.867  13.405   9.427
63628SOL    HW192723   5.844  13.468   9.496
63628SOL    HW292724   5.914  13.335   9.473
63629SOL     OW92725   1.409   7.246   4.395
63629SOL    HW192726   1.355   7.171   4.418
63629SOL    HW292727   1.390   7.311   4.463
63630SOL     OW92728   8.842   4.830   5.345
63630SOL    HW192729   8.892   4.886   5.286
63630SOL    HW292730   8.778   4.786   5.288
63631SOL     OW92731   7.811  10.130   4.651
63631SOL    HW192732   7.892  10.155   4.696
63631SOL    HW292733   7.756  10.208   4.655
63632SOL     OW92734   4.470   2.025   0.473
63632SOL    HW192735   4.433   2.087   0.535
63632SOL    HW292736   4.435   2.052   0.388
63633SOL     OW92737   0.857  12.732   5.719
63633SOL    HW192738   0.933  12.784   5.745
63633SOL    HW292739   0.884  12.691   5.637
63634SOL     OW92740   2.826   3.177  10.049
63634SOL    HW192741   2.745   3.165  10.099
63634SOL    HW292742   2.869   3.092  10.053
63635SOL     OW92743   1.997   7.719   5.011
63635SOL    HW192744   1.915   7.673   5.028
63635SOL    HW292745   2.056   7.690   5.080
63636SOL     OW92746   6.942  13.520   7.458
63636SOL    HW192747   6.935  13.433   7.498
63636SOL    HW292748   7.035  13.540   7.461
63637SOL     OW92749  14.227   1.548   1.294
63637SOL    HW192750  14.156   1.607   1.269
63637SOL    HW292751  14.302   1.606   1.309
63638SOL     OW92752   2.754  13.247   1.663
63638SOL    HW192753   2.714  13.296   1.591
63638SOL    HW292754   2.742  13.304   1.740
63639SOL     OW92755   0.842   1.830  11.734
63639SOL    HW192756   0.747   1.831  11.722
63639SOL    HW292757   0.856   1.868  11.821
63640SOL     OW92758   5.347   9.273   3.703
63640SOL    HW192759   5.378   9.346   3.757
63640SOL    HW292760   5.384   9.291   3.616
63641SOL     OW92761   2.124   7.153   8.588
63641SOL    HW192762   2.189   7.090   8.556
63641SOL    HW292763   2.162   7.239   8.568
63642SOL     OW92764  12.225  14.441   0.513
63642SOL    HW192765  12.308  14.451   0.559
63642SOL    HW292766  12.182  14.367   0.556
63643SOL     OW92767   9.136   0.779   3.967
63643SOL    HW192768   9.057   0.765   4.019
63643SOL    HW292769   9.176   0.858   4.004
63644SOL     OW92770   5.899   7.276   1.615
63644SOL    HW192771   5.972   7.295   1.557
63644SOL    HW292772   5.901   7.346   1.680
63645SOL     OW92773  10.087   3.757  12.596
63645SOL    HW192774  10.159   3.814  12.570
63645SOL    HW292775  10.011   3.791  12.550
63646SOL     OW92776  12.482   1.310  10.294
63646SOL    HW192777  12.566   1.287  10.256
63646SOL    HW292778  12.503   1.356  10.375
63647SOL     OW92779   5.712   1.074  13.248
63647SOL    HW192780   5.786   1.130  13.224
63647SOL    HW292781   5.700   1.089  13.341
63648SOL     OW92782   3.318   1.271  10.485
63648SOL    HW192783   3.283   1.349  10.528
63648SOL    HW292784   3.350   1.217  10.557
63649SOL     OW92785   3.637   8.140   8.191
63649SOL    HW192786   3.650   8.232   8.166
63649SOL    HW292787   3.726   8.108   8.208
63650SOL     OW92788  12.322  11.817  14.795
63650SOL    HW192789  12.256  11.759  14.757
63650SOL    HW292790  12.272  11.881  14.846
63651SOL     OW92791   3.826  13.456   8.429
63651SOL    HW192792   3.743  13.499   8.411
63651SOL    HW292793   3.851  13.488   8.516
63652SOL     OW92794   3.452   1.892  10.690
63652SOL    HW192795   3.459   1.959  10.623
63652SOL    HW292796   3.365   1.853  10.677
63653SOL     OW92797   1.158  11.671   9.812
63653SOL    HW192798   1.104  11.722   9.874
63653SOL    HW292799   1.210  11.737   9.767
63654SOL     OW92800   8.744  13.865  13.176
63654SOL    HW192801   8.682  13.937  13.167
63654SOL    HW292802   8.709  13.813  13.249
63655SOL     OW92803  13.417   2.391   5.697
63655SOL    HW192804  13.499   2.418   5.738
63655SOL    HW292805  13.391   2.312   5.744
63656SOL     OW92806  14.820   7.876   0.788
63656SOL    HW192807  14.843   7.954   0.738
63656SOL    HW292808  14.777   7.909   0.866
63657SOL     OW92809  13.352  10.113   3.432
63657SOL    HW192810  13.335  10.207   3.440
63657SOL    HW292811  13.268  10.075   3.408
63658SOL     OW92812   4.611   4.309   5.153
63658SOL    HW192813   4.534   4.256   5.176
63658SOL    HW292814   4.674   4.246   5.118
63659SOL     OW92815  10.662  14.359   1.675
63659SOL    HW192816  10.626  14.279   1.715
63659SOL    HW292817  10.623  14.430   1.726
63660SOL     OW92818   6.165   3.027   6.391
63660SOL    HW192819   6.244   3.001   6.344
63660SOL    HW292820   6.149   2.955   6.453
63661SOL     OW92821  11.470   0.177   8.491
63661SOL    HW192822  11.408   0.221   8.433
63661SOL    HW292823  11.456   0.218   8.576
63662SOL     OW92824  14.760   8.978   9.200
63662SOL    HW192825  14.722   9.049   9.253
63662SOL    HW292826  14.850   9.007   9.183
63663SOL     OW92827  11.843   1.594   1.334
63663SOL    HW192828  11.922   1.590   1.280
63663SOL    HW292829  11.875   1.618   1.421
63664SOL     OW92830  13.457   5.468  12.195
63664SOL    HW192831  13.479   5.398  12.134
63664SOL    HW292832  13.512   5.541  12.168
63665SOL     OW92833   1.795   7.587   6.474
63665SOL    HW192834   1.763   7.657   6.417
63665SOL    HW292835   1.783   7.620   6.563
63666SOL     OW92836   6.308   7.136   7.504
63666SOL    HW192837   6.212   7.135   7.509
63666SOL    HW292838   6.336   7.143   7.595
63667SOL     OW92839   7.341  12.656   3.097
63667SOL    HW192840   7.362  12.584   3.157
63667SOL    HW292841   7.425  12.701   3.083
63668SOL     OW92842  12.733  14.236  11.060
63668SOL    HW192843  12.678  14.185  11.119
63668SOL    HW292844  12.764  14.309  11.113
63669SOL     OW92845  12.591   0.522   4.807
63669SOL    HW192846  12.660   0.498   4.869
63669SOL    HW292847  12.630   0.591   4.753
63670SOL     OW92848   6.998   4.866  14.560
63670SOL    HW192849   6.932   4.811  14.604
63670SOL    HW292850   6.979   4.854  14.466
63671SOL     OW92851   9.679   1.284  10.172
63671SOL    HW192852   9.668   1.365  10.123
63671SOL    HW292853   9.598   1.274  10.221
63672SOL     OW92854   1.082   0.927   6.570
63672SOL    HW192855   1.030   0.918   6.649
63672SOL    HW292856   1.166   0.961   6.601
63673SOL     OW92857   5.988   0.700  13.423
63673SOL    HW192858   6.021   0.667  13.340
63673SOL    HW292859   5.892   0.692  13.415
63674SOL     OW92860  13.033   1.817   7.755
63674SOL    HW192861  13.012   1.909   7.773
63674SOL    HW292862  13.128   1.813   7.754
63675SOL     OW92863   0.396   1.801  14.814
63675SOL    HW192864   0.401   1.706  14.804
63675SOL    HW292865   0.354   1.814   0.026
63676SOL     OW92866   8.842  14.576  12.824
63676SOL    HW192867   8.849  14.483  12.845
63676SOL    HW292868   8.766  14.582  12.767
63677SOL     OW92869   2.807  14.491   4.835
63677SOL    HW192870   2.864  14.438   4.779
63677SOL    HW292871   2.865  14.530   4.900
63678SOL     OW92872   8.949  10.577  13.301
63678SOL    HW192873   8.966  10.492  13.341
63678SOL    HW292874   8.966  10.640  13.371
63679SOL     OW92875   9.887   0.512   4.225
63679SOL    HW192876   9.827   0.584   4.244
63679SOL    HW292877   9.875   0.452   4.299
63680SOL     OW92878  13.095   3.104  10.187
63680SOL    HW192879  13.003   3.119  10.165
63680SOL    HW292880  13.095   3.022  10.237
63681SOL     OW92881  10.184  14.451  12.318
63681SOL    HW192882  10.262  14.402  12.294
63681SOL    HW292883  10.142  14.399  12.386
63682SOL     OW92884   0.271  14.864   0.055
63682SOL    HW192885   0.248  14.866  14.836
63682SOL    HW292886   0.357  14.821   0.058
63683SOL     OW92887  12.535  11.357   9.657
63683SOL    HW192888  12.598  11.423   9.628
63683SOL    HW292889  12.462  11.366   9.596
63684SOL     OW92890   1.854   0.003   9.136
63684SOL    HW192891   1.819  14.787   9.144
63684SOL    HW292892   1.830   0.047   9.218
63685SOL     OW92893   3.176   7.542  14.422
63685SOL    HW192894   3.194   7.553  14.516
63685SOL    HW292895   3.190   7.629  14.385
63686SOL     OW92896   5.352   2.531   0.415
63686SOL    HW192897   5.293   2.509   0.487
63686SOL    HW292898   5.396   2.611   0.444
63687SOL     OW92899   6.190  13.727   4.871
63687SOL    HW192900   6.260  13.786   4.843
63687SOL    HW292901   6.207  13.712   4.964
63688SOL     OW92902  11.614  12.852   9.790
63688SOL    HW192903  11.633  12.943   9.765
63688SOL    HW292904  11.700  12.815   9.810
63689SOL     OW92905  13.182  12.576   0.876
63689SOL    HW192906  13.147  12.488   0.886
63689SOL    HW292907  13.144  12.608   0.795
63690SOL     OW92908  13.224  12.729   8.755
63690SOL    HW192909  13.216  12.634   8.748
63690SOL    HW292910  13.136  12.758   8.782
63691SOL     OW92911  13.942   8.018   1.186
63691SOL    HW192912  14.004   8.062   1.244
63691SOL    HW292913  13.909   8.087   1.129
63692SOL     OW92914   2.257   4.164   9.778
63692SOL    HW192915   2.181   4.108   9.762
63692SOL    HW292916   2.258   4.225   9.704
63693SOL     OW92917  14.009   5.401   7.717
63693SOL    HW192918  13.993   5.344   7.641
63693SOL    HW292919  13.940   5.379   7.779
63694SOL     OW92920  12.491   4.396   8.627
63694SOL    HW192921  12.586   4.407   8.622
63694SOL    HW292922  12.467   4.433   8.713
63695SOL     OW92923   1.322  10.706  12.218
63695SOL    HW192924   1.377  10.783  12.209
63695SOL    HW292925   1.300  10.682  12.127
63696SOL     OW92926   6.134  12.141  11.165
63696SOL    HW192927   6.102  12.074  11.105
63696SOL    HW292928   6.113  12.224  11.122
63697SOL     OW92929  14.613  14.102   8.129
63697SOL    HW192930  14.562  14.149   8.063
63697SOL    HW292931  14.604  14.010   8.105
63698SOL     OW92932   7.548   3.098   8.440
63698SOL    HW192933   7.600   3.069   8.515
63698SOL    HW292934   7.481   3.155   8.478
63699SOL     OW92935  12.701   3.225   0.634
63699SOL    HW192936  12.665   3.245   0.720
63699SOL    HW292937  12.645   3.273   0.573
63700SOL     OW92938   3.457   4.900  13.283
63700SOL    HW192939   3.420   4.984  13.309
63700SOL    HW292940   3.544   4.920  13.249
63701SOL     OW92941   8.911   6.592   5.330
63701SOL    HW192942   8.919   6.655   5.258
63701SOL    HW292943   8.995   6.595   5.374
63702SOL     OW92944   0.025  12.136   6.903
63702SOL    HW192945   0.057  12.203   6.964
63702SOL    HW292946   0.006  12.185   6.822
63703SOL     OW92947   6.098  13.490  12.904
63703SOL    HW192948   6.161  13.497  12.975
63703SOL    HW292949   6.063  13.578  12.894
63704SOL     OW92950   9.681  11.247   6.661
63704SOL    HW192951   9.713  11.294   6.738
63704SOL    HW292952   9.670  11.315   6.594
63705SOL     OW92953  12.046  13.009  14.229
63705SOL    HW192954  12.045  12.921  14.191
63705SOL    HW292955  12.089  12.998  14.314
63706SOL     OW92956  14.024  10.962   7.522
63706SOL    HW192957  13.964  10.907   7.571
63706SOL    HW292958  14.049  11.031   7.583
63707SOL     OW92959   3.254  13.174  10.249
63707SOL    HW192960   3.166  13.143  10.227
63707SOL    HW292961   3.307  13.154  10.172
63708SOL     OW92962  13.132   1.579   0.673
63708SOL    HW192963  13.072   1.526   0.620
63708SOL    HW292964  13.079   1.655   0.700
63709SOL     OW92965  12.614   4.560   0.723
63709SOL    HW192966  12.607   4.655   0.714
63709SOL    HW292967  12.524   4.528   0.717
63710SOL     OW92968   3.030   2.346   0.976
63710SOL    HW192969   3.068   2.361   1.063
63710SOL    HW292970   3.106   2.338   0.918
63711SOL     OW92971   1.689   1.545  12.457
63711SOL    HW192972   1.751   1.484  12.497
63711SOL    HW292973   1.603   1.510  12.480
63712SOL     OW92974   8.590   2.956   3.813
63712SOL    HW192975   8.499   2.926   3.808
63712SOL    HW292976   8.613   2.978   3.723
63713SOL     OW92977  14.784  13.750  14.109
63713SOL    HW192978  14.857  13.735  14.049
63713SOL    HW292979  14.706  13.745  14.055
63714SOL     OW92980   6.088  12.898   0.722
63714SOL    HW192981   6.136  12.822   0.756
63714SOL    HW292982   6.011  12.906   0.778
63715SOL     OW92983   6.773  13.552  11.757
63715SOL    HW192984   6.722  13.485  11.801
63715SOL    HW292985   6.754  13.633  11.805
63716SOL     OW92986   6.247   1.512  11.224
63716SOL    HW192987   6.328   1.543  11.264
63716SOL    HW292988   6.218   1.585  11.169
63717SOL     OW92989   6.734   1.885   9.379
63717SOL    HW192990   6.712   1.831   9.303
63717SOL    HW292991   6.677   1.851   9.449
63718SOL     OW92992   0.876   0.857   1.605
63718SOL    HW192993   0.862   0.815   1.520
63718SOL    HW292994   0.864   0.950   1.587
63719SOL     OW92995  12.303   8.201  11.352
63719SOL    HW192996  12.292   8.263  11.279
63719SOL    HW292997  12.363   8.135  11.318
63720SOL     OW92998   9.112   7.600   0.963
63720SOL    HW192999   9.117   7.544   1.041
63720SOL    HW293000   9.158   7.551   0.895
63721SOL     OW93001   7.506   8.577   3.321
63721SOL    HW193002   7.541   8.576   3.232
63721SOL    HW293003   7.582   8.595   3.376
63722SOL     OW93004   7.048   5.922   9.399
63722SOL    HW193005   7.088   5.973   9.328
63722SOL    HW293006   7.013   5.988   9.459
63723SOL     OW93007   6.332   1.070  12.697
63723SOL    HW193008   6.345   1.085  12.604
63723SOL    HW293009   6.396   1.126  12.740
63724SOL     OW93010   2.913  10.025  13.116
63724SOL    HW193011   2.870  10.016  13.201
63724SOL    HW293012   3.003  10.049  13.136
63725SOL     OW93013   3.294   6.766   9.024
63725SOL    HW193014   3.287   6.798   9.114
63725SOL    HW293015   3.329   6.678   9.032
63726SOL     OW93016  10.130  11.143   4.676
63726SOL    HW193017  10.108  11.220   4.625
63726SOL    HW293018  10.126  11.070   4.614
63727SOL     OW93019  11.792   2.304   5.572
63727SOL    HW193020  11.886   2.307   5.590
63727SOL    HW293021  11.760   2.229   5.623
63728SOL     OW93022  10.655   6.615   2.513
63728SOL    HW193023  10.703   6.661   2.582
63728SOL    HW293024  10.701   6.637   2.433
63729SOL     OW93025   9.926   6.175   7.658
63729SOL    HW193026   9.873   6.113   7.607
63729SOL    HW293027   9.871   6.253   7.665
63730SOL     OW93028  11.151   3.363   1.961
63730SOL    HW193029  11.075   3.402   1.918
63730SOL    HW293030  11.185   3.300   1.897
63731SOL     OW93031   6.108   1.086   8.361
63731SOL    HW193032   6.158   1.134   8.294
63731SOL    HW293033   6.159   1.099   8.442
63732SOL     OW93034   6.615   6.137   4.645
63732SOL    HW193035   6.602   6.169   4.734
63732SOL    HW293036   6.690   6.078   4.651
63733SOL     OW93037   0.714  12.184   0.159
63733SOL    HW193038   0.647  12.204   0.094
63733SOL    HW293039   0.730  12.267   0.204
63734SOL     OW93040   4.208   1.991  12.978
63734SOL    HW193041   4.155   1.913  12.998
63734SOL    HW293042   4.145   2.054  12.944
63735SOL     OW93043   5.250   2.804   6.744
63735SOL    HW193044   5.302   2.784   6.666
63735SOL    HW293045   5.206   2.886   6.724
63736SOL     OW93046   8.283  11.139  11.914
63736SOL    HW193047   8.326  11.169  11.834
63736SOL    HW293048   8.354  11.121  11.975
63737SOL     OW93049   4.738  13.857   6.383
63737SOL    HW193050   4.701  13.778   6.343
63737SOL    HW293051   4.818  13.874   6.333
63738SOL     OW93052  13.389   9.211   7.256
63738SOL    HW193053  13.304   9.242   7.225
63738SOL    HW293054  13.404   9.260   7.337
63739SOL     OW93055  13.860   7.634   7.165
63739SOL    HW193056  13.852   7.722   7.201
63739SOL    HW293057  13.853   7.645   7.070
63740SOL     OW93058   6.611  12.278  12.584
63740SOL    HW193059   6.600  12.371  12.563
63740SOL    HW293060   6.551  12.263  12.658
63741SOL     OW93061  13.250  10.531   2.171
63741SOL    HW193062  13.259  10.615   2.125
63741SOL    HW293063  13.242  10.556   2.264
63742SOL     OW93064  12.913   6.115   2.746
63742SOL    HW193065  12.984   6.110   2.810
63742SOL    HW293066  12.932   6.192   2.694
63743SOL     OW93067   2.139  10.883   6.752
63743SOL    HW193068   2.099  10.957   6.797
63743SOL    HW293069   2.204  10.923   6.694
63744SOL     OW93070  12.718   9.404   5.901
63744SOL    HW193071  12.686   9.369   5.818
63744SOL    HW293072  12.648   9.461   5.932
63745SOL     OW93073  14.015   3.343   1.461
63745SOL    HW193074  14.048   3.323   1.549
63745SOL    HW293075  14.093   3.346   1.406
63746SOL     OW93076   1.004   5.802  11.767
63746SOL    HW193077   0.989   5.712  11.736
63746SOL    HW293078   1.008   5.794  11.862
63747SOL     OW93079   4.160   5.637  11.485
63747SOL    HW193080   4.183   5.650  11.577
63747SOL    HW293081   4.109   5.556  11.484
63748SOL     OW93082   7.796   3.985   2.830
63748SOL    HW193083   7.862   4.029   2.777
63748SOL    HW293084   7.789   4.039   2.908
63749SOL     OW93085   2.037   3.462  10.909
63749SOL    HW193086   2.076   3.475  10.996
63749SOL    HW293087   2.109   3.427  10.856
63750SOL     OW93088   5.795   1.574   0.520
63750SOL    HW193089   5.768   1.509   0.585
63750SOL    HW293090   5.829   1.647   0.573
63751SOL     OW93091   6.493   1.815  10.037
63751SOL    HW193092   6.502   1.907  10.013
63751SOL    HW293093   6.482   1.816  10.133
63752SOL     OW93094   2.854  13.347  12.711
63752SOL    HW193095   2.772  13.303  12.687
63752SOL    HW293096   2.921  13.280  12.697
63753SOL     OW93097   6.158   1.096   6.174
63753SOL    HW193098   6.181   1.110   6.266
63753SOL    HW293099   6.174   1.003   6.159
63754SOL     OW93100  10.450   8.632   9.749
63754SOL    HW193101  10.507   8.692   9.701
63754SOL    HW293102  10.364   8.645   9.711
63755SOL     OW93103   4.579   0.317   4.041
63755SOL    HW193104   4.620   0.402   4.021
63755SOL    HW293105   4.627   0.284   4.116
63756SOL     OW93106   6.293   1.511   7.078
63756SOL    HW193107   6.212   1.462   7.090
63756SOL    HW293108   6.363   1.450   7.101
63757SOL     OW93109  14.190   8.641   1.282
63757SOL    HW193110  14.102   8.663   1.251
63757SOL    HW293111  14.176   8.599   1.367
63758SOL     OW93112  11.556  13.516  11.714
63758SOL    HW193113  11.632  13.549  11.666
63758SOL    HW293114  11.573  13.422  11.724
63759SOL     OW93115  13.170  11.303   8.842
63759SOL    HW193116  13.228  11.268   8.775
63759SOL    HW293117  13.089  11.325   8.795
63760SOL     OW93118   4.209   9.476  12.469
63760SOL    HW193119   4.195   9.408  12.404
63760SOL    HW293120   4.287   9.447  12.517
63761SOL     OW93121   1.667   8.279   6.119
63761SOL    HW193122   1.727   8.336   6.071
63761SOL    HW293123   1.723   8.226   6.174
63762SOL     OW93124   6.175   7.904   8.763
63762SOL    HW193125   6.237   7.894   8.835
63762SOL    HW293126   6.210   7.848   8.693
63763SOL     OW93127   4.273  13.569   3.558
63763SOL    HW193128   4.208  13.509   3.595
63763SOL    HW293129   4.273  13.644   3.618
63764SOL     OW93130   9.963   6.753  11.316
63764SOL    HW193131  10.020   6.830  11.326
63764SOL    HW293132  10.024   6.679  11.308
63765SOL     OW93133  13.872   4.816   3.710
63765SOL    HW193134  13.833   4.873   3.777
63765SOL    HW293135  13.930   4.873   3.660
63766SOL     OW93136  10.408   2.346  10.897
63766SOL    HW193137  10.382   2.319  10.809
63766SOL    HW293138  10.326   2.373  10.939
63767SOL     OW93139   4.856   0.007  13.058
63767SOL    HW193140   4.869   0.099  13.034
63767SOL    HW293141   4.890  14.831  12.983
63768SOL     OW93142   3.168   5.655  13.110
63768SOL    HW193143   3.073   5.663  13.102
63768SOL    HW293144   3.181   5.590  13.180
63769SOL     OW93145   7.117   2.684   8.569
63769SOL    HW193146   7.032   2.652   8.537
63769SOL    HW293147   7.096   2.734   8.647
63770SOL     OW93148   2.226  10.040   0.646
63770SOL    HW193149   2.177  10.062   0.725
63770SOL    HW293150   2.290   9.975   0.675
63771SOL     OW93151   5.398   0.827  14.834
63771SOL    HW193152   5.482   0.793  14.804
63771SOL    HW293153   5.378   0.899  14.774
63772SOL     OW93154   4.627  14.246   2.609
63772SOL    HW193155   4.555  14.195   2.573
63772SOL    HW293156   4.661  14.295   2.534
63773SOL     OW93157   2.340   0.148   6.821
63773SOL    HW193158   2.332   0.108   6.735
63773SOL    HW293159   2.370   0.077   6.878
63774SOL     OW93160   6.645   8.569  14.588
63774SOL    HW193161   6.722   8.518  14.614
63774SOL    HW293162   6.662   8.657  14.623
63775SOL     OW93163  12.026   4.234   8.691
63775SOL    HW193164  12.047   4.219   8.783
63775SOL    HW293165  12.104   4.277   8.656
63776SOL     OW93166   6.208  12.191   5.903
63776SOL    HW193167   6.162  12.107   5.899
63776SOL    HW293168   6.193  12.231   5.818
63777SOL     OW93169   9.730   2.104  14.391
63777SOL    HW193170   9.715   2.090  14.297
63777SOL    HW293171   9.684   2.185  14.411
63778SOL     OW93172   4.196   3.894  12.636
63778SOL    HW193173   4.190   3.815  12.582
63778SOL    HW293174   4.266   3.946  12.596
63779SOL     OW93175  10.194   7.634   2.727
63779SOL    HW193176  10.114   7.675   2.696
63779SOL    HW293177  10.181   7.623   2.821
63780SOL     OW93178  13.399   9.933   4.743
63780SOL    HW193179  13.468   9.910   4.681
63780SOL    HW293180  13.399   9.861   4.807
63781SOL     OW93181   6.665   2.330   7.769
63781SOL    HW193182   6.607   2.308   7.696
63781SOL    HW293183   6.730   2.389   7.731
63782SOL     OW93184  10.575   1.645   2.861
63782SOL    HW193185  10.551   1.552   2.866
63782SOL    HW293186  10.497   1.687   2.824
63783SOL     OW93187   2.970  14.771   2.598
63783SOL    HW193188   3.003  14.714   2.528
63783SOL    HW293189   2.950  14.853   2.553
63784SOL     OW93190  12.910  13.301   2.788
63784SOL    HW193191  12.817  13.288   2.810
63784SOL    HW293192  12.946  13.347   2.864
63785SOL     OW93193   9.767   2.428   9.334
63785SOL    HW193194   9.681   2.469   9.349
63785SOL    HW293195   9.830   2.497   9.354
63786SOL     OW93196   9.019   2.596  11.254
63786SOL    HW193197   9.076   2.672  11.271
63786SOL    HW293198   8.943   2.633  11.209
63787SOL     OW93199   9.880  12.062   3.763
63787SOL    HW193200   9.906  12.142   3.808
63787SOL    HW293201   9.963  12.022   3.736
63788SOL     OW93202  14.410   7.954   7.446
63788SOL    HW193203  14.368   7.895   7.384
63788SOL    HW293204  14.460   8.014   7.391
63789SOL     OW93205   7.290   7.580  12.672
63789SOL    HW193206   7.381   7.608  12.684
63789SOL    HW293207   7.290   7.532  12.590
63790SOL     OW93208   9.309   4.704  13.760
63790SOL    HW193209   9.403   4.687  13.761
63790SOL    HW293210   9.301   4.798  13.779
63791SOL     OW93211   2.109  13.412  14.197
63791SOL    HW193212   2.141  13.503  14.202
63791SOL    HW293213   2.081  13.402  14.106
63792SOL     OW93214   7.072   5.506   0.241
63792SOL    HW193215   7.025   5.431   0.205
63792SOL    HW293216   7.005   5.556   0.287
63793SOL     OW93217  10.476   8.232   5.679
63793SOL    HW193218  10.543   8.297   5.700
63793SOL    HW293219  10.511   8.150   5.713
63794SOL     OW93220   2.282   7.889   7.665
63794SOL    HW193221   2.362   7.897   7.613
63794SOL    HW293222   2.287   7.961   7.728
63795SOL     OW93223   8.192  10.916   8.731
63795SOL    HW193224   8.207  10.907   8.825
63795SOL    HW293225   8.203  11.010   8.714
63796SOL     OW93226   7.409   9.457   9.554
63796SOL    HW193227   7.382   9.424   9.468
63796SOL    HW293228   7.482   9.516   9.535
63797SOL     OW93229   5.007  11.293   2.776
63797SOL    HW193230   5.102  11.281   2.773
63797SOL    HW293231   4.991  11.340   2.858
63798SOL     OW93232   2.619  12.684   5.026
63798SOL    HW193233   2.627  12.632   5.105
63798SOL    HW293234   2.525  12.681   5.004
63799SOL     OW93235   9.998   4.447  14.284
63799SOL    HW193236   9.979   4.364  14.238
63799SOL    HW293237  10.093   4.459  14.273
63800SOL     OW93238   3.549  11.020   9.127
63800SOL    HW193239   3.589  11.004   9.041
63800SOL    HW293240   3.472  11.073   9.108
63801SOL     OW93241   9.730   8.791   2.788
63801SOL    HW193242   9.818   8.825   2.772
63801SOL    HW293243   9.743   8.698   2.804
63802SOL     OW93244   9.352   0.989  11.880
63802SOL    HW193245   9.385   0.909  11.840
63802SOL    HW293246   9.258   0.989  11.861
63803SOL     OW93247   1.679   2.245   6.036
63803SOL    HW193248   1.715   2.221   6.121
63803SOL    HW293249   1.625   2.171   6.010
63804SOL     OW93250   7.660  14.032   5.367
63804SOL    HW193251   7.677  14.068   5.454
63804SOL    HW293252   7.586  14.082   5.333
63805SOL     OW93253   8.356  11.373  13.303
63805SOL    HW193254   8.312  11.345  13.223
63805SOL    HW293255   8.398  11.294  13.336
63806SOL     OW93256  10.887   9.457   5.425
63806SOL    HW193257  10.954   9.513   5.386
63806SOL    HW293258  10.921   9.436   5.512
63807SOL     OW93259   6.561   8.878   7.079
63807SOL    HW193260   6.536   8.969   7.062
63807SOL    HW293261   6.656   8.881   7.090
63808SOL     OW93262   5.652   4.510   1.990
63808SOL    HW193263   5.665   4.416   2.000
63808SOL    HW293264   5.579   4.531   2.048
63809SOL     OW93265  10.929   8.556  14.311
63809SOL    HW193266  10.940   8.490  14.243
63809SOL    HW293267  10.839   8.587  14.300
63810SOL     OW93268  12.871  11.465   8.459
63810SOL    HW193269  12.929  11.449   8.385
63810SOL    HW293270  12.926  11.507   8.524
63811SOL     OW93271   7.175   2.056  14.315
63811SOL    HW193272   7.160   2.118  14.386
63811SOL    HW293273   7.091   2.014  14.300
63812SOL     OW93274  11.382  14.738  12.625
63812SOL    HW193275  11.395  14.832  12.625
63812SOL    HW293276  11.332  14.720  12.705
63813SOL     OW93277   7.053   7.511   3.760
63813SOL    HW193278   6.975   7.456   3.766
63813SOL    HW293279   7.020   7.601   3.769
63814SOL     OW93280   8.134   8.517  10.789
63814SOL    HW193281   8.180   8.509  10.873
63814SOL    HW293282   8.078   8.439  10.786
63815SOL     OW93283   0.869   9.927   7.838
63815SOL    HW193284   0.920   9.902   7.760
63815SOL    HW293285   0.935   9.938   7.907
63816SOL     OW93286  13.705  11.455  12.667
63816SOL    HW193287  13.722  11.510  12.743
63816SOL    HW293288  13.749  11.373  12.686
63817SOL     OW93289   6.835   5.239   9.865
63817SOL    HW193290   6.849   5.160   9.814
63817SOL    HW293291   6.922   5.262   9.898
63818SOL     OW93292   9.969  13.625   6.683
63818SOL    HW193293   9.893  13.662   6.728
63818SOL    HW293294  10.015  13.701   6.647
63819SOL     OW93295   9.557   8.892   0.972
63819SOL    HW193296   9.487   8.869   1.033
63819SOL    HW293297   9.518   8.878   0.885
63820SOL     OW93298   2.302   2.119   7.800
63820SOL    HW193299   2.246   2.182   7.753
63820SOL    HW293300   2.354   2.078   7.731
63821SOL     OW93301  14.754  13.681  13.320
63821SOL    HW193302  14.716  13.696  13.234
63821SOL    HW293303  14.823  13.748  13.327
63822SOL     OW93304   6.859   4.781  13.797
63822SOL    HW193305   6.867   4.740  13.711
63822SOL    HW293306   6.881   4.873  13.783
63823SOL     OW93307  14.871   5.086   3.594
63823SOL    HW193308   0.050   5.014   3.559
63823SOL    HW293309  14.792   5.087   3.540
63824SOL     OW93310   3.160   5.270  12.769
63824SOL    HW193311   3.200   5.353  12.794
63824SOL    HW293312   3.126   5.285  12.681
63825SOL     OW93313  12.120  11.861   7.009
63825SOL    HW193314  12.075  11.788   6.967
63825SOL    HW293315  12.212  11.836   7.009
63826SOL     OW93316   5.017   6.939   7.393
63826SOL    HW193317   4.986   7.029   7.385
63826SOL    HW293318   4.939   6.889   7.416
63827SOL     OW93319   2.615   4.841  14.220
63827SOL    HW193320   2.567   4.915  14.183
63827SOL    HW293321   2.613   4.774  14.151
63828SOL     OW93322  12.403   7.687   2.304
63828SOL    HW193323  12.491   7.727   2.308
63828SOL    HW293324  12.420   7.594   2.292
63829SOL     OW93325   5.112   7.036   5.054
63829SOL    HW193326   5.065   7.097   4.996
63829SOL    HW293327   5.056   6.959   5.058
63830SOL     OW93328   4.921   1.885  12.310
63830SOL    HW193329   4.852   1.835  12.354
63830SOL    HW293330   4.884   1.909  12.226
63831SOL     OW93331   9.640  13.502   7.220
63831SOL    HW193332   9.718  13.558   7.223
63831SOL    HW293333   9.640  13.455   7.304
63832SOL     OW93334   1.794   8.365   8.406
63832SOL    HW193335   1.772   8.456   8.424
63832SOL    HW293336   1.820   8.364   8.314
63833SOL     OW93337  11.837   8.266   8.530
63833SOL    HW193338  11.811   8.232   8.444
63833SOL    HW293339  11.906   8.206   8.560
63834SOL     OW93340   0.326   9.424  13.661
63834SOL    HW193341   0.317   9.418  13.566
63834SOL    HW293342   0.402   9.369  13.682
63835SOL     OW93343   8.944  12.347   9.877
63835SOL    HW193344   9.008  12.414   9.852
63835SOL    HW293345   8.890  12.336   9.799
63836SOL     OW93346   7.029   8.688  11.549
63836SOL    HW193347   7.103   8.683  11.488
63836SOL    HW293348   7.065   8.659  11.633
63837SOL     OW93349  11.877   9.199   5.927
63837SOL    HW193350  11.949   9.177   5.868
63837SOL    HW293351  11.822   9.121   5.927
63838SOL     OW93352  11.176   3.475   4.942
63838SOL    HW193353  11.125   3.415   4.997
63838SOL    HW293354  11.209   3.420   4.871
63839SOL     OW93355   1.794  12.628  14.814
63839SOL    HW193356   1.851  12.698  14.846
63839SOL    HW293357   1.725  12.621   0.007
63840SOL     OW93358   8.283  13.937   0.756
63840SOL    HW193359   8.292  13.950   0.662
63840SOL    HW293360   8.336  13.860   0.775
63841SOL     OW93361   9.418  11.589   6.359
63841SOL    HW193362   9.407  11.497   6.382
63841SOL    HW293363   9.512  11.604   6.368
63842SOL     OW93364   4.704  14.632  13.173
63842SOL    HW193365   4.625  14.666  13.215
63842SOL    HW293366   4.764  14.707  13.170
63843SOL     OW93367  12.485  12.817  13.237
63843SOL    HW193368  12.562  12.760  13.241
63843SOL    HW293369  12.475  12.836  13.143
63844SOL     OW93370   4.284  10.950   7.441
63844SOL    HW193371   4.199  10.976   7.477
63844SOL    HW293372   4.344  10.955   7.516
63845SOL     OW93373  12.130   9.323   2.688
63845SOL    HW193374  12.148   9.414   2.712
63845SOL    HW293375  12.182   9.309   2.608
63846SOL     OW93376  12.448  10.228   3.920
63846SOL    HW193377  12.367  10.244   3.871
63846SOL    HW293378  12.453  10.133   3.929
63847SOL     OW93379   7.889  14.735   9.090
63847SOL    HW193380   7.847  14.742   9.005
63847SOL    HW293381   7.976  14.699   9.072
63848SOL     OW93382  11.615   9.128   8.878
63848SOL    HW193383  11.704   9.091   8.872
63848SOL    HW293384  11.596   9.158   8.789
63849SOL     OW93385   2.406   8.659   5.465
63849SOL    HW193386   2.411   8.571   5.427
63849SOL    HW293387   2.441   8.716   5.397
63850SOL     OW93388   8.834  11.690   3.033
63850SOL    HW193389   8.830  11.704   2.938
63850SOL    HW293390   8.841  11.595   3.043
63851SOL     OW93391   0.798   6.724   3.846
63851SOL    HW193392   0.728   6.708   3.910
63851SOL    HW293393   0.758   6.702   3.762
63852SOL     OW93394   1.286   7.458  13.333
63852SOL    HW193395   1.334   7.463  13.250
63852SOL    HW293396   1.351   7.429  13.397
63853SOL     OW93397   5.053   7.945   1.249
63853SOL    HW193398   5.104   7.890   1.308
63853SOL    HW293399   5.080   7.918   1.161
63854SOL     OW93400   6.376   5.213   8.935
63854SOL    HW193401   6.349   5.304   8.946
63854SOL    HW293402   6.299   5.169   8.900
63855SOL     OW93403   7.327   8.800   0.794
63855SOL    HW193404   7.389   8.867   0.765
63855SOL    HW293405   7.303   8.826   0.883
63856SOL     OW93406   9.829   7.625   1.519
63856SOL    HW193407   9.763   7.655   1.582
63856SOL    HW293408   9.854   7.538   1.549
63857SOL     OW93409   6.108   9.177   0.177
63857SOL    HW193410   6.110   9.087   0.209
63857SOL    HW293411   6.138   9.230   0.251
63858SOL     OW93412   7.741   7.688   1.378
63858SOL    HW193413   7.665   7.747   1.374
63858SOL    HW293414   7.704   7.602   1.397
63859SOL     OW93415   1.593   9.094  10.576
63859SOL    HW193416   1.635   9.105  10.491
63859SOL    HW293417   1.597   9.181  10.616
63860SOL     OW93418   2.388   9.180   3.222
63860SOL    HW193419   2.480   9.170   3.245
63860SOL    HW293420   2.389   9.224   3.137
63861SOL     OW93421   7.380   0.992  13.013
63861SOL    HW193422   7.304   0.946  13.051
63861SOL    HW293423   7.344   1.037  12.936
63862SOL     OW93424  10.899  10.390   4.438
63862SOL    HW193425  10.860  10.416   4.522
63862SOL    HW293426  10.843  10.432   4.372
63863SOL     OW93427   5.759  11.843  13.527
63863SOL    HW193428   5.678  11.854  13.578
63863SOL    HW293429   5.745  11.763  13.477
63864SOL     OW93430  10.546  11.496   1.833
63864SOL    HW193431  10.543  11.586   1.867
63864SOL    HW293432  10.499  11.500   1.750
63865SOL     OW93433   2.968   9.307   2.693
63865SOL    HW193434   2.982   9.352   2.776
63865SOL    HW293435   2.875   9.321   2.673
63866SOL     OW93436  11.224  11.331   6.306
63866SOL    HW193437  11.170  11.356   6.381
63866SOL    HW293438  11.260  11.245   6.329
63867SOL     OW93439  12.153   0.693   8.889
63867SOL    HW193440  12.122   0.776   8.924
63867SOL    HW293441  12.231   0.674   8.941
63868SOL     OW93442   9.180   5.869   5.183
63868SOL    HW193443   9.133   5.808   5.126
63868SOL    HW293444   9.249   5.905   5.128
63869SOL     OW93445   6.679  10.455  10.264
63869SOL    HW193446   6.610  10.515  10.238
63869SOL    HW293447   6.692  10.472  10.358
63870SOL     OW93448   4.443  11.978   9.029
63870SOL    HW193449   4.488  12.061   9.019
63870SOL    HW293450   4.485  11.937   9.105
63871SOL     OW93451   5.230  12.835   4.459
63871SOL    HW193452   5.220  12.930   4.467
63871SOL    HW293453   5.316  12.823   4.419
63872SOL     OW93454   3.814   2.328   2.739
63872SOL    HW193455   3.862   2.248   2.715
63872SOL    HW293456   3.793   2.317   2.831
63873SOL     OW93457  10.425   0.725   5.686
63873SOL    HW193458  10.337   0.706   5.717
63873SOL    HW293459  10.416   0.737   5.591
63874SOL     OW93460  14.609  13.106   3.753
63874SOL    HW193461  14.522  13.128   3.720
63874SOL    HW293462  14.661  13.091   3.675
63875SOL     OW93463   3.885  12.664   4.623
63875SOL    HW193464   3.909  12.692   4.535
63875SOL    HW293465   3.935  12.722   4.681
63876SOL     OW93466  11.022   7.378   3.136
63876SOL    HW193467  11.044   7.308   3.198
63876SOL    HW293468  11.086   7.368   3.065
63877SOL     OW93469  10.060   6.134  12.571
63877SOL    HW193470  10.067   6.040  12.552
63877SOL    HW293471  10.051   6.139  12.666
63878SOL     OW93472   4.411   7.646  12.490
63878SOL    HW193473   4.357   7.648  12.411
63878SOL    HW293474   4.399   7.732  12.530
63879SOL     OW93475  14.807   9.321   4.841
63879SOL    HW193476  14.758   9.244   4.811
63879SOL    HW293477   0.026   9.296   4.828
63880SOL     OW93478  10.143  12.890   5.105
63880SOL    HW193479  10.099  12.963   5.149
63880SOL    HW293480  10.133  12.909   5.011
63881SOL     OW93481   8.716   3.351   5.607
63881SOL    HW193482   8.802   3.353   5.565
63881SOL    HW293483   8.681   3.264   5.586
63882SOL     OW93484   7.493   2.990   4.673
63882SOL    HW193485   7.401   2.993   4.699
63882SOL    HW293486   7.511   2.897   4.658
63883SOL     OW93487   8.702  11.007   3.851
63883SOL    HW193488   8.765  11.009   3.923
63883SOL    HW293489   8.617  11.019   3.893
63884SOL     OW93490   4.977   1.518   3.603
63884SOL    HW193491   4.958   1.601   3.647
63884SOL    HW293492   5.003   1.459   3.674
63885SOL     OW93493  14.322   4.091   0.957
63885SOL    HW193494  14.231   4.107   0.932
63885SOL    HW293495  14.334   3.997   0.943
63886SOL     OW93496  14.424  12.398  12.973
63886SOL    HW193497  14.487  12.466  12.997
63886SOL    HW293498  14.341  12.444  12.963
63887SOL     OW93499  13.489   5.315  13.823
63887SOL    HW193500  13.433   5.392  13.830
63887SOL    HW293501  13.565   5.335  13.877
63888SOL     OW93502   0.734   1.537   9.033
63888SOL    HW193503   0.820   1.496   9.034
63888SOL    HW293504   0.731   1.588   9.114
63889SOL     OW93505   9.896   8.085   0.299
63889SOL    HW193506   9.991   8.069   0.295
63889SOL    HW293507   9.885   8.172   0.263
63890SOL     OW93508   7.982  10.106  12.886
63890SOL    HW193509   7.905  10.069  12.844
63890SOL    HW293510   8.007  10.180  12.831
63891SOL     OW93511  11.328  10.527   5.431
63891SOL    HW193512  11.393  10.590   5.461
63891SOL    HW293513  11.321  10.543   5.337
63892SOL     OW93514   7.955   3.853   5.263
63892SOL    HW193515   7.876   3.891   5.300
63892SOL    HW293516   7.926   3.769   5.226
63893SOL     OW93517   5.973   1.451   3.028
63893SOL    HW193518   5.984   1.521   2.964
63893SOL    HW293519   5.987   1.493   3.113
63894SOL     OW93520   9.735   7.182   1.927
63894SOL    HW193521   9.692   7.205   2.010
63894SOL    HW293522   9.714   7.090   1.915
63895SOL     OW93523   4.437   4.280  12.263
63895SOL    HW193524   4.441   4.191  12.299
63895SOL    HW293525   4.356   4.316  12.300
63896SOL     OW93526   1.529   4.464  13.238
63896SOL    HW193527   1.588   4.393  13.212
63896SOL    HW293528   1.464   4.421  13.294
63897SOL     OW93529   1.115   1.814  12.669
63897SOL    HW193530   1.103   1.897  12.715
63897SOL    HW293531   1.155   1.839  12.586
63898SOL     OW93532   0.398  12.357   0.367
63898SOL    HW193533   0.396  12.408   0.448
63898SOL    HW293534   0.397  12.266   0.396
63899SOL     OW93535   7.018   8.572   9.870
63899SOL    HW193536   7.008   8.545   9.779
63899SOL    HW293537   7.066   8.655   9.865
63900SOL     OW93538  12.909   8.048  10.137
63900SOL    HW193539  12.978   8.078  10.196
63900SOL    HW293540  12.841   8.014  10.195
63901SOL     OW93541  13.276  10.182   1.772
63901SOL    HW193542  13.297  10.111   1.712
63901SOL    HW293543  13.220  10.241   1.720
63902SOL     OW93544   3.789   5.364   3.589
63902SOL    HW193545   3.801   5.284   3.537
63902SOL    HW293546   3.783   5.434   3.524
63903SOL     OW93547   2.904   8.865   8.928
63903SOL    HW193548   2.838   8.850   8.996
63903SOL    HW293549   2.966   8.926   8.969
63904SOL     OW93550   0.784   9.342   2.390
63904SOL    HW193551   0.786   9.327   2.485
63904SOL    HW293552   0.876   9.339   2.364
63905SOL     OW93553   3.249   2.459   4.715
63905SOL    HW193554   3.265   2.540   4.667
63905SOL    HW293555   3.160   2.468   4.748
63906SOL     OW93556   3.366  10.347   8.039
63906SOL    HW193557   3.404  10.320   7.956
63906SOL    HW293558   3.294  10.286   8.054
63907SOL     OW93559  14.381   0.311   2.382
63907SOL    HW193560  14.445   0.239   2.379
63907SOL    HW293561  14.328   0.293   2.459
63908SOL     OW93562   9.890  14.425   1.126
63908SOL    HW193563   9.822  14.415   1.060
63908SOL    HW293564   9.857  14.378   1.202
63909SOL     OW93565   9.251   9.624   0.410
63909SOL    HW193566   9.252   9.657   0.320
63909SOL    HW293567   9.319   9.674   0.455
63910SOL     OW93568   0.835   6.026  11.539
63910SOL    HW193569   0.877   6.007  11.455
63910SOL    HW293570   0.777   5.951  11.554
63911SOL     OW93571   4.506   0.900   7.775
63911SOL    HW193572   4.589   0.929   7.814
63911SOL    HW293573   4.495   0.810   7.807
63912SOL     OW93574   0.044  10.731   1.737
63912SOL    HW193575   0.023  10.823   1.754
63912SOL    HW293576   0.007  10.683   1.811
63913SOL     OW93577   1.551   4.688  14.457
63913SOL    HW193578   1.547   4.606  14.407
63913SOL    HW293579   1.459   4.712  14.470
63914SOL     OW93580  13.379  11.118  13.826
63914SOL    HW193581  13.403  11.132  13.917
63914SOL    HW293582  13.395  11.203  13.784
63915SOL     OW93583   2.664   2.043   4.211
63915SOL    HW193584   2.612   2.120   4.234
63915SOL    HW293585   2.706   2.066   4.129
63916SOL     OW93586   3.546   8.421   5.851
63916SOL    HW193587   3.617   8.412   5.914
63916SOL    HW293588   3.538   8.334   5.812
63917SOL     OW93589   9.487  10.100   9.727
63917SOL    HW193590   9.550  10.045   9.773
63917SOL    HW293591   9.498  10.077   9.635
63918SOL     OW93592  11.756   1.831   9.195
63918SOL    HW193593  11.736   1.738   9.189
63918SOL    HW293594  11.675   1.875   9.170
63919SOL     OW93595  14.003  11.134   9.306
63919SOL    HW193596  14.038  11.051   9.275
63919SOL    HW293597  13.917  11.112   9.341
63920SOL     OW93598   1.244   7.511   7.836
63920SOL    HW193599   1.188   7.518   7.914
63920SOL    HW293600   1.186   7.534   7.763
63921SOL     OW93601   1.147   5.809   8.482
63921SOL    HW193602   1.112   5.805   8.571
63921SOL    HW293603   1.206   5.734   8.476
63922SOL     OW93604  10.614   2.107   2.011
63922SOL    HW193605  10.616   2.012   2.003
63922SOL    HW293606  10.536   2.126   2.062
63923SOL     OW93607  10.307   4.682   0.176
63923SOL    HW193608  10.341   4.719   0.095
63923SOL    HW293609  10.355   4.726   0.246
63924SOL     OW93610   3.017   0.073  14.767
63924SOL    HW193611   2.970   0.017  14.705
63924SOL    HW293612   2.980   0.052  14.852
63925SOL     OW93613  13.177   4.804   2.315
63925SOL    HW193614  13.272   4.793   2.320
63925SOL    HW293615  13.150   4.753   2.238
63926SOL     OW93616   1.158   6.120   8.236
63926SOL    HW193617   1.145   6.184   8.306
63926SOL    HW293618   1.161   6.173   8.156
63927SOL     OW93619   8.482   8.013  14.419
63927SOL    HW193620   8.455   8.034  14.329
63927SOL    HW293621   8.435   7.932  14.439
63928SOL     OW93622   9.783   5.728   7.568
63928SOL    HW193623   9.702   5.690   7.601
63928SOL    HW293624   9.764   5.821   7.559
63929SOL     OW93625   4.525  11.946   3.999
63929SOL    HW193626   4.502  11.921   3.909
63929SOL    HW293627   4.536  11.863   4.045
63930SOL     OW93628  14.187   6.158  10.077
63930SOL    HW193629  14.151   6.153   9.988
63930SOL    HW293630  14.259   6.220  10.070
63931SOL     OW93631   4.579  11.504  12.675
63931SOL    HW193632   4.613  11.577  12.623
63931SOL    HW293633   4.489  11.528  12.695
63932SOL     OW93634  14.438   8.889   3.640
63932SOL    HW193635  14.438   8.840   3.558
63932SOL    HW293636  14.524   8.872   3.678
63933SOL     OW93637   9.509  12.623   9.657
63933SOL    HW193638   9.569  12.695   9.637
63933SOL    HW293639   9.432  12.665   9.695
63934SOL     OW93640   2.764   5.206   2.028
63934SOL    HW193641   2.842   5.155   2.007
63934SOL    HW293642   2.710   5.200   1.950
63935SOL     OW93643  11.647  12.576   1.044
63935SOL    HW193644  11.738  12.548   1.057
63935SOL    HW293645  11.651  12.637   0.971
63936SOL     OW93646   4.481  13.794  13.838
63936SOL    HW193647   4.455  13.722  13.780
63936SOL    HW293648   4.566  13.822  13.804
63937SOL     OW93649   2.505  14.713   9.607
63937SOL    HW193650   2.422  14.670   9.625
63937SOL    HW293651   2.488  14.764   9.527
63938SOL     OW93652   9.165   9.428  10.057
63938SOL    HW193653   9.137   9.433  10.149
63938SOL    HW293654   9.214   9.346  10.052
63939SOL     OW93655   3.880   9.728   9.533
63939SOL    HW193656   3.907   9.639   9.510
63939SOL    HW293657   3.948   9.759   9.593
63940SOL     OW93658   8.721   6.784  12.801
63940SOL    HW193659   8.637   6.827  12.788
63940SOL    HW293660   8.717   6.706  12.745
63941SOL     OW93661  14.374   3.804   8.420
63941SOL    HW193662  14.445   3.867   8.422
63941SOL    HW293663  14.370   3.771   8.510
63942SOL     OW93664  13.698  10.213  14.247
63942SOL    HW193665  13.623  10.165  14.282
63942SOL    HW293666  13.770  10.149  14.249
63943SOL     OW93667  12.045   6.528   0.041
63943SOL    HW193668  12.045   6.573   0.126
63943SOL    HW293669  12.112   6.574  14.864
63944SOL     OW93670   9.289   6.361  13.746
63944SOL    HW193671   9.319   6.451  13.734
63944SOL    HW293672   9.255   6.335  13.660
63945SOL     OW93673  12.101  10.386  10.927
63945SOL    HW193674  12.162  10.406  10.998
63945SOL    HW293675  12.095  10.291  10.927
63946SOL     OW93676   5.533   7.757   9.303
63946SOL    HW193677   5.573   7.807   9.231
63946SOL    HW293678   5.561   7.802   9.382
63947SOL     OW93679   6.016   0.937   2.065
63947SOL    HW193680   5.924   0.964   2.064
63947SOL    HW293681   6.060   1.003   2.119
63948SOL     OW93682   2.271   5.863   2.068
63948SOL    HW193683   2.245   5.807   1.995
63948SOL    HW293684   2.353   5.825   2.100
63949SOL     OW93685   6.158   4.132  13.645
63949SOL    HW193686   6.240   4.170  13.676
63949SOL    HW293687   6.090   4.178  13.694
63950SOL     OW93688  10.218  14.608   3.561
63950SOL    HW193689  10.149  14.641   3.503
63950SOL    HW293690  10.283  14.571   3.502
63951SOL     OW93691   9.457   6.010  12.866
63951SOL    HW193692   9.451   5.932  12.811
63951SOL    HW293693   9.541   6.000  12.912
63952SOL     OW93694  11.809   4.736   1.935
63952SOL    HW193695  11.836   4.688   2.013
63952SOL    HW293696  11.775   4.669   1.876
63953SOL     OW93697   4.596   9.844   7.525
63953SOL    HW193698   4.633   9.761   7.555
63953SOL    HW293699   4.505   9.824   7.504
63954SOL     OW93700   5.670   6.207   0.421
63954SOL    HW193701   5.602   6.162   0.371
63954SOL    HW293702   5.667   6.298   0.389
63955SOL     OW93703   4.667   2.852   1.053
63955SOL    HW193704   4.587   2.842   1.105
63955SOL    HW293705   4.649   2.926   0.995
63956SOL     OW93706   6.404  11.182   6.846
63956SOL    HW193707   6.329  11.159   6.791
63956SOL    HW293708   6.462  11.231   6.787
63957SOL     OW93709   5.413   0.112   1.776
63957SOL    HW193710   5.340   0.061   1.739
63957SOL    HW293711   5.417   0.190   1.720
63958SOL     OW93712   3.785   7.193   9.836
63958SOL    HW193713   3.837   7.265   9.871
63958SOL    HW293714   3.829   7.114   9.869
63959SOL     OW93715   6.780  12.864  14.738
63959SOL    HW193716   6.863  12.901  14.767
63959SOL    HW293717   6.753  12.919  14.665
63960SOL     OW93718   9.803  10.534   1.046
63960SOL    HW193719   9.876  10.472   1.039
63960SOL    HW293720   9.729  10.480   1.074
63961SOL     OW93721   2.179  10.989   4.392
63961SOL    HW193722   2.097  11.034   4.414
63961SOL    HW293723   2.208  11.029   4.311
63962SOL     OW93724  10.626   2.130  13.707
63962SOL    HW193725  10.553   2.190  13.722
63962SOL    HW293726  10.704   2.180  13.730
63963SOL     OW93727   3.300   6.077  11.097
63963SOL    HW193728   3.216   6.087  11.051
63963SOL    HW293729   3.299   5.987  11.129
63964SOL     OW93730   1.604   1.033   2.370
63964SOL    HW193731   1.676   1.001   2.316
63964SOL    HW293732   1.617   1.127   2.376
63965SOL     OW93733  14.500  11.134  13.612
63965SOL    HW193734  14.451  11.169  13.687
63965SOL    HW293735  14.526  11.211  13.562
63966SOL     OW93736   3.169   4.024   0.934
63966SOL    HW193737   3.078   4.039   0.911
63966SOL    HW293738   3.215   4.103   0.907
63967SOL     OW93739   2.994   0.877  14.254
63967SOL    HW193740   3.089   0.875  14.264
63967SOL    HW293741   2.963   0.799  14.301
63968SOL     OW93742   6.075   2.294   4.874
63968SOL    HW193743   6.079   2.384   4.907
63968SOL    HW293744   6.166   2.270   4.857
63969SOL     OW93745   5.021   0.868   4.731
63969SOL    HW193746   5.012   0.906   4.644
63969SOL    HW293747   5.067   0.785   4.716
63970SOL     OW93748   0.369   1.624   6.605
63970SOL    HW193749   0.391   1.689   6.539
63970SOL    HW293750   0.294   1.661   6.651
63971SOL     OW93751  14.271  10.518   2.958
63971SOL    HW193752  14.267  10.521   3.054
63971SOL    HW293753  14.263  10.609   2.931
63972SOL     OW93754  14.359   6.836  10.460
63972SOL    HW193755  14.357   6.813  10.367
63972SOL    HW293756  14.448   6.816  10.487
63973SOL     OW93757   4.627   6.537  12.630
63973SOL    HW193758   4.550   6.594  12.638
63973SOL    HW293759   4.645   6.509  12.720
63974SOL     OW93760   8.640  14.439  11.393
63974SOL    HW193761   8.693  14.367  11.428
63974SOL    HW293762   8.552  14.421  11.424
63975SOL     OW93763  10.247  14.594  10.915
63975SOL    HW193764  10.223  14.502  10.908
63975SOL    HW293765  10.342  14.593  10.930
63976SOL     OW93766   2.496   5.273  13.660
63976SOL    HW193767   2.571   5.277  13.600
63976SOL    HW293768   2.488   5.181  13.682
63977SOL     OW93769   4.612   9.629   8.905
63977SOL    HW193770   4.526   9.665   8.884
63977SOL    HW293771   4.656   9.698   8.954
63978SOL     OW93772   0.753   4.594   6.022
63978SOL    HW193773   0.662   4.601   5.995
63978SOL    HW293774   0.788   4.682   6.013
63979SOL     OW93775   6.902  10.730   6.291
63979SOL    HW193776   6.953  10.808   6.313
63979SOL    HW293777   6.964  10.673   6.246
63980SOL     OW93778   3.836   4.676   0.428
63980SOL    HW193779   3.789   4.671   0.344
63980SOL    HW293780   3.844   4.586   0.457
63981SOL     OW93781   6.216   2.201  10.770
63981SOL    HW193782   6.301   2.233  10.799
63981SOL    HW293783   6.159   2.210  10.846
63982SOL     OW93784   8.462   8.115   2.689
63982SOL    HW193785   8.527   8.046   2.696
63982SOL    HW293786   8.466   8.160   2.773
63983SOL     OW93787   6.192  11.402   7.299
63983SOL    HW193788   6.192  11.311   7.270
63983SOL    HW293789   6.265  11.443   7.252
63984SOL     OW93790  10.822   9.047   5.063
63984SOL    HW193791  10.875   8.967   5.065
63984SOL    HW293792  10.838   9.089   5.148
63985SOL     OW93793   8.778  13.469   6.421
63985SOL    HW193794   8.873  13.474   6.420
63985SOL    HW293795   8.750  13.555   6.453
63986SOL     OW93796  12.285   6.530  10.671
63986SOL    HW193797  12.263   6.515  10.763
63986SOL    HW293798  12.305   6.623  10.666
63987SOL     OW93799   9.969  11.218   8.908
63987SOL    HW193800   9.993  11.310   8.900
63987SOL    HW293801   9.914  11.200   8.832
63988SOL     OW93802  13.715   9.405   7.710
63988SOL    HW193803  13.654   9.364   7.772
63988SOL    HW293804  13.802   9.386   7.746
63989SOL     OW93805  14.669   4.994   0.447
63989SOL    HW193806  14.689   4.921   0.505
63989SOL    HW293807  14.625   4.955   0.372
63990SOL     OW93808   2.331   0.995   7.439
63990SOL    HW193809   2.243   1.027   7.458
63990SOL    HW293810   2.351   1.030   7.352
63991SOL     OW93811   1.387  13.759  10.115
63991SOL    HW193812   1.357  13.825  10.178
63991SOL    HW293813   1.369  13.675  10.158
63992SOL     OW93814   1.045   0.011   8.106
63992SOL    HW193815   1.044  14.794   8.073
63992SOL    HW293816   1.129   0.046   8.078
63993SOL     OW93817   8.721   5.675  12.775
63993SOL    HW193818   8.641   5.723  12.755
63993SOL    HW293819   8.695   5.611  12.842
63994SOL     OW93820  10.560   6.347   0.798
63994SOL    HW193821  10.567   6.324   0.705
63994SOL    HW293822  10.604   6.431   0.806
63995SOL     OW93823  12.507   5.839  12.609
63995SOL    HW193824  12.460   5.799  12.683
63995SOL    HW293825  12.591   5.794  12.607
63996SOL     OW93826  12.819  11.016  10.389
63996SOL    HW193827  12.759  11.016  10.464
63996SOL    HW293828  12.871  10.937  10.399
63997SOL     OW93829  10.418   2.327   9.039
63997SOL    HW193830  10.503   2.313   8.999
63997SOL    HW293831  10.377   2.240   9.040
63998SOL     OW93832   6.671  13.446  13.810
63998SOL    HW193833   6.729  13.520  13.798
63998SOL    HW293834   6.583  13.484  13.814
63999SOL     OW93835   6.182   7.569   8.234
63999SOL    HW193836   6.260   7.551   8.286
63999SOL    HW293837   6.214   7.567   8.143
64000SOL     OW93838  14.123  12.876   2.749
64000SOL    HW193839  14.152  12.921   2.669
64000SOL    HW293840  14.144  12.784   2.733
64001SOL     OW93841   8.541   4.850   8.757
64001SOL    HW193842   8.454   4.888   8.769
64001SOL    HW293843   8.525   4.771   8.706
64002SOL     OW93844   8.825   8.404   4.859
64002SOL    HW193845   8.825   8.329   4.919
64002SOL    HW293846   8.882   8.468   4.902
64003SOL     OW93847   4.133   2.865   5.311
64003SOL    HW193848   4.182   2.931   5.360
64003SOL    HW293849   4.044   2.872   5.345
64004SOL     OW93850   0.535   5.288  13.217
64004SOL    HW193851   0.524   5.208  13.166
64004SOL    HW293852   0.518   5.261  13.307
64005SOL     OW93853  10.221   8.065   4.425
64005SOL    HW193854  10.136   8.075   4.468
64005SOL    HW293855  10.258   7.985   4.463
64006SOL     OW93856  11.132  14.512  13.786
64006SOL    HW193857  11.134  14.563  13.705
64006SOL    HW293858  11.131  14.577  13.856
64007SOL     OW93859   4.052   4.268   6.611
64007SOL    HW193860   4.123   4.331   6.611
64007SOL    HW293861   4.079   4.202   6.676
64008SOL     OW93862  12.398   1.559   5.339
64008SOL    HW193863  12.306   1.542   5.359
64008SOL    HW293864  12.443   1.477   5.362
64009SOL     OW93865  10.818  13.619   1.894
64009SOL    HW193866  10.883  13.562   1.934
64009SOL    HW293867  10.751  13.559   1.861
64010SOL     OW93868  13.569   8.717   7.153
64010SOL    HW193869  13.664   8.712   7.156
64010SOL    HW293870  13.550   8.777   7.081
64011SOL     OW93871  14.550  12.845   4.338
64011SOL    HW193872  14.493  12.851   4.415
64011SOL    HW293873  14.593  12.930   4.334
64012SOL     OW93874   8.337  14.481   2.501
64012SOL    HW193875   8.246  14.475   2.528
64012SOL    HW293876   8.368  14.390   2.503
64013SOL     OW93877   2.797  10.257   9.283
64013SOL    HW193878   2.755  10.343   9.277
64013SOL    HW293879   2.752  10.214   9.355
64014SOL     OW93880   0.590   0.448   6.058
64014SOL    HW193881   0.608   0.517   5.995
64014SOL    HW293882   0.496   0.435   6.054
64015SOL     OW93883   8.453  14.129   6.803
64015SOL    HW193884   8.525  14.087   6.850
64015SOL    HW293885   8.406  14.056   6.763
64016SOL     OW93886   3.552   6.645   5.065
64016SOL    HW193887   3.516   6.565   5.102
64016SOL    HW293888   3.592   6.690   5.140
64017SOL     OW93889   5.619  10.025  10.571
64017SOL    HW193890   5.705   9.998  10.602
64017SOL    HW293891   5.607   9.977  10.489
64018SOL     OW93892   0.048  10.747  14.594
64018SOL    HW193893  14.852  10.737  14.530
64018SOL    HW293894   0.122  10.782  14.545
64019SOL     OW93895  12.522  13.402  12.706
64019SOL    HW193896  12.594  13.445  12.751
64019SOL    HW293897  12.564  13.345  12.641
64020SOL     OW93898  11.373   8.312   3.636
64020SOL    HW193899  11.279   8.332   3.636
64020SOL    HW293900  11.386   8.256   3.712
64021SOL     OW93901  12.336  12.986  10.007
64021SOL    HW193902  12.395  13.024  10.071
64021SOL    HW293903  12.278  12.929  10.059
64022SOL     OW93904  14.090   7.608  14.131
64022SOL    HW193905  14.033   7.623  14.206
64022SOL    HW293906  14.055   7.529  14.090
64023SOL     OW93907   3.930   5.714  12.982
64023SOL    HW193908   3.885   5.635  12.951
64023SOL    HW293909   3.878   5.744  13.057
64024SOL     OW93910   7.401   9.069  11.294
64024SOL    HW193911   7.312   9.076  11.329
64024SOL    HW293912   7.414   9.150  11.245
64025SOL     OW93913   5.925   5.584   0.049
64025SOL    HW193914   5.956   5.504   0.091
64025SOL    HW293915   5.993   5.607  14.859
64026SOL     OW93916   3.201   1.896   1.309
64026SOL    HW193917   3.178   1.844   1.231
64026SOL    HW293918   3.277   1.851   1.346
64027SOL     OW93919  14.177  11.306   2.374
64027SOL    HW193920  14.253  11.316   2.315
64027SOL    HW293921  14.137  11.224   2.347
64028SOL     OW93922   6.713   8.179   6.208
64028SOL    HW193923   6.636   8.160   6.154
64028SOL    HW293924   6.697   8.132   6.290
64029SOL     OW93925   4.146  11.992  14.694
64029SOL    HW193926   4.100  12.045  14.629
64029SOL    HW293927   4.177  12.055  14.759
64030SOL     OW93928  14.652   1.195   7.478
64030SOL    HW193929  14.646   1.267   7.414
64030SOL    HW293930  14.643   1.238   7.563
64031SOL     OW93931  13.933   7.470  10.101
64031SOL    HW193932  13.962   7.404  10.164
64031SOL    HW293933  13.879   7.530  10.153
64032SOL     OW93934  13.106  10.042   0.465
64032SOL    HW193935  13.069   9.963   0.505
64032SOL    HW293936  13.029  10.092   0.436
64033SOL     OW93937  10.407   4.365   5.826
64033SOL    HW193938  10.320   4.401   5.842
64033SOL    HW293939  10.439   4.412   5.749
64034SOL     OW93940   1.756  13.164   8.725
64034SOL    HW193941   1.842  13.151   8.686
64034SOL    HW293942   1.708  13.083   8.707
64035SOL     OW93943   1.649   9.366   2.425
64035SOL    HW193944   1.625   9.431   2.359
64035SOL    HW293945   1.735   9.393   2.455
64036SOL     OW93946  13.011   1.398   6.501
64036SOL    HW193947  13.037   1.450   6.577
64036SOL    HW293948  13.093   1.381   6.455
64037SOL     OW93949   3.965   8.874   7.118
64037SOL    HW193950   4.031   8.854   7.052
64037SOL    HW293951   3.900   8.927   7.072
64038SOL     OW93952  12.446  11.761  14.315
64038SOL    HW193953  12.423  11.671  14.338
64038SOL    HW293954  12.409  11.814  14.386
64039SOL     OW93955   8.376   1.227   5.192
64039SOL    HW193956   8.345   1.145   5.153
64039SOL    HW293957   8.471   1.222   5.187
64040SOL     OW93958  14.760   1.703   6.203
64040SOL    HW193959  14.722   1.740   6.123
64040SOL    HW293960  14.793   1.618   6.176
64041SOL     OW93961  13.321  12.465   8.440
64041SOL    HW193962  13.405  12.422   8.423
64041SOL    HW293963  13.300  12.441   8.530
64042SOL     OW93964   1.035  10.807   3.661
64042SOL    HW193965   1.059  10.746   3.592
64042SOL    HW293966   1.096  10.880   3.651
64043SOL     OW93967   6.441   6.806   6.109
64043SOL    HW193968   6.393   6.888   6.092
64043SOL    HW293969   6.530   6.835   6.128
64044SOL     OW93970   7.636   7.397   5.750
64044SOL    HW193971   7.679   7.315   5.729
64044SOL    HW293972   7.625   7.395   5.846
64045SOL     OW93973   7.602  14.548   0.193
64045SOL    HW193974   7.628  14.491   0.265
64045SOL    HW293975   7.534  14.499   0.146
64046SOL     OW93976  12.092  14.428   5.489
64046SOL    HW193977  12.091  14.428   5.585
64046SOL    HW293978  12.184  14.438   5.466
64047SOL     OW93979  13.505   8.256   7.471
64047SOL    HW193980  13.453   8.183   7.504
64047SOL    HW293981  13.441   8.319   7.437
64048SOL     OW93982   1.094  10.660   6.252
64048SOL    HW193983   1.060  10.648   6.341
64048SOL    HW293984   1.025  10.626   6.195
64049SOL     OW93985   9.435  13.199   2.333
64049SOL    HW193986   9.505  13.136   2.320
64049SOL    HW293987   9.405  13.220   2.245
64050SOL     OW93988   0.367   0.301  14.010
64050SOL    HW193989   0.286   0.296  14.061
64050SOL    HW293990   0.434   0.263  14.067
64051SOL     OW93991   0.249  13.688   2.115
64051SOL    HW193992   0.195  13.617   2.150
64051SOL    HW293993   0.302  13.716   2.190
64052SOL     OW93994   8.062  11.409   7.882
64052SOL    HW193995   8.027  11.491   7.918
64052SOL    HW293996   7.998  11.342   7.909
64053SOL     OW93997   5.453  11.779  14.490
64053SOL    HW193998   5.427  11.870  14.474
64053SOL    HW293999   5.493  11.781  14.576
64054SOL     OW94000  13.695   2.621   9.967
64054SOL    HW194001  13.693   2.611   9.872
64054SOL    HW294002  13.775   2.576   9.994
64055SOL     OW94003  14.859  12.048   2.672
64055SOL    HW194004   0.009  11.960   2.641
64055SOL    HW294005   0.062  12.077   2.722
64056SOL     OW94006   8.786   1.674   3.484
64056SOL    HW194007   8.740   1.659   3.402
64056SOL    HW294008   8.748   1.612   3.546
64057SOL     OW94009  11.276   2.428   9.800
64057SOL    HW194010  11.208   2.495   9.809
64057SOL    HW294011  11.233   2.354   9.758
64058SOL     OW94012   7.455   8.404   0.902
64058SOL    HW194013   7.371   8.426   0.943
64058SOL    HW294014   7.445   8.312   0.875
64059SOL     OW94015   2.704  11.136   5.143
64059SOL    HW194016   2.609  11.142   5.156
64059SOL    HW294017   2.723  11.043   5.148
64060SOL     OW94018   1.041  14.481  12.338
64060SOL    HW194019   1.124  14.516  12.372
64060SOL    HW294020   1.011  14.547  12.276
64061SOL     OW94021  10.089   1.674   5.845
64061SOL    HW194022  10.132   1.727   5.778
64061SOL    HW294023  10.069   1.592   5.800
64062SOL     OW94024  12.984   6.952   3.486
64062SOL    HW194025  13.031   6.944   3.403
64062SOL    HW294026  13.051   6.974   3.550
64063SOL     OW94027   5.337   0.128   3.552
64063SOL    HW194028   5.344   0.139   3.457
64063SOL    HW294029   5.275   0.056   3.562
64064SOL     OW94030   0.269   5.920  10.239
64064SOL    HW194031   0.213   5.855  10.281
64064SOL    HW294032   0.210   5.967  10.180
64065SOL     OW94033  11.505  13.129   6.484
64065SOL    HW194034  11.581  13.096   6.436
64065SOL    HW294035  11.534  13.134   6.575
64066SOL     OW94036   1.531   2.577   2.961
64066SOL    HW194037   1.601   2.517   2.936
64066SOL    HW294038   1.566   2.626   3.035
64067SOL     OW94039   4.743  10.013  11.132
64067SOL    HW194040   4.726  10.000  11.039
64067SOL    HW294041   4.677   9.958  11.176
64068SOL     OW94042   2.414  10.746  12.428
64068SOL    HW194043   2.361  10.718  12.354
64068SOL    HW294044   2.461  10.823  12.397
64069SOL     OW94045   7.825   1.275   6.588
64069SOL    HW194046   7.862   1.262   6.675
64069SOL    HW294047   7.898   1.257   6.528
64070SOL     OW94048   8.381   6.749   2.313
64070SOL    HW194049   8.433   6.758   2.233
64070SOL    HW294050   8.387   6.656   2.334
64071SOL     OW94051  13.576   6.302   7.345
64071SOL    HW194052  13.506   6.348   7.391
64071SOL    HW294053  13.655   6.322   7.395
64072SOL     OW94054   2.999  12.604   8.980
64072SOL    HW194055   3.088  12.639   8.970
64072SOL    HW294056   2.942  12.667   8.937
64073SOL     OW94057  11.165  14.063  13.168
64073SOL    HW194058  11.129  14.151  13.179
64073SOL    HW294059  11.103  14.019  13.109
64074SOL     OW94060   0.321   3.830   4.687
64074SOL    HW194061   0.248   3.811   4.629
64074SOL    HW294062   0.385   3.875   4.632
64075SOL     OW94063   8.739   7.423   8.232
64075SOL    HW194064   8.659   7.431   8.178
64075SOL    HW294065   8.770   7.334   8.216
64076SOL     OW94066   6.524  11.579   0.533
64076SOL    HW194067   6.504  11.486   0.535
64076SOL    HW294068   6.485  11.614   0.613
64077SOL     OW94069  11.189  12.642   0.592
64077SOL    HW194070  11.227  12.587   0.524
64077SOL    HW294071  11.116  12.591   0.627
64078SOL     OW94072  10.462   1.384   2.824
64078SOL    HW194073  10.370   1.357   2.824
64078SOL    HW294074  10.510   1.305   2.799
64079SOL     OW94075   2.708   5.975   0.952
64079SOL    HW194076   2.716   5.884   0.981
64079SOL    HW294077   2.796   6.012   0.964
64080SOL     OW94078  10.514  11.800   0.451
64080SOL    HW194079  10.431  11.752   0.445
64080SOL    HW294080  10.561  11.777   0.371
64081SOL     OW94081   1.228  13.620   9.860
64081SOL    HW194082   1.263  13.698   9.903
64081SOL    HW294083   1.136  13.618   9.884
64082SOL     OW94084  10.732  11.786  14.382
64082SOL    HW194085  10.657  11.843  14.367
64082SOL    HW294086  10.763  11.810  14.470
64083SOL     OW94087  10.776   6.759   3.406
64083SOL    HW194088  10.856   6.715   3.435
64083SOL    HW294089  10.731   6.695   3.351
64084SOL     OW94090   4.214   5.110   4.768
64084SOL    HW194091   4.236   5.017   4.773
64084SOL    HW294092   4.121   5.114   4.789
64085SOL     OW94093   2.698   3.834   5.358
64085SOL    HW194094   2.764   3.842   5.427
64085SOL    HW294095   2.651   3.753   5.379
64086SOL     OW94096  13.460   2.811   2.893
64086SOL    HW194097  13.460   2.810   2.989
64086SOL    HW294098  13.412   2.890   2.870
64087SOL     OW94099  11.357  12.930   4.408
64087SOL    HW194100  11.267  12.960   4.395
64087SOL    HW294101  11.411  13.005   4.386
64088SOL     OW94102  14.153   4.272  10.683
64088SOL    HW194103  14.147   4.338  10.614
64088SOL    HW294104  14.242   4.237  10.675
64089SOL     OW94105   5.373   6.477  10.994
64089SOL    HW194106   5.368   6.497  11.087
64089SOL    HW294107   5.440   6.537  10.960
64090SOL     OW94108  11.667   8.179   7.382
64090SOL    HW194109  11.649   8.172   7.288
64090SOL    HW294110  11.618   8.256   7.410
64091SOL     OW94111  10.093   9.455   4.692
64091SOL    HW194112  10.179   9.424   4.721
64091SOL    HW294113  10.054   9.380   4.648
64092SOL     OW94114   7.785  12.077   5.694
64092SOL    HW194115   7.764  12.130   5.771
64092SOL    HW294116   7.878  12.056   5.706
64093SOL     OW94117   8.015   0.596   3.460
64093SOL    HW194118   7.994   0.673   3.512
64093SOL    HW294119   8.106   0.610   3.433
64094SOL     OW94120   8.499  13.238   6.598
64094SOL    HW194121   8.445  13.315   6.617
64094SOL    HW294122   8.547  13.262   6.518
64095SOL     OW94123   8.880   4.027   9.342
64095SOL    HW194124   8.931   4.071   9.275
64095SOL    HW294125   8.888   3.934   9.322
64096SOL     OW94126   0.862   2.491   0.126
64096SOL    HW194127   0.807   2.466   0.051
64096SOL    HW294128   0.832   2.580   0.148
64097SOL     OW94129  10.910   7.196  10.640
64097SOL    HW194130  10.833   7.200  10.697
64097SOL    HW294131  10.896   7.266  10.576
64098SOL     OW94132  12.413   1.035  12.362
64098SOL    HW194133  12.326   1.051  12.326
64098SOL    HW294134  12.466   1.008  12.287
64099SOL     OW94135   1.281   6.360   2.950
64099SOL    HW194136   1.348   6.299   2.980
64099SOL    HW294137   1.262   6.333   2.860
64100SOL     OW94138  10.098  12.457  11.990
64100SOL    HW194139  10.047  12.507  11.926
64100SOL    HW294140  10.179  12.506  12.001
64101SOL     OW94141  11.164   7.655  13.496
64101SOL    HW194142  11.186   7.743  13.526
64101SOL    HW294143  11.092   7.668  13.435
64102SOL     OW94144   5.142   6.531  13.093
64102SOL    HW194145   5.230   6.538  13.129
64102SOL    HW294146   5.087   6.579  13.154
64103SOL     OW94147  11.235   4.848   6.199
64103SOL    HW194148  11.144   4.855   6.229
64103SOL    HW294149  11.239   4.903   6.121
64104SOL     OW94150   2.354   5.544  14.475
64104SOL    HW194151   2.426   5.480  14.469
64104SOL    HW294152   2.277   5.495  14.446
64105SOL     OW94153   4.473   1.489   2.406
64105SOL    HW194154   4.548   1.490   2.465
64105SOL    HW294155   4.475   1.402   2.366
64106SOL     OW94156   9.100   5.295   8.715
64106SOL    HW194157   9.104   5.376   8.766
64106SOL    HW294158   9.150   5.315   8.635
64107SOL     OW94159   9.058   4.226  11.687
64107SOL    HW194160   9.113   4.172  11.630
64107SOL    HW294161   8.989   4.259  11.628
64108SOL     OW94162   1.595   2.499  13.706
64108SOL    HW194163   1.538   2.442  13.654
64108SOL    HW294164   1.539   2.531  13.777
64109SOL     OW94165   0.774  10.244  12.575
64109SOL    HW194166   0.801  10.333  12.597
64109SOL    HW294167   0.678  10.247  12.571
64110SOL     OW94168   0.774   5.364  12.610
64110SOL    HW194169   0.762   5.328  12.522
64110SOL    HW294170   0.691   5.347  12.654
64111SOL     OW94171  10.714  10.579   7.786
64111SOL    HW194172  10.769  10.603   7.861
64111SOL    HW294173  10.659  10.656   7.771
64112SOL     OW94174   4.944  11.527   4.963
64112SOL    HW194175   5.025  11.533   5.013
64112SOL    HW294176   4.878  11.568   5.019
64113SOL     OW94177   0.417   1.206   9.215
64113SOL    HW194178   0.500   1.179   9.254
64113SOL    HW294179   0.411   1.300   9.234
64114SOL     OW94180   2.873   7.611  13.453
64114SOL    HW194181   2.964   7.582  13.456
64114SOL    HW294182   2.871   7.692  13.505
64115SOL     OW94183   7.180  12.784   7.653
64115SOL    HW194184   7.164  12.731   7.575
64115SOL    HW294185   7.099  12.832   7.667
64116SOL     OW94186   5.098  14.023   5.428
64116SOL    HW194187   5.102  14.119   5.432
64116SOL    HW294188   5.018  14.000   5.475
64117SOL     OW94189  13.091   3.425   9.399
64117SOL    HW194190  13.120   3.493   9.459
64117SOL    HW294191  13.166   3.367   9.390
64118SOL     OW94192   4.335  12.372   1.008
64118SOL    HW194193   4.242  12.357   0.993
64118SOL    HW294194   4.340  12.465   1.031
64119SOL     OW94195   2.204   0.819   0.084
64119SOL    HW194196   2.277   0.872   0.116
64119SOL    HW294197   2.180   0.860   0.001
64120SOL     OW94198  13.112  13.760   0.864
64120SOL    HW194199  13.203  13.763   0.834
64120SOL    HW294200  13.067  13.704   0.801
64121SOL     OW94201  14.680  12.674   2.958
64121SOL    HW194202  14.654  12.682   3.050
64121SOL    HW294203  14.747  12.740   2.945
64122SOL     OW94204   0.443  13.035   2.315
64122SOL    HW194205   0.424  12.941   2.310
64122SOL    HW294206   0.404  13.071   2.235
64123SOL     OW94207   4.689  13.544   7.000
64123SOL    HW194208   4.613  13.601   7.009
64123SOL    HW294209   4.705  13.541   6.905
64124SOL     OW94210   4.974   7.761   7.854
64124SOL    HW194211   4.881   7.785   7.853
64124SOL    HW294212   4.993   7.741   7.945
64125SOL     OW94213  10.045  11.734  13.511
64125SOL    HW194214  10.011  11.822  13.523
64125SOL    HW294215  10.139  11.746  13.497
64126SOL     OW94216   9.463  14.107  13.386
64126SOL    HW194217   9.525  14.164  13.430
64126SOL    HW294218   9.449  14.034  13.447
64127SOL     OW94219   6.864  11.778   5.972
64127SOL    HW194220   6.846  11.843   5.904
64127SOL    HW294221   6.937  11.727   5.938
64128SOL     OW94222  11.537   8.906   1.706
64128SOL    HW194223  11.500   8.829   1.750
64128SOL    HW294224  11.497   8.981   1.749
64129SOL     OW94225  11.991  12.171   7.535
64129SOL    HW194226  12.055  12.127   7.479
64129SOL    HW294227  12.042  12.237   7.581
64130SOL     OW94228   7.763   2.157  11.296
64130SOL    HW194229   7.725   2.163  11.384
64130SOL    HW294230   7.788   2.247  11.274
64131SOL     OW94231  12.837   1.233  10.839
64131SOL    HW194232  12.882   1.214  10.921
64131SOL    HW294233  12.907   1.240  10.774
64132SOL     OW94234  10.771   5.486   7.321
64132SOL    HW194235  10.816   5.406   7.295
64132SOL    HW294236  10.690   5.456   7.362
64133SOL     OW94237   3.808   5.918  13.335
64133SOL    HW194238   3.797   5.827  13.362
64133SOL    HW294239   3.725   5.960  13.358
64134SOL     OW94240  13.039  11.106  13.315
64134SOL    HW194241  13.005  11.046  13.249
64134SOL    HW294242  12.961  11.150  13.349
64135SOL     OW94243  13.554   9.606  14.641
64135SOL    HW194244  13.618   9.621  14.711
64135SOL    HW294245  13.519   9.693  14.621
64136SOL     OW94246  13.042   1.423   0.440
64136SOL    HW194247  13.132   1.430   0.409
64136SOL    HW294248  13.008   1.344   0.398
64137SOL     OW94249   9.258  11.666  11.820
64137SOL    HW194250   9.179  11.672  11.765
64137SOL    HW294251   9.292  11.755  11.823
64138SOL     OW94252   9.354  13.521  13.444
64138SOL    HW194253   9.397  13.532  13.529
64138SOL    HW294254   9.383  13.595  13.391
64139SOL     OW94255  10.945   3.264   9.661
64139SOL    HW194256  10.969   3.247   9.752
64139SOL    HW294257  10.939   3.359   9.655
64140SOL     OW94258   8.074   6.521   3.440
64140SOL    HW194259   8.155   6.544   3.393
64140SOL    HW294260   8.097   6.441   3.489
64141SOL     OW94261  14.159  10.147  10.444
64141SOL    HW194262  14.151  10.232  10.486
64141SOL    HW294263  14.078  10.101  10.468
64142SOL     OW94264   7.677   7.933   2.822
64142SOL    HW194265   7.610   7.886   2.871
64142SOL    HW294266   7.644   8.023   2.817
64143SOL     OW94267   3.918   5.367   0.213
64143SOL    HW194268   3.909   5.447   0.266
64143SOL    HW294269   3.980   5.391   0.144
64144SOL     OW94270   3.230  13.580  10.777
64144SOL    HW194271   3.212  13.608  10.867
64144SOL    HW294272   3.261  13.490  10.785
64145SOL     OW94273   5.686   0.980   7.718
64145SOL    HW194274   5.682   1.006   7.810
64145SOL    HW294275   5.779   0.975   7.698
64146SOL     OW94276   5.875  14.649  10.837
64146SOL    HW194277   5.892  14.580  10.901
64146SOL    HW294278   5.956  14.654  10.786
64147SOL     OW94279   4.260   8.401   2.373
64147SOL    HW194280   4.305   8.357   2.301
64147SOL    HW294281   4.215   8.474   2.332
64148SOL     OW94282  13.953   0.302   4.372
64148SOL    HW194283  13.857   0.300   4.364
64148SOL    HW294284  13.974   0.225   4.425
64149SOL     OW94285   8.522  13.261   7.924
64149SOL    HW194286   8.488  13.173   7.943
64149SOL    HW294287   8.444  13.311   7.897
64150SOL     OW94288   5.376   8.491  13.449
64150SOL    HW194289   5.455   8.542  13.468
64150SOL    HW294290   5.312   8.523  13.513
64151SOL     OW94291  12.331   8.653  11.224
64151SOL    HW194292  12.248   8.701  11.228
64151SOL    HW294293  12.326   8.592  11.297
64152SOL     OW94294  10.260   6.742   3.823
64152SOL    HW194295  10.257   6.764   3.916
64152SOL    HW294296  10.184   6.786   3.785
64153SOL     OW94297   3.260  13.525   6.985
64153SOL    HW194298   3.325  13.460   7.011
64153SOL    HW294299   3.309  13.590   6.936
64154SOL     OW94300   3.804   6.710   4.033
64154SOL    HW194301   3.755   6.637   4.071
64154SOL    HW294302   3.789   6.703   3.939
64155SOL     OW94303  11.532   4.901  13.583
64155SOL    HW194304  11.583   4.887  13.503
64155SOL    HW294305  11.495   4.989  13.573
64156SOL     OW94306   2.444   1.040   1.094
64156SOL    HW194307   2.396   1.060   1.013
64156SOL    HW294308   2.527   1.003   1.063
64157SOL     OW94309   8.661   1.686   7.260
64157SOL    HW194310   8.691   1.733   7.338
64157SOL    HW294311   8.585   1.636   7.290
64158SOL     OW94312  13.706   9.325   6.966
64158SOL    HW194313  13.685   9.293   6.878
64158SOL    HW294314  13.730   9.246   7.015
64159SOL     OW94315   7.901  11.622   9.271
64159SOL    HW194316   7.986  11.581   9.256
64159SOL    HW294317   7.919  11.716   9.266
64160SOL     OW94318   9.653   1.742   8.947
64160SOL    HW194319   9.743   1.732   8.978
64160SOL    HW294320   9.616   1.654   8.951
64161SOL     OW94321  12.299  14.498   3.730
64161SOL    HW194322  12.307  14.563   3.800
64161SOL    HW294323  12.389  14.478   3.705
64162SOL     OW94324   1.921   3.684  14.083
64162SOL    HW194325   1.932   3.648  14.171
64162SOL    HW294326   1.827   3.702  14.077
64163SOL     OW94327   3.931   1.991   4.216
64163SOL    HW194328   3.972   2.053   4.156
64163SOL    HW294329   3.997   1.923   4.229
64164SOL     OW94330  10.268  12.450   5.768
64164SOL    HW194331  10.308  12.477   5.686
64164SOL    HW294332  10.182  12.493   5.768
64165SOL     OW94333  12.775   3.275  10.181
64165SOL    HW194334  12.771   3.253  10.088
64165SOL    HW294335  12.750   3.368  10.185
64166SOL     OW94336   8.044   1.297  13.682
64166SOL    HW194337   8.023   1.357  13.611
64166SOL    HW294338   7.970   1.236  13.684
64167SOL     OW94339   3.343   5.191   7.968
64167SOL    HW194340   3.298   5.230   7.893
64167SOL    HW294341   3.321   5.248   8.041
64168SOL     OW94342   9.987  12.258  11.286
64168SOL    HW194343   9.995  12.172  11.327
64168SOL    HW294344   9.920  12.303  11.337
64169SOL     OW94345  13.288   4.282  13.979
64169SOL    HW194346  13.202   4.246  13.956
64169SOL    HW294347  13.350   4.216  13.947
64170SOL     OW94348   4.627   8.897   0.216
64170SOL    HW194349   4.583   8.918   0.134
64170SOL    HW294350   4.717   8.876   0.190
64171SOL     OW94351   4.614   8.053   1.098
64171SOL    HW194352   4.545   8.007   1.051
64171SOL    HW294353   4.637   7.995   1.170
64172SOL     OW94354   4.602   5.225  14.593
64172SOL    HW194355   4.691   5.191  14.601
64172SOL    HW294356   4.555   5.189  14.669
64173SOL     OW94357   2.804   5.464   0.564
64173SOL    HW194358   2.845   5.543   0.599
64173SOL    HW294359   2.876   5.402   0.555
64174SOL     OW94360   8.618   2.566  12.049
64174SOL    HW194361   8.594   2.644  11.998
64174SOL    HW294362   8.658   2.601  12.128
64175SOL     OW94363   6.072   8.984   8.139
64175SOL    HW194364   5.976   8.978   8.142
64175SOL    HW294365   6.090   9.078   8.150
64176SOL     OW94366   7.979   0.651   1.809
64176SOL    HW194367   8.041   0.716   1.776
64176SOL    HW294368   8.034   0.587   1.855
64177SOL     OW94369  13.457   1.889   5.228
64177SOL    HW194370  13.525   1.886   5.161
64177SOL    HW294371  13.424   1.799   5.232
64178SOL     OW94372   3.144   9.708  12.233
64178SOL    HW194373   3.182   9.633  12.186
64178SOL    HW294374   3.065   9.729  12.183
64179SOL     OW94375   1.133   4.167   2.476
64179SOL    HW194376   1.196   4.169   2.548
64179SOL    HW294377   1.066   4.106   2.504
64180SOL     OW94378  14.356  10.111   1.482
64180SOL    HW194379  14.440  10.069   1.463
64180SOL    HW294380  14.375  10.174   1.550
64181SOL     OW94381   1.336   0.670   3.844
64181SOL    HW194382   1.431   0.678   3.834
64181SOL    HW294383   1.320   0.686   3.937
64182SOL     OW94384  13.261   6.831  13.501
64182SOL    HW194385  13.250   6.795  13.413
64182SOL    HW294386  13.279   6.924  13.487
64183SOL     OW94387   7.744   4.879   0.806
64183SOL    HW194388   7.749   4.889   0.901
64183SOL    HW294389   7.835   4.886   0.776
64184SOL     OW94390  11.918   2.368   3.338
64184SOL    HW194391  11.898   2.462   3.333
64184SOL    HW294392  11.975   2.352   3.263
64185SOL     OW94393   7.541   4.183  13.004
64185SOL    HW194394   7.569   4.270  12.976
64185SOL    HW294395   7.598   4.123  12.955
64186SOL     OW94396  12.394  13.843   1.638
64186SOL    HW194397  12.427  13.914   1.582
64186SOL    HW294398  12.348  13.784   1.578
64187SOL     OW94399   0.595  14.224   5.593
64187SOL    HW194400   0.536  14.233   5.668
64187SOL    HW294401   0.636  14.139   5.605
64188SOL     OW94402   8.902   2.016  11.960
64188SOL    HW194403   8.872   2.017  11.869
64188SOL    HW294404   8.851   1.946  12.001
64189SOL     OW94405   3.860   8.992   5.557
64189SOL    HW194406   3.887   8.932   5.627
64189SOL    HW294407   3.769   8.969   5.540
64190SOL     OW94408   7.365  10.031   1.965
64190SOL    HW194409   7.380  10.063   1.877
64190SOL    HW294410   7.269  10.028   1.974
64191SOL     OW94411   8.371   0.618  12.138
64191SOL    HW194412   8.436   0.586  12.075
64191SOL    HW294413   8.408   0.598  12.224
64192SOL     OW94414  13.232   2.455   6.354
64192SOL    HW194415  13.217   2.395   6.282
64192SOL    HW294416  13.154   2.511   6.356
64193SOL     OW94417   2.832   9.534   5.643
64193SOL    HW194418   2.783   9.591   5.703
64193SOL    HW294419   2.784   9.452   5.644
64194SOL     OW94420  12.575   7.055   9.041
64194SOL    HW194421  12.543   7.123   9.101
64194SOL    HW294422  12.507   6.988   9.044
64195SOL     OW94423   9.582   6.450   2.915
64195SOL    HW194424   9.662   6.397   2.916
64195SOL    HW294425   9.582   6.492   2.829
64196SOL     OW94426   2.036  10.517  14.321
64196SOL    HW194427   2.099  10.552  14.258
64196SOL    HW294428   2.090  10.471  14.385
64197SOL     OW94429   9.174  11.024   8.954
64197SOL    HW194430   9.114  10.956   8.983
64197SOL    HW294431   9.248  10.977   8.916
64198SOL     OW94432  12.890   7.045  13.300
64198SOL    HW194433  12.905   7.096  13.379
64198SOL    HW294434  12.908   6.954  13.326
64199SOL     OW94435   3.707  12.117   7.791
64199SOL    HW194436   3.667  12.136   7.706
64199SOL    HW294437   3.681  12.191   7.847
64200SOL     OW94438   9.023   5.470  11.721
64200SOL    HW194439   9.007   5.380  11.749
64200SOL    HW294440   9.118   5.475  11.711
64201SOL     OW94441   3.160   4.519   8.921
64201SOL    HW194442   3.204   4.497   8.839
64201SOL    HW294443   3.069   4.490   8.907
64202SOL     OW94444   6.043   2.542  13.026
64202SOL    HW194445   5.964   2.589  13.001
64202SOL    HW294446   6.114   2.603  13.010
64203SOL     OW94447  10.472  14.390   9.059
64203SOL    HW194448  10.380  14.415   9.059
64203SOL    HW294449  10.484  14.342   9.141
64204SOL     OW94450   6.537   3.891   6.471
64204SOL    HW194451   6.486   3.848   6.539
64204SOL    HW294452   6.593   3.953   6.518
64205SOL     OW94453   2.563   2.795   0.494
64205SOL    HW194454   2.654   2.776   0.517
64205SOL    HW294455   2.569   2.859   0.423
64206SOL     OW94456   4.356   6.321   3.813
64206SOL    HW194457   4.437   6.275   3.837
64206SOL    HW294458   4.301   6.313   3.891
64207SOL     OW94459   4.432   1.316   8.208
64207SOL    HW194460   4.430   1.242   8.148
64207SOL    HW294461   4.488   1.287   8.280
64208SOL     OW94462  14.052   7.210   3.297
64208SOL    HW194463  14.112   7.150   3.252
64208SOL    HW294464  13.973   7.158   3.312
64209SOL     OW94465   1.090  14.114  10.415
64209SOL    HW194466   1.050  14.051  10.476
64209SOL    HW294467   1.021  14.132  10.351
64210SOL     OW94468   1.926   2.403  10.392
64210SOL    HW194469   2.020   2.386  10.401
64210SOL    HW294470   1.918   2.448  10.308
64211SOL     OW94471   8.842  12.433  10.914
64211SOL    HW194472   8.790  12.397  10.842
64211SOL    HW294473   8.885  12.509  10.877
64212SOL     OW94474  10.148  13.843   4.179
64212SOL    HW194475  10.197  13.919   4.211
64212SOL    HW294476  10.193  13.817   4.098
64213SOL     OW94477   7.922   7.659  13.887
64213SOL    HW194478   7.917   7.581  13.941
64213SOL    HW294479   7.936   7.731  13.949
64214SOL     OW94480   7.313   4.435   4.991
64214SOL    HW194481   7.248   4.419   5.059
64214SOL    HW294482   7.268   4.492   4.928
64215SOL     OW94483   5.461   3.659   6.049
64215SOL    HW194484   5.445   3.718   6.123
64215SOL    HW294485   5.477   3.717   5.975
64216SOL     OW94486   2.306   4.305  11.327
64216SOL    HW194487   2.291   4.239  11.394
64216SOL    HW294488   2.369   4.366  11.365
64217SOL     OW94489  14.614  12.832  10.912
64217SOL    HW194490  14.596  12.748  10.870
64217SOL    HW294491  14.692  12.816  10.965
64218SOL     OW94492   0.734   4.339   4.565
64218SOL    HW194493   0.662   4.302   4.617
64218SOL    HW294494   0.796   4.373   4.630
64219SOL     OW94495  11.150   8.278  11.564
64219SOL    HW194496  11.074   8.327  11.594
64219SOL    HW294497  11.177   8.321  11.482
64220SOL     OW94498   6.610   8.505   9.351
64220SOL    HW194499   6.629   8.519   9.258
64220SOL    HW294500   6.549   8.432   9.352
64221SOL     OW94501   6.356  12.013  13.103
64221SOL    HW194502   6.435  11.966  13.132
64221SOL    HW294503   6.345  11.987  13.011
64222SOL     OW94504  14.634   5.834   5.276
64222SOL    HW194505  14.560   5.829   5.337
64222SOL    HW294506  14.648   5.743   5.249
64223SOL     OW94507  13.724   2.767   5.197
64223SOL    HW194508  13.809   2.758   5.154
64223SOL    HW294509  13.706   2.680   5.234
64224SOL     OW94510   7.846   5.773   3.154
64224SOL    HW194511   7.757   5.763   3.187
64224SOL    HW294512   7.879   5.684   3.143
64225SOL     OW94513   4.110   4.709  14.727
64225SOL    HW194514   4.045   4.639  14.729
64225SOL    HW294515   4.059   4.789  14.710
64226SOL     OW94516   5.056   5.638   9.621
64226SOL    HW194517   5.062   5.571   9.553
64226SOL    HW294518   5.112   5.709   9.590
64227SOL     OW94519   0.219   4.134  14.600
64227SOL    HW194520   0.247   4.176  14.518
64227SOL    HW294521   0.133   4.096  14.579
64228SOL     OW94522   9.976   5.350   6.720
64228SOL    HW194523   9.887   5.339   6.686
64228SOL    HW294524   9.966   5.350   6.815
64229SOL     OW94525   2.628  10.278   6.214
64229SOL    HW194526   2.617  10.369   6.241
64229SOL    HW294527   2.609  10.227   6.293
64230SOL     OW94528   6.081   2.204   6.871
64230SOL    HW194529   6.088   2.213   6.776
64230SOL    HW294530   6.157   2.153   6.897
64231SOL     OW94531  13.903   3.725   5.683
64231SOL    HW194532  13.945   3.667   5.747
64231SOL    HW294533  13.868   3.797   5.736
64232SOL     OW94534   6.025  11.373   4.898
64232SOL    HW194535   6.003  11.289   4.940
64232SOL    HW294536   6.005  11.439   4.965
64233SOL     OW94537   7.116   0.407  11.840
64233SOL    HW194538   7.078   0.495  11.831
64233SOL    HW294539   7.041   0.348  11.836
64234SOL     OW94540   8.024   7.847  14.066
64234SOL    HW194541   7.958   7.912  14.042
64234SOL    HW294542   8.034   7.858  14.161
64235SOL     OW94543   3.963   6.375   1.698
64235SOL    HW194544   3.874   6.340   1.694
64235SOL    HW294545   3.952   6.470   1.697
64236SOL     OW94546   0.877   4.335  11.004
64236SOL    HW194547   0.827   4.361  11.081
64236SOL    HW294548   0.964   4.314  11.037
64237SOL     OW94549   2.064  11.250  13.909
64237SOL    HW194550   1.984  11.226  13.956
64237SOL    HW294551   2.087  11.336  13.945
64238SOL     OW94552  10.314  10.138   3.806
64238SOL    HW194553  10.335  10.231   3.818
64238SOL    HW294554  10.328  10.099   3.892
64239SOL     OW94555   8.924   4.544   9.228
64239SOL    HW194556   8.961   4.470   9.179
64239SOL    HW294557   8.890   4.506   9.308
64240SOL     OW94558   3.942   7.505  14.182
64240SOL    HW194559   3.899   7.476  14.263
64240SOL    HW294560   3.881   7.483  14.113
64241SOL     OW94561   8.755   2.698  12.251
64241SOL    HW194562   8.838   2.685  12.296
64241SOL    HW294563   8.755   2.790  12.226
64242SOL     OW94564   5.305   1.780   7.795
64242SOL    HW194565   5.272   1.712   7.736
64242SOL    HW294566   5.389   1.807   7.757
64243SOL     OW94567  14.668  10.299   5.341
64243SOL    HW194568  14.600  10.308   5.274
64243SOL    HW294569  14.619  10.293   5.424
64244SOL     OW94570   9.839   7.865  10.250
64244SOL    HW194571   9.806   7.777  10.268
64244SOL    HW294572   9.827   7.912  10.333
64245SOL     OW94573   4.942  11.887   5.307
64245SOL    HW194574   4.956  11.804   5.262
64245SOL    HW294575   5.010  11.945   5.271
64246SOL     OW94576  10.368   8.838  13.115
64246SOL    HW194577  10.463   8.848  13.104
64246SOL    HW294578  10.334   8.832  13.025
64247SOL     OW94579   3.300  11.077   0.038
64247SOL    HW194580   3.292  11.156  14.858
64247SOL    HW294581   3.312  11.006  14.848
64248SOL     OW94582  11.163   7.149   3.263
64248SOL    HW194583  11.202   7.211   3.325
64248SOL    HW294584  11.200   7.064   3.287
64249SOL     OW94585   8.998   3.587  14.312
64249SOL    HW194586   9.054   3.617  14.241
64249SOL    HW294587   9.059   3.555  14.379
64250SOL     OW94588   0.920   8.629  14.826
64250SOL    HW194589   0.900   8.592   0.039
64250SOL    HW294590   0.872   8.573  14.765
64251SOL     OW94591   2.592   7.397   3.069
64251SOL    HW194592   2.519   7.440   3.113
64251SOL    HW294593   2.554   7.362   2.988
64252SOL     OW94594   1.903   8.502   2.792
64252SOL    HW194595   1.998   8.514   2.782
64252SOL    HW294596   1.865   8.581   2.752
64253SOL     OW94597  12.188  13.325   6.835
64253SOL    HW194598  12.230  13.395   6.786
64253SOL    HW294599  12.248  13.305   6.906
64254SOL     OW94600  12.177   1.331  13.025
64254SOL    HW194601  12.176   1.329  12.929
64254SOL    HW294602  12.266   1.357  13.048
64255SOL     OW94603   8.024  10.286   5.256
64255SOL    HW194604   8.019  10.252   5.166
64255SOL    HW294605   7.939  10.265   5.295
64256SOL     OW94606  13.650   9.712   1.252
64256SOL    HW194607  13.636   9.680   1.163
64256SOL    HW294608  13.617   9.642   1.308
64257SOL     OW94609   5.802   9.874  11.549
64257SOL    HW194610   5.774   9.939  11.613
64257SOL    HW294611   5.871   9.824  11.595
64258SOL     OW94612  13.262  10.413  13.137
64258SOL    HW194613  13.172  10.382  13.127
64258SOL    HW294614  13.305  10.345  13.188
64259SOL     OW94615  13.224  10.129   7.995
64259SOL    HW194616  13.224  10.171   7.910
64259SOL    HW294617  13.255  10.196   8.056
64260SOL     OW94618   2.590  14.473  10.605
64260SOL    HW194619   2.529  14.416  10.559
64260SOL    HW294620   2.674  14.457  10.562
64261SOL     OW94621   5.507  11.009   8.881
64261SOL    HW194622   5.554  11.009   8.965
64261SOL    HW294623   5.553  10.944   8.828
64262SOL     OW94624   9.983   9.898   1.269
64262SOL    HW194625   9.920   9.829   1.290
64262SOL    HW294626   9.929   9.974   1.246
64263SOL     OW94627   5.465   7.494   5.084
64263SOL    HW194628   5.560   7.491   5.071
64263SOL    HW294629   5.431   7.423   5.029
64264SOL     OW94630  11.570  11.187   8.549
64264SOL    HW194631  11.555  11.121   8.616
64264SOL    HW294632  11.513  11.161   8.476
64265SOL     OW94633   5.260   5.986   0.048
64265SOL    HW194634   5.187   6.023  14.872
64265SOL    HW294635   5.223   5.961   0.133
64266SOL     OW94636  13.531  14.530   3.527
64266SOL    HW194637  13.447  14.521   3.572
64266SOL    HW294638  13.584  14.584   3.586
64267SOL     OW94639  10.809  11.064  14.443
64267SOL    HW194640  10.760  11.010  14.381
64267SOL    HW294641  10.752  11.070  14.520
64268SOL     OW94642   7.038  11.588  10.252
64268SOL    HW194643   7.000  11.644  10.319
64268SOL    HW294644   7.087  11.522  10.301
64269SOL     OW94645   1.997   5.732  13.620
64269SOL    HW194646   1.959   5.646  13.601
64269SOL    HW294647   1.935   5.771  13.682
64270SOL     OW94648   9.717   0.281  11.542
64270SOL    HW194649   9.805   0.264  11.577
64270SOL    HW294650   9.698   0.371  11.569
64271SOL     OW94651   6.415  13.062   9.533
64271SOL    HW194652   6.474  13.127   9.496
64271SOL    HW294653   6.330  13.107   9.538
64272SOL     OW94654   2.827  12.039   7.975
64272SOL    HW194655   2.799  12.101   8.043
64272SOL    HW294656   2.837  11.956   8.022
64273SOL     OW94657   6.760   2.547   4.138
64273SOL    HW194658   6.719   2.466   4.170
64273SOL    HW294659   6.853   2.528   4.137
64274SOL     OW94660   4.018   9.302  11.943
64274SOL    HW194661   4.014   9.257  12.027
64274SOL    HW294662   3.957   9.375  11.952
64275SOL     OW94663   9.610  14.835   7.022
64275SOL    HW194664   9.655  14.799   7.098
64275SOL    HW294665   9.662  14.806   6.947
64276SOL     OW94666  10.702   2.405  13.270
64276SOL    HW194667  10.633   2.357  13.224
64276SOL    HW294668  10.656   2.473  13.319
64277SOL     OW94669   7.476   9.675   4.211
64277SOL    HW194670   7.408   9.742   4.219
64277SOL    HW294671   7.534   9.692   4.286
64278SOL     OW94672  10.292   2.431   3.549
64278SOL    HW194673  10.249   2.353   3.515
64278SOL    HW294674  10.328   2.404   3.634
64279SOL     OW94675   1.975   5.797   8.500
64279SOL    HW194676   1.993   5.778   8.592
64279SOL    HW294677   1.909   5.866   8.501
64280SOL     OW94678   4.134  10.040   9.730
64280SOL    HW194679   4.202  10.097   9.766
64280SOL    HW294680   4.143   9.958   9.779
64281SOL     OW94681   0.202  12.220   2.054
64281SOL    HW194682   0.218  12.306   2.094
64281SOL    HW294683   0.273  12.209   1.992
64282SOL     OW94684   9.022   6.779  14.723
64282SOL    HW194685   8.986   6.740  14.803
64282SOL    HW294686   9.113   6.800  14.745
64283SOL     OW94687   6.359  10.945  13.222
64283SOL    HW194688   6.373  10.926  13.129
64283SOL    HW294689   6.396  11.032  13.234
64284SOL     OW94690  13.979   3.028   5.495
64284SOL    HW194691  14.020   2.977   5.425
64284SOL    HW294692  14.003   2.981   5.575
64285SOL     OW94693   2.532   8.900   9.961
64285SOL    HW194694   2.505   8.976  10.012
64285SOL    HW294695   2.474   8.899   9.885
64286SOL     OW94696   9.781   4.805  12.892
64286SOL    HW194697   9.868   4.795  12.853
64286SOL    HW294698   9.723   4.753  12.836
64287SOL     OW94699   4.546   2.334   8.796
64287SOL    HW194700   4.560   2.293   8.882
64287SOL    HW294701   4.494   2.412   8.815
64288SOL     OW94702   2.300   0.472  10.512
64288SOL    HW194703   2.374   0.437  10.563
64288SOL    HW294704   2.328   0.465  10.421
64289SOL     OW94705   7.339   4.941   1.148
64289SOL    HW194706   7.257   4.991   1.155
64289SOL    HW294707   7.407   5.003   1.175
64290SOL     OW94708  13.563   9.253   8.238
64290SOL    HW194709  13.563   9.169   8.283
64290SOL    HW294710  13.504   9.308   8.290
64291SOL     OW94711  13.874  12.564   6.569
64291SOL    HW194712  13.846  12.639   6.620
64291SOL    HW294713  13.818  12.492   6.599
64292SOL     OW94714   8.259   3.272   4.151
64292SOL    HW194715   8.323   3.291   4.220
64292SOL    HW294716   8.226   3.357   4.124
64293SOL     OW94717   6.308   9.373   4.899
64293SOL    HW194718   6.382   9.431   4.878
64293SOL    HW294719   6.347   9.302   4.950
64294SOL     OW94720   4.550  12.907   7.925
64294SOL    HW194721   4.552  12.820   7.885
64294SOL    HW294722   4.483  12.954   7.876
64295SOL     OW94723   2.041  14.418   4.142
64295SOL    HW194724   2.081  14.489   4.192
64295SOL    HW294725   2.081  14.424   4.055
64296SOL     OW94726   2.866  11.208   2.870
64296SOL    HW194727   2.859  11.294   2.828
64296SOL    HW294728   2.959  11.189   2.870
64297SOL     OW94729   9.589  10.767  14.661
64297SOL    HW194730   9.654  10.804  14.721
64297SOL    HW294731   9.545  10.843  14.624
64298SOL     OW94732  11.943   2.600   7.301
64298SOL    HW194733  11.922   2.574   7.390
64298SOL    HW294734  12.029   2.560   7.284
64299SOL     OW94735  10.128   7.500   2.015
64299SOL    HW194736  10.129   7.407   2.038
64299SOL    HW294737  10.216   7.517   1.981
64300SOL     OW94738  12.256  12.479  13.477
64300SOL    HW194739  12.203  12.516  13.407
64300SOL    HW294740  12.231  12.529  13.555
64301SOL     OW94741   0.847   4.621   5.215
64301SOL    HW194742   0.760   4.652   5.192
64301SOL    HW294743   0.833   4.562   5.289
64302SOL     OW94744  11.800   5.714   2.366
64302SOL    HW194745  11.738   5.651   2.403
64302SOL    HW294746  11.885   5.670   2.373
64303SOL     OW94747  10.227   1.464   8.843
64303SOL    HW194748  10.235   1.530   8.774
64303SOL    HW294749  10.199   1.513   8.920
64304SOL     OW94750   2.912  14.531   1.515
64304SOL    HW194751   2.874  14.483   1.589
64304SOL    HW294752   2.994  14.484   1.496
64305SOL     OW94753  12.739   3.839   0.424
64305SOL    HW194754  12.652   3.875   0.406
64305SOL    HW294755  12.745   3.836   0.519
64306SOL     OW94756   2.276  13.495   6.160
64306SOL    HW194757   2.185  13.499   6.131
64306SOL    HW294758   2.294  13.584   6.192
64307SOL     OW94759   7.342  12.914  14.471
64307SOL    HW194760   7.253  12.884  14.455
64307SOL    HW294761   7.381  12.847  14.527
64308SOL     OW94762   3.472  11.928   8.106
64308SOL    HW194763   3.494  11.900   8.017
64308SOL    HW294764   3.378  11.915   8.113
64309SOL     OW94765   0.603   0.142  14.659
64309SOL    HW194766   0.649   0.079  14.713
64309SOL    HW294767   0.568   0.090  14.586
64310SOL     OW94768   6.618  13.459   6.829
64310SOL    HW194769   6.572  13.532   6.870
64310SOL    HW294770   6.698  13.498   6.793
64311SOL     OW94771   3.697   2.802  10.658
64311SOL    HW194772   3.645   2.728  10.690
64311SOL    HW294773   3.644   2.839  10.587
64312SOL     OW94774   8.481   1.130   9.332
64312SOL    HW194775   8.423   1.204   9.347
64312SOL    HW294776   8.557   1.167   9.287
64313SOL     OW94777   2.629   6.687  14.383
64313SOL    HW194778   2.536   6.686  14.406
64313SOL    HW294779   2.674   6.672  14.467
64314SOL     OW94780   9.095   2.643  12.227
64314SOL    HW194781   9.040   2.599  12.291
64314SOL    HW294782   9.079   2.597  12.145
64315SOL     OW94783   1.297  12.044   9.916
64315SOL    HW194784   1.391  12.065   9.917
64315SOL    HW294785   1.259  12.107   9.977
64316SOL     OW94786  13.753  12.187   9.649
64316SOL    HW194787  13.734  12.281   9.644
64316SOL    HW294788  13.848  12.182   9.645
64317SOL     OW94789   2.849   8.593   0.474
64317SOL    HW194790   2.816   8.538   0.402
64317SOL    HW294791   2.780   8.591   0.539
64318SOL     OW94792   4.139  13.517   5.488
64318SOL    HW194793   4.166  13.445   5.431
64318SOL    HW294794   4.108  13.474   5.567
64319SOL     OW94795   6.849   1.360   3.614
64319SOL    HW194796   6.881   1.438   3.568
64319SOL    HW294797   6.753   1.366   3.608
64320SOL     OW94798  13.832   2.595   9.707
64320SOL    HW194799  13.881   2.566   9.630
64320SOL    HW294800  13.780   2.669   9.676
64321SOL     OW94801  12.091   9.287  10.944
64321SOL    HW194802  12.014   9.343  10.950
64321SOL    HW294803  12.097   9.264  10.851
64322SOL     OW94804   5.841   9.790   9.297
64322SOL    HW194805   5.870   9.702   9.320
64322SOL    HW294806   5.921   9.836   9.271
64323SOL     OW94807   6.380  12.908   4.509
64323SOL    HW194808   6.424  12.993   4.521
64323SOL    HW294809   6.367  12.902   4.415
64324SOL     OW94810   2.603   7.261  12.363
64324SOL    HW194811   2.584   7.340  12.413
64324SOL    HW294812   2.668   7.289  12.297
64325SOL     OW94813   2.238   5.476  14.144
64325SOL    HW194814   2.261   5.445  14.056
64325SOL    HW294815   2.295   5.552  14.158
64326SOL     OW94816  11.616  12.399  12.506
64326SOL    HW194817  11.711  12.395  12.494
64326SOL    HW294818  11.594  12.319  12.554
64327SOL     OW94819   2.776   4.071  13.978
64327SOL    HW194820   2.707   4.005  13.969
64327SOL    HW294821   2.736   4.141  14.031
64328SOL     OW94822  14.636   2.633   4.819
64328SOL    HW194823  14.708   2.609   4.760
64328SOL    HW294824  14.560   2.587   4.783
64329SOL     OW94825  14.452  12.739  13.212
64329SOL    HW194826  14.519  12.788  13.259
64329SOL    HW294827  14.498  12.697  13.139
64330SOL     OW94828   1.754   0.730   9.975
64330SOL    HW194829   1.832   0.760  10.020
64330SOL    HW294830   1.785   0.700   9.890
64331SOL     OW94831   3.084  13.471   6.522
64331SOL    HW194832   2.993  13.441   6.529
64331SOL    HW294833   3.104  13.467   6.428
64332SOL     OW94834   3.610  13.244  10.656
64332SOL    HW194835   3.559  13.253  10.576
64332SOL    HW294836   3.634  13.151  10.658
64333SOL     OW94837   0.787   6.577   1.876
64333SOL    HW194838   0.820   6.665   1.894
64333SOL    HW294839   0.786   6.571   1.780
64334SOL     OW94840   0.311   2.912   7.111
64334SOL    HW194841   0.297   2.892   7.204
64334SOL    HW294842   0.224   2.936   7.079
64335SOL     OW94843   9.798  11.206  13.397
64335SOL    HW194844   9.823  11.241  13.482
64335SOL    HW294845   9.879  11.206  13.346
64336SOL     OW94846   7.506   5.169   2.459
64336SOL    HW194847   7.474   5.203   2.375
64336SOL    HW294848   7.601   5.165   2.449
64337SOL     OW94849   7.978   1.492  11.232
64337SOL    HW194850   7.934   1.567  11.193
64337SOL    HW294851   8.035   1.530  11.298
64338SOL     OW94852   6.024   9.259  10.165
64338SOL    HW194853   6.037   9.227  10.255
64338SOL    HW294854   6.113   9.273  10.132
64339SOL     OW94855  10.725   8.937   0.710
64339SOL    HW194856  10.769   8.855   0.689
64339SOL    HW294857  10.795   9.001   0.716
64340SOL     OW94858   5.154  13.490   7.563
64340SOL    HW194859   5.090  13.492   7.634
64340SOL    HW294860   5.161  13.398   7.540
64341SOL     OW94861   2.222  10.509  13.950
64341SOL    HW194862   2.230  10.569  13.876
64341SOL    HW294863   2.129  10.515  13.975
64342SOL     OW94864   6.738   9.673   4.986
64342SOL    HW194865   6.785   9.632   4.913
64342SOL    HW294866   6.805   9.685   5.053
64343SOL     OW94867   9.541  10.170  10.293
64343SOL    HW194868   9.457  10.199  10.329
64343SOL    HW294869   9.530  10.178  10.198
64344SOL     OW94870   8.288   9.827  10.295
64344SOL    HW194871   8.237   9.796  10.370
64344SOL    HW294872   8.223   9.858  10.232
64345SOL     OW94873   2.783   4.365   9.909
64345SOL    HW194874   2.840   4.441   9.905
64345SOL    HW294875   2.711   4.386   9.849
64346SOL     OW94876   4.880   6.736  12.559
64346SOL    HW194877   4.970   6.752  12.532
64346SOL    HW294878   4.860   6.809  12.618
64347SOL     OW94879   3.590   4.761   8.970
64347SOL    HW194880   3.682   4.780   8.989
64347SOL    HW294881   3.584   4.665   8.975
64348SOL     OW94882   5.691   8.382   1.193
64348SOL    HW194883   5.656   8.394   1.105
64348SOL    HW294884   5.696   8.470   1.230
64349SOL     OW94885   3.508   3.565   1.941
64349SOL    HW194886   3.512   3.577   2.035
64349SOL    HW294887   3.568   3.630   1.905
64350SOL     OW94888  11.337  10.089   9.765
64350SOL    HW194889  11.409  10.124   9.818
64350SOL    HW294890  11.297  10.022   9.821
64351SOL     OW94891   1.273   8.618   5.401
64351SOL    HW194892   1.359   8.598   5.364
64351SOL    HW294893   1.227   8.664   5.331
64352SOL     OW94894   0.869   8.928   4.578
64352SOL    HW194895   0.938   8.892   4.634
64352SOL    HW294896   0.807   8.855   4.566
64353SOL     OW94897   4.019  10.626   5.418
64353SOL    HW194898   4.010  10.694   5.351
64353SOL    HW294899   3.973  10.662   5.494
64354SOL     OW94900   3.611   8.270   0.253
64354SOL    HW194901   3.694   8.239   0.216
64354SOL    HW294902   3.630   8.358   0.284
64355SOL     OW94903   3.656  12.008  12.196
64355SOL    HW194904   3.566  12.033  12.175
64355SOL    HW294905   3.704  12.019  12.114
64356SOL     OW94906   4.099   2.515  13.983
64356SOL    HW194907   4.120   2.607  13.972
64356SOL    HW294908   4.183   2.472  13.997
64357SOL     OW94909  11.389   6.414   5.562
64357SOL    HW194910  11.353   6.378   5.481
64357SOL    HW294911  11.473   6.453   5.535
64358SOL     OW94912   2.440   6.929   3.189
64358SOL    HW194913   2.498   6.860   3.155
64358SOL    HW294914   2.429   6.908   3.281
64359SOL     OW94915  14.786   7.693   8.072
64359SOL    HW194916  14.809   7.767   8.016
64359SOL    HW294917  14.871   7.660   8.103
64360SOL     OW94918   3.347  13.250   2.087
64360SOL    HW194919   3.377  13.168   2.127
64360SOL    HW294920   3.256  13.258   2.115
64361SOL     OW94921   5.701   0.216   1.551
64361SOL    HW194922   5.662   0.221   1.638
64361SOL    HW294923   5.705   0.122   1.532
64362SOL     OW94924   2.818   5.108  12.630
64362SOL    HW194925   2.726   5.105  12.655
64362SOL    HW294926   2.865   5.075  12.707
64363SOL     OW94927  11.473   7.913   7.121
64363SOL    HW194928  11.431   7.843   7.070
64363SOL    HW294929  11.507   7.869   7.199
64364SOL     OW94930   3.083  13.793  13.518
64364SOL    HW194931   3.108  13.816  13.428
64364SOL    HW294932   3.004  13.739  13.507
64365SOL     OW94933   3.702   5.581  10.662
64365SOL    HW194934   3.743   5.640  10.598
64365SOL    HW294935   3.636   5.636  10.706
64366SOL     OW94936   5.712  12.122  11.866
64366SOL    HW194937   5.680  12.206  11.833
64366SOL    HW294938   5.668  12.057  11.812
64367SOL     OW94939  13.765   4.071  13.524
64367SOL    HW194940  13.825   4.077  13.449
64367SOL    HW294941  13.682   4.045  13.486
64368SOL     OW94942   5.934   7.504   4.215
64368SOL    HW194943   5.969   7.507   4.304
64368SOL    HW294944   5.967   7.583   4.173
64369SOL     OW94945   9.608  13.723   5.939
64369SOL    HW194946   9.642  13.693   5.855
64369SOL    HW294947   9.676  13.699   6.003
64370SOL     OW94948  12.212  11.938   7.707
64370SOL    HW194949  12.132  11.975   7.743
64370SOL    HW294950  12.282  11.994   7.740
64371SOL     OW94951   5.219  14.205   1.145
64371SOL    HW194952   5.138  14.190   1.097
64371SOL    HW294953   5.197  14.187   1.236
64372SOL     OW94954   8.891  11.421   7.840
64372SOL    HW194955   8.907  11.415   7.934
64372SOL    HW294956   8.838  11.500   7.830
64373SOL     OW94957   8.514   2.586   1.715
64373SOL    HW194958   8.522   2.645   1.640
64373SOL    HW294959   8.592   2.603   1.768
64374SOL     OW94960   1.028   8.405   3.862
64374SOL    HW194961   1.014   8.330   3.804
64374SOL    HW294962   1.105   8.449   3.826
64375SOL     OW94963   5.810   5.701   3.534
64375SOL    HW194964   5.772   5.779   3.494
64375SOL    HW294965   5.808   5.635   3.464
64376SOL     OW94966   9.789   7.435   5.597
64376SOL    HW194967   9.881   7.451   5.616
64376SOL    HW294968   9.750   7.414   5.682
64377SOL     OW94969   6.194   7.336  10.423
64377SOL    HW194970   6.202   7.257  10.476
64377SOL    HW294971   6.283   7.353  10.391
64378SOL     OW94972   0.919   7.577   4.044
64378SOL    HW194973   1.012   7.567   4.020
64378SOL    HW294974   0.903   7.508   4.108
64379SOL     OW94975  14.116  11.096   5.655
64379SOL    HW194976  14.189  11.041   5.626
64379SOL    HW294977  14.113  11.082   5.750
64380SOL     OW94978   0.994   7.813   7.665
64380SOL    HW194979   0.968   7.816   7.573
64380SOL    HW294980   0.993   7.720   7.687
64381SOL     OW94981   0.377   0.327   3.285
64381SOL    HW194982   0.366   0.309   3.378
64381SOL    HW294983   0.431   0.407   3.283
64382SOL     OW94984   0.813   1.836   0.826
64382SOL    HW194985   0.768   1.769   0.877
64382SOL    HW294986   0.821   1.798   0.739
64383SOL     OW94987   5.433   7.290  12.611
64383SOL    HW194988   5.393   7.214  12.571
64383SOL    HW294989   5.464   7.343  12.537
64384SOL     OW94990   0.052   4.174  13.178
64384SOL    HW194991   0.066   4.225  13.257
64384SOL    HW294992  14.864   4.225  13.125
64385SOL     OW94993   8.272   1.706  13.245
64385SOL    HW194994   8.263   1.785  13.192
64385SOL    HW294995   8.355   1.717  13.290
64386SOL     OW94996  13.807   7.340   0.258
64386SOL    HW194997  13.842   7.393   0.186
64386SOL    HW294998  13.754   7.273   0.215
64387SOL     OW94999  12.230   6.857  10.330
64387SOL    HW195000  12.266   6.945  10.313
64387SOL    HW295001  12.307   6.802  10.345
64388SOL     OW95002   2.443   2.053  14.438
64388SOL    HW195003   2.536   2.052  14.419
64388SOL    HW295004   2.426   1.970  14.482
64389SOL     OW95005   3.959  11.955  13.847
64389SOL    HW195006   3.989  11.878  13.799
64389SOL    HW295007   3.914  11.920  13.924
64390SOL     OW95008  11.342  11.683   7.374
64390SOL    HW195009  11.312  11.747   7.310
64390SOL    HW295010  11.278  11.689   7.445
64391SOL     OW95011   2.109   6.328   1.749
64391SOL    HW195012   2.086   6.253   1.803
64391SOL    HW295013   2.156   6.387   1.808
64392SOL     OW95014   1.897  10.462   4.642
64392SOL    HW195015   1.878  10.553   4.665
64392SOL    HW295016   1.835  10.411   4.694
64393SOL     OW95017   0.598   2.166   1.194
64393SOL    HW195018   0.529   2.224   1.226
64393SOL    HW295019   0.677   2.220   1.195
64394SOL     OW95020   9.048  13.732   1.528
64394SOL    HW195021   9.026  13.729   1.621
64394SOL    HW295022   9.059  13.641   1.503
64395SOL     OW95023   6.059   2.133   8.535
64395SOL    HW195024   5.969   2.135   8.501
64395SOL    HW295025   6.100   2.059   8.491
64396SOL     OW95026   8.331  12.394  14.599
64396SOL    HW195027   8.387  12.379  14.523
64396SOL    HW295028   8.242  12.395  14.563
64397SOL     OW95029   0.262  14.722   7.334
64397SOL    HW195030   0.285  14.709   7.426
64397SOL    HW295031   0.338  14.688   7.285
64398SOL     OW95032  13.094   8.981   9.621
64398SOL    HW195033  13.121   9.047   9.685
64398SOL    HW295034  13.055   8.911   9.674
64399SOL     OW95035   8.946  10.424  10.213
64399SOL    HW195036   8.967  10.415  10.120
64399SOL    HW295037   8.864  10.376  10.224
64400SOL     OW95038  10.968   6.700  13.425
64400SOL    HW195039  10.932   6.631  13.369
64400SOL    HW295040  11.058   6.671  13.443
64401SOL     OW95041  13.494   2.671   9.470
64401SOL    HW195042  13.490   2.657   9.375
64401SOL    HW295043  13.552   2.603   9.502
64402SOL     OW95044   0.899  11.777   4.805
64402SOL    HW195045   0.918  11.866   4.835
64402SOL    HW295046   0.922  11.778   4.712
64403SOL     OW95047   2.942   3.450  13.833
64403SOL    HW195048   3.029   3.455  13.794
64403SOL    HW295049   2.905   3.537  13.821
64404SOL     OW95050   9.654   8.831   6.762
64404SOL    HW195051   9.728   8.769   6.766
64404SOL    HW295052   9.635   8.852   6.853
64405SOL     OW95053  11.165   4.989   6.653
64405SOL    HW195054  11.124   4.932   6.588
64405SOL    HW295055  11.163   5.076   6.613
64406SOL     OW95056   4.922   4.325   6.579
64406SOL    HW195057   4.999   4.283   6.542
64406SOL    HW295058   4.928   4.306   6.673
64407SOL     OW95059   0.741   2.793   8.836
64407SOL    HW195060   0.806   2.827   8.898
64407SOL    HW295061   0.709   2.712   8.876
64408SOL     OW95062  13.394  13.115   2.510
64408SOL    HW195063  13.376  13.183   2.576
64408SOL    HW295064  13.444  13.049   2.558
64409SOL     OW95065   5.828   6.729   7.702
64409SOL    HW195066   5.885   6.658   7.732
64409SOL    HW295067   5.759   6.685   7.652
64410SOL     OW95068  14.446   9.410  14.783
64410SOL    HW195069  14.534   9.384  14.754
64410SOL    HW295070  14.408   9.329  14.818
64411SOL     OW95071   3.350   9.087  11.798
64411SOL    HW195072   3.420   9.070  11.735
64411SOL    HW295073   3.270   9.063  11.752
64412SOL     OW95074   9.115  14.667   6.699
64412SOL    HW195075   9.079  14.723   6.631
64412SOL    HW295076   9.167  14.726   6.754
64413SOL     OW95077   0.515  14.637   7.801
64413SOL    HW195078   0.588  14.579   7.823
64413SOL    HW295079   0.545  14.724   7.827
64414SOL     OW95080   4.547   3.969   7.280
64414SOL    HW195081   4.550   3.882   7.322
64414SOL    HW295082   4.607   4.022   7.333
64415SOL     OW95083  12.190   9.582   6.048
64415SOL    HW195084  12.123   9.549   5.987
64415SOL    HW295085  12.204   9.510   6.109
64416SOL     OW95086   2.323  14.562  10.806
64416SOL    HW195087   2.271  14.545  10.727
64416SOL    HW295088   2.393  14.620  10.777
64417SOL     OW95089  12.916  11.029   6.775
64417SOL    HW195090  12.837  11.082   6.785
64417SOL    HW295091  12.983  11.091   6.747
64418SOL     OW95092   7.586   3.157   6.405
64418SOL    HW195093   7.529   3.224   6.367
64418SOL    HW295094   7.530   3.109   6.466
64419SOL     OW95095   8.116  13.614   4.843
64419SOL    HW195096   8.090  13.588   4.755
64419SOL    HW295097   8.145  13.533   4.885
64420SOL     OW95098   6.327   3.131   3.677
64420SOL    HW195099   6.330   3.202   3.742
64420SOL    HW295100   6.274   3.166   3.605
64421SOL     OW95101   5.352   0.047   7.905
64421SOL    HW195102   5.439   0.020   7.874
64421SOL    HW295103   5.320  14.844   7.953
64422SOL     OW95104   4.338   1.537  12.957
64422SOL    HW195105   4.288   1.460  12.983
64422SOL    HW295106   4.346   1.530  12.862
64423SOL     OW95107  12.385   1.981  10.717
64423SOL    HW195108  12.303   1.982  10.667
64423SOL    HW295109  12.429   1.901  10.690
64424SOL     OW95110   2.511   4.514   8.832
64424SOL    HW195111   2.508   4.473   8.745
64424SOL    HW295112   2.548   4.447   8.889
64425SOL     OW95113   7.517   9.006  10.652
64425SOL    HW195114   7.466   8.926  10.640
64425SOL    HW295115   7.530   9.011  10.747
64426SOL     OW95116   7.571  11.949  13.077
64426SOL    HW195117   7.489  11.994  13.096
64426SOL    HW295118   7.550  11.892  13.003
64427SOL     OW95119   1.219   4.359   5.364
64427SOL    HW195120   1.234   4.397   5.277
64427SOL    HW295121   1.274   4.281   5.366
64428SOL     OW95122   0.611  14.862   8.101
64428SOL    HW195123   0.539   0.006   8.041
64428SOL    HW295124   0.570  14.837   8.183
64429SOL     OW95125  12.427  10.462   5.677
64429SOL    HW195126  12.521  10.454   5.693
64429SOL    HW295127  12.387  10.394   5.731
64430SOL     OW95128   1.126   0.409  10.209
64430SOL    HW195129   1.094   0.489  10.165
64430SOL    HW295130   1.196   0.439  10.266
64431SOL     OW95131  14.523   3.181  13.274
64431SOL    HW195132  14.436   3.142  13.277
64431SOL    HW295133  14.529   3.219  13.186
64432SOL     OW95134  14.447   2.669   6.682
64432SOL    HW195135  14.506   2.736   6.646
64432SOL    HW295136  14.397   2.639   6.606
64433SOL     OW95137  13.661  14.419   9.197
64433SOL    HW195138  13.631  14.461   9.278
64433SOL    HW295139  13.684  14.330   9.224
64434SOL     OW95140  11.542  13.057  14.782
64434SOL    HW195141  11.448  13.077  14.779
64434SOL    HW295142  11.546  12.967  14.816
64435SOL     OW95143   5.948  11.158   3.255
64435SOL    HW195144   5.889  11.187   3.324
64435SOL    HW295145   5.892  11.107   3.196
64436SOL     OW95146   9.224   0.946  12.906
64436SOL    HW195147   9.129   0.947  12.920
64436SOL    HW295148   9.260   0.998  12.977
64437SOL     OW95149   6.101  14.218   0.960
64437SOL    HW195150   6.131  14.199   0.871
64437SOL    HW295151   6.176  14.197   1.016
64438SOL     OW95152   5.406   8.646   3.079
64438SOL    HW195153   5.403   8.567   3.133
64438SOL    HW295154   5.317   8.657   3.046
64439SOL     OW95155   4.058   6.419   2.447
64439SOL    HW195156   4.042   6.509   2.473
64439SOL    HW295157   4.106   6.425   2.365
64440SOL     OW95158   3.291  11.348   6.106
64440SOL    HW195159   3.360  11.325   6.169
64440SOL    HW295160   3.240  11.267   6.097
64441SOL     OW95161  14.247  14.602   2.989
64441SOL    HW195162  14.338  14.581   2.969
64441SOL    HW295163  14.249  14.695   3.012
64442SOL     OW95164   6.669  11.488  13.473
64442SOL    HW195165   6.593  11.537  13.504
64442SOL    HW295166   6.684  11.521  13.385
64443SOL     OW95167   0.475   4.916   6.862
64443SOL    HW195168   0.417   4.987   6.889
64443SOL    HW295169   0.520   4.890   6.943
64444SOL     OW95170   7.984  10.606   6.935
64444SOL    HW195171   8.045  10.678   6.917
64444SOL    HW295172   7.918  10.645   6.992
64445SOL     OW95173   9.685   4.620   4.644
64445SOL    HW195174   9.684   4.644   4.737
64445SOL    HW295175   9.608   4.564   4.633
64446SOL     OW95176   5.232   6.332   4.709
64446SOL    HW195177   5.143   6.359   4.731
64446SOL    HW295178   5.227   6.304   4.617
64447SOL     OW95179   9.049   3.723   4.746
64447SOL    HW195180   9.143   3.708   4.737
64447SOL    HW295181   9.020   3.749   4.659
64448SOL     OW95182  10.957  14.031  12.533
64448SOL    HW195183  10.986  14.079  12.455
64448SOL    HW295184  11.014  13.953  12.535
64449SOL     OW95185   3.017  11.183   6.575
64449SOL    HW195186   2.975  11.186   6.661
64449SOL    HW295187   3.067  11.102   6.575
64450SOL     OW95188  10.522   8.181   2.068
64450SOL    HW195189  10.467   8.162   1.992
64450SOL    HW295190  10.606   8.139   2.048
64451SOL     OW95191  13.513  12.872   9.616
64451SOL    HW195192  13.587  12.852   9.674
64451SOL    HW295193  13.553  12.916   9.541
64452SOL     OW95194   2.901   6.554   3.769
64452SOL    HW195195   2.867   6.526   3.854
64452SOL    HW295196   2.856   6.636   3.752
64453SOL     OW95197   8.998  13.327   6.915
64453SOL    HW195198   8.943  13.384   6.969
64453SOL    HW295199   9.075  13.379   6.895
64454SOL     OW95200   0.646   0.461  14.353
64454SOL    HW195201   0.716   0.434  14.412
64454SOL    HW295202   0.688   0.464  14.267
64455SOL     OW95203   2.077   4.903  11.538
64455SOL    HW195204   2.061   4.921  11.631
64455SOL    HW295205   2.060   4.986  11.494
64456SOL     OW95206  12.722  14.012   9.716
64456SOL    HW195207  12.658  14.082   9.709
64456SOL    HW295208  12.807  14.056   9.710
64457SOL     OW95209  11.579   2.144  12.918
64457SOL    HW195210  11.611   2.109  12.835
64457SOL    HW295211  11.555   2.235  12.898
64458SOL     OW95212  14.667  10.260   4.478
64458SOL    HW195213  14.732  10.213   4.426
64458SOL    HW295214  14.601  10.194   4.499
64459SOL     OW95215  12.814   5.801  13.820
64459SOL    HW195216  12.852   5.880  13.859
64459SOL    HW295217  12.726   5.796  13.857
64460SOL     OW95218   0.262   5.590  11.738
64460SOL    HW195219   0.196   5.641  11.785
64460SOL    HW295220   0.266   5.631  11.651
64461SOL     OW95221   5.774   9.676   2.773
64461SOL    HW195222   5.691   9.708   2.737
64461SOL    HW295223   5.780   9.585   2.743
64462SOL     OW95224   6.155   6.154  11.844
64462SOL    HW195225   6.179   6.126  11.932
64462SOL    HW295226   6.140   6.248  11.851
64463SOL     OW95227  11.025   3.467  10.725
64463SOL    HW195228  10.960   3.435  10.663
64463SOL    HW295229  10.997   3.431  10.809
64464SOL     OW95230   2.065  10.124   8.338
64464SOL    HW195231   2.022  10.181   8.275
64464SOL    HW295232   2.070  10.176   8.418
64465SOL     OW95233  10.025   3.177  11.849
64465SOL    HW195234   9.969   3.252  11.863
64465SOL    HW295235  10.063   3.190  11.762
64466SOL     OW95236   7.450   5.382  11.487
64466SOL    HW195237   7.446   5.440  11.412
64466SOL    HW295238   7.541   5.384  11.515
64467SOL     OW95239  11.025  12.190   4.222
64467SOL    HW195240  10.939  12.231   4.233
64467SOL    HW295241  11.087  12.260   4.244
64468SOL     OW95242   3.693  13.788   9.568
64468SOL    HW195243   3.729  13.855   9.627
64468SOL    HW295244   3.756  13.717   9.571
64469SOL     OW95245   6.025  14.749   7.021
64469SOL    HW195246   5.957  14.731   7.086
64469SOL    HW295247   6.044  14.663   6.982
64470SOL     OW95248   5.515   2.382   7.649
64470SOL    HW195249   5.440   2.415   7.600
64470SOL    HW295250   5.574   2.348   7.582
64471SOL     OW95251   3.787   2.453   7.647
64471SOL    HW195252   3.698   2.434   7.678
64471SOL    HW295253   3.805   2.541   7.680
64472SOL     OW95254   6.462   3.267   3.326
64472SOL    HW195255   6.480   3.357   3.353
64472SOL    HW295256   6.473   3.268   3.231
64473SOL     OW95257   5.052  12.143   5.782
64473SOL    HW195258   5.133  12.191   5.794
64473SOL    HW295259   5.028  12.159   5.690
64474SOL     OW95260  14.852   5.376   2.049
64474SOL    HW195261  14.839   5.400   2.141
64474SOL    HW295262   0.069   5.403   2.030
64475SOL     OW95263  14.249   2.673   7.841
64475SOL    HW195264  14.313   2.602   7.843
64475SOL    HW295265  14.281   2.732   7.773
64476SOL     OW95266  12.730   7.151  12.709
64476SOL    HW195267  12.761   7.130  12.798
64476SOL    HW295268  12.810   7.156  12.657
64477SOL     OW95269   5.325  10.811   8.699
64477SOL    HW195270   5.333  10.906   8.705
64477SOL    HW295271   5.235  10.792   8.725
64478SOL     OW95272   9.481   2.054  10.723
64478SOL    HW195273   9.412   2.080  10.784
64478SOL    HW295274   9.516   1.973  10.759
64479SOL     OW95275   8.638   6.428   2.888
64479SOL    HW195276   8.671   6.338   2.885
64479SOL    HW295277   8.668   6.462   2.972
64480SOL     OW95278  12.649   5.832   8.625
64480SOL    HW195279  12.675   5.880   8.703
64480SOL    HW295280  12.611   5.899   8.567
64481SOL     OW95281   0.034   9.831   7.662
64481SOL    HW195282   0.122   9.856   7.632
64481SOL    HW295283   0.041   9.737   7.679
64482SOL     OW95284  10.060  14.273   2.778
64482SOL    HW195285  10.057  14.179   2.800
64482SOL    HW295286   9.971  14.295   2.753
64483SOL     OW95287  13.213  14.412   3.357
64483SOL    HW195288  13.144  14.423   3.292
64483SOL    HW295289  13.294  14.424   3.308
64484SOL     OW95290   9.989   5.111  12.770
64484SOL    HW195291   9.999   5.113  12.865
64484SOL    HW295292   9.901   5.145  12.755
64485SOL     OW95293   4.112   0.120  10.437
64485SOL    HW195294   4.131   0.031  10.408
64485SOL    HW295295   4.026   0.140  10.401
64486SOL     OW95296   8.676   5.754   5.298
64486SOL    HW195297   8.621   5.754   5.376
64486SOL    HW295298   8.622   5.712   5.230
64487SOL     OW95299  13.002   7.261   8.760
64487SOL    HW195300  12.924   7.206   8.763
64487SOL    HW295301  13.048   7.232   8.681
64488SOL     OW95302  13.462  10.557   0.485
64488SOL    HW195303  13.527  10.564   0.555
64488SOL    HW295304  13.380  10.586   0.526
64489SOL     OW95305   6.457   5.193   7.552
64489SOL    HW195306   6.517   5.202   7.478
64489SOL    HW295307   6.382   5.145   7.517
64490SOL     OW95308   0.779   6.805  10.063
64490SOL    HW195309   0.705   6.865  10.050
64490SOL    HW295310   0.749   6.723  10.025
64491SOL     OW95311  11.401   1.053  12.837
64491SOL    HW195312  11.370   1.113  12.768
64491SOL    HW295313  11.326   0.996  12.854
64492SOL     OW95314   1.766   7.601   8.936
64492SOL    HW195315   1.675   7.599   8.908
64492SOL    HW295316   1.766   7.558   9.022
64493SOL     OW95317   1.034  10.282   5.719
64493SOL    HW195318   1.019  10.371   5.689
64493SOL    HW295319   1.026  10.228   5.641
64494SOL     OW95320   8.789  10.817  13.031
64494SOL    HW195321   8.745  10.863  13.102
64494SOL    HW295322   8.786  10.725  13.056
64495SOL     OW95323   0.900  12.587   4.424
64495SOL    HW195324   0.884  12.646   4.498
64495SOL    HW295325   0.820  12.535   4.418
64496SOL     OW95326   0.678  13.773   3.967
64496SOL    HW195327   0.731  13.709   4.015
64496SOL    HW295328   0.718  13.858   3.987
64497SOL     OW95329   2.829  12.740   2.260
64497SOL    HW195330   2.855  12.824   2.222
64497SOL    HW295331   2.912  12.701   2.288
64498SOL     OW95332  11.930   2.591  10.495
64498SOL    HW195333  11.888   2.674  10.475
64498SOL    HW295334  11.979   2.568  10.416
64499SOL     OW95335   1.710  10.805   2.019
64499SOL    HW195336   1.730  10.895   2.047
64499SOL    HW295337   1.796  10.766   2.004
64500SOL     OW95338  13.866   9.988  14.778
64500SOL    HW195339  13.816  10.069  14.790
64500SOL    HW295340  13.826   9.947  14.701
64501SOL     OW95341   5.833  10.433  13.675
64501SOL    HW195342   5.870  10.493  13.610
64501SOL    HW295343   5.844  10.478  13.758
64502SOL     OW95344   7.851  12.763  13.458
64502SOL    HW195345   7.798  12.765  13.378
64502SOL    HW295346   7.795  12.722  13.523
64503SOL     OW95347   7.362  11.894   1.643
64503SOL    HW195348   7.326  11.837   1.576
64503SOL    HW295349   7.434  11.844   1.682
64504SOL     OW95350  11.885   5.488   8.483
64504SOL    HW195351  11.956   5.472   8.545
64504SOL    HW295352  11.920   5.458   8.399
64505SOL     OW95353   4.891   5.306   4.077
64505SOL    HW195354   4.900   5.211   4.081
64505SOL    HW295355   4.929   5.331   3.993
64506SOL     OW95356   6.492   9.348   6.541
64506SOL    HW195357   6.408   9.392   6.524
64506SOL    HW295358   6.481   9.261   6.504
64507SOL     OW95359  11.278   5.994  13.510
64507SOL    HW195360  11.320   5.978  13.426
64507SOL    HW295361  11.323   6.070  13.546
64508SOL     OW95362  14.486   3.838   4.159
64508SOL    HW195363  14.482   3.932   4.144
64508SOL    HW295364  14.407   3.819   4.210
64509SOL     OW95365   3.256  13.298  12.014
64509SOL    HW195366   3.313  13.224  11.994
64509SOL    HW295367   3.204  13.269  12.089
64510SOL     OW95368   4.362  10.968  13.823
64510SOL    HW195369   4.419  10.914  13.768
64510SOL    HW295370   4.277  10.966  13.780
64511SOL     OW95371   0.053   5.238   1.246
64511SOL    HW195372  14.842   5.193   1.237
64511SOL    HW295373   0.030   5.326   1.274
64512SOL     OW95374   6.007   4.890   6.441
64512SOL    HW195375   5.983   4.974   6.401
64512SOL    HW295376   6.012   4.908   6.535
64513SOL     OW95377   1.317  14.370  14.551
64513SOL    HW195378   1.273  14.423  14.617
64513SOL    HW295379   1.402  14.413  14.540
64514SOL     OW95380  13.494  13.460   4.417
64514SOL    HW195381  13.475  13.373   4.380
64514SOL    HW295382  13.590  13.462   4.424
64515SOL     OW95383   2.505   8.937   8.225
64515SOL    HW195384   2.540   8.926   8.136
64515SOL    HW295385   2.446   8.862   8.236
64516SOL     OW95386   6.167  10.672   9.601
64516SOL    HW195387   6.144  10.649   9.511
64516SOL    HW295388   6.239  10.614   9.624
64517SOL     OW95389   4.879   7.308  12.177
64517SOL    HW195390   4.957   7.352  12.210
64517SOL    HW295391   4.912   7.248  12.110
64518SOL     OW95392  14.457   3.505   2.871
64518SOL    HW195393  14.386   3.441   2.861
64518SOL    HW295394  14.484   3.525   2.781
64519SOL     OW95395  10.816   0.117   6.035
64519SOL    HW195396  10.873   0.146   5.964
64519SOL    HW295397  10.870   0.123   6.113
64520SOL     OW95398  10.826   6.943  11.041
64520SOL    HW195399  10.784   6.919  10.958
64520SOL    HW295400  10.906   6.988  11.015
64521SOL     OW95401   5.641  10.014   8.214
64521SOL    HW195402   5.631  10.067   8.135
64521SOL    HW295403   5.626   9.925   8.185
64522SOL     OW95404   0.841   9.651   5.787
64522SOL    HW195405   0.884   9.631   5.870
64522SOL    HW295406   0.842   9.746   5.781
64523SOL     OW95407   7.813  10.570  14.872
64523SOL    HW195408   7.905  10.555  14.849
64523SOL    HW295409   7.797  10.511   0.073
64524SOL     OW95410   9.974  14.354  12.139
64524SOL    HW195411   9.995  14.300  12.215
64524SOL    HW295412   9.977  14.444  12.172
64525SOL     OW95413   4.599   5.965   3.284
64525SOL    HW195414   4.509   5.957   3.252
64525SOL    HW295415   4.590   5.991   3.376
64526SOL     OW95416  12.318  14.153   6.127
64526SOL    HW195417  12.247  14.217   6.135
64526SOL    HW295418  12.287  14.077   6.177
64527SOL     OW95419   3.089  14.112   5.309
64527SOL    HW195420   3.163  14.072   5.264
64527SOL    HW295421   3.129  14.173   5.371
64528SOL     OW95422   2.249  14.359   5.782
64528SOL    HW195423   2.296  14.419   5.723
64528SOL    HW295424   2.316  14.327   5.842
64529SOL     OW95425  14.026   1.050   0.209
64529SOL    HW195426  13.999   0.958   0.206
64529SOL    HW295427  13.995   1.081   0.294
64530SOL     OW95428  13.463  13.462   2.454
64530SOL    HW195429  13.557  13.477   2.464
64530SOL    HW295430  13.436  13.524   2.386
64531SOL     OW95431   4.008  13.816   9.932
64531SOL    HW195432   4.000  13.723   9.952
64531SOL    HW295433   3.956  13.860   9.999
64532SOL     OW95434   9.513  13.336   2.559
64532SOL    HW195435   9.484  13.286   2.635
64532SOL    HW295436   9.459  13.303   2.487
64533SOL     OW95437   4.363  11.350  11.528
64533SOL    HW195438   4.272  11.347  11.558
64533SOL    HW295439   4.373  11.437  11.490
64534SOL     OW95440   6.035   5.856   0.109
64534SOL    HW195441   6.045   5.840   0.203
64534SOL    HW295442   5.966   5.796   0.082
64535SOL     OW95443   2.131   8.284   0.819
64535SOL    HW195444   2.135   8.199   0.862
64535SOL    HW295445   2.038   8.303   0.810
64536SOL     OW95446   3.216   2.722   2.923
64536SOL    HW195447   3.297   2.773   2.928
64536SOL    HW295448   3.147   2.786   2.942
64537SOL     OW95449   7.553  11.574   5.914
64537SOL    HW195450   7.592  11.653   5.876
64537SOL    HW295451   7.617  11.505   5.897
64538SOL     OW95452  12.783   1.052   8.523
64538SOL    HW195453  12.824   1.128   8.563
64538SOL    HW295454  12.746   1.003   8.596
64539SOL     OW95455   9.340   6.846   6.628
64539SOL    HW195456   9.388   6.836   6.546
64539SOL    HW295457   9.257   6.887   6.602
64540SOL     OW95458   0.513  12.465   4.946
64540SOL    HW195459   0.586  12.524   4.960
64540SOL    HW295460   0.441  12.522   4.919
64541SOL     OW95461   5.807   1.580  14.142
64541SOL    HW195462   5.786   1.490  14.119
64541SOL    HW295463   5.739   1.633  14.098
64542SOL     OW95464   3.136   5.943  12.377
64542SOL    HW195465   3.173   5.855  12.388
64542SOL    HW295466   3.192   5.998  12.432
64543SOL     OW95467   6.310   5.763  10.579
64543SOL    HW195468   6.293   5.674  10.546
64543SOL    HW295469   6.327   5.815  10.500
64544SOL     OW95470  13.841  10.712   6.791
64544SOL    HW195471  13.881  10.743   6.872
64544SOL    HW295472  13.855  10.783   6.729
64545SOL     OW95473   8.923  10.057   6.557
64545SOL    HW195474   8.924  10.052   6.461
64545SOL    HW295475   8.901  10.148   6.576
64546SOL     OW95476  10.806   4.543  13.909
64546SOL    HW195477  10.875   4.484  13.939
64546SOL    HW295478  10.734   4.486  13.883
64547SOL     OW95479   3.160  10.313   6.564
64547SOL    HW195480   3.083  10.291   6.512
64547SOL    HW295481   3.128  10.316   6.654
64548SOL     OW95482  12.993  11.211   1.533
64548SOL    HW195483  12.924  11.274   1.513
64548SOL    HW295484  13.024  11.181   1.447
64549SOL     OW95485  10.810   8.996   9.192
64549SOL    HW195486  10.751   8.963   9.124
64549SOL    HW295487  10.810   8.928   9.260
64550SOL     OW95488  13.204   3.792   2.812
64550SOL    HW195489  13.164   3.709   2.787
64550SOL    HW295490  13.171   3.855   2.747
64551SOL     OW95491  14.236   2.151   9.976
64551SOL    HW195492  14.177   2.198   9.916
64551SOL    HW295493  14.291   2.098   9.918
64552SOL     OW95494  13.709   5.062  10.888
64552SOL    HW195495  13.779   5.004  10.857
64552SOL    HW295496  13.700   5.041  10.981
64553SOL     OW95497   1.711   6.907   9.553
64553SOL    HW195498   1.724   6.953   9.636
64553SOL    HW295499   1.619   6.921   9.532
64554SOL     OW95500   8.073  14.547   7.013
64554SOL    HW195501   8.056  14.567   7.105
64554SOL    HW295502   8.167  14.561   7.002
64555SOL     OW95503   1.030   9.197  10.634
64555SOL    HW195504   0.941   9.194  10.668
64555SOL    HW295505   1.035   9.123  10.573
64556SOL     OW95506   9.157   9.350   2.174
64556SOL    HW195507   9.064   9.374   2.168
64556SOL    HW295508   9.161   9.262   2.138
64557SOL     OW95509   5.558   9.465  11.928
64557SOL    HW195510   5.494   9.453  11.858
64557SOL    HW295511   5.641   9.437  11.891
64558SOL     OW95512  10.851  13.137   3.556
64558SOL    HW195513  10.799  13.173   3.484
64558SOL    HW295514  10.879  13.051   3.526
64559SOL     OW95515   3.224   1.715   3.836
64559SOL    HW195516   3.299   1.698   3.893
64559SOL    HW295517   3.148   1.694   3.890
64560SOL     OW95518  13.665  12.074   4.105
64560SOL    HW195519  13.573  12.092   4.127
64560SOL    HW295520  13.711  12.153   4.132
64561SOL     OW95521  13.926   8.418  10.656
64561SOL    HW195522  13.859   8.373  10.709
64561SOL    HW295523  13.945   8.357  10.585
64562SOL     OW95524   5.648   4.840  11.074
64562SOL    HW195525   5.694   4.923  11.084
64562SOL    HW295526   5.718   4.775  11.067
64563SOL     OW95527   2.485   7.141   6.066
64563SOL    HW195528   2.504   7.153   5.973
64563SOL    HW295529   2.413   7.201   6.084
64564SOL     OW95530   9.873   4.975  11.170
64564SOL    HW195531   9.805   5.036  11.141
64564SOL    HW295532   9.866   4.901  11.109
64565SOL     OW95533   9.835   8.797   4.171
64565SOL    HW195534   9.882   8.844   4.240
64565SOL    HW295535   9.749   8.778   4.210
64566SOL     OW95536   6.907   8.288   2.839
64566SOL    HW195537   6.895   8.229   2.913
64566SOL    HW295538   6.985   8.256   2.794
64567SOL     OW95539   7.065   4.240   6.247
64567SOL    HW195540   7.082   4.314   6.306
64567SOL    HW295541   6.970   4.228   6.251
64568SOL     OW95542   4.772  11.631   1.805
64568SOL    HW195543   4.685  11.618   1.768
64568SOL    HW295544   4.765  11.597   1.895
64569SOL     OW95545  12.702   5.598   4.316
64569SOL    HW195546  12.732   5.654   4.244
64569SOL    HW295547  12.738   5.639   4.395
64570SOL     OW95548  11.940  10.306   0.184
64570SOL    HW195549  11.872  10.341   0.242
64570SOL    HW295550  11.891  10.252   0.122
64571SOL     OW95551  12.086   2.669   9.026
64571SOL    HW195552  11.999   2.692   9.058
64571SOL    HW295553  12.103   2.583   9.062
64572SOL     OW95554   0.161  14.724   2.800
64572SOL    HW195555   0.119  14.658   2.855
64572SOL    HW295556   0.158  14.687   2.712
64573SOL     OW95557   9.573   1.724   4.741
64573SOL    HW195558   9.565   1.740   4.835
64573SOL    HW295559   9.578   1.811   4.702
64574SOL     OW95560   6.199   2.535   9.639
64574SOL    HW195561   6.155   2.617   9.662
64574SOL    HW295562   6.287   2.544   9.678
64575SOL     OW95563  14.550   5.414   1.646
64575SOL    HW195564  14.612   5.353   1.686
64575SOL    HW295565  14.522   5.471   1.718
64576SOL     OW95566   1.472   9.138  14.032
64576SOL    HW195567   1.541   9.198  14.061
64576SOL    HW295568   1.502   9.105  13.948
64577SOL     OW95569  10.983   3.758  14.349
64577SOL    HW195570  10.960   3.773  14.441
64577SOL    HW295571  10.970   3.843  14.307
64578SOL     OW95572   0.072   6.024  13.838
64578SOL    HW195573   0.052   5.948  13.893
64578SOL    HW295574   0.080   6.097  13.900
64579SOL     OW95575   5.896   5.301   3.503
64579SOL    HW195576   5.876   5.301   3.596
64579SOL    HW295577   5.895   5.208   3.478
64580SOL     OW95578  12.274   8.435   1.858
64580SOL    HW195579  12.285   8.378   1.782
64580SOL    HW295580  12.350   8.417   1.912
64581SOL     OW95581   0.336   8.743   4.766
64581SOL    HW195582   0.361   8.814   4.825
64581SOL    HW295583   0.396   8.750   4.693
64582SOL     OW95584   4.988   2.342  11.779
64582SOL    HW195585   4.973   2.417  11.722
64582SOL    HW295586   5.019   2.379  11.861
64583SOL     OW95587   1.623   3.894  10.651
64583SOL    HW195588   1.533   3.893  10.684
64583SOL    HW295589   1.677   3.913  10.728
64584SOL     OW95590   9.966   3.851   1.005
64584SOL    HW195591   9.911   3.806   1.070
64584SOL    HW295592   9.995   3.931   1.049
64585SOL     OW95593   9.952   8.589   4.063
64585SOL    HW195594  10.007   8.556   4.134
64585SOL    HW295595   9.901   8.659   4.102
64586SOL     OW95596   4.413   2.458   3.784
64586SOL    HW195597   4.326   2.464   3.747
64586SOL    HW295598   4.423   2.365   3.808
64587SOL     OW95599   2.750  13.349  13.253
64587SOL    HW195600   2.714  13.435  13.275
64587SOL    HW295601   2.674  13.297  13.226
64588SOL     OW95602   0.441   0.287   8.351
64588SOL    HW195603   0.520   0.235   8.366
64588SOL    HW295604   0.448   0.317   8.261
64589SOL     OW95605   0.164  14.458   8.111
64589SOL    HW195606   0.084  14.428   8.067
64589SOL    HW295607   0.230  14.459   8.042
64590SOL     OW95608   1.565   1.896   5.985
64590SOL    HW195609   1.654   1.864   5.998
64590SOL    HW295610   1.510   1.817   5.994
64591SOL     OW95611   6.451   0.639   9.009
64591SOL    HW195612   6.512   0.712   8.994
64591SOL    HW295613   6.379   0.655   8.949
64592SOL     OW95614   1.278   6.040   0.149
64592SOL    HW195615   1.346   6.027   0.083
64592SOL    HW295616   1.273   6.135   0.160
64593SOL     OW95617   2.030   8.721   5.611
64593SOL    HW195618   2.120   8.689   5.607
64593SOL    HW295619   2.030   8.802   5.560
64594SOL     OW95620  10.527  14.534   7.171
64594SOL    HW195621  10.537  14.486   7.254
64594SOL    HW295622  10.435  14.561   7.170
64595SOL     OW95623   5.535   5.667  10.230
64595SOL    HW195624   5.615   5.628  10.265
64595SOL    HW295625   5.535   5.756  10.264
64596SOL     OW95626   2.761  12.792   0.711
64596SOL    HW195627   2.669  12.818   0.718
64596SOL    HW295628   2.807  12.852   0.770
64597SOL     OW95629   2.361   2.019   2.798
64597SOL    HW195630   2.424   1.948   2.791
64597SOL    HW295631   2.390   2.083   2.732
64598SOL     OW95632   7.284   1.447   7.447
64598SOL    HW195633   7.349   1.474   7.512
64598SOL    HW295634   7.235   1.526   7.426
64599SOL     OW95635   0.480  11.344  11.293
64599SOL    HW195636   0.510  11.406  11.226
64599SOL    HW295637   0.527  11.263  11.274
64600SOL     OW95638  13.302   0.862   5.771
64600SOL    HW195639  13.266   0.877   5.683
64600SOL    HW295640  13.235   0.894   5.831
64601SOL     OW95641   3.835   5.292  12.620
64601SOL    HW195642   3.909   5.320  12.674
64601SOL    HW295643   3.856   5.203  12.594
64602SOL     OW95644   6.988  13.694   6.013
64602SOL    HW195645   7.018  13.711   6.103
64602SOL    HW295646   7.065  13.711   5.959
64603SOL     OW95647   3.600   6.980  12.667
64603SOL    HW195648   3.594   7.003  12.575
64603SOL    HW295649   3.548   7.046  12.712
64604SOL     OW95650   0.960   3.615  13.805
64604SOL    HW195651   1.033   3.664  13.767
64604SOL    HW295652   0.883   3.643  13.755
64605SOL     OW95653   6.836   5.488   5.496
64605SOL    HW195654   6.761   5.505   5.553
64605SOL    HW295655   6.882   5.416   5.538
64606SOL     OW95656   4.795   2.798   7.432
64606SOL    HW195657   4.810   2.883   7.391
64606SOL    HW295658   4.883   2.764   7.449
64607SOL     OW95659   1.758   7.032  13.617
64607SOL    HW195660   1.783   7.061  13.704
64607SOL    HW295661   1.677   6.983  13.629
64608SOL     OW95662   6.265  11.683   6.367
64608SOL    HW195663   6.330  11.614   6.353
64608SOL    HW295664   6.308  11.763   6.337
64609SOL     OW95665  13.242  11.211   8.105
64609SOL    HW195666  13.159  11.170   8.130
64609SOL    HW295667  13.236  11.300   8.139
64610SOL     OW95668   6.471   4.571   3.628
64610SOL    HW195669   6.485   4.658   3.663
64610SOL    HW295670   6.507   4.574   3.539
64611SOL     OW95671  11.060   2.008   8.443
64611SOL    HW195672  11.096   1.958   8.516
64611SOL    HW295673  11.009   2.078   8.485
64612SOL     OW95674   8.437  11.252  11.722
64612SOL    HW195675   8.509  11.192  11.704
64612SOL    HW295676   8.463  11.334  11.681
64613SOL     OW95677  14.831  10.621   3.536
64613SOL    HW195678  14.847  10.528   3.555
64613SOL    HW295679   0.024  10.644   3.471
64614SOL     OW95680   6.803   7.421   9.296
64614SOL    HW195681   6.832   7.346   9.349
64614SOL    HW295682   6.708   7.410   9.290
64615SOL     OW95683  12.128  13.342   9.464
64615SOL    HW195684  12.193  13.296   9.410
64615SOL    HW295685  12.180  13.395   9.524
64616SOL     OW95686   0.578   9.446  10.187
64616SOL    HW195687   0.573   9.396  10.105
64616SOL    HW295688   0.671   9.456  10.203
64617SOL     OW95689   4.809  11.687  14.629
64617SOL    HW195690   4.888  11.643  14.597
64617SOL    HW295691   4.743  11.671  14.562
64618SOL     OW95692   4.831   8.992   2.709
64618SOL    HW195693   4.736   8.984   2.709
64618SOL    HW295694   4.854   9.006   2.801
64619SOL     OW95695   7.396   8.163   9.845
64619SOL    HW195696   7.442   8.131   9.767
64619SOL    HW295697   7.441   8.118   9.918
64620SOL     OW95698  14.802   8.418  13.419
64620SOL    HW195699  14.777   8.337  13.464
64620SOL    HW295700  14.719   8.456  13.389
64621SOL     OW95701  14.221  13.893   9.779
64621SOL    HW195702  14.218  13.951   9.855
64621SOL    HW295703  14.302  13.843   9.790
64622SOL     OW95704   7.937   7.252  14.781
64622SOL    HW195705   8.020   7.295  14.803
64622SOL    HW295706   7.962   7.165  14.751
64623SOL     OW95707   3.567   5.203   4.237
64623SOL    HW195708   3.623   5.277   4.212
64623SOL    HW295709   3.479   5.241   4.245
64624SOL     OW95710   2.643   3.137   7.316
64624SOL    HW195711   2.686   3.162   7.398
64624SOL    HW295712   2.646   3.041   7.314
64625SOL     OW95713  10.756  10.024   8.895
64625SOL    HW195714  10.743  10.110   8.933
64625SOL    HW295715  10.707   9.964   8.952
64626SOL     OW95716   1.097   0.920   0.341
64626SOL    HW195717   1.008   0.901   0.312
64626SOL    HW295718   1.143   0.836   0.330
64627SOL     OW95719   7.363  10.254   2.651
64627SOL    HW195720   7.320  10.288   2.730
64627SOL    HW295721   7.308  10.284   2.579
64628SOL     OW95722   0.327  12.951   9.822
64628SOL    HW195723   0.372  12.936   9.905
64628SOL    HW295724   0.397  12.967   9.759
64629SOL     OW95725   2.596   9.261   0.986
64629SOL    HW195726   2.607   9.276   1.080
64629SOL    HW295727   2.511   9.217   0.979
64630SOL     OW95728   9.451   3.776   7.563
64630SOL    HW195729   9.453   3.686   7.596
64630SOL    HW295730   9.363   3.786   7.527
64631SOL     OW95731   5.381  14.838   5.752
64631SOL    HW195732   5.312   0.015   5.795
64631SOL    HW295733   5.343  14.751   5.741
64632SOL     OW95734   9.368   9.482  11.171
64632SOL    HW195735   9.320   9.408  11.207
64632SOL    HW295736   9.407   9.448  11.090
64633SOL     OW95737  10.881   5.918   8.965
64633SOL    HW195738  10.976   5.914   8.954
64633SOL    HW295739  10.851   5.973   8.893
64634SOL     OW95740  11.988  10.414  14.223
64634SOL    HW195741  11.974  10.505  14.197
64634SOL    HW295742  12.076  10.413  14.260
64635SOL     OW95743   7.826   5.322  10.615
64635SOL    HW195744   7.893   5.379  10.653
64635SOL    HW295745   7.843   5.324  10.520
64636SOL     OW95746   5.437  14.054   2.355
64636SOL    HW195747   5.470  14.064   2.444
64636SOL    HW295748   5.360  14.110   2.351
64637SOL     OW95749   5.168  10.840  10.631
64637SOL    HW195750   5.253  10.882  10.623
64637SOL    HW295751   5.120  10.866  10.553
64638SOL     OW95752   0.534   5.521  10.082
64638SOL    HW195753   0.533   5.572  10.163
64638SOL    HW295754   0.502   5.435  10.107
64639SOL     OW95755   6.866   1.583  11.916
64639SOL    HW195756   6.928   1.515  11.940
64639SOL    HW295757   6.896   1.614  11.830
64640SOL     OW95758  11.015   1.985  10.085
64640SOL    HW195759  11.004   2.009  10.177
64640SOL    HW295760  10.994   1.892  10.081
64641SOL     OW95761  14.381  13.229  11.767
64641SOL    HW195762  14.442  13.269  11.705
64641SOL    HW295763  14.314  13.188  11.711
64642SOL     OW95764   6.081  11.454   9.298
64642SOL    HW195765   6.007  11.480   9.244
64642SOL    HW295766   6.157  11.464   9.240
64643SOL     OW95767   6.486   0.330   2.651
64643SOL    HW195768   6.538   0.250   2.662
64643SOL    HW295769   6.533   0.380   2.584
64644SOL     OW95770  12.360   3.308  10.659
64644SOL    HW195771  12.436   3.366  10.664
64644SOL    HW295772  12.286   3.362  10.686
64645SOL     OW95773  13.090   1.140   6.318
64645SOL    HW195774  13.026   1.183   6.374
64645SOL    HW295775  13.077   1.180   6.231
64646SOL     OW95776   1.375   6.667   4.278
64646SOL    HW195777   1.447   6.672   4.215
64646SOL    HW295778   1.296   6.677   4.225
64647SOL     OW95779  10.486  10.106   7.100
64647SOL    HW195780  10.452  10.021   7.126
64647SOL    HW295781  10.482  10.106   7.005
64648SOL     OW95782   9.921  10.930   3.486
64648SOL    HW195783   9.924  10.834   3.479
64648SOL    HW295784  10.012  10.957   3.484
64649SOL     OW95785  13.169   3.346  11.426
64649SOL    HW195786  13.194   3.383  11.511
64649SOL    HW295787  13.190   3.415  11.363
64650SOL     OW95788   6.978  12.945   6.795
64650SOL    HW195789   7.048  12.910   6.850
64650SOL    HW295790   7.023  13.002   6.733
64651SOL     OW95791   9.016  13.122   3.946
64651SOL    HW195792   9.104  13.095   3.972
64651SOL    HW295793   9.021  13.217   3.937
64652SOL     OW95794   2.903   6.073   2.152
64652SOL    HW195795   2.812   6.087   2.125
64652SOL    HW295796   2.923   6.147   2.210
64653SOL     OW95797   7.764   0.629   0.950
64653SOL    HW195798   7.746   0.551   1.002
64653SOL    HW295799   7.678   0.670   0.937
64654SOL     OW95800  13.313   8.494   8.274
64654SOL    HW195801  13.390   8.541   8.243
64654SOL    HW295802  13.274   8.455   8.196
64655SOL     OW95803   3.146   0.996  14.800
64655SOL    HW195804   3.180   1.059  14.737
64655SOL    HW295805   3.225   0.962  14.844
64656SOL     OW95806  14.054  14.547   6.675
64656SOL    HW195807  13.961  14.569   6.681
64656SOL    HW295808  14.099  14.625   6.708
64657SOL     OW95809   4.216   9.437   6.645
64657SOL    HW195810   4.294   9.488   6.668
64657SOL    HW295811   4.231   9.351   6.683
64658SOL     OW95812   9.154   7.566  11.679
64658SOL    HW195813   9.106   7.495  11.723
64658SOL    HW295814   9.182   7.623  11.750
64659SOL     OW95815   7.482   0.553  12.610
64659SOL    HW195816   7.404   0.511  12.647
64659SOL    HW295817   7.555   0.513  12.656
64660SOL     OW95818  10.991   5.628  10.633
64660SOL    HW195819  10.910   5.674  10.608
64660SOL    HW295820  11.007   5.567  10.560
64661SOL     OW95821   9.915   2.452   9.808
64661SOL    HW195822   9.823   2.434   9.827
64661SOL    HW295823   9.926   2.545   9.830
64662SOL     OW95824   8.573   3.495   6.785
64662SOL    HW195825   8.590   3.584   6.816
64662SOL    HW295826   8.506   3.506   6.718
64663SOL     OW95827   2.567   5.209  10.328
64663SOL    HW195828   2.535   5.119  10.318
64663SOL    HW295829   2.493   5.264  10.301
64664SOL     OW95830  13.426   5.127   9.296
64664SOL    HW195831  13.373   5.154   9.371
64664SOL    HW295832  13.516   5.137   9.325
64665SOL     OW95833   0.232   7.991   9.562
64665SOL    HW195834   0.212   8.067   9.617
64665SOL    HW295835   0.279   7.931   9.620
64666SOL     OW95836   2.116   4.093   0.856
64666SOL    HW195837   2.040   4.037   0.868
64666SOL    HW295838   2.082   4.182   0.868
64667SOL     OW95839   0.161   6.181   0.777
64667SOL    HW195840   0.104   6.251   0.810
64667SOL    HW295841   0.103   6.126   0.724
64668SOL     OW95842   4.664  14.723  10.659
64668SOL    HW195843   4.737  14.717  10.721
64668SOL    HW295844   4.691  14.791  10.597
64669SOL     OW95845  14.329   3.537   1.681
64669SOL    HW195846  14.319   3.509   1.590
64669SOL    HW295847  14.354   3.629   1.676
64670SOL     OW95848   0.703  12.948  12.844
64670SOL    HW195849   0.723  13.031  12.801
64670SOL    HW295850   0.613  12.928  12.817
64671SOL     OW95851  10.897   2.563  14.830
64671SOL    HW195852  10.923   2.655  14.829
64671SOL    HW295853  10.802   2.566  14.841
64672SOL     OW95854   6.138   5.007  14.574
64672SOL    HW195855   6.231   4.985  14.567
64672SOL    HW295856   6.116   5.043  14.489
64673SOL     OW95857   2.140   5.149  11.464
64673SOL    HW195858   2.131   5.219  11.529
64673SOL    HW295859   2.087   5.180  11.390
64674SOL     OW95860   5.909   3.426  12.316
64674SOL    HW195861   5.839   3.450  12.377
64674SOL    HW295862   5.903   3.490  12.245
64675SOL     OW95863  13.312   1.409   2.068
64675SOL    HW195864  13.321   1.339   2.004
64675SOL    HW295865  13.253   1.374   2.135
64676SOL     OW95866  13.993   6.603   0.705
64676SOL    HW195867  14.003   6.575   0.796
64676SOL    HW295868  13.950   6.688   0.710
64677SOL     OW95869  11.934   0.265   3.772
64677SOL    HW195870  11.956   0.290   3.682
64677SOL    HW295871  12.001   0.309   3.825
64678SOL     OW95872   6.333   7.326   6.132
64678SOL    HW195873   6.294   7.350   6.216
64678SOL    HW295874   6.424   7.353   6.139
64679SOL     OW95875  13.183   8.335   8.077
64679SOL    HW195876  13.116   8.298   8.134
64679SOL    HW295877  13.235   8.259   8.049
64680SOL     OW95878   3.513  10.915   1.013
64680SOL    HW195879   3.554  10.959   0.938
64680SOL    HW295880   3.586  10.884   1.066
64681SOL     OW95881   0.182   7.516  11.404
64681SOL    HW195882   0.252   7.556  11.352
64681SOL    HW295883   0.154   7.585  11.464
64682SOL     OW95884   3.673   4.343  13.348
64682SOL    HW195885   3.679   4.409  13.417
64682SOL    HW295886   3.690   4.260  13.393
64683SOL     OW95887   7.946   5.343   0.757
64683SOL    HW195888   7.961   5.343   0.662
64683SOL    HW295889   8.020   5.292   0.792
64684SOL     OW95890  14.042   2.598  14.181
64684SOL    HW195891  13.977   2.621  14.247
64684SOL    HW295892  14.122   2.643  14.208
64685SOL     OW95893   6.849  11.806  13.279
64685SOL    HW195894   6.910  11.849  13.218
64685SOL    HW295895   6.830  11.873  13.345
64686SOL     OW95896   3.369   2.625   3.740
64686SOL    HW195897   3.293   2.682   3.728
64686SOL    HW295898   3.333   2.536   3.740
64687SOL     OW95899   7.363  13.168  10.696
64687SOL    HW195900   7.402  13.101  10.752
64687SOL    HW295901   7.428  13.238  10.692
64688SOL     OW95902   4.363   5.901   2.056
64688SOL    HW195903   4.308   5.978   2.072
64688SOL    HW295904   4.447   5.922   2.098
64689SOL     OW95905  10.249  13.255   4.782
64689SOL    HW195906  10.220  13.252   4.691
64689SOL    HW295907  10.326  13.312   4.781
64690SOL     OW95908   8.474   9.941   6.075
64690SOL    HW195909   8.502   9.849   6.072
64690SOL    HW295910   8.423   9.953   5.995
64691SOL     OW95911   9.352   4.337   0.375
64691SOL    HW195912   9.410   4.273   0.333
64691SOL    HW295913   9.388   4.348   0.463
64692SOL     OW95914  10.716  14.423   7.390
64692SOL    HW195915  10.652  14.430   7.461
64692SOL    HW295916  10.735  14.329   7.385
64693SOL     OW95917   4.769  13.937  13.424
64693SOL    HW195918   4.732  14.020  13.453
64693SOL    HW295919   4.854  13.932  13.469
64694SOL     OW95920   1.317  14.283   2.295
64694SOL    HW195921   1.303  14.249   2.207
64694SOL    HW295922   1.260  14.229   2.350
64695SOL     OW95923  11.063   1.777  13.056
64695SOL    HW195924  11.006   1.782  13.133
64695SOL    HW295925  11.149   1.753  13.091
64696SOL     OW95926   4.379   2.282  13.385
64696SOL    HW195927   4.422   2.323  13.311
64696SOL    HW295928   4.410   2.192  13.385
64697SOL     OW95929   8.904   5.860   3.909
64697SOL    HW195930   8.897   5.935   3.850
64697SOL    HW295931   8.833   5.802   3.882
64698SOL     OW95932   1.512   1.785   8.690
64698SOL    HW195933   1.418   1.801   8.693
64698SOL    HW295934   1.535   1.766   8.781
64699SOL     OW95935   7.739   8.737  14.065
64699SOL    HW195936   7.735   8.811  14.126
64699SOL    HW295937   7.656   8.691  14.079
64700SOL     OW95938   4.447  10.717  10.972
64700SOL    HW195939   4.427  10.676  11.056
64700SOL    HW295940   4.364  10.758  10.945
64701SOL     OW95941  11.453   5.201   5.392
64701SOL    HW195942  11.539   5.240   5.380
64701SOL    HW295943  11.430   5.221   5.483
64702SOL     OW95944   4.393  10.816   0.378
64702SOL    HW195945   4.422  10.902   0.408
64702SOL    HW295946   4.299  10.813   0.399
64703SOL     OW95947   5.186   6.079  13.715
64703SOL    HW195948   5.140   6.032  13.785
64703SOL    HW295949   5.278   6.052  13.724
64704SOL     OW95950  11.510   1.155   4.994
64704SOL    HW195951  11.418   1.133   5.003
64704SOL    HW295952  11.512   1.226   4.929
64705SOL     OW95953  13.812   7.046  13.643
64705SOL    HW195954  13.831   7.111  13.576
64705SOL    HW295955  13.723   7.016  13.624
64706SOL     OW95956   6.412  14.231   3.387
64706SOL    HW195957   6.405  14.258   3.296
64706SOL    HW295958   6.383  14.307   3.437
64707SOL     OW95959   3.859   4.428  11.555
64707SOL    HW195960   3.916   4.459  11.484
64707SOL    HW295961   3.826   4.508  11.596
64708SOL     OW95962   2.661   3.437   7.017
64708SOL    HW195963   2.670   3.472   6.929
64708SOL    HW295964   2.567   3.417   7.026
64709SOL     OW95965   3.046   5.501   8.715
64709SOL    HW195966   2.971   5.532   8.665
64709SOL    HW295967   3.116   5.492   8.650
64710SOL     OW95968  13.165  10.690   9.163
64710SOL    HW195969  13.107  10.757   9.197
64710SOL    HW295970  13.250  10.732   9.155
64711SOL     OW95971  10.107   1.169   7.246
64711SOL    HW195972  10.187   1.123   7.219
64711SOL    HW295973  10.039   1.102   7.245
64712SOL     OW95974   4.073   2.710   9.497
64712SOL    HW195975   4.140   2.649   9.528
64712SOL    HW295976   4.112   2.797   9.509
64713SOL     OW95977  10.972   6.347   5.661
64713SOL    HW195978  11.039   6.409   5.690
64713SOL    HW295979  11.018   6.287   5.602
64714SOL     OW95980  10.486   2.632   2.194
64714SOL    HW195981  10.548   2.602   2.128
64714SOL    HW295982  10.431   2.555   2.212
64715SOL     OW95983  10.368  11.833   8.852
64715SOL    HW195984  10.284  11.816   8.811
64715SOL    HW295985  10.362  11.923   8.884
64716SOL     OW95986   8.082   5.434   8.561
64716SOL    HW195987   8.157   5.461   8.613
64716SOL    HW295988   8.118   5.371   8.498
64717SOL     OW95989   1.418   0.718   6.902
64717SOL    HW195990   1.372   0.644   6.943
64717SOL    HW295991   1.503   0.720   6.947
64718SOL     OW95992  10.708  12.854  10.136
64718SOL    HW195993  10.779  12.909  10.105
64718SOL    HW295994  10.633  12.876  10.080
64719SOL     OW95995  11.640   3.230   0.905
64719SOL    HW195996  11.590   3.188   0.976
64719SOL    HW295997  11.713   3.171   0.889
64720SOL     OW95998   8.901   6.446   1.527
64720SOL    HW195999   8.824   6.390   1.521
64720SOL    HW296000   8.877   6.525   1.479
64721SOL     OW96001   3.130   1.279   6.245
64721SOL    HW196002   3.035   1.285   6.257
64721SOL    HW296003   3.166   1.333   6.316
64722SOL     OW96004   4.921  11.020   7.645
64722SOL    HW196005   4.936  11.099   7.697
64722SOL    HW296006   4.987  10.958   7.676
64723SOL     OW96007  11.669   5.964  11.273
64723SOL    HW196008  11.734   5.935  11.337
64723SOL    HW296009  11.591   5.913  11.293
64724SOL     OW96010   5.374   6.588  12.660
64724SOL    HW196011   5.397   6.639  12.582
64724SOL    HW296012   5.445   6.523  12.668
64725SOL     OW96013  10.121   1.089  10.372
64725SOL    HW196014  10.137   0.999  10.401
64725SOL    HW296015  10.102   1.081  10.278
64726SOL     OW96016  12.451   1.283   6.596
64726SOL    HW196017  12.375   1.227   6.611
64726SOL    HW296018  12.492   1.247   6.518
64727SOL     OW96019   5.753   3.566   5.695
64727SOL    HW196020   5.773   3.557   5.788
64727SOL    HW296021   5.835   3.598   5.656
64728SOL     OW96022   3.493   5.393  11.958
64728SOL    HW196023   3.482   5.326  12.027
64728SOL    HW296024   3.559   5.453  11.993
64729SOL     OW96025   1.285   7.781  12.765
64729SOL    HW196026   1.243   7.815  12.843
64729SOL    HW296027   1.283   7.854  12.702
64730SOL     OW96028   2.269   2.462   1.310
64730SOL    HW196029   2.222   2.490   1.232
64730SOL    HW296030   2.358   2.495   1.298
64731SOL     OW96031  13.554   8.430   0.154
64731SOL    HW196032  13.611   8.363   0.192
64731SOL    HW296033  13.565   8.505   0.212
64732SOL     OW96034  14.226  11.787   5.281
64732SOL    HW196035  14.147  11.812   5.233
64732SOL    HW296036  14.195  11.731   5.352
64733SOL     OW96037  13.983   8.007  11.167
64733SOL    HW196038  14.000   8.101  11.179
64733SOL    HW296039  13.998   7.991  11.074
64734SOL     OW96040   2.285  14.844   5.903
64734SOL    HW196041   2.309   0.059   5.930
64734SOL    HW296042   2.304  14.841   5.809
64735SOL     OW96043   5.040   6.738   0.300
64735SOL    HW196044   5.028   6.743   0.205
64735SOL    HW296045   5.127   6.774   0.315
64736SOL     OW96046   1.478   9.317   5.339
64736SOL    HW196047   1.517   9.230   5.330
64736SOL    HW296048   1.437   9.316   5.425
64737SOL     OW96049  11.128   8.314   3.037
64737SOL    HW196050  11.078   8.249   3.088
64737SOL    HW296051  11.153   8.380   3.101
64738SOL     OW96052   3.944  12.027   2.774
64738SOL    HW196053   3.869  11.969   2.766
64738SOL    HW296054   3.907  12.109   2.807
64739SOL     OW96055   2.469   0.519   9.714
64739SOL    HW196056   2.376   0.543   9.708
64739SOL    HW296057   2.473   0.457   9.787
64740SOL     OW96058  13.867   9.312   1.193
64740SOL    HW196059  13.832   9.224   1.191
64740SOL    HW296060  13.799   9.366   1.154
64741SOL     OW96061   0.572  10.032  12.183
64741SOL    HW196062   0.591  10.049  12.091
64741SOL    HW296063   0.658  10.030  12.225
64742SOL     OW96064   4.128   1.507  11.600
64742SOL    HW196065   4.067   1.518  11.527
64742SOL    HW296066   4.209   1.477  11.560
64743SOL     OW96067  14.239   7.958   1.570
64743SOL    HW196068  14.332   7.970   1.549
64743SOL    HW296069  14.236   7.874   1.616
64744SOL     OW96070   2.826   8.494   9.057
64744SOL    HW196071   2.898   8.557   9.052
64744SOL    HW296072   2.749   8.546   9.079
64745SOL     OW96073   4.084  10.438   8.007
64745SOL    HW196074   4.115  10.417   8.095
64745SOL    HW296075   4.012  10.378   7.992
64746SOL     OW96076   4.064  13.179   8.011
64746SOL    HW196077   4.075  13.273   8.026
64746SOL    HW296078   4.080  13.167   7.918
64747SOL     OW96079   9.902  12.387   2.000
64747SOL    HW196080   9.958  12.310   1.997
64747SOL    HW296081   9.853  12.385   1.918
64748SOL     OW96082   6.087  13.299   0.037
64748SOL    HW196083   6.142  13.228   0.070
64748SOL    HW296084   6.065  13.273  14.820
64749SOL     OW96085   2.615  14.635   2.161
64749SOL    HW196086   2.637  14.577   2.234
64749SOL    HW296087   2.649  14.720   2.187
64750SOL     OW96088  10.031   7.939  14.126
64750SOL    HW196089  10.040   8.025  14.167
64750SOL    HW296090  10.113   7.926  14.079
64751SOL     OW96091   5.603   2.296  11.860
64751SOL    HW196092   5.559   2.240  11.795
64751SOL    HW296093   5.558   2.276  11.942
64752SOL     OW96094   2.162   4.213  14.368
64752SOL    HW196095   2.225   4.278  14.398
64752SOL    HW296096   2.077   4.246  14.398
64753SOL     OW96097   0.198  12.530   8.698
64753SOL    HW196098   0.273  12.586   8.679
64753SOL    HW296099   0.236  12.455   8.745
64754SOL     OW96100   0.645   5.789   5.153
64754SOL    HW196101   0.624   5.815   5.243
64754SOL    HW296102   0.635   5.694   5.153
64755SOL     OW96103  10.420   5.111   0.650
64755SOL    HW196104  10.331   5.147   0.655
64755SOL    HW296105  10.413   5.027   0.696
64756SOL     OW96106   8.851   5.111   6.100
64756SOL    HW196107   8.837   5.065   6.017
64756SOL    HW296108   8.869   5.041   6.163
64757SOL     OW96109  13.230   7.718   3.274
64757SOL    HW196110  13.292   7.790   3.266
64757SOL    HW296111  13.178   7.740   3.351
64758SOL     OW96112   3.516   0.745  14.802
64758SOL    HW196113   3.423   0.722  14.799
64758SOL    HW296114   3.556   0.678  14.857
64759SOL     OW96115   5.086   0.308   9.196
64759SOL    HW196116   5.065   0.375   9.131
64759SOL    HW296117   5.119   0.234   9.145
64760SOL     OW96118   2.458  13.948   3.094
64760SOL    HW196119   2.388  13.898   3.051
64760SOL    HW296120   2.457  13.917   3.184
64761SOL     OW96121  13.129   4.001   0.269
64761SOL    HW196122  13.170   4.084   0.248
64761SOL    HW296123  13.202   3.943   0.293
64762SOL     OW96124  11.307   1.901   6.880
64762SOL    HW196125  11.239   1.929   6.819
64762SOL    HW296126  11.266   1.832   6.932
64763SOL     OW96127  10.348   5.527   8.345
64763SOL    HW196128  10.342   5.494   8.434
64763SOL    HW296129  10.421   5.478   8.305
64764SOL     OW96130   6.918  13.535   4.186
64764SOL    HW196131   6.946  13.547   4.095
64764SOL    HW296132   6.926  13.440   4.200
64765SOL     OW96133  12.336  12.847   1.162
64765SOL    HW196134  12.291  12.836   1.077
64765SOL    HW296135  12.291  12.920   1.203
64766SOL     OW96136   3.190  13.991   8.617
64766SOL    HW196137   3.125  14.060   8.633
64766SOL    HW296138   3.248  13.994   8.692
64767SOL     OW96139   8.915   0.379   3.876
64767SOL    HW196140   8.987   0.399   3.817
64767SOL    HW296141   8.856   0.455   3.869
64768SOL     OW96142   8.248   4.543  14.210
64768SOL    HW196143   8.323   4.537  14.269
64768SOL    HW296144   8.177   4.574  14.265
64769SOL     OW96145  12.093   5.159  11.506
64769SOL    HW196146  12.054   5.246  11.519
64769SOL    HW296147  12.088   5.118  11.592
64770SOL     OW96148  10.336   6.051   4.399
64770SOL    HW196149  10.382   6.083   4.476
64770SOL    HW296150  10.309   6.131   4.353
64771SOL     OW96151   1.364   0.302   0.749
64771SOL    HW196152   1.307   0.297   0.672
64771SOL    HW296153   1.339   0.227   0.803
64772SOL     OW96154  12.775   7.097   3.461
64772SOL    HW196155  12.804   7.182   3.496
64772SOL    HW296156  12.855   7.045   3.456
64773SOL     OW96157  13.576  10.718  10.019
64773SOL    HW196158  13.592  10.698   9.927
64773SOL    HW296159  13.507  10.785  10.017
64774SOL     OW96160  11.088  14.223   6.176
64774SOL    HW196161  11.037  14.203   6.254
64774SOL    HW296162  11.043  14.297   6.136
64775SOL     OW96163  14.692  10.775  10.635
64775SOL    HW196164  14.713  10.830  10.710
64775SOL    HW296165  14.714  10.828  10.559
64776SOL     OW96166   3.836  13.636   6.814
64776SOL    HW196167   3.920  13.593   6.796
64776SOL    HW296168   3.860  13.718   6.858
64777SOL     OW96169  14.002   5.254   4.996
64777SOL    HW196170  14.048   5.176   5.026
64777SOL    HW296171  13.911   5.240   5.023
64778SOL     OW96172   4.853   2.984   3.923
64778SOL    HW196173   4.863   3.018   3.834
64778SOL    HW296174   4.937   2.944   3.944
64779SOL     OW96175   4.824  14.410   4.776
64779SOL    HW196176   4.872  14.389   4.856
64779SOL    HW296177   4.739  14.368   4.787
64780SOL     OW96178   0.192   4.656  11.649
64780SOL    HW196179   0.264   4.657  11.586
64780SOL    HW296180   0.221   4.596  11.718
64781SOL     OW96181   8.937  11.822   8.954
64781SOL    HW196182   8.932  11.727   8.970
64781SOL    HW296183   8.945  11.861   9.041
64782SOL     OW96184   3.010   1.210   4.693
64782SOL    HW196185   3.000   1.126   4.648
64782SOL    HW296186   2.981   1.275   4.629
64783SOL     OW96187   6.150   8.706   2.010
64783SOL    HW196188   6.128   8.616   1.984
64783SOL    HW296189   6.094   8.723   2.086
64784SOL     OW96190  12.860  13.602   6.995
64784SOL    HW196191  12.818  13.613   6.909
64784SOL    HW296192  12.880  13.509   7.000
64785SOL     OW96193   3.438   2.534   6.334
64785SOL    HW196194   3.423   2.440   6.341
64785SOL    HW296195   3.525   2.543   6.295
64786SOL     OW96196   5.987   7.753   0.519
64786SOL    HW196197   5.909   7.701   0.499
64786SOL    HW296198   5.952   7.836   0.551
64787SOL     OW96199  10.314  14.055  14.406
64787SOL    HW196200  10.332  13.976  14.356
64787SOL    HW296201  10.361  14.043  14.488
64788SOL     OW96202   7.928   2.236   4.037
64788SOL    HW196203   7.956   2.252   3.947
64788SOL    HW296204   7.980   2.298   4.089
64789SOL     OW96205  10.491   9.150   4.796
64789SOL    HW196206  10.407   9.195   4.804
64789SOL    HW296207  10.508   9.116   4.884
64790SOL     OW96208   0.724   8.167  11.546
64790SOL    HW196209   0.659   8.237  11.542
64790SOL    HW296210   0.797   8.198  11.493
64791SOL     OW96211  12.058  11.617   0.932
64791SOL    HW196212  12.013  11.694   0.897
64791SOL    HW296213  12.126  11.653   0.989
64792SOL     OW96214   2.257   6.438  10.824
64792SOL    HW196215   2.275   6.491  10.902
64792SOL    HW296216   2.238   6.351  10.858
64793SOL     OW96217  11.533   3.075  14.597
64793SOL    HW196218  11.454   3.122  14.569
64793SOL    HW296219  11.593   3.082  14.523
64794SOL     OW96220   9.324   8.539   9.021
64794SOL    HW196221   9.335   8.464   9.079
64794SOL    HW296222   9.235   8.531   8.988
64795SOL     OW96223   9.734   7.530   5.365
64795SOL    HW196224   9.732   7.466   5.294
64795SOL    HW296225   9.749   7.478   5.444
64796SOL     OW96226   0.647   8.341   1.255
64796SOL    HW196227   0.610   8.328   1.167
64796SOL    HW296228   0.616   8.429   1.280
64797SOL     OW96229   6.366   9.314  10.670
64797SOL    HW196230   6.293   9.327  10.609
64797SOL    HW296231   6.352   9.379  10.738
64798SOL     OW96232   3.830   5.166   6.731
64798SOL    HW196233   3.877   5.210   6.802
64798SOL    HW296234   3.794   5.087   6.772
64799SOL     OW96235   4.121   1.795   1.711
64799SOL    HW196236   4.215   1.811   1.720
64799SOL    HW296237   4.079   1.872   1.749
64800SOL     OW96238   5.274   6.209  14.494
64800SOL    HW196239   5.237   6.157  14.423
64800SOL    HW296240   5.236   6.170  14.574
64801SOL     OW96241  12.048   1.367   4.740
64801SOL    HW196242  12.056   1.338   4.831
64801SOL    HW296243  11.959   1.400   4.733
64802SOL     OW96244   0.365  13.888   1.657
64802SOL    HW196245   0.400  13.861   1.742
64802SOL    HW296246   0.299  13.954   1.677
64803SOL     OW96247  12.212   2.600  13.577
64803SOL    HW196248  12.117   2.602  13.582
64803SOL    HW296249  12.242   2.624  13.664
64804SOL     OW96250   7.163   5.003   9.110
64804SOL    HW196251   7.137   5.031   9.022
64804SOL    HW296252   7.240   5.056   9.130
64805SOL     OW96253   8.402  11.183   9.211
64805SOL    HW196254   8.350  11.231   9.276
64805SOL    HW296255   8.439  11.110   9.260
64806SOL     OW96256  14.259   5.646  14.172
64806SOL    HW196257  14.184   5.684  14.217
64806SOL    HW296258  14.241   5.551  14.172
64807SOL     OW96259   7.953   9.652   6.418
64807SOL    HW196260   7.918   9.565   6.438
64807SOL    HW296261   8.014   9.669   6.490
64808SOL     OW96262  11.486  11.703  12.278
64808SOL    HW196263  11.449  11.790  12.297
64808SOL    HW296264  11.417  11.642  12.303
64809SOL     OW96265  14.224  11.264  14.371
64809SOL    HW196266  14.274  11.341  14.397
64809SOL    HW296267  14.142  11.299  14.336
64810SOL     OW96268  13.435  13.588  12.730
64810SOL    HW196269  13.522  13.611  12.761
64810SOL    HW296270  13.447  13.567  12.638
64811SOL     OW96271  12.320   9.494   4.042
64811SOL    HW196272  12.284   9.439   3.973
64811SOL    HW296273  12.350   9.432   4.109
64812SOL     OW96274   4.394   5.422  14.611
64812SOL    HW196275   4.471   5.393  14.562
64812SOL    HW296276   4.331   5.450  14.545
64813SOL     OW96277  10.649  12.623  12.054
64813SOL    HW196278  10.604  12.541  12.031
64813SOL    HW296279  10.691  12.604  12.138
64814SOL     OW96280   5.767  11.999   5.876
64814SOL    HW196281   5.728  11.926   5.828
64814SOL    HW296282   5.840  12.028   5.821
64815SOL     OW96283   4.365   9.991   2.289
64815SOL    HW196284   4.394   9.919   2.345
64815SOL    HW296285   4.285  10.023   2.331
64816SOL     OW96286   6.817   2.021   7.901
64816SOL    HW196287   6.773   1.956   7.955
64816SOL    HW296288   6.878   1.970   7.847
64817SOL     OW96289   9.446  12.735  13.041
64817SOL    HW196290   9.492  12.669  12.989
64817SOL    HW296291   9.487  12.818  13.015
64818SOL     OW96292  10.699   4.503   3.212
64818SOL    HW196293  10.655   4.493   3.296
64818SOL    HW296294  10.767   4.570   3.229
64819SOL     OW96295   5.173  14.297  13.371
64819SOL    HW196296   5.257  14.301  13.325
64819SOL    HW296297   5.191  14.335  13.457
64820SOL     OW96298   4.423   6.199   5.256
64820SOL    HW196299   4.328   6.197   5.243
64820SOL    HW296300   4.445   6.111   5.287
64821SOL     OW96301  12.275   9.737   0.883
64821SOL    HW196302  12.329   9.764   0.809
64821SOL    HW296303  12.328   9.758   0.960
64822SOL     OW96304  10.750   7.220  12.780
64822SOL    HW196305  10.809   7.153  12.815
64822SOL    HW296306  10.705   7.254  12.857
64823SOL     OW96307   4.006  10.384  13.540
64823SOL    HW196308   4.044  10.467  13.512
64823SOL    HW296309   4.000  10.391  13.635
64824SOL     OW96310   9.199   4.814   0.235
64824SOL    HW196311   9.242   4.787   0.154
64824SOL    HW296312   9.244   4.764   0.304
64825SOL     OW96313   8.373  11.539   6.241
64825SOL    HW196314   8.282  11.568   6.247
64825SOL    HW296315   8.424  11.619   6.253
64826SOL     OW96316  13.261   3.018   2.834
64826SOL    HW196317  13.189   2.989   2.891
64826SOL    HW296318  13.305   3.086   2.884
64827SOL     OW96319   2.683  10.602   5.897
64827SOL    HW196320   2.746  10.592   5.825
64827SOL    HW296321   2.735  10.638   5.969
64828SOL     OW96322   8.109   8.322  12.653
64828SOL    HW196323   8.133   8.356  12.567
64828SOL    HW296324   8.016   8.339  12.661
64829SOL     OW96325   4.027   0.320   8.215
64829SOL    HW196326   4.098   0.256   8.212
64829SOL    HW296327   4.017   0.349   8.124
64830SOL     OW96328  13.395  11.584   3.894
64830SOL    HW196329  13.355  11.666   3.866
64830SOL    HW296330  13.474  11.576   3.840
64831SOL     OW96331   7.445   5.255   6.268
64831SOL    HW196332   7.432   5.340   6.309
64831SOL    HW296333   7.472   5.274   6.178
64832SOL     OW96334   0.500   0.331   2.839
64832SOL    HW196335   0.409   0.311   2.859
64832SOL    HW296336   0.549   0.294   2.912
64833SOL     OW96337   5.640   0.435  12.649
64833SOL    HW196338   5.625   0.392  12.565
64833SOL    HW296339   5.619   0.527  12.634
64834SOL     OW96340   5.198   1.818   1.777
64834SOL    HW196341   5.128   1.872   1.741
64834SOL    HW296342   5.161   1.730   1.781
64835SOL     OW96343   4.316   1.353   9.886
64835SOL    HW196344   4.297   1.447   9.881
64835SOL    HW296345   4.398   1.343   9.837
64836SOL     OW96346  14.295  14.750   2.464
64836SOL    HW196347  14.381  14.746   2.422
64836SOL    HW296348  14.256  14.664   2.445
64837SOL     OW96349   4.433   4.467   5.471
64837SOL    HW196350   4.479   4.417   5.538
64837SOL    HW296351   4.406   4.548   5.516
64838SOL     OW96352  13.835   1.983  11.260
64838SOL    HW196353  13.813   2.040  11.334
64838SOL    HW296354  13.750   1.962  11.220
64839SOL     OW96355  12.847   1.186  14.005
64839SOL    HW196356  12.763   1.228  14.025
64839SOL    HW296357  12.865   1.210  13.914
64840SOL     OW96358   0.333   2.064   2.979
64840SOL    HW196359   0.363   2.151   2.954
64840SOL    HW296360   0.380   2.045   3.061
64841SOL     OW96361  13.089  12.500  13.067
64841SOL    HW196362  13.087  12.516  12.973
64841SOL    HW296363  13.139  12.573  13.103
64842SOL     OW96364  12.865  10.390  12.466
64842SOL    HW196365  12.780  10.346  12.473
64842SOL    HW296366  12.921  10.345  12.529
64843SOL     OW96367   4.818   5.069   6.343
64843SOL    HW196368   4.825   4.982   6.382
64843SOL    HW296369   4.831   5.129   6.417
64844SOL     OW96370   5.238   1.901  10.054
64844SOL    HW196371   5.249   1.806  10.060
64844SOL    HW296372   5.290   1.937  10.126
64845SOL     OW96373   8.212   6.192   6.701
64845SOL    HW196374   8.141   6.132   6.725
64845SOL    HW296375   8.289   6.136   6.692
64846SOL     OW96376  12.918   7.750   6.808
64846SOL    HW196377  12.973   7.695   6.864
64846SOL    HW296378  12.859   7.794   6.869
64847SOL     OW96379   8.957   7.425  11.296
64847SOL    HW196380   8.915   7.406  11.212
64847SOL    HW296381   8.982   7.338  11.329
64848SOL     OW96382  10.205   3.548   4.039
64848SOL    HW196383  10.133   3.610   4.043
64848SOL    HW296384  10.214   3.517   4.129
64849SOL     OW96385   5.000   0.412  11.726
64849SOL    HW196386   4.944   0.352  11.676
64849SOL    HW296387   5.089   0.385  11.704
64850SOL     OW96388  11.241   2.214  11.441
64850SOL    HW196389  11.265   2.294  11.393
64850SOL    HW296390  11.277   2.143  11.388
64851SOL     OW96391   4.316  11.643   6.961
64851SOL    HW196392   4.367  11.561   6.960
64851SOL    HW296393   4.272  11.642   7.046
64852SOL     OW96394  11.800   6.812  13.542
64852SOL    HW196395  11.747   6.732  13.538
64852SOL    HW296396  11.839   6.811  13.629
64853SOL     OW96397   3.670   6.654   8.168
64853SOL    HW196398   3.714   6.739   8.180
64853SOL    HW296399   3.704   6.600   8.239
64854SOL     OW96400  12.821  10.765   6.798
64854SOL    HW196401  12.853  10.855   6.785
64854SOL    HW296402  12.884  10.726   6.858
64855SOL     OW96403  13.307   4.003  14.812
64855SOL    HW196404  13.212   4.005  14.819
64855SOL    HW296405  13.330   4.086  14.770
64856SOL     OW96406   7.549   4.669   6.507
64856SOL    HW196407   7.567   4.695   6.598
64856SOL    HW296408   7.475   4.609   6.514
64857SOL     OW96409   6.733   7.073  10.822
64857SOL    HW196410   6.750   7.078  10.728
64857SOL    HW296411   6.640   7.096  10.830
64858SOL     OW96412   2.226   5.743   2.776
64858SOL    HW196413   2.235   5.839   2.773
64858SOL    HW296414   2.263   5.713   2.694
64859SOL     OW96415   1.638   9.566  12.023
64859SOL    HW196416   1.683   9.492  12.063
64859SOL    HW296417   1.630   9.631  12.093
64860SOL     OW96418   6.128   1.373   0.566
64860SOL    HW196419   6.181   1.350   0.642
64860SOL    HW296420   6.061   1.305   0.561
64861SOL     OW96421  12.606   8.681  11.238
64861SOL    HW196422  12.510   8.682  11.242
64861SOL    HW296423  12.634   8.711  11.325
64862SOL     OW96424   6.693   5.996   6.159
64862SOL    HW196425   6.727   6.064   6.101
64862SOL    HW296426   6.601   5.988   6.135
64863SOL     OW96427   0.655   8.047  10.020
64863SOL    HW196428   0.660   7.953  10.040
64863SOL    HW296429   0.642   8.089  10.105
64864SOL     OW96430  12.813  10.993  11.595
64864SOL    HW196431  12.830  11.015  11.504
64864SOL    HW296432  12.717  10.995  11.603
64865SOL     OW96433   0.021   3.313   3.504
64865SOL    HW196434   0.113   3.289   3.512
64865SOL    HW296435   0.011   3.390   3.560
64866SOL     OW96436   7.810   7.849  12.955
64866SOL    HW196437   7.772   7.825  13.040
64866SOL    HW296438   7.777   7.937  12.938
64867SOL     OW96439   2.644  13.869   7.556
64867SOL    HW196440   2.665  13.930   7.485
64867SOL    HW296441   2.651  13.782   7.516
64868SOL     OW96442  13.891   8.232   1.431
64868SOL    HW196443  13.890   8.272   1.344
64868SOL    HW296444  13.978   8.194   1.439
64869SOL     OW96445   2.556   5.998   9.220
64869SOL    HW196446   2.604   6.058   9.277
64869SOL    HW296447   2.554   5.915   9.269
64870SOL     OW96448   2.434   4.951   2.527
64870SOL    HW196449   2.342   4.938   2.506
64870SOL    HW296450   2.451   5.043   2.507
64871SOL     OW96451  10.085   3.417   5.063
64871SOL    HW196452  10.137   3.489   5.098
64871SOL    HW296453   9.995   3.437   5.088
64872SOL     OW96454   3.334   2.375  11.396
64872SOL    HW196455   3.355   2.443  11.460
64872SOL    HW296456   3.346   2.417  11.311
64873SOL     OW96457  13.606   0.271   7.428
64873SOL    HW196458  13.664   0.211   7.475
64873SOL    HW296459  13.664   0.322   7.373
64874SOL     OW96460   2.480  10.003  12.913
64874SOL    HW196461   2.485  10.006  13.008
64874SOL    HW296462   2.570   9.985  12.884
64875SOL     OW96463  10.874   2.153   0.906
64875SOL    HW196464  10.956   2.143   0.858
64875SOL    HW296465  10.891   2.223   0.969
64876SOL     OW96466   2.510   8.563   5.120
64876SOL    HW196467   2.552   8.620   5.184
64876SOL    HW296468   2.580   8.539   5.059
64877SOL     OW96469   8.788  12.721   2.850
64877SOL    HW196470   8.852  12.734   2.780
64877SOL    HW296471   8.799  12.796   2.908
64878SOL     OW96472   4.876  11.740  13.514
64878SOL    HW196473   4.967  11.710  13.513
64878SOL    HW296474   4.883  11.835  13.530
64879SOL     OW96475   1.098   4.382   6.808
64879SOL    HW196476   1.082   4.434   6.887
64879SOL    HW296477   1.096   4.291   6.839
64880SOL     OW96478  10.409   0.064  12.600
64880SOL    HW196479  10.322   0.025  12.590
64880SOL    HW296480  10.392   0.156  12.619
64881SOL     OW96481  13.237   8.010  12.334
64881SOL    HW196482  13.255   8.061  12.255
64881SOL    HW296483  13.221   7.921  12.303
64882SOL     OW96484   1.573   7.351   9.607
64882SOL    HW196485   1.582   7.446   9.615
64882SOL    HW296486   1.490   7.338   9.562
64883SOL     OW96487  10.435   8.201   0.618
64883SOL    HW196488  10.392   8.214   0.702
64883SOL    HW296489  10.377   8.242   0.554
64884SOL     OW96490   5.825   2.689   5.560
64884SOL    HW196491   5.876   2.680   5.641
64884SOL    HW296492   5.890   2.711   5.493
64885SOL     OW96493   7.631   0.432   6.478
64885SOL    HW196494   7.559   0.494   6.481
64885SOL    HW296495   7.706   0.480   6.512
64886SOL     OW96496   9.616   1.900   7.029
64886SOL    HW196497   9.657   1.858   6.954
64886SOL    HW296498   9.568   1.830   7.073
64887SOL     OW96499  10.560   8.486  13.438
64887SOL    HW196500  10.518   8.570  13.454
64887SOL    HW296501  10.596   8.460  13.524
64888SOL     OW96502   8.520  14.084   1.046
64888SOL    HW196503   8.531  14.119   0.958
64888SOL    HW296504   8.426  14.066   1.053
64889SOL     OW96505   1.553  13.076   6.254
64889SOL    HW196506   1.460  13.082   6.231
64889SOL    HW296507   1.556  13.089   6.348
64890SOL     OW96508   7.384   0.559  14.360
64890SOL    HW196509   7.474   0.554  14.329
64890SOL    HW296510   7.344   0.477  14.332
64891SOL     OW96511   9.713   2.152  10.535
64891SOL    HW196512   9.766   2.137  10.614
64891SOL    HW296513   9.623   2.143  10.565
64892SOL     OW96514   2.786   3.700  13.574
64892SOL    HW196515   2.760   3.774  13.519
64892SOL    HW296516   2.763   3.623  13.523
64893SOL     OW96517   9.259   8.594   6.147
64893SOL    HW196518   9.178   8.642   6.130
64893SOL    HW296519   9.308   8.600   6.065
64894SOL     OW96520   1.098   4.159   4.367
64894SOL    HW196521   1.012   4.138   4.404
64894SOL    HW296522   1.154   4.173   4.443
64895SOL     OW96523   9.499   1.649  13.185
64895SOL    HW196524   9.477   1.639  13.277
64895SOL    HW296525   9.459   1.732  13.159
64896SOL     OW96526   6.692   9.973  13.382
64896SOL    HW196527   6.609   9.942  13.345
64896SOL    HW296528   6.693   9.938  13.471
64897SOL     OW96529   8.230   7.844   7.097
64897SOL    HW196530   8.142   7.810   7.081
64897SOL    HW296531   8.252   7.814   7.185
64898SOL     OW96532   7.302   5.192   0.111
64898SOL    HW196533   7.271   5.278   0.085
64898SOL    HW296534   7.225   5.135   0.103
64899SOL     OW96535   0.389  13.987   1.206
64899SOL    HW196536   0.401  14.068   1.157
64899SOL    HW296537   0.321  13.940   1.159
64900SOL     OW96538  10.045  10.905   0.165
64900SOL    HW196539  10.097  10.825   0.163
64900SOL    HW296540  10.099  10.969   0.118
64901SOL     OW96541  12.088   0.671   0.374
64901SOL    HW196542  12.054   0.585   0.400
64901SOL    HW296543  12.156   0.691   0.439
64902SOL     OW96544  10.151  11.828   8.670
64902SOL    HW196545  10.147  11.922   8.656
64902SOL    HW296546  10.090  11.792   8.605
64903SOL     OW96547  14.534   6.561   9.311
64903SOL    HW196548  14.581   6.557   9.394
64903SOL    HW296549  14.476   6.485   9.313
64904SOL     OW96550  13.359   2.802  12.689
64904SOL    HW196551  13.284   2.862  12.686
64904SOL    HW296552  13.319   2.715  12.685
64905SOL     OW96553   4.740   0.430   6.412
64905SOL    HW196554   4.835   0.416   6.419
64905SOL    HW296555   4.728   0.468   6.325
64906SOL     OW96556   1.551   0.255   3.478
64906SOL    HW196557   1.619   0.246   3.411
64906SOL    HW296558   1.581   0.328   3.532
64907SOL     OW96559   1.191   1.820  11.330
64907SOL    HW196560   1.128   1.755  11.300
64907SOL    HW296561   1.240   1.777  11.400
64908SOL     OW96562   3.911  12.739   1.977
64908SOL    HW196563   3.984  12.679   1.960
64908SOL    HW296564   3.887  12.772   1.891
64909SOL     OW96565   2.489   2.807  12.415
64909SOL    HW196566   2.407   2.768  12.446
64909SOL    HW296567   2.550   2.733  12.408
64910SOL     OW96568   1.174   3.382   5.337
64910SOL    HW196569   1.258   3.405   5.378
64910SOL    HW296570   1.108   3.423   5.393
64911SOL     OW96571   7.787   1.563   3.375
64911SOL    HW196572   7.842   1.638   3.396
64911SOL    HW296573   7.698   1.597   3.373
64912SOL     OW96574  11.621   7.584   4.793
64912SOL    HW196575  11.618   7.677   4.770
64912SOL    HW296576  11.705   7.554   4.759
64913SOL     OW96577   3.337   0.093   4.527
64913SOL    HW196578   3.415   0.042   4.504
64913SOL    HW296579   3.291   0.039   4.591
64914SOL     OW96580   8.230   2.275   9.622
64914SOL    HW196581   8.323   2.285   9.643
64914SOL    HW296582   8.228   2.216   9.547
64915SOL     OW96583   6.116   8.729   7.028
64915SOL    HW196584   6.101   8.639   7.059
64915SOL    HW296585   6.188   8.761   7.081
64916SOL     OW96586  11.151  11.990   9.529
64916SOL    HW196587  11.152  11.916   9.470
64916SOL    HW296588  11.243  12.016   9.538
64917SOL     OW96589   1.073  13.835   6.038
64917SOL    HW196590   1.009  13.896   6.003
64917SOL    HW296591   1.126  13.810   5.961
64918SOL     OW96592  12.759   1.281   2.325
64918SOL    HW196593  12.729   1.372   2.323
64918SOL    HW296594  12.697   1.234   2.270
64919SOL     OW96595   3.628   4.822   9.974
64919SOL    HW196596   3.618   4.805  10.068
64919SOL    HW296597   3.723   4.833   9.962
64920SOL     OW96598  11.960  10.553   2.868
64920SOL    HW196599  11.934  10.573   2.778
64920SOL    HW296600  11.877  10.547   2.917
64921SOL     OW96601   5.115   4.507  12.650
64921SOL    HW196602   5.022   4.504  12.625
64921SOL    HW296603   5.162   4.509  12.567
64922SOL     OW96604  11.215   1.430  11.996
64922SOL    HW196605  11.222   1.473  11.911
64922SOL    HW296606  11.282   1.472  12.051
64923SOL     OW96607   6.699   1.961   1.876
64923SOL    HW196608   6.672   1.910   1.952
64923SOL    HW296609   6.624   2.018   1.857
64924SOL     OW96610   8.764  10.040  11.415
64924SOL    HW196611   8.701  10.022  11.345
64924SOL    HW296612   8.756  10.134  11.431
64925SOL     OW96613   5.226   2.463   6.357
64925SOL    HW196614   5.185   2.379   6.376
64925SOL    HW296615   5.300   2.441   6.300
64926SOL     OW96616  13.390  14.270   3.772
64926SOL    HW196617  13.385  14.363   3.751
64926SOL    HW296618  13.335  14.259   3.850
64927SOL     OW96619   4.419   4.388   3.401
64927SOL    HW196620   4.437   4.412   3.492
64927SOL    HW296621   4.324   4.381   3.397
64928SOL     OW96622   2.231   2.058   8.487
64928SOL    HW196623   2.154   2.112   8.502
64928SOL    HW296624   2.261   2.034   8.574
64929SOL     OW96625   3.636   8.540  11.938
64929SOL    HW196626   3.689   8.464  11.912
64929SOL    HW296627   3.567   8.503  11.993
64930SOL     OW96628   8.620   5.969   5.657
64930SOL    HW196629   8.645   6.028   5.586
64930SOL    HW296630   8.533   5.998   5.684
64931SOL     OW96631  13.051   4.090  13.033
64931SOL    HW196632  12.985   4.021  13.037
64931SOL    HW296633  13.083   4.097  13.123
64932SOL     OW96634  14.744   9.562   0.504
64932SOL    HW196635  14.726   9.603   0.589
64932SOL    HW296636  14.658   9.540   0.469
64933SOL     OW96637  10.227  14.247  14.227
64933SOL    HW196638  10.302  14.298  14.196
64933SOL    HW296639  10.265  14.169  14.266
64934SOL     OW96640   5.943  14.445  10.999
64934SOL    HW196641   5.948  14.444  11.094
64934SOL    HW296642   5.875  14.381  10.978
64935SOL     OW96643  11.199   3.746  11.390
64935SOL    HW196644  11.290   3.723  11.407
64935SOL    HW296645  11.204   3.827  11.338
64936SOL     OW96646   5.058  11.833   6.682
64936SOL    HW196647   4.994  11.763   6.669
64936SOL    HW296648   5.090  11.853   6.594
64937SOL     OW96649  12.944   3.501  14.288
64937SOL    HW196650  13.001   3.562  14.335
64937SOL    HW296651  13.001   3.427  14.267
64938SOL     OW96652  10.409   8.142  13.123
64938SOL    HW196653  10.391   8.194  13.201
64938SOL    HW296654  10.493   8.099  13.141
64939SOL     OW96655   1.930  13.510  10.628
64939SOL    HW196656   1.963  13.472  10.546
64939SOL    HW296657   1.986  13.471  10.695
64940SOL     OW96658  13.518  13.658   4.780
64940SOL    HW196659  13.423  13.662   4.772
64940SOL    HW296660  13.540  13.730   4.839
64941SOL     OW96661   7.596  13.071   8.595
64941SOL    HW196662   7.610  13.098   8.504
64941SOL    HW296663   7.561  13.148   8.638
64942SOL     OW96664   1.419   2.128   5.944
64942SOL    HW196665   1.336   2.094   5.977
64942SOL    HW296666   1.480   2.054   5.952
64943SOL     OW96667   1.134   9.791   0.526
64943SOL    HW196668   1.167   9.877   0.500
64943SOL    HW296669   1.039   9.797   0.515
64944SOL     OW96670  12.253   8.696   1.766
64944SOL    HW196671  12.257   8.604   1.791
64944SOL    HW296672  12.282   8.698   1.674
64945SOL     OW96673  10.052   2.393  14.567
64945SOL    HW196674   9.980   2.411  14.507
64945SOL    HW296675  10.120   2.455  14.541
64946SOL     OW96676   2.218  12.883  13.213
64946SOL    HW196677   2.205  12.977  13.198
64946SOL    HW296678   2.313  12.872  13.217
64947SOL     OW96679   9.829   3.812  14.689
64947SOL    HW196680   9.813   3.874  14.760
64947SOL    HW296681   9.863   3.734  14.733
64948SOL     OW96682   7.711   1.467  10.589
64948SOL    HW196683   7.733   1.541  10.646
64948SOL    HW296684   7.792   1.419  10.579
64949SOL     OW96685   5.234  11.736  12.083
64949SOL    HW196686   5.202  11.820  12.115
64949SOL    HW296687   5.321  11.727  12.122
64950SOL     OW96688   3.079  12.475   3.652
64950SOL    HW196689   3.043  12.483   3.740
64950SOL    HW296690   3.103  12.565   3.628
64951SOL     OW96691  10.878  11.758   5.108
64951SOL    HW196692  10.949  11.697   5.126
64951SOL    HW296693  10.826  11.760   5.188
64952SOL     OW96694   9.424  11.304   4.686
64952SOL    HW196695   9.518  11.307   4.668
64952SOL    HW296696   9.413  11.353   4.767
64953SOL     OW96697  11.194   4.589  14.409
64953SOL    HW196698  11.217   4.658  14.471
64953SOL    HW296699  11.100   4.577  14.420
64954SOL     OW96700   1.568   1.474   6.455
64954SOL    HW196701   1.603   1.553   6.413
64954SOL    HW296702   1.560   1.411   6.383
64955SOL     OW96703   6.367   8.929   4.393
64955SOL    HW196704   6.338   9.020   4.392
64955SOL    HW296705   6.455   8.932   4.430
64956SOL     OW96706   9.457  14.183  11.890
64956SOL    HW196707   9.465  14.112  11.826
64956SOL    HW296708   9.485  14.261  11.842
64957SOL     OW96709  10.946   2.942   0.622
64957SOL    HW196710  10.946   3.035   0.600
64957SOL    HW296711  11.023   2.906   0.577
64958SOL     OW96712   0.906  14.733   8.945
64958SOL    HW196713   0.826  14.754   8.895
64958SOL    HW296714   0.889  14.767   9.032
64959SOL     OW96715  13.634  13.691   5.176
64959SOL    HW196716  13.720  13.725   5.202
64959SOL    HW296717  13.654  13.625   5.110
64960SOL     OW96718   0.054   8.799   5.233
64960SOL    HW196719   0.110   8.856   5.182
64960SOL    HW296720   0.104   8.780   5.312
64961SOL     OW96721  13.947   5.779   9.950
64961SOL    HW196722  13.921   5.855  10.003
64961SOL    HW296723  14.043   5.784   9.948
64962SOL     OW96724  13.638   6.207   7.894
64962SOL    HW196725  13.685   6.129   7.923
64962SOL    HW296726  13.593   6.181   7.814
64963SOL     OW96727   2.422   4.534   8.331
64963SOL    HW196728   2.392   4.469   8.268
64963SOL    HW296729   2.455   4.482   8.405
64964SOL     OW96730   9.631  11.603   7.027
64964SOL    HW196731   9.554  11.626   6.975
64964SOL    HW296732   9.663  11.522   6.988
64965SOL     OW96733   5.781   2.111   5.313
64965SOL    HW196734   5.773   2.113   5.408
64965SOL    HW296735   5.787   2.203   5.287
64966SOL     OW96736   4.961   6.046   2.007
64966SOL    HW196737   4.914   6.091   2.077
64966SOL    HW296738   5.044   6.019   2.048
64967SOL     OW96739   4.325   4.461   7.433
64967SOL    HW196740   4.285   4.400   7.495
64967SOL    HW296741   4.273   4.541   7.442
64968SOL     OW96742  11.619   0.204   8.094
64968SOL    HW196743  11.660   0.285   8.065
64968SOL    HW296744  11.647   0.193   8.185
64969SOL     OW96745   6.295  11.018   4.574
64969SOL    HW196746   6.290  11.087   4.640
64969SOL    HW296747   6.290  10.937   4.625
64970SOL     OW96748   2.682   0.332  11.779
64970SOL    HW196749   2.718   0.372  11.700
64970SOL    HW296750   2.631   0.402  11.820
64971SOL     OW96751  10.218   5.276   4.962
64971SOL    HW196752  10.299   5.237   4.996
64971SOL    HW296753  10.164   5.290   5.039
64972SOL     OW96754   1.389   0.231  10.576
64972SOL    HW196755   1.310   0.285  10.582
64972SOL    HW296756   1.440   0.255  10.653
64973SOL     OW96757   0.286   0.793   3.882
64973SOL    HW196758   0.330   0.816   3.964
64973SOL    HW296759   0.231   0.718   3.904
64974SOL     OW96760   4.298   2.726  10.937
64974SOL    HW196761   4.356   2.668  10.986
64974SOL    HW296762   4.272   2.675  10.860
64975SOL     OW96763   8.554   1.156  11.692
64975SOL    HW196764   8.478   1.166  11.748
64975SOL    HW296765   8.619   1.217  11.727
64976SOL     OW96766   7.181   8.250   2.752
64976SOL    HW196767   7.229   8.210   2.825
64976SOL    HW296768   7.178   8.182   2.685
64977SOL     OW96769  12.704   5.471  11.119
64977SOL    HW196770  12.688   5.562  11.095
64977SOL    HW296771  12.660   5.420  11.050
64978SOL     OW96772   2.195   5.227   9.892
64978SOL    HW196773   2.112   5.195   9.928
64978SOL    HW296774   2.171   5.264   9.807
64979SOL     OW96775   9.659   1.204   5.081
64979SOL    HW196776   9.729   1.146   5.051
64979SOL    HW296777   9.583   1.147   5.090
64980SOL     OW96778   1.048   6.095   6.577
64980SOL    HW196779   1.101   6.158   6.627
64980SOL    HW296780   1.097   6.013   6.583
64981SOL     OW96781  13.774   0.440  12.282
64981SOL    HW196782  13.820   0.359  12.259
64981SOL    HW296783  13.703   0.412  12.340
64982SOL     OW96784  14.672  13.906  11.517
64982SOL    HW196785  14.705  13.870  11.599
64982SOL    HW296786  14.606  13.843  11.488
64983SOL     OW96787  14.654  12.806   2.389
64983SOL    HW196788  14.702  12.888   2.377
64983SOL    HW296789  14.627  12.807   2.481
64984SOL     OW96790  10.263   7.540   0.503
64984SOL    HW196791  10.208   7.498   0.438
64984SOL    HW296792  10.321   7.471   0.535
64985SOL     OW96793   1.938   2.946   3.178
64985SOL    HW196794   1.908   2.992   3.099
64985SOL    HW296795   2.019   2.903   3.150
64986SOL     OW96796   7.956   4.333   4.323
64986SOL    HW196797   7.953   4.428   4.316
64986SOL    HW296798   7.864   4.307   4.333
64987SOL     OW96799   7.326   3.388   5.206
64987SOL    HW196800   7.406   3.337   5.188
64987SOL    HW296801   7.255   3.328   5.184
64988SOL     OW96802   8.735   7.455   0.094
64988SOL    HW196803   8.808   7.509   0.064
64988SOL    HW296804   8.774   7.370   0.114
64989SOL     OW96805  13.671   0.466   8.248
64989SOL    HW196806  13.665   0.376   8.281
64989SOL    HW296807  13.582   0.485   8.216
64990SOL     OW96808  12.631  13.630   5.524
64990SOL    HW196809  12.723  13.637   5.550
64990SOL    HW296810  12.594  13.564   5.584
64991SOL     OW96811  13.954   8.233   3.779
64991SOL    HW196812  13.878   8.176   3.780
64991SOL    HW296813  13.995   8.218   3.693
64992SOL     OW96814  10.045   4.048  12.980
64992SOL    HW196815  10.069   4.139  13.000
64992SOL    HW296816  10.128   4.005  12.963
64993SOL     OW96817  13.828  12.679   1.681
64993SOL    HW196818  13.909  12.728   1.666
64993SOL    HW296819  13.811  12.636   1.597
64994SOL     OW96820   4.421   4.131  10.744
64994SOL    HW196821   4.457   4.047  10.715
64994SOL    HW296822   4.418   4.124  10.839
64995SOL     OW96823   1.701   6.354   1.330
64995SOL    HW196824   1.760   6.426   1.354
64995SOL    HW296825   1.673   6.376   1.241
64996SOL     OW96826   9.463   7.858   3.238
64996SOL    HW196827   9.419   7.940   3.261
64996SOL    HW296828   9.391   7.796   3.225
64997SOL     OW96829  14.231   3.359   4.351
64997SOL    HW196830  14.264   3.346   4.440
64997SOL    HW296831  14.234   3.272   4.312
64998SOL     OW96832   7.362   6.465   6.365
64998SOL    HW196833   7.297   6.441   6.299
64998SOL    HW296834   7.387   6.555   6.344
64999SOL     OW96835  10.812   0.237   7.994
64999SOL    HW196836  10.861   0.264   7.916
64999SOL    HW296837  10.828   0.306   8.058
65000SOL     OW96838   3.610   9.876   8.056
65000SOL    HW196839   3.518   9.865   8.031
65000SOL    HW296840   3.609   9.876   8.151
65001SOL     OW96841   8.021   1.869  11.951
65001SOL    HW196842   8.028   1.960  11.978
65001SOL    HW296843   7.982   1.872  11.864
65002SOL     OW96844  11.461  14.519  14.728
65002SOL    HW196845  11.465  14.533  14.634
65002SOL    HW296846  11.392  14.454  14.741
65003SOL     OW96847  11.556   2.521   9.803
65003SOL    HW196848  11.564   2.584   9.875
65003SOL    HW296849  11.464   2.494   9.805
65004SOL     OW96850  10.181   0.865   9.906
65004SOL    HW196851  10.103   0.833   9.862
65004SOL    HW296852  10.232   0.908   9.837
65005SOL     OW96853  10.935   5.674   8.234
65005SOL    HW196854  10.938   5.712   8.146
65005SOL    HW296855  10.893   5.742   8.288
65006SOL     OW96856  12.966   1.000   5.210
65006SOL    HW196857  13.016   1.068   5.165
65006SOL    HW296858  12.946   1.038   5.296
65007SOL     OW96859  12.412   2.742   0.658
65007SOL    HW196860  12.476   2.790   0.605
65007SOL    HW296861  12.346   2.712   0.595
65008SOL     OW96862   2.654   9.191  11.424
65008SOL    HW196863   2.661   9.239  11.506
65008SOL    HW296864   2.611   9.108  11.448
65009SOL     OW96865   8.149   4.110  13.406
65009SOL    HW196866   8.159   4.017  13.388
65009SOL    HW296867   8.238   4.142  13.417
65010SOL     OW96868  13.092   0.539  12.704
65010SOL    HW196869  13.050   0.473  12.649
65010SOL    HW296870  13.127   0.603  12.641
65011SOL     OW96871   2.715   9.261  11.946
65011SOL    HW196872   2.668   9.335  11.986
65011SOL    HW296873   2.745   9.209  12.021
65012SOL     OW96874   1.510   1.017   5.718
65012SOL    HW196875   1.534   1.007   5.810
65012SOL    HW296876   1.451   0.943   5.701
65013SOL     OW96877   9.183   0.964   9.540
65013SOL    HW196878   9.121   1.025   9.498
65013SOL    HW296879   9.256   0.959   9.479
65014SOL     OW96880   8.045  13.355  11.916
65014SOL    HW196881   8.113  13.289  11.933
65014SOL    HW296882   8.024  13.344  11.824
65015SOL     OW96883  10.453   8.661   0.822
65015SOL    HW196884  10.536   8.643   0.867
65015SOL    HW296885  10.399   8.704   0.887
65016SOL     OW96886   7.043   5.399   9.181
65016SOL    HW196887   7.012   5.463   9.245
65016SOL    HW296888   7.021   5.438   9.096
65017SOL     OW96889  10.392   5.617   7.658
65017SOL    HW196890  10.343   5.693   7.627
65017SOL    HW296891  10.331   5.571   7.716
65018SOL     OW96892   6.283   3.728   0.350
65018SOL    HW196893   6.311   3.707   0.261
65018SOL    HW296894   6.334   3.805   0.374
65019SOL     OW96895  11.507  11.385   1.922
65019SOL    HW196896  11.524  11.352   2.010
65019SOL    HW296897  11.413  11.379   1.911
65020SOL     OW96898  13.955  13.534   2.821
65020SOL    HW196899  13.946  13.519   2.727
65020SOL    HW296900  13.993  13.621   2.828
65021SOL     OW96901  13.604  14.187   1.892
65021SOL    HW196902  13.524  14.135   1.886
65021SOL    HW296903  13.588  14.263   1.835
65022SOL     OW96904  13.674   6.725  12.307
65022SOL    HW196905  13.642   6.649  12.354
65022SOL    HW296906  13.671   6.700  12.214
65023SOL     OW96907   1.114   9.290   4.737
65023SOL    HW196908   1.058   9.331   4.671
65023SOL    HW296909   1.161   9.364   4.777
65024SOL     OW96910   2.961   8.693  14.267
65024SOL    HW196911   2.961   8.681  14.172
65024SOL    HW296912   3.012   8.619  14.300
65025SOL     OW96913   1.221  14.267   7.457
65025SOL    HW196914   1.201  14.355   7.426
65025SOL    HW296915   1.207  14.211   7.380
65026SOL     OW96916   1.268   5.562   0.924
65026SOL    HW196917   1.266   5.629   0.854
65026SOL    HW296918   1.176   5.544   0.942
65027SOL     OW96919   8.373  12.839   5.408
65027SOL    HW196920   8.410  12.777   5.346
65027SOL    HW296921   8.441  12.849   5.475
65028SOL     OW96922   7.904   2.034   9.933
65028SOL    HW196923   7.985   2.050   9.885
65028SOL    HW296924   7.853   1.977   9.876
65029SOL     OW96925   2.207   8.480   2.029
65029SOL    HW196926   2.140   8.429   1.984
65029SOL    HW296927   2.288   8.462   1.980
65030SOL     OW96928   2.534   9.438   2.153
65030SOL    HW196929   2.553   9.404   2.240
65030SOL    HW296930   2.562   9.529   2.156
65031SOL     OW96931   8.086  10.351   0.798
65031SOL    HW196932   8.153  10.410   0.834
65031SOL    HW296933   8.102  10.350   0.704
65032SOL     OW96934   6.430   6.930  12.922
65032SOL    HW196935   6.337   6.910  12.917
65032SOL    HW296936   6.469   6.883  12.848
65033SOL     OW96937  12.872   1.662   1.435
65033SOL    HW196938  12.954   1.616   1.417
65033SOL    HW296939  12.854   1.710   1.354
65034SOL     OW96940   6.717   3.245   0.101
65034SOL    HW196941   6.799   3.251   0.151
65034SOL    HW296942   6.653   3.212   0.165
65035SOL     OW96943   0.579   8.357  11.238
65035SOL    HW196944   0.588   8.361  11.333
65035SOL    HW296945   0.633   8.429  11.206
65036SOL     OW96946  10.012   4.597  12.336
65036SOL    HW196947  10.001   4.506  12.362
65036SOL    HW296948  10.043   4.593  12.246
65037SOL     OW96949   2.971   3.864   6.608
65037SOL    HW196950   3.031   3.834   6.676
65037SOL    HW296951   2.994   3.956   6.595
65038SOL     OW96952   4.182   1.169  13.558
65038SOL    HW196953   4.186   1.075  13.575
65038SOL    HW296954   4.239   1.208  13.623
65039SOL     OW96955  10.322   3.796   5.853
65039SOL    HW196956  10.397   3.854   5.840
65039SOL    HW296957  10.351   3.712   5.818
65040SOL     OW96958   7.241   6.985   9.020
65040SOL    HW196959   7.213   6.896   9.043
65040SOL    HW296960   7.160   7.029   8.994
65041SOL     OW96961   6.915   7.368   4.322
65041SOL    HW196962   6.954   7.391   4.237
65041SOL    HW296963   6.974   7.408   4.386
65042SOL     OW96964   7.464   0.520  12.020
65042SOL    HW196965   7.480   0.583  11.949
65042SOL    HW296966   7.537   0.532  12.080
65043SOL     OW96967   5.400   3.505  14.042
65043SOL    HW196968   5.356   3.590  14.034
65043SOL    HW296969   5.447   3.495  13.960
65044SOL     OW96970   4.703   9.758   2.674
65044SOL    HW196971   4.692   9.718   2.761
65044SOL    HW296972   4.650   9.704   2.616
65045SOL     OW96973  14.238   2.917  12.955
65045SOL    HW196974  14.292   2.989  12.923
65045SOL    HW296975  14.148   2.946  12.937
65046SOL     OW96976   6.427   8.905   5.795
65046SOL    HW196977   6.374   8.829   5.772
65046SOL    HW296978   6.481   8.921   5.717
65047SOL     OW96979   6.031  13.657   2.848
65047SOL    HW196980   6.124  13.677   2.857
65047SOL    HW296981   5.991  13.690   2.928
65048SOL     OW96982   3.695  10.258  13.917
65048SOL    HW196983   3.644  10.177  13.919
65048SOL    HW296984   3.744  10.254  13.835
65049SOL     OW96985   8.423  11.013  10.622
65049SOL    HW196986   8.500  10.961  10.646
65049SOL    HW296987   8.350  10.968  10.664
65050SOL     OW96988  13.577   0.980  10.584
65050SOL    HW196989  13.508   0.916  10.604
65050SOL    HW296990  13.641   0.932  10.532
65051SOL     OW96991   9.238   3.655   3.461
65051SOL    HW196992   9.326   3.660   3.423
65051SOL    HW296993   9.239   3.719   3.532
65052SOL     OW96994   9.791  11.294   5.009
65052SOL    HW196995   9.798  11.327   5.099
65052SOL    HW296996   9.711  11.241   5.009
65053SOL     OW96997   7.478   6.703   8.128
65053SOL    HW196998   7.564   6.744   8.138
65053SOL    HW296999   7.416   6.767   8.164
65054SOL     OW97000   1.948   1.890   2.550
65054SOL    HW197001   2.031   1.869   2.509
65054SOL    HW297002   1.972   1.939   2.629
65055SOL     OW97003   8.453   0.647  13.496
65055SOL    HW197004   8.415   0.665  13.582
65055SOL    HW297005   8.385   0.673  13.434
65056SOL     OW97006   4.037  12.450   5.333
65056SOL    HW197007   4.054  12.361   5.303
65056SOL    HW297008   3.997  12.493   5.257
65057SOL     OW97009   8.164  11.533   9.257
65057SOL    HW197010   8.258  11.529   9.277
65057SOL    HW297011   8.161  11.549   9.163
65058SOL     OW97012  14.447  10.063   2.717
65058SOL    HW197013  14.402  10.144   2.742
65058SOL    HW297014  14.443  10.008   2.796
65059SOL     OW97015   9.447   4.090  10.429
65059SOL    HW197016   9.487   4.071  10.344
65059SOL    HW297017   9.370   4.143  10.408
65060SOL     OW97018   0.869   3.068   8.543
65060SOL    HW197019   0.840   3.158   8.530
65060SOL    HW297020   0.834   3.044   8.629
65061SOL     OW97021   2.671  11.151   0.050
65061SOL    HW197022   2.725  11.134  14.846
65061SOL    HW297023   2.602  11.209   0.019
65062SOL     OW97024   3.140   2.784   3.696
65062SOL    HW197025   3.085   2.814   3.769
65062SOL    HW297026   3.099   2.822   3.618
65063SOL     OW97027   2.379   3.210   7.254
65063SOL    HW197028   2.333   3.181   7.333
65063SOL    HW297029   2.464   3.240   7.286
65064SOL     OW97030  12.358  12.681   0.266
65064SOL    HW197031  12.367  12.585   0.270
65064SOL    HW297032  12.388  12.704   0.178
65065SOL     OW97033  14.691  10.076   2.613
65065SOL    HW197034  14.738  10.034   2.686
65065SOL    HW297035  14.599  10.064   2.635
65066SOL     OW97036   7.505   4.346   1.271
65066SOL    HW197037   7.549   4.428   1.293
65066SOL    HW297038   7.425   4.374   1.225
65067SOL     OW97039   2.004  10.295   1.079
65067SOL    HW197040   2.073  10.291   1.014
65067SOL    HW297041   1.925  10.269   1.032
65068SOL     OW97042   9.832   6.707  10.015
65068SOL    HW197043   9.868   6.663  10.091
65068SOL    HW297044   9.908   6.726   9.959
65069SOL     OW97045   5.131   5.406   5.143
65069SOL    HW197046   5.136   5.488   5.193
65069SOL    HW297047   5.073   5.350   5.194
65070SOL     OW97048   6.046   9.274  11.019
65070SOL    HW197049   6.084   9.304  11.102
65070SOL    HW297050   6.022   9.182  11.036
65071SOL     OW97051   2.744   7.661   9.668
65071SOL    HW197052   2.788   7.636   9.749
65071SOL    HW297053   2.707   7.578   9.635
65072SOL     OW97054   1.840   7.374   7.717
65072SOL    HW197055   1.908   7.443   7.719
65072SOL    HW297056   1.867   7.316   7.646
65073SOL     OW97057   5.155  11.919  11.707
65073SOL    HW197058   5.168  11.839  11.759
65073SOL    HW297059   5.090  11.894  11.641
65074SOL     OW97060   0.169   2.677   6.707
65074SOL    HW197061   0.218   2.749   6.669
65074SOL    HW297062   0.182   2.604   6.646
65075SOL     OW97063   4.325   0.182  14.277
65075SOL    HW197064   4.308   0.263  14.326
65075SOL    HW297065   4.240   0.159  14.239
65076SOL     OW97066  14.819   1.191  14.336
65076SOL    HW197067  14.795   1.254  14.403
65076SOL    HW297068  14.798   1.106  14.374
65077SOL     OW97069   2.295   8.032  13.951
65077SOL    HW197070   2.360   8.049  13.883
65077SOL    HW297071   2.218   8.001  13.902
65078SOL     OW97072   4.967  11.259   5.778
65078SOL    HW197073   4.959  11.270   5.683
65078SOL    HW297074   5.034  11.191   5.788
65079SOL     OW97075   0.826   5.097   3.242
65079SOL    HW197076   0.887   5.148   3.188
65079SOL    HW297077   0.882   5.047   3.301
65080SOL     OW97078   8.762  10.744   2.029
65080SOL    HW197079   8.775  10.828   2.073
65080SOL    HW297080   8.782  10.762   1.937
65081SOL     OW97081   9.924   8.799   1.328
65081SOL    HW197082   9.865   8.725   1.317
65081SOL    HW297083   9.896   8.862   1.261
65082SOL     OW97084  13.997   0.736  13.481
65082SOL    HW197085  13.969   0.650  13.450
65082SOL    HW297086  14.036   0.777  13.404
65083SOL     OW97087  11.644  14.012   0.558
65083SOL    HW197088  11.657  13.919   0.575
65083SOL    HW297089  11.724  14.040   0.515
65084SOL     OW97090   6.283  13.175   2.721
65084SOL    HW197091   6.235  13.112   2.668
65084SOL    HW297092   6.234  13.257   2.711
65085SOL     OW97093   0.446  13.552   1.892
65085SOL    HW197094   0.427  13.640   1.924
65085SOL    HW297095   0.519  13.522   1.946
65086SOL     OW97096   4.154  13.412  10.033
65086SOL    HW197097   4.174  13.406   9.940
65086SOL    HW297098   4.223  13.468  10.069
65087SOL     OW97099   3.646   3.841  13.680
65087SOL    HW197100   3.608   3.901  13.744
65087SOL    HW297101   3.730   3.815  13.718
65088SOL     OW97102   1.048   1.631   7.150
65088SOL    HW197103   1.026   1.595   7.064
65088SOL    HW297104   1.142   1.612   7.160
65089SOL     OW97105   5.338  14.664   1.769
65089SOL    HW197106   5.287  14.693   1.693
65089SOL    HW297107   5.419  14.630   1.731
65090SOL     OW97108   6.152   3.988   8.289
65090SOL    HW197109   6.188   4.076   8.274
65090SOL    HW297110   6.164   3.943   8.205
65091SOL     OW97111   7.818  13.984  11.452
65091SOL    HW197112   7.836  14.055  11.514
65091SOL    HW297113   7.902  13.942  11.437
65092SOL     OW97114   8.602  12.108  12.724
65092SOL    HW197115   8.511  12.117  12.750
65092SOL    HW297116   8.643  12.190  12.754
65093SOL     OW97117   8.076  14.718   2.253
65093SOL    HW197118   8.079  14.640   2.197
65093SOL    HW297119   8.167  14.738   2.272
65094SOL     OW97120   5.811   0.724   5.511
65094SOL    HW197121   5.877   0.681   5.456
65094SOL    HW297122   5.735   0.666   5.507
65095SOL     OW97123  12.097   4.598   9.924
65095SOL    HW197124  12.029   4.554   9.974
65095SOL    HW297125  12.059   4.612   9.837
65096SOL     OW97126  11.444   7.089  14.256
65096SOL    HW197127  11.375   7.022  14.258
65096SOL    HW297128  11.519   7.047  14.297
65097SOL     OW97129  11.980   6.154   3.934
65097SOL    HW197130  12.038   6.135   4.007
65097SOL    HW297131  12.038   6.187   3.865
65098SOL     OW97132   8.360   2.195  13.075
65098SOL    HW197133   8.266   2.182  13.070
65098SOL    HW297134   8.382   2.241  12.994
65099SOL     OW97135   2.834   4.463   6.768
65099SOL    HW197136   2.834   4.370   6.745
65099SOL    HW297137   2.853   4.464   6.862
65100SOL     OW97138   8.350  10.438  11.064
65100SOL    HW197139   8.293  10.492  11.009
65100SOL    HW297140   8.350  10.482  11.149
65101SOL     OW97141   3.890  14.109   1.327
65101SOL    HW197142   3.959  14.047   1.352
65101SOL    HW297143   3.868  14.086   1.237
65102SOL     OW97144   2.770  11.522  10.231
65102SOL    HW197145   2.677  11.505  10.216
65102SOL    HW297146   2.785  11.609  10.195
65103SOL     OW97147  11.412   5.852   9.327
65103SOL    HW197148  11.391   5.941   9.356
65103SOL    HW297149  11.410   5.800   9.408
65104SOL     OW97150  11.154   9.628   1.061
65104SOL    HW197151  11.059   9.638   1.060
65104SOL    HW297152  11.168   9.533   1.060
65105SOL     OW97153   5.975   9.176  13.950
65105SOL    HW197154   5.887   9.155  13.920
65105SOL    HW297155   6.032   9.144  13.880
65106SOL     OW97156   8.245   3.032   9.634
65106SOL    HW197157   8.229   2.978   9.711
65106SOL    HW297158   8.166   3.085   9.626
65107SOL     OW97159  14.813  12.088  13.753
65107SOL    HW197160  14.859  12.005  13.739
65107SOL    HW297161  14.744  12.089  13.685
65108SOL     OW97162   3.845   0.466  13.557
65108SOL    HW197163   3.884   0.494  13.639
65108SOL    HW297164   3.820   0.547  13.513
65109SOL     OW97165  14.094   6.373   4.320
65109SOL    HW197166  14.116   6.459   4.284
65109SOL    HW297167  14.104   6.384   4.415
65110SOL     OW97168   4.888   9.168  12.196
65110SOL    HW197169   4.975   9.159  12.156
65110SOL    HW297170   4.901   9.141  12.287
65111SOL     OW97171   3.497  13.001   4.013
65111SOL    HW197172   3.568  13.059   3.986
65111SOL    HW297173   3.502  12.928   3.952
65112SOL     OW97174   7.807   2.296   0.545
65112SOL    HW197175   7.727   2.312   0.495
65112SOL    HW297176   7.813   2.201   0.549
65113SOL     OW97177   7.381   2.385   6.138
65113SOL    HW197178   7.350   2.453   6.198
65113SOL    HW297179   7.456   2.424   6.093
65114SOL     OW97180   7.578  10.759   0.689
65114SOL    HW197181   7.543  10.829   0.744
65114SOL    HW297182   7.594  10.686   0.749
65115SOL     OW97183  12.565   8.589   7.872
65115SOL    HW197184  12.555   8.670   7.922
65115SOL    HW297185  12.629   8.610   7.804
65116SOL     OW97186   7.873  13.355   2.600
65116SOL    HW197187   7.935  13.293   2.640
65116SOL    HW297188   7.830  13.305   2.531
65117SOL     OW97189   8.824  13.295   9.992
65117SOL    HW197190   8.874  13.213   9.999
65117SOL    HW297191   8.755  13.285  10.057
65118SOL     OW97192   5.374   5.134   9.426
65118SOL    HW197193   5.380   5.122   9.331
65118SOL    HW297194   5.280   5.132   9.444
65119SOL     OW97195  13.560  10.539   9.066
65119SOL    HW197196  13.583  10.560   8.975
65119SOL    HW297197  13.489  10.476   9.058
65120SOL     OW97198   8.808   8.963   9.569
65120SOL    HW197199   8.783   8.935   9.657
65120SOL    HW297200   8.844   9.051   9.582
65121SOL     OW97201  11.605   5.393   8.456
65121SOL    HW197202  11.699   5.406   8.471
65121SOL    HW297203  11.562   5.455   8.515
65122SOL     OW97204   8.820  11.785   5.265
65122SOL    HW197205   8.915  11.775   5.262
65122SOL    HW297206   8.806  11.879   5.274
65123SOL     OW97207   9.862   5.242   5.158
65123SOL    HW197208   9.822   5.220   5.074
65123SOL    HW297209   9.827   5.177   5.219
65124SOL     OW97210   5.906   9.246   0.460
65124SOL    HW197211   5.898   9.342   0.457
65124SOL    HW297212   6.000   9.230   0.463
65125SOL     OW97213  11.693   3.343   5.657
65125SOL    HW197214  11.748   3.329   5.734
65125SOL    HW297215  11.754   3.369   5.588
65126SOL     OW97216  11.285   5.718   4.880
65126SOL    HW197217  11.215   5.726   4.814
65126SOL    HW297218  11.290   5.806   4.918
65127SOL     OW97219  13.729   5.163   9.210
65127SOL    HW197220  13.697   5.197   9.293
65127SOL    HW297221  13.825   5.161   9.220
65128SOL     OW97222   0.196  14.075   1.749
65128SOL    HW197223   0.234  14.097   1.834
65128SOL    HW297224   0.217  14.150   1.693
65129SOL     OW97225   6.264   2.921   9.418
65129SOL    HW197226   6.253   2.857   9.348
65129SOL    HW297227   6.189   2.980   9.408
65130SOL     OW97228  13.286  13.828  13.894
65130SOL    HW197229  13.349  13.858  13.829
65130SOL    HW297230  13.267  13.738  13.870
65131SOL     OW97231  12.161   1.892   2.418
65131SOL    HW197232  12.153   1.800   2.393
65131SOL    HW297233  12.118   1.940   2.348
65132SOL     OW97234  13.912   5.058  14.458
65132SOL    HW197235  13.849   5.072  14.528
65132SOL    HW297236  13.887   4.973  14.421
65133SOL     OW97237   4.730   4.188  14.053
65133SOL    HW197238   4.821   4.187  14.022
65133SOL    HW297239   4.731   4.250  14.127
65134SOL     OW97240  14.109  13.039  12.879
65134SOL    HW197241  14.049  12.984  12.830
65134SOL    HW297242  14.069  13.126  12.877
65135SOL     OW97243   6.204   2.174   3.529
65135SOL    HW197244   6.264   2.197   3.599
65135SOL    HW297245   6.150   2.104   3.565
65136SOL     OW97246   3.160  12.225  11.378
65136SOL    HW197247   3.109  12.215  11.458
65136SOL    HW297248   3.163  12.137  11.341
65137SOL     OW97249   8.603  13.842  12.512
65137SOL    HW197250   8.628  13.750  12.516
65137SOL    HW297251   8.656  13.879  12.442
65138SOL     OW97252   7.807   5.960   2.948
65138SOL    HW197253   7.838   5.940   3.036
65138SOL    HW297254   7.800   6.055   2.945
65139SOL     OW97255   4.232   9.728   2.581
65139SOL    HW197256   4.322   9.700   2.566
65139SOL    HW297257   4.225   9.734   2.677
65140SOL     OW97258   7.242  10.129   3.870
65140SOL    HW197259   7.293  10.152   3.792
65140SOL    HW297260   7.226  10.035   3.860
65141SOL     OW97261   2.553   4.174   3.500
65141SOL    HW197262   2.494   4.229   3.552
65141SOL    HW297263   2.495   4.109   3.460
65142SOL     OW97264  13.652  10.668   0.289
65142SOL    HW197265  13.632  10.761   0.279
65142SOL    HW297266  13.585  10.635   0.349
65143SOL     OW97267  14.226  12.012  12.261
65143SOL    HW197268  14.266  11.930  12.232
65143SOL    HW297269  14.174  11.987  12.338
65144SOL     OW97270   5.955   5.680  14.447
65144SOL    HW197271   5.953   5.728  14.364
65144SOL    HW297272   6.047   5.662  14.463
65145SOL     OW97273   2.437   7.616   5.967
65145SOL    HW197274   2.361   7.666   5.994
65145SOL    HW297275   2.416   7.587   5.878
65146SOL     OW97276   8.943   0.288   4.355
65146SOL    HW197277   8.854   0.321   4.371
65146SOL    HW297278   8.975   0.340   4.281
65147SOL     OW97279  10.874   1.562   6.048
65147SOL    HW197280  10.858   1.603   5.963
65147SOL    HW297281  10.946   1.613   6.085
65148SOL     OW97282  10.829  12.427  12.209
65148SOL    HW197283  10.779  12.365  12.262
65148SOL    HW297284  10.782  12.431  12.126
65149SOL     OW97285   4.697   2.051   4.270
65149SOL    HW197286   4.691   2.134   4.222
65149SOL    HW297287   4.729   2.076   4.357
65150SOL     OW97288   7.860   4.342   6.026
65150SOL    HW197289   7.888   4.407   6.090
65150SOL    HW297290   7.820   4.272   6.077
65151SOL     OW97291  13.760   9.720  12.747
65151SOL    HW197292  13.741   9.662  12.820
65151SOL    HW297293  13.674   9.754  12.721
65152SOL     OW97294   6.600   3.810   8.577
65152SOL    HW197295   6.671   3.771   8.627
65152SOL    HW297296   6.522   3.794   8.629
65153SOL     OW97297   6.910   9.583  10.016
65153SOL    HW197298   6.911   9.527  10.094
65153SOL    HW297299   6.817   9.592   9.994
65154SOL     OW97300   7.986  10.600   2.819
65154SOL    HW197301   7.930  10.535   2.775
65154SOL    HW297302   8.074  10.582   2.786
65155SOL     OW97303   9.800  12.807   9.874
65155SOL    HW197304   9.807  12.799   9.778
65155SOL    HW297305   9.833  12.894   9.893
65156SOL     OW97306   3.606   4.556   3.200
65156SOL    HW197307   3.539   4.555   3.131
65156SOL    HW297308   3.611   4.466   3.230
65157SOL     OW97309   0.784   3.106  10.659
65157SOL    HW197310   0.765   3.013  10.670
65157SOL    HW297311   0.845   3.127  10.729
65158SOL     OW97312  12.596   3.790  12.672
65158SOL    HW197313  12.616   3.839  12.593
65158SOL    HW297314  12.667   3.811  12.732
65159SOL     OW97315   2.838   5.266  14.726
65159SOL    HW197316   2.775   5.314  14.780
65159SOL    HW297317   2.837   5.177  14.762
65160SOL     OW97318   2.636   5.940  12.210
65160SOL    HW197319   2.710   5.998  12.224
65160SOL    HW297320   2.671   5.868  12.157
65161SOL     OW97321  11.133  10.509   9.186
65161SOL    HW197322  11.223  10.537   9.174
65161SOL    HW297323  11.081  10.587   9.168
65162SOL     OW97324   6.971   8.331   4.975
65162SOL    HW197325   6.909   8.273   4.931
65162SOL    HW297326   6.951   8.321   5.068
65163SOL     OW97327  12.608   0.257  13.934
65163SOL    HW197328  12.548   0.258  13.859
65163SOL    HW297329  12.556   0.221  14.006
65164SOL     OW97330   7.741   0.914   1.454
65164SOL    HW197331   7.667   0.941   1.400
65164SOL    HW297332   7.703   0.900   1.541
65165SOL     OW97333   2.320   0.314   0.178
65165SOL    HW197334   2.295   0.222   0.186
65165SOL    HW297335   2.243   0.363   0.207
65166SOL     OW97336   1.620   3.810   6.507
65166SOL    HW197337   1.684   3.769   6.448
65166SOL    HW297338   1.565   3.863   6.449
65167SOL     OW97339   3.693   1.016   9.961
65167SOL    HW197340   3.629   0.950   9.987
65167SOL    HW297341   3.668   1.094  10.011
65168SOL     OW97342   3.805   1.241   7.766
65168SOL    HW197343   3.755   1.211   7.842
65168SOL    HW297344   3.776   1.330   7.751
65169SOL     OW97345   6.951   2.249  14.680
65169SOL    HW197346   7.000   2.291  14.751
65169SOL    HW297347   6.994   2.164  14.668
65170SOL     OW97348   9.831  10.582  12.622
65170SOL    HW197349   9.866  10.580  12.533
65170SOL    HW297350   9.827  10.675  12.644
65171SOL     OW97351  12.401  12.684  11.911
65171SOL    HW197352  12.397  12.633  11.830
65171SOL    HW297353  12.330  12.649  11.965
65172SOL     OW97354  10.002   2.033  14.165
65172SOL    HW197355   9.999   1.940  14.145
65172SOL    HW297356  10.081   2.043  14.219
65173SOL     OW97357  11.790   3.822   6.251
65173SOL    HW197358  11.798   3.801   6.344
65173SOL    HW297359  11.871   3.868   6.229
65174SOL     OW97360   7.319  14.590   6.861
65174SOL    HW197361   7.334  14.566   6.953
65174SOL    HW297362   7.330  14.508   6.812
65175SOL     OW97363   6.970  11.968  14.744
65175SOL    HW197364   7.030  11.988  14.672
65175SOL    HW297365   7.000  12.022  14.816
65176SOL     OW97366   0.894   8.567   3.123
65176SOL    HW197367   0.925   8.656   3.108
65176SOL    HW297368   0.964   8.525   3.173
65177SOL     OW97369   6.395   4.726   3.054
65177SOL    HW197370   6.449   4.800   3.025
65177SOL    HW297371   6.328   4.766   3.110
65178SOL     OW97372   2.261   7.186  12.905
65178SOL    HW197373   2.207   7.251  12.859
65178SOL    HW297374   2.277   7.226  12.991
65179SOL     OW97375   8.741   1.079   2.527
65179SOL    HW197376   8.823   1.031   2.515
65179SOL    HW297377   8.729   1.125   2.445
65180SOL     OW97378   3.474   7.731   2.393
65180SOL    HW197379   3.389   7.726   2.350
65180SOL    HW297380   3.456   7.708   2.484
65181SOL     OW97381   2.621  11.149   1.989
65181SOL    HW197382   2.671  11.081   2.036
65181SOL    HW297383   2.575  11.101   1.920
65182SOL     OW97384  10.955  13.128   6.387
65182SOL    HW197385  11.005  13.205   6.415
65182SOL    HW297386  11.014  13.084   6.325
65183SOL     OW97387   0.941   1.667   8.095
65183SOL    HW197388   0.853   1.692   8.123
65183SOL    HW297389   0.959   1.723   8.020
65184SOL     OW97390  14.714   4.431   9.633
65184SOL    HW197391  14.626   4.454   9.665
65184SOL    HW297392  14.762   4.408   9.713
65185SOL     OW97393  14.330  10.233   6.004
65185SOL    HW197394  14.319  10.307   6.063
65185SOL    HW297395  14.424  10.212   6.008
65186SOL     OW97396  12.275   2.142  14.017
65186SOL    HW197397  12.278   2.053  13.982
65186SOL    HW297398  12.194   2.145  14.067
65187SOL     OW97399  11.698   9.299   5.493
65187SOL    HW197400  11.612   9.337   5.510
65187SOL    HW297401  11.712   9.239   5.566
65188SOL     OW97402  14.441   6.015   9.939
65188SOL    HW197403  14.444   6.068  10.018
65188SOL    HW297404  14.424   6.078   9.869
65189SOL     OW97405   2.545   2.770   1.414
65189SOL    HW197406   2.515   2.716   1.487
65189SOL    HW297407   2.468   2.818   1.386
65190SOL     OW97408   4.766  14.041  11.456
65190SOL    HW197409   4.795  14.078  11.539
65190SOL    HW297410   4.670  14.039  11.463
65191SOL     OW97411   1.436  12.116   8.086
65191SOL    HW197412   1.508  12.068   8.045
65191SOL    HW297413   1.360  12.099   8.030
65192SOL     OW97414   5.090   5.293   5.634
65192SOL    HW197415   5.127   5.352   5.700
65192SOL    HW297416   4.995   5.307   5.639
65193SOL     OW97417   5.659   4.711  13.050
65193SOL    HW197418   5.702   4.748  12.973
65193SOL    HW297419   5.571   4.688  13.021
65194SOL     OW97420   0.670   5.424   5.934
65194SOL    HW197421   0.708   5.509   5.913
65194SOL    HW297422   0.634   5.435   6.022
65195SOL     OW97423   1.350   7.103  10.425
65195SOL    HW197424   1.319   7.028  10.476
65195SOL    HW297425   1.318   7.087  10.336
65196SOL     OW97426   5.590  14.020   6.568
65196SOL    HW197427   5.537  14.046   6.643
65196SOL    HW297428   5.527  14.000   6.499
65197SOL     OW97429  10.905   0.411   8.198
65197SOL    HW197430  10.934   0.488   8.149
65197SOL    HW297431  10.963   0.408   8.274
65198SOL     OW97432  12.062  14.790   3.332
65198SOL    HW197433  12.112  14.757   3.406
65198SOL    HW297434  12.084   0.010   3.327
65199SOL     OW97435   9.406   7.311  12.395
65199SOL    HW197436   9.425   7.310  12.489
65199SOL    HW297437   9.471   7.253  12.356
65200SOL     OW97438  10.792   7.608  14.432
65200SOL    HW197439  10.856   7.570  14.493
65200SOL    HW297440  10.768   7.535  14.374
65201SOL     OW97441   0.929  12.005   1.171
65201SOL    HW197442   0.962  11.915   1.161
65201SOL    HW297443   1.007  12.058   1.185
65202SOL     OW97444   6.468   2.753   4.549
65202SOL    HW197445   6.440   2.836   4.510
65202SOL    HW297446   6.424   2.686   4.497
65203SOL     OW97447   8.575   9.692   5.121
65203SOL    HW197448   8.567   9.603   5.154
65203SOL    HW297449   8.501   9.738   5.160
65204SOL     OW97450   5.730   0.332  13.783
65204SOL    HW197451   5.806   0.375  13.822
65204SOL    HW297452   5.655   0.365  13.832
65205SOL     OW97453   5.404   4.356  13.286
65205SOL    HW197454   5.426   4.280  13.341
65205SOL    HW297455   5.332   4.326  13.231
65206SOL     OW97456  11.007   6.651  11.854
65206SOL    HW197457  10.987   6.676  11.764
65206SOL    HW297458  11.059   6.724  11.888
65207SOL     OW97459   2.230   0.266   6.382
65207SOL    HW197460   2.211   0.336   6.320
65207SOL    HW297461   2.158   0.204   6.371
65208SOL     OW97462   8.851   9.554   5.359
65208SOL    HW197463   8.881   9.645   5.359
65208SOL    HW297464   8.756   9.560   5.367
65209SOL     OW97465   8.431   6.086   5.093
65209SOL    HW197466   8.349   6.078   5.044
65209SOL    HW297467   8.410   6.145   5.166
65210SOL     OW97468  10.430  10.175  10.773
65210SOL    HW197469  10.518  10.181  10.737
65210SOL    HW297470  10.431  10.094  10.825
65211SOL     OW97471   7.369   0.993  10.903
65211SOL    HW197472   7.358   1.063  10.967
65211SOL    HW297473   7.431   0.932  10.944
65212SOL     OW97474   6.284  11.332   5.578
65212SOL    HW197475   6.274  11.237   5.574
65212SOL    HW297476   6.199  11.367   5.551
65213SOL     OW97477  14.562  11.416   4.148
65213SOL    HW197478  14.506  11.465   4.208
65213SOL    HW297479  14.643  11.403   4.197
65214SOL     OW97480   8.171   0.172   7.185
65214SOL    HW197481   8.183   0.228   7.261
65214SOL    HW297482   8.093   0.121   7.205
65215SOL     OW97483  12.759  11.619   5.548
65215SOL    HW197484  12.784  11.552   5.612
65215SOL    HW297485  12.817  11.693   5.566
65216SOL     OW97486   5.657   2.787  11.000
65216SOL    HW197487   5.737   2.819  10.957
65216SOL    HW297488   5.600   2.863  11.006
65217SOL     OW97489   5.263  14.455   3.972
65217SOL    HW197490   5.246  14.431   4.063
65217SOL    HW297491   5.265  14.372   3.925
65218SOL     OW97492   4.581   1.849   0.229
65218SOL    HW197493   4.597   1.922   0.288
65218SOL    HW297494   4.535   1.784   0.282
65219SOL     OW97495  14.596   8.335  12.206
65219SOL    HW197496  14.690   8.328  12.224
65219SOL    HW297497  14.573   8.250  12.167
65220SOL     OW97498  11.101  11.831  12.411
65220SOL    HW197499  11.105  11.910  12.465
65220SOL    HW297500  11.009  11.806  12.412
65221SOL     OW97501   0.674  10.943   8.700
65221SOL    HW197502   0.711  10.873   8.646
65221SOL    HW297503   0.750  10.984   8.741
65222SOL     OW97504   0.301   9.895   4.000
65222SOL    HW197505   0.349   9.936   4.071
65222SOL    HW297506   0.232   9.957   3.978
65223SOL     OW97507   1.283  12.661  11.324
65223SOL    HW197508   1.193  12.636  11.345
65223SOL    HW297509   1.280  12.756  11.316
65224SOL     OW97510   6.515   4.514   4.441
65224SOL    HW197511   6.455   4.441   4.426
65224SOL    HW297512   6.510   4.530   4.536
65225SOL     OW97513  11.394  12.464   1.517
65225SOL    HW197514  11.346  12.421   1.589
65225SOL    HW297515  11.329  12.519   1.474
65226SOL     OW97516   0.376  14.598   9.595
65226SOL    HW197517   0.441  14.669   9.593
65226SOL    HW297518   0.428  14.518   9.589
65227SOL     OW97519   6.032   2.433   0.063
65227SOL    HW197520   5.941   2.411   0.047
65227SOL    HW297521   6.072   2.436  14.849
65228SOL     OW97522   7.161   5.922   9.726
65228SOL    HW197523   7.066   5.920   9.736
65228SOL    HW297524   7.195   5.923   9.815
65229SOL     OW97525  10.060   5.269   0.219
65229SOL    HW197526   9.985   5.307   0.172
65229SOL    HW297527  10.021   5.208   0.281
65230SOL     OW97528  11.479  10.808  13.261
65230SOL    HW197529  11.428  10.842  13.188
65230SOL    HW297530  11.567  10.844  13.248
65231SOL     OW97531  12.224  12.176   0.851
65231SOL    HW197532  12.286  12.104   0.844
65231SOL    HW297533  12.254  12.227   0.926
65232SOL     OW97534  13.941  14.530   1.960
65232SOL    HW197535  13.997  14.480   1.900
65232SOL    HW297536  13.885  14.464   2.001
65233SOL     OW97537   1.477  13.105  14.788
65233SOL    HW197538   1.406  13.041  14.792
65233SOL    HW297539   1.477  13.135  14.697
65234SOL     OW97540  14.236  10.154   1.874
65234SOL    HW197541  14.304  10.219   1.891
65234SOL    HW297542  14.168  10.202   1.826
65235SOL     OW97543  13.635   9.022   2.153
65235SOL    HW197544  13.584   8.952   2.115
65235SOL    HW297545  13.650   9.083   2.081
65236SOL     OW97546  14.239   2.237   5.084
65236SOL    HW197547  14.143   2.237   5.087
65236SOL    HW297548  14.262   2.155   5.042
65237SOL     OW97549   1.089  10.200   6.477
65237SOL    HW197550   1.003  10.159   6.488
65237SOL    HW297551   1.075  10.266   6.409
65238SOL     OW97552  12.888   3.504   5.194
65238SOL    HW197553  12.941   3.577   5.227
65238SOL    HW297554  12.912   3.430   5.250
65239SOL     OW97555   9.354   0.658   4.106
65239SOL    HW197556   9.275   0.676   4.055
65239SOL    HW297557   9.329   0.679   4.196
65240SOL     OW97558  12.889   5.844   3.588
65240SOL    HW197559  12.818   5.781   3.584
65240SOL    HW297560  12.884   5.881   3.677
65241SOL     OW97561   5.163   3.802   8.550
65241SOL    HW197562   5.185   3.743   8.622
65241SOL    HW297563   5.246   3.845   8.528
65242SOL     OW97564   9.492   9.887   8.693
65242SOL    HW197565   9.494   9.843   8.608
65242SOL    HW297566   9.530   9.974   8.676
65243SOL     OW97567   8.336   0.732   9.713
65243SOL    HW197568   8.412   0.674   9.714
65243SOL    HW297569   8.313   0.741   9.621
65244SOL     OW97570   0.036  11.509   0.249
65244SOL    HW197571   0.061  11.472   0.333
65244SOL    HW297572  14.835  11.566   0.268
65245SOL     OW97573  10.415   9.886   6.822
65245SOL    HW197574  10.336   9.880   6.768
65245SOL    HW297575  10.432   9.796   6.850
65246SOL     OW97576   5.888   1.330  11.797
65246SOL    HW197577   5.817   1.336  11.860
65246SOL    HW297578   5.863   1.258  11.740
65247SOL     OW97579   1.764   1.719   0.761
65247SOL    HW197580   1.832   1.728   0.695
65247SOL    HW297581   1.723   1.635   0.743
65248SOL     OW97582   1.661   2.849   8.673
65248SOL    HW197583   1.745   2.869   8.714
65248SOL    HW297584   1.649   2.917   8.607
65249SOL     OW97585   6.507   1.997  13.100
65249SOL    HW197586   6.469   1.911  13.087
65249SOL    HW297587   6.494   2.043  13.017
65250SOL     OW97588   4.960   0.758   0.911
65250SOL    HW197589   5.001   0.672   0.917
65250SOL    HW297590   4.953   0.787   1.002
65251SOL     OW97591  11.493  14.753   2.673
65251SOL    HW197592  11.450  14.709   2.600
65251SOL    HW297593  11.514  14.840   2.639
65252SOL     OW97594  14.426   8.530   5.401
65252SOL    HW197595  14.518   8.542   5.379
65252SOL    HW297596  14.398   8.615   5.434
65253SOL     OW97597   8.953   9.700   7.657
65253SOL    HW197598   9.007   9.757   7.603
65253SOL    HW297599   8.894   9.760   7.703
65254SOL     OW97600  14.331   4.211   1.343
65254SOL    HW197601  14.291   4.291   1.308
65254SOL    HW297602  14.278   4.140   1.307
65255SOL     OW97603   4.500   8.033   0.421
65255SOL    HW197604   4.574   8.039   0.360
65255SOL    HW297605   4.497   8.119   0.463
65256SOL     OW97606   2.096  10.668   9.390
65256SOL    HW197607   2.133  10.628   9.311
65256SOL    HW297608   2.145  10.749   9.401
65257SOL     OW97609   5.819  11.593   0.268
65257SOL    HW197610   5.777  11.513   0.237
65257SOL    HW297611   5.773  11.664   0.222
65258SOL     OW97612  12.164   1.898   0.461
65258SOL    HW197613  12.154   1.913   0.367
65258SOL    HW297614  12.105   1.962   0.501
65259SOL     OW97615  12.998   2.072   5.315
65259SOL    HW197616  12.951   2.015   5.254
65259SOL    HW297617  13.091   2.058   5.295
65260SOL     OW97618   5.213   9.412  13.160
65260SOL    HW197619   5.121   9.419  13.186
65260SOL    HW297620   5.231   9.495  13.116
65261SOL     OW97621  10.409   9.169   5.877
65261SOL    HW197622  10.487   9.205   5.919
65261SOL    HW297623  10.339   9.179   5.942
65262SOL     OW97624  12.402  14.739   2.502
65262SOL    HW197625  12.343  14.791   2.556
65262SOL    HW297626  12.390  14.649   2.532
65263SOL     OW97627   0.867   2.866   9.080
65263SOL    HW197628   0.946   2.837   9.126
65263SOL    HW297629   0.894   2.946   9.034
65264SOL     OW97630  13.200   8.466   4.051
65264SOL    HW197631  13.200   8.395   3.987
65264SOL    HW297632  13.235   8.541   4.004
65265SOL     OW97633  10.051   8.031  14.490
65265SOL    HW197634  10.055   8.095  14.419
65265SOL    HW297635   9.966   7.988  14.479
65266SOL     OW97636   3.703   7.849   0.167
65266SOL    HW197637   3.784   7.818   0.207
65266SOL    HW297638   3.724   7.936   0.134
65267SOL     OW97639  14.757  10.958   1.326
65267SOL    HW197640  14.814  10.884   1.345
65267SOL    HW297641  14.817  11.027   1.297
65268SOL     OW97642   9.487  13.940  14.411
65268SOL    HW197643   9.557  13.992  14.374
65268SOL    HW297644   9.429  14.003  14.453
65269SOL     OW97645   8.329   0.538   7.141
65269SOL    HW197646   8.332   0.599   7.214
65269SOL    HW297647   8.378   0.461   7.172
65270SOL     OW97648  13.919  14.863   4.589
65270SOL    HW197649  13.918   0.005   4.494
65270SOL    HW297650  13.879  14.777   4.600
65271SOL     OW97651   2.579   8.830   2.470
65271SOL    HW197652   2.487   8.831   2.441
65271SOL    HW297653   2.627   8.795   2.395
65272SOL     OW97654  14.845   8.518   1.955
65272SOL    HW197655  14.844   8.537   1.861
65272SOL    HW297656   0.063   8.495   1.974
65273SOL     OW97657  12.185  13.783   2.981
65273SOL    HW197658  12.227  13.721   3.041
65273SOL    HW297659  12.252  13.850   2.966
65274SOL     OW97660  12.810   1.383   1.128
65274SOL    HW197661  12.717   1.369   1.109
65274SOL    HW297662  12.814   1.389   1.223
65275SOL     OW97663  13.805   3.321   3.274
65275SOL    HW197664  13.893   3.342   3.305
65275SOL    HW297665  13.746   3.373   3.329
65276SOL     OW97666   9.617   2.483   1.226
65276SOL    HW197667   9.541   2.540   1.209
65276SOL    HW297668   9.584   2.395   1.211
65277SOL     OW97669  10.563   5.901  11.538
65277SOL    HW197670  10.541   5.991  11.562
65277SOL    HW297671  10.480   5.862  11.513
65278SOL     OW97672  13.475  14.862  10.855
65278SOL    HW197673  13.411   0.060  10.859
65278SOL    HW297674  13.525   0.005  10.775
65279SOL     OW97675   5.861  13.143   8.667
65279SOL    HW197676   5.908  13.224   8.644
65279SOL    HW297677   5.828  13.159   8.755
65280SOL     OW97678   8.353   3.657  13.165
65280SOL    HW197679   8.360   3.697  13.078
65280SOL    HW297680   8.395   3.572  13.156
65281SOL     OW97681   4.600  13.452   3.832
65281SOL    HW197682   4.693  13.476   3.837
65281SOL    HW297683   4.563  13.479   3.916
65282SOL     OW97684   1.561   8.427   1.062
65282SOL    HW197685   1.645   8.454   1.101
65282SOL    HW297686   1.495   8.478   1.110
65283SOL     OW97687   5.532   0.995  11.775
65283SOL    HW197688   5.586   0.935  11.828
65283SOL    HW297689   5.539   1.079  11.821
65284SOL     OW97690   7.160  12.829  10.410
65284SOL    HW197691   7.068  12.808  10.395
65284SOL    HW297692   7.159  12.920  10.441
65285SOL     OW97693   9.094   8.577   6.680
65285SOL    HW197694   9.149   8.568   6.758
65285SOL    HW297695   9.046   8.494   6.675
65286SOL     OW97696  14.454  10.874   9.344
65286SOL    HW197697  14.439  10.871   9.250
65286SOL    HW297698  14.481  10.785   9.366
65287SOL     OW97699   8.566   2.419   1.368
65287SOL    HW197700   8.543   2.331   1.339
65287SOL    HW297701   8.481   2.461   1.385
65288SOL     OW97702   9.075   1.488   6.006
65288SOL    HW197703   9.053   1.574   6.042
65288SOL    HW297704   9.142   1.454   6.066
65289SOL     OW97705  13.388  10.017   7.581
65289SOL    HW197706  13.331   9.940   7.584
65289SOL    HW297707  13.459   9.992   7.522
65290SOL     OW97708  10.470   6.138   9.515
65290SOL    HW197709  10.481   6.123   9.609
65290SOL    HW297710  10.535   6.081   9.474
65291SOL     OW97711   4.038   8.974   0.923
65291SOL    HW197712   3.957   9.025   0.928
65291SOL    HW297713   4.104   9.036   0.892
65292SOL     OW97714   2.936   1.797  10.039
65292SOL    HW197715   2.994   1.799  10.115
65292SOL    HW297716   2.971   1.727   9.984
65293SOL     OW97717  10.403  13.788   2.649
65293SOL    HW197718  10.427  13.831   2.567
65293SOL    HW297719  10.310  13.767   2.639
65294SOL     OW97720   1.154  10.770   8.739
65294SOL    HW197721   1.147  10.825   8.661
65294SOL    HW297722   1.077  10.712   8.734
65295SOL     OW97723  10.908   9.644   4.011
65295SOL    HW197724  10.817   9.636   4.040
65295SOL    HW297725  10.948   9.705   4.074
65296SOL     OW97726   9.168   1.688   8.310
65296SOL    HW197727   9.175   1.631   8.386
65296SOL    HW297728   9.191   1.632   8.235
65297SOL     OW97729   0.717   1.613   6.504
65297SOL    HW197730   0.725   1.697   6.550
65297SOL    HW297731   0.806   1.592   6.478
65298SOL     OW97732  13.990   4.724  14.757
65298SOL    HW197733  14.022   4.756  14.673
65298SOL    HW297734  14.043   4.646  14.775
65299SOL     OW97735   9.606   4.625   2.146
65299SOL    HW197736   9.647   4.543   2.173
65299SOL    HW297737   9.673   4.691   2.157
65300SOL     OW97738  11.872   1.176  14.676
65300SOL    HW197739  11.784   1.199  14.648
65300SOL    HW297740  11.876   1.201  14.768
65301SOL     OW97741  14.425   2.816   0.217
65301SOL    HW197742  14.404   2.870   0.293
65301SOL    HW297743  14.405   2.727   0.246
65302SOL     OW97744   0.201  12.456  11.129
65302SOL    HW197745   0.247  12.539  11.114
65302SOL    HW297746   0.243  12.394  11.069
65303SOL     OW97747   4.133   2.271   1.097
65303SOL    HW197748   4.080   2.235   1.026
65303SOL    HW297749   4.097   2.358   1.112
65304SOL     OW97750  10.024  12.192   8.272
65304SOL    HW197751  10.005  12.150   8.188
65304SOL    HW297752  10.117  12.175   8.287
65305SOL     OW97753   4.906   5.559  11.236
65305SOL    HW197754   4.939   5.503  11.166
65305SOL    HW297755   4.979   5.617  11.258
65306SOL     OW97756   9.884   4.050  11.990
65306SOL    HW197757   9.967   4.098  11.981
65306SOL    HW297758   9.906   3.960  11.969
65307SOL     OW97759   6.792  13.305   1.865
65307SOL    HW197760   6.881  13.274   1.852
65307SOL    HW297761   6.740  13.225   1.878
65308SOL     OW97762   9.659   5.884   0.069
65308SOL    HW197763   9.587   5.832   0.106
65308SOL    HW297764   9.685   5.942   0.140
65309SOL     OW97765   2.795   7.253   7.591
65309SOL    HW197766   2.751   7.254   7.676
65309SOL    HW297767   2.737   7.301   7.533
65310SOL     OW97768   3.033  14.478   4.032
65310SOL    HW197769   3.032  14.477   4.128
65310SOL    HW297770   3.016  14.570   4.009
65311SOL     OW97771  10.699   7.517  14.704
65311SOL    HW197772  10.757   7.441  14.713
65311SOL    HW297773  10.669   7.512  14.613
65312SOL     OW97774  12.855   2.096  10.075
65312SOL    HW197775  12.900   2.164  10.024
65312SOL    HW297776  12.785   2.143  10.121
65313SOL     OW97777   7.817   0.217  11.244
65313SOL    HW197778   7.898   0.188  11.286
65313SOL    HW297779   7.790   0.293  11.295
65314SOL     OW97780   7.479   4.359  10.948
65314SOL    HW197781   7.474   4.377  11.042
65314SOL    HW297782   7.494   4.265  10.942
65315SOL     OW97783  13.239   2.341   0.882
65315SOL    HW197784  13.327   2.352   0.848
65315SOL    HW297785  13.182   2.351   0.806
65316SOL     OW97786  13.530  12.587   9.522
65316SOL    HW197787  13.470  12.529   9.569
65316SOL    HW297788  13.529  12.668   9.572
65317SOL     OW97789  10.527   6.498   5.556
65317SOL    HW197790  10.601   6.442   5.580
65317SOL    HW297791  10.504   6.470   5.467
65318SOL     OW97792   9.904   8.974   9.383
65318SOL    HW197793   9.812   8.957   9.405
65318SOL    HW297794   9.909   8.961   9.289
65319SOL     OW97795  10.444   3.270   7.636
65319SOL    HW197796  10.381   3.340   7.617
65319SOL    HW297797  10.396   3.189   7.621
65320SOL     OW97798   1.435   3.950  14.863
65320SOL    HW197799   1.371   3.938   0.060
65320SOL    HW297800   1.398   4.018  14.807
65321SOL     OW97801   9.681   3.313   0.833
65321SOL    HW197802   9.644   3.268   0.757
65321SOL    HW297803   9.607   3.328   0.891
65322SOL     OW97804   7.168   5.379   8.092
65322SOL    HW197805   7.095   5.332   8.132
65322SOL    HW297806   7.195   5.324   8.019
65323SOL     OW97807  14.572  11.223  10.726
65323SOL    HW197808  14.594  11.188  10.813
65323SOL    HW297809  14.526  11.304  10.744
65324SOL     OW97810   4.396   0.788   3.893
65324SOL    HW197811   4.411   0.858   3.957
65324SOL    HW297812   4.479   0.781   3.845
65325SOL     OW97813   6.970   4.962   7.183
65325SOL    HW197814   6.909   4.985   7.253
65325SOL    HW297815   6.962   5.033   7.120
65326SOL     OW97816   9.835   9.288   6.581
65326SOL    HW197817   9.824   9.193   6.589
65326SOL    HW297818   9.922   9.299   6.542
65327SOL     OW97819   5.992   8.038  12.166
65327SOL    HW197820   5.944   8.043  12.083
65327SOL    HW297821   6.001   7.944  12.183
65328SOL     OW97822   7.127   8.436   7.808
65328SOL    HW197823   7.081   8.519   7.822
65328SOL    HW297824   7.071   8.388   7.747
65329SOL     OW97825   1.100   6.228   9.440
65329SOL    HW197826   1.098   6.210   9.535
65329SOL    HW297827   1.167   6.295   9.430
65330SOL     OW97828   0.287   5.049  14.311
65330SOL    HW197829   0.346   4.975  14.324
65330SOL    HW297830   0.210   5.011  14.269
65331SOL     OW97831   0.688  13.296  13.404
65331SOL    HW197832   0.655  13.319  13.491
65331SOL    HW297833   0.643  13.355  13.344
65332SOL     OW97834   6.100   7.784  11.939
65332SOL    HW197835   6.116   7.733  12.019
65332SOL    HW297836   6.005   7.797  11.937
65333SOL     OW97837   0.122   6.057  13.257
65333SOL    HW197838   0.108   6.102  13.340
65333SOL    HW297839   0.215   6.071  13.237
65334SOL     OW97840  13.110   2.238   6.769
65334SOL    HW197841  13.067   2.165   6.813
65334SOL    HW297842  13.044   2.308   6.771
65335SOL     OW97843   6.319  10.378  14.846
65335SOL    HW197844   6.332  10.378   0.067
65335SOL    HW297845   6.322  10.470  14.821
65336SOL     OW97846   3.067   3.386   9.350
65336SOL    HW197847   3.119   3.307   9.330
65336SOL    HW297848   3.111   3.456   9.301
65337SOL     OW97849   5.488  13.914   7.381
65337SOL    HW197850   5.533  13.871   7.455
65337SOL    HW297851   5.407  13.947   7.419
65338SOL     OW97852  10.544   4.893  13.368
65338SOL    HW197853  10.546   4.842  13.449
65338SOL    HW297854  10.476   4.958  13.381
65339SOL     OW97855   4.936  14.326   4.482
65339SOL    HW197856   4.913  14.350   4.392
65339SOL    HW297857   4.886  14.387   4.536
65340SOL     OW97858   9.017   6.440   0.537
65340SOL    HW197859   8.962   6.483   0.602
65340SOL    HW297860   9.035   6.508   0.472
65341SOL     OW97861  10.421  11.576  10.378
65341SOL    HW197862  10.334  11.541  10.399
65341SOL    HW297863  10.470  11.570  10.460
65342SOL     OW97864   0.462  13.969  14.238
65342SOL    HW197865   0.495  13.885  14.269
65342SOL    HW297866   0.537  14.011  14.196
65343SOL     OW97867   7.717   4.128   9.886
65343SOL    HW197868   7.624   4.150   9.879
65343SOL    HW297869   7.748   4.125   9.795
65344SOL     OW97870  10.659   1.710  10.815
65344SOL    HW197871  10.588   1.707  10.879
65344SOL    HW297872  10.702   1.793  10.831
65345SOL     OW97873   1.221  14.840   7.342
65345SOL    HW197874   1.305  14.858   7.385
65345SOL    HW297875   1.190   0.053   7.315
65346SOL     OW97876   3.081  11.775   8.274
65346SOL    HW197877   3.069  11.706   8.340
65346SOL    HW297878   3.083  11.729   8.191
65347SOL     OW97879   9.809   3.673  11.614
65347SOL    HW197880   9.741   3.616  11.650
65347SOL    HW297881   9.765   3.721  11.544
65348SOL     OW97882   6.521  11.875   5.256
65348SOL    HW197883   6.453  11.887   5.323
65348SOL    HW297884   6.508  11.786   5.224
65349SOL     OW97885  12.947   7.801  13.915
65349SOL    HW197886  12.979   7.717  13.883
65349SOL    HW297887  12.853   7.800  13.895
65350SOL     OW97888   8.451   6.300  13.732
65350SOL    HW197889   8.423   6.313  13.642
65350SOL    HW297890   8.531   6.248  13.725
65351SOL     OW97891   1.593   8.984   2.876
65351SOL    HW197892   1.613   8.980   2.782
65351SOL    HW297893   1.526   9.052   2.883
65352SOL     OW97894   4.363  12.360  14.718
65352SOL    HW197895   4.336  12.426  14.654
65352SOL    HW297896   4.414  12.409  14.782
65353SOL     OW97897  14.724   0.223   5.106
65353SOL    HW197898  14.818   0.227   5.086
65353SOL    HW297899  14.695   0.141   5.067
65354SOL     OW97900   8.043  10.014   8.025
65354SOL    HW197901   8.072   9.925   8.045
65354SOL    HW297902   8.101  10.070   8.076
65355SOL     OW97903  11.666   3.160   7.681
65355SOL    HW197904  11.690   3.248   7.710
65355SOL    HW297905  11.681   3.105   7.758
65356SOL     OW97906   6.470  14.710  12.237
65356SOL    HW197907   6.556  14.739  12.205
65356SOL    HW297908   6.475  14.719  12.332
65357SOL     OW97909  14.109   6.165   8.042
65357SOL    HW197910  14.104   6.260   8.057
65357SOL    HW297911  14.183   6.155   7.981
65358SOL     OW97912   7.336  14.136  13.501
65358SOL    HW197913   7.432  14.145  13.497
65358SOL    HW297914   7.322  14.044  13.525
65359SOL     OW97915   2.708   2.840   7.291
65359SOL    HW197916   2.622   2.797   7.290
65359SOL    HW297917   2.747   2.816   7.207
65360SOL     OW97918   9.673   9.083  13.787
65360SOL    HW197919   9.580   9.087  13.765
65360SOL    HW297920   9.718   9.070  13.704
65361SOL     OW97921   5.502   5.025   1.046
65361SOL    HW197922   5.483   5.091   0.978
65361SOL    HW297923   5.590   5.048   1.077
65362SOL     OW97924   2.789  11.977   9.470
65362SOL    HW197925   2.727  12.017   9.531
65362SOL    HW297926   2.734  11.940   9.401
65363SOL     OW97927  11.388  13.577   7.023
65363SOL    HW197928  11.314  13.637   7.011
65363SOL    HW297929  11.358  13.513   7.087
65364SOL     OW97930   5.841   2.561   7.449
65364SOL    HW197931   5.887   2.525   7.525
65364SOL    HW297932   5.858   2.656   7.455
65365SOL     OW97933   7.144   3.503  11.457
65365SOL    HW197934   7.070   3.474  11.511
65365SOL    HW297935   7.111   3.502  11.368
65366SOL     OW97936   1.527   9.922  14.041
65366SOL    HW197937   1.529  10.013  14.009
65366SOL    HW297938   1.543   9.930  14.135
65367SOL     OW97939   5.677   6.631   7.497
65367SOL    HW197940   5.755   6.667   7.455
65367SOL    HW297941   5.604   6.677   7.455
65368SOL     OW97942   9.542  11.382   3.773
65368SOL    HW197943   9.455  11.380   3.733
65368SOL    HW297944   9.599  11.342   3.708
65369SOL     OW97945  13.742  10.169  11.126
65369SOL    HW197946  13.678  10.187  11.057
65369SOL    HW297947  13.705  10.095  11.175
65370SOL     OW97948  12.977   2.924   7.837
65370SOL    HW197949  12.910   2.990   7.818
65370SOL    HW297950  13.060   2.973   7.836
65371SOL     OW97951   0.668   9.903   9.638
65371SOL    HW197952   0.579   9.872   9.657
65371SOL    HW297953   0.696   9.849   9.564
65372SOL     OW97954  12.674  14.817   2.657
65372SOL    HW197955  12.618   0.006   2.610
65372SOL    HW297956  12.625  14.796   2.737
65373SOL     OW97957   2.543   9.046   5.292
65373SOL    HW197958   2.572   9.130   5.257
65373SOL    HW297959   2.525   9.063   5.384
65374SOL     OW97960  13.051   7.766  11.415
65374SOL    HW197961  12.973   7.820  11.426
65374SOL    HW297962  13.106   7.816  11.354
65375SOL     OW97963   5.718   7.709   8.377
65375SOL    HW197964   5.735   7.641   8.312
65375SOL    HW297965   5.793   7.706   8.435
65376SOL     OW97966   7.679   5.930  12.344
65376SOL    HW197967   7.696   5.888  12.428
65376SOL    HW297968   7.694   6.023  12.359
65377SOL     OW97969   9.838  13.321   5.613
65377SOL    HW197970   9.813  13.368   5.534
65377SOL    HW297971   9.871  13.236   5.582
65378SOL     OW97972   5.064   8.132   3.762
65378SOL    HW197973   5.025   8.093   3.840
65378SOL    HW297974   4.995   8.126   3.696
65379SOL     OW97975  12.508   7.243   4.783
65379SOL    HW197976  12.548   7.196   4.857
65379SOL    HW297977  12.479   7.326   4.821
65380SOL     OW97978   8.082  13.104  11.533
65380SOL    HW197979   8.062  13.196  11.553
65380SOL    HW297980   8.147  13.108  11.463
65381SOL     OW97981   3.818  14.523   9.634
65381SOL    HW197982   3.846  14.464   9.565
65381SOL    HW297983   3.728  14.497   9.654
65382SOL     OW97984   3.240   4.602   1.283
65382SOL    HW197985   3.233   4.689   1.322
65382SOL    HW297986   3.176   4.550   1.331
65383SOL     OW97987   2.272   4.786   8.335
65383SOL    HW197988   2.310   4.707   8.373
65383SOL    HW297989   2.347   4.842   8.316
65384SOL     OW97990   5.425   9.797   5.814
65384SOL    HW197991   5.515   9.819   5.837
65384SOL    HW297992   5.423   9.701   5.816
65385SOL     OW97993   6.141   1.248  12.799
65385SOL    HW197994   6.194   1.180  12.758
65385SOL    HW297995   6.204   1.316  12.825
65386SOL     OW97996  13.700   2.217   9.465
65386SOL    HW197997  13.695   2.155   9.392
65386SOL    HW297998  13.787   2.204   9.502
65387SOL     OW97999  14.850   5.325   9.196
65387SOL    HW198000  14.812   5.248   9.153
65387SOL    HW298001  14.816   5.399   9.146
65388SOL     OW98002   3.910   9.930   3.147
65388SOL    HW198003   3.843   9.862   3.138
65388SOL    HW298004   3.992   9.881   3.154
65389SOL     OW98005   8.582   0.114   3.715
65389SOL    HW198006   8.529   0.037   3.737
65389SOL    HW298007   8.525   0.188   3.735
65390SOL     OW98008   7.979   2.942   8.755
65390SOL    HW198009   7.953   2.964   8.844
65390SOL    HW298010   8.075   2.935   8.759
65391SOL     OW98011  10.925   9.201   3.810
65391SOL    HW198012  10.848   9.169   3.856
65391SOL    HW298013  10.979   9.240   3.878
65392SOL     OW98014   8.639   2.312  11.939
65392SOL    HW198015   8.691   2.285  12.014
65392SOL    HW298016   8.632   2.408  11.948
65393SOL     OW98017   3.099   7.997  13.977
65393SOL    HW198018   3.018   8.008  13.928
65393SOL    HW298019   3.082   8.039  14.061
65394SOL     OW98020   8.919   4.630  14.177
65394SOL    HW198021   8.845   4.674  14.219
65394SOL    HW298022   8.996   4.675  14.211
65395SOL     OW98023   8.201   8.404   2.310
65395SOL    HW198024   8.239   8.476   2.259
65395SOL    HW298025   8.268   8.384   2.376
65396SOL     OW98026  11.863   2.823  14.560
65396SOL    HW198027  11.861   2.728  14.553
65396SOL    HW298028  11.795   2.853  14.499
65397SOL     OW98029  13.892   0.585   8.181
65397SOL    HW198030  13.869   0.648   8.113
65397SOL    HW298031  13.814   0.530   8.190
65398SOL     OW98032   0.851  14.674   4.698
65398SOL    HW198033   0.855  14.625   4.616
65398SOL    HW298034   0.869  14.764   4.673
65399SOL     OW98035  12.265   9.603  13.427
65399SOL    HW198036  12.261   9.508  13.433
65399SOL    HW298037  12.274   9.620  13.333
65400SOL     OW98038   0.793   5.097   4.203
65400SOL    HW198039   0.721   5.036   4.217
65400SOL    HW298040   0.754   5.168   4.153
65401SOL     OW98041   0.476   7.215   3.700
65401SOL    HW198042   0.544   7.148   3.702
65401SOL    HW298043   0.523   7.298   3.697
65402SOL     OW98044   8.319   4.212   3.643
65402SOL    HW198045   8.305   4.290   3.696
65402SOL    HW298046   8.241   4.159   3.657
65403SOL     OW98047   2.614  10.979  10.494
65403SOL    HW198048   2.668  11.057  10.508
65403SOL    HW298049   2.655  10.936  10.418
65404SOL     OW98050   2.028  12.769   5.825
65404SOL    HW198051   2.070  12.703   5.770
65404SOL    HW298052   2.030  12.849   5.772
65405SOL     OW98053   5.384   5.219   1.266
65405SOL    HW198054   5.302   5.260   1.238
65405SOL    HW298055   5.404   5.156   1.196
65406SOL     OW98056   6.277   8.031  12.223
65406SOL    HW198057   6.189   8.046  12.188
65406SOL    HW298058   6.262   7.974  12.300
65407SOL     OW98059  11.299  11.367   6.055
65407SOL    HW198060  11.252  11.349   6.136
65407SOL    HW298061  11.388  11.333   6.070
65408SOL     OW98062  11.373   6.518  10.037
65408SOL    HW198063  11.398   6.605  10.006
65408SOL    HW298064  11.455   6.480  10.069
65409SOL     OW98065   5.446   6.947   3.832
65409SOL    HW198066   5.456   6.906   3.918
65409SOL    HW298067   5.435   6.873   3.772
65410SOL     OW98068   0.771  11.772  13.868
65410SOL    HW198069   0.822  11.851  13.851
65410SOL    HW298070   0.818  11.727  13.938
65411SOL     OW98071   1.168   9.171  11.453
65411SOL    HW198072   1.146   9.262  11.433
65411SOL    HW298073   1.109   9.120  11.396
65412SOL     OW98074  10.661  10.763   1.571
65412SOL    HW198075  10.696  10.735   1.487
65412SOL    HW298076  10.734  10.810   1.614
65413SOL     OW98077   9.889   1.756  11.094
65413SOL    HW198078   9.822   1.693  11.122
65413SOL    HW298079   9.929   1.717  11.017
65414SOL     OW98080  10.931   5.331   2.635
65414SOL    HW198081  10.932   5.420   2.670
65414SOL    HW298082  11.023   5.304   2.636
65415SOL     OW98083  11.730   9.664  12.366
65415SOL    HW198084  11.760   9.599  12.429
65415SOL    HW298085  11.806   9.682  12.312
65416SOL     OW98086   8.330   6.634  10.805
65416SOL    HW198087   8.263   6.590  10.857
65416SOL    HW298088   8.310   6.727  10.814
65417SOL     OW98089   4.903  14.156   2.375
65417SOL    HW198090   4.941  14.232   2.331
65417SOL    HW298091   4.950  14.150   2.458
65418SOL     OW98092   5.647   8.041  11.992
65418SOL    HW198093   5.590   8.037  11.915
65418SOL    HW298094   5.592   8.077  12.061
65419SOL     OW98095  12.704   6.573   8.236
65419SOL    HW198096  12.787   6.526   8.224
65419SOL    HW298097  12.685   6.610   8.150
65420SOL     OW98098   5.175   7.043  11.660
65420SOL    HW198099   5.104   6.999  11.614
65420SOL    HW298100   5.255   7.007  11.621
65421SOL     OW98101   2.146  12.009   6.201
65421SOL    HW198102   2.072  12.021   6.261
65421SOL    HW298103   2.107  11.981   6.119
65422SOL     OW98104   5.428   0.746   3.299
65422SOL    HW198105   5.390   0.772   3.215
65422SOL    HW298106   5.368   0.780   3.365
65423SOL     OW98107  10.493   1.683  13.767
65423SOL    HW198108  10.575   1.650  13.729
65423SOL    HW298109  10.477   1.628  13.843
65424SOL     OW98110  10.295  13.376   8.746
65424SOL    HW198111  10.290  13.296   8.693
65424SOL    HW298112  10.207  13.385   8.784
65425SOL     OW98113   3.157   5.619   7.442
65425SOL    HW198114   3.091   5.621   7.511
65425SOL    HW298115   3.241   5.616   7.488
65426SOL     OW98116  14.292  14.439   8.010
65426SOL    HW198117  14.208  14.394   7.995
65426SOL    HW298118  14.272  14.505   8.077
65427SOL     OW98119   9.158   3.831   3.213
65427SOL    HW198120   9.179   3.764   3.278
65427SOL    HW298121   9.107   3.785   3.147
65428SOL     OW98122   6.685   2.225  14.809
65428SOL    HW198123   6.756   2.225  14.744
65428SOL    HW298124   6.608   2.196  14.760
65429SOL     OW98125   7.880  14.321   7.539
65429SOL    HW198126   7.893  14.415   7.550
65429SOL    HW298127   7.886  14.285   7.628
65430SOL     OW98128   1.668  13.222   1.302
65430SOL    HW198129   1.627  13.170   1.372
65430SOL    HW298130   1.751  13.177   1.285
65431SOL     OW98131   3.604  13.968   1.464
65431SOL    HW198132   3.696  13.950   1.448
65431SOL    HW298133   3.563  13.963   1.378
65432SOL     OW98134  12.296   6.184   1.018
65432SOL    HW198135  12.298   6.170   0.923
65432SOL    HW298136  12.244   6.264   1.029
65433SOL     OW98137   5.517   6.782   7.317
65433SOL    HW198138   5.565   6.857   7.282
65433SOL    HW298139   5.427   6.813   7.327
65434SOL     OW98140  11.490  14.844   6.485
65434SOL    HW198141  11.504  14.808   6.398
65434SOL    HW298142  11.507  14.771   6.544
65435SOL     OW98143   6.250   5.263  10.312
65435SOL    HW198144   6.203   5.233  10.390
65435SOL    HW298145   6.330   5.211  10.311
65436SOL     OW98146  13.143  11.908   2.614
65436SOL    HW198147  13.108  11.997   2.611
65436SOL    HW298148  13.186  11.902   2.699
65437SOL     OW98149   4.272   2.201   7.862
65437SOL    HW198150   4.306   2.276   7.911
65437SOL    HW298151   4.182   2.226   7.840
65438SOL     OW98152  11.608   5.371   9.011
65438SOL    HW198153  11.563   5.314   8.949
65438SOL    HW298154  11.665   5.426   8.957
65439SOL     OW98155   6.291  14.587  14.384
65439SOL    HW198156   6.334  14.667  14.356
65439SOL    HW298157   6.261  14.545  14.303
65440SOL     OW98158  13.292   9.364   9.914
65440SOL    HW198159  13.269   9.297   9.849
65440SOL    HW298160  13.375   9.335   9.951
65441SOL     OW98161   2.232   8.422  14.535
65441SOL    HW198162   2.219   8.392  14.446
65441SOL    HW298163   2.240   8.518  14.528
65442SOL     OW98164   9.173  14.144   9.499
65442SOL    HW198165   9.082  14.140   9.470
65442SOL    HW298166   9.180  14.226   9.548
65443SOL     OW98167   3.773   0.303   6.704
65443SOL    HW198168   3.839   0.365   6.676
65443SOL    HW298169   3.819   0.219   6.710
65444SOL     OW98170   8.637   9.808   7.515
65444SOL    HW198171   8.592   9.741   7.567
65444SOL    HW298172   8.676   9.866   7.581
65445SOL     OW98173   9.674   6.385   0.928
65445SOL    HW198174   9.731   6.331   0.873
65445SOL    HW298175   9.641   6.325   0.995
65446SOL     OW98176   2.919   4.894  10.609
65446SOL    HW198177   3.010   4.869  10.625
65446SOL    HW298178   2.919   4.928  10.519
65447SOL     OW98179  11.184  11.609   2.277
65447SOL    HW198180  11.238  11.675   2.232
65447SOL    HW298181  11.247  11.547   2.312
65448SOL     OW98182  12.757   3.211   7.101
65448SOL    HW198183  12.759   3.266   7.023
65448SOL    HW298184  12.831   3.151   7.090
65449SOL     OW98185  10.449   2.635   0.663
65449SOL    HW198186  10.438   2.686   0.744
65449SOL    HW298187  10.543   2.635   0.647
65450SOL     OW98188   9.385   2.379  12.490
65450SOL    HW198189   9.398   2.331  12.572
65450SOL    HW298190   9.471   2.416  12.471
65451SOL     OW98191   0.488  12.118   2.511
65451SOL    HW198192   0.497  12.187   2.446
65451SOL    HW298193   0.561  12.058   2.494
65452SOL     OW98194   4.708  10.908   6.737
65452SOL    HW198195   4.690  10.843   6.669
65452SOL    HW298196   4.636  10.971   6.730
65453SOL     OW98197   6.228   5.710   7.200
65453SOL    HW198198   6.215   5.774   7.129
65453SOL    HW298199   6.270   5.636   7.157
65454SOL     OW98200   6.934   5.139  12.728
65454SOL    HW198201   6.975   5.225  12.733
65454SOL    HW298202   6.842   5.155  12.750
65455SOL     OW98203   8.218   9.169   7.084
65455SOL    HW198204   8.301   9.214   7.094
65455SOL    HW298205   8.230   9.085   7.130
65456SOL     OW98206   1.278   0.089  12.335
65456SOL    HW198207   1.373   0.102  12.331
65456SOL    HW298208   1.255   0.052  12.250
65457SOL     OW98209   5.774   3.195   2.651
65457SOL    HW198210   5.866   3.194   2.676
65457SOL    HW298211   5.773   3.162   2.561
65458SOL     OW98212   5.786   2.839   3.167
65458SOL    HW198213   5.733   2.903   3.214
65458SOL    HW298214   5.876   2.870   3.177
65459SOL     OW98215   6.543   2.763   6.468
65459SOL    HW198216   6.502   2.712   6.538
65459SOL    HW298217   6.625   2.718   6.451
65460SOL     OW98218  10.400   1.521   0.905
65460SOL    HW198219  10.361   1.457   0.965
65460SOL    HW298220  10.493   1.520   0.926
65461SOL     OW98221   9.149  12.550   6.554
65461SOL    HW198222   9.087  12.620   6.572
65461SOL    HW298223   9.104  12.471   6.585
65462SOL     OW98224  10.136   5.681   8.909
65462SOL    HW198225  10.191   5.751   8.872
65462SOL    HW298226  10.048   5.717   8.909
65463SOL     OW98227  10.414   4.341   2.532
65463SOL    HW198228  10.439   4.327   2.440
65463SOL    HW298229  10.357   4.417   2.530
65464SOL     OW98230   9.220  11.750   5.682
65464SOL    HW198231   9.249  11.830   5.639
65464SOL    HW298232   9.254  11.757   5.771
65465SOL     OW98233   0.284   0.357  11.472
65465SOL    HW198234   0.230   0.282  11.494
65465SOL    HW298235   0.225   0.417  11.426
65466SOL     OW98236   2.761  14.308   4.437
65466SOL    HW198237   2.676  14.300   4.394
65466SOL    HW298238   2.784  14.219   4.462
65467SOL     OW98239   4.927  13.652   4.950
65467SOL    HW198240   4.951  13.633   5.040
65467SOL    HW298241   4.994  13.713   4.919
65468SOL     OW98242   6.015  12.711   5.359
65468SOL    HW198243   6.062  12.793   5.375
65468SOL    HW298244   5.923  12.736   5.360
65469SOL     OW98245   6.385  13.595  11.125
65469SOL    HW198246   6.466  13.622  11.082
65469SOL    HW298247   6.321  13.588  11.054
65470SOL     OW98248   1.437   8.025   4.633
65470SOL    HW198249   1.421   8.047   4.542
65470SOL    HW298250   1.435   7.929   4.635
65471SOL     OW98251  11.377   7.081  10.757
65471SOL    HW198252  11.459   7.108  10.797
65471SOL    HW298253  11.346   7.160  10.712
65472SOL     OW98254   0.875  12.951   1.236
65472SOL    HW198255   0.938  12.962   1.307
65472SOL    HW298256   0.834  13.037   1.228
65473SOL     OW98257   9.285   1.344   4.564
65473SOL    HW198258   9.208   1.385   4.604
65473SOL    HW298259   9.300   1.394   4.484
65474SOL     OW98260   3.988   0.400   7.962
65474SOL    HW198261   3.957   0.315   7.931
65474SOL    HW298262   3.932   0.464   7.916
65475SOL     OW98263   9.558  13.769   1.156
65475SOL    HW198264   9.519  13.850   1.189
65475SOL    HW298265   9.599  13.795   1.073
65476SOL     OW98266   4.176   6.522   2.920
65476SOL    HW198267   4.180   6.455   2.851
65476SOL    HW298268   4.245   6.497   2.981
65477SOL     OW98269   0.611  10.032   2.012
65477SOL    HW198270   0.663  10.109   2.036
65477SOL    HW298271   0.539  10.031   2.075
65478SOL     OW98272   9.848   1.430  13.389
65478SOL    HW198273   9.908   1.428  13.464
65478SOL    HW298274   9.899   1.470  13.319
65479SOL     OW98275  10.018  13.063   2.497
65479SOL    HW198276  10.026  13.106   2.582
65479SOL    HW298277   9.947  13.109   2.453
65480SOL     OW98278   9.264   4.053  10.715
65480SOL    HW198279   9.333   4.115  10.695
65480SOL    HW298280   9.284   4.022  10.804
65481SOL     OW98281  11.722   0.636   0.089
65481SOL    HW198282  11.695   0.692   0.015
65481SOL    HW298283  11.805   0.673   0.117
65482SOL     OW98284  10.686  11.082  13.007
65482SOL    HW198285  10.713  11.174  13.013
65482SOL    HW298286  10.676  11.053  13.097
65483SOL     OW98287   6.041   6.133   8.891
65483SOL    HW198288   6.104   6.088   8.835
65483SOL    HW298289   5.959   6.129   8.842
65484SOL     OW98290  14.065   3.632  12.372
65484SOL    HW198291  14.016   3.575  12.313
65484SOL    HW298292  14.002   3.701  12.396
65485SOL     OW98293   6.721   2.795   0.414
65485SOL    HW198294   6.700   2.729   0.348
65485SOL    HW298295   6.689   2.877   0.377
65486SOL     OW98296   8.465  10.187   8.190
65486SOL    HW198297   8.467  10.182   8.285
65486SOL    HW298298   8.538  10.132   8.161
65487SOL     OW98299   0.891   4.489   4.289
65487SOL    HW198300   0.824   4.554   4.269
65487SOL    HW298301   0.844   4.420   4.337
65488SOL     OW98302  11.660  14.608  14.135
65488SOL    HW198303  11.579  14.565  14.162
65488SOL    HW298304  11.645  14.632  14.043
65489SOL     OW98305   7.423  13.775  14.046
65489SOL    HW198306   7.414  13.681  14.061
65489SOL    HW298307   7.371  13.791  13.967
65490SOL     OW98308   1.503   2.119   0.372
65490SOL    HW198309   1.580   2.098   0.424
65490SOL    HW298310   1.436   2.140   0.437
65491SOL     OW98311   6.595  14.397   7.654
65491SOL    HW198312   6.566  14.451   7.727
65491SOL    HW298313   6.571  14.446   7.576
65492SOL     OW98314   2.600   8.862   3.189
65492SOL    HW198315   2.553   8.913   3.122
65492SOL    HW298316   2.553   8.779   3.192
65493SOL     OW98317   7.574   1.445  11.789
65493SOL    HW198318   7.508   1.499  11.746
65493SOL    HW298319   7.566   1.359  11.746
65494SOL     OW98320   9.935  10.978  11.223
65494SOL    HW198321   9.924  10.990  11.129
65494SOL    HW298322   9.941  10.883  11.234
65495SOL     OW98323   0.292   1.776   0.207
65495SOL    HW198324   0.308   1.705   0.270
65495SOL    HW298325   0.304   1.856   0.258
65496SOL     OW98326   5.831   5.686   4.541
65496SOL    HW198327   5.867   5.758   4.490
65496SOL    HW298328   5.834   5.610   4.483
65497SOL     OW98329   6.359  12.761  12.130
65497SOL    HW198330   6.438  12.796  12.089
65497SOL    HW298331   6.392  12.695  12.191
65498SOL     OW98332   1.395   5.475  13.064
65498SOL    HW198333   1.305   5.485  13.095
65498SOL    HW298334   1.448   5.520  13.129
65499SOL     OW98335  12.506   7.558   3.575
65499SOL    HW198336  12.496   7.648   3.605
65499SOL    HW298337  12.436   7.511   3.620
65500SOL     OW98338  11.319   2.893   2.413
65500SOL    HW198339  11.232   2.854   2.407
65500SOL    HW298340  11.360   2.848   2.487
65501SOL     OW98341   5.219   4.155   2.413
65501SOL    HW198342   5.188   4.242   2.438
65501SOL    HW298343   5.287   4.134   2.477
65502SOL     OW98344  14.348   4.709   1.659
65502SOL    HW198345  14.421   4.735   1.603
65502SOL    HW298346  14.346   4.776   1.727
65503SOL     OW98347   4.834   2.011   9.483
65503SOL    HW198348   4.924   2.026   9.455
65503SOL    HW298349   4.782   2.073   9.432
65504SOL     OW98350   2.156   4.433   5.347
65504SOL    HW198351   2.138   4.467   5.435
65504SOL    HW298352   2.127   4.342   5.349
65505SOL     OW98353   7.465   3.851  11.078
65505SOL    HW198354   7.396   3.914  11.099
65505SOL    HW298355   7.516   3.843  11.158
65506SOL     OW98356   8.189   9.580   5.982
65506SOL    HW198357   8.176   9.505   6.040
65506SOL    HW298358   8.192   9.541   5.894
65507SOL     OW98359   7.695   0.079   9.102
65507SOL    HW198360   7.752   0.017   9.148
65507SOL    HW298361   7.610   0.035   9.097
65508SOL     OW98362   3.698   8.142   0.979
65508SOL    HW198363   3.684   8.146   1.073
65508SOL    HW298364   3.617   8.104   0.944
65509SOL     OW98365   0.473   4.103   0.977
65509SOL    HW198366   0.438   4.115   0.889
65509SOL    HW298367   0.565   4.083   0.965
65510SOL     OW98368   8.187  11.737   7.201
65510SOL    HW198369   8.241  11.813   7.181
65510SOL    HW298370   8.147  11.714   7.117
65511SOL     OW98371  10.795  14.080   0.181
65511SOL    HW198372  10.820  14.135   0.106
65511SOL    HW298373  10.863  14.096   0.246
65512SOL     OW98374   8.492   6.133   2.917
65512SOL    HW198375   8.398   6.118   2.928
65512SOL    HW298376   8.526   6.137   3.006
65513SOL     OW98377   8.208   1.603  14.753
65513SOL    HW198378   8.172   1.546  14.821
65513SOL    HW298379   8.201   1.552  14.672
65514SOL     OW98380   6.776  13.681   7.309
65514SOL    HW198381   6.767  13.663   7.216
65514SOL    HW298382   6.833  13.612   7.342
65515SOL     OW98383   6.655   9.511   8.424
65515SOL    HW198384   6.598   9.485   8.496
65515SOL    HW298385   6.667   9.605   8.435
65516SOL     OW98386   7.914   9.069   6.683
65516SOL    HW198387   7.875   9.017   6.753
65516SOL    HW298388   7.962   9.139   6.730
65517SOL     OW98389  12.061  13.331   0.802
65517SOL    HW198390  12.064  13.413   0.851
65517SOL    HW298391  12.143  13.288   0.823
65518SOL     OW98392   2.801   2.010  14.783
65518SOL    HW198393   2.887   2.026  14.821
65518SOL    HW298394   2.819   1.964  14.701
65519SOL     OW98395  14.388   2.984   7.364
65519SOL    HW198396  14.398   3.061   7.421
65519SOL    HW298397  14.341   3.018   7.287
65520SOL     OW98398  11.561  11.724  13.250
65520SOL    HW198399  11.483  11.759  13.206
65520SOL    HW298400  11.578  11.641  13.206
65521SOL     OW98401  11.503   6.068   7.603
65521SOL    HW198402  11.485   5.984   7.561
65521SOL    HW298403  11.458   6.132   7.548
65522SOL     OW98404   4.013   7.015   2.005
65522SOL    HW198405   3.965   6.979   1.930
65522SOL    HW298406   3.981   7.105   2.013
65523SOL     OW98407   8.708   5.218   1.699
65523SOL    HW198408   8.748   5.196   1.615
65523SOL    HW298409   8.636   5.277   1.677
65524SOL     OW98410   5.290  12.341   2.233
65524SOL    HW198411   5.315  12.299   2.151
65524SOL    HW298412   5.335  12.291   2.301
65525SOL     OW98413   8.987   8.683  12.934
65525SOL    HW198414   8.992   8.737  13.013
65525SOL    HW298415   8.899   8.698  12.901
65526SOL     OW98416  13.984  14.128  12.811
65526SOL    HW198417  13.893  14.129  12.783
65526SOL    HW298418  13.983  14.167  12.899
65527SOL     OW98419   3.704  10.278   8.723
65527SOL    HW198420   3.705  10.220   8.799
65527SOL    HW298421   3.641  10.347   8.747
65528SOL     OW98422  10.225   3.879   4.682
65528SOL    HW198423  10.298   3.940   4.673
65528SOL    HW298424  10.263   3.801   4.723
65529SOL     OW98425   8.945   9.514   4.769
65529SOL    HW198426   9.012   9.545   4.828
65529SOL    HW298427   8.982   9.526   4.681
65530SOL     OW98428   1.617   7.620   9.680
65530SOL    HW198429   1.685   7.607   9.746
65530SOL    HW298430   1.639   7.703   9.638
65531SOL     OW98431   5.568  12.271  10.142
65531SOL    HW198432   5.572  12.352  10.192
65531SOL    HW298433   5.654  12.262  10.103
65532SOL     OW98434   4.900   2.088   8.160
65532SOL    HW198435   4.971   2.024   8.153
65532SOL    HW298436   4.944   2.172   8.171
65533SOL     OW98437   8.260  10.241   6.275
65533SOL    HW198438   8.198  10.314   6.276
65533SOL    HW298439   8.265  10.212   6.366
65534SOL     OW98440   7.280  10.307   4.970
65534SOL    HW198441   7.371  10.277   4.963
65534SOL    HW298442   7.271  10.334   5.061
65535SOL     OW98443  12.106   6.397   1.041
65535SOL    HW198444  12.159   6.464   0.997
65535SOL    HW298445  12.016   6.417   1.015
65536SOL     OW98446  11.624   3.790   5.497
65536SOL    HW198447  11.623   3.703   5.537
65536SOL    HW298448  11.568   3.843   5.555
65537SOL     OW98449  12.255   9.370  13.990
65537SOL    HW198450  12.167   9.361  13.954
65537SOL    HW298451  12.257   9.312  14.066
65538SOL     OW98452   9.454  11.330   0.778
65538SOL    HW198453   9.427  11.298   0.863
65538SOL    HW298454   9.397  11.286   0.715
65539SOL     OW98455   6.254  10.209   1.571
65539SOL    HW198456   6.270  10.118   1.547
65539SOL    HW298457   6.319  10.259   1.522
65540SOL     OW98458   6.599   9.440   1.958
65540SOL    HW198459   6.667   9.507   1.965
65540SOL    HW298460   6.532   9.480   1.902
65541SOL     OW98461  12.332   0.130   0.284
65541SOL    HW198462  12.329   0.047   0.332
65541SOL    HW298463  12.398   0.117   0.217
65542SOL     OW98464  10.116   4.966   3.161
65542SOL    HW198465  10.118   5.026   3.236
65542SOL    HW298466  10.027   4.931   3.161
65543SOL     OW98467  13.840  13.142   5.513
65543SOL    HW198468  13.887  13.222   5.540
65543SOL    HW298469  13.840  13.087   5.592
65544SOL     OW98470   4.573   6.638   6.224
65544SOL    HW198471   4.623   6.676   6.296
65544SOL    HW298472   4.627   6.564   6.194
65545SOL     OW98473   1.002  13.052   9.401
65545SOL    HW198474   1.090  13.088   9.408
65545SOL    HW298475   1.009  12.963   9.434
65546SOL     OW98476   4.906  14.829   1.742
65546SOL    HW198477   4.822  14.870   1.719
65546SOL    HW298478   4.882  14.752   1.792
65547SOL     OW98479   9.895  12.899   3.041
65547SOL    HW198480   9.928  12.856   3.120
65547SOL    HW298481   9.971  12.905   2.983
65548SOL     OW98482  13.882   5.967  11.893
65548SOL    HW198483  13.950   5.958  11.959
65548SOL    HW298484  13.928   5.992  11.814
65549SOL     OW98485   5.622  14.255  13.029
65549SOL    HW198486   5.699  14.210  13.064
65549SOL    HW298487   5.657  14.311  12.960
65550SOL     OW98488   9.727   3.698   4.218
65550SOL    HW198489   9.673   3.772   4.248
65550SOL    HW298490   9.675   3.659   4.147
65551SOL     OW98491  13.200   0.915   5.491
65551SOL    HW198492  13.136   0.986   5.495
65551SOL    HW298493  13.231   0.916   5.400
65552SOL     OW98494  10.812  14.328   0.521
65552SOL    HW198495  10.751  14.273   0.472
65552SOL    HW298496  10.821  14.407   0.467
65553SOL     OW98497  12.472   0.429  14.620
65553SOL    HW198498  12.440   0.479  14.545
65553SOL    HW298499  12.400   0.431  14.683
65554SOL     OW98500   0.155   9.101   7.385
65554SOL    HW198501   0.173   9.011   7.410
65554SOL    HW298502   0.164   9.102   7.289
65555SOL     OW98503   4.161   5.048  11.324
65555SOL    HW198504   4.109   4.972  11.297
65555SOL    HW298505   4.243   5.011  11.355
65556SOL     OW98506  14.771   6.101   8.428
65556SOL    HW198507  14.699   6.051   8.389
65556SOL    HW298508  14.830   6.034   8.463
65557SOL     OW98509  11.541   9.424  12.009
65557SOL    HW198510  11.542   9.339  12.052
65557SOL    HW298511  11.534   9.487  12.081
65558SOL     OW98512   6.403  12.857   6.525
65558SOL    HW198513   6.373  12.831   6.438
65558SOL    HW298514   6.404  12.776   6.576
65559SOL     OW98515   7.702   7.012  12.305
65559SOL    HW198516   7.671   6.957  12.234
65559SOL    HW298517   7.780   7.056  12.270
65560SOL     OW98518  12.570   1.846  10.014
65560SOL    HW198519  12.545   1.774  10.071
65560SOL    HW298520  12.617   1.907  10.071
65561SOL     OW98521  13.531   6.298   0.537
65561SOL    HW198522  13.548   6.248   0.457
65561SOL    HW298523  13.541   6.390   0.510
65562SOL     OW98524  12.517   5.351   4.737
65562SOL    HW198525  12.524   5.367   4.831
65562SOL    HW298526  12.554   5.263   4.725
65563SOL     OW98527   0.655  11.228  14.402
65563SOL    HW198528   0.704  11.291  14.453
65563SOL    HW298529   0.601  11.281  14.343
65564SOL     OW98530   0.932  14.023   2.246
65564SOL    HW198531   0.840  13.997   2.248
65564SOL    HW298532   0.956  14.017   2.154
65565SOL     OW98533   5.215   3.397   2.696
65565SOL    HW198534   5.195   3.489   2.717
65565SOL    HW298535   5.195   3.349   2.777
65566SOL     OW98536   0.392   8.131   7.370
65566SOL    HW198537   0.312   8.151   7.321
65566SOL    HW298538   0.416   8.215   7.410
65567SOL     OW98539   6.272   1.208   9.387
65567SOL    HW198540   6.353   1.260   9.383
65567SOL    HW298541   6.203   1.271   9.363
65568SOL     OW98542   7.547   7.224   6.693
65568SOL    HW198543   7.510   7.255   6.776
65568SOL    HW298544   7.472   7.188   6.645
65569SOL     OW98545  12.195   8.895  14.546
65569SOL    HW198546  12.156   8.880  14.460
65569SOL    HW298547  12.257   8.822  14.556
65570SOL     OW98548   1.653   5.758   9.949
65570SOL    HW198549   1.702   5.825   9.901
65570SOL    HW298550   1.629   5.694   9.882
65571SOL     OW98551   6.395  14.023  13.204
65571SOL    HW198552   6.445  14.081  13.148
65571SOL    HW298553   6.322  14.076  13.236
65572SOL     OW98554   2.153   5.200   9.294
65572SOL    HW198555   2.115   5.181   9.380
65572SOL    HW298556   2.079   5.229   9.241
65573SOL     OW98557   5.182  12.920   3.144
65573SOL    HW198558   5.170  12.834   3.105
65573SOL    HW298559   5.275  12.927   3.161
65574SOL     OW98560  14.058  12.937   4.562
65574SOL    HW198561  14.048  12.913   4.470
65574SOL    HW298562  14.121  13.009   4.562
65575SOL     OW98563   5.224   8.846  12.796
65575SOL    HW198564   5.278   8.841  12.717
65575SOL    HW298565   5.287   8.862  12.867
65576SOL     OW98566  12.815  13.649   0.373
65576SOL    HW198567  12.878  13.676   0.440
65576SOL    HW298568  12.789  13.732   0.332
65577SOL     OW98569   3.548  14.544   0.445
65577SOL    HW198570   3.599  14.575   0.371
65577SOL    HW298571   3.529  14.623   0.496
65578SOL     OW98572  10.086  10.042   6.514
65578SOL    HW198573  10.006  10.036   6.565
65578SOL    HW298574  10.098   9.954   6.479
65579SOL     OW98575   1.235   5.358   9.082
65579SOL    HW198576   1.321   5.318   9.093
65579SOL    HW298577   1.193   5.349   9.168
65580SOL     OW98578  11.239   8.696   4.245
65580SOL    HW198579  11.198   8.759   4.303
65580SOL    HW298580  11.311   8.744   4.205
65581SOL     OW98581  11.078   8.794  11.330
65581SOL    HW198582  11.173   8.797  11.340
65581SOL    HW298583  11.065   8.792  11.235
65582SOL     OW98584  10.119  14.160  11.101
65582SOL    HW198585  10.212  14.148  11.082
65582SOL    HW298586  10.117  14.223  11.173
65583SOL     OW98587  12.027   9.900   0.928
65583SOL    HW198588  12.067   9.955   0.861
65583SOL    HW298589  12.078   9.819   0.927
65584SOL     OW98590   4.546   2.465   4.163
65584SOL    HW198591   4.505   2.542   4.122
65584SOL    HW298592   4.473   2.408   4.184
65585SOL     OW98593  14.411   1.209   1.611
65585SOL    HW198594  14.425   1.143   1.679
65585SOL    HW298595  14.486   1.199   1.553
65586SOL     OW98596   4.571  14.711   3.647
65586SOL    HW198597   4.609  14.632   3.686
65586SOL    HW298598   4.643  14.752   3.600
65587SOL     OW98599  10.748  14.613   6.793
65587SOL    HW198600  10.653  14.606   6.788
65587SOL    HW298601  10.768  14.701   6.760
65588SOL     OW98602   2.300   1.165  12.913
65588SOL    HW198603   2.222   1.219  12.931
65588SOL    HW298604   2.313   1.114  12.993
65589SOL     OW98605   5.307  12.877   1.938
65589SOL    HW198606   5.330  12.970   1.931
65589SOL    HW298607   5.214  12.877   1.959
65590SOL     OW98608   2.630  14.479   1.947
65590SOL    HW198609   2.717  14.456   1.980
65590SOL    HW298610   2.601  14.549   2.005
65591SOL     OW98611   1.786   1.615  14.040
65591SOL    HW198612   1.760   1.541  14.095
65591SOL    HW298613   1.709   1.635  13.987
65592SOL     OW98614  10.118  11.535   0.789
65592SOL    HW198615  10.065  11.586   0.851
65592SOL    HW298616  10.207  11.569   0.799
65593SOL     OW98617   9.413   8.740   5.868
65593SOL    HW198618   9.408   8.782   5.782
65593SOL    HW298619   9.367   8.799   5.927
65594SOL     OW98620   1.825   7.947   3.598
65594SOL    HW198621   1.757   8.012   3.583
65594SOL    HW298622   1.881   7.985   3.666
65595SOL     OW98623   5.814   7.518  13.679
65595SOL    HW198624   5.729   7.530  13.637
65595SOL    HW298625   5.824   7.423  13.686
65596SOL     OW98626  10.608   2.237  12.590
65596SOL    HW198627  10.697   2.264  12.568
65596SOL    HW298628  10.553   2.310  12.563
65597SOL     OW98629   4.593   1.322  14.594
65597SOL    HW198630   4.566   1.345  14.683
65597SOL    HW298631   4.600   1.405  14.549
65598SOL     OW98632   0.987   8.931  14.453
65598SOL    HW198633   1.079   8.937  14.429
65598SOL    HW298634   0.955   8.853  14.408
65599SOL     OW98635  12.216   9.772  11.930
65599SOL    HW198636  12.181   9.685  11.913
65599SOL    HW298637  12.211   9.817  11.845
65600SOL     OW98638   7.241   5.326  12.650
65600SOL    HW198639   7.178   5.399  12.651
65600SOL    HW298640   7.251   5.304  12.557
65601SOL     OW98641  12.188   3.827   3.338
65601SOL    HW198642  12.258   3.884   3.370
65601SOL    HW298643  12.135   3.884   3.282
65602SOL     OW98644   8.476   4.816  13.722
65602SOL    HW198645   8.484   4.911  13.720
65602SOL    HW298646   8.527   4.785  13.647
65603SOL     OW98647   0.721   4.281  12.582
65603SOL    HW198648   0.781   4.237  12.642
65603SOL    HW298649   0.668   4.337  12.638
65604SOL     OW98650  14.726  12.345   9.804
65604SOL    HW198651  14.660  12.284   9.772
65604SOL    HW298652  14.711  12.350   9.899
65605SOL     OW98653  12.946   5.247   6.541
65605SOL    HW198654  12.954   5.201   6.624
65605SOL    HW298655  12.990   5.191   6.478
65606SOL     OW98656  13.962  11.868  11.244
65606SOL    HW198657  13.877  11.846  11.281
65606SOL    HW298658  14.023  11.805  11.283
65607SOL     OW98659   6.648   4.329   1.270
65607SOL    HW198660   6.598   4.409   1.290
65607SOL    HW298661   6.606   4.294   1.192
65608SOL     OW98662  12.842   8.907   7.609
65608SOL    HW198663  12.933   8.908   7.637
65608SOL    HW298664  12.840   8.849   7.533
65609SOL     OW98665  11.536   0.723   1.821
65609SOL    HW198666  11.506   0.640   1.859
65609SOL    HW298667  11.620   0.701   1.781
65610SOL     OW98668   9.960   0.776   6.377
65610SOL    HW198669   9.941   0.831   6.301
65610SOL    HW298670   9.894   0.802   6.442
65611SOL     OW98671   0.204  10.599   0.216
65611SOL    HW198672   0.111  10.591   0.193
65611SOL    HW298673   0.238  10.509   0.213
65612SOL     OW98674  11.270   3.129   5.494
65612SOL    HW198675  11.228   3.052   5.533
65612SOL    HW298676  11.349   3.142   5.547
65613SOL     OW98677   0.794   6.843   0.977
65613SOL    HW198678   0.807   6.915   1.039
65613SOL    HW298679   0.875   6.792   0.982
65614SOL     OW98680   9.311   1.056   8.219
65614SOL    HW198681   9.257   0.979   8.237
65614SOL    HW298682   9.400   1.027   8.240
65615SOL     OW98683  11.548   2.475   9.507
65615SOL    HW198684  11.612   2.403   9.508
65615SOL    HW298685  11.539   2.500   9.599
65616SOL     OW98686   5.627   9.605  11.146
65616SOL    HW198687   5.706   9.575  11.100
65616SOL    HW298688   5.591   9.526  11.185
65617SOL     OW98689  12.591   0.735  11.938
65617SOL    HW198690  12.586   0.673  11.865
65617SOL    HW298691  12.637   0.687  12.007
65618SOL     OW98692   1.100   9.307   0.801
65618SOL    HW198693   1.046   9.357   0.863
65618SOL    HW298694   1.153   9.250   0.857
65619SOL     OW98695   6.900   7.663   2.284
65619SOL    HW198696   6.807   7.682   2.295
65619SOL    HW298697   6.907   7.626   2.196
65620SOL     OW98698   2.099   3.898   7.628
65620SOL    HW198699   2.026   3.844   7.657
65620SOL    HW298700   2.173   3.869   7.681
65621SOL     OW98701  11.003  10.070   7.456
65621SOL    HW198702  11.055   9.992   7.439
65621SOL    HW298703  10.913  10.043   7.436
65622SOL     OW98704   0.959   6.512   9.242
65622SOL    HW198705   1.050   6.484   9.244
65622SOL    HW298706   0.953   6.571   9.167
65623SOL     OW98707  10.221   9.570  13.364
65623SOL    HW198708  10.239   9.663  13.350
65623SOL    HW298709  10.273   9.547  13.442
65624SOL     OW98710   7.447   2.563   2.480
65624SOL    HW198711   7.461   2.600   2.567
65624SOL    HW298712   7.480   2.630   2.420
65625SOL     OW98713   1.396  12.094   0.829
65625SOL    HW198714   1.442  12.027   0.779
65625SOL    HW298715   1.422  12.176   0.788
65626SOL     OW98716   7.703   2.505  14.237
65626SOL    HW198717   7.618   2.547  14.247
65626SOL    HW298718   7.697   2.424  14.287
65627SOL     OW98719  11.558   7.178  13.411
65627SOL    HW198720  11.497   7.111  13.382
65627SOL    HW298721  11.644   7.150  13.379
65628SOL     OW98722  10.479   5.133   3.615
65628SOL    HW198723  10.431   5.191   3.675
65628SOL    HW298724  10.414   5.104   3.552
65629SOL     OW98725  14.168   7.435  12.988
65629SOL    HW198726  14.243   7.383  13.018
65629SOL    HW298727  14.162   7.507  13.051
65630SOL     OW98728  14.459  12.659  14.822
65630SOL    HW198729  14.396  12.663  14.749
65630SOL    HW298730  14.466  12.750  14.852
65631SOL     OW98731   0.995   4.143   4.795
65631SOL    HW198732   0.960   4.231   4.782
65631SOL    HW298733   0.923   4.093   4.832
65632SOL     OW98734   0.266   6.644  14.705
65632SOL    HW198735   0.207   6.579  14.666
65632SOL    HW298736   0.261   6.719  14.645
65633SOL     OW98737   8.452  10.950  12.105
65633SOL    HW198738   8.494  11.035  12.091
65633SOL    HW298739   8.382  10.968  12.167
65634SOL     OW98740  12.827   1.834   5.235
65634SOL    HW198741  12.733   1.827   5.249
65634SOL    HW298742  12.837   1.840   5.140
65635SOL     OW98743   2.283  11.360   4.052
65635SOL    HW198744   2.249  11.449   4.060
65635SOL    HW298745   2.308  11.351   3.960
65636SOL     OW98746  12.096  12.891   4.605
65636SOL    HW198747  12.044  12.967   4.632
65636SOL    HW298748  12.031  12.827   4.577
65637SOL     OW98749  13.730   0.261   9.621
65637SOL    HW198750  13.704   0.349   9.649
65637SOL    HW298751  13.734   0.266   9.525
65638SOL     OW98752  13.244   4.555   3.974
65638SOL    HW198753  13.260   4.589   3.886
65638SOL    HW298754  13.299   4.610   4.031
65639SOL     OW98755  13.658  13.354  10.088
65639SOL    HW198756  13.586  13.305  10.128
65639SOL    HW298757  13.724  13.361  10.157
65640SOL     OW98758   9.394   8.793   1.836
65640SOL    HW198759   9.345   8.844   1.901
65640SOL    HW298760   9.335   8.788   1.761
65641SOL     OW98761   2.837   5.392   9.868
65641SOL    HW198762   2.800   5.342   9.941
65641SOL    HW298763   2.784   5.366   9.792
65642SOL     OW98764   9.186   0.918  13.807
65642SOL    HW198765   9.273   0.953  13.828
65642SOL    HW298766   9.200   0.823  13.804
65643SOL     OW98767   7.890   8.858   0.604
65643SOL    HW198768   7.949   8.804   0.656
65643SOL    HW298769   7.948   8.903   0.542
65644SOL     OW98770  12.080   1.057   4.165
65644SOL    HW198771  12.078   1.098   4.079
65644SOL    HW298772  12.028   1.114   4.221
65645SOL     OW98773  13.941   2.440   8.220
65645SOL    HW198774  14.025   2.468   8.257
65645SOL    HW298775  13.923   2.503   8.150
65646SOL     OW98776  13.892  14.436  12.349
65646SOL    HW198777  13.880  14.507  12.286
65646SOL    HW298778  13.834  14.459  12.422
65647SOL     OW98779   0.756   3.311   8.520
65647SOL    HW198780   0.677   3.283   8.567
65647SOL    HW298781   0.723   3.361   8.446
65648SOL     OW98782  12.138   0.633  13.085
65648SOL    HW198783  12.188   0.707  13.050
65648SOL    HW298784  12.196   0.594  13.151
65649SOL     OW98785   1.404   6.772   8.395
65649SOL    HW198786   1.414   6.867   8.390
65649SOL    HW298787   1.432   6.749   8.484
65650SOL     OW98788  11.734  10.871  13.203
65650SOL    HW198789  11.719  10.916  13.119
65650SOL    HW298790  11.824  10.840  13.197
65651SOL     OW98791   6.907   3.839   1.210
65651SOL    HW198792   6.974   3.818   1.145
65651SOL    HW298793   6.841   3.889   1.162
65652SOL     OW98794   8.721   3.959  10.796
65652SOL    HW198795   8.800   4.012  10.808
65652SOL    HW298796   8.682   3.992  10.715
65653SOL     OW98797   7.359   5.111   5.347
65653SOL    HW198798   7.365   5.131   5.254
65653SOL    HW298799   7.429   5.048   5.363
65654SOL     OW98800   1.766   4.252  10.402
65654SOL    HW198801   1.770   4.347  10.394
65654SOL    HW298802   1.830   4.220  10.338
65655SOL     OW98803   2.973   5.540   5.320
65655SOL    HW198804   2.924   5.588   5.386
65655SOL    HW298805   3.063   5.574   5.328
65656SOL     OW98806   6.929  13.121   7.402
65656SOL    HW198807   7.010  13.071   7.394
65656SOL    HW298808   6.954  13.201   7.447
65657SOL     OW98809   4.274   6.484   0.481
65657SOL    HW198810   4.227   6.474   0.398
65657SOL    HW298811   4.258   6.574   0.507
65658SOL     OW98812   9.351  12.756   6.614
65658SOL    HW198813   9.281  12.694   6.593
65658SOL    HW298814   9.369  12.800   6.530
65659SOL     OW98815   5.458   1.337  13.625
65659SOL    HW198816   5.519   1.263  13.624
65659SOL    HW298817   5.373   1.297  13.642
65660SOL     OW98818   1.888   1.675   8.316
65660SOL    HW198819   1.947   1.746   8.292
65660SOL    HW298820   1.802   1.704   8.288
65661SOL     OW98821   2.654  14.229   3.259
65661SOL    HW198822   2.733  14.263   3.218
65661SOL    HW298823   2.596  14.207   3.186
65662SOL     OW98824  12.393   0.316  14.318
65662SOL    HW198825  12.306   0.336  14.352
65662SOL    HW298826  12.446   0.393  14.339
65663SOL     OW98827   0.305   5.567   9.852
65663SOL    HW198828   0.384   5.536   9.897
65663SOL    HW298829   0.271   5.490   9.807
65664SOL     OW98830   7.013   6.959   7.724
65664SOL    HW198831   6.955   6.884   7.736
65664SOL    HW298832   7.026   6.964   7.629
65665SOL     OW98833   7.093   1.392   5.836
65665SOL    HW198834   7.153   1.411   5.764
65665SOL    HW298835   7.104   1.298   5.851
65666SOL     OW98836   5.311   3.324  13.756
65666SOL    HW198837   5.402   3.295  13.752
65666SOL    HW298838   5.282   3.323  13.664
65667SOL     OW98839  14.257  12.191  10.997
65667SOL    HW198840  14.182  12.133  11.011
65667SOL    HW298841  14.274  12.186  10.903
65668SOL     OW98842  10.164   3.142   7.587
65668SOL    HW198843  10.168   3.136   7.682
65668SOL    HW298844  10.071   3.128   7.567
65669SOL     OW98845   9.948  10.057   8.227
65669SOL    HW198846   9.942  10.086   8.136
65669SOL    HW298847  10.005  10.122   8.269
65670SOL     OW98848   5.481   4.831   2.414
65670SOL    HW198849   5.568   4.793   2.426
65670SOL    HW298850   5.495   4.925   2.424
65671SOL     OW98851   2.571   8.679   8.876
65671SOL    HW198852   2.600   8.770   8.884
65671SOL    HW298853   2.536   8.658   8.962
65672SOL     OW98854   2.300   0.219   4.977
65672SOL    HW198855   2.317   0.313   4.971
65672SOL    HW298856   2.307   0.199   5.070
65673SOL     OW98857   0.181  13.224   0.749
65673SOL    HW198858   0.180  13.129   0.744
65673SOL    HW298859   0.164  13.253   0.660
65674SOL     OW98860   4.081   3.124   0.167
65674SOL    HW198861   4.045   3.077   0.092
65674SOL    HW298862   4.104   3.210   0.132
65675SOL     OW98863  12.212  14.301   4.491
65675SOL    HW198864  12.126  14.309   4.533
65675SOL    HW298865  12.244  14.216   4.519
65676SOL     OW98866  12.198  11.258  11.417
65676SOL    HW198867  12.135  11.265  11.489
65676SOL    HW298868  12.240  11.173  11.431
65677SOL     OW98869   3.798   2.782  13.379
65677SOL    HW198870   3.877   2.785  13.433
65677SOL    HW298871   3.796   2.692  13.345
65678SOL     OW98872   5.132  13.564   2.532
65678SOL    HW198873   5.056  13.505   2.527
65678SOL    HW298874   5.104  13.635   2.589
65679SOL     OW98875   0.251   9.291  11.948
65679SOL    HW198876   0.170   9.332  11.979
65679SOL    HW298877   0.321   9.351  11.976
65680SOL     OW98878  13.531   7.514  10.022
65680SOL    HW198879  13.516   7.455   9.947
65680SOL    HW298880  13.567   7.457  10.090
65681SOL     OW98881  11.657   5.268  13.202
65681SOL    HW198882  11.598   5.311  13.140
65681SOL    HW298883  11.700   5.340  13.248
65682SOL     OW98884  11.732   6.943   0.591
65682SOL    HW198885  11.694   6.857   0.610
65682SOL    HW298886  11.703   6.963   0.502
65683SOL     OW98887   2.784   3.201  12.737
65683SOL    HW198888   2.804   3.252  12.658
65683SOL    HW298889   2.691   3.216  12.751
65684SOL     OW98890   1.948   4.331   9.783
65684SOL    HW198891   1.893   4.290   9.849
65684SOL    HW298892   1.924   4.288   9.701
65685SOL     OW98893   0.775   8.715  11.174
65685SOL    HW198894   0.774   8.797  11.124
65685SOL    HW298895   0.684   8.704  11.203
65686SOL     OW98896  13.030  12.264  11.743
65686SOL    HW198897  13.097  12.268  11.812
65686SOL    HW298898  12.948  12.249  11.790
65687SOL     OW98899   2.878   7.128   6.343
65687SOL    HW198900   2.842   7.206   6.385
65687SOL    HW298901   2.973   7.141   6.344
65688SOL     OW98902  11.211   4.840   5.171
65688SOL    HW198903  11.145   4.909   5.180
65688SOL    HW298904  11.219   4.826   5.077
65689SOL     OW98905   0.091   6.978   1.565
65689SOL    HW198906   0.044   6.977   1.482
65689SOL    HW298907   0.166   6.920   1.551
65690SOL     OW98908   0.950   5.530   6.962
65690SOL    HW198909   0.892   5.466   7.003
65690SOL    HW298910   1.038   5.504   6.990
65691SOL     OW98911   0.582   8.886   1.985
65691SOL    HW198912   0.545   8.803   1.956
65691SOL    HW298913   0.537   8.905   2.067
65692SOL     OW98914  10.406  10.575  13.452
65692SOL    HW198915  10.412  10.671  13.449
65692SOL    HW298916  10.336  10.553  13.392
65693SOL     OW98917  11.498  12.735   1.528
65693SOL    HW198918  11.452  12.654   1.551
65693SOL    HW298919  11.589  12.709   1.518
65694SOL     OW98920   5.717   5.012   4.427
65694SOL    HW198921   5.788   5.021   4.490
65694SOL    HW298922   5.642   5.055   4.469
65695SOL     OW98923   5.763  14.593  13.427
65695SOL    HW198924   5.725  14.658  13.486
65695SOL    HW298925   5.764  14.512  13.478
65696SOL     OW98926   0.548   2.838   0.999
65696SOL    HW198927   0.628   2.822   1.049
65696SOL    HW298928   0.537   2.758   0.947
65697SOL     OW98929   4.743   7.455   5.174
65697SOL    HW198930   4.777   7.420   5.092
65697SOL    HW298931   4.718   7.545   5.153
65698SOL     OW98932   2.738  10.615  14.453
65698SOL    HW198933   2.642  10.614  14.454
65698SOL    HW298934   2.762  10.536  14.405
65699SOL     OW98935   4.352  11.421  12.999
65699SOL    HW198936   4.326  11.481  12.929
65699SOL    HW298937   4.431  11.460  13.036
65700SOL     OW98938   1.194   0.100   1.697
65700SOL    HW198939   1.111   0.131   1.733
65700SOL    HW298940   1.174   0.013   1.662
65701SOL     OW98941   9.346  13.269   0.941
65701SOL    HW198942   9.395  13.209   0.996
65701SOL    HW298943   9.364  13.355   0.976
65702SOL     OW98944   0.199  14.490   5.831
65702SOL    HW198945   0.111  14.512   5.864
65702SOL    HW298946   0.248  14.571   5.839
65703SOL     OW98947   2.107   0.728  11.050
65703SOL    HW198948   2.196   0.698  11.064
65703SOL    HW298949   2.072   0.670  10.982
65704SOL     OW98950   9.665   2.515   1.643
65704SOL    HW198951   9.716   2.558   1.574
65704SOL    HW298952   9.616   2.586   1.684
65705SOL     OW98953  13.496   3.894   8.954
65705SOL    HW198954  13.536   3.944   9.025
65705SOL    HW298955  13.502   3.952   8.878
65706SOL     OW98956   5.238   3.517  14.559
65706SOL    HW198957   5.328   3.523  14.527
65706SOL    HW298958   5.224   3.597  14.610
65707SOL     OW98959  13.256  12.675   6.659
65707SOL    HW198960  13.195  12.633   6.598
65707SOL    HW298961  13.260  12.614   6.733
65708SOL     OW98962   2.647   0.316   8.508
65708SOL    HW198963   2.727   0.364   8.532
65708SOL    HW298964   2.629   0.344   8.419
65709SOL     OW98965  13.989   7.250   1.821
65709SOL    HW198966  13.914   7.223   1.874
65709SOL    HW298967  14.052   7.284   1.885
65710SOL     OW98968   6.815   5.359   6.453
65710SOL    HW198969   6.733   5.407   6.444
65710SOL    HW298970   6.848   5.384   6.540
65711SOL     OW98971   4.337   3.831  14.257
65711SOL    HW198972   4.390   3.881  14.195
65711SOL    HW298973   4.395   3.760  14.284
65712SOL     OW98974   6.339  11.408   9.127
65712SOL    HW198975   6.327  11.319   9.094
65712SOL    HW298976   6.302  11.464   9.059
65713SOL     OW98977   6.643   9.702   2.587
65713SOL    HW198978   6.722   9.683   2.536
65713SOL    HW298979   6.602   9.616   2.600
65714SOL     OW98980  10.858   3.226   6.569
65714SOL    HW198981  10.917   3.302   6.580
65714SOL    HW298982  10.776   3.264   6.538
65715SOL     OW98983  13.812  12.214   5.362
65715SOL    HW198984  13.823  12.152   5.290
65715SOL    HW298985  13.743  12.273   5.332
65716SOL     OW98986  14.288   7.074  12.473
65716SOL    HW198987  14.199   7.069  12.436
65716SOL    HW298988  14.275   7.083  12.567
65717SOL     OW98989   7.585   6.912   2.059
65717SOL    HW198990   7.602   6.960   2.140
65717SOL    HW298991   7.562   6.824   2.088
65718SOL     OW98992  11.293   7.325  12.129
65718SOL    HW198993  11.266   7.322  12.220
65718SOL    HW298994  11.216   7.357  12.082
65719SOL     OW98995  14.424   4.154   2.678
65719SOL    HW198996  14.410   4.159   2.773
65719SOL    HW298997  14.378   4.074   2.651
65720SOL     OW98998  14.374  12.608   8.105
65720SOL    HW198999  14.317  12.638   8.035
65720SOL    HW299000  14.423  12.535   8.067
65721SOL     OW99001  13.042   7.746  12.665
65721SOL    HW199002  13.086   7.829  12.648
65721SOL    HW299003  12.955   7.771  12.696
65722SOL     OW99004   0.392   2.799   5.567
65722SOL    HW199005   0.362   2.803   5.476
65722SOL    HW299006   0.480   2.761   5.562
65723SOL     OW99007  12.767   4.990  12.516
65723SOL    HW199008  12.704   4.919  12.527
65723SOL    HW299009  12.713   5.067  12.496
65724SOL     OW99010   7.808  12.434   4.405
65724SOL    HW199011   7.714  12.431   4.385
65724SOL    HW299012   7.832  12.526   4.392
65725SOL     OW99013  10.646   0.223  14.332
65725SOL    HW199014  10.596   0.298  14.301
65725SOL    HW299015  10.729   0.228  14.285
65726SOL     OW99016   7.148   5.075   6.734
65726SOL    HW199017   7.130   5.084   6.641
65726SOL    HW299018   7.200   4.995   6.741
65727SOL     OW99019  13.489   4.043  12.987
65727SOL    HW199020  13.396   4.065  12.980
65727SOL    HW299021  13.533   4.127  13.002
65728SOL     OW99022  13.825   4.665   7.761
65728SOL    HW199023  13.810   4.628   7.675
65728SOL    HW299024  13.788   4.754   7.756
65729SOL     OW99025   0.971   4.103   6.680
65729SOL    HW199026   0.917   4.146   6.613
65729SOL    HW299027   1.058   4.099   6.642
65730SOL     OW99028   0.178  10.057  13.757
65730SOL    HW199029   0.273  10.048  13.752
65730SOL    HW299030   0.149   9.982  13.808
65731SOL     OW99031   7.562   1.710  13.932
65731SOL    HW199032   7.547   1.803  13.914
65731SOL    HW299033   7.654   1.705  13.958
65732SOL     OW99034   9.470   4.485   4.719
65732SOL    HW199035   9.482   4.391   4.727
65732SOL    HW299036   9.455   4.516   4.808
65733SOL     OW99037   2.205   8.964   4.219
65733SOL    HW199038   2.217   8.881   4.265
65733SOL    HW299039   2.190   9.029   4.288
65734SOL     OW99040   3.792  13.055   9.825
65734SOL    HW199041   3.755  12.971   9.798
65734SOL    HW299042   3.717  13.108   9.849
65735SOL     OW99043   2.219  11.546  10.122
65735SOL    HW199044   2.261  11.610  10.064
65735SOL    HW299045   2.247  11.461  10.089
65736SOL     OW99046   2.694   9.967   9.810
65736SOL    HW199047   2.658   9.878   9.810
65736SOL    HW299048   2.651  10.011   9.737
65737SOL     OW99049   4.573  11.845   4.407
65737SOL    HW199050   4.598  11.937   4.399
65737SOL    HW299051   4.479  11.845   4.389
65738SOL     OW99052   4.959   3.069   7.328
65738SOL    HW199053   4.981   3.017   7.251
65738SOL    HW299054   5.042   3.074   7.377
65739SOL     OW99055   5.720   3.001   9.711
65739SOL    HW199056   5.720   2.932   9.778
65739SOL    HW299057   5.628   3.013   9.689
65740SOL     OW99058  13.882   2.151   1.864
65740SOL    HW199059  13.895   2.234   1.818
65740SOL    HW299060  13.920   2.085   1.805
65741SOL     OW99061   4.081   0.211   4.611
65741SOL    HW199062   4.058   0.237   4.522
65741SOL    HW299063   4.166   0.168   4.603
65742SOL     OW99064   3.418  12.085   0.326
65742SOL    HW199065   3.349  12.093   0.261
65742SOL    HW299066   3.491  12.046   0.278
65743SOL     OW99067  10.331  12.652   3.460
65743SOL    HW199068  10.411  12.696   3.490
65743SOL    HW299069  10.309  12.698   3.379
65744SOL     OW99070   1.519   8.920   6.525
65744SOL    HW199071   1.474   8.888   6.603
65744SOL    HW299072   1.477   9.003   6.504
65745SOL     OW99073   2.409   3.300  12.969
65745SOL    HW199074   2.354   3.356  12.913
65745SOL    HW299075   2.451   3.239  12.907
65746SOL     OW99076   7.221   3.237   3.734
65746SOL    HW199077   7.211   3.228   3.639
65746SOL    HW299078   7.131   3.247   3.766
65747SOL     OW99079   4.422  13.027   5.630
65747SOL    HW199080   4.412  13.118   5.658
65747SOL    HW299081   4.446  12.980   5.710
65748SOL     OW99082  14.132   5.383  12.955
65748SOL    HW199083  14.213   5.426  12.985
65748SOL    HW299084  14.121   5.414  12.866
65749SOL     OW99085   1.997   5.537   9.492
65749SOL    HW199086   2.072   5.553   9.435
65749SOL    HW299087   1.987   5.618   9.542
65750SOL     OW99088   7.452  12.194   5.758
65750SOL    HW199089   7.439  12.107   5.796
65750SOL    HW299090   7.439  12.255   5.831
65751SOL     OW99091   7.732   4.177  14.237
65751SOL    HW199092   7.750   4.243  14.304
65751SOL    HW299093   7.813   4.173  14.185
65752SOL     OW99094   2.920   8.754  13.450
65752SOL    HW199095   3.012   8.781  13.454
65752SOL    HW299096   2.911   8.705  13.368
65753SOL     OW99097   0.053   9.839  13.827
65753SOL    HW199098   0.128   9.788  13.797
65753SOL    HW299099  14.859   9.773  13.845
65754SOL     OW99100   5.269   2.542   1.062
65754SOL    HW199101   5.332   2.559   0.992
65754SOL    HW299102   5.289   2.453   1.091
65755SOL     OW99103   1.769   6.910   6.649
65755SOL    HW199104   1.713   6.988   6.646
65755SOL    HW299105   1.835   6.930   6.715
65756SOL     OW99106   3.124   7.571  10.195
65756SOL    HW199107   3.135   7.598  10.104
65756SOL    HW299108   3.037   7.605  10.219
65757SOL     OW99109  12.653  14.517  13.077
65757SOL    HW199110  12.592  14.445  13.058
65757SOL    HW299111  12.728  14.474  13.118
65758SOL     OW99112   9.186   4.995   1.796
65758SOL    HW199113   9.257   4.946   1.755
65758SOL    HW299114   9.226   5.079   1.820
65759SOL     OW99115   7.376  10.794   8.501
65759SOL    HW199116   7.425  10.715   8.480
65759SOL    HW299117   7.333  10.775   8.584
65760SOL     OW99118   6.507   0.123  14.414
65760SOL    HW199119   6.559   0.189  14.368
65760SOL    HW299120   6.510   0.046  14.357
65761SOL     OW99121  11.959  10.661  14.128
65761SOL    HW199122  11.986  10.659  14.037
65761SOL    HW299123  11.943  10.754  14.146
65762SOL     OW99124   5.664  11.964   7.886
65762SOL    HW199125   5.654  11.968   7.982
65762SOL    HW299126   5.603  11.895   7.859
65763SOL     OW99127   8.487   7.561   5.851
65763SOL    HW199128   8.480   7.466   5.865
65763SOL    HW299129   8.559   7.571   5.789
65764SOL     OW99130  13.975   7.787   5.618
65764SOL    HW199131  13.962   7.751   5.530
65764SOL    HW299132  13.917   7.863   5.621
65765SOL     OW99133   4.024   3.883  14.784
65765SOL    HW199134   4.058   3.802  14.747
65765SOL    HW299135   3.929   3.874  14.778
65766SOL     OW99136   0.238   1.202   8.818
65766SOL    HW199137   0.168   1.153   8.861
65766SOL    HW299138   0.319   1.164   8.851
65767SOL     OW99139   1.223   4.665  14.192
65767SOL    HW199140   1.275   4.741  14.218
65767SOL    HW299141   1.283   4.611  14.141
65768SOL     OW99142   3.225  11.336   7.224
65768SOL    HW199143   3.174  11.309   7.148
65768SOL    HW299144   3.308  11.366   7.187
65769SOL     OW99145   3.221   5.320  12.133
65769SOL    HW199146   3.258   5.408  12.127
65769SOL    HW299147   3.215   5.302  12.227
65770SOL     OW99148  12.698   0.411   5.650
65770SOL    HW199149  12.736   0.393   5.736
65770SOL    HW299150  12.773   0.409   5.590
65771SOL     OW99151  12.617  10.942   5.204
65771SOL    HW199152  12.648  10.890   5.130
65771SOL    HW299153  12.599  10.878   5.273
65772SOL     OW99154  11.770   1.715   9.538
65772SOL    HW199155  11.800   1.777   9.605
65772SOL    HW299156  11.809   1.747   9.456
65773SOL     OW99157  11.096   1.315  10.514
65773SOL    HW199158  11.136   1.246  10.462
65773SOL    HW299159  11.017   1.339  10.467
65774SOL     OW99160   8.964   1.257  12.197
65774SOL    HW199161   9.045   1.297  12.227
65774SOL    HW299162   8.896   1.322  12.216
65775SOL     OW99163   4.127   1.815   4.264
65775SOL    HW199164   4.175   1.837   4.184
65775SOL    HW299165   4.107   1.721   4.255
65776SOL     OW99166   6.048  12.986   6.299
65776SOL    HW199167   5.954  12.988   6.318
65776SOL    HW299168   6.064  12.899   6.262
65777SOL     OW99169  11.222  14.163   5.716
65777SOL    HW199170  11.258  14.251   5.730
65777SOL    HW299171  11.198  14.133   5.804
65778SOL     OW99172   1.823   6.090   4.136
65778SOL    HW199173   1.808   6.064   4.045
65778SOL    HW299174   1.819   6.008   4.185
65779SOL     OW99175  10.869   2.968   6.725
65779SOL    HW199176  10.928   3.042   6.734
65779SOL    HW299177  10.781   3.006   6.736
65780SOL     OW99178   6.889   5.440   6.710
65780SOL    HW199179   6.960   5.395   6.756
65780SOL    HW299180   6.909   5.533   6.719
65781SOL     OW99181   4.384   4.920  12.483
65781SOL    HW199182   4.350   4.836  12.512
65781SOL    HW299183   4.402   4.969  12.563
65782SOL     OW99184   4.017  11.834  14.224
65782SOL    HW199185   4.009  11.844  14.318
65782SOL    HW299186   3.949  11.890  14.187
65783SOL     OW99187  13.460   2.197  11.209
65783SOL    HW199188  13.406   2.118  11.206
65783SOL    HW299189  13.440   2.236  11.294
65784SOL     OW99190   4.035   7.768   8.290
65784SOL    HW199191   4.068   7.854   8.263
65784SOL    HW299192   4.049   7.766   8.385
65785SOL     OW99193   6.722  14.505   9.114
65785SOL    HW199194   6.632  14.496   9.146
65785SOL    HW299195   6.776  14.501   9.194
65786SOL     OW99196   8.945   1.209   8.483
65786SOL    HW199197   8.904   1.285   8.524
65786SOL    HW299198   8.998   1.246   8.412
65787SOL     OW99199   6.978   8.039   6.413
65787SOL    HW199200   6.972   7.958   6.464
65787SOL    HW299201   6.905   8.092   6.444
65788SOL     OW99202   7.990   9.882   9.406
65788SOL    HW199203   7.922   9.919   9.350
65788SOL    HW299204   8.069   9.884   9.351
65789SOL     OW99205   3.229   7.929   8.658
65789SOL    HW199206   3.212   7.896   8.746
65789SOL    HW299207   3.284   7.862   8.617
65790SOL     OW99208   3.975   1.358   8.013
65790SOL    HW199209   3.976   1.452   7.993
65790SOL    HW299210   3.887   1.343   8.048
65791SOL     OW99211  13.427   6.187   7.022
65791SOL    HW199212  13.357   6.219   7.080
65791SOL    HW299213  13.500   6.247   7.038
65792SOL     OW99214  14.495   5.412   8.975
65792SOL    HW199215  14.452   5.414   8.890
65792SOL    HW299216  14.483   5.322   9.006
65793SOL     OW99217   0.688  13.734  13.481
65793SOL    HW199218   0.730  13.818  13.467
65793SOL    HW299219   0.751  13.670  13.450
65794SOL     OW99220   2.879  13.098   7.149
65794SOL    HW199221   2.906  13.117   7.059
65794SOL    HW299222   2.846  13.182   7.182
65795SOL     OW99223   9.863  10.112  12.444
65795SOL    HW199224   9.800  10.121  12.515
65795SOL    HW299225   9.819  10.151  12.368
65796SOL     OW99226  13.226   6.961   8.655
65796SOL    HW199227  13.166   7.035   8.641
65796SOL    HW299228  13.313   6.999   8.641
65797SOL     OW99229  11.685   6.871  12.381
65797SOL    HW199230  11.611   6.811  12.376
65797SOL    HW299231  11.646   6.958  12.389
65798SOL     OW99232   5.710   0.137  13.586
65798SOL    HW199233   5.749   0.223  13.568
65798SOL    HW299234   5.696   0.137  13.681
65799SOL     OW99235  13.228   3.521  10.464
65799SOL    HW199236  13.147   3.477  10.437
65799SOL    HW299237  13.275   3.455  10.516
65800SOL     OW99238  11.856   3.823   8.736
65800SOL    HW199239  11.930   3.789   8.686
65800SOL    HW299240  11.834   3.906   8.692
65801SOL     OW99241   8.003  10.402   7.958
65801SOL    HW199242   7.996  10.424   8.050
65801SOL    HW299243   8.093  10.426   7.934
65802SOL     OW99244   3.171   1.622   2.362
65802SOL    HW199245   3.203   1.704   2.323
65802SOL    HW299246   3.250   1.575   2.387
65803SOL     OW99247   8.938  11.837  10.394
65803SOL    HW199248   9.012  11.895  10.414
65803SOL    HW299249   8.975  11.749  10.397
65804SOL     OW99250   7.605   5.433   2.581
65804SOL    HW199251   7.594   5.374   2.506
65804SOL    HW299252   7.525   5.420   2.633
65805SOL     OW99253  13.005   2.974  11.467
65805SOL    HW199254  13.041   2.892  11.501
65805SOL    HW299255  13.059   2.995  11.391
65806SOL     OW99256   7.819  13.500   6.137
65806SOL    HW199257   7.756  13.443   6.181
65806SOL    HW299258   7.833  13.573   6.198
65807SOL     OW99259   7.509  14.766   1.496
65807SOL    HW199260   7.502  14.721   1.412
65807SOL    HW299261   7.453  14.843   1.487
65808SOL     OW99262   3.792   0.394   4.039
65808SOL    HW199263   3.852   0.324   4.066
65808SOL    HW299264   3.841   0.474   4.053
65809SOL     OW99265   2.034   5.994   2.059
65809SOL    HW199266   2.055   6.057   2.127
65809SOL    HW299267   2.101   5.926   2.067
65810SOL     OW99268   5.188   8.131   7.096
65810SOL    HW199269   5.183   8.226   7.108
65810SOL    HW299270   5.106   8.108   7.051
65811SOL     OW99271  14.080  14.127   8.378
65811SOL    HW199272  14.134  14.167   8.311
65811SOL    HW299273  14.015  14.195   8.401
65812SOL     OW99274   6.697   8.157   9.112
65812SOL    HW199275   6.709   8.226   9.047
65812SOL    HW299276   6.785   8.142   9.148
65813SOL     OW99277   2.965  14.470  12.219
65813SOL    HW199278   2.998  14.513  12.141
65813SOL    HW299279   2.877  14.441  12.196
65814SOL     OW99280   9.168   1.611  13.478
65814SOL    HW199281   9.249   1.653  13.506
65814SOL    HW299282   9.124   1.676  13.423
65815SOL     OW99283   2.716   9.299   0.090
65815SOL    HW199284   2.626   9.323   0.066
65815SOL    HW299285   2.719   9.204   0.075
65816SOL     OW99286   5.011   0.739   8.584
65816SOL    HW199287   5.052   0.751   8.499
65816SOL    HW299288   5.072   0.781   8.646
65817SOL     OW99289   8.713   3.838   4.763
65817SOL    HW199290   8.769   3.827   4.686
65817SOL    HW299291   8.769   3.884   4.826
65818SOL     OW99292  10.572   7.166  11.146
65818SOL    HW199293  10.559   7.239  11.085
65818SOL    HW299294  10.568   7.206  11.232
65819SOL     OW99295  12.560   8.608   1.306
65819SOL    HW199296  12.630   8.664   1.338
65819SOL    HW299297  12.595   8.569   1.226
65820SOL     OW99298   7.988   6.582   1.793
65820SOL    HW199299   7.896   6.570   1.773
65820SOL    HW299300   8.031   6.582   1.707
65821SOL     OW99301  11.724   8.212   6.882
65821SOL    HW199302  11.680   8.187   6.963
65821SOL    HW299303  11.696   8.145   6.819
65822SOL     OW99304  11.499   3.454  11.346
65822SOL    HW199305  11.491   3.363  11.316
65822SOL    HW299306  11.547   3.498  11.276
65823SOL     OW99307  12.302  14.661  14.549
65823SOL    HW199308  12.305  14.755  14.532
65823SOL    HW299309  12.214  14.635  14.521
65824SOL     OW99310  13.661   6.691   4.508
65824SOL    HW199311  13.755   6.675   4.507
65824SOL    HW299312  13.648   6.756   4.576
65825SOL     OW99313   2.686  13.859   3.222
65825SOL    HW199314   2.773  13.897   3.224
65825SOL    HW299315   2.647  13.891   3.140
65826SOL     OW99316   3.878  14.534   4.792
65826SOL    HW199317   3.838  14.600   4.849
65826SOL    HW299318   3.968  14.526   4.824
65827SOL     OW99319   6.937   4.418   8.531
65827SOL    HW199320   6.986   4.500   8.528
65827SOL    HW299321   6.938   4.393   8.623
65828SOL     OW99322   7.054   5.714   6.941
65828SOL    HW199323   7.007   5.797   6.934
65828SOL    HW299324   7.033   5.681   7.028
65829SOL     OW99325  11.145  14.282   7.763
65829SOL    HW199326  11.122  14.240   7.846
65829SOL    HW299327  11.234  14.252   7.745
65830SOL     OW99328   9.512  11.055   5.307
65830SOL    HW199329   9.474  11.073   5.393
65830SOL    HW299330   9.515  10.960   5.301
65831SOL     OW99331   9.461   4.704  11.938
65831SOL    HW199332   9.482   4.610  11.940
65831SOL    HW299333   9.511   4.741  12.011
65832SOL     OW99334   2.333   4.414   0.391
65832SOL    HW199335   2.242   4.440   0.406
65832SOL    HW299336   2.340   4.406   0.296
65833SOL     OW99337  14.574   0.642   3.216
65833SOL    HW199338  14.652   0.644   3.271
65833SOL    HW299339  14.578   0.723   3.165
65834SOL     OW99340   9.407  13.269   5.916
65834SOL    HW199341   9.395  13.359   5.947
65834SOL    HW299342   9.325  13.225   5.941
65835SOL     OW99343  14.324   5.084   4.469
65835SOL    HW199344  14.273   5.075   4.388
65835SOL    HW299345  14.367   5.169   4.461
65836SOL     OW99346   5.228  14.794   2.329
65836SOL    HW199347   5.223  14.789   2.234
65836SOL    HW299348   5.314  14.833   2.346
65837SOL     OW99349  11.227  14.671   5.174
65837SOL    HW199350  11.171  14.605   5.214
65837SOL    HW299351  11.299  14.682   5.236
65838SOL     OW99352   1.120  14.557   7.373
65838SOL    HW199353   1.182  14.630   7.378
65838SOL    HW299354   1.039  14.590   7.411
65839SOL     OW99355   9.270   9.946   4.222
65839SOL    HW199356   9.233  10.024   4.181
65839SOL    HW299357   9.324   9.906   4.153
65840SOL     OW99358   6.746  12.049  10.977
65840SOL    HW199359   6.745  12.144  10.962
65840SOL    HW299360   6.732  12.040  11.071
65841SOL     OW99361   6.090  12.170   3.980
65841SOL    HW199362   6.100  12.086   3.936
65841SOL    HW299363   6.103  12.151   4.073
65842SOL     OW99364   9.119   9.983  12.330
65842SOL    HW199365   9.135   9.915  12.265
65842SOL    HW299366   9.097  10.061  12.279
65843SOL     OW99367   3.529   5.025   7.614
65843SOL    HW199368   3.609   5.011   7.564
65843SOL    HW299369   3.517   5.120   7.613
65844SOL     OW99370   1.645   0.340  13.854
65844SOL    HW199371   1.687   0.406  13.909
65844SOL    HW299372   1.590   0.289  13.914
65845SOL     OW99373  14.150   0.862   5.393
65845SOL    HW199374  14.119   0.773   5.409
65845SOL    HW299375  14.239   0.850   5.358
65846SOL     OW99376   6.245   0.677   3.465
65846SOL    HW199377   6.154   0.697   3.489
65846SOL    HW299378   6.242   0.587   3.433
65847SOL     OW99379   2.913   4.608   9.877
65847SOL    HW199380   2.985   4.628   9.818
65847SOL    HW299381   2.837   4.651   9.837
65848SOL     OW99382   4.730   8.209  12.946
65848SOL    HW199383   4.822   8.188  12.962
65848SOL    HW299384   4.722   8.211  12.851
65849SOL     OW99385   5.813  11.019   3.096
65849SOL    HW199386   5.720  11.026   3.075
65849SOL    HW299387   5.849  10.963   3.028
65850SOL     OW99388   2.121   3.148  10.257
65850SOL    HW199389   2.139   3.099  10.337
65850SOL    HW299390   2.207   3.177  10.226
65851SOL     OW99391  10.091  11.252   8.265
65851SOL    HW199392  10.052  11.183   8.211
65851SOL    HW299393  10.084  11.331   8.212
65852SOL     OW99394   8.034   1.955   2.133
65852SOL    HW199395   8.021   1.930   2.042
65852SOL    HW299396   8.088   1.886   2.170
65853SOL     OW99397   7.141   8.139   3.367
65853SOL    HW199398   7.204   8.075   3.334
65853SOL    HW299399   7.194   8.215   3.392
65854SOL     OW99400   7.326  12.604   7.811
65854SOL    HW199401   7.405  12.642   7.773
65854SOL    HW299402   7.255  12.636   7.756
65855SOL     OW99403  12.286  12.513  12.316
65855SOL    HW199404  12.244  12.460  12.248
65855SOL    HW299405  12.329  12.584  12.269
65856SOL     OW99406   2.300  10.440  12.043
65856SOL    HW199407   2.325  10.361  11.997
65856SOL    HW299408   2.228  10.477  11.991
65857SOL     OW99409   6.211   6.586   9.882
65857SOL    HW199410   6.138   6.643   9.904
65857SOL    HW299411   6.289   6.639   9.900
65858SOL     OW99412   0.337   4.960   1.255
65858SOL    HW199413   0.363   4.992   1.341
65858SOL    HW299414   0.375   4.872   1.250
65859SOL     OW99415   1.882  10.556   7.279
65859SOL    HW199416   1.860  10.534   7.189
65859SOL    HW299417   1.804  10.600   7.313
65860SOL     OW99418  14.293   5.319   4.146
65860SOL    HW199419  14.315   5.327   4.053
65860SOL    HW299420  14.202   5.349   4.151
65861SOL     OW99421  14.818   9.325   7.817
65861SOL    HW199422   0.009   9.359   7.756
65861SOL    HW299423  14.774   9.402   7.853
65862SOL     OW99424   9.348   8.776  14.129
65862SOL    HW199425   9.406   8.723  14.074
65862SOL    HW299426   9.402   8.849  14.158
65863SOL     OW99427   9.290   2.596   6.736
65863SOL    HW199428   9.322   2.574   6.648
65863SOL    HW299429   9.201   2.559   6.739
65864SOL     OW99430   7.333   4.590   2.184
65864SOL    HW199431   7.428   4.595   2.193
65864SOL    HW299432   7.305   4.527   2.251
65865SOL     OW99433   7.167   2.037   9.657
65865SOL    HW199434   7.164   2.051   9.751
65865SOL    HW299435   7.099   1.970   9.641
65866SOL     OW99436  12.282   3.742   2.640
65866SOL    HW199437  12.292   3.699   2.725
65866SOL    HW299438  12.279   3.835   2.660
65867SOL     OW99439   2.500   3.188  12.722
65867SOL    HW199440   2.466   3.113  12.672
65867SOL    HW299441   2.492   3.262  12.662
65868SOL     OW99442   1.035   5.514   5.990
65868SOL    HW199443   1.003   5.566   5.916
65868SOL    HW299444   1.086   5.575   6.043
65869SOL     OW99445   2.351   9.497  10.184
65869SOL    HW199446   2.346   9.420  10.128
65869SOL    HW299447   2.305   9.566  10.136
65870SOL     OW99448   8.305   0.014   4.381
65870SOL    HW199449   8.286   0.095   4.335
65870SOL    HW299450   8.324  14.823   4.313
65871SOL     OW99451   7.790  13.930   0.741
65871SOL    HW199452   7.796  13.835   0.746
65871SOL    HW299453   7.773  13.958   0.831
65872SOL     OW99454   2.514   7.644   4.499
65872SOL    HW199455   2.549   7.555   4.487
65872SOL    HW299456   2.544   7.670   4.586
65873SOL     OW99457   5.515  12.610   7.405
65873SOL    HW199458   5.502  12.519   7.432
65873SOL    HW299459   5.597  12.610   7.355
65874SOL     OW99460  12.485   7.805   5.749
65874SOL    HW199461  12.574   7.840   5.749
65874SOL    HW299462  12.446   7.838   5.830
65875SOL     OW99463   7.137   2.419   1.312
65875SOL    HW199464   7.104   2.444   1.226
65875SOL    HW299465   7.086   2.472   1.373
65876SOL     OW99466  13.390   5.770   4.786
65876SOL    HW199467  13.307   5.783   4.832
65876SOL    HW299468  13.436   5.703   4.836
65877SOL     OW99469   4.588   1.045  13.291
65877SOL    HW199470   4.509   1.096  13.275
65877SOL    HW299471   4.640   1.099  13.351
65878SOL     OW99472   3.527  13.705   4.253
65878SOL    HW199473   3.504  13.676   4.342
65878SOL    HW299474   3.623  13.702   4.251
65879SOL     OW99475   5.525   3.504  11.829
65879SOL    HW199476   5.617   3.483  11.840
65879SOL    HW299477   5.486   3.425  11.792
65880SOL     OW99478   4.235   9.953   6.683
65880SOL    HW199479   4.241  10.046   6.705
65880SOL    HW299480   4.245   9.909   6.768
65881SOL     OW99481   8.937   0.561   7.799
65881SOL    HW199482   8.934   0.536   7.706
65881SOL    HW299483   8.987   0.491   7.841
65882SOL     OW99484   7.390   5.482   2.121
65882SOL    HW199485   7.340   5.559   2.094
65882SOL    HW299486   7.445   5.461   2.046
65883SOL     OW99487  10.805  13.605   4.993
65883SOL    HW199488  10.866  13.655   5.047
65883SOL    HW299489  10.772  13.668   4.929
65884SOL     OW99490   8.231   8.802   2.795
65884SOL    HW199491   8.282   8.854   2.733
65884SOL    HW299492   8.282   8.722   2.808
65885SOL     OW99493  12.550  12.029   6.268
65885SOL    HW199494  12.461  12.055   6.243
65885SOL    HW299495  12.550  11.934   6.261
65886SOL     OW99496   4.279   6.735   8.543
65886SOL    HW199497   4.201   6.755   8.492
65886SOL    HW299498   4.254   6.755   8.634
65887SOL     OW99499   4.579  14.180  10.401
65887SOL    HW199500   4.586  14.207  10.493
65887SOL    HW299501   4.637  14.104  10.393
65888SOL     OW99502   9.119   1.821  13.273
65888SOL    HW199503   9.028   1.799  13.255
65888SOL    HW299504   9.145   1.875  13.198
65889SOL     OW99505  13.773   3.553  11.756
65889SOL    HW199506  13.830   3.494  11.806
65889SOL    HW299507  13.825   3.579  11.680
65890SOL     OW99508  10.381  11.396   0.438
65890SOL    HW199509  10.476  11.388   0.448
65890SOL    HW299510  10.347  11.374   0.525
65891SOL     OW99511  11.552  10.352   3.822
65891SOL    HW199512  11.518  10.435   3.789
65891SOL    HW299513  11.647  10.362   3.818
65892SOL     OW99514  11.832   5.778   2.696
65892SOL    HW199515  11.905   5.720   2.718
65892SOL    HW299516  11.874   5.860   2.672
65893SOL     OW99517  11.057  11.389  12.754
65893SOL    HW199518  11.055  11.294  12.741
65893SOL    HW299519  11.149  11.409  12.770
65894SOL     OW99520   8.524  11.440   7.122
65894SOL    HW199521   8.456  11.383   7.158
65894SOL    HW299522   8.491  11.466   7.036
65895SOL     OW99523   0.394   3.648  14.490
65895SOL    HW199524   0.362   3.658  14.400
65895SOL    HW299525   0.362   3.725  14.536
65896SOL     OW99526   6.106   2.258   8.787
65896SOL    HW199527   6.189   2.305   8.790
65896SOL    HW299528   6.113   2.202   8.709
65897SOL     OW99529  10.746  12.917   8.621
65897SOL    HW199530  10.717  12.855   8.689
65897SOL    HW299531  10.677  12.983   8.618
65898SOL     OW99532  14.756  14.514  14.358
65898SOL    HW199533  14.777  14.427  14.391
65898SOL    HW299534  14.722  14.562  14.434
65899SOL     OW99535   1.072  13.038   6.172
65899SOL    HW199536   1.039  13.001   6.253
65899SOL    HW299537   1.166  13.050   6.188
65900SOL     OW99538  12.817   7.369   8.966
65900SOL    HW199539  12.885   7.365   8.900
65900SOL    HW299540  12.824   7.457   9.002
65901SOL     OW99541  10.009   7.588   4.738
65901SOL    HW199542   9.962   7.620   4.661
65901SOL    HW299543  10.093   7.557   4.703
65902SOL     OW99544   4.829  11.832   1.073
65902SOL    HW199545   4.841  11.895   1.144
65902SOL    HW299546   4.759  11.869   1.019
65903SOL     OW99547   6.753   8.544  12.295
65903SOL    HW199548   6.659   8.533  12.309
65903SOL    HW299549   6.764   8.638  12.278
65904SOL     OW99550   8.619  10.075   6.608
65904SOL    HW199551   8.710  10.097   6.626
65904SOL    HW299552   8.613  10.071   6.512
65905SOL     OW99553  10.661   3.383   5.974
65905SOL    HW199554  10.704   3.464   5.947
65905SOL    HW299555  10.732   3.328   6.009
65906SOL     OW99556   0.023   6.174   8.669
65906SOL    HW199557   0.098   6.195   8.614
65906SOL    HW299558  14.825   6.155   8.608
65907SOL     OW99559   5.560  12.683   2.148
65907SOL    HW199560   5.561  12.768   2.191
65907SOL    HW299561   5.491  12.691   2.082
65908SOL     OW99562   7.337   4.635   7.362
65908SOL    HW199563   7.316   4.719   7.322
65908SOL    HW299564   7.265   4.619   7.423
65909SOL     OW99565   3.670   4.406   9.344
65909SOL    HW199566   3.682   4.485   9.396
65909SOL    HW299567   3.576   4.405   9.324
65910SOL     OW99568   0.607   4.281  12.974
65910SOL    HW199569   0.531   4.307  13.026
65910SOL    HW299570   0.679   4.334  13.008
65911SOL     OW99571  13.675   9.338   0.184
65911SOL    HW199572  13.689   9.291   0.101
65911SOL    HW299573  13.757   9.383   0.201
65912SOL     OW99574   2.118   1.137   1.380
65912SOL    HW199575   2.059   1.167   1.448
65912SOL    HW299576   2.129   1.043   1.397
65913SOL     OW99577   0.830   6.323  13.163
65913SOL    HW199578   0.916   6.348  13.196
65913SOL    HW299579   0.799   6.257  13.225
65914SOL     OW99580   9.820   2.598  10.043
65914SOL    HW199581   9.806   2.503  10.043
65914SOL    HW299582   9.816   2.623  10.136
65915SOL     OW99583  11.356  10.855   3.866
65915SOL    HW199584  11.341  10.911   3.790
65915SOL    HW299585  11.274  10.860   3.915
65916SOL     OW99586   8.274   0.728   0.082
65916SOL    HW199587   8.250   0.813   0.119
65916SOL    HW299588   8.318   0.682   0.154
65917SOL     OW99589   9.182   4.665   4.140
65917SOL    HW199590   9.167   4.584   4.091
65917SOL    HW299591   9.094   4.700   4.157
65918SOL     OW99592   0.496  10.574   4.695
65918SOL    HW199593   0.434  10.557   4.625
65918SOL    HW299594   0.575  10.526   4.669
65919SOL     OW99595   0.070   8.411   7.259
65919SOL    HW199596  14.851   8.385   7.259
65919SOL    HW299597   0.068   8.504   7.238
65920SOL     OW99598   4.436   9.558   4.593
65920SOL    HW199599   4.468   9.646   4.573
65920SOL    HW299600   4.511   9.512   4.630
65921SOL     OW99601   6.186   6.247   0.397
65921SOL    HW199602   6.177   6.289   0.483
65921SOL    HW299603   6.101   6.206   0.381
65922SOL     OW99604  14.266  12.880  13.915
65922SOL    HW199605  14.317  12.955  13.884
65922SOL    HW299606  14.176  12.911  13.916
65923SOL     OW99607  10.096  12.895   1.140
65923SOL    HW199608  10.129  12.816   1.098
65923SOL    HW299609  10.042  12.938   1.073
65924SOL     OW99610   6.406   9.182   5.855
65924SOL    HW199611   6.499   9.199   5.840
65924SOL    HW299612   6.404   9.089   5.880
65925SOL     OW99613  14.647  11.635   7.421
65925SOL    HW199614  14.575  11.635   7.485
65925SOL    HW299615  14.648  11.724   7.386
65926SOL     OW99616   1.626   5.658  12.748
65926SOL    HW199617   1.718   5.652  12.723
65926SOL    HW299618   1.577   5.639  12.668
65927SOL     OW99619  10.913  13.448  11.868
65927SOL    HW199620  10.965  13.477  11.943
65927SOL    HW299621  10.824  13.444  11.902
65928SOL     OW99622  14.783  13.080   1.778
65928SOL    HW199623  14.780  13.169   1.743
65928SOL    HW299624  14.718  13.032   1.727
65929SOL     OW99625   1.139   6.503   0.955
65929SOL    HW199626   1.090   6.492   1.036
65929SOL    HW299627   1.136   6.416   0.914
65930SOL     OW99628  12.686   3.724   6.361
65930SOL    HW199629  12.776   3.752   6.377
65930SOL    HW299630  12.671   3.655   6.426
65931SOL     OW99631   2.214   3.802   9.968
65931SOL    HW199632   2.178   3.870   9.911
65931SOL    HW299633   2.192   3.720   9.924
65932SOL     OW99634  12.821   2.575  14.556
65932SOL    HW199635  12.798   2.617  14.473
65932SOL    HW299636  12.804   2.482  14.541
65933SOL     OW99637   1.880  11.200  14.361
65933SOL    HW199638   1.972  11.224  14.349
65933SOL    HW299639   1.882  11.110  14.392
65934SOL     OW99640  14.843   9.882   3.335
65934SOL    HW199641  14.858   9.795   3.370
65934SOL    HW299642  14.846   9.940   3.411
65935SOL     OW99643   8.857  13.256  13.474
65935SOL    HW199644   8.872  13.347  13.446
65935SOL    HW299645   8.936  13.210  13.447
65936SOL     OW99646   0.921  10.282  10.912
65936SOL    HW199647   0.996  10.321  10.869
65936SOL    HW299648   0.948  10.191  10.929
65937SOL     OW99649   8.275  13.029  14.291
65937SOL    HW199650   8.281  12.933  14.289
65937SOL    HW299651   8.320  13.057  14.211
65938SOL     OW99652   1.020  11.958  10.395
65938SOL    HW199653   0.965  11.881  10.410
65938SOL    HW299654   0.979  12.028  10.446
65939SOL     OW99655   2.548  12.418   3.829
65939SOL    HW199656   2.624  12.459   3.869
65939SOL    HW299657   2.585  12.353   3.769
65940SOL     OW99658   1.759   8.999   4.123
65940SOL    HW199659   1.783   8.953   4.204
65940SOL    HW299660   1.820   9.072   4.118
65941SOL     OW99661   1.805   7.601   3.046
65941SOL    HW199662   1.728   7.563   3.003
65941SOL    HW299663   1.864   7.527   3.059
65942SOL     OW99664   9.964  10.133  13.833
65942SOL    HW199665   9.899  10.117  13.765
65942SOL    HW299666   9.958  10.226  13.852
65943SOL     OW99667  11.321  10.663   6.045
65943SOL    HW199668  11.237  10.677   6.089
65943SOL    HW299669  11.303  10.678   5.953
65944SOL     OW99670   6.479  13.403  14.360
65944SOL    HW199671   6.481  13.489  14.403
65944SOL    HW299672   6.388  13.375  14.366
65945SOL     OW99673   5.110   8.540  14.862
65945SOL    HW199674   5.173   8.543   0.061
65945SOL    HW299675   5.130   8.459  14.816
65946SOL     OW99676  11.201   3.491  14.091
65946SOL    HW199677  11.265   3.533  14.034
65946SOL    HW299678  11.140   3.448  14.032
65947SOL     OW99679  10.023   1.201  13.580
65947SOL    HW199680  10.108   1.217  13.538
65947SOL    HW299681  10.038   1.126  13.638
65948SOL     OW99682   6.175   2.259   8.242
65948SOL    HW199683   6.179   2.287   8.333
65948SOL    HW299684   6.150   2.337   8.193
65949SOL     OW99685   2.507  13.439  10.488
65949SOL    HW199686   2.433  13.482  10.531
65949SOL    HW299687   2.556  13.511  10.448
65950SOL     OW99688   0.371   8.018  12.648
65950SOL    HW199689   0.456   8.007  12.607
65950SOL    HW299690   0.315   7.952  12.607
65951SOL     OW99691   9.317   9.782   7.665
65951SOL    HW199692   9.304   9.745   7.578
65951SOL    HW299693   9.304   9.877   7.653
65952SOL     OW99694   0.859   5.175   2.476
65952SOL    HW199695   0.893   5.167   2.386
65952SOL    HW299696   0.907   5.249   2.513
65953SOL     OW99697  12.368   8.915  14.819
65953SOL    HW199698  12.280   8.925  14.855
65953SOL    HW299699  12.406   9.002  14.824
65954SOL     OW99700   2.163   2.779   3.768
65954SOL    HW199701   2.191   2.699   3.814
65954SOL    HW299702   2.092   2.814   3.823
65955SOL     OW99703   0.706  14.534  11.963
65955SOL    HW199704   0.775  14.474  11.991
65955SOL    HW299705   0.751  14.602  11.913
65956SOL     OW99706   9.536   8.858  12.770
65956SOL    HW199707   9.486   8.933  12.738
65956SOL    HW299708   9.589   8.894  12.842
65957SOL     OW99709   7.169   5.153  13.989
65957SOL    HW199710   7.087   5.113  14.018
65957SOL    HW299711   7.232   5.130  14.057
65958SOL     OW99712  12.131   2.631   2.525
65958SOL    HW199713  12.097   2.550   2.563
65958SOL    HW299714  12.141   2.611   2.432
65959SOL     OW99715  13.979   4.289   3.747
65959SOL    HW199716  13.947   4.223   3.808
65959SOL    HW299717  13.936   4.269   3.664
65960SOL     OW99718   8.609   6.973   1.829
65960SOL    HW199719   8.615   7.062   1.795
65960SOL    HW299720   8.589   6.919   1.752
65961SOL     OW99721  12.897   0.535   9.913
65961SOL    HW199722  12.989   0.515   9.895
65961SOL    HW299723  12.900   0.593   9.989
65962SOL     OW99724  12.857   5.877   2.590
65962SOL    HW199725  12.769   5.849   2.614
65962SOL    HW299726  12.875   5.952   2.648
65963SOL     OW99727   6.843  13.222   2.940
65963SOL    HW199728   6.916  13.165   2.918
65963SOL    HW299729   6.873  13.310   2.916
65964SOL     OW99730   8.262  11.151   1.785
65964SOL    HW199731   8.223  11.069   1.816
65964SOL    HW299732   8.335  11.123   1.730
65965SOL     OW99733   2.339   7.764   4.110
65965SOL    HW199734   2.280   7.693   4.136
65965SOL    HW299735   2.418   7.749   4.161
65966SOL     OW99736  10.904   1.442  13.531
65966SOL    HW199737  10.915   1.423  13.437
65966SOL    HW299738  10.964   1.381  13.574
65967SOL     OW99739  12.813  10.733  12.017
65967SOL    HW199740  12.790  10.645  11.986
65967SOL    HW299741  12.741  10.788  11.986
65968SOL     OW99742  10.659   1.289   7.481
65968SOL    HW199743  10.596   1.236   7.432
65968SOL    HW299744  10.706   1.226   7.535
65969SOL     OW99745   6.193  11.692   0.344
65969SOL    HW199746   6.106  11.689   0.383
65969SOL    HW299747   6.214  11.600   0.327
65970SOL     OW99748   1.906   0.965  12.073
65970SOL    HW199749   1.933   1.055  12.087
65970SOL    HW299750   1.984   0.913  12.093
65971SOL     OW99751   2.797   6.114  11.741
65971SOL    HW199752   2.779   6.150  11.827
65971SOL    HW299753   2.786   6.019  11.752
65972SOL     OW99754  11.909  14.212  14.361
65972SOL    HW199755  11.947  14.249  14.281
65972SOL    HW299756  11.971  14.236  14.431
65973SOL     OW99757  10.205   7.347  12.146
65973SOL    HW199758  10.198   7.267  12.198
65973SOL    HW299759  10.240   7.412  12.206
65974SOL     OW99760   6.945   0.381   8.236
65974SOL    HW199761   6.874   0.445   8.243
65974SOL    HW299762   7.022   0.428   8.266
65975SOL     OW99763   7.099  13.306   3.236
65975SOL    HW199764   7.152  13.382   3.212
65975SOL    HW299765   7.149  13.263   3.305
65976SOL     OW99766  13.200   7.182   8.992
65976SOL    HW199767  13.115   7.165   8.952
65976SOL    HW299768  13.236   7.254   8.941
65977SOL     OW99769  11.343   8.413   2.336
65977SOL    HW199770  11.277   8.416   2.406
65977SOL    HW299771  11.401   8.340   2.360
65978SOL     OW99772   8.112   5.471   6.025
65978SOL    HW199773   8.188   5.446   5.973
65978SOL    HW299774   8.048   5.501   5.961
65979SOL     OW99775  13.904  14.762  14.450
65979SOL    HW199776  13.886  14.677  14.489
65979SOL    HW299777  13.884  14.751  14.357
65980SOL     OW99778  12.082   8.452   3.924
65980SOL    HW199779  12.029   8.524   3.958
65980SOL    HW299780  12.155   8.445   3.985
65981SOL     OW99781  12.038   6.794   7.646
65981SOL    HW199782  12.112   6.736   7.629
65981SOL    HW299783  12.034   6.851   7.569
65982SOL     OW99784   6.708   5.259  14.328
65982SOL    HW199785   6.613   5.259  14.316
65982SOL    HW299786   6.741   5.313  14.256
65983SOL     OW99787  14.024   2.972   2.714
65983SOL    HW199788  14.037   2.935   2.627
65983SOL    HW299789  13.929   2.988   2.719
65984SOL     OW99790   9.853   8.264   7.875
65984SOL    HW199791   9.797   8.203   7.827
65984SOL    HW299792   9.932   8.215   7.896
65985SOL     OW99793  11.794   5.183   9.912
65985SOL    HW199794  11.832   5.135   9.985
65985SOL    HW299795  11.833   5.142   9.834
65986SOL     OW99796  14.672   8.679  13.074
65986SOL    HW199797  14.718   8.695  12.992
65986SOL    HW299798  14.678   8.585  13.087
65987SOL     OW99799  11.330   5.512  10.760
65987SOL    HW199800  11.392   5.574  10.799
65987SOL    HW299801  11.372   5.427  10.768
65988SOL     OW99802   6.763   0.067   7.959
65988SOL    HW199803   6.727  14.867   8.009
65988SOL    HW299804   6.837   0.030   7.912
65989SOL     OW99805   2.319   2.856   0.928
65989SOL    HW199806   2.377   2.931   0.911
65989SOL    HW299807   2.235   2.881   0.888
65990SOL     OW99808  10.191   2.768   6.285
65990SOL    HW199809  10.197   2.739   6.194
65990SOL    HW299810  10.177   2.688   6.335
65991SOL     OW99811   2.496   2.610  10.135
65991SOL    HW199812   2.415   2.597  10.085
65991SOL    HW299813   2.520   2.522  10.164
65992SOL     OW99814   6.940   3.460   0.008
65992SOL    HW199815   6.852   3.490  14.858
65992SOL    HW299816   6.929   3.416   0.092
65993SOL     OW99817   0.980   7.644   6.544
65993SOL    HW199818   0.974   7.548   6.547
65993SOL    HW299819   1.071   7.661   6.518
65994SOL     OW99820   9.606  11.008  13.453
65994SOL    HW199821   9.668  10.939  13.478
65994SOL    HW299822   9.661  11.078  13.418
65995SOL     OW99823   3.719   9.389   9.107
65995SOL    HW199824   3.790   9.391   9.043
65995SOL    HW299825   3.684   9.300   9.102
65996SOL     OW99826   2.937  10.939   5.848
65996SOL    HW199827   2.871  10.929   5.916
65996SOL    HW299828   2.965  11.030   5.855
65997SOL     OW99829  14.069  10.332   6.251
65997SOL    HW199830  14.091  10.284   6.331
65997SOL    HW299831  14.145  10.387   6.234
65998SOL     OW99832  11.035   7.317   6.026
65998SOL    HW199833  11.102   7.253   6.053
65998SOL    HW299834  10.975   7.266   5.972
65999SOL     OW99835   1.603  11.756   1.513
65999SOL    HW199836   1.696  11.733   1.522
65999SOL    HW299837   1.602  11.843   1.474
66000SOL     OW99838   1.479  11.312   3.998
66000SOL    HW199839   1.462  11.268   4.082
66000SOL    HW299840   1.445  11.400   4.011
66001SOL     OW99841   6.832  13.299   3.382
66001SOL    HW199842   6.852  13.209   3.408
66001SOL    HW299843   6.907  13.328   3.331
66002SOL     OW99844  10.678   7.744   7.336
66002SOL    HW199845  10.768   7.755   7.304
66002SOL    HW299846  10.669   7.809   7.405
66003SOL     OW99847   6.772   1.565   2.907
66003SOL    HW199848   6.814   1.572   2.821
66003SOL    HW299849   6.844   1.545   2.967
66004SOL     OW99850  14.529  11.158   4.046
66004SOL    HW199851  14.529  11.248   4.076
66004SOL    HW299852  14.503  11.107   4.123
66005SOL     OW99853   4.994  13.449   5.385
66005SOL    HW199854   4.972  13.537   5.353
66005SOL    HW299855   4.917  13.396   5.366
66006SOL     OW99856   8.244   9.572  12.538
66006SOL    HW199857   8.191   9.651  12.522
66006SOL    HW299858   8.306   9.598  12.606
66007SOL     OW99859  13.786   1.734  11.408
66007SOL    HW199860  13.859   1.672  11.415
66007SOL    HW299861  13.817   1.800  11.346
66008SOL     OW99862   3.296  10.555   0.419
66008SOL    HW199863   3.204  10.577   0.400
66008SOL    HW299864   3.297  10.460   0.426
66009SOL     OW99865  13.214   7.140   1.135
66009SOL    HW199866  13.243   7.222   1.175
66009SOL    HW299867  13.148   7.106   1.196
66010SOL     OW99868   9.458   1.833   7.281
66010SOL    HW199869   9.457   1.742   7.251
66010SOL    HW299870   9.366   1.856   7.290
66011SOL     OW99871   6.318   1.297   9.710
66011SOL    HW199872   6.333   1.227   9.774
66011SOL    HW299873   6.249   1.263   9.653
66012SOL     OW99874  12.518  12.531  13.527
66012SOL    HW199875  12.576  12.455  13.531
66012SOL    HW299876  12.434  12.496  13.501
66013SOL     OW99877   0.646   9.052  10.630
66013SOL    HW199878   0.637   8.959  10.653
66013SOL    HW299879   0.576   9.068  10.567
66014SOL     OW99880  11.654   3.514   6.339
66014SOL    HW199881  11.679   3.595   6.382
66014SOL    HW299882  11.737   3.471   6.317
66015SOL     OW99883  12.591   2.957  10.397
66015SOL    HW199884  12.657   3.022  10.420
66015SOL    HW299885  12.508   3.004  10.404
66016SOL     OW99886   1.710  10.846  11.073
66016SOL    HW199887   1.804  10.851  11.094
66016SOL    HW299888   1.704  10.883  10.985
66017SOL     OW99889   1.084   6.533   4.484
66017SOL    HW199890   1.095   6.478   4.407
66017SOL    HW299891   1.070   6.472   4.556
66018SOL     OW99892  14.001   2.667  11.516
66018SOL    HW199893  13.997   2.639  11.607
66018SOL    HW299894  13.909   2.679  11.491
66019SOL     OW99895   2.553   6.096   4.402
66019SOL    HW199896   2.520   6.181   4.431
66019SOL    HW299897   2.492   6.069   4.332
66020SOL     OW99898   4.400  11.825   3.118
66020SOL    HW199899   4.350  11.833   3.199
66020SOL    HW299900   4.488  11.800   3.147
66021SOL     OW99901   9.899   1.034   0.280
66021SOL    HW199902   9.867   0.977   0.210
66021SOL    HW299903   9.838   1.108   0.281
66022SOL     OW99904   7.451  13.217  11.696
66022SOL    HW199905   7.375  13.166  11.668
66022SOL    HW299906   7.453  13.206  11.791
66023SOL     OW99907   9.892   8.714   5.052
66023SOL    HW199908   9.865   8.622   5.055
66023SOL    HW299909   9.962   8.720   5.116
66024SOL     OW99910   7.043   4.371   4.508
66024SOL    HW199911   6.948   4.381   4.502
66024SOL    HW299912   7.065   4.314   4.435
66025SOL     OW99913   1.602  13.985   8.330
66025SOL    HW199914   1.692  13.974   8.300
66025SOL    HW299915   1.550  13.927   8.273
66026SOL     OW99916   7.359   1.266   8.582
66026SOL    HW199917   7.342   1.338   8.521
66026SOL    HW299918   7.296   1.198   8.558
66027SOL     OW99919   5.012   2.620  10.559
66027SOL    HW199920   4.916   2.615  10.561
66027SOL    HW299921   5.037   2.570  10.481
66028SOL     OW99922  10.105   5.938   8.410
66028SOL    HW199923  10.063   6.019   8.439
66028SOL    HW299924  10.051   5.869   8.449
66029SOL     OW99925   9.196  14.863   6.852
66029SOL    HW199926   9.217   0.075   6.814
66029SOL    HW299927   9.121   0.007   6.909
66030SOL     OW99928  14.183  12.210   7.922
66030SOL    HW199929  14.275  12.234   7.911
66030SOL    HW299930  14.183  12.116   7.937
66031SOL     OW99931   0.399   6.112  13.217
66031SOL    HW199932   0.394   6.158  13.301
66031SOL    HW299933   0.437   6.176  13.157
66032SOL     OW99934   4.222  14.162  13.559
66032SOL    HW199935   4.228  14.191  13.650
66032SOL    HW299936   4.236  14.068  13.562
66033SOL     OW99937   2.010   3.665   2.382
66033SOL    HW199938   2.085   3.718   2.354
66033SOL    HW299939   2.010   3.590   2.322
66034SOL     OW99940   7.297  12.917   6.943
66034SOL    HW199941   7.283  13.010   6.964
66034SOL    HW299942   7.302  12.874   7.029
66035SOL     OW99943  13.905   3.107   1.930
66035SOL    HW199944  13.972   3.041   1.950
66035SOL    HW299945  13.845   3.103   2.005
66036SOL     OW99946  12.490   6.355  10.433
66036SOL    HW199947  12.452   6.443  10.421
66036SOL    HW299948  12.547   6.344  10.356
66037SOL     OW99949   8.757   1.223   3.515
66037SOL    HW199950   8.734   1.283   3.586
66037SOL    HW299951   8.791   1.279   3.446
66038SOL     OW99952   6.761  13.552   1.807
66038SOL    HW199953   6.686  13.565   1.748
66038SOL    HW299954   6.755  13.460   1.833
66039SOL     OW99955  12.989   0.553  13.956
66039SOL    HW199956  12.975   0.459  13.955
66039SOL    HW299957  13.051   0.570  13.886
66040SOL     OW99958   3.942   2.101  11.642
66040SOL    HW199959   3.860   2.120  11.596
66040SOL    HW299960   3.990   2.184  11.639
66041SOL     OW99961   9.526   5.701  10.193
66041SOL    HW199962   9.461   5.681  10.126
66041SOL    HW299963   9.511   5.793  10.215
66042SOL     OW99964   2.608  12.549   4.263
66042SOL    HW199965   2.569  12.635   4.247
66042SOL    HW299966   2.557  12.489   4.207
66043SOL     OW99967   3.444   0.612  12.889
66043SOL    HW199968   3.447   0.517  12.876
66043SOL    HW299969   3.396   0.645  12.812
66044SOL     OW99970   0.410  10.878   9.704
66044SOL    HW199971   0.406  10.786   9.678
66044SOL    HW299972   0.453  10.922   9.631
66045SOL     OW99973   6.347   0.894   7.023
66045SOL    HW199974   6.424   0.858   6.979
66045SOL    HW299975   6.288   0.917   6.952
66046SOL     OW99976  14.767  11.958   9.895
66046SOL    HW199977  14.809  12.041   9.919
66046SOL    HW299978  14.790  11.946   9.802
66047SOL     OW99979   2.588   7.779   0.269
66047SOL    HW199980   2.537   7.741   0.341
66047SOL    HW299981   2.557   7.732   0.192
66048SOL     OW99982   4.755   1.104   5.175
66048SOL    HW199983   4.679   1.130   5.227
66048SOL    HW299984   4.746   1.009   5.166
66049SOL     OW99985   1.948   9.989   1.748
66049SOL    HW199986   2.024   9.952   1.705
66049SOL    HW299987   1.976  10.005   1.838
66050SOL     OW99988   3.217  12.812   8.435
66050SOL    HW199989   3.252  12.726   8.409
66050SOL    HW299990   3.143  12.826   8.376
66051SOL     OW99991   2.390   1.152   8.383
66051SOL    HW199992   2.358   1.125   8.469
66051SOL    HW299993   2.485   1.149   8.391
66052SOL     OW99994   8.048   2.313   3.463
66052SOL    HW199995   8.023   2.399   3.428
66052SOL    HW299996   7.968   2.261   3.458
66053SOL     OW99997   9.698  12.487   5.983
66053SOL    HW199998   9.709  12.526   6.070
66053SOL    HW299999   9.660  12.557   5.930
66054SOL     OW    0  13.122   9.407  11.826
66054SOL    HW1    1  13.051   9.466  11.803
66054SOL    HW2    2  13.179   9.458  11.883
66055SOL     OW    3  11.423   8.154   6.653
66055SOL    HW1    4  11.434   8.248   6.645
66055SOL    HW2    5  11.388   8.126   6.568
66056SOL     OW    6  10.124  10.250   8.332
66056SOL    HW1    7  10.044  10.278   8.376
66056SOL    HW2    8  10.175  10.207   8.400
66057SOL     OW    9   7.356  14.609   0.391
66057SOL    HW1   10   7.354  14.586   0.298
66057SOL    HW2   11   7.351  14.705   0.392
66058SOL     OW   12   2.625   5.426   9.352
66058SOL    HW1   13   2.696   5.444   9.414
66058SOL    HW2   14   2.551   5.401   9.407
66059SOL     OW   15   4.475   5.722  14.256
66059SOL    HW1   16   4.387   5.733  14.292
66059SOL    HW2   17   4.509   5.644  14.298
66060SOL     OW   18   4.236  11.020   4.590
66060SOL    HW1   19   4.265  11.109   4.571
66060SOL    HW2   20   4.194  10.991   4.509
66061SOL     OW   21   5.592   2.391   7.171
66061SOL    HW1   22   5.588   2.405   7.076
66061SOL    HW2   23   5.607   2.297   7.181
66062SOL     OW   24  14.470   3.486  12.695
66062SOL    HW1   25  14.444   3.502  12.604
66062SOL    HW2   26  14.388   3.464  12.739
66063SOL     OW   27   9.099   9.276  12.644
66063SOL    HW1   28   9.190   9.303  12.634
66063SOL    HW2   29   9.087   9.269  12.738
66064SOL     OW   30   7.472  12.000  13.408
66064SOL    HW1   31   7.443  12.032  13.322
66064SOL    HW2   32   7.470  11.904  13.399
66065SOL     OW   33   0.272  12.331   6.224
66065SOL    HW1   34   0.286  12.244   6.185
66065SOL    HW2   35   0.184  12.356   6.194
66066SOL     OW   36   8.856  14.213   7.329
66066SOL    HW1   37   8.884  14.289   7.279
66066SOL    HW2   38   8.936  14.166   7.350
66067SOL     OW   39   5.508  10.792   5.611
66067SOL    HW1   40   5.534  10.884   5.605
66067SOL    HW2   41   5.591  10.745   5.621
66068SOL     OW   42   6.540  12.265  12.906
66068SOL    HW1   43   6.596  12.343  12.909
66068SOL    HW2   44   6.574  12.209  12.976
66069SOL     OW   45  12.333   3.556   4.375
66069SOL    HW1   46  12.398   3.617   4.339
66069SOL    HW2   47  12.315   3.495   4.303
66070SOL     OW   48  11.726  11.881  14.468
66070SOL    HW1   49  11.744  11.856  14.377
66070SOL    HW2   50  11.749  11.804  14.519
66071SOL     OW   51   6.199   5.394   4.831
66071SOL    HW1   52   6.250   5.449   4.890
66071SOL    HW2   53   6.178   5.451   4.757
66072SOL     OW   54  10.561  12.073   5.080
66072SOL    HW1   55  10.613  12.118   5.147
66072SOL    HW2   56  10.547  11.985   5.114
66073SOL     OW   57  12.632   4.964   7.157
66073SOL    HW1   58  12.551   4.970   7.107
66073SOL    HW2   59  12.620   5.023   7.231
66074SOL     OW   60   4.546   1.392   6.016
66074SOL    HW1   61   4.567   1.401   5.923
66074SOL    HW2   62   4.619   1.434   6.061
66075SOL     OW   63   3.222   7.957  11.648
66075SOL    HW1   64   3.149   7.968  11.709
66075SOL    HW2   65   3.242   8.046  11.618
66076SOL     OW   66   1.427  14.760   2.404
66076SOL    HW1   67   1.470  14.762   2.489
66076SOL    HW2   68   1.385  14.674   2.399
66077SOL     OW   69   6.175  11.731   6.615
66077SOL    HW1   70   6.087  11.759   6.593
66077SOL    HW2   71   6.213  11.705   6.531
66078SOL     OW   72  12.748   7.544  12.286
66078SOL    HW1   73  12.797   7.618  12.250
66078SOL    HW2   74  12.755   7.554  12.381
66079SOL     OW   75  14.549  14.141   3.836
66079SOL    HW1   76  14.564  14.234   3.855
66079SOL    HW2   77  14.456  14.127   3.854
66080SOL     OW   78   8.294   4.563  10.370
66080SOL    HW1   79   8.312   4.653  10.397
66080SOL    HW2   80   8.255   4.571  10.283
66081SOL     OW   81   7.169   6.114   1.707
66081SOL    HW1   82   7.080   6.148   1.702
66081SOL    HW2   83   7.189   6.085   1.617
66082SOL     OW   84  10.278   0.553  14.783
66082SOL    HW1   85  10.218   0.598  14.723
66082SOL    HW2   86  10.283   0.612  14.859
66083SOL     OW   87   8.459   4.895   4.870
66083SOL    HW1   88   8.451   4.898   4.774
66083SOL    HW2   89   8.548   4.926   4.888
66084SOL     OW   90   9.247   8.911   7.715
66084SOL    HW1   91   9.288   8.833   7.753
66084SOL    HW2   92   9.154   8.889   7.711
66085SOL     OW   93   3.826   7.078   3.082
66085SOL    HW1   94   3.845   7.169   3.105
66085SOL    HW2   95   3.756   7.083   3.017
66086SOL     OW   96  10.858  12.051  14.810
66086SOL    HW1   97  10.793  12.115  14.840
66086SOL    HW2   98  10.895  12.016   0.018
66087SOL     OW   99  13.896  10.985   3.265
66087SOL    HW1  100  13.802  10.985   3.282
66087SOL    HW2  101  13.906  10.934   3.184
66088SOL     OW  102   8.155   0.049   0.581
66088SOL    HW1  103   8.152   0.144   0.594
66088SOL    HW2  104   8.079   0.030   0.526
66089SOL     OW  105  13.146   5.025   0.477
66089SOL    HW1  106  13.184   5.025   0.565
66089SOL    HW2  107  13.222   5.021   0.418
66090SOL     OW  108   6.361  10.500  12.805
66090SOL    HW1  109   6.277  10.508  12.760
66090SOL    HW2  110   6.423  10.547  12.750
66091SOL     OW  111  11.822   6.295   6.529
66091SOL    HW1  112  11.780   6.380   6.519
66091SOL    HW2  113  11.898   6.312   6.584
66092SOL     OW  114   4.307  11.604   5.219
66092SOL    HW1  115   4.310  11.516   5.257
66092SOL    HW2  116   4.298  11.589   5.125
66093SOL     OW  117  14.521  14.295   2.600
66093SOL    HW1  118  14.449  14.286   2.537
66093SOL    HW2  119  14.599  14.276   2.549
66094SOL     OW  120   1.180  10.748   9.439
66094SOL    HW1  121   1.105  10.759   9.497
66094SOL    HW2  122   1.161  10.669   9.389
66095SOL     OW  123   5.992   9.867   4.352
66095SOL    HW1  124   5.916   9.910   4.312
66095SOL    HW2  125   6.037   9.937   4.399
66096SOL     OW  126   7.323  14.558   8.147
66096SOL    HW1  127   7.324  14.636   8.203
66096SOL    HW2  128   7.413  14.552   8.114
66097SOL     OW  129   6.733   4.856  12.217
66097SOL    HW1  130   6.799   4.818  12.275
66097SOL    HW2  131   6.748   4.814  12.133
66098SOL     OW  132  11.020   4.372  10.505
66098SOL    HW1  133  11.017   4.278  10.487
66098SOL    HW2  134  11.003   4.379  10.599
66099SOL     OW  135   0.697   4.919   0.389
66099SOL    HW1  136   0.674   4.826   0.384
66099SOL    HW2  137   0.639   4.954   0.456
66100SOL     OW  138   6.430   4.267   7.586
66100SOL    HW1  139   6.477   4.185   7.571
66100SOL    HW2  140   6.338   4.244   7.575
66101SOL     OW  141   4.230   6.301   4.033
66101SOL    HW1  142   4.203   6.209   4.039
66101SOL    HW2  143   4.171   6.347   4.093
66102SOL     OW  144  14.535   7.768   7.181
66102SOL    HW1  145  14.555   7.854   7.218
66102SOL    HW2  146  14.519   7.786   7.088
66103SOL     OW  147  12.134  13.073  13.535
66103SOL    HW1  148  12.060  13.013  13.545
66103SOL    HW2  149  12.212  13.017  13.540
66104SOL     OW  150   1.224   1.571   3.141
66104SOL    HW1  151   1.191   1.528   3.062
66104SOL    HW2  152   1.182   1.657   3.141
66105SOL     OW  153   0.150   6.127   4.355
66105SOL    HW1  154   0.144   6.205   4.299
66105SOL    HW2  155   0.167   6.056   4.294
66106SOL     OW  156   3.143   6.403   6.068
66106SOL    HW1  157   3.177   6.349   5.996
66106SOL    HW2  158   3.099   6.476   6.025
66107SOL     OW  159   9.525   6.459  14.442
66107SOL    HW1  160   9.597   6.509  14.481
66107SOL    HW2  161   9.487   6.411  14.516
66108SOL     OW  162  11.635   6.170   6.369
66108SOL    HW1  163  11.608   6.097   6.425
66108SOL    HW2  164  11.709   6.209   6.415
66109SOL     OW  165  14.402   1.749   3.705
66109SOL    HW1  166  14.387   1.790   3.790
66109SOL    HW2  167  14.323   1.769   3.654
66110SOL     OW  168  13.185   6.506   1.115
66110SOL    HW1  169  13.150   6.431   1.068
66110SOL    HW2  170  13.143   6.582   1.074
66111SOL     OW  171   7.425   4.407   8.047
66111SOL    HW1  172   7.400   4.470   8.116
66111SOL    HW2  173   7.346   4.399   7.993
66112SOL     OW  174   7.717  12.258   9.259
66112SOL    HW1  175   7.753  12.234   9.174
66112SOL    HW2  176   7.679  12.345   9.245
66113SOL     OW  177  10.484   7.177   5.677
66113SOL    HW1  178  10.518   7.127   5.603
66113SOL    HW2  179  10.459   7.111   5.741
66114SOL     OW  180   9.935  10.594  14.561
66114SOL    HW1  181   9.917  10.679  14.602
66114SOL    HW2  182   9.849  10.556  14.544
66115SOL     OW  183  13.615   0.667   6.423
66115SOL    HW1  184  13.624   0.655   6.518
66115SOL    HW2  185  13.575   0.754   6.415
66116SOL     OW  186   2.509   8.274   6.114
66116SOL    HW1  187   2.425   8.320   6.124
66116SOL    HW2  188   2.573   8.333   6.153
66117SOL     OW  189   4.237   7.594  14.297
66117SOL    HW1  190   4.161   7.537  14.286
66117SOL    HW2  191   4.309   7.534  14.316
66118SOL     OW  192   0.663   6.756  14.736
66118SOL    HW1  193   0.657   6.686  14.802
66118SOL    HW2  194   0.581   6.804  14.745
66119SOL     OW  195   1.533   4.331   9.487
66119SOL    HW1  196   1.452   4.285   9.466
66119SOL    HW2  197   1.529   4.412   9.437
66120SOL     OW  198   2.592   4.243   2.251
66120SOL    HW1  199   2.677   4.208   2.225
66120SOL    HW2  200   2.549   4.266   2.169
66121SOL     OW  201   4.569   6.798   6.549
66121SOL    HW1  202   4.497   6.837   6.500
66121SOL    HW2  203   4.642   6.797   6.488
66122SOL     OW  204   1.619   0.986  10.797
66122SOL    HW1  205   1.554   0.923  10.767
66122SOL    HW2  206   1.600   0.999  10.889
66123SOL     OW  207   9.710  11.086  13.102
66123SOL    HW1  208   9.701  11.171  13.146
66123SOL    HW2  209   9.703  11.022  13.173
66124SOL     OW  210   3.620   9.497   4.144
66124SOL    HW1  211   3.654   9.409   4.160
66124SOL    HW2  212   3.541   9.483   4.091
66125SOL     OW  213  14.393  11.395   6.583
66125SOL    HW1  214  14.329  11.435   6.642
66125SOL    HW2  215  14.472  11.385   6.637
66126SOL     OW  216  13.196  13.929   9.096
66126SOL    HW1  217  13.103  13.932   9.119
66126SOL    HW2  218  13.197  13.920   9.001
66127SOL     OW  219   3.136  11.060   7.118
66127SOL    HW1  220   3.055  11.108   7.135
66127SOL    HW2  221   3.188  11.071   7.197
66128SOL     OW  222  12.659   8.423  13.530
66128SOL    HW1  223  12.693   8.503  13.570
66128SOL    HW2  224  12.577   8.406  13.576
66129SOL     OW  225   9.658   3.102   6.878
66129SOL    HW1  226   9.717   3.166   6.918
66129SOL    HW2  227   9.646   3.035   6.945
66130SOL     OW  228  14.500   8.831   4.672
66130SOL    HW1  229  14.557   8.764   4.634
66130SOL    HW2  230  14.459   8.873   4.596
66131SOL     OW  231   8.987   4.833  14.479
66131SOL    HW1  232   9.082   4.835  14.490
66131SOL    HW2  233   8.971   4.883  14.398
66132SOL     OW  234   9.662  11.329   4.534
66132SOL    HW1  235   9.728  11.397   4.547
66132SOL    HW2  236   9.639  11.336   4.441
66133SOL     OW  237   6.409   5.742   5.192
66133SOL    HW1  238   6.473   5.702   5.251
66133SOL    HW2  239   6.451   5.823   5.163
66134SOL     OW  240  13.881   6.750  11.196
66134SOL    HW1  241  13.807   6.796  11.235
66134SOL    HW2  242  13.844   6.710  11.117
66135SOL     OW  243   0.182   3.939  11.806
66135SOL    HW1  244   0.160   4.030  11.823
66135SOL    HW2  245   0.205   3.937  11.713
66136SOL     OW  246   6.740  10.744  11.825
66136SOL    HW1  247   6.721  10.816  11.765
66136SOL    HW2  248   6.822  10.706  11.793
66137SOL     OW  249  12.493   4.951  14.501
66137SOL    HW1  250  12.487   4.964  14.406
66137SOL    HW2  251  12.582   4.918  14.514
66138SOL     OW  252   1.732  13.542   6.574
66138SOL    HW1  253   1.734  13.507   6.663
66138SOL    HW2  254   1.669  13.614   6.578
66139SOL     OW  255  10.230   4.122  14.097
66139SOL    HW1  256  10.155   4.084  14.142
66139SOL    HW2  257  10.235   4.076  14.014
66140SOL     OW  258   9.996   0.564  12.023
66140SOL    HW1  259  10.066   0.628  12.009
66140SOL    HW2  260  10.038   0.491  12.068
66141SOL     OW  261   8.523  14.274  13.449
66141SOL    HW1  262   8.531  14.338  13.379
66141SOL    HW2  263   8.517  14.325  13.529
66142SOL     OW  264   4.212   4.246  13.688
66142SOL    HW1  265   4.266   4.256  13.609
66142SOL    HW2  266   4.122   4.242  13.655
66143SOL     OW  267   8.010  13.490   0.514
66143SOL    HW1  268   7.975  13.537   0.589
66143SOL    HW2  269   8.074  13.550   0.475
66144SOL     OW  270   0.014  14.698   4.471
66144SOL    HW1  271   0.071  14.659   4.405
66144SOL    HW2  272  14.833  14.625   4.502
66145SOL     OW  273  13.865   5.688   3.601
66145SOL    HW1  274  13.786   5.677   3.654
66145SOL    HW2  275  13.920   5.747   3.653
66146SOL     OW  276   3.732  10.100   8.898
66146SOL    HW1  277   3.773  10.013   8.903
66146SOL    HW2  278   3.739  10.134   8.987
66147SOL     OW  279  14.619   2.265   1.515
66147SOL    HW1  280  14.569   2.334   1.559
66147SOL    HW2  281  14.590   2.269   1.424
66148SOL     OW  282   7.578   1.545   6.142
66148SOL    HW1  283   7.520   1.580   6.210
66148SOL    HW2  284   7.561   1.450   6.144
66149SOL     OW  285   5.295  11.408  10.866
66149SOL    HW1  286   5.273  11.361  10.786
66149SOL    HW2  287   5.348  11.482  10.837
66150SOL     OW  288  13.647   6.348   7.084
66150SOL    HW1  289  13.665   6.442   7.083
66150SOL    HW2  290  13.618   6.330   7.173
66151SOL     OW  291   9.401   8.274   5.819
66151SOL    HW1  292   9.478   8.273   5.762
66151SOL    HW2  293   9.428   8.324   5.895
66152SOL     OW  294  10.285   9.036   3.256
66152SOL    HW1  295  10.326   9.102   3.201
66152SOL    HW2  296  10.191   9.058   3.255
66153SOL     OW  297  13.695  13.256   6.813
66153SOL    HW1  298  13.610  13.280   6.775
66153SOL    HW2  299  13.701  13.162   6.800
66154SOL     OW  300   9.292   0.237   6.647
66154SOL    HW1  301   9.333   0.302   6.590
66154SOL    HW2  302   9.338   0.155   6.628
66155SOL     OW  303   6.852   6.878   3.978
66155SOL    HW1  304   6.923   6.816   3.961
66155SOL    HW2  305   6.891   6.964   3.960
66156SOL     OW  306  12.790   2.296   2.576
66156SOL    HW1  307  12.816   2.296   2.668
66156SOL    HW2  308  12.705   2.340   2.576
66157SOL     OW  309   7.306  11.640   1.611
66157SOL    HW1  310   7.358  11.562   1.628
66157SOL    HW2  311   7.248  11.648   1.687
66158SOL     OW  312   2.790   2.940  14.019
66158SOL    HW1  313   2.753   2.960  13.933
66158SOL    HW2  314   2.813   2.847  14.014
66159SOL     OW  315   6.660   2.699  14.173
66159SOL    HW1  316   6.639   2.783  14.132
66159SOL    HW2  317   6.696   2.722  14.259
66160SOL     OW  318   0.578   3.697   1.423
66160SOL    HW1  319   0.580   3.651   1.339
66160SOL    HW2  320   0.519   3.644   1.477
66161SOL     OW  321   5.808  11.711  11.444
66161SOL    HW1  322   5.726  11.729  11.490
66161SOL    HW2  323   5.868  11.779  11.474
66162SOL     OW  324   5.476  14.460  13.567
66162SOL    HW1  325   5.551  14.478  13.624
66162SOL    HW2  326   5.469  14.537  13.511
66163SOL     OW  327   6.897  14.509   6.747
66163SOL    HW1  328   6.965  14.570   6.717
66163SOL    HW2  329   6.837  14.501   6.673
66164SOL     OW  330   9.765  12.768  12.121
66164SOL    HW1  331   9.836  12.704  12.110
66164SOL    HW2  332   9.810  12.850  12.140
66165SOL     OW  333   9.066   3.890  11.031
66165SOL    HW1  334   9.030   3.912  10.945
66165SOL    HW2  335   9.160   3.902  11.022
66166SOL     OW  336   8.561  14.302   5.793
66166SOL    HW1  337   8.611  14.360   5.735
66166SOL    HW2  338   8.490  14.268   5.737
66167SOL     OW  339   1.520   8.637   5.281
66167SOL    HW1  340   1.566   8.557   5.306
66167SOL    HW2  341   1.520   8.637   5.186
66168SOL     OW  342  14.512  11.768   6.823
66168SOL    HW1  343  14.603  11.754   6.796
66168SOL    HW2  344  14.509  11.737   6.914
66169SOL     OW  345   4.043   7.174   8.795
66169SOL    HW1  346   3.975   7.130   8.846
66169SOL    HW2  347   4.007   7.261   8.778
66170SOL     OW  348   5.423   8.995   7.562
66170SOL    HW1  349   5.450   8.914   7.519
66170SOL    HW2  350   5.364   9.036   7.499
66171SOL     OW  351   0.777   0.806   0.376
66171SOL    HW1  352   0.756   0.727   0.426
66171SOL    HW2  353   0.725   0.799   0.296
66172SOL     OW  354   3.099  10.952  12.223
66172SOL    HW1  355   3.111  10.905  12.141
66172SOL    HW2  356   3.031  10.903  12.269
66173SOL     OW  357   1.965   6.557  13.910
66173SOL    HW1  358   1.976   6.622  13.980
66173SOL    HW2  359   2.040   6.499  13.919
66174SOL     OW  360  12.410  13.103   2.413
66174SOL    HW1  361  12.357  13.144   2.345
66174SOL    HW2  362  12.395  13.009   2.402
66175SOL     OW  363   4.347  13.013   9.545
66175SOL    HW1  364   4.440  13.005   9.568
66175SOL    HW2  365   4.307  12.933   9.580
66176SOL     OW  366   1.403   7.928  11.909
66176SOL    HW1  367   1.358   8.012  11.904
66176SOL    HW2  368   1.496   7.951  11.902
66177SOL     OW  369   2.852  11.854   1.105
66177SOL    HW1  370   2.865  11.935   1.155
66177SOL    HW2  371   2.875  11.785   1.167
66178SOL     OW  372   1.445  12.344   1.543
66178SOL    HW1  373   1.537  12.368   1.558
66178SOL    HW2  374   1.449  12.258   1.502
66179SOL     OW  375   3.258   4.331   9.981
66179SOL    HW1  376   3.203   4.253   9.984
66179SOL    HW2  377   3.279   4.350  10.073
66180SOL     OW  378   0.163   2.809  14.478
66180SOL    HW1  379   0.167   2.875  14.548
66180SOL    HW2  380   0.228   2.744  14.503
66181SOL     OW  381  13.592   8.723  12.386
66181SOL    HW1  382  13.551   8.644  12.422
66181SOL    HW2  383  13.524   8.791  12.394
66182SOL     OW  384   6.026   1.743  12.973
66182SOL    HW1  385   5.932   1.756  12.980
66182SOL    HW2  386   6.062   1.776  13.055
66183SOL     OW  387  12.265   3.772  12.088
66183SOL    HW1  388  12.253   3.709  12.160
66183SOL    HW2  389  12.177   3.796  12.062
66184SOL     OW  390   8.784   4.685  11.241
66184SOL    HW1  391   8.696   4.648  11.230
66184SOL    HW2  392   8.796   4.692  11.335
66185SOL     OW  393   7.443   3.504   3.752
66185SOL    HW1  394   7.531   3.467   3.755
66185SOL    HW2  395   7.448   3.585   3.802
66186SOL     OW  396   9.588   6.847   0.884
66186SOL    HW1  397   9.565   6.789   0.957
66186SOL    HW2  398   9.683   6.840   0.878
66187SOL     OW  399   6.645   2.277  12.418
66187SOL    HW1  400   6.579   2.208  12.410
66187SOL    HW2  401   6.595   2.355  12.443
66188SOL     OW  402  11.414   2.434  12.179
66188SOL    HW1  403  11.430   2.346  12.145
66188SOL    HW2  404  11.395   2.486  12.101
66189SOL     OW  405  11.539  11.893  10.181
66189SOL    HW1  406  11.607  11.863  10.121
66189SOL    HW2  407  11.457  11.872  10.137
66190SOL     OW  408  11.924   7.442   6.983
66190SOL    HW1  409  11.917   7.490   7.065
66190SOL    HW2  410  11.836   7.406   6.969
66191SOL     OW  411   0.169   6.775  10.730
66191SOL    HW1  412   0.192   6.841  10.665
66191SOL    HW2  413   0.123   6.707  10.680
66192SOL     OW  414  12.650   4.479   2.239
66192SOL    HW1  415  12.680   4.388   2.233
66192SOL    HW2  416  12.691   4.523   2.165
66193SOL     OW  417   8.979  10.321   3.597
66193SOL    HW1  418   8.927  10.340   3.676
66193SOL    HW2  419   8.955  10.232   3.573
66194SOL     OW  420   5.886   2.646  13.742
66194SOL    HW1  421   5.923   2.623  13.657
66194SOL    HW2  422   5.956   2.695  13.786
66195SOL     OW  423   3.716  10.359   2.058
66195SOL    HW1  424   3.668  10.404   2.127
66195SOL    HW2  425   3.760  10.429   2.010
66196SOL     OW  426   5.288   5.620   3.967
66196SOL    HW1  427   5.345   5.686   4.008
66196SOL    HW2  428   5.200   5.653   3.982
66197SOL     OW  429   8.031   1.755   5.913
66197SOL    HW1  430   7.960   1.777   5.853
66197SOL    HW2  431   7.987   1.720   5.990
66198SOL     OW  432   8.803  12.297   5.998
66198SOL    HW1  433   8.722  12.250   6.014
66198SOL    HW2  434   8.872  12.239   6.031
66199SOL     OW  435   5.306   3.598   5.345
66199SOL    HW1  436   5.382   3.540   5.348
66199SOL    HW2  437   5.231   3.540   5.355
66200SOL     OW  438  11.031  12.115   8.189
66200SOL    HW1  439  11.014  12.033   8.236
66200SOL    HW2  440  11.116  12.144   8.222
66201SOL     OW  441   7.421   4.490   1.683
66201SOL    HW1  442   7.422   4.507   1.589
66201SOL    HW2  443   7.365   4.558   1.720
66202SOL     OW  444  11.879  10.903  13.559
66202SOL    HW1  445  11.820  10.845  13.511
66202SOL    HW2  446  11.963  10.857  13.560
66203SOL     OW  447  13.726   5.097  14.643
66203SOL    HW1  448  13.756   5.063  14.727
66203SOL    HW2  449  13.631   5.103  14.652
66204SOL     OW  450   7.163   8.910   1.968
66204SOL    HW1  451   7.083   8.918   2.019
66204SOL    HW2  452   7.171   8.995   1.923
66205SOL     OW  453   1.012   7.306  13.884
66205SOL    HW1  454   0.974   7.313  13.796
66205SOL    HW2  455   1.019   7.212  13.900
66206SOL     OW  456  11.649  12.017   3.297
66206SOL    HW1  457  11.575  12.022   3.237
66206SOL    HW2  458  11.648  11.926   3.328
66207SOL     OW  459   7.606   4.638   2.481
66207SOL    HW1  460   7.517   4.603   2.484
66207SOL    HW2  461   7.637   4.619   2.392
66208SOL     OW  462   4.665  12.056  10.277
66208SOL    HW1  463   4.741  12.066  10.221
66208SOL    HW2  464   4.663  11.962  10.298
66209SOL     OW  465   9.406  12.472  12.503
66209SOL    HW1  466   9.325  12.422  12.513
66209SOL    HW2  467   9.403  12.504  12.413
66210SOL     OW  468  12.833  10.861  10.048
66210SOL    HW1  469  12.899  10.854   9.978
66210SOL    HW2  470  12.851  10.786  10.105
66211SOL     OW  471  13.343   4.355   2.842
66211SOL    HW1  472  13.255   4.329   2.869
66211SOL    HW2  473  13.329   4.404   2.761
66212SOL     OW  474  12.124  13.678   9.768
66212SOL    HW1  475  12.095  13.769   9.778
66212SOL    HW2  476  12.051  13.626   9.804
66213SOL     OW  477  11.903  10.667   1.951
66213SOL    HW1  478  11.995  10.643   1.940
66213SOL    HW2  479  11.893  10.749   1.905
66214SOL     OW  480   4.837  10.698   7.585
66214SOL    HW1  481   4.919  10.746   7.594
66214SOL    HW2  482   4.838  10.634   7.657
66215SOL     OW  483   8.132   3.395   0.435
66215SOL    HW1  484   8.166   3.408   0.346
66215SOL    HW2  485   8.182   3.322   0.470
66216SOL     OW  486  11.550   7.032   8.254
66216SOL    HW1  487  11.495   6.954   8.263
66216SOL    HW2  488  11.500   7.090   8.196
66217SOL     OW  489   9.101   0.830  12.594
66217SOL    HW1  490   9.018   0.853  12.637
66217SOL    HW2  491   9.102   0.883  12.514
66218SOL     OW  492   2.306  10.839  11.608
66218SOL    HW1  493   2.281  10.759  11.562
66218SOL    HW2  494   2.228  10.863  11.658
66219SOL     OW  495   7.218  11.366   1.727
66219SOL    HW1  496   7.296  11.332   1.684
66219SOL    HW2  497   7.243  11.370   1.820
66220SOL     OW  498   2.945   8.278   4.325
66220SOL    HW1  499   2.942   8.302   4.418
66220SOL    HW2  500   2.894   8.346   4.281
66221SOL     OW  501   3.401   1.386   3.959
66221SOL    HW1  502   3.327   1.332   3.930
66221SOL    HW2  503   3.469   1.324   3.984
66222SOL     OW  504  14.244   4.740   8.271
66222SOL    HW1  505  14.174   4.756   8.334
66222SOL    HW2  506  14.290   4.663   8.304
66223SOL     OW  507  11.522   5.646   5.203
66223SOL    HW1  508  11.611   5.654   5.168
66223SOL    HW2  509  11.481   5.580   5.146
66224SOL     OW  510   5.125   0.116   9.025
66224SOL    HW1  511   5.184   0.040   9.019
66224SOL    HW2  512   5.044   0.086   8.985
66225SOL     OW  513   2.159  12.020   9.608
66225SOL    HW1  514   2.075  12.065   9.596
66225SOL    HW2  515   2.223  12.091   9.618
66226SOL     OW  516  12.005   9.105  12.410
66226SOL    HW1  517  11.977   9.196  12.402
66226SOL    HW2  518  11.923   9.054  12.405
66227SOL     OW  519   0.082  14.648   5.460
66227SOL    HW1  520   0.080  14.729   5.510
66227SOL    HW2  521   0.003  14.652   5.405
66228SOL     OW  522  11.495   3.197  11.247
66228SOL    HW1  523  11.567   3.136  11.234
66228SOL    HW2  524  11.426   3.144  11.286
66229SOL     OW  525   2.147   8.575  10.172
66229SOL    HW1  526   2.177   8.511  10.107
66229SOL    HW2  527   2.224   8.627  10.192
66230SOL     OW  528   3.342  11.098   4.133
66230SOL    HW1  529   3.312  11.085   4.043
66230SOL    HW2  530   3.266  11.078   4.187
66231SOL     OW  531  13.215   2.805  11.115
66231SOL    HW1  532  13.294   2.835  11.071
66231SOL    HW2  533  13.174   2.885  11.147
66232SOL     OW  534   5.928   9.602   7.759
66232SOL    HW1  535   6.020   9.575   7.750
66232SOL    HW2  536   5.880   9.542   7.703
66233SOL     OW  537  11.468   9.229  12.229
66233SOL    HW1  538  11.489   9.246  12.321
66233SOL    HW2  539  11.378   9.261  12.219
66234SOL     OW  540   8.588   2.514   2.052
66234SOL    HW1  541   8.648   2.567   2.000
66234SOL    HW2  542   8.621   2.521   2.141
66235SOL     OW  543   8.084   2.078  13.766
66235SOL    HW1  544   8.106   2.039  13.851
66235SOL    HW2  545   8.123   2.165  13.769
66236SOL     OW  546  12.862   6.282   0.956
66236SOL    HW1  547  12.808   6.296   1.034
66236SOL    HW2  548  12.827   6.202   0.917
66237SOL     OW  549  14.098   5.697   6.660
66237SOL    HW1  550  14.156   5.740   6.596
66237SOL    HW2  551  14.079   5.612   6.621
66238SOL     OW  552  11.014   2.294  10.245
66238SOL    HW1  553  11.106   2.269  10.244
66238SOL    HW2  554  11.005   2.356  10.172
66239SOL     OW  555   3.543   4.145  13.908
66239SOL    HW1  556   3.574   4.066  13.951
66239SOL    HW2  557   3.483   4.114  13.840
66240SOL     OW  558  13.126  13.918   6.860
66240SOL    HW1  559  13.207  13.914   6.809
66240SOL    HW2  560  13.102  14.010   6.860
66241SOL     OW  561   8.338  11.073   7.653
66241SOL    HW1  562   8.320  11.159   7.616
66241SOL    HW2  563   8.421  11.046   7.613
66242SOL     OW  564  14.859   6.623   2.913
66242SOL    HW1  565   0.080   6.643   2.918
66242SOL    HW2  566  14.845   6.557   2.982
66243SOL     OW  567  11.542   3.012   9.220
66243SOL    HW1  568  11.635   3.024   9.198
66243SOL    HW2  569  11.496   3.076   9.167
66244SOL     OW  570   9.535   8.172  13.068
66244SOL    HW1  571   9.625   8.142  13.081
66244SOL    HW2  572   9.544   8.258  13.026
66245SOL     OW  573   6.954   0.102  10.662
66245SOL    HW1  574   6.939   0.191  10.629
66245SOL    HW2  575   6.869   0.076  10.697
66246SOL     OW  576  14.530  12.058  13.938
66246SOL    HW1  577  14.541  12.147  13.906
66246SOL    HW2  578  14.619  12.030  13.961
66247SOL     OW  579   5.402   4.517   5.387
66247SOL    HW1  580   5.309   4.510   5.367
66247SOL    HW2  581   5.430   4.427   5.403
66248SOL     OW  582  14.577   4.957  11.668
66248SOL    HW1  583  14.502   5.013  11.650
66248SOL    HW2  584  14.568   4.885  11.605
66249SOL     OW  585   7.167   7.914   4.896
66249SOL    HW1  586   7.228   7.960   4.954
66249SOL    HW2  587   7.081   7.945   4.922
66250SOL     OW  588   3.980   0.389   9.701
66250SOL    HW1  589   3.904   0.359   9.652
66250SOL    HW2  590   4.006   0.314   9.754
66251SOL     OW  591   8.417  11.835   8.121
66251SOL    HW1  592   8.369  11.902   8.170
66251SOL    HW2  593   8.500  11.826   8.167
66252SOL     OW  594  10.366   5.105   6.990
66252SOL    HW1  595  10.306   5.037   6.958
66252SOL    HW2  596  10.366   5.171   6.921
66253SOL     OW  597   5.570   4.404   0.118
66253SOL    HW1  598   5.644   4.386   0.176
66253SOL    HW2  599   5.519   4.322   0.118
66254SOL     OW  600  13.148  12.489   2.137
66254SOL    HW1  601  13.122  12.544   2.062
66254SOL    HW2  602  13.094  12.410   2.128
66255SOL     OW  603  12.507   4.367  14.095
66255SOL    HW1  604  12.455   4.429  14.043
66255SOL    HW2  605  12.442   4.318  14.145
66256SOL     OW  606   7.079   9.620  13.717
66256SOL    HW1  607   6.989   9.597  13.697
66256SOL    HW2  608   7.124   9.615  13.633
66257SOL     OW  609   8.501  10.311   6.145
66257SOL    HW1  610   8.416  10.268   6.147
66257SOL    HW2  611   8.563  10.242   6.169
66258SOL     OW  612  14.058   5.215  10.252
66258SOL    HW1  613  13.976   5.256  10.224
66258SOL    HW2  614  14.068   5.140  10.194
66259SOL     OW  615   4.061   5.934   8.168
66259SOL    HW1  616   4.098   5.905   8.252
66259SOL    HW2  617   3.970   5.955   8.188
66260SOL     OW  618   6.747   0.732   7.772
66260SOL    HW1  619   6.790   0.654   7.738
66260SOL    HW2  620   6.687   0.759   7.703
66261SOL     OW  621   7.057   8.513  10.867
66261SOL    HW1  622   7.091   8.457  10.936
66261SOL    HW2  623   7.029   8.452  10.799
66262SOL     OW  624   3.319   7.283   5.544
66262SOL    HW1  625   3.365   7.315   5.466
66262SOL    HW2  626   3.294   7.193   5.521
66263SOL     OW  627   3.507  13.524  11.564
66263SOL    HW1  628   3.418  13.546  11.590
66263SOL    HW2  629   3.549  13.494  11.645
66264SOL     OW  630  11.066   6.467   3.760
66264SOL    HW1  631  11.063   6.457   3.665
66264SOL    HW2  632  10.974   6.462   3.786
66265SOL     OW  633   6.175  12.363  13.947
66265SOL    HW1  634   6.206  12.434  14.004
66265SOL    HW2  635   6.251  12.340  13.895
66266SOL     OW  636  11.328  13.116   7.140
66266SOL    HW1  637  11.287  13.132   7.055
66266SOL    HW2  638  11.267  13.058   7.186
66267SOL     OW  639   3.025   0.616  14.037
66267SOL    HW1  640   3.030   0.578  14.125
66267SOL    HW2  641   3.116   0.625  14.009
66268SOL     OW  642   1.844  10.397  13.442
66268SOL    HW1  643   1.861  10.332  13.374
66268SOL    HW2  644   1.800  10.469  13.396
66269SOL     OW  645   9.241   6.122   3.015
66269SOL    HW1  646   9.170   6.172   2.975
66269SOL    HW2  647   9.305   6.111   2.946
66270SOL     OW  648   6.574   9.475  13.122
66270SOL    HW1  649   6.642   9.415  13.153
66270SOL    HW2  650   6.505   9.469  13.187
66271SOL     OW  651  13.155  12.562   3.128
66271SOL    HW1  652  13.086  12.496   3.122
66271SOL    HW2  653  13.125  12.632   3.069
66272SOL     OW  654   6.662  12.493  14.469
66272SOL    HW1  655   6.691  12.539  14.390
66272SOL    HW2  656   6.588  12.545  14.501
66273SOL     OW  657   2.202   6.201  10.485
66273SOL    HW1  658   2.190   6.196  10.580
66273SOL    HW2  659   2.146   6.131  10.451
66274SOL     OW  660   6.794   0.205   9.274
66274SOL    HW1  661   6.773   0.193   9.367
66274SOL    HW2  662   6.763   0.125   9.232
66275SOL     OW  663  14.565   0.839   2.973
66275SOL    HW1  664  14.536   0.927   2.998
66275SOL    HW2  665  14.497   0.808   2.912
66276SOL     OW  666   5.239   2.452   2.110
66276SOL    HW1  667   5.334   2.452   2.124
66276SOL    HW2  668   5.227   2.406   2.027
66277SOL     OW  669  10.046  13.979   4.752
66277SOL    HW1  670   9.983  13.910   4.729
66277SOL    HW2  671  10.124  13.959   4.700
66278SOL     OW  672   0.342  14.126   3.629
66278SOL    HW1  673   0.299  14.048   3.592
66278SOL    HW2  674   0.324  14.195   3.565
66279SOL     OW  675   3.084   2.535  11.149
66279SOL    HW1  676   3.072   2.572  11.236
66279SOL    HW2  677   3.156   2.474  11.158
66280SOL     OW  678   9.631  10.832  14.049
66280SOL    HW1  679   9.541  10.801  14.042
66280SOL    HW2  680   9.653  10.821  14.142
66281SOL     OW  681  10.054   0.472   0.187
66281SOL    HW1  682  10.127   0.506   0.238
66281SOL    HW2  683   9.985   0.456   0.251
66282SOL     OW  684   2.472  10.777   0.337
66282SOL    HW1  685   2.400  10.830   0.370
66282SOL    HW2  686   2.542  10.840   0.318
66283SOL     OW  687  12.254   5.148   9.435
66283SOL    HW1  688  12.304   5.067   9.426
66283SOL    HW2  689  12.318   5.212   9.466
66284SOL     OW  690  10.585  10.083  13.263
66284SOL    HW1  691  10.509  10.033  13.232
66284SOL    HW2  692  10.592  10.061  13.356
66285SOL     OW  693   3.181   1.074   4.146
66285SOL    HW1  694   3.202   1.056   4.237
66285SOL    HW2  695   3.233   1.150   4.124
66286SOL     OW  696   8.627   0.680   2.988
66286SOL    HW1  697   8.616   0.594   2.948
66286SOL    HW2  698   8.682   0.665   3.064
66287SOL     OW  699   3.775  13.476   0.167
66287SOL    HW1  700   3.731  13.487   0.252
66287SOL    HW2  701   3.847  13.416   0.186
66288SOL     OW  702   0.254  10.495   7.447
66288SOL    HW1  703   0.178  10.535   7.490
66288SOL    HW2  704   0.274  10.418   7.499
66289SOL     OW  705  10.511  14.200  12.585
66289SOL    HW1  706  10.573  14.133  12.613
66289SOL    HW2  707  10.528  14.211  12.491
66290SOL     OW  708   8.459  14.014   1.597
66290SOL    HW1  709   8.486  14.017   1.689
66290SOL    HW2  710   8.365  14.030   1.600
66291SOL     OW  711  11.510   1.342   2.011
66291SOL    HW1  712  11.435   1.390   2.046
66291SOL    HW2  713  11.498   1.344   1.917
66292SOL     OW  714  10.193   8.641   4.982
66292SOL    HW1  715  10.154   8.600   4.905
66292SOL    HW2  716  10.168   8.585   5.055
66293SOL     OW  717   7.126   9.466   1.943
66293SOL    HW1  718   7.210   9.420   1.946
66293SOL    HW2  719   7.101   9.477   2.035
66294SOL     OW  720   6.973  11.132  13.766
66294SOL    HW1  721   6.883  11.118  13.793
66294SOL    HW2  722   6.974  11.113  13.672
66295SOL     OW  723  12.879   5.743   4.468
66295SOL    HW1  724  12.929   5.691   4.405
66295SOL    HW2  725  12.938   5.754   4.542
66296SOL     OW  726  13.236  14.346   1.840
66296SOL    HW1  727  13.168  14.280   1.853
66296SOL    HW2  728  13.257  14.376   1.929
66297SOL     OW  729   2.451  10.617   9.011
66297SOL    HW1  730   2.443  10.536   9.062
66297SOL    HW2  731   2.427  10.591   8.922
66298SOL     OW  732   8.896   7.183   0.331
66298SOL    HW1  733   8.989   7.202   0.320
66298SOL    HW2  734   8.873   7.221   0.416
66299SOL     OW  735   4.719   7.877   7.866
66299SOL    HW1  736   4.733   7.950   7.805
66299SOL    HW2  737   4.690   7.805   7.810
66300SOL     OW  738   4.870   1.675   6.080
66300SOL    HW1  739   4.787   1.637   6.108
66300SOL    HW2  740   4.937   1.621   6.122
66301SOL     OW  741   1.517   9.885   5.954
66301SOL    HW1  742   1.561   9.803   5.930
66301SOL    HW2  743   1.435   9.857   5.995
66302SOL     OW  744  10.192   1.038  14.285
66302SOL    HW1  745  10.138   1.036  14.363
66302SOL    HW2  746  10.167   1.119  14.240
66303SOL     OW  747  10.638   6.414   0.322
66303SOL    HW1  748  10.682   6.384   0.242
66303SOL    HW2  749  10.658   6.507   0.327
66304SOL     OW  750   1.067   8.023   6.452
66304SOL    HW1  751   1.032   8.016   6.540
66304SOL    HW2  752   1.055   8.116   6.429
66305SOL     OW  753  12.863   9.378   0.457
66305SOL    HW1  754  12.942   9.355   0.408
66305SOL    HW2  755  12.804   9.414   0.391
66306SOL     OW  756   4.376  12.583   5.005
66306SOL    HW1  757   4.443  12.646   5.031
66306SOL    HW2  758   4.298  12.636   4.990
66307SOL     OW  759   3.355  11.344   4.729
66307SOL    HW1  760   3.307  11.262   4.742
66307SOL    HW2  761   3.441  11.327   4.766
66308SOL     OW  762   4.809  11.084   6.129
66308SOL    HW1  763   4.893  11.121   6.158
66308SOL    HW2  764   4.826  11.053   6.040
66309SOL     OW  765  10.043   1.245   4.440
66309SOL    HW1  766   9.965   1.273   4.392
66309SOL    HW2  767  10.016   1.248   4.532
66310SOL     OW  768  12.836   7.776   7.185
66310SOL    HW1  769  12.744   7.780   7.158
66310SOL    HW2  770  12.859   7.684   7.181
66311SOL     OW  771   8.151   2.912  13.510
66311SOL    HW1  772   8.190   2.825  13.520
66311SOL    HW2  773   8.208   2.956  13.448
66312SOL     OW  774   2.850   6.715  13.140
66312SOL    HW1  775   2.916   6.720  13.071
66312SOL    HW2  776   2.869   6.632  13.184
66313SOL     OW  777   2.340  11.693   8.079
66313SOL    HW1  778   2.295  11.715   7.998
66313SOL    HW2  779   2.424  11.739   8.072
66314SOL     OW  780   1.850   4.412   7.131
66314SOL    HW1  781   1.829   4.378   7.045
66314SOL    HW2  782   1.779   4.474   7.151
66315SOL     OW  783  14.206   8.930  10.174
66315SOL    HW1  784  14.188   8.863  10.109
66315SOL    HW2  785  14.130   8.989  10.169
66316SOL     OW  786   6.657   0.204   4.349
66316SOL    HW1  787   6.626   0.276   4.404
66316SOL    HW2  788   6.594   0.199   4.278
66317SOL     OW  789  10.043   9.380   5.549
66317SOL    HW1  790  10.034   9.464   5.503
66317SOL    HW2  791   9.961   9.371   5.599
66318SOL     OW  792   6.309   2.439   4.205
66318SOL    HW1  793   6.389   2.492   4.212
66318SOL    HW2  794   6.240   2.494   4.241
66319SOL     OW  795  12.378   7.119   2.505
66319SOL    HW1  796  12.415   7.196   2.462
66319SOL    HW2  797  12.307   7.092   2.447
66320SOL     OW  798   5.920   3.037   9.960
66320SOL    HW1  799   5.861   2.963   9.977
66320SOL    HW2  800   5.861   3.111   9.946
66321SOL     OW  801   0.978   7.690   9.974
66321SOL    HW1  802   0.966   7.763   9.914
66321SOL    HW2  803   0.931   7.617   9.933
66322SOL     OW  804   9.316   5.239   0.576
66322SOL    HW1  805   9.238   5.191   0.605
66322SOL    HW2  806   9.379   5.171   0.553
66323SOL     OW  807   7.313   5.379   9.442
66323SOL    HW1  808   7.256   5.303   9.426
66323SOL    HW2  809   7.308   5.430   9.361
66324SOL     OW  810   8.705  12.027  10.651
66324SOL    HW1  811   8.705  12.019  10.555
66324SOL    HW2  812   8.696  11.938  10.683
66325SOL     OW  813   8.721   4.171  13.269
66325SOL    HW1  814   8.671   4.241  13.226
66325SOL    HW2  815   8.811   4.202  13.268
66326SOL     OW  816   6.733  13.195  14.776
66326SOL    HW1  817   6.791  13.179  14.702
66326SOL    HW2  818   6.716  13.109  14.814
66327SOL     OW  819  13.608  14.260  10.527
66327SOL    HW1  820  13.664  14.233  10.600
66327SOL    HW2  821  13.618  14.189  10.463
66328SOL     OW  822   9.680  13.236   0.786
66328SOL    HW1  823   9.733  13.265   0.860
66328SOL    HW2  824   9.744  13.207   0.721
66329SOL     OW  825   3.738   2.179   0.643
66329SOL    HW1  826   3.790   2.112   0.597
66329SOL    HW2  827   3.781   2.189   0.727
66330SOL     OW  828   4.475   8.913  10.423
66330SOL    HW1  829   4.539   8.855  10.381
66330SOL    HW2  830   4.446   8.972  10.354
66331SOL     OW  831   4.282   7.384   2.505
66331SOL    HW1  832   4.191   7.390   2.476
66331SOL    HW2  833   4.301   7.290   2.505
66332SOL     OW  834   5.511   2.174   4.765
66332SOL    HW1  835   5.418   2.165   4.785
66332SOL    HW2  836   5.555   2.114   4.825
66333SOL     OW  837   3.986   1.243   4.311
66333SOL    HW1  838   4.037   1.210   4.385
66333SOL    HW2  839   4.051   1.276   4.250
66334SOL     OW  840  12.471   5.085  13.969
66334SOL    HW1  841  12.467   5.001  13.922
66334SOL    HW2  842  12.557   5.121  13.945
66335SOL     OW  843   8.289   9.965  11.742
66335SOL    HW1  844   8.248   9.879  11.729
66335SOL    HW2  845   8.319   9.963  11.833
66336SOL     OW  846   3.874   5.027  12.462
66336SOL    HW1  847   3.789   5.002  12.427
66336SOL    HW2  848   3.935   4.965  12.423
66337SOL     OW  849   8.893   2.796   7.530
66337SOL    HW1  850   8.885   2.776   7.624
66337SOL    HW2  851   8.932   2.883   7.527
66338SOL     OW  852   0.947   0.707   0.850
66338SOL    HW1  853   0.928   0.762   0.774
66338SOL    HW2  854   1.029   0.743   0.885
66339SOL     OW  855   2.916   1.789   8.555
66339SOL    HW1  856   2.865   1.740   8.619
66339SOL    HW2  857   2.887   1.756   8.470
66340SOL     OW  858   1.991  14.279  12.866
66340SOL    HW1  859   2.079  14.242  12.862
66340SOL    HW2  860   1.998  14.349  12.932
66341SOL     OW  861   0.061  11.546   7.787
66341SOL    HW1  862  14.849  11.514   7.815
66341SOL    HW2  863   0.054  11.556   7.692
66342SOL     OW  864   1.269  13.734   1.280
66342SOL    HW1  865   1.191  13.683   1.297
66342SOL    HW2  866   1.274  13.740   1.185
66343SOL     OW  867  14.312  10.549   9.586
66343SOL    HW1  868  14.219  10.527   9.593
66343SOL    HW2  869  14.334  10.588   9.670
66344SOL     OW  870   8.508   8.776  12.247
66344SOL    HW1  871   8.554   8.697  12.221
66344SOL    HW2  872   8.512   8.776  12.343
66345SOL     OW  873   7.320  11.301  12.719
66345SOL    HW1  874   7.383  11.247  12.765
66345SOL    HW2  875   7.242  11.246  12.711
66346SOL     OW  876   5.064  10.476   7.295
66346SOL    HW1  877   4.980  10.520   7.277
66346SOL    HW2  878   5.099  10.522   7.371
66347SOL     OW  879  14.683   2.670   0.558
66347SOL    HW1  880  14.760   2.676   0.501
66347SOL    HW2  881  14.717   2.686   0.646
66348SOL     OW  882  13.436  10.437  13.529
66348SOL    HW1  883  13.416  10.513  13.475
66348SOL    HW2  884  13.476  10.474  13.608
66349SOL     OW  885   7.848   1.798   5.694
66349SOL    HW1  886   7.827   1.737   5.624
66349SOL    HW2  887   7.782   1.782   5.761
66350SOL     OW  888   1.096   2.240   6.401
66350SOL    HW1  889   1.174   2.259   6.453
66350SOL    HW2  890   1.040   2.189   6.459
66351SOL     OW  891   0.976  12.240   0.951
66351SOL    HW1  892   0.932  12.186   0.886
66351SOL    HW2  893   0.933  12.325   0.945
66352SOL     OW  894   4.198  13.902  12.139
66352SOL    HW1  895   4.109  13.932  12.158
66352SOL    HW2  896   4.204  13.816  12.180
66353SOL     OW  897  14.279  10.648   3.204
66353SOL    HW1  898  14.355  10.692   3.242
66353SOL    HW2  899  14.207  10.666   3.265
66354SOL     OW  900   9.073  12.679   3.120
66354SOL    HW1  901   9.011  12.743   3.084
66354SOL    HW2  902   9.020  12.600   3.132
66355SOL     OW  903   4.938   9.272  10.376
66355SOL    HW1  904   4.939   9.349  10.433
66355SOL    HW2  905   5.009   9.217  10.409
66356SOL     OW  906   7.934   1.748   6.905
66356SOL    HW1  907   7.847   1.708   6.909
66356SOL    HW2  908   7.922   1.825   6.849
66357SOL     OW  909   0.670   7.727   9.729
66357SOL    HW1  910   0.752   7.766   9.762
66357SOL    HW2  911   0.666   7.754   9.637
66358SOL     OW  912   4.793   5.348  12.717
66358SOL    HW1  913   4.789   5.253  12.705
66358SOL    HW2  914   4.874   5.362  12.766
66359SOL     OW  915   6.549   1.208   7.390
66359SOL    HW1  916   6.533   1.115   7.408
66359SOL    HW2  917   6.631   1.227   7.436
66360SOL     OW  918  12.958   8.898   4.926
66360SOL    HW1  919  12.988   8.968   4.985
66360SOL    HW2  920  12.877   8.866   4.966
66361SOL     OW  921   9.517  13.022   0.466
66361SOL    HW1  922   9.460  13.099   0.459
66361SOL    HW2  923   9.487  12.978   0.545
66362SOL     OW  924   3.328   4.321   1.312
66362SOL    HW1  925   3.270   4.291   1.383
66362SOL    HW2  926   3.322   4.417   1.316
66363SOL     OW  927   9.331   9.417   1.301
66363SOL    HW1  928   9.398   9.410   1.233
66363SOL    HW2  929   9.330   9.331   1.343
66364SOL     OW  930  13.457   2.867  10.652
66364SOL    HW1  931  13.387   2.933  10.652
66364SOL    HW2  932  13.464   2.840  10.560
66365SOL     OW  933   5.090   2.746   7.393
66365SOL    HW1  934   5.064   2.719   7.305
66365SOL    HW2  935   5.085   2.666   7.445
66366SOL     OW  936   5.510  11.067   6.518
66366SOL    HW1  937   5.449  11.017   6.572
66366SOL    HW2  938   5.491  11.159   6.539
66367SOL     OW  939   8.397   0.774   2.288
66367SOL    HW1  940   8.421   0.802   2.376
66367SOL    HW2  941   8.382   0.856   2.240
66368SOL     OW  942   4.514   1.088   6.976
66368SOL    HW1  943   4.567   1.011   6.954
66368SOL    HW2  944   4.475   1.067   7.060
66369SOL     OW  945  10.553   9.846   6.542
66369SOL    HW1  946  10.605   9.795   6.480
66369SOL    HW2  947  10.594   9.830   6.627
66370SOL     OW  948   1.779   5.628  11.465
66370SOL    HW1  949   1.861   5.588  11.435
66370SOL    HW2  950   1.713   5.600  11.401
66371SOL     OW  951   3.995   0.922   1.270
66371SOL    HW1  952   3.930   0.860   1.304
66371SOL    HW2  953   4.071   0.909   1.327
66372SOL     OW  954   5.996   8.429   9.511
66372SOL    HW1  955   5.900   8.437   9.508
66372SOL    HW2  956   6.013   8.395   9.599
66373SOL     OW  957   9.449   2.893   4.106
66373SOL    HW1  958   9.483   2.979   4.081
66373SOL    HW2  959   9.355   2.907   4.118
66374SOL     OW  960   6.996   2.834   1.691
66374SOL    HW1  961   6.906   2.830   1.659
66374SOL    HW2  962   7.043   2.772   1.635
66375SOL     OW  963  11.472   3.104   4.229
66375SOL    HW1  964  11.400   3.059   4.275
66375SOL    HW2  965  11.551   3.059   4.260
66376SOL     OW  966   5.362   6.446   9.122
66376SOL    HW1  967   5.397   6.361   9.096
66376SOL    HW2  968   5.440   6.499   9.141
66377SOL     OW  969   6.963  10.735   7.083
66377SOL    HW1  970   6.932  10.648   7.104
66377SOL    HW2  971   6.887  10.780   7.046
66378SOL     OW  972   8.176   0.610   2.201
66378SOL    HW1  973   8.268   0.634   2.215
66378SOL    HW2  974   8.157   0.546   2.269
66379SOL     OW  975   4.489  11.397   7.898
66379SOL    HW1  976   4.580  11.391   7.867
66379SOL    HW2  977   4.467  11.489   7.890
66380SOL     OW  978  12.038   6.753  14.491
66380SOL    HW1  979  11.946   6.733  14.505
66380SOL    HW2  980  12.038   6.843  14.460
66381SOL     OW  981   3.357   0.141   8.263
66381SOL    HW1  982   3.336   0.059   8.308
66381SOL    HW2  983   3.305   0.138   8.183
66382SOL     OW  984  10.985   4.524   7.880
66382SOL    HW1  985  11.025   4.609   7.901
66382SOL    HW2  986  11.038   4.491   7.807
66383SOL     OW  987   8.888   0.008  10.290
66383SOL    HW1  988   8.903  14.790  10.314
66383SOL    HW2  989   8.962   0.055  10.329
66384SOL     OW  990  12.111  11.147   9.029
66384SOL    HW1  991  12.065  11.212   8.977
66384SOL    HW2  992  12.141  11.194   9.106
66385SOL     OW  993   1.982   2.317   9.717
66385SOL    HW1  994   2.051   2.281   9.661
66385SOL    HW2  995   1.903   2.311   9.664
66386SOL     OW  996   1.970  11.630   1.167
66386SOL    HW1  997   2.019  11.700   1.211
66386SOL    HW2  998   2.025  11.604   1.094
66387SOL     OW  999   5.389   5.551   1.992
66387SOL    HW1 1000   5.329   5.505   1.933
66387SOL    HW2 1001   5.339   5.564   2.073
66388SOL     OW 1002   5.018   7.778   9.583
66388SOL    HW1 1003   5.016   7.699   9.637
66388SOL    HW2 1004   5.090   7.762   9.521
66389SOL     OW 1005   4.634   4.185   9.134
66389SOL    HW1 1006   4.728   4.166   9.140
66389SOL    HW2 1007   4.596   4.106   9.094
66390SOL     OW 1008   8.207   5.039  10.795
66390SOL    HW1 1009   8.247   5.087  10.723
66390SOL    HW2 1010   8.131   4.996  10.756
66391SOL     OW 1011  13.022   4.552   7.552
66391SOL    HW1 1012  13.055   4.599   7.475
66391SOL    HW2 1013  13.101   4.523   7.598
66392SOL     OW 1014   6.522   8.696  12.012
66392SOL    HW1 1015   6.513   8.671  11.920
66392SOL    HW2 1016   6.453   8.648  12.057
66393SOL     OW 1017   2.990   9.426   9.602
66393SOL    HW1 1018   2.930   9.391   9.667
66393SOL    HW2 1019   2.935   9.479   9.544
66394SOL     OW 1020  10.328   1.034   5.400
66394SOL    HW1 1021  10.326   0.940   5.381
66394SOL    HW2 1022  10.307   1.076   5.317
66395SOL     OW 1023   8.966   4.562   4.877
66395SOL    HW1 1024   8.985   4.547   4.784
66395SOL    HW2 1025   8.885   4.613   4.877
66396SOL     OW 1026   3.020   8.309   5.957
66396SOL    HW1 1027   3.082   8.330   5.886
66396SOL    HW2 1028   2.960   8.245   5.918
66397SOL     OW 1029  14.590   6.559   9.947
66397SOL    HW1 1030  14.607   6.653   9.942
66397SOL    HW2 1031  14.521   6.550  10.012
66398SOL     OW 1032   2.791   9.139   6.090
66398SOL    HW1 1033   2.737   9.070   6.052
66398SOL    HW2 1034   2.734   9.216   6.090
66399SOL     OW 1035   6.520   9.265  11.620
66399SOL    HW1 1036   6.587   9.334  11.616
66399SOL    HW2 1037   6.448   9.304  11.669
66400SOL     OW 1038   9.917  11.123   9.858
66400SOL    HW1 1039   9.983  11.066   9.818
66400SOL    HW2 1040   9.953  11.146   9.943
66401SOL     OW 1041   2.056  13.981   0.606
66401SOL    HW1 1042   2.032  13.899   0.650
66401SOL    HW2 1043   2.043  14.049   0.672
66402SOL     OW 1044   6.893   0.842   4.869
66402SOL    HW1 1045   6.835   0.778   4.828
66402SOL    HW2 1046   6.844   0.924   4.869
66403SOL     OW 1047   3.477   4.101   1.204
66403SOL    HW1 1048   3.430   4.176   1.240
66403SOL    HW2 1049   3.458   4.103   1.110
66404SOL     OW 1050  12.411   4.556   3.399
66404SOL    HW1 1051  12.436   4.464   3.394
66404SOL    HW2 1052  12.488   4.604   3.372
66405SOL     OW 1053   0.860   5.275   1.202
66405SOL    HW1 1054   0.812   5.194   1.216
66405SOL    HW2 1055   0.792   5.343   1.202
66406SOL     OW 1056  12.070   5.680   9.380
66406SOL    HW1 1057  12.089   5.647   9.468
66406SOL    HW2 1058  12.146   5.734   9.358
66407SOL     OW 1059   5.066   9.209  14.239
66407SOL    HW1 1060   5.103   9.167  14.316
66407SOL    HW2 1061   5.082   9.303  14.253
66408SOL     OW 1062  13.910  13.934   5.046
66408SOL    HW1 1063  13.831  13.913   4.996
66408SOL    HW2 1064  13.934  14.022   5.017
66409SOL     OW 1065   0.722   7.733   8.999
66409SOL    HW1 1066   0.795   7.713   8.941
66409SOL    HW2 1067   0.748   7.814   9.044
66410SOL     OW 1068   6.449   8.573  14.354
66410SOL    HW1 1069   6.466   8.665  14.376
66410SOL    HW2 1070   6.528   8.527  14.381
66411SOL     OW 1071   6.082   5.094   4.771
66411SOL    HW1 1072   6.157   5.073   4.716
66411SOL    HW2 1073   6.066   5.187   4.756
66412SOL     OW 1074   9.512  13.487   3.870
66412SOL    HW1 1075   9.426  13.527   3.883
66412SOL    HW2 1076   9.568  13.561   3.845
66413SOL     OW 1077   8.552   4.445   9.614
66413SOL    HW1 1078   8.614   4.400   9.555
66413SOL    HW2 1079   8.607   4.503   9.666
66414SOL     OW 1080   5.035  11.234  13.182
66414SOL    HW1 1081   5.121  11.249  13.223
66414SOL    HW2 1082   5.011  11.319  13.146
66415SOL     OW 1083  11.784  13.007   3.697
66415SOL    HW1 1084  11.839  12.934   3.666
66415SOL    HW2 1085  11.755  13.051   3.617
66416SOL     OW 1086   5.186   0.459   9.412
66416SOL    HW1 1087   5.253   0.515   9.373
66416SOL    HW2 1088   5.154   0.405   9.340
66417SOL     OW 1089   9.796   2.810   5.197
66417SOL    HW1 1090   9.877   2.860   5.193
66417SOL    HW2 1091   9.774   2.791   5.106
66418SOL     OW 1092   2.461   7.174   8.523
66418SOL    HW1 1093   2.493   7.167   8.433
66418SOL    HW2 1094   2.494   7.096   8.567
66419SOL     OW 1095   3.710   8.360   2.940
66419SOL    HW1 1096   3.629   8.397   2.974
66419SOL    HW2 1097   3.706   8.267   2.962
66420SOL     OW 1098  12.274   2.339   3.900
66420SOL    HW1 1099  12.233   2.300   3.823
66420SOL    HW2 1100  12.368   2.338   3.881
66421SOL     OW 1101   1.796  12.983   1.241
66421SOL    HW1 1102   1.841  13.001   1.323
66421SOL    HW2 1103   1.749  12.901   1.257
66422SOL     OW 1104  11.165   0.820   4.982
66422SOL    HW1 1105  11.136   0.775   5.062
66422SOL    HW2 1106  11.112   0.899   4.978
66423SOL     OW 1107  13.897  12.471  14.398
66423SOL    HW1 1108  13.926  12.535  14.333
66423SOL    HW2 1109  13.852  12.403  14.347
66424SOL     OW 1110   3.984   8.985   1.233
66424SOL    HW1 1111   3.931   9.063   1.246
66424SOL    HW2 1112   4.039   9.005   1.157
66425SOL     OW 1113  14.653   3.091   3.556
66425SOL    HW1 1114  14.709   3.151   3.508
66425SOL    HW2 1115  14.662   3.118   3.647
66426SOL     OW 1116   8.015  11.010   0.186
66426SOL    HW1 1117   7.976  10.923   0.194
66426SOL    HW2 1118   8.099  11.004   0.231
66427SOL     OW 1119   6.263   8.565   9.549
66427SOL    HW1 1120   6.196   8.579   9.483
66427SOL    HW2 1121   6.222   8.591   9.631
66428SOL     OW 1122  12.418  11.461   4.076
66428SOL    HW1 1123  12.492  11.523   4.078
66428SOL    HW2 1124  12.340  11.516   4.084
66429SOL     OW 1125  11.730   6.809   7.665
66429SOL    HW1 1126  11.818   6.773   7.652
66429SOL    HW2 1127  11.742   6.880   7.727
66430SOL     OW 1128   4.005   6.730  14.498
66430SOL    HW1 1129   3.955   6.660  14.458
66430SOL    HW2 1130   4.087   6.689  14.525
66431SOL     OW 1131  14.149  10.191  10.978
66431SOL    HW1 1132  14.163  10.102  10.945
66431SOL    HW2 1133  14.237  10.228  10.985
66432SOL     OW 1134  14.606   7.180   1.222
66432SOL    HW1 1135  14.568   7.256   1.179
66432SOL    HW2 1136  14.538   7.152   1.284
66433SOL     OW 1137   8.265   2.343   2.226
66433SOL    HW1 1138   8.244   2.436   2.233
66433SOL    HW2 1139   8.361   2.340   2.221
66434SOL     OW 1140   2.391   4.407  10.484
66434SOL    HW1 1141   2.344   4.357  10.551
66434SOL    HW2 1142   2.482   4.378  10.491
66435SOL     OW 1143   9.816   7.082  10.603
66435SOL    HW1 1144   9.799   7.082  10.508
66435SOL    HW2 1145   9.817   7.174  10.627
66436SOL     OW 1146   1.108   5.674  12.921
66436SOL    HW1 1147   1.027   5.630  12.896
66436SOL    HW2 1148   1.104   5.679  13.017
66437SOL     OW 1149  11.342   5.332   8.742
66437SOL    HW1 1150  11.341   5.348   8.647
66437SOL    HW2 1151  11.329   5.418   8.781
66438SOL     OW 1152   0.452  13.885   1.925
66438SOL    HW1 1153   0.467  13.973   1.961
66438SOL    HW2 1154   0.524  13.832   1.959
66439SOL     OW 1155   7.181   6.381   9.404
66439SOL    HW1 1156   7.220   6.347   9.484
66439SOL    HW2 1157   7.113   6.441   9.434
66440SOL     OW 1158   3.657  11.551   9.926
66440SOL    HW1 1159   3.665  11.539   9.832
66440SOL    HW2 1160   3.730  11.608   9.950
66441SOL     OW 1161  12.526   2.046  11.150
66441SOL    HW1 1162  12.614   2.009  11.153
66441SOL    HW2 1163  12.472   1.976  11.113
66442SOL     OW 1164   0.809   2.802  13.153
66442SOL    HW1 1165   0.726   2.770  13.188
66442SOL    HW2 1166   0.808   2.775  13.061
66443SOL     OW 1167   9.667  11.086   3.827
66443SOL    HW1 1168   9.614  11.166   3.821
66443SOL    HW2 1169   9.736  11.098   3.762
66444SOL     OW 1170  10.707   8.029  10.362
66444SOL    HW1 1171  10.652   8.072  10.428
66444SOL    HW2 1172  10.769   8.096  10.335
66445SOL     OW 1173   1.338  12.779  13.775
66445SOL    HW1 1174   1.372  12.695  13.745
66445SOL    HW2 1175   1.344  12.836  13.698
66446SOL     OW 1176   6.140   9.199  12.575
66446SOL    HW1 1177   6.200   9.125  12.583
66446SOL    HW2 1178   6.180   9.269  12.627
66447SOL     OW 1179   2.631   6.733   9.417
66447SOL    HW1 1180   2.657   6.822   9.445
66447SOL    HW2 1181   2.537   6.731   9.432
66448SOL     OW 1182   0.976   2.992  14.054
66448SOL    HW1 1183   0.921   2.952  14.122
66448SOL    HW2 1184   0.985   2.924  13.987
66449SOL     OW 1185   8.298  10.109   0.882
66449SOL    HW1 1186   8.291  10.015   0.866
66449SOL    HW2 1187   8.210  10.135   0.911
66450SOL     OW 1188   0.502   7.409  10.270
66450SOL    HW1 1189   0.533   7.451  10.190
66450SOL    HW2 1190   0.419   7.454  10.289
66451SOL     OW 1191  13.534   7.766  12.277
66451SOL    HW1 1192  13.612   7.792  12.326
66451SOL    HW2 1193  13.466   7.758  12.343
66452SOL     OW 1194  14.826   5.366   7.595
66452SOL    HW1 1195  14.775   5.311   7.656
66452SOL    HW2 1196  14.806   5.456   7.623
66453SOL     OW 1197   7.163   0.922   7.803
66453SOL    HW1 1198   7.212   0.944   7.883
66453SOL    HW2 1199   7.112   0.844   7.827
66454SOL     OW 1200  12.778   3.741   4.429
66454SOL    HW1 1201  12.699   3.723   4.480
66454SOL    HW2 1202  12.849   3.735   4.492
66455SOL     OW 1203  12.771   1.294   7.456
66455SOL    HW1 1204  12.720   1.267   7.380
66455SOL    HW2 1205  12.707   1.329   7.517
66456SOL     OW 1206  12.197   5.640   8.651
66456SOL    HW1 1207  12.254   5.563   8.650
66456SOL    HW2 1208  12.136   5.623   8.723
66457SOL     OW 1209  11.498   6.236  12.368
66457SOL    HW1 1210  11.569   6.177  12.394
66457SOL    HW2 1211  11.541   6.303  12.315
66458SOL     OW 1212   9.321  11.198   8.046
66458SOL    HW1 1213   9.265  11.275   8.059
66458SOL    HW2 1214   9.378  11.222   7.973
66459SOL     OW 1215   6.886  12.542   0.766
66459SOL    HW1 1216   6.973  12.545   0.805
66459SOL    HW2 1217   6.860  12.633   0.758
66460SOL     OW 1218   0.894  10.271   1.059
66460SOL    HW1 1219   0.919  10.191   1.104
66460SOL    HW2 1220   0.860  10.242   0.975
66461SOL     OW 1221   1.123   2.576   8.030
66461SOL    HW1 1222   1.205   2.545   8.069
66461SOL    HW2 1223   1.111   2.520   7.953
66462SOL     OW 1224   9.449   0.149   9.704
66462SOL    HW1 1225   9.377   0.197   9.661
66462SOL    HW2 1226   9.411   0.064   9.726
66463SOL     OW 1227   1.735   2.155   9.535
66463SOL    HW1 1228   1.663   2.216   9.518
66463SOL    HW2 1229   1.715   2.078   9.481
66464SOL     OW 1230   0.626   3.644   9.275
66464SOL    HW1 1231   0.564   3.585   9.318
66464SOL    HW2 1232   0.708   3.631   9.323
66465SOL     OW 1233   3.773  10.206  13.640
66465SOL    HW1 1234   3.842  10.257  13.598
66465SOL    HW2 1235   3.702  10.205  13.576
66466SOL     OW 1236   6.937  11.793   8.468
66466SOL    HW1 1237   7.031  11.793   8.449
66466SOL    HW2 1238   6.932  11.800   8.564
66467SOL     OW 1239   2.559  12.203   5.477
66467SOL    HW1 1240   2.580  12.113   5.501
66467SOL    HW2 1241   2.590  12.211   5.387
66468SOL     OW 1242   0.366   7.988   5.050
66468SOL    HW1 1243   0.303   8.054   5.021
66468SOL    HW2 1244   0.321   7.905   5.038
66469SOL     OW 1245   5.901   7.117   8.956
66469SOL    HW1 1246   5.821   7.168   8.962
66469SOL    HW2 1247   5.952   7.143   9.033
66470SOL     OW 1248   6.114   8.317  14.247
66470SOL    HW1 1249   6.179   8.305  14.315
66470SOL    HW2 1250   6.156   8.377  14.184
66471SOL     OW 1251  10.490   1.453   5.465
66471SOL    HW1 1252  10.464   1.446   5.373
66471SOL    HW2 1253  10.454   1.375   5.507
66472SOL     OW 1254   4.156   7.459   9.401
66472SOL    HW1 1255   4.174   7.538   9.350
66472SOL    HW2 1256   4.166   7.387   9.339
66473SOL     OW 1257   8.773  10.100   5.985
66473SOL    HW1 1258   8.827  10.046   5.928
66473SOL    HW2 1259   8.685  10.094   5.946
66474SOL     OW 1260  11.378  14.169   5.114
66474SOL    HW1 1261  11.424  14.124   5.043
66474SOL    HW2 1262  11.285  14.159   5.093
66475SOL     OW 1263  11.726  13.369  12.531
66475SOL    HW1 1264  11.757  13.439  12.473
66475SOL    HW2 1265  11.770  13.385  12.614
66476SOL     OW 1266   2.398   0.853   4.153
66476SOL    HW1 1267   2.456   0.821   4.222
66476SOL    HW2 1268   2.444   0.929   4.117
66477SOL     OW 1269   3.033  13.788   8.913
66477SOL    HW1 1270   3.082  13.867   8.889
66477SOL    HW2 1271   2.979  13.815   8.986
66478SOL     OW 1272  11.469  13.021   0.382
66478SOL    HW1 1273  11.377  12.994   0.376
66478SOL    HW2 1274  11.503  12.974   0.458
66479SOL     OW 1275  10.845  13.007   1.766
66479SOL    HW1 1276  10.846  13.089   1.716
66479SOL    HW2 1277  10.753  12.983   1.772
66480SOL     OW 1278  12.354  14.751   8.668
66480SOL    HW1 1279  12.407  14.686   8.621
66480SOL    HW2 1280  12.399  14.763   8.751
66481SOL     OW 1281   1.649  11.496   0.064
66481SOL    HW1 1282   1.589  11.423   0.047
66481SOL    HW2 1283   1.636  11.556  14.864
66482SOL     OW 1284   0.183  12.820  11.488
66482SOL    HW1 1285   0.114  12.764  11.455
66482SOL    HW2 1286   0.175  12.815  11.583
66483SOL     OW 1287  13.303   5.692  11.356
66483SOL    HW1 1288  13.356   5.745  11.416
66483SOL    HW2 1289  13.235   5.654  11.411
66484SOL     OW 1290   4.628  14.329   8.207
66484SOL    HW1 1291   4.558  14.330   8.272
66484SOL    HW2 1292   4.655  14.237   8.202
66485SOL     OW 1293   8.811  10.679   4.200
66485SOL    HW1 1294   8.814  10.585   4.220
66485SOL    HW2 1295   8.856  10.720   4.274
66486SOL     OW 1296   1.848  11.677   6.605
66486SOL    HW1 1297   1.813  11.629   6.530
66486SOL    HW2 1298   1.776  11.679   6.668
66487SOL     OW 1299  14.010  14.244  11.963
66487SOL    HW1 1300  14.079  14.288  12.013
66487SOL    HW2 1301  14.057  14.178  11.911
66488SOL     OW 1302   4.874   6.875  14.272
66488SOL    HW1 1303   4.884   6.941  14.204
66488SOL    HW2 1304   4.874   6.792  14.224
66489SOL     OW 1305  14.019   7.690  12.693
66489SOL    HW1 1306  14.102   7.708  12.649
66489SOL    HW2 1307  14.038   7.701  12.786
66490SOL     OW 1308  12.076   6.780   7.298
66490SOL    HW1 1309  12.016   6.722   7.345
66490SOL    HW2 1310  12.053   6.868   7.328
66491SOL     OW 1311   4.312   8.943   5.224
66491SOL    HW1 1312   4.388   8.901   5.183
66491SOL    HW2 1313   4.236   8.898   5.187
66492SOL     OW 1314   5.610   9.633   6.831
66492SOL    HW1 1315   5.678   9.624   6.897
66492SOL    HW2 1316   5.635   9.710   6.780
66493SOL     OW 1317   3.279  13.842   2.694
66493SOL    HW1 1318   3.251  13.827   2.785
66493SOL    HW2 1319   3.350  13.906   2.701
66494SOL     OW 1320   1.919   3.021   0.091
66494SOL    HW1 1321   1.956   3.091   0.037
66494SOL    HW2 1322   1.838   3.059   0.127
66495SOL     OW 1323   0.257   9.941   3.443
66495SOL    HW1 1324   0.298   9.863   3.479
66495SOL    HW2 1325   0.163   9.927   3.456
66496SOL     OW 1326   8.843   6.976   1.986
66496SOL    HW1 1327   8.904   6.995   1.915
66496SOL    HW2 1328   8.759   6.963   1.941
66497SOL     OW 1329  13.708  13.303   2.821
66497SOL    HW1 1330  13.763  13.362   2.872
66497SOL    HW2 1331  13.763  13.276   2.747
66498SOL     OW 1332   2.369   3.602  11.432
66498SOL    HW1 1333   2.462   3.612  11.455
66498SOL    HW2 1334   2.330   3.687  11.451
66499SOL     OW 1335  10.290  13.350   0.488
66499SOL    HW1 1336  10.287  13.379   0.397
66499SOL    HW2 1337  10.270  13.428   0.539
66500SOL     OW 1338  10.892  12.095   4.530
66500SOL    HW1 1339  10.898  12.176   4.480
66500SOL    HW2 1340  10.837  12.037   4.477
66501SOL     OW 1341   9.433   4.655  10.649
66501SOL    HW1 1342   9.384   4.573  10.659
66501SOL    HW2 1343   9.461   4.655  10.558
66502SOL     OW 1344   2.822   8.674  12.899
66502SOL    HW1 1345   2.811   8.744  12.964
66502SOL    HW2 1346   2.793   8.595  12.945
66503SOL     OW 1347   4.388   5.948   2.659
66503SOL    HW1 1348   4.392   5.917   2.568
66503SOL    HW2 1349   4.463   5.906   2.702
66504SOL     OW 1350   4.929   8.434   7.043
66504SOL    HW1 1351   4.876   8.410   7.119
66504SOL    HW2 1352   4.934   8.530   7.047
66505SOL     OW 1353   9.141   1.044   6.529
66505SOL    HW1 1354   9.144   0.970   6.589
66505SOL    HW2 1355   9.230   1.051   6.494
66506SOL     OW 1356   0.152   7.669   1.270
66506SOL    HW1 1357   0.113   7.582   1.265
66506SOL    HW2 1358   0.246   7.654   1.261
66507SOL     OW 1359  10.587   7.177   7.065
66507SOL    HW1 1360  10.599   7.267   7.035
66507SOL    HW2 1361  10.600   7.182   7.160
66508SOL     OW 1362   9.227   9.504  11.953
66508SOL    HW1 1363   9.207   9.560  11.878
66508SOL    HW2 1364   9.222   9.415  11.920
66509SOL     OW 1365   9.434   2.435  10.603
66509SOL    HW1 1366   9.403   2.357  10.557
66509SOL    HW2 1367   9.390   2.431  10.688
66510SOL     OW 1368   1.587   3.668   7.170
66510SOL    HW1 1369   1.582   3.709   7.257
66510SOL    HW2 1370   1.526   3.718   7.116
66511SOL     OW 1371   3.460  12.373   8.545
66511SOL    HW1 1372   3.413  12.316   8.606
66511SOL    HW2 1373   3.504  12.314   8.485
66512SOL     OW 1374  13.043   9.001  14.229
66512SOL    HW1 1375  13.115   8.960  14.181
66512SOL    HW2 1376  13.086   9.061  14.290
66513SOL     OW 1377   7.016  11.596   9.722
66513SOL    HW1 1378   7.039  11.602   9.815
66513SOL    HW2 1379   6.984  11.683   9.700
66514SOL     OW 1380  14.192  12.146  11.593
66514SOL    HW1 1381  14.163  12.150  11.684
66514SOL    HW2 1382  14.287  12.143  11.598
66515SOL     OW 1383  13.677   3.897  12.823
66515SOL    HW1 1384  13.600   3.952  12.839
66515SOL    HW2 1385  13.645   3.807  12.833
66516SOL     OW 1386   3.425  13.736   9.579
66516SOL    HW1 1387   3.436  13.641   9.581
66516SOL    HW2 1388   3.513  13.770   9.565
66517SOL     OW 1389   7.352  13.956   1.545
66517SOL    HW1 1390   7.374  13.862   1.542
66517SOL    HW2 1391   7.259  13.958   1.568
66518SOL     OW 1392   0.299   3.583   4.453
66518SOL    HW1 1393   0.309   3.493   4.485
66518SOL    HW2 1394   0.205   3.598   4.452
66519SOL     OW 1395   8.592   8.477   4.721
66519SOL    HW1 1396   8.670   8.452   4.771
66519SOL    HW2 1397   8.532   8.404   4.732
66520SOL     OW 1398   7.463   8.471   5.023
66520SOL    HW1 1399   7.524   8.545   5.021
66520SOL    HW2 1400   7.422   8.472   4.937
66521SOL     OW 1401   0.974   0.534  14.015
66521SOL    HW1 1402   1.029   0.551  14.091
66521SOL    HW2 1403   1.020   0.577  13.942
66522SOL     OW 1404   6.974   6.708  10.822
66522SOL    HW1 1405   7.054   6.688  10.774
66522SOL    HW2 1406   6.904   6.690  10.759
66523SOL     OW 1407   7.802  13.228   4.190
66523SOL    HW1 1408   7.715  13.212   4.154
66523SOL    HW2 1409   7.861  13.219   4.115
66524SOL     OW 1410   9.396  11.723   9.393
66524SOL    HW1 1411   9.485  11.691   9.382
66524SOL    HW2 1412   9.361  11.671   9.465
66525SOL     OW 1413  14.148   2.910   1.318
66525SOL    HW1 1414  14.179   2.829   1.358
66525SOL    HW2 1415  14.072   2.935   1.371
66526SOL     OW 1416  11.989   2.894  11.240
66526SOL    HW1 1417  12.066   2.841  11.260
66526SOL    HW2 1418  12.015   2.947  11.166
66527SOL     OW 1419  13.855   2.705   7.573
66527SOL    HW1 1420  13.892   2.730   7.489
66527SOL    HW2 1421  13.899   2.623   7.596
66528SOL     OW 1422   8.905   9.135   5.475
66528SOL    HW1 1423   8.919   9.185   5.395
66528SOL    HW2 1424   8.921   9.198   5.546
66529SOL     OW 1425   3.659   1.670   1.375
66529SOL    HW1 1426   3.665   1.608   1.303
66529SOL    HW2 1427   3.661   1.616   1.454
66530SOL     OW 1428  11.925   5.234   4.294
66530SOL    HW1 1429  11.913   5.306   4.356
66530SOL    HW2 1430  11.931   5.156   4.349
66531SOL     OW 1431   3.174   2.194  14.817
66531SOL    HW1 1432   3.268   2.186  14.835
66531SOL    HW2 1433   3.150   2.278  14.857
66532SOL     OW 1434   4.505   1.955   3.789
66532SOL    HW1 1435   4.444   1.959   3.715
66532SOL    HW2 1436   4.587   1.925   3.750
66533SOL     OW 1437  14.032   7.768  13.715
66533SOL    HW1 1438  13.971   7.827  13.758
66533SOL    HW2 1439  14.118   7.791  13.751
66534SOL     OW 1440   1.925   0.410   4.179
66534SOL    HW1 1441   1.923   0.502   4.206
66534SOL    HW2 1442   2.001   0.404   4.122
66535SOL     OW 1443   6.911   7.047  14.129
66535SOL    HW1 1444   6.868   7.041  14.043
66535SOL    HW2 1445   7.004   7.046  14.109
66536SOL     OW 1446  14.248   3.293  12.502
66536SOL    HW1 1447  14.301   3.371  12.485
66536SOL    HW2 1448  14.283   3.226  12.443
66537SOL     OW 1449  11.279   6.849   7.883
66537SOL    HW1 1450  11.277   6.753   7.889
66537SOL    HW2 1451  11.238   6.879   7.964
66538SOL     OW 1452   6.016   7.966   3.141
66538SOL    HW1 1453   6.003   8.034   3.208
66538SOL    HW2 1454   6.109   7.945   3.145
66539SOL     OW 1455   6.351   2.221   4.823
66539SOL    HW1 1456   6.397   2.245   4.904
66539SOL    HW2 1457   6.386   2.135   4.800
66540SOL     OW 1458   1.488   3.120  12.228
66540SOL    HW1 1459   1.546   3.190  12.257
66540SOL    HW2 1460   1.411   3.166  12.193
66541SOL     OW 1461   6.863   7.487  13.645
66541SOL    HW1 1462   6.900   7.466  13.559
66541SOL    HW2 1463   6.776   7.447  13.642
66542SOL     OW 1464   7.682   2.950  11.794
66542SOL    HW1 1465   7.642   2.883  11.739
66542SOL    HW2 1466   7.764   2.971  11.750
66543SOL     OW 1467   5.637   5.518   6.608
66543SOL    HW1 1468   5.698   5.555   6.545
66543SOL    HW2 1469   5.682   5.441   6.642
66544SOL     OW 1470   9.548   6.352   6.308
66544SOL    HW1 1471   9.523   6.420   6.245
66544SOL    HW2 1472   9.640   6.371   6.328
66545SOL     OW 1473   6.605   2.360   4.489
66545SOL    HW1 1474   6.664   2.292   4.455
66545SOL    HW2 1475   6.517   2.329   4.467
66546SOL     OW 1476   3.225   8.856   1.886
66546SOL    HW1 1477   3.316   8.837   1.909
66546SOL    HW2 1478   3.207   8.801   1.811
66547SOL     OW 1479   1.531  11.478   6.764
66547SOL    HW1 1480   1.585  11.489   6.841
66547SOL    HW2 1481   1.441  11.472   6.798
66548SOL     OW 1482   1.670   7.453   1.280
66548SOL    HW1 1483   1.628   7.527   1.236
66548SOL    HW2 1484   1.720   7.493   1.351
66549SOL     OW 1485   8.182   4.455   7.131
66549SOL    HW1 1486   8.203   4.428   7.041
66549SOL    HW2 1487   8.241   4.405   7.186
66550SOL     OW 1488   6.064   9.912   9.201
66550SOL    HW1 1489   6.141   9.855   9.206
66550SOL    HW2 1490   6.045   9.917   9.107
66551SOL     OW 1491   9.597   1.750   4.112
66551SOL    HW1 1492   9.558   1.795   4.038
66551SOL    HW2 1493   9.654   1.815   4.153
66552SOL     OW 1494   7.906  11.157   8.332
66552SOL    HW1 1495   7.822  11.201   8.317
66552SOL    HW2 1496   7.960  11.224   8.375
66553SOL     OW 1497  14.021   9.341  10.635
66553SOL    HW1 1498  14.080   9.394  10.582
66553SOL    HW2 1499  14.023   9.382  10.721
66554SOL     OW 1500   5.445  12.688   4.827
66554SOL    HW1 1501   5.522  12.632   4.826
66554SOL    HW2 1502   5.475  12.771   4.789
66555SOL     OW 1503   6.815   2.775  12.938
66555SOL    HW1 1504   6.895   2.801  12.892
66555SOL    HW2 1505   6.813   2.833  13.015
66556SOL     OW 1506   3.250   1.141  13.724
66556SOL    HW1 1507   3.204   1.118  13.643
66556SOL    HW2 1508   3.332   1.181  13.695
66557SOL     OW 1509  13.863   1.002   6.613
66557SOL    HW1 1510  13.869   1.097   6.622
66557SOL    HW2 1511  13.944   0.976   6.569
66558SOL     OW 1512  12.950   7.212   1.585
66558SOL    HW1 1513  12.898   7.137   1.557
66558SOL    HW2 1514  12.886   7.280   1.605
66559SOL     OW 1515   8.395  12.937  13.102
66559SOL    HW1 1516   8.395  12.848  13.069
66559SOL    HW2 1517   8.344  12.933  13.183
66560SOL     OW 1518  10.700   3.785  10.877
66560SOL    HW1 1519  10.628   3.754  10.932
66560SOL    HW2 1520  10.778   3.746  10.916
66561SOL     OW 1521   2.154  11.986  11.751
66561SOL    HW1 1522   2.167  11.907  11.699
66561SOL    HW2 1523   2.079  12.029  11.709
66562SOL     OW 1524  14.392   9.883   9.093
66562SOL    HW1 1525  14.446   9.934   9.033
66562SOL    HW2 1526  14.353   9.814   9.039
66563SOL     OW 1527  14.339   4.307   3.055
66563SOL    HW1 1528  14.399   4.303   2.981
66563SOL    HW2 1529  14.367   4.384   3.105
66564SOL     OW 1530  13.731  13.440  13.084
66564SOL    HW1 1531  13.773  13.361  13.119
66564SOL    HW2 1532  13.702  13.414  12.997
66565SOL     OW 1533  13.114   0.395   1.274
66565SOL    HW1 1534  13.171   0.348   1.334
66565SOL    HW2 1535  13.167   0.468   1.241
66566SOL     OW 1536   6.576   1.273   8.683
66566SOL    HW1 1537   6.558   1.331   8.758
66566SOL    HW2 1538   6.644   1.318   8.633
66567SOL     OW 1539   7.075   8.288   8.965
66567SOL    HW1 1540   7.108   8.283   8.876
66567SOL    HW2 1541   7.152   8.309   9.018
66568SOL     OW 1542  10.816  14.448  14.426
66568SOL    HW1 1543  10.863  14.378  14.381
66568SOL    HW2 1544  10.739  14.405  14.464
66569SOL     OW 1545  12.198  11.900   5.760
66569SOL    HW1 1546  12.246  11.897   5.843
66569SOL    HW2 1547  12.259  11.942   5.699
66570SOL     OW 1548   0.831   0.532  12.049
66570SOL    HW1 1549   0.919   0.568  12.061
66570SOL    HW2 1550   0.811   0.490  12.132
66571SOL     OW 1551   9.233   9.530   3.252
66571SOL    HW1 1552   9.300   9.534   3.184
66571SOL    HW2 1553   9.188   9.447   3.237
66572SOL     OW 1554   5.688   2.916   8.328
66572SOL    HW1 1555   5.712   2.826   8.351
66572SOL    HW2 1556   5.752   2.942   8.262
66573SOL     OW 1557   8.514   1.863   5.600
66573SOL    HW1 1558   8.443   1.889   5.542
66573SOL    HW2 1559   8.498   1.912   5.681
66574SOL     OW 1560   1.169  10.316  12.468
66574SOL    HW1 1561   1.181  10.227  12.500
66574SOL    HW2 1562   1.220  10.371  12.528
66575SOL     OW 1563  12.356   3.744   8.470
66575SOL    HW1 1564  12.412   3.811   8.432
66575SOL    HW2 1565  12.396   3.724   8.554
66576SOL     OW 1566  10.442   7.977   0.887
66576SOL    HW1 1567  10.413   8.068   0.888
66576SOL    HW2 1568  10.362   7.927   0.871
66577SOL     OW 1569   3.329   3.952   5.209
66577SOL    HW1 1570   3.402   3.918   5.260
66577SOL    HW2 1571   3.322   4.044   5.236
66578SOL     OW 1572   9.316  11.815  14.492
66578SOL    HW1 1573   9.404  11.851  14.497
66578SOL    HW2 1574   9.260  11.881  14.532
66579SOL     OW 1575  12.590   7.952   9.099
66579SOL    HW1 1576  12.544   7.901   9.032
66579SOL    HW2 1577  12.635   8.021   9.051
66580SOL     OW 1578  11.437   1.757   6.501
66580SOL    HW1 1579  11.420   1.843   6.540
66580SOL    HW2 1580  11.533   1.749   6.504
66581SOL     OW 1581  13.636   3.787  12.519
66581SOL    HW1 1582  13.632   3.852  12.590
66581SOL    HW2 1583  13.611   3.836  12.441
66582SOL     OW 1584   2.040   8.914   0.566
66582SOL    HW1 1585   2.070   8.859   0.639
66582SOL    HW2 1586   1.947   8.927   0.583
66583SOL     OW 1587   9.530   9.302   2.296
66583SOL    HW1 1588   9.479   9.228   2.330
66583SOL    HW2 1589   9.511   9.303   2.202
66584SOL     OW 1590   3.626   2.317   6.632
66584SOL    HW1 1591   3.540   2.293   6.665
66584SOL    HW2 1592   3.632   2.412   6.647
66585SOL     OW 1593  11.210   9.790   6.738
66585SOL    HW1 1594  11.169   9.746   6.663
66585SOL    HW2 1595  11.191   9.733   6.813
66586SOL     OW 1596   0.499   0.002  14.091
66586SOL    HW1 1597   0.521   0.084  14.137
66586SOL    HW2 1598   0.584  14.836  14.070
66587SOL     OW 1599   8.657  10.906  10.744
66587SOL    HW1 1600   8.752  10.915  10.738
66587SOL    HW2 1601   8.644  10.824  10.792
66588SOL     OW 1602   1.983  14.768   1.614
66588SOL    HW1 1603   2.069  14.749   1.575
66588SOL    HW2 1604   1.981  14.717   1.695
66589SOL     OW 1605   2.254  13.797   9.294
66589SOL    HW1 1606   2.213  13.792   9.381
66589SOL    HW2 1607   2.332  13.742   9.302
66590SOL     OW 1608   8.312   6.663   0.125
66590SOL    HW1 1609   8.222   6.671   0.157
66590SOL    HW2 1610   8.323   6.570   0.110
66591SOL     OW 1611   5.106  13.978   5.960
66591SOL    HW1 1612   5.106  13.885   5.935
66591SOL    HW2 1613   5.197  14.004   5.954
66592SOL     OW 1614   0.261   0.821   8.883
66592SOL    HW1 1615   0.172   0.789   8.864
66592SOL    HW2 1616   0.248   0.889   8.949
66593SOL     OW 1617   7.368   9.582   5.624
66593SOL    HW1 1618   7.308   9.655   5.614
66593SOL    HW2 1619   7.384   9.576   5.718
66594SOL     OW 1620   2.557   1.141   3.452
66594SOL    HW1 1621   2.535   1.047   3.450
66594SOL    HW2 1622   2.587   1.160   3.364
66595SOL     OW 1623   9.589   3.895   6.198
66595SOL    HW1 1624   9.547   3.846   6.128
66595SOL    HW2 1625   9.573   3.842   6.277
66596SOL     OW 1626   4.932   0.921   1.628
66596SOL    HW1 1627   4.915   0.853   1.563
66596SOL    HW2 1628   5.009   0.968   1.594
66597SOL     OW 1629  12.804   9.379   6.292
66597SOL    HW1 1630  12.891   9.384   6.330
66597SOL    HW2 1631  12.744   9.401   6.363
66598SOL     OW 1632  11.522   1.180   3.753
66598SOL    HW1 1633  11.519   1.241   3.679
66598SOL    HW2 1634  11.550   1.097   3.714
66599SOL     OW 1635   3.033  12.161   9.864
66599SOL    HW1 1636   3.065  12.250   9.876
66599SOL    HW2 1637   3.005  12.157   9.772
66600SOL     OW 1638  10.861   6.029  13.864
66600SOL    HW1 1639  10.856   5.957  13.926
66600SOL    HW2 1640  10.872   5.987  13.779
66601SOL     OW 1641   5.337   1.786  13.396
66601SOL    HW1 1642   5.325   1.880  13.410
66601SOL    HW2 1643   5.281   1.744  13.462
66602SOL     OW 1644   3.151   2.725   8.780
66602SOL    HW1 1645   3.063   2.699   8.810
66602SOL    HW2 1646   3.161   2.814   8.811
66603SOL     OW 1647   3.307   8.539   5.546
66603SOL    HW1 1648   3.397   8.534   5.579
66603SOL    HW2 1649   3.280   8.629   5.563
66604SOL     OW 1650   8.503   0.199   9.778
66604SOL    HW1 1651   8.580   0.176   9.830
66604SOL    HW2 1652   8.471   0.280   9.818
66605SOL     OW 1653   0.197   9.156  11.351
66605SOL    HW1 1654   0.176   9.204  11.431
66605SOL    HW2 1655   0.289   9.175  11.335
66606SOL     OW 1656   1.585   2.108   6.598
66606SOL    HW1 1657   1.596   2.194   6.639
66606SOL    HW2 1658   1.672   2.069   6.599
66607SOL     OW 1659   1.657   6.043   7.151
66607SOL    HW1 1660   1.681   6.132   7.174
66607SOL    HW2 1661   1.667   6.038   7.056
66608SOL     OW 1662  10.324   3.018   8.745
66608SOL    HW1 1663  10.233   3.033   8.771
66608SOL    HW2 1664  10.332   3.063   8.660
66609SOL     OW 1665   9.598  10.299  13.597
66609SOL    HW1 1666   9.614  10.309  13.691
66609SOL    HW2 1667   9.538  10.225  13.590
66610SOL     OW 1668  11.441   1.336  10.210
66610SOL    HW1 1669  11.479   1.387  10.138
66610SOL    HW2 1670  11.431   1.399  10.281
66611SOL     OW 1671   6.165   3.664  13.811
66611SOL    HW1 1672   6.125   3.716  13.741
66611SOL    HW2 1673   6.109   3.587  13.819
66612SOL     OW 1674  14.666   3.265   5.613
66612SOL    HW1 1675  14.711   3.243   5.531
66612SOL    HW2 1676  14.709   3.211   5.679
66613SOL     OW 1677  13.726  14.869   1.980
66613SOL    HW1 1678  13.778  14.854   2.059
66613SOL    HW2 1679  13.782  14.838   1.909
66614SOL     OW 1680   0.502  11.538   7.753
66614SOL    HW1 1681   0.553  11.562   7.675
66614SOL    HW2 1682   0.454  11.618   7.775
66615SOL     OW 1683   6.635   6.951  13.120
66615SOL    HW1 1684   6.560   6.913  13.076
66615SOL    HW2 1685   6.709   6.895  13.095
66616SOL     OW 1686   6.135   1.963   4.870
66616SOL    HW1 1687   6.106   1.986   4.959
66616SOL    HW2 1688   6.063   1.991   4.813
66617SOL     OW 1689   3.635   4.649  11.331
66617SOL    HW1 1690   3.720   4.692  11.340
66617SOL    HW2 1691   3.638   4.576  11.392
66618SOL     OW 1692  13.966  12.448   6.287
66618SOL    HW1 1693  13.999  12.403   6.209
66618SOL    HW2 1694  13.919  12.381   6.336
66619SOL     OW 1695   7.139  12.134   3.300
66619SOL    HW1 1696   7.130  12.131   3.395
66619SOL    HW2 1697   7.124  12.044   3.271
66620SOL     OW 1698  13.229   1.780   3.236
66620SOL    HW1 1699  13.157   1.798   3.175
66620SOL    HW2 1700  13.261   1.694   3.210
66621SOL     OW 1701   8.198  10.916  13.608
66621SOL    HW1 1702   8.133  10.845  13.610
66621SOL    HW2 1703   8.244  10.909  13.692
66622SOL     OW 1704   8.007   3.227   7.977
66622SOL    HW1 1705   8.081   3.173   7.950
66622SOL    HW2 1706   7.947   3.226   7.903
66623SOL     OW 1707   9.600   2.917   7.552
66623SOL    HW1 1708   9.534   2.986   7.544
66623SOL    HW2 1709   9.591   2.866   7.471
66624SOL     OW 1710   8.445  13.761   0.000
66624SOL    HW1 1711   8.466  13.792  14.785
66624SOL    HW2 1712   8.355  13.730  14.868
66625SOL     OW 1713   3.460   4.557   8.343
66625SOL    HW1 1714   3.471   4.464   8.323
66625SOL    HW2 1715   3.413   4.592   8.267
66626SOL     OW 1716   8.259  14.213  12.319
66626SOL    HW1 1717   8.289  14.147  12.257
66626SOL    HW2 1718   8.330  14.278  12.321
66627SOL     OW 1719   9.002   2.693   1.529
66627SOL    HW1 1720   9.060   2.713   1.455
66627SOL    HW2 1721   8.915   2.686   1.490
66628SOL     OW 1722  12.817  10.977   5.503
66628SOL    HW1 1723  12.852  10.962   5.415
66628SOL    HW2 1724  12.886  11.026   5.548
66629SOL     OW 1725   4.621   3.968   3.992
66629SOL    HW1 1726   4.538   3.967   4.040
66629SOL    HW2 1727   4.604   3.917   3.913
66630SOL     OW 1728   5.951  14.247   1.823
66630SOL    HW1 1729   5.959  14.193   1.745
66630SOL    HW2 1730   5.857  14.250   1.842
66631SOL     OW 1731  11.120  11.994   2.673
66631SOL    HW1 1732  11.065  12.072   2.673
66631SOL    HW2 1733  11.208  12.027   2.693
66632SOL     OW 1734  13.908  10.957   4.196
66632SOL    HW1 1735  13.900  11.046   4.161
66632SOL    HW2 1736  13.844  10.954   4.267
66633SOL     OW 1737  11.206  14.132  12.861
66633SOL    HW1 1738  11.203  14.080  12.781
66633SOL    HW2 1739  11.115  14.135  12.891
66634SOL     OW 1740   2.795  14.708  10.325
66634SOL    HW1 1741   2.856  14.770  10.366
66634SOL    HW2 1742   2.716  14.760  10.308
66635SOL     OW 1743  11.996   5.531   7.340
66635SOL    HW1 1744  12.051   5.556   7.265
66635SOL    HW2 1745  11.954   5.450   7.312
66636SOL     OW 1746   2.727   1.911   3.429
66636SOL    HW1 1747   2.738   1.821   3.460
66636SOL    HW2 1748   2.770   1.965   3.496
66637SOL     OW 1749  14.728  11.473  12.182
66637SOL    HW1 1750  14.793  11.443  12.246
66637SOL    HW2 1751  14.672  11.397  12.167
66638SOL     OW 1752  11.781   1.109   5.070
66638SOL    HW1 1753  11.818   1.187   5.112
66638SOL    HW2 1754  11.701   1.142   5.027
66639SOL     OW 1755   3.428   0.694  11.016
66639SOL    HW1 1756   3.410   0.719  10.925
66639SOL    HW2 1757   3.483   0.764  11.050
66640SOL     OW 1758   8.021   4.215   6.294
66640SOL    HW1 1759   8.101   4.262   6.270
66640SOL    HW2 1760   7.979   4.195   6.211
66641SOL     OW 1761  13.422   6.063   0.060
66641SOL    HW1 1762  13.412   6.020  14.848
66641SOL    HW2 1763  13.500   6.117   0.051
66642SOL     OW 1764   0.283   9.364  14.010
66642SOL    HW1 1765   0.300   9.414  14.090
66642SOL    HW2 1766   0.211   9.410  13.968
66643SOL     OW 1767   6.154   4.669   8.477
66643SOL    HW1 1768   6.188   4.646   8.391
66643SOL    HW2 1769   6.068   4.708   8.460
66644SOL     OW 1770   1.103   6.578  11.487
66644SOL    HW1 1771   1.100   6.673  11.495
66644SOL    HW2 1772   1.037   6.547  11.549
66645SOL     OW 1773   5.537  12.376   0.266
66645SOL    HW1 1774   5.590  12.418   0.199
66645SOL    HW2 1775   5.447  12.404   0.247
66646SOL     OW 1776   6.121   0.180  11.233
66646SOL    HW1 1777   6.082   0.100  11.198
66646SOL    HW2 1778   6.068   0.251  11.197
66647SOL     OW 1779   2.471   3.010   8.712
66647SOL    HW1 1780   2.478   2.985   8.619
66647SOL    HW2 1781   2.448   2.928   8.757
66648SOL     OW 1782  12.980   4.869   3.705
66648SOL    HW1 1783  12.928   4.920   3.642
66648SOL    HW2 1784  13.067   4.909   3.703
66649SOL     OW 1785   2.714   8.252   2.287
66649SOL    HW1 1786   2.719   8.255   2.383
66649SOL    HW2 1787   2.655   8.324   2.264
66650SOL     OW 1788   8.422   3.902  12.442
66650SOL    HW1 1789   8.346   3.954  12.418
66650SOL    HW2 1790   8.495   3.963  12.438
66651SOL     OW 1791   0.294   2.574   4.625
66651SOL    HW1 1792   0.326   2.539   4.541
66651SOL    HW2 1793   0.362   2.636   4.651
66652SOL     OW 1794   7.596   2.126  11.508
66652SOL    HW1 1795   7.581   2.032  11.495
66652SOL    HW2 1796   7.517   2.168  11.474
66653SOL     OW 1797   6.657  13.170   0.213
66653SOL    HW1 1798   6.734  13.224   0.227
66653SOL    HW2 1799   6.598  13.193   0.284
66654SOL     OW 1800  12.963   7.186   2.272
66654SOL    HW1 1801  13.045   7.143   2.248
66654SOL    HW2 1802  12.896   7.121   2.251
66655SOL     OW 1803   8.617   4.569  10.049
66655SOL    HW1 1804   8.684   4.584  10.115
66655SOL    HW2 1805   8.556   4.508  10.091
66656SOL     OW 1806   1.537  14.010   7.697
66656SOL    HW1 1807   1.592  14.066   7.642
66656SOL    HW2 1808   1.453  14.056   7.702
66657SOL     OW 1809   9.577   3.556   9.611
66657SOL    HW1 1810   9.601   3.539   9.520
66657SOL    HW2 1811   9.586   3.651   9.621
66658SOL     OW 1812   7.961   5.539   5.800
66658SOL    HW1 1813   7.869   5.522   5.781
66658SOL    HW2 1814   7.963   5.627   5.836
66659SOL     OW 1815   1.753  10.995   5.099
66659SOL    HW1 1816   1.752  10.928   5.167
66659SOL    HW2 1817   1.687  10.966   5.036
66660SOL     OW 1818   0.934   6.556  14.768
66660SOL    HW1 1819   0.853   6.552  14.716
66660SOL    HW2 1820   1.004   6.560  14.703
66661SOL     OW 1821  14.180   0.905   4.028
66661SOL    HW1 1822  14.263   0.878   4.069
66661SOL    HW2 1823  14.152   0.980   4.080
66662SOL     OW 1824   9.905   9.778   6.420
66662SOL    HW1 1825   9.909   9.686   6.392
66662SOL    HW2 1826   9.920   9.827   6.339
66663SOL     OW 1827   5.031   1.121   2.063
66663SOL    HW1 1828   5.065   1.096   2.149
66663SOL    HW2 1829   5.063   1.210   2.049
66664SOL     OW 1830   2.716   4.575   2.464
66664SOL    HW1 1831   2.670   4.627   2.530
66664SOL    HW2 1832   2.808   4.595   2.478
66665SOL     OW 1833   7.793   6.166  10.000
66665SOL    HW1 1834   7.752   6.131  10.080
66665SOL    HW2 1835   7.722   6.165   9.935
66666SOL     OW 1836   3.614   8.218  11.074
66666SOL    HW1 1837   3.558   8.295  11.081
66666SOL    HW2 1838   3.603   8.188  10.984
66667SOL     OW 1839   3.164  10.638   4.497
66667SOL    HW1 1840   3.084  10.684   4.472
66667SOL    HW2 1841   3.207  10.618   4.413
66668SOL     OW 1842   3.575   0.578   3.253
66668SOL    HW1 1843   3.617   0.663   3.264
66668SOL    HW2 1844   3.493   0.597   3.208
66669SOL     OW 1845   5.197   2.337  12.499
66669SOL    HW1 1846   5.128   2.276  12.476
66669SOL    HW2 1847   5.275   2.305  12.453
66670SOL     OW 1848   4.959  12.400   8.858
66670SOL    HW1 1849   4.969  12.376   8.766
66670SOL    HW2 1850   5.048  12.422   8.887
66671SOL     OW 1851  13.742   9.105   3.123
66671SOL    HW1 1852  13.764   9.016   3.151
66671SOL    HW2 1853  13.663   9.094   3.070
66672SOL     OW 1854   5.968  11.675   1.758
66672SOL    HW1 1855   5.900  11.608   1.765
66672SOL    HW2 1856   6.046  11.628   1.730
66673SOL     OW 1857  11.624   6.452  14.155
66673SOL    HW1 1858  11.583   6.538  14.157
66673SOL    HW2 1859  11.679   6.449  14.233
66674SOL     OW 1860   9.075   0.139  14.553
66674SOL    HW1 1861   8.994   0.153  14.504
66674SOL    HW2 1862   9.065   0.053  14.593
66675SOL     OW 1863   4.237   5.995   5.101
66675SOL    HW1 1864   4.242   5.955   5.188
66675SOL    HW2 1865   4.287   5.935   5.045
66676SOL     OW 1866   1.454   0.787  14.635
66676SOL    HW1 1867   1.462   0.746  14.721
66676SOL    HW2 1868   1.422   0.875  14.654
66677SOL     OW 1869   1.161  13.552  10.550
66677SOL    HW1 1870   1.078  13.597  10.564
66677SOL    HW2 1871   1.219  13.587  10.618
66678SOL     OW 1872   9.870  11.222   0.206
66678SOL    HW1 1873   9.839  11.176   0.284
66678SOL    HW2 1874   9.960  11.190   0.194
66679SOL     OW 1875   0.444   3.395   7.059
66679SOL    HW1 1876   0.473   3.305   7.047
66679SOL    HW2 1877   0.369   3.404   7.001
66680SOL     OW 1878   1.036  14.027  11.129
66680SOL    HW1 1879   1.080  14.111  11.146
66680SOL    HW2 1880   0.970  14.048  11.063
66681SOL     OW 1881  13.548   1.285  12.342
66681SOL    HW1 1882  13.575   1.348  12.410
66681SOL    HW2 1883  13.453   1.281  12.350
66682SOL     OW 1884   2.967  13.726   1.124
66682SOL    HW1 1885   2.932  13.733   1.212
66682SOL    HW2 1886   2.985  13.816   1.098
66683SOL     OW 1887   5.359   7.328   4.348
66683SOL    HW1 1888   5.453   7.338   4.362
66683SOL    HW2 1889   5.351   7.257   4.285
66684SOL     OW 1890  12.743  13.701   8.436
66684SOL    HW1 1891  12.774  13.743   8.516
66684SOL    HW2 1892  12.820  13.658   8.400
66685SOL     OW 1893   4.969   8.135   5.386
66685SOL    HW1 1894   4.979   8.088   5.469
66685SOL    HW2 1895   4.905   8.203   5.404
66686SOL     OW 1896   1.992  10.371  12.521
66686SOL    HW1 1897   2.086  10.388  12.512
66686SOL    HW2 1898   1.980  10.351  12.614
66687SOL     OW 1899   2.463   4.485  12.567
66687SOL    HW1 1900   2.433   4.544  12.636
66687SOL    HW2 1901   2.554   4.510  12.552
66688SOL     OW 1902   9.283  11.762   8.187
66688SOL    HW1 1903   9.342  11.817   8.239
66688SOL    HW2 1904   9.199  11.767   8.233
66689SOL     OW 1905   2.020   7.758  14.838
66689SOL    HW1 1906   1.982   7.672  14.822
66689SOL    HW2 1907   2.079   7.773  14.764
66690SOL     OW 1908   7.146   5.728  11.225
66690SOL    HW1 1909   7.078   5.740  11.290
66690SOL    HW2 1910   7.194   5.811  11.223
66691SOL     OW 1911   9.643   6.507   9.736
66691SOL    HW1 1912   9.592   6.566   9.680
66691SOL    HW2 1913   9.600   6.513   9.821
66692SOL     OW 1914  11.185   8.901   0.193
66692SOL    HW1 1915  11.142   8.821   0.223
66692SOL    HW2 1916  11.270   8.872   0.161
66693SOL     OW 1917   3.654   1.115  10.462
66693SOL    HW1 1918   3.664   1.139  10.554
66693SOL    HW2 1919   3.649   1.199  10.416
66694SOL     OW 1920  12.335   5.034   2.919
66694SOL    HW1 1921  12.429   5.045   2.936
66694SOL    HW2 1922  12.307   5.120   2.888
66695SOL     OW 1923  14.561  13.786   4.132
66695SOL    HW1 1924  14.523  13.874   4.127
66695SOL    HW2 1925  14.618  13.789   4.209
66696SOL     OW 1926  11.266   7.725   3.993
66696SOL    HW1 1927  11.234   7.770   3.914
66696SOL    HW2 1928  11.262   7.632   3.970
66697SOL     OW 1929   1.883   6.067   5.899
66697SOL    HW1 1930   1.963   6.028   5.936
66697SOL    HW2 1931   1.896   6.060   5.804
66698SOL     OW 1932  10.335   1.309  12.845
66698SOL    HW1 1933  10.315   1.230  12.795
66698SOL    HW2 1934  10.407   1.284  12.902
66699SOL     OW 1935   3.176   4.045  13.416
66699SOL    HW1 1936   3.160   4.127  13.462
66699SOL    HW2 1937   3.271   4.046  13.399
66700SOL     OW 1938  10.307   3.914  12.496
66700SOL    HW1 1939  10.394   3.874  12.498
66700SOL    HW2 1940  10.318   3.992  12.442
66701SOL     OW 1941  12.939   9.002   2.648
66701SOL    HW1 1942  12.920   9.061   2.576
66701SOL    HW2 1943  12.938   9.057   2.726
66702SOL     OW 1944  11.731  10.502   5.345
66702SOL    HW1 1945  11.677  10.477   5.420
66702SOL    HW2 1946  11.709  10.438   5.277
66703SOL     OW 1947  10.784  14.615   2.335
66703SOL    HW1 1948  10.849  14.685   2.344
66703SOL    HW2 1949  10.724  14.646   2.268
66704SOL     OW 1950  14.186   3.882   4.857
66704SOL    HW1 1951  14.226   3.869   4.943
66704SOL    HW2 1952  14.243   3.835   4.796
66705SOL     OW 1953   5.116  13.175   4.117
66705SOL    HW1 1954   5.085  13.097   4.163
66705SOL    HW2 1955   5.039  13.209   4.073
66706SOL     OW 1956   3.388   2.627   7.940
66706SOL    HW1 1957   3.337   2.548   7.959
66706SOL    HW2 1958   3.396   2.628   7.844
66707SOL     OW 1959  10.213   3.466   7.038
66707SOL    HW1 1960  10.272   3.486   7.110
66707SOL    HW2 1961  10.126   3.463   7.078
66708SOL     OW 1962   7.385   1.435   8.243
66708SOL    HW1 1963   7.467   1.473   8.273
66708SOL    HW2 1964   7.317   1.482   8.291
66709SOL     OW 1965   8.900   7.969   5.904
66709SOL    HW1 1966   8.971   7.912   5.877
66709SOL    HW2 1967   8.820   7.919   5.888
66710SOL     OW 1968  12.959   9.083   1.589
66710SOL    HW1 1969  13.018   9.045   1.524
66710SOL    HW2 1970  13.013   9.095   1.667
66711SOL     OW 1971   5.080  14.063   6.749
66711SOL    HW1 1972   5.068  14.085   6.656
66711SOL    HW2 1973   5.129  13.980   6.748
66712SOL     OW 1974   6.207   7.374   6.859
66712SOL    HW1 1975   6.130   7.415   6.898
66712SOL    HW2 1976   6.180   7.283   6.842
66713SOL     OW 1977   0.677  11.426   2.862
66713SOL    HW1 1978   0.609  11.365   2.833
66713SOL    HW2 1979   0.692  11.403   2.954
66714SOL     OW 1980   5.647  11.177   2.448
66714SOL    HW1 1981   5.684  11.158   2.362
66714SOL    HW2 1982   5.640  11.273   2.450
66715SOL     OW 1983  10.931   1.662  12.841
66715SOL    HW1 1984  10.864   1.727  12.818
66715SOL    HW2 1985  10.979   1.702  12.914
66716SOL     OW 1986  11.378  12.085  14.200
66716SOL    HW1 1987  11.362  11.995  14.171
66716SOL    HW2 1988  11.317  12.138  14.149
66717SOL     OW 1989  11.047   7.161   1.201
66717SOL    HW1 1990  11.074   7.227   1.264
66717SOL    HW2 1991  11.124   7.105   1.189
66718SOL     OW 1992   8.666   4.410   4.189
66718SOL    HW1 1993   8.602   4.425   4.257
66718SOL    HW2 1994   8.659   4.316   4.169
66719SOL     OW 1995   5.818  12.258  14.647
66719SOL    HW1 1996   5.856  12.260  14.735
66719SOL    HW2 1997   5.764  12.337  14.642
66720SOL     OW 1998   8.888   3.040  12.125
66720SOL    HW1 1999   8.959   2.988  12.087
66720SOL    HW2 2000   8.823   3.045  12.056
66721SOL     OW 2001   5.479   8.058  12.208
66721SOL    HW1 2002   5.387   8.082  12.192
66721SOL    HW2 2003   5.474   7.989  12.274
66722SOL     OW 2004   4.494   2.664   7.405
66722SOL    HW1 2005   4.471   2.661   7.312
66722SOL    HW2 2006   4.573   2.717   7.410
66723SOL     OW 2007   4.003   5.265   6.541
66723SOL    HW1 2008   3.942   5.234   6.607
66723SOL    HW2 2009   4.010   5.360   6.556
66724SOL     OW 2010  14.726   2.712   2.101
66724SOL    HW1 2011  14.751   2.652   2.172
66724SOL    HW2 2012  14.781   2.687   2.027
66725SOL     OW 2013   0.395   3.651   1.008
66725SOL    HW1 2014   0.488   3.643   1.027
66725SOL    HW2 2015   0.359   3.700   1.081
66726SOL     OW 2016   3.259   6.962   3.760
66726SOL    HW1 2017   3.219   6.902   3.697
66726SOL    HW2 2018   3.260   6.914   3.842
66727SOL     OW 2019   7.286   3.558   4.528
66727SOL    HW1 2020   7.212   3.503   4.556
66727SOL    HW2 2021   7.354   3.540   4.593
66728SOL     OW 2022   4.852   4.297   9.741
66728SOL    HW1 2023   4.767   4.302   9.785
66728SOL    HW2 2024   4.878   4.388   9.729
66729SOL     OW 2025  10.439   0.490   1.366
66729SOL    HW1 2026  10.360   0.539   1.345
66729SOL    HW2 2027  10.468   0.526   1.450
66730SOL     OW 2028  12.382  11.849   1.402
66730SOL    HW1 2029  12.336  11.926   1.367
66730SOL    HW2 2030  12.354  11.777   1.347
66731SOL     OW 2031   7.814   5.465   6.541
66731SOL    HW1 2032   7.767   5.440   6.620
66731SOL    HW2 2033   7.753   5.448   6.469
66732SOL     OW 2034   0.807   1.774   9.948
66732SOL    HW1 2035   0.887   1.786  10.000
66732SOL    HW2 2036   0.761   1.702   9.990
66733SOL     OW 2037   0.660   2.007   4.880
66733SOL    HW1 2038   0.575   2.053   4.879
66733SOL    HW2 2039   0.722   2.074   4.908
66734SOL     OW 2040   2.109   9.605   8.377
66734SOL    HW1 2041   2.064   9.681   8.341
66734SOL    HW2 2042   2.098   9.537   8.310
66735SOL     OW 2043   8.936   3.738   0.100
66735SOL    HW1 2044   8.844   3.725   0.076
66735SOL    HW2 2045   8.960   3.656   0.144
66736SOL     OW 2046   0.267  11.015   0.388
66736SOL    HW1 2047   0.273  10.922   0.410
66736SOL    HW2 2048   0.178  11.026   0.354
66737SOL     OW 2049   9.928   3.781   4.984
66737SOL    HW1 2050   9.916   3.711   4.920
66737SOL    HW2 2051  10.022   3.781   5.002
66738SOL     OW 2052   8.104  10.642   3.235
66738SOL    HW1 2053   8.074  10.721   3.190
66738SOL    HW2 2054   8.184  10.668   3.279
66739SOL     OW 2055  12.724  10.653   5.867
66739SOL    HW1 2056  12.695  10.675   5.778
66739SOL    HW2 2057  12.659  10.694   5.925
66740SOL     OW 2058   9.444  12.593  14.604
66740SOL    HW1 2059   9.366  12.543  14.578
66740SOL    HW2 2060   9.430  12.680  14.567
66741SOL     OW 2061   4.692   3.740  10.762
66741SOL    HW1 2062   4.777   3.711  10.796
66741SOL    HW2 2063   4.637   3.662  10.763
66742SOL     OW 2064   0.243  11.461   0.757
66742SOL    HW1 2065   0.332  11.482   0.785
66742SOL    HW2 2066   0.220  11.383   0.807
66743SOL     OW 2067   3.202  11.005  11.890
66743SOL    HW1 2068   3.188  10.944  11.962
66743SOL    HW2 2069   3.296  11.025  11.893
66744SOL     OW 2070  13.298   0.127  12.460
66744SOL    HW1 2071  13.367   0.192  12.469
66744SOL    HW2 2072  13.271   0.108  12.550
66745SOL     OW 2073   8.550   4.380   7.927
66745SOL    HW1 2074   8.636   4.390   7.969
66745SOL    HW2 2075   8.525   4.290   7.944
66746SOL     OW 2076  12.241   6.302   9.320
66746SOL    HW1 2077  12.330   6.328   9.297
66746SOL    HW2 2078  12.235   6.317   9.415
66747SOL     OW 2079   2.241  12.230   7.538
66747SOL    HW1 2080   2.231  12.320   7.507
66747SOL    HW2 2081   2.163  12.185   7.506
66748SOL     OW 2082   6.649  10.268   6.805
66748SOL    HW1 2083   6.648  10.207   6.732
66748SOL    HW2 2084   6.710  10.229   6.868
66749SOL     OW 2085   2.976   1.203  10.116
66749SOL    HW1 2086   3.011   1.287  10.145
66749SOL    HW2 2087   2.995   1.200  10.022
66750SOL     OW 2088   1.435   4.890   7.735
66750SOL    HW1 2089   1.487   4.954   7.685
66750SOL    HW2 2090   1.350   4.889   7.691
66751SOL     OW 2091   5.980  11.652   7.226
66751SOL    HW1 2092   6.022  11.678   7.143
66751SOL    HW2 2093   6.039  11.587   7.264
66752SOL     OW 2094   5.894  14.127   2.358
66752SOL    HW1 2095   5.915  14.079   2.278
66752SOL    HW2 2096   5.842  14.066   2.409
66753SOL     OW 2097  12.269   3.928   4.707
66753SOL    HW1 2098  12.275   3.833   4.718
66753SOL    HW2 2099  12.242   3.960   4.792
66754SOL     OW 2100   8.741  14.142   3.390
66754SOL    HW1 2101   8.726  14.076   3.322
66754SOL    HW2 2102   8.727  14.226   3.345
66755SOL     OW 2103  13.418   0.761   1.032
66755SOL    HW1 2104  13.436   0.695   0.965
66755SOL    HW2 2105  13.366   0.827   0.987
66756SOL     OW 2106   0.364   4.628   9.971
66756SOL    HW1 2107   0.417   4.560  10.012
66756SOL    HW2 2108   0.309   4.661  10.043
66757SOL     OW 2109   4.838   8.723   5.653
66757SOL    HW1 2110   4.773   8.663   5.691
66757SOL    HW2 2111   4.920   8.674   5.655
66758SOL     OW 2112   1.279   4.687   6.158
66758SOL    HW1 2113   1.198   4.696   6.209
66758SOL    HW2 2114   1.349   4.710   6.219
66759SOL     OW 2115  13.299  13.860  11.298
66759SOL    HW1 2116  13.306  13.767  11.321
66759SOL    HW2 2117  13.217  13.866  11.248
66760SOL     OW 2118   5.515  13.511  14.873
66760SOL    HW1 2119   5.482  13.501  14.783
66760SOL    HW2 2120   5.585  13.446   0.007
66761SOL     OW 2121   7.379  11.460  11.409
66761SOL    HW1 2122   7.288  11.481  11.388
66761SOL    HW2 2123   7.383  11.465  11.505
66762SOL     OW 2124   9.020   1.933  11.693
66762SOL    HW1 2125   8.933   1.894  11.694
66762SOL    HW2 2126   9.043   1.936  11.600
66763SOL     OW 2127  12.930  10.870   0.216
66763SOL    HW1 2128  13.010  10.912   0.186
66763SOL    HW2 2129  12.890  10.933   0.276
66764SOL     OW 2130   9.818  10.484  14.244
66764SOL    HW1 2131   9.838  10.426  14.318
66764SOL    HW2 2132   9.903  10.512  14.211
66765SOL     OW 2133   7.625   3.478  14.830
66765SOL    HW1 2134   7.551   3.504   0.011
66765SOL    HW2 2135   7.701   3.489   0.014
66766SOL     OW 2136   3.136   6.506  14.557
66766SOL    HW1 2137   3.114   6.594  14.589
66766SOL    HW2 2138   3.057   6.455  14.572
66767SOL     OW 2139  10.311   8.530  13.229
66767SOL    HW1 2140  10.334   8.546  13.138
66767SOL    HW2 2141  10.283   8.439  13.231
66768SOL     OW 2142   0.967   9.673   2.698
66768SOL    HW1 2143   1.028   9.655   2.769
66768SOL    HW2 2144   0.889   9.621   2.719
66769SOL     OW 2145   9.993   1.192   2.084
66769SOL    HW1 2146   9.908   1.235   2.086
66769SOL    HW2 2147   9.987   1.132   2.009
66770SOL     OW 2148  13.636   2.216  10.018
66770SOL    HW1 2149  13.614   2.152  10.086
66770SOL    HW2 2150  13.570   2.202   9.950
66771SOL     OW 2151   2.218   7.621  11.842
66771SOL    HW1 2152   2.129   7.603  11.814
66771SOL    HW2 2153   2.266   7.540  11.824
66772SOL     OW 2154  10.437   0.178   3.645
66772SOL    HW1 2155  10.488   0.248   3.605
66772SOL    HW2 2156  10.501   0.113   3.673
66773SOL     OW 2157   9.882  11.037   8.642
66773SOL    HW1 2158   9.816  11.026   8.710
66773SOL    HW2 2159   9.916  10.949   8.627
66774SOL     OW 2160  10.007  12.022  13.924
66774SOL    HW1 2161   9.969  12.107  13.905
66774SOL    HW2 2162  10.070  12.007  13.854
66775SOL     OW 2163  13.395   0.878   4.492
66775SOL    HW1 2164  13.478   0.831   4.482
66775SOL    HW2 2165  13.328   0.812   4.475
66776SOL     OW 2166   7.407  13.925   0.804
66776SOL    HW1 2167   7.439  13.996   0.859
66776SOL    HW2 2168   7.459  13.849   0.830
66777SOL     OW 2169   2.223   7.303   9.939
66777SOL    HW1 2170   2.259   7.324  10.025
66777SOL    HW2 2171   2.128   7.310   9.950
66778SOL     OW 2172   6.854  10.601   1.715
66778SOL    HW1 2173   6.838  10.507   1.724
66778SOL    HW2 2174   6.944  10.607   1.685
66779SOL     OW 2175   3.341   4.795  12.715
66779SOL    HW1 2176   3.249   4.784  12.690
66779SOL    HW2 2177   3.357   4.889  12.705
66780SOL     OW 2178   7.887  10.782   1.382
66780SOL    HW1 2179   7.961  10.838   1.405
66780SOL    HW2 2180   7.890  10.710   1.445
66781SOL     OW 2181  10.604  13.274   0.076
66781SOL    HW1 2182  10.624  13.182   0.087
66781SOL    HW2 2183  10.572  13.303   0.162
66782SOL     OW 2184   6.689  11.109   7.724
66782SOL    HW1 2185   6.659  11.198   7.710
66782SOL    HW2 2186   6.781  11.111   7.696
66783SOL     OW 2187   2.677  12.115   8.955
66783SOL    HW1 2188   2.642  12.033   8.919
66783SOL    HW2 2189   2.678  12.176   8.882
66784SOL     OW 2190   6.261  10.154   0.592
66784SOL    HW1 2191   6.343  10.149   0.641
66784SOL    HW2 2192   6.288  10.164   0.501
66785SOL     OW 2193  13.335   6.974   2.609
66785SOL    HW1 2194  13.370   6.906   2.551
66785SOL    HW2 2195  13.411   7.003   2.660
66786SOL     OW 2196   1.621   7.931   0.858
66786SOL    HW1 2197   1.616   8.022   0.886
66786SOL    HW2 2198   1.710   7.920   0.826
66787SOL     OW 2199  14.409   5.182   6.341
66787SOL    HW1 2200  14.367   5.268   6.345
66787SOL    HW2 2201  14.438   5.165   6.430
66788SOL     OW 2202   9.477  13.260   5.675
66788SOL    HW1 2203   9.454  13.268   5.768
66788SOL    HW2 2204   9.547  13.324   5.662
66789SOL     OW 2205   1.621   8.052  13.961
66789SOL    HW1 2206   1.570   8.130  13.936
66789SOL    HW2 2207   1.659   8.074  14.046
66790SOL     OW 2208   8.339  12.402   4.897
66790SOL    HW1 2209   8.402  12.360   4.838
66790SOL    HW2 2210   8.292  12.329   4.937
66791SOL     OW 2211   8.612   4.324   3.496
66791SOL    HW1 2212   8.674   4.397   3.502
66791SOL    HW2 2213   8.561   4.330   3.576
66792SOL     OW 2214   8.741   4.813   1.371
66792SOL    HW1 2215   8.756   4.721   1.391
66792SOL    HW2 2216   8.695   4.847   1.447
66793SOL     OW 2217   7.462  11.866   2.078
66793SOL    HW1 2218   7.381  11.822   2.053
66793SOL    HW2 2219   7.519  11.856   2.001
66794SOL     OW 2220   1.388   6.226   1.876
66794SOL    HW1 2221   1.474   6.213   1.915
66794SOL    HW2 2222   1.331   6.165   1.922
66795SOL     OW 2223  10.023  10.896  14.620
66795SOL    HW1 2224  10.101  10.841  14.625
66795SOL    HW2 2225   9.973  10.873  14.698
66796SOL     OW 2226   0.477   7.667   3.367
66796SOL    HW1 2227   0.527   7.650   3.287
66796SOL    HW2 2228   0.540   7.653   3.437
66797SOL     OW 2229   5.298  13.515  14.617
66797SOL    HW1 2230   5.210  13.552  14.610
66797SOL    HW2 2231   5.284  13.420  14.619
66798SOL     OW 2232   3.161  14.857   6.214
66798SOL    HW1 2233   3.070   0.007   6.234
66798SOL    HW2 2234   3.156  14.812   6.130
66799SOL     OW 2235  12.206  12.117   0.491
66799SOL    HW1 2236  12.149  12.071   0.429
66799SOL    HW2 2237  12.270  12.162   0.437
66800SOL     OW 2238   9.106   4.990   0.555
66800SOL    HW1 2239   9.140   4.908   0.518
66800SOL    HW2 2240   9.088   4.969   0.646
66801SOL     OW 2241   3.951   3.412   1.299
66801SOL    HW1 2242   3.900   3.400   1.219
66801SOL    HW2 2243   4.032   3.365   1.284
66802SOL     OW 2244   3.531  13.273  13.275
66802SOL    HW1 2245   3.506  13.187  13.239
66802SOL    HW2 2246   3.480  13.280  13.357
66803SOL     OW 2247  14.223  14.297   6.278
66803SOL    HW1 2248  14.204  14.328   6.366
66803SOL    HW2 2249  14.241  14.204   6.288
66804SOL     OW 2250   4.736   5.803   8.162
66804SOL    HW1 2251   4.782   5.869   8.213
66804SOL    HW2 2252   4.760   5.821   8.071
66805SOL     OW 2253   2.031  13.713  14.492
66805SOL    HW1 2254   1.993  13.682  14.410
66805SOL    HW2 2255   1.966  13.690  14.559
66806SOL     OW 2256   7.505  10.555   1.471
66806SOL    HW1 2257   7.519  10.584   1.561
66806SOL    HW2 2258   7.591  10.562   1.429
66807SOL     OW 2259  11.850  13.214   5.829
66807SOL    HW1 2260  11.929  13.170   5.800
66807SOL    HW2 2261  11.880  13.287   5.884
66808SOL     OW 2262  11.216  11.378  11.374
66808SOL    HW1 2263  11.151  11.349  11.310
66808SOL    HW2 2264  11.299  11.373  11.327
66809SOL     OW 2265   2.906   7.322  13.762
66809SOL    HW1 2266   2.857   7.258  13.813
66809SOL    HW2 2267   2.907   7.400  13.817
66810SOL     OW 2268   1.891   8.752   7.909
66810SOL    HW1 2269   1.933   8.673   7.942
66810SOL    HW2 2270   1.912   8.819   7.974
66811SOL     OW 2271  13.175   0.106  13.288
66811SOL    HW1 2272  13.124   0.030  13.316
66811SOL    HW2 2273  13.179   0.162  13.366
66812SOL     OW 2274   0.829   6.955   0.711
66812SOL    HW1 2275   0.814   6.873   0.758
66812SOL    HW2 2276   0.821   7.022   0.779
66813SOL     OW 2277  11.494   9.039   0.880
66813SOL    HW1 2278  11.568   9.029   0.939
66813SOL    HW2 2279  11.521   9.107   0.819
66814SOL     OW 2280   6.249   6.031   1.026
66814SOL    HW1 2281   6.224   5.987   0.944
66814SOL    HW2 2282   6.340   6.007   1.039
66815SOL     OW 2283   8.133   1.915   1.668
66815SOL    HW1 2284   8.163   1.842   1.722
66815SOL    HW2 2285   8.116   1.986   1.731
66816SOL     OW 2286   7.639   9.615  11.420
66816SOL    HW1 2287   7.599   9.679  11.478
66816SOL    HW2 2288   7.568   9.554  11.400
66817SOL     OW 2289   4.304   2.262   5.080
66817SOL    HW1 2290   4.277   2.340   5.128
66817SOL    HW2 2291   4.225   2.209   5.074
66818SOL     OW 2292  11.450   9.563  12.639
66818SOL    HW1 2293  11.503   9.627  12.592
66818SOL    HW2 2294  11.449   9.595  12.729
66819SOL     OW 2295   1.018   9.792  12.575
66819SOL    HW1 2296   1.080   9.738  12.623
66819SOL    HW2 2297   1.008   9.870  12.629
66820SOL     OW 2298  10.029  13.704   4.444
66820SOL    HW1 2299  10.071  13.736   4.365
66820SOL    HW2 2300  10.057  13.612   4.451
66821SOL     OW 2301   1.463   8.842   5.462
66821SOL    HW1 2302   1.453   8.765   5.406
66821SOL    HW2 2303   1.378   8.885   5.460
66822SOL     OW 2304  10.652  14.193  11.301
66822SOL    HW1 2305  10.703  14.273  11.288
66822SOL    HW2 2306  10.607  14.207  11.384
66823SOL     OW 2307   4.994  14.091   7.843
66823SOL    HW1 2308   5.035  14.054   7.765
66823SOL    HW2 2309   4.908  14.049   7.847
66824SOL     OW 2310   3.262   5.025   0.916
66824SOL    HW1 2311   3.215   5.097   0.874
66824SOL    HW2 2312   3.353   5.039   0.893
66825SOL     OW 2313  12.479   8.859   4.089
66825SOL    HW1 2314  12.456   8.950   4.071
66825SOL    HW2 2315  12.488   8.819   4.002
66826SOL     OW 2316  12.274  14.152   1.033
66826SOL    HW1 2317  12.266  14.242   1.001
66826SOL    HW2 2318  12.248  14.098   0.958
66827SOL     OW 2319   5.989  14.607   8.682
66827SOL    HW1 2320   6.011  14.532   8.736
66827SOL    HW2 2321   5.952  14.569   8.602
66828SOL     OW 2322   0.446  14.696   4.552
66828SOL    HW1 2323   0.369  14.752   4.562
66828SOL    HW2 2324   0.468  14.669   4.641
66829SOL     OW 2325   5.336   2.658  14.822
66829SOL    HW1 2326   5.325   2.727   0.016
66829SOL    HW2 2327   5.260   2.669  14.765
66830SOL     OW 2328  10.894   9.865  11.191
66830SOL    HW1 2329  10.843   9.793  11.154
66830SOL    HW2 2330  10.909   9.840  11.282
66831SOL     OW 2331   9.191  11.784   9.210
66831SOL    HW1 2332   9.180  11.704   9.159
66831SOL    HW2 2333   9.262  11.764   9.272
66832SOL     OW 2334   1.799   0.426   0.544
66832SOL    HW1 2335   1.848   0.476   0.609
66832SOL    HW2 2336   1.839   0.450   0.460
66833SOL     OW 2337  12.940   3.673   0.344
66833SOL    HW1 2338  12.944   3.682   0.248
66833SOL    HW2 2339  12.865   3.727   0.370
66834SOL     OW 2340   0.152   1.758   7.180
66834SOL    HW1 2341   0.194   1.752   7.266
66834SOL    HW2 2342   0.225   1.759   7.118
66835SOL     OW 2343   7.112   6.758   0.179
66835SOL    HW1 2344   7.113   6.768   0.083
66835SOL    HW2 2345   7.190   6.805   0.209
66836SOL     OW 2346  14.767   0.221  11.351
66836SOL    HW1 2347  14.685   0.181  11.324
66836SOL    HW2 2348  14.775   0.200  11.444
66837SOL     OW 2349  11.839   5.871   0.648
66837SOL    HW1 2350  11.749   5.891   0.625
66837SOL    HW2 2351  11.855   5.919   0.729
66838SOL     OW 2352   7.942   0.547  12.181
66838SOL    HW1 2353   7.915   0.558  12.272
66838SOL    HW2 2354   7.874   0.592  12.130
66839SOL     OW 2355   0.628   9.663  12.146
66839SOL    HW1 2356   0.720   9.656  12.169
66839SOL    HW2 2357   0.583   9.675  12.230
66840SOL     OW 2358   6.162   1.085  14.636
66840SOL    HW1 2359   6.183   1.010  14.691
66840SOL    HW2 2360   6.133   1.152  14.698
66841SOL     OW 2361   8.059   6.460   7.303
66841SOL    HW1 2362   8.019   6.471   7.389
66841SOL    HW2 2363   7.986   6.448   7.243
66842SOL     OW 2364   6.390   5.543  12.381
66842SOL    HW1 2365   6.472   5.548  12.430
66842SOL    HW2 2366   6.357   5.632  12.381
66843SOL     OW 2367   3.871   8.840  12.532
66843SOL    HW1 2368   3.847   8.862  12.622
66843SOL    HW2 2369   3.792   8.858  12.481
66844SOL     OW 2370  12.294   3.622   7.018
66844SOL    HW1 2371  12.219   3.624   6.958
66844SOL    HW2 2372  12.309   3.713   7.042
66845SOL     OW 2373  10.006   8.715   9.161
66845SOL    HW1 2374  10.096   8.721   9.129
66845SOL    HW2 2375   9.962   8.791   9.125
66846SOL     OW 2376   2.278   6.375  10.153
66846SOL    HW1 2377   2.285   6.296  10.099
66846SOL    HW2 2378   2.203   6.422  10.118
66847SOL     OW 2379   4.007  10.961   1.775
66847SOL    HW1 2380   4.013  11.056   1.782
66847SOL    HW2 2381   3.991  10.945   1.682
66848SOL     OW 2382   2.985   9.522   6.095
66848SOL    HW1 2383   2.992   9.494   6.004
66848SOL    HW2 2384   3.017   9.612   6.095
66849SOL     OW 2385   5.418   0.977   0.960
66849SOL    HW1 2386   5.501   1.022   0.942
66849SOL    HW2 2387   5.421   0.960   1.055
66850SOL     OW 2388   4.202   2.564   9.195
66850SOL    HW1 2389   4.159   2.500   9.252
66850SOL    HW2 2390   4.201   2.523   9.108
66851SOL     OW 2391  12.143   1.189   6.849
66851SOL    HW1 2392  12.219   1.131   6.847
66851SOL    HW2 2393  12.070   1.133   6.874
66852SOL     OW 2394   3.654   8.919  14.602
66852SOL    HW1 2395   3.675   8.982  14.533
66852SOL    HW2 2396   3.600   8.968  14.664
66853SOL     OW 2397   4.902  13.052  10.766
66853SOL    HW1 2398   4.901  13.087  10.855
66853SOL    HW2 2399   4.989  13.074  10.733
66854SOL     OW 2400   8.052   2.267   5.487
66854SOL    HW1 2401   8.050   2.198   5.553
66854SOL    HW2 2402   7.961   2.293   5.477
66855SOL     OW 2403  12.063   5.381   7.569
66855SOL    HW1 2404  11.981   5.428   7.584
66855SOL    HW2 2405  12.105   5.430   7.498
66856SOL     OW 2406   2.107   3.930   9.146
66856SOL    HW1 2407   2.154   3.982   9.081
66856SOL    HW2 2408   2.148   3.844   9.143
66857SOL     OW 2409   5.885  10.784   7.041
66857SOL    HW1 2410   5.820  10.721   7.012
66857SOL    HW2 2411   5.965  10.732   7.055
66858SOL     OW 2412  11.001   0.514   3.700
66858SOL    HW1 2413  11.035   0.593   3.742
66858SOL    HW2 2414  10.978   0.456   3.772
66859SOL     OW 2415   6.935   7.628   6.136
66859SOL    HW1 2416   6.863   7.597   6.191
66859SOL    HW2 2417   6.906   7.713   6.104
66860SOL     OW 2418   4.900   4.331   0.755
66860SOL    HW1 2419   4.979   4.306   0.707
66860SOL    HW2 2420   4.828   4.301   0.699
66861SOL     OW 2421   9.328   1.269   8.543
66861SOL    HW1 2422   9.315   1.186   8.498
66861SOL    HW2 2423   9.423   1.274   8.555
66862SOL     OW 2424  11.222   6.673   0.157
66862SOL    HW1 2425  11.195   6.765   0.163
66862SOL    HW2 2426  11.146   6.624   0.187
66863SOL     OW 2427   0.557   3.543  12.098
66863SOL    HW1 2428   0.544   3.486  12.022
66863SOL    HW2 2429   0.646   3.522  12.128
66864SOL     OW 2430  14.488   4.751   6.951
66864SOL    HW1 2431  14.449   4.811   6.887
66864SOL    HW2 2432  14.448   4.775   7.035
66865SOL     OW 2433   3.526   9.513   9.253
66865SOL    HW1 2434   3.479   9.577   9.201
66865SOL    HW2 2435   3.593   9.479   9.194
66866SOL     OW 2436   6.627   8.348  14.218
66866SOL    HW1 2437   6.718   8.361  14.242
66866SOL    HW2 2438   6.609   8.418  14.155
66867SOL     OW 2439  11.900  11.208   4.564
66867SOL    HW1 2440  11.969  11.230   4.501
66867SOL    HW2 2441  11.819  11.224   4.517
66868SOL     OW 2442  10.526  14.103   1.296
66868SOL    HW1 2443  10.611  14.125   1.333
66868SOL    HW2 2444  10.468  14.174   1.323
66869SOL     OW 2445   4.061  11.619   5.675
66869SOL    HW1 2446   4.154  11.600   5.663
66869SOL    HW2 2447   4.020  11.596   5.592
66870SOL     OW 2448   6.493   3.667   2.211
66870SOL    HW1 2449   6.588   3.669   2.226
66870SOL    HW2 2450   6.482   3.611   2.134
66871SOL     OW 2451   4.501  10.537   6.489
66871SOL    HW1 2452   4.517  10.524   6.395
66871SOL    HW2 2453   4.554  10.614   6.511
66872SOL     OW 2454  12.764   8.702   4.051
66872SOL    HW1 2455  12.688   8.697   3.993
66872SOL    HW2 2456  12.726   8.701   4.139
66873SOL     OW 2457  10.289  14.870  13.708
66873SOL    HW1 2458  10.209   0.049  13.719
66873SOL    HW2 2459  10.285  14.840  13.617
66874SOL     OW 2460   5.808   8.733   2.255
66874SOL    HW1 2461   5.788   8.805   2.315
66874SOL    HW2 2462   5.901   8.716   2.269
66875SOL     OW 2463  13.910   3.240  14.780
66875SOL    HW1 2464  13.867   3.309  14.729
66875SOL    HW2 2465  13.882   3.159  14.739
66876SOL     OW 2466  11.432  11.705   4.487
66876SOL    HW1 2467  11.345  11.725   4.452
66876SOL    HW2 2468  11.493  11.753   4.432
66877SOL     OW 2469   7.351  11.553   7.466
66877SOL    HW1 2470   7.434  11.536   7.509
66877SOL    HW2 2471   7.288  11.498   7.513
66878SOL     OW 2472  12.406  11.490  14.356
66878SOL    HW1 2473  12.349  11.416  14.340
66878SOL    HW2 2474  12.439  11.476  14.445
66879SOL     OW 2475   2.054  13.918   5.595
66879SOL    HW1 2476   2.031  13.953   5.681
66879SOL    HW2 2477   1.990  13.848   5.580
66880SOL     OW 2478   8.378   3.254  12.328
66880SOL    HW1 2479   8.287   3.224  12.326
66880SOL    HW2 2480   8.372   3.348  12.340
66881SOL     OW 2481   3.759  13.188   4.637
66881SOL    HW1 2482   3.764  13.094   4.618
66881SOL    HW2 2483   3.761  13.230   4.551
66882SOL     OW 2484   7.925   7.993   3.982
66882SOL    HW1 2485   7.949   8.073   3.934
66882SOL    HW2 2486   7.885   8.026   4.063
66883SOL     OW 2487   3.688   4.636   9.493
66883SOL    HW1 2488   3.671   4.615   9.585
66883SOL    HW2 2489   3.737   4.717   9.496
66884SOL     OW 2490   4.893  13.700   3.228
66884SOL    HW1 2491   4.931  13.651   3.301
66884SOL    HW2 2492   4.961  13.697   3.160
66885SOL     OW 2493   6.139  14.844  12.912
66885SOL    HW1 2494   6.065  14.789  12.886
66885SOL    HW2 2495   6.102   0.032  12.976
66886SOL     OW 2496   8.283   0.152   6.018
66886SOL    HW1 2497   8.225   0.095   6.069
66886SOL    HW2 2498   8.343   0.091   5.974
66887SOL     OW 2499   3.362   3.035  12.204
66887SOL    HW1 2500   3.401   3.104  12.151
66887SOL    HW2 2501   3.388   2.953  12.160
66888SOL     OW 2502   2.241   0.702   4.429
66888SOL    HW1 2503   2.152   0.695   4.395
66888SOL    HW2 2504   2.291   0.744   4.359
66889SOL     OW 2505   7.910   8.485   9.578
66889SOL    HW1 2506   7.974   8.500   9.509
66889SOL    HW2 2507   7.920   8.392   9.599
66890SOL     OW 2508   6.494   2.687  13.416
66890SOL    HW1 2509   6.482   2.762  13.358
66890SOL    HW2 2510   6.431   2.622  13.387
66891SOL     OW 2511   8.646  12.617   6.637
66891SOL    HW1 2512   8.574  12.678   6.651
66891SOL    HW2 2513   8.692  12.614   6.721
66892SOL     OW 2514  13.210   6.296   9.067
66892SOL    HW1 2515  13.215   6.380   9.022
66892SOL    HW2 2516  13.300   6.277   9.092
66893SOL     OW 2517   6.663   3.649   0.455
66893SOL    HW1 2518   6.644   3.684   0.367
66893SOL    HW2 2519   6.634   3.558   0.451
66894SOL     OW 2520  14.147  13.738  10.966
66894SOL    HW1 2521  14.158  13.644  10.955
66894SOL    HW2 2522  14.134  13.750  11.060
66895SOL     OW 2523  13.060  11.798   8.449
66895SOL    HW1 2524  13.115  11.867   8.486
66895SOL    HW2 2525  13.088  11.718   8.494
66896SOL     OW 2526   5.747   9.094   7.215
66896SOL    HW1 2527   5.697   9.159   7.165
66896SOL    HW2 2528   5.812   9.062   7.153
66897SOL     OW 2529  13.937   5.628  10.733
66897SOL    HW1 2530  13.868   5.563  10.749
66897SOL    HW2 2531  13.902   5.684  10.664
66898SOL     OW 2532  11.197  12.350  14.277
66898SOL    HW1 2533  11.285  12.381  14.297
66898SOL    HW2 2534  11.206  12.305  14.193
66899SOL     OW 2535   7.657  14.226   0.948
66899SOL    HW1 2536   7.604  14.227   0.868
66899SOL    HW2 2537   7.623  14.299   0.999
66900SOL     OW 2538   2.305   4.431   3.597
66900SOL    HW1 2539   2.219   4.392   3.615
66900SOL    HW2 2540   2.308   4.439   3.502
66901SOL     OW 2541  12.609   2.789  14.400
66901SOL    HW1 2542  12.626   2.813  14.309
66901SOL    HW2 2543  12.528   2.835  14.423
66902SOL     OW 2544   6.207  11.626  13.598
66902SOL    HW1 2545   6.181  11.713  13.568
66902SOL    HW2 2546   6.138  11.600  13.659
66903SOL     OW 2547   6.159   2.257   7.626
66903SOL    HW1 2548   6.200   2.329   7.578
66903SOL    HW2 2549   6.202   2.178   7.592
66904SOL     OW 2550  13.010   3.702   5.345
66904SOL    HW1 2551  12.985   3.794   5.331
66904SOL    HW2 2552  13.104   3.705   5.359
66905SOL     OW 2553   2.805   0.728   6.014
66905SOL    HW1 2554   2.847   0.702   6.096
66905SOL    HW2 2555   2.768   0.814   6.033
66906SOL     OW 2556   0.360   4.488   0.791
66906SOL    HW1 2557   0.410   4.479   0.872
66906SOL    HW2 2558   0.269   4.485   0.818
66907SOL     OW 2559  13.480   6.060   4.765
66907SOL    HW1 2560  13.405   6.120   4.773
66907SOL    HW2 2561  13.445   5.984   4.718
66908SOL     OW 2562   2.954   6.319   4.363
66908SOL    HW1 2563   2.907   6.236   4.357
66908SOL    HW2 2564   2.962   6.334   4.457
66909SOL     OW 2565   6.438   8.678   4.424
66909SOL    HW1 2566   6.421   8.645   4.335
66909SOL    HW2 2567   6.411   8.769   4.422
66910SOL     OW 2568  10.056   1.684  14.577
66910SOL    HW1 2569  10.086   1.594  14.593
66910SOL    HW2 2570  10.094   1.735  14.649
66911SOL     OW 2571   4.915   3.517   1.265
66911SOL    HW1 2572   4.990   3.467   1.297
66911SOL    HW2 2573   4.933   3.607   1.291
66912SOL     OW 2574   0.613   8.334   5.470
66912SOL    HW1 2575   0.621   8.428   5.451
66912SOL    HW2 2576   0.701   8.299   5.455
66913SOL     OW 2577  13.287  12.118   9.525
66913SOL    HW1 2578  13.214  12.141   9.467
66913SOL    HW2 2579  13.261  12.034   9.564
66914SOL     OW 2580   0.853   2.741  11.521
66914SOL    HW1 2581   0.759   2.739  11.539
66914SOL    HW2 2582   0.876   2.649  11.509
66915SOL     OW 2583   5.173   3.029   5.405
66915SOL    HW1 2584   5.225   3.060   5.332
66915SOL    HW2 2585   5.086   3.067   5.391
66916SOL     OW 2586  12.812   4.462  14.378
66916SOL    HW1 2587  12.743   4.479  14.442
66916SOL    HW2 2588  12.885   4.428  14.430
66917SOL     OW 2589  11.502  13.740   0.757
66917SOL    HW1 2590  11.453  13.816   0.726
66917SOL    HW2 2591  11.448  13.704   0.828
66918SOL     OW 2592  10.791   1.117   0.480
66918SOL    HW1 2593  10.871   1.091   0.435
66918SOL    HW2 2594  10.777   1.049   0.546
66919SOL     OW 2595   2.360   6.224  14.818
66919SOL    HW1 2596   2.440   6.199  14.772
66919SOL    HW2 2597   2.313   6.280  14.756
66920SOL     OW 2598   9.175   6.759  10.457
66920SOL    HW1 2599   9.207   6.783  10.544
66920SOL    HW2 2600   9.082   6.781  10.458
66921SOL     OW 2601   1.121   4.013   8.059
66921SOL    HW1 2602   1.184   3.973   8.000
66921SOL    HW2 2603   1.036   3.986   8.025
66922SOL     OW 2604   2.059   7.980  11.816
66922SOL    HW1 2605   2.013   7.897  11.815
66922SOL    HW2 2606   2.013   8.034  11.752
66923SOL     OW 2607   7.997  14.691   6.145
66923SOL    HW1 2608   8.037  14.777   6.155
66923SOL    HW2 2609   8.055  14.630   6.191
66924SOL     OW 2610   7.775   9.006   5.636
66924SOL    HW1 2611   7.722   8.996   5.716
66924SOL    HW2 2612   7.714   8.989   5.565
66925SOL     OW 2613  11.381   1.340   5.282
66925SOL    HW1 2614  11.315   1.290   5.329
66925SOL    HW2 2615  11.347   1.348   5.193
66926SOL     OW 2616   6.849   5.370  14.139
66926SOL    HW1 2617   6.858   5.440  14.074
66926SOL    HW2 2618   6.932   5.322  14.134
66927SOL     OW 2619  11.873   5.832   1.865
66927SOL    HW1 2620  11.880   5.799   1.775
66927SOL    HW2 2621  11.913   5.919   1.861
66928SOL     OW 2622   5.133   5.281   2.302
66928SOL    HW1 2623   5.144   5.194   2.341
66928SOL    HW2 2624   5.087   5.331   2.369
66929SOL     OW 2625  12.156   2.785  13.363
66929SOL    HW1 2626  12.239   2.793  13.316
66929SOL    HW2 2627  12.179   2.738  13.443
66930SOL     OW 2628   8.941  11.139   6.781
66930SOL    HW1 2629   8.959  11.088   6.860
66930SOL    HW2 2630   8.850  11.119   6.760
66931SOL     OW 2631   6.119   1.071  10.576
66931SOL    HW1 2632   6.132   1.162  10.552
66931SOL    HW2 2633   6.066   1.074  10.656
66932SOL     OW 2634   0.134  10.121   6.999
66932SOL    HW1 2635   0.127  10.130   6.904
66932SOL    HW2 2636   0.162  10.208   7.029
66933SOL     OW 2637   8.636  11.637   8.472
66933SOL    HW1 2638   8.591  11.552   8.470
66933SOL    HW2 2639   8.703  11.627   8.539
66934SOL     OW 2640   4.641  14.565   0.810
66934SOL    HW1 2641   4.564  14.527   0.853
66934SOL    HW2 2642   4.644  14.523   0.724
66935SOL     OW 2643   3.292  10.583   7.948
66935SOL    HW1 2644   3.321  10.529   8.021
66935SOL    HW2 2645   3.275  10.669   7.988
66936SOL     OW 2646  11.972  10.136   2.189
66936SOL    HW1 2647  11.990  10.093   2.273
66936SOL    HW2 2648  11.884  10.172   2.199
66937SOL     OW 2649  10.462   6.935   6.728
66937SOL    HW1 2650  10.500   6.855   6.690
66937SOL    HW2 2651  10.439   6.910   6.818
66938SOL     OW 2652  12.733   5.985   1.545
66938SOL    HW1 2653  12.812   6.033   1.522
66938SOL    HW2 2654  12.662   6.033   1.504
66939SOL     OW 2655   5.516   2.676   9.605
66939SOL    HW1 2656   5.529   2.689   9.698
66939SOL    HW2 2657   5.421   2.678   9.594
66940SOL     OW 2658   7.586   5.275  14.628
66940SOL    HW1 2659   7.607   5.197  14.679
66940SOL    HW2 2660   7.578   5.244  14.538
66941SOL     OW 2661   2.776   5.252  12.019
66941SOL    HW1 2662   2.858   5.258  11.970
66941SOL    HW2 2663   2.727   5.182  11.976
66942SOL     OW 2664  12.057  11.788   4.886
66942SOL    HW1 2665  12.065  11.847   4.811
66942SOL    HW2 2666  12.016  11.840   4.954
66943SOL     OW 2667   9.892   0.456   3.554
66943SOL    HW1 2668   9.884   0.545   3.590
66943SOL    HW2 2669   9.959   0.415   3.609
66944SOL     OW 2670   4.086   2.466   5.142
66944SOL    HW1 2671   4.004   2.469   5.192
66944SOL    HW2 2672   4.147   2.519   5.192
66945SOL     OW 2673  10.700   3.154   7.692
66945SOL    HW1 2674  10.726   3.157   7.600
66945SOL    HW2 2675  10.605   3.170   7.690
66946SOL     OW 2676  13.226   1.169   9.617
66946SOL    HW1 2677  13.301   1.149   9.673
66946SOL    HW2 2678  13.218   1.264   9.619
66947SOL     OW 2679   3.800   0.075   1.116
66947SOL    HW1 2680   3.725   0.020   1.090
66947SOL    HW2 2681   3.813   0.133   1.041
66948SOL     OW 2682  13.493  14.380   7.039
66948SOL    HW1 2683  13.575  14.354   6.997
66948SOL    HW2 2684  13.434  14.400   6.967
66949SOL     OW 2685   8.870   0.506   9.955
66949SOL    HW1 2686   8.935   0.503  10.025
66949SOL    HW2 2687   8.788   0.532   9.999
66950SOL     OW 2688   7.553   7.073   7.853
66950SOL    HW1 2689   7.474   7.034   7.816
66950SOL    HW2 2690   7.525   7.160   7.882
66951SOL     OW 2691   1.919   1.109   6.325
66951SOL    HW1 2692   1.968   1.150   6.396
66951SOL    HW2 2693   1.832   1.095   6.361
66952SOL     OW 2694   3.664  13.009   6.825
66952SOL    HW1 2695   3.605  13.083   6.820
66952SOL    HW2 2696   3.708  13.019   6.910
66953SOL     OW 2697   7.597  10.535   7.524
66953SOL    HW1 2698   7.605  10.499   7.436
66953SOL    HW2 2699   7.614  10.461   7.582
66954SOL     OW 2700   4.370  11.333  14.139
66954SOL    HW1 2701   4.385  11.306  14.229
66954SOL    HW2 2702   4.426  11.410  14.127
66955SOL     OW 2703  13.537   2.455   3.893
66955SOL    HW1 2704  13.450   2.487   3.915
66955SOL    HW2 2705  13.527   2.361   3.885
66956SOL     OW 2706   7.587  12.692   2.269
66956SOL    HW1 2707   7.665  12.742   2.246
66956SOL    HW2 2708   7.546  12.671   2.185
66957SOL     OW 2709   3.735  13.949  12.595
66957SOL    HW1 2710   3.748  13.958  12.501
66957SOL    HW2 2711   3.792  13.876  12.620
66958SOL     OW 2712   5.968  10.430   4.801
66958SOL    HW1 2713   6.028  10.394   4.735
66958SOL    HW2 2714   6.023  10.485   4.857
66959SOL     OW 2715   0.367  12.317  14.681
66959SOL    HW1 2716   0.405  12.345  14.765
66959SOL    HW2 2717   0.311  12.390  14.655
66960SOL     OW 2718  13.751   6.511   6.113
66960SOL    HW1 2719  13.736   6.439   6.173
66960SOL    HW2 2720  13.702   6.585   6.150
66961SOL     OW 2721   9.070   1.209  13.906
66961SOL    HW1 2722   9.037   1.123  13.879
66961SOL    HW2 2723   9.006   1.271  13.870
66962SOL     OW 2724   4.261   4.420  10.427
66962SOL    HW1 2725   4.186   4.382  10.381
66962SOL    HW2 2726   4.332   4.417  10.364
66963SOL     OW 2727   7.700   1.581   6.953
66963SOL    HW1 2728   7.708   1.486   6.962
66963SOL    HW2 2729   7.641   1.607   7.023
66964SOL     OW 2730   8.162   5.026  12.276
66964SOL    HW1 2731   8.103   5.014  12.351
66964SOL    HW2 2732   8.246   5.048  12.316
66965SOL     OW 2733   7.966   6.137   4.260
66965SOL    HW1 2734   7.970   6.201   4.189
66965SOL    HW2 2735   8.044   6.154   4.312
66966SOL     OW 2736  14.222  11.455   6.862
66966SOL    HW1 2737  14.267  11.373   6.882
66966SOL    HW2 2738  14.148  11.458   6.922
66967SOL     OW 2739   9.982   3.259   8.344
66967SOL    HW1 2740  10.064   3.237   8.300
66967SOL    HW2 2741   9.981   3.355   8.346
66968SOL     OW 2742   5.865   2.753   5.095
66968SOL    HW1 2743   5.793   2.744   5.033
66968SOL    HW2 2744   5.836   2.707   5.174
66969SOL     OW 2745  10.639  11.569   4.938
66969SOL    HW1 2746  10.620  11.514   4.862
66969SOL    HW2 2747  10.633  11.658   4.905
66970SOL     OW 2748   4.008  10.190   9.006
66970SOL    HW1 2749   3.932  10.207   9.063
66970SOL    HW2 2750   4.079  10.172   9.067
66971SOL     OW 2751   6.346   7.614  14.385
66971SOL    HW1 2752   6.258   7.589  14.412
66971SOL    HW2 2753   6.333   7.670  14.308
66972SOL     OW 2754  11.006   6.715  12.457
66972SOL    HW1 2755  10.950   6.657  12.406
66972SOL    HW2 2756  11.083   6.728  12.403
66973SOL     OW 2757  10.317   2.048   7.248
66973SOL    HW1 2758  10.344   1.972   7.197
66973SOL    HW2 2759  10.246   2.017   7.304
66974SOL     OW 2760   1.731   6.819  12.452
66974SOL    HW1 2761   1.684   6.746  12.414
66974SOL    HW2 2762   1.761   6.787  12.538
66975SOL     OW 2763  14.508   4.489   6.825
66975SOL    HW1 2764  14.586   4.510   6.773
66975SOL    HW2 2765  14.510   4.552   6.897
66976SOL     OW 2766  13.523   7.675  14.758
66976SOL    HW1 2767  13.582   7.649  14.829
66976SOL    HW2 2768  13.562   7.754  14.721
66977SOL     OW 2769  14.171   5.566   2.618
66977SOL    HW1 2770  14.253   5.523   2.637
66977SOL    HW2 2771  14.115   5.497   2.583
66978SOL     OW 2772  14.803   7.762   2.076
66978SOL    HW1 2773  14.817   7.799   2.163
66978SOL    HW2 2774   0.012   7.718   2.055
66979SOL     OW 2775   1.607   1.572  10.509
66979SOL    HW1 2776   1.685   1.530  10.546
66979SOL    HW2 2777   1.606   1.545  10.417
66980SOL     OW 2778  12.983   8.007   0.865
66980SOL    HW1 2779  12.894   7.986   0.893
66980SOL    HW2 2780  12.980   8.000   0.769
66981SOL     OW 2781   4.588  13.201   9.316
66981SOL    HW1 2782   4.494  13.207   9.332
66981SOL    HW2 2783   4.596  13.143   9.240
66982SOL     OW 2784   8.549  13.521   7.555
66982SOL    HW1 2785   8.627  13.575   7.542
66982SOL    HW2 2786   8.524  13.537   7.646
66983SOL     OW 2787   7.816   4.602  11.785
66983SOL    HW1 2788   7.776   4.677  11.828
66983SOL    HW2 2789   7.769   4.526  11.820
66984SOL     OW 2790   7.644  13.521   0.751
66984SOL    HW1 2791   7.552  13.509   0.772
66984SOL    HW2 2792   7.688  13.447   0.792
66985SOL     OW 2793  10.188  12.122   9.119
66985SOL    HW1 2794  10.272  12.149   9.082
66985SOL    HW2 2795  10.146  12.071   9.050
66986SOL     OW 2796   0.358   6.091   5.632
66986SOL    HW1 2797   0.334   6.038   5.708
66986SOL    HW2 2798   0.398   6.029   5.572
66987SOL     OW 2799   5.534   2.246   2.098
66987SOL    HW1 2800   5.502   2.216   2.013
66987SOL    HW2 2801   5.609   2.301   2.078
66988SOL     OW 2802  13.118   7.715   1.895
66988SOL    HW1 2803  13.078   7.799   1.920
66988SOL    HW2 2804  13.143   7.676   1.979
66989SOL     OW 2805  10.035   7.252  13.905
66989SOL    HW1 2806  10.039   7.156  13.911
66989SOL    HW2 2807   9.953   7.275  13.949
66990SOL     OW 2808  12.115   5.774  13.346
66990SOL    HW1 2809  12.048   5.735  13.402
66990SOL    HW2 2810  12.073   5.780  13.260
66991SOL     OW 2811  13.228  13.447  14.460
66991SOL    HW1 2812  13.143  13.485  14.436
66991SOL    HW2 2813  13.251  13.391  14.386
66992SOL     OW 2814   1.469   6.130   0.657
66992SOL    HW1 2815   1.459   6.061   0.723
66992SOL    HW2 2816   1.534   6.095   0.596
66993SOL     OW 2817   9.638  13.387  14.455
66993SOL    HW1 2818   9.596  13.370  14.539
66993SOL    HW2 2819   9.732  13.385  14.475
66994SOL     OW 2820   2.295   2.831   6.723
66994SOL    HW1 2821   2.381   2.856   6.690
66994SOL    HW2 2822   2.269   2.904   6.781
66995SOL     OW 2823   5.564   3.336   5.983
66995SOL    HW1 2824   5.609   3.305   5.905
66995SOL    HW2 2825   5.473   3.348   5.956
66996SOL     OW 2826   7.431  14.848   9.161
66996SOL    HW1 2827   7.391  14.785   9.102
66996SOL    HW2 2828   7.433  14.804   9.246
66997SOL     OW 2829   3.564  12.738  13.047
66997SOL    HW1 2830   3.577  12.829  13.022
66997SOL    HW2 2831   3.653  12.704  13.058
66998SOL     OW 2832   0.247  10.124  12.571
66998SOL    HW1 2833   0.154  10.106  12.559
66998SOL    HW2 2834   0.274  10.168  12.490
66999SOL     OW 2835  10.016   1.605  11.539
66999SOL    HW1 2836  10.047   1.621  11.450
66999SOL    HW2 2837  10.092   1.567  11.584
67000SOL     OW 2838  12.535   0.012  14.429
67000SOL    HW1 2839  12.583   0.078  14.479
67000SOL    HW2 2840  12.581   0.006  14.346
67001SOL     OW 2841  12.433   0.100   3.290
67001SOL    HW1 2842  12.514   0.143   3.263
67001SOL    HW2 2843  12.453   0.065   3.377
67002SOL     OW 2844   6.011  10.318   5.846
67002SOL    HW1 2845   6.014  10.412   5.861
67002SOL    HW2 2846   5.999  10.280   5.933
67003SOL     OW 2847   8.344  11.954  12.979
67003SOL    HW1 2848   8.366  11.899  12.904
67003SOL    HW2 2849   8.253  11.932  12.999
67004SOL     OW 2850   3.494   6.677   3.104
67004SOL    HW1 2851   3.526   6.755   3.060
67004SOL    HW2 2852   3.404   6.667   3.073
67005SOL     OW 2853  10.494   3.596   2.145
67005SOL    HW1 2854  10.583   3.577   2.174
67005SOL    HW2 2855  10.439   3.535   2.196
67006SOL     OW 2856   7.584  12.998   6.936
67006SOL    HW1 2857   7.606  12.907   6.956
67006SOL    HW2 2858   7.488  12.999   6.931
67007SOL     OW 2859  13.027   5.159  13.662
67007SOL    HW1 2860  12.955   5.178  13.603
67007SOL    HW2 2861  13.084   5.236  13.655
67008SOL     OW 2862   1.201  13.122   6.850
67008SOL    HW1 2863   1.130  13.058   6.854
67008SOL    HW2 2864   1.272  13.083   6.901
67009SOL     OW 2865   3.320   9.735   9.162
67009SOL    HW1 2866   3.255   9.665   9.172
67009SOL    HW2 2867   3.305   9.792   9.238
67010SOL     OW 2868   2.181  12.877   1.981
67010SOL    HW1 2869   2.201  12.860   2.073
67010SOL    HW2 2870   2.087  12.860   1.973
67011SOL     OW 2871   5.651  14.095  13.900
67011SOL    HW1 2872   5.672  14.176  13.948
67011SOL    HW2 2873   5.679  14.112  13.811
67012SOL     OW 2874   4.421   7.789   9.863
67012SOL    HW1 2875   4.474   7.728   9.812
67012SOL    HW2 2876   4.360   7.826   9.799
67013SOL     OW 2877  11.508  11.625  12.813
67013SOL    HW1 2878  11.569  11.697  12.797
67013SOL    HW2 2879  11.428  11.650  12.768
67014SOL     OW 2880  10.923   8.479   0.389
67014SOL    HW1 2881  10.962   8.392   0.398
67014SOL    HW2 2882  10.835   8.469   0.425
67015SOL     OW 2883  11.224  14.580   0.325
67015SOL    HW1 2884  11.248  14.533   0.246
67015SOL    HW2 2885  11.240  14.672   0.304
67016SOL     OW 2886  14.572   0.952   9.239
67016SOL    HW1 2887  14.525   1.018   9.187
67016SOL    HW2 2888  14.502   0.902   9.281
67017SOL     OW 2889  14.639   8.109   8.039
67017SOL    HW1 2890  14.668   8.197   8.019
67017SOL    HW2 2891  14.629   8.107   8.134
67018SOL     OW 2892   7.572   3.922  14.871
67018SOL    HW1 2893   7.661   3.909   0.030
67018SOL    HW2 2894   7.558   3.850  14.810
67019SOL     OW 2895  12.193   4.063  14.831
67019SOL    HW1 2896  12.167   3.978  14.796
67019SOL    HW2 2897  12.286   4.070  14.810
67020SOL     OW 2898   8.346   5.506  12.934
67020SOL    HW1 2899   8.304   5.430  12.975
67020SOL    HW2 2900   8.292   5.580  12.960
67021SOL     OW 2901   7.436   1.116   7.522
67021SOL    HW1 2902   7.380   1.086   7.593
67021SOL    HW2 2903   7.525   1.094   7.550
67022SOL     OW 2904   0.403   4.897   8.836
67022SOL    HW1 2905   0.418   4.806   8.864
67022SOL    HW2 2906   0.477   4.945   8.871
67023SOL     OW 2907   8.838  13.430  13.702
67023SOL    HW1 2908   8.802  13.373  13.635
67023SOL    HW2 2909   8.931  13.435  13.682
67024SOL     OW 2910   9.934  13.773   2.357
67024SOL    HW1 2911   9.976  13.728   2.430
67024SOL    HW2 2912   9.853  13.808   2.394
67025SOL     OW 2913   8.486  11.701   4.812
67025SOL    HW1 2914   8.575  11.669   4.799
67025SOL    HW2 2915   8.489  11.748   4.895
67026SOL     OW 2916  10.025   4.240  12.653
67026SOL    HW1 2917   9.986   4.255  12.567
67026SOL    HW2 2918   9.955   4.258  12.715
67027SOL     OW 2919   6.589   0.075  12.338
67027SOL    HW1 2920   6.561   0.016  12.407
67027SOL    HW2 2921   6.510   0.091  12.286
67028SOL     OW 2922   8.461   9.643   4.294
67028SOL    HW1 2923   8.457   9.661   4.200
67028SOL    HW2 2924   8.525   9.706   4.328
67029SOL     OW 2925   3.352  13.775   6.893
67029SOL    HW1 2926   3.374  13.868   6.888
67029SOL    HW2 2927   3.265  13.769   6.854
67030SOL     OW 2928  10.300   1.599  12.767
67030SOL    HW1 2929  10.366   1.586  12.835
67030SOL    HW2 2930  10.284   1.511  12.732
67031SOL     OW 2931  13.804   0.531   5.226
67031SOL    HW1 2932  13.750   0.479   5.166
67031SOL    HW2 2933  13.877   0.473   5.248
67032SOL     OW 2934  11.717   3.082   7.120
67032SOL    HW1 2935  11.757   2.998   7.144
67032SOL    HW2 2936  11.671   3.110   7.200
67033SOL     OW 2937  12.448  10.693   7.110
67033SOL    HW1 2938  12.365  10.653   7.085
67033SOL    HW2 2939  12.480  10.639   7.182
67034SOL     OW 2940   3.864   9.339   1.964
67034SOL    HW1 2941   3.894   9.330   1.874
67034SOL    HW2 2942   3.790   9.280   1.971
67035SOL     OW 2943   8.353  13.894   5.004
67035SOL    HW1 2944   8.405  13.831   5.055
67035SOL    HW2 2945   8.271  13.903   5.054
67036SOL     OW 2946   1.857  13.972   8.224
67036SOL    HW1 2947   1.868  13.889   8.270
67036SOL    HW2 2948   1.924  13.971   8.156
67037SOL     OW 2949  13.362   7.894   1.790
67037SOL    HW1 2950  13.393   7.817   1.742
67037SOL    HW2 2951  13.276   7.868   1.823
67038SOL     OW 2952   9.268   8.041   7.318
67038SOL    HW1 2953   9.194   8.063   7.262
67038SOL    HW2 2954   9.229   8.022   7.403
67039SOL     OW 2955  10.960   1.882  11.565
67039SOL    HW1 2956  10.946   1.788  11.568
67039SOL    HW2 2957  10.872   1.920  11.565
67040SOL     OW 2958   2.244   4.440  13.484
67040SOL    HW1 2959   2.223   4.477  13.398
67040SOL    HW2 2960   2.167   4.389  13.508
67041SOL     OW 2961   4.216   7.359   0.731
67041SOL    HW1 2962   4.218   7.440   0.782
67041SOL    HW2 2963   4.261   7.295   0.786
67042SOL     OW 2964  13.244  12.038   4.865
67042SOL    HW1 2965  13.316  12.091   4.830
67042SOL    HW2 2966  13.261  11.950   4.833
67043SOL     OW 2967   6.202   9.914   5.379
67043SOL    HW1 2968   6.195   9.841   5.317
67043SOL    HW2 2969   6.114   9.925   5.414
67044SOL     OW 2970   2.582   1.193   5.198
67044SOL    HW1 2971   2.565   1.193   5.104
67044SOL    HW2 2972   2.621   1.107   5.215
67045SOL     OW 2973   4.175  14.025   7.805
67045SOL    HW1 2974   4.171  14.063   7.892
67045SOL    HW2 2975   4.090  14.047   7.765
67046SOL     OW 2976   1.444   7.669   4.863
67046SOL    HW1 2977   1.403   7.689   4.778
67046SOL    HW2 2978   1.476   7.753   4.894
67047SOL     OW 2979   2.199  14.612  13.245
67047SOL    HW1 2980   2.291  14.615  13.272
67047SOL    HW2 2981   2.182  14.699  13.210
67048SOL     OW 2982   9.888   8.020  10.731
67048SOL    HW1 2983   9.882   8.114  10.749
67048SOL    HW2 2984   9.851   7.979  10.809
67049SOL     OW 2985   6.031   7.886   9.421
67049SOL    HW1 2986   5.948   7.843   9.440
67049SOL    HW2 2987   6.022   7.917   9.331
67050SOL     OW 2988   0.557   6.823  11.752
67050SOL    HW1 2989   0.567   6.913  11.719
67050SOL    HW2 2990   0.645   6.787  11.751
67051SOL     OW 2991   3.588  12.349   8.029
67051SOL    HW1 2992   3.492  12.348   8.027
67051SOL    HW2 2993   3.612  12.279   8.089
67052SOL     OW 2994  10.465   2.741  10.700
67052SOL    HW1 2995  10.442   2.767  10.790
67052SOL    HW2 2996  10.394   2.683  10.673
67053SOL     OW 2997  13.667   5.596   5.485
67053SOL    HW1 2998  13.731   5.638   5.543
67053SOL    HW2 2999  13.597   5.566   5.543
67054SOL     OW 3000   3.299  11.783   7.378
67054SOL    HW1 3001   3.278  11.716   7.444
67054SOL    HW2 3002   3.223  11.783   7.319
67055SOL     OW 3003  11.541  10.108  10.392
67055SOL    HW1 3004  11.457  10.103  10.438
67055SOL    HW2 3005  11.568  10.199  10.401
67056SOL     OW 3006   7.872   2.559   3.946
67056SOL    HW1 3007   7.910   2.639   3.982
67056SOL    HW2 3008   7.828   2.517   4.020
67057SOL     OW 3009  14.483  12.442   9.638
67057SOL    HW1 3010  14.491  12.524   9.589
67057SOL    HW2 3011  14.545  12.383   9.596
67058SOL     OW 3012   9.873  11.431   2.070
67058SOL    HW1 3013   9.833  11.485   2.138
67058SOL    HW2 3014   9.943  11.384   2.116
67059SOL     OW 3015   1.167  11.098   6.181
67059SOL    HW1 3016   1.212  11.015   6.165
67059SOL    HW2 3017   1.148  11.097   6.275
67060SOL     OW 3018   9.037   3.309  11.856
67060SOL    HW1 3019   8.985   3.390  11.862
67060SOL    HW2 3020   9.122   3.338  11.821
67061SOL     OW 3021   7.475   0.175   5.562
67061SOL    HW1 3022   7.544   0.111   5.545
67061SOL    HW2 3023   7.422   0.134   5.631
67062SOL     OW 3024   8.455   4.788   2.435
67062SOL    HW1 3025   8.384   4.755   2.380
67062SOL    HW2 3026   8.516   4.829   2.374
67063SOL     OW 3027   3.372  12.737   8.708
67063SOL    HW1 3028   3.374  12.710   8.616
67063SOL    HW2 3029   3.315  12.814   8.709
67064SOL     OW 3030  10.762  14.850   6.546
67064SOL    HW1 3031  10.810  14.861   6.629
67064SOL    HW2 3032  10.767   0.063   6.504
67065SOL     OW 3033   5.948   1.683   8.651
67065SOL    HW1 3034   5.967   1.743   8.723
67065SOL    HW2 3035   5.854   1.694   8.635
67066SOL     OW 3036   1.915   2.507   6.577
67066SOL    HW1 3037   1.941   2.596   6.599
67066SOL    HW2 3038   1.929   2.500   6.483
67067SOL     OW 3039  10.146  10.619   7.700
67067SOL    HW1 3040  10.228  10.592   7.658
67067SOL    HW2 3041  10.165  10.706   7.735
67068SOL     OW 3042  10.927   9.805  10.686
67068SOL    HW1 3043  10.976   9.886  10.701
67068SOL    HW2 3044  10.962   9.743  10.750
67069SOL     OW 3045   8.547  14.381  10.720
67069SOL    HW1 3046   8.497  14.341  10.649
67069SOL    HW2 3047   8.592  14.455  10.679
67070SOL     OW 3048   6.310  10.207  13.921
67070SOL    HW1 3049   6.387  10.157  13.893
67070SOL    HW2 3050   6.236  10.163  13.880
67071SOL     OW 3051   8.154   3.035  14.466
67071SOL    HW1 3052   8.115   3.100  14.408
67071SOL    HW2 3053   8.080   3.002  14.518
67072SOL     OW 3054  10.418  12.753   8.486
67072SOL    HW1 3055  10.495  12.743   8.429
67072SOL    HW2 3056  10.364  12.676   8.468
67073SOL     OW 3057   4.288  12.614  10.465
67073SOL    HW1 3058   4.228  12.540  10.465
67073SOL    HW2 3059   4.348  12.596  10.392
67074SOL     OW 3060   5.673  10.769   3.771
67074SOL    HW1 3061   5.719  10.746   3.691
67074SOL    HW2 3062   5.590  10.807   3.742
67075SOL     OW 3063   3.348   9.713   1.905
67075SOL    HW1 3064   3.311   9.749   1.824
67075SOL    HW2 3065   3.408   9.644   1.876
67076SOL     OW 3066  14.647   2.505   1.847
67076SOL    HW1 3067  14.692   2.586   1.826
67076SOL    HW2 3068  14.696   2.468   1.920
67077SOL     OW 3069   9.712  11.656   2.526
67077SOL    HW1 3070   9.674  11.723   2.584
67077SOL    HW2 3071   9.769  11.605   2.584
67078SOL     OW 3072  13.233   5.078  10.515
67078SOL    HW1 3073  13.308   5.086  10.456
67078SOL    HW2 3074  13.249   5.144  10.582
67079SOL     OW 3075  11.972  11.083  12.487
67079SOL    HW1 3076  11.967  10.996  12.449
67079SOL    HW2 3077  11.896  11.089  12.545
67080SOL     OW 3078  11.039   1.331  11.233
67080SOL    HW1 3079  11.111   1.267  11.226
67080SOL    HW2 3080  10.960   1.280  11.213
67081SOL     OW 3081   1.663  13.313  14.529
67081SOL    HW1 3082   1.742  13.262  14.544
67081SOL    HW2 3083   1.593  13.248  14.522
67082SOL     OW 3084   3.194   4.950  11.867
67082SOL    HW1 3085   3.265   5.005  11.834
67082SOL    HW2 3086   3.227   4.915  11.949
67083SOL     OW 3087   9.947   2.300   0.423
67083SOL    HW1 3088  10.038   2.285   0.449
67083SOL    HW2 3089   9.904   2.330   0.502
67084SOL     OW 3090  12.989   1.331  14.606
67084SOL    HW1 3091  12.921   1.388  14.642
67084SOL    HW2 3092  12.941   1.254  14.575
67085SOL     OW 3093   1.504   0.862   2.109
67085SOL    HW1 3094   1.480   0.771   2.131
67085SOL    HW2 3095   1.599   0.864   2.117
67086SOL     OW 3096   7.256  10.303   8.740
67086SOL    HW1 3097   7.303  10.271   8.662
67086SOL    HW2 3098   7.315  10.282   8.813
67087SOL     OW 3099   9.141   8.507   8.038
67087SOL    HW1 3100   9.170   8.545   8.121
67087SOL    HW2 3101   9.151   8.413   8.049
67088SOL     OW 3102   0.490  10.262   2.633
67088SOL    HW1 3103   0.413  10.207   2.650
67088SOL    HW2 3104   0.528  10.226   2.553
67089SOL     OW 3105   0.332  11.024   2.277
67089SOL    HW1 3106   0.378  10.971   2.212
67089SOL    HW2 3107   0.399  11.044   2.343
67090SOL     OW 3108   4.713   7.091  10.516
67090SOL    HW1 3109   4.662   7.162  10.554
67090SOL    HW2 3110   4.771   7.063  10.586
67091SOL     OW 3111   1.312   3.662   6.733
67091SOL    HW1 3112   1.282   3.731   6.674
67091SOL    HW2 3113   1.389   3.625   6.689
67092SOL     OW 3114   2.674   8.436   7.605
67092SOL    HW1 3115   2.750   8.378   7.607
67092SOL    HW2 3116   2.645   8.435   7.514
67093SOL     OW 3117  14.827   0.521   0.114
67093SOL    HW1 3118  14.802   0.535   0.023
67093SOL    HW2 3119  14.799   0.432   0.133
67094SOL     OW 3120  12.332   7.604  11.572
67094SOL    HW1 3121  12.312   7.698  11.575
67094SOL    HW2 3122  12.369   7.585  11.658
67095SOL     OW 3123  13.318   6.206   0.265
67095SOL    HW1 3124  13.328   6.183   0.173
67095SOL    HW2 3125  13.371   6.142   0.312
67096SOL     OW 3126   1.512  13.083   8.419
67096SOL    HW1 3127   1.563  13.155   8.382
67096SOL    HW2 3128   1.455  13.055   8.347
67097SOL     OW 3129   0.579   0.766   4.730
67097SOL    HW1 3130   0.587   0.719   4.647
67097SOL    HW2 3131   0.667   0.799   4.748
67098SOL     OW 3132   6.384  13.034   2.934
67098SOL    HW1 3133   6.347  13.088   3.004
67098SOL    HW2 3134   6.357  13.080   2.854
67099SOL     OW 3135  14.267  12.275  12.206
67099SOL    HW1 3136  14.256  12.188  12.245
67099SOL    HW2 3137  14.360  12.295  12.219
67100SOL     OW 3138  10.372   0.851  10.960
67100SOL    HW1 3139  10.453   0.901  10.952
67100SOL    HW2 3140  10.396   0.775  11.014
67101SOL     OW 3141   3.690  12.887  12.270
67101SOL    HW1 3142   3.649  12.972  12.255
67101SOL    HW2 3143   3.783  12.902  12.253
67102SOL     OW 3144  12.363   1.647  14.596
67102SOL    HW1 3145  12.347   1.554  14.584
67102SOL    HW2 3146  12.403   1.655  14.682
67103SOL     OW 3147   8.173   4.916  14.319
67103SOL    HW1 3148   8.257   4.885  14.284
67103SOL    HW2 3149   8.148   4.850  14.384
67104SOL     OW 3150  11.913  14.219   3.553
67104SOL    HW1 3151  12.007  14.235   3.550
67104SOL    HW2 3152  11.897  14.183   3.640
67105SOL     OW 3153   9.087   8.534  10.031
67105SOL    HW1 3154   9.080   8.494  10.118
67105SOL    HW2 3155   8.997   8.540  10.000
67106SOL     OW 3156   0.442   9.366  11.742
67106SOL    HW1 3157   0.399   9.294  11.789
67106SOL    HW2 3158   0.519   9.386  11.794
67107SOL     OW 3159  10.482   1.506   5.926
67107SOL    HW1 3160  10.409   1.454   5.960
67107SOL    HW2 3161  10.469   1.593   5.964
67108SOL     OW 3162   4.371   9.043   2.175
67108SOL    HW1 3163   4.417   9.121   2.206
67108SOL    HW2 3164   4.299   9.078   2.122
67109SOL     OW 3165   2.000   5.629   8.274
67109SOL    HW1 3166   2.005   5.705   8.331
67109SOL    HW2 3167   1.963   5.560   8.328
67110SOL     OW 3168   0.468   3.073  13.671
67110SOL    HW1 3169   0.487   3.160  13.637
67110SOL    HW2 3170   0.375   3.060  13.653
67111SOL     OW 3171   8.380   8.649   5.111
67111SOL    HW1 3172   8.317   8.680   5.045
67111SOL    HW2 3173   8.465   8.655   5.067
67112SOL     OW 3174  10.325  11.151  10.284
67112SOL    HW1 3175  10.399  11.179  10.230
67112SOL    HW2 3176  10.248  11.188  10.239
67113SOL     OW 3177  14.236   5.604  11.215
67113SOL    HW1 3178  14.172   5.655  11.165
67113SOL    HW2 3179  14.193   5.520  11.232
67114SOL     OW 3180   9.654   6.095  12.404
67114SOL    HW1 3181   9.689   6.085  12.315
67114SOL    HW2 3182   9.578   6.037  12.407
67115SOL     OW 3183   4.320   0.876  11.236
67115SOL    HW1 3184   4.316   0.824  11.317
67115SOL    HW2 3185   4.300   0.814  11.166
67116SOL     OW 3186   1.594   9.985   0.073
67116SOL    HW1 3187   1.575   9.906   0.124
67116SOL    HW2 3188   1.679  10.015   0.108
67117SOL     OW 3189   3.806   7.891   9.616
67117SOL    HW1 3190   3.765   7.977   9.607
67117SOL    HW2 3191   3.779   7.861   9.703
67118SOL     OW 3192   7.343  11.260   5.386
67118SOL    HW1 3193   7.417  11.199   5.387
67118SOL    HW2 3194   7.382  11.345   5.404
67119SOL     OW 3195  10.292   8.161   8.959
67119SOL    HW1 3196  10.306   8.091   8.895
67119SOL    HW2 3197  10.312   8.122   9.044
67120SOL     OW 3198  11.235   4.471   0.805
67120SOL    HW1 3199  11.325   4.501   0.802
67120SOL    HW2 3200  11.184   4.551   0.820
67121SOL     OW 3201   1.348  14.320  13.520
67121SOL    HW1 3202   1.323  14.230  13.542
67121SOL    HW2 3203   1.320  14.331  13.429
67122SOL     OW 3204   8.009   5.782  13.013
67122SOL    HW1 3205   8.072   5.842  12.973
67122SOL    HW2 3206   7.925   5.808  12.977
67123SOL     OW 3207   6.809  13.246   6.545
67123SOL    HW1 3208   6.831  13.324   6.494
67123SOL    HW2 3209   6.730  13.212   6.504
67124SOL     OW 3210   4.180  11.811   0.803
67124SOL    HW1 3211   4.095  11.788   0.840
67124SOL    HW2 3212   4.163  11.887   0.748
67125SOL     OW 3213  13.718  11.302   7.923
67125SOL    HW1 3214  13.622  11.299   7.922
67125SOL    HW2 3215  13.739  11.392   7.948
67126SOL     OW 3216  11.856  11.403  13.762
67126SOL    HW1 3217  11.802  11.325  13.746
67126SOL    HW2 3218  11.897  11.421  13.677
67127SOL     OW 3219   5.575   7.482  11.901
67127SOL    HW1 3220   5.546   7.511  11.988
67127SOL    HW2 3221   5.553   7.389  11.898
67128SOL     OW 3222   3.577   2.015   3.580
67128SOL    HW1 3223   3.530   1.941   3.618
67128SOL    HW2 3224   3.613   1.982   3.498
67129SOL     OW 3225   1.657   2.593   1.803
67129SOL    HW1 3226   1.621   2.673   1.764
67129SOL    HW2 3227   1.669   2.534   1.729
67130SOL     OW 3228   2.686  13.295   7.540
67130SOL    HW1 3229   2.758  13.237   7.565
67130SOL    HW2 3230   2.656  13.332   7.623
67131SOL     OW 3231   1.765   4.097   6.677
67131SOL    HW1 3232   1.785   4.004   6.669
67131SOL    HW2 3233   1.829   4.140   6.621
67132SOL     OW 3234   1.889  10.875   3.952
67132SOL    HW1 3235   1.825  10.805   3.942
67132SOL    HW2 3236   1.930  10.859   4.037
67133SOL     OW 3237   3.889   9.620   4.677
67133SOL    HW1 3238   3.977   9.616   4.715
67133SOL    HW2 3239   3.861   9.529   4.672
67134SOL     OW 3240   0.058   6.687   7.068
67134SOL    HW1 3241  14.860   6.704   7.007
67134SOL    HW2 3242   0.126   6.645   7.015
67135SOL     OW 3243  14.498   0.823   3.918
67135SOL    HW1 3244  14.551   0.858   3.990
67135SOL    HW2 3245  14.437   0.894   3.897
67136SOL     OW 3246   3.880   1.019   7.626
67136SOL    HW1 3247   3.920   1.052   7.545
67136SOL    HW2 3248   3.847   1.097   7.669
67137SOL     OW 3249  13.999  10.169  13.928
67137SOL    HW1 3250  14.004  10.240  13.992
67137SOL    HW2 3251  13.997  10.214  13.843
67138SOL     OW 3252   9.628  13.022   7.835
67138SOL    HW1 3253   9.714  13.059   7.814
67138SOL    HW2 3254   9.593  12.992   7.751
67139SOL     OW 3255  12.467  13.790  14.816
67139SOL    HW1 3256  12.428  13.864  14.769
67139SOL    HW2 3257  12.450  13.808   0.035
67140SOL     OW 3258   5.014  10.720   4.916
67140SOL    HW1 3259   5.103  10.734   4.884
67140SOL    HW2 3260   4.958  10.740   4.841
67141SOL     OW 3261   7.081   6.090   4.742
67141SOL    HW1 3262   7.051   6.030   4.810
67141SOL    HW2 3263   7.157   6.046   4.704
67142SOL     OW 3264  12.193   8.127   3.325
67142SOL    HW1 3265  12.201   8.154   3.233
67142SOL    HW2 3266  12.240   8.044   3.329
67143SOL     OW 3267   4.060  13.936   6.269
67143SOL    HW1 3268   4.063  13.927   6.365
67143SOL    HW2 3269   3.967  13.929   6.248
67144SOL     OW 3270   4.670   7.371   8.617
67144SOL    HW1 3271   4.598   7.382   8.554
67144SOL    HW2 3272   4.709   7.287   8.594
67145SOL     OW 3273   0.705  14.829  13.707
67145SOL    HW1 3274   0.676  14.758  13.763
67145SOL    HW2 3275   0.670   0.035  13.748
67146SOL     OW 3276  13.642  13.349   9.212
67146SOL    HW1 3277  13.549  13.369   9.214
67146SOL    HW2 3278  13.686  13.434   9.218
67147SOL     OW 3279   7.679  10.132   9.002
67147SOL    HW1 3280   7.670  10.198   9.070
67147SOL    HW2 3281   7.720  10.178   8.929
67148SOL     OW 3282   5.644   7.040  14.216
67148SOL    HW1 3283   5.691   7.009  14.294
67148SOL    HW2 3284   5.703   7.020  14.143
67149SOL     OW 3285   0.145   6.807  11.163
67149SOL    HW1 3286   0.177   6.841  11.080
67149SOL    HW2 3287   0.220   6.815  11.222
67150SOL     OW 3288   6.842  14.812   4.780
67150SOL    HW1 3289   6.897  14.749   4.828
67150SOL    HW2 3290   6.752  14.787   4.804
67151SOL     OW 3291   6.802   4.977   0.342
67151SOL    HW1 3292   6.739   5.029   0.291
67151SOL    HW2 3293   6.872   5.038   0.364
67152SOL     OW 3294   4.477   4.739   5.007
67152SOL    HW1 3295   4.544   4.689   4.960
67152SOL    HW2 3296   4.443   4.678   5.073
67153SOL     OW 3297   9.720   8.186   5.974
67153SOL    HW1 3298   9.721   8.110   6.032
67153SOL    HW2 3299   9.670   8.252   6.022
67154SOL     OW 3300   1.100   6.649   9.474
67154SOL    HW1 3301   1.117   6.606   9.558
67154SOL    HW2 3302   1.181   6.635   9.424
67155SOL     OW 3303  12.638   5.831   4.562
67155SOL    HW1 3304  12.594   5.752   4.593
67155SOL    HW2 3305  12.726   5.803   4.540
67156SOL     OW 3306   3.731   3.291   7.686
67156SOL    HW1 3307   3.788   3.282   7.762
67156SOL    HW2 3308   3.789   3.281   7.611
67157SOL     OW 3309   7.288   2.273   8.183
67157SOL    HW1 3310   7.257   2.345   8.238
67157SOL    HW2 3311   7.220   2.263   8.117
67158SOL     OW 3312   4.401   1.819  10.175
67158SOL    HW1 3313   4.406   1.865  10.259
67158SOL    HW2 3314   4.490   1.825  10.140
67159SOL     OW 3315   9.593   4.566   8.682
67159SOL    HW1 3316   9.580   4.621   8.605
67159SOL    HW2 3317   9.686   4.576   8.703
67160SOL     OW 3318   8.106  10.091  10.353
67160SOL    HW1 3319   8.167  10.042  10.408
67160SOL    HW2 3320   8.157  10.117  10.277
67161SOL     OW 3321   0.887   8.290   5.542
67161SOL    HW1 3322   0.935   8.300   5.624
67161SOL    HW2 3323   0.934   8.344   5.480
67162SOL     OW 3324   4.941  12.839  11.050
67162SOL    HW1 3325   4.964  12.928  11.024
67162SOL    HW2 3326   5.025  12.797  11.068
67163SOL     OW 3327   2.608  11.882   9.302
67163SOL    HW1 3328   2.596  11.827   9.225
67163SOL    HW2 3329   2.525  11.876   9.349
67164SOL     OW 3330   1.220  13.000   8.162
67164SOL    HW1 3331   1.163  12.977   8.089
67164SOL    HW2 3332   1.261  12.917   8.189
67165SOL     OW 3333   4.677  12.008   2.183
67165SOL    HW1 3334   4.676  12.058   2.101
67165SOL    HW2 3335   4.606  11.944   2.173
67166SOL     OW 3336   9.208   3.847   2.079
67166SOL    HW1 3337   9.299   3.826   2.061
67166SOL    HW2 3338   9.209   3.940   2.104
67167SOL     OW 3339   6.131   2.565   2.352
67167SOL    HW1 3340   6.187   2.635   2.317
67167SOL    HW2 3341   6.140   2.494   2.289
67168SOL     OW 3342  11.462   4.378   5.574
67168SOL    HW1 3343  11.540   4.433   5.571
67168SOL    HW2 3344  11.423   4.387   5.487
67169SOL     OW 3345   2.158  10.406   4.591
67169SOL    HW1 3346   2.067  10.433   4.584
67169SOL    HW2 3347   2.164  10.325   4.541
67170SOL     OW 3348   5.918  10.805   2.932
67170SOL    HW1 3349   5.993  10.802   2.990
67170SOL    HW2 3350   5.952  10.836   2.849
67171SOL     OW 3351   1.687   1.532   0.330
67171SOL    HW1 3352   1.667   1.600   0.395
67171SOL    HW2 3353   1.605   1.519   0.283
67172SOL     OW 3354  12.711   4.614   7.375
67172SOL    HW1 3355  12.681   4.606   7.466
67172SOL    HW2 3356  12.773   4.542   7.363
67173SOL     OW 3357   8.750   6.399   7.058
67173SOL    HW1 3358   8.765   6.385   7.151
67173SOL    HW2 3359   8.822   6.352   7.015
67174SOL     OW 3360  10.281   2.330   4.037
67174SOL    HW1 3361  10.243   2.270   4.101
67174SOL    HW2 3362  10.346   2.277   3.990
67175SOL     OW 3363   5.423  11.567   4.720
67175SOL    HW1 3364   5.350  11.590   4.663
67175SOL    HW2 3365   5.409  11.476   4.743
67176SOL     OW 3366  13.034   2.315  13.401
67176SOL    HW1 3367  13.024   2.409  13.388
67176SOL    HW2 3368  13.099   2.307  13.470
67177SOL     OW 3369   4.939   3.013   9.954
67177SOL    HW1 3370   4.858   3.061   9.971
67177SOL    HW2 3371   4.975   3.053   9.875
67178SOL     OW 3372   6.023  12.975  13.444
67178SOL    HW1 3373   6.051  12.947  13.531
67178SOL    HW2 3374   5.932  12.946  13.438
67179SOL     OW 3375   4.042  12.384   4.740
67179SOL    HW1 3376   4.127  12.407   4.704
67179SOL    HW2 3377   4.002  12.328   4.673
67180SOL     OW 3378   7.737  11.570   0.822
67180SOL    HW1 3379   7.762  11.576   0.730
67180SOL    HW2 3380   7.654  11.617   0.827
67181SOL     OW 3381  10.798   0.094   8.430
67181SOL    HW1 3382  10.704   0.092   8.447
67181SOL    HW2 3383  10.818   0.009   8.391
67182SOL     OW 3384   6.563  11.820   6.881
67182SOL    HW1 3385   6.578  11.914   6.891
67182SOL    HW2 3386   6.503  11.798   6.952
67183SOL     OW 3387  13.674   8.943   0.047
67183SOL    HW1 3388  13.580   8.928   0.050
67183SOL    HW2 3389  13.686   9.009  14.852
67184SOL     OW 3390   5.589   2.234   6.452
67184SOL    HW1 3391   5.545   2.200   6.375
67184SOL    HW2 3392   5.672   2.186   6.456
67185SOL     OW 3393  12.199  14.380  12.666
67185SOL    HW1 3394  12.150  14.462  12.666
67185SOL    HW2 3395  12.256  14.386  12.743
67186SOL     OW 3396   0.697   9.999   4.479
67186SOL    HW1 3397   0.723  10.072   4.424
67186SOL    HW2 3398   0.647  10.040   4.550
67187SOL     OW 3399  13.102   0.595   5.170
67187SOL    HW1 3400  13.150   0.677   5.155
67187SOL    HW2 3401  13.115   0.577   5.263
67188SOL     OW 3402  11.293   3.139   1.343
67188SOL    HW1 3403  11.218   3.119   1.286
67188SOL    HW2 3404  11.289   3.073   1.412
67189SOL     OW 3405  10.486  14.826   6.712
67189SOL    HW1 3406  10.534  14.849   6.633
67189SOL    HW2 3407  10.395  14.819   6.683
67190SOL     OW 3408   4.767  13.769  11.702
67190SOL    HW1 3409   4.731  13.756  11.790
67190SOL    HW2 3410   4.839  13.831  11.715
67191SOL     OW 3411   9.847   0.537  13.693
67191SOL    HW1 3412   9.894   0.493  13.622
67191SOL    HW2 3413   9.916   0.580  13.744
67192SOL     OW 3414   7.601  12.982   3.595
67192SOL    HW1 3415   7.646  13.065   3.583
67192SOL    HW2 3416   7.518  13.005   3.638
67193SOL     OW 3417   1.871   1.043   6.716
67193SOL    HW1 3418   1.912   0.991   6.646
67193SOL    HW2 3419   1.931   1.035   6.790
67194SOL     OW 3420   2.223   5.216  13.477
67194SOL    HW1 3421   2.219   5.120  13.476
67194SOL    HW2 3422   2.270   5.237  13.558
67195SOL     OW 3423   0.929  10.992   4.069
67195SOL    HW1 3424   0.921  10.954   4.156
67195SOL    HW2 3425   0.902  10.921   4.010
67196SOL     OW 3426   5.227  13.859   7.039
67196SOL    HW1 3427   5.242  13.953   7.038
67196SOL    HW2 3428   5.208  13.836   6.948
67197SOL     OW 3429  14.150  12.863   4.280
67197SOL    HW1 3430  14.214  12.919   4.236
67197SOL    HW2 3431  14.193  12.779   4.289
67198SOL     OW 3432   8.117   8.894   1.457
67198SOL    HW1 3433   8.043   8.856   1.504
67198SOL    HW2 3434   8.103   8.869   1.366
67199SOL     OW 3435   2.116   1.071   6.139
67199SOL    HW1 3436   2.072   1.135   6.081
67199SOL    HW2 3437   2.058   1.065   6.215
67200SOL     OW 3438  11.743   0.303   5.894
67200SOL    HW1 3439  11.686   0.233   5.864
67200SOL    HW2 3440  11.770   0.348   5.814
67201SOL     OW 3441   8.410   1.041  14.648
67201SOL    HW1 3442   8.346   0.992  14.596
67201SOL    HW2 3443   8.358   1.100  14.702
67202SOL     OW 3444   3.580   0.929   6.685
67202SOL    HW1 3445   3.628   0.910   6.605
67202SOL    HW2 3446   3.553   1.020   6.677
67203SOL     OW 3447  12.365   3.158   3.560
67203SOL    HW1 3448  12.294   3.128   3.616
67203SOL    HW2 3449  12.381   3.085   3.500
67204SOL     OW 3450  10.937   8.310  11.191
67204SOL    HW1 3451  10.993   8.236  11.215
67204SOL    HW2 3452  10.966   8.335  11.103
67205SOL     OW 3453   5.162   9.113  10.417
67205SOL    HW1 3454   5.222   9.046  10.385
67205SOL    HW2 3455   5.209   9.195  10.406
67206SOL     OW 3456   5.805   6.745   2.084
67206SOL    HW1 3457   5.784   6.833   2.053
67206SOL    HW2 3458   5.802   6.753   2.180
67207SOL     OW 3459  13.807   9.196   4.654
67207SOL    HW1 3460  13.833   9.287   4.665
67207SOL    HW2 3461  13.876   9.157   4.601
67208SOL     OW 3462   7.080   7.776  12.823
67208SOL    HW1 3463   7.124   7.698  12.787
67208SOL    HW2 3464   7.008   7.792  12.763
67209SOL     OW 3465  12.089  14.858   7.069
67209SOL    HW1 3466  12.128   0.005   7.154
67209SOL    HW2 3467  12.034   0.061   7.049
67210SOL     OW 3468   8.554   1.253  11.422
67210SOL    HW1 3469   8.475   1.232  11.473
67210SOL    HW2 3470   8.624   1.208  11.469
67211SOL     OW 3471   1.653   0.735  14.335
67211SOL    HW1 3472   1.570   0.698  14.364
67211SOL    HW2 3473   1.640   0.829  14.338
67212SOL     OW 3474   8.882   5.150   0.503
67212SOL    HW1 3475   8.943   5.084   0.534
67212SOL    HW2 3476   8.910   5.169   0.413
67213SOL     OW 3477   1.385   5.847   3.530
67213SOL    HW1 3478   1.374   5.782   3.461
67213SOL    HW2 3479   1.300   5.890   3.537
67214SOL     OW 3480  12.597  12.418  12.723
67214SOL    HW1 3481  12.508  12.451  12.711
67214SOL    HW2 3482  12.605  12.347  12.659
67215SOL     OW 3483  14.326   9.783  11.172
67215SOL    HW1 3484  14.370   9.863  11.146
67215SOL    HW2 3485  14.320   9.731  11.091
67216SOL     OW 3486  10.688   9.132  13.369
67216SOL    HW1 3487  10.783   9.146  13.370
67216SOL    HW2 3488  10.653   9.199  13.428
67217SOL     OW 3489   6.372   6.152   3.813
67217SOL    HW1 3490   6.441   6.089   3.792
67217SOL    HW2 3491   6.291   6.108   3.789
67218SOL     OW 3492   0.478  10.033   0.319
67218SOL    HW1 3493   0.396  10.041   0.367
67218SOL    HW2 3494   0.517   9.951   0.349
67219SOL     OW 3495   6.407   2.596   8.223
67219SOL    HW1 3496   6.479   2.547   8.185
67219SOL    HW2 3497   6.402   2.565   8.314
67220SOL     OW 3498   5.722   1.929  11.874
67220SOL    HW1 3499   5.628   1.943  11.879
67220SOL    HW2 3500   5.759   2.018  11.877
67221SOL     OW 3501  12.721   6.874   3.213
67221SOL    HW1 3502  12.732   6.969   3.205
67221SOL    HW2 3503  12.743   6.854   3.304
67222SOL     OW 3504   8.881  13.403   3.662
67222SOL    HW1 3505   8.872  13.340   3.591
67222SOL    HW2 3506   8.798  13.450   3.664
67223SOL     OW 3507  12.625  12.619  10.111
67223SOL    HW1 3508  12.699  12.648  10.165
67223SOL    HW2 3509  12.592  12.541  10.157
67224SOL     OW 3510   3.257   3.336   3.125
67224SOL    HW1 3511   3.193   3.272   3.095
67224SOL    HW2 3512   3.333   3.284   3.151
67225SOL     OW 3513   2.343  12.704   9.141
67225SOL    HW1 3514   2.410  12.771   9.131
67225SOL    HW2 3515   2.354  12.673   9.231
67226SOL     OW 3516  11.265  10.465   5.163
67226SOL    HW1 3517  11.277  10.445   5.070
67226SOL    HW2 3518  11.203  10.538   5.164
67227SOL     OW 3519   7.160   9.190   0.335
67227SOL    HW1 3520   7.097   9.118   0.337
67227SOL    HW2 3521   7.197   9.192   0.423
67228SOL     OW 3522  10.392   6.872   6.988
67228SOL    HW1 3523  10.297   6.871   6.977
67228SOL    HW2 3524  10.406   6.887   7.082
67229SOL     OW 3525   0.148   8.694  12.209
67229SOL    HW1 3526   0.188   8.659  12.130
67229SOL    HW2 3527   0.071   8.638  12.224
67230SOL     OW 3528   6.423   0.302   6.138
67230SOL    HW1 3529   6.485   0.368   6.167
67230SOL    HW2 3530   6.440   0.291   6.044
67231SOL     OW 3531   9.557   5.234   8.801
67231SOL    HW1 3532   9.647   5.233   8.770
67231SOL    HW2 3533   9.506   5.264   8.725
67232SOL     OW 3534   0.501   5.291  13.682
67232SOL    HW1 3535   0.559   5.321  13.752
67232SOL    HW2 3536   0.530   5.202  13.664
67233SOL     OW 3537   4.236  10.045  10.114
67233SOL    HW1 3538   4.232  10.123  10.170
67233SOL    HW2 3539   4.146  10.011  10.115
67234SOL     OW 3540   6.961  14.033  13.364
67234SOL    HW1 3541   6.995  14.090  13.433
67234SOL    HW2 3542   6.940  14.093  13.292
67235SOL     OW 3543   3.839  10.047   1.471
67235SOL    HW1 3544   3.779  10.121   1.462
67235SOL    HW2 3545   3.880  10.039   1.385
67236SOL     OW 3546  13.542   3.463   6.990
67236SOL    HW1 3547  13.456   3.422   7.004
67236SOL    HW2 3548  13.548   3.475   6.896
67237SOL     OW 3549  12.072   7.909   8.483
67237SOL    HW1 3550  12.130   7.840   8.513
67237SOL    HW2 3551  12.090   7.983   8.541
67238SOL     OW 3552   6.020  13.385  13.588
67238SOL    HW1 3553   5.978  13.462  13.625
67238SOL    HW2 3554   6.034  13.406  13.496
67239SOL     OW 3555   4.961   3.423  13.205
67239SOL    HW1 3556   4.931   3.483  13.137
67239SOL    HW2 3557   5.028   3.471  13.252
67240SOL     OW 3558   1.203  13.800   1.603
67240SOL    HW1 3559   1.191  13.865   1.534
67240SOL    HW2 3560   1.218  13.718   1.555
67241SOL     OW 3561   8.634   0.660   1.432
67241SOL    HW1 3562   8.628   0.694   1.343
67241SOL    HW2 3563   8.677   0.730   1.481
67242SOL     OW 3564  11.264   2.289   3.823
67242SOL    HW1 3565  11.326   2.350   3.862
67242SOL    HW2 3566  11.282   2.206   3.867
67243SOL     OW 3567   5.700   2.314   1.083
67243SOL    HW1 3568   5.786   2.345   1.054
67243SOL    HW2 3569   5.707   2.218   1.082
67244SOL     OW 3570   5.268  11.305   2.091
67244SOL    HW1 3571   5.355  11.340   2.072
67244SOL    HW2 3572   5.273  11.278   2.183
67245SOL     OW 3573   9.332   5.100   7.037
67245SOL    HW1 3574   9.350   5.151   7.116
67245SOL    HW2 3575   9.331   5.165   6.967
67246SOL     OW 3576   0.438   3.486   4.179
67246SOL    HW1 3577   0.499   3.557   4.161
67246SOL    HW2 3578   0.381   3.520   4.248
67247SOL     OW 3579   6.241   2.927   6.903
67247SOL    HW1 3580   6.209   2.881   6.826
67247SOL    HW2 3581   6.311   2.983   6.871
67248SOL     OW 3582  14.175   4.383  12.169
67248SOL    HW1 3583  14.234   4.453  12.140
67248SOL    HW2 3584  14.087   4.419  12.155
67249SOL     OW 3585  13.012  11.129   8.199
67249SOL    HW1 3586  12.948  11.060   8.217
67249SOL    HW2 3587  12.978  11.206   8.244
67250SOL     OW 3588  12.534   8.310   1.910
67250SOL    HW1 3589  12.559   8.395   1.946
67250SOL    HW2 3590  12.604   8.250   1.937
67251SOL     OW 3591   5.368  12.056  12.850
67251SOL    HW1 3592   5.285  12.009  12.840
67251SOL    HW2 3593   5.351  12.143  12.815
67252SOL     OW 3594   2.988   3.324   3.668
67252SOL    HW1 3595   3.083   3.340   3.670
67252SOL    HW2 3596   2.971   3.291   3.580
67253SOL     OW 3597  14.140  14.837   3.632
67253SOL    HW1 3598  14.196  14.822   3.556
67253SOL    HW2 3599  14.192   0.021   3.689
67254SOL     OW 3600   3.443   9.395   5.366
67254SOL    HW1 3601   3.470   9.328   5.429
67254SOL    HW2 3602   3.483   9.476   5.399
67255SOL     OW 3603   2.690  10.237   4.174
67255SOL    HW1 3604   2.717  10.258   4.263
67255SOL    HW2 3605   2.688  10.141   4.172
67256SOL     OW 3606  12.647  10.231  13.872
67256SOL    HW1 3607  12.599  10.278  13.804
67256SOL    HW2 3608  12.737  10.227  13.839
67257SOL     OW 3609   1.255  13.078   2.077
67257SOL    HW1 3610   1.330  13.134   2.094
67257SOL    HW2 3611   1.240  13.033   2.160
67258SOL     OW 3612  12.111  13.501  10.390
67258SOL    HW1 3613  12.157  13.499  10.306
67258SOL    HW2 3614  12.023  13.531  10.369
67259SOL     OW 3615   3.694   8.763   0.342
67259SOL    HW1 3616   3.703   8.854   0.315
67259SOL    HW2 3617   3.768   8.749   0.402
67260SOL     OW 3618   6.506   6.110   2.857
67260SOL    HW1 3619   6.576   6.089   2.795
67260SOL    HW2 3620   6.501   6.035   2.916
67261SOL     OW 3621   1.993   5.602  10.321
67261SOL    HW1 3622   2.002   5.511  10.293
67261SOL    HW2 3623   2.009   5.599  10.415
67262SOL     OW 3624  14.750   0.978  10.518
67262SOL    HW1 3625  14.842   0.967  10.493
67262SOL    HW2 3626  14.706   0.902  10.478
67263SOL     OW 3627   5.358   7.663   2.087
67263SOL    HW1 3628   5.437   7.627   2.128
67263SOL    HW2 3629   5.381   7.671   1.995
67264SOL     OW 3630   3.737   0.218  11.674
67264SOL    HW1 3631   3.817   0.266  11.651
67264SOL    HW2 3632   3.685   0.280  11.725
67265SOL     OW 3633   9.723   2.560  13.367
67265SOL    HW1 3634   9.687   2.649  13.363
67265SOL    HW2 3635   9.724   2.531  13.276
67266SOL     OW 3636  11.854   8.873  13.028
67266SOL    HW1 3637  11.802   8.950  13.050
67266SOL    HW2 3638  11.829   8.852  12.938
67267SOL     OW 3639   8.491  12.165  10.026
67267SOL    HW1 3640   8.486  12.232   9.957
67267SOL    HW2 3641   8.534  12.209  10.099
67268SOL     OW 3642  10.362  13.792   6.282
67268SOL    HW1 3643  10.325  13.847   6.212
67268SOL    HW2 3644  10.434  13.844   6.318
67269SOL     OW 3645  11.203   7.673   5.633
67269SOL    HW1 3646  11.183   7.614   5.705
67269SOL    HW2 3647  11.133   7.739   5.636
67270SOL     OW 3648   5.681   8.064   9.970
67270SOL    HW1 3649   5.703   8.155   9.956
67270SOL    HW2 3650   5.615   8.066  10.040
67271SOL     OW 3651   3.609  12.647  10.225
67271SOL    HW1 3652   3.701  12.641  10.201
67271SOL    HW2 3653   3.598  12.737  10.256
67272SOL     OW 3654   3.036   9.339   2.413
67272SOL    HW1 3655   2.946   9.323   2.386
67272SOL    HW2 3656   3.038   9.313   2.505
67273SOL     OW 3657   8.060  10.793  14.396
67273SOL    HW1 3658   8.044  10.824  14.485
67273SOL    HW2 3659   7.984  10.738  14.376
67274SOL     OW 3660  10.995   4.179   5.408
67274SOL    HW1 3661  10.953   4.135   5.482
67274SOL    HW2 3662  10.940   4.255   5.391
67275SOL     OW 3663  12.933   6.353   8.460
67275SOL    HW1 3664  12.949   6.444   8.486
67275SOL    HW2 3665  12.842   6.336   8.486
67276SOL     OW 3666  12.350   0.119   1.442
67276SOL    HW1 3667  12.285   0.082   1.382
67276SOL    HW2 3668  12.346   0.062   1.519
67277SOL     OW 3669  14.356  11.577   8.089
67277SOL    HW1 3670  14.437  11.534   8.061
67277SOL    HW2 3671  14.385  11.659   8.128
67278SOL     OW 3672   4.583   5.174   7.804
67278SOL    HW1 3673   4.574   5.189   7.898
67278SOL    HW2 3674   4.511   5.115   7.782
67279SOL     OW 3675   8.335   1.335   8.942
67279SOL    HW1 3676   8.245   1.312   8.918
67279SOL    HW2 3677   8.349   1.421   8.902
67280SOL     OW 3678   9.295  13.397   9.767
67280SOL    HW1 3679   9.222  13.402   9.829
67280SOL    HW2 3680   9.364  13.450   9.807
67281SOL     OW 3681   1.217  12.912   0.539
67281SOL    HW1 3682   1.145  12.852   0.519
67281SOL    HW2 3683   1.185  12.998   0.513
67282SOL     OW 3684   0.678   3.578   1.751
67282SOL    HW1 3685   0.648   3.513   1.814
67282SOL    HW2 3686   0.602   3.634   1.736
67283SOL     OW 3687  13.605   7.243   5.604
67283SOL    HW1 3688  13.672   7.219   5.668
67283SOL    HW2 3689  13.628   7.195   5.525
67284SOL     OW 3690   4.471   4.385  11.230
67284SOL    HW1 3691   4.414   4.360  11.303
67284SOL    HW2 3692   4.532   4.447  11.268
67285SOL     OW 3693   7.188   7.567   9.969
67285SOL    HW1 3694   7.109   7.600   9.926
67285SOL    HW2 3695   7.247   7.546   9.896
67286SOL     OW 3696   0.999   6.491   1.184
67286SOL    HW1 3697   0.906   6.481   1.202
67286SOL    HW2 3698   1.035   6.536   1.261
67287SOL     OW 3699   3.235   0.094  11.183
67287SOL    HW1 3700   3.236   0.166  11.247
67287SOL    HW2 3701   3.185   0.128  11.109
67288SOL     OW 3702  10.723  10.415  14.579
67288SOL    HW1 3703  10.763  10.463  14.651
67288SOL    HW2 3704  10.764  10.328  14.582
67289SOL     OW 3705  10.864   4.740  13.687
67289SOL    HW1 3706  10.823   4.676  13.745
67289SOL    HW2 3707  10.913   4.688  13.624
67290SOL     OW 3708   0.863   8.347   7.176
67290SOL    HW1 3709   0.933   8.398   7.136
67290SOL    HW2 3710   0.783   8.392   7.151
67291SOL     OW 3711   7.611   5.322  10.288
67291SOL    HW1 3712   7.704   5.327  10.307
67291SOL    HW2 3713   7.604   5.256  10.219
67292SOL     OW 3714   2.101   9.072  13.372
67292SOL    HW1 3715   2.143   9.038  13.294
67292SOL    HW2 3716   2.075   9.161  13.349
67293SOL     OW 3717   9.773   9.931  13.338
67293SOL    HW1 3718   9.752   9.839  13.351
67293SOL    HW2 3719   9.806   9.960  13.423
67294SOL     OW 3720   5.515   2.072  14.719
67294SOL    HW1 3721   5.525   2.161  14.683
67294SOL    HW2 3722   5.583   2.021  14.675
67295SOL     OW 3723   5.753   8.170   4.529
67295SOL    HW1 3724   5.833   8.171   4.582
67295SOL    HW2 3725   5.771   8.107   4.459
67296SOL     OW 3726   7.531  13.412   9.378
67296SOL    HW1 3727   7.556  13.455   9.460
67296SOL    HW2 3728   7.580  13.330   9.378
67297SOL     OW 3729  14.487   9.848   6.934
67297SOL    HW1 3730  14.458   9.878   6.848
67297SOL    HW2 3731  14.560   9.788   6.914
67298SOL     OW 3732   4.408  14.026  12.734
67298SOL    HW1 3733   4.338  14.035  12.798
67298SOL    HW2 3734   4.364  13.995  12.655
67299SOL     OW 3735   3.511   5.996   1.055
67299SOL    HW1 3736   3.578   6.062   1.036
67299SOL    HW2 3737   3.516   5.935   0.982
67300SOL     OW 3738  14.121  11.480   0.514
67300SOL    HW1 3739  14.052  11.426   0.477
67300SOL    HW2 3740  14.150  11.536   0.442
67301SOL     OW 3741   2.390   1.441   3.157
67301SOL    HW1 3742   2.301   1.419   3.130
67301SOL    HW2 3743   2.442   1.431   3.078
67302SOL     OW 3744   1.244   7.875   4.374
67302SOL    HW1 3745   1.330   7.916   4.377
67302SOL    HW2 3746   1.190   7.929   4.432
67303SOL     OW 3747   7.034   9.370   8.354
67303SOL    HW1 3748   7.028   9.466   8.360
67303SOL    HW2 3749   7.103   9.347   8.416
67304SOL     OW 3750   6.182  11.945  12.371
67304SOL    HW1 3751   6.146  11.970  12.456
67304SOL    HW2 3752   6.195  12.028  12.325
67305SOL     OW 3753   1.490   9.676   1.141
67305SOL    HW1 3754   1.396   9.691   1.132
67305SOL    HW2 3755   1.529   9.763   1.138
67306SOL     OW 3756   1.207   8.621   8.726
67306SOL    HW1 3757   1.150   8.548   8.702
67306SOL    HW2 3758   1.294   8.594   8.696
67307SOL     OW 3759  11.414   0.384   0.022
67307SOL    HW1 3760  11.461   0.312   0.066
67307SOL    HW2 3761  11.426   0.459   0.080
67308SOL     OW 3762   9.611   0.049   8.465
67308SOL    HW1 3763   9.676   0.089   8.407
67308SOL    HW2 3764   9.663  14.870   8.527
67309SOL     OW 3765   5.802  11.854   9.866
67309SOL    HW1 3766   5.823  11.763   9.887
67309SOL    HW2 3767   5.738  11.849   9.795
67310SOL     OW 3768   4.606   0.922  12.867
67310SOL    HW1 3769   4.688   0.886  12.900
67310SOL    HW2 3770   4.541   0.897  12.932
67311SOL     OW 3771   1.766  13.854   2.272
67311SOL    HW1 3772   1.693  13.882   2.217
67311SOL    HW2 3773   1.739  13.875   2.361
67312SOL     OW 3774   9.954   3.895   0.243
67312SOL    HW1 3775  10.027   3.945   0.206
67312SOL    HW2 3776   9.967   3.806   0.210
67313SOL     OW 3777  12.614  11.709  13.520
67313SOL    HW1 3778  12.627  11.773  13.450
67313SOL    HW2 3779  12.625  11.760  13.600
67314SOL     OW 3780  12.287   2.047  12.076
67314SOL    HW1 3781  12.348   2.119  12.060
67314SOL    HW2 3782  12.309   2.017  12.164
67315SOL     OW 3783   1.373   1.005   2.554
67315SOL    HW1 3784   1.280   1.014   2.533
67315SOL    HW2 3785   1.417   1.021   2.471
67316SOL     OW 3786   8.426   2.174  10.459
67316SOL    HW1 3787   8.505   2.185  10.406
67316SOL    HW2 3788   8.368   2.121  10.404
67317SOL     OW 3789   1.095   6.409   0.131
67317SOL    HW1 3790   1.152   6.374   0.200
67317SOL    HW2 3791   1.129   6.497   0.114
67318SOL     OW 3792   8.117  12.053   9.887
67318SOL    HW1 3793   8.138  12.032   9.796
67318SOL    HW2 3794   8.045  11.994   9.909
67319SOL     OW 3795  11.682   2.363   2.015
67319SOL    HW1 3796  11.692   2.448   2.056
67319SOL    HW2 3797  11.590   2.339   2.030
67320SOL     OW 3798  14.289  12.019   9.962
67320SOL    HW1 3799  14.344  12.089   9.999
67320SOL    HW2 3800  14.350  11.961   9.918
67321SOL     OW 3801   8.620   1.116  12.158
67321SOL    HW1 3802   8.663   1.031  12.168
67321SOL    HW2 3803   8.660   1.172  12.224
67322SOL     OW 3804   1.688  12.197   6.924
67322SOL    HW1 3805   1.624  12.243   6.870
67322SOL    HW2 3806   1.689  12.245   7.007
67323SOL     OW 3807  13.005   6.481  10.415
67323SOL    HW1 3808  13.001   6.568  10.375
67323SOL    HW2 3809  13.066   6.432  10.359
67324SOL     OW 3810  11.562  13.118   9.738
67324SOL    HW1 3811  11.583  13.199   9.691
67324SOL    HW2 3812  11.565  13.143   9.831
67325SOL     OW 3813   1.116   2.112  12.236
67325SOL    HW1 3814   1.208   2.137  12.240
67325SOL    HW2 3815   1.068   2.194  12.225
67326SOL     OW 3816  11.061   7.736   1.080
67326SOL    HW1 3817  11.120   7.664   1.057
67326SOL    HW2 3818  11.053   7.788   1.000
67327SOL     OW 3819   1.768   4.941   9.108
67327SOL    HW1 3820   1.790   4.858   9.066
67327SOL    HW2 3821   1.696   4.977   9.055
67328SOL     OW 3822  13.324   0.921  11.967
67328SOL    HW1 3823  13.232   0.938  11.987
67328SOL    HW2 3824  13.372   0.994  12.008
67329SOL     OW 3825  12.707   9.095   8.155
67329SOL    HW1 3826  12.794   9.084   8.193
67329SOL    HW2 3827  12.709   9.179   8.111
67330SOL     OW 3828   0.951   9.740   4.214
67330SOL    HW1 3829   0.921   9.763   4.126
67330SOL    HW2 3830   0.875   9.702   4.257
67331SOL     OW 3831   3.143   9.858   6.712
67331SOL    HW1 3832   3.101   9.901   6.637
67331SOL    HW2 3833   3.191   9.928   6.756
67332SOL     OW 3834   8.079   2.247  14.729
67332SOL    HW1 3835   8.095   2.340  14.743
67332SOL    HW2 3836   8.143   2.203  14.785
67333SOL     OW 3837  10.223  12.398   9.986
67333SOL    HW1 3838  10.235  12.484  10.027
67333SOL    HW2 3839  10.141  12.365  10.023
67334SOL     OW 3840   9.789   4.402  12.729
67334SOL    HW1 3841   9.777   4.478  12.672
67334SOL    HW2 3842   9.700   4.372  12.748
67335SOL     OW 3843   2.638   8.055   1.115
67335SOL    HW1 3844   2.727   8.091   1.108
67335SOL    HW2 3845   2.592   8.089   1.038
67336SOL     OW 3846   5.195  11.035   8.811
67336SOL    HW1 3847   5.268  11.054   8.870
67336SOL    HW2 3848   5.155  11.120   8.795
67337SOL     OW 3849   9.355   9.894   5.601
67337SOL    HW1 3850   9.334   9.877   5.693
67337SOL    HW2 3851   9.272   9.887   5.555
67338SOL     OW 3852   4.365  11.130   0.198
67338SOL    HW1 3853   4.395  11.115   0.288
67338SOL    HW2 3854   4.279  11.088   0.194
67339SOL     OW 3855   8.102   9.579   7.181
67339SOL    HW1 3856   8.026   9.636   7.193
67339SOL    HW2 3857   8.158   9.598   7.256
67340SOL     OW 3858   1.273   1.533   8.610
67340SOL    HW1 3859   1.184   1.557   8.585
67340SOL    HW2 3860   1.323   1.543   8.529
67341SOL     OW 3861   4.276  13.500   0.085
67341SOL    HW1 3862   4.369  13.513   0.067
67341SOL    HW2 3863   4.240  13.464   0.004
67342SOL     OW 3864  10.394  12.442   2.239
67342SOL    HW1 3865  10.378  12.428   2.332
67342SOL    HW2 3866  10.445  12.523   2.236
67343SOL     OW 3867  12.791   7.355   9.619
67343SOL    HW1 3868  12.808   7.418   9.689
67343SOL    HW2 3869  12.745   7.405   9.551
67344SOL     OW 3870   4.704   5.307   5.251
67344SOL    HW1 3871   4.752   5.225   5.240
67344SOL    HW2 3872   4.661   5.322   5.167
67345SOL     OW 3873  13.211   5.568  12.873
67345SOL    HW1 3874  13.116   5.560  12.889
67345SOL    HW2 3875  13.246   5.482  12.893
67346SOL     OW 3876   6.477  14.755  12.503
67346SOL    HW1 3877   6.513  14.667  12.518
67346SOL    HW2 3878   6.416  14.768  12.575
67347SOL     OW 3879   6.082   2.452   5.300
67347SOL    HW1 3880   6.074   2.464   5.395
67347SOL    HW2 3881   6.002   2.407   5.275
67348SOL     OW 3882  12.511   3.559  13.248
67348SOL    HW1 3883  12.537   3.548  13.340
67348SOL    HW2 3884  12.592   3.586  13.204
67349SOL     OW 3885   9.689   2.699   3.837
67349SOL    HW1 3886   9.682   2.604   3.841
67349SOL    HW2 3887   9.634   2.731   3.909
67350SOL     OW 3888  13.021   4.367  14.145
67350SOL    HW1 3889  13.042   4.301  14.079
67350SOL    HW2 3890  13.024   4.320  14.228
67351SOL     OW 3891   8.465   5.225  11.590
67351SOL    HW1 3892   8.416   5.280  11.530
67351SOL    HW2 3893   8.446   5.135  11.561
67352SOL     OW 3894  11.249   0.334  13.707
67352SOL    HW1 3895  11.257   0.343  13.802
67352SOL    HW2 3896  11.158   0.309  13.693
67353SOL     OW 3897   5.670  11.123  10.918
67353SOL    HW1 3898   5.691  11.085  10.833
67353SOL    HW2 3899   5.609  11.061  10.957
67354SOL     OW 3900   4.399   7.471   7.490
67354SOL    HW1 3901   4.321   7.432   7.452
67354SOL    HW2 3902   4.380   7.474   7.584
67355SOL     OW 3903   2.531   9.565   8.314
67355SOL    HW1 3904   2.591   9.593   8.245
67355SOL    HW2 3905   2.549   9.471   8.324
67356SOL     OW 3906   8.801   6.588  11.748
67356SOL    HW1 3907   8.847   6.560  11.669
67356SOL    HW2 3908   8.731   6.524  11.760
67357SOL     OW 3909   7.657  13.081  13.005
67357SOL    HW1 3910   7.742  13.051  12.975
67357SOL    HW2 3911   7.667  13.090  13.100
67358SOL     OW 3912   2.772   4.887  14.449
67358SOL    HW1 3913   2.703   4.898  14.515
67358SOL    HW2 3914   2.726   4.858  14.371
67359SOL     OW 3915   5.498  14.690   7.565
67359SOL    HW1 3916   5.592  14.689   7.545
67359SOL    HW2 3917   5.475  14.782   7.567
67360SOL     OW 3918  13.618  13.082   9.166
67360SOL    HW1 3919  13.651  13.171   9.158
67360SOL    HW2 3920  13.560  13.085   9.242
67361SOL     OW 3921   2.095   2.600  13.252
67361SOL    HW1 3922   2.001   2.616  13.258
67361SOL    HW2 3923   2.111   2.581  13.159
67362SOL     OW 3924  13.091   3.830   1.530
67362SOL    HW1 3925  13.021   3.875   1.578
67362SOL    HW2 3926  13.055   3.744   1.511
67363SOL     OW 3927  13.476  11.250  13.400
67363SOL    HW1 3928  13.385  11.258  13.372
67363SOL    HW2 3929  13.519  11.203  13.329
67364SOL     OW 3930   3.312   7.751   4.266
67364SOL    HW1 3931   3.269   7.686   4.321
67364SOL    HW2 3932   3.404   7.725   4.264
67365SOL     OW 3933   6.555   0.644  13.952
67365SOL    HW1 3934   6.592   0.733  13.946
67365SOL    HW2 3935   6.463   0.658  13.972
67366SOL     OW 3936   3.989  13.682  11.157
67366SOL    HW1 3937   3.949  13.671  11.243
67366SOL    HW2 3938   4.008  13.593  11.127
67367SOL     OW 3939   8.855  12.808  14.290
67367SOL    HW1 3940   8.926  12.843  14.344
67367SOL    HW2 3941   8.900  12.770  14.214
67368SOL     OW 3942   1.671   4.476   0.242
67368SOL    HW1 3943   1.664   4.506   0.152
67368SOL    HW2 3944   1.717   4.393   0.237
67369SOL     OW 3945   8.205  10.206  12.697
67369SOL    HW1 3946   8.226  10.170  12.783
67369SOL    HW2 3947   8.271  10.273  12.682
67370SOL     OW 3948  13.852   8.997   6.630
67370SOL    HW1 3949  13.838   8.954   6.715
67370SOL    HW2 3950  13.943   8.976   6.608
67371SOL     OW 3951  14.717  13.056   4.621
67371SOL    HW1 3952  14.676  13.074   4.706
67371SOL    HW2 3953  14.712  12.961   4.612
67372SOL     OW 3954   5.875   9.672  12.654
67372SOL    HW1 3955   5.868   9.590  12.606
67372SOL    HW2 3956   5.946   9.658  12.716
67373SOL     OW 3957  10.827   5.783   5.780
67373SOL    HW1 3958  10.799   5.852   5.840
67373SOL    HW2 3959  10.887   5.827   5.720
67374SOL     OW 3960   3.204   6.553   4.101
67374SOL    HW1 3961   3.116   6.535   4.137
67374SOL    HW2 3962   3.251   6.470   4.112
67375SOL     OW 3963   6.351   5.902  10.347
67375SOL    HW1 3964   6.299   5.981  10.364
67375SOL    HW2 3965   6.433   5.935  10.309
67376SOL     OW 3966   7.316   8.795  10.110
67376SOL    HW1 3967   7.350   8.713  10.074
67376SOL    HW2 3968   7.394   8.838  10.146
67377SOL     OW 3969   0.230   5.470   6.191
67377SOL    HW1 3970   0.192   5.493   6.276
67377SOL    HW2 3971   0.221   5.375   6.185
67378SOL     OW 3972   2.766  10.987  11.869
67378SOL    HW1 3973   2.773  11.030  11.783
67378SOL    HW2 3974   2.836  11.026  11.921
67379SOL     OW 3975   5.289   9.865  10.935
67379SOL    HW1 3976   5.242   9.939  10.975
67379SOL    HW2 3977   5.381   9.891  10.939
67380SOL     OW 3978   2.460   8.792   7.502
67380SOL    HW1 3979   2.540   8.841   7.482
67380SOL    HW2 3980   2.427   8.831   7.582
67381SOL     OW 3981  10.014  12.005   9.930
67381SOL    HW1 3982  10.097  12.052   9.928
67381SOL    HW2 3983  10.021  11.946  10.006
67382SOL     OW 3984   1.207  12.508   2.332
67382SOL    HW1 3985   1.188  12.468   2.247
67382SOL    HW2 3986   1.122  12.540   2.363
67383SOL     OW 3987   4.895   0.849  11.910
67383SOL    HW1 3988   4.989   0.869  11.913
67383SOL    HW2 3989   4.882   0.807  11.825
67384SOL     OW 3990  10.426   1.225   5.566
67384SOL    HW1 3991  10.439   1.186   5.652
67384SOL    HW2 3992  10.381   1.157   5.515
67385SOL     OW 3993  12.775   8.397   8.830
67385SOL    HW1 3994  12.844   8.460   8.850
67385SOL    HW2 3995  12.693   8.446   8.839
67386SOL     OW 3996   3.156  10.236   6.200
67386SOL    HW1 3997   3.165  10.223   6.106
67386SOL    HW2 3998   3.233  10.193   6.238
67387SOL     OW 3999   9.325  14.499   6.088
67387SOL    HW1 4000   9.418  14.517   6.075
67387SOL    HW2 4001   9.283  14.530   6.008
67388SOL     OW 4002  10.497   4.808  13.616
67388SOL    HW1 4003  10.536   4.854  13.691
67388SOL    HW2 4004  10.532   4.719  13.622
67389SOL     OW 4005   9.078  11.812   5.346
67389SOL    HW1 4006   9.142  11.752   5.386
67389SOL    HW2 4007   9.095  11.896   5.388
67390SOL     OW 4008   6.368   1.225   7.695
67390SOL    HW1 4009   6.353   1.271   7.777
67390SOL    HW2 4010   6.457   1.192   7.702
67391SOL     OW 4011  12.062  11.972  11.913
67391SOL    HW1 4012  11.997  11.976  11.983
67391SOL    HW2 4013  12.036  11.896  11.861
67392SOL     OW 4014   0.757   1.193   9.648
67392SOL    HW1 4015   0.786   1.103   9.666
67392SOL    HW2 4016   0.763   1.238   9.732
67393SOL     OW 4017  11.105   2.942   9.341
67393SOL    HW1 4018  11.028   2.890   9.363
67393SOL    HW2 4019  11.105   3.012   9.406
67394SOL     OW 4020   8.570  11.927  14.595
67394SOL    HW1 4021   8.528  11.922  14.509
67394SOL    HW2 4022   8.521  11.994  14.642
67395SOL     OW 4023   1.561   3.183  12.642
67395SOL    HW1 4024   1.466   3.188  12.656
67395SOL    HW2 4025   1.584   3.269  12.606
67396SOL     OW 4026   5.394   5.743   9.144
67396SOL    HW1 4027   5.304   5.773   9.127
67396SOL    HW2 4028   5.440   5.757   9.062
67397SOL     OW 4029   5.858  11.986   2.222
67397SOL    HW1 4030   5.931  11.962   2.280
67397SOL    HW2 4031   5.882  12.072   2.188
67398SOL     OW 4032  11.656   9.100  13.090
67398SOL    HW1 4033  11.611   9.101  13.005
67398SOL    HW2 4034  11.650   9.190  13.122
67399SOL     OW 4035   3.931  12.449  10.545
67399SOL    HW1 4036   4.023  12.439  10.569
67399SOL    HW2 4037   3.919  12.391  10.470
67400SOL     OW 4038  14.697   0.645   5.118
67400SOL    HW1 4039  14.733   0.725   5.077
67400SOL    HW2 4040  14.686   0.668   5.210
67401SOL     OW 4041   5.595   8.984  11.228
67401SOL    HW1 4042   5.605   8.897  11.265
67401SOL    HW2 4043   5.531   8.974  11.158
67402SOL     OW 4044  12.653   1.901  14.337
67402SOL    HW1 4045  12.695   1.847  14.270
67402SOL    HW2 4046  12.621   1.978  14.290
67403SOL     OW 4047   4.590  12.701   6.012
67403SOL    HW1 4048   4.673  12.701   5.965
67403SOL    HW2 4049   4.607  12.647   6.090
67404SOL     OW 4050  13.395   7.733   1.270
67404SOL    HW1 4051  13.430   7.754   1.183
67404SOL    HW2 4052  13.302   7.718   1.255
67405SOL     OW 4053   0.364   5.995   5.148
67405SOL    HW1 4054   0.280   5.985   5.193
67405SOL    HW2 4055   0.347   5.969   5.058
67406SOL     OW 4056   1.872   4.029   8.910
67406SOL    HW1 4057   1.857   4.030   8.816
67406SOL    HW2 4058   1.805   3.971   8.945
67407SOL     OW 4059  13.032   7.855  11.976
67407SOL    HW1 4060  13.064   7.842  11.887
67407SOL    HW2 4061  13.000   7.945  11.977
67408SOL     OW 4062   9.568   5.103  10.239
67408SOL    HW1 4063   9.608   5.073  10.158
67408SOL    HW2 4064   9.641   5.138  10.290
67409SOL     OW 4065   4.805   3.897  12.428
67409SOL    HW1 4066   4.777   3.806  12.430
67409SOL    HW2 4067   4.794   3.923  12.336
67410SOL     OW 4068   5.683   7.780   2.423
67410SOL    HW1 4069   5.638   7.814   2.501
67410SOL    HW2 4070   5.682   7.852   2.361
67411SOL     OW 4071   9.501   3.360   6.108
67411SOL    HW1 4072   9.435   3.368   6.039
67411SOL    HW2 4073   9.581   3.397   6.069
67412SOL     OW 4074   1.145   0.710   6.080
67412SOL    HW1 4075   1.191   0.675   6.157
67412SOL    HW2 4076   1.055   0.677   6.089
67413SOL     OW 4077   4.641   5.623   7.773
67413SOL    HW1 4078   4.577   5.608   7.704
67413SOL    HW2 4079   4.722   5.586   7.739
67414SOL     OW 4080   9.273   6.399  11.859
67414SOL    HW1 4081   9.204   6.384  11.795
67414SOL    HW2 4082   9.228   6.435  11.935
67415SOL     OW 4083   2.040   5.607  10.852
67415SOL    HW1 4084   1.958   5.602  10.899
67415SOL    HW2 4085   2.059   5.701  10.844
67416SOL     OW 4086   3.242  12.519   3.963
67416SOL    HW1 4087   3.163  12.481   4.002
67416SOL    HW2 4088   3.281  12.570   4.033
67417SOL     OW 4089   4.943   4.300  11.787
67417SOL    HW1 4090   4.905   4.223  11.828
67417SOL    HW2 4091   4.944   4.366  11.856
67418SOL     OW 4092   5.393  12.871   7.311
67418SOL    HW1 4093   5.330  12.905   7.374
67418SOL    HW2 4094   5.452  12.817   7.363
67419SOL     OW 4095   7.140  14.159   8.970
67419SOL    HW1 4096   7.048  14.133   8.960
67419SOL    HW2 4097   7.189  14.077   8.962
67420SOL     OW 4098   6.281   5.883  13.385
67420SOL    HW1 4099   6.207   5.933  13.352
67420SOL    HW2 4100   6.297   5.918  13.473
67421SOL     OW 4101   3.689   9.537   8.633
67421SOL    HW1 4102   3.761   9.591   8.667
67421SOL    HW2 4103   3.635   9.518   8.709
67422SOL     OW 4104   8.096   0.542   5.807
67422SOL    HW1 4105   8.014   0.494   5.804
67422SOL    HW2 4106   8.161   0.479   5.838
67423SOL     OW 4107   3.501   3.681   2.911
67423SOL    HW1 4108   3.431   3.737   2.877
67423SOL    HW2 4109   3.456   3.612   2.960
67424SOL     OW 4110   8.981   8.891   7.869
67424SOL    HW1 4111   8.971   8.975   7.914
67424SOL    HW2 4112   8.980   8.826   7.940
67425SOL     OW 4113  13.498  12.245   5.018
67425SOL    HW1 4114  13.568  12.249   4.954
67425SOL    HW2 4115  13.486  12.335   5.047
67426SOL     OW 4116   8.676   5.752   8.176
67426SOL    HW1 4117   8.625   5.833   8.173
67426SOL    HW2 4118   8.622   5.691   8.225
67427SOL     OW 4119   5.586   1.663   9.571
67427SOL    HW1 4120   5.665   1.630   9.613
67427SOL    HW2 4121   5.524   1.674   9.642
67428SOL     OW 4122  12.379   7.982  12.198
67428SOL    HW1 4123  12.380   8.061  12.143
67428SOL    HW2 4124  12.368   8.015  12.287
67429SOL     OW 4125  11.629   3.734   6.047
67429SOL    HW1 4126  11.690   3.753   5.975
67429SOL    HW2 4127  11.678   3.755   6.126
67430SOL     OW 4128   1.184   5.430  14.388
67430SOL    HW1 4129   1.243   5.406  14.459
67430SOL    HW2 4130   1.219   5.512  14.354
67431SOL     OW 4131  10.394  14.019   0.129
67431SOL    HW1 4132  10.345  13.980   0.056
67431SOL    HW2 4133  10.461  13.953   0.150
67432SOL     OW 4134   4.855   8.176   1.075
67432SOL    HW1 4135   4.922   8.166   1.142
67432SOL    HW2 4136   4.785   8.115   1.101
67433SOL     OW 4137   2.137  13.058   3.706
67433SOL    HW1 4138   2.208  13.121   3.718
67433SOL    HW2 4139   2.078  13.098   3.643
67434SOL     OW 4140   8.863  14.297   0.012
67434SOL    HW1 4141   8.863  14.322  14.793
67434SOL    HW2 4142   8.936  14.347   0.050
67435SOL     OW 4143  11.754   0.674   3.743
67435SOL    HW1 4144  11.738   0.616   3.668
67435SOL    HW2 4145  11.800   0.749   3.705
67436SOL     OW 4146   4.523  10.168   5.161
67436SOL    HW1 4147   4.615  10.186   5.140
67436SOL    HW2 4148   4.485  10.254   5.181
67437SOL     OW 4149   4.170   8.464   9.689
67437SOL    HW1 4150   4.257   8.483   9.723
67437SOL    HW2 4151   4.152   8.375   9.719
67438SOL     OW 4152   9.397   1.685   1.532
67438SOL    HW1 4153   9.471   1.642   1.575
67438SOL    HW2 4154   9.339   1.710   1.604
67439SOL     OW 4155   9.404  14.644   1.863
67439SOL    HW1 4156   9.327  14.597   1.894
67439SOL    HW2 4157   9.453  14.666   1.942
67440SOL     OW 4158  13.544  13.472   1.463
67440SOL    HW1 4159  13.530  13.382   1.434
67440SOL    HW2 4160  13.539  13.468   1.559
67441SOL     OW 4161   0.657   6.012  13.944
67441SOL    HW1 4162   0.669   5.927  13.986
67441SOL    HW2 4163   0.575   6.004  13.897
67442SOL     OW 4164   7.247  11.382   3.390
67442SOL    HW1 4165   7.259  11.476   3.373
67442SOL    HW2 4166   7.156  11.375   3.420
67443SOL     OW 4167   7.236  11.366   1.332
67443SOL    HW1 4168   7.192  11.326   1.407
67443SOL    HW2 4169   7.325  11.385   1.362
67444SOL     OW 4170   4.191   2.138   5.471
67444SOL    HW1 4171   4.125   2.082   5.513
67444SOL    HW2 4172   4.154   2.226   5.477
67445SOL     OW 4173   5.030  13.253  12.006
67445SOL    HW1 4174   4.942  13.239  11.972
67445SOL    HW2 4175   5.080  13.178  11.973
67446SOL     OW 4176   4.006  10.300   7.460
67446SOL    HW1 4177   4.089  10.262   7.487
67446SOL    HW2 4178   4.030  10.368   7.397
67447SOL     OW 4179   0.181   3.572   5.770
67447SOL    HW1 4180   0.189   3.555   5.676
67447SOL    HW2 4181   0.261   3.534   5.808
67448SOL     OW 4182   3.427   5.263   3.304
67448SOL    HW1 4183   3.403   5.217   3.384
67448SOL    HW2 4184   3.366   5.337   3.299
67449SOL     OW 4185   1.223   6.222  12.828
67449SOL    HW1 4186   1.200   6.313  12.807
67449SOL    HW2 4187   1.313   6.227  12.860
67450SOL     OW 4188   3.298  12.145   1.525
67450SOL    HW1 4189   3.236  12.077   1.553
67450SOL    HW2 4190   3.268  12.171   1.438
67451SOL     OW 4191  11.890  14.117   3.822
67451SOL    HW1 4192  11.982  14.137   3.809
67451SOL    HW2 4193  11.875  14.130   3.916
67452SOL     OW 4194   1.185   3.994   6.224
67452SOL    HW1 4195   1.223   3.934   6.160
67452SOL    HW2 4196   1.111   4.034   6.177
67453SOL     OW 4197  12.792  10.411   1.442
67453SOL    HW1 4198  12.750  10.431   1.526
67453SOL    HW2 4199  12.808  10.317   1.445
67454SOL     OW 4200   3.179   5.378   5.869
67454SOL    HW1 4201   3.228   5.424   5.937
67454SOL    HW2 4202   3.091   5.369   5.905
67455SOL     OW 4203   5.698  12.581   6.434
67455SOL    HW1 4204   5.707  12.652   6.498
67455SOL    HW2 4205   5.629  12.525   6.469
67456SOL     OW 4206  12.266  10.951  14.717
67456SOL    HW1 4207  12.309  11.018  14.664
67456SOL    HW2 4208  12.178  10.944  14.680
67457SOL     OW 4209  10.101   9.189  14.400
67457SOL    HW1 4210  10.197   9.190  14.400
67457SOL    HW2 4211  10.077   9.142  14.319
67458SOL     OW 4212  10.333  11.798   4.448
67458SOL    HW1 4213  10.377  11.743   4.513
67458SOL    HW2 4214  10.240  11.794   4.473
67459SOL     OW 4215   2.775  13.676   0.016
67459SOL    HW1 4216   2.703  13.627   0.056
67459SOL    HW2 4217   2.770  13.763   0.056
67460SOL     OW 4218   3.128  10.627   2.144
67460SOL    HW1 4219   3.111  10.544   2.098
67460SOL    HW2 4220   3.216  10.652   2.115
67461SOL     OW 4221   2.911   4.683   1.191
67461SOL    HW1 4222   2.958   4.657   1.270
67461SOL    HW2 4223   2.980   4.711   1.130
67462SOL     OW 4224   4.047   1.693  14.190
67462SOL    HW1 4225   4.037   1.631  14.117
67462SOL    HW2 4226   3.973   1.753  14.181
67463SOL     OW 4227   4.522   1.496   0.195
67463SOL    HW1 4228   4.508   1.411   0.238
67463SOL    HW2 4229   4.513   1.560   0.266
67464SOL     OW 4230  10.960  12.716   8.557
67464SOL    HW1 4231  10.981  12.629   8.523
67464SOL    HW2 4232  10.943  12.768   8.478
67465SOL     OW 4233   2.719   6.058   0.436
67465SOL    HW1 4234   2.702   5.967   0.462
67465SOL    HW2 4235   2.667   6.110   0.497
67466SOL     OW 4236   4.095   4.635   3.248
67466SOL    HW1 4237   4.034   4.580   3.296
67466SOL    HW2 4238   4.074   4.619   3.156
67467SOL     OW 4239  11.303   2.054  14.804
67467SOL    HW1 4240  11.214   2.024  14.821
67467SOL    HW2 4241  11.305   2.069  14.709
67468SOL     OW 4242  13.348   9.367   4.212
67468SOL    HW1 4243  13.383   9.306   4.276
67468SOL    HW2 4244  13.414   9.371   4.143
67469SOL     OW 4245  10.453   6.994  12.567
67469SOL    HW1 4246  10.543   6.967  12.546
67469SOL    HW2 4247  10.408   6.912  12.588
67470SOL     OW 4248   8.114   4.367  12.756
67470SOL    HW1 4249   8.102   4.324  12.841
67470SOL    HW2 4250   8.025   4.375  12.721
67471SOL     OW 4251  12.547  10.014   2.484
67471SOL    HW1 4252  12.509   9.926   2.493
67471SOL    HW2 4253  12.545  10.050   2.573
67472SOL     OW 4254   7.581   1.709   9.029
67472SOL    HW1 4255   7.532   1.746   8.956
67472SOL    HW2 4256   7.544   1.621   9.040
67473SOL     OW 4257   3.552   2.127  10.573
67473SOL    HW1 4258   3.605   2.108  10.651
67473SOL    HW2 4259   3.611   2.112  10.499
67474SOL     OW 4260   9.361   8.765   7.276
67474SOL    HW1 4261   9.333   8.845   7.318
67474SOL    HW2 4262   9.390   8.708   7.348
67475SOL     OW 4263   6.746   9.402   4.322
67475SOL    HW1 4264   6.801   9.403   4.244
67475SOL    HW2 4265   6.658   9.418   4.289
67476SOL     OW 4266  12.064  10.648  10.875
67476SOL    HW1 4267  12.086  10.556  10.885
67476SOL    HW2 4268  12.018  10.653  10.791
67477SOL     OW 4269  13.763  10.151   9.270
67477SOL    HW1 4270  13.715  10.182   9.194
67477SOL    HW2 4271  13.795  10.065   9.245
67478SOL     OW 4272   7.480   2.367   5.126
67478SOL    HW1 4273   7.465   2.339   5.216
67478SOL    HW2 4274   7.396   2.405   5.099
67479SOL     OW 4275   1.519   8.528  11.905
67479SOL    HW1 4276   1.577   8.579  11.848
67479SOL    HW2 4277   1.578   8.479  11.962
67480SOL     OW 4278   0.692  11.051   2.134
67480SOL    HW1 4279   0.726  11.013   2.215
67480SOL    HW2 4280   0.598  11.057   2.148
67481SOL     OW 4281   9.648   4.377   5.188
67481SOL    HW1 4282   9.717   4.314   5.171
67481SOL    HW2 4283   9.566   4.329   5.174
67482SOL     OW 4284   5.679  14.177   1.869
67482SOL    HW1 4285   5.629  14.143   1.942
67482SOL    HW2 4286   5.659  14.271   1.867
67483SOL     OW 4287  13.865  13.853  12.891
67483SOL    HW1 4288  13.957  13.832  12.906
67483SOL    HW2 4289  13.862  13.949  12.890
67484SOL     OW 4290   4.702   9.331   0.999
67484SOL    HW1 4291   4.618   9.375   1.016
67484SOL    HW2 4292   4.763   9.402   0.981
67485SOL     OW 4293   8.920   9.093  11.776
67485SOL    HW1 4294   9.014   9.080  11.766
67485SOL    HW2 4295   8.892   9.024  11.836
67486SOL     OW 4296   8.598   8.969   9.013
67486SOL    HW1 4297   8.519   8.928   9.047
67486SOL    HW2 4298   8.611   8.928   8.927
67487SOL     OW 4299   5.254  14.630   7.414
67487SOL    HW1 4300   5.271  14.540   7.385
67487SOL    HW2 4301   5.331  14.653   7.465
67488SOL     OW 4302   1.299   3.306  10.614
67488SOL    HW1 4303   1.220   3.351  10.643
67488SOL    HW2 4304   1.267   3.231  10.563
67489SOL     OW 4305   9.513  10.394   2.878
67489SOL    HW1 4306   9.460  10.455   2.930
67489SOL    HW2 4307   9.592  10.444   2.858
67490SOL     OW 4308   8.205   2.004   8.709
67490SOL    HW1 4309   8.155   2.069   8.660
67490SOL    HW2 4310   8.251   1.953   8.642
67491SOL     OW 4311   7.075   2.212   3.430
67491SOL    HW1 4312   6.996   2.172   3.466
67491SOL    HW2 4313   7.140   2.141   3.432
67492SOL     OW 4314   5.316  10.707   8.434
67492SOL    HW1 4315   5.346  10.732   8.521
67492SOL    HW2 4316   5.366  10.763   8.374
67493SOL     OW 4317   6.311  13.480   3.351
67493SOL    HW1 4318   6.353  13.468   3.266
67493SOL    HW2 4319   6.350  13.412   3.406
67494SOL     OW 4320  14.817   4.074   3.765
67494SOL    HW1 4321  14.730   4.039   3.782
67494SOL    HW2 4322   0.004   4.003   3.788
67495SOL     OW 4323   3.216   5.852   7.635
67495SOL    HW1 4324   3.279   5.795   7.677
67495SOL    HW2 4325   3.131   5.825   7.670
67496SOL     OW 4326  13.423   4.330   2.166
67496SOL    HW1 4327  13.355   4.331   2.098
67496SOL    HW2 4328  13.375   4.335   2.248
67497SOL     OW 4329   3.661   3.037   8.657
67497SOL    HW1 4330   3.571   3.064   8.640
67497SOL    HW2 4331   3.657   2.942   8.667
67498SOL     OW 4332   4.238   4.346   1.790
67498SOL    HW1 4333   4.278   4.346   1.704
67498SOL    HW2 4334   4.305   4.310   1.848
67499SOL     OW 4335   3.715   3.967  13.067
67499SOL    HW1 4336   3.632   3.921  13.054
67499SOL    HW2 4337   3.743   3.991  12.979
67500SOL     OW 4338  11.102  13.331   5.688
67500SOL    HW1 4339  11.023  13.384   5.700
67500SOL    HW2 4340  11.071  13.241   5.692
67501SOL     OW 4341  13.925   9.847   0.675
67501SOL    HW1 4342  13.896   9.782   0.739
67501SOL    HW2 4343  13.998   9.805   0.630
67502SOL     OW 4344   3.147  12.429  11.831
67502SOL    HW1 4345   3.197  12.506  11.804
67502SOL    HW2 4346   3.072  12.427  11.772
67503SOL     OW 4347  13.348   4.343   4.271
67503SOL    HW1 4348  13.385   4.430   4.280
67503SOL    HW2 4349  13.369   4.300   4.354
67504SOL     OW 4350   1.205   2.902   4.105
67504SOL    HW1 4351   1.209   2.823   4.052
67504SOL    HW2 4352   1.113   2.910   4.130
67505SOL     OW 4353  10.118  12.292   2.332
67505SOL    HW1 4354  10.178  12.339   2.274
67505SOL    HW2 4355  10.113  12.347   2.410
67506SOL     OW 4356   3.452   9.257   7.513
67506SOL    HW1 4357   3.469   9.213   7.597
67506SOL    HW2 4358   3.497   9.202   7.448
67507SOL     OW 4359  11.570  13.019   1.620
67507SOL    HW1 4360  11.545  13.082   1.553
67507SOL    HW2 4361  11.548  12.934   1.581
67508SOL     OW 4362   9.589  11.589   1.551
67508SOL    HW1 4363   9.626  11.501   1.560
67508SOL    HW2 4364   9.519  11.579   1.485
67509SOL     OW 4365   7.205   7.085  13.791
67509SOL    HW1 4366   7.195   7.034  13.711
67509SOL    HW2 4367   7.167   7.171  13.770
67510SOL     OW 4368  12.578   1.058   8.081
67510SOL    HW1 4369  12.641   1.028   8.016
67510SOL    HW2 4370  12.539   0.977   8.116
67511SOL     OW 4371   6.932  13.832   0.312
67511SOL    HW1 4372   6.963  13.744   0.292
67511SOL    HW2 4373   6.882  13.823   0.393
67512SOL     OW 4374   4.774   3.022   0.631
67512SOL    HW1 4375   4.864   2.999   0.653
67512SOL    HW2 4376   4.782   3.084   0.558
67513SOL     OW 4377   4.532  10.607   0.585
67513SOL    HW1 4378   4.590  10.575   0.655
67513SOL    HW2 4379   4.538  10.703   0.592
67514SOL     OW 4380  13.646   2.409  10.702
67514SOL    HW1 4381  13.651   2.422  10.797
67514SOL    HW2 4382  13.734   2.429  10.670
67515SOL     OW 4383   4.750  10.907   5.042
67515SOL    HW1 4384   4.781  10.823   5.006
67515SOL    HW2 4385   4.748  10.893   5.137
67516SOL     OW 4386   6.714  12.812   5.460
67516SOL    HW1 4387   6.700  12.883   5.397
67516SOL    HW2 4388   6.626  12.790   5.490
67517SOL     OW 4389   5.320   3.731   3.817
67517SOL    HW1 4390   5.254   3.692   3.760
67517SOL    HW2 4391   5.272   3.759   3.894
67518SOL     OW 4392   7.391   6.743   8.945
67518SOL    HW1 4393   7.436   6.779   9.021
67518SOL    HW2 4394   7.455   6.748   8.874
67519SOL     OW 4395   6.004   4.598   4.017
67519SOL    HW1 4396   5.976   4.550   4.095
67519SOL    HW2 4397   6.009   4.532   3.948
67520SOL     OW 4398  14.329   8.705  11.310
67520SOL    HW1 4399  14.303   8.716  11.219
67520SOL    HW2 4400  14.310   8.789  11.351
67521SOL     OW 4401   4.378  14.149  10.220
67521SOL    HW1 4402   4.410  14.083  10.158
67521SOL    HW2 4403   4.440  14.144  10.293
67522SOL     OW 4404  13.594   5.224   9.525
67522SOL    HW1 4405  13.543   5.246   9.603
67522SOL    HW2 4406  13.659   5.294   9.519
67523SOL     OW 4407   7.741   1.253   5.482
67523SOL    HW1 4408   7.686   1.329   5.460
67523SOL    HW2 4409   7.811   1.289   5.536
67524SOL     OW 4410  13.126  10.150   8.299
67524SOL    HW1 4411  13.085  10.066   8.278
67524SOL    HW2 4412  13.209  10.126   8.341
67525SOL     OW 4413  11.520   1.720   3.683
67525SOL    HW1 4414  11.586   1.773   3.727
67525SOL    HW2 4415  11.520   1.753   3.592
67526SOL     OW 4416   1.923   8.538   2.100
67526SOL    HW1 4417   1.963   8.468   2.048
67526SOL    HW2 4418   1.986   8.555   2.170
67527SOL     OW 4419   2.603   9.295  11.691
67527SOL    HW1 4420   2.555   9.214  11.707
67527SOL    HW2 4421   2.656   9.307  11.770
67528SOL     OW 4422   4.991  10.499   2.120
67528SOL    HW1 4423   5.045  10.566   2.162
67528SOL    HW2 4424   5.053  10.430   2.094
67529SOL     OW 4425   8.769  10.657  11.521
67529SOL    HW1 4426   8.739  10.630  11.434
67529SOL    HW2 4427   8.864  10.661  11.514
67530SOL     OW 4428   1.600   7.628   9.304
67530SOL    HW1 4429   1.674   7.592   9.255
67530SOL    HW2 4430   1.529   7.634   9.241
67531SOL     OW 4431  14.800   8.042   0.403
67531SOL    HW1 4432  14.778   8.135   0.401
67531SOL    HW2 4433   0.022   8.040   0.399
67532SOL     OW 4434   0.319   7.713   6.347
67532SOL    HW1 4435   0.396   7.767   6.361
67532SOL    HW2 4436   0.339   7.631   6.392
67533SOL     OW 4437   9.374   9.111   9.242
67533SOL    HW1 4438   9.438   9.044   9.218
67533SOL    HW2 4439   9.426   9.185   9.271
67534SOL     OW 4440   1.040   1.362  12.200
67534SOL    HW1 4441   1.086   1.352  12.283
67534SOL    HW2 4442   1.110   1.354  12.134
67535SOL     OW 4443  11.936   2.347  11.815
67535SOL    HW1 4444  11.858   2.369  11.766
67535SOL    HW2 4445  11.991   2.299  11.753
67536SOL     OW 4446  14.114   7.865  10.506
67536SOL    HW1 4447  14.128   7.859  10.600
67536SOL    HW2 4448  14.181   7.807  10.468
67537SOL     OW 4449  11.761   3.288   5.936
67537SOL    HW1 4450  11.704   3.213   5.950
67537SOL    HW2 4451  11.708   3.364   5.958
67538SOL     OW 4452   0.254   4.204   9.467
67538SOL    HW1 4453   0.196   4.253   9.409
67538SOL    HW2 4454   0.202   4.129   9.496
67539SOL     OW 4455   9.967   2.714   5.397
67539SOL    HW1 4456   9.973   2.622   5.371
67539SOL    HW2 4457   9.891   2.747   5.350
67540SOL     OW 4458   6.718   4.057   7.842
67540SOL    HW1 4459   6.625   4.048   7.819
67540SOL    HW2 4460   6.743   4.142   7.806
67541SOL     OW 4461  13.638   6.488  14.040
67541SOL    HW1 4462  13.562   6.527  13.997
67541SOL    HW2 4463  13.655   6.408  13.990
67542SOL     OW 4464   5.831   9.840   1.970
67542SOL    HW1 4465   5.916   9.853   2.012
67542SOL    HW2 4466   5.767   9.875   2.033
67543SOL     OW 4467   0.569   0.428   4.259
67543SOL    HW1 4468   0.594   0.337   4.245
67543SOL    HW2 4469   0.621   0.478   4.195
67544SOL     OW 4470   8.640  13.905   0.730
67544SOL    HW1 4471   8.692  13.858   0.665
67544SOL    HW2 4472   8.626  13.992   0.691
67545SOL     OW 4473  10.000   5.389   4.508
67545SOL    HW1 4474   9.976   5.325   4.575
67545SOL    HW2 4475   9.940   5.462   4.522
67546SOL     OW 4476   1.782   6.947   7.378
67546SOL    HW1 4477   1.749   6.986   7.297
67546SOL    HW2 4478   1.734   6.992   7.448
67547SOL     OW 4479   7.152   2.865   4.293
67547SOL    HW1 4480   7.121   2.789   4.342
67547SOL    HW2 4481   7.120   2.940   4.342
67548SOL     OW 4482   6.865   4.043  13.335
67548SOL    HW1 4483   6.834   4.132  13.352
67548SOL    HW2 4484   6.960   4.050  13.332
67549SOL     OW 4485   3.280  14.717   1.728
67549SOL    HW1 4486   3.265  14.634   1.774
67549SOL    HW2 4487   3.371  14.713   1.699
67550SOL     OW 4488  14.798   0.424  11.191
67550SOL    HW1 4489  14.719   0.439  11.138
67550SOL    HW2 4490  14.778   0.346  11.242
67551SOL     OW 4491   0.358   2.726  12.323
67551SOL    HW1 4492   0.267   2.753  12.333
67551SOL    HW2 4493   0.354   2.632  12.310
67552SOL     OW 4494   3.586  11.715   9.331
67552SOL    HW1 4495   3.534  11.784   9.372
67552SOL    HW2 4496   3.549  11.634   9.364
67553SOL     OW 4497   0.001  14.626   1.507
67553SOL    HW1 4498  14.834  14.707   1.537
67553SOL    HW2 4499  14.858  14.563   1.578
67554SOL     OW 4500  12.487  12.126  10.085
67554SOL    HW1 4501  12.447  12.040  10.091
67554SOL    HW2 4502  12.413  12.187  10.091
67555SOL     OW 4503  14.615   9.593  12.829
67555SOL    HW1 4504  14.631   9.595  12.923
67555SOL    HW2 4505  14.535   9.644  12.817
67556SOL     OW 4506  13.164  14.276   4.725
67556SOL    HW1 4507  13.146  14.183   4.713
67556SOL    HW2 4508  13.197  14.283   4.815
67557SOL     OW 4509   3.163   3.013  13.102
67557SOL    HW1 4510   3.163   2.922  13.134
67557SOL    HW2 4511   3.105   3.013  13.027
67558SOL     OW 4512   8.490   1.992  12.515
67558SOL    HW1 4513   8.502   1.910  12.467
67558SOL    HW2 4514   8.400   1.988  12.547
67559SOL     OW 4515   8.717  11.581   8.959
67559SOL    HW1 4516   8.656  11.511   8.981
67559SOL    HW2 4517   8.746  11.615   9.044
67560SOL     OW 4518  11.811   7.605   6.126
67560SOL    HW1 4519  11.891   7.635   6.084
67560SOL    HW2 4520  11.815   7.509   6.121
67561SOL     OW 4521  10.830   3.212  10.643
67561SOL    HW1 4522  10.904   3.231  10.587
67561SOL    HW2 4523  10.866   3.159  10.715
67562SOL     OW 4524   5.503   3.150   0.945
67562SOL    HW1 4525   5.530   3.107   1.026
67562SOL    HW2 4526   5.408   3.138   0.942
67563SOL     OW 4527  12.786   7.002   4.526
67563SOL    HW1 4528  12.694   7.026   4.521
67563SOL    HW2 4529  12.789   6.934   4.594
67564SOL     OW 4530   7.313   6.652  14.769
67564SOL    HW1 4531   7.236   6.706  14.787
67564SOL    HW2 4532   7.338   6.617  14.855
67565SOL     OW 4533   8.649   9.395   7.489
67565SOL    HW1 4534   8.679   9.408   7.399
67565SOL    HW2 4535   8.726   9.361   7.535
67566SOL     OW 4536   7.615   6.196   6.247
67566SOL    HW1 4537   7.523   6.179   6.267
67566SOL    HW2 4538   7.615   6.284   6.209
67567SOL     OW 4539  11.406   8.133   1.157
67567SOL    HW1 4540  11.333   8.141   1.095
67567SOL    HW2 4541  11.469   8.076   1.113
67568SOL     OW 4542  10.790   0.248  14.070
67568SOL    HW1 4543  10.744   0.173  14.031
67568SOL    HW2 4544  10.800   0.310  13.997
67569SOL     OW 4545  14.723   2.529   8.471
67569SOL    HW1 4546  14.808   2.549   8.510
67569SOL    HW2 4547  14.745   2.481   8.391
67570SOL     OW 4548   1.403   8.631   5.813
67570SOL    HW1 4549   1.340   8.699   5.788
67570SOL    HW2 4550   1.485   8.677   5.825
67571SOL     OW 4551   1.617   0.601  14.055
67571SOL    HW1 4552   1.596   0.528  14.114
67571SOL    HW2 4553   1.640   0.673  14.114
67572SOL     OW 4554  11.277   0.963   9.524
67572SOL    HW1 4555  11.311   1.014   9.597
67572SOL    HW2 4556  11.200   1.013   9.495
67573SOL     OW 4557   9.279   2.299  13.175
67573SOL    HW1 4558   9.185   2.281  13.168
67573SOL    HW2 4559   9.299   2.286  13.268
67574SOL     OW 4560   0.792   6.096   7.212
67574SOL    HW1 4561   0.831   6.009   7.220
67574SOL    HW2 4562   0.735   6.104   7.288
67575SOL     OW 4563   1.280   0.367  12.714
67575SOL    HW1 4564   1.197   0.386  12.757
67575SOL    HW2 4565   1.339   0.435  12.744
67576SOL     OW 4566   5.036   2.635  14.806
67576SOL    HW1 4567   4.941   2.636  14.799
67576SOL    HW2 4568   5.059   2.542  14.798
67577SOL     OW 4569   2.923  14.173   7.125
67577SOL    HW1 4570   2.922  14.138   7.036
67577SOL    HW2 4571   2.843  14.224   7.132
67578SOL     OW 4572   8.605   8.572   8.690
67578SOL    HW1 4573   8.579   8.525   8.610
67578SOL    HW2 4574   8.606   8.505   8.758
67579SOL     OW 4575   3.578   7.123   2.963
67579SOL    HW1 4576   3.542   7.112   2.875
67579SOL    HW2 4577   3.598   7.216   2.969
67580SOL     OW 4578   7.057   0.999  11.451
67580SOL    HW1 4579   7.035   1.045  11.532
67580SOL    HW2 4580   6.977   1.003  11.399
67581SOL     OW 4581  12.991  14.005   6.093
67581SOL    HW1 4582  13.041  14.027   6.015
67581SOL    HW2 4583  13.056  13.972   6.155
67582SOL     OW 4584   0.316  14.253   1.983
67582SOL    HW1 4585   0.344  14.307   2.057
67582SOL    HW2 4586   0.222  14.244   1.995
67583SOL     OW 4587   3.914   0.341   2.168
67583SOL    HW1 4588   3.829   0.367   2.203
67583SOL    HW2 4589   3.963   0.423   2.161
67584SOL     OW 4590   9.221  13.908   6.113
67584SOL    HW1 4591   9.152  13.925   6.177
67584SOL    HW2 4592   9.208  13.816   6.088
67585SOL     OW 4593  12.689   9.196  13.913
67585SOL    HW1 4594  12.737   9.133  13.966
67585SOL    HW2 4595  12.719   9.179  13.824
67586SOL     OW 4596   4.974   0.735  13.411
67586SOL    HW1 4597   5.042   0.794  13.379
67586SOL    HW2 4598   4.895   0.761  13.365
67587SOL     OW 4599   7.120   2.145   8.967
67587SOL    HW1 4600   7.044   2.094   8.994
67587SOL    HW2 4601   7.148   2.104   8.885
67588SOL     OW 4602   3.893   8.024  11.924
67588SOL    HW1 4603   3.874   7.932  11.942
67588SOL    HW2 4604   3.946   8.053  11.999
67589SOL     OW 4605   7.866  10.162   7.852
67589SOL    HW1 4606   7.920  10.088   7.881
67589SOL    HW2 4607   7.899  10.237   7.901
67590SOL     OW 4608  12.778   4.146   0.406
67590SOL    HW1 4609  12.853   4.103   0.448
67590SOL    HW2 4610  12.722   4.174   0.479
67591SOL     OW 4611  11.662  11.537  14.179
67591SOL    HW1 4612  11.579  11.506  14.214
67591SOL    HW2 4613  11.638  11.590  14.103
67592SOL     OW 4614   8.303   4.129  14.579
67592SOL    HW1 4615   8.228   4.110  14.523
67592SOL    HW2 4616   8.283   4.087  14.662
67593SOL     OW 4617  14.392   0.741   5.283
67593SOL    HW1 4618  14.459   0.730   5.350
67593SOL    HW2 4619  14.342   0.660   5.285
67594SOL     OW 4620   1.186   8.509   2.009
67594SOL    HW1 4621   1.146   8.549   2.086
67594SOL    HW2 4622   1.261   8.460   2.043
67595SOL     OW 4623   4.829  13.482   8.445
67595SOL    HW1 4624   4.844  13.506   8.354
67595SOL    HW2 4625   4.845  13.388   8.449
67596SOL     OW 4626   7.426   5.591  11.728
67596SOL    HW1 4627   7.445   5.606  11.820
67596SOL    HW2 4628   7.432   5.496  11.718
67597SOL     OW 4629   7.252   8.862  12.027
67597SOL    HW1 4630   7.161   8.846  12.003
67597SOL    HW2 4631   7.303   8.816  11.960
67598SOL     OW 4632   8.496  14.234   9.966
67598SOL    HW1 4633   8.516  14.317  10.011
67598SOL    HW2 4634   8.427  14.195  10.019
67599SOL     OW 4635   0.645   2.217   6.383
67599SOL    HW1 4636   0.572   2.206   6.445
67599SOL    HW2 4637   0.672   2.128   6.362
67600SOL     OW 4638   5.013   8.059   4.424
67600SOL    HW1 4639   4.944   8.029   4.365
67600SOL    HW2 4640   5.003   8.005   4.502
67601SOL     OW 4641   9.779   7.613  13.425
67601SOL    HW1 4642   9.706   7.552  13.419
67601SOL    HW2 4643   9.825   7.587  13.506
67602SOL     OW 4644  13.244   4.104  12.847
67602SOL    HW1 4645  13.176   4.114  12.913
67602SOL    HW2 4646  13.237   4.183  12.793
67603SOL     OW 4647   1.465  11.323   2.888
67603SOL    HW1 4648   1.453  11.228   2.901
67603SOL    HW2 4649   1.464  11.359   2.977
67604SOL     OW 4650   3.200   6.435   5.494
67604SOL    HW1 4651   3.172   6.449   5.404
67604SOL    HW2 4652   3.121   6.413   5.542
67605SOL     OW 4653  14.011  11.182   4.034
67605SOL    HW1 4654  13.944  11.192   3.966
67605SOL    HW2 4655  14.002  11.261   4.088
67606SOL     OW 4656   3.609   3.455  11.454
67606SOL    HW1 4657   3.676   3.498  11.507
67606SOL    HW2 4658   3.657   3.389  11.404
67607SOL     OW 4659   9.025   3.562   2.707
67607SOL    HW1 4660   9.051   3.629   2.644
67607SOL    HW2 4661   8.966   3.505   2.658
67608SOL     OW 4662   6.656   3.866   6.996
67608SOL    HW1 4663   6.714   3.939   7.016
67608SOL    HW2 4664   6.651   3.816   7.077
67609SOL     OW 4665   6.628   1.222   7.720
67609SOL    HW1 4666   6.669   1.250   7.638
67609SOL    HW2 4667   6.660   1.284   7.785
67610SOL     OW 4668  14.420  10.724   1.303
67610SOL    HW1 4669  14.417  10.784   1.229
67610SOL    HW2 4670  14.475  10.767   1.367
67611SOL     OW 4671   1.971   0.082   0.689
67611SOL    HW1 4672   1.978   0.154   0.626
67611SOL    HW2 4673   2.061   0.057   0.708
67612SOL     OW 4674  11.450   0.905   9.333
67612SOL    HW1 4675  11.390   0.914   9.407
67612SOL    HW2 4676  11.537   0.923   9.370
67613SOL     OW 4677   5.599   4.264   8.187
67613SOL    HW1 4678   5.566   4.233   8.272
67613SOL    HW2 4679   5.527   4.314   8.150
67614SOL     OW 4680   1.084   5.367   4.722
67614SOL    HW1 4681   1.110   5.459   4.715
67614SOL    HW2 4682   1.094   5.346   4.814
67615SOL     OW 4683   9.260   6.148  10.976
67615SOL    HW1 4684   9.166   6.158  10.988
67615SOL    HW2 4685   9.287   6.090  11.047
67616SOL     OW 4686   7.258  11.572   0.473
67616SOL    HW1 4687   7.196  11.542   0.406
67616SOL    HW2 4688   7.342  11.533   0.447
67617SOL     OW 4689   4.112   6.977   4.460
67617SOL    HW1 4690   4.078   6.889   4.473
67617SOL    HW2 4691   4.188   6.982   4.518
67618SOL     OW 4692  12.926  13.903   9.146
67618SOL    HW1 4693  12.881  13.819   9.156
67618SOL    HW2 4694  12.860  13.969   9.171
67619SOL     OW 4695  14.061   6.852   6.777
67619SOL    HW1 4696  13.968   6.833   6.787
67619SOL    HW2 4697  14.099   6.834   6.863
67620SOL     OW 4698   7.830   0.412  13.431
67620SOL    HW1 4699   7.850   0.500  13.397
67620SOL    HW2 4700   7.852   0.353  13.359
67621SOL     OW 4701   0.175   4.769   1.044
67621SOL    HW1 4702   0.261   4.755   1.004
67621SOL    HW2 4703   0.170   4.864   1.057
67622SOL     OW 4704   0.117   7.214   5.504
67622SOL    HW1 4705   0.051   7.269   5.461
67622SOL    HW2 4706   0.201   7.253   5.478
67623SOL     OW 4707   7.436   4.248  13.416
67623SOL    HW1 4708   7.343   4.247  13.442
67623SOL    HW2 4709   7.451   4.337  13.385
67624SOL     OW 4710   8.979   3.491   0.241
67624SOL    HW1 4711   9.032   3.430   0.189
67624SOL    HW2 4712   9.042   3.555   0.273
67625SOL     OW 4713   8.743   8.520   7.703
67625SOL    HW1 4714   8.686   8.444   7.691
67625SOL    HW2 4715   8.801   8.495   7.775
67626SOL     OW 4716   9.998   4.890  13.802
67626SOL    HW1 4717   9.980   4.984  13.797
67626SOL    HW2 4718  10.092   4.883  13.786
67627SOL     OW 4719   9.102  11.549   7.370
67627SOL    HW1 4720   9.039  11.483   7.342
67627SOL    HW2 4721   9.053  11.606   7.429
67628SOL     OW 4722   8.808   1.931  13.671
67628SOL    HW1 4723   8.803   2.023  13.696
67628SOL    HW2 4724   8.902   1.913  13.664
67629SOL     OW 4725   2.303   2.456   5.941
67629SOL    HW1 4726   2.288   2.550   5.952
67629SOL    HW2 4727   2.238   2.414   5.998
67630SOL     OW 4728   1.153  12.019   5.857
67630SOL    HW1 4729   1.110  11.934   5.847
67630SOL    HW2 4730   1.220  12.020   5.790
67631SOL     OW 4731  10.463   3.941   6.848
67631SOL    HW1 4732  10.392   3.935   6.784
67631SOL    HW2 4733  10.424   3.985   6.924
67632SOL     OW 4734  13.603   2.466  14.157
67632SOL    HW1 4735  13.527   2.491  14.209
67632SOL    HW2 4736  13.617   2.540  14.098
67633SOL     OW 4737   4.278   8.658  12.681
67633SOL    HW1 4738   4.261   8.744  12.642
67633SOL    HW2 4739   4.354   8.672  12.738
67634SOL     OW 4740   7.415  10.647  10.749
67634SOL    HW1 4741   7.474  10.687  10.686
67634SOL    HW2 4742   7.423  10.553  10.734
67635SOL     OW 4743  13.808  14.691   2.621
67635SOL    HW1 4744  13.886  14.692   2.678
67635SOL    HW2 4745  13.740  14.734   2.673
67636SOL     OW 4746   4.348  13.329  13.412
67636SOL    HW1 4747   4.255  13.320  13.431
67636SOL    HW2 4748   4.392  13.268  13.471
67637SOL     OW 4749   8.606  12.155   4.045
67637SOL    HW1 4750   8.620  12.079   3.989
67637SOL    HW2 4751   8.687  12.163   4.095
67638SOL     OW 4752   1.169   5.908   7.499
67638SOL    HW1 4753   1.214   5.949   7.573
67638SOL    HW2 4754   1.104   5.851   7.539
67639SOL     OW 4755   7.378   6.701   9.266
67639SOL    HW1 4756   7.405   6.611   9.248
67639SOL    HW2 4757   7.296   6.691   9.315
67640SOL     OW 4758   5.822   9.887  12.039
67640SOL    HW1 4759   5.887   9.912  11.973
67640SOL    HW2 4760   5.815   9.792  12.031
67641SOL     OW 4761  14.287  13.850   6.577
67641SOL    HW1 4762  14.340  13.827   6.501
67641SOL    HW2 4763  14.252  13.767   6.608
67642SOL     OW 4764   1.112   2.104  12.741
67642SOL    HW1 4765   1.067   2.135  12.663
67642SOL    HW2 4766   1.096   2.171  12.807
67643SOL     OW 4767   0.143  13.797   7.432
67643SOL    HW1 4768   0.212  13.750   7.385
67643SOL    HW2 4769   0.071  13.804   7.369
67644SOL     OW 4770  14.699   4.007  10.811
67644SOL    HW1 4771  14.676   4.086  10.860
67644SOL    HW2 4772  14.752   3.956  10.872
67645SOL     OW 4773  10.159  14.456  10.530
67645SOL    HW1 4774  10.240  14.470  10.579
67645SOL    HW2 4775  10.111  14.539  10.538
67646SOL     OW 4776   6.480   6.371   3.726
67646SOL    HW1 4777   6.405   6.423   3.756
67646SOL    HW2 4778   6.461   6.282   3.755
67647SOL     OW 4779   6.558  13.917  10.296
67647SOL    HW1 4780   6.528  13.826  10.298
67647SOL    HW2 4781   6.599  13.931  10.381
67648SOL     OW 4782   6.728  11.923  12.872
67648SOL    HW1 4783   6.739  11.827  12.874
67648SOL    HW2 4784   6.635  11.937  12.890
67649SOL     OW 4785   9.286   4.759   3.704
67649SOL    HW1 4786   9.231   4.694   3.660
67649SOL    HW2 4787   9.233   4.788   3.778
67650SOL     OW 4788   2.768   8.225  12.786
67650SOL    HW1 4789   2.825   8.158  12.747
67650SOL    HW2 4790   2.687   8.179  12.806
67651SOL     OW 4791  12.413   2.001  12.310
67651SOL    HW1 4792  12.345   2.058  12.345
67651SOL    HW2 4793  12.495   2.037  12.345
67652SOL     OW 4794   9.632   8.301   5.390
67652SOL    HW1 4795   9.708   8.320   5.335
67652SOL    HW2 4796   9.572   8.254   5.332
67653SOL     OW 4797   8.931   0.783   6.572
67653SOL    HW1 4798   8.981   0.764   6.492
67653SOL    HW2 4799   8.998   0.807   6.636
67654SOL     OW 4800   8.396   5.673  11.681
67654SOL    HW1 4801   8.343   5.699  11.756
67654SOL    HW2 4802   8.443   5.752  11.656
67655SOL     OW 4803   7.935   6.630   8.182
67655SOL    HW1 4804   8.018   6.642   8.227
67655SOL    HW2 4805   7.956   6.579   8.104
67656SOL     OW 4806  12.376   1.989  13.140
67656SOL    HW1 4807  12.282   2.006  13.137
67656SOL    HW2 4808  12.413   2.048  13.074
67657SOL     OW 4809   3.941   5.238   5.058
67657SOL    HW1 4810   4.013   5.250   4.996
67657SOL    HW2 4811   3.882   5.176   5.014
67658SOL     OW 4812  12.563   9.379  12.751
67658SOL    HW1 4813  12.592   9.381  12.843
67658SOL    HW2 4814  12.512   9.298  12.744
67659SOL     OW 4815   1.459   3.333  11.456
67659SOL    HW1 4816   1.417   3.369  11.377
67659SOL    HW2 4817   1.430   3.391  11.527
67660SOL     OW 4818  14.115   7.651   9.318
67660SOL    HW1 4819  14.100   7.675   9.227
67660SOL    HW2 4820  14.205   7.620   9.321
67661SOL     OW 4821   9.872   8.514   7.920
67661SOL    HW1 4822   9.799   8.497   7.979
67661SOL    HW2 4823   9.890   8.430   7.878
67662SOL     OW 4824   7.284   1.416   7.172
67662SOL    HW1 4825   7.370   1.392   7.137
67662SOL    HW2 4826   7.303   1.451   7.259
67663SOL     OW 4827   6.689   8.631   1.046
67663SOL    HW1 4828   6.615   8.684   1.078
67663SOL    HW2 4829   6.763   8.692   1.047
67664SOL     OW 4830  12.765   8.423  14.524
67664SOL    HW1 4831  12.729   8.372  14.596
67664SOL    HW2 4832  12.764   8.362  14.449
67665SOL     OW 4833   1.359   3.667   2.946
67665SOL    HW1 4834   1.360   3.762   2.932
67665SOL    HW2 4835   1.283   3.636   2.897
67666SOL     OW 4836   9.372  12.006   8.872
67666SOL    HW1 4837   9.354  12.034   8.961
67666SOL    HW2 4838   9.455  11.957   8.878
67667SOL     OW 4839   3.414   5.278   6.132
67667SOL    HW1 4840   3.398   5.354   6.076
67667SOL    HW2 4841   3.443   5.314   6.215
67668SOL     OW 4842  13.418   5.005   4.433
67668SOL    HW1 4843  13.377   5.091   4.431
67668SOL    HW2 4844  13.483   5.008   4.363
67669SOL     OW 4845  12.206   4.486   2.563
67669SOL    HW1 4846  12.255   4.462   2.641
67669SOL    HW2 4847  12.120   4.445   2.574
67670SOL     OW 4848  14.704   0.516   1.773
67670SOL    HW1 4849  14.799   0.524   1.785
67670SOL    HW2 4850  14.673   0.480   1.855
67671SOL     OW 4851   6.912  12.887   2.300
67671SOL    HW1 4852   6.823  12.855   2.283
67671SOL    HW2 4853   6.956  12.881   2.216
67672SOL     OW 4854   0.953   5.621  14.383
67672SOL    HW1 4855   0.968   5.569  14.304
67672SOL    HW2 4856   0.951   5.711  14.353
67673SOL     OW 4857   5.056  13.297  11.301
67673SOL    HW1 4858   5.008  13.321  11.222
67673SOL    HW2 4859   5.061  13.202  11.299
67674SOL     OW 4860  14.520   1.558   6.838
67674SOL    HW1 4861  14.435   1.552   6.882
67674SOL    HW2 4862  14.577   1.499   6.888
67675SOL     OW 4863   0.975   8.966   4.925
67675SOL    HW1 4864   0.985   8.871   4.916
67675SOL    HW2 4865   1.062   9.001   4.909
67676SOL     OW 4866  14.759   6.721   7.432
67676SOL    HW1 4867  14.801   6.742   7.515
67676SOL    HW2 4868  14.825   6.742   7.365
67677SOL     OW 4869   4.504   4.252  11.662
67677SOL    HW1 4870   4.559   4.189  11.614
67677SOL    HW2 4871   4.456   4.198  11.725
67678SOL     OW 4872  11.990   4.050   9.428
67678SOL    HW1 4873  11.906   4.080   9.392
67678SOL    HW2 4874  12.016   4.120   9.487
67679SOL     OW 4875   6.739   0.924  11.812
67679SOL    HW1 4876   6.812   0.911  11.752
67679SOL    HW2 4877   6.676   0.856  11.788
67680SOL     OW 4878  11.602   2.938   9.512
67680SOL    HW1 4879  11.641   3.019   9.544
67680SOL    HW2 4880  11.582   2.957   9.420
67681SOL     OW 4881   5.210  10.863   3.128
67681SOL    HW1 4882   5.265  10.791   3.100
67681SOL    HW2 4883   5.169  10.833   3.209
67682SOL     OW 4884   5.561  14.381  10.787
67682SOL    HW1 4885   5.587  14.380  10.879
67682SOL    HW2 4886   5.565  14.289  10.760
67683SOL     OW 4887   8.391   9.095   9.548
67683SOL    HW1 4888   8.445   9.052   9.614
67683SOL    HW2 4889   8.394   9.188   9.571
67684SOL     OW 4890  12.404  10.481   5.136
67684SOL    HW1 4891  12.338  10.544   5.108
67684SOL    HW2 4892  12.360  10.397   5.132
67685SOL     OW 4893   0.265   0.546  10.104
67685SOL    HW1 4894   0.318   0.623  10.082
67685SOL    HW2 4895   0.227   0.518  10.021
67686SOL     OW 4896   5.744   2.448  14.456
67686SOL    HW1 4897   5.678   2.404  14.403
67686SOL    HW2 4898   5.751   2.394  14.535
67687SOL     OW 4899  13.257   1.843   5.625
67687SOL    HW1 4900  13.276   1.811   5.537
67687SOL    HW2 4901  13.181   1.792   5.654
67688SOL     OW 4902  11.422   3.626  11.547
67688SOL    HW1 4903  11.463   3.711  11.539
67688SOL    HW2 4904  11.461   3.573  11.477
67689SOL     OW 4905   3.338  10.620  12.659
67689SOL    HW1 4906   3.384  10.697  12.625
67689SOL    HW2 4907   3.405  10.571  12.707
67690SOL     OW 4908   1.715  14.267  14.394
67690SOL    HW1 4909   1.809  14.254  14.412
67690SOL    HW2 4910   1.714  14.307  14.307
67691SOL     OW 4911   9.865  11.079   9.427
67691SOL    HW1 4912   9.868  11.087   9.332
67691SOL    HW2 4913   9.928  11.143   9.459
67692SOL     OW 4914   9.982   8.703   1.673
67692SOL    HW1 4915   9.967   8.625   1.726
67692SOL    HW2 4916   9.995   8.773   1.736
67693SOL     OW 4917   1.559   6.002  13.009
67693SOL    HW1 4918   1.532   6.083  12.966
67693SOL    HW2 4919   1.477   5.962  13.038
67694SOL     OW 4920   0.291  11.714   8.790
67694SOL    HW1 4921   0.252  11.634   8.823
67694SOL    HW2 4922   0.234  11.742   8.719
67695SOL     OW 4923   4.618   3.489  12.892
67695SOL    HW1 4924   4.555   3.467  12.824
67695SOL    HW2 4925   4.656   3.572  12.863
67696SOL     OW 4926   8.791  14.570   0.456
67696SOL    HW1 4927   8.724  14.589   0.521
67696SOL    HW2 4928   8.868  14.547   0.507
67697SOL     OW 4929   4.278  14.758   5.334
67697SOL    HW1 4930   4.251  14.702   5.407
67697SOL    HW2 4931   4.210  14.825   5.328
67698SOL     OW 4932  10.853   6.881   9.953
67698SOL    HW1 4933  10.838   6.955   9.895
67698SOL    HW2 4934  10.837   6.804   9.899
67699SOL     OW 4935  13.330   0.627  14.026
67699SOL    HW1 4936  13.249   0.665  14.060
67699SOL    HW2 4937  13.393   0.635  14.098
67700SOL     OW 4938  12.209  12.800   8.739
67700SOL    HW1 4939  12.204  12.877   8.683
67700SOL    HW2 4940  12.225  12.727   8.679
67701SOL     OW 4941   3.433  14.397   1.119
67701SOL    HW1 4942   3.485  14.336   1.171
67701SOL    HW2 4943   3.400  14.461   1.182
67702SOL     OW 4944   7.969   1.256   2.052
67702SOL    HW1 4945   7.898   1.319   2.063
67702SOL    HW2 4946   8.006   1.277   1.966
67703SOL     OW 4947   6.940   3.377  13.721
67703SOL    HW1 4948   7.012   3.338  13.771
67703SOL    HW2 4949   6.980   3.406  13.639
67704SOL     OW 4950  14.390  10.663   2.452
67704SOL    HW1 4951  14.324  10.673   2.384
67704SOL    HW2 4952  14.473  10.663   2.404
67705SOL     OW 4953   5.264   0.661   5.803
67705SOL    HW1 4954   5.247   0.644   5.711
67705SOL    HW2 4955   5.221   0.745   5.820
67706SOL     OW 4956   4.116   7.647  13.613
67706SOL    HW1 4957   4.141   7.618  13.526
67706SOL    HW2 4958   4.159   7.584  13.672
67707SOL     OW 4959   8.419   0.070  14.419
67707SOL    HW1 4960   8.424   0.145  14.361
67707SOL    HW2 4961   8.343   0.089  14.476
67708SOL     OW 4962   4.987  14.855  12.792
67708SOL    HW1 4963   4.935  14.787  12.751
67708SOL    HW2 4964   4.976   0.058  12.737
67709SOL     OW 4965  14.439   4.881   4.154
67709SOL    HW1 4966  14.349   4.847   4.147
67709SOL    HW2 4967  14.439   4.959   4.099
67710SOL     OW 4968   3.669  10.911   4.754
67710SOL    HW1 4969   3.738  10.965   4.717
67710SOL    HW2 4970   3.702  10.885   4.840
67711SOL     OW 4971   3.536   4.290   7.186
67711SOL    HW1 4972   3.539   4.226   7.257
67711SOL    HW2 4973   3.530   4.375   7.230
67712SOL     OW 4974   4.599   1.825   2.545
67712SOL    HW1 4975   4.597   1.910   2.587
67712SOL    HW2 4976   4.691   1.810   2.523
67713SOL     OW 4977  12.997  10.834   9.845
67713SOL    HW1 4978  13.035  10.746   9.840
67713SOL    HW2 4979  13.048  10.886   9.783
67714SOL     OW 4980  14.411   4.091  13.080
67714SOL    HW1 4981  14.403   4.178  13.119
67714SOL    HW2 4982  14.336   4.043  13.115
67715SOL     OW 4983   0.763   2.631  12.385
67715SOL    HW1 4984   0.712   2.560  12.422
67715SOL    HW2 4985   0.851   2.595  12.374
67716SOL     OW 4986   7.988  12.880  12.337
67716SOL    HW1 4987   7.993  12.974  12.318
67716SOL    HW2 4988   7.901  12.868  12.375
67717SOL     OW 4989  10.868   7.434   3.525
67717SOL    HW1 4990  10.794   7.463   3.471
67717SOL    HW2 4991  10.938   7.417   3.462
67718SOL     OW 4992   0.736   2.196   8.814
67718SOL    HW1 4993   0.830   2.207   8.830
67718SOL    HW2 4994   0.730   2.169   8.722
67719SOL     OW 4995   1.842  14.531  10.031
67719SOL    HW1 4996   1.869  14.494   9.948
67719SOL    HW2 4997   1.750  14.556  10.018
67720SOL     OW 4998  14.153  12.060   4.201
67720SOL    HW1 4999  14.068  12.016   4.202
67720SOL    HW2 5000  14.149  12.121   4.275
67721SOL     OW 5001  12.335  13.682   2.030
67721SOL    HW1 5002  12.328  13.774   2.004
67721SOL    HW2 5003  12.419  13.676   2.074
67722SOL     OW 5004   7.491   2.388   8.444
67722SOL    HW1 5005   7.527   2.443   8.374
67722SOL    HW2 5006   7.569   2.355   8.490
67723SOL     OW 5007  12.173   8.637  12.999
67723SOL    HW1 5008  12.142   8.550  13.025
67723SOL    HW2 5009  12.172   8.688  13.080
67724SOL     OW 5010  13.720   6.950   1.929
67724SOL    HW1 5011  13.711   7.046   1.933
67724SOL    HW2 5012  13.746   6.926   2.018
67725SOL     OW 5013  10.386  14.526  14.388
67725SOL    HW1 5014  10.437  14.604  14.364
67725SOL    HW2 5015  10.309  14.561  14.433
67726SOL     OW 5016  14.591   5.742   0.973
67726SOL    HW1 5017  14.678   5.705   0.957
67726SOL    HW2 5018  14.549   5.679   1.031
67727SOL     OW 5019  13.550  11.531  13.751
67727SOL    HW1 5020  13.540  11.447  13.706
67727SOL    HW2 5021  13.500  11.593  13.697
67728SOL     OW 5022   2.408  13.069  10.371
67728SOL    HW1 5023   2.347  13.077  10.445
67728SOL    HW2 5024   2.458  12.990  10.390
67729SOL     OW 5025  13.020   3.912  11.461
67729SOL    HW1 5026  13.073   3.940  11.387
67729SOL    HW2 5027  13.084   3.882  11.527
67730SOL     OW 5028   1.908   5.045   2.885
67730SOL    HW1 5029   1.986   5.100   2.872
67730SOL    HW2 5030   1.916   5.015   2.976
67731SOL     OW 5031   6.220  10.405   5.186
67731SOL    HW1 5032   6.309  10.381   5.214
67731SOL    HW2 5033   6.166  10.330   5.211
67732SOL     OW 5034   1.873  11.349   8.017
67732SOL    HW1 5035   1.860  11.430   8.068
67732SOL    HW2 5036   1.814  11.359   7.942
67733SOL     OW 5037   5.415  14.841   0.203
67733SOL    HW1 5038   5.454  14.756   0.185
67733SOL    HW2 5039   5.355  14.824   0.277
67734SOL     OW 5040  12.892   0.840   1.462
67734SOL    HW1 5041  12.807   0.805   1.486
67734SOL    HW2 5042  12.955   0.780   1.501
67735SOL     OW 5043   4.547   8.310  12.457
67735SOL    HW1 5044   4.588   8.351  12.533
67735SOL    HW2 5045   4.470   8.265  12.492
67736SOL     OW 5046   0.354   3.516   7.908
67736SOL    HW1 5047   0.367   3.445   7.845
67736SOL    HW2 5048   0.310   3.474   7.982
67737SOL     OW 5049   9.720   4.934  13.961
67737SOL    HW1 5050   9.712   5.027  13.937
67737SOL    HW2 5051   9.786   4.900  13.902
67738SOL     OW 5052   7.078   2.439   7.449
67738SOL    HW1 5053   7.079   2.526   7.409
67738SOL    HW2 5054   7.020   2.448   7.525
67739SOL     OW 5055   1.024   9.964  14.436
67739SOL    HW1 5056   1.119   9.961  14.427
67739SOL    HW2 5057   1.000  10.050  14.401
67740SOL     OW 5058  11.335   8.443  14.225
67740SOL    HW1 5059  11.313   8.422  14.316
67740SOL    HW2 5060  11.284   8.381  14.173
67741SOL     OW 5061   3.146   6.138  12.904
67741SOL    HW1 5062   3.197   6.105  12.978
67741SOL    HW2 5063   3.145   6.066  12.841
67742SOL     OW 5064   2.223   6.552   2.159
67742SOL    HW1 5065   2.177   6.522   2.238
67742SOL    HW2 5066   2.300   6.598   2.192
67743SOL     OW 5067   9.234   6.056   2.502
67743SOL    HW1 5068   9.196   6.130   2.549
67743SOL    HW2 5069   9.251   6.089   2.414
67744SOL     OW 5070  14.456   7.947  14.184
67744SOL    HW1 5071  14.421   7.994  14.259
67744SOL    HW2 5072  14.515   7.882  14.221
67745SOL     OW 5073   7.887  14.416   5.848
67745SOL    HW1 5074   7.959  14.470   5.880
67745SOL    HW2 5075   7.904  14.406   5.755
67746SOL     OW 5076   2.565   4.703  10.723
67746SOL    HW1 5077   2.559   4.633  10.787
67746SOL    HW2 5078   2.583   4.659  10.640
67747SOL     OW 5079   1.084   4.845  11.807
67747SOL    HW1 5080   0.996   4.826  11.776
67747SOL    HW2 5081   1.141   4.793  11.751
67748SOL     OW 5082   5.862  11.594  14.622
67748SOL    HW1 5083   5.846  11.528  14.689
67748SOL    HW2 5084   5.803  11.570  14.550
67749SOL     OW 5085  10.337   3.122   8.487
67749SOL    HW1 5086  10.264   3.172   8.523
67749SOL    HW2 5087  10.323   3.125   8.392
67750SOL     OW 5088   4.797   0.623   8.451
67750SOL    HW1 5089   4.786   0.686   8.523
67750SOL    HW2 5090   4.886   0.590   8.461
67751SOL     OW 5091   2.182   5.357   8.492
67751SOL    HW1 5092   2.199   5.397   8.577
67751SOL    HW2 5093   2.258   5.301   8.475
67752SOL     OW 5094   8.267   3.933  14.112
67752SOL    HW1 5095   8.213   3.892  14.180
67752SOL    HW2 5096   8.276   4.024  14.140
67753SOL     OW 5097  12.904   3.893   2.800
67753SOL    HW1 5098  12.959   3.836   2.747
67753SOL    HW2 5099  12.819   3.892   2.755
67754SOL     OW 5100   8.720   5.426   8.458
67754SOL    HW1 5101   8.803   5.461   8.427
67754SOL    HW2 5102   8.745   5.354   8.516
67755SOL     OW 5103  11.534  10.634   2.777
67755SOL    HW1 5104  11.514  10.582   2.699
67755SOL    HW2 5105  11.568  10.717   2.742
67756SOL     OW 5106  10.636  13.719   3.425
67756SOL    HW1 5107  10.593  13.786   3.372
67756SOL    HW2 5108  10.617  13.637   3.380
67757SOL     OW 5109  14.351   7.511   9.719
67757SOL    HW1 5110  14.311   7.592   9.688
67757SOL    HW2 5111  14.285   7.471   9.776
67758SOL     OW 5112   7.960  13.750  12.280
67758SOL    HW1 5113   7.951  13.657  12.301
67758SOL    HW2 5114   7.935  13.796  12.360
67759SOL     OW 5115   8.072  12.351   2.223
67759SOL    HW1 5116   8.066  12.274   2.165
67759SOL    HW2 5117   7.982  12.380   2.232
67760SOL     OW 5118   6.701   8.932  10.827
67760SOL    HW1 5119   6.702   8.868  10.898
67760SOL    HW2 5120   6.713   8.880  10.748
67761SOL     OW 5121   1.133   1.153  14.871
67761SOL    HW1 5122   1.176   1.233  14.840
67761SOL    HW2 5123   1.090   1.178   0.079
67762SOL     OW 5124   6.980   8.064   7.271
67762SOL    HW1 5125   7.073   8.083   7.260
67762SOL    HW2 5126   6.938   8.107   7.196
67763SOL     OW 5127   2.878  13.915  13.699
67763SOL    HW1 5128   2.909  13.922  13.609
67763SOL    HW2 5129   2.912  13.830  13.729
67764SOL     OW 5130   2.415   3.580   1.114
67764SOL    HW1 5131   2.484   3.528   1.156
67764SOL    HW2 5132   2.349   3.592   1.183
67765SOL     OW 5133  11.213  10.679   4.088
67765SOL    HW1 5134  11.254  10.755   4.127
67765SOL    HW2 5135  11.284  10.633   4.043
67766SOL     OW 5136   7.334   2.154  10.825
67766SOL    HW1 5137   7.298   2.204  10.752
67766SOL    HW2 5138   7.366   2.073  10.785
67767SOL     OW 5139   5.716   1.323  14.127
67767SOL    HW1 5140   5.657   1.339  14.201
67767SOL    HW2 5141   5.659   1.309  14.052
67768SOL     OW 5142   6.081   6.423  11.526
67768SOL    HW1 5143   6.115   6.333  11.521
67768SOL    HW2 5144   6.151   6.473  11.567
67769SOL     OW 5145  12.571   3.678   3.421
67769SOL    HW1 5146  12.507   3.629   3.473
67769SOL    HW2 5147  12.616   3.611   3.370
67770SOL     OW 5148   0.601   3.988   6.343
67770SOL    HW1 5149   0.592   3.894   6.352
67770SOL    HW2 5150   0.604   4.003   6.248
67771SOL     OW 5151   1.478   4.130   3.462
67771SOL    HW1 5152   1.537   4.205   3.448
67771SOL    HW2 5153   1.533   4.065   3.505
67772SOL     OW 5154  10.712  11.949   3.390
67772SOL    HW1 5155  10.631  11.917   3.350
67772SOL    HW2 5156  10.713  12.042   3.370
67773SOL     OW 5157  11.194  13.737  13.864
67773SOL    HW1 5158  11.119  13.695  13.822
67773SOL    HW2 5159  11.255  13.665  13.881
67774SOL     OW 5160   7.697   2.336  13.359
67774SOL    HW1 5161   7.727   2.267  13.418
67774SOL    HW2 5162   7.741   2.415  13.390
67775SOL     OW 5163   7.394   8.697   8.118
67775SOL    HW1 5164   7.419   8.637   8.048
67775SOL    HW2 5165   7.476   8.721   8.160
67776SOL     OW 5166   9.370   0.568   3.132
67776SOL    HW1 5167   9.383   0.625   3.208
67776SOL    HW2 5168   9.319   0.620   3.070
67777SOL     OW 5169  11.046   8.857   8.630
67777SOL    HW1 5170  11.083   8.912   8.699
67777SOL    HW2 5171  10.954   8.881   8.627
67778SOL     OW 5172  14.783   4.799   4.573
67778SOL    HW1 5173  14.826   4.713   4.565
67778SOL    HW2 5174  14.701   4.789   4.526
67779SOL     OW 5175   9.223   3.476   2.906
67779SOL    HW1 5176   9.215   3.462   3.000
67779SOL    HW2 5177   9.135   3.460   2.872
67780SOL     OW 5178  10.280  12.797  11.094
67780SOL    HW1 5179  10.185  12.809  11.091
67780SOL    HW2 5180  10.315  12.865  11.036
67781SOL     OW 5181   4.166  12.861  14.330
67781SOL    HW1 5182   4.235  12.863  14.396
67781SOL    HW2 5183   4.184  12.937  14.274
67782SOL     OW 5184   1.290  11.094   7.755
67782SOL    HW1 5185   1.299  11.000   7.746
67782SOL    HW2 5186   1.280  11.109   7.849
67783SOL     OW 5187   7.250   3.496   8.292
67783SOL    HW1 5188   7.256   3.591   8.285
67783SOL    HW2 5189   7.160   3.479   8.318
67784SOL     OW 5190  12.669  12.756  13.540
67784SOL    HW1 5191  12.609  12.684  13.562
67784SOL    HW2 5192  12.749  12.712  13.510
67785SOL     OW 5193   4.417   5.760   8.008
67785SOL    HW1 5194   4.507   5.786   8.028
67785SOL    HW2 5195   4.386   5.826   7.945
67786SOL     OW 5196  10.109  13.722   7.323
67786SOL    HW1 5197  10.066  13.791   7.272
67786SOL    HW2 5198  10.203  13.735   7.306
67787SOL     OW 5199   0.842  11.058   5.434
67787SOL    HW1 5200   0.891  10.978   5.414
67787SOL    HW2 5201   0.881  11.091   5.515
67788SOL     OW 5202   9.541  13.182  10.026
67788SOL    HW1 5203   9.613  13.244  10.021
67788SOL    HW2 5204   9.582  13.100  10.055
67789SOL     OW 5205   2.016   2.568   4.149
67789SOL    HW1 5206   1.981   2.651   4.178
67789SOL    HW2 5207   1.977   2.503   4.208
67790SOL     OW 5208  13.824   4.353   9.195
67790SOL    HW1 5209  13.734   4.381   9.209
67790SOL    HW2 5210  13.860   4.344   9.284
67791SOL     OW 5211  13.702  12.843   4.625
67791SOL    HW1 5212  13.657  12.927   4.614
67791SOL    HW2 5213  13.741  12.825   4.540
67792SOL     OW 5214   2.135   8.885   1.268
67792SOL    HW1 5215   2.081   8.856   1.342
67792SOL    HW2 5216   2.164   8.803   1.226
67793SOL     OW 5217  12.534   1.306   3.703
67793SOL    HW1 5218  12.586   1.383   3.679
67793SOL    HW2 5219  12.585   1.232   3.671
67794SOL     OW 5220   4.697   0.375  13.170
67794SOL    HW1 5221   4.679   0.433  13.096
67794SOL    HW2 5222   4.649   0.295  13.151
67795SOL     OW 5223   9.168   9.413  11.663
67795SOL    HW1 5224   9.078   9.386  11.645
67795SOL    HW2 5225   9.216   9.331  11.675
67796SOL     OW 5226   2.777  11.367   9.716
67796SOL    HW1 5227   2.797  11.441   9.774
67796SOL    HW2 5228   2.859  11.317   9.713
67797SOL     OW 5229   6.675  11.730   6.418
67797SOL    HW1 5230   6.618  11.732   6.495
67797SOL    HW2 5231   6.739  11.800   6.433
67798SOL     OW 5232  11.283   4.718  11.279
67798SOL    HW1 5233  11.309   4.639  11.328
67798SOL    HW2 5234  11.315   4.791  11.332
67799SOL     OW 5235  11.744  14.024   4.931
67799SOL    HW1 5236  11.744  13.930   4.915
67799SOL    HW2 5237  11.834  14.052   4.913
67800SOL     OW 5238   2.455   0.444  14.278
67800SOL    HW1 5239   2.391   0.372  14.280
67800SOL    HW2 5240   2.446   0.487  14.363
67801SOL     OW 5241   3.917   8.539   1.817
67801SOL    HW1 5242   3.833   8.552   1.861
67801SOL    HW2 5243   3.914   8.448   1.786
67802SOL     OW 5244  14.628  13.339   8.085
67802SOL    HW1 5245  14.636  13.379   7.998
67802SOL    HW2 5246  14.659  13.249   8.073
67803SOL     OW 5247   6.711  12.232   7.455
67803SOL    HW1 5248   6.639  12.263   7.400
67803SOL    HW2 5249   6.750  12.311   7.491
67804SOL     OW 5250   3.545  12.620   5.948
67804SOL    HW1 5251   3.474  12.561   5.925
67804SOL    HW2 5252   3.603  12.620   5.872
67805SOL     OW 5253   1.847   8.509   3.890
67805SOL    HW1 5254   1.801   8.587   3.858
67805SOL    HW2 5255   1.847   8.449   3.815
67806SOL     OW 5256  14.455  13.464  14.093
67806SOL    HW1 5257  14.457  13.539  14.034
67806SOL    HW2 5258  14.446  13.388  14.034
67807SOL     OW 5259  11.581   8.021  11.904
67807SOL    HW1 5260  11.542   8.099  11.944
67807SOL    HW2 5261  11.521   7.998  11.833
67808SOL     OW 5262   3.506   0.433  12.475
67808SOL    HW1 5263   3.417   0.467  12.465
67808SOL    HW2 5264   3.558   0.510  12.501
67809SOL     OW 5265   0.474   1.199   6.361
67809SOL    HW1 5266   0.514   1.283   6.384
67809SOL    HW2 5267   0.447   1.162   6.444
67810SOL     OW 5268   6.693   7.424   7.036
67810SOL    HW1 5269   6.683   7.333   7.007
67810SOL    HW2 5270   6.705   7.418   7.131
67811SOL     OW 5271   5.141   6.583   4.964
67811SOL    HW1 5272   5.088   6.524   4.910
67811SOL    HW2 5273   5.151   6.661   4.910
67812SOL     OW 5274   5.793   7.083   8.526
67812SOL    HW1 5275   5.790   7.097   8.431
67812SOL    HW2 5276   5.702   7.078   8.553
67813SOL     OW 5277   8.927   6.926   3.439
67813SOL    HW1 5278   8.889   6.978   3.510
67813SOL    HW2 5279   9.013   6.965   3.424
67814SOL     OW 5280   4.804  13.708   5.548
67814SOL    HW1 5281   4.830  13.681   5.460
67814SOL    HW2 5282   4.857  13.653   5.606
67815SOL     OW 5283   6.147  11.134  13.382
67815SOL    HW1 5284   6.161  11.042  13.360
67815SOL    HW2 5285   6.114  11.173  13.301
67816SOL     OW 5286  12.049   8.579  14.684
67816SOL    HW1 5287  11.997   8.533  14.619
67816SOL    HW2 5288  11.985   8.625  14.738
67817SOL     OW 5289   3.545   8.930   3.667
67817SOL    HW1 5290   3.633   8.904   3.639
67817SOL    HW2 5291   3.521   8.865   3.734
67818SOL     OW 5292   7.709  13.432   4.715
67818SOL    HW1 5293   7.717  13.417   4.809
67818SOL    HW2 5294   7.690  13.526   4.708
67819SOL     OW 5295  14.429  12.729   9.568
67819SOL    HW1 5296  14.338  12.752   9.551
67819SOL    HW2 5297  14.441  12.743   9.662
67820SOL     OW 5298   3.191   6.580   1.677
67820SOL    HW1 5299   3.227   6.576   1.588
67820SOL    HW2 5300   3.101   6.547   1.667
67821SOL     OW 5301   3.911   0.794   4.634
67821SOL    HW1 5302   4.005   0.779   4.629
67821SOL    HW2 5303   3.872   0.721   4.585
67822SOL     OW 5304   8.276   3.141  10.819
67822SOL    HW1 5305   8.256   3.215  10.762
67822SOL    HW2 5306   8.197   3.086  10.817
67823SOL     OW 5307  13.618   6.286   0.048
67823SOL    HW1 5308  13.598   6.364  14.870
67823SOL    HW2 5309  13.693   6.247   0.004
67824SOL     OW 5310  14.545   1.733   6.400
67824SOL    HW1 5311  14.478   1.671   6.372
67824SOL    HW2 5312  14.621   1.711   6.346
67825SOL     OW 5313  10.809  13.695  10.867
67825SOL    HW1 5314  10.878  13.629  10.876
67825SOL    HW2 5315  10.835  13.748  10.791
67826SOL     OW 5316   2.536   1.191   1.695
67826SOL    HW1 5317   2.567   1.193   1.605
67826SOL    HW2 5318   2.615   1.200   1.748
67827SOL     OW 5319   5.770  14.624   3.665
67827SOL    HW1 5320   5.846  14.681   3.660
67827SOL    HW2 5321   5.705  14.675   3.714
67828SOL     OW 5322   1.931  11.413  14.673
67828SOL    HW1 5323   1.969  11.342  14.620
67828SOL    HW2 5324   1.949  11.387  14.764
67829SOL     OW 5325  11.721   6.105  12.420
67829SOL    HW1 5326  11.808   6.134  12.393
67829SOL    HW2 5327  11.738   6.031  12.478
67830SOL     OW 5328   6.465   8.863  14.436
67830SOL    HW1 5329   6.526   8.873  14.509
67830SOL    HW2 5330   6.378   8.865  14.476
67831SOL     OW 5331  13.943   7.110  12.522
67831SOL    HW1 5332  13.963   7.086  12.431
67831SOL    HW2 5333  13.956   7.205  12.525
67832SOL     OW 5334   4.643   6.770   4.492
67832SOL    HW1 5335   4.710   6.810   4.548
67832SOL    HW2 5336   4.632   6.834   4.421
67833SOL     OW 5337   1.107  10.982  10.786
67833SOL    HW1 5338   1.096  11.077  10.775
67833SOL    HW2 5339   1.055  10.944  10.716
67834SOL     OW 5340   7.891   9.858  11.617
67834SOL    HW1 5341   7.847   9.838  11.699
67834SOL    HW2 5342   7.909   9.952  11.622
67835SOL     OW 5343  14.757   3.915   8.675
67835SOL    HW1 5344  14.681   3.871   8.712
67835SOL    HW2 5345  14.797   3.960   8.749
67836SOL     OW 5346  12.039   0.311   8.076
67836SOL    HW1 5347  12.122   0.274   8.045
67836SOL    HW2 5348  11.973   0.271   8.019
67837SOL     OW 5349   1.633  11.116   0.054
67837SOL    HW1 5350   1.650  11.116  14.833
67837SOL    HW2 5351   1.570  11.187   0.067
67838SOL     OW 5352   4.719   5.424  10.088
67838SOL    HW1 5353   4.667   5.504  10.101
67838SOL    HW2 5354   4.713   5.377  10.171
67839SOL     OW 5355   9.928  10.548  13.352
67839SOL    HW1 5356   9.917  10.480  13.286
67839SOL    HW2 5357   9.942  10.500  13.434
67840SOL     OW 5358   7.700   5.521  10.046
67840SOL    HW1 5359   7.608   5.548  10.045
67840SOL    HW2 5360   7.747   5.593  10.087
67841SOL     OW 5361  11.973  11.003   9.576
67841SOL    HW1 5362  11.981  11.036   9.486
67841SOL    HW2 5363  12.062  11.006   9.610
67842SOL     OW 5364   1.578   9.863   7.130
67842SOL    HW1 5365   1.645   9.795   7.133
67842SOL    HW2 5366   1.577   9.891   7.038
67843SOL     OW 5367  12.975   7.384   4.497
67843SOL    HW1 5368  12.886   7.381   4.532
67843SOL    HW2 5369  13.031   7.381   4.574
67844SOL     OW 5370   7.197   6.010  11.241
67844SOL    HW1 5371   7.119   6.036  11.290
67844SOL    HW2 5372   7.271   6.042  11.293
67845SOL     OW 5373  13.935   3.981  12.868
67845SOL    HW1 5374  13.957   4.010  12.779
67845SOL    HW2 5375  13.850   3.938  12.859
67846SOL     OW 5376  13.258   0.941  13.888
67846SOL    HW1 5377  13.341   0.978  13.859
67846SOL    HW2 5378  13.198   1.015  13.893
67847SOL     OW 5379  10.281   4.601   0.517
67847SOL    HW1 5380  10.353   4.641   0.469
67847SOL    HW2 5381  10.319   4.523   0.557
67848SOL     OW 5382  12.979   4.516  10.448
67848SOL    HW1 5383  12.940   4.454  10.387
67848SOL    HW2 5384  12.961   4.480  10.535
67849SOL     OW 5385  13.075  12.915   1.916
67849SOL    HW1 5386  12.999  12.933   1.861
67849SOL    HW2 5387  13.085  12.994   1.971
67850SOL     OW 5388   7.809   8.152   1.617
67850SOL    HW1 5389   7.719   8.178   1.632
67850SOL    HW2 5390   7.805   8.088   1.546
67851SOL     OW 5391   7.190   1.428  12.971
67851SOL    HW1 5392   7.242   1.448  13.049
67851SOL    HW2 5393   7.099   1.434  13.001
67852SOL     OW 5394   1.105   8.313  11.787
67852SOL    HW1 5395   1.160   8.380  11.746
67852SOL    HW2 5396   1.057   8.361  11.855
67853SOL     OW 5397   9.799   3.351  11.889
67853SOL    HW1 5398   9.735   3.399  11.836
67853SOL    HW2 5399   9.763   3.353  11.977
67854SOL     OW 5400  10.619  12.989   6.662
67854SOL    HW1 5401  10.575  13.052   6.719
67854SOL    HW2 5402  10.553  12.965   6.597
67855SOL     OW 5403   6.151  11.197   4.129
67855SOL    HW1 5404   6.167  11.211   4.223
67855SOL    HW2 5405   6.177  11.106   4.114
67856SOL     OW 5406   7.225  12.925   8.608
67856SOL    HW1 5407   7.158  12.973   8.559
67856SOL    HW2 5408   7.242  12.980   8.685
67857SOL     OW 5409  10.969   5.272  12.466
67857SOL    HW1 5410  10.926   5.225  12.395
67857SOL    HW2 5411  10.996   5.355  12.427
67858SOL     OW 5412  14.704   0.203  10.446
67858SOL    HW1 5413  14.788   0.240  10.421
67858SOL    HW2 5414  14.656   0.194  10.364
67859SOL     OW 5415   2.877   4.303   2.377
67859SOL    HW1 5416   2.813   4.368   2.348
67859SOL    HW2 5417   2.850   4.222   2.335
67860SOL     OW 5418   1.442  13.556   4.189
67860SOL    HW1 5419   1.428  13.619   4.261
67860SOL    HW2 5420   1.385  13.587   4.119
67861SOL     OW 5421   1.800   1.247   5.693
67861SOL    HW1 5422   1.867   1.241   5.624
67861SOL    HW2 5423   1.800   1.161   5.734
67862SOL     OW 5424   3.973  10.424  13.818
67862SOL    HW1 5425   3.895  10.478  13.823
67862SOL    HW2 5426   3.991  10.397  13.908
67863SOL     OW 5427  10.911   3.537   8.613
67863SOL    HW1 5428  10.948   3.553   8.526
67863SOL    HW2 5429  10.856   3.460   8.602
67864SOL     OW 5430   5.941  12.327  13.470
67864SOL    HW1 5431   5.902  12.314  13.556
67864SOL    HW2 5432   6.003  12.399  13.482
67865SOL     OW 5433   5.643   7.288   9.004
67865SOL    HW1 5434   5.728   7.323   9.031
67865SOL    HW2 5435   5.579   7.341   9.052
67866SOL     OW 5436  14.255   8.964   7.176
67866SOL    HW1 5437  14.214   8.957   7.090
67866SOL    HW2 5438  14.286   8.876   7.195
67867SOL     OW 5439   3.969  14.713   1.687
67867SOL    HW1 5440   3.892  14.754   1.646
67867SOL    HW2 5441   4.043  14.754   1.643
67868SOL     OW 5442   3.107   9.071   2.026
67868SOL    HW1 5443   3.011   9.074   2.025
67868SOL    HW2 5444   3.129   8.987   1.984
67869SOL     OW 5445   7.749   2.707   0.609
67869SOL    HW1 5446   7.779   2.711   0.518
67869SOL    HW2 5447   7.743   2.798   0.636
67870SOL     OW 5448   5.131   6.579  13.780
67870SOL    HW1 5449   5.036   6.577  13.776
67870SOL    HW2 5450   5.155   6.667  13.753
67871SOL     OW 5451   1.376   9.115   5.030
67871SOL    HW1 5452   1.448   9.170   5.003
67871SOL    HW2 5453   1.410   9.026   5.023
67872SOL     OW 5454  12.848  13.606   8.788
67872SOL    HW1 5455  12.856  13.621   8.882
67872SOL    HW2 5456  12.761  13.570   8.776
67873SOL     OW 5457   1.454   8.894   1.244
67873SOL    HW1 5458   1.433   8.983   1.218
67873SOL    HW2 5459   1.370   8.854   1.265
67874SOL     OW 5460   0.030   6.756   8.345
67874SOL    HW1 5461  14.815   6.761   8.382
67874SOL    HW2 5462   0.044   6.842   8.306
67875SOL     OW 5463   6.551   8.967   6.030
67875SOL    HW1 5464   6.514   8.920   5.955
67875SOL    HW2 5465   6.478   8.975   6.092
67876SOL     OW 5466  10.765   9.624   9.953
67876SOL    HW1 5467  10.732   9.537   9.973
67876SOL    HW2 5468  10.688   9.673   9.922
67877SOL     OW 5469  14.089   2.428   0.896
67877SOL    HW1 5470  14.146   2.361   0.933
67877SOL    HW2 5471  14.013   2.430   0.953
67878SOL     OW 5472  13.945   5.761  12.776
67878SOL    HW1 5473  13.869   5.779  12.720
67878SOL    HW2 5474  13.985   5.846  12.789
67879SOL     OW 5475   9.648   3.868   0.756
67879SOL    HW1 5476   9.555   3.886   0.742
67879SOL    HW2 5477   9.652   3.774   0.776
67880SOL     OW 5478   1.749   3.941   5.944
67880SOL    HW1 5479   1.843   3.959   5.946
67880SOL    HW2 5480   1.742   3.848   5.966
67881SOL     OW 5481   7.672   6.604   8.994
67881SOL    HW1 5482   7.707   6.683   9.036
67881SOL    HW2 5483   7.638   6.635   8.910
67882SOL     OW 5484   5.049   7.915  14.844
67882SOL    HW1 5485   5.137   7.891  14.816
67882SOL    HW2 5486   5.048   7.897   0.065
67883SOL     OW 5487  13.350   5.652  12.368
67883SOL    HW1 5488  13.371   5.589  12.300
67883SOL    HW2 5489  13.256   5.668  12.358
67884SOL     OW 5490   1.702   3.387   9.923
67884SOL    HW1 5491   1.718   3.361  10.014
67884SOL    HW2 5492   1.789   3.408   9.889
67885SOL     OW 5493   4.545  13.223  12.383
67885SOL    HW1 5494   4.603  13.289  12.419
67885SOL    HW2 5495   4.569  13.142  12.428
67886SOL     OW 5496  10.980  10.228   9.994
67886SOL    HW1 5497  11.007  10.141   9.963
67886SOL    HW2 5498  10.927  10.210  10.072
67887SOL     OW 5499   7.010  12.243  13.887
67887SOL    HW1 5500   6.955  12.298  13.944
67887SOL    HW2 5501   7.005  12.285  13.801
67888SOL     OW 5502  14.015   0.934   1.067
67888SOL    HW1 5503  13.991   0.940   1.159
67888SOL    HW2 5504  13.953   0.870   1.030
67889SOL     OW 5505   1.746   4.841   9.363
67889SOL    HW1 5506   1.740   4.867   9.271
67889SOL    HW2 5507   1.731   4.923   9.411
67890SOL     OW 5508   8.126  11.262   6.680
67890SOL    HW1 5509   8.121  11.207   6.602
67890SOL    HW2 5510   8.064  11.333   6.663
67891SOL     OW 5511   6.654   1.162   2.651
67891SOL    HW1 5512   6.712   1.234   2.627
67891SOL    HW2 5513   6.618   1.187   2.736
67892SOL     OW 5514  12.708   5.859   7.890
67892SOL    HW1 5515  12.634   5.801   7.869
67892SOL    HW2 5516  12.744   5.823   7.971
67893SOL     OW 5517   3.636   5.049  11.615
67893SOL    HW1 5518   3.610   5.141  11.617
67893SOL    HW2 5519   3.684   5.040  11.532
67894SOL     OW 5520   0.524   0.612   3.038
67894SOL    HW1 5521   0.443   0.645   3.077
67894SOL    HW2 5522   0.496   0.561   2.962
67895SOL     OW 5523   9.959   0.660   8.901
67895SOL    HW1 5524   9.891   0.704   8.952
67895SOL    HW2 5525   9.979   0.580   8.950
67896SOL     OW 5526   2.177   0.487  12.968
67896SOL    HW1 5527   2.180   0.546  12.893
67896SOL    HW2 5528   2.212   0.404  12.935
67897SOL     OW 5529   7.877  10.984   8.677
67897SOL    HW1 5530   7.810  10.970   8.744
67897SOL    HW2 5531   7.933  10.906   8.683
67898SOL     OW 5532  11.776   1.885   2.486
67898SOL    HW1 5533  11.785   1.799   2.527
67898SOL    HW2 5534  11.726   1.868   2.406
67899SOL     OW 5535   2.413   6.246   5.508
67899SOL    HW1 5536   2.361   6.208   5.438
67899SOL    HW2 5537   2.434   6.334   5.477
67900SOL     OW 5538  11.568   0.536   6.157
67900SOL    HW1 5539  11.646   0.489   6.187
67900SOL    HW2 5540  11.581   0.548   6.063
67901SOL     OW 5541  14.033   6.257   1.009
67901SOL    HW1 5542  14.082   6.275   1.089
67901SOL    HW2 5543  14.068   6.173   0.978
67902SOL     OW 5544   9.148   5.521   9.500
67902SOL    HW1 5545   9.242   5.535   9.514
67902SOL    HW2 5546   9.131   5.558   9.413
67903SOL     OW 5547   1.281  13.372   7.604
67903SOL    HW1 5548   1.223  13.446   7.622
67903SOL    HW2 5549   1.353  13.410   7.553
67904SOL     OW 5550   2.436  13.915   8.941
67904SOL    HW1 5551   2.498  13.866   8.995
67904SOL    HW2 5552   2.378  13.849   8.904
67905SOL     OW 5553   5.952   7.117   9.383
67905SOL    HW1 5554   6.013   7.154   9.318
67905SOL    HW2 5555   5.935   7.190   9.443
67906SOL     OW 5556   4.360   9.755   7.489
67906SOL    HW1 5557   4.335   9.669   7.524
67906SOL    HW2 5558   4.277   9.804   7.486
67907SOL     OW 5559  12.249  14.166   5.332
67907SOL    HW1 5560  12.295  14.249   5.337
67907SOL    HW2 5561  12.165  14.187   5.290
67908SOL     OW 5562   4.997   0.307   3.192
67908SOL    HW1 5563   4.922   0.365   3.178
67908SOL    HW2 5564   5.038   0.300   3.106
67909SOL     OW 5565   9.201   4.273   4.552
67909SOL    HW1 5566   9.172   4.222   4.476
67909SOL    HW2 5567   9.190   4.364   4.524
67910SOL     OW 5568   7.157  14.505  11.345
67910SOL    HW1 5569   7.101  14.454  11.404
67910SOL    HW2 5570   7.188  14.578  11.399
67911SOL     OW 5571   8.474   0.919   7.490
67911SOL    HW1 5572   8.510   0.959   7.411
67911SOL    HW2 5573   8.550   0.878   7.533
67912SOL     OW 5574  12.771   0.715   5.934
67912SOL    HW1 5575  12.778   0.756   6.021
67912SOL    HW2 5576  12.800   0.625   5.947
67913SOL     OW 5577   4.390   4.004   4.300
67913SOL    HW1 5578   4.322   4.038   4.358
67913SOL    HW2 5579   4.360   4.027   4.212
67914SOL     OW 5580   7.284   0.414   3.349
67914SOL    HW1 5581   7.272   0.349   3.418
67914SOL    HW2 5582   7.318   0.364   3.274
67915SOL     OW 5583   5.716   2.132  11.216
67915SOL    HW1 5584   5.761   2.048  11.206
67915SOL    HW2 5585   5.628   2.116  11.180
67916SOL     OW 5586   9.403   8.979   2.226
67916SOL    HW1 5587   9.486   8.947   2.263
67916SOL    HW2 5588   9.372   9.045   2.287
67917SOL     OW 5589   8.116  10.523   1.597
67917SOL    HW1 5590   8.026  10.506   1.569
67917SOL    HW2 5591   8.123  10.619   1.598
67918SOL     OW 5592   3.344  11.599   4.885
67918SOL    HW1 5593   3.356  11.523   4.827
67918SOL    HW2 5594   3.410  11.662   4.856
67919SOL     OW 5595   4.957   8.802   3.633
67919SOL    HW1 5596   4.881   8.751   3.607
67919SOL    HW2 5597   4.942   8.822   3.726
67920SOL     OW 5598   5.405   6.794   3.587
67920SOL    HW1 5599   5.481   6.738   3.571
67920SOL    HW2 5600   5.403   6.853   3.512
67921SOL     OW 5601   0.163   4.527   3.760
67921SOL    HW1 5602   0.237   4.574   3.721
67921SOL    HW2 5603   0.203   4.454   3.807
67922SOL     OW 5604   4.564  12.952   1.305
67922SOL    HW1 5605   4.646  12.921   1.266
67922SOL    HW2 5606   4.585  13.036   1.345
67923SOL     OW 5607   2.411   0.258  13.388
67923SOL    HW1 5608   2.424   0.241  13.482
67923SOL    HW2 5609   2.354   0.334  13.385
67924SOL     OW 5610   7.339   7.135  10.651
67924SOL    HW1 5611   7.365   7.119  10.742
67924SOL    HW2 5612   7.246   7.115  10.648
67925SOL     OW 5613   3.927   5.412   5.728
67925SOL    HW1 5614   4.001   5.360   5.757
67925SOL    HW2 5615   3.926   5.400   5.633
67926SOL     OW 5616   5.378   3.684   2.083
67926SOL    HW1 5617   5.458   3.637   2.106
67926SOL    HW2 5618   5.309   3.617   2.083
67927SOL     OW 5619  13.173  11.870  12.835
67927SOL    HW1 5620  13.243  11.920  12.793
67927SOL    HW2 5621  13.143  11.810  12.767
67928SOL     OW 5622   1.711   3.779   0.613
67928SOL    HW1 5623   1.620   3.807   0.623
67928SOL    HW2 5624   1.762   3.859   0.622
67929SOL     OW 5625   2.206   5.611   3.403
67929SOL    HW1 5626   2.113   5.589   3.411
67929SOL    HW2 5627   2.206   5.702   3.373
67930SOL     OW 5628   8.612   6.212   8.811
67930SOL    HW1 5629   8.580   6.288   8.860
67930SOL    HW2 5630   8.704   6.203   8.838
67931SOL     OW 5631   4.603   9.639   2.904
67931SOL    HW1 5632   4.547   9.561   2.897
67931SOL    HW2 5633   4.665   9.617   2.973
67932SOL     OW 5634  13.794   4.404   2.680
67932SOL    HW1 5635  13.745   4.326   2.653
67932SOL    HW2 5636  13.727   4.465   2.710
67933SOL     OW 5637   8.500   7.782  14.200
67933SOL    HW1 5638   8.490   7.767  14.106
67933SOL    HW2 5639   8.444   7.857  14.219
67934SOL     OW 5640   6.794  10.076  12.829
67934SOL    HW1 5641   6.815  10.168  12.816
67934SOL    HW2 5642   6.782  10.067  12.924
67935SOL     OW 5643   5.587   1.817   4.853
67935SOL    HW1 5644   5.605   1.904   4.890
67935SOL    HW2 5645   5.501   1.794   4.889
67936SOL     OW 5646  12.378   6.511  10.010
67936SOL    HW1 5647  12.299   6.548   9.972
67936SOL    HW2 5648  12.407   6.576  10.074
67937SOL     OW 5649   3.015   7.029   0.850
67937SOL    HW1 5650   2.996   6.949   0.899
67937SOL    HW2 5651   3.007   7.003   0.758
67938SOL     OW 5652  11.352  14.509  11.579
67938SOL    HW1 5653  11.442  14.515  11.611
67938SOL    HW2 5654  11.324  14.600  11.567
67939SOL     OW 5655   9.204   1.892   8.849
67939SOL    HW1 5656   9.206   1.838   8.771
67939SOL    HW2 5657   9.241   1.836   8.918
67940SOL     OW 5658  10.330   4.132  10.841
67940SOL    HW1 5659  10.403   4.170  10.793
67940SOL    HW2 5660  10.296   4.065  10.782
67941SOL     OW 5661  11.658   7.254  11.181
67941SOL    HW1 5662  11.742   7.284  11.215
67941SOL    HW2 5663  11.601   7.248  11.258
67942SOL     OW 5664   5.273   9.571  14.603
67942SOL    HW1 5665   5.217   9.616  14.539
67942SOL    HW2 5666   5.329   9.514  14.551
67943SOL     OW 5667   2.758   5.893  13.127
67943SOL    HW1 5668   2.684   5.920  13.181
67943SOL    HW2 5669   2.732   5.915  13.037
67944SOL     OW 5670   4.106   5.006   0.975
67944SOL    HW1 5671   4.097   5.039   0.886
67944SOL    HW2 5672   4.183   5.052   1.010
67945SOL     OW 5673  14.090  13.194   0.699
67945SOL    HW1 5674  14.085  13.105   0.734
67945SOL    HW2 5675  14.000  13.216   0.676
67946SOL     OW 5676   8.353   3.411   6.470
67946SOL    HW1 5677   8.283   3.431   6.408
67946SOL    HW2 5678   8.432   3.448   6.430
67947SOL     OW 5679   4.035   4.378   7.229
67947SOL    HW1 5680   4.100   4.318   7.191
67947SOL    HW2 5681   4.050   4.461   7.184
67948SOL     OW 5682   2.102   6.990  10.574
67948SOL    HW1 5683   2.044   6.946  10.511
67948SOL    HW2 5684   2.129   6.920  10.634
67949SOL     OW 5685   5.448  11.287   8.210
67949SOL    HW1 5686   5.477  11.238   8.133
67949SOL    HW2 5687   5.353  11.283   8.207
67950SOL     OW 5688   8.081  12.285   4.682
67950SOL    HW1 5689   8.141  12.246   4.620
67950SOL    HW2 5690   8.107  12.249   4.767
67951SOL     OW 5691   0.121   2.198  14.473
67951SOL    HW1 5692   0.161   2.131  14.418
67951SOL    HW2 5693   0.079   2.258  14.412
67952SOL     OW 5694  13.260  10.109  13.218
67952SOL    HW1 5695  13.290  10.024  13.187
67952SOL    HW2 5696  13.299  10.118  13.306
67953SOL     OW 5697  10.752   2.779   1.902
67953SOL    HW1 5698  10.761   2.794   1.808
67953SOL    HW2 5699  10.669   2.733   1.912
67954SOL     OW 5700   6.857  11.660   1.734
67954SOL    HW1 5701   6.853  11.721   1.660
67954SOL    HW2 5702   6.768  11.662   1.772
67955SOL     OW 5703  12.402   2.294   9.305
67955SOL    HW1 5704  12.410   2.317   9.213
67955SOL    HW2 5705  12.417   2.376   9.352
67956SOL     OW 5706  10.537   1.202   9.214
67956SOL    HW1 5707  10.562   1.294   9.212
67956SOL    HW2 5708  10.454   1.198   9.168
67957SOL     OW 5709  13.642   7.126   0.399
67957SOL    HW1 5710  13.681   7.211   0.377
67957SOL    HW2 5711  13.563   7.148   0.449
67958SOL     OW 5712   4.476  11.063  10.191
67958SOL    HW1 5713   4.388  11.026  10.194
67958SOL    HW2 5714   4.530  10.994  10.154
67959SOL     OW 5715   1.664   9.597   9.688
67959SOL    HW1 5716   1.578   9.639   9.687
67959SOL    HW2 5717   1.690   9.597   9.781
67960SOL     OW 5718  10.848   4.184   6.659
67960SOL    HW1 5719  10.893   4.216   6.737
67960SOL    HW2 5720  10.796   4.109   6.689
67961SOL     OW 5721  14.819  10.972   0.421
67961SOL    HW1 5722  14.760  10.932   0.357
67961SOL    HW2 5723  14.853  10.899   0.472
67962SOL     OW 5724  11.500   4.215  14.414
67962SOL    HW1 5725  11.432   4.270  14.375
67962SOL    HW2 5726  11.504   4.138  14.357
67963SOL     OW 5727  13.223   2.829   0.102
67963SOL    HW1 5728  13.281   2.816   0.027
67963SOL    HW2 5729  13.222   2.923   0.116
67964SOL     OW 5730   8.402   1.552   5.135
67964SOL    HW1 5731   8.371   1.528   5.048
67964SOL    HW2 5732   8.393   1.471   5.186
67965SOL     OW 5733   1.237   0.509   9.762
67965SOL    HW1 5734   1.214   0.448   9.692
67965SOL    HW2 5735   1.296   0.459   9.818
67966SOL     OW 5736   5.812   7.559   1.434
67966SOL    HW1 5737   5.810   7.654   1.420
67966SOL    HW2 5738   5.901   7.541   1.463
67967SOL     OW 5739   4.194   5.657  12.533
67967SOL    HW1 5740   4.246   5.697  12.463
67967SOL    HW2 5741   4.245   5.675  12.612
67968SOL     OW 5742   5.358  14.098  12.680
67968SOL    HW1 5743   5.266  14.113  12.655
67968SOL    HW2 5744   5.381  14.173  12.734
67969SOL     OW 5745   2.261  11.535   0.581
67969SOL    HW1 5746   2.281  11.618   0.538
67969SOL    HW2 5747   2.255  11.557   0.674
67970SOL     OW 5748   0.533  11.569  10.543
67970SOL    HW1 5749   0.497  11.652  10.511
67970SOL    HW2 5750   0.457  11.515  10.561
67971SOL     OW 5751   4.321   0.931  10.493
67971SOL    HW1 5752   4.287   0.889  10.414
67971SOL    HW2 5753   4.242   0.958  10.541
67972SOL     OW 5754  14.555   2.717   8.145
67972SOL    HW1 5755  14.644   2.750   8.133
67972SOL    HW2 5756  14.553   2.634   8.098
67973SOL     OW 5757   2.698  12.383   7.326
67973SOL    HW1 5758   2.619  12.433   7.306
67973SOL    HW2 5759   2.669  12.312   7.383
67974SOL     OW 5760   6.844   6.108   1.450
67974SOL    HW1 5761   6.751   6.118   1.434
67974SOL    HW2 5762   6.850   6.077   1.540
67975SOL     OW 5763   4.469  12.082  14.648
67975SOL    HW1 5764   4.471  12.057  14.740
67975SOL    HW2 5765   4.440  12.174  14.648
67976SOL     OW 5766   5.725   7.685   5.457
67976SOL    HW1 5767   5.745   7.698   5.364
67976SOL    HW2 5768   5.689   7.769   5.485
67977SOL     OW 5769  11.225   1.023   7.012
67977SOL    HW1 5770  11.139   1.034   7.053
67977SOL    HW2 5771  11.212   0.951   6.950
67978SOL     OW 5772   2.940   6.982  11.937
67978SOL    HW1 5773   2.886   6.966  12.014
67978SOL    HW2 5774   2.963   6.895  11.905
67979SOL     OW 5775   4.631   0.432   8.371
67979SOL    HW1 5776   4.646   0.362   8.435
67979SOL    HW2 5777   4.693   0.501   8.395
67980SOL     OW 5778  14.038  14.825  13.671
67980SOL    HW1 5779  14.068  14.832  13.581
67980SOL    HW2 5780  14.036  14.732  13.690
67981SOL     OW 5781  10.197   2.260  12.414
67981SOL    HW1 5782  10.171   2.278  12.324
67981SOL    HW2 5783  10.152   2.179  12.436
67982SOL     OW 5784  13.089  14.123   0.397
67982SOL    HW1 5785  13.185  14.129   0.400
67982SOL    HW2 5786  13.070  14.037   0.435
67983SOL     OW 5787   6.676   8.760   1.895
67983SOL    HW1 5788   6.668   8.855   1.884
67983SOL    HW2 5789   6.737   8.750   1.968
67984SOL     OW 5790   5.787   2.680   8.430
67984SOL    HW1 5791   5.825   2.698   8.516
67984SOL    HW2 5792   5.834   2.604   8.398
67985SOL     OW 5793   1.514   5.282   5.299
67985SOL    HW1 5794   1.464   5.222   5.244
67985SOL    HW2 5795   1.589   5.307   5.245
67986SOL     OW 5796   1.718   0.231  10.291
67986SOL    HW1 5797   1.797   0.283  10.309
67986SOL    HW2 5798   1.709   0.174  10.367
67987SOL     OW 5799  11.950   6.132   5.562
67987SOL    HW1 5800  11.871   6.091   5.596
67987SOL    HW2 5801  12.015   6.062   5.563
67988SOL     OW 5802   7.270  14.796   7.215
67988SOL    HW1 5803   7.226  14.846   7.284
67988SOL    HW2 5804   7.363  14.806   7.234
67989SOL     OW 5805   5.789  10.317   1.725
67989SOL    HW1 5806   5.784  10.412   1.712
67989SOL    HW2 5807   5.882  10.298   1.724
67990SOL     OW 5808   4.978  13.668  13.331
67990SOL    HW1 5809   5.018  13.677  13.417
67990SOL    HW2 5810   4.913  13.598  13.342
67991SOL     OW 5811  12.135  11.482   0.397
67991SOL    HW1 5812  12.065  11.452   0.455
67991SOL    HW2 5813  12.189  11.539   0.451
67992SOL     OW 5814  14.559   7.012   0.921
67992SOL    HW1 5815  14.635   7.056   0.884
67992SOL    HW2 5816  14.485   7.069   0.901
67993SOL     OW 5817   0.215   4.089   2.950
67993SOL    HW1 5818   0.172   4.108   3.033
67993SOL    HW2 5819   0.178   4.005   2.922
67994SOL     OW 5820   2.489   3.124   1.353
67994SOL    HW1 5821   2.543   3.196   1.386
67994SOL    HW2 5822   2.401   3.143   1.384
67995SOL     OW 5823  10.103   9.468   4.995
67995SOL    HW1 5824  10.095   9.511   5.080
67995SOL    HW2 5825  10.044   9.517   4.938
67996SOL     OW 5826   8.846   3.900   8.620
67996SOL    HW1 5827   8.910   3.972   8.616
67996SOL    HW2 5828   8.830   3.888   8.714
67997SOL     OW 5829  11.774   1.510   4.715
67997SOL    HW1 5830  11.694   1.499   4.766
67997SOL    HW2 5831  11.789   1.604   4.714
67998SOL     OW 5832   4.906  14.804   6.506
67998SOL    HW1 5833   4.866   0.017   6.517
67998SOL    HW2 5834   4.913  14.793   6.411
67999SOL     OW 5835   4.524  10.199   7.146
67999SOL    HW1 5836   4.498  10.273   7.091
67999SOL    HW2 5837   4.558  10.135   7.084
68000SOL     OW 5838   0.285  10.889  14.850
68000SOL    HW1 5839   0.331  10.838  14.784
68000SOL    HW2 5840   0.323  10.861   0.060
68001SOL     OW 5841   6.119   5.086   5.372
68001SOL    HW1 5842   6.056   5.066   5.442
68001SOL    HW2 5843   6.091   5.031   5.299
68002SOL     OW 5844   6.175   7.821   7.016
68002SOL    HW1 5845   6.210   7.784   6.935
68002SOL    HW2 5846   6.188   7.915   7.007
68003SOL     OW 5847   9.550   6.660  11.590
68003SOL    HW1 5848   9.559   6.612  11.673
68003SOL    HW2 5849   9.640   6.674  11.561
68004SOL     OW 5850   2.831   1.898   1.421
68004SOL    HW1 5851   2.774   1.850   1.361
68004SOL    HW2 5852   2.909   1.919   1.368
68005SOL     OW 5853   0.901   2.883   4.450
68005SOL    HW1 5854   0.973   2.829   4.482
68005SOL    HW2 5855   0.921   2.901   4.359
68006SOL     OW 5856  10.221   4.863   6.897
68006SOL    HW1 5857  10.169   4.840   6.974
68006SOL    HW2 5858  10.160   4.911   6.841
68007SOL     OW 5859  12.142  11.334   7.784
68007SOL    HW1 5860  12.230  11.310   7.756
68007SOL    HW2 5861  12.094  11.350   7.702
68008SOL     OW 5862   7.533   2.727  11.264
68008SOL    HW1 5863   7.455   2.779  11.283
68008SOL    HW2 5864   7.510   2.638  11.292
68009SOL     OW 5865   5.928   1.299   0.879
68009SOL    HW1 5866   5.919   1.382   0.927
68009SOL    HW2 5867   6.022   1.291   0.862
68010SOL     OW 5868   6.830   7.692   0.164
68010SOL    HW1 5869   6.837   7.646   0.081
68010SOL    HW2 5870   6.751   7.656   0.205
68011SOL     OW 5871  13.888   7.541  13.753
68011SOL    HW1 5872  13.846   7.529  13.668
68011SOL    HW2 5873  13.941   7.621  13.742
68012SOL     OW 5874   5.509   5.931   6.009
68012SOL    HW1 5875   5.539   5.879   5.935
68012SOL    HW2 5876   5.536   6.020   5.990
68013SOL     OW 5877   4.368   9.449  10.518
68013SOL    HW1 5878   4.283   9.406  10.506
68013SOL    HW2 5879   4.381   9.497  10.436
68014SOL     OW 5880   2.988   7.719  11.127
68014SOL    HW1 5881   2.905   7.738  11.083
68014SOL    HW2 5882   3.013   7.633  11.095
68015SOL     OW 5883   9.953   6.146  14.652
68015SOL    HW1 5884   9.930   6.161  14.561
68015SOL    HW2 5885   9.992   6.229  14.681
68016SOL     OW 5886  12.916   2.963  14.047
68016SOL    HW1 5887  13.005   2.949  14.079
68016SOL    HW2 5888  12.886   3.042  14.092
68017SOL     OW 5889   8.546   0.408  14.671
68017SOL    HW1 5890   8.599   0.408  14.751
68017SOL    HW2 5891   8.591   0.468  14.612
68018SOL     OW 5892  11.177  12.055  11.695
68018SOL    HW1 5893  11.245  11.992  11.671
68018SOL    HW2 5894  11.173  12.050  11.791
68019SOL     OW 5895  14.845   2.810  10.723
68019SOL    HW1 5896  14.804   2.892  10.749
68019SOL    HW2 5897  14.811   2.792  10.636
68020SOL     OW 5898   6.536   8.597   7.379
68020SOL    HW1 5899   6.593   8.629   7.448
68020SOL    HW2 5900   6.592   8.540   7.326
68021SOL     OW 5901   3.181  10.725   1.573
68021SOL    HW1 5902   3.141  10.752   1.490
68021SOL    HW2 5903   3.205  10.807   1.616
68022SOL     OW 5904   6.312   8.778  14.847
68022SOL    HW1 5905   6.402   8.797   0.000
68022SOL    HW2 5906   6.297   8.688   0.003
68023SOL     OW 5907   4.218   7.805   6.801
68023SOL    HW1 5908   4.301   7.760   6.786
68023SOL    HW2 5909   4.160   7.738   6.836
68024SOL     OW 5910   1.535   6.491  11.667
68024SOL    HW1 5911   1.585   6.410  11.658
68024SOL    HW2 5912   1.472   6.473  11.737
68025SOL     OW 5913  13.044   3.848  14.060
68025SOL    HW1 5914  13.005   3.882  14.140
68025SOL    HW2 5915  12.993   3.770  14.039
68026SOL     OW 5916  11.129  11.434   8.937
68026SOL    HW1 5917  11.058  11.464   8.880
68026SOL    HW2 5918  11.208  11.469   8.898
68027SOL     OW 5919   1.570   9.938  10.018
68027SOL    HW1 5920   1.475   9.937  10.022
68027SOL    HW2 5921   1.591   9.910   9.929
68028SOL     OW 5922  13.862  12.021   3.434
68028SOL    HW1 5923  13.859  12.056   3.345
68028SOL    HW2 5924  13.924  12.078   3.480
68029SOL     OW 5925   4.887   4.571   9.736
68029SOL    HW1 5926   4.848   4.631   9.672
68029SOL    HW2 5927   4.933   4.629   9.798
68030SOL     OW 5928   8.281  11.389   1.128
68030SOL    HW1 5929   8.246  11.304   1.103
68030SOL    HW2 5930   8.272  11.443   1.049
68031SOL     OW 5931   3.840   7.561  10.853
68031SOL    HW1 5932   3.826   7.520  10.768
68031SOL    HW2 5933   3.756   7.603  10.873
68032SOL     OW 5934  14.595   9.575  13.599
68032SOL    HW1 5935  14.656   9.585  13.526
68032SOL    HW2 5936  14.509   9.569  13.558
68033SOL     OW 5937   9.418  12.233   8.687
68033SOL    HW1 5938   9.383  12.169   8.749
68033SOL    HW2 5939   9.418  12.315   8.735
68034SOL     OW 5940   1.641   3.985   1.977
68034SOL    HW1 5941   1.554   3.986   1.937
68034SOL    HW2 5942   1.689   4.055   1.932
68035SOL     OW 5943  11.501  14.214   3.123
68035SOL    HW1 5944  11.502  14.279   3.193
68035SOL    HW2 5945  11.555  14.142   3.156
68036SOL     OW 5946   8.121   2.914  10.817
68036SOL    HW1 5947   8.200   2.871  10.782
68036SOL    HW2 5948   8.056   2.844  10.822
68037SOL     OW 5949  14.444   4.069   7.207
68037SOL    HW1 5950  14.392   4.148   7.221
68037SOL    HW2 5951  14.520   4.099   7.157
68038SOL     OW 5952  10.035   9.038   3.121
68038SOL    HW1 5953  10.117   9.033   3.072
68038SOL    HW2 5954  10.006   8.947   3.128
68039SOL     OW 5955   8.760  14.645   0.913
68039SOL    HW1 5956   8.740  14.578   0.978
68039SOL    HW2 5957   8.855  14.644   0.905
68040SOL     OW 5958   6.730  11.746   0.170
68040SOL    HW1 5959   6.789  11.703   0.108
68040SOL    HW2 5960   6.655  11.687   0.178
68041SOL     OW 5961  12.119   1.510  11.193
68041SOL    HW1 5962  12.211   1.485  11.203
68041SOL    HW2 5963  12.090   1.462  11.116
68042SOL     OW 5964   6.999  11.818   1.279
68042SOL    HW1 5965   7.037  11.741   1.321
68042SOL    HW2 5966   7.066  11.885   1.286
68043SOL     OW 5967   2.395  12.833  13.587
68043SOL    HW1 5968   2.373  12.927  13.586
68043SOL    HW2 5969   2.482  12.830  13.626
68044SOL     OW 5970   3.866   4.461  10.618
68044SOL    HW1 5971   3.942   4.404  10.603
68044SOL    HW2 5972   3.879   4.495  10.706
68045SOL     OW 5973  11.023   4.086   1.169
68045SOL    HW1 5974  11.105   4.083   1.121
68045SOL    HW2 5975  10.988   4.173   1.152
68046SOL     OW 5976  14.598   4.887   5.838
68046SOL    HW1 5977  14.518   4.882   5.890
68046SOL    HW2 5978  14.645   4.806   5.859
68047SOL     OW 5979   8.733   6.093   5.461
68047SOL    HW1 5980   8.810   6.139   5.495
68047SOL    HW2 5981   8.722   6.126   5.372
68048SOL     OW 5982   2.939   1.167   2.230
68048SOL    HW1 5983   2.862   1.178   2.285
68048SOL    HW2 5984   2.959   1.255   2.198
68049SOL     OW 5985  14.493   7.692   8.061
68049SOL    HW1 5986  14.461   7.780   8.041
68049SOL    HW2 5987  14.585   7.694   8.034
68050SOL     OW 5988  11.737  13.073   6.244
68050SOL    HW1 5989  11.699  13.080   6.157
68050SOL    HW2 5990  11.704  12.989   6.277
68051SOL     OW 5991   5.530  13.083  14.163
68051SOL    HW1 5992   5.498  13.037  14.241
68051SOL    HW2 5993   5.455  13.086  14.104
68052SOL     OW 5994   5.187   3.228  11.956
68052SOL    HW1 5995   5.104   3.203  11.997
68052SOL    HW2 5996   5.245   3.248  12.029
68053SOL     OW 5997   8.392  12.065   3.751
68053SOL    HW1 5998   8.370  12.017   3.671
68053SOL    HW2 5999   8.398  12.156   3.722
68054SOL     OW 6000   4.112   3.681   6.274
68054SOL    HW1 6001   4.093   3.682   6.180
68054SOL    HW2 6002   4.202   3.712   6.281
68055SOL     OW 6003  12.936   0.102   9.347
68055SOL    HW1 6004  12.931   0.075   9.438
68055SOL    HW2 6005  12.849   0.134   9.326
68056SOL     OW 6006   8.881   2.972   3.150
68056SOL    HW1 6007   8.971   2.963   3.118
68056SOL    HW2 6008   8.851   3.056   3.115
68057SOL     OW 6009  12.289   2.410  12.654
68057SOL    HW1 6010  12.321   2.494  12.687
68057SOL    HW2 6011  12.364   2.372  12.608
68058SOL     OW 6012   5.798   6.128   4.796
68058SOL    HW1 6013   5.888   6.147   4.823
68058SOL    HW2 6014   5.806   6.049   4.742
68059SOL     OW 6015  14.558   1.504  13.677
68059SOL    HW1 6016  14.550   1.525  13.770
68059SOL    HW2 6017  14.579   1.410  13.676
68060SOL     OW 6018   0.144  11.078   2.570
68060SOL    HW1 6019   0.202  11.006   2.593
68060SOL    HW2 6020   0.083  11.086   2.643
68061SOL     OW 6021  13.887   1.146   4.781
68061SOL    HW1 6022  13.887   1.068   4.836
68061SOL    HW2 6023  13.858   1.115   4.695
68062SOL     OW 6024   5.450   2.522  11.192
68062SOL    HW1 6025   5.434   2.522  11.098
68062SOL    HW2 6026   5.544   2.538  11.200
68063SOL     OW 6027   9.105   2.863  10.134
68063SOL    HW1 6028   9.117   2.879  10.228
68063SOL    HW2 6029   9.151   2.781  10.118
68064SOL     OW 6030   0.014   9.740   3.032
68064SOL    HW1 6031   0.053   9.743   2.945
68064SOL    HW2 6032   0.072   9.793   3.086
68065SOL     OW 6033  11.312   4.310  11.313
68065SOL    HW1 6034  11.349   4.358  11.239
68065SOL    HW2 6035  11.291   4.378  11.377
68066SOL     OW 6036   7.641   9.218   7.133
68066SOL    HW1 6037   7.696   9.202   7.209
68066SOL    HW2 6038   7.702   9.246   7.064
68067SOL     OW 6039   1.193   6.894   1.866
68067SOL    HW1 6040   1.253   6.917   1.795
68067SOL    HW2 6041   1.162   6.806   1.844
68068SOL     OW 6042   4.013  10.618  14.533
68068SOL    HW1 6043   3.948  10.611  14.603
68068SOL    HW2 6044   4.083  10.671  14.571
68069SOL     OW 6045  13.764   1.104  12.683
68069SOL    HW1 6046  13.758   1.059  12.599
68069SOL    HW2 6047  13.674   1.106  12.715
68070SOL     OW 6048  11.653  14.096   6.318
68070SOL    HW1 6049  11.694  14.095   6.232
68070SOL    HW2 6050  11.687  14.017   6.361
68071SOL     OW 6051   3.519  14.095   0.609
68071SOL    HW1 6052   3.532  14.007   0.573
68071SOL    HW2 6053   3.435  14.124   0.572
68072SOL     OW 6054   9.880   0.830  14.471
68072SOL    HW1 6055   9.821   0.768  14.514
68072SOL    HW2 6056   9.826   0.871  14.403
68073SOL     OW 6057   2.864  12.788  12.057
68073SOL    HW1 6058   2.928  12.758  12.122
68073SOL    HW2 6059   2.915  12.797  11.976
68074SOL     OW 6060  13.554   6.704   2.242
68074SOL    HW1 6061  13.574   6.629   2.187
68074SOL    HW2 6062  13.470   6.736   2.208
68075SOL     OW 6063  14.823  10.633   1.962
68075SOL    HW1 6064  14.823  10.693   2.037
68075SOL    HW2 6065   0.009  10.562   1.988
68076SOL     OW 6066   1.537   3.827  14.551
68076SOL    HW1 6067   1.467   3.888  14.572
68076SOL    HW2 6068   1.585   3.817  14.634
68077SOL     OW 6069   5.459  12.021  11.313
68077SOL    HW1 6070   5.423  12.109  11.321
68077SOL    HW2 6071   5.382  11.964  11.305
68078SOL     OW 6072   1.812   0.965  12.578
68078SOL    HW1 6073   1.718   0.978  12.588
68078SOL    HW2 6074   1.836   1.014  12.500
68079SOL     OW 6075   9.707   5.526   9.148
68079SOL    HW1 6076   9.615   5.530   9.172
68079SOL    HW2 6077   9.736   5.617   9.152
68080SOL     OW 6078   8.919   6.471  10.986
68080SOL    HW1 6079   8.915   6.426  10.901
68080SOL    HW2 6080   8.835   6.516  10.994
68081SOL     OW 6081   7.242  13.033   5.638
68081SOL    HW1 6082   7.218  12.989   5.556
68081SOL    HW2 6083   7.250  13.125   5.614
68082SOL     OW 6084  11.016  13.054  13.980
68082SOL    HW1 6085  10.940  13.106  14.006
68082SOL    HW2 6086  11.067  13.113  13.925
68083SOL     OW 6087  12.107  13.009  11.067
68083SOL    HW1 6088  12.074  12.993  10.979
68083SOL    HW2 6089  12.049  12.960  11.125
68084SOL     OW 6090   8.966   1.100   8.135
68084SOL    HW1 6091   8.875   1.087   8.107
68084SOL    HW2 6092   8.985   1.025   8.191
68085SOL     OW 6093   0.901   9.282   6.293
68085SOL    HW1 6094   0.965   9.248   6.231
68085SOL    HW2 6095   0.821   9.291   6.243
68086SOL     OW 6096   5.626  13.326  11.797
68086SOL    HW1 6097   5.657  13.250  11.846
68086SOL    HW2 6098   5.543  13.349  11.838
68087SOL     OW 6099  10.627   9.662   4.891
68087SOL    HW1 6100  10.551   9.666   4.949
68087SOL    HW2 6101  10.593   9.625   4.810
68088SOL     OW 6102  12.415   0.565   9.725
68088SOL    HW1 6103  12.423   0.654   9.761
68088SOL    HW2 6104  12.477   0.562   9.652
68089SOL     OW 6105  14.034   7.495   6.767
68089SOL    HW1 6106  14.123   7.508   6.734
68089SOL    HW2 6107  14.041   7.505   6.861
68090SOL     OW 6108   8.661  11.088   6.139
68090SOL    HW1 6109   8.577  11.058   6.174
68090SOL    HW2 6110   8.724  11.024   6.170
68091SOL     OW 6111   5.446  10.478   0.781
68091SOL    HW1 6112   5.514  10.531   0.739
68091SOL    HW2 6113   5.390  10.542   0.825
68092SOL     OW 6114   9.810  11.519  11.204
68092SOL    HW1 6115   9.786  11.594  11.258
68092SOL    HW2 6116   9.802  11.444  11.263
68093SOL     OW 6117  12.024   7.669   2.127
68093SOL    HW1 6118  12.030   7.703   2.217
68093SOL    HW2 6119  11.949   7.714   2.089
68094SOL     OW 6120   3.950  13.105   5.523
68094SOL    HW1 6121   4.045  13.091   5.532
68094SOL    HW2 6122   3.933  13.188   5.567
68095SOL     OW 6123   3.802  14.511  13.600
68095SOL    HW1 6124   3.719  14.503  13.553
68095SOL    HW2 6125   3.858  14.443  13.562
68096SOL     OW 6126   2.663   8.541  14.021
68096SOL    HW1 6127   2.657   8.512  14.112
68096SOL    HW2 6128   2.573   8.541  13.990
68097SOL     OW 6129   3.242   5.460   8.511
68097SOL    HW1 6130   3.174   5.515   8.472
68097SOL    HW2 6131   3.224   5.373   8.476
68098SOL     OW 6132   4.144  12.150   8.796
68098SOL    HW1 6133   4.094  12.231   8.782
68098SOL    HW2 6134   4.078  12.086   8.821
68099SOL     OW 6135  12.665  11.540   6.684
68099SOL    HW1 6136  12.676  11.470   6.619
68099SOL    HW2 6137  12.571  11.543   6.702
68100SOL     OW 6138  10.211   8.987   0.999
68100SOL    HW1 6139  10.193   8.893   0.992
68100SOL    HW2 6140  10.306   8.992   1.010
68101SOL     OW 6141  13.726   6.747  12.033
68101SOL    HW1 6142  13.679   6.779  11.956
68101SOL    HW2 6143  13.794   6.690  11.997
68102SOL     OW 6144  13.124   7.379  13.643
68102SOL    HW1 6145  13.202   7.380  13.699
68102SOL    HW2 6146  13.134   7.456  13.587
68103SOL     OW 6147   7.436  10.800   0.475
68103SOL    HW1 6148   7.388  10.882   0.464
68103SOL    HW2 6149   7.481  10.809   0.559
68104SOL     OW 6150   9.376  10.685   2.908
68104SOL    HW1 6151   9.290  10.687   2.950
68104SOL    HW2 6152   9.357  10.684   2.815
68105SOL     OW 6153   4.785  10.853   1.706
68105SOL    HW1 6154   4.860  10.913   1.703
68105SOL    HW2 6155   4.765  10.836   1.614
68106SOL     OW 6156   5.069  14.464   2.555
68106SOL    HW1 6157   5.051  14.377   2.589
68106SOL    HW2 6158   4.983  14.498   2.529
68107SOL     OW 6159   8.258   6.484  12.393
68107SOL    HW1 6160   8.226   6.574  12.383
68107SOL    HW2 6161   8.223   6.438  12.316
68108SOL     OW 6162   5.876   6.662   7.008
68108SOL    HW1 6163   5.783   6.655   6.984
68108SOL    HW2 6164   5.909   6.733   6.954
68109SOL     OW 6165   8.723   5.863   6.960
68109SOL    HW1 6166   8.653   5.902   6.908
68109SOL    HW2 6167   8.713   5.903   7.047
68110SOL     OW 6168   6.180   2.925   8.938
68110SOL    HW1 6169   6.175   2.978   9.018
68110SOL    HW2 6170   6.226   2.980   8.875
68111SOL     OW 6171  10.127  10.552  10.647
68111SOL    HW1 6172  10.060  10.514  10.590
68111SOL    HW2 6173  10.200  10.489  10.642
68112SOL     OW 6174   9.238   4.437   6.492
68112SOL    HW1 6175   9.240   4.494   6.415
68112SOL    HW2 6176   9.312   4.466   6.546
68113SOL     OW 6177   2.926  13.071  12.185
68113SOL    HW1 6178   3.016  13.083  12.153
68113SOL    HW2 6179   2.903  12.983  12.156
68114SOL     OW 6180   7.680   2.268   2.047
68114SOL    HW1 6181   7.720   2.285   2.132
68114SOL    HW2 6182   7.595   2.311   2.052
68115SOL     OW 6183  10.804   0.869   2.496
68115SOL    HW1 6184  10.813   0.943   2.556
68115SOL    HW2 6185  10.738   0.897   2.434
68116SOL     OW 6186   9.148  11.920   4.536
68116SOL    HW1 6187   9.156  11.910   4.441
68116SOL    HW2 6188   9.060  11.956   4.550
68117SOL     OW 6189  13.202   6.933  11.939
68117SOL    HW1 6190  13.254   7.004  11.975
68117SOL    HW2 6191  13.260   6.891  11.876
68118SOL     OW 6192  14.775   2.615   9.997
68118SOL    HW1 6193  14.751   2.543   9.939
68118SOL    HW2 6194  14.861   2.643   9.966
68119SOL     OW 6195   5.392   8.618   6.478
68119SOL    HW1 6196   5.484   8.643   6.489
68119SOL    HW2 6197   5.377   8.624   6.383
68120SOL     OW 6198  12.341  11.652   2.152
68120SOL    HW1 6199  12.435  11.668   2.145
68120SOL    HW2 6200  12.319  11.603   2.073
68121SOL     OW 6201   0.958   7.554   1.794
68121SOL    HW1 6202   0.891   7.511   1.742
68121SOL    HW2 6203   1.019   7.590   1.728
68122SOL     OW 6204   4.049  11.454  10.417
68122SOL    HW1 6205   4.056  11.462  10.512
68122SOL    HW2 6206   3.973  11.399  10.403
68123SOL     OW 6207   3.651   0.630   7.132
68123SOL    HW1 6208   3.702   0.650   7.211
68123SOL    HW2 6209   3.567   0.599   7.165
68124SOL     OW 6210  10.922  14.741   8.903
68124SOL    HW1 6211  10.937  14.714   8.994
68124SOL    HW2 6212  10.974  14.680   8.851
68125SOL     OW 6213   2.306  10.679   3.003
68125SOL    HW1 6214   2.367  10.624   3.052
68125SOL    HW2 6215   2.357  10.712   2.930
68126SOL     OW 6216   1.801  12.744   7.398
68126SOL    HW1 6217   1.809  12.722   7.491
68126SOL    HW2 6218   1.715  12.785   7.391
68127SOL     OW 6219   3.274   3.925  14.123
68127SOL    HW1 6220   3.180   3.908  14.125
68127SOL    HW2 6221   3.281   4.020  14.131
68128SOL     OW 6222   4.812  13.181   7.980
68128SOL    HW1 6223   4.853  13.113   8.034
68128SOL    HW2 6224   4.867  13.259   7.994
68129SOL     OW 6225   3.439   7.231   0.915
68129SOL    HW1 6226   3.423   7.157   0.857
68129SOL    HW2 6227   3.362   7.236   0.971
68130SOL     OW 6228   3.704   8.731   0.065
68130SOL    HW1 6229   3.677   8.695   0.149
68130SOL    HW2 6230   3.780   8.786   0.085
68131SOL     OW 6231   6.506   4.536   1.631
68131SOL    HW1 6232   6.515   4.452   1.675
68131SOL    HW2 6233   6.413   4.541   1.608
68132SOL     OW 6234  10.373   4.846  14.111
68132SOL    HW1 6235  10.325   4.815  14.188
68132SOL    HW2 6236  10.313   4.908  14.069
68133SOL     OW 6237  11.925   5.466   8.005
68133SOL    HW1 6238  11.835   5.434   8.004
68133SOL    HW2 6239  11.968   5.422   7.933
68134SOL     OW 6240  13.343   3.915  14.200
68134SOL    HW1 6241  13.295   3.950  14.276
68134SOL    HW2 6242  13.302   3.958  14.125
68135SOL     OW 6243   3.304   2.980   4.389
68135SOL    HW1 6244   3.267   3.000   4.303
68135SOL    HW2 6245   3.388   2.938   4.370
68136SOL     OW 6246   0.613   7.640   3.127
68136SOL    HW1 6247   0.702   7.631   3.094
68136SOL    HW2 6248   0.558   7.619   3.051
68137SOL     OW 6249  10.711   3.942  10.326
68137SOL    HW1 6250  10.643   3.971  10.387
68137SOL    HW2 6251  10.776   3.899  10.382
68138SOL     OW 6252  12.110  10.903   4.891
68138SOL    HW1 6253  12.158  10.839   4.837
68138SOL    HW2 6254  12.103  10.980   4.836
68139SOL     OW 6255   7.714   8.494   1.787
68139SOL    HW1 6256   7.669   8.483   1.871
68139SOL    HW2 6257   7.659   8.555   1.738
68140SOL     OW 6258   0.026   1.801   9.737
68140SOL    HW1 6259   0.034   1.896   9.729
68140SOL    HW2 6260   0.054   1.782   9.827
68141SOL     OW 6261   0.313  13.100   2.069
68141SOL    HW1 6262   0.323  13.156   1.991
68141SOL    HW2 6263   0.361  13.020   2.046
68142SOL     OW 6264   8.758   3.129   7.030
68142SOL    HW1 6265   8.839   3.097   6.990
68142SOL    HW2 6266   8.765   3.105   7.122
68143SOL     OW 6267   7.252   5.705   3.111
68143SOL    HW1 6268   7.200   5.646   3.166
68143SOL    HW2 6269   7.189   5.771   3.080
68144SOL     OW 6270   3.714   3.634  12.643
68144SOL    HW1 6271   3.638   3.615  12.698
68144SOL    HW2 6272   3.707   3.728  12.623
68145SOL     OW 6273  14.401  12.885   2.148
68145SOL    HW1 6274  14.463  12.814   2.132
68145SOL    HW2 6275  14.315  12.847   2.131
68146SOL     OW 6276  10.309   9.990   8.436
68146SOL    HW1 6277  10.342   9.946   8.515
68146SOL    HW2 6278  10.241  10.049   8.469
68147SOL     OW 6279   5.738   8.903  10.549
68147SOL    HW1 6280   5.734   8.927  10.456
68147SOL    HW2 6281   5.704   8.814  10.552
68148SOL     OW 6282   3.457   7.622   1.013
68148SOL    HW1 6283   3.418   7.657   0.933
68148SOL    HW2 6284   3.460   7.698   1.072
68149SOL     OW 6285   3.747   1.054   0.200
68149SOL    HW1 6286   3.815   0.988   0.214
68149SOL    HW2 6287   3.779   1.131   0.248
68150SOL     OW 6288  13.480  12.952   3.162
68150SOL    HW1 6289  13.458  12.875   3.110
68150SOL    HW2 6290  13.567  12.933   3.197
68151SOL     OW 6291   3.338   0.883   5.756
68151SOL    HW1 6292   3.329   0.972   5.792
68151SOL    HW2 6293   3.381   0.897   5.671
68152SOL     OW 6294   3.261  10.816   4.700
68152SOL    HW1 6295   3.229  10.782   4.783
68152SOL    HW2 6296   3.213  10.767   4.633
68153SOL     OW 6297   2.023   8.679   6.191
68153SOL    HW1 6298   2.019   8.635   6.275
68153SOL    HW2 6299   1.975   8.761   6.204
68154SOL     OW 6300   7.518   3.280   7.169
68154SOL    HW1 6301   7.613   3.274   7.154
68154SOL    HW2 6302   7.496   3.370   7.148
68155SOL     OW 6303   1.505  10.810   3.787
68155SOL    HW1 6304   1.507  10.851   3.701
68155SOL    HW2 6305   1.444  10.736   3.777
68156SOL     OW 6306  10.876   5.348  10.679
68156SOL    HW1 6307  10.961   5.392  10.671
68156SOL    HW2 6308  10.813   5.414  10.652
68157SOL     OW 6309  11.585   7.275   8.710
68157SOL    HW1 6310  11.674   7.310   8.722
68157SOL    HW2 6311  11.530   7.353   8.700
68158SOL     OW 6312  11.944   4.779  12.794
68158SOL    HW1 6313  11.916   4.744  12.710
68158SOL    HW2 6314  12.037   4.801  12.782
68159SOL     OW 6315   8.283   4.489   0.282
68159SOL    HW1 6316   8.336   4.561   0.317
68159SOL    HW2 6317   8.247   4.525   0.201
68160SOL     OW 6318   0.478  12.210   7.532
68160SOL    HW1 6319   0.473  12.174   7.443
68160SOL    HW2 6320   0.408  12.166   7.580
68161SOL     OW 6321   6.129   7.202   3.442
68161SOL    HW1 6322   6.091   7.243   3.364
68161SOL    HW2 6323   6.216   7.173   3.414
68162SOL     OW 6324  13.350  10.536  11.215
68162SOL    HW1 6325  13.345  10.574  11.127
68162SOL    HW2 6326  13.370  10.610  11.272
68163SOL     OW 6327  11.513   9.650   3.165
68163SOL    HW1 6328  11.473   9.639   3.079
68163SOL    HW2 6329  11.445   9.625   3.227
68164SOL     OW 6330   5.143   1.364   5.373
68164SOL    HW1 6331   5.201   1.370   5.297
68164SOL    HW2 6332   5.177   1.430   5.434
68165SOL     OW 6333   1.325   2.443   0.196
68165SOL    HW1 6334   1.286   2.518   0.241
68165SOL    HW2 6335   1.295   2.367   0.245
68166SOL     OW 6336  14.312   0.547   8.256
68166SOL    HW1 6337  14.334   0.456   8.277
68166SOL    HW2 6338  14.361   0.565   8.175
68167SOL     OW 6339   1.314   9.218   2.506
68167SOL    HW1 6340   1.365   9.262   2.574
68167SOL    HW2 6341   1.380   9.180   2.448
68168SOL     OW 6342   3.998   0.921   9.728
68168SOL    HW1 6343   4.030   0.994   9.782
68168SOL    HW2 6344   3.917   0.954   9.689
68169SOL     OW 6345  13.118  10.663  13.418
68169SOL    HW1 6346  13.155  10.583  13.380
68169SOL    HW2 6347  13.027  10.664  13.387
68170SOL     OW 6348   4.216   7.490  10.027
68170SOL    HW1 6349   4.122   7.486  10.014
68170SOL    HW2 6350   4.232   7.445  10.110
68171SOL     OW 6351   3.851   7.269  10.884
68171SOL    HW1 6352   3.841   7.347  10.940
68171SOL    HW2 6353   3.939   7.278  10.846
68172SOL     OW 6354   1.977   8.259   4.870
68172SOL    HW1 6355   1.956   8.165   4.874
68172SOL    HW2 6356   1.901   8.297   4.825
68173SOL     OW 6357  11.788  10.004   1.282
68173SOL    HW1 6358  11.772  10.038   1.370
68173SOL    HW2 6359  11.758   9.913   1.286
68174SOL     OW 6360  11.418   6.337  11.112
68174SOL    HW1 6361  11.476   6.380  11.050
68174SOL    HW2 6362  11.409   6.400  11.184
68175SOL     OW 6363   0.361  11.820  14.387
68175SOL    HW1 6364   0.421  11.831  14.461
68175SOL    HW2 6365   0.322  11.906  14.375
68176SOL     OW 6366  10.419   1.003  13.919
68176SOL    HW1 6367  10.412   1.004  14.015
68176SOL    HW2 6368  10.445   1.092  13.896
68177SOL     OW 6369  13.381   3.300   7.616
68177SOL    HW1 6370  13.292   3.269   7.601
68177SOL    HW2 6371  13.412   3.330   7.531
68178SOL     OW 6372   3.609   5.695   7.416
68178SOL    HW1 6373   3.699   5.663   7.421
68178SOL    HW2 6374   3.616   5.778   7.369
68179SOL     OW 6375   8.957  13.204   3.416
68179SOL    HW1 6376   8.978  13.124   3.464
68179SOL    HW2 6377   9.041  13.246   3.399
68180SOL     OW 6378   8.965   3.313   4.193
68180SOL    HW1 6379   8.951   3.261   4.273
68180SOL    HW2 6380   8.877   3.323   4.156
68181SOL     OW 6381  14.264   2.538   4.282
68181SOL    HW1 6382  14.183   2.574   4.248
68181SOL    HW2 6383  14.242   2.507   4.370
68182SOL     OW 6384   9.773   0.344   7.210
68182SOL    HW1 6385   9.713   0.321   7.138
68182SOL    HW2 6386   9.716   0.378   7.279
68183SOL     OW 6387   3.202   1.259  12.027
68183SOL    HW1 6388   3.195   1.183  12.085
68183SOL    HW2 6389   3.296   1.269  12.011
68184SOL     OW 6390  13.805   9.134   7.529
68184SOL    HW1 6391  13.716   9.132   7.493
68184SOL    HW2 6392  13.822   9.227   7.542
68185SOL     OW 6393   4.167   9.034  14.197
68185SOL    HW1 6394   4.184   9.008  14.106
68185SOL    HW2 6395   4.197   8.959  14.249
68186SOL     OW 6396   8.571   7.360   2.671
68186SOL    HW1 6397   8.572   7.284   2.613
68186SOL    HW2 6398   8.531   7.328   2.752
68187SOL     OW 6399  13.608   5.971   3.285
68187SOL    HW1 6400  13.604   5.904   3.353
68187SOL    HW2 6401  13.694   5.959   3.245
68188SOL     OW 6402  13.991   7.077   1.018
68188SOL    HW1 6403  13.953   7.000   1.060
68188SOL    HW2 6404  14.020   7.132   1.091
68189SOL     OW 6405   8.793   2.662   7.041
68189SOL    HW1 6406   8.720   2.676   6.981
68189SOL    HW2 6407   8.774   2.719   7.116
68190SOL     OW 6408   5.752   6.169   7.432
68190SOL    HW1 6409   5.701   6.238   7.389
68190SOL    HW2 6410   5.688   6.100   7.449
68191SOL     OW 6411   7.639   3.621  10.579
68191SOL    HW1 6412   7.720   3.606  10.629
68191SOL    HW2 6413   7.569   3.601  10.641
68192SOL     OW 6414   3.289   3.340   9.840
68192SOL    HW1 6415   3.343   3.374   9.911
68192SOL    HW2 6416   3.209   3.393   9.843
68193SOL     OW 6417   2.031   9.091  10.880
68193SOL    HW1 6418   2.031   9.138  10.964
68193SOL    HW2 6419   2.021   9.160  10.814
68194SOL     OW 6420  10.304  14.007   7.373
68194SOL    HW1 6421  10.396  14.024   7.351
68194SOL    HW2 6422  10.255  14.052   7.304
68195SOL     OW 6423   7.820   1.487   9.756
68195SOL    HW1 6424   7.868   1.529   9.827
68195SOL    HW2 6425   7.816   1.395   9.782
68196SOL     OW 6426  10.870   7.421  10.473
68196SOL    HW1 6427  10.965   7.424  10.463
68196SOL    HW2 6428  10.839   7.496  10.421
68197SOL     OW 6429   8.468  11.740   8.672
68197SOL    HW1 6430   8.419  11.675   8.622
68197SOL    HW2 6431   8.556  11.739   8.633
68198SOL     OW 6432   1.142   2.404   2.782
68198SOL    HW1 6433   1.217   2.349   2.758
68198SOL    HW2 6434   1.115   2.445   2.700
68199SOL     OW 6435   4.108   9.487   1.205
68199SOL    HW1 6436   4.035   9.490   1.268
68199SOL    HW2 6437   4.126   9.393   1.196
68200SOL     OW 6438   1.699   6.617   9.881
68200SOL    HW1 6439   1.672   6.537   9.927
68200SOL    HW2 6440   1.639   6.684   9.913
68201SOL     OW 6441   5.552   5.333   8.243
68201SOL    HW1 6442   5.504   5.414   8.225
68201SOL    HW2 6443   5.506   5.295   8.318
68202SOL     OW 6444   1.423  14.856   5.933
68202SOL    HW1 6445   1.448  14.764   5.923
68202SOL    HW2 6446   1.501   0.025   5.969
68203SOL     OW 6447  13.582  12.919   6.626
68203SOL    HW1 6448  13.632  12.915   6.544
68203SOL    HW2 6449  13.634  12.976   6.683
68204SOL     OW 6450  12.459  12.734   8.371
68204SOL    HW1 6451  12.400  12.765   8.302
68204SOL    HW2 6452  12.540  12.783   8.357
68205SOL     OW 6453   7.729   5.695   6.825
68205SOL    HW1 6454   7.644   5.722   6.860
68205SOL    HW2 6455   7.709   5.663   6.737
68206SOL     OW 6456   8.266  10.920  13.316
68206SOL    HW1 6457   8.172  10.901  13.309
68206SOL    HW2 6458   8.292  10.879  13.398
68207SOL     OW 6459  11.861   3.498   0.605
68207SOL    HW1 6460  11.903   3.580   0.578
68207SOL    HW2 6461  11.872   3.440   0.529
68208SOL     OW 6462   8.327   9.193  13.514
68208SOL    HW1 6463   8.285   9.268  13.557
68208SOL    HW2 6464   8.304   9.118  13.568
68209SOL     OW 6465   5.692   5.219   8.532
68209SOL    HW1 6466   5.645   5.231   8.614
68209SOL    HW2 6467   5.627   5.183   8.472
68210SOL     OW 6468   7.084  11.180   2.808
68210SOL    HW1 6469   7.081  11.269   2.772
68210SOL    HW2 6470   6.997  11.144   2.790
68211SOL     OW 6471  14.685  13.836  10.835
68211SOL    HW1 6472  14.683  13.829  10.740
68211SOL    HW2 6473  14.594  13.847  10.860
68212SOL     OW 6474   1.295   8.687   1.366
68212SOL    HW1 6475   1.259   8.616   1.313
68212SOL    HW2 6476   1.337   8.643   1.439
68213SOL     OW 6477  11.566   6.695  13.325
68213SOL    HW1 6478  11.594   6.652  13.405
68213SOL    HW2 6479  11.531   6.624  13.270
68214SOL     OW 6480   7.964   7.602  11.618
68214SOL    HW1 6481   8.038   7.662  11.625
68214SOL    HW2 6482   7.965   7.553  11.700
68215SOL     OW 6483   1.488  14.313   5.092
68215SOL    HW1 6484   1.512  14.311   5.185
68215SOL    HW2 6485   1.465  14.223   5.071
68216SOL     OW 6486   9.380   6.743  14.281
68216SOL    HW1 6487   9.344   6.733  14.370
68216SOL    HW2 6488   9.336   6.674  14.231
68217SOL     OW 6489   0.096   4.382   0.599
68217SOL    HW1 6490   0.116   4.422   0.684
68217SOL    HW2 6491   0.056   4.453   0.549
68218SOL     OW 6492  12.470   3.747   5.405
68218SOL    HW1 6493  12.546   3.804   5.416
68218SOL    HW2 6494  12.411   3.770   5.477
68219SOL     OW 6495   7.078   1.552   6.065
68219SOL    HW1 6496   7.086   1.493   5.989
68219SOL    HW2 6497   7.043   1.496   6.134
68220SOL     OW 6498   5.175   7.264   7.022
68220SOL    HW1 6499   5.081   7.280   7.031
68220SOL    HW2 6500   5.182   7.206   6.946
68221SOL     OW 6501   4.725  14.011  14.214
68221SOL    HW1 6502   4.711  13.940  14.150
68221SOL    HW2 6503   4.812  13.995  14.249
68222SOL     OW 6504   0.901  13.265   9.610
68222SOL    HW1 6505   0.833  13.198   9.619
68222SOL    HW2 6506   0.976  13.219   9.573
68223SOL     OW 6507   7.349   3.473  10.747
68223SOL    HW1 6508   7.286   3.462  10.676
68223SOL    HW2 6509   7.303   3.526  10.812
68224SOL     OW 6510   9.469  10.798   1.783
68224SOL    HW1 6511   9.536  10.864   1.765
68224SOL    HW2 6512   9.402  10.845   1.832
68225SOL     OW 6513   4.757   5.461   0.660
68225SOL    HW1 6514   4.798   5.389   0.707
68225SOL    HW2 6515   4.752   5.432   0.569
68226SOL     OW 6516   9.548   5.032   5.926
68226SOL    HW1 6517   9.457   5.007   5.938
68226SOL    HW2 6518   9.546   5.105   5.865
68227SOL     OW 6519   2.293   6.158   2.381
68227SOL    HW1 6520   2.229   6.168   2.311
68227SOL    HW2 6521   2.247   6.111   2.449
68228SOL     OW 6522   8.363  13.988   4.001
68228SOL    HW1 6523   8.408  13.996   4.085
68228SOL    HW2 6524   8.296  13.922   4.015
68229SOL     OW 6525   1.317   2.028  10.127
68229SOL    HW1 6526   1.278   2.059  10.208
68229SOL    HW2 6527   1.387   1.968  10.155
68230SOL     OW 6528  13.443   3.123  12.887
68230SOL    HW1 6529  13.507   3.054  12.872
68230SOL    HW2 6530  13.371   3.080  12.932
68231SOL     OW 6531  10.428  11.649   4.663
68231SOL    HW1 6532  10.464  11.727   4.706
68231SOL    HW2 6533  10.393  11.597   4.735
68232SOL     OW 6534  14.106   5.630  12.595
68232SOL    HW1 6535  14.178   5.687  12.622
68232SOL    HW2 6536  14.033   5.656  12.651
68233SOL     OW 6537   1.464   9.654  12.870
68233SOL    HW1 6538   1.539   9.601  12.845
68233SOL    HW2 6539   1.470   9.733  12.816
68234SOL     OW 6540   0.886   6.031   3.991
68234SOL    HW1 6541   0.970   5.986   3.981
68234SOL    HW2 6542   0.847   6.029   3.903
68235SOL     OW 6543   5.780   4.168  11.146
68235SOL    HW1 6544   5.868   4.140  11.121
68235SOL    HW2 6545   5.768   4.253  11.104
68236SOL     OW 6546  14.300  10.451  14.373
68236SOL    HW1 6547  14.391  10.423  14.367
68236SOL    HW2 6548  14.297  10.509  14.449
68237SOL     OW 6549   1.410  12.656   2.213
68237SOL    HW1 6550   1.455  12.601   2.149
68237SOL    HW2 6551   1.373  12.595   2.276
68238SOL     OW 6552  14.186   4.921   5.407
68238SOL    HW1 6553  14.203   4.912   5.500
68238SOL    HW2 6554  14.091   4.922   5.399
68239SOL     OW 6555  12.458   3.728   8.102
68239SOL    HW1 6556  12.368   3.702   8.081
68239SOL    HW2 6557  12.456   3.824   8.095
68240SOL     OW 6558  11.636  11.526   5.422
68240SOL    HW1 6559  11.719  11.527   5.471
68240SOL    HW2 6560  11.570  11.545   5.488
68241SOL     OW 6561   3.276  12.448   7.149
68241SOL    HW1 6562   3.291  12.365   7.104
68241SOL    HW2 6563   3.359  12.494   7.142
68242SOL     OW 6564  14.118  14.169   4.187
68242SOL    HW1 6565  14.074  14.084   4.187
68242SOL    HW2 6566  14.148  14.182   4.097
68243SOL     OW 6567   9.638  13.245   6.091
68243SOL    HW1 6568   9.568  13.222   6.030
68243SOL    HW2 6569   9.714  13.259   6.035
68244SOL     OW 6570  12.345   2.642  13.819
68244SOL    HW1 6571  12.431   2.615  13.789
68244SOL    HW2 6572  12.309   2.566  13.864
68245SOL     OW 6573   5.548  14.547   0.246
68245SOL    HW1 6574   5.582  14.512   0.329
68245SOL    HW2 6575   5.486  14.480   0.215
68246SOL     OW 6576   9.972   3.319   4.378
68246SOL    HW1 6577  10.058   3.281   4.361
68246SOL    HW2 6578   9.914   3.272   4.318
68247SOL     OW 6579   0.344   8.162  12.192
68247SOL    HW1 6580   0.378   8.074  12.176
68247SOL    HW2 6581   0.385   8.217  12.124
68248SOL     OW 6582   6.605   6.719   6.692
68248SOL    HW1 6583   6.598   6.733   6.598
68248SOL    HW2 6584   6.677   6.775   6.720
68249SOL     OW 6585   3.271   9.287   2.570
68249SOL    HW1 6586   3.267   9.191   2.572
68249SOL    HW2 6587   3.271   9.313   2.662
68250SOL     OW 6588   1.851   3.963   5.039
68250SOL    HW1 6589   1.851   3.871   5.063
68250SOL    HW2 6590   1.785   3.970   4.970
68251SOL     OW 6591  14.594   6.029  14.475
68251SOL    HW1 6592  14.570   6.100  14.534
68251SOL    HW2 6593  14.519   5.969  14.477
68252SOL     OW 6594  12.656   1.024   0.737
68252SOL    HW1 6595  12.741   1.010   0.779
68252SOL    HW2 6596  12.674   1.011   0.643
68253SOL     OW 6597   1.046   1.635   0.909
68253SOL    HW1 6598   1.003   1.692   0.973
68253SOL    HW2 6599   1.019   1.671   0.824
68254SOL     OW 6600   8.600   3.667   5.018
68254SOL    HW1 6601   8.672   3.654   4.957
68254SOL    HW2 6602   8.551   3.741   4.982
68255SOL     OW 6603   7.303   4.673   1.002
68255SOL    HW1 6604   7.207   4.674   1.004
68255SOL    HW2 6605   7.328   4.764   1.012
68256SOL     OW 6606   2.352   9.070   2.485
68256SOL    HW1 6607   2.353   9.008   2.412
68256SOL    HW2 6608   2.300   9.144   2.453
68257SOL     OW 6609  12.640   8.464   8.106
68257SOL    HW1 6610  12.613   8.501   8.022
68257SOL    HW2 6611  12.718   8.413   8.086
68258SOL     OW 6612   8.743   6.475  10.105
68258SOL    HW1 6613   8.653   6.474  10.137
68258SOL    HW2 6614   8.737   6.513  10.018
68259SOL     OW 6615   5.396  14.604   8.296
68259SOL    HW1 6616   5.375  14.630   8.385
68259SOL    HW2 6617   5.329  14.540   8.273
68260SOL     OW 6618  10.824   9.077   1.909
68260SOL    HW1 6619  10.803   9.084   1.815
68260SOL    HW2 6620  10.912   9.113   1.916
68261SOL     OW 6621   2.441  10.063   6.920
68261SOL    HW1 6622   2.378  10.132   6.902
68261SOL    HW2 6623   2.406  10.018   6.997
68262SOL     OW 6624   8.891   7.369   0.977
68262SOL    HW1 6625   8.964   7.396   1.034
68262SOL    HW2 6626   8.908   7.414   0.894
68263SOL     OW 6627   9.716  12.943   0.250
68263SOL    HW1 6628   9.640  12.991   0.284
68263SOL    HW2 6629   9.786  13.008   0.246
68264SOL     OW 6630   6.452   9.385  10.099
68264SOL    HW1 6631   6.475   9.378  10.191
68264SOL    HW2 6632   6.460   9.296  10.065
68265SOL     OW 6633   0.131  11.964   6.715
68265SOL    HW1 6634   0.090  11.995   6.796
68265SOL    HW2 6635   0.058  11.943   6.657
68266SOL     OW 6636   4.964   8.899   2.120
68266SOL    HW1 6637   4.963   8.861   2.208
68266SOL    HW2 6638   4.876   8.936   2.108
68267SOL     OW 6639  11.360   8.068   8.441
68267SOL    HW1 6640  11.370   8.017   8.361
68267SOL    HW2 6641  11.427   8.033   8.500
68268SOL     OW 6642   7.104  14.298   2.772
68268SOL    HW1 6643   7.096  14.279   2.865
68268SOL    HW2 6644   7.017  14.277   2.736
68269SOL     OW 6645   8.568  12.312   9.792
68269SOL    HW1 6646   8.493  12.296   9.733
68269SOL    HW2 6647   8.635  12.252   9.761
68270SOL     OW 6648  10.360   5.294   6.342
68270SOL    HW1 6649  10.340   5.234   6.271
68270SOL    HW2 6650  10.453   5.283   6.358
68271SOL     OW 6651   4.683  14.099   1.677
68271SOL    HW1 6652   4.600  14.116   1.632
68271SOL    HW2 6653   4.749  14.147   1.626
68272SOL     OW 6654  11.296   7.442   7.826
68272SOL    HW1 6655  11.296   7.448   7.731
68272SOL    HW2 6656  11.342   7.521   7.855
68273SOL     OW 6657   3.150  12.374   2.438
68273SOL    HW1 6658   3.109  12.454   2.474
68273SOL    HW2 6659   3.171  12.322   2.516
68274SOL     OW 6660   4.195   5.399   4.004
68274SOL    HW1 6661   4.211   5.450   4.083
68274SOL    HW2 6662   4.115   5.437   3.967
68275SOL     OW 6663  13.555   1.783  13.558
68275SOL    HW1 6664  13.513   1.808  13.476
68275SOL    HW2 6665  13.616   1.854  13.578
68276SOL     OW 6666   6.024   4.206  13.895
68276SOL    HW1 6667   5.965   4.267  13.850
68276SOL    HW2 6668   5.976   4.182  13.975
68277SOL     OW 6669   1.502   2.198   7.714
68277SOL    HW1 6670   1.465   2.225   7.798
68277SOL    HW2 6671   1.528   2.107   7.727
68278SOL     OW 6672   8.220  13.769  10.781
68278SOL    HW1 6673   8.228  13.674  10.781
68278SOL    HW2 6674   8.249  13.795  10.694
68279SOL     OW 6675  12.865   5.891   6.430
68279SOL    HW1 6676  12.949   5.891   6.476
68279SOL    HW2 6677  12.844   5.983   6.416
68280SOL     OW 6678   2.661  11.948  10.278
68280SOL    HW1 6679   2.591  11.892  10.313
68280SOL    HW2 6680   2.690  11.902  10.199
68281SOL     OW 6681   1.387   1.657   0.728
68281SOL    HW1 6682   1.343   1.687   0.807
68281SOL    HW2 6683   1.335   1.693   0.656
68282SOL     OW 6684   9.018   0.290   9.232
68282SOL    HW1 6685   8.937   0.260   9.192
68282SOL    HW2 6686   9.011   0.386   9.232
68283SOL     OW 6687  10.291   2.869   4.626
68283SOL    HW1 6688  10.311   2.799   4.565
68283SOL    HW2 6689  10.353   2.857   4.698
68284SOL     OW 6690   4.880   3.003   9.302
68284SOL    HW1 6691   4.883   3.085   9.352
68284SOL    HW2 6692   4.851   2.937   9.366
68285SOL     OW 6693   5.682  12.877  10.885
68285SOL    HW1 6694   5.701  12.938  10.815
68285SOL    HW2 6695   5.711  12.792  10.851
68286SOL     OW 6696   8.850  12.540   5.650
68286SOL    HW1 6697   8.796  12.537   5.729
68286SOL    HW2 6698   8.940  12.540   5.683
68287SOL     OW 6699  11.188   7.584   5.074
68287SOL    HW1 6700  11.145   7.556   5.155
68287SOL    HW2 6701  11.178   7.679   5.072
68288SOL     OW 6702   2.416   1.253  12.117
68288SOL    HW1 6703   2.501   1.296  12.128
68288SOL    HW2 6704   2.357   1.303  12.174
68289SOL     OW 6705   8.010   8.002   4.439
68289SOL    HW1 6706   7.976   7.940   4.374
68289SOL    HW2 6707   7.931   8.037   4.481
68290SOL     OW 6708   4.747   1.127   3.182
68290SOL    HW1 6709   4.794   1.102   3.261
68290SOL    HW2 6710   4.665   1.165   3.214
68291SOL     OW 6711   6.248   6.785  14.791
68291SOL    HW1 6712   6.178   6.758  14.732
68291SOL    HW2 6713   6.323   6.801  14.733
68292SOL     OW 6714   9.507  10.892   9.657
68292SOL    HW1 6715   9.595  10.902   9.621
68292SOL    HW2 6716   9.482  10.802   9.634
68293SOL     OW 6717   6.946   0.406   9.187
68293SOL    HW1 6718   6.889   0.354   9.243
68293SOL    HW2 6719   6.906   0.493   9.187
68294SOL     OW 6720  10.640  12.474   7.766
68294SOL    HW1 6721  10.643  12.393   7.714
68294SOL    HW2 6722  10.710  12.528   7.731
68295SOL     OW 6723  10.893   3.244  14.009
68295SOL    HW1 6724  10.812   3.259  13.960
68295SOL    HW2 6725  10.865   3.210  14.093
68296SOL     OW 6726   6.058   0.098  14.253
68296SOL    HW1 6727   6.019   0.012  14.270
68296SOL    HW2 6728   6.147   0.079  14.225
68297SOL     OW 6729   8.919   3.723   2.474
68297SOL    HW1 6730   8.863   3.697   2.401
68297SOL    HW2 6731   8.859   3.727   2.549
68298SOL     OW 6732   0.895  13.675   5.863
68298SOL    HW1 6733   0.935  13.588   5.863
68298SOL    HW2 6734   0.837  13.675   5.787
68299SOL     OW 6735  14.683  10.799  10.224
68299SOL    HW1 6736  14.689  10.877  10.170
68299SOL    HW2 6737  14.691  10.726  10.163
68300SOL     OW 6738  10.564  10.873   3.547
68300SOL    HW1 6739  10.582  10.875   3.453
68300SOL    HW2 6740  10.607  10.794   3.579
68301SOL     OW 6741   3.319   5.542   9.088
68301SOL    HW1 6742   3.406   5.545   9.129
68301SOL    HW2 6743   3.280   5.461   9.121
68302SOL     OW 6744  13.103   7.370  10.678
68302SOL    HW1 6745  13.097   7.277  10.700
68302SOL    HW2 6746  13.012   7.397  10.664
68303SOL     OW 6747   4.086   8.825   5.098
68303SOL    HW1 6748   3.995   8.800   5.086
68303SOL    HW2 6749   4.133   8.742   5.107
68304SOL     OW 6750   3.314   6.454   4.407
68304SOL    HW1 6751   3.297   6.548   4.398
68304SOL    HW2 6752   3.293   6.417   4.321
68305SOL     OW 6753   9.056   6.747   1.851
68305SOL    HW1 6754   9.104   6.817   1.895
68305SOL    HW2 6755   8.994   6.714   1.916
68306SOL     OW 6756   5.445   7.971   0.113
68306SOL    HW1 6757   5.428   7.909   0.184
68306SOL    HW2 6758   5.536   7.998   0.125
68307SOL     OW 6759   3.184   5.008  10.084
68307SOL    HW1 6760   3.237   5.074  10.039
68307SOL    HW2 6761   3.133   4.967  10.014
68308SOL     OW 6762  13.639   8.148   6.310
68308SOL    HW1 6763  13.602   8.074   6.359
68308SOL    HW2 6764  13.568   8.213   6.307
68309SOL     OW 6765   9.175  10.507   3.538
68309SOL    HW1 6766   9.115  10.434   3.549
68309SOL    HW2 6767   9.171  10.553   3.622
68310SOL     OW 6768   6.934   3.174   5.307
68310SOL    HW1 6769   6.927   3.268   5.320
68310SOL    HW2 6770   6.855   3.151   5.258
68311SOL     OW 6771  10.284   4.671   9.787
68311SOL    HW1 6772  10.349   4.637   9.848
68311SOL    HW2 6773  10.288   4.766   9.799
68312SOL     OW 6774   2.829   1.459   2.489
68312SOL    HW1 6775   2.805   1.381   2.441
68312SOL    HW2 6776   2.770   1.461   2.564
68313SOL     OW 6777  14.371   6.145   2.987
68313SOL    HW1 6778  14.356   6.096   2.906
68313SOL    HW2 6779  14.365   6.079   3.056
68314SOL     OW 6780   3.943   1.550   5.385
68314SOL    HW1 6781   3.881   1.481   5.410
68314SOL    HW2 6782   4.029   1.507   5.386
68315SOL     OW 6783   8.367   1.370   7.068
68315SOL    HW1 6784   8.313   1.296   7.096
68315SOL    HW2 6785   8.442   1.330   7.024
68316SOL     OW 6786  11.986  11.568   5.705
68316SOL    HW1 6787  11.976  11.664   5.707
68316SOL    HW2 6788  12.061  11.553   5.647
68317SOL     OW 6789  10.911  10.627   9.868
68317SOL    HW1 6790  10.818  10.645   9.864
68317SOL    HW2 6791  10.930  10.614   9.961
68318SOL     OW 6792  11.967  12.559   2.508
68318SOL    HW1 6793  11.915  12.479   2.500
68318SOL    HW2 6794  12.026  12.542   2.582
68319SOL     OW 6795   0.499   8.644   1.932
68319SOL    HW1 6796   0.412   8.639   1.972
68319SOL    HW2 6797   0.553   8.586   1.986
68320SOL     OW 6798  13.385   3.015   0.551
68320SOL    HW1 6799  13.308   2.965   0.577
68320SOL    HW2 6800  13.382   3.014   0.455
68321SOL     OW 6801   7.608   5.769   0.736
68321SOL    HW1 6802   7.593   5.758   0.642
68321SOL    HW2 6803   7.535   5.723   0.777
68322SOL     OW 6804  14.589  10.960   5.830
68322SOL    HW1 6805  14.634  11.004   5.758
68322SOL    HW2 6806  14.581  10.869   5.802
68323SOL     OW 6807   7.632   2.282   0.326
68323SOL    HW1 6808   7.605   2.191   0.338
68323SOL    HW2 6809   7.595   2.306   0.241
68324SOL     OW 6810   9.637   4.184   9.245
68324SOL    HW1 6811   9.582   4.126   9.193
68324SOL    HW2 6812   9.688   4.234   9.180
68325SOL     OW 6813  11.281   9.333  14.839
68325SOL    HW1 6814  11.219   9.316   0.037
68325SOL    HW2 6815  11.227   9.329  14.760
68326SOL     OW 6816  10.987   9.604   0.058
68326SOL    HW1 6817  11.006   9.519   0.098
68326SOL    HW2 6818  11.018   9.668   0.122
68327SOL     OW 6819   5.194   7.269   1.549
68327SOL    HW1 6820   5.286   7.274   1.526
68327SOL    HW2 6821   5.162   7.359   1.541
68328SOL     OW 6822   6.345  10.503   0.241
68328SOL    HW1 6823   6.391  10.584   0.220
68328SOL    HW2 6824   6.275  10.529   0.301
68329SOL     OW 6825   3.333   6.063   2.320
68329SOL    HW1 6826   3.266   6.022   2.266
68329SOL    HW2 6827   3.305   6.048   2.410
68330SOL     OW 6828   1.985  11.057   9.090
68330SOL    HW1 6829   1.949  10.978   9.130
68330SOL    HW2 6830   2.044  11.093   9.156
68331SOL     OW 6831  11.353   8.111   9.082
68331SOL    HW1 6832  11.434   8.081   9.042
68331SOL    HW2 6833  11.301   8.143   9.008
68332SOL     OW 6834  11.859   8.782   4.275
68332SOL    HW1 6835  11.767   8.775   4.299
68332SOL    HW2 6836  11.873   8.875   4.257
68333SOL     OW 6837  12.182   0.284  11.619
68333SOL    HW1 6838  12.204   0.197  11.653
68333SOL    HW2 6839  12.252   0.303  11.557
68334SOL     OW 6840  10.584   6.610   8.600
68334SOL    HW1 6841  10.568   6.684   8.659
68334SOL    HW2 6842  10.676   6.619   8.574
68335SOL     OW 6843   5.225   5.415  10.600
68335SOL    HW1 6844   5.202   5.358  10.673
68335SOL    HW2 6845   5.312   5.386  10.573
68336SOL     OW 6846  13.551  10.129  14.659
68336SOL    HW1 6847  13.512  10.181  14.589
68336SOL    HW2 6848  13.606  10.190  14.707
68337SOL     OW 6849   3.555   3.558   1.057
68337SOL    HW1 6850   3.509   3.515   0.985
68337SOL    HW2 6851   3.494   3.623   1.090
68338SOL     OW 6852  11.851  14.614   0.194
68338SOL    HW1 6853  11.837  14.588   0.103
68338SOL    HW2 6854  11.849  14.532   0.242
68339SOL     OW 6855   6.448  12.401   5.551
68339SOL    HW1 6856   6.534  12.439   5.537
68339SOL    HW2 6857   6.387  12.475   5.545
68340SOL     OW 6858   7.523   4.312   3.704
68340SOL    HW1 6859   7.539   4.227   3.744
68340SOL    HW2 6860   7.461   4.355   3.763
68341SOL     OW 6861   5.519   9.478  13.176
68341SOL    HW1 6862   5.521   9.525  13.093
68341SOL    HW2 6863   5.428   9.485  13.205
68342SOL     OW 6864  13.829  10.040   4.427
68342SOL    HW1 6865  13.774  10.081   4.360
68342SOL    HW2 6866  13.867  10.113   4.475
68343SOL     OW 6867  12.687   4.439   1.500
68343SOL    HW1 6868  12.605   4.480   1.527
68343SOL    HW2 6869  12.748   4.512   1.490
68344SOL     OW 6870  14.490   5.133   2.484
68344SOL    HW1 6871  14.420   5.067   2.487
68344SOL    HW2 6872  14.561   5.095   2.536
68345SOL     OW 6873   3.092  11.603  10.983
68345SOL    HW1 6874   3.118  11.562  11.065
68345SOL    HW2 6875   3.122  11.541  10.915
68346SOL     OW 6876  10.039  13.626   5.317
68346SOL    HW1 6877  10.094  13.672   5.380
68346SOL    HW2 6878  10.013  13.693   5.254
68347SOL     OW 6879   0.043   6.191  14.056
68347SOL    HW1 6880   0.007   6.184  14.144
68347SOL    HW2 6881  14.853   6.246  14.009
68348SOL     OW 6882  14.868  10.981  13.709
68348SOL    HW1 6883   0.057  10.908  13.698
68348SOL    HW2 6884  14.783  10.938  13.717
68349SOL     OW 6885   6.187  11.102   5.072
68349SOL    HW1 6886   6.094  11.097   5.048
68349SOL    HW2 6887   6.197  11.037   5.142
68350SOL     OW 6888   3.177  14.310  11.041
68350SOL    HW1 6889   3.197  14.236  10.984
68350SOL    HW2 6890   3.150  14.380  10.981
68351SOL     OW 6891   2.440   8.326   8.371
68351SOL    HW1 6892   2.451   8.260   8.303
68351SOL    HW2 6893   2.519   8.317   8.425
68352SOL     OW 6894   2.747   2.853   9.285
68352SOL    HW1 6895   2.745   2.777   9.227
68352SOL    HW2 6896   2.667   2.847   9.337
68353SOL     OW 6897   4.626   0.706   1.140
68353SOL    HW1 6898   4.719   0.726   1.146
68353SOL    HW2 6899   4.606   0.659   1.220
68354SOL     OW 6900   9.434   7.368   1.952
68354SOL    HW1 6901   9.411   7.457   1.977
68354SOL    HW2 6902   9.528   7.371   1.936
68355SOL     OW 6903   7.975  12.603  11.272
68355SOL    HW1 6904   7.988  12.600  11.178
68355SOL    HW2 6905   8.042  12.546  11.309
68356SOL     OW 6906  14.018   7.160   4.148
68356SOL    HW1 6907  14.070   7.149   4.069
68356SOL    HW2 6908  14.011   7.255   4.160
68357SOL     OW 6909   3.923   7.327   0.928
68357SOL    HW1 6910   3.929   7.233   0.943
68357SOL    HW2 6911   3.865   7.336   0.853
68358SOL     OW 6912   4.313   7.221   5.423
68358SOL    HW1 6913   4.225   7.257   5.428
68358SOL    HW2 6914   4.353   7.264   5.347
68359SOL     OW 6915   1.317   9.531  12.522
68359SOL    HW1 6916   1.397   9.499  12.565
68359SOL    HW2 6917   1.330   9.511  12.430
68360SOL     OW 6918  12.128  12.360   7.705
68360SOL    HW1 6919  12.098  12.451   7.706
68360SOL    HW2 6920  12.101  12.325   7.790
68361SOL     OW 6921  10.569  10.778  11.688
68361SOL    HW1 6922  10.541  10.775  11.597
68361SOL    HW2 6923  10.655  10.820  11.686
68362SOL     OW 6924   1.609   3.865   4.541
68362SOL    HW1 6925   1.645   3.924   4.475
68362SOL    HW2 6926   1.516   3.884   4.542
68363SOL     OW 6927   9.988  13.758   7.012
68363SOL    HW1 6928   9.898  13.735   7.036
68363SOL    HW2 6929   9.989  13.854   7.011
68364SOL     OW 6930  11.315   4.789   3.579
68364SOL    HW1 6931  11.228   4.767   3.545
68364SOL    HW2 6932  11.370   4.715   3.553
68365SOL     OW 6933  11.658   3.724  13.165
68365SOL    HW1 6934  11.639   3.756  13.077
68365SOL    HW2 6935  11.587   3.758  13.219
68366SOL     OW 6936   8.061  13.887  11.885
68366SOL    HW1 6937   8.093  13.878  11.975
68366SOL    HW2 6938   8.018  13.803  11.867
68367SOL     OW 6939   4.692   3.622  11.662
68367SOL    HW1 6940   4.762   3.558  11.651
68367SOL    HW2 6941   4.628   3.578  11.718
68368SOL     OW 6942  10.052   1.343   8.413
68368SOL    HW1 6943  10.118   1.395   8.459
68368SOL    HW2 6944   9.980   1.333   8.476
68369SOL     OW 6945   3.975   4.770   6.415
68369SOL    HW1 6946   3.907   4.796   6.353
68369SOL    HW2 6947   3.934   4.776   6.501
68370SOL     OW 6948   8.183  13.077   4.021
68370SOL    HW1 6949   8.168  13.072   4.115
68370SOL    HW2 6950   8.230  12.996   4.000
68371SOL     OW 6951  10.272   0.796   6.917
68371SOL    HW1 6952  10.306   0.798   6.828
68371SOL    HW2 6953  10.245   0.705   6.931
68372SOL     OW 6954  13.154  14.841  12.161
68372SOL    HW1 6955  13.084   0.021  12.199
68372SOL    HW2 6956  13.112  14.759  12.136
68373SOL     OW 6957   5.584   5.161  13.342
68373SOL    HW1 6958   5.513   5.189  13.284
68373SOL    HW2 6959   5.617   5.081  13.301
68374SOL     OW 6960  10.748   5.817   1.312
68374SOL    HW1 6961  10.820   5.758   1.336
68374SOL    HW2 6962  10.673   5.759   1.297
68375SOL     OW 6963   6.955  10.048   9.092
68375SOL    HW1 6964   6.880  10.099   9.063
68375SOL    HW2 6965   6.924  10.002   9.170
68376SOL     OW 6966  10.182   1.178  12.336
68376SOL    HW1 6967  10.186   1.089  12.300
68376SOL    HW2 6968  10.249   1.226  12.287
68377SOL     OW 6969   5.836   2.504  11.481
68377SOL    HW1 6970   5.784   2.433  11.443
68377SOL    HW2 6971   5.880   2.544  11.406
68378SOL     OW 6972   8.235   5.231   4.217
68378SOL    HW1 6973   8.210   5.302   4.159
68378SOL    HW2 6974   8.267   5.274   4.296
68379SOL     OW 6975  11.449  11.371   3.863
68379SOL    HW1 6976  11.391  11.326   3.925
68379SOL    HW2 6977  11.405  11.362   3.779
68380SOL     OW 6978  12.696   5.361   8.575
68380SOL    HW1 6979  12.765   5.392   8.635
68380SOL    HW2 6980  12.672   5.439   8.526
68381SOL     OW 6981  11.894   2.257   0.774
68381SOL    HW1 6982  11.822   2.300   0.818
68381SOL    HW2 6983  11.858   2.230   0.689
68382SOL     OW 6984   3.664  11.288   0.577
68382SOL    HW1 6985   3.644  11.353   0.644
68382SOL    HW2 6986   3.587  11.287   0.521
68383SOL     OW 6987   2.552  11.516   6.478
68383SOL    HW1 6988   2.556  11.597   6.529
68383SOL    HW2 6989   2.587  11.449   6.537
68384SOL     OW 6990   0.500  14.640   2.671
68384SOL    HW1 6991   0.594  14.651   2.686
68384SOL    HW2 6992   0.464  14.621   2.758
68385SOL     OW 6993  10.371   3.344   6.739
68385SOL    HW1 6994  10.425   3.419   6.762
68385SOL    HW2 6995  10.281   3.377   6.741
68386SOL     OW 6996   0.070   2.589   5.402
68386SOL    HW1 6997   0.014   2.568   5.327
68386SOL    HW2 6998   0.019   2.652   5.453
68387SOL     OW 6999   0.341   3.477   3.748
68387SOL    HW1 7000   0.322   3.568   3.769
68387SOL    HW2 7001   0.255   3.438   3.730
68388SOL     OW 7002   0.116   4.968   8.433
68388SOL    HW1 7003   0.032   4.993   8.471
68388SOL    HW2 7004   0.104   4.979   8.338
68389SOL     OW 7005   4.933   6.785   4.958
68389SOL    HW1 7006   4.949   6.707   5.011
68389SOL    HW2 7007   4.843   6.811   4.981
68390SOL     OW 7008  12.321   7.726   8.370
68390SOL    HW1 7009  12.271   7.664   8.317
68390SOL    HW2 7010  12.400   7.677   8.394
68391SOL     OW 7011   0.238  10.209  10.948
68391SOL    HW1 7012   0.285  10.126  10.957
68391SOL    HW2 7013   0.162  10.200  11.005
68392SOL     OW 7014  13.900  12.973  14.458
68392SOL    HW1 7015  13.983  12.971  14.507
68392SOL    HW2 7016  13.874  13.065  14.458
68393SOL     OW 7017   0.762  14.318   1.947
68393SOL    HW1 7018   0.721  14.324   1.860
68393SOL    HW2 7019   0.844  14.366   1.938
68394SOL     OW 7020   4.218  10.466   7.166
68394SOL    HW1 7021   4.123  10.471   7.165
68394SOL    HW2 7022   4.245  10.520   7.241
68395SOL     OW 7023  10.033   0.988  13.752
68395SOL    HW1 7024   9.955   0.961  13.704
68395SOL    HW2 7025  10.076   0.906  13.776
68396SOL     OW 7026  10.846   2.929  11.415
68396SOL    HW1 7027  10.928   2.967  11.447
68396SOL    HW2 7028  10.783   2.942  11.486
68397SOL     OW 7029   0.807  11.874   2.234
68397SOL    HW1 7030   0.869  11.930   2.281
68397SOL    HW2 7031   0.842  11.785   2.247
68398SOL     OW 7032   4.482   2.933  13.538
68398SOL    HW1 7033   4.534   3.002  13.579
68398SOL    HW2 7034   4.511   2.932  13.447
68399SOL     OW 7035   2.650   5.109   3.220
68399SOL    HW1 7036   2.673   5.200   3.237
68399SOL    HW2 7037   2.566   5.114   3.174
68400SOL     OW 7038  11.537  11.447   9.388
68400SOL    HW1 7039  11.601  11.503   9.344
68400SOL    HW2 7040  11.458  11.500   9.394
68401SOL     OW 7041   1.995  11.994  14.620
68401SOL    HW1 7042   2.038  12.077  14.604
68401SOL    HW2 7043   2.026  11.966  14.707
68402SOL     OW 7044   3.072   9.796  14.587
68402SOL    HW1 7045   3.118   9.863  14.536
68402SOL    HW2 7046   3.068   9.832  14.676
68403SOL     OW 7047   4.744   9.838   9.014
68403SOL    HW1 7048   4.770   9.792   9.094
68403SOL    HW2 7049   4.671   9.894   9.041
68404SOL     OW 7050   0.580  13.631  14.664
68404SOL    HW1 7051   0.640  13.672  14.727
68404SOL    HW2 7052   0.498  13.680  14.675
68405SOL     OW 7053   4.647   6.536   5.709
68405SOL    HW1 7054   4.742   6.549   5.708
68405SOL    HW2 7055   4.636   6.445   5.737
68406SOL     OW 7056  12.283   7.537   5.750
68406SOL    HW1 7057  12.288   7.623   5.709
68406SOL    HW2 7058  12.324   7.549   5.835
68407SOL     OW 7059  14.762   3.279   2.984
68407SOL    HW1 7060  14.680   3.236   3.009
68407SOL    HW2 7061  14.830   3.215   3.008
68408SOL     OW 7062   8.151  10.518   9.916
68408SOL    HW1 7063   8.098  10.462   9.860
68408SOL    HW2 7064   8.113  10.509  10.003
68409SOL     OW 7065   9.154   1.469   0.306
68409SOL    HW1 7066   9.060   1.477   0.295
68409SOL    HW2 7067   9.185   1.558   0.322
68410SOL     OW 7068   1.056  14.778   1.565
68410SOL    HW1 7069   1.080  14.696   1.522
68410SOL    HW2 7070   0.985  14.813   1.511
68411SOL     OW 7071  12.078  11.203   1.233
68411SOL    HW1 7072  12.116  11.279   1.190
68411SOL    HW2 7073  12.138  11.131   1.215
68412SOL     OW 7074  11.398  12.853   3.928
68412SOL    HW1 7075  11.370  12.944   3.915
68412SOL    HW2 7076  11.325  12.800   3.895
68413SOL     OW 7077   6.325  13.599   9.269
68413SOL    HW1 7078   6.353  13.689   9.252
68413SOL    HW2 7079   6.339  13.552   9.187
68414SOL     OW 7080   2.172   6.974   5.296
68414SOL    HW1 7081   2.250   6.965   5.350
68414SOL    HW2 7082   2.114   6.904   5.326
68415SOL     OW 7083   2.346   4.917   0.370
68415SOL    HW1 7084   2.380   4.965   0.294
68415SOL    HW2 7085   2.294   4.846   0.332
68416SOL     OW 7086  11.395  11.972   4.093
68416SOL    HW1 7087  11.352  12.010   4.017
68416SOL    HW2 7088  11.449  12.042   4.128
68417SOL     OW 7089   7.470   9.327   4.869
68417SOL    HW1 7090   7.381   9.352   4.846
68417SOL    HW2 7091   7.469   9.318   4.965
68418SOL     OW 7092   8.585   0.503   7.941
68418SOL    HW1 7093   8.551   0.423   7.982
68418SOL    HW2 7094   8.574   0.571   8.008
68419SOL     OW 7095  12.526   1.004  11.945
68419SOL    HW1 7096  12.432   1.009  11.929
68419SOL    HW2 7097  12.549   0.913  11.923
68420SOL     OW 7098  13.008   9.751   5.745
68420SOL    HW1 7099  12.981   9.678   5.690
68420SOL    HW2 7100  12.927   9.798   5.765
68421SOL     OW 7101   4.582   1.025   1.574
68421SOL    HW1 7102   4.616   1.038   1.663
68421SOL    HW2 7103   4.565   1.113   1.542
68422SOL     OW 7104   6.107  10.630   8.225
68422SOL    HW1 7105   6.047  10.559   8.248
68422SOL    HW2 7106   6.073  10.707   8.271
68423SOL     OW 7107  10.202   6.147   7.605
68423SOL    HW1 7108  10.231   6.121   7.693
68423SOL    HW2 7109  10.106   6.139   7.608
68424SOL     OW 7110   3.968   8.282  14.075
68424SOL    HW1 7111   4.003   8.256  14.160
68424SOL    HW2 7112   3.879   8.313  14.094
68425SOL     OW 7113  10.200  11.949   3.740
68425SOL    HW1 7114  10.152  11.918   3.663
68425SOL    HW2 7115  10.246  12.027   3.709
68426SOL     OW 7116   9.455  11.858   0.984
68426SOL    HW1 7117   9.400  11.872   0.907
68426SOL    HW2 7118   9.397  11.817   1.048
68427SOL     OW 7119   8.319  12.172   6.606
68427SOL    HW1 7120   8.316  12.256   6.560
68427SOL    HW2 7121   8.378  12.118   6.552
68428SOL     OW 7122   3.118   3.788   5.781
68428SOL    HW1 7123   3.169   3.841   5.720
68428SOL    HW2 7124   3.184   3.750   5.840
68429SOL     OW 7125  11.919   6.760   9.953
68429SOL    HW1 7126  11.843   6.750   9.896
68429SOL    HW2 7127  11.882   6.790  10.036
68430SOL     OW 7128   0.667   4.869   3.183
68430SOL    HW1 7129   0.727   4.934   3.220
68430SOL    HW2 7130   0.723   4.793   3.165
68431SOL     OW 7131  13.855   5.857   7.544
68431SOL    HW1 7132  13.783   5.844   7.606
68431SOL    HW2 7133  13.931   5.821   7.589
68432SOL     OW 7134  12.534   7.909   8.703
68432SOL    HW1 7135  12.539   7.926   8.609
68432SOL    HW2 7136  12.453   7.859   8.714
68433SOL     OW 7137   6.963   3.288  13.235
68433SOL    HW1 7138   6.954   3.193  13.250
68433SOL    HW2 7139   7.021   3.295  13.159
68434SOL     OW 7140  12.593  13.834   5.971
68434SOL    HW1 7141  12.645  13.897   6.021
68434SOL    HW2 7142  12.581  13.761   6.032
68435SOL     OW 7143   1.857   0.779   6.049
68435SOL    HW1 7144   1.860   0.718   5.975
68435SOL    HW2 7145   1.939   0.828   6.042
68436SOL     OW 7146   2.693   7.086  13.739
68436SOL    HW1 7147   2.753   7.098  13.812
68436SOL    HW2 7148   2.633   7.161  13.744
68437SOL     OW 7149  11.598  11.683   3.174
68437SOL    HW1 7150  11.629  11.752   3.114
68437SOL    HW2 7151  11.560  11.617   3.116
68438SOL     OW 7152  14.321   9.010   5.266
68438SOL    HW1 7153  14.309   8.918   5.243
68438SOL    HW2 7154  14.273   9.059   5.199
68439SOL     OW 7155   6.594   0.477  11.158
68439SOL    HW1 7156   6.615   0.510  11.246
68439SOL    HW2 7157   6.667   0.419  11.136
68440SOL     OW 7158   6.248   6.761   4.155
68440SOL    HW1 7159   6.275   6.672   4.179
68440SOL    HW2 7160   6.291   6.817   4.219
68441SOL     OW 7161   9.370   5.764   1.426
68441SOL    HW1 7162   9.399   5.742   1.337
68441SOL    HW2 7163   9.311   5.838   1.414
68442SOL     OW 7164  10.242   4.947   5.462
68442SOL    HW1 7165  10.168   4.899   5.425
68442SOL    HW2 7166  10.206   5.032   5.486
68443SOL     OW 7167   2.654   1.118  10.684
68443SOL    HW1 7168   2.573   1.103  10.635
68443SOL    HW2 7169   2.627   1.121  10.775
68444SOL     OW 7170  11.618   4.595   8.223
68444SOL    HW1 7171  11.533   4.559   8.196
68444SOL    HW2 7172  11.596   4.672   8.276
68445SOL     OW 7173   8.247   8.916  12.251
68445SOL    HW1 7174   8.328   8.865  12.246
68445SOL    HW2 7175   8.253   8.963  12.334
68446SOL     OW 7176   3.855   5.374   5.446
68446SOL    HW1 7177   3.804   5.294   5.441
68446SOL    HW2 7178   3.928   5.360   5.386
68447SOL     OW 7179  10.791   5.982  13.550
68447SOL    HW1 7180  10.761   6.072  13.557
68447SOL    HW2 7181  10.710   5.930  13.544
68448SOL     OW 7182   2.248  11.715   1.755
68448SOL    HW1 7183   2.238  11.685   1.846
68448SOL    HW2 7184   2.298  11.796   1.762
68449SOL     OW 7185  11.826   1.964  13.590
68449SOL    HW1 7186  11.859   2.020  13.520
68449SOL    HW2 7187  11.874   1.992  13.668
68450SOL     OW 7188   2.498   3.047  12.018
68450SOL    HW1 7189   2.407   3.034  12.044
68450SOL    HW2 7190   2.512   2.981  11.949
68451SOL     OW 7191  14.073  11.056   3.726
68451SOL    HW1 7192  14.053  11.138   3.772
68451SOL    HW2 7193  14.157  11.028   3.762
68452SOL     OW 7194  14.411  14.530   9.344
68452SOL    HW1 7195  14.327  14.485   9.344
68452SOL    HW2 7196  14.476  14.460   9.346
68453SOL     OW 7197   3.436   0.045   3.196
68453SOL    HW1 7198   3.472   0.054   3.108
68453SOL    HW2 7199   3.358  14.864   3.185
68454SOL     OW 7200  12.139   0.385  14.418
68454SOL    HW1 7201  12.067   0.335  14.380
68454SOL    HW2 7202  12.131   0.472  14.379
68455SOL     OW 7203   9.921   4.630   3.702
68455SOL    HW1 7204   9.847   4.616   3.643
68455SOL    HW2 7205   9.990   4.665   3.646
68456SOL     OW 7206   8.851   4.641  13.353
68456SOL    HW1 7207   8.847   4.651  13.258
68456SOL    HW2 7208   8.939   4.671  13.376
68457SOL     OW 7209  13.824   0.004   7.869
68457SOL    HW1 7210  13.892  14.815   7.844
68457SOL    HW2 7211  13.786  14.840   7.949
68458SOL     OW 7212   6.396   8.304   9.391
68458SOL    HW1 7213   6.347   8.386   9.390
68458SOL    HW2 7214   6.330   8.236   9.405
68459SOL     OW 7215  12.653  13.653   6.171
68459SOL    HW1 7216  12.687  13.647   6.260
68459SOL    HW2 7217  12.719  13.610   6.116
68460SOL     OW 7218   9.532   2.851  10.898
68460SOL    HW1 7219   9.597   2.857  10.969
68460SOL    HW2 7220   9.450   2.830  10.943
68461SOL     OW 7221   6.106  10.620   0.117
68461SOL    HW1 7222   6.055  10.570   0.053
68461SOL    HW2 7223   6.195  10.621   0.081
68462SOL     OW 7224  14.056   0.005  14.837
68462SOL    HW1 7225  14.024   0.026   0.052
68462SOL    HW2 7226  14.000  14.807  14.807
68463SOL     OW 7227   8.380   5.598  14.118
68463SOL    HW1 7228   8.403   5.510  14.089
68463SOL    HW2 7229   8.287   5.608  14.098
68464SOL     OW 7230   6.414  12.316  10.254
68464SOL    HW1 7231   6.384  12.407  10.258
68464SOL    HW2 7232   6.334  12.264  10.268
68465SOL     OW 7233   8.417   5.136   4.678
68465SOL    HW1 7234   8.494   5.180   4.644
68465SOL    HW2 7235   8.424   5.144   4.773
68466SOL     OW 7236  12.803   4.523   6.421
68466SOL    HW1 7237  12.767   4.591   6.477
68466SOL    HW2 7238  12.744   4.520   6.345
68467SOL     OW 7239   2.717   9.106  12.456
68467SOL    HW1 7240   2.707   9.183  12.512
68467SOL    HW2 7241   2.635   9.101  12.407
68468SOL     OW 7242   5.165   7.485  10.928
68468SOL    HW1 7243   5.163   7.437  10.845
68468SOL    HW2 7244   5.242   7.452  10.973
68469SOL     OW 7245   5.046  12.369  12.679
68469SOL    HW1 7246   5.053  12.440  12.615
68469SOL    HW2 7247   4.974  12.396  12.736
68470SOL     OW 7248   5.936   9.452   7.240
68470SOL    HW1 7249   5.981   9.531   7.269
68470SOL    HW2 7250   5.954   9.387   7.308
68471SOL     OW 7251  13.937  11.355   3.509
68471SOL    HW1 7252  13.987  11.434   3.488
68471SOL    HW2 7253  13.993  11.282   3.483
68472SOL     OW 7254   3.839   9.277   5.114
68472SOL    HW1 7255   3.904   9.218   5.076
68472SOL    HW2 7256   3.861   9.282   5.207
68473SOL     OW 7257  10.136  10.554  14.389
68473SOL    HW1 7258  10.091  10.614  14.330
68473SOL    HW2 7259  10.087  10.560  14.471
68474SOL     OW 7260   7.300  10.760   7.906
68474SOL    HW1 7261   7.383  10.718   7.881
68474SOL    HW2 7262   7.309  10.777   8.000
68475SOL     OW 7263   8.617   5.596  11.879
68475SOL    HW1 7264   8.553   5.650  11.832
68475SOL    HW2 7265   8.593   5.506  11.858
68476SOL     OW 7266   4.694  11.775   6.143
68476SOL    HW1 7267   4.626  11.707   6.134
68476SOL    HW2 7268   4.731  11.783   6.055
68477SOL     OW 7269   8.018   6.017   6.876
68477SOL    HW1 7270   8.001   5.992   6.967
68477SOL    HW2 7271   8.024   5.934   6.828
68478SOL     OW 7272   8.320   4.717  12.171
68478SOL    HW1 7273   8.408   4.738  12.140
68478SOL    HW2 7274   8.322   4.737  12.265
68479SOL     OW 7275  13.386  10.473  14.777
68479SOL    HW1 7276  13.355  10.402  14.721
68479SOL    HW2 7277  13.409  10.544  14.716
68480SOL     OW 7278  12.065  13.616   2.666
68480SOL    HW1 7279  12.103  13.528   2.678
68480SOL    HW2 7280  11.992  13.618   2.728
68481SOL     OW 7281   7.011   9.050  14.642
68481SOL    HW1 7282   6.921   9.075  14.665
68481SOL    HW2 7283   7.016   8.957  14.666
68482SOL     OW 7284   4.810   7.118   8.222
68482SOL    HW1 7285   4.886   7.094   8.168
68482SOL    HW2 7286   4.736   7.072   8.182
68483SOL     OW 7287   9.338   3.293   4.340
68483SOL    HW1 7288   9.373   3.206   4.318
68483SOL    HW2 7289   9.315   3.331   4.255
68484SOL     OW 7290   6.422   4.700   9.107
68484SOL    HW1 7291   6.457   4.650   9.034
68484SOL    HW2 7292   6.348   4.648   9.138
68485SOL     OW 7293  12.476   3.931   0.349
68485SOL    HW1 7294  12.402   3.926   0.409
68485SOL    HW2 7295  12.452   3.875   0.275
68486SOL     OW 7296  11.259  12.802   8.156
68486SOL    HW1 7297  11.262  12.736   8.225
68486SOL    HW2 7298  11.351  12.822   8.138
68487SOL     OW 7299  14.837  13.150  14.528
68487SOL    HW1 7300  14.802  13.077  14.476
68487SOL    HW2 7301   0.004  13.209  14.463
68488SOL     OW 7302   7.937  13.536  14.342
68488SOL    HW1 7303   7.917  13.524  14.249
68488SOL    HW2 7304   7.978  13.454  14.368
68489SOL     OW 7305   0.683   4.569   1.390
68489SOL    HW1 7306   0.754   4.596   1.332
68489SOL    HW2 7307   0.715   4.589   1.478
68490SOL     OW 7308   9.865   4.333  10.596
68490SOL    HW1 7309   9.828   4.402  10.651
68490SOL    HW2 7310   9.886   4.377  10.513
68491SOL     OW 7311   2.321  13.121   8.869
68491SOL    HW1 7312   2.312  13.172   8.788
68491SOL    HW2 7313   2.294  13.032   8.845
68492SOL     OW 7314   2.915   0.740   9.356
68492SOL    HW1 7315   2.991   0.705   9.309
68492SOL    HW2 7316   2.848   0.672   9.347
68493SOL     OW 7317   7.608   6.733  13.192
68493SOL    HW1 7318   7.564   6.695  13.268
68493SOL    HW2 7319   7.685   6.678  13.179
68494SOL     OW 7320   6.528   8.750  12.463
68494SOL    HW1 7321   6.554   8.808  12.391
68494SOL    HW2 7322   6.577   8.783  12.538
68495SOL     OW 7323   4.325  12.386   5.179
68495SOL    HW1 7324   4.344  12.434   5.098
68495SOL    HW2 7325   4.402  12.399   5.233
68496SOL     OW 7326   5.087   2.782   4.560
68496SOL    HW1 7327   5.075   2.777   4.655
68496SOL    HW2 7328   5.155   2.848   4.547
68497SOL     OW 7329  13.725   1.756  14.268
68497SOL    HW1 7330  13.818   1.734  14.261
68497SOL    HW2 7331  13.721   1.819  14.340
68498SOL     OW 7332  11.898   7.313   8.215
68498SOL    HW1 7333  11.824   7.345   8.163
68498SOL    HW2 7334  11.858   7.262   8.285
68499SOL     OW 7335  11.946   8.528   0.313
68499SOL    HW1 7336  12.004   8.471   0.364
68499SOL    HW2 7337  11.869   8.540   0.368
68500SOL     OW 7338  12.617   5.087   2.355
68500SOL    HW1 7339  12.700   5.043   2.336
68500SOL    HW2 7340  12.557   5.056   2.287
68501SOL     OW 7341   6.746   9.603  12.274
68501SOL    HW1 7342   6.721   9.633  12.186
68501SOL    HW2 7343   6.663   9.574  12.313
68502SOL     OW 7344  11.470   9.808   4.738
68502SOL    HW1 7345  11.392   9.785   4.787
68502SOL    HW2 7346  11.539   9.817   4.804
68503SOL     OW 7347   1.748  14.143   8.024
68503SOL    HW1 7348   1.700  14.063   8.001
68503SOL    HW2 7349   1.680  14.210   8.034
68504SOL     OW 7350   3.179   4.956   3.711
68504SOL    HW1 7351   3.124   5.028   3.742
68504SOL    HW2 7352   3.117   4.892   3.676
68505SOL     OW 7353  10.264  13.091  12.138
68505SOL    HW1 7354  10.257  13.028  12.210
68505SOL    HW2 7355  10.319  13.047  12.074
68506SOL     OW 7356   2.310   6.095   5.854
68506SOL    HW1 7357   2.306   6.186   5.825
68506SOL    HW2 7358   2.365   6.052   5.789
68507SOL     OW 7359   6.525   0.238   3.797
68507SOL    HW1 7360   6.489   0.296   3.731
68507SOL    HW2 7361   6.573   0.172   3.747
68508SOL     OW 7362   6.697   2.019  11.232
68508SOL    HW1 7363   6.625   1.958  11.243
68508SOL    HW2 7364   6.766   1.986  11.290
68509SOL     OW 7365   6.739   9.707   0.169
68509SOL    HW1 7366   6.675   9.762   0.122
68509SOL    HW2 7367   6.732   9.735   0.260
68510SOL     OW 7368  12.622  11.614   6.007
68510SOL    HW1 7369  12.694  11.602   5.945
68510SOL    HW2 7370  12.548  11.569   5.967
68511SOL     OW 7371  13.069   8.739   8.365
68511SOL    HW1 7372  13.031   8.651   8.375
68511SOL    HW2 7373  13.042   8.786   8.443
68512SOL     OW 7374  11.144  11.249   1.593
68512SOL    HW1 7375  11.165  11.167   1.638
68512SOL    HW2 7376  11.173  11.317   1.653
68513SOL     OW 7377  12.475   2.613   3.524
68513SOL    HW1 7378  12.509   2.650   3.605
68513SOL    HW2 7379  12.515   2.665   3.455
68514SOL     OW 7380   6.692   7.552   5.350
68514SOL    HW1 7381   6.770   7.597   5.380
68514SOL    HW2 7382   6.725   7.479   5.298
68515SOL     OW 7383   8.125   3.890   1.012
68515SOL    HW1 7384   8.136   3.829   0.939
68515SOL    HW2 7385   8.212   3.927   1.026
68516SOL     OW 7386  12.397  14.715   1.555
68516SOL    HW1 7387  12.321  14.677   1.599
68516SOL    HW2 7388  12.463  14.645   1.556
68517SOL     OW 7389   4.355   0.367   6.141
68517SOL    HW1 7390   4.414   0.329   6.205
68517SOL    HW2 7391   4.366   0.462   6.151
68518SOL     OW 7392  11.507  11.798   1.450
68518SOL    HW1 7393  11.533  11.874   1.397
68518SOL    HW2 7394  11.580  11.783   1.510
68519SOL     OW 7395   8.282  14.007  12.955
68519SOL    HW1 7396   8.225  13.930  12.952
68519SOL    HW2 7397   8.314  14.016  12.865
68520SOL     OW 7398  11.006  14.598   4.027
68520SOL    HW1 7399  11.015  14.651   3.948
68520SOL    HW2 7400  11.095  14.577   4.053
68521SOL     OW 7401  10.164  10.985  12.168
68521SOL    HW1 7402  10.071  11.006  12.177
68521SOL    HW2 7403  10.202  11.059  12.121
68522SOL     OW 7404   2.961  11.221   1.235
68522SOL    HW1 7405   2.870  11.209   1.205
68522SOL    HW2 7406   3.014  11.179   1.167
68523SOL     OW 7407  14.519  14.628   7.411
68523SOL    HW1 7408  14.562  14.687   7.473
68523SOL    HW2 7409  14.464  14.572   7.465
68524SOL     OW 7410   6.699   5.544   0.098
68524SOL    HW1 7411   6.698   5.566   0.191
68524SOL    HW2 7412   6.608   5.546   0.071
68525SOL     OW 7413  10.236   5.558   6.502
68525SOL    HW1 7414  10.328   5.560   6.474
68525SOL    HW2 7415  10.240   5.525   6.592
68526SOL     OW 7416  10.618   0.862   3.459
68526SOL    HW1 7417  10.545   0.922   3.448
68526SOL    HW2 7418  10.599   0.816   3.541
68527SOL     OW 7419   6.800   8.472  13.651
68527SOL    HW1 7420   6.820   8.379  13.640
68527SOL    HW2 7421   6.785   8.482  13.745
68528SOL     OW 7422   1.355   8.173  11.831
68528SOL    HW1 7423   1.272   8.220  11.821
68528SOL    HW2 7424   1.422   8.236  11.808
68529SOL     OW 7425  12.219   7.855   2.885
68529SOL    HW1 7426  12.142   7.832   2.833
68529SOL    HW2 7427  12.277   7.779   2.876
68530SOL     OW 7428  10.584  10.621   7.372
68530SOL    HW1 7429  10.617  10.539   7.407
68530SOL    HW2 7430  10.587  10.609   7.277
68531SOL     OW 7431  12.691  11.518   6.256
68531SOL    HW1 7432  12.650  11.435   6.231
68531SOL    HW2 7433  12.682  11.574   6.179
68532SOL     OW 7434   6.230  11.698  11.573
68532SOL    HW1 7435   6.316  11.680  11.534
68532SOL    HW2 7436   6.234  11.657  11.659
68533SOL     OW 7437   6.329   9.169   6.825
68533SOL    HW1 7438   6.313   9.262   6.808
68533SOL    HW2 7439   6.263   9.123   6.773
68534SOL     OW 7440   7.361   9.621   1.608
68534SOL    HW1 7441   7.318   9.536   1.606
68534SOL    HW2 7442   7.335   9.658   1.693
68535SOL     OW 7443   5.877  14.094  14.696
68535SOL    HW1 7444   5.917  14.038  14.628
68535SOL    HW2 7445   5.797  14.127  14.656
68536SOL     OW 7446  14.329  12.831   9.313
68536SOL    HW1 7447  14.321  12.879   9.230
68536SOL    HW2 7448  14.347  12.899   9.378
68537SOL     OW 7449   8.109   7.180   7.298
68537SOL    HW1 7450   8.086   7.269   7.272
68537SOL    HW2 7451   8.070   7.170   7.385
68538SOL     OW 7452   6.491  14.146   8.821
68538SOL    HW1 7453   6.514  14.178   8.734
68538SOL    HW2 7454   6.528  14.211   8.881
68539SOL     OW 7455   3.720   9.701  13.546
68539SOL    HW1 7456   3.719   9.796  13.537
68539SOL    HW2 7457   3.666   9.683  13.622
68540SOL     OW 7458   7.814   5.313   7.074
68540SOL    HW1 7459   7.858   5.393   7.045
68540SOL    HW2 7460   7.739   5.344   7.123
68541SOL     OW 7461  12.454  11.121  10.286
68541SOL    HW1 7462  12.470  11.152  10.197
68541SOL    HW2 7463  12.365  11.084  10.283
68542SOL     OW 7464  11.419   3.714   9.381
68542SOL    HW1 7465  11.353   3.652   9.413
68542SOL    HW2 7466  11.500   3.663   9.376
68543SOL     OW 7467   0.787  14.813   7.323
68543SOL    HW1 7468   0.819   0.015   7.273
68543SOL    HW2 7469   0.732  14.852   7.391
68544SOL     OW 7470  13.069   0.826   1.191
68544SOL    HW1 7471  13.073   0.909   1.144
68544SOL    HW2 7472  13.047   0.850   1.281
68545SOL     OW 7473   4.723  12.106  11.964
68545SOL    HW1 7474   4.796  12.153  11.923
68545SOL    HW2 7475   4.759  12.020  11.987
68546SOL     OW 7476  11.467  12.358   7.979
68546SOL    HW1 7477  11.492  12.267   7.964
68546SOL    HW2 7478  11.372  12.360   7.964
68547SOL     OW 7479  10.336  10.886   8.494
68547SOL    HW1 7480  10.421  10.928   8.484
68547SOL    HW2 7481  10.296  10.891   8.407
68548SOL     OW 7482   9.383  14.661  13.550
68548SOL    HW1 7483   9.329  14.720  13.603
68548SOL    HW2 7484   9.396  14.708  13.468
68549SOL     OW 7485   5.567   2.108   0.233
68549SOL    HW1 7486   5.654   2.090   0.199
68549SOL    HW2 7487   5.566   2.203   0.248
68550SOL     OW 7488  10.380   1.247  12.147
68550SOL    HW1 7489  10.320   1.314  12.114
68550SOL    HW2 7490  10.346   1.165  12.113
68551SOL     OW 7491   4.641   4.852   9.385
68551SOL    HW1 7492   4.587   4.774   9.392
68551SOL    HW2 7493   4.621   4.903   9.464
68552SOL     OW 7494  10.593   1.182  13.776
68552SOL    HW1 7495  10.608   1.108  13.718
68552SOL    HW2 7496  10.522   1.232  13.735
68553SOL     OW 7497  14.798   5.016  10.911
68553SOL    HW1 7498  14.708   4.999  10.939
68553SOL    HW2 7499  14.792   5.028  10.816
68554SOL     OW 7500   9.376   7.295  14.283
68554SOL    HW1 7501   9.390   7.260  14.372
68554SOL    HW2 7502   9.295   7.346  14.290
68555SOL     OW 7503   2.134  10.200   6.571
68555SOL    HW1 7504   2.102  10.217   6.482
68555SOL    HW2 7505   2.118  10.106   6.585
68556SOL     OW 7506  12.624  12.574   2.543
68556SOL    HW1 7507  12.572  12.619   2.476
68556SOL    HW2 7508  12.566  12.505   2.576
68557SOL     OW 7509   0.469   1.888   5.960
68557SOL    HW1 7510   0.536   1.833   6.002
68557SOL    HW2 7511   0.403   1.826   5.930
68558SOL     OW 7512  10.336   7.064   7.752
68558SOL    HW1 7513  10.296   7.038   7.670
68558SOL    HW2 7514  10.264   7.070   7.814
68559SOL     OW 7515   7.259   0.971   4.507
68559SOL    HW1 7516   7.276   0.895   4.562
68559SOL    HW2 7517   7.343   1.016   4.501
68560SOL     OW 7518   6.937  12.337   5.603
68560SOL    HW1 7519   6.911  12.303   5.517
68560SOL    HW2 7520   7.014  12.287   5.627
68561SOL     OW 7521   6.190   2.506  13.277
68561SOL    HW1 7522   6.215   2.549  13.195
68561SOL    HW2 7523   6.244   2.428  13.281
68562SOL     OW 7524  11.110  14.665   9.592
68562SOL    HW1 7525  11.198  14.703   9.598
68562SOL    HW2 7526  11.110  14.619   9.508
68563SOL     OW 7527   4.701   0.987   4.187
68563SOL    HW1 7528   4.767   1.056   4.196
68563SOL    HW2 7529   4.750   0.913   4.149
68564SOL     OW 7530   3.365   1.331   2.968
68564SOL    HW1 7531   3.372   1.325   2.872
68564SOL    HW2 7532   3.313   1.410   2.983
68565SOL     OW 7533   1.980  11.576  10.244
68565SOL    HW1 7534   1.945  11.488  10.258
68565SOL    HW2 7535   2.063  11.563  10.197
68566SOL     OW 7536   9.701  11.700   4.159
68566SOL    HW1 7537   9.659  11.635   4.103
68566SOL    HW2 7538   9.786  11.661   4.181
68567SOL     OW 7539   6.539   9.707   5.613
68567SOL    HW1 7540   6.450   9.715   5.577
68567SOL    HW2 7541   6.595   9.697   5.537
68568SOL     OW 7542  10.414   2.812   3.679
68568SOL    HW1 7543  10.446   2.864   3.753
68568SOL    HW2 7544  10.483   2.748   3.662
68569SOL     OW 7545   1.120  14.007   7.312
68569SOL    HW1 7546   1.085  13.987   7.399
68569SOL    HW2 7547   1.044  14.032   7.260
68570SOL     OW 7548   1.471  10.881   6.719
68570SOL    HW1 7549   1.387  10.844   6.691
68570SOL    HW2 7550   1.518  10.807   6.757
68571SOL     OW 7551   7.792   5.212   5.528
68571SOL    HW1 7552   7.867   5.213   5.587
68571SOL    HW2 7553   7.800   5.292   5.477
68572SOL     OW 7554  13.671   7.928   5.050
68572SOL    HW1 7555  13.628   7.873   4.985
68572SOL    HW2 7556  13.600   7.960   5.106
68573SOL     OW 7557   5.682   3.177   5.692
68573SOL    HW1 7558   5.690   3.083   5.677
68573SOL    HW2 7559   5.750   3.216   5.637
68574SOL     OW 7560   0.118   8.865   8.046
68574SOL    HW1 7561   0.191   8.908   8.092
68574SOL    HW2 7562   0.160   8.802   7.988
68575SOL     OW 7563   9.690  11.408  10.999
68575SOL    HW1 7564   9.764  11.441  11.050
68575SOL    HW2 7565   9.646  11.487  10.967
68576SOL     OW 7566  10.886  13.818  11.137
68576SOL    HW1 7567  10.801  13.811  11.178
68576SOL    HW2 7568  10.867  13.831  11.044
68577SOL     OW 7569   6.637   4.775   4.145
68577SOL    HW1 7570   6.683   4.840   4.092
68577SOL    HW2 7571   6.561   4.750   4.092
68578SOL     OW 7572   8.189  13.025   2.127
68578SOL    HW1 7573   8.118  13.086   2.107
68578SOL    HW2 7574   8.145  12.942   2.146
68579SOL     OW 7575   8.129   8.354  13.259
68579SOL    HW1 7576   8.053   8.397  13.299
68579SOL    HW2 7577   8.110   8.260  13.266
68580SOL     OW 7578   5.273   6.806  10.884
68580SOL    HW1 7579   5.329   6.880  10.908
68580SOL    HW2 7580   5.327   6.729  10.899
68581SOL     OW 7581   8.843   9.517   2.138
68581SOL    HW1 7582   8.905   9.585   2.163
68581SOL    HW2 7583   8.882   9.476   2.061
68582SOL     OW 7584   7.435   7.437   9.747
68582SOL    HW1 7585   7.385   7.365   9.786
68582SOL    HW2 7586   7.456   7.407   9.659
68583SOL     OW 7587   9.090  10.440   8.326
68583SOL    HW1 7588   9.081  10.440   8.421
68583SOL    HW2 7589   9.171  10.490   8.311
68584SOL     OW 7590   4.295   2.171   1.517
68584SOL    HW1 7591   4.362   2.113   1.482
68584SOL    HW2 7592   4.224   2.168   1.452
68585SOL     OW 7593  13.491   9.819  14.016
68585SOL    HW1 7594  13.540   9.771  13.950
68585SOL    HW2 7595  13.405   9.834  13.975
68586SOL     OW 7596  13.045   7.780   3.078
68586SOL    HW1 7597  13.111   7.730   3.127
68586SOL    HW2 7598  13.085   7.866   3.065
68587SOL     OW 7599  11.375   7.188  12.690
68587SOL    HW1 7600  11.316   7.116  12.671
68587SOL    HW2 7601  11.341   7.262  12.640
68588SOL     OW 7602   6.012   6.141   1.658
68588SOL    HW1 7603   5.977   6.218   1.612
68588SOL    HW2 7604   5.945   6.073   1.646
68589SOL     OW 7605   0.162   8.537   5.387
68589SOL    HW1 7606   0.182   8.627   5.413
68589SOL    HW2 7607   0.151   8.490   5.469
68590SOL     OW 7608   7.220  10.609   6.512
68590SOL    HW1 7609   7.216  10.580   6.421
68590SOL    HW2 7610   7.175  10.694   6.512
68591SOL     OW 7611   6.673   9.851   7.995
68591SOL    HW1 7612   6.609   9.888   8.055
68591SOL    HW2 7613   6.738   9.808   8.051
68592SOL     OW 7614   4.029   0.598   9.548
68592SOL    HW1 7615   4.103   0.651   9.577
68592SOL    HW2 7616   4.023   0.528   9.614
68593SOL     OW 7617   8.968  14.583   7.428
68593SOL    HW1 7618   8.967  14.531   7.508
68593SOL    HW2 7619   8.876  14.604   7.411
68594SOL     OW 7620   7.305   3.543  11.885
68594SOL    HW1 7621   7.366   3.482  11.926
68594SOL    HW2 7622   7.353   3.625  11.880
68595SOL     OW 7623   4.405   2.927  12.440
68595SOL    HW1 7624   4.359   2.852  12.479
68595SOL    HW2 7625   4.418   2.903  12.349
68596SOL     OW 7626   8.765  11.322   1.194
68596SOL    HW1 7627   8.686  11.376   1.182
68596SOL    HW2 7628   8.759  11.255   1.126
68597SOL     OW 7629  13.841   5.770  14.603
68597SOL    HW1 7630  13.796   5.855  14.604
68597SOL    HW2 7631  13.814   5.730  14.521
68598SOL     OW 7632   5.168  14.452  14.081
68598SOL    HW1 7633   5.148  14.541  14.110
68598SOL    HW2 7634   5.196  14.406  14.160
68599SOL     OW 7635   3.129   2.973   3.028
68599SOL    HW1 7636   3.088   3.050   2.988
68599SOL    HW2 7637   3.087   2.966   3.114
68600SOL     OW 7638   1.828   6.654   9.467
68600SOL    HW1 7639   1.900   6.679   9.525
68600SOL    HW2 7640   1.778   6.735   9.454
68601SOL     OW 7641   8.514   0.933   0.837
68601SOL    HW1 7642   8.536   0.909   0.747
68601SOL    HW2 7643   8.520   0.850   0.886
68602SOL     OW 7644  11.792   5.991   8.986
68602SOL    HW1 7645  11.866   5.987   9.047
68602SOL    HW2 7646  11.832   6.017   8.903
68603SOL     OW 7647   2.481   1.011   9.362
68603SOL    HW1 7648   2.574   0.992   9.374
68603SOL    HW2 7649   2.450   0.941   9.305
68604SOL     OW 7650   4.036   4.882  12.044
68604SOL    HW1 7651   4.094   4.945  12.000
68604SOL    HW2 7652   4.057   4.798  12.004
68605SOL     OW 7653   5.602  10.171   3.767
68605SOL    HW1 7654   5.621  10.258   3.802
68605SOL    HW2 7655   5.508  10.159   3.783
68606SOL     OW 7656   7.596  11.944  12.674
68606SOL    HW1 7657   7.595  12.004  12.600
68606SOL    HW2 7658   7.688  11.921  12.685
68607SOL     OW 7659   5.173  12.637   0.715
68607SOL    HW1 7660   5.143  12.590   0.637
68607SOL    HW2 7661   5.227  12.573   0.762
68608SOL     OW 7662   6.585   6.641   1.541
68608SOL    HW1 7663   6.591   6.558   1.494
68608SOL    HW2 7664   6.498   6.675   1.518
68609SOL     OW 7665   0.666   5.921  12.397
68609SOL    HW1 7666   0.631   5.869  12.469
68609SOL    HW2 7667   0.686   6.006  12.437
68610SOL     OW 7668   4.039   5.213   7.778
68610SOL    HW1 7669   3.982   5.289   7.776
68610SOL    HW2 7670   4.087   5.221   7.860
68611SOL     OW 7671   4.609  13.463   2.048
68611SOL    HW1 7672   4.564  13.430   1.970
68611SOL    HW2 7673   4.619  13.386   2.104
68612SOL     OW 7674  14.068  10.845  13.876
68612SOL    HW1 7675  14.098  10.918  13.822
68612SOL    HW2 7676  14.070  10.770  13.817
68613SOL     OW 7677   5.531   7.150   2.853
68613SOL    HW1 7678   5.513   7.056   2.849
68613SOL    HW2 7679   5.563   7.172   2.766
68614SOL     OW 7680  13.755   5.072  10.258
68614SOL    HW1 7681  13.734   5.021  10.180
68614SOL    HW2 7682  13.768   5.161  10.225
68615SOL     OW 7683  14.007   6.056  13.014
68615SOL    HW1 7684  13.990   5.996  13.086
68615SOL    HW2 7685  14.100   6.076  13.022
68616SOL     OW 7686   5.966   7.980  12.932
68616SOL    HW1 7687   6.026   7.909  12.954
68616SOL    HW2 7688   5.886   7.936  12.902
68617SOL     OW 7689   1.576  10.617   8.427
68617SOL    HW1 7690   1.548  10.704   8.399
68617SOL    HW2 7691   1.545  10.559   8.357
68618SOL     OW 7692   6.372   7.474   0.216
68618SOL    HW1 7693   6.315   7.403   0.246
68618SOL    HW2 7694   6.328   7.554   0.246
68619SOL     OW 7695   9.242   6.667   8.527
68619SOL    HW1 7696   9.336   6.649   8.526
68619SOL    HW2 7697   9.227   6.715   8.609
68620SOL     OW 7698   7.752  11.478   3.211
68620SOL    HW1 7699   7.815  11.408   3.228
68620SOL    HW2 7700   7.668  11.444   3.242
68621SOL     OW 7701   0.128   0.836   8.378
68621SOL    HW1 7702   0.096   0.865   8.292
68621SOL    HW2 7703   0.190   0.904   8.404
68622SOL     OW 7704   2.909   3.578   3.608
68622SOL    HW1 7705   2.924   3.484   3.617
68622SOL    HW2 7706   2.882   3.606   3.696
68623SOL     OW 7707  13.297   4.289   0.389
68623SOL    HW1 7708  13.298   4.361   0.452
68623SOL    HW2 7709  13.383   4.248   0.398
68624SOL     OW 7710  12.259  11.956   5.249
68624SOL    HW1 7711  12.225  11.958   5.338
68624SOL    HW2 7712  12.236  11.869   5.216
68625SOL     OW 7713  11.863   1.847   0.955
68625SOL    HW1 7714  11.864   1.890   0.869
68625SOL    HW2 7715  11.949   1.867   0.993
68626SOL     OW 7716  13.404   0.968  12.489
68626SOL    HW1 7717  13.337   1.025  12.451
68626SOL    HW2 7718  13.368   0.942  12.574
68627SOL     OW 7719  12.266  13.744   8.201
68627SOL    HW1 7720  12.303  13.675   8.256
68627SOL    HW2 7721  12.318  13.822   8.221
68628SOL     OW 7722   1.149   2.287   7.090
68628SOL    HW1 7723   1.116   2.375   7.112
68628SOL    HW2 7724   1.140   2.237   7.170
68629SOL     OW 7725  12.468   8.469   8.828
68629SOL    HW1 7726  12.387   8.419   8.835
68629SOL    HW2 7727  12.471   8.521   8.909
68630SOL     OW 7728   9.982   3.654   4.352
68630SOL    HW1 7729  10.002   3.565   4.382
68630SOL    HW2 7730   9.890   3.651   4.325
68631SOL     OW 7731   3.753   9.154  12.553
68631SOL    HW1 7732   3.738   9.121  12.464
68631SOL    HW2 7733   3.842   9.124  12.575
68632SOL     OW 7734   3.324   7.030   2.253
68632SOL    HW1 7735   3.311   7.006   2.161
68632SOL    HW2 7736   3.352   6.949   2.294
68633SOL     OW 7737  10.108   8.337   4.564
68633SOL    HW1 7738  10.028   8.284   4.566
68633SOL    HW2 7739  10.178   8.273   4.550
68634SOL     OW 7740   7.624   9.437  10.514
68634SOL    HW1 7741   7.701   9.400  10.471
68634SOL    HW2 7742   7.587   9.497  10.449
68635SOL     OW 7743   1.388  13.733   4.409
68635SOL    HW1 7744   1.391  13.767   4.498
68635SOL    HW2 7745   1.342  13.801   4.359
68636SOL     OW 7746  11.741  10.398   0.344
68636SOL    HW1 7747  11.822  10.405   0.395
68636SOL    HW2 7748  11.699  10.484   0.353
68637SOL     OW 7749   6.729   0.530  13.149
68637SOL    HW1 7750   6.816   0.571  13.153
68637SOL    HW2 7751   6.694   0.557  13.064
68638SOL     OW 7752   4.579   9.436   3.219
68638SOL    HW1 7753   4.631   9.406   3.294
68638SOL    HW2 7754   4.629   9.510   3.184
68639SOL     OW 7755   4.343   2.962   9.946
68639SOL    HW1 7756   4.342   3.035   9.884
68639SOL    HW2 7757   4.434   2.955   9.974
68640SOL     OW 7758   7.123  10.256  11.446
68640SOL    HW1 7759   7.148  10.163  11.442
68640SOL    HW2 7760   7.029  10.254  11.464
68641SOL     OW 7761  12.929  10.217   9.076
68641SOL    HW1 7762  12.978  10.287   9.119
68641SOL    HW2 7763  12.839  10.229   9.106
68642SOL     OW 7764   0.311   1.848   6.429
68642SOL    HW1 7765   0.225   1.835   6.470
68642SOL    HW2 7766   0.297   1.825   6.337
68643SOL     OW 7767   0.802   2.613   8.339
68643SOL    HW1 7768   0.799   2.669   8.417
68643SOL    HW2 7769   0.710   2.595   8.320
68644SOL     OW 7770   0.443   1.653   3.449
68644SOL    HW1 7771   0.416   1.602   3.373
68644SOL    HW2 7772   0.513   1.603   3.489
68645SOL     OW 7773   4.973  11.882   0.043
68645SOL    HW1 7774   4.996  11.868  14.824
68645SOL    HW2 7775   4.987  11.975   0.058
68646SOL     OW 7776  10.935   9.128   0.760
68646SOL    HW1 7777  11.011   9.127   0.702
68646SOL    HW2 7778  10.922   9.220   0.782
68647SOL     OW 7779   7.943   4.030  10.780
68647SOL    HW1 7780   7.960   4.098  10.715
68647SOL    HW2 7781   7.931   4.078  10.862
68648SOL     OW 7782  11.731  11.607  10.843
68648SOL    HW1 7783  11.794  11.656  10.790
68648SOL    HW2 7784  11.745  11.516  10.817
68649SOL     OW 7785  14.596   4.554  13.150
68649SOL    HW1 7786  14.656   4.590  13.215
68649SOL    HW2 7787  14.653   4.528  13.077
68650SOL     OW 7788   0.561  14.280  10.358
68650SOL    HW1 7789   0.569  14.352  10.296
68650SOL    HW2 7790   0.497  14.221  10.317
68651SOL     OW 7791  13.387   1.000  10.989
68651SOL    HW1 7792  13.321   1.020  10.922
68651SOL    HW2 7793  13.397   1.082  11.037
68652SOL     OW 7794   5.969   0.464  10.119
68652SOL    HW1 7795   6.001   0.550  10.091
68652SOL    HW2 7796   5.945   0.419  10.038
68653SOL     OW 7797   6.420   2.688   3.975
68653SOL    HW1 7798   6.470   2.770   3.973
68653SOL    HW2 7799   6.331   2.714   3.997
68654SOL     OW 7800   3.837  12.628  12.214
68654SOL    HW1 7801   3.828  12.715  12.254
68654SOL    HW2 7802   3.825  12.644  12.120
68655SOL     OW 7803   5.533   0.545   3.474
68655SOL    HW1 7804   5.514   0.617   3.414
68655SOL    HW2 7805   5.447   0.511   3.499
68656SOL     OW 7806   6.914  13.284   8.309
68656SOL    HW1 7807   6.983  13.284   8.243
68656SOL    HW2 7808   6.861  13.360   8.288
68657SOL     OW 7809   6.539  10.027   3.261
68657SOL    HW1 7810   6.504   9.945   3.224
68657SOL    HW2 7811   6.492  10.096   3.214
68658SOL     OW 7812   5.228   8.927   4.403
68658SOL    HW1 7813   5.151   8.876   4.429
68658SOL    HW2 7814   5.302   8.868   4.420
68659SOL     OW 7815  14.482   1.729   1.031
68659SOL    HW1 7816  14.534   1.682   0.966
68659SOL    HW2 7817  14.504   1.821   1.017
68660SOL     OW 7818   0.825   6.086   4.257
68660SOL    HW1 7819   0.849   6.018   4.320
68660SOL    HW2 7820   0.854   6.052   4.172
68661SOL     OW 7821   9.634   0.079   4.710
68661SOL    HW1 7822   9.583   0.043   4.782
68661SOL    HW2 7823   9.724   0.077   4.740
68662SOL     OW 7824  10.280   1.091   0.154
68662SOL    HW1 7825  10.281   1.169   0.210
68662SOL    HW2 7826  10.240   1.122   0.072
68663SOL     OW 7827  12.914  12.242  13.546
68663SOL    HW1 7828  12.822  12.257  13.524
68663SOL    HW2 7829  12.962  12.269  13.468
68664SOL     OW 7830   1.153  10.700   0.259
68664SOL    HW1 7831   1.133  10.618   0.305
68664SOL    HW2 7832   1.103  10.694   0.178
68665SOL     OW 7833   6.792  12.142   1.208
68665SOL    HW1 7834   6.825  12.194   1.282
68665SOL    HW2 7835   6.796  12.201   1.133
68666SOL     OW 7836  12.680  12.904   9.239
68666SOL    HW1 7837  12.595  12.862   9.248
68666SOL    HW2 7838  12.664  12.997   9.257
68667SOL     OW 7839   4.386   8.301   4.834
68667SOL    HW1 7840   4.321   8.232   4.825
68667SOL    HW2 7841   4.389   8.321   4.927
68668SOL     OW 7842   6.448   3.130   9.902
68668SOL    HW1 7843   6.437   3.041   9.935
68668SOL    HW2 7844   6.360   3.156   9.874
68669SOL     OW 7845   0.978   7.833  13.239
68669SOL    HW1 7846   1.044   7.779  13.283
68669SOL    HW2 7847   1.022   7.917  13.224
68670SOL     OW 7848   4.785   6.130  11.344
68670SOL    HW1 7849   4.702   6.084  11.330
68670SOL    HW2 7850   4.852   6.063  11.332
68671SOL     OW 7851  13.456   9.987   0.044
68671SOL    HW1 7852  13.490   9.948   0.124
68671SOL    HW2 7853  13.494  10.075   0.042
68672SOL     OW 7854   9.824  12.204   0.522
68672SOL    HW1 7855   9.888  12.273   0.534
68672SOL    HW2 7856   9.826  12.154   0.603
68673SOL     OW 7857   0.306   9.656   1.436
68673SOL    HW1 7858   0.341   9.629   1.521
68673SOL    HW2 7859   0.379   9.644   1.375
68674SOL     OW 7860   5.875   8.749  11.287
68674SOL    HW1 7861   5.840   8.831  11.252
68674SOL    HW2 7862   5.868   8.759  11.382
68675SOL     OW 7863  11.194   8.488  10.533
68675SOL    HW1 7864  11.278   8.512  10.495
68675SOL    HW2 7865  11.215   8.418  10.595
68676SOL     OW 7866   0.939   6.177  10.327
68676SOL    HW1 7867   0.975   6.264  10.341
68676SOL    HW2 7868   0.889   6.184  10.246
68677SOL     OW 7869   5.310   3.526  12.372
68677SOL    HW1 7870   5.353   3.587  12.431
68677SOL    HW2 7871   5.355   3.442  12.386
68678SOL     OW 7872  11.821   4.950   1.612
68678SOL    HW1 7873  11.857   4.945   1.523
68678SOL    HW2 7874  11.747   4.889   1.611
68679SOL     OW 7875   1.757   4.257  14.484
68679SOL    HW1 7876   1.838   4.306  14.496
68679SOL    HW2 7877   1.786   4.167  14.465
68680SOL     OW 7878   0.921  12.751  12.792
68680SOL    HW1 7879   0.997  12.804  12.769
68680SOL    HW2 7880   0.857  12.813  12.826
68681SOL     OW 7881   0.541  10.883   9.111
68681SOL    HW1 7882   0.631  10.909   9.131
68681SOL    HW2 7883   0.541  10.788   9.119
68682SOL     OW 7884  13.603   9.982   1.129
68682SOL    HW1 7885  13.589  10.013   1.040
68682SOL    HW2 7886  13.689  10.016   1.154
68683SOL     OW 7887   8.095  11.016  14.238
68683SOL    HW1 7888   8.170  11.041  14.292
68683SOL    HW2 7889   8.072  10.928  14.269
68684SOL     OW 7890   0.105   9.307   8.504
68684SOL    HW1 7891   0.170   9.373   8.479
68684SOL    HW2 7892   0.148   9.256   8.572
68685SOL     OW 7893  13.714   6.015   8.777
68685SOL    HW1 7894  13.721   5.958   8.701
68685SOL    HW2 7895  13.805   6.032   8.802
68686SOL     OW 7896   7.747   8.420  13.943
68686SOL    HW1 7897   7.659   8.451  13.965
68686SOL    HW2 7898   7.797   8.499  13.922
68687SOL     OW 7899   7.490   0.628   3.314
68687SOL    HW1 7900   7.544   0.616   3.236
68687SOL    HW2 7901   7.401   0.635   3.280
68688SOL     OW 7902   5.464  11.577  12.885
68688SOL    HW1 7903   5.468  11.482  12.894
68688SOL    HW2 7904   5.519  11.610  12.957
68689SOL     OW 7905   5.757   0.230  10.208
68689SOL    HW1 7906   5.825   0.298  10.200
68689SOL    HW2 7907   5.716   0.227  10.122
68690SOL     OW 7908   2.694  12.363   0.020
68690SOL    HW1 7909   2.645  12.404  14.822
68690SOL    HW2 7910   2.765  12.316  14.850
68691SOL     OW 7911  10.468  13.887   5.400
68691SOL    HW1 7912  10.477  13.800   5.361
68691SOL    HW2 7913  10.558  13.918   5.413
68692SOL     OW 7914  11.721   4.330   6.625
68692SOL    HW1 7915  11.792   4.322   6.561
68692SOL    HW2 7916  11.744   4.269   6.695
68693SOL     OW 7917   6.006   6.943   6.590
68693SOL    HW1 7918   6.080   6.892   6.557
68693SOL    HW2 7919   5.929   6.893   6.565
68694SOL     OW 7920  14.021   0.392   5.828
68694SOL    HW1 7921  13.959   0.390   5.901
68694SOL    HW2 7922  14.103   0.420   5.868
68695SOL     OW 7923  12.031   6.121   1.673
68695SOL    HW1 7924  12.086   6.046   1.653
68695SOL    HW2 7925  12.011   6.112   1.767
68696SOL     OW 7926  13.182   3.719  12.502
68696SOL    HW1 7927  13.240   3.792  12.480
68696SOL    HW2 7928  13.237   3.641  12.490
68697SOL     OW 7929   9.460   9.377   5.993
68697SOL    HW1 7930   9.517   9.300   5.994
68697SOL    HW2 7931   9.383   9.350   6.044
68698SOL     OW 7932   5.415  14.085   9.289
68698SOL    HW1 7933   5.350  14.018   9.310
68698SOL    HW2 7934   5.485  14.037   9.245
68699SOL     OW 7935   8.828  10.978  12.399
68699SOL    HW1 7936   8.765  10.924  12.352
68699SOL    HW2 7937   8.794  11.067  12.392
68700SOL     OW 7938   1.602   0.766   4.133
68700SOL    HW1 7939   1.634   0.848   4.170
68700SOL    HW2 7940   1.512   0.758   4.165
68701SOL     OW 7941   1.732   7.301   1.017
68701SOL    HW1 7942   1.705   7.368   1.080
68701SOL    HW2 7943   1.826   7.291   1.031
68702SOL     OW 7944   2.696   9.295   5.692
68702SOL    HW1 7945   2.617   9.251   5.662
68702SOL    HW2 7946   2.685   9.301   5.787
68703SOL     OW 7947   7.760   3.792   8.484
68703SOL    HW1 7948   7.759   3.856   8.555
68703SOL    HW2 7949   7.718   3.836   8.410
68704SOL     OW 7950   7.976  12.697   0.915
68704SOL    HW1 7951   7.985  12.675   0.822
68704SOL    HW2 7952   7.890  12.665   0.940
68705SOL     OW 7953  14.763   5.796   9.109
68705SOL    HW1 7954  14.854   5.814   9.134
68705SOL    HW2 7955  14.755   5.834   9.022
68706SOL     OW 7956   6.212   3.843   5.430
68706SOL    HW1 7957   6.155   3.906   5.474
68706SOL    HW2 7958   6.154   3.770   5.409
68707SOL     OW 7959   2.390   5.156   8.389
68707SOL    HW1 7960   2.391   5.097   8.464
68707SOL    HW2 7961   2.426   5.103   8.317
68708SOL     OW 7962  12.017  11.713   1.652
68708SOL    HW1 7963  11.956  11.721   1.579
68708SOL    HW2 7964  12.008  11.796   1.700
68709SOL     OW 7965  10.707   8.114  11.389
68709SOL    HW1 7966  10.802   8.120  11.380
68709SOL    HW2 7967  10.673   8.174  11.323
68710SOL     OW 7968   1.616  11.164   4.607
68710SOL    HW1 7969   1.611  11.242   4.661
68710SOL    HW2 7970   1.689  11.114   4.643
68711SOL     OW 7971  10.572  13.367   0.321
68711SOL    HW1 7972  10.638  13.436   0.313
68711SOL    HW2 7973  10.537  13.379   0.409
68712SOL     OW 7974   9.187   7.527   5.430
68712SOL    HW1 7975   9.276   7.526   5.396
68712SOL    HW2 7976   9.150   7.444   5.402
68713SOL     OW 7977  12.608  11.812   6.566
68713SOL    HW1 7978  12.690  11.813   6.518
68713SOL    HW2 7979  12.616  11.739   6.627
68714SOL     OW 7980   8.369  10.489   3.817
68714SOL    HW1 7981   8.341  10.505   3.907
68714SOL    HW2 7982   8.461  10.513   3.815
68715SOL     OW 7983   1.629   8.833   1.448
68715SOL    HW1 7984   1.707   8.878   1.414
68715SOL    HW2 7985   1.566   8.838   1.376
68716SOL     OW 7986   9.206   3.179  13.735
68716SOL    HW1 7987   9.246   3.098  13.703
68716SOL    HW2 7988   9.176   3.158  13.823
68717SOL     OW 7989  12.428  11.188   0.084
68717SOL    HW1 7990  12.348  11.136   0.094
68717SOL    HW2 7991  12.405  11.274   0.119
68718SOL     OW 7992  11.930   5.484  14.682
68718SOL    HW1 7993  11.963   5.473  14.771
68718SOL    HW2 7994  11.859   5.420  14.675
68719SOL     OW 7995   1.919   5.952  13.348
68719SOL    HW1 7996   1.882   5.901  13.277
68719SOL    HW2 7997   1.972   6.019  13.304
68720SOL     OW 7998   6.054  10.138  12.900
68720SOL    HW1 7999   6.042  10.170  12.990
68720SOL    HW2 8000   5.965  10.128  12.867
68721SOL     OW 8001  14.280   0.736  13.349
68721SOL    HW1 8002  14.218   0.786  13.295
68721SOL    HW2 8003  14.263   0.645  13.327
68722SOL     OW 8004  12.573  14.618   8.540
68722SOL    HW1 8005  12.632  14.678   8.585
68722SOL    HW2 8006  12.619  14.595   8.459
68723SOL     OW 8007  14.448   4.049   9.784
68723SOL    HW1 8008  14.366   4.075   9.743
68723SOL    HW2 8009  14.452   4.101   9.864
68724SOL     OW 8010  14.378  10.549   9.326
68724SOL    HW1 8011  14.317  10.480   9.299
68724SOL    HW2 8012  14.375  10.547   9.422
68725SOL     OW 8013   6.274  10.333  10.544
68725SOL    HW1 8014   6.240  10.261  10.597
68725SOL    HW2 8015   6.367  10.314  10.535
68726SOL     OW 8016  12.021   7.967   8.202
68726SOL    HW1 8017  12.090   7.976   8.268
68726SOL    HW2 8018  12.002   7.873   8.202
68727SOL     OW 8019   0.003   7.004   0.574
68727SOL    HW1 8020  14.790   6.965   0.558
68727SOL    HW2 8021   0.034   7.031   0.488
68728SOL     OW 8022   0.897   0.786   5.660
68728SOL    HW1 8023   0.811   0.798   5.619
68728SOL    HW2 8024   0.908   0.861   5.718
68729SOL     OW 8025   6.890   8.201  13.574
68729SOL    HW1 8026   6.833   8.192  13.498
68729SOL    HW2 8027   6.955   8.132  13.564
68730SOL     OW 8028   6.420   7.730   1.135
68730SOL    HW1 8029   6.479   7.756   1.065
68730SOL    HW2 8030   6.387   7.812   1.171
68731SOL     OW 8031  10.658  12.641   3.130
68731SOL    HW1 8032  10.674  12.614   3.220
68731SOL    HW2 8033  10.603  12.571   3.093
68732SOL     OW 8034  10.932   0.944  11.667
68732SOL    HW1 8035  10.837   0.934  11.664
68732SOL    HW2 8036  10.954   0.985  11.583
68733SOL     OW 8037   8.113  12.613   2.652
68733SOL    HW1 8038   8.027  12.569   2.654
68733SOL    HW2 8039   8.176  12.542   2.654
68734SOL     OW 8040   9.108   7.884  12.969
68734SOL    HW1 8041   9.193   7.926  12.976
68734SOL    HW2 8042   9.123   7.808  12.913
68735SOL     OW 8043  12.922   9.059  11.209
68735SOL    HW1 8044  12.828   9.075  11.205
68735SOL    HW2 8045  12.933   8.972  11.171
68736SOL     OW 8046   3.728  11.413   7.310
68736SOL    HW1 8047   3.707  11.494   7.263
68736SOL    HW2 8048   3.697  11.429   7.400
68737SOL     OW 8049   4.359  11.507   3.025
68737SOL    HW1 8050   4.403  11.568   2.966
68737SOL    HW2 8051   4.335  11.559   3.101
68738SOL     OW 8052   2.485   9.592  14.744
68738SOL    HW1 8053   2.495   9.509  14.790
68738SOL    HW2 8054   2.428   9.572  14.670
68739SOL     OW 8055   2.985  13.501   5.997
68739SOL    HW1 8056   2.900  13.541   5.982
68739SOL    HW2 8057   3.037  13.525   5.921
68740SOL     OW 8058   9.866  10.165   7.180
68740SOL    HW1 8059   9.908  10.164   7.094
68740SOL    HW2 8060   9.791  10.224   7.169
68741SOL     OW 8061   3.304   1.388   8.747
68741SOL    HW1 8062   3.276   1.336   8.671
68741SOL    HW2 8063   3.397   1.404   8.732
68742SOL     OW 8064  12.942  10.346   9.921
68742SOL    HW1 8065  12.866  10.322   9.867
68742SOL    HW2 8066  12.963  10.435   9.893
68743SOL     OW 8067   1.308  12.675  11.718
68743SOL    HW1 8068   1.248  12.748  11.704
68743SOL    HW2 8069   1.377  12.709  11.774
68744SOL     OW 8070  13.043   3.188   0.350
68744SOL    HW1 8071  13.016   3.097   0.362
68744SOL    HW2 8072  12.966   3.231   0.313
68745SOL     OW 8073  12.325   8.346   6.837
68745SOL    HW1 8074  12.307   8.425   6.787
68745SOL    HW2 8075  12.257   8.345   6.905
68746SOL     OW 8076   4.574   4.480  13.690
68746SOL    HW1 8077   4.502   4.524  13.643
68746SOL    HW2 8078   4.649   4.488  13.631
68747SOL     OW 8079   0.489   3.177  12.697
68747SOL    HW1 8080   0.424   3.112  12.669
68747SOL    HW2 8081   0.573   3.139  12.672
68748SOL     OW 8082  14.564  11.681   3.896
68748SOL    HW1 8083  14.644  11.661   3.945
68748SOL    HW2 8084  14.512  11.601   3.901
68749SOL     OW 8085   7.668   8.847   7.900
68749SOL    HW1 8086   7.716   8.927   7.877
68749SOL    HW2 8087   7.664   8.797   7.819
68750SOL     OW 8088   0.559   1.149  11.757
68750SOL    HW1 8089   0.512   1.067  11.771
68750SOL    HW2 8090   0.634   1.143  11.816
68751SOL     OW 8091   6.006   0.583   5.375
68751SOL    HW1 8092   6.014   0.549   5.286
68751SOL    HW2 8093   6.096   0.605   5.400
68752SOL     OW 8094   7.352   7.019  10.338
68752SOL    HW1 8095   7.285   6.976  10.391
68752SOL    HW2 8096   7.385   6.951  10.280
68753SOL     OW 8097  14.701   8.422   5.287
68753SOL    HW1 8098  14.777   8.367   5.303
68753SOL    HW2 8099  14.659   8.384   5.210
68754SOL     OW 8100  14.627   5.195   7.414
68754SOL    HW1 8101  14.639   5.168   7.505
68754SOL    HW2 8102  14.709   5.171   7.371
68755SOL     OW 8103   9.582   6.248  13.695
68755SOL    HW1 8104   9.648   6.317  13.686
68755SOL    HW2 8105   9.499   6.294  13.695
68756SOL     OW 8106  13.697   0.253   8.898
68756SOL    HW1 8107  13.656   0.231   8.815
68756SOL    HW2 8108  13.708   0.169   8.943
68757SOL     OW 8109  12.303   1.221  11.333
68757SOL    HW1 8110  12.357   1.294  11.303
68757SOL    HW2 8111  12.273   1.178  11.253
68758SOL     OW 8112   0.265   3.194   5.894
68758SOL    HW1 8113   0.308   3.115   5.862
68758SOL    HW2 8114   0.332   3.263   5.887
68759SOL     OW 8115  13.001   8.671   9.638
68759SOL    HW1 8116  12.912   8.650   9.609
68759SOL    HW2 8117  13.055   8.599   9.604
68760SOL     OW 8118   6.638   7.078   3.558
68760SOL    HW1 8119   6.676   7.007   3.610
68760SOL    HW2 8120   6.583   7.126   3.620
68761SOL     OW 8121   7.452   5.529   5.978
68761SOL    HW1 8122   7.499   5.453   6.011
68761SOL    HW2 8123   7.397   5.494   5.907
68762SOL     OW 8124   9.284   5.854   6.680
68762SOL    HW1 8125   9.377   5.862   6.701
68762SOL    HW2 8126   9.240   5.912   6.743
68763SOL     OW 8127  14.647   3.299   0.472
68763SOL    HW1 8128  14.722   3.271   0.420
68763SOL    HW2 8129  14.619   3.381   0.431
68764SOL     OW 8130   3.882   6.104   6.566
68764SOL    HW1 8131   3.878   6.014   6.598
68764SOL    HW2 8132   3.802   6.115   6.515
68765SOL     OW 8133   1.141   5.621  13.184
68765SOL    HW1 8134   1.149   5.616  13.279
68765SOL    HW2 8135   1.066   5.565  13.164
68766SOL     OW 8136  10.401   5.396   9.979
68766SOL    HW1 8137  10.381   5.475  10.029
68766SOL    HW2 8138  10.317   5.349   9.974
68767SOL     OW 8139  11.785  14.078   1.819
68767SOL    HW1 8140  11.808  14.113   1.906
68767SOL    HW2 8141  11.727  14.004   1.838
68768SOL     OW 8142  11.101   6.780   8.807
68768SOL    HW1 8143  11.072   6.705   8.754
68768SOL    HW2 8144  11.040   6.782   8.880
68769SOL     OW 8145  11.554  13.190   9.353
68769SOL    HW1 8146  11.580  13.229   9.436
68769SOL    HW2 8147  11.515  13.262   9.304
68770SOL     OW 8148   1.772   9.925   9.092
68770SOL    HW1 8149   1.855   9.910   9.137
68770SOL    HW2 8150   1.778   9.871   9.013
68771SOL     OW 8151   1.576   5.099   1.542
68771SOL    HW1 8152   1.508   5.108   1.609
68771SOL    HW2 8153   1.609   5.189   1.529
68772SOL     OW 8154   2.808   0.549   7.045
68772SOL    HW1 8155   2.784   0.641   7.032
68772SOL    HW2 8156   2.841   0.545   7.134
68773SOL     OW 8157   6.052   2.132   5.112
68773SOL    HW1 8158   6.142   2.155   5.087
68773SOL    HW2 8159   5.997   2.185   5.055
68774SOL     OW 8160  12.717   7.835   2.440
68774SOL    HW1 8161  12.644   7.896   2.450
68774SOL    HW2 8162  12.708   7.801   2.351
68775SOL     OW 8163   4.306  12.410   0.705
68775SOL    HW1 8164   4.221  12.382   0.738
68775SOL    HW2 8165   4.367  12.394   0.777
68776SOL     OW 8166   9.318   5.866  10.607
68776SOL    HW1 8167   9.336   5.893  10.517
68776SOL    HW2 8168   9.345   5.941  10.660
68777SOL     OW 8169   6.054  10.878   6.076
68777SOL    HW1 8170   6.147  10.859   6.088
68777SOL    HW2 8171   6.019  10.879   6.165
68778SOL     OW 8172   3.376   0.677   6.353
68778SOL    HW1 8173   3.334   0.692   6.438
68778SOL    HW2 8174   3.344   0.591   6.325
68779SOL     OW 8175   8.273   4.272   1.186
68779SOL    HW1 8176   8.292   4.362   1.212
68779SOL    HW2 8177   8.191   4.278   1.137
68780SOL     OW 8178   7.223   7.930  11.980
68780SOL    HW1 8179   7.143   7.924  11.928
68780SOL    HW2 8180   7.262   7.843  11.975
68781SOL     OW 8181   6.868   9.295   7.658
68781SOL    HW1 8182   6.904   9.377   7.692
68781SOL    HW2 8183   6.930   9.268   7.590
68782SOL     OW 8184  10.772   4.993   1.515
68782SOL    HW1 8185  10.808   4.966   1.600
68782SOL    HW2 8186  10.848   4.992   1.456
68783SOL     OW 8187   1.702  11.428   1.830
68783SOL    HW1 8188   1.607  11.425   1.842
68783SOL    HW2 8189   1.738  11.418   1.918
68784SOL     OW 8190  13.207  12.446   8.767
68784SOL    HW1 8191  13.270  12.402   8.825
68784SOL    HW2 8192  13.142  12.379   8.747
68785SOL     OW 8193  10.073   9.353   6.442
68785SOL    HW1 8194  10.118   9.278   6.481
68785SOL    HW2 8195  10.142   9.417   6.425
68786SOL     OW 8196   3.636   9.031  12.012
68786SOL    HW1 8197   3.586   8.977  11.951
68786SOL    HW2 8198   3.584   9.111  12.022
68787SOL     OW 8199  10.835   8.813   7.732
68787SOL    HW1 8200  10.892   8.888   7.744
68787SOL    HW2 8201  10.807   8.819   7.641
68788SOL     OW 8202  12.537  12.277   1.477
68788SOL    HW1 8203  12.519  12.238   1.563
68788SOL    HW2 8204  12.612  12.227   1.444
68789SOL     OW 8205   7.549   9.826   8.475
68789SOL    HW1 8206   7.460   9.860   8.488
68789SOL    HW2 8207   7.599   9.867   8.546
68790SOL     OW 8208  11.239   8.895  14.346
68790SOL    HW1 8209  11.158   8.945  14.360
68790SOL    HW2 8210  11.301   8.959  14.312
68791SOL     OW 8211   4.566   9.337   3.857
68791SOL    HW1 8212   4.528   9.392   3.926
68791SOL    HW2 8213   4.660   9.337   3.875
68792SOL     OW 8214   0.152   7.882   0.021
68792SOL    HW1 8215   0.061   7.895  14.868
68792SOL    HW2 8216   0.202   7.892  14.814
68793SOL     OW 8217   9.718   4.320   4.544
68793SOL    HW1 8218   9.626   4.294   4.541
68793SOL    HW2 8219   9.743   4.308   4.635
68794SOL     OW 8220  11.702   2.870   4.883
68794SOL    HW1 8221  11.671   2.912   4.804
68794SOL    HW2 8222  11.767   2.930   4.919
68795SOL     OW 8223   5.354  13.888  12.291
68795SOL    HW1 8224   5.286  13.922  12.233
68795SOL    HW2 8225   5.307  13.849  12.364
68796SOL     OW 8226   8.551  14.555  12.603
68796SOL    HW1 8227   8.576  14.640  12.566
68796SOL    HW2 8228   8.532  14.500  12.527
68797SOL     OW 8229   4.973  10.906   6.798
68797SOL    HW1 8230   4.878  10.901   6.798
68797SOL    HW2 8231   5.002  10.824   6.758
68798SOL     OW 8232   3.735  11.096   9.421
68798SOL    HW1 8233   3.740  11.101   9.325
68798SOL    HW2 8234   3.813  11.046   9.446
68799SOL     OW 8235  12.611   6.216  14.635
68799SOL    HW1 8236  12.619   6.176  14.721
68799SOL    HW2 8237  12.600   6.310  14.653
68800SOL     OW 8238  13.904   9.941   1.700
68800SOL    HW1 8239  13.959   9.929   1.777
68800SOL    HW2 8240  13.888  10.036   1.697
68801SOL     OW 8241   6.613  11.081   0.026
68801SOL    HW1 8242   6.663  11.109  14.823
68801SOL    HW2 8243   6.568  11.001  14.871
68802SOL     OW 8244   1.981   0.360   9.042
68802SOL    HW1 8245   2.050   0.299   9.020
68802SOL    HW2 8246   1.945   0.388   8.958
68803SOL     OW 8247   3.104   5.354   6.436
68803SOL    HW1 8248   3.080   5.319   6.523
68803SOL    HW2 8249   3.139   5.441   6.454
68804SOL     OW 8250  11.219  14.177   1.957
68804SOL    HW1 8251  11.281  14.117   2.000
68804SOL    HW2 8252  11.209  14.249   2.020
68805SOL     OW 8253  12.990   2.891  10.458
68805SOL    HW1 8254  12.940   2.816  10.423
68805SOL    HW2 8255  13.057   2.851  10.514
68806SOL     OW 8256   8.895   6.267   7.688
68806SOL    HW1 8257   8.878   6.270   7.782
68806SOL    HW2 8258   8.820   6.312   7.648
68807SOL     OW 8259  13.302   5.342   7.964
68807SOL    HW1 8260  13.345   5.423   7.936
68807SOL    HW2 8261  13.300   5.348   8.060
68808SOL     OW 8262   8.225  11.350   7.661
68808SOL    HW1 8263   8.229  11.386   7.749
68808SOL    HW2 8264   8.132  11.329   7.648
68809SOL     OW 8265  11.902   3.955   8.958
68809SOL    HW1 8266  11.968   4.018   8.931
68809SOL    HW2 8267  11.894   3.895   8.883
68810SOL     OW 8268   7.759   5.141  10.821
68810SOL    HW1 8269   7.671   5.108  10.804
68810SOL    HW2 8270   7.777   5.201  10.749
68811SOL     OW 8271  11.535   6.224   2.677
68811SOL    HW1 8272  11.462   6.168   2.651
68811SOL    HW2 8273  11.594   6.166   2.725
68812SOL     OW 8274   9.947   5.628  13.853
68812SOL    HW1 8275   9.941   5.607  13.946
68812SOL    HW2 8276   9.899   5.710  13.844
68813SOL     OW 8277   4.384   2.922   1.872
68813SOL    HW1 8278   4.332   2.845   1.892
68813SOL    HW2 8279   4.446   2.893   1.805
68814SOL     OW 8280   7.793   0.640   6.658
68814SOL    HW1 8281   7.883   0.620   6.631
68814SOL    HW2 8282   7.792   0.735   6.669
68815SOL     OW 8283   6.080   3.645   4.947
68815SOL    HW1 8284   6.019   3.716   4.931
68815SOL    HW2 8285   6.122   3.629   4.862
68816SOL     OW 8286   3.572   9.499   6.860
68816SOL    HW1 8287   3.540   9.589   6.860
68816SOL    HW2 8288   3.538   9.462   6.941
68817SOL     OW 8289  13.298   5.590   8.397
68817SOL    HW1 8290  13.241   5.663   8.371
68817SOL    HW2 8291  13.373   5.632   8.440
68818SOL     OW 8292   9.189  14.792  11.724
68818SOL    HW1 8293   9.128  14.770  11.794
68818SOL    HW2 8294   9.216  14.708  11.688
68819SOL     OW 8295  12.423  14.400   9.426
68819SOL    HW1 8296  12.344  14.356   9.457
68819SOL    HW2 8297  12.413  14.491   9.453
68820SOL     OW 8298   2.019  13.886   7.987
68820SOL    HW1 8299   2.068  13.968   7.988
68820SOL    HW2 8300   2.014  13.863   7.894
68821SOL     OW 8301   9.930   6.860   2.887
68821SOL    HW1 8302   9.869   6.892   2.953
68821SOL    HW2 8303  10.016   6.863   2.930
68822SOL     OW 8304  13.054  13.766   5.091
68822SOL    HW1 8305  13.080  13.807   5.174
68822SOL    HW2 8306  12.985  13.705   5.116
68823SOL     OW 8307  10.496   9.561   6.096
68823SOL    HW1 8308  10.523   9.472   6.073
68823SOL    HW2 8309  10.513   9.613   6.017
68824SOL     OW 8310   6.425  14.032   5.385
68824SOL    HW1 8311   6.333  14.042   5.412
68824SOL    HW2 8312   6.472  14.099   5.435
68825SOL     OW 8313   7.506   0.460  11.682
68825SOL    HW1 8314   7.524   0.541  11.730
68825SOL    HW2 8315   7.590   0.414  11.681
68826SOL     OW 8316  14.419   8.913   6.830
68826SOL    HW1 8317  14.408   8.874   6.743
68826SOL    HW2 8318  14.399   9.006   6.817
68827SOL     OW 8319   7.334  13.902  10.076
68827SOL    HW1 8320   7.324  13.856  10.159
68827SOL    HW2 8321   7.364  13.835  10.014
68828SOL     OW 8322   9.075  12.697  14.463
68828SOL    HW1 8323   9.033  12.621  14.502
68828SOL    HW2 8324   9.108  12.665  14.379
68829SOL     OW 8325   9.552   9.101   1.663
68829SOL    HW1 8326   9.625   9.039   1.659
68829SOL    HW2 8327   9.588   9.182   1.627
68830SOL     OW 8328  11.666  11.264  13.072
68830SOL    HW1 8329  11.635  11.189  13.021
68830SOL    HW2 8330  11.650  11.239  13.163
68831SOL     OW 8331  13.613  12.612  12.125
68831SOL    HW1 8332  13.527  12.641  12.096
68831SOL    HW2 8333  13.673  12.647  12.059
68832SOL     OW 8334   5.542   8.831  13.634
68832SOL    HW1 8335   5.483   8.838  13.710
68832SOL    HW2 8336   5.512   8.899  13.574
68833SOL     OW 8337  11.974  14.432  13.611
68833SOL    HW1 8338  11.909  14.364  13.628
68833SOL    HW2 8339  12.058  14.388  13.622
68834SOL     OW 8340  12.512   7.269   1.958
68834SOL    HW1 8341  12.423   7.238   1.938
68834SOL    HW2 8342  12.550   7.290   1.873
68835SOL     OW 8343   3.581   1.976   1.643
68835SOL    HW1 8344   3.488   1.997   1.636
68835SOL    HW2 8345   3.586   1.882   1.627
68836SOL     OW 8346  14.540  11.082  12.925
68836SOL    HW1 8347  14.450  11.111  12.940
68836SOL    HW2 8348  14.568  11.045  13.009
68837SOL     OW 8349   5.884   4.122  11.935
68837SOL    HW1 8350   5.949   4.183  11.972
68837SOL    HW2 8351   5.805   4.138  11.986
68838SOL     OW 8352  13.349   5.362   8.285
68838SOL    HW1 8353  13.333   5.444   8.330
68838SOL    HW2 8354  13.435   5.333   8.316
68839SOL     OW 8355  11.191   5.481   9.254
68839SOL    HW1 8356  11.262   5.418   9.268
68839SOL    HW2 8357  11.205   5.549   9.320
68840SOL     OW 8358   9.082   0.683  11.489
68840SOL    HW1 8359   8.992   0.684  11.455
68840SOL    HW2 8360   9.074   0.647  11.577
68841SOL     OW 8361   4.343   2.178   2.254
68841SOL    HW1 8362   4.262   2.216   2.288
68841SOL    HW2 8363   4.326   2.084   2.253
68842SOL     OW 8364   9.686   0.009   2.370
68842SOL    HW1 8365   9.718   0.084   2.421
68842SOL    HW2 8366   9.749  14.812   2.389
68843SOL     OW 8367   4.868   1.226   4.125
68843SOL    HW1 8368   4.833   1.229   4.036
68843SOL    HW2 8369   4.805   1.275   4.177
68844SOL     OW 8370   2.942   4.412   4.170
68844SOL    HW1 8371   2.948   4.416   4.265
68844SOL    HW2 8372   2.908   4.497   4.144
68845SOL     OW 8373   9.210   4.847   7.833
68845SOL    HW1 8374   9.136   4.871   7.889
68845SOL    HW2 8375   9.211   4.751   7.833
68846SOL     OW 8376   4.270   8.287  13.624
68846SOL    HW1 8377   4.347   8.344  13.626
68846SOL    HW2 8378   4.275   8.237  13.705
68847SOL     OW 8379  14.465  12.220   0.888
68847SOL    HW1 8380  14.409  12.181   0.820
68847SOL    HW2 8381  14.423  12.303   0.908
68848SOL     OW 8382   3.014   4.731  13.659
68848SOL    HW1 8383   2.994   4.825  13.662
68848SOL    HW2 8384   2.955   4.692  13.724
68849SOL     OW 8385   7.239   0.146   0.423
68849SOL    HW1 8386   7.198   0.113   0.503
68849SOL    HW2 8387   7.288   0.223   0.451
68850SOL     OW 8388   0.664   9.657   7.287
68850SOL    HW1 8389   0.606   9.603   7.341
68850SOL    HW2 8390   0.612   9.678   7.209
68851SOL     OW 8391   6.982  13.148   3.572
68851SOL    HW1 8392   7.073  13.145   3.542
68851SOL    HW2 8393   6.942  13.069   3.537
68852SOL     OW 8394  10.294  12.234   0.781
68852SOL    HW1 8395  10.252  12.155   0.746
68852SOL    HW2 8396  10.222  12.282   0.822
68853SOL     OW 8397   4.383   7.773   8.354
68853SOL    HW1 8398   4.322   7.846   8.344
68853SOL    HW2 8399   4.435   7.794   8.431
68854SOL     OW 8400   8.344   6.794  14.618
68854SOL    HW1 8401   8.327   6.842  14.700
68854SOL    HW2 8402   8.424   6.745  14.635
68855SOL     OW 8403   4.868   1.783   2.961
68855SOL    HW1 8404   4.780   1.769   2.927
68855SOL    HW2 8405   4.868   1.874   2.990
68856SOL     OW 8406   5.879   4.794   2.011
68856SOL    HW1 8407   5.869   4.702   2.036
68856SOL    HW2 8408   5.961   4.796   1.960
68857SOL     OW 8409  11.770   3.096   6.632
68857SOL    HW1 8410  11.767   3.018   6.687
68857SOL    HW2 8411  11.815   3.161   6.686
68858SOL     OW 8412  14.601   7.289   5.806
68858SOL    HW1 8413  14.647   7.298   5.723
68858SOL    HW2 8414  14.668   7.263   5.869
68859SOL     OW 8415   0.919   4.030  10.374
68859SOL    HW1 8416   0.860   3.986  10.435
68859SOL    HW2 8417   0.997   3.974  10.371
68860SOL     OW 8418   0.483   7.163   5.314
68860SOL    HW1 8419   0.450   7.099   5.378
68860SOL    HW2 8420   0.449   7.247   5.345
68861SOL     OW 8421   9.736   5.848   1.591
68861SOL    HW1 8422   9.777   5.839   1.676
68861SOL    HW2 8423   9.790   5.795   1.532
68862SOL     OW 8424   5.959   4.230   1.452
68862SOL    HW1 8425   5.902   4.287   1.504
68862SOL    HW2 8426   5.979   4.282   1.374
68863SOL     OW 8427  10.111   7.120  12.844
68863SOL    HW1 8428  10.130   7.110  12.751
68863SOL    HW2 8429  10.028   7.072  12.857
68864SOL     OW 8430   6.882   6.291  10.877
68864SOL    HW1 8431   6.906   6.369  10.927
68864SOL    HW2 8432   6.939   6.222  10.913
68865SOL     OW 8433  13.191   5.470   6.314
68865SOL    HW1 8434  13.096   5.469   6.301
68865SOL    HW2 8435  13.228   5.462   6.226
68866SOL     OW 8436  11.296  11.022   3.321
68866SOL    HW1 8437  11.363  11.065   3.375
68866SOL    HW2 8438  11.213  11.046   3.362
68867SOL     OW 8439  11.555   4.543   9.996
68867SOL    HW1 8440  11.576   4.616   9.937
68867SOL    HW2 8441  11.550   4.583  10.083
68868SOL     OW 8442   1.754   9.686   2.706
68868SOL    HW1 8443   1.778   9.594   2.691
68868SOL    HW2 8444   1.685   9.703   2.642
68869SOL     OW 8445   1.570   4.430  14.346
68869SOL    HW1 8446   1.586   4.405  14.255
68869SOL    HW2 8447   1.625   4.371  14.398
68870SOL     OW 8448   4.281   0.306   1.964
68870SOL    HW1 8449   4.239   0.222   1.945
68870SOL    HW2 8450   4.374   0.285   1.967
68871SOL     OW 8451   9.872  10.139  14.871
68871SOL    HW1 8452   9.854  10.061  14.819
68871SOL    HW2 8453   9.832  10.122   0.083
68872SOL     OW 8454  13.372   1.744   8.841
68872SOL    HW1 8455  13.278   1.763   8.835
68872SOL    HW2 8456  13.382   1.659   8.799
68873SOL     OW 8457   0.422   9.319   9.437
68873SOL    HW1 8458   0.381   9.253   9.494
68873SOL    HW2 8459   0.409   9.402   9.483
68874SOL     OW 8460  12.775  14.426  11.247
68874SOL    HW1 8461  12.739  14.504  11.289
68874SOL    HW2 8462  12.822  14.380  11.316
68875SOL     OW 8463   3.739   9.787   6.877
68875SOL    HW1 8464   3.677   9.715   6.878
68875SOL    HW2 8465   3.716   9.840   6.953
68876SOL     OW 8466  11.539   7.622   7.035
68876SOL    HW1 8467  11.461   7.670   7.010
68876SOL    HW2 8468  11.506   7.548   7.086
68877SOL     OW 8469   7.246   7.716   5.063
68877SOL    HW1 8470   7.253   7.791   5.004
68877SOL    HW2 8471   7.245   7.755   5.150
68878SOL     OW 8472   5.279  13.545   2.856
68878SOL    HW1 8473   5.308  13.455   2.846
68878SOL    HW2 8474   5.307  13.589   2.776
68879SOL     OW 8475   1.880  12.740  14.572
68879SOL    HW1 8476   1.844  12.665  14.621
68879SOL    HW2 8477   1.971  12.747  14.603
68880SOL     OW 8478  10.708   1.239   4.626
68880SOL    HW1 8479  10.617   1.231   4.656
68880SOL    HW2 8480  10.733   1.149   4.602
68881SOL     OW 8481   8.794   4.685   6.430
68881SOL    HW1 8482   8.805   4.666   6.523
68881SOL    HW2 8483   8.861   4.750   6.411
68882SOL     OW 8484   0.082   0.933   4.725
68882SOL    HW1 8485  14.871   0.948   4.769
68882SOL    HW2 8486   0.059   0.891   4.643
68883SOL     OW 8487   6.499  12.428   1.855
68883SOL    HW1 8488   6.518  12.466   1.769
68883SOL    HW2 8489   6.405  12.444   1.867
68884SOL     OW 8490   4.300   8.822  13.011
68884SOL    HW1 8491   4.218   8.866  12.990
68884SOL    HW2 8492   4.339   8.876  13.080
68885SOL     OW 8493   5.679   3.818   9.773
68885SOL    HW1 8494   5.764   3.860   9.759
68885SOL    HW2 8495   5.627   3.885   9.818
68886SOL     OW 8496  11.058   1.750   4.772
68886SOL    HW1 8497  11.042   1.746   4.678
68886SOL    HW2 8498  11.002   1.820   4.803
68887SOL     OW 8499   0.500   7.524   2.613
68887SOL    HW1 8500   0.533   7.437   2.590
68887SOL    HW2 8501   0.574   7.582   2.598
68888SOL     OW 8502   5.111   5.681   9.128
68888SOL    HW1 8503   5.075   5.603   9.171
68888SOL    HW2 8504   5.034   5.726   9.093
68889SOL     OW 8505   4.198  10.365  14.384
68889SOL    HW1 8506   4.135  10.314  14.434
68889SOL    HW2 8507   4.203  10.320  14.299
68890SOL     OW 8508   2.301   5.636   8.513
68890SOL    HW1 8509   2.332   5.604   8.429
68890SOL    HW2 8510   2.208   5.617   8.514
68891SOL     OW 8511  12.019  10.949  11.172
68891SOL    HW1 8512  11.976  10.891  11.109
68891SOL    HW2 8513  11.987  10.919  11.257
68892SOL     OW 8514  14.605  12.059   7.999
68892SOL    HW1 8515  14.663  12.059   8.075
68892SOL    HW2 8516  14.518  12.071   8.036
68893SOL     OW 8517   3.380   8.226   4.622
68893SOL    HW1 8518   3.353   8.134   4.620
68893SOL    HW2 8519   3.357   8.255   4.711
68894SOL     OW 8520   9.471   3.799   8.497
68894SOL    HW1 8521   9.428   3.725   8.540
68894SOL    HW2 8522   9.518   3.760   8.423
68895SOL     OW 8523  14.529   7.055  11.541
68895SOL    HW1 8524  14.520   7.031  11.633
68895SOL    HW2 8525  14.618   7.028  11.518
68896SOL     OW 8526   3.673   8.125   9.615
68896SOL    HW1 8527   3.694   8.200   9.671
68896SOL    HW2 8528   3.591   8.091   9.651
68897SOL     OW 8529  14.566   2.523  10.287
68897SOL    HW1 8530  14.633   2.591  10.284
68897SOL    HW2 8531  14.606   2.448  10.244
68898SOL     OW 8532   0.832   7.518   7.152
68898SOL    HW1 8533   0.805   7.594   7.100
68898SOL    HW2 8534   0.819   7.545   7.243
68899SOL     OW 8535   5.184  14.844  11.841
68899SOL    HW1 8536   5.210   0.019  11.920
68899SOL    HW2 8537   5.261  14.793  11.817
68900SOL     OW 8538  14.820   0.505   6.025
68900SOL    HW1 8539  14.850   0.567   5.958
68900SOL    HW2 8540  14.741   0.466   5.987
68901SOL     OW 8541  10.205   8.874   0.095
68901SOL    HW1 8542  10.117   8.836   0.103
68901SOL    HW2 8543  10.229   8.897   0.185
68902SOL     OW 8544   5.244   9.440   5.709
68902SOL    HW1 8545   5.213   9.361   5.665
68902SOL    HW2 8546   5.271   9.498   5.637
68903SOL     OW 8547   6.709   3.641   5.262
68903SOL    HW1 8548   6.661   3.700   5.320
68903SOL    HW2 8549   6.787   3.692   5.236
68904SOL     OW 8550  10.467   0.343   0.662
68904SOL    HW1 8551  10.413   0.298   0.726
68904SOL    HW2 8552  10.538   0.281   0.643
68905SOL     OW 8553   8.833   9.556  11.805
68905SOL    HW1 8554   8.861   9.476  11.761
68905SOL    HW2 8555   8.911   9.611  11.808
68906SOL     OW 8556   4.335   6.968   5.510
68906SOL    HW1 8557   4.429   6.956   5.520
68906SOL    HW2 8558   4.325   7.048   5.458
68907SOL     OW 8559   9.648  12.044   2.827
68907SOL    HW1 8560   9.685  12.029   2.914
68907SOL    HW2 8561   9.604  12.128   2.834
68908SOL     OW 8562   1.327   6.158  10.663
68908SOL    HW1 8563   1.269   6.226  10.628
68908SOL    HW2 8564   1.379   6.204  10.730
68909SOL     OW 8565   0.168   1.239   2.999
68909SOL    HW1 8566   0.164   1.326   2.959
68909SOL    HW2 8567   0.091   1.235   3.056
68910SOL     OW 8568  10.939   4.388   8.111
68910SOL    HW1 8569  10.859   4.349   8.078
68910SOL    HW2 8570  10.966   4.450   8.043
68911SOL     OW 8571   4.551   5.553   1.127
68911SOL    HW1 8572   4.561   5.524   1.218
68911SOL    HW2 8573   4.457   5.548   1.110
68912SOL     OW 8574   4.840  11.158   7.415
68912SOL    HW1 8575   4.854  11.086   7.476
68912SOL    HW2 8576   4.791  11.223   7.466
68913SOL     OW 8577   0.460   9.024   9.375
68913SOL    HW1 8578   0.374   8.992   9.403
68913SOL    HW2 8579   0.508   9.039   9.456
68914SOL     OW 8580  13.039   6.738   9.097
68914SOL    HW1 8581  12.962   6.790   9.074
68914SOL    HW2 8582  13.113   6.793   9.069
68915SOL     OW 8583   3.659  11.999   9.562
68915SOL    HW1 8584   3.689  12.076   9.513
68915SOL    HW2 8585   3.714  11.927   9.532
68916SOL     OW 8586   4.481   2.382   5.461
68916SOL    HW1 8587   4.508   2.311   5.402
68916SOL    HW2 8588   4.455   2.337   5.542
68917SOL     OW 8589  13.785   8.023   3.668
68917SOL    HW1 8590  13.726   7.998   3.596
68917SOL    HW2 8591  13.868   7.981   3.646
68918SOL     OW 8592   1.882   6.411   9.660
68918SOL    HW1 8593   1.913   6.464   9.587
68918SOL    HW2 8594   1.836   6.473   9.717
68919SOL     OW 8595   5.830   3.849   4.329
68919SOL    HW1 8596   5.767   3.784   4.358
68919SOL    HW2 8597   5.810   3.861   4.236
68920SOL     OW 8598   4.338   7.992   9.720
68920SOL    HW1 8599   4.376   7.960   9.638
68920SOL    HW2 8600   4.397   8.061   9.749
68921SOL     OW 8601  11.077   2.319   7.740
68921SOL    HW1 8602  11.169   2.334   7.760
68921SOL    HW2 8603  11.052   2.392   7.684
68922SOL     OW 8604  10.544   1.834   6.174
68922SOL    HW1 8605  10.551   1.882   6.092
68922SOL    HW2 8606  10.471   1.875   6.220
68923SOL     OW 8607  11.659   3.007   5.970
68923SOL    HW1 8608  11.635   2.922   5.933
68923SOL    HW2 8609  11.623   3.006   6.058
68924SOL     OW 8610   3.855   2.911   0.383
68924SOL    HW1 8611   3.812   2.888   0.301
68924SOL    HW2 8612   3.944   2.878   0.374
68925SOL     OW 8613   2.332   5.457   7.864
68925SOL    HW1 8614   2.321   5.516   7.789
68925SOL    HW2 8615   2.293   5.505   7.937
68926SOL     OW 8616   5.379   3.338   7.072
68926SOL    HW1 8617   5.453   3.372   7.022
68926SOL    HW2 8618   5.338   3.416   7.111
68927SOL     OW 8619  14.554   0.883   3.544
68927SOL    HW1 8620  14.631   0.827   3.554
68927SOL    HW2 8621  14.581   0.968   3.578
68928SOL     OW 8622  12.546   4.852   5.191
68928SOL    HW1 8623  12.541   4.880   5.282
68928SOL    HW2 8624  12.640   4.841   5.175
68929SOL     OW 8625   8.256   8.956  10.397
68929SOL    HW1 8626   8.313   8.879  10.399
68929SOL    HW2 8627   8.168   8.920  10.392
68930SOL     OW 8628  11.188   2.527   7.442
68930SOL    HW1 8629  11.253   2.484   7.386
68930SOL    HW2 8630  11.236   2.546   7.523
68931SOL     OW 8631   8.785  11.313  12.519
68931SOL    HW1 8632   8.744  11.320  12.433
68931SOL    HW2 8633   8.877  11.336  12.503
68932SOL     OW 8634  14.066   1.051   8.533
68932SOL    HW1 8635  14.056   0.959   8.557
68932SOL    HW2 8636  14.155   1.057   8.499
68933SOL     OW 8637  13.215   4.166   3.782
68933SOL    HW1 8638  13.249   4.223   3.852
68933SOL    HW2 8639  13.135   4.209   3.752
68934SOL     OW 8640   7.203   7.228   8.235
68934SOL    HW1 8641   7.298   7.215   8.239
68934SOL    HW2 8642   7.182   7.275   8.316
68935SOL     OW 8643  13.217   9.733   4.580
68935SOL    HW1 8644  13.209   9.645   4.543
68935SOL    HW2 8645  13.252   9.786   4.508
68936SOL     OW 8646  14.658   8.238  10.552
68936SOL    HW1 8647  14.638   8.244  10.646
68936SOL    HW2 8648  14.660   8.329  10.522
68937SOL     OW 8649  13.028   1.430  13.839
68937SOL    HW1 8650  12.970   1.425  13.763
68937SOL    HW2 8651  13.079   1.510  13.824
68938SOL     OW 8652  13.043   6.942   3.216
68938SOL    HW1 8653  13.059   6.971   3.126
68938SOL    HW2 8654  13.021   6.849   3.207
68939SOL     OW 8655   5.113  13.719   5.854
68939SOL    HW1 8656   5.159  13.695   5.773
68939SOL    HW2 8657   5.087  13.636   5.893
68940SOL     OW 8658   6.392  12.907   9.020
68940SOL    HW1 8659   6.318  12.853   9.046
68940SOL    HW2 8660   6.468  12.862   9.057
68941SOL     OW 8661   1.808  13.676   0.964
68941SOL    HW1 8662   1.713  13.667   0.962
68941SOL    HW2 8663   1.825  13.735   1.038
68942SOL     OW 8664  14.708   5.333   3.107
68942SOL    HW1 8665  14.683   5.241   3.107
68942SOL    HW2 8666  14.797   5.334   3.143
68943SOL     OW 8667  11.606  13.806   7.483
68943SOL    HW1 8668  11.570  13.895   7.480
68943SOL    HW2 8669  11.631  13.788   7.392
68944SOL     OW 8670   0.061  10.031   4.419
68944SOL    HW1 8671  14.872   9.962   4.443
68944SOL    HW2 8672   0.021  10.073   4.343
68945SOL     OW 8673   7.338   8.728  12.437
68945SOL    HW1 8674   7.295   8.790  12.496
68945SOL    HW2 8675   7.432   8.736  12.458
68946SOL     OW 8676   0.829   4.714  10.702
68946SOL    HW1 8677   0.859   4.675  10.620
68946SOL    HW2 8678   0.908   4.755  10.739
68947SOL     OW 8679   5.264   0.301  13.208
68947SOL    HW1 8680   5.267   0.338  13.296
68947SOL    HW2 8681   5.192   0.239  13.210
68948SOL     OW 8682  11.439  12.345   6.737
68948SOL    HW1 8683  11.462  12.258   6.703
68948SOL    HW2 8684  11.391  12.387   6.666
68949SOL     OW 8685   1.517  13.520   4.516
68949SOL    HW1 8686   1.458  13.580   4.470
68949SOL    HW2 8687   1.543  13.568   4.594
68950SOL     OW 8688  10.096   8.947   4.871
68950SOL    HW1 8689  10.099   8.870   4.927
68950SOL    HW2 8690  10.119   9.020   4.928
68951SOL     OW 8691   7.419   8.145   3.679
68951SOL    HW1 8692   7.396   8.163   3.587
68951SOL    HW2 8693   7.511   8.117   3.675
68952SOL     OW 8694  13.059   0.957  11.991
68952SOL    HW1 8695  13.036   0.870  11.960
68952SOL    HW2 8696  12.998   1.016  11.946
68953SOL     OW 8697  11.677  12.450   3.248
68953SOL    HW1 8698  11.624  12.426   3.323
68953SOL    HW2 8699  11.623  12.431   3.172
68954SOL     OW 8700   8.312   2.640  10.790
68954SOL    HW1 8701   8.292   2.570  10.852
68954SOL    HW2 8702   8.408   2.640  10.784
68955SOL     OW 8703   5.293  11.724   1.143
68955SOL    HW1 8704   5.274  11.707   1.051
68955SOL    HW2 8705   5.363  11.663   1.165
68956SOL     OW 8706   9.007   2.362   7.276
68956SOL    HW1 8707   9.036   2.393   7.190
68956SOL    HW2 8708   9.088   2.333   7.319
68957SOL     OW 8709  13.180   9.080  12.385
68957SOL    HW1 8710  13.133   9.076  12.302
68957SOL    HW2 8711  13.169   9.170  12.415
68958SOL     OW 8712   0.165   1.967   2.219
68958SOL    HW1 8713   0.070   1.961   2.223
68958SOL    HW2 8714   0.186   2.053   2.255
68959SOL     OW 8715  13.494  10.967   7.200
68959SOL    HW1 8716  13.403  10.988   7.178
68959SOL    HW2 8717  13.533  10.939   7.117
68960SOL     OW 8718   5.046   1.550   8.235
68960SOL    HW1 8719   5.053   1.625   8.294
68960SOL    HW2 8720   4.963   1.508   8.258
68961SOL     OW 8721  11.387   4.078  10.378
68961SOL    HW1 8722  11.458   4.021  10.348
68961SOL    HW2 8723  11.394   4.157  10.324
68962SOL     OW 8724   4.124  13.898   3.681
68962SOL    HW1 8725   4.165  13.978   3.713
68962SOL    HW2 8726   4.114  13.911   3.587
68963SOL     OW 8727  14.053  13.786  12.634
68963SOL    HW1 8728  13.996  13.822  12.702
68963SOL    HW2 8729  14.093  13.862  12.593
68964SOL     OW 8730  10.944   5.776  13.665
68964SOL    HW1 8731  10.896   5.693  13.663
68964SOL    HW2 8732  10.888   5.836  13.616
68965SOL     OW 8733   9.343   7.143  11.759
68965SOL    HW1 8734   9.399   7.219  11.767
68965SOL    HW2 8735   9.268   7.163  11.816
68966SOL     OW 8736  11.765  13.134   7.596
68966SOL    HW1 8737  11.685  13.119   7.545
68966SOL    HW2 8738  11.750  13.218   7.639
68967SOL     OW 8739  13.408  14.779   8.529
68967SOL    HW1 8740  13.471  14.726   8.578
68967SOL    HW2 8741  13.327  14.771   8.579
68968SOL     OW 8742   3.787   9.263   1.694
68968SOL    HW1 8743   3.706   9.270   1.643
68968SOL    HW2 8744   3.819   9.174   1.676
68969SOL     OW 8745   9.691  13.096   9.545
68969SOL    HW1 8746   9.650  13.170   9.591
68969SOL    HW2 8747   9.785  13.111   9.555
68970SOL     OW 8748   3.328   7.673   5.413
68970SOL    HW1 8749   3.327   7.712   5.500
68970SOL    HW2 8750   3.420   7.673   5.388
68971SOL     OW 8751   5.118  10.854   5.267
68971SOL    HW1 8752   5.173  10.803   5.327
68971SOL    HW2 8753   5.061  10.790   5.225
68972SOL     OW 8754   5.084   3.024   0.435
68972SOL    HW1 8755   5.058   3.043   0.525
68972SOL    HW2 8756   5.082   3.109   0.391
68973SOL     OW 8757   1.725   1.366   0.896
68973SOL    HW1 8758   1.714   1.413   0.813
68973SOL    HW2 8759   1.743   1.276   0.870
68974SOL     OW 8760  11.780  12.169   8.306
68974SOL    HW1 8761  11.829  12.246   8.332
68974SOL    HW2 8762  11.812  12.099   8.363
68975SOL     OW 8763  11.570  14.778  11.553
68975SOL    HW1 8764  11.663  14.765  11.574
68975SOL    HW2 8765  11.524  14.755  11.633
68976SOL     OW 8766  13.520  10.589   5.437
68976SOL    HW1 8767  13.497  10.582   5.345
68976SOL    HW2 8768  13.610  10.556   5.442
68977SOL     OW 8769  10.438   6.713   4.406
68977SOL    HW1 8770  10.473   6.802   4.403
68977SOL    HW2 8771  10.514   6.658   4.423
68978SOL     OW 8772   5.030   1.991   6.351
68978SOL    HW1 8773   5.084   1.985   6.272
68978SOL    HW2 8774   4.941   1.971   6.322
68979SOL     OW 8775  14.705  12.098   0.945
68979SOL    HW1 8776  14.625  12.148   0.930
68979SOL    HW2 8777  14.775  12.162   0.938
68980SOL     OW 8778   7.590   8.017   0.358
68980SOL    HW1 8779   7.679   7.995   0.328
68980SOL    HW2 8780   7.533   7.981   0.291
68981SOL     OW 8781   1.794   4.564  13.094
68981SOL    HW1 8782   1.841   4.508  13.156
68981SOL    HW2 8783   1.766   4.505  13.025
68982SOL     OW 8784  11.713   1.191   8.410
68982SOL    HW1 8785  11.789   1.133   8.410
68982SOL    HW2 8786  11.701   1.216   8.501
68983SOL     OW 8787   8.621   7.741   5.396
68983SOL    HW1 8788   8.598   7.656   5.360
68983SOL    HW2 8789   8.539   7.789   5.401
68984SOL     OW 8790  14.059   0.141  13.008
68984SOL    HW1 8791  14.104   0.216  12.969
68984SOL    HW2 8792  14.059   0.159  13.102
68985SOL     OW 8793  11.303  12.501   6.558
68985SOL    HW1 8794  11.263  12.586   6.574
68985SOL    HW2 8795  11.380  12.521   6.505
68986SOL     OW 8796  12.857   3.994   0.194
68986SOL    HW1 8797  12.944   3.988   0.235
68986SOL    HW2 8798  12.799   4.021   0.265
68987SOL     OW 8799  11.970  10.543  11.288
68987SOL    HW1 8800  12.009  10.627  11.313
68987SOL    HW2 8801  12.041  10.497  11.243
68988SOL     OW 8802   6.108   0.673   7.843
68988SOL    HW1 8803   6.109   0.728   7.922
68988SOL    HW2 8804   6.188   0.698   7.796
68989SOL     OW 8805   3.880  14.339   4.275
68989SOL    HW1 8806   3.821  14.408   4.305
68989SOL    HW2 8807   3.968  14.373   4.293
68990SOL     OW 8808  13.221  14.868  10.515
68990SOL    HW1 8809  13.222  14.777  10.485
68990SOL    HW2 8810  13.308   0.028  10.494
68991SOL     OW 8811   6.383  10.097  14.653
68991SOL    HW1 8812   6.326  10.152  14.599
68991SOL    HW2 8813   6.423  10.158  14.715
68992SOL     OW 8814   5.824   0.597   7.120
68992SOL    HW1 8815   5.825   0.685   7.157
68992SOL    HW2 8816   5.822   0.539   7.196
68993SOL     OW 8817  13.742   9.308   0.533
68993SOL    HW1 8818  13.774   9.231   0.485
68993SOL    HW2 8819  13.814   9.331   0.592
68994SOL     OW 8820   1.722   2.630   9.260
68994SOL    HW1 8821   1.672   2.711   9.254
68994SOL    HW2 8822   1.804   2.654   9.303
68995SOL     OW 8823   3.557   8.095  12.720
68995SOL    HW1 8824   3.510   8.014  12.742
68995SOL    HW2 8825   3.605   8.117  12.799
68996SOL     OW 8826   9.561   5.191   7.515
68996SOL    HW1 8827   9.635   5.130   7.525
68996SOL    HW2 8828   9.532   5.207   7.604
68997SOL     OW 8829   5.878   7.484   4.831
68997SOL    HW1 8830   5.952   7.471   4.891
68997SOL    HW2 8831   5.905   7.558   4.776
68998SOL     OW 8832   9.525   2.409   9.670
68998SOL    HW1 8833   9.566   2.335   9.626
68998SOL    HW2 8834   9.577   2.422   9.749
68999SOL     OW 8835  12.001   4.768   0.193
68999SOL    HW1 8836  12.000   4.831   0.121
68999SOL    HW2 8837  12.069   4.705   0.169
69000SOL     OW 8838   3.513   0.324   3.848
69000SOL    HW1 8839   3.426   0.301   3.881
69000SOL    HW2 8840   3.561   0.354   3.925
69001SOL     OW 8841  10.712  11.847   8.247
69001SOL    HW1 8842  10.664  11.850   8.329
69001SOL    HW2 8843  10.739  11.755   8.238
69002SOL     OW 8844  10.895  13.552  12.969
69002SOL    HW1 8845  10.931  13.516  13.049
69002SOL    HW2 8846  10.949  13.629  12.950
69003SOL     OW 8847   3.875   7.210   2.531
69003SOL    HW1 8848   3.791   7.222   2.486
69003SOL    HW2 8849   3.936   7.266   2.482
69004SOL     OW 8850  12.730   2.577   9.095
69004SOL    HW1 8851  12.672   2.589   9.170
69004SOL    HW2 8852  12.687   2.624   9.023
69005SOL     OW 8853   8.286   4.258   8.256
69005SOL    HW1 8854   8.379   4.256   8.280
69005SOL    HW2 8855   8.283   4.311   8.176
69006SOL     OW 8856   9.626  14.721   7.922
69006SOL    HW1 8857   9.642  14.638   7.966
69006SOL    HW2 8858   9.642  14.704   7.830
69007SOL     OW 8859  10.634   2.310   0.019
69007SOL    HW1 8860  10.679   2.326   0.102
69007SOL    HW2 8861  10.612   2.397  14.859
69008SOL     OW 8862   0.434   6.667   0.326
69008SOL    HW1 8863   0.510   6.723   0.309
69008SOL    HW2 8864   0.402   6.697   0.412
69009SOL     OW 8865   7.339   1.292   5.226
69009SOL    HW1 8866   7.411   1.238   5.194
69009SOL    HW2 8867   7.367   1.319   5.313
69010SOL     OW 8868   9.002  12.155  14.174
69010SOL    HW1 8869   9.064  12.083  14.173
69010SOL    HW2 8870   8.927  12.123  14.123
69011SOL     OW 8871  11.860   4.554   3.150
69011SOL    HW1 8872  11.914   4.506   3.213
69011SOL    HW2 8873  11.803   4.608   3.204
69012SOL     OW 8874   3.580   7.634  14.571
69012SOL    HW1 8875   3.642   7.663  14.638
69012SOL    HW2 8876   3.631   7.635  14.490
69013SOL     OW 8877   1.190   0.071   2.000
69013SOL    HW1 8878   1.232   0.068   2.086
69013SOL    HW2 8879   1.253   0.028   1.942
69014SOL     OW 8880   0.905   6.359  14.492
69014SOL    HW1 8881   0.818   6.389  14.519
69014SOL    HW2 8882   0.938   6.310  14.567
69015SOL     OW 8883  14.243   4.467   1.751
69015SOL    HW1 8884  14.328   4.446   1.788
69015SOL    HW2 8885  14.249   4.560   1.727
69016SOL     OW 8886   0.620   5.477   7.482
69016SOL    HW1 8887   0.688   5.453   7.545
69016SOL    HW2 8888   0.654   5.448   7.398
69017SOL     OW 8889  10.338  12.467   8.174
69017SOL    HW1 8890  10.425  12.439   8.146
69017SOL    HW2 8891  10.279  12.439   8.103
69018SOL     OW 8892   6.230   5.104   2.676
69018SOL    HW1 8893   6.311   5.054   2.681
69018SOL    HW2 8894   6.222   5.146   2.762
69019SOL     OW 8895   2.499   5.258   4.403
69019SOL    HW1 8896   2.522   5.348   4.380
69019SOL    HW2 8897   2.537   5.205   4.333
69020SOL     OW 8898  13.765  12.729   7.776
69020SOL    HW1 8899  13.858  12.711   7.759
69020SOL    HW2 8900  13.744  12.673   7.851
69021SOL     OW 8901  10.360   9.638  12.476
69021SOL    HW1 8902  10.378   9.624  12.383
69021SOL    HW2 8903  10.331   9.553  12.509
69022SOL     OW 8904  13.052   1.827   8.183
69022SOL    HW1 8905  13.016   1.892   8.123
69022SOL    HW2 8906  13.015   1.850   8.268
69023SOL     OW 8907  10.966  12.097   4.777
69023SOL    HW1 8908  10.923  12.023   4.820
69023SOL    HW2 8909  10.922  12.103   4.692
69024SOL     OW 8910  11.377   7.615  10.124
69024SOL    HW1 8911  11.375   7.536  10.177
69024SOL    HW2 8912  11.339   7.588  10.040
69025SOL     OW 8913   5.572   0.888   3.746
69025SOL    HW1 8914   5.623   0.969   3.738
69025SOL    HW2 8915   5.635   0.819   3.729
69026SOL     OW 8916   5.845   1.087   8.059
69026SOL    HW1 8917   5.860   1.022   8.128
69026SOL    HW2 8918   5.932   1.106   8.024
69027SOL     OW 8919   1.725   3.398  13.296
69027SOL    HW1 8920   1.719   3.302  13.297
69027SOL    HW2 8921   1.817   3.416  13.315
69028SOL     OW 8922  10.525   5.667  10.800
69028SOL    HW1 8923  10.597   5.713  10.842
69028SOL    HW2 8924  10.446   5.700  10.844
69029SOL     OW 8925   1.509   7.453   0.274
69029SOL    HW1 8926   1.417   7.467   0.298
69029SOL    HW2 8927   1.505   7.399   0.194
69030SOL     OW 8928   1.643  14.238   8.889
69030SOL    HW1 8929   1.555  14.259   8.921
69030SOL    HW2 8930   1.632  14.223   8.795
69031SOL     OW 8931   1.813   4.233  13.152
69031SOL    HW1 8932   1.750   4.247  13.081
69031SOL    HW2 8933   1.842   4.143  13.141
69032SOL     OW 8934  11.061  14.531   8.801
69032SOL    HW1 8935  11.124  14.459   8.803
69032SOL    HW2 8936  10.977  14.490   8.821
69033SOL     OW 8937   4.168   3.813   3.516
69033SOL    HW1 8938   4.204   3.753   3.450
69033SOL    HW2 8939   4.241   3.870   3.538
69034SOL     OW 8940  12.573   5.385  13.239
69034SOL    HW1 8941  12.590   5.332  13.161
69034SOL    HW2 8942  12.489   5.353  13.272
69035SOL     OW 8943   8.601   5.136   7.532
69035SOL    HW1 8944   8.612   5.175   7.618
69035SOL    HW2 8945   8.519   5.174   7.499
69036SOL     OW 8946   4.362   2.440  12.455
69036SOL    HW1 8947   4.310   2.367  12.423
69036SOL    HW2 8948   4.411   2.470  12.378
69037SOL     OW 8949  11.161   9.993   7.157
69037SOL    HW1 8950  11.165   9.943   7.239
69037SOL    HW2 8951  11.076  10.037   7.159
69038SOL     OW 8952  14.579   7.386   4.556
69038SOL    HW1 8953  14.519   7.399   4.629
69038SOL    HW2 8954  14.567   7.295   4.530
69039SOL     OW 8955   5.070   6.440   4.090
69039SOL    HW1 8956   5.062   6.478   4.002
69039SOL    HW2 8957   5.010   6.365   4.089
69040SOL     OW 8958   2.095   3.970   4.007
69040SOL    HW1 8959   2.012   3.957   4.053
69040SOL    HW2 8960   2.072   3.968   3.914
69041SOL     OW 8961   8.196   5.344   3.573
69041SOL    HW1 8962   8.283   5.341   3.535
69041SOL    HW2 8963   8.192   5.266   3.628
69042SOL     OW 8964  13.192  13.746   3.035
69042SOL    HW1 8965  13.262  13.683   3.016
69042SOL    HW2 8966  13.235  13.831   3.033
69043SOL     OW 8967   5.844   9.525  10.128
69043SOL    HW1 8968   5.795   9.607  10.121
69043SOL    HW2 8969   5.902   9.537  10.203
69044SOL     OW 8970   3.055   5.590   0.025
69044SOL    HW1 8971   3.143   5.625   0.013
69044SOL    HW2 8972   3.024   5.630   0.107
69045SOL     OW 8973   9.392  13.940   1.746
69045SOL    HW1 8974   9.329  13.998   1.704
69045SOL    HW2 8975   9.454  13.917   1.678
69046SOL     OW 8976   3.469   2.524   4.254
69046SOL    HW1 8977   3.521   2.527   4.334
69046SOL    HW2 8978   3.379   2.531   4.284
69047SOL     OW 8979   4.286   0.520   4.492
69047SOL    HW1 8980   4.235   0.550   4.416
69047SOL    HW2 8981   4.227   0.529   4.566
69048SOL     OW 8982   2.645   9.795  13.175
69048SOL    HW1 8983   2.706   9.752  13.235
69048SOL    HW2 8984   2.623   9.726  13.111
69049SOL     OW 8985   5.597  12.666   8.352
69049SOL    HW1 8986   5.592  12.584   8.401
69049SOL    HW2 8987   5.518  12.714   8.376
69050SOL     OW 8988   9.964   5.899   8.732
69050SOL    HW1 8989  10.012   5.831   8.684
69050SOL    HW2 8990  10.020   5.976   8.726
69051SOL     OW 8991   7.064   2.285   8.536
69051SOL    HW1 8992   7.145   2.236   8.523
69051SOL    HW2 8993   7.064   2.308   8.629
69052SOL     OW 8994   6.429  14.698   2.079
69052SOL    HW1 8995   6.393  14.709   2.167
69052SOL    HW2 8996   6.483  14.776   2.066
69053SOL     OW 8997  14.820   7.599   2.841
69053SOL    HW1 8998  14.867   7.581   2.760
69053SOL    HW2 8999   0.015   7.624   2.904
69054SOL     OW 9000   8.980   8.307   5.143
69054SOL    HW1 9001   8.901   8.261   5.173
69054SOL    HW2 9002   9.006   8.360   5.218
69055SOL     OW 9003   7.401  14.159  14.064
69055SOL    HW1 9004   7.443  14.186  13.983
69055SOL    HW2 9005   7.349  14.235  14.090
69056SOL     OW 9006   4.315   6.769   5.085
69056SOL    HW1 9007   4.269   6.768   5.170
69056SOL    HW2 9008   4.407   6.757   5.107
69057SOL     OW 9009  14.027   8.683   0.926
69057SOL    HW1 9010  14.090   8.649   0.863
69057SOL    HW2 9011  14.065   8.765   0.956
69058SOL     OW 9012   7.160   1.844   6.570
69058SOL    HW1 9013   7.237   1.842   6.513
69058SOL    HW2 9014   7.190   1.888   6.649
69059SOL     OW 9015   1.577  10.737   9.359
69059SOL    HW1 9016   1.506  10.682   9.393
69059SOL    HW2 9017   1.657  10.697   9.392
69060SOL     OW 9018   6.502  13.993   4.019
69060SOL    HW1 9019   6.484  13.985   3.925
69060SOL    HW2 9020   6.515  14.087   4.032
69061SOL     OW 9021  14.455  12.182   7.809
69061SOL    HW1 9022  14.519  12.146   7.870
69061SOL    HW2 9023  14.457  12.122   7.735
69062SOL     OW 9024   9.463   7.843   7.289
69062SOL    HW1 9025   9.538   7.899   7.266
69062SOL    HW2 9026   9.386   7.896   7.270
69063SOL     OW 9027   8.257   2.607   6.178
69063SOL    HW1 9028   8.227   2.685   6.132
69063SOL    HW2 9029   8.341   2.585   6.137
69064SOL     OW 9030  13.932   5.428   2.469
69064SOL    HW1 9031  13.949   5.450   2.377
69064SOL    HW2 9032  13.839   5.446   2.481
69065SOL     OW 9033   7.179   5.571   5.299
69065SOL    HW1 9034   7.107   5.512   5.279
69065SOL    HW2 9035   7.251   5.542   5.243
69066SOL     OW 9036   4.205  14.206   2.148
69066SOL    HW1 9037   4.274  14.266   2.175
69066SOL    HW2 9038   4.151  14.194   2.226
69067SOL     OW 9039   4.847   5.894   1.403
69067SOL    HW1 9040   4.828   5.800   1.401
69067SOL    HW2 9041   4.765   5.934   1.433
69068SOL     OW 9042   7.571   1.331  14.741
69068SOL    HW1 9043   7.586   1.423  14.718
69068SOL    HW2 9044   7.494   1.334  14.799
69069SOL     OW 9045  13.806   5.844  12.202
69069SOL    HW1 9046  13.897   5.818  12.213
69069SOL    HW2 9047  13.805   5.937  12.222
69070SOL     OW 9048  14.515   9.834  12.058
69070SOL    HW1 9049  14.444   9.897  12.046
69070SOL    HW2 9050  14.471   9.752  12.078
69071SOL     OW 9051   6.730   5.145  10.219
69071SOL    HW1 9052   6.694   5.064  10.255
69071SOL    HW2 9053   6.653   5.196  10.195
69072SOL     OW 9054   6.806   7.764   2.989
69072SOL    HW1 9055   6.806   7.841   3.046
69072SOL    HW2 9056   6.850   7.696   3.040
69073SOL     OW 9057   8.220   9.561   6.265
69073SOL    HW1 9058   8.277   9.596   6.197
69073SOL    HW2 9059   8.142   9.616   6.262
69074SOL     OW 9060   2.155   5.460  13.312
69074SOL    HW1 9061   2.160   5.379  13.362
69074SOL    HW2 9062   2.236   5.506  13.332
69075SOL     OW 9063  12.345   2.424   1.601
69075SOL    HW1 9064  12.270   2.483   1.609
69075SOL    HW2 9065  12.421   2.483   1.599
69076SOL     OW 9066  12.695   2.752   3.231
69076SOL    HW1 9067  12.770   2.700   3.202
69076SOL    HW2 9068  12.726   2.798   3.309
69077SOL     OW 9069   2.132  13.495   9.684
69077SOL    HW1 9070   2.219  13.502   9.723
69077SOL    HW2 9071   2.073  13.481   9.758
69078SOL     OW 9072   7.384  14.506  10.684
69078SOL    HW1 9073   7.394  14.477  10.775
69078SOL    HW2 9074   7.386  14.425  10.633
69079SOL     OW 9075   6.592   4.460  13.964
69079SOL    HW1 9076   6.503   4.492  13.980
69079SOL    HW2 9077   6.581   4.368  13.941
69080SOL     OW 9078  11.316   9.312  12.712
69080SOL    HW1 9079  11.228   9.347  12.723
69080SOL    HW2 9080  11.369   9.387  12.683
69081SOL     OW 9081   4.938   8.982  13.643
69081SOL    HW1 9082   4.893   8.999  13.560
69081SOL    HW2 9083   4.929   9.064  13.692
69082SOL     OW 9084   3.685  13.451   6.459
69082SOL    HW1 9085   3.620  13.480   6.523
69082SOL    HW2 9086   3.734  13.383   6.505
69083SOL     OW 9087   8.599  14.249   7.927
69083SOL    HW1 9088   8.622  14.174   7.980
69083SOL    HW2 9089   8.580  14.213   7.840
69084SOL     OW 9090  13.275   9.850   9.265
69084SOL    HW1 9091  13.230   9.776   9.306
69084SOL    HW2 9092  13.205   9.906   9.232
69085SOL     OW 9093   2.864   6.507  14.642
69085SOL    HW1 9094   2.823   6.465  14.566
69085SOL    HW2 9095   2.832   6.455  14.717
69086SOL     OW 9096   9.732   0.052   6.448
69086SOL    HW1 9097   9.677   0.027   6.373
69086SOL    HW2 9098   9.801   0.107   6.410
69087SOL     OW 9099   6.585   3.407   0.372
69087SOL    HW1 9100   6.570   3.347   0.445
69087SOL    HW2 9101   6.500   3.414   0.329
69088SOL     OW 9102   6.070  13.926   3.322
69088SOL    HW1 9103   6.104  14.001   3.370
69088SOL    HW2 9104   5.975  13.938   3.321
69089SOL     OW 9105  10.238   8.229   4.865
69089SOL    HW1 9106  10.306   8.280   4.908
69089SOL    HW2 9107  10.266   8.138   4.873
69090SOL     OW 9108   5.276   0.931   9.223
69090SOL    HW1 9109   5.289   1.021   9.194
69090SOL    HW2 9110   5.336   0.880   9.170
69091SOL     OW 9111   0.973  12.143   9.592
69091SOL    HW1 9112   1.013  12.197   9.660
69091SOL    HW2 9113   0.879  12.147   9.610
69092SOL     OW 9114   0.228  12.075   9.672
69092SOL    HW1 9115   0.196  12.147   9.727
69092SOL    HW2 9116   0.321  12.092   9.662
69093SOL     OW 9117   9.324   8.231  14.864
69093SOL    HW1 9118   9.259   8.255  14.797
69093SOL    HW2 9119   9.305   8.289   0.064
69094SOL     OW 9120   3.948   1.751   5.190
69094SOL    HW1 9121   3.964   1.682   5.254
69094SOL    HW2 9122   3.858   1.736   5.160
69095SOL     OW 9123   1.460  10.112   0.499
69095SOL    HW1 9124   1.375  10.072   0.479
69095SOL    HW2 9125   1.449  10.204   0.475
69096SOL     OW 9126   5.961   3.169  10.919
69096SOL    HW1 9127   6.026   3.162  10.849
69096SOL    HW2 9128   5.923   3.256  10.907
69097SOL     OW 9129   0.101   8.276  11.945
69097SOL    HW1 9130   0.180   8.225  11.959
69097SOL    HW2 9131   0.073   8.254  11.856
69098SOL     OW 9132  12.731   6.095   6.961
69098SOL    HW1 9133  12.755   6.004   6.944
69098SOL    HW2 9134  12.811   6.135   6.995
69099SOL     OW 9135   3.242   3.353   4.631
69099SOL    HW1 9136   3.212   3.380   4.718
69099SOL    HW2 9137   3.244   3.434   4.580
69100SOL     OW 9138   9.615   9.810   8.923
69100SOL    HW1 9139   9.593   9.738   8.982
69100SOL    HW2 9140   9.548   9.807   8.855
69101SOL     OW 9141   0.186   3.287   3.953
69101SOL    HW1 9142   0.249   3.235   4.003
69101SOL    HW2 9143   0.202   3.377   3.980
69102SOL     OW 9144   0.249  13.203   7.362
69102SOL    HW1 9145   0.167  13.212   7.410
69102SOL    HW2 9146   0.267  13.292   7.330
69103SOL     OW 9147   8.658   3.708   2.709
69103SOL    HW1 9148   8.602   3.786   2.711
69103SOL    HW2 9149   8.624   3.656   2.636
69104SOL     OW 9150   7.674   2.517   4.536
69104SOL    HW1 9151   7.695   2.439   4.588
69104SOL    HW2 9152   7.745   2.578   4.555
69105SOL     OW 9153   4.695   7.711   6.046
69105SOL    HW1 9154   4.626   7.773   6.071
69105SOL    HW2 9155   4.744   7.756   5.978
69106SOL     OW 9156   6.977  11.485   5.672
69106SOL    HW1 9157   6.961  11.569   5.630
69106SOL    HW2 9158   6.989  11.423   5.600
69107SOL     OW 9159  12.932   8.965  13.281
69107SOL    HW1 9160  12.892   9.006  13.204
69107SOL    HW2 9161  12.974   8.886  13.246
69108SOL     OW 9162   3.911   6.997   9.984
69108SOL    HW1 9163   3.861   6.915   9.980
69108SOL    HW2 9164   3.946   7.000  10.073
69109SOL     OW 9165   4.532   0.614  13.410
69109SOL    HW1 9166   4.439   0.634  13.400
69109SOL    HW2 9167   4.537   0.519  13.398
69110SOL     OW 9168  12.364   8.741   8.221
69110SOL    HW1 9169  12.282   8.776   8.184
69110SOL    HW2 9170  12.433   8.789   8.175
69111SOL     OW 9171   5.548   4.540   2.915
69111SOL    HW1 9172   5.566   4.619   2.965
69111SOL    HW2 9173   5.577   4.469   2.971
69112SOL     OW 9174  13.436   6.270  13.788
69112SOL    HW1 9175  13.525   6.247  13.815
69112SOL    HW2 9176  13.448   6.337  13.721
69113SOL     OW 9177   3.947   7.236  13.094
69113SOL    HW1 9178   3.907   7.310  13.049
69113SOL    HW2 9179   3.874   7.190  13.136
69114SOL     OW 9180  12.822   8.688   6.533
69114SOL    HW1 9181  12.893   8.649   6.585
69114SOL    HW2 9182  12.829   8.782   6.550
69115SOL     OW 9183  14.625   8.145  13.017
69115SOL    HW1 9184  14.538   8.106  13.026
69115SOL    HW2 9185  14.665   8.135  13.103
69116SOL     OW 9186  13.575   8.171  13.309
69116SOL    HW1 9187  13.626   8.188  13.388
69116SOL    HW2 9188  13.566   8.256  13.266
69117SOL     OW 9189  11.652  10.774   7.654
69117SOL    HW1 9190  11.671  10.713   7.726
69117SOL    HW2 9191  11.572  10.741   7.615
69118SOL     OW 9192   8.440  10.797  13.127
69118SOL    HW1 9193   8.440  10.737  13.201
69118SOL    HW2 9194   8.366  10.856  13.144
69119SOL     OW 9195   1.516  14.535   7.048
69119SOL    HW1 9196   1.449  14.504   7.108
69119SOL    HW2 9197   1.511  14.475   6.974
69120SOL     OW 9198   5.377  12.782   9.357
69120SOL    HW1 9199   5.431  12.710   9.325
69120SOL    HW2 9200   5.312  12.740   9.414
69121SOL     OW 9201   4.280   6.238   4.328
69121SOL    HW1 9202   4.278   6.254   4.422
69121SOL    HW2 9203   4.197   6.275   4.296
69122SOL     OW 9204   4.606   4.795   8.383
69122SOL    HW1 9205   4.535   4.837   8.335
69122SOL    HW2 9206   4.686   4.831   8.343
69123SOL     OW 9207   2.623  11.968   5.545
69123SOL    HW1 9208   2.673  11.907   5.490
69123SOL    HW2 9209   2.567  11.912   5.598
69124SOL     OW 9210   6.276   5.291   0.998
69124SOL    HW1 9211   6.202   5.332   0.954
69124SOL    HW2 9212   6.316   5.361   1.050
69125SOL     OW 9213   2.206  11.924   3.376
69125SOL    HW1 9214   2.238  11.906   3.288
69125SOL    HW2 9215   2.169  11.841   3.406
69126SOL     OW 9216   9.020   8.670   4.938
69126SOL    HW1 9217   9.091   8.655   5.000
69126SOL    HW2 9218   9.059   8.726   4.870
69127SOL     OW 9219   6.683   5.361   6.864
69127SOL    HW1 9220   6.624   5.411   6.807
69127SOL    HW2 9221   6.768   5.367   6.821
69128SOL     OW 9222   2.902   9.311   7.958
69128SOL    HW1 9223   2.954   9.280   8.033
69128SOL    HW2 9224   2.813   9.285   7.978
69129SOL     OW 9225  14.422   5.010   6.095
69129SOL    HW1 9226  14.446   5.070   6.025
69129SOL    HW2 9227  14.412   5.065   6.173
69130SOL     OW 9228   8.019   6.325   7.662
69130SOL    HW1 9229   7.928   6.300   7.673
69130SOL    HW2 9230   8.049   6.346   7.751
69131SOL     OW 9231   1.412  10.877   2.179
69131SOL    HW1 9232   1.378  10.898   2.092
69131SOL    HW2 9233   1.447  10.789   2.169
69132SOL     OW 9234   3.819   2.171   4.433
69132SOL    HW1 9235   3.854   2.111   4.367
69132SOL    HW2 9236   3.725   2.152   4.435
69133SOL     OW 9237  12.109  14.365   1.161
69133SOL    HW1 9238  12.063  14.313   1.096
69133SOL    HW2 9239  12.072  14.338   1.245
69134SOL     OW 9240  14.808  11.326   6.092
69134SOL    HW1 9241   0.025  11.356   6.103
69134SOL    HW2 9242  14.792  11.333   5.998
69135SOL     OW 9243   0.994   4.242   0.914
69135SOL    HW1 9244   1.048   4.173   0.953
69135SOL    HW2 9245   0.975   4.302   0.987
69136SOL     OW 9246   4.347  14.445  11.913
69136SOL    HW1 9247   4.306  14.415  11.994
69136SOL    HW2 9248   4.319  14.382  11.847
69137SOL     OW 9249   6.097   9.193   3.513
69137SOL    HW1 9250   6.187   9.164   3.526
69137SOL    HW2 9251   6.103   9.258   3.443
69138SOL     OW 9252  14.381  12.046   5.997
69138SOL    HW1 9253  14.447  11.979   6.015
69138SOL    HW2 9254  14.303  12.015   6.043
69139SOL     OW 9255   0.320   2.599   1.204
69139SOL    HW1 9256   0.327   2.675   1.262
69139SOL    HW2 9257   0.230   2.604   1.170
69140SOL     OW 9258   9.574   6.592   7.011
69140SOL    HW1 9259   9.512   6.642   6.958
69140SOL    HW2 9260   9.649   6.650   7.023
69141SOL     OW 9261   9.171   3.740   8.821
69141SOL    HW1 9262   9.193   3.717   8.911
69141SOL    HW2 9263   9.247   3.788   8.789
69142SOL     OW 9264   5.019   1.309   9.575
69142SOL    HW1 9265   5.094   1.338   9.627
69142SOL    HW2 9266   5.057   1.265   9.499
69143SOL     OW 9267   1.162  10.468   3.171
69143SOL    HW1 9268   1.067  10.469   3.164
69143SOL    HW2 9269   1.181  10.383   3.212
69144SOL     OW 9270  11.415   5.977   2.639
69144SOL    HW1 9271  11.434   5.977   2.545
69144SOL    HW2 9272  11.387   5.888   2.658
69145SOL     OW 9273  10.127  14.627   2.381
69145SOL    HW1 9274  10.170  14.562   2.325
69145SOL    HW2 9275  10.198  14.687   2.406
69146SOL     OW 9276   9.065   9.003  11.012
69146SOL    HW1 9277   9.154   8.970  11.028
69146SOL    HW2 9278   9.022   8.934  10.962
69147SOL     OW 9279   6.597  12.559   8.590
69147SOL    HW1 9280   6.517  12.531   8.636
69147SOL    HW2 9281   6.626  12.636   8.638
69148SOL     OW 9282  10.470  11.399   4.061
69148SOL    HW1 9283  10.526  11.321   4.060
69148SOL    HW2 9284  10.382  11.366   4.078
69149SOL     OW 9285  14.304   7.391  13.887
69149SOL    HW1 9286  14.297   7.389  13.983
69149SOL    HW2 9287  14.214   7.383  13.856
69150SOL     OW 9288   3.631   6.929   6.437
69150SOL    HW1 9289   3.585   6.849   6.411
69150SOL    HW2 9290   3.687   6.949   6.362
69151SOL     OW 9291   0.750   7.044  11.938
69151SOL    HW1 9292   0.691   7.113  11.967
69151SOL    HW2 9293   0.712   7.013  11.856
69152SOL     OW 9294   6.431   4.030   6.248
69152SOL    HW1 9295   6.389   4.106   6.289
69152SOL    HW2 9296   6.476   3.986   6.320
69153SOL     OW 9297   7.301  13.042   8.832
69153SOL    HW1 9298   7.387  13.048   8.790
69153SOL    HW2 9299   7.294  13.121   8.886
69154SOL     OW 9300  14.617   1.225   1.406
69154SOL    HW1 9301  14.535   1.247   1.360
69154SOL    HW2 9302  14.674   1.301   1.389
69155SOL     OW 9303   4.118  14.062   2.680
69155SOL    HW1 9304   4.052  14.104   2.735
69155SOL    HW2 9305   4.180  14.023   2.742
69156SOL     OW 9306  14.070   1.859  12.933
69156SOL    HW1 9307  13.986   1.894  12.963
69156SOL    HW2 9308  14.135   1.918  12.970
69157SOL     OW 9309  14.385   6.200   1.278
69157SOL    HW1 9310  14.431   6.265   1.225
69157SOL    HW2 9311  14.358   6.133   1.215
69158SOL     OW 9312   7.982   2.173   4.458
69158SOL    HW1 9313   7.899   2.134   4.483
69158SOL    HW2 9314   7.992   2.248   4.517
69159SOL     OW 9315   2.024   8.318   1.917
69159SOL    HW1 9316   2.010   8.273   1.833
69159SOL    HW2 9317   1.983   8.260   1.982
69160SOL     OW 9318   4.199   7.864   0.541
69160SOL    HW1 9319   4.239   7.815   0.469
69160SOL    HW2 9320   4.143   7.800   0.585
69161SOL     OW 9321   8.447   3.341   8.734
69161SOL    HW1 9322   8.403   3.370   8.813
69161SOL    HW2 9323   8.376   3.331   8.670
69162SOL     OW 9324  12.426  11.058  14.504
69162SOL    HW1 9325  12.481  11.029  14.431
69162SOL    HW2 9326  12.342  11.079  14.464
69163SOL     OW 9327  10.157   3.411  13.473
69163SOL    HW1 9328  10.064   3.406  13.498
69163SOL    HW2 9329  10.178   3.324  13.440
69164SOL     OW 9330   5.364  10.307   2.445
69164SOL    HW1 9331   5.442  10.252   2.448
69164SOL    HW2 9332   5.345  10.319   2.352
69165SOL     OW 9333   3.012   6.511   8.278
69165SOL    HW1 9334   2.999   6.502   8.184
69165SOL    HW2 9335   2.993   6.424   8.313
69166SOL     OW 9336   9.814   2.276   1.979
69166SOL    HW1 9337   9.843   2.340   2.044
69166SOL    HW2 9338   9.838   2.314   1.895
69167SOL     OW 9339  10.161   8.074   9.915
69167SOL    HW1 9340  10.134   8.113   9.832
69167SOL    HW2 9341  10.082   8.070   9.967
69168SOL     OW 9342   0.309   4.827   9.210
69168SOL    HW1 9343   0.285   4.906   9.163
69168SOL    HW2 9344   0.398   4.808   9.180
69169SOL     OW 9345   0.324  12.190   7.808
69169SOL    HW1 9346   0.340  12.283   7.821
69169SOL    HW2 9347   0.367  12.147   7.881
69170SOL     OW 9348   1.309   4.702   5.890
69170SOL    HW1 9349   1.215   4.698   5.869
69170SOL    HW2 9350   1.311   4.707   5.986
69171SOL     OW 9351   4.974  14.816  10.585
69171SOL    HW1 9352   5.026  14.742  10.616
69171SOL    HW2 9353   4.995  14.822  10.492
69172SOL     OW 9354   7.109   6.839  14.794
69172SOL    HW1 9355   7.023   6.856  14.756
69172SOL    HW2 9356   7.171   6.866  14.726
69173SOL     OW 9357   4.239   4.731   8.907
69173SOL    HW1 9358   4.325   4.735   8.947
69173SOL    HW2 9359   4.251   4.678   8.828
69174SOL     OW 9360   8.454   9.098   5.981
69174SOL    HW1 9361   8.425   9.064   5.897
69174SOL    HW2 9362   8.466   9.192   5.966
69175SOL     OW 9363   9.596   4.060  11.218
69175SOL    HW1 9364   9.624   4.132  11.274
69175SOL    HW2 9365   9.530   4.098  11.160
69176SOL     OW 9366   1.408  13.426   1.313
69176SOL    HW1 9367   1.472  13.371   1.269
69176SOL    HW2 9368   1.328  13.416   1.262
69177SOL     OW 9369   3.135  10.864   7.876
69177SOL    HW1 9370   3.141  10.845   7.970
69177SOL    HW2 9371   3.221  10.899   7.853
69178SOL     OW 9372  12.900  13.366   1.300
69178SOL    HW1 9373  12.836  13.434   1.320
69178SOL    HW2 9374  12.914  13.373   1.206
69179SOL     OW 9375   2.419  10.533  12.829
69179SOL    HW1 9376   2.428  10.443  12.797
69179SOL    HW2 9377   2.480  10.583  12.776
69180SOL     OW 9378   5.667  10.266   0.596
69180SOL    HW1 9379   5.578  10.268   0.631
69180SOL    HW2 9380   5.684  10.356   0.567
69181SOL     OW 9381   8.832   8.003   4.771
69181SOL    HW1 9382   8.890   8.036   4.841
69181SOL    HW2 9383   8.883   8.014   4.691
69182SOL     OW 9384   5.499   9.039   1.558
69182SOL    HW1 9385   5.589   9.008   1.553
69182SOL    HW2 9386   5.449   8.963   1.590
69183SOL     OW 9387  10.256   7.511  14.759
69183SOL    HW1 9388  10.338   7.529  14.805
69183SOL    HW2 9389  10.228   7.597  14.728
69184SOL     OW 9390   7.412  14.607   6.511
69184SOL    HW1 9391   7.351  14.663   6.559
69184SOL    HW2 9392   7.357  14.553   6.455
69185SOL     OW 9393   9.113   8.839   5.902
69185SOL    HW1 9394   9.031   8.874   5.868
69185SOL    HW2 9395   9.087   8.794   5.983
69186SOL     OW 9396  13.378  13.816  12.019
69186SOL    HW1 9397  13.470  13.819  11.993
69186SOL    HW2 9398  13.349  13.729  11.992
69187SOL     OW 9399   9.620  10.226  11.246
69187SOL    HW1 9400   9.643  10.249  11.336
69187SOL    HW2 9401   9.629  10.308  11.197
69188SOL     OW 9402   9.805  12.646   6.424
69188SOL    HW1 9403   9.838  12.732   6.452
69188SOL    HW2 9404   9.880  12.587   6.435
69189SOL     OW 9405   5.409   1.199   6.572
69189SOL    HW1 9406   5.482   1.255   6.545
69189SOL    HW2 9407   5.433   1.111   6.543
69190SOL     OW 9408   2.007   1.480   5.848
69190SOL    HW1 9409   1.951   1.475   5.770
69190SOL    HW2 9410   2.087   1.523   5.817
69191SOL     OW 9411   8.122   8.933   0.406
69191SOL    HW1 9412   8.172   9.012   0.389
69191SOL    HW2 9413   8.147   8.873   0.336
69192SOL     OW 9414   8.162  14.192  10.748
69192SOL    HW1 9415   8.180  14.286  10.742
69192SOL    HW2 9416   8.092  14.177  10.684
69193SOL     OW 9417   0.798   7.383   0.009
69193SOL    HW1 9418   0.858   7.447  14.845
69193SOL    HW2 9419   0.800   7.400   0.103
69194SOL     OW 9420  11.178   8.125   1.020
69194SOL    HW1 9421  11.100   8.072   1.036
69194SOL    HW2 9422  11.145   8.215   1.015
69195SOL     OW 9423   0.618   6.913  13.663
69195SOL    HW1 9424   0.676   6.838  13.662
69195SOL    HW2 9425   0.582   6.917  13.574
69196SOL     OW 9426  14.454   8.828  13.010
69196SOL    HW1 9427  14.403   8.750  13.030
69196SOL    HW2 9428  14.542   8.807  13.040
69197SOL     OW 9429  12.573  11.073   1.776
69197SOL    HW1 9430  12.656  11.120   1.766
69197SOL    HW2 9431  12.598  10.980   1.778
69198SOL     OW 9432  11.771   9.365   0.199
69198SOL    HW1 9433  11.703   9.300   0.180
69198SOL    HW2 9434  11.848   9.313   0.223
69199SOL     OW 9435   7.587   2.245   7.475
69199SOL    HW1 9436   7.544   2.163   7.497
69199SOL    HW2 9437   7.535   2.281   7.403
69200SOL     OW 9438   5.744  14.469   5.998
69200SOL    HW1 9439   5.834  14.437   6.003
69200SOL    HW2 9440   5.726  14.474   5.904
69201SOL     OW 9441   4.739   9.463  11.406
69201SOL    HW1 9442   4.828   9.453  11.440
69201SOL    HW2 9443   4.697   9.525  11.466
69202SOL     OW 9444  10.861   6.649   8.181
69202SOL    HW1 9445  10.775   6.643   8.138
69202SOL    HW2 9446  10.903   6.565   8.164
69203SOL     OW 9447  12.179  14.655   7.418
69203SOL    HW1 9448  12.234  14.633   7.493
69203SOL    HW2 9449  12.145  14.743   7.438
69204SOL     OW 9450   4.289   2.651   2.305
69204SOL    HW1 9451   4.358   2.623   2.245
69204SOL    HW2 9452   4.212   2.662   2.250
69205SOL     OW 9453  11.362   3.190   9.090
69205SOL    HW1 9454  11.281   3.157   9.129
69205SOL    HW2 9455  11.333   3.250   9.022
69206SOL     OW 9456   8.227   7.184   3.196
69206SOL    HW1 9457   8.211   7.232   3.278
69206SOL    HW2 9458   8.255   7.252   3.134
69207SOL     OW 9459   7.510  13.107   8.331
69207SOL    HW1 9460   7.548  13.191   8.306
69207SOL    HW2 9461   7.435  13.130   8.386
69208SOL     OW 9462   9.458   8.241  13.337
69208SOL    HW1 9463   9.496   8.328  13.327
69208SOL    HW2 9464   9.486   8.193  13.258
69209SOL     OW 9465   8.281   3.359   8.277
69209SOL    HW1 9466   8.290   3.410   8.358
69209SOL    HW2 9467   8.238   3.278   8.305
69210SOL     OW 9468   7.570  12.905  10.604
69210SOL    HW1 9469   7.519  12.903  10.685
69210SOL    HW2 9470   7.627  12.981  10.613
69211SOL     OW 9471   4.492   5.994   4.238
69211SOL    HW1 9472   4.473   5.947   4.320
69211SOL    HW2 9473   4.440   6.074   4.244
69212SOL     OW 9474  14.027   3.081  11.978
69212SOL    HW1 9475  14.010   3.068  12.071
69212SOL    HW2 9476  14.110   3.129  11.975
69213SOL     OW 9477   8.279   1.878   2.600
69213SOL    HW1 9478   8.367   1.842   2.595
69213SOL    HW2 9479   8.221   1.804   2.580
69214SOL     OW 9480   8.149   9.494   2.598
69214SOL    HW1 9481   8.219   9.553   2.628
69214SOL    HW2 9482   8.089   9.551   2.550
69215SOL     OW 9483  13.958   0.556  12.685
69215SOL    HW1 9484  14.026   0.614  12.720
69215SOL    HW2 9485  13.878   0.609  12.687
69216SOL     OW 9486  14.024   0.852  11.273
69216SOL    HW1 9487  14.021   0.888  11.185
69216SOL    HW2 9488  13.933   0.856  11.303
69217SOL     OW 9489   6.431   1.716   7.512
69217SOL    HW1 9490   6.471   1.629   7.502
69217SOL    HW2 9491   6.497   1.767   7.559
69218SOL     OW 9492   7.631   0.078  10.844
69218SOL    HW1 9493   7.624  14.864  10.804
69218SOL    HW2 9494   7.618   0.139  10.771
69219SOL     OW 9495  12.354   3.326   5.798
69219SOL    HW1 9496  12.429   3.311   5.856
69219SOL    HW2 9497  12.363   3.260   5.729
69220SOL     OW 9498   6.677   0.153   4.707
69220SOL    HW1 9499   6.752   0.095   4.704
69220SOL    HW2 9500   6.679   0.192   4.794
69221SOL     OW 9501  10.751   5.046  13.254
69221SOL    HW1 9502  10.785   4.981  13.192
69221SOL    HW2 9503  10.676   5.003  13.295
69222SOL     OW 9504   4.337   0.056   3.147
69222SOL    HW1 9505   4.317  14.838   3.168
69222SOL    HW2 9506   4.299   0.070   3.060
69223SOL     OW 9507   2.698   3.591   9.730
69223SOL    HW1 9508   2.681   3.526   9.798
69223SOL    HW2 9509   2.716   3.540   9.652
69224SOL     OW 9510   8.421  13.765  11.175
69224SOL    HW1 9511   8.392  13.677  11.153
69224SOL    HW2 9512   8.355  13.822  11.134
69225SOL     OW 9513  13.247   4.664   3.043
69225SOL    HW1 9514  13.194   4.644   3.121
69225SOL    HW2 9515  13.196   4.630   2.970
69226SOL     OW 9516   6.334   4.255  13.052
69226SOL    HW1 9517   6.340   4.251  13.148
69226SOL    HW2 9518   6.270   4.324  13.035
69227SOL     OW 9519   7.498  11.497   9.539
69227SOL    HW1 9520   7.419  11.548   9.523
69227SOL    HW2 9521   7.485  11.458   9.626
69228SOL     OW 9522  14.815   5.528   4.718
69228SOL    HW1 9523  14.790   5.582   4.792
69228SOL    HW2 9524  14.771   5.444   4.733
69229SOL     OW 9525   5.918   4.588  14.748
69229SOL    HW1 9526   5.859   4.655  14.784
69229SOL    HW2 9527   5.952   4.628  14.668
69230SOL     OW 9528   2.702   0.165  13.987
69230SOL    HW1 9529   2.719   0.138  14.077
69230SOL    HW2 9530   2.767   0.233  13.970
69231SOL     OW 9531   9.352   4.249   1.469
69231SOL    HW1 9532   9.414   4.285   1.406
69231SOL    HW2 9533   9.285   4.207   1.416
69232SOL     OW 9534   9.451   3.392   2.361
69232SOL    HW1 9535   9.542   3.414   2.381
69232SOL    HW2 9536   9.403   3.409   2.443
69233SOL     OW 9537  10.093  10.757  12.421
69233SOL    HW1 9538  10.015  10.780  12.472
69233SOL    HW2 9539  10.060  10.698  12.353
69234SOL     OW 9540   9.206   1.721  10.919
69234SOL    HW1 9541   9.266   1.647  10.922
69234SOL    HW2 9542   9.165   1.723  11.006
69235SOL     OW 9543   8.827   3.842   1.219
69235SOL    HW1 9544   8.809   3.749   1.205
69235SOL    HW2 9545   8.827   3.879   1.131
69236SOL     OW 9546   7.206  11.196   1.062
69236SOL    HW1 9547   7.209  11.274   1.007
69236SOL    HW2 9548   7.208  11.230   1.151
69237SOL     OW 9549  14.264   8.576  14.808
69237SOL    HW1 9550  14.202   8.647  14.822
69237SOL    HW2 9551  14.326   8.610  14.744
69238SOL     OW 9552   5.912   9.581  13.346
69238SOL    HW1 9553   5.916   9.655  13.286
69238SOL    HW2 9554   5.895   9.621  13.432
69239SOL     OW 9555   2.063  11.196   2.762
69239SOL    HW1 9556   2.077  11.105   2.736
69239SOL    HW2 9557   1.968  11.203   2.775
69240SOL     OW 9558   5.216   5.256   4.720
69240SOL    HW1 9559   5.240   5.297   4.803
69240SOL    HW2 9560   5.123   5.273   4.711
69241SOL     OW 9561   8.825   5.988   0.302
69241SOL    HW1 9562   8.897   6.010   0.362
69241SOL    HW2 9563   8.869   5.968   0.219
69242SOL     OW 9564   5.424  13.633   6.211
69242SOL    HW1 9565   5.341  13.647   6.165
69242SOL    HW2 9566   5.444  13.718   6.250
69243SOL     OW 9567   6.247   5.698  12.080
69243SOL    HW1 9568   6.237   5.745  11.997
69243SOL    HW2 9569   6.265   5.766  12.144
69244SOL     OW 9570   0.115   2.985  10.493
69244SOL    HW1 9571   0.054   2.987  10.567
69244SOL    HW2 9572   0.170   3.063  10.506
69245SOL     OW 9573  11.147   0.748   7.247
69245SOL    HW1 9574  11.059   0.778   7.270
69245SOL    HW2 9575  11.195   0.749   7.330
69246SOL     OW 9576   9.225   0.979  10.351
69246SOL    HW1 9577   9.191   0.919  10.285
69246SOL    HW2 9578   9.314   1.000  10.321
69247SOL     OW 9579  12.441   2.069   3.313
69247SOL    HW1 9580  12.494   2.082   3.235
69247SOL    HW2 9581  12.359   2.114   3.294
69248SOL     OW 9582  11.621   7.794   6.091
69248SOL    HW1 9583  11.678   7.720   6.110
69248SOL    HW2 9584  11.534   7.757   6.083
69249SOL     OW 9585  14.298   6.716  10.998
69249SOL    HW1 9586  14.373   6.776  10.989
69249SOL    HW2 9587  14.222   6.773  10.992
69250SOL     OW 9588   0.033  10.298   5.003
69250SOL    HW1 9589  14.841  10.307   4.933
69250SOL    HW2 9590   0.037  10.386   5.042
69251SOL     OW 9591   1.261  14.325   8.751
69251SOL    HW1 9592   1.211  14.370   8.819
69251SOL    HW2 9593   1.342  14.375   8.742
69252SOL     OW 9594  10.309  13.502  13.963
69252SOL    HW1 9595  10.287  13.536  14.050
69252SOL    HW2 9596  10.386  13.447  13.978
69253SOL     OW 9597   7.415   3.772   7.389
69253SOL    HW1 9598   7.464   3.835   7.336
69253SOL    HW2 9599   7.454   3.779   7.476
69254SOL     OW 9600  11.705  10.292  12.956
69254SOL    HW1 9601  11.611  10.285  12.939
69254SOL    HW2 9602  11.712  10.301  13.051
69255SOL     OW 9603  11.786   4.392   3.428
69255SOL    HW1 9604  11.869   4.355   3.457
69255SOL    HW2 9605  11.754   4.441   3.504
69256SOL     OW 9606   2.816   7.347  10.151
69256SOL    HW1 9607   2.836   7.262  10.112
69256SOL    HW2 9608   2.858   7.345  10.237
69257SOL     OW 9609   1.506   2.343   1.144
69257SOL    HW1 9610   1.451   2.359   1.068
69257SOL    HW2 9611   1.542   2.429   1.166
69258SOL     OW 9612   4.610  10.819   8.168
69258SOL    HW1 9613   4.575  10.882   8.231
69258SOL    HW2 9614   4.534  10.778   8.128
69259SOL     OW 9615  11.589   0.357  13.693
69259SOL    HW1 9616  11.685   0.359  13.695
69259SOL    HW2 9617  11.564   0.331  13.782
69260SOL     OW 9618   5.211   9.721   1.303
69260SOL    HW1 9619   5.167   9.654   1.355
69260SOL    HW2 9620   5.141   9.761   1.252
69261SOL     OW 9621   1.301   2.053  14.851
69261SOL    HW1 9622   1.236   2.050  14.780
69261SOL    HW2 9623   1.250   2.037   0.057
69262SOL     OW 9624   9.255  13.644  13.998
69262SOL    HW1 9625   9.282  13.553  13.982
69262SOL    HW2 9626   9.178  13.655  13.943
69263SOL     OW 9627   8.445   1.177   8.397
69263SOL    HW1 9628   8.532   1.171   8.436
69263SOL    HW2 9629   8.459   1.225   8.316
69264SOL     OW 9630   7.083   0.024  13.018
69264SOL    HW1 9631   7.088  14.856  12.932
69264SOL    HW2 9632   7.147   0.095  13.015
69265SOL     OW 9633  10.215   7.768   6.953
69265SOL    HW1 9634  10.253   7.826   7.019
69265SOL    HW2 9635  10.214   7.681   6.994
69266SOL     OW 9636   2.721   0.842   6.954
69266SOL    HW1 9637   2.679   0.925   6.976
69266SOL    HW2 9638   2.815   0.861   6.956
69267SOL     OW 9639   3.450  10.385  14.073
69267SOL    HW1 9640   3.531  10.366  14.120
69267SOL    HW2 9641   3.413  10.299  14.053
69268SOL     OW 9642   9.780   9.471  12.853
69268SOL    HW1 9643   9.709   9.532  12.833
69268SOL    HW2 9644   9.736   9.392  12.885
69269SOL     OW 9645   9.742   9.144  12.664
69269SOL    HW1 9646   9.695   9.146  12.748
69269SOL    HW2 9647   9.813   9.207  12.674
69270SOL     OW 9648   2.308   9.597  11.900
69270SOL    HW1 9649   2.349   9.608  11.814
69270SOL    HW2 9650   2.344   9.669  11.952
69271SOL     OW 9651   7.535  13.404   6.042
69271SOL    HW1 9652   7.542  13.339   5.972
69271SOL    HW2 9653   7.558  13.357   6.122
69272SOL     OW 9654  14.297  11.822   4.557
69272SOL    HW1 9655  14.366  11.756   4.561
69272SOL    HW2 9656  14.307  11.861   4.470
69273SOL     OW 9657  13.034   7.085   7.951
69273SOL    HW1 9658  13.007   7.176   7.938
69273SOL    HW2 9659  13.104   7.071   7.887
69274SOL     OW 9660   1.013   0.823  14.321
69274SOL    HW1 9661   1.022   0.826  14.416
69274SOL    HW2 9662   0.979   0.910  14.298
69275SOL     OW 9663   0.643   2.448   2.768
69275SOL    HW1 9664   0.721   2.430   2.822
69275SOL    HW2 9665   0.679   2.477   2.684
69276SOL     OW 9666   5.781  12.686   3.782
69276SOL    HW1 9667   5.717  12.623   3.814
69276SOL    HW2 9668   5.766  12.690   3.688
69277SOL     OW 9669   3.667   5.658  13.111
69277SOL    HW1 9670   3.586   5.694  13.146
69277SOL    HW2 9671   3.693   5.590  13.174
69278SOL     OW 9672   6.232   9.990   6.717
69278SOL    HW1 9673   6.148  10.010   6.675
69278SOL    HW2 9674   6.277  10.075   6.723
69279SOL     OW 9675  12.373   4.625   2.380
69279SOL    HW1 9676  12.296   4.588   2.422
69279SOL    HW2 9677  12.357   4.616   2.286
69280SOL     OW 9678   4.700  14.377  12.184
69280SOL    HW1 9679   4.622  14.431  12.170
69280SOL    HW2 9680   4.719  14.340  12.098
69281SOL     OW 9681  11.967  10.706   9.404
69281SOL    HW1 9682  11.893  10.760   9.432
69281SOL    HW2 9683  12.008  10.757   9.334
69282SOL     OW 9684  11.100   0.383   1.289
69282SOL    HW1 9685  11.029   0.319   1.290
69282SOL    HW2 9686  11.180   0.330   1.291
69283SOL     OW 9687  10.780   3.924   7.868
69283SOL    HW1 9688  10.767   3.881   7.784
69283SOL    HW2 9689  10.698   3.972   7.883
69284SOL     OW 9690   2.269  11.492  10.763
69284SOL    HW1 9691   2.254  11.541  10.844
69284SOL    HW2 9692   2.345  11.534  10.723
69285SOL     OW 9693  12.254   3.984  12.855
69285SOL    HW1 9694  12.180   3.939  12.894
69285SOL    HW2 9695  12.241   3.975  12.760
69286SOL     OW 9696   5.573   5.651   8.545
69286SOL    HW1 9697   5.494   5.597   8.534
69286SOL    HW2 9698   5.559   5.725   8.485
69287SOL     OW 9699  10.487   5.588   6.422
69287SOL    HW1 9700  10.516   5.623   6.338
69287SOL    HW2 9701  10.534   5.505   6.430
69288SOL     OW 9702  11.596   9.896  12.830
69288SOL    HW1 9703  11.597   9.924  12.921
69288SOL    HW2 9704  11.506   9.866  12.815
69289SOL     OW 9705   4.074   4.398   0.194
69289SOL    HW1 9706   4.049   4.337   0.264
69289SOL    HW2 9707   4.099   4.478   0.240
69290SOL     OW 9708  13.926   3.456   5.813
69290SOL    HW1 9709  13.925   3.438   5.719
69290SOL    HW2 9710  13.990   3.526   5.824
69291SOL     OW 9711   0.571   7.472   3.726
69291SOL    HW1 9712   0.639   7.504   3.666
69291SOL    HW2 9713   0.539   7.551   3.770
69292SOL     OW 9714  13.431   2.690   1.956
69292SOL    HW1 9715  13.409   2.655   1.869
69292SOL    HW2 9716  13.394   2.778   1.957
69293SOL     OW 9717   7.544   5.728   8.005
69293SOL    HW1 9718   7.500   5.765   8.081
69293SOL    HW2 9719   7.635   5.756   8.013
69294SOL     OW 9720   6.554  13.113  11.295
69294SOL    HW1 9721   6.639  13.069  11.301
69294SOL    HW2 9722   6.574  13.205  11.313
69295SOL     OW 9723   3.408  12.827   1.557
69295SOL    HW1 9724   3.471  12.895   1.533
69295SOL    HW2 9725   3.341  12.873   1.607
69296SOL     OW 9726  11.968   6.537  13.492
69296SOL    HW1 9727  11.945   6.567  13.404
69296SOL    HW2 9728  11.982   6.443  13.483
69297SOL     OW 9729   9.108   5.921   5.441
69297SOL    HW1 9730   9.158   6.003   5.446
69297SOL    HW2 9731   9.146   5.874   5.367
69298SOL     OW 9732  11.724  12.103  14.660
69298SOL    HW1 9733  11.651  12.156  14.627
69298SOL    HW2 9734  11.727  12.027  14.602
69299SOL     OW 9735  10.065  13.043  11.799
69299SOL    HW1 9736  10.013  12.968  11.826
69299SOL    HW2 9737  10.152  13.008  11.783
69300SOL     OW 9738   0.586   5.983   2.269
69300SOL    HW1 9739   0.581   6.034   2.350
69300SOL    HW2 9740   0.577   6.047   2.199
69301SOL     OW 9741  13.037   1.230  10.654
69301SOL    HW1 9742  13.029   1.154  10.596
69301SOL    HW2 9743  13.030   1.305  10.595
69302SOL     OW 9744  10.079   5.796   8.148
69302SOL    HW1 9745  10.029   5.858   8.095
69302SOL    HW2 9746  10.092   5.841   8.231
69303SOL     OW 9747   3.750  10.863  13.001
69303SOL    HW1 9748   3.803  10.793  12.963
69303SOL    HW2 9749   3.814  10.926  13.034
69304SOL     OW 9750   8.163  14.231  12.562
69304SOL    HW1 9751   8.184  14.215  12.470
69304SOL    HW2 9752   8.069  14.216  12.569
69305SOL     OW 9753   7.305   1.887   4.879
69305SOL    HW1 9754   7.249   1.867   4.953
69305SOL    HW2 9755   7.371   1.947   4.914
69306SOL     OW 9756  13.061   4.881  13.602
69306SOL    HW1 9757  13.020   4.954  13.649
69306SOL    HW2 9758  13.067   4.811  13.668
69307SOL     OW 9759  10.125   6.182   1.309
69307SOL    HW1 9760  10.153   6.110   1.253
69307SOL    HW2 9761  10.029   6.178   1.307
69308SOL     OW 9762   8.624   3.114   5.508
69308SOL    HW1 9763   8.661   3.030   5.537
69308SOL    HW2 9764   8.530   3.105   5.521
69309SOL     OW 9765   1.922   8.295  10.069
69309SOL    HW1 9766   1.896   8.280  10.160
69309SOL    HW2 9767   1.863   8.365  10.039
69310SOL     OW 9768  13.675  10.828   8.493
69310SOL    HW1 9769  13.599  10.770   8.494
69310SOL    HW2 9770  13.722  10.808   8.573
69311SOL     OW 9771   9.266  12.718   6.897
69311SOL    HW1 9772   9.313  12.772   6.833
69311SOL    HW2 9773   9.326  12.647   6.917
69312SOL     OW 9774   5.217   6.268   4.449
69312SOL    HW1 9775   5.146   6.215   4.411
69312SOL    HW2 9776   5.258   6.310   4.374
69313SOL     OW 9777   6.632  14.051   2.862
69313SOL    HW1 9778   6.557  14.104   2.833
69313SOL    HW2 9779   6.609  14.026   2.952
69314SOL     OW 9780   7.931  14.032  13.935
69314SOL    HW1 9781   7.995  14.030  14.007
69314SOL    HW2 9782   7.880  14.112  13.951
69315SOL     OW 9783   2.823   9.123  11.209
69315SOL    HW1 9784   2.903   9.094  11.252
69315SOL    HW2 9785   2.760   9.134  11.281
69316SOL     OW 9786   8.791   7.154   5.538
69316SOL    HW1 9787   8.863   7.175   5.598
69316SOL    HW2 9788   8.823   7.078   5.488
69317SOL     OW 9789  13.513  13.382  13.501
69317SOL    HW1 9790  13.527  13.449  13.434
69317SOL    HW2 9791  13.509  13.431  13.583
69318SOL     OW 9792  14.040   8.481   4.721
69318SOL    HW1 9793  14.044   8.576   4.704
69318SOL    HW2 9794  13.972   8.449   4.662
69319SOL     OW 9795   7.151   1.691   7.369
69319SOL    HW1 9796   7.182   1.773   7.331
69319SOL    HW2 9797   7.056   1.695   7.359
69320SOL     OW 9798   2.628   9.649   0.858
69320SOL    HW1 9799   2.638   9.713   0.788
69320SOL    HW2 9800   2.568   9.583   0.823
69321SOL     OW 9801   7.129   8.916   9.961
69321SOL    HW1 9802   7.200   8.890  10.019
69321SOL    HW2 9803   7.171   8.929   9.875
69322SOL     OW 9804  10.895   1.018  11.922
69322SOL    HW1 9805  10.967   1.062  11.966
69322SOL    HW2 9806  10.920   1.017  11.830
69323SOL     OW 9807  13.110  11.866   2.079
69323SOL    HW1 9808  13.127  11.889   2.170
69323SOL    HW2 9809  13.086  11.949   2.037
69324SOL     OW 9810  11.856   3.993   2.502
69324SOL    HW1 9811  11.842   4.040   2.584
69324SOL    HW2 9812  11.950   3.977   2.499
69325SOL     OW 9813   8.784  11.436   4.461
69325SOL    HW1 9814   8.769  11.453   4.368
69325SOL    HW2 9815   8.750  11.513   4.506
69326SOL     OW 9816  10.062   4.083   2.495
69326SOL    HW1 9817   9.980   4.102   2.540
69326SOL    HW2 9818  10.090   3.998   2.529
69327SOL     OW 9819   9.662  13.569   4.602
69327SOL    HW1 9820   9.678  13.548   4.511
69327SOL    HW2 9821   9.646  13.485   4.645
69328SOL     OW 9822   0.788  12.052  14.050
69328SOL    HW1 9823   0.698  12.086  14.043
69328SOL    HW2 9824   0.778  11.957  14.047
69329SOL     OW 9825  14.117  11.560  11.315
69329SOL    HW1 9826  14.170  11.555  11.235
69329SOL    HW2 9827  14.175  11.601  11.380
69330SOL     OW 9828   2.683   1.477   0.098
69330SOL    HW1 9829   2.683   1.542   0.169
69330SOL    HW2 9830   2.636   1.402   0.134
69331SOL     OW 9831  11.464   1.887  12.991
69331SOL    HW1 9832  11.469   1.973  12.949
69331SOL    HW2 9833  11.539   1.885  13.050
69332SOL     OW 9834   4.125  10.002   6.443
69332SOL    HW1 9835   4.069  10.079   6.455
69332SOL    HW2 9836   4.145   9.973   6.532
69333SOL     OW 9837   5.887  11.551   1.027
69333SOL    HW1 9838   5.916  11.628   1.076
69333SOL    HW2 9839   5.969  11.507   1.002
69334SOL     OW 9840   9.795  12.668   1.103
69334SOL    HW1 9841   9.796  12.746   1.048
69334SOL    HW2 9842   9.706  12.633   1.093
69335SOL     OW 9843  11.140   1.359   3.053
69335SOL    HW1 9844  11.106   1.284   3.004
69335SOL    HW2 9845  11.072   1.425   3.046
69336SOL     OW 9846   4.671  13.310   5.571
69336SOL    HW1 9847   4.686  13.329   5.478
69336SOL    HW2 9848   4.745  13.255   5.596
69337SOL     OW 9849  10.190   9.325  12.745
69337SOL    HW1 9850  10.098   9.328  12.719
69337SOL    HW2 9851  10.187   9.316  12.841
69338SOL     OW 9852  14.648  13.765   3.500
69338SOL    HW1 9853  14.659  13.734   3.590
69338SOL    HW2 9854  14.583  13.835   3.507
69339SOL     OW 9855   9.053  11.635   2.449
69339SOL    HW1 9856   9.134  11.585   2.459
69339SOL    HW2 9857   9.081  11.727   2.448
69340SOL     OW 9858  12.175  14.804   2.054
69340SOL    HW1 9859  12.192  14.836   1.965
69340SOL    HW2 9860  12.172  14.709   2.045
69341SOL     OW 9861  10.184  13.941   3.773
69341SOL    HW1 9862  10.186  13.882   3.848
69341SOL    HW2 9863  10.110  14.000   3.789
69342SOL     OW 9864  13.259   1.624   5.043
69342SOL    HW1 9865  13.307   1.651   4.964
69342SOL    HW2 9866  13.286   1.534   5.057
69343SOL     OW 9867   1.440  11.099   5.265
69343SOL    HW1 9868   1.353  11.065   5.244
69343SOL    HW2 9869   1.436  11.191   5.236
69344SOL     OW 9870   0.706   4.827  14.069
69344SOL    HW1 9871   0.612   4.846  14.069
69344SOL    HW2 9872   0.746   4.905  14.107
69345SOL     OW 9873  13.359   0.804  13.323
69345SOL    HW1 9874  13.416   0.755  13.263
69345SOL    HW2 9875  13.414   0.825  13.398
69346SOL     OW 9876   6.576   5.289  10.030
69346SOL    HW1 9877   6.659   5.258   9.992
69346SOL    HW2 9878   6.534   5.338   9.958
69347SOL     OW 9879   8.042  13.198   9.054
69347SOL    HW1 9880   7.988  13.180   9.131
69347SOL    HW2 9881   8.028  13.123   8.996
69348SOL     OW 9882   9.990  13.405   9.920
69348SOL    HW1 9883  10.014  13.479   9.976
69348SOL    HW2 9884  10.005  13.328   9.974
69349SOL     OW 9885   4.568   5.807   2.795
69349SOL    HW1 9886   4.541   5.719   2.823
69349SOL    HW2 9887   4.611   5.845   2.871
69350SOL     OW 9888   8.843   2.951   0.936
69350SOL    HW1 9889   8.830   2.872   0.884
69350SOL    HW2 9890   8.916   2.996   0.894
69351SOL     OW 9891   1.900  10.589   2.516
69351SOL    HW1 9892   1.977  10.532   2.515
69351SOL    HW2 9893   1.830  10.534   2.481
69352SOL     OW 9894   7.528  11.431   0.992
69352SOL    HW1 9895   7.470  11.496   1.031
69352SOL    HW2 9896   7.616  11.466   1.008
69353SOL     OW 9897   5.930   8.589   0.441
69353SOL    HW1 9898   5.888   8.675   0.443
69353SOL    HW2 9899   6.014   8.605   0.397
69354SOL     OW 9900   3.454  12.345   0.829
69354SOL    HW1 9901   3.383  12.406   0.850
69354SOL    HW2 9902   3.414  12.258   0.838
69355SOL     OW 9903   1.565  10.639   2.200
69355SOL    HW1 9904   1.542  10.551   2.227
69355SOL    HW2 9905   1.660  10.638   2.191
69356SOL     OW 9906  13.626   0.217   8.331
69356SOL    HW1 9907  13.622   0.154   8.259
69356SOL    HW2 9908  13.560   0.188   8.393
69357SOL     OW 9909   1.835  10.782  14.697
69357SOL    HW1 9910   1.856  10.702  14.648
69357SOL    HW2 9911   1.878  10.771  14.781
69358SOL     OW 9912  13.660   4.896  12.315
69358SOL    HW1 9913  13.717   4.838  12.264
69358SOL    HW2 9914  13.700   4.982  12.307
69359SOL     OW 9915   3.031  14.345  10.260
69359SOL    HW1 9916   3.047  14.355  10.353
69359SOL    HW2 9917   3.112  14.307  10.226
69360SOL     OW 9918   0.931   0.596   2.499
69360SOL    HW1 9919   0.920   0.601   2.404
69360SOL    HW2 9920   0.938   0.687   2.528
69361SOL     OW 9921   4.686  11.959  13.214
69361SOL    HW1 9922   4.613  11.996  13.164
69361SOL    HW2 9923   4.687  12.010  13.295
69362SOL     OW 9924  11.919  11.889   6.153
69362SOL    HW1 9925  11.961  11.861   6.234
69362SOL    HW2 9926  11.973  11.961   6.122
69363SOL     OW 9927   9.701   0.141   0.835
69363SOL    HW1 9928   9.765   0.183   0.892
69363SOL    HW2 9929   9.739   0.056   0.815
69364SOL     OW 9930  12.470   4.552  13.454
69364SOL    HW1 9931  12.395   4.514  13.499
69364SOL    HW2 9932  12.453   4.533  13.361
69365SOL     OW 9933  10.124   9.076  13.843
69365SOL    HW1 9934  10.185   9.029  13.900
69365SOL    HW2 9935  10.094   9.009  13.780
69366SOL     OW 9936   5.971   8.042   9.634
69366SOL    HW1 9937   6.004   7.994   9.559
69366SOL    HW2 9938   5.992   8.134   9.616
69367SOL     OW 9939   8.720  12.938   1.680
69367SOL    HW1 9940   8.733  12.869   1.745
69367SOL    HW2 9941   8.806  12.952   1.641
69368SOL     OW 9942  14.783   8.786   0.129
69368SOL    HW1 9943  14.778   8.730   0.207
69368SOL    HW2 9944  14.849   8.744   0.074
69369SOL     OW 9945   5.336  10.334  11.338
69369SOL    HW1 9946   5.251  10.309  11.374
69369SOL    HW2 9947   5.400  10.292  11.396
69370SOL     OW 9948   5.521  12.208  14.215
69370SOL    HW1 9949   5.555  12.122  14.191
69370SOL    HW2 9950   5.591  12.269  14.193
69371SOL     OW 9951  14.857   0.351  10.788
69371SOL    HW1 9952   0.069   0.307  10.798
69371SOL    HW2 9953  14.862   0.425  10.848
69372SOL     OW 9954   6.650   6.328  13.869
69372SOL    HW1 9955   6.629   6.404  13.815
69372SOL    HW2 9956   6.718   6.359  13.929
69373SOL     OW 9957   5.293   1.818  12.736
69373SOL    HW1 9958   5.260   1.805  12.825
69373SOL    HW2 9959   5.214   1.835  12.684
69374SOL     OW 9960   7.182   8.650  14.749
69374SOL    HW1 9961   7.202   8.611  14.664
69374SOL    HW2 9962   7.248   8.614  14.808
69375SOL     OW 9963   7.308  13.475   7.724
69375SOL    HW1 9964   7.394  13.517   7.720
69375SOL    HW2 9965   7.305  13.420   7.645
69376SOL     OW 9966   6.106   6.401  10.467
69376SOL    HW1 9967   6.135   6.393  10.558
69376SOL    HW2 9968   6.103   6.311  10.435
69377SOL     OW 9969   1.278   1.803   0.378
69377SOL    HW1 9970   1.305   1.848   0.458
69377SOL    HW2 9971   1.210   1.743   0.407
69378SOL     OW 9972   7.294  13.506  13.271
69378SOL    HW1 9973   7.293  13.583  13.215
69378SOL    HW2 9974   7.223  13.520  13.333
69379SOL     OW 9975   0.340  14.073   5.740
69379SOL    HW1 9976   0.261  14.026   5.766
69379SOL    HW2 9977   0.412  14.014   5.763
69380SOL     OW 9978   4.803   9.450  10.199
69380SOL    HW1 9979   4.877   9.397  10.230
69380SOL    HW2 9980   4.726   9.401  10.226
69381SOL     OW 9981   4.845   4.450  12.508
69381SOL    HW1 9982   4.790   4.526  12.490
69381SOL    HW2 9983   4.881   4.425  12.423
69382SOL     OW 9984   0.050  11.270   9.688
69382SOL    HW1 9985   0.055  11.193   9.746
69382SOL    HW2 9986   0.142  11.293   9.672
69383SOL     OW 9987   0.905  12.760   8.468
69383SOL    HW1 9988   0.890  12.686   8.409
69383SOL    HW2 9989   0.972  12.729   8.528
69384SOL     OW 9990  10.769   4.454   1.297
69384SOL    HW1 9991  10.780   4.443   1.391
69384SOL    HW2 9992  10.737   4.544   1.287
69385SOL     OW 9993  10.067   9.783   0.377
69385SOL    HW1 9994  10.150   9.764   0.420
69385SOL    HW2 9995  10.092   9.817   0.292
69386SOL     OW 9996   5.765   4.681   7.416
69386SOL    HW1 9997   5.828   4.671   7.488
69386SOL    HW2 9998   5.727   4.767   7.429
69387SOL     OW 9999   3.169  10.156   3.863
69387SOL    HW110000   3.205  10.072   3.832
69387SOL    HW210001   3.075  10.148   3.848
69388SOL     OW10002  12.771   2.177   8.528
69388SOL    HW110003  12.716   2.224   8.590
69388SOL    HW210004  12.737   2.087   8.530
69389SOL     OW10005   9.245   5.702  11.886
69389SOL    HW110006   9.313   5.768  11.879
69389SOL    HW210007   9.272   5.633  11.825
69390SOL     OW10008   1.030  12.388   5.877
69390SOL    HW110009   1.029  12.293   5.892
69390SOL    HW210010   0.938  12.413   5.870
69391SOL     OW10011  10.099  11.183   4.287
69391SOL    HW110012  10.045  11.106   4.305
69391SOL    HW210013  10.068  11.250   4.347
69392SOL     OW10014  12.615  11.151  12.919
69392SOL    HW110015  12.594  11.154  13.013
69392SOL    HW210016  12.534  11.176  12.876
69393SOL     OW10017   3.590   6.437  11.954
69393SOL    HW110018   3.666   6.492  11.970
69393SOL    HW210019   3.621   6.347  11.969
69394SOL     OW10020   7.298   0.850  10.629
69394SOL    HW110021   7.357   0.862  10.704
69394SOL    HW210022   7.210   0.861  10.667
69395SOL     OW10023   7.072  11.608   1.445
69395SOL    HW110024   7.068  11.514   1.425
69395SOL    HW210025   7.139  11.615   1.513
69396SOL     OW10026   5.625  11.890  10.546
69396SOL    HW110027   5.695  11.901  10.482
69396SOL    HW210028   5.594  11.979  10.563
69397SOL     OW10029  14.178  12.296  11.377
69397SOL    HW110030  14.162  12.254  11.462
69397SOL    HW210031  14.266  12.267  11.352
69398SOL     OW10032  14.663   4.406  12.584
69398SOL    HW110033  14.639   4.313  12.586
69398SOL    HW210034  14.583   4.450  12.554
69399SOL     OW10035  12.636  10.240  10.695
69399SOL    HW110036  12.599  10.156  10.722
69399SOL    HW210037  12.565  10.303  10.708
69400SOL     OW10038  10.144   6.795  11.931
69400SOL    HW110039  10.233   6.825  11.916
69400SOL    HW210040  10.101   6.803  11.846
69401SOL     OW10041  12.005   4.158  12.161
69401SOL    HW110042  11.963   4.127  12.081
69401SOL    HW210043  12.098   4.141  12.147
69402SOL     OW10044   1.776   5.219   2.229
69402SOL    HW110045   1.768   5.285   2.160
69402SOL    HW210046   1.866   5.229   2.262
69403SOL     OW10047   0.066   5.315   6.488
69403SOL    HW110048   0.123   5.383   6.450
69403SOL    HW210049   0.116   5.234   6.477
69404SOL     OW10050   1.003   9.429   7.796
69404SOL    HW110051   0.956   9.346   7.802
69404SOL    HW210052   1.031   9.448   7.886
69405SOL     OW10053   7.443   5.411   9.712
69405SOL    HW110054   7.388   5.385   9.638
69405SOL    HW210055   7.512   5.465   9.673
69406SOL     OW10056   1.204   4.857   7.615
69406SOL    HW110057   1.164   4.822   7.535
69406SOL    HW210058   1.146   4.829   7.686
69407SOL     OW10059   7.782  11.105  14.765
69407SOL    HW110060   7.745  11.117  14.852
69407SOL    HW210061   7.876  11.115  14.777
69408SOL     OW10062   9.496   8.357   1.497
69408SOL    HW110063   9.490   8.322   1.408
69408SOL    HW210064   9.585   8.390   1.503
69409SOL     OW10065   9.772  10.451   2.548
69409SOL    HW110066   9.786  10.481   2.638
69409SOL    HW210067   9.726  10.523   2.505
69410SOL     OW10068   5.758   2.219   0.733
69410SOL    HW110069   5.807   2.167   0.670
69410SOL    HW210070   5.670   2.224   0.697
69411SOL     OW10071   3.753  10.452   9.626
69411SOL    HW110072   3.712  10.516   9.684
69411SOL    HW210073   3.847  10.471   9.631
69412SOL     OW10074  11.505   5.039  10.231
69412SOL    HW110075  11.449   4.994  10.167
69412SOL    HW210076  11.539   5.115  10.183
69413SOL     OW10077  13.029   5.557  11.739
69413SOL    HW110078  12.963   5.617  11.773
69413SOL    HW210079  13.110   5.581  11.784
69414SOL     OW10080  14.082  12.318   2.312
69414SOL    HW110081  14.016  12.340   2.378
69414SOL    HW210082  14.033  12.269   2.245
69415SOL     OW10083   9.027   3.601   2.084
69415SOL    HW110084   9.081   3.677   2.063
69415SOL    HW210085   9.086   3.542   2.130
69416SOL     OW10086  11.924   1.057   2.819
69416SOL    HW110087  11.843   1.016   2.850
69416SOL    HW210088  11.901   1.091   2.733
69417SOL     OW10089   8.757  14.640  14.605
69417SOL    HW110090   8.740  14.567  14.665
69417SOL    HW210091   8.750  14.601  14.518
69418SOL     OW10092   7.219   6.373   2.550
69418SOL    HW110093   7.204   6.398   2.458
69418SOL    HW210094   7.312   6.351   2.554
69419SOL     OW10095  10.166   9.415   0.987
69419SOL    HW110096  10.171   9.372   1.072
69419SOL    HW210097  10.187   9.507   1.006
69420SOL     OW10098  13.685   0.072  14.066
69420SOL    HW110099  13.718   0.161  14.057
69420SOL    HW210100  13.719   0.026  13.989
69421SOL     OW10101   4.516   3.457   8.417
69421SOL    HW110102   4.441   3.457   8.357
69421SOL    HW210103   4.477   3.448   8.504
69422SOL     OW10104   8.135  13.275  13.758
69422SOL    HW110105   8.198  13.320  13.702
69422SOL    HW210106   8.111  13.197  13.709
69423SOL     OW10107   4.140   6.888   6.064
69423SOL    HW110108   4.234   6.901   6.078
69423SOL    HW210109   4.133   6.857   5.974
69424SOL     OW10110   3.907  12.299  12.962
69424SOL    HW110111   3.834  12.290  13.024
69424SOL    HW210112   3.923  12.393  12.957
69425SOL     OW10113   3.991   1.124  14.273
69425SOL    HW110114   3.981   1.030  14.264
69425SOL    HW210115   4.021   1.136  14.364
69426SOL     OW10116  11.680   4.115  13.144
69426SOL    HW110117  11.638   4.116  13.058
69426SOL    HW210118  11.613   4.146  13.204
69427SOL     OW10119   6.993  11.602  14.004
69427SOL    HW110120   6.975  11.671  13.940
69427SOL    HW210121   6.997  11.522  13.952
69428SOL     OW10122   6.681   6.767   8.158
69428SOL    HW110123   6.689   6.811   8.243
69428SOL    HW210124   6.617   6.820   8.110
69429SOL     OW10125  13.172   4.967   6.952
69429SOL    HW110126  13.146   4.945   7.041
69429SOL    HW210127  13.267   4.954   6.951
69430SOL     OW10128   5.321  12.553   7.143
69430SOL    HW110129   5.294  12.601   7.222
69430SOL    HW210130   5.306  12.461   7.164
69431SOL     OW10131   9.332  10.682   3.230
69431SOL    HW110132   9.338  10.586   3.229
69431SOL    HW210133   9.260  10.701   3.169
69432SOL     OW10134   4.191  10.348   8.249
69432SOL    HW110135   4.241  10.279   8.292
69432SOL    HW210136   4.099  10.327   8.268
69433SOL     OW10137   0.627   0.935   1.168
69433SOL    HW110138   0.681   0.886   1.107
69433SOL    HW210139   0.689   0.982   1.223
69434SOL     OW10140   7.583   5.795  12.135
69434SOL    HW110141   7.569   5.705  12.163
69434SOL    HW210142   7.631   5.835  12.208
69435SOL     OW10143   0.060  14.203   2.960
69435SOL    HW110144   0.125  14.229   2.895
69435SOL    HW210145   0.089  14.244   3.041
69436SOL     OW10146  13.236   2.458   3.067
69436SOL    HW110147  13.295   2.384   3.054
69436SOL    HW210148  13.238   2.474   3.161
69437SOL     OW10149   1.595   9.842   4.802
69437SOL    HW110150   1.584   9.875   4.713
69437SOL    HW210151   1.547   9.906   4.856
69438SOL     OW10152   1.068   9.896  13.304
69438SOL    HW110153   0.978   9.930  13.297
69438SOL    HW210154   1.083   9.888  13.398
69439SOL     OW10155   9.613  12.426   6.784
69439SOL    HW110156   9.667  12.348   6.774
69439SOL    HW210157   9.614  12.467   6.698
69440SOL     OW10158   8.315   4.861  10.057
69440SOL    HW110159   8.404   4.870  10.024
69440SOL    HW210160   8.278   4.949  10.049
69441SOL     OW10161  11.537   8.600  10.699
69441SOL    HW110162  11.509   8.515  10.667
69441SOL    HW210163  11.537   8.656  10.621
69442SOL     OW10164   7.461   4.244   2.321
69442SOL    HW110165   7.492   4.230   2.232
69442SOL    HW210166   7.377   4.289   2.311
69443SOL     OW10167  14.337  14.338  12.470
69443SOL    HW110168  14.335  14.260  12.414
69443SOL    HW210169  14.362  14.409  12.411
69444SOL     OW10170   6.714   5.723   6.025
69444SOL    HW110171   6.700   5.803   6.075
69444SOL    HW210172   6.770   5.669   6.082
69445SOL     OW10173  11.793   7.326   6.093
69445SOL    HW110174  11.799   7.275   6.013
69445SOL    HW210175  11.699   7.339   6.107
69446SOL     OW10176  11.857  13.904   0.837
69446SOL    HW110177  11.805  13.851   0.777
69446SOL    HW210178  11.814  13.892   0.922
69447SOL     OW10179   0.046   8.511  11.629
69447SOL    HW110180   0.071   8.497  11.537
69447SOL    HW210181   0.073   8.601  11.648
69448SOL     OW10182   6.617  11.408   3.090
69448SOL    HW110183   6.521  11.411   3.092
69448SOL    HW210184   6.640  11.415   2.997
69449SOL     OW10185  13.040   5.314   5.913
69449SOL    HW110186  13.058   5.258   5.838
69449SOL    HW210187  13.126   5.326   5.954
69450SOL     OW10188   3.574   4.821   8.706
69450SOL    HW110189   3.656   4.780   8.679
69450SOL    HW210190   3.578   4.822   8.802
69451SOL     OW10191   5.639  11.076   4.634
69451SOL    HW110192   5.612  10.985   4.646
69451SOL    HW210193   5.570  11.115   4.581
69452SOL     OW10194  14.124   9.476   1.291
69452SOL    HW110195  14.032   9.489   1.313
69452SOL    HW210196  14.172   9.518   1.362
69453SOL     OW10197  12.336   6.989   5.763
69453SOL    HW110198  12.393   7.053   5.719
69453SOL    HW210199  12.311   6.928   5.695
69454SOL     OW10200   0.786   9.964  13.271
69454SOL    HW110201   0.736  10.043  13.249
69454SOL    HW210202   0.732   9.892  13.240
69455SOL     OW10203  11.049   5.117   6.156
69455SOL    HW110204  11.098   5.187   6.200
69455SOL    HW210205  10.960   5.126   6.188
69456SOL     OW10206   7.761   7.909  11.408
69456SOL    HW110207   7.793   7.930  11.497
69456SOL    HW210208   7.785   7.986  11.356
69457SOL     OW10209  14.532  12.249   5.291
69457SOL    HW110210  14.462  12.193   5.260
69457SOL    HW210211  14.489  12.314   5.347
69458SOL     OW10212   1.268   7.855  14.377
69458SOL    HW110213   1.214   7.929  14.350
69458SOL    HW210214   1.229   7.780  14.332
69459SOL     OW10215   9.622   0.401   0.397
69459SOL    HW110216   9.591   0.470   0.455
69459SOL    HW210217   9.584   0.422   0.311
69460SOL     OW10218   2.677  13.394   3.680
69460SOL    HW110219   2.737  13.322   3.701
69460SOL    HW210220   2.692  13.411   3.587
69461SOL     OW10221  13.583  14.241   2.611
69461SOL    HW110222  13.668  14.225   2.653
69461SOL    HW210223  13.592  14.327   2.571
69462SOL     OW10224  13.484   2.991  14.265
69462SOL    HW110225  13.421   2.935  14.310
69462SOL    HW210226  13.544   2.930  14.222
69463SOL     OW10227   5.608   2.526   4.031
69463SOL    HW110228   5.620   2.588   4.103
69463SOL    HW210229   5.557   2.573   3.966
69464SOL     OW10230   9.281   7.603   3.705
69464SOL    HW110231   9.218   7.675   3.694
69464SOL    HW210232   9.233   7.537   3.754
69465SOL     OW10233   1.825  10.732   3.028
69465SOL    HW110234   1.740  10.697   2.999
69465SOL    HW210235   1.824  10.823   2.998
69466SOL     OW10236  13.744   9.684   5.364
69466SOL    HW110237  13.725   9.593   5.385
69466SOL    HW210238  13.706   9.698   5.277
69467SOL     OW10239   4.609  10.395   3.015
69467SOL    HW110240   4.701  10.372   3.001
69467SOL    HW210241   4.573  10.401   2.926
69468SOL     OW10242  14.223  12.374  14.815
69468SOL    HW110243  14.270  12.455  14.795
69468SOL    HW210244  14.199  12.339  14.729
69469SOL     OW10245   1.811   5.360   5.682
69469SOL    HW110246   1.845   5.325   5.764
69469SOL    HW210247   1.807   5.454   5.695
69470SOL     OW10248   1.780   6.651   1.322
69470SOL    HW110249   1.821   6.718   1.377
69470SOL    HW210250   1.689   6.681   1.311
69471SOL     OW10251   5.807   4.849  11.962
69471SOL    HW110252   5.886   4.812  11.922
69471SOL    HW210253   5.839   4.901  12.035
69472SOL     OW10254   1.935  14.785   2.178
69472SOL    HW110255   1.943  14.837   2.097
69472SOL    HW210256   1.852  14.739   2.168
69473SOL     OW10257   4.279   9.311   0.246
69473SOL    HW110258   4.199   9.288   0.198
69473SOL    HW210259   4.300   9.400   0.218
69474SOL     OW10260   2.346  10.979   4.629
69474SOL    HW110261   2.407  11.051   4.643
69474SOL    HW210262   2.289  11.009   4.558
69475SOL     OW10263  13.619  11.147   8.838
69475SOL    HW110264  13.569  11.219   8.874
69475SOL    HW210265  13.654  11.180   8.755
69476SOL     OW10266   7.916   5.270  14.531
69476SOL    HW110267   7.928   5.193  14.587
69476SOL    HW210268   7.837   5.251  14.481
69477SOL     OW10269   5.814  11.682   9.517
69477SOL    HW110270   5.884  11.632   9.559
69477SOL    HW210271   5.753  11.616   9.485
69478SOL     OW10272   0.333   9.417   6.079
69478SOL    HW110273   0.314   9.493   6.134
69478SOL    HW210274   0.252   9.401   6.030
69479SOL     OW10275   6.751   0.646  10.619
69479SOL    HW110276   6.790   0.629  10.705
69479SOL    HW210277   6.663   0.678  10.639
69480SOL     OW10278   1.047   2.467  13.608
69480SOL    HW110279   1.117   2.524  13.577
69480SOL    HW210280   1.024   2.414  13.531
69481SOL     OW10281   6.820   8.361   8.929
69481SOL    HW110282   6.842   8.374   8.837
69481SOL    HW210283   6.899   8.322   8.968
69482SOL     OW10284  13.824   1.919  13.048
69482SOL    HW110285  13.766   1.988  13.080
69482SOL    HW210286  13.765   1.849  13.021
69483SOL     OW10287   1.285   1.406  12.423
69483SOL    HW110288   1.225   1.445  12.488
69483SOL    HW210289   1.340   1.479  12.395
69484SOL     OW10290   5.941  11.446  11.909
69484SOL    HW110291   5.901  11.504  11.844
69484SOL    HW210292   6.023  11.418  11.869
69485SOL     OW10293  14.723  11.788   5.674
69485SOL    HW110294  14.800  11.789   5.731
69485SOL    HW210295  14.661  11.731   5.720
69486SOL     OW10296   1.769  10.385  12.301
69486SOL    HW110297   1.768  10.386  12.396
69486SOL    HW210298   1.680  10.411  12.275
69487SOL     OW10299  13.462  10.274  14.432
69487SOL    HW110300  13.381  10.286  14.483
69487SOL    HW210301  13.440  10.306  14.345
69488SOL     OW10302  11.626   8.390  13.934
69488SOL    HW110303  11.666   8.419  14.015
69488SOL    HW210304  11.589   8.470  13.895
69489SOL     OW10305   7.850   6.282   5.827
69489SOL    HW110306   7.816   6.371   5.818
69489SOL    HW210307   7.772   6.227   5.834
69490SOL     OW10308  13.426  13.678   2.704
69490SOL    HW110309  13.452  13.665   2.795
69490SOL    HW210310  13.333  13.653   2.702
69491SOL     OW10311   8.371  11.011   6.813
69491SOL    HW110312   8.458  11.013   6.774
69491SOL    HW210313   8.381  10.962   6.894
69492SOL     OW10314  12.157   1.651   0.536
69492SOL    HW110315  12.099   1.669   0.610
69492SOL    HW210316  12.179   1.737   0.501
69493SOL     OW10317  11.064   9.547  13.736
69493SOL    HW110318  11.027   9.529  13.650
69493SOL    HW210319  11.082   9.641  13.736
69494SOL     OW10320   3.638   0.249   1.832
69494SOL    HW110321   3.644   0.316   1.765
69494SOL    HW210322   3.595   0.175   1.788
69495SOL     OW10323   6.151   1.036   7.635
69495SOL    HW110324   6.187   0.948   7.624
69495SOL    HW210325   6.226   1.089   7.662
69496SOL     OW10326  13.797   8.280  10.865
69496SOL    HW110327  13.769   8.190  10.881
69496SOL    HW210328  13.717   8.332  10.875
69497SOL     OW10329  14.816   8.582  10.612
69497SOL    HW110330  14.762   8.522  10.560
69497SOL    HW210331  14.762   8.602  10.688
69498SOL     OW10332  11.231  10.868  10.804
69498SOL    HW110333  11.185  10.932  10.750
69498SOL    HW210334  11.163  10.807  10.832
69499SOL     OW10335   0.783  13.843   7.938
69499SOL    HW110336   0.766  13.752   7.963
69499SOL    HW210337   0.847  13.875   8.002
69500SOL     OW10338   4.782   7.676   4.924
69500SOL    HW110339   4.706   7.715   4.880
69500SOL    HW210340   4.814   7.609   4.864
69501SOL     OW10341  14.067  12.550  11.476
69501SOL    HW110342  14.053  12.627  11.421
69501SOL    HW210343  14.087  12.479  11.414
69502SOL     OW10344   6.394  11.994   7.715
69502SOL    HW110345   6.392  12.004   7.810
69502SOL    HW210346   6.307  11.961   7.693
69503SOL     OW10347   5.100   5.338   8.982
69503SOL    HW110348   5.047   5.324   8.903
69503SOL    HW210349   5.124   5.250   9.011
69504SOL     OW10350   0.003   4.036   1.390
69504SOL    HW110351   0.020   4.115   1.440
69504SOL    HW210352  14.784   4.041   1.367
69505SOL     OW10353   8.387   8.897  12.927
69505SOL    HW110354   8.428   8.864  12.848
69505SOL    HW210355   8.298   8.922  12.900
69506SOL     OW10356  13.512   6.489  10.741
69506SOL    HW110357  13.492   6.401  10.773
69506SOL    HW210358  13.517   6.543  10.819
69507SOL     OW10359  10.986  11.363   2.199
69507SOL    HW110360  11.035  11.436   2.162
69507SOL    HW210361  11.052  11.296   2.215
69508SOL     OW10362  10.455   9.492   2.878
69508SOL    HW110363  10.520   9.484   2.947
69508SOL    HW210364  10.501   9.536   2.807
69509SOL     OW10365   6.536   0.806   5.254
69509SOL    HW110366   6.486   0.872   5.206
69509SOL    HW210367   6.584   0.856   5.320
69510SOL     OW10368   0.189  12.031   9.037
69510SOL    HW110369   0.109  12.015   8.987
69510SOL    HW210370   0.164  12.016   9.128
69511SOL     OW10371  12.018  13.852   8.229
69511SOL    HW110372  12.058  13.902   8.300
69511SOL    HW210373  12.089  13.794   8.199
69512SOL     OW10374   3.020   2.084   1.833
69512SOL    HW110375   3.031   2.038   1.916
69512SOL    HW210376   2.993   2.017   1.771
69513SOL     OW10377   8.302   1.814   1.881
69513SOL    HW110378   8.299   1.845   1.972
69513SOL    HW210379   8.371   1.867   1.841
69514SOL     OW10380   5.529   8.213   3.308
69514SOL    HW110381   5.502   8.131   3.349
69514SOL    HW210382   5.622   8.202   3.290
69515SOL     OW10383   6.696  14.099   4.761
69515SOL    HW110384   6.720  14.183   4.800
69515SOL    HW210385   6.710  14.110   4.667
69516SOL     OW10386   6.582   6.794   0.025
69516SOL    HW110387   6.542   6.708   0.014
69516SOL    HW210388   6.650   6.797  14.831
69517SOL     OW10389   6.928   8.574   8.442
69517SOL    HW110390   6.986   8.601   8.513
69517SOL    HW210391   6.971   8.498   8.403
69518SOL     OW10392   3.106   9.805   6.145
69518SOL    HW110393   3.184   9.770   6.102
69518SOL    HW210394   3.140   9.866   6.210
69519SOL     OW10395   6.313   1.224   9.059
69519SOL    HW110396   6.317   1.308   9.105
69519SOL    HW210397   6.398   1.184   9.074
69520SOL     OW10398   2.017  11.379   5.057
69520SOL    HW110399   1.937  11.346   5.098
69520SOL    HW210400   2.040  11.456   5.109
69521SOL     OW10401   4.644   9.469   7.031
69521SOL    HW110402   4.721   9.413   7.028
69521SOL    HW210403   4.639   9.508   6.944
69522SOL     OW10404   2.382   7.313   7.621
69522SOL    HW110405   2.410   7.394   7.664
69522SOL    HW210406   2.334   7.343   7.543
69523SOL     OW10407  12.474   5.657   0.208
69523SOL    HW110408  12.502   5.675   0.298
69523SOL    HW210409  12.518   5.725   0.155
69524SOL     OW10410   9.557   7.478  13.362
69524SOL    HW110411   9.526   7.411  13.301
69524SOL    HW210412   9.487   7.542  13.366
69525SOL     OW10413  14.064   1.010  12.025
69525SOL    HW110414  14.030   1.014  12.115
69525SOL    HW210415  14.124   0.936  12.026
69526SOL     OW10416   9.402  12.020   4.543
69526SOL    HW110417   9.324  11.965   4.546
69526SOL    HW210418   9.475  11.959   4.559
69527SOL     OW10419   3.617   8.505   4.677
69527SOL    HW110420   3.656   8.451   4.608
69527SOL    HW210421   3.535   8.538   4.639
69528SOL     OW10422  10.638   2.939  11.057
69528SOL    HW110423  10.710   2.982  11.103
69528SOL    HW210424  10.640   2.976  10.969
69529SOL     OW10425   8.382  11.051   5.388
69529SOL    HW110426   8.424  11.015   5.310
69529SOL    HW210427   8.350  11.137   5.360
69530SOL     OW10428  10.839   6.151   7.572
69530SOL    HW110429  10.899   6.168   7.646
69530SOL    HW210430  10.849   6.058   7.554
69531SOL     OW10431  14.835   9.882  10.120
69531SOL    HW110432  14.786   9.948  10.169
69531SOL    HW210433  14.796   9.882  10.033
69532SOL     OW10434   8.464   5.487   3.732
69532SOL    HW110435   8.435   5.396   3.734
69532SOL    HW210436   8.383   5.539   3.733
69533SOL     OW10437   8.917   6.287  13.403
69533SOL    HW110438   8.931   6.221  13.335
69533SOL    HW210439   8.853   6.248  13.463
69534SOL     OW10440   9.842   7.771   5.902
69534SOL    HW110441   9.852   7.756   5.996
69534SOL    HW210442   9.753   7.804   5.893
69535SOL     OW10443  12.842   4.663  13.318
69535SOL    HW110444  12.800   4.704  13.393
69535SOL    HW210445  12.896   4.593  13.356
69536SOL     OW10446  14.464   2.028   5.361
69536SOL    HW110447  14.545   2.008   5.407
69536SOL    HW210448  14.475   1.988   5.274
69537SOL     OW10449  13.661   6.921  10.272
69537SOL    HW110450  13.732   6.907  10.210
69537SOL    HW210451  13.704   6.955  10.350
69538SOL     OW10452   8.151  13.147   2.884
69538SOL    HW110453   8.123  13.087   2.954
69538SOL    HW210454   8.239  13.174   2.911
69539SOL     OW10455   8.924   1.937   5.269
69539SOL    HW110456   8.939   1.851   5.309
69539SOL    HW210457   8.829   1.949   5.272
69540SOL     OW10458   9.135   3.352   8.392
69540SOL    HW110459   9.131   3.270   8.343
69540SOL    HW210460   9.050   3.357   8.436
69541SOL     OW10461  12.153   4.002   2.506
69541SOL    HW110462  12.227   4.036   2.454
69541SOL    HW210463  12.185   4.004   2.596
69542SOL     OW10464   8.615   3.628   5.308
69542SOL    HW110465   8.554   3.558   5.333
69542SOL    HW210466   8.591   3.650   5.218
69543SOL     OW10467   3.175   4.869  13.321
69543SOL    HW110468   3.195   4.907  13.235
69543SOL    HW210469   3.259   4.833  13.351
69544SOL     OW10470   8.248   9.341   5.796
69544SOL    HW110471   8.225   9.250   5.815
69544SOL    HW210472   8.330   9.355   5.843
69545SOL     OW10473   3.253   3.664  12.402
69545SOL    HW110474   3.207   3.590  12.362
69545SOL    HW210475   3.308   3.624  12.470
69546SOL     OW10476   6.891   9.883   4.094
69546SOL    HW110477   6.805   9.916   4.122
69546SOL    HW210478   6.949   9.900   4.169
69547SOL     OW10479  10.421   8.948   4.308
69547SOL    HW110480  10.361   8.874   4.297
69547SOL    HW210481  10.478   8.923   4.380
69548SOL     OW10482  12.999   6.611  11.943
69548SOL    HW110483  13.010   6.694  11.898
69548SOL    HW210484  13.074   6.606  12.003
69549SOL     OW10485   4.260  14.349  10.568
69549SOL    HW110486   4.267  14.438  10.535
69549SOL    HW210487   4.349  14.325  10.593
69550SOL     OW10488  14.397   1.220   0.252
69550SOL    HW110489  14.414   1.190   0.162
69550SOL    HW210490  14.331   1.159   0.284
69551SOL     OW10491  12.220  13.243   2.253
69551SOL    HW110492  12.211  13.242   2.157
69551SOL    HW210493  12.217  13.335   2.277
69552SOL     OW10494  11.284   5.833   0.944
69552SOL    HW110495  11.321   5.778   0.875
69552SOL    HW210496  11.232   5.898   0.898
69553SOL     OW10497   0.868  13.808   8.571
69553SOL    HW110498   0.951  13.851   8.552
69553SOL    HW210499   0.860  13.740   8.504
69554SOL     OW10500   1.720   0.344  12.322
69554SOL    HW110501   1.730   0.252  12.300
69554SOL    HW210502   1.650   0.375  12.264
69555SOL     OW10503   2.943  13.610   3.129
69555SOL    HW110504   2.946  13.690   3.183
69555SOL    HW210505   2.975  13.541   3.187
69556SOL     OW10506   6.327  11.753   8.733
69556SOL    HW110507   6.381  11.788   8.805
69556SOL    HW210508   6.259  11.703   8.777
69557SOL     OW10509   0.967   1.383   9.072
69557SOL    HW110510   1.022   1.371   9.150
69557SOL    HW210511   0.956   1.295   9.036
69558SOL     OW10512   2.217  12.374  11.904
69558SOL    HW110513   2.290  12.404  11.959
69558SOL    HW210514   2.257  12.355  11.819
69559SOL     OW10515   6.188   7.283   3.067
69559SOL    HW110516   6.205   7.372   3.097
69559SOL    HW210517   6.093   7.279   3.054
69560SOL     OW10518   8.211   1.515   1.510
69560SOL    HW110519   8.188   1.500   1.602
69560SOL    HW210520   8.153   1.585   1.482
69561SOL     OW10521   7.673   4.632   2.750
69561SOL    HW110522   7.679   4.647   2.656
69561SOL    HW210523   7.719   4.707   2.789
69562SOL     OW10524   4.631  13.001   5.161
69562SOL    HW110525   4.626  13.014   5.256
69562SOL    HW210526   4.572  13.067   5.125
69563SOL     OW10527  14.580  13.870   5.379
69563SOL    HW110528  14.596  13.957   5.416
69563SOL    HW210529  14.541  13.820   5.451
69564SOL     OW10530   8.951   2.075   4.269
69564SOL    HW110531   9.012   2.087   4.342
69564SOL    HW210532   8.871   2.042   4.310
69565SOL     OW10533   6.031   9.626   4.202
69565SOL    HW110534   6.011   9.709   4.245
69565SOL    HW210535   6.075   9.575   4.269
69566SOL     OW10536   4.871  10.802   2.482
69566SOL    HW110537   4.794  10.745   2.470
69566SOL    HW210538   4.920  10.761   2.553
69567SOL     OW10539  14.357  12.609   8.830
69567SOL    HW110540  14.355  12.526   8.781
69567SOL    HW210541  14.294  12.596   8.901
69568SOL     OW10542   8.164   5.320  11.497
69568SOL    HW110543   8.223   5.393  11.478
69568SOL    HW210544   8.082   5.344  11.455
69569SOL     OW10545   0.526   2.820   7.367
69569SOL    HW110546   0.458   2.792   7.305
69569SOL    HW210547   0.479   2.833   7.449
69570SOL     OW10548  10.370  12.137   2.607
69570SOL    HW110549  10.449  12.121   2.554
69570SOL    HW210550  10.320  12.056   2.600
69571SOL     OW10551   5.021   2.085   7.523
69571SOL    HW110552   5.052   1.995   7.519
69571SOL    HW210553   4.934   2.083   7.484
69572SOL     OW10554   5.157   0.038  11.341
69572SOL    HW110555   5.101  14.834  11.337
69572SOL    HW210556   5.111   0.104  11.288
69573SOL     OW10557  12.430   7.821   7.528
69573SOL    HW110558  12.396   7.755   7.588
69573SOL    HW210559  12.353   7.849   7.478
69574SOL     OW10560   9.959   7.428   5.169
69574SOL    HW110561   9.997   7.342   5.186
69574SOL    HW210562  10.025   7.490   5.202
69575SOL     OW10563  12.441   2.245   2.722
69575SOL    HW110564  12.423   2.224   2.630
69575SOL    HW210565  12.390   2.324   2.739
69576SOL     OW10566   0.646   3.432   2.965
69576SOL    HW110567   0.732   3.461   2.937
69576SOL    HW210568   0.655   3.417   3.059
69577SOL     OW10569   9.349   4.056  13.408
69577SOL    HW110570   9.347   4.127  13.472
69577SOL    HW210571   9.337   3.977  13.460
69578SOL     OW10572   1.944   5.077   0.854
69578SOL    HW110573   1.963   4.984   0.867
69578SOL    HW210574   2.028   5.115   0.829
69579SOL     OW10575   5.252   1.003   8.474
69579SOL    HW110576   5.220   0.927   8.425
69579SOL    HW210577   5.345   0.987   8.486
69580SOL     OW10578   7.869   9.935   8.486
69580SOL    HW110579   7.884   9.841   8.492
69580SOL    HW210580   7.812   9.956   8.560
69581SOL     OW10581   8.793   3.412  12.915
69581SOL    HW110582   8.777   3.393  12.823
69581SOL    HW210583   8.779   3.328  12.960
69582SOL     OW10584   7.081   8.709   0.331
69582SOL    HW110585   7.034   8.653   0.269
69582SOL    HW210586   7.032   8.701   0.413
69583SOL     OW10587   2.569   5.345   0.648
69583SOL    HW110588   2.626   5.406   0.602
69583SOL    HW210589   2.480   5.375   0.628
69584SOL     OW10590  12.092   6.695  11.858
69584SOL    HW110591  12.081   6.772  11.913
69584SOL    HW210592  12.174   6.655  11.889
69585SOL     OW10593   4.290  10.871   8.543
69585SOL    HW110594   4.320  10.793   8.496
69585SOL    HW210595   4.222  10.907   8.488
69586SOL     OW10596   0.345  10.006  14.096
69586SOL    HW110597   0.269  10.059  14.072
69586SOL    HW210598   0.325   9.919  14.063
69587SOL     OW10599  14.637   7.808   9.725
69587SOL    HW110600  14.667   7.734   9.777
69587SOL    HW210601  14.615   7.876   9.789
69588SOL     OW10602   4.714   0.587  14.034
69588SOL    HW110603   4.679   0.561  14.119
69588SOL    HW210604   4.636   0.614  13.984
69589SOL     OW10605   9.493  11.362  14.870
69589SOL    HW110606   9.521  11.290   0.054
69589SOL    HW210607   9.401  11.344  14.852
69590SOL     OW10608   9.545   2.869   5.332
69590SOL    HW110609   9.613   2.823   5.283
69590SOL    HW210610   9.525   2.947   5.280
69591SOL     OW10611   2.117  10.689   4.944
69591SOL    HW110612   2.112  10.755   5.013
69591SOL    HW210613   2.055  10.621   4.970
69592SOL     OW10614   8.977  12.758   9.279
69592SOL    HW110615   8.980  12.674   9.324
69592SOL    HW210616   8.943  12.819   9.344
69593SOL     OW10617   9.273   7.263   2.342
69593SOL    HW110618   9.307   7.348   2.372
69593SOL    HW210619   9.179   7.276   2.336
69594SOL     OW10620   8.794   3.851   1.728
69594SOL    HW110621   8.746   3.768   1.728
69594SOL    HW210622   8.846   3.849   1.809
69595SOL     OW10623  14.267  12.646  10.809
69595SOL    HW110624  14.264  12.731  10.854
69595SOL    HW210625  14.256  12.669  10.717
69596SOL     OW10626  10.479   5.861  12.060
69596SOL    HW110627  10.557   5.873  12.115
69596SOL    HW210628  10.470   5.944  12.013
69597SOL     OW10629   1.538  10.985   3.569
69597SOL    HW110630   1.594  10.947   3.502
69597SOL    HW210631   1.599  11.016   3.637
69598SOL     OW10632   7.424   9.032   7.066
69598SOL    HW110633   7.403   9.031   6.972
69598SOL    HW210634   7.491   9.100   7.074
69599SOL     OW10635   0.768   2.875   3.171
69599SOL    HW110636   0.784   2.965   3.145
69599SOL    HW210637   0.757   2.828   3.088
69600SOL     OW10638   5.075   1.953   6.076
69600SOL    HW110639   5.161   1.941   6.036
69600SOL    HW210640   5.017   1.895   6.026
69601SOL     OW10641   8.135   3.984   3.333
69601SOL    HW110642   8.145   4.079   3.341
69601SOL    HW210643   8.047   3.967   3.367
69602SOL     OW10644  14.355   1.162  11.160
69602SOL    HW110645  14.264   1.135  11.151
69602SOL    HW210646  14.352   1.258  11.160
69603SOL     OW10647  12.894   2.378   8.680
69603SOL    HW110648  12.907   2.312   8.612
69603SOL    HW210649  12.835   2.336   8.743
69604SOL     OW10650   3.118   9.179   3.397
69604SOL    HW110651   3.084   9.216   3.316
69604SOL    HW210652   3.065   9.218   3.466
69605SOL     OW10653   7.997   5.762   0.360
69605SOL    HW110654   7.919   5.816   0.379
69605SOL    HW210655   8.026   5.732   0.446
69606SOL     OW10656   3.502   3.333   6.926
69606SOL    HW110657   3.475   3.265   6.864
69606SOL    HW210658   3.571   3.381   6.881
69607SOL     OW10659   4.088  12.880   3.250
69607SOL    HW110660   4.020  12.948   3.245
69607SOL    HW210661   4.158  12.921   3.301
69608SOL     OW10662   3.647   0.235   8.680
69608SOL    HW110663   3.740   0.254   8.668
69608SOL    HW210664   3.606   0.267   8.600
69609SOL     OW10665  14.095   3.422  14.248
69609SOL    HW110666  14.170   3.442  14.193
69609SOL    HW210667  14.131   3.412  14.336
69610SOL     OW10668   2.338  13.576  13.414
69610SOL    HW110669   2.317  13.486  13.440
69610SOL    HW210670   2.316  13.579  13.320
69611SOL     OW10671  14.395   4.033   6.882
69611SOL    HW110672  14.401   4.078   6.966
69611SOL    HW210673  14.446   4.086   6.822
69612SOL     OW10674   4.553  14.048   6.340
69612SOL    HW110675   4.648  14.037   6.347
69612SOL    HW210676   4.527  13.988   6.270
69613SOL     OW10677  14.199   0.434  14.544
69613SOL    HW110678  14.138   0.401  14.478
69613SOL    HW210679  14.262   0.363  14.555
69614SOL     OW10680   9.147   3.548   0.988
69614SOL    HW110681   9.077   3.520   1.046
69614SOL    HW210682   9.182   3.627   1.030
69615SOL     OW10683   8.094   1.432   0.283
69615SOL    HW110684   8.041   1.505   0.314
69615SOL    HW210685   8.031   1.362   0.267
69616SOL     OW10686   4.958   4.786   3.471
69616SOL    HW110687   4.966   4.692   3.456
69616SOL    HW210688   4.914   4.792   3.556
69617SOL     OW10689   0.563   3.712   0.277
69617SOL    HW110690   0.623   3.742   0.345
69617SOL    HW210691   0.565   3.616   0.284
69618SOL     OW10692  13.293   7.741  12.801
69618SOL    HW110693  13.249   7.659  12.822
69618SOL    HW210694  13.227   7.792  12.754
69619SOL     OW10695   1.535   8.505  14.234
69619SOL    HW110696   1.548   8.577  14.173
69619SOL    HW210697   1.559   8.541  14.319
69620SOL     OW10698   8.105   7.019   8.406
69620SOL    HW110699   8.111   7.073   8.327
69620SOL    HW210700   8.195   6.988   8.420
69621SOL     OW10701   7.170  12.911   6.034
69621SOL    HW110702   7.162  12.987   6.091
69621SOL    HW210703   7.250  12.927   5.983
69622SOL     OW10704   7.137   3.105   0.560
69622SOL    HW110705   7.151   3.062   0.645
69622SOL    HW210706   7.217   3.153   0.544
69623SOL     OW10707   5.712   0.919   9.184
69623SOL    HW110708   5.700   0.976   9.260
69623SOL    HW210709   5.732   0.979   9.112
69624SOL     OW10710  11.026   3.178  13.280
69624SOL    HW110711  10.991   3.198  13.367
69624SOL    HW210712  11.119   3.163  13.294
69625SOL     OW10713  12.593  12.534   1.223
69625SOL    HW110714  12.599  12.492   1.309
69625SOL    HW210715  12.575  12.461   1.163
69626SOL     OW10716  12.882  13.490   1.044
69626SOL    HW110717  12.966  13.528   1.072
69626SOL    HW210718  12.824  13.566   1.034
69627SOL     OW10719  10.830   2.692  13.583
69627SOL    HW110720  10.786   2.643  13.514
69627SOL    HW210721  10.896   2.632  13.617
69628SOL     OW10722   1.691  13.902   7.894
69628SOL    HW110723   1.636  13.920   7.817
69628SOL    HW210724   1.771  13.865   7.858
69629SOL     OW10725   4.463   6.073   8.872
69629SOL    HW110726   4.466   6.000   8.934
69629SOL    HW210727   4.375   6.069   8.835
69630SOL     OW10728  11.984  12.391  14.026
69630SOL    HW110729  11.953  12.474  13.991
69630SOL    HW210730  12.080  12.398  14.022
69631SOL     OW10731   4.579   5.103   5.998
69631SOL    HW110732   4.611   5.150   6.075
69631SOL    HW210733   4.502   5.055   6.030
69632SOL     OW10734   9.135  12.891  11.407
69632SOL    HW110735   9.055  12.852  11.443
69632SOL    HW210736   9.182  12.924  11.483
69633SOL     OW10737   4.274   3.024   2.941
69633SOL    HW110738   4.225   3.016   3.023
69633SOL    HW210739   4.248   3.109   2.906
69634SOL     OW10740   3.498  11.883  13.569
69634SOL    HW110741   3.528  11.911  13.483
69634SOL    HW210742   3.529  11.950  13.629
69635SOL     OW10743   0.196  10.864   1.107
69635SOL    HW110744   0.127  10.835   1.047
69635SOL    HW210745   0.251  10.922   1.053
69636SOL     OW10746   2.038  12.405   8.604
69636SOL    HW110747   2.048  12.382   8.696
69636SOL    HW210748   2.061  12.326   8.556
69637SOL     OW10749   8.473  10.726   2.045
69637SOL    HW110750   8.566  10.708   2.036
69637SOL    HW210751   8.467  10.822   2.048
69638SOL     OW10752   7.275  10.577   4.479
69638SOL    HW110753   7.332  10.590   4.403
69638SOL    HW210754   7.334  10.579   4.555
69639SOL     OW10755   0.007   6.421   2.678
69639SOL    HW110756  14.790   6.410   2.709
69639SOL    HW210757   0.014   6.514   2.657
69640SOL     OW10758   0.203  14.546   4.851
69640SOL    HW110759   0.283  14.577   4.894
69640SOL    HW210760   0.133  14.565   4.913
69641SOL     OW10761   4.248   6.549   8.232
69641SOL    HW110762   4.170   6.559   8.178
69641SOL    HW210763   4.245   6.458   8.263
69642SOL     OW10764   1.127   5.596   2.741
69642SOL    HW110765   1.162   5.596   2.830
69642SOL    HW210766   1.032   5.600   2.752
69643SOL     OW10767  13.445  14.352  13.684
69643SOL    HW110768  13.398  14.356  13.601
69643SOL    HW210769  13.537  14.341  13.660
69644SOL     OW10770   8.242  11.947   0.444
69644SOL    HW110771   8.293  11.866   0.454
69644SOL    HW210772   8.282  11.991   0.369
69645SOL     OW10773   0.672  10.599  12.506
69645SOL    HW110774   0.606  10.664  12.481
69645SOL    HW210775   0.642  10.565  12.591
69646SOL     OW10776  11.884   0.047   2.089
69646SOL    HW110777  11.967   0.002   2.101
69646SOL    HW210778  11.881   0.112   2.159
69647SOL     OW10779  14.234   6.417   9.841
69647SOL    HW110780  14.318   6.384   9.810
69647SOL    HW210781  14.173   6.344   9.830
69648SOL     OW10782   5.090   6.142  10.904
69648SOL    HW110783   5.143   6.166  10.980
69648SOL    HW210784   5.000   6.159  10.931
69649SOL     OW10785   0.081  10.798  13.372
69649SOL    HW110786   0.052  10.765  13.287
69649SOL    HW210787   0.050  10.732  13.435
69650SOL     OW10788   2.204   0.724  10.242
69650SOL    HW110789   2.227   0.737  10.150
69650SOL    HW210790   2.211   0.630  10.256
69651SOL     OW10791   9.212   9.652  10.455
69651SOL    HW110792   9.277   9.638  10.387
69651SOL    HW210793   9.263   9.675  10.533
69652SOL     OW10794  11.338   4.340  10.807
69652SOL    HW110795  11.300   4.370  10.724
69652SOL    HW210796  11.337   4.244  10.799
69653SOL     OW10797   7.215   0.370   2.537
69653SOL    HW110798   7.232   0.376   2.631
69653SOL    HW210799   7.140   0.427   2.522
69654SOL     OW10800   8.230   0.640   8.097
69654SOL    HW110801   8.312   0.675   8.131
69654SOL    HW210802   8.195   0.587   8.168
69655SOL     OW10803   5.900   8.989  13.674
69655SOL    HW110804   5.988   9.025  13.675
69655SOL    HW210805   5.893   8.945  13.589
69656SOL     OW10806   5.449   9.511   5.872
69656SOL    HW110807   5.531   9.461   5.866
69656SOL    HW210808   5.390   9.468   5.811
69657SOL     OW10809  11.142   0.230  11.739
69657SOL    HW110810  11.177   0.196  11.821
69657SOL    HW210811  11.219   0.246  11.685
69658SOL     OW10812   0.415  10.619   0.686
69658SOL    HW110813   0.387  10.633   0.596
69658SOL    HW210814   0.488  10.557   0.680
69659SOL     OW10815  10.869   4.907   9.546
69659SOL    HW110816  10.836   4.893   9.457
69659SOL    HW210817  10.792   4.932   9.597
69660SOL     OW10818   9.084  11.978   3.933
69660SOL    HW110819   9.024  12.042   3.971
69660SOL    HW210820   9.162  12.029   3.911
69661SOL     OW10821  13.948  13.983   5.530
69661SOL    HW110822  14.040  13.993   5.507
69661SOL    HW210823  13.903  14.051   5.480
69662SOL     OW10824  10.326   8.460   2.486
69662SOL    HW110825  10.269   8.452   2.410
69662SOL    HW210826  10.399   8.401   2.468
69663SOL     OW10827   5.155   7.238   9.424
69663SOL    HW110828   5.204   7.317   9.400
69663SOL    HW210829   5.223   7.171   9.438
69664SOL     OW10830   5.479   5.084  13.578
69664SOL    HW110831   5.506   5.107  13.489
69664SOL    HW210832   5.410   5.147  13.599
69665SOL     OW10833   6.706  11.994  14.705
69665SOL    HW110834   6.799  11.988  14.723
69665SOL    HW210835   6.690  12.088  14.692
69666SOL     OW10836  14.132   6.288  11.872
69666SOL    HW110837  14.224   6.271  11.851
69666SOL    HW210838  14.128   6.288  11.967
69667SOL     OW10839  13.765  11.811   9.976
69667SOL    HW110840  13.681  11.768   9.959
69667SOL    HW210841  13.757  11.896   9.932
69668SOL     OW10842   7.394   7.408  14.377
69668SOL    HW110843   7.404   7.486  14.323
69668SOL    HW210844   7.388   7.335  14.315
69669SOL     OW10845   9.193   4.263   1.235
69669SOL    HW110846   9.188   4.263   1.140
69669SOL    HW210847   9.109   4.226   1.263
69670SOL     OW10848   6.077   8.857   2.241
69670SOL    HW110849   6.012   8.928   2.242
69670SOL    HW210850   6.160   8.901   2.259
69671SOL     OW10851   2.110  10.269   3.308
69671SOL    HW110852   2.139  10.207   3.240
69671SOL    HW210853   2.014  10.268   3.301
69672SOL     OW10854   7.273   4.250   1.574
69672SOL    HW110855   7.268   4.194   1.497
69672SOL    HW210856   7.295   4.336   1.539
69673SOL     OW10857   1.482   4.733   5.405
69673SOL    HW110858   1.446   4.821   5.401
69673SOL    HW210859   1.416   4.682   5.451
69674SOL     OW10860  14.416   4.884  14.687
69674SOL    HW110861  14.407   4.791  14.665
69674SOL    HW210862  14.470   4.920  14.617
69675SOL     OW10863  12.632   2.550  10.410
69675SOL    HW110864  12.539   2.527  10.403
69675SOL    HW210865  12.642   2.627  10.354
69676SOL     OW10866   3.441  11.742  12.317
69676SOL    HW110867   3.524  11.700  12.342
69676SOL    HW210868   3.459  11.784  12.233
69677SOL     OW10869   1.081   9.536   6.199
69677SOL    HW110870   1.032   9.603   6.247
69677SOL    HW210871   1.020   9.503   6.134
69678SOL     OW10872   3.757  10.351   3.353
69678SOL    HW110873   3.826  10.407   3.386
69678SOL    HW210874   3.803  10.277   3.311
69679SOL     OW10875   7.084   8.662   0.874
69679SOL    HW110876   7.165   8.708   0.851
69679SOL    HW210877   7.112   8.592   0.933
69680SOL     OW10878  14.475  12.339   2.593
69680SOL    HW110879  14.564  12.304   2.582
69680SOL    HW210880  14.424  12.295   2.525
69681SOL     OW10881   4.156  11.352  11.931
69681SOL    HW110882   4.123  11.380  11.846
69681SOL    HW210883   4.082  11.365  11.991
69682SOL     OW10884   7.790  13.059  14.563
69682SOL    HW110885   7.877  13.050  14.522
69682SOL    HW210886   7.737  12.991  14.520
69683SOL     OW10887  14.336  11.831   7.585
69683SOL    HW110888  14.311  11.798   7.498
69683SOL    HW210889  14.252  11.846   7.629
69684SOL     OW10890   9.877   3.900   9.990
69684SOL    HW110891   9.914   3.815  10.016
69684SOL    HW210892   9.909   3.914   9.901
69685SOL     OW10893  11.919   7.699  12.002
69685SOL    HW110894  11.868   7.747  11.936
69685SOL    HW210895  12.010   7.720  11.981
69686SOL     OW10896  14.281  11.253  14.774
69686SOL    HW110897  14.284  11.173  14.722
69686SOL    HW210898  14.335  11.316  14.726
69687SOL     OW10899  12.417   8.955   7.807
69687SOL    HW110900  12.511   8.953   7.824
69687SOL    HW210901  12.390   8.863   7.808
69688SOL     OW10902  13.945   8.996   7.339
69688SOL    HW110903  14.013   9.061   7.356
69688SOL    HW210904  13.873   9.020   7.397
69689SOL     OW10905  10.973   4.713   2.377
69689SOL    HW110906  10.898   4.772   2.386
69689SOL    HW210907  11.040   4.751   2.433
69690SOL     OW10908   7.944   2.936  14.618
69690SOL    HW110909   7.993   2.947  14.699
69690SOL    HW210910   7.856   2.911  14.645
69691SOL     OW10911   9.812   1.678   1.666
69691SOL    HW110912   9.877   1.614   1.638
69691SOL    HW210913   9.834   1.696   1.757
69692SOL     OW10914   3.948   8.960   9.252
69692SOL    HW110915   3.854   8.979   9.254
69692SOL    HW210916   3.984   9.026   9.193
69693SOL     OW10917  14.142  11.800   0.428
69693SOL    HW110918  14.088  11.743   0.373
69693SOL    HW210919  14.098  11.801   0.513
69694SOL     OW10920   6.193  14.690   3.891
69694SOL    HW110921   6.216  14.683   3.983
69694SOL    HW210922   6.137  14.614   3.875
69695SOL     OW10923   2.378  12.254   5.664
69695SOL    HW110924   2.337  12.168   5.657
69695SOL    HW210925   2.459  12.246   5.613
69696SOL     OW10926   3.577  13.177   0.920
69696SOL    HW110927   3.552  13.133   0.839
69696SOL    HW210928   3.659  13.136   0.945
69697SOL     OW10929   1.968   6.682   6.823
69697SOL    HW110930   1.991   6.595   6.853
69697SOL    HW210931   1.952   6.672   6.729
69698SOL     OW10932  10.827  11.533   2.434
69698SOL    HW110933  10.886  11.460   2.414
69698SOL    HW210934  10.748  11.515   2.384
69699SOL     OW10935  14.277  14.645   0.660
69699SOL    HW110936  14.328  14.565   0.676
69699SOL    HW210937  14.316  14.710   0.717
69700SOL     OW10938   2.384   2.322  11.492
69700SOL    HW110939   2.392   2.389  11.559
69700SOL    HW210940   2.360   2.370  11.413
69701SOL     OW10941   3.358  11.192   1.897
69701SOL    HW110942   3.429  11.253   1.912
69701SOL    HW210943   3.387  11.140   1.822
69702SOL     OW10944  14.107  10.279   7.183
69702SOL    HW110945  14.150  10.262   7.267
69702SOL    HW210946  14.070  10.366   7.192
69703SOL     OW10947   2.452   6.831   0.899
69703SOL    HW110948   2.369   6.861   0.862
69703SOL    HW210949   2.446   6.735   0.895
69704SOL     OW10950   1.376   8.192   7.628
69704SOL    HW110951   1.465   8.213   7.656
69704SOL    HW210952   1.354   8.113   7.677
69705SOL     OW10953  12.383   3.075  10.824
69705SOL    HW110954  12.377   3.166  10.793
69705SOL    HW210955  12.395   3.083  10.919
69706SOL     OW10956   9.234   9.904  11.654
69706SOL    HW110957   9.316   9.953  11.659
69706SOL    HW210958   9.184   9.948  11.586
69707SOL     OW10959   2.994  13.381   1.658
69707SOL    HW110960   3.023  13.388   1.567
69707SOL    HW210961   2.922  13.318   1.656
69708SOL     OW10962  11.571   5.024   2.293
69708SOL    HW110963  11.656   5.061   2.268
69708SOL    HW210964  11.546   5.073   2.371
69709SOL     OW10965   3.474  10.100  13.059
69709SOL    HW110966   3.558  10.113  13.015
69709SOL    HW210967   3.456  10.007  13.049
69710SOL     OW10968   7.683  12.314   2.878
69710SOL    HW110969   7.596  12.337   2.846
69710SOL    HW210970   7.679  12.328   2.972
69711SOL     OW10971   3.869  10.994   5.258
69711SOL    HW110972   3.890  11.075   5.213
69711SOL    HW210973   3.930  10.930   5.221
69712SOL     OW10974   6.837   3.972  13.754
69712SOL    HW110975   6.846   3.934  13.841
69712SOL    HW210976   6.790   4.054  13.768
69713SOL     OW10977   3.348   3.784   8.179
69713SOL    HW110978   3.384   3.785   8.090
69713SOL    HW210979   3.414   3.827   8.232
69714SOL     OW10980   4.918   2.313  10.590
69714SOL    HW110981   4.842   2.291  10.536
69714SOL    HW210982   4.880   2.348  10.671
69715SOL     OW10983  13.725   3.008   9.156
69715SOL    HW110984  13.684   2.964   9.231
69715SOL    HW210985  13.742   3.097   9.187
69716SOL     OW10986  13.650   8.460   6.802
69716SOL    HW110987  13.638   8.455   6.897
69716SOL    HW210988  13.729   8.409   6.785
69717SOL     OW10989   7.288   4.122   7.816
69717SOL    HW110990   7.262   4.210   7.842
69717SOL    HW210991   7.235   4.103   7.738
69718SOL     OW10992  10.676   2.579  11.991
69718SOL    HW110993  10.596   2.560  11.941
69718SOL    HW210994  10.747   2.545  11.936
69719SOL     OW10995   0.101   5.561   0.605
69719SOL    HW110996   0.102   5.518   0.520
69719SOL    HW210997   0.161   5.509   0.659
69720SOL     OW10998   5.424   9.865   1.582
69720SOL    HW110999   5.410   9.855   1.676
69720SOL    HW211000   5.473   9.787   1.557
69721SOL     OW11001   2.685  11.329   3.687
69721SOL    HW111002   2.655  11.271   3.617
69721SOL    HW211003   2.740  11.273   3.742
69722SOL     OW11004  14.849   1.991   0.777
69722SOL    HW111005  14.872   2.063   0.719
69722SOL    HW211006   0.051   1.981   0.835
69723SOL     OW11007   8.918   8.667  13.950
69723SOL    HW111008   8.967   8.602  13.900
69723SOL    HW211009   8.889   8.730  13.885
69724SOL     OW11010  10.912  10.006  11.604
69724SOL    HW111011  10.822  10.037  11.604
69724SOL    HW211012  10.955  10.055  11.675
69725SOL     OW11013   8.889  14.370  10.520
69725SOL    HW111014   8.870  14.296  10.577
69725SOL    HW211015   8.813  14.428  10.529
69726SOL     OW11016   0.069   4.850   6.838
69726SOL    HW111017   0.155   4.833   6.799
69726SOL    HW211018   0.010   4.858   6.763
69727SOL     OW11019   3.293  14.637  14.605
69727SOL    HW111020   3.326  14.585  14.531
69727SOL    HW211021   3.198  14.632  14.598
69728SOL     OW11022   3.924   1.567   9.794
69728SOL    HW111023   3.886   1.509   9.728
69728SOL    HW211024   3.849   1.612   9.833
69729SOL     OW11025   0.704  10.460   1.152
69729SOL    HW111026   0.698  10.448   1.247
69729SOL    HW211027   0.770  10.397   1.124
69730SOL     OW11028   9.113   1.775   0.413
69730SOL    HW111029   9.122   1.805   0.322
69730SOL    HW211030   9.190   1.811   0.458
69731SOL     OW11031  10.972   7.336   7.925
69731SOL    HW111032  10.990   7.359   8.016
69731SOL    HW211033  11.054   7.351   7.879
69732SOL     OW11034   8.648   2.422  13.888
69732SOL    HW111035   8.625   2.494  13.829
69732SOL    HW211036   8.737   2.444  13.918
69733SOL     OW11037  13.669   6.581   7.701
69733SOL    HW111038  13.727   6.516   7.661
69733SOL    HW211039  13.729   6.640   7.747
69734SOL     OW11040  11.907  12.737   7.266
69734SOL    HW111041  11.970  12.671   7.294
69734SOL    HW211042  11.880  12.709   7.178
69735SOL     OW11043  11.341   0.183   8.163
69735SOL    HW111044  11.316   0.266   8.204
69735SOL    HW211045  11.433   0.195   8.139
69736SOL     OW11046  13.675  12.369   6.450
69736SOL    HW111047  13.644  12.456   6.477
69736SOL    HW211048  13.631  12.352   6.367
69737SOL     OW11049   5.253  13.797   6.763
69737SOL    HW111050   5.204  13.720   6.733
69737SOL    HW211051   5.297  13.830   6.685
69738SOL     OW11052  11.809   2.054  10.336
69738SOL    HW111053  11.840   2.141  10.359
69738SOL    HW211054  11.881   2.016  10.285
69739SOL     OW11055   9.436  14.479   5.205
69739SOL    HW111056   9.388  14.444   5.279
69739SOL    HW211057   9.457  14.402   5.152
69740SOL     OW11058   3.301   1.994   7.902
69740SOL    HW111059   3.320   2.037   7.985
69740SOL    HW211060   3.387   1.965   7.870
69741SOL     OW11061   7.067   5.740   6.408
69741SOL    HW111062   7.074   5.804   6.338
69741SOL    HW211063   7.155   5.703   6.416
69742SOL     OW11064   5.666   1.200  12.952
69742SOL    HW111065   5.739   1.231  13.005
69742SOL    HW211066   5.705   1.179  12.867
69743SOL     OW11067  10.953   1.639   2.138
69743SOL    HW111068  11.046   1.625   2.123
69743SOL    HW211069  10.944   1.732   2.156
69744SOL     OW11070  12.346  11.122   1.168
69744SOL    HW111071  12.408  11.178   1.215
69744SOL    HW211072  12.392  11.039   1.158
69745SOL     OW11073   5.395   1.155  13.003
69745SOL    HW111074   5.478   1.199  12.980
69745SOL    HW211075   5.422   1.075  13.047
69746SOL     OW11076   6.714   1.310   1.625
69746SOL    HW111077   6.743   1.330   1.536
69746SOL    HW211078   6.622   1.285   1.615
69747SOL     OW11079  13.386   5.247   9.774
69747SOL    HW111080  13.349   5.321   9.823
69747SOL    HW211081  13.420   5.188   9.842
69748SOL     OW11082  11.814   8.464   9.321
69748SOL    HW111083  11.797   8.394   9.384
69748SOL    HW211084  11.770   8.435   9.241
69749SOL     OW11085   3.617   2.181  13.774
69749SOL    HW111086   3.628   2.086  13.770
69749SOL    HW211087   3.674   2.214  13.704
69750SOL     OW11088  13.011   9.106  10.819
69750SOL    HW111089  13.057   9.080  10.740
69750SOL    HW211090  13.071   9.166  10.864
69751SOL     OW11091   4.546   5.800  11.820
69751SOL    HW111092   4.480   5.829  11.757
69751SOL    HW211093   4.602   5.740  11.770
69752SOL     OW11094   8.869  14.481  14.157
69752SOL    HW111095   8.957  14.510  14.132
69752SOL    HW211096   8.872  14.385  14.147
69753SOL     OW11097  10.973   7.290   5.149
69753SOL    HW111098  11.039   7.229   5.115
69753SOL    HW211099  11.021   7.345   5.211
69754SOL     OW11100   4.400   8.721   0.231
69754SOL    HW111101   4.463   8.792   0.227
69754SOL    HW211102   4.392   8.701   0.324
69755SOL     OW11103   4.858  14.848  14.163
69755SOL    HW111104   4.812  14.847  14.079
69755SOL    HW211105   4.831   0.057  14.204
69756SOL     OW11106   3.113   1.930   8.183
69756SOL    HW111107   3.055   1.933   8.258
69756SOL    HW211108   3.055   1.916   8.108
69757SOL     OW11109  11.864  11.814   0.924
69757SOL    HW111110  11.848  11.840   1.015
69757SOL    HW211111  11.916  11.886   0.888
69758SOL     OW11112   9.884   8.298  10.963
69758SOL    HW111113   9.873   8.321  10.871
69758SOL    HW211114   9.806   8.248  10.985
69759SOL     OW11115   9.693  14.504   5.106
69759SOL    HW111116   9.610  14.514   5.153
69759SOL    HW211117   9.720  14.414   5.124
69760SOL     OW11118   3.426   0.336  10.363
69760SOL    HW111119   3.477   0.406  10.403
69760SOL    HW211120   3.485   0.261  10.360
69761SOL     OW11121   6.070  13.234   0.817
69761SOL    HW111122   6.100  13.275   0.735
69761SOL    HW211123   6.106  13.145   0.814
69762SOL     OW11124   3.361   1.867  10.037
69762SOL    HW111125   3.392   1.780  10.010
69762SOL    HW211126   3.345   1.858  10.131
69763SOL     OW11127   2.594  13.811   1.079
69763SOL    HW111128   2.521  13.836   1.022
69763SOL    HW211129   2.625  13.728   1.043
69764SOL     OW11130   3.793  11.089   6.986
69764SOL    HW111131   3.723  11.143   7.023
69764SOL    HW211132   3.867  11.150   6.975
69765SOL     OW11133  13.811   9.362   3.350
69765SOL    HW111134  13.719   9.373   3.328
69765SOL    HW211135  13.853   9.339   3.267
69766SOL     OW11136   5.081  13.257   2.492
69766SOL    HW111137   5.172  13.282   2.475
69766SOL    HW211138   5.046  13.236   2.406
69767SOL     OW11139   8.903  13.231   8.089
69767SOL    HW111140   8.984  13.198   8.126
69767SOL    HW211141   8.835  13.175   8.126
69768SOL     OW11142  12.131  14.088   8.815
69768SOL    HW111143  12.130  14.040   8.732
69768SOL    HW211144  12.039  14.096   8.839
69769SOL     OW11145   2.720  13.842   7.140
69769SOL    HW111146   2.804  13.818   7.101
69769SOL    HW211147   2.663  13.859   7.064
69770SOL     OW11148   5.287  13.858  13.288
69770SOL    HW111149   5.321  13.911  13.216
69770SOL    HW211150   5.336  13.776  13.284
69771SOL     OW11151  12.385   9.458   8.188
69771SOL    HW111152  12.379   9.528   8.123
69771SOL    HW211153  12.433   9.497   8.261
69772SOL     OW11154   1.578   0.832   6.667
69772SOL    HW111155   1.527   0.784   6.733
69772SOL    HW211156   1.532   0.916   6.658
69773SOL     OW11157  14.471   1.920  10.051
69773SOL    HW111158  14.540   1.983  10.072
69773SOL    HW211159  14.494   1.841  10.101
69774SOL     OW11160   4.841   0.856   7.660
69774SOL    HW111161   4.844   0.788   7.592
69774SOL    HW211162   4.798   0.814   7.734
69775SOL     OW11163  10.471   6.130  11.119
69775SOL    HW111164  10.501   6.055  11.171
69775SOL    HW211165  10.387   6.103  11.084
69776SOL     OW11166   3.344   8.634  11.717
69776SOL    HW111167   3.316   8.696  11.650
69776SOL    HW211168   3.398   8.571  11.670
69777SOL     OW11169   5.920   8.100   7.464
69777SOL    HW111170   5.837   8.112   7.511
69777SOL    HW211171   5.930   8.178   7.411
69778SOL     OW11172   5.129  11.795  13.686
69778SOL    HW111173   5.152  11.888  13.677
69778SOL    HW211174   5.147  11.757  13.600
69779SOL     OW11175   5.388   4.062  13.479
69779SOL    HW111176   5.472   4.055  13.434
69779SOL    HW211177   5.324   4.069  13.408
69780SOL     OW11178   6.767  10.693  10.049
69780SOL    HW111179   6.681  10.674  10.086
69780SOL    HW211180   6.789  10.615   9.997
69781SOL     OW11181  13.436   5.534  13.147
69781SOL    HW111182  13.420   5.568  13.235
69781SOL    HW211183  13.409   5.605  13.089
69782SOL     OW11184   3.823   2.468   6.842
69782SOL    HW111185   3.732   2.488   6.820
69782SOL    HW211186   3.835   2.377   6.815
69783SOL     OW11187  14.368   1.283   4.306
69783SOL    HW111188  14.353   1.246   4.393
69783SOL    HW211189  14.424   1.359   4.321
69784SOL     OW11190   8.541   8.036   7.425
69784SOL    HW111191   8.607   7.995   7.481
69784SOL    HW211192   8.585   8.112   7.387
69785SOL     OW11193   0.738  13.560   7.949
69785SOL    HW111194   0.678  13.485   7.944
69785SOL    HW211195   0.809  13.530   8.006
69786SOL     OW11196  13.805  11.187  13.112
69786SOL    HW111197  13.734  11.130  13.083
69786SOL    HW211198  13.860  11.198  13.034
69787SOL     OW11199   3.712  10.780   9.545
69787SOL    HW111200   3.695  10.862   9.592
69787SOL    HW211201   3.635  10.769   9.488
69788SOL     OW11202  13.255   3.896   6.068
69788SOL    HW111203  13.321   3.911   6.000
69788SOL    HW211204  13.246   3.981   6.112
69789SOL     OW11205  10.453   3.034   5.814
69789SOL    HW111206  10.524   3.097   5.803
69789SOL    HW211207  10.373   3.085   5.803
69790SOL     OW11208   8.662   9.430   4.833
69790SOL    HW111209   8.679   9.366   4.903
69790SOL    HW211210   8.749   9.459   4.805
69791SOL     OW11211   9.992   1.396  14.659
69791SOL    HW111212  10.008   1.354  14.744
69791SOL    HW211213  10.064   1.368  14.604
69792SOL     OW11214   5.768   1.775  11.624
69792SOL    HW111215   5.728   1.752  11.707
69792SOL    HW211216   5.824   1.699  11.603
69793SOL     OW11217   2.234   4.097   8.457
69793SOL    HW111218   2.233   4.182   8.502
69793SOL    HW211219   2.164   4.047   8.499
69794SOL     OW11220   5.211   8.258  12.693
69794SOL    HW111221   5.205   8.345  12.652
69794SOL    HW211222   5.297   8.225  12.667
69795SOL     OW11223  10.923  14.110   9.859
69795SOL    HW111224  10.996  14.084   9.914
69795SOL    HW211225  10.895  14.195   9.893
69796SOL     OW11226  10.630   6.185  14.171
69796SOL    HW111227  10.665   6.097  14.181
69796SOL    HW211228  10.663   6.233  14.247
69797SOL     OW11229   3.806   8.315   3.295
69797SOL    HW111230   3.833   8.405   3.309
69797SOL    HW211231   3.863   8.263   3.352
69798SOL     OW11232   1.569  11.538  10.785
69798SOL    HW111233   1.643  11.481  10.766
69798SOL    HW211234   1.506  11.520  10.714
69799SOL     OW11235   2.854  10.565   4.302
69799SOL    HW111236   2.893  10.494   4.251
69799SOL    HW211237   2.800  10.521   4.368
69800SOL     OW11238   3.836  11.298  12.363
69800SOL    HW111239   3.861  11.209  12.338
69800SOL    HW211240   3.860  11.305  12.455
69801SOL     OW11241   7.369   5.927  10.503
69801SOL    HW111242   7.274   5.938  10.509
69801SOL    HW211243   7.405   6.014  10.519
69802SOL     OW11244  12.027   8.190   3.898
69802SOL    HW111245  12.028   8.284   3.917
69802SOL    HW211246  11.988   8.151   3.976
69803SOL     OW11247   1.838   8.718   0.418
69803SOL    HW111248   1.814   8.772   0.492
69803SOL    HW211249   1.780   8.746   0.347
69804SOL     OW11250   1.045   4.535  11.294
69804SOL    HW111251   0.973   4.511  11.353
69804SOL    HW211252   1.006   4.597  11.232
69805SOL     OW11253   5.019   9.501  11.226
69805SOL    HW111254   5.056   9.428  11.176
69805SOL    HW211255   4.964   9.547  11.164
69806SOL     OW11256   0.718  14.449   0.313
69806SOL    HW111257   0.802  14.454   0.267
69806SOL    HW211258   0.696  14.356   0.311
69807SOL     OW11259   9.121  11.174   2.560
69807SOL    HW111260   9.215  11.186   2.572
69807SOL    HW211261   9.104  11.086   2.594
69808SOL     OW11262   6.695   8.946   0.852
69808SOL    HW111263   6.672   8.989   0.769
69808SOL    HW211264   6.618   8.956   0.907
69809SOL     OW11265   8.959   4.183   1.355
69809SOL    HW111266   8.924   4.105   1.399
69809SOL    HW211267   8.882   4.237   1.337
69810SOL     OW11268   4.581   8.139  12.232
69810SOL    HW111269   4.537   8.198  12.293
69810SOL    HW211270   4.528   8.059  12.233
69811SOL     OW11271  13.612   4.917   7.969
69811SOL    HW111272  13.641   5.008   7.980
69811SOL    HW211273  13.646   4.873   8.047
69812SOL     OW11274   6.509   3.980   2.218
69812SOL    HW111275   6.528   4.033   2.296
69812SOL    HW211276   6.493   3.892   2.253
69813SOL     OW11277  10.315  14.105   9.259
69813SOL    HW111278  10.271  14.120   9.343
69813SOL    HW211279  10.246  14.117   9.193
69814SOL     OW11280   4.547   0.508   3.353
69814SOL    HW111281   4.462   0.498   3.396
69814SOL    HW211282   4.564   0.423   3.312
69815SOL     OW11283   6.558  14.590  13.184
69815SOL    HW111284   6.614  14.545  13.121
69815SOL    HW211285   6.494  14.637  13.130
69816SOL     OW11286   7.788  14.110  13.654
69816SOL    HW111287   7.800  14.034  13.711
69816SOL    HW211288   7.752  14.178  13.711
69817SOL     OW11289   5.017  12.587   2.433
69817SOL    HW111290   5.046  12.577   2.524
69817SOL    HW211291   5.097  12.579   2.381
69818SOL     OW11292  10.632   3.893  11.449
69818SOL    HW111293  10.587   3.975  11.427
69818SOL    HW211294  10.684   3.914  11.526
69819SOL     OW11295  13.056   5.706  13.430
69819SOL    HW111296  13.147   5.682  13.444
69819SOL    HW211297  13.012   5.683  13.513
69820SOL     OW11298   2.965   0.012   3.295
69820SOL    HW111299   2.981  14.865   3.203
69820SOL    HW211300   2.905  14.817   3.325
69821SOL     OW11301  10.071  14.311   5.789
69821SOL    HW111302  10.136  14.276   5.849
69821SOL    HW211303   9.988  14.273   5.818
69822SOL     OW11304   8.356  14.807  10.134
69822SOL    HW111305   8.416  14.756  10.189
69822SOL    HW211306   8.268  14.779  10.161
69823SOL     OW11307  13.097   0.260   4.125
69823SOL    HW111308  13.139   0.318   4.188
69823SOL    HW211309  13.043   0.202   4.179
69824SOL     OW11310   7.015   8.824   8.759
69824SOL    HW111311   7.007   8.832   8.854
69824SOL    HW211312   7.107   8.802   8.744
69825SOL     OW11313   4.207   7.987   2.435
69825SOL    HW111314   4.271   8.027   2.495
69825SOL    HW211315   4.147   8.058   2.414
69826SOL     OW11316   6.143  12.820   7.405
69826SOL    HW111317   6.128  12.904   7.361
69826SOL    HW211318   6.128  12.838   7.497
69827SOL     OW11319   2.196   0.106   5.351
69827SOL    HW111320   2.261   0.061   5.297
69827SOL    HW211321   2.127   0.132   5.290
69828SOL     OW11322   9.470   0.674  12.361
69828SOL    HW111323   9.555   0.712  12.382
69828SOL    HW211324   9.472   0.662  12.266
69829SOL     OW11325   3.706   3.236  12.766
69829SOL    HW111326   3.730   3.144  12.759
69829SOL    HW211327   3.731   3.260  12.855
69830SOL     OW11328   9.789  14.716   3.741
69830SOL    HW111329   9.721  14.780   3.762
69830SOL    HW211330   9.866  14.770   3.720
69831SOL     OW11331   5.193   9.655  13.978
69831SOL    HW111332   5.270   9.630  14.030
69831SOL    HW211333   5.144   9.574  13.969
69832SOL     OW11334   0.366   3.411   3.009
69832SOL    HW111335   0.331   3.494   2.975
69832SOL    HW211336   0.458   3.411   2.983
69833SOL     OW11337   7.372   2.413   1.776
69833SOL    HW111338   7.437   2.424   1.707
69833SOL    HW211339   7.289   2.406   1.730
69834SOL     OW11340   7.897  14.513  11.269
69834SOL    HW111341   7.847  14.581  11.315
69834SOL    HW211342   7.962  14.483  11.333
69835SOL     OW11343  12.271   6.754  14.263
69835SOL    HW111344  12.191   6.772  14.313
69835SOL    HW211345  12.239   6.724  14.178
69836SOL     OW11346   1.590  13.678   5.534
69836SOL    HW111347   1.555  13.751   5.586
69836SOL    HW211348   1.573  13.702   5.443
69837SOL     OW11349  13.462   8.095  11.203
69837SOL    HW111350  13.466   8.181  11.163
69837SOL    HW211351  13.526   8.098  11.274
69838SOL     OW11352  13.269   6.258   3.931
69838SOL    HW111353  13.185   6.249   3.975
69838SOL    HW211354  13.306   6.339   3.967
69839SOL     OW11355   4.229   8.376   0.357
69839SOL    HW111356   4.269   8.338   0.435
69839SOL    HW211357   4.180   8.304   0.317
69840SOL     OW11358   3.499   8.744   4.146
69840SOL    HW111359   3.477   8.819   4.091
69840SOL    HW211360   3.542   8.682   4.086
69841SOL     OW11361   9.382   1.054   9.214
69841SOL    HW111362   9.319   0.983   9.228
69841SOL    HW211363   9.432   1.027   9.138
69842SOL     OW11364  12.325  11.745  12.879
69842SOL    HW111365  12.292  11.733  12.968
69842SOL    HW211366  12.420  11.741  12.888
69843SOL     OW11367   2.135   0.047  11.590
69843SOL    HW111368   2.180   0.003  11.517
69843SOL    HW211369   2.201   0.106  11.627
69844SOL     OW11370  11.181   3.983   2.405
69844SOL    HW111371  11.213   4.023   2.486
69844SOL    HW211372  11.117   4.046   2.372
69845SOL     OW11373   5.668   4.939   0.532
69845SOL    HW111374   5.725   4.872   0.570
69845SOL    HW211375   5.610   4.891   0.474
69846SOL     OW11376  14.338   5.855   1.254
69846SOL    HW111377  14.274   5.786   1.234
69846SOL    HW211378  14.344   5.905   1.173
69847SOL     OW11379  13.608   7.109   3.006
69847SOL    HW111380  13.536   7.172   3.000
69847SOL    HW211381  13.680   7.158   3.045
69848SOL     OW11382   8.822  13.804   3.431
69848SOL    HW111383   8.750  13.778   3.373
69848SOL    HW211384   8.782  13.865   3.493
69849SOL     OW11385   2.330  13.370  13.082
69849SOL    HW111386   2.275  13.307  13.037
69849SOL    HW211387   2.269  13.434  13.118
69850SOL     OW11388   6.234   6.104   4.767
69850SOL    HW111389   6.230   6.122   4.861
69850SOL    HW211390   6.156   6.050   4.750
69851SOL     OW11391  13.209   9.191   3.392
69851SOL    HW111392  13.245   9.165   3.307
69851SOL    HW211393  13.189   9.284   3.381
69852SOL     OW11394   0.713  14.776  14.732
69852SOL    HW111395   0.795  14.821  14.713
69852SOL    HW211396   0.710  14.703  14.669
69853SOL     OW11397   9.474   0.579   6.204
69853SOL    HW111398   9.529   0.584   6.282
69853SOL    HW211399   9.512   0.508   6.152
69854SOL     OW11400   8.374   9.563  10.757
69854SOL    HW111401   8.360   9.507  10.681
69854SOL    HW211402   8.290   9.564  10.803
69855SOL     OW11403   9.156  12.572   8.778
69855SOL    HW111404   9.124  12.650   8.825
69855SOL    HW211405   9.166  12.601   8.687
69856SOL     OW11406   7.614   4.550   4.885
69856SOL    HW111407   7.627   4.589   4.972
69856SOL    HW211408   7.703   4.541   4.850
69857SOL     OW11409   8.763   3.055   2.429
69857SOL    HW111410   8.746   3.059   2.523
69857SOL    HW211411   8.806   2.970   2.416
69858SOL     OW11412  11.700   1.437   2.955
69858SOL    HW111413  11.664   1.443   2.867
69858SOL    HW211414  11.714   1.528   2.981
69859SOL     OW11415  10.026   7.576  14.221
69859SOL    HW111416  10.070   7.498  14.188
69859SOL    HW211417  10.083   7.609  14.291
69860SOL     OW11418   1.649  14.079   0.876
69860SOL    HW111419   1.717  14.049   0.816
69860SOL    HW211420   1.696  14.106   0.955
69861SOL     OW11421   1.641   9.568   2.232
69861SOL    HW111422   1.580   9.631   2.271
69861SOL    HW211423   1.707   9.622   2.189
69862SOL     OW11424   0.533   7.057   8.435
69862SOL    HW111425   0.488   7.024   8.512
69862SOL    HW211426   0.587   7.129   8.468
69863SOL     OW11427  11.667   3.029   1.152
69863SOL    HW111428  11.688   3.025   1.245
69863SOL    HW211429  11.631   3.116   1.138
69864SOL     OW11430   7.107  11.121  11.493
69864SOL    HW111431   7.153  11.057  11.546
69864SOL    HW211432   7.069  11.183  11.556
69865SOL     OW11433   7.317   7.534   4.128
69865SOL    HW111434   7.394   7.516   4.183
69865SOL    HW211435   7.333   7.623   4.094
69866SOL     OW11436   2.030   4.421   0.347
69866SOL    HW111437   1.969   4.494   0.349
69866SOL    HW211438   2.034   4.390   0.437
69867SOL     OW11439   8.196  14.246   5.017
69867SOL    HW111440   8.277  14.274   4.974
69867SOL    HW211441   8.213  14.156   5.044
69868SOL     OW11442  13.447  10.794  10.565
69868SOL    HW111443  13.448  10.889  10.553
69868SOL    HW211444  13.454  10.781  10.659
69869SOL     OW11445  12.020   7.367  13.907
69869SOL    HW111446  11.982   7.418  13.978
69869SOL    HW211447  11.967   7.390  13.830
69870SOL     OW11448   1.407   5.662  14.665
69870SOL    HW111449   1.331   5.608  14.646
69870SOL    HW211450   1.482   5.606  14.644
69871SOL     OW11451   9.593   6.675   1.623
69871SOL    HW111452   9.687   6.661   1.611
69871SOL    HW211453   9.566   6.606   1.683
69872SOL     OW11454   8.812   4.315   0.474
69872SOL    HW111455   8.717   4.311   0.460
69872SOL    HW211456   8.822   4.303   0.569
69873SOL     OW11457   6.227  10.618   4.501
69873SOL    HW111458   6.319  10.637   4.518
69873SOL    HW211459   6.179  10.677   4.560
69874SOL     OW11460   1.417   3.334   3.384
69874SOL    HW111461   1.476   3.259   3.383
69874SOL    HW211462   1.397   3.351   3.292
69875SOL     OW11463  13.338   3.219   3.754
69875SOL    HW111464  13.353   3.162   3.679
69875SOL    HW211465  13.244   3.216   3.768
69876SOL     OW11466   6.148  10.699   2.749
69876SOL    HW111467   6.203  10.638   2.700
69876SOL    HW211468   6.204  10.776   2.762
69877SOL     OW11469  13.922  10.039  12.993
69877SOL    HW111470  13.870   9.989  13.055
69877SOL    HW211471  14.013  10.014  13.012
69878SOL     OW11472   2.272  12.527   0.596
69878SOL    HW111473   2.308  12.466   0.531
69878SOL    HW211474   2.343  12.589   0.611
69879SOL     OW11475   5.325   8.669  12.285
69879SOL    HW111476   5.241   8.631  12.310
69879SOL    HW211477   5.319   8.761  12.313
69880SOL     OW11478   6.051   6.638   2.741
69880SOL    HW111479   6.066   6.730   2.765
69880SOL    HW211480   6.022   6.642   2.650
69881SOL     OW11481   9.821   3.011   4.701
69881SOL    HW111482   9.882   2.985   4.632
69881SOL    HW211483   9.821   3.106   4.700
69882SOL     OW11484  11.842   0.808   4.507
69882SOL    HW111485  11.870   0.758   4.584
69882SOL    HW211486  11.865   0.752   4.432
69883SOL     OW11487   7.045  10.709   1.186
69883SOL    HW111488   7.042  10.663   1.102
69883SOL    HW211489   7.135  10.738   1.194
69884SOL     OW11490   8.771   1.421  12.250
69884SOL    HW111491   8.783   1.513  12.271
69884SOL    HW211492   8.708   1.389  12.314
69885SOL     OW11493  10.627  10.680   1.019
69885SOL    HW111494  10.610  10.764   0.978
69885SOL    HW211495  10.544  10.632   1.012
69886SOL     OW11496   0.215   1.425   9.435
69886SOL    HW111497   0.304   1.428   9.402
69886SOL    HW211498   0.223   1.383   9.521
69887SOL     OW11499  13.887  11.541  11.501
69887SOL    HW111500  13.967  11.554  11.451
69887SOL    HW211501  13.826  11.606  11.466
69888SOL     OW11502   3.600   3.763   8.943
69888SOL    HW111503   3.660   3.814   8.889
69888SOL    HW211504   3.657   3.701   8.990
69889SOL     OW11505  14.678  13.999   3.270
69889SOL    HW111506  14.634  14.085   3.270
69889SOL    HW211507  14.607  13.936   3.257
69890SOL     OW11508  10.087   0.127   3.072
69890SOL    HW111509  10.165   0.181   3.084
69890SOL    HW211510  10.117   0.054   3.018
69891SOL     OW11511   5.247  11.276   2.368
69891SOL    HW111512   5.289  11.338   2.427
69891SOL    HW211513   5.180  11.233   2.421
69892SOL     OW11514   0.518  12.361  11.436
69892SOL    HW111515   0.554  12.286  11.483
69892SOL    HW211516   0.558  12.437  11.478
69893SOL     OW11517   7.180   2.126  13.877
69893SOL    HW111518   7.095   2.137  13.920
69893SOL    HW211519   7.230   2.070  13.937
69894SOL     OW11520   4.203   2.245  12.721
69894SOL    HW111521   4.173   2.323  12.768
69894SOL    HW211522   4.166   2.254  12.633
69895SOL     OW11523   4.815  10.195   3.340
69895SOL    HW111524   4.818  10.288   3.362
69895SOL    HW211525   4.750  10.158   3.400
69896SOL     OW11526   8.856  11.906  11.564
69896SOL    HW111527   8.790  11.922  11.631
69896SOL    HW211528   8.807  11.899  11.482
69897SOL     OW11529   0.193   4.172   6.054
69897SOL    HW111530   0.144   4.126   5.987
69897SOL    HW211531   0.252   4.105   6.090
69898SOL     OW11532   7.678  14.746  14.737
69898SOL    HW111533   7.746  14.678  14.731
69898SOL    HW211534   7.596  14.698  14.728
69899SOL     OW11535  12.862  14.460   2.135
69899SOL    HW111536  12.770  14.479   2.149
69899SOL    HW211537  12.865  14.413   2.052
69900SOL     OW11538  11.970   9.691  10.659
69900SOL    HW111539  11.991   9.755  10.591
69900SOL    HW211540  11.942   9.744  10.734
69901SOL     OW11541   0.822   5.796  14.085
69901SOL    HW111542   0.794   5.705  14.074
69901SOL    HW211543   0.910   5.799  14.046
69902SOL     OW11544   7.591   8.009   3.965
69902SOL    HW111545   7.660   8.044   4.022
69902SOL    HW211546   7.599   7.914   3.973
69903SOL     OW11547  11.941  11.548   6.336
69903SOL    HW111548  12.002  11.620   6.355
69903SOL    HW211549  11.916  11.515   6.423
69904SOL     OW11550   3.387   3.613  11.774
69904SOL    HW111551   3.453   3.645  11.711
69904SOL    HW211552   3.304   3.643  11.738
69905SOL     OW11553   3.469   0.375   0.712
69905SOL    HW111554   3.462   0.462   0.749
69905SOL    HW211555   3.490   0.318   0.786
69906SOL     OW11556   1.021   6.216  10.696
69906SOL    HW111557   1.009   6.152  10.626
69906SOL    HW211558   1.050   6.296  10.650
69907SOL     OW11559   5.125  10.023  10.115
69907SOL    HW111560   5.177  10.099  10.143
69907SOL    HW211561   5.135   9.960  10.187
69908SOL     OW11562  14.841   8.750  14.509
69908SOL    HW111563   0.018   8.723  14.587
69908SOL    HW211564   0.034   8.785  14.449
69909SOL     OW11565  14.305   2.989   3.665
69909SOL    HW111566  14.300   2.976   3.760
69909SOL    HW211567  14.313   2.901   3.629
69910SOL     OW11568   7.193   9.570   9.671
69910SOL    HW111569   7.165   9.523   9.750
69910SOL    HW211570   7.278   9.532   9.649
69911SOL     OW11571  12.002   1.410  10.941
69911SOL    HW111572  11.927   1.458  10.977
69911SOL    HW211573  12.011   1.444  10.852
69912SOL     OW11574  10.653   3.647   1.234
69912SOL    HW111575  10.713   3.718   1.212
69912SOL    HW211576  10.610   3.624   1.152
69913SOL     OW11577  11.340  10.653  11.336
69913SOL    HW111578  11.337  10.723  11.270
69913SOL    HW211579  11.407  10.682  11.398
69914SOL     OW11580   7.043   7.924  12.468
69914SOL    HW111581   7.072   7.978  12.395
69914SOL    HW211582   7.113   7.930  12.533
69915SOL     OW11583   0.664   6.270   3.116
69915SOL    HW111584   0.629   6.267   3.205
69915SOL    HW211585   0.639   6.185   3.078
69916SOL     OW11586  12.194   1.899   2.013
69916SOL    HW111587  12.223   1.822   2.062
69916SOL    HW211588  12.241   1.893   1.929
69917SOL     OW11589   6.833   5.025  14.281
69917SOL    HW111590   6.756   5.078  14.298
69917SOL    HW211591   6.904   5.071  14.325
69918SOL     OW11592  10.530   0.430   6.352
69918SOL    HW111593  10.531   0.453   6.259
69918SOL    HW211594  10.437   0.425   6.374
69919SOL     OW11595   5.730  10.819   2.374
69919SOL    HW111596   5.662  10.880   2.403
69919SOL    HW211597   5.695  10.733   2.395
69920SOL     OW11598  11.938  10.633   6.397
69920SOL    HW111599  11.872  10.583   6.443
69920SOL    HW211600  11.936  10.720   6.438
69921SOL     OW11601   0.968   9.847   9.158
69921SOL    HW111602   0.963   9.936   9.123
69921SOL    HW211603   0.950   9.791   9.082
69922SOL     OW11604   7.435   6.267   8.807
69922SOL    HW111605   7.465   6.268   8.898
69922SOL    HW211606   7.360   6.208   8.807
69923SOL     OW11607  14.395   7.773  11.694
69923SOL    HW111608  14.410   7.819  11.612
69923SOL    HW211609  14.358   7.689  11.668
69924SOL     OW11610   7.074   7.989  13.568
69924SOL    HW111611   7.035   7.903  13.580
69924SOL    HW211612   7.132   8.000  13.643
69925SOL     OW11613   2.842   4.922   6.440
69925SOL    HW111614   2.870   4.849   6.496
69925SOL    HW211615   2.748   4.912   6.433
69926SOL     OW11616  10.641   3.878   5.055
69926SOL    HW111617  10.700   3.949   5.030
69926SOL    HW211618  10.634   3.884   5.150
69927SOL     OW11619  14.255   3.378  12.854
69927SOL    HW111620  14.252   3.297  12.804
69927SOL    HW211621  14.163   3.407  12.857
69928SOL     OW11622  10.008   7.746   1.901
69928SOL    HW111623  10.080   7.756   1.838
69928SOL    HW211624  10.031   7.668   1.952
69929SOL     OW11625   1.224  12.188   6.950
69929SOL    HW111626   1.244  12.180   7.043
69929SOL    HW211627   1.223  12.283   6.934
69930SOL     OW11628   1.129   2.397   7.826
69930SOL    HW111629   1.223   2.385   7.818
69930SOL    HW211630   1.102   2.440   7.745
69931SOL     OW11631  11.302  11.934  11.251
69931SOL    HW111632  11.275  11.925  11.342
69931SOL    HW211633  11.227  11.975  11.207
69932SOL     OW11634  14.771   8.571   0.345
69932SOL    HW111635  14.838   8.507   0.369
69932SOL    HW211636  14.731   8.535   0.266
69933SOL     OW11637   5.197   9.757   7.849
69933SOL    HW111638   5.217   9.820   7.918
69933SOL    HW211639   5.102   9.747   7.851
69934SOL     OW11640   1.663   2.694   7.921
69934SOL    HW111641   1.661   2.657   8.009
69934SOL    HW211642   1.632   2.624   7.864
69935SOL     OW11643   1.035  11.289   2.314
69935SOL    HW111644   1.081  11.345   2.251
69935SOL    HW211645   0.946  11.323   2.315
69936SOL     OW11646   6.995   4.799   3.864
69936SOL    HW111647   6.931   4.756   3.808
69936SOL    HW211648   7.052   4.847   3.804
69937SOL     OW11649   4.451  12.872   8.747
69937SOL    HW111650   4.409  12.958   8.744
69937SOL    HW211651   4.427  12.831   8.664
69938SOL     OW11652   7.978   9.360   7.298
69938SOL    HW111653   8.035   9.286   7.277
69938SOL    HW211654   7.987   9.419   7.223
69939SOL     OW11655   9.356  13.118   3.420
69939SOL    HW111656   9.316  13.031   3.424
69939SOL    HW211657   9.339  13.158   3.505
69940SOL     OW11658  14.504   1.851   7.478
69940SOL    HW111659  14.430   1.794   7.457
69940SOL    HW211660  14.464   1.931   7.513
69941SOL     OW11661   4.306   0.874   0.665
69941SOL    HW111662   4.397   0.905   0.664
69941SOL    HW211663   4.254   0.953   0.677
69942SOL     OW11664   3.738   1.316   2.219
69942SOL    HW111665   3.767   1.383   2.281
69942SOL    HW211666   3.818   1.268   2.197
69943SOL     OW11667   0.748  13.380  13.816
69943SOL    HW111668   0.787  13.353  13.899
69943SOL    HW211669   0.655  13.388  13.834
69944SOL     OW11670  13.995  11.008  12.880
69944SOL    HW111671  14.008  11.103  12.886
69944SOL    HW211672  14.034  10.983  12.796
69945SOL     OW11673   9.342   2.722   9.405
69945SOL    HW111674   9.365   2.737   9.313
69945SOL    HW211675   9.413   2.666   9.438
69946SOL     OW11676   2.312   5.258   2.635
69946SOL    HW111677   2.229   5.293   2.603
69946SOL    HW211678   2.343   5.324   2.697
69947SOL     OW11679   5.872  14.589   4.153
69947SOL    HW111680   5.920  14.576   4.234
69947SOL    HW211681   5.801  14.649   4.176
69948SOL     OW11682   2.274  12.427   0.010
69948SOL    HW111683   2.230  12.508  14.857
69948SOL    HW211684   2.312  12.393  14.802
69949SOL     OW11685   3.576   8.313   3.844
69949SOL    HW111686   3.640   8.312   3.772
69949SOL    HW211687   3.558   8.220   3.860
69950SOL     OW11688   1.992   0.954   3.766
69950SOL    HW111689   1.920   0.968   3.705
69950SOL    HW211690   2.015   0.862   3.756
69951SOL     OW11691  12.344   3.631  12.670
69951SOL    HW111692  12.284   3.705  12.677
69951SOL    HW211693  12.431   3.670  12.661
69952SOL     OW11694   5.587  11.826   0.154
69952SOL    HW111695   5.567  11.895   0.091
69952SOL    HW211696   5.564  11.744   0.109
69953SOL     OW11697  11.552   1.652   7.574
69953SOL    HW111698  11.509   1.713   7.634
69953SOL    HW211699  11.494   1.649   7.498
69954SOL     OW11700  14.265   0.895  10.357
69954SOL    HW111701  14.321   0.964  10.322
69954SOL    HW211702  14.177   0.917  10.326
69955SOL     OW11703   2.657   7.606   7.424
69955SOL    HW111704   2.667   7.558   7.341
69955SOL    HW211705   2.621   7.691   7.398
69956SOL     OW11706  11.557   9.745   4.074
69956SOL    HW111707  11.606   9.667   4.099
69956SOL    HW211708  11.487   9.752   4.139
69957SOL     OW11709  11.987  11.991   1.436
69957SOL    HW111710  12.068  11.940   1.438
69957SOL    HW211711  11.999  12.059   1.502
69958SOL     OW11712  11.879  14.459   5.298
69958SOL    HW111713  11.804  14.436   5.352
69958SOL    HW211714  11.955  14.439   5.354
69959SOL     OW11715   1.842   0.205   8.028
69959SOL    HW111716   1.914   0.242   7.977
69959SOL    HW211717   1.828   0.268   8.099
69960SOL     OW11718   4.870   4.160  10.052
69960SOL    HW111719   4.873   4.144  10.146
69960SOL    HW211720   4.924   4.238  10.039
69961SOL     OW11721   3.133   7.019   6.581
69961SOL    HW111722   3.146   6.981   6.494
69961SOL    HW211723   3.207   7.079   6.592
69962SOL     OW11724   1.829   0.248   0.822
69962SOL    HW111725   1.851   0.226   0.913
69962SOL    HW211726   1.870   0.179   0.770
69963SOL     OW11727   1.515   6.634  12.041
69963SOL    HW111728   1.456   6.558  12.037
69963SOL    HW211729   1.602   6.598  12.024
69964SOL     OW11730  14.190   5.023   6.309
69964SOL    HW111731  14.276   5.065   6.313
69964SOL    HW211732  14.143   5.058   6.384
69965SOL     OW11733  12.356   5.945   7.836
69965SOL    HW111734  12.369   5.856   7.866
69965SOL    HW211735  12.284   5.939   7.773
69966SOL     OW11736   4.724   0.239  11.210
69966SOL    HW111737   4.691   0.329  11.204
69966SOL    HW211738   4.716   0.205  11.121
69967SOL     OW11739   6.464   4.317  13.638
69967SOL    HW111740   6.494   4.244  13.692
69967SOL    HW211741   6.409   4.369  13.696
69968SOL     OW11742   9.070   1.639  12.778
69968SOL    HW111743   9.056   1.578  12.705
69968SOL    HW211744   9.018   1.602  12.850
69969SOL     OW11745   1.286   7.229   7.813
69969SOL    HW111746   1.214   7.171   7.837
69969SOL    HW211747   1.259   7.315   7.845
69970SOL     OW11748  14.798   4.992   6.612
69970SOL    HW111749  14.729   4.952   6.559
69970SOL    HW211750  14.753   5.055   6.668
69971SOL     OW11751   2.278   2.270   6.713
69971SOL    HW111752   2.344   2.237   6.653
69971SOL    HW211753   2.284   2.366   6.706
69972SOL     OW11754   7.138   8.428   3.089
69972SOL    HW111755   7.197   8.354   3.074
69972SOL    HW211756   7.053   8.386   3.107
69973SOL     OW11757   2.232  10.043   7.525
69973SOL    HW111758   2.187  10.127   7.533
69973SOL    HW211759   2.163   9.978   7.543
69974SOL     OW11760   4.223  14.281  11.716
69974SOL    HW111761   4.204  14.261  11.624
69974SOL    HW211762   4.140  14.313  11.751
69975SOL     OW11763   6.956   9.967   1.727
69975SOL    HW111764   6.991   9.883   1.759
69975SOL    HW211765   6.960   9.960   1.632
69976SOL     OW11766  14.694  14.654   7.149
69976SOL    HW111767  14.664  14.675   7.238
69976SOL    HW211768  14.720  14.738   7.112
69977SOL     OW11769   8.393   6.318   5.237
69977SOL    HW111770   8.309   6.337   5.194
69977SOL    HW211771   8.406   6.393   5.297
69978SOL     OW11772  13.006   4.744  10.149
69978SOL    HW111773  12.928   4.776  10.105
69978SOL    HW211774  13.001   4.649  10.141
69979SOL     OW11775   1.067   7.290   1.157
69979SOL    HW111776   1.019   7.370   1.135
69979SOL    HW211777   1.037   7.226   1.092
69980SOL     OW11778  12.512   7.653   3.241
69980SOL    HW111779  12.552   7.620   3.161
69980SOL    HW211780  12.519   7.580   3.304
69981SOL     OW11781  10.941  11.501  10.160
69981SOL    HW111782  10.917  11.553  10.237
69981SOL    HW211783  10.898  11.547  10.087
69982SOL     OW11784   3.781   5.662   9.882
69982SOL    HW111785   3.841   5.727   9.845
69982SOL    HW211786   3.808   5.579   9.844
69983SOL     OW11787   0.818   1.444  11.707
69983SOL    HW111788   0.723   1.431  11.700
69983SOL    HW211789   0.834   1.445  11.802
69984SOL     OW11790   9.339  14.602  10.029
69984SOL    HW111791   9.271  14.669  10.032
69984SOL    HW211792   9.294  14.522  10.058
69985SOL     OW11793   8.560  14.488   4.614
69985SOL    HW111794   8.594  14.529   4.693
69985SOL    HW211795   8.616  14.411   4.601
69986SOL     OW11796   9.853   5.114  14.570
69986SOL    HW111797   9.758   5.129  14.577
69986SOL    HW211798   9.861   5.037  14.514
69987SOL     OW11799   0.300   5.025  13.873
69987SOL    HW111800   0.211   5.056  13.858
69987SOL    HW211801   0.356   5.095  13.839
69988SOL     OW11802   1.469   5.795   8.858
69988SOL    HW111803   1.476   5.718   8.803
69988SOL    HW211804   1.427   5.764   8.938
69989SOL     OW11805   1.454   5.283  11.136
69989SOL    HW111806   1.439   5.199  11.180
69989SOL    HW211807   1.542   5.308  11.163
69990SOL     OW11808   9.055   2.532  10.244
69990SOL    HW111809   9.016   2.590  10.309
69990SOL    HW211810   9.149   2.548  10.252
69991SOL     OW11811   4.203   3.001   8.748
69991SOL    HW111812   4.113   3.023   8.723
69991SOL    HW211813   4.249   3.084   8.748
69992SOL     OW11814  13.955   9.447  10.896
69992SOL    HW111815  13.989   9.394  10.968
69992SOL    HW211816  13.878   9.491  10.933
69993SOL     OW11817  14.224   4.477   9.300
69993SOL    HW111818  14.237   4.434   9.216
69993SOL    HW211819  14.238   4.408   9.365
69994SOL     OW11820  12.546   8.665   3.880
69994SOL    HW111821  12.604   8.666   3.805
69994SOL    HW211822  12.458   8.666   3.843
69995SOL     OW11823   6.876  12.816   0.998
69995SOL    HW111824   6.939  12.868   0.948
69995SOL    HW211825   6.793  12.863   0.987
69996SOL     OW11826  12.068  14.830   4.774
69996SOL    HW111827  11.979  14.797   4.782
69996SOL    HW211828  12.114  14.795   4.850
69997SOL     OW11829   3.816   2.163   1.938
69997SOL    HW111830   3.897   2.203   1.969
69997SOL    HW211831   3.747   2.224   1.965
69998SOL     OW11832   7.704   9.119  11.369
69998SOL    HW111833   7.613   9.112  11.396
69998SOL    HW211834   7.737   9.198  11.412
69999SOL     OW11835  11.567   9.967   2.372
69999SOL    HW111836  11.533  10.052   2.344
69999SOL    HW211837  11.575   9.975   2.467
70000SOL     OW11838  13.066   5.162  11.395
70000SOL    HW111839  13.159   5.159  11.374
70000SOL    HW211840  13.023   5.185  11.313
70001SOL     OW11841  13.351   3.381  13.755
70001SOL    HW111842  13.283   3.424  13.702
70001SOL    HW211843  13.430   3.432  13.738
70002SOL     OW11844   8.525   5.238  13.444
70002SOL    HW111845   8.472   5.159  13.451
70002SOL    HW211846   8.615   5.206  13.449
70003SOL     OW11847   0.133   9.401   4.493
70003SOL    HW111848   0.163   9.482   4.534
70003SOL    HW211849   0.108   9.426   4.404
70004SOL     OW11850   3.319   0.819   8.824
70004SOL    HW111851   3.413   0.834   8.812
70004SOL    HW211852   3.298   0.866   8.905
70005SOL     OW11853   7.207  13.834   6.486
70005SOL    HW111854   7.188  13.805   6.397
70005SOL    HW211855   7.258  13.914   6.474
70006SOL     OW11856  13.089   0.044  13.744
70006SOL    HW111857  13.098  14.838  13.797
70006SOL    HW211858  13.179   0.065  13.718
70007SOL     OW11859   7.035   6.343   4.783
70007SOL    HW111860   7.127   6.358   4.804
70007SOL    HW211861   7.027   6.248   4.776
70008SOL     OW11862   4.887  11.605   5.482
70008SOL    HW111863   4.816  11.640   5.429
70008SOL    HW211864   4.865  11.513   5.495
70009SOL     OW11865   3.051   4.469   3.565
70009SOL    HW111866   3.072   4.477   3.658
70009SOL    HW211867   3.113   4.405   3.531
70010SOL     OW11868   5.505  11.991   4.169
70010SOL    HW111869   5.419  11.971   4.132
70010SOL    HW211870   5.567  11.947   4.110
70011SOL     OW11871   6.178   9.650   6.904
70011SOL    HW111872   6.108   9.657   6.969
70011SOL    HW211873   6.145   9.696   6.827
70012SOL     OW11874   5.025   7.049   1.430
70012SOL    HW111875   5.069   7.124   1.470
70012SOL    HW211876   5.002   7.078   1.342
70013SOL     OW11877   1.775   0.028  11.888
70013SOL    HW111878   1.850   0.076  11.853
70013SOL    HW211879   1.723   0.005  11.810
70014SOL     OW11880  14.583   7.778  11.274
70014SOL    HW111881  14.487   7.770  11.277
70014SOL    HW211882  14.615   7.689  11.292
70015SOL     OW11883   0.581   7.728   2.102
70015SOL    HW111884   0.648   7.778   2.056
70015SOL    HW211885   0.535   7.680   2.033
70016SOL     OW11886   6.697  14.219   3.500
70016SOL    HW111887   6.682  14.302   3.544
70016SOL    HW211888   6.615  14.201   3.453
70017SOL     OW11889  11.132   0.555  11.142
70017SOL    HW111890  11.110   0.567  11.235
70017SOL    HW211891  11.221   0.521  11.143
70018SOL     OW11892   5.457  11.576   3.281
70018SOL    HW111893   5.508  11.656   3.272
70018SOL    HW211894   5.456  11.559   3.375
70019SOL     OW11895   9.476  10.537  14.735
70019SOL    HW111896   9.535  10.610  14.713
70019SOL    HW211897   9.395  10.557  14.687
70020SOL     OW11898   7.357   8.743   0.284
70020SOL    HW111899   7.264   8.722   0.292
70020SOL    HW211900   7.384   8.704   0.200
70021SOL     OW11901   9.343  10.215  14.073
70021SOL    HW111902   9.302  10.130  14.062
70021SOL    HW211903   9.389  10.208  14.157
70022SOL     OW11904   4.733  13.819  11.029
70022SOL    HW111905   4.753  13.902  11.072
70022SOL    HW211906   4.638  13.811  11.035
70023SOL     OW11907   1.725   4.541   9.667
70023SOL    HW111908   1.710   4.511   9.577
70023SOL    HW211909   1.810   4.505   9.691
70024SOL     OW11910   3.346  10.482   5.720
70024SOL    HW111911   3.339  10.414   5.653
70024SOL    HW211912   3.405  10.446   5.786
70025SOL     OW11913  13.237   5.078   6.066
70025SOL    HW111914  13.308   5.120   6.115
70025SOL    HW211915  13.164   5.078   6.128
70026SOL     OW11916   1.433   2.199   5.006
70026SOL    HW111917   1.418   2.293   5.006
70026SOL    HW211918   1.509   2.187   5.064
70027SOL     OW11919   3.030   6.061   7.183
70027SOL    HW111920   3.053   5.989   7.241
70027SOL    HW211921   3.004   6.132   7.242
70028SOL     OW11922   2.803   2.075  12.474
70028SOL    HW111923   2.750   2.049  12.399
70028SOL    HW211924   2.764   2.027  12.548
70029SOL     OW11925   7.315  10.844   0.114
70029SOL    HW111926   7.393  10.895   0.133
70029SOL    HW211927   7.319  10.828   0.020
70030SOL     OW11928   5.183   0.915   8.749
70030SOL    HW111929   5.120   0.986   8.760
70030SOL    HW211930   5.251   0.953   8.693
70031SOL     OW11931   1.914   8.128   5.934
70031SOL    HW111932   1.821   8.150   5.924
70031SOL    HW211933   1.960   8.200   5.892
70032SOL     OW11934  13.567   5.256   8.411
70032SOL    HW111935  13.653   5.215   8.401
70032SOL    HW211936  13.512   5.188   8.449
70033SOL     OW11937   0.557   6.007   5.414
70033SOL    HW111938   0.621   6.079   5.415
70033SOL    HW211939   0.503   6.025   5.337
70034SOL     OW11940   9.352   5.540   7.233
70034SOL    HW111941   9.284   5.492   7.280
70034SOL    HW211942   9.344   5.630   7.265
70035SOL     OW11943  13.045  14.207   5.116
70035SOL    HW111944  13.060  14.222   5.210
70035SOL    HW211945  13.129  14.226   5.075
70036SOL     OW11946   4.676   7.929  10.712
70036SOL    HW111947   4.647   7.984  10.785
70036SOL    HW211948   4.768   7.910  10.733
70037SOL     OW11949   7.623   0.786   2.483
70037SOL    HW111950   7.621   0.873   2.522
70037SOL    HW211951   7.669   0.798   2.400
70038SOL     OW11952  14.637   0.692  13.605
70038SOL    HW111953  14.711   0.672  13.662
70038SOL    HW211954  14.562   0.700  13.665
70039SOL     OW11955   8.519   1.147  10.681
70039SOL    HW111956   8.554   1.197  10.755
70039SOL    HW211957   8.594   1.137  10.622
70040SOL     OW11958   2.574   7.116   2.402
70040SOL    HW111959   2.668   7.134   2.406
70040SOL    HW211960   2.568   7.027   2.367
70041SOL     OW11961   0.040  12.327   0.213
70041SOL    HW111962  14.854  12.283   0.152
70041SOL    HW211963   0.083  12.395   0.161
70042SOL     OW11964   0.273   8.323   5.226
70042SOL    HW111965   0.273   8.329   5.130
70042SOL    HW211966   0.251   8.412   5.255
70043SOL     OW11967  11.866  13.207  11.261
70043SOL    HW111968  11.912  13.153  11.325
70043SOL    HW211969  11.802  13.256  11.312
70044SOL     OW11970   2.786   4.836   1.877
70044SOL    HW111971   2.792   4.766   1.812
70044SOL    HW211972   2.712   4.889   1.847
70045SOL     OW11973  11.966  11.989  12.445
70045SOL    HW111974  12.033  11.994  12.376
70045SOL    HW211975  11.988  12.060  12.505
70046SOL     OW11976   2.745  11.809   6.469
70046SOL    HW111977   2.778  11.830   6.381
70046SOL    HW211978   2.819  11.766   6.512
70047SOL     OW11979  13.411   0.722  13.768
70047SOL    HW111980  13.426   0.807  13.811
70047SOL    HW211981  13.370   0.668  13.835
70048SOL     OW11982  11.109   1.788  13.495
70048SOL    HW111983  11.106   1.854  13.565
70048SOL    HW211984  11.136   1.836  13.417
70049SOL     OW11985  12.612   5.999  10.159
70049SOL    HW111986  12.577   6.028  10.243
70049SOL    HW211987  12.626   6.080  10.109
70050SOL     OW11988   2.764   6.126  13.474
70050SOL    HW111989   2.819   6.204  13.476
70050SOL    HW211990   2.821   6.056  13.505
70051SOL     OW11991   9.381   0.976   4.285
70051SOL    HW111992   9.339   0.893   4.307
70051SOL    HW211993   9.382   1.025   4.368
70052SOL     OW11994   2.759  13.027   5.091
70052SOL    HW111995   2.791  13.108   5.130
70052SOL    HW211996   2.777  12.960   5.157
70053SOL     OW11997   5.954   4.324   7.406
70053SOL    HW111998   5.955   4.325   7.502
70053SOL    HW211999   5.954   4.231   7.383
70054SOL     OW12000   5.515  10.635  10.676
70054SOL    HW112001   5.549  10.577  10.745
70054SOL    HW212002   5.594  10.666  10.630
70055SOL     OW12003   2.540   1.947  13.854
70055SOL    HW112004   2.494   1.887  13.796
70055SOL    HW212005   2.537   2.032  13.810
70056SOL     OW12006   1.984  12.439  14.250
70056SOL    HW112007   1.973  12.529  14.282
70056SOL    HW212008   1.902  12.420  14.204
70057SOL     OW12009   8.751   8.058  14.463
70057SOL    HW112010   8.746   8.095  14.551
70057SOL    HW212011   8.660   8.045  14.436
70058SOL     OW12012   0.886   3.881  13.640
70058SOL    HW112013   0.874   3.884  13.545
70058SOL    HW212014   0.981   3.883  13.652
70059SOL     OW12015   5.963   8.801   9.232
70059SOL    HW112016   5.918   8.719   9.213
70059SOL    HW212017   5.959   8.850   9.151
70060SOL     OW12018  14.318   0.813   3.632
70060SOL    HW112019  14.261   0.886   3.609
70060SOL    HW212020  14.406   0.846   3.617
70061SOL     OW12021   0.753   7.678   5.826
70061SOL    HW112022   0.757   7.623   5.904
70061SOL    HW212023   0.728   7.765   5.859
70062SOL     OW12024   1.045  12.238   7.398
70062SOL    HW112025   0.984  12.185   7.349
70062SOL    HW212026   0.994  12.273   7.471
70063SOL     OW12027  13.657  13.962   3.499
70063SOL    HW112028  13.748  13.969   3.473
70063SOL    HW212029  13.639  14.041   3.549
70064SOL     OW12030   9.964  11.745  11.699
70064SOL    HW112031   9.948  11.661  11.656
70064SOL    HW212032  10.058  11.760  11.687
70065SOL     OW12033   6.078  14.073   1.975
70065SOL    HW112034   6.143  14.120   2.026
70065SOL    HW212035   6.030  14.141   1.928
70066SOL     OW12036   7.186   6.404   1.166
70066SOL    HW112037   7.229   6.344   1.226
70066SOL    HW212038   7.092   6.387   1.177
70067SOL     OW12039  14.448   4.542   6.186
70067SOL    HW112040  14.382   4.473   6.194
70067SOL    HW212041  14.415   4.614   6.240
70068SOL     OW12042   2.394  13.105   4.682
70068SOL    HW112043   2.405  13.185   4.631
70068SOL    HW212044   2.308  13.114   4.723
70069SOL     OW12045   6.641  12.835  12.663
70069SOL    HW112046   6.719  12.800  12.706
70069SOL    HW212047   6.675  12.891  12.594
70070SOL     OW12048   5.540   1.436   6.477
70070SOL    HW112049   5.497   1.497   6.538
70070SOL    HW212050   5.615   1.485   6.444
70071SOL     OW12051   6.993   4.932  14.049
70071SOL    HW112052   6.906   4.972  14.043
70071SOL    HW212053   7.008   4.922  14.143
70072SOL     OW12054   7.448   1.759  10.978
70072SOL    HW112055   7.490   1.711  11.050
70072SOL    HW212056   7.519   1.807  10.936
70073SOL     OW12057   8.894   2.304  11.138
70073SOL    HW112058   8.883   2.390  11.098
70073SOL    HW212059   8.940   2.321  11.220
70074SOL     OW12060   3.283  13.514   7.370
70074SOL    HW112061   3.254  13.483   7.456
70074SOL    HW212062   3.236  13.597   7.358
70075SOL     OW12063   4.247   4.260   7.628
70075SOL    HW112064   4.330   4.252   7.676
70075SOL    HW212065   4.183   4.215   7.683
70076SOL     OW12066  10.037   6.905  12.182
70076SOL    HW112067   9.966   6.963  12.152
70076SOL    HW212068  10.073   6.868  12.101
70077SOL     OW12069   8.352   1.716   6.148
70077SOL    HW112070   8.430   1.770   6.149
70077SOL    HW212071   8.341   1.690   6.057
70078SOL     OW12072   4.223   2.697   6.394
70078SOL    HW112073   4.295   2.649   6.351
70078SOL    HW212074   4.244   2.789   6.380
70079SOL     OW12075   3.018  11.485   1.051
70079SOL    HW112076   2.963  11.482   1.129
70079SOL    HW212077   2.965  11.442   0.984
70080SOL     OW12078   3.798   0.519  14.837
70080SOL    HW112079   3.814   0.527  14.743
70080SOL    HW212080   3.727   0.456  14.844
70081SOL     OW12081   1.124   2.409   5.061
70081SOL    HW112082   1.124   2.504   5.072
70081SOL    HW212083   1.097   2.396   4.970
70082SOL     OW12084  13.102   0.510   9.409
70082SOL    HW112085  13.186   0.551   9.428
70082SOL    HW212086  13.045   0.534   9.482
70083SOL     OW12087   0.180   1.613   8.232
70083SOL    HW112088   0.229   1.605   8.314
70083SOL    HW212089   0.238   1.576   8.165
70084SOL     OW12090  12.846   9.227   6.698
70084SOL    HW112091  12.786   9.248   6.769
70084SOL    HW212092  12.815   9.278   6.624
70085SOL     OW12093   5.426   4.232   8.421
70085SOL    HW112094   5.360   4.295   8.451
70085SOL    HW212095   5.410   4.153   8.473
70086SOL     OW12096   3.068   7.634   4.678
70086SOL    HW112097   3.117   7.688   4.740
70086SOL    HW212098   3.075   7.680   4.594
70087SOL     OW12099   3.387   7.723   0.732
70087SOL    HW112100   3.449   7.679   0.674
70087SOL    HW212101   3.380   7.811   0.696
70088SOL     OW12102  12.408  14.528  14.791
70088SOL    HW112103  12.413  14.605  14.735
70088SOL    HW212104  12.389  14.563   0.005
70089SOL     OW12105   0.969   3.503   5.473
70089SOL    HW112106   0.890   3.482   5.524
70089SOL    HW212107   0.952   3.591   5.440
70090SOL     OW12108  11.091   4.721   9.597
70090SOL    HW112109  11.066   4.667   9.672
70090SOL    HW212110  11.023   4.788   9.592
70091SOL     OW12111   7.774   9.172  13.368
70091SOL    HW112112   7.757   9.085  13.406
70091SOL    HW212113   7.718   9.231  13.418
70092SOL     OW12114  11.831   4.857   9.308
70092SOL    HW112115  11.914   4.874   9.353
70092SOL    HW212116  11.845   4.893   9.220
70093SOL     OW12117  13.430  11.942   3.504
70093SOL    HW112118  13.343  11.937   3.463
70093SOL    HW212119  13.470  11.857   3.485
70094SOL     OW12120  11.247   2.223   6.391
70094SOL    HW112121  11.195   2.236   6.312
70094SOL    HW212122  11.324   2.174   6.362
70095SOL     OW12123   1.829   5.729   6.811
70095SOL    HW112124   1.905   5.690   6.768
70095SOL    HW212125   1.842   5.824   6.800
70096SOL     OW12126   4.653   2.595   1.318
70096SOL    HW112127   4.630   2.685   1.294
70096SOL    HW212128   4.574   2.544   1.298
70097SOL     OW12129  12.460   1.119   5.886
70097SOL    HW112130  12.511   1.100   5.808
70097SOL    HW212131  12.474   1.044   5.944
70098SOL     OW12132   4.097   7.347   7.200
70098SOL    HW112133   4.192   7.346   7.192
70098SOL    HW212134   4.070   7.260   7.172
70099SOL     OW12135  12.493   7.887   1.070
70099SOL    HW112136  12.502   7.817   1.135
70099SOL    HW212137  12.419   7.861   1.016
70100SOL     OW12138  14.839   0.384   7.090
70100SOL    HW112139  14.860   0.361   7.000
70100SOL    HW212140  14.762   0.440   7.083
70101SOL     OW12141   8.003   4.297  11.819
70101SOL    HW112142   8.094   4.276  11.840
70101SOL    HW212143   7.987   4.380  11.863
70102SOL     OW12144  10.181   9.084   8.728
70102SOL    HW112145  10.269   9.053   8.706
70102SOL    HW212146  10.133   9.081   8.645
70103SOL     OW12147  13.491   5.088  10.374
70103SOL    HW112148  13.572   5.045  10.348
70103SOL    HW212149  13.490   5.081  10.470
70104SOL     OW12150   7.913   8.038   0.800
70104SOL    HW112151   7.877   7.950   0.810
70104SOL    HW212152   7.876   8.069   0.717
70105SOL     OW12153   3.287   2.004   2.744
70105SOL    HW112154   3.194   1.995   2.764
70105SOL    HW212155   3.332   1.970   2.821
70106SOL     OW12156   9.714   5.452   4.978
70106SOL    HW112157   9.722   5.514   4.906
70106SOL    HW212158   9.624   5.420   4.973
70107SOL     OW12159   1.984  11.183  12.925
70107SOL    HW112160   1.917  11.181  12.993
70107SOL    HW212161   2.044  11.252  12.952
70108SOL     OW12162   8.249   6.275   1.926
70108SOL    HW112163   8.259   6.278   1.831
70108SOL    HW212164   8.157   6.253   1.940
70109SOL     OW12165  13.768   6.635  11.698
70109SOL    HW112166  13.848   6.584  11.709
70109SOL    HW212167  13.717   6.585  11.634
70110SOL     OW12168  11.991   2.082   4.751
70110SOL    HW112169  11.920   2.134   4.714
70110SOL    HW212170  12.007   2.121   4.837
70111SOL     OW12171   0.345   2.966  11.232
70111SOL    HW112172   0.426   3.017  11.230
70111SOL    HW212173   0.342   2.921  11.147
70112SOL     OW12174   7.202  12.023   6.188
70112SOL    HW112175   7.198  11.941   6.137
70112SOL    HW212176   7.232  11.995   6.275
70113SOL     OW12177  10.855   3.334   0.009
70113SOL    HW112178  10.880   3.413  14.834
70113SOL    HW212179  10.775   3.303  14.838
70114SOL     OW12180  10.437   5.349   7.979
70114SOL    HW112181  10.458   5.346   8.072
70114SOL    HW212182  10.370   5.281   7.967
70115SOL     OW12183   4.555  14.181   3.041
70115SOL    HW112184   4.561  14.089   3.065
70115SOL    HW212185   4.587  14.228   3.118
70116SOL     OW12186   7.704  13.757  11.812
70116SOL    HW112187   7.772  13.734  11.749
70116SOL    HW212188   7.698  13.852  11.808
70117SOL     OW12189  13.365   6.347  13.343
70117SOL    HW112190  13.303   6.276  13.328
70117SOL    HW212191  13.368   6.395  13.259
70118SOL     OW12192   7.835   8.890  12.344
70118SOL    HW112193   7.833   8.965  12.404
70118SOL    HW212194   7.874   8.819  12.395
70119SOL     OW12195   4.422   0.590   0.780
70119SOL    HW112196   4.425   0.641   0.861
70119SOL    HW212197   4.330   0.564   0.772
70120SOL     OW12198  14.567  14.750   9.665
70120SOL    HW112199  14.472  14.749   9.668
70120SOL    HW212200  14.591  14.659   9.647
70121SOL     OW12201   0.887   2.087   7.719
70121SOL    HW112202   0.888   2.046   7.806
70121SOL    HW212203   0.979   2.099   7.698
70122SOL     OW12204  11.490   7.529   0.915
70122SOL    HW112205  11.526   7.570   0.994
70122SOL    HW212206  11.506   7.592   0.845
70123SOL     OW12207   3.549  10.101  14.834
70123SOL    HW112208   3.541  10.192  14.862
70123SOL    HW212209   3.638  10.076  14.860
70124SOL     OW12210   3.129   6.627  14.272
70124SOL    HW112211   3.034   6.620  14.269
70124SOL    HW212212   3.153   6.593  14.358
70125SOL     OW12213   7.989   3.139   5.658
70125SOL    HW112214   7.946   3.162   5.740
70125SOL    HW212215   8.082   3.132   5.680
70126SOL     OW12216   7.792  14.828   3.733
70126SOL    HW112217   7.782  14.787   3.647
70126SOL    HW212218   7.750  14.767   3.794
70127SOL     OW12219  13.044   9.664   6.358
70127SOL    HW112220  12.971   9.670   6.296
70127SOL    HW212221  13.054   9.570   6.373
70128SOL     OW12222  14.594   7.169  10.264
70128SOL    HW112223  14.649   7.246  10.281
70128SOL    HW212224  14.572   7.136  10.351
70129SOL     OW12225   2.442   6.582  13.892
70129SOL    HW112226   2.356   6.620  13.873
70129SOL    HW212227   2.446   6.580  13.988
70130SOL     OW12228  12.349  12.249   3.729
70130SOL    HW112229  12.277  12.289   3.778
70130SOL    HW212230  12.422  12.246   3.791
70131SOL     OW12231  11.644  12.281   0.150
70131SOL    HW112232  11.575  12.246   0.206
70131SOL    HW212233  11.598  12.308   0.070
70132SOL     OW12234   2.253   7.216   0.827
70132SOL    HW112235   2.264   7.138   0.882
70132SOL    HW212236   2.338   7.226   0.784
70133SOL     OW12237   9.532   1.125  10.778
70133SOL    HW112238   9.598   1.150  10.843
70133SOL    HW212239   9.582   1.101  10.700
70134SOL     OW12240  12.483  14.579   6.896
70134SOL    HW112241  12.457  14.488   6.883
70134SOL    HW212242  12.404  14.630   6.878
70135SOL     OW12243   0.926  13.280  12.123
70135SOL    HW112244   1.011  13.239  12.143
70135SOL    HW212245   0.861  13.214  12.149
70136SOL     OW12246   4.823  14.218   7.350
70136SOL    HW112247   4.911  14.256   7.344
70136SOL    HW212248   4.830  14.136   7.302
70137SOL     OW12249   4.717   2.217  10.428
70137SOL    HW112250   4.652   2.211  10.358
70137SOL    HW212251   4.673   2.179  10.505
70138SOL     OW12252   6.397  12.410   3.348
70138SOL    HW112253   6.310  12.411   3.309
70138SOL    HW212254   6.381  12.422   3.442
70139SOL     OW12255  11.256   1.475   7.530
70139SOL    HW112256  11.176   1.463   7.479
70139SOL    HW212257  11.301   1.547   7.487
70140SOL     OW12258   8.648  11.409   2.573
70140SOL    HW112259   8.697  11.475   2.525
70140SOL    HW212260   8.557  11.426   2.552
70141SOL     OW12261   7.794   1.634   1.642
70141SOL    HW112262   7.844   1.652   1.563
70141SOL    HW212263   7.720   1.695   1.638
70142SOL     OW12264   2.020  14.351  11.821
70142SOL    HW112265   2.044  14.425  11.876
70142SOL    HW212266   1.931  14.371  11.792
70143SOL     OW12267   6.236   6.911   2.679
70143SOL    HW112268   6.282   6.833   2.713
70143SOL    HW212269   6.186   6.943   2.754
70144SOL     OW12270   1.486  11.497  13.172
70144SOL    HW112271   1.494  11.519  13.265
70144SOL    HW212272   1.398  11.528  13.148
70145SOL     OW12273   3.548  13.720   2.494
70145SOL    HW112274   3.453  13.704   2.491
70145SOL    HW212275   3.567  13.735   2.587
70146SOL     OW12276  14.645  10.521  12.238
70146SOL    HW112277  14.550  10.518  12.252
70146SOL    HW212278  14.676  10.436  12.270
70147SOL     OW12279  13.101  14.731   8.289
70147SOL    HW112280  13.099  14.689   8.203
70147SOL    HW212281  13.184  14.703   8.328
70148SOL     OW12282   8.426   1.642   4.165
70148SOL    HW112283   8.439   1.617   4.256
70148SOL    HW212284   8.434   1.560   4.117
70149SOL     OW12285   3.729  14.577  14.229
70149SOL    HW112286   3.761  14.499  14.184
70149SOL    HW212287   3.778  14.649  14.190
70150SOL     OW12288   5.270  11.319  10.168
70150SOL    HW112289   5.274  11.408  10.202
70150SOL    HW212290   5.186  11.285  10.199
70151SOL     OW12291   0.082   8.062   1.925
70151SOL    HW112292   0.119   8.029   2.007
70151SOL    HW212293  14.864   8.083   1.947
70152SOL     OW12294   5.624   8.324   6.635
70152SOL    HW112295   5.584   8.362   6.556
70152SOL    HW212296   5.716   8.311   6.611
70153SOL     OW12297  12.223  12.611  14.284
70153SOL    HW112298  12.230  12.679  14.351
70153SOL    HW212299  12.218  12.529  14.332
70154SOL     OW12300  11.845  10.155  14.832
70154SOL    HW112301  11.816  10.200  14.753
70154SOL    HW212302  11.916  10.098  14.803
70155SOL     OW12303   2.729  10.178  14.511
70155SOL    HW112304   2.666  10.160  14.442
70155SOL    HW212305   2.805  10.215  14.466
70156SOL     OW12306  12.311  11.340   2.842
70156SOL    HW112307  12.381  11.404   2.833
70156SOL    HW212308  12.239  11.387   2.883
70157SOL     OW12309   9.339   1.239   3.926
70157SOL    HW112310   9.375   1.305   3.986
70157SOL    HW212311   9.301   1.291   3.855
70158SOL     OW12312  10.948   4.956   1.315
70158SOL    HW112313  11.000   4.895   1.367
70158SOL    HW212314  11.012   4.997   1.256
70159SOL     OW12315   1.889   3.835   1.274
70159SOL    HW112316   1.911   3.925   1.300
70159SOL    HW212317   1.965   3.805   1.224
70160SOL     OW12318  11.438   1.564   9.092
70160SOL    HW112319  11.531   1.543   9.094
70160SOL    HW212320  11.417   1.588   9.182
70161SOL     OW12321   4.739   0.930  12.630
70161SOL    HW112322   4.691   0.921  12.712
70161SOL    HW212323   4.732   1.023  12.608
70162SOL     OW12324  12.716  10.488   7.344
70162SOL    HW112325  12.659  10.411   7.337
70162SOL    HW212326  12.689  10.530   7.425
70163SOL     OW12327   7.042   4.835   8.860
70163SOL    HW112328   6.969   4.775   8.876
70163SOL    HW212329   7.118   4.788   8.893
70164SOL     OW12330   7.921  12.301   5.503
70164SOL    HW112331   7.854  12.337   5.446
70164SOL    HW212332   7.876  12.234   5.554
70165SOL     OW12333   1.872   1.977   0.826
70165SOL    HW112334   1.789   2.025   0.817
70165SOL    HW212335   1.846   1.885   0.834
70166SOL     OW12336   2.119  11.288   4.605
70166SOL    HW112337   2.123  11.353   4.675
70166SOL    HW212338   2.086  11.209   4.648
70167SOL     OW12339   4.406   0.079   2.250
70167SOL    HW112340   4.336   0.085   2.185
70167SOL    HW212341   4.434  14.861   2.246
70168SOL     OW12342   9.945   5.811  14.374
70168SOL    HW112343   9.943   5.907  14.372
70168SOL    HW212344   9.855   5.786  14.395
70169SOL     OW12345   8.816  11.980   7.062
70169SOL    HW112346   8.801  11.986   7.156
70169SOL    HW212347   8.906  11.949   7.054
70170SOL     OW12348  10.239  12.489  13.474
70170SOL    HW112349  10.156  12.527  13.501
70170SOL    HW212350  10.230  12.395  13.491
70171SOL     OW12351   0.094   4.258  13.857
70171SOL    HW112352   0.073   4.165  13.845
70171SOL    HW212353   0.141   4.261  13.940
70172SOL     OW12354   6.180   5.633   0.789
70172SOL    HW112355   6.170   5.719   0.831
70172SOL    HW212356   6.266   5.637   0.747
70173SOL     OW12357  11.462   8.575   3.843
70173SOL    HW112358  11.381   8.623   3.831
70173SOL    HW212359  11.504   8.575   3.757
70174SOL     OW12360   3.433  12.663   9.147
70174SOL    HW112361   3.501  12.611   9.104
70174SOL    HW212362   3.391  12.602   9.208
70175SOL     OW12363   3.452   0.196   3.435
70175SOL    HW112364   3.425   0.186   3.344
70175SOL    HW212365   3.375   0.172   3.486
70176SOL     OW12366   7.909  13.717   3.290
70176SOL    HW112367   7.892  13.804   3.253
70176SOL    HW212368   7.822  13.683   3.312
70177SOL     OW12369  10.900   3.526  14.706
70177SOL    HW112370  10.854   3.593  14.655
70177SOL    HW212371  10.991   3.530  14.675
70178SOL     OW12372  12.937   6.935   6.145
70178SOL    HW112373  12.853   6.980   6.157
70178SOL    HW212374  12.997   7.004   6.116
70179SOL     OW12375   3.172  13.040   3.157
70179SOL    HW112376   3.083  13.040   3.192
70179SOL    HW212377   3.228  13.055   3.233
70180SOL     OW12378  11.833  14.564  10.811
70180SOL    HW112379  11.927  14.577  10.829
70180SOL    HW212380  11.816  14.620  10.735
70181SOL     OW12381   0.478   5.455   9.160
70181SOL    HW112382   0.393   5.411   9.164
70181SOL    HW212383   0.523   5.415   9.086
70182SOL     OW12384   7.448  12.894   2.966
70182SOL    HW112385   7.380  12.896   2.899
70182SOL    HW212386   7.465  12.986   2.986
70183SOL     OW12387  12.563  12.889  10.625
70183SOL    HW112388  12.502  12.893  10.551
70183SOL    HW212389  12.511  12.921  10.700
70184SOL     OW12390   4.877   3.744   0.661
70184SOL    HW112391   4.884   3.745   0.756
70184SOL    HW212392   4.946   3.804   0.631
70185SOL     OW12393   7.100  11.804  12.132
70185SOL    HW112394   7.018  11.760  12.110
70185SOL    HW212395   7.131  11.839  12.048
70186SOL     OW12396   8.713  12.581  10.648
70186SOL    HW112397   8.745  12.504  10.599
70186SOL    HW212398   8.622  12.558  10.670
70187SOL     OW12399   2.637  12.852  11.017
70187SOL    HW112400   2.699  12.856  10.944
70187SOL    HW212401   2.670  12.916  11.080
70188SOL     OW12402   3.511  12.222   2.141
70188SOL    HW112403   3.525  12.299   2.196
70188SOL    HW212404   3.534  12.251   2.052
70189SOL     OW12405   9.892  13.598   9.739
70189SOL    HW112406   9.918  13.509   9.764
70189SOL    HW212407   9.952  13.621   9.668
70190SOL     OW12408  14.474   4.228   5.357
70190SOL    HW112409  14.408   4.238   5.427
70190SOL    HW212410  14.501   4.137   5.364
70191SOL     OW12411  13.033   0.382  10.172
70191SOL    HW112412  13.091   0.310  10.149
70191SOL    HW212413  12.946   0.343  10.177
70192SOL     OW12414   3.137   3.147   1.633
70192SOL    HW112415   3.233   3.141   1.638
70192SOL    HW212416   3.120   3.241   1.628
70193SOL     OW12417   1.736   3.229   6.948
70193SOL    HW112418   1.704   3.193   6.866
70193SOL    HW212419   1.751   3.153   7.004
70194SOL     OW12420  13.157  14.043   7.388
70194SOL    HW112421  13.182  14.107   7.321
70194SOL    HW212422  13.155  13.959   7.342
70195SOL     OW12423  14.037  13.334   1.396
70195SOL    HW112424  14.122  13.297   1.371
70195SOL    HW212425  13.974  13.286   1.343
70196SOL     OW12426   0.351   5.935   5.862
70196SOL    HW112427   0.425   5.931   5.923
70196SOL    HW212428   0.279   5.968   5.915
70197SOL     OW12429  13.701  10.649   7.130
70197SOL    HW112430  13.659  10.717   7.076
70197SOL    HW212431  13.792  10.650   7.102
70198SOL     OW12432   8.875   2.980   9.656
70198SOL    HW112433   8.960   3.005   9.692
70198SOL    HW212434   8.895   2.910   9.595
70199SOL     OW12435   6.987   4.806   4.515
70199SOL    HW112436   7.062   4.747   4.516
70199SOL    HW212437   6.921   4.760   4.463
70200SOL     OW12438  10.254   8.820   0.637
70200SOL    HW112439  10.335   8.820   0.688
70200SOL    HW212440  10.185   8.807   0.702
70201SOL     OW12441   0.171   3.962   9.552
70201SOL    HW112442   0.186   3.946   9.646
70201SOL    HW212443   0.194   3.880   9.510
70202SOL     OW12444   3.565   6.040   7.277
70202SOL    HW112445   3.571   6.040   7.181
70202SOL    HW212446   3.472   6.054   7.295
70203SOL     OW12447   1.363  12.362   9.791
70203SOL    HW112448   1.364  12.398   9.880
70203SOL    HW212449   1.449  12.321   9.781
70204SOL     OW12450   7.331   1.434   9.788
70204SOL    HW112451   7.404   1.418   9.728
70204SOL    HW212452   7.301   1.523   9.767
70205SOL     OW12453   1.423   6.560   6.219
70205SOL    HW112454   1.432   6.470   6.249
70205SOL    HW212455   1.426   6.612   6.300
70206SOL     OW12456  10.439   6.338   7.160
70206SOL    HW112457  10.487   6.415   7.190
70206SOL    HW212458  10.362   6.334   7.216
70207SOL     OW12459   0.380   4.992  11.783
70207SOL    HW112460   0.366   5.072  11.833
70207SOL    HW212461   0.292   4.962  11.761
70208SOL     OW12462   6.294  12.571   2.718
70208SOL    HW112463   6.240  12.640   2.756
70208SOL    HW212464   6.336  12.528   2.792
70209SOL     OW12465  13.512   6.649   6.789
70209SOL    HW112466  13.437   6.704   6.810
70209SOL    HW212467  13.541   6.616   6.874
70210SOL     OW12468  10.514   1.257  12.421
70210SOL    HW112469  10.540   1.349  12.410
70210SOL    HW212470  10.457   1.239  12.347
70211SOL     OW12471  11.362   6.001  12.574
70211SOL    HW112472  11.283   6.039  12.534
70211SOL    HW212473  11.392   6.068  12.635
70212SOL     OW12474   4.942   1.479  11.552
70212SOL    HW112475   4.881   1.527  11.608
70212SOL    HW212476   5.027   1.518  11.569
70213SOL     OW12477   7.642   8.953  13.488
70213SOL    HW112478   7.613   9.025  13.544
70213SOL    HW212479   7.655   8.880  13.549
70214SOL     OW12480   6.823   3.699   3.944
70214SOL    HW112481   6.777   3.698   4.028
70214SOL    HW212482   6.753   3.695   3.878
70215SOL     OW12483   9.314   1.614   2.642
70215SOL    HW112484   9.256   1.538   2.643
70215SOL    HW212485   9.353   1.614   2.555
70216SOL     OW12486   9.348  11.385   8.360
70216SOL    HW112487   9.260  11.372   8.325
70216SOL    HW212488   9.336  11.435   8.440
70217SOL     OW12489  14.448  10.707   0.704
70217SOL    HW112490  14.535  10.667   0.698
70217SOL    HW212491  14.456  10.788   0.653
70218SOL     OW12492  12.336   9.544  10.268
70218SOL    HW112493  12.325   9.577  10.358
70218SOL    HW212494  12.367   9.619  10.219
70219SOL     OW12495  11.250   4.615   6.045
70219SOL    HW112496  11.289   4.601   5.959
70219SOL    HW212497  11.259   4.710   6.059
70220SOL     OW12498   4.223   2.433   4.256
70220SOL    HW112499   4.179   2.444   4.171
70220SOL    HW212500   4.153   2.411   4.317
70221SOL     OW12501  12.894   1.267   0.206
70221SOL    HW112502  12.844   1.224   0.136
70221SOL    HW212503  12.844   1.346   0.226
70222SOL     OW12504   4.574   3.580  10.298
70222SOL    HW112505   4.564   3.565  10.392
70222SOL    HW212506   4.609   3.497  10.265
70223SOL     OW12507   3.925   0.687   8.186
70223SOL    HW112508   3.882   0.764   8.148
70223SOL    HW212509   3.872   0.613   8.157
70224SOL     OW12510   0.270   8.411  12.862
70224SOL    HW112511   0.244   8.444  12.948
70224SOL    HW212512   0.252   8.317  12.867
70225SOL     OW12513   9.076   9.344   6.413
70225SOL    HW112514   9.146   9.311   6.470
70225SOL    HW212515   9.045   9.423   6.458
70226SOL     OW12516  11.550   6.709  11.464
70226SOL    HW112517  11.641   6.686  11.447
70226SOL    HW212518  11.553   6.801  11.490
70227SOL     OW12519   4.150   6.303   6.963
70227SOL    HW112520   4.055   6.306   6.978
70227SOL    HW212521   4.161   6.242   6.890
70228SOL     OW12522   5.163   5.052   2.437
70228SOL    HW112523   5.127   4.970   2.403
70228SOL    HW212524   5.229   5.024   2.501
70229SOL     OW12525   3.993   2.251  14.737
70229SOL    HW112526   3.920   2.302  14.700
70229SOL    HW212527   4.047   2.317  14.781
70230SOL     OW12528   6.134  14.795   0.266
70230SOL    HW112529   6.207  14.820   0.209
70230SOL    HW212530   6.084   0.003   0.277
70231SOL     OW12531   6.052   0.893   9.684
70231SOL    HW112532   6.048   0.885   9.779
70231SOL    HW212533   5.967   0.927   9.658
70232SOL     OW12534   5.419   8.933  10.196
70232SOL    HW112535   5.481   9.005  10.183
70232SOL    HW212536   5.349   8.950  10.134
70233SOL     OW12537   2.920  12.749   6.864
70233SOL    HW112538   3.003  12.761   6.819
70233SOL    HW212539   2.931  12.670   6.916
70234SOL     OW12540   5.160   1.576  12.467
70234SOL    HW112541   5.078   1.563  12.418
70234SOL    HW212542   5.171   1.494  12.515
70235SOL     OW12543  13.454  10.755   2.804
70235SOL    HW112544  13.461  10.837   2.854
70235SOL    HW212545  13.544  10.722   2.800
70236SOL     OW12546  13.503  10.140   5.086
70236SOL    HW112547  13.490  10.159   4.993
70236SOL    HW212548  13.536  10.222   5.123
70237SOL     OW12549   9.860   2.522  12.452
70237SOL    HW112550   9.776   2.490  12.419
70237SOL    HW212551   9.925   2.481  12.396
70238SOL     OW12552  12.473   3.175   5.341
70238SOL    HW112553  12.419   3.195   5.265
70238SOL    HW212554  12.518   3.257   5.361
70239SOL     OW12555  10.073  14.724  10.575
70239SOL    HW112556  10.058  14.819  10.581
70239SOL    HW212557  10.037  14.690  10.657
70240SOL     OW12558   0.571  13.094   8.403
70240SOL    HW112559   0.661  13.066   8.418
70240SOL    HW212560   0.578  13.185   8.376
70241SOL     OW12561   4.946   5.567  12.337
70241SOL    HW112562   5.034   5.557  12.299
70241SOL    HW212563   4.933   5.487  12.388
70242SOL     OW12564   4.898   5.828   3.795
70242SOL    HW112565   4.974   5.792   3.750
70242SOL    HW212566   4.859   5.889   3.732
70243SOL     OW12567  11.210   4.793   2.511
70243SOL    HW112568  11.294   4.792   2.465
70243SOL    HW212569  11.216   4.868   2.570
70244SOL     OW12570  11.152  10.312  11.713
70244SOL    HW112571  11.102  10.287  11.636
70244SOL    HW212572  11.110  10.265  11.785
70245SOL     OW12573  13.058  10.029   3.242
70245SOL    HW112574  13.067  10.000   3.333
70245SOL    HW212575  13.003  10.107   3.248
70246SOL     OW12576  13.953   6.942  11.529
70246SOL    HW112577  13.974   6.869  11.588
70246SOL    HW212578  14.019   6.936  11.460
70247SOL     OW12579   2.675   6.236  14.187
70247SOL    HW112580   2.585   6.244  14.155
70247SOL    HW212581   2.701   6.147  14.165
70248SOL     OW12582   0.584   3.496   7.440
70248SOL    HW112583   0.664   3.529   7.480
70248SOL    HW212584   0.588   3.401   7.451
70249SOL     OW12585  11.636   0.952   0.662
70249SOL    HW112586  11.646   1.015   0.733
70249SOL    HW212587  11.541   0.946   0.650
70250SOL     OW12588  12.690   1.630   5.975
70250SOL    HW112589  12.642   1.702   6.017
70250SOL    HW212590  12.693   1.654   5.883
70251SOL     OW12591  12.177   5.588   9.612
70251SOL    HW112592  12.227   5.510   9.633
70251SOL    HW212593  12.107   5.590   9.678
70252SOL     OW12594  13.423   8.532  11.540
70252SOL    HW112595  13.336   8.510  11.572
70252SOL    HW212596  13.467   8.572  11.615
70253SOL     OW12597   1.764   6.154   8.782
70253SOL    HW112598   1.818   6.161   8.861
70253SOL    HW212599   1.777   6.237   8.736
70254SOL     OW12600   3.175   6.418  11.702
70254SOL    HW112601   3.166   6.394  11.794
70254SOL    HW212602   3.105   6.370  11.657
70255SOL     OW12603  12.490   8.458  12.615
70255SOL    HW112604  12.481   8.406  12.535
70255SOL    HW212605  12.428   8.419  12.676
70256SOL     OW12606  14.556   0.069   2.106
70256SOL    HW112607  14.633   0.114   2.140
70256SOL    HW212608  14.507   0.136   2.059
70257SOL     OW12609  12.757  11.682   8.820
70257SOL    HW112610  12.764  11.654   8.729
70257SOL    HW212611  12.828  11.745   8.832
70258SOL     OW12612   4.320   6.757   3.251
70258SOL    HW112613   4.405   6.776   3.210
70258SOL    HW212614   4.263   6.827   3.221
70259SOL     OW12615   2.646   8.897   2.147
70259SOL    HW112616   2.669   8.815   2.191
70259SOL    HW212617   2.560   8.880   2.108
70260SOL     OW12618  12.254   3.856   5.842
70260SOL    HW112619  12.249   3.764   5.868
70260SOL    HW212620  12.321   3.894   5.899
70261SOL     OW12621   9.715   2.503  14.616
70261SOL    HW112622   9.754   2.470  14.535
70261SOL    HW212623   9.722   2.598  14.610
70262SOL     OW12624   6.538   1.330  10.831
70262SOL    HW112625   6.462   1.364  10.879
70262SOL    HW212626   6.573   1.261  10.887
70263SOL     OW12627   1.351   3.494   5.909
70263SOL    HW112628   1.350   3.420   5.970
70263SOL    HW212629   1.267   3.489   5.864
70264SOL     OW12630   9.718   2.985  10.036
70264SOL    HW112631   9.754   3.025   9.958
70264SOL    HW212632   9.731   2.891  10.024
70265SOL     OW12633   7.869   4.986   5.137
70265SOL    HW112634   7.906   5.062   5.182
70265SOL    HW212635   7.856   4.921   5.206
70266SOL     OW12636   4.876   8.897   1.219
70266SOL    HW112637   4.920   8.835   1.162
70266SOL    HW212638   4.862   8.974   1.165
70267SOL     OW12639   1.686   8.792   0.921
70267SOL    HW112640   1.702   8.795   1.016
70267SOL    HW212641   1.734   8.868   0.887
70268SOL     OW12642   3.945   8.289   9.583
70268SOL    HW112643   4.017   8.268   9.642
70268SOL    HW212644   3.948   8.221   9.516
70269SOL     OW12645   0.832   1.555  13.914
70269SOL    HW112646   0.760   1.510  13.870
70269SOL    HW212647   0.872   1.489  13.970
70270SOL     OW12648  10.565   5.943   7.546
70270SOL    HW112649  10.616   5.961   7.625
70270SOL    HW212650  10.490   5.892   7.577
70271SOL     OW12651  10.307  13.822   3.379
70271SOL    HW112652  10.260  13.769   3.316
70271SOL    HW212653  10.357  13.884   3.326
70272SOL     OW12654   5.402  14.431  13.923
70272SOL    HW112655   5.347  14.394  13.854
70272SOL    HW212656   5.358  14.408  14.005
70273SOL     OW12657  10.851   1.563   7.066
70273SOL    HW112658  10.869   1.611   7.147
70273SOL    HW212659  10.756   1.568   7.056
70274SOL     OW12660   7.162   0.525   3.661
70274SOL    HW112661   7.079   0.572   3.652
70274SOL    HW212662   7.155   0.453   3.599
70275SOL     OW12663   7.944   6.648  12.632
70275SOL    HW112664   7.879   6.695  12.580
70275SOL    HW212665   7.909   6.650  12.721
70276SOL     OW12666  11.631   7.996   5.438
70276SOL    HW112667  11.565   8.061   5.416
70276SOL    HW212668  11.699   8.008   5.371
70277SOL     OW12669   5.167   4.686  12.847
70277SOL    HW112670   5.263   4.689  12.837
70277SOL    HW212671   5.138   4.626  12.779
70278SOL     OW12672   0.114   8.849  11.299
70278SOL    HW112673   0.160   8.809  11.225
70278SOL    HW212674   0.135   8.942  11.293
70279SOL     OW12675  12.328   8.899  13.963
70279SOL    HW112676  12.279   8.935  14.037
70279SOL    HW212677  12.278   8.927  13.886
70280SOL     OW12678  12.094   2.714   6.432
70280SOL    HW112679  12.010   2.701   6.388
70280SOL    HW212680  12.072   2.762   6.512
70281SOL     OW12681   9.340  10.703   9.913
70281SOL    HW112682   9.338  10.683   9.819
70281SOL    HW212683   9.431  10.690   9.939
70282SOL     OW12684   3.476   1.993   4.954
70282SOL    HW112685   3.566   2.024   4.942
70282SOL    HW212686   3.425   2.045   4.892
70283SOL     OW12687   7.216   2.280  10.616
70283SOL    HW112688   7.184   2.357  10.663
70283SOL    HW212689   7.237   2.313  10.529
70284SOL     OW12690  11.322   9.247   9.162
70284SOL    HW112691  11.401   9.206   9.128
70284SOL    HW212692  11.251   9.186   9.141
70285SOL     OW12693   8.873  14.388   2.383
70285SOL    HW112694   8.900  14.346   2.465
70285SOL    HW212695   8.789  14.348   2.363
70286SOL     OW12696   1.919   7.576   9.596
70286SOL    HW112697   1.961   7.642   9.540
70286SOL    HW212698   1.949   7.597   9.684
70287SOL     OW12699  12.832  12.322   1.077
70287SOL    HW112700  12.884  12.392   1.116
70287SOL    HW212701  12.854  12.244   1.128
70288SOL     OW12702   0.966  12.595   2.398
70288SOL    HW112703   0.957  12.566   2.489
70288SOL    HW212704   0.906  12.669   2.391
70289SOL     OW12705   6.076   2.959  12.062
70289SOL    HW112706   6.024   2.967  11.983
70289SOL    HW212707   6.022   2.907  12.122
70290SOL     OW12708   2.313   8.199   8.601
70290SOL    HW112709   2.310   8.182   8.507
70290SOL    HW212710   2.395   8.158   8.630
70291SOL     OW12711   0.681  10.773   8.225
70291SOL    HW112712   0.756  10.720   8.197
70291SOL    HW212713   0.694  10.857   8.180
70292SOL     OW12714   6.194   5.674  14.156
70292SOL    HW112715   6.260   5.739  14.178
70292SOL    HW212716   6.111   5.720  14.163
70293SOL     OW12717   9.952   2.232  10.401
70293SOL    HW112718   9.979   2.287  10.475
70293SOL    HW212719   9.860   2.211  10.419
70294SOL     OW12720  14.638  12.039  10.299
70294SOL    HW112721  14.683  11.972  10.249
70294SOL    HW212722  14.549  12.006  10.309
70295SOL     OW12723  10.597  11.755  12.538
70295SOL    HW112724  10.561  11.670  12.565
70295SOL    HW212725  10.524  11.800  12.496
70296SOL     OW12726  10.610   2.637  13.404
70296SOL    HW112727  10.577   2.642  13.494
70296SOL    HW212728  10.536   2.666  13.350
70297SOL     OW12729   8.817   9.215   6.655
70297SOL    HW112730   8.739   9.160   6.656
70297SOL    HW212731   8.846   9.218   6.746
70298SOL     OW12732   1.643  12.875   9.922
70298SOL    HW112733   1.691  12.948   9.961
70298SOL    HW212734   1.589  12.841   9.993
70299SOL     OW12735   5.888  11.596  10.729
70299SOL    HW112736   5.887  11.515  10.779
70299SOL    HW212737   5.842  11.574  10.648
70300SOL     OW12738  11.518  10.640   3.761
70300SOL    HW112739  11.567  10.722   3.755
70300SOL    HW212740  11.439  10.663   3.810
70301SOL     OW12741  12.456   1.868   7.474
70301SOL    HW112742  12.462   1.869   7.570
70301SOL    HW212743  12.478   1.779   7.449
70302SOL     OW12744  12.273   9.765   5.594
70302SOL    HW112745  12.288   9.736   5.684
70302SOL    HW212746  12.227   9.848   5.602
70303SOL     OW12747  14.633   0.034   9.976
70303SOL    HW112748  14.561   0.069   9.924
70303SOL    HW212749  14.711   0.049   9.922
70304SOL     OW12750   3.240   9.374  14.041
70304SOL    HW112751   3.212   9.427  13.966
70304SOL    HW212752   3.181   9.299  14.040
70305SOL     OW12753   4.864  13.448  11.594
70305SOL    HW112754   4.794  13.486  11.647
70305SOL    HW212755   4.826  13.438  11.507
70306SOL     OW12756  13.677   7.551   8.831
70306SOL    HW112757  13.605   7.608   8.803
70306SOL    HW212758  13.699   7.581   8.919
70307SOL     OW12759   6.240   5.789  10.844
70307SOL    HW112760   6.254   5.815  10.754
70307SOL    HW212761   6.318   5.818  10.890
70308SOL     OW12762  10.518   6.252   3.156
70308SOL    HW112763  10.483   6.314   3.221
70308SOL    HW212764  10.589   6.207   3.202
70309SOL     OW12765  12.115  13.341   6.276
70309SOL    HW112766  12.025  13.311   6.286
70309SOL    HW212767  12.120  13.423   6.326
70310SOL     OW12768   3.297   3.854  11.587
70310SOL    HW112769   3.213   3.808  11.590
70310SOL    HW212770   3.336   3.826  11.504
70311SOL     OW12771   1.673   2.135  13.498
70311SOL    HW112772   1.658   2.108  13.407
70311SOL    HW212773   1.604   2.092  13.547
70312SOL     OW12774   8.977   8.488  10.311
70312SOL    HW112775   8.944   8.452  10.393
70312SOL    HW212776   8.899   8.521  10.265
70313SOL     OW12777   6.814   9.491   6.118
70313SOL    HW112778   6.794   9.447   6.201
70313SOL    HW212779   6.874   9.432   6.073
70314SOL     OW12780   8.060   9.844   7.025
70314SOL    HW112781   8.000   9.795   7.081
70314SOL    HW212782   8.004   9.897   6.970
70315SOL     OW12783   4.236   6.353   6.142
70315SOL    HW112784   4.234   6.296   6.219
70315SOL    HW212785   4.214   6.440   6.175
70316SOL     OW12786   6.154   4.090  12.376
70316SOL    HW112787   6.098   4.013  12.367
70316SOL    HW212788   6.217   4.065  12.444
70317SOL     OW12789   1.242  12.892  13.063
70317SOL    HW112790   1.170  12.831  13.045
70317SOL    HW212791   1.221  12.930  13.148
70318SOL     OW12792  12.825   1.567  11.813
70318SOL    HW112793  12.775   1.587  11.892
70318SOL    HW212794  12.799   1.478  11.790
70319SOL     OW12795   8.690   2.433   6.591
70319SOL    HW112796   8.751   2.449   6.520
70319SOL    HW212797   8.630   2.507   6.589
70320SOL     OW12798   7.247  13.528   4.824
70320SOL    HW112799   7.197  13.603   4.856
70320SOL    HW212800   7.211  13.511   4.737
70321SOL     OW12801   9.995   4.634   7.568
70321SOL    HW112802   9.967   4.640   7.659
70321SOL    HW212803   9.918   4.600   7.522
70322SOL     OW12804   4.284  13.052   3.041
70322SOL    HW112805   4.205  12.999   3.030
70322SOL    HW212806   4.251  13.139   3.062
70323SOL     OW12807   2.192   2.588   7.877
70323SOL    HW112808   2.103   2.620   7.896
70323SOL    HW212809   2.243   2.611   7.955
70324SOL     OW12810   0.599   0.445  10.086
70324SOL    HW112811   0.611   0.527  10.038
70324SOL    HW212812   0.514   0.412  10.056
70325SOL     OW12813  13.595  13.417  11.499
70325SOL    HW112814  13.680  13.460  11.494
70325SOL    HW212815  13.604  13.340  11.442
70326SOL     OW12816   4.125  10.764   6.100
70326SOL    HW112817   4.045  10.743   6.148
70326SOL    HW212818   4.196  10.731   6.155
70327SOL     OW12819  13.315   2.033   0.304
70327SOL    HW112820  13.331   1.953   0.255
70327SOL    HW212821  13.384   2.093   0.275
70328SOL     OW12822  13.181   3.566   7.365
70328SOL    HW112823  13.169   3.639   7.425
70328SOL    HW212824  13.182   3.605   7.278
70329SOL     OW12825   1.338   4.541  12.065
70329SOL    HW112826   1.244   4.553  12.052
70329SOL    HW212827   1.370   4.628  12.089
70330SOL     OW12828   5.866   9.026  12.579
70330SOL    HW112829   5.865   8.960  12.648
70330SOL    HW212830   5.956   9.023  12.545
70331SOL     OW12831  13.257   7.401   8.829
70331SOL    HW112832  13.280   7.429   8.740
70331SOL    HW212833  13.171   7.361   8.820
70332SOL     OW12834   0.956   1.549  10.275
70332SOL    HW112835   0.948   1.625  10.333
70332SOL    HW212836   1.046   1.554  10.241
70333SOL     OW12837   3.507  10.484   4.693
70333SOL    HW112838   3.445  10.475   4.621
70333SOL    HW212839   3.459  10.453   4.770
70334SOL     OW12840  12.502   8.020   4.419
70334SOL    HW112841  12.556   7.941   4.420
70334SOL    HW212842  12.412   7.986   4.423
70335SOL     OW12843  11.611  13.744  11.367
70335SOL    HW112844  11.547  13.690  11.413
70335SOL    HW212845  11.576  13.752  11.278
70336SOL     OW12846   1.092   6.202  12.238
70336SOL    HW112847   1.063   6.133  12.297
70336SOL    HW212848   1.035   6.277  12.259
70337SOL     OW12849   4.308   1.630   3.339
70337SOL    HW112850   4.242   1.696   3.359
70337SOL    HW212851   4.355   1.666   3.263
70338SOL     OW12852   2.993   1.400   4.496
70338SOL    HW112853   2.931   1.472   4.507
70338SOL    HW212854   3.049   1.427   4.423
70339SOL     OW12855   1.405   4.362   4.149
70339SOL    HW112856   1.461   4.426   4.105
70339SOL    HW212857   1.373   4.306   4.079
70340SOL     OW12858  13.955   7.493   7.391
70340SOL    HW112859  13.911   7.523   7.311
70340SOL    HW212860  13.907   7.535   7.462
70341SOL     OW12861   5.578   5.928  10.325
70341SOL    HW112862   5.553   6.020  10.321
70341SOL    HW212863   5.577   5.907  10.419
70342SOL     OW12864   6.952  14.835   9.190
70342SOL    HW112865   7.017  14.850   9.121
70342SOL    HW212866   6.868  14.851   9.147
70343SOL     OW12867  10.443  10.561   3.218
70343SOL    HW112868  10.438  10.476   3.261
70343SOL    HW212869  10.517  10.552   3.157
70344SOL     OW12870   1.700   8.038   6.476
70344SOL    HW112871   1.619   8.081   6.448
70344SOL    HW212872   1.757   8.044   6.399
70345SOL     OW12873   6.463  13.076   6.695
70345SOL    HW112874   6.430  13.011   6.633
70345SOL    HW212875   6.550  13.045   6.719
70346SOL     OW12876   1.396   6.137  11.370
70346SOL    HW112877   1.389   6.104  11.281
70346SOL    HW212878   1.325   6.201  11.377
70347SOL     OW12879   0.886   6.909  13.986
70347SOL    HW112880   0.929   6.912  13.901
70347SOL    HW212881   0.867   6.816  14.001
70348SOL     OW12882   2.244   5.236   7.729
70348SOL    HW112883   2.293   5.310   7.766
70348SOL    HW212884   2.175   5.219   7.794
70349SOL     OW12885   1.373   8.553   1.613
70349SOL    HW112886   1.438   8.570   1.681
70349SOL    HW212887   1.293   8.531   1.661
70350SOL     OW12888   2.975   3.617   4.893
70350SOL    HW112889   2.944   3.674   4.823
70350SOL    HW212890   2.933   3.651   4.973
70351SOL     OW12891   0.528  10.689  11.173
70351SOL    HW112892   0.497  10.775  11.146
70351SOL    HW212893   0.462  10.658  11.235
70352SOL     OW12894   7.948   4.236   5.126
70352SOL    HW112895   7.918   4.289   5.200
70352SOL    HW212896   7.993   4.162   5.167
70353SOL     OW12897   3.160   9.031  14.551
70353SOL    HW112898   3.160   9.127  14.554
70353SOL    HW212899   3.072   9.008  14.523
70354SOL     OW12900   1.602   9.856   5.673
70354SOL    HW112901   1.657   9.835   5.747
70354SOL    HW212902   1.550   9.931   5.702
70355SOL     OW12903   9.675   6.472   3.440
70355SOL    HW112904   9.719   6.534   3.498
70355SOL    HW212905   9.715   6.485   3.354
70356SOL     OW12906   6.248   4.368  11.963
70356SOL    HW112907   6.154   4.369  11.976
70356SOL    HW212908   6.282   4.314  12.035
70357SOL     OW12909   1.822  11.385   3.495
70357SOL    HW112910   1.836  11.405   3.588
70357SOL    HW212911   1.864  11.300   3.481
70358SOL     OW12912  10.266  13.772  13.883
70358SOL    HW112913  10.338  13.835  13.877
70358SOL    HW212914  10.302  13.699  13.933
70359SOL     OW12915   6.592   2.238   9.534
70359SOL    HW112916   6.564   2.294   9.461
70359SOL    HW212917   6.680   2.270   9.555
70360SOL     OW12918   1.011   3.575   2.217
70360SOL    HW112919   0.999   3.669   2.224
70360SOL    HW212920   1.081   3.564   2.153
70361SOL     OW12921   0.039   7.851   1.769
70361SOL    HW112922  14.844   7.802   1.815
70361SOL    HW212923   0.056   7.927   1.825
70362SOL     OW12924   6.530   8.212  11.130
70362SOL    HW112925   6.451   8.245  11.087
70362SOL    HW212926   6.538   8.121  11.100
70363SOL     OW12927   8.614  13.139  14.705
70363SOL    HW112928   8.551  13.100  14.644
70363SOL    HW212929   8.661  13.203  14.652
70364SOL     OW12930   0.206   9.991   5.737
70364SOL    HW112931   0.294   9.953   5.740
70364SOL    HW212932   0.156   9.931   5.681
70365SOL     OW12933   4.922  12.756  14.556
70365SOL    HW112934   4.833  12.753  14.520
70365SOL    HW212935   4.939  12.849  14.568
70366SOL     OW12936  13.308   3.344   6.981
70366SOL    HW112937  13.247   3.315   6.913
70366SOL    HW212938  13.254   3.347   7.060
70367SOL     OW12939  11.495  11.441   0.834
70367SOL    HW112940  11.453  11.519   0.869
70367SOL    HW212941  11.576  11.432   0.885
70368SOL     OW12942   4.655   0.178   8.206
70368SOL    HW112943   4.643   0.259   8.255
70368SOL    HW212944   4.745   0.151   8.224
70369SOL     OW12945   6.480  14.800   9.756
70369SOL    HW112946   6.396  14.777   9.797
70369SOL    HW212947   6.490   0.020   9.771
70370SOL     OW12948   1.888  10.446   6.056
70370SOL    HW112949   1.983  10.441   6.044
70370SOL    HW212950   1.857  10.494   5.979
70371SOL     OW12951   6.552   5.336   9.230
70371SOL    HW112952   6.573   5.284   9.153
70371SOL    HW212953   6.601   5.294   9.301
70372SOL     OW12954  11.654   7.221   1.077
70372SOL    HW112955  11.743   7.257   1.077
70372SOL    HW212956  11.627   7.225   0.985
70373SOL     OW12957   5.626  11.092   7.298
70373SOL    HW112958   5.658  11.133   7.378
70373SOL    HW212959   5.703  11.047   7.262
70374SOL     OW12960   0.317   0.487   6.795
70374SOL    HW112961   0.375   0.523   6.728
70374SOL    HW212962   0.354   0.518   6.877
70375SOL     OW12963   3.911   9.644   7.064
70375SOL    HW112964   3.952   9.585   7.002
70375SOL    HW212965   3.881   9.718   7.012
70376SOL     OW12966  14.378   6.975   8.475
70376SOL    HW112967  14.337   7.045   8.426
70376SOL    HW212968  14.339   6.894   8.440
70377SOL     OW12969   0.221   1.167   7.357
70377SOL    HW112970   0.237   1.169   7.262
70377SOL    HW212971   0.151   1.103   7.368
70378SOL     OW12972  13.939  10.109   8.568
70378SOL    HW112973  13.978  10.076   8.487
70378SOL    HW212974  13.852  10.069   8.570
70379SOL     OW12975   1.062   9.359   9.883
70379SOL    HW112976   1.067   9.440   9.934
70379SOL    HW212977   0.987   9.372   9.824
70380SOL     OW12978   3.398   3.775   7.223
70380SOL    HW112979   3.325   3.714   7.233
70380SOL    HW212980   3.474   3.726   7.251
70381SOL     OW12981   4.325   9.489   2.353
70381SOL    HW112982   4.382   9.486   2.276
70381SOL    HW212983   4.246   9.535   2.323
70382SOL     OW12984  11.461   4.108   3.825
70382SOL    HW112985  11.483   4.096   3.918
70382SOL    HW212986  11.532   4.162   3.790
70383SOL     OW12987  13.715   6.204   3.379
70383SOL    HW112988  13.674   6.124   3.345
70383SOL    HW212989  13.642   6.254   3.417
70384SOL     OW12990   9.175   0.261   1.921
70384SOL    HW112991   9.210   0.177   1.951
70384SOL    HW212992   9.081   0.246   1.912
70385SOL     OW12993   5.370   9.718  11.197
70385SOL    HW112994   5.461   9.694  11.181
70385SOL    HW212995   5.342   9.762  11.117
70386SOL     OW12996  13.406  11.266   3.041
70386SOL    HW112997  13.321  11.261   2.998
70386SOL    HW212998  13.393  11.221   3.125
70387SOL     OW12999   1.487  10.907   6.433
70387SOL    HW113000   1.482  10.864   6.347
70387SOL    HW213001   1.438  10.849   6.491
70388SOL     OW13002   6.900  13.268   4.835
70388SOL    HW113003   6.869  13.336   4.894
70388SOL    HW213004   6.975  13.229   4.880
70389SOL     OW13005   6.814   0.357  13.411
70389SOL    HW113006   6.793   0.401  13.328
70389SOL    HW213007   6.826   0.265  13.387
70390SOL     OW13008   2.594   4.627   8.140
70390SOL    HW113009   2.539   4.583   8.206
70390SOL    HW213010   2.554   4.604   8.056
70391SOL     OW13011   0.714   6.804   7.787
70391SOL    HW113012   0.638   6.862   7.791
70391SOL    HW213013   0.716   6.760   7.873
70392SOL     OW13014   7.750   0.970   2.682
70392SOL    HW113015   7.791   0.917   2.613
70392SOL    HW213016   7.808   1.045   2.691
70393SOL     OW13017   7.315   1.717   0.394
70393SOL    HW113018   7.353   1.671   0.319
70393SOL    HW213019   7.279   1.798   0.357
70394SOL     OW13020  11.330   9.092   4.093
70394SOL    HW113021  11.291   9.134   4.171
70394SOL    HW213022  11.321   9.158   4.024
70395SOL     OW13023   1.434   4.967  10.907
70395SOL    HW113024   1.436   5.047  10.855
70395SOL    HW213025   1.429   4.896  10.843
70396SOL     OW13026  11.475  10.976   0.838
70396SOL    HW113027  11.447  10.891   0.872
70396SOL    HW213028  11.405  11.036   0.861
70397SOL     OW13029   7.293  12.339   4.473
70397SOL    HW113030   7.251  12.254   4.481
70397SOL    HW213031   7.269  12.386   4.553
70398SOL     OW13032  13.771   4.094   1.112
70398SOL    HW113033  13.698   4.111   1.172
70398SOL    HW213034  13.790   4.179   1.073
70399SOL     OW13035   7.026   7.203  14.774
70399SOL    HW113036   7.010   7.137  14.842
70399SOL    HW213037   7.111   7.240  14.795
70400SOL     OW13038  14.185   3.551   1.131
70400SOL    HW113039  14.218   3.498   1.058
70400SOL    HW213040  14.099   3.582   1.101
70401SOL     OW13041   2.120   5.081  13.145
70401SOL    HW113042   2.050   5.128  13.189
70401SOL    HW213043   2.169   5.149  13.099
70402SOL     OW13044   1.930   8.860   6.646
70402SOL    HW113045   2.020   8.893   6.641
70402SOL    HW213046   1.906   8.845   6.554
70403SOL     OW13047   5.217   1.461  12.145
70403SOL    HW113048   5.145   1.480  12.205
70403SOL    HW213049   5.178   1.469  12.057
70404SOL     OW13050   7.988   6.090   9.339
70404SOL    HW113051   8.029   6.004   9.332
70404SOL    HW213052   7.983   6.121   9.248
70405SOL     OW13053   1.619   3.494   8.574
70405SOL    HW113054   1.681   3.532   8.512
70405SOL    HW213055   1.534   3.503   8.530
70406SOL     OW13056   1.733   6.030  13.534
70406SOL    HW113057   1.667   5.964  13.512
70406SOL    HW213058   1.810   6.004  13.483
70407SOL     OW13059   7.663  12.424   2.532
70407SOL    HW113060   7.700  12.493   2.587
70407SOL    HW213061   7.584  12.397   2.578
70408SOL     OW13062   0.622   4.811  10.273
70408SOL    HW113063   0.642   4.798  10.180
70408SOL    HW213064   0.707   4.834  10.312
70409SOL     OW13065   9.655   2.433   0.856
70409SOL    HW113066   9.576   2.453   0.905
70409SOL    HW213067   9.679   2.344   0.883
70410SOL     OW13068   9.751   5.779   9.243
70410SOL    HW113069   9.813   5.821   9.303
70410SOL    HW213070   9.675   5.758   9.298
70411SOL     OW13071   2.747  14.631   0.823
70411SOL    HW113072   2.793  14.548   0.839
70411SOL    HW213073   2.714  14.657   0.909
70412SOL     OW13074  13.294   1.229  12.821
70412SOL    HW113075  13.350   1.305  12.814
70412SOL    HW213076  13.211   1.263  12.854
70413SOL     OW13077   3.950  11.542   7.695
70413SOL    HW113078   3.881  11.480   7.672
70413SOL    HW213079   4.001  11.497   7.763
70414SOL     OW13080  11.882   5.756  13.753
70414SOL    HW113081  11.910   5.846  13.738
70414SOL    HW213082  11.826   5.761  13.831
70415SOL     OW13083  11.964  11.522   2.615
70415SOL    HW113084  11.961  11.501   2.521
70415SOL    HW213085  12.008  11.446   2.654
70416SOL     OW13086  13.794  14.030  13.390
70416SOL    HW113087  13.866  14.092  13.400
70416SOL    HW213088  13.830  13.960  13.335
70417SOL     OW13089   4.278   0.545   3.845
70417SOL    HW113090   4.312   0.631   3.869
70417SOL    HW213091   4.204   0.564   3.788
70418SOL     OW13092  12.866  10.823   1.554
70418SOL    HW113093  12.799  10.792   1.615
70418SOL    HW213094  12.946  10.828   1.607
70419SOL     OW13095   1.530  10.980   3.996
70419SOL    HW113096   1.440  10.979   4.027
70419SOL    HW213097   1.532  10.912   3.928
70420SOL     OW13098  14.853  10.073  12.436
70420SOL    HW113099  14.763  10.041  12.431
70420SOL    HW213100   0.031  10.006  12.391
70421SOL     OW13101  12.567   6.889  10.523
70421SOL    HW113102  12.520   6.839  10.590
70421SOL    HW213103  12.659   6.864  10.535
70422SOL     OW13104   5.212   2.553  13.360
70422SOL    HW113105   5.290   2.530  13.409
70422SOL    HW213106   5.189   2.640  13.392
70423SOL     OW13107   3.514  12.816   5.491
70423SOL    HW113108   3.594  12.762   5.496
70423SOL    HW213109   3.479  12.813   5.580
70424SOL     OW13110   7.039   4.990   4.216
70424SOL    HW113111   6.975   4.920   4.232
70424SOL    HW213112   7.087   4.997   4.299
70425SOL     OW13113   0.979  13.948  10.647
70425SOL    HW113114   0.903  13.973  10.699
70425SOL    HW213115   0.968  13.854  10.631
70426SOL     OW13116  13.451   4.129   9.348
70426SOL    HW113117  13.447   4.120   9.444
70426SOL    HW213118  13.387   4.197   9.328
70427SOL     OW13119   4.831   8.225  13.904
70427SOL    HW113120   4.830   8.264  13.991
70427SOL    HW213121   4.849   8.299  13.845
70428SOL     OW13122   0.521   4.454   5.571
70428SOL    HW113123   0.498   4.524   5.510
70428SOL    HW213124   0.614   4.469   5.590
70429SOL     OW13125  14.036  14.216  13.296
70429SOL    HW113126  13.975  14.286  13.319
70429SOL    HW213127  14.080  14.247  13.217
70430SOL     OW13128  14.399   8.676  13.465
70430SOL    HW113129  14.425   8.742  13.401
70430SOL    HW213130  14.347   8.613  13.415
70431SOL     OW13131   3.237  13.263  13.114
70431SOL    HW113132   3.155  13.224  13.083
70431SOL    HW213133   3.209  13.331  13.175
70432SOL     OW13134  10.195   6.265   8.180
70432SOL    HW113135  10.229   6.181   8.150
70432SOL    HW213136  10.149   6.245   8.262
70433SOL     OW13137  13.504  11.787  14.034
70433SOL    HW113138  13.583  11.826  13.996
70433SOL    HW213139  13.522  11.693  14.033
70434SOL     OW13140  10.823   9.663   5.640
70434SOL    HW113141  10.745   9.706   5.605
70434SOL    HW213142  10.897   9.708   5.599
70435SOL     OW13143   8.737   0.237   3.466
70435SOL    HW113144   8.804   0.304   3.482
70435SOL    HW213145   8.695   0.224   3.551
70436SOL     OW13146   5.286  14.137   0.517
70436SOL    HW113147   5.332  14.075   0.573
70436SOL    HW213148   5.200  14.147   0.557
70437SOL     OW13149   9.002   8.056   1.181
70437SOL    HW113150   9.032   8.085   1.267
70437SOL    HW213151   8.936   7.989   1.199
70438SOL     OW13152   6.406  12.993   6.963
70438SOL    HW113153   6.338  12.926   6.966
70438SOL    HW213154   6.395  13.034   6.877
70439SOL     OW13155   9.111   9.237  14.064
70439SOL    HW113156   9.119   9.143  14.078
70439SOL    HW213157   9.057   9.268  14.137
70440SOL     OW13158   8.747   4.306   6.556
70440SOL    HW113159   8.827   4.357   6.563
70440SOL    HW213160   8.684   4.365   6.515
70441SOL     OW13161   9.189   6.123   7.127
70441SOL    HW113162   9.256   6.058   7.149
70441SOL    HW213163   9.189   6.183   7.202
70442SOL     OW13164   3.352   6.801  14.421
70442SOL    HW113165   3.352   6.787  14.516
70442SOL    HW213166   3.265   6.836  14.402
70443SOL     OW13167  10.174   8.624   9.640
70443SOL    HW113168  10.168   8.650   9.548
70443SOL    HW213169  10.100   8.668   9.682
70444SOL     OW13170   0.158   5.275   2.396
70444SOL    HW113171   0.084   5.260   2.455
70444SOL    HW213172   0.204   5.351   2.433
70445SOL     OW13173  12.403   8.123   8.037
70445SOL    HW113174  12.392   8.043   7.986
70445SOL    HW213175  12.476   8.168   7.995
70446SOL     OW13176   1.584   2.036   2.488
70446SOL    HW113177   1.577   2.061   2.396
70446SOL    HW213178   1.550   1.947   2.492
70447SOL     OW13179   2.262   8.644  12.181
70447SOL    HW113180   2.186   8.681  12.136
70447SOL    HW213181   2.226   8.574  12.236
70448SOL     OW13182   9.376   4.633   4.939
70448SOL    HW113183   9.375   4.682   4.857
70448SOL    HW213184   9.425   4.688   5.000
70449SOL     OW13185   7.751  11.103   2.160
70449SOL    HW113186   7.785  11.178   2.208
70449SOL    HW213187   7.739  11.035   2.227
70450SOL     OW13188  12.930  14.623  11.410
70450SOL    HW113189  12.991  14.665  11.470
70450SOL    HW213190  12.851  14.677  11.415
70451SOL     OW13191  12.057   5.584   8.902
70451SOL    HW113192  11.979   5.602   8.849
70451SOL    HW213193  12.026   5.582   8.992
70452SOL     OW13194   1.805  11.434   4.372
70452SOL    HW113195   1.786  11.526   4.354
70452SOL    HW213196   1.806  11.429   4.468
70453SOL     OW13197   8.573   1.255  13.910
70453SOL    HW113198   8.580   1.310  13.988
70453SOL    HW213199   8.562   1.317  13.837
70454SOL     OW13200   3.671   6.138  11.080
70454SOL    HW113201   3.632   6.056  11.111
70454SOL    HW213202   3.727   6.167  11.153
70455SOL     OW13203   7.436   3.639   4.315
70455SOL    HW113204   7.375   3.672   4.248
70455SOL    HW213205   7.382   3.630   4.393
70456SOL     OW13206  11.181   2.679  11.581
70456SOL    HW113207  11.157   2.662  11.490
70456SOL    HW213208  11.102   2.719  11.619
70457SOL     OW13209   6.258   9.117   9.307
70457SOL    HW113210   6.295   9.037   9.269
70457SOL    HW213211   6.164   9.102   9.309
70458SOL     OW13212   6.239  10.026   4.105
70458SOL    HW113213   6.282  10.087   4.165
70458SOL    HW213214   6.150  10.061   4.096
70459SOL     OW13215   3.782   8.137  11.259
70459SOL    HW113216   3.726   8.194  11.205
70459SOL    HW213217   3.817   8.073  11.198
70460SOL     OW13218   5.073   1.404  13.189
70460SOL    HW113219   5.024   1.486  13.198
70460SOL    HW213220   5.109   1.387  13.276
70461SOL     OW13221   8.631   9.335   8.212
70461SOL    HW113222   8.683   9.413   8.234
70461SOL    HW213223   8.540   9.362   8.228
70462SOL     OW13224  11.565   2.607   0.076
70462SOL    HW113225  11.640   2.571   0.028
70462SOL    HW213226  11.602   2.635   0.160
70463SOL     OW13227  12.974   3.988   0.508
70463SOL    HW113228  12.969   3.904   0.553
70463SOL    HW213229  13.033   3.973   0.435
70464SOL     OW13230   6.222   8.856  10.262
70464SOL    HW113231   6.251   8.947  10.267
70464SOL    HW213232   6.159   8.855  10.190
70465SOL     OW13233   0.218  13.596  11.219
70465SOL    HW113234   0.145  13.588  11.280
70465SOL    HW213235   0.178  13.631  11.139
70466SOL     OW13236   5.975   1.978   7.401
70466SOL    HW113237   5.975   1.955   7.308
70466SOL    HW213238   6.067   1.972   7.427
70467SOL     OW13239  11.245   2.219  10.845
70467SOL    HW113240  11.194   2.286  10.800
70467SOL    HW213241  11.213   2.220  10.935
70468SOL     OW13242   4.153   6.327  12.287
70468SOL    HW113243   4.203   6.325  12.368
70468SOL    HW213244   4.217   6.347  12.219
70469SOL     OW13245  10.308  14.459   5.373
70469SOL    HW113246  10.255  14.528   5.333
70469SOL    HW213247  10.389  14.459   5.322
70470SOL     OW13248  14.131  10.912   9.168
70470SOL    HW113249  14.204  10.871   9.214
70470SOL    HW213250  14.064  10.844   9.165
70471SOL     OW13251   2.209   0.876   6.618
70471SOL    HW113252   2.142   0.846   6.679
70471SOL    HW213253   2.190   0.969   6.604
70472SOL     OW13254  13.065   3.098  13.641
70472SOL    HW113255  13.006   3.173  13.641
70472SOL    HW213256  13.060   3.063  13.552
70473SOL     OW13257   4.581   2.822   0.540
70473SOL    HW113258   4.593   2.848   0.449
70473SOL    HW213259   4.654   2.861   0.587
70474SOL     OW13260   2.435   8.141   0.928
70474SOL    HW113261   2.341   8.125   0.918
70474SOL    HW213262   2.472   8.122   0.842
70475SOL     OW13263  10.083   8.502   5.182
70475SOL    HW113264  10.092   8.443   5.257
70475SOL    HW213265  10.011   8.465   5.131
70476SOL     OW13266   5.652  14.439   6.688
70476SOL    HW113267   5.723  14.487   6.731
70476SOL    HW213268   5.641  14.360   6.741
70477SOL     OW13269   3.832  12.290   5.755
70477SOL    HW113270   3.780  12.370   5.748
70477SOL    HW213271   3.829  12.267   5.848
70478SOL     OW13272   0.274   1.599   1.532
70478SOL    HW113273   0.367   1.605   1.513
70478SOL    HW213274   0.252   1.684   1.571
70479SOL     OW13275   8.055   9.464  12.989
70479SOL    HW113276   8.017   9.408  12.921
70479SOL    HW213277   8.148   9.444  12.987
70480SOL     OW13278   4.003   1.566   2.562
70480SOL    HW113279   4.009   1.572   2.466
70480SOL    HW213280   3.983   1.474   2.579
70481SOL     OW13281   7.615   3.118  12.579
70481SOL    HW113282   7.584   3.209  12.574
70481SOL    HW213283   7.632   3.094  12.488
70482SOL     OW13284  14.132   7.444   5.047
70482SOL    HW113285  14.100   7.450   5.137
70482SOL    HW213286  14.222   7.477   5.051
70483SOL     OW13287   0.171   2.696  12.908
70483SOL    HW113288   0.242   2.723  12.850
70483SOL    HW213289   0.129   2.778  12.934
70484SOL     OW13290   5.813  11.991   1.545
70484SOL    HW113291   5.773  11.939   1.475
70484SOL    HW213292   5.801  11.938   1.624
70485SOL     OW13293   8.556  11.897   9.822
70485SOL    HW113294   8.525  11.870   9.736
70485SOL    HW213295   8.475  11.910   9.873
70486SOL     OW13296  13.885   9.909   9.717
70486SOL    HW113297  13.826   9.840   9.685
70486SOL    HW213298  13.889   9.972   9.645
70487SOL     OW13299  14.595   7.336  13.389
70487SOL    HW113300  14.687   7.353  13.408
70487SOL    HW213301  14.583   7.244  13.414
70488SOL     OW13302   9.379   3.948   5.879
70488SOL    HW113303   9.299   3.995   5.854
70488SOL    HW213304   9.409   3.908   5.797
70489SOL     OW13305   7.808   8.227   7.139
70489SOL    HW113306   7.782   8.318   7.121
70489SOL    HW213307   7.827   8.191   7.052
70490SOL     OW13308   9.412   9.764  10.973
70490SOL    HW113309   9.494   9.778  10.925
70490SOL    HW213310   9.402   9.669  10.977
70491SOL     OW13311  10.783   4.492   8.320
70491SOL    HW113312  10.735   4.545   8.256
70491SOL    HW213313  10.848   4.444   8.268
70492SOL     OW13314  13.941   1.940   1.099
70492SOL    HW113315  14.029   1.900   1.100
70492SOL    HW213316  13.893   1.889   1.033
70493SOL     OW13317   6.369   0.350   5.865
70493SOL    HW113318   6.278   0.372   5.842
70493SOL    HW213319   6.420   0.423   5.830
70494SOL     OW13320  10.891   2.988   5.865
70494SOL    HW113321  10.900   2.990   5.960
70494SOL    HW213322  10.892   3.080   5.839
70495SOL     OW13323   7.645   8.326   4.620
70495SOL    HW113324   7.595   8.340   4.701
70495SOL    HW213325   7.710   8.395   4.619
70496SOL     OW13326   5.048   9.964  11.121
70496SOL    HW113327   4.962   9.961  11.162
70496SOL    HW213328   5.105  10.002  11.187
70497SOL     OW13329   0.566   4.254   3.117
70497SOL    HW113330   0.544   4.244   3.209
70497SOL    HW213331   0.601   4.169   3.091
70498SOL     OW13332   7.987   5.200   3.062
70498SOL    HW113333   8.039   5.181   2.983
70498SOL    HW213334   8.048   5.184   3.134
70499SOL     OW13335   1.904  12.675   4.787
70499SOL    HW113336   1.980  12.729   4.763
70499SOL    HW213337   1.905  12.602   4.725
70500SOL     OW13338  12.016   8.437   8.889
70500SOL    HW113339  12.010   8.457   8.796
70500SOL    HW213340  11.933   8.394   8.910
70501SOL     OW13341   5.432  13.429   0.573
70501SOL    HW113342   5.388  13.356   0.615
70501SOL    HW213343   5.423  13.502   0.635
70502SOL     OW13344   8.006  14.600   9.708
70502SOL    HW113345   7.931  14.603   9.648
70502SOL    HW213346   8.024  14.692   9.728
70503SOL     OW13347  13.956   3.991   2.080
70503SOL    HW113348  13.882   4.048   2.100
70503SOL    HW213349  13.952   3.980   1.985
70504SOL     OW13350   8.637   0.686  12.539
70504SOL    HW113351   8.571   0.740  12.584
70504SOL    HW213352   8.697   0.750  12.501
70505SOL     OW13353   9.495   7.599   3.572
70505SOL    HW113354   9.412   7.605   3.619
70505SOL    HW213355   9.527   7.689   3.569
70506SOL     OW13356  12.533  14.623   5.078
70506SOL    HW113357  12.495  14.538   5.102
70506SOL    HW213358  12.458  14.676   5.052
70507SOL     OW13359   1.569   3.346   0.401
70507SOL    HW113360   1.549   3.304   0.485
70507SOL    HW213361   1.484   3.352   0.357
70508SOL     OW13362   1.480   4.531   5.757
70508SOL    HW113363   1.416   4.464   5.732
70508SOL    HW213364   1.427   4.599   5.800
70509SOL     OW13365   6.119   8.840  12.439
70509SOL    HW113366   6.136   8.874  12.351
70509SOL    HW213367   6.112   8.745  12.427
70510SOL     OW13368   9.135   0.832   8.221
70510SOL    HW113369   9.042   0.831   8.242
70510SOL    HW213370   9.144   0.772   8.148
70511SOL     OW13371  12.108   1.916   1.058
70511SOL    HW113372  12.182   1.927   0.999
70511SOL    HW213373  12.069   2.004   1.063
70512SOL     OW13374  11.973   9.486   4.270
70512SOL    HW113375  12.022   9.460   4.192
70512SOL    HW213376  12.017   9.440   4.342
70513SOL     OW13377  11.275   4.741  13.609
70513SOL    HW113378  11.251   4.831  13.631
70513SOL    HW213379  11.369   4.745  13.591
70514SOL     OW13380   2.384  13.997   0.148
70514SOL    HW113381   2.351  13.972   0.062
70514SOL    HW213382   2.310  13.985   0.207
70515SOL     OW13383   4.894   8.002  13.783
70515SOL    HW113384   4.874   8.095  13.797
70515SOL    HW213385   4.967   7.984  13.842
70516SOL     OW13386   7.803  12.197   9.004
70516SOL    HW113387   7.783  12.114   9.049
70516SOL    HW213388   7.810  12.173   8.912
70517SOL     OW13389   6.788  11.644   7.207
70517SOL    HW113390   6.874  11.666   7.242
70517SOL    HW213391   6.772  11.707   7.137
70518SOL     OW13392   8.365   5.417   5.936
70518SOL    HW113393   8.381   5.345   5.874
70518SOL    HW213394   8.434   5.407   6.001
70519SOL     OW13395  10.911   8.719   5.040
70519SOL    HW113396  10.942   8.743   5.127
70519SOL    HW213397  10.816   8.726   5.045
70520SOL     OW13398  10.029  11.249  13.918
70520SOL    HW113399   9.981  11.244  14.001
70520SOL    HW213400  10.084  11.170  13.918
70521SOL     OW13401  12.535   0.075   8.534
70521SOL    HW113402  12.470   0.021   8.579
70521SOL    HW213403  12.522   0.162   8.570
70522SOL     OW13404   6.817   2.230  12.679
70522SOL    HW113405   6.897   2.224  12.627
70522SOL    HW213406   6.767   2.152  12.656
70523SOL     OW13407   9.330   3.605   4.723
70523SOL    HW113408   9.397   3.639   4.664
70523SOL    HW213409   9.329   3.511   4.706
70524SOL     OW13410   8.312  10.506   0.467
70524SOL    HW113411   8.374  10.559   0.517
70524SOL    HW213412   8.248  10.568   0.434
70525SOL     OW13413   1.713   2.811  11.451
70525SOL    HW113414   1.794   2.824  11.401
70525SOL    HW213415   1.649   2.869  11.409
70526SOL     OW13416  14.565  10.977  14.170
70526SOL    HW113417  14.637  11.033  14.142
70526SOL    HW213418  14.517  11.030  14.234
70527SOL     OW13419   4.023   2.444  10.660
70527SOL    HW113420   4.078   2.381  10.613
70527SOL    HW213421   4.054   2.438  10.751
70528SOL     OW13422   7.894   0.421   0.463
70528SOL    HW113423   7.835   0.389   0.531
70528SOL    HW213424   7.932   0.341   0.426
70529SOL     OW13425   8.359   9.047   9.284
70529SOL    HW113426   8.367   9.063   9.378
70529SOL    HW213427   8.396   8.959   9.273
70530SOL     OW13428  11.642   7.823   8.248
70530SOL    HW113429  11.692   7.818   8.329
70530SOL    HW213430  11.662   7.742   8.202
70531SOL     OW13431  12.944   8.400   5.632
70531SOL    HW113432  12.862   8.450   5.643
70531SOL    HW213433  13.003   8.437   5.698
70532SOL     OW13434   9.320  10.723   5.135
70532SOL    HW113435   9.248  10.674   5.174
70532SOL    HW213436   9.287  10.812   5.125
70533SOL     OW13437   9.511   8.168  14.267
70533SOL    HW113438   9.503   8.092  14.210
70533SOL    HW213439   9.499   8.243  14.209
70534SOL     OW13440  11.378   8.563   0.359
70534SOL    HW113441  11.326   8.534   0.284
70534SOL    HW213442  11.447   8.617   0.321
70535SOL     OW13443   8.154   4.359   1.969
70535SOL    HW113444   8.136   4.435   1.914
70535SOL    HW213445   8.168   4.287   1.908
70536SOL     OW13446   9.192   1.428  14.160
70536SOL    HW113447   9.229   1.422  14.248
70536SOL    HW213448   9.264   1.402  14.103
70537SOL     OW13449   6.209  14.284  10.091
70537SOL    HW113450   6.229  14.230  10.168
70537SOL    HW213451   6.292  14.287  10.042
70538SOL     OW13452   6.863   7.362   4.779
70538SOL    HW113453   6.780   7.341   4.736
70538SOL    HW213454   6.839   7.428   4.845
70539SOL     OW13455   7.441   9.062   3.743
70539SOL    HW113456   7.436   9.106   3.658
70539SOL    HW213457   7.491   9.121   3.798
70540SOL     OW13458   5.995   1.211   5.457
70540SOL    HW113459   6.029   1.196   5.545
70540SOL    HW213460   5.905   1.177   5.461
70541SOL     OW13461   8.346   3.207   0.480
70541SOL    HW113462   8.342   3.113   0.463
70541SOL    HW213463   8.384   3.244   0.400
70542SOL     OW13464   7.037  10.461   2.578
70542SOL    HW113465   6.967  10.510   2.623
70542SOL    HW213466   7.020  10.475   2.485
70543SOL     OW13467  14.656  11.571  14.574
70543SOL    HW113468  14.683  11.651  14.620
70543SOL    HW213469  14.734  11.516  14.573
70544SOL     OW13470  10.426   2.170   3.844
70544SOL    HW113471  10.415   2.083   3.806
70544SOL    HW213472  10.510   2.166   3.889
70545SOL     OW13473   2.079   4.583  10.109
70545SOL    HW113474   2.000   4.542  10.072
70545SOL    HW213475   2.072   4.567  10.203
70546SOL     OW13476  10.856  13.173   2.373
70546SOL    HW113477  10.811  13.109   2.428
70546SOL    HW213478  10.793  13.243   2.360
70547SOL     OW13479  14.239   6.325  11.264
70547SOL    HW113480  14.176   6.267  11.307
70547SOL    HW213481  14.195   6.410  11.261
70548SOL     OW13482  10.608  12.760  13.226
70548SOL    HW113483  10.665  12.760  13.303
70548SOL    HW213484  10.668  12.757  13.152
70549SOL     OW13485   5.359  12.096   5.509
70549SOL    HW113486   5.378  12.016   5.459
70549SOL    HW213487   5.392  12.077   5.597
70550SOL     OW13488  10.461   7.603   9.046
70550SOL    HW113489  10.496   7.642   9.126
70550SOL    HW213490  10.390   7.545   9.076
70551SOL     OW13491   2.321   0.239   5.989
70551SOL    HW113492   2.337   0.192   6.071
70551SOL    HW213493   2.399   0.293   5.976
70552SOL     OW13494  12.591   8.045   3.196
70552SOL    HW113495  12.612   8.060   3.288
70552SOL    HW213496  12.671   8.008   3.159
70553SOL     OW13497   5.640   3.538   9.047
70553SOL    HW113498   5.640   3.452   9.007
70553SOL    HW213499   5.729   3.570   9.037
70554SOL     OW13500   6.560  14.107   0.272
70554SOL    HW113501   6.584  14.189   0.316
70554SOL    HW213502   6.478  14.128   0.226
70555SOL     OW13503   7.806   0.108   7.493
70555SOL    HW113504   7.797   0.166   7.418
70555SOL    HW213505   7.876   0.147   7.545
70556SOL     OW13506   5.471   7.239  14.106
70556SOL    HW113507   5.523   7.173  14.151
70556SOL    HW213508   5.497   7.232  14.014
70557SOL     OW13509   4.477   0.738   9.502
70557SOL    HW113510   4.523   0.682   9.565
70557SOL    HW213511   4.398   0.765   9.547
70558SOL     OW13512  11.637  12.965   8.408
70558SOL    HW113513  11.718  12.953   8.360
70558SOL    HW213514  11.576  13.000   8.344
70559SOL     OW13515   3.380   1.011   0.557
70559SOL    HW113516   3.430   1.026   0.476
70559SOL    HW213517   3.289   1.028   0.532
70560SOL     OW13518   2.509   5.339   6.755
70560SOL    HW113519   2.435   5.360   6.813
70560SOL    HW213520   2.518   5.244   6.762
70561SOL     OW13521  13.643   6.591   0.634
70561SOL    HW113522  13.568   6.603   0.692
70561SOL    HW213523  13.713   6.641   0.675
70562SOL     OW13524   0.439   8.405   7.411
70562SOL    HW113525   0.491   8.486   7.416
70562SOL    HW213526   0.357   8.428   7.455
70563SOL     OW13527  10.078  11.161  11.410
70563SOL    HW113528  10.103  11.131  11.497
70563SOL    HW213529  10.066  11.080  11.360
70564SOL     OW13530  12.379   5.794   6.444
70564SOL    HW113531  12.405   5.850   6.371
70564SOL    HW213532  12.321   5.728   6.405
70565SOL     OW13533  14.495  12.322   4.418
70565SOL    HW113534  14.511  12.228   4.426
70565SOL    HW213535  14.484  12.337   4.324
70566SOL     OW13536  13.958  12.608   4.236
70566SOL    HW113537  13.926  12.680   4.290
70566SOL    HW213538  13.883  12.582   4.183
70567SOL     OW13539   7.658   9.768  13.068
70567SOL    HW113540   7.694   9.684  13.095
70567SOL    HW213541   7.730   9.813  13.024
70568SOL     OW13542   1.404  10.471   9.433
70568SOL    HW113543   1.359  10.446   9.352
70568SOL    HW213544   1.489  10.429   9.428
70569SOL     OW13545   7.486   7.465   6.329
70569SOL    HW113546   7.460   7.492   6.417
70569SOL    HW213547   7.487   7.370   6.332
70570SOL     OW13548  13.370  14.826  13.660
70570SOL    HW113549  13.431  14.757  13.635
70570SOL    HW213550  13.422   0.034  13.651
70571SOL     OW13551  11.884   1.220  10.043
70571SOL    HW113552  11.817   1.231  10.111
70571SOL    HW213553  11.922   1.308  10.033
70572SOL     OW13554   4.333  14.484   1.550
70572SOL    HW113555   4.409  14.428   1.533
70572SOL    HW213556   4.355  14.567   1.508
70573SOL     OW13557  13.330   6.596  10.446
70573SOL    HW113558  13.336   6.514  10.396
70573SOL    HW213559  13.265   6.648  10.398
70574SOL     OW13560   6.871   2.357  12.939
70574SOL    HW113561   6.806   2.413  12.982
70574SOL    HW213562   6.819   2.295  12.888
70575SOL     OW13563   0.386   7.502   1.282
70575SOL    HW113564   0.376   7.456   1.199
70575SOL    HW213565   0.397   7.433   1.347
70576SOL     OW13566   9.696   8.118   9.112
70576SOL    HW113567   9.664   8.107   9.201
70576SOL    HW213568   9.671   8.038   9.067
70577SOL     OW13569   8.711   9.354   7.217
70577SOL    HW113570   8.741   9.436   7.179
70577SOL    HW213571   8.792   9.304   7.232
70578SOL     OW13572  14.386  13.019   8.187
70578SOL    HW113573  14.373  12.959   8.113
70578SOL    HW213574  14.378  12.964   8.265
70579SOL     OW13575   9.325   9.086  10.473
70579SOL    HW113576   9.264   9.015  10.454
70579SOL    HW213577   9.271   9.155  10.511
70580SOL     OW13578   1.956   2.405  13.086
70580SOL    HW113579   1.925   2.407  13.177
70580SOL    HW213580   1.886   2.361  13.038
70581SOL     OW13581   3.546   0.862  11.593
70581SOL    HW113582   3.613   0.930  11.591
70581SOL    HW213583   3.544   0.829  11.503
70582SOL     OW13584   7.296   6.875   2.555
70582SOL    HW113585   7.261   6.857   2.642
70582SOL    HW213586   7.352   6.951   2.566
70583SOL     OW13587   1.493   0.678   8.491
70583SOL    HW113588   1.584   0.694   8.514
70583SOL    HW213589   1.490   0.688   8.396
70584SOL     OW13590  10.920   4.249   1.889
70584SOL    HW113591  10.941   4.339   1.914
70584SOL    HW213592  10.990   4.196   1.927
70585SOL     OW13593   5.155  13.110   9.454
70585SOL    HW113594   5.156  13.078   9.364
70585SOL    HW213595   5.119  13.199   9.448
70586SOL     OW13596   5.631   1.805  10.872
70586SOL    HW113597   5.716   1.806  10.916
70586SOL    HW213598   5.644   1.859  10.794
70587SOL     OW13599   5.310  13.165   3.206
70587SOL    HW113600   5.390  13.144   3.255
70587SOL    HW213601   5.298  13.259   3.220
70588SOL     OW13602   6.029  14.151  11.188
70588SOL    HW113603   6.027  14.244  11.213
70588SOL    HW213604   6.098  14.114  11.241
70589SOL     OW13605  12.559   0.023   6.563
70589SOL    HW113606  12.606   0.017   6.646
70589SOL    HW213607  12.529  14.806   6.546
70590SOL     OW13608   4.530  13.267  13.779
70590SOL    HW113609   4.497  13.209  13.710
70590SOL    HW213610   4.590  13.213  13.830
70591SOL     OW13611   8.747   5.904   5.090
70591SOL    HW113612   8.750   5.829   5.032
70591SOL    HW213613   8.694   5.874   5.165
70592SOL     OW13614   0.492   9.235   1.426
70592SOL    HW113615   0.566   9.189   1.466
70592SOL    HW213616   0.498   9.216   1.333
70593SOL     OW13617  12.014  12.232  13.589
70593SOL    HW113618  11.976  12.258  13.505
70593SOL    HW213619  11.949  12.172  13.626
70594SOL     OW13620   3.376   1.710   7.283
70594SOL    HW113621   3.297   1.712   7.229
70594SOL    HW213622   3.344   1.714   7.373
70595SOL     OW13623  13.754   2.954   0.574
70595SOL    HW113624  13.744   3.026   0.511
70595SOL    HW213625  13.743   2.996   0.660
70596SOL     OW13626   9.033  13.166   5.382
70596SOL    HW113627   9.090  13.091   5.367
70596SOL    HW213628   9.030  13.211   5.297
70597SOL     OW13629   7.763  12.224   3.531
70597SOL    HW113630   7.789  12.136   3.503
70597SOL    HW213631   7.842  12.277   3.516
70598SOL     OW13632   0.694  14.722   1.111
70598SOL    HW113633   0.666  14.641   1.068
70598SOL    HW213634   0.631  14.734   1.182
70599SOL     OW13635   4.459   9.080   0.866
70599SOL    HW113636   4.546   9.112   0.843
70599SOL    HW213637   4.476   9.004   0.923
70600SOL     OW13638   1.093  14.489   8.569
70600SOL    HW113639   1.189  14.496   8.570
70600SOL    HW213640   1.067  14.500   8.660
70601SOL     OW13641   7.521   5.545  12.255
70601SOL    HW113642   7.458   5.493  12.206
70601SOL    HW213643   7.568   5.482  12.309
70602SOL     OW13644  10.388   0.101   4.992
70602SOL    HW113645  10.471   0.114   4.946
70602SOL    HW213646  10.404   0.136   5.079
70603SOL     OW13647  14.097   7.553   8.363
70603SOL    HW113648  14.100   7.539   8.268
70603SOL    HW213649  14.134   7.640   8.375
70604SOL     OW13650   9.904   8.750   2.459
70604SOL    HW113651   9.920   8.844   2.450
70604SOL    HW213652   9.808   8.742   2.461
70605SOL     OW13653   4.804   1.397   4.459
70605SOL    HW113654   4.744   1.464   4.491
70605SOL    HW213655   4.873   1.446   4.414
70606SOL     OW13656   3.400   8.308   8.780
70606SOL    HW113657   3.388   8.355   8.697
70606SOL    HW213658   3.494   8.290   8.784
70607SOL     OW13659   2.745   0.180   9.081
70607SOL    HW113660   2.835   0.176   9.114
70607SOL    HW213661   2.729   0.092   9.047
70608SOL     OW13662   5.718   7.705   9.689
70608SOL    HW113663   5.754   7.723   9.776
70608SOL    HW213664   5.666   7.625   9.701
70609SOL     OW13665   8.289   5.471   0.255
70609SOL    HW113666   8.293   5.428   0.341
70609SOL    HW213667   8.238   5.411   0.201
70610SOL     OW13668   3.371   8.755   0.348
70610SOL    HW113669   3.465   8.745   0.336
70610SOL    HW213670   3.342   8.674   0.390
70611SOL     OW13671   7.316   3.182   9.289
70611SOL    HW113672   7.381   3.153   9.353
70611SOL    HW213673   7.359   3.254   9.243
70612SOL     OW13674  12.067   8.407  13.109
70612SOL    HW113675  12.027   8.461  13.178
70612SOL    HW213676  12.085   8.323  13.151
70613SOL     OW13677   1.921  13.496   9.039
70613SOL    HW113678   1.857  13.430   9.011
70613SOL    HW213679   1.998  13.478   8.985
70614SOL     OW13680  12.816  14.453   9.106
70614SOL    HW113681  12.887  14.465   9.169
70614SOL    HW213682  12.745  14.415   9.157
70615SOL     OW13683  14.716  10.855   6.908
70615SOL    HW113684  14.720  10.777   6.852
70615SOL    HW213685  14.805  10.863   6.944
70616SOL     OW13686   4.758  13.209   1.907
70616SOL    HW113687   4.832  13.254   1.947
70616SOL    HW213688   4.683  13.267   1.922
70617SOL     OW13689   9.094   0.268  10.426
70617SOL    HW113690   9.033   0.225  10.487
70617SOL    HW213691   9.118   0.349  10.471
70618SOL     OW13692  10.349   1.926   4.283
70618SOL    HW113693  10.445   1.920   4.284
70618SOL    HW213694  10.325   1.936   4.375
70619SOL     OW13695  13.330   4.435  12.244
70619SOL    HW113696  13.381   4.515  12.257
70619SOL    HW213697  13.279   4.452  12.165
70620SOL     OW13698   1.119   8.560   5.619
70620SOL    HW113699   1.170   8.578   5.540
70620SOL    HW213700   1.182   8.521   5.680
70621SOL     OW13701   1.790   0.450   7.727
70621SOL    HW113702   1.866   0.396   7.701
70621SOL    HW213703   1.817   0.492   7.808
70622SOL     OW13704   4.569   7.724   0.146
70622SOL    HW113705   4.617   7.803   0.120
70622SOL    HW213706   4.632   7.675   0.200
70623SOL     OW13707   2.875  10.782   9.716
70623SOL    HW113708   2.786  10.747   9.718
70623SOL    HW213709   2.902  10.784   9.808
70624SOL     OW13710  12.025   3.725   2.909
70624SOL    HW113711  11.971   3.658   2.951
70624SOL    HW213712  11.967   3.767   2.846
70625SOL     OW13713  14.779   8.309   3.564
70625SOL    HW113714  14.737   8.368   3.627
70625SOL    HW213715  14.756   8.221   3.595
70626SOL     OW13716   0.370  12.037   8.425
70626SOL    HW113717   0.346  12.083   8.345
70626SOL    HW213718   0.295  11.979   8.443
70627SOL     OW13719   9.802   4.542  12.121
70627SOL    HW113720   9.737   4.575  12.184
70627SOL    HW213721   9.884   4.584  12.146
70628SOL     OW13722   0.036  13.336   6.428
70628SOL    HW113723   0.033  13.258   6.373
70628SOL    HW213724   0.127  13.364   6.425
70629SOL     OW13725   7.711   7.086   2.914
70629SOL    HW113726   7.656   7.021   2.870
70629SOL    HW213727   7.717   7.159   2.852
70630SOL     OW13728   4.460   6.066   0.215
70630SOL    HW113729   4.465   5.971   0.207
70630SOL    HW213730   4.483   6.099   0.129
70631SOL     OW13731   7.282  11.930   4.474
70631SOL    HW113732   7.228  12.009   4.483
70631SOL    HW213733   7.221  11.858   4.492
70632SOL     OW13734   8.892   3.748  13.219
70632SOL    HW113735   8.948   3.788  13.285
70632SOL    HW213736   8.805   3.745  13.259
70633SOL     OW13737   1.125   1.380   0.604
70633SOL    HW113738   1.100   1.311   0.543
70633SOL    HW213739   1.151   1.333   0.684
70634SOL     OW13740   3.460  13.003   2.746
70634SOL    HW113741   3.395  12.934   2.732
70634SOL    HW213742   3.544  12.958   2.747
70635SOL     OW13743   0.507   7.016   8.835
70635SOL    HW113744   0.504   7.107   8.864
70635SOL    HW213745   0.450   7.014   8.758
70636SOL     OW13746  14.287  14.198   8.205
70636SOL    HW113747  14.343  14.244   8.143
70636SOL    HW213748  14.284  14.108   8.173
70637SOL     OW13749  12.601   5.207  12.480
70637SOL    HW113750  12.560   5.275  12.426
70637SOL    HW213751  12.530   5.174  12.535
70638SOL     OW13752   1.144  13.223  14.508
70638SOL    HW113753   1.087  13.173  14.567
70638SOL    HW213754   1.145  13.172  14.427
70639SOL     OW13755  11.651   0.797  14.743
70639SOL    HW113756  11.730   0.828  14.698
70639SOL    HW213757  11.616   0.728  14.687
70640SOL     OW13758   8.518   6.452   8.883
70640SOL    HW113759   8.600   6.482   8.842
70640SOL    HW213760   8.507   6.508   8.959
70641SOL     OW13761   5.147   7.380   7.986
70641SOL    HW113762   5.148   7.456   8.043
70641SOL    HW213763   5.226   7.388   7.933
70642SOL     OW13764   5.003  11.986   2.737
70642SOL    HW113765   5.060  12.003   2.812
70642SOL    HW213766   4.915  11.988   2.772
70643SOL     OW13767   9.773   6.915   3.097
70643SOL    HW113768   9.762   6.974   3.171
70643SOL    HW213769   9.684   6.896   3.068
70644SOL     OW13770   9.556   3.159   4.047
70644SOL    HW113771   9.498   3.228   4.014
70644SOL    HW213772   9.642   3.182   4.012
70645SOL     OW13773  14.019   0.377  10.304
70645SOL    HW113774  14.083   0.440  10.270
70645SOL    HW213775  14.070   0.321  10.363
70646SOL     OW13776   2.157   9.803   5.331
70646SOL    HW113777   2.211   9.794   5.409
70646SOL    HW213778   2.162   9.895   5.308
70647SOL     OW13779  13.296   8.993   5.679
70647SOL    HW113780  13.206   9.017   5.654
70647SOL    HW213781  13.340   9.076   5.693
70648SOL     OW13782   0.168  10.983  11.935
70648SOL    HW113783   0.139  10.892  11.937
70648SOL    HW213784   0.251  10.983  11.983
70649SOL     OW13785   3.924   9.142  13.089
70649SOL    HW113786   3.960   9.054  13.102
70649SOL    HW213787   3.953   9.191  13.166
70650SOL     OW13788   5.338  11.900   5.714
70650SOL    HW113789   5.303  11.893   5.803
70650SOL    HW213790   5.262  11.921   5.660
70651SOL     OW13791  11.531   6.931  14.002
70651SOL    HW113792  11.595   7.001  13.990
70651SOL    HW213793  11.447   6.970  13.978
70652SOL     OW13794   2.310  11.234  10.154
70652SOL    HW113795   2.289  11.175  10.081
70652SOL    HW213796   2.384  11.192  10.198
70653SOL     OW13797  10.103   8.350   9.330
70653SOL    HW113798  10.174   8.402   9.367
70653SOL    HW213799  10.031   8.412   9.320
70654SOL     OW13800  13.343   2.565  11.351
70654SOL    HW113801  13.429   2.554  11.310
70654SOL    HW213802  13.319   2.656  11.330
70655SOL     OW13803  12.544   6.452  11.424
70655SOL    HW113804  12.615   6.397  11.458
70655SOL    HW213805  12.565   6.463  11.332
70656SOL     OW13806  10.822   3.720   6.384
70656SOL    HW113807  10.811   3.813   6.361
70656SOL    HW213808  10.733   3.689   6.401
70657SOL     OW13809   6.255   8.502  11.621
70657SOL    HW113810   6.224   8.580  11.576
70657SOL    HW213811   6.306   8.454  11.556
70658SOL     OW13812   4.461   5.073  12.742
70658SOL    HW113813   4.453   5.039  12.831
70658SOL    HW213814   4.435   5.165  12.749
70659SOL     OW13815   7.882   1.029   9.100
70659SOL    HW113816   7.930   1.043   9.182
70659SOL    HW213817   7.820   0.959   9.121
70660SOL     OW13818   6.179   2.670  10.228
70660SOL    HW113819   6.226   2.615  10.165
70660SOL    HW213820   6.172   2.755  10.185
70661SOL     OW13821   9.381   0.394   1.171
70661SOL    HW113822   9.421   0.312   1.141
70661SOL    HW213823   9.449   0.437   1.222
70662SOL     OW13824  11.530   6.509   7.056
70662SOL    HW113825  11.445   6.486   7.019
70662SOL    HW213826  11.593   6.460   7.003
70663SOL     OW13827  12.130  10.919   6.664
70663SOL    HW113828  12.138  11.015   6.665
70663SOL    HW213829  12.137  10.893   6.756
70664SOL     OW13830  14.800  12.329   7.588
70664SOL    HW113831  14.827  12.409   7.543
70664SOL    HW213832  14.805  12.352   7.681
70665SOL     OW13833   4.571   9.520   4.071
70665SOL    HW113834   4.653   9.489   4.110
70665SOL    HW213835   4.528   9.569   4.142
70666SOL     OW13836  11.049   9.425   9.059
70666SOL    HW113837  11.050   9.366   9.134
70666SOL    HW213838  10.980   9.391   9.002
70667SOL     OW13839  12.712  13.929  11.668
70667SOL    HW113840  12.720  13.867  11.740
70667SOL    HW213841  12.619  13.930  11.647
70668SOL     OW13842   8.836  14.238  13.511
70668SOL    HW113843   8.747  14.204  13.524
70668SOL    HW213844   8.856  14.218  13.420
70669SOL     OW13845   8.466   1.843  10.263
70669SOL    HW113846   8.515   1.816  10.340
70669SOL    HW213847   8.532   1.852  10.194
70670SOL     OW13848  12.093   0.271   0.251
70670SOL    HW113849  12.168   0.215   0.273
70670SOL    HW213850  12.133   0.356   0.231
70671SOL     OW13851  10.193   3.020   6.460
70671SOL    HW113852  10.277   3.064   6.446
70671SOL    HW213853  10.193   2.947   6.398
70672SOL     OW13854   7.113   3.950  14.284
70672SOL    HW113855   7.122   4.044  14.271
70672SOL    HW213856   7.018   3.937  14.293
70673SOL     OW13857   2.322   5.283   1.985
70673SOL    HW113858   2.389   5.347   1.964
70673SOL    HW213859   2.323   5.222   1.911
70674SOL     OW13860   9.540   1.163   7.584
70674SOL    HW113861   9.504   1.233   7.530
70674SOL    HW213862   9.588   1.209   7.653
70675SOL     OW13863   9.751   0.230  13.640
70675SOL    HW113864   9.717   0.243  13.729
70675SOL    HW213865   9.687   0.172  13.598
70676SOL     OW13866  10.602  13.843   9.621
70676SOL    HW113867  10.634  13.845   9.712
70676SOL    HW213868  10.569  13.932   9.606
70677SOL     OW13869   9.074   7.193  11.371
70677SOL    HW113870   9.005   7.185  11.436
70677SOL    HW213871   9.117   7.107  11.369
70678SOL     OW13872  12.463  10.499  10.419
70678SOL    HW113873  12.516  10.426  10.387
70678SOL    HW213874  12.373  10.475  10.397
70679SOL     OW13875   9.469  14.405   6.385
70679SOL    HW113876   9.398  14.449   6.432
70679SOL    HW213877   9.512  14.351   6.451
70680SOL     OW13878  14.042   9.230   1.440
70680SOL    HW113879  14.034   9.234   1.345
70680SOL    HW213880  13.993   9.307   1.471
70681SOL     OW13881  11.389   1.847   2.591
70681SOL    HW113882  11.305   1.893   2.598
70681SOL    HW213883  11.401   1.806   2.677
70682SOL     OW13884   3.060   0.185  11.427
70682SOL    HW113885   3.007   0.250  11.473
70682SOL    HW213886   3.053   0.106  11.480
70683SOL     OW13887   4.521  12.649   1.739
70683SOL    HW113888   4.540  12.730   1.693
70683SOL    HW213889   4.605  12.604   1.743
70684SOL     OW13890   6.573   4.806  14.491
70684SOL    HW113891   6.613   4.760  14.418
70684SOL    HW213892   6.557   4.737  14.556
70685SOL     OW13893   4.080  10.568   6.898
70685SOL    HW113894   4.136  10.644   6.884
70685SOL    HW213895   4.021  10.594   6.969
70686SOL     OW13896  11.446  14.703   0.512
70686SOL    HW113897  11.539  14.698   0.489
70686SOL    HW213898  11.414  14.614   0.500
70687SOL     OW13899   9.429   9.585   2.292
70687SOL    HW113900   9.368   9.583   2.218
70687SOL    HW213901   9.480   9.505   2.283
70688SOL     OW13902   6.400   0.110   5.742
70688SOL    HW113903   6.388   0.195   5.785
70688SOL    HW213904   6.441   0.055   5.809
70689SOL     OW13905   4.233   7.329   3.115
70689SOL    HW113906   4.302   7.392   3.094
70689SOL    HW213907   4.166   7.343   3.048
70690SOL     OW13908  12.058   8.178  13.240
70690SOL    HW113909  12.059   8.192  13.334
70690SOL    HW213910  12.027   8.087  13.229
70691SOL     OW13911  10.342   7.800   0.160
70691SOL    HW113912  10.412   7.746   0.124
70691SOL    HW213913  10.327   7.764   0.248
70692SOL     OW13914   8.533   3.959   2.660
70692SOL    HW113915   8.555   3.941   2.569
70692SOL    HW213916   8.439   3.979   2.658
70693SOL     OW13917   9.263   1.535   8.510
70693SOL    HW113918   9.345   1.556   8.556
70693SOL    HW213919   9.260   1.439   8.509
70694SOL     OW13920  12.667   6.935   1.756
70694SOL    HW113921  12.757   6.921   1.726
70694SOL    HW213922  12.613   6.888   1.692
70695SOL     OW13923   4.750   3.824   6.851
70695SOL    HW113924   4.844   3.840   6.851
70695SOL    HW213925   4.732   3.782   6.935
70696SOL     OW13926  12.654   9.365   5.633
70696SOL    HW113927  12.630   9.277   5.604
70696SOL    HW213928  12.594   9.423   5.585
70697SOL     OW13929   7.308  11.429   1.992
70697SOL    HW113930   7.341  11.409   2.079
70697SOL    HW213931   7.297  11.524   1.991
70698SOL     OW13932   6.507   3.514   1.173
70698SOL    HW113933   6.444   3.572   1.216
70698SOL    HW213934   6.455   3.467   1.108
70699SOL     OW13935  11.223  10.190   1.135
70699SOL    HW113936  11.185  10.103   1.139
70699SOL    HW213937  11.217  10.223   1.225
70700SOL     OW13938   7.702   6.099   9.387
70700SOL    HW113939   7.797   6.105   9.376
70700SOL    HW213940   7.677   6.181   9.430
70701SOL     OW13941  12.716   1.894  10.798
70701SOL    HW113942  12.667   1.960  10.749
70701SOL    HW213943  12.784   1.943  10.843
70702SOL     OW13944  13.696   2.110   2.333
70702SOL    HW113945  13.734   2.198   2.335
70702SOL    HW213946  13.701   2.084   2.241
70703SOL     OW13947   7.412   6.788  11.326
70703SOL    HW113948   7.390   6.700  11.357
70703SOL    HW213949   7.458   6.828  11.400
70704SOL     OW13950   3.967   0.206   4.147
70704SOL    HW113951   4.025   0.202   4.224
70704SOL    HW213952   4.025   0.199   4.072
70705SOL     OW13953  14.757  14.071  12.177
70705SOL    HW113954  14.735  14.073  12.271
70705SOL    HW213955  14.699  14.136  12.138
70706SOL     OW13956   3.919   8.246   9.987
70706SOL    HW113957   3.994   8.187   9.989
70706SOL    HW213958   3.942   8.316  10.048
70707SOL     OW13959   6.736   6.576  10.026
70707SOL    HW113960   6.705   6.665  10.009
70707SOL    HW213961   6.667   6.537  10.079
70708SOL     OW13962   2.277   0.957   3.751
70708SOL    HW113963   2.302   1.013   3.678
70708SOL    HW213964   2.184   0.976   3.766
70709SOL     OW13965  14.465   0.669   1.410
70709SOL    HW113966  14.466   0.574   1.405
70709SOL    HW213967  14.374   0.692   1.425
70710SOL     OW13968   8.749  12.508   4.727
70710SOL    HW113969   8.798  12.498   4.645
70710SOL    HW213970   8.708  12.595   4.719
70711SOL     OW13971  13.816   3.641   8.654
70711SOL    HW113972  13.725   3.662   8.673
70711SOL    HW213973  13.843   3.706   8.590
70712SOL     OW13974   8.027   7.648   2.678
70712SOL    HW113975   8.024   7.648   2.583
70712SOL    HW213976   7.970   7.720   2.704
70713SOL     OW13977   4.345   6.955   1.305
70713SOL    HW113978   4.402   6.903   1.247
70713SOL    HW213979   4.331   6.899   1.381
70714SOL     OW13980  11.824   8.286   2.362
70714SOL    HW113981  11.750   8.337   2.395
70714SOL    HW213982  11.892   8.350   2.344
70715SOL     OW13983   2.076  13.883   4.115
70715SOL    HW113984   2.083  13.978   4.114
70715SOL    HW213985   2.035  13.861   4.032
70716SOL     OW13986   4.686  12.826   3.410
70716SOL    HW113987   4.620  12.770   3.368
70716SOL    HW213988   4.646  12.913   3.411
70717SOL     OW13989   1.628  12.947   8.635
70717SOL    HW113990   1.578  12.873   8.603
70717SOL    HW213991   1.616  13.015   8.569
70718SOL     OW13992  12.139   5.248   2.304
70718SOL    HW113993  12.149   5.325   2.248
70718SOL    HW213994  12.185   5.178   2.258
70719SOL     OW13995   9.845  13.146   7.762
70719SOL    HW113996   9.850  13.148   7.858
70719SOL    HW213997   9.936  13.138   7.733
70720SOL     OW13998  13.856   4.914  14.140
70720SOL    HW113999  13.859   4.855  14.216
70720SOL    HW214000  13.879   4.858  14.066
70721SOL     OW14001  12.215   1.737   4.039
70721SOL    HW114002  12.301   1.761   4.006
70721SOL    HW214003  12.181   1.674   3.976
70722SOL     OW14004   4.028   5.978   0.335
70722SOL    HW114005   3.996   5.938   0.254
70722SOL    HW214006   3.997   5.919   0.404
70723SOL     OW14007   1.914   5.593   6.231
70723SOL    HW114008   1.898   5.685   6.250
70723SOL    HW214009   1.977   5.593   6.159
70724SOL     OW14010   2.583  11.475   3.943
70724SOL    HW114011   2.625  11.426   3.872
70724SOL    HW214012   2.577  11.414   4.015
70725SOL     OW14013  13.555   6.125   2.416
70725SOL    HW114014  13.502   6.122   2.337
70725SOL    HW214015  13.645   6.130   2.385
70726SOL     OW14016  13.935   8.151   8.032
70726SOL    HW114017  13.966   8.089   7.966
70726SOL    HW214018  14.001   8.219   8.034
70727SOL     OW14019   9.711   0.406   3.874
70727SOL    HW114020   9.755   0.470   3.930
70727SOL    HW214021   9.782   0.349   3.842
70728SOL     OW14022   6.592  14.731  13.958
70728SOL    HW114023   6.572  14.664  14.024
70728SOL    HW214024   6.625  14.681  13.883
70729SOL     OW14025  12.181   7.945  13.500
70729SOL    HW114026  12.230   8.024  13.476
70729SOL    HW214027  12.244   7.889  13.544
70730SOL     OW14028  12.434   7.777   4.124
70730SOL    HW114029  12.345   7.808   4.145
70730SOL    HW214030  12.425   7.683   4.113
70731SOL     OW14031   7.638   4.323   5.798
70731SOL    HW114032   7.603   4.267   5.868
70731SOL    HW214033   7.717   4.362   5.836
70732SOL     OW14034  10.838   5.902   8.056
70732SOL    HW114035  10.910   5.957   8.024
70732SOL    HW214036  10.794   5.955   8.121
70733SOL     OW14037   3.212   9.519   0.893
70733SOL    HW114038   3.261   9.585   0.942
70733SOL    HW214039   3.127   9.515   0.937
70734SOL     OW14040  14.607   3.898   6.171
70734SOL    HW114041  14.580   3.989   6.184
70734SOL    HW214042  14.593   3.857   6.257
70735SOL     OW14043  12.202   4.095   4.501
70735SOL    HW114044  12.140   4.063   4.436
70735SOL    HW214045  12.226   4.018   4.552
70736SOL     OW14046   5.529   1.734   7.656
70736SOL    HW114047   5.603   1.689   7.615
70736SOL    HW214048   5.568   1.813   7.693
70737SOL     OW14049   9.310   9.700   1.198
70737SOL    HW114050   9.281   9.622   1.244
70737SOL    HW214051   9.278   9.689   1.108
70738SOL     OW14052   3.566  14.660   1.778
70738SOL    HW114053   3.520  14.593   1.828
70738SOL    HW214054   3.639  14.685   1.835
70739SOL     OW14055  13.412   9.499   5.092
70739SOL    HW114056  13.337   9.456   5.051
70739SOL    HW214057  13.418   9.459   5.178
70740SOL     OW14058   8.955   1.650   8.852
70740SOL    HW114059   9.000   1.674   8.933
70740SOL    HW214060   9.010   1.688   8.783
70741SOL     OW14061  14.246  13.857   5.528
70741SOL    HW114062  14.185  13.836   5.599
70741SOL    HW214063  14.329  13.816   5.554
70742SOL     OW14064   9.221   5.726  14.101
70742SOL    HW114065   9.276   5.801  14.124
70742SOL    HW214066   9.132   5.756  14.121
70743SOL     OW14067  11.196   0.462   5.230
70743SOL    HW114068  11.265   0.501   5.177
70743SOL    HW214069  11.242   0.423   5.304
70744SOL     OW14070  13.588   8.888   9.401
70744SOL    HW114071  13.502   8.907   9.437
70744SOL    HW214072  13.614   8.969   9.356
70745SOL     OW14073   2.349   0.324   7.991
70745SOL    HW114074   2.410   0.363   7.927
70745SOL    HW214075   2.379   0.234   8.001
70746SOL     OW14076   9.267  10.040   7.640
70746SOL    HW114077   9.343  10.090   7.609
70746SOL    HW214078   9.191  10.086   7.605
70747SOL     OW14079   2.800   8.915  13.036
70747SOL    HW114080   2.833   8.972  13.106
70747SOL    HW214081   2.759   8.974  12.973
70748SOL     OW14082   5.947   9.199   6.870
70748SOL    HW114083   5.931   9.121   6.922
70748SOL    HW214084   6.008   9.171   6.802
70749SOL     OW14085   4.487  11.438  10.563
70749SOL    HW114086   4.407  11.487  10.580
70749SOL    HW214087   4.477  11.358  10.614
70750SOL     OW14088   7.406  11.225  14.455
70750SOL    HW114089   7.501  11.237  14.442
70750SOL    HW214090   7.383  11.154  14.396
70751SOL     OW14091   0.461   6.643   8.112
70751SOL    HW114092   0.428   6.600   8.191
70751SOL    HW214093   0.431   6.734   8.120
70752SOL     OW14094   4.585   2.362   7.666
70752SOL    HW114095   4.680   2.354   7.672
70752SOL    HW214096   4.563   2.327   7.580
70753SOL     OW14097   5.058  12.640   6.092
70753SOL    HW114098   5.038  12.595   6.010
70753SOL    HW214099   5.152  12.630   6.102
70754SOL     OW14100   3.580   8.126   8.612
70754SOL    HW114101   3.563   8.032   8.615
70754SOL    HW214102   3.646   8.141   8.679
70755SOL     OW14103   5.156   0.747   3.770
70755SOL    HW114104   5.172   0.761   3.677
70755SOL    HW214105   5.076   0.796   3.788
70756SOL     OW14106   4.759  14.824   2.764
70756SOL    HW114107   4.743  14.730   2.754
70756SOL    HW214108   4.738  14.861   2.678
70757SOL     OW14109   3.919  12.389   9.080
70757SOL    HW114110   3.898  12.458   9.143
70757SOL    HW214111   3.898  12.308   9.125
70758SOL     OW14112   5.372   7.843   2.489
70758SOL    HW114113   5.434   7.845   2.562
70758SOL    HW214114   5.302   7.785   2.519
70759SOL     OW14115   2.347   8.843   2.313
70759SOL    HW114116   2.294   8.764   2.311
70759SOL    HW214117   2.336   8.882   2.226
70760SOL     OW14118   1.923   9.390  12.255
70760SOL    HW114119   1.828   9.382  12.269
70760SOL    HW214120   1.947   9.312  12.206
70761SOL     OW14121  12.273  14.845  13.956
70761SOL    HW114122  12.246   0.002  13.869
70761SOL    HW214123  12.331   0.041  13.988
70762SOL     OW14124   2.872   4.192   7.601
70762SOL    HW114125   2.959   4.225   7.579
70762SOL    HW214126   2.880   4.097   7.592
70763SOL     OW14127  11.548   1.052  13.354
70763SOL    HW114128  11.616   1.017  13.412
70763SOL    HW214129  11.590   1.125  13.309
70764SOL     OW14130  14.697  12.876   8.962
70764SOL    HW114131  14.757  12.838   9.027
70764SOL    HW214132  14.715  12.826   8.882
70765SOL     OW14133   1.075   3.080   3.361
70765SOL    HW114134   0.991   3.110   3.396
70765SOL    HW214135   1.129   3.063   3.437
70766SOL     OW14136   0.966   8.256  13.897
70766SOL    HW114137   0.870   8.260  13.904
70766SOL    HW214138   0.997   8.276  13.985
70767SOL     OW14139  12.357   9.820  11.116
70767SOL    HW114140  12.365   9.820  11.212
70767SOL    HW214141  12.445   9.795  11.086
70768SOL     OW14142   6.721  10.439   6.247
70768SOL    HW114143   6.715  10.454   6.342
70768SOL    HW214144   6.647  10.382   6.228
70769SOL     OW14145  10.537   1.317   7.863
70769SOL    HW114146  10.476   1.278   7.800
70769SOL    HW214147  10.556   1.246   7.925
70770SOL     OW14148  11.080   9.365  14.343
70770SOL    HW114149  10.987   9.384  14.337
70770SOL    HW214150  11.104   9.390  14.433
70771SOL     OW14151   7.997   2.062  11.432
70771SOL    HW114152   8.059   2.005  11.387
70771SOL    HW214153   7.926   2.075  11.369
70772SOL     OW14154  12.127   8.476  10.157
70772SOL    HW114155  12.108   8.564  10.188
70772SOL    HW214156  12.165   8.488  10.070
70773SOL     OW14157   5.052  13.448   9.225
70773SOL    HW114158   4.976  13.483   9.271
70773SOL    HW214159   5.038  13.353   9.225
70774SOL     OW14160  10.677   0.184  11.580
70774SOL    HW114161  10.692   0.157  11.670
70774SOL    HW214162  10.662   0.279  11.585
70775SOL     OW14163  10.965   6.593  11.368
70775SOL    HW114164  10.895   6.655  11.346
70775SOL    HW214165  11.028   6.604  11.297
70776SOL     OW14166  10.502  10.798  11.003
70776SOL    HW114167  10.472  10.721  10.954
70776SOL    HW214168  10.598  10.791  11.001
70777SOL     OW14169   0.913   0.429  11.779
70777SOL    HW114170   0.856   0.492  11.823
70777SOL    HW214171   0.972   0.398  11.847
70778SOL     OW14172   3.000   8.099  11.437
70778SOL    HW114173   2.964   8.132  11.519
70778SOL    HW214174   3.093   8.088  11.454
70779SOL     OW14175  11.791  13.458  14.297
70779SOL    HW114176  11.702  13.457  14.262
70779SOL    HW214177  11.809  13.368  14.322
70780SOL     OW14178   0.504   9.670   6.792
70780SOL    HW114179   0.534   9.690   6.880
70780SOL    HW214180   0.508   9.575   6.786
70781SOL     OW14181   1.689   1.072   0.443
70781SOL    HW114182   1.705   1.163   0.419
70781SOL    HW214183   1.644   1.077   0.528
70782SOL     OW14184   4.856   7.440   5.721
70782SOL    HW114185   4.862   7.410   5.630
70782SOL    HW214186   4.926   7.393   5.766
70783SOL     OW14187   2.451  13.674  10.793
70783SOL    HW114188   2.412  13.646  10.876
70783SOL    HW214189   2.377  13.678  10.732
70784SOL     OW14190   2.920  13.434   7.883
70784SOL    HW114191   2.826  13.417   7.890
70784SOL    HW214192   2.927  13.504   7.819
70785SOL     OW14193  14.354   5.896   1.915
70785SOL    HW114194  14.431   5.881   1.969
70785SOL    HW214195  14.291   5.937   1.975
70786SOL     OW14196   0.327   9.266   3.283
70786SOL    HW114197   0.369   9.188   3.247
70786SOL    HW214198   0.381   9.288   3.360
70787SOL     OW14199  14.248   7.426  10.176
70787SOL    HW114200  14.187   7.365  10.217
70787SOL    HW214201  14.325   7.426  10.233
70788SOL     OW14202   2.718   2.432   5.674
70788SOL    HW114203   2.768   2.378   5.735
70788SOL    HW214204   2.756   2.412   5.589
70789SOL     OW14205   7.387  12.463   7.027
70789SOL    HW114206   7.376  12.419   6.943
70789SOL    HW214207   7.307  12.515   7.038
70790SOL     OW14208   0.713  10.785   0.727
70790SOL    HW114209   0.678  10.696   0.734
70790SOL    HW214210   0.636  10.841   0.732
70791SOL     OW14211   4.597   0.617   7.419
70791SOL    HW114212   4.552   0.701   7.429
70791SOL    HW214213   4.552   0.575   7.345
70792SOL     OW14214  11.877   4.867   9.896
70792SOL    HW114215  11.805   4.803   9.890
70792SOL    HW214216  11.925   4.857   9.814
70793SOL     OW14217   3.280   5.624   2.601
70793SOL    HW114218   3.245   5.693   2.545
70793SOL    HW214219   3.368   5.607   2.565
70794SOL     OW14220  13.770   6.411  13.611
70794SOL    HW114221  13.754   6.317  13.602
70794SOL    HW214222  13.687   6.452  13.589
70795SOL     OW14223  12.340   2.832   5.898
70795SOL    HW114224  12.268   2.781   5.935
70795SOL    HW214225  12.310   2.922   5.902
70796SOL     OW14226  12.711  11.474   3.477
70796SOL    HW114227  12.756  11.410   3.532
70796SOL    HW214228  12.685  11.544   3.537
70797SOL     OW14229  13.041  14.163   5.867
70797SOL    HW114230  13.010  14.249   5.895
70797SOL    HW214231  12.971  14.129   5.812
70798SOL     OW14232   4.514  12.801   5.040
70798SOL    HW114233   4.527  12.828   4.949
70798SOL    HW214234   4.525  12.881   5.091
70799SOL     OW14235   2.565  11.157   7.133
70799SOL    HW114236   2.494  11.094   7.133
70799SOL    HW214237   2.540  11.222   7.068
70800SOL     OW14238   7.091   0.198   9.623
70800SOL    HW114239   7.089   0.103   9.631
70800SOL    HW214240   7.012   0.227   9.670
70801SOL     OW14241  13.700  13.092   9.490
70801SOL    HW114242  13.703  13.079   9.585
70801SOL    HW214243  13.730  13.182   9.477
70802SOL     OW14244   6.900  12.090   2.609
70802SOL    HW114245   6.879  12.183   2.615
70802SOL    HW214246   6.835  12.047   2.665
70803SOL     OW14247   7.892   3.402  11.445
70803SOL    HW114248   7.803   3.433  11.458
70803SOL    HW214249   7.896   3.320  11.495
70804SOL     OW14250  12.568  14.547  10.590
70804SOL    HW114251  12.602  14.566  10.678
70804SOL    HW214252  12.481  14.587  10.589
70805SOL     OW14253  14.408   5.800   4.868
70805SOL    HW114254  14.405   5.723   4.811
70805SOL    HW214255  14.356   5.866   4.822
70806SOL     OW14256   2.742   8.809  11.996
70806SOL    HW114257   2.754   8.717  11.974
70806SOL    HW214258   2.724   8.852  11.912
70807SOL     OW14259  12.840   7.939   3.445
70807SOL    HW114260  12.770   8.004   3.435
70807SOL    HW214261  12.862   7.943   3.538
70808SOL     OW14262  10.259   8.025  14.824
70808SOL    HW114263  10.313   8.066  14.756
70808SOL    HW214264  10.315   7.958  14.862
70809SOL     OW14265   4.712   0.462   7.594
70809SOL    HW114266   4.668   0.534   7.550
70809SOL    HW214267   4.805   0.473   7.572
70810SOL     OW14268   6.745  10.833  10.483
70810SOL    HW114269   6.795  10.830  10.402
70810SOL    HW214270   6.800  10.788  10.547
70811SOL     OW14271   2.691   2.821   0.990
70811SOL    HW114272   2.776   2.778   0.982
70811SOL    HW214273   2.686   2.881   0.916
70812SOL     OW14274  11.946   2.971   2.215
70812SOL    HW114275  11.966   2.894   2.268
70812SOL    HW214276  11.852   2.987   2.231
70813SOL     OW14277  14.059  10.752   7.740
70813SOL    HW114278  14.114  10.706   7.804
70813SOL    HW214279  14.105  10.835   7.724
70814SOL     OW14280  14.642  13.471   2.858
70814SOL    HW114281  14.605  13.393   2.819
70814SOL    HW214282  14.669  13.525   2.784
70815SOL     OW14283  10.238   7.422   4.771
70815SOL    HW114284  10.192   7.380   4.699
70815SOL    HW214285  10.254   7.352   4.834
70816SOL     OW14286  10.040   1.125   0.640
70816SOL    HW114287   9.977   1.123   0.713
70816SOL    HW214288  10.049   1.218   0.618
70817SOL     OW14289   5.097   2.371  11.179
70817SOL    HW114290   5.127   2.402  11.093
70817SOL    HW214291   5.177   2.341  11.222
70818SOL     OW14292   8.857  10.280  10.811
70818SOL    HW114293   8.780  10.274  10.755
70818SOL    HW214294   8.894  10.366  10.792
70819SOL     OW14295   1.564  14.758   3.434
70819SOL    HW114296   1.488  14.789   3.484
70819SOL    HW214297   1.634  14.819   3.457
70820SOL     OW14298  14.365   1.080  13.228
70820SOL    HW114299  14.270   1.085  13.235
70820SOL    HW214300  14.396   1.069  13.318
70821SOL     OW14301   2.398   9.221  14.049
70821SOL    HW114302   2.305   9.240  14.061
70821SOL    HW214303   2.441   9.306  14.058
70822SOL     OW14304   1.081  11.969   1.632
70822SOL    HW114305   1.005  11.967   1.575
70822SOL    HW214306   1.063  11.902   1.699
70823SOL     OW14307   4.072   6.896   5.077
70823SOL    HW114308   4.126   6.817   5.087
70823SOL    HW214309   3.991   6.874   5.123
70824SOL     OW14310  12.819  14.390   5.691
70824SOL    HW114311  12.914  14.389   5.682
70824SOL    HW214312  12.788  14.325   5.628
70825SOL     OW14313   4.180   2.367   8.997
70825SOL    HW114314   4.209   2.283   9.034
70825SOL    HW214315   4.085   2.366   9.009
70826SOL     OW14316   6.761   4.388   0.496
70826SOL    HW114317   6.679   4.396   0.545
70826SOL    HW214318   6.829   4.409   0.560
70827SOL     OW14319   2.193  12.450   9.732
70827SOL    HW114320   2.277  12.488   9.756
70827SOL    HW214321   2.134  12.473   9.804
70828SOL     OW14322   5.740   8.315  10.889
70828SOL    HW114323   5.777   8.403  10.891
70828SOL    HW214324   5.745   8.285  10.980
70829SOL     OW14325   7.001  11.293   1.559
70829SOL    HW114326   6.926  11.296   1.619
70829SOL    HW214327   7.076  11.319   1.612
70830SOL     OW14328  14.021  14.747   1.067
70830SOL    HW114329  14.034  14.684   0.996
70830SOL    HW214330  13.926  14.761   1.069
70831SOL     OW14331   1.865  12.533   8.445
70831SOL    HW114332   1.931  12.478   8.488
70831SOL    HW214333   1.905  12.620   8.443
70832SOL     OW14334   5.750   2.979  10.798
70832SOL    HW114335   5.802   2.924  10.740
70832SOL    HW214336   5.814   3.031  10.846
70833SOL     OW14337   7.079  10.921  14.365
70833SOL    HW114338   7.031  11.000  14.339
70833SOL    HW214339   7.090  10.930  14.460
70834SOL     OW14340   4.791  12.927   9.377
70834SOL    HW114341   4.751  12.908   9.462
70834SOL    HW214342   4.730  12.892   9.313
70835SOL     OW14343   8.650   6.701   6.301
70835SOL    HW114344   8.641   6.795   6.318
70835SOL    HW214345   8.561   6.671   6.282
70836SOL     OW14346   6.427   3.544   3.422
70836SOL    HW114347   6.420   3.534   3.517
70836SOL    HW214348   6.411   3.636   3.405
70837SOL     OW14349   7.322   7.794   4.040
70837SOL    HW114350   7.352   7.847   4.114
70837SOL    HW214351   7.319   7.855   3.966
70838SOL     OW14352   3.167   0.241   9.803
70838SOL    HW114353   3.247   0.289   9.783
70838SOL    HW214354   3.113   0.250   9.724
70839SOL     OW14355  12.875   4.830   6.570
70839SOL    HW114356  12.951   4.887   6.583
70839SOL    HW214357  12.858   4.793   6.656
70840SOL     OW14358   3.248   4.946  11.086
70840SOL    HW114359   3.164   4.957  11.041
70840SOL    HW214360   3.293   4.877  11.038
70841SOL     OW14361   1.475   2.354  12.519
70841SOL    HW114362   1.503   2.347  12.427
70841SOL    HW214363   1.451   2.446  12.529
70842SOL     OW14364   9.397   9.068  12.702
70842SOL    HW114365   9.375   9.144  12.649
70842SOL    HW214366   9.391   9.099  12.792
70843SOL     OW14367  10.807  14.793   3.533
70843SOL    HW114368  10.721  14.825   3.558
70843SOL    HW214369  10.858  14.872   3.518
70844SOL     OW14370  11.670   0.711   6.386
70844SOL    HW114371  11.723   0.654   6.441
70844SOL    HW214372  11.657   0.662   6.305
70845SOL     OW14373  14.599   8.097   0.059
70845SOL    HW114374  14.645   8.106  14.848
70845SOL    HW214375  14.667   8.112   0.125
70846SOL     OW14376  11.728   4.745  12.070
70846SOL    HW114377  11.672   4.668  12.059
70846SOL    HW214378  11.705   4.779  12.156
70847SOL     OW14379   8.585   1.573   0.894
70847SOL    HW114380   8.573   1.558   0.800
70847SOL    HW214381   8.669   1.618   0.900
70848SOL     OW14382  11.212   3.171   1.752
70848SOL    HW114383  11.232   3.104   1.686
70848SOL    HW214384  11.143   3.224   1.711
70849SOL     OW14385   6.119  14.116  12.476
70849SOL    HW114386   6.148  14.117  12.384
70849SOL    HW214387   6.047  14.052  12.477
70850SOL     OW14388   3.827   5.252   3.920
70850SOL    HW114389   3.741   5.295   3.921
70850SOL    HW214390   3.848   5.245   3.827
70851SOL     OW14391   5.476   0.735  13.326
70851SOL    HW114392   5.419   0.704  13.396
70851SOL    HW214393   5.534   0.661  13.307
70852SOL     OW14394  12.766   0.792   4.675
70852SOL    HW114395  12.687   0.828   4.636
70852SOL    HW214396  12.765   0.824   4.766
70853SOL     OW14397   1.011   0.340  13.001
70853SOL    HW114398   0.962   0.411  12.960
70853SOL    HW214399   1.005   0.357  13.095
70854SOL     OW14400   1.248   8.359   6.203
70854SOL    HW114401   1.298   8.295   6.152
70854SOL    HW214402   1.254   8.440   6.152
70855SOL     OW14403   5.652   0.104   2.190
70855SOL    HW114404   5.685   0.192   2.176
70855SOL    HW214405   5.698   0.073   2.268
70856SOL     OW14406   1.278  13.843   2.184
70856SOL    HW114407   1.286  13.884   2.271
70856SOL    HW214408   1.368  13.843   2.150
70857SOL     OW14409   9.342  14.560   7.620
70857SOL    HW114410   9.334  14.485   7.678
70857SOL    HW214411   9.436  14.569   7.604
70858SOL     OW14412   5.391   3.007   2.290
70858SOL    HW114413   5.302   3.001   2.257
70858SOL    HW214414   5.388   2.963   2.375
70859SOL     OW14415   9.012   1.152  11.059
70859SOL    HW114416   9.040   1.073  11.012
70859SOL    HW214417   9.072   1.159  11.133
70860SOL     OW14418   5.008   6.598  10.879
70860SOL    HW114419   5.066   6.544  10.934
70860SOL    HW214420   4.973   6.664  10.939
70861SOL     OW14421   9.257   0.897   7.895
70861SOL    HW114422   9.213   0.817   7.922
70861SOL    HW214423   9.321   0.868   7.829
70862SOL     OW14424   4.047   3.154   5.401
70862SOL    HW114425   4.016   3.122   5.316
70862SOL    HW214426   3.975   3.206   5.436
70863SOL     OW14427  11.519   0.612  10.198
70863SOL    HW114428  11.484   0.656  10.120
70863SOL    HW214429  11.443   0.605  10.256
70864SOL     OW14430   8.093   2.427   0.766
70864SOL    HW114431   8.102   2.396   0.676
70864SOL    HW214432   8.001   2.454   0.772
70865SOL     OW14433   5.782  14.529   7.089
70865SOL    HW114434   5.693  14.563   7.087
70865SOL    HW214435   5.772  14.437   7.113
70866SOL     OW14436   6.509   6.004   6.753
70866SOL    HW114437   6.585   5.946   6.752
70866SOL    HW214438   6.448   5.965   6.690
70867SOL     OW14439   5.064   8.682  12.423
70867SOL    HW114440   5.120   8.760  12.414
70867SOL    HW214441   4.976   8.715  12.408
70868SOL     OW14442  13.006  12.464  14.503
70868SOL    HW114443  13.030  12.493  14.415
70868SOL    HW214444  12.959  12.382  14.490
70869SOL     OW14445   7.137   8.580  13.616
70869SOL    HW114446   7.137   8.523  13.538
70869SOL    HW214447   7.229   8.602  13.629
70870SOL     OW14448   3.566   3.423   1.539
70870SOL    HW114449   3.478   3.426   1.503
70870SOL    HW214450   3.557   3.454   1.629
70871SOL     OW14451   6.622   9.567   3.168
70871SOL    HW114452   6.641   9.652   3.129
70871SOL    HW214453   6.627   9.505   3.095
70872SOL     OW14454  14.123   1.059   6.246
70872SOL    HW114455  14.183   1.051   6.172
70872SOL    HW214456  14.140   0.982   6.299
70873SOL     OW14457  11.343  12.256  12.306
70873SOL    HW114458  11.308  12.270  12.394
70873SOL    HW214459  11.291  12.313  12.250
70874SOL     OW14460  13.939  13.233  13.964
70874SOL    HW114461  13.855  13.224  13.919
70874SOL    HW214462  13.984  13.150  13.947
70875SOL     OW14463   7.540   2.956   7.652
70875SOL    HW114464   7.493   2.888   7.699
70875SOL    HW214465   7.482   2.981   7.580
70876SOL     OW14466   1.871  14.849   7.884
70876SOL    HW114467   1.897   0.004   7.797
70876SOL    HW214468   1.868   0.057   7.936
70877SOL     OW14469   7.841  11.420  10.436
70877SOL    HW114470   7.864  11.328  10.447
70877SOL    HW214471   7.925  11.466  10.431
70878SOL     OW14472   0.530  11.313  13.571
70878SOL    HW114473   0.489  11.398  13.557
70878SOL    HW214474   0.517  11.266  13.489
70879SOL     OW14475   9.295  10.290   5.689
70879SOL    HW114476   9.347  10.253   5.760
70879SOL    HW214477   9.326  10.245   5.611
70880SOL     OW14478   4.775   3.981   8.835
70880SOL    HW114479   4.797   3.907   8.777
70880SOL    HW214480   4.756   4.053   8.775
70881SOL     OW14481   5.583   8.244  14.104
70881SOL    HW114482   5.490   8.244  14.080
70881SOL    HW214483   5.605   8.336  14.114
70882SOL     OW14484   2.680   3.861   6.595
70882SOL    HW114485   2.771   3.878   6.570
70882SOL    HW214486   2.678   3.876   6.690
70883SOL     OW14487   7.975   2.726  13.829
70883SOL    HW114488   8.067   2.703  13.844
70883SOL    HW214489   7.928   2.689  13.905
70884SOL     OW14490   3.805   6.737   9.348
70884SOL    HW114491   3.889   6.749   9.392
70884SOL    HW214492   3.746   6.798   9.394
70885SOL     OW14493   2.274   3.776  12.105
70885SOL    HW114494   2.267   3.716  12.179
70885SOL    HW214495   2.348   3.744  12.054
70886SOL     OW14496   7.636   2.310   9.741
70886SOL    HW114497   7.570   2.380   9.745
70886SOL    HW214498   7.712   2.346   9.787
70887SOL     OW14499   7.923  10.544   1.818
70887SOL    HW114500   8.019  10.545   1.813
70887SOL    HW214501   7.895  10.520   1.729
70888SOL     OW14502   4.246   2.424   4.580
70888SOL    HW114503   4.284   2.505   4.545
70888SOL    HW214504   4.181   2.398   4.515
70889SOL     OW14505   2.043   6.188  10.704
70889SOL    HW114506   2.073   6.201  10.794
70889SOL    HW214507   1.948   6.174  10.713
70890SOL     OW14508   9.774  13.627   8.852
70890SOL    HW114509   9.846  13.688   8.870
70890SOL    HW214510   9.804  13.544   8.888
70891SOL     OW14511   4.836   8.314   4.135
70891SOL    HW114512   4.843   8.409   4.126
70891SOL    HW214513   4.825   8.300   4.229
70892SOL     OW14514  11.470   3.362   7.124
70892SOL    HW114515  11.402   3.303   7.156
70892SOL    HW214516  11.447   3.378   7.032
70893SOL     OW14517   2.242  12.192   7.908
70893SOL    HW114518   2.220  12.144   7.828
70893SOL    HW214519   2.211  12.281   7.891
70894SOL     OW14520  11.010  14.486   4.383
70894SOL    HW114521  11.083  14.425   4.393
70894SOL    HW214522  11.044  14.556   4.327
70895SOL     OW14523   2.336   7.297   5.798
70895SOL    HW114524   2.319   7.324   5.888
70895SOL    HW214525   2.411   7.237   5.804
70896SOL     OW14526  12.776   7.992  11.549
70896SOL    HW114527  12.783   7.944  11.467
70896SOL    HW214528  12.699   7.956  11.592
70897SOL     OW14529   4.768  12.559   2.743
70897SOL    HW114530   4.859  12.588   2.734
70897SOL    HW214531   4.774  12.471   2.779
70898SOL     OW14532   9.964   2.746   6.606
70898SOL    HW114533   9.944   2.717   6.517
70898SOL    HW214534   9.956   2.667   6.659
70899SOL     OW14535  11.506   8.488   8.739
70899SOL    HW114536  11.458   8.536   8.672
70899SOL    HW214537  11.454   8.409   8.755
70900SOL     OW14538   7.313   1.630   8.038
70900SOL    HW114539   7.365   1.603   8.113
70900SOL    HW214540   7.286   1.548   7.996
70901SOL     OW14541   4.120  14.490  12.558
70901SOL    HW114542   4.026  14.485  12.543
70901SOL    HW214543   4.133  14.577  12.597
70902SOL     OW14544  13.192   4.138  12.500
70902SOL    HW114545  13.157   4.226  12.490
70902SOL    HW214546  13.268   4.149  12.557
70903SOL     OW14547   3.284   7.730   1.266
70903SOL    HW114548   3.257   7.822   1.261
70903SOL    HW214549   3.202   7.681   1.260
70904SOL     OW14550   4.948   7.165  14.362
70904SOL    HW114551   5.041   7.189  14.362
70904SOL    HW214552   4.948   7.070  14.350
70905SOL     OW14553   7.852   3.178   5.907
70905SOL    HW114554   7.790   3.249   5.889
70905SOL    HW214555   7.803   3.117   5.962
70906SOL     OW14556   6.577   8.273   8.676
70906SOL    HW114557   6.563   8.180   8.663
70906SOL    HW214558   6.497   8.314   8.644
70907SOL     OW14559  13.694   6.283   9.000
70907SOL    HW114560  13.772   6.339   8.999
70907SOL    HW214561  13.640   6.317   8.928
70908SOL     OW14562   3.300  13.004  14.321
70908SOL    HW114563   3.310  12.915  14.287
70908SOL    HW214564   3.296  13.059  14.243
70909SOL     OW14565  12.146   8.365   2.784
70909SOL    HW114566  12.098   8.304   2.728
70909SOL    HW214567  12.145   8.448   2.735
70910SOL     OW14568   8.120   1.664   7.792
70910SOL    HW114569   8.156   1.575   7.793
70910SOL    HW214570   8.043   1.658   7.735
70911SOL     OW14571   4.189   5.665   5.992
70911SOL    HW114572   4.272   5.646   5.947
70911SOL    HW214573   4.124   5.615   5.944
70912SOL     OW14574   2.710   8.594  14.558
70912SOL    HW114575   2.686   8.520  14.615
70912SOL    HW214576   2.788   8.630  14.598
70913SOL     OW14577   5.471   5.127   2.387
70913SOL    HW114578   5.470   5.193   2.318
70913SOL    HW214579   5.456   5.177   2.468
70914SOL     OW14580  10.985   7.990  10.806
70914SOL    HW114581  10.985   8.040  10.724
70914SOL    HW214582  10.892   7.972  10.823
70915SOL     OW14583   4.601   0.218   2.360
70915SOL    HW114584   4.652   0.151   2.404
70915SOL    HW214585   4.517   0.176   2.340
70916SOL     OW14586   1.954  12.862  13.277
70916SOL    HW114587   2.044  12.833  13.257
70916SOL    HW214588   1.905  12.844  13.197
70917SOL     OW14589   1.680   0.884   9.437
70917SOL    HW114590   1.709   0.954   9.378
70917SOL    HW214591   1.732   0.808   9.411
70918SOL     OW14592  13.426  14.091  11.864
70918SOL    HW114593  13.474  14.065  11.786
70918SOL    HW214594  13.358  14.025  11.873
70919SOL     OW14595   5.708   6.731   3.183
70919SOL    HW114596   5.642   6.673   3.221
70919SOL    HW214597   5.669   6.763   3.102
70920SOL     OW14598   3.192   1.678  11.259
70920SOL    HW114599   3.131   1.620  11.214
70920SOL    HW214600   3.171   1.667  11.352
70921SOL     OW14601  14.836   6.845   7.908
70921SOL    HW114602  14.780   6.901   7.963
70921SOL    HW214603  14.831   6.884   7.821
70922SOL     OW14604  11.738   0.820   2.862
70922SOL    HW114605  11.648   0.825   2.828
70922SOL    HW214606  11.782   0.758   2.804
70923SOL     OW14607  10.288   4.641   2.882
70923SOL    HW114608  10.357   4.625   2.947
70923SOL    HW214609  10.246   4.722   2.911
70924SOL     OW14610   2.368   9.309  11.017
70924SOL    HW114611   2.366   9.248  11.091
70924SOL    HW214612   2.297   9.371  11.034
70925SOL     OW14613  14.752   9.133   8.067
70925SOL    HW114614  14.777   9.189   8.141
70925SOL    HW214615  14.725   9.194   7.999
70926SOL     OW14616  11.613   3.360   9.276
70926SOL    HW114617  11.529   3.386   9.240
70926SOL    HW214618  11.655   3.310   9.206
70927SOL     OW14619  13.278   3.162   7.334
70927SOL    HW114620  13.303   3.087   7.281
70927SOL    HW214621  13.361   3.196   7.368
70928SOL     OW14622  12.320  13.538   0.653
70928SOL    HW114623  12.313  13.540   0.748
70928SOL    HW214624  12.414  13.532   0.636
70929SOL     OW14625   1.850  10.556   9.901
70929SOL    HW114626   1.903  10.493   9.950
70929SOL    HW214627   1.909  10.630   9.886
70930SOL     OW14628   3.824   5.083  12.876
70930SOL    HW114629   3.888   5.097  12.806
70930SOL    HW214630   3.844   5.152  12.940
70931SOL     OW14631   7.777   5.473   7.722
70931SOL    HW114632   7.711   5.405   7.739
70931SOL    HW214633   7.848   5.427   7.678
70932SOL     OW14634   7.321   8.158   4.655
70932SOL    HW114635   7.289   8.183   4.742
70932SOL    HW214636   7.242   8.144   4.603
70933SOL     OW14637   7.577  13.569   6.369
70933SOL    HW114638   7.666  13.603   6.367
70933SOL    HW214639   7.553  13.568   6.462
70934SOL     OW14640   2.673  10.429   1.077
70934SOL    HW114641   2.636  10.478   1.004
70934SOL    HW214642   2.744  10.377   1.038
70935SOL     OW14643  11.882   0.932   6.381
70935SOL    HW114644  11.867   0.840   6.358
70935SOL    HW214645  11.857   0.937   6.473
70936SOL     OW14646  14.706   0.789   7.095
70936SOL    HW114647  14.699   0.872   7.142
70936SOL    HW214648  14.629   0.739   7.123
70937SOL     OW14649   3.695  10.866   3.137
70937SOL    HW114650   3.787  10.847   3.117
70937SOL    HW214651   3.648  10.786   3.111
70938SOL     OW14652   8.038  12.675   5.135
70938SOL    HW114653   8.032  12.731   5.058
70938SOL    HW214654   8.028  12.734   5.209
70939SOL     OW14655   1.023   1.463   7.415
70939SOL    HW114656   0.975   1.444   7.495
70939SOL    HW214657   0.962   1.516   7.362
70940SOL     OW14658   0.398   0.759  14.275
70940SOL    HW114659   0.402   0.785  14.183
70940SOL    HW214660   0.307   0.776  14.301
70941SOL     OW14661   1.279  13.838   3.413
70941SOL    HW114662   1.367  13.811   3.438
70941SOL    HW214663   1.278  13.832   3.318
70942SOL     OW14664   4.415   6.202   2.509
70942SOL    HW114665   4.432   6.238   2.423
70942SOL    HW214666   4.333   6.152   2.499
70943SOL     OW14667   5.889   9.926   6.947
70943SOL    HW114668   5.858   9.977   7.021
70943SOL    HW214669   5.964   9.876   6.982
70944SOL     OW14670  12.504  11.944  12.490
70944SOL    HW114671  12.434  11.899  12.535
70944SOL    HW214672  12.471  11.958  12.401
70945SOL     OW14673   5.173  12.199   0.573
70945SOL    HW114674   5.269  12.204   0.569
70945SOL    HW214675   5.153  12.110   0.544
70946SOL     OW14676   5.877  14.090   8.626
70946SOL    HW114677   5.815  14.062   8.694
70946SOL    HW214678   5.825  14.090   8.546
70947SOL     OW14679  14.707   6.339   6.729
70947SOL    HW114680  14.728   6.431   6.712
70947SOL    HW214681  14.661   6.310   6.650
70948SOL     OW14682   5.380   0.195  11.833
70948SOL    HW114683   5.359   0.168  11.743
70948SOL    HW214684   5.475   0.209  11.832
70949SOL     OW14685   1.629  10.861   7.760
70949SOL    HW114686   1.548  10.820   7.728
70949SOL    HW214687   1.611  10.955   7.757
70950SOL     OW14688   7.042   1.107  10.242
70950SOL    HW114689   7.067   1.125  10.333
70950SOL    HW214690   7.114   1.054  10.208
70951SOL     OW14691  11.178  12.983  11.596
70951SOL    HW114692  11.197  13.066  11.640
70951SOL    HW214693  11.109  13.005  11.534
70952SOL     OW14694   0.397   5.109   4.484
70952SOL    HW114695   0.328   5.118   4.550
70952SOL    HW214696   0.452   5.037   4.517
70953SOL     OW14697   2.139   5.209   9.597
70953SOL    HW114698   2.095   5.126   9.575
70953SOL    HW214699   2.077   5.255   9.653
70954SOL     OW14700   7.043  14.817   9.673
70954SOL    HW114701   7.087  14.736   9.700
70954SOL    HW214702   6.987  14.790   9.600
70955SOL     OW14703  14.762  11.770   9.344
70955SOL    HW114704  14.721  11.855   9.331
70955SOL    HW214705  14.689  11.709   9.350
70956SOL     OW14706   4.680   7.392   9.570
70956SOL    HW114707   4.697   7.383   9.664
70956SOL    HW214708   4.739   7.329   9.529
70957SOL     OW14709  10.131   2.246   3.758
70957SOL    HW114710  10.109   2.298   3.835
70957SOL    HW214711  10.227   2.242   3.758
70958SOL     OW14712   6.504   5.253   7.036
70958SOL    HW114713   6.570   5.193   7.071
70958SOL    HW214714   6.553   5.317   6.986
70959SOL     OW14715   4.141   7.137  10.711
70959SOL    HW114716   4.198   7.063  10.691
70959SOL    HW214717   4.094   7.154  10.630
70960SOL     OW14718   8.371  10.396  12.478
70960SOL    HW114719   8.330  10.349  12.405
70960SOL    HW214720   8.428  10.460  12.436
70961SOL     OW14721  11.379  12.512  11.559
70961SOL    HW114722  11.331  12.456  11.621
70961SOL    HW214723  11.470  12.505  11.586
70962SOL     OW14724   4.942   9.104   1.703
70962SOL    HW114725   4.923   9.161   1.777
70962SOL    HW214726   4.954   9.163   1.629
70963SOL     OW14727   6.817  10.161   5.726
70963SOL    HW114728   6.795  10.072   5.752
70963SOL    HW214729   6.804  10.213   5.805
70964SOL     OW14730   1.504   8.558  11.111
70964SOL    HW114731   1.562   8.485  11.089
70964SOL    HW214732   1.558   8.618  11.162
70965SOL     OW14733  11.419  11.547   8.402
70965SOL    HW114734  11.340  11.538   8.456
70965SOL    HW214735  11.488  11.565   8.465
70966SOL     OW14736   1.429  14.828  10.048
70966SOL    HW114737   1.348  14.851  10.002
70966SOL    HW214738   1.474   0.038  10.062
70967SOL     OW14739  12.822   7.956   9.908
70967SOL    HW114740  12.852   7.977   9.996
70967SOL    HW214741  12.894   7.908   9.868
70968SOL     OW14742   7.314  12.050  10.645
70968SOL    HW114743   7.275  11.965  10.623
70968SOL    HW214744   7.317  12.050  10.741
70969SOL     OW14745   1.513   4.787   2.423
70969SOL    HW114746   1.527   4.874   2.460
70969SOL    HW214747   1.419   4.772   2.432
70970SOL     OW14748   4.529   9.499  14.811
70970SOL    HW114749   4.551   9.498  14.718
70970SOL    HW214750   4.608   9.465  14.855
70971SOL     OW14751   1.461   9.323  11.186
70971SOL    HW114752   1.484   9.298  11.275
70971SOL    HW214753   1.391   9.387  11.195
70972SOL     OW14754   1.545   1.177   8.829
70972SOL    HW114755   1.631   1.190   8.869
70972SOL    HW214756   1.537   1.246   8.764
70973SOL     OW14757   2.922  11.875  12.994
70973SOL    HW114758   2.953  11.889  13.083
70973SOL    HW214759   2.979  11.807  12.959
70974SOL     OW14760  14.812  11.690   0.499
70974SOL    HW114761  14.822  11.660   0.590
70974SOL    HW214762  14.718  11.686   0.482
70975SOL     OW14763   7.236   6.077   8.093
70975SOL    HW114764   7.286   6.007   8.135
70975SOL    HW214765   7.147   6.066   8.125
70976SOL     OW14766   1.057   2.592   6.291
70976SOL    HW114767   1.013   2.625   6.213
70976SOL    HW214768   0.996   2.529   6.329
70977SOL     OW14769   7.686  12.751   1.220
70977SOL    HW114770   7.613  12.709   1.173
70977SOL    HW214771   7.760  12.693   1.204
70978SOL     OW14772  10.357  14.786  12.949
70978SOL    HW114773  10.299  14.745  12.885
70978SOL    HW214774  10.436  14.807  12.900
70979SOL     OW14775   1.273  13.577  10.278
70979SOL    HW114776   1.264  13.633  10.355
70979SOL    HW214777   1.189  13.532  10.270
70980SOL     OW14778   3.581   6.933   1.035
70980SOL    HW114779   3.673   6.909   1.026
70980SOL    HW214780   3.584   7.026   1.061
70981SOL     OW14781   0.520   6.430   5.905
70981SOL    HW114782   0.490   6.359   5.961
70981SOL    HW214783   0.615   6.435   5.920
70982SOL     OW14784   1.131  13.038  10.835
70982SOL    HW114785   1.151  12.976  10.905
70982SOL    HW214786   1.214  13.079  10.814
70983SOL     OW14787  14.348   1.815   9.292
70983SOL    HW114788  14.256   1.795   9.275
70983SOL    HW214789  14.387   1.731   9.317
70984SOL     OW14790   1.352   4.968   6.762
70984SOL    HW114791   1.290   4.901   6.789
70984SOL    HW214792   1.432   4.947   6.811
70985SOL     OW14793  10.395   5.187  10.575
70985SOL    HW114794  10.475   5.193  10.523
70985SOL    HW214795  10.405   5.257  10.641
70986SOL     OW14796   4.132  13.428   2.242
70986SOL    HW114797   4.182  13.383   2.311
70986SOL    HW214798   4.090  13.501   2.287
70987SOL     OW14799   0.452  10.853   2.079
70987SOL    HW114800   0.425  10.768   2.044
70987SOL    HW214801   0.432  10.915   2.009
70988SOL     OW14802  11.939   8.111  13.750
70988SOL    HW114803  11.887   8.165  13.809
70988SOL    HW214804  11.876   8.073  13.689
70989SOL     OW14805   2.690   9.964   8.026
70989SOL    HW114806   2.706   9.984   7.934
70989SOL    HW214807   2.617  10.020   8.050
70990SOL     OW14808  13.849  10.409   7.571
70990SOL    HW114809  13.771  10.354   7.578
70990SOL    HW214810  13.921  10.352   7.597
70991SOL     OW14811   1.732   2.031  14.460
70991SOL    HW114812   1.747   2.030  14.554
70991SOL    HW214813   1.808   2.078  14.424
70992SOL     OW14814  11.606   0.282  13.961
70992SOL    HW114815  11.585   0.194  13.992
70992SOL    HW214816  11.700   0.291  13.978
70993SOL     OW14817   5.768  13.222   3.140
70993SOL    HW114818   5.807  13.301   3.102
70993SOL    HW214819   5.701  13.256   3.200
70994SOL     OW14820   5.382   9.816  12.872
70994SOL    HW114821   5.413   9.775  12.791
70994SOL    HW214822   5.460   9.855  12.910
70995SOL     OW14823   5.850   8.893   6.179
70995SOL    HW114824   5.945   8.888   6.183
70995SOL    HW214825   5.832   8.958   6.112
70996SOL     OW14826   2.740  10.354   8.022
70996SOL    HW114827   2.748  10.443   8.059
70996SOL    HW214828   2.739  10.297   8.098
70997SOL     OW14829   4.260   7.264   3.846
70997SOL    HW114830   4.186   7.207   3.863
70997SOL    HW214831   4.280   7.304   3.931
70998SOL     OW14832  11.479   5.939   2.362
70998SOL    HW114833  11.522   5.941   2.276
70998SOL    HW214834  11.463   5.846   2.379
70999SOL     OW14835   8.151   6.487   1.596
70999SOL    HW114836   8.238   6.480   1.558
70999SOL    HW214837   8.136   6.402   1.638
71000SOL     OW14838   6.498   2.246   3.407
71000SOL    HW114839   6.558   2.281   3.473
71000SOL    HW214840   6.555   2.201   3.345
71001SOL     OW14841   2.992  11.870  11.001
71001SOL    HW114842   2.897  11.856  11.008
71001SOL    HW214843   3.029  11.783  10.989
71002SOL     OW14844   8.545  12.853  13.928
71002SOL    HW114845   8.547  12.900  13.845
71002SOL    HW214846   8.626  12.801  13.928
71003SOL     OW14847   8.436   9.471   8.546
71003SOL    HW114848   8.349   9.448   8.578
71003SOL    HW214849   8.430   9.463   8.451
71004SOL     OW14850   8.879  11.992  12.361
71004SOL    HW114851   8.845  11.973  12.449
71004SOL    HW214852   8.802  12.019  12.312
71005SOL     OW14853  10.648   2.442  14.007
71005SOL    HW114854  10.742   2.429  14.021
71005SOL    HW214855  10.642   2.533  13.977
71006SOL     OW14856  14.440  13.637   6.410
71006SOL    HW114857  14.442  13.570   6.341
71006SOL    HW214858  14.429  13.720   6.363
71007SOL     OW14859   2.767   8.953   3.399
71007SOL    HW114860   2.691   8.919   3.351
71007SOL    HW214861   2.736   8.966   3.488
71008SOL     OW14862   9.082   6.283  14.569
71008SOL    HW114863   9.033   6.365  14.570
71008SOL    HW214864   9.142   6.289  14.643
71009SOL     OW14865   5.079  11.556   1.435
71009SOL    HW114866   4.994  11.581   1.400
71009SOL    HW214867   5.104  11.628   1.492
71010SOL     OW14868   8.123   2.050   0.641
71010SOL    HW114869   8.112   2.138   0.677
71010SOL    HW214870   8.208   2.052   0.598
71011SOL     OW14871   2.904   4.647  11.379
71011SOL    HW114872   2.897   4.701  11.458
71011SOL    HW214873   2.893   4.557  11.411
71012SOL     OW14874   7.027  11.200  10.118
71012SOL    HW114875   6.988  11.231  10.037
71012SOL    HW214876   6.967  11.230  10.186
71013SOL     OW14877  12.335   5.601  13.332
71013SOL    HW114878  12.262   5.655  13.361
71013SOL    HW214879  12.411   5.635  13.379
71014SOL     OW14880  10.807   2.885   0.836
71014SOL    HW114881  10.860   2.881   0.756
71014SOL    HW214882  10.772   2.974   0.837
71015SOL     OW14883  14.684  13.724  13.046
71015SOL    HW114884  14.745  13.680  12.987
71015SOL    HW214885  14.598  13.708  13.007
71016SOL     OW14886   7.881  12.422   6.870
71016SOL    HW114887   7.951  12.371   6.911
71016SOL    HW214888   7.927  12.490   6.820
71017SOL     OW14889  13.115   1.318   5.214
71017SOL    HW114890  13.022   1.341   5.220
71017SOL    HW214891  13.123   1.239   5.268
71018SOL     OW14892  12.635  12.203  13.901
71018SOL    HW114893  12.718  12.202  13.854
71018SOL    HW214894  12.651  12.258  13.977
71019SOL     OW14895   8.352   9.844   5.255
71019SOL    HW114896   8.268   9.815   5.292
71019SOL    HW214897   8.372   9.925   5.302
71020SOL     OW14898   3.186  10.581   8.730
71020SOL    HW114899   3.213  10.616   8.815
71020SOL    HW214900   3.266  10.585   8.677
71021SOL     OW14901   9.022   2.805   5.620
71021SOL    HW114902   8.989   2.738   5.560
71021SOL    HW214903   9.045   2.758   5.699
71022SOL     OW14904   9.159   1.972   2.447
71022SOL    HW114905   9.238   1.987   2.498
71022SOL    HW214906   9.141   1.879   2.458
71023SOL     OW14907  10.395   0.135   3.361
71023SOL    HW114908  10.401   0.039   3.360
71023SOL    HW214909  10.383   0.156   3.454
71024SOL     OW14910  11.108  13.649   7.981
71024SOL    HW114911  11.145  13.617   7.899
71024SOL    HW214912  11.027  13.600   7.991
71025SOL     OW14913   8.183   1.162   6.409
71025SOL    HW114914   8.214   1.252   6.398
71025SOL    HW214915   8.257   1.108   6.383
71026SOL     OW14916   4.929   5.835   0.663
71026SOL    HW114917   5.007   5.859   0.613
71026SOL    HW214918   4.856   5.866   0.609
71027SOL     OW14919  11.310  14.703   9.024
71027SOL    HW114920  11.316  14.726   8.931
71027SOL    HW214921  11.398  14.674   9.047
71028SOL     OW14922  10.760   0.073  12.607
71028SOL    HW114923  10.805   0.118  12.679
71028SOL    HW214924  10.681   0.036  12.647
71029SOL     OW14925  11.555   5.120   6.644
71029SOL    HW114926  11.511   5.056   6.700
71029SOL    HW214927  11.568   5.073   6.561
71030SOL     OW14928   6.714   0.331  12.330
71030SOL    HW114929   6.659   0.256  12.307
71030SOL    HW214930   6.665   0.376  12.399
71031SOL     OW14931  12.412   2.783   6.639
71031SOL    HW114932  12.401   2.690   6.659
71031SOL    HW214933  12.410   2.825   6.725
71032SOL     OW14934   0.535   3.972   7.421
71032SOL    HW114935   0.526   4.001   7.511
71032SOL    HW214936   0.543   4.053   7.370
71033SOL     OW14937  10.078   5.687  13.514
71033SOL    HW114938  10.131   5.758  13.478
71033SOL    HW214939  10.072   5.624  13.442
71034SOL     OW14940   2.873   1.230   1.801
71034SOL    HW114941   2.849   1.275   1.720
71034SOL    HW214942   2.952   1.275   1.831
71035SOL     OW14943   9.890   0.612   7.828
71035SOL    HW114944   9.938   0.618   7.910
71035SOL    HW214945   9.932   0.675   7.770
71036SOL     OW14946   7.752  11.772   9.671
71036SOL    HW114947   7.728  11.699   9.727
71036SOL    HW214948   7.669  11.812   9.646
71037SOL     OW14949   3.928  11.961   1.615
71037SOL    HW114950   3.984  12.031   1.649
71037SOL    HW214951   3.845  11.971   1.662
71038SOL     OW14952   7.939  11.331  11.748
71038SOL    HW114953   7.987  11.338  11.830
71038SOL    HW214954   7.889  11.249  11.756
71039SOL     OW14955  14.817   2.427   9.255
71039SOL    HW114956   0.038   2.409   9.256
71039SOL    HW214957  14.782   2.366   9.190
71040SOL     OW14958   6.111  10.480   5.595
71040SOL    HW114959   6.037  10.420   5.609
71040SOL    HW214960   6.158  10.481   5.679
71041SOL     OW14961   0.373   9.618   9.922
71041SOL    HW114962   0.373   9.534   9.970
71041SOL    HW214963   0.291   9.660   9.949
71042SOL     OW14964   1.160   4.969   9.892
71042SOL    HW114965   1.143   4.916   9.814
71042SOL    HW214966   1.138   4.911   9.965
71043SOL     OW14967   0.564   2.795   8.364
71043SOL    HW114968   0.483   2.839   8.390
71043SOL    HW214969   0.624   2.812   8.436
71044SOL     OW14970  11.436  12.186  12.587
71044SOL    HW114971  11.372  12.133  12.634
71044SOL    HW214972  11.461  12.131  12.512
71045SOL     OW14973   0.766  10.183   9.115
71045SOL    HW114974   0.813  10.113   9.070
71045SOL    HW214975   0.677  10.180   9.079
71046SOL     OW14976   7.646   3.436   9.432
71046SOL    HW114977   7.678   3.351   9.402
71046SOL    HW214978   7.576   3.458   9.370
71047SOL     OW14979   5.912  11.375   6.098
71047SOL    HW114980   5.971  11.428   6.152
71047SOL    HW214981   5.858  11.327   6.161
71048SOL     OW14982  13.431   5.524   8.638
71048SOL    HW114983  13.376   5.448   8.621
71048SOL    HW214984  13.498   5.492   8.698
71049SOL     OW14985  14.192   6.865   5.542
71049SOL    HW114986  14.239   6.810   5.604
71049SOL    HW214987  14.112   6.890   5.588
71050SOL     OW14988  11.953   0.681   6.827
71050SOL    HW114989  11.896   0.613   6.790
71050SOL    HW214990  12.022   0.632   6.872
71051SOL     OW14991  10.711   5.107   5.229
71051SOL    HW114992  10.650   5.067   5.291
71051SOL    HW214993  10.772   5.157   5.283
71052SOL     OW14994   6.565  11.701   7.620
71052SOL    HW114995   6.535  11.785   7.586
71052SOL    HW214996   6.491  11.642   7.604
71053SOL     OW14997   2.872   7.622   5.652
71053SOL    HW114998   2.823   7.699   5.621
71053SOL    HW214999   2.819   7.587   5.723
71054SOL     OW15000  12.712   1.930   4.967
71054SOL    HW115001  12.690   1.840   4.942
71054SOL    HW215002  12.645   1.984   4.925
71055SOL     OW15003   3.981  14.419  11.797
71055SOL    HW115004   3.999  14.512  11.784
71055SOL    HW215005   3.911  14.400  11.735
71056SOL     OW15006  11.201   2.667  12.338
71056SOL    HW115007  11.190   2.618  12.257
71056SOL    HW215008  11.207   2.600  12.406
71057SOL     OW15009   6.112  13.834  14.680
71057SOL    HW115010   6.124  13.882  14.599
71057SOL    HW215011   6.149  13.747  14.663
71058SOL     OW15012  11.299  12.937  13.322
71058SOL    HW115013  11.335  12.926  13.234
71058SOL    HW215014  11.351  12.878  13.377
71059SOL     OW15015   9.231  14.850  10.108
71059SOL    HW115016   9.149   0.017  10.078
71059SOL    HW215017   9.265   0.037  10.174
71060SOL     OW15018   1.337   6.476  12.186
71060SOL    HW115019   1.310   6.384  12.185
71060SOL    HW215020   1.369   6.490  12.275
71061SOL     OW15021  11.875   2.478   0.360
71061SOL    HW115022  11.852   2.391   0.327
71061SOL    HW215023  11.962   2.467   0.399
71062SOL     OW15024   6.568   3.804   5.537
71062SOL    HW115025   6.526   3.890   5.537
71062SOL    HW215026   6.530   3.759   5.612
71063SOL     OW15027   7.339   7.454   1.251
71063SOL    HW115028   7.338   7.359   1.244
71063SOL    HW215029   7.263   7.482   1.199
71064SOL     OW15030   7.755  14.665   8.413
71064SOL    HW115031   7.729  14.743   8.364
71064SOL    HW215032   7.742  14.688   8.505
71065SOL     OW15033  13.750  10.486  13.377
71065SOL    HW115034  13.660  10.488  13.347
71065SOL    HW215035  13.798  10.441  13.308
71066SOL     OW15036  13.426   8.779   0.961
71066SOL    HW115037  13.413   8.874   0.952
71066SOL    HW215038  13.338   8.743   0.960
71067SOL     OW15039   9.161   1.393   7.116
71067SOL    HW115040   9.124   1.480   7.102
71067SOL    HW215041   9.184   1.392   7.209
71068SOL     OW15042  11.406   5.433   1.242
71068SOL    HW115043  11.325   5.421   1.192
71068SOL    HW215044  11.430   5.345   1.270
71069SOL     OW15045  12.839  10.156  10.557
71069SOL    HW115046  12.769  10.187  10.614
71069SOL    HW215047  12.811  10.069  10.529
71070SOL     OW15048   0.487   6.905  12.896
71070SOL    HW115049   0.557   6.969  12.910
71070SOL    HW215050   0.485   6.892  12.801
71071SOL     OW15051   7.233   7.793  10.539
71071SOL    HW115052   7.200   7.818  10.625
71071SOL    HW215053   7.159   7.804  10.480
71072SOL     OW15054   2.749  11.617   0.892
71072SOL    HW115055   2.820  11.657   0.943
71072SOL    HW215056   2.793  11.578   0.817
71073SOL     OW15057  11.853  14.860   1.816
71073SOL    HW115058  11.761   0.000   1.794
71073SOL    HW215059  11.858   0.000   1.910
71074SOL     OW15060   8.464  10.960   3.352
71074SOL    HW115061   8.450  10.866   3.338
71074SOL    HW215062   8.379  10.993   3.381
71075SOL     OW15063   2.714   3.763  12.535
71075SOL    HW115064   2.645   3.704  12.563
71075SOL    HW215065   2.783   3.706  12.501
71076SOL     OW15066  11.187  14.161  12.406
71076SOL    HW115067  11.216  14.125  12.322
71076SOL    HW215068  11.199  14.255  12.396
71077SOL     OW15069   7.262   6.060  14.233
71077SOL    HW115070   7.341   6.027  14.273
71077SOL    HW215071   7.191   6.031  14.291
71078SOL     OW15072  13.541   9.863  12.725
71078SOL    HW115073  13.520   9.908  12.807
71078SOL    HW215074  13.578   9.931  12.669
71079SOL     OW15075   6.744   2.449   0.542
71079SOL    HW115076   6.823   2.444   0.488
71079SOL    HW215077   6.672   2.431   0.481
71080SOL     OW15078   6.457   0.912   1.615
71080SOL    HW115079   6.548   0.936   1.598
71080SOL    HW215080   6.410   0.995   1.616
71081SOL     OW15081  14.265  10.373  12.914
71081SOL    HW115082  14.219  10.327  12.843
71081SOL    HW215083  14.288  10.304  12.976
71082SOL     OW15084   1.823  11.570   1.454
71082SOL    HW115085   1.850  11.601   1.367
71082SOL    HW215086   1.900  11.580   1.509
71083SOL     OW15087   5.564   1.027  12.605
71083SOL    HW115088   5.613   1.106  12.626
71083SOL    HW215089   5.562   0.978  12.687
71084SOL     OW15090   5.455   1.905   1.924
71084SOL    HW115091   5.374   1.854   1.919
71084SOL    HW215092   5.521   1.849   1.883
71085SOL     OW15093   2.219   9.286   4.645
71085SOL    HW115094   2.259   9.269   4.730
71085SOL    HW215095   2.225   9.381   4.633
71086SOL     OW15096  11.175   2.363  14.848
71086SOL    HW115097  11.155   2.426  14.778
71086SOL    HW215098  11.167   2.277  14.806
71087SOL     OW15099  13.052   1.454   2.698
71087SOL    HW115100  13.071   1.362   2.719
71087SOL    HW215101  13.108   1.473   2.622
71088SOL     OW15102   6.137  13.551   8.082
71088SOL    HW115103   6.136  13.456   8.066
71088SOL    HW215104   6.213  13.565   8.139
71089SOL     OW15105   5.223   7.478   3.511
71089SOL    HW115106   5.312   7.444   3.518
71089SOL    HW215107   5.168   7.400   3.513
71090SOL     OW15108  12.364   3.374   7.124
71090SOL    HW115109  12.319   3.446   7.079
71090SOL    HW215110  12.405   3.415   7.200
71091SOL     OW15111   7.767  10.394  14.654
71091SOL    HW115112   7.773  10.437  14.739
71091SOL    HW215113   7.721  10.456  14.598
71092SOL     OW15114   4.920   5.059   8.085
71092SOL    HW115115   4.958   4.999   8.021
71092SOL    HW215116   4.838   5.088   8.045
71093SOL     OW15117   2.403  14.300  13.173
71093SOL    HW115118   2.324  14.317  13.224
71093SOL    HW215119   2.460  14.375  13.192
71094SOL     OW15120   9.290   4.550   6.817
71094SOL    HW115121   9.306   4.464   6.780
71094SOL    HW215122   9.347   4.555   6.894
71095SOL     OW15123   2.468  10.671   4.191
71095SOL    HW115124   2.535  10.710   4.248
71095SOL    HW215125   2.513  10.599   4.147
71096SOL     OW15126   5.921   9.942  12.313
71096SOL    HW115127   5.951  10.031  12.298
71096SOL    HW215128   5.911   9.905  12.225
71097SOL     OW15129  14.239  10.441   3.832
71097SOL    HW115130  14.304  10.445   3.762
71097SOL    HW215131  14.260  10.360   3.879
71098SOL     OW15132   0.613   0.995  14.037
71098SOL    HW115133   0.680   0.938  13.999
71098SOL    HW215134   0.640   1.007  14.128
71099SOL     OW15135   0.658   2.078   3.027
71099SOL    HW115136   0.672   2.102   2.936
71099SOL    HW215137   0.741   2.039   3.056
71100SOL     OW15138   2.150  11.272  11.629
71100SOL    HW115139   2.066  11.252  11.669
71100SOL    HW215140   2.173  11.358  11.664
71101SOL     OW15141   9.758   4.189  14.420
71101SOL    HW115142   9.731   4.278  14.396
71101SOL    HW215143   9.835   4.202  14.475
71102SOL     OW15144  14.296  14.290   2.854
71102SOL    HW115145  14.369  14.228   2.858
71102SOL    HW215146  14.339  14.376   2.854
71103SOL     OW15147   9.550   7.366   6.010
71103SOL    HW115148   9.521   7.376   6.101
71103SOL    HW215149   9.473   7.331   5.964
71104SOL     OW15150   4.659   2.332  13.668
71104SOL    HW115151   4.676   2.415  13.713
71104SOL    HW215152   4.745   2.289  13.663
71105SOL     OW15153   0.537   1.264   1.052
71105SOL    HW115154   0.490   1.273   1.135
71105SOL    HW215155   0.485   1.202   1.001
71106SOL     OW15156   5.100  12.217   5.489
71106SOL    HW115157   5.171  12.154   5.500
71106SOL    HW215158   5.021  12.163   5.483
71107SOL     OW15159   8.694   4.667   4.722
71107SOL    HW115160   8.613   4.719   4.716
71107SOL    HW215161   8.750   4.702   4.652
71108SOL     OW15162  14.397   5.736  12.434
71108SOL    HW115163  14.469   5.782  12.390
71108SOL    HW215164  14.345   5.700  12.362
71109SOL     OW15165   4.370  13.234   3.518
71109SOL    HW115166   4.464  13.249   3.518
71109SOL    HW215167   4.344  13.248   3.609
71110SOL     OW15168   2.122  14.111  10.437
71110SOL    HW115169   2.083  14.195  10.462
71110SOL    HW215170   2.047  14.052  10.428
71111SOL     OW15171  12.642  14.590   2.253
71111SOL    HW115172  12.603  14.579   2.166
71111SOL    HW215173  12.633  14.684   2.271
71112SOL     OW15174  14.629   3.901  10.002
71112SOL    HW115175  14.604   3.994  10.003
71112SOL    HW215176  14.545   3.855  10.008
71113SOL     OW15177   6.305   5.513   2.549
71113SOL    HW115178   6.227   5.465   2.522
71113SOL    HW215179   6.280   5.605   2.546
71114SOL     OW15180  14.569   0.146  10.211
71114SOL    HW115181  14.612   0.151  10.125
71114SOL    HW215182  14.492   0.091  10.195
71115SOL     OW15183  12.266   4.716   9.210
71115SOL    HW115184  12.178   4.732   9.176
71115SOL    HW215185  12.323   4.720   9.133
71116SOL     OW15186   5.354   2.612   6.916
71116SOL    HW115187   5.311   2.668   6.851
71116SOL    HW215188   5.334   2.653   7.000
71117SOL     OW15189   8.349   7.007  12.646
71117SOL    HW115190   8.432   7.041  12.612
71117SOL    HW215191   8.316   6.950  12.577
71118SOL     OW15192  11.080   5.314   8.079
71118SOL    HW115193  11.055   5.281   8.165
71118SOL    HW215194  11.175   5.324   8.084
71119SOL     OW15195   1.929   4.330  11.425
71119SOL    HW115196   1.989   4.265  11.388
71119SOL    HW215197   1.967   4.414  11.401
71120SOL     OW15198   8.145   7.665   3.927
71120SOL    HW115199   8.155   7.627   4.014
71120SOL    HW215200   8.227   7.714   3.913
71121SOL     OW15201  11.940  12.243  10.722
71121SOL    HW115202  11.918  12.336  10.730
71121SOL    HW215203  12.023  12.242  10.673
71122SOL     OW15204  12.738  10.560  11.463
71122SOL    HW115205  12.775  10.579  11.377
71122SOL    HW215206  12.794  10.609  11.524
71123SOL     OW15207   3.175   0.662   2.540
71123SOL    HW115208   3.194   0.570   2.555
71123SOL    HW215209   3.249   0.694   2.488
71124SOL     OW15210  11.607  10.256   3.357
71124SOL    HW115211  11.576  10.319   3.422
71124SOL    HW215212  11.684  10.217   3.397
71125SOL     OW15213  13.815   9.147  11.778
71125SOL    HW115214  13.836   9.241  11.781
71125SOL    HW215215  13.852   9.117  11.695
71126SOL     OW15216   3.362   8.447   9.303
71126SOL    HW115217   3.442   8.497   9.288
71126SOL    HW215218   3.327   8.482   9.385
71127SOL     OW15219   4.460  13.427  11.672
71127SOL    HW115220   4.389  13.491  11.678
71127SOL    HW215221   4.422  13.347  11.709
71128SOL     OW15222   3.586   2.719   8.312
71128SOL    HW115223   3.534   2.747   8.387
71128SOL    HW215224   3.638   2.796   8.289
71129SOL     OW15225   6.098   8.896   4.308
71129SOL    HW115226   6.104   8.820   4.250
71129SOL    HW215227   6.189   8.917   4.330
71130SOL     OW15228   9.584   1.862   9.168
71130SOL    HW115229   9.607   1.815   9.088
71130SOL    HW215230   9.608   1.953   9.151
71131SOL     OW15231   1.738  13.150   2.634
71131SOL    HW115232   1.825  13.180   2.659
71131SOL    HW215233   1.714  13.086   2.701
71132SOL     OW15234  14.759   2.825  12.116
71132SOL    HW115235  14.721   2.822  12.204
71132SOL    HW215236  14.685   2.845  12.059
71133SOL     OW15237   6.297   1.643   7.783
71133SOL    HW115238   6.238   1.606   7.718
71133SOL    HW215239   6.262   1.731   7.801
71134SOL     OW15240   7.894   4.620  12.159
71134SOL    HW115241   7.978   4.592  12.196
71134SOL    HW215242   7.917   4.690  12.099
71135SOL     OW15243   7.089   6.464   1.712
71135SOL    HW115244   7.184   6.460   1.706
71135SOL    HW215245   7.069   6.557   1.722
71136SOL     OW15246   3.474  14.480   8.812
71136SOL    HW115247   3.517  14.565   8.825
71136SOL    HW215248   3.508  14.425   8.883
71137SOL     OW15249   1.426   2.918  14.007
71137SOL    HW115250   1.392   2.983  13.945
71137SOL    HW215251   1.514   2.899  13.974
71138SOL     OW15252   0.264   6.168   9.251
71138SOL    HW115253   0.338   6.218   9.285
71138SOL    HW215254   0.291   6.076   9.259
71139SOL     OW15255   1.517   8.567   4.442
71139SOL    HW115256   1.557   8.509   4.377
71139SOL    HW215257   1.479   8.507   4.507
71140SOL     OW15258   8.897   4.806  12.254
71140SOL    HW115259   8.970   4.814  12.193
71140SOL    HW215260   8.827   4.767  12.201
71141SOL     OW15261   3.173   0.595   9.662
71141SOL    HW115262   3.231   0.603   9.738
71141SOL    HW215263   3.230   0.562   9.592
71142SOL     OW15264   4.974  11.054   4.899
71142SOL    HW115265   4.987  11.053   4.993
71142SOL    HW215266   4.932  10.970   4.880
71143SOL     OW15267  13.808  10.280   5.681
71143SOL    HW115268  13.722  10.321   5.666
71143SOL    HW215269  13.788  10.203   5.734
71144SOL     OW15270   1.665   6.344   9.992
71144SOL    HW115271   1.733   6.307  10.048
71144SOL    HW215272   1.624   6.268   9.950
71145SOL     OW15273   9.365  14.329  11.583
71145SOL    HW115274   9.342  14.242  11.552
71145SOL    HW215275   9.428  14.314  11.653
71146SOL     OW15276  10.664  14.021   3.053
71146SOL    HW115277  10.755  14.014   3.080
71146SOL    HW215278  10.646  14.115   3.054
71147SOL     OW15279   4.706  11.532   4.060
71147SOL    HW115280   4.723  11.449   4.104
71147SOL    HW215281   4.619  11.558   4.089
71148SOL     OW15282  12.774  13.365  13.520
71148SOL    HW115283  12.838  13.419  13.473
71148SOL    HW215284  12.689  13.395  13.489
71149SOL     OW15285   2.106   7.485  13.572
71149SOL    HW115286   2.188   7.486  13.523
71149SOL    HW215287   2.039   7.469  13.505
71150SOL     OW15288   4.877   3.282   8.215
71150SOL    HW115289   4.786   3.259   8.232
71150SOL    HW215290   4.926   3.200   8.231
71151SOL     OW15291  14.020   4.613   2.987
71151SOL    HW115292  14.064   4.549   2.931
71151SOL    HW215293  13.978   4.560   3.055
71152SOL     OW15294  13.964   3.599  11.043
71152SOL    HW115295  13.949   3.609  10.949
71152SOL    HW215296  14.032   3.533  11.050
71153SOL     OW15297   5.135  10.541  10.388
71153SOL    HW115298   5.156  10.499  10.472
71153SOL    HW215299   5.057  10.495  10.357
71154SOL     OW15300  14.388   6.415  13.718
71154SOL    HW115301  14.364   6.502  13.751
71154SOL    HW215302  14.354   6.413  13.629
71155SOL     OW15303  10.008  13.883  12.271
71155SOL    HW115304  10.073  13.851  12.333
71155SOL    HW215305   9.994  13.974  12.297
71156SOL     OW15306   4.135   7.561  11.180
71156SOL    HW115307   4.099   7.623  11.244
71156SOL    HW215308   4.061   7.504  11.159
71157SOL     OW15309   3.998   8.606  14.436
71157SOL    HW115310   4.024   8.642  14.521
71157SOL    HW215311   3.907   8.634  14.425
71158SOL     OW15312   6.647   4.235   5.201
71158SOL    HW115313   6.692   4.197   5.277
71158SOL    HW215314   6.700   4.208   5.126
71159SOL     OW15315   5.857  13.608   1.213
71159SOL    HW115316   5.945  13.611   1.249
71159SOL    HW215317   5.870  13.600   1.119
71160SOL     OW15318  11.723   6.053  10.302
71160SOL    HW115319  11.723   6.060  10.398
71160SOL    HW215320  11.695   6.139  10.272
71161SOL     OW15321   1.993   6.713  10.932
71161SOL    HW115322   1.918   6.654  10.927
71161SOL    HW215323   1.965   6.782  10.993
71162SOL     OW15324   8.401  13.853   6.060
71162SOL    HW115325   8.430  13.779   6.006
71162SOL    HW215326   8.449  13.928   6.025
71163SOL     OW15327  14.360   9.341   5.897
71163SOL    HW115328  14.376   9.292   5.816
71163SOL    HW215329  14.295   9.407   5.873
71164SOL     OW15330  14.710  14.194   6.513
71164SOL    HW115331  14.744  14.253   6.580
71164SOL    HW215332  14.677  14.118   6.561
71165SOL     OW15333   0.844   0.261   6.925
71165SOL    HW115334   0.811   0.179   6.889
71165SOL    HW215335   0.815   0.328   6.863
71166SOL     OW15336   9.693  10.740  13.764
71166SOL    HW115337   9.684  10.784  13.849
71166SOL    HW215338   9.616  10.767  13.715
71167SOL     OW15339   7.676   3.804   1.919
71167SOL    HW115340   7.643   3.806   1.829
71167SOL    HW215341   7.769   3.826   1.912
71168SOL     OW15342   4.751  12.603  12.073
71168SOL    HW115343   4.764  12.632  11.983
71168SOL    HW215344   4.668  12.643  12.099
71169SOL     OW15345   4.962   4.220   4.476
71169SOL    HW115346   4.903   4.287   4.440
71169SOL    HW215347   4.953   4.229   4.571
71170SOL     OW15348   4.220   1.772   9.444
71170SOL    HW115349   4.256   1.699   9.393
71170SOL    HW215350   4.130   1.745   9.464
71171SOL     OW15351   8.366  11.964   7.453
71171SOL    HW115352   8.361  11.938   7.361
71171SOL    HW215353   8.379  12.058   7.450
71172SOL     OW15354   2.674   9.290  12.672
71172SOL    HW115355   2.584   9.281  12.640
71172SOL    HW215356   2.673   9.371  12.724
71173SOL     OW15357   5.183  13.241   1.405
71173SOL    HW115358   5.111  13.209   1.351
71173SOL    HW215359   5.254  13.259   1.342
71174SOL     OW15360   2.906   6.114   1.657
71174SOL    HW115361   2.850   6.037   1.645
71174SOL    HW215362   2.962   6.092   1.731
71175SOL     OW15363   5.400   4.655   8.231
71175SOL    HW115364   5.342   4.700   8.170
71175SOL    HW215365   5.400   4.564   8.201
71176SOL     OW15366   0.114  11.737   7.158
71176SOL    HW115367   0.092  11.824   7.190
71176SOL    HW215368   0.198  11.748   7.113
71177SOL     OW15369   7.809   9.376   0.517
71177SOL    HW115370   7.815   9.470   0.501
71177SOL    HW215371   7.774   9.340   0.435
71178SOL     OW15372  12.379   2.417   9.012
71178SOL    HW115373  12.286   2.415   9.038
71178SOL    HW215374  12.386   2.495   8.956
71179SOL     OW15375   2.723   1.471  11.239
71179SOL    HW115376   2.658   1.459  11.169
71179SOL    HW215377   2.706   1.398  11.299
71180SOL     OW15378   0.610  11.590   2.086
71180SOL    HW115379   0.688  11.554   2.045
71180SOL    HW215380   0.555  11.514   2.106
71181SOL     OW15381   7.118   2.958   2.588
71181SOL    HW115382   7.029   2.930   2.609
71181SOL    HW215383   7.111   2.997   2.501
71182SOL     OW15384   4.001   5.340  10.072
71182SOL    HW115385   4.028   5.281  10.143
71182SOL    HW215386   4.048   5.308   9.995
71183SOL     OW15387  13.116   0.909   0.563
71183SOL    HW115388  13.043   0.894   0.622
71183SOL    HW215389  13.133   1.003   0.569
71184SOL     OW15390   3.874   1.764  11.636
71184SOL    HW115391   3.807   1.817  11.593
71184SOL    HW215392   3.910   1.710  11.566
71185SOL     OW15393   7.193   4.764  11.856
71185SOL    HW115394   7.187   4.846  11.807
71185SOL    HW215395   7.227   4.790  11.942
71186SOL     OW15396  12.648  11.754   9.074
71186SOL    HW115397  12.558  11.737   9.046
71186SOL    HW215398  12.700  11.733   8.996
71187SOL     OW15399   2.582  11.589   3.624
71187SOL    HW115400   2.622  11.503   3.637
71187SOL    HW215401   2.493  11.578   3.657
71188SOL     OW15402   4.281   1.242   9.317
71188SOL    HW115403   4.335   1.240   9.397
71188SOL    HW215404   4.269   1.151   9.294
71189SOL     OW15405   4.266  14.579  11.408
71189SOL    HW115406   4.327  14.629  11.461
71189SOL    HW215407   4.320  14.536  11.342
71190SOL     OW15408   8.604   8.306   3.615
71190SOL    HW115409   8.547   8.369   3.570
71190SOL    HW215410   8.641   8.356   3.688
71191SOL     OW15411  13.911   3.632   5.336
71191SOL    HW115412  13.872   3.690   5.271
71191SOL    HW215413  13.872   3.658   5.419
71192SOL     OW15414   5.117  14.131   7.021
71192SOL    HW115415   5.129  14.225   7.020
71192SOL    HW215416   5.107  14.107   6.929
71193SOL     OW15417   0.884  12.408  13.863
71193SOL    HW115418   0.869  12.314  13.867
71193SOL    HW215419   0.979  12.417  13.851
71194SOL     OW15420   8.164  11.584   5.654
71194SOL    HW115421   8.178  11.654   5.590
71194SOL    HW215422   8.240  11.591   5.713
71195SOL     OW15423   7.178  11.313   9.497
71195SOL    HW115424   7.119  11.286   9.567
71195SOL    HW215425   7.121  11.349   9.429
71196SOL     OW15426   8.936  13.053   9.367
71196SOL    HW115427   8.923  13.020   9.278
71196SOL    HW215428   8.877  13.129   9.373
71197SOL     OW15429   1.067   0.199  11.241
71197SOL    HW115430   1.129   0.270  11.254
71197SOL    HW215431   1.016   0.226  11.165
71198SOL     OW15432   2.900   3.558   0.584
71198SOL    HW115433   2.873   3.631   0.640
71198SOL    HW215434   2.851   3.483   0.617
71199SOL     OW15435   0.155   1.659   0.778
71199SOL    HW115436   0.118   1.645   0.691
71199SOL    HW215437   0.241   1.698   0.762
71200SOL     OW15438  14.276   0.790   4.602
71200SOL    HW115439  14.210   0.740   4.555
71200SOL    HW215440  14.271   0.878   4.563
71201SOL     OW15441  10.831   5.070   5.646
71201SOL    HW115442  10.883   5.091   5.723
71201SOL    HW215443  10.841   5.146   5.588
71202SOL     OW15444   3.841   1.869   3.666
71202SOL    HW115445   3.781   1.904   3.600
71202SOL    HW215446   3.862   1.781   3.635
71203SOL     OW15447   4.760   1.772   8.290
71203SOL    HW115448   4.807   1.788   8.208
71203SOL    HW215449   4.722   1.685   8.280
71204SOL     OW15450   4.774  14.491  13.936
71204SOL    HW115451   4.726  14.570  13.961
71204SOL    HW215452   4.719  14.419  13.968
71205SOL     OW15453   5.388   5.451   8.596
71205SOL    HW115454   5.369   5.379   8.536
71205SOL    HW215455   5.405   5.409   8.680
71206SOL     OW15456   8.512   3.686  13.641
71206SOL    HW115457   8.423   3.701  13.673
71206SOL    HW215458   8.566   3.750  13.687
71207SOL     OW15459   6.107  11.052   8.482
71207SOL    HW115460   6.055  11.111   8.538
71207SOL    HW215461   6.196  11.086   8.488
71208SOL     OW15462   7.499   5.538   3.798
71208SOL    HW115463   7.431   5.572   3.856
71208SOL    HW215464   7.557   5.488   3.855
71209SOL     OW15465   6.557   9.877   0.994
71209SOL    HW115466   6.608   9.901   1.071
71209SOL    HW215467   6.467   9.898   1.018
71210SOL     OW15468  11.563   4.128   0.059
71210SOL    HW115469  11.557   4.101  14.840
71210SOL    HW215470  11.622   4.203   0.058
71211SOL     OW15471  13.357   2.193  13.223
71211SOL    HW115472  13.424   2.208  13.290
71211SOL    HW215473  13.400   2.213  13.140
71212SOL     OW15474   7.657   2.183   8.633
71212SOL    HW115475   7.696   2.268   8.653
71212SOL    HW215476   7.730   2.131   8.598
71213SOL     OW15477  13.770  13.889  13.712
71213SOL    HW115478  13.801  13.820  13.653
71213SOL    HW215479  13.818  13.967  13.684
71214SOL     OW15480   5.501   0.161   3.765
71214SOL    HW115481   5.442   0.183   3.837
71214SOL    HW215482   5.443   0.147   3.690
71215SOL     OW15483  11.627  14.185  14.126
71215SOL    HW115484  11.696  14.166  14.190
71215SOL    HW215485  11.551  14.208  14.178
71216SOL     OW15486   9.640   4.031  14.227
71216SOL    HW115487   9.672   4.105  14.279
71216SOL    HW215488   9.548   4.050  14.213
71217SOL     OW15489   2.282  10.213   5.201
71217SOL    HW115490   2.373  10.228   5.225
71217SOL    HW215491   2.240  10.298   5.212
71218SOL     OW15492  14.602   6.735   9.003
71218SOL    HW115493  14.549   6.766   9.076
71218SOL    HW215494  14.633   6.815   8.960
71219SOL     OW15495   4.202  10.473   2.864
71219SOL    HW115496   4.193  10.379   2.847
71219SOL    HW215497   4.213  10.479   2.959
71220SOL     OW15498   4.214   9.176   0.846
71220SOL    HW115499   4.289   9.118   0.839
71220SOL    HW215500   4.228   9.242   0.778
71221SOL     OW15501   0.177   1.238   6.541
71221SOL    HW115502   0.126   1.314   6.569
71221SOL    HW215503   0.146   1.219   6.453
71222SOL     OW15504   8.800   6.589   7.805
71222SOL    HW115505   8.884   6.621   7.772
71222SOL    HW215506   8.822   6.510   7.854
71223SOL     OW15507   6.577   5.464   7.255
71223SOL    HW115508   6.497   5.460   7.203
71223SOL    HW215509   6.547   5.463   7.346
71224SOL     OW15510  13.436   4.944   5.553
71224SOL    HW115511  13.416   4.992   5.633
71224SOL    HW215512  13.364   4.881   5.544
71225SOL     OW15513  12.065   0.356   3.538
71225SOL    HW115514  12.151   0.370   3.577
71225SOL    HW215515  12.038   0.442   3.507
71226SOL     OW15516  12.224   6.308   2.323
71226SOL    HW115517  12.308   6.348   2.301
71226SOL    HW215518  12.216   6.320   2.418
71227SOL     OW15519   7.323  10.648   1.016
71227SOL    HW115520   7.241  10.602   0.998
71227SOL    HW215521   7.301  10.741   1.007
71228SOL     OW15522   0.983  14.832  14.616
71228SOL    HW115523   1.020  14.758  14.568
71228SOL    HW215524   1.037  14.839  14.695
71229SOL     OW15525   4.024   5.010   7.363
71229SOL    HW115526   3.962   4.938   7.354
71229SOL    HW215527   4.110   4.970   7.353
71230SOL     OW15528  12.879  13.954   4.403
71230SOL    HW115529  12.862  14.048   4.394
71230SOL    HW215530  12.946  13.935   4.337
71231SOL     OW15531   8.097  12.699   9.468
71231SOL    HW115532   8.144  12.619   9.445
71231SOL    HW215533   8.037  12.714   9.395
71232SOL     OW15534   1.631  10.403   0.596
71232SOL    HW115535   1.652  10.496   0.603
71232SOL    HW215536   1.564  10.398   0.527
71233SOL     OW15537  10.546  14.562  10.903
71233SOL    HW115538  10.630  14.532  10.939
71233SOL    HW215539  10.570  14.610  10.824
71234SOL     OW15540   5.510   0.923  12.847
71234SOL    HW115541   5.456   0.867  12.903
71234SOL    HW215542   5.556   0.980  12.909
71235SOL     OW15543  12.701   6.262  11.815
71235SOL    HW115544  12.619   6.215  11.801
71235SOL    HW215545  12.768   6.194  11.810
71236SOL     OW15546   6.945   5.183   9.324
71236SOL    HW115547   6.980   5.261   9.282
71236SOL    HW215548   6.909   5.130   9.253
71237SOL     OW15549   4.114   2.424   5.755
71237SOL    HW115550   4.059   2.412   5.833
71237SOL    HW215551   4.193   2.468   5.788
71238SOL     OW15552   2.638   7.452   0.582
71238SOL    HW115553   2.595   7.511   0.644
71238SOL    HW215554   2.573   7.384   0.564
71239SOL     OW15555  12.408   9.600   0.035
71239SOL    HW115556  12.463   9.676   0.053
71239SOL    HW215557  12.469   9.531   0.008
71240SOL     OW15558   8.756   1.842   6.783
71240SOL    HW115559   8.713   1.847   6.868
71240SOL    HW215560   8.699   1.892   6.724
71241SOL     OW15561   3.285   9.203  10.637
71241SOL    HW115562   3.322   9.124  10.599
71241SOL    HW215563   3.350   9.271  10.621
71242SOL     OW15564  10.244   7.579   9.599
71242SOL    HW115565  10.296   7.659   9.597
71242SOL    HW215566  10.281   7.524   9.530
71243SOL     OW15567  13.757   4.908   0.670
71243SOL    HW115568  13.834   4.903   0.727
71243SOL    HW215569  13.715   4.991   0.696
71244SOL     OW15570  12.417   8.476   8.265
71244SOL    HW115571  12.401   8.570   8.256
71244SOL    HW215572  12.486   8.457   8.202
71245SOL     OW15573   0.325  11.291   0.326
71245SOL    HW115574   0.258  11.331   0.382
71245SOL    HW215575   0.316  11.197   0.342
71246SOL     OW15576  10.934  10.203  14.599
71246SOL    HW115577  10.975  10.210  14.685
71246SOL    HW215578  10.876  10.127  14.606
71247SOL     OW15579  11.178   1.431   0.696
71247SOL    HW115580  11.121   1.432   0.773
71247SOL    HW215581  11.167   1.343   0.660
71248SOL     OW15582   4.216  10.044   8.864
71248SOL    HW115583   4.121  10.037   8.873
71248SOL    HW215584   4.243  10.102   8.935
71249SOL     OW15585   3.303   7.482   7.861
71249SOL    HW115586   3.262   7.404   7.898
71249SOL    HW215587   3.231   7.539   7.837
71250SOL     OW15588  14.440  12.843   6.416
71250SOL    HW115589  14.385  12.866   6.342
71250SOL    HW215590  14.400  12.887   6.491
71251SOL     OW15591   6.609   6.025   4.379
71251SOL    HW115592   6.629   6.083   4.452
71251SOL    HW215593   6.694   6.003   4.341
71252SOL     OW15594   9.294   8.199   4.870
71252SOL    HW115595   9.334   8.139   4.932
71252SOL    HW215596   9.312   8.286   4.904
71253SOL     OW15597  11.303  14.702   0.083
71253SOL    HW115598  11.297  14.757   0.006
71253SOL    HW215599  11.354  14.626   0.055
71254SOL     OW15600   5.606   8.033   6.445
71254SOL    HW115601   5.522   8.040   6.490
71254SOL    HW215602   5.583   8.019   6.353
71255SOL     OW15603  12.352   1.206  13.999
71255SOL    HW115604  12.280   1.147  13.972
71255SOL    HW215605  12.384   1.243  13.917
71256SOL     OW15606   9.679   6.099   9.799
71256SOL    HW115607   9.741   6.164   9.766
71256SOL    HW215608   9.596   6.121   9.759
71257SOL     OW15609   0.211   2.494   6.913
71257SOL    HW115610   0.174   2.533   6.992
71257SOL    HW215611   0.205   2.563   6.847
71258SOL     OW15612   5.957   0.708   3.559
71258SOL    HW115613   5.915   0.709   3.473
71258SOL    HW215614   5.952   0.616   3.587
71259SOL     OW15615   5.513  12.636   9.692
71259SOL    HW115616   5.481  12.546   9.688
71259SOL    HW215617   5.573  12.643   9.618
71260SOL     OW15618   8.634  13.200   2.692
71260SOL    HW115619   8.564  13.220   2.754
71260SOL    HW215620   8.713  13.230   2.736
71261SOL     OW15621   3.540   6.509  14.468
71261SOL    HW115622   3.545   6.502  14.372
71261SOL    HW215623   3.586   6.590  14.488
71262SOL     OW15624   1.586   6.760   1.720
71262SOL    HW115625   1.681   6.759   1.718
71262SOL    HW215626   1.562   6.695   1.786
71263SOL     OW15627   0.663  10.920   1.462
71263SOL    HW115628   0.666  10.865   1.384
71263SOL    HW215629   0.641  10.860   1.533
71264SOL     OW15630  12.048   3.299   2.265
71264SOL    HW115631  12.066   3.206   2.253
71264SOL    HW215632  11.973   3.302   2.324
71265SOL     OW15633  10.394   0.682   9.118
71265SOL    HW115634  10.384   0.613   9.184
71265SOL    HW215635  10.441   0.640   9.046
71266SOL     OW15636   4.162   4.131   5.458
71266SOL    HW115637   4.180   4.185   5.535
71266SOL    HW215638   4.098   4.066   5.488
71267SOL     OW15639  14.167  11.980   1.789
71267SOL    HW115640  14.244  12.022   1.751
71267SOL    HW215641  14.099  12.047   1.786
71268SOL     OW15642  12.928   7.672   0.007
71268SOL    HW115643  12.962   7.704   0.091
71268SOL    HW215644  13.007   7.652  14.829
71269SOL     OW15645   0.384   4.708   7.329
71269SOL    HW115646   0.415   4.775   7.268
71269SOL    HW215647   0.305   4.672   7.288
71270SOL     OW15648   7.790  14.348  14.362
71270SOL    HW115649   7.752  14.292  14.294
71270SOL    HW215650   7.885  14.341  14.348
71271SOL     OW15651  13.369   4.735  12.590
71271SOL    HW115652  13.287   4.718  12.545
71271SOL    HW215653  13.386   4.828  12.575
71272SOL     OW15654   9.418   8.374  10.341
71272SOL    HW115655   9.469   8.387  10.421
71272SOL    HW215656   9.373   8.458  10.327
71273SOL     OW15657  13.439   9.059   0.975
71273SOL    HW115658  13.365   9.045   1.035
71273SOL    HW215659  13.409   9.127   0.915
71274SOL     OW15660   4.719   1.796   1.543
71274SOL    HW115661   4.787   1.823   1.481
71274SOL    HW215662   4.688   1.712   1.509
71275SOL     OW15663  13.478   4.027  12.254
71275SOL    HW115664  13.392   4.062  12.232
71275SOL    HW215665  13.514   3.997  12.170
71276SOL     OW15666   9.851  10.100   3.845
71276SOL    HW115667   9.867  10.177   3.900
71276SOL    HW215668   9.758  10.105   3.823
71277SOL     OW15669   4.417   6.337   2.005
71277SOL    HW115670   4.378   6.387   1.934
71277SOL    HW215671   4.438   6.252   1.967
71278SOL     OW15672   0.395   4.997   8.588
71278SOL    HW115673   0.400   4.924   8.526
71278SOL    HW215674   0.391   4.954   8.674
71279SOL     OW15675  10.897   8.408  11.642
71279SOL    HW115676  10.825   8.445  11.695
71279SOL    HW215677  10.903   8.467  11.567
71280SOL     OW15678   4.730   4.788   7.157
71280SOL    HW115679   4.788   4.815   7.085
71280SOL    HW215680   4.788   4.787   7.233
71281SOL     OW15681   8.579   9.983   2.355
71281SOL    HW115682   8.586   9.999   2.261
71281SOL    HW215683   8.638   9.909   2.371
71282SOL     OW15684   5.539   1.745   2.379
71282SOL    HW115685   5.630   1.721   2.367
71282SOL    HW215686   5.524   1.816   2.316
71283SOL     OW15687   4.654   9.125   8.983
71283SOL    HW115688   4.639   9.179   9.061
71283SOL    HW215689   4.750   9.120   8.976
71284SOL     OW15690  12.843   8.910  12.110
71284SOL    HW115691  12.905   8.864  12.167
71284SOL    HW215692  12.894   8.981  12.071
71285SOL     OW15693   2.828   2.004   6.488
71285SOL    HW115694   2.920   2.021   6.467
71285SOL    HW215695   2.783   2.013   6.404
71286SOL     OW15696  14.754  12.240   2.886
71286SOL    HW115697  14.762  12.179   2.813
71286SOL    HW215698  14.841  12.242   2.925
71287SOL     OW15699  10.572   7.840   5.027
71287SOL    HW115700  10.665   7.815   5.024
71287SOL    HW215701  10.530   7.782   4.963
71288SOL     OW15702  12.886   2.997   9.449
71288SOL    HW115703  12.920   3.020   9.535
71288SOL    HW215704  12.964   2.976   9.397
71289SOL     OW15705   3.846   4.139  12.546
71289SOL    HW115706   3.929   4.126  12.499
71289SOL    HW215707   3.858   4.223  12.591
71290SOL     OW15708  11.435  10.018   1.551
71290SOL    HW115709  11.514   9.968   1.527
71290SOL    HW215710  11.374   9.952   1.583
71291SOL     OW15711  10.324   2.765  10.138
71291SOL    HW115712  10.251   2.827  10.148
71291SOL    HW215713  10.344   2.737  10.227
71292SOL     OW15714   2.180  13.992  14.808
71292SOL    HW115715   2.180  13.985  14.712
71292SOL    HW215716   2.090  13.973  14.833
71293SOL     OW15717   7.783  13.708  13.198
71293SOL    HW115718   7.873  13.674  13.206
71293SOL    HW215719   7.777  13.776  13.265
71294SOL     OW15720  11.780   3.713  12.679
71294SOL    HW115721  11.790   3.790  12.623
71294SOL    HW215722  11.692   3.680  12.659
71295SOL     OW15723  14.458  13.564  10.713
71295SOL    HW115724  14.403  13.578  10.790
71295SOL    HW215725  14.397  13.563  10.640
71296SOL     OW15726  13.578   3.636   8.280
71296SOL    HW115727  13.595   3.705   8.215
71296SOL    HW215728  13.516   3.676   8.341
71297SOL     OW15729   8.771  11.255   4.055
71297SOL    HW115730   8.787  11.345   4.085
71297SOL    HW215731   8.836  11.240   3.987
71298SOL     OW15732   1.633  13.367   9.615
71298SOL    HW115733   1.717  13.374   9.571
71298SOL    HW215734   1.613  13.456   9.644
71299SOL     OW15735   5.864  10.794   2.632
71299SOL    HW115736   5.845  10.781   2.539
71299SOL    HW215737   5.851  10.708   2.671
71300SOL     OW15738   3.318   6.685  10.671
71300SOL    HW115739   3.394   6.723  10.627
71300SOL    HW215740   3.256   6.668  10.601
71301SOL     OW15741  11.214  13.988   9.447
71301SOL    HW115742  11.194  14.011   9.356
71301SOL    HW215743  11.131  13.960   9.484
71302SOL     OW15744  14.653  13.030  10.722
71302SOL    HW115745  14.628  12.965  10.788
71302SOL    HW215746  14.743  13.054  10.745
71303SOL     OW15747   7.702   3.932   6.667
71303SOL    HW115748   7.716   3.998   6.734
71303SOL    HW215749   7.764   3.862   6.688
71304SOL     OW15750   0.868  11.218   2.020
71304SOL    HW115751   0.870  11.185   1.930
71304SOL    HW215752   0.812  11.156   2.067
71305SOL     OW15753  13.204   9.994   3.051
71305SOL    HW115754  13.146  10.008   3.125
71305SOL    HW215755  13.205  10.078   3.005
71306SOL     OW15756   6.290  12.953   8.409
71306SOL    HW115757   6.297  12.875   8.354
71306SOL    HW215758   6.198  12.981   8.401
71307SOL     OW15759   0.813  12.738  13.638
71307SOL    HW115760   0.907  12.718  13.633
71307SOL    HW215761   0.810  12.830  13.665
71308SOL     OW15762  11.903   2.604   8.416
71308SOL    HW115763  11.856   2.637   8.492
71308SOL    HW215764  11.995   2.618   8.436
71309SOL     OW15765   5.305   3.967   6.823
71309SOL    HW115766   5.395   3.936   6.823
71309SOL    HW215767   5.252   3.887   6.832
71310SOL     OW15768   6.871   3.860  14.022
71310SOL    HW115769   6.914   3.831  14.102
71310SOL    HW215770   6.873   3.784  13.964
71311SOL     OW15771  13.060   5.132   5.065
71311SOL    HW115772  13.082   5.178   4.985
71311SOL    HW215773  13.145   5.103   5.100
71312SOL     OW15774  11.194   3.188   8.735
71312SOL    HW115775  11.230   3.235   8.810
71312SOL    HW215776  11.179   3.256   8.669
71313SOL     OW15777  10.404  11.424  11.401
71313SOL    HW115778  10.381  11.511  11.435
71313SOL    HW215779  10.499  11.424  11.401
71314SOL     OW15780   4.767   1.522   3.233
71314SOL    HW115781   4.706   1.462   3.191
71314SOL    HW215782   4.740   1.609   3.205
71315SOL     OW15783   6.032   0.508   8.122
71315SOL    HW115784   6.121   0.542   8.129
71315SOL    HW215785   6.017   0.462   8.204
71316SOL     OW15786   6.417   6.657   2.694
71316SOL    HW115787   6.474   6.697   2.629
71316SOL    HW215788   6.476   6.634   2.766
71317SOL     OW15789   1.805   1.011   5.853
71317SOL    HW115790   1.896   0.981   5.853
71317SOL    HW215791   1.763   0.962   5.924
71318SOL     OW15792   5.023  12.658   9.134
71318SOL    HW115793   5.023  12.752   9.119
71318SOL    HW215794   4.967  12.646   9.211
71319SOL     OW15795   3.763  11.664  10.531
71319SOL    HW115796   3.682  11.707  10.559
71319SOL    HW215797   3.815  11.734  10.493
71320SOL     OW15798   0.089   8.161  14.752
71320SOL    HW115799   0.158   8.108  14.711
71320SOL    HW215800   0.008   8.114  14.733
71321SOL     OW15801   6.972   9.959  13.667
71321SOL    HW115802   6.923  10.017  13.608
71321SOL    HW215803   6.926   9.876  13.662
71322SOL     OW15804   2.390   5.104   8.096
71322SOL    HW115805   2.308   5.145   8.123
71322SOL    HW215806   2.365   5.014   8.072
71323SOL     OW15807   9.986   5.715  11.393
71323SOL    HW115808   9.894   5.692  11.402
71323SOL    HW215809  10.005   5.768  11.470
71324SOL     OW15810   7.798   3.304   6.225
71324SOL    HW115811   7.734   3.250   6.271
71324SOL    HW215812   7.773   3.298   6.133
71325SOL     OW15813   3.087   4.740  12.666
71325SOL    HW115814   3.026   4.812  12.651
71325SOL    HW215815   3.063   4.673  12.602
71326SOL     OW15816   2.908   6.131  13.742
71326SOL    HW115817   2.849   6.201  13.769
71326SOL    HW215818   2.855   6.052  13.745
71327SOL     OW15819   0.893   8.531   6.361
71327SOL    HW115820   0.833   8.570   6.424
71327SOL    HW215821   0.853   8.549   6.276
71328SOL     OW15822   0.514   0.997   0.385
71328SOL    HW115823   0.546   0.939   0.454
71328SOL    HW215824   0.562   0.971   0.306
71329SOL     OW15825   6.352   0.260   0.045
71329SOL    HW115826   6.364   0.265  14.823
71329SOL    HW215827   6.257   0.251   0.057
71330SOL     OW15828   5.311   8.658   5.891
71330SOL    HW115829   5.246   8.727   5.910
71330SOL    HW215830   5.375   8.666   5.961
71331SOL     OW15831  14.360   3.772  11.128
71331SOL    HW115832  14.333   3.792  11.217
71331SOL    HW215833  14.278   3.751  11.083
71332SOL     OW15834   6.142   7.340   0.954
71332SOL    HW115835   6.104   7.364   1.039
71332SOL    HW215836   6.169   7.423   0.916
71333SOL     OW15837   7.097   2.770   2.197
71333SOL    HW115838   7.110   2.818   2.115
71333SOL    HW215839   7.150   2.691   2.187
71334SOL     OW15840   5.400   4.316  13.880
71334SOL    HW115841   5.400   4.401  13.835
71334SOL    HW215842   5.360   4.335  13.965
71335SOL     OW15843   9.500   2.725  11.775
71335SOL    HW115844   9.476   2.634  11.789
71335SOL    HW215845   9.562   2.722  11.702
71336SOL     OW15846   5.813   9.872   0.081
71336SOL    HW115847   5.805   9.812   0.007
71336SOL    HW215848   5.860   9.822   0.148
71337SOL     OW15849   6.877  14.685   3.910
71337SOL    HW115850   6.953  14.630   3.930
71337SOL    HW215851   6.908  14.775   3.925
71338SOL     OW15852  12.233   3.709   5.045
71338SOL    HW115853  12.280   3.638   5.088
71338SOL    HW215854  12.187   3.754   5.116
71339SOL     OW15855   7.208   5.259  13.742
71339SOL    HW115856   7.131   5.249  13.685
71339SOL    HW215857   7.201   5.186  13.804
71340SOL     OW15858   5.654  13.525   7.602
71340SOL    HW115859   5.651  13.462   7.531
71340SOL    HW215860   5.636  13.474   7.681
71341SOL     OW15861  14.168  10.273  12.634
71341SOL    HW115862  14.125  10.307  12.555
71341SOL    HW215863  14.251  10.319  12.638
71342SOL     OW15864   6.860   5.623   6.244
71342SOL    HW115865   6.917   5.674   6.302
71342SOL    HW215866   6.914   5.551   6.213
71343SOL     OW15867  13.941   6.307   3.710
71343SOL    HW115868  13.976   6.347   3.789
71343SOL    HW215869  13.926   6.216   3.733
71344SOL     OW15870   7.357   3.563   9.517
71344SOL    HW115871   7.344   3.629   9.585
71344SOL    HW215872   7.452   3.548   9.516
71345SOL     OW15873   0.325   2.844   0.026
71345SOL    HW115874   0.379   2.861   0.104
71345SOL    HW215875   0.300   2.752   0.033
71346SOL     OW15876  13.992  10.982  13.368
71346SOL    HW115877  13.959  10.920  13.433
71346SOL    HW215878  13.996  10.932  13.286
71347SOL     OW15879   6.762   5.392  11.052
71347SOL    HW115880   6.845   5.395  11.005
71347SOL    HW215881   6.756   5.303  11.086
71348SOL     OW15882  10.761   0.680   6.901
71348SOL    HW115883  10.800   0.654   6.817
71348SOL    HW215884  10.834   0.679   6.963
71349SOL     OW15885  13.100   0.499   0.244
71349SOL    HW115886  13.147   0.571   0.285
71349SOL    HW215887  13.114   0.425   0.303
71350SOL     OW15888   3.798   7.793  12.011
71350SOL    HW115889   3.709   7.815  11.982
71350SOL    HW215890   3.800   7.697  12.011
71351SOL     OW15891  10.951  11.536   2.699
71351SOL    HW115892  11.025  11.589   2.727
71351SOL    HW215893  10.943  11.551   2.605
71352SOL     OW15894   1.006   9.935   7.138
71352SOL    HW115895   1.062  10.003   7.176
71352SOL    HW215896   0.928   9.982   7.109
71353SOL     OW15897  12.259  11.885   4.237
71353SOL    HW115898  12.353  11.890   4.256
71353SOL    HW215899  12.243  11.793   4.218
71354SOL     OW15900   5.148   7.734  11.060
71354SOL    HW115901   5.063   7.765  11.092
71354SOL    HW215902   5.129   7.653  11.014
71355SOL     OW15903   7.790   5.635  14.410
71355SOL    HW115904   7.866   5.617  14.355
71355SOL    HW215905   7.746   5.550  14.419
71356SOL     OW15906   7.736   7.023  13.927
71356SOL    HW115907   7.757   7.078  13.852
71356SOL    HW215908   7.647   6.993  13.911
71357SOL     OW15909  14.300  11.925   2.299
71357SOL    HW115910  14.268  11.870   2.370
71357SOL    HW215911  14.228  11.925   2.234
71358SOL     OW15912   6.790   6.430  14.103
71358SOL    HW115913   6.755   6.518  14.087
71358SOL    HW215914   6.872   6.445  14.150
71359SOL     OW15915   4.986   5.142  10.207
71359SOL    HW115916   4.971   5.192  10.287
71359SOL    HW215917   4.980   5.051  10.234
71360SOL     OW15918   7.620   6.722   3.693
71360SOL    HW115919   7.650   6.632   3.676
71360SOL    HW215920   7.628   6.731   3.788
71361SOL     OW15921   0.225  10.650   1.276
71361SOL    HW115922   0.254  10.711   1.207
71361SOL    HW215923   0.131  10.666   1.283
71362SOL     OW15924   6.174  13.319   1.810
71362SOL    HW115925   6.243  13.317   1.743
71362SOL    HW215926   6.124  13.398   1.790
71363SOL     OW15927   4.305  14.238   1.905
71363SOL    HW115928   4.228  14.293   1.892
71363SOL    HW215929   4.281  14.181   1.979
71364SOL     OW15930   3.763   2.341   4.073
71364SOL    HW115931   3.691   2.377   4.125
71364SOL    HW215932   3.719   2.290   4.005
71365SOL     OW15933  12.552   3.232   1.117
71365SOL    HW115934  12.521   3.258   1.204
71365SOL    HW215935  12.574   3.139   1.126
71366SOL     OW15936  12.889   0.747   3.792
71366SOL    HW115937  12.830   0.713   3.860
71366SOL    HW215938  12.848   0.721   3.710
71367SOL     OW15939  14.373   7.441  11.811
71367SOL    HW115940  14.303   7.461  11.873
71367SOL    HW215941  14.338   7.468  11.726
71368SOL     OW15942   1.010   3.353  12.516
71368SOL    HW115943   0.916   3.336  12.520
71368SOL    HW215944   1.018   3.430  12.460
71369SOL     OW15945   7.366   2.412  13.578
71369SOL    HW115946   7.307   2.337  13.581
71369SOL    HW215947   7.452   2.376  13.600
71370SOL     OW15948  11.945  10.132   4.674
71370SOL    HW115949  12.018  10.138   4.736
71370SOL    HW215950  11.894  10.057   4.705
71371SOL     OW15951   5.177   6.880   7.615
71371SOL    HW115952   5.229   6.805   7.585
71371SOL    HW215953   5.123   6.903   7.540
71372SOL     OW15954   8.179   8.487  11.638
71372SOL    HW115955   8.092   8.459  11.609
71372SOL    HW215956   8.230   8.406  11.639
71373SOL     OW15957   2.766   6.239   6.272
71373SOL    HW115958   2.789   6.284   6.191
71373SOL    HW215959   2.837   6.260   6.332
71374SOL     OW15960  10.936  12.163  14.499
71374SOL    HW115961  10.997  12.204  14.559
71374SOL    HW215962  10.906  12.084  14.545
71375SOL     OW15963   3.159   1.600   1.835
71375SOL    HW115964   3.176   1.693   1.820
71375SOL    HW215965   3.234   1.555   1.796
71376SOL     OW15966   1.907   1.904  13.718
71376SOL    HW115967   1.812   1.909  13.729
71376SOL    HW215968   1.931   1.984  13.671
71377SOL     OW15969   0.084   1.581  13.949
71377SOL    HW115970   0.144   1.583  13.875
71377SOL    HW215971   0.026   1.656  13.936
71378SOL     OW15972  12.988  12.792   0.877
71378SOL    HW115973  13.076  12.759   0.895
71378SOL    HW215974  12.930  12.733   0.926
71379SOL     OW15975   0.069   9.177   1.784
71379SOL    HW115976   0.067   9.181   1.879
71379SOL    HW215977   0.090   9.267   1.757
71380SOL     OW15978  14.223   0.717   6.082
71380SOL    HW115979  14.261   0.672   6.006
71380SOL    HW215980  14.132   0.732   6.058
71381SOL     OW15981   1.485  12.369   6.809
71381SOL    HW115982   1.413  12.415   6.852
71381SOL    HW215983   1.457  12.360   6.718
71382SOL     OW15984   4.766   9.450   0.639
71382SOL    HW115985   4.816   9.442   0.558
71382SOL    HW215986   4.681   9.411   0.619
71383SOL     OW15987   0.943   3.817   3.588
71383SOL    HW115988   1.012   3.756   3.612
71383SOL    HW215989   0.980   3.868   3.515
71384SOL     OW15990  10.314   1.377   5.234
71384SOL    HW115991  10.230   1.412   5.262
71384SOL    HW215992  10.293   1.297   5.186
71385SOL     OW15993   8.991  12.518   8.092
71385SOL    HW115994   9.067  12.479   8.048
71385SOL    HW215995   9.029  12.565   8.167
71386SOL     OW15996   3.167   7.970   1.230
71386SOL    HW115997   3.114   7.978   1.151
71386SOL    HW215998   3.123   8.028   1.293
71387SOL     OW15999   8.356  13.665   8.105
71387SOL    HW116000   8.268  13.694   8.078
71387SOL    HW216001   8.416  13.720   8.056
71388SOL     OW16002   4.605   0.300   0.119
71388SOL    HW116003   4.683   0.258   0.155
71388SOL    HW216004   4.611   0.391   0.149
71389SOL     OW16005  13.438   9.239   6.010
71389SOL    HW116006  13.515   9.254   6.065
71389SOL    HW216007  13.364   9.246   6.070
71390SOL     OW16008  14.742   9.912   1.641
71390SOL    HW116009  14.672   9.958   1.688
71390SOL    HW216010  14.812   9.903   1.706
71391SOL     OW16011  10.902  11.209   3.244
71391SOL    HW116012  10.846  11.280   3.276
71391SOL    HW216013  10.842  11.135   3.233
71392SOL     OW16014   2.520   7.729   8.410
71392SOL    HW116015   2.595   7.783   8.437
71392SOL    HW216016   2.543   7.641   8.439
71393SOL     OW16017   5.810  11.362  10.049
71393SOL    HW116018   5.888  11.307  10.057
71393SOL    HW216019   5.737  11.301  10.042
71394SOL     OW16020   3.417   7.813   4.714
71394SOL    HW116021   3.383   7.743   4.658
71394SOL    HW216022   3.499   7.840   4.672
71395SOL     OW16023   6.732  12.823   7.803
71395SOL    HW116024   6.712  12.749   7.859
71395SOL    HW216025   6.825  12.839   7.816
71396SOL     OW16026   2.180  12.542   4.801
71396SOL    HW116027   2.107  12.500   4.754
71396SOL    HW216028   2.174  12.634   4.775
71397SOL     OW16029  11.015   1.095  13.852
71397SOL    HW116030  10.992   1.186  13.834
71397SOL    HW216031  11.107   1.088  13.828
71398SOL     OW16032   2.313   2.052   3.936
71398SOL    HW116033   2.395   2.100   3.928
71398SOL    HW216034   2.324   1.976   3.879
71399SOL     OW16035  13.554  11.486   4.542
71399SOL    HW116036  13.556  11.533   4.625
71399SOL    HW216037  13.461  11.471   4.525
71400SOL     OW16038  12.747   0.209   8.202
71400SOL    HW116039  12.770   0.185   8.292
71400SOL    HW216040  12.830   0.235   8.162
71401SOL     OW16041  10.926   3.634  12.426
71401SOL    HW116042  10.892   3.722  12.414
71401SOL    HW216043  10.855   3.576  12.398
71402SOL     OW16044  11.383   3.871   8.690
71402SOL    HW116045  11.397   3.964   8.706
71402SOL    HW216046  11.459   3.843   8.640
71403SOL     OW16047  13.076   0.483   1.783
71403SOL    HW116048  13.016   0.474   1.858
71403SOL    HW216049  13.024   0.455   1.708
71404SOL     OW16050  13.325  14.540  11.297
71404SOL    HW116051  13.367  14.598  11.233
71404SOL    HW216052  13.275  14.478  11.244
71405SOL     OW16053   5.008   1.679  13.219
71405SOL    HW116054   5.041   1.723  13.298
71405SOL    HW216055   4.984   1.751  13.160
71406SOL     OW16056   0.126  13.070   3.263
71406SOL    HW116057   0.089  13.143   3.313
71406SOL    HW216058   0.219  13.069   3.287
71407SOL     OW16059   7.427   5.056  10.881
71407SOL    HW116060   7.387   5.092  10.960
71407SOL    HW216061   7.406   4.963  10.884
71408SOL     OW16062   3.015   1.960  12.803
71408SOL    HW116063   2.937   2.008  12.830
71408SOL    HW216064   3.051   1.925  12.884
71409SOL     OW16065   4.184   3.742  13.951
71409SOL    HW116066   4.183   3.765  14.044
71409SOL    HW216067   4.202   3.824  13.906
71410SOL     OW16068   0.614   0.338   5.200
71410SOL    HW116069   0.648   0.289   5.275
71410SOL    HW216070   0.523   0.310   5.192
71411SOL     OW16071   5.895  14.709   2.234
71411SOL    HW116072   5.968  14.666   2.280
71411SOL    HW216073   5.868  14.779   2.294
71412SOL     OW16074   1.078   9.387   7.064
71412SOL    HW116075   1.045   9.471   7.097
71412SOL    HW216076   1.007   9.352   7.011
71413SOL     OW16077   7.506  11.546  11.984
71413SOL    HW116078   7.568  11.617  11.971
71413SOL    HW216079   7.560  11.467  11.988
71414SOL     OW16080   4.144   8.499  10.643
71414SOL    HW116081   4.233   8.517  10.674
71414SOL    HW216082   4.088   8.523  10.717
71415SOL     OW16083   1.281  10.657   3.845
71415SOL    HW116084   1.205  10.714   3.855
71415SOL    HW216085   1.248  10.569   3.862
71416SOL     OW16086   1.596   3.539   4.587
71416SOL    HW116087   1.559   3.624   4.563
71416SOL    HW216088   1.657   3.519   4.516
71417SOL     OW16089   0.582   4.757   5.299
71417SOL    HW116090   0.532   4.834   5.273
71417SOL    HW216091   0.546   4.686   5.247
71418SOL     OW16092   8.886  14.007  13.699
71418SOL    HW116093   8.976  14.019  13.730
71418SOL    HW216094   8.862  14.093  13.665
71419SOL     OW16095  10.008   5.046   8.612
71419SOL    HW116096  10.015   4.989   8.689
71419SOL    HW216097  10.097   5.081   8.601
71420SOL     OW16098  12.982   9.621  14.301
71420SOL    HW116099  12.891   9.589  14.302
71420SOL    HW216100  13.025   9.573  14.371
71421SOL     OW16101  14.686  12.213  11.184
71421SOL    HW116102  14.711  12.284  11.124
71421SOL    HW216103  14.757  12.211  11.248
71422SOL     OW16104   4.197   1.680  10.114
71422SOL    HW116105   4.157   1.673  10.201
71422SOL    HW216106   4.281   1.723  10.130
71423SOL     OW16107  13.832  10.099  10.830
71423SOL    HW116108  13.864  10.059  10.910
71423SOL    HW216109  13.744  10.130  10.851
71424SOL     OW16110   0.642   4.350   9.817
71424SOL    HW116111   0.569   4.400   9.780
71424SOL    HW216112   0.644   4.269   9.767
71425SOL     OW16113  12.174  14.073   3.204
71425SOL    HW116114  12.182  14.051   3.111
71425SOL    HW216115  12.112  14.146   3.206
71426SOL     OW16116  10.882   6.002   4.289
71426SOL    HW116117  10.893   6.038   4.201
71426SOL    HW216118  10.907   5.910   4.280
71427SOL     OW16119   6.987  12.146  12.441
71427SOL    HW116120   6.955  12.061  12.411
71427SOL    HW216121   6.975  12.144  12.536
71428SOL     OW16122   8.246  14.294  11.048
71428SOL    HW116123   8.229  14.225  11.113
71428SOL    HW216124   8.341  14.294  11.038
71429SOL     OW16125   0.822   3.633   0.075
71429SOL    HW116126   0.754   3.590   0.023
71429SOL    HW216127   0.898   3.636   0.016
71430SOL     OW16128  12.772   9.249   7.858
71430SOL    HW116129  12.851   9.294   7.884
71430SOL    HW216130  12.706   9.318   7.850
71431SOL     OW16131   2.674   5.371  13.870
71431SOL    HW116132   2.695   5.283  13.901
71431SOL    HW216133   2.614   5.358  13.796
71432SOL     OW16134  10.025   0.492  10.147
71432SOL    HW116135  10.001   0.584  10.161
71432SOL    HW216136  10.051   0.489  10.055
71433SOL     OW16137   7.192  12.165   4.752
71433SOL    HW116138   7.100  12.149   4.733
71433SOL    HW216139   7.231  12.077   4.758
71434SOL     OW16140  10.996   7.841  12.992
71434SOL    HW116141  10.952   7.806  13.070
71434SOL    HW216142  11.089   7.840  13.014
71435SOL     OW16143   1.930   3.026   7.932
71435SOL    HW116144   1.892   2.962   7.873
71435SOL    HW216145   2.024   3.022   7.916
71436SOL     OW16146   7.268   4.832   5.156
71436SOL    HW116147   7.229   4.919   5.165
71436SOL    HW216148   7.356   4.849   5.121
71437SOL     OW16149   4.490   2.009   8.974
71437SOL    HW116150   4.470   1.956   8.897
71437SOL    HW216151   4.523   1.947   9.039
71438SOL     OW16152   4.608  14.447  10.875
71438SOL    HW116153   4.677  14.508  10.901
71438SOL    HW216154   4.566  14.422  10.957
71439SOL     OW16155   0.876   6.202   4.532
71439SOL    HW116156   0.838   6.212   4.445
71439SOL    HW216157   0.801   6.183   4.589
71440SOL     OW16158  14.075  11.086  11.220
71440SOL    HW116159  14.004  11.038  11.176
71440SOL    HW216160  14.044  11.177  11.221
71441SOL     OW16161  14.277   3.164  10.635
71441SOL    HW116162  14.198   3.152  10.582
71441SOL    HW216163  14.325   3.234  10.591
71442SOL     OW16164  12.367   2.882  14.430
71442SOL    HW116165  12.310   2.862  14.356
71442SOL    HW216166  12.310   2.880  14.507
71443SOL     OW16167  14.122   0.500   8.052
71443SOL    HW116168  14.044   0.526   8.101
71443SOL    HW216169  14.195   0.544   8.096
71444SOL     OW16170  12.551   4.909   5.446
71444SOL    HW116171  12.552   5.003   5.464
71444SOL    HW216172  12.508   4.869   5.522
71445SOL     OW16173   2.350   1.871   8.178
71445SOL    HW116174   2.397   1.788   8.173
71445SOL    HW216175   2.375   1.908   8.262
71446SOL     OW16176   1.117   0.220   4.013
71446SOL    HW116177   1.199   0.170   4.008
71446SOL    HW216178   1.113   0.266   3.929
71447SOL     OW16179   8.239  10.139   4.759
71447SOL    HW116180   8.325  10.179   4.771
71447SOL    HW216181   8.254  10.046   4.774
71448SOL     OW16182   2.585   0.611   3.577
71448SOL    HW116183   2.510   0.555   3.558
71448SOL    HW216184   2.628   0.569   3.652
71449SOL     OW16185  13.960   2.876   9.401
71449SOL    HW116186  13.991   2.825   9.326
71449SOL    HW216187  14.019   2.951   9.405
71450SOL     OW16188  10.413   4.475   4.740
71450SOL    HW116189  10.402   4.446   4.649
71450SOL    HW216190  10.501   4.446   4.763
71451SOL     OW16191   0.589   2.133   5.206
71451SOL    HW116192   0.631   2.204   5.158
71451SOL    HW216193   0.649   2.113   5.278
71452SOL     OW16194  13.961   1.350  14.454
71452SOL    HW116195  13.868   1.345  14.475
71452SOL    HW216196  14.003   1.374  14.537
71453SOL     OW16197   3.077   3.933  13.917
71453SOL    HW116198   3.004   3.871  13.912
71453SOL    HW216199   3.140   3.901  13.853
71454SOL     OW16200   4.814   9.696   9.240
71454SOL    HW116201   4.822   9.633   9.311
71454SOL    HW216202   4.902   9.701   9.202
71455SOL     OW16203  10.861  13.072  13.345
71455SOL    HW116204  10.880  13.000  13.285
71455SOL    HW216205  10.936  13.073  13.406
71456SOL     OW16206   1.511  12.628   3.817
71456SOL    HW116207   1.557  12.675   3.747
71456SOL    HW216208   1.581  12.600   3.876
71457SOL     OW16209  12.328  13.567   4.627
71457SOL    HW116210  12.350  13.587   4.718
71457SOL    HW216211  12.404  13.597   4.577
71458SOL     OW16212   1.852   7.498  11.214
71458SOL    HW116213   1.922   7.435  11.203
71458SOL    HW216214   1.773   7.445  11.224
71459SOL     OW16215   0.556   9.007   4.635
71459SOL    HW116216   0.461   9.019   4.626
71459SOL    HW216217   0.592   9.032   4.550
71460SOL     OW16218   2.991   6.998   9.936
71460SOL    HW116219   2.998   7.085   9.896
71460SOL    HW216220   2.916   7.005   9.996
71461SOL     OW16221  14.814   8.568   8.041
71461SOL    HW116222  14.742   8.547   8.100
71461SOL    HW216223   0.020   8.556   8.095
71462SOL     OW16224   5.637   2.228   1.738
71462SOL    HW116225   5.557   2.234   1.790
71462SOL    HW216226   5.630   2.299   1.675
71463SOL     OW16227   3.332   8.764   4.357
71463SOL    HW116228   3.299   8.853   4.370
71463SOL    HW216229   3.413   8.776   4.307
71464SOL     OW16230   0.450  12.359   5.407
71464SOL    HW116231   0.418  12.364   5.317
71464SOL    HW216232   0.379  12.396   5.460
71465SOL     OW16233  10.528  14.746  12.740
71465SOL    HW116234  10.481  14.802  12.679
71465SOL    HW216235  10.522  14.658  12.703
71466SOL     OW16236  12.297   0.848  12.977
71466SOL    HW116237  12.313   0.885  13.064
71466SOL    HW216238  12.363   0.888  12.921
71467SOL     OW16239  11.214   5.918  12.063
71467SOL    HW116240  11.248   5.968  12.138
71467SOL    HW216241  11.186   5.984  12.001
71468SOL     OW16242   8.994   4.131  14.455
71468SOL    HW116243   9.011   4.196  14.523
71468SOL    HW216244   9.081   4.100  14.429
71469SOL     OW16245   0.215   6.024  10.580
71469SOL    HW116246   0.291   6.055  10.630
71469SOL    HW216247   0.226   6.062  10.493
71470SOL     OW16248  14.801   9.138  13.078
71470SOL    HW116249  14.749   9.123  13.000
71470SOL    HW216250  14.758   9.212  13.122
71471SOL     OW16251  12.672  13.847   0.839
71471SOL    HW116252  12.597  13.893   0.801
71471SOL    HW216253  12.667  13.759   0.802
71472SOL     OW16254   0.627   1.141  14.282
71472SOL    HW116255   0.705   1.115  14.330
71472SOL    HW216256   0.654   1.216  14.230
71473SOL     OW16257   4.659   7.074   1.955
71473SOL    HW116258   4.658   7.018   1.877
71473SOL    HW216259   4.628   7.159   1.924
71474SOL     OW16260  10.214  10.015   5.984
71474SOL    HW116261  10.275   9.988   6.052
71474SOL    HW216262  10.269  10.044   5.911
71475SOL     OW16263  13.344   8.610   3.870
71475SOL    HW116264  13.300   8.668   3.807
71475SOL    HW216265  13.401   8.668   3.920
71476SOL     OW16266  14.248   2.694  14.440
71476SOL    HW116267  14.261   2.605  14.471
71476SOL    HW216268  14.308   2.704  14.366
71477SOL     OW16269  11.361   2.148   9.443
71477SOL    HW116270  11.402   2.091   9.508
71477SOL    HW216271  11.333   2.224   9.493
71478SOL     OW16272  11.664   1.178  10.237
71478SOL    HW116273  11.627   1.093  10.258
71478SOL    HW216274  11.588   1.235  10.225
71479SOL     OW16275   9.357  11.140   5.520
71479SOL    HW116276   9.337  11.061   5.569
71479SOL    HW216277   9.272  11.172   5.489
71480SOL     OW16278   5.031   0.106   1.362
71480SOL    HW116279   5.124   0.121   1.377
71480SOL    HW216280   5.027   0.060   1.278
71481SOL     OW16281  12.675   5.186  11.823
71481SOL    HW116282  12.692   5.240  11.900
71481SOL    HW216283  12.681   5.248  11.750
71482SOL     OW16284  12.913   7.305   3.587
71482SOL    HW116285  12.906   7.362   3.510
71482SOL    HW216286  12.964   7.357   3.650
71483SOL     OW16287   5.855   3.170  11.708
71483SOL    HW116288   5.889   3.102  11.765
71483SOL    HW216289   5.880   3.143  11.620
71484SOL     OW16290   7.702  11.501  13.648
71484SOL    HW116291   7.791  11.467  13.642
71484SOL    HW216292   7.709  11.593  13.622
71485SOL     OW16293  10.566   7.414   9.525
71485SOL    HW116294  10.504   7.385   9.459
71485SOL    HW216295  10.650   7.419   9.478
71486SOL     OW16296   2.986   8.795  11.216
71486SOL    HW116297   2.927   8.855  11.261
71486SOL    HW216298   3.013   8.733  11.283
71487SOL     OW16299   9.165  11.332  14.521
71487SOL    HW116300   9.138  11.394  14.588
71487SOL    HW216301   9.166  11.383  14.440
71488SOL     OW16302  11.761   0.567   2.239
71488SOL    HW116303  11.791   0.637   2.181
71488SOL    HW216304  11.750   0.610   2.324
71489SOL     OW16305   4.286  13.212   3.764
71489SOL    HW116306   4.281  13.292   3.816
71489SOL    HW216307   4.290  13.142   3.829
71490SOL     OW16308   1.023  11.595  12.092
71490SOL    HW116309   1.011  11.682  12.054
71490SOL    HW216310   1.087  11.552  12.034
71491SOL     OW16311   3.251  10.252  12.920
71491SOL    HW116312   3.341  10.261  12.887
71491SOL    HW216313   3.260  10.198  12.999
71492SOL     OW16314  14.662   7.368   8.170
71492SOL    HW116315  14.677   7.429   8.098
71492SOL    HW216316  14.609   7.298   8.133
71493SOL     OW16317   0.489   6.293   9.356
71493SOL    HW116318   0.575   6.271   9.321
71493SOL    HW216319   0.506   6.359   9.423
71494SOL     OW16320  12.283   7.881  11.605
71494SOL    HW116321  12.195   7.905  11.636
71494SOL    HW216322  12.339   7.950  11.640
71495SOL     OW16323   1.829  14.272   6.137
71495SOL    HW116324   1.779  14.347   6.169
71495SOL    HW216325   1.814  14.203   6.201
71496SOL     OW16326  10.711   3.384  11.467
71496SOL    HW116327  10.775   3.354  11.402
71496SOL    HW216328  10.722   3.479  11.470
71497SOL     OW16329  10.443   5.689  13.146
71497SOL    HW116330  10.417   5.654  13.061
71497SOL    HW216331  10.447   5.784  13.133
71498SOL     OW16332   2.126  12.530  12.919
71498SOL    HW116333   2.159  12.440  12.909
71498SOL    HW216334   2.198  12.586  12.891
71499SOL     OW16335   3.317  13.614  11.749
71499SOL    HW116336   3.275  13.671  11.684
71499SOL    HW216337   3.248  13.597  11.813
71500SOL     OW16338   4.135   2.059   8.088
71500SOL    HW116339   4.168   2.112   8.159
71500SOL    HW216340   4.211   2.041   8.033
71501SOL     OW16341   4.373   2.957   1.059
71501SOL    HW116342   4.368   2.990   0.969
71501SOL    HW216343   4.284   2.965   1.092
71502SOL     OW16344   5.857   5.312   7.130
71502SOL    HW116345   5.919   5.279   7.196
71502SOL    HW216346   5.798   5.369   7.179
71503SOL     OW16347   7.080  14.432   0.172
71503SOL    HW116348   7.061  14.518   0.210
71503SOL    HW216349   7.043  14.370   0.235
71504SOL     OW16350   3.382   2.878   8.056
71504SOL    HW116351   3.332   2.896   8.135
71504SOL    HW216352   3.360   2.788   8.034
71505SOL     OW16353  10.878  10.991   1.418
71505SOL    HW116354  10.841  11.061   1.364
71505SOL    HW216355  10.894  10.920   1.356
71506SOL     OW16356   7.690  12.736  13.230
71506SOL    HW116357   7.603  12.738  13.271
71506SOL    HW216358   7.674  12.698  13.144
71507SOL     OW16359  12.463   0.603  14.386
71507SOL    HW116360  12.543   0.641  14.349
71507SOL    HW216361  12.428   0.671  14.443
71508SOL     OW16362  14.550   1.019   1.754
71508SOL    HW116363  14.586   0.940   1.714
71508SOL    HW216364  14.531   0.994   1.844
71509SOL     OW16365   4.829   6.068  11.649
71509SOL    HW116366   4.852   6.127  11.577
71509SOL    HW216367   4.906   6.012  11.661
71510SOL     OW16368  14.466   0.335   3.291
71510SOL    HW116369  14.447   0.405   3.229
71510SOL    HW216370  14.453   0.375   3.377
71511SOL     OW16371   9.777   0.120  10.836
71511SOL    HW116372   9.762   0.160  10.750
71511SOL    HW216373   9.872   0.122  10.847
71512SOL     OW16374  10.670  14.812  13.978
71512SOL    HW116375  10.592  14.758  13.992
71512SOL    HW216376  10.698  14.837  14.066
71513SOL     OW16377   9.155   6.465  10.298
71513SOL    HW116378   9.123   6.450  10.386
71513SOL    HW216379   9.104   6.540  10.266
71514SOL     OW16380  12.212  10.307  14.398
71514SOL    HW116381  12.186  10.375  14.460
71514SOL    HW216382  12.288  10.344  14.353
71515SOL     OW16383   6.996   8.543  11.166
71515SOL    HW116384   6.965   8.532  11.076
71515SOL    HW216385   7.069   8.482  11.175
71516SOL     OW16386   2.101  13.604   7.691
71516SOL    HW116387   2.062  13.553   7.620
71516SOL    HW216388   2.154  13.540   7.739
71517SOL     OW16389  14.783   1.150   0.426
71517SOL    HW116390  14.798   1.081   0.491
71517SOL    HW216391  14.845   1.132   0.356
71518SOL     OW16392   0.729   7.460   0.270
71518SOL    HW116393   0.670   7.534   0.257
71518SOL    HW216394   0.700   7.420   0.351
71519SOL     OW16395   7.449  13.340   0.445
71519SOL    HW116396   7.372  13.368   0.396
71519SOL    HW216397   7.479  13.419   0.490
71520SOL     OW16398   0.566   0.744   0.230
71520SOL    HW116399   0.526   0.666   0.269
71520SOL    HW216400   0.508   0.768   0.158
71521SOL     OW16401   5.038   2.407   3.672
71521SOL    HW116402   4.980   2.458   3.729
71521SOL    HW216403   5.126   2.427   3.703
71522SOL     OW16404  10.421   5.413  10.327
71522SOL    HW116405  10.334   5.435  10.294
71522SOL    HW216406  10.432   5.467  10.405
71523SOL     OW16407  12.216  13.956   7.649
71523SOL    HW116408  12.284  13.984   7.711
71523SOL    HW216409  12.185  13.873   7.684
71524SOL     OW16410   2.943  11.978  12.016
71524SOL    HW116411   2.907  12.063  11.991
71524SOL    HW216412   2.912  11.918  11.948
71525SOL     OW16413   5.954   1.497  11.089
71525SOL    HW116414   5.929   1.408  11.113
71525SOL    HW216415   5.980   1.490  10.997
71526SOL     OW16416  11.585   0.365  14.616
71526SOL    HW116417  11.635   0.292  14.651
71526SOL    HW216418  11.502   0.362  14.663
71527SOL     OW16419   1.007  12.832  13.220
71527SOL    HW116420   1.030  12.760  13.279
71527SOL    HW216421   0.919  12.810  13.190
71528SOL     OW16422   8.647   3.151   9.091
71528SOL    HW116423   8.687   3.145   9.178
71528SOL    HW216424   8.656   3.243   9.067
71529SOL     OW16425   6.304  12.265  13.204
71529SOL    HW116426   6.356  12.191  13.173
71529SOL    HW216427   6.252  12.291  13.128
71530SOL     OW16428   0.792  10.353   4.849
71530SOL    HW116429   0.701  10.331   4.870
71530SOL    HW216430   0.840  10.272   4.865
71531SOL     OW16431  12.299  10.671   4.837
71531SOL    HW116432  12.297  10.693   4.744
71531SOL    HW216433  12.378  10.714   4.870
71532SOL     OW16434   6.485   0.177  10.479
71532SOL    HW116435   6.473   0.239  10.407
71532SOL    HW216436   6.433   0.101  10.454
71533SOL     OW16437   4.808  13.664  10.108
71533SOL    HW116438   4.854  13.733  10.060
71533SOL    HW216439   4.729  13.707  10.142
71534SOL     OW16440   9.882   2.676  12.671
71534SOL    HW116441   9.868   2.625  12.751
71534SOL    HW216442   9.871   2.613  12.600
71535SOL     OW16443   5.613   1.929   7.822
71535SOL    HW116444   5.620   1.885   7.907
71535SOL    HW216445   5.699   1.969   7.809
71536SOL     OW16446   2.156   2.410  11.740
71536SOL    HW116447   2.075   2.455  11.715
71536SOL    HW216448   2.212   2.418  11.662
71537SOL     OW16449   4.842   3.320   3.967
71537SOL    HW116450   4.913   3.279   4.018
71537SOL    HW216451   4.849   3.279   3.881
71538SOL     OW16452  10.535  13.572   2.150
71538SOL    HW116453  10.555  13.624   2.073
71538SOL    HW216454  10.465  13.512   2.121
71539SOL     OW16455  11.980   3.302   4.940
71539SOL    HW116456  11.993   3.376   4.999
71539SOL    HW216457  11.925   3.337   4.869
71540SOL     OW16458   0.308   3.295  13.295
71540SOL    HW116459   0.226   3.295  13.344
71540SOL    HW216460   0.302   3.372  13.238
71541SOL     OW16461  10.772   4.118   8.506
71541SOL    HW116462  10.809   4.130   8.594
71541SOL    HW216463  10.773   4.023   8.492
71542SOL     OW16464   4.997  10.872   1.030
71542SOL    HW116465   5.049  10.864   0.950
71542SOL    HW216466   5.054  10.839   1.099
71543SOL     OW16467   3.193   1.249   3.841
71543SOL    HW116468   3.166   1.173   3.788
71543SOL    HW216469   3.111   1.289   3.868
71544SOL     OW16470   6.368   2.825   7.298
71544SOL    HW116471   6.354   2.734   7.322
71544SOL    HW216472   6.288   2.851   7.253
71545SOL     OW16473   3.131   4.474   2.287
71545SOL    HW116474   3.172   4.394   2.252
71545SOL    HW216475   3.048   4.480   2.241
71546SOL     OW16476  12.007  13.562   4.151
71546SOL    HW116477  11.931  13.563   4.210
71546SOL    HW216478  12.075  13.610   4.199
71547SOL     OW16479   8.336  14.216   1.316
71547SOL    HW116480   8.260  14.190   1.367
71547SOL    HW216481   8.302  14.276   1.250
71548SOL     OW16482  10.896   2.710   6.713
71548SOL    HW116483  10.978   2.730   6.759
71548SOL    HW216484  10.856   2.796   6.697
71549SOL     OW16485  13.138   7.320  13.325
71549SOL    HW116486  13.102   7.350  13.242
71549SOL    HW216487  13.126   7.394  13.385
71550SOL     OW16488   1.301   8.014   5.406
71550SOL    HW116489   1.384   8.053   5.376
71550SOL    HW216490   1.234   8.067   5.364
71551SOL     OW16491   8.286   8.236   5.683
71551SOL    HW116492   8.344   8.166   5.655
71551SOL    HW216493   8.261   8.281   5.603
71552SOL     OW16494   4.709   9.334  14.036
71552SOL    HW116495   4.675   9.353  13.948
71552SOL    HW216496   4.770   9.406  14.053
71553SOL     OW16497  12.697   1.130   9.329
71553SOL    HW116498  12.730   1.110   9.416
71553SOL    HW216499  12.691   1.225   9.326
71554SOL     OW16500  13.674   7.139   5.949
71554SOL    HW116501  13.721   7.095   6.020
71554SOL    HW216502  13.595   7.174   5.991
71555SOL     OW16503   5.139  13.652   6.217
71555SOL    HW116504   5.083  13.727   6.234
71555SOL    HW216505   5.086  13.595   6.160
71556SOL     OW16506   6.642  14.488  12.848
71556SOL    HW116507   6.556  14.463  12.815
71556SOL    HW216508   6.685  14.530  12.774
71557SOL     OW16509   6.897   4.179   3.654
71557SOL    HW116510   6.985   4.214   3.663
71557SOL    HW216511   6.904   4.088   3.684
71558SOL     OW16512  13.517   1.586  14.193
71558SOL    HW116513  13.545   1.531  14.120
71558SOL    HW216514  13.594   1.640  14.213
71559SOL     OW16515   2.493   6.398   7.964
71559SOL    HW116516   2.504   6.324   7.903
71559SOL    HW216517   2.476   6.473   7.907
71560SOL     OW16518  14.083  12.326   0.634
71560SOL    HW116519  14.099  12.325   0.728
71560SOL    HW216520  13.988  12.326   0.625
71561SOL     OW16521   0.184  13.727   8.846
71561SOL    HW116522   0.260  13.759   8.797
71561SOL    HW216523   0.160  13.801   8.902
71562SOL     OW16524   2.562   3.484   0.323
71562SOL    HW116525   2.488   3.468   0.383
71562SOL    HW216526   2.584   3.576   0.337
71563SOL     OW16527  11.806   1.615   0.224
71563SOL    HW116528  11.821   1.612   0.318
71563SOL    HW216529  11.713   1.594   0.214
71564SOL     OW16530   0.546   9.954  12.652
71564SOL    HW116531   0.477   9.995  12.600
71564SOL    HW216532   0.506   9.940  12.738
71565SOL     OW16533   7.274   8.827   7.250
71565SOL    HW116534   7.313   8.900   7.202
71565SOL    HW216535   7.203   8.867   7.300
71566SOL     OW16536   4.594   1.891   9.955
71566SOL    HW116537   4.506   1.877   9.918
71566SOL    HW216538   4.642   1.812   9.932
71567SOL     OW16539  13.655   9.217   5.194
71567SOL    HW116540  13.701   9.267   5.261
71567SOL    HW216541  13.624   9.139   5.239
71568SOL     OW16542   3.945   1.711   9.187
71568SOL    HW116543   3.913   1.789   9.141
71568SOL    HW216544   4.009   1.672   9.127
71569SOL     OW16545  10.061   1.400   7.105
71569SOL    HW116546   9.988   1.365   7.054
71569SOL    HW216547  10.092   1.326   7.156
71570SOL     OW16548   3.498   7.936  14.328
71570SOL    HW116549   3.585   7.929  14.287
71570SOL    HW216550   3.505   7.883  14.407
71571SOL     OW16551  10.335  14.709   5.175
71571SOL    HW116552  10.361  14.634   5.122
71571SOL    HW216553  10.340  14.784   5.116
71572SOL     OW16554  13.633  10.161  13.643
71572SOL    HW116555  13.717  10.200  13.618
71572SOL    HW216556  13.576  10.236  13.659
71573SOL     OW16557   9.428   3.851  13.050
71573SOL    HW116558   9.353   3.874  13.105
71573SOL    HW216559   9.400   3.875  12.961
71574SOL     OW16560   6.561  14.288  11.536
71574SOL    HW116561   6.486  14.348  11.538
71574SOL    HW216562   6.637  14.346  11.527
71575SOL     OW16563   6.810  13.492  12.526
71575SOL    HW116564   6.795  13.507  12.433
71575SOL    HW216565   6.736  13.439  12.555
71576SOL     OW16566   1.204   3.375   0.850
71576SOL    HW116567   1.140   3.439   0.880
71576SOL    HW216568   1.158   3.327   0.781
71577SOL     OW16569   2.304   8.677   7.324
71577SOL    HW116570   2.213   8.700   7.346
71577SOL    HW216571   2.357   8.732   7.382
71578SOL     OW16572  14.208   2.062   0.690
71578SOL    HW116573  14.127   2.012   0.702
71578SOL    HW216574  14.229   2.052   0.597
71579SOL     OW16575   9.913   7.398   1.649
71579SOL    HW116576   9.869   7.322   1.613
71579SOL    HW216577  10.002   7.369   1.668
71580SOL     OW16578   3.952  13.752  10.659
71580SOL    HW116579   3.982  13.837  10.627
71580SOL    HW216580   3.893  13.773  10.731
71581SOL     OW16581  10.278   3.198   3.081
71581SOL    HW116582  10.252   3.229   3.168
71581SOL    HW216583  10.369   3.170   3.091
71582SOL     OW16584   5.155   5.987   1.609
71582SOL    HW116585   5.136   5.964   1.518
71582SOL    HW216586   5.217   5.921   1.639
71583SOL     OW16587   1.294  12.904   2.275
71583SOL    HW116588   1.330  12.831   2.224
71583SOL    HW216589   1.356  12.917   2.346
71584SOL     OW16590   9.043   1.753  14.017
71584SOL    HW116591   9.093   1.752  14.098
71584SOL    HW216592   9.108   1.750  13.948
71585SOL     OW16593  14.339   8.330  10.924
71585SOL    HW116594  14.280   8.333  10.848
71585SOL    HW216595  14.293   8.379  10.992
71586SOL     OW16596   5.568   9.545  11.535
71586SOL    HW116597   5.656   9.512  11.515
71586SOL    HW216598   5.545   9.601  11.461
71587SOL     OW16599  11.907   0.545   8.913
71587SOL    HW116600  11.977   0.610   8.918
71587SOL    HW216601  11.953   0.461   8.910
71588SOL     OW16602   7.283  10.266  10.019
71588SOL    HW116603   7.308  10.334  10.082
71588SOL    HW216604   7.359  10.258   9.961
71589SOL     OW16605   2.507   7.567   9.604
71589SOL    HW116606   2.444   7.536   9.669
71589SOL    HW216607   2.473   7.651   9.575
71590SOL     OW16608   2.835   8.339  13.855
71590SOL    HW116609   2.863   8.325  13.764
71590SOL    HW216610   2.909   8.382  13.897
71591SOL     OW16611   9.166   4.093   4.347
71591SOL    HW116612   9.103   4.031   4.311
71591SOL    HW216613   9.228   4.109   4.275
71592SOL     OW16614   7.321  10.655  14.224
71592SOL    HW116615   7.308  10.746  14.196
71592SOL    HW216616   7.238  10.612  14.204
71593SOL     OW16617   4.952   2.217   5.347
71593SOL    HW116618   4.905   2.299   5.333
71593SOL    HW216619   5.041   2.234   5.315
71594SOL     OW16620   4.844   8.263   3.245
71594SOL    HW116621   4.820   8.347   3.285
71594SOL    HW216622   4.938   8.254   3.263
71595SOL     OW16623   8.736   2.791   2.821
71595SOL    HW116624   8.755   2.877   2.783
71595SOL    HW216625   8.650   2.800   2.861
71596SOL     OW16626  10.934   5.188   3.016
71596SOL    HW116627  10.851   5.169   3.060
71596SOL    HW216628  10.920   5.157   2.926
71597SOL     OW16629  13.305   5.192   7.708
71597SOL    HW116630  13.253   5.272   7.701
71597SOL    HW216631  13.340   5.193   7.797
71598SOL     OW16632  14.239   1.255  12.167
71598SOL    HW116633  14.185   1.192  12.214
71598SOL    HW216634  14.310   1.203  12.130
71599SOL     OW16635   6.134   5.114   3.697
71599SOL    HW116636   6.197   5.102   3.769
71599SOL    HW216637   6.075   5.039   3.705
71600SOL     OW16638   1.965  12.213   9.854
71600SOL    HW116639   1.923  12.151   9.914
71600SOL    HW216640   1.909  12.213   9.776
71601SOL     OW16641   7.427   9.211   2.626
71601SOL    HW116642   7.467   9.240   2.708
71601SOL    HW216643   7.419   9.291   2.574
71602SOL     OW16644  10.176   3.289   8.656
71602SOL    HW116645  10.190   3.383   8.645
71602SOL    HW216646  10.083   3.276   8.639
71603SOL     OW16647  12.130   5.128  14.453
71603SOL    HW116648  12.193   5.200  14.441
71603SOL    HW216649  12.164   5.058  14.397
71604SOL     OW16650   1.268  13.427  10.930
71604SOL    HW116651   1.266  13.499  10.868
71604SOL    HW216652   1.176  13.408  10.947
71605SOL     OW16653   9.570   5.360   2.170
71605SOL    HW116654   9.523   5.305   2.108
71605SOL    HW216655   9.502   5.404   2.220
71606SOL     OW16656   5.537   1.967   5.297
71606SOL    HW116657   5.607   2.028   5.273
71606SOL    HW216658   5.567   1.883   5.261
71607SOL     OW16659   0.292   5.156   3.450
71607SOL    HW116660   0.221   5.141   3.512
71607SOL    HW216661   0.250   5.190   3.371
71608SOL     OW16662   3.570  14.704   3.336
71608SOL    HW116663   3.579  14.793   3.301
71608SOL    HW216664   3.657  14.684   3.372
71609SOL     OW16665   5.153   7.158   3.116
71609SOL    HW116666   5.227   7.109   3.153
71609SOL    HW216667   5.182   7.249   3.115
71610SOL     OW16668   0.776   4.921   8.413
71610SOL    HW116669   0.824   4.997   8.380
71610SOL    HW216670   0.685   4.938   8.389
71611SOL     OW16671   6.485   5.879  11.238
71611SOL    HW116672   6.541   5.956  11.241
71611SOL    HW216673   6.459   5.871  11.146
71612SOL     OW16674   3.125   1.981  10.817
71612SOL    HW116675   3.126   2.077  10.819
71612SOL    HW216676   3.120   1.955  10.909
71613SOL     OW16677   1.724   4.960   1.810
71613SOL    HW116678   1.731   4.953   1.906
71613SOL    HW216679   1.663   5.033   1.796
71614SOL     OW16680  12.154  10.507   9.474
71614SOL    HW116681  12.106  10.425   9.485
71614SOL    HW216682  12.104  10.555   9.408
71615SOL     OW16683  11.963  12.815   4.938
71615SOL    HW116684  11.962  12.829   4.843
71615SOL    HW216685  12.034  12.871   4.970
71616SOL     OW16686  12.413  10.635  12.425
71616SOL    HW116687  12.339  10.692  12.441
71616SOL    HW216688  12.399  10.560  12.482
71617SOL     OW16689  13.834  12.094   3.174
71617SOL    HW116690  13.768  12.150   3.133
71617SOL    HW216691  13.892  12.069   3.102
71618SOL     OW16692   1.347  13.336   7.998
71618SOL    HW116693   1.386  13.420   7.975
71618SOL    HW216694   1.336  13.340   8.093
71619SOL     OW16695  10.915  13.014  10.064
71619SOL    HW116696  10.916  13.102  10.101
71619SOL    HW216697  10.898  13.027   9.971
71620SOL     OW16698   9.776   2.170   3.783
71620SOL    HW116699   9.682   2.184   3.795
71620SOL    HW216700   9.795   2.088   3.829
71621SOL     OW16701   5.101  13.593   3.069
71621SOL    HW116702   5.064  13.664   3.016
71621SOL    HW216703   5.174  13.559   3.016
71622SOL     OW16704   1.549  13.627   2.505
71622SOL    HW116705   1.596  13.544   2.515
71622SOL    HW216706   1.471  13.605   2.454
71623SOL     OW16707  12.629   9.258   6.150
71623SOL    HW116708  12.657   9.263   6.058
71623SOL    HW216709  12.707   9.283   6.200
71624SOL     OW16710  10.329   5.691  11.590
71624SOL    HW116711  10.383   5.653  11.521
71624SOL    HW216712  10.364   5.655  11.671
71625SOL     OW16713  13.495   7.375   7.539
71625SOL    HW116714  13.424   7.333   7.490
71625SOL    HW216715  13.534   7.436   7.477
71626SOL     OW16716   2.544   6.790  10.165
71626SOL    HW116717   2.517   6.702  10.141
71626SOL    HW216718   2.485   6.815  10.237
71627SOL     OW16719  10.148   7.533   4.480
71627SOL    HW116720  10.215   7.580   4.431
71627SOL    HW216721  10.069   7.540   4.426
71628SOL     OW16722  13.009   6.275   9.944
71628SOL    HW116723  12.986   6.183   9.937
71628SOL    HW216724  13.043   6.298   9.858
71629SOL     OW16725  11.256  12.359   1.224
71629SOL    HW116726  11.170  12.386   1.191
71629SOL    HW216727  11.317  12.424   1.188
71630SOL     OW16728   0.008   4.510  11.356
71630SOL    HW116729  14.806   4.543  11.405
71630SOL    HW216730   0.056   4.455  11.418
71631SOL     OW16731   7.277   3.962   5.509
71631SOL    HW116732   7.347   3.930   5.566
71631SOL    HW216733   7.261   3.890   5.448
71632SOL     OW16734   3.367   1.624  14.847
71632SOL    HW116735   3.421   1.636   0.052
71632SOL    HW216736   3.302   1.559  14.872
71633SOL     OW16737  12.099   6.417   6.275
71633SOL    HW116738  12.178   6.395   6.226
71633SOL    HW216739  12.051   6.478   6.219
71634SOL     OW16740  14.848  14.220   1.869
71634SOL    HW116741   0.034  14.158   1.827
71634SOL    HW216742  14.761  14.180   1.857
71635SOL     OW16743   0.179   7.752  11.871
71635SOL    HW116744   0.091   7.788  11.868
71635SOL    HW216745   0.236   7.823  11.840
71636SOL     OW16746   3.873  12.754  10.793
71636SOL    HW116747   3.967  12.775  10.792
71636SOL    HW216748   3.859  12.713  10.879
71637SOL     OW16749   4.912  10.191   7.347
71637SOL    HW116750   4.856  10.266   7.329
71637SOL    HW216751   4.852  10.118   7.359
71638SOL     OW16752   5.247   1.443   4.088
71638SOL    HW116753   5.341   1.433   4.108
71638SOL    HW216754   5.245   1.497   4.009
71639SOL     OW16755   3.295   1.130  14.583
71639SOL    HW116756   3.369   1.189  14.564
71639SOL    HW216757   3.224   1.164  14.529
71640SOL     OW16758   9.215   5.804   1.796
71640SOL    HW116759   9.152   5.829   1.728
71640SOL    HW216760   9.265   5.732   1.758
71641SOL     OW16761   9.390  12.687   9.378
71641SOL    HW116762   9.448  12.697   9.453
71641SOL    HW216763   9.366  12.776   9.353
71642SOL     OW16764  10.729   7.116   4.704
71642SOL    HW116765  10.643   7.143   4.671
71642SOL    HW216766  10.789   7.138   4.634
71643SOL     OW16767   6.433  10.439   3.305
71643SOL    HW116768   6.499  10.375   3.331
71643SOL    HW216769   6.410  10.484   3.386
71644SOL     OW16770   4.427  10.410   7.020
71644SOL    HW116771   4.343  10.415   7.066
71644SOL    HW216772   4.457  10.501   7.014
71645SOL     OW16773  11.281   5.842   1.234
71645SOL    HW116774  11.186   5.852   1.245
71645SOL    HW216775  11.290   5.786   1.158
71646SOL     OW16776   7.076   5.560   7.199
71646SOL    HW116777   7.038   5.619   7.264
71646SOL    HW216778   7.004   5.501   7.176
71647SOL     OW16779  11.968  13.024   3.106
71647SOL    HW116780  11.893  13.081   3.088
71647SOL    HW216781  11.999  13.052   3.192
71648SOL     OW16782  11.995  11.995  10.283
71648SOL    HW116783  12.029  11.939  10.213
71648SOL    HW216784  12.060  11.989  10.353
71649SOL     OW16785   2.561   5.123   0.126
71649SOL    HW116786   2.611   5.201   0.101
71649SOL    HW216787   2.614   5.082   0.194
71650SOL     OW16788   3.106   1.937   4.049
71650SOL    HW116789   3.103   1.994   4.127
71650SOL    HW216790   3.176   1.975   3.996
71651SOL     OW16791   4.231   7.608   8.188
71651SOL    HW116792   4.296   7.660   8.235
71651SOL    HW216793   4.147   7.641   8.219
71652SOL     OW16794  13.376   5.070   0.341
71652SOL    HW116795  13.378   5.135   0.271
71652SOL    HW216796  13.445   5.008   0.318
71653SOL     OW16797   0.314  13.653  12.516
71653SOL    HW116798   0.287  13.736  12.557
71653SOL    HW216799   0.289  13.662  12.424
71654SOL     OW16800   4.640  10.761   6.520
71654SOL    HW116801   4.707  10.820   6.486
71654SOL    HW216802   4.557  10.798   6.488
71655SOL     OW16803   0.360   5.537   5.269
71655SOL    HW116804   0.368   5.549   5.174
71655SOL    HW216805   0.435   5.483   5.293
71656SOL     OW16806   0.326  10.126   5.161
71656SOL    HW116807   0.328  10.139   5.066
71656SOL    HW216808   0.248  10.073   5.176
71657SOL     OW16809   1.957  11.076   0.804
71657SOL    HW116810   1.863  11.086   0.784
71657SOL    HW216811   1.989  11.014   0.738
71658SOL     OW16812  10.433   4.567  13.905
71658SOL    HW116813  10.339   4.550  13.901
71658SOL    HW216814  10.474   4.489  13.868
71659SOL     OW16815   7.745   6.885   5.914
71659SOL    HW116816   7.819   6.893   5.854
71659SOL    HW216817   7.784   6.890   6.001
71660SOL     OW16818   6.088   4.846   0.443
71660SOL    HW116819   6.036   4.895   0.379
71660SOL    HW216820   6.039   4.852   0.525
71661SOL     OW16821   7.917   8.896   5.828
71661SOL    HW116822   7.894   8.950   5.753
71661SOL    HW216823   7.894   8.806   5.802
71662SOL     OW16824   7.867   7.372   7.771
71662SOL    HW116825   7.811   7.393   7.846
71662SOL    HW216826   7.948   7.338   7.810
71663SOL     OW16827   2.256  10.891   9.993
71663SOL    HW116828   2.291  10.962   9.939
71663SOL    HW216829   2.201  10.935  10.058
71664SOL     OW16830   7.451   8.456  10.424
71664SOL    HW116831   7.427   8.549  10.427
71664SOL    HW216832   7.533   8.451  10.473
71665SOL     OW16833   4.930  11.926   2.310
71665SOL    HW116834   4.884  12.002   2.276
71665SOL    HW216835   4.861  11.861   2.325
71666SOL     OW16836   7.760   3.068   7.552
71666SOL    HW116837   7.673   3.040   7.580
71666SOL    HW216838   7.782   3.010   7.479
71667SOL     OW16839   9.243  12.560  13.719
71667SOL    HW116840   9.148  12.554  13.711
71667SOL    HW216841   9.277  12.495  13.658
71668SOL     OW16842   4.524   6.816   0.542
71668SOL    HW116843   4.585   6.840   0.612
71668SOL    HW216844   4.443   6.795   0.587
71669SOL     OW16845  12.852   3.206   4.050
71669SOL    HW116846  12.928   3.152   4.027
71669SOL    HW216847  12.888   3.279   4.099
71670SOL     OW16848   9.588   9.990   8.278
71670SOL    HW116849   9.615  10.055   8.213
71670SOL    HW216850   9.521   9.938   8.233
71671SOL     OW16851   8.566   8.656   4.123
71671SOL    HW116852   8.637   8.703   4.079
71671SOL    HW216853   8.554   8.703   4.205
71672SOL     OW16854   7.682   5.276   0.883
71672SOL    HW116855   7.771   5.286   0.851
71672SOL    HW216856   7.692   5.247   0.974
71673SOL     OW16857   1.674   1.389  11.282
71673SOL    HW116858   1.581   1.408  11.296
71673SOL    HW216859   1.705   1.355  11.367
71674SOL     OW16860   3.464   0.484   3.458
71674SOL    HW116861   3.510   0.523   3.385
71674SOL    HW216862   3.465   0.390   3.440
71675SOL     OW16863   6.582   6.342   0.845
71675SOL    HW116864   6.520   6.415   0.855
71675SOL    HW216865   6.656   6.379   0.798
71676SOL     OW16866   4.161   9.016   6.581
71676SOL    HW116867   4.104   9.028   6.505
71676SOL    HW216868   4.232   8.960   6.550
71677SOL     OW16869  12.457   0.293   5.605
71677SOL    HW116870  12.424   0.363   5.662
71677SOL    HW216871  12.551   0.310   5.600
71678SOL     OW16872   7.697  13.803   2.512
71678SOL    HW116873   7.763  13.808   2.581
71678SOL    HW216874   7.675  13.894   2.492
71679SOL     OW16875   6.077  12.025  14.050
71679SOL    HW116876   6.109  11.990  13.967
71679SOL    HW216877   6.149  12.010  14.111
71680SOL     OW16878   8.344   4.623   1.735
71680SOL    HW116879   8.337   4.533   1.703
71680SOL    HW216880   8.359   4.675   1.657
71681SOL     OW16881  10.043  10.846   5.420
71681SOL    HW116882  10.046  10.804   5.333
71681SOL    HW216883   9.989  10.787   5.473
71682SOL     OW16884   3.261   7.200   3.887
71682SOL    HW116885   3.310   7.158   3.957
71682SOL    HW216886   3.247   7.131   3.823
71683SOL     OW16887   3.343  13.092   7.248
71683SOL    HW116888   3.396  13.078   7.326
71683SOL    HW216889   3.303  13.178   7.261
71684SOL     OW16890  10.378   3.727   4.187
71684SOL    HW116891  10.317   3.666   4.145
71684SOL    HW216892  10.398   3.791   4.118
71685SOL     OW16893   7.167   6.254   3.892
71685SOL    HW116894   7.127   6.171   3.865
71685SOL    HW216895   7.239   6.267   3.831
71686SOL     OW16896   6.873  14.432  10.888
71686SOL    HW116897   6.946  14.431  10.951
71686SOL    HW216898   6.911  14.397  10.808
71687SOL     OW16899   6.004   7.776   1.202
71687SOL    HW116900   5.991   7.742   1.113
71687SOL    HW216901   6.009   7.871   1.190
71688SOL     OW16902   5.084   3.923   0.584
71688SOL    HW116903   5.021   3.992   0.607
71688SOL    HW216904   5.150   3.926   0.652
71689SOL     OW16905   7.934  14.734   2.923
71689SOL    HW116906   7.883  14.653   2.921
71689SOL    HW216907   8.004  14.717   2.986
71690SOL     OW16908   2.121   1.830   3.152
71690SOL    HW116909   2.163   1.846   3.236
71690SOL    HW216910   2.167   1.887   3.091
71691SOL     OW16911   8.710  14.139   0.199
71691SOL    HW116912   8.779  14.198   0.169
71691SOL    HW216913   8.709  14.069   0.133
71692SOL     OW16914   4.569  11.514  10.904
71692SOL    HW116915   4.648  11.537  10.855
71692SOL    HW216916   4.549  11.425  10.877
71693SOL     OW16917   1.558   9.792  13.542
71693SOL    HW116918   1.612   9.763  13.469
71693SOL    HW216919   1.489   9.845  13.501
71694SOL     OW16920   6.842   0.098  13.390
71694SOL    HW116921   6.766   0.061  13.345
71694SOL    HW216922   6.826   0.081  13.482
71695SOL     OW16923   8.774   7.191   5.983
71695SOL    HW116924   8.825   7.120   6.021
71695SOL    HW216925   8.760   7.252   6.055
71696SOL     OW16926   8.871   3.685   5.190
71696SOL    HW116927   8.786   3.691   5.233
71696SOL    HW216928   8.853   3.640   5.107
71697SOL     OW16929  10.609   1.933   4.441
71697SOL    HW116930  10.632   2.003   4.380
71697SOL    HW216931  10.662   1.858   4.413
71698SOL     OW16932  11.693  14.460   1.365
71698SOL    HW116933  11.708  14.490   1.455
71698SOL    HW216934  11.628  14.391   1.373
71699SOL     OW16935   1.035   2.778   0.116
71699SOL    HW116936   1.042   2.774   0.212
71699SOL    HW216937   1.093   2.849   0.091
71700SOL     OW16938  13.134   1.268  13.206
71700SOL    HW116939  13.152   1.174  13.206
71700SOL    HW216940  13.063   1.279  13.269
71701SOL     OW16941  12.378   1.421   0.029
71701SOL    HW116942  12.409   1.507   0.001
71701SOL    HW216943  12.341   1.436   0.116
71702SOL     OW16944   7.419   2.792   6.635
71702SOL    HW116945   7.359   2.749   6.574
71702SOL    HW216946   7.506   2.762   6.608
71703SOL     OW16947   5.301   6.238   1.701
71703SOL    HW116948   5.245   6.293   1.755
71703SOL    HW216949   5.251   6.158   1.687
71704SOL     OW16950   0.024  12.289  13.502
71704SOL    HW116951   0.110  12.323  13.482
71704SOL    HW216952   0.033  12.194  13.491
71705SOL     OW16953   5.895  10.662   6.419
71705SOL    HW116954   5.894  10.756   6.403
71705SOL    HW216955   5.903  10.623   6.332
71706SOL     OW16956   1.435   0.687   7.344
71706SOL    HW116957   1.483   0.605   7.335
71706SOL    HW216958   1.398   0.684   7.432
71707SOL     OW16959   8.611   9.959   8.784
71707SOL    HW116960   8.592   9.902   8.709
71707SOL    HW216961   8.706   9.965   8.786
71708SOL     OW16962   6.242   8.207   3.493
71708SOL    HW116963   6.152   8.175   3.500
71708SOL    HW216964   6.234   8.294   3.455
71709SOL     OW16965   2.022  13.305   7.635
71709SOL    HW116966   1.936  13.272   7.612
71709SOL    HW216967   2.014  13.333   7.727
71710SOL     OW16968   2.885  12.404   9.139
71710SOL    HW116969   2.792  12.417   9.122
71710SOL    HW216970   2.928  12.477   9.097
71711SOL     OW16971   5.344   3.943  11.166
71711SOL    HW116972   5.433   3.964  11.193
71711SOL    HW216973   5.293   3.947  11.247
71712SOL     OW16974   6.105   0.114   1.616
71712SOL    HW116975   6.043   0.182   1.588
71712SOL    HW216976   6.157   0.095   1.539
71713SOL     OW16977   4.577  10.946   8.646
71713SOL    HW116978   4.566  10.869   8.590
71713SOL    HW216979   4.627  11.007   8.592
71714SOL     OW16980  12.986  12.929   4.618
71714SOL    HW116981  13.080  12.924   4.639
71714SOL    HW216982  12.984  12.937   4.522
71715SOL     OW16983  11.210   6.362  11.635
71715SOL    HW116984  11.242   6.453  11.635
71715SOL    HW216985  11.140   6.362  11.701
71716SOL     OW16986  10.442   8.965  11.075
71716SOL    HW116987  10.471   8.948  11.164
71716SOL    HW216988  10.496   8.908  11.020
71717SOL     OW16989  10.076   0.468  14.584
71717SOL    HW116990  10.003   0.443  14.528
71717SOL    HW216991  10.096   0.558  14.558
71718SOL     OW16992  11.775  10.291   7.745
71718SOL    HW116993  11.760  10.250   7.660
71718SOL    HW216994  11.818  10.374   7.725
71719SOL     OW16995  14.229   9.191   0.710
71719SOL    HW116996  14.298   9.196   0.644
71719SOL    HW216997  14.264   9.129   0.775
71720SOL     OW16998   7.834   4.813   8.283
71720SOL    HW116999   7.892   4.835   8.211
71720SOL    HW217000   7.892   4.783   8.353
71721SOL     OW17001  12.773   7.848   1.813
71721SOL    HW117002  12.827   7.875   1.739
71721SOL    HW217003  12.825   7.872   1.890
71722SOL     OW17004   8.822   3.769   5.448
71722SOL    HW117005   8.742   3.721   5.427
71722SOL    HW217006   8.891   3.722   5.401
71723SOL     OW17007   6.632   7.511  13.340
71723SOL    HW117008   6.566   7.563  13.385
71723SOL    HW217009   6.582   7.456  13.279
71724SOL     OW17010   6.086   2.638   8.617
71724SOL    HW117011   6.135   2.663   8.696
71724SOL    HW217012   6.113   2.700   8.551
71725SOL     OW17013   8.308   0.305  12.897
71725SOL    HW117014   8.220   0.308  12.934
71725SOL    HW217015   8.328   0.212  12.890
71726SOL     OW17016   3.841  11.742   4.057
71726SOL    HW117017   3.932  11.771   4.051
71726SOL    HW217018   3.835  11.669   3.994
71727SOL     OW17019  13.508   1.336   4.047
71727SOL    HW117020  13.564   1.392   4.100
71727SOL    HW217021  13.420   1.348   4.084
71728SOL     OW17022   9.272   0.755   4.359
71728SOL    HW117023   9.281   0.661   4.373
71728SOL    HW217024   9.210   0.783   4.426
71729SOL     OW17025  13.487   3.561  11.022
71729SOL    HW117026  13.456   3.642  10.981
71729SOL    HW217027  13.544   3.592  11.093
71730SOL     OW17028   6.089   6.892   9.583
71730SOL    HW117029   6.054   6.978   9.562
71730SOL    HW217030   6.175   6.910   9.620
71731SOL     OW17031   3.318  11.468   9.939
71731SOL    HW117032   3.261  11.496  10.011
71731SOL    HW217033   3.376  11.543   9.925
71732SOL     OW17034   3.247   2.734   6.303
71732SOL    HW117035   3.170   2.683   6.327
71732SOL    HW217036   3.314   2.668   6.283
71733SOL     OW17037   9.063   0.610   9.264
71733SOL    HW117038   9.055   0.698   9.300
71733SOL    HW217039   9.140   0.614   9.207
71734SOL     OW17040   4.892   1.739  13.646
71734SOL    HW117041   4.857   1.667  13.698
71734SOL    HW217042   4.825   1.755  13.579
71735SOL     OW17043  13.328   2.724   6.699
71735SOL    HW117044  13.383   2.689   6.629
71735SOL    HW217045  13.246   2.746   6.655
71736SOL     OW17046   1.976   0.021   7.648
71736SOL    HW117047   2.071   0.014   7.644
71736SOL    HW217048   1.956   0.103   7.602
71737SOL     OW17049   0.881   0.638   6.115
71737SOL    HW117050   0.824   0.705   6.153
71737SOL    HW217051   0.855   0.633   6.023
71738SOL     OW17052   7.069   7.953  13.882
71738SOL    HW117053   6.999   7.915  13.830
71738SOL    HW217054   7.149   7.913  13.846
71739SOL     OW17055   1.395   1.862   7.663
71739SOL    HW117056   1.458   1.877   7.733
71739SOL    HW217057   1.365   1.772   7.675
71740SOL     OW17058   9.721  12.461   2.177
71740SOL    HW117059   9.692  12.371   2.195
71740SOL    HW217060   9.795  12.451   2.117
71741SOL     OW17061   9.362  10.143   9.018
71741SOL    HW117062   9.341  10.175   8.930
71741SOL    HW217063   9.346  10.048   9.013
71742SOL     OW17064   4.838  12.447  13.091
71742SOL    HW117065   4.843  12.418  13.182
71742SOL    HW217066   4.905  12.516  13.085
71743SOL     OW17067  14.645   1.420   5.327
71743SOL    HW117068  14.696   1.352   5.283
71743SOL    HW217069  14.694   1.501   5.311
71744SOL     OW17070   0.749   0.011   5.668
71744SOL    HW117071   0.745   0.106   5.665
71744SOL    HW217072   0.816  14.861   5.604
71745SOL     OW17073  12.571  11.083  10.525
71745SOL    HW117074  12.505  11.057  10.589
71745SOL    HW217075  12.523  11.092  10.443
71746SOL     OW17076   9.782  14.247  11.831
71746SOL    HW117077   9.823  14.317  11.780
71746SOL    HW217078   9.709  14.218  11.776
71747SOL     OW17079   7.458   8.852   1.843
71747SOL    HW117080   7.516   8.814   1.908
71747SOL    HW217081   7.370   8.827   1.871
71748SOL     OW17082  13.965  13.695  13.607
71748SOL    HW117083  13.966  13.631  13.678
71748SOL    HW217084  13.918  13.651  13.536
71749SOL     OW17085   0.918  10.506  13.097
71749SOL    HW117086   0.911  10.520  13.192
71749SOL    HW217087   0.963  10.584  13.065
71750SOL     OW17088   5.428   5.147  14.518
71750SOL    HW117089   5.458   5.062  14.552
71750SOL    HW217090   5.508   5.193  14.494
71751SOL     OW17091   5.706   7.564   6.293
71751SOL    HW117092   5.761   7.610   6.356
71751SOL    HW217093   5.747   7.583   6.208
71752SOL     OW17094   9.225   0.190   5.349
71752SOL    HW117095   9.318   0.212   5.347
71752SOL    HW217096   9.185   0.250   5.286
71753SOL     OW17097  13.537   6.821   2.493
71753SOL    HW117098  13.569   6.784   2.411
71753SOL    HW217099  13.608   6.807   2.555
71754SOL     OW17100  11.611   5.052  11.526
71754SOL    HW117101  11.695   5.007  11.525
71754SOL    HW217102  11.627   5.133  11.575
71755SOL     OW17103   3.317   4.077   9.089
71755SOL    HW117104   3.337   4.154   9.143
71755SOL    HW217105   3.354   4.004   9.138
71756SOL     OW17106  10.381  13.111   8.004
71756SOL    HW117107  10.375  13.205   7.986
71756SOL    HW217108  10.301  13.090   8.052
71757SOL     OW17109   7.123   5.425   3.856
71757SOL    HW117110   7.131   5.336   3.823
71757SOL    HW217111   7.047   5.422   3.915
71758SOL     OW17112  10.789   3.241   4.985
71758SOL    HW117113  10.764   3.149   4.977
71758SOL    HW217114  10.754   3.282   4.906
71759SOL     OW17115  14.505   9.667   4.663
71759SOL    HW117116  14.410   9.659   4.670
71759SOL    HW217117  14.525   9.752   4.702
71760SOL     OW17118  10.698  12.774  11.184
71760SOL    HW117119  10.654  12.856  11.202
71760SOL    HW217120  10.782  12.780  11.229
71761SOL     OW17121   5.522   2.698   5.513
71761SOL    HW117122   5.502   2.669   5.602
71761SOL    HW217123   5.437   2.703   5.470
71762SOL     OW17124  11.563   7.652   1.630
71762SOL    HW117125  11.517   7.730   1.659
71762SOL    HW217126  11.496   7.599   1.587
71763SOL     OW17127   0.426  14.369   7.471
71763SOL    HW117128   0.344  14.322   7.484
71763SOL    HW217129   0.423  14.400   7.381
71764SOL     OW17130   4.336  12.284   3.150
71764SOL    HW117131   4.409  12.222   3.147
71764SOL    HW217132   4.273  12.244   3.211
71765SOL     OW17133  13.596   2.617   2.774
71765SOL    HW117134  13.662   2.684   2.752
71765SOL    HW217135  13.519   2.668   2.801
71766SOL     OW17136   4.487  13.960   3.164
71766SOL    HW117137   4.406  13.944   3.117
71766SOL    HW217138   4.491  13.892   3.230
71767SOL     OW17139  11.203   8.661   0.578
71767SOL    HW117140  11.274   8.639   0.518
71767SOL    HW217141  11.223   8.613   0.658
71768SOL     OW17142   3.379   1.461   2.423
71768SOL    HW117143   3.395   1.398   2.353
71768SOL    HW217144   3.463   1.506   2.434
71769SOL     OW17145   4.292   2.468   1.985
71769SOL    HW117146   4.365   2.500   2.038
71769SOL    HW217147   4.326   2.464   1.896
71770SOL     OW17148  13.437   5.372   9.034
71770SOL    HW117149  13.376   5.305   9.004
71770SOL    HW217150  13.485   5.330   9.106
71771SOL     OW17151  14.004   8.110   4.430
71771SOL    HW117152  13.972   8.049   4.364
71771SOL    HW217153  14.023   8.054   4.506
71772SOL     OW17154   9.796   8.464   5.741
71772SOL    HW117155   9.735   8.480   5.813
71772SOL    HW217156   9.883   8.471   5.780
71773SOL     OW17157  13.723   9.565   9.109
71773SOL    HW117158  13.680   9.649   9.097
71773SOL    HW217159  13.718   9.548   9.203
71774SOL     OW17160  10.521   9.099  13.725
71774SOL    HW117161  10.588   9.155  13.765
71774SOL    HW217162  10.452   9.094  13.792
71775SOL     OW17163   5.341  14.811  12.187
71775SOL    HW117164   5.247  14.828  12.176
71775SOL    HW217165   5.377   0.021  12.217
71776SOL     OW17166   3.802   2.412  13.673
71776SOL    HW117167   3.734   2.435  13.736
71776SOL    HW217168   3.867   2.482  13.683
71777SOL     OW17169   7.422   7.365  10.271
71777SOL    HW117170   7.379   7.451  10.277
71777SOL    HW217171   7.508   7.383  10.233
71778SOL     OW17172   8.490   2.688   9.274
71778SOL    HW117173   8.572   2.737   9.270
71778SOL    HW217174   8.426   2.752   9.306
71779SOL     OW17175   1.638   8.244   7.671
71779SOL    HW117176   1.716   8.271   7.720
71779SOL    HW217177   1.673   8.200   7.593
71780SOL     OW17178   0.386   7.908   3.258
71780SOL    HW117179   0.343   7.877   3.179
71780SOL    HW217180   0.412   7.829   3.305
71781SOL     OW17181   5.884   7.634   2.289
71781SOL    HW117182   5.913   7.562   2.345
71781SOL    HW217183   5.826   7.685   2.345
71782SOL     OW17184   8.903   4.955   7.723
71782SOL    HW117185   8.928   4.945   7.631
71782SOL    HW217186   8.960   5.024   7.756
71783SOL     OW17187   2.705   1.989  14.306
71783SOL    HW117188   2.757   2.042  14.245
71783SOL    HW217189   2.645   1.941  14.249
71784SOL     OW17190  12.849   4.645   1.425
71784SOL    HW117191  12.858   4.659   1.331
71784SOL    HW217192  12.869   4.731   1.464
71785SOL     OW17193  13.209  14.537   9.223
71785SOL    HW117194  13.202  14.542   9.128
71785SOL    HW217195  13.124  14.569   9.255
71786SOL     OW17196  10.629  12.148   2.461
71786SOL    HW117197  10.656  12.057   2.450
71786SOL    HW217198  10.632  12.185   2.372
71787SOL     OW17199   8.902   0.908  10.154
71787SOL    HW117200   8.887   0.828  10.202
71787SOL    HW217201   8.979   0.947  10.195
71788SOL     OW17202  10.641   4.627   4.509
71788SOL    HW117203  10.585   4.572   4.453
71788SOL    HW217204  10.714   4.570   4.533
71789SOL     OW17205   2.824  13.083   6.336
71789SOL    HW117206   2.845  12.991   6.348
71789SOL    HW217207   2.732  13.084   6.309
71790SOL     OW17208   8.694  13.940   2.539
71790SOL    HW117209   8.674  13.848   2.523
71790SOL    HW217210   8.681  13.983   2.454
71791SOL     OW17211  14.630   7.382   2.059
71791SOL    HW117212  14.644   7.359   1.966
71791SOL    HW217213  14.718   7.383   2.096
71792SOL     OW17214  14.576   4.179   8.128
71792SOL    HW117215  14.613   4.091   8.135
71792SOL    HW217216  14.598   4.208   8.039
71793SOL     OW17217  11.664   5.496  11.814
71793SOL    HW117218  11.622   5.520  11.897
71793SOL    HW217219  11.752   5.467  11.838
71794SOL     OW17220  13.189  12.786   8.024
71794SOL    HW117221  13.130  12.738   7.967
71794SOL    HW217222  13.163  12.878   8.014
71795SOL     OW17223  10.486  12.511   0.606
71795SOL    HW117224  10.530  12.497   0.690
71795SOL    HW217225  10.520  12.442   0.550
71796SOL     OW17226   9.908   1.402   7.948
71796SOL    HW117227   9.885   1.385   8.040
71796SOL    HW217228   9.998   1.371   7.940
71797SOL     OW17229   6.605   8.132   2.172
71797SOL    HW117230   6.594   8.177   2.089
71797SOL    HW217231   6.685   8.169   2.209
71798SOL     OW17232   4.694  12.014   1.242
71798SOL    HW117233   4.621  12.000   1.302
71798SOL    HW217234   4.654  12.058   1.166
71799SOL     OW17235   9.104  11.073  12.538
71799SOL    HW117236   9.193  11.060  12.507
71799SOL    HW217237   9.071  10.985  12.553
71800SOL     OW17238  12.255   7.928   5.560
71800SOL    HW117239  12.263   7.846   5.511
71800SOL    HW217240  12.241   7.901   5.651
71801SOL     OW17241   1.652   3.714   8.752
71801SOL    HW117242   1.558   3.729   8.745
71801SOL    HW217243   1.668   3.637   8.698
71802SOL     OW17244   2.860  13.359  10.235
71802SOL    HW117245   2.820  13.434  10.193
71802SOL    HW217246   2.791  13.293  10.240
71803SOL     OW17247   5.643   0.109   9.457
71803SOL    HW117248   5.610   0.029   9.497
71803SOL    HW217249   5.588   0.178   9.494
71804SOL     OW17250  12.869   2.243   5.928
71804SOL    HW117251  12.775   2.227   5.929
71804SOL    HW217252  12.907   2.168   5.974
71805SOL     OW17253   8.875   2.147   6.256
71805SOL    HW117254   8.935   2.116   6.324
71805SOL    HW217255   8.848   2.067   6.210
71806SOL     OW17256  10.166   1.044   6.216
71806SOL    HW117257  10.181   0.998   6.298
71806SOL    HW217258  10.222   1.121   6.220
71807SOL     OW17259   2.724  14.187   5.829
71807SOL    HW117260   2.720  14.202   5.735
71807SOL    HW217261   2.656  14.123   5.846
71808SOL     OW17262  11.606   4.335  10.525
71808SOL    HW117263  11.637   4.245  10.532
71808SOL    HW217264  11.533   4.340  10.586
71809SOL     OW17265  14.322  13.474  11.010
71809SOL    HW117266  14.237  13.431  11.022
71809SOL    HW217267  14.355  13.485  11.100
71810SOL     OW17268   4.919   0.666  11.400
71810SOL    HW117269   4.951   0.695  11.315
71810SOL    HW217270   4.917   0.571  11.394
71811SOL     OW17271   9.995   6.122  13.971
71811SOL    HW117272   9.953   6.197  13.929
71811SOL    HW217273   9.951   6.114  14.056
71812SOL     OW17274   1.280   6.145   4.774
71812SOL    HW117275   1.236   6.133   4.859
71812SOL    HW217276   1.208   6.150   4.711
71813SOL     OW17277   6.145  14.009   8.211
71813SOL    HW117278   6.205  13.956   8.157
71813SOL    HW217279   6.118  14.081   8.154
71814SOL     OW17280   7.135   5.708   3.900
71814SOL    HW117281   7.139   5.612   3.898
71814SOL    HW217282   7.059   5.728   3.955
71815SOL     OW17283  14.297   9.964  11.928
71815SOL    HW117284  14.295  10.058  11.912
71815SOL    HW217285  14.238   9.951  12.002
71816SOL     OW17286  10.938   2.008  10.359
71816SOL    HW117287  10.843   2.002  10.366
71816SOL    HW217288  10.963   2.067  10.431
71817SOL     OW17289   3.708   2.617   5.478
71817SOL    HW117290   3.782   2.657   5.524
71817SOL    HW217291   3.650   2.587   5.548
71818SOL     OW17292   8.081   9.300   5.320
71818SOL    HW117293   8.010   9.356   5.290
71818SOL    HW217294   8.040   9.215   5.335
71819SOL     OW17295   8.919  10.904   5.145
71819SOL    HW117296   8.937  10.818   5.107
71819SOL    HW217297   8.985  10.961   5.106
71820SOL     OW17298   1.336   4.512   2.945
71820SOL    HW117299   1.301   4.596   2.915
71820SOL    HW217300   1.269   4.478   3.005
71821SOL     OW17301   7.770   1.975  13.241
71821SOL    HW117302   7.693   1.921  13.261
71821SOL    HW217303   7.784   2.027  13.320
71822SOL     OW17304  13.095   6.018   2.934
71822SOL    HW117305  13.160   6.088   2.926
71822SOL    HW217306  13.090   6.001   3.028
71823SOL     OW17307   1.183  13.406  11.288
71823SOL    HW117308   1.095  13.434  11.262
71823SOL    HW217309   1.230  13.487  11.305
71824SOL     OW17310   2.004  11.461   1.883
71824SOL    HW117311   2.009  11.366   1.870
71824SOL    HW217312   2.034  11.499   1.801
71825SOL     OW17313   3.254   5.649  12.176
71825SOL    HW117314   3.163   5.665  12.203
71825SOL    HW217315   3.307   5.692  12.243
71826SOL     OW17316  11.406   8.266  11.855
71826SOL    HW117317  11.429   8.266  11.762
71826SOL    HW217318  11.311   8.255  11.857
71827SOL     OW17319   3.417  13.075  13.172
71827SOL    HW117320   3.440  13.026  13.092
71827SOL    HW217321   3.333  13.117  13.150
71828SOL     OW17322   3.490   9.420  14.057
71828SOL    HW117323   3.398   9.399  14.041
71828SOL    HW217324   3.506   9.391  14.147
71829SOL     OW17325   1.799  11.751   7.577
71829SOL    HW117326   1.708  11.780   7.587
71829SOL    HW217327   1.798  11.696   7.498
71830SOL     OW17328   8.270   3.309  10.336
71830SOL    HW117329   8.212   3.250  10.385
71830SOL    HW217330   8.339   3.331  10.399
71831SOL     OW17331   7.087   3.847   9.532
71831SOL    HW117332   7.062   3.857   9.441
71831SOL    HW217333   7.039   3.917   9.578
71832SOL     OW17334   0.670  11.906   0.697
71832SOL    HW117335   0.581  11.870   0.697
71832SOL    HW217336   0.726  11.831   0.717
71833SOL     OW17337  12.491   1.173   8.986
71833SOL    HW117338  12.449   1.146   9.068
71833SOL    HW217339  12.516   1.264   9.000
71834SOL     OW17340   1.417   1.597  12.291
71834SOL    HW117341   1.461   1.533  12.234
71834SOL    HW217342   1.483   1.664  12.308
71835SOL     OW17343   8.741   9.153  14.216
71835SOL    HW117344   8.760   9.105  14.136
71835SOL    HW217345   8.810   9.219  14.221
71836SOL     OW17346  10.037   1.187  12.698
71836SOL    HW117347  10.099   1.114  12.692
71836SOL    HW217348  10.080   1.259  12.652
71837SOL     OW17349  14.653   6.934   8.818
71837SOL    HW117350  14.602   6.980   8.751
71837SOL    HW217351  14.700   7.003   8.864
71838SOL     OW17352   3.900  13.383   9.694
71838SOL    HW117353   3.827  13.336   9.652
71838SOL    HW217354   3.966  13.316   9.708
71839SOL     OW17355   1.222  11.675   7.181
71839SOL    HW117356   1.229  11.765   7.213
71839SOL    HW217357   1.288  11.669   7.112
71840SOL     OW17358   4.688   3.083   2.530
71840SOL    HW117359   4.761   3.089   2.592
71840SOL    HW217360   4.657   2.993   2.538
71841SOL     OW17361   1.486   5.396   0.827
71841SOL    HW117362   1.406   5.431   0.865
71841SOL    HW217363   1.531   5.472   0.790
71842SOL     OW17364   3.167   8.640   2.744
71842SOL    HW117365   3.218   8.559   2.754
71842SOL    HW217366   3.197   8.676   2.661
71843SOL     OW17367  11.264   6.610  11.637
71843SOL    HW117368  11.175   6.645  11.642
71843SOL    HW217369  11.304   6.658  11.564
71844SOL     OW17370   1.926  11.977   7.647
71844SOL    HW117371   1.879  11.899   7.617
71844SOL    HW217372   1.913  11.978   7.741
71845SOL     OW17373   1.885  10.872   9.339
71845SOL    HW117374   1.928  10.787   9.347
71845SOL    HW217375   1.840  10.884   9.422
71846SOL     OW17376   8.190   0.875  12.153
71846SOL    HW117377   8.215   0.782  12.153
71846SOL    HW217378   8.171   0.894  12.061
71847SOL     OW17379   3.952   6.506  14.803
71847SOL    HW117380   4.018   6.444  14.774
71847SOL    HW217381   4.002   6.577  14.844
71848SOL     OW17382   2.062   1.421  10.390
71848SOL    HW117383   2.074   1.452  10.301
71848SOL    HW217384   2.063   1.500  10.444
71849SOL     OW17385  10.295   4.544  12.846
71849SOL    HW117386  10.335   4.620  12.804
71849SOL    HW217387  10.259   4.493  12.773
71850SOL     OW17388   1.533   6.756   5.526
71850SOL    HW117389   1.486   6.762   5.610
71850SOL    HW217390   1.520   6.665   5.499
71851SOL     OW17391   9.443   8.855   4.611
71851SOL    HW117392   9.486   8.940   4.605
71851SOL    HW217393   9.460   8.825   4.700
71852SOL     OW17394   1.978  13.643   8.111
71852SOL    HW117395   1.896  13.607   8.079
71852SOL    HW217396   1.982  13.731   8.072
71853SOL     OW17397   2.436  12.701   2.965
71853SOL    HW117398   2.433  12.658   2.879
71853SOL    HW217399   2.449  12.793   2.945
71854SOL     OW17400  10.171   6.341   5.898
71854SOL    HW117401  10.232   6.380   5.836
71854SOL    HW217402  10.090   6.391   5.888
71855SOL     OW17403   3.855  14.269   1.535
71855SOL    HW117404   3.941  14.312   1.534
71855SOL    HW217405   3.863  14.198   1.472
71856SOL     OW17406   4.860  13.337   4.785
71856SOL    HW117407   4.792  13.271   4.799
71856SOL    HW217408   4.889  13.360   4.874
71857SOL     OW17409   1.496  13.706   2.914
71857SOL    HW117410   1.559  13.769   2.950
71857SOL    HW217411   1.546  13.624   2.905
71858SOL     OW17412   6.221   8.516   0.091
71858SOL    HW117413   6.273   8.441   0.121
71858SOL    HW217414   6.165   8.481   0.023
71859SOL     OW17415   5.203  14.562   2.792
71859SOL    HW117416   5.152  14.551   2.873
71859SOL    HW217417   5.138  14.555   2.722
71860SOL     OW17418   9.441  13.696   9.325
71860SOL    HW117419   9.404  13.704   9.412
71860SOL    HW217420   9.366  13.680   9.268
71861SOL     OW17421   7.389  10.486  10.124
71861SOL    HW117422   7.407  10.572  10.085
71861SOL    HW217423   7.368  10.506  10.215
71862SOL     OW17424  12.289   0.527  13.304
71862SOL    HW117425  12.334   0.443  13.295
71862SOL    HW217426  12.347   0.579  13.360
71863SOL     OW17427   8.906  12.118   1.380
71863SOL    HW117428   8.903  12.106   1.286
71863SOL    HW217429   8.847  12.192   1.396
71864SOL     OW17430   3.144   7.622  12.665
71864SOL    HW117431   3.224   7.620  12.612
71864SOL    HW217432   3.112   7.532  12.664
71865SOL     OW17433  13.442  13.958   2.708
71865SOL    HW117434  13.447  13.866   2.731
71865SOL    HW217435  13.513  13.999   2.758
71866SOL     OW17436  12.334   9.054   3.338
71866SOL    HW117437  12.336   8.977   3.395
71866SOL    HW217438  12.241   9.069   3.321
71867SOL     OW17439   0.542   6.626  13.621
71867SOL    HW117440   0.473   6.627  13.687
71867SOL    HW217441   0.507   6.678  13.549
71868SOL     OW17442  12.309   9.926   2.996
71868SOL    HW117443  12.387   9.981   2.996
71868SOL    HW217444  12.314   9.877   3.077
71869SOL     OW17445   3.576  12.866   7.392
71869SOL    HW117446   3.593  12.907   7.307
71869SOL    HW217447   3.640  12.905   7.451
71870SOL     OW17448   8.349   9.011  10.010
71870SOL    HW117449   8.338   9.104   9.991
71870SOL    HW217450   8.262   8.973   9.995
71871SOL     OW17451  11.265   8.960   2.470
71871SOL    HW117452  11.200   8.955   2.400
71871SOL    HW217453  11.230   9.026   2.530
71872SOL     OW17454  14.476   2.267  10.562
71872SOL    HW117455  14.450   2.208  10.491
71872SOL    HW217456  14.443   2.353  10.534
71873SOL     OW17457   0.750   8.828   9.354
71873SOL    HW117458   0.767   8.780   9.273
71873SOL    HW217459   0.694   8.770   9.405
71874SOL     OW17460  14.846  10.200  11.582
71874SOL    HW117461  14.856  10.232  11.672
71874SOL    HW217462  14.759  10.162  11.580
71875SOL     OW17463   8.850   4.596  11.498
71875SOL    HW117464   8.935   4.612  11.538
71875SOL    HW217465   8.845   4.501  11.489
71876SOL     OW17466  13.886   2.954  11.195
71876SOL    HW117467  13.830   2.935  11.270
71876SOL    HW217468  13.894   2.871  11.149
71877SOL     OW17469  14.747   0.956  10.838
71877SOL    HW117470  14.716   0.959  10.747
71877SOL    HW217471  14.812   0.886  10.839
71878SOL     OW17472  13.099   8.081   7.174
71878SOL    HW117473  13.025   8.124   7.131
71878SOL    HW217474  13.082   8.092   7.268
71879SOL     OW17475   1.697   5.180   7.204
71879SOL    HW117476   1.612   5.187   7.247
71879SOL    HW217477   1.678   5.185   7.110
71880SOL     OW17478  13.062   2.617   9.309
71880SOL    HW117479  13.099   2.703   9.329
71880SOL    HW217480  13.065   2.570   9.392
71881SOL     OW17481   4.975   7.242   4.238
71881SOL    HW117482   5.047   7.263   4.179
71881SOL    HW217483   4.897   7.244   4.183
71882SOL     OW17484   8.410   1.490   4.595
71882SOL    HW117485   8.338   1.427   4.587
71882SOL    HW217486   8.387   1.560   4.535
71883SOL     OW17487   9.348  13.595  11.547
71883SOL    HW117488   9.401  13.603  11.627
71883SOL    HW217489   9.257  13.594  11.578
71884SOL     OW17490   6.856  10.271   8.310
71884SOL    HW117491   6.786  10.312   8.360
71884SOL    HW217492   6.926  10.256   8.373
71885SOL     OW17493   2.542  13.897  13.375
71885SOL    HW117494   2.611  13.833  13.360
71885SOL    HW217495   2.583  13.966  13.427
71886SOL     OW17496   2.338   2.997  14.418
71886SOL    HW117497   2.355   2.928  14.354
71886SOL    HW217498   2.278   2.958  14.481
71887SOL     OW17499   3.593  10.385   2.764
71887SOL    HW117500   3.600  10.336   2.847
71887SOL    HW217501   3.569  10.318   2.700
71888SOL     OW17502  13.724   3.775   0.106
71888SOL    HW117503  13.785   3.742   0.171
71888SOL    HW217504  13.752   3.735   0.024
71889SOL     OW17505   4.798   1.473   0.068
71889SOL    HW117506   4.758   1.393   0.031
71889SOL    HW217507   4.726   1.518   0.111
71890SOL     OW17508  14.427   6.239   3.257
71890SOL    HW117509  14.439   6.242   3.162
71890SOL    HW217510  14.392   6.325   3.280
71891SOL     OW17511  11.608   5.743   2.853
71891SOL    HW117512  11.695   5.764   2.820
71891SOL    HW217513  11.585   5.818   2.908
71892SOL     OW17514   2.484   7.548  13.927
71892SOL    HW117515   2.417   7.590  13.874
71892SOL    HW217516   2.436   7.480  13.975
71893SOL     OW17517   3.178  14.570   8.226
71893SOL    HW117518   3.207  14.522   8.148
71893SOL    HW217519   3.104  14.623   8.195
71894SOL     OW17520   3.774   8.715   8.431
71894SOL    HW117521   3.794   8.756   8.347
71894SOL    HW217522   3.745   8.627   8.409
71895SOL     OW17523   9.795  10.859   8.963
71895SOL    HW117524   9.742  10.922   8.914
71895SOL    HW217525   9.797  10.893   9.052
71896SOL     OW17526  11.705   8.849   2.762
71896SOL    HW117527  11.689   8.771   2.815
71896SOL    HW217528  11.799   8.847   2.744
71897SOL     OW17529   1.239   0.294   8.906
71897SOL    HW117530   1.210   0.234   8.837
71897SOL    HW217531   1.224   0.246   8.987
71898SOL     OW17532   5.345   5.476   5.748
71898SOL    HW117533   5.337   5.495   5.841
71898SOL    HW217534   5.425   5.424   5.741
71899SOL     OW17535   7.900  10.707  14.042
71899SOL    HW117536   7.822  10.679  13.993
71899SOL    HW217537   7.958  10.631  14.041
71900SOL     OW17538   0.144   1.198   8.549
71900SOL    HW117539   0.066   1.253   8.539
71900SOL    HW217540   0.166   1.206   8.642
71901SOL     OW17541  11.097   6.953   0.099
71901SOL    HW117542  11.071   6.973   0.189
71901SOL    HW217543  11.016   6.928   0.056
71902SOL     OW17544   8.921   7.567   6.693
71902SOL    HW117545   9.014   7.588   6.687
71902SOL    HW217546   8.905   7.506   6.622
71903SOL     OW17547   3.970  14.293   9.047
71903SOL    HW117548   4.060  14.263   9.032
71903SOL    HW217549   3.926  14.218   9.089
71904SOL     OW17550  12.360   6.525   1.203
71904SOL    HW117551  12.419   6.496   1.133
71904SOL    HW217552  12.294   6.578   1.159
71905SOL     OW17553   7.475  13.150  13.872
71905SOL    HW117554   7.517  13.070  13.840
71905SOL    HW217555   7.544  13.216  13.872
71906SOL     OW17556   9.025   1.995   3.797
71906SOL    HW117557   8.971   2.056   3.848
71906SOL    HW217558   8.969   1.970   3.724
71907SOL     OW17559   1.685   3.392   3.223
71907SOL    HW117560   1.641   3.410   3.140
71907SOL    HW217561   1.653   3.460   3.283
71908SOL     OW17562   8.609   3.588   2.472
71908SOL    HW117563   8.675   3.579   2.403
71908SOL    HW217564   8.552   3.512   2.460
71909SOL     OW17565   7.491  11.371   3.258
71909SOL    HW117566   7.400  11.372   3.286
71909SOL    HW217567   7.488  11.337   3.168
71910SOL     OW17568  14.097   0.260  10.576
71910SOL    HW117569  14.043   0.338  10.563
71910SOL    HW217570  14.134   0.270  10.664
71911SOL     OW17571   6.779   0.679   8.606
71911SOL    HW117572   6.776   0.602   8.549
71911SOL    HW217573   6.862   0.670   8.653
71912SOL     OW17574  12.498   9.387  13.431
71912SOL    HW117575  12.412   9.395  13.390
71912SOL    HW217576  12.481   9.341  13.513
71913SOL     OW17577   9.315  14.170   2.164
71913SOL    HW117578   9.257  14.174   2.240
71913SOL    HW217579   9.350  14.259   2.156
71914SOL     OW17580   2.865   9.647   3.401
71914SOL    HW117581   2.820   9.719   3.357
71914SOL    HW217582   2.892   9.588   3.331
71915SOL     OW17583   9.235   1.439   5.788
71915SOL    HW117584   9.180   1.408   5.716
71915SOL    HW217585   9.174   1.458   5.859
71916SOL     OW17586  13.292   7.545   7.234
71916SOL    HW117587  13.273   7.554   7.327
71916SOL    HW217588  13.230   7.479   7.203
71917SOL     OW17589   3.137   3.285  10.206
71917SOL    HW117590   3.084   3.364  10.197
71917SOL    HW217591   3.164   3.263  10.117
71918SOL     OW17592  11.537   1.085   6.985
71918SOL    HW117593  11.572   0.996   6.994
71918SOL    HW217594  11.444   1.073   6.970
71919SOL     OW17595  10.486   0.848   6.153
71919SOL    HW117596  10.558   0.785   6.159
71919SOL    HW217597  10.429   0.813   6.084
71920SOL     OW17598   3.084  11.151   7.761
71920SOL    HW117599   3.053  11.085   7.822
71920SOL    HW217600   3.102  11.228   7.815
71921SOL     OW17601  10.350   2.507   0.056
71921SOL    HW117602  10.354   2.483   0.149
71921SOL    HW217603  10.350   2.423   0.010
71922SOL     OW17604  13.841   2.908   3.486
71922SOL    HW117605  13.905   2.968   3.447
71922SOL    HW217606  13.807   2.858   3.411
71923SOL     OW17607   7.420   1.360  10.041
71923SOL    HW117608   7.363   1.393   9.972
71923SOL    HW217609   7.476   1.434  10.064
71924SOL     OW17610   1.585   9.118   1.865
71924SOL    HW117611   1.567   9.195   1.812
71924SOL    HW217612   1.605   9.049   1.802
71925SOL     OW17613   2.793  13.816   6.515
71925SOL    HW117614   2.818  13.779   6.431
71925SOL    HW217615   2.814  13.748   6.579
71926SOL     OW17616   9.385   3.758  10.462
71926SOL    HW117617   9.429   3.715  10.389
71926SOL    HW217618   9.453   3.813  10.502
71927SOL     OW17619   2.435  12.956   6.790
71927SOL    HW117620   2.449  13.011   6.713
71927SOL    HW217621   2.522  12.949   6.830
71928SOL     OW17622   9.778   1.912   3.876
71928SOL    HW117623   9.757   1.832   3.925
71928SOL    HW217624   9.755   1.890   3.785
71929SOL     OW17625  11.096   5.520   7.897
71929SOL    HW117626  11.010   5.507   7.857
71929SOL    HW217627  11.100   5.454   7.967
71930SOL     OW17628  11.419   1.443   3.089
71930SOL    HW117629  11.431   1.379   3.018
71930SOL    HW217630  11.332   1.480   3.075
71931SOL     OW17631   9.523  14.325   4.457
71931SOL    HW117632   9.448  14.352   4.403
71931SOL    HW217633   9.536  14.398   4.517
71932SOL     OW17634  11.579   8.095   8.913
71932SOL    HW117635  11.624   8.012   8.933
71932SOL    HW217636  11.577   8.099   8.817
71933SOL     OW17637  13.384   6.815   7.874
71933SOL    HW117638  13.416   6.871   7.944
71933SOL    HW217639  13.430   6.732   7.886
71934SOL     OW17640  10.641  14.596   8.777
71934SOL    HW117641  10.667  14.564   8.691
71934SOL    HW217642  10.705  14.558   8.837
71935SOL     OW17643   7.245   2.915   4.747
71935SOL    HW117644   7.234   2.841   4.688
71935SOL    HW217645   7.185   2.982   4.712
71936SOL     OW17646   3.450   3.815   6.469
71936SOL    HW117647   3.524   3.772   6.428
71936SOL    HW217648   3.489   3.881   6.526
71937SOL     OW17649   9.794   4.734   8.300
71937SOL    HW117650   9.875   4.781   8.317
71937SOL    HW217651   9.814   4.676   8.226
71938SOL     OW17652   8.290   7.322   1.828
71938SOL    HW117653   8.346   7.337   1.904
71938SOL    HW217654   8.341   7.263   1.773
71939SOL     OW17655   7.083  14.818   2.189
71939SOL    HW117656   7.178  14.811   2.195
71939SOL    HW217657   7.064   0.033   2.221
71940SOL     OW17658  13.019   2.723   2.616
71940SOL    HW117659  13.107   2.716   2.653
71940SOL    HW217660  13.020   2.806   2.568
71941SOL     OW17661   4.107  12.220  12.318
71941SOL    HW117662   4.093  12.312  12.295
71941SOL    HW217663   4.075  12.212  12.408
71942SOL     OW17664   3.012   8.823   4.827
71942SOL    HW117665   3.035   8.735   4.797
71942SOL    HW217666   2.997   8.872   4.746
71943SOL     OW17667  12.574   8.257   4.337
71943SOL    HW117668  12.566   8.164   4.358
71943SOL    HW217669  12.484   8.286   4.322
71944SOL     OW17670  14.808  13.269   1.146
71944SOL    HW117671   0.019  13.235   1.177
71944SOL    HW217672  14.753  13.191   1.138
71945SOL     OW17673   1.843   4.329   8.208
71945SOL    HW117674   1.760   4.307   8.166
71945SOL    HW217675   1.907   4.326   8.137
71946SOL     OW17676  12.937  11.693  11.262
71946SOL    HW117677  13.030  11.712  11.269
71946SOL    HW217678  12.896  11.776  11.237
71947SOL     OW17679   4.638   8.551  12.329
71947SOL    HW117680   4.692   8.498  12.272
71947SOL    HW217681   4.615   8.493  12.402
71948SOL     OW17682   7.040  11.219   8.537
71948SOL    HW117683   7.090  11.147   8.498
71948SOL    HW217684   7.089  11.298   8.512
71949SOL     OW17685   8.541   7.517  14.534
71949SOL    HW117686   8.594   7.560  14.601
71949SOL    HW217687   8.550   7.424  14.554
71950SOL     OW17688  11.873   7.238  11.690
71950SOL    HW117689  11.967   7.245  11.705
71950SOL    HW217690  11.837   7.319  11.726
71951SOL     OW17691   6.440   1.434   7.519
71951SOL    HW117692   6.388   1.390   7.587
71951SOL    HW217693   6.442   1.371   7.447
71952SOL     OW17694   8.688   4.293   4.510
71952SOL    HW117695   8.624   4.224   4.529
71952SOL    HW217696   8.636   4.374   4.511
71953SOL     OW17697  13.723   4.672  14.651
71953SOL    HW117698  13.803   4.709  14.689
71953SOL    HW217699  13.654   4.695  14.713
71954SOL     OW17700   9.178   3.591   0.725
71954SOL    HW117701   9.163   3.566   0.816
71954SOL    HW217702   9.241   3.663   0.730
71955SOL     OW17703   3.099   0.767   8.095
71955SOL    HW117704   3.031   0.755   8.162
71955SOL    HW217705   3.085   0.694   8.034
71956SOL     OW17706   9.445  10.178   6.265
71956SOL    HW117707   9.494  10.137   6.194
71956SOL    HW217708   9.389  10.107   6.299
71957SOL     OW17709   2.414   5.191   9.163
71957SOL    HW117710   2.392   5.204   9.071
71957SOL    HW217711   2.330   5.197   9.209
71958SOL     OW17712  11.491   3.888  11.481
71958SOL    HW117713  11.405   3.927  11.499
71958SOL    HW217714  11.530   3.947  11.416
71959SOL     OW17715   8.657  11.883  13.693
71959SOL    HW117716   8.612  11.854  13.614
71959SOL    HW217717   8.589  11.921  13.748
71960SOL     OW17718   5.362   0.183   8.282
71960SOL    HW117719   5.388   0.185   8.374
71960SOL    HW217720   5.428   0.126   8.241
71961SOL     OW17721   0.270   5.729   0.901
71961SOL    HW117722   0.232   5.777   0.827
71961SOL    HW217723   0.202   5.667   0.927
71962SOL     OW17724   2.815  12.876  14.530
71962SOL    HW117725   2.757  12.889  14.454
71962SOL    HW217726   2.863  12.959  14.538
71963SOL     OW17727  12.309   7.232  12.189
71963SOL    HW117728  12.365   7.310  12.195
71963SOL    HW217729  12.360   7.163  12.232
71964SOL     OW17730  12.082   1.409   8.397
71964SOL    HW117731  12.124   1.391   8.313
71964SOL    HW217732  12.122   1.347   8.458
71965SOL     OW17733   5.614  12.952   2.847
71965SOL    HW117734   5.695  12.959   2.796
71965SOL    HW217735   5.556  12.898   2.793
71966SOL     OW17736   3.909   2.266  13.007
71966SOL    HW117737   3.933   2.182  12.968
71966SOL    HW217738   3.954   2.331  12.953
71967SOL     OW17739   2.245  10.405   9.446
71967SOL    HW117740   2.153  10.401   9.420
71967SOL    HW217741   2.284  10.327   9.407
71968SOL     OW17742   7.559  13.750   1.760
71968SOL    HW117743   7.595  13.782   1.677
71968SOL    HW217744   7.489  13.812   1.781
71969SOL     OW17745  11.135   2.408   4.157
71969SOL    HW117746  11.222   2.447   4.144
71969SOL    HW217747  11.111   2.432   4.247
71970SOL     OW17748   4.266   6.822   4.104
71970SOL    HW117749   4.284   6.809   4.011
71970SOL    HW217750   4.352   6.813   4.147
71971SOL     OW17751   7.717  11.446   9.062
71971SOL    HW117752   7.790  11.501   9.091
71971SOL    HW217753   7.638  11.495   9.086
71972SOL     OW17754  12.596  10.106  11.727
71972SOL    HW117755  12.590  10.149  11.813
71972SOL    HW217756  12.518  10.050  11.723
71973SOL     OW17757   6.406   3.191   4.290
71973SOL    HW117758   6.500   3.189   4.272
71973SOL    HW217759   6.366   3.146   4.215
71974SOL     OW17760   0.262  11.596   6.785
71974SOL    HW117761   0.357  11.592   6.797
71974SOL    HW217762   0.227  11.577   6.872
71975SOL     OW17763   5.163  12.040   4.977
71975SOL    HW117764   5.135  11.977   4.910
71975SOL    HW217765   5.236  11.997   5.021
71976SOL     OW17766  12.738   6.374   4.886
71976SOL    HW117767  12.723   6.310   4.816
71976SOL    HW217768  12.668   6.438   4.876
71977SOL     OW17769   0.427  11.775  13.634
71977SOL    HW117770   0.430  11.817  13.720
71977SOL    HW217771   0.354  11.817  13.589
71978SOL     OW17772   7.498   0.428   3.570
71978SOL    HW117773   7.508   0.465   3.482
71978SOL    HW217774   7.461   0.500   3.622
71979SOL     OW17775  11.627   6.888  10.738
71979SOL    HW117776  11.677   6.964  10.708
71979SOL    HW217777  11.685   6.843  10.799
71980SOL     OW17778  13.550   9.583   5.590
71980SOL    HW117779  13.556   9.673   5.556
71980SOL    HW217780  13.613   9.580   5.662
71981SOL     OW17781  12.932  10.600  10.172
71981SOL    HW117782  12.971  10.530  10.224
71981SOL    HW217783  13.003  10.631  10.116
71982SOL     OW17784  10.873   9.516   1.978
71982SOL    HW117785  10.802   9.464   2.015
71982SOL    HW217786  10.880   9.592   2.036
71983SOL     OW17787   7.640  14.563   9.113
71983SOL    HW117788   7.591  14.603   9.185
71983SOL    HW217789   7.713  14.623   9.098
71984SOL     OW17790  13.291   9.770  12.994
71984SOL    HW117791  13.273   9.848  12.942
71984SOL    HW217792  13.263   9.697  12.939
71985SOL     OW17793   6.706   7.190   5.875
71985SOL    HW117794   6.653   7.208   5.952
71985SOL    HW217795   6.787   7.152   5.909
71986SOL     OW17796   2.313   3.484   7.857
71986SOL    HW117797   2.366   3.544   7.910
71986SOL    HW217798   2.275   3.423   7.920
71987SOL     OW17799   9.632   0.708   5.245
71987SOL    HW117800   9.589   0.699   5.160
71987SOL    HW217801   9.725   0.715   5.225
71988SOL     OW17802   6.930   2.306   9.359
71988SOL    HW117803   6.994   2.237   9.340
71988SOL    HW217804   6.871   2.304   9.283
71989SOL     OW17805  14.613  13.431   4.234
71989SOL    HW117806  14.707  13.416   4.225
71989SOL    HW217807  14.605  13.481   4.316
71990SOL     OW17808   5.779  11.035   0.523
71990SOL    HW117809   5.829  11.104   0.478
71990SOL    HW217810   5.699  11.025   0.471
71991SOL     OW17811  13.232  12.452  11.695
71991SOL    HW117812  13.152  12.409  11.663
71991SOL    HW217813  13.299  12.427  11.632
71992SOL     OW17814   9.897   8.089  12.280
71992SOL    HW117815   9.972   8.101  12.339
71992SOL    HW217816   9.925   8.129  12.198
71993SOL     OW17817   0.644   2.058   0.161
71993SOL    HW117818   0.661   1.965   0.150
71993SOL    HW217819   0.731   2.098   0.168
71994SOL     OW17820   0.512   0.188   0.921
71994SOL    HW117821   0.581   0.131   0.955
71994SOL    HW217822   0.558   0.249   0.863
71995SOL     OW17823   8.617  10.777   1.427
71995SOL    HW117824   8.693  10.773   1.485
71995SOL    HW217825   8.585  10.687   1.423
71996SOL     OW17826   7.316   2.506   6.918
71996SOL    HW117827   7.233   2.555   6.922
71996SOL    HW217828   7.313   2.449   6.995
71997SOL     OW17829  13.232   6.899   8.964
71997SOL    HW117830  13.233   6.978   9.019
71997SOL    HW217831  13.233   6.933   8.874
71998SOL     OW17832   4.379   1.173  13.295
71998SOL    HW117833   4.305   1.149  13.351
71998SOL    HW217834   4.405   1.260  13.327
71999SOL     OW17835   9.499   6.809   6.388
71999SOL    HW117836   9.474   6.718   6.400
71999SOL    HW217837   9.544   6.811   6.303
72000SOL     OW17838  10.785   0.233  13.259
72000SOL    HW117839  10.730   0.278  13.322
72000SOL    HW217840  10.873   0.269  13.273
72001SOL     OW17841   0.365   4.452   3.194
72001SOL    HW117842   0.297   4.410   3.247
72001SOL    HW217843   0.421   4.379   3.166
72002SOL     OW17844   2.609   0.013   2.752
72002SOL    HW117845   2.557   0.022   2.832
72002SOL    HW217846   2.653  14.802   2.761
72003SOL     OW17847   2.697   0.578  13.871
72003SOL    HW117848   2.604   0.579  13.848
72003SOL    HW217849   2.722   0.670  13.872
72004SOL     OW17850   5.289  11.871   9.563
72004SOL    HW117851   5.235  11.876   9.484
72004SOL    HW217852   5.375  11.844   9.530
72005SOL     OW17853   4.624   9.790   0.440
72005SOL    HW117854   4.608   9.763   0.350
72005SOL    HW217855   4.684   9.864   0.434
72006SOL     OW17856  12.460   1.579   6.649
72006SOL    HW117857  12.412   1.509   6.693
72006SOL    HW217858  12.485   1.543   6.565
72007SOL     OW17859  14.301   4.808  11.571
72007SOL    HW117860  14.207   4.813  11.554
72007SOL    HW217861  14.335   4.754  11.500
72008SOL     OW17862   0.686   0.646  10.325
72008SOL    HW117863   0.626   0.614  10.258
72008SOL    HW217864   0.750   0.575  10.336
72009SOL     OW17865  13.195   4.008   5.234
72009SOL    HW117866  13.241   3.925   5.239
72009SOL    HW217867  13.104   3.987   5.252
72010SOL     OW17868   6.060   9.437  13.874
72010SOL    HW117869   6.145   9.394  13.873
72010SOL    HW217870   5.998   9.369  13.903
72011SOL     OW17871   0.568  11.364   0.214
72011SOL    HW117872   0.499  11.317   0.261
72011SOL    HW217873   0.527  11.445   0.185
72012SOL     OW17874   9.933  13.629  12.825
72012SOL    HW117875   9.974  13.702  12.778
72012SOL    HW217876   9.993  13.556  12.813
72013SOL     OW17877   3.377   9.131   1.888
72013SOL    HW117878   3.339   9.044   1.874
72013SOL    HW217879   3.315   9.176   1.944
72014SOL     OW17880  11.249   2.378  13.522
72014SOL    HW117881  11.209   2.427  13.450
72014SOL    HW217882  11.176   2.357  13.580
72015SOL     OW17883  12.914   3.708   1.962
72015SOL    HW117884  12.936   3.625   1.919
72015SOL    HW217885  12.856   3.753   1.900
72016SOL     OW17886   9.647  10.118   5.168
72016SOL    HW117887   9.589  10.152   5.236
72016SOL    HW217888   9.591  10.112   5.090
72017SOL     OW17889   5.274  13.102   8.057
72017SOL    HW117890   5.239  13.086   8.144
72017SOL    HW217891   5.368  13.082   8.065
72018SOL     OW17892  11.365  12.409  12.706
72018SOL    HW117893  11.288  12.444  12.662
72018SOL    HW217894  11.392  12.335  12.652
72019SOL     OW17895  13.187   9.713  14.717
72019SOL    HW117896  13.236   9.739  14.795
72019SOL    HW217897  13.125   9.646  14.749
72020SOL     OW17898   5.943   8.210   3.542
72020SOL    HW117899   5.885   8.286   3.543
72020SOL    HW217900   5.989   8.214   3.626
72021SOL     OW17901  10.246   6.165   3.709
72021SOL    HW117902  10.203   6.115   3.779
72021SOL    HW217903  10.335   6.179   3.741
72022SOL     OW17904  10.605   2.692  13.912
72022SOL    HW117905  10.550   2.770  13.911
72022SOL    HW217906  10.694   2.725  13.903
72023SOL     OW17907  10.731   5.812   3.334
72023SOL    HW117908  10.808   5.761   3.360
72023SOL    HW217909  10.659   5.750   3.337
72024SOL     OW17910  12.638   4.891  14.849
72024SOL    HW117911  12.633   4.802   0.009
72024SOL    HW217912  12.674   4.942   0.049
72025SOL     OW17913  13.297   5.017   5.804
72025SOL    HW117914  13.270   5.043   5.892
72025SOL    HW217915  13.236   5.063   5.745
72026SOL     OW17916   0.729  11.765   7.527
72026SOL    HW117917   0.726  11.812   7.444
72026SOL    HW217918   0.821  11.771   7.554
72027SOL     OW17919   7.430   6.385   7.501
72027SOL    HW117920   7.466   6.362   7.586
72027SOL    HW217921   7.394   6.473   7.512
72028SOL     OW17922   4.119   8.330   2.756
72028SOL    HW117923   4.075   8.246   2.771
72028SOL    HW217924   4.068   8.393   2.808
72029SOL     OW17925  11.649  14.434   2.672
72029SOL    HW117926  11.586  14.392   2.731
72029SOL    HW217927  11.642  14.527   2.691
72030SOL     OW17928  10.581   4.045   7.168
72030SOL    HW117929  10.612   4.049   7.077
72030SOL    HW217930  10.564   4.137   7.190
72031SOL     OW17931  14.833   6.615  14.506
72031SOL    HW117932  14.817   6.589  14.415
72031SOL    HW217933  14.829   6.711  14.505
72032SOL     OW17934   2.756   1.161  13.132
72032SOL    HW117935   2.757   1.113  13.215
72032SOL    HW217936   2.784   1.096  13.067
72033SOL     OW17937  12.159   7.706   3.431
72033SOL    HW117938  12.231   7.769   3.423
72033SOL    HW217939  12.173   7.664   3.516
72034SOL     OW17940   2.935   5.362   5.980
72034SOL    HW117941   2.952   5.269   5.971
72034SOL    HW217942   2.939   5.378   6.075
72035SOL     OW17943  14.390   7.462   0.428
72035SOL    HW117944  14.295   7.454   0.435
72035SOL    HW217945  14.423   7.373   0.438
72036SOL     OW17946  11.789   0.628  10.153
72036SOL    HW117947  11.824   0.550  10.197
72036SOL    HW217948  11.701   0.638  10.189
72037SOL     OW17949  12.058  11.958  13.472
72037SOL    HW117950  12.061  12.052  13.453
72037SOL    HW217951  12.133  11.943  13.529
72038SOL     OW17952  14.625   9.042  11.211
72038SOL    HW117953  14.698   9.104  11.214
72038SOL    HW217954  14.550   9.095  11.181
72039SOL     OW17955   1.137   6.883   5.342
72039SOL    HW117956   1.224   6.848   5.325
72039SOL    HW217957   1.126   6.875   5.437
72040SOL     OW17958   8.010   7.041  14.013
72040SOL    HW117959   7.917   7.022  14.027
72040SOL    HW217960   8.029   7.007  13.926
72041SOL     OW17961   6.919   6.762   9.771
72041SOL    HW117962   6.881   6.674   9.761
72041SOL    HW217963   7.013   6.747   9.773
72042SOL     OW17964   7.915   2.441  10.326
72042SOL    HW117965   7.869   2.359  10.342
72042SOL    HW217966   8.007   2.416  10.317
72043SOL     OW17967  10.351   0.340  11.100
72043SOL    HW117968  10.380   0.279  11.167
72043SOL    HW217969  10.370   0.297  11.017
72044SOL     OW17970   4.898   8.852   5.129
72044SOL    HW117971   4.940   8.766   5.123
72044SOL    HW217972   4.903   8.874   5.222
72045SOL     OW17973  14.767   4.570  11.685
72045SOL    HW117974  14.710   4.544  11.612
72045SOL    HW217975  14.854   4.577  11.645
72046SOL     OW17976   6.789  13.113   6.981
72046SOL    HW117977   6.792  13.033   6.929
72046SOL    HW217978   6.835  13.179   6.929
72047SOL     OW17979   2.630   1.743  12.049
72047SOL    HW117980   2.706   1.715  11.999
72047SOL    HW217981   2.569   1.778  11.983
72048SOL     OW17982   7.287  13.341  10.926
72048SOL    HW117983   7.234  13.388  10.991
72048SOL    HW217984   7.367  13.393  10.919
72049SOL     OW17985   0.106   7.995  10.284
72049SOL    HW117986   0.055   8.052  10.227
72049SOL    HW217987   0.066   8.004  10.370
72050SOL     OW17988   1.272   1.059   9.078
72050SOL    HW117989   1.264   1.014   8.994
72050SOL    HW217990   1.182   1.062   9.112
72051SOL     OW17991   5.759  12.205   6.490
72051SOL    HW117992   5.771  12.268   6.560
72051SOL    HW217993   5.700  12.139   6.526
72052SOL     OW17994   4.473  13.128  13.108
72052SOL    HW117995   4.391  13.160  13.070
72052SOL    HW217996   4.506  13.203  13.157
72053SOL     OW17997   0.694   8.479   0.375
72053SOL    HW117998   0.715   8.427   0.453
72053SOL    HW217999   0.689   8.569   0.406
72054SOL     OW18000  12.712   9.180   7.580
72054SOL    HW118001  12.771   9.121   7.534
72054SOL    HW218002  12.733   9.167   7.673
72055SOL     OW18003   2.532   1.677   0.915
72055SOL    HW118004   2.513   1.762   0.955
72055SOL    HW218005   2.590   1.698   0.841
72056SOL     OW18006  14.257   1.026   0.981
72056SOL    HW118007  14.310   0.985   1.050
72056SOL    HW218008  14.168   0.995   0.998
72057SOL     OW18009   1.709   3.979   7.357
72057SOL    HW118010   1.623   4.015   7.335
72057SOL    HW218011   1.768   4.054   7.353
72058SOL     OW18012   1.447  10.803   7.129
72058SOL    HW118013   1.392  10.731   7.101
72058SOL    HW218014   1.400  10.882   7.102
72059SOL     OW18015  10.340  12.562   4.446
72059SOL    HW118016  10.255  12.578   4.488
72059SOL    HW218017  10.403  12.566   4.518
72060SOL     OW18018   3.539   1.449  13.031
72060SOL    HW118019   3.560   1.423  13.121
72060SOL    HW218020   3.446   1.428  13.022
72061SOL     OW18021   9.554   4.309  12.797
72061SOL    HW118022   9.465   4.341  12.783
72061SOL    HW218023   9.549   4.215  12.782
72062SOL     OW18024   6.581   4.557  10.237
72062SOL    HW118025   6.626   4.475  10.257
72062SOL    HW218026   6.565   4.554  10.143
72063SOL     OW18027   8.536  14.220   2.781
72063SOL    HW118028   8.591  14.285   2.738
72063SOL    HW218029   8.592  14.182   2.849
72064SOL     OW18030   9.454   7.925  11.241
72064SOL    HW118031   9.500   7.845  11.214
72064SOL    HW218032   9.522   7.992  11.239
72065SOL     OW18033   8.371   9.935   4.158
72065SOL    HW118034   8.300   9.908   4.099
72065SOL    HW218035   8.451   9.909   4.113
72066SOL     OW18036   3.453   6.167  10.871
72066SOL    HW118037   3.401   6.110  10.926
72066SOL    HW218038   3.542   6.161  10.906
72067SOL     OW18039  14.093   9.733  10.675
72067SOL    HW118040  14.034   9.663  10.649
72067SOL    HW218041  14.128   9.767  10.593
72068SOL     OW18042   2.016  10.779   0.736
72068SOL    HW118043   1.972  10.826   0.807
72068SOL    HW218044   1.953  10.781   0.664
72069SOL     OW18045  11.406   1.458   0.862
72069SOL    HW118046  11.465   1.490   0.795
72069SOL    HW218047  11.331   1.423   0.814
72070SOL     OW18048  12.108   5.187   5.168
72070SOL    HW118049  12.014   5.196   5.179
72070SOL    HW218050  12.144   5.202   5.255
72071SOL     OW18051   3.053   5.252  11.922
72071SOL    HW118052   3.098   5.267  12.006
72071SOL    HW218053   3.105   5.183  11.880
72072SOL     OW18054   2.115   7.107   3.195
72072SOL    HW118055   2.152   7.029   3.154
72072SOL    HW218056   2.138   7.178   3.136
72073SOL     OW18057   1.792   5.219   0.621
72073SOL    HW118058   1.850   5.169   0.678
72073SOL    HW218059   1.707   5.218   0.666
72074SOL     OW18060   2.490   3.174   8.312
72074SOL    HW118061   2.541   3.239   8.362
72074SOL    HW218062   2.497   3.094   8.363
72075SOL     OW18063   3.655   6.377  11.556
72075SOL    HW118064   3.651   6.386  11.461
72075SOL    HW218065   3.717   6.305  11.571
72076SOL     OW18066   8.331   9.365   8.276
72076SOL    HW118067   8.264   9.425   8.243
72076SOL    HW218068   8.290   9.278   8.273
72077SOL     OW18069   9.270  10.293   7.403
72077SOL    HW118070   9.298  10.375   7.445
72077SOL    HW218071   9.340  10.231   7.423
72078SOL     OW18072   7.282   1.743   3.809
72078SOL    HW118073   7.270   1.715   3.900
72078SOL    HW218074   7.310   1.834   3.815
72079SOL     OW18075  12.910   9.551  10.484
72079SOL    HW118076  12.948   9.606  10.415
72079SOL    HW218077  12.978   9.486  10.503
72080SOL     OW18078  10.180  13.150   8.646
72080SOL    HW118079  10.232  13.071   8.658
72080SOL    HW218080  10.095  13.118   8.615
72081SOL     OW18081   5.350   7.823   0.343
72081SOL    HW118082   5.262   7.835   0.308
72081SOL    HW218083   5.346   7.858   0.432
72082SOL     OW18084   4.085   1.169   4.726
72082SOL    HW118085   4.081   1.165   4.822
72082SOL    HW218086   4.144   1.098   4.702
72083SOL     OW18087   1.732   0.806   4.695
72083SOL    HW118088   1.675   0.769   4.763
72083SOL    HW218089   1.789   0.733   4.671
72084SOL     OW18090  12.372   3.774  14.447
72084SOL    HW118091  12.410   3.699  14.401
72084SOL    HW218092  12.281   3.750  14.462
72085SOL     OW18093  12.204   4.192  11.503
72085SOL    HW118094  12.120   4.235  11.487
72085SOL    HW218095  12.229   4.221  11.591
72086SOL     OW18096  13.028   8.915   1.969
72086SOL    HW118097  12.934   8.901   1.958
72086SOL    HW218098  13.040   8.922   2.064
72087SOL     OW18099   9.786  12.708   8.179
72087SOL    HW118100   9.720  12.731   8.114
72087SOL    HW218101   9.814  12.620   8.155
72088SOL     OW18102  13.831   7.777   7.938
72088SOL    HW118103  13.875   7.847   7.889
72088SOL    HW218104  13.756   7.821   7.979
72089SOL     OW18105   2.539  11.211   9.223
72089SOL    HW118106   2.469  11.270   9.195
72089SOL    HW218107   2.619  11.264   9.218
72090SOL     OW18108   9.574  13.469   9.008
72090SOL    HW118109   9.620  13.431   8.933
72090SOL    HW218110   9.563  13.561   8.984
72091SOL     OW18111  13.084   4.211   2.829
72091SOL    HW118112  12.996   4.188   2.859
72091SOL    HW218113  13.072   4.238   2.738
72092SOL     OW18114   2.458  14.187  13.747
72092SOL    HW118115   2.410  14.107  13.768
72092SOL    HW218116   2.408  14.228  13.676
72093SOL     OW18117   3.480   4.642  12.222
72093SOL    HW118118   3.574   4.655  12.234
72093SOL    HW218119   3.444   4.640  12.310
72094SOL     OW18120   8.748   1.311   8.661
72094SOL    HW118121   8.666   1.357   8.640
72094SOL    HW218122   8.723   1.219   8.664
72095SOL     OW18123  14.259  13.389   1.671
72095SOL    HW118124  14.290  13.410   1.759
72095SOL    HW218125  14.250  13.294   1.671
72096SOL     OW18126   9.777   4.392   9.418
72096SOL    HW118127   9.764   4.316   9.361
72096SOL    HW218128   9.706   4.386   9.483
72097SOL     OW18129  10.759   9.306   9.663
72097SOL    HW118130  10.784   9.347   9.580
72097SOL    HW218131  10.829   9.330   9.723
72098SOL     OW18132   6.074   8.912   0.501
72098SOL    HW118133   6.043   8.948   0.584
72098SOL    HW218134   6.138   8.976   0.470
72099SOL     OW18135   0.309  13.863   9.443
72099SOL    HW118136   0.352  13.946   9.465
72099SOL    HW218137   0.377  13.811   9.400
72100SOL     OW18138  14.330   9.561   9.817
72100SOL    HW118139  14.299   9.605   9.737
72100SOL    HW218140  14.354   9.633   9.875
72101SOL     OW18141   7.371   9.482  10.270
72101SOL    HW118142   7.405   9.470  10.181
72101SOL    HW218143   7.295   9.540  10.259
72102SOL     OW18144  12.789   1.101   4.413
72102SOL    HW118145  12.801   1.137   4.325
72102SOL    HW218146  12.739   1.021   4.400
72103SOL     OW18147   6.420   0.437   3.609
72103SOL    HW118148   6.448   0.455   3.519
72103SOL    HW218149   6.467   0.501   3.662
72104SOL     OW18150  10.676  13.102  10.500
72104SOL    HW118151  10.754  13.056  10.467
72104SOL    HW218152  10.711  13.175  10.551
72105SOL     OW18153  12.528  10.793   4.903
72105SOL    HW118154  12.553  10.880   4.873
72105SOL    HW218155  12.610  10.753   4.930
72106SOL     OW18156  11.920   0.259   2.279
72106SOL    HW118157  12.008   0.284   2.251
72106SOL    HW218158  11.867   0.338   2.266
72107SOL     OW18159   9.665   4.584   0.484
72107SOL    HW118160   9.654   4.516   0.551
72107SOL    HW218161   9.698   4.659   0.533
72108SOL     OW18162  10.775   1.837   8.695
72108SOL    HW118163  10.766   1.881   8.610
72108SOL    HW218164  10.722   1.757   8.686
72109SOL     OW18165   6.826  10.874   1.165
72109SOL    HW118166   6.820  10.939   1.234
72109SOL    HW218167   6.918  10.847   1.166
72110SOL     OW18168   7.572   4.458   7.347
72110SOL    HW118169   7.528   4.541   7.326
72110SOL    HW218170   7.654   4.484   7.390
72111SOL     OW18171   6.964  10.032   6.824
72111SOL    HW118172   6.911  10.075   6.890
72111SOL    HW218173   6.957  10.089   6.747
72112SOL     OW18174  11.579   9.655  10.143
72112SOL    HW118175  11.665   9.678  10.177
72112SOL    HW218176  11.520   9.719  10.181
72113SOL     OW18177   6.405  14.663   9.045
72113SOL    HW118178   6.323  14.679   8.998
72113SOL    HW218179   6.402  14.723   9.119
72114SOL     OW18180   8.811  12.543   4.191
72114SOL    HW118181   8.815  12.476   4.259
72114SOL    HW218182   8.732  12.521   4.141
72115SOL     OW18183  13.024   4.281   2.577
72115SOL    HW118184  13.088   4.344   2.545
72115SOL    HW218185  12.976   4.253   2.499
72116SOL     OW18186   4.520  14.567   7.843
72116SOL    HW118187   4.495  14.646   7.892
72116SOL    HW218188   4.461  14.499   7.875
72117SOL     OW18189   0.975   9.183   1.858
72117SOL    HW118190   1.006   9.217   1.942
72117SOL    HW218191   0.944   9.095   1.877
72118SOL     OW18192  11.947  14.332   9.099
72118SOL    HW118193  12.018  14.282   9.139
72118SOL    HW218194  11.867  14.285   9.122
72119SOL     OW18195   8.305   0.083  10.770
72119SOL    HW118196   8.393   0.081  10.731
72119SOL    HW218197   8.266   0.164  10.737
72120SOL     OW18198   5.504   7.432   2.982
72120SOL    HW118199   5.517   7.338   2.994
72120SOL    HW218200   5.592   7.469   2.988
72121SOL     OW18201  13.547   2.023   3.300
72121SOL    HW118202  13.572   1.993   3.387
72121SOL    HW218203  13.506   2.108   3.316
72122SOL     OW18204   2.414   0.959   4.505
72122SOL    HW118205   2.406   0.887   4.567
72122SOL    HW218206   2.499   0.944   4.463
72123SOL     OW18207  11.136   1.896   8.891
72123SOL    HW118208  11.183   1.979   8.889
72123SOL    HW218209  11.082   1.901   8.970
72124SOL     OW18210   4.780  13.371   3.609
72124SOL    HW118211   4.801  13.296   3.552
72124SOL    HW218212   4.686  13.383   3.599
72125SOL     OW18213   1.026   0.932  12.148
72125SOL    HW118214   1.069   0.958  12.229
72125SOL    HW218215   0.935   0.916  12.172
72126SOL     OW18216   3.964  14.496   3.397
72126SOL    HW118217   3.974  14.489   3.303
72126SOL    HW218218   4.028  14.434   3.433
72127SOL     OW18219  11.518   5.151   3.096
72127SOL    HW118220  11.526   5.136   3.002
72127SOL    HW218221  11.533   5.066   3.136
72128SOL     OW18222  10.608   6.598   3.281
72128SOL    HW118223  10.596   6.682   3.238
72128SOL    HW218224  10.520   6.569   3.303
72129SOL     OW18225  11.761  12.910   4.416
72129SOL    HW118226  11.750  13.001   4.387
72129SOL    HW218227  11.745  12.914   4.511
72130SOL     OW18228   2.367  12.356  13.547
72130SOL    HW118229   2.314  12.301  13.489
72130SOL    HW218230   2.424  12.295  13.594
72131SOL     OW18231   9.298   0.571  10.859
72131SOL    HW118232   9.387   0.537  10.869
72131SOL    HW218233   9.278   0.609  10.945
72132SOL     OW18234   8.111  12.147   2.011
72132SOL    HW118235   8.198  12.108   2.020
72132SOL    HW218236   8.055  12.074   1.986
72133SOL     OW18237   6.475  13.014   0.099
72133SOL    HW118238   6.496  12.921   0.109
72133SOL    HW218239   6.554  13.060   0.125
72134SOL     OW18240   2.129   0.594   0.212
72134SOL    HW118241   2.157   0.676   0.171
72134SOL    HW218242   2.106   0.538   0.138
72135SOL     OW18243  13.276   6.850   9.711
72135SOL    HW118244  13.181   6.863   9.720
72135SOL    HW218245  13.313   6.884   9.792
72136SOL     OW18246  12.947  13.391  14.274
72136SOL    HW118247  12.947  13.461  14.339
72136SOL    HW218248  12.992  13.318  14.317
72137SOL     OW18249  12.385   5.289  11.176
72137SOL    HW118250  12.320   5.291  11.106
72137SOL    HW218251  12.431   5.206  11.164
72138SOL     OW18252   2.103   3.223   8.866
72138SOL    HW118253   2.125   3.156   8.802
72138SOL    HW218254   2.143   3.193   8.947
72139SOL     OW18255   8.541   2.637   6.556
72139SOL    HW118256   8.468   2.700   6.553
72139SOL    HW218257   8.587   2.651   6.473
72140SOL     OW18258   1.851   9.309  11.327
72140SOL    HW118259   1.849   9.268  11.413
72140SOL    HW218260   1.805   9.392  11.339
72141SOL     OW18261  10.049   5.242  14.431
72141SOL    HW118262   9.990   5.188  14.481
72141SOL    HW218263  10.122   5.261  14.490
72142SOL     OW18264   5.901   7.014   7.879
72142SOL    HW118265   5.962   6.964   7.932
72142SOL    HW218266   5.830   6.953   7.859
72143SOL     OW18267   9.453  11.468   1.826
72143SOL    HW118268   9.461  11.552   1.872
72143SOL    HW218269   9.543  11.435   1.821
72144SOL     OW18270  13.135   9.798  11.252
72144SOL    HW118271  13.178   9.738  11.313
72144SOL    HW218272  13.042   9.775  11.258
72145SOL     OW18273   2.522   4.057  12.069
72145SOL    HW118274   2.549   3.967  12.052
72145SOL    HW218275   2.594   4.111  12.035
72146SOL     OW18276   3.205   0.896   3.949
72146SOL    HW118277   3.152   0.943   3.884
72146SOL    HW218278   3.200   0.949   4.028
72147SOL     OW18279   6.368   4.233   5.140
72147SOL    HW118280   6.459   4.233   5.170
72147SOL    HW218281   6.316   4.225   5.220
72148SOL     OW18282   4.587  12.110   4.426
72148SOL    HW118283   4.502  12.118   4.385
72148SOL    HW218284   4.593  12.186   4.484
72149SOL     OW18285   5.098   4.800   4.109
72149SOL    HW118286   5.007   4.824   4.122
72149SOL    HW218287   5.148   4.873   4.146
72150SOL     OW18288  13.746   6.658   5.297
72150SOL    HW118289  13.795   6.635   5.375
72150SOL    HW218290  13.786   6.739   5.266
72151SOL     OW18291   6.589   0.319  14.188
72151SOL    HW118292   6.619   0.403  14.221
72151SOL    HW218293   6.494   0.329  14.181
72152SOL     OW18294   6.534   3.147   0.473
72152SOL    HW118295   6.442   3.127   0.462
72152SOL    HW218296   6.576   3.112   0.394
72153SOL     OW18297   9.799   7.290   6.914
72153SOL    HW118298   9.737   7.335   6.971
72153SOL    HW218299   9.774   7.317   6.826
72154SOL     OW18300   5.575   5.153   6.428
72154SOL    HW118301   5.604   5.096   6.499
72154SOL    HW218302   5.479   5.151   6.433
72155SOL     OW18303   6.308  12.414  13.574
72155SOL    HW118304   6.327  12.338  13.628
72155SOL    HW218305   6.382  12.420  13.514
72156SOL     OW18306   8.285  10.445   4.083
72156SOL    HW118307   8.314  10.356   4.064
72156SOL    HW218308   8.237  10.438   4.166
72157SOL     OW18309   8.337   0.033   4.643
72157SOL    HW118310   8.321   0.045   4.549
72157SOL    HW218311   8.331  14.812   4.656
72158SOL     OW18312   5.574   6.294  14.715
72158SOL    HW118313   5.606   6.206  14.701
72158SOL    HW218314   5.632   6.331  14.782
72159SOL     OW18315   7.794   5.640   8.534
72159SOL    HW118316   7.804   5.665   8.626
72159SOL    HW218317   7.882   5.646   8.498
72160SOL     OW18318   0.186   4.045   0.914
72160SOL    HW118319   0.243   4.037   0.991
72160SOL    HW218320   0.245   4.034   0.839
72161SOL     OW18321   9.738   4.500  10.289
72161SOL    HW118322   9.689   4.537  10.362
72161SOL    HW218323   9.746   4.573  10.227
72162SOL     OW18324  12.398  14.173   8.847
72162SOL    HW118325  12.454  14.096   8.850
72162SOL    HW218326  12.312  14.140   8.820
72163SOL     OW18327   1.611  11.824   9.278
72163SOL    HW118328   1.530  11.789   9.315
72163SOL    HW218329   1.589  11.914   9.251
72164SOL     OW18330  14.499   9.595   7.286
72164SOL    HW118331  14.512   9.514   7.236
72164SOL    HW218332  14.514   9.569   7.377
72165SOL     OW18333  12.453  14.203   8.058
72165SOL    HW118334  12.522  14.137   8.070
72165SOL    HW218335  12.422  14.222   8.147
72166SOL     OW18336   3.578  10.964  13.284
72166SOL    HW118337   3.633  10.888  13.268
72166SOL    HW218338   3.628  11.038  13.248
72167SOL     OW18339   9.585  12.185   4.007
72167SOL    HW118340   9.610  12.250   3.940
72167SOL    HW218341   9.653  12.119   4.003
72168SOL     OW18342  10.232  10.365  12.545
72168SOL    HW118343  10.202  10.451  12.576
72168SOL    HW218344  10.187  10.352  12.462
72169SOL     OW18345  12.901   2.255  12.471
72169SOL    HW118346  12.891   2.350  12.475
72169SOL    HW218347  12.897   2.227  12.562
72170SOL     OW18348   6.532   5.164   3.914
72170SOL    HW118349   6.493   5.242   3.874
72170SOL    HW218350   6.579   5.122   3.842
72171SOL     OW18351   7.239   6.091   0.519
72171SOL    HW118352   7.248   6.044   0.436
72171SOL    HW218353   7.304   6.162   0.514
72172SOL     OW18354   8.213  11.802   3.207
72172SOL    HW118355   8.153  11.769   3.139
72172SOL    HW218356   8.282  11.736   3.212
72173SOL     OW18357   0.158  12.940   4.765
72173SOL    HW118358   0.232  12.940   4.703
72173SOL    HW218359   0.150  13.031   4.793
72174SOL     OW18360   7.404   9.705  12.160
72174SOL    HW118361   7.458   9.658  12.224
72174SOL    HW218362   7.398   9.646  12.086
72175SOL     OW18363   4.054  13.222   3.498
72175SOL    HW118364   4.060  13.153   3.431
72175SOL    HW218365   4.144  13.251   3.511
72176SOL     OW18366   4.618   5.273  12.167
72176SOL    HW118367   4.663   5.342  12.117
72176SOL    HW218368   4.527   5.302  12.172
72177SOL     OW18369   1.567   4.551   6.013
72177SOL    HW118370   1.544   4.555   5.920
72177SOL    HW218371   1.520   4.474   6.045
72178SOL     OW18372  13.833   9.584   6.491
72178SOL    HW118373  13.762   9.640   6.460
72178SOL    HW218374  13.887   9.568   6.414
72179SOL     OW18375   6.487   7.782   0.619
72179SOL    HW118376   6.581   7.761   0.616
72179SOL    HW218377   6.444   7.700   0.597
72180SOL     OW18378   1.106   9.740  10.182
72180SOL    HW118379   1.117   9.689  10.262
72180SOL    HW218380   1.189   9.788  10.173
72181SOL     OW18381   4.804  10.437   2.323
72181SOL    HW118382   4.760  10.522   2.318
72181SOL    HW218383   4.845  10.426   2.238
72182SOL     OW18384   7.527   0.616  13.730
72182SOL    HW118385   7.578   0.568  13.795
72182SOL    HW218386   7.438   0.621  13.767
72183SOL     OW18387   6.274   5.429   5.983
72183SOL    HW118388   6.327   5.352   6.005
72183SOL    HW218389   6.338   5.499   5.971
72184SOL     OW18390   5.602  13.783   7.574
72184SOL    HW118391   5.618  13.815   7.663
72184SOL    HW218392   5.611  13.688   7.581
72185SOL     OW18393  13.116  11.528  12.903
72185SOL    HW118394  13.106  11.433  12.898
72185SOL    HW218395  13.198  11.540  12.951
72186SOL     OW18396   9.547  11.951   2.107
72186SOL    HW118397   9.604  11.913   2.041
72186SOL    HW218398   9.475  11.990   2.058
72187SOL     OW18399  12.767   3.987   9.615
72187SOL    HW118400  12.769   3.909   9.560
72187SOL    HW218401  12.678   4.022   9.604
72188SOL     OW18402   1.457  10.246   1.979
72188SOL    HW118403   1.527  10.212   1.923
72188SOL    HW218404   1.462  10.341   1.968
72189SOL     OW18405   4.224   1.518   6.592
72189SOL    HW118406   4.254   1.600   6.553
72189SOL    HW218407   4.149   1.492   6.537
72190SOL     OW18408  13.548   9.445  14.321
72190SOL    HW118409  13.491   9.385  14.274
72190SOL    HW218410  13.495   9.524  14.334
72191SOL     OW18411   9.854   5.734   3.646
72191SOL    HW118412   9.799   5.685   3.585
72191SOL    HW218413   9.858   5.679   3.724
72192SOL     OW18414  14.554   0.747   4.200
72192SOL    HW118415  14.554   0.757   4.296
72192SOL    HW218416  14.583   0.657   4.186
72193SOL     OW18417   6.502  11.406   9.567
72193SOL    HW118418   6.530  11.315   9.579
72193SOL    HW218419   6.583  11.456   9.556
72194SOL     OW18420  14.675   8.886  13.703
72194SOL    HW118421  14.691   8.800  13.743
72194SOL    HW218422  14.754   8.903  13.651
72195SOL     OW18423   6.797   9.251   5.055
72195SOL    HW118424   6.805   9.203   4.972
72195SOL    HW218425   6.877   9.303   5.060
72196SOL     OW18426  14.818  12.676   9.138
72196SOL    HW118427  14.783  12.618   9.071
72196SOL    HW218428  14.745  12.689   9.199
72197SOL     OW18429   8.882   9.546   0.318
72197SOL    HW118430   8.921   9.461   0.296
72197SOL    HW218431   8.933   9.576   0.394
72198SOL     OW18432  14.629   1.813  12.589
72198SOL    HW118433  14.549   1.855  12.556
72198SOL    HW218434  14.617   1.720  12.571
72199SOL     OW18435   8.948   4.808   9.120
72199SOL    HW118436   8.911   4.870   9.057
72199SOL    HW218437   8.883   4.739   9.127
72200SOL     OW18438   0.558  12.703   3.531
72200SOL    HW118439   0.606  12.716   3.449
72200SOL    HW218440   0.625  12.677   3.595
72201SOL     OW18441  12.215  12.568   0.666
72201SOL    HW118442  12.305  12.551   0.636
72201SOL    HW218443  12.164  12.496   0.627
72202SOL     OW18444   4.744   5.567  14.799
72202SOL    HW118445   4.742   5.655  14.836
72202SOL    HW218446   4.828   5.531  14.827
72203SOL     OW18447   7.579   7.131   3.144
72203SOL    HW118448   7.630   7.114   3.065
72203SOL    HW218449   7.571   7.046   3.187
72204SOL     OW18450   4.038   8.910  12.950
72204SOL    HW118451   3.954   8.897  12.906
72204SOL    HW218452   4.082   8.978  12.899
72205SOL     OW18453   4.173   1.790   5.926
72205SOL    HW118454   4.136   1.738   5.998
72205SOL    HW218455   4.154   1.739   5.847
72206SOL     OW18456  10.895   5.301   0.817
72206SOL    HW118457  10.802   5.306   0.795
72206SOL    HW218458  10.940   5.321   0.734
72207SOL     OW18459   9.862  13.976  12.666
72207SOL    HW118460   9.801  13.955  12.737
72207SOL    HW218461   9.806  13.984  12.588
72208SOL     OW18462   8.938   5.854   9.645
72208SOL    HW118463   8.843   5.847   9.634
72208SOL    HW218464   8.950   5.889   9.733
72209SOL     OW18465  11.919   0.316   8.728
72209SOL    HW118466  11.827   0.331   8.704
72209SOL    HW218467  11.931   0.222   8.715
72210SOL     OW18468  11.305   2.907  13.518
72210SOL    HW118469  11.210   2.918  13.515
72210SOL    HW218470  11.326   2.854  13.441
72211SOL     OW18471   8.047   2.098   2.572
72211SOL    HW118472   8.075   2.189   2.582
72211SOL    HW218473   8.125   2.046   2.592
72212SOL     OW18474   9.300   1.276   9.364
72212SOL    HW118475   9.302   1.221   9.286
72212SOL    HW218476   9.245   1.229   9.426
72213SOL     OW18477   2.365  12.137   3.859
72213SOL    HW118478   2.390  12.123   3.767
72213SOL    HW218479   2.417  12.212   3.887
72214SOL     OW18480   8.652  11.898   0.861
72214SOL    HW118481   8.608  11.964   0.915
72214SOL    HW218482   8.745  11.918   0.868
72215SOL     OW18483   3.091   2.604   7.324
72215SOL    HW118484   3.090   2.640   7.235
72215SOL    HW218485   3.159   2.537   7.322
72216SOL     OW18486   1.655   3.306  13.028
72216SOL    HW118487   1.666   3.365  13.103
72216SOL    HW218488   1.744   3.280  13.005
72217SOL     OW18489   6.567  11.854   3.560
72217SOL    HW118490   6.523  11.813   3.486
72217SOL    HW218491   6.653  11.879   3.526
72218SOL     OW18492  13.353   1.615   3.751
72218SOL    HW118493  13.415   1.665   3.805
72218SOL    HW218494  13.269   1.625   3.795
72219SOL     OW18495  10.234  13.721   3.932
72219SOL    HW118496  10.308  13.704   3.874
72219SOL    HW218497  10.235  13.649   3.994
72220SOL     OW18498  12.443   8.350   2.631
72220SOL    HW118499  12.350   8.357   2.608
72220SOL    HW218500  12.444   8.306   2.716
72221SOL     OW18501   6.379   3.935  10.119
72221SOL    HW118502   6.438   3.991  10.070
72221SOL    HW218503   6.404   3.945  10.210
72222SOL     OW18504   9.911   4.340   7.715
72222SOL    HW118505   9.906   4.247   7.694
72222SOL    HW218506   9.993   4.350   7.763
72223SOL     OW18507   9.722   0.955   6.958
72223SOL    HW118508   9.817   0.968   6.951
72223SOL    HW218509   9.694   1.021   7.021
72224SOL     OW18510   2.063   1.035   6.895
72224SOL    HW118511   2.158   1.027   6.889
72224SOL    HW218512   2.049   1.109   6.955
72225SOL     OW18513   9.754  12.815  14.345
72225SOL    HW118514   9.662  12.804  14.371
72225SOL    HW218515   9.791  12.727  14.352
72226SOL     OW18516  14.095   5.501   1.999
72226SOL    HW118517  14.159   5.536   1.938
72226SOL    HW218518  14.110   5.406   1.999
72227SOL     OW18519   9.359   8.038   7.817
72227SOL    HW118520   9.386   8.118   7.774
72227SOL    HW218521   9.380   7.969   7.754
72228SOL     OW18522   8.876   7.158  11.567
72228SOL    HW118523   8.874   7.236  11.622
72228SOL    HW218524   8.810   7.174  11.500
72229SOL     OW18525  11.884   8.523   8.347
72229SOL    HW118526  11.839   8.606   8.330
72229SOL    HW218527  11.921   8.534   8.435
72230SOL     OW18528  13.534   9.567  13.154
72230SOL    HW118529  13.576   9.516  13.224
72230SOL    HW218530  13.441   9.564  13.174
72231SOL     OW18531   7.448   1.214   3.068
72231SOL    HW118532   7.500   1.275   3.016
72231SOL    HW218533   7.509   1.145   3.093
72232SOL     OW18534  13.672   6.734   2.853
72232SOL    HW118535  13.687   6.772   2.766
72232SOL    HW218536  13.577   6.722   2.857
72233SOL     OW18537   6.352  13.225  13.741
72233SOL    HW118538   6.282  13.254  13.682
72233SOL    HW218539   6.307  13.204  13.823
72234SOL     OW18540   0.993   7.956  11.785
72234SOL    HW118541   0.925   8.002  11.835
72234SOL    HW218542   1.044   7.910  11.852
72235SOL     OW18543   4.212  10.998  10.640
72235SOL    HW118544   4.157  11.065  10.681
72235SOL    HW218545   4.223  10.931  10.707
72236SOL     OW18546   9.017   1.797   0.689
72236SOL    HW118547   9.104   1.812   0.726
72236SOL    HW218548   9.033   1.779   0.597
72237SOL     OW18549   6.767  12.353   2.372
72237SOL    HW118550   6.839  12.362   2.436
72237SOL    HW218551   6.790  12.414   2.302
72238SOL     OW18552   2.547   3.566   1.908
72238SOL    HW118553   2.462   3.611   1.911
72238SOL    HW218554   2.562   3.539   1.999
72239SOL     OW18555   1.996   0.509  10.521
72239SOL    HW118556   2.090   0.499  10.504
72239SOL    HW218557   1.973   0.434  10.576
72240SOL     OW18558   6.674   0.164  10.724
72240SOL    HW118559   6.676   0.256  10.748
72240SOL    HW218560   6.606   0.158  10.657
72241SOL     OW18561  13.418   0.851   4.147
72241SOL    HW118562  13.489   0.916   4.147
72241SOL    HW218563  13.445   0.786   4.211
72242SOL     OW18564   9.666   4.032   5.903
72242SOL    HW118565   9.572   4.021   5.918
72242SOL    HW218566   9.676   4.125   5.881
72243SOL     OW18567   8.397   7.170   3.789
72243SOL    HW118568   8.448   7.129   3.718
72243SOL    HW218569   8.306   7.157   3.763
72244SOL     OW18570  13.037   0.735   4.247
72244SOL    HW118571  12.952   0.778   4.243
72244SOL    HW218572  13.036   0.673   4.174
72245SOL     OW18573   5.560   2.575  11.957
72245SOL    HW118574   5.531   2.528  11.879
72245SOL    HW218575   5.625   2.517  11.997
72246SOL     OW18576   0.565  14.143   2.052
72246SOL    HW118577   0.644  14.193   2.030
72246SOL    HW218578   0.493  14.199   2.025
72247SOL     OW18579  13.177   8.750  10.476
72247SOL    HW118580  13.162   8.656  10.473
72247SOL    HW218581  13.097   8.787  10.512
72248SOL     OW18582  13.774  10.201   1.692
72248SOL    HW118583  13.703  10.200   1.628
72248SOL    HW218584  13.733  10.231   1.773
72249SOL     OW18585   8.010   3.773   3.947
72249SOL    HW118586   8.072   3.846   3.936
72249SOL    HW218587   8.014   3.752   4.040
72250SOL     OW18588   5.836   2.635   1.603
72250SOL    HW118589   5.824   2.552   1.557
72250SOL    HW218590   5.869   2.695   1.536
72251SOL     OW18591   0.125   1.515  11.124
72251SOL    HW118592   0.133   1.518  11.029
72251SOL    HW218593   0.067   1.588  11.145
72252SOL     OW18594   2.355   2.045  13.566
72252SOL    HW118595   2.290   2.105  13.605
72252SOL    HW218596   2.382   2.088  13.485
72253SOL     OW18597   1.703   4.347  12.040
72253SOL    HW118598   1.653   4.359  11.959
72253SOL    HW218599   1.659   4.403  12.104
72254SOL     OW18600   6.680   2.798   4.261
72254SOL    HW118601   6.717   2.723   4.215
72254SOL    HW218602   6.716   2.792   4.350
72255SOL     OW18603   7.091   5.797   3.650
72255SOL    HW118604   7.105   5.742   3.727
72255SOL    HW218605   7.060   5.736   3.583
72256SOL     OW18606  13.082   5.589  11.477
72256SOL    HW118607  13.054   5.564  11.565
72256SOL    HW218608  13.027   5.537  11.419
72257SOL     OW18609   6.518   7.802   6.177
72257SOL    HW118610   6.432   7.817   6.138
72257SOL    HW218611   6.504   7.808   6.271
72258SOL     OW18612   2.095   5.891  10.849
72258SOL    HW118613   2.164   5.942  10.806
72258SOL    HW218614   2.095   5.922  10.940
72259SOL     OW18615   2.677   7.801  10.530
72259SOL    HW118616   2.654   7.749  10.607
72259SOL    HW218617   2.649   7.747  10.455
72260SOL     OW18618   1.909   2.120   4.236
72260SOL    HW118619   1.941   2.121   4.146
72260SOL    HW218620   1.989   2.112   4.289
72261SOL     OW18621   5.239   3.684   9.103
72261SOL    HW118622   5.160   3.739   9.098
72261SOL    HW218623   5.238   3.648   9.191
72262SOL     OW18624  12.566   8.829   8.062
72262SOL    HW118625  12.649   8.789   8.037
72262SOL    HW218626  12.589   8.914   8.099
72263SOL     OW18627   2.405   4.028  12.318
72263SOL    HW118628   2.435   4.007  12.229
72263SOL    HW218629   2.445   4.113  12.337
72264SOL     OW18630   1.471   5.966  11.607
72264SOL    HW118631   1.446   6.002  11.522
72264SOL    HW218632   1.388   5.935  11.645
72265SOL     OW18633   7.631  14.290   9.149
72265SOL    HW118634   7.537  14.281   9.134
72265SOL    HW218635   7.647  14.384   9.143
72266SOL     OW18636  14.358  13.453   0.565
72266SOL    HW118637  14.280  13.502   0.592
72266SOL    HW218638  14.397  13.507   0.496
72267SOL     OW18639   3.281  13.801   5.754
72267SOL    HW118640   3.243  13.716   5.733
72267SOL    HW218641   3.227  13.835   5.825
72268SOL     OW18642  14.464   6.641   1.192
72268SOL    HW118643  14.438   6.731   1.174
72268SOL    HW218644  14.401   6.588   1.142
72269SOL     OW18645   4.200  13.140  11.079
72269SOL    HW118646   4.164  13.166  10.994
72269SOL    HW218647   4.294  13.156  11.071
72270SOL     OW18648   1.927  11.047   5.382
72270SOL    HW118649   1.965  11.083   5.302
72270SOL    HW218650   1.893  10.962   5.357
72271SOL     OW18651   8.901   1.189  13.585
72271SOL    HW118652   8.878   1.246  13.659
72271SOL    HW218653   8.987   1.219  13.557
72272SOL     OW18654   6.005   4.405  14.305
72272SOL    HW118655   6.100   4.408  14.288
72272SOL    HW218656   5.995   4.339  14.373
72273SOL     OW18657   9.914  13.165  11.992
72273SOL    HW118658   9.970  13.115  11.933
72273SOL    HW218659   9.973  13.229  12.032
72274SOL     OW18660   7.975   2.883   1.250
72274SOL    HW118661   7.925   2.964   1.247
72274SOL    HW218662   7.963   2.845   1.163
72275SOL     OW18663  14.596   8.951   1.669
72275SOL    HW118664  14.556   8.915   1.748
72275SOL    HW218665  14.549   8.910   1.597
72276SOL     OW18666   9.013   6.590  13.983
72276SOL    HW118667   8.938   6.569  14.037
72276SOL    HW218668   8.976   6.636  13.907
72277SOL     OW18669   9.575   5.841  14.556
72277SOL    HW118670   9.573   5.877  14.467
72277SOL    HW218671   9.659   5.867  14.591
72278SOL     OW18672   4.595   5.705   2.369
72278SOL    HW118673   4.582   5.615   2.339
72278SOL    HW218674   4.677   5.702   2.420
72279SOL     OW18675   2.326   5.830   0.994
72279SOL    HW118676   2.327   5.924   1.012
72279SOL    HW218677   2.307   5.790   1.079
72280SOL     OW18678   6.369  12.337   8.910
72280SOL    HW118679   6.381  12.419   8.863
72280SOL    HW218680   6.296  12.294   8.864
72281SOL     OW18681   2.515   0.168   4.061
72281SOL    HW118682   2.560   0.145   3.980
72281SOL    HW218683   2.537   0.098   4.122
72282SOL     OW18684   4.119  14.847   8.032
72282SOL    HW118685   4.051  14.784   8.056
72282SOL    HW218686   4.108  14.859   7.938
72283SOL     OW18687   0.976  10.477  11.382
72283SOL    HW118688   0.902  10.521  11.339
72283SOL    HW218689   0.940  10.394  11.412
72284SOL     OW18690   8.675   8.232   5.095
72284SOL    HW118691   8.665   8.138   5.107
72284SOL    HW218692   8.677   8.268   5.184
72285SOL     OW18693   2.587   2.986   2.889
72285SOL    HW118694   2.600   2.907   2.836
72285SOL    HW218695   2.625   3.057   2.836
72286SOL     OW18696   6.401   7.236   9.982
72286SOL    HW118697   6.483   7.254   9.936
72286SOL    HW218698   6.429   7.220  10.073
72287SOL     OW18699   1.847   8.566   9.437
72287SOL    HW118700   1.831   8.603   9.350
72287SOL    HW218701   1.923   8.509   9.426
72288SOL     OW18702   3.099   9.306  14.627
72288SOL    HW118703   3.028   9.270  14.679
72288SOL    HW218704   3.138   9.374  14.682
72289SOL     OW18705   1.714  12.390  13.040
72289SOL    HW118706   1.720  12.342  12.957
72289SOL    HW218707   1.628  12.431  13.038
72290SOL     OW18708   1.714   4.631  11.275
72290SOL    HW118709   1.776   4.702  11.291
72290SOL    HW218710   1.706   4.587  11.360
72291SOL     OW18711   3.471   9.863   4.372
72291SOL    HW118712   3.507   9.817   4.448
72291SOL    HW218713   3.388   9.899   4.402
72292SOL     OW18714  12.621   4.730   2.463
72292SOL    HW118715  12.535   4.689   2.474
72292SOL    HW218716  12.608   4.795   2.394
72293SOL     OW18717   2.435  10.371   3.772
72293SOL    HW118718   2.347  10.365   3.809
72293SOL    HW218719   2.491  10.390   3.846
72294SOL     OW18720   1.560   2.986   0.915
72294SOL    HW118721   1.591   2.896   0.900
72294SOL    HW218722   1.465   2.980   0.910
72295SOL     OW18723   7.287  12.360  10.828
72295SOL    HW118724   7.318  12.271  10.811
72295SOL    HW218725   7.286  12.401  10.741
72296SOL     OW18726   1.994   9.961   2.584
72296SOL    HW118727   1.970   9.964   2.677
72296SOL    HW218728   1.929   9.903   2.545
72297SOL     OW18729   5.883  10.954  14.302
72297SOL    HW118730   5.902  10.905  14.222
72297SOL    HW218731   5.801  11.000  14.282
72298SOL     OW18732   1.434   1.407   0.504
72298SOL    HW118733   1.380   1.412   0.425
72298SOL    HW218734   1.396   1.472   0.563
72299SOL     OW18735  12.649   7.736   9.241
72299SOL    HW118736  12.730   7.703   9.202
72299SOL    HW218737  12.625   7.812   9.188
72300SOL     OW18738   5.826  10.424   7.538
72300SOL    HW118739   5.795  10.334   7.525
72300SOL    HW218740   5.919  10.414   7.559
72301SOL     OW18741   8.638  14.288   9.450
72301SOL    HW118742   8.605  14.332   9.528
72301SOL    HW218743   8.582  14.319   9.379
72302SOL     OW18744   3.339   7.362   4.787
72302SOL    HW118745   3.374   7.366   4.876
72302SOL    HW218746   3.255   7.318   4.795
72303SOL     OW18747   6.301   2.026   7.665
72303SOL    HW118748   6.394   2.015   7.684
72303SOL    HW218749   6.258   1.957   7.716
72304SOL     OW18750  13.187   7.892   7.012
72304SOL    HW118751  13.132   7.815   7.013
72304SOL    HW218752  13.148   7.950   7.078
72305SOL     OW18753   6.720   0.146   0.170
72305SOL    HW118754   6.707   0.176   0.259
72305SOL    HW218755   6.790   0.202   0.135
72306SOL     OW18756   0.290   5.101  12.651
72306SOL    HW118757   0.339   5.097  12.569
72306SOL    HW218758   0.237   5.021  12.651
72307SOL     OW18759   1.267   3.737   1.036
72307SOL    HW118760   1.288   3.776   1.121
72307SOL    HW218761   1.334   3.773   0.977
72308SOL     OW18762  11.032   6.947   5.383
72308SOL    HW118763  11.050   6.891   5.458
72308SOL    HW218764  10.947   6.917   5.351
72309SOL     OW18765   5.351   5.795   1.657
72309SOL    HW118766   5.349   5.703   1.630
72309SOL    HW218767   5.443   5.820   1.652
72310SOL     OW18768   8.038   2.417  10.744
72310SOL    HW118769   7.968   2.354  10.725
72310SOL    HW218770   8.079   2.434  10.660
72311SOL     OW18771  13.601   0.109  11.327
72311SOL    HW118772  13.653   0.146  11.398
72311SOL    HW218773  13.664   0.090  11.258
72312SOL     OW18774   9.633   5.095   3.619
72312SOL    HW118775   9.712   5.095   3.672
72312SOL    HW218776   9.664   5.111   3.530
72313SOL     OW18777   0.709  10.514  10.534
72313SOL    HW118778   0.765  10.465  10.473
72313SOL    HW218779   0.768  10.538  10.606
72314SOL     OW18780  11.889   9.440  13.274
72314SOL    HW118781  11.941   9.360  13.281
72314SOL    HW218782  11.849   9.435  13.187
72315SOL     OW18783  10.762   8.433   9.797
72315SOL    HW118784  10.739   8.358   9.850
72315SOL    HW218785  10.793   8.396   9.714
72316SOL     OW18786   5.237  13.960   2.933
72316SOL    HW118787   5.228  13.989   2.842
72316SOL    HW218788   5.156  13.913   2.951
72317SOL     OW18789  13.793  13.215  14.459
72317SOL    HW118790  13.741  13.293  14.441
72317SOL    HW218791  13.882  13.247  14.472
72318SOL     OW18792  14.441  11.853   3.194
72318SOL    HW118793  14.395  11.779   3.153
72318SOL    HW218794  14.372  11.917   3.212
72319SOL     OW18795  11.343  11.524   6.471
72319SOL    HW118796  11.274  11.562   6.525
72319SOL    HW218797  11.300  11.498   6.390
72320SOL     OW18798   2.806   1.196   0.920
72320SOL    HW118799   2.782   1.116   0.967
72320SOL    HW218800   2.878   1.170   0.862
72321SOL     OW18801   8.006   7.172  14.447
72321SOL    HW118802   8.053   7.131  14.520
72321SOL    HW218803   8.069   7.175  14.376
72322SOL     OW18804  11.028   8.564   2.912
72322SOL    HW118805  10.958   8.564   2.847
72322SOL    HW218806  11.041   8.472   2.934
72323SOL     OW18807   7.410  12.682   8.580
72323SOL    HW118808   7.381  12.772   8.567
72323SOL    HW218809   7.422  12.648   8.492
72324SOL     OW18810  12.894  13.444   7.293
72324SOL    HW118811  12.968  13.413   7.242
72324SOL    HW218812  12.933  13.480   7.373
72325SOL     OW18813   1.297   7.911  10.364
72325SOL    HW118814   1.277   7.925  10.457
72325SOL    HW218815   1.258   7.985  10.319
72326SOL     OW18816  10.075  12.277  11.717
72326SOL    HW118817  10.054  12.219  11.790
72326SOL    HW218818  10.159  12.246  11.685
72327SOL     OW18819   2.114  13.676   7.299
72327SOL    HW118820   2.157  13.749   7.344
72327SOL    HW218821   2.184  13.613   7.283
72328SOL     OW18822   8.611  12.850   7.888
72328SOL    HW118823   8.671  12.778   7.901
72328SOL    HW218824   8.559  12.825   7.811
72329SOL     OW18825   2.242   6.297   3.773
72329SOL    HW118826   2.225   6.329   3.685
72329SOL    HW218827   2.337   6.281   3.775
72330SOL     OW18828   7.185   9.465   8.965
72330SOL    HW118829   7.205   9.456   9.058
72330SOL    HW218830   7.156   9.556   8.955
72331SOL     OW18831   9.179   2.144  11.837
72331SOL    HW118832   9.152   2.064  11.792
72331SOL    HW218833   9.115   2.155  11.907
72332SOL     OW18834  12.297   5.900   9.324
72332SOL    HW118835  12.263   5.945   9.246
72332SOL    HW218836  12.345   5.825   9.288
72333SOL     OW18837  12.371   0.099  10.731
72333SOL    HW118838  12.416   0.120  10.650
72333SOL    HW218839  12.411   0.156  10.796
72334SOL     OW18840   4.827  13.174   4.478
72334SOL    HW118841   4.900  13.188   4.539
72334SOL    HW218842   4.817  13.257   4.433
72335SOL     OW18843   5.183   0.919  10.922
72335SOL    HW118844   5.188   1.013  10.904
72335SOL    HW218845   5.136   0.883  10.847
72336SOL     OW18846  13.420   5.910   2.296
72336SOL    HW118847  13.475   5.927   2.372
72336SOL    HW218848  13.379   5.994   2.276
72337SOL     OW18849  11.354   4.891   2.138
72337SOL    HW118850  11.412   4.945   2.193
72337SOL    HW218851  11.382   4.910   2.049
72338SOL     OW18852   9.151   1.337   0.682
72338SOL    HW118853   9.056   1.345   0.694
72338SOL    HW218854   9.176   1.416   0.635
72339SOL     OW18855   7.899  13.148   5.927
72339SOL    HW118856   7.967  13.081   5.920
72339SOL    HW218857   7.823  13.109   5.883
72340SOL     OW18858   6.831   5.741  11.613
72340SOL    HW118859   6.754   5.795  11.595
72340SOL    HW218860   6.851   5.758  11.705
72341SOL     OW18861   4.507   7.168   4.838
72341SOL    HW118862   4.450   7.091   4.831
72341SOL    HW218863   4.452   7.234   4.881
72342SOL     OW18864   7.253   8.363   0.582
72342SOL    HW118865   7.185   8.379   0.647
72342SOL    HW218866   7.292   8.450   0.567
72343SOL     OW18867   2.870   9.894  11.611
72343SOL    HW118868   2.803   9.934  11.554
72343SOL    HW218869   2.820   9.844  11.675
72344SOL     OW18870  10.526   5.033   0.378
72344SOL    HW118871  10.516   5.069   0.466
72344SOL    HW218872  10.496   5.103   0.320
72345SOL     OW18873   1.716   6.671   2.708
72345SOL    HW118874   1.742   6.707   2.623
72345SOL    HW218875   1.733   6.577   2.701
72346SOL     OW18876   2.966  12.247   7.807
72346SOL    HW118877   2.889  12.284   7.764
72346SOL    HW218878   2.931  12.185   7.871
72347SOL     OW18879   3.476  12.222   9.364
72347SOL    HW118880   3.503  12.257   9.279
72347SOL    HW218881   3.386  12.192   9.351
72348SOL     OW18882   5.797   4.544  12.674
72348SOL    HW118883   5.738   4.469  12.673
72348SOL    HW218884   5.750   4.611  12.725
72349SOL     OW18885   3.553   9.081   7.826
72349SOL    HW118886   3.584   9.114   7.910
72349SOL    HW218887   3.630   9.040   7.786
72350SOL     OW18888   9.338   8.495   1.670
72350SOL    HW118889   9.393   8.453   1.604
72350SOL    HW218890   9.276   8.428   1.696
72351SOL     OW18891   7.660   1.058   3.325
72351SOL    HW118892   7.577   1.056   3.372
72351SOL    HW218893   7.640   1.020   3.239
72352SOL     OW18894   8.326  12.942  12.484
72352SOL    HW118895   8.310  13.021  12.536
72352SOL    HW218896   8.294  12.964  12.396
72353SOL     OW18897  14.174   9.835   7.876
72353SOL    HW118898  14.185   9.782   7.956
72353SOL    HW218899  14.134   9.775   7.813
72354SOL     OW18900  12.384  10.446   9.302
72354SOL    HW118901  12.309  10.490   9.343
72354SOL    HW218902  12.345  10.388   9.237
72355SOL     OW18903  12.511   7.198  13.822
72355SOL    HW118904  12.449   7.158  13.883
72355SOL    HW218905  12.479   7.174  13.736
72356SOL     OW18906   7.445   4.821   2.655
72356SOL    HW118907   7.408   4.766   2.724
72356SOL    HW218908   7.437   4.910   2.688
72357SOL     OW18909   3.017   3.348   6.240
72357SOL    HW118910   3.058   3.343   6.326
72357SOL    HW218911   3.077   3.299   6.183
72358SOL     OW18912   1.480   8.713   3.707
72358SOL    HW118913   1.468   8.706   3.612
72358SOL    HW218914   1.433   8.794   3.731
72359SOL     OW18915   2.730  11.762   0.150
72359SOL    HW118916   2.721  11.787   0.058
72359SOL    HW218917   2.724  11.844   0.198
72360SOL     OW18918   9.972   5.198  10.192
72360SOL    HW118919   9.925   5.209  10.110
72360SOL    HW218920  10.063   5.215  10.170
72361SOL     OW18921   5.946   5.860  10.067
72361SOL    HW118922   5.943   5.773  10.026
72361SOL    HW218923   6.025   5.901  10.032
72362SOL     OW18924   1.764  11.289  11.981
72362SOL    HW118925   1.673  11.319  11.981
72362SOL    HW218926   1.781  11.264  12.071
72363SOL     OW18927   1.809  11.100   2.681
72363SOL    HW118928   1.747  11.110   2.609
72363SOL    HW218929   1.884  11.054   2.641
72364SOL     OW18930   2.342  12.189   8.501
72364SOL    HW118931   2.413  12.209   8.562
72364SOL    HW218932   2.263  12.190   8.555
72365SOL     OW18933   5.732  14.422  11.714
72365SOL    HW118934   5.696  14.390  11.631
72365SOL    HW218935   5.747  14.515  11.700
72366SOL     OW18936   4.600   8.799   5.898
72366SOL    HW118937   4.623   8.888   5.924
72366SOL    HW218938   4.520   8.809   5.846
72367SOL     OW18939  11.423  12.515  13.918
72367SOL    HW118940  11.445  12.487  14.007
72367SOL    HW218941  11.443  12.440  13.863
72368SOL     OW18942  13.299   7.008  14.561
72368SOL    HW118943  13.327   7.023  14.651
72368SOL    HW218944  13.204   6.999  14.567
72369SOL     OW18945   8.383   9.984  11.255
72369SOL    HW118946   8.401   9.968  11.348
72369SOL    HW218947   8.351   9.900  11.223
72370SOL     OW18948   4.691   9.361   1.660
72370SOL    HW118949   4.785   9.381   1.650
72370SOL    HW218950   4.675   9.291   1.597
72371SOL     OW18951  13.673  10.341   4.022
72371SOL    HW118952  13.747  10.302   3.974
72371SOL    HW218953  13.595  10.311   3.976
72372SOL     OW18954   3.085  10.766  10.599
72372SOL    HW118955   3.143  10.825  10.647
72372SOL    HW218956   2.997  10.785  10.633
72373SOL     OW18957   9.491   8.000  14.038
72373SOL    HW118958   9.530   7.930  13.986
72373SOL    HW218959   9.400   8.005  14.009
72374SOL     OW18960   6.916   3.386   1.894
72374SOL    HW118961   6.832   3.344   1.876
72374SOL    HW218962   6.968   3.370   1.815
72375SOL     OW18963   3.604  10.713   1.725
72375SOL    HW118964   3.677  10.761   1.764
72375SOL    HW218965   3.608  10.734   1.632
72376SOL     OW18966   8.472   2.175  11.783
72376SOL    HW118967   8.403   2.238  11.761
72376SOL    HW218968   8.530   2.223  11.843
72377SOL     OW18969  13.385   8.869   7.623
72377SOL    HW118970  13.412   8.812   7.695
72377SOL    HW218971  13.418   8.825   7.544
72378SOL     OW18972  13.175   0.841  13.617
72378SOL    HW118973  13.251   0.816  13.564
72378SOL    HW218974  13.213   0.884  13.694
72379SOL     OW18975   0.384   1.339   8.544
72379SOL    HW118976   0.346   1.423   8.518
72379SOL    HW218977   0.310   1.278   8.540
72380SOL     OW18978  13.145   5.898   3.804
72380SOL    HW118979  13.217   5.856   3.851
72380SOL    HW218980  13.130   5.841   3.728
72381SOL     OW18981   6.289   3.354  10.628
72381SOL    HW118982   6.324   3.408  10.558
72381SOL    HW218983   6.282   3.414  10.703
72382SOL     OW18984  14.051  11.275   7.248
72382SOL    HW118985  14.039  11.341   7.316
72382SOL    HW218986  14.025  11.320   7.167
72383SOL     OW18987  10.429   7.184   6.281
72383SOL    HW118988  10.501   7.244   6.298
72383SOL    HW218989  10.391   7.168   6.367
72384SOL     OW18990   0.731   3.637   4.698
72384SOL    HW118991   0.661   3.643   4.763
72384SOL    HW218992   0.702   3.569   4.638
72385SOL     OW18993   2.820  11.112   3.781
72385SOL    HW118994   2.813  11.086   3.873
72385SOL    HW218995   2.754  11.060   3.736
72386SOL     OW18996   9.941  12.491  10.885
72386SOL    HW118997  10.027  12.511  10.921
72386SOL    HW218998   9.904  12.426  10.945
72387SOL     OW18999   0.871   5.372  13.520
72387SOL    HW119000   0.925   5.424  13.580
72387SOL    HW219001   0.878   5.282  13.554
72388SOL     OW19002  13.489  10.388   1.329
72388SOL    HW119003  13.432  10.452   1.371
72388SOL    HW219004  13.434  10.349   1.260
72389SOL     OW19005   9.329   0.022   4.554
72389SOL    HW119006   9.419   0.015   4.585
72389SOL    HW219007   9.280  14.832   4.607
72390SOL     OW19008   4.514   3.863  12.360
72390SOL    HW119009   4.581   3.862  12.291
72390SOL    HW219010   4.438   3.905  12.320
72391SOL     OW19011  10.849   0.940  14.012
72391SOL    HW119012  10.903   1.002  13.963
72391SOL    HW219013  10.910   0.895  14.070
72392SOL     OW19014  12.491  14.399   3.218
72392SOL    HW119015  12.479  14.316   3.263
72392SOL    HW219016  12.539  14.376   3.138
72393SOL     OW19017   9.901  13.468  14.723
72393SOL    HW119018   9.838  13.503  14.786
72393SOL    HW219019   9.976  13.442  14.777
72394SOL     OW19020   7.215   4.743   5.805
72394SOL    HW119021   7.282   4.812   5.800
72394SOL    HW219022   7.139   4.787   5.842
72395SOL     OW19023   4.300  10.415   1.028
72395SOL    HW119024   4.362  10.345   1.008
72395SOL    HW219025   4.353  10.495   1.028
72396SOL     OW19026   7.571   6.444   3.252
72396SOL    HW119027   7.531   6.530   3.260
72396SOL    HW219028   7.664   6.459   3.271
72397SOL     OW19029  11.550   9.100   9.144
72397SOL    HW119030  11.564   9.113   9.050
72397SOL    HW219031  11.571   9.008   9.158
72398SOL     OW19032  12.609   3.468   2.319
72398SOL    HW119033  12.603   3.375   2.340
72398SOL    HW219034  12.538   3.484   2.256
72399SOL     OW19035   1.717  11.673  12.631
72399SOL    HW119036   1.804  11.635  12.625
72399SOL    HW219037   1.695  11.699  12.542
72400SOL     OW19038   2.787   2.657  12.640
72400SOL    HW119039   2.747   2.576  12.608
72400SOL    HW219040   2.779   2.719  12.567
72401SOL     OW19041  10.320   1.351   8.579
72401SOL    HW119042  10.271   1.329   8.659
72401SOL    HW219043  10.310   1.446   8.570
72402SOL     OW19044   1.071   0.851  14.576
72402SOL    HW119045   1.009   0.892  14.636
72402SOL    HW219046   1.155   0.891  14.598
72403SOL     OW19047   0.687   9.517   2.743
72403SOL    HW119048   0.669   9.475   2.827
72403SOL    HW219049   0.725   9.448   2.689
72404SOL     OW19050   5.997   9.579   2.938
72404SOL    HW119051   5.944   9.646   2.896
72404SOL    HW219052   6.024   9.618   3.021
72405SOL     OW19053   4.809  11.572   1.015
72405SOL    HW119054   4.882  11.535   1.065
72405SOL    HW219055   4.824  11.667   1.017
72406SOL     OW19056   5.786   2.060   1.080
72406SOL    HW119057   5.873   2.072   1.117
72406SOL    HW219058   5.757   1.975   1.112
72407SOL     OW19059  12.647   3.511   6.065
72407SOL    HW119060  12.715   3.447   6.045
72407SOL    HW219061  12.600   3.472   6.139
72408SOL     OW19062  12.986   1.793  11.805
72408SOL    HW119063  13.066   1.751  11.837
72408SOL    HW219064  12.928   1.720  11.782
72409SOL     OW19065   2.531  13.158  13.464
72409SOL    HW119066   2.595  13.087  13.470
72409SOL    HW219067   2.527  13.179  13.370
72410SOL     OW19068  14.462   2.637   2.016
72410SOL    HW119069  14.541   2.656   2.068
72410SOL    HW219070  14.479   2.551   1.979
72411SOL     OW19071  13.912   3.496  12.171
72411SOL    HW119072  13.941   3.521  12.083
72411SOL    HW219073  13.828   3.453  12.157
72412SOL     OW19074  12.787   8.358  13.883
72412SOL    HW119075  12.770   8.285  13.824
72412SOL    HW219076  12.871   8.394  13.854
72413SOL     OW19077   2.844   6.800   2.164
72413SOL    HW119078   2.927   6.840   2.189
72413SOL    HW219079   2.826   6.834   2.076
72414SOL     OW19080   7.923  10.351   7.189
72414SOL    HW119081   7.946  10.339   7.281
72414SOL    HW219082   7.908  10.262   7.157
72415SOL     OW19083  12.363   8.907   2.747
72415SOL    HW119084  12.445   8.954   2.762
72415SOL    HW219085  12.316   8.961   2.683
72416SOL     OW19086   4.362   6.944   2.834
72416SOL    HW119087   4.385   6.935   2.742
72416SOL    HW219088   4.286   7.002   2.834
72417SOL     OW19089  12.455   0.737  10.684
72417SOL    HW119090  12.378   0.728  10.627
72417SOL    HW219091  12.521   0.681  10.644
72418SOL     OW19092  10.602  12.266  11.733
72418SOL    HW119093  10.572  12.263  11.643
72418SOL    HW219094  10.677  12.326  11.732
72419SOL     OW19095  11.073   8.647   0.226
72419SOL    HW119096  11.003   8.606   0.276
72419SOL    HW219097  11.034   8.665   0.140
72420SOL     OW19098   2.964  14.341   1.758
72420SOL    HW119099   3.014  14.261   1.775
72420SOL    HW219100   2.931  14.368   1.844
72421SOL     OW19101  13.614   4.444  14.512
72421SOL    HW119102  13.538   4.465  14.565
72421SOL    HW219103  13.676   4.514  14.530
72422SOL     OW19104  11.042   2.836   5.374
72422SOL    HW119105  10.972   2.899   5.390
72422SOL    HW219106  11.079   2.819   5.461
72423SOL     OW19107   1.728  10.386   2.477
72423SOL    HW119108   1.746  10.293   2.467
72423SOL    HW219109   1.646  10.389   2.526
72424SOL     OW19110   9.719   2.021   4.826
72424SOL    HW119111   9.632   2.055   4.844
72424SOL    HW219112   9.776   2.066   4.888
72425SOL     OW19113   7.543  12.988   2.434
72425SOL    HW119114   7.492  12.910   2.456
72425SOL    HW219115   7.486  13.038   2.376
72426SOL     OW19116   8.586   6.726  11.894
72426SOL    HW119117   8.654   6.718  11.827
72426SOL    HW219118   8.507   6.746  11.846
72427SOL     OW19119   5.186   9.937   6.162
72427SOL    HW119120   5.175  10.024   6.202
72427SOL    HW219121   5.214   9.881   6.234
72428SOL     OW19122   9.826   3.368   1.213
72428SOL    HW119123   9.865   3.295   1.165
72428SOL    HW219124   9.800   3.331   1.297
72429SOL     OW19125   8.179  14.223  10.414
72429SOL    HW119126   8.150  14.315  10.413
72429SOL    HW219127   8.113  14.179  10.467
72430SOL     OW19128   6.484  10.273  13.310
72430SOL    HW119129   6.448  10.252  13.224
72430SOL    HW219130   6.433  10.348  13.339
72431SOL     OW19131   4.310   0.348   1.532
72431SOL    HW119132   4.289   0.361   1.439
72431SOL    HW219133   4.233   0.382   1.578
72432SOL     OW19134  10.673  10.149   3.878
72432SOL    HW119135  10.658  10.197   3.960
72432SOL    HW219136  10.753  10.099   3.894
72433SOL     OW19137   0.484   5.511   7.175
72433SOL    HW119138   0.561   5.563   7.198
72433SOL    HW219139   0.452   5.478   7.259
72434SOL     OW19140   7.853  12.091  10.242
72434SOL    HW119141   7.865  12.002  10.274
72434SOL    HW219142   7.766  12.117  10.272
72435SOL     OW19143   5.797   2.807  13.288
72435SOL    HW119144   5.767   2.898  13.290
72435SOL    HW219145   5.728   2.760  13.242
72436SOL     OW19146  11.367   2.369  13.771
72436SOL    HW119147  11.424   2.299  13.805
72436SOL    HW219148  11.334   2.334  13.688
72437SOL     OW19149   4.803  14.036  12.384
72437SOL    HW119150   4.871  13.973  12.410
72437SOL    HW219151   4.833  14.070  12.300
72438SOL     OW19152   3.266  12.466  10.570
72438SOL    HW119153   3.229  12.537  10.623
72438SOL    HW219154   3.347  12.502  10.535
72439SOL     OW19155  11.807   0.838  10.444
72439SOL    HW119156  11.879   0.779  10.467
72439SOL    HW219157  11.778   0.874  10.528
72440SOL     OW19158  12.353   6.818   6.214
72440SOL    HW119159  12.279   6.796   6.157
72440SOL    HW219160  12.322   6.796   6.302
72441SOL     OW19161   4.443   4.375   3.677
72441SOL    HW119162   4.492   4.331   3.746
72441SOL    HW219163   4.390   4.440   3.723
72442SOL     OW19164   4.815   9.968   0.372
72442SOL    HW119165   4.871  10.039   0.404
72442SOL    HW219166   4.876   9.899   0.345
72443SOL     OW19167   4.899   1.102   3.649
72443SOL    HW119168   4.830   1.162   3.621
72443SOL    HW219169   4.956   1.093   3.572
72444SOL     OW19170   9.510   9.819   4.110
72444SOL    HW119171   9.541   9.748   4.054
72444SOL    HW219172   9.506   9.780   4.197
72445SOL     OW19173  14.864   3.975   1.705
72445SOL    HW119174   0.075   3.993   1.747
72445SOL    HW219175  14.830   4.061   1.680
72446SOL     OW19176   2.726   0.087   5.091
72446SOL    HW119177   2.644   0.040   5.108
72446SOL    HW219178   2.709   0.136   5.010
72447SOL     OW19179   4.969  11.502  10.134
72447SOL    HW119180   4.881  11.533  10.118
72447SOL    HW219181   5.007  11.568  10.193
72448SOL     OW19182  13.232   6.423  10.657
72448SOL    HW119183  13.145   6.410  10.621
72448SOL    HW219184  13.277   6.479  10.593
72449SOL     OW19185   3.722  11.457   3.991
72449SOL    HW119186   3.682  11.426   4.073
72449SOL    HW219187   3.679  11.406   3.923
72450SOL     OW19188  10.909   2.300   8.025
72450SOL    HW119189  10.999   2.288   7.994
72450SOL    HW219190  10.877   2.376   7.975
72451SOL     OW19191  12.085   9.363   9.412
72451SOL    HW119192  12.000   9.326   9.435
72451SOL    HW219193  12.108   9.322   9.329
72452SOL     OW19194  11.968   3.843   1.570
72452SOL    HW119195  11.920   3.879   1.496
72452SOL    HW219196  11.900   3.809   1.628
72453SOL     OW19197   1.711   6.424  12.188
72453SOL    HW119198   1.648   6.427  12.261
72453SOL    HW219199   1.734   6.331  12.182
72454SOL     OW19200  13.423   6.906   5.666
72454SOL    HW119201  13.485   6.895   5.594
72454SOL    HW219202  13.338   6.885   5.628
72455SOL     OW19203   0.800  13.315  14.482
72455SOL    HW119204   0.866  13.268  14.431
72455SOL    HW219205   0.716  13.276  14.455
72456SOL     OW19206   6.671   1.291  13.925
72456SOL    HW119207   6.584   1.254  13.911
72456SOL    HW219208   6.658   1.363  13.987
72457SOL     OW19209   1.525   3.499   4.105
72457SOL    HW119210   1.585   3.459   4.169
72457SOL    HW219211   1.438   3.470   4.133
72458SOL     OW19212   7.158   6.915   6.614
72458SOL    HW119213   7.237   6.968   6.598
72458SOL    HW219214   7.159   6.899   6.709
72459SOL     OW19215   5.387   7.329   9.611
72459SOL    HW119216   5.402   7.328   9.705
72459SOL    HW219217   5.362   7.419   9.591
72460SOL     OW19218   9.676   7.079  14.037
72460SOL    HW119219   9.729   7.099  14.115
72460SOL    HW219220   9.643   6.990  14.053
72461SOL     OW19221   1.064  11.958   0.236
72461SOL    HW119222   1.158  11.977   0.235
72461SOL    HW219223   1.037  11.968   0.145
72462SOL     OW19224   7.331   6.907   0.264
72462SOL    HW119225   7.370   6.976   0.317
72462SOL    HW219226   7.400   6.882   0.202
72463SOL     OW19227  12.338   9.089   4.724
72463SOL    HW119228  12.364   9.137   4.803
72463SOL    HW219229  12.250   9.059   4.742
72464SOL     OW19230  13.220   9.838  10.808
72464SOL    HW119231  13.191   9.789  10.731
72464SOL    HW219232  13.231   9.771  10.876
72465SOL     OW19233   2.052   0.886   4.249
72465SOL    HW119234   2.086   0.922   4.167
72465SOL    HW219235   2.082   0.945   4.317
72466SOL     OW19236  14.670   5.799  10.443
72466SOL    HW119237  14.586   5.776  10.403
72466SOL    HW219238  14.654   5.791  10.537
72467SOL     OW19239   0.548   8.546   5.179
72467SOL    HW119240   0.512   8.562   5.266
72467SOL    HW219241   0.556   8.450   5.174
72468SOL     OW19242   9.212   2.200  13.684
72468SOL    HW119243   9.181   2.290  13.673
72468SOL    HW219244   9.247   2.198  13.773
72469SOL     OW19245   6.874  14.348   1.943
72469SOL    HW119246   6.830  14.274   1.900
72469SOL    HW219247   6.804  14.413   1.955
72470SOL     OW19248  12.879   3.856  13.071
72470SOL    HW119249  12.811   3.862  13.138
72470SOL    HW219250  12.830   3.841  12.989
72471SOL     OW19251  13.220  13.576  13.794
72471SOL    HW119252  13.310  13.564  13.825
72471SOL    HW219253  13.166  13.527  13.855
72472SOL     OW19254   1.161   8.482   8.044
72472SOL    HW119255   1.184   8.474   7.951
72472SOL    HW219256   1.238   8.448   8.090
72473SOL     OW19257  13.205   7.077   1.543
72473SOL    HW119258  13.124   7.116   1.575
72473SOL    HW219259  13.186   7.053   1.452
72474SOL     OW19260  14.317   1.847  13.087
72474SOL    HW119261  14.336   1.855  12.993
72474SOL    HW219262  14.359   1.923  13.126
72475SOL     OW19263   5.049   8.184  12.930
72475SOL    HW119264   5.082   8.201  12.842
72475SOL    HW219265   5.126   8.186  12.986
72476SOL     OW19266   9.184   0.244  10.857
72476SOL    HW119267   9.137   0.232  10.775
72476SOL    HW219268   9.205   0.338  10.860
72477SOL     OW19269  14.811   2.077  10.332
72477SOL    HW119270  14.763   2.073  10.250
72477SOL    HW219271  14.785   1.999  10.380
72478SOL     OW19272   4.871  13.382  13.257
72478SOL    HW119273   4.954  13.344  13.287
72478SOL    HW219274   4.824  13.309  13.217
72479SOL     OW19275   9.472   4.120   4.458
72479SOL    HW119276   9.406   4.180   4.423
72479SOL    HW219277   9.463   4.127   4.553
72480SOL     OW19278  13.528  14.377   1.241
72480SOL    HW119279  13.546  14.284   1.225
72480SOL    HW219280  13.606  14.422   1.210
72481SOL     OW19281   6.203   2.024  14.562
72481SOL    HW119282   6.213   1.961  14.633
72481SOL    HW219283   6.202   2.109  14.605
72482SOL     OW19284  11.608  14.731   6.821
72482SOL    HW119285  11.695  14.718   6.858
72482SOL    HW219286  11.602  14.826   6.808
72483SOL     OW19287  11.399   7.502   8.213
72483SOL    HW119288  11.381   7.430   8.152
72483SOL    HW219289  11.340   7.572   8.186
72484SOL     OW19290  12.534  12.371  14.205
72484SOL    HW119291  12.615  12.326  14.181
72484SOL    HW219292  12.468  12.334  14.148
72485SOL     OW19293   2.565   8.290  12.265
72485SOL    HW119294   2.561   8.310  12.358
72485SOL    HW219295   2.482   8.248  12.245
72486SOL     OW19296   6.232   0.469   9.243
72486SOL    HW119297   6.300   0.517   9.194
72486SOL    HW219298   6.247   0.494   9.334
72487SOL     OW19299   6.135   9.613   7.359
72487SOL    HW119300   6.148   9.639   7.451
72487SOL    HW219301   6.193   9.538   7.347
72488SOL     OW19302   6.132   0.187   7.442
72488SOL    HW119303   6.220   0.178   7.478
72488SOL    HW219304   6.109   0.099   7.412
72489SOL     OW19305   8.128  14.484   4.477
72489SOL    HW119306   8.110  14.392   4.458
72489SOL    HW219307   8.134  14.526   4.391
72490SOL     OW19308   0.830  10.592  12.234
72490SOL    HW119309   0.919  10.628  12.232
72490SOL    HW219310   0.810  10.585  12.327
72491SOL     OW19311   9.428   3.521  13.148
72491SOL    HW119312   9.423   3.556  13.058
72491SOL    HW219313   9.359   3.567  13.195
72492SOL     OW19314  13.842   5.814   4.434
72492SOL    HW119315  13.778   5.852   4.374
72492SOL    HW219316  13.883   5.889   4.476
72493SOL     OW19317   6.355  10.815  14.018
72493SOL    HW119318   6.372  10.900  13.977
72493SOL    HW219319   6.312  10.763  13.950
72494SOL     OW19320  10.575   1.785  12.603
72494SOL    HW119321  10.534   1.846  12.541
72494SOL    HW219322  10.652   1.833  12.635
72495SOL     OW19323   6.633   2.534   7.089
72495SOL    HW119324   6.693   2.527   7.163
72495SOL    HW219325   6.626   2.445   7.055
72496SOL     OW19326   0.633   5.121   7.490
72496SOL    HW119327   0.713   5.129   7.541
72496SOL    HW219328   0.587   5.204   7.505
72497SOL     OW19329  14.356  14.735  14.517
72497SOL    HW119330  14.308  14.686  14.450
72497SOL    HW219331  14.294  14.801  14.548
72498SOL     OW19332   7.221  10.051  14.572
72498SOL    HW119333   7.204  10.033  14.479
72498SOL    HW219334   7.216   9.965  14.614
72499SOL     OW19335   5.373  11.677  10.522
72499SOL    HW119336   5.339  11.632  10.599
72499SOL    HW219337   5.462  11.703  10.547
72500SOL     OW19338  14.865  10.487  14.710
72500SOL    HW119339   0.004  10.560  14.650
72500SOL    HW219340   0.036  10.515  14.791
72501SOL     OW19341   8.581  10.836  14.305
72501SOL    HW119342   8.525  10.790  14.242
72501SOL    HW219343   8.571  10.788  14.387
72502SOL     OW19344   8.050   9.934  13.310
72502SOL    HW119345   8.085  10.022  13.320
72502SOL    HW219346   7.986   9.942  13.239
72503SOL     OW19347   0.709  12.499   4.627
72503SOL    HW119348   0.635  12.438   4.625
72503SOL    HW219349   0.674  12.579   4.665
72504SOL     OW19350   5.489   2.999  14.802
72504SOL    HW119351   5.395   3.010  14.816
72504SOL    HW219352   5.496   2.950  14.720
72505SOL     OW19353   4.857   5.185  10.833
72505SOL    HW119354   4.778   5.135  10.856
72505SOL    HW219355   4.833   5.276  10.851
72506SOL     OW19356   7.070   3.511   7.344
72506SOL    HW119357   7.084   3.417   7.357
72506SOL    HW219358   7.095   3.550   7.428
72507SOL     OW19359  12.694   8.240  14.294
72507SOL    HW119360  12.743   8.214  14.216
72507SOL    HW219361  12.618   8.288  14.260
72508SOL     OW19362   9.133  11.110  14.178
72508SOL    HW119363   9.225  11.117  14.154
72508SOL    HW219364   9.085  11.126  14.097
72509SOL     OW19365   3.837   3.047  11.140
72509SOL    HW119366   3.814   3.021  11.050
72509SOL    HW219367   3.879   3.132  11.130
72510SOL     OW19368   0.912  14.092   4.949
72510SOL    HW119369   0.848  14.147   4.994
72510SOL    HW219370   0.912  14.011   4.999
72511SOL     OW19371  12.418   0.042   7.000
72511SOL    HW119372  12.354  14.855   6.962
72511SOL    HW219373  12.432   0.009   7.089
72512SOL     OW19374   8.687   1.032  13.503
72512SOL    HW119375   8.764   1.086  13.521
72512SOL    HW219376   8.702   0.952  13.552
72513SOL     OW19377   6.458   1.086   2.048
72513SOL    HW119378   6.485   1.023   2.114
72513SOL    HW219379   6.386   1.043   2.002
72514SOL     OW19380   3.902  10.997   8.870
72514SOL    HW119381   3.929  11.061   8.803
72514SOL    HW219382   3.951  10.918   8.848
72515SOL     OW19383   8.206   3.286   5.250
72515SOL    HW119384   8.170   3.282   5.161
72515SOL    HW219385   8.188   3.376   5.279
72516SOL     OW19386   6.770   0.111  13.683
72516SOL    HW119387   6.834   0.047  13.714
72516SOL    HW219388   6.775   0.182  13.747
72517SOL     OW19389  10.458  12.957  14.425
72517SOL    HW119390  10.424  13.018  14.359
72517SOL    HW219391  10.511  13.012  14.483
72518SOL     OW19392  14.755   5.724  14.293
72518SOL    HW119393  14.660   5.735  14.288
72518SOL    HW219394  14.786   5.805  14.333
72519SOL     OW19395   9.004  13.909  14.129
72519SOL    HW119396   8.943  13.880  14.197
72519SOL    HW219397   9.088  13.871  14.154
72520SOL     OW19398  13.323   8.839  13.884
72520SOL    HW119399  13.269   8.835  13.963
72520SOL    HW219400  13.319   8.751  13.848
72521SOL     OW19401   6.801   2.466   6.731
72521SOL    HW119402   6.808   2.415   6.650
72521SOL    HW219403   6.718   2.437   6.770
72522SOL     OW19404   5.493   8.251   3.828
72522SOL    HW119405   5.430   8.193   3.788
72522SOL    HW219406   5.574   8.200   3.834
72523SOL     OW19407  11.621  11.218   8.050
72523SOL    HW119408  11.609  11.127   8.076
72523SOL    HW219409  11.598  11.218   7.957
72524SOL     OW19410  13.736   4.522   0.273
72524SOL    HW119411  13.654   4.535   0.226
72524SOL    HW219412  13.787   4.601   0.254
72525SOL     OW19413   1.816   0.010  10.689
72525SOL    HW119414   1.875  14.873  10.764
72525SOL    HW219415   1.746  14.819  10.704
72526SOL     OW19416   2.443  10.575  11.457
72526SOL    HW119417   2.425  10.651  11.401
72526SOL    HW219418   2.513  10.528  11.412
72527SOL     OW19419   9.747   9.083   4.257
72527SOL    HW119420   9.681   9.018   4.278
72527SOL    HW219421   9.831   9.041   4.278
72528SOL     OW19422   7.334   3.973   3.603
72528SOL    HW119423   7.261   3.911   3.604
72528SOL    HW219424   7.409   3.921   3.573
72529SOL     OW19425   0.024  13.590   9.041
72529SOL    HW119426   0.093  13.625   8.985
72529SOL    HW219427   0.059  13.507   9.074
72530SOL     OW19428   7.231   3.741   7.704
72530SOL    HW119429   7.169   3.770   7.771
72530SOL    HW219430   7.294   3.812   7.697
72531SOL     OW19431   8.274  13.375   9.273
72531SOL    HW119432   8.297  13.283   9.263
72531SOL    HW219433   8.333  13.421   9.213
72532SOL     OW19434  10.495  14.411   9.393
72532SOL    HW119435  10.432  14.413   9.465
72532SOL    HW219436  10.484  14.496   9.350
72533SOL     OW19437   2.026  12.338   1.415
72533SOL    HW119438   2.115  12.307   1.434
72533SOL    HW219439   2.029  12.432   1.431
72534SOL     OW19440   0.868   7.969  13.605
72534SOL    HW119441   0.806   8.002  13.539
72534SOL    HW219442   0.941   8.031  13.602
72535SOL     OW19443   0.359   4.060  13.894
72535SOL    HW119444   0.365   4.086  13.986
72535SOL    HW219445   0.376   3.966  13.895
72536SOL     OW19446   7.190  11.526  12.628
72536SOL    HW119447   7.242  11.458  12.671
72536SOL    HW219448   7.241  11.551  12.551
72537SOL     OW19449  11.930  13.457   4.422
72537SOL    HW119450  11.953  13.503   4.503
72537SOL    HW219451  11.837  13.437   4.431
72538SOL     OW19452   0.110   6.240   4.882
72538SOL    HW119453   0.031   6.287   4.855
72538SOL    HW219454   0.100   6.228   4.976
72539SOL     OW19455   6.963   7.814   1.610
72539SOL    HW119456   6.970   7.718   1.617
72539SOL    HW219457   6.903   7.838   1.680
72540SOL     OW19458  13.100  14.440  10.935
72540SOL    HW119459  13.189  14.463  10.908
72540SOL    HW219460  13.043  14.484  10.873
72541SOL     OW19461   0.828   7.985   4.373
72541SOL    HW119462   0.870   7.931   4.306
72541SOL    HW219463   0.792   7.922   4.435
72542SOL     OW19464  10.174  12.078   7.087
72542SOL    HW119465  10.227  12.002   7.111
72542SOL    HW219466  10.084  12.050   7.103
72543SOL     OW19467   4.818   0.245   0.271
72543SOL    HW119468   4.865   0.195   0.338
72543SOL    HW219469   4.779   0.318   0.319
72544SOL     OW19470   7.722   2.875   2.785
72544SOL    HW119471   7.691   2.793   2.825
72544SOL    HW219472   7.646   2.934   2.791
72545SOL     OW19473   4.471  13.877   2.602
72545SOL    HW119474   4.395  13.844   2.555
72545SOL    HW219475   4.471  13.830   2.685
72546SOL     OW19476   3.688   4.750   7.893
72546SOL    HW119477   3.604   4.781   7.858
72546SOL    HW219478   3.750   4.762   7.820
72547SOL     OW19479   9.526   0.880  14.533
72547SOL    HW119480   9.451   0.922  14.574
72547SOL    HW219481   9.530   0.793  14.572
72548SOL     OW19482   8.122   1.584   4.374
72548SOL    HW119483   8.077   1.646   4.430
72548SOL    HW219484   8.135   1.507   4.429
72549SOL     OW19485  10.245   5.091   5.738
72549SOL    HW119486  10.158   5.126   5.758
72549SOL    HW219487  10.273   5.140   5.661
72550SOL     OW19488   2.717  12.011  13.421
72550SOL    HW119489   2.709  11.936  13.480
72550SOL    HW219490   2.630  12.021  13.382
72551SOL     OW19491   1.237   0.381   7.389
72551SOL    HW119492   1.182   0.336   7.325
72551SOL    HW219493   1.322   0.390   7.347
72552SOL     OW19494   8.645   9.303   9.989
72552SOL    HW119495   8.709   9.233   9.999
72552SOL    HW219496   8.640   9.317   9.894
72553SOL     OW19497   0.351  12.366  13.136
72553SOL    HW119498   0.279  12.428  13.144
72553SOL    HW219499   0.430  12.420  13.132
72554SOL     OW19500   3.021   2.508   2.956
72554SOL    HW119501   3.060   2.540   2.875
72554SOL    HW219502   3.094   2.467   3.003
72555SOL     OW19503   3.064  12.536   6.969
72555SOL    HW119504   3.128  12.511   7.035
72555SOL    HW219505   3.095  12.495   6.888
72556SOL     OW19506  14.023   3.868   3.989
72556SOL    HW119507  14.025   3.890   3.896
72556SOL    HW219508  13.952   3.804   3.997
72557SOL     OW19509  11.791   2.608  12.033
72557SOL    HW119510  11.869   2.571  12.074
72557SOL    HW219511  11.806   2.702  12.032
72558SOL     OW19512   7.456   7.984   0.129
72558SOL    HW119513   7.494   8.034   0.057
72558SOL    HW219514   7.373   8.028   0.149
72559SOL     OW19515   7.722   8.869   4.438
72559SOL    HW119516   7.643   8.867   4.383
72559SOL    HW219517   7.690   8.850   4.526
72560SOL     OW19518   5.900  13.637  13.624
72560SOL    HW119519   5.836  13.700  13.656
72560SOL    HW219520   5.881  13.628  13.530
72561SOL     OW19521   5.202   4.566   2.061
72561SOL    HW119522   5.179   4.655   2.037
72561SOL    HW219523   5.141   4.544   2.131
72562SOL     OW19524   6.186   8.430   5.580
72562SOL    HW119525   6.163   8.492   5.510
72562SOL    HW219526   6.171   8.344   5.541
72563SOL     OW19527   9.463   1.803  14.702
72563SOL    HW119528   9.458   1.843  14.615
72563SOL    HW219529   9.555   1.812  14.727
72564SOL     OW19530  13.852   0.800   8.004
72564SOL    HW119531  13.845   0.774   7.912
72564SOL    HW219532  13.822   0.892   8.005
72565SOL     OW19533   8.825   0.459   1.682
72565SOL    HW119534   8.764   0.465   1.756
72565SOL    HW219535   8.809   0.372   1.646
72566SOL     OW19536   2.035  12.824   8.436
72566SOL    HW119537   2.024  12.868   8.520
72566SOL    HW219538   1.959  12.851   8.384
72567SOL     OW19539  14.023   4.270   7.836
72567SOL    HW119540  14.086   4.222   7.890
72567SOL    HW219541  14.025   4.359   7.872
72568SOL     OW19542   4.569   6.007  12.253
72568SOL    HW119543   4.623   5.976  12.325
72568SOL    HW219544   4.629   6.013  12.179
72569SOL     OW19545   8.516  10.111   0.141
72569SOL    HW119546   8.576  10.048   0.182
72569SOL    HW219547   8.464  10.146   0.213
72570SOL     OW19548  13.707  12.785   9.774
72570SOL    HW119549  13.802  12.779   9.784
72570SOL    HW219550  13.677  12.823   9.857
72571SOL     OW19551   7.353   8.976   5.290
72571SOL    HW119552   7.334   8.913   5.360
72571SOL    HW219553   7.417   9.035   5.329
72572SOL     OW19554   5.340   2.084   2.924
72572SOL    HW119555   5.424   2.073   2.879
72572SOL    HW219556   5.275   2.057   2.859
72573SOL     OW19557   7.012   0.436   4.459
72573SOL    HW119558   7.067   0.501   4.503
72573SOL    HW219559   7.036   0.353   4.501
72574SOL     OW19560   4.950  13.168   9.218
72574SOL    HW119561   4.940  13.079   9.252
72574SOL    HW219562   4.909  13.166   9.131
72575SOL     OW19563   1.569   6.097  10.513
72575SOL    HW119564   1.509   6.117  10.584
72575SOL    HW219565   1.537   6.015  10.476
72576SOL     OW19566  11.260   7.297   3.451
72576SOL    HW119567  11.337   7.330   3.496
72576SOL    HW219568  11.192   7.362   3.469
72577SOL     OW19569   0.218   5.766  13.967
72577SOL    HW119570   0.295   5.765  14.024
72577SOL    HW219571   0.154   5.711  14.012
72578SOL     OW19572  11.247   5.720   2.739
72578SOL    HW119573  11.281   5.643   2.785
72578SOL    HW219574  11.168   5.744   2.787
72579SOL     OW19575  11.092   3.437   5.475
72579SOL    HW119576  11.054   3.424   5.389
72579SOL    HW219577  11.174   3.388   5.474
72580SOL     OW19578   7.669   5.592  13.199
72580SOL    HW119579   7.738   5.578  13.134
72580SOL    HW219580   7.716   5.615  13.279
72581SOL     OW19581   0.840  11.137  13.830
72581SOL    HW119582   0.753  11.127  13.791
72581SOL    HW219583   0.846  11.230  13.851
72582SOL     OW19584  11.381   8.685   1.813
72582SOL    HW119585  11.311   8.625   1.786
72582SOL    HW219586  11.444   8.629   1.858
72583SOL     OW19587  12.298   6.085   6.153
72583SOL    HW119588  12.210   6.047   6.151
72583SOL    HW219589  12.285   6.176   6.181
72584SOL     OW19590   2.824   5.048   8.061
72584SOL    HW119591   2.743   5.098   8.065
72584SOL    HW219592   2.806   4.969   8.112
72585SOL     OW19593  12.351   0.283   2.442
72585SOL    HW119594  12.269   0.331   2.454
72585SOL    HW219595  12.369   0.290   2.348
72586SOL     OW19596  10.285   9.903  12.343
72586SOL    HW119597  10.190   9.911  12.330
72586SOL    HW219598  10.294   9.861  12.428
72587SOL     OW19599  14.587  14.395   3.921
72587SOL    HW119600  14.633  14.379   4.003
72587SOL    HW219601  14.512  14.448   3.946
72588SOL     OW19602   9.246   4.333   2.939
72588SOL    HW119603   9.186   4.290   2.878
72588SOL    HW219604   9.311   4.375   2.884
72589SOL     OW19605   7.620   4.382   4.536
72589SOL    HW119606   7.671   4.457   4.507
72589SOL    HW219607   7.684   4.323   4.576
72590SOL     OW19608  10.431   6.462  10.654
72590SOL    HW119609  10.508   6.507  10.619
72590SOL    HW219610  10.417   6.502  10.740
72591SOL     OW19611   3.530   0.544   2.354
72591SOL    HW119612   3.476   0.485   2.302
72591SOL    HW219613   3.619   0.508   2.349
72592SOL     OW19614  14.848   6.885  14.485
72592SOL    HW119615  14.823   6.974  14.506
72592SOL    HW219616   0.065   6.877  14.518
72593SOL     OW19617  13.341   5.030   7.953
72593SOL    HW119618  13.271   4.969   7.930
72593SOL    HW219619  13.421   4.980   7.944
72594SOL     OW19620   9.973  12.784  13.357
72594SOL    HW119621   9.963  12.865  13.408
72594SOL    HW219622   9.925  12.800  13.276
72595SOL     OW19623  14.220   2.038   8.819
72595SOL    HW119624  14.183   2.087   8.892
72595SOL    HW219625  14.244   2.105   8.755
72596SOL     OW19626   4.118   8.207   4.354
72596SOL    HW119627   4.177   8.150   4.404
72596SOL    HW219628   4.127   8.177   4.263
72597SOL     OW19629   3.354   7.241  10.616
72597SOL    HW119630   3.344   7.175  10.685
72597SOL    HW219631   3.443   7.273  10.627
72598SOL     OW19632   1.743   9.070  13.183
72598SOL    HW119633   1.679   8.999  13.176
72598SOL    HW219634   1.827   9.030  13.160
72599SOL     OW19635   4.429   9.647   6.774
72599SOL    HW119636   4.516   9.611   6.759
72599SOL    HW219637   4.431   9.734   6.733
72600SOL     OW19638   1.048   9.066   4.237
72600SOL    HW119639   1.009   8.991   4.281
72600SOL    HW219640   1.053   9.134   4.304
72601SOL     OW19641   3.811   3.024  11.640
72601SOL    HW119642   3.793   3.101  11.694
72601SOL    HW219643   3.906   3.021  11.634
72602SOL     OW19644   1.078   6.928   8.493
72602SOL    HW119645   1.120   6.850   8.529
72602SOL    HW219646   1.104   6.998   8.553
72603SOL     OW19647   2.427   3.351   5.671
72603SOL    HW119648   2.385   3.431   5.702
72603SOL    HW219649   2.368   3.280   5.699
72604SOL     OW19650   0.703   6.559  10.029
72604SOL    HW119651   0.715   6.479  10.080
72604SOL    HW219652   0.636   6.537   9.965
72605SOL     OW19653   6.556   3.767   8.307
72605SOL    HW119654   6.561   3.854   8.268
72605SOL    HW219655   6.594   3.778   8.394
72606SOL     OW19656   2.881   9.903   7.090
72606SOL    HW119657   2.881   9.846   7.013
72606SOL    HW219658   2.973   9.908   7.116
72607SOL     OW19659   8.821   8.315  13.383
72607SOL    HW119660   8.819   8.221  13.364
72607SOL    HW219661   8.878   8.352  13.316
72608SOL     OW19662  10.650   0.264  10.256
72608SOL    HW119663  10.667   0.248  10.349
72608SOL    HW219664  10.560   0.233  10.242
72609SOL     OW19665  11.776   9.814  14.475
72609SOL    HW119666  11.752   9.728  14.510
72609SOL    HW219667  11.696   9.846  14.434
72610SOL     OW19668   4.990  10.992  11.659
72610SOL    HW119669   5.035  10.928  11.603
72610SOL    HW219670   5.053  11.063  11.669
72611SOL     OW19671  10.058   1.978   1.020
72611SOL    HW119672   9.983   1.937   1.063
72611SOL    HW219673  10.049   1.953   0.928
72612SOL     OW19674   4.745   3.607  12.433
72612SOL    HW119675   4.678   3.565  12.486
72612SOL    HW219676   4.745   3.558  12.351
72613SOL     OW19677  12.158  14.577   2.372
72613SOL    HW119678  12.224  14.645   2.382
72613SOL    HW219679  12.075  14.618   2.398
72614SOL     OW19680   7.508   9.139  13.955
72614SOL    HW119681   7.511   9.131  14.051
72614SOL    HW219682   7.519   9.232  13.938
72615SOL     OW19683  11.661   3.524   0.871
72615SOL    HW119684  11.628   3.540   0.783
72615SOL    HW219685  11.664   3.429   0.878
72616SOL     OW19686   5.713  12.107   0.334
72616SOL    HW119687   5.667  12.175   0.383
72616SOL    HW219688   5.805  12.133   0.336
72617SOL     OW19689   0.799   3.885  12.661
72617SOL    HW119690   0.708   3.915  12.659
72617SOL    HW219691   0.822   3.872  12.569
72618SOL     OW19692   2.513   1.500  13.423
72618SOL    HW119693   2.436   1.544  13.458
72618SOL    HW219694   2.530   1.427  13.482
72619SOL     OW19695   9.404   0.590   1.735
72619SOL    HW119696   9.357   0.673   1.730
72619SOL    HW219697   9.476   0.600   1.672
72620SOL     OW19698  12.439   1.641   1.532
72620SOL    HW119699  12.428   1.735   1.518
72620SOL    HW219700  12.451   1.632   1.627
72621SOL     OW19701   1.149   6.660   8.615
72621SOL    HW119702   1.153   6.634   8.523
72621SOL    HW219703   1.171   6.581   8.663
72622SOL     OW19704   5.637   0.043  13.005
72622SOL    HW119705   5.635   0.070  13.097
72622SOL    HW219706   5.599   0.117  12.958
72623SOL     OW19707   1.870   2.887   1.722
72623SOL    HW119708   1.904   2.951   1.659
72623SOL    HW219709   1.863   2.806   1.672
72624SOL     OW19710   5.844  12.206  12.960
72624SOL    HW119711   5.835  12.118  12.925
72624SOL    HW219712   5.892  12.195  13.042
72625SOL     OW19713   8.102   1.794   5.572
72625SOL    HW119714   8.112   1.758   5.484
72625SOL    HW219715   8.009   1.784   5.592
72626SOL     OW19716  12.719   3.711  10.713
72626SOL    HW119717  12.787   3.649  10.685
72626SOL    HW219718  12.685   3.673  10.795
72627SOL     OW19719  11.984   0.472  11.598
72627SOL    HW119720  12.047   0.403  11.576
72627SOL    HW219721  12.016   0.508  11.680
72628SOL     OW19722   9.673   3.888  14.475
72628SOL    HW119723   9.733   3.889  14.550
72628SOL    HW219724   9.711   3.952  14.414
72629SOL     OW19725   7.996   5.226   5.698
72629SOL    HW119726   8.068   5.168   5.675
72629SOL    HW219727   7.995   5.226   5.794
72630SOL     OW19728  14.590   2.269   6.246
72630SOL    HW119729  14.514   2.317   6.214
72630SOL    HW219730  14.557   2.181   6.266
72631SOL     OW19731   9.009   1.710  10.625
72631SOL    HW119732   8.940   1.747  10.679
72631SOL    HW219733   9.089   1.752  10.655
72632SOL     OW19734   1.128   6.973   2.408
72632SOL    HW119735   1.145   6.937   2.495
72632SOL    HW219736   1.202   6.944   2.355
72633SOL     OW19737  11.322   2.561   1.649
72633SOL    HW119738  11.337   2.473   1.616
72633SOL    HW219739  11.401   2.610   1.626
72634SOL     OW19740   9.097   0.221  13.555
72634SOL    HW119741   9.147   0.284  13.504
72634SOL    HW219742   9.016   0.209  13.505
72635SOL     OW19743  12.894  11.672   0.096
72635SOL    HW119744  12.862  11.620   0.022
72635SOL    HW219745  12.989  11.667   0.088
72636SOL     OW19746   9.741   1.535   7.140
72636SOL    HW119747   9.777   1.552   7.053
72636SOL    HW219748   9.649   1.515   7.125
72637SOL     OW19749   2.408   5.082   4.192
72637SOL    HW119750   2.379   4.996   4.223
72637SOL    HW219751   2.329   5.135   4.193
72638SOL     OW19752   8.240   0.080  11.544
72638SOL    HW119753   8.277   0.162  11.576
72638SOL    HW219754   8.298   0.012  11.578
72639SOL     OW19755   4.868  14.722   8.297
72639SOL    HW119756   4.862  14.803   8.348
72639SOL    HW219757   4.786  14.676   8.316
72640SOL     OW19758   0.988   6.247   1.022
72640SOL    HW119759   0.981   6.320   1.083
72640SOL    HW219760   0.912   6.192   1.042
72641SOL     OW19761   6.729  11.879   1.311
72641SOL    HW119762   6.747  11.972   1.299
72641SOL    HW219763   6.815  11.838   1.317
72642SOL     OW19764  11.062   4.597  14.090
72642SOL    HW119765  11.047   4.678  14.041
72642SOL    HW219766  11.154   4.602  14.115
72643SOL     OW19767   9.806  12.996   5.695
72643SOL    HW119768   9.734  12.962   5.642
72643SOL    HW219769   9.863  13.040   5.632
72644SOL     OW19770   6.435   2.790   9.130
72644SOL    HW119771   6.496   2.771   9.201
72644SOL    HW219772   6.348   2.774   9.168
72645SOL     OW19773   3.307   2.140   7.284
72645SOL    HW119774   3.324   2.107   7.373
72645SOL    HW219775   3.383   2.112   7.233
72646SOL     OW19776  13.055  10.947   4.831
72646SOL    HW119777  13.128  10.925   4.773
72646SOL    HW219778  13.016  10.863   4.854
72647SOL     OW19779   2.716   7.804   8.071
72647SOL    HW119780   2.702   7.853   8.152
72647SOL    HW219781   2.693   7.713   8.094
72648SOL     OW19782   8.590   8.487  13.039
72648SOL    HW119783   8.629   8.545  13.104
72648SOL    HW219784   8.659   8.475  12.974
72649SOL     OW19785   7.993   8.977  11.536
72649SOL    HW119786   8.056   9.048  11.521
72649SOL    HW219787   8.047   8.900  11.549
72650SOL     OW19788  13.260   9.043   3.875
72650SOL    HW119789  13.321   9.006   3.811
72650SOL    HW219790  13.173   9.030   3.837
72651SOL     OW19791  14.664   1.829  13.440
72651SOL    HW119792  14.595   1.766  13.462
72651SOL    HW219793  14.658   1.840  13.346
72652SOL     OW19794   4.197   5.799   3.085
72652SOL    HW119795   4.289   5.786   3.107
72652SOL    HW219796   4.159   5.711   3.088
72653SOL     OW19797  13.379   2.594   1.706
72653SOL    HW119798  13.309   2.589   1.641
72653SOL    HW219799  13.445   2.533   1.674
72654SOL     OW19800   4.934  14.747  13.340
72654SOL    HW119801   5.004  14.723  13.279
72654SOL    HW219802   4.980  14.787  13.414
72655SOL     OW19803  14.092   2.552  12.036
72655SOL    HW119804  14.108   2.470  11.990
72655SOL    HW219805  14.152   2.614  11.994
72656SOL     OW19806   1.851   5.541  11.126
72656SOL    HW119807   1.940   5.569  11.148
72656SOL    HW219808   1.823   5.602  11.057
72657SOL     OW19809  13.352  12.237   2.416
72657SOL    HW119810  13.298  12.212   2.341
72657SOL    HW219811  13.352  12.333   2.416
72658SOL     OW19812   1.474   3.506   5.311
72658SOL    HW119813   1.471   3.426   5.259
72658SOL    HW219814   1.448   3.575   5.250
72659SOL     OW19815   4.313  11.868   4.377
72659SOL    HW119816   4.242  11.816   4.338
72659SOL    HW219817   4.281  11.891   4.464
72660SOL     OW19818   8.048  10.117   3.978
72660SOL    HW119819   7.973  10.148   3.928
72660SOL    HW219820   8.046  10.022   3.968
72661SOL     OW19821   0.998  14.490   8.884
72661SOL    HW119822   1.080  14.487   8.933
72661SOL    HW219823   0.967  14.579   8.895
72662SOL     OW19824   4.041   9.493   2.754
72662SOL    HW119825   4.035   9.410   2.802
72662SOL    HW219826   4.125   9.486   2.708
72663SOL     OW19827  13.412  13.876  14.589
72663SOL    HW119828  13.477  13.897  14.522
72663SOL    HW219829  13.338  13.841  14.540
72664SOL     OW19830   0.302  12.435   3.404
72664SOL    HW119831   0.272  12.522   3.377
72664SOL    HW219832   0.318  12.443   3.498
72665SOL     OW19833   4.242   9.713  12.355
72665SOL    HW119834   4.209   9.637  12.402
72665SOL    HW219835   4.163   9.759  12.327
72666SOL     OW19836   3.692  11.935   4.490
72666SOL    HW119837   3.717  11.933   4.397
72666SOL    HW219838   3.603  11.900   4.492
72667SOL     OW19839  10.512   3.703  10.329
72667SOL    HW119840  10.571   3.629  10.344
72667SOL    HW219841  10.473   3.686  10.244
72668SOL     OW19842   8.183  12.670   7.270
72668SOL    HW119843   8.255  12.638   7.216
72668SOL    HW219844   8.133  12.591   7.293
72669SOL     OW19845   9.524  14.258   8.620
72669SOL    HW119846   9.527  14.354   8.617
72669SOL    HW219847   9.487  14.232   8.536
72670SOL     OW19848   0.483   3.401  10.055
72670SOL    HW119849   0.529   3.400  10.139
72670SOL    HW219850   0.449   3.490  10.048
72671SOL     OW19851   8.482   2.701   8.322
72671SOL    HW119852   8.459   2.650   8.245
72671SOL    HW219853   8.445   2.651   8.395
72672SOL     OW19854   9.502  12.349  10.146
72672SOL    HW119855   9.471  12.384  10.062
72672SOL    HW219856   9.425  12.353  10.203
72673SOL     OW19857   7.791  12.193   5.957
72673SOL    HW119858   7.832  12.279   5.949
72673SOL    HW219859   7.835  12.153   6.032
72674SOL     OW19860   1.667  14.480   4.421
72674SOL    HW119861   1.720  14.534   4.480
72674SOL    HW219862   1.706  14.393   4.427
72675SOL     OW19863  12.059   2.361   3.100
72675SOL    HW119864  12.077   2.399   3.014
72675SOL    HW219865  12.032   2.271   3.083
72676SOL     OW19866  10.516  10.455   8.187
72676SOL    HW119867  10.499  10.516   8.258
72676SOL    HW219868  10.533  10.372   8.230
72677SOL     OW19869  10.651   4.948   8.885
72677SOL    HW119870  10.669   4.975   8.795
72677SOL    HW219871  10.628   4.855   8.878
72678SOL     OW19872   3.423   1.175   3.435
72678SOL    HW119873   3.403   1.110   3.503
72678SOL    HW219874   3.371   1.147   3.359
72679SOL     OW19875   3.964   5.783  12.241
72679SOL    HW119876   3.877   5.786  12.281
72679SOL    HW219877   3.955   5.722  12.168
72680SOL     OW19878   4.159  10.517   4.797
72680SOL    HW119879   4.167  10.574   4.721
72680SOL    HW219880   4.142  10.430   4.760
72681SOL     OW19881  14.643   8.284   8.740
72681SOL    HW119882  14.577   8.354   8.748
72681SOL    HW219883  14.602   8.208   8.780
72682SOL     OW19884  10.913   4.249   6.205
72682SOL    HW119885  11.002   4.285   6.201
72682SOL    HW219886  10.857   4.324   6.187
72683SOL     OW19887  13.339   9.442   0.403
72683SOL    HW119888  13.393   9.368   0.432
72683SOL    HW219889  13.310   9.484   0.485
72684SOL     OW19890   9.722   5.578   8.327
72684SOL    HW119891   9.648   5.601   8.271
72684SOL    HW219892   9.742   5.659   8.374
72685SOL     OW19893  10.625   0.744   3.695
72685SOL    HW119894  10.618   0.832   3.730
72685SOL    HW219895  10.612   0.687   3.771
72686SOL     OW19896   9.005   6.084  12.646
72686SOL    HW119897   8.950   6.007  12.659
72686SOL    HW219898   9.061   6.087  12.723
72687SOL     OW19899   7.178  12.426   2.005
72687SOL    HW119900   7.163  12.332   2.007
72687SOL    HW219901   7.264  12.438   2.045
72688SOL     OW19902   5.812  11.287   7.983
72688SOL    HW119903   5.894  11.265   7.938
72688SOL    HW219904   5.828  11.264   8.075
72689SOL     OW19905   4.806   2.378   8.717
72689SOL    HW119906   4.836   2.468   8.725
72689SOL    HW219907   4.710   2.383   8.722
72690SOL     OW19908   7.825   5.212   6.164
72690SOL    HW119909   7.818   5.297   6.207
72690SOL    HW219910   7.809   5.148   6.234
72691SOL     OW19911  11.115   3.509  13.801
72691SOL    HW119912  11.117   3.603  13.820
72691SOL    HW219913  11.023   3.485  13.808
72692SOL     OW19914  14.726   0.213   7.288
72692SOL    HW119915  14.773   0.130   7.283
72692SOL    HW219916  14.756   0.263   7.212
72693SOL     OW19917   2.887   9.496   3.968
72693SOL    HW119918   2.963   9.513   3.911
72693SOL    HW219919   2.842   9.580   3.974
72694SOL     OW19920   3.355   1.270   4.659
72694SOL    HW119921   3.276   1.319   4.683
72694SOL    HW219922   3.349   1.190   4.711
72695SOL     OW19923   9.626   1.827   2.562
72695SOL    HW119924   9.705   1.781   2.535
72695SOL    HW219925   9.644   1.855   2.652
72696SOL     OW19926   6.648   5.038  12.579
72696SOL    HW119927   6.665   5.104  12.647
72696SOL    HW219928   6.641   5.089  12.498
72697SOL     OW19929  13.429   8.421   4.262
72697SOL    HW119930  13.490   8.489   4.232
72697SOL    HW219931  13.343   8.453   4.235
72698SOL     OW19932   9.068  10.478   7.315
72698SOL    HW119933   9.106  10.393   7.335
72698SOL    HW219934   8.978  10.472   7.346
72699SOL     OW19935   4.717  14.682  11.144
72699SOL    HW119936   4.774  14.664  11.069
72699SOL    HW219937   4.695  14.596  11.180
72700SOL     OW19938   1.328   9.910  13.402
72700SOL    HW119939   1.254   9.898  13.342
72700SOL    HW219940   1.385   9.974  13.359
72701SOL     OW19941   1.920  12.422  11.365
72701SOL    HW119942   1.978  12.347  11.380
72701SOL    HW219943   1.833  12.384  11.354
72702SOL     OW19944  13.335   5.567   6.926
72702SOL    HW119945  13.289   5.552   6.843
72702SOL    HW219946  13.382   5.649   6.913
72703SOL     OW19947   5.194  10.205   2.624
72703SOL    HW119948   5.260  10.258   2.579
72703SOL    HW219949   5.110  10.235   2.589
72704SOL     OW19950   1.236  14.021   6.188
72704SOL    HW119951   1.214  13.941   6.140
72704SOL    HW219952   1.192  14.010   6.272
72705SOL     OW19953   6.296  11.162   0.274
72705SOL    HW119954   6.240  11.085   0.287
72705SOL    HW219955   6.385  11.129   0.284
72706SOL     OW19956   5.051   1.212   0.183
72706SOL    HW119957   4.958   1.225   0.164
72706SOL    HW219958   5.056   1.125   0.221
72707SOL     OW19959   8.029   3.245   9.660
72707SOL    HW119960   7.981   3.243   9.742
72707SOL    HW219961   8.092   3.317   9.670
72708SOL     OW19962  11.651   4.308   9.599
72708SOL    HW119963  11.723   4.299   9.661
72708SOL    HW219964  11.572   4.304   9.654
72709SOL     OW19965   2.857   3.785   8.569
72709SOL    HW119966   2.844   3.702   8.522
72709SOL    HW219967   2.941   3.773   8.614
72710SOL     OW19968   0.553  11.107   5.465
72710SOL    HW119969   0.540  11.192   5.423
72710SOL    HW219970   0.648  11.103   5.480
72711SOL     OW19971   1.651   5.738   7.805
72711SOL    HW119972   1.601   5.731   7.724
72711SOL    HW219973   1.722   5.799   7.785
72712SOL     OW19974   2.236   5.014   1.311
72712SOL    HW119975   2.331   5.023   1.324
72712SOL    HW219976   2.226   4.937   1.256
72713SOL     OW19977   3.011  12.187   9.109
72713SOL    HW119978   3.033  12.198   9.016
72713SOL    HW219979   2.962  12.266   9.131
72714SOL     OW19980   4.422   4.231   8.048
72714SOL    HW119981   4.408   4.243   7.954
72714SOL    HW219982   4.495   4.290   8.069
72715SOL     OW19983   6.295   1.032  11.958
72715SOL    HW119984   6.368   1.089  11.932
72715SOL    HW219985   6.316   1.004  12.047
72716SOL     OW19986   7.662  12.187  11.691
72716SOL    HW119987   7.696  12.149  11.610
72716SOL    HW219988   7.570  12.204  11.673
72717SOL     OW19989   8.472   7.599   0.774
72717SOL    HW119990   8.403   7.605   0.840
72717SOL    HW219991   8.485   7.689   0.745
72718SOL     OW19992   8.153   1.086   3.941
72718SOL    HW119993   8.060   1.065   3.944
72718SOL    HW219994   8.165   1.132   3.858
72719SOL     OW19995   4.751   4.635  10.048
72719SOL    HW119996   4.818   4.703  10.041
72719SOL    HW219997   4.732   4.630  10.142
72720SOL     OW19998  13.711   1.676   1.252
72720SOL    HW119999  13.662   1.597   1.226
72720SOL    HW220000  13.738   1.715   1.169
72721SOL     OW20001  10.169   9.575   1.851
72721SOL    HW120002  10.088   9.585   1.800
72721SOL    HW220003  10.155   9.627   1.930
72722SOL     OW20004  14.757  10.365   4.787
72722SOL    HW120005  14.768  10.341   4.695
72722SOL    HW220006  14.677  10.416   4.790
72723SOL     OW20007   4.351   3.240  13.185
72723SOL    HW120008   4.439   3.236  13.148
72723SOL    HW220009   4.299   3.285  13.118
72724SOL     OW20010  11.285   4.463   8.931
72724SOL    HW120011  11.343   4.459   9.007
72724SOL    HW220012  11.197   4.468   8.968
72725SOL     OW20013   1.324   5.637  10.304
72725SOL    HW120014   1.387   5.566  10.317
72725SOL    HW220015   1.362   5.690  10.233
72726SOL     OW20016  13.882   4.685  12.458
72726SOL    HW120017  13.872   4.732  12.375
72726SOL    HW220018  13.802   4.707  12.508
72727SOL     OW20019  13.223   4.988   3.709
72727SOL    HW120020  13.305   4.954   3.674
72727SOL    HW220021  13.242   5.008   3.801
72728SOL     OW20022   1.306   9.919   9.989
72728SOL    HW120023   1.266   9.991  10.037
72728SOL    HW220024   1.242   9.896   9.922
72729SOL     OW20025   0.362  13.653   7.312
72729SOL    HW120026   0.428  13.637   7.379
72729SOL    HW220027   0.393  13.731   7.265
72730SOL     OW20028  13.648  14.698  10.064
72730SOL    HW120029  13.643  14.651   9.980
72730SOL    HW220030  13.568  14.674  10.110
72731SOL     OW20031  13.625  14.790   2.810
72731SOL    HW120032  13.674  14.812   2.889
72731SOL    HW220033  13.587   0.000   2.781
72732SOL     OW20034   4.758   9.513   8.029
72732SOL    HW120035   4.813   9.539   8.102
72732SOL    HW220036   4.807   9.541   7.951
72733SOL     OW20037  13.286  14.167   3.999
72733SOL    HW120038  13.205  14.170   4.051
72733SOL    HW220039  13.355  14.191   4.061
72734SOL     OW20040   5.457   6.760   1.801
72734SOL    HW120041   5.487   6.690   1.859
72734SOL    HW220042   5.439   6.833   1.859
72735SOL     OW20043  11.228   4.071   5.357
72735SOL    HW120044  11.136   4.097   5.358
72735SOL    HW220045  11.264   4.105   5.440
72736SOL     OW20046  12.573   3.085   0.055
72736SOL    HW120047  12.539   3.025  14.861
72736SOL    HW220048  12.496   3.117   0.100
72737SOL     OW20049   0.368   1.154  14.246
72737SOL    HW120050   0.463   1.141  14.255
72737SOL    HW220051   0.354   1.246  14.266
72738SOL     OW20052   9.065   7.157  12.678
72738SOL    HW120053   9.136   7.093  12.678
72738SOL    HW220054   9.088   7.218  12.749
72739SOL     OW20055   4.939   3.813  11.044
72739SOL    HW120056   4.936   3.736  10.988
72739SOL    HW220057   4.908   3.885  10.988
72740SOL     OW20058   7.002  12.237   9.942
72740SOL    HW120059   6.984  12.197  10.027
72740SOL    HW220060   6.923  12.288   9.923
72741SOL     OW20061   5.547   4.927   1.430
72741SOL    HW120062   5.538   4.957   1.339
72741SOL    HW220063   5.633   4.887   1.433
72742SOL     OW20064   1.860   4.794  12.986
72742SOL    HW120065   1.835   4.713  13.031
72742SOL    HW220066   1.954   4.802  13.002
72743SOL     OW20067   4.654  14.301   3.253
72743SOL    HW120068   4.712  14.286   3.328
72743SOL    HW220069   4.660  14.395   3.236
72744SOL     OW20070  13.208  14.656   5.145
72744SOL    HW120071  13.279  14.615   5.094
72744SOL    HW220072  13.177  14.728   5.090
72745SOL     OW20073   1.365   3.474   1.570
72745SOL    HW120074   1.286   3.527   1.558
72745SOL    HW220075   1.332   3.385   1.584
72746SOL     OW20076   0.633   2.449  12.518
72746SOL    HW120077   0.594   2.474  12.602
72746SOL    HW220078   0.574   2.382  12.484
72747SOL     OW20079   9.014  11.146   2.997
72747SOL    HW120080   8.933  11.133   2.949
72747SOL    HW220081   8.998  11.225   3.050
72748SOL     OW20082   0.847   4.659   8.304
72748SOL    HW120083   0.787   4.586   8.291
72748SOL    HW220084   0.796   4.724   8.353
72749SOL     OW20085  11.642   5.185  12.579
72749SOL    HW120086  11.674   5.274  12.599
72749SOL    HW220087  11.680   5.131  12.648
72750SOL     OW20088   5.390   6.263   6.281
72750SOL    HW120089   5.452   6.298   6.217
72750SOL    HW220090   5.427   6.177   6.305
72751SOL     OW20091   1.146  10.691   9.763
72751SOL    HW120092   1.192  10.620   9.719
72751SOL    HW220093   1.092  10.731   9.694
72752SOL     OW20094  14.081   8.215  12.041
72752SOL    HW120095  14.025   8.139  12.027
72752SOL    HW220096  14.060   8.244  12.130
72753SOL     OW20097  10.208   8.957   2.337
72753SOL    HW120098  10.165   8.970   2.252
72753SOL    HW220099  10.216   9.045   2.373
72754SOL     OW20100   9.309   8.885   6.443
72754SOL    HW120101   9.305   8.978   6.464
72754SOL    HW220102   9.377   8.878   6.376
72755SOL     OW20103   0.717   5.118  14.168
72755SOL    HW120104   0.625   5.098  14.152
72755SOL    HW220105   0.715   5.196  14.223
72756SOL     OW20106   7.766  14.682   9.589
72756SOL    HW120107   7.759  14.769   9.628
72756SOL    HW220108   7.740  14.695   9.498
72757SOL     OW20109   4.800   8.204   7.441
72757SOL    HW120110   4.886   8.244   7.454
72757SOL    HW220111   4.742   8.278   7.422
72758SOL     OW20112   1.193   2.677  12.413
72758SOL    HW120113   1.209   2.760  12.367
72758SOL    HW220114   1.140   2.626  12.352
72759SOL     OW20115   1.839   3.372   2.448
72759SOL    HW120116   1.833   3.418   2.531
72759SOL    HW220117   1.862   3.441   2.385
72760SOL     OW20118   2.084   3.760  10.904
72760SOL    HW120119   2.149   3.689  10.896
72760SOL    HW220120   2.000   3.714  10.910
72761SOL     OW20121   1.363   6.892   1.642
72761SOL    HW120122   1.451   6.856   1.655
72761SOL    HW220123   1.319   6.829   1.586
72762SOL     OW20124   2.538   2.435   2.076
72762SOL    HW120125   2.542   2.500   2.146
72762SOL    HW220126   2.583   2.358   2.111
72763SOL     OW20127   4.245  13.829   7.273
72763SOL    HW120128   4.177  13.762   7.283
72763SOL    HW220129   4.222  13.896   7.338
72764SOL     OW20130   3.944   6.683   3.781
72764SOL    HW120131   4.028   6.637   3.785
72764SOL    HW220132   3.921   6.682   3.688
72765SOL     OW20133   0.008   8.153  11.101
72765SOL    HW120134   0.046   8.133  11.015
72765SOL    HW220135  14.811   8.089  11.112
72766SOL     OW20136   4.457   3.562   2.693
72766SOL    HW120137   4.460   3.495   2.624
72766SOL    HW220138   4.471   3.645   2.647
72767SOL     OW20139  11.453  12.013   4.567
72767SOL    HW120140  11.494  11.926   4.565
72767SOL    HW220141  11.375  12.001   4.620
72768SOL     OW20142  14.049   3.817  11.206
72768SOL    HW120143  14.044   3.744  11.145
72768SOL    HW220144  14.065   3.894  11.150
72769SOL     OW20145  12.485   1.996   6.702
72769SOL    HW120146  12.429   1.959   6.770
72769SOL    HW220147  12.564   2.023   6.749
72770SOL     OW20148   7.293   0.600  13.500
72770SOL    HW120149   7.383   0.631  13.488
72770SOL    HW220150   7.277   0.610  13.593
72771SOL     OW20151   5.474   6.667   0.445
72771SOL    HW120152   5.422   6.708   0.376
72771SOL    HW220153   5.485   6.576   0.415
72772SOL     OW20154  10.913  11.374   9.792
72772SOL    HW120155  10.968  11.327   9.855
72772SOL    HW220156  10.896  11.311   9.722
72773SOL     OW20157   5.891   4.729   8.528
72773SOL    HW120158   5.806   4.705   8.564
72773SOL    HW220159   5.917   4.806   8.578
72774SOL     OW20160   8.691   7.691   1.241
72774SOL    HW120161   8.616   7.638   1.268
72774SOL    HW220162   8.679   7.704   1.147
72775SOL     OW20163  13.096   7.779   5.499
72775SOL    HW120164  13.184   7.762   5.532
72775SOL    HW220165  13.076   7.704   5.443
72776SOL     OW20166   4.559  12.124   3.158
72776SOL    HW120167   4.631  12.161   3.209
72776SOL    HW220168   4.556  12.032   3.185
72777SOL     OW20169   4.550  13.605   2.285
72777SOL    HW120170   4.568  13.520   2.325
72777SOL    HW220171   4.508  13.583   2.202
72778SOL     OW20172   6.348   5.772   8.082
72778SOL    HW120173   6.301   5.702   8.128
72778SOL    HW220174   6.378   5.830   8.151
72779SOL     OW20175   5.557   4.619   3.377
72779SOL    HW120176   5.625   4.598   3.441
72779SOL    HW220177   5.599   4.683   3.319
72780SOL     OW20178   3.263  12.810   2.796
72780SOL    HW120179   3.245  12.716   2.790
72780SOL    HW220180   3.307  12.821   2.880
72781SOL     OW20181   3.925   2.574  11.446
72781SOL    HW120182   3.943   2.615  11.361
72781SOL    HW220183   3.838   2.535  11.435
72782SOL     OW20184   4.058  11.886  11.080
72782SOL    HW120185   4.080  11.816  11.141
72782SOL    HW220186   3.971  11.863  11.047
72783SOL     OW20187   7.998   1.901  12.246
72783SOL    HW120188   7.920   1.944  12.281
72783SOL    HW220189   7.970   1.864  12.162
72784SOL     OW20190   0.326   5.465   0.096
72784SOL    HW120191   0.352   5.530   0.161
72784SOL    HW220192   0.340   5.509   0.012
72785SOL     OW20193   4.790  14.538   2.706
72785SOL    HW120194   4.731  14.482   2.756
72785SOL    HW220195   4.855  14.568   2.770
72786SOL     OW20196   2.419  10.925   7.159
72786SOL    HW120197   2.341  10.876   7.133
72786SOL    HW220198   2.479  10.859   7.193
72787SOL     OW20199   9.589  10.339  11.523
72787SOL    HW120200   9.519  10.384  11.476
72787SOL    HW220201   9.585  10.375  11.611
72788SOL     OW20202   2.381  10.317   0.701
72788SOL    HW120203   2.446  10.307   0.631
72788SOL    HW220204   2.319  10.382   0.667
72789SOL     OW20205  13.464  10.562  12.984
72789SOL    HW120206  13.397  10.532  13.045
72789SOL    HW220207  13.492  10.483  12.937
72790SOL     OW20208   0.678   3.166   9.602
72790SOL    HW120209   0.739   3.192   9.533
72790SOL    HW220210   0.635   3.248   9.627
72791SOL     OW20211  12.620   8.746   4.294
72791SOL    HW120212  12.557   8.780   4.230
72791SOL    HW220213  12.629   8.818   4.358
72792SOL     OW20214   5.122   8.316   8.970
72792SOL    HW120215   5.211   8.323   9.006
72792SOL    HW220216   5.076   8.391   9.007
72793SOL     OW20217   1.716  13.828   1.622
72793SOL    HW120218   1.793  13.808   1.674
72793SOL    HW220219   1.699  13.748   1.572
72794SOL     OW20220   6.399  12.393  11.188
72794SOL    HW120221   6.384  12.467  11.246
72794SOL    HW220222   6.399  12.317  11.245
72795SOL     OW20223   4.171  11.197   5.332
72795SOL    HW120224   4.252  11.245   5.320
72795SOL    HW220225   4.135  11.230   5.414
72796SOL     OW20226   3.297   1.037  10.148
72796SOL    HW120227   3.220   1.042  10.203
72796SOL    HW220228   3.369   1.017  10.208
72797SOL     OW20229   2.887   7.438   6.169
72797SOL    HW120230   2.799   7.453   6.134
72797SOL    HW220231   2.876   7.441   6.264
72798SOL     OW20232   7.062   5.540   8.925
72798SOL    HW120233   7.143   5.579   8.957
72798SOL    HW220234   7.073   5.536   8.830
72799SOL     OW20235  10.372  10.319  13.163
72799SOL    HW120236  10.359  10.414  13.160
72799SOL    HW220237  10.311  10.288  13.230
72800SOL     OW20238   2.875   1.782  10.420
72800SOL    HW120239   2.803   1.720  10.411
72800SOL    HW220240   2.835   1.860  10.459
72801SOL     OW20241  10.391   3.685  11.641
72801SOL    HW120242  10.376   3.774  11.674
72801SOL    HW220243  10.335   3.679  11.564
72802SOL     OW20244   1.113   1.021   5.460
72802SOL    HW120245   1.060   0.945   5.434
72802SOL    HW220246   1.053   1.095   5.454
72803SOL     OW20247   0.368   0.256   7.443
72803SOL    HW120248   0.298   0.223   7.387
72803SOL    HW220249   0.397   0.179   7.493
72804SOL     OW20250   5.117  11.893   2.510
72804SOL    HW120251   5.070  11.916   2.590
72804SOL    HW220252   5.051  11.900   2.441
72805SOL     OW20253   3.621   3.422   8.381
72805SOL    HW120254   3.543   3.373   8.407
72805SOL    HW220255   3.693   3.361   8.394
72806SOL     OW20256   7.065   8.379  13.033
72806SOL    HW120257   7.094   8.416  12.949
72806SOL    HW220258   7.131   8.408  13.096
72807SOL     OW20259   9.132   6.539   8.825
72807SOL    HW120260   9.057   6.590   8.794
72807SOL    HW220261   9.207   6.597   8.817
72808SOL     OW20262  11.618   4.418   4.279
72808SOL    HW120263  11.570   4.500   4.293
72808SOL    HW220264  11.611   4.372   4.363
72809SOL     OW20265   3.185  10.002   0.933
72809SOL    HW120266   3.150   9.930   0.985
72809SOL    HW220267   3.279  10.002   0.952
72810SOL     OW20268  11.204   7.241  10.636
72810SOL    HW120269  11.110   7.229  10.645
72810SOL    HW220270  11.215   7.335  10.625
72811SOL     OW20271   4.718   4.115  11.553
72811SOL    HW120272   4.729   4.113  11.458
72811SOL    HW220273   4.798   4.073  11.587
72812SOL     OW20274   8.102   1.953   6.487
72812SOL    HW120275   8.072   1.981   6.401
72812SOL    HW220276   8.190   1.990   6.495
72813SOL     OW20277   4.870   1.504  10.628
72813SOL    HW120278   4.823   1.585  10.606
72813SOL    HW220279   4.839   1.481  10.716
72814SOL     OW20280   0.945   8.338   4.192
72814SOL    HW120281   0.998   8.319   4.115
72814SOL    HW220282   0.855   8.322   4.163
72815SOL     OW20283  12.231   3.672   3.766
72815SOL    HW120284  12.179   3.685   3.845
72815SOL    HW220285  12.168   3.672   3.695
72816SOL     OW20286  10.404   1.816   7.161
72816SOL    HW120287  10.332   1.753   7.159
72816SOL    HW220288  10.448   1.800   7.244
72817SOL     OW20289   1.735  11.953   5.029
72817SOL    HW120290   1.821  11.912   5.030
72817SOL    HW220291   1.704  11.941   4.939
72818SOL     OW20292   4.203   1.402   0.751
72818SOL    HW120293   4.292   1.413   0.717
72818SOL    HW220294   4.210   1.418   0.845
72819SOL     OW20295   4.185  13.168   6.442
72819SOL    HW120296   4.200  13.172   6.536
72819SOL    HW220297   4.191  13.259   6.413
72820SOL     OW20298   3.108  12.741  10.531
72820SOL    HW120299   3.118  12.730  10.436
72820SOL    HW220300   3.053  12.667  10.557
72821SOL     OW20301   3.945   2.078   2.688
72821SOL    HW120302   4.019   2.117   2.642
72821SOL    HW220303   3.961   1.984   2.684
72822SOL     OW20304   1.998   6.250  11.463
72822SOL    HW120305   1.951   6.205  11.533
72822SOL    HW220306   2.011   6.339  11.497
72823SOL     OW20307   1.612   3.309   1.668
72823SOL    HW120308   1.579   3.396   1.645
72823SOL    HW220309   1.689   3.326   1.722
72824SOL     OW20310   3.799  14.825  12.611
72824SOL    HW120311   3.822   0.045  12.613
72824SOL    HW220312   3.786  14.806  12.518
72825SOL     OW20313   9.112   9.482   7.235
72825SOL    HW120314   9.190   9.458   7.184
72825SOL    HW220315   9.123   9.436   7.318
72826SOL     OW20316   7.985   0.925   4.566
72826SOL    HW120317   7.968   0.975   4.486
72826SOL    HW220318   7.913   0.950   4.624
72827SOL     OW20319  14.781   6.482  10.778
72827SOL    HW120320  14.837   6.438  10.714
72827SOL    HW220321  14.840   6.539  10.827
72828SOL     OW20322   1.934  13.888  14.828
72828SOL    HW120323   1.930  13.794  14.844
72828SOL    HW220324   1.843  13.917  14.837
72829SOL     OW20325   5.370   3.993  13.757
72829SOL    HW120326   5.395   4.069  13.809
72829SOL    HW220327   5.380   4.023  13.666
72830SOL     OW20328  14.549   5.428  11.576
72830SOL    HW120329  14.501   5.346  11.566
72830SOL    HW220330  14.482   5.493  11.593
72831SOL     OW20331   9.771  14.262   7.654
72831SOL    HW120332   9.789  14.182   7.704
72831SOL    HW220333   9.841  14.322   7.679
72832SOL     OW20334  12.003   2.659   4.876
72832SOL    HW120335  11.931   2.613   4.919
72832SOL    HW220336  11.961   2.731   4.829
72833SOL     OW20337   3.815   1.909   4.748
72833SOL    HW120338   3.796   1.819   4.777
72833SOL    HW220339   3.813   1.961   4.828
72834SOL     OW20340   4.409   5.823   0.980
72834SOL    HW120341   4.382   5.732   0.996
72834SOL    HW220342   4.475   5.817   0.911
72835SOL     OW20343  14.430  12.754   3.309
72835SOL    HW120344  14.358  12.795   3.356
72835SOL    HW220345  14.396  12.669   3.282
72836SOL     OW20346   3.432  12.743  14.089
72836SOL    HW120347   3.378  12.796  14.031
72836SOL    HW220348   3.485  12.689  14.031
72837SOL     OW20349   3.583   0.684   7.712
72837SOL    HW120350   3.630   0.764   7.735
72837SOL    HW220351   3.498   0.692   7.755
72838SOL     OW20352   5.355   1.506   7.030
72838SOL    HW120353   5.324   1.470   6.947
72838SOL    HW220354   5.393   1.431   7.076
72839SOL     OW20355   2.498   3.158   0.511
72839SOL    HW120356   2.471   3.171   0.420
72839SOL    HW220357   2.441   3.088   0.543
72840SOL     OW20358   8.702  14.085   9.667
72840SOL    HW120359   8.659  14.024   9.726
72840SOL    HW220360   8.678  14.055   9.579
72841SOL     OW20361   8.704  12.350  12.873
72841SOL    HW120362   8.705  12.445  12.871
72841SOL    HW220363   8.677  12.328  12.962
72842SOL     OW20364   0.481  12.566   7.701
72842SOL    HW120365   0.469  12.646   7.650
72842SOL    HW220366   0.419  12.504   7.663
72843SOL     OW20367   9.090  12.044   5.458
72843SOL    HW120368   9.030  12.094   5.514
72843SOL    HW220369   9.146  12.110   5.418
72844SOL     OW20370   4.117   1.054   6.195
72844SOL    HW120371   4.088   1.077   6.107
72844SOL    HW220372   4.097   0.961   6.204
72845SOL     OW20373  13.446   0.949   3.267
72845SOL    HW120374  13.515   0.993   3.316
72845SOL    HW220375  13.410   1.017   3.210
72846SOL     OW20376  12.982  12.056  12.053
72846SOL    HW120377  12.992  12.120  11.982
72846SOL    HW220378  12.932  12.103  12.120
72847SOL     OW20379   3.982   3.598   0.670
72847SOL    HW120380   4.013   3.572   0.757
72847SOL    HW220381   3.887   3.581   0.673
72848SOL     OW20382  14.779   1.478   8.214
72848SOL    HW120383  14.858   1.530   8.203
72848SOL    HW220384  14.710   1.531   8.175
72849SOL     OW20385   7.388   3.601  11.569
72849SOL    HW120386   7.315   3.573  11.513
72849SOL    HW220387   7.349   3.608  11.656
72850SOL     OW20388  13.880  12.186   0.213
72850SOL    HW120389  13.888  12.269   0.167
72850SOL    HW220390  13.970  12.157   0.227
72851SOL     OW20391   1.630  14.663   5.036
72851SOL    HW120392   1.556  14.616   4.998
72851SOL    HW220393   1.602  14.686   5.124
72852SOL     OW20394  10.783  10.476   4.762
72852SOL    HW120395  10.845  10.492   4.833
72852SOL    HW220396  10.746  10.390   4.781
72853SOL     OW20397  13.725   6.054  10.903
72853SOL    HW120398  13.754   5.964  10.918
72853SOL    HW220399  13.793   6.093  10.848
72854SOL     OW20400  13.359   7.714   5.311
72854SOL    HW120401  13.420   7.735   5.382
72854SOL    HW220402  13.388   7.629   5.278
72855SOL     OW20403   4.299   6.476   8.692
72855SOL    HW120404   4.387   6.482   8.730
72855SOL    HW220405   4.304   6.530   8.613
72856SOL     OW20406   8.610  11.540  13.440
72856SOL    HW120407   8.589  11.487  13.363
72856SOL    HW220408   8.565  11.496  13.512
72857SOL     OW20409  12.133  10.495  13.942
72857SOL    HW120410  12.095  10.470  13.858
72857SOL    HW220411  12.160  10.412  13.982
72858SOL     OW20412  13.570   6.320  12.055
72858SOL    HW120413  13.615   6.239  12.031
72858SOL    HW220414  13.528   6.349  11.974
72859SOL     OW20415   8.896  11.466   3.391
72859SOL    HW120416   8.817  11.413   3.399
72859SOL    HW220417   8.871  11.552   3.426
72860SOL     OW20418   8.120   4.412   3.921
72860SOL    HW120419   8.069   4.332   3.933
72860SOL    HW220420   8.146   4.438   4.009
72861SOL     OW20421  12.157   1.719   8.884
72861SOL    HW120422  12.205   1.636   8.884
72861SOL    HW220423  12.068   1.695   8.857
72862SOL     OW20424   6.530   2.222   8.583
72862SOL    HW120425   6.515   2.316   8.588
72862SOL    HW220426   6.563   2.207   8.495
72863SOL     OW20427   4.664  13.107   7.747
72863SOL    HW120428   4.681  13.136   7.837
72863SOL    HW220429   4.569  13.109   7.739
72864SOL     OW20430  12.231   8.306   1.621
72864SOL    HW120431  12.171   8.244   1.581
72864SOL    HW220432  12.284   8.339   1.549
72865SOL     OW20433  14.509  10.453   8.867
72865SOL    HW120434  14.573  10.523   8.877
72865SOL    HW220435  14.531  10.389   8.935
72866SOL     OW20436   9.933   8.902   4.403
72866SOL    HW120437   9.891   8.870   4.483
72866SOL    HW220438  10.022   8.867   4.408
72867SOL     OW20439  12.383   6.576  14.440
72867SOL    HW120440  12.362   6.644  14.376
72867SOL    HW220441  12.394   6.497  14.388
72868SOL     OW20442  12.642  13.398   8.447
72868SOL    HW120443  12.650  13.418   8.354
72868SOL    HW220444  12.732  13.393   8.479
72869SOL     OW20445  11.537  13.136  11.181
72869SOL    HW120446  11.484  13.087  11.243
72869SOL    HW220447  11.581  13.203  11.234
72870SOL     OW20448   0.180  14.681  11.197
72870SOL    HW120449   0.270  14.688  11.166
72870SOL    HW220450   0.128  14.672  11.118
72871SOL     OW20451  12.289  13.992   3.715
72871SOL    HW120452  12.341  13.941   3.777
72871SOL    HW220453  12.348  14.009   3.642
72872SOL     OW20454   0.364   0.849   1.118
72872SOL    HW120455   0.310   0.862   1.196
72872SOL    HW220456   0.454   0.856   1.151
72873SOL     OW20457  12.163   6.359   6.530
72873SOL    HW120458  12.220   6.284   6.513
72873SOL    HW220459  12.111   6.370   6.451
72874SOL     OW20460   6.391   9.053   0.874
72874SOL    HW120461   6.411   9.074   0.965
72874SOL    HW220462   6.408   9.134   0.826
72875SOL     OW20463   1.880   7.989  10.547
72875SOL    HW120464   1.936   8.058  10.512
72875SOL    HW220465   1.938   7.915  10.562
72876SOL     OW20466   3.728   6.019   0.211
72876SOL    HW120467   3.707   6.088   0.273
72876SOL    HW220468   3.775   6.064   0.140
72877SOL     OW20469   9.540   3.862  11.615
72877SOL    HW120470   9.574   3.850  11.704
72877SOL    HW220471   9.446   3.844  11.622
72878SOL     OW20472  11.595   4.364   0.699
72878SOL    HW120473  11.630   4.383   0.612
72878SOL    HW220474  11.673   4.359   0.755
72879SOL     OW20475   7.670   4.863   9.751
72879SOL    HW120476   7.739   4.924   9.774
72879SOL    HW220477   7.631   4.838   9.835
72880SOL     OW20478   2.230   2.106   1.116
72880SOL    HW120479   2.155   2.076   1.168
72880SOL    HW220480   2.294   2.136   1.181
72881SOL     OW20481   7.660   4.196   5.486
72881SOL    HW120482   7.575   4.188   5.441
72881SOL    HW220483   7.642   4.170   5.576
72882SOL     OW20484   5.416   7.388   0.075
72882SOL    HW120485   5.496   7.374   0.023
72882SOL    HW220486   5.349   7.410   0.010
72883SOL     OW20487  10.671   0.291   3.165
72883SOL    HW120488  10.662   0.294   3.069
72883SOL    HW220489  10.757   0.327   3.182
72884SOL     OW20490   4.749  13.357   5.309
72884SOL    HW120491   4.672  13.409   5.287
72884SOL    HW220492   4.764  13.302   5.233
72885SOL     OW20493  14.697   6.187  11.505
72885SOL    HW120494  14.742   6.135  11.438
72885SOL    HW220495  14.624   6.228  11.458
72886SOL     OW20496  11.467   8.068   0.599
72886SOL    HW120497  11.372   8.062   0.605
72886SOL    HW220498  11.489   8.026   0.516
72887SOL     OW20499   3.851  11.981   3.294
72887SOL    HW120500   3.853  11.894   3.332
72887SOL    HW220501   3.825  11.967   3.203
72888SOL     OW20502   2.795  13.012   3.547
72888SOL    HW120503   2.793  13.009   3.452
72888SOL    HW220504   2.704  13.018   3.574
72889SOL     OW20505   8.039   1.569   8.986
72889SOL    HW120506   8.133   1.555   8.999
72889SOL    HW220507   8.033   1.657   8.948
72890SOL     OW20508   2.475   1.152   9.885
72890SOL    HW120509   2.516   1.161   9.970
72890SOL    HW220510   2.438   1.238   9.866
72891SOL     OW20511  13.589  11.520  14.019
72891SOL    HW120512  13.595  11.507  13.924
72891SOL    HW220513  13.562  11.434  14.052
72892SOL     OW20514   7.951  14.223  11.213
72892SOL    HW120515   7.866  14.180  11.223
72892SOL    HW220516   7.938  14.310  11.252
72893SOL     OW20517   5.690   7.050   9.416
72893SOL    HW120518   5.652   7.133   9.387
72893SOL    HW220519   5.785   7.065   9.411
72894SOL     OW20520   0.093   3.581  11.214
72894SOL    HW120521   0.073   3.671  11.243
72894SOL    HW220522   0.012   3.533  11.227
72895SOL     OW20523   5.071   6.203  12.607
72895SOL    HW120524   5.131   6.213  12.534
72895SOL    HW220525   5.015   6.281  12.603
72896SOL     OW20526  12.610   5.619   5.201
72896SOL    HW120527  12.522   5.650   5.178
72896SOL    HW220528  12.667   5.694   5.182
72897SOL     OW20529   5.938   1.173   4.972
72897SOL    HW120530   5.967   1.211   5.055
72897SOL    HW220531   5.891   1.094   4.998
72898SOL     OW20532  13.791   4.530  11.880
72898SOL    HW120533  13.746   4.473  11.817
72898SOL    HW220534  13.881   4.536  11.847
72899SOL     OW20535   9.241   7.041   1.708
72899SOL    HW120536   9.299   6.991   1.764
72899SOL    HW220537   9.254   7.004   1.620
72900SOL     OW20538  11.630   8.756   8.905
72900SOL    HW120539  11.684   8.738   8.828
72900SOL    HW220540  11.553   8.700   8.894
72901SOL     OW20541   9.961   1.301   3.469
72901SOL    HW120542   9.922   1.333   3.387
72901SOL    HW220543  10.046   1.266   3.443
72902SOL     OW20544   6.574   4.125  10.023
72902SOL    HW120545   6.659   4.090  10.049
72902SOL    HW220546   6.573   4.118   9.928
72903SOL     OW20547  13.901   5.386   4.651
72903SOL    HW120548  13.851   5.361   4.728
72903SOL    HW220549  13.859   5.467   4.620
72904SOL     OW20550   5.398   7.912   2.205
72904SOL    HW120551   5.368   7.832   2.161
72904SOL    HW220552   5.388   7.893   2.298
72905SOL     OW20553   8.292   8.772  13.148
72905SOL    HW120554   8.335   8.811  13.072
72905SOL    HW220555   8.285   8.679  13.126
72906SOL     OW20556   6.816   9.703   7.040
72906SOL    HW120557   6.820   9.716   6.945
72906SOL    HW220558   6.897   9.657   7.062
72907SOL     OW20559  13.869  12.726  14.871
72907SOL    HW120560  13.845  12.818  14.858
72907SOL    HW220561  13.785  12.679  14.871
72908SOL     OW20562  14.739  11.905   5.077
72908SOL    HW120563  14.706  11.930   5.163
72908SOL    HW220564  14.828  11.874   5.094
72909SOL     OW20565   9.209   6.176   2.242
72909SOL    HW120566   9.129   6.134   2.213
72909SOL    HW220567   9.198   6.268   2.217
72910SOL     OW20568   0.484   8.290  12.993
72910SOL    HW120569   0.558   8.349  12.977
72910SOL    HW220570   0.425   8.304  12.920
72911SOL     OW20571   1.945   0.654   4.584
72911SOL    HW120572   1.936   0.566   4.619
72911SOL    HW220573   1.929   0.644   4.490
72912SOL     OW20574   0.635  14.866   5.266
72912SOL    HW120575   0.657  14.776   5.291
72912SOL    HW220576   0.564   0.017   5.326
72913SOL     OW20577   5.264   9.104   7.945
72913SOL    HW120578   5.330   9.040   7.919
72913SOL    HW220579   5.310   9.161   8.008
72914SOL     OW20580  11.281   1.286  10.709
72914SOL    HW120581  11.220   1.329  10.649
72914SOL    HW220582  11.263   1.325  10.794
72915SOL     OW20583  12.611  12.281  14.660
72915SOL    HW120584  12.535  12.225  14.674
72915SOL    HW220585  12.586  12.338  14.588
72916SOL     OW20586   0.260  10.352   8.954
72916SOL    HW120587   0.167  10.365   8.937
72916SOL    HW220588   0.304  10.420   8.904
72917SOL     OW20589   1.906  13.604   7.445
72917SOL    HW120590   1.894  13.510   7.438
72917SOL    HW220591   1.987  13.622   7.398
72918SOL     OW20592  11.018   5.675   1.535
72918SOL    HW120593  11.090   5.655   1.594
72918SOL    HW220594  11.058   5.677   1.448
72919SOL     OW20595  10.225   8.326  14.068
72919SOL    HW120596  10.283   8.270  14.016
72919SOL    HW220597  10.227   8.411  14.023
72920SOL     OW20598   7.457   5.483  12.693
72920SOL    HW120599   7.412   5.406  12.658
72920SOL    HW220600   7.549   5.456  12.699
72921SOL     OW20601   5.939   7.285  13.982
72921SOL    HW120602   5.982   7.292  13.898
72921SOL    HW220603   5.999   7.326  14.044
72922SOL     OW20604  10.035   9.880   5.240
72922SOL    HW120605   9.981   9.814   5.198
72922SOL    HW220606  10.074   9.836   5.315
72923SOL     OW20607   7.657   6.284   8.418
72923SOL    HW120608   7.645   6.368   8.374
72923SOL    HW220609   7.700   6.306   8.500
72924SOL     OW20610   4.536  13.349  10.822
72924SOL    HW120611   4.598  13.304  10.764
72924SOL    HW220612   4.516  13.286  10.891
72925SOL     OW20613  12.749   7.745  14.700
72925SOL    HW120614  12.823   7.737  14.760
72925SOL    HW220615  12.777   7.808  14.634
72926SOL     OW20616   7.304   6.770  13.566
72926SOL    HW120617   7.243   6.740  13.633
72926SOL    HW220618   7.280   6.862  13.552
72927SOL     OW20619   4.060   6.375   9.325
72927SOL    HW120620   4.033   6.440   9.261
72927SOL    HW220621   3.999   6.385   9.398
72928SOL     OW20622   4.744   1.087   1.791
72928SOL    HW120623   4.827   1.087   1.742
72928SOL    HW220624   4.761   1.029   1.865
72929SOL     OW20625   7.330   1.626   2.360
72929SOL    HW120626   7.257   1.666   2.313
72929SOL    HW220627   7.334   1.674   2.443
72930SOL     OW20628  13.151  10.483   8.450
72930SOL    HW120629  13.064  10.524   8.460
72930SOL    HW220630  13.177  10.462   8.540
72931SOL     OW20631  13.497  14.098   8.572
72931SOL    HW120632  13.437  14.076   8.501
72931SOL    HW220633  13.444  14.096   8.651
72932SOL     OW20634   9.038   1.676   2.378
72932SOL    HW120635   8.979   1.711   2.312
72932SOL    HW220636   9.119   1.655   2.331
72933SOL     OW20637   6.506   6.521  10.481
72933SOL    HW120638   6.442   6.588  10.460
72933SOL    HW220639   6.474   6.481  10.562
72934SOL     OW20640   2.354   0.761   4.819
72934SOL    HW120641   2.396   0.719   4.744
72934SOL    HW220642   2.262   0.769   4.793
72935SOL     OW20643   9.213   7.455   8.298
72935SOL    HW120644   9.137   7.483   8.348
72935SOL    HW220645   9.255   7.536   8.270
72936SOL     OW20646   5.427   8.905  13.004
72936SOL    HW120647   5.408   8.943  13.090
72936SOL    HW220648   5.451   8.814  13.024
72937SOL     OW20649   3.748  11.193  13.243
72937SOL    HW120650   3.825  11.137  13.248
72937SOL    HW220651   3.728  11.215  13.334
72938SOL     OW20652   3.874  10.787   5.926
72938SOL    HW120653   3.791  10.762   5.885
72938SOL    HW220654   3.896  10.871   5.886
72939SOL     OW20655   3.916   2.540   3.594
72939SOL    HW120656   3.877   2.551   3.681
72939SOL    HW220657   3.850   2.492   3.545
72940SOL     OW20658  13.890   7.761   1.605
72940SOL    HW120659  13.916   7.802   1.687
72940SOL    HW220660  13.794   7.765   1.605
72941SOL     OW20661   7.941   3.162   9.936
72941SOL    HW120662   8.035   3.161   9.951
72941SOL    HW220663   7.910   3.078   9.971
72942SOL     OW20664   1.755   8.631   3.208
72942SOL    HW120665   1.746   8.703   3.145
72942SOL    HW220666   1.847   8.630   3.231
72943SOL     OW20667   2.780   6.857   8.681
72943SOL    HW120668   2.687   6.878   8.692
72943SOL    HW220669   2.781   6.777   8.629
72944SOL     OW20670   2.852  12.267   3.193
72944SOL    HW120671   2.867  12.293   3.103
72944SOL    HW220672   2.790  12.331   3.227
72945SOL     OW20673   0.897   1.145  14.694
72945SOL    HW120674   0.854   1.064  14.667
72945SOL    HW220675   0.947   1.122  14.772
72946SOL     OW20676   7.099   4.193   6.779
72946SOL    HW120677   7.047   4.119   6.810
72946SOL    HW220678   7.053   4.270   6.811
72947SOL     OW20679   2.017  14.029   7.276
72947SOL    HW120680   2.016  14.118   7.241
72947SOL    HW220681   1.986  13.974   7.204
72948SOL     OW20682  10.212  13.770   2.907
72948SOL    HW120683  10.269  13.788   2.832
72948SOL    HW220684  10.246  13.689   2.944
72949SOL     OW20685   4.955  13.537   3.463
72949SOL    HW120686   4.900  13.490   3.526
72949SOL    HW220687   5.027  13.571   3.515
72950SOL     OW20688  14.465   8.090   8.871
72950SOL    HW120689  14.490   8.000   8.891
72950SOL    HW220690  14.472   8.135   8.955
72951SOL     OW20691   1.791  11.449   1.173
72951SOL    HW120692   1.858  11.517   1.172
72951SOL    HW220693   1.838  11.368   1.152
72952SOL     OW20694   6.158  14.428   5.885
72952SOL    HW120695   6.219  14.405   5.815
72952SOL    HW220696   6.105  14.499   5.848
72953SOL     OW20697  14.008  13.518  12.653
72953SOL    HW120698  14.092  13.491  12.615
72953SOL    HW220699  14.011  13.614  12.650
72954SOL     OW20700   3.658   7.649   3.730
72954SOL    HW120701   3.668   7.716   3.799
72954SOL    HW220702   3.694   7.569   3.769
72955SOL     OW20703   4.899   2.630  12.343
72955SOL    HW120704   4.841   2.706  12.349
72955SOL    HW220705   4.984   2.662  12.374
72956SOL     OW20706  13.781  12.299   4.181
72956SOL    HW120707  13.863  12.304   4.130
72956SOL    HW220708  13.729  12.373   4.151
72957SOL     OW20709  12.886  13.375   8.213
72957SOL    HW120710  12.964  13.356   8.162
72957SOL    HW220711  12.905  13.459   8.256
72958SOL     OW20712   8.359   1.808  14.590
72958SOL    HW120713   8.280   1.763  14.621
72958SOL    HW220714   8.393   1.750  14.521
72959SOL     OW20715   9.957   6.357   9.905
72959SOL    HW120716   9.909   6.324   9.828
72959SOL    HW220717   9.888   6.377   9.968
72960SOL     OW20718   8.896   1.160  12.459
72960SOL    HW120719   8.901   1.202  12.374
72960SOL    HW220720   8.980   1.177  12.500
72961SOL     OW20721   7.588   7.401   3.260
72961SOL    HW120722   7.582   7.318   3.211
72961SOL    HW220723   7.610   7.374   3.349
72962SOL     OW20724   4.086   7.891  10.522
72962SOL    HW120725   4.069   7.969  10.469
72962SOL    HW220726   4.177   7.900  10.550
72963SOL     OW20727   1.820   9.181   0.525
72963SOL    HW120728   1.899   9.215   0.568
72963SOL    HW220729   1.807   9.095   0.566
72964SOL     OW20730   1.261  12.641   4.419
72964SOL    HW120731   1.269  12.712   4.483
72964SOL    HW220732   1.228  12.567   4.469
72965SOL     OW20733   8.551   0.792   2.764
72965SOL    HW120734   8.577   0.760   2.851
72965SOL    HW220735   8.563   0.887   2.769
72966SOL     OW20736   2.360   7.456   3.782
72966SOL    HW120737   2.362   7.513   3.859
72966SOL    HW220738   2.442   7.476   3.736
72967SOL     OW20739   9.387  10.974  11.366
72967SOL    HW120740   9.481  10.983  11.349
72967SOL    HW220741   9.363  11.054  11.413
72968SOL     OW20742   2.551  10.113   5.064
72968SOL    HW120743   2.522  10.025   5.089
72968SOL    HW220744   2.635  10.099   5.021
72969SOL     OW20745   8.536  12.031   4.876
72969SOL    HW120746   8.496  12.086   4.944
72969SOL    HW220747   8.545  12.090   4.801
72970SOL     OW20748  13.562  11.960  12.147
72970SOL    HW120749  13.542  11.868  12.133
72970SOL    HW220750  13.656  11.962  12.164
72971SOL     OW20751   4.581  13.892  12.443
72971SOL    HW120752   4.509  13.951  12.420
72971SOL    HW220753   4.659  13.948  12.442
72972SOL     OW20754  12.607  13.732   6.506
72972SOL    HW120755  12.680  13.672   6.492
72972SOL    HW220756  12.640  13.817   6.475
72973SOL     OW20757   7.639   6.722   7.415
72973SOL    HW120758   7.628   6.691   7.325
72973SOL    HW220759   7.550   6.730   7.449
72974SOL     OW20760   3.631   6.888   2.107
72974SOL    HW120761   3.717   6.856   2.137
72974SOL    HW220762   3.580   6.899   2.187
72975SOL     OW20763   6.804   3.598  14.282
72975SOL    HW120764   6.811   3.537  14.208
72975SOL    HW220765   6.731   3.564  14.334
72976SOL     OW20766   4.831  11.114  13.728
72976SOL    HW120767   4.820  11.107  13.823
72976SOL    HW220768   4.829  11.024  13.696
72977SOL     OW20769   5.033   0.803   3.089
72977SOL    HW120770   5.020   0.749   3.011
72977SOL    HW220771   4.979   0.762   3.156
72978SOL     OW20772  12.097   3.062   4.870
72978SOL    HW120773  12.045   3.021   4.801
72978SOL    HW220774  12.052   3.144   4.888
72979SOL     OW20775  13.622  13.862   7.656
72979SOL    HW120776  13.655  13.832   7.572
72979SOL    HW220777  13.700  13.893   7.703
72980SOL     OW20778   6.990  12.833   5.811
72980SOL    HW120779   6.975  12.855   5.902
72980SOL    HW220780   7.043  12.753   5.814
72981SOL     OW20781  14.021   6.064   4.516
72981SOL    HW120782  14.012   6.098   4.428
72981SOL    HW220783  14.039   6.140   4.571
72982SOL     OW20784   4.990   8.948  12.718
72982SOL    HW120785   4.927   8.879  12.698
72982SOL    HW220786   5.068   8.902  12.748
72983SOL     OW20787  10.568   2.833   8.367
72983SOL    HW120788  10.616   2.897   8.315
72983SOL    HW220789  10.635   2.792   8.422
72984SOL     OW20790   1.746  13.510   3.008
72984SOL    HW120791   1.741  13.416   2.995
72984SOL    HW220792   1.840  13.530   3.005
72985SOL     OW20793   3.279   2.128   8.548
72985SOL    HW120794   3.288   2.064   8.619
72985SOL    HW220795   3.184   2.139   8.538
72986SOL     OW20796   2.470  10.244   2.249
72986SOL    HW120797   2.398  10.196   2.208
72986SOL    HW220798   2.541  10.179   2.255
72987SOL     OW20799  12.662   2.280   3.344
72987SOL    HW120800  12.725   2.299   3.413
72987SOL    HW220801  12.657   2.185   3.340
72988SOL     OW20802  14.096   7.736   4.785
72988SOL    HW120803  14.168   7.693   4.830
72988SOL    HW220804  14.041   7.665   4.751
72989SOL     OW20805   8.759   9.103   8.055
72989SOL    HW120806   8.703   9.036   8.016
72989SOL    HW220807   8.699   9.157   8.106
72990SOL     OW20808   6.584  11.998   0.168
72990SOL    HW120809   6.630  11.915   0.160
72990SOL    HW220810   6.514  11.993   0.103
72991SOL     OW20811  13.415   8.413  11.276
72991SOL    HW120812  13.430   8.437  11.367
72991SOL    HW220813  13.319   8.414  11.267
72992SOL     OW20814  11.427   5.445   0.175
72992SOL    HW120815  11.512   5.449   0.132
72992SOL    HW220816  11.387   5.530   0.158
72993SOL     OW20817   3.946  12.835  11.697
72993SOL    HW120818   4.021  12.890  11.716
72993SOL    HW220819   3.912  12.868  11.614
72994SOL     OW20820  12.763  10.902   6.188
72994SOL    HW120821  12.695  10.853   6.141
72994SOL    HW220822  12.790  10.844   6.258
72995SOL     OW20823   0.117  14.680   9.654
72995SOL    HW120824   0.207  14.665   9.625
72995SOL    HW220825   0.116  14.770   9.685
72996SOL     OW20826  10.617   5.317   0.783
72996SOL    HW120827  10.561   5.383   0.741
72996SOL    HW220828  10.579   5.233   0.755
72997SOL     OW20829   8.046  13.430   6.878
72997SOL    HW120830   8.135  13.416   6.844
72997SOL    HW220831   7.989  13.412   6.804
72998SOL     OW20832  14.176   5.320   6.781
72998SOL    HW120833  14.088   5.357   6.787
72998SOL    HW220834  14.230   5.392   6.749
72999SOL     OW20835   0.182   3.215  11.285
72999SOL    HW120836   0.235   3.140  11.257
72999SOL    HW220837   0.209   3.286  11.227
73000SOL     OW20838  10.901   7.699   2.858
73000SOL    HW120839  10.846   7.722   2.783
73000SOL    HW220840  10.927   7.783   2.896
73001SOL     OW20841  14.300  10.657   9.085
73001SOL    HW120842  14.339  10.744   9.074
73001SOL    HW220843  14.353  10.615   9.153
73002SOL     OW20844  13.518   6.875   9.275
73002SOL    HW120845  13.424   6.875   9.292
73002SOL    HW220846  13.544   6.967   9.283
73003SOL     OW20847   3.974   7.788   1.704
73003SOL    HW120848   3.959   7.874   1.743
73003SOL    HW220849   3.895   7.771   1.652
73004SOL     OW20850   0.889   6.241   2.376
73004SOL    HW120851   0.836   6.205   2.447
73004SOL    HW220852   0.937   6.165   2.342
73005SOL     OW20853  13.544   4.675  14.217
73005SOL    HW120854  13.571   4.739  14.151
73005SOL    HW220855  13.603   4.601  14.204
73006SOL     OW20856   2.214   9.048   0.380
73006SOL    HW120857   2.306   9.020   0.383
73006SOL    HW220858   2.177   9.020   0.463
73007SOL     OW20859  14.490  13.752   5.616
73007SOL    HW120860  14.493  13.670   5.664
73007SOL    HW220861  14.506  13.820   5.682
73008SOL     OW20862   0.139   1.614   9.179
73008SOL    HW120863   0.156   1.556   9.105
73008SOL    HW220864   0.127   1.556   9.253
73009SOL     OW20865   5.499  14.147   7.640
73009SOL    HW120866   5.499  14.211   7.711
73009SOL    HW220867   5.543  14.070   7.677
73010SOL     OW20868  13.389  14.364   4.564
73010SOL    HW120869  13.470  14.314   4.553
73010SOL    HW220870  13.334  14.308   4.620
73011SOL     OW20871   7.489  14.430   1.396
73011SOL    HW120872   7.514  14.497   1.332
73011SOL    HW220873   7.520  14.465   1.480
73012SOL     OW20874   8.764  11.064  14.216
73012SOL    HW120875   8.834  11.017  14.170
73012SOL    HW220876   8.727  10.999  14.275
73013SOL     OW20877   2.742   7.056   7.884
73013SOL    HW120878   2.782   7.139   7.861
73013SOL    HW220879   2.654   7.061   7.846
73014SOL     OW20880   5.448   3.564  13.402
73014SOL    HW120881   5.529   3.613  13.417
73014SOL    HW220882   5.433   3.518  13.485
73015SOL     OW20883  13.562  14.057  13.510
73015SOL    HW120884  13.584  14.147  13.533
73015SOL    HW220885  13.645  14.018  13.484
73016SOL     OW20886  14.704   3.201   2.665
73016SOL    HW120887  14.678   3.114   2.634
73016SOL    HW220888  14.726   3.188   2.757
73017SOL     OW20889   1.454  11.864   7.193
73017SOL    HW120890   1.506  11.934   7.153
73017SOL    HW220891   1.393  11.910   7.250
73018SOL     OW20892   5.760   8.038   0.033
73018SOL    HW120893   5.800   8.015  14.822
73018SOL    HW220894   5.787   7.968   0.092
73019SOL     OW20895   8.899   3.516  10.378
73019SOL    HW120896   8.813   3.474  10.382
73019SOL    HW220897   8.931   3.515  10.468
73020SOL     OW20898   8.119   3.747   0.509
73020SOL    HW120899   8.044   3.800   0.483
73020SOL    HW220900   8.184   3.763   0.440
73021SOL     OW20901   7.999   2.958   3.923
73021SOL    HW120902   7.961   2.895   3.984
73021SOL    HW220903   8.069   3.000   3.972
73022SOL     OW20904   1.243   8.320   2.544
73022SOL    HW120905   1.216   8.285   2.458
73022SOL    HW220906   1.214   8.411   2.543
73023SOL     OW20907   6.411  13.431  11.651
73023SOL    HW120908   6.473  13.363  11.621
73023SOL    HW220909   6.327  13.387  11.653
73024SOL     OW20910   0.403  14.586   1.665
73024SOL    HW120911   0.483  14.595   1.718
73024SOL    HW220912   0.433  14.544   1.584
73025SOL     OW20913  13.953  12.439   2.830
73025SOL    HW120914  13.959  12.496   2.907
73025SOL    HW220915  14.011  12.366   2.850
73026SOL     OW20916  11.628   0.933  12.069
73026SOL    HW120917  11.623   0.957  12.161
73026SOL    HW220918  11.580   0.850  12.063
73027SOL     OW20919   5.626  11.776   5.773
73027SOL    HW120920   5.592  11.723   5.845
73027SOL    HW220921   5.552  11.830   5.746
73028SOL     OW20922   1.957   6.435   2.354
73028SOL    HW120923   1.970   6.443   2.449
73028SOL    HW220924   1.867   6.462   2.340
73029SOL     OW20925   7.493   2.560   9.745
73029SOL    HW120926   7.457   2.638   9.786
73029SOL    HW220927   7.419   2.500   9.738
73030SOL     OW20928   2.572   2.418   7.147
73030SOL    HW120929   2.658   2.376   7.145
73030SOL    HW220930   2.521   2.371   7.081
73031SOL     OW20931   6.059   9.456   9.583
73031SOL    HW120932   6.071   9.546   9.613
73031SOL    HW220933   6.027   9.409   9.660
73032SOL     OW20934   7.619  12.685   0.509
73032SOL    HW120935   7.531  12.713   0.484
73032SOL    HW220936   7.632  12.721   0.597
73033SOL     OW20937  10.365  10.178   9.517
73033SOL    HW120938  10.314  10.142   9.444
73033SOL    HW220939  10.373  10.105   9.579
73034SOL     OW20940  14.324   1.096  13.960
73034SOL    HW120941  14.353   1.187  13.971
73034SOL    HW220942  14.383   1.060  13.894
73035SOL     OW20943   5.151   7.353  12.025
73035SOL    HW120944   5.211   7.321  11.957
73035SOL    HW220945   5.175   7.303  12.103
73036SOL     OW20946   2.435   5.340   9.990
73036SOL    HW120947   2.350   5.297   9.984
73036SOL    HW220948   2.439   5.397   9.914
73037SOL     OW20949   8.616   6.126  13.533
73037SOL    HW120950   8.545   6.114  13.471
73037SOL    HW220951   8.624   6.041  13.577
73038SOL     OW20952   5.888  10.478   4.449
73038SOL    HW120953   5.959  10.440   4.396
73038SOL    HW220954   5.912  10.571   4.457
73039SOL     OW20955   7.786   8.619   0.165
73039SOL    HW120956   7.811   8.660   0.082
73039SOL    HW220957   7.756   8.531   0.140
73040SOL     OW20958  10.520   5.702   6.860
73040SOL    HW120959  10.451   5.673   6.800
73040SOL    HW220960  10.538   5.793   6.834
73041SOL     OW20961   0.874   2.990   0.973
73041SOL    HW120962   0.952   3.026   1.015
73041SOL    HW220963   0.802   3.015   1.031
73042SOL     OW20964  14.675  12.967  11.231
73042SOL    HW120965  14.629  12.924  11.304
73042SOL    HW220966  14.609  13.021  11.189
73043SOL     OW20967   5.821  13.905   1.340
73043SOL    HW120968   5.833  13.811   1.324
73043SOL    HW220969   5.910  13.940   1.340
73044SOL     OW20970   0.188  11.908   1.028
73044SOL    HW120971   0.212  11.824   1.067
73044SOL    HW220972   0.244  11.972   1.073
73045SOL     OW20973   0.530   6.429   1.878
73045SOL    HW120974   0.531   6.457   1.787
73045SOL    HW220975   0.622   6.422   1.903
73046SOL     OW20976  12.261  11.759   0.488
73046SOL    HW120977  12.200  11.800   0.550
73046SOL    HW220978  12.248  11.808   0.407
73047SOL     OW20979   0.460   0.651  12.422
73047SOL    HW120980   0.417   0.736  12.433
73047SOL    HW220981   0.391   0.587  12.440
73048SOL     OW20982   3.970   9.753  12.191
73048SOL    HW120983   3.938   9.840  12.215
73048SOL    HW220984   3.898   9.694  12.211
73049SOL     OW20985   7.129   9.499  14.719
73049SOL    HW120986   7.208   9.502  14.774
73049SOL    HW220987   7.063   9.546  14.770
73050SOL     OW20988   8.233  10.331   3.620
73050SOL    HW120989   8.273  10.395   3.679
73050SOL    HW220990   8.245  10.247   3.664
73051SOL     OW20991   3.077   9.690   0.700
73051SOL    HW120992   3.092   9.662   0.610
73051SOL    HW220993   3.111   9.618   0.754
73052SOL     OW20994   8.596   7.358  13.274
73052SOL    HW120995   8.690   7.369  13.258
73052SOL    HW220996   8.574   7.428  13.335
73053SOL     OW20997  13.272   0.546   4.707
73053SOL    HW120998  13.289   0.484   4.636
73053SOL    HW220999  13.200   0.600   4.675
73054SOL     OW21000   4.736   1.055   8.160
73054SOL    HW121001   4.710   0.992   8.093
73054SOL    HW221002   4.724   1.008   8.243
73055SOL     OW21003  13.375   5.222  11.341
73055SOL    HW121004  13.400   5.259  11.425
73055SOL    HW221005  13.443   5.250  11.280
73056SOL     OW21006  14.108  10.286   8.915
73056SOL    HW121007  14.114  10.333   8.832
73056SOL    HW221008  14.078  10.351   8.978
73057SOL     OW21009   9.739   1.100   1.488
73057SOL    HW121010   9.669   1.034   1.493
73057SOL    HW221011   9.809   1.064   1.543
73058SOL     OW21012   3.555   0.005   7.393
73058SOL    HW121013   3.599   0.005   7.308
73058SOL    HW221014   3.520  14.790   7.403
73059SOL     OW21015  11.250  12.465   0.377
73059SOL    HW121016  11.328  12.417   0.404
73059SOL    HW221017  11.181  12.400   0.373
73060SOL     OW21018  14.664   5.498  12.636
73060SOL    HW121019  14.613   5.487  12.555
73060SOL    HW221020  14.675   5.409  12.669
73061SOL     OW21021   6.607   1.492  11.927
73061SOL    HW121022   6.642   1.477  12.015
73061SOL    HW221023   6.676   1.539  11.881
73062SOL     OW21024   5.713  13.194   1.619
73062SOL    HW121025   5.678  13.193   1.708
73062SOL    HW221026   5.636  13.187   1.563
73063SOL     OW21027  10.599   0.879  11.905
73063SOL    HW121028  10.605   0.974  11.903
73063SOL    HW221029  10.612   0.855  11.997
73064SOL     OW21030   1.454   6.231   6.908
73064SOL    HW121031   1.457   6.291   6.982
73064SOL    HW221032   1.522   6.166   6.925
73065SOL     OW21033   9.173  12.608   5.110
73065SOL    HW121034   9.262  12.573   5.109
73065SOL    HW221035   9.153  12.621   5.202
73066SOL     OW21036  11.175   5.101   1.217
73066SOL    HW121037  11.238   5.096   1.289
73066SOL    HW221038  11.211   5.168   1.159
73067SOL     OW21039   4.920   2.237   6.471
73067SOL    HW121040   4.955   2.188   6.545
73067SOL    HW221041   4.950   2.189   6.394
73068SOL     OW21042   8.381   5.270  12.071
73068SOL    HW121043   8.353   5.355  12.037
73068SOL    HW221044   8.326   5.207  12.026
73069SOL     OW21045   6.393   0.175   0.323
73069SOL    HW121046   6.483   0.193   0.348
73069SOL    HW221047   6.386   0.205   0.233
73070SOL     OW21048  11.300   7.143  12.968
73070SOL    HW121049  11.330   7.053  12.951
73070SOL    HW221050  11.354   7.197  12.911
73071SOL     OW21051   3.523   7.827  11.885
73071SOL    HW121052   3.510   7.749  11.832
73071SOL    HW221053   3.439   7.840  11.929
73072SOL     OW21054   5.391   0.488   6.948
73072SOL    HW121055   5.451   0.425   6.989
73072SOL    HW221056   5.441   0.525   6.876
73073SOL     OW21057   2.859   9.824  10.999
73073SOL    HW121058   2.869   9.736  11.034
73073SOL    HW221059   2.793   9.815  10.930
73074SOL     OW21060   6.848   8.624   7.250
73074SOL    HW121061   6.910   8.646   7.319
73074SOL    HW221062   6.842   8.703   7.197
73075SOL     OW21063   9.726   1.202   9.875
73075SOL    HW121064   9.705   1.227   9.964
73075SOL    HW221065   9.733   1.107   9.877
73076SOL     OW21066   3.609   4.653   7.531
73076SOL    HW121067   3.698   4.679   7.553
73076SOL    HW221068   3.553   4.714   7.578
73077SOL     OW21069   3.728   5.246   2.803
73077SOL    HW121070   3.756   5.174   2.860
73077SOL    HW221071   3.688   5.310   2.863
73078SOL     OW21072   1.668  11.563  11.109
73078SOL    HW121073   1.597  11.558  11.045
73078SOL    HW221074   1.633  11.524  11.189
73079SOL     OW21075   2.837   1.252   9.169
73079SOL    HW121076   2.918   1.296   9.192
73079SOL    HW221077   2.847   1.163   9.205
73080SOL     OW21078   7.583  14.291   4.943
73080SOL    HW121079   7.655  14.299   4.881
73080SOL    HW221080   7.548  14.203   4.930
73081SOL     OW21081  13.563  11.667   1.875
73081SOL    HW121082  13.643  11.717   1.891
73081SOL    HW221083  13.497  11.709   1.931
73082SOL     OW21084  13.719   0.760  12.870
73082SOL    HW121085  13.712   0.665  12.857
73082SOL    HW221086  13.642   0.783  12.921
73083SOL     OW21087  14.517   8.083   1.190
73083SOL    HW121088  14.434   8.068   1.144
73083SOL    HW221089  14.499   8.157   1.247
73084SOL     OW21090   0.598  14.830   9.609
73084SOL    HW121091   0.650   0.017   9.661
73084SOL    HW221092   0.650  14.815   9.530
73085SOL     OW21093  11.351   2.009   3.172
73085SOL    HW121094  11.316   1.992   3.085
73085SOL    HW221095  11.317   1.938   3.226
73086SOL     OW21096  10.219   1.853  10.432
73086SOL    HW121097  10.223   1.835  10.526
73086SOL    HW221098  10.308   1.836  10.400
73087SOL     OW21099  11.556  12.431  12.202
73087SOL    HW121100  11.474  12.455  12.246
73087SOL    HW221101  11.529  12.409  12.112
73088SOL     OW21102  11.837   9.983  11.173
73088SOL    HW121103  11.903   9.957  11.238
73088SOL    HW221104  11.881  10.045  11.117
73089SOL     OW21105   7.784   4.328  13.284
73089SOL    HW121106   7.717   4.369  13.338
73089SOL    HW221107   7.808   4.394  13.220
73090SOL     OW21108   4.061   8.764  12.324
73090SOL    HW121109   3.987   8.760  12.385
73090SOL    HW221110   4.129   8.812  12.373
73091SOL     OW21111   0.788   6.439   3.451
73091SOL    HW121112   0.711   6.382   3.443
73091SOL    HW221113   0.857   6.391   3.405
73092SOL     OW21114   9.557   1.265  14.617
73092SOL    HW121115   9.519   1.292  14.701
73092SOL    HW221116   9.483   1.228  14.568
73093SOL     OW21117   0.832  10.993   7.699
73093SOL    HW121118   0.846  10.924   7.763
73093SOL    HW221119   0.737  11.001   7.691
73094SOL     OW21120   0.505  11.159  13.205
73094SOL    HW121121   0.451  11.238  13.206
73094SOL    HW221122   0.445  11.089  13.228
73095SOL     OW21123  12.724   4.763   8.149
73095SOL    HW121124  12.714   4.856   8.168
73095SOL    HW221125  12.774   4.760   8.067
73096SOL     OW21126   2.649   2.741  13.759
73096SOL    HW121127   2.606   2.820  13.727
73096SOL    HW221128   2.718   2.723  13.694
73097SOL     OW21129   0.271   5.257   6.674
73097SOL    HW121130   0.340   5.289   6.615
73097SOL    HW221131   0.191   5.299   6.642
73098SOL     OW21132   9.117   1.025   2.252
73098SOL    HW121133   9.143   1.000   2.341
73098SOL    HW221134   9.180   0.982   2.195
73099SOL     OW21135  13.405   9.610   8.953
73099SOL    HW121136  13.458   9.531   8.948
73099SOL    HW221137  13.326   9.584   9.000
73100SOL     OW21138   6.132   4.447  12.527
73100SOL    HW121139   6.104   4.479  12.442
73100SOL    HW221140   6.146   4.526  12.579
73101SOL     OW21141  12.815   6.307   3.647
73101SOL    HW121142  12.853   6.246   3.711
73101SOL    HW221143  12.884   6.372   3.633
73102SOL     OW21144   9.837  11.324  11.398
73102SOL    HW121145   9.805  11.239  11.426
73102SOL    HW221146   9.933  11.314  11.395
73103SOL     OW21147   1.051   2.092  11.690
73103SOL    HW121148   1.037   2.049  11.775
73103SOL    HW221149   0.979   2.154  11.682
73104SOL     OW21150  10.159   9.868   0.145
73104SOL    HW121151  10.173   9.791   0.090
73104SOL    HW221152  10.181   9.942   0.088
73105SOL     OW21153   9.067   9.206   3.436
73105SOL    HW121154   9.053   9.275   3.501
73105SOL    HW221155   9.060   9.251   3.352
73106SOL     OW21156   8.500  11.058  14.709
73106SOL    HW121157   8.593  11.073  14.727
73106SOL    HW221158   8.496  10.970  14.673
73107SOL     OW21159   8.410   3.716   1.526
73107SOL    HW121160   8.377   3.750   1.443
73107SOL    HW221161   8.387   3.623   1.525
73108SOL     OW21162  14.022   9.569  10.032
73108SOL    HW121163  14.010   9.619  10.112
73108SOL    HW221164  14.112   9.588  10.005
73109SOL     OW21165   8.855   9.396  10.478
73109SOL    HW121166   8.858   9.360  10.567
73109SOL    HW221167   8.810   9.329  10.427
73110SOL     OW21168  10.029   3.885  10.872
73110SOL    HW121169   9.948   3.857  10.915
73110SOL    HW221170  10.002   3.955  10.813
73111SOL     OW21171   9.557  10.519   2.282
73111SOL    HW121172   9.489  10.563   2.232
73111SOL    HW221173   9.594  10.587   2.338
73112SOL     OW21174   0.650  11.723   6.701
73112SOL    HW121175   0.741  11.737   6.727
73112SOL    HW221176   0.606  11.695   6.781
73113SOL     OW21177   0.685  14.154  11.764
73113SOL    HW121178   0.719  14.231  11.720
73113SOL    HW221179   0.725  14.157  11.852
73114SOL     OW21180   2.819   2.591  10.665
73114SOL    HW121181   2.899   2.611  10.714
73114SOL    HW221182   2.789   2.676  10.633
73115SOL     OW21183  14.342   4.898   6.724
73115SOL    HW121184  14.328   4.819   6.672
73115SOL    HW221185  14.284   4.964   6.684
73116SOL     OW21186   7.578   1.797   3.359
73116SOL    HW121187   7.539   1.825   3.277
73116SOL    HW221188   7.520   1.833   3.427
73117SOL     OW21189   4.787   5.697   1.751
73117SOL    HW121190   4.772   5.691   1.657
73117SOL    HW221191   4.759   5.786   1.774
73118SOL     OW21192  10.957  14.025  13.736
73118SOL    HW121193  11.037  14.067  13.767
73118SOL    HW221194  10.988  13.947  13.689
73119SOL     OW21195   2.227  11.437   9.285
73119SOL    HW121196   2.184  11.478   9.210
73119SOL    HW221197   2.302  11.494   9.305
73120SOL     OW21198  10.527   1.304   3.102
73120SOL    HW121199  10.467   1.239   3.139
73120SOL    HW221200  10.476   1.347   3.034
73121SOL     OW21201   2.474   2.016   2.251
73121SOL    HW121202   2.398   1.969   2.215
73121SOL    HW221203   2.497   1.967   2.330
73122SOL     OW21204  13.148   3.777   9.672
73122SOL    HW121205  13.177   3.686   9.669
73122SOL    HW221206  13.141   3.803   9.580
73123SOL     OW21207   2.521   6.933  10.872
73123SOL    HW121208   2.561   6.862  10.923
73123SOL    HW221209   2.432   6.939  10.906
73124SOL     OW21210   7.846   7.384  11.461
73124SOL    HW121211   7.874   7.467  11.499
73124SOL    HW221212   7.755   7.374  11.490
73125SOL     OW21213   7.617  10.974  10.881
73125SOL    HW121214   7.681  11.038  10.913
73125SOL    HW221215   7.668  10.894  10.870
73126SOL     OW21216   1.544  11.437   9.883
73126SOL    HW121217   1.565  11.391   9.964
73126SOL    HW221218   1.562  11.529   9.902
73127SOL     OW21219   6.357   9.440  14.125
73127SOL    HW121220   6.416   9.444  14.200
73127SOL    HW221221   6.375   9.519  14.075
73128SOL     OW21222   5.290   0.374   5.617
73128SOL    HW121223   5.295   0.468   5.595
73128SOL    HW221224   5.378   0.351   5.644
73129SOL     OW21225   2.797  11.059   2.531
73129SOL    HW121226   2.721  11.044   2.475
73129SOL    HW221227   2.867  11.086   2.471
73130SOL     OW21228   4.888   3.400  11.039
73130SOL    HW121229   4.814   3.460  11.041
73130SOL    HW221230   4.930   3.411  11.124
73131SOL     OW21231   4.133  10.402   3.677
73131SOL    HW121232   4.059  10.449   3.638
73131SOL    HW221233   4.095  10.354   3.750
73132SOL     OW21234   6.475   8.291  10.660
73132SOL    HW121235   6.454   8.383  10.671
73132SOL    HW221236   6.405   8.244  10.705
73133SOL     OW21237   9.356   1.759   9.285
73133SOL    HW121238   9.319   1.842   9.316
73133SOL    HW221239   9.439   1.783   9.246
73134SOL     OW21240   8.611   7.491  14.259
73134SOL    HW121241   8.530   7.538  14.237
73134SOL    HW221242   8.617   7.497  14.355
73135SOL     OW21243   4.379  10.949   9.377
73135SOL    HW121244   4.386  11.045   9.377
73135SOL    HW221245   4.301  10.932   9.323
73136SOL     OW21246  10.490   6.562  14.257
73136SOL    HW121247  10.580   6.590  14.271
73136SOL    HW221248  10.445   6.640  14.225
73137SOL     OW21249   0.952   3.248   1.353
73137SOL    HW121250   0.940   3.197   1.433
73137SOL    HW221251   1.047   3.255   1.344
73138SOL     OW21252  14.023   5.150  12.888
73138SOL    HW121253  14.067   5.222  12.934
73138SOL    HW221254  13.936   5.146  12.928
73139SOL     OW21255   2.748   0.970   8.160
73139SOL    HW121256   2.686   0.910   8.119
73139SOL    HW221257   2.746   0.946   8.253
73140SOL     OW21258   7.994   2.649   7.812
73140SOL    HW121259   8.034   2.694   7.738
73140SOL    HW221260   7.907   2.625   7.781
73141SOL     OW21261   1.858   1.177  10.908
73141SOL    HW121262   1.816   1.258  10.936
73141SOL    HW221263   1.812   1.108  10.957
73142SOL     OW21264   4.270   7.353   8.815
73142SOL    HW121265   4.217   7.373   8.892
73142SOL    HW221266   4.245   7.264   8.792
73143SOL     OW21267   0.671   7.281   9.170
73143SOL    HW121268   0.765   7.268   9.157
73143SOL    HW221269   0.661   7.376   9.170
73144SOL     OW21270  14.455   4.917   7.383
73144SOL    HW121271  14.447   4.964   7.466
73144SOL    HW221272  14.514   4.845   7.402
73145SOL     OW21273   3.376  14.669   9.324
73145SOL    HW121274   3.327  14.586   9.317
73145SOL    HW221275   3.412  14.668   9.412
73146SOL     OW21276  14.494   3.351   5.176
73146SOL    HW121277  14.405   3.325   5.199
73146SOL    HW221278  14.482   3.434   5.128
73147SOL     OW21279   9.188   4.514   4.414
73147SOL    HW121280   9.132   4.505   4.337
73147SOL    HW221281   9.251   4.582   4.391
73148SOL     OW21282   2.215  10.223   2.432
73148SOL    HW121283   2.212  10.129   2.418
73148SOL    HW221284   2.212  10.234   2.527
73149SOL     OW21285   1.987  11.837  12.544
73149SOL    HW121286   2.057  11.826  12.609
73149SOL    HW221287   1.987  11.754  12.496
73150SOL     OW21288   8.960  10.733   9.434
73150SOL    HW121289   8.973  10.803   9.498
73150SOL    HW221290   9.023  10.753   9.364
73151SOL     OW21291  14.148   4.682   8.015
73151SOL    HW121292  14.129   4.770   7.983
73151SOL    HW221293  14.165   4.694   8.108
73152SOL     OW21294  10.502   8.994  11.734
73152SOL    HW121295  10.583   9.021  11.692
73152SOL    HW221296  10.530   8.948  11.813
73153SOL     OW21297   3.707   2.873   7.411
73153SOL    HW121298   3.734   2.895   7.321
73153SOL    HW221299   3.644   2.941   7.434
73154SOL     OW21300  13.803   3.711  14.540
73154SOL    HW121301  13.862   3.772  14.496
73154SOL    HW221302  13.723   3.760  14.554
73155SOL     OW21303  12.250   2.313   6.943
73155SOL    HW121304  12.326   2.370   6.950
73155SOL    HW221305  12.282   2.228   6.973
73156SOL     OW21306   8.161   6.892   5.407
73156SOL    HW121307   8.187   6.820   5.464
73156SOL    HW221308   8.075   6.866   5.373
73157SOL     OW21309   7.500   9.337   0.955
73157SOL    HW121310   7.525   9.391   0.880
73157SOL    HW221311   7.520   9.391   1.031
73158SOL     OW21312   1.176  12.233  12.854
73158SOL    HW121313   1.092  12.277  12.842
73158SOL    HW221314   1.233  12.300  12.893
73159SOL     OW21315   8.182  13.612  13.680
73159SOL    HW121316   8.225  13.536  13.640
73159SOL    HW221317   8.224  13.688  13.639
73160SOL     OW21318  13.071   0.642  14.292
73160SOL    HW121319  13.041   0.588  14.218
73160SOL    HW221320  13.138   0.699  14.254
73161SOL     OW21321   8.173  10.907   1.879
73161SOL    HW121322   8.232  10.832   1.891
73161SOL    HW221323   8.122  10.911   1.960
73162SOL     OW21324   2.975  11.212   5.754
73162SOL    HW121325   2.924  11.293   5.751
73162SOL    HW221326   3.061  11.236   5.721
73163SOL     OW21327   2.855   8.272   0.147
73163SOL    HW121328   2.940   8.275   0.192
73163SOL    HW221329   2.794   8.243   0.213
73164SOL     OW21330   4.479   8.430   5.418
73164SOL    HW121331   4.466   8.410   5.511
73164SOL    HW221332   4.483   8.525   5.414
73165SOL     OW21333  13.093   1.746  11.392
73165SOL    HW121334  13.104   1.786  11.306
73165SOL    HW221335  13.147   1.667  11.389
73166SOL     OW21336   7.006   8.918   7.519
73166SOL    HW121337   7.018   8.936   7.612
73166SOL    HW221338   7.015   8.823   7.511
73167SOL     OW21339  12.483   1.868   9.563
73167SOL    HW121340  12.550   1.811   9.601
73167SOL    HW221341  12.512   1.882   9.473
73168SOL     OW21342   8.397   3.120   2.770
73168SOL    HW121343   8.346   3.086   2.844
73168SOL    HW221344   8.450   3.190   2.809
73169SOL     OW21345   1.098  10.326  14.060
73169SOL    HW121346   1.102  10.270  13.983
73169SOL    HW221347   1.157  10.398  14.040
73170SOL     OW21348   8.432  12.639  11.435
73170SOL    HW121349   8.519  12.625  11.473
73170SOL    HW221350   8.449  12.671  11.347
73171SOL     OW21351  13.865   6.395   4.115
73171SOL    HW121352  13.836   6.483   4.092
73171SOL    HW221353  13.866   6.394   4.211
73172SOL     OW21354  11.152   7.273   8.247
73172SOL    HW121355  11.125   7.321   8.326
73172SOL    HW221356  11.120   7.184   8.261
73173SOL     OW21357   9.438   5.559  11.255
73173SOL    HW121358   9.414   5.651  11.245
73173SOL    HW221359   9.525   5.552  11.216
73174SOL     OW21360   9.308   1.628  12.187
73174SOL    HW121361   9.225   1.580  12.180
73174SOL    HW221362   9.375   1.562  12.171
73175SOL     OW21363   5.893  10.029   3.232
73175SOL    HW121364   5.923   9.978   3.308
73175SOL    HW221365   5.973  10.069   3.197
73176SOL     OW21366   8.145  14.451  10.845
73176SOL    HW121367   8.106  14.525  10.890
73176SOL    HW221368   8.182  14.397  10.915
73177SOL     OW21369   0.625   2.955  14.192
73177SOL    HW121370   0.610   3.044  14.226
73177SOL    HW221371   0.609   2.962  14.098
73178SOL     OW21372  12.030  13.245   2.473
73178SOL    HW121373  11.954  13.299   2.451
73178SOL    HW221374  12.068  13.222   2.388
73179SOL     OW21375   9.075   6.883  13.927
73179SOL    HW121376   9.106   6.963  13.887
73179SOL    HW221377   9.034   6.834  13.856
73180SOL     OW21378   0.697  10.302   6.405
73180SOL    HW121379   0.698  10.295   6.310
73180SOL    HW221380   0.745  10.226   6.436
73181SOL     OW21381  11.693   4.586   1.743
73181SOL    HW121382  11.759   4.530   1.701
73181SOL    HW221383  11.655   4.530   1.811
73182SOL     OW21384   5.620   7.404   4.410
73182SOL    HW121385   5.636   7.450   4.492
73182SOL    HW221386   5.652   7.464   4.342
73183SOL     OW21387  13.225   9.843  11.781
73183SOL    HW121388  13.209   9.748  11.779
73183SOL    HW221389  13.240   9.863  11.873
73184SOL     OW21390  10.546  11.452  12.378
73184SOL    HW121391  10.467  11.495  12.411
73184SOL    HW221392  10.564  11.496  12.294
73185SOL     OW21393   2.757   4.652  10.232
73185SOL    HW121394   2.839   4.651  10.182
73185SOL    HW221395   2.713   4.570  10.208
73186SOL     OW21396  14.296   8.688   7.149
73186SOL    HW121397  14.372   8.681   7.090
73186SOL    HW221398  14.297   8.607   7.199
73187SOL     OW21399   3.567   4.637  14.251
73187SOL    HW121400   3.522   4.552  14.254
73187SOL    HW221401   3.525   4.684  14.180
73188SOL     OW21402   9.261   8.020   1.996
73188SOL    HW121403   9.168   8.041   1.994
73188SOL    HW221404   9.303   8.100   2.027
73189SOL     OW21405   1.369   2.643   9.109
73189SOL    HW121406   1.431   2.673   9.043
73189SOL    HW221407   1.404   2.676   9.192
73190SOL     OW21408   3.413  14.473   1.891
73190SOL    HW121409   3.333  14.502   1.936
73190SOL    HW221410   3.389  14.388   1.853
73191SOL     OW21411   2.543   6.459  11.412
73191SOL    HW121412   2.590   6.535  11.447
73191SOL    HW221413   2.561   6.389  11.474
73192SOL     OW21414   4.359   7.043  11.591
73192SOL    HW121415   4.359   6.966  11.533
73192SOL    HW221416   4.360   7.006  11.679
73193SOL     OW21417   7.263   6.669  13.286
73193SOL    HW121418   7.293   6.703  13.370
73193SOL    HW221419   7.272   6.743  13.226
73194SOL     OW21420   6.235   4.060   4.429
73194SOL    HW121421   6.153   4.059   4.479
73194SOL    HW221422   6.215   4.010   4.350
73195SOL     OW21423   9.991  12.845   2.662
73195SOL    HW121424  10.035  12.879   2.741
73195SOL    HW221425   9.993  12.918   2.601
73196SOL     OW21426   0.392  10.065   7.849
73196SOL    HW121427   0.485  10.073   7.831
73196SOL    HW221428   0.388  10.009   7.926
73197SOL     OW21429   5.317   0.226  13.780
73197SOL    HW121430   5.397   0.225  13.833
73197SOL    HW221431   5.271   0.305  13.806
73198SOL     OW21432   0.756   0.170   1.187
73198SOL    HW121433   0.703   0.240   1.148
73198SOL    HW221434   0.845   0.205   1.190
73199SOL     OW21435   1.963   8.975   6.245
73199SOL    HW121436   2.028   9.046   6.243
73199SOL    HW221437   1.885   9.016   6.283
73200SOL     OW21438  11.392  12.907   5.087
73200SOL    HW121439  11.450  12.932   5.015
73200SOL    HW221440  11.382  12.813   5.078
73201SOL     OW21441   1.330  12.522   6.955
73201SOL    HW121442   1.377  12.591   6.908
73201SOL    HW221443   1.264  12.569   7.005
73202SOL     OW21444  13.803   6.796   0.749
73202SOL    HW121445  13.760   6.791   0.835
73202SOL    HW221446  13.793   6.888   0.723
73203SOL     OW21447  12.820   6.678   6.142
73203SOL    HW121448  12.810   6.680   6.237
73203SOL    HW221449  12.874   6.754   6.122
73204SOL     OW21450  11.344   6.858  10.177
73204SOL    HW121451  11.418   6.821  10.224
73204SOL    HW221452  11.357   6.830  10.086
73205SOL     OW21453   1.939   0.310  12.476
73205SOL    HW121454   1.948   0.404  12.491
73205SOL    HW221455   1.845   0.296  12.465
73206SOL     OW21456  11.632   9.156   8.604
73206SOL    HW121457  11.537   9.148   8.606
73206SOL    HW221458  11.657   9.121   8.519
73207SOL     OW21459  10.293  12.737   6.710
73207SOL    HW121460  10.268  12.752   6.801
73207SOL    HW221461  10.388  12.730   6.711
73208SOL     OW21462  11.271   4.460  12.541
73208SOL    HW121463  11.326   4.483  12.465
73208SOL    HW221464  11.193   4.514  12.531
73209SOL     OW21465   6.957  13.829   8.932
73209SOL    HW121466   6.921  13.918   8.927
73209SOL    HW221467   7.049  13.839   8.906
73210SOL     OW21468   8.378   2.712   3.549
73210SOL    HW121469   8.405   2.765   3.623
73210SOL    HW221470   8.306   2.659   3.583
73211SOL     OW21471   6.872   9.201  14.181
73211SOL    HW121472   6.880   9.189  14.087
73211SOL    HW221473   6.802   9.266  14.192
73212SOL     OW21474  11.503   5.027  14.022
73212SOL    HW121475  11.554   4.950  14.047
73212SOL    HW221476  11.417   5.012  14.061
73213SOL     OW21477  10.170  13.120   5.639
73213SOL    HW121478  10.266  13.119   5.643
73213SOL    HW221479  10.144  13.176   5.712
73214SOL     OW21480  13.842   6.649   7.031
73214SOL    HW121481  13.905   6.618   6.965
73214SOL    HW221482  13.880   6.730   7.064
73215SOL     OW21483   5.574   5.876   8.346
73215SOL    HW121484   5.581   5.967   8.374
73215SOL    HW221485   5.652   5.862   8.292
73216SOL     OW21486  10.124   2.796   9.407
73216SOL    HW121487  10.141   2.807   9.314
73216SOL    HW221488  10.115   2.885   9.441
73217SOL     OW21489  12.138  12.470  13.742
73217SOL    HW121490  12.054  12.485  13.699
73217SOL    HW221491  12.145  12.374  13.746
73218SOL     OW21492   6.422   0.864   3.486
73218SOL    HW121493   6.348   0.804   3.496
73218SOL    HW221494   6.451   0.881   3.575
73219SOL     OW21495   6.602   5.040   7.769
73219SOL    HW121496   6.530   5.087   7.726
73219SOL    HW221497   6.576   5.034   7.860
73220SOL     OW21498   2.482   4.078   2.447
73220SOL    HW121499   2.524   4.135   2.382
73220SOL    HW221500   2.421   4.136   2.494
73221SOL     OW21501  11.407  11.401  14.234
73221SOL    HW121502  11.363  11.326  14.195
73221SOL    HW221503  11.370  11.477  14.190
73222SOL     OW21504  10.938  14.694   9.211
73222SOL    HW121505  10.903  14.758   9.272
73222SOL    HW221506  10.865  14.633   9.195
73223SOL     OW21507   0.940   1.621   1.579
73223SOL    HW121508   0.908   1.673   1.505
73223SOL    HW221509   0.942   1.531   1.546
73224SOL     OW21510   4.177   2.961   2.620
73224SOL    HW121511   4.133   2.975   2.537
73224SOL    HW221512   4.194   2.867   2.622
73225SOL     OW21513  14.850   1.000   7.413
73225SOL    HW121514  14.830   0.955   7.332
73225SOL    HW221515  14.772   1.052   7.433
73226SOL     OW21516   3.723   5.582   5.254
73226SOL    HW121517   3.771   5.579   5.337
73226SOL    HW221518   3.724   5.492   5.222
73227SOL     OW21519   6.258   1.557  12.667
73227SOL    HW121520   6.294   1.625  12.609
73227SOL    HW221521   6.232   1.486  12.608
73228SOL     OW21522   3.479   4.799  14.815
73228SOL    HW121523   3.481   4.893  14.797
73228SOL    HW221524   3.571   4.772  14.814
73229SOL     OW21525   3.358   9.667  12.779
73229SOL    HW121526   3.318   9.738  12.730
73229SOL    HW221527   3.312   9.588  12.750
73230SOL     OW21528   5.054  14.528   6.131
73230SOL    HW121529   5.122  14.593   6.148
73230SOL    HW221530   5.099  14.457   6.086
73231SOL     OW21531  11.685  12.344   2.814
73231SOL    HW121532  11.705  12.437   2.814
73231SOL    HW221533  11.764  12.303   2.849
73232SOL     OW21534   8.359   6.570  10.539
73232SOL    HW121535   8.360   6.592  10.632
73232SOL    HW221536   8.322   6.647  10.496
73233SOL     OW21537  11.419   3.632   8.868
73233SOL    HW121538  11.376   3.669   8.791
73233SOL    HW221539  11.510   3.624   8.843
73234SOL     OW21540   8.478   5.966   8.901
73234SOL    HW121541   8.385   5.965   8.924
73234SOL    HW221542   8.496   6.057   8.877
73235SOL     OW21543  12.799  11.149   6.339
73235SOL    HW121544  12.794  11.058   6.309
73235SOL    HW221545  12.709  11.171   6.363
73236SOL     OW21546   3.959  10.287   7.148
73236SOL    HW121547   3.938  10.225   7.218
73236SOL    HW221548   3.875  10.328   7.127
73237SOL     OW21549  14.573  12.244   7.096
73237SOL    HW121550  14.545  12.153   7.088
73237SOL    HW221551  14.576  12.260   7.190
73238SOL     OW21552  14.751   5.555   2.252
73238SOL    HW121553  14.797   5.559   2.335
73238SOL    HW221554  14.804   5.607   2.192
73239SOL     OW21555  13.366   2.892   9.541
73239SOL    HW121556  13.452   2.920   9.570
73239SOL    HW221557  13.380   2.802   9.511
73240SOL     OW21558   4.797  10.470  13.658
73240SOL    HW121559   4.838  10.415  13.592
73240SOL    HW221560   4.840  10.445  13.740
73241SOL     OW21561   3.199   3.782   5.446
73241SOL    HW121562   3.200   3.829   5.362
73241SOL    HW221563   3.125   3.721   5.438
73242SOL     OW21564  14.812  11.466  12.625
73242SOL    HW121565  14.740  11.480  12.563
73242SOL    HW221566  14.770  11.469  12.711
73243SOL     OW21567   4.700   8.546   9.011
73243SOL    HW121568   4.607   8.556   8.991
73243SOL    HW221569   4.706   8.459   9.051
73244SOL     OW21570  12.608   9.271   0.528
73244SOL    HW121571  12.692   9.226   0.535
73244SOL    HW221572  12.585   9.264   0.436
73245SOL     OW21573  13.146   3.037  14.236
73245SOL    HW121574  13.159   3.131  14.253
73245SOL    HW221575  13.145   2.997  14.323
73246SOL     OW21576   6.133   0.283  10.373
73246SOL    HW121577   6.111   0.355  10.314
73246SOL    HW221578   6.162   0.325  10.453
73247SOL     OW21579  12.902   4.998   4.874
73247SOL    HW121580  12.951   5.042   4.944
73247SOL    HW221581  12.811   5.024   4.889
73248SOL     OW21582   4.800  11.514   2.105
73248SOL    HW121583   4.727  11.453   2.110
73248SOL    HW221584   4.854  11.494   2.182
73249SOL     OW21585   8.228   7.683   8.768
73249SOL    HW121586   8.164   7.742   8.729
73249SOL    HW221587   8.301   7.682   8.707
73250SOL     OW21588   6.816  12.290   2.828
73250SOL    HW121589   6.817  12.354   2.899
73250SOL    HW221590   6.890  12.232   2.847
73251SOL     OW21591   6.909   5.733   7.347
73251SOL    HW121592   6.845   5.755   7.279
73251SOL    HW221593   6.860   5.738   7.429
73252SOL     OW21594   1.715   2.075   0.552
73252SOL    HW121595   1.677   2.133   0.618
73252SOL    HW221596   1.805   2.062   0.580
73253SOL     OW21597   8.340   1.801   8.550
73253SOL    HW121598   8.418   1.832   8.504
73253SOL    HW221599   8.333   1.709   8.524
73254SOL     OW21600   8.269  12.762  14.316
73254SOL    HW121601   8.320  12.682  14.305
73254SOL    HW221602   8.229  12.753  14.402
73255SOL     OW21603   5.930  13.209  11.313
73255SOL    HW121604   5.881  13.147  11.258
73255SOL    HW221605   5.870  13.228  11.386
73256SOL     OW21606  12.095   8.895  10.730
73256SOL    HW121607  12.006   8.862  10.730
73256SOL    HW221608  12.086   8.989  10.718
73257SOL     OW21609   8.713   1.601   6.080
73257SOL    HW121610   8.680   1.636   5.997
73257SOL    HW221611   8.683   1.663   6.146
73258SOL     OW21612  12.132   5.173   0.805
73258SOL    HW121613  12.205   5.112   0.801
73258SOL    HW221614  12.122   5.193   0.898
73259SOL     OW21615   0.433   1.805   9.678
73259SOL    HW121616   0.400   1.879   9.729
73259SOL    HW221617   0.528   1.811   9.687
73260SOL     OW21618   0.987  11.107   9.538
73260SOL    HW121619   0.985  11.091   9.444
73260SOL    HW221620   1.079  11.128   9.557
73261SOL     OW21621   3.258   9.721   8.465
73261SOL    HW121622   3.176   9.675   8.448
73261SOL    HW221623   3.263   9.787   8.395
73262SOL     OW21624  13.818   1.075   7.993
73262SOL    HW121625  13.744   1.117   7.949
73262SOL    HW221626  13.895   1.112   7.950
73263SOL     OW21627  13.686  13.920  11.434
73263SOL    HW121628  13.771  13.887  11.462
73263SOL    HW221629  13.632  13.841  11.423
73264SOL     OW21630  10.571   3.020   5.450
73264SOL    HW121631  10.523   3.012   5.532
73264SOL    HW221632  10.591   3.113   5.442
73265SOL     OW21633   2.436   1.368   2.900
73265SOL    HW121634   2.456   1.275   2.893
73265SOL    HW221635   2.441   1.401   2.810
73266SOL     OW21636   9.801   7.323  13.259
73266SOL    HW121637   9.888   7.356  13.237
73266SOL    HW221638   9.791   7.340  13.353
73267SOL     OW21639  11.308   8.062   2.378
73267SOL    HW121640  11.300   8.032   2.287
73267SOL    HW221641  11.227   8.111   2.394
73268SOL     OW21642  13.821  14.555   0.594
73268SOL    HW121643  13.830  14.461   0.608
73268SOL    HW221644  13.900  14.580   0.546
73269SOL     OW21645  11.499   3.336  12.409
73269SOL    HW121646  11.484   3.356  12.317
73269SOL    HW221647  11.489   3.241  12.415
73270SOL     OW21648   3.407  14.713  11.318
73270SOL    HW121649   3.340  14.765  11.275
73270SOL    HW221650   3.425  14.642  11.256
73271SOL     OW21651   3.400   7.460   3.918
73271SOL    HW121652   3.489   7.434   3.943
73271SOL    HW221653   3.353   7.378   3.903
73272SOL     OW21654   2.789  12.746   1.261
73272SOL    HW121655   2.751  12.794   1.334
73272SOL    HW221656   2.882  12.740   1.283
73273SOL     OW21657   6.715  14.822  10.419
73273SOL    HW121658   6.671   0.034  10.427
73273SOL    HW221659   6.783  14.836  10.353
73274SOL     OW21660  12.770   7.076   8.785
73274SOL    HW121661  12.758   7.001   8.842
73274SOL    HW221662  12.735   7.150   8.835
73275SOL     OW21663   9.194   8.369   9.199
73275SOL    HW121664   9.099   8.369   9.197
73275SOL    HW221665   9.218   8.277   9.193
73276SOL     OW21666  14.392   8.350   3.499
73276SOL    HW121667  14.456   8.349   3.428
73276SOL    HW221668  14.322   8.407   3.468
73277SOL     OW21669   5.469  10.397  10.468
73277SOL    HW121670   5.479  10.368  10.559
73277SOL    HW221671   5.516  10.480  10.463
73278SOL     OW21672   0.262   4.525   4.295
73278SOL    HW121673   0.312   4.575   4.230
73278SOL    HW221674   0.209   4.464   4.242
73279SOL     OW21675   9.520   6.178   4.948
73279SOL    HW121676   9.554   6.151   5.033
73279SOL    HW221677   9.447   6.118   4.931
73280SOL     OW21678   8.373   6.989   8.401
73280SOL    HW121679   8.450   6.991   8.344
73280SOL    HW221680   8.408   6.961   8.486
73281SOL     OW21681  12.327  13.954  14.629
73281SOL    HW121682  12.405  13.928  14.580
73281SOL    HW221683  12.321  14.048  14.616
73282SOL     OW21684   1.131   6.611   6.559
73282SOL    HW121685   1.144   6.588   6.651
73282SOL    HW221686   1.155   6.532   6.510
73283SOL     OW21687   2.453   4.500  11.434
73283SOL    HW121688   2.373   4.552  11.450
73283SOL    HW221689   2.512   4.561  11.390
73284SOL     OW21690  11.944  13.857  11.648
73284SOL    HW121691  11.986  13.938  11.619
73284SOL    HW221692  11.851  13.871  11.630
73285SOL     OW21693   3.042   9.757   4.908
73285SOL    HW121694   2.985   9.731   4.836
73285SOL    HW221695   3.124   9.782   4.866
73286SOL     OW21696   2.832  11.591   4.724
73286SOL    HW121697   2.741  11.608   4.746
73286SOL    HW221698   2.836  11.497   4.706
73287SOL     OW21699   5.577  12.443   2.759
73287SOL    HW121700   5.562  12.461   2.666
73287SOL    HW221701   5.645  12.376   2.760
73288SOL     OW21702   5.741  12.481   2.116
73288SOL    HW121703   5.674  12.549   2.115
73288SOL    HW221704   5.802  12.508   2.184
73289SOL     OW21705   2.917  11.040  12.696
73289SOL    HW121706   2.897  10.947  12.707
73289SOL    HW221707   2.935  11.072  12.784
73290SOL     OW21708  14.084  13.429   4.438
73290SOL    HW121709  14.106  13.414   4.530
73290SOL    HW221710  14.129  13.360   4.390
73291SOL     OW21711  12.467   0.604   0.347
73291SOL    HW121712  12.547   0.558   0.375
73291SOL    HW221713  12.411   0.536   0.312
73292SOL     OW21714  13.071  14.771  11.590
73292SOL    HW121715  13.078  14.864  11.615
73292SOL    HW221716  13.006  14.735  11.651
73293SOL     OW21717   6.675  14.518   2.875
73293SOL    HW121718   6.734  14.443   2.865
73293SOL    HW221719   6.687  14.569   2.795
73294SOL     OW21720   1.537  13.806   3.525
73294SOL    HW121721   1.580  13.740   3.580
73294SOL    HW221722   1.607  13.839   3.469
73295SOL     OW21723   7.862   4.895   4.383
73295SOL    HW121724   7.780   4.921   4.426
73295SOL    HW221725   7.891   4.973   4.337
73296SOL     OW21726   9.065  10.135  10.565
73296SOL    HW121727   9.095  10.044  10.568
73296SOL    HW221728   8.980  10.134  10.608
73297SOL     OW21729   4.115  12.176   8.487
73297SOL    HW121730   4.195  12.185   8.434
73297SOL    HW221731   4.146  12.170   8.577
73298SOL     OW21732   7.013  11.073   2.032
73298SOL    HW121733   7.085  11.132   2.053
73298SOL    HW221734   6.936  11.115   2.068
73299SOL     OW21735   5.829   1.370  10.711
73299SOL    HW121736   5.839   1.329  10.626
73299SOL    HW221737   5.757   1.322  10.753
73300SOL     OW21738   7.136   3.191  10.804
73300SOL    HW121739   7.188   3.176  10.883
73300SOL    HW221740   7.200   3.221  10.739
73301SOL     OW21741   4.626  12.766  14.444
73301SOL    HW121742   4.607  12.842  14.499
73301SOL    HW221743   4.624  12.800  14.355
73302SOL     OW21744  10.849   5.911   7.443
73302SOL    HW121745  10.806   5.852   7.381
73302SOL    HW221746  10.862   5.858   7.522
73303SOL     OW21747   8.063  12.376   1.877
73303SOL    HW121748   8.078  12.363   1.784
73303SOL    HW221749   8.094  12.295   1.918
73304SOL     OW21750   9.938  13.541  13.930
73304SOL    HW121751   9.917  13.552  13.837
73304SOL    HW221752   9.996  13.613  13.951
73305SOL     OW21753  13.787   8.772   1.077
73305SOL    HW121754  13.776   8.864   1.101
73305SOL    HW221755  13.844   8.773   1.000
73306SOL     OW21756   4.460   0.743   2.367
73306SOL    HW121757   4.541   0.782   2.334
73306SOL    HW221758   4.465   0.755   2.462
73307SOL     OW21759   7.542  11.153   0.559
73307SOL    HW121760   7.460  11.116   0.528
73307SOL    HW221761   7.529  11.166   0.653
73308SOL     OW21762  12.744   6.361  10.279
73308SOL    HW121763  12.726   6.309  10.200
73308SOL    HW221764  12.838   6.378  10.276
73309SOL     OW21765  11.200   3.378  11.435
73309SOL    HW121766  11.167   3.341  11.518
73309SOL    HW221767  11.276   3.429  11.460
73310SOL     OW21768   5.111   5.157  13.340
73310SOL    HW121769   5.107   5.063  13.326
73310SOL    HW221770   5.155   5.191  13.262
73311SOL     OW21771  12.605  10.530   9.428
73311SOL    HW121772  12.570  10.523   9.517
73311SOL    HW221773  12.534  10.498   9.372
73312SOL     OW21774  12.302  12.205   8.051
73312SOL    HW121775  12.325  12.204   7.958
73312SOL    HW221776  12.220  12.253   8.055
73313SOL     OW21777   2.746   5.906   5.799
73313SOL    HW121778   2.840   5.912   5.819
73313SOL    HW221779   2.742   5.900   5.704
73314SOL     OW21780   5.730   5.056   5.180
73314SOL    HW121781   5.639   5.075   5.201
73314SOL    HW221782   5.781   5.108   5.242
73315SOL     OW21783  12.269  13.352  12.583
73315SOL    HW121784  12.206  13.347  12.655
73315SOL    HW221785  12.351  13.378  12.626
73316SOL     OW21786   7.588   9.154  13.102
73316SOL    HW121787   7.568   9.233  13.150
73316SOL    HW221788   7.617   9.091  13.168
73317SOL     OW21789   6.102   1.410  12.271
73317SOL    HW121790   6.095   1.442  12.181
73317SOL    HW221791   6.015   1.373  12.291
73318SOL     OW21792  10.153   4.912   0.191
73318SOL    HW121793  10.180   4.833   0.144
73318SOL    HW221794  10.182   4.984   0.134
73319SOL     OW21795   5.759   1.022  14.141
73319SOL    HW121796   5.749   1.117  14.139
73319SOL    HW221797   5.853   1.007  14.145
73320SOL     OW21798   5.253  14.767   1.213
73320SOL    HW121799   5.272  14.676   1.191
73320SOL    HW221800   5.260  14.814   1.130
73321SOL     OW21801   1.471   1.802   7.167
73321SOL    HW121802   1.431   1.717   7.147
73321SOL    HW221803   1.565   1.787   7.155
73322SOL     OW21804  13.437   5.452  11.013
73322SOL    HW121805  13.356   5.407  11.039
73322SOL    HW221806  13.474   5.483  11.096
73323SOL     OW21807  12.828   6.201   6.425
73323SOL    HW121808  12.739   6.177   6.399
73323SOL    HW221809  12.821   6.223   6.517
73324SOL     OW21810  14.570   7.073   8.278
73324SOL    HW121811  14.553   7.019   8.355
73324SOL    HW221812  14.493   7.130   8.272
73325SOL     OW21813   6.740   6.867   6.342
73325SOL    HW121814   6.716   6.957   6.363
73325SOL    HW221815   6.807   6.845   6.407
73326SOL     OW21816  12.585   3.613   9.224
73326SOL    HW121817  12.563   3.670   9.298
73326SOL    HW221818  12.546   3.529   9.247
73327SOL     OW21819   4.588   6.591  11.133
73327SOL    HW121820   4.608   6.502  11.162
73327SOL    HW221821   4.660   6.644  11.166
73328SOL     OW21822   3.886   3.138  13.931
73328SOL    HW121823   3.887   3.059  13.984
73328SOL    HW221824   3.798   3.142  13.894
73329SOL     OW21825   5.700   0.119   7.127
73329SOL    HW121826   5.695   0.083   7.215
73329SOL    HW221827   5.793   0.137   7.114
73330SOL     OW21828   2.999   6.960   0.549
73330SOL    HW121829   3.060   7.012   0.497
73330SOL    HW221830   2.953   6.905   0.485
73331SOL     OW21831  13.596   8.686  11.259
73331SOL    HW121832  13.563   8.716  11.174
73331SOL    HW221833  13.519   8.659  11.307
73332SOL     OW21834  13.247  12.910   1.317
73332SOL    HW121835  13.212  12.973   1.255
73332SOL    HW221836  13.253  12.958   1.400
73333SOL     OW21837   7.130   5.677   7.549
73333SOL    HW121838   7.050   5.701   7.501
73333SOL    HW221839   7.176   5.760   7.562
73334SOL     OW21840  14.134  12.944   8.444
73334SOL    HW121841  14.139  12.910   8.533
73334SOL    HW221842  14.153  12.869   8.388
73335SOL     OW21843   2.362   0.432   3.693
73335SOL    HW121844   2.304   0.386   3.753
73335SOL    HW221845   2.429   0.367   3.670
73336SOL     OW21846   4.472   2.579   2.650
73336SOL    HW121847   4.547   2.575   2.591
73336SOL    HW221848   4.507   2.559   2.736
73337SOL     OW21849  11.807   5.302   7.370
73337SOL    HW121850  11.725   5.265   7.402
73337SOL    HW221851  11.866   5.227   7.362
73338SOL     OW21852  12.475   9.221  11.984
73338SOL    HW121853  12.431   9.158  12.041
73338SOL    HW221854  12.518   9.282  12.043
73339SOL     OW21855  13.012   9.059   2.211
73339SOL    HW121856  13.017   9.106   2.294
73339SOL    HW221857  12.921   9.070   2.182
73340SOL     OW21858  14.116   5.696   1.117
73340SOL    HW121859  14.119   5.604   1.142
73340SOL    HW221860  14.092   5.695   1.024
73341SOL     OW21861  13.113  12.947   9.819
73341SOL    HW121862  13.110  13.017   9.884
73341SOL    HW221863  13.028  12.904   9.827
73342SOL     OW21864  14.827  12.985  11.510
73342SOL    HW121865   0.028  12.941  11.469
73342SOL    HW221866  14.760  12.988  11.441
73343SOL     OW21867   7.316   3.885  13.835
73343SOL    HW121868   7.329   3.832  13.757
73343SOL    HW221869   7.238   3.937  13.816
73344SOL     OW21870   0.823  13.494  12.504
73344SOL    HW121871   0.818  13.499  12.408
73344SOL    HW221872   0.834  13.585  12.532
73345SOL     OW21873   9.678   8.140  11.011
73345SOL    HW121874   9.701   8.047  11.019
73345SOL    HW221875   9.621   8.143  10.935
73346SOL     OW21876   0.915   8.176   3.204
73346SOL    HW121877   0.884   8.135   3.284
73346SOL    HW221878   0.837   8.213   3.163
73347SOL     OW21879  10.903  10.885  14.778
73347SOL    HW121880  10.902  10.887   0.001
73347SOL    HW221881  10.893  10.977  14.752
73348SOL     OW21882   5.207   0.288   9.645
73348SOL    HW121883   5.165   0.325   9.723
73348SOL    HW221884   5.195   0.355   9.577
73349SOL     OW21885   4.732   7.191   4.450
73349SOL    HW121886   4.800   7.129   4.424
73349SOL    HW221887   4.685   7.211   4.369
73350SOL     OW21888   7.743   9.505  13.439
73350SOL    HW121889   7.744   9.598  13.461
73350SOL    HW221890   7.834   9.485  13.416
73351SOL     OW21891  10.027  10.183   1.602
73351SOL    HW121892  10.069  10.097   1.606
73351SOL    HW221893  10.059  10.229   1.679
73352SOL     OW21894  13.681   7.554   4.410
73352SOL    HW121895  13.644   7.635   4.376
73352SOL    HW221896  13.743   7.582   4.477
73353SOL     OW21897   1.900  10.518   4.930
73353SOL    HW121898   1.872  10.592   4.875
73353SOL    HW221899   1.831  10.508   4.995
73354SOL     OW21900   7.123   0.439   5.723
73354SOL    HW121901   7.114   0.395   5.807
73354SOL    HW221902   7.212   0.420   5.695
73355SOL     OW21903   4.321  13.674   9.558
73355SOL    HW121904   4.255  13.641   9.497
73355SOL    HW221905   4.284  13.755   9.592
73356SOL     OW21906   5.351   6.670   6.972
73356SOL    HW121907   5.438   6.665   7.011
73356SOL    HW221908   5.321   6.579   6.970
73357SOL     OW21909  11.405   2.314   2.066
73357SOL    HW121910  11.402   2.219   2.070
73357SOL    HW221911  11.323   2.339   2.023
73358SOL     OW21912   5.831   1.214   4.722
73358SOL    HW121913   5.743   1.240   4.749
73358SOL    HW221914   5.882   1.213   4.803
73359SOL     OW21915   6.745  11.304   3.827
73359SOL    HW121916   6.680  11.262   3.884
73359SOL    HW221917   6.710  11.294   3.739
73360SOL     OW21918   7.716  14.082  10.147
73360SOL    HW121919   7.707  14.133  10.066
73360SOL    HW221920   7.651  14.119  10.206
73361SOL     OW21921  12.220   0.187  11.229
73361SOL    HW121922  12.284   0.258  11.229
73361SOL    HW221923  12.239   0.137  11.309
73362SOL     OW21924  11.683   7.342   1.998
73362SOL    HW121925  11.673   7.435   2.016
73362SOL    HW221926  11.724   7.306   2.076
73363SOL     OW21927   1.264   6.029  13.952
73363SOL    HW121928   1.329   5.987  13.897
73363SOL    HW221929   1.245   6.112  13.907
73364SOL     OW21930  12.463   9.198   0.031
73364SOL    HW121931  12.457   9.284  14.863
73364SOL    HW221932  12.553   9.171   0.016
73365SOL     OW21933  12.895   3.618  14.015
73365SOL    HW121934  12.930   3.571  14.090
73365SOL    HW221935  12.800   3.613  14.026
73366SOL     OW21936   3.039   0.810   7.679
73366SOL    HW121937   3.097   0.736   7.662
73366SOL    HW221938   3.046   0.864   7.600
73367SOL     OW21939  10.996   9.382   7.512
73367SOL    HW121940  11.036   9.467   7.527
73367SOL    HW221941  11.004   9.337   7.596
73368SOL     OW21942   9.273   8.652   3.700
73368SOL    HW121943   9.307   8.725   3.752
73368SOL    HW221944   9.312   8.664   3.614
73369SOL     OW21945   6.218   0.159   1.985
73369SOL    HW121946   6.189   0.240   2.026
73369SOL    HW221947   6.253   0.187   1.900
73370SOL     OW21948   9.056  10.635   6.618
73370SOL    HW121949   9.134  10.657   6.670
73370SOL    HW221950   9.043  10.541   6.635
73371SOL     OW21951   6.795   2.472   1.985
73371SOL    HW121952   6.800   2.567   1.990
73371SOL    HW221953   6.841   2.441   2.064
73372SOL     OW21954   6.466  10.595   5.639
73372SOL    HW121955   6.481  10.649   5.561
73372SOL    HW221956   6.528  10.523   5.630
73373SOL     OW21957   4.776   2.725   2.027
73373SOL    HW121958   4.840   2.654   2.027
73373SOL    HW221959   4.800   2.779   2.102
73374SOL     OW21960   6.760   2.875   4.746
73374SOL    HW121961   6.780   2.823   4.668
73374SOL    HW221962   6.717   2.954   4.712
73375SOL     OW21963   2.487   3.047   6.811
73375SOL    HW121964   2.414   3.061   6.872
73375SOL    HW221965   2.534   3.131   6.811
73376SOL     OW21966   2.861   8.500   3.241
73376SOL    HW121967   2.922   8.527   3.172
73376SOL    HW221968   2.867   8.569   3.307
73377SOL     OW21969  12.102   3.765  14.811
73377SOL    HW121970  12.153   3.693  14.774
73377SOL    HW221971  12.027   3.775  14.752
73378SOL     OW21972  14.718   5.454  13.981
73378SOL    HW121973  14.666   5.463  13.901
73378SOL    HW221974  14.809   5.456  13.950
73379SOL     OW21975   2.755   5.657  10.422
73379SOL    HW121976   2.832   5.713  10.431
73379SOL    HW221977   2.776   5.600  10.349
73380SOL     OW21978   1.289   5.464   4.428
73380SOL    HW121979   1.218   5.511   4.384
73380SOL    HW221980   1.341   5.427   4.356
73381SOL     OW21981   7.024   1.563   4.426
73381SOL    HW121982   6.949   1.505   4.437
73381SOL    HW221983   7.090   1.509   4.383
73382SOL     OW21984   3.339  11.015   1.217
73382SOL    HW121985   3.261  11.048   1.173
73382SOL    HW221986   3.406  11.011   1.149
73383SOL     OW21987   8.231   7.922  10.207
73383SOL    HW121988   8.205   7.889  10.293
73383SOL    HW221989   8.325   7.939  10.214
73384SOL     OW21990   8.042   6.628   7.769
73384SOL    HW121991   8.098   6.636   7.691
73384SOL    HW221992   7.972   6.692   7.754
73385SOL     OW21993  12.700   4.307   7.116
73385SOL    HW121994  12.744   4.242   7.060
73385SOL    HW221995  12.762   4.323   7.187
73386SOL     OW21996  10.797  14.665   5.960
73386SOL    HW121997  10.885  14.642   5.991
73386SOL    HW221998  10.792  14.760   5.971
73387SOL     OW21999  10.006   5.027  14.784
73387SOL    HW122000   9.973   5.069  14.704
73387SOL    HW222001   9.939   5.045  14.850
73388SOL     OW22002   0.514  12.478  12.273
73388SOL    HW122003   0.512  12.507  12.364
73388SOL    HW222004   0.454  12.536  12.228
73389SOL     OW22005   8.272  12.023   7.857
73389SOL    HW122006   8.270  12.105   7.808
73389SOL    HW222007   8.357  11.984   7.835
73390SOL     OW22008  10.954  11.158  14.680
73390SOL    HW122009  10.929  11.240  14.722
73390SOL    HW222010  10.970  11.181  14.588
73391SOL     OW22011   2.909  10.321  11.391
73391SOL    HW122012   2.914  10.242  11.337
73391SOL    HW222013   2.974  10.379  11.353
73392SOL     OW22014  10.927   0.878  12.868
73392SOL    HW122015  10.851   0.921  12.908
73392SOL    HW222016  10.909   0.784  12.877
73393SOL     OW22017   0.386   1.579  12.389
73393SOL    HW122018   0.437   1.628  12.454
73393SOL    HW222019   0.378   1.640  12.315
73394SOL     OW22020  12.101   3.875   9.190
73394SOL    HW122021  12.169   3.934   9.223
73394SOL    HW222022  12.119   3.867   9.096
73395SOL     OW22023  12.399   2.028  10.265
73395SOL    HW122024  12.485   2.058  10.297
73395SOL    HW222025  12.387   1.943  10.307
73396SOL     OW22026   5.740  13.563   4.683
73396SOL    HW122027   5.733  13.481   4.635
73396SOL    HW222028   5.658  13.609   4.665
73397SOL     OW22029  11.612  11.686   7.436
73397SOL    HW122030  11.529  11.645   7.413
73397SOL    HW222031  11.627  11.661   7.527
73398SOL     OW22032   3.561   0.148   0.106
73398SOL    HW122033   3.601   0.215   0.161
73398SOL    HW222034   3.541   0.193   0.024
73399SOL     OW22035  11.372  13.792   4.584
73399SOL    HW122036  11.282  13.795   4.553
73399SOL    HW222037  11.425  13.805   4.505
73400SOL     OW22038   3.874  12.335   7.148
73400SOL    HW122039   3.840  12.338   7.058
73400SOL    HW222040   3.900  12.425   7.166
73401SOL     OW22041  12.424   7.666   2.814
73401SOL    HW122042  12.503   7.685   2.763
73401SOL    HW222043  12.456   7.649   2.902
73402SOL     OW22044   5.281   7.478   9.359
73402SOL    HW122045   5.314   7.534   9.429
73402SOL    HW222046   5.224   7.535   9.307
73403SOL     OW22047   3.176   9.575   6.804
73403SOL    HW122048   3.172   9.668   6.780
73403SOL    HW222049   3.201   9.530   6.723
73404SOL     OW22050  12.707   2.097  13.101
73404SOL    HW122051  12.801   2.113  13.108
73404SOL    HW222052  12.667   2.169  13.150
73405SOL     OW22053   0.477  14.002   2.633
73405SOL    HW122054   0.469  13.909   2.613
73405SOL    HW222055   0.390  14.027   2.666
73406SOL     OW22056   9.788   7.577  14.783
73406SOL    HW122057   9.868   7.547  14.825
73406SOL    HW222058   9.771   7.663  14.821
73407SOL     OW22059   6.489  13.767   2.162
73407SOL    HW122060   6.425  13.821   2.207
73407SOL    HW222061   6.486  13.796   2.071
73408SOL     OW22062  10.118  11.492  11.957
73408SOL    HW122063  10.062  11.557  11.916
73408SOL    HW222064  10.203  11.502  11.914
73409SOL     OW22065   4.477   7.609   5.061
73409SOL    HW122066   4.509   7.642   4.978
73409SOL    HW222067   4.525   7.659   5.127
73410SOL     OW22068  14.095   8.715   5.361
73410SOL    HW122069  14.084   8.623   5.340
73410SOL    HW222070  14.164   8.745   5.302
73411SOL     OW22071  10.912   4.074   5.161
73411SOL    HW122072  10.835   4.104   5.113
73411SOL    HW222073  10.911   4.124   5.242
73412SOL     OW22074  10.328   6.347   4.806
73412SOL    HW122075  10.296   6.284   4.870
73412SOL    HW222076  10.284   6.429   4.829
73413SOL     OW22077   4.239   1.760   4.780
73413SOL    HW122078   4.200   1.773   4.694
73413SOL    HW222079   4.200   1.829   4.834
73414SOL     OW22080   7.621  14.628   1.988
73414SOL    HW122081   7.632  14.721   2.009
73414SOL    HW222082   7.588  14.629   1.898
73415SOL     OW22083   4.085  11.335   8.359
73415SOL    HW122084   4.164  11.305   8.405
73415SOL    HW222085   4.018  11.271   8.380
73416SOL     OW22086   0.442  12.959   8.603
73416SOL    HW122087   0.489  12.995   8.527
73416SOL    HW222088   0.377  13.025   8.625
73417SOL     OW22089  10.699   8.428   9.308
73417SOL    HW122090  10.604   8.436   9.313
73417SOL    HW222091  10.716   8.405   9.216
73418SOL     OW22092   6.564   8.326  12.554
73418SOL    HW122093   6.653   8.316  12.523
73418SOL    HW222094   6.509   8.293  12.483
73419SOL     OW22095  11.024  12.324   0.452
73419SOL    HW122096  11.006  12.281   0.535
73419SOL    HW222097  10.948  12.382   0.438
73420SOL     OW22098  12.180   5.330   7.888
73420SOL    HW122099  12.249   5.347   7.824
73420SOL    HW222100  12.110   5.290   7.837
73421SOL     OW22101  11.408   4.468  11.058
73421SOL    HW122102  11.423   4.552  11.014
73421SOL    HW222103  11.379   4.409  10.988
73422SOL     OW22104  10.990  13.048   9.768
73422SOL    HW122105  11.017  12.969   9.722
73422SOL    HW222106  10.897  13.035   9.785
73423SOL     OW22107   8.753  12.464   1.806
73423SOL    HW122108   8.715  12.408   1.874
73423SOL    HW222109   8.681  12.479   1.744
73424SOL     OW22110  13.788   8.856   6.874
73424SOL    HW122111  13.696   8.871   6.898
73424SOL    HW222112  13.815   8.782   6.927
73425SOL     OW22113  13.710   1.253   9.706
73425SOL    HW122114  13.744   1.342   9.714
73425SOL    HW222115  13.645   1.258   9.636
73426SOL     OW22116   9.372   3.526   5.593
73426SOL    HW122117   9.281   3.507   5.569
73426SOL    HW222118   9.397   3.454   5.651
73427SOL     OW22119   7.586  14.809   7.095
73427SOL    HW122120   7.613  14.723   7.129
73427SOL    HW222121   7.561  14.791   7.005
73428SOL     OW22122  11.817  14.694   4.727
73428SOL    HW122123  11.803  14.669   4.635
73428SOL    HW222124  11.832  14.611   4.772
73429SOL     OW22125  13.273   0.941   0.259
73429SOL    HW122126  13.245   0.861   0.305
73429SOL    HW222127  13.341   0.911   0.198
73430SOL     OW22128   3.514  14.507  10.283
73430SOL    HW122129   3.584  14.508  10.349
73430SOL    HW222130   3.433  14.514  10.335
73431SOL     OW22131   8.092   6.727   7.276
73431SOL    HW122132   8.091   6.632   7.275
73431SOL    HW222133   8.010   6.753   7.318
73432SOL     OW22134   4.941   1.844   7.225
73432SOL    HW122135   4.938   1.768   7.282
73432SOL    HW222136   4.877   1.905   7.262
73433SOL     OW22137  11.332   9.837  13.788
73433SOL    HW122138  11.394   9.765  13.786
73433SOL    HW222139  11.324   9.859  13.881
73434SOL     OW22140   5.704   4.391  11.014
73434SOL    HW122141   5.683   4.418  10.925
73434SOL    HW222142   5.798   4.408  11.023
73435SOL     OW22143   9.786  14.848   0.215
73435SOL    HW122144   9.761   0.055   0.169
73435SOL    HW222145   9.847  14.804   0.155
73436SOL     OW22146   7.142   6.585   3.086
73436SOL    HW122147   7.109   6.674   3.073
73436SOL    HW222148   7.203   6.571   3.014
73437SOL     OW22149   9.662  13.962  11.297
73437SOL    HW122150   9.596  13.894  11.309
73437SOL    HW222151   9.627  14.017  11.226
73438SOL     OW22152   2.256   1.016  13.403
73438SOL    HW122153   2.273   1.095  13.454
73438SOL    HW222154   2.331   0.959  13.419
73439SOL     OW22155   4.565   2.960  14.464
73439SOL    HW122156   4.628   2.888  14.475
73439SOL    HW222157   4.608   3.022  14.406
73440SOL     OW22158   1.444   6.121   7.972
73440SOL    HW122159   1.442   6.162   7.886
73440SOL    HW222160   1.443   6.194   8.034
73441SOL     OW22161  13.372   2.134   5.520
73441SOL    HW122162  13.429   2.199   5.560
73441SOL    HW222163  13.383   2.055   5.574
73442SOL     OW22164   5.387   6.075  13.986
73442SOL    HW122165   5.383   6.064  13.891
73442SOL    HW222166   5.425   5.994  14.018
73443SOL     OW22167  10.083   9.133   0.475
73443SOL    HW122168  10.085   9.225   0.447
73443SOL    HW222169  10.077   9.137   0.570
73444SOL     OW22170  14.198   2.202   9.073
73444SOL    HW122171  14.293   2.198   9.075
73444SOL    HW222172  14.172   2.216   9.164
73445SOL     OW22173   4.120   7.850  12.703
73445SOL    HW122174   4.169   7.777  12.741
73445SOL    HW222175   4.108   7.826  12.611
73446SOL     OW22176   3.482  13.478  10.993
73446SOL    HW122177   3.577  13.484  10.987
73446SOL    HW222178   3.453  13.567  11.013
73447SOL     OW22179   5.750   6.181   3.880
73447SOL    HW122180   5.814   6.110   3.886
73447SOL    HW222181   5.797   6.258   3.912
73448SOL     OW22182  13.248   1.810   2.460
73448SOL    HW122183  13.229   1.852   2.544
73448SOL    HW222184  13.187   1.850   2.399
73449SOL     OW22185   8.530   8.677  14.860
73449SOL    HW122186   8.557   8.754   0.038
73449SOL    HW222187   8.444   8.701  14.825
73450SOL     OW22188   8.764   0.920  10.935
73450SOL    HW122189   8.682   0.897  10.980
73450SOL    HW222190   8.824   0.945  11.005
73451SOL     OW22191  12.654  12.699  11.674
73451SOL    HW122192  12.623  12.694  11.583
73451SOL    HW222193  12.580  12.734  11.723
73452SOL     OW22194   3.749  11.842   2.716
73452SOL    HW122195   3.721  11.810   2.630
73452SOL    HW222196   3.691  11.797   2.778
73453SOL     OW22197  14.507  13.801   5.054
73453SOL    HW122198  14.473  13.784   5.142
73453SOL    HW222199  14.457  13.742   4.998
73454SOL     OW22200  10.289   4.051  11.314
73454SOL    HW122201  10.245   4.042  11.229
73454SOL    HW222202  10.369   4.100  11.294
73455SOL     OW22203  14.237   4.869   1.324
73455SOL    HW122204  14.323   4.846   1.288
73455SOL    HW222205  14.181   4.880   1.247
73456SOL     OW22206   8.047   8.147  13.798
73456SOL    HW122207   8.071   8.167  13.888
73456SOL    HW222208   8.103   8.073  13.774
73457SOL     OW22209  10.617  13.867   0.179
73457SOL    HW122210  10.694  13.920   0.200
73457SOL    HW222211  10.634  13.834   0.091
73458SOL     OW22212   7.962   5.816  10.936
73458SOL    HW122213   7.965   5.812  10.841
73458SOL    HW222214   7.967   5.725  10.964
73459SOL     OW22215   5.104   0.997   6.513
73459SOL    HW122216   5.117   0.906   6.484
73459SOL    HW222217   5.015   1.018   6.483
73460SOL     OW22218  10.087   0.063   0.893
73460SOL    HW122219  10.096   0.121   0.817
73460SOL    HW222220  10.021   0.106   0.947
73461SOL     OW22221   5.220  12.794   1.128
73461SOL    HW122222   5.217  12.858   1.057
73461SOL    HW222223   5.250  12.844   1.204
73462SOL     OW22224   1.028  12.633   3.411
73462SOL    HW122225   1.053  12.570   3.477
73462SOL    HW222226   1.108  12.650   3.362
73463SOL     OW22227   9.235   3.174   8.637
73463SOL    HW122228   9.243   3.143   8.547
73463SOL    HW222229   9.145   3.154   8.661
73464SOL     OW22230  12.097   8.930   3.064
73464SOL    HW122231  12.133   8.843   3.044
73464SOL    HW222232  12.060   8.960   2.981
73465SOL     OW22233   2.476   7.231  10.635
73465SOL    HW122234   2.397   7.262  10.590
73465SOL    HW222235   2.450   7.150  10.678
73466SOL     OW22236   4.036  13.281   8.926
73466SOL    HW122237   3.978  13.318   8.993
73466SOL    HW222238   4.117  13.262   8.973
73467SOL     OW22239   4.923   8.041   2.985
73467SOL    HW122240   4.921   7.972   2.918
73467SOL    HW222241   4.840   8.087   2.974
73468SOL     OW22242  14.079   3.095  10.461
73468SOL    HW122243  14.013   3.038  10.499
73468SOL    HW222244  14.135   3.036  10.410
73469SOL     OW22245  11.688   2.528   4.612
73469SOL    HW122246  11.704   2.447   4.661
73469SOL    HW222247  11.646   2.500   4.531
73470SOL     OW22248   6.144  14.530  11.662
73470SOL    HW122249   6.067  14.490  11.703
73470SOL    HW222250   6.216  14.507  11.720
73471SOL     OW22251   6.702   1.167  11.431
73471SOL    HW122252   6.728   1.259  11.422
73471SOL    HW222253   6.735   1.125  11.352
73472SOL     OW22254   0.463  11.054   1.897
73472SOL    HW122255   0.547  11.077   1.857
73472SOL    HW222256   0.419  11.139   1.910
73473SOL     OW22257  10.383  11.178   4.391
73473SOL    HW122258  10.298  11.204   4.356
73473SOL    HW222259  10.426  11.262   4.412
73474SOL     OW22260  14.270   5.073   4.848
73474SOL    HW122261  14.186   5.120   4.856
73474SOL    HW222262  14.281   5.061   4.754
73475SOL     OW22263   6.491   3.759   3.052
73475SOL    HW122264   6.427   3.819   3.013
73475SOL    HW222265   6.511   3.697   2.983
73476SOL     OW22266   8.737   0.007   6.641
73476SOL    HW122267   8.687   0.039   6.716
73476SOL    HW222268   8.782   0.084   6.607
73477SOL     OW22269  10.990  10.243   9.521
73477SOL    HW122270  11.004  10.148   9.520
73477SOL    HW222271  11.023  10.272   9.606
73478SOL     OW22272   9.205  12.879   7.739
73478SOL    HW122273   9.183  12.951   7.680
73478SOL    HW222274   9.234  12.809   7.680
73479SOL     OW22275   7.851   7.683   7.771
73479SOL    HW122276   7.921   7.625   7.740
73479SOL    HW222277   7.893   7.737   7.838
73480SOL     OW22278   3.396   9.603   7.859
73480SOL    HW122279   3.455   9.569   7.792
73480SOL    HW222280   3.381   9.694   7.834
73481SOL     OW22281   7.755  13.526   7.334
73481SOL    HW122282   7.757  13.522   7.238
73481SOL    HW222283   7.818  13.459   7.362
73482SOL     OW22284  12.981  10.214   8.538
73482SOL    HW122285  13.028  10.247   8.461
73482SOL    HW222286  13.046  10.213   8.608
73483SOL     OW22287   1.604   0.468   4.755
73483SOL    HW122288   1.598   0.382   4.714
73483SOL    HW222289   1.536   0.520   4.711
73484SOL     OW22290  10.355   9.870   7.139
73484SOL    HW122291  10.305   9.815   7.199
73484SOL    HW222292  10.368   9.815   7.062
73485SOL     OW22293   0.003   6.044   4.713
73485SOL    HW122294   0.040   6.091   4.787
73485SOL    HW222295   0.056   5.965   4.706
73486SOL     OW22296   3.278  12.560  14.796
73486SOL    HW122297   3.206  12.623  14.803
73486SOL    HW222298   3.310  12.550   0.013
73487SOL     OW22299   7.924   0.994  13.095
73487SOL    HW122300   7.831   0.986  13.115
73487SOL    HW222301   7.968   0.947  13.165
73488SOL     OW22302   8.136  12.741  14.534
73488SOL    HW122303   8.054  12.696  14.513
73488SOL    HW222304   8.161  12.707  14.619
73489SOL     OW22305  12.169   6.224  14.857
73489SOL    HW122306  12.199   6.133  14.854
73489SOL    HW222307  12.181   6.257  14.768
73490SOL     OW22308  10.941  11.197  13.591
73490SOL    HW122309  10.878  11.143  13.640
73490SOL    HW222310  11.020  11.143  13.586
73491SOL     OW22311   4.636  12.242   2.893
73491SOL    HW122312   4.566  12.194   2.938
73491SOL    HW222313   4.598  12.266   2.809
73492SOL     OW22314   1.711  11.115  14.669
73492SOL    HW122315   1.803  11.139  14.662
73492SOL    HW222316   1.664  11.198  14.656
73493SOL     OW22317   0.007   2.895   3.599
73493SOL    HW122318   0.019   2.981   3.640
73493SOL    HW222319   0.007   2.912   3.505
73494SOL     OW22320   1.271   2.082   1.467
73494SOL    HW122321   1.336   2.087   1.397
73494SOL    HW222322   1.322   2.074   1.547
73495SOL     OW22323   9.868   6.239   2.468
73495SOL    HW122324   9.926   6.289   2.410
73495SOL    HW222325   9.862   6.291   2.548
73496SOL     OW22326   0.298  11.757  11.441
73496SOL    HW122327   0.240  11.816  11.488
73496SOL    HW222328   0.382  11.765  11.486
73497SOL     OW22329   2.249   3.707   9.208
73497SOL    HW122330   2.306   3.688   9.282
73497SOL    HW222331   2.222   3.621   9.176
73498SOL     OW22332  11.489   9.744   6.924
73498SOL    HW122333  11.563   9.683   6.916
73498SOL    HW222334  11.414   9.688   6.942
73499SOL     OW22335   1.642   5.383   2.050
73499SOL    HW122336   1.575   5.425   2.103
73499SOL    HW222337   1.655   5.443   1.976
73500SOL     OW22338   4.050  13.998  10.823
73500SOL    HW122339   4.090  14.080  10.852
73500SOL    HW222340   4.113  13.930  10.848
73501SOL     OW22341   1.197  14.514   1.225
73501SOL    HW122342   1.211  14.609   1.222
73501SOL    HW222343   1.265  14.482   1.284
73502SOL     OW22344  10.582   6.353  12.494
73502SOL    HW122345  10.634   6.376  12.571
73502SOL    HW222346  10.494   6.386  12.514
73503SOL     OW22347  14.402  10.456   6.392
73503SOL    HW122348  14.460  10.531   6.381
73503SOL    HW222349  14.453  10.382   6.359
73504SOL     OW22350   4.663   8.449  12.669
73504SOL    HW122351   4.752   8.421  12.691
73504SOL    HW222352   4.612   8.431  12.748
73505SOL     OW22353  11.958   2.244  12.230
73505SOL    HW122354  11.881   2.300  12.223
73505SOL    HW222355  11.952   2.185  12.154
73506SOL     OW22356  13.656   3.102   3.192
73506SOL    HW122357  13.627   3.120   3.102
73506SOL    HW222358  13.715   3.175   3.213
73507SOL     OW22359  10.522  11.226  10.129
73507SOL    HW122360  10.516  11.310  10.085
73507SOL    HW222361  10.608  11.192  10.106
73508SOL     OW22362   1.573  10.955   4.922
73508SOL    HW122363   1.506  10.891   4.897
73508SOL    HW222364   1.532  11.040   4.907
73509SOL     OW22365   3.128  13.842   4.186
73509SOL    HW122366   3.055  13.854   4.247
73509SOL    HW222367   3.150  13.930   4.157
73510SOL     OW22368   2.572   3.008  10.446
73510SOL    HW122369   2.643   2.956  10.483
73510SOL    HW222370   2.579   3.093  10.489
73511SOL     OW22371  14.052   0.615   5.422
73511SOL    HW122372  14.006   0.541   5.461
73511SOL    HW222373  14.116   0.575   5.363
73512SOL     OW22374   7.505   4.909  13.833
73512SOL    HW122375   7.456   4.906  13.915
73512SOL    HW222376   7.441   4.937  13.767
73513SOL     OW22377  13.453  13.010   6.233
73513SOL    HW122378  13.382  12.986   6.292
73513SOL    HW222379  13.486  12.927   6.200
73514SOL     OW22380  13.061   5.848  11.219
73514SOL    HW122381  13.093   5.767  11.259
73514SOL    HW222382  12.988   5.820  11.164
73515SOL     OW22383   5.432  10.734  11.521
73515SOL    HW122384   5.395  10.758  11.436
73515SOL    HW222385   5.520  10.773  11.520
73516SOL     OW22386   6.376  10.975  11.790
73516SOL    HW122387   6.468  11.000  11.786
73516SOL    HW222388   6.346  11.007  11.875
73517SOL     OW22389   5.638   0.001   3.404
73517SOL    HW122390   5.600   0.088   3.413
73517SOL    HW222391   5.564  14.817   3.384
73518SOL     OW22392   5.294   4.394   1.891
73518SOL    HW122393   5.349   4.427   1.820
73518SOL    HW222394   5.274   4.471   1.944
73519SOL     OW22395  13.051   0.711   7.387
73519SOL    HW122396  13.050   0.628   7.434
73519SOL    HW222397  13.003   0.694   7.306
73520SOL     OW22398   0.976   4.973   0.331
73520SOL    HW122399   0.993   4.879   0.340
73520SOL    HW222400   0.883   4.983   0.355
73521SOL     OW22401   3.729  10.666   8.847
73521SOL    HW122402   3.730  10.707   8.934
73521SOL    HW222403   3.809  10.615   8.843
73522SOL     OW22404   0.373   5.592  13.235
73522SOL    HW122405   0.465   5.584  13.261
73522SOL    HW222406   0.363   5.683  13.208
73523SOL     OW22407   5.796  14.243   3.097
73523SOL    HW122408   5.704  14.270   3.095
73523SOL    HW222409   5.826  14.265   3.185
73524SOL     OW22410   9.268   7.011   5.056
73524SOL    HW122411   9.253   6.922   5.024
73524SOL    HW222412   9.246   7.068   4.982
73525SOL     OW22413   5.240   4.980   0.886
73525SOL    HW122414   5.165   4.967   0.944
73525SOL    HW222415   5.309   4.925   0.922
73526SOL     OW22416   4.772  10.568   1.978
73526SOL    HW122417   4.848  10.547   2.033
73526SOL    HW222418   4.770  10.663   1.975
73527SOL     OW22419   8.106   7.891   0.295
73527SOL    HW122420   8.041   7.893   0.366
73527SOL    HW222421   8.072   7.827   0.233
73528SOL     OW22422   7.932  12.959  13.274
73528SOL    HW122423   7.871  13.032  13.278
73528SOL    HW222424   7.911  12.906  13.352
73529SOL     OW22425   3.111   4.238   7.491
73529SOL    HW122426   3.129   4.172   7.425
73529SOL    HW222427   3.177   4.223   7.559
73530SOL     OW22428  13.938  12.660   8.479
73530SOL    HW122429  13.943  12.709   8.562
73530SOL    HW222430  14.008  12.596   8.485
73531SOL     OW22431   4.328   7.953   0.773
73531SOL    HW122432   4.296   7.881   0.828
73531SOL    HW222433   4.326   7.918   0.684
73532SOL     OW22434   3.975   9.497   2.487
73532SOL    HW122435   4.066   9.525   2.495
73532SOL    HW222436   3.949   9.476   2.577
73533SOL     OW22437   1.454   1.434  13.159
73533SOL    HW122438   1.360   1.415  13.154
73533SOL    HW222439   1.475   1.426  13.253
73534SOL     OW22440   1.732   1.914  13.984
73534SOL    HW122441   1.651   1.963  13.998
73534SOL    HW222442   1.740   1.858  14.061
73535SOL     OW22443  13.701  11.602  10.542
73535SOL    HW122444  13.686  11.596  10.448
73535SOL    HW222445  13.757  11.679  10.553
73536SOL     OW22446   6.664   1.984   9.768
73536SOL    HW122447   6.667   1.889   9.765
73536SOL    HW222448   6.612   2.009   9.692
73537SOL     OW22449   1.432   9.269   8.619
73537SOL    HW122450   1.432   9.312   8.534
73537SOL    HW222451   1.475   9.184   8.604
73538SOL     OW22452   4.559   3.032  11.968
73538SOL    HW122453   4.504   2.964  11.929
73538SOL    HW222454   4.504   3.110  11.967
73539SOL     OW22455  11.135   8.832   0.770
73539SOL    HW122456  11.151   8.770   0.699
73539SOL    HW222457  11.139   8.918   0.728
73540SOL     OW22458   9.883  10.979  12.196
73540SOL    HW122459   9.813  11.038  12.168
73540SOL    HW222460   9.852  10.892  12.170
73541SOL     OW22461  13.246   6.775   0.944
73541SOL    HW122462  13.157   6.748   0.968
73541SOL    HW222463  13.234   6.840   0.875
73542SOL     OW22464   6.880   3.262   1.445
73542SOL    HW122465   6.859   3.219   1.527
73542SOL    HW222466   6.824   3.219   1.380
73543SOL     OW22467  14.640   5.052   3.024
73543SOL    HW122468  14.724   5.018   2.993
73543SOL    HW222469  14.600   4.978   3.070
73544SOL     OW22470  14.614   2.045   1.659
73544SOL    HW122471  14.625   2.111   1.591
73544SOL    HW222472  14.650   1.965   1.621
73545SOL     OW22473  13.490   9.645   4.593
73545SOL    HW122474  13.532   9.586   4.655
73545SOL    HW222475  13.411   9.676   4.638
73546SOL     OW22476  14.663   0.768  14.046
73546SOL    HW122477  14.700   0.788  13.959
73546SOL    HW222478  14.674   0.674  14.056
73547SOL     OW22479   1.821   6.144  14.593
73547SOL    HW122480   1.863   6.058  14.583
73547SOL    HW222481   1.872   6.186  14.663
73548SOL     OW22482   2.002  13.319  13.382
73548SOL    HW122483   1.947  13.263  13.437
73548SOL    HW222484   1.982  13.408  13.411
73549SOL     OW22485   2.446   8.959  13.442
73549SOL    HW122486   2.526   8.972  13.493
73549SOL    HW222487   2.390   8.905  13.497
73550SOL     OW22488   6.720  13.718   2.911
73550SOL    HW122489   6.782  13.722   2.984
73550SOL    HW222490   6.719  13.807   2.875
73551SOL     OW22491  13.633   7.321   4.269
73551SOL    HW122492  13.659   7.413   4.275
73551SOL    HW222493  13.709   7.273   4.300
73552SOL     OW22494   3.400  14.788   0.459
73552SOL    HW122495   3.324  14.778   0.515
73552SOL    HW222496   3.386  14.871   0.414
73553SOL     OW22497  14.405   8.334   8.035
73553SOL    HW122498  14.320   8.375   8.051
73553SOL    HW222499  14.468   8.393   8.077
73554SOL     OW22500   8.865  12.847  13.293
73554SOL    HW122501   8.785  12.883  13.257
73554SOL    HW222502   8.897  12.786  13.226
73555SOL     OW22503  12.162  14.715  14.149
73555SOL    HW122504  12.206  14.785  14.102
73555SOL    HW222505  12.072  14.715  14.116
73556SOL     OW22506   6.635   3.167   5.228
73556SOL    HW122507   6.572   3.117   5.177
73556SOL    HW222508   6.594   3.178   5.314
73557SOL     OW22509   9.813   5.271   8.717
73557SOL    HW122510   9.855   5.317   8.789
73557SOL    HW222511   9.806   5.336   8.647
73558SOL     OW22512  10.129  13.370   9.195
73558SOL    HW122513  10.212  13.328   9.217
73558SOL    HW222514  10.072  13.298   9.170
73559SOL     OW22515   1.719   6.955   1.906
73559SOL    HW122516   1.664   7.034   1.904
73559SOL    HW222517   1.693   6.908   1.827
73560SOL     OW22518   8.802   1.558   2.142
73560SOL    HW122519   8.871   1.494   2.125
73560SOL    HW222520   8.755   1.566   2.059
73561SOL     OW22521  10.034  10.780  10.763
73561SOL    HW122522  10.059  10.708  10.706
73561SOL    HW222523  10.104  10.844  10.753
73562SOL     OW22524  11.310   0.743   2.036
73562SOL    HW122525  11.345   0.654   2.027
73562SOL    HW222526  11.364   0.783   2.104
73563SOL     OW22527   5.635  12.507   2.482
73563SOL    HW122528   5.605  12.416   2.475
73563SOL    HW222529   5.556  12.559   2.468
73564SOL     OW22530   6.912   4.470   2.647
73564SOL    HW122531   6.922   4.447   2.555
73564SOL    HW222532   6.822   4.445   2.668
73565SOL     OW22533   7.668  12.691   7.902
73565SOL    HW122534   7.615  12.757   7.947
73565SOL    HW222535   7.751  12.690   7.950
73566SOL     OW22536   1.046   2.687  12.820
73566SOL    HW122537   0.953   2.665  12.818
73566SOL    HW222538   1.053   2.764  12.763
73567SOL     OW22539   8.745  13.182  11.556
73567SOL    HW122540   8.799  13.186  11.634
73567SOL    HW222541   8.661  13.220  11.583
73568SOL     OW22542   5.680   6.762   8.221
73568SOL    HW122543   5.700   6.714   8.141
73568SOL    HW222544   5.653   6.849   8.191
73569SOL     OW22545   1.321   5.845   8.171
73569SOL    HW122546   1.318   5.902   8.248
73569SOL    HW222547   1.413   5.824   8.160
73570SOL     OW22548  13.564   9.092   7.438
73570SOL    HW122549  13.521   9.008   7.454
73570SOL    HW222550  13.531   9.121   7.353
73571SOL     OW22551  12.892  10.611  13.273
73571SOL    HW122552  12.816  10.653  13.233
73571SOL    HW222553  12.862  10.523  13.297
73572SOL     OW22554   0.722   5.455   3.188
73572SOL    HW122555   0.639   5.407   3.190
73572SOL    HW222556   0.785   5.393   3.153
73573SOL     OW22557  13.340   3.374  14.524
73573SOL    HW122558  13.326   3.468  14.510
73573SOL    HW222559  13.357   3.366  14.618
73574SOL     OW22560   3.925  13.534  12.390
73574SOL    HW122561   3.914  13.578  12.475
73574SOL    HW222562   4.007  13.486  12.398
73575SOL     OW22563   7.075   8.325  11.357
73575SOL    HW122564   7.072   8.314  11.262
73575SOL    HW222565   7.003   8.270  11.389
73576SOL     OW22566  14.830   3.501   0.411
73576SOL    HW122567  14.846   3.588   0.375
73576SOL    HW222568   0.022   3.445   0.369
73577SOL     OW22569  14.631   3.795   0.982
73577SOL    HW122570  14.574   3.723   1.007
73577SOL    HW222571  14.715   3.754   0.960
73578SOL     OW22572   4.331   8.274  10.534
73578SOL    HW122573   4.317   8.180  10.517
73578SOL    HW222574   4.327   8.282  10.629
73579SOL     OW22575   5.328   9.467   3.369
73579SOL    HW122576   5.362   9.551   3.335
73579SOL    HW222577   5.405   9.424   3.406
73580SOL     OW22578   5.871   5.648   4.817
73580SOL    HW122579   5.965   5.666   4.818
73580SOL    HW222580   5.836   5.702   4.746
73581SOL     OW22581   7.076  13.987  11.160
73581SOL    HW122582   6.993  13.994  11.112
73581SOL    HW222583   7.058  14.024  11.246
73582SOL     OW22584   4.872   8.795  14.457
73582SOL    HW122585   4.884   8.752  14.542
73582SOL    HW222586   4.809   8.739  14.411
73583SOL     OW22587   4.727  11.699   2.727
73583SOL    HW122588   4.819  11.675   2.737
73583SOL    HW222589   4.679  11.621   2.755
73584SOL     OW22590   6.371   8.279  14.649
73584SOL    HW122591   6.277   8.262  14.663
73584SOL    HW222592   6.385   8.260  14.556
73585SOL     OW22593  13.222   0.166   1.123
73585SOL    HW122594  13.180   0.092   1.167
73585SOL    HW222595  13.190   0.243   1.170
73586SOL     OW22596   1.029   8.198  13.613
73586SOL    HW122597   1.116   8.175  13.645
73586SOL    HW222598   0.982   8.229  13.690
73587SOL     OW22599   4.568   8.387   4.648
73587SOL    HW122600   4.548   8.480   4.653
73587SOL    HW222601   4.523   8.348   4.724
73588SOL     OW22602   8.028  11.412   9.528
73588SOL    HW122603   8.022  11.508   9.531
73588SOL    HW222604   7.950  11.385   9.479
73589SOL     OW22605  13.012   6.723   0.046
73589SOL    HW122606  13.008   6.652   0.111
73589SOL    HW222607  12.938   6.779   0.067
73590SOL     OW22608  13.355   7.319  14.673
73590SOL    HW122609  13.323   7.250  14.731
73590SOL    HW222610  13.281   7.337  14.615
73591SOL     OW22611   4.702   0.303   1.200
73591SOL    HW122612   4.653   0.382   1.224
73591SOL    HW222613   4.638   0.233   1.206
73592SOL     OW22614   2.762  13.916   6.108
73592SOL    HW122615   2.708  13.987   6.073
73592SOL    HW222616   2.828  13.960   6.162
73593SOL     OW22617  13.247   8.729  12.160
73593SOL    HW122618  13.279   8.816  12.135
73593SOL    HW222619  13.156   8.743  12.185
73594SOL     OW22620  11.832   4.846  13.052
73594SOL    HW122621  11.886   4.819  12.977
73594SOL    HW222622  11.754   4.885  13.012
73595SOL     OW22623  11.881   1.878   9.711
73595SOL    HW122624  11.967   1.846   9.738
73595SOL    HW222625  11.882   1.971   9.735
73596SOL     OW22626  12.958   1.650   5.964
73596SOL    HW122627  13.015   1.606   6.027
73596SOL    HW222628  12.870   1.627   5.992
73597SOL     OW22629  13.446   2.487   7.673
73597SOL    HW122630  13.400   2.469   7.756
73597SOL    HW222631  13.525   2.433   7.677
73598SOL     OW22632   1.077   9.212   0.006
73598SOL    HW122633   1.040   9.294   0.039
73598SOL    HW222634   1.141   9.186   0.073
73599SOL     OW22635  12.978   3.057   3.333
73599SOL    HW122636  12.976   3.150   3.355
73599SOL    HW222637  13.070   3.040   3.312
73600SOL     OW22638   7.379  11.947   4.989
73600SOL    HW122639   7.436  11.887   5.038
73600SOL    HW222640   7.395  11.925   4.897
73601SOL     OW22641   5.073   8.646   4.084
73601SOL    HW122642   5.089   8.569   4.030
73601SOL    HW222643   5.151   8.654   4.138
73602SOL     OW22644   9.292   4.554   1.878
73602SOL    HW122645   9.288   4.461   1.857
73602SOL    HW222646   9.211   4.591   1.841
73603SOL     OW22647   0.320  12.611   8.266
73603SOL    HW122648   0.294  12.703   8.269
73603SOL    HW222649   0.267  12.568   8.333
73604SOL     OW22650  13.512   5.184  12.446
73604SOL    HW122651  13.460   5.133  12.384
73604SOL    HW222652  13.587   5.214  12.396
73605SOL     OW22653  14.460   6.257  14.246
73605SOL    HW122654  14.380   6.205  14.255
73605SOL    HW222655  14.452   6.325  14.313
73606SOL     OW22656   1.268   2.647  11.088
73606SOL    HW122657   1.173   2.639  11.087
73606SOL    HW222658   1.300   2.565  11.051
73607SOL     OW22659   8.486   1.143   4.251
73607SOL    HW122660   8.510   1.188   4.170
73607SOL    HW222661   8.552   1.172   4.315
73608SOL     OW22662   0.961   3.125   7.051
73608SOL    HW122663   0.908   3.180   7.107
73608SOL    HW222664   1.048   3.165   7.054
73609SOL     OW22665  12.682   3.698   2.561
73609SOL    HW122666  12.627   3.627   2.528
73609SOL    HW222667  12.643   3.722   2.645
73610SOL     OW22668   1.985   4.629   0.552
73610SOL    HW122669   2.007   4.721   0.537
73610SOL    HW222670   1.894   4.621   0.523
73611SOL     OW22671   4.130  10.959   0.775
73611SOL    HW122672   4.053  10.930   0.825
73611SOL    HW222673   4.100  11.035   0.726
73612SOL     OW22674   9.213   9.459  10.807
73612SOL    HW122675   9.213   9.364  10.815
73612SOL    HW222676   9.147   9.488  10.870
73613SOL     OW22677   3.474   6.855   7.213
73613SOL    HW122678   3.541   6.858   7.282
73613SOL    HW222679   3.444   6.764   7.213
73614SOL     OW22680  14.777   5.277   1.793
73614SOL    HW122681  14.809   5.187   1.805
73614SOL    HW222682  14.795   5.320   1.877
73615SOL     OW22683   6.377   2.066  13.765
73615SOL    HW122684   6.388   2.143  13.821
73615SOL    HW222685   6.385   1.992  13.825
73616SOL     OW22686   1.635  12.722  11.303
73616SOL    HW122687   1.654  12.726  11.209
73616SOL    HW222688   1.589  12.804  11.322
73617SOL     OW22689  14.207   4.046   1.836
73617SOL    HW122690  14.154   4.125   1.829
73617SOL    HW222691  14.256   4.042   1.754
73618SOL     OW22692   2.316   8.186  14.618
73618SOL    HW122693   2.232   8.186  14.662
73618SOL    HW222694   2.317   8.269  14.570
73619SOL     OW22695   0.288   4.279   2.396
73619SOL    HW122696   0.203   4.291   2.438
73619SOL    HW222697   0.346   4.340   2.442
73620SOL     OW22698  13.601   7.965   9.298
73620SOL    HW122699  13.599   8.045   9.246
73620SOL    HW222700  13.583   7.895   9.234
73621SOL     OW22701   2.988   9.271   1.828
73621SOL    HW122702   2.951   9.188   1.796
73621SOL    HW222703   3.075   9.247   1.860
73622SOL     OW22704  12.169   8.786   9.947
73622SOL    HW122705  12.148   8.851   9.880
73622SOL    HW222706  12.085   8.750   9.973
73623SOL     OW22707   3.362  14.086   3.557
73623SOL    HW122708   3.434  14.022   3.559
73623SOL    HW222709   3.288  14.041   3.598
73624SOL     OW22710  11.431  13.000   9.492
73624SOL    HW122711  11.425  13.021   9.585
73624SOL    HW222712  11.501  13.057   9.459
73625SOL     OW22713   7.205  14.626   2.794
73625SOL    HW122714   7.175  14.538   2.769
73625SOL    HW222715   7.129  14.682   2.782
73626SOL     OW22716   0.140   9.522  10.155
73626SOL    HW122717   0.190   9.580  10.213
73626SOL    HW222718   0.110   9.451  10.212
73627SOL     OW22719   3.027  11.550  11.488
73627SOL    HW122720   3.092  11.592  11.432
73627SOL    HW222721   2.964  11.619  11.509
73628SOL     OW22722   6.247   0.983   4.120
73628SOL    HW122723   6.189   0.981   4.197
73628SOL    HW222724   6.308   1.054   4.139
73629SOL     OW22725   0.289  13.293  14.460
73629SOL    HW122726   0.209  13.341  14.438
73629SOL    HW222727   0.288  13.288  14.556
73630SOL     OW22728   1.155   1.968   5.769
73630SOL    HW122729   1.155   2.050   5.720
73630SOL    HW222730   1.077   1.922   5.737
73631SOL     OW22731  14.326  14.761   4.296
73631SOL    HW122732  14.265  14.716   4.238
73631SOL    HW222733  14.346  14.843   4.251
73632SOL     OW22734  13.552   9.464   8.013
73632SOL    HW122735  13.540   9.404   7.940
73632SOL    HW222736  13.544   9.409   8.091
73633SOL     OW22737   3.063   6.039   4.313
73633SOL    HW122738   2.972   6.047   4.339
73633SOL    HW222739   3.062   6.045   4.218
73634SOL     OW22740   8.171  12.255   1.328
73634SOL    HW122741   8.128  12.192   1.386
73634SOL    HW222742   8.112  12.261   1.253
73635SOL     OW22743   4.745   5.161   6.913
73635SOL    HW122744   4.828   5.121   6.940
73635SOL    HW222745   4.691   5.161   6.992
73636SOL     OW22746  14.471   7.972   4.275
73636SOL    HW122747  14.474   7.930   4.361
73636SOL    HW222748  14.395   7.934   4.232
73637SOL     OW22749   2.871   6.028  12.238
73637SOL    HW122750   2.921   6.106  12.212
73637SOL    HW222751   2.937   5.969  12.275
73638SOL     OW22752   1.345   6.499   7.473
73638SOL    HW122753   1.356   6.591   7.449
73638SOL    HW222754   1.416   6.480   7.534
73639SOL     OW22755  12.415  14.718   5.346
73639SOL    HW122756  12.505  14.749   5.345
73639SOL    HW222757  12.422  14.624   5.364
73640SOL     OW22758  10.444  12.312   5.902
73640SOL    HW122759  10.365  12.350   5.865
73640SOL    HW222760  10.515  12.365   5.866
73641SOL     OW22761   9.520   3.481   6.352
73641SOL    HW122762   9.513   3.457   6.260
73641SOL    HW222763   9.565   3.407   6.393
73642SOL     OW22764   8.230   6.310   1.108
73642SOL    HW122765   8.193   6.392   1.142
73642SOL    HW222766   8.188   6.299   1.023
73643SOL     OW22767  14.826   5.647   0.860
73643SOL    HW122768  14.820   5.569   0.915
73643SOL    HW222769  14.868   5.616   0.780
73644SOL     OW22770   6.023   5.305   5.672
73644SOL    HW122771   5.931   5.332   5.675
73644SOL    HW222772   6.060   5.354   5.599
73645SOL     OW22773  12.336   5.525   2.867
73645SOL    HW122774  12.339   5.612   2.827
73645SOL    HW222775  12.345   5.541   2.961
73646SOL     OW22776  11.985  12.403   1.799
73646SOL    HW122777  11.893  12.376   1.805
73646SOL    HW222778  12.035  12.324   1.821
73647SOL     OW22779  14.288  11.730   2.517
73647SOL    HW122780  14.351  11.683   2.571
73647SOL    HW222781  14.222  11.761   2.579
73648SOL     OW22782  11.215  10.594  12.596
73648SOL    HW122783  11.151  10.578  12.666
73648SOL    HW222784  11.200  10.523  12.534
73649SOL     OW22785   8.711   1.865   1.801
73649SOL    HW122786   8.627   1.909   1.812
73649SOL    HW222787   8.772   1.915   1.855
73650SOL     OW22788   9.477   6.817   8.222
73650SOL    HW122789   9.561   6.774   8.237
73650SOL    HW222790   9.421   6.748   8.186
73651SOL     OW22791  13.014   3.131  13.341
73651SOL    HW122792  12.937   3.096  13.295
73651SOL    HW222793  13.035   3.212  13.294
73652SOL     OW22794   5.668  12.041   2.614
73652SOL    HW122795   5.627  12.033   2.528
73652SOL    HW222796   5.749  12.089   2.597
73653SOL     OW22797   9.759  12.847  11.578
73653SOL    HW122798   9.743  12.823  11.669
73653SOL    HW222799   9.784  12.940  11.582
73654SOL     OW22800  13.025   3.181   1.864
73654SOL    HW122801  13.045   3.126   1.940
73654SOL    HW222802  13.067   3.136   1.790
73655SOL     OW22803   6.864   8.263   5.642
73655SOL    HW122804   6.816   8.270   5.725
73655SOL    HW222805   6.956   8.259   5.668
73656SOL     OW22806   5.419   3.727   7.502
73656SOL    HW122807   5.359   3.783   7.552
73656SOL    HW222808   5.469   3.680   7.568
73657SOL     OW22809   6.304   9.668   8.168
73657SOL    HW122810   6.248   9.591   8.167
73657SOL    HW222811   6.393   9.634   8.168
73658SOL     OW22812   6.568   0.063   6.189
73658SOL    HW122813   6.504  14.872   6.223
73658SOL    HW222814   6.517   0.143   6.178
73659SOL     OW22815  10.125  14.261   7.416
73659SOL    HW122816  10.101  14.238   7.506
73659SOL    HW222817  10.079  14.196   7.362
73660SOL     OW22818   7.365   1.266   0.083
73660SOL    HW122819   7.317   1.212   0.022
73660SOL    HW222820   7.353   1.224   0.168
73661SOL     OW22821   5.323  13.996  13.539
73661SOL    HW122822   5.326  13.998  13.443
73661SOL    HW222823   5.367  14.077  13.566
73662SOL     OW22824   3.935   8.222   0.918
73662SOL    HW122825   3.962   8.160   0.849
73662SOL    HW222826   3.847   8.195   0.942
73663SOL     OW22827   4.960  10.974  10.993
73663SOL    HW122828   5.001  10.999  11.076
73663SOL    HW222829   4.931  10.883  11.006
73664SOL     OW22830  10.826   7.804   5.008
73664SOL    HW122831  10.842   7.710   5.013
73664SOL    HW222832  10.907   7.844   5.039
73665SOL     OW22833   2.016   0.259   2.783
73665SOL    HW122834   1.938   0.314   2.796
73665SOL    HW222835   1.987   0.171   2.806
73666SOL     OW22836   8.943   1.663   7.490
73666SOL    HW122837   8.958   1.744   7.442
73666SOL    HW222838   9.030   1.637   7.520
73667SOL     OW22839  10.198   3.561   8.706
73667SOL    HW122840  10.172   3.505   8.780
73667SOL    HW222841  10.117   3.606   8.681
73668SOL     OW22842   2.905   1.953   8.006
73668SOL    HW122843   2.817   1.938   8.040
73668SOL    HW222844   2.892   2.006   7.927
73669SOL     OW22845  11.996  12.727  14.179
73669SOL    HW122846  11.918  12.712  14.233
73669SOL    HW222847  12.067  12.685  14.228
73670SOL     OW22848   7.597   9.810   3.795
73670SOL    HW122849   7.602   9.724   3.836
73670SOL    HW222850   7.523   9.804   3.735
73671SOL     OW22851   2.932   3.643   6.468
73671SOL    HW122852   2.888   3.704   6.527
73671SOL    HW222853   3.025   3.667   6.473
73672SOL     OW22854   2.970   0.661  12.709
73672SOL    HW122855   2.903   0.621  12.764
73672SOL    HW222856   2.925   0.733  12.665
73673SOL     OW22857   8.283  14.186   2.903
73673SOL    HW122858   8.373  14.190   2.870
73673SOL    HW222859   8.271  14.094   2.928
73674SOL     OW22860   5.571   4.771   6.923
73674SOL    HW122861   5.657   4.812   6.939
73674SOL    HW222862   5.509   4.830   6.965
73675SOL     OW22863   5.392  10.561   3.445
73675SOL    HW122864   5.413  10.468   3.430
73675SOL    HW222865   5.348  10.562   3.530
73676SOL     OW22866   9.254   6.401   0.690
73676SOL    HW122867   9.168   6.386   0.651
73676SOL    HW222868   9.308   6.331   0.655
73677SOL     OW22869   7.169   0.689   5.119
73677SOL    HW122870   7.217   0.620   5.074
73677SOL    HW222871   7.079   0.655   5.126
73678SOL     OW22872  10.619   6.689   1.898
73678SOL    HW122873  10.619   6.635   1.819
73678SOL    HW222874  10.624   6.779   1.864
73679SOL     OW22875   6.521   8.242   1.933
73679SOL    HW122876   6.460   8.195   1.877
73679SOL    HW222877   6.531   8.328   1.892
73680SOL     OW22878   5.803  12.057   9.175
73680SOL    HW122879   5.819  12.071   9.268
73680SOL    HW222880   5.788  11.963   9.166
73681SOL     OW22881   3.062   7.634   8.460
73681SOL    HW122882   3.055   7.606   8.552
73681SOL    HW222883   3.027   7.560   8.411
73682SOL     OW22884   0.001   8.386   9.444
73682SOL    HW122885   0.086   8.407   9.406
73682SOL    HW222886   0.019   8.317   9.507
73683SOL     OW22887   0.057  13.780   2.680
73683SOL    HW122888  14.844  13.750   2.707
73683SOL    HW222889   0.041  13.834   2.603
73684SOL     OW22890   5.648   6.864   6.039
73684SOL    HW122891   5.742   6.847   6.046
73684SOL    HW222892   5.607   6.779   6.054
73685SOL     OW22893   8.590  11.933   1.420
73685SOL    HW122894   8.670  11.915   1.470
73685SOL    HW222895   8.572  12.025   1.436
73686SOL     OW22896   9.202  11.261   7.244
73686SOL    HW122897   9.199  11.210   7.325
73686SOL    HW222898   9.291  11.250   7.211
73687SOL     OW22899   2.612   7.370   4.809
73687SOL    HW122900   2.646   7.312   4.877
73687SOL    HW222901   2.686   7.426   4.787
73688SOL     OW22902   3.880   0.357   5.697
73688SOL    HW122903   3.821   0.404   5.639
73688SOL    HW222904   3.889   0.270   5.657
73689SOL     OW22905   7.477   4.048   8.504
73689SOL    HW122906   7.449   4.102   8.578
73689SOL    HW222907   7.431   3.965   8.516
73690SOL     OW22908  13.827  12.079  11.877
73690SOL    HW122909  13.884  12.015  11.919
73690SOL    HW222910  13.886  12.145  11.842
73691SOL     OW22911   8.704   7.750   6.276
73691SOL    HW122912   8.753   7.826   6.245
73691SOL    HW222913   8.634   7.739   6.213
73692SOL     OW22914   4.593   2.159   1.349
73692SOL    HW122915   4.541   2.173   1.270
73692SOL    HW222916   4.681   2.187   1.325
73693SOL     OW22917   7.978   5.752   6.739
73693SOL    HW122918   7.980   5.691   6.666
73693SOL    HW222919   7.902   5.726   6.791
73694SOL     OW22920  13.195  11.267  10.771
73694SOL    HW122921  13.226  11.176  10.768
73694SOL    HW222922  13.228  11.306  10.690
73695SOL     OW22923   6.268   3.164   1.115
73695SOL    HW122924   6.210   3.117   1.055
73695SOL    HW222925   6.301   3.238   1.064
73696SOL     OW22926   7.185   9.672   5.301
73696SOL    HW122927   7.126   9.740   5.333
73696SOL    HW222928   7.267   9.718   5.284
73697SOL     OW22929  11.158   8.237   8.341
73697SOL    HW122930  11.086   8.231   8.404
73697SOL    HW222931  11.230   8.192   8.384
73698SOL     OW22932  11.692   0.487   4.963
73698SOL    HW122933  11.619   0.432   4.935
73698SOL    HW222934  11.769   0.448   4.922
73699SOL     OW22935   3.337  10.400   9.978
73699SOL    HW122936   3.311  10.474  10.033
73699SOL    HW222937   3.432  10.396   9.986
73700SOL     OW22938   0.306   8.689   3.575
73700SOL    HW122939   0.227   8.694   3.628
73700SOL    HW222940   0.277   8.713   3.487
73701SOL     OW22941  13.752  10.744   8.759
73701SOL    HW122942  13.840  10.741   8.722
73701SOL    HW222943  13.739  10.659   8.799
73702SOL     OW22944   8.151   3.024   3.254
73702SOL    HW122945   8.152   3.091   3.186
73702SOL    HW222946   8.178   3.070   3.334
73703SOL     OW22947  11.847   5.844   7.095
73703SOL    HW122948  11.842   5.924   7.148
73703SOL    HW222949  11.807   5.868   7.012
73704SOL     OW22950  13.956   5.922   5.239
73704SOL    HW122951  13.892   5.971   5.187
73704SOL    HW222952  14.039   5.932   5.191
73705SOL     OW22953   5.028   8.356   8.482
73705SOL    HW122954   5.019   8.392   8.570
73705SOL    HW222955   5.007   8.428   8.423
73706SOL     OW22956  13.133   7.500   4.696
73706SOL    HW122957  13.062   7.562   4.714
73706SOL    HW222958  13.211   7.541   4.733
73707SOL     OW22959   2.861  10.710   8.738
73707SOL    HW122960   2.930  10.658   8.697
73707SOL    HW222961   2.781  10.685   8.691
73708SOL     OW22962   1.659  13.706   7.395
73708SOL    HW122963   1.660  13.800   7.383
73708SOL    HW222964   1.751  13.683   7.414
73709SOL     OW22965  11.051  13.593  10.407
73709SOL    HW122966  11.100  13.672  10.381
73709SOL    HW222967  11.100  13.521  10.367
73710SOL     OW22968  13.463   8.671   1.238
73710SOL    HW122969  13.470   8.730   1.163
73710SOL    HW222970  13.521   8.710   1.304
73711SOL     OW22971  13.693   9.903   5.131
73711SOL    HW122972  13.622   9.967   5.138
73711SOL    HW222973  13.649   9.819   5.122
73712SOL     OW22974   1.302   2.540  11.812
73712SOL    HW122975   1.366   2.469  11.816
73712SOL    HW222976   1.326   2.589  11.733
73713SOL     OW22977   7.763  12.976   5.455
73713SOL    HW122978   7.728  12.972   5.366
73713SOL    HW222979   7.831  12.908   5.457
73714SOL     OW22980   1.160   7.352   6.333
73714SOL    HW122981   1.188   7.415   6.267
73714SOL    HW222982   1.237   7.343   6.390
73715SOL     OW22983   6.383  14.376  10.381
73715SOL    HW122984   6.421  14.458  10.350
73715SOL    HW222985   6.357  14.395  10.472
73716SOL     OW22986  12.414   8.927  11.182
73716SOL    HW122987  12.358   8.957  11.111
73716SOL    HW222988  12.414   8.832  11.174
73717SOL     OW22989  10.290   9.162   5.358
73717SOL    HW122990  10.292   9.152   5.453
73717SOL    HW222991  10.353   9.098   5.325
73718SOL     OW22992  12.153  12.120   7.042
73718SOL    HW122993  12.149  12.024   7.047
73718SOL    HW222994  12.194  12.138   6.957
73719SOL     OW22995  14.664   6.701   4.617
73719SOL    HW122996  14.677   6.713   4.523
73719SOL    HW222997  14.583   6.748   4.637
73720SOL     OW22998   3.720   5.440  14.848
73720SOL    HW122999   3.709   5.535  14.862
73720SOL    HW223000   3.777   5.412   0.047
73721SOL     OW23001  12.101  14.025   5.781
73721SOL    HW123002  12.066  13.970   5.711
73721SOL    HW223003  12.109  13.966   5.856
73722SOL     OW23004   8.202   8.986   6.867
73722SOL    HW123005   8.189   9.076   6.896
73722SOL    HW223006   8.143   8.934   6.921
73723SOL     OW23007  14.347   4.301   8.158
73723SOL    HW123008  14.288   4.230   8.133
73723SOL    HW223009  14.433   4.261   8.162
73724SOL     OW23010   8.703   9.730  10.586
73724SOL    HW123011   8.771   9.741  10.652
73724SOL    HW223012   8.745   9.756  10.504
73725SOL     OW23013   2.008  14.417  11.162
73725SOL    HW123014   2.088  14.399  11.114
73725SOL    HW223015   1.979  14.332  11.196
73726SOL     OW23016   6.935  10.888   9.474
73726SOL    HW123017   6.892  10.807   9.448
73726SOL    HW223018   7.018  10.860   9.514
73727SOL     OW23019   7.337  13.430  11.544
73727SOL    HW123020   7.302  13.468  11.625
73727SOL    HW223021   7.385  13.353  11.573
73728SOL     OW23022   3.278   6.610   8.421
73728SOL    HW123023   3.261   6.622   8.328
73728SOL    HW223024   3.285   6.699   8.456
73729SOL     OW23025   9.308   1.264   1.893
73729SOL    HW123026   9.325   1.297   1.981
73729SOL    HW223027   9.311   1.342   1.838
73730SOL     OW23028   3.301  14.595  13.406
73730SOL    HW123029   3.241  14.581  13.479
73730SOL    HW223030   3.245  14.609  13.330
73731SOL     OW23031   8.074  14.406  13.662
73731SOL    HW123032   8.057  14.401  13.756
73731SOL    HW223033   8.108  14.320  13.639
73732SOL     OW23034   1.808   2.826   6.270
73732SOL    HW123035   1.806   2.752   6.209
73732SOL    HW223036   1.784   2.788   6.355
73733SOL     OW23037   1.403  11.715   6.546
73733SOL    HW123038   1.396  11.657   6.622
73733SOL    HW223039   1.472  11.677   6.492
73734SOL     OW23040  11.790  11.005   7.626
73734SOL    HW123041  11.752  10.917   7.635
73734SOL    HW223042  11.848  11.014   7.702
73735SOL     OW23043   7.674   5.017   3.579
73735SOL    HW123044   7.621   5.094   3.560
73735SOL    HW223045   7.642   4.951   3.517
73736SOL     OW23046   4.196   4.568  11.481
73736SOL    HW123047   4.238   4.608  11.405
73736SOL    HW223048   4.145   4.638  11.521
73737SOL     OW23049   5.465  10.082   9.012
73737SOL    HW123050   5.402  10.075   8.940
73737SOL    HW223051   5.452  10.002   9.063
73738SOL     OW23052  11.851   4.170   2.739
73738SOL    HW123053  11.927   4.181   2.798
73738SOL    HW223054  11.776   4.198   2.792
73739SOL     OW23055  13.598   9.494   4.811
73739SOL    HW123056  13.580   9.421   4.870
73739SOL    HW223057  13.687   9.479   4.779
73740SOL     OW23058   9.498   7.375  11.830
73740SOL    HW123059   9.562   7.308  11.855
73740SOL    HW223060   9.487   7.428  11.908
73741SOL     OW23061  13.953  11.785   0.627
73741SOL    HW123062  13.901  11.830   0.562
73741SOL    HW223063  13.892  11.766   0.698
73742SOL     OW23064   6.940   5.904   8.634
73742SOL    HW123065   6.967   5.812   8.633
73742SOL    HW223066   7.017   5.952   8.606
73743SOL     OW23067  13.628   3.014   3.971
73743SOL    HW123068  13.547   2.966   3.990
73743SOL    HW223069  13.642   3.001   3.878
73744SOL     OW23070   4.640   3.549   3.981
73744SOL    HW123071   4.561   3.500   4.005
73744SOL    HW223072   4.712   3.497   4.017
73745SOL     OW23073  12.530  14.433   9.738
73745SOL    HW123074  12.600  14.390   9.788
73745SOL    HW223075  12.562  14.522   9.724
73746SOL     OW23076   9.735   5.990  12.999
73746SOL    HW123077   9.791   6.056  13.040
73746SOL    HW223078   9.780   5.907  13.017
73747SOL     OW23079   1.329  13.503   0.793
73747SOL    HW123080   1.316  13.542   0.707
73747SOL    HW223081   1.259  13.437   0.800
73748SOL     OW23082   5.620  14.222  11.528
73748SOL    HW123083   5.546  14.283  11.529
73748SOL    HW223084   5.579  14.136  11.529
73749SOL     OW23085   1.683   2.251   7.506
73749SOL    HW123086   1.618   2.251   7.575
73749SOL    HW223087   1.662   2.174   7.452
73750SOL     OW23088   0.261   8.969   2.351
73750SOL    HW123089   0.285   8.930   2.435
73750SOL    HW223090   0.282   9.062   2.362
73751SOL     OW23091   4.816  12.435   1.506
73751SOL    HW123092   4.851  12.367   1.564
73751SOL    HW223093   4.734  12.399   1.473
73752SOL     OW23094   3.298   7.510  10.509
73752SOL    HW123095   3.258   7.498  10.423
73752SOL    HW223096   3.289   7.425  10.552
73753SOL     OW23097  13.541   0.596  10.334
73753SOL    HW123098  13.462   0.587  10.388
73753SOL    HW223099  13.604   0.537  10.375
73754SOL     OW23100   8.943  10.493   0.788
73754SOL    HW123101   8.858  10.489   0.744
73754SOL    HW223102   9.002  10.529   0.722
73755SOL     OW23103   3.730   8.391  10.677
73755SOL    HW123104   3.737   8.486  10.679
73755SOL    HW223105   3.638   8.373  10.699
73756SOL     OW23106  10.828   7.841   1.529
73756SOL    HW123107  10.752   7.886   1.493
73756SOL    HW223108  10.892   7.842   1.458
73757SOL     OW23109  11.865   1.987  14.771
73757SOL    HW123110  11.774   1.975  14.797
73757SOL    HW223111  11.908   1.903  14.788
73758SOL     OW23112  12.413   3.775   0.826
73758SOL    HW123113  12.472   3.705   0.853
73758SOL    HW223114  12.454   3.855   0.858
73759SOL     OW23115  13.585  12.032   2.424
73759SOL    HW123116  13.543  12.003   2.343
73759SOL    HW223117  13.553  12.121   2.438
73760SOL     OW23118  14.145   2.620  13.425
73760SOL    HW123119  14.078   2.688  13.417
73760SOL    HW223120  14.197   2.627  13.345
73761SOL     OW23121   6.675   8.960   6.552
73761SOL    HW123122   6.648   8.965   6.644
73761SOL    HW223123   6.770   8.964   6.554
73762SOL     OW23124   9.621  13.673  14.261
73762SOL    HW123125   9.713  13.663  14.288
73762SOL    HW223126   9.595  13.757  14.299
73763SOL     OW23127   8.106   9.253   6.844
73763SOL    HW123128   8.135   9.244   6.935
73763SOL    HW223129   8.173   9.307   6.803
73764SOL     OW23130   0.411   3.548   2.715
73764SOL    HW123131   0.411   3.573   2.808
73764SOL    HW223132   0.421   3.631   2.668
73765SOL     OW23133   0.967   1.173  13.123
73765SOL    HW123134   1.000   1.193  13.211
73765SOL    HW223135   1.026   1.104  13.091
73766SOL     OW23136  10.132   5.359   9.956
73766SOL    HW123137  10.058   5.406   9.993
73766SOL    HW223138  10.109   5.345   9.864
73767SOL     OW23139  14.299  10.972  10.687
73767SOL    HW123140  14.294  10.945  10.595
73767SOL    HW223141  14.237  11.045  10.693
73768SOL     OW23142  13.032  13.139  14.851
73768SOL    HW123143  13.034  13.231   0.003
73768SOL    HW223144  12.939  13.120  14.839
73769SOL     OW23145  11.065   3.926   4.381
73769SOL    HW123146  11.075   4.010   4.335
73769SOL    HW223147  11.149   3.882   4.368
73770SOL     OW23148   8.202  10.765  12.228
73770SOL    HW123149   8.232  10.836  12.285
73770SOL    HW223150   8.200  10.688  12.285
73771SOL     OW23151   9.809  14.372   4.195
73771SOL    HW123152   9.889  14.400   4.239
73771SOL    HW223153   9.748  14.356   4.267
73772SOL     OW23154  11.307  10.585   8.323
73772SOL    HW123155  11.330  10.493   8.309
73772SOL    HW223156  11.387  10.625   8.357
73773SOL     OW23157   3.536   7.583  10.413
73773SOL    HW123158   3.513   7.663  10.367
73773SOL    HW223159   3.457   7.559  10.461
73774SOL     OW23160   5.333   0.827   3.957
73774SOL    HW123161   5.373   0.801   3.874
73774SOL    HW223162   5.242   0.846   3.936
73775SOL     OW23163   5.125   2.841  14.190
73775SOL    HW123164   5.177   2.900  14.136
73775SOL    HW223165   5.150   2.753  14.161
73776SOL     OW23166   0.356   2.446  14.052
73776SOL    HW123167   0.434   2.430  13.999
73776SOL    HW223168   0.317   2.360  14.065
73777SOL     OW23169  14.502  13.470   1.844
73777SOL    HW123170  14.560  13.545   1.859
73777SOL    HW223171  14.561  13.398   1.823
73778SOL     OW23172  14.703  10.308  14.584
73778SOL    HW123173  14.795  10.330  14.602
73778SOL    HW223174  14.653  10.362  14.645
73779SOL     OW23175   9.223   8.524  10.653
73779SOL    HW123176   9.159   8.485  10.593
73779SOL    HW223177   9.170   8.557  10.726
73780SOL     OW23178  12.152   9.838   7.369
73780SOL    HW123179  12.212   9.838   7.294
73780SOL    HW223180  12.170   9.921   7.413
73781SOL     OW23181   4.506  12.001  12.418
73781SOL    HW123182   4.601  12.012  12.431
73781SOL    HW223183   4.498  11.917  12.373
73782SOL     OW23184   0.789   4.736   9.357
73782SOL    HW123185   0.728   4.673   9.319
73782SOL    HW223186   0.766   4.738   9.450
73783SOL     OW23187   1.049   4.098   3.129
73783SOL    HW123188   0.973   4.040   3.122
73783SOL    HW223189   1.057   4.137   3.042
73784SOL     OW23190   7.040   9.896   7.757
73784SOL    HW123191   7.128   9.927   7.737
73784SOL    HW223192   6.982   9.954   7.708
73785SOL     OW23193   2.234   0.780  14.448
73785SOL    HW123194   2.164   0.789  14.513
73785SOL    HW223195   2.270   0.868  14.438
73786SOL     OW23196   5.169  14.566   0.832
73786SOL    HW123197   5.143  14.547   0.922
73786SOL    HW223198   5.104  14.630   0.802
73787SOL     OW23199   7.268   9.930  12.026
73787SOL    HW123200   7.188   9.881  12.008
73787SOL    HW223201   7.317   9.875  12.087
73788SOL     OW23202   6.478   5.369   3.155
73788SOL    HW123203   6.569   5.395   3.168
73788SOL    HW223204   6.454   5.407   3.071
73789SOL     OW23205  14.034   1.730   3.811
73789SOL    HW123206  14.106   1.730   3.874
73789SOL    HW223207  13.962   1.687   3.856
73790SOL     OW23208  14.359   6.563   8.931
73790SOL    HW123209  14.287   6.581   8.991
73790SOL    HW223210  14.434   6.609   8.968
73791SOL     OW23211   2.122  11.293   2.374
73791SOL    HW123212   2.207  11.337   2.380
73791SOL    HW223213   2.058  11.363   2.390
73792SOL     OW23214  11.587   5.346  11.367
73792SOL    HW123215  11.591   5.438  11.393
73792SOL    HW223216  11.511   5.312  11.413
73793SOL     OW23217  10.006  14.759   4.931
73793SOL    HW123218  10.018  14.696   5.002
73793SOL    HW223219  10.094  14.771   4.895
73794SOL     OW23220   4.552   5.658  12.667
73794SOL    HW123221   4.561   5.729  12.603
73794SOL    HW223222   4.463   5.666  12.700
73795SOL     OW23223  11.272   0.608  14.195
73795SOL    HW123224  11.241   0.542  14.257
73795SOL    HW223225  11.345   0.566  14.150
73796SOL     OW23226   3.712  11.668  14.452
73796SOL    HW123227   3.759  11.621  14.384
73796SOL    HW223228   3.767  11.658  14.530
73797SOL     OW23229  12.690   0.008   0.709
73797SOL    HW123230  12.770  14.838   0.680
73797SOL    HW223231  12.685   0.088   0.655
73798SOL     OW23232  13.026   9.814   0.554
73798SOL    HW123233  13.000   9.823   0.646
73798SOL    HW223234  12.952   9.771   0.512
73799SOL     OW23235  10.152   6.944   7.540
73799SOL    HW123236  10.191   6.870   7.587
73799SOL    HW223237  10.068   6.958   7.584
73800SOL     OW23238  11.324  12.496   3.619
73800SOL    HW123239  11.230  12.485   3.631
73800SOL    HW223240  11.337  12.591   3.614
73801SOL     OW23241   4.066   1.655   0.743
73801SOL    HW123242   4.119   1.576   0.747
73801SOL    HW223243   4.130   1.726   0.737
73802SOL     OW23244   0.588  12.802   1.186
73802SOL    HW123245   0.600  12.866   1.256
73802SOL    HW223246   0.510  12.832   1.139
73803SOL     OW23247   1.151   1.635   0.555
73803SOL    HW123248   1.153   1.542   0.578
73803SOL    HW223249   1.060   1.662   0.568
73804SOL     OW23250   8.334  14.809   7.722
73804SOL    HW123251   8.361  14.848   7.640
73804SOL    HW223252   8.255  14.858   7.747
73805SOL     OW23253   1.650   2.290   2.345
73805SOL    HW123254   1.686   2.249   2.423
73805SOL    HW223255   1.718   2.280   2.278
73806SOL     OW23256   0.907   1.324  14.475
73806SOL    HW123257   0.927   1.263  14.546
73806SOL    HW223258   0.956   1.403  14.496
73807SOL     OW23259  13.013  14.447   6.738
73807SOL    HW123260  12.952  14.511   6.700
73807SOL    HW223261  12.959  14.397   6.799
73808SOL     OW23262  12.541   6.905   2.888
73808SOL    HW123263  12.512   6.830   2.836
73808SOL    HW223264  12.581   6.964   2.825
73809SOL     OW23265  14.454   3.057   6.600
73809SOL    HW123266  14.421   3.039   6.688
73809SOL    HW223267  14.499   2.976   6.575
73810SOL     OW23268  14.763   3.484   1.534
73810SOL    HW123269  14.707   3.407   1.540
73810SOL    HW223270  14.749   3.531   1.616
73811SOL     OW23271   2.933   4.004   9.784
73811SOL    HW123272   2.860   4.053   9.748
73811SOL    HW223273   2.953   3.938   9.718
73812SOL     OW23274   0.332   4.429   8.165
73812SOL    HW123275   0.350   4.439   8.072
73812SOL    HW223276   0.413   4.456   8.209
73813SOL     OW23277  11.544   4.361   2.196
73813SOL    HW123278  11.603   4.396   2.262
73813SOL    HW223279  11.574   4.272   2.180
73814SOL     OW23280  14.767   9.761  11.585
73814SOL    HW123281  14.837   9.825  11.572
73814SOL    HW223282  14.767   9.745  11.679
73815SOL     OW23283   7.613   9.906   2.883
73815SOL    HW123284   7.633   9.960   2.806
73815SOL    HW223285   7.592   9.969   2.952
73816SOL     OW23286   0.583   4.966  13.794
73816SOL    HW123287   0.506   4.918  13.825
73816SOL    HW223288   0.657   4.921  13.835
73817SOL     OW23289  12.454   1.930   8.630
73817SOL    HW123290  12.411   1.903   8.548
73817SOL    HW223291  12.392   1.992   8.669
73818SOL     OW23292   3.924  12.738   6.123
73818SOL    HW123293   3.969  12.668   6.169
73818SOL    HW223294   3.983  12.761   6.051
73819SOL     OW23295  10.440   9.464   7.413
73819SOL    HW123296  10.463   9.474   7.320
73819SOL    HW223297  10.493   9.390   7.443
73820SOL     OW23298   4.784   2.587   0.394
73820SOL    HW123299   4.848   2.646   0.354
73820SOL    HW223300   4.799   2.595   0.488
73821SOL     OW23301   9.550   0.106  12.726
73821SOL    HW123302   9.521   0.189  12.765
73821SOL    HW223303   9.582   0.055  12.801
73822SOL     OW23304  13.254  12.875   1.708
73822SOL    HW123305  13.328  12.935   1.718
73822SOL    HW223306  13.189  12.907   1.770
73823SOL     OW23307   3.517   0.249   6.566
73823SOL    HW123308   3.498   0.155   6.562
73823SOL    HW223309   3.609   0.254   6.590
73824SOL     OW23310   9.763   7.595  12.544
73824SOL    HW123311   9.830   7.555  12.600
73824SOL    HW223312   9.806   7.673  12.509
73825SOL     OW23313  10.664   6.201  13.886
73825SOL    HW123314  10.656   6.206  13.982
73825SOL    HW223315  10.742   6.147  13.872
73826SOL     OW23316   0.854   8.916   1.850
73826SOL    HW123317   0.861   8.851   1.780
73826SOL    HW223318   0.764   8.907   1.881
73827SOL     OW23319   3.520   0.610   9.554
73827SOL    HW123320   3.559   0.694   9.527
73827SOL    HW223321   3.509   0.619   9.649
73828SOL     OW23322   9.360   1.189  10.990
73828SOL    HW123323   9.406   1.178  10.907
73828SOL    HW223324   9.303   1.264  10.977
73829SOL     OW23325  13.139  13.001   5.124
73829SOL    HW123326  13.158  13.074   5.184
73829SOL    HW223327  13.205  12.935   5.146
73830SOL     OW23328   9.274   4.181  12.248
73830SOL    HW123329   9.254   4.164  12.340
73830SOL    HW223330   9.191   4.170  12.202
73831SOL     OW23331   9.525  12.198  13.402
73831SOL    HW123332   9.448  12.194  13.458
73831SOL    HW223333   9.589  12.248  13.452
73832SOL     OW23334  12.830  13.491   2.606
73832SOL    HW123335  12.867  13.424   2.664
73832SOL    HW223336  12.826  13.449   2.521
73833SOL     OW23337  12.222   3.263   1.192
73833SOL    HW123338  12.247   3.173   1.216
73833SOL    HW223339  12.132   3.255   1.162
73834SOL     OW23340  10.492  10.209  14.050
73834SOL    HW123341  10.561  10.176  13.993
73834SOL    HW223342  10.430  10.251  13.990
73835SOL     OW23343   0.330  10.501   3.051
73835SOL    HW123344   0.387  10.509   3.128
73835SOL    HW223345   0.253  10.454   3.083
73836SOL     OW23346   6.260   5.793   5.933
73836SOL    HW123347   6.269   5.827   6.022
73836SOL    HW223348   6.166   5.795   5.915
73837SOL     OW23349   5.651  13.089   6.037
73837SOL    HW123350   5.562  13.087   6.072
73837SOL    HW223351   5.703  13.132   6.105
73838SOL     OW23352   1.888   0.457  10.068
73838SOL    HW123353   1.903   0.523  10.136
73838SOL    HW223354   1.802   0.420  10.089
73839SOL     OW23355   4.694   1.787  13.458
73839SOL    HW123356   4.671   1.842  13.383
73839SOL    HW223357   4.610   1.754  13.491
73840SOL     OW23358   0.364   4.431   7.391
73840SOL    HW123359   0.322   4.361   7.341
73840SOL    HW223360   0.332   4.512   7.352
73841SOL     OW23361   9.451   1.518   6.705
73841SOL    HW123362   9.494   1.599   6.680
73841SOL    HW223363   9.376   1.511   6.646
73842SOL     OW23364   4.404  13.578  13.700
73842SOL    HW123365   4.429  13.489  13.678
73842SOL    HW223366   4.309  13.579  13.693
73843SOL     OW23367   6.749   4.760   9.329
73843SOL    HW123368   6.786   4.827   9.272
73843SOL    HW223369   6.725   4.688   9.270
73844SOL     OW23370   8.284   0.253   0.102
73844SOL    HW123371   8.295   0.297   0.018
73844SOL    HW223372   8.318   0.164   0.088
73845SOL     OW23373   4.513  10.097   4.524
73845SOL    HW123374   4.574  10.098   4.451
73845SOL    HW223375   4.526  10.182   4.567
73846SOL     OW23376   1.249  10.465  11.680
73846SOL    HW123377   1.189  10.489  11.751
73846SOL    HW223378   1.198  10.405  11.625
73847SOL     OW23379  13.710  10.665   7.997
73847SOL    HW123380  13.758  10.664   7.914
73847SOL    HW223381  13.623  10.697   7.974
73848SOL     OW23382   9.258  10.984   5.116
73848SOL    HW123383   9.336  11.034   5.141
73848SOL    HW223384   9.236  11.016   5.028
73849SOL     OW23385   8.780   4.271   4.963
73849SOL    HW123386   8.861   4.281   5.013
73849SOL    HW223387   8.735   4.355   4.974
73850SOL     OW23388  11.132   8.943   1.775
73850SOL    HW123389  11.136   9.006   1.846
73850SOL    HW223390  11.135   8.857   1.819
73851SOL     OW23391  10.863   3.888   8.632
73851SOL    HW123392  10.811   3.816   8.596
73851SOL    HW223393  10.953   3.854   8.632
73852SOL     OW23394   1.331  13.872   5.376
73852SOL    HW123395   1.318  13.958   5.417
73852SOL    HW223396   1.314  13.809   5.446
73853SOL     OW23397   8.482   8.475  12.430
73853SOL    HW123398   8.492   8.472  12.525
73853SOL    HW223399   8.388   8.477  12.416
73854SOL     OW23400  11.318   2.569   7.661
73854SOL    HW123401  11.327   2.489   7.714
73854SOL    HW223402  11.363   2.636   7.711
73855SOL     OW23403   9.037   9.720  11.433
73855SOL    HW123404   9.100   9.708  11.362
73855SOL    HW223405   9.054   9.809  11.465
73856SOL     OW23406  10.199   0.220   0.524
73856SOL    HW123407  10.246   0.299   0.496
73856SOL    HW223408  10.198   0.225   0.620
73857SOL     OW23409  13.171   3.617   5.924
73857SOL    HW123410  13.194   3.640   6.014
73857SOL    HW223411  13.243   3.651   5.871
73858SOL     OW23412  11.485  12.878   8.624
73858SOL    HW123413  11.535  12.914   8.551
73858SOL    HW223414  11.509  12.785   8.627
73859SOL     OW23415   0.070  11.827  12.353
73859SOL    HW123416   0.123  11.906  12.343
73859SOL    HW223417   0.119  11.773  12.415
73860SOL     OW23418  11.885  11.791   6.702
73860SOL    HW123419  11.929  11.755   6.779
73860SOL    HW223420  11.794  11.803   6.729
73861SOL     OW23421   1.424   3.856   1.554
73861SOL    HW123422   1.434   3.900   1.639
73861SOL    HW223423   1.340   3.887   1.521
73862SOL     OW23424  12.746   7.909   7.401
73862SOL    HW123425  12.682   7.972   7.368
73862SOL    HW223426  12.776   7.862   7.323
73863SOL     OW23427   5.071  14.803   0.235
73863SOL    HW123428   5.123  14.799   0.315
73863SOL    HW223429   5.135  14.821   0.166
73864SOL     OW23430  13.775   6.885   5.749
73864SOL    HW123431  13.686   6.849   5.751
73864SOL    HW223432  13.786   6.927   5.834
73865SOL     OW23433   9.901   2.158   1.540
73865SOL    HW123434   9.913   2.086   1.477
73865SOL    HW223435   9.842   2.219   1.496
73866SOL     OW23436   1.823   8.238   8.656
73866SOL    HW123437   1.916   8.230   8.678
73866SOL    HW223438   1.821   8.268   8.566
73867SOL     OW23439  10.914   0.423   3.361
73867SOL    HW123440  10.860   0.495   3.396
73867SOL    HW223441  10.977   0.465   3.303
73868SOL     OW23442  13.756   2.408  12.312
73868SOL    HW123443  13.712   2.399  12.397
73868SOL    HW223444  13.823   2.340  12.312
73869SOL     OW23445   3.669  10.271   8.400
73869SOL    HW123446   3.677  10.233   8.488
73869SOL    HW223447   3.668  10.195   8.342
73870SOL     OW23448   8.563  12.972   2.082
73870SOL    HW123449   8.511  12.894   2.061
73870SOL    HW223450   8.654  12.940   2.086
73871SOL     OW23451   2.559  10.163   5.533
73871SOL    HW123452   2.535  10.096   5.468
73871SOL    HW223453   2.654  10.166   5.530
73872SOL     OW23454   3.151   5.853   3.366
73872SOL    HW123455   3.214   5.811   3.308
73872SOL    HW223456   3.134   5.938   3.325
73873SOL     OW23457   6.752   4.730  11.968
73873SOL    HW123458   6.791   4.654  11.926
73873SOL    HW223459   6.786   4.805  11.918
73874SOL     OW23460   3.059   6.138   9.561
73874SOL    HW123461   3.061   6.083   9.639
73874SOL    HW223462   3.123   6.098   9.502
73875SOL     OW23463   7.118   9.191   3.951
73875SOL    HW123464   7.023   9.183   3.945
73875SOL    HW223465   7.152   9.139   3.878
73876SOL     OW23466   2.642   4.627  12.910
73876SOL    HW123467   2.722   4.666  12.946
73876SOL    HW223468   2.584   4.702  12.897
73877SOL     OW23469   4.136   5.912   9.650
73877SOL    HW123470   4.140   6.003   9.679
73877SOL    HW223471   4.162   5.914   9.558
73878SOL     OW23472  11.304   0.943  13.433
73878SOL    HW123473  11.298   0.865  13.377
73878SOL    HW223474  11.385   0.987  13.404
73879SOL     OW23475   6.749   7.707   3.369
73879SOL    HW123476   6.763   7.654   3.448
73879SOL    HW223477   6.659   7.688   3.343
73880SOL     OW23478  12.813   9.010   6.949
73880SOL    HW123479  12.744   8.991   6.886
73880SOL    HW223480  12.792   8.955   7.024
73881SOL     OW23481  13.927  13.082  11.403
73881SOL    HW123482  13.907  12.993  11.372
73881SOL    HW223483  13.911  13.138  11.327
73882SOL     OW23484   2.129   0.015   4.902
73882SOL    HW123485   2.082   0.091   4.938
73882SOL    HW223486   2.221   0.036   4.914
73883SOL     OW23487  12.390  12.946   0.066
73883SOL    HW123488  12.464  12.989   0.110
73883SOL    HW223489  12.405  12.962  14.846
73884SOL     OW23490   0.183   8.730  14.681
73884SOL    HW123491   0.174   8.725  14.776
73884SOL    HW223492   0.268   8.772  14.667
73885SOL     OW23493   8.975   4.406   2.106
73885SOL    HW123494   8.956   4.491   2.067
73885SOL    HW223495   9.068   4.411   2.130
73886SOL     OW23496  12.671   4.079  12.881
73886SOL    HW123497  12.627   4.006  12.924
73886SOL    HW223498  12.603   4.118  12.826
73887SOL     OW23499  11.504   4.290  12.331
73887SOL    HW123500  11.580   4.322  12.381
73887SOL    HW223501  11.478   4.364  12.277
73888SOL     OW23502   9.392  13.736   8.027
73888SOL    HW123503   9.298  13.737   8.045
73888SOL    HW223504   9.415  13.643   8.028
73889SOL     OW23505  14.466   7.952  11.488
73889SOL    HW123506  14.439   8.044  11.489
73889SOL    HW223507  14.533   7.947  11.421
73890SOL     OW23508  10.240   5.767   3.880
73890SOL    HW123509  10.149   5.742   3.867
73890SOL    HW223510  10.239   5.862   3.884
73891SOL     OW23511   0.651   6.219   1.573
73891SOL    HW123512   0.704   6.216   1.653
73891SOL    HW223513   0.570   6.261   1.600
73892SOL     OW23514  11.153   6.438  10.374
73892SOL    HW123515  11.124   6.529  10.371
73892SOL    HW223516  11.134   6.409  10.463
73893SOL     OW23517   7.135   9.812   2.095
73893SOL    HW123518   7.050   9.856   2.100
73893SOL    HW223519   7.191   9.860   2.157
73894SOL     OW23520   5.764   3.318   0.195
73894SOL    HW123521   5.824   3.271   0.252
73894SOL    HW223522   5.704   3.362   0.255
73895SOL     OW23523   1.874  13.671   5.571
73895SOL    HW123524   1.780  13.662   5.557
73895SOL    HW223525   1.914  13.638   5.490
73896SOL     OW23526  10.352   2.583   6.855
73896SOL    HW123527  10.425   2.524   6.873
73896SOL    HW223528  10.393   2.670   6.846
73897SOL     OW23529  12.074   9.098   0.954
73897SOL    HW123530  12.081   9.075   0.861
73897SOL    HW223531  12.097   9.191   0.957
73898SOL     OW23532   8.527   4.635  11.115
73898SOL    HW123533   8.531   4.676  11.028
73898SOL    HW223534   8.445   4.667  11.152
73899SOL     OW23535  14.476   7.582   1.377
73899SOL    HW123536  14.427   7.664   1.366
73899SOL    HW223537  14.411   7.520   1.411
73900SOL     OW23538   5.455  12.056  10.272
73900SOL    HW123539   5.479  12.123  10.209
73900SOL    HW223540   5.473  12.095  10.358
73901SOL     OW23541   8.222  10.100  13.782
73901SOL    HW123542   8.302  10.147  13.803
73901SOL    HW223543   8.168  10.108  13.861
73902SOL     OW23544   7.813  14.284  10.345
73902SOL    HW123545   7.738  14.305  10.400
73902SOL    HW223546   7.807  14.344  10.271
73903SOL     OW23547   0.463  14.602   9.324
73903SOL    HW123548   0.457  14.646   9.409
73903SOL    HW223549   0.556  14.603   9.303
73904SOL     OW23550   8.645  12.567   8.326
73904SOL    HW123551   8.687  12.602   8.405
73904SOL    HW223552   8.625  12.645   8.274
73905SOL     OW23553   5.646   9.329   8.961
73905SOL    HW123554   5.645   9.419   8.929
73905SOL    HW223555   5.554   9.301   8.958
73906SOL     OW23556   4.693   3.209  11.758
73906SOL    HW123557   4.663   3.134  11.809
73906SOL    HW223558   4.783   3.224  11.786
73907SOL     OW23559   9.044   6.609   2.403
73907SOL    HW123560   9.073   6.684   2.351
73907SOL    HW223561   9.001   6.552   2.340
73908SOL     OW23562   3.203   8.703   8.071
73908SOL    HW123563   3.292   8.671   8.085
73908SOL    HW223564   3.151   8.662   8.139
73909SOL     OW23565   0.098   3.597   7.588
73909SOL    HW123566   0.185   3.634   7.584
73909SOL    HW223567   0.106   3.512   7.545
73910SOL     OW23568  12.944   9.689  13.909
73910SOL    HW123569  12.905   9.607  13.942
73910SOL    HW223570  12.899   9.757  13.958
73911SOL     OW23571   4.078   2.275  13.718
73911SOL    HW123572   4.119   2.357  13.744
73911SOL    HW223573   4.014   2.299  13.651
73912SOL     OW23574  10.414   1.373   6.515
73912SOL    HW123575  10.439   1.463   6.494
73912SOL    HW223576  10.491   1.335   6.557
73913SOL     OW23577   1.911   2.639   3.286
73913SOL    HW123578   2.005   2.656   3.281
73913SOL    HW223579   1.903   2.544   3.281
73914SOL     OW23580   2.325  13.012   5.015
73914SOL    HW123581   2.345  12.948   5.083
73914SOL    HW223582   2.389  13.082   5.029
73915SOL     OW23583   3.511   7.055   9.179
73915SOL    HW123584   3.503   7.069   9.273
73915SOL    HW223585   3.547   6.967   9.170
73916SOL     OW23586   3.967   6.600  10.831
73916SOL    HW123587   4.023   6.540  10.881
73916SOL    HW223588   3.892   6.547  10.805
73917SOL     OW23589   8.869   5.855  10.028
73917SOL    HW123590   8.830   5.919   9.969
73917SOL    HW223591   8.824   5.868  10.111
73918SOL     OW23592   8.117  12.167  10.287
73918SOL    HW123593   8.030  12.136  10.263
73918SOL    HW223594   8.175  12.135  10.218
73919SOL     OW23595   9.379   5.235   1.794
73919SOL    HW123596   9.447   5.180   1.756
73919SOL    HW223597   9.426   5.311   1.828
73920SOL     OW23598   1.235   0.405  11.255
73920SOL    HW123599   1.272   0.444  11.335
73920SOL    HW223600   1.306   0.410  11.191
73921SOL     OW23601  11.051   9.793   0.264
73921SOL    HW123602  11.136   9.776   0.225
73921SOL    HW223603  11.069   9.799   0.358
73922SOL     OW23604   0.285   5.810   7.811
73922SOL    HW123605   0.364   5.763   7.783
73922SOL    HW223606   0.219   5.742   7.820
73923SOL     OW23607   5.477  12.385   7.595
73923SOL    HW123608   5.548  12.320   7.595
73923SOL    HW223609   5.445  12.385   7.685
73924SOL     OW23610  13.418   6.161  11.833
73924SOL    HW123611  13.486   6.132  11.894
73924SOL    HW223612  13.447   6.130  11.748
73925SOL     OW23613   1.545  11.360   8.927
73925SOL    HW123614   1.542  11.400   9.013
73925SOL    HW223615   1.635  11.375   8.896
73926SOL     OW23616   8.240   1.030   0.782
73926SOL    HW123617   8.325   1.068   0.804
73926SOL    HW223618   8.260   0.941   0.752
73927SOL     OW23619  12.773   7.566  13.498
73927SOL    HW123620  12.733   7.651  13.479
73927SOL    HW223621  12.710   7.502  13.465
73928SOL     OW23622  13.778   8.210   0.859
73928SOL    HW123623  13.749   8.214   0.768
73928SOL    HW223624  13.872   8.225   0.855
73929SOL     OW23625   2.796  14.572  13.115
73929SOL    HW123626   2.886  14.561  13.085
73929SOL    HW223627   2.780  14.666  13.111
73930SOL     OW23628   2.026  14.848   0.416
73930SOL    HW123629   1.939   0.014   0.408
73930SOL    HW223630   2.077   0.040   0.464
73931SOL     OW23631   2.600   7.556   7.686
73931SOL    HW123632   2.613   7.572   7.593
73931SOL    HW223633   2.508   7.574   7.701
73932SOL     OW23634   9.069   5.370   1.716
73932SOL    HW123635   9.162   5.369   1.741
73932SOL    HW223636   9.024   5.408   1.792
73933SOL     OW23637   0.510  14.042   7.481
73933SOL    HW123638   0.553  14.031   7.566
73933SOL    HW223639   0.434  14.098   7.500
73934SOL     OW23640   4.543   5.384   9.436
73934SOL    HW123641   4.591   5.463   9.411
73934SOL    HW223642   4.478   5.414   9.499
73935SOL     OW23643   8.123   2.477   7.555
73935SOL    HW123644   8.027   2.473   7.557
73935SOL    HW223645   8.150   2.387   7.536
73936SOL     OW23646   1.676   6.488   0.289
73936SOL    HW123647   1.717   6.401   0.286
73936SOL    HW223648   1.617   6.484   0.364
73937SOL     OW23649   6.296   5.562   6.226
73937SOL    HW123650   6.205   5.591   6.216
73937SOL    HW223651   6.303   5.486   6.169
73938SOL     OW23652  14.156  10.349   9.252
73938SOL    HW123653  14.171  10.258   9.224
73938SOL    HW223654  14.124  10.394   9.174
73939SOL     OW23655  14.175   5.723  10.932
73939SOL    HW123656  14.191   5.778  10.854
73939SOL    HW223657  14.262   5.698  10.962
73940SOL     OW23658  13.297  14.614  10.764
73940SOL    HW123659  13.243  14.693  10.771
73940SOL    HW223660  13.384  14.647  10.744
73941SOL     OW23661  12.294   2.176   1.696
73941SOL    HW123662  12.316   2.260   1.655
73941SOL    HW223663  12.257   2.200   1.781
73942SOL     OW23664   5.748   3.737   1.325
73942SOL    HW123665   5.753   3.820   1.279
73942SOL    HW223666   5.780   3.672   1.262
73943SOL     OW23667   9.744   1.863   0.565
73943SOL    HW123668   9.749   1.929   0.495
73943SOL    HW223669   9.678   1.897   0.625
73944SOL     OW23670   8.951  12.762   4.051
73944SOL    HW123671   8.888  12.701   4.089
73944SOL    HW223672   8.910  12.792   3.970
73945SOL     OW23673  10.323   2.494   4.321
73945SOL    HW123674  10.342   2.489   4.228
73945SOL    HW223675  10.395   2.448   4.364
73946SOL     OW23676   0.965   3.508  13.260
73946SOL    HW123677   0.963   3.439  13.193
73946SOL    HW223678   1.037   3.565  13.234
73947SOL     OW23679   5.629   2.669   1.219
73947SOL    HW123680   5.670   2.675   1.133
73947SOL    HW223681   5.538   2.694   1.205
73948SOL     OW23682   7.742  13.864   2.113
73948SOL    HW123683   7.764  13.800   2.046
73948SOL    HW223684   7.742  13.814   2.195
73949SOL     OW23685   9.469   4.424   4.399
73949SOL    HW123686   9.390   4.397   4.351
73949SOL    HW223687   9.437   4.480   4.469
73950SOL     OW23688  10.740   6.804   5.307
73950SOL    HW123689  10.726   6.749   5.230
73950SOL    HW223690  10.686   6.763   5.375
73951SOL     OW23691  13.766   4.965  11.142
73951SOL    HW123692  13.763   4.995  11.233
73951SOL    HW223693  13.860   4.960  11.122
73952SOL     OW23694  13.392  10.177  13.465
73952SOL    HW123695  13.424  10.114  13.530
73952SOL    HW223696  13.405  10.263  13.506
73953SOL     OW23697   2.956  13.240  13.124
73953SOL    HW123698   2.927  13.252  13.033
73953SOL    HW223699   2.884  13.275  13.177
73954SOL     OW23700  13.974   6.245   7.321
73954SOL    HW123701  13.931   6.187   7.257
73954SOL    HW223702  13.960   6.202   7.405
73955SOL     OW23703   9.492   0.284   7.460
73955SOL    HW123704   9.469   0.305   7.551
73955SOL    HW223705   9.563   0.344   7.439
73956SOL     OW23706   5.239   0.107  12.525
73956SOL    HW123707   5.301   0.116  12.453
73956SOL    HW223708   5.170   0.171  12.505
73957SOL     OW23709  10.010  14.500   5.373
73957SOL    HW123710  10.051  14.505   5.459
73957SOL    HW223711  10.006  14.406   5.354
73958SOL     OW23712  14.858   3.353   8.179
73958SOL    HW123713  14.804   3.432   8.177
73958SOL    HW223714  14.835   3.310   8.262
73959SOL     OW23715   9.665  13.186   4.305
73959SOL    HW123716   9.692  13.277   4.316
73959SOL    HW223717   9.667  13.150   4.393
73960SOL     OW23718  12.487   2.790   5.329
73960SOL    HW123719  12.410   2.833   5.291
73960SOL    HW223720  12.503   2.716   5.270
73961SOL     OW23721   5.378  14.299   8.357
73961SOL    HW123722   5.326  14.334   8.284
73961SOL    HW223723   5.315  14.247   8.408
73962SOL     OW23724   9.409   5.085   4.399
73962SOL    HW123725   9.423   5.040   4.316
73962SOL    HW223726   9.436   5.176   4.382
73963SOL     OW23727   9.896  13.812  13.726
73963SOL    HW123728   9.868  13.862  13.802
73963SOL    HW223729   9.970  13.861  13.690
73964SOL     OW23730   8.197   1.297   7.793
73964SOL    HW123731   8.256   1.321   7.864
73964SOL    HW223732   8.116   1.270   7.837
73965SOL     OW23733   6.242  13.561  14.661
73965SOL    HW123734   6.177  13.493  14.644
73965SOL    HW223735   6.322  13.513  14.684
73966SOL     OW23736   8.051  13.158   2.646
73966SOL    HW123737   8.092  13.075   2.623
73966SOL    HW223738   8.080  13.175   2.736
73967SOL     OW23739   2.035   6.429  10.061
73967SOL    HW123740   1.982   6.410  10.139
73967SOL    HW223741   2.019   6.356  10.002
73968SOL     OW23742   1.920  12.084  11.580
73968SOL    HW123743   1.885  12.006  11.623
73968SOL    HW223744   1.896  12.074  11.488
73969SOL     OW23745   0.743   7.265   4.899
73969SOL    HW123746   0.675   7.230   4.955
73969SOL    HW223747   0.823   7.260   4.952
73970SOL     OW23748   8.741  11.775   6.506
73970SOL    HW123749   8.794  11.835   6.557
73970SOL    HW223750   8.721  11.703   6.566
73971SOL     OW23751   8.016   5.470   7.266
73971SOL    HW123752   7.993   5.520   7.187
73971SOL    HW223753   7.937   5.472   7.320
73972SOL     OW23754   0.689   0.135  11.131
73972SOL    HW123755   0.654   0.182  11.206
73972SOL    HW223756   0.784   0.130  11.148
73973SOL     OW23757   2.148  13.937  14.051
73973SOL    HW123758   2.070  13.920  13.998
73973SOL    HW223759   2.196  14.003  14.002
73974SOL     OW23760   9.808   5.296   9.646
73974SOL    HW123761   9.767   5.212   9.625
73974SOL    HW223762   9.901   5.276   9.651
73975SOL     OW23763   5.680   2.660   8.806
73975SOL    HW123764   5.713   2.738   8.761
73975SOL    HW223765   5.717   2.586   8.758
73976SOL     OW23766   4.258   8.344  14.376
73976SOL    HW123767   4.279   8.366  14.466
73976SOL    HW223768   4.163   8.329  14.377
73977SOL     OW23769   8.019   6.903  13.356
73977SOL    HW123770   8.000   6.810  13.366
73977SOL    HW223771   7.953   6.934  13.293
73978SOL     OW23772   5.882  14.056   4.168
73978SOL    HW123773   5.946  14.072   4.237
73978SOL    HW223774   5.802  14.032   4.215
73979SOL     OW23775   8.770   8.619   1.543
73979SOL    HW123776   8.767   8.691   1.479
73979SOL    HW223777   8.740   8.543   1.494
73980SOL     OW23778   0.367  10.919   2.623
73980SOL    HW123779   0.460  10.932   2.609
73980SOL    HW223780   0.360  10.879   2.710
73981SOL     OW23781   9.674   2.225  12.295
73981SOL    HW123782   9.632   2.287  12.235
73981SOL    HW223783   9.752   2.195  12.248
73982SOL     OW23784   1.000   1.958  10.895
73982SOL    HW123785   1.002   1.914  10.809
73982SOL    HW223786   1.079   1.928  10.939
73983SOL     OW23787   4.195   6.049   8.789
73983SOL    HW123788   4.155   6.125   8.747
73983SOL    HW223789   4.121   5.994   8.816
73984SOL     OW23790   0.499  10.079   1.386
73984SOL    HW123791   0.584  10.049   1.418
73984SOL    HW223792   0.435  10.044   1.449
73985SOL     OW23793  11.367   0.254  10.993
73985SOL    HW123794  11.407   0.188  11.051
73985SOL    HW223795  11.385   0.222  10.905
73986SOL     OW23796  14.619   8.267   5.074
73986SOL    HW123797  14.552   8.216   5.120
73986SOL    HW223798  14.576   8.296   4.993
73987SOL     OW23799  10.747   5.100  10.706
73987SOL    HW123800  10.710   5.061  10.785
73987SOL    HW223801  10.765   5.191  10.731
73988SOL     OW23802   0.394  10.558   8.820
73988SOL    HW123803   0.450  10.545   8.897
73988SOL    HW223804   0.456  10.570   8.747
73989SOL     OW23805   5.369   5.351  12.502
73989SOL    HW123806   5.388   5.437  12.465
73989SOL    HW223807   5.321   5.370  12.582
73990SOL     OW23808   7.441   7.612  14.225
73990SOL    HW123809   7.492   7.607  14.144
73990SOL    HW223810   7.466   7.696  14.264
73991SOL     OW23811   6.775  13.751   3.210
73991SOL    HW123812   6.790  13.836   3.251
73991SOL    HW223813   6.734  13.698   3.278
73992SOL     OW23814  13.606  13.449  14.444
73992SOL    HW123815  13.560  13.465  14.527
73992SOL    HW223816  13.630  13.536  14.412
73993SOL     OW23817   5.745  14.361   2.254
73993SOL    HW123818   5.791  14.297   2.308
73993SOL    HW223819   5.757  14.444   2.299
73994SOL     OW23820  13.483   9.955   5.693
73994SOL    HW123821  13.535   9.910   5.626
73994SOL    HW223822  13.393   9.928   5.675
73995SOL     OW23823   7.816   8.060  14.031
73995SOL    HW123824   7.844   8.147  14.058
73995SOL    HW223825   7.796   8.069  13.938
73996SOL     OW23826   1.716   3.965   7.839
73996SOL    HW123827   1.705   3.980   7.745
73996SOL    HW223828   1.634   3.995   7.878
73997SOL     OW23829   7.952   5.455  13.653
73997SOL    HW123830   7.961   5.368  13.693
73997SOL    HW223831   8.038   5.472  13.613
73998SOL     OW23832   9.523   9.312   9.350
73998SOL    HW123833   9.599   9.358   9.385
73998SOL    HW223834   9.448   9.367   9.373
73999SOL     OW23835   9.166   3.383  10.663
73999SOL    HW123836   9.120   3.468  10.664
73999SOL    HW223837   9.237   3.396  10.601
74000SOL     OW23838  10.298  12.944   7.310
74000SOL    HW123839  10.308  12.977   7.221
74000SOL    HW223840  10.363  12.874   7.317
74001SOL     OW23841   5.714  10.221   9.011
74001SOL    HW123842   5.626  10.183   9.015
74001SOL    HW223843   5.732  10.248   9.101
74002SOL     OW23844   1.202   6.277   9.894
74002SOL    HW123845   1.212   6.214   9.966
74002SOL    HW223846   1.286   6.324   9.892
74003SOL     OW23847   4.342   6.502   5.470
74003SOL    HW123848   4.311   6.489   5.559
74003SOL    HW223849   4.345   6.414   5.432
74004SOL     OW23850   4.320   4.361  11.988
74004SOL    HW123851   4.402   4.363  11.937
74004SOL    HW223852   4.344   4.399  12.072
74005SOL     OW23853   9.799   0.416   5.111
74005SOL    HW123854   9.889   0.447   5.115
74005SOL    HW223855   9.765   0.430   5.200
74006SOL     OW23856   6.875   7.589  10.273
74006SOL    HW123857   6.919   7.648  10.212
74006SOL    HW223858   6.855   7.643  10.350
74007SOL     OW23859  14.675  11.717   0.097
74007SOL    HW123860  14.600  11.773   0.077
74007SOL    HW223861  14.636  11.631   0.116
74008SOL     OW23862  10.440   5.518  13.357
74008SOL    HW123863  10.453   5.562  13.273
74008SOL    HW223864  10.479   5.432  13.346
74009SOL     OW23865   2.029   4.028  10.962
74009SOL    HW123866   2.041   3.935  10.943
74009SOL    HW223867   1.959   4.031  11.028
74010SOL     OW23868  11.185  11.489  14.622
74010SOL    HW123869  11.148  11.413  14.667
74010SOL    HW223870  11.279  11.474  14.623
74011SOL     OW23871  10.802   3.680   6.771
74011SOL    HW123872  10.864   3.703   6.840
74011SOL    HW223873  10.789   3.761   6.722
74012SOL     OW23874   1.172  14.267   0.153
74012SOL    HW123875   1.240  14.244   0.089
74012SOL    HW223876   1.214  14.254   0.238
74013SOL     OW23877   7.808   3.026   0.505
74013SOL    HW123878   7.852   2.985   0.431
74013SOL    HW223879   7.817   3.120   0.489
74014SOL     OW23880   7.863   3.198  13.440
74014SOL    HW123881   7.868   3.124  13.380
74014SOL    HW223882   7.948   3.200  13.484
74015SOL     OW23883   1.333  14.468   7.914
74015SOL    HW123884   1.240  14.478   7.932
74015SOL    HW223885   1.339  14.460   7.819
74016SOL     OW23886  12.755   1.908   3.021
74016SOL    HW123887  12.720   1.933   2.935
74016SOL    HW223888  12.713   1.968   3.082
74017SOL     OW23889  13.269   0.155  11.448
74017SOL    HW123890  13.326   0.226  11.477
74017SOL    HW223891  13.315   0.117  11.372
74018SOL     OW23892  11.846   2.851   2.611
74018SOL    HW123893  11.927   2.894   2.638
74018SOL    HW223894  11.870   2.803   2.531
74019SOL     OW23895   3.404   9.794  13.811
74019SOL    HW123896   3.397   9.749  13.727
74019SOL    HW223897   3.313   9.805  13.840
74020SOL     OW23898   7.040   0.383  13.856
74020SOL    HW123899   7.078   0.366  13.770
74020SOL    HW223900   7.115   0.396  13.914
74021SOL     OW23901   4.475   7.076   4.046
74021SOL    HW123902   4.413   7.147   4.063
74021SOL    HW223903   4.463   7.056   3.953
74022SOL     OW23904  12.962   6.502  13.825
74022SOL    HW123905  13.007   6.535  13.747
74022SOL    HW223906  12.904   6.574  13.851
74023SOL     OW23907  14.779   4.796   3.426
74023SOL    HW123908  14.791   4.701   3.427
74023SOL    HW223909  14.866   4.831   3.443
74024SOL     OW23910   0.944   0.372   2.107
74024SOL    HW123911   0.884   0.431   2.153
74024SOL    HW223912   0.979   0.316   2.176
74025SOL     OW23913  13.246   0.401   0.710
74025SOL    HW123914  13.301   0.359   0.775
74025SOL    HW223915  13.194   0.331   0.672
74026SOL     OW23916   1.803  11.808  11.121
74026SOL    HW123917   1.857  11.790  11.045
74026SOL    HW223918   1.759  11.725  11.141
74027SOL     OW23919  12.848   7.044   4.109
74027SOL    HW123920  12.775   7.029   4.048
74027SOL    HW223921  12.822   7.121   4.159
74028SOL     OW23922   3.235  11.572   7.543
74028SOL    HW123923   3.275  11.486   7.550
74028SOL    HW223924   3.148  11.561   7.580
74029SOL     OW23925   9.676  12.873   0.911
74029SOL    HW123926   9.718  12.860   0.826
74029SOL    HW223927   9.589  12.836   0.901
74030SOL     OW23928   8.206   9.834  14.605
74030SOL    HW123929   8.188   9.896  14.534
74030SOL    HW223930   8.252   9.886  14.671
74031SOL     OW23931   9.269  13.041   4.010
74031SOL    HW123932   9.337  13.045   3.942
74031SOL    HW223933   9.307  12.984   4.077
74032SOL     OW23934   9.955   7.486   0.565
74032SOL    HW123935   9.860   7.479   0.578
74032SOL    HW223936   9.993   7.456   0.648
74033SOL     OW23937  13.712   4.333   0.513
74033SOL    HW123938  13.712   4.407   0.453
74033SOL    HW223939  13.750   4.261   0.461
74034SOL     OW23940   8.079   7.940  14.592
74034SOL    HW123941   8.097   7.912  14.682
74034SOL    HW223942   8.055   8.033  14.601
74035SOL     OW23943   2.482   0.649   2.501
74035SOL    HW123944   2.489   0.723   2.441
74035SOL    HW223945   2.390   0.622   2.496
74036SOL     OW23946   7.865  14.122   5.857
74036SOL    HW123947   7.812  14.089   5.930
74036SOL    HW223948   7.848  14.216   5.857
74037SOL     OW23949   6.893   0.106   3.995
74037SOL    HW123950   6.930   0.157   3.923
74037SOL    HW223951   6.849   0.170   4.050
74038SOL     OW23952   2.292   0.224  14.363
74038SOL    HW123953   2.287   0.213  14.458
74038SOL    HW223954   2.295   0.135  14.328
74039SOL     OW23955   7.265   3.410   4.010
74039SOL    HW123956   7.300   3.492   4.046
74039SOL    HW223957   7.334   3.378   3.952
74040SOL     OW23958   3.065   2.975  12.047
74040SOL    HW123959   3.048   3.050  12.103
74040SOL    HW223960   3.065   3.011  11.958
74041SOL     OW23961   1.663  11.123   9.233
74041SOL    HW123962   1.641  11.046   9.181
74041SOL    HW223963   1.754  11.110   9.260
74042SOL     OW23964   5.590   2.962   8.573
74042SOL    HW123965   5.542   3.041   8.599
74042SOL    HW223966   5.620   2.981   8.484
74043SOL     OW23967   9.091  13.898   5.749
74043SOL    HW123968   9.094  13.841   5.826
74043SOL    HW223969   9.000  13.925   5.741
74044SOL     OW23970   5.400   7.500  13.233
74044SOL    HW123971   5.322   7.450  13.207
74044SOL    HW223972   5.371   7.552  13.308
74045SOL     OW23973  12.748  11.346  10.083
74045SOL    HW123974  12.829  11.295  10.071
74045SOL    HW223975  12.778  11.436  10.088
74046SOL     OW23976   2.248   7.732   4.552
74046SOL    HW123977   2.339   7.706   4.541
74046SOL    HW223978   2.225   7.704   4.641
74047SOL     OW23979  12.039   2.287  12.641
74047SOL    HW123980  12.126   2.324  12.651
74047SOL    HW223981  11.983   2.362  12.622
74048SOL     OW23982   6.377   9.587   0.338
74048SOL    HW123983   6.350   9.678   0.350
74048SOL    HW223984   6.303   9.546   0.293
74049SOL     OW23985   0.684   4.543  13.426
74049SOL    HW123986   0.699   4.579  13.513
74049SOL    HW223987   0.589   4.546  13.414
74050SOL     OW23988  11.442   7.985   8.206
74050SOL    HW123989  11.362   7.963   8.158
74050SOL    HW223990  11.506   7.919   8.177
74051SOL     OW23991  10.485   9.862   3.795
74051SOL    HW123992  10.427   9.860   3.719
74051SOL    HW223993  10.448   9.929   3.852
74052SOL     OW23994   6.975   4.269   2.838
74052SOL    HW123995   6.957   4.352   2.793
74052SOL    HW223996   7.052   4.287   2.891
74053SOL     OW23997  13.487   4.206   5.498
74053SOL    HW123998  13.393   4.223   5.505
74053SOL    HW223999  13.499   4.174   5.409
74054SOL     OW24000  12.509   4.673   3.787
74054SOL    HW124001  12.485   4.607   3.852
74054SOL    HW224002  12.547   4.623   3.715
74055SOL     OW24003   5.782   6.137   4.208
74055SOL    HW124004   5.689   6.135   4.230
74055SOL    HW224005   5.817   6.212   4.257
74056SOL     OW24006   1.018  13.808   1.813
74056SOL    HW124007   1.079  13.813   1.740
74056SOL    HW224008   1.045  13.729   1.861
74057SOL     OW24009  11.783   8.383   4.198
74057SOL    HW124010  11.745   8.452   4.144
74057SOL    HW224011  11.738   8.390   4.282
74058SOL     OW24012  14.411   5.175  11.663
74058SOL    HW124013  14.335   5.233  11.650
74058SOL    HW224014  14.431   5.182  11.756
74059SOL     OW24015   3.208  13.502  12.960
74059SOL    HW124016   3.149  13.574  12.985
74059SOL    HW224017   3.213  13.448  13.038
74060SOL     OW24018  10.790   1.727  10.134
74060SOL    HW124019  10.808   1.647  10.085
74060SOL    HW224020  10.754   1.696  10.217
74061SOL     OW24021  12.753  12.264  13.070
74061SOL    HW124022  12.710  12.180  13.063
74061SOL    HW224023  12.827  12.259  13.009
74062SOL     OW24024   1.693   8.201   3.173
74062SOL    HW124025   1.599   8.207   3.191
74062SOL    HW224026   1.729   8.158   3.251
74063SOL     OW24027  10.474   2.536   4.083
74063SOL    HW124028  10.413   2.487   4.029
74063SOL    HW224029  10.521   2.592   4.021
74064SOL     OW24030   4.096   1.227  11.185
74064SOL    HW124031   4.185   1.193  11.188
74064SOL    HW224032   4.075   1.249  11.276
74065SOL     OW24033   7.898  12.038   7.085
74065SOL    HW124034   7.816  11.994   7.107
74065SOL    HW224035   7.955  12.022   7.160
74066SOL     OW24036   0.490   0.955   5.874
74066SOL    HW124037   0.511   1.018   5.942
74066SOL    HW224038   0.425   0.999   5.820
74067SOL     OW24039   2.258   0.138   4.470
74067SOL    HW124040   2.264   0.087   4.551
74067SOL    HW224041   2.164   0.138   4.449
74068SOL     OW24042   2.975   1.506   2.902
74068SOL    HW124043   3.012   1.421   2.877
74068SOL    HW224044   3.034   1.539   2.970
74069SOL     OW24045   0.206  12.220  11.783
74069SOL    HW124046   0.130  12.161  11.783
74069SOL    HW224047   0.172  12.304  11.814
74070SOL     OW24048   6.270  12.767   6.983
74070SOL    HW124049   6.294  12.724   7.066
74070SOL    HW224050   6.184  12.805   7.000
74071SOL     OW24051   4.210  11.174   5.789
74071SOL    HW124052   4.291  11.147   5.832
74071SOL    HW224053   4.172  11.240   5.848
74072SOL     OW24054  10.956   1.097   7.435
74072SOL    HW124055  10.910   1.106   7.519
74072SOL    HW224056  11.048   1.114   7.456
74073SOL     OW24057   0.018   7.229   4.073
74073SOL    HW124058   0.041   7.143   4.039
74073SOL    HW224059   0.089   7.287   4.044
74074SOL     OW24060  12.132   6.167  13.990
74074SOL    HW124061  12.110   6.224  14.063
74074SOL    HW224062  12.095   6.210  13.913
74075SOL     OW24063   2.750   6.144  11.992
74075SOL    HW124064   2.663   6.180  12.004
74075SOL    HW224065   2.759   6.079  12.062
74076SOL     OW24066   7.233   2.622   5.893
74076SOL    HW124067   7.181   2.542   5.887
74076SOL    HW224068   7.317   2.599   5.853
74077SOL     OW24069  13.189   3.657   2.487
74077SOL    HW124070  13.193   3.740   2.534
74077SOL    HW224071  13.280   3.631   2.475
74078SOL     OW24072  13.645   7.321  11.699
74078SOL    HW124073  13.713   7.356  11.757
74078SOL    HW224074  13.691   7.262  11.640
74079SOL     OW24075   4.419   7.861   3.440
74079SOL    HW124076   4.507   7.845   3.473
74079SOL    HW224077   4.420   7.952   3.411
74080SOL     OW24078   7.342   9.234   1.982
74080SOL    HW124079   7.362   9.213   1.890
74080SOL    HW224080   7.247   9.226   1.989
74081SOL     OW24081   4.474  13.161  10.148
74081SOL    HW124082   4.509  13.245  10.177
74081SOL    HW224083   4.547  13.118  10.104
74082SOL     OW24084   1.257  13.483  11.690
74082SOL    HW124085   1.195  13.535  11.638
74082SOL    HW224086   1.334  13.477  11.634
74083SOL     OW24087   3.878   8.538   9.657
74083SOL    HW124088   3.970   8.557   9.677
74083SOL    HW224089   3.878   8.446   9.630
74084SOL     OW24090  14.753   5.491   4.456
74084SOL    HW124091  14.775   5.515   4.546
74084SOL    HW224092  14.806   5.413   4.438
74085SOL     OW24093  14.326  10.940  10.402
74085SOL    HW124094  14.363  10.855  10.377
74085SOL    HW224095  14.275  10.967  10.325
74086SOL     OW24096   0.810   4.196   7.437
74086SOL    HW124097   0.852   4.194   7.351
74086SOL    HW224098   0.736   4.256   7.425
74087SOL     OW24099  11.213   0.737   6.520
74087SOL    HW124100  11.270   0.661   6.509
74087SOL    HW224101  11.272   0.812   6.510
74088SOL     OW24102   7.676   5.925  14.133
74088SOL    HW124103   7.755   5.967  14.168
74088SOL    HW224104   7.707   5.847  14.088
74089SOL     OW24105   5.663   2.171  13.526
74089SOL    HW124106   5.648   2.251  13.576
74089SOL    HW224107   5.758   2.165  13.518
74090SOL     OW24108   1.815  13.115   5.380
74090SOL    HW124109   1.766  13.062   5.443
74090SOL    HW224110   1.760  13.191   5.364
74091SOL     OW24111  10.386   2.571   7.762
74091SOL    HW124112  10.294   2.563   7.786
74091SOL    HW224113  10.394   2.520   7.681
74092SOL     OW24114   8.272   3.454  13.844
74092SOL    HW124115   8.202   3.468  13.780
74092SOL    HW224116   8.286   3.540  13.883
74093SOL     OW24117   2.562   6.674   1.274
74093SOL    HW124118   2.500   6.748   1.273
74093SOL    HW224119   2.570   6.652   1.367
74094SOL     OW24120  14.628   3.153   0.692
74094SOL    HW124121  14.634   3.072   0.641
74094SOL    HW224122  14.653   3.222   0.631
74095SOL     OW24123   3.379   8.295  14.851
74095SOL    HW124124   3.357   8.373   0.028
74095SOL    HW224125   3.412   8.233   0.043
74096SOL     OW24126  12.619  13.472   8.732
74096SOL    HW124127  12.578  13.449   8.648
74096SOL    HW224128  12.547  13.508   8.785
74097SOL     OW24129  10.890   2.964  10.405
74097SOL    HW124130  10.801   2.996  10.422
74097SOL    HW224131  10.946   3.019  10.461
74098SOL     OW24132   6.032  12.660   8.456
74098SOL    HW124133   6.093  12.655   8.530
74098SOL    HW224134   6.083  12.629   8.382
74099SOL     OW24135   0.630   1.030   8.634
74099SOL    HW124136   0.662   1.001   8.549
74099SOL    HW224137   0.636   1.126   8.631
74100SOL     OW24138   4.506   4.237   7.771
74100SOL    HW124139   4.585   4.280   7.737
74100SOL    HW224140   4.524   4.143   7.763
74101SOL     OW24141  12.585  11.170   8.144
74101SOL    HW124142  12.561  11.091   8.192
74101SOL    HW224143  12.619  11.230   8.211
74102SOL     OW24144   0.870  10.942   6.454
74102SOL    HW124145   0.912  10.894   6.383
74102SOL    HW224146   0.781  10.960   6.421
74103SOL     OW24147   0.281  13.483   2.444
74103SOL    HW124148   0.221  13.466   2.370
74103SOL    HW224149   0.230  13.458   2.521
74104SOL     OW24150   1.486  11.445  12.274
74104SOL    HW124151   1.548  11.373  12.268
74104SOL    HW224152   1.461  11.464  12.183
74105SOL     OW24153   5.907   0.471  11.186
74105SOL    HW124154   5.972   0.460  11.116
74105SOL    HW224155   5.842   0.531  11.149
74106SOL     OW24156   6.827  13.458   4.997
74106SOL    HW124157   6.900  13.518   5.009
74106SOL    HW224158   6.749  13.514   4.997
74107SOL     OW24159  14.246   6.939  11.246
74107SOL    HW124160  14.245   6.844  11.236
74107SOL    HW224161  14.250   6.953  11.341
74108SOL     OW24162  10.824   6.729   9.384
74108SOL    HW124163  10.835   6.674   9.307
74108SOL    HW224164  10.744   6.697   9.425
74109SOL     OW24165   8.222   1.466  14.489
74109SOL    HW124166   8.277   1.533  14.448
74109SOL    HW224167   8.182   1.419  14.416
74110SOL     OW24168   6.202   8.849  12.897
74110SOL    HW124169   6.256   8.780  12.857
74110SOL    HW224170   6.123   8.803  12.926
74111SOL     OW24171   8.555   3.952   2.397
74111SOL    HW124172   8.590   4.037   2.370
74111SOL    HW224173   8.527   3.911   2.315
74112SOL     OW24174  14.649  11.349   2.046
74112SOL    HW124175  14.566  11.346   1.998
74112SOL    HW224176  14.630  11.401   2.124
74113SOL     OW24177   7.421  13.513   8.817
74113SOL    HW124178   7.356  13.531   8.885
74113SOL    HW224179   7.486  13.582   8.828
74114SOL     OW24180   5.050   2.088  14.530
74114SOL    HW124181   5.002   2.021  14.578
74114SOL    HW224182   4.982   2.144  14.492
74115SOL     OW24183  12.855   6.889   2.269
74115SOL    HW124184  12.891   6.821   2.326
74115SOL    HW224185  12.780   6.848   2.227
74116SOL     OW24186   1.036   4.699   5.762
74116SOL    HW124187   1.075   4.628   5.711
74116SOL    HW224188   1.052   4.778   5.711
74117SOL     OW24189   2.813  12.075  12.641
74117SOL    HW124190   2.855  11.991  12.659
74117SOL    HW224191   2.854  12.107  12.561
74118SOL     OW24192   1.530  12.040  10.486
74118SOL    HW124193   1.453  11.983  10.475
74118SOL    HW224194   1.514  12.086  10.569
74119SOL     OW24195  12.742   0.577   9.198
74119SOL    HW124196  12.799   0.594   9.123
74119SOL    HW224197  12.748   0.657   9.250
74120SOL     OW24198   9.605   0.327  11.810
74120SOL    HW124199   9.522   0.327  11.858
74120SOL    HW224200   9.623   0.235  11.792
74121SOL     OW24201   1.307   7.055   4.769
74121SOL    HW124202   1.370   6.984   4.781
74121SOL    HW224203   1.241   7.042   4.838
74122SOL     OW24204  10.440  10.524   0.139
74122SOL    HW124205  10.412  10.604   0.183
74122SOL    HW224206  10.416  10.454   0.199
74123SOL     OW24207  10.341  11.315   2.310
74123SOL    HW124208  10.328  11.251   2.380
74123SOL    HW224209  10.400  11.271   2.248
74124SOL     OW24210  13.155   7.384   9.235
74124SOL    HW124211  13.112   7.377   9.321
74124SOL    HW224212  13.084   7.405   9.175
74125SOL     OW24213  10.609   0.851  12.541
74125SOL    HW124214  10.524   0.813  12.520
74125SOL    HW224215  10.664   0.832  12.465
74126SOL     OW24216   6.079   4.101  14.864
74126SOL    HW124217   6.078   4.196  14.850
74126SOL    HW224218   6.172   4.078  14.861
74127SOL     OW24219  14.669   1.092   3.973
74127SOL    HW124220  14.619   1.073   4.052
74127SOL    HW224221  14.740   1.028   3.973
74128SOL     OW24222   5.718   4.601   9.235
74128SOL    HW124223   5.623   4.613   9.244
74128SOL    HW224224   5.731   4.507   9.247
74129SOL     OW24225  14.500  12.447   2.324
74129SOL    HW124226  14.458  12.362   2.334
74129SOL    HW224227  14.507  12.481   2.413
74130SOL     OW24228  10.776   1.908   0.238
74130SOL    HW124229  10.759   1.870   0.324
74130SOL    HW224230  10.819   1.838   0.189
74131SOL     OW24231  14.432   7.092  12.042
74131SOL    HW124232  14.391   7.018  12.087
74131SOL    HW224233  14.522   7.094  12.075
74132SOL     OW24234   6.270  10.719  11.999
74132SOL    HW124235   6.270  10.721  11.903
74132SOL    HW224236   6.214  10.645  12.022
74133SOL     OW24237   9.451   8.743   5.221
74133SOL    HW124238   9.464   8.806   5.292
74133SOL    HW224239   9.531   8.747   5.170
74134SOL     OW24240   7.992  12.022   0.457
74134SOL    HW124241   7.989  12.114   0.430
74134SOL    HW224242   8.085  12.001   0.460
74135SOL     OW24243   3.124   8.075   6.940
74135SOL    HW124244   3.164   8.143   6.885
74135SOL    HW224245   3.035   8.108   6.957
74136SOL     OW24246   0.919   9.121   5.393
74136SOL    HW124247   0.876   9.041   5.361
74136SOL    HW224248   0.998   9.129   5.339
74137SOL     OW24249  12.298   3.485   7.884
74137SOL    HW124250  12.230   3.540   7.846
74137SOL    HW224251  12.310   3.415   7.819
74138SOL     OW24252   3.263   0.899   1.073
74138SOL    HW124253   3.256   0.848   0.992
74138SOL    HW224254   3.280   0.835   1.141
74139SOL     OW24255   8.307   0.684  12.612
74139SOL    HW124256   8.324   0.663  12.704
74139SOL    HW224257   8.312   0.600  12.566
74140SOL     OW24258   0.646   5.641  12.563
74140SOL    HW124259   0.555   5.618  12.580
74140SOL    HW224260   0.682   5.565  12.518
74141SOL     OW24261  14.436   5.098   6.575
74141SOL    HW124262  14.490   5.151   6.634
74141SOL    HW224263  14.446   5.009   6.607
74142SOL     OW24264   0.228   4.277   3.895
74142SOL    HW124265   0.163   4.269   3.965
74142SOL    HW224266   0.296   4.333   3.933
74143SOL     OW24267   5.326  14.622  11.343
74143SOL    HW124268   5.236  14.591  11.344
74143SOL    HW224269   5.324  14.705  11.391
74144SOL     OW24270   5.510  10.871   9.863
74144SOL    HW124271   5.424  10.830   9.853
74144SOL    HW224272   5.494  10.949   9.916
74145SOL     OW24273   3.369   3.160   7.522
74145SOL    HW124274   3.311   3.205   7.460
74145SOL    HW224275   3.321   3.081   7.546
74146SOL     OW24276   2.026   6.751   2.516
74146SOL    HW124277   1.936   6.782   2.521
74146SOL    HW224278   2.019   6.657   2.500
74147SOL     OW24279   5.030  14.559   4.661
74147SOL    HW124280   4.953  14.501   4.662
74147SOL    HW224281   5.097  14.509   4.613
74148SOL     OW24282   1.560  13.474  12.397
74148SOL    HW124283   1.482  13.523  12.425
74148SOL    HW224284   1.609  13.459  12.478
74149SOL     OW24285   7.005   3.050   3.200
74149SOL    HW124286   7.016   2.980   3.264
74149SOL    HW224287   6.971   3.005   3.122
74150SOL     OW24288   9.834  12.776   7.754
74150SOL    HW124289   9.866  12.785   7.844
74150SOL    HW224290   9.744  12.808   7.757
74151SOL     OW24291  13.204   6.520  13.659
74151SOL    HW124292  13.215   6.548  13.750
74151SOL    HW224293  13.294   6.513  13.626
74152SOL     OW24294   8.384   9.590   6.484
74152SOL    HW124295   8.357   9.545   6.564
74152SOL    HW224296   8.312   9.576   6.423
74153SOL     OW24297  12.700   5.394  11.646
74153SOL    HW124298  12.776   5.440  11.610
74153SOL    HW224299  12.656   5.359  11.569
74154SOL     OW24300   6.300   2.545   4.529
74154SOL    HW124301   6.301   2.526   4.623
74154SOL    HW224302   6.309   2.459   4.487
74155SOL     OW24303   2.081  12.039   1.458
74155SOL    HW124304   2.074  12.131   1.432
74155SOL    HW224305   2.039  11.991   1.386
74156SOL     OW24306  13.809  12.240  14.235
74156SOL    HW124307  13.716  12.218  14.230
74156SOL    HW224308  13.851  12.159  14.265
74157SOL     OW24309   3.784  12.455   8.648
74157SOL    HW124310   3.740  12.444   8.563
74157SOL    HW224311   3.768  12.546   8.671
74158SOL     OW24312  12.171   1.309   6.189
74158SOL    HW124313  12.174   1.219   6.220
74158SOL    HW224314  12.078   1.327   6.174
74159SOL     OW24315   5.323   5.515   1.001
74159SOL    HW124316   5.357   5.588   0.949
74159SOL    HW224317   5.273   5.462   0.938
74160SOL     OW24318  13.486   5.754   6.810
74160SOL    HW124319  13.503   5.797   6.726
74160SOL    HW224320  13.491   5.825   6.875
74161SOL     OW24321   7.521   8.619   9.956
74161SOL    HW124322   7.472   8.537   9.955
74161SOL    HW224323   7.613   8.591   9.960
74162SOL     OW24324  12.452   6.014   6.702
74162SOL    HW124325  12.486   5.929   6.732
74162SOL    HW224326  12.485   6.077   6.766
74163SOL     OW24327  14.468  10.218   7.192
74163SOL    HW124328  14.425  10.296   7.157
74163SOL    HW224329  14.561  10.231   7.174
74164SOL     OW24330  10.442  13.180   3.716
74164SOL    HW124331  10.487  13.258   3.682
74164SOL    HW224332  10.414  13.133   3.638
74165SOL     OW24333   8.779   3.257   3.971
74165SOL    HW124334   8.741   3.345   3.965
74165SOL    HW224335   8.726   3.213   4.039
74166SOL     OW24336  14.266   5.681   2.339
74166SOL    HW124337  14.323   5.645   2.271
74166SOL    HW224338  14.199   5.615   2.351
74167SOL     OW24339   9.154  10.743   4.252
74167SOL    HW124340   9.187  10.798   4.180
74167SOL    HW224341   9.076  10.788   4.283
74168SOL     OW24342   3.050   9.030   0.429
74168SOL    HW124343   3.122   9.093   0.437
74168SOL    HW224344   3.070   8.962   0.493
74169SOL     OW24345  11.207   4.347  11.925
74169SOL    HW124346  11.228   4.264  11.967
74169SOL    HW224347  11.284   4.368  11.873
74170SOL     OW24348   0.339   2.922   6.608
74170SOL    HW124349   0.421   2.906   6.562
74170SOL    HW224350   0.358   2.905   6.700
74171SOL     OW24351   9.699   8.871   8.907
74171SOL    HW124352   9.651   8.793   8.936
74171SOL    HW224353   9.678   8.879   8.814
74172SOL     OW24354   0.220   1.746   6.201
74172SOL    HW124355   0.127   1.754   6.178
74172SOL    HW224356   0.232   1.654   6.223
74173SOL     OW24357  10.776  13.822   3.867
74173SOL    HW124358  10.713  13.893   3.879
74173SOL    HW224359  10.725  13.751   3.828
74174SOL     OW24360  14.731   3.957   8.030
74174SOL    HW124361  14.704   3.904   7.955
74174SOL    HW224362  14.826   3.941   8.037
74175SOL     OW24363  14.848  14.440   2.067
74175SOL    HW124364  14.815  14.369   2.012
74175SOL    HW224365   0.053  14.471   2.020
74176SOL     OW24366   7.764   3.411   9.125
74176SOL    HW124367   7.763   3.338   9.186
74176SOL    HW224368   7.725   3.376   9.045
74177SOL     OW24369   4.066   2.042   9.763
74177SOL    HW124370   4.133   2.004   9.706
74177SOL    HW224371   3.988   1.988   9.749
74178SOL     OW24372   2.600   4.682   5.788
74178SOL    HW124373   2.600   4.661   5.694
74178SOL    HW224374   2.578   4.775   5.792
74179SOL     OW24375  10.583   1.990   5.934
74179SOL    HW124376  10.560   2.082   5.923
74179SOL    HW224377  10.626   1.967   5.852
74180SOL     OW24378  12.853   4.786  12.236
74180SOL    HW124379  12.842   4.706  12.286
74180SOL    HW224380  12.766   4.825  12.233
74181SOL     OW24381   2.200  13.672  10.338
74181SOL    HW124382   2.204  13.585  10.299
74181SOL    HW224383   2.133  13.718  10.288
74182SOL     OW24384  10.951   3.404   5.901
74182SOL    HW124385  10.944   3.385   5.995
74182SOL    HW224386  10.993   3.489   5.897
74183SOL     OW24387   9.785   2.752   2.677
74183SOL    HW124388   9.845   2.825   2.665
74183SOL    HW224389   9.716   2.768   2.612
74184SOL     OW24390  11.343   4.025   7.928
74184SOL    HW124391  11.328   3.935   7.956
74184SOL    HW224392  11.361   4.018   7.834
74185SOL     OW24393   8.451  10.271   2.123
74185SOL    HW124394   8.510  10.324   2.176
74185SOL    HW224395   8.505  10.198   2.092
74186SOL     OW24396   3.225  12.173  11.755
74186SOL    HW124397   3.187  12.250  11.797
74186SOL    HW224398   3.286  12.208  11.690
74187SOL     OW24399  10.153  14.677   0.326
74187SOL    HW124400  10.136  14.600   0.272
74187SOL    HW224401  10.172  14.641   0.413
74188SOL     OW24402   2.528  11.177  13.104
74188SOL    HW124403   2.444  11.154  13.063
74188SOL    HW224404   2.553  11.260  13.062
74189SOL     OW24405   9.820   4.509   6.808
74189SOL    HW124406   9.884   4.480   6.873
74189SOL    HW224407   9.757   4.561   6.858
74190SOL     OW24408   3.635   5.388   6.613
74190SOL    HW124409   3.652   5.461   6.672
74190SOL    HW224410   3.701   5.322   6.637
74191SOL     OW24411   1.993   3.792   6.955
74191SOL    HW124412   1.949   3.859   7.007
74191SOL    HW224413   1.950   3.797   6.869
74192SOL     OW24414   1.914   6.237   1.951
74192SOL    HW124415   1.951   6.155   1.983
74192SOL    HW224416   1.947   6.303   2.011
74193SOL     OW24417  11.157  13.209  12.413
74193SOL    HW124418  11.222  13.221  12.344
74193SOL    HW224419  11.114  13.295  12.420
74194SOL     OW24420   3.963  13.179  14.710
74194SOL    HW124421   3.922  13.179  14.624
74194SOL    HW224422   3.895  13.213  14.769
74195SOL     OW24423   8.170   4.780  13.523
74195SOL    HW124424   8.216   4.703  13.490
74195SOL    HW224425   8.157   4.763  13.616
74196SOL     OW24426   3.539   0.199  12.545
74196SOL    HW124427   3.477   0.175  12.613
74196SOL    HW224428   3.518   0.290  12.524
74197SOL     OW24429   5.451  12.737   3.679
74197SOL    HW124430   5.390  12.720   3.751
74197SOL    HW224431   5.499  12.654   3.667
74198SOL     OW24432   2.003  13.634   5.328
74198SOL    HW124433   2.056  13.554   5.319
74198SOL    HW224434   2.060  13.703   5.295
74199SOL     OW24435   7.191   2.006   4.663
74199SOL    HW124436   7.145   1.939   4.612
74199SOL    HW224437   7.235   1.957   4.733
74200SOL     OW24438  13.286   9.719  12.326
74200SOL    HW124439  13.312   9.705  12.418
74200SOL    HW224440  13.366   9.704  12.276
74201SOL     OW24441   6.499   8.130  14.839
74201SOL    HW124442   6.454   8.194  14.784
74201SOL    HW224443   6.588   8.126  14.804
74202SOL     OW24444   4.445   2.656   3.968
74202SOL    HW124445   4.367   2.707   3.948
74202SOL    HW224446   4.433   2.573   3.922
74203SOL     OW24447  11.788   6.289   9.539
74203SOL    HW124448  11.789   6.197   9.511
74203SOL    HW224449  11.866   6.298   9.593
74204SOL     OW24450   1.520   9.699  10.168
74204SOL    HW124451   1.555   9.770  10.114
74204SOL    HW224452   1.483   9.743  10.244
74205SOL     OW24453  14.161   6.252  12.150
74205SOL    HW124454  14.205   6.173  12.181
74205SOL    HW224455  14.127   6.294  12.229
74206SOL     OW24456   1.613  12.258   0.907
74206SOL    HW124457   1.631  12.174   0.950
74206SOL    HW224458   1.529  12.287   0.943
74207SOL     OW24459   8.814   9.571  11.433
74207SOL    HW124460   8.788   9.629  11.505
74207SOL    HW224461   8.904   9.595  11.414
74208SOL     OW24462   7.779   3.533   8.262
74208SOL    HW124463   7.773   3.447   8.220
74208SOL    HW224464   7.720   3.589   8.211
74209SOL     OW24465  13.980  11.186   4.874
74209SOL    HW124466  14.069  11.169   4.842
74209SOL    HW224467  13.992  11.245   4.948
74210SOL     OW24468  13.771   4.846   1.726
74210SOL    HW124469  13.722   4.916   1.684
74210SOL    HW224470  13.862   4.863   1.703
74211SOL     OW24471   3.725   3.498  10.132
74211SOL    HW124472   3.802   3.480  10.077
74211SOL    HW224473   3.719   3.422  10.190
74212SOL     OW24474   2.024  13.095  10.871
74212SOL    HW124475   2.114  13.073  10.846
74212SOL    HW224476   1.970  13.031  10.824
74213SOL     OW24477   8.477   9.191  10.899
74213SOL    HW124478   8.447   9.111  10.942
74213SOL    HW224479   8.509   9.162  10.814
74214SOL     OW24480  11.820  12.781   7.518
74214SOL    HW124481  11.855  12.755   7.432
74214SOL    HW224482  11.771  12.861   7.501
74215SOL     OW24483   0.918  13.118  13.467
74215SOL    HW124484   0.867  13.094  13.544
74215SOL    HW224485   0.869  13.190  13.427
74216SOL     OW24486  12.693  14.748   6.782
74216SOL    HW124487  12.767  14.692   6.757
74216SOL    HW224488  12.622  14.687   6.802
74217SOL     OW24489   8.112   2.065  13.410
74217SOL    HW124490   8.124   2.159  13.398
74217SOL    HW224491   8.123   2.027  13.323
74218SOL     OW24492  14.141   8.680  12.414
74218SOL    HW124493  14.225   8.694  12.370
74218SOL    HW224494  14.088   8.633  12.350
74219SOL     OW24495   7.767  13.818  10.030
74219SOL    HW124496   7.781  13.898  10.082
74219SOL    HW224497   7.687  13.780  10.067
74220SOL     OW24498  13.143   2.074   7.159
74220SOL    HW124499  13.076   2.015   7.125
74220SOL    HW224500  13.094   2.146   7.200
74221SOL     OW24501   9.533   6.086   7.368
74221SOL    HW124502   9.489   6.046   7.293
74221SOL    HW224503   9.474   6.072   7.442
74222SOL     OW24504   1.085   7.836   1.317
74222SOL    HW124505   1.097   7.777   1.392
74222SOL    HW224506   1.132   7.794   1.245
74223SOL     OW24507   5.497   0.733  11.985
74223SOL    HW124508   5.568   0.795  12.003
74223SOL    HW224509   5.431   0.753  12.051
74224SOL     OW24510   3.187   6.382   4.642
74224SOL    HW124511   3.265   6.395   4.696
74224SOL    HW224512   3.215   6.402   4.553
74225SOL     OW24513  13.265   9.479   8.118
74225SOL    HW124514  13.213   9.433   8.053
74225SOL    HW224515  13.319   9.539   8.068
74226SOL     OW24516  12.866   4.000  12.608
74226SOL    HW124517  12.875   3.922  12.663
74226SOL    HW224518  12.887   4.073  12.667
74227SOL     OW24519   6.156   7.401   2.719
74227SOL    HW124520   6.224   7.450   2.766
74227SOL    HW224521   6.205   7.342   2.662
74228SOL     OW24522   6.406   2.751  14.554
74228SOL    HW124523   6.439   2.833  14.590
74228SOL    HW224524   6.480   2.690  14.563
74229SOL     OW24525   6.576   3.618   7.812
74229SOL    HW124526   6.517   3.683   7.850
74229SOL    HW224527   6.664   3.648   7.836
74230SOL     OW24528   2.026   5.545  10.576
74230SOL    HW124529   2.057   5.455  10.588
74230SOL    HW224530   2.037   5.586  10.662
74231SOL     OW24531  12.995   3.044   9.692
74231SOL    HW124532  13.087   3.050   9.715
74231SOL    HW224533  12.952   3.012   9.772
74232SOL     OW24534  14.844   0.459   6.539
74232SOL    HW124535   0.016   0.514   6.602
74232SOL    HW224536  14.752   0.485   6.546
74233SOL     OW24537  10.263   9.663   9.727
74233SOL    HW124538  10.197   9.722   9.763
74233SOL    HW224539  10.265   9.683   9.634
74234SOL     OW24540   5.787  14.387   8.704
74234SOL    HW124541   5.852  14.409   8.638
74234SOL    HW224542   5.708  14.367   8.653
74235SOL     OW24543  10.245   2.232  11.351
74235SOL    HW124544  10.280   2.197  11.433
74235SOL    HW224545  10.151   2.243  11.368
74236SOL     OW24546  14.594   9.554  14.472
74236SOL    HW124547  14.681   9.515  14.468
74236SOL    HW224548  14.535   9.480  14.484
74237SOL     OW24549  10.264   3.446   7.578
74237SOL    HW124550  10.218   3.511   7.630
74237SOL    HW224551  10.195   3.389   7.544
74238SOL     OW24552   7.144   5.142   1.172
74238SOL    HW124553   7.050   5.153   1.163
74238SOL    HW224554   7.182   5.211   1.119
74239SOL     OW24555   4.325   6.306   0.114
74239SOL    HW124556   4.299   6.222   0.151
74239SOL    HW224557   4.286   6.372   0.172
74240SOL     OW24558  12.052   2.244   4.988
74240SOL    HW124559  12.011   2.318   5.032
74240SOL    HW224560  12.030   2.168   5.042
74241SOL     OW24561  13.864   9.001   3.798
74241SOL    HW124562  13.907   9.058   3.734
74241SOL    HW224563  13.829   9.061   3.864
74242SOL     OW24564   0.605   9.056  11.610
74242SOL    HW124565   0.681   9.020  11.565
74242SOL    HW224566   0.628   9.053  11.703
74243SOL     OW24567  13.586   4.573   7.890
74243SOL    HW124568  13.519   4.614   7.836
74243SOL    HW224569  13.666   4.579   7.838
74244SOL     OW24570   5.144   9.001   3.529
74244SOL    HW124571   5.074   8.935   3.523
74244SOL    HW224572   5.152   9.018   3.623
74245SOL     OW24573   8.375   7.966   2.094
74245SOL    HW124574   8.442   8.030   2.118
74245SOL    HW224575   8.292   8.007   2.120
74246SOL     OW24576   2.265   8.779   1.681
74246SOL    HW124577   2.267   8.875   1.682
74246SOL    HW224578   2.198   8.757   1.617
74247SOL     OW24579   4.765  10.664   1.068
74247SOL    HW124580   4.824  10.627   1.002
74247SOL    HW224581   4.812  10.655   1.151
74248SOL     OW24582   0.317   5.164   8.379
74248SOL    HW124583   0.279   5.111   8.309
74248SOL    HW224584   0.315   5.107   8.456
74249SOL     OW24585   0.203   3.133  10.039
74249SOL    HW124586   0.135   3.080  10.080
74249SOL    HW224587   0.202   3.215  10.089
74250SOL     OW24588   2.451   9.611   6.873
74250SOL    HW124589   2.428   9.518   6.874
74250SOL    HW224590   2.531   9.615   6.820
74251SOL     OW24591  14.571   4.753   7.635
74251SOL    HW124592  14.594   4.761   7.727
74251SOL    HW224593  14.536   4.664   7.626
74252SOL     OW24594   5.276  12.343   4.659
74252SOL    HW124595   5.370  12.335   4.672
74252SOL    HW224596   5.264  12.431   4.624
74253SOL     OW24597  11.950   8.341  11.880
74253SOL    HW124598  11.903   8.281  11.822
74253SOL    HW224599  11.935   8.306  11.967
74254SOL     OW24600   6.424  12.422   0.428
74254SOL    HW124601   6.418  12.409   0.334
74254SOL    HW224602   6.414  12.335   0.466
74255SOL     OW24603  11.985   1.890  14.143
74255SOL    HW124604  11.988   1.870  14.237
74255SOL    HW224605  11.940   1.814  14.104
74256SOL     OW24606  11.724   8.252   3.988
74256SOL    HW124607  11.776   8.291   3.918
74256SOL    HW224608  11.746   8.303   4.066
74257SOL     OW24609   4.582   8.205   4.448
74257SOL    HW124610   4.668   8.244   4.432
74257SOL    HW224611   4.544   8.258   4.518
74258SOL     OW24612   3.897  14.515  12.845
74258SOL    HW124613   3.827  14.470  12.893
74258SOL    HW224614   3.911  14.461  12.767
74259SOL     OW24615   0.426   4.936   0.121
74259SOL    HW124616   0.396   5.027   0.127
74259SOL    HW224617   0.462   4.929   0.033
74260SOL     OW24618  10.884   0.035   0.118
74260SOL    HW124619  10.793   0.062   0.115
74260SOL    HW224620  10.891  14.839   0.052
74261SOL     OW24621  11.099   5.715   5.341
74261SOL    HW124622  11.041   5.643   5.365
74261SOL    HW224623  11.093   5.720   5.245
74262SOL     OW24624   9.061   7.481  12.618
74262SOL    HW124625   9.107   7.402  12.590
74262SOL    HW224626   8.996   7.496  12.549
74263SOL     OW24627   7.356   2.047   0.937
74263SOL    HW124628   7.432   2.106   0.932
74263SOL    HW224629   7.332   2.047   1.030
74264SOL     OW24630   7.907   0.895   6.757
74264SOL    HW124631   7.983   0.839   6.772
74264SOL    HW224632   7.932   0.950   6.682
74265SOL     OW24633   3.022  13.239   2.582
74265SOL    HW124634   3.025  13.184   2.660
74265SOL    HW224635   3.100  13.295   2.589
74266SOL     OW24636   9.292   7.581   5.146
74266SOL    HW124637   9.347   7.645   5.191
74266SOL    HW224638   9.345   7.552   5.072
74267SOL     OW24639   1.689   0.341   2.168
74267SOL    HW124640   1.740   0.413   2.130
74267SOL    HW224641   1.722   0.262   2.125
74268SOL     OW24642   5.788  13.862   1.761
74268SOL    HW124643   5.726  13.933   1.780
74268SOL    HW224644   5.732  13.786   1.744
74269SOL     OW24645  11.413   4.746   0.004
74269SOL    HW124646  11.390   4.832  14.842
74269SOL    HW224647  11.329   4.704   0.021
74270SOL     OW24648   0.136  11.215   3.749
74270SOL    HW124649   0.194  11.139   3.737
74270SOL    HW224650   0.152  11.269   3.672
74271SOL     OW24651   8.505  14.847   2.666
74271SOL    HW124652   8.437   0.003   2.726
74271SOL    HW224653   8.575   0.039   2.675
74272SOL     OW24654   1.204   4.745  13.702
74272SOL    HW124655   1.157   4.755  13.785
74272SOL    HW224656   1.183   4.825  13.653
74273SOL     OW24657  10.204   3.178   4.593
74273SOL    HW124658  10.184   3.209   4.681
74273SOL    HW224659  10.185   3.084   4.595
74274SOL     OW24660   1.295   1.626   3.845
74274SOL    HW124661   1.281   1.572   3.922
74274SOL    HW224662   1.207   1.653   3.817
74275SOL     OW24663   4.820  11.803   3.702
74275SOL    HW124664   4.825  11.820   3.608
74275SOL    HW224665   4.890  11.856   3.739
74276SOL     OW24666   8.374   1.301  10.503
74276SOL    HW124667   8.410   1.231  10.557
74276SOL    HW224668   8.435   1.374  10.514
74277SOL     OW24669   6.928  14.735  14.455
74277SOL    HW124670   6.859  14.689  14.503
74277SOL    HW224671   6.882  14.799  14.402
74278SOL     OW24672  10.494   4.015  11.117
74278SOL    HW124673  10.426   3.947  11.121
74278SOL    HW224674  10.521   4.017  11.025
74279SOL     OW24675   7.708  13.844  12.212
74279SOL    HW124676   7.737  13.898  12.286
74279SOL    HW224677   7.777  13.779  12.202
74280SOL     OW24678   0.140  11.625  14.600
74280SOL    HW124679   0.106  11.701  14.648
74280SOL    HW224680   0.199  11.662  14.534
74281SOL     OW24681  12.171   1.509   2.851
74281SOL    HW124682  12.094   1.453   2.844
74281SOL    HW224683  12.221   1.472   2.924
74282SOL     OW24684   4.040  13.881  14.160
74282SOL    HW124685   3.993  13.844  14.234
74282SOL    HW224686   4.075  13.964  14.193
74283SOL     OW24687  11.606  11.296   8.908
74283SOL    HW124688  11.605  11.219   8.964
74283SOL    HW224689  11.517  11.301   8.872
74284SOL     OW24690   4.920  12.443   1.215
74284SOL    HW124691   4.946  12.429   1.306
74284SOL    HW224692   4.999  12.476   1.172
74285SOL     OW24693   3.175   9.782   2.095
74285SOL    HW124694   3.257   9.743   2.063
74285SOL    HW224695   3.113   9.771   2.023
74286SOL     OW24696  11.594  13.086  10.603
74286SOL    HW124697  11.513  13.120  10.640
74286SOL    HW224698  11.588  13.105  10.509
74287SOL     OW24699   3.486   5.561   3.389
74287SOL    HW124700   3.408   5.538   3.339
74287SOL    HW224701   3.491   5.657   3.382
74288SOL     OW24702   2.421   7.598   2.752
74288SOL    HW124703   2.474   7.672   2.724
74288SOL    HW224704   2.390   7.623   2.840
74289SOL     OW24705   5.004   1.298   7.933
74289SOL    HW124706   5.077   1.360   7.929
74289SOL    HW224707   4.932   1.348   7.972
74290SOL     OW24708  13.895   5.487   2.195
74290SOL    HW124709  13.835   5.413   2.184
74290SOL    HW224710  13.948   5.486   2.115
74291SOL     OW24711   5.239  11.794   9.242
74291SOL    HW124712   5.278  11.708   9.230
74291SOL    HW224713   5.151  11.777   9.276
74292SOL     OW24714   1.095   2.794   3.217
74292SOL    HW124715   1.025   2.858   3.222
74292SOL    HW224716   1.161   2.834   3.161
74293SOL     OW24717   7.237  10.877  12.245
74293SOL    HW124718   7.256  10.785  12.227
74293SOL    HW224719   7.191  10.908  12.167
74294SOL     OW24720   9.882   9.240   3.257
74294SOL    HW124721   9.872   9.208   3.347
74294SOL    HW224722   9.910   9.163   3.208
74295SOL     OW24723   0.054   6.262   3.344
74295SOL    HW124724   0.013   6.299   3.423
74295SOL    HW224725  14.855   6.240   3.287
74296SOL     OW24726   0.330   2.830  12.689
74296SOL    HW124727   0.370   2.856  12.606
74296SOL    HW224728   0.247   2.879  12.692
74297SOL     OW24729  12.032   0.585   6.150
74297SOL    HW124730  11.963   0.608   6.088
74297SOL    HW224731  12.091   0.660   6.150
74298SOL     OW24732   2.096   9.230   4.119
74298SOL    HW124733   2.057   9.215   4.205
74298SOL    HW224734   2.129   9.144   4.093
74299SOL     OW24735  13.091   3.628   3.496
74299SOL    HW124736  13.008   3.598   3.534
74299SOL    HW224737  13.136   3.673   3.568
74300SOL     OW24738   0.167   0.328   7.913
74300SOL    HW124739   0.129   0.408   7.950
74300SOL    HW224740   0.173   0.346   7.819
74301SOL     OW24741  12.401   5.058  11.470
74301SOL    HW124742  12.408   5.146  11.506
74301SOL    HW224743  12.327   5.062  11.409
74302SOL     OW24744   7.988   5.696  14.844
74302SOL    HW124745   8.004   5.713   0.063
74302SOL    HW224746   7.986   5.601  14.836
74303SOL     OW24747   3.215  14.235   2.098
74303SOL    HW124748   3.230  14.197   2.011
74303SOL    HW224749   3.128  14.205   2.122
74304SOL     OW24750   2.489  11.682   5.017
74304SOL    HW124751   2.522  11.662   4.930
74304SOL    HW224752   2.558  11.652   5.077
74305SOL     OW24753   8.418   4.672  11.454
74305SOL    HW124754   8.349   4.622  11.411
74305SOL    HW224755   8.419   4.756  11.408
74306SOL     OW24756   7.888   5.278  13.195
74306SOL    HW124757   7.928   5.310  13.275
74306SOL    HW224758   7.893   5.352  13.134
74307SOL     OW24759   8.894   8.320   6.136
74307SOL    HW124760   8.959   8.350   6.199
74307SOL    HW224761   8.838   8.396   6.121
74308SOL     OW24762   4.047   6.051   4.661
74308SOL    HW124763   4.140   6.037   4.644
74308SOL    HW224764   4.036   6.031   4.753
74309SOL     OW24765   0.073   4.879   8.765
74309SOL    HW124766   0.047   4.840   8.849
74309SOL    HW224767   0.140   4.820   8.731
74310SOL     OW24768   3.909   3.894   4.350
74310SOL    HW124769   3.863   3.830   4.405
74310SOL    HW224770   3.862   3.976   4.365
74311SOL     OW24771   2.555   6.504  13.651
74311SOL    HW124772   2.536   6.586  13.605
74311SOL    HW224773   2.502   6.507  13.730
74312SOL     OW24774  12.228   0.472   3.259
74312SOL    HW124775  12.155   0.514   3.306
74312SOL    HW224776  12.187   0.429   3.184
74313SOL     OW24777  10.351   1.389   4.417
74313SOL    HW124778  10.364   1.457   4.483
74313SOL    HW224779  10.271   1.414   4.372
74314SOL     OW24780   9.994  14.721   7.983
74314SOL    HW124781   9.979  14.805   7.939
74314SOL    HW224782   9.907  14.683   7.993
74315SOL     OW24783  13.655  12.438   2.392
74315SOL    HW124784  13.724  12.449   2.327
74315SOL    HW224785  13.595  12.512   2.378
74316SOL     OW24786   5.625   2.960   5.479
74316SOL    HW124787   5.637   2.964   5.384
74316SOL    HW224788   5.608   2.867   5.496
74317SOL     OW24789   5.921  12.709   6.983
74317SOL    HW124790   5.931  12.709   7.078
74317SOL    HW224791   5.938  12.618   6.957
74318SOL     OW24792   9.887  12.143   2.267
74318SOL    HW124793   9.850  12.118   2.351
74318SOL    HW224794   9.969  12.189   2.289
74319SOL     OW24795   4.595  13.037   8.415
74319SOL    HW124796   4.565  12.947   8.420
74319SOL    HW224797   4.688  13.033   8.436
74320SOL     OW24798   5.253   6.061  14.265
74320SOL    HW124799   5.198   5.983  14.259
74320SOL    HW224800   5.278   6.080  14.175
74321SOL     OW24801   3.069  14.091  12.661
74321SOL    HW124802   3.024  14.112  12.743
74321SOL    HW224803   3.153  14.136  12.668
74322SOL     OW24804   3.730   9.822   1.568
74322SOL    HW124805   3.726   9.840   1.662
74322SOL    HW224806   3.775   9.898   1.530
74323SOL     OW24807  12.503  13.622   9.260
74323SOL    HW124808  12.499  13.601   9.353
74323SOL    HW224809  12.593  13.654   9.247
74324SOL     OW24810   0.675   9.323   7.681
74324SOL    HW124811   0.674   9.398   7.741
74324SOL    HW224812   0.658   9.247   7.737
74325SOL     OW24813   9.012  10.752   7.403
74325SOL    HW124814   9.064  10.806   7.344
74325SOL    HW224815   9.051  10.665   7.397
74326SOL     OW24816  12.440   0.043   9.233
74326SOL    HW124817  12.359   0.092   9.244
74326SOL    HW224818  12.489   0.093   9.167
74327SOL     OW24819   8.987  12.442  13.118
74327SOL    HW124820   8.910  12.439  13.061
74327SOL    HW224821   9.049  12.498  13.071
74328SOL     OW24822   8.091  10.120   7.676
74328SOL    HW124823   8.031  10.112   7.751
74328SOL    HW224824   8.136  10.203   7.692
74329SOL     OW24825   5.920   7.080  13.301
74329SOL    HW124826   5.864   7.126  13.238
74329SOL    HW224827   5.860   7.053  13.371
74330SOL     OW24828   6.725  12.694   3.147
74330SOL    HW124829   6.768  12.737   3.073
74330SOL    HW224830   6.797  12.658   3.199
74331SOL     OW24831  10.399  12.804   5.486
74331SOL    HW124832  10.377  12.772   5.398
74331SOL    HW224833  10.412  12.898   5.475
74332SOL     OW24834   0.031  12.443   8.516
74332SOL    HW124835   0.025  12.525   8.468
74332SOL    HW224836   0.097  12.459   8.583
74333SOL     OW24837   0.887   1.927   3.060
74333SOL    HW124838   0.857   1.899   3.146
74333SOL    HW224839   0.927   2.013   3.075
74334SOL     OW24840  13.859   4.788   9.955
74334SOL    HW124841  13.867   4.731   9.880
74334SOL    HW224842  13.822   4.733  10.024
74335SOL     OW24843   7.554  13.484   3.988
74335SOL    HW124844   7.576  13.399   3.950
74335SOL    HW224845   7.467  13.472   4.026
74336SOL     OW24846   1.891   0.845  10.169
74336SOL    HW124847   1.968   0.862  10.115
74336SOL    HW224848   1.897   0.909  10.240
74337SOL     OW24849   1.764   2.305   4.869
74337SOL    HW124850   1.757   2.265   4.783
74337SOL    HW224851   1.732   2.394   4.857
74338SOL     OW24852   2.230  12.726  12.615
74338SOL    HW124853   2.194  12.637  12.619
74338SOL    HW224854   2.325  12.714  12.619
74339SOL     OW24855  14.589   8.144   3.074
74339SOL    HW124856  14.623   8.064   3.115
74339SOL    HW224857  14.655   8.211   3.093
74340SOL     OW24858   2.209   1.785  14.068
74340SOL    HW124859   2.300   1.755  14.072
74340SOL    HW224860   2.158   1.708  14.096
74341SOL     OW24861   2.895   7.074   8.942
74341SOL    HW124862   2.905   6.981   8.965
74341SOL    HW224863   2.955   7.087   8.869
74342SOL     OW24864  12.788   6.127  13.419
74342SOL    HW124865  12.736   6.204  13.444
74342SOL    HW224866  12.737   6.053  13.450
74343SOL     OW24867   6.893   2.912  14.653
74343SOL    HW124868   6.858   2.911  14.742
74343SOL    HW224869   6.967   2.851  14.656
74344SOL     OW24870  12.902  14.002   7.564
74344SOL    HW124871  12.960  14.001   7.488
74344SOL    HW224872  12.940  14.068   7.622
74345SOL     OW24873   8.429   3.957   8.939
74345SOL    HW124874   8.334   3.953   8.948
74345SOL    HW224875   8.459   3.996   9.022
74346SOL     OW24876   1.891   5.202  12.681
74346SOL    HW124877   1.844   5.201  12.597
74346SOL    HW224878   1.983   5.204  12.657
74347SOL     OW24879  12.133   2.578   1.608
74347SOL    HW124880  12.139   2.662   1.654
74347SOL    HW224881  12.040   2.569   1.588
74348SOL     OW24882   1.775   9.944  13.688
74348SOL    HW124883   1.748   9.865  13.642
74348SOL    HW224884   1.796   9.915  13.776
74349SOL     OW24885   6.589  11.043   7.421
74349SOL    HW124886   6.615  10.975   7.482
74349SOL    HW224887   6.504  11.014   7.387
74350SOL     OW24888   5.424   1.446  11.534
74350SOL    HW124889   5.443   1.397  11.454
74350SOL    HW224890   5.510   1.458  11.575
74351SOL     OW24891  11.673   9.088   2.556
74351SOL    HW124892  11.715   9.009   2.590
74351SOL    HW224893  11.738   9.157   2.570
74352SOL     OW24894  13.183  11.201   2.937
74352SOL    HW124895  13.109  11.259   2.917
74352SOL    HW224896  13.188  11.143   2.861
74353SOL     OW24897   6.601  14.321  13.899
74353SOL    HW124898   6.694  14.300  13.886
74353SOL    HW224899   6.554  14.250  13.854
74354SOL     OW24900   1.928   2.493   0.717
74354SOL    HW124901   1.910   2.514   0.809
74354SOL    HW224902   1.958   2.402   0.719
74355SOL     OW24903   4.093   6.012   3.358
74355SOL    HW124904   4.029   6.060   3.411
74355SOL    HW224905   4.041   5.954   3.304
74356SOL     OW24906  11.485   6.287  11.627
74356SOL    HW124907  11.393   6.280  11.652
74356SOL    HW224908  11.523   6.345  11.692
74357SOL     OW24909   1.616   9.909  13.035
74357SOL    HW124910   1.566   9.935  12.958
74357SOL    HW224911   1.551   9.870  13.094
74358SOL     OW24912   2.937   3.970  12.915
74358SOL    HW124913   3.007   3.953  12.979
74358SOL    HW224914   2.928   4.065  12.914
74359SOL     OW24915   8.806   4.088  14.681
74359SOL    HW124916   8.859   4.015  14.650
74359SOL    HW224917   8.719   4.049  14.695
74360SOL     OW24918   3.575   9.091   0.418
74360SOL    HW124919   3.495   9.084   0.470
74360SOL    HW224920   3.551   9.144   0.342
74361SOL     OW24921   7.137  10.198   5.468
74361SOL    HW124922   7.193  10.131   5.507
74361SOL    HW224923   7.052  10.157   5.460
74362SOL     OW24924   9.705   4.088  13.727
74362SOL    HW124925   9.645   4.017  13.708
74362SOL    HW224926   9.785   4.066  13.679
74363SOL     OW24927   9.863   5.083  12.123
74363SOL    HW124928   9.797   5.045  12.065
74363SOL    HW224929   9.814   5.129  12.190
74364SOL     OW24930   9.021   1.568   5.361
74364SOL    HW124931   9.063   1.653   5.356
74364SOL    HW224932   9.069   1.513   5.299
74365SOL     OW24933   2.877  12.749   6.009
74365SOL    HW124934   2.834  12.670   5.976
74365SOL    HW224935   2.806  12.801   6.045
74366SOL     OW24936   3.652   3.140   4.277
74366SOL    HW124937   3.608   3.205   4.332
74366SOL    HW224938   3.725   3.108   4.330
74367SOL     OW24939  11.150   6.985   0.894
74367SOL    HW124940  11.231   7.011   0.849
74367SOL    HW224941  11.167   7.001   0.986
74368SOL     OW24942   1.776  12.023   3.697
74368SOL    HW124943   1.808  11.971   3.624
74368SOL    HW224944   1.823  12.106   3.689
74369SOL     OW24945  11.171  13.534  11.499
74369SOL    HW124946  11.078  13.511  11.503
74369SOL    HW224947  11.178  13.588  11.420
74370SOL     OW24948  10.842   5.183   0.067
74370SOL    HW124949  10.750   5.179   0.041
74370SOL    HW224950  10.857   5.274   0.092
74371SOL     OW24951  11.062  10.390   6.927
74371SOL    HW124952  11.009  10.419   6.853
74371SOL    HW224953  11.150  10.421   6.907
74372SOL     OW24954  12.061  12.750  12.733
74372SOL    HW124955  12.145  12.718  12.767
74372SOL    HW224956  12.057  12.841  12.761
74373SOL     OW24957   9.040   6.906   7.915
74373SOL    HW124958   9.114   6.957   7.946
74373SOL    HW224959   8.996   6.876   7.995
74374SOL     OW24960   3.972   3.059   2.830
74374SOL    HW124961   4.057   3.035   2.794
74374SOL    HW224962   3.930   3.110   2.760
74375SOL     OW24963   7.827   7.946   0.222
74375SOL    HW124964   7.861   7.863   0.186
74375SOL    HW224965   7.876   8.013   0.175
74376SOL     OW24966  10.817   0.649   9.519
74376SOL    HW124967  10.758   0.615   9.452
74376SOL    HW224968  10.844   0.734   9.485
74377SOL     OW24969   8.694  10.817  13.300
74377SOL    HW124970   8.626  10.761  13.338
74377SOL    HW224971   8.758  10.827  13.370
74378SOL     OW24972   7.581   7.796   6.362
74378SOL    HW124973   7.587   7.891   6.353
74378SOL    HW224974   7.520   7.783   6.435
74379SOL     OW24975   0.609  12.150  11.585
74379SOL    HW124976   0.672  12.174  11.653
74379SOL    HW224977   0.523  12.161  11.627
74380SOL     OW24978  14.640  12.014   9.046
74380SOL    HW124979  14.710  12.001   8.981
74380SOL    HW224980  14.585  12.084   9.008
74381SOL     OW24981   4.235   6.821   1.955
74381SOL    HW124982   4.209   6.906   1.920
74381SOL    HW224983   4.315   6.839   2.005
74382SOL     OW24984   8.855  12.509   3.095
74382SOL    HW124985   8.829  12.460   3.173
74382SOL    HW224986   8.776  12.555   3.068
74383SOL     OW24987   2.777   9.054  14.032
74383SOL    HW124988   2.730   9.048  14.115
74383SOL    HW224989   2.834   9.130  14.042
74384SOL     OW24990   9.307  14.228   9.869
74384SOL    HW124991   9.312  14.292   9.940
74384SOL    HW224992   9.221  14.244   9.829
74385SOL     OW24993   6.499   6.441   1.380
74385SOL    HW124994   6.416   6.445   1.333
74385SOL    HW224995   6.552   6.376   1.333
74386SOL     OW24996  12.017   6.916   6.653
74386SOL    HW124997  11.980   6.828   6.644
74386SOL    HW224998  11.968   6.955   6.725
74387SOL     OW24999   1.963   3.892   5.456
74387SOL    HW125000   2.009   3.956   5.510
74387SOL    HW225001   2.024   3.819   5.449
74388SOL     OW25002   7.378  11.111   8.064
74388SOL    HW125003   7.438  11.091   7.992
74388SOL    HW225004   7.371  11.029   8.113
74389SOL     OW25005   5.506   0.942   0.184
74389SOL    HW125006   5.462   0.895   0.113
74389SOL    HW225007   5.583   0.981   0.143
74390SOL     OW25008   7.805   8.354   7.877
74390SOL    HW125009   7.855   8.289   7.927
74390SOL    HW225010   7.870   8.393   7.818
74391SOL     OW25011   6.797   3.178  14.222
74391SOL    HW125012   6.854   3.173  14.298
74391SOL    HW225013   6.711   3.154  14.255
74392SOL     OW25014  12.522   2.516   8.589
74392SOL    HW125015  12.464   2.455   8.543
74392SOL    HW225016  12.595   2.529   8.529
74393SOL     OW25017   3.772   0.481   2.415
74393SOL    HW125018   3.776   0.471   2.510
74393SOL    HW225019   3.834   0.551   2.396
74394SOL     OW25020   3.480   3.209   2.402
74394SOL    HW125021   3.449   3.287   2.447
74394SOL    HW225022   3.497   3.145   2.471
74395SOL     OW25023   1.308   3.143   0.513
74395SOL    HW125024   1.216   3.124   0.492
74395SOL    HW225025   1.357   3.110   0.437
74396SOL     OW25026   7.440   7.445   3.041
74396SOL    HW125027   7.370   7.385   3.067
74396SOL    HW225028   7.490   7.461   3.121
74397SOL     OW25029  10.410   9.248  12.284
74397SOL    HW125030  10.501   9.266  12.260
74397SOL    HW225031  10.401   9.153  12.270
74398SOL     OW25032   1.881   1.481   6.734
74398SOL    HW125033   1.848   1.557   6.783
74398SOL    HW225034   1.822   1.410   6.757
74399SOL     OW25035   4.404   7.684   5.821
74399SOL    HW125036   4.410   7.600   5.867
74399SOL    HW225037   4.482   7.686   5.766
74400SOL     OW25038   6.936   5.644  14.298
74400SOL    HW125039   6.903   5.653  14.209
74400SOL    HW225040   6.997   5.718  14.308
74401SOL     OW25041   3.477   4.114   2.224
74401SOL    HW125042   3.534   4.180   2.263
74401SOL    HW225043   3.393   4.158   2.213
74402SOL     OW25044   6.263  11.427   8.142
74402SOL    HW125045   6.235  11.450   8.230
74402SOL    HW225046   6.288  11.510   8.102
74403SOL     OW25047   8.064   7.067   1.870
74403SOL    HW125048   8.082   7.025   1.786
74403SOL    HW225049   8.064   7.161   1.850
74404SOL     OW25050   8.815  13.726   7.947
74404SOL    HW125051   8.854  13.711   8.033
74404SOL    HW225052   8.818  13.641   7.904
74405SOL     OW25053  10.230  11.878   1.573
74405SOL    HW125054  10.266  11.957   1.615
74405SOL    HW225055  10.217  11.903   1.482
74406SOL     OW25056   4.026   4.478  12.476
74406SOL    HW125057   3.956   4.542  12.461
74406SOL    HW225058   4.106   4.523  12.446
74407SOL     OW25059   2.436   8.324   6.612
74407SOL    HW125060   2.466   8.380   6.683
74407SOL    HW225061   2.437   8.381   6.535
74408SOL     OW25062   0.293  12.435   9.648
74408SOL    HW125063   0.303  12.348   9.688
74408SOL    HW225064   0.252  12.488   9.717
74409SOL     OW25065   2.977   3.742  11.928
74409SOL    HW125066   3.007   3.758  12.018
74409SOL    HW225067   2.949   3.828  11.896
74410SOL     OW25068  10.662   8.399   4.146
74410SOL    HW125069  10.599   8.445   4.202
74410SOL    HW225070  10.719   8.352   4.207
74411SOL     OW25071  14.394  14.061   0.529
74411SOL    HW125072  14.463  14.049   0.464
74411SOL    HW225073  14.314  14.070   0.477
74412SOL     OW25074  13.340   9.492  13.504
74412SOL    HW125075  13.281   9.549  13.454
74412SOL    HW225076  13.322   9.404  13.471
74413SOL     OW25077  10.505   6.647   6.622
74413SOL    HW125078  10.571   6.608   6.680
74413SOL    HW225079  10.487   6.578   6.558
74414SOL     OW25080   1.014   2.067  14.439
74414SOL    HW125081   1.071   2.121  14.384
74414SOL    HW225082   0.932   2.116  14.444
74415SOL     OW25083   1.726   0.351   6.834
74415SOL    HW125084   1.701   0.295   6.907
74415SOL    HW225085   1.710   0.299   6.756
74416SOL     OW25086  11.161   7.055   8.853
74416SOL    HW125087  11.137   6.977   8.803
74416SOL    HW225088  11.094   7.119   8.830
74417SOL     OW25089   8.970   2.773   6.320
74417SOL    HW125090   9.055   2.786   6.279
74417SOL    HW225091   8.964   2.843   6.386
74418SOL     OW25092   3.783   6.241   7.794
74418SOL    HW125093   3.801   6.316   7.850
74418SOL    HW225094   3.828   6.261   7.712
74419SOL     OW25095  10.314   8.008   8.718
74419SOL    HW125096  10.350   8.083   8.670
74419SOL    HW225097  10.308   7.938   8.653
74420SOL     OW25098   9.870  10.327   6.665
74420SOL    HW125099   9.884  10.350   6.757
74420SOL    HW225100   9.849  10.234   6.666
74421SOL     OW25101   1.624   7.964   5.424
74421SOL    HW125102   1.707   7.923   5.401
74421SOL    HW225103   1.622   8.045   5.372
74422SOL     OW25104   9.852   6.193   7.173
74422SOL    HW125105   9.808   6.237   7.246
74422SOL    HW225106   9.878   6.108   7.208
74423SOL     OW25107   2.411   0.899  11.907
74423SOL    HW125108   2.494   0.907  11.956
74423SOL    HW225109   2.424   0.954  11.829
74424SOL     OW25110   8.625   1.603  13.190
74424SOL    HW125111   8.588   1.516  13.204
74424SOL    HW225112   8.580   1.659  13.253
74425SOL     OW25113   3.434   9.156   5.990
74425SOL    HW125114   3.411   9.103   6.066
74425SOL    HW225115   3.407   9.103   5.915
74426SOL     OW25116   4.735  11.932  12.745
74426SOL    HW125117   4.757  11.848  12.786
74426SOL    HW225118   4.684  11.908  12.668
74427SOL     OW25119   7.026   0.969  11.776
74427SOL    HW125120   7.075   0.887  11.779
74427SOL    HW225121   7.034   1.005  11.865
74428SOL     OW25122   2.549   8.369  10.126
74428SOL    HW125123   2.612   8.348  10.057
74428SOL    HW225124   2.490   8.433  10.087
74429SOL     OW25125   4.124   1.040   0.430
74429SOL    HW125126   4.153   1.057   0.520
74429SOL    HW225127   4.205   1.044   0.378
74430SOL     OW25128   7.321  14.338   6.733
74430SOL    HW125129   7.243  14.320   6.680
74430SOL    HW225130   7.303  14.296   6.817
74431SOL     OW25131   3.559   2.465   2.448
74431SOL    HW125132   3.510   2.517   2.384
74431SOL    HW225133   3.497   2.451   2.520
74432SOL     OW25134   2.500  13.545   3.853
74432SOL    HW125135   2.560  13.472   3.842
74432SOL    HW225136   2.537  13.615   3.799
74433SOL     OW25137   4.125   4.100   1.952
74433SOL    HW125138   4.185   4.158   1.906
74433SOL    HW225139   4.091   4.041   1.885
74434SOL     OW25140  11.611   7.869   3.099
74434SOL    HW125141  11.528   7.886   3.055
74434SOL    HW225142  11.624   7.945   3.156
74435SOL     OW25143   8.988   6.953  14.458
74435SOL    HW125144   9.032   6.917  14.381
74435SOL    HW225145   9.018   7.043  14.463
74436SOL     OW25146  11.733   4.831   4.748
74436SOL    HW125147  11.821   4.839   4.787
74436SOL    HW225148  11.674   4.862   4.817
74437SOL     OW25149   3.599  10.377   0.074
74437SOL    HW125150   3.694  10.376   0.060
74437SOL    HW225151   3.584  10.311   0.141
74438SOL     OW25152  11.040  10.049  10.683
74438SOL    HW125153  11.122  10.084  10.718
74438SOL    HW225154  11.046  10.062  10.588
74439SOL     OW25155   8.052   9.058  13.632
74439SOL    HW125156   8.064   9.031  13.541
74439SOL    HW225157   8.132   9.029  13.676
74440SOL     OW25158   0.890   5.146   9.778
74440SOL    HW125159   0.962   5.094   9.814
74440SOL    HW225160   0.931   5.228   9.751
74441SOL     OW25161  10.484   4.604   6.053
74441SOL    HW125162  10.391   4.620   6.069
74441SOL    HW225163  10.508   4.668   5.987
74442SOL     OW25164   2.139  10.957   1.747
74442SOL    HW125165   2.104  11.031   1.796
74442SOL    HW225166   2.231  10.979   1.734
74443SOL     OW25167   5.284   2.307   9.440
74443SOL    HW125168   5.379   2.303   9.443
74443SOL    HW225169   5.264   2.386   9.390
74444SOL     OW25170   4.838  10.342  10.982
74444SOL    HW125171   4.895  10.340  10.904
74444SOL    HW225172   4.878  10.281  11.043
74445SOL     OW25173  12.383   1.795  11.084
74445SOL    HW125174  12.319   1.744  11.034
74445SOL    HW225175  12.468   1.757  11.060
74446SOL     OW25176  14.807   2.106  13.720
74446SOL    HW125177  14.823   2.019  13.685
74446SOL    HW225178  14.735   2.141  13.668
74447SOL     OW25179   3.423  11.865   3.971
74447SOL    HW125180   3.378  11.846   3.888
74447SOL    HW225181   3.406  11.958   3.986
74448SOL     OW25182   6.581   7.080   5.409
74448SOL    HW125183   6.609   7.030   5.333
74448SOL    HW225184   6.516   7.024   5.452
74449SOL     OW25185  11.429  10.272  13.258
74449SOL    HW125186  11.380  10.190  13.259
74449SOL    HW225187  11.501  10.258  13.318
74450SOL     OW25188   8.146   9.411   2.898
74450SOL    HW125189   8.166   9.500   2.925
74450SOL    HW225190   8.123   9.418   2.805
74451SOL     OW25191  12.321   2.684   8.300
74451SOL    HW125192  12.414   2.666   8.287
74451SOL    HW225193  12.278   2.641   8.226
74452SOL     OW25194   7.318   5.983  13.582
74452SOL    HW125195   7.311   6.025  13.496
74452SOL    HW225196   7.296   6.052  13.645
74453SOL     OW25197   7.505  10.232   9.829
74453SOL    HW125198   7.443  10.199   9.765
74453SOL    HW225199   7.588  10.237   9.782
74454SOL     OW25200   4.989   8.547   8.320
74454SOL    HW125201   4.901   8.586   8.320
74454SOL    HW225202   5.031   8.583   8.242
74455SOL     OW25203   3.137   7.121   6.145
74455SOL    HW125204   3.069   7.101   6.081
74455SOL    HW225205   3.215   7.140   6.093
74456SOL     OW25206   9.259   1.492   3.398
74456SOL    HW125207   9.265   1.572   3.346
74456SOL    HW225208   9.168   1.464   3.389
74457SOL     OW25209   5.755   6.617   2.852
74457SOL    HW125210   5.848   6.600   2.859
74457SOL    HW225211   5.718   6.533   2.823
74458SOL     OW25212   0.397  13.605   5.496
74458SOL    HW125213   0.384  13.633   5.587
74458SOL    HW225214   0.319  13.555   5.474
74459SOL     OW25215   5.833  14.456  13.174
74459SOL    HW125216   5.763  14.420  13.228
74459SOL    HW225217   5.819  14.550  13.176
74460SOL     OW25218   3.527   5.322  14.122
74460SOL    HW125219   3.536   5.376  14.043
74460SOL    HW225220   3.491   5.381  14.188
74461SOL     OW25221  12.597  10.128   6.671
74461SOL    HW125222  12.531  10.107   6.738
74461SOL    HW225223  12.673  10.076   6.696
74462SOL     OW25224   4.932   2.804   8.383
74462SOL    HW125225   5.015   2.841   8.351
74462SOL    HW225226   4.953   2.713   8.403
74463SOL     OW25227  12.344   2.304   7.721
74463SOL    HW125228  12.391   2.259   7.652
74463SOL    HW225229  12.274   2.352   7.676
74464SOL     OW25230   4.596   6.919  11.017
74464SOL    HW125231   4.510   6.960  11.030
74464SOL    HW225232   4.656   6.972  11.068
74465SOL     OW25233  14.747  12.713  12.754
74465SOL    HW125234  14.794  12.796  12.751
74465SOL    HW225235  14.668  12.729  12.702
74466SOL     OW25236   2.078   6.718  11.876
74466SOL    HW125237   2.139   6.732  11.803
74466SOL    HW225238   2.093   6.792  11.935
74467SOL     OW25239   8.043   8.265   4.065
74467SOL    HW125240   7.996   8.307   3.994
74467SOL    HW225241   7.975   8.227   4.121
74468SOL     OW25242   2.893  10.372   0.268
74468SOL    HW125243   2.964  10.436   0.259
74468SOL    HW225244   2.813  10.424   0.267
74469SOL     OW25245   3.309   4.555  11.447
74469SOL    HW125246   3.322   4.615  11.373
74469SOL    HW225247   3.258   4.606  11.511
74470SOL     OW25248   4.624   2.510  13.882
74470SOL    HW125249   4.545   2.558  13.857
74470SOL    HW225250   4.692   2.577  13.891
74471SOL     OW25251  12.672   8.317   0.861
74471SOL    HW125252  12.667   8.246   0.925
74471SOL    HW225253  12.714   8.278   0.784
74472SOL     OW25254  12.188  11.423   6.375
74472SOL    HW125255  12.182  11.329   6.392
74472SOL    HW225256  12.097  11.452   6.364
74473SOL     OW25257   2.210  14.538  10.547
74473SOL    HW125258   2.119  14.510  10.553
74473SOL    HW225259   2.248  14.482  10.479
74474SOL     OW25260   6.839  10.286  11.568
74474SOL    HW125261   6.813  10.327  11.485
74474SOL    HW225262   6.756  10.271  11.614
74475SOL     OW25263   5.750  11.156   2.196
74475SOL    HW125264   5.747  11.109   2.113
74475SOL    HW225265   5.811  11.228   2.180
74476SOL     OW25266   6.409   0.670   4.377
74476SOL    HW125267   6.423   0.626   4.293
74476SOL    HW225268   6.446   0.609   4.442
74477SOL     OW25269  14.427   7.783   9.522
74477SOL    HW125270  14.343   7.775   9.567
74477SOL    HW225271  14.492   7.786   9.592
74478SOL     OW25272  10.739   4.996   6.061
74478SOL    HW125273  10.678   4.942   6.011
74478SOL    HW225274  10.716   4.979   6.152
74479SOL     OW25275   6.783  14.439  11.603
74479SOL    HW125276   6.733  14.434  11.685
74479SOL    HW225277   6.822  14.526  11.604
74480SOL     OW25278   6.452  10.359   7.156
74480SOL    HW125279   6.396  10.282   7.146
74480SOL    HW225280   6.448  10.403   7.071
74481SOL     OW25281   0.853   0.795   8.953
74481SOL    HW125282   0.813   0.725   8.901
74481SOL    HW225283   0.934   0.817   8.907
74482SOL     OW25284   8.550  10.207   1.000
74482SOL    HW125285   8.464  10.238   0.972
74482SOL    HW225286   8.546  10.112   0.990
74483SOL     OW25287   1.307   0.113   3.494
74483SOL    HW125288   1.247   0.177   3.455
74483SOL    HW225289   1.394   0.149   3.477
74484SOL     OW25290   7.012  14.244   5.499
74484SOL    HW125291   7.090  14.215   5.453
74484SOL    HW225292   6.966  14.164   5.524
74485SOL     OW25293   8.409   2.704  11.118
74485SOL    HW125294   8.450   2.776  11.070
74485SOL    HW225295   8.413   2.730  11.210
74486SOL     OW25296   9.489   7.049   7.911
74486SOL    HW125297   9.530   6.964   7.928
74486SOL    HW225298   9.556   7.113   7.934
74487SOL     OW25299  12.296   2.846  12.123
74487SOL    HW125300  12.332   2.930  12.093
74487SOL    HW225301  12.294   2.792  12.044
74488SOL     OW25302   7.847   7.396   8.534
74488SOL    HW125303   7.782   7.463   8.514
74488SOL    HW225304   7.922   7.444   8.568
74489SOL     OW25305  10.204   3.242   1.424
74489SOL    HW125306  10.202   3.147   1.411
74489SOL    HW225307  10.213   3.278   1.336
74490SOL     OW25308   4.502   2.843   4.323
74490SOL    HW125309   4.466   2.897   4.393
74490SOL    HW225310   4.451   2.868   4.245
74491SOL     OW25311  13.678   7.826  12.486
74491SOL    HW125312  13.717   7.739  12.499
74491SOL    HW225313  13.687   7.869  12.571
74492SOL     OW25314  13.219   0.794  14.472
74492SOL    HW125315  13.285   0.725  14.482
74492SOL    HW225316  13.136   0.747  14.480
74493SOL     OW25317   1.726  10.754   1.349
74493SOL    HW125318   1.669  10.680   1.369
74493SOL    HW225319   1.739  10.749   1.255
74494SOL     OW25320   6.852  13.935   5.047
74494SOL    HW125321   6.843  13.881   4.969
74494SOL    HW225322   6.888  14.018   5.015
74495SOL     OW25323   5.191   1.149   3.993
74495SOL    HW125324   5.283   1.163   4.016
74495SOL    HW225325   5.144   1.153   4.077
74496SOL     OW25326   0.551   4.757  11.839
74496SOL    HW125327   0.635   4.782  11.878
74496SOL    HW225328   0.489   4.821  11.873
74497SOL     OW25329   0.713  10.092   9.355
74497SOL    HW125330   0.733  10.133   9.271
74497SOL    HW225331   0.618  10.087   9.357
74498SOL     OW25332   5.728  12.310   7.821
74498SOL    HW125333   5.711  12.237   7.762
74498SOL    HW225334   5.726  12.387   7.765
74499SOL     OW25335  12.244   9.983  12.095
74499SOL    HW125336  12.179   9.977  12.165
74499SOL    HW225337  12.223   9.910  12.037
74500SOL     OW25338   7.229   0.666  13.762
74500SOL    HW125339   7.155   0.725  13.750
74500SOL    HW225340   7.218   0.630  13.850
74501SOL     OW25341   5.939   4.344   5.145
74501SOL    HW125342   5.898   4.344   5.232
74501SOL    HW225343   5.871   4.377   5.087
74502SOL     OW25344   3.027  13.909  14.586
74502SOL    HW125345   3.061  13.906  14.497
74502SOL    HW225346   2.932  13.895  14.575
74503SOL     OW25347  12.945   6.615  14.644
74503SOL    HW125348  12.872   6.567  14.683
74503SOL    HW225349  12.997   6.645  14.719
74504SOL     OW25350   6.480  11.703  13.576
74504SOL    HW125351   6.389  11.674  13.576
74504SOL    HW225352   6.501  11.715  13.668
74505SOL     OW25353  10.898  14.322  12.218
74505SOL    HW125354  10.927  14.233  12.237
74505SOL    HW225355  10.859  14.316  12.130
74506SOL     OW25356   0.865   2.437  11.415
74506SOL    HW125357   0.929   2.390  11.361
74506SOL    HW225358   0.854   2.383  11.493
74507SOL     OW25359   1.396   2.595   4.116
74507SOL    HW125360   1.344   2.635   4.046
74507SOL    HW225361   1.332   2.548   4.169
74508SOL     OW25362  12.288   1.211   5.150
74508SOL    HW125363  12.333   1.170   5.224
74508SOL    HW225364  12.200   1.227   5.182
74509SOL     OW25365   2.654   2.948  12.219
74509SOL    HW125366   2.614   2.896  12.288
74509SOL    HW225367   2.582   2.971  12.161
74510SOL     OW25368  11.604  11.102  12.146
74510SOL    HW125369  11.555  11.182  12.130
74510SOL    HW225370  11.539  11.032  12.141
74511SOL     OW25371   1.735   3.880  11.629
74511SOL    HW125372   1.822   3.849  11.603
74511SOL    HW225373   1.752   3.952  11.689
74512SOL     OW25374   0.294   8.494   2.776
74512SOL    HW125375   0.367   8.435   2.797
74512SOL    HW225376   0.216   8.440   2.788
74513SOL     OW25377   3.032   4.991   5.064
74513SOL    HW125378   2.941   4.963   5.077
74513SOL    HW225379   3.063   5.014   5.152
74514SOL     OW25380   4.271  12.567   3.574
74514SOL    HW125381   4.333  12.500   3.544
74514SOL    HW225382   4.215  12.521   3.636
74515SOL     OW25383   6.775   1.410   6.366
74515SOL    HW125384   6.782   1.495   6.323
74515SOL    HW225385   6.820   1.349   6.307
74516SOL     OW25386   6.191  11.568   1.658
74516SOL    HW125387   6.218  11.490   1.610
74516SOL    HW225388   6.251  11.637   1.628
74517SOL     OW25389   5.673   9.514   0.449
74517SOL    HW125390   5.689   9.550   0.537
74517SOL    HW225391   5.589   9.551   0.423
74518SOL     OW25392   3.015   3.245  10.510
74518SOL    HW125393   3.057   3.263  10.426
74518SOL    HW225394   2.947   3.312  10.518
74519SOL     OW25395  11.377   8.941   8.911
74519SOL    HW125396  11.415   8.863   8.952
74519SOL    HW225397  11.452   8.986   8.872
74520SOL     OW25398  11.117   5.264   2.295
74520SOL    HW125399  11.025   5.242   2.281
74520SOL    HW225400  11.115   5.354   2.328
74521SOL     OW25401   2.062   8.151   7.951
74521SOL    HW125402   2.148   8.191   7.936
74521SOL    HW225403   2.080   8.057   7.953
74522SOL     OW25404   6.584  11.446   6.480
74522SOL    HW125405   6.572  11.540   6.463
74522SOL    HW225406   6.506  11.405   6.444
74523SOL     OW25407   5.219   0.009   6.748
74523SOL    HW125408   5.136  14.837   6.741
74523SOL    HW225409   5.237   0.040   6.659
74524SOL     OW25410  11.956   6.911   8.575
74524SOL    HW125411  11.889   6.964   8.618
74524SOL    HW225412  11.921   6.898   8.486
74525SOL     OW25413  11.533   6.709  14.175
74525SOL    HW125414  11.547   6.790  14.126
74525SOL    HW225415  11.482   6.737  14.251
74526SOL     OW25416   1.127   5.098  10.636
74526SOL    HW125417   1.084   5.166  10.689
74526SOL    HW225418   1.103   5.120  10.546
74527SOL     OW25419  13.743  10.219  10.507
74527SOL    HW125420  13.812  10.179  10.561
74527SOL    HW225421  13.688  10.145  10.480
74528SOL     OW25422   5.626  14.604   2.475
74528SOL    HW125423   5.542  14.614   2.520
74528SOL    HW225424   5.652  14.514   2.491
74529SOL     OW25425   6.480  10.724   7.468
74529SOL    HW125426   6.556  10.770   7.504
74529SOL    HW225427   6.452  10.665   7.537
74530SOL     OW25428   6.092   7.579   9.561
74530SOL    HW125429   6.092   7.568   9.657
74530SOL    HW225430   6.045   7.660   9.546
74531SOL     OW25431   6.537  12.489   1.354
74531SOL    HW125432   6.456  12.456   1.393
74531SOL    HW225433   6.577  12.412   1.314
74532SOL     OW25434  10.625   7.800  13.985
74532SOL    HW125435  10.709   7.805  13.939
74532SOL    HW225436  10.575   7.734  13.936
74533SOL     OW25437   4.713   6.853  13.691
74533SOL    HW125438   4.643   6.893  13.743
74533SOL    HW225439   4.785   6.916  13.696
74534SOL     OW25440   3.818  11.749  10.991
74534SOL    HW125441   3.818  11.694  11.069
74534SOL    HW225442   3.843  11.690  10.920
74535SOL     OW25443  13.235   6.086  13.363
74535SOL    HW125444  13.231   6.058  13.455
74535SOL    HW225445  13.281   6.015  13.318
74536SOL     OW25446   4.350  12.449   9.538
74536SOL    HW125447   4.414  12.397   9.586
74536SOL    HW225448   4.284  12.385   9.509
74537SOL     OW25449  10.835  12.020  13.220
74537SOL    HW125450  10.878  11.995  13.302
74537SOL    HW225451  10.877  11.965  13.154
74538SOL     OW25452   9.538  14.360   9.109
74538SOL    HW125453   9.451  14.337   9.074
74538SOL    HW225454   9.598  14.300   9.065
74539SOL     OW25455   4.294   6.712   9.548
74539SOL    HW125456   4.383   6.747   9.548
74539SOL    HW225457   4.301   6.628   9.504
74540SOL     OW25458  11.825   3.353   4.746
74540SOL    HW125459  11.753   3.415   4.731
74540SOL    HW225460  11.853   3.327   4.658
74541SOL     OW25461   4.257   1.661  12.706
74541SOL    HW125462   4.190   1.724  12.680
74541SOL    HW225463   4.327   1.673  12.641
74542SOL     OW25464   6.086  10.120   3.717
74542SOL    HW125465   6.013  10.117   3.655
74542SOL    HW225466   6.117  10.211   3.714
74543SOL     OW25467  12.468   8.804   8.537
74543SOL    HW125468  12.436   8.826   8.450
74543SOL    HW225469  12.509   8.885   8.569
74544SOL     OW25470  13.851  10.492   0.494
74544SOL    HW125471  13.918  10.526   0.554
74544SOL    HW225472  13.772  10.542   0.516
74545SOL     OW25473   4.666   1.486   9.470
74545SOL    HW125474   4.701   1.574   9.459
74545SOL    HW225475   4.574   1.499   9.493
74546SOL     OW25476   8.534   1.666   3.660
74546SOL    HW125477   8.462   1.647   3.720
74546SOL    HW225478   8.492   1.695   3.579
74547SOL     OW25479   9.360   9.314  12.602
74547SOL    HW125480   9.375   9.338  12.693
74547SOL    HW225481   9.394   9.389  12.551
74548SOL     OW25482  11.400   1.645   7.896
74548SOL    HW125483  11.319   1.659   7.847
74548SOL    HW225484  11.422   1.732   7.930
74549SOL     OW25485   8.536  10.488   6.985
74549SOL    HW125486   8.587  10.408   6.998
74549SOL    HW225487   8.565  10.546   7.055
74550SOL     OW25488   8.559  10.370   7.834
74550SOL    HW125489   8.595  10.410   7.755
74550SOL    HW225490   8.532  10.444   7.888
74551SOL     OW25491   3.838   3.987  14.072
74551SOL    HW125492   3.753   4.030  14.076
74551SOL    HW225493   3.884   4.032  14.001
74552SOL     OW25494   2.728   9.607   1.140
74552SOL    HW125495   2.737   9.686   1.192
74552SOL    HW225496   2.685   9.636   1.059
74553SOL     OW25497  11.872   0.882   3.612
74553SOL    HW125498  11.948   0.940   3.607
74553SOL    HW225499  11.859   0.851   3.522
74554SOL     OW25500   1.242   0.100  13.298
74554SOL    HW125501   1.275   0.119  13.386
74554SOL    HW225502   1.147   0.094  13.309
74555SOL     OW25503   7.273  10.934  13.049
74555SOL    HW125504   7.258  11.016  13.097
74555SOL    HW225505   7.258  10.865  13.113
74556SOL     OW25506   2.964   5.300   7.591
74556SOL    HW125507   2.913   5.242   7.647
74556SOL    HW225508   2.908   5.314   7.514
74557SOL     OW25509   2.304   0.787  13.682
74557SOL    HW125510   2.214   0.759  13.666
74557SOL    HW225511   2.330   0.831  13.601
74558SOL     OW25512   2.539  11.952   5.052
74558SOL    HW125513   2.511  11.863   5.034
74558SOL    HW225514   2.551  11.992   4.966
74559SOL     OW25515  14.793  11.884   6.194
74559SOL    HW125516  14.799  11.810   6.255
74559SOL    HW225517  14.715  11.865   6.141
74560SOL     OW25518   2.013   6.953   6.395
74560SOL    HW125519   2.004   6.868   6.438
74560SOL    HW225520   2.072   6.938   6.322
74561SOL     OW25521   5.128   2.140  14.134
74561SOL    HW125522   5.209   2.100  14.165
74561SOL    HW225523   5.067   2.067  14.123
74562SOL     OW25524   7.236  10.385  10.838
74562SOL    HW125525   7.298  10.399  10.767
74562SOL    HW225526   7.286  10.406  10.917
74563SOL     OW25527  12.936  10.267  11.225
74563SOL    HW125528  12.931  10.178  11.191
74563SOL    HW225529  12.862  10.274  11.285
74564SOL     OW25530  11.341   4.781  11.015
74564SOL    HW125531  11.311   4.774  11.105
74564SOL    HW225532  11.398   4.858  11.015
74565SOL     OW25533   0.761  14.655   9.440
74565SOL    HW125534   0.790  14.609   9.362
74565SOL    HW225535   0.736  14.586   9.501
74566SOL     OW25536  14.409  11.852  13.245
74566SOL    HW125537  14.321  11.879  13.217
74566SOL    HW225538  14.466  11.875  13.171
74567SOL     OW25539   2.763   1.021  14.384
74567SOL    HW125540   2.732   0.936  14.354
74567SOL    HW225541   2.856   1.022  14.362
74568SOL     OW25542   4.760  11.206   1.507
74568SOL    HW125543   4.753  11.272   1.576
74568SOL    HW225544   4.669  11.178   1.490
74569SOL     OW25545   2.936  11.857  12.256
74569SOL    HW125546   2.999  11.858  12.328
74569SOL    HW225547   2.969  11.924  12.195
74570SOL     OW25548   9.055   1.724   3.915
74570SOL    HW125549   9.021   1.750   4.000
74570SOL    HW225550   9.058   1.805   3.864
74571SOL     OW25551   0.570   8.261   5.186
74571SOL    HW125552   0.576   8.213   5.102
74571SOL    HW225553   0.485   8.236   5.221
74572SOL     OW25554   3.161  12.185  14.029
74572SOL    HW125555   3.186  12.272  13.998
74572SOL    HW225556   3.177  12.188  14.124
74573SOL     OW25557   5.926   8.040   0.555
74573SOL    HW125558   5.845   8.052   0.506
74573SOL    HW225559   5.943   8.125   0.594
74574SOL     OW25560  10.226   5.694   1.289
74574SOL    HW125561  10.304   5.697   1.344
74574SOL    HW225562  10.166   5.757   1.329
74575SOL     OW25563  14.358  13.924   6.035
74575SOL    HW125564  14.292  13.854   6.036
74575SOL    HW225565  14.442  13.878   6.030
74576SOL     OW25566   1.416  11.317   6.184
74576SOL    HW125567   1.486  11.252   6.187
74576SOL    HW225568   1.366  11.300   6.264
74577SOL     OW25569   3.758   4.233  14.173
74577SOL    HW125570   3.769   4.263  14.263
74577SOL    HW225571   3.738   4.312  14.123
74578SOL     OW25572   0.574   0.044   7.812
74578SOL    HW125573   0.667   0.048   7.791
74578SOL    HW225574   0.547   0.135   7.822
74579SOL     OW25575  13.017   7.815   9.740
74579SOL    HW125576  13.075   7.768   9.799
74579SOL    HW225577  13.075   7.870   9.688
74580SOL     OW25578   8.921   1.897   7.817
74580SOL    HW125579   8.915   1.977   7.766
74580SOL    HW225580   8.892   1.828   7.757
74581SOL     OW25581   0.725   6.796   5.627
74581SOL    HW125582   0.650   6.741   5.650
74581SOL    HW225583   0.744   6.774   5.535
74582SOL     OW25584  14.549   6.193   0.260
74582SOL    HW125585  14.458   6.205   0.233
74582SOL    HW225586  14.554   6.233   0.346
74583SOL     OW25587  10.553  11.318  14.584
74583SOL    HW125588  10.584  11.381  14.518
74583SOL    HW225589  10.458  11.316  14.572
74584SOL     OW25590   7.015   9.048  12.151
74584SOL    HW125591   6.995   9.126  12.098
74584SOL    HW225592   7.022   8.977  12.087
74585SOL     OW25593   5.692  13.029   8.363
74585SOL    HW125594   5.732  12.947   8.337
74585SOL    HW225595   5.682  13.021   8.458
74586SOL     OW25596   7.332   6.211  10.762
74586SOL    HW125597   7.239   6.189  10.751
74586SOL    HW225598   7.374   6.180  10.682
74587SOL     OW25599   7.758   1.862  12.610
74587SOL    HW125600   7.820   1.821  12.671
74587SOL    HW225601   7.673   1.852  12.653
74588SOL     OW25602   0.547   0.067   2.963
74588SOL    HW125603   0.626   0.033   2.922
74588SOL    HW225604   0.545   0.026   3.050
74589SOL     OW25605   2.618   6.032   5.997
74589SOL    HW125606   2.678   5.989   5.936
74589SOL    HW225607   2.610   6.121   5.964
74590SOL     OW25608   7.203   6.817   9.567
74590SOL    HW125609   7.291   6.848   9.544
74590SOL    HW225610   7.218   6.742   9.625
74591SOL     OW25611   1.897   3.683   7.642
74591SOL    HW125612   1.898   3.588   7.658
74591SOL    HW225613   1.865   3.692   7.553
74592SOL     OW25614   6.361   2.274  13.285
74592SOL    HW125615   6.455   2.260  13.291
74592SOL    HW225616   6.340   2.259  13.193
74593SOL     OW25617   6.225   0.462   2.618
74593SOL    HW125618   6.186   0.549   2.607
74593SOL    HW225619   6.292   0.474   2.686
74594SOL     OW25620  11.699   9.055   5.626
74594SOL    HW125621  11.706   8.981   5.686
74594SOL    HW225622  11.609   9.048   5.591
74595SOL     OW25623   2.745   4.774   6.119
74595SOL    HW125624   2.702   4.805   6.198
74595SOL    HW225625   2.705   4.689   6.101
74596SOL     OW25626   4.913   9.204   9.046
74596SOL    HW125627   4.990   9.205   8.989
74596SOL    HW225628   4.948   9.194   9.134
74597SOL     OW25629   2.543  12.199   0.765
74597SOL    HW125630   2.630  12.158   0.761
74597SOL    HW225631   2.560  12.293   0.757
74598SOL     OW25632   9.145   0.760   8.924
74598SOL    HW125633   9.190   0.680   8.950
74598SOL    HW225634   9.211   0.810   8.875
74599SOL     OW25635   8.420  12.462  10.693
74599SOL    HW125636   8.327  12.451  10.714
74599SOL    HW225637   8.453  12.518  10.763
74600SOL     OW25638   7.864   7.498   1.961
74600SOL    HW125639   7.831   7.576   1.916
74600SOL    HW225640   7.901   7.445   1.891
74601SOL     OW25641   8.583  13.358   5.715
74601SOL    HW125642   8.643  13.349   5.789
74601SOL    HW225643   8.598  13.447   5.683
74602SOL     OW25644  11.313  12.711   6.054
74602SOL    HW125645  11.364  12.631   6.070
74602SOL    HW225646  11.311  12.755   6.139
74603SOL     OW25647  12.652  12.268  13.462
74603SOL    HW125648  12.567  12.236  13.491
74603SOL    HW225649  12.645  12.273  13.367
74604SOL     OW25650  12.370   7.781  13.583
74604SOL    HW125651  12.345   7.689  13.589
74604SOL    HW225652  12.414   7.788  13.498
74605SOL     OW25653   3.621   8.300   5.116
74605SOL    HW125654   3.654   8.268   5.033
74605SOL    HW225655   3.677   8.260   5.182
74606SOL     OW25656   6.038  11.953  10.122
74606SOL    HW125657   5.972  12.021  10.111
74606SOL    HW225658   6.110  11.997  10.167
74607SOL     OW25659   2.073   2.789  11.936
74607SOL    HW125660   2.027   2.713  11.902
74607SOL    HW225661   2.003   2.850  11.961
74608SOL     OW25662   1.032   4.881   2.954
74608SOL    HW125663   0.965   4.883   3.022
74608SOL    HW225664   1.114   4.870   3.002
74609SOL     OW25665   0.736   8.327  11.827
74609SOL    HW125666   0.689   8.277  11.894
74609SOL    HW225667   0.729   8.273  11.748
74610SOL     OW25668  12.620   2.116  10.666
74610SOL    HW125669  12.526   2.111  10.684
74610SOL    HW225670  12.654   2.180  10.728
74611SOL     OW25671   4.406  14.124   2.514
74611SOL    HW125672   4.323  14.146   2.556
74611SOL    HW225673   4.428  14.037   2.547
74612SOL     OW25674   9.466   0.736  13.621
74612SOL    HW125675   9.450   0.816  13.570
74612SOL    HW225676   9.379   0.710  13.652
74613SOL     OW25677  14.122  13.204   5.811
74613SOL    HW125678  14.032  13.200   5.844
74613SOL    HW225679  14.162  13.274   5.862
74614SOL     OW25680   4.182  13.575   8.927
74614SOL    HW125681   4.240  13.509   8.964
74614SOL    HW225682   4.205  13.578   8.834
74615SOL     OW25683   9.953  14.784   7.477
74615SOL    HW125684  10.036  14.737   7.489
74615SOL    HW225685   9.929  14.815   7.564
74616SOL     OW25686  10.646  14.674   5.404
74616SOL    HW125687  10.620  14.681   5.312
74616SOL    HW225688  10.596  14.742   5.448
74617SOL     OW25689  11.443   8.852   9.949
74617SOL    HW125690  11.370   8.893   9.902
74617SOL    HW225691  11.518   8.862   9.890
74618SOL     OW25692   4.953  14.653   3.273
74618SOL    HW125693   4.940  14.602   3.353
74618SOL    HW225694   4.893  14.727   3.282
74619SOL     OW25695  14.130   1.635   2.107
74619SOL    HW125696  14.082   1.620   2.188
74619SOL    HW225697  14.187   1.559   2.098
74620SOL     OW25698   4.505   7.333  13.240
74620SOL    HW125699   4.500   7.320  13.146
74620SOL    HW225700   4.572   7.272  13.270
74621SOL     OW25701   2.903   3.306  12.512
74621SOL    HW125702   2.917   3.347  12.427
74621SOL    HW225703   2.964   3.350  12.571
74622SOL     OW25704   1.653   4.770   2.879
74622SOL    HW125705   1.681   4.734   2.795
74622SOL    HW225706   1.560   4.787   2.869
74623SOL     OW25707   8.038   6.384   8.594
74623SOL    HW125708   8.025   6.390   8.499
74623SOL    HW225709   8.132   6.397   8.605
74624SOL     OW25710   4.264  14.208   5.552
74624SOL    HW125711   4.313  14.135   5.590
74624SOL    HW225712   4.290  14.285   5.603
74625SOL     OW25713   4.501  14.367  13.540
74625SOL    HW125714   4.408  14.355  13.523
74625SOL    HW225715   4.542  14.362  13.454
74626SOL     OW25716   6.361   9.992  10.122
74626SOL    HW125717   6.297   9.973  10.190
74626SOL    HW225718   6.434   9.933  10.141
74627SOL     OW25719   2.569  11.008   4.346
74627SOL    HW125720   2.659  11.039   4.362
74627SOL    HW225721   2.565  10.922   4.388
74628SOL     OW25722   1.418  14.083   8.034
74628SOL    HW125723   1.356  14.103   7.964
74628SOL    HW225724   1.409  13.989   8.049
74629SOL     OW25725  12.945   5.391   8.021
74629SOL    HW125726  12.864   5.344   8.002
74629SOL    HW225727  12.994   5.331   8.078
74630SOL     OW25728  12.955   9.987   5.526
74630SOL    HW125729  12.943  10.049   5.598
74630SOL    HW225730  12.875   9.933   5.526
74631SOL     OW25731  14.081   8.221   6.975
74631SOL    HW125732  14.078   8.212   7.070
74631SOL    HW225733  14.011   8.164   6.943
74632SOL     OW25734  10.444   4.606   9.427
74632SOL    HW125735  10.406   4.691   9.450
74632SOL    HW225736  10.469   4.568   9.511
74633SOL     OW25737  11.543   6.694   5.800
74633SOL    HW125738  11.463   6.745   5.789
74633SOL    HW225739  11.613   6.754   5.777
74634SOL     OW25740   1.132  10.781   4.527
74634SOL    HW125741   1.214  10.802   4.571
74634SOL    HW225742   1.139  10.824   4.441
74635SOL     OW25743  10.414  12.943   5.188
74635SOL    HW125744  10.327  12.923   5.155
74635SOL    HW225745  10.401  13.019   5.245
74636SOL     OW25746   6.307   2.006   1.233
74636SOL    HW125747   6.355   2.065   1.290
74636SOL    HW225748   6.319   1.920   1.272
74637SOL     OW25749   5.711   6.956   1.409
74637SOL    HW125750   5.759   7.027   1.366
74637SOL    HW225751   5.675   6.904   1.337
74638SOL     OW25752   0.971   7.021   4.215
74638SOL    HW125753   0.895   7.030   4.157
74638SOL    HW225754   0.955   7.085   4.285
74639SOL     OW25755   9.730   7.185  13.532
74639SOL    HW125756   9.824   7.204  13.523
74639SOL    HW225757   9.717   7.175  13.626
74640SOL     OW25758  13.700   5.239   1.156
74640SOL    HW125759  13.654   5.318   1.186
74640SOL    HW225760  13.645   5.167   1.187
74641SOL     OW25761   0.992   8.269   0.583
74641SOL    HW125762   0.897   8.267   0.571
74641SOL    HW225763   1.007   8.340   0.645
74642SOL     OW25764   5.389  12.840  13.329
74642SOL    HW125765   5.373  12.911  13.391
74642SOL    HW225766   5.302  12.815  13.298
74643SOL     OW25767  13.907   1.064   9.027
74643SOL    HW125768  13.923   1.007   8.952
74643SOL    HW225769  13.815   1.090   9.019
74644SOL     OW25770   5.932  11.179  10.538
74644SOL    HW125771   5.846  11.205  10.504
74644SOL    HW225772   5.990  11.252  10.514
74645SOL     OW25773  12.979  10.865   2.195
74645SOL    HW125774  12.975  10.881   2.101
74645SOL    HW225775  13.066  10.895   2.221
74646SOL     OW25776   8.673   7.855   4.384
74646SOL    HW125777   8.652   7.858   4.477
74646SOL    HW225778   8.590   7.874   4.340
74647SOL     OW25779  10.405   6.247   6.393
74647SOL    HW125780  10.404   6.339   6.421
74647SOL    HW225781  10.364   6.248   6.306
74648SOL     OW25782  10.893   0.179   4.854
74648SOL    HW125783  10.957   0.246   4.831
74648SOL    HW225784  10.902   0.169   4.949
74649SOL     OW25785  11.055  12.280  13.198
74649SOL    HW125786  10.988  12.330  13.152
74649SOL    HW225787  11.098  12.230  13.128
74650SOL     OW25788  11.116  10.874   4.304
74650SOL    HW125789  11.034  10.869   4.353
74650SOL    HW225790  11.184  10.879   4.372
74651SOL     OW25791   4.016  13.005   9.162
74651SOL    HW125792   4.043  13.080   9.214
74651SOL    HW225793   3.946  13.039   9.105
74652SOL     OW25794   2.128  10.318   5.654
74652SOL    HW125795   2.134  10.370   5.734
74652SOL    HW225796   2.217  10.319   5.619
74653SOL     OW25797   9.125   0.306  14.740
74653SOL    HW125798   9.100   0.238  14.678
74653SOL    HW225799   9.069   0.290  14.816
74654SOL     OW25800  13.383   7.391  10.852
74654SOL    HW125801  13.292   7.404  10.826
74654SOL    HW225802  13.416   7.480  10.866
74655SOL     OW25803   8.722   7.587   1.816
74655SOL    HW125804   8.782   7.624   1.881
74655SOL    HW225805   8.777   7.569   1.740
74656SOL     OW25806  12.490  10.903   0.671
74656SOL    HW125807  12.396  10.908   0.653
74656SOL    HW225808  12.498  10.931   0.762
74657SOL     OW25809  14.503  12.909   0.079
74657SOL    HW125810  14.503  12.895   0.174
74657SOL    HW225811  14.584  12.957   0.062
74658SOL     OW25812   6.808   6.228   5.994
74658SOL    HW125813   6.835   6.295   6.058
74658SOL    HW225814   6.798   6.276   5.912
74659SOL     OW25815  13.434  12.632   0.936
74659SOL    HW125816  13.349  12.602   0.903
74659SOL    HW225817  13.416  12.658   1.026
74660SOL     OW25818   1.423   8.463  10.374
74660SOL    HW125819   1.507   8.505  10.355
74660SOL    HW225820   1.362   8.536  10.386
74661SOL     OW25821  12.713   5.963   8.839
74661SOL    HW125822  12.765   5.966   8.919
74661SOL    HW225823  12.641   6.023   8.855
74662SOL     OW25824   0.776   7.923  13.877
74662SOL    HW125825   0.831   7.922  13.798
74662SOL    HW225826   0.826   7.974  13.940
74663SOL     OW25827   7.234   4.730   9.074
74663SOL    HW125828   7.231   4.680   9.155
74663SOL    HW225829   7.202   4.816   9.097
74664SOL     OW25830  14.066   8.881   4.318
74664SOL    HW125831  14.057   8.791   4.348
74664SOL    HW225832  14.052   8.934   4.397
74665SOL     OW25833  10.630   1.627   4.611
74665SOL    HW125834  10.719   1.619   4.645
74665SOL    HW225835  10.640   1.667   4.525
74666SOL     OW25836   9.396  10.986   2.346
74666SOL    HW125837   9.330  11.035   2.297
74666SOL    HW225838   9.403  10.902   2.300
74667SOL     OW25839   1.384   3.369  12.978
74667SOL    HW125840   1.477   3.361  13.002
74667SOL    HW225841   1.337   3.341  13.056
74668SOL     OW25842  14.803   6.067   5.340
74668SOL    HW125843  14.747   6.145   5.346
74668SOL    HW225844  14.746   6.000   5.303
74669SOL     OW25845   2.607   9.527  10.916
74669SOL    HW125846   2.601   9.605  10.861
74669SOL    HW225847   2.542   9.542  10.985
74670SOL     OW25848   8.910   8.556  10.658
74670SOL    HW125849   8.912   8.651  10.668
74670SOL    HW225850   8.821   8.537  10.627
74671SOL     OW25851  10.502   2.503   9.555
74671SOL    HW125852  10.451   2.422   9.547
74671SOL    HW225853  10.437   2.569   9.580
74672SOL     OW25854   8.497   7.032   0.621
74672SOL    HW125855   8.464   7.077   0.543
74672SOL    HW225856   8.503   7.101   0.688
74673SOL     OW25857   1.777   2.649   2.101
74673SOL    HW125858   1.723   2.643   2.021
74673SOL    HW225859   1.749   2.575   2.154
74674SOL     OW25860   9.685   7.227  13.786
74674SOL    HW125861   9.688   7.166  13.859
74674SOL    HW225862   9.671   7.313  13.827
74675SOL     OW25863   7.226   8.148  13.401
74675SOL    HW125864   7.298   8.187  13.452
74675SOL    HW225865   7.176   8.098  13.465
74676SOL     OW25866   0.273   9.042   3.842
74676SOL    HW125867   0.301   8.987   3.915
74676SOL    HW225868   0.354   9.064   3.796
74677SOL     OW25869  14.576   5.451   0.259
74677SOL    HW125870  14.624   5.368   0.258
74677SOL    HW225871  14.523   5.446   0.339
74678SOL     OW25872   0.820   7.464   9.890
74678SOL    HW125873   0.744   7.444   9.835
74678SOL    HW225874   0.813   7.404   9.964
74679SOL     OW25875   5.666  14.738  14.269
74679SOL    HW125876   5.686  14.829  14.289
74679SOL    HW225877   5.741  14.689  14.304
74680SOL     OW25878  12.044   2.910   3.000
74680SOL    HW125879  11.970   2.954   2.959
74680SOL    HW225880  12.012   2.883   3.085
74681SOL     OW25881   8.391  12.339   3.072
74681SOL    HW125882   8.370  12.432   3.059
74681SOL    HW225883   8.447  12.338   3.149
74682SOL     OW25884  10.505  10.155   4.289
74682SOL    HW125885  10.573  10.181   4.227
74682SOL    HW225886  10.548  10.158   4.374
74683SOL     OW25887  11.219  10.011   6.883
74683SOL    HW125888  11.204   9.922   6.853
74683SOL    HW225889  11.196  10.009   6.976
74684SOL     OW25890   3.808   0.864   0.917
74684SOL    HW125891   3.735   0.910   0.959
74684SOL    HW225892   3.819   0.784   0.969
74685SOL     OW25893  10.089   2.928   3.108
74685SOL    HW125894  10.025   2.870   3.151
74685SOL    HW225895  10.089   3.007   3.163
74686SOL     OW25896   1.535   8.276   1.887
74686SOL    HW125897   1.538   8.305   1.978
74686SOL    HW225898   1.578   8.190   1.888
74687SOL     OW25899   3.068   2.094   3.456
74687SOL    HW125900   3.132   2.095   3.527
74687SOL    HW225901   3.035   2.004   3.454
74688SOL     OW25902   0.497   9.533  10.891
74688SOL    HW125903   0.418   9.587  10.885
74688SOL    HW225904   0.473   9.452  10.845
74689SOL     OW25905   4.248   5.465  10.408
74689SOL    HW125906   4.235   5.428  10.320
74689SOL    HW225907   4.260   5.390  10.465
74690SOL     OW25908   2.335  11.414   8.134
74690SOL    HW125909   2.318  11.487   8.076
74690SOL    HW225910   2.284  11.341   8.098
74691SOL     OW25911   4.203  12.397  10.636
74691SOL    HW125912   4.283  12.347  10.622
74691SOL    HW225913   4.184  12.386  10.730
74692SOL     OW25914   0.958   1.205  10.044
74692SOL    HW125915   0.875   1.223  10.087
74692SOL    HW225916   0.995   1.291  10.024
74693SOL     OW25917  10.280   7.656   4.927
74693SOL    HW125918  10.201   7.684   4.973
74693SOL    HW225919  10.250   7.591   4.864
74694SOL     OW25920   4.101   0.790  13.067
74694SOL    HW125921   4.020   0.826  13.031
74694SOL    HW225922   4.134   0.860  13.125
74695SOL     OW25923   9.579  11.214  14.641
74695SOL    HW125924   9.538  11.271  14.576
74695SOL    HW225925   9.553  11.252  14.725
74696SOL     OW25926   8.124   2.266  14.072
74696SOL    HW125927   8.143   2.298  13.984
74696SOL    HW225928   8.186   2.311  14.129
74697SOL     OW25929   5.852  13.059   7.683
74697SOL    HW125930   5.764  13.028   7.666
74697SOL    HW225931   5.857  13.068   7.779
74698SOL     OW25932  13.316  12.282  12.285
74698SOL    HW125933  13.383  12.341  12.318
74698SOL    HW225934  13.242  12.295  12.345
74699SOL     OW25935   1.637   1.930   7.766
74699SOL    HW125936   1.708   1.938   7.702
74699SOL    HW225937   1.671   1.972   7.845
74700SOL     OW25938   5.488   5.175   7.970
74700SOL    HW125939   5.556   5.198   8.033
74700SOL    HW225940   5.513   5.088   7.938
74701SOL     OW25941   7.960   0.800  10.145
74701SOL    HW125942   7.911   0.826  10.223
74701SOL    HW225943   8.051   0.797  10.173
74702SOL     OW25944   3.760   7.324  11.762
74702SOL    HW125945   3.824   7.389  11.790
74702SOL    HW225946   3.756   7.334  11.667
74703SOL     OW25947   4.128   3.964   0.988
74703SOL    HW125948   4.083   3.944   0.906
74703SOL    HW225949   4.070   3.928   1.056
74704SOL     OW25950   5.979   9.034   9.361
74704SOL    HW125951   6.023   8.957   9.325
74704SOL    HW225952   5.895   9.000   9.393
74705SOL     OW25953   0.882  11.819   8.116
74705SOL    HW125954   0.952  11.758   8.138
74705SOL    HW225955   0.822  11.769   8.061
74706SOL     OW25956   0.588  13.978   5.246
74706SOL    HW125957   0.508  13.993   5.296
74706SOL    HW225958   0.612  13.888   5.265
74707SOL     OW25959  11.753   4.996  12.784
74707SOL    HW125960  11.807   5.059  12.833
74707SOL    HW225961  11.804   4.915  12.784
74708SOL     OW25962   3.486  10.619   9.174
74708SOL    HW125963   3.571  10.663   9.167
74708SOL    HW225964   3.507  10.529   9.200
74709SOL     OW25965   9.252   9.143   4.147
74709SOL    HW125966   9.169   9.172   4.110
74709SOL    HW225967   9.310   9.218   4.139
74710SOL     OW25968   7.833  11.321   2.609
74710SOL    HW125969   7.914  11.352   2.648
74710SOL    HW225970   7.781  11.291   2.683
74711SOL     OW25971   8.848   8.544  11.462
74711SOL    HW125972   8.790   8.596  11.406
74711SOL    HW225973   8.891   8.483  11.402
74712SOL     OW25974   9.981   8.502   1.853
74712SOL    HW125975   9.968   8.418   1.898
74712SOL    HW225976  10.050   8.546   1.903
74713SOL     OW25977   4.933  13.700   1.066
74713SOL    HW125978   4.907  13.774   1.012
74713SOL    HW225979   4.923  13.624   1.009
74714SOL     OW25980   0.110   3.626   6.225
74714SOL    HW125981   0.056   3.630   6.146
74714SOL    HW225982   0.111   3.533   6.249
74715SOL     OW25983   4.572   3.676   5.836
74715SOL    HW125984   4.660   3.640   5.830
74715SOL    HW225985   4.559   3.723   5.754
74716SOL     OW25986  10.504   9.997   5.281
74716SOL    HW125987  10.599   9.990   5.275
74716SOL    HW225988  10.489  10.065   5.347
74717SOL     OW25989   6.870   4.427  13.902
74717SOL    HW125990   6.781   4.393  13.907
74717SOL    HW225991   6.896   4.413  13.811
74718SOL     OW25992  14.210   2.477   1.463
74718SOL    HW125993  14.250   2.500   1.380
74718SOL    HW225994  14.283   2.461   1.522
74719SOL     OW25995  13.517  10.281  12.441
74719SOL    HW125996  13.554  10.262  12.355
74719SOL    HW225997  13.458  10.355  12.426
74720SOL     OW25998   8.314   5.729   5.921
74720SOL    HW125999   8.368   5.746   5.998
74720SOL    HW226000   8.282   5.639   5.934
74721SOL     OW26001   2.892   3.683   3.862
74721SOL    HW126002   2.853   3.721   3.941
74721SOL    HW226003   2.986   3.681   3.881
74722SOL     OW26004  14.202  10.595   5.717
74722SOL    HW126005  14.145  10.518   5.721
74722SOL    HW226006  14.146  10.664   5.683
74723SOL     OW26007  10.344  13.483   4.343
74723SOL    HW126008  10.315  13.519   4.259
74723SOL    HW226009  10.435  13.459   4.328
74724SOL     OW26010  12.710  11.456  13.047
74724SOL    HW126011  12.761  11.516  12.992
74724SOL    HW226012  12.632  11.437  12.996
74725SOL     OW26013   6.383   1.831   0.196
74725SOL    HW126014   6.337   1.870   0.270
74725SOL    HW226015   6.339   1.748   0.181
74726SOL     OW26016   6.408  11.589  13.197
74726SOL    HW126017   6.331  11.542  13.228
74726SOL    HW226018   6.409  11.670  13.248
74727SOL     OW26019  11.002  12.464   0.136
74727SOL    HW126020  10.946  12.493   0.209
74727SOL    HW226021  11.017  12.372   0.153
74728SOL     OW26022  14.676  14.864  11.138
74728SOL    HW126023  14.636  14.823  11.214
74728SOL    HW226024  14.652   0.083  11.145
74729SOL     OW26025   4.020  12.360   8.728
74729SOL    HW126026   4.095  12.406   8.690
74729SOL    HW226027   3.943  12.399   8.686
74730SOL     OW26028   7.947  14.371   5.185
74730SOL    HW126029   8.011  14.300   5.183
74730SOL    HW226030   7.863  14.327   5.194
74731SOL     OW26031   7.042  13.916   4.610
74731SOL    HW126032   6.996  13.832   4.605
74731SOL    HW226033   6.984  13.977   4.565
74732SOL     OW26034   5.771  13.672   4.965
74732SOL    HW126035   5.755  13.635   4.878
74732SOL    HW226036   5.792  13.596   5.019
74733SOL     OW26037   5.164   2.798   0.116
74733SOL    HW126038   5.119   2.734   0.061
74733SOL    HW226039   5.098   2.827   0.179
74734SOL     OW26040   4.043  11.584  14.124
74734SOL    HW126041   4.051  11.676  14.146
74734SOL    HW226042   4.091  11.574  14.042
74735SOL     OW26043   8.885  13.043   4.175
74735SOL    HW126044   8.877  12.947   4.176
74735SOL    HW226045   8.922  13.063   4.089
74736SOL     OW26046   0.941  14.325  10.590
74736SOL    HW126047   0.851  14.334  10.622
74736SOL    HW226048   0.935  14.258  10.522
74737SOL     OW26049   3.618   2.481  10.745
74737SOL    HW126050   3.664   2.437  10.817
74737SOL    HW226051   3.535   2.508  10.784
74738SOL     OW26052   6.780  14.782   5.869
74738SOL    HW126053   6.809  14.785   5.778
74738SOL    HW226054   6.840  14.722   5.912
74739SOL     OW26055   0.443   1.580  10.523
74739SOL    HW126056   0.362   1.586  10.472
74739SOL    HW226057   0.413   1.560  10.612
74740SOL     OW26058   0.361  13.725  10.315
74740SOL    HW126059   0.435  13.664  10.313
74740SOL    HW226060   0.291  13.675  10.358
74741SOL     OW26061   6.351   4.552  13.006
74741SOL    HW126062   6.437   4.589  13.026
74741SOL    HW226063   6.321   4.600  12.928
74742SOL     OW26064  13.337   5.349   3.331
74742SOL    HW126065  13.290   5.285   3.384
74742SOL    HW226066  13.429   5.326   3.343
74743SOL     OW26067  13.913   4.548  12.883
74743SOL    HW126068  13.971   4.500  12.942
74743SOL    HW226069  13.963   4.554  12.801
74744SOL     OW26070   7.079  11.484   8.921
74744SOL    HW126071   7.058  11.391   8.907
74744SOL    HW226072   7.110  11.514   8.835
74745SOL     OW26073  14.434   9.244  11.454
74745SOL    HW126074  14.505   9.280  11.401
74745SOL    HW226075  14.474   9.224  11.538
74746SOL     OW26076  14.626   7.368   4.278
74746SOL    HW126077  14.619   7.381   4.372
74746SOL    HW226078  14.605   7.275   4.265
74747SOL     OW26079   6.097  12.052   3.081
74747SOL    HW126080   6.009  12.046   3.045
74747SOL    HW226081   6.143  12.112   3.022
74748SOL     OW26082   4.805   1.928   6.227
74748SOL    HW126083   4.844   1.859   6.173
74748SOL    HW226084   4.720   1.892   6.254
74749SOL     OW26085  10.234   9.768   2.594
74749SOL    HW126086  10.166   9.827   2.624
74749SOL    HW226087  10.284   9.747   2.672
74750SOL     OW26088   1.120  14.627  14.513
74750SOL    HW126089   1.120  14.555  14.577
74750SOL    HW226090   1.211  14.657  14.512
74751SOL     OW26091   7.509  14.229   0.691
74751SOL    HW126092   7.598  14.209   0.664
74751SOL    HW226093   7.486  14.307   0.640
74752SOL     OW26094  11.578   4.146   7.952
74752SOL    HW126095  11.548   4.209   8.017
74752SOL    HW226096  11.499   4.101   7.923
74753SOL     OW26097   1.730   7.185   7.901
74753SOL    HW126098   1.792   7.132   7.852
74753SOL    HW226099   1.752   7.275   7.877
74754SOL     OW26100  10.932   3.159  12.042
74754SOL    HW126101  10.913   3.120  12.128
74754SOL    HW226102  10.850   3.199  12.015
74755SOL     OW26103   3.468   8.908  12.527
74755SOL    HW126104   3.428   8.929  12.612
74755SOL    HW226105   3.532   8.840  12.547
74756SOL     OW26106   9.639   1.023  12.347
74756SOL    HW126107   9.658   1.071  12.428
74756SOL    HW226108   9.668   0.933  12.366
74757SOL     OW26109   4.045   9.236   4.011
74757SOL    HW126110   4.001   9.157   4.044
74757SOL    HW226111   4.133   9.231   4.048
74758SOL     OW26112   7.070   9.494   1.698
74758SOL    HW126113   7.146   9.484   1.756
74758SOL    HW226114   7.054   9.406   1.665
74759SOL     OW26115  11.847  10.899   6.922
74759SOL    HW126116  11.776  10.834   6.925
74759SOL    HW226117  11.927  10.847   6.933
74760SOL     OW26118   4.575  11.399   2.453
74760SOL    HW126119   4.663  11.403   2.492
74760SOL    HW226120   4.539  11.316   2.482
74761SOL     OW26121  11.331  11.638   9.425
74761SOL    HW126122  11.243  11.631   9.461
74761SOL    HW226123  11.318  11.655   9.331
74762SOL     OW26124   9.165   3.033   8.406
74762SOL    HW126125   9.259   3.015   8.399
74762SOL    HW226126   9.131   3.016   8.318
74763SOL     OW26127   8.270   5.832  11.947
74763SOL    HW126128   8.218   5.773  12.003
74763SOL    HW226129   8.246   5.920  11.975
74764SOL     OW26130   8.363   5.277  13.120
74764SOL    HW126131   8.438   5.265  13.179
74764SOL    HW226132   8.287   5.275  13.178
74765SOL     OW26133   5.089  11.532   3.764
74765SOL    HW126134   4.998  11.507   3.785
74765SOL    HW226135   5.096  11.519   3.670
74766SOL     OW26136  13.513  14.169  12.427
74766SOL    HW126137  13.590  14.118  12.453
74766SOL    HW226138  13.492  14.138  12.339
74767SOL     OW26139  12.267  12.079  11.579
74767SOL    HW126140  12.251  12.015  11.509
74767SOL    HW226141  12.311  12.029  11.648
74768SOL     OW26142   4.145   8.602   9.415
74768SOL    HW126143   4.143   8.542   9.490
74768SOL    HW226144   4.209   8.669   9.439
74769SOL     OW26145   8.996   6.273   2.947
74769SOL    HW126146   8.957   6.226   2.873
74769SOL    HW226147   8.985   6.365   2.925
74770SOL     OW26148   7.515   1.540   4.012
74770SOL    HW126149   7.563   1.543   4.095
74770SOL    HW226150   7.423   1.551   4.038
74771SOL     OW26151   8.517   7.241   2.927
74771SOL    HW126152   8.509   7.153   2.889
74771SOL    HW226153   8.611   7.258   2.929
74772SOL     OW26154   6.496   1.451   0.873
74772SOL    HW126155   6.402   1.470   0.880
74772SOL    HW226156   6.538   1.534   0.896
74773SOL     OW26157   6.773  13.875   2.383
74773SOL    HW126158   6.794  13.792   2.341
74773SOL    HW226159   6.782  13.857   2.477
74774SOL     OW26160   6.362   8.883   9.165
74774SOL    HW126161   6.453   8.882   9.138
74774SOL    HW226162   6.335   8.791   9.166
74775SOL     OW26163   1.122   4.710   0.415
74775SOL    HW126164   1.145   4.645   0.481
74775SOL    HW226165   1.195   4.709   0.354
74776SOL     OW26166  12.243   0.505  10.155
74776SOL    HW126167  12.296   0.584  10.148
74776SOL    HW226168  12.275   0.448  10.085
74777SOL     OW26169   5.798   5.232   7.831
74777SOL    HW126170   5.825   5.324   7.829
74777SOL    HW226171   5.810   5.206   7.923
74778SOL     OW26172  11.749  10.168   4.269
74778SOL    HW126173  11.708  10.241   4.315
74778SOL    HW226174  11.685  10.140   4.205
74779SOL     OW26175   9.377   9.603   3.767
74779SOL    HW126176   9.469   9.612   3.791
74779SOL    HW226177   9.371   9.637   3.678
74780SOL     OW26178   8.581   2.746   1.006
74780SOL    HW126179   8.669   2.762   1.040
74780SOL    HW226180   8.522   2.778   1.074
74781SOL     OW26181   2.824   2.365   5.440
74781SOL    HW126182   2.782   2.404   5.363
74781SOL    HW226183   2.853   2.279   5.409
74782SOL     OW26184   1.724   8.037  13.127
74782SOL    HW126185   1.646   8.026  13.073
74782SOL    HW226186   1.692   8.032  13.217
74783SOL     OW26187   5.369   8.011   1.480
74783SOL    HW126188   5.380   8.105   1.494
74783SOL    HW226189   5.316   7.982   1.554
74784SOL     OW26190   8.840   5.088   8.276
74784SOL    HW126191   8.811   5.038   8.199
74784SOL    HW226192   8.777   5.065   8.344
74785SOL     OW26193   4.282   8.475   9.187
74785SOL    HW126194   4.355   8.459   9.246
74785SOL    HW226195   4.221   8.528   9.238
74786SOL     OW26196   4.353   2.009   3.560
74786SOL    HW126197   4.317   2.098   3.563
74786SOL    HW226198   4.279   1.954   3.532
74787SOL     OW26199  12.330   2.250  11.610
74787SOL    HW126200  12.275   2.176  11.586
74787SOL    HW226201  12.411   2.237  11.561
74788SOL     OW26202  11.426  10.043   4.380
74788SOL    HW126203  11.352  10.008   4.430
74788SOL    HW226204  11.432  10.134   4.408
74789SOL     OW26205   6.428   5.489   1.124
74789SOL    HW126206   6.376   5.544   1.183
74789SOL    HW226207   6.447   5.546   1.050
74790SOL     OW26208   9.696  14.325  12.296
74790SOL    HW126209   9.622  14.372  12.334
74790SOL    HW226210   9.656  14.262  12.236
74791SOL     OW26211   0.754   5.437   0.943
74791SOL    HW126212   0.680   5.396   0.989
74791SOL    HW226213   0.714   5.498   0.882
74792SOL     OW26214   6.274  10.325   3.117
74792SOL    HW126215   6.314  10.382   3.183
74792SOL    HW226216   6.348  10.279   3.077
74793SOL     OW26217  10.170   8.085   9.293
74793SOL    HW126218  10.157   8.026   9.367
74793SOL    HW226219  10.135   8.169   9.322
74794SOL     OW26220   3.503   1.374   7.454
74794SOL    HW126221   3.485   1.401   7.364
74794SOL    HW226222   3.459   1.290   7.464
74795SOL     OW26223   2.989   9.998   3.104
74795SOL    HW126224   2.953   9.910   3.092
74795SOL    HW226225   3.076   9.995   3.064
74796SOL     OW26226   7.750   3.579  10.166
74796SOL    HW126227   7.804   3.513  10.122
74796SOL    HW226228   7.712   3.533  10.241
74797SOL     OW26229   6.490   1.591   1.991
74797SOL    HW126230   6.559   1.573   1.927
74797SOL    HW226231   6.456   1.505   2.015
74798SOL     OW26232   0.272   9.333   3.661
74798SOL    HW126233   0.212   9.307   3.731
74798SOL    HW226234   0.239   9.286   3.584
74799SOL     OW26235  14.584   7.235   6.746
74799SOL    HW126236  14.642   7.172   6.704
74799SOL    HW226237  14.611   7.320   6.712
74800SOL     OW26238   6.224   3.876   5.784
74800SOL    HW126239   6.297   3.816   5.798
74800SOL    HW226240   6.205   3.912   5.871
74801SOL     OW26241   9.107   2.548   0.271
74801SOL    HW126242   9.040   2.480   0.279
74801SOL    HW226243   9.064   2.628   0.300
74802SOL     OW26244   7.272  10.760   4.989
74802SOL    HW126245   7.196  10.749   5.047
74802SOL    HW226246   7.236  10.805   4.912
74803SOL     OW26247  11.264   9.159   9.441
74803SOL    HW126248  11.298   9.213   9.512
74803SOL    HW226249  11.318   9.183   9.365
74804SOL     OW26250  14.731  14.664   2.750
74804SOL    HW126251  14.731  14.760   2.752
74804SOL    HW226252  14.798  14.642   2.685
74805SOL     OW26253   2.549   6.857  11.279
74805SOL    HW126254   2.522   6.810  11.200
74805SOL    HW226255   2.644   6.865  11.270
74806SOL     OW26256   8.584  10.180   5.752
74806SOL    HW126257   8.506  10.233   5.773
74806SOL    HW226258   8.657  10.241   5.761
74807SOL     OW26259   7.158  10.322   4.056
74807SOL    HW126260   7.187  10.258   3.990
74807SOL    HW226261   7.153  10.272   4.137
74808SOL     OW26262   0.078   6.900   5.826
74808SOL    HW126263   0.109   6.990   5.838
74808SOL    HW226264   0.003   6.908   5.767
74809SOL     OW26265  14.328   8.586  13.111
74809SOL    HW126266  14.283   8.527  13.173
74809SOL    HW226267  14.335   8.534  13.030
74810SOL     OW26268   9.183   8.281  13.344
74810SOL    HW126269   9.145   8.198  13.316
74810SOL    HW226270   9.277   8.273  13.326
74811SOL     OW26271   6.380  12.327   8.599
74811SOL    HW126272   6.385  12.232   8.610
74811SOL    HW226273   6.458  12.349   8.548
74812SOL     OW26274   2.511   9.191   2.672
74812SOL    HW126275   2.452   9.178   2.597
74812SOL    HW226276   2.584   9.132   2.656
74813SOL     OW26277   3.429   3.591  13.799
74813SOL    HW126278   3.484   3.559  13.727
74813SOL    HW226279   3.364   3.522  13.812
74814SOL     OW26280   5.292  13.380  13.262
74814SOL    HW126281   5.306  13.428  13.180
74814SOL    HW226282   5.377  13.385  13.306
74815SOL     OW26283  14.304   6.846  13.135
74815SOL    HW126284  14.211   6.833  13.153
74815SOL    HW226285  14.313   6.833  13.041
74816SOL     OW26286   3.090   2.653   9.694
74816SOL    HW126287   3.053   2.716   9.632
74816SOL    HW226288   3.024   2.646   9.762
74817SOL     OW26289   9.751  13.319   3.848
74817SOL    HW126290   9.667  13.358   3.869
74817SOL    HW226291   9.765  13.340   3.756
74818SOL     OW26292   2.497   1.230   8.837
74818SOL    HW126293   2.589   1.205   8.849
74818SOL    HW226294   2.464   1.240   8.926
74819SOL     OW26295  12.848   8.152   7.532
74819SOL    HW126296  12.797   8.089   7.480
74819SOL    HW226297  12.782   8.209   7.572
74820SOL     OW26298   0.588   4.139   2.607
74820SOL    HW126299   0.631   4.108   2.528
74820SOL    HW226300   0.565   4.230   2.588
74821SOL     OW26301   3.161   3.747   6.768
74821SOL    HW126302   3.195   3.658   6.775
74821SOL    HW226303   3.228   3.801   6.810
74822SOL     OW26304   0.354   1.034   6.578
74822SOL    HW126305   0.296   0.959   6.591
74822SOL    HW226306   0.295   1.109   6.569
74823SOL     OW26307  13.330  14.513   6.239
74823SOL    HW126308  13.288  14.428   6.258
74823SOL    HW226309  13.262  14.577   6.257
74824SOL     OW26310   3.084  14.034   0.757
74824SOL    HW126311   3.048  13.990   0.680
74824SOL    HW226312   3.131  13.966   0.805
74825SOL     OW26313  14.288  14.328  11.434
74825SOL    HW126314  14.341  14.251  11.451
74825SOL    HW226315  14.350  14.395  11.406
74826SOL     OW26316   2.956   0.269   0.956
74826SOL    HW126317   2.954   0.240   0.865
74826SOL    HW226318   3.001   0.353   0.954
74827SOL     OW26319  13.381  13.957   7.549
74827SOL    HW126320  13.396  13.979   7.457
74827SOL    HW226321  13.468  13.934   7.582
74828SOL     OW26322   7.878   3.795   3.147
74828SOL    HW126323   7.877   3.890   3.152
74828SOL    HW226324   7.788   3.771   3.126
74829SOL     OW26325  14.522   4.837  13.182
74829SOL    HW126326  14.527   4.749  13.145
74829SOL    HW226327  14.486   4.824  13.270
74830SOL     OW26328   9.738   2.303   5.290
74830SOL    HW126329   9.713   2.304   5.198
74830SOL    HW226330   9.657   2.322   5.337
74831SOL     OW26331   7.960   7.545   5.586
74831SOL    HW126332   7.976   7.458   5.547
74831SOL    HW226333   8.043   7.591   5.574
74832SOL     OW26334  10.195   6.815   8.221
74832SOL    HW126335  10.285   6.848   8.222
74832SOL    HW226336  10.165   6.833   8.132
74833SOL     OW26337  10.943  12.626   6.643
74833SOL    HW126338  10.904  12.689   6.705
74833SOL    HW226339  11.037  12.636   6.656
74834SOL     OW26340   4.939   4.662  13.735
74834SOL    HW126341   4.977   4.625  13.655
74834SOL    HW226342   4.929   4.587  13.793
74835SOL     OW26343   6.378   0.649   7.468
74835SOL    HW126344   6.366   0.713   7.398
74835SOL    HW226345   6.462   0.607   7.449
74836SOL     OW26346   1.565  11.482  11.343
74836SOL    HW126347   1.494  11.458  11.402
74836SOL    HW226348   1.639  11.428  11.372
74837SOL     OW26349   1.616  10.230   7.234
74837SOL    HW126350   1.537  10.204   7.186
74837SOL    HW226351   1.590  10.309   7.281
74838SOL     OW26352   1.691  10.884   2.485
74838SOL    HW126353   1.762  10.879   2.421
74838SOL    HW226354   1.612  10.897   2.433
74839SOL     OW26355  11.050   6.176  13.618
74839SOL    HW126356  10.977   6.137  13.571
74839SOL    HW226357  11.109   6.103  13.636
74840SOL     OW26358   7.895   4.946   7.506
74840SOL    HW126359   7.897   4.851   7.495
74840SOL    HW226360   7.985   4.974   7.490
74841SOL     OW26361  12.993   0.033   9.644
74841SOL    HW126362  12.982   0.073   9.730
74841SOL    HW226363  13.040  14.825   9.662
74842SOL     OW26364   0.916   6.329   1.498
74842SOL    HW126365   0.877   6.321   1.411
74842SOL    HW226366   0.998   6.279   1.492
74843SOL     OW26367   1.605   5.774   6.262
74843SOL    HW126368   1.689   5.784   6.217
74843SOL    HW226369   1.629   5.744   6.350
74844SOL     OW26370   2.607   1.767   7.832
74844SOL    HW126371   2.683   1.805   7.788
74844SOL    HW226372   2.547   1.744   7.761
74845SOL     OW26373   4.312   3.845   2.597
74845SOL    HW126374   4.322   3.799   2.514
74845SOL    HW226375   4.219   3.837   2.617
74846SOL     OW26376   3.693   9.020   8.830
74846SOL    HW126377   3.674   8.957   8.761
74846SOL    HW226378   3.718   9.100   8.784
74847SOL     OW26379   5.789   8.900   6.656
74847SOL    HW126380   5.774   8.974   6.596
74847SOL    HW226381   5.883   8.903   6.674
74848SOL     OW26382   2.104  14.682  12.788
74848SOL    HW126383   2.165  14.635  12.845
74848SOL    HW226384   2.109  14.637  12.704
74849SOL     OW26385   5.925   8.797   1.769
74849SOL    HW126386   6.005   8.797   1.717
74849SOL    HW226387   5.860   8.756   1.712
74850SOL     OW26388   8.445   5.065   2.256
74850SOL    HW126389   8.419   5.076   2.348
74850SOL    HW226390   8.381   5.002   2.222
74851SOL     OW26391   4.897  10.703   1.324
74851SOL    HW126392   4.847  10.783   1.340
74851SOL    HW226393   4.988  10.731   1.325
74852SOL     OW26394  11.184   6.008   1.655
74852SOL    HW126395  11.255   5.945   1.657
74852SOL    HW226396  11.141   5.998   1.740
74853SOL     OW26397   6.049  12.005   8.805
74853SOL    HW126398   6.143  12.000   8.826
74853SOL    HW226399   6.025  11.916   8.781
74854SOL     OW26400   7.137   4.087  13.278
74854SOL    HW126401   7.163   4.018  13.218
74854SOL    HW226402   7.120   4.163  13.222
74855SOL     OW26403   5.678  10.335   4.430
74855SOL    HW126404   5.760  10.383   4.436
74855SOL    HW226405   5.702  10.249   4.396
74856SOL     OW26406  11.904   0.047   8.706
74856SOL    HW126407  11.883   0.057   8.613
74856SOL    HW226408  11.979  14.861   8.707
74857SOL     OW26409   6.108   1.227   8.877
74857SOL    HW126410   6.053   1.149   8.865
74857SOL    HW226411   6.179   1.198   8.934
74858SOL     OW26412   2.648   7.984   1.751
74858SOL    HW126413   2.598   8.041   1.692
74858SOL    HW226414   2.739   8.009   1.736
74859SOL     OW26415  14.378   2.746   5.096
74859SOL    HW126416  14.298   2.773   5.053
74859SOL    HW226417  14.357   2.662   5.136
74860SOL     OW26418   3.855   0.668   7.324
74860SOL    HW126419   3.936   0.627   7.294
74860SOL    HW226420   3.843   0.636   7.413
74861SOL     OW26421   0.796   5.698  13.243
74861SOL    HW126422   0.838   5.617  13.213
74861SOL    HW226423   0.717   5.668  13.288
74862SOL     OW26424  10.240   2.881  13.796
74862SOL    HW126425  10.284   2.861  13.713
74862SOL    HW226426  10.193   2.800  13.817
74863SOL     OW26427   4.127   3.225   7.618
74863SOL    HW126428   4.154   3.145   7.661
74863SOL    HW226429   4.091   3.279   7.688
74864SOL     OW26430   4.168   5.383   8.175
74864SOL    HW126431   4.106   5.317   8.147
74864SOL    HW226432   4.168   5.448   8.104
74865SOL     OW26433   0.782   8.714   3.423
74865SOL    HW126434   0.714   8.733   3.487
74865SOL    HW226435   0.861   8.697   3.475
74866SOL     OW26436  14.594   0.385   0.807
74866SOL    HW126437  14.610   0.441   0.883
74866SOL    HW226438  14.514   0.421   0.767
74867SOL     OW26439   0.645  13.152   4.512
74867SOL    HW126440   0.567  13.098   4.500
74867SOL    HW226441   0.633  13.225   4.451
74868SOL     OW26442   1.929   7.909   1.916
74868SOL    HW126443   2.013   7.879   1.881
74868SOL    HW226444   1.941   7.905   2.011
74869SOL     OW26445  13.777   6.588  10.961
74869SOL    HW126446  13.825   6.530  10.902
74869SOL    HW226447  13.686   6.581  10.932
74870SOL     OW26448   6.534   5.444   6.456
74870SOL    HW126449   6.479   5.427   6.533
74870SOL    HW226450   6.485   5.406   6.383
74871SOL     OW26451   4.510   2.916   2.984
74871SOL    HW126452   4.451   2.983   2.949
74871SOL    HW226453   4.533   2.863   2.908
74872SOL     OW26454   2.222   2.775   1.820
74872SOL    HW126455   2.144   2.744   1.866
74872SOL    HW226456   2.266   2.696   1.791
74873SOL     OW26457  12.771   2.680   1.444
74873SOL    HW126458  12.863   2.655   1.451
74873SOL    HW226459  12.725   2.598   1.423
74874SOL     OW26460   2.534   4.117   7.230
74874SOL    HW126461   2.544   4.129   7.136
74874SOL    HW226462   2.616   4.148   7.268
74875SOL     OW26463   1.269   9.077   7.806
74875SOL    HW126464   1.363   9.091   7.813
74875SOL    HW226465   1.259   8.983   7.791
74876SOL     OW26466   2.130   4.172  14.741
74876SOL    HW126467   2.206   4.113  14.745
74876SOL    HW226468   2.110   4.192  14.833
74877SOL     OW26469   8.428   0.751   5.387
74877SOL    HW126470   8.406   0.825   5.443
74877SOL    HW226471   8.345   0.728   5.344
74878SOL     OW26472   4.979   4.506   3.483
74878SOL    HW126473   4.997   4.412   3.483
74878SOL    HW226474   4.886   4.513   3.464
74879SOL     OW26475   3.639   6.520   4.180
74879SOL    HW126476   3.715   6.527   4.237
74879SOL    HW226477   3.603   6.433   4.200
74880SOL     OW26478   2.146   8.112   1.664
74880SOL    HW126479   2.171   8.093   1.755
74880SOL    HW226480   2.053   8.133   1.669
74881SOL     OW26481   7.450   1.798  14.182
74881SOL    HW126482   7.399   1.721  14.157
74881SOL    HW226483   7.541   1.769  14.179
74882SOL     OW26484   1.696   3.337   2.765
74882SOL    HW126485   1.654   3.397   2.827
74882SOL    HW226486   1.663   3.364   2.680
74883SOL     OW26487   9.132   9.021   1.043
74883SOL    HW126488   9.099   9.060   1.123
74883SOL    HW226489   9.119   8.927   1.055
74884SOL     OW26490   8.289  10.677  12.514
74884SOL    HW126491   8.313  10.589  12.543
74884SOL    HW226492   8.361  10.732  12.544
74885SOL     OW26493   7.990   8.486   0.762
74885SOL    HW126494   7.970   8.563   0.814
74885SOL    HW226495   7.932   8.418   0.797
74886SOL     OW26496   1.223   0.468   2.106
74886SOL    HW126497   1.147   0.422   2.141
74886SOL    HW226498   1.191   0.557   2.088
74887SOL     OW26499   1.592  11.372  14.620
74887SOL    HW126500   1.509  11.420  14.624
74887SOL    HW226501   1.655  11.436  14.589
74888SOL     OW26502  11.734   0.932   9.349
74888SOL    HW126503  11.788   0.896   9.279
74888SOL    HW226504  11.786   0.921   9.428
74889SOL     OW26505  13.558   2.151   1.639
74889SOL    HW126506  13.511   2.096   1.702
74889SOL    HW226507  13.623   2.092   1.600
74890SOL     OW26508   4.432   5.524   4.706
74890SOL    HW126509   4.468   5.435   4.707
74890SOL    HW226510   4.423   5.544   4.613
74891SOL     OW26511   5.354   4.907  14.819
74891SOL    HW126512   5.411   4.984  14.825
74891SOL    HW226513   5.365   4.876  14.729
74892SOL     OW26514   3.126   9.850  11.700
74892SOL    HW126515   3.036   9.858  11.667
74892SOL    HW226516   3.146   9.757  11.695
74893SOL     OW26517   1.366  12.468  10.038
74893SOL    HW126518   1.291  12.430  10.085
74893SOL    HW226519   1.442  12.440  10.087
74894SOL     OW26520   1.388   8.764   9.713
74894SOL    HW126521   1.373   8.741   9.805
74894SOL    HW226522   1.347   8.850   9.703
74895SOL     OW26523   6.915  11.559  11.469
74895SOL    HW126524   6.999  11.556  11.425
74895SOL    HW226525   6.863  11.621  11.419
74896SOL     OW26526   0.213   9.692  13.673
74896SOL    HW126527   0.289   9.746  13.652
74896SOL    HW226528   0.251   9.607  13.696
74897SOL     OW26529   3.587   6.542   1.993
74897SOL    HW126530   3.559   6.620   2.041
74897SOL    HW226531   3.543   6.469   2.036
74898SOL     OW26532  10.162   2.257   9.232
74898SOL    HW126533  10.187   2.345   9.202
74898SOL    HW226534  10.219   2.198   9.183
74899SOL     OW26535  14.054   5.666   4.336
74899SOL    HW126536  13.964   5.690   4.358
74899SOL    HW226537  14.108   5.720   4.394
74900SOL     OW26538   8.872   0.380   8.546
74900SOL    HW126539   8.912   0.305   8.502
74900SOL    HW226540   8.946   0.434   8.573
74901SOL     OW26541  14.127   1.344   0.134
74901SOL    HW126542  14.126   1.375   0.225
74901SOL    HW226543  14.108   1.251   0.141
74902SOL     OW26544   6.155  10.945   9.646
74902SOL    HW126545   6.247  10.921   9.650
74902SOL    HW226546   6.112  10.870   9.606
74903SOL     OW26547   9.127  12.424   1.228
74903SOL    HW126548   9.041  12.392   1.202
74903SOL    HW226549   9.138  12.392   1.318
74904SOL     OW26550  13.738   9.285  12.455
74904SOL    HW126551  13.672   9.325  12.512
74904SOL    HW226552  13.811   9.266  12.513
74905SOL     OW26553   6.010  13.787   0.364
74905SOL    HW126554   5.934  13.743   0.326
74905SOL    HW226555   5.993  13.788   0.458
74906SOL     OW26556   5.317   3.256  11.527
74906SOL    HW126557   5.363   3.268  11.610
74906SOL    HW226558   5.384   3.264  11.460
74907SOL     OW26559   7.101   6.944  12.578
74907SOL    HW126560   7.120   6.968  12.669
74907SOL    HW226561   7.006   6.935  12.575
74908SOL     OW26562   5.142   3.395   5.380
74908SOL    HW126563   5.079   3.325   5.392
74908SOL    HW226564   5.216   3.354   5.336
74909SOL     OW26565   2.692  13.016   1.484
74909SOL    HW126566   2.619  12.986   1.538
74909SOL    HW226567   2.733  13.086   1.535
74910SOL     OW26568   6.473   7.537   9.651
74910SOL    HW126569   6.437   7.589   9.580
74910SOL    HW226570   6.568   7.537   9.636
74911SOL     OW26571   1.875   6.042   7.750
74911SOL    HW126572   1.911   5.959   7.780
74911SOL    HW226573   1.861   6.093   7.830
74912SOL     OW26574  12.663   0.005  14.173
74912SOL    HW126575  12.668  14.785  14.149
74912SOL    HW226576  12.749   0.040  14.147
74913SOL     OW26577  14.406  14.505  10.084
74913SOL    HW126578  14.448  14.560  10.017
74913SOL    HW226579  14.400  14.562  10.161
74914SOL     OW26580   5.776   5.373   9.793
74914SOL    HW126581   5.717   5.347   9.723
74914SOL    HW226582   5.722   5.427   9.851
74915SOL     OW26583   4.786   0.871  14.568
74915SOL    HW126584   4.730   0.807  14.524
74915SOL    HW226585   4.875   0.844  14.545
74916SOL     OW26586  10.333   7.105   9.309
74916SOL    HW126587  10.278   7.184   9.304
74916SOL    HW226588  10.347   7.081   9.217
74917SOL     OW26589   8.677   0.837  11.366
74917SOL    HW126590   8.721   0.755  11.387
74917SOL    HW226591   8.656   0.830  11.273
74918SOL     OW26592   1.987   9.875  11.106
74918SOL    HW126593   2.054   9.943  11.104
74918SOL    HW226594   1.907   9.922  11.132
74919SOL     OW26595   3.831   4.753  13.910
74919SOL    HW126596   3.802   4.774  13.999
74919SOL    HW226597   3.910   4.806  13.898
74920SOL     OW26598   6.490  11.141  13.066
74920SOL    HW126599   6.576  11.107  13.091
74920SOL    HW226600   6.486  11.129  12.971
74921SOL     OW26601   2.853  12.196  13.265
74921SOL    HW126602   2.857  12.144  13.185
74921SOL    HW226603   2.822  12.135  13.332
74922SOL     OW26604   7.261   6.100  12.707
74922SOL    HW126605   7.194   6.071  12.644
74922SOL    HW226606   7.266   6.029  12.771
74923SOL     OW26607   0.560  11.114   3.680
74923SOL    HW126608   0.590  11.199   3.713
74923SOL    HW226609   0.640  11.063   3.669
74924SOL     OW26610   9.170  13.407   2.423
74924SOL    HW126611   9.135  13.362   2.500
74924SOL    HW226612   9.265  13.404   2.435
74925SOL     OW26613   7.970   1.151   0.823
74925SOL    HW126614   7.957   1.233   0.871
74925SOL    HW226615   7.997   1.178   0.735
74926SOL     OW26616   3.075  12.730  14.746
74926SOL    HW126617   3.032  12.769  14.822
74926SOL    HW226618   3.019  12.754  14.672
74927SOL     OW26619   6.129   0.855   8.037
74927SOL    HW126620   6.114   0.949   8.029
74927SOL    HW226621   6.135   0.840   8.131
74928SOL     OW26622   1.323   8.881   6.727
74928SOL    HW126623   1.241   8.901   6.683
74928SOL    HW226624   1.322   8.935   6.806
74929SOL     OW26625   0.061  11.827   5.865
74929SOL    HW126626   0.156  11.828   5.853
74929SOL    HW226627   0.049  11.821   5.960
74930SOL     OW26628   5.393  13.000   9.578
74930SOL    HW126629   5.396  12.936   9.507
74930SOL    HW226630   5.327  13.063   9.550
74931SOL     OW26631   2.953   5.900  14.720
74931SOL    HW126632   2.975   5.807  14.715
74931SOL    HW226633   2.859   5.901  14.739
74932SOL     OW26634   5.775  14.817   5.466
74932SOL    HW126635   5.763  14.734   5.512
74932SOL    HW226636   5.701  14.871   5.493
74933SOL     OW26637   4.593   2.820   8.159
74933SOL    HW126638   4.653   2.751   8.134
74933SOL    HW226639   4.596   2.822   8.254
74934SOL     OW26640   5.718   8.915  12.365
74934SOL    HW126641   5.733   8.953  12.451
74934SOL    HW226642   5.793   8.945  12.313
74935SOL     OW26643   2.560   6.993   2.838
74935SOL    HW126644   2.488   7.049   2.808
74935SOL    HW226645   2.517   6.925   2.889
74936SOL     OW26646   4.070   7.105   3.929
74936SOL    HW126647   4.005   7.035   3.920
74936SOL    HW226648   4.093   7.105   4.021
74937SOL     OW26649  11.291   9.978  11.716
74937SOL    HW126650  11.292  10.039  11.789
74937SOL    HW226651  11.369  10.001  11.665
74938SOL     OW26652   4.274  13.717   4.724
74938SOL    HW126653   4.308  13.776   4.791
74938SOL    HW226654   4.316  13.747   4.643
74939SOL     OW26655   1.668   2.217  10.263
74939SOL    HW126656   1.759   2.206  10.291
74939SOL    HW226657   1.652   2.311  10.268
74940SOL     OW26658  10.485   4.045   3.658
74940SOL    HW126659  10.455   4.066   3.746
74940SOL    HW226660  10.513   4.129   3.622
74941SOL     OW26661   5.235  14.379   1.492
74941SOL    HW126662   5.226  14.299   1.440
74941SOL    HW226663   5.145  14.401   1.517
74942SOL     OW26664   5.263  11.980   5.967
74942SOL    HW126665   5.270  12.035   6.045
74942SOL    HW226666   5.173  11.993   5.937
74943SOL     OW26667  12.911   1.535   2.024
74943SOL    HW126668  12.961   1.595   1.969
74943SOL    HW226669  12.927   1.448   1.986
74944SOL     OW26670   0.003  10.380   8.820
74944SOL    HW126671   0.002  10.395   8.725
74944SOL    HW226672  14.872  10.285   8.829
74945SOL     OW26673   8.783   2.157   1.316
74945SOL    HW126674   8.709   2.187   1.263
74945SOL    HW226675   8.796   2.226   1.380
74946SOL     OW26676   8.227   1.612  11.350
74946SOL    HW126677   8.284   1.537  11.331
74946SOL    HW226678   8.214   1.609  11.445
74947SOL     OW26679   1.986   3.812   8.167
74947SOL    HW126680   2.059   3.873   8.178
74947SOL    HW226681   1.974   3.805   8.072
74948SOL     OW26682  10.847   1.408  13.139
74948SOL    HW126683  10.783   1.413  13.210
74948SOL    HW226684  10.932   1.410  13.184
74949SOL     OW26685   4.673   6.219   6.606
74949SOL    HW126686   4.668   6.311   6.633
74949SOL    HW226687   4.765   6.195   6.619
74950SOL     OW26688   7.102   0.399   6.036
74950SOL    HW126689   7.196   0.405   6.021
74950SOL    HW226690   7.093   0.344   6.114
74951SOL     OW26691  12.248   4.912   6.301
74951SOL    HW126692  12.165   4.960   6.302
74951SOL    HW226693  12.305   4.961   6.359
74952SOL     OW26694  11.254   1.400   9.705
74952SOL    HW126695  11.240   1.358   9.790
74952SOL    HW226696  11.166   1.413   9.669
74953SOL     OW26697   7.691  13.782   4.015
74953SOL    HW126698   7.650  13.766   4.100
74953SOL    HW226699   7.668  13.706   3.962
74954SOL     OW26700  13.247   3.523   1.808
74954SOL    HW126701  13.167   3.541   1.759
74954SOL    HW226702  13.251   3.428   1.815
74955SOL     OW26703   8.045  14.225   4.148
74955SOL    HW126704   7.975  14.221   4.083
74955SOL    HW226705   8.125  14.232   4.096
74956SOL     OW26706  11.413   6.628   7.469
74956SOL    HW126707  11.391   6.710   7.513
74956SOL    HW226708  11.367   6.633   7.385
74957SOL     OW26709  10.900   0.608  12.864
74957SOL    HW126710  10.816   0.575  12.831
74957SOL    HW226711  10.919   0.554  12.941
74958SOL     OW26712   1.443   1.298   2.608
74958SOL    HW126713   1.421   1.285   2.516
74958SOL    HW226714   1.505   1.371   2.608
74959SOL     OW26715   1.401  10.000  10.309
74959SOL    HW126716   1.378  10.059  10.237
74959SOL    HW226717   1.480  10.037  10.347
74960SOL     OW26718  12.365   5.324   7.714
74960SOL    HW126719  12.370   5.233   7.683
74960SOL    HW226720  12.404   5.376   7.644
74961SOL     OW26721   0.960   0.877   5.273
74961SOL    HW126722   0.867   0.873   5.295
74961SOL    HW226723   0.970   0.816   5.200
74962SOL     OW26724  13.906  11.448   8.635
74962SOL    HW126725  14.001  11.452   8.634
74962SOL    HW226726  13.878  11.531   8.597
74963SOL     OW26727   5.182  14.400   8.188
74963SOL    HW126728   5.092  14.414   8.217
74963SOL    HW226729   5.176  14.393   8.093
74964SOL     OW26730   9.778  13.133  13.746
74964SOL    HW126731   9.797  13.138  13.840
74964SOL    HW226732   9.793  13.221  13.713
74965SOL     OW26733   9.651  10.322  13.294
74965SOL    HW126734   9.639  10.324  13.389
74965SOL    HW226735   9.585  10.259  13.263
74966SOL     OW26736   9.619   6.878   0.248
74966SOL    HW126737   9.653   6.937   0.181
74966SOL    HW226738   9.533   6.853   0.217
74967SOL     OW26739   2.756   9.281   9.353
74967SOL    HW126740   2.813   9.239   9.418
74967SOL    HW226741   2.800   9.363   9.331
74968SOL     OW26742   9.611   1.157   8.635
74968SOL    HW126743   9.648   1.073   8.661
74968SOL    HW226744   9.581   1.197   8.716
74969SOL     OW26745   7.082  12.723   5.164
74969SOL    HW126746   7.155  12.662   5.175
74969SOL    HW226747   7.099  12.765   5.079
74970SOL     OW26748   4.680   5.957   3.905
74970SOL    HW126749   4.614   5.913   3.852
74970SOL    HW226750   4.759   5.904   3.894
74971SOL     OW26751   4.509   6.740   8.801
74971SOL    HW126752   4.505   6.656   8.756
74971SOL    HW226753   4.560   6.723   8.880
74972SOL     OW26754  12.274   3.026  10.227
74972SOL    HW126755  12.274   3.088  10.154
74972SOL    HW226756  12.296   3.079  10.303
74973SOL     OW26757   8.231  12.064  12.691
74973SOL    HW126758   8.239  12.148  12.646
74973SOL    HW226759   8.139  12.060  12.717
74974SOL     OW26760   1.562  11.152   7.622
74974SOL    HW126761   1.563  11.229   7.566
74974SOL    HW226762   1.470  11.128   7.630
74975SOL     OW26763  14.821   9.327   1.187
74975SOL    HW126764  14.861   9.243   1.163
74975SOL    HW226765  14.869   9.354   1.266
74976SOL     OW26766   1.748   5.774  14.792
74976SOL    HW126767   1.786   5.687  14.776
74976SOL    HW226768   1.709   5.799  14.709
74977SOL     OW26769  14.082  10.387  14.744
74977SOL    HW126770  14.027  10.326  14.793
74977SOL    HW226771  14.023  10.458  14.719
74978SOL     OW26772   0.017  13.509   4.548
74978SOL    HW126773   0.035  13.558   4.628
74978SOL    HW226774   0.016  13.418   4.575
74979SOL     OW26775   2.626   5.817   6.391
74979SOL    HW126776   2.597   5.839   6.480
74979SOL    HW226777   2.546   5.820   6.338
74980SOL     OW26778  14.302   4.463  11.432
74980SOL    HW126779  14.289   4.536  11.372
74980SOL    HW226780  14.269   4.387  11.385
74981SOL     OW26781   4.621   9.182  13.224
74981SOL    HW126782   4.552   9.175  13.290
74981SOL    HW226783   4.605   9.109  13.164
74982SOL     OW26784   8.784   1.078  10.709
74982SOL    HW126785   8.778   1.025  10.788
74982SOL    HW226786   8.874   1.108  10.706
74983SOL     OW26787   0.174  10.187   2.688
74983SOL    HW126788   0.109  10.118   2.701
74983SOL    HW226789   0.192  10.219   2.777
74984SOL     OW26790   9.200   1.283   0.083
74984SOL    HW126791   9.114   1.304   0.046
74984SOL    HW226792   9.224   1.360   0.134
74985SOL     OW26793   9.952   0.988   5.218
74985SOL    HW126794  10.033   1.024   5.182
74985SOL    HW226795   9.893   0.981   5.142
74986SOL     OW26796   5.035   3.600  10.593
74986SOL    HW126797   5.089   3.538  10.544
74986SOL    HW226798   5.093   3.675  10.608
74987SOL     OW26799   0.485  10.356   9.367
74987SOL    HW126800   0.411  10.369   9.426
74987SOL    HW226801   0.473  10.267   9.334
74988SOL     OW26802  14.066   5.404   9.387
74988SOL    HW126803  14.140   5.356   9.425
74988SOL    HW226804  14.105   5.487   9.359
74989SOL     OW26805   6.953  14.578   3.478
74989SOL    HW126806   6.943  14.536   3.563
74989SOL    HW226807   7.014  14.521   3.430
74990SOL     OW26808   4.241   8.811   0.631
74990SOL    HW126809   4.318   8.865   0.650
74990SOL    HW226810   4.277   8.731   0.594
74991SOL     OW26811   9.341   8.508  13.372
74991SOL    HW126812   9.265   8.449  13.377
74991SOL    HW226813   9.366   8.506  13.280
74992SOL     OW26814  13.871  14.154   1.968
74992SOL    HW126815  13.793  14.178   1.918
74992SOL    HW226816  13.943  14.160   1.906
74993SOL     OW26817  12.824  12.171   8.798
74993SOL    HW126818  12.777  12.244   8.839
74993SOL    HW226819  12.777  12.155   8.716
74994SOL     OW26820  10.360  10.395   3.934
74994SOL    HW126821  10.439  10.410   3.985
74994SOL    HW226822  10.299  10.355   3.996
74995SOL     OW26823   2.352   3.781   3.976
74995SOL    HW126824   2.364   3.717   3.905
74995SOL    HW226825   2.260   3.805   3.971
74996SOL     OW26826   3.583  13.540   8.348
74996SOL    HW126827   3.570  13.567   8.439
74996SOL    HW226828   3.502  13.565   8.303
74997SOL     OW26829  11.691  10.690   4.505
74997SOL    HW126830  11.702  10.613   4.561
74997SOL    HW226831  11.754  10.679   4.434
74998SOL     OW26832   8.396  13.903   1.320
74998SOL    HW126833   8.379  13.899   1.414
74998SOL    HW226834   8.394  13.997   1.300
74999SOL     OW26835   4.043   8.178   8.149
74999SOL    HW126836   3.973   8.115   8.165
74999SOL    HW226837   4.001   8.250   8.103
75000SOL     OW26838   5.162  12.386  13.012
75000SOL    HW126839   5.143  12.478  13.030
75000SOL    HW226840   5.208  12.387  12.929
75001SOL     OW26841   8.389  13.473  11.158
75001SOL    HW126842   8.388  13.462  11.253
75001SOL    HW226843   8.340  13.397  11.124
75002SOL     OW26844   4.735   4.526   5.864
75002SOL    HW126845   4.664   4.590   5.864
75002SOL    HW226846   4.708   4.460   5.801
75003SOL     OW26847  10.709   1.512   1.852
75003SOL    HW126848  10.692   1.564   1.930
75003SOL    HW226849  10.635   1.531   1.793
75004SOL     OW26850   5.366  10.888   7.809
75004SOL    HW126851   5.377  10.801   7.769
75004SOL    HW226852   5.455  10.919   7.824
75005SOL     OW26853   7.576   4.030  13.336
75005SOL    HW126854   7.593   4.094  13.267
75005SOL    HW226855   7.545   4.082  13.410
75006SOL     OW26856  11.705   8.090   4.942
75006SOL    HW126857  11.635   8.102   5.007
75006SOL    HW226858  11.664   8.043   4.870
75007SOL     OW26859   1.782   5.235   7.973
75007SOL    HW126860   1.743   5.308   7.925
75007SOL    HW226861   1.770   5.257   8.066
75008SOL     OW26862   8.586   5.454   2.204
75008SOL    HW126863   8.669   5.412   2.180
75008SOL    HW226864   8.519   5.394   2.171
75009SOL     OW26865  10.769   1.696   6.326
75009SOL    HW126866  10.851   1.711   6.279
75009SOL    HW226867  10.702   1.731   6.267
75010SOL     OW26868   8.900   6.757  13.003
75010SOL    HW126869   8.946   6.678  12.974
75010SOL    HW226870   8.839   6.776  12.932
75011SOL     OW26871   9.504   1.454  12.641
75011SOL    HW126872   9.499   1.546  12.666
75011SOL    HW226873   9.427   1.440  12.586
75012SOL     OW26874   2.365   6.578  12.444
75012SOL    HW126875   2.392   6.494  12.408
75012SOL    HW226876   2.434   6.601  12.506
75013SOL     OW26877   0.957   1.644  11.561
75013SOL    HW126878   0.949   1.706  11.634
75013SOL    HW226879   0.932   1.560  11.599
75014SOL     OW26880   4.653   9.929   0.141
75014SOL    HW126881   4.587   9.982   0.096
75014SOL    HW226882   4.695   9.990   0.201
75015SOL     OW26883  11.357   5.852  13.294
75015SOL    HW126884  11.282   5.796  13.270
75015SOL    HW226885  11.387   5.815  13.378
75016SOL     OW26886  12.986   7.224  13.104
75016SOL    HW126887  12.952   7.174  13.179
75016SOL    HW226888  12.912   7.229  13.043
75017SOL     OW26889   2.183   5.608   0.186
75017SOL    HW126890   2.227   5.667   0.247
75017SOL    HW226891   2.090   5.617   0.207
75018SOL     OW26892   9.442   7.315   0.101
75018SOL    HW126893   9.490   7.325   0.018
75018SOL    HW226894   9.455   7.398   0.147
75019SOL     OW26895   4.107   8.044   3.259
75019SOL    HW126896   4.154   7.978   3.208
75019SOL    HW226897   4.054   8.091   3.195
75020SOL     OW26898  14.198   5.958   2.131
75020SOL    HW126899  14.138   5.925   2.198
75020SOL    HW226900  14.209   6.051   2.153
75021SOL     OW26901   5.931  13.981   0.912
75021SOL    HW126902   5.994  14.048   0.940
75021SOL    HW226903   5.867  13.978   0.984
75022SOL     OW26904  11.078   3.140   0.905
75022SOL    HW126905  10.998   3.108   0.863
75022SOL    HW226906  11.120   3.196   0.839
75023SOL     OW26907   5.761  12.284  11.027
75023SOL    HW126908   5.825  12.303  10.959
75023SOL    HW226909   5.679  12.270  10.979
75024SOL     OW26910   2.672  14.036   7.338
75024SOL    HW126911   2.694  13.974   7.269
75024SOL    HW226912   2.656  14.118   7.292
75025SOL     OW26913  12.980   5.117   6.761
75025SOL    HW126914  13.021   5.183   6.818
75025SOL    HW226915  12.968   5.041   6.818
75026SOL     OW26916   0.701   1.944   9.016
75026SOL    HW126917   0.683   2.013   8.953
75026SOL    HW226918   0.617   1.899   9.026
75027SOL     OW26919  13.488   7.699   7.676
75027SOL    HW126920  13.450   7.710   7.589
75027SOL    HW226921  13.413   7.699   7.735
75028SOL     OW26922   0.397   7.681   4.596
75028SOL    HW126923   0.352   7.636   4.525
75028SOL    HW226924   0.329   7.732   4.640
75029SOL     OW26925  10.338  11.739   9.481
75029SOL    HW126926  10.321  11.829   9.507
75029SOL    HW226927  10.422  11.718   9.521
75030SOL     OW26928   7.708  11.502   1.879
75030SOL    HW126929   7.801  11.482   1.874
75030SOL    HW226930   7.696  11.540   1.966
75031SOL     OW26931   2.905  13.410   8.672
75031SOL    HW126932   2.822  13.365   8.690
75031SOL    HW226933   2.889  13.457   8.590
75032SOL     OW26934   3.842  11.740   7.247
75032SOL    HW126935   3.916  11.745   7.308
75032SOL    HW226936   3.880  11.755   7.161
75033SOL     OW26937   8.157   6.372   5.695
75033SOL    HW126938   8.184   6.364   5.604
75033SOL    HW226939   8.236   6.356   5.746
75034SOL     OW26940   9.398   6.076   7.609
75034SOL    HW126941   9.413   6.144   7.674
75034SOL    HW226942   9.305   6.082   7.589
75035SOL     OW26943   4.183   1.016   2.816
75035SOL    HW126944   4.214   1.040   2.903
75035SOL    HW226945   4.162   0.923   2.821
75036SOL     OW26946  10.181  12.662   6.179
75036SOL    HW126947  10.107  12.722   6.176
75036SOL    HW226948  10.161  12.601   6.249
75037SOL     OW26949  12.887   1.678   8.587
75037SOL    HW126950  12.817   1.632   8.540
75037SOL    HW226951  12.905   1.622   8.663
75038SOL     OW26952   1.182   0.167   9.136
75038SOL    HW126953   1.220   0.126   9.214
75038SOL    HW226954   1.174   0.259   9.159
75039SOL     OW26955   3.945   9.783  13.163
75039SOL    HW126956   3.954   9.738  13.078
75039SOL    HW226957   3.851   9.792  13.175
75040SOL     OW26958  12.393  10.829   3.257
75040SOL    HW126959  12.444  10.837   3.177
75040SOL    HW226960  12.315  10.882   3.242
75041SOL     OW26961   6.920   0.922  10.464
75041SOL    HW126962   6.998   0.973  10.487
75041SOL    HW226963   6.874   0.910  10.548
75042SOL     OW26964  10.133  11.023  10.040
75042SOL    HW126965  10.109  11.016   9.947
75042SOL    HW226966  10.227  11.005  10.041
75043SOL     OW26967  14.191   7.013   3.184
75043SOL    HW126968  14.199   6.964   3.266
75043SOL    HW226969  14.271   6.991   3.135
75044SOL     OW26970   5.177   5.930   9.820
75044SOL    HW126971   5.231   5.986   9.763
75044SOL    HW226972   5.183   5.971   9.906
75045SOL     OW26973  11.935   5.866   0.143
75045SOL    HW126974  11.999   5.876   0.072
75045SOL    HW226975  11.966   5.924   0.212
75046SOL     OW26976   4.017  11.635  12.332
75046SOL    HW126977   3.948  11.671  12.276
75046SOL    HW226978   4.025  11.544  12.304
75047SOL     OW26979   4.975  10.424  11.613
75047SOL    HW126980   5.040  10.358  11.589
75047SOL    HW226981   4.947  10.462  11.530
75048SOL     OW26982   0.433   9.266   8.127
75048SOL    HW126983   0.474   9.220   8.200
75048SOL    HW226984   0.402   9.196   8.069
75049SOL     OW26985   8.325  10.368   1.622
75049SOL    HW126986   8.374  10.390   1.701
75049SOL    HW226987   8.246  10.422   1.628
75050SOL     OW26988   9.683  11.617   6.066
75050SOL    HW126989   9.657  11.535   6.107
75050SOL    HW226990   9.665  11.684   6.133
75051SOL     OW26991   4.354   4.695  14.611
75051SOL    HW126992   4.385   4.768  14.559
75051SOL    HW226993   4.288   4.734  14.670
75052SOL     OW26994   7.492   8.879  12.185
75052SOL    HW126995   7.402   8.864  12.155
75052SOL    HW226996   7.483   8.904  12.277
75053SOL     OW26997  14.244   6.322   3.677
75053SOL    HW126998  14.230   6.234   3.641
75053SOL    HW226999  14.157   6.349   3.707
75054SOL     OW27000  13.800  11.185  10.329
75054SOL    HW127001  13.891  11.209  10.346
75054SOL    HW227002  13.772  11.246  10.260
75055SOL     OW27003   0.695   6.488   0.832
75055SOL    HW127004   0.734   6.401   0.824
75055SOL    HW227005   0.652   6.503   0.747
75056SOL     OW27006   0.487   7.572   9.545
75056SOL    HW127007   0.555   7.540   9.604
75056SOL    HW227008   0.455   7.652   9.586
75057SOL     OW27009   0.845  11.158   9.760
75057SOL    HW127010   0.876  11.248   9.774
75057SOL    HW227011   0.911  11.118   9.704
75058SOL     OW27012   8.612   5.660  10.262
75058SOL    HW127013   8.542   5.597  10.278
75058SOL    HW227014   8.567   5.736  10.225
75059SOL     OW27015   4.452   1.222   9.516
75059SOL    HW127016   4.450   1.249   9.608
75059SOL    HW227017   4.524   1.160   9.511
75060SOL     OW27018   2.225   4.335   8.575
75060SOL    HW127019   2.208   4.408   8.516
75060SOL    HW227020   2.217   4.373   8.663
75061SOL     OW27021   0.893   6.872  12.380
75061SOL    HW127022   0.871   6.940  12.317
75061SOL    HW227023   0.975   6.900  12.419
75062SOL     OW27024   1.401  12.924   7.686
75062SOL    HW127025   1.339  12.852   7.678
75062SOL    HW227026   1.350  12.995   7.725
75063SOL     OW27027   9.289   6.405   5.579
75063SOL    HW127028   9.218   6.453   5.536
75063SOL    HW227029   9.347   6.474   5.612
75064SOL     OW27030   2.801   2.971   4.348
75064SOL    HW127031   2.762   2.973   4.260
75064SOL    HW227032   2.731   2.938   4.404
75065SOL     OW27033  14.575   2.646   0.925
75065SOL    HW127034  14.571   2.686   1.011
75065SOL    HW227035  14.644   2.580   0.932
75066SOL     OW27036   5.652   5.576  11.208
75066SOL    HW127037   5.688   5.497  11.167
75066SOL    HW227038   5.729   5.630  11.225
75067SOL     OW27039  10.069   8.371   6.132
75067SOL    HW127040  10.164   8.372   6.120
75067SOL    HW227041  10.057   8.387   6.226
75068SOL     OW27042  13.957   7.783   0.102
75068SOL    HW127043  13.886   7.719   0.092
75068SOL    HW227044  14.028   7.734   0.143
75069SOL     OW27045   0.862  10.516   8.950
75069SOL    HW127046   0.912  10.434   8.946
75069SOL    HW227047   0.880  10.559   8.867
75070SOL     OW27048   2.007   2.616   8.721
75070SOL    HW127049   1.961   2.601   8.803
75070SOL    HW227050   2.087   2.564   8.728
75071SOL     OW27051   7.217   0.266  14.298
75071SOL    HW127052   7.193   0.173  14.298
75071SOL    HW227053   7.186   0.299  14.382
75072SOL     OW27054   4.571   3.197   1.908
75072SOL    HW127055   4.616   3.113   1.915
75072SOL    HW227056   4.501   3.181   1.845
75073SOL     OW27057  12.153   9.344   0.982
75073SOL    HW127058  12.093   9.415   1.004
75073SOL    HW227059  12.237   9.388   0.965
75074SOL     OW27060   2.399  13.571   0.879
75074SOL    HW127061   2.391  13.665   0.865
75074SOL    HW227062   2.418  13.561   0.972
75075SOL     OW27063   1.693   0.163   7.063
75075SOL    HW127064   1.741   0.197   7.138
75075SOL    HW227065   1.671   0.073   7.087
75076SOL     OW27066  10.022  13.544  10.685
75076SOL    HW127067   9.935  13.579  10.666
75076SOL    HW227068  10.066  13.614  10.734
75077SOL     OW27069   2.701   9.533   9.124
75077SOL    HW127070   2.654   9.451   9.138
75077SOL    HW227071   2.641   9.587   9.073
75078SOL     OW27072  11.172   7.723   8.498
75078SOL    HW127073  11.265   7.723   8.475
75078SOL    HW227074  11.162   7.800   8.555
75079SOL     OW27075   2.629   1.905   2.011
75079SOL    HW127076   2.623   1.976   1.947
75079SOL    HW227077   2.592   1.943   2.091
75080SOL     OW27078  10.015  11.304  12.149
75080SOL    HW127079  10.031  11.354  12.070
75080SOL    HW227080  10.042  11.363  12.220
75081SOL     OW27081   2.067   9.446   3.922
75081SOL    HW127082   2.043   9.389   3.996
75081SOL    HW227083   2.020   9.409   3.848
75082SOL     OW27084  10.950  13.976  14.198
75082SOL    HW127085  10.893  13.976  14.121
75082SOL    HW227086  11.036  13.949  14.164
75083SOL     OW27087   7.333   3.207  13.570
75083SOL    HW127088   7.347   3.242  13.658
75083SOL    HW227089   7.407   3.241  13.519
75084SOL     OW27090  10.195   1.224  13.834
75084SOL    HW127091  10.252   1.250  13.762
75084SOL    HW227092  10.182   1.130  13.821
75085SOL     OW27093  12.962   8.205   5.437
75085SOL    HW127094  12.994   8.270   5.500
75085SOL    HW227095  12.878   8.176   5.472
75086SOL     OW27096   7.851   6.733   4.813
75086SOL    HW127097   7.894   6.656   4.776
75086SOL    HW227098   7.879   6.735   4.904
75087SOL     OW27099   6.978  14.075  10.788
75087SOL    HW127100   7.035  14.027  10.728
75087SOL    HW227101   6.894  14.027  10.783
75088SOL     OW27102   1.524   1.004   8.584
75088SOL    HW127103   1.607   0.960   8.565
75088SOL    HW227104   1.547   1.073   8.647
75089SOL     OW27105  11.833  13.506   1.283
75089SOL    HW127106  11.836  13.482   1.375
75089SOL    HW227107  11.834  13.602   1.283
75090SOL     OW27108   9.635  12.624  12.711
75090SOL    HW127109   9.668  12.593  12.627
75090SOL    HW227110   9.603  12.545  12.755
75091SOL     OW27111  13.708   8.526  11.870
75091SOL    HW127112  13.695   8.566  11.956
75091SOL    HW227113  13.630   8.551  11.820
75092SOL     OW27114   1.482   9.374   2.676
75092SOL    HW127115   1.565   9.377   2.628
75092SOL    HW227116   1.507   9.381   2.768
75093SOL     OW27117   7.934  10.211   2.914
75093SOL    HW127118   7.857  10.205   2.970
75093SOL    HW227119   7.904  10.257   2.836
75094SOL     OW27120   5.834   8.490   8.865
75094SOL    HW127121   5.919   8.445   8.866
75094SOL    HW227122   5.770   8.420   8.874
75095SOL     OW27123   9.725   9.692   9.175
75095SOL    HW127124   9.752   9.717   9.263
75095SOL    HW227125   9.632   9.715   9.171
75096SOL     OW27126   3.703  14.662   1.454
75096SOL    HW127127   3.794  14.634   1.453
75096SOL    HW227128   3.707  14.755   1.480
75097SOL     OW27129   1.912   1.119  11.307
75097SOL    HW127130   1.846   1.099  11.373
75097SOL    HW227131   1.936   1.033  11.271
75098SOL     OW27132   2.690   3.752   3.608
75098SOL    HW127133   2.768   3.790   3.648
75098SOL    HW227134   2.665   3.815   3.540
75099SOL     OW27135   4.501   5.033   1.949
75099SOL    HW127136   4.436   4.968   1.972
75099SOL    HW227137   4.533   5.005   1.863
75100SOL     OW27138   4.687   4.434  13.361
75100SOL    HW127139   4.676   4.387  13.278
75100SOL    HW227140   4.724   4.368  13.420
75101SOL     OW27141  13.097  11.345   5.718
75101SOL    HW127142  13.013  11.358   5.761
75101SOL    HW227143  13.139  11.431   5.724
75102SOL     OW27144  13.163   0.756  12.551
75102SOL    HW127145  13.175   0.825  12.617
75102SOL    HW227146  13.165   0.802  12.467
75103SOL     OW27147  13.303   6.140   2.253
75103SOL    HW127148  13.281   6.217   2.202
75103SOL    HW227149  13.224   6.123   2.305
75104SOL     OW27150  10.937  13.366   1.511
75104SOL    HW127151  10.892  13.282   1.504
75104SOL    HW227152  10.989  13.372   1.431
75105SOL     OW27153  10.628   6.715  13.137
75105SOL    HW127154  10.553   6.656  13.146
75105SOL    HW227155  10.606   6.771  13.063
75106SOL     OW27156   4.511   9.724   5.398
75106SOL    HW127157   4.520   9.631   5.381
75106SOL    HW227158   4.418   9.742   5.387
75107SOL     OW27159  11.476   8.017   7.456
75107SOL    HW127160  11.539   8.086   7.438
75107SOL    HW227161  11.413   8.057   7.516
75108SOL     OW27162  12.617  13.539  13.092
75108SOL    HW127163  12.582  13.484  13.022
75108SOL    HW227164  12.614  13.628  13.056
75109SOL     OW27165   7.843  11.927  11.799
75109SOL    HW127166   7.780  11.953  11.865
75109SOL    HW227167   7.839  11.997  11.733
75110SOL     OW27168   1.376   4.150   5.414
75110SOL    HW127169   1.464   4.174   5.384
75110SOL    HW227170   1.365   4.060   5.386
75111SOL     OW27171   1.759   7.604   5.089
75111SOL    HW127172   1.694   7.535   5.105
75111SOL    HW227173   1.772   7.645   5.174
75112SOL     OW27174   5.876  10.404   3.745
75112SOL    HW127175   5.883  10.440   3.656
75112SOL    HW227176   5.791  10.435   3.776
75113SOL     OW27177  13.383  10.936  10.015
75113SOL    HW127178  13.460  10.973  10.058
75113SOL    HW227179  13.333  11.013   9.986
75114SOL     OW27180   1.675   7.408   8.149
75114SOL    HW127181   1.764   7.417   8.185
75114SOL    HW227182   1.622   7.467   8.203
75115SOL     OW27183   0.545   8.391  11.504
75115SOL    HW127184   0.476   8.451  11.531
75115SOL    HW227185   0.622   8.447  11.493
75116SOL     OW27186  12.711  14.251   3.575
75116SOL    HW127187  12.705  14.214   3.662
75116SOL    HW227188  12.731  14.177   3.518
75117SOL     OW27189   5.343  12.163   0.019
75117SOL    HW127190   5.314  12.109  14.818
75117SOL    HW227191   5.438  12.167   0.010
75118SOL     OW27192   2.515   6.809   8.235
75118SOL    HW127193   2.608   6.801   8.258
75118SOL    HW227194   2.473   6.738   8.283
75119SOL     OW27195   0.996   4.943   4.071
75119SOL    HW127196   0.927   4.990   4.117
75119SOL    HW227197   1.019   4.871   4.131
75120SOL     OW27198   9.549   5.376   0.137
75120SOL    HW127199   9.567   5.323   0.059
75120SOL    HW227200   9.529   5.463   0.103
75121SOL     OW27201   9.905  13.564  13.648
75121SOL    HW127202   9.914  13.654  13.682
75121SOL    HW227203   9.993  13.540  13.620
75122SOL     OW27204  12.130   7.390  12.760
75122SOL    HW127205  12.073   7.457  12.723
75122SOL    HW227206  12.072   7.318  12.783
75123SOL     OW27207   2.778  10.825   2.694
75123SOL    HW127208   2.804  10.836   2.786
75123SOL    HW227209   2.817  10.900   2.649
75124SOL     OW27210   0.890  13.895   6.755
75124SOL    HW127211   0.796  13.896   6.738
75124SOL    HW227212   0.914  13.988   6.760
75125SOL     OW27213   6.876   9.558   0.988
75125SOL    HW127214   6.792   9.588   0.952
75125SOL    HW227215   6.930   9.540   0.910
75126SOL     OW27216  13.742  13.687  12.001
75126SOL    HW127217  13.769  13.623  11.936
75126SOL    HW227218  13.685  13.747  11.953
75127SOL     OW27219   1.783   7.753   1.368
75127SOL    HW127220   1.773   7.740   1.274
75127SOL    HW227221   1.862   7.806   1.378
75128SOL     OW27222  14.457   9.721   9.560
75128SOL    HW127223  14.366   9.749   9.567
75128SOL    HW227224  14.480   9.735   9.469
75129SOL     OW27225   9.042   7.738   5.217
75129SOL    HW127226   9.067   7.647   5.236
75129SOL    HW227227   9.125   7.784   5.207
75130SOL     OW27228   2.921   2.906   0.267
75130SOL    HW127229   2.883   2.827   0.228
75130SOL    HW227230   2.943   2.961   0.192
75131SOL     OW27231  11.547   5.672  14.667
75131SOL    HW127232  11.639   5.676  14.694
75131SOL    HW227233  11.518   5.586  14.696
75132SOL     OW27234   2.508  10.758  13.511
75132SOL    HW127235   2.493  10.825  13.578
75132SOL    HW227236   2.421  10.744  13.472
75133SOL     OW27237   6.003   3.097   8.174
75133SOL    HW127238   5.945   3.112   8.100
75133SOL    HW227239   6.029   3.006   8.167
75134SOL     OW27240   1.206  13.580  14.005
75134SOL    HW127241   1.211  13.674  14.024
75134SOL    HW227242   1.261  13.568  13.927
75135SOL     OW27243   6.584   3.082   4.701
75135SOL    HW127244   6.577   3.177   4.702
75135SOL    HW227245   6.493   3.051   4.694
75136SOL     OW27246  11.001   9.968  13.735
75136SOL    HW127247  10.990   9.967  13.640
75136SOL    HW227248  10.972  10.055  13.762
75137SOL     OW27249  13.095  12.180   2.303
75137SOL    HW127250  13.055  12.193   2.389
75137SOL    HW227251  13.094  12.085   2.290
75138SOL     OW27252   6.702   0.266   3.398
75138SOL    HW127253   6.618   0.308   3.380
75138SOL    HW227254   6.712   0.199   3.330
75139SOL     OW27255   3.139  10.166  13.264
75139SOL    HW127256   3.097  10.174  13.350
75139SOL    HW227257   3.131  10.253  13.225
75140SOL     OW27258   8.205  13.496   8.592
75140SOL    HW127259   8.292  13.485   8.630
75140SOL    HW227260   8.221  13.520   8.501
75141SOL     OW27261  11.893   3.203   1.674
75141SOL    HW127262  11.809   3.238   1.704
75141SOL    HW227263  11.940   3.181   1.754
75142SOL     OW27264   5.220   7.083   9.873
75142SOL    HW127265   5.310   7.097   9.845
75142SOL    HW227266   5.227   7.060   9.966
75143SOL     OW27267   6.535  10.465  11.218
75143SOL    HW127268   6.621  10.433  11.247
75143SOL    HW227269   6.554  10.521  11.144
75144SOL     OW27270   0.948   3.213  10.084
75144SOL    HW127271   0.998   3.147  10.036
75144SOL    HW227272   0.913   3.167  10.160
75145SOL     OW27273   9.568  13.096  10.808
75145SOL    HW127274   9.495  13.131  10.757
75145SOL    HW227275   9.532  13.022  10.856
75146SOL     OW27276   3.848  12.252   0.087
75146SOL    HW127277   3.827  12.309   0.161
75146SOL    HW227278   3.924  12.293   0.046
75147SOL     OW27279  12.248  12.809   6.734
75147SOL    HW127280  12.292  12.766   6.808
75147SOL    HW227281  12.241  12.901   6.761
75148SOL     OW27282  12.326   4.786   2.797
75148SOL    HW127283  12.314   4.785   2.702
75148SOL    HW227284  12.303   4.875   2.823
75149SOL     OW27285  11.415   8.481   4.680
75149SOL    HW127286  11.337   8.448   4.637
75149SOL    HW227287  11.457   8.403   4.718
75150SOL     OW27288  14.449   2.136   0.792
75150SOL    HW127289  14.370   2.092   0.759
75150SOL    HW227290  14.463   2.208   0.731
75151SOL     OW27291   7.032   3.807  11.575
75151SOL    HW127292   7.019   3.738  11.510
75151SOL    HW227293   6.968   3.874  11.553
75152SOL     OW27294   5.425   4.616   9.231
75152SOL    HW127295   5.354   4.634   9.170
75152SOL    HW227296   5.388   4.553   9.293
75153SOL     OW27297   3.170  12.436   1.447
75153SOL    HW127298   3.187  12.375   1.375
75153SOL    HW227299   3.230  12.509   1.431
75154SOL     OW27300   2.915  13.610   0.719
75154SOL    HW127301   2.954  13.688   0.680
75154SOL    HW227302   2.860  13.574   0.650
75155SOL     OW27303  10.738   5.297  11.312
75155SOL    HW127304  10.797   5.273  11.240
75155SOL    HW227305  10.660   5.242  11.297
75156SOL     OW27306   5.352   2.627  10.231
75156SOL    HW127307   5.341   2.535  10.254
75156SOL    HW227308   5.301   2.639  10.151
75157SOL     OW27309   0.714   5.457   5.631
75157SOL    HW127310   0.762   5.406   5.696
75157SOL    HW227311   0.661   5.517   5.683
75158SOL     OW27312   6.103   6.557   2.440
75158SOL    HW127313   6.162   6.552   2.365
75158SOL    HW227314   6.079   6.466   2.458
75159SOL     OW27315   9.706  13.439   5.388
75159SOL    HW127316   9.746  13.489   5.317
75159SOL    HW227317   9.636  13.497   5.421
75160SOL     OW27318   3.155   8.043   0.761
75160SOL    HW127319   3.077   8.081   0.719
75160SOL    HW227320   3.193   7.986   0.694
75161SOL     OW27321   1.254   0.529   7.080
75161SOL    HW127322   1.197   0.592   7.124
75161SOL    HW227323   1.197   0.455   7.060
75162SOL     OW27324   5.323   4.965   4.203
75162SOL    HW127325   5.371   4.885   4.181
75162SOL    HW227326   5.383   5.036   4.183
75163SOL     OW27327   1.307   9.075  11.075
75163SOL    HW127328   1.319   9.170  11.086
75163SOL    HW227329   1.233   9.067  11.015
75164SOL     OW27330  10.701  13.303   1.948
75164SOL    HW127331  10.695  13.209   1.962
75164SOL    HW227332  10.784  13.328   1.989
75165SOL     OW27333   6.900   5.345   4.007
75165SOL    HW127334   6.963   5.288   4.052
75165SOL    HW227335   6.815   5.317   4.041
75166SOL     OW27336   7.822   9.997   3.399
75166SOL    HW127337   7.745  10.050   3.421
75166SOL    HW227338   7.894  10.038   3.447
75167SOL     OW27339  12.069  11.210   0.649
75167SOL    HW127340  12.078  11.300   0.679
75167SOL    HW227341  12.114  11.158   0.715
75168SOL     OW27342   1.901   3.819   6.672
75168SOL    HW127343   1.989   3.836   6.639
75168SOL    HW227344   1.850   3.799   6.594
75169SOL     OW27345   9.858   1.052   9.127
75169SOL    HW127346   9.950   1.026   9.136
75169SOL    HW227347   9.858   1.146   9.147
75170SOL     OW27348   6.020   5.944   4.768
75170SOL    HW127349   6.014   5.924   4.862
75170SOL    HW227350   6.071   5.871   4.732
75171SOL     OW27351   8.207  12.703   6.843
75171SOL    HW127352   8.276  12.638   6.829
75171SOL    HW227353   8.211  12.759   6.766
75172SOL     OW27354   8.884   0.936  12.741
75172SOL    HW127355   8.899   0.964  12.831
75172SOL    HW227356   8.791   0.953  12.726
75173SOL     OW27357   6.424   3.973  11.875
75173SOL    HW127358   6.352   3.930  11.829
75173SOL    HW227359   6.397   3.974  11.967
75174SOL     OW27360   2.874   5.075   3.580
75174SOL    HW127361   2.840   5.164   3.573
75174SOL    HW227362   2.912   5.071   3.668
75175SOL     OW27363   1.338  12.439   5.596
75175SOL    HW127364   1.402  12.483   5.540
75175SOL    HW227365   1.265  12.501   5.602
75176SOL     OW27366  14.802  13.588   7.257
75176SOL    HW127367  14.719  13.615   7.298
75176SOL    HW227368  14.851  13.547   7.328
75177SOL     OW27369   5.663   3.751   0.217
75177SOL    HW127370   5.687   3.763   0.309
75177SOL    HW227371   5.570   3.771   0.214
75178SOL     OW27372  10.500   3.428   0.058
75178SOL    HW127373  10.502   3.395  14.841
75178SOL    HW227374  10.409   3.454   0.072
75179SOL     OW27375   0.035  10.245   3.751
75179SOL    HW127376   0.104  10.310   3.745
75179SOL    HW227377  14.827  10.295   3.760
75180SOL     OW27378  14.780  11.588   0.826
75180SOL    HW127379  14.856  11.646   0.830
75180SOL    HW227380  14.713  11.631   0.878
75181SOL     OW27381   9.813   1.867   7.425
75181SOL    HW127382   9.871   1.836   7.354
75181SOL    HW227383   9.758   1.934   7.384
75182SOL     OW27384   0.511   4.229   9.183
75182SOL    HW127385   0.524   4.219   9.277
75182SOL    HW227386   0.443   4.165   9.161
75183SOL     OW27387   1.965   2.511   2.540
75183SOL    HW127388   1.970   2.585   2.480
75183SOL    HW227389   1.935   2.438   2.487
75184SOL     OW27390  13.640   9.165  10.224
75184SOL    HW127391  13.682   9.173  10.309
75184SOL    HW227392  13.646   9.252  10.185
75185SOL     OW27393   0.727  10.081   5.476
75185SOL    HW127394   0.694  10.051   5.561
75185SOL    HW227395   0.662  10.050   5.413
75186SOL     OW27396   2.941   1.272  10.923
75186SOL    HW127397   2.854   1.233  10.937
75186SOL    HW227398   2.993   1.241  10.997
75187SOL     OW27399  11.309  14.497   5.517
75187SOL    HW127400  11.365  14.440   5.570
75187SOL    HW227401  11.299  14.449   5.434
75188SOL     OW27402   9.435   0.325   9.349
75188SOL    HW127403   9.359   0.345   9.404
75188SOL    HW227404   9.398   0.309   9.262
75189SOL     OW27405   9.895   0.361  11.074
75189SOL    HW127406   9.802   0.383  11.075
75189SOL    HW227407   9.898   0.271  11.041
75190SOL     OW27408   6.752   8.704   2.725
75190SOL    HW127409   6.846   8.718   2.738
75190SOL    HW227410   6.711   8.779   2.769
75191SOL     OW27411   0.987  13.869   2.457
75191SOL    HW127412   1.014  13.782   2.426
75191SOL    HW227413   0.980  13.922   2.378
75192SOL     OW27414   4.795   8.966  10.804
75192SOL    HW127415   4.779   9.057  10.829
75192SOL    HW227416   4.873   8.969  10.748
75193SOL     OW27417  13.578   4.220   3.555
75193SOL    HW127418  13.499   4.169   3.572
75193SOL    HW227419  13.609   4.187   3.471
75194SOL     OW27420  12.286   8.404   0.227
75194SOL    HW127421  12.368   8.371   0.191
75194SOL    HW227422  12.260   8.474   0.167
75195SOL     OW27423   0.094  13.524   7.509
75195SOL    HW127424   0.189  13.514   7.503
75195SOL    HW227425   0.082  13.610   7.548
75196SOL     OW27426   1.187   6.196   0.740
75196SOL    HW127427   1.267   6.172   0.693
75196SOL    HW227428   1.158   6.277   0.698
75197SOL     OW27429   6.747   9.215   1.915
75197SOL    HW127430   6.726   9.303   1.944
75197SOL    HW227431   6.775   9.169   1.995
75198SOL     OW27432   4.582  12.948   5.429
75198SOL    HW127433   4.542  13.007   5.493
75198SOL    HW227434   4.630  12.884   5.481
75199SOL     OW27435   8.064   5.208   8.427
75199SOL    HW127436   8.129   5.154   8.383
75199SOL    HW227437   8.027   5.263   8.358
75200SOL     OW27438  10.472   4.487   4.372
75200SOL    HW127439  10.490   4.444   4.288
75200SOL    HW227440  10.379   4.470   4.388
75201SOL     OW27441   8.922   7.401   6.464
75201SOL    HW127442   8.937   7.463   6.393
75201SOL    HW227443   8.890   7.322   6.420
75202SOL     OW27444   1.472  10.934  13.767
75202SOL    HW127445   1.482  11.019  13.723
75202SOL    HW227446   1.392  10.897  13.730
75203SOL     OW27447   8.465  10.557  10.194
75203SOL    HW127448   8.548  10.568  10.149
75203SOL    HW227449   8.402  10.537  10.124
75204SOL     OW27450   4.476   1.657   5.735
75204SOL    HW127451   4.570   1.653   5.756
75204SOL    HW227452   4.441   1.722   5.796
75205SOL     OW27453  14.050   9.440  12.468
75205SOL    HW127454  14.030   9.533  12.480
75205SOL    HW227455  14.028   9.400  12.552
75206SOL     OW27456   5.714   2.406  13.668
75206SOL    HW127457   5.626   2.415  13.704
75206SOL    HW227458   5.758   2.488  13.692
75207SOL     OW27459  14.526   7.377   8.530
75207SOL    HW127460  14.441   7.405   8.566
75207SOL    HW227461  14.583   7.453   8.545
75208SOL     OW27462   7.073   5.113   0.331
75208SOL    HW127463   7.035   5.187   0.283
75208SOL    HW227464   7.104   5.054   0.262
75209SOL     OW27465   8.167   1.529   9.521
75209SOL    HW127466   8.188   1.522   9.614
75209SOL    HW227467   8.084   1.577   9.519
75210SOL     OW27468   2.030  12.340   2.458
75210SOL    HW127469   2.083  12.351   2.379
75210SOL    HW227470   2.091  12.303   2.523
75211SOL     OW27471   7.669  14.734   4.188
75211SOL    HW127472   7.699  14.734   4.097
75211SOL    HW227473   7.575  14.750   4.182
75212SOL     OW27474   3.345   8.306   1.431
75212SOL    HW127475   3.319   8.341   1.346
75212SOL    HW227476   3.263   8.291   1.477
75213SOL     OW27477  12.538   0.034   0.116
75213SOL    HW127478  12.621  14.861   0.103
75213SOL    HW227479  12.495   0.029   0.030
75214SOL     OW27480  11.392  13.856  10.058
75214SOL    HW127481  11.442  13.935  10.073
75214SOL    HW227482  11.423  13.794  10.124
75215SOL     OW27483  11.295  14.268  10.579
75215SOL    HW127484  11.267  14.225  10.497
75215SOL    HW227485  11.252  14.217  10.648
75216SOL     OW27486  12.961   2.715  11.041
75216SOL    HW127487  12.891   2.779  11.030
75216SOL    HW227488  13.035   2.766  11.074
75217SOL     OW27489   4.712   1.409   2.587
75217SOL    HW127490   4.698   1.416   2.681
75217SOL    HW227491   4.796   1.453   2.572
75218SOL     OW27492   6.859  12.807   2.937
75218SOL    HW127493   6.919  12.748   2.891
75218SOL    HW227494   6.878  12.893   2.899
75219SOL     OW27495  11.541   5.549  13.997
75219SOL    HW127496  11.555   5.476  14.058
75219SOL    HW227497  11.473   5.517  13.937
75220SOL     OW27498   0.345   7.354   1.005
75220SOL    HW127499   0.272   7.392   0.956
75220SOL    HW227500   0.312   7.268   1.034
75221SOL     OW27501  11.784   5.902   5.594
75221SOL    HW127502  11.713   5.927   5.535
75221SOL    HW227503  11.836   5.838   5.544
75222SOL     OW27504   3.586  14.526   2.688
75222SOL    HW127505   3.661  14.513   2.746
75222SOL    HW227506   3.510  14.516   2.746
75223SOL     OW27507   7.899   1.900  10.955
75223SOL    HW127508   7.941   1.986  10.956
75223SOL    HW227509   7.966   1.841  10.920
75224SOL     OW27510   5.287   3.119   1.609
75224SOL    HW127511   5.311   3.192   1.666
75224SOL    HW227512   5.207   3.083   1.648
75225SOL     OW27513   1.825   9.558  13.190
75225SOL    HW127514   1.904   9.601  13.223
75225SOL    HW227515   1.813   9.594  13.102
75226SOL     OW27516   5.960  10.009   5.483
75226SOL    HW127517   5.951  10.062   5.562
75226SOL    HW227518   5.945  10.070   5.411
75227SOL     OW27519   7.979   2.322   7.324
75227SOL    HW127520   7.926   2.332   7.403
75227SOL    HW227521   7.916   2.324   7.252
75228SOL     OW27522   3.231   9.956   4.805
75228SOL    HW127523   3.150   9.976   4.851
75228SOL    HW227524   3.275  10.040   4.796
75229SOL     OW27525  14.817   9.904   4.875
75229SOL    HW127526  14.741   9.959   4.855
75229SOL    HW227527  14.808   9.829   4.816
75230SOL     OW27528   4.828  11.836  12.009
75230SOL    HW127529   4.873  11.778  11.948
75230SOL    HW227530   4.740  11.798  12.018
75231SOL     OW27531   0.059   4.521   8.764
75231SOL    HW127532   0.126   4.517   8.833
75231SOL    HW227533   0.091   4.589   8.704
75232SOL     OW27534   8.934   2.563   1.162
75232SOL    HW127535   9.022   2.545   1.196
75232SOL    HW227536   8.913   2.487   1.107
75233SOL     OW27537   6.751   6.445   5.824
75233SOL    HW127538   6.709   6.492   5.896
75233SOL    HW227539   6.742   6.502   5.749
75234SOL     OW27540   6.908   7.847   8.702
75234SOL    HW127541   6.978   7.789   8.674
75234SOL    HW227542   6.856   7.862   8.624
75235SOL     OW27543  12.984   3.047   5.271
75235SOL    HW127544  12.992   3.001   5.354
75235SOL    HW227545  12.891   3.045   5.251
75236SOL     OW27546   6.337   3.196   2.728
75236SOL    HW127547   6.352   3.256   2.655
75236SOL    HW227548   6.263   3.233   2.775
75237SOL     OW27549   5.892   1.385   8.371
75237SOL    HW127550   5.836   1.421   8.441
75237SOL    HW227551   5.873   1.291   8.372
75238SOL     OW27552   2.355   4.012   4.527
75238SOL    HW127553   2.268   4.025   4.562
75238SOL    HW227554   2.376   3.921   4.548
75239SOL     OW27555   6.331  10.797   1.097
75239SOL    HW127556   6.353  10.759   1.011
75239SOL    HW227557   6.341  10.891   1.084
75240SOL     OW27558   0.275   3.469   1.818
75240SOL    HW127559   0.271   3.520   1.899
75240SOL    HW227560   0.184   3.449   1.797
75241SOL     OW27561  12.987   4.968   1.922
75241SOL    HW127562  13.055   4.990   1.857
75241SOL    HW227563  12.928   4.910   1.875
75242SOL     OW27564  11.142   8.985   9.189
75242SOL    HW127565  11.149   8.906   9.135
75242SOL    HW227566  11.075   9.037   9.146
75243SOL     OW27567   8.708   0.777   9.113
75243SOL    HW127568   8.621   0.808   9.088
75243SOL    HW227569   8.717   0.803   9.205
75244SOL     OW27570   6.062  13.888   1.494
75244SOL    HW127571   6.043  13.816   1.554
75244SOL    HW227572   6.154  13.907   1.508
75245SOL     OW27573   6.048  12.665  10.006
75245SOL    HW127574   6.038  12.648   9.912
75245SOL    HW227575   5.962  12.644  10.043
75246SOL     OW27576  13.178   0.931  11.302
75246SOL    HW127577  13.232   0.858  11.333
75246SOL    HW227578  13.142   0.901  11.219
75247SOL     OW27579   7.158   8.381   6.442
75247SOL    HW127580   7.065   8.387   6.423
75247SOL    HW227581   7.164   8.320   6.515
75248SOL     OW27582   9.685   7.090  10.878
75248SOL    HW127583   9.729   7.133  10.805
75248SOL    HW227584   9.701   7.148  10.953
75249SOL     OW27585   2.926   7.347  12.831
75249SOL    HW127586   3.010   7.377  12.797
75249SOL    HW227587   2.948   7.282  12.897
75250SOL     OW27588   1.353   4.261  12.804
75250SOL    HW127589   1.301   4.338  12.828
75250SOL    HW227590   1.295   4.209  12.749
75251SOL     OW27591   3.313   1.691   9.567
75251SOL    HW127592   3.407   1.671   9.569
75251SOL    HW227593   3.303   1.766   9.626
75252SOL     OW27594   9.207   9.965   7.903
75252SOL    HW127595   9.206   9.878   7.863
75252SOL    HW227596   9.240  10.023   7.834
75253SOL     OW27597   4.554  10.336  13.697
75253SOL    HW127598   4.469  10.376  13.680
75253SOL    HW227599   4.611  10.370  13.628
75254SOL     OW27600   2.787  14.720  10.869
75254SOL    HW127601   2.845  14.795  10.856
75254SOL    HW227602   2.716  14.733  10.806
75255SOL     OW27603   1.992   4.824  13.262
75255SOL    HW127604   2.024   4.908  13.230
75255SOL    HW227605   1.907   4.845  13.302
75256SOL     OW27606   3.786   1.407   4.227
75256SOL    HW127607   3.856   1.344   4.240
75256SOL    HW227608   3.830   1.492   4.225
75257SOL     OW27609  13.851   2.755   1.210
75257SOL    HW127610  13.911   2.680   1.205
75257SOL    HW227611  13.880   2.803   1.288
75258SOL     OW27612   0.008  12.021  11.781
75258SOL    HW127613  14.852  12.000  11.870
75258SOL    HW227614  14.802  12.019  11.728
75259SOL     OW27615   5.200  12.639   7.394
75259SOL    HW127616   5.237  12.716   7.439
75259SOL    HW227617   5.244  12.565   7.435
75260SOL     OW27618  11.920   4.717   6.409
75260SOL    HW127619  11.888   4.803   6.383
75260SOL    HW227620  11.848   4.679   6.460
75261SOL     OW27621   2.240  11.750   1.007
75261SOL    HW127622   2.234  11.708   0.921
75261SOL    HW227623   2.175  11.820   1.004
75262SOL     OW27624  10.910  10.116   4.682
75262SOL    HW127625  10.966  10.138   4.756
75262SOL    HW227626  10.966  10.065   4.624
75263SOL     OW27627   9.236  13.742   9.142
75263SOL    HW127628   9.278  13.828   9.145
75263SOL    HW227629   9.144  13.761   9.127
75264SOL     OW27630   7.707   6.744   1.190
75264SOL    HW127631   7.677   6.792   1.113
75264SOL    HW227632   7.704   6.652   1.163
75265SOL     OW27633   2.154   5.988   2.931
75265SOL    HW127634   2.240   5.986   2.889
75265SOL    HW227635   2.159   6.061   2.992
75266SOL     OW27636  10.410  12.822  11.349
75266SOL    HW127637  10.400  12.793  11.258
75266SOL    HW227638  10.320  12.834  11.380
75267SOL     OW27639  12.731  14.131   1.611
75267SOL    HW127640  12.786  14.078   1.553
75267SOL    HW227641  12.751  14.221   1.587
75268SOL     OW27642  10.463   8.136   6.492
75268SOL    HW127643  10.429   8.060   6.444
75268SOL    HW227644  10.469   8.205   6.426
75269SOL     OW27645   0.581  13.276   5.280
75269SOL    HW127646   0.576  13.347   5.216
75269SOL    HW227647   0.663  13.230   5.259
75270SOL     OW27648   8.994  11.121  12.045
75270SOL    HW127649   8.953  11.207  12.054
75270SOL    HW227650   9.054  11.115  12.119
75271SOL     OW27651  11.734  10.653   8.920
75271SOL    HW127652  11.766  10.730   8.873
75271SOL    HW227653  11.641  10.671   8.935
75272SOL     OW27654  10.191   8.066   2.182
75272SOL    HW127655  10.117   8.019   2.221
75272SOL    HW227656  10.261   8.001   2.179
75273SOL     OW27657  10.135   4.033  10.272
75273SOL    HW127658  10.075   4.067  10.338
75273SOL    HW227659  10.222   4.047  10.308
75274SOL     OW27660  11.999   8.339  12.455
75274SOL    HW127661  12.065   8.406  12.435
75274SOL    HW227662  12.027   8.263  12.404
75275SOL     OW27663   2.396  11.485   6.808
75275SOL    HW127664   2.476  11.536   6.790
75275SOL    HW227665   2.337  11.548   6.849
75276SOL     OW27666  13.634   8.699  10.751
75276SOL    HW127667  13.550   8.683  10.707
75276SOL    HW227668  13.613   8.698  10.844
75277SOL     OW27669   1.505   0.813   6.225
75277SOL    HW127670   1.584   0.797   6.276
75277SOL    HW227671   1.442   0.850   6.288
75278SOL     OW27672   9.861   1.908   4.353
75278SOL    HW127673   9.880   1.884   4.263
75278SOL    HW227674   9.808   1.836   4.387
75279SOL     OW27675   2.806   6.744  10.206
75279SOL    HW127676   2.713   6.756  10.190
75279SOL    HW227677   2.830   6.666  10.156
75280SOL     OW27678   0.425   1.527  14.752
75280SOL    HW127679   0.449   1.509  14.662
75280SOL    HW227680   0.414   1.441  14.792
75281SOL     OW27681  13.778   2.252   3.703
75281SOL    HW127682  13.798   2.208   3.786
75281SOL    HW227683  13.863   2.285   3.673
75282SOL     OW27684  12.952   2.989   8.814
75282SOL    HW127685  12.963   3.074   8.857
75282SOL    HW227686  12.868   2.956   8.847
75283SOL     OW27687   0.326   5.395   2.935
75283SOL    HW127688   0.273   5.317   2.950
75283SOL    HW227689   0.285   5.438   2.860
75284SOL     OW27690   1.702   5.441   5.157
75284SOL    HW127691   1.743   5.479   5.234
75284SOL    HW227692   1.697   5.514   5.094
75285SOL     OW27693   5.685   4.161  13.446
75285SOL    HW127694   5.735   4.242  13.447
75285SOL    HW227695   5.659   4.149  13.355
75286SOL     OW27696  13.256  13.958   0.672
75286SOL    HW127697  13.301  14.039   0.698
75286SOL    HW227698  13.299  13.889   0.722
75287SOL     OW27699   1.240   8.102   1.233
75287SOL    HW127700   1.201   8.037   1.290
75287SOL    HW227701   1.221   8.072   1.145
75288SOL     OW27702  13.584   2.377   6.648
75288SOL    HW127703  13.578   2.418   6.562
75288SOL    HW227704  13.493   2.356   6.671
75289SOL     OW27705   9.056   1.664   9.162
75289SOL    HW127706   9.151   1.660   9.156
75289SOL    HW227707   9.038   1.674   9.255
75290SOL     OW27708   7.262   5.326   0.638
75290SOL    HW127709   7.345   5.336   0.684
75290SOL    HW227710   7.269   5.387   0.564
75291SOL     OW27711   0.686   5.869   0.444
75291SOL    HW127712   0.632   5.875   0.522
75291SOL    HW227713   0.625   5.879   0.371
75292SOL     OW27714  11.154  10.548   7.751
75292SOL    HW127715  11.163  10.592   7.666
75292SOL    HW227716  11.105  10.468   7.732
75293SOL     OW27717  12.400   6.870   2.622
75293SOL    HW127718  12.488   6.873   2.586
75293SOL    HW227719  12.361   6.953   2.597
75294SOL     OW27720   5.689  13.764  12.844
75294SOL    HW127721   5.644  13.680  12.841
75294SOL    HW227722   5.619  13.829  12.844
75295SOL     OW27723  14.095  12.638   7.216
75295SOL    HW127724  14.108  12.627   7.122
75295SOL    HW227725  14.164  12.585   7.256
75296SOL     OW27726  14.760   2.208   2.428
75296SOL    HW127727  14.820   2.138   2.453
75296SOL    HW227728  14.681   2.163   2.399
75297SOL     OW27729  10.157   4.489   8.907
75297SOL    HW127730  10.115   4.537   8.979
75297SOL    HW227731  10.112   4.405   8.905
75298SOL     OW27732   4.775   0.167   6.586
75298SOL    HW127733   4.687   0.142   6.615
75298SOL    HW227734   4.761   0.233   6.519
75299SOL     OW27735  10.537   6.583   7.210
75299SOL    HW127736  10.473   6.628   7.155
75299SOL    HW227737  10.551   6.642   7.284
75300SOL     OW27738   4.313   9.171   9.959
75300SOL    HW127739   4.407   9.179   9.976
75300SOL    HW227740   4.272   9.229  10.023
75301SOL     OW27741  11.087   4.181   4.243
75301SOL    HW127742  11.111   4.265   4.281
75301SOL    HW227743  11.001   4.196   4.203
75302SOL     OW27744  10.632   4.462   7.003
75302SOL    HW127745  10.544   4.486   7.035
75302SOL    HW227746  10.644   4.517   6.926
75303SOL     OW27747  12.244   1.940   7.294
75303SOL    HW127748  12.170   1.892   7.330
75303SOL    HW227749  12.318   1.917   7.350
75304SOL     OW27750  14.078   3.372   3.322
75304SOL    HW127751  14.149   3.328   3.274
75304SOL    HW227752  14.123   3.422   3.390
75305SOL     OW27753   9.159   6.859   2.920
75305SOL    HW127754   9.140   6.952   2.928
75305SOL    HW227755   9.108   6.831   2.843
75306SOL     OW27756  12.217   7.030   8.866
75306SOL    HW127757  12.245   7.056   8.953
75306SOL    HW227758  12.253   6.942   8.853
75307SOL     OW27759  11.569  14.643   4.448
75307SOL    HW127760  11.491  14.591   4.468
75307SOL    HW227761  11.544  14.732   4.470
75308SOL     OW27762   5.066   4.758   8.608
75308SOL    HW127763   5.084   4.676   8.653
75308SOL    HW227764   5.151   4.787   8.575
75309SOL     OW27765   7.840   1.407  11.943
75309SOL    HW127766   7.800   1.369  11.865
75309SOL    HW227767   7.825   1.501  11.935
75310SOL     OW27768   6.408  14.070   4.667
75310SOL    HW127769   6.502  14.066   4.648
75310SOL    HW227770   6.367  14.065   4.581
75311SOL     OW27771   0.123   3.502   0.076
75311SOL    HW127772   0.186   3.525   0.007
75311SOL    HW227773   0.043   3.481   0.029
75312SOL     OW27774   4.627  10.959   5.803
75312SOL    HW127775   4.585  10.969   5.718
75312SOL    HW227776   4.700  10.900   5.788
75313SOL     OW27777   7.798   4.492  11.324
75313SOL    HW127778   7.828   4.490  11.415
75313SOL    HW227779   7.869   4.532  11.275
75314SOL     OW27780   4.106   6.681  12.606
75314SOL    HW127781   4.068   6.636  12.531
75314SOL    HW227782   4.031   6.706  12.660
75315SOL     OW27783  13.382   7.195  12.189
75315SOL    HW127784  13.457   7.160  12.238
75315SOL    HW227785  13.363   7.279  12.232
75316SOL     OW27786  10.158  11.922   2.055
75316SOL    HW127787  10.079  11.900   2.103
75316SOL    HW227788  10.148  12.015   2.032
75317SOL     OW27789   7.217  12.284  12.323
75317SOL    HW127790   7.243  12.209  12.269
75317SOL    HW227791   7.129  12.261  12.353
75318SOL     OW27792  12.731   5.896   0.704
75318SOL    HW127793  12.824   5.890   0.722
75318SOL    HW227794  12.700   5.967   0.761
75319SOL     OW27795   7.302  12.270   6.057
75319SOL    HW127796   7.274  12.319   6.135
75319SOL    HW227797   7.319  12.181   6.089
75320SOL     OW27798   8.813   1.450  14.034
75320SOL    HW127799   8.741   1.503  14.069
75320SOL    HW227800   8.889   1.478  14.084
75321SOL     OW27801   0.860   1.388  11.414
75321SOL    HW127802   0.802   1.329  11.366
75321SOL    HW227803   0.813   1.407  11.495
75322SOL     OW27804  10.474   5.223   9.220
75322SOL    HW127805  10.379   5.224   9.233
75322SOL    HW227806  10.486   5.235   9.126
75323SOL     OW27807   9.326   7.276  13.601
75323SOL    HW127808   9.366   7.325  13.673
75323SOL    HW227809   9.400   7.244  13.549
75324SOL     OW27810   5.804   4.815  12.842
75324SOL    HW127811   5.890   4.828  12.800
75324SOL    HW227812   5.741   4.848  12.778
75325SOL     OW27813   1.207   2.701   3.943
75325SOL    HW127814   1.237   2.726   3.856
75325SOL    HW227815   1.147   2.628   3.927
75326SOL     OW27816  13.288  10.386   9.343
75326SOL    HW127817  13.323  10.463   9.298
75326SOL    HW227818  13.194  10.389   9.324
75327SOL     OW27819   8.228  14.386   1.151
75327SOL    HW127820   8.275  14.458   1.193
75327SOL    HW227821   8.193  14.424   1.071
75328SOL     OW27822   7.080   0.092   6.848
75328SOL    HW127823   7.166   0.123   6.817
75328SOL    HW227824   7.071   0.132   6.934
75329SOL     OW27825   2.890   7.453   8.316
75329SOL    HW127826   2.826   7.407   8.371
75329SOL    HW227827   2.928   7.384   8.262
75330SOL     OW27828   3.450   9.343   7.059
75330SOL    HW127829   3.393   9.383   7.125
75330SOL    HW227830   3.401   9.267   7.027
75331SOL     OW27831   4.666   2.326   2.642
75331SOL    HW127832   4.662   2.404   2.586
75331SOL    HW227833   4.749   2.284   2.620
75332SOL     OW27834   4.299   5.040   0.231
75332SOL    HW127835   4.334   4.971   0.175
75332SOL    HW227836   4.211   5.056   0.197
75333SOL     OW27837   5.920   2.920  11.818
75333SOL    HW127838   5.989   2.866  11.778
75333SOL    HW227839   5.839   2.887  11.780
75334SOL     OW27840   3.022   9.327  12.510
75334SOL    HW127841   3.016   9.252  12.451
75334SOL    HW227842   3.114   9.352  12.508
75335SOL     OW27843   7.988   9.913   3.197
75335SOL    HW127844   8.063   9.953   3.240
75335SOL    HW227845   7.912   9.947   3.244
75336SOL     OW27846   9.048   1.366   9.948
75336SOL    HW127847   9.049   1.462   9.948
75336SOL    HW227848   9.111   1.341  10.015
75337SOL     OW27849   1.699  11.145   0.751
75337SOL    HW127850   1.638  11.194   0.805
75337SOL    HW227851   1.651  11.130   0.669
75338SOL     OW27852   4.427  10.612   9.165
75338SOL    HW127853   4.359  10.636   9.228
75338SOL    HW227854   4.458  10.526   9.194
75339SOL     OW27855  10.252   6.515   0.877
75339SOL    HW127856  10.319   6.450   0.857
75339SOL    HW227857  10.252   6.573   0.801
75340SOL     OW27858   9.376  10.261   3.739
75340SOL    HW127859   9.315  10.236   3.808
75340SOL    HW227860   9.337  10.227   3.658
75341SOL     OW27861  10.889   8.080   0.165
75341SOL    HW127862  10.872   8.083   0.259
75341SOL    HW227863  10.803   8.065   0.125
75342SOL     OW27864  14.643   0.610   0.975
75342SOL    HW127865  14.699   0.602   1.052
75342SOL    HW227866  14.572   0.667   1.002
75343SOL     OW27867   3.457   9.163  14.449
75343SOL    HW127868   3.535   9.117  14.418
75343SOL    HW227869   3.457   9.150  14.544
75344SOL     OW27870   1.304   8.671   5.046
75344SOL    HW127871   1.231   8.677   4.984
75344SOL    HW227872   1.287   8.590   5.094
75345SOL     OW27873  10.293  14.619   8.014
75345SOL    HW127874  10.209  14.625   7.970
75345SOL    HW227875  10.355  14.657   7.952
75346SOL     OW27876   0.891   5.019  14.478
75346SOL    HW127877   0.976   5.032  14.437
75346SOL    HW227878   0.883   5.092  14.539
75347SOL     OW27879  10.817   0.875   5.226
75347SOL    HW127880  10.874   0.803   5.201
75347SOL    HW227881  10.876   0.948   5.241
75348SOL     OW27882   2.940   5.380  12.601
75348SOL    HW127883   2.892   5.299  12.618
75348SOL    HW227884   2.889   5.424  12.533
75349SOL     OW27885  10.201  11.328  10.061
75349SOL    HW127886  10.118  11.366  10.091
75349SOL    HW227887  10.175  11.265   9.993
75350SOL     OW27888   0.589   2.235  10.766
75350SOL    HW127889   0.641   2.314  10.782
75350SOL    HW227890   0.616   2.174  10.833
75351SOL     OW27891   7.301  14.305   6.155
75351SOL    HW127892   7.277  14.341   6.240
75351SOL    HW227893   7.337  14.379   6.107
75352SOL     OW27894   4.563   6.827   0.065
75352SOL    HW127895   4.602   6.914   0.067
75352SOL    HW227896   4.626   6.771   0.110
75353SOL     OW27897   3.407   1.466   1.912
75353SOL    HW127898   3.494   1.427   1.920
75353SOL    HW227899   3.415   1.551   1.956
75354SOL     OW27900   7.462  12.322   8.160
75354SOL    HW127901   7.554  12.317   8.186
75354SOL    HW227902   7.456  12.267   8.082
75355SOL     OW27903  10.013   4.043  14.247
75355SOL    HW127904   9.938   4.101  14.239
75355SOL    HW227905  10.061   4.075  14.323
75356SOL     OW27906  14.467   6.735   1.872
75356SOL    HW127907  14.515   6.657   1.899
75356SOL    HW227908  14.531   6.787   1.823
75357SOL     OW27909  13.018  11.520   6.701
75357SOL    HW127910  12.942  11.473   6.669
75357SOL    HW227911  13.061  11.459   6.761
75358SOL     OW27912   7.520   6.670  12.539
75358SOL    HW127913   7.557   6.597  12.588
75358SOL    HW227914   7.536   6.647  12.447
75359SOL     OW27915  10.388   2.342  12.862
75359SOL    HW127916  10.434   2.406  12.808
75359SOL    HW227917  10.325   2.393  12.912
75360SOL     OW27918   7.556   0.588   4.905
75360SOL    HW127919   7.568   0.610   4.813
75360SOL    HW227920   7.611   0.652   4.952
75361SOL     OW27921  11.561   2.462   3.341
75361SOL    HW127922  11.583   2.418   3.423
75361SOL    HW227923  11.546   2.391   3.279
75362SOL     OW27924   0.038   5.032  14.269
75362SOL    HW127925  14.853   5.106  14.290
75362SOL    HW227926  14.860   4.979  14.207
75363SOL     OW27927   3.495  11.898   8.387
75363SOL    HW127928   3.567  11.838   8.409
75363SOL    HW227929   3.479  11.883   8.293
75364SOL     OW27930  13.968   6.710   5.693
75364SOL    HW127931  13.976   6.654   5.770
75364SOL    HW227932  13.916   6.784   5.723
75365SOL     OW27933   1.989  10.448   3.973
75365SOL    HW127934   2.064  10.505   3.987
75365SOL    HW227935   2.015  10.364   4.011
75366SOL     OW27936  13.038   3.457   5.723
75366SOL    HW127937  13.080   3.520   5.782
75366SOL    HW227938  12.962   3.503   5.689
75367SOL     OW27939  14.621  14.740   3.061
75367SOL    HW127940  14.604  14.833   3.076
75367SOL    HW227941  14.590  14.725   2.971
75368SOL     OW27942   5.623  10.514   3.829
75368SOL    HW127943   5.650  10.606   3.833
75368SOL    HW227944   5.528  10.517   3.844
75369SOL     OW27945  12.744   9.157   4.646
75369SOL    HW127946  12.817   9.105   4.682
75369SOL    HW227947  12.683   9.092   4.613
75370SOL     OW27948   0.240   7.497   3.667
75370SOL    HW127949   0.221   7.404   3.656
75370SOL    HW227950   0.335   7.502   3.677
75371SOL     OW27951   0.385   5.950  11.646
75371SOL    HW127952   0.300   5.957  11.603
75371SOL    HW227953   0.424   5.870  11.611
75372SOL     OW27954  14.855   5.694   5.190
75372SOL    HW127955   0.013   5.609   5.221
75372SOL    HW227956  14.784   5.672   5.129
75373SOL     OW27957  13.649   2.423   4.969
75373SOL    HW127958  13.619   2.509   5.000
75373SOL    HW227959  13.577   2.392   4.914
75374SOL     OW27960   1.004  13.886   9.870
75374SOL    HW127961   0.956  13.881   9.787
75374SOL    HW227962   0.991  13.800   9.911
75375SOL     OW27963   2.798   7.755   8.769
75375SOL    HW127964   2.881   7.710   8.784
75375SOL    HW227965   2.745   7.734   8.846
75376SOL     OW27966  13.325   3.138  11.954
75376SOL    HW127967  13.397   3.182  11.909
75376SOL    HW227968  13.246   3.168  11.909
75377SOL     OW27969  14.374   7.759   6.711
75377SOL    HW127970  14.348   7.697   6.643
75377SOL    HW227971  14.317   7.835   6.697
75378SOL     OW27972   5.006   9.209  14.543
75378SOL    HW127973   4.965   9.125  14.522
75378SOL    HW227974   4.932   9.270  14.553
75379SOL     OW27975  12.483   2.653  12.623
75379SOL    HW127976  12.559   2.638  12.567
75379SOL    HW227977  12.420   2.698  12.567
75380SOL     OW27978  11.559   7.903   7.882
75380SOL    HW127979  11.596   7.826   7.926
75380SOL    HW227980  11.555   7.877   7.790
75381SOL     OW27981   7.178  13.732   7.252
75381SOL    HW127982   7.140  13.663   7.199
75381SOL    HW227983   7.240  13.686   7.309
75382SOL     OW27984  14.399   3.516  10.061
75382SOL    HW127985  14.344   3.560  10.127
75382SOL    HW227986  14.456   3.584  10.028
75383SOL     OW27987   4.408  10.442   5.947
75383SOL    HW127988   4.503  10.433   5.953
75383SOL    HW227989   4.394  10.535   5.928
75384SOL     OW27990   4.207  13.204  10.228
75384SOL    HW127991   4.165  13.263  10.166
75384SOL    HW227992   4.294  13.188  10.191
75385SOL     OW27993  12.414   2.393   6.091
75385SOL    HW127994  12.432   2.393   5.997
75385SOL    HW227995  12.369   2.310   6.108
75386SOL     OW27996   9.471  13.037  12.411
75386SOL    HW127997   9.463  12.953  12.366
75386SOL    HW227998   9.514  13.094  12.347
75387SOL     OW27999   2.853   5.609   9.036
75387SOL    HW128000   2.941   5.610   8.999
75387SOL    HW228001   2.854   5.678   9.102
75388SOL     OW28002  10.509  11.566   8.874
75388SOL    HW128003  10.425  11.607   8.894
75388SOL    HW228004  10.564  11.638   8.842
75389SOL     OW28005  12.962   8.995   3.711
75389SOL    HW128006  12.907   8.988   3.788
75389SOL    HW228007  13.000   8.908   3.700
75390SOL     OW28008   5.618   3.817  12.066
75390SOL    HW128009   5.556   3.889  12.076
75390SOL    HW228010   5.564   3.738  12.070
75391SOL     OW28011  14.840   2.259  10.561
75391SOL    HW128012  14.819   2.345  10.527
75391SOL    HW228013  14.837   2.201  10.484
75392SOL     OW28014   1.047  13.954  12.033
75392SOL    HW128015   1.050  13.864  12.065
75392SOL    HW228016   1.080  13.949  11.943
75393SOL     OW28017   7.577   3.520   8.454
75393SOL    HW128018   7.646   3.487   8.397
75393SOL    HW228019   7.593   3.614   8.460
75394SOL     OW28020  14.155   1.538   5.918
75394SOL    HW128021  14.070   1.496   5.910
75394SOL    HW228022  14.149   1.616   5.863
75395SOL     OW28023  11.699  11.734  11.139
75395SOL    HW128024  11.701  11.828  11.126
75395SOL    HW228025  11.691  11.697  11.051
75396SOL     OW28026   2.989   2.493  12.120
75396SOL    HW128027   2.917   2.516  12.060
75396SOL    HW228028   2.984   2.560  12.188
75397SOL     OW28029   5.492   0.291  11.264
75397SOL    HW128030   5.514   0.197  11.267
75397SOL    HW228031   5.517   0.324  11.350
75398SOL     OW28032   9.281  12.646  11.932
75398SOL    HW128033   9.251  12.622  11.844
75398SOL    HW228034   9.335  12.572  11.960
75399SOL     OW28035   6.696  13.762  11.897
75399SOL    HW128036   6.656  13.849  11.896
75399SOL    HW228037   6.779  13.774  11.943
75400SOL     OW28038  10.282   7.528  12.326
75400SOL    HW128039  10.219   7.599  12.339
75400SOL    HW228040  10.325   7.519  12.411
75401SOL     OW28041   9.285  13.986   3.933
75401SOL    HW128042   9.217  13.944   3.986
75401SOL    HW228043   9.296  14.072   3.972
75402SOL     OW28044   6.367   7.096   3.902
75402SOL    HW128045   6.434   7.118   3.966
75402SOL    HW228046   6.285   7.122   3.943
75403SOL     OW28047   4.932  11.259   9.705
75403SOL    HW128048   4.962  11.310   9.780
75403SOL    HW228049   4.883  11.321   9.652
75404SOL     OW28050   8.560   5.747  14.767
75404SOL    HW128051   8.632   5.773  14.709
75404SOL    HW228052   8.490   5.810  14.747
75405SOL     OW28053  13.425   3.299   5.250
75405SOL    HW128054  13.501   3.357   5.249
75405SOL    HW228055  13.350   3.358   5.250
75406SOL     OW28056   2.990   0.804  11.373
75406SOL    HW128057   3.072   0.854  11.371
75406SOL    HW228058   3.014   0.717  11.342
75407SOL     OW28059   1.100  11.956   6.730
75407SOL    HW128060   1.080  11.993   6.644
75407SOL    HW228061   1.192  11.975   6.744
75408SOL     OW28062  12.348   9.220   8.988
75408SOL    HW128063  12.415   9.289   8.984
75408SOL    HW228064  12.287   9.242   8.918
75409SOL     OW28065  12.178   8.469  13.627
75409SOL    HW128066  12.116   8.489  13.697
75409SOL    HW228067  12.210   8.554  13.598
75410SOL     OW28068   3.520   0.646   5.369
75410SOL    HW128069   3.566   0.720   5.328
75410SOL    HW228070   3.458   0.617   5.302
75411SOL     OW28071   7.219   6.884   6.886
75411SOL    HW128072   7.234   6.956   6.947
75411SOL    HW228073   7.306   6.847   6.870
75412SOL     OW28074   8.822   5.784   0.791
75412SOL    HW128075   8.746   5.731   0.815
75412SOL    HW228076   8.846   5.752   0.704
75413SOL     OW28077   3.053   1.821   4.503
75413SOL    HW128078   3.011   1.904   4.524
75413SOL    HW228079   3.136   1.845   4.462
75414SOL     OW28080   8.418   1.775   6.492
75414SOL    HW128081   8.412   1.738   6.580
75414SOL    HW228082   8.327   1.782   6.463
75415SOL     OW28083   7.137   2.811   0.031
75415SOL    HW128084   7.198   2.738   0.044
75415SOL    HW228085   7.173   2.859  14.829
75416SOL     OW28086   9.877   6.006   0.253
75416SOL    HW128087   9.918   5.929   0.293
75416SOL    HW228088   9.939   6.033   0.185
75417SOL     OW28089   4.907   4.167   8.365
75417SOL    HW128090   4.891   4.254   8.401
75417SOL    HW228091   4.927   4.113   8.441
75418SOL     OW28092   4.086  11.406   7.868
75418SOL    HW128093   4.169  11.359   7.852
75418SOL    HW228094   4.086  11.422   7.962
75419SOL     OW28095   2.970   8.029   3.185
75419SOL    HW128096   2.968   8.090   3.259
75419SOL    HW228097   2.903   8.061   3.125
75420SOL     OW28098   5.711   1.337   3.689
75420SOL    HW128099   5.763   1.290   3.755
75420SOL    HW228100   5.630   1.358   3.734
75421SOL     OW28101   9.162   4.494   8.410
75421SOL    HW128102   9.149   4.588   8.405
75421SOL    HW228103   9.253   4.480   8.383
75422SOL     OW28104   5.226   9.081   6.805
75422SOL    HW128105   5.139   9.099   6.769
75422SOL    HW228106   5.240   8.987   6.789
75423SOL     OW28107   6.596  14.830   1.846
75423SOL    HW128108   6.549  14.848   1.764
75423SOL    HW228109   6.615   0.044   1.882
75424SOL     OW28110   2.787  11.027   4.053
75424SOL    HW128111   2.815  10.943   4.088
75424SOL    HW228112   2.694  11.014   4.031
75425SOL     OW28113  10.976   2.464  10.048
75425SOL    HW128114  11.029   2.531  10.004
75425SOL    HW228115  10.888   2.503  10.052
75426SOL     OW28116  11.502  14.171   8.958
75426SOL    HW128117  11.570  14.235   8.940
75426SOL    HW228118  11.436  14.219   9.008
75427SOL     OW28119   3.188   8.533  14.762
75427SOL    HW128120   3.207   8.530  14.856
75427SOL    HW228121   3.171   8.626  14.744
75428SOL     OW28122   6.029  14.328  14.579
75428SOL    HW128123   6.010  14.265  14.648
75428SOL    HW228124   6.071  14.401  14.625
75429SOL     OW28125   2.052   2.418   1.840
75429SOL    HW128126   2.106   2.439   1.763
75429SOL    HW228127   2.036   2.502   1.882
75430SOL     OW28128  13.526   4.636   9.741
75430SOL    HW128129  13.431   4.629   9.732
75430SOL    HW228130  13.543   4.730   9.743
75431SOL     OW28131   6.734   3.936   2.798
75431SOL    HW128132   6.780   3.875   2.856
75431SOL    HW228133   6.781   3.929   2.714
75432SOL     OW28134   6.738  13.008   5.038
75432SOL    HW128135   6.830  13.035   5.038
75432SOL    HW228136   6.709  13.020   4.948
75433SOL     OW28137   6.496  10.493   1.701
75433SOL    HW128138   6.543  10.576   1.713
75433SOL    HW228139   6.471  10.493   1.609
75434SOL     OW28140   0.533   8.248   6.596
75434SOL    HW128141   0.477   8.198   6.536
75434SOL    HW228142   0.554   8.185   6.666
75435SOL     OW28143  14.340   0.199  12.172
75435SOL    HW128144  14.373   0.213  12.083
75435SOL    HW228145  14.419   0.184  12.224
75436SOL     OW28146  12.235   5.163   4.361
75436SOL    HW128147  12.239   5.203   4.274
75436SOL    HW228148  12.274   5.227   4.419
75437SOL     OW28149  12.370   2.893  11.211
75437SOL    HW128150  12.415   2.816  11.175
75437SOL    HW228151  12.311   2.857  11.277
75438SOL     OW28152   7.342   4.744   1.368
75438SOL    HW128153   7.291   4.792   1.434
75438SOL    HW228154   7.368   4.812   1.305
75439SOL     OW28155  11.367   9.623   9.655
75439SOL    HW128156  11.460   9.616   9.633
75439SOL    HW228157  11.329   9.675   9.584
75440SOL     OW28158   4.586   3.414   5.508
75440SOL    HW128159   4.592   3.458   5.423
75440SOL    HW228160   4.504   3.445   5.546
75441SOL     OW28161   3.810  11.600   0.537
75441SOL    HW128162   3.757  11.548   0.598
75441SOL    HW228163   3.899  11.593   0.571
75442SOL     OW28164   5.792  14.613  12.449
75442SOL    HW128165   5.738  14.686  12.421
75442SOL    HW228166   5.733  14.537  12.448
75443SOL     OW28167   4.880  10.331   6.438
75443SOL    HW128168   4.917  10.412   6.472
75443SOL    HW228169   4.786  10.337   6.457
75444SOL     OW28170   1.138  11.968   2.685
75444SOL    HW128171   1.096  11.882   2.679
75444SOL    HW228172   1.212  11.963   2.625
75445SOL     OW28173   2.896  11.849  13.771
75445SOL    HW128174   2.884  11.774  13.830
75445SOL    HW228175   2.929  11.919  13.827
75446SOL     OW28176   7.662   9.179   1.762
75446SOL    HW128177   7.605   9.255   1.763
75446SOL    HW228178   7.646   9.137   1.847
75447SOL     OW28179   2.319   8.775   0.588
75447SOL    HW128180   2.365   8.691   0.601
75447SOL    HW228181   2.345   8.803   0.501
75448SOL     OW28182   2.566   5.773   7.698
75448SOL    HW128183   2.493   5.815   7.653
75448SOL    HW228184   2.641   5.787   7.640
75449SOL     OW28185  13.706  11.062  11.981
75449SOL    HW128186  13.611  11.069  11.993
75449SOL    HW228187  13.717  11.046  11.887
75450SOL     OW28188   0.452   4.408   3.972
75450SOL    HW128189   0.544   4.392   3.995
75450SOL    HW228190   0.438   4.500   3.995
75451SOL     OW28191   4.785   7.099   9.777
75451SOL    HW128192   4.815   7.170   9.834
75451SOL    HW228193   4.703   7.069   9.817
75452SOL     OW28194  14.090   7.461  13.307
75452SOL    HW128195  14.050   7.414  13.380
75452SOL    HW228196  14.181   7.429  13.305
75453SOL     OW28197   1.243   8.147   3.763
75453SOL    HW128198   1.275   8.173   3.849
75453SOL    HW228199   1.180   8.077   3.781
75454SOL     OW28200  14.598  13.534   9.117
75454SOL    HW128201  14.673  13.475   9.120
75454SOL    HW228202  14.599  13.580   9.201
75455SOL     OW28203  14.065   4.413   2.301
75455SOL    HW128204  14.033   4.326   2.277
75455SOL    HW228205  14.054   4.417   2.396
75456SOL     OW28206   0.475  11.269   2.788
75456SOL    HW128207   0.404  11.274   2.853
75456SOL    HW228208   0.454  11.191   2.736
75457SOL     OW28209  13.117   9.307   0.336
75457SOL    HW128210  13.198   9.359   0.334
75457SOL    HW228211  13.145   9.220   0.365
75458SOL     OW28212  11.604   1.047  11.753
75458SOL    HW128213  11.544   1.119  11.772
75458SOL    HW228214  11.549   0.980  11.711
75459SOL     OW28215   8.075  14.829   5.776
75459SOL    HW128216   8.167  14.844   5.799
75459SOL    HW228217   8.043  14.769   5.842
75460SOL     OW28218  14.338   0.115   3.736
75460SOL    HW128219  14.394   0.121   3.813
75460SOL    HW228220  14.384   0.164   3.669
75461SOL     OW28221   1.857  14.521  10.307
75461SOL    HW128222   1.791  14.581  10.343
75461SOL    HW228223   1.845  14.526  10.212
75462SOL     OW28224   5.488   4.639  14.682
75462SOL    HW128225   5.546   4.563  14.672
75462SOL    HW228226   5.477   4.648  14.777
75463SOL     OW28227   3.253  14.062   0.476
75463SOL    HW128228   3.294  14.000   0.415
75463SOL    HW228229   3.241  14.142   0.425
75464SOL     OW28230  12.353   9.692   3.713
75464SOL    HW128231  12.418   9.700   3.782
75464SOL    HW228232  12.392   9.633   3.649
75465SOL     OW28233   5.678  13.356   2.588
75465SOL    HW128234   5.596  13.402   2.568
75465SOL    HW228235   5.746  13.422   2.576
75466SOL     OW28236  13.118  10.747  13.995
75466SOL    HW128237  13.138  10.825  13.943
75466SOL    HW228238  13.135  10.673  13.936
75467SOL     OW28239   0.504   9.117   5.857
75467SOL    HW128240   0.565   9.046   5.836
75467SOL    HW228241   0.433   9.108   5.793
75468SOL     OW28242   6.501   7.680   5.237
75468SOL    HW128243   6.521   7.730   5.158
75468SOL    HW228244   6.586   7.652   5.270
75469SOL     OW28245   3.629   6.228   4.219
75469SOL    HW128246   3.568   6.154   4.214
75469SOL    HW228247   3.695   6.200   4.282
75470SOL     OW28248  13.643  10.182   2.953
75470SOL    HW128249  13.710  10.123   2.986
75470SOL    HW228250  13.602  10.219   3.032
75471SOL     OW28251   2.185   1.360   7.824
75471SOL    HW128252   2.123   1.427   7.852
75471SOL    HW228253   2.136   1.305   7.763
75472SOL     OW28254   4.984  14.385  12.176
75472SOL    HW128255   4.896  14.418  12.195
75472SOL    HW228256   5.014  14.439  12.103
75473SOL     OW28257   4.702   0.270   7.252
75473SOL    HW128258   4.674   0.360   7.234
75473SOL    HW228259   4.740   0.240   7.169
75474SOL     OW28260   7.328   5.596   6.203
75474SOL    HW128261   7.376   5.605   6.121
75474SOL    HW228262   7.255   5.657   6.195
75475SOL     OW28263   0.630   7.676   8.540
75475SOL    HW128264   0.579   7.664   8.459
75475SOL    HW228265   0.610   7.599   8.593
75476SOL     OW28266   2.928  13.125   7.623
75476SOL    HW128267   2.998  13.072   7.584
75476SOL    HW228268   2.897  13.073   7.697
75477SOL     OW28269  12.814   5.408  13.748
75477SOL    HW128270  12.763   5.327  13.742
75477SOL    HW228271  12.857   5.403  13.833
75478SOL     OW28272   8.869   4.445  11.842
75478SOL    HW128273   8.928   4.390  11.790
75478SOL    HW228274   8.782   4.424  11.809
75479SOL     OW28275  14.622  14.107   0.389
75479SOL    HW128276  14.660  14.152   0.314
75479SOL    HW228277  14.614  14.174   0.456
75480SOL     OW28278   3.660  12.903  10.322
75480SOL    HW128279   3.628  12.955  10.396
75480SOL    HW228280   3.745  12.870  10.351
75481SOL     OW28281  10.602   5.415   4.653
75481SOL    HW128282  10.674   5.402   4.592
75481SOL    HW228283  10.565   5.328   4.666
75482SOL     OW28284  11.313   1.282   9.011
75482SOL    HW128285  11.353   1.294   8.925
75482SOL    HW228286  11.352   1.350   9.066
75483SOL     OW28287   2.893   9.883   0.858
75483SOL    HW128288   2.953   9.841   0.797
75483SOL    HW228289   2.814   9.900   0.807
75484SOL     OW28290   7.610   7.597   6.699
75484SOL    HW128291   7.660   7.516   6.688
75484SOL    HW228292   7.671   7.658   6.741
75485SOL     OW28293  13.633   5.373   5.957
75485SOL    HW128294  13.600   5.444   6.013
75485SOL    HW228295  13.610   5.293   6.004
75486SOL     OW28296   5.709   9.583   1.151
75486SOL    HW128297   5.629   9.556   1.106
75486SOL    HW228298   5.780   9.547   1.098
75487SOL     OW28299   0.228   2.204   4.217
75487SOL    HW128300   0.225   2.217   4.312
75487SOL    HW228301   0.309   2.154   4.203
75488SOL     OW28302   5.664   1.883  10.392
75488SOL    HW128303   5.725   1.832  10.444
75488SOL    HW228304   5.599   1.819  10.361
75489SOL     OW28305   9.064   1.592   4.894
75489SOL    HW128306   9.053   1.521   4.958
75489SOL    HW228307   9.000   1.658   4.919
75490SOL     OW28308  13.394   9.232   5.749
75490SOL    HW128309  13.410   9.215   5.842
75490SOL    HW228310  13.327   9.301   5.749
75491SOL     OW28311  10.860   2.733  11.166
75491SOL    HW128312  10.842   2.642  11.191
75491SOL    HW228313  10.824   2.785  11.237
75492SOL     OW28314   2.298  14.172   5.438
75492SOL    HW128315   2.292  14.077   5.427
75492SOL    HW228316   2.208  14.199   5.457
75493SOL     OW28317  10.424   9.964   8.692
75493SOL    HW128318  10.516   9.959   8.668
75493SOL    HW228319  10.408   9.886   8.745
75494SOL     OW28320  10.256  12.294   6.960
75494SOL    HW128321  10.336  12.261   6.920
75494SOL    HW228322  10.221  12.220   7.010
75495SOL     OW28323   5.798  12.337  14.294
75495SOL    HW128324   5.843  12.380  14.221
75495SOL    HW228325   5.868  12.292  14.341
75496SOL     OW28326   9.468  14.293  10.113
75496SOL    HW128327   9.376  14.320  10.105
75496SOL    HW228328   9.465  14.201  10.136
75497SOL     OW28329   0.336  10.732   2.395
75497SOL    HW128330   0.376  10.808   2.438
75497SOL    HW228331   0.322  10.669   2.466
75498SOL     OW28332   6.280   6.081   0.764
75498SOL    HW128333   6.264   6.175   0.771
75498SOL    HW228334   6.374   6.074   0.749
75499SOL     OW28335  14.304   9.459  10.974
75499SOL    HW128336  14.356   9.450  10.894
75499SOL    HW228337  14.243   9.385  10.971
75500SOL     OW28338   9.624   5.182  12.573
75500SOL    HW128339   9.532   5.173  12.549
75500SOL    HW228340   9.633   5.130  12.653
75501SOL     OW28341   7.636  10.403   3.755
75501SOL    HW128342   7.560  10.432   3.805
75501SOL    HW228343   7.694  10.363   3.820
75502SOL     OW28344  10.052  12.601   9.759
75502SOL    HW128345   9.985  12.667   9.739
75502SOL    HW228346  10.037  12.579   9.851
75503SOL     OW28347   1.935  12.228  12.137
75503SOL    HW128348   1.985  12.164  12.087
75503SOL    HW228349   1.852  12.185  12.156
75504SOL     OW28350   6.025  12.553   8.916
75504SOL    HW128351   6.101  12.513   8.874
75504SOL    HW228352   5.950  12.511   8.874
75505SOL     OW28353   3.445   9.113   1.105
75505SOL    HW128354   3.463   9.078   1.017
75505SOL    HW228355   3.529   9.110   1.150
75506SOL     OW28356  10.221   9.722   9.476
75506SOL    HW128357  10.154   9.773   9.430
75506SOL    HW228358  10.225   9.639   9.428
75507SOL     OW28359  10.595   3.444  13.103
75507SOL    HW128360  10.516   3.412  13.060
75507SOL    HW228361  10.665   3.387  13.068
75508SOL     OW28362  14.483  12.256   2.866
75508SOL    HW128363  14.474  12.192   2.796
75508SOL    HW228364  14.574  12.249   2.894
75509SOL     OW28365   9.873   1.727   9.920
75509SOL    HW128366   9.894   1.803   9.975
75509SOL    HW228367   9.955   1.705   9.877
75510SOL     OW28368   1.783   5.824  14.341
75510SOL    HW128369   1.718   5.856  14.404
75510SOL    HW228370   1.756   5.861  14.257
75511SOL     OW28371   9.984   5.330   0.824
75511SOL    HW128372   9.929   5.374   0.760
75511SOL    HW228373  10.041   5.399   0.859
75512SOL     OW28374   4.452  11.623   0.747
75512SOL    HW128375   4.459  11.637   0.841
75512SOL    HW228376   4.359  11.637   0.728
75513SOL     OW28377  13.072   9.375   4.054
75513SOL    HW128378  13.149   9.351   4.004
75513SOL    HW228379  13.001   9.325   4.013
75514SOL     OW28380  14.071   1.620   8.015
75514SOL    HW128381  14.019   1.562   8.070
75514SOL    HW228382  14.014   1.640   7.940
75515SOL     OW28383   7.249   0.440   2.247
75515SOL    HW128384   7.288   0.432   2.335
75515SOL    HW228385   7.302   0.506   2.203
75516SOL     OW28386   3.919  11.178  10.406
75516SOL    HW128387   3.960  11.211  10.325
75516SOL    HW228388   3.959  11.092  10.419
75517SOL     OW28389   9.634   0.063  11.091
75517SOL    HW128390   9.543   0.093  11.084
75517SOL    HW228391   9.667   0.067  11.002
75518SOL     OW28392   4.988   3.557   9.997
75518SOL    HW128393   5.006   3.647  10.025
75518SOL    HW228394   5.008   3.556   9.904
75519SOL     OW28395   4.606  10.624  11.354
75519SOL    HW128396   4.588  10.718  11.354
75519SOL    HW228397   4.530  10.585  11.312
75520SOL     OW28398   9.550   1.778   6.572
75520SOL    HW128399   9.597   1.816   6.498
75520SOL    HW228400   9.596   1.811   6.649
75521SOL     OW28401   5.289   3.075   8.099
75521SOL    HW128402   5.336   2.992   8.111
75521SOL    HW228403   5.345   3.140   8.141
75522SOL     OW28404   0.171  13.584  10.181
75522SOL    HW128405   0.192  13.675  10.202
75522SOL    HW228406   0.254  13.545  10.155
75523SOL     OW28407   6.119  10.154   0.848
75523SOL    HW128408   6.158  10.156   0.761
75523SOL    HW228409   6.028  10.126   0.833
75524SOL     OW28410   2.101   7.811   8.972
75524SOL    HW128411   2.177   7.869   8.977
75524SOL    HW228412   2.135   7.729   8.936
75525SOL     OW28413   5.561   2.225   2.361
75525SOL    HW128414   5.533   2.234   2.270
75525SOL    HW228415   5.615   2.302   2.377
75526SOL     OW28416   1.830  13.870  13.911
75526SOL    HW128417   1.855  13.919  13.833
75526SOL    HW228418   1.772  13.802  13.879
75527SOL     OW28419   0.038  13.197   0.495
75527SOL    HW128420   0.009  13.262   0.431
75527SOL    HW228421   0.100  13.143   0.447
75528SOL     OW28422  12.747   6.093   5.561
75528SOL    HW128423  12.729   6.151   5.635
75528SOL    HW228424  12.735   6.005   5.596
75529SOL     OW28425  10.753   3.887  13.133
75529SOL    HW128426  10.681   3.826  13.118
75529SOL    HW228427  10.820   3.862  13.070
75530SOL     OW28428  14.477  13.555  11.228
75530SOL    HW128429  14.555  13.505  11.252
75530SOL    HW228430  14.436  13.578  11.311
75531SOL     OW28431   7.655   3.867   8.177
75531SOL    HW128432   7.732   3.920   8.200
75531SOL    HW228433   7.680   3.822   8.097
75532SOL     OW28434   3.126   3.975   7.288
75532SOL    HW128435   3.200   3.933   7.243
75532SOL    HW228436   3.060   3.984   7.219
75533SOL     OW28437   7.154  12.079   7.251
75533SOL    HW128438   7.210  12.021   7.201
75533SOL    HW228439   7.213  12.123   7.313
75534SOL     OW28440   5.735   0.547   0.302
75534SOL    HW128441   5.803   0.597   0.348
75534SOL    HW228442   5.654   0.594   0.322
75535SOL     OW28443   2.524   5.573   5.133
75535SOL    HW128444   2.554   5.631   5.062
75535SOL    HW228445   2.515   5.488   5.091
75536SOL     OW28446   5.816   7.175   1.228
75536SOL    HW128447   5.905   7.205   1.212
75536SOL    HW228448   5.766   7.254   1.247
75537SOL     OW28449   7.524   6.660   4.445
75537SOL    HW128450   7.537   6.566   4.462
75537SOL    HW228451   7.429   6.669   4.435
75538SOL     OW28452  14.864   8.973   3.748
75538SOL    HW128453  14.793   9.035   3.733
75538SOL    HW228454   0.056   9.022   3.798
75539SOL     OW28455  13.412   2.566  14.296
75539SOL    HW128456  13.347   2.497  14.309
75539SOL    HW228457  13.363   2.647  14.309
75540SOL     OW28458   4.867   7.869  11.140
75540SOL    HW128459   4.932   7.930  11.104
75540SOL    HW228460   4.783   7.899  11.104
75541SOL     OW28461   7.613   0.897   0.080
75541SOL    HW128462   7.633   0.804   0.081
75541SOL    HW228463   7.518   0.902   0.067
75542SOL     OW28464  10.253   6.839   1.835
75542SOL    HW128465  10.269   6.852   1.741
75542SOL    HW228466  10.307   6.764   1.859
75543SOL     OW28467   6.464   0.083   7.318
75543SOL    HW128468   6.456   0.098   7.412
75543SOL    HW228469   6.549   0.119   7.294
75544SOL     OW28470  11.515  10.089   4.711
75544SOL    HW128471  11.567  10.093   4.791
75544SOL    HW228472  11.490   9.996   4.704
75545SOL     OW28473   2.230   8.580   1.430
75545SOL    HW128474   2.278   8.519   1.374
75545SOL    HW228475   2.293   8.650   1.449
75546SOL     OW28476   8.545  12.178   6.010
75546SOL    HW128477   8.603  12.102   6.022
75546SOL    HW228478   8.526  12.178   5.916
75547SOL     OW28479   9.757   9.409   0.861
75547SOL    HW128480   9.739   9.318   0.886
75547SOL    HW228481   9.673   9.443   0.832
75548SOL     OW28482  10.418  10.311  12.787
75548SOL    HW128483  10.358  10.265  12.728
75548SOL    HW228484  10.367  10.384  12.822
75549SOL     OW28485  12.192   6.250   7.763
75549SOL    HW128486  12.167   6.227   7.673
75549SOL    HW228487  12.203   6.165   7.807
75550SOL     OW28488   6.828   2.732   8.577
75550SOL    HW128489   6.872   2.786   8.643
75550SOL    HW228490   6.812   2.792   8.505
75551SOL     OW28491  12.226   2.005  10.048
75551SOL    HW128492  12.296   2.010  10.113
75551SOL    HW228493  12.221   2.093  10.011
75552SOL     OW28494   0.713   5.108  10.105
75552SOL    HW128495   0.706   5.021  10.064
75552SOL    HW228496   0.631   5.152  10.082
75553SOL     OW28497   0.314   4.030   9.117
75553SOL    HW128498   0.320   4.033   9.021
75553SOL    HW228499   0.324   3.938   9.139
75554SOL     OW28500   1.325  14.270   0.411
75554SOL    HW128501   1.384  14.200   0.382
75554SOL    HW228502   1.382  14.346   0.421
75555SOL     OW28503   6.390   4.698   4.025
75555SOL    HW128504   6.303   4.715   4.062
75555SOL    HW228505   6.430   4.637   4.087
75556SOL     OW28506   9.857   4.586   6.153
75556SOL    HW128507   9.921   4.565   6.221
75556SOL    HW228508   9.773   4.559   6.190
75557SOL     OW28509   2.182  10.043   5.008
75557SOL    HW128510   2.177  10.085   4.923
75557SOL    HW228511   2.202  10.114   5.069
75558SOL     OW28512   4.843  13.863   1.534
75558SOL    HW128513   4.806  13.893   1.617
75558SOL    HW228514   4.777  13.806   1.496
75559SOL     OW28515   8.061   2.061   4.226
75559SOL    HW128516   8.032   2.107   4.304
75559SOL    HW228517   8.037   2.119   4.154
75560SOL     OW28518   8.678  12.213   0.439
75560SOL    HW128519   8.623  12.271   0.492
75560SOL    HW228520   8.667  12.127   0.479
75561SOL     OW28521  14.541   9.339   1.297
75561SOL    HW128522  14.565   9.316   1.387
75561SOL    HW228523  14.624   9.357   1.253
75562SOL     OW28524   6.232   5.074   8.289
75562SOL    HW128525   6.306   5.130   8.312
75562SOL    HW228526   6.269   5.010   8.229
75563SOL     OW28527   3.499   2.679   7.433
75563SOL    HW128528   3.572   2.740   7.429
75563SOL    HW228529   3.539   2.593   7.445
75564SOL     OW28530   1.967   1.290   2.514
75564SOL    HW128531   1.885   1.245   2.535
75564SOL    HW228532   1.940   1.375   2.478
75565SOL     OW28533  10.248  10.852   5.629
75565SOL    HW128534  10.322  10.904   5.600
75565SOL    HW228535  10.180  10.868   5.564
75566SOL     OW28536   1.349   1.539   5.419
75566SOL    HW128537   1.341   1.606   5.351
75566SOL    HW228538   1.291   1.569   5.489
75567SOL     OW28539   2.820  13.697   3.647
75567SOL    HW128540   2.866  13.661   3.723
75567SOL    HW228541   2.739  13.734   3.683
75568SOL     OW28542   7.006   3.605  10.752
75568SOL    HW128543   6.962   3.535  10.704
75568SOL    HW228544   7.006   3.679  10.692
75569SOL     OW28545   4.605   1.952   4.742
75569SOL    HW128546   4.542   1.964   4.813
75569SOL    HW228547   4.638   2.040   4.724
75570SOL     OW28548  14.587   7.145   4.865
75570SOL    HW128549  14.627   7.065   4.830
75570SOL    HW228550  14.656   7.211   4.859
75571SOL     OW28551   2.265  13.976   2.585
75571SOL    HW128552   2.251  14.066   2.555
75571SOL    HW228553   2.234  13.922   2.513
75572SOL     OW28554  14.434   6.015   9.337
75572SOL    HW128555  14.481   6.043   9.258
75572SOL    HW228556  14.461   5.923   9.349
75573SOL     OW28557   1.944   5.914   0.347
75573SOL    HW128558   1.950   5.878   0.435
75573SOL    HW228559   1.866   5.873   0.309
75574SOL     OW28560  13.656   7.898   8.399
75574SOL    HW128561  13.714   7.935   8.333
75574SOL    HW228562  13.568   7.925   8.373
75575SOL     OW28563   4.129   8.220   5.711
75575SOL    HW128564   4.215   8.200   5.676
75575SOL    HW228565   4.099   8.296   5.661
75576SOL     OW28566   8.981  10.165   7.343
75576SOL    HW128567   9.064  10.170   7.295
75576SOL    HW228568   8.938  10.087   7.310
75577SOL     OW28569   2.857  10.167   9.985
75577SOL    HW128570   2.952  10.181   9.979
75577SOL    HW228571   2.835  10.121   9.904
75578SOL     OW28572  11.922   6.551  10.561
75578SOL    HW128573  11.942   6.620  10.497
75578SOL    HW228574  11.841   6.512  10.529
75579SOL     OW28575   8.268   0.182   8.456
75579SOL    HW128576   8.260   0.087   8.464
75579SOL    HW228577   8.215   0.217   8.528
75580SOL     OW28578  10.749   1.386   6.230
75580SOL    HW128579  10.788   1.434   6.157
75580SOL    HW228580  10.725   1.455   6.293
75581SOL     OW28581   0.744  12.635  10.038
75581SOL    HW128582   0.743  12.542  10.060
75581SOL    HW228583   0.663  12.670  10.074
75582SOL     OW28584   0.607   7.088  12.377
75582SOL    HW128585   0.630   7.173  12.341
75582SOL    HW228586   0.624   7.026  12.305
75583SOL     OW28587  10.315  10.444   2.062
75583SOL    HW128588  10.406  10.417   2.070
75583SOL    HW228589  10.312  10.532   2.098
75584SOL     OW28590  10.438   8.236  13.922
75584SOL    HW128591  10.427   8.197  13.836
75584SOL    HW228592  10.533   8.250  13.930
75585SOL     OW28593   6.902   1.576  10.351
75585SOL    HW128594   6.965   1.505  10.367
75585SOL    HW228595   6.818   1.532  10.340
75586SOL     OW28596   2.245  12.761   7.893
75586SOL    HW128597   2.162  12.804   7.871
75586SOL    HW228598   2.252  12.771   7.988
75587SOL     OW28599   0.289  11.723   8.259
75587SOL    HW128600   0.237  11.677   8.193
75587SOL    HW228601   0.357  11.769   8.209
75588SOL     OW28602  13.692   9.505   9.536
75588SOL    HW128603  13.764   9.454   9.498
75588SOL    HW228604  13.649   9.546   9.461
75589SOL     OW28605  10.999  14.539  10.340
75589SOL    HW128606  10.983  14.563  10.249
75589SOL    HW228607  10.948  14.603  10.391
75590SOL     OW28608  14.852  10.664   3.817
75590SOL    HW128609  14.852  10.760   3.810
75590SOL    HW228610  14.810  10.635   3.736
75591SOL     OW28611   1.518  12.104   0.093
75591SOL    HW128612   1.574  12.035   0.057
75591SOL    HW228613   1.501  12.162   0.020
75592SOL     OW28614   1.633  13.463   6.921
75592SOL    HW128615   1.557  13.438   6.974
75592SOL    HW228616   1.596  13.515   6.849
75593SOL     OW28617   1.572  11.439   2.218
75593SOL    HW128618   1.549  11.531   2.205
75593SOL    HW228619   1.530  11.415   2.300
75594SOL     OW28620   5.496   4.410   3.232
75594SOL    HW128621   5.537   4.478   3.285
75594SOL    HW228622   5.409   4.400   3.270
75595SOL     OW28623   6.911   2.954   6.286
75595SOL    HW128624   6.995   2.957   6.240
75595SOL    HW228625   6.891   3.046   6.305
75596SOL     OW28626   1.460  10.264   5.134
75596SOL    HW128627   1.521  10.214   5.188
75596SOL    HW228628   1.392  10.291   5.195
75597SOL     OW28629   7.875   8.543   7.307
75597SOL    HW128630   7.935   8.617   7.312
75597SOL    HW228631   7.910   8.489   7.236
75598SOL     OW28632  14.793  12.266   8.719
75598SOL    HW128633  14.808  12.185   8.670
75598SOL    HW228634  14.775  12.332   8.652
75599SOL     OW28635   1.536   5.753   6.869
75599SOL    HW128636   1.619   5.712   6.842
75599SOL    HW228637   1.471   5.684   6.857
75600SOL     OW28638  11.744   1.223   7.174
75600SOL    HW128639  11.668   1.168   7.153
75600SOL    HW228640  11.814   1.161   7.193
75601SOL     OW28641   1.011   6.937   6.358
75601SOL    HW128642   1.027   6.906   6.269
75601SOL    HW228643   0.975   7.025   6.346
75602SOL     OW28644   4.028   2.406   5.492
75602SOL    HW128645   4.061   2.490   5.462
75602SOL    HW228646   4.048   2.405   5.586
75603SOL     OW28647   1.626   1.774   0.469
75603SOL    HW128648   1.607   1.828   0.392
75603SOL    HW228649   1.594   1.825   0.543
75604SOL     OW28650   5.548  11.045   2.993
75604SOL    HW128651   5.498  10.990   2.933
75604SOL    HW228652   5.505  11.031   3.078
75605SOL     OW28653  12.379  14.726  12.742
75605SOL    HW128654  12.359  14.798  12.683
75605SOL    HW228655  12.305  14.723  12.803
75606SOL     OW28656   8.682   3.665   8.619
75606SOL    HW128657   8.703   3.743   8.569
75606SOL    HW228658   8.754   3.657   8.682
75607SOL     OW28659   7.556   0.640   8.167
75607SOL    HW128660   7.491   0.703   8.199
75607SOL    HW228661   7.510   0.594   8.096
75608SOL     OW28662   2.995   6.940   1.862
75608SOL    HW128663   2.900   6.946   1.854
75608SOL    HW228664   3.011   6.848   1.884
75609SOL     OW28665   1.538  12.010   2.513
75609SOL    HW128666   1.479  11.968   2.575
75609SOL    HW228667   1.565  12.091   2.557
75610SOL     OW28668   9.755   4.817   0.614
75610SOL    HW128669   9.835   4.824   0.667
75610SOL    HW228670   9.687   4.855   0.669
75611SOL     OW28671   8.355   9.383   7.995
75611SOL    HW128672   8.285   9.332   7.954
75611SOL    HW228673   8.309   9.452   8.042
75612SOL     OW28674   9.275  11.892   2.872
75612SOL    HW128675   9.320  11.959   2.819
75612SOL    HW228676   9.192  11.933   2.896
75613SOL     OW28677   9.388   3.716  12.233
75613SOL    HW128678   9.444   3.668  12.293
75613SOL    HW228679   9.439   3.793  12.209
75614SOL     OW28680   9.278   4.726   8.623
75614SOL    HW128681   9.262   4.748   8.531
75614SOL    HW228682   9.307   4.808   8.662
75615SOL     OW28683   8.404   8.141   6.516
75615SOL    HW128684   8.345   8.067   6.499
75615SOL    HW228685   8.387   8.165   6.607
75616SOL     OW28686   7.337   4.761   6.310
75616SOL    HW128687   7.398   4.734   6.378
75616SOL    HW228688   7.333   4.857   6.318
75617SOL     OW28689   2.731   2.263   0.506
75617SOL    HW128690   2.635   2.262   0.515
75617SOL    HW228691   2.763   2.234   0.591
75618SOL     OW28692  11.961  13.559   5.717
75618SOL    HW128693  11.970  13.535   5.810
75618SOL    HW228694  12.044  13.602   5.696
75619SOL     OW28695   0.345   0.293   4.900
75619SOL    HW128696   0.256   0.270   4.926
75619SOL    HW228697   0.378   0.348   4.971
75620SOL     OW28698   2.737   6.894  10.448
75620SOL    HW128699   2.765   6.830  10.382
75620SOL    HW228700   2.685   6.843  10.510
75621SOL     OW28701   8.642   5.475   1.371
75621SOL    HW128702   8.683   5.502   1.453
75621SOL    HW228703   8.710   5.426   1.325
75622SOL     OW28704   5.192  11.541   6.649
75622SOL    HW128705   5.108  11.521   6.690
75622SOL    HW228706   5.243  11.585   6.718
75623SOL     OW28707  13.239  10.675  12.582
75623SOL    HW128708  13.305  10.744  12.585
75623SOL    HW228709  13.204  10.670  12.670
75624SOL     OW28710  10.045   1.677  12.725
75624SOL    HW128711  10.000   1.667  12.809
75624SOL    HW228712  10.138   1.677  12.747
75625SOL     OW28713   9.778  12.236   7.815
75625SOL    HW128714   9.770  12.197   7.728
75625SOL    HW228715   9.844  12.304   7.805
75626SOL     OW28716   5.603   1.193   3.334
75626SOL    HW128717   5.643   1.149   3.409
75626SOL    HW228718   5.673   1.197   3.268
75627SOL     OW28719   4.122  14.531   4.938
75627SOL    HW128720   4.205  14.572   4.912
75627SOL    HW228721   4.092  14.583   5.013
75628SOL     OW28722   3.025   3.373  11.780
75628SOL    HW128723   2.939   3.391  11.742
75628SOL    HW228724   3.083   3.435  11.737
75629SOL     OW28725   3.454   3.788  11.370
75629SOL    HW128726   3.529   3.837  11.335
75629SOL    HW228727   3.433   3.725  11.301
75630SOL     OW28728  14.479  12.392   1.295
75630SOL    HW128729  14.415  12.331   1.330
75630SOL    HW228730  14.432  12.441   1.228
75631SOL     OW28731   1.603  12.802  14.536
75631SOL    HW128732   1.528  12.803  14.596
75631SOL    HW228733   1.669  12.750  14.582
75632SOL     OW28734   2.974   5.757   1.858
75632SOL    HW128735   2.985   5.772   1.764
75632SOL    HW228736   3.058   5.721   1.887
75633SOL     OW28737   5.495   3.973   1.086
75633SOL    HW128738   5.454   4.051   1.123
75633SOL    HW228739   5.584   3.974   1.122
75634SOL     OW28740   6.145   2.365  14.161
75634SOL    HW128741   6.122   2.375  14.069
75634SOL    HW228742   6.235   2.398  14.166
75635SOL     OW28743   8.668  11.797   2.777
75635SOL    HW128744   8.584  11.766   2.743
75635SOL    HW228745   8.731  11.731   2.748
75636SOL     OW28746   5.200   5.684   7.221
75636SOL    HW128747   5.209   5.592   7.246
75636SOL    HW228748   5.164   5.682   7.133
75637SOL     OW28749   1.373  10.442   1.033
75637SOL    HW128750   1.455  10.414   0.993
75637SOL    HW228751   1.315  10.458   0.958
75638SOL     OW28752  13.644   5.227   1.868
75638SOL    HW128753  13.678   5.290   1.805
75638SOL    HW228754  13.551   5.247   1.875
75639SOL     OW28755  11.163  13.989   3.094
75639SOL    HW128756  11.236  13.929   3.083
75639SOL    HW228757  11.165  14.012   3.187
75640SOL     OW28758  14.582  14.705  12.240
75640SOL    HW128759  14.496  14.663  12.246
75640SOL    HW228760  14.616  14.676  12.155
75641SOL     OW28761   4.364  12.098   0.219
75641SOL    HW128762   4.332  12.092   0.309
75641SOL    HW228763   4.379  12.192   0.205
75642SOL     OW28764  13.645  12.541   6.904
75642SOL    HW128765  13.601  12.505   6.827
75642SOL    HW228766  13.626  12.478   6.974
75643SOL     OW28767   0.280   4.334  10.577
75643SOL    HW128768   0.343   4.323  10.506
75643SOL    HW228769   0.335   4.348  10.655
75644SOL     OW28770  10.813   5.419   6.637
75644SOL    HW128771  10.777   5.371   6.712
75644SOL    HW228772  10.823   5.508   6.669
75645SOL     OW28773  10.797   2.486   4.808
75645SOL    HW128774  10.791   2.578   4.834
75645SOL    HW228775  10.842   2.488   4.723
75646SOL     OW28776   4.454  13.165   5.007
75646SOL    HW128777   4.473  13.256   5.032
75646SOL    HW228778   4.512  13.147   4.934
75647SOL     OW28779   3.166   3.477  13.136
75647SOL    HW128780   3.158   3.400  13.079
75647SOL    HW228781   3.192   3.441  13.221
75648SOL     OW28782  14.737  12.607  14.823
75648SOL    HW128783  14.646  12.629  14.804
75648SOL    HW228784  14.741  12.603   0.045
75649SOL     OW28785   8.393   6.021   4.168
75649SOL    HW128786   8.447   6.029   4.246
75649SOL    HW228787   8.416   5.935   4.131
75650SOL     OW28788  11.788   3.407  12.425
75650SOL    HW128789  11.693   3.410  12.417
75650SOL    HW228790  11.820   3.416  12.335
75651SOL     OW28791   5.567   3.581  14.690
75651SOL    HW128792   5.556   3.562  14.597
75651SOL    HW228793   5.552   3.496  14.733
75652SOL     OW28794   0.579   5.358   8.144
75652SOL    HW128795   0.592   5.452   8.139
75652SOL    HW228796   0.493   5.343   8.106
75653SOL     OW28797  13.409   0.263   1.984
75653SOL    HW128798  13.484   0.262   2.044
75653SOL    HW228799  13.418   0.346   1.937
75654SOL     OW28800   3.423  10.478   8.464
75654SOL    HW128801   3.491  10.435   8.412
75654SOL    HW228802   3.459  10.482   8.552
75655SOL     OW28803   5.544   3.024   1.170
75655SOL    HW128804   5.616   2.974   1.208
75655SOL    HW228805   5.482   3.036   1.242
75656SOL     OW28806   5.623  14.017   9.152
75656SOL    HW128807   5.700  13.961   9.143
75656SOL    HW228808   5.656  14.097   9.193
75657SOL     OW28809   1.783   0.071   0.009
75657SOL    HW128810   1.878   0.077  14.873
75657SOL    HW228811   1.763  14.852  14.865
75658SOL     OW28812   1.293   1.000  14.649
75658SOL    HW128813   1.254   1.056  14.715
75658SOL    HW228814   1.297   1.053  14.570
75659SOL     OW28815   8.271  14.124   4.541
75659SOL    HW128816   8.274  14.092   4.631
75659SOL    HW228817   8.179  14.145   4.526
75660SOL     OW28818   2.757   9.499  12.410
75660SOL    HW128819   2.795   9.426  12.457
75660SOL    HW228820   2.702   9.544  12.475
75661SOL     OW28821   5.080   1.413  12.893
75661SOL    HW128822   5.083   1.411  12.989
75661SOL    HW228823   5.013   1.348  12.871
75662SOL     OW28824  11.447   7.164   2.997
75662SOL    HW128825  11.441   7.144   3.090
75662SOL    HW228826  11.516   7.229   2.990
75663SOL     OW28827   9.803   2.337   2.607
75663SOL    HW128828   9.870   2.287   2.561
75663SOL    HW228829   9.818   2.317   2.700
75664SOL     OW28830   5.230   7.273   1.055
75664SOL    HW128831   5.229   7.335   1.128
75664SOL    HW228832   5.205   7.325   0.979
75665SOL     OW28833   6.227   8.222   5.163
75665SOL    HW128834   6.253   8.272   5.241
75665SOL    HW228835   6.286   8.253   5.095
75666SOL     OW28836  11.034   7.544   4.177
75666SOL    HW128837  10.973   7.516   4.109
75666SOL    HW228838  11.057   7.634   4.153
75667SOL     OW28839   4.114   9.472   3.074
75667SOL    HW128840   4.194   9.448   3.027
75667SOL    HW228841   4.130   9.449   3.165
75668SOL     OW28842   6.496   0.391   8.694
75668SOL    HW128843   6.503   0.451   8.767
75668SOL    HW228844   6.556   0.319   8.716
75669SOL     OW28845  13.564  11.949  14.245
75669SOL    HW128846  13.504  11.903  14.187
75669SOL    HW228847  13.651  11.935  14.206
75670SOL     OW28848   3.851   3.286   8.164
75670SOL    HW128849   3.876   3.210   8.217
75670SOL    HW228850   3.776   3.257   8.114
75671SOL     OW28851  10.166   5.412   5.894
75671SOL    HW128852  10.200   5.477   5.956
75671SOL    HW228853  10.188   5.448   5.808
75672SOL     OW28854  13.875   5.281  10.640
75672SOL    HW128855  13.920   5.340  10.579
75672SOL    HW228856  13.940   5.213  10.660
75673SOL     OW28857   3.979  10.461  12.369
75673SOL    HW128858   4.019  10.530  12.316
75673SOL    HW228859   3.885  10.478  12.363
75674SOL     OW28860   5.206   9.987   7.995
75674SOL    HW128861   5.228  10.080   8.002
75674SOL    HW228862   5.170   9.964   8.081
75675SOL     OW28863   3.252   1.579   3.031
75675SOL    HW128864   3.338   1.619   3.026
75675SOL    HW228865   3.210   1.620   3.107
75676SOL     OW28866   3.948   3.463   5.747
75676SOL    HW128867   3.881   3.529   5.728
75676SOL    HW228868   3.923   3.388   5.694
75677SOL     OW28869   6.171   6.182   6.137
75677SOL    HW128870   6.196   6.263   6.181
75677SOL    HW228871   6.113   6.209   6.066
75678SOL     OW28872   3.520   6.097  12.954
75678SOL    HW128873   3.435   6.057  12.969
75678SOL    HW228874   3.571   6.030  12.908
75679SOL     OW28875   1.041   2.723   9.730
75679SOL    HW128876   0.999   2.754   9.810
75679SOL    HW228877   1.134   2.732   9.747
75680SOL     OW28878   8.944   4.189   6.721
75680SOL    HW128879   8.963   4.172   6.629
75680SOL    HW228880   8.872   4.252   6.720
75681SOL     OW28881  14.299  14.610  12.248
75681SOL    HW128882  14.280  14.665  12.172
75681SOL    HW228883  14.253  14.652  12.321
75682SOL     OW28884  13.374  13.642  13.082
75682SOL    HW128885  13.459  13.687  13.071
75682SOL    HW228886  13.395  13.549  13.075
75683SOL     OW28887   1.406   1.428   3.660
75683SOL    HW128888   1.363   1.472   3.587
75683SOL    HW228889   1.385   1.483   3.736
75684SOL     OW28890   8.395   2.844   6.484
75684SOL    HW128891   8.309   2.806   6.470
75684SOL    HW228892   8.415   2.891   6.403
75685SOL     OW28893   0.490   2.117  10.090
75685SOL    HW128894   0.515   2.210  10.089
75685SOL    HW228895   0.568   2.071  10.121
75686SOL     OW28896   7.866   0.918   1.053
75686SOL    HW128897   7.802   0.961   1.109
75686SOL    HW228898   7.849   0.824   1.064
75687SOL     OW28899   1.817  11.945  13.729
75687SOL    HW128900   1.852  11.989  13.651
75687SOL    HW228901   1.845  11.854  13.720
75688SOL     OW28902  12.317  11.227   7.039
75688SOL    HW128903  12.382  11.296   7.054
75688SOL    HW228904  12.351  11.180   6.963
75689SOL     OW28905  11.147   9.467   1.535
75689SOL    HW128906  11.168   9.454   1.442
75689SOL    HW228907  11.135   9.562   1.544
75690SOL     OW28908   2.182   6.334  13.920
75690SOL    HW128909   2.221   6.286  13.847
75690SOL    HW228910   2.240   6.316  13.994
75691SOL     OW28911  12.792   4.292  11.088
75691SOL    HW128912  12.731   4.249  11.148
75691SOL    HW228913  12.873   4.242  11.097
75692SOL     OW28914   6.799   0.454   0.956
75692SOL    HW128915   6.786   0.512   0.881
75692SOL    HW228916   6.851   0.505   1.017
75693SOL     OW28917  13.283   0.943   6.278
75693SOL    HW128918  13.215   1.010   6.270
75693SOL    HW228919  13.335   0.969   6.354
75694SOL     OW28920  13.799   7.436   9.231
75694SOL    HW128921  13.862   7.460   9.299
75694SOL    HW228922  13.809   7.504   9.165
75695SOL     OW28923  14.567  14.058   0.758
75695SOL    HW128924  14.650  14.070   0.711
75695SOL    HW228925  14.501  14.060   0.689
75696SOL     OW28926   2.534   9.954  11.647
75696SOL    HW128927   2.458   9.957  11.588
75696SOL    HW228928   2.602  10.002  11.601
75697SOL     OW28929   6.097   7.962   4.027
75697SOL    HW128930   6.077   8.036   4.085
75697SOL    HW228931   6.191   7.970   4.009
75698SOL     OW28932   9.580   5.533   3.879
75698SOL    HW128933   9.671   5.562   3.872
75698SOL    HW228934   9.544   5.545   3.791
75699SOL     OW28935  11.608   9.693   1.925
75699SOL    HW128936  11.630   9.723   2.013
75699SOL    HW228937  11.620   9.771   1.870
75700SOL     OW28938   2.461  11.639  14.012
75700SOL    HW128939   2.500  11.553  14.030
75700SOL    HW228940   2.425  11.668  14.095
75701SOL     OW28941   8.342  11.419  10.264
75701SOL    HW128942   8.315  11.344  10.316
75701SOL    HW228943   8.372  11.382  10.181
75702SOL     OW28944  12.520   9.295   8.007
75702SOL    HW128945  12.440   9.336   8.040
75702SOL    HW228946  12.575   9.285   8.085
75703SOL     OW28947   9.642   0.347   6.293
75703SOL    HW128948   9.737   0.341   6.305
75703SOL    HW228949   9.627   0.315   6.204
75704SOL     OW28950   3.157   8.649  10.765
75704SOL    HW128951   3.085   8.666  10.826
75704SOL    HW228952   3.149   8.556  10.744
75705SOL     OW28953  11.407   2.799  11.245
75705SOL    HW128954  11.404   2.779  11.152
75705SOL    HW228955  11.498   2.786  11.270
75706SOL     OW28956  13.841   8.935   8.563
75706SOL    HW128957  13.866   9.006   8.622
75706SOL    HW228958  13.766   8.893   8.606
75707SOL     OW28959   8.553   6.054   1.313
75707SOL    HW128960   8.578   6.076   1.224
75707SOL    HW228961   8.607   5.978   1.336
75708SOL     OW28962   6.667  13.389   4.369
75708SOL    HW128963   6.661  13.461   4.432
75708SOL    HW228964   6.581  13.385   4.328
75709SOL     OW28965   8.311   8.665  10.105
75709SOL    HW128966   8.373   8.659  10.032
75709SOL    HW228967   8.227   8.640  10.066
75710SOL     OW28968   6.264  14.010  14.119
75710SOL    HW128969   6.217  14.090  14.098
75710SOL    HW228970   6.344  14.040  14.163
75711SOL     OW28971   3.195  12.786   5.088
75711SOL    HW128972   3.152  12.814   5.007
75711SOL    HW228973   3.288  12.803   5.073
75712SOL     OW28974   2.468  10.937   3.825
75712SOL    HW128975   2.502  10.967   3.909
75712SOL    HW228976   2.386  10.891   3.848
75713SOL     OW28977   5.102  10.180   5.082
75713SOL    HW128978   5.146  10.172   4.997
75713SOL    HW228979   5.155  10.127   5.142
75714SOL     OW28980  13.865  12.744   2.804
75714SOL    HW128981  13.906  12.697   2.732
75714SOL    HW228982  13.924  12.817   2.823
75715SOL     OW28983  12.449   8.205  11.674
75715SOL    HW128984  12.519   8.270  11.663
75715SOL    HW228985  12.492   8.129  11.712
75716SOL     OW28986  11.580   2.499  11.405
75716SOL    HW128987  11.532   2.491  11.488
75716SOL    HW228988  11.617   2.412  11.391
75717SOL     OW28989   8.431  14.464   8.045
75717SOL    HW128990   8.387  14.496   7.966
75717SOL    HW228991   8.506  14.414   8.012
75718SOL     OW28992   4.080   2.025   9.180
75718SOL    HW128993   4.066   2.005   9.272
75718SOL    HW228994   3.994   2.054   9.149
75719SOL     OW28995   1.517  13.658   1.420
75719SOL    HW128996   1.470  13.581   1.387
75719SOL    HW228997   1.468  13.733   1.384
75720SOL     OW28998   2.169  10.868  14.503
75720SOL    HW128999   2.223  10.815  14.445
75720SOL    HW229000   2.173  10.824  14.588
75721SOL     OW29001   7.414   3.464   9.266
75721SOL    HW129002   7.392   3.528   9.198
75721SOL    HW229003   7.386   3.505   9.348
75722SOL     OW29004  14.547  12.379   6.526
75722SOL    HW129005  14.602  12.306   6.498
75722SOL    HW229006  14.493  12.342   6.596
75723SOL     OW29007   1.572   9.987  12.004
75723SOL    HW129008   1.517  10.050  11.958
75723SOL    HW229009   1.514   9.913  12.023
75724SOL     OW29010   9.422   6.768   9.296
75724SOL    HW129011   9.445   6.758   9.203
75724SOL    HW229012   9.327   6.770   9.298
75725SOL     OW29013   7.894   8.420   4.403
75725SOL    HW129014   7.943   8.341   4.424
75725SOL    HW229015   7.943   8.462   4.332
75726SOL     OW29016  13.312   7.698  10.337
75726SOL    HW129017  13.242   7.722  10.276
75726SOL    HW229018  13.267   7.674  10.418
75727SOL     OW29019  11.551   0.431   2.906
75727SOL    HW129020  11.481   0.367   2.914
75727SOL    HW229021  11.511   0.514   2.932
75728SOL     OW29022   4.776   2.464  10.805
75728SOL    HW129023   4.744   2.389  10.857
75728SOL    HW229024   4.833   2.512  10.865
75729SOL     OW29025   7.022   6.429   8.543
75729SOL    HW129026   6.954   6.413   8.607
75729SOL    HW229027   7.103   6.431   8.593
75730SOL     OW29028   4.847   3.783  10.194
75730SOL    HW129029   4.821   3.723  10.265
75730SOL    HW229030   4.854   3.868  10.237
75731SOL     OW29031   7.329   7.187   7.585
75731SOL    HW129032   7.313   7.276   7.619
75731SOL    HW229033   7.298   7.129   7.654
75732SOL     OW29034   5.884   3.750   1.969
75732SOL    HW129035   5.844   3.672   1.930
75732SOL    HW229036   5.858   3.746   2.061
75733SOL     OW29037  12.828  12.885  10.579
75733SOL    HW129038  12.858  12.834  10.654
75733SOL    HW229039  12.734  12.892  10.591
75734SOL     OW29040  13.325  13.127   4.463
75734SOL    HW129041  13.362  13.150   4.378
75734SOL    HW229042  13.251  13.186   4.474
75735SOL     OW29043  11.205   1.455  12.431
75735SOL    HW129044  11.196   1.364  12.460
75735SOL    HW229045  11.146   1.505  12.488
75736SOL     OW29046  10.311  14.490   9.998
75736SOL    HW129047  10.273  14.472  10.084
75736SOL    HW229048  10.298  14.584   9.985
75737SOL     OW29049   4.198   6.995  13.013
75737SOL    HW129050   4.164   7.081  13.038
75737SOL    HW229051   4.156   6.934  13.073
75738SOL     OW29052   9.024   6.551   2.858
75738SOL    HW129053   9.025   6.589   2.770
75738SOL    HW229054   9.114   6.558   2.889
75739SOL     OW29055  10.744  14.243  14.005
75739SOL    HW129056  10.740  14.337  14.023
75739SOL    HW229057  10.833  14.228  13.972
75740SOL     OW29058   9.009  11.210  10.534
75740SOL    HW129059   8.949  11.265  10.483
75740SOL    HW229060   9.069  11.174  10.470
75741SOL     OW29061   1.161   8.564   9.951
75741SOL    HW129062   1.147   8.653   9.921
75741SOL    HW229063   1.105   8.556  10.028
75742SOL     OW29064   2.804  11.177   5.377
75742SOL    HW129065   2.839  11.265   5.365
75742SOL    HW229066   2.752  11.161   5.298
75743SOL     OW29067  13.643   4.138  11.851
75743SOL    HW129068  13.561   4.147  11.900
75743SOL    HW229069  13.687   4.064  11.893
75744SOL     OW29070  14.133   1.727   5.713
75744SOL    HW129071  14.113   1.742   5.621
75744SOL    HW229072  14.200   1.791   5.734
75745SOL     OW29073   6.069  13.896  13.438
75745SOL    HW129074   6.097  13.971  13.384
75745SOL    HW229075   6.126  13.825  13.410
75746SOL     OW29076   7.038  13.850  13.038
75746SOL    HW129077   7.106  13.785  13.020
75746SOL    HW229078   6.976  13.803  13.094
75747SOL     OW29079   3.861  12.119   3.951
75747SOL    HW129080   3.947  12.109   3.911
75747SOL    HW229081   3.871  12.081   4.039
75748SOL     OW29082   0.007   0.786   8.826
75748SOL    HW129083  14.832   0.768   8.906
75748SOL    HW229084  14.872   0.706   8.774
75749SOL     OW29085  12.589   3.733   2.822
75749SOL    HW129086  12.610   3.811   2.873
75749SOL    HW229087  12.496   3.719   2.837
75750SOL     OW29088  12.296   9.735   5.874
75750SOL    HW129089  12.250   9.672   5.929
75750SOL    HW229090  12.353   9.783   5.934
75751SOL     OW29091   9.109  10.667  13.092
75751SOL    HW129092   9.040  10.640  13.152
75751SOL    HW229093   9.190  10.634  13.131
75752SOL     OW29094  13.677   5.477  11.527
75752SOL    HW129095  13.678   5.571  11.542
75752SOL    HW229096  13.747   5.461  11.464
75753SOL     OW29097   5.026   4.724   5.549
75753SOL    HW129098   5.064   4.731   5.636
75753SOL    HW229099   4.933   4.744   5.561
75754SOL     OW29100   2.602  11.464   7.099
75754SOL    HW129101   2.683  11.509   7.074
75754SOL    HW229102   2.538  11.490   7.033
75755SOL     OW29103  13.069  13.614  13.092
75755SOL    HW129104  13.144  13.672  13.080
75755SOL    HW229105  13.105  13.536  13.133
75756SOL     OW29106   1.124   9.272   7.998
75756SOL    HW129107   1.189   9.302   8.062
75756SOL    HW229108   1.175   9.250   7.920
75757SOL     OW29109   8.348   7.512   7.489
75757SOL    HW129110   8.359   7.515   7.584
75757SOL    HW229111   8.397   7.587   7.456
75758SOL     OW29112  10.016   7.213   4.212
75758SOL    HW129113   9.962   7.210   4.291
75758SOL    HW229114  10.051   7.301   4.210
75759SOL     OW29115  13.043   8.136  11.985
75759SOL    HW129116  13.082   8.223  11.982
75759SOL    HW229117  13.050   8.104  11.895
75760SOL     OW29118   3.345  14.082   4.498
75760SOL    HW129119   3.351  14.035   4.414
75760SOL    HW229120   3.252  14.099   4.509
75761SOL     OW29121  14.382   4.151  10.321
75761SOL    HW129122  14.437   4.073  10.315
75761SOL    HW229123  14.300   4.126  10.278
75762SOL     OW29124   9.043   9.511   1.338
75762SOL    HW129125   9.128   9.470   1.320
75762SOL    HW229126   8.980   9.456   1.291
75763SOL     OW29127   4.580   6.520   1.646
75763SOL    HW129128   4.671   6.495   1.657
75763SOL    HW229129   4.555   6.558   1.730
75764SOL     OW29130   2.382   1.660  12.576
75764SOL    HW129131   2.331   1.596  12.626
75764SOL    HW229132   2.454   1.610  12.540
75765SOL     OW29133   2.651  12.335   1.230
75765SOL    HW129134   2.612  12.396   1.168
75765SOL    HW229135   2.677  12.260   1.177
75766SOL     OW29136  11.487  10.835   8.416
75766SOL    HW129137  11.506  10.810   8.325
75766SOL    HW229138  11.441  10.918   8.408
75767SOL     OW29139  10.997   5.963  12.801
75767SOL    HW129140  10.978   5.954  12.895
75767SOL    HW229141  10.959   5.885  12.761
75768SOL     OW29142  11.444   4.311  12.724
75768SOL    HW129143  11.375   4.355  12.674
75768SOL    HW229144  11.526   4.348  12.689
75769SOL     OW29145  14.341   6.215   8.450
75769SOL    HW129146  14.261   6.256   8.416
75769SOL    HW229147  14.377   6.281   8.510
75770SOL     OW29148  14.602   5.711   5.921
75770SOL    HW129149  14.680   5.657   5.935
75770SOL    HW229150  14.631   5.800   5.938
75771SOL     OW29151   5.324  11.814   3.706
75771SOL    HW129152   5.295  11.761   3.780
75771SOL    HW229153   5.257  11.881   3.696
75772SOL     OW29154   6.485   5.923   0.951
75772SOL    HW129155   6.540   5.967   0.886
75772SOL    HW229156   6.511   5.963   1.034
75773SOL     OW29157  10.289  10.612   9.572
75773SOL    HW129158  10.290  10.525   9.533
75773SOL    HW229159  10.271  10.597   9.665
75774SOL     OW29160  10.420   4.013  10.268
75774SOL    HW129161  10.451   4.087  10.216
75774SOL    HW229162  10.492   3.951  10.267
75775SOL     OW29163  10.616   3.363   0.844
75775SOL    HW129164  10.562   3.391   0.918
75775SOL    HW229165  10.580   3.409   0.769
75776SOL     OW29166   6.075   4.080   7.212
75776SOL    HW129167   6.091   4.160   7.161
75776SOL    HW229168   6.005   4.036   7.164
75777SOL     OW29169   6.420  11.735  13.846
75777SOL    HW129170   6.419  11.648  13.886
75777SOL    HW229171   6.328  11.761  13.840
75778SOL     OW29172   4.024   9.895  11.095
75778SOL    HW129173   4.042   9.862  11.183
75778SOL    HW229174   4.103   9.943  11.071
75779SOL     OW29175   0.308  13.644   4.898
75779SOL    HW129176   0.229  13.654   4.846
75779SOL    HW229177   0.281  13.665   4.987
75780SOL     OW29178   9.935   8.881  10.482
75780SOL    HW129179  10.013   8.920  10.521
75780SOL    HW229180   9.951   8.883  10.388
75781SOL     OW29181  13.103   1.728   8.818
75781SOL    HW129182  13.050   1.656   8.853
75781SOL    HW229183  13.044   1.804   8.821
75782SOL     OW29184   1.091   4.156  11.344
75782SOL    HW129185   1.178   4.164  11.384
75782SOL    HW229186   1.031   4.151  11.419
75783SOL     OW29187   2.336   1.403   5.920
75783SOL    HW129188   2.316   1.350   5.843
75783SOL    HW229189   2.256   1.451   5.939
75784SOL     OW29190   3.650  13.312   9.597
75784SOL    HW129191   3.579  13.369   9.565
75784SOL    HW229192   3.611  13.263   9.668
75785SOL     OW29193   4.568   5.411  12.531
75785SOL    HW129194   4.554   5.503  12.553
75785SOL    HW229195   4.646   5.387  12.580
75786SOL     OW29196   1.070   1.699  10.568
75786SOL    HW129197   1.133   1.629  10.550
75786SOL    HW229198   0.985   1.655  10.569
75787SOL     OW29199   0.736   8.490  14.595
75787SOL    HW129200   0.735   8.435  14.517
75787SOL    HW229201   0.671   8.450  14.654
75788SOL     OW29202  11.159   2.904   5.629
75788SOL    HW129203  11.108   2.973   5.671
75788SOL    HW229204  11.192   2.851   5.701
75789SOL     OW29205   4.967  11.933   8.783
75789SOL    HW129206   5.036  11.989   8.819
75789SOL    HW229207   4.925  11.988   8.716
75790SOL     OW29208   5.958   4.411  11.983
75790SOL    HW129209   5.928   4.388  12.070
75790SOL    HW229210   5.903   4.486  11.957
75791SOL     OW29211   9.830  14.626   4.779
75791SOL    HW129212   9.884  14.685   4.832
75791SOL    HW229213   9.869  14.540   4.791
75792SOL     OW29214   3.210  14.218  13.972
75792SOL    HW129215   3.261  14.299  13.973
75792SOL    HW229216   3.271  14.151  13.942
75793SOL     OW29217  10.965  12.677   3.301
75793SOL    HW129218  11.028  12.650   3.234
75793SOL    HW229219  10.919  12.596   3.324
75794SOL     OW29220  13.988   8.640   3.411
75794SOL    HW129221  13.941   8.700   3.469
75794SOL    HW229222  13.928   8.625   3.338
75795SOL     OW29223   3.310   5.171   3.535
75795SOL    HW129224   3.222   5.165   3.498
75795SOL    HW229225   3.324   5.087   3.578
75796SOL     OW29226   3.635   6.672   7.702
75796SOL    HW129227   3.604   6.663   7.792
75796SOL    HW229228   3.626   6.584   7.665
75797SOL     OW29229   3.806   0.395  13.241
75797SOL    HW129230   3.783   0.302  13.243
75797SOL    HW229231   3.725   0.438  13.213
75798SOL     OW29232   3.569   0.419   1.626
75798SOL    HW129233   3.476   0.396   1.622
75798SOL    HW229234   3.583   0.474   1.549
75799SOL     OW29235   9.804  14.248   1.911
75799SOL    HW129236   9.823  14.280   1.999
75799SOL    HW229237   9.889  14.246   1.867
75800SOL     OW29238  13.783  10.169  12.784
75800SOL    HW129239  13.840  10.245  12.773
75800SOL    HW229240  13.829  10.114  12.848
75801SOL     OW29241  12.415   9.372   9.769
75801SOL    HW129242  12.470   9.295   9.756
75801SOL    HW229243  12.401   9.376   9.863
75802SOL     OW29244  12.592   2.495   3.188
75802SOL    HW129245  12.640   2.423   3.229
75802SOL    HW229246  12.631   2.574   3.225
75803SOL     OW29247   5.766  10.405  11.018
75803SOL    HW129248   5.739  10.335  10.959
75803SOL    HW229249   5.849  10.375  11.055
75804SOL     OW29250  14.698   2.009   2.710
75804SOL    HW129251  14.650   2.001   2.792
75804SOL    HW229252  14.778   1.957   2.724
75805SOL     OW29253   2.237   5.171  14.147
75805SOL    HW129254   2.166   5.165  14.211
75805SOL    HW229255   2.271   5.260  14.156
75806SOL     OW29256   2.183   6.028   6.309
75806SOL    HW129257   2.238   6.046   6.233
75806SOL    HW229258   2.176   6.111   6.354
75807SOL     OW29259   0.138  11.055  12.944
75807SOL    HW129260   0.198  10.998  12.897
75807SOL    HW229261   0.163  11.144  12.917
75808SOL     OW29262  10.559   5.562   3.379
75808SOL    HW129263  10.599   5.476   3.366
75808SOL    HW229264  10.552   5.571   3.474
75809SOL     OW29265  13.601   0.322  11.886
75809SOL    HW129266  13.548   0.245  11.908
75809SOL    HW229267  13.597   0.377  11.964
75810SOL     OW29268   5.500   1.016   8.233
75810SOL    HW129269   5.469   0.994   8.320
75810SOL    HW229270   5.473   1.107   8.221
75811SOL     OW29271  10.761   4.167   5.779
75811SOL    HW129272  10.780   4.105   5.708
75811SOL    HW229273  10.842   4.172   5.830
75812SOL     OW29274   2.731   2.168   6.658
75812SOL    HW129275   2.765   2.101   6.598
75812SOL    HW229276   2.787   2.164   6.734
75813SOL     OW29277   8.331   2.566   1.399
75813SOL    HW129278   8.314   2.596   1.489
75813SOL    HW229279   8.246   2.532   1.370
75814SOL     OW29280   9.379   6.156   7.916
75814SOL    HW129281   9.319   6.113   7.855
75814SOL    HW229282   9.380   6.247   7.889
75815SOL     OW29283   2.645   5.381   2.612
75815SOL    HW129284   2.670   5.386   2.520
75815SOL    HW229285   2.725   5.406   2.659
75816SOL     OW29286   4.930   3.086   2.132
75816SOL    HW129287   4.937   3.137   2.051
75816SOL    HW229288   4.898   3.149   2.197
75817SOL     OW29289   0.708  11.477   7.505
75817SOL    HW129290   0.700  11.572   7.515
75817SOL    HW229291   0.756  11.466   7.422
75818SOL     OW29292   5.459   1.598   3.024
75818SOL    HW129293   5.485   1.542   2.951
75818SOL    HW229294   5.516   1.570   3.096
75819SOL     OW29295  13.800  12.778   4.868
75819SOL    HW129296  13.765  12.808   4.784
75819SOL    HW229297  13.893  12.762   4.852
75820SOL     OW29298  10.384  11.164  11.511
75820SOL    HW129299  10.383  11.146  11.417
75820SOL    HW229300  10.371  11.259  11.517
75821SOL     OW29301   3.202   7.404   9.278
75821SOL    HW129302   3.266   7.448   9.221
75821SOL    HW229303   3.176   7.326   9.229
75822SOL     OW29304   4.799  11.373   2.592
75822SOL    HW129305   4.858  11.363   2.667
75822SOL    HW229306   4.856  11.364   2.516
75823SOL     OW29307  13.117  12.043  13.046
75823SOL    HW129308  13.129  11.976  12.979
75823SOL    HW229309  13.194  12.100  13.037
75824SOL     OW29310   5.319  11.981   7.014
75824SOL    HW129311   5.226  11.960   7.021
75824SOL    HW229312   5.322  12.059   6.959
75825SOL     OW29313   7.688  11.455  11.578
75825SOL    HW129314   7.773  11.494  11.558
75825SOL    HW229315   7.689  11.371  11.532
75826SOL     OW29316   5.642  10.003   5.530
75826SOL    HW129317   5.716  10.059   5.552
75826SOL    HW229318   5.670   9.915   5.554
75827SOL     OW29319   3.462  14.315   8.589
75827SOL    HW129320   3.385  14.324   8.533
75827SOL    HW229321   3.448  14.377   8.660
75828SOL     OW29322   5.782  12.534  14.659
75828SOL    HW129323   5.786  12.626  14.636
75828SOL    HW229324   5.697  12.504  14.629
75829SOL     OW29325  10.627  11.306   8.568
75829SOL    HW129326  10.532  11.305   8.565
75829SOL    HW229327  10.649  11.276   8.656
75830SOL     OW29328   5.930   5.645   2.200
75830SOL    HW129329   5.996   5.583   2.233
75830SOL    HW229330   5.863   5.589   2.162
75831SOL     OW29331   4.761   3.571  14.743
75831SOL    HW129332   4.797   3.489  14.775
75831SOL    HW229333   4.731   3.617  14.821
75832SOL     OW29334   9.317  13.776  12.468
75832SOL    HW129335   9.300  13.682  12.479
75832SOL    HW229336   9.368  13.782  12.387
75833SOL     OW29337   7.456  10.713  13.704
75833SOL    HW129338   7.463  10.797  13.748
75833SOL    HW229339   7.546  10.683  13.693
75834SOL     OW29340   1.222   1.391  14.827
75834SOL    HW129341   1.213   1.478  14.788
75834SOL    HW229342   1.315   1.371  14.820
75835SOL     OW29343   9.643   2.149   2.934
75835SOL    HW129344   9.705   2.078   2.956
75835SOL    HW229345   9.573   2.140   2.999
75836SOL     OW29346   1.017   9.294  14.472
75836SOL    HW129347   1.076   9.339  14.533
75836SOL    HW229348   0.950   9.359  14.451
75837SOL     OW29349   1.310  10.609  13.322
75837SOL    HW129350   1.246  10.667  13.280
75837SOL    HW229351   1.330  10.543  13.256
75838SOL     OW29352   5.084   7.376  13.376
75838SOL    HW129353   5.095   7.470  13.363
75838SOL    HW229354   5.043   7.345  13.295
75839SOL     OW29355   6.968  11.562  10.889
75839SOL    HW129356   7.056  11.539  10.859
75839SOL    HW229357   6.974  11.654  10.912
75840SOL     OW29358  14.195  12.701  11.969
75840SOL    HW129359  14.256  12.676  12.038
75840SOL    HW229360  14.154  12.619  11.941
75841SOL     OW29361   8.260   9.874   9.746
75841SOL    HW129362   8.339   9.848   9.699
75841SOL    HW229363   8.265   9.969   9.751
75842SOL     OW29364   2.343  10.587   6.060
75842SOL    HW129365   2.318  10.507   6.015
75842SOL    HW229366   2.426  10.566   6.103
75843SOL     OW29367   8.118   8.574   1.512
75843SOL    HW129368   8.130   8.552   1.605
75843SOL    HW229369   8.026   8.556   1.495
75844SOL     OW29370  12.603  10.940   7.940
75844SOL    HW129371  12.567  10.959   8.026
75844SOL    HW229372  12.665  10.869   7.954
75845SOL     OW29373   5.395   8.315   4.096
75845SOL    HW129374   5.359   8.300   4.009
75845SOL    HW229375   5.428   8.404   4.093
75846SOL     OW29376  10.987   2.662  14.229
75846SOL    HW129377  11.039   2.735  14.263
75846SOL    HW229378  10.954   2.693  14.145
75847SOL     OW29379   5.742   8.244   8.883
75847SOL    HW129380   5.751   8.170   8.822
75847SOL    HW229381   5.651   8.239   8.913
75848SOL     OW29382  13.629   5.876  12.944
75848SOL    HW129383  13.722   5.855  12.950
75848SOL    HW229384  13.615   5.939  13.014
75849SOL     OW29385   0.307   4.559   5.777
75849SOL    HW129386   0.244   4.585   5.710
75849SOL    HW229387   0.379   4.519   5.727
75850SOL     OW29388   1.296   3.690   7.192
75850SOL    HW129389   1.234   3.713   7.122
75850SOL    HW229390   1.242   3.677   7.269
75851SOL     OW29391   6.164   8.557  12.022
75851SOL    HW129392   6.242   8.522  12.063
75851SOL    HW229393   6.099   8.487  12.030
75852SOL     OW29394   8.204  14.712  13.047
75852SOL    HW129395   8.233  14.743  12.961
75852SOL    HW229396   8.109  14.703  13.038
75853SOL     OW29397   7.990   0.278   8.039
75853SOL    HW129398   8.054   0.338   8.000
75853SOL    HW229399   7.917   0.276   7.978
75854SOL     OW29400   4.894   3.861   3.183
75854SOL    HW129401   4.822   3.873   3.122
75854SOL    HW229402   4.905   3.947   3.224
75855SOL     OW29403  13.412   0.307   1.640
75855SOL    HW129404  13.447   0.296   1.552
75855SOL    HW229405  13.369   0.224   1.660
75856SOL     OW29406  14.736   9.895   9.569
75856SOL    HW129407  14.724   9.808   9.532
75856SOL    HW229408  14.772   9.879   9.657
75857SOL     OW29409  10.238  11.292   4.067
75857SOL    HW129410  10.191  11.264   3.988
75857SOL    HW229411  10.194  11.247   4.139
75858SOL     OW29412  11.940   5.694  11.775
75858SOL    HW129413  11.930   5.758  11.845
75858SOL    HW229414  12.009   5.731  11.718
75859SOL     OW29415  14.455  11.632  12.909
75859SOL    HW129416  14.472  11.691  12.835
75859SOL    HW229417  14.382  11.577  12.880
75860SOL     OW29418  10.326   0.569  10.799
75860SOL    HW129419  10.368   0.655  10.796
75860SOL    HW229420  10.239   0.586  10.836
75861SOL     OW29421  14.221  13.344  14.389
75861SOL    HW129422  14.293  13.326  14.450
75861SOL    HW229423  14.203  13.260  14.347
75862SOL     OW29424   8.941  11.694   5.625
75862SOL    HW129425   8.906  11.737   5.547
75862SOL    HW229426   9.036  11.706   5.618
75863SOL     OW29427  12.680   5.245  10.678
75863SOL    HW129428  12.770   5.234  10.650
75863SOL    HW229429  12.628   5.230  10.599
75864SOL     OW29430   4.800  10.289   0.271
75864SOL    HW129431   4.736  10.304   0.340
75864SOL    HW229432   4.811  10.375   0.229
75865SOL     OW29433  10.387   2.775   0.169
75865SOL    HW129434  10.351   2.788   0.257
75865SOL    HW229435  10.388   2.680   0.158
75866SOL     OW29436   9.815   3.724  10.984
75866SOL    HW129437   9.852   3.636  10.994
75866SOL    HW229438   9.826   3.764  11.070
75867SOL     OW29439   2.046   1.738   8.571
75867SOL    HW129440   2.025   1.820   8.616
75867SOL    HW229441   1.992   1.738   8.493
75868SOL     OW29442   2.027   3.132   2.205
75868SOL    HW129443   1.961   3.080   2.252
75868SOL    HW229444   2.034   3.090   2.120
75869SOL     OW29445  11.749   6.019   4.910
75869SOL    HW129446  11.657   6.002   4.892
75869SOL    HW229447  11.769   6.097   4.858
75870SOL     OW29448   2.115   3.761   3.203
75870SOL    HW129449   2.193   3.764   3.149
75870SOL    HW229450   2.063   3.836   3.175
75871SOL     OW29451  12.096   4.599   9.451
75871SOL    HW129452  12.065   4.607   9.361
75871SOL    HW229453  12.107   4.505   9.464
75872SOL     OW29454  11.952   8.839   3.566
75872SOL    HW129455  11.886   8.822   3.633
75872SOL    HW229456  12.003   8.913   3.600
75873SOL     OW29457   5.280   4.061   2.159
75873SOL    HW129458   5.332   3.990   2.194
75873SOL    HW229459   5.251   4.111   2.236
75874SOL     OW29460   9.244  10.630  14.625
75874SOL    HW129461   9.216  10.721  14.620
75874SOL    HW229462   9.215  10.591  14.542
75875SOL     OW29463   2.158   1.247   9.641
75875SOL    HW129464   2.200   1.323   9.680
75875SOL    HW229465   2.230   1.195   9.605
75876SOL     OW29466  10.826  11.591   9.619
75876SOL    HW129467  10.878  11.525   9.664
75876SOL    HW229468  10.879  11.671   9.624
75877SOL     OW29469   6.161   3.718   2.947
75877SOL    HW129470   6.223   3.790   2.936
75877SOL    HW229471   6.077   3.755   2.919
75878SOL     OW29472  12.811   4.931   6.916
75878SOL    HW129473  12.750   4.940   6.989
75878SOL    HW229474  12.839   4.840   6.919
75879SOL     OW29475   5.806  12.796  10.195
75879SOL    HW129476   5.763  12.819  10.112
75879SOL    HW229477   5.895  12.829  10.186
75880SOL     OW29478  12.847   7.884   3.713
75880SOL    HW129479  12.809   7.796   3.709
75880SOL    HW229480  12.897   7.884   3.795
75881SOL     OW29481  11.317  13.451   4.723
75881SOL    HW129482  11.362  13.373   4.690
75881SOL    HW229483  11.383  13.496   4.776
75882SOL     OW29484  14.599  14.468  11.858
75882SOL    HW129485  14.514  14.443  11.892
75882SOL    HW229486  14.638  14.386  11.828
75883SOL     OW29487  13.304  11.533  14.424
75883SOL    HW129488  13.278  11.582  14.346
75883SOL    HW229489  13.319  11.599  14.491
75884SOL     OW29490   0.802   0.593   4.207
75884SOL    HW129491   0.862   0.519   4.206
75884SOL    HW229492   0.773   0.602   4.116
75885SOL     OW29493  11.094  11.467   8.435
75885SOL    HW129494  11.010  11.480   8.391
75885SOL    HW229495  11.116  11.375   8.419
75886SOL     OW29496   6.368   0.205  11.030
75886SOL    HW129497   6.297   0.177  10.971
75886SOL    HW229498   6.344   0.168  11.115
75887SOL     OW29499   4.179  12.508   7.954
75887SOL    HW129500   4.273  12.527   7.961
75887SOL    HW229501   4.153  12.545   7.870
75888SOL     OW29502   4.491   3.209   0.498
75888SOL    HW129503   4.495   3.281   0.561
75888SOL    HW229504   4.426   3.149   0.535
75889SOL     OW29505   4.192  11.872  13.019
75889SOL    HW129506   4.231  11.870  13.106
75889SOL    HW229507   4.264  11.896  12.960
75890SOL     OW29508   2.425   7.082  12.541
75890SOL    HW129509   2.377   7.022  12.484
75890SOL    HW229510   2.439   7.160  12.486
75891SOL     OW29511   1.374  12.983   6.021
75891SOL    HW129512   1.358  12.962   6.113
75891SOL    HW229513   1.390  12.897   5.980
75892SOL     OW29514   0.018   8.941   4.723
75892SOL    HW129515   0.019   8.870   4.659
75892SOL    HW229516   0.007   9.021   4.671
75893SOL     OW29517   0.488   4.640  10.414
75893SOL    HW129518   0.526   4.709  10.359
75893SOL    HW229519   0.518   4.660  10.502
75894SOL     OW29520   6.205   3.909   9.855
75894SOL    HW129521   6.177   3.970   9.923
75894SOL    HW229522   6.123   3.876   9.817
75895SOL     OW29523   6.625   5.007   7.144
75895SOL    HW129524   6.559   4.955   7.190
75895SOL    HW229525   6.662   4.947   7.079
75896SOL     OW29526   4.942   8.509  14.478
75896SOL    HW129527   4.940   8.546  14.390
75896SOL    HW229528   5.003   8.564  14.526
75897SOL     OW29529   2.570  10.164   9.471
75897SOL    HW129530   2.571  10.069   9.476
75897SOL    HW229531   2.570  10.193   9.562
75898SOL     OW29532   0.245  11.180  11.758
75898SOL    HW129533   0.205  11.176  11.671
75898SOL    HW229534   0.192  11.122  11.812
75899SOL     OW29535  14.046   7.310   8.924
75899SOL    HW129536  14.130   7.355   8.926
75899SOL    HW229537  13.989   7.369   8.874
75900SOL     OW29538  11.587  10.560   9.757
75900SOL    HW129539  11.599  10.544   9.663
75900SOL    HW229540  11.634  10.643   9.773
75901SOL     OW29541   9.188  14.035   6.801
75901SOL    HW129542   9.259  14.090   6.768
75901SOL    HW229543   9.108  14.075   6.766
75902SOL     OW29544   1.396   4.746   9.329
75902SOL    HW129545   1.384   4.756   9.234
75902SOL    HW229546   1.321   4.693   9.357
75903SOL     OW29547   6.127   9.330  10.536
75903SOL    HW129548   6.097   9.254  10.486
75903SOL    HW229549   6.090   9.316  10.623
75904SOL     OW29550   4.528  10.649  10.697
75904SOL    HW129551   4.505  10.654  10.790
75904SOL    HW229552   4.596  10.581  10.692
75905SOL     OW29553   0.062   7.230   3.318
75905SOL    HW129554   0.147   7.255   3.281
75905SOL    HW229555   0.074   7.239   3.413
75906SOL     OW29556   6.212   5.111   6.901
75906SOL    HW129557   6.225   5.157   6.984
75906SOL    HW229558   6.299   5.084   6.874
75907SOL     OW29559   4.137  12.744   0.784
75907SOL    HW129560   4.078  12.682   0.828
75907SOL    HW229561   4.103  12.830   0.808
75908SOL     OW29562  13.330   0.138   6.051
75908SOL    HW129563  13.406   0.192   6.070
75908SOL    HW229564  13.276   0.143   6.131
75909SOL     OW29565  11.074  12.258   6.821
75909SOL    HW129566  11.133  12.299   6.759
75909SOL    HW229567  11.008  12.325   6.840
75910SOL     OW29568   7.548   3.158  10.227
75910SOL    HW129569   7.524   3.210  10.304
75910SOL    HW229570   7.545   3.219  10.154
75911SOL     OW29571   9.396   4.818   0.960
75911SOL    HW129572   9.324   4.880   0.962
75911SOL    HW229573   9.355   4.733   0.977
75912SOL     OW29574  11.176   0.936  12.093
75912SOL    HW129575  11.137   1.016  12.127
75912SOL    HW229576  11.205   0.957  12.005
75913SOL     OW29577   2.709  11.103   6.176
75913SOL    HW129578   2.625  11.111   6.130
75913SOL    HW229579   2.769  11.157   6.126
75914SOL     OW29580   5.439   4.854  14.547
75914SOL    HW129581   5.479   4.836  14.461
75914SOL    HW229582   5.452   4.773  14.596
75915SOL     OW29583   1.268   4.978   2.665
75915SOL    HW129584   1.342   4.945   2.614
75915SOL    HW229585   1.301   5.055   2.710
75916SOL     OW29586  12.372  12.710  10.926
75916SOL    HW129587  12.310  12.741  10.861
75916SOL    HW229588  12.394  12.788  10.977
75917SOL     OW29589   6.639  10.714   0.792
75917SOL    HW129590   6.636  10.779   0.862
75917SOL    HW229591   6.549  10.681   0.786
75918SOL     OW29592  12.596   7.224   1.617
75918SOL    HW129593  12.511   7.253   1.584
75918SOL    HW229594  12.649   7.304   1.619
75919SOL     OW29595   0.476  12.136  10.467
75919SOL    HW129596   0.387  12.117  10.497
75919SOL    HW229597   0.478  12.102  10.377
75920SOL     OW29598  11.756   6.198   1.707
75920SOL    HW129599  11.688   6.183   1.641
75920SOL    HW229600  11.834   6.155   1.672
75921SOL     OW29601   5.595   1.139   0.735
75921SOL    HW129602   5.588   1.074   0.664
75921SOL    HW229603   5.682   1.124   0.772
75922SOL     OW29604   5.593   8.315   7.365
75922SOL    HW129605   5.526   8.298   7.431
75922SOL    HW229606   5.625   8.402   7.384
75923SOL     OW29607   3.858  11.355  11.093
75923SOL    HW129608   3.827  11.443  11.114
75923SOL    HW229609   3.893  11.321  11.175
75924SOL     OW29610   8.329   1.323  12.372
75924SOL    HW129611   8.348   1.333  12.466
75924SOL    HW229612   8.356   1.234  12.351
75925SOL     OW29613  13.753  13.581   7.633
75925SOL    HW129614  13.785  13.519   7.699
75925SOL    HW229615  13.828  13.636   7.613
75926SOL     OW29616  12.352   2.196   7.975
75926SOL    HW129617  12.426   2.139   7.996
75926SOL    HW229618  12.357   2.208   7.880
75927SOL     OW29619   9.635  11.335   8.972
75927SOL    HW129620   9.664  11.367   9.058
75927SOL    HW229621   9.601  11.413   8.928
75928SOL     OW29622   2.773  11.753  10.093
75928SOL    HW129623   2.866  11.767  10.074
75928SOL    HW229624   2.727  11.780  10.014
75929SOL     OW29625  13.878   0.147   2.771
75929SOL    HW129626  13.800   0.200   2.790
75929SOL    HW229627  13.887   0.151   2.676
75930SOL     OW29628   4.388   3.975  13.575
75930SOL    HW129629   4.354   4.018  13.497
75930SOL    HW229630   4.406   3.885  13.548
75931SOL     OW29631   9.733   8.084   4.249
75931SOL    HW129632   9.767   8.168   4.217
75931SOL    HW229633   9.675   8.107   4.320
75932SOL     OW29634   0.305  13.760   6.105
75932SOL    HW129635   0.347  13.682   6.071
75932SOL    HW229636   0.239  13.727   6.166
75933SOL     OW29637  11.687  10.815   1.308
75933SOL    HW129638  11.611  10.860   1.345
75933SOL    HW229639  11.709  10.866   1.229
75934SOL     OW29640   2.709  12.570   3.978
75934SOL    HW129641   2.761  12.650   3.988
75934SOL    HW229642   2.661  12.563   4.061
75935SOL     OW29643   2.688   4.157  12.370
75935SOL    HW129644   2.605   4.204  12.366
75935SOL    HW229645   2.753   4.226  12.386
75936SOL     OW29646   6.107  14.365   9.009
75936SOL    HW129647   6.093  14.352   8.915
75936SOL    HW229648   6.059  14.293   9.050
75937SOL     OW29649   5.311   5.894  10.691
75937SOL    HW129650   5.316   5.821  10.629
75937SOL    HW229651   5.227   5.936  10.672
75938SOL     OW29652   0.912  10.042  10.718
75938SOL    HW129653   0.862  10.123  10.730
75938SOL    HW229654   0.868   9.997  10.646
75939SOL     OW29655   7.465   4.684   5.407
75939SOL    HW129656   7.374   4.711   5.423
75939SOL    HW229657   7.477   4.607   5.464
75940SOL     OW29658   0.150   9.620   9.369
75940SOL    HW129659   0.196   9.609   9.285
75940SOL    HW229660   0.217   9.604   9.435
75941SOL     OW29661   4.954   8.931   2.477
75941SOL    HW129662   5.032   8.888   2.513
75941SOL    HW229663   4.905   8.960   2.554
75942SOL     OW29664   8.400   3.347   9.902
75942SOL    HW129665   8.332   3.373   9.964
75942SOL    HW229666   8.482   3.379   9.942
75943SOL     OW29667   0.477   4.798   9.763
75943SOL    HW129668   0.390   4.835   9.747
75943SOL    HW229669   0.465   4.735   9.833
75944SOL     OW29670   9.819   0.997   4.942
75944SOL    HW129671   9.887   1.038   4.887
75944SOL    HW229672   9.757   0.959   4.880
75945SOL     OW29673  14.114   2.363   0.374
75945SOL    HW129674  14.155   2.294   0.426
75945SOL    HW229675  14.170   2.439   0.387
75946SOL     OW29676  12.773   4.006   5.611
75946SOL    HW129677  12.828   3.945   5.660
75946SOL    HW229678  12.741   3.955   5.537
75947SOL     OW29679   6.269  13.813   7.551
75947SOL    HW129680   6.350  13.801   7.503
75947SOL    HW229681   6.267  13.740   7.614
75948SOL     OW29682  13.398   2.529  10.306
75948SOL    HW129683  13.365   2.604  10.255
75948SOL    HW229684  13.465   2.490  10.250
75949SOL     OW29685  12.780   7.292  11.668
75949SOL    HW129686  12.870   7.307  11.637
75949SOL    HW229687  12.725   7.334  11.602
75950SOL     OW29688  13.516   9.999   7.855
75950SOL    HW129689  13.421   9.991   7.846
75950SOL    HW229690  13.551   9.966   7.772
75951SOL     OW29691  11.299   6.696   7.250
75951SOL    HW129692  11.318   6.668   7.160
75951SOL    HW229693  11.205   6.712   7.251
75952SOL     OW29694   6.362   3.344  12.191
75952SOL    HW129695   6.420   3.410  12.152
75952SOL    HW229696   6.292   3.333  12.128
75953SOL     OW29697   3.170  13.825  13.989
75953SOL    HW129698   3.118  13.751  14.020
75953SOL    HW229699   3.202  13.799  13.903
75954SOL     OW29700   0.915  11.197  14.581
75954SOL    HW129701   0.975  11.169  14.512
75954SOL    HW229702   0.888  11.116  14.624
75955SOL     OW29703   9.344  11.190  11.008
75955SOL    HW129704   9.343  11.259  10.942
75955SOL    HW229705   9.253  11.162  11.015
75956SOL     OW29706  14.053   1.327   4.902
75956SOL    HW129707  14.123   1.284   4.951
75956SOL    HW229708  14.013   1.256   4.850
75957SOL     OW29709  13.001  13.351   9.649
75957SOL    HW129710  13.044  13.379   9.730
75957SOL    HW229711  13.068  13.302   9.602
75958SOL     OW29712  10.178   0.906  12.243
75958SOL    HW129713  10.119   0.831  12.230
75958SOL    HW229714  10.182   0.948  12.158
75959SOL     OW29715  14.582  10.295   7.652
75959SOL    HW129716  14.617  10.222   7.602
75959SOL    HW229717  14.603  10.373   7.600
75960SOL     OW29718   4.119  12.680  11.987
75960SOL    HW129719   4.161  12.613  12.042
75960SOL    HW229720   4.032  12.645  11.968
75961SOL     OW29721   5.229   1.318   2.788
75961SOL    HW129722   5.274   1.402   2.773
75961SOL    HW229723   5.254   1.293   2.877
75962SOL     OW29724  10.454   8.972   0.763
75962SOL    HW129725  10.550   8.972   0.758
75962SOL    HW229726  10.435   9.010   0.849
75963SOL     OW29727   2.871  10.733  11.841
75963SOL    HW129728   2.817  10.812  11.844
75963SOL    HW229729   2.809  10.662  11.824
75964SOL     OW29730   5.850   7.987   4.312
75964SOL    HW129731   5.929   7.980   4.366
75964SOL    HW229732   5.846   7.903   4.265
75965SOL     OW29733   3.860   6.293   8.213
75965SOL    HW129734   3.955   6.300   8.216
75965SOL    HW229735   3.843   6.228   8.145
75966SOL     OW29736   9.551   0.431  11.025
75966SOL    HW129737   9.562   0.519  11.063
75966SOL    HW229738   9.533   0.375  11.099
75967SOL     OW29739   2.886   5.933   4.663
75967SOL    HW129740   2.965   5.979   4.634
75967SOL    HW229741   2.898   5.919   4.756
75968SOL     OW29742   4.137  12.701   9.025
75968SOL    HW129743   4.140  12.793   9.050
75968SOL    HW229744   4.043  12.681   9.022
75969SOL     OW29745  10.889   2.606   0.340
75969SOL    HW129746  10.965   2.555   0.312
75969SOL    HW229747  10.891   2.685   0.285
75970SOL     OW29748   3.695   9.761   0.006
75970SOL    HW129749   3.637   9.687   0.027
75970SOL    HW229750   3.783   9.726   0.020
75971SOL     OW29751   7.422   8.718  10.388
75971SOL    HW129752   7.371   8.799  10.394
75971SOL    HW229753   7.511   8.748  10.368
75972SOL     OW29754  13.162  12.438   2.809
75972SOL    HW129755  13.213  12.451   2.889
75972SOL    HW229756  13.124  12.525   2.791
75973SOL     OW29757  11.333   4.020   7.039
75973SOL    HW129758  11.315   3.939   7.087
75973SOL    HW229759  11.397   3.995   6.972
75974SOL     OW29760   5.972   5.282   1.649
75974SOL    HW129761   5.976   5.367   1.606
75974SOL    HW229762   5.880   5.270   1.670
75975SOL     OW29763  10.810  13.480   9.583
75975SOL    HW129764  10.835  13.389   9.570
75975SOL    HW229765  10.821  13.521   9.497
75976SOL     OW29766  12.043   4.454   0.406
75976SOL    HW129767  11.984   4.504   0.349
75976SOL    HW229768  12.096   4.520   0.450
75977SOL     OW29769   8.618   3.864   9.903
75977SOL    HW129770   8.693   3.819   9.865
75977SOL    HW229771   8.649   3.894   9.989
75978SOL     OW29772  11.113   1.254   1.828
75978SOL    HW129773  11.206   1.236   1.815
75978SOL    HW229774  11.075   1.170   1.851
75979SOL     OW29775   7.666   9.029   3.536
75979SOL    HW129776   7.714   8.963   3.586
75979SOL    HW229777   7.627   8.981   3.463
75980SOL     OW29778   7.319   7.418   0.314
75980SOL    HW129779   7.279   7.491   0.267
75980SOL    HW229780   7.245   7.363   0.341
75981SOL     OW29781  10.802   2.056   8.862
75981SOL    HW129782  10.740   2.024   8.928
75981SOL    HW229783  10.807   1.985   8.798
75982SOL     OW29784  13.720   5.505  13.248
75982SOL    HW129785  13.693   5.597  13.252
75982SOL    HW229786  13.671   5.469  13.174
75983SOL     OW29787   2.718   3.807   0.249
75983SOL    HW129788   2.644   3.794   0.308
75983SOL    HW229789   2.779   3.863   0.298
75984SOL     OW29790   2.663   3.530   3.374
75984SOL    HW129791   2.698   3.525   3.464
75984SOL    HW229792   2.669   3.441   3.341
75985SOL     OW29793   0.778   6.607   9.436
75985SOL    HW129794   0.871   6.587   9.427
75985SOL    HW229795   0.747   6.618   9.346
75986SOL     OW29796   6.354  10.241  10.022
75986SOL    HW129797   6.279  10.256  10.079
75986SOL    HW229798   6.398  10.165  10.060
75987SOL     OW29799   6.582  12.744  10.438
75987SOL    HW129800   6.614  12.727  10.350
75987SOL    HW229801   6.646  12.703  10.496
75988SOL     OW29802   5.712   9.215   5.337
75988SOL    HW129803   5.673   9.289   5.385
75988SOL    HW229804   5.658   9.206   5.258
75989SOL     OW29805   0.775   3.895  10.537
75989SOL    HW129806   0.777   3.890  10.633
75989SOL    HW229807   0.767   3.804  10.509
75990SOL     OW29808  11.032  12.631   6.229
75990SOL    HW129809  11.013  12.665   6.141
75990SOL    HW229810  11.058  12.708   6.279
75991SOL     OW29811   3.109   5.616  12.674
75991SOL    HW129812   3.187   5.598  12.727
75991SOL    HW229813   3.056   5.536  12.682
75992SOL     OW29814  11.178  10.266   3.402
75992SOL    HW129815  11.175  10.216   3.484
75992SOL    HW229816  11.209  10.203   3.337
75993SOL     OW29817  10.901   9.257  10.860
75993SOL    HW129818  10.899   9.205  10.779
75993SOL    HW229819  10.989   9.242  10.895
75994SOL     OW29820   9.956   8.058  12.886
75994SOL    HW129821  10.006   7.977  12.880
75994SOL    HW229822   9.869   8.036  12.851
75995SOL     OW29823  11.826   1.784   7.193
75995SOL    HW129824  11.852   1.869   7.157
75995SOL    HW229825  11.863   1.720   7.132
75996SOL     OW29826  13.267   7.924  13.029
75996SOL    HW129827  13.269   7.855  12.962
75996SOL    HW229828  13.359   7.934  13.055
75997SOL     OW29829   5.036   0.436   2.275
75997SOL    HW129830   5.118   0.386   2.272
75997SOL    HW229831   5.044   0.491   2.353
75998SOL     OW29832   3.412   7.685   8.033
75998SOL    HW129833   3.363   7.705   8.113
75998SOL    HW229834   3.369   7.607   7.997
75999SOL     OW29835   8.695   8.954  12.414
75999SOL    HW129836   8.618   8.942  12.470
75999SOL    HW229837   8.659   8.989  12.332
76000SOL     OW29838   0.004   4.799   2.636
76000SOL    HW129839   0.051   4.799   2.553
76000SOL    HW229840   0.034   4.719   2.681
76001SOL     OW29841   0.747   7.542  10.612
76001SOL    HW129842   0.729   7.635  10.621
76001SOL    HW229843   0.828   7.538  10.561
76002SOL     OW29844   0.517  11.474   2.526
76002SOL    HW129845   0.538  11.444   2.615
76002SOL    HW229846   0.469  11.401   2.487
76003SOL     OW29847  13.680   2.221   7.194
76003SOL    HW129848  13.600   2.266   7.165
76003SOL    HW229849  13.737   2.292   7.224
76004SOL     OW29850  12.567  14.214   5.042
76004SOL    HW129851  12.646  14.174   5.081
76004SOL    HW229852  12.515  14.140   5.013
76005SOL     OW29853   7.165  10.142  13.217
76005SOL    HW129854   7.186  10.133  13.310
76005SOL    HW229855   7.119  10.062  13.195
76006SOL     OW29856  12.182   7.275  13.662
76006SOL    HW129857  12.152   7.226  13.739
76006SOL    HW229858  12.108   7.275  13.602
76007SOL     OW29859   2.443   8.389   4.710
76007SOL    HW129860   2.497   8.464   4.734
76007SOL    HW229861   2.472   8.319   4.769
76008SOL     OW29862   1.764   8.805   9.270
76008SOL    HW129863   1.812   8.807   9.188
76008SOL    HW229864   1.760   8.896   9.299
76009SOL     OW29865   4.861   2.235   8.457
76009SOL    HW129866   4.903   2.159   8.416
76009SOL    HW229867   4.812   2.198   8.531
76010SOL     OW29868  13.516  13.222  12.727
76010SOL    HW129869  13.450  13.199  12.793
76010SOL    HW229870  13.526  13.317  12.736
76011SOL     OW29871   1.078   5.989   3.376
76011SOL    HW129872   1.022   5.912   3.390
76011SOL    HW229873   1.017   6.062   3.370
76012SOL     OW29874  11.841   5.535   7.656
76012SOL    HW129875  11.778   5.463   7.645
76012SOL    HW229876  11.787   5.614   7.656
76013SOL     OW29877   8.963   5.020  14.798
76013SOL    HW129878   8.916   4.993  14.719
76013SOL    HW229879   9.054   4.992  14.782
76014SOL     OW29880   7.908   5.311   7.551
76014SOL    HW129881   7.954   5.273   7.476
76014SOL    HW229882   7.844   5.370   7.512
76015SOL     OW29883  10.819   4.503  14.214
76015SOL    HW129884  10.899   4.540  14.178
76015SOL    HW229885  10.759   4.578  14.220
76016SOL     OW29886   1.545  12.422   1.243
76016SOL    HW129887   1.469  12.368   1.263
76016SOL    HW229888   1.600  12.416   1.321
76017SOL     OW29889  12.256   1.446   8.908
76017SOL    HW129890  12.351   1.453   8.907
76017SOL    HW229891  12.235   1.407   8.993
76018SOL     OW29892  14.797   4.129  10.286
76018SOL    HW129893  14.814   4.170  10.371
76018SOL    HW229894  14.838   4.188  10.223
76019SOL     OW29895   1.003   4.992  12.067
76019SOL    HW129896   1.008   5.082  12.099
76019SOL    HW229897   1.032   4.998  11.976
76020SOL     OW29898  13.021  11.671   5.962
76020SOL    HW129899  13.064  11.703   6.041
76020SOL    HW229900  13.075  11.598   5.934
76021SOL     OW29901   0.830   4.816  11.635
76021SOL    HW129902   0.756   4.867  11.668
76021SOL    HW229903   0.855   4.860  11.553
76022SOL     OW29904   4.179   9.059   2.481
76022SOL    HW129905   4.219   8.972   2.477
76022SOL    HW229906   4.088   9.042   2.506
76023SOL     OW29907   4.263  14.292   3.049
76023SOL    HW129908   4.268  14.374   2.999
76023SOL    HW229909   4.350  14.254   3.042
76024SOL     OW29910   6.643  14.853   0.624
76024SOL    HW129911   6.700   0.021   0.559
76024SOL    HW229912   6.693  14.860   0.706
76025SOL     OW29913   8.643   9.201   4.589
76025SOL    HW129914   8.729   9.243   4.590
76025SOL    HW229915   8.583   9.269   4.622
76026SOL     OW29916   4.577  13.835   6.648
76026SOL    HW129917   4.585  13.801   6.559
76026SOL    HW229918   4.626  13.917   6.647
76027SOL     OW29919   3.918   6.501   3.001
76027SOL    HW129920   4.010   6.503   2.977
76027SOL    HW229921   3.902   6.411   3.030
76028SOL     OW29922  13.598  10.435  10.540
76028SOL    HW129923  13.650  10.359  10.513
76028SOL    HW229924  13.510  10.400  10.555
76029SOL     OW29925  12.173  13.498   5.175
76029SOL    HW129926  12.142  13.463   5.259
76029SOL    HW229927  12.093  13.507   5.123
76030SOL     OW29928   8.561   2.585   2.579
76030SOL    HW129929   8.487   2.563   2.523
76030SOL    HW229930   8.536   2.554   2.666
76031SOL     OW29931   1.453   5.002   1.053
76031SOL    HW129932   1.510   4.966   1.122
76031SOL    HW229933   1.468   5.096   1.057
76032SOL     OW29934   0.857  12.960   3.264
76032SOL    HW129935   0.938  12.959   3.213
76032SOL    HW229936   0.875  12.904   3.339
76033SOL     OW29937   0.679   3.014   6.406
76033SOL    HW129938   0.663   2.979   6.318
76033SOL    HW229939   0.613   3.083   6.417
76034SOL     OW29940   7.858   8.889   8.986
76034SOL    HW129941   7.834   8.810   8.938
76034SOL    HW229942   7.900   8.857   9.066
76035SOL     OW29943   1.311   3.610  10.850
76035SOL    HW129944   1.247   3.547  10.816
76035SOL    HW229945   1.395   3.564  10.845
76036SOL     OW29946  14.813   2.249   9.023
76036SOL    HW129947   0.033   2.233   9.006
76036SOL    HW229948  14.784   2.173   9.074
76037SOL     OW29949   5.356  11.684  12.660
76037SOL    HW129950   5.372  11.630  12.583
76037SOL    HW229951   5.374  11.626  12.734
76038SOL     OW29952   0.068   0.334   3.456
76038SOL    HW129953   0.080   0.346   3.550
76038SOL    HW229954   0.092   0.242   3.440
76039SOL     OW29955  13.608   0.726   6.699
76039SOL    HW129956  13.572   0.720   6.788
76039SOL    HW229957  13.537   0.764   6.648
76040SOL     OW29958   4.216   5.096   7.059
76040SOL    HW129959   4.299   5.078   7.015
76040SOL    HW229960   4.198   5.016   7.109
76041SOL     OW29961   2.657  13.909   6.868
76041SOL    HW129962   2.631  13.940   6.781
76041SOL    HW229963   2.620  13.821   6.874
76042SOL     OW29964   6.321   7.803   4.195
76042SOL    HW129965   6.388   7.758   4.143
76042SOL    HW229966   6.343   7.896   4.186
76043SOL     OW29967   4.472   1.011   6.178
76043SOL    HW129968   4.429   1.040   6.258
76043SOL    HW229969   4.453   1.081   6.115
76044SOL     OW29970  13.055   2.093   4.008
76044SOL    HW129971  13.061   2.049   4.093
76044SOL    HW229972  13.126   2.158   4.011
76045SOL     OW29973  12.031   8.184   9.613
76045SOL    HW129974  12.080   8.106   9.639
76045SOL    HW229975  11.993   8.217   9.695
76046SOL     OW29976   6.756  13.865   9.599
76046SOL    HW129977   6.676  13.909   9.571
76046SOL    HW229978   6.727  13.806   9.668
76047SOL     OW29979  11.204   3.846   2.144
76047SOL    HW129980  11.190   3.751   2.146
76047SOL    HW229981  11.188   3.875   2.234
76048SOL     OW29982  14.450  14.766   9.100
76048SOL    HW129983  14.470  14.682   9.059
76048SOL    HW229984  14.469  14.753   9.192
76049SOL     OW29985   8.551   9.729  11.504
76049SOL    HW129986   8.486   9.799  11.495
76049SOL    HW229987   8.532   9.689  11.589
76050SOL     OW29988  13.446   6.813   0.563
76050SOL    HW129989  13.474   6.882   0.623
76050SOL    HW229990  13.528   6.771   0.535
76051SOL     OW29991   2.002  12.945  11.553
76051SOL    HW129992   1.953  12.986  11.625
76051SOL    HW229993   1.943  12.877  11.520
76052SOL     OW29994   7.377   5.928   2.591
76052SOL    HW129995   7.338   5.952   2.676
76052SOL    HW229996   7.465   5.964   2.595
76053SOL     OW29997  12.867   1.089  14.566
76053SOL    HW129998  12.861   1.056  14.476
76053SOL    HW229999  12.895   1.013  14.617
76054SOL     OW30000  11.284   1.128  14.811
76054SOL    HW130001  11.339   1.175  14.748
76054SOL    HW230002  11.289   1.036  14.782
76055SOL     OW30003   8.007   4.942   1.674
76055SOL    HW130004   8.010   4.895   1.757
76055SOL    HW230005   7.987   5.032   1.699
76056SOL     OW30006   2.056   2.665   0.388
76056SOL    HW130007   2.088   2.707   0.468
76056SOL    HW230008   1.994   2.599   0.419
76057SOL     OW30009  12.119   6.304   3.408
76057SOL    HW130010  12.099   6.251   3.331
76057SOL    HW230011  12.213   6.322   3.401
76058SOL     OW30012  14.149   4.900  14.231
76058SOL    HW130013  14.116   4.961  14.298
76058SOL    HW230014  14.166   4.819  14.278
76059SOL     OW30015  13.601   3.363   7.760
76059SOL    HW130016  13.516   3.356   7.716
76059SOL    HW230017  13.580   3.390   7.849
76060SOL     OW30018   1.020  13.891   1.365
76060SOL    HW130019   1.076  13.851   1.298
76060SOL    HW230020   0.931  13.863   1.342
76061SOL     OW30021   0.193   5.912   4.190
76061SOL    HW130022   0.175   5.852   4.117
76061SOL    HW230023   0.284   5.895   4.212
76062SOL     OW30024   5.868  10.578  10.228
76062SOL    HW130025   5.909  10.640  10.289
76062SOL    HW230026   5.897  10.492  10.258
76063SOL     OW30027  13.027   4.622   2.163
76063SOL    HW130028  13.060   4.539   2.198
76063SOL    HW230029  12.939   4.602   2.133
76064SOL     OW30030   7.918   8.101   1.069
76064SOL    HW130031   8.007   8.073   1.091
76064SOL    HW230032   7.906   8.074   0.978
76065SOL     OW30033   4.493   4.332   4.249
76065SOL    HW130034   4.564   4.271   4.229
76065SOL    HW230035   4.520   4.376   4.329
76066SOL     OW30036   6.271   5.202  14.099
76066SOL    HW130037   6.185   5.242  14.110
76066SOL    HW230038   6.276   5.182  14.005
76067SOL     OW30039  14.572  11.806   7.874
76067SOL    HW130040  14.572  11.890   7.920
76067SOL    HW230041  14.656  11.804   7.828
76068SOL     OW30042   9.355   9.767   9.722
76068SOL    HW130043   9.317   9.843   9.766
76068SOL    HW230044   9.305   9.693   9.757
76069SOL     OW30045   0.942   3.274   4.100
76069SOL    HW130046   1.033   3.278   4.070
76069SOL    HW230047   0.891   3.304   4.025
76070SOL     OW30048   8.901   6.939  12.584
76070SOL    HW130049   8.941   6.872  12.640
76070SOL    HW230050   8.946   7.020  12.608
76071SOL     OW30051   5.734  11.367   9.072
76071SOL    HW130052   5.747  11.304   9.143
76071SOL    HW230053   5.656  11.336   9.026
76072SOL     OW30054   0.528  10.180  10.641
76072SOL    HW130055   0.562  10.175  10.730
76072SOL    HW230056   0.450  10.235  10.648
76073SOL     OW30057  14.363   3.374   9.671
76073SOL    HW130058  14.409   3.327   9.602
76073SOL    HW230059  14.419   3.365   9.748
76074SOL     OW30060  12.097   1.206   9.740
76074SOL    HW130061  12.107   1.301   9.733
76074SOL    HW230062  12.166   1.180   9.802
76075SOL     OW30063   0.546   6.927   2.124
76075SOL    HW130064   0.570   6.966   2.040
76075SOL    HW230065   0.557   6.833   2.111
76076SOL     OW30066   5.625  10.226  10.886
76076SOL    HW130067   5.659  10.137  10.894
76076SOL    HW230068   5.553  10.219  10.824
76077SOL     OW30069   8.623   1.835   7.040
76077SOL    HW130070   8.660   1.812   7.126
76077SOL    HW230071   8.546   1.888   7.060
76078SOL     OW30072  10.340  14.143   1.017
76078SOL    HW130073  10.406  14.130   1.085
76078SOL    HW230074  10.383  14.200   0.953
76079SOL     OW30075   9.982   8.761  14.327
76079SOL    HW130076  10.047   8.712  14.379
76079SOL    HW230077  10.035   8.807  14.261
76080SOL     OW30078   8.738   9.784   9.130
76080SOL    HW130079   8.644   9.775   9.147
76080SOL    HW230080   8.752   9.879   9.123
76081SOL     OW30081   3.881  14.490   6.647
76081SOL    HW130082   3.866  14.561   6.710
76081SOL    HW230083   3.957  14.520   6.596
76082SOL     OW30084   4.301   6.413   1.769
76082SOL    HW130085   4.365   6.409   1.699
76082SOL    HW230086   4.220   6.441   1.726
76083SOL     OW30087  14.108   6.656   5.375
76083SOL    HW130088  14.125   6.738   5.422
76083SOL    HW230089  14.053   6.605   5.435
76084SOL     OW30090   5.669   2.746   4.902
76084SOL    HW130091   5.580   2.709   4.900
76084SOL    HW230092   5.694   2.752   4.810
76085SOL     OW30093  12.262   1.703   4.620
76085SOL    HW130094  12.196   1.697   4.688
76085SOL    HW230095  12.313   1.622   4.627
76086SOL     OW30096   8.477  11.062   5.934
76086SOL    HW130097   8.476  10.967   5.945
76086SOL    HW230098   8.548  11.092   5.991
76087SOL     OW30099  11.075  14.020   1.360
76087SOL    HW130100  11.115  13.962   1.424
76087SOL    HW230101  10.982  13.999   1.363
76088SOL     OW30102  11.190   2.931   6.076
76088SOL    HW130103  11.099   2.958   6.085
76088SOL    HW230104  11.234   2.964   6.155
76089SOL     OW30105  11.338   5.034   0.013
76089SOL    HW130106  11.371   5.040   0.102
76089SOL    HW230107  11.320   5.124  14.861
76090SOL     OW30108  10.297   0.325   5.794
76090SOL    HW130109  10.338   0.316   5.708
76090SOL    HW230110  10.235   0.397   5.783
76091SOL     OW30111  13.414  14.625   4.979
76091SOL    HW130112  13.487  14.562   4.981
76091SOL    HW230113  13.378  14.618   4.891
76092SOL     OW30114  14.120   9.712   0.483
76092SOL    HW130115  14.109   9.759   0.400
76092SOL    HW230116  14.112   9.620   0.460
76093SOL     OW30117   0.958  12.892  14.232
76093SOL    HW130118   0.899  12.834  14.279
76093SOL    HW230119   0.995  12.838  14.162
76094SOL     OW30120  13.001   9.741   9.058
76094SOL    HW130121  13.046   9.657   9.051
76094SOL    HW230122  13.038   9.793   8.987
76095SOL     OW30123   0.911  14.322  14.226
76095SOL    HW130124   0.949  14.409  14.238
76095SOL    HW230125   0.964  14.265  14.283
76096SOL     OW30126  13.598   1.235   2.140
76096SOL    HW130127  13.674   1.180   2.155
76096SOL    HW230128  13.631   1.325   2.145
76097SOL     OW30129  12.209   5.301   0.511
76097SOL    HW130130  12.235   5.235   0.446
76097SOL    HW230131  12.162   5.251   0.578
76098SOL     OW30132   9.595   1.381  13.473
76098SOL    HW130133   9.683   1.402  13.440
76098SOL    HW230134   9.571   1.457  13.526
76099SOL     OW30135   6.331   2.925   1.318
76099SOL    HW130136   6.251   2.876   1.297
76099SOL    HW230137   6.301   3.016   1.325
76100SOL     OW30138  12.243  12.635   8.519
76100SOL    HW130139  12.305  12.645   8.446
76100SOL    HW230140  12.160  12.670   8.485
76101SOL     OW30141   8.354  12.486  10.105
76101SOL    HW130142   8.298  12.443  10.041
76101SOL    HW230143   8.371  12.418  10.171
76102SOL     OW30144   5.971   9.464   5.849
76102SOL    HW130145   6.007   9.478   5.937
76102SOL    HW230146   6.032   9.403   5.808
76103SOL     OW30147   1.254   5.622  10.847
76103SOL    HW130148   1.275   5.602  10.755
76103SOL    HW230149   1.309   5.562  10.897
76104SOL     OW30150   9.663   0.917   0.924
76104SOL    HW130151   9.579   0.906   0.879
76104SOL    HW230152   9.639   0.938   1.014
76105SOL     OW30153   4.813   8.776  12.019
76105SOL    HW130154   4.750   8.722  11.972
76105SOL    HW230155   4.762   8.850  12.051
76106SOL     OW30156   7.475  11.669  12.615
76106SOL    HW130157   7.403  11.705  12.562
76106SOL    HW230158   7.513  11.746  12.658
76107SOL     OW30159   7.971  13.023   3.709
76107SOL    HW130160   7.952  12.929   3.701
76107SOL    HW230161   8.067  13.028   3.708
76108SOL     OW30162  12.269   0.606   1.932
76108SOL    HW130163  12.303   0.611   2.021
76108SOL    HW230164  12.346   0.592   1.878
76109SOL     OW30165   5.696   8.034  10.646
76109SOL    HW130166   5.779   8.051  10.692
76109SOL    HW230167   5.653   7.967  10.698
76110SOL     OW30168  11.385  13.130  13.743
76110SOL    HW130169  11.435  13.210  13.722
76110SOL    HW230170  11.435  13.060  13.700
76111SOL     OW30171  11.102  12.091   3.331
76111SOL    HW130172  11.041  12.023   3.304
76111SOL    HW230173  11.174  12.044   3.372
76112SOL     OW30174  13.308   0.438  11.310
76112SOL    HW130175  13.263   0.514  11.275
76112SOL    HW230176  13.279   0.433  11.401
76113SOL     OW30177   4.286   3.992   7.183
76113SOL    HW130178   4.233   4.034   7.251
76113SOL    HW230179   4.377   4.003   7.213
76114SOL     OW30180   5.300   5.333  14.055
76114SOL    HW130181   5.379   5.283  14.034
76114SOL    HW230182   5.273   5.299  14.140
76115SOL     OW30183  14.091   2.080   8.370
76115SOL    HW130184  14.104   2.149   8.435
76115SOL    HW230185  14.049   2.009   8.419
76116SOL     OW30186   5.432  12.357   5.521
76116SOL    HW130187   5.401  12.268   5.509
76116SOL    HW230188   5.525  12.348   5.543
76117SOL     OW30189  10.820   9.920  12.111
76117SOL    HW130190  10.859   9.966  12.185
76117SOL    HW230191  10.817   9.986  12.041
76118SOL     OW30192   6.095  13.180  13.289
76118SOL    HW130193   6.034  13.251  13.308
76118SOL    HW230194   6.075  13.113  13.355
76119SOL     OW30195   7.365   5.619   4.027
76119SOL    HW130196   7.422   5.558   4.073
76119SOL    HW230197   7.277   5.582   4.037
76120SOL     OW30198  10.514  12.998   2.315
76120SOL    HW130199  10.467  13.078   2.337
76120SOL    HW230200  10.590  12.998   2.373
76121SOL     OW30201   0.726  14.348  10.863
76121SOL    HW130202   0.656  14.325  10.925
76121SOL    HW230203   0.693  14.425  10.817
76122SOL     OW30204   1.954   9.737  14.841
76122SOL    HW130205   1.957   9.831  14.861
76122SOL    HW230206   2.045   9.714  14.824
76123SOL     OW30207   3.308  12.111   3.933
76123SOL    HW130208   3.303  12.181   3.867
76123SOL    HW230209   3.272  12.150   4.013
76124SOL     OW30210   2.971  10.889  13.950
76124SOL    HW130211   3.011  10.802  13.951
76124SOL    HW230212   3.000  10.928  13.867
76125SOL     OW30213   3.988   6.974   3.438
76125SOL    HW130214   3.897   6.978   3.410
76125SOL    HW230215   4.026   7.057   3.410
76126SOL     OW30216  12.630   4.257   3.891
76126SOL    HW130217  12.567   4.275   3.960
76126SOL    HW230218  12.676   4.339   3.877
76127SOL     OW30219  11.386   9.967   3.775
76127SOL    HW130220  11.389  10.018   3.857
76127SOL    HW230221  11.478   9.954   3.752
76128SOL     OW30222   3.079   7.827   8.023
76128SOL    HW130223   3.071   7.750   7.966
76128SOL    HW230224   3.113   7.793   8.105
76129SOL     OW30225   8.570   6.076  10.985
76129SOL    HW130226   8.532   6.000  10.941
76129SOL    HW230227   8.501   6.106  11.045
76130SOL     OW30228   0.405   0.503  14.461
76130SOL    HW130229   0.487   0.485  14.416
76130SOL    HW230230   0.381   0.591  14.433
76131SOL     OW30231   1.589   9.878  14.298
76131SOL    HW130232   1.516   9.817  14.308
76131SOL    HW230233   1.666   9.827  14.325
76132SOL     OW30234  12.600   0.504   9.551
76132SOL    HW130235  12.691   0.509   9.522
76132SOL    HW230236  12.553   0.474   9.474
76133SOL     OW30237  13.440   7.700   9.546
76133SOL    HW130238  13.414   7.779   9.499
76133SOL    HW230239  13.535   7.706   9.554
76134SOL     OW30240   6.530   5.108  11.530
76134SOL    HW130241   6.437   5.100  11.509
76134SOL    HW230242   6.538   5.069  11.616
76135SOL     OW30243   4.808   2.285   3.918
76135SOL    HW130244   4.871   2.228   3.875
76135SOL    HW230245   4.760   2.327   3.846
76136SOL     OW30246   2.095   9.133   9.697
76136SOL    HW130247   2.057   9.207   9.650
76136SOL    HW230248   2.083   9.058   9.640
76137SOL     OW30249   4.128   3.818   0.569
76137SOL    HW130250   4.223   3.810   0.564
76137SOL    HW230251   4.097   3.729   0.585
76138SOL     OW30252  13.213   2.023  12.445
76138SOL    HW130253  13.190   2.084  12.374
76138SOL    HW230254  13.149   1.952  12.436
76139SOL     OW30255   6.990  14.204   6.260
76139SOL    HW130256   7.049  14.245   6.323
76139SOL    HW230257   6.907  14.196   6.306
76140SOL     OW30258  14.244  12.922   7.023
76140SOL    HW130259  14.330  12.926   6.981
76140SOL    HW230260  14.255  12.971   7.104
76141SOL     OW30261   4.029   3.340   7.874
76141SOL    HW130262   4.099   3.277   7.890
76141SOL    HW230263   3.968   3.327   7.946
76142SOL     OW30264   4.670   4.839  11.145
76142SOL    HW130265   4.745   4.862  11.089
76142SOL    HW230266   4.705   4.846  11.234
76143SOL     OW30267   6.523   5.683   3.494
76143SOL    HW130268   6.441   5.684   3.446
76143SOL    HW230269   6.579   5.745   3.448
76144SOL     OW30270   8.739   7.436   4.293
76144SOL    HW130271   8.812   7.430   4.231
76144SOL    HW230272   8.779   7.472   4.373
76145SOL     OW30273   8.977   1.561   1.380
76145SOL    HW130274   8.891   1.544   1.419
76145SOL    HW230275   8.992   1.654   1.394
76146SOL     OW30276   6.864   4.195   5.016
76146SOL    HW130277   6.935   4.135   4.992
76146SOL    HW230278   6.841   4.240   4.934
76147SOL     OW30279   6.054  14.244   8.366
76147SOL    HW130280   5.974  14.194   8.383
76147SOL    HW230281   6.123  14.194   8.410
76148SOL     OW30282   7.578  11.967   3.939
76148SOL    HW130283   7.608  12.044   3.890
76148SOL    HW230284   7.656  11.913   3.949
76149SOL     OW30285  13.031  10.919   1.173
76149SOL    HW130286  13.050  10.826   1.166
76149SOL    HW230287  13.113  10.959   1.200
76150SOL     OW30288   6.391   7.270   3.669
76150SOL    HW130289   6.333   7.341   3.697
76150SOL    HW230290   6.373   7.198   3.729
76151SOL     OW30291   5.699   3.285  12.993
76151SOL    HW130292   5.614   3.317  13.021
76151SOL    HW230293   5.760   3.313  13.061
76152SOL     OW30294   4.534   4.001   6.807
76152SOL    HW130295   4.595   3.936   6.843
76152SOL    HW230296   4.566   4.017   6.719
76153SOL     OW30297  10.128  14.574   7.587
76153SOL    HW130298  10.209  14.610   7.620
76153SOL    HW230299  10.154  14.519   7.513
76154SOL     OW30300  10.388   0.323   0.288
76154SOL    HW130301  10.411   0.354   0.200
76154SOL    HW230302  10.387   0.228   0.279
76155SOL     OW30303  13.299   0.014   1.420
76155SOL    HW130304  13.257   0.055   1.495
76155SOL    HW230305  13.227  14.871   1.358
76156SOL     OW30306   2.332   4.809  11.471
76156SOL    HW130307   2.338   4.863  11.392
76156SOL    HW230308   2.252   4.838  11.514
76157SOL     OW30309  11.767  13.363   1.954
76157SOL    HW130310  11.803  13.382   1.867
76157SOL    HW230311  11.825  13.296   1.989
76158SOL     OW30312   8.577   3.449  10.317
76158SOL    HW130313   8.554   3.536  10.350
76158SOL    HW230314   8.558   3.390  10.390
76159SOL     OW30315  13.999   7.245  14.070
76159SOL    HW130316  13.959   7.175  14.019
76159SOL    HW230317  13.950   7.246  14.152
76160SOL     OW30318  14.569  13.256  13.907
76160SOL    HW130319  14.540  13.187  13.848
76160SOL    HW230320  14.635  13.304  13.857
76161SOL     OW30321  14.603   4.527   4.554
76161SOL    HW130322  14.581   4.605   4.606
76161SOL    HW230323  14.520   4.481   4.543
76162SOL     OW30324   2.228  14.338  14.192
76162SOL    HW130325   2.315  14.361  14.223
76162SOL    HW230326   2.223  14.375  14.104
76163SOL     OW30327   6.465   6.726  10.756
76163SOL    HW130328   6.449   6.643  10.712
76163SOL    HW230329   6.454   6.707  10.849
76164SOL     OW30330  11.870   1.013   8.747
76164SOL    HW130331  11.803   0.953   8.779
76164SOL    HW230332  11.930   1.023   8.820
76165SOL     OW30333   6.436   8.318   0.644
76165SOL    HW130334   6.486   8.358   0.716
76165SOL    HW230335   6.411   8.232   0.677
76166SOL     OW30336   1.336   5.333   2.582
76166SOL    HW130337   1.342   5.425   2.558
76166SOL    HW230338   1.385   5.286   2.515
76167SOL     OW30339  12.504   0.988   0.310
76167SOL    HW130340  12.457   1.052   0.256
76167SOL    HW230341  12.567   0.948   0.251
76168SOL     OW30342   8.627  12.378  12.087
76168SOL    HW130343   8.658  12.305  12.034
76168SOL    HW230344   8.579  12.337  12.159
76169SOL     OW30345   6.316   0.364  14.174
76169SOL    HW130346   6.297   0.415  14.095
76169SOL    HW230347   6.265   0.284  14.164
76170SOL     OW30348   6.872   1.318  12.441
76170SOL    HW130349   6.884   1.387  12.376
76170SOL    HW230350   6.779   1.319  12.461
76171SOL     OW30351   6.229   7.552  10.801
76171SOL    HW130352   6.241   7.458  10.809
76171SOL    HW230353   6.203   7.566  10.710
76172SOL     OW30354   5.149   7.671   9.205
76172SOL    HW130355   5.197   7.655   9.124
76172SOL    HW230356   5.161   7.764   9.222
76173SOL     OW30357   5.797   9.872  13.294
76173SOL    HW130358   5.875   9.873  13.239
76173SOL    HW230359   5.765   9.963  13.292
76174SOL     OW30360   6.981  14.480  12.505
76174SOL    HW130361   6.986  14.396  12.459
76174SOL    HW230362   6.961  14.544  12.436
76175SOL     OW30363   4.293   2.588  11.832
76175SOL    HW130364   4.285   2.517  11.769
76175SOL    HW230365   4.357   2.557  11.896
76176SOL     OW30366   8.023  14.300  10.150
76176SOL    HW130367   7.989  14.344  10.228
76176SOL    HW230368   8.083  14.363  10.111
76177SOL     OW30369   7.306  14.215  14.507
76177SOL    HW130370   7.393  14.177  14.501
76177SOL    HW230371   7.318  14.307  14.484
76178SOL     OW30372   8.369   8.028  12.243
76178SOL    HW130373   8.289   8.071  12.214
76178SOL    HW230374   8.392   7.969  12.172
76179SOL     OW30375  11.732   1.936   0.445
76179SOL    HW130376  11.653   1.885   0.466
76179SOL    HW230377  11.717   1.969   0.357
76180SOL     OW30378  13.580   9.262   2.344
76180SOL    HW130379  13.597   9.245   2.437
76180SOL    HW230380  13.509   9.202   2.321
76181SOL     OW30381   1.507   1.151   0.630
76181SOL    HW130382   1.454   1.090   0.579
76181SOL    HW230383   1.480   1.237   0.599
76182SOL     OW30384  11.839   9.392  10.243
76182SOL    HW130385  11.763   9.382  10.301
76182SOL    HW230386  11.897   9.452  10.289
76183SOL     OW30387   1.888   4.670   8.630
76183SOL    HW130388   1.798   4.663   8.661
76183SOL    HW230389   1.894   4.608   8.558
76184SOL     OW30390   5.790   5.040   7.248
76184SOL    HW130391   5.864   5.099   7.246
76184SOL    HW230392   5.786   5.002   7.159
76185SOL     OW30393  13.632   5.736   8.136
76185SOL    HW130394  13.550   5.762   8.095
76185SOL    HW230395  13.606   5.694   8.218
76186SOL     OW30396   3.490  14.625   4.529
76186SOL    HW130397   3.433  14.582   4.465
76186SOL    HW230398   3.549  14.555   4.559
76187SOL     OW30399   5.714  13.303   0.573
76187SOL    HW130400   5.734  13.299   0.479
76187SOL    HW230401   5.622  13.328   0.577
76188SOL     OW30402   3.131   6.681  13.413
76188SOL    HW130403   3.055   6.702  13.468
76188SOL    HW230404   3.189   6.756  13.423
76189SOL     OW30405   3.323  12.926   0.494
76189SOL    HW130406   3.247  12.885   0.452
76189SOL    HW230407   3.332  13.010   0.449
76190SOL     OW30408  11.806   3.409   7.487
76190SOL    HW130409  11.729   3.355   7.506
76190SOL    HW230410  11.879   3.348   7.487
76191SOL     OW30411   0.607   0.790   9.383
76191SOL    HW130412   0.624   0.717   9.323
76191SOL    HW230413   0.530   0.834   9.345
76192SOL     OW30414   7.596   8.340  10.164
76192SOL    HW130415   7.534   8.362  10.094
76192SOL    HW230416   7.547   8.358  10.245
76193SOL     OW30417   5.123   8.870   7.234
76193SOL    HW130418   5.114   8.869   7.329
76193SOL    HW230419   5.072   8.946   7.205
76194SOL     OW30420   9.974   1.086   9.616
76194SOL    HW130421  10.031   1.117   9.686
76194SOL    HW230422   9.946   0.999   9.645
76195SOL     OW30423  12.758  13.146  14.799
76195SOL    HW130424  12.797  13.214  14.745
76195SOL    HW230425  12.675  13.124  14.756
76196SOL     OW30426   1.538   7.903   2.130
76196SOL    HW130427   1.563   7.924   2.220
76196SOL    HW230428   1.544   7.808   2.125
76197SOL     OW30429  13.072  14.288  12.927
76197SOL    HW130430  13.025  14.268  12.847
76197SOL    HW230431  13.163  14.303  12.899
76198SOL     OW30432  12.868   7.480   2.697
76198SOL    HW130433  12.899   7.409   2.641
76198SOL    HW230434  12.934   7.487   2.766
76199SOL     OW30435   0.195  10.245   1.857
76199SOL    HW130436   0.219  10.183   1.787
76199SOL    HW230437   0.194  10.330   1.814
76200SOL     OW30438   9.514   0.661  12.105
76200SOL    HW130439   9.497   0.696  12.018
76200SOL    HW230440   9.603   0.691  12.126
76201SOL     OW30441  11.943  14.554   3.549
76201SOL    HW130442  11.956  14.637   3.504
76201SOL    HW230443  11.938  14.578   3.642
76202SOL     OW30444  12.480  12.234   1.739
76202SOL    HW130445  12.524  12.283   1.809
76202SOL    HW230446  12.413  12.182   1.785
76203SOL     OW30447   6.218   9.472   0.161
76203SOL    HW130448   6.154   9.502   0.096
76203SOL    HW230449   6.294   9.447   0.109
76204SOL     OW30450  11.811  11.900   7.684
76204SOL    HW130451  11.756  11.822   7.692
76204SOL    HW230452  11.749  11.973   7.684
76205SOL     OW30453   7.362   7.095   8.781
76205SOL    HW130454   7.366   7.000   8.797
76205SOL    HW230455   7.289   7.125   8.836
76206SOL     OW30456   2.545   8.007   6.998
76206SOL    HW130457   2.570   8.092   7.033
76206SOL    HW230458   2.606   7.992   6.925
76207SOL     OW30459  11.997   1.490   9.663
76207SOL    HW130460  12.017   1.456   9.576
76207SOL    HW230461  11.920   1.545   9.649
76208SOL     OW30462   2.003   6.387   7.356
76208SOL    HW130463   1.943   6.369   7.429
76208SOL    HW230464   2.088   6.402   7.398
76209SOL     OW30465   3.932   8.585  10.811
76209SOL    HW130466   3.900   8.667  10.849
76209SOL    HW230467   3.941   8.526  10.886
76210SOL     OW30468   6.078   0.114  11.919
76210SOL    HW130469   6.073   0.097  12.013
76210SOL    HW230470   6.059   0.208  11.911
76211SOL     OW30471  10.975   3.734   7.891
76211SOL    HW130472  11.030   3.761   7.818
76211SOL    HW230473  10.929   3.813   7.917
76212SOL     OW30474  14.745   7.004   4.370
76212SOL    HW130475  14.757   7.084   4.318
76212SOL    HW230476  14.823   6.999   4.425
76213SOL     OW30477  10.766  11.347   1.884
76213SOL    HW130478  10.758  11.291   1.807
76213SOL    HW230479  10.704  11.418   1.869
76214SOL     OW30480  12.148  14.644   9.113
76214SOL    HW130481  12.196  14.654   9.031
76214SOL    HW230482  12.107  14.558   9.107
76215SOL     OW30483   3.787   9.044   0.640
76215SOL    HW130484   3.739   9.057   0.558
76215SOL    HW230485   3.879   9.040   0.613
76216SOL     OW30486  13.212   8.861   2.282
76216SOL    HW130487  13.131   8.881   2.328
76216SOL    HW230488  13.238   8.775   2.315
76217SOL     OW30489   4.530   1.579  13.157
76217SOL    HW130490   4.550   1.666  13.123
76217SOL    HW230491   4.460   1.546  13.100
76218SOL     OW30492   6.133   5.369  13.641
76218SOL    HW130493   6.050   5.323  13.627
76218SOL    HW230494   6.109   5.461  13.652
76219SOL     OW30495  13.389   8.934   8.590
76219SOL    HW130496  13.362   8.898   8.505
76219SOL    HW230497  13.397   8.859   8.647
76220SOL     OW30498   8.110   0.170   3.942
76220SOL    HW130499   8.190   0.200   3.983
76220SOL    HW230500   8.040   0.209   3.994
76221SOL     OW30501   8.572  14.573   4.337
76221SOL    HW130502   8.572  14.527   4.421
76221SOL    HW230503   8.644  14.635   4.344
76222SOL     OW30504   4.605   9.256  10.267
76222SOL    HW130505   4.519   9.216  10.282
76222SOL    HW230506   4.624   9.303  10.348
76223SOL     OW30507  12.054  13.746   8.967
76223SOL    HW130508  12.088  13.663   9.001
76223SOL    HW230509  12.069  13.742   8.873
76224SOL     OW30510  11.814   0.383   0.085
76224SOL    HW130511  11.799   0.354  14.868
76224SOL    HW230512  11.780   0.473   0.087
76225SOL     OW30513  12.785   4.915   1.552
76225SOL    HW130514  12.751   4.909   1.463
76225SOL    HW230515  12.714   4.958   1.601
76226SOL     OW30516  10.645   3.897  11.795
76226SOL    HW130517  10.691   3.907  11.879
76226SOL    HW230518  10.697   3.834  11.746
76227SOL     OW30519   4.374   9.828   8.818
76227SOL    HW130520   4.340   9.918   8.820
76227SOL    HW230521   4.393   9.808   8.910
76228SOL     OW30522  10.363  14.679   9.548
76228SOL    HW130523  10.399  14.659   9.635
76228SOL    HW230524  10.314  14.600   9.525
76229SOL     OW30525   2.187  11.613   7.024
76229SOL    HW130526   2.173  11.547   7.092
76229SOL    HW230527   2.107  11.609   6.971
76230SOL     OW30528   2.461   6.077   4.879
76230SOL    HW130529   2.509   6.137   4.821
76230SOL    HW230530   2.422   6.013   4.820
76231SOL     OW30531   1.180   4.429  14.453
76231SOL    HW130532   1.259   4.376  14.458
76231SOL    HW230533   1.178   4.461  14.363
76232SOL     OW30534   3.802   0.945   3.004
76232SOL    HW130535   3.716   0.969   3.039
76232SOL    HW230536   3.793   0.954   2.909
76233SOL     OW30537   5.733   4.891   6.024
76233SOL    HW130538   5.660   4.887   5.963
76233SOL    HW230539   5.804   4.932   5.974
76234SOL     OW30540  13.439   9.713   8.068
76234SOL    HW130541  13.475   9.639   8.020
76234SOL    HW230542  13.486   9.789   8.034
76235SOL     OW30543   7.341  14.343   5.448
76235SOL    HW130544   7.316  14.408   5.382
76235SOL    HW230545   7.428  14.370   5.477
76236SOL     OW30546   2.594   1.418   3.819
76236SOL    HW130547   2.567   1.479   3.888
76236SOL    HW230548   2.648   1.353   3.864
76237SOL     OW30549  11.235   7.772   5.336
76237SOL    HW130550  11.153   7.817   5.317
76237SOL    HW230551  11.231   7.753   5.430
76238SOL     OW30552   3.283   5.200   0.065
76238SOL    HW130553   3.354   5.264   0.056
76238SOL    HW230554   3.207   5.241   0.025
76239SOL     OW30555   5.258   5.429  12.730
76239SOL    HW130556   5.351   5.446  12.743
76239SOL    HW230557   5.214   5.495  12.784
76240SOL     OW30558   2.421   6.774   1.782
76240SOL    HW130559   2.498   6.785   1.727
76240SOL    HW230560   2.349   6.809   1.729
76241SOL     OW30561   5.719   8.121   0.384
76241SOL    HW130562   5.662   8.158   0.452
76241SOL    HW230563   5.749   8.197   0.334
76242SOL     OW30564   7.665  11.213  11.422
76242SOL    HW130565   7.754  11.194  11.391
76242SOL    HW230566   7.638  11.132  11.466
76243SOL     OW30567   3.739  12.614   8.233
76243SOL    HW130568   3.782  12.529   8.234
76243SOL    HW230569   3.646  12.594   8.219
76244SOL     OW30570   1.156   4.866   1.846
76244SOL    HW130571   1.229   4.805   1.853
76244SOL    HW230572   1.081   4.817   1.878
76245SOL     OW30573  10.900  14.201   7.415
76245SOL    HW130574  10.942  14.275   7.459
76245SOL    HW230575  10.941  14.123   7.453
76246SOL     OW30576   1.234  12.163  11.005
76246SOL    HW130577   1.160  12.143  11.063
76246SOL    HW230578   1.272  12.078  10.984
76247SOL     OW30579   8.002   9.878  10.654
76247SOL    HW130580   8.078   9.936  10.662
76247SOL    HW230581   7.967   9.873  10.743
76248SOL     OW30582  14.248   1.321   5.746
76248SOL    HW130583  14.241   1.357   5.835
76248SOL    HW230584  14.262   1.397   5.690
76249SOL     OW30585   7.661   4.599   8.181
76249SOL    HW130586   7.637   4.545   8.256
76249SOL    HW230587   7.728   4.659   8.214
76250SOL     OW30588   8.682  12.976   6.326
76250SOL    HW130589   8.766  12.935   6.349
76250SOL    HW230590   8.675  13.051   6.385
76251SOL     OW30591   2.767   9.217   2.909
76251SOL    HW130592   2.837   9.153   2.923
76251SOL    HW230593   2.721   9.221   2.992
76252SOL     OW30594   6.545  10.775  12.041
76252SOL    HW130595   6.478  10.728  11.991
76252SOL    HW230596   6.623  10.771  11.987
76253SOL     OW30597   0.744  11.608  10.104
76253SOL    HW130598   0.764  11.540  10.169
76253SOL    HW230599   0.745  11.562  10.020
76254SOL     OW30600   8.107   4.104   4.617
76254SOL    HW130601   8.189   4.091   4.664
76254SOL    HW230602   8.127   4.079   4.527
76255SOL     OW30603   1.739  14.405  14.140
76255SOL    HW130604   1.786  14.486  14.119
76255SOL    HW230605   1.775  14.340  14.079
76256SOL     OW30606  11.082   8.101   5.143
76256SOL    HW130607  11.111   8.132   5.229
76256SOL    HW230608  10.993   8.069   5.158
76257SOL     OW30609   5.665   9.546   9.840
76257SOL    HW130610   5.726   9.509   9.903
76257SOL    HW230611   5.717   9.608   9.789
76258SOL     OW30612   3.380   1.610   5.088
76258SOL    HW130613   3.466   1.629   5.125
76258SOL    HW230614   3.389   1.523   5.049
76259SOL     OW30615  10.721   8.011  11.982
76259SOL    HW130616  10.714   7.991  12.075
76259SOL    HW230617  10.632   8.034  11.955
76260SOL     OW30618   7.121   2.689   4.950
76260SOL    HW130619   7.098   2.611   4.899
76260SOL    HW230620   7.182   2.737   4.894
76261SOL     OW30621  11.526  14.490   8.656
76261SOL    HW130622  11.477  14.538   8.589
76261SOL    HW230623  11.489  14.401   8.653
76262SOL     OW30624  10.766   4.673   5.973
76262SOL    HW130625  10.696   4.711   5.919
76262SOL    HW230626  10.837   4.738   5.968
76263SOL     OW30627  11.683   9.864   3.194
76263SOL    HW130628  11.643   9.944   3.229
76263SOL    HW230629  11.611   9.801   3.190
76264SOL     OW30630   7.344   8.027   5.483
76264SOL    HW130631   7.351   8.011   5.577
76264SOL    HW230632   7.415   8.089   5.464
76265SOL     OW30633  11.225   7.672   1.370
76265SOL    HW130634  11.161   7.709   1.308
76265SOL    HW230635  11.279   7.746   1.397
76266SOL     OW30636  13.029  10.292   6.529
76266SOL    HW130637  13.008  10.269   6.619
76266SOL    HW230638  13.097  10.230   6.503
76267SOL     OW30639  13.908   9.352   3.104
76267SOL    HW130640  13.859   9.404   3.040
76267SOL    HW230641  13.879   9.262   3.089
76268SOL     OW30642   4.176   8.697   4.670
76268SOL    HW130643   4.195   8.628   4.607
76268SOL    HW230644   4.083   8.684   4.692
76269SOL     OW30645   3.230   3.536   4.305
76269SOL    HW130646   3.232   3.616   4.252
76269SOL    HW230647   3.205   3.467   4.243
76270SOL     OW30648  11.152   3.279   8.174
76270SOL    HW130649  11.068   3.260   8.131
76270SOL    HW230650  11.199   3.196   8.174
76271SOL     OW30651  10.139   2.351  12.174
76271SOL    HW130652  10.093   2.424  12.134
76271SOL    HW230653  10.229   2.359  12.142
76272SOL     OW30654  14.357   9.722   3.633
76272SOL    HW130655  14.275   9.731   3.584
76272SOL    HW230656  14.329   9.698   3.722
76273SOL     OW30657   4.701  13.506   5.019
76273SOL    HW130658   4.773  13.566   5.001
76273SOL    HW230659   4.676  13.473   4.933
76274SOL     OW30660  14.621   5.397   3.807
76274SOL    HW130661  14.714   5.405   3.788
76274SOL    HW230662  14.612   5.311   3.849
76275SOL     OW30663   3.433  13.307  10.405
76275SOL    HW130664   3.378  13.268  10.338
76275SOL    HW230665   3.433  13.401  10.385
76276SOL     OW30666   4.399  12.674   8.940
76276SOL    HW130667   4.308  12.699   8.957
76276SOL    HW230668   4.433  12.744   8.885
76277SOL     OW30669  13.701   0.458   0.584
76277SOL    HW130670  13.772   0.467   0.648
76277SOL    HW230671  13.741   0.411   0.511
76278SOL     OW30672  10.071   0.212  10.182
76278SOL    HW130673  10.028   0.151  10.242
76278SOL    HW230674  10.030   0.296  10.201
76279SOL     OW30675  12.573  13.757  13.384
76279SOL    HW130676  12.585  13.662  13.383
76279SOL    HW230677  12.491  13.772  13.337
76280SOL     OW30678   3.658   1.309  14.401
76280SOL    HW130679   3.711   1.388  14.414
76280SOL    HW230680   3.570   1.342  14.384
76281SOL     OW30681  10.268   4.082  12.697
76281SOL    HW130682  10.189   4.132  12.676
76281SOL    HW230683  10.260   4.003  12.643
76282SOL     OW30684  11.153  14.351   4.849
76282SOL    HW130685  11.131  14.263   4.820
76282SOL    HW230686  11.103  14.364   4.930
76283SOL     OW30687   5.219   3.614   7.864
76283SOL    HW130688   5.257   3.527   7.876
76283SOL    HW230689   5.149   3.601   7.800
76284SOL     OW30690   8.291  11.199  12.956
76284SOL    HW130691   8.313  11.124  12.901
76284SOL    HW230692   8.368  11.256  12.951
76285SOL     OW30693  11.839   9.176   7.856
76285SOL    HW130694  11.771   9.109   7.841
76285SOL    HW230695  11.882   9.185   7.771
76286SOL     OW30696  10.263  12.014   5.730
76286SOL    HW130697  10.336  12.075   5.741
76286SOL    HW230698  10.210  12.026   5.809
76287SOL     OW30699   8.923  13.898  14.408
76287SOL    HW130700   8.895  13.869  14.495
76287SOL    HW230701   8.943  13.991  14.419
76288SOL     OW30702   1.829   3.253   0.810
76288SOL    HW130703   1.825   3.346   0.785
76288SOL    HW230704   1.742   3.234   0.846
76289SOL     OW30705   3.820   9.832  14.589
76289SOL    HW130706   3.829   9.765  14.656
76289SOL    HW230707   3.887   9.811  14.525
76290SOL     OW30708   1.788   5.732  12.145
76290SOL    HW130709   1.862   5.792  12.148
76290SOL    HW230710   1.712   5.787  12.128
76291SOL     OW30711   9.515   1.910   3.295
76291SOL    HW130712   9.523   2.003   3.313
76291SOL    HW230713   9.580   1.892   3.227
76292SOL     OW30714   9.077   0.730   0.275
76292SOL    HW130715   9.055   0.790   0.203
76292SOL    HW230716   8.993   0.695   0.304
76293SOL     OW30717  11.015   7.426  11.321
76293SOL    HW130718  11.021   7.512  11.281
76293SOL    HW230719  10.933   7.428  11.370
76294SOL     OW30720   7.418   0.442  10.836
76294SOL    HW130721   7.471   0.473  10.763
76294SOL    HW230722   7.328   0.445  10.803
76295SOL     OW30723  11.926   5.251   7.806
76295SOL    HW130724  11.937   5.156   7.803
76295SOL    HW230725  11.870   5.271   7.732
76296SOL     OW30726   5.534  13.980  14.763
76296SOL    HW130727   5.550  13.888  14.742
76296SOL    HW230728   5.599  14.001  14.830
76297SOL     OW30729   9.039   4.510   3.096
76297SOL    HW130730   9.106   4.458   3.051
76297SOL    HW230731   8.993   4.556   3.025
76298SOL     OW30732   5.007   1.122  12.077
76298SOL    HW130733   4.973   1.164  11.997
76298SOL    HW230734   5.102   1.123  12.066
76299SOL     OW30735   2.665  10.494   2.990
76299SOL    HW130736   2.619  10.534   2.916
76299SOL    HW230737   2.635  10.403   2.991
76300SOL     OW30738   5.424   8.297   2.699
76300SOL    HW130739   5.518   8.314   2.692
76300SOL    HW230740   5.417   8.235   2.772
76301SOL     OW30741  11.835  11.503   3.606
76301SOL    HW130742  11.768  11.529   3.542
76301SOL    HW230743  11.787  11.450   3.670
76302SOL     OW30744   2.298   1.656   9.156
76302SOL    HW130745   2.290   1.571   9.199
76302SOL    HW230746   2.319   1.717   9.227
76303SOL     OW30747   2.082   5.329   1.413
76303SOL    HW130748   2.069   5.292   1.326
76303SOL    HW230749   1.997   5.365   1.437
76304SOL     OW30750   6.642   7.944   4.195
76304SOL    HW130751   6.629   7.854   4.165
76304SOL    HW230752   6.721   7.973   4.150
76305SOL     OW30753   5.847   4.451  10.580
76305SOL    HW130754   5.882   4.533  10.615
76305SOL    HW230755   5.872   4.453  10.487
76306SOL     OW30756   8.455  10.381   5.314
76306SOL    HW130757   8.471  10.404   5.405
76306SOL    HW230758   8.541  10.389   5.272
76307SOL     OW30759   9.229   6.124  14.779
76307SOL    HW130760   9.174   6.134  14.857
76307SOL    HW230761   9.269   6.037  14.789
76308SOL     OW30762   5.467  11.263   7.545
76308SOL    HW130763   5.401  11.212   7.498
76308SOL    HW230764   5.419  11.337   7.582
76309SOL     OW30765  13.898   3.918   8.950
76309SOL    HW130766  13.896   3.895   9.043
76309SOL    HW230767  13.929   4.008   8.948
76310SOL     OW30768  12.957  10.361  14.408
76310SOL    HW130769  12.899  10.328  14.340
76310SOL    HW230770  12.905  10.426  14.455
76311SOL     OW30771  13.283  10.127   9.085
76311SOL    HW130772  13.206  10.178   9.111
76311SOL    HW230773  13.257  10.084   9.004
76312SOL     OW30774   8.289  12.478   5.241
76312SOL    HW130775   8.202  12.459   5.207
76312SOL    HW230776   8.302  12.415   5.312
76313SOL     OW30777  13.681   8.451  13.335
76313SOL    HW130778  13.754   8.419  13.388
76313SOL    HW230779  13.621   8.491  13.398
76314SOL     OW30780  11.599   5.623   2.549
76314SOL    HW130781  11.616   5.641   2.641
76314SOL    HW230782  11.513   5.661   2.532
76315SOL     OW30783   6.409  12.178   4.604
76315SOL    HW130784   6.338  12.221   4.555
76315SOL    HW230785   6.421  12.094   4.558
76316SOL     OW30786  13.920  13.606   7.323
76316SOL    HW130787  14.005  13.565   7.306
76316SOL    HW230788  13.857  13.534   7.314
76317SOL     OW30789   0.712  13.381   8.800
76317SOL    HW130790   0.751  13.468   8.790
76317SOL    HW230791   0.619  13.394   8.787
76318SOL     OW30792  14.075   1.844   9.274
76318SOL    HW130793  14.022   1.802   9.341
76318SOL    HW230794  14.019   1.849   9.197
76319SOL     OW30795  11.266   0.184   7.164
76319SOL    HW130796  11.289   0.102   7.121
76319SOL    HW230797  11.173   0.196   7.145
76320SOL     OW30798   7.396   7.564   5.831
76320SOL    HW130799   7.322   7.616   5.800
76320SOL    HW230800   7.439   7.534   5.751
76321SOL     OW30801  11.258  11.128   6.507
76321SOL    HW130802  11.163  11.124   6.508
76321SOL    HW230803  11.284  11.065   6.440
76322SOL     OW30804   0.377  12.705   4.903
76322SOL    HW130805   0.311  12.716   4.972
76322SOL    HW230806   0.402  12.794   4.879
76323SOL     OW30807   8.453   3.898   6.558
76323SOL    HW130808   8.537   3.913   6.513
76323SOL    HW230809   8.477   3.890   6.650
76324SOL     OW30810   7.288   1.574   8.566
76324SOL    HW130811   7.256   1.637   8.502
76324SOL    HW230812   7.312   1.627   8.643
76325SOL     OW30813  14.134  11.681  12.595
76325SOL    HW130814  14.209  11.621  12.595
76325SOL    HW230815  14.088  11.662  12.513
76326SOL     OW30816   5.577   0.729   6.318
76326SOL    HW130817   5.653   0.697   6.366
76326SOL    HW230818   5.504   0.678   6.352
76327SOL     OW30819   7.397  13.022   1.579
76327SOL    HW130820   7.411  13.014   1.484
76327SOL    HW230821   7.415  13.115   1.597
76328SOL     OW30822  12.658  10.140  11.076
76328SOL    HW130823  12.715  10.084  11.129
76328SOL    HW230824  12.600  10.182  11.138
76329SOL     OW30825   1.105   3.355   7.693
76329SOL    HW130826   1.009   3.360   7.702
76329SOL    HW230827   1.131   3.444   7.669
76330SOL     OW30828  10.187  11.183   8.515
76330SOL    HW130829  10.159  11.200   8.425
76330SOL    HW230830  10.126  11.116   8.547
76331SOL     OW30831  13.112  13.814   0.369
76331SOL    HW130832  13.062  13.810   0.451
76331SOL    HW230833  13.199  13.780   0.392
76332SOL     OW30834   1.496   9.521  10.979
76332SOL    HW130835   1.419   9.472  10.950
76332SOL    HW230836   1.532   9.468  11.050
76333SOL     OW30837   2.973   4.999   0.410
76333SOL    HW130838   3.020   5.052   0.346
76333SOL    HW230839   2.881   5.014   0.390
76334SOL     OW30840   6.379   8.655   2.220
76334SOL    HW130841   6.432   8.714   2.274
76334SOL    HW230842   6.341   8.712   2.154
76335SOL     OW30843   3.188   2.973   2.379
76335SOL    HW130844   3.122   2.911   2.349
76335SOL    HW230845   3.195   3.037   2.308
76336SOL     OW30846   2.298   7.697  12.540
76336SOL    HW130847   2.353   7.622  12.562
76336SOL    HW230848   2.277   7.736  12.625
76337SOL     OW30849   7.242  13.742   3.812
76337SOL    HW130850   7.319  13.783   3.773
76337SOL    HW230851   7.238  13.778   3.901
76338SOL     OW30852  11.324  10.949   7.411
76338SOL    HW130853  11.312  11.023   7.352
76338SOL    HW230854  11.236  10.916   7.427
76339SOL     OW30855  12.475   3.143  12.127
76339SOL    HW130856  12.569   3.162  12.119
76339SOL    HW230857  12.459   3.140  12.221
76340SOL     OW30858   0.806   1.418   5.584
76340SOL    HW130859   0.724   1.430   5.536
76340SOL    HW230860   0.784   1.433   5.675
76341SOL     OW30861  13.402   1.936   1.810
76341SOL    HW130862  13.431   1.965   1.897
76341SOL    HW230863  13.385   1.843   1.820
76342SOL     OW30864   1.572   0.963   9.720
76342SOL    HW130865   1.553   0.873   9.744
76342SOL    HW230866   1.665   0.964   9.700
76343SOL     OW30867   5.473  13.104   0.006
76343SOL    HW130868   5.379  13.118   0.017
76343SOL    HW230869   5.501  13.060   0.085
76344SOL     OW30870   3.625   1.916   6.810
76344SOL    HW130871   3.564   1.880   6.746
76344SOL    HW230872   3.604   2.010   6.813
76345SOL     OW30873  14.148   3.655   6.525
76345SOL    HW130874  14.088   3.653   6.600
76345SOL    HW230875  14.093   3.681   6.451
76346SOL     OW30876  12.470   9.692   8.015
76346SOL    HW130877  12.450   9.781   8.044
76346SOL    HW230878  12.399   9.671   7.954
76347SOL     OW30879  14.176   1.972   7.262
76347SOL    HW130880  14.190   1.898   7.203
76347SOL    HW230881  14.205   2.048   7.212
76348SOL     OW30882  10.007   2.161   6.630
76348SOL    HW130883   9.949   2.235   6.648
76348SOL    HW230884  10.081   2.200   6.583
76349SOL     OW30885  12.999   8.957   9.105
76349SOL    HW130886  12.903   8.957   9.101
76349SOL    HW230887  13.019   8.934   9.195
76350SOL     OW30888   6.054   1.911   0.862
76350SOL    HW130889   6.025   1.922   0.772
76350SOL    HW230890   6.150   1.908   0.857
76351SOL     OW30891  10.032  14.744   6.349
76351SOL    HW130892   9.958  14.685   6.365
76351SOL    HW230893  10.084  14.699   6.282
76352SOL     OW30894   6.989   4.604   1.447
76352SOL    HW130895   7.074   4.562   1.457
76352SOL    HW230896   7.008   4.697   1.438
76353SOL     OW30897   3.915   7.528   2.123
76353SOL    HW130898   3.914   7.547   2.029
76353SOL    HW230899   3.856   7.592   2.161
76354SOL     OW30900   2.991   6.251   8.991
76354SOL    HW130901   2.915   6.293   8.952
76354SOL    HW230902   3.035   6.320   9.041
76355SOL     OW30903   1.189   2.572   4.699
76355SOL    HW130904   1.282   2.550   4.698
76355SOL    HW230905   1.175   2.609   4.787
76356SOL     OW30906  11.127   9.168   2.635
76356SOL    HW130907  11.073   9.106   2.684
76356SOL    HW230908  11.064   9.220   2.585
76357SOL     OW30909   6.572   5.345  13.521
76357SOL    HW130910   6.611   5.405  13.457
76357SOL    HW230911   6.498   5.306  13.475
76358SOL     OW30912   4.494   0.017  11.073
76358SOL    HW130913   4.536   0.055  10.995
76358SOL    HW230914   4.555  14.822  11.102
76359SOL     OW30915  13.648   0.902   4.897
76359SOL    HW130916  13.634   0.991   4.926
76359SOL    HW230917  13.638   0.849   4.976
76360SOL     OW30918   5.089   6.954   0.664
76360SOL    HW130919   5.014   6.928   0.611
76360SOL    HW230920   5.144   7.004   0.603
76361SOL     OW30921   2.481   6.155   7.322
76361SOL    HW130922   2.451   6.233   7.367
76361SOL    HW230923   2.516   6.186   7.239
76362SOL     OW30924   9.557   7.975  13.462
76362SOL    HW130925   9.497   7.911  13.499
76362SOL    HW230926   9.525   8.059  13.494
76363SOL     OW30927  14.520   6.667   3.479
76363SOL    HW130928  14.451   6.653   3.413
76363SOL    HW230929  14.486   6.627   3.558
76364SOL     OW30930  14.372   6.831  14.032
76364SOL    HW130931  14.314   6.773  13.982
76364SOL    HW230932  14.455   6.784  14.038
76365SOL     OW30933   6.949  13.350  13.363
76365SOL    HW130934   6.952  13.274  13.304
76365SOL    HW230935   6.989  13.318  13.444
76366SOL     OW30936  12.450   7.998   2.157
76366SOL    HW130937  12.452   8.005   2.062
76366SOL    HW230938  12.360   7.971   2.177
76367SOL     OW30939  13.278   4.728   5.548
76367SOL    HW130940  13.238   4.675   5.617
76367SOL    HW230941  13.310   4.665   5.484
76368SOL     OW30942  14.453  14.156  10.435
76368SOL    HW130943  14.548  14.144  10.439
76368SOL    HW230944  14.441  14.251  10.442
76369SOL     OW30945   4.013   0.575   1.552
76369SOL    HW130946   4.037   0.536   1.635
76369SOL    HW230947   3.979   0.502   1.499
76370SOL     OW30948   8.096   1.134  10.601
76370SOL    HW130949   8.174   1.150  10.655
76370SOL    HW230950   8.100   1.040  10.582
76371SOL     OW30951  11.236  12.354   5.355
76371SOL    HW130952  11.149  12.387   5.374
76371SOL    HW230953  11.292  12.392   5.423
76372SOL     OW30954   0.483  12.326   2.330
76372SOL    HW130955   0.564  12.335   2.280
76372SOL    HW230956   0.418  12.376   2.280
76373SOL     OW30957  14.632  12.783   9.359
76373SOL    HW130958  14.720  12.793   9.397
76373SOL    HW230959  14.573  12.794   9.433
76374SOL     OW30960   6.702   8.138   0.668
76374SOL    HW130961   6.766   8.102   0.607
76374SOL    HW230962   6.689   8.228   0.638
76375SOL     OW30963  13.020  13.908   2.345
76375SOL    HW130964  13.063  13.974   2.399
76375SOL    HW230965  13.019  13.829   2.399
76376SOL     OW30966  12.668   4.591  11.576
76376SOL    HW130967  12.683   4.577  11.482
76376SOL    HW230968  12.593   4.535  11.597
76377SOL     OW30969   3.067  11.126  14.093
76377SOL    HW130970   3.029  11.087  14.014
76377SOL    HW230971   3.022  11.082  14.165
76378SOL     OW30972  12.906   0.534   9.612
76378SOL    HW130973  12.862   0.618   9.622
76378SOL    HW230974  12.887   0.487   9.694
76379SOL     OW30975   8.301   3.851   8.440
76379SOL    HW130976   8.299   3.756   8.440
76379SOL    HW230977   8.350   3.874   8.518
76380SOL     OW30978   3.124  14.524   0.124
76380SOL    HW130979   3.143  14.431   0.135
76380SOL    HW230980   3.194  14.556   0.067
76381SOL     OW30981  14.085  12.966   9.498
76381SOL    HW130982  14.023  12.893   9.501
76381SOL    HW230983  14.070  13.007   9.413
76382SOL     OW30984   7.385   4.435   4.396
76382SOL    HW130985   7.364   4.374   4.325
76382SOL    HW230986   7.460   4.395   4.440
76383SOL     OW30987   1.827  12.740   2.620
76383SOL    HW130988   1.769  12.800   2.667
76383SOL    HW230989   1.771  12.700   2.553
76384SOL     OW30990  10.827   9.181   3.465
76384SOL    HW130991  10.809   9.207   3.375
76384SOL    HW230992  10.759   9.223   3.517
76385SOL     OW30993   2.713  14.243  10.282
76385SOL    HW130994   2.745  14.156  10.259
76385SOL    HW230995   2.635  14.255  10.229
76386SOL     OW30996   3.741  12.314  11.972
76386SOL    HW130997   3.768  12.223  11.985
76386SOL    HW230998   3.682  12.332  12.045
76387SOL     OW30999  13.132   2.279   6.157
76387SOL    HW131000  13.095   2.317   6.077
76387SOL    HW231001  13.058   2.234   6.198
76388SOL     OW31002   9.896   2.324   3.612
76388SOL    HW131003   9.853   2.254   3.660
76388SOL    HW231004   9.990   2.304   3.618
76389SOL     OW31005  14.619   6.740  12.224
76389SOL    HW131006  14.607   6.690  12.143
76389SOL    HW231007  14.711   6.768  12.221
76390SOL     OW31008   4.476  11.307   5.527
76390SOL    HW131009   4.531  11.273   5.598
76390SOL    HW231010   4.411  11.362   5.571
76391SOL     OW31011  14.050   1.985  12.666
76391SOL    HW131012  13.960   2.011  12.647
76391SOL    HW231013  14.054   1.980  12.761
76392SOL     OW31014  13.534   1.532   1.477
76392SOL    HW131015  13.520   1.447   1.520
76392SOL    HW231016  13.587   1.511   1.400
76393SOL     OW31017   6.513   7.295   4.399
76393SOL    HW131018   6.549   7.377   4.364
76393SOL    HW231019   6.588   7.236   4.401
76394SOL     OW31020   8.786   9.111  10.990
76394SOL    HW131021   8.730   9.035  11.003
76394SOL    HW231022   8.865   9.091  11.041
76395SOL     OW31023   6.725   8.318   0.065
76395SOL    HW131024   6.709   8.320  14.844
76395SOL    HW231025   6.677   8.242   0.096
76396SOL     OW31026  13.526   8.321  10.286
76396SOL    HW131027  13.534   8.409  10.248
76396SOL    HW231028  13.434   8.298  10.274
76397SOL     OW31029   8.185   9.175  11.496
76397SOL    HW131030   8.276   9.146  11.501
76397SOL    HW231031   8.189   9.261  11.455
76398SOL     OW31032   0.293   3.903   6.051
76398SOL    HW131033   0.222   3.853   6.092
76398SOL    HW231034   0.353   3.836   6.017
76399SOL     OW31035   2.167  10.471   4.245
76399SOL    HW131036   2.088  10.427   4.279
76399SOL    HW231037   2.191  10.533   4.314
76400SOL     OW31038   7.227   4.775   6.590
76400SOL    HW131039   7.258   4.803   6.676
76400SOL    HW231040   7.245   4.850   6.533
76401SOL     OW31041   7.868   8.494  12.399
76401SOL    HW131042   7.895   8.510  12.309
76401SOL    HW231043   7.911   8.564  12.449
76402SOL     OW31044   9.096  10.019   8.585
76402SOL    HW131045   9.161   9.993   8.520
76402SOL    HW231046   9.104   9.954   8.655
76403SOL     OW31047   9.083   3.310   0.061
76403SOL    HW131048   9.059   3.217   0.050
76403SOL    HW231049   9.176   3.308   0.084
76404SOL     OW31050   1.567  14.596  10.059
76404SOL    HW131051   1.592  14.631  10.144
76404SOL    HW231052   1.507  14.662  10.023
76405SOL     OW31053   1.721   2.411  10.587
76405SOL    HW131054   1.777   2.426  10.511
76405SOL    HW231055   1.662   2.340  10.560
76406SOL     OW31056   5.434  12.590   1.030
76406SOL    HW131057   5.402  12.672   0.994
76406SOL    HW231058   5.495  12.557   0.964
76407SOL     OW31059  12.684   6.233   8.552
76407SOL    HW131060  12.640   6.286   8.619
76407SOL    HW231061  12.638   6.149   8.554
76408SOL     OW31062   6.957  13.050   1.772
76408SOL    HW131063   7.033  13.002   1.739
76408SOL    HW231064   6.884  13.017   1.719
76409SOL     OW31065   5.789   8.910   0.711
76409SOL    HW131066   5.744   8.843   0.659
76409SOL    HW231067   5.745   8.992   0.689
76410SOL     OW31068  12.811   8.780   7.995
76410SOL    HW131069  12.792   8.849   7.932
76410SOL    HW231070  12.905   8.789   8.013
76411SOL     OW31071   9.568   4.227   8.056
76411SOL    HW131072   9.503   4.283   8.098
76411SOL    HW231073   9.631   4.287   8.019
76412SOL     OW31074   8.241   1.391   5.332
76412SOL    HW131075   8.296   1.351   5.266
76412SOL    HW231076   8.154   1.394   5.293
76413SOL     OW31077  10.982  12.459   5.366
76413SOL    HW131078  10.898  12.424   5.337
76413SOL    HW231079  10.960  12.520   5.436
76414SOL     OW31080   8.636   5.753   8.933
76414SOL    HW131081   8.590   5.837   8.925
76414SOL    HW231082   8.604   5.702   8.859
76415SOL     OW31083   9.697  14.529   8.110
76415SOL    HW131084   9.729  14.559   8.195
76415SOL    HW231085   9.670  14.438   8.125
76416SOL     OW31086  13.614   9.012  12.259
76416SOL    HW131087  13.657   9.045  12.338
76416SOL    HW231088  13.533   8.973  12.289
76417SOL     OW31089  10.760  14.523   7.048
76417SOL    HW131090  10.742  14.550   6.958
76417SOL    HW231091  10.673  14.506   7.086
76418SOL     OW31092   9.263   2.000   6.941
76418SOL    HW131093   9.298   1.911   6.948
76418SOL    HW231094   9.168   1.988   6.938
76419SOL     OW31095  11.274   5.474   9.754
76419SOL    HW131096  11.365   5.503   9.761
76419SOL    HW231097  11.240   5.521   9.678
76420SOL     OW31098  11.610  12.117   0.862
76420SOL    HW131099  11.639  12.144   0.949
76420SOL    HW231100  11.671  12.159   0.802
76421SOL     OW31101   0.430   1.133   7.850
76421SOL    HW131102   0.343   1.145   7.888
76421SOL    HW231103   0.436   1.038   7.835
76422SOL     OW31104   9.333   6.047   0.328
76422SOL    HW131105   9.239   6.046   0.308
76422SOL    HW231106   9.369   6.115   0.270
76423SOL     OW31107   4.220  10.048   4.888
76423SOL    HW131108   4.242   9.985   4.819
76423SOL    HW231109   4.159  10.001   4.944
76424SOL     OW31110   9.412   0.191  10.596
76424SOL    HW131111   9.449   0.255  10.657
76424SOL    HW231112   9.325   0.223  10.577
76425SOL     OW31113   8.474   9.896  13.945
76425SOL    HW131114   8.423   9.875  14.024
76425SOL    HW231115   8.425   9.854  13.874
76426SOL     OW31116  11.644  11.338  10.848
76426SOL    HW131117  11.656  11.341  10.943
76426SOL    HW231118  11.630  11.246  10.828
76427SOL     OW31119   2.446   0.709   5.957
76427SOL    HW131120   2.495   0.787   5.982
76427SOL    HW231121   2.466   0.697   5.864
76428SOL     OW31122   1.950   9.136  12.134
76428SOL    HW131123   1.922   9.056  12.177
76428SOL    HW231124   2.027   9.110  12.083
76429SOL     OW31125  10.021  11.257  13.142
76429SOL    HW131126  10.016  11.220  13.054
76429SOL    HW231127  10.025  11.181  13.200
76430SOL     OW31128  12.753   3.115  13.190
76430SOL    HW131129  12.787   3.154  13.109
76430SOL    HW231130  12.670   3.160  13.205
76431SOL     OW31131   8.853  10.296   2.618
76431SOL    HW131132   8.843  10.368   2.555
76431SOL    HW231133   8.930  10.320   2.670
76432SOL     OW31134   9.421   1.611   7.115
76432SOL    HW131135   9.372   1.565   7.183
76432SOL    HW231136   9.447   1.542   7.054
76433SOL     OW31137   1.745   5.923  12.681
76433SOL    HW131138   1.741   5.854  12.747
76433SOL    HW231139   1.682   5.895  12.614
76434SOL     OW31140  13.113  13.184   2.034
76434SOL    HW131141  13.169  13.156   2.106
76434SOL    HW231142  13.044  13.236   2.076
76435SOL     OW31143  13.611   5.852   0.928
76435SOL    HW131144  13.631   5.946   0.922
76435SOL    HW231145  13.680   5.809   0.878
76436SOL     OW31146   3.465   6.402  13.365
76436SOL    HW131147   3.487   6.363  13.450
76436SOL    HW231148   3.540   6.457  13.343
76437SOL     OW31149  10.006  11.243   3.939
76437SOL    HW131150  10.003  11.147   3.931
76437SOL    HW231151   9.983  11.275   3.852
76438SOL     OW31152   7.632  10.215  13.091
76438SOL    HW131153   7.651  10.276  13.019
76438SOL    HW231154   7.539  10.195  13.082
76439SOL     OW31155  13.348   6.050   1.264
76439SOL    HW131156  13.406   5.985   1.304
76439SOL    HW231157  13.338   6.117   1.331
76440SOL     OW31158   5.715  14.656   0.838
76440SOL    HW131159   5.738  14.608   0.917
76440SOL    HW231160   5.623  14.634   0.822
76441SOL     OW31161   7.826  10.047  13.743
76441SOL    HW131162   7.785  10.045  13.829
76441SOL    HW231163   7.846   9.955  13.724
76442SOL     OW31164   0.304  14.457  10.255
76442SOL    HW131165   0.232  14.395  10.246
76442SOL    HW231166   0.262  14.541  10.270
76443SOL     OW31167   5.868   1.385   9.120
76443SOL    HW131168   5.823   1.309   9.083
76443SOL    HW231169   5.937   1.405   9.056
76444SOL     OW31170   9.859   5.105   8.403
76444SOL    HW131171   9.904   5.091   8.486
76444SOL    HW231172   9.794   5.173   8.422
76445SOL     OW31173   4.395  12.450  11.300
76445SOL    HW131174   4.398  12.384  11.230
76445SOL    HW231175   4.302  12.458  11.321
76446SOL     OW31176  14.753   3.168  14.394
76446SOL    HW131177  14.658   3.168  14.410
76446SOL    HW231178  14.777   3.075  14.388
76447SOL     OW31179  14.112   2.020   3.491
76447SOL    HW131180  14.189   2.039   3.545
76447SOL    HW231181  14.059   2.100   3.496
76448SOL     OW31182   1.474   9.394   3.632
76448SOL    HW131183   1.509   9.308   3.607
76448SOL    HW231184   1.472   9.443   3.550
76449SOL     OW31185   3.185  12.242   4.190
76449SOL    HW131186   3.167  12.298   4.265
76449SOL    HW231187   3.128  12.166   4.203
76450SOL     OW31188   0.547  10.569   6.192
76450SOL    HW131189   0.589  10.499   6.144
76450SOL    HW231190   0.477  10.599   6.134
76451SOL     OW31191   4.213  10.041   0.570
76451SOL    HW131192   4.172  10.120   0.534
76451SOL    HW231193   4.161  10.019   0.647
76452SOL     OW31194  11.660   4.584   2.667
76452SOL    HW131195  11.698   4.601   2.753
76452SOL    HW231196  11.582   4.532   2.686
76453SOL     OW31197   2.176  13.214  12.910
76453SOL    HW131198   2.211  13.136  12.868
76453SOL    HW231199   2.151  13.271  12.838
76454SOL     OW31200   3.173   3.427   1.633
76454SOL    HW131201   3.241   3.410   1.698
76454SOL    HW231202   3.221   3.460   1.557
76455SOL     OW31203  12.611   0.190   2.449
76455SOL    HW131204  12.659   0.243   2.512
76455SOL    HW231205  12.519   0.201   2.473
76456SOL     OW31206   6.219  12.391   4.771
76456SOL    HW131207   6.314  12.394   4.760
76456SOL    HW231208   6.197  12.475   4.811
76457SOL     OW31209   0.342   2.961   3.292
76457SOL    HW131210   0.290   2.880   3.294
76457SOL    HW231211   0.382   2.966   3.379
76458SOL     OW31212   8.062   7.254   6.129
76458SOL    HW131213   8.079   7.291   6.215
76458SOL    HW231214   8.149   7.247   6.088
76459SOL     OW31215  14.430  10.693   5.441
76459SOL    HW131216  14.349  10.645   5.425
76459SOL    HW231217  14.473  10.646   5.512
76460SOL     OW31218  10.982   7.161   2.796
76460SOL    HW131219  11.056   7.139   2.854
76460SOL    HW231220  10.905   7.127   2.841
76461SOL     OW31221   7.210  14.398   0.496
76461SOL    HW131222   7.236  14.483   0.461
76461SOL    HW231223   7.139  14.369   0.439
76462SOL     OW31224  14.336  14.270   1.191
76462SOL    HW131225  14.323  14.208   1.262
76462SOL    HW231226  14.249  14.284   1.154
76463SOL     OW31227   8.383   1.898  11.835
76463SOL    HW131228   8.412   1.989  11.826
76463SOL    HW231229   8.379   1.865  11.745
76464SOL     OW31230   5.126  11.841   1.619
76464SOL    HW131231   5.202  11.885   1.658
76464SOL    HW231232   5.084  11.908   1.566
76465SOL     OW31233   6.707   1.900  12.430
76465SOL    HW131234   6.669   1.917  12.343
76465SOL    HW231235   6.787   1.851  12.412
76466SOL     OW31236  11.174   5.364   1.115
76466SOL    HW131237  11.157   5.447   1.072
76466SOL    HW231238  11.088   5.320   1.118
76467SOL     OW31239   6.878  13.887  12.098
76467SOL    HW131240   6.943  13.950  12.068
76467SOL    HW231241   6.797  13.939  12.106
76468SOL     OW31242   7.930  10.915   1.111
76468SOL    HW131243   7.914  10.999   1.154
76468SOL    HW231244   7.947  10.854   1.183
76469SOL     OW31245   9.602   3.656  14.765
76469SOL    HW131246   9.514   3.620  14.752
76469SOL    HW231247   9.587   3.746  14.793
76470SOL     OW31248   6.747   3.851  13.175
76470SOL    HW131249   6.808   3.916  13.210
76470SOL    HW231250   6.797   3.803  13.110
76471SOL     OW31251   8.206   9.556   8.148
76471SOL    HW131252   8.144   9.623   8.120
76471SOL    HW231253   8.290   9.601   8.152
76472SOL     OW31254   2.888   0.629   3.561
76472SOL    HW131255   2.970   0.597   3.599
76472SOL    HW231256   2.821   0.602   3.624
76473SOL     OW31257  11.467  10.582   3.210
76473SOL    HW131258  11.422  10.596   3.127
76473SOL    HW231259  11.400  10.595   3.277
76474SOL     OW31260  13.244  10.309  14.616
76474SOL    HW131261  13.165  10.354  14.648
76474SOL    HW231262  13.233  10.218  14.645
76475SOL     OW31263  11.654   1.404   0.435
76475SOL    HW131264  11.728   1.452   0.473
76475SOL    HW231265  11.577   1.446   0.474
76476SOL     OW31266  14.331  13.235  10.292
76476SOL    HW131267  14.414  13.259  10.251
76476SOL    HW231268  14.290  13.176  10.230
76477SOL     OW31269   4.577  10.266  14.716
76477SOL    HW131270   4.550  10.331  14.781
76477SOL    HW231271   4.545  10.183  14.751
76478SOL     OW31272   4.733  12.502   1.862
76478SOL    HW131273   4.698  12.414   1.850
76478SOL    HW231274   4.828  12.492   1.858
76479SOL     OW31275   4.471   7.839   1.570
76479SOL    HW131276   4.529   7.862   1.642
76479SOL    HW231277   4.388   7.881   1.591
76480SOL     OW31278   0.184  12.113  14.610
76480SOL    HW131279   0.239  12.186  14.638
76480SOL    HW231280   0.094  12.140  14.632
76481SOL     OW31281  14.538   6.306   0.518
76481SOL    HW131282  14.560   6.393   0.551
76481SOL    HW231283  14.495   6.263   0.592
76482SOL     OW31284   6.494  13.424   8.625
76482SOL    HW131285   6.566  13.485   8.640
76482SOL    HW231286   6.529  13.339   8.649
76483SOL     OW31287   2.834   3.943   7.742
76483SOL    HW131288   2.740   3.924   7.735
76483SOL    HW231289   2.869   3.920   7.656
76484SOL     OW31290   8.095  10.658   8.692
76484SOL    HW131291   8.014  10.645   8.742
76484SOL    HW231292   8.120  10.749   8.711
76485SOL     OW31293  14.754   3.443   8.753
76485SOL    HW131294  14.666   3.466   8.722
76485SOL    HW231295  14.750   3.350   8.771
76486SOL     OW31296   0.606   1.393  13.391
76486SOL    HW131297   0.511   1.388  13.382
76486SOL    HW231298   0.628   1.318  13.447
76487SOL     OW31299   3.553  10.653   6.054
76487SOL    HW131300   3.622  10.648   6.120
76487SOL    HW231301   3.511  10.568   6.056
76488SOL     OW31302   5.697   8.908  12.851
76488SOL    HW131303   5.710   8.816  12.826
76488SOL    HW231304   5.661   8.905  12.939
76489SOL     OW31305   7.686   8.645   4.979
76489SOL    HW131306   7.697   8.696   4.898
76489SOL    HW231307   7.769   8.599   4.990
76490SOL     OW31308   0.278   0.437   6.041
76490SOL    HW131309   0.262   0.369   5.976
76490SOL    HW231310   0.214   0.420   6.110
76491SOL     OW31311   1.599  12.879  10.801
76491SOL    HW131312   1.545  12.817  10.852
76491SOL    HW231313   1.536  12.931  10.752
76492SOL     OW31314  10.867   3.783   2.648
76492SOL    HW131315  10.825   3.867   2.666
76492SOL    HW231316  10.949   3.786   2.698
76493SOL     OW31317   1.857  13.118   1.536
76493SOL    HW131318   1.920  13.160   1.594
76493SOL    HW231319   1.854  13.027   1.565
76494SOL     OW31320  12.061  14.706  11.119
76494SOL    HW131321  11.974  14.667  11.106
76494SOL    HW231322  12.069  14.772  11.050
76495SOL     OW31323  14.319   0.146  10.472
76495SOL    HW131324  14.239   0.172  10.519
76495SOL    HW231325  14.288   0.086  10.404
76496SOL     OW31326   9.574  10.788   5.303
76496SOL    HW131327   9.647  10.766   5.244
76496SOL    HW231328   9.505  10.726   5.280
76497SOL     OW31329  10.917   6.952  10.290
76497SOL    HW131330  10.985   7.019  10.284
76497SOL    HW231331  10.895   6.933  10.198
76498SOL     OW31332   4.486   5.788   0.239
76498SOL    HW131333   4.419   5.809   0.304
76498SOL    HW231334   4.553   5.740   0.288
76499SOL     OW31335  14.725  12.208   2.497
76499SOL    HW131336  14.702  12.167   2.414
76499SOL    HW231337  14.790  12.149   2.536
76500SOL     OW31338   2.594   0.202  13.753
76500SOL    HW131339   2.500   0.183  13.758
76500SOL    HW231340   2.626   0.189  13.842
76501SOL     OW31341   6.872   4.170  10.807
76501SOL    HW131342   6.828   4.095  10.766
76501SOL    HW231343   6.961   4.139  10.823
76502SOL     OW31344  12.785   7.449   1.614
76502SOL    HW131345  12.829   7.482   1.693
76502SOL    HW231346  12.812   7.510   1.545
76503SOL     OW31347  14.236   9.369  12.869
76503SOL    HW131348  14.305   9.364  12.803
76503SOL    HW231349  14.168   9.424  12.829
76504SOL     OW31350  10.972   2.106  14.810
76504SOL    HW131351  10.954   2.130   0.028
76504SOL    HW231352  10.885   2.096  14.770
76505SOL     OW31353   7.937   3.161  13.969
76505SOL    HW131354   7.969   3.103  13.901
76505SOL    HW231355   7.850   3.128  13.990
76506SOL     OW31356   9.589   5.193   0.804
76506SOL    HW131357   9.577   5.287   0.811
76506SOL    HW231358   9.681   5.179   0.826
76507SOL     OW31359  13.149  11.980   6.108
76507SOL    HW131360  13.089  12.052   6.088
76507SOL    HW231361  13.133  11.959   6.200
76508SOL     OW31362  14.103   1.558  10.097
76508SOL    HW131363  14.132   1.648  10.088
76508SOL    HW231364  14.179   1.512  10.132
76509SOL     OW31365   7.479   3.248  11.076
76509SOL    HW131366   7.568   3.253  11.040
76509SOL    HW231367   7.467   3.155  11.096
76510SOL     OW31368   2.673   8.055   5.070
76510SOL    HW131369   2.630   7.970   5.057
76510SOL    HW231370   2.742   8.038   5.133
76511SOL     OW31371   6.554  14.260   4.146
76511SOL    HW131372   6.649  14.263   4.135
76511SOL    HW231373   6.539  14.282   4.238
76512SOL     OW31374   9.141  11.383   1.395
76512SOL    HW131375   9.150  11.299   1.351
76512SOL    HW231376   9.060  11.420   1.360
76513SOL     OW31377  14.518   5.593   3.145
76513SOL    HW131378  14.551   5.673   3.103
76513SOL    HW231379  14.582   5.526   3.122
76514SOL     OW31380  12.777   2.203   5.073
76514SOL    HW131381  12.797   2.117   5.036
76514SOL    HW231382  12.683   2.200   5.091
76515SOL     OW31383  13.170  12.485  14.749
76515SOL    HW131384  13.190  12.578  14.736
76515SOL    HW231385  13.099  12.468  14.687
76516SOL     OW31386  14.509   2.201   9.251
76516SOL    HW131387  14.442   2.148   9.296
76516SOL    HW231388  14.582   2.140   9.239
76517SOL     OW31389  10.122   9.123   9.385
76517SOL    HW131390  10.041   9.074   9.398
76517SOL    HW231391  10.094   9.213   9.367
76518SOL     OW31392   6.929  10.139  14.803
76518SOL    HW131393   6.992  10.113  14.735
76518SOL    HW231394   6.965  10.103   0.011
76519SOL     OW31395   9.441   7.733   4.240
76519SOL    HW131396   9.506   7.684   4.189
76519SOL    HW231397   9.439   7.820   4.200
76520SOL     OW31398   6.405   6.154  13.846
76520SOL    HW131399   6.343   6.223  13.869
76520SOL    HW231400   6.491   6.192  13.864
76521SOL     OW31401  13.759   4.910   9.140
76521SOL    HW131402  13.740   5.001   9.158
76521SOL    HW231403  13.776   4.871   9.226
76522SOL     OW31404   6.659   2.526  10.335
76522SOL    HW131405   6.705   2.586  10.394
76522SOL    HW231406   6.668   2.440  10.376
76523SOL     OW31407  10.773  14.409  13.212
76523SOL    HW131408  10.761  14.458  13.131
76523SOL    HW231409  10.687  14.413  13.255
76524SOL     OW31410   7.664   1.378   5.795
76524SOL    HW131411   7.570   1.384   5.777
76524SOL    HW231412   7.695   1.469   5.791
76525SOL     OW31413  12.921  10.881   4.515
76525SOL    HW131414  12.896  10.859   4.425
76525SOL    HW231415  12.901  10.974   4.523
76526SOL     OW31416  11.757   1.990   6.695
76526SOL    HW131417  11.666   1.966   6.708
76526SOL    HW231418  11.772   1.982   6.601
76527SOL     OW31419  12.077   8.822  12.639
76527SOL    HW131420  11.986   8.812  12.667
76527SOL    HW231421  12.091   8.754  12.574
76528SOL     OW31422   5.616   7.023   7.222
76528SOL    HW131423   5.701   7.067   7.219
76528SOL    HW231424   5.557   7.086   7.263
76529SOL     OW31425  12.249   5.311   8.144
76529SOL    HW131426  12.209   5.284   8.061
76529SOL    HW231427  12.343   5.313   8.126
76530SOL     OW31428   4.133   4.377  14.812
76530SOL    HW131429   4.226   4.353  14.809
76530SOL    HW231430   4.112   4.378   0.032
76531SOL     OW31431   9.925  10.132  10.470
76531SOL    HW131432   9.965  10.138  10.557
76531SOL    HW231433   9.839  10.173  10.480
76532SOL     OW31434   2.777   2.703  10.122
76532SOL    HW131435   2.684   2.688  10.101
76532SOL    HW231436   2.824   2.638  10.070
76533SOL     OW31437   9.345   7.189  10.099
76533SOL    HW131438   9.290   7.267  10.104
76533SOL    HW231439   9.434   7.222  10.104
76534SOL     OW31440   5.158  12.648   4.258
76534SOL    HW131441   5.143  12.742   4.253
76534SOL    HW231442   5.087  12.616   4.315
76535SOL     OW31443   9.060   2.323   1.885
76535SOL    HW131444   9.099   2.405   1.854
76535SOL    HW231445   9.047   2.337   1.979
76536SOL     OW31446   9.565  12.644   4.839
76536SOL    HW131447   9.512  12.571   4.807
76536SOL    HW231448   9.593  12.689   4.760
76537SOL     OW31449  13.958   6.401  11.696
76537SOL    HW131450  14.020   6.343  11.742
76537SOL    HW231451  13.906   6.342  11.642
76538SOL     OW31452  12.774   4.047  10.168
76538SOL    HW131453  12.824   4.016  10.093
76538SOL    HW231454  12.699   4.092  10.129
76539SOL     OW31455   6.007   6.476  14.027
76539SOL    HW131456   6.048   6.399  13.987
76539SOL    HW231457   6.079   6.537  14.039
76540SOL     OW31458   2.460   0.744  10.816
76540SOL    HW131459   2.484   0.652  10.828
76540SOL    HW231460   2.408   0.745  10.736
76541SOL     OW31461   5.396  10.765   3.789
76541SOL    HW131462   5.363  10.680   3.762
76541SOL    HW231463   5.336  10.828   3.747
76542SOL     OW31464  10.105   4.473   4.004
76542SOL    HW131465  10.015   4.496   4.027
76542SOL    HW231466  10.156   4.550   4.028
76543SOL     OW31467   3.360   4.668   6.336
76543SOL    HW131468   3.418   4.632   6.404
76543SOL    HW231469   3.299   4.723   6.384
76544SOL     OW31470   9.816   4.636   1.356
76544SOL    HW131471   9.837   4.555   1.403
76544SOL    HW231472   9.761   4.684   1.417
76545SOL     OW31473  13.027   8.712   9.336
76545SOL    HW131474  13.006   8.781   9.398
76545SOL    HW231475  13.043   8.635   9.390
76546SOL     OW31476  14.551   5.096   7.153
76546SOL    HW131477  14.534   5.061   7.240
76546SOL    HW231478  14.478   5.155   7.136
76547SOL     OW31479   0.165   9.037  13.189
76547SOL    HW131480   0.090   9.087  13.155
76547SOL    HW231481   0.204   8.998  13.111
76548SOL     OW31482  11.733   2.034   7.561
76548SOL    HW131483  11.646   2.040   7.521
76548SOL    HW231484  11.766   1.949   7.532
76549SOL     OW31485  12.167   7.505  13.292
76549SOL    HW131486  12.195   7.512  13.383
76549SOL    HW231487  12.229   7.445  13.252
76550SOL     OW31488   5.045   5.734  10.342
76550SOL    HW131489   5.113   5.754  10.407
76550SOL    HW231490   5.079   5.658  10.296
76551SOL     OW31491   2.776  12.046   4.634
76551SOL    HW131492   2.826  11.965   4.618
76551SOL    HW231493   2.761  12.081   4.546
76552SOL     OW31494  12.103   3.723  14.449
76552SOL    HW131495  12.067   3.792  14.393
76552SOL    HW231496  12.037   3.653  14.445
76553SOL     OW31497   9.939  11.561   8.706
76553SOL    HW131498  10.025  11.518   8.703
76553SOL    HW231499   9.923  11.589   8.616
76554SOL     OW31500  11.361   5.049  11.068
76554SOL    HW131501  11.288   5.057  11.130
76554SOL    HW231502  11.439   5.060  11.122
76555SOL     OW31503   4.111   2.446   0.332
76555SOL    HW131504   4.095   2.353   0.314
76555SOL    HW231505   4.034   2.475   0.380
76556SOL     OW31506   3.269  10.259   4.726
76556SOL    HW131507   3.297  10.260   4.635
76556SOL    HW231508   3.186  10.307   4.727
76557SOL     OW31509   3.127   5.277  13.243
76557SOL    HW131510   3.091   5.235  13.165
76557SOL    HW231511   3.192   5.215  13.276
76558SOL     OW31512   7.006   7.295   9.758
76558SOL    HW131513   7.022   7.378   9.803
76558SOL    HW231514   7.051   7.304   9.674
76559SOL     OW31515   2.383   7.633   1.011
76559SOL    HW131516   2.386   7.717   1.057
76559SOL    HW231517   2.291   7.606   1.019
76560SOL     OW31518   9.965  14.598  10.819
76560SOL    HW131519  10.047  14.552  10.838
76560SOL    HW231520   9.924  14.611  10.905
76561SOL     OW31521  14.016  13.333   5.047
76561SOL    HW131522  13.933  13.304   5.008
76561SOL    HW231523  14.045  13.259   5.100
76562SOL     OW31524   2.455   2.049  10.630
76562SOL    HW131525   2.371   2.029  10.671
76562SOL    HW231526   2.519   2.005  10.685
76563SOL     OW31527   9.781  11.755   0.228
76563SOL    HW131528   9.800  11.719   0.141
76563SOL    HW231529   9.867  11.781   0.262
76564SOL     OW31530   2.070   1.772   9.060
76564SOL    HW131531   2.008   1.700   9.061
76564SOL    HW231532   2.150   1.735   9.098
76565SOL     OW31533  13.804  11.450   8.966
76565SOL    HW131534  13.856  11.464   8.886
76565SOL    HW231535  13.869  11.429   9.033
76566SOL     OW31536   6.537   5.757   4.380
76566SOL    HW131537   6.453   5.727   4.345
76566SOL    HW231538   6.535   5.852   4.371
76567SOL     OW31539   9.296   7.354   9.475
76567SOL    HW131540   9.328   7.365   9.565
76567SOL    HW231541   9.218   7.410   9.471
76568SOL     OW31542   0.036  12.290   7.132
76568SOL    HW131543  14.826  12.319   7.093
76568SOL    HW231544   0.056  12.356   7.198
76569SOL     OW31545  14.421   1.015   2.159
76569SOL    HW131546  14.343   0.962   2.178
76569SOL    HW231547  14.478   0.957   2.109
76570SOL     OW31548  12.335  13.591   3.603
76570SOL    HW131549  12.247  13.582   3.567
76570SOL    HW231550  12.390  13.612   3.527
76571SOL     OW31551   2.748   2.162  10.796
76571SOL    HW131552   2.833   2.186  10.834
76571SOL    HW231553   2.684   2.183  10.865
76572SOL     OW31554   2.881  11.593   9.849
76572SOL    HW131555   2.890  11.672   9.797
76572SOL    HW231556   2.967  11.580   9.888
76573SOL     OW31557   6.541  14.851   6.475
76573SOL    HW131558   6.470   0.040   6.455
76573SOL    HW231559   6.536  14.841   6.570
76574SOL     OW31560   3.071   8.011   6.628
76574SOL    HW131561   3.043   7.986   6.716
76574SOL    HW231562   3.158   7.972   6.619
76575SOL     OW31563   7.661   3.773  10.884
76575SOL    HW131564   7.650   3.684  10.849
76575SOL    HW231565   7.594   3.780  10.952
76576SOL     OW31566   0.016   7.317   4.338
76576SOL    HW131567   0.022   7.279   4.250
76576SOL    HW231568  14.812   7.373   4.335
76577SOL     OW31569   2.480  13.191   0.579
76577SOL    HW131570   2.497  13.260   0.642
76577SOL    HW231571   2.399  13.150   0.609
76578SOL     OW31572   9.686  10.843   6.205
76578SOL    HW131573   9.670  10.752   6.181
76578SOL    HW231574   9.747  10.875   6.139
76579SOL     OW31575   5.127  10.645   5.671
76579SOL    HW131576   5.091  10.556   5.663
76579SOL    HW231577   5.169  10.661   5.587
76580SOL     OW31578   7.872   6.754   9.327
76580SOL    HW131579   7.837   6.706   9.402
76580SOL    HW231580   7.953   6.794   9.360
76581SOL     OW31581  13.690  14.618   4.114
76581SOL    HW131582  13.696  14.533   4.070
76581SOL    HW231583  13.685  14.596   4.207
76582SOL     OW31584  10.795   5.805  10.601
76582SOL    HW131585  10.801   5.901  10.601
76582SOL    HW231586  10.717   5.786  10.549
76583SOL     OW31587   4.140   6.033   2.712
76583SOL    HW131588   4.091   6.018   2.632
76583SOL    HW231589   4.229   6.003   2.692
76584SOL     OW31590   7.137   7.975   4.411
76584SOL    HW131591   7.070   7.915   4.379
76584SOL    HW231592   7.195   7.920   4.464
76585SOL     OW31593   3.847  12.265  11.701
76585SOL    HW131594   3.798  12.339  11.665
76585SOL    HW231595   3.809  12.250  11.787
76586SOL     OW31596  10.618  11.718  14.008
76586SOL    HW131597  10.617  11.640  14.065
76586SOL    HW231598  10.700  11.711  13.960
76587SOL     OW31599   8.365   3.669  10.893
76587SOL    HW131600   8.279   3.635  10.920
76587SOL    HW231601   8.347   3.758  10.864
76588SOL     OW31602  10.123   4.736  12.998
76588SOL    HW131603  10.201   4.680  12.994
76588SOL    HW231604  10.113   4.770  12.909
76589SOL     OW31605   1.678   0.826  10.428
76589SOL    HW131606   1.624   0.844  10.505
76589SOL    HW231607   1.767   0.846  10.456
76590SOL     OW31608   3.373   4.674  11.198
76590SOL    HW131609   3.352   4.693  11.106
76590SOL    HW231610   3.460   4.713  11.211
76591SOL     OW31611  12.545   8.486   7.094
76591SOL    HW131612  12.478   8.547   7.064
76591SOL    HW231613  12.568   8.435   7.017
76592SOL     OW31614   7.157   8.573   8.607
76592SOL    HW131615   7.167   8.599   8.698
76592SOL    HW231616   7.238   8.602   8.564
76593SOL     OW31617  14.525   0.108   0.446
76593SOL    HW131618  14.612   0.071   0.463
76593SOL    HW231619  14.538   0.202   0.451
76594SOL     OW31620   1.808  14.160  14.685
76594SOL    HW131621   1.860  14.208  14.620
76594SOL    HW231622   1.832  14.200  14.768
76595SOL     OW31623  10.368  11.653  12.362
76595SOL    HW131624  10.331  11.703  12.435
76595SOL    HW231625  10.401  11.720  12.302
76596SOL     OW31626  14.128   9.727   6.804
76596SOL    HW131627  14.088   9.814   6.804
76596SOL    HW231628  14.136   9.705   6.897
76597SOL     OW31629   8.248   6.633   3.276
76597SOL    HW131630   8.320   6.664   3.220
76597SOL    HW231631   8.221   6.711   3.325
76598SOL     OW31632  12.540   8.174   5.323
76598SOL    HW131633  12.449   8.180   5.352
76598SOL    HW231634  12.592   8.181   5.403
76599SOL     OW31635  12.692   6.512  12.716
76599SOL    HW131636  12.651   6.596  12.700
76599SOL    HW231637  12.655   6.454  12.650
76600SOL     OW31638  10.311   9.555  10.176
76600SOL    HW131639  10.235   9.600  10.138
76600SOL    HW231640  10.359   9.522  10.100
76601SOL     OW31641  13.003  11.838  11.751
76601SOL    HW131642  13.026  11.752  11.786
76601SOL    HW231643  13.087  11.885  11.749
76602SOL     OW31644   8.599   2.605   7.933
76602SOL    HW131645   8.532   2.651   7.881
76602SOL    HW231646   8.576   2.513   7.925
76603SOL     OW31647   0.131   8.339   9.694
76603SOL    HW131648   0.165   8.428   9.690
76603SOL    HW231649   0.038   8.351   9.714
76604SOL     OW31650   0.837   5.866   9.631
76604SOL    HW131651   0.897   5.811   9.580
76604SOL    HW231652   0.754   5.820   9.627
76605SOL     OW31653  12.703  14.340   9.920
76605SOL    HW131654  12.660  14.284   9.983
76605SOL    HW231655  12.718  14.422   9.967
76606SOL     OW31656   4.348   9.202   1.303
76606SOL    HW131657   4.375   9.116   1.334
76606SOL    HW231658   4.415   9.262   1.336
76607SOL     OW31659  10.954  12.928   4.951
76607SOL    HW131660  10.960  12.998   4.887
76607SOL    HW231661  11.002  12.960   5.027
76608SOL     OW31662  10.386   9.847  12.643
76608SOL    HW131663  10.381   9.765  12.594
76608SOL    HW231664  10.461   9.893  12.606
76609SOL     OW31665  11.974  12.661   6.298
76609SOL    HW131666  11.970  12.756   6.310
76609SOL    HW231667  12.067  12.641   6.296
76610SOL     OW31668   6.752   7.006   4.956
76610SOL    HW131669   6.687   6.946   4.993
76610SOL    HW231670   6.771   7.067   5.026
76611SOL     OW31671   0.372  12.861  13.323
76611SOL    HW131672   0.332  12.842  13.238
76611SOL    HW231673   0.363  12.780  13.372
76612SOL     OW31674   5.164  14.297   6.027
76612SOL    HW131675   5.145  14.289   5.934
76612SOL    HW231676   5.260  14.299   6.032
76613SOL     OW31677  13.923   2.718  12.434
76613SOL    HW131678  13.852   2.780  12.452
76613SOL    HW231679  13.892   2.635  12.469
76614SOL     OW31680   3.156  13.856   4.670
76614SOL    HW131681   3.240  13.890   4.640
76614SOL    HW231682   3.175  13.816   4.754
76615SOL     OW31683   1.581   7.790  12.977
76615SOL    HW131684   1.564   7.845  12.900
76615SOL    HW231685   1.510   7.727  12.978
76616SOL     OW31686   8.942   7.293   0.027
76616SOL    HW131687   8.977   7.349  14.831
76616SOL    HW231688   9.016   7.279   0.086
76617SOL     OW31689   2.242  11.711   4.916
76617SOL    HW131690   2.324  11.706   4.966
76617SOL    HW231691   2.244  11.799   4.877
76618SOL     OW31692   0.370  13.808  11.865
76618SOL    HW131693   0.377  13.904  11.873
76618SOL    HW231694   0.284  13.787  11.903
76619SOL     OW31695  10.865   2.501   9.005
76619SOL    HW131696  10.947   2.502   8.956
76619SOL    HW231697  10.839   2.593   9.010
76620SOL     OW31698   4.895   3.725  11.300
76620SOL    HW131699   4.906   3.630  11.301
76620SOL    HW231700   4.901   3.749  11.208
76621SOL     OW31701   2.815   8.469  13.086
76621SOL    HW131702   2.801   8.379  13.056
76621SOL    HW231703   2.801   8.465  13.181
76622SOL     OW31704   0.904   4.091   5.344
76622SOL    HW131705   0.932   4.006   5.310
76622SOL    HW231706   0.984   4.129   5.380
76623SOL     OW31707  12.259   1.967  11.580
76623SOL    HW131708  12.324   1.927  11.522
76623SOL    HW231709  12.175   1.950  11.538
76624SOL     OW31710  13.074   6.068  14.550
76624SOL    HW131711  13.011   6.030  14.611
76624SOL    HW231712  13.137   6.114  14.605
76625SOL     OW31713   5.682   2.886   9.986
76625SOL    HW131714   5.613   2.825   9.961
76625SOL    HW231715   5.677   2.890  10.082
76626SOL     OW31716   1.313   7.653   1.758
76626SOL    HW131717   1.258   7.676   1.683
76626SOL    HW231718   1.258   7.672   1.834
76627SOL     OW31719  10.161  14.034  14.790
76627SOL    HW131720  10.099  14.051  14.861
76627SOL    HW231721  10.161  14.115  14.739
76628SOL     OW31722   9.025   5.676   3.177
76628SOL    HW131723   9.034   5.771   3.169
76628SOL    HW231724   8.941   5.657   3.136
76629SOL     OW31725   0.280   4.842   6.415
76629SOL    HW131726   0.238   4.778   6.359
76629SOL    HW231727   0.356   4.872   6.365
76630SOL     OW31728   4.866   3.635   4.732
76630SOL    HW131729   4.808   3.631   4.656
76630SOL    HW231730   4.951   3.662   4.697
76631SOL     OW31731   1.527  12.401   2.364
76631SOL    HW131732   1.556  12.394   2.273
76631SOL    HW231733   1.442  12.357   2.366
76632SOL     OW31734   8.549  12.745  14.629
76632SOL    HW131735   8.609  12.777  14.697
76632SOL    HW231736   8.605  12.697  14.568
76633SOL     OW31737  11.651  13.915   9.397
76633SOL    HW131738  11.572  13.863   9.407
76633SOL    HW231739  11.655  13.970   9.474
76634SOL     OW31740  11.063  13.406   2.969
76634SOL    HW131741  11.108  13.490   2.979
76634SOL    HW231742  11.104  13.365   2.893
76635SOL     OW31743   4.829  12.498  14.390
76635SOL    HW131744   4.891  12.426  14.395
76635SOL    HW231745   4.804  12.502  14.298
76636SOL     OW31746  11.634   5.957   9.913
76636SOL    HW131747  11.705   5.997   9.964
76636SOL    HW231748  11.595   5.893   9.972
76637SOL     OW31749   1.107   4.319   1.199
76637SOL    HW131750   1.188   4.353   1.239
76637SOL    HW231751   1.082   4.387   1.137
76638SOL     OW31752   0.336   4.261  11.306
76638SOL    HW131753   0.423   4.222  11.311
76638SOL    HW231754   0.340   4.322  11.232
76639SOL     OW31755   2.817  13.470   2.560
76639SOL    HW131756   2.846  13.384   2.530
76639SOL    HW231757   2.877  13.493   2.631
76640SOL     OW31758   5.427  11.909  10.032
76640SOL    HW131759   5.464  11.962   9.962
76640SOL    HW231760   5.455  11.952  10.113
76641SOL     OW31761   2.345  12.450   1.102
76641SOL    HW131762   2.403  12.510   1.147
76641SOL    HW231763   2.356  12.366   1.146
76642SOL     OW31764   0.165   9.493   9.768
76642SOL    HW131765   0.079   9.460   9.740
76642SOL    HW231766   0.145   9.570   9.821
76643SOL     OW31767   2.125   9.711  10.151
76643SOL    HW131768   2.104   9.697  10.058
76643SOL    HW231769   2.118   9.806  10.163
76644SOL     OW31770   3.168   4.638   2.495
76644SOL    HW131771   3.172   4.570   2.428
76644SOL    HW231772   3.077   4.637   2.525
76645SOL     OW31773  12.897   6.600   8.624
76645SOL    HW131774  12.828   6.653   8.583
76645SOL    HW231775  12.862   6.579   8.711
76646SOL     OW31776   3.329   6.115   7.137
76646SOL    HW131777   3.254   6.171   7.157
76646SOL    HW231778   3.322   6.098   7.043
76647SOL     OW31779   8.379   2.283  14.565
76647SOL    HW131780   8.303   2.318  14.612
76647SOL    HW231781   8.453   2.300  14.624
76648SOL     OW31782   5.959   1.540   7.352
76648SOL    HW131783   5.900   1.560   7.425
76648SOL    HW231784   6.033   1.600   7.363
76649SOL     OW31785   2.118   0.616   1.917
76649SOL    HW131786   2.180   0.656   1.978
76649SOL    HW231787   2.102   0.529   1.954
76650SOL     OW31788   8.750   6.228  11.836
76650SOL    HW131789   8.742   6.145  11.883
76650SOL    HW231790   8.779   6.291  11.902
76651SOL     OW31791   9.488   7.115   9.625
76651SOL    HW131792   9.480   7.117   9.530
76651SOL    HW231793   9.397   7.119   9.657
76652SOL     OW31794   9.910  14.271   2.332
76652SOL    HW131795   9.838  14.221   2.372
76652SOL    HW231796   9.986  14.253   2.388
76653SOL     OW31797   9.475   5.341   8.568
76653SOL    HW131798   9.438   5.413   8.620
76653SOL    HW231799   9.419   5.338   8.490
76654SOL     OW31800  13.953   9.424  12.109
76654SOL    HW131801  14.029   9.392  12.157
76654SOL    HW231802  13.879   9.374  12.143
76655SOL     OW31803   8.260   2.872  12.184
76655SOL    HW131804   8.301   2.906  12.105
76655SOL    HW231805   8.189   2.817  12.153
76656SOL     OW31806  10.677   0.810   9.239
76656SOL    HW131807  10.648   0.719   9.246
76656SOL    HW231808  10.652   0.836   9.150
76657SOL     OW31809   1.249  10.891  12.546
76657SOL    HW131810   1.168  10.840  12.544
76657SOL    HW231811   1.236  10.954  12.617
76658SOL     OW31812   4.192  12.486   1.414
76658SOL    HW131813   4.261  12.447   1.360
76658SOL    HW231814   4.232  12.491   1.502
76659SOL     OW31815   5.184  14.019  11.429
76659SOL    HW131816   5.160  13.979  11.345
76659SOL    HW231817   5.217  13.946  11.481
76660SOL     OW31818   7.649  12.737   3.264
76660SOL    HW131819   7.701  12.808   3.302
76660SOL    HW231820   7.603  12.698   3.338
76661SOL     OW31821  14.070  12.763   0.607
76661SOL    HW131822  14.087  12.793   0.696
76661SOL    HW231823  14.151  12.720   0.580
76662SOL     OW31824   3.531   0.718   8.044
76662SOL    HW131825   3.608   0.771   8.065
76662SOL    HW231826   3.460   0.759   8.093
76663SOL     OW31827  11.423  14.333   9.371
76663SOL    HW131828  11.493  14.398   9.372
76663SOL    HW231829  11.398  14.326   9.278
76664SOL     OW31830   8.031  11.995   4.114
76664SOL    HW131831   8.051  11.950   4.195
76664SOL    HW231832   8.054  12.086   4.130
76665SOL     OW31833   6.460   9.230   7.868
76665SOL    HW131834   6.540   9.271   7.902
76665SOL    HW231835   6.491   9.178   7.793
76666SOL     OW31836   2.161   5.371   4.758
76666SOL    HW131837   2.107   5.429   4.703
76666SOL    HW231838   2.208   5.316   4.696
76667SOL     OW31839   3.144  10.311  11.703
76667SOL    HW131840   3.150  10.306  11.798
76667SOL    HW231841   3.051  10.324  11.686
76668SOL     OW31842   8.669   7.312  12.701
76668SOL    HW131843   8.703   7.361  12.775
76668SOL    HW231844   8.576   7.335  12.696
76669SOL     OW31845  11.963  11.016   7.825
76669SOL    HW131846  11.897  11.026   7.895
76669SOL    HW231847  12.018  11.094   7.833
76670SOL     OW31848   8.764   4.982   1.159
76670SOL    HW131849   8.746   4.920   1.230
76670SOL    HW231850   8.678   5.011   1.130
76671SOL     OW31851  13.690   9.537  12.034
76671SOL    HW131852  13.735   9.481  11.971
76671SOL    HW231853  13.731   9.518  12.118
76672SOL     OW31854   3.250   5.198   3.971
76672SOL    HW131855   3.263   5.251   4.050
76672SOL    HW231856   3.334   5.153   3.958
76673SOL     OW31857  13.403  14.840  12.246
76673SOL    HW131858  13.392   0.024  12.322
76673SOL    HW231859  13.313  14.820  12.219
76674SOL     OW31860   5.327   2.213   3.319
76674SOL    HW131861   5.303   2.303   3.300
76674SOL    HW231862   5.398   2.193   3.258
76675SOL     OW31863  14.328   3.143  12.751
76675SOL    HW131864  14.338   3.142  12.656
76675SOL    HW231865  14.418   3.149  12.785
76676SOL     OW31866   0.353   4.164  12.025
76676SOL    HW131867   0.317   4.094  12.079
76676SOL    HW231868   0.293   4.171  11.951
76677SOL     OW31869   0.943  14.145   3.168
76677SOL    HW131870   0.965  14.195   3.247
76677SOL    HW231871   1.028  14.118   3.133
76678SOL     OW31872  12.898   6.843  10.573
76678SOL    HW131873  12.859   6.846  10.660
76678SOL    HW231874  12.984   6.883  10.583
76679SOL     OW31875  13.260  14.117   5.443
76679SOL    HW131876  13.265  14.130   5.537
76679SOL    HW231877  13.220  14.196   5.409
76680SOL     OW31878   6.645   5.759   7.979
76680SOL    HW131879   6.600   5.838   8.006
76680SOL    HW231880   6.633   5.698   8.052
76681SOL     OW31881  13.566   8.930  11.603
76681SOL    HW131882  13.544   9.023  11.599
76681SOL    HW231883  13.655   8.924  11.568
76682SOL     OW31884   3.662  11.544  13.044
76682SOL    HW131885   3.680  11.451  13.031
76682SOL    HW231886   3.711  11.588  12.975
76683SOL     OW31887   1.990  13.191  11.112
76683SOL    HW131888   1.994  13.111  11.164
76683SOL    HW231889   1.991  13.160  11.021
76684SOL     OW31890   7.609   7.099  14.506
76684SOL    HW131891   7.571   7.047  14.577
76684SOL    HW231892   7.574   7.187  14.520
76685SOL     OW31893   3.754   6.921   4.558
76685SOL    HW131894   3.790   6.983   4.622
76685SOL    HW231895   3.743   6.840   4.607
76686SOL     OW31896   5.734   1.244   5.184
76686SOL    HW131897   5.687   1.165   5.209
76686SOL    HW231898   5.699   1.312   5.242
76687SOL     OW31899   1.381   5.903  10.793
76687SOL    HW131900   1.293   5.874  10.817
76687SOL    HW231901   1.376   5.998  10.794
76688SOL     OW31902  11.063  13.532  12.076
76688SOL    HW131903  11.145  13.561  12.037
76688SOL    HW231904  11.047  13.595  12.147
76689SOL     OW31905  12.676   9.094   5.869
76689SOL    HW131906  12.648   9.117   5.780
76689SOL    HW231907  12.637   9.008   5.884
76690SOL     OW31908  13.537   3.499   2.888
76690SOL    HW131909  13.567   3.570   2.831
76690SOL    HW231910  13.492   3.543   2.961
76691SOL     OW31911   4.067  14.849   6.541
76691SOL    HW131912   4.156  14.813   6.537
76691SOL    HW231913   4.029  14.829   6.456
76692SOL     OW31914   7.405  14.023   1.270
76692SOL    HW131915   7.407  14.030   1.366
76692SOL    HW231916   7.469  14.087   1.240
76693SOL     OW31917   5.785   1.557   7.556
76693SOL    HW131918   5.733   1.500   7.613
76693SOL    HW231919   5.801   1.635   7.608
76694SOL     OW31920   3.781   1.379   3.644
76694SOL    HW131921   3.765   1.357   3.552
76694SOL    HW231922   3.727   1.316   3.692
76695SOL     OW31923   9.781   7.285   5.843
76695SOL    HW131924   9.724   7.332   5.904
76695SOL    HW231925   9.832   7.226   5.899
76696SOL     OW31926   1.146   9.007   0.549
76696SOL    HW131927   1.167   8.971   0.635
76696SOL    HW231928   1.199   9.087   0.543
76697SOL     OW31929   7.556  10.005  13.670
76697SOL    HW131930   7.644  10.010  13.633
76697SOL    HW231931   7.553   9.921  13.714
76698SOL     OW31932   3.780   0.246   9.583
76698SOL    HW131933   3.819   0.173   9.535
76698SOL    HW231934   3.686   0.238   9.568
76699SOL     OW31935  11.386  13.961   0.682
76699SOL    HW131936  11.316  14.023   0.661
76699SOL    HW231937  11.463  13.997   0.639
76700SOL     OW31938   7.419   8.471   6.017
76700SOL    HW131939   7.504   8.428   6.007
76700SOL    HW231940   7.372   8.418   6.081
76701SOL     OW31941  14.487  10.811  12.869
76701SOL    HW131942  14.503  10.904  12.883
76701SOL    HW231943  14.537  10.789  12.791
76702SOL     OW31944   1.268   2.325  14.206
76702SOL    HW131945   1.265   2.304  14.113
76702SOL    HW231946   1.279   2.420  14.209
76703SOL     OW31947   6.687  10.038   1.186
76703SOL    HW131948   6.673  10.131   1.203
76703SOL    HW231949   6.781  10.030   1.169
76704SOL     OW31950   5.014   6.963  12.663
76704SOL    HW131951   4.939   7.016  12.690
76704SOL    HW231952   5.042   7.001  12.579
76705SOL     OW31953   3.871   3.006  12.804
76705SOL    HW131954   3.892   2.950  12.729
76705SOL    HW231955   3.820   2.950  12.862
76706SOL     OW31956   9.073  14.172   3.233
76706SOL    HW131957   9.153  14.140   3.275
76706SOL    HW231958   9.021  14.093   3.217
76707SOL     OW31959  13.543   7.430  12.693
76707SOL    HW131960  13.573   7.391  12.611
76707SOL    HW231961  13.588   7.380  12.761
76708SOL     OW31962   3.552  11.613   8.660
76708SOL    HW131963   3.576  11.670   8.733
76708SOL    HW231964   3.457  11.621   8.653
76709SOL     OW31965   3.090   7.134   1.399
76709SOL    HW131966   3.135   7.197   1.343
76709SOL    HW231967   3.075   7.182   1.481
76710SOL     OW31968   0.806  13.770   7.482
76710SOL    HW131969   0.818  13.724   7.565
76710SOL    HW231970   0.847  13.856   7.496
76711SOL     OW31971   9.898  13.145  10.710
76711SOL    HW131972   9.976  13.185  10.748
76711SOL    HW231973   9.884  13.192  10.628
76712SOL     OW31974   1.297   7.766   0.717
76712SOL    HW131975   1.322   7.811   0.636
76712SOL    HW231976   1.266   7.680   0.688
76713SOL     OW31977   6.062   3.428   8.406
76713SOL    HW131978   6.117   3.477   8.345
76713SOL    HW231979   6.119   3.411   8.481
76714SOL     OW31980   2.960   6.939  14.383
76714SOL    HW131981   3.001   6.979  14.460
76714SOL    HW231982   2.920   6.859  14.416
76715SOL     OW31983   5.421   0.193  12.301
76715SOL    HW131984   5.419   0.229  12.212
76715SOL    HW231985   5.427   0.270  12.358
76716SOL     OW31986   3.289   0.643  13.944
76716SOL    HW131987   3.284   0.627  13.849
76716SOL    HW231988   3.362   0.589  13.973
76717SOL     OW31989   2.069  13.862   1.027
76717SOL    HW131990   2.112  13.881   1.110
76717SOL    HW231991   1.995  13.922   1.023
76718SOL     OW31992   6.881   9.442   9.319
76718SOL    HW131993   6.923   9.387   9.253
76718SOL    HW231994   6.927   9.421   9.400
76719SOL     OW31995  12.624  13.839   2.567
76719SOL    HW131996  12.692  13.905   2.554
76719SOL    HW231997  12.590  13.856   2.655
76720SOL     OW31998   1.628   6.359   7.950
76720SOL    HW131999   1.565   6.356   8.022
76720SOL    HW232000   1.578   6.330   7.874
76721SOL     OW32001   5.861  10.359   6.513
76721SOL    HW132002   5.824  10.414   6.444
76721SOL    HW232003   5.820  10.274   6.500
76722SOL     OW32004   6.266   6.519   7.321
76722SOL    HW132005   6.186   6.505   7.371
76722SOL    HW232006   6.236   6.532   7.231
76723SOL     OW32007   6.382  14.608  12.738
76723SOL    HW132008   6.290  14.625  12.715
76723SOL    HW232009   6.397  14.517  12.709
76724SOL     OW32010  13.965   5.695   7.740
76724SOL    HW132011  13.917   5.660   7.815
76724SOL    HW232012  14.034   5.631   7.724
76725SOL     OW32013   5.915   1.544  11.627
76725SOL    HW132014   5.928   1.468  11.684
76725SOL    HW232015   5.934   1.511  11.539
76726SOL     OW32016  14.254   3.647  10.255
76726SOL    HW132017  14.291   3.647  10.343
76726SOL    HW232018  14.181   3.585  10.259
76727SOL     OW32019   3.286   5.653  14.124
76727SOL    HW132020   3.285   5.741  14.163
76727SOL    HW232021   3.196   5.622  14.133
76728SOL     OW32022  12.321  14.361   2.643
76728SOL    HW132023  12.391  14.420   2.672
76728SOL    HW232024  12.348  14.274   2.673
76729SOL     OW32025  14.193  13.028  11.047
76729SOL    HW132026  14.258  12.997  10.984
76729SOL    HW232027  14.118  12.970  11.034
76730SOL     OW32028  11.404   7.776   7.644
76730SOL    HW132029  11.433   7.816   7.562
76730SOL    HW232030  11.379   7.687   7.620
76731SOL     OW32031   6.197  13.270   3.669
76731SOL    HW132032   6.171  13.185   3.634
76731SOL    HW232033   6.114  13.317   3.682
76732SOL     OW32034   6.197   1.252   4.791
76732SOL    HW132035   6.104   1.234   4.774
76732SOL    HW232036   6.198   1.345   4.816
76733SOL     OW32037   5.210   3.258   4.567
76733SOL    HW132038   5.292   3.299   4.594
76733SOL    HW232039   5.170   3.322   4.508
76734SOL     OW32040   3.216  14.021   9.935
76734SOL    HW132041   3.152  13.984   9.996
76734SOL    HW232042   3.261  13.945   9.898
76735SOL     OW32043   3.751   9.896  11.159
76735SOL    HW132044   3.734   9.967  11.221
76735SOL    HW232045   3.843   9.875  11.171
76736SOL     OW32046   6.212   0.551  10.429
76736SOL    HW132047   6.296   0.595  10.419
76736SOL    HW232048   6.171   0.593  10.504
76737SOL     OW32049   5.948   2.266   3.770
76737SOL    HW132050   5.903   2.305   3.845
76737SOL    HW232051   5.975   2.341   3.717
76738SOL     OW32052   9.756   3.657   9.318
76738SOL    HW132053   9.785   3.566   9.318
76738SOL    HW232054   9.833   3.707   9.346
76739SOL     OW32055   9.340   7.353   6.546
76739SOL    HW132056   9.368   7.282   6.488
76739SOL    HW232057   9.398   7.426   6.524
76740SOL     OW32058   6.763  14.469  11.236
76740SOL    HW132059   6.848  14.438  11.205
76740SOL    HW232060   6.730  14.524  11.166
76741SOL     OW32061   3.437   5.717   5.079
76741SOL    HW132062   3.434   5.810   5.098
76741SOL    HW232063   3.519   5.704   5.031
76742SOL     OW32064   5.597   8.444  10.491
76742SOL    HW132065   5.545   8.371  10.526
76742SOL    HW232066   5.538   8.487  10.429
76743SOL     OW32067   1.890   3.058  14.035
76743SOL    HW132068   1.909   3.064  13.941
76743SOL    HW232069   1.933   3.135  14.073
76744SOL     OW32070   9.343   2.231  13.423
76744SOL    HW132071   9.312   2.191  13.504
76744SOL    HW232072   9.426   2.273  13.447
76745SOL     OW32073   1.156   6.021   1.889
76745SOL    HW132074   1.086   5.958   1.904
76745SOL    HW232075   1.113   6.107   1.893
76746SOL     OW32076   2.548   9.210   3.559
76746SOL    HW132077   2.539   9.115   3.555
76746SOL    HW232078   2.557   9.230   3.652
76747SOL     OW32079  14.826   1.388   0.019
76747SOL    HW132080  14.750   1.446   0.024
76747SOL    HW232081   0.012   1.430  14.830
76748SOL     OW32082   3.409   2.246   6.332
76748SOL    HW132083   3.323   2.206   6.341
76748SOL    HW232084   3.471   2.173   6.338
76749SOL     OW32085  13.078  13.312   0.702
76749SOL    HW132086  13.118  13.248   0.761
76749SOL    HW232087  12.992  13.275   0.681
76750SOL     OW32088   1.052   2.719  13.252
76750SOL    HW132089   1.073   2.744  13.343
76750SOL    HW232090   0.963   2.754  13.239
76751SOL     OW32091  11.312   5.088  11.969
76751SOL    HW132092  11.364   5.017  12.006
76751SOL    HW232093  11.273   5.132  12.044
76752SOL     OW32094   6.010  10.308   1.168
76752SOL    HW132095   6.056  10.389   1.147
76752SOL    HW232096   5.948  10.297   1.096
76753SOL     OW32097   2.521   1.270  12.792
76753SOL    HW132098   2.433   1.234  12.800
76753SOL    HW232099   2.523   1.343  12.854
76754SOL     OW32100   8.868   2.214   1.745
76754SOL    HW132101   8.935   2.270   1.784
76754SOL    HW232102   8.847   2.257   1.662
76755SOL     OW32103  11.841  12.050  13.775
76755SOL    HW132104  11.817  12.136  13.808
76755SOL    HW232105  11.904  12.016  13.839
76756SOL     OW32106   4.684   3.226  12.712
76756SOL    HW132107   4.740   3.197  12.641
76756SOL    HW232108   4.718   3.312  12.736
76757SOL     OW32109  14.041  10.285   8.017
76757SOL    HW132110  14.003  10.355   7.964
76757SOL    HW232111  13.977  10.270   8.087
76758SOL     OW32112   2.288   3.378   2.022
76758SOL    HW132113   2.249   3.443   1.964
76758SOL    HW232114   2.258   3.294   1.988
76759SOL     OW32115   6.932   2.352   2.555
76759SOL    HW132116   6.948   2.371   2.647
76759SOL    HW232117   7.004   2.395   2.508
76760SOL     OW32118   0.276   5.729   2.362
76760SOL    HW132119   0.338   5.658   2.379
76760SOL    HW232120   0.224   5.735   2.443
76761SOL     OW32121  14.400   0.159  13.996
76761SOL    HW132122  14.350   0.143  13.916
76761SOL    HW232123  14.407   0.255  14.001
76762SOL     OW32124   8.772   0.016  10.822
76762SOL    HW132125   8.690  14.841  10.820
76762SOL    HW232126   8.774   0.058  10.908
76763SOL     OW32127   4.920  13.727   1.814
76763SOL    HW132128   4.958  13.777   1.886
76763SOL    HW232129   4.957  13.766   1.735
76764SOL     OW32130  12.858   6.216   9.210
76764SOL    HW132131  12.871   6.247   9.121
76764SOL    HW232132  12.848   6.121   9.201
76765SOL     OW32133   7.927  12.711   7.969
76765SOL    HW132134   7.978  12.687   7.892
76765SOL    HW232135   7.943  12.804   7.981
76766SOL     OW32136   5.714   1.262   1.260
76766SOL    HW132137   5.749   1.212   1.186
76766SOL    HW232138   5.646   1.317   1.222
76767SOL     OW32139  10.678   4.739   3.908
76767SOL    HW132140  10.609   4.798   3.941
76767SOL    HW232141  10.637   4.694   3.835
76768SOL     OW32142   3.803  11.228   5.547
76768SOL    HW132143   3.722  11.182   5.527
76768SOL    HW232144   3.789  11.265   5.634
76769SOL     OW32145   7.124  10.478  13.263
76769SOL    HW132146   7.188  10.436  13.206
76769SOL    HW232147   7.149  10.451  13.351
76770SOL     OW32148  11.669  11.954   2.667
76770SOL    HW132149  11.692  11.965   2.760
76770SOL    HW232150  11.694  11.864   2.647
76771SOL     OW32151  12.937   2.943   9.994
76771SOL    HW132152  13.005   2.886   9.960
76771SOL    HW232153  12.855   2.900   9.971
76772SOL     OW32154   8.742   9.286   8.941
76772SOL    HW132155   8.727   9.372   8.979
76772SOL    HW232156   8.812   9.300   8.878
76773SOL     OW32157   9.437   8.589   7.493
76773SOL    HW132158   9.474   8.674   7.515
76773SOL    HW232159   9.505   8.526   7.516
76774SOL     OW32160   0.633   7.071  11.667
76774SOL    HW132161   0.688   7.096  11.592
76774SOL    HW232162   0.551   7.117  11.653
76775SOL     OW32163   6.283   4.387  14.346
76775SOL    HW132164   6.346   4.403  14.275
76775SOL    HW232165   6.284   4.468  14.397
76776SOL     OW32166  10.294  10.214   6.542
76776SOL    HW132167  10.222  10.152   6.548
76776SOL    HW232168  10.335  10.212   6.629
76777SOL     OW32169   0.539  13.202   7.744
76777SOL    HW132170   0.553  13.237   7.832
76777SOL    HW232171   0.492  13.120   7.758
76778SOL     OW32172   6.156   1.871   3.555
76778SOL    HW132173   6.235   1.868   3.610
76778SOL    HW232174   6.088   1.905   3.613
76779SOL     OW32175   9.606   7.665  10.547
76779SOL    HW132176   9.655   7.726  10.491
76779SOL    HW232177   9.646   7.580  10.529
76780SOL     OW32178   3.365   1.255   1.692
76780SOL    HW132179   3.405   1.179   1.733
76780SOL    HW232180   3.375   1.325   1.756
76781SOL     OW32181  14.728   4.665   6.145
76781SOL    HW132182  14.791   4.612   6.095
76781SOL    HW232183  14.648   4.612   6.146
76782SOL     OW32184   2.330   9.139   5.759
76782SOL    HW132185   2.257   9.155   5.699
76782SOL    HW232186   2.289   9.114   5.841
76783SOL     OW32187   8.731  13.051  10.971
76783SOL    HW132188   8.807  13.076  11.024
76783SOL    HW232189   8.762  13.060  10.880
76784SOL     OW32190  12.810   9.077   9.897
76784SOL    HW132191  12.789   8.998   9.846
76784SOL    HW232192  12.766   9.148   9.850
76785SOL     OW32193  13.861   6.981   3.357
76785SOL    HW132194  13.795   6.926   3.314
76785SOL    HW232195  13.927   6.919   3.388
76786SOL     OW32196  13.976   2.703  11.806
76786SOL    HW132197  13.949   2.656  11.884
76786SOL    HW232198  13.921   2.781  11.805
76787SOL     OW32199   6.916   2.229  10.610
76787SOL    HW132200   6.987   2.277  10.568
76787SOL    HW232201   6.956   2.147  10.640
76788SOL     OW32202  13.028  13.184  14.534
76788SOL    HW132203  13.072  13.127  14.597
76788SOL    HW232204  13.083  13.180  14.456
76789SOL     OW32205   9.232   9.096  12.239
76789SOL    HW132206   9.137   9.108  12.239
76789SOL    HW232207   9.267   9.179  12.271
76790SOL     OW32208   6.463   9.397   8.690
76790SOL    HW132209   6.396   9.462   8.666
76790SOL    HW232210   6.509   9.437   8.763
76791SOL     OW32211   6.444   7.948  14.457
76791SOL    HW132212   6.399   7.918  14.378
76791SOL    HW232213   6.408   7.893  14.527
76792SOL     OW32214   6.680  14.678   6.341
76792SOL    HW132215   6.715  14.726   6.266
76792SOL    HW232216   6.626  14.742   6.387
76793SOL     OW32217   4.939  13.228   0.708
76793SOL    HW132218   4.956  13.315   0.673
76793SOL    HW232219   4.961  13.169   0.636
76794SOL     OW32220   1.396   5.976   0.863
76794SOL    HW132221   1.334   6.034   0.907
76794SOL    HW232222   1.459   5.952   0.931
76795SOL     OW32223  12.794  14.057   2.532
76795SOL    HW132224  12.890  14.061   2.534
76795SOL    HW232225  12.768  14.137   2.487
76796SOL     OW32226   2.118   5.940   8.175
76796SOL    HW132227   2.146   5.956   8.265
76796SOL    HW232228   2.169   6.002   8.123
76797SOL     OW32229  11.805   5.262  11.215
76797SOL    HW132230  11.838   5.350  11.200
76797SOL    HW232231  11.731   5.273  11.274
76798SOL     OW32232   7.720   5.031   4.904
76798SOL    HW132233   7.803   5.054   4.862
76798SOL    HW232234   7.744   5.008   4.994
76799SOL     OW32235   0.513   2.754   4.713
76799SOL    HW132236   0.479   2.799   4.790
76799SOL    HW232237   0.565   2.821   4.668
76800SOL     OW32238  14.253   0.981   0.041
76800SOL    HW132239  14.251   0.967   0.136
76800SOL    HW232240  14.165   0.958   0.011
76801SOL     OW32241  13.113   2.014   1.740
76801SOL    HW132242  13.203   1.983   1.738
76801SOL    HW232243  13.099   2.039   1.832
76802SOL     OW32244   1.242  12.373   2.095
76802SOL    HW132245   1.187  12.387   2.018
76802SOL    HW232246   1.259  12.279   2.097
76803SOL     OW32247  12.413  14.504   0.704
76803SOL    HW132248  12.358  14.487   0.781
76803SOL    HW232249  12.434  14.597   0.709
76804SOL     OW32250   6.538   7.465   2.453
76804SOL    HW132251   6.600   7.413   2.401
76804SOL    HW232252   6.554   7.438   2.543
76805SOL     OW32253  10.081   8.747   6.059
76805SOL    HW132254  10.165   8.772   6.020
76805SOL    HW232255  10.050   8.674   6.005
76806SOL     OW32256  14.015  13.068   6.930
76806SOL    HW132257  14.054  13.146   6.968
76806SOL    HW232258  14.076  12.997   6.952
76807SOL     OW32259   2.187   5.970   6.747
76807SOL    HW132260   2.209   5.927   6.664
76807SOL    HW232261   2.264   5.954   6.803
76808SOL     OW32262   4.793   8.798  12.401
76808SOL    HW132263   4.783   8.717  12.351
76808SOL    HW232264   4.722   8.795  12.466
76809SOL     OW32265  12.228  11.524  11.409
76809SOL    HW132266  12.207  11.439  11.370
76809SOL    HW232267  12.319  11.540  11.382
76810SOL     OW32268   7.959  11.014   5.435
76810SOL    HW132269   7.910  11.008   5.517
76810SOL    HW232270   8.051  11.012   5.462
76811SOL     OW32271   3.634   4.530  13.145
76811SOL    HW132272   3.654   4.449  13.192
76811SOL    HW232273   3.591   4.586  13.211
76812SOL     OW32274   6.397  14.593   6.294
76812SOL    HW132275   6.322  14.540   6.318
76812SOL    HW232276   6.360  14.677   6.267
76813SOL     OW32277   2.092  11.198   9.292
76813SOL    HW132278   2.165  11.258   9.280
76813SOL    HW232279   2.018  11.253   9.315
76814SOL     OW32280   1.491   8.739  14.572
76814SOL    HW132281   1.486   8.826  14.611
76814SOL    HW232282   1.582   8.729  14.547
76815SOL     OW32283   4.200   7.524   4.497
76815SOL    HW132284   4.278   7.476   4.470
76815SOL    HW232285   4.188   7.500   4.589
76816SOL     OW32286   8.782   2.136   7.509
76816SOL    HW132287   8.743   2.075   7.446
76816SOL    HW232288   8.733   2.122   7.590
76817SOL     OW32289  12.457  13.800   3.834
76817SOL    HW132290  12.396  13.734   3.867
76817SOL    HW232291  12.455  13.870   3.900
76818SOL     OW32292   8.460  10.748  12.727
76818SOL    HW132293   8.490  10.659  12.747
76818SOL    HW232294   8.531  10.786  12.675
76819SOL     OW32295   4.812   3.744   2.582
76819SOL    HW132296   4.801   3.649   2.593
76819SOL    HW232297   4.754   3.767   2.510
76820SOL     OW32298  10.363  11.479  11.827
76820SOL    HW132299  10.422  11.405  11.812
76820SOL    HW232300  10.417  11.542  11.876
76821SOL     OW32301   2.974  13.088   1.298
76821SOL    HW132302   3.029  13.158   1.263
76821SOL    HW232303   2.895  13.091   1.244
76822SOL     OW32304   2.000  12.479  12.045
76822SOL    HW132305   1.940  12.405  12.055
76822SOL    HW232306   2.072  12.445  11.993
76823SOL     OW32307  14.372   7.822   4.641
76823SOL    HW132308  14.384   7.790   4.731
76823SOL    HW232309  14.384   7.916   4.647
76824SOL     OW32310  14.009   3.056   6.425
76824SOL    HW132311  13.997   3.030   6.516
76824SOL    HW232312  14.098   3.092   6.421
76825SOL     OW32313   6.339   2.616  11.806
76825SOL    HW132314   6.284   2.556  11.757
76825SOL    HW232315   6.422   2.568  11.818
76826SOL     OW32316   8.109  12.683   9.759
76826SOL    HW132317   8.081  12.713   9.673
76826SOL    HW232318   8.053  12.607   9.777
76827SOL     OW32319   7.819  14.818  12.449
76827SOL    HW132320   7.884  14.747  12.447
76827SOL    HW232321   7.842   0.000  12.374
76828SOL     OW32322   3.620   0.151  12.968
76828SOL    HW132323   3.698   0.097  12.950
76828SOL    HW232324   3.566   0.141  12.890
76829SOL     OW32325   3.375   6.907   6.024
76829SOL    HW132326   3.366   6.850   6.100
76829SOL    HW232327   3.433   6.859   5.964
76830SOL     OW32328   1.179   7.424  11.530
76830SOL    HW132329   1.264   7.423  11.485
76830SOL    HW232330   1.163   7.517  11.546
76831SOL     OW32331   7.031  14.429   7.705
76831SOL    HW132332   7.093  14.406   7.774
76831SOL    HW232333   6.945  14.415   7.745
76832SOL     OW32334   3.728   3.217  12.242
76832SOL    HW132335   3.688   3.283  12.298
76832SOL    HW232336   3.740   3.141  12.299
76833SOL     OW32337  14.464   6.429   5.514
76833SOL    HW132338  14.520   6.506   5.516
76833SOL    HW232339  14.392   6.450   5.574
76834SOL     OW32340   9.611   1.958   1.186
76834SOL    HW132341   9.550   1.889   1.212
76834SOL    HW232342   9.648   1.989   1.269
76835SOL     OW32343   2.216   3.277   3.419
76835SOL    HW132344   2.210   3.358   3.369
76835SOL    HW232345   2.212   3.208   3.352
76836SOL     OW32346   8.548   1.079  12.548
76836SOL    HW132347   8.486   1.042  12.486
76836SOL    HW232348   8.543   1.022  12.624
76837SOL     OW32349   9.455   9.702  14.769
76837SOL    HW132350   9.530   9.724  14.714
76837SOL    HW232351   9.479   9.619  14.810
76838SOL     OW32352   2.981   2.056  10.102
76838SOL    HW132353   3.010   2.052  10.193
76838SOL    HW232354   2.964   1.965  10.077
76839SOL     OW32355   2.891  11.154   3.422
76839SOL    HW132356   2.964  11.100   3.392
76839SOL    HW232357   2.824  11.142   3.355
76840SOL     OW32358  11.221   1.695   7.059
76840SOL    HW132359  11.283   1.631   7.025
76840SOL    HW232360  11.155   1.643   7.105
76841SOL     OW32361   1.097   8.191  12.194
76841SOL    HW132362   1.039   8.115  12.199
76841SOL    HW232363   1.039   8.266  12.207
76842SOL     OW32364  11.168   4.985   9.904
76842SOL    HW132365  11.168   5.069   9.950
76842SOL    HW232366  11.134   5.005   9.817
76843SOL     OW32367   7.577   6.727   0.363
76843SOL    HW132368   7.625   6.708   0.444
76843SOL    HW232369   7.646   6.742   0.298
76844SOL     OW32370  11.135   2.397   2.011
76844SOL    HW132371  11.092   2.339   1.949
76844SOL    HW232372  11.135   2.482   1.969
76845SOL     OW32373  13.891   0.477   3.915
76845SOL    HW132374  13.962   0.516   3.966
76845SOL    HW232375  13.922   0.389   3.893
76846SOL     OW32376  10.696   8.856  13.453
76846SOL    HW132377  10.622   8.814  13.497
76846SOL    HW232378  10.665   8.945  13.435
76847SOL     OW32379   5.670  14.289   9.253
76847SOL    HW132380   5.715  14.291   9.338
76847SOL    HW232381   5.614  14.367   9.254
76848SOL     OW32382   8.726   9.329  13.173
76848SOL    HW132383   8.807   9.355  13.216
76848SOL    HW232384   8.665   9.313  13.245
76849SOL     OW32385   0.985  12.805   4.638
76849SOL    HW132386   1.072  12.841   4.657
76849SOL    HW232387   0.946  12.867   4.576
76850SOL     OW32388   0.475   2.114   4.278
76850SOL    HW132389   0.482   2.055   4.353
76850SOL    HW232390   0.529   2.190   4.302
76851SOL     OW32391   3.524   3.894   9.722
76851SOL    HW132392   3.603   3.895   9.777
76851SOL    HW232393   3.457   3.937   9.775
76852SOL     OW32394   1.339  12.868   2.950
76852SOL    HW132395   1.311  12.932   2.884
76852SOL    HW232396   1.258  12.832   2.984
76853SOL     OW32397   1.297   6.802   0.369
76853SOL    HW132398   1.275   6.799   0.462
76853SOL    HW232399   1.238   6.738   0.329
76854SOL     OW32400   3.422   6.986   4.071
76854SOL    HW132401   3.348   6.925   4.076
76854SOL    HW232402   3.491   6.944   4.123
76855SOL     OW32403  14.194   0.947   2.294
76855SOL    HW132404  14.189   0.987   2.381
76855SOL    HW232405  14.140   1.003   2.239
76856SOL     OW32406  11.995   0.238   5.921
76856SOL    HW132407  12.023   0.277   5.838
76856SOL    HW232408  11.904   0.267   5.932
76857SOL     OW32409  14.458   1.635   8.683
76857SOL    HW132410  14.400   1.600   8.750
76857SOL    HW232411  14.546   1.627   8.721
76858SOL     OW32412  13.685   6.128   4.587
76858SOL    HW132413  13.682   6.218   4.621
76858SOL    HW232414  13.633   6.078   4.650
76859SOL     OW32415  10.349   2.924   1.125
76859SOL    HW132416  10.341   2.848   1.067
76859SOL    HW232417  10.444   2.940   1.130
76860SOL     OW32418   3.091   8.983  11.694
76860SOL    HW132419   3.016   9.042  11.694
76860SOL    HW232420   3.083   8.933  11.775
76861SOL     OW32421   6.656   1.530   1.774
76861SOL    HW132422   6.693   1.588   1.708
76861SOL    HW232423   6.681   1.442   1.745
76862SOL     OW32424   9.701   8.461   9.826
76862SOL    HW132425   9.616   8.434   9.790
76862SOL    HW232426   9.691   8.452   9.921
76863SOL     OW32427   0.876  12.579   1.934
76863SOL    HW132428   0.932  12.621   2.000
76863SOL    HW232429   0.807  12.644   1.917
76864SOL     OW32430  12.768   9.144   9.568
76864SOL    HW132431  12.673   9.150   9.580
76864SOL    HW232432  12.786   9.050   9.573
76865SOL     OW32433   7.808   6.374   0.800
76865SOL    HW132434   7.814   6.317   0.876
76865SOL    HW232435   7.879   6.437   0.811
76866SOL     OW32436   9.884   4.493  10.043
76866SOL    HW132437   9.899   4.428  10.111
76866SOL    HW232438   9.818   4.453   9.986
76867SOL     OW32439   9.015  10.453  13.597
76867SOL    HW132440   8.923  10.442  13.622
76867SOL    HW232441   9.055  10.368  13.617
76868SOL     OW32442   9.127  12.637   6.264
76868SOL    HW132443   9.141  12.643   6.358
76868SOL    HW232444   9.214  12.619   6.228
76869SOL     OW32445  13.923   3.873   9.244
76869SOL    HW132446  14.000   3.821   9.270
76869SOL    HW232447  13.922   3.947   9.304
76870SOL     OW32448  13.787  13.672   8.854
76870SOL    HW132449  13.840  13.684   8.933
76870SOL    HW232450  13.772  13.578   8.849
76871SOL     OW32451   1.221   0.947   5.930
76871SOL    HW132452   1.193   0.871   5.981
76871SOL    HW232453   1.249   0.910   5.846
76872SOL     OW32454   1.565   8.996   8.551
76872SOL    HW132455   1.660   8.986   8.562
76872SOL    HW232456   1.554   9.021   8.459
76873SOL     OW32457   9.627  11.186   1.712
76873SOL    HW132458   9.637  11.241   1.789
76873SOL    HW232459   9.532  11.178   1.700
76874SOL     OW32460  13.709  12.485   5.657
76874SOL    HW132461  13.741  12.407   5.613
76874SOL    HW232462  13.727  12.557   5.597
76875SOL     OW32463   5.723   1.895   7.292
76875SOL    HW132464   5.808   1.917   7.331
76875SOL    HW232465   5.731   1.802   7.270
76876SOL     OW32466   7.973   4.801   6.598
76876SOL    HW132467   7.935   4.801   6.686
76876SOL    HW232468   8.040   4.869   6.601
76877SOL     OW32469   2.975   9.092   6.288
76877SOL    HW132470   2.896   9.105   6.235
76877SOL    HW232471   3.023   9.174   6.280
76878SOL     OW32472   0.191   1.386   3.917
76878SOL    HW132473   0.174   1.429   4.001
76878SOL    HW232474   0.201   1.458   3.855
76879SOL     OW32475  14.418  11.460   3.922
76879SOL    HW132476  14.421  11.450   4.017
76879SOL    HW232477  14.324  11.459   3.901
76880SOL     OW32478   2.180   1.057  14.044
76880SOL    HW132479   2.208   0.994  13.978
76880SOL    HW232480   2.259   1.078  14.093
76881SOL     OW32481  10.335   1.568  13.063
76881SOL    HW132482  10.295   1.490  13.025
76881SOL    HW232483  10.429   1.557  13.044
76882SOL     OW32484  11.034   4.133   9.456
76882SOL    HW132485  11.101   4.087   9.404
76882SOL    HW232486  10.958   4.137   9.398
76883SOL     OW32487  14.158   2.864   8.033
76883SOL    HW132488  14.084   2.818   8.074
76883SOL    HW232489  14.198   2.800   7.975
76884SOL     OW32490  12.091   9.799   2.348
76884SOL    HW132491  11.996   9.807   2.349
76884SOL    HW232492  12.119   9.830   2.434
76885SOL     OW32493   7.625  10.944   1.658
76885SOL    HW132494   7.560  10.909   1.719
76885SOL    HW232495   7.707  10.899   1.681
76886SOL     OW32496   2.813   0.001  14.574
76886SOL    HW132497   2.745   0.045  14.525
76886SOL    HW232498   2.774  14.855  14.659
76887SOL     OW32499   8.201   8.771   9.407
76887SOL    HW132500   8.271   8.762   9.343
76887SOL    HW232501   8.159   8.685   9.409
76888SOL     OW32502  13.221  13.714   6.466
76888SOL    HW132503  13.231  13.622   6.490
76888SOL    HW232504  13.281  13.726   6.392
76889SOL     OW32505   3.845  12.592  11.018
76889SOL    HW132506   3.860  12.526  10.951
76889SOL    HW232507   3.834  12.542  11.099
76890SOL     OW32508   4.105  10.622  11.638
76890SOL    HW132509   4.059  10.700  11.607
76890SOL    HW232510   4.169  10.655  11.701
76891SOL     OW32511   7.513  11.998   0.715
76891SOL    HW132512   7.596  11.978   0.673
76891SOL    HW232513   7.495  11.922   0.770
76892SOL     OW32514  14.138   3.843  13.838
76892SOL    HW132515  14.055   3.889  13.830
76892SOL    HW232516  14.125   3.760  13.792
76893SOL     OW32517   9.601  14.459   7.759
76893SOL    HW132518   9.612  14.545   7.719
76893SOL    HW232519   9.683  14.413   7.738
76894SOL     OW32520  12.802   5.983   3.362
76894SOL    HW132521  12.872   6.002   3.300
76894SOL    HW232522  12.844   5.935   3.433
76895SOL     OW32523   2.672   5.538   4.028
76895SOL    HW132524   2.693   5.588   4.107
76895SOL    HW232525   2.602   5.588   3.986
76896SOL     OW32526  11.911   1.184  13.144
76896SOL    HW132527  11.999   1.221  13.145
76896SOL    HW232528  11.876   1.207  13.058
76897SOL     OW32529   1.705   4.410   8.735
76897SOL    HW132530   1.728   4.459   8.657
76897SOL    HW232531   1.617   4.441   8.758
76898SOL     OW32532   2.281   6.512   8.238
76898SOL    HW132533   2.355   6.503   8.178
76898SOL    HW232534   2.294   6.444   8.303
76899SOL     OW32535  10.659  13.041   2.090
76899SOL    HW132536  10.713  12.965   2.112
76899SOL    HW232537  10.580  13.030   2.143
76900SOL     OW32538   4.821   8.027   6.451
76900SOL    HW132539   4.768   7.949   6.440
76900SOL    HW232540   4.901   8.009   6.402
76901SOL     OW32541  12.861  14.576  12.277
76901SOL    HW132542  12.915  14.614  12.346
76901SOL    HW232543  12.910  14.590  12.196
76902SOL     OW32544  14.636  10.160   3.480
76902SOL    HW132545  14.546  10.146   3.508
76902SOL    HW232546  14.630  10.225   3.410
76903SOL     OW32547  14.287   4.691   5.301
76903SOL    HW132548  14.257   4.767   5.350
76903SOL    HW232549  14.352   4.649   5.358
76904SOL     OW32550   1.202   5.417  12.754
76904SOL    HW132551   1.270   5.374  12.806
76904SOL    HW232552   1.164   5.482  12.814
76905SOL     OW32553   2.210   3.989   8.204
76905SOL    HW132554   2.282   4.026   8.153
76905SOL    HW232555   2.209   4.041   8.285
76906SOL     OW32556   6.358  10.806   3.490
76906SOL    HW132557   6.409  10.869   3.540
76906SOL    HW232558   6.355  10.728   3.546
76907SOL     OW32559   1.421   6.921   8.035
76907SOL    HW132560   1.497   6.909   8.093
76907SOL    HW232561   1.455   6.971   7.961
76908SOL     OW32562   4.262   9.174   7.715
76908SOL    HW132563   4.357   9.178   7.729
76908SOL    HW232564   4.245   9.084   7.690
76909SOL     OW32565  14.437  12.405  14.029
76909SOL    HW132566  14.457  12.407  13.935
76909SOL    HW232567  14.494  12.471  14.068
76910SOL     OW32568   6.748   7.938   2.769
76910SOL    HW132569   6.758   7.878   2.843
76910SOL    HW232570   6.837   7.945   2.733
76911SOL     OW32571  12.544   2.954  14.660
76911SOL    HW132572  12.511   2.869  14.687
76911SOL    HW232573  12.480   2.985  14.595
76912SOL     OW32574  12.618   8.629  13.306
76912SOL    HW132575  12.674   8.556  13.331
76912SOL    HW232576  12.555   8.637  13.377
76913SOL     OW32577   4.572   7.450  11.776
76913SOL    HW132578   4.633   7.521  11.795
76913SOL    HW232579   4.560   7.406  11.861
76914SOL     OW32580   1.883   8.852   5.835
76914SOL    HW132581   1.803   8.814   5.871
76914SOL    HW232582   1.889   8.815   5.747
76915SOL     OW32583   8.362   1.181   9.578
76915SOL    HW132584   8.428   1.245   9.552
76915SOL    HW232585   8.349   1.127   9.501
76916SOL     OW32586   3.210  14.719  14.300
76916SOL    HW132587   3.182  14.702  14.210
76916SOL    HW232588   3.212  14.633  14.342
76917SOL     OW32589  12.592  10.998   4.294
76917SOL    HW132590  12.571  11.016   4.202
76917SOL    HW232591  12.565  11.077   4.340
76918SOL     OW32592   7.457  14.589  14.710
76918SOL    HW132593   7.455  14.498  14.740
76918SOL    HW232594   7.366  14.610  14.691
76919SOL     OW32595   3.791   8.079   7.259
76919SOL    HW132596   3.737   8.077   7.180
76919SOL    HW232597   3.741   8.031   7.324
76920SOL     OW32598   6.214   7.277   8.922
76920SOL    HW132599   6.246   7.331   8.850
76920SOL    HW232600   6.190   7.340   8.991
76921SOL     OW32601   3.987  10.486   6.229
76921SOL    HW132602   3.967  10.575   6.258
76921SOL    HW232603   4.071  10.466   6.270
76922SOL     OW32604   6.682   3.261   1.780
76922SOL    HW132605   6.757   3.224   1.731
76922SOL    HW232606   6.612   3.197   1.767
76923SOL     OW32607  13.364   6.565   4.138
76923SOL    HW132608  13.399   6.647   4.175
76923SOL    HW232609  13.269   6.576   4.144
76924SOL     OW32610   1.263   8.857   3.546
76924SOL    HW132611   1.307   8.920   3.603
76924SOL    HW232612   1.172   8.888   3.542
76925SOL     OW32613   6.343   9.178   3.621
76925SOL    HW132614   6.362   9.105   3.679
76925SOL    HW232615   6.344   9.255   3.677
76926SOL     OW32616   7.578   9.901  12.214
76926SOL    HW132617   7.517   9.835  12.181
76926SOL    HW232618   7.664   9.865  12.197
76927SOL     OW32619   9.103  14.376   0.369
76927SOL    HW132620   9.103  14.302   0.430
76927SOL    HW232621   9.085  14.452   0.424
76928SOL     OW32622  12.177   6.109  11.081
76928SOL    HW132623  12.229   6.162  11.021
76928SOL    HW232624  12.116   6.062  11.024
76929SOL     OW32625   8.084   7.401  12.576
76929SOL    HW132626   8.028   7.461  12.527
76929SOL    HW232627   8.093   7.442  12.663
76930SOL     OW32628  12.961  10.630  11.279
76930SOL    HW132629  12.997  10.701  11.226
76930SOL    HW232630  12.893  10.591  11.224
76931SOL     OW32631  10.106  12.193   9.369
76931SOL    HW132632  10.129  12.164   9.280
76931SOL    HW232633  10.086  12.286   9.359
76932SOL     OW32634  10.172   0.895   3.976
76932SOL    HW132635  10.086   0.932   3.998
76932SOL    HW232636  10.219   0.966   3.932
76933SOL     OW32637  10.488   7.891   4.408
76933SOL    HW132638  10.497   7.986   4.397
76933SOL    HW232639  10.497   7.877   4.503
76934SOL     OW32640   2.387   7.291   8.816
76934SOL    HW132641   2.300   7.300   8.777
76934SOL    HW232642   2.434   7.233   8.756
76935SOL     OW32643  13.951  13.876   9.112
76935SOL    HW132644  13.980  13.785   9.120
76935SOL    HW232645  13.878  13.883   9.173
76936SOL     OW32646   2.299   6.657   3.233
76936SOL    HW132647   2.317   6.725   3.298
76936SOL    HW232648   2.254   6.589   3.282
76937SOL     OW32649  11.890  14.019   6.555
76937SOL    HW132650  11.879  13.998   6.462
76937SOL    HW232651  11.875  13.936   6.601
76938SOL     OW32652  14.176   9.173   2.787
76938SOL    HW132653  14.211   9.226   2.716
76938SOL    HW232654  14.209   9.214   2.867
76939SOL     OW32655   3.908   4.430   4.243
76939SOL    HW132656   3.813   4.429   4.230
76939SOL    HW232657   3.941   4.488   4.173
76940SOL     OW32658   6.358  14.850  11.274
76940SOL    HW132659   6.291  14.818  11.334
76940SOL    HW232660   6.440  14.818  11.312
76941SOL     OW32661  13.608   2.627  12.483
76941SOL    HW132662  13.662   2.573  12.424
76941SOL    HW232663  13.518   2.604  12.460
76942SOL     OW32664  10.042  13.691   8.385
76942SOL    HW132665  10.125  13.720   8.423
76942SOL    HW232666  10.047  13.596   8.386
76943SOL     OW32667   5.666  11.301   1.629
76943SOL    HW132668   5.612  11.222   1.637
76943SOL    HW232669   5.711  11.290   1.546
76944SOL     OW32670   4.482  13.415  12.655
76944SOL    HW132671   4.547  13.345  12.654
76944SOL    HW232672   4.532  13.495  12.639
76945SOL     OW32673  10.852   2.526   3.076
76945SOL    HW132674  10.804   2.467   3.018
76945SOL    HW232675  10.867   2.604   3.022
76946SOL     OW32676  10.064   7.085  14.686
76946SOL    HW132677  10.020   7.000  14.679
76946SOL    HW232678  10.008   7.135  14.745
76947SOL     OW32679   9.492   9.910  10.511
76947SOL    HW132680   9.565   9.937  10.567
76947SOL    HW232681   9.452   9.837  10.558
76948SOL     OW32682   3.645  14.624   5.567
76948SOL    HW132683   3.686  14.701   5.527
76948SOL    HW232684   3.667  14.631   5.660
76949SOL     OW32685   8.110  13.434   8.958
76949SOL    HW132686   8.129  13.403   8.869
76949SOL    HW232687   8.069  13.359   9.001
76950SOL     OW32688   1.446   3.944  13.054
76950SOL    HW132689   1.401   3.935  12.970
76950SOL    HW232690   1.509   3.872  13.055
76951SOL     OW32691   5.024  14.079  13.014
76951SOL    HW132692   5.094  14.142  13.030
76951SOL    HW232693   5.032  14.015  13.085
76952SOL     OW32694   4.282   3.731   4.459
76952SOL    HW132695   4.221   3.748   4.530
76952SOL    HW232696   4.231   3.745   4.379
76953SOL     OW32697   2.853  12.795   4.056
76953SOL    HW132698   2.893  12.880   4.037
76953SOL    HW232699   2.820  12.803   4.146
76954SOL     OW32700   1.951   2.765   2.466
76954SOL    HW132701   1.943   2.819   2.545
76954SOL    HW232702   1.868   2.776   2.421
76955SOL     OW32703  11.228   1.713   1.023
76955SOL    HW132704  11.269   1.767   0.955
76955SOL    HW232705  11.285   1.636   1.030
76956SOL     OW32706  11.239   5.690  12.226
76956SOL    HW132707  11.290   5.738  12.292
76956SOL    HW232708  11.248   5.741  12.146
76957SOL     OW32709  10.467   5.069  12.393
76957SOL    HW132710  10.492   5.086  12.302
76957SOL    HW232711  10.402   4.998  12.388
76958SOL     OW32712   5.459  11.112   8.012
76958SOL    HW132713   5.399  11.046   8.047
76958SOL    HW232714   5.539  11.063   7.990
76959SOL     OW32715  14.394  14.416   9.741
76959SOL    HW132716  14.443  14.430   9.660
76959SOL    HW232717  14.436  14.340   9.782
76960SOL     OW32718  11.012   4.271   4.703
76960SOL    HW132719  11.022   4.176   4.708
76960SOL    HW232720  11.092   4.305   4.744
76961SOL     OW32721   8.903   5.378   5.491
76961SOL    HW132722   8.846   5.377   5.567
76961SOL    HW232723   8.966   5.448   5.508
76962SOL     OW32724   7.135   0.975   2.290
76962SOL    HW132725   7.190   0.998   2.365
76962SOL    HW232726   7.153   1.044   2.226
76963SOL     OW32727   7.572   1.489   4.561
76963SOL    HW132728   7.560   1.573   4.516
76963SOL    HW232729   7.495   1.438   4.537
76964SOL     OW32730   5.191  11.268   8.090
76964SOL    HW132731   5.198  11.186   8.041
76964SOL    HW232732   5.112  11.257   8.143
76965SOL     OW32733   2.310   0.166   8.365
76965SOL    HW132734   2.244   0.171   8.296
76965SOL    HW232735   2.362   0.089   8.343
76966SOL     OW32736  11.834   8.151  12.072
76966SOL    HW132737  11.802   8.084  12.012
76966SOL    HW232738  11.758   8.208  12.086
76967SOL     OW32739   9.709   6.760   8.596
76967SOL    HW132740   9.670   6.841   8.565
76967SOL    HW232741   9.801   6.764   8.567
76968SOL     OW32742   2.136  11.422   9.817
76968SOL    HW132743   2.113  11.449   9.728
76968SOL    HW232744   2.056  11.436   9.868
76969SOL     OW32745   2.394   4.780   2.834
76969SOL    HW132746   2.387   4.871   2.804
76969SOL    HW232747   2.366   4.783   2.925
76970SOL     OW32748   8.938   3.847  13.587
76970SOL    HW132749   8.938   3.800  13.670
76970SOL    HW232750   8.937   3.779  13.520
76971SOL     OW32751   5.583   1.881   0.419
76971SOL    HW132752   5.578   1.798   0.373
76971SOL    HW232753   5.580   1.947   0.350
76972SOL     OW32754  13.409  13.256   0.497
76972SOL    HW132755  13.369  13.171   0.514
76972SOL    HW232756  13.363  13.290   0.420
76973SOL     OW32757   4.404   2.271  13.809
76973SOL    HW132758   4.374   2.323  13.735
76973SOL    HW232759   4.491   2.240  13.783
76974SOL     OW32760   3.091   9.561  12.831
76974SOL    HW132761   3.029   9.623  12.793
76974SOL    HW232762   3.052   9.475  12.815
76975SOL     OW32763   5.613  11.845   6.213
76975SOL    HW132764   5.703  11.845   6.181
76975SOL    HW232765   5.566  11.788   6.152
76976SOL     OW32766   6.021   2.237   5.974
76976SOL    HW132767   6.054   2.306   6.031
76976SOL    HW232768   5.980   2.175   6.034
76977SOL     OW32769   8.237   9.188   0.395
76977SOL    HW132770   8.191   9.245   0.457
76977SOL    HW232771   8.228   9.231   0.310
76978SOL     OW32772   5.607   5.296   3.227
76978SOL    HW132773   5.569   5.289   3.139
76978SOL    HW232774   5.534   5.276   3.286
76979SOL     OW32775   5.113   1.522  10.531
76979SOL    HW132776   5.025   1.507  10.567
76979SOL    HW232777   5.161   1.564  10.603
76980SOL     OW32778  11.788  12.355   1.454
76980SOL    HW132779  11.837  12.339   1.535
76980SOL    HW232780  11.856  12.376   1.390
76981SOL     OW32781   0.973   0.540  13.672
76981SOL    HW132782   1.028   0.520  13.596
76981SOL    HW232783   1.026   0.601  13.725
76982SOL     OW32784   4.411   0.503   7.250
76982SOL    HW132785   4.328   0.549   7.264
76982SOL    HW232786   4.436   0.527   7.161
76983SOL     OW32787  13.419   1.235   1.235
76983SOL    HW132788  13.371   1.228   1.153
76983SOL    HW232789  13.367   1.185   1.298
76984SOL     OW32790   5.070   1.681   8.476
76984SOL    HW132791   5.043   1.746   8.540
76984SOL    HW232792   5.165   1.677   8.485
76985SOL     OW32793  12.387  14.592   8.936
76985SOL    HW132794  12.405  14.666   8.995
76985SOL    HW232795  12.473  14.563   8.906
76986SOL     OW32796  14.068   5.421  10.453
76986SOL    HW132797  14.084   5.351  10.389
76986SOL    HW232798  14.010   5.482  10.407
76987SOL     OW32799   6.283   9.527   2.640
76987SOL    HW132800   6.274   9.623   2.642
76987SOL    HW232801   6.193   9.495   2.650
76988SOL     OW32802  12.458  13.860   3.084
76988SOL    HW132803  12.402  13.867   3.161
76988SOL    HW232804  12.538  13.819   3.115
76989SOL     OW32805   0.575  14.814  14.464
76989SOL    HW132806   0.642  14.775  14.407
76989SOL    HW232807   0.493  14.799  14.418
76990SOL     OW32808  13.939  12.755  12.282
76990SOL    HW132809  13.964  12.669  12.250
76990SOL    HW232810  13.847  12.746  12.306
76991SOL     OW32811   7.677  10.267  12.054
76991SOL    HW132812   7.643  10.213  11.984
76991SOL    HW232813   7.626  10.348  12.049
76992SOL     OW32814   3.706  13.368  10.049
76992SOL    HW132815   3.776  13.430  10.030
76992SOL    HW232816   3.750  13.295  10.092
76993SOL     OW32817   4.722  10.882   1.983
76993SOL    HW132818   4.727  10.899   1.889
76993SOL    HW232819   4.751  10.964   2.024
76994SOL     OW32820  12.587   7.275   6.412
76994SOL    HW132821  12.584   7.180   6.412
76994SOL    HW232822  12.495   7.302   6.409
76995SOL     OW32823   3.474   2.020   0.860
76995SOL    HW132824   3.501   1.998   0.771
76995SOL    HW232825   3.495   2.113   0.870
76996SOL     OW32826   3.718   9.638  11.071
76996SOL    HW132827   3.624   9.626  11.059
76996SOL    HW232828   3.728   9.730  11.096
76997SOL     OW32829   4.084   6.618   3.263
76997SOL    HW132830   4.168   6.664   3.264
76997SOL    HW232831   4.090   6.560   3.187
76998SOL     OW32832  12.509   9.098  14.375
76998SOL    HW132833  12.531   9.061  14.461
76998SOL    HW232834  12.530   9.029  14.312
76999SOL     OW32835   6.634  12.406   9.610
76999SOL    HW132836   6.647  12.314   9.633
76999SOL    HW232837   6.578  12.441   9.679
77000SOL     OW32838   9.259  12.497   4.128
77000SOL    HW132839   9.273  12.407   4.159
77000SOL    HW232840   9.307  12.551   4.191
77001SOL     OW32841   6.715  13.287   3.906
77001SOL    HW132842   6.666  13.242   3.836
77001SOL    HW232843   6.684  13.378   3.901
77002SOL     OW32844   1.338  13.031  14.124
77002SOL    HW132845   1.345  13.127  14.118
77002SOL    HW232846   1.289  13.016  14.205
77003SOL     OW32847   4.162   9.138   4.580
77003SOL    HW132848   4.192   9.176   4.662
77003SOL    HW232849   4.080   9.093   4.603
77004SOL     OW32850  13.259  10.899   4.665
77004SOL    HW132851  13.345  10.935   4.687
77004SOL    HW232852  13.279  10.823   4.610
77005SOL     OW32853  12.059   8.869   1.785
77005SOL    HW132854  12.122   8.797   1.777
77005SOL    HW232855  11.978   8.828   1.812
77006SOL     OW32856  10.518   1.574   4.188
77006SOL    HW132857  10.536   1.644   4.125
77006SOL    HW232858  10.425   1.583   4.207
77007SOL     OW32859   7.318   0.853   3.632
77007SOL    HW132860   7.239   0.894   3.669
77007SOL    HW232861   7.297   0.840   3.540
77008SOL     OW32862   0.944   8.428   7.431
77008SOL    HW132863   0.895   8.433   7.349
77008SOL    HW232864   1.030   8.466   7.409
77009SOL     OW32865   4.421  14.441   8.933
77009SOL    HW132866   4.384  14.463   8.848
77009SOL    HW232867   4.478  14.515   8.955
77010SOL     OW32868   3.609   8.370  12.421
77010SOL    HW132869   3.535   8.427  12.442
77010SOL    HW232870   3.608   8.304  12.491
77011SOL     OW32871   7.153  13.466   5.140
77011SOL    HW132872   7.092  13.436   5.208
77011SOL    HW232873   7.192  13.385   5.106
77012SOL     OW32874   5.578   9.304   0.777
77012SOL    HW132875   5.636   9.301   0.854
77012SOL    HW232876   5.572   9.397   0.755
77013SOL     OW32877  10.827   9.817   6.327
77013SOL    HW132878  10.863   9.811   6.238
77013SOL    HW232879  10.770   9.740   6.336
77014SOL     OW32880   0.359   8.310   0.603
77014SOL    HW132881   0.310   8.246   0.654
77014SOL    HW232882   0.390   8.260   0.526
77015SOL     OW32883  13.879   9.592   4.264
77015SOL    HW132884  13.895   9.676   4.308
77015SOL    HW232885  13.787   9.572   4.281
77016SOL     OW32886   3.722   8.246   9.371
77016SOL    HW132887   3.710   8.249   9.466
77016SOL    HW232888   3.639   8.213   9.338
77017SOL     OW32889   1.339   0.967   6.919
77017SOL    HW132890   1.323   0.974   7.013
77017SOL    HW232891   1.341   0.872   6.903
77018SOL     OW32892   7.046   1.324  13.933
77018SOL    HW132893   7.108   1.348  13.864
77018SOL    HW232894   7.097   1.267  13.992
77019SOL     OW32895   7.771   4.470   3.086
77019SOL    HW132896   7.848   4.433   3.130
77019SOL    HW232897   7.806   4.537   3.029
77020SOL     OW32898   0.346   9.725   1.103
77020SOL    HW132899   0.426   9.672   1.094
77020SOL    HW232900   0.279   9.662   1.132
77021SOL     OW32901   8.168   4.524   4.171
77021SOL    HW132902   8.220   4.487   4.242
77021SOL    HW232903   8.083   4.542   4.211
77022SOL     OW32904  12.008   6.292   4.373
77022SOL    HW132905  11.926   6.313   4.329
77022SOL    HW232906  12.017   6.360   4.440
77023SOL     OW32907  11.761   5.537   1.946
77023SOL    HW132908  11.740   5.518   2.038
77023SOL    HW232909  11.757   5.632   1.940
77024SOL     OW32910   4.394   4.030   4.851
77024SOL    HW132911   4.433   4.060   4.769
77024SOL    HW232912   4.386   4.110   4.903
77025SOL     OW32913   8.112  13.518  12.118
77025SOL    HW132914   8.113  13.470  12.036
77025SOL    HW232915   8.064  13.598  12.099
77026SOL     OW32916  10.783   7.184   0.126
77026SOL    HW132917  10.782   7.094   0.094
77026SOL    HW232918  10.752   7.178   0.216
77027SOL     OW32919  11.366   4.505   0.510
77027SOL    HW132920  11.325   4.589   0.531
77027SOL    HW232921  11.431   4.492   0.579
77028SOL     OW32922   0.605   8.619   2.878
77028SOL    HW132923   0.597   8.633   2.972
77028SOL    HW232924   0.591   8.525   2.866
77029SOL     OW32925  13.160   5.483   0.177
77029SOL    HW132926  13.206   5.475   0.261
77029SOL    HW232927  13.221   5.530   0.121
77030SOL     OW32928  10.350  10.388   8.573
77030SOL    HW132929  10.355  10.479   8.545
77030SOL    HW232930  10.300  10.391   8.655
77031SOL     OW32931   4.693   6.465  14.645
77031SOL    HW132932   4.760   6.404  14.674
77031SOL    HW232933   4.619   6.448  14.703
77032SOL     OW32934   9.768   2.662   7.011
77032SOL    HW132935   9.810   2.741   6.978
77032SOL    HW232936   9.690   2.650   6.957
77033SOL     OW32937   7.965  13.867  14.369
77033SOL    HW132938   8.002  13.786  14.403
77033SOL    HW232939   7.944  13.919  14.448
77034SOL     OW32940   5.488   6.528   5.790
77034SOL    HW132941   5.414   6.589   5.781
77034SOL    HW232942   5.564   6.577   5.759
77035SOL     OW32943   6.485   5.524  12.142
77035SOL    HW132944   6.392   5.539  12.124
77035SOL    HW232945   6.492   5.533  12.237
77036SOL     OW32946  11.141  14.625   6.793
77036SOL    HW132947  11.093  14.645   6.873
77036SOL    HW232948  11.172  14.535   6.806
77037SOL     OW32949   1.529   4.453  10.819
77037SOL    HW132950   1.533   4.412  10.732
77037SOL    HW232951   1.616   4.441  10.855
77038SOL     OW32952   6.839  10.434   3.725
77038SOL    HW132953   6.866  10.487   3.800
77038SOL    HW232954   6.916  10.429   3.669
77039SOL     OW32955  14.008   8.139   1.816
77039SOL    HW132956  13.996   8.044   1.816
77039SOL    HW232957  14.102   8.152   1.828
77040SOL     OW32958   2.666   9.905   9.520
77040SOL    HW132959   2.645   9.869   9.434
77040SOL    HW232960   2.762   9.910   9.521
77041SOL     OW32961  10.524   4.979   6.231
77041SOL    HW132962  10.504   5.019   6.315
77041SOL    HW232963  10.438   4.965   6.190
77042SOL     OW32964   3.860   1.369  11.401
77042SOL    HW132965   3.889   1.460  11.390
77042SOL    HW232966   3.826   1.344  11.315
77043SOL     OW32967  14.581  10.287  13.631
77043SOL    HW132968  14.621  10.212  13.675
77043SOL    HW232969  14.598  10.272  13.538
77044SOL     OW32970   0.731   4.861   6.228
77044SOL    HW132971   0.744   4.773   6.264
77044SOL    HW232972   0.811   4.880   6.180
77045SOL     OW32973   1.865   6.789   9.054
77045SOL    HW132974   1.871   6.854   8.983
77045SOL    HW232975   1.873   6.841   9.134
77046SOL     OW32976  10.089   2.820  12.875
77046SOL    HW132977  10.101   2.828  12.781
77046SOL    HW232978  10.003   2.778  12.884
77047SOL     OW32979   3.635   5.241   8.145
77047SOL    HW132980   3.617   5.256   8.238
77047SOL    HW232981   3.579   5.168   8.121
77048SOL     OW32982   3.722   6.288  14.872
77048SOL    HW132983   3.651   6.227  14.851
77048SOL    HW232984   3.762   6.307  14.787
77049SOL     OW32985   6.401   9.559   9.612
77049SOL    HW132986   6.496   9.547   9.606
77049SOL    HW232987   6.370   9.480   9.657
77050SOL     OW32988   3.574   5.929   2.397
77050SOL    HW132989   3.643   5.989   2.371
77050SOL    HW232990   3.501   5.951   2.339
77051SOL     OW32991   6.844   8.758   3.261
77051SOL    HW132992   6.826   8.821   3.331
77051SOL    HW232993   6.821   8.805   3.180
77052SOL     OW32994   4.302   4.980  10.380
77052SOL    HW132995   4.342   4.912  10.326
77052SOL    HW232996   4.370   5.047  10.388
77053SOL     OW32997  14.121   3.504  10.667
77053SOL    HW132998  14.104   3.590  10.706
77053SOL    HW232999  14.036   3.460  10.667
77054SOL     OW33000   3.073  12.282  13.546
77054SOL    HW133001   3.029  12.202  13.576
77054SOL    HW233002   3.006  12.331  13.499
77055SOL     OW33003   0.030   0.414  13.127
77055SOL    HW133004   0.107   0.465  13.152
77055SOL    HW233005  14.831   0.476  13.129
77056SOL     OW33006   9.592   8.431  12.948
77056SOL    HW133007   9.579   8.469  12.861
77056SOL    HW233008   9.680   8.458  12.973
77057SOL     OW33009  14.677   8.923  14.681
77057SOL    HW133010  14.728   8.859  14.631
77057SOL    HW233011  14.650   8.988  14.617
77058SOL     OW33012   7.074   6.665   5.951
77058SOL    HW133013   7.119   6.749   5.964
77058SOL    HW233014   6.982   6.684   5.972
77059SOL     OW33015   3.596   9.724  11.732
77059SOL    HW133016   3.689   9.746  11.736
77059SOL    HW233017   3.563   9.774  11.657
77060SOL     OW33018   0.557   0.001   3.708
77060SOL    HW133019   0.524   0.014   3.619
77060SOL    HW233020   0.642  14.832   3.696
77061SOL     OW33021   7.228  10.427   5.570
77061SOL    HW133022   7.194  10.363   5.507
77061SOL    HW233023   7.297  10.473   5.521
77062SOL     OW33024   1.701   7.302   0.363
77062SOL    HW133025   1.669   7.222   0.320
77062SOL    HW233026   1.640   7.370   0.335
77063SOL     OW33027   6.633   7.518   0.230
77063SOL    HW133028   6.545   7.484   0.215
77063SOL    HW233029   6.689   7.441   0.230
77064SOL     OW33030   1.855  13.094   9.681
77064SOL    HW133031   1.778  13.044   9.653
77064SOL    HW233032   1.907  13.106   9.602
77065SOL     OW33033   8.948   2.731   0.737
77065SOL    HW133034   9.036   2.715   0.771
77065SOL    HW233035   8.895   2.659   0.770
77066SOL     OW33036  10.726   1.165   5.051
77066SOL    HW133037  10.706   1.257   5.070
77066SOL    HW233038  10.714   1.120   5.134
77067SOL     OW33039   6.698   8.403   0.577
77067SOL    HW133040   6.668   8.480   0.625
77067SOL    HW233041   6.790   8.420   0.559
77068SOL     OW33042  14.650  13.173   5.931
77068SOL    HW133043  14.625  13.192   6.022
77068SOL    HW233044  14.605  13.091   5.911
77069SOL     OW33045  12.738   1.637   3.082
77069SOL    HW133046  12.812   1.599   3.129
77069SOL    HW233047  12.765   1.727   3.064
77070SOL     OW33048   5.212   3.689   3.481
77070SOL    HW133049   5.283   3.720   3.426
77070SOL    HW233050   5.163   3.628   3.426
77071SOL     OW33051  12.702   3.213   2.237
77071SOL    HW133052  12.774   3.272   2.256
77071SOL    HW233053  12.714   3.189   2.145
77072SOL     OW33054  10.621   4.342  11.009
77072SOL    HW133055  10.699   4.289  11.025
77072SOL    HW233056  10.619   4.404  11.081
77073SOL     OW33057   2.177  10.607  12.718
77073SOL    HW133058   2.150  10.694  12.687
77073SOL    HW233059   2.247  10.624  12.780
77074SOL     OW33060   2.389   3.720   0.887
77074SOL    HW133061   2.378   3.687   0.976
77074SOL    HW233062   2.470   3.771   0.890
77075SOL     OW33063   1.404   5.817  10.114
77075SOL    HW133064   1.360   5.772  10.042
77075SOL    HW233065   1.495   5.826  10.084
77076SOL     OW33066  10.385   3.921   4.002
77076SOL    HW133067  10.405   4.014   3.989
77076SOL    HW233068  10.329   3.898   3.928
77077SOL     OW33069   6.793  11.392  14.104
77077SOL    HW133070   6.743  11.347  14.172
77077SOL    HW233071   6.841  11.460  14.150
77078SOL     OW33072  12.696   6.562   9.124
77078SOL    HW133073  12.679   6.651   9.156
77078SOL    HW233074  12.704   6.571   9.029
77079SOL     OW33075   7.880   0.213   8.900
77079SOL    HW133076   7.943   0.269   8.945
77079SOL    HW233077   7.849   0.153   8.967
77080SOL     OW33078   6.663   5.265  12.744
77080SOL    HW133079   6.618   5.348  12.761
77080SOL    HW233080   6.605   5.198  12.780
77081SOL     OW33081   4.914  12.633   3.064
77081SOL    HW133082   4.988  12.667   3.015
77081SOL    HW233083   4.897  12.547   3.026
77082SOL     OW33084   3.621   1.040  10.878
77082SOL    HW133085   3.700   1.073  10.835
77082SOL    HW233086   3.569   1.119  10.896
77083SOL     OW33087  10.396   1.471   0.013
77083SOL    HW133088  10.370   1.411  14.816
77083SOL    HW233089  10.424   1.550  14.840
77084SOL     OW33090  12.548  13.625   7.070
77084SOL    HW133091  12.569  13.556   7.133
77084SOL    HW233092  12.536  13.579   6.987
77085SOL     OW33093   8.204  10.482   5.209
77085SOL    HW133094   8.158  10.398   5.212
77085SOL    HW233095   8.285  10.466   5.257
77086SOL     OW33096   1.251   7.491  12.542
77086SOL    HW133097   1.236   7.420  12.604
77086SOL    HW233098   1.279   7.564  12.596
77087SOL     OW33099   7.543   3.935   6.978
77087SOL    HW133100   7.483   3.974   6.915
77087SOL    HW233101   7.510   3.963   7.063
77088SOL     OW33102  11.467  12.232   3.801
77088SOL    HW133103  11.408  12.181   3.856
77088SOL    HW233104  11.411  12.265   3.730
77089SOL     OW33105   6.923  12.253  13.286
77089SOL    HW133106   7.001  12.291  13.246
77089SOL    HW233107   6.896  12.317  13.352
77090SOL     OW33108   9.013   0.200   6.713
77090SOL    HW133109   8.949   0.196   6.642
77090SOL    HW233110   9.096   0.220   6.669
77091SOL     OW33111   4.290  13.167   9.299
77091SOL    HW133112   4.346  13.108   9.349
77091SOL    HW233113   4.214  13.181   9.355
77092SOL     OW33114  11.460  12.829   9.009
77092SOL    HW133115  11.422  12.818   8.922
77092SOL    HW233116  11.457  12.924   9.024
77093SOL     OW33117  11.871  11.672  12.849
77093SOL    HW133118  11.941  11.608  12.864
77093SOL    HW233119  11.910  11.756  12.874
77094SOL     OW33120   7.315   6.122   5.302
77094SOL    HW133121   7.234   6.085   5.338
77094SOL    HW233122   7.285   6.184   5.236
77095SOL     OW33123  12.840   1.403   0.693
77095SOL    HW133124  12.865   1.435   0.607
77095SOL    HW233125  12.751   1.372   0.683
77096SOL     OW33126   4.501   5.184  11.437
77096SOL    HW133127   4.513   5.096  11.401
77096SOL    HW233128   4.529   5.243  11.367
77097SOL     OW33129   6.991   1.856   9.000
77097SOL    HW133130   6.918   1.915   8.981
77097SOL    HW233131   6.998   1.856   9.095
77098SOL     OW33132   5.306   8.713   5.540
77098SOL    HW133133   5.286   8.628   5.580
77098SOL    HW233134   5.304   8.774   5.614
77099SOL     OW33135  14.388  11.235   6.882
77099SOL    HW133136  14.360  11.159   6.831
77099SOL    HW233137  14.418  11.198   6.965
77100SOL     OW33138   1.417  11.807  13.271
77100SOL    HW133139   1.496  11.761  13.299
77100SOL    HW233140   1.425  11.894  13.311
77101SOL     OW33141  13.017  12.061   5.692
77101SOL    HW133142  12.975  11.980   5.721
77101SOL    HW233143  12.988  12.071   5.601
77102SOL     OW33144  11.919  10.066   9.634
77102SOL    HW133145  11.931  10.035   9.724
77102SOL    HW233146  11.875   9.994   9.589
77103SOL     OW33147   8.807   7.815  13.208
77103SOL    HW133148   8.791   7.738  13.262
77103SOL    HW233149   8.754   7.802  13.130
77104SOL     OW33150   8.898  13.522   7.126
77104SOL    HW133151   8.935  13.479   7.203
77104SOL    HW233152   8.805  13.533   7.148
77105SOL     OW33153  14.742   4.772   8.309
77105SOL    HW133154  14.823   4.739   8.271
77105SOL    HW233155  14.736   4.729   8.394
77106SOL     OW33156  14.848  13.593  12.028
77106SOL    HW133157  14.768  13.541  12.036
77106SOL    HW233158   0.032  13.541  11.971
77107SOL     OW33159   2.013  10.002   2.254
77107SOL    HW133160   2.102   9.983   2.284
77107SOL    HW233161   1.957   9.951   2.313
77108SOL     OW33162  11.594   0.988  13.890
77108SOL    HW133163  11.618   0.898  13.913
77108SOL    HW233164  11.581   1.032  13.974
77109SOL     OW33165  10.641   9.798  11.427
77109SOL    HW133166  10.595   9.813  11.345
77109SOL    HW233167  10.698   9.874  11.437
77110SOL     OW33168  11.712  10.947  12.955
77110SOL    HW133169  11.644  10.998  12.910
77110SOL    HW233170  11.786  10.947  12.894
77111SOL     OW33171   7.479   3.311   7.524
77111SOL    HW133172   7.554   3.259   7.497
77111SOL    HW233173   7.440   3.341   7.442
77112SOL     OW33174   9.245   8.582  10.304
77112SOL    HW133175   9.245   8.658  10.246
77112SOL    HW233176   9.153   8.569  10.328
77113SOL     OW33177   8.499  10.734   7.594
77113SOL    HW133178   8.561  10.804   7.575
77113SOL    HW233179   8.432  10.775   7.649
77114SOL     OW33180  11.268  13.812  14.374
77114SOL    HW133181  11.238  13.751  14.441
77114SOL    HW233182  11.361  13.791  14.363
77115SOL     OW33183   9.249   0.716  14.491
77115SOL    HW133184   9.316   0.693  14.555
77115SOL    HW233185   9.212   0.632  14.463
77116SOL     OW33186   9.884   0.474  11.343
77116SOL    HW133187   9.979   0.473  11.329
77116SOL    HW233188   9.848   0.426  11.269
77117SOL     OW33189  13.571   9.478   3.143
77117SOL    HW133190  13.505   9.518   3.085
77117SOL    HW233191  13.549   9.511   3.230
77118SOL     OW33192   4.863   5.634  10.822
77118SOL    HW133193   4.934   5.593  10.872
77118SOL    HW233194   4.803   5.563  10.802
77119SOL     OW33195   0.816  13.644   1.572
77119SOL    HW133196   0.842  13.703   1.643
77119SOL    HW233197   0.747  13.589   1.611
77120SOL     OW33198   5.051  10.101  13.664
77120SOL    HW133199   5.115  10.044  13.707
77120SOL    HW233200   4.970  10.049  13.661
77121SOL     OW33201  13.187   4.035   8.274
77121SOL    HW133202  13.117   4.100   8.268
77121SOL    HW233203  13.143   3.953   8.297
77122SOL     OW33204  10.470   7.128  14.243
77122SOL    HW133205  10.452   7.136  14.336
77122SOL    HW233206  10.417   7.197  14.202
77123SOL     OW33207   0.345   5.717  12.062
77123SOL    HW133208   0.289   5.654  12.017
77123SOL    HW233209   0.434   5.690  12.040
77124SOL     OW33210   5.916   5.068   0.322
77124SOL    HW133211   5.894   5.058   0.415
77124SOL    HW233212   5.877   5.151   0.297
77125SOL     OW33213   1.129   0.879   1.792
77125SOL    HW133214   1.203   0.819   1.790
77125SOL    HW233215   1.058   0.830   1.750
77126SOL     OW33216   3.510   6.437   0.685
77126SOL    HW133217   3.436   6.440   0.746
77126SOL    HW233218   3.471   6.415   0.601
77127SOL     OW33219  12.058   9.383   1.437
77127SOL    HW133220  12.094   9.324   1.370
77127SOL    HW233221  12.065   9.470   1.400
77128SOL     OW33222   7.588   4.835  10.001
77128SOL    HW133223   7.543   4.912  10.035
77128SOL    HW233224   7.529   4.762  10.020
77129SOL     OW33225  10.923   2.394   1.030
77129SOL    HW133226  10.960   2.457   0.967
77129SOL    HW233227  10.959   2.422   1.114
77130SOL     OW33228   4.983   9.402  11.489
77130SOL    HW133229   5.050   9.334  11.492
77130SOL    HW233230   4.990   9.438  11.400
77131SOL     OW33231  13.638  11.533   7.706
77131SOL    HW133232  13.578  11.572   7.770
77131SOL    HW233233  13.592  11.456   7.673
77132SOL     OW33234   7.530  14.699   9.412
77132SOL    HW133235   7.484  14.738   9.487
77132SOL    HW233236   7.520  14.604   9.425
77133SOL     OW33237   9.402   1.797   8.036
77133SOL    HW133238   9.330   1.804   7.974
77133SOL    HW233239   9.378   1.856   8.108
77134SOL     OW33240   9.161   4.355   9.358
77134SOL    HW133241   9.158   4.354   9.262
77134SOL    HW233242   9.227   4.290   9.380
77135SOL     OW33243   4.181   1.878   4.533
77135SOL    HW133244   4.140   1.875   4.447
77135SOL    HW233245   4.161   1.965   4.567
77136SOL     OW33246   2.431   7.156   4.193
77136SOL    HW133247   2.415   7.249   4.181
77136SOL    HW233248   2.501   7.151   4.258
77137SOL     OW33249   7.164  14.006   3.422
77137SOL    HW133250   7.247  13.973   3.388
77137SOL    HW233251   7.145  13.950   3.498
77138SOL     OW33252   6.146  14.713  10.753
77138SOL    HW133253   6.234  14.699  10.717
77138SOL    HW233254   6.160  14.722  10.847
77139SOL     OW33255  14.031   8.949  12.526
77139SOL    HW133256  14.071   8.871  12.489
77139SOL    HW233257  13.939   8.925  12.540
77140SOL     OW33258   2.604   1.805   2.405
77140SOL    HW133259   2.623   1.801   2.499
77140SOL    HW233260   2.691   1.808   2.364
77141SOL     OW33261   9.655   0.757   0.473
77141SOL    HW133262   9.707   0.677   0.484
77141SOL    HW233263   9.715   0.828   0.498
77142SOL     OW33264  10.693   4.996  11.482
77142SOL    HW133265  10.639   4.919  11.466
77142SOL    HW233266  10.661   5.061  11.418
77143SOL     OW33267  14.595   2.599   2.425
77143SOL    HW133268  14.666   2.574   2.366
77143SOL    HW233269  14.595   2.532   2.493
77144SOL     OW33270   2.374   6.052  11.931
77144SOL    HW133271   2.435   6.101  11.987
77144SOL    HW233272   2.307   6.116  11.908
77145SOL     OW33273   5.726  10.909  13.849
77145SOL    HW133274   5.645  10.934  13.804
77145SOL    HW233275   5.706  10.825  13.890
77146SOL     OW33276   0.866   5.488  10.378
77146SOL    HW133277   0.921   5.505  10.302
77146SOL    HW233278   0.778   5.479  10.341
77147SOL     OW33279   5.550   0.698   0.881
77147SOL    HW133280   5.492   0.771   0.901
77147SOL    HW233281   5.593   0.724   0.800
77148SOL     OW33282  14.743   2.351  10.176
77148SOL    HW133283  14.751   2.262  10.211
77148SOL    HW233284  14.741   2.338  10.081
77149SOL     OW33285   6.701   7.520   5.907
77149SOL    HW133286   6.695   7.427   5.887
77149SOL    HW233287   6.707   7.523   6.003
77150SOL     OW33288   1.967   9.736   0.781
77150SOL    HW133289   2.033   9.777   0.838
77150SOL    HW233290   1.977   9.780   0.697
77151SOL     OW33291   7.268  13.501  12.339
77151SOL    HW133292   7.356  13.507  12.302
77151SOL    HW233293   7.236  13.591  12.341
77152SOL     OW33294  11.528   0.903   7.387
77152SOL    HW133295  11.613   0.947   7.394
77152SOL    HW233296  11.550   0.811   7.374
77153SOL     OW33297   1.235  14.176   6.805
77153SOL    HW133298   1.222  14.135   6.890
77153SOL    HW233299   1.147  14.206   6.780
77154SOL     OW33300   6.273   5.037   7.440
77154SOL    HW133301   6.349   5.025   7.382
77154SOL    HW233302   6.247   4.947   7.463
77155SOL     OW33303  10.729  14.535  13.751
77155SOL    HW133304  10.770  14.612  13.711
77155SOL    HW233305  10.637  14.542  13.727
77156SOL     OW33306   1.965   8.267   3.441
77156SOL    HW133307   2.005   8.209   3.376
77156SOL    HW233308   1.998   8.236   3.525
77157SOL     OW33309   4.800  11.262   8.885
77157SOL    HW133310   4.838  11.176   8.900
77157SOL    HW233311   4.834  11.289   8.799
77158SOL     OW33312   4.225  14.226   8.956
77158SOL    HW133313   4.229  14.168   8.880
77158SOL    HW233314   4.314  14.257   8.967
77159SOL     OW33315   6.838   0.764   4.499
77159SOL    HW133316   6.813   0.853   4.472
77159SOL    HW233317   6.773   0.740   4.565
77160SOL     OW33318   7.148   5.897  11.595
77160SOL    HW133319   7.236   5.935  11.594
77160SOL    HW233320   7.095   5.958  11.543
77161SOL     OW33321   6.189   6.799  14.112
77161SOL    HW133322   6.148   6.811  14.026
77161SOL    HW233323   6.168   6.879  14.160
77162SOL     OW33324   3.965  11.946  13.473
77162SOL    HW133325   3.992  12.012  13.537
77162SOL    HW233326   3.976  11.862  13.518
77163SOL     OW33327   4.874  10.985   8.936
77163SOL    HW133328   4.870  10.987   9.032
77163SOL    HW233329   4.831  10.902   8.913
77164SOL     OW33330  10.610  13.330   8.135
77164SOL    HW133331  10.690  13.312   8.085
77164SOL    HW233332  10.547  13.362   8.071
77165SOL     OW33333   6.530  14.511   5.211
77165SOL    HW133334   6.536  14.416   5.207
77165SOL    HW233335   6.456  14.528   5.269
77166SOL     OW33336  12.430   0.808   9.867
77166SOL    HW133337  12.334   0.802   9.870
77166SOL    HW233338  12.449   0.900   9.882
77167SOL     OW33339   8.438   0.226   5.126
77167SOL    HW133340   8.387   0.291   5.174
77167SOL    HW233341   8.453   0.155   5.189
77168SOL     OW33342  10.086   1.963   4.508
77168SOL    HW133343  10.000   1.926   4.492
77168SOL    HW233344  10.083   2.050   4.467
77169SOL     OW33345  14.789  11.616   4.034
77169SOL    HW133346  14.784  11.546   4.098
77169SOL    HW233347   0.009  11.636   4.027
77170SOL     OW33348  14.145  10.027  14.729
77170SOL    HW133349  14.173   9.976  14.653
77170SOL    HW233350  14.050  10.011  14.734
77171SOL     OW33351   1.679   3.979   4.834
77171SOL    HW133352   1.662   3.951   4.744
77171SOL    HW233353   1.668   4.074   4.832
77172SOL     OW33354   9.742   3.131   7.275
77172SOL    HW133355   9.770   3.203   7.218
77172SOL    HW233356   9.698   3.070   7.217
77173SOL     OW33357   7.099  12.286   0.827
77173SOL    HW133358   7.159  12.235   0.773
77173SOL    HW233359   7.130  12.377   0.818
77174SOL     OW33360   2.817  10.593   5.219
77174SOL    HW133361   2.788  10.644   5.295
77174SOL    HW233362   2.911  10.581   5.232
77175SOL     OW33363   3.118  11.712  13.628
77175SOL    HW133364   3.062  11.738  13.701
77175SOL    HW233365   3.133  11.794  13.579
77176SOL     OW33366  11.519   8.127  14.474
77176SOL    HW133367  11.442   8.153  14.525
77176SOL    HW233368  11.541   8.040  14.508
77177SOL     OW33369   0.935  10.496   4.252
77177SOL    HW133370   0.924  10.438   4.177
77177SOL    HW233371   1.019  10.538   4.238
77178SOL     OW33372  13.162  13.244   5.315
77178SOL    HW133373  13.115  13.261   5.397
77178SOL    HW233374  13.238  13.193   5.341
77179SOL     OW33375   1.740   0.024  13.909
77179SOL    HW133376   1.800   0.098  13.898
77179SOL    HW233377   1.734   0.013  14.004
77180SOL     OW33378  12.374   3.165  10.427
77180SOL    HW133379  12.379   3.168  10.522
77180SOL    HW233380  12.375   3.256  10.399
77181SOL     OW33381   9.357  11.970   6.159
77181SOL    HW133382   9.432  12.016   6.197
77181SOL    HW233383   9.289  11.973   6.227
77182SOL     OW33384   5.305  12.209  11.822
77182SOL    HW133385   5.311  12.292  11.775
77182SOL    HW233386   5.388  12.165  11.803
77183SOL     OW33387  12.391   2.809   1.513
77183SOL    HW133388  12.437   2.770   1.588
77183SOL    HW233389  12.422   2.759   1.438
77184SOL     OW33390   7.860   2.848  12.552
77184SOL    HW133391   7.795   2.816  12.614
77184SOL    HW233392   7.877   2.938  12.580
77185SOL     OW33393   1.095   6.179   8.722
77185SOL    HW133394   1.113   6.127   8.800
77185SOL    HW233395   1.000   6.174   8.710
77186SOL     OW33396   0.079   1.220   3.581
77186SOL    HW133397   0.158   1.271   3.563
77186SOL    HW233398   0.007   1.276   3.552
77187SOL     OW33399   9.147   7.457   5.909
77187SOL    HW133400   9.084   7.433   5.842
77187SOL    HW233401   9.224   7.404   5.890
77188SOL     OW33402   5.056   1.355   7.381
77188SOL    HW133403   5.104   1.297   7.440
77188SOL    HW233404   5.123   1.410   7.342
77189SOL     OW33405  11.068   3.249   1.537
77189SOL    HW133406  11.001   3.317   1.541
77189SOL    HW233407  11.124   3.274   1.463
77190SOL     OW33408   9.112   2.027   1.759
77190SOL    HW133409   9.081   2.109   1.799
77190SOL    HW233410   9.058   2.017   1.681
77191SOL     OW33411  11.167  12.570   3.159
77191SOL    HW133412  11.197  12.494   3.210
77191SOL    HW233413  11.173  12.543   3.068
77192SOL     OW33414  13.996   9.396   0.970
77192SOL    HW133415  14.079   9.362   1.003
77192SOL    HW233416  13.933   9.375   1.039
77193SOL     OW33417   8.865   3.574  11.274
77193SOL    HW133418   8.820   3.654  11.248
77193SOL    HW233419   8.872   3.523  11.194
77194SOL     OW33420  12.456  12.515   3.142
77194SOL    HW133421  12.370  12.479   3.164
77194SOL    HW233422  12.482  12.469   3.062
77195SOL     OW33423   0.657   0.979   3.427
77195SOL    HW133424   0.710   0.965   3.505
77195SOL    HW233425   0.605   1.057   3.446
77196SOL     OW33426  11.069   4.499   9.421
77196SOL    HW133427  10.986   4.510   9.374
77196SOL    HW233428  11.069   4.568   9.487
77197SOL     OW33429   2.660  10.577   7.277
77197SOL    HW133430   2.617  10.518   7.215
77197SOL    HW233431   2.588  10.619   7.324
77198SOL     OW33432   2.443   4.995   5.519
77198SOL    HW133433   2.503   5.058   5.478
77198SOL    HW233434   2.407   4.946   5.446
77199SOL     OW33435   3.487   8.179   9.256
77199SOL    HW133436   3.496   8.179   9.161
77199SOL    HW233437   3.398   8.210   9.272
77200SOL     OW33438   3.885  13.375  11.800
77200SOL    HW133439   3.869  13.456  11.752
77200SOL    HW233440   3.833  13.309  11.754
77201SOL     OW33441  11.794  11.401   5.840
77201SOL    HW133442  11.785  11.369   5.750
77201SOL    HW233443  11.838  11.486   5.831
77202SOL     OW33444   0.600  13.334  11.571
77202SOL    HW133445   0.534  13.265  11.583
77202SOL    HW233446   0.552  13.407  11.533
77203SOL     OW33447   6.717   4.737   1.855
77203SOL    HW133448   6.638   4.684   1.870
77203SOL    HW233449   6.739   4.773   1.941
77204SOL     OW33450  14.282   4.572   8.832
77204SOL    HW133451  14.236   4.605   8.909
77204SOL    HW233452  14.370   4.550   8.863
77205SOL     OW33453   9.283  11.658   1.966
77205SOL    HW133454   9.242  11.745   1.959
77205SOL    HW233455   9.241  11.607   1.897
77206SOL     OW33456  14.193   4.783   3.130
77206SOL    HW133457  14.274   4.764   3.084
77206SOL    HW233458  14.124   4.745   3.076
77207SOL     OW33459   2.515   8.877   6.646
77207SOL    HW133460   2.556   8.891   6.731
77207SOL    HW233461   2.525   8.961   6.601
77208SOL     OW33462   1.033   2.464   0.415
77208SOL    HW133463   1.084   2.391   0.380
77208SOL    HW233464   1.094   2.539   0.411
77209SOL     OW33465  12.444   1.138   8.547
77209SOL    HW133466  12.501   1.177   8.482
77209SOL    HW233467  12.411   1.058   8.506
77210SOL     OW33468   1.915   8.365   5.329
77210SOL    HW133469   1.938   8.456   5.349
77210SOL    HW233470   1.939   8.354   5.237
77211SOL     OW33471   7.249  11.827  11.436
77211SOL    HW133472   7.190  11.800  11.507
77211SOL    HW233473   7.217  11.913  11.410
77212SOL     OW33474  14.637   9.728   3.661
77212SOL    HW133475  14.644   9.821   3.683
77212SOL    HW233476  14.543   9.714   3.649
77213SOL     OW33477  10.839  12.805   6.794
77213SOL    HW133478  10.823  12.890   6.751
77213SOL    HW233479  10.799  12.814   6.881
77214SOL     OW33480   3.975   0.418  11.890
77214SOL    HW133481   3.967   0.395  11.798
77214SOL    HW233482   4.041   0.358  11.925
77215SOL     OW33483  11.983  13.591  11.093
77215SOL    HW133484  11.948  13.506  11.065
77215SOL    HW233485  12.055  13.568  11.152
77216SOL     OW33486   1.497   4.427   1.218
77216SOL    HW133487   1.418   4.440   1.270
77216SOL    HW233488   1.519   4.515   1.185
77217SOL     OW33489  14.340   2.492   2.364
77217SOL    HW133490  14.304   2.528   2.445
77217SOL    HW233491  14.434   2.509   2.371
77218SOL     OW33492   7.075   7.324  13.776
77218SOL    HW133493   6.996   7.367  13.745
77218SOL    HW233494   7.082   7.351  13.868
77219SOL     OW33495  12.076  13.437   5.435
77219SOL    HW133496  12.078  13.516   5.489
77219SOL    HW233497  11.983  13.415   5.428
77220SOL     OW33498   3.277   2.439   7.669
77220SOL    HW133499   3.197   2.484   7.695
77220SOL    HW233500   3.267   2.421   7.576
77221SOL     OW33501  13.091   0.783   6.097
77221SOL    HW133502  13.139   0.827   6.167
77221SOL    HW233503  13.135   0.698   6.088
77222SOL     OW33504   3.228   7.005   9.636
77222SOL    HW133505   3.232   7.033   9.545
77222SOL    HW233506   3.154   6.944   9.640
77223SOL     OW33507   6.088   9.636  11.134
77223SOL    HW133508   6.136   9.698  11.189
77223SOL    HW233509   6.103   9.551  11.176
77224SOL     OW33510  13.321   8.182   1.857
77224SOL    HW133511  13.380   8.242   1.812
77224SOL    HW233512  13.331   8.099   1.810
77225SOL     OW33513  12.964   1.195   1.999
77225SOL    HW133514  12.904   1.132   2.040
77225SOL    HW233515  12.995   1.249   2.072
77226SOL     OW33516  12.473  12.923  12.992
77226SOL    HW133517  12.498  13.013  12.970
77226SOL    HW233518  12.507  12.871  12.919
77227SOL     OW33519   2.437   5.734   7.437
77227SOL    HW133520   2.489   5.799   7.389
77227SOL    HW233521   2.375   5.701   7.372
77228SOL     OW33522   0.388   3.783  13.899
77228SOL    HW133523   0.393   3.708  13.841
77228SOL    HW233524   0.463   3.773  13.958
77229SOL     OW33525   2.172   5.311   8.199
77229SOL    HW133526   2.156   5.401   8.172
77229SOL    HW233527   2.187   5.316   8.293
77230SOL     OW33528  12.506   5.054  11.077
77230SOL    HW133529  12.442   5.004  11.027
77230SOL    HW233530  12.590   5.010  11.061
77231SOL     OW33531   8.946  10.028   0.155
77231SOL    HW133532   9.019   9.984   0.198
77231SOL    HW233533   8.954  10.003   0.063
77232SOL     OW33534   9.297   0.577   9.828
77232SOL    HW133535   9.224   0.614   9.778
77232SOL    HW233536   9.373   0.628   9.801
77233SOL     OW33537  12.606  10.917   4.553
77233SOL    HW133538  12.667  10.981   4.590
77233SOL    HW233539  12.609  10.932   4.459
77234SOL     OW33540   7.345   6.128  14.629
77234SOL    HW133541   7.296   6.208  14.610
77234SOL    HW233542   7.282   6.070  14.671
77235SOL     OW33543   1.698  10.521   5.087
77235SOL    HW133544   1.652  10.491   5.166
77235SOL    HW233545   1.633  10.511   5.017
77236SOL     OW33546   2.858   3.416   8.877
77236SOL    HW133547   2.786   3.434   8.939
77236SOL    HW233548   2.815   3.373   8.803
77237SOL     OW33549  12.907  12.261  13.846
77237SOL    HW133550  12.924  12.167  13.843
77237SOL    HW233551  12.920  12.291  13.756
77238SOL     OW33552   6.179   8.053   2.239
77238SOL    HW133553   6.142   8.016   2.320
77238SOL    HW233554   6.247   8.113   2.269
77239SOL     OW33555   5.672  11.436   4.748
77239SOL    HW133556   5.743  11.488   4.712
77239SOL    HW233557   5.593  11.487   4.730
77240SOL     OW33558   7.232  12.246   2.582
77240SOL    HW133559   7.262  12.156   2.565
77240SOL    HW233560   7.250  12.293   2.501
77241SOL     OW33561   0.043  13.701  12.889
77241SOL    HW133562   0.097  13.621  12.888
77241SOL    HW233563   0.100  13.768  12.927
77242SOL     OW33564  12.907   5.358  12.287
77242SOL    HW133565  12.995   5.386  12.313
77242SOL    HW233566  12.906   5.264  12.307
77243SOL     OW33567   8.005   7.285   1.280
77243SOL    HW133568   7.916   7.317   1.291
77243SOL    HW233569   8.002   7.232   1.201
77244SOL     OW33570   0.659  11.075  11.773
77244SOL    HW133571   0.648  11.156  11.723
77244SOL    HW233572   0.685  11.104  11.861
77245SOL     OW33573   6.515   2.542  12.229
77245SOL    HW133574   6.483   2.617  12.179
77245SOL    HW233575   6.524   2.576  12.319
77246SOL     OW33576   9.192  13.794   7.359
77246SOL    HW133577   9.233  13.865   7.409
77246SOL    HW233578   9.241  13.716   7.385
77247SOL     OW33579   5.910   3.603   8.559
77247SOL    HW133580   5.964   3.646   8.625
77247SOL    HW233581   5.971   3.548   8.509
77248SOL     OW33582   9.770   9.489  12.478
77248SOL    HW133583   9.709   9.562  12.486
77248SOL    HW233584   9.846   9.526  12.434
77249SOL     OW33585  10.455   3.583   7.330
77249SOL    HW133586  10.408   3.561   7.411
77249SOL    HW233587  10.472   3.677   7.337
77250SOL     OW33588   7.476  14.719   2.684
77250SOL    HW133589   7.527  14.748   2.609
77250SOL    HW233590   7.392  14.691   2.647
77251SOL     OW33591  13.457   2.338   3.339
77251SOL    HW133592  13.391   2.399   3.305
77251SOL    HW233593  13.530   2.394   3.366
77252SOL     OW33594   5.737   0.563   4.792
77252SOL    HW133595   5.791   0.495   4.751
77252SOL    HW233596   5.650   0.552   4.752
77253SOL     OW33597   4.313   8.065  13.130
77253SOL    HW133598   4.278   8.027  13.211
77253SOL    HW233599   4.304   8.160  13.143
77254SOL     OW33600   8.860   6.944  11.099
77254SOL    HW133601   8.825   6.909  11.181
77254SOL    HW233602   8.844   7.039  11.104
77255SOL     OW33603   9.162  14.782   5.289
77255SOL    HW133604   9.214  14.740   5.221
77255SOL    HW233605   9.208  14.864   5.308
77256SOL     OW33606   9.550   0.819   7.299
77256SOL    HW133607   9.479   0.755   7.297
77256SOL    HW233608   9.567   0.834   7.392
77257SOL     OW33609   3.673   0.694   1.551
77257SOL    HW133610   3.715   0.655   1.627
77257SOL    HW233611   3.607   0.753   1.588
77258SOL     OW33612  14.058  10.336   9.505
77258SOL    HW133613  14.022  10.424   9.517
77258SOL    HW233614  14.109  10.342   9.425
77259SOL     OW33615   1.524   2.169   4.000
77259SOL    HW133616   1.458   2.167   3.931
77259SOL    HW233617   1.541   2.078   4.021
77260SOL     OW33618   9.278   7.794   0.160
77260SOL    HW133619   9.209   7.824   0.219
77260SOL    HW233620   9.358   7.836   0.193
77261SOL     OW33621   3.490  11.515  11.897
77261SOL    HW133622   3.399  11.517  11.928
77261SOL    HW233623   3.487  11.469  11.813
77262SOL     OW33624   8.401   6.281  11.394
77262SOL    HW133625   8.353   6.346  11.342
77262SOL    HW233626   8.480   6.263  11.343
77263SOL     OW33627  11.549   1.042   5.251
77263SOL    HW133628  11.640   1.013   5.259
77263SOL    HW233629  11.549   1.099   5.173
77264SOL     OW33630  14.342  11.531   4.299
77264SOL    HW133631  14.343  11.454   4.355
77264SOL    HW233632  14.265  11.580   4.326
77265SOL     OW33633  13.685   0.501  12.795
77265SOL    HW133634  13.684   0.414  12.754
77265SOL    HW233635  13.686   0.562  12.721
77266SOL     OW33636   2.275  14.800   1.033
77266SOL    HW133637   2.345  14.847   1.078
77266SOL    HW233638   2.196  14.848   1.057
77267SOL     OW33639   8.459   2.767  13.736
77267SOL    HW133640   8.526   2.766  13.804
77267SOL    HW233641   8.440   2.859  13.721
77268SOL     OW33642   9.679   1.178   2.600
77268SOL    HW133643   9.757   1.230   2.621
77268SOL    HW233644   9.655   1.137   2.683
77269SOL     OW33645   8.455   7.165  11.254
77269SOL    HW133646   8.484   7.223  11.184
77269SOL    HW233647   8.430   7.084  11.209
77270SOL     OW33648   0.695  11.237   2.569
77270SOL    HW133649   0.773  11.233   2.624
77270SOL    HW233650   0.707  11.316   2.516
77271SOL     OW33651  12.031   2.567   9.565
77271SOL    HW133652  11.965   2.633   9.546
77271SOL    HW233653  12.005   2.491   9.513
77272SOL     OW33654   5.144   9.877   6.841
77272SOL    HW133655   5.058   9.851   6.808
77272SOL    HW233656   5.196   9.895   6.762
77273SOL     OW33657   2.142   7.979   9.742
77273SOL    HW133658   2.128   7.991   9.648
77273SOL    HW233659   2.055   7.992   9.781
77274SOL     OW33660  14.065   2.829   8.750
77274SOL    HW133661  14.099   2.910   8.712
77274SOL    HW233662  13.980   2.816   8.708
77275SOL     OW33663   4.672   3.596  12.139
77275SOL    HW133664   4.749   3.641  12.105
77275SOL    HW233665   4.672   3.511  12.094
77276SOL     OW33666   1.995   6.480  10.692
77276SOL    HW133667   1.935   6.475  10.766
77276SOL    HW233668   2.080   6.454  10.728
77277SOL     OW33669   1.789   2.143   6.911
77277SOL    HW133670   1.710   2.139   6.856
77277SOL    HW233671   1.839   2.217   6.876
77278SOL     OW33672  13.673   5.493   9.687
77278SOL    HW133673  13.713   5.474   9.602
77278SOL    HW233674  13.686   5.587   9.700
77279SOL     OW33675  14.400   2.486   8.008
77279SOL    HW133676  14.329   2.453   7.953
77279SOL    HW233677  14.425   2.411   8.062
77280SOL     OW33678   2.046   4.608   7.021
77280SOL    HW133679   2.045   4.678   6.956
77280SOL    HW233680   1.954   4.583   7.032
77281SOL     OW33681   2.197  11.040  12.497
77281SOL    HW133682   2.208  11.135  12.503
77281SOL    HW233683   2.283  11.008  12.468
77282SOL     OW33684   8.785   3.056  14.350
77282SOL    HW133685   8.815   2.989  14.289
77282SOL    HW233686   8.699   3.082  14.318
77283SOL     OW33687   4.631   9.624  14.594
77283SOL    HW133688   4.563   9.668  14.544
77283SOL    HW233689   4.685   9.696  14.629
77284SOL     OW33690   7.430   9.949  12.704
77284SOL    HW133691   7.381   9.915  12.629
77284SOL    HW233692   7.387   9.909  12.780
77285SOL     OW33693   4.424   9.421   8.869
77285SOL    HW133694   4.505   9.465   8.894
77285SOL    HW233695   4.386   9.478   8.802
77286SOL     OW33696   0.947  14.688   1.828
77286SOL    HW133697   0.982  14.728   1.907
77286SOL    HW233698   1.001  14.723   1.757
77287SOL     OW33699   0.580   9.594   5.721
77287SOL    HW133700   0.545   9.513   5.758
77287SOL    HW233701   0.672   9.594   5.747
77288SOL     OW33702  10.265   3.424   2.917
77288SOL    HW133703  10.267   3.363   2.991
77288SOL    HW233704  10.354   3.423   2.883
77289SOL     OW33705   6.208   0.744   2.161
77289SOL    HW133706   6.156   0.713   2.234
77289SOL    HW233707   6.159   0.818   2.126
77290SOL     OW33708   3.147  14.175   8.232
77290SOL    HW133709   3.145  14.230   8.154
77290SOL    HW233710   3.100  14.096   8.207
77291SOL     OW33711   6.484   9.684   7.486
77291SOL    HW133712   6.541   9.610   7.504
77291SOL    HW233713   6.473   9.683   7.391
77292SOL     OW33714   6.501   0.098   7.843
77292SOL    HW133715   6.581   0.057   7.876
77292SOL    HW233716   6.450   0.118   7.922
77293SOL     OW33717  12.105  12.166   1.947
77293SOL    HW133718  12.158  12.238   1.981
77293SOL    HW233719  12.049  12.140   2.021
77294SOL     OW33720  11.448  14.413   8.022
77294SOL    HW133721  11.384  14.348   8.052
77294SOL    HW233722  11.522  14.403   8.083
77295SOL     OW33723   0.131   1.129  14.763
77295SOL    HW133724   0.037   1.145  14.751
77295SOL    HW233725   0.160   1.093  14.679
77296SOL     OW33726   3.374   3.862   9.282
77296SOL    HW133727   3.428   3.910   9.344
77296SOL    HW233728   3.309   3.817   9.336
77297SOL     OW33729   9.551   0.618   4.995
77297SOL    HW133730   9.484   0.557   5.025
77297SOL    HW233731   9.611   0.565   4.943
77298SOL     OW33732   0.280   4.220   7.177
77298SOL    HW133733   0.204   4.203   7.233
77298SOL    HW233734   0.244   4.222   7.088
77299SOL     OW33735  13.767  10.472  12.982
77299SOL    HW133736  13.860  10.489  13.000
77299SOL    HW233737  13.735  10.428  13.061
77300SOL     OW33738   7.305   2.617   0.151
77300SOL    HW133739   7.228   2.599   0.205
77300SOL    HW233740   7.340   2.530   0.129
77301SOL     OW33741  12.785   5.817   1.759
77301SOL    HW133742  12.761   5.878   1.689
77301SOL    HW233743  12.848   5.865   1.813
77302SOL     OW33744  11.853   4.219   9.763
77302SOL    HW133745  11.826   4.127   9.758
77302SOL    HW233746  11.859   4.237   9.857
77303SOL     OW33747   2.558   1.197  14.384
77303SOL    HW133748   2.580   1.273  14.438
77303SOL    HW233749   2.640   1.149  14.376
77304SOL     OW33750  13.361   1.237   1.842
77304SOL    HW133751  13.448   1.244   1.804
77304SOL    HW233752  13.348   1.143   1.856
77305SOL     OW33753   3.752   2.343  10.940
77305SOL    HW133754   3.847   2.335  10.952
77305SOL    HW233755   3.717   2.257  10.964
77306SOL     OW33756  12.487  11.743   5.612
77306SOL    HW133757  12.459  11.679   5.677
77306SOL    HW233758  12.556  11.699   5.563
77307SOL     OW33759  14.339  12.019   4.014
77307SOL    HW133760  14.272  12.035   4.079
77307SOL    HW233761  14.291  11.992   3.936
77308SOL     OW33762  13.745   3.392   4.557
77308SOL    HW133763  13.654   3.402   4.584
77308SOL    HW233764  13.783   3.331   4.621
77309SOL     OW33765  12.847   5.987  14.773
77309SOL    HW133766  12.922   5.929  14.761
77309SOL    HW233767  12.782   5.955  14.711
77310SOL     OW33768   6.566   0.943   0.010
77310SOL    HW133769   6.637   0.889   0.043
77310SOL    HW233770   6.609   1.011  14.831
77311SOL     OW33771   3.586   1.415   5.957
77311SOL    HW133772   3.504   1.454   5.928
77311SOL    HW233773   3.562   1.326   5.982
77312SOL     OW33774  13.819  11.918  10.413
77312SOL    HW133775  13.736  11.907  10.460
77312SOL    HW233776  13.796  11.967  10.334
77313SOL     OW33777  13.221   6.663  10.836
77313SOL    HW133778  13.297   6.638  10.783
77313SOL    HW233779  13.155   6.597  10.815
77314SOL     OW33780   5.473   7.698   6.176
77314SOL    HW133781   5.547   7.662   6.225
77314SOL    HW233782   5.492   7.676   6.085
77315SOL     OW33783  10.652   9.761  10.610
77315SOL    HW133784  10.747   9.768  10.609
77315SOL    HW233785  10.634   9.672  10.637
77316SOL     OW33786   9.521   6.868  12.968
77316SOL    HW133787   9.447   6.928  12.970
77316SOL    HW233788   9.503   6.809  12.894
77317SOL     OW33789   2.337  12.469   8.816
77317SOL    HW133790   2.338  12.393   8.874
77317SOL    HW233791   2.423  12.469   8.774
77318SOL     OW33792   8.017  11.979   8.198
77318SOL    HW133793   8.112  11.981   8.210
77318SOL    HW233794   8.003  11.982   8.104
77319SOL     OW33795   8.081  12.114   9.434
77319SOL    HW133796   8.047  12.203   9.428
77319SOL    HW233797   8.045  12.079   9.516
77320SOL     OW33798  11.282   7.896  13.073
77320SOL    HW133799  11.350   7.873  13.137
77320SOL    HW233800  11.331   7.932  12.999
77321SOL     OW33801   3.464  13.696   4.516
77321SOL    HW133802   3.370  13.702   4.495
77321SOL    HW233803   3.469  13.626   4.581
77322SOL     OW33804   9.904  13.444   6.493
77322SOL    HW133805   9.957  13.491   6.429
77322SOL    HW233806   9.906  13.499   6.571
77323SOL     OW33807   9.733  13.493   2.177
77323SOL    HW133808   9.729  13.441   2.097
77323SOL    HW233809   9.709  13.581   2.149
77324SOL     OW33810   4.267  10.766  14.232
77324SOL    HW133811   4.235  10.715  14.157
77324SOL    HW233812   4.340  10.817  14.197
77325SOL     OW33813   4.998   2.262   9.402
77325SOL    HW133814   5.087   2.298   9.405
77325SOL    HW233815   4.970   2.276   9.312
77326SOL     OW33816   5.132   4.755  14.513
77326SOL    HW133817   5.181   4.836  14.529
77326SOL    HW233818   5.067   4.752  14.584
77327SOL     OW33819   0.024   4.094  12.432
77327SOL    HW133820   0.119   4.098  12.424
77327SOL    HW233821   0.006   4.005  12.465
77328SOL     OW33822   6.827   0.678   8.297
77328SOL    HW133823   6.780   0.652   8.218
77328SOL    HW233824   6.801   0.613   8.363
77329SOL     OW33825   8.822   2.674  14.473
77329SOL    HW133826   8.870   2.650  14.394
77329SOL    HW233827   8.867   2.753  14.504
77330SOL     OW33828  12.284   7.814   6.531
77330SOL    HW133829  12.287   7.770   6.616
77330SOL    HW233830  12.217   7.881   6.541
77331SOL     OW33831  12.293   2.761   4.111
77331SOL    HW133832  12.229   2.749   4.181
77331SOL    HW233833  12.325   2.850   4.124
77332SOL     OW33834  14.395  10.321   2.406
77332SOL    HW133835  14.321  10.282   2.453
77332SOL    HW233836  14.415  10.401   2.455
77333SOL     OW33837   2.656   4.360   5.442
77333SOL    HW133838   2.741   4.348   5.484
77333SOL    HW233839   2.613   4.428   5.495
77334SOL     OW33840   6.727   0.298   6.979
77334SOL    HW133841   6.783   0.221   6.989
77334SOL    HW233842   6.673   0.279   6.902
77335SOL     OW33843   0.750   9.072   6.184
77335SOL    HW133844   0.725   9.093   6.274
77335SOL    HW233845   0.667   9.052   6.141
77336SOL     OW33846  13.135   2.576   0.218
77336SOL    HW133847  13.134   2.672   0.217
77336SOL    HW233848  13.209   2.553   0.275
77337SOL     OW33849   6.243  10.584   8.619
77337SOL    HW133850   6.164  10.541   8.585
77337SOL    HW233851   6.300  10.592   8.542
77338SOL     OW33852   5.932   2.569  13.468
77338SOL    HW133853   5.966   2.629  13.402
77338SOL    HW233854   5.867   2.516  13.422
77339SOL     OW33855   9.089   5.211  13.195
77339SOL    HW133856   9.155   5.230  13.263
77339SOL    HW233857   9.035   5.290  13.192
77340SOL     OW33858   6.318   4.145   6.861
77340SOL    HW133859   6.343   4.201   6.788
77340SOL    HW233860   6.264   4.202   6.917
77341SOL     OW33861  11.083   2.051   7.764
77341SOL    HW133862  11.084   2.142   7.736
77341SOL    HW233863  11.091   2.001   7.682
77342SOL     OW33864   3.301   2.083   3.930
77342SOL    HW133865   3.278   2.167   3.888
77342SOL    HW233866   3.397   2.084   3.934
77343SOL     OW33867  14.572   1.684   0.760
77343SOL    HW133868  14.603   1.612   0.705
77343SOL    HW233869  14.574   1.761   0.703
77344SOL     OW33870   5.021   3.589   2.312
77344SOL    HW133871   5.044   3.665   2.365
77344SOL    HW233872   5.091   3.526   2.329
77345SOL     OW33873   1.432   8.188  13.130
77345SOL    HW133874   1.345   8.172  13.165
77345SOL    HW233875   1.490   8.183  13.206
77346SOL     OW33876  12.902   5.003   0.617
77346SOL    HW133877  12.983   5.024   0.570
77346SOL    HW233878  12.911   5.050   0.700
77347SOL     OW33879  13.105  14.166  14.453
77347SOL    HW133880  13.119  14.102  14.383
77347SOL    HW233881  13.010  14.164  14.468
77348SOL     OW33882   7.944  10.772   0.325
77348SOL    HW133883   7.963  10.820   0.405
77348SOL    HW233884   7.860  10.729   0.342
77349SOL     OW33885  11.050  13.096   0.583
77349SOL    HW133886  11.102  13.086   0.503
77349SOL    HW233887  11.002  13.013   0.591
77350SOL     OW33888   5.269   4.537   2.877
77350SOL    HW133889   5.360   4.568   2.875
77350SOL    HW233890   5.266   4.473   2.948
77351SOL     OW33891   1.595   5.397  10.603
77351SOL    HW133892   1.510   5.364  10.573
77351SOL    HW233893   1.603   5.483  10.562
77352SOL     OW33894   0.967   8.918   9.223
77352SOL    HW133895   0.896   8.899   9.284
77352SOL    HW233896   1.012   8.994   9.260
77353SOL     OW33897  14.527  14.785   1.304
77353SOL    HW133898  14.582  14.862   1.317
77353SOL    HW233899  14.507  14.755   1.393
77354SOL     OW33900  10.006   0.556   2.548
77354SOL    HW133901  10.012   0.649   2.567
77354SOL    HW233902   9.964   0.518   2.625
77355SOL     OW33903   5.468   9.774  13.796
77355SOL    HW133904   5.434   9.739  13.714
77355SOL    HW233905   5.473   9.699  13.855
77356SOL     OW33906   3.756  14.023  10.332
77356SOL    HW133907   3.779  14.111  10.359
77356SOL    HW233908   3.715  13.984  10.409
77357SOL     OW33909   4.554   5.038   3.331
77357SOL    HW133910   4.510   5.107   3.281
77357SOL    HW233911   4.613   4.997   3.267
77358SOL     OW33912   2.309  10.763  14.273
77358SOL    HW133913   2.359  10.701  14.220
77358SOL    HW233914   2.374  10.824  14.307
77359SOL     OW33915  13.732   2.670   4.404
77359SOL    HW133916  13.692   2.734   4.464
77359SOL    HW233917  13.816   2.650   4.445
77360SOL     OW33918   8.410   3.082   0.978
77360SOL    HW133919   8.387   3.134   1.055
77360SOL    HW233920   8.498   3.051   0.996
77361SOL     OW33921   8.411  14.786   3.783
77361SOL    HW133922   8.406  14.691   3.788
77361SOL    HW233923   8.334  14.811   3.731
77362SOL     OW33924   7.485   7.705   7.223
77362SOL    HW133925   7.573   7.676   7.248
77362SOL    HW233926   7.436   7.624   7.210
77363SOL     OW33927  14.566  12.504   0.154
77363SOL    HW133928  14.553  12.414   0.123
77363SOL    HW233929  14.494  12.553   0.116
77364SOL     OW33930  12.634   7.448   9.428
77364SOL    HW133931  12.656   7.431   9.336
77364SOL    HW233932  12.545   7.414   9.438
77365SOL     OW33933   7.377   6.847  12.197
77365SOL    HW133934   7.322   6.899  12.255
77365SOL    HW233935   7.326   6.840  12.116
77366SOL     OW33936  11.564   3.724   1.579
77366SOL    HW133937  11.533   3.715   1.669
77366SOL    HW233938  11.658   3.708   1.585
77367SOL     OW33939   6.279  13.297   4.118
77367SOL    HW133940   6.364  13.341   4.126
77367SOL    HW233941   6.230  13.351   4.056
77368SOL     OW33942   7.545  12.376  11.287
77368SOL    HW133943   7.474  12.389  11.224
77368SOL    HW233944   7.622  12.358  11.232
77369SOL     OW33945   7.762   7.502   7.035
77369SOL    HW133946   7.687   7.479   7.090
77369SOL    HW233947   7.746   7.593   7.010
77370SOL     OW33948   9.636   4.616   9.664
77370SOL    HW133949   9.643   4.546   9.729
77370SOL    HW233950   9.578   4.580   9.597
77371SOL     OW33951   5.638  13.387   4.325
77371SOL    HW133952   5.680  13.362   4.407
77371SOL    HW233953   5.588  13.309   4.299
77372SOL     OW33954   4.128   0.434   1.763
77372SOL    HW133955   4.049   0.380   1.766
77372SOL    HW233956   4.185   0.397   1.830
77373SOL     OW33957  10.356   2.779   0.434
77373SOL    HW133958  10.381   2.865   0.468
77373SOL    HW233959  10.368   2.720   0.509
77374SOL     OW33960  10.326  12.119   7.592
77374SOL    HW133961  10.403  12.114   7.534
77374SOL    HW233962  10.337  12.201   7.639
77375SOL     OW33963   9.110   6.005  12.908
77375SOL    HW133964   9.089   5.912  12.908
77375SOL    HW233965   9.204   6.008  12.924
77376SOL     OW33966   2.645   5.619  10.907
77376SOL    HW133967   2.685   5.698  10.870
77376SOL    HW233968   2.588   5.586  10.837
77377SOL     OW33969  11.186   6.219   7.672
77377SOL    HW133970  11.219   6.149   7.615
77377SOL    HW233971  11.201   6.300   7.623
77378SOL     OW33972  10.990   9.444  11.953
77378SOL    HW133973  11.078   9.425  11.984
77378SOL    HW233974  11.000   9.461  11.859
77379SOL     OW33975   9.662  12.378   3.822
77379SOL    HW133976   9.688  12.388   3.730
77379SOL    HW233977   9.718  12.438   3.870
77380SOL     OW33978   8.666   6.732   2.845
77380SOL    HW133979   8.599   6.703   2.908
77380SOL    HW233980   8.749   6.711   2.887
77381SOL     OW33981   0.902   9.251  11.063
77381SOL    HW133982   0.951   9.171  11.044
77381SOL    HW233983   0.836   9.255  10.995
77382SOL     OW33984  14.603   5.565  13.281
77382SOL    HW133985  14.580   5.476  13.255
77382SOL    HW233986  14.554   5.621  13.220
77383SOL     OW33987  10.471  13.923   3.194
77383SOL    HW133988  10.558  13.933   3.155
77383SOL    HW233989  10.412  13.970   3.135
77384SOL     OW33990   1.698   3.940   2.736
77384SOL    HW133991   1.765   3.895   2.788
77384SOL    HW233992   1.706   3.902   2.649
77385SOL     OW33993   6.252  14.280   8.005
77385SOL    HW133994   6.322  14.262   8.067
77385SOL    HW233995   6.294  14.277   7.919
77386SOL     OW33996   8.034   9.196   9.923
77386SOL    HW133997   7.978   9.246   9.982
77386SOL    HW233998   8.117   9.244   9.923
77387SOL     OW33999   2.726  14.367  12.135
77387SOL    HW134000   2.675  14.389  12.057
77387SOL    HW234001   2.660  14.351  12.203
77388SOL     OW34002   2.262   5.881   3.334
77388SOL    HW134003   2.328   5.863   3.267
77388SOL    HW234004   2.271   5.974   3.352
77389SOL     OW34005   7.851  13.672  11.353
77389SOL    HW134006   7.785  13.741  11.361
77389SOL    HW234007   7.808  13.602  11.304
77390SOL     OW34008   5.605  11.637   2.128
77390SOL    HW134009   5.594  11.597   2.214
77390SOL    HW234010   5.699  11.647   2.117
77391SOL     OW34011  13.732   4.214   9.469
77391SOL    HW134012  13.710   4.294   9.516
77391SOL    HW234013  13.657   4.198   9.411
77392SOL     OW34014   4.955   2.085   3.780
77392SOL    HW134015   4.960   2.022   3.852
77392SOL    HW234016   5.039   2.076   3.735
77393SOL     OW34017  14.585  11.710  12.241
77393SOL    HW134018  14.644  11.645  12.203
77393SOL    HW234019  14.618  11.794  12.210
77394SOL     OW34020   0.641   7.423   8.338
77394SOL    HW134021   0.606   7.392   8.422
77394SOL    HW234022   0.727   7.382   8.331
77395SOL     OW34023   6.954   1.398  13.082
77395SOL    HW134024   6.912   1.326  13.131
77395SOL    HW234025   6.958   1.470  13.145
77396SOL     OW34026   1.148   5.139  14.393
77396SOL    HW134027   1.194   5.145  14.477
77396SOL    HW234028   1.156   5.226  14.355
77397SOL     OW34029   7.146  12.296   1.113
77397SOL    HW134030   7.160  12.299   1.018
77397SOL    HW234031   7.057  12.263   1.123
77398SOL     OW34032   8.896   9.693   9.329
77398SOL    HW134033   8.837   9.721   9.258
77398SOL    HW234034   8.851   9.720   9.409
77399SOL     OW34035   3.735   4.717  14.792
77399SOL    HW134036   3.767   4.634  14.827
77399SOL    HW234037   3.789   4.734  14.716
77400SOL     OW34038  10.201  11.599  10.621
77400SOL    HW134039  10.203  11.693  10.605
77400SOL    HW234040  10.292  11.575  10.636
77401SOL     OW34041   8.089   2.065   8.975
77401SOL    HW134042   8.141   2.032   8.902
77401SOL    HW234043   8.126   2.151   8.994
77402SOL     OW34044   2.043   2.092   3.970
77402SOL    HW134045   1.980   2.079   3.900
77402SOL    HW234046   2.124   2.117   3.925
77403SOL     OW34047   1.820   9.710   2.060
77403SOL    HW134048   1.838   9.723   1.967
77403SOL    HW234049   1.806   9.797   2.096
77404SOL     OW34050   2.859   8.933   0.866
77404SOL    HW134051   2.898   8.993   0.930
77404SOL    HW234052   2.816   8.990   0.803
77405SOL     OW34053  10.532  13.969   2.831
77405SOL    HW134054  10.563  13.998   2.917
77405SOL    HW234055  10.543  13.874   2.832
77406SOL     OW34056   8.190   3.869  11.998
77406SOL    HW134057   8.187   3.853  12.092
77406SOL    HW234058   8.112   3.827  11.963
77407SOL     OW34059   3.861   6.556   4.378
77407SOL    HW134060   3.916   6.510   4.442
77407SOL    HW234061   3.909   6.636   4.358
77408SOL     OW34062   2.094  14.368   8.323
77408SOL    HW134063   2.159  14.324   8.268
77408SOL    HW234064   2.020  14.308   8.326
77409SOL     OW34065  11.297  11.724   9.159
77409SOL    HW134066  11.348  11.798   9.125
77409SOL    HW234067  11.206  11.745   9.138
77410SOL     OW34068   0.639  13.683  10.070
77410SOL    HW134069   0.693  13.607  10.052
77410SOL    HW234070   0.685  13.730  10.139
77411SOL     OW34071   1.185   4.038   8.857
77411SOL    HW134072   1.121   4.109   8.867
77411SOL    HW234073   1.188   4.022   8.763
77412SOL     OW34074  13.824  12.819   4.364
77412SOL    HW134075  13.744  12.773   4.338
77412SOL    HW234076  13.838  12.883   4.294
77413SOL     OW34077   1.397   6.840  11.431
77413SOL    HW134078   1.374   6.932  11.429
77413SOL    HW234079   1.418   6.822  11.523
77414SOL     OW34080   7.662  11.049  12.540
77414SOL    HW134081   7.689  11.082  12.626
77414SOL    HW234082   7.569  11.028  12.551
77415SOL     OW34083   4.232   1.156   1.159
77415SOL    HW134084   4.158   1.109   1.121
77415SOL    HW234085   4.309   1.107   1.129
77416SOL     OW34086  10.328   3.450  12.972
77416SOL    HW134087  10.264   3.517  12.948
77416SOL    HW234088  10.279   3.391  13.029
77417SOL     OW34089   3.966   0.542  13.796
77417SOL    HW134090   3.978   0.637  13.791
77417SOL    HW234091   3.879   0.531  13.836
77418SOL     OW34092   1.215  12.798  12.439
77418SOL    HW134093   1.161  12.820  12.363
77418SOL    HW234094   1.294  12.758  12.402
77419SOL     OW34095  13.997   6.228  11.336
77419SOL    HW134096  13.961   6.214  11.423
77419SOL    HW234097  14.003   6.141  11.298
77420SOL     OW34098   3.036  11.907   8.563
77420SOL    HW134099   3.067  11.991   8.529
77420SOL    HW234100   3.113  11.851   8.562
77421SOL     OW34101   2.978   1.844   6.236
77421SOL    HW134102   2.882   1.842   6.243
77421SOL    HW234103   3.002   1.930   6.271
77422SOL     OW34104   5.935  10.624  11.892
77422SOL    HW134105   5.963  10.557  11.954
77422SOL    HW234106   5.858  10.588  11.850
77423SOL     OW34107   2.284   2.713  14.789
77423SOL    HW134108   2.352   2.726  14.855
77423SOL    HW234109   2.247   2.627  14.809
77424SOL     OW34110   3.505  10.324  10.847
77424SOL    HW134111   3.445  10.336  10.921
77424SOL    HW234112   3.498  10.404  10.796
77425SOL     OW34113   5.120   4.025   2.729
77425SOL    HW134114   5.204   4.050   2.691
77425SOL    HW234115   5.142   3.997   2.818
77426SOL     OW34116   9.883   6.427   0.095
77426SOL    HW134117   9.803   6.384   0.065
77426SOL    HW234118   9.884   6.412   0.190
77427SOL     OW34119   6.479   3.588  13.861
77427SOL    HW134120   6.471   3.555  13.951
77427SOL    HW234121   6.392   3.620  13.839
77428SOL     OW34122   7.438   7.680   1.363
77428SOL    HW134123   7.408   7.680   1.454
77428SOL    HW234124   7.411   7.595   1.329
77429SOL     OW34125   4.843   3.360  14.209
77429SOL    HW134126   4.845   3.385  14.117
77429SOL    HW234127   4.842   3.443  14.256
77430SOL     OW34128  13.418  12.051  12.454
77430SOL    HW134129  13.358  11.978  12.468
77430SOL    HW234130  13.380  12.099  12.381
77431SOL     OW34131  12.448  10.250   0.317
77431SOL    HW134132  12.489  10.244   0.230
77431SOL    HW234133  12.511  10.297   0.370
77432SOL     OW34134   2.248   3.562   1.839
77432SOL    HW134135   2.239   3.657   1.854
77432SOL    HW234136   2.164   3.537   1.800
77433SOL     OW34137  14.375   0.226   5.299
77433SOL    HW134138  14.460   0.270   5.300
77433SOL    HW234139  14.329   0.264   5.374
77434SOL     OW34140   7.257  11.542  11.660
77434SOL    HW134141   7.257  11.448  11.679
77434SOL    HW234142   7.347  11.570  11.674
77435SOL     OW34143  10.340   1.200   7.722
77435SOL    HW134144  10.302   1.223   7.637
77435SOL    HW234145  10.264   1.177   7.777
77436SOL     OW34146  14.419   2.128  10.340
77436SOL    HW134147  14.444   2.169  10.257
77436SOL    HW234148  14.460   2.041  10.337
77437SOL     OW34149   9.584  12.790   7.126
77437SOL    HW134150   9.639  12.724   7.082
77437SOL    HW234151   9.505  12.795   7.073
77438SOL     OW34152  11.578  11.080   9.507
77438SOL    HW134153  11.628  11.142   9.561
77438SOL    HW234154  11.500  11.129   9.481
77439SOL     OW34155   4.902  14.362   8.891
77439SOL    HW134156   4.937  14.365   8.980
77439SOL    HW234157   4.836  14.432   8.889
77440SOL     OW34158   9.050  14.422   3.317
77440SOL    HW134159   9.139  14.458   3.317
77440SOL    HW234160   9.059  14.337   3.274
77441SOL     OW34161   3.829  13.432   8.068
77441SOL    HW134162   3.810  13.463   7.979
77441SOL    HW234163   3.895  13.493   8.101
77442SOL     OW34164   1.321   1.888   0.903
77442SOL    HW134165   1.293   1.971   0.940
77442SOL    HW234166   1.320   1.827   0.977
77443SOL     OW34167  13.868   8.538  14.120
77443SOL    HW134168  13.908   8.604  14.177
77443SOL    HW234169  13.775   8.542  14.141
77444SOL     OW34170   8.355   4.468  10.870
77444SOL    HW134171   8.338   4.446  10.778
77444SOL    HW234172   8.316   4.555  10.881
77445SOL     OW34173   7.362   5.877   1.061
77445SOL    HW134174   7.456   5.890   1.079
77445SOL    HW234175   7.318   5.947   1.108
77446SOL     OW34176  10.017   6.755   1.961
77446SOL    HW134177  10.102   6.787   1.931
77446SOL    HW234178  10.015   6.779   2.054
77447SOL     OW34179  13.008  13.476   7.594
77447SOL    HW134180  13.025  13.438   7.680
77447SOL    HW234181  12.944  13.545   7.610
77448SOL     OW34182   6.083  14.433   7.527
77448SOL    HW134183   6.016  14.370   7.502
77448SOL    HW234184   6.162  14.380   7.538
77449SOL     OW34185  14.144  12.164   8.594
77449SOL    HW134186  14.055  12.187   8.622
77449SOL    HW234187  14.131  12.112   8.515
77450SOL     OW34188  11.900   1.469   9.955
77450SOL    HW134189  11.951   1.426   9.886
77450SOL    HW234190  11.846   1.534   9.908
77451SOL     OW34191   1.063   3.736   3.274
77451SOL    HW134192   1.046   3.670   3.342
77451SOL    HW234193   1.142   3.781   3.304
77452SOL     OW34194  12.172  11.546  14.019
77452SOL    HW134195  12.145  11.610  14.085
77452SOL    HW234196  12.091  11.511  13.984
77453SOL     OW34197   6.475   2.728  13.684
77453SOL    HW134198   6.486   2.732  13.589
77453SOL    HW234199   6.544   2.784  13.719
77454SOL     OW34200  11.784   3.399   1.321
77454SOL    HW134201  11.718   3.446   1.270
77454SOL    HW234202  11.803   3.456   1.395
77455SOL     OW34203  12.848   9.315  10.621
77455SOL    HW134204  12.892   9.249  10.675
77455SOL    HW234205  12.832   9.388  10.681
77456SOL     OW34206   0.990   8.914   3.431
77456SOL    HW134207   0.931   8.958   3.493
77456SOL    HW234208   0.956   8.825   3.426
77457SOL     OW34209  11.308  14.116   6.704
77457SOL    HW134210  11.226  14.159   6.681
77457SOL    HW234211  11.333  14.067   6.625
77458SOL     OW34212   0.312  14.204   9.219
77458SOL    HW134213   0.382  14.193   9.283
77458SOL    HW234214   0.345  14.162   9.140
77459SOL     OW34215  12.545   8.000   1.665
77459SOL    HW134216  12.593   7.933   1.713
77459SOL    HW234217  12.481   8.035   1.728
77460SOL     OW34218   0.867   0.968  12.604
77460SOL    HW134219   0.961   0.974  12.619
77460SOL    HW234220   0.839   0.894  12.657
77461SOL     OW34221  13.349  14.459  12.759
77461SOL    HW134222  13.333  14.553  12.770
77461SOL    HW234223  13.354  14.446  12.665
77462SOL     OW34224   8.772  12.661   1.351
77462SOL    HW134225   8.754  12.747   1.313
77462SOL    HW234226   8.746  12.599   1.283
77463SOL     OW34227   9.793  11.143   0.475
77463SOL    HW134228   9.850  11.079   0.519
77463SOL    HW234229   9.818  11.227   0.513
77464SOL     OW34230   1.986   5.000  13.969
77464SOL    HW134231   2.029   5.026  14.050
77464SOL    HW234232   1.983   4.904  13.973
77465SOL     OW34233   0.708  10.701   8.506
77465SOL    HW134234   0.677  10.754   8.432
77465SOL    HW234235   0.644  10.629   8.512
77466SOL     OW34236   6.127  10.481  12.331
77466SOL    HW134237   6.188  10.446  12.396
77466SOL    HW234238   6.067  10.536  12.381
77467SOL     OW34239  13.821  14.271   7.688
77467SOL    HW134240  13.727  14.282   7.675
77467SOL    HW234241  13.859  14.355   7.662
77468SOL     OW34242   8.156   4.070   9.851
77468SOL    HW134243   8.192   3.983   9.868
77468SOL    HW234244   8.156   4.113   9.937
77469SOL     OW34245   1.134   4.677   3.611
77469SOL    HW134246   1.214   4.715   3.576
77469SOL    HW234247   1.160   4.640   3.696
77470SOL     OW34248   9.750   6.293   3.099
77470SOL    HW134249   9.785   6.318   3.184
77470SOL    HW234250   9.827   6.289   3.041
77471SOL     OW34251   4.031  11.811   5.389
77471SOL    HW134252   4.000  11.721   5.380
77471SOL    HW234253   4.009  11.852   5.306
77472SOL     OW34254   5.545   3.524   3.885
77472SOL    HW134255   5.499   3.449   3.922
77472SOL    HW234256   5.476   3.589   3.869
77473SOL     OW34257   4.366   8.658   4.898
77473SOL    HW134258   4.315   8.689   4.823
77473SOL    HW234259   4.301   8.622   4.958
77474SOL     OW34260   3.944   0.222   2.484
77474SOL    HW134261   3.980   0.297   2.530
77474SOL    HW234262   3.915   0.257   2.400
77475SOL     OW34263   4.380  12.325   7.353
77475SOL    HW134264   4.411  12.237   7.333
77475SOL    HW234265   4.460  12.377   7.365
77476SOL     OW34266   2.292   7.426  12.274
77476SOL    HW134267   2.222   7.431  12.208
77476SOL    HW234268   2.366   7.471  12.233
77477SOL     OW34269   8.922  12.419  14.131
77477SOL    HW134270   8.833  12.386  14.120
77477SOL    HW234271   8.974  12.341  14.152
77478SOL     OW34272   0.067  13.759   5.744
77478SOL    HW134273   0.059  13.852   5.724
77478SOL    HW234274   0.042  13.715   5.663
77479SOL     OW34275   0.900   8.068   2.112
77479SOL    HW134276   0.822   8.089   2.163
77479SOL    HW234277   0.970   8.059   2.177
77480SOL     OW34278  12.897   2.069  10.886
77480SOL    HW134279  12.869   2.133  10.951
77480SOL    HW234280  12.945   2.120  10.821
77481SOL     OW34281   4.349   2.980   8.519
77481SOL    HW134282   4.288   2.999   8.590
77481SOL    HW234283   4.334   2.888   8.499
77482SOL     OW34284  13.871  11.368   5.929
77482SOL    HW134285  13.934  11.358   6.000
77482SOL    HW234286  13.791  11.327   5.963
77483SOL     OW34287   1.906  10.482   0.663
77483SOL    HW134288   1.949  10.397   0.646
77483SOL    HW234289   1.910  10.527   0.579
77484SOL     OW34290   5.882  12.967   0.925
77484SOL    HW134291   5.823  13.034   0.890
77484SOL    HW234292   5.825  12.897   0.956
77485SOL     OW34293  10.511  12.253   8.324
77485SOL    HW134294  10.594  12.208   8.311
77485SOL    HW234295  10.534  12.333   8.372
77486SOL     OW34296   9.765   1.005  10.138
77486SOL    HW134297   9.721   1.089  10.154
77486SOL    HW234298   9.703   0.955  10.085
77487SOL     OW34299   6.704   0.170  11.352
77487SOL    HW134300   6.728   0.096  11.297
77487SOL    HW234301   6.616   0.195  11.322
77488SOL     OW34302   8.954   6.594  14.471
77488SOL    HW134303   8.961   6.594  14.375
77488SOL    HW234304   8.901   6.516  14.490
77489SOL     OW34305   9.353   0.581   7.018
77489SOL    HW134306   9.413   0.649   6.987
77489SOL    HW234307   9.378   0.503   6.968
77490SOL     OW34308  12.556   1.916   1.877
77490SOL    HW134309  12.647   1.931   1.900
77490SOL    HW234310  12.542   1.823   1.892
77491SOL     OW34311   4.565  11.779   4.901
77491SOL    HW134312   4.654  11.795   4.932
77491SOL    HW234313   4.549  11.848   4.837
77492SOL     OW34314   7.909  11.411   7.511
77492SOL    HW134315   7.844  11.426   7.443
77492SOL    HW234316   7.861  11.419   7.593
77493SOL     OW34317  14.187   3.519   2.462
77493SOL    HW134318  14.107   3.499   2.414
77493SOL    HW234319  14.258   3.500   2.400
77494SOL     OW34320  12.510   7.101   2.156
77494SOL    HW134321  12.528   7.029   2.094
77494SOL    HW234322  12.508   7.179   2.101
77495SOL     OW34323   0.495   3.071   3.780
77495SOL    HW134324   0.414   3.072   3.831
77495SOL    HW234325   0.545   3.146   3.812
77496SOL     OW34326   0.385   7.579   8.023
77496SOL    HW134327   0.409   7.602   7.933
77496SOL    HW234328   0.465   7.542   8.060
77497SOL     OW34329   3.959   6.765  12.258
77497SOL    HW134330   3.966   6.700  12.328
77497SOL    HW234331   4.044   6.809  12.258
77498SOL     OW34332   3.819   3.526  11.647
77498SOL    HW134333   3.902   3.478  11.643
77498SOL    HW234334   3.816   3.563  11.735
77499SOL     OW34335   0.216  13.924   4.799
77499SOL    HW134336   0.130  13.946   4.763
77499SOL    HW234337   0.214  13.958   4.889
77500SOL     OW34338   0.507   1.159  13.004
77500SOL    HW134339   0.578   1.102  12.973
77500SOL    HW234340   0.499   1.226  12.936
77501SOL     OW34341  12.026  11.827   0.659
77501SOL    HW134342  11.979  11.910   0.654
77501SOL    HW234343  12.003  11.782   0.577
77502SOL     OW34344   1.712  12.356   8.001
77502SOL    HW134345   1.776  12.395   8.061
77502SOL    HW234346   1.671  12.286   8.053
77503SOL     OW34347   3.761   7.587   4.981
77503SOL    HW134348   3.719   7.667   4.951
77503SOL    HW234349   3.699   7.517   4.958
77504SOL     OW34350   4.688   9.967  14.041
77504SOL    HW134351   4.778   9.936  14.049
77504SOL    HW234352   4.682  10.002  13.953
77505SOL     OW34353   3.246   6.211  14.611
77505SOL    HW134354   3.287   6.297  14.612
77505SOL    HW234355   3.169   6.221  14.555
77506SOL     OW34356  12.654   3.164   4.958
77506SOL    HW134357  12.723   3.113   4.916
77506SOL    HW234358  12.585   3.170   4.891
77507SOL     OW34359   4.938   8.018  12.148
77507SOL    HW134360   4.872   8.003  12.215
77507SOL    HW234361   4.888   8.046  12.071
77508SOL     OW34362  10.978   8.076  11.806
77508SOL    HW134363  10.885   8.069  11.826
77508SOL    HW234364  11.003   7.987  11.779
77509SOL     OW34365   8.866   8.585  11.021
77509SOL    HW134366   8.929   8.640  10.973
77509SOL    HW234367   8.802   8.648  11.056
77510SOL     OW34368   8.947   8.674   7.304
77510SOL    HW134369   9.016   8.662   7.239
77510SOL    HW234370   8.979   8.629   7.382
77511SOL     OW34371   0.334  10.612  10.947
77511SOL    HW134372   0.395  10.614  11.021
77511SOL    HW234373   0.362  10.683  10.890
77512SOL     OW34374   7.289   2.960   7.806
77512SOL    HW134375   7.220   2.988   7.747
77512SOL    HW234376   7.243   2.918   7.879
77513SOL     OW34377   0.808   7.523   3.364
77513SOL    HW134378   0.857   7.522   3.282
77513SOL    HW234379   0.758   7.442   3.363
77514SOL     OW34380  12.553  12.301   6.132
77514SOL    HW134381  12.622  12.328   6.193
77514SOL    HW234382  12.567  12.207   6.120
77515SOL     OW34383   0.715   8.903   8.342
77515SOL    HW134384   0.718   8.817   8.384
77515SOL    HW234385   0.806   8.934   8.343
77516SOL     OW34386   0.485   9.236  11.457
77516SOL    HW134387   0.453   9.286  11.533
77516SOL    HW234388   0.518   9.155  11.495
77517SOL     OW34389   5.867   7.243   6.809
77517SOL    HW134390   5.802   7.283   6.751
77517SOL    HW234391   5.859   7.290   6.891
77518SOL     OW34392   4.929   2.186  11.017
77518SOL    HW134393   4.966   2.270  11.044
77518SOL    HW234394   4.987   2.120  11.056
77519SOL     OW34395   8.049  13.558   2.546
77519SOL    HW134396   7.979  13.494   2.535
77519SOL    HW234397   8.121  13.526   2.492
77520SOL     OW34398  11.008  13.177  10.404
77520SOL    HW134399  10.975  13.088  10.417
77520SOL    HW234400  10.955  13.212  10.333
77521SOL     OW34401   3.611  10.918  11.335
77521SOL    HW134402   3.682  10.854  11.342
77521SOL    HW234403   3.652  10.994  11.293
77522SOL     OW34404   0.856   0.965   7.608
77522SOL    HW134405   0.909   1.013   7.672
77522SOL    HW234406   0.821   1.033   7.551
77523SOL     OW34407   0.524   6.258  10.388
77523SOL    HW134408   0.527   6.338  10.335
77523SOL    HW234409   0.516   6.187  10.324
77524SOL     OW34410   7.467   0.207   0.705
77524SOL    HW134411   7.466   0.118   0.739
77524SOL    HW234412   7.446   0.262   0.780
77525SOL     OW34413   1.835   4.329  11.727
77525SOL    HW134414   1.875   4.335  11.640
77525SOL    HW234415   1.901   4.365  11.786
77526SOL     OW34416   4.743   8.806   9.087
77526SOL    HW134417   4.834   8.821   9.113
77526SOL    HW234418   4.730   8.712   9.095
77527SOL     OW34419   7.918   9.789  13.671
77527SOL    HW134420   8.006   9.793  13.633
77527SOL    HW234421   7.862   9.760  13.599
77528SOL     OW34422   1.813  14.219  10.031
77528SOL    HW134423   1.735  14.180   9.989
77528SOL    HW234424   1.784  14.306  10.059
77529SOL     OW34425   4.988   3.665  13.021
77529SOL    HW134426   5.066   3.679  13.073
77529SOL    HW234427   5.019   3.624  12.940
77530SOL     OW34428   5.327   5.645  11.971
77530SOL    HW134429   5.406   5.694  11.995
77530SOL    HW234430   5.310   5.671  11.880
77531SOL     OW34431   0.334   6.100   9.583
77531SOL    HW134432   0.420   6.061   9.568
77531SOL    HW234433   0.272   6.029   9.564
77532SOL     OW34434   5.611   9.573   0.719
77532SOL    HW134435   5.573   9.582   0.806
77532SOL    HW234436   5.559   9.631   0.663
77533SOL     OW34437   8.447  11.593   3.274
77533SOL    HW134438   8.485  11.639   3.350
77533SOL    HW234439   8.507  11.521   3.258
77534SOL     OW34440   1.391  14.603  12.716
77534SOL    HW134441   1.337  14.662  12.768
77534SOL    HW234442   1.473  14.597  12.765
77535SOL     OW34443   7.331   5.987   4.678
77535SOL    HW134444   7.373   6.016   4.759
77535SOL    HW234445   7.331   5.891   4.685
77536SOL     OW34446  14.522   8.833   6.326
77536SOL    HW134447  14.582   8.892   6.280
77536SOL    HW234448  14.446   8.827   6.268
77537SOL     OW34449   1.145   5.761  11.179
77537SOL    HW134450   1.217   5.825  11.178
77537SOL    HW234451   1.145   5.726  11.268
77538SOL     OW34452   0.519   4.501   4.822
77538SOL    HW134453   0.459   4.493   4.897
77538SOL    HW234454   0.518   4.414   4.782
77539SOL     OW34455  12.096   4.508  13.828
77539SOL    HW134456  12.032   4.579  13.824
77539SOL    HW234457  12.105   4.480  13.737
77540SOL     OW34458   8.754  13.739   2.238
77540SOL    HW134459   8.665  13.712   2.217
77540SOL    HW234460   8.761  13.727   2.332
77541SOL     OW34461   8.432   9.717   1.229
77541SOL    HW134462   8.496   9.774   1.186
77541SOL    HW234463   8.439   9.739   1.322
77542SOL     OW34464   3.794   9.105   0.019
77542SOL    HW134465   3.843   9.186   0.032
77542SOL    HW234466   3.790   9.094  14.797
77543SOL     OW34467   7.608   9.493  14.708
77543SOL    HW134468   7.619   9.403  14.739
77543SOL    HW234469   7.695   9.532  14.718
77544SOL     OW34470   4.209   4.334   3.930
77544SOL    HW134471   4.219   4.429   3.932
77544SOL    HW234472   4.197   4.309   4.022
77545SOL     OW34473   0.911   1.799  14.041
77545SOL    HW134474   0.872   1.778  13.956
77545SOL    HW234475   0.880   1.888  14.060
77546SOL     OW34476  11.836   1.179   5.653
77546SOL    HW134477  11.848   1.102   5.598
77546SOL    HW234478  11.758   1.222   5.617
77547SOL     OW34479   8.101   4.044   8.331
77547SOL    HW134480   8.146   3.975   8.381
77547SOL    HW234481   8.170   4.105   8.306
77548SOL     OW34482   1.141   8.565  11.195
77548SOL    HW134483   1.213   8.562  11.132
77548SOL    HW234484   1.180   8.540  11.278
77549SOL     OW34485   2.054  14.392   7.678
77549SOL    HW134486   1.973  14.364   7.722
77549SOL    HW234487   2.120  14.330   7.707
77550SOL     OW34488   7.552   7.680  12.346
77550SOL    HW134489   7.556   7.672  12.251
77550SOL    HW234490   7.495   7.608  12.375
77551SOL     OW34491   6.028   1.111   0.576
77551SOL    HW134492   6.092   1.045   0.601
77551SOL    HW234493   5.946   1.082   0.617
77552SOL     OW34494   3.390  10.631  14.130
77552SOL    HW134495   3.299  10.624  14.157
77552SOL    HW234496   3.414  10.542  14.104
77553SOL     OW34497  13.414   4.894   7.480
77553SOL    HW134498  13.409   4.837   7.402
77553SOL    HW234499  13.322   4.916   7.498
77554SOL     OW34500   5.443  13.809   5.823
77554SOL    HW134501   5.495  13.743   5.869
77554SOL    HW234502   5.403  13.761   5.750
77555SOL     OW34503   2.452   3.454   3.143
77555SOL    HW134504   2.375   3.486   3.096
77555SOL    HW234505   2.455   3.360   3.124
77556SOL     OW34506   1.725   7.663   7.871
77556SOL    HW134507   1.658   7.595   7.859
77556SOL    HW234508   1.712   7.694   7.961
77557SOL     OW34509   7.536   1.170   4.166
77557SOL    HW134510   7.568   1.106   4.102
77557SOL    HW234511   7.606   1.235   4.171
77558SOL     OW34512   6.001   3.413   2.631
77558SOL    HW134513   5.909   3.415   2.657
77558SOL    HW234514   6.035   3.333   2.671
77559SOL     OW34515  10.026  12.462   4.478
77559SOL    HW134516   9.990  12.463   4.566
77559SOL    HW234517  10.073  12.378   4.473
77560SOL     OW34518   2.341   9.169   1.002
77560SOL    HW134519   2.285   9.105   0.958
77560SOL    HW234520   2.291   9.195   1.079
77561SOL     OW34521   4.269  13.713   8.073
77561SOL    HW134522   4.282  13.738   7.981
77561SOL    HW234523   4.176  13.724   8.088
77562SOL     OW34524  13.366   5.017  12.278
77562SOL    HW134525  13.437   4.955  12.257
77562SOL    HW234526  13.286   4.967  12.262
77563SOL     OW34527   6.317  13.888   3.205
77563SOL    HW134528   6.318  13.828   3.130
77563SOL    HW234529   6.226  13.917   3.211
77564SOL     OW34530  11.247  14.127  10.339
77564SOL    HW134531  11.328  14.126  10.287
77564SOL    HW234532  11.193  14.195  10.299
77565SOL     OW34533  13.725  13.408   3.514
77565SOL    HW134534  13.694  13.328   3.470
77565SOL    HW234535  13.647  13.445   3.554
77566SOL     OW34536  10.579   9.477   9.027
77566SOL    HW134537  10.532   9.473   8.943
77566SOL    HW234538  10.635   9.554   9.019
77567SOL     OW34539   6.977   9.096   6.535
77567SOL    HW134540   7.034   9.101   6.458
77567SOL    HW234541   7.003   9.171   6.589
77568SOL     OW34542  11.853  14.303   7.276
77568SOL    HW134543  11.808  14.371   7.226
77568SOL    HW234544  11.843  14.224   7.223
77569SOL     OW34545   1.139   7.311   7.411
77569SOL    HW134546   1.102   7.287   7.326
77569SOL    HW234547   1.071   7.289   7.474
77570SOL     OW34548  11.096  11.621   0.987
77570SOL    HW134549  11.048  11.588   1.063
77570SOL    HW234550  11.142  11.544   0.953
77571SOL     OW34551  11.358  12.587   9.576
77571SOL    HW134552  11.340  12.506   9.527
77571SOL    HW234553  11.356  12.561   9.668
77572SOL     OW34554   2.708   0.934   0.997
77572SOL    HW134555   2.677   0.862   0.942
77572SOL    HW234556   2.791   0.903   1.033
77573SOL     OW34557  11.451   7.551   5.019
77573SOL    HW134558  11.508   7.605   4.965
77573SOL    HW234559  11.370   7.601   5.026
77574SOL     OW34560   6.391   9.609   1.253
77574SOL    HW134561   6.384   9.704   1.255
77574SOL    HW234562   6.482   9.591   1.277
77575SOL     OW34563  10.215   6.603   4.427
77575SOL    HW134564  10.194   6.635   4.515
77575SOL    HW234565  10.301   6.641   4.408
77576SOL     OW34566  11.138  12.517  12.569
77576SOL    HW134567  11.093  12.533  12.486
77576SOL    HW234568  11.171  12.603  12.595
77577SOL     OW34569   5.530   2.942   5.202
77577SOL    HW134570   5.439   2.938   5.173
77577SOL    HW234571   5.557   2.850   5.209
77578SOL     OW34572  14.179   4.676  13.613
77578SOL    HW134573  14.116   4.642  13.677
77578SOL    HW234574  14.136   4.663  13.528
77579SOL     OW34575  13.568   5.677  10.603
77579SOL    HW134576  13.602   5.594  10.637
77579SOL    HW234577  13.529   5.719  10.679
77580SOL     OW34578   1.547   9.899   5.379
77580SOL    HW134579   1.537   9.893   5.474
77580SOL    HW234580   1.459   9.916   5.346
77581SOL     OW34581  11.149   6.964   9.686
77581SOL    HW134582  11.192   6.945   9.769
77581SOL    HW234583  11.086   6.893   9.674
77582SOL     OW34584  11.237   2.173   1.638
77582SOL    HW134585  11.328   2.198   1.653
77582SOL    HW234586  11.243   2.088   1.593
77583SOL     OW34587   4.396   2.267  14.555
77583SOL    HW134588   4.344   2.192  14.529
77583SOL    HW234589   4.446   2.238  14.631
77584SOL     OW34590   6.411   6.106   7.376
77584SOL    HW134591   6.420   6.195   7.411
77584SOL    HW234592   6.497   6.087   7.339
77585SOL     OW34593  14.607   7.409   0.073
77585SOL    HW134594  14.550   7.441   0.143
77585SOL    HW234595  14.610   7.314   0.086
77586SOL     OW34596  11.650   0.070   9.899
77586SOL    HW134597  11.656   0.102   9.990
77586SOL    HW234598  11.719   0.004   9.892
77587SOL     OW34599  14.106   5.369  11.211
77587SOL    HW134600  14.021   5.384  11.254
77587SOL    HW234601  14.086   5.375  11.117
77588SOL     OW34602   8.283  10.266   2.805
77588SOL    HW134603   8.224  10.198   2.839
77588SOL    HW234604   8.334  10.221   2.737
77589SOL     OW34605  10.904  10.796  12.686
77589SOL    HW134606  10.968  10.796  12.615
77589SOL    HW234607  10.863  10.883  12.682
77590SOL     OW34608   6.122   1.231   2.988
77590SOL    HW134609   6.171   1.255   2.909
77590SOL    HW234610   6.060   1.303   3.000
77591SOL     OW34611   8.664   0.165   7.914
77591SOL    HW134612   8.621   0.238   7.958
77591SOL    HW234613   8.729   0.133   7.976
77592SOL     OW34614   6.401   9.000   3.817
77592SOL    HW134615   6.344   9.028   3.889
77592SOL    HW234616   6.489   9.023   3.846
77593SOL     OW34617  10.218  13.738  10.379
77593SOL    HW134618  10.203  13.733  10.284
77593SOL    HW234619  10.196  13.650  10.411
77594SOL     OW34620   1.413   5.631  12.520
77594SOL    HW134621   1.381   5.643  12.610
77594SOL    HW234622   1.375   5.705  12.472
77595SOL     OW34623   4.715  10.634   2.708
77595SOL    HW134624   4.698  10.601   2.620
77595SOL    HW234625   4.636  10.612   2.758
77596SOL     OW34626   2.872   0.291   3.836
77596SOL    HW134627   2.885   0.339   3.918
77596SOL    HW234628   2.959   0.288   3.796
77597SOL     OW34629   9.282   1.223   1.160
77597SOL    HW134630   9.269   1.268   1.077
77597SOL    HW234631   9.224   1.268   1.221
77598SOL     OW34632  10.586   2.600   3.699
77598SOL    HW134633  10.637   2.598   3.780
77598SOL    HW234634  10.637   2.547   3.638
77599SOL     OW34635  13.224  14.703   4.274
77599SOL    HW134636  13.224  14.724   4.181
77599SOL    HW234637  13.295  14.639   4.285
77600SOL     OW34638  13.271   5.037   2.881
77600SOL    HW134639  13.222   5.012   2.803
77600SOL    HW234640  13.302   5.126   2.862
77601SOL     OW34641   7.171   1.139   9.831
77601SOL    HW134642   7.166   1.047   9.808
77601SOL    HW234643   7.263   1.162   9.820
77602SOL     OW34644   6.096  11.273   5.852
77602SOL    HW134645   6.006  11.306   5.843
77602SOL    HW234646   6.149  11.351   5.868
77603SOL     OW34647   2.238   9.661  14.270
77603SOL    HW134648   2.269   9.725  14.206
77603SOL    HW234649   2.255   9.702  14.354
77604SOL     OW34650   1.555   4.079   5.142
77604SOL    HW134651   1.621   4.132   5.098
77604SOL    HW234652   1.605   4.021   5.200
77605SOL     OW34653  11.893  12.209   0.278
77605SOL    HW134654  11.829  12.257   0.225
77605SOL    HW234655  11.978  12.233   0.242
77606SOL     OW34656   7.954   9.732   1.364
77606SOL    HW134657   8.021   9.800   1.372
77606SOL    HW234658   8.001   9.657   1.327
77607SOL     OW34659   9.642   8.992   9.443
77607SOL    HW134660   9.587   8.941   9.383
77607SOL    HW234661   9.581   9.030   9.506
77608SOL     OW34662  12.590   0.904   9.553
77608SOL    HW134663  12.626   0.970   9.612
77608SOL    HW234664  12.612   0.821   9.594
77609SOL     OW34665   0.278   1.479   6.195
77609SOL    HW134666   0.352   1.519   6.149
77609SOL    HW234667   0.319   1.430   6.266
77610SOL     OW34668  14.298   7.547  11.583
77610SOL    HW134669  14.351   7.514  11.511
77610SOL    HW234670  14.209   7.521  11.562
77611SOL     OW34671   0.706   2.102  11.481
77611SOL    HW134672   0.698   2.064  11.568
77611SOL    HW234673   0.682   2.194  11.493
77612SOL     OW34674   5.841   9.799   3.642
77612SOL    HW134675   5.826   9.806   3.736
77612SOL    HW234676   5.795   9.873   3.604
77613SOL     OW34677   1.345   5.502   7.589
77613SOL    HW134678   1.439   5.519   7.583
77613SOL    HW234679   1.312   5.572   7.646
77614SOL     OW34680  13.824   3.661  12.997
77614SOL    HW134681  13.736   3.643  13.030
77614SOL    HW234682  13.809   3.697  12.909
77615SOL     OW34683   1.891  13.862  12.347
77615SOL    HW134684   1.893  13.767  12.335
77615SOL    HW234685   1.826  13.894  12.284
77616SOL     OW34686   2.563  13.988   4.594
77616SOL    HW134687   2.551  13.941   4.676
77616SOL    HW234688   2.487  13.963   4.541
77617SOL     OW34689   1.983  14.621   6.361
77617SOL    HW134690   2.013  14.677   6.289
77617SOL    HW234691   2.050  14.554   6.369
77618SOL     OW34692   9.408  10.770  10.824
77618SOL    HW134693   9.494  10.765  10.867
77618SOL    HW234694   9.346  10.745  10.892
77619SOL     OW34695   1.790   0.028   3.457
77619SOL    HW134696   1.867   0.004   3.406
77619SOL    HW234697   1.825   0.072   3.535
77620SOL     OW34698  13.402  13.836   0.198
77620SOL    HW134699  13.360  13.861   0.115
77620SOL    HW234700  13.356  13.756   0.224
77621SOL     OW34701  13.140   4.712  11.026
77621SOL    HW134702  13.095   4.760  11.096
77621SOL    HW234703  13.103   4.748  10.945
77622SOL     OW34704   2.902   4.348   5.686
77622SOL    HW134705   2.905   4.443   5.692
77622SOL    HW234706   2.985   4.319   5.723
77623SOL     OW34707  12.056  14.233   6.529
77623SOL    HW134708  12.013  14.319   6.530
77623SOL    HW234709  11.987  14.171   6.547
77624SOL     OW34710  13.100   7.082   9.363
77624SOL    HW134711  13.184   7.122   9.343
77624SOL    HW234712  13.044   7.154   9.392
77625SOL     OW34713  12.399  10.832   6.622
77625SOL    HW134714  12.449  10.763   6.579
77625SOL    HW234715  12.309  10.820   6.592
77626SOL     OW34716   1.887   0.537   2.063
77626SOL    HW134717   1.855   0.615   2.018
77626SOL    HW234718   1.953   0.569   2.124
77627SOL     OW34719   4.341   9.948   0.171
77627SOL    HW134720   4.376   9.967   0.257
77627SOL    HW234721   4.361   9.855   0.157
77628SOL     OW34722   3.206   4.436  14.322
77628SOL    HW134723   3.213   4.406  14.232
77628SOL    HW234724   3.296   4.444  14.353
77629SOL     OW34725   4.838   8.146   3.616
77629SOL    HW134726   4.845   8.241   3.612
77629SOL    HW234727   4.749   8.129   3.645
77630SOL     OW34728   0.759   8.386   4.710
77630SOL    HW134729   0.766   8.324   4.637
77630SOL    HW234730   0.681   8.438   4.689
77631SOL     OW34731   5.641   2.670   4.257
77631SOL    HW134732   5.595   2.609   4.315
77631SOL    HW234733   5.595   2.753   4.268
77632SOL     OW34734  11.787  14.459  10.140
77632SOL    HW134735  11.832  14.390  10.188
77632SOL    HW234736  11.856  14.522  10.118
77633SOL     OW34737   6.609  13.014   6.397
77633SOL    HW134738   6.565  13.099   6.403
77633SOL    HW234739   6.546  12.952   6.435
77634SOL     OW34740  10.270   9.532   6.483
77634SOL    HW134741  10.281   9.541   6.577
77634SOL    HW234742  10.350   9.488   6.454
77635SOL     OW34743   8.159   8.821   4.542
77635SOL    HW134744   8.134   8.778   4.624
77635SOL    HW234745   8.184   8.909   4.569
77636SOL     OW34746  10.794   9.670  12.200
77636SOL    HW134747  10.788   9.762  12.173
77636SOL    HW234748  10.888   9.651  12.197
77637SOL     OW34749  14.736  11.076   8.805
77637SOL    HW134750  14.827  11.088   8.833
77637SOL    HW234751  14.684  11.121   8.871
77638SOL     OW34752   3.555   3.648   2.547
77638SOL    HW134753   3.504   3.727   2.528
77638SOL    HW234754   3.610   3.637   2.469
77639SOL     OW34755   8.917  11.771  13.106
77639SOL    HW134756   8.900  11.839  13.170
77639SOL    HW234757   8.844  11.710  13.114
77640SOL     OW34758   0.692   8.384   9.138
77640SOL    HW134759   0.751   8.423   9.202
77640SOL    HW234760   0.649   8.459   9.097
77641SOL     OW34761  14.835   4.591  12.683
77641SOL    HW134762  14.774   4.540  12.630
77641SOL    HW234763   0.049   4.565  12.652
77642SOL     OW34764   8.139   2.882  12.717
77642SOL    HW134765   8.152   2.827  12.640
77642SOL    HW234766   8.081   2.831  12.774
77643SOL     OW34767   3.649   5.165   1.983
77643SOL    HW134768   3.703   5.142   1.907
77643SOL    HW234769   3.566   5.119   1.967
77644SOL     OW34770   7.263   7.216   3.157
77644SOL    HW134771   7.349   7.208   3.116
77644SOL    HW234772   7.280   7.202   3.250
77645SOL     OW34773   7.766   9.082   6.320
77645SOL    HW134774   7.792   9.149   6.384
77645SOL    HW234775   7.799   9.000   6.357
77646SOL     OW34776   6.211   5.650   7.867
77646SOL    HW134777   6.263   5.691   7.935
77646SOL    HW234778   6.261   5.572   7.843
77647SOL     OW34779   6.696   5.929   2.756
77647SOL    HW134780   6.764   5.982   2.714
77647SOL    HW234781   6.732   5.840   2.758
77648SOL     OW34782  12.368   4.530  11.754
77648SOL    HW134783  12.298   4.581  11.713
77648SOL    HW234784  12.349   4.440  11.729
77649SOL     OW34785   1.781   0.239   6.579
77649SOL    HW134786   1.831   0.162   6.605
77649SOL    HW234787   1.848   0.305   6.559
77650SOL     OW34788   2.175   0.740   0.446
77650SOL    HW134789   2.128   0.823   0.457
77650SOL    HW234790   2.167   0.720   0.353
77651SOL     OW34791  13.743  10.479   9.308
77651SOL    HW134792  13.714  10.489   9.218
77651SOL    HW234793  13.774  10.388   9.313
77652SOL     OW34794  11.975   7.577   2.814
77652SOL    HW134795  11.994   7.670   2.803
77652SOL    HW234796  11.966   7.566   2.909
77653SOL     OW34797   4.932  12.646  14.122
77653SOL    HW134798   4.964  12.691  14.044
77653SOL    HW234799   4.900  12.717  14.178
77654SOL     OW34800   5.760  10.270   3.420
77654SOL    HW134801   5.810  10.283   3.339
77654SOL    HW234802   5.704  10.347   3.426
77655SOL     OW34803   6.641   1.361  11.164
77655SOL    HW134804   6.736   1.353  11.176
77655SOL    HW234805   6.620   1.447  11.200
77656SOL     OW34806  13.494  10.196   9.413
77656SOL    HW134807  13.575  10.222   9.369
77656SOL    HW234808  13.430  10.262   9.389
77657SOL     OW34809   1.147   4.118   2.209
77657SOL    HW134810   1.065   4.165   2.193
77657SOL    HW234811   1.173   4.144   2.297
77658SOL     OW34812   6.219   1.212   2.578
77658SOL    HW134813   6.215   1.271   2.653
77658SOL    HW234814   6.307   1.173   2.584
77659SOL     OW34815   3.512   1.171  11.184
77659SOL    HW134816   3.454   1.242  11.211
77659SOL    HW234817   3.498   1.102  11.249
77660SOL     OW34818  11.590   9.406  10.359
77660SOL    HW134819  11.599   9.470  10.430
77660SOL    HW234820  11.551   9.456  10.287
77661SOL     OW34821  11.728   5.461  12.695
77661SOL    HW134822  11.751   5.441  12.786
77661SOL    HW234823  11.794   5.524  12.667
77662SOL     OW34824   3.403  14.069   1.653
77662SOL    HW134825   3.457  14.034   1.582
77662SOL    HW234826   3.338  14.000   1.671
77663SOL     OW34827   8.662   4.412  11.193
77663SOL    HW134828   8.602   4.387  11.263
77663SOL    HW234829   8.626   4.495  11.160
77664SOL     OW34830  10.460  12.100   4.683
77664SOL    HW134831  10.443  12.149   4.602
77664SOL    HW234832  10.374  12.088   4.723
77665SOL     OW34833   1.027   1.368  10.967
77665SOL    HW134834   1.018   1.463  10.972
77665SOL    HW234835   1.021   1.348  10.874
77666SOL     OW34836   2.557  12.816   9.550
77666SOL    HW134837   2.480  12.837   9.603
77666SOL    HW234838   2.630  12.813   9.612
77667SOL     OW34839  13.278   2.309   3.711
77667SOL    HW134840  13.263   2.403   3.697
77667SOL    HW234841  13.373   2.300   3.712
77668SOL     OW34842  10.865   5.882   8.393
77668SOL    HW134843  10.936   5.908   8.452
77668SOL    HW234844  10.804   5.833   8.448
77669SOL     OW34845   2.610   1.804  13.205
77669SOL    HW134846   2.647   1.716  13.199
77669SOL    HW234847   2.517   1.793  13.183
77670SOL     OW34848  12.717  11.877   9.499
77670SOL    HW134849  12.623  11.858   9.502
77670SOL    HW234850  12.734  11.899   9.408
77671SOL     OW34851  13.537  13.349  11.824
77671SOL    HW134852  13.595  13.319  11.894
77671SOL    HW234853  13.504  13.269  11.784
77672SOL     OW34854  13.314   3.994  11.006
77672SOL    HW134855  13.396   4.035  10.978
77672SOL    HW234856  13.250   4.065  11.004
77673SOL     OW34857  13.943  10.558  13.745
77673SOL    HW134858  13.966  10.474  13.707
77673SOL    HW234859  13.986  10.559  13.831
77674SOL     OW34860   6.054   8.532  10.334
77674SOL    HW134861   6.045   8.585  10.255
77674SOL    HW234862   6.052   8.442  10.302
77675SOL     OW34863   7.739   2.060   1.430
77675SOL    HW134864   7.663   2.075   1.373
77675SOL    HW234865   7.729   1.969   1.459
77676SOL     OW34866   5.934   2.620   3.686
77676SOL    HW134867   5.966   2.540   3.645
77676SOL    HW234868   5.979   2.690   3.640
77677SOL     OW34869   5.418   0.719  10.705
77677SOL    HW134870   5.499   0.743  10.749
77677SOL    HW234871   5.413   0.624  10.713
77678SOL     OW34872  10.911   3.065  13.729
77678SOL    HW134873  10.816   3.055  13.728
77678SOL    HW234874  10.933   3.074  13.822
77679SOL     OW34875   0.250   5.808   2.634
77679SOL    HW134876   0.167   5.763   2.650
77679SOL    HW234877   0.306   5.784   2.707
77680SOL     OW34878   7.678   9.943   8.698
77680SOL    HW134879   7.587   9.935   8.729
77680SOL    HW234880   7.725   9.983   8.771
77681SOL     OW34881   3.019   2.304  11.481
77681SOL    HW134882   2.945   2.354  11.445
77681SOL    HW234883   3.056   2.361  11.548
77682SOL     OW34884  14.787  12.870   3.594
77682SOL    HW134885  14.820  12.821   3.519
77682SOL    HW234886  14.769  12.957   3.560
77683SOL     OW34887   1.493   4.957   7.063
77683SOL    HW134888   1.573   4.913   7.034
77683SOL    HW234889   1.496   4.951   7.159
77684SOL     OW34890   5.785  11.284   5.780
77684SOL    HW134891   5.751  11.312   5.695
77684SOL    HW234892   5.744  11.199   5.795
77685SOL     OW34893   5.029   1.128   8.765
77685SOL    HW134894   5.038   1.170   8.680
77685SOL    HW234895   5.054   1.195   8.828
77686SOL     OW34896   0.338   1.707  11.701
77686SOL    HW134897   0.318   1.709  11.795
77686SOL    HW234898   0.409   1.644  11.693
77687SOL     OW34899   7.701   9.874   9.717
77687SOL    HW134900   7.731   9.878   9.807
77687SOL    HW234901   7.755   9.806   9.676
77688SOL     OW34902   8.464   9.061  12.654
77688SOL    HW134903   8.370   9.046  12.644
77688SOL    HW234904   8.485   9.124  12.584
77689SOL     OW34905   8.901   4.042   2.459
77689SOL    HW134906   8.867   4.006   2.540
77689SOL    HW234907   8.888   3.973   2.394
77690SOL     OW34908   0.036  12.319   3.551
77690SOL    HW134909   0.018  12.341   3.460
77690SOL    HW234910   0.039  12.224   3.553
77691SOL     OW34911  14.734  11.814  11.911
77691SOL    HW134912  14.652  11.774  11.882
77691SOL    HW234913  14.795  11.741  11.917
77692SOL     OW34914  11.445   2.994   7.720
77692SOL    HW134915  11.416   3.012   7.809
77692SOL    HW234916  11.521   3.051   7.708
77693SOL     OW34917   5.541  12.739  11.591
77693SOL    HW134918   5.621  12.787  11.569
77693SOL    HW234919   5.530  12.676  11.520
77694SOL     OW34920   9.365  12.738   4.286
77694SOL    HW134921   9.427  12.782   4.228
77694SOL    HW234922   9.333  12.807   4.344
77695SOL     OW34923  11.930   1.487  11.806
77695SOL    HW134924  11.894   1.546  11.739
77695SOL    HW234925  11.995   1.435  11.759
77696SOL     OW34926  11.398   6.210   5.325
77696SOL    HW134927  11.432   6.226   5.238
77696SOL    HW234928  11.435   6.125   5.350
77697SOL     OW34929   7.128   5.948   6.253
77697SOL    HW134930   7.165   6.028   6.216
77697SOL    HW234931   7.101   5.972   6.341
77698SOL     OW34932   5.515  12.408   3.458
77698SOL    HW134933   5.561  12.409   3.374
77698SOL    HW234934   5.556  12.336   3.506
77699SOL     OW34935   4.536  13.632   9.709
77699SOL    HW134936   4.523  13.554   9.762
77699SOL    HW234937   4.452  13.647   9.666
77700SOL     OW34938   2.709   7.355  13.531
77700SOL    HW134939   2.762   7.434  13.528
77700SOL    HW234940   2.720   7.321  13.620
77701SOL     OW34941   0.990   8.675   4.835
77701SOL    HW134942   0.984   8.664   4.741
77701SOL    HW234943   0.926   8.613   4.871
77702SOL     OW34944   2.673  14.750  12.046
77702SOL    HW134945   2.652  14.832  12.089
77702SOL    HW234946   2.708  14.694  12.115
77703SOL     OW34947   3.749  14.045   7.490
77703SOL    HW134948   3.657  14.031   7.466
77703SOL    HW234949   3.782  14.105   7.424
77704SOL     OW34950   1.249   4.716   2.462
77704SOL    HW134951   1.218   4.699   2.551
77704SOL    HW234952   1.178   4.765   2.421
77705SOL     OW34953   3.880  14.130   9.519
77705SOL    HW134954   3.930  14.073   9.461
77705SOL    HW234955   3.890  14.090   9.606
77706SOL     OW34956   4.155  14.750   2.705
77706SOL    HW134957   4.124  14.840   2.713
77706SOL    HW234958   4.179  14.725   2.795
77707SOL     OW34959  13.723  11.049   0.117
77707SOL    HW134960  13.816  11.068   0.112
77707SOL    HW234961  13.704  10.996   0.040
77708SOL     OW34962   4.175   0.392  10.157
77708SOL    HW134963   4.136   0.305  10.144
77708SOL    HW234964   4.260   0.387  10.113
77709SOL     OW34965   4.690   9.646   4.459
77709SOL    HW134966   4.749   9.697   4.404
77709SOL    HW234967   4.731   9.559   4.463
77710SOL     OW34968  12.602   0.965   6.865
77710SOL    HW134969  12.594   1.021   6.943
77710SOL    HW234970  12.523   0.912   6.865
77711SOL     OW34971   3.128   7.480   6.507
77711SOL    HW134972   3.195   7.435   6.456
77711SOL    HW234973   3.145   7.453   6.598
77712SOL     OW34974  10.652   4.184   1.390
77712SOL    HW134975  10.663   4.276   1.416
77712SOL    HW234976  10.661   4.186   1.295
77713SOL     OW34977  13.578   3.799   2.786
77713SOL    HW134978  13.543   3.880   2.747
77713SOL    HW234979  13.673   3.813   2.788
77714SOL     OW34980  11.383  11.259   2.163
77714SOL    HW134981  11.289  11.245   2.151
77714SOL    HW234982  11.422  11.172   2.152
77715SOL     OW34983  12.862   5.323  10.403
77715SOL    HW134984  12.771   5.297  10.417
77715SOL    HW234985  12.904   5.308  10.488
77716SOL     OW34986   8.171   2.405   2.541
77716SOL    HW134987   8.214   2.451   2.614
77716SOL    HW234988   8.194   2.457   2.464
77717SOL     OW34989   6.137   9.050   7.777
77717SOL    HW134990   6.128   9.127   7.722
77717SOL    HW234991   6.156   8.978   7.717
77718SOL     OW34992   3.897   2.861   8.450
77718SOL    HW134993   3.905   2.800   8.524
77718SOL    HW234994   3.874   2.806   8.376
77719SOL     OW34995  10.629   7.607   0.451
77719SOL    HW134996  10.636   7.701   0.468
77719SOL    HW234997  10.663   7.566   0.530
77720SOL     OW34998   0.998   3.544   4.363
77720SOL    HW134999   0.985   3.449   4.363
77720SOL    HW235000   0.950   3.575   4.286
77721SOL     OW35001   6.855   3.639   2.938
77721SOL    HW135002   6.860   3.573   2.868
77721SOL    HW235003   6.941   3.635   2.980
77722SOL     OW35004   4.322  13.787   7.819
77722SOL    HW135005   4.291  13.877   7.820
77722SOL    HW235006   4.401  13.789   7.765
77723SOL     OW35007   7.261  10.634  12.133
77723SOL    HW135008   7.275  10.547  12.169
77723SOL    HW235009   7.185  10.624  12.075
77724SOL     OW35010  12.202   0.043   2.321
77724SOL    HW135011  12.235   0.132   2.315
77724SOL    HW235012  12.196   0.013   2.230
77725SOL     OW35013   3.655   9.861   3.957
77725SOL    HW135014   3.619   9.949   3.965
77725SOL    HW235015   3.706   9.848   4.038
77726SOL     OW35016  10.941  13.425   6.222
77726SOL    HW135017  11.032  13.397   6.218
77726SOL    HW235018  10.922  13.458   6.134
77727SOL     OW35019  13.041  10.753  11.871
77727SOL    HW135020  12.971  10.751  11.936
77727SOL    HW235021  13.095  10.676  11.891
77728SOL     OW35022   3.456   5.288   2.552
77728SOL    HW135023   3.513   5.338   2.494
77728SOL    HW235024   3.478   5.319   2.640
77729SOL     OW35025  12.603  14.275   0.435
77729SOL    HW135026  12.578  14.204   0.375
77729SOL    HW235027  12.691  14.252   0.464
77730SOL     OW35028  12.288   8.715  13.554
77730SOL    HW135029  12.205   8.759  13.573
77730SOL    HW235030  12.340   8.727  13.633
77731SOL     OW35031   3.541  13.443   6.148
77731SOL    HW135032   3.627  13.417   6.117
77731SOL    HW235033   3.528  13.393   6.229
77732SOL     OW35034   7.124  13.927   4.294
77732SOL    HW135035   7.118  13.965   4.206
77732SOL    HW235036   7.201  13.969   4.332
77733SOL     OW35037  14.557   8.973  12.208
77733SOL    HW135038  14.617   8.981  12.134
77733SOL    HW235039  14.518   9.060  12.217
77734SOL     OW35040   6.741   2.104  13.796
77734SOL    HW135041   6.666   2.159  13.775
77734SOL    HW235042   6.813   2.166  13.811
77735SOL     OW35043  12.942   3.983  14.565
77735SOL    HW135044  12.853   4.018  14.569
77735SOL    HW235045  12.944   3.931  14.485
77736SOL     OW35046   3.802   8.508   9.173
77736SOL    HW135047   3.852   8.453   9.234
77736SOL    HW235048   3.857   8.587   9.162
77737SOL     OW35049   8.054   1.301  14.309
77737SOL    HW135050   8.076   1.259  14.226
77737SOL    HW235051   8.028   1.390  14.285
77738SOL     OW35052   1.213   4.935  11.095
77738SOL    HW135053   1.183   5.002  11.035
77738SOL    HW235054   1.306   4.925  11.076
77739SOL     OW35055   0.558  12.529  12.535
77739SOL    HW135056   0.496  12.546  12.606
77739SOL    HW235057   0.642  12.560  12.568
77740SOL     OW35058   8.266   9.138   5.539
77740SOL    HW135059   8.319   9.126   5.459
77740SOL    HW235060   8.176   9.131   5.508
77741SOL     OW35061   2.520  11.547  14.340
77741SOL    HW135062   2.588  11.537  14.407
77741SOL    HW235063   2.472  11.625  14.366
77742SOL     OW35064  14.838  14.194   4.676
77742SOL    HW135065   0.052  14.208   4.714
77742SOL    HW235066  14.830  14.262   4.610
77743SOL     OW35067   4.865   0.613   9.227
77743SOL    HW135068   4.917   0.691   9.205
77743SOL    HW235069   4.883   0.552   9.156
77744SOL     OW35070  13.079  12.186   8.705
77744SOL    HW135071  13.086  12.137   8.623
77744SOL    HW235072  12.997  12.155   8.745
77745SOL     OW35073   3.979   9.697   7.760
77745SOL    HW135074   4.016   9.613   7.734
77745SOL    HW235075   3.974   9.693   7.855
77746SOL     OW35076   9.300   2.882  13.099
77746SOL    HW135077   9.277   2.838  13.018
77746SOL    HW235078   9.393   2.866  13.110
77747SOL     OW35079   2.055   4.892   8.438
77747SOL    HW135080   2.141   4.882   8.396
77747SOL    HW235081   2.073   4.881   8.531
77748SOL     OW35082   5.346   2.348   7.325
77748SOL    HW135083   5.306   2.269   7.288
77748SOL    HW235084   5.409   2.377   7.260
77749SOL     OW35085   0.515   5.878   6.760
77749SOL    HW135086   0.561   5.795   6.772
77749SOL    HW235087   0.575   5.931   6.708
77750SOL     OW35088   2.518   0.809  12.238
77750SOL    HW135089   2.428   0.817  12.269
77750SOL    HW235090   2.571   0.838  12.312
77751SOL     OW35091   9.239   6.078  10.387
77751SOL    HW135092   9.278   6.140  10.449
77751SOL    HW235093   9.167   6.127  10.347
77752SOL     OW35094  12.618  14.480  11.804
77752SOL    HW135095  12.569  14.539  11.861
77752SOL    HW235096  12.642  14.407  11.861
77753SOL     OW35097   0.538   6.528  11.508
77753SOL    HW135098   0.629   6.540  11.536
77753SOL    HW235099   0.528   6.433  11.498
77754SOL     OW35100   7.998   4.934  13.782
77754SOL    HW135101   7.917   4.984  13.792
77754SOL    HW235102   8.043   4.944  13.865
77755SOL     OW35103  11.182   0.495   3.494
77755SOL    HW135104  11.123   0.438   3.445
77755SOL    HW235105  11.136   0.513   3.576
77756SOL     OW35106   7.638   7.621   3.748
77756SOL    HW135107   7.662   7.654   3.834
77756SOL    HW235108   7.639   7.526   3.758
77757SOL     OW35109   2.802   3.426   4.141
77757SOL    HW135110   2.825   3.385   4.058
77757SOL    HW235111   2.842   3.369   4.207
77758SOL     OW35112   2.425   7.110   2.624
77758SOL    HW135113   2.504   7.134   2.576
77758SOL    HW235114   2.358   7.101   2.557
77759SOL     OW35115  11.031   1.586   3.742
77759SOL    HW135116  11.104   1.577   3.680
77759SOL    HW235117  10.988   1.667   3.716
77760SOL     OW35118  10.025   3.772   4.075
77760SOL    HW135119   9.948   3.755   4.129
77760SOL    HW235120   9.990   3.798   3.990
77761SOL     OW35121   0.584   6.685   3.174
77761SOL    HW135122   0.535   6.764   3.150
77761SOL    HW235123   0.522   6.632   3.224
77762SOL     OW35124   8.137   9.728   5.342
77762SOL    HW135125   8.075   9.788   5.383
77762SOL    HW235126   8.085   9.679   5.278
77763SOL     OW35127   4.943  11.455  13.060
77763SOL    HW135128   4.968  11.536  13.015
77763SOL    HW235129   4.902  11.486  13.142
77764SOL     OW35130   5.251   3.334   7.942
77764SOL    HW135131   5.194   3.366   8.012
77764SOL    HW235132   5.271   3.244   7.967
77765SOL     OW35133  10.162  11.200   0.219
77765SOL    HW135134  10.181  11.159   0.303
77765SOL    HW235135  10.242  11.246   0.196
77766SOL     OW35136  10.910   3.340  11.298
77766SOL    HW135137  10.996   3.360  11.337
77766SOL    HW235138  10.894   3.411  11.236
77767SOL     OW35139   0.225   2.951  11.494
77767SOL    HW135140   0.275   2.880  11.533
77767SOL    HW235141   0.266   2.965  11.408
77768SOL     OW35142   1.031   3.127  11.255
77768SOL    HW135143   0.992   3.112  11.341
77768SOL    HW235144   0.988   3.206  11.222
77769SOL     OW35145   8.219   5.052   4.538
77769SOL    HW135146   8.292   5.094   4.584
77769SOL    HW235147   8.178   4.997   4.605
77770SOL     OW35148   0.142   7.142   9.833
77770SOL    HW135149   0.068   7.201   9.847
77770SOL    HW235150   0.205   7.167   9.901
77771SOL     OW35151  13.234   4.554   3.561
77771SOL    HW135152  13.314   4.576   3.513
77771SOL    HW235153  13.238   4.460   3.573
77772SOL     OW35154   6.458   5.013   6.779
77772SOL    HW135155   6.419   5.010   6.692
77772SOL    HW235156   6.458   4.921   6.808
77773SOL     OW35157   1.646  10.337   6.107
77773SOL    HW135158   1.733  10.363   6.137
77773SOL    HW235159   1.607  10.418   6.075
77774SOL     OW35160   5.885  13.821   5.694
77774SOL    HW135161   5.803  13.804   5.648
77774SOL    HW235162   5.859  13.834   5.785
77775SOL     OW35163  10.961  10.019   2.614
77775SOL    HW135164  11.021   9.956   2.575
77775SOL    HW235165  11.018  10.077   2.666
77776SOL     OW35166   1.740   0.824   8.359
77776SOL    HW135167   1.754   0.784   8.445
77776SOL    HW235168   1.824   0.865   8.338
77777SOL     OW35169   4.105   3.887  12.018
77777SOL    HW135170   4.059   3.848  11.944
77777SOL    HW235171   4.094   3.982  12.006
77778SOL     OW35172   1.215   8.707  14.001
77778SOL    HW135173   1.278   8.753  13.946
77778SOL    HW235174   1.141   8.768  14.008
77779SOL     OW35175   9.289   7.488   3.378
77779SOL    HW135176   9.274   7.583   3.381
77779SOL    HW235177   9.369   7.479   3.326
77780SOL     OW35178  12.192  14.336   8.512
77780SOL    HW135179  12.209  14.394   8.587
77780SOL    HW235180  12.097  14.325   8.512
77781SOL     OW35181   3.053   6.976  10.997
77781SOL    HW135182   2.987   6.929  10.945
77781SOL    HW235183   3.123   6.995  10.935
77782SOL     OW35184   8.420   0.408   0.638
77782SOL    HW135185   8.438   0.326   0.685
77782SOL    HW235186   8.336   0.392   0.595
77783SOL     OW35187   3.162   3.066   4.586
77783SOL    HW135188   3.231   3.031   4.529
77783SOL    HW235189   3.191   3.155   4.607
77784SOL     OW35190   1.368   6.840   0.963
77784SOL    HW135191   1.367   6.744   0.963
77784SOL    HW235192   1.461   6.863   0.960
77785SOL     OW35193  10.407   0.021   0.554
77785SOL    HW135194  10.324   0.068   0.551
77785SOL    HW235195  10.472   0.088   0.575
77786SOL     OW35196   8.830  10.489   1.274
77786SOL    HW135197   8.910  10.514   1.320
77786SOL    HW235198   8.759  10.515   1.332
77787SOL     OW35199   4.402   6.579   9.064
77787SOL    HW135200   4.454   6.629   9.127
77787SOL    HW235201   4.312   6.590   9.093
77788SOL     OW35202  13.343   3.714   5.756
77788SOL    HW135203  13.419   3.657   5.738
77788SOL    HW235204  13.374   3.774   5.824
77789SOL     OW35205  10.558   7.094   8.805
77789SOL    HW135206  10.511   7.016   8.778
77789SOL    HW235207  10.581   7.137   8.723
77790SOL     OW35208  11.546   3.635   4.695
77790SOL    HW135209  11.639   3.656   4.705
77790SOL    HW235210  11.501   3.706   4.740
77791SOL     OW35211   6.899   9.591   2.507
77791SOL    HW135212   6.878   9.540   2.585
77791SOL    HW235213   6.991   9.615   2.518
77792SOL     OW35214   4.024   0.085   5.954
77792SOL    HW135215   3.977   0.123   6.028
77792SOL    HW235216   4.053  14.872   5.986
77793SOL     OW35217   9.108  10.806   1.813
77793SOL    HW135218   9.074  10.872   1.872
77793SOL    HW235219   9.116  10.851   1.728
77794SOL     OW35220   8.968   2.994  11.297
77794SOL    HW135221   9.044   3.037  11.338
77794SOL    HW235222   8.894   3.022  11.351
77795SOL     OW35223   4.900   0.798  11.634
77795SOL    HW135224   4.909   0.733  11.564
77795SOL    HW235225   4.990   0.823  11.655
77796SOL     OW35226   1.934  10.380   4.343
77796SOL    HW135227   1.914  10.404   4.434
77796SOL    HW235228   1.903  10.290   4.335
77797SOL     OW35229   3.914  10.060   7.324
77797SOL    HW135230   3.994  10.009   7.334
77797SOL    HW235231   3.919  10.125   7.394
77798SOL     OW35232  13.414   7.127   1.711
77798SOL    HW135233  13.336   7.126   1.656
77798SOL    HW235234  13.454   7.041   1.699
77799SOL     OW35235   5.270  12.032  13.670
77799SOL    HW135236   5.206  12.100  13.648
77799SOL    HW235237   5.307  12.061  13.754
77800SOL     OW35238   0.747   3.232   7.210
77800SOL    HW135239   0.740   3.215   7.304
77800SOL    HW235240   0.734   3.327   7.202
77801SOL     OW35241  12.863   6.450   3.020
77801SOL    HW135242  12.957   6.452   3.006
77801SOL    HW235243  12.836   6.542   3.018
77802SOL     OW35244   3.704   2.265  13.452
77802SOL    HW135245   3.764   2.292  13.383
77802SOL    HW235246   3.709   2.335  13.518
77803SOL     OW35247   5.739   5.023   2.641
77803SOL    HW135248   5.745   4.969   2.562
77803SOL    HW235249   5.777   5.107   2.616
77804SOL     OW35250   0.429   5.780   4.267
77804SOL    HW135251   0.449   5.821   4.351
77804SOL    HW235252   0.506   5.796   4.213
77805SOL     OW35253   4.282   5.648  10.681
77805SOL    HW135254   4.313   5.732  10.714
77805SOL    HW235255   4.202   5.669  10.632
77806SOL     OW35256   5.724  10.141  13.259
77806SOL    HW135257   5.671  10.167  13.334
77806SOL    HW235258   5.684  10.186  13.185
77807SOL     OW35259  10.084   1.699   2.146
77807SOL    HW135260  10.106   1.781   2.191
77807SOL    HW235261   9.991   1.708   2.125
77808SOL     OW35262   2.900  10.732   8.300
77808SOL    HW135263   2.826  10.739   8.361
77808SOL    HW235264   2.915  10.638   8.291
77809SOL     OW35265   4.006   5.831   7.745
77809SOL    HW135266   3.986   5.742   7.774
77809SOL    HW235267   3.924   5.878   7.752
77810SOL     OW35268   3.269   8.814   5.960
77810SOL    HW135269   3.201   8.804   6.027
77810SOL    HW235270   3.295   8.725   5.938
77811SOL     OW35271   3.811   4.048  12.818
77811SOL    HW135272   3.797   4.068  12.725
77811SOL    HW235273   3.906   4.049  12.828
77812SOL     OW35274   0.501   2.735   3.729
77812SOL    HW135275   0.442   2.806   3.755
77812SOL    HW235276   0.462   2.699   3.650
77813SOL     OW35277  10.023   8.202   5.050
77813SOL    HW135278  10.088   8.168   5.111
77813SOL    HW235279  10.073   8.232   4.975
77814SOL     OW35280  12.184   1.480  12.204
77814SOL    HW135281  12.210   1.551  12.262
77814SOL    HW235282  12.115   1.517  12.149
77815SOL     OW35283  12.696   7.749   2.192
77815SOL    HW135284  12.694   7.832   2.144
77815SOL    HW235285  12.671   7.683   2.128
77816SOL     OW35286   7.621  10.769   2.661
77816SOL    HW135287   7.553  10.802   2.601
77816SOL    HW235288   7.597  10.806   2.746
77817SOL     OW35289   1.027   6.396   4.686
77817SOL    HW135290   0.957   6.345   4.646
77817SOL    HW235291   1.036   6.359   4.774
77818SOL     OW35292  11.140   7.039   0.513
77818SOL    HW135293  11.211   7.019   0.575
77818SOL    HW235294  11.128   7.133   0.521
77819SOL     OW35295   9.230  13.524  12.500
77819SOL    HW135296   9.304  13.463  12.507
77819SOL    HW235297   9.155  13.468  12.482
77820SOL     OW35298   9.062   6.543  13.042
77820SOL    HW135299   9.085   6.473  13.103
77820SOL    HW235300   9.039   6.498  12.960
77821SOL     OW35301  14.308  11.167   0.343
77821SOL    HW135302  14.264  11.151   0.259
77821SOL    HW235303  14.376  11.231   0.322
77822SOL     OW35304   1.080   9.003  10.433
77822SOL    HW135305   1.146   8.943  10.398
77822SOL    HW235306   1.108   9.089  10.400
77823SOL     OW35307   9.745   3.858  11.408
77823SOL    HW135308   9.713   3.910  11.334
77823SOL    HW235309   9.689   3.882  11.481
77824SOL     OW35310  12.075  13.323   5.989
77824SOL    HW135311  12.132  13.400   5.978
77824SOL    HW235312  12.078  13.304   6.083
77825SOL     OW35313  12.556   2.550   7.684
77825SOL    HW135314  12.507   2.470   7.705
77825SOL    HW235315  12.505   2.591   7.614
77826SOL     OW35316  11.353   1.657  10.177
77826SOL    HW135317  11.373   1.621  10.263
77826SOL    HW235318  11.437   1.659  10.131
77827SOL     OW35319   1.611   7.293  14.483
77827SOL    HW135320   1.670   7.249  14.543
77827SOL    HW235321   1.555   7.347  14.539
77828SOL     OW35322   4.587  10.354   0.471
77828SOL    HW135323   4.563  10.286   0.533
77828SOL    HW235324   4.571  10.436   0.518
77829SOL     OW35325  10.398   4.902   0.906
77829SOL    HW135326  10.366   4.852   0.830
77829SOL    HW235327  10.340   4.876   0.978
77830SOL     OW35328   6.267   7.227   2.545
77830SOL    HW135329   6.296   7.234   2.454
77830SOL    HW235330   6.308   7.147   2.577
77831SOL     OW35331   2.993   6.351  12.980
77831SOL    HW135332   2.912   6.302  12.964
77831SOL    HW235333   3.063   6.289  12.956
77832SOL     OW35334  12.052   4.560   5.774
77832SOL    HW135335  12.069   4.642   5.821
77832SOL    HW235336  11.957   4.555   5.768
77833SOL     OW35337  10.259  11.152   6.343
77833SOL    HW135338  10.177  11.196   6.323
77833SOL    HW235339  10.251  11.127   6.435
77834SOL     OW35340   2.185   4.238   1.255
77834SOL    HW135341   2.250   4.217   1.188
77834SOL    HW235342   2.231   4.294   1.317
77835SOL     OW35343   5.523   1.844   6.233
77835SOL    HW135344   5.468   1.767   6.218
77835SOL    HW235345   5.503   1.870   6.323
77836SOL     OW35346   8.410  11.092   8.234
77836SOL    HW135347   8.382  11.016   8.183
77836SOL    HW235348   8.490  11.122   8.191
77837SOL     OW35349   3.379  14.322   7.324
77837SOL    HW135350   3.286  14.340   7.308
77837SOL    HW235351   3.400  14.250   7.265
77838SOL     OW35352  12.140  10.319   7.650
77838SOL    HW135353  12.150  10.304   7.744
77838SOL    HW235354  12.045  10.329   7.637
77839SOL     OW35355  12.066   2.909  13.145
77839SOL    HW135356  12.096   2.871  13.228
77839SOL    HW235357  11.984   2.864  13.126
77840SOL     OW35358   0.073   7.669  11.587
77840SOL    HW135359   0.052   7.743  11.529
77840SOL    HW235360   0.127   7.707  11.656
77841SOL     OW35361  10.306  12.159  11.605
77841SOL    HW135362  10.328  12.226  11.540
77841SOL    HW235363  10.376  12.094  11.596
77842SOL     OW35364   4.767   2.877   5.094
77842SOL    HW135365   4.766   2.917   5.007
77842SOL    HW235366   4.739   2.786   5.079
77843SOL     OW35367  10.924  13.207   8.889
77843SOL    HW135368  10.915  13.266   8.964
77843SOL    HW235369  10.882  13.254   8.816
77844SOL     OW35370   9.826  11.468   5.530
77844SOL    HW135371   9.771  11.456   5.608
77844SOL    HW235372   9.885  11.539   5.553
77845SOL     OW35373   1.903   6.085   6.212
77845SOL    HW135374   1.993   6.066   6.240
77845SOL    HW235375   1.851   6.072   6.292
77846SOL     OW35376   5.034   8.177   5.133
77846SOL    HW135377   5.017   8.188   5.226
77846SOL    HW235378   4.947   8.172   5.093
77847SOL     OW35379  11.657  13.988  12.403
77847SOL    HW135380  11.676  13.906  12.448
77847SOL    HW235381  11.684  14.056  12.464
77848SOL     OW35382   9.669  10.012   2.153
77848SOL    HW135383   9.629   9.950   2.214
77848SOL    HW235384   9.737  10.056   2.205
77849SOL     OW35385   0.793   4.329  12.107
77849SOL    HW135386   0.758   4.339  12.195
77849SOL    HW235387   0.780   4.414  12.065
77850SOL     OW35388   0.109   9.756  11.321
77850SOL    HW135389   0.138   9.797  11.403
77850SOL    HW235390   0.171   9.787  11.255
77851SOL     OW35391  10.207   6.413   6.558
77851SOL    HW135392  10.153   6.439   6.483
77851SOL    HW235393  10.258   6.339   6.525
77852SOL     OW35394   6.375   1.146  13.192
77852SOL    HW135395   6.464   1.126  13.220
77852SOL    HW235396   6.342   1.206  13.259
77853SOL     OW35397   8.678  10.462   3.880
77853SOL    HW135398   8.664  10.545   3.926
77853SOL    HW235399   8.662  10.484   3.788
77854SOL     OW35400  11.640   9.295   9.328
77854SOL    HW135401  11.584   9.236   9.277
77854SOL    HW235402  11.719   9.304   9.275
77855SOL     OW35403   7.605   1.734   2.707
77855SOL    HW135404   7.648   1.654   2.675
77855SOL    HW235405   7.675   1.784   2.749
77856SOL     OW35406   0.485   0.879   7.127
77856SOL    HW135407   0.466   0.955   7.073
77856SOL    HW235408   0.580   0.880   7.138
77857SOL     OW35409   9.962  12.833   6.164
77857SOL    HW135410  10.017  12.902   6.200
77857SOL    HW235411   9.873  12.865   6.172
77858SOL     OW35412   1.178   3.364   7.991
77858SOL    HW135413   1.128   3.343   7.912
77858SOL    HW235414   1.144   3.449   8.019
77859SOL     OW35415   5.165   1.651  14.440
77859SOL    HW135416   5.140   1.620  14.527
77859SOL    HW235417   5.084   1.649  14.389
77860SOL     OW35418  10.676   9.671   7.976
77860SOL    HW135419  10.712   9.758   7.992
77860SOL    HW235420  10.709   9.647   7.889
77861SOL     OW35421   0.127   8.778   5.518
77861SOL    HW135422   0.038   8.743   5.527
77861SOL    HW235423   0.120   8.870   5.541
77862SOL     OW35424  12.377  13.754   9.859
77862SOL    HW135425  12.307  13.717   9.805
77862SOL    HW235426  12.450  13.767   9.799
77863SOL     OW35427  12.499  12.579   4.733
77863SOL    HW135428  12.487  12.549   4.643
77863SOL    HW235429  12.529  12.501   4.780
77864SOL     OW35430   3.536   1.360   9.861
77864SOL    HW135431   3.487   1.370   9.779
77864SOL    HW235432   3.604   1.296   9.840
77865SOL     OW35433   4.828   8.072   6.118
77865SOL    HW135434   4.797   7.996   6.067
77865SOL    HW235435   4.883   8.033   6.186
77866SOL     OW35436  10.368   0.104   8.004
77866SOL    HW135437  10.435   0.168   8.030
77866SOL    HW235438  10.308   0.154   7.949
77867SOL     OW35439  14.134   3.975  14.766
77867SOL    HW135440  14.212   4.024  14.794
77867SOL    HW235441  14.062   4.037  14.775
77868SOL     OW35442   5.732   4.326   9.320
77868SOL    HW135443   5.793   4.342   9.392
77868SOL    HW235444   5.649   4.307   9.362
77869SOL     OW35445   4.189   0.709   8.167
77869SOL    HW135446   4.100   0.694   8.197
77869SOL    HW235447   4.221   0.623   8.141
77870SOL     OW35448   7.629  14.707  10.442
77870SOL    HW135449   7.648  14.753  10.360
77870SOL    HW235450   7.577  14.631  10.414
77871SOL     OW35451   0.556   7.935   5.618
77871SOL    HW135452   0.639   7.955   5.662
77871SOL    HW235453   0.506   8.016   5.624
77872SOL     OW35454   8.359   1.437  12.981
77872SOL    HW135455   8.385   1.345  12.971
77872SOL    HW235456   8.266   1.434  13.003
77873SOL     OW35457  14.148   5.314   0.750
77873SOL    HW135458  14.176   5.242   0.693
77873SOL    HW235459  14.217   5.321   0.816
77874SOL     OW35460   8.748   3.780   6.023
77874SOL    HW135461   8.678   3.840   6.051
77874SOL    HW235462   8.771   3.732   6.103
77875SOL     OW35463   0.461   3.487   9.426
77875SOL    HW135464   0.431   3.411   9.476
77875SOL    HW235465   0.499   3.545   9.491
77876SOL     OW35466  11.259   5.895   6.992
77876SOL    HW135467  11.343   5.905   7.036
77876SOL    HW235468  11.213   5.977   7.009
77877SOL     OW35469  13.778  11.019   1.607
77877SOL    HW135470  13.865  10.979   1.613
77877SOL    HW235471  13.788  11.103   1.654
77878SOL     OW35472  12.397   4.968   1.100
77878SOL    HW135473  12.415   4.982   1.007
77878SOL    HW235474  12.437   5.043   1.144
77879SOL     OW35475  14.264   8.864  10.696
77879SOL    HW135476  14.173   8.893  10.690
77879SOL    HW235477  14.258   8.771  10.717
77880SOL     OW35478  12.110  12.237   6.306
77880SOL    HW135479  12.148  12.325   6.308
77880SOL    HW235480  12.064  12.232   6.222
77881SOL     OW35481  10.415   0.981   8.509
77881SOL    HW135482  10.409   0.995   8.603
77881SOL    HW235483  10.326   0.961   8.482
77882SOL     OW35484   9.394   0.966   4.803
77882SOL    HW135485   9.341   1.002   4.732
77882SOL    HW235486   9.341   0.977   4.882
77883SOL     OW35487  11.743   7.043   7.924
77883SOL    HW135488  11.655   7.030   7.888
77883SOL    HW235489  11.736   7.124   7.974
77884SOL     OW35490  10.459  12.328   6.602
77884SOL    HW135491  10.524  12.378   6.552
77884SOL    HW235492  10.376  12.343   6.555
77885SOL     OW35493   5.027  11.825  11.437
77885SOL    HW135494   5.086  11.750  11.438
77885SOL    HW235495   4.951  11.797  11.488
77886SOL     OW35496  14.047   3.639   1.628
77886SOL    HW135497  14.134   3.607   1.604
77886SOL    HW235498  14.004   3.565   1.671
77887SOL     OW35499  13.596   4.852  14.028
77887SOL    HW135500  13.680   4.883  14.062
77887SOL    HW235501  13.547   4.932  14.009
77888SOL     OW35502   0.351  10.370   0.138
77888SOL    HW135503   0.279  10.309   0.119
77888SOL    HW235504   0.430  10.321   0.116
77889SOL     OW35505   3.431  12.533  11.994
77889SOL    HW135506   3.494  12.510  11.926
77889SOL    HW235507   3.458  12.621  12.022
77890SOL     OW35508   5.411   6.403   9.443
77890SOL    HW135509   5.459   6.399   9.525
77890SOL    HW235510   5.479   6.409   9.375
77891SOL     OW35511   9.189  12.511   3.781
77891SOL    HW135512   9.099  12.479   3.786
77891SOL    HW235513   9.191  12.584   3.843
77892SOL     OW35514   6.802   0.406   9.536
77892SOL    HW135515   6.817   0.311   9.528
77892SOL    HW235516   6.710   0.413   9.563
77893SOL     OW35517  14.132   6.086  14.092
77893SOL    HW135518  14.187   6.079  14.170
77893SOL    HW235519  14.188   6.057  14.020
77894SOL     OW35520   4.893   9.100  11.528
77894SOL    HW135521   4.975   9.106  11.577
77894SOL    HW235522   4.835   9.049  11.585
77895SOL     OW35523   6.601  14.083  12.824
77895SOL    HW135524   6.675  14.079  12.764
77895SOL    HW235525   6.602  13.998  12.869
77896SOL     OW35526   7.970   3.888  13.636
77896SOL    HW135527   7.947   3.887  13.543
77896SOL    HW235528   8.065   3.885  13.637
77897SOL     OW35529   1.688   7.170  13.389
77897SOL    HW135530   1.723   7.101  13.333
77897SOL    HW235531   1.705   7.140  13.478
77898SOL     OW35532  13.548  12.122   7.488
77898SOL    HW135533  13.524  12.036   7.523
77898SOL    HW235534  13.475  12.146   7.431
77899SOL     OW35535   9.048   2.809   1.930
77899SOL    HW135536   9.046   2.900   1.960
77899SOL    HW235537   8.957   2.789   1.907
77900SOL     OW35538   7.555   9.553   3.943
77900SOL    HW135539   7.493   9.480   3.939
77900SOL    HW235540   7.538   9.595   4.027
77901SOL     OW35541   9.586   0.530   2.698
77901SOL    HW135542   9.596   0.469   2.771
77901SOL    HW235543   9.518   0.492   2.643
77902SOL     OW35544   9.637   5.607   4.283
77902SOL    HW135545   9.628   5.699   4.259
77902SOL    HW235546   9.547   5.578   4.298
77903SOL     OW35547   7.921   4.497   7.084
77903SOL    HW135548   7.908   4.451   7.001
77903SOL    HW235549   8.015   4.491   7.100
77904SOL     OW35550   5.661   3.151   7.533
77904SOL    HW135551   5.594   3.218   7.540
77904SOL    HW235552   5.613   3.070   7.514
77905SOL     OW35553   8.203  11.822   0.105
77905SOL    HW135554   8.179  11.782   0.189
77905SOL    HW235555   8.284  11.870   0.125
77906SOL     OW35556   1.884   0.671   9.287
77906SOL    HW135557   1.948   0.608   9.318
77906SOL    HW235558   1.929   0.720   9.219
77907SOL     OW35559   7.998  11.366   3.485
77907SOL    HW135560   8.065  11.421   3.446
77907SOL    HW235561   7.967  11.311   3.412
77908SOL     OW35562   4.164   8.401  10.359
77908SOL    HW135563   4.211   8.358  10.431
77908SOL    HW235564   4.172   8.495  10.378
77909SOL     OW35565  14.290   5.075  14.468
77909SOL    HW135566  14.355   5.134  14.430
77909SOL    HW235567  14.278   5.108  14.557
77910SOL     OW35568  13.633  13.697   8.394
77910SOL    HW135569  13.656  13.763   8.460
77910SOL    HW235570  13.648  13.614   8.438
77911SOL     OW35571   8.799   7.995   6.175
77911SOL    HW135572   8.829   7.996   6.084
77911SOL    HW235573   8.855   8.057   6.220
77912SOL     OW35574   3.465   5.024   0.199
77912SOL    HW135575   3.400   4.969   0.244
77912SOL    HW235576   3.413   5.082   0.144
77913SOL     OW35577   6.868  11.925  11.296
77913SOL    HW135578   6.825  11.844  11.268
77913SOL    HW235579   6.804  11.993  11.279
77914SOL     OW35580  12.958  12.115  10.925
77914SOL    HW135581  12.917  12.192  10.885
77914SOL    HW235582  12.970  12.139  11.017
77915SOL     OW35583   0.971   3.948   2.632
77915SOL    HW135584   1.012   3.873   2.588
77915SOL    HW235585   0.935   3.912   2.713
77916SOL     OW35586  11.644   9.595  14.073
77916SOL    HW135587  11.697   9.673  14.088
77916SOL    HW235588  11.569   9.605  14.131
77917SOL     OW35589   3.955  11.234  10.740
77917SOL    HW135590   3.919  11.234  10.652
77917SOL    HW235591   3.884  11.200  10.795
77918SOL     OW35592   7.940   7.548  14.446
77918SOL    HW135593   7.889   7.584  14.373
77918SOL    HW235594   7.886   7.478  14.481
77919SOL     OW35595   2.733   6.694   9.167
77919SOL    HW135596   2.697   6.711   9.254
77919SOL    HW235597   2.705   6.605   9.146
77920SOL     OW35598   5.246  11.438  14.172
77920SOL    HW135599   5.175  11.423  14.234
77920SOL    HW235600   5.203  11.447  14.087
77921SOL     OW35601  11.881   3.715  10.083
77921SOL    HW135602  11.862   3.716   9.989
77921SOL    HW235603  11.906   3.805  10.103
77922SOL     OW35604  12.940   0.413  12.534
77922SOL    HW135605  12.932   0.326  12.573
77922SOL    HW235606  12.854   0.453  12.548
77923SOL     OW35607   4.242  13.481  14.129
77923SOL    HW135608   4.215  13.455  14.217
77923SOL    HW235609   4.322  13.532  14.143
77924SOL     OW35610   7.014   5.102  10.753
77924SOL    HW135611   7.095   5.099  10.703
77924SOL    HW235612   6.946   5.073  10.692
77925SOL     OW35613   8.995   6.104   2.071
77925SOL    HW135614   9.046   6.038   2.025
77925SOL    HW235615   8.933   6.053   2.124
77926SOL     OW35616   8.546  11.887  13.184
77926SOL    HW135617   8.628  11.911  13.140
77926SOL    HW235618   8.478  11.929  13.131
77927SOL     OW35619   6.927  11.103   0.216
77927SOL    HW135620   6.846  11.054   0.198
77927SOL    HW235621   6.896  11.190   0.242
77928SOL     OW35622  14.337   7.567   0.835
77928SOL    HW135623  14.293   7.637   0.883
77928SOL    HW235624  14.309   7.487   0.878
77929SOL     OW35625  10.686   1.055  14.464
77929SOL    HW135626  10.662   1.103  14.543
77929SOL    HW235627  10.780   1.068  14.455
77930SOL     OW35628   6.321   2.555   6.049
77930SOL    HW135629   6.354   2.640   6.078
77930SOL    HW235630   6.396   2.511   6.010
77931SOL     OW35631   2.209  12.203  10.508
77931SOL    HW135632   2.234  12.132  10.448
77931SOL    HW235633   2.123  12.178  10.540
77932SOL     OW35634   8.043   3.756   7.581
77932SOL    HW135635   7.972   3.808   7.619
77932SOL    HW235636   8.003   3.714   7.505
77933SOL     OW35637   3.058   2.855   5.695
77933SOL    HW135638   3.092   2.911   5.625
77933SOL    HW235639   3.014   2.783   5.649
77934SOL     OW35640   7.770  12.854  12.484
77934SOL    HW135641   7.689  12.865  12.434
77934SOL    HW235642   7.756  12.775  12.536
77935SOL     OW35643  12.994   1.374   9.897
77935SOL    HW135644  13.064   1.439   9.889
77935SOL    HW235645  12.916   1.426   9.914
77936SOL     OW35646   5.469  13.179   1.506
77936SOL    HW135647   5.439  13.266   1.534
77936SOL    HW235648   5.428  13.168   1.420
77937SOL     OW35649   7.116   6.300   5.160
77937SOL    HW135650   7.157   6.273   5.078
77937SOL    HW235651   7.072   6.382   5.139
77938SOL     OW35652  13.531   3.539   6.732
77938SOL    HW135653  13.479   3.492   6.667
77938SOL    HW235654  13.598   3.585   6.681
77939SOL     OW35655  14.214  11.387   5.601
77939SOL    HW135656  14.301  11.426   5.606
77939SOL    HW235657  14.228  11.301   5.562
77940SOL     OW35658   4.871   3.905   2.182
77940SOL    HW135659   4.928   3.843   2.228
77940SOL    HW235660   4.790   3.906   2.233
77941SOL     OW35661   1.201   1.684  14.765
77941SOL    HW135662   1.172   1.758  14.711
77941SOL    HW235663   1.293   1.701  14.782
77942SOL     OW35664   0.585  14.583  13.383
77942SOL    HW135665   0.538  14.562  13.464
77942SOL    HW235666   0.652  14.516  13.375
77943SOL     OW35667   0.776   9.195  13.288
77943SOL    HW135668   0.851   9.241  13.249
77943SOL    HW235669   0.728   9.161  13.213
77944SOL     OW35670   2.419   6.285  14.105
77944SOL    HW135671   2.389   6.272  14.195
77944SOL    HW235672   2.457   6.373  14.104
77945SOL     OW35673   5.115  11.959  12.921
77945SOL    HW135674   5.068  11.904  12.983
77945SOL    HW235675   5.072  12.044  12.927
77946SOL     OW35676  14.204   9.290   6.554
77946SOL    HW135677  14.166   9.281   6.467
77946SOL    HW235678  14.152   9.358   6.596
77947SOL     OW35679  12.063  10.470  13.468
77947SOL    HW135680  12.064  10.506  13.380
77947SOL    HW235681  12.154  10.475  13.497
77948SOL     OW35682   2.517   1.823   9.049
77948SOL    HW135683   2.605   1.797   9.021
77948SOL    HW235684   2.459   1.757   9.011
77949SOL     OW35685   2.248   8.276  13.196
77949SOL    HW135686   2.207   8.362  13.211
77949SOL    HW235687   2.321   8.274  13.259
77950SOL     OW35688  12.532   4.134   2.057
77950SOL    HW135689  12.560   4.130   1.965
77950SOL    HW235690  12.446   4.093   2.058
77951SOL     OW35691   9.540  12.372   4.285
77951SOL    HW135692   9.573  12.446   4.337
77951SOL    HW235693   9.562  12.395   4.194
77952SOL     OW35694  13.664  12.347   2.653
77952SOL    HW135695  13.661  12.380   2.563
77952SOL    HW235696  13.593  12.283   2.657
77953SOL     OW35697  10.063   8.954  13.431
77953SOL    HW135698  10.015   8.906  13.364
77953SOL    HW235699  10.132   9.000  13.383
77954SOL     OW35700  14.676   7.957   9.987
77954SOL    HW135701  14.636   8.022  10.044
77954SOL    HW235702  14.738   7.910  10.043
77955SOL     OW35703   5.851  13.267   1.955
77955SOL    HW135704   5.789  13.198   1.932
77955SOL    HW235705   5.934  13.237   1.919
77956SOL     OW35706  11.164  10.165   2.282
77956SOL    HW135707  11.072  10.186   2.266
77956SOL    HW235708  11.163  10.106   2.357
77957SOL     OW35709  10.021   9.451   6.836
77957SOL    HW135710  10.035   9.356   6.836
77957SOL    HW235711   9.930   9.462   6.808
77958SOL     OW35712   8.437  10.463  14.362
77958SOL    HW135713   8.532  10.462  14.358
77958SOL    HW235714   8.414  10.556  14.360
77959SOL     OW35715  10.882   6.207  12.672
77959SOL    HW135716  10.932   6.132  12.703
77959SOL    HW235717  10.905   6.278  12.732
77960SOL     OW35718   9.370  10.729   8.069
77960SOL    HW135719   9.382  10.810   8.119
77960SOL    HW235720   9.384  10.659   8.133
77961SOL     OW35721   0.525   3.196   4.376
77961SOL    HW135722   0.442   3.230   4.409
77961SOL    HW235723   0.588   3.213   4.446
77962SOL     OW35724   6.754  13.888   7.898
77962SOL    HW135725   6.707  13.955   7.947
77962SOL    HW235726   6.688  13.850   7.839
77963SOL     OW35727   8.538   3.556   6.317
77963SOL    HW135728   8.627   3.592   6.318
77963SOL    HW235729   8.481   3.633   6.320
77964SOL     OW35730   5.171   2.515   5.312
77964SOL    HW135731   5.143   2.519   5.404
77964SOL    HW235732   5.149   2.427   5.283
77965SOL     OW35733  10.971   4.558  11.863
77965SOL    HW135734  11.032   4.490  11.838
77965SOL    HW235735  10.887   4.513  11.875
77966SOL     OW35736   4.782  11.845   8.424
77966SOL    HW135737   4.756  11.822   8.514
77966SOL    HW235738   4.803  11.761   8.384
77967SOL     OW35739   9.953   3.457   2.274
77967SOL    HW135740   9.912   3.410   2.347
77967SOL    HW235741   9.887   3.521   2.247
77968SOL     OW35742  14.060   1.844   6.524
77968SOL    HW135743  14.139   1.795   6.546
77968SOL    HW235744  13.993   1.809   6.583
77969SOL     OW35745   3.543   6.980   7.658
77969SOL    HW135746   3.587   6.900   7.686
77969SOL    HW235747   3.526   7.028   7.739
77970SOL     OW35748   7.281   5.519   3.583
77970SOL    HW135749   7.366   5.525   3.625
77970SOL    HW235750   7.228   5.466   3.642
77971SOL     OW35751  11.073   0.529   0.805
77971SOL    HW135752  11.161   0.562   0.787
77971SOL    HW235753  11.053   0.560   0.893
77972SOL     OW35754  12.255   2.156   6.107
77972SOL    HW135755  12.241   2.096   6.180
77972SOL    HW235756  12.264   2.100   6.031
77973SOL     OW35757  12.575   9.292   4.012
77973SOL    HW135758  12.601   9.290   4.104
77973SOL    HW235759  12.482   9.269   4.013
77974SOL     OW35760  14.481  12.710   0.790
77974SOL    HW135761  14.570  12.727   0.758
77974SOL    HW235762  14.451  12.635   0.738
77975SOL     OW35763   4.907   5.704   7.563
77975SOL    HW135764   4.966   5.779   7.572
77975SOL    HW235765   4.937   5.641   7.629
77976SOL     OW35766   2.798   2.825   6.289
77976SOL    HW135767   2.777   2.892   6.354
77976SOL    HW235768   2.860   2.767   6.334
77977SOL     OW35769  10.792  12.356   5.570
77977SOL    HW135770  10.822  12.265   5.570
77977SOL    HW235771  10.727  12.360   5.640
77978SOL     OW35772  12.378  11.491  12.399
77978SOL    HW135773  12.349  11.453  12.316
77978SOL    HW235774  12.309  11.468  12.461
77979SOL     OW35775  12.424  12.721   9.902
77979SOL    HW135776  12.503  12.708   9.956
77979SOL    HW235777  12.358  12.753   9.964
77980SOL     OW35778   7.925  12.211  11.242
77980SOL    HW135779   7.974  12.239  11.319
77980SOL    HW235780   7.982  12.147  11.199
77981SOL     OW35781  13.964   8.544  12.991
77981SOL    HW135782  13.946   8.545  12.897
77981SOL    HW235783  13.909   8.474  13.025
77982SOL     OW35784   7.008   7.626   1.998
77982SOL    HW135785   6.959   7.549   1.971
77982SOL    HW235786   6.956   7.700   1.968
77983SOL     OW35787   2.702  12.626   6.648
77983SOL    HW135788   2.648  12.625   6.727
77983SOL    HW235789   2.790  12.607   6.679
77984SOL     OW35790   0.644  12.494   2.937
77984SOL    HW135791   0.597  12.455   3.011
77984SOL    HW235792   0.707  12.427   2.911
77985SOL     OW35793  10.656   0.455   9.684
77985SOL    HW135794  10.662   0.392   9.611
77985SOL    HW235795  10.705   0.531   9.653
77986SOL     OW35796   3.990  14.009  12.739
77986SOL    HW135797   4.049  13.934  12.742
77986SOL    HW235798   3.950  14.012  12.826
77987SOL     OW35799   8.263  11.939  12.299
77987SOL    HW135800   8.246  12.033  12.302
77987SOL    HW235801   8.258  11.917  12.206
77988SOL     OW35802   0.788  14.039   2.630
77988SOL    HW135803   0.695  14.047   2.611
77988SOL    HW235804   0.809  13.947   2.613
77989SOL     OW35805   4.813   2.208   1.080
77989SOL    HW135806   4.898   2.165   1.079
77989SOL    HW235807   4.821   2.278   1.145
77990SOL     OW35808  12.506   1.878   6.437
77990SOL    HW135809  12.588   1.829   6.440
77990SOL    HW235810  12.483   1.891   6.529
77991SOL     OW35811   0.489  12.107   7.997
77991SOL    HW135812   0.422  12.069   8.054
77991SOL    HW235813   0.522  12.182   8.046
77992SOL     OW35814   0.858   1.937  10.642
77992SOL    HW135815   0.884   1.850  10.612
77992SOL    HW235816   0.764   1.929  10.659
77993SOL     OW35817   6.585  11.929   2.453
77993SOL    HW135818   6.521  11.904   2.520
77993SOL    HW235819   6.664  11.881   2.477
77994SOL     OW35820  14.064  12.079   2.559
77994SOL    HW135821  13.998  12.010   2.571
77994SOL    HW235822  14.015  12.155   2.529
77995SOL     OW35823  11.438   6.640   3.832
77995SOL    HW135824  11.518   6.590   3.821
77995SOL    HW235825  11.394   6.634   3.746
77996SOL     OW35826   8.106  12.315  13.196
77996SOL    HW135827   8.055  12.235  13.206
77996SOL    HW235828   8.041  12.385  13.197
77997SOL     OW35829  14.429   9.274  14.463
77997SOL    HW135830  14.418   9.215  14.389
77997SOL    HW235831  14.399   9.223  14.539
77998SOL     OW35832   4.462  13.116   2.649
77998SOL    HW135833   4.467  13.056   2.723
77998SOL    HW235834   4.485  13.062   2.573
77999SOL     OW35835   1.811  10.065   6.417
77999SOL    HW135836   1.815  10.089   6.324
77999SOL    HW235837   1.747  10.126   6.455
78000SOL     OW35838   6.698  14.194   4.518
78000SOL    HW135839   6.640  14.224   4.447
78000SOL    HW235840   6.764  14.142   4.474
78001SOL     OW35841   3.903   0.293   8.689
78001SOL    HW135842   3.951   0.334   8.617
78001SOL    HW235843   3.943   0.329   8.768
78002SOL     OW35844  11.496  13.067   0.918
78002SOL    HW135845  11.505  13.148   0.968
78002SOL    HW235846  11.512  13.093   0.827
78003SOL     OW35847  11.142  12.648   2.667
78003SOL    HW135848  11.135  12.741   2.688
78003SOL    HW235849  11.133  12.644   2.571
78004SOL     OW35850  10.564   2.040   0.168
78004SOL    HW135851  10.599   2.119   0.127
78004SOL    HW235852  10.642   1.988   0.190
78005SOL     OW35853   3.259   6.646   6.177
78005SOL    HW135854   3.219   6.564   6.147
78005SOL    HW235855   3.185   6.700   6.205
78006SOL     OW35856  12.445  10.216  11.989
78006SOL    HW135857  12.357  10.183  12.006
78006SOL    HW235858  12.487  10.219  12.075
78007SOL     OW35859  11.049   0.875   0.005
78007SOL    HW135860  11.098   0.797  14.853
78007SOL    HW235861  11.074   0.940  14.812
78008SOL     OW35862   4.160   3.205   6.209
78008SOL    HW135863   4.241   3.254   6.195
78008SOL    HW235864   4.150   3.152   6.130
78009SOL     OW35865   1.082   7.579  10.958
78009SOL    HW135866   1.036   7.495  10.958
78009SOL    HW235867   1.161   7.563  11.010
78010SOL     OW35868   2.293   7.756  12.821
78010SOL    HW135869   2.214   7.796  12.785
78010SOL    HW235870   2.275   7.745  12.914
78011SOL     OW35871  14.758   3.581   8.065
78011SOL    HW135872  14.682   3.539   8.027
78011SOL    HW235873  14.810   3.610   7.990
78012SOL     OW35874  10.895   7.760   2.297
78012SOL    HW135875  10.939   7.815   2.362
78012SOL    HW235876  10.814   7.732   2.340
78013SOL     OW35877  11.160   4.861   3.165
78013SOL    HW135878  11.077   4.857   3.117
78013SOL    HW235879  11.151   4.795   3.234
78014SOL     OW35880   8.908   4.490  12.131
78014SOL    HW135881   8.824   4.451  12.108
78014SOL    HW235882   8.911   4.572  12.083
78015SOL     OW35883   8.249   3.371  13.349
78015SOL    HW135884   8.269   3.293  13.298
78015SOL    HW235885   8.299   3.361  13.430
78016SOL     OW35886   7.123   9.722   8.940
78016SOL    HW135887   7.029   9.720   8.962
78016SOL    HW235888   7.142   9.815   8.926
78017SOL     OW35889   8.357   3.878   2.888
78017SOL    HW135890   8.359   3.879   2.984
78017SOL    HW235891   8.437   3.923   2.862
78018SOL     OW35892   8.944   3.473   7.556
78018SOL    HW135893   8.902   3.522   7.627
78018SOL    HW235894   8.878   3.470   7.486
78019SOL     OW35895   6.125   9.693   4.577
78019SOL    HW135896   6.052   9.737   4.534
78019SOL    HW235897   6.086   9.619   4.622
78020SOL     OW35898  12.553   6.884  13.238
78020SOL    HW135899  12.537   6.811  13.179
78020SOL    HW235900  12.618   6.851  13.300
78021SOL     OW35901   4.551  12.705  11.847
78021SOL    HW135902   4.532  12.709  11.941
78021SOL    HW235903   4.476  12.659  11.810
78022SOL     OW35904   2.737  10.056   6.076
78022SOL    HW135905   2.668  10.037   6.013
78022SOL    HW235906   2.703  10.130   6.127
78023SOL     OW35907   4.120   0.379  12.244
78023SOL    HW135908   4.180   0.334  12.304
78023SOL    HW235909   4.137   0.472  12.258
78024SOL     OW35910   3.757   3.222  13.542
78024SOL    HW135911   3.684   3.277  13.569
78024SOL    HW235912   3.730   3.133  13.565
78025SOL     OW35913   5.217   8.904  13.616
78025SOL    HW135914   5.128   8.869  13.625
78025SOL    HW235915   5.232   8.952  13.698
78026SOL     OW35916   2.079   6.697   0.752
78026SOL    HW135917   2.108   6.609   0.730
78026SOL    HW235918   1.986   6.699   0.726
78027SOL     OW35919   5.267   2.656  12.745
78027SOL    HW135920   5.343   2.599  12.744
78027SOL    HW235921   5.197   2.602  12.781
78028SOL     OW35922   4.279   8.288   4.051
78028SOL    HW135923   4.251   8.367   4.005
78028SOL    HW235924   4.371   8.277   4.025
78029SOL     OW35925   7.421   0.463   4.159
78029SOL    HW135926   7.371   0.505   4.228
78029SOL    HW235927   7.507   0.446   4.199
78030SOL     OW35928  11.857   3.985   6.675
78030SOL    HW135929  11.799   4.043   6.724
78030SOL    HW235930  11.883   3.918   6.738
78031SOL     OW35931   6.607   8.467   8.354
78031SOL    HW135932   6.619   8.549   8.305
78031SOL    HW235933   6.601   8.494   8.445
78032SOL     OW35934   9.279   6.806   8.798
78032SOL    HW135935   9.229   6.861   8.859
78032SOL    HW235936   9.309   6.867   8.731
78033SOL     OW35937   3.943   8.393   4.435
78033SOL    HW135938   4.001   8.468   4.446
78033SOL    HW235939   3.999   8.324   4.398
78034SOL     OW35940   4.002   8.217   3.481
78034SOL    HW135941   4.077   8.258   3.440
78034SOL    HW235942   4.018   8.123   3.472
78035SOL     OW35943  13.616  13.097  14.686
78035SOL    HW135944  13.682  13.156  14.648
78035SOL    HW235945  13.637  13.011  14.649
78036SOL     OW35946   4.635   5.032  13.606
78036SOL    HW135947   4.594   4.972  13.668
78036SOL    HW235948   4.622   4.991  13.520
78037SOL     OW35949   6.272  10.040   1.083
78037SOL    HW135950   6.305  10.096   1.153
78037SOL    HW235951   6.233  10.101   1.020
78038SOL     OW35952   4.630   5.657   7.122
78038SOL    HW135953   4.702   5.647   7.185
78038SOL    HW235954   4.567   5.714   7.166
78039SOL     OW35955   5.840   1.889  11.197
78039SOL    HW135956   5.914   1.865  11.251
78039SOL    HW235957   5.863   1.858  11.109
78040SOL     OW35958  12.505   9.677   3.942
78040SOL    HW135959  12.588   9.630   3.955
78040SOL    HW235960  12.438   9.615   3.969
78041SOL     OW35961  12.593   0.513   6.972
78041SOL    HW135962  12.567   0.572   6.902
78041SOL    HW235963  12.511   0.479   7.007
78042SOL     OW35964   5.696   8.505   4.873
78042SOL    HW135965   5.667   8.575   4.931
78042SOL    HW235966   5.749   8.549   4.807
78043SOL     OW35967  10.263  14.848  14.488
78043SOL    HW135968  10.195  14.846  14.421
78043SOL    HW235969  10.285   0.068  14.498
78044SOL     OW35970   0.689   7.191   6.083
78044SOL    HW135971   0.664   7.111   6.037
78044SOL    HW235972   0.605   7.229   6.110
78045SOL     OW35973  11.931   1.496   3.618
78045SOL    HW135974  11.956   1.580   3.655
78045SOL    HW235975  11.904   1.515   3.529
78046SOL     OW35976   1.509   5.226   9.802
78046SOL    HW135977   1.425   5.220   9.757
78046SOL    HW235978   1.541   5.136   9.804
78047SOL     OW35979   7.737   9.393   9.517
78047SOL    HW135980   7.680   9.469   9.506
78047SOL    HW235981   7.748   9.359   9.429
78048SOL     OW35982   9.328   5.536   4.325
78048SOL    HW135983   9.332   5.538   4.229
78048SOL    HW235984   9.235   5.545   4.344
78049SOL     OW35985   5.693   1.198  13.828
78049SOL    HW135986   5.753   1.255  13.780
78049SOL    HW235987   5.731   1.111  13.821
78050SOL     OW35988   7.519   5.603  14.064
78050SOL    HW135989   7.460   5.536  14.030
78050SOL    HW235990   7.546   5.570  14.149
78051SOL     OW35991   3.697   3.726   1.256
78051SOL    HW135992   3.741   3.667   1.316
78051SOL    HW235993   3.654   3.668   1.193
78052SOL     OW35994   4.195  13.239   7.022
78052SOL    HW135995   4.262  13.299   6.989
78052SOL    HW235996   4.221  13.153   6.988
78053SOL     OW35997   8.519   9.488   1.085
78053SOL    HW135998   8.435   9.453   1.054
78053SOL    HW235999   8.495   9.557   1.147
78054SOL     OW36000  12.526   3.754   9.459
78054SOL    HW136001  12.510   3.795   9.544
78054SOL    HW236002  12.439   3.748   9.418
78055SOL     OW36003  14.130   3.932  10.392
78055SOL    HW136004  14.074   3.863  10.429
78055SOL    HW236005  14.213   3.923  10.440
78056SOL     OW36006  10.389  14.317   3.818
78056SOL    HW136007  10.441  14.237   3.807
78056SOL    HW236008  10.307  14.299   3.771
78057SOL     OW36009   1.630   8.041  12.037
78057SOL    HW136010   1.652   7.972  12.101
78057SOL    HW236011   1.560   8.091  12.079
78058SOL     OW36012   2.860   7.232   6.648
78058SOL    HW136013   2.947   7.208   6.615
78058SOL    HW236014   2.822   7.286   6.579
78059SOL     OW36015   1.349   7.427   3.652
78059SOL    HW136016   1.372   7.505   3.702
78059SOL    HW236017   1.254   7.426   3.650
78060SOL     OW36018   8.983   5.753   7.788
78060SOL    HW136019   8.946   5.794   7.867
78060SOL    HW236020   8.956   5.811   7.717
78061SOL     OW36021   0.438  13.569   5.224
78061SOL    HW136022   0.425  13.553   5.318
78061SOL    HW236023   0.380  13.643   5.204
78062SOL     OW36024  12.186   6.663   9.346
78062SOL    HW136025  12.155   6.618   9.425
78062SOL    HW236026  12.187   6.595   9.279
78063SOL     OW36027   3.108   9.944  10.091
78063SOL    HW136028   3.150   9.889  10.157
78063SOL    HW236029   3.169  10.017  10.078
78064SOL     OW36030  11.645   3.949   8.268
78064SOL    HW136031  11.600   3.891   8.330
78064SOL    HW236032  11.615   4.037   8.291
78065SOL     OW36033  11.755   2.624   3.741
78065SOL    HW136034  11.734   2.607   3.833
78065SOL    HW236035  11.730   2.543   3.696
78066SOL     OW36036   4.144   3.817  10.765
78066SOL    HW136037   4.111   3.902  10.738
78066SOL    HW236038   4.151   3.822  10.861
78067SOL     OW36039   4.180   9.158   1.581
78067SOL    HW136040   4.110   9.103   1.546
78067SOL    HW236041   4.136   9.219   1.641
78068SOL     OW36042  10.404   8.585   6.444
78068SOL    HW136043  10.331   8.627   6.398
78068SOL    HW236044  10.474   8.650   6.441
78069SOL     OW36045   4.149   5.871  13.981
78069SOL    HW136046   4.186   5.819  13.910
78069SOL    HW236047   4.176   5.960  13.962
78070SOL     OW36048   9.998  14.168   9.128
78070SOL    HW136049   9.981  14.087   9.176
78070SOL    HW236050   9.918  14.184   9.078
78071SOL     OW36051   1.988   3.653  10.592
78071SOL    HW136052   1.928   3.727  10.593
78071SOL    HW236053   1.935   3.578  10.619
78072SOL     OW36054   5.674  12.604  14.313
78072SOL    HW136055   5.600  12.624  14.370
78072SOL    HW236056   5.714  12.526  14.352
78073SOL     OW36057   0.262   6.957  13.715
78073SOL    HW136058   0.327   7.027  13.719
78073SOL    HW236059   0.210   6.976  13.637
78074SOL     OW36060   3.456   4.808   7.732
78074SOL    HW136061   3.439   4.885   7.678
78074SOL    HW236062   3.383   4.806   7.794
78075SOL     OW36063   5.121  10.377   0.494
78075SOL    HW136064   5.154  10.351   0.580
78075SOL    HW236065   5.039  10.423   0.513
78076SOL     OW36066   8.074   1.725  10.836
78076SOL    HW136067   8.115   1.754  10.754
78076SOL    HW236068   8.142   1.674  10.880
78077SOL     OW36069  10.983   5.239  13.869
78077SOL    HW136070  10.990   5.254  13.774
78077SOL    HW236071  10.889   5.237  13.886
78078SOL     OW36072   8.298   8.134   3.724
78078SOL    HW136073   8.282   8.189   3.801
78078SOL    HW236074   8.316   8.197   3.654
78079SOL     OW36075   0.958  10.815   9.586
78079SOL    HW136076   0.950  10.910   9.599
78079SOL    HW236077   0.875  10.790   9.547
78080SOL     OW36078  11.904   1.719   3.436
78080SOL    HW136079  11.847   1.774   3.490
78080SOL    HW236080  11.856   1.705   3.355
78081SOL     OW36081  13.786   3.496   0.916
78081SOL    HW136082  13.768   3.410   0.953
78081SOL    HW236083  13.731   3.500   0.837
78082SOL     OW36084   6.641  10.719   9.738
78082SOL    HW136085   6.663  10.694   9.648
78082SOL    HW236086   6.706  10.674   9.792
78083SOL     OW36087   2.759   0.353   7.929
78083SOL    HW136088   2.814   0.431   7.923
78083SOL    HW236089   2.778   0.316   8.015
78084SOL     OW36090   0.744  11.419  14.581
78084SOL    HW136091   0.797  11.343  14.607
78084SOL    HW236092   0.688  11.436  14.656
78085SOL     OW36093   4.041  12.383  11.995
78085SOL    HW136094   4.113  12.351  11.941
78085SOL    HW236095   3.982  12.309  12.003
78086SOL     OW36096  10.342   6.025   6.180
78086SOL    HW136097  10.267   6.024   6.120
78086SOL    HW236098  10.417   6.047   6.125
78087SOL     OW36099  10.639   9.977   5.906
78087SOL    HW136100  10.720  10.024   5.926
78087SOL    HW236101  10.650   9.891   5.947
78088SOL     OW36102   3.085   2.941  10.341
78088SOL    HW136103   3.037   2.860  10.361
78088SOL    HW236104   3.037   2.980  10.268
78089SOL     OW36105   7.397   9.681   4.630
78089SOL    HW136106   7.488   9.673   4.602
78089SOL    HW236107   7.401   9.685   4.725
78090SOL     OW36108  11.517   5.534   3.781
78090SOL    HW136109  11.442   5.551   3.838
78090SOL    HW236110  11.482   5.544   3.692
78091SOL     OW36111   7.016   9.566   3.776
78091SOL    HW136112   7.028   9.589   3.684
78091SOL    HW236113   6.927   9.594   3.796
78092SOL     OW36114   8.364   7.351   6.571
78092SOL    HW136115   8.459   7.349   6.576
78092SOL    HW236116   8.338   7.412   6.639
78093SOL     OW36117   6.911  10.432   4.021
78093SOL    HW136118   6.866  10.353   3.991
78093SOL    HW236119   6.995  10.401   4.054
78094SOL     OW36120   2.541  14.833   1.812
78094SOL    HW136121   2.528  14.741   1.790
78094SOL    HW236122   2.548   0.004   1.727
78095SOL     OW36123   0.234   3.007   9.478
78095SOL    HW136124   0.226   3.066   9.553
78095SOL    HW236125   0.322   2.971   9.484
78096SOL     OW36126   1.103   7.198  10.577
78096SOL    HW136127   1.055   7.241  10.647
78096SOL    HW236128   1.054   7.219  10.497
78097SOL     OW36129   6.919   7.668   5.417
78097SOL    HW136130   6.916   7.642   5.509
78097SOL    HW236131   7.011   7.659   5.393
78098SOL     OW36132   3.541   4.072   8.156
78098SOL    HW136133   3.535   4.019   8.236
78098SOL    HW236134   3.510   4.015   8.086
78099SOL     OW36135   3.769  10.093   5.450
78099SOL    HW136136   3.795  10.133   5.533
78099SOL    HW236137   3.804  10.152   5.383
78100SOL     OW36138   9.003  10.282  11.469
78100SOL    HW136139   8.908  10.290  11.482
78100SOL    HW236140   9.017  10.312  11.379
78101SOL     OW36141   1.766   0.208   4.228
78101SOL    HW136142   1.705   0.223   4.300
78101SOL    HW236143   1.800   0.296   4.207
78102SOL     OW36144  11.966  13.447  10.684
78102SOL    HW136145  11.941  13.536  10.658
78102SOL    HW236146  11.887  13.411  10.724
78103SOL     OW36147   8.400   5.141   7.818
78103SOL    HW136148   8.310   5.119   7.792
78103SOL    HW236149   8.429   5.065   7.868
78104SOL     OW36150   3.552   7.123   6.763
78104SOL    HW136151   3.584   7.208   6.795
78104SOL    HW236152   3.522   7.077   6.841
78105SOL     OW36153   1.356  13.250  11.132
78105SOL    HW136154   1.343  13.294  11.048
78105SOL    HW236155   1.291  13.289  11.190
78106SOL     OW36156   1.185  10.620   7.608
78106SOL    HW136157   1.193  10.526   7.619
78106SOL    HW236158   1.092  10.639   7.622
78107SOL     OW36159   4.753  11.353  11.095
78107SOL    HW136160   4.803  11.358  11.013
78107SOL    HW236161   4.718  11.264  11.096
78108SOL     OW36162  10.263   1.980   7.956
78108SOL    HW136163  10.272   2.030   7.875
78108SOL    HW236164  10.196   1.914   7.936
78109SOL     OW36165   9.332  11.908  13.332
78109SOL    HW136166   9.312  11.940  13.244
78109SOL    HW236167   9.267  11.840  13.348
78110SOL     OW36168  14.475   0.976   5.131
78110SOL    HW136169  14.562   0.965   5.092
78110SOL    HW236170  14.450   0.888   5.158
78111SOL     OW36171   6.274  12.751   7.976
78111SOL    HW136172   6.254  12.665   7.938
78111SOL    HW236173   6.327  12.795   7.910
78112SOL     OW36174   4.198  12.295   5.995
78112SOL    HW136175   4.171  12.254   6.078
78112SOL    HW236176   4.207  12.222   5.934
78113SOL     OW36177   7.203  12.812   0.044
78113SOL    HW136178   7.191  12.720   0.021
78113SOL    HW236179   7.289  12.834   0.008
78114SOL     OW36180   6.781   2.619  10.962
78114SOL    HW136181   6.870   2.654  10.959
78114SOL    HW236182   6.775   2.563  10.884
78115SOL     OW36183   7.966   6.497   2.052
78115SOL    HW136184   7.960   6.516   1.958
78115SOL    HW236185   7.917   6.568   2.094
78116SOL     OW36186   1.293   1.964   4.956
78116SOL    HW136187   1.342   2.046   4.951
78116SOL    HW236188   1.216   1.985   5.009
78117SOL     OW36189   4.380   5.441   7.191
78117SOL    HW136190   4.321   5.469   7.121
78117SOL    HW236191   4.369   5.508   7.259
78118SOL     OW36192  12.645   4.739  12.530
78118SOL    HW136193  12.550   4.753  12.529
78118SOL    HW236194  12.661   4.679  12.457
78119SOL     OW36195  13.845   0.687   4.248
78119SOL    HW136196  13.887   0.681   4.162
78119SOL    HW236197  13.751   0.695   4.228
78120SOL     OW36198  13.150  12.884  11.718
78120SOL    HW136199  13.057  12.903  11.709
78120SOL    HW236200  13.155  12.792  11.741
78121SOL     OW36201   4.200   5.655   2.289
78121SOL    HW136202   4.207   5.608   2.371
78121SOL    HW236203   4.257   5.607   2.229
78122SOL     OW36204   6.742   3.561   4.950
78122SOL    HW136205   6.748   3.472   4.985
78122SOL    HW236206   6.650   3.585   4.960
78123SOL     OW36207  10.001  11.547  13.706
78123SOL    HW136208  10.015  11.620  13.645
78123SOL    HW236209  10.017  11.584  13.792
78124SOL     OW36210   8.444   6.611  12.631
78124SOL    HW136211   8.364   6.560  12.614
78124SOL    HW236212   8.418   6.674  12.699
78125SOL     OW36213  13.084   6.734   8.462
78125SOL    HW136214  13.028   6.664   8.494
78125SOL    HW236215  13.092   6.795   8.535
78126SOL     OW36216   8.336  12.958  11.426
78126SOL    HW136217   8.283  12.901  11.482
78126SOL    HW236218   8.425  12.949  11.459
78127SOL     OW36219   4.145   0.115  10.088
78127SOL    HW136220   4.212   0.104  10.155
78127SOL    HW236221   4.118   0.026  10.066
78128SOL     OW36222   6.954   3.377   2.835
78128SOL    HW136223   6.885   3.310   2.839
78128SOL    HW236224   7.034   3.329   2.854
78129SOL     OW36225   1.000  13.185   0.559
78129SOL    HW136226   0.975  13.233   0.481
78129SOL    HW236227   0.950  13.103   0.554
78130SOL     OW36228  14.062  10.668   0.058
78130SOL    HW136229  14.030  10.632  14.848
78130SOL    HW236230  14.006  10.629   0.124
78131SOL     OW36231   9.143  11.054   1.662
78131SOL    HW136232   9.088  11.115   1.710
78131SOL    HW236233   9.209  11.110   1.620
78132SOL     OW36234   1.733   9.705   3.500
78132SOL    HW136235   1.773   9.789   3.521
78132SOL    HW236236   1.807   9.645   3.493
78133SOL     OW36237  13.086   9.414  13.233
78133SOL    HW136238  13.032   9.406  13.312
78133SOL    HW236239  13.052   9.347  13.174
78134SOL     OW36240   5.731   4.619   4.403
78134SOL    HW136241   5.638   4.625   4.425
78134SOL    HW236242   5.743   4.686   4.336
78135SOL     OW36243   6.515   1.571  13.251
78135SOL    HW136244   6.533   1.557  13.158
78135SOL    HW236245   6.442   1.633  13.252
78136SOL     OW36246   6.630   9.371   7.040
78136SOL    HW136247   6.666   9.377   7.129
78136SOL    HW236248   6.586   9.455   7.027
78137SOL     OW36249   5.875  11.218  11.669
78137SOL    HW136250   5.953  11.163  11.662
78137SOL    HW236251   5.905  11.297  11.713
78138SOL     OW36252   6.544   6.553   9.394
78138SOL    HW136253   6.479   6.623   9.384
78138SOL    HW236254   6.612   6.591   9.451
78139SOL     OW36255   4.012   7.612   9.720
78139SOL    HW136256   4.092   7.581   9.679
78139SOL    HW236257   4.038   7.689   9.769
78140SOL     OW36258  14.192   1.971  13.531
78140SOL    HW136259  14.241   1.926  13.461
78140SOL    HW236260  14.141   1.901  13.573
78141SOL     OW36261  11.425   3.441   6.474
78141SOL    HW136262  11.386   3.528   6.485
78141SOL    HW236263  11.507   3.458   6.427
78142SOL     OW36264   1.456   2.775   1.660
78142SOL    HW136265   1.383   2.756   1.602
78142SOL    HW236266   1.515   2.830   1.608
78143SOL     OW36267   6.820   0.863   1.054
78143SOL    HW136268   6.754   0.801   1.025
78143SOL    HW236269   6.813   0.865   1.149
78144SOL     OW36270   4.662   5.626   9.376
78144SOL    HW136271   4.709   5.672   9.306
78144SOL    HW236272   4.711   5.644   9.455
78145SOL     OW36273  12.774   8.523   9.561
78145SOL    HW136274  12.791   8.439   9.519
78145SOL    HW236275  12.693   8.508   9.610
78146SOL     OW36276   2.625   3.471  13.515
78146SOL    HW136277   2.582   3.400  13.563
78146SOL    HW236278   2.555   3.510  13.463
78147SOL     OW36279   6.252  12.995  10.687
78147SOL    HW136280   6.184  13.058  10.665
78147SOL    HW236281   6.288  12.967  10.602
78148SOL     OW36282   1.054  12.725   9.956
78148SOL    HW136283   0.985  12.734  10.022
78148SOL    HW236284   1.011  12.678   9.884
78149SOL     OW36285  11.977   5.348   1.066
78149SOL    HW136286  12.021   5.265   1.083
78149SOL    HW236287  12.034   5.414   1.107
78150SOL     OW36288   4.777  13.265   6.188
78150SOL    HW136289   4.850  13.213   6.223
78150SOL    HW236290   4.814  13.314   6.115
78151SOL     OW36291   2.806   3.273  14.786
78151SOL    HW136292   2.772   3.260  14.697
78151SOL    HW236293   2.777   3.361  14.810
78152SOL     OW36294   3.516   1.072   1.832
78152SOL    HW136295   3.606   1.071   1.865
78152SOL    HW236296   3.462   1.084   1.910
78153SOL     OW36297   7.987  11.119   8.072
78153SOL    HW136298   8.055  11.161   8.124
78153SOL    HW236299   7.928  11.081   8.137
78154SOL     OW36300   1.665  12.756   4.115
78154SOL    HW136301   1.691  12.843   4.085
78154SOL    HW236302   1.613  12.772   4.194
78155SOL     OW36303   8.511  11.196   2.744
78155SOL    HW136304   8.496  11.156   2.659
78155SOL    HW236305   8.515  11.122   2.805
78156SOL     OW36306   0.388  13.401   4.808
78156SOL    HW136307   0.343  13.474   4.851
78156SOL    HW236308   0.320  13.335   4.795
78157SOL     OW36309  10.500   5.801  10.053
78157SOL    HW136310  10.491   5.788  10.147
78157SOL    HW236311  10.434   5.744  10.014
78158SOL     OW36312  12.367   4.353  12.037
78158SOL    HW136313  12.460   4.351  12.015
78158SOL    HW236314  12.361   4.417  12.108
78159SOL     OW36315   9.996   3.959   3.859
78159SOL    HW136316  10.015   4.023   3.789
78159SOL    HW236317  10.014   4.006   3.940
78160SOL     OW36318  14.656  12.543   0.420
78160SOL    HW136319  14.726  12.483   0.446
78160SOL    HW236320  14.628  12.512   0.334
78161SOL     OW36321  11.788   2.499  13.271
78161SOL    HW136322  11.760   2.590  13.271
78161SOL    HW236323  11.884   2.503  13.273
78162SOL     OW36324  12.418  13.338   3.618
78162SOL    HW136325  12.447  13.341   3.709
78162SOL    HW236326  12.404  13.430   3.594
78163SOL     OW36327   1.968  13.148  10.359
78163SOL    HW136328   1.962  13.055  10.339
78163SOL    HW236329   1.923  13.158  10.442
78164SOL     OW36330   6.411  13.437   1.052
78164SOL    HW136331   6.363  13.407   0.975
78164SOL    HW236332   6.354  13.504   1.091
78165SOL     OW36333   2.876   0.595  11.015
78165SOL    HW136334   2.785   0.576  10.994
78165SOL    HW236335   2.892   0.682  10.977
78166SOL     OW36336   3.227  12.941  10.675
78166SOL    HW136337   3.193  12.867  10.625
78166SOL    HW236338   3.204  13.018  10.623
78167SOL     OW36339   6.744  14.684   9.723
78167SOL    HW136340   6.653  14.714   9.730
78167SOL    HW236341   6.750  14.647   9.635
78168SOL     OW36342   2.572  12.745   7.806
78168SOL    HW136343   2.511  12.708   7.870
78168SOL    HW236344   2.538  12.716   7.722
78169SOL     OW36345  14.399  14.453  14.638
78169SOL    HW136346  14.304  14.457  14.637
78169SOL    HW236347  14.426  14.543  14.657
78170SOL     OW36348   6.285   2.313   5.493
78170SOL    HW136349   6.207   2.284   5.446
78170SOL    HW236350   6.252   2.357   5.572
78171SOL     OW36351   6.241   8.631   2.909
78171SOL    HW136352   6.167   8.579   2.876
78171SOL    HW236353   6.306   8.625   2.840
78172SOL     OW36354   2.737  12.806   6.432
78172SOL    HW136355   2.705  12.750   6.503
78172SOL    HW236356   2.661  12.816   6.374
78173SOL     OW36357  14.269  10.320   4.985
78173SOL    HW136358  14.219  10.270   5.050
78173SOL    HW236359  14.225  10.406   4.983
78174SOL     OW36360  11.496   8.125  14.802
78174SOL    HW136361  11.423   8.173  14.762
78174SOL    HW236362  11.481   8.135   0.023
78175SOL     OW36363   0.625  12.513   0.251
78175SOL    HW136364   0.680  12.465   0.313
78175SOL    HW236365   0.536  12.481   0.268
78176SOL     OW36366   4.515   9.120   7.848
78176SOL    HW136367   4.524   9.200   7.899
78176SOL    HW236368   4.475   9.057   7.908
78177SOL     OW36369  11.234  13.799   1.014
78177SOL    HW136370  11.246  13.737   1.085
78177SOL    HW236371  11.207  13.745   0.939
78178SOL     OW36372  11.832   5.345   9.173
78178SOL    HW136373  11.750   5.349   9.124
78178SOL    HW236374  11.808   5.373   9.261
78179SOL     OW36375  13.176   0.582   9.914
78179SOL    HW136376  13.223   0.636   9.850
78179SOL    HW236377  13.244   0.528   9.954
78180SOL     OW36378   6.710   7.719   9.350
78180SOL    HW136379   6.770   7.644   9.358
78180SOL    HW236380   6.764   7.795   9.371
78181SOL     OW36381   6.985   0.403   3.279
78181SOL    HW136382   7.073   0.390   3.313
78181SOL    HW236383   6.928   0.358   3.341
78182SOL     OW36384   9.601   0.651   0.178
78182SOL    HW136385   9.611   0.698   0.261
78182SOL    HW236386   9.506   0.649   0.164
78183SOL     OW36387  13.788   3.900  11.484
78183SOL    HW136388  13.751   3.870  11.567
78183SOL    HW236389  13.859   3.839  11.465
78184SOL     OW36390  12.416   9.383   8.466
78184SOL    HW136391  12.369   9.448   8.519
78184SOL    HW236392  12.347   9.322   8.438
78185SOL     OW36393   8.958  13.339   5.955
78185SOL    HW136394   8.891  13.321   6.021
78185SOL    HW236395   8.914  13.327   5.871
78186SOL     OW36396   1.876  12.124   8.561
78186SOL    HW136397   1.801  12.109   8.618
78186SOL    HW236398   1.912  12.036   8.545
78187SOL     OW36399   1.587  10.062  12.272
78187SOL    HW136400   1.682  10.077  12.273
78187SOL    HW236401   1.558  10.101  12.190
78188SOL     OW36402  14.861  14.127   9.470
78188SOL    HW136403   0.005  14.110   9.378
78188SOL    HW236404  14.804  14.055   9.498
78189SOL     OW36405   9.826   1.591   6.499
78189SOL    HW136406   9.805   1.678   6.465
78189SOL    HW236407   9.912   1.571   6.461
78190SOL     OW36408   8.656  13.847   1.228
78190SOL    HW136409   8.567  13.863   1.259
78190SOL    HW236410   8.699  13.932   1.231
78191SOL     OW36411  12.052   5.168   8.616
78191SOL    HW136412  11.968   5.180   8.660
78191SOL    HW236413  12.040   5.205   8.529
78192SOL     OW36414   3.106  12.365   5.082
78192SOL    HW136415   3.171  12.295   5.069
78192SOL    HW236416   3.114  12.388   5.175
78193SOL     OW36417   9.671   9.629   9.941
78193SOL    HW136418   9.595   9.577   9.968
78193SOL    HW236419   9.708   9.661  10.023
78194SOL     OW36420   0.246  13.922   3.024
78194SOL    HW136421   0.161  13.927   3.067
78194SOL    HW236422   0.306  13.893   3.093
78195SOL     OW36423   3.405  12.085  12.186
78195SOL    HW136424   3.388  12.057  12.276
78195SOL    HW236425   3.338  12.041  12.133
78196SOL     OW36426   7.620   6.688  14.557
78196SOL    HW136427   7.639   6.600  14.589
78196SOL    HW236428   7.537   6.678  14.510
78197SOL     OW36429   2.289   8.876  11.163
78197SOL    HW136430   2.291   8.815  11.236
78197SOL    HW236431   2.201   8.914  11.165
78198SOL     OW36432   9.548   8.159   4.774
78198SOL    HW136433   9.455   8.176   4.792
78198SOL    HW236434   9.591   8.165   4.860
78199SOL     OW36435   2.136  11.740  13.700
78199SOL    HW136436   2.195  11.815  13.700
78199SOL    HW236437   2.184  11.672  13.651
78200SOL     OW36438   1.013  12.105  10.758
78200SOL    HW136439   0.917  12.103  10.768
78200SOL    HW236440   1.038  12.194  10.782
78201SOL     OW36441   5.144   9.259   7.191
78201SOL    HW136442   5.116   9.339   7.235
78201SOL    HW236443   5.199   9.289   7.118
78202SOL     OW36444   5.950   4.508   8.337
78202SOL    HW136445   5.995   4.579   8.291
78202SOL    HW236446   5.891   4.553   8.397
78203SOL     OW36447   4.643  12.683   9.253
78203SOL    HW136448   4.627  12.659   9.162
78203SOL    HW236449   4.617  12.606   9.304
78204SOL     OW36450   3.565   0.692   4.002
78204SOL    HW136451   3.607   0.749   3.938
78204SOL    HW236452   3.629   0.624   4.020
78205SOL     OW36453   2.185   1.010  10.232
78205SOL    HW136454   2.123   1.001  10.159
78205SOL    HW236455   2.206   0.920  10.257
78206SOL     OW36456   2.750  13.052  10.194
78206SOL    HW136457   2.735  12.976  10.250
78206SOL    HW236458   2.684  13.045  10.125
78207SOL     OW36459   9.128  11.638   2.822
78207SOL    HW136460   9.152  11.632   2.729
78207SOL    HW236461   9.198  11.689   2.862
78208SOL     OW36462   4.120   4.482   5.513
78208SOL    HW136463   4.150   4.573   5.516
78208SOL    HW236464   4.056   4.477   5.584
78209SOL     OW36465  12.741  12.678  10.394
78209SOL    HW136466  12.671  12.636  10.444
78209SOL    HW236467  12.750  12.764  10.433
78210SOL     OW36468  11.908  12.133   4.049
78210SOL    HW136469  11.860  12.203   4.093
78210SOL    HW236470  11.996  12.137   4.087
78211SOL     OW36471  11.734   3.635  10.571
78211SOL    HW136472  11.706   3.601  10.486
78211SOL    HW236473  11.801   3.573  10.601
78212SOL     OW36474   0.758   8.614   8.712
78212SOL    HW136475   0.840   8.564   8.704
78212SOL    HW236476   0.692   8.548   8.733
78213SOL     OW36477   5.777  10.180  14.020
78213SOL    HW136478   5.777  10.104  13.962
78213SOL    HW236479   5.685  10.192  14.044
78214SOL     OW36480   5.081   8.768   5.957
78214SOL    HW136481   5.009   8.732   6.007
78214SOL    HW236482   5.042   8.838   5.904
78215SOL     OW36483  12.277   4.773   2.125
78215SOL    HW136484  12.228   4.729   2.055
78215SOL    HW236485  12.210   4.807   2.184
78216SOL     OW36486   6.334  12.919  10.434
78216SOL    HW136487   6.333  12.988  10.368
78216SOL    HW236488   6.417  12.874  10.420
78217SOL     OW36489   3.823  12.460   1.510
78217SOL    HW136490   3.752  12.514   1.546
78217SOL    HW236491   3.902  12.494   1.552
78218SOL     OW36492   7.614  10.947   5.210
78218SOL    HW136493   7.618  11.025   5.156
78218SOL    HW236494   7.520  10.933   5.225
78219SOL     OW36495  11.959  14.198  14.084
78219SOL    HW136496  11.980  14.280  14.040
78219SOL    HW236497  11.899  14.154  14.025
78220SOL     OW36498   6.985  11.111  14.184
78220SOL    HW136499   6.999  11.205  14.197
78220SOL    HW236500   7.028  11.091  14.101
78221SOL     OW36501  14.074  10.500  14.005
78221SOL    HW136502  14.006  10.499  14.072
78221SOL    HW236503  14.139  10.437  14.037
78222SOL     OW36504   0.215   1.997   0.953
78222SOL    HW136505   0.262   1.933   0.899
78222SOL    HW236506   0.264   2.001   1.035
78223SOL     OW36507   5.635  14.866   1.885
78223SOL    HW136508   5.563   0.028   1.833
78223SOL    HW236509   5.643   0.052   1.959
78224SOL     OW36510   0.392   0.498   8.530
78224SOL    HW136511   0.364   0.576   8.482
78224SOL    HW236512   0.432   0.442   8.464
78225SOL     OW36513   1.658   8.059   1.260
78225SOL    HW136514   1.637   8.068   1.353
78225SOL    HW236515   1.741   8.011   1.259
78226SOL     OW36516   9.726   0.357   7.711
78226SOL    HW136517   9.695   0.424   7.771
78226SOL    HW236518   9.756   0.405   7.634
78227SOL     OW36519   2.962   8.285  11.885
78227SOL    HW136520   2.965   8.370  11.840
78227SOL    HW236521   2.887   8.292  11.944
78228SOL     OW36522   4.978   3.651   3.992
78228SOL    HW136523   4.885   3.629   3.985
78228SOL    HW236524   4.994   3.657   4.086
78229SOL     OW36525  12.366  12.107  14.501
78229SOL    HW136526  12.419  12.178  14.465
78229SOL    HW236527  12.343  12.136  14.589
78230SOL     OW36528  11.419   5.736  13.040
78230SOL    HW136529  11.330   5.759  13.014
78230SOL    HW236530  11.434   5.786  13.120
78231SOL     OW36531   2.534   4.241  14.388
78231SOL    HW136532   2.466   4.307  14.376
78231SOL    HW236533   2.494   4.160  14.358
78232SOL     OW36534   8.297  12.515   4.047
78232SOL    HW136535   8.282  12.564   3.967
78232SOL    HW236536   8.322  12.428   4.018
78233SOL     OW36537   4.364  12.403  13.785
78233SOL    HW136538   4.275  12.423  13.816
78233SOL    HW236539   4.359  12.311  13.759
78234SOL     OW36540   7.473   5.482   9.232
78234SOL    HW136541   7.539   5.463   9.299
78234SOL    HW236542   7.507   5.560   9.187
78235SOL     OW36543   1.601  13.661  14.752
78235SOL    HW136544   1.550  13.737  14.723
78235SOL    HW236545   1.543  13.586  14.738
78236SOL     OW36546  11.050  13.242   3.803
78236SOL    HW136547  11.129  13.189   3.797
78236SOL    HW236548  10.980  13.179   3.821
78237SOL     OW36549   8.903  14.531  11.577
78237SOL    HW136550   8.910  14.569  11.490
78237SOL    HW236551   8.985  14.556  11.620
78238SOL     OW36552  11.629   7.743  10.185
78238SOL    HW136553  11.543   7.709  10.160
78238SOL    HW236554  11.691   7.677  10.155
78239SOL     OW36555  14.175   0.355  10.810
78239SOL    HW136556  14.166   0.411  10.888
78239SOL    HW236557  14.269   0.338  10.804
78240SOL     OW36558   2.616   9.516  13.560
78240SOL    HW136559   2.527   9.534  13.593
78240SOL    HW236560   2.615   9.422  13.541
78241SOL     OW36561   6.792   4.997  11.926
78241SOL    HW136562   6.705   5.020  11.961
78241SOL    HW236563   6.843   4.975  12.003
78242SOL     OW36564   5.976  14.390  11.827
78242SOL    HW136565   5.974  14.331  11.903
78242SOL    HW236566   5.885  14.396  11.799
78243SOL     OW36567   1.774   7.103   0.534
78243SOL    HW136568   1.832   7.134   0.603
78243SOL    HW236569   1.750   7.181   0.484
78244SOL     OW36570   0.536   9.332  13.870
78244SOL    HW136571   0.456   9.341  13.922
78244SOL    HW236572   0.602   9.380  13.920
78245SOL     OW36573   4.007   4.405  14.041
78245SOL    HW136574   3.925   4.356  14.039
78245SOL    HW236575   4.072   4.345  14.004
78246SOL     OW36576   1.160  11.407   2.105
78246SOL    HW136577   1.135  11.470   2.037
78246SOL    HW236578   1.196  11.333   2.057
78247SOL     OW36579   7.725   4.950  11.329
78247SOL    HW136580   7.734   4.973  11.236
78247SOL    HW236581   7.789   4.880  11.343
78248SOL     OW36582  11.139   4.751   9.165
78248SOL    HW136583  11.187   4.771   9.246
78248SOL    HW236584  11.180   4.806   9.099
78249SOL     OW36585   2.597   7.997  11.183
78249SOL    HW136586   2.590   7.947  11.264
78249SOL    HW236587   2.668   8.059  11.199
78250SOL     OW36588  10.375   5.470  10.968
78250SOL    HW136589  10.312   5.455  10.897
78250SOL    HW236590  10.332   5.435  11.046
78251SOL     OW36591   2.211  10.495  10.948
78251SOL    HW136592   2.245  10.445  10.874
78251SOL    HW236593   2.277  10.562  10.964
78252SOL     OW36594  13.168  11.547   2.277
78252SOL    HW136595  13.260  11.526   2.259
78252SOL    HW236596  13.128  11.558   2.191
78253SOL     OW36597   7.491  13.996   9.017
78253SOL    HW136598   7.452  14.083   9.007
78253SOL    HW236599   7.548  14.004   9.094
78254SOL     OW36600   7.770   6.849  14.118
78254SOL    HW136601   7.744   6.906  14.045
78254SOL    HW236602   7.758   6.903  14.196
78255SOL     OW36603   3.691  10.174  10.983
78255SOL    HW136604   3.638  10.232  10.929
78255SOL    HW236605   3.662  10.192  11.073
78256SOL     OW36606   2.714   5.601   1.490
78256SOL    HW136607   2.705   5.608   1.585
78256SOL    HW236608   2.721   5.508   1.473
78257SOL     OW36609   3.517  13.933   2.986
78257SOL    HW136610   3.527  13.902   3.076
78257SOL    HW236611   3.507  14.028   2.995
78258SOL     OW36612  14.084  14.102   1.746
78258SOL    HW136613  14.175  14.085   1.723
78258SOL    HW236614  14.034  14.044   1.689
78259SOL     OW36615   1.901   7.922   2.179
78259SOL    HW136616   1.988   7.898   2.209
78259SOL    HW236617   1.849   7.932   2.259
78260SOL     OW36618   8.177   9.097   8.306
78260SOL    HW136619   8.174   9.072   8.399
78260SOL    HW236620   8.206   9.018   8.261
78261SOL     OW36621   3.063   4.951   7.695
78261SOL    HW136622   3.067   4.949   7.791
78261SOL    HW236623   2.990   4.893   7.672
78262SOL     OW36624   7.946  14.332  13.159
78262SOL    HW136625   7.996  14.387  13.220
78262SOL    HW236626   8.009  14.309  13.090
78263SOL     OW36627   2.273   6.104   9.254
78263SOL    HW136628   2.184   6.084   9.225
78263SOL    HW236629   2.325   6.028   9.226
78264SOL     OW36630   4.779   2.685   3.600
78264SOL    HW136631   4.708   2.734   3.559
78264SOL    HW236632   4.790   2.728   3.685
78265SOL     OW36633  10.116  13.760   0.061
78265SOL    HW136634  10.064  13.840   0.066
78265SOL    HW236635  10.178  13.767   0.134
78266SOL     OW36636   1.023  13.880  14.842
78266SOL    HW136637   1.018  13.945   0.039
78266SOL    HW236638   0.958  13.909  14.778
78267SOL     OW36639   6.769  14.207  12.144
78267SOL    HW136640   6.683  14.169  12.127
78267SOL    HW236641   6.762  14.298  12.115
78268SOL     OW36642  12.212   1.631   0.232
78268SOL    HW136643  12.206   1.599   0.322
78268SOL    HW236644  12.181   1.557   0.179
78269SOL     OW36645   0.102   2.150   0.562
78269SOL    HW136646   0.178   2.207   0.557
78269SOL    HW236647   0.109   2.094   0.485
78270SOL     OW36648  11.185   5.662   9.465
78270SOL    HW136649  11.220   5.669   9.554
78270SOL    HW236650  11.091   5.653   9.476
78271SOL     OW36651  12.963   6.641  13.547
78271SOL    HW136652  12.949   6.713  13.609
78271SOL    HW236653  13.054   6.614  13.561
78272SOL     OW36654   6.814  12.849  13.892
78272SOL    HW136655   6.821  12.837  13.797
78272SOL    HW236656   6.868  12.779  13.929
78273SOL     OW36657   0.794   4.448  12.352
78273SOL    HW136658   0.755   4.429  12.437
78273SOL    HW236659   0.770   4.540  12.335
78274SOL     OW36660   5.755   9.560   4.434
78274SOL    HW136661   5.785   9.602   4.354
78274SOL    HW236662   5.704   9.627   4.479
78275SOL     OW36663  12.708   9.475   7.285
78275SOL    HW136664  12.629   9.470   7.231
78275SOL    HW236665  12.679   9.444   7.371
78276SOL     OW36666  10.118  10.309   7.676
78276SOL    HW136667  10.183  10.348   7.619
78276SOL    HW236668  10.040  10.301   7.622
78277SOL     OW36669  14.829  10.695   5.205
78277SOL    HW136670  14.869  10.708   5.119
78277SOL    HW236671  14.851  10.605   5.229
78278SOL     OW36672  11.508   0.200   6.142
78278SOL    HW136673  11.544   0.280   6.182
78278SOL    HW236674  11.564   0.130   6.174
78279SOL     OW36675  13.714   7.334   8.484
78279SOL    HW136676  13.776   7.341   8.412
78279SOL    HW236677  13.661   7.413   8.478
78280SOL     OW36678   7.408   0.000  11.671
78280SOL    HW136679   7.370  14.842  11.753
78280SOL    HW236680   7.362   0.082  11.654
78281SOL     OW36681   8.306   9.028   0.778
78281SOL    HW136682   8.217   9.063   0.784
78281SOL    HW236683   8.295   8.937   0.751
78282SOL     OW36684   3.652  13.397  13.609
78282SOL    HW136685   3.583  13.335  13.584
78282SOL    HW236686   3.691  13.358  13.687
78283SOL     OW36687   8.625  12.144   8.754
78283SOL    HW136688   8.635  12.213   8.689
78283SOL    HW236689   8.715  12.124   8.782
78284SOL     OW36690  14.401   2.965   8.093
78284SOL    HW136691  14.309   2.938   8.096
78284SOL    HW236692  14.450   2.889   8.123
78285SOL     OW36693  14.383  13.026   5.775
78285SOL    HW136694  14.289  13.023   5.793
78285SOL    HW236695  14.393  12.979   5.692
78286SOL     OW36696   8.599  14.468   2.993
78286SOL    HW136697   8.619  14.507   3.078
78286SOL    HW236698   8.503  14.461   2.993
78287SOL     OW36699  10.216   3.774   1.145
78287SOL    HW136700  10.134   3.803   1.107
78287SOL    HW236701  10.282   3.794   1.078
78288SOL     OW36702   6.325  13.590   7.728
78288SOL    HW136703   6.338  13.506   7.771
78288SOL    HW236704   6.405  13.639   7.747
78289SOL     OW36705   5.435  14.450   7.337
78289SOL    HW136706   5.506  14.503   7.374
78289SOL    HW236707   5.478  14.370   7.308
78290SOL     OW36708  14.638   4.626   9.897
78290SOL    HW136709  14.573   4.667   9.840
78290SOL    HW236710  14.678   4.699   9.944
78291SOL     OW36711  14.167   3.174  13.866
78291SOL    HW136712  14.256   3.197  13.841
78291SOL    HW236713  14.129   3.137  13.786
78292SOL     OW36714  12.703  12.454   2.192
78292SOL    HW136715  12.608  12.458   2.201
78292SOL    HW236716  12.720  12.484   2.103
78293SOL     OW36717  11.002   5.913   6.820
78293SOL    HW136718  11.073   5.942   6.878
78293SOL    HW236719  10.922   5.930   6.870
78294SOL     OW36720  10.695  14.604   6.411
78294SOL    HW136721  10.718  14.660   6.485
78294SOL    HW236722  10.776  14.598   6.360
78295SOL     OW36723   3.764   2.461   3.383
78295SOL    HW136724   3.759   2.470   3.288
78295SOL    HW236725   3.712   2.383   3.403
78296SOL     OW36726   7.125  10.898   6.916
78296SOL    HW136727   7.079  10.830   6.967
78296SOL    HW236728   7.207  10.911   6.962
78297SOL     OW36729   1.403  10.127   9.593
78297SOL    HW136730   1.449  10.074   9.527
78297SOL    HW236731   1.333  10.170   9.544
78298SOL     OW36732  12.742  13.170   3.990
78298SOL    HW136733  12.785  13.251   3.964
78298SOL    HW236734  12.759  13.110   3.918
78299SOL     OW36735   8.643   3.282   5.968
78299SOL    HW136736   8.696   3.307   5.892
78299SOL    HW236737   8.591   3.207   5.938
78300SOL     OW36738   5.467   3.403  13.129
78300SOL    HW136739   5.481   3.439  13.216
78300SOL    HW236740   5.385   3.353  13.137
78301SOL     OW36741   8.051   2.471   8.645
78301SOL    HW136742   8.089   2.507   8.564
78301SOL    HW236743   8.098   2.517   8.715
78302SOL     OW36744   7.970   0.029   7.243
78302SOL    HW136745   8.013  14.817   7.243
78302SOL    HW236746   7.883   0.012   7.280
78303SOL     OW36747  11.008   0.274   0.697
78303SOL    HW136748  11.019   0.364   0.728
78303SOL    HW236749  11.030   0.219   0.773
78304SOL     OW36750   2.522  12.299   5.020
78304SOL    HW136751   2.577  12.232   5.061
78304SOL    HW236752   2.499  12.358   5.092
78305SOL     OW36753  14.364   2.877   1.926
78305SOL    HW136754  14.444   2.926   1.907
78305SOL    HW236755  14.394   2.788   1.946
78306SOL     OW36756   1.832   9.038   8.658
78306SOL    HW136757   1.836   9.024   8.563
78306SOL    HW236758   1.920   9.068   8.682
78307SOL     OW36759   1.946   9.493   6.745
78307SOL    HW136760   2.007   9.567   6.743
78307SOL    HW236761   1.998   9.420   6.778
78308SOL     OW36762   0.047  12.460   6.139
78308SOL    HW136763   0.044  12.555   6.145
78308SOL    HW236764  14.836  12.431   6.173
78309SOL     OW36765   4.789   7.309   3.117
78309SOL    HW136766   4.857   7.377   3.116
78309SOL    HW236767   4.807   7.259   3.197
78310SOL     OW36768  10.888  10.926   2.181
78310SOL    HW136769  10.872  10.956   2.091
78310SOL    HW236770  10.817  10.965   2.232
78311SOL     OW36771   8.220  10.601   1.992
78311SOL    HW136772   8.310  10.633   2.001
78311SOL    HW236773   8.205  10.549   2.071
78312SOL     OW36774  14.695   0.738   8.140
78312SOL    HW136775  14.619   0.763   8.192
78312SOL    HW236776  14.697   0.801   8.068
78313SOL     OW36777   9.239   5.908  13.289
78313SOL    HW136778   9.229   5.928  13.382
78313SOL    HW236779   9.198   5.982  13.244
78314SOL     OW36780   4.180   4.582  12.264
78314SOL    HW136781   4.106   4.564  12.206
78314SOL    HW236782   4.241   4.634  12.211
78315SOL     OW36783   8.750   0.642   3.281
78315SOL    HW136784   8.778   0.572   3.340
78315SOL    HW236785   8.827   0.698   3.271
78316SOL     OW36786  12.852   6.078  12.116
78316SOL    HW136787  12.892   6.165  12.112
78316SOL    HW236788  12.897   6.034  12.188
78317SOL     OW36789  14.445   3.185  13.801
78317SOL    HW136790  14.447   3.215  13.710
78317SOL    HW236791  14.500   3.247  13.848
78318SOL     OW36792   6.208   9.590   1.596
78318SOL    HW136793   6.126   9.635   1.617
78318SOL    HW236794   6.219   9.604   1.502
78319SOL     OW36795   3.983  11.750  13.666
78319SOL    HW136796   3.890  11.765  13.686
78319SOL    HW236797   3.988  11.657  13.644
78320SOL     OW36798   3.053  10.163   2.332
78320SOL    HW136799   2.979  10.219   2.308
78320SOL    HW236800   3.074  10.115   2.252
78321SOL     OW36801  12.952   9.348   0.115
78321SOL    HW136802  12.993   9.401   0.046
78321SOL    HW236803  13.014   9.349   0.187
78322SOL     OW36804   3.517   1.899   5.981
78322SOL    HW136805   3.572   1.839   5.931
78322SOL    HW236806   3.566   1.917   6.061
78323SOL     OW36807   7.492  14.314  14.799
78323SOL    HW136808   7.490  14.227  14.839
78323SOL    HW236809   7.554  14.305  14.727
78324SOL     OW36810   3.642   5.278   8.449
78324SOL    HW136811   3.628   5.183   8.446
78324SOL    HW236812   3.703   5.290   8.522
78325SOL     OW36813   9.016   2.245  12.043
78325SOL    HW136814   8.951   2.176  12.052
78325SOL    HW236815   9.087   2.220  12.103
78326SOL     OW36816   7.430   8.652  13.373
78326SOL    HW136817   7.477   8.572  13.349
78326SOL    HW236818   7.446   8.661  13.467
78327SOL     OW36819   4.486   7.412  14.700
78327SOL    HW136820   4.564   7.424  14.755
78327SOL    HW236821   4.495   7.325  14.663
78328SOL     OW36822   7.100   1.975   1.613
78328SOL    HW136823   7.099   1.903   1.550
78328SOL    HW236824   7.062   1.937   1.693
78329SOL     OW36825   7.453   2.089   4.649
78329SOL    HW136826   7.468   2.173   4.694
78329SOL    HW236827   7.359   2.088   4.631
78330SOL     OW36828   9.238   6.305  13.494
78330SOL    HW136829   9.175   6.293  13.422
78330SOL    HW236830   9.319   6.330  13.451
78331SOL     OW36831   4.619  10.638  12.235
78331SOL    HW136832   4.640  10.699  12.306
78331SOL    HW236833   4.546  10.585  12.269
78332SOL     OW36834  11.676  13.609   7.874
78332SOL    HW136835  11.719  13.563   7.946
78332SOL    HW236836  11.733  13.684   7.856
78333SOL     OW36837   4.412  10.378  13.972
78333SOL    HW136838   4.434  10.387  13.879
78333SOL    HW236839   4.494  10.354  14.014
78334SOL     OW36840   1.270   3.335  13.971
78334SOL    HW136841   1.336   3.358  14.037
78334SOL    HW236842   1.189   3.375  14.003
78335SOL     OW36843   1.912   4.531   9.199
78335SOL    HW136844   1.924   4.601   9.135
78335SOL    HW236845   1.899   4.453   9.146
78336SOL     OW36846   3.046   3.685   8.928
78336SOL    HW136847   3.005   3.605   8.960
78336SOL    HW236848   3.117   3.702   8.990
78337SOL     OW36849   8.810   8.037  13.372
78337SOL    HW136850   8.728   8.065  13.412
78337SOL    HW236851   8.788   7.956  13.326
78338SOL     OW36852   9.887   5.338   3.441
78338SOL    HW136853   9.858   5.422   3.478
78338SOL    HW236854   9.979   5.332   3.466
78339SOL     OW36855  14.680   3.113   7.484
78339SOL    HW136856  14.722   3.033   7.516
78339SOL    HW236857  14.595   3.115   7.528
78340SOL     OW36858   0.196   4.489   6.838
78340SOL    HW136859   0.218   4.575   6.804
78340SOL    HW236860   0.233   4.489   6.927
78341SOL     OW36861   3.817   0.582   7.725
78341SOL    HW136862   3.723   0.599   7.724
78341SOL    HW236863   3.828   0.500   7.676
78342SOL     OW36864   4.099   4.791   5.157
78342SOL    HW136865   4.118   4.703   5.188
78342SOL    HW236866   4.125   4.790   5.065
78343SOL     OW36867  11.198  12.630   8.794
78343SOL    HW136868  11.120  12.578   8.772
78343SOL    HW236869  11.176  12.672   8.877
78344SOL     OW36870  13.883  14.492   7.099
78344SOL    HW136871  13.913  14.492   7.190
78344SOL    HW236872  13.873  14.585   7.077
78345SOL     OW36873  11.723   6.038   7.769
78345SOL    HW136874  11.637   6.050   7.730
78345SOL    HW236875  11.714   6.070   7.859
78346SOL     OW36876  13.574   9.959  11.252
78346SOL    HW136877  13.501   9.965  11.190
78346SOL    HW236878  13.547  10.012  11.326
78347SOL     OW36879  14.635  13.200   6.640
78347SOL    HW136880  14.612  13.161   6.724
78347SOL    HW236881  14.682  13.281   6.663
78348SOL     OW36882   6.583  13.671   7.952
78348SOL    HW136883   6.634  13.694   7.875
78348SOL    HW236884   6.621  13.588   7.981
78349SOL     OW36885   0.319   0.808   4.162
78349SOL    HW136886   0.276   0.878   4.210
78349SOL    HW236887   0.319   0.734   4.223
78350SOL     OW36888   6.969   5.219   8.505
78350SOL    HW136889   6.893   5.225   8.564
78350SOL    HW236890   6.931   5.213   8.417
78351SOL     OW36891   4.675  14.432   9.211
78351SOL    HW136892   4.652  14.348   9.170
78351SOL    HW236893   4.645  14.498   9.148
78352SOL     OW36894  11.321   9.256   3.512
78352SOL    HW136895  11.241   9.308   3.519
78352SOL    HW236896  11.304   9.196   3.439
78353SOL     OW36897   0.170   0.090   3.672
78353SOL    HW136898   0.130   0.072   3.587
78353SOL    HW236899   0.197   0.004   3.704
78354SOL     OW36900   5.503  14.163   5.272
78354SOL    HW136901   5.550  14.165   5.356
78354SOL    HW236902   5.477  14.072   5.261
78355SOL     OW36903  13.626   4.547   8.146
78355SOL    HW136904  13.682   4.624   8.150
78355SOL    HW236905  13.598   4.542   8.055
78356SOL     OW36906   4.537   6.693  13.249
78356SOL    HW136907   4.537   6.605  13.212
78356SOL    HW236908   4.506   6.749  13.178
78357SOL     OW36909   7.400   1.512   1.862
78357SOL    HW136910   7.489   1.481   1.846
78357SOL    HW236911   7.351   1.434   1.889
78358SOL     OW36912   8.177   2.355  13.805
78358SOL    HW136913   8.190   2.450  13.807
78358SOL    HW236914   8.263   2.319  13.780
78359SOL     OW36915  14.497   8.070   2.250
78359SOL    HW136916  14.456   8.154   2.272
78359SOL    HW236917  14.427   8.020   2.208
78360SOL     OW36918   0.789  12.120   3.563
78360SOL    HW136919   0.752  12.080   3.641
78360SOL    HW236920   0.884  12.116   3.576
78361SOL     OW36921   1.946   2.073   7.993
78361SOL    HW136922   1.932   2.116   7.908
78361SOL    HW236923   2.040   2.063   8.000
78362SOL     OW36924  14.848   2.599  14.850
78362SOL    HW136925  14.820   2.675  14.800
78362SOL    HW236926  14.848   2.527  14.787
78363SOL     OW36927   9.337  13.347   5.436
78363SOL    HW136928   9.308  13.335   5.527
78363SOL    HW236929   9.387  13.428   5.437
78364SOL     OW36930  10.326   3.156  14.523
78364SOL    HW136931  10.245   3.116  14.557
78364SOL    HW236932  10.380   3.081  14.497
78365SOL     OW36933  12.465   6.732  10.317
78365SOL    HW136934  12.496   6.803  10.373
78365SOL    HW236935  12.545   6.693  10.282
78366SOL     OW36936  13.409   3.860   7.568
78366SOL    HW136937  13.323   3.878   7.530
78366SOL    HW236938  13.397   3.778   7.617
78367SOL     OW36939   8.528  13.108   1.193
78367SOL    HW136940   8.574  13.187   1.166
78367SOL    HW236941   8.479  13.134   1.272
78368SOL     OW36942  14.228   8.704   9.370
78368SOL    HW136943  14.246   8.797   9.355
78368SOL    HW236944  14.147   8.687   9.321
78369SOL     OW36945   9.803  13.960  10.108
78369SOL    HW136946   9.776  13.940  10.197
78369SOL    HW236947   9.814  14.055  10.107
78370SOL     OW36948   8.957   3.625  12.965
78370SOL    HW136949   8.881   3.570  12.944
78370SOL    HW236950   8.921   3.693  13.023
78371SOL     OW36951   9.643   0.462   6.006
78371SOL    HW136952   9.700   0.537   6.016
78371SOL    HW236953   9.581   0.487   5.937
78372SOL     OW36954  13.684  14.409  14.097
78372SOL    HW136955  13.622  14.368  14.037
78372SOL    HW236956  13.644  14.493  14.120
78373SOL     OW36957   3.131   5.651  14.438
78373SOL    HW136958   3.172   5.568  14.462
78373SOL    HW236959   3.076   5.629  14.362
78374SOL     OW36960   8.332   5.070   8.592
78374SOL    HW136961   8.387   5.139   8.630
78374SOL    HW236962   8.321   5.095   8.501
78375SOL     OW36963   4.015  12.913   0.377
78375SOL    HW136964   3.956  12.975   0.334
78375SOL    HW236965   4.051  12.962   0.451
78376SOL     OW36966   4.148   0.175   8.981
78376SOL    HW136967   4.155   0.258   9.027
78376SOL    HW236968   4.066   0.137   9.011
78377SOL     OW36969   9.362   4.651   2.517
78377SOL    HW136970   9.370   4.715   2.587
78377SOL    HW236971   9.286   4.598   2.541
78378SOL     OW36972   1.586   9.554   4.785
78378SOL    HW136973   1.600   9.509   4.701
78378SOL    HW236974   1.604   9.646   4.765
78379SOL     OW36975   3.534   4.985   7.162
78379SOL    HW136976   3.467   4.918   7.153
78379SOL    HW236977   3.537   5.028   7.077
78380SOL     OW36978   7.139  13.587   2.563
78380SOL    HW136979   7.182  13.534   2.495
78380SOL    HW236980   7.119  13.670   2.520
78381SOL     OW36981  10.757  13.369  10.717
78381SOL    HW136982  10.792  13.445  10.763
78381SOL    HW236983  10.747  13.302  10.785
78382SOL     OW36984   6.945   1.544   1.222
78382SOL    HW136985   6.952   1.633   1.187
78382SOL    HW236986   6.954   1.487   1.145
78383SOL     OW36987   1.393   0.983   7.909
78383SOL    HW136988   1.311   1.028   7.930
78383SOL    HW236989   1.374   0.890   7.926
78384SOL     OW36990   6.216   6.501   3.698
78384SOL    HW136991   6.133   6.453   3.700
78384SOL    HW236992   6.228   6.531   3.788
78385SOL     OW36993   1.634   8.448  13.546
78385SOL    HW136994   1.691   8.467  13.471
78385SOL    HW236995   1.578   8.377  13.515
78386SOL     OW36996  14.826   9.686   4.689
78386SOL    HW136997   0.038   9.652   4.663
78386SOL    HW236998  14.770   9.608   4.696
78387SOL     OW36999   5.261  11.868   3.383
78387SOL    HW137000   5.288  11.784   3.421
78387SOL    HW237001   5.205  11.907   3.449
78388SOL     OW37002  12.393  12.010   8.229
78388SOL    HW137003  12.369  12.080   8.168
78388SOL    HW237004  12.460  11.959   8.182
78389SOL     OW37005   7.180   0.856  13.399
78389SOL    HW137006   7.171   0.769  13.438
78389SOL    HW237007   7.238   0.903  13.459
78390SOL     OW37008   3.120   5.532   5.662
78390SOL    HW137009   3.184   5.602   5.673
78390SOL    HW237010   3.151   5.462   5.720
78391SOL     OW37011   1.008   5.257  12.179
78391SOL    HW137012   1.033   5.211  12.259
78391SOL    HW237013   0.924   5.298  12.199
78392SOL     OW37014   5.114   0.020   4.548
78392SOL    HW137015   5.044  14.868   4.487
78392SOL    HW237016   5.181  14.826   4.538
78393SOL     OW37017  13.976   9.703  12.523
78393SOL    HW137018  13.901   9.734  12.574
78393SOL    HW237019  14.053   9.730  12.573
78394SOL     OW37020  14.268  14.389   5.254
78394SOL    HW137021  14.192  14.343   5.218
78394SOL    HW237022  14.230  14.450   5.317
78395SOL     OW37023   1.386  11.374  11.092
78395SOL    HW137024   1.387  11.348  11.184
78395SOL    HW237025   1.309  11.330  11.055
78396SOL     OW37026  11.751   6.904   8.819
78396SOL    HW137027  11.739   6.868   8.908
78396SOL    HW237028  11.744   6.828   8.762
78397SOL     OW37029   8.804  14.811   1.301
78397SOL    HW137030   8.734  14.830   1.363
78397SOL    HW237031   8.873  14.771   1.354
78398SOL     OW37032   6.843   6.260  10.601
78398SOL    HW137033   6.873   6.279  10.689
78398SOL    HW237034   6.839   6.346  10.558
78399SOL     OW37035  14.055   4.029   3.149
78399SOL    HW137036  13.977   4.073   3.114
78399SOL    HW237037  14.029   4.000   3.236
78400SOL     OW37038   3.454  10.083   5.824
78400SOL    HW137039   3.484  10.005   5.870
78400SOL    HW237040   3.489  10.073   5.735
78401SOL     OW37041   6.077   7.713  13.009
78401SOL    HW137042   6.162   7.670  13.024
78401SOL    HW237043   6.042   7.670  12.931
78402SOL     OW37044   3.135  11.926   4.782
78402SOL    HW137045   3.126  12.021   4.776
78402SOL    HW237046   3.225  11.912   4.812
78403SOL     OW37047   4.449  10.226   0.259
78403SOL    HW137048   4.477  10.298   0.315
78403SOL    HW237049   4.449  10.150   0.316
78404SOL     OW37050   4.491   1.653   4.804
78404SOL    HW137051   4.411   1.705   4.796
78404SOL    HW237052   4.520   1.667   4.894
78405SOL     OW37053  11.407   3.417   5.340
78405SOL    HW137054  11.377   3.501   5.306
78405SOL    HW237055  11.373   3.352   5.277
78406SOL     OW37056  10.893   0.008   2.336
78406SOL    HW137057  10.983   0.011   2.304
78406SOL    HW237058  10.879   0.092   2.379
78407SOL     OW37059   2.481   0.030   5.488
78407SOL    HW137060   2.449   0.076   5.566
78407SOL    HW237061   2.576   0.021   5.503
78408SOL     OW37062  13.906   7.754   2.235
78408SOL    HW137063  13.849   7.730   2.162
78408SOL    HW237064  13.955   7.674   2.255
78409SOL     OW37065  13.892  11.537   7.630
78409SOL    HW137066  13.806  11.562   7.664
78409SOL    HW237067  13.894  11.442   7.636
78410SOL     OW37068  11.308   1.473   6.898
78410SOL    HW137069  11.235   1.411   6.902
78410SOL    HW237070  11.304   1.510   6.810
78411SOL     OW37071  13.752   7.566   1.768
78411SOL    HW137072  13.722   7.508   1.699
78411SOL    HW237073  13.835   7.601   1.735
78412SOL     OW37074   6.696   8.069  12.745
78412SOL    HW137075   6.715   8.158  12.773
78412SOL    HW237076   6.701   8.017  12.825
78413SOL     OW37077   8.312  11.708   9.950
78413SOL    HW137078   8.397  11.694   9.909
78413SOL    HW237079   8.250  11.658   9.896
78414SOL     OW37080   6.279   5.645   2.103
78414SOL    HW137081   6.269   5.550   2.110
78414SOL    HW237082   6.374   5.659   2.097
78415SOL     OW37083   6.408   9.344   1.068
78415SOL    HW137084   6.462   9.350   0.989
78415SOL    HW237085   6.418   9.428   1.112
78416SOL     OW37086  11.765  13.532   6.450
78416SOL    HW137087  11.690  13.592   6.445
78416SOL    HW237088  11.791  13.533   6.542
78417SOL     OW37089  12.649   0.092  12.237
78417SOL    HW137090  12.654   0.005  12.275
78417SOL    HW237091  12.578   0.086  12.173
78418SOL     OW37092  12.854  11.101   9.631
78418SOL    HW137093  12.865  11.177   9.688
78418SOL    HW237094  12.943  11.073   9.611
78419SOL     OW37095  10.019   3.724   7.510
78419SOL    HW137096   9.984   3.772   7.435
78419SOL    HW237097   9.971   3.758   7.585
78420SOL     OW37098   8.020  10.278  11.373
78420SOL    HW137099   7.996  10.186  11.382
78420SOL    HW237100   8.106  10.284  11.415
78421SOL     OW37101   3.099   6.805  11.341
78421SOL    HW137102   3.129   6.761  11.261
78421SOL    HW237103   3.091   6.734  11.404
78422SOL     OW37104   4.750  12.627   0.070
78422SOL    HW137105   4.791  12.645   0.155
78422SOL    HW237106   4.737  12.713   0.030
78423SOL     OW37107  13.422   6.244   5.017
78423SOL    HW137108  13.362   6.253   5.091
78423SOL    HW237109  13.447   6.151   5.017
78424SOL     OW37110   2.829   2.943   8.963
78424SOL    HW137111   2.899   3.001   8.994
78424SOL    HW237112   2.875   2.877   8.911
78425SOL     OW37113   9.745   8.884  14.371
78425SOL    HW137114   9.770   8.965  14.417
78425SOL    HW237115   9.828   8.841  14.352
78426SOL     OW37116  14.695  13.020   0.520
78426SOL    HW137117  14.779  13.066   0.520
78426SOL    HW237118  14.630  13.090   0.534
78427SOL     OW37119   8.541  14.690   8.769
78427SOL    HW137120   8.542  14.785   8.785
78427SOL    HW237121   8.483  14.679   8.694
78428SOL     OW37122   8.262   3.570   5.978
78428SOL    HW137123   8.330   3.526   6.030
78428SOL    HW237124   8.181   3.548   6.024
78429SOL     OW37125  12.356   4.889   9.414
78429SOL    HW137126  12.311   4.830   9.354
78429SOL    HW237127  12.428   4.838   9.450
78430SOL     OW37128   2.776   8.442   8.763
78430SOL    HW137129   2.709   8.480   8.819
78430SOL    HW237130   2.852   8.499   8.773
78431SOL     OW37131   2.754   5.380   7.952
78431SOL    HW137132   2.809   5.417   8.021
78431SOL    HW237133   2.678   5.345   7.998
78432SOL     OW37134   4.267   5.219  14.743
78432SOL    HW137135   4.334   5.176  14.797
78432SOL    HW237136   4.313   5.292  14.701
78433SOL     OW37137  11.119  10.568   0.905
78433SOL    HW137138  11.130  10.476   0.929
78433SOL    HW237139  11.025  10.584   0.917
78434SOL     OW37140   7.213  14.208   7.470
78434SOL    HW137141   7.246  14.118   7.463
78434SOL    HW237142   7.264  14.246   7.542
78435SOL     OW37143  13.129   2.659  10.008
78435SOL    HW137144  13.060   2.604   9.971
78435SOL    HW237145  13.155   2.717   9.937
78436SOL     OW37146   7.358   3.248   0.508
78436SOL    HW137147   7.409   3.266   0.587
78436SOL    HW237148   7.423   3.230   0.441
78437SOL     OW37149  10.610  14.738  10.645
78437SOL    HW137150  10.586  14.759  10.555
78437SOL    HW237151  10.658  14.816  10.675
78438SOL     OW37152   1.867   1.641   7.326
78438SOL    HW137153   1.789   1.648   7.382
78438SOL    HW237154   1.931   1.699   7.368
78439SOL     OW37155  14.615  13.205  10.983
78439SOL    HW137156  14.525  13.219  10.956
78439SOL    HW237157  14.664  13.278  10.946
78440SOL     OW37158  12.181   1.735  12.290
78440SOL    HW137159  12.105   1.781  12.255
78440SOL    HW237160  12.210   1.791  12.362
78441SOL     OW37161   9.554   1.580   2.000
78441SOL    HW137162   9.568   1.587   1.906
78441SOL    HW237163   9.550   1.670   2.031
78442SOL     OW37164   4.623   1.574  11.286
78442SOL    HW137165   4.544   1.531  11.252
78442SOL    HW237166   4.694   1.512  11.266
78443SOL     OW37167   3.496   6.111   1.818
78443SOL    HW137168   3.423   6.173   1.812
78443SOL    HW237169   3.574   6.167   1.819
78444SOL     OW37170  11.590   5.452   4.512
78444SOL    HW137171  11.650   5.522   4.484
78444SOL    HW237172  11.546   5.426   4.431
78445SOL     OW37173   1.141  12.159  12.255
78445SOL    HW137174   1.166  12.250  12.242
78445SOL    HW237175   1.197  12.130  12.327
78446SOL     OW37176   5.336   6.688   9.308
78446SOL    HW137177   5.285   6.607   9.311
78446SOL    HW237178   5.396   6.681   9.382
78447SOL     OW37179  14.284   7.189  11.111
78447SOL    HW137180  14.371   7.212  11.146
78447SOL    HW237181  14.246   7.133  11.179
78448SOL     OW37182  14.741   5.866  13.581
78448SOL    HW137183  14.738   5.961  13.589
78448SOL    HW237184  14.769   5.851  13.490
78449SOL     OW37185   0.231  11.471   2.711
78449SOL    HW137186   0.286  11.426   2.647
78449SOL    HW237187   0.156  11.503   2.660
78450SOL     OW37188   5.708   7.430   6.710
78450SOL    HW137189   5.635   7.433   6.772
78450SOL    HW237190   5.668   7.446   6.625
78451SOL     OW37191   2.944   7.491  11.968
78451SOL    HW137192   2.995   7.535  11.901
78451SOL    HW237193   2.939   7.400  11.938
78452SOL     OW37194   1.337  10.380   7.572
78452SOL    HW137195   1.346  10.358   7.480
78452SOL    HW237196   1.427  10.379   7.606
78453SOL     OW37197   6.003  12.669  11.577
78453SOL    HW137198   6.088  12.680  11.535
78453SOL    HW237199   5.949  12.740  11.540
78454SOL     OW37200  11.306   6.142   1.946
78454SOL    HW137201  11.376   6.104   1.893
78454SOL    HW237202  11.342   6.145   2.034
78455SOL     OW37203  10.697   0.309   7.213
78455SOL    HW137204  10.623   0.323   7.273
78455SOL    HW237205  10.658   0.271   7.135
78456SOL     OW37206  10.002   1.460  10.080
78456SOL    HW137207   9.926   1.432  10.131
78456SOL    HW237208  10.032   1.540  10.123
78457SOL     OW37209   4.446  11.446   5.859
78457SOL    HW137210   4.446  11.352   5.844
78457SOL    HW237211   4.527  11.463   5.907
78458SOL     OW37212  14.347  13.901  11.347
78458SOL    HW137213  14.383  13.957  11.278
78458SOL    HW237214  14.373  13.944  11.429
78459SOL     OW37215   4.116  11.574   9.555
78459SOL    HW137216   4.108  11.484   9.586
78459SOL    HW237217   4.200  11.605   9.590
78460SOL     OW37218   5.993  12.235   1.282
78460SOL    HW137219   5.899  12.243   1.295
78460SOL    HW237220   6.032  12.295   1.346
78461SOL     OW37221   5.628   0.170   4.308
78461SOL    HW137222   5.576   0.167   4.388
78461SOL    HW237223   5.647   0.263   4.295
78462SOL     OW37224  13.863   7.547   0.472
78462SOL    HW137225  13.849   7.491   0.396
78462SOL    HW237226  13.859   7.636   0.436
78463SOL     OW37227   0.071   5.043   7.012
78463SOL    HW137228   0.131   5.102   6.966
78463SOL    HW237229   0.072   4.963   6.961
78464SOL     OW37230   5.488   6.106   9.171
78464SOL    HW137231   5.476   6.161   9.094
78464SOL    HW237232   5.559   6.047   9.147
78465SOL     OW37233   0.125   9.087  10.106
78465SOL    HW137234   0.075   9.044  10.175
78465SOL    HW237235   0.114   9.031  10.029
78466SOL     OW37236  11.892   6.379   8.148
78466SOL    HW137237  11.953   6.406   8.080
78466SOL    HW237238  11.805   6.396   8.110
78467SOL     OW37239   5.374  13.001   8.832
78467SOL    HW137240   5.344  13.090   8.818
78467SOL    HW237241   5.431  13.006   8.909
78468SOL     OW37242   3.180   7.460  14.709
78468SOL    HW137243   3.204   7.515  14.784
78468SOL    HW237244   3.259   7.411  14.689
78469SOL     OW37245  13.633   7.899  13.360
78469SOL    HW137246  13.616   7.902  13.454
78469SOL    HW237247  13.627   7.991  13.332
78470SOL     OW37248   5.371   3.200  10.866
78470SOL    HW137249   5.313   3.270  10.895
78470SOL    HW237250   5.316   3.144  10.811
78471SOL     OW37251   2.660   0.400   9.567
78471SOL    HW137252   2.715   0.378   9.643
78471SOL    HW237253   2.577   0.428   9.605
78472SOL     OW37254   2.016   0.444   7.043
78472SOL    HW137255   2.029   0.386   6.968
78472SOL    HW237256   2.039   0.531   7.012
78473SOL     OW37257   5.529  11.877  13.695
78473SOL    HW137258   5.470  11.922  13.635
78473SOL    HW237259   5.519  11.923  13.778
78474SOL     OW37260   7.149  10.326  14.560
78474SOL    HW137261   7.176  10.238  14.586
78474SOL    HW237262   7.054  10.325  14.568
78475SOL     OW37263  13.587   0.817   1.260
78475SOL    HW137264  13.529   0.775   1.196
78475SOL    HW237265  13.599   0.906   1.226
78476SOL     OW37266   6.697  12.205   9.236
78476SOL    HW137267   6.714  12.238   9.147
78476SOL    HW237268   6.625  12.143   9.225
78477SOL     OW37269   1.495   8.058   2.869
78477SOL    HW137270   1.420   8.106   2.836
78477SOL    HW237271   1.564   8.071   2.804
78478SOL     OW37272   4.977  13.780   2.643
78478SOL    HW137273   4.932  13.697   2.656
78478SOL    HW237274   4.910  13.836   2.603
78479SOL     OW37275  13.614   3.390  14.830
78479SOL    HW137276  13.663   3.435  14.761
78479SOL    HW237277  13.558   3.328  14.784
78480SOL     OW37278   1.645  13.768   5.253
78480SOL    HW137279   1.617  13.851   5.214
78480SOL    HW237280   1.631  13.703   5.184
78481SOL     OW37281   2.318   6.440   4.835
78481SOL    HW137282   2.278   6.523   4.860
78481SOL    HW237283   2.304   6.382   4.910
78482SOL     OW37284   1.972  14.293  14.376
78482SOL    HW137285   2.013  14.206  14.380
78482SOL    HW237286   1.971  14.315  14.283
78483SOL     OW37287  13.706  12.168   7.165
78483SOL    HW137288  13.636  12.228   7.140
78483SOL    HW237289  13.667  12.109   7.229
78484SOL     OW37290  13.907   2.207   0.565
78484SOL    HW137291  13.921   2.177   0.654
78484SOL    HW237292  13.877   2.298   0.574
78485SOL     OW37293   0.741   5.462  11.504
78485SOL    HW137294   0.724   5.443  11.412
78485SOL    HW237295   0.697   5.546  11.520
78486SOL     OW37296   9.286   5.369   5.790
78486SOL    HW137297   9.372   5.369   5.831
78486SOL    HW237298   9.281   5.452   5.743
78487SOL     OW37299  14.658   5.648  11.743
78487SOL    HW137300  14.677   5.556  11.725
78487SOL    HW237301  14.639   5.686  11.657
78488SOL     OW37302  11.957   5.305   3.155
78488SOL    HW137303  11.988   5.266   3.073
78488SOL    HW237304  11.932   5.395   3.130
78489SOL     OW37305   9.993  10.207   4.789
78489SOL    HW137306   9.942  10.177   4.864
78489SOL    HW237307  10.061  10.262   4.827
78490SOL     OW37308  13.972  14.535  13.681
78490SOL    HW137309  13.909  14.554  13.751
78490SOL    HW237310  13.970  14.440  13.673
78491SOL     OW37311   3.127   0.627   3.748
78491SOL    HW137312   3.142   0.535   3.770
78491SOL    HW237313   3.180   0.676   3.811
78492SOL     OW37314   2.846   1.405   7.206
78492SOL    HW137315   2.937   1.408   7.177
78492SOL    HW237316   2.801   1.470   7.152
78493SOL     OW37317   7.076   3.698  13.425
78493SOL    HW137318   6.996   3.750  13.415
78493SOL    HW237319   7.127   3.744  13.492
78494SOL     OW37320   3.013  13.010   0.605
78494SOL    HW137321   3.029  12.961   0.524
78494SOL    HW237322   2.933  13.059   0.587
78495SOL     OW37323   6.896   1.635   8.002
78495SOL    HW137324   6.837   1.710   8.014
78495SOL    HW237325   6.942   1.628   8.085
78496SOL     OW37326   6.993  13.328  10.932
78496SOL    HW137327   6.917  13.381  10.912
78496SOL    HW237328   7.037  13.315  10.848
78497SOL     OW37329   0.192   9.076   0.978
78497SOL    HW137330   0.269   9.048   0.929
78497SOL    HW237331   0.156   9.149   0.927
78498SOL     OW37332   3.414   3.577   3.145
78498SOL    HW137333   3.332   3.543   3.110
78498SOL    HW237334   3.450   3.504   3.196
78499SOL     OW37335  14.033  13.314   7.677
78499SOL    HW137336  14.026  13.301   7.772
78499SOL    HW237337  14.028  13.226   7.640
78500SOL     OW37338   1.669   5.511   7.228
78500SOL    HW137339   1.710   5.597   7.220
78500SOL    HW237340   1.705   5.461   7.154
78501SOL     OW37341   7.344  10.987   9.689
78501SOL    HW137342   7.412  10.976   9.755
78501SOL    HW237343   7.375  11.059   9.634
78502SOL     OW37344   1.034   6.145   5.289
78502SOL    HW137345   1.094   6.216   5.265
78502SOL    HW237346   0.975   6.138   5.214
78503SOL     OW37347   3.802   7.394  11.486
78503SOL    HW137348   3.887   7.350  11.480
78503SOL    HW237349   3.820   7.485  11.460
78504SOL     OW37350   2.443  14.696   6.769
78504SOL    HW137351   2.502  14.703   6.844
78504SOL    HW237352   2.481  14.628   6.714
78505SOL     OW37353   8.399   6.566   6.898
78505SOL    HW137354   8.440   6.581   6.984
78505SOL    HW237355   8.310   6.599   6.908
78506SOL     OW37356   4.732   0.590  12.082
78506SOL    HW137357   4.770   0.649  12.148
78506SOL    HW237358   4.681   0.648  12.025
78507SOL     OW37359   5.419   2.056  13.654
78507SOL    HW137360   5.509   2.075  13.631
78507SOL    HW237361   5.373   2.049  13.570
78508SOL     OW37362   1.165  13.460   4.874
78508SOL    HW137363   1.237  13.412   4.835
78508SOL    HW237364   1.102  13.471   4.802
78509SOL     OW37365   2.329   1.633  10.082
78509SOL    HW137366   2.417   1.670  10.091
78509SOL    HW237367   2.270   1.706  10.099
78510SOL     OW37368  11.871   9.344   1.167
78510SOL    HW137369  11.801   9.334   1.103
78510SOL    HW237370  11.930   9.408   1.128
78511SOL     OW37371   9.017   0.608  10.808
78511SOL    HW137372   9.110   0.615  10.826
78511SOL    HW237373   8.984   0.547  10.873
78512SOL     OW37374  14.802   0.025  12.292
78512SOL    HW137375   0.019   0.056  12.294
78512SOL    HW237376  14.807  14.810  12.256
78513SOL     OW37377  10.315  11.822  13.488
78513SOL    HW137378  10.406  11.812  13.459
78513SOL    HW237379  10.280  11.894  13.434
78514SOL     OW37380  10.600   3.836  12.490
78514SOL    HW137381  10.636   3.826  12.578
78514SOL    HW237382  10.675   3.866  12.437
78515SOL     OW37383   6.839   0.017  12.618
78515SOL    HW137384   6.849   0.042  12.710
78515SOL    HW237385   6.864   0.095  12.569
78516SOL     OW37386   0.526   1.326   6.798
78516SOL    HW137387   0.535   1.306   6.891
78516SOL    HW237388   0.574   1.409   6.787
78517SOL     OW37389   2.796  13.680   9.523
78517SOL    HW137390   2.793  13.588   9.498
78517SOL    HW237391   2.882  13.691   9.564
78518SOL     OW37392  14.804   5.280  14.397
78518SOL    HW137393   0.022   5.287  14.424
78518SOL    HW237394  14.795   5.344  14.325
78519SOL     OW37395   0.987   8.994   8.421
78519SOL    HW137396   1.037   8.923   8.463
78519SOL    HW237397   0.938   9.035   8.493
78520SOL     OW37398   9.700   3.025   9.475
78520SOL    HW137399   9.638   3.008   9.546
78520SOL    HW237400   9.645   3.032   9.397
78521SOL     OW37401  14.408   6.935   9.158
78521SOL    HW137402  14.468   6.982   9.216
78521SOL    HW237403  14.356   6.880   9.216
78522SOL     OW37404  13.583  10.211   1.504
78522SOL    HW137405  13.548  10.153   1.437
78522SOL    HW237406  13.565  10.299   1.471
78523SOL     OW37407   5.726   7.643  13.230
78523SOL    HW137408   5.736   7.550  13.246
78523SOL    HW237409   5.675   7.648  13.149
78524SOL     OW37410  10.671   8.059   1.438
78524SOL    HW137411  10.664   8.022   1.350
78524SOL    HW237412  10.719   8.140   1.427
78525SOL     OW37413  14.740   4.228  11.230
78525SOL    HW137414  14.736   4.147  11.280
78525SOL    HW237415  14.798   4.285  11.282
78526SOL     OW37416   1.815   6.973   4.233
78526SOL    HW137417   1.814   6.911   4.305
78526SOL    HW237418   1.880   6.939   4.172
78527SOL     OW37419   9.118   4.289   3.677
78527SOL    HW137420   9.029   4.268   3.650
78527SOL    HW237421   9.167   4.296   3.595
78528SOL     OW37422  14.225  13.711   0.905
78528SOL    HW137423  14.183  13.783   0.858
78528SOL    HW237424  14.274  13.753   0.976
78529SOL     OW37425  10.871   6.789   4.008
78529SOL    HW137426  10.782   6.756   3.996
78529SOL    HW237427  10.867   6.880   3.978
78530SOL     OW37428   2.351   1.888  11.141
78530SOL    HW137429   2.258   1.874  11.161
78530SOL    HW237430   2.384   1.801  11.120
78531SOL     OW37431   5.514   3.167   6.632
78531SOL    HW137432   5.565   3.208   6.703
78531SOL    HW237433   5.575   3.162   6.559
78532SOL     OW37434   8.627  13.223   0.842
78532SOL    HW137435   8.629  13.163   0.916
78532SOL    HW237436   8.684  13.296   0.867
78533SOL     OW37437  13.732  14.152  10.099
78533SOL    HW137438  13.673  14.223  10.076
78533SOL    HW237439  13.743  14.102  10.017
78534SOL     OW37440   5.651  11.458  13.567
78534SOL    HW137441   5.700  11.498  13.495
78534SOL    HW237442   5.648  11.526  13.634
78535SOL     OW37443  10.596  13.806  11.292
78535SOL    HW137444  10.504  13.830  11.282
78535SOL    HW237445  10.627  13.860  11.365
78536SOL     OW37446   7.219  13.715   2.810
78536SOL    HW137447   7.191  13.804   2.791
78536SOL    HW237448   7.174  13.661   2.745
78537SOL     OW37449   0.075   5.285   4.448
78537SOL    HW137450   0.040   5.196   4.441
78537SOL    HW237451   0.080   5.316   4.358
78538SOL     OW37452   0.790   0.508   5.400
78538SOL    HW137453   0.739   0.583   5.369
78538SOL    HW237454   0.866   0.547   5.443
78539SOL     OW37455  11.911   0.802   9.172
78539SOL    HW137456  11.995   0.804   9.217
78539SOL    HW237457  11.924   0.859   9.096
78540SOL     OW37458  11.272  10.523  13.913
78540SOL    HW137459  11.229  10.441  13.889
78540SOL    HW237460  11.347  10.496  13.967
78541SOL     OW37461   0.423  14.145  11.274
78541SOL    HW137462   0.358  14.171  11.209
78541SOL    HW237463   0.456  14.228  11.309
78542SOL     OW37464  13.758  10.484  12.684
78542SOL    HW137465  13.748  10.478  12.779
78542SOL    HW237466  13.852  10.477  12.669
78543SOL     OW37467  12.972   8.115   6.773
78543SOL    HW137468  13.021   8.086   6.696
78543SOL    HW237469  12.927   8.037   6.804
78544SOL     OW37470   6.620  14.244  10.434
78544SOL    HW137471   6.539  14.293  10.423
78544SOL    HW237472   6.678  14.302  10.483
78545SOL     OW37473   8.594  14.479   6.023
78545SOL    HW137474   8.602  14.409   5.958
78545SOL    HW237475   8.586  14.433   6.107
78546SOL     OW37476  10.928   0.266   7.718
78546SOL    HW137477  10.944   0.185   7.669
78546SOL    HW237478  11.010   0.315   7.711
78547SOL     OW37479   9.132   9.851  12.088
78547SOL    HW137480   9.111   9.890  12.003
78547SOL    HW237481   9.119   9.757  12.075
78548SOL     OW37482   0.091   3.876   6.908
78548SOL    HW137483   0.037   3.939   6.861
78548SOL    HW237484   0.180   3.893   6.878
78549SOL     OW37485  12.564   6.060   6.237
78549SOL    HW137486  12.477   6.042   6.201
78549SOL    HW237487  12.571   6.155   6.235
78550SOL     OW37488   5.929   3.797  13.437
78550SOL    HW137489   5.957   3.888  13.422
78550SOL    HW237490   5.977   3.747  13.370
78551SOL     OW37491   7.055   5.432  11.123
78551SOL    HW137492   7.104   5.514  11.124
78551SOL    HW237493   7.041   5.415  11.030
78552SOL     OW37494   8.390   6.638   6.471
78552SOL    HW137495   8.418   6.571   6.533
78552SOL    HW237496   8.407   6.600   6.385
78553SOL     OW37497  11.858   6.472   9.091
78553SOL    HW137498  11.800   6.421   9.147
78553SOL    HW237499  11.936   6.417   9.081
78554SOL     OW37500   6.627  12.602   6.216
78554SOL    HW137501   6.577  12.670   6.171
78554SOL    HW237502   6.696  12.579   6.154
78555SOL     OW37503   8.652   5.551  11.408
78555SOL    HW137504   8.662   5.469  11.360
78555SOL    HW237505   8.700   5.537  11.490
78556SOL     OW37506  10.803  11.336  12.508
78556SOL    HW137507  10.735  11.368  12.448
78556SOL    HW237508  10.790  11.242  12.510
78557SOL     OW37509  13.625   8.932  10.535
78557SOL    HW137510  13.612   8.855  10.590
78557SOL    HW237511  13.552   8.990  10.557
78558SOL     OW37512  11.932   6.092   1.917
78558SOL    HW137513  11.841   6.087   1.946
78558SOL    HW237514  11.979   6.125   1.994
78559SOL     OW37515  13.570   1.613   7.985
78559SOL    HW137516  13.561   1.583   8.075
78559SOL    HW237517  13.661   1.644   7.978
78560SOL     OW37518   0.483   4.360   8.779
78560SOL    HW137519   0.509   4.362   8.687
78560SOL    HW237520   0.402   4.411   8.782
78561SOL     OW37521   8.852  12.067   2.087
78561SOL    HW137522   8.908  12.088   2.161
78561SOL    HW237523   8.883  11.982   2.055
78562SOL     OW37524   9.794   3.977   4.256
78562SOL    HW137525   9.825   4.064   4.231
78562SOL    HW237526   9.817   3.969   4.349
78563SOL     OW37527   4.326  10.734   8.832
78563SOL    HW137528   4.359  10.712   8.745
78563SOL    HW237529   4.402  10.770   8.878
78564SOL     OW37530   6.725   2.712   6.885
78564SOL    HW137531   6.691   2.676   6.967
78564SOL    HW237532   6.757   2.636   6.837
78565SOL     OW37533  12.833   9.836   1.811
78565SOL    HW137534  12.752   9.852   1.860
78565SOL    HW237535  12.902   9.869   1.869
78566SOL     OW37536  12.345   9.812  14.231
78566SOL    HW137537  12.424   9.770  14.265
78566SOL    HW237538  12.341   9.784  14.140
78567SOL     OW37539   8.548  12.115   0.997
78567SOL    HW137540   8.583  12.194   0.957
78567SOL    HW237541   8.535  12.138   1.089
78568SOL     OW37542   3.809   2.354   9.286
78568SOL    HW137543   3.771   2.432   9.245
78568SOL    HW237544   3.737   2.292   9.293
78569SOL     OW37545  13.353   7.804  10.636
78569SOL    HW137546  13.401   7.771  10.712
78569SOL    HW237547  13.294   7.733  10.611
78570SOL     OW37548  11.014  11.191   8.887
78570SOL    HW137549  11.006  11.186   8.792
78570SOL    HW237550  11.060  11.274   8.903
78571SOL     OW37551   2.311  14.590   5.222
78571SOL    HW137552   2.353  14.504   5.218
78571SOL    HW237553   2.253  14.584   5.298
78572SOL     OW37554  10.379   6.984   5.850
78572SOL    HW137555  10.288   6.987   5.881
78572SOL    HW237556  10.430   6.967   5.928
78573SOL     OW37557   2.612   6.959  14.522
78573SOL    HW137558   2.666   6.954  14.600
78573SOL    HW237559   2.661   6.911  14.455
78574SOL     OW37560   6.751   3.591   9.401
78574SOL    HW137561   6.820   3.599   9.468
78574SOL    HW237562   6.689   3.529   9.438
78575SOL     OW37563  11.245  10.909   7.019
78575SOL    HW137564  11.315  10.972   7.007
78575SOL    HW237565  11.193  10.944   7.091
78576SOL     OW37566  12.351   1.805  11.375
78576SOL    HW137567  12.347   1.840  11.286
78576SOL    HW237568  12.349   1.710  11.364
78577SOL     OW37569   4.755  13.459   9.621
78577SOL    HW137570   4.740  13.374   9.662
78577SOL    HW237571   4.683  13.514   9.653
78578SOL     OW37572   5.691   7.576  14.701
78578SOL    HW137573   5.704   7.619  14.616
78578SOL    HW237574   5.623   7.511  14.686
78579SOL     OW37575   3.485  10.193   2.613
78579SOL    HW137576   3.569  10.159   2.583
78579SOL    HW237577   3.420  10.133   2.574
78580SOL     OW37578   3.327   7.874   6.830
78580SOL    HW137579   3.380   7.823   6.891
78580SOL    HW237580   3.251   7.901   6.881
78581SOL     OW37581   4.350   6.576  13.860
78581SOL    HW137582   4.388   6.584  13.947
78581SOL    HW237583   4.422   6.593  13.800
78582SOL     OW37584   9.565   3.079   1.618
78582SOL    HW137585   9.653   3.114   1.631
78582SOL    HW237586   9.518   3.100   1.699
78583SOL     OW37587   8.185   0.067   0.991
78583SOL    HW137588   8.168   0.143   0.936
78583SOL    HW237589   8.258   0.023   0.947
78584SOL     OW37590   1.237   5.087   4.995
78584SOL    HW137591   1.152   5.064   5.033
78584SOL    HW237592   1.260   5.171   5.034
78585SOL     OW37593   9.720   8.160  11.295
78585SOL    HW137594   9.803   8.206  11.301
78585SOL    HW237595   9.699   8.159  11.202
78586SOL     OW37596   5.740   7.111   5.016
78586SOL    HW137597   5.686   7.049   5.065
78586SOL    HW237598   5.807   7.057   4.974
78587SOL     OW37599   2.343   8.382   3.608
78587SOL    HW137600   2.266   8.436   3.627
78587SOL    HW237601   2.332   8.355   3.517
78588SOL     OW37602   8.190  11.440   4.501
78588SOL    HW137603   8.260  11.439   4.435
78588SOL    HW237604   8.237  11.434   4.585
78589SOL     OW37605  13.045   3.082   1.568
78589SOL    HW137606  12.957   3.054   1.593
78589SOL    HW237607  13.082   3.006   1.521
78590SOL     OW37608   3.949   4.907   4.699
78590SOL    HW137609   3.880   4.841   4.702
78590SOL    HW237610   3.975   4.910   4.607
78591SOL     OW37611  11.551   7.781   4.275
78591SOL    HW137612  11.484   7.752   4.337
78591SOL    HW237613  11.502   7.808   4.197
78592SOL     OW37614  11.788  13.789  10.318
78592SOL    HW137615  11.789  13.870  10.268
78592SOL    HW237616  11.873  13.786  10.362
78593SOL     OW37617   4.518  14.292  10.678
78593SOL    HW137618   4.541  14.204  10.710
78593SOL    HW237619   4.536  14.350  10.751
78594SOL     OW37620   2.765  14.671  12.306
78594SOL    HW137621   2.696  14.671  12.372
78594SOL    HW237622   2.824  14.600  12.333
78595SOL     OW37623  10.983   8.141  13.862
78595SOL    HW137624  10.948   8.096  13.785
78595SOL    HW237625  11.001   8.071  13.924
78596SOL     OW37626   1.074  14.127   8.151
78596SOL    HW137627   1.151  14.104   8.203
78596SOL    HW237628   1.010  14.158   8.215
78597SOL     OW37629  12.890  11.222   0.883
78597SOL    HW137630  12.984  11.226   0.866
78597SOL    HW237631  12.872  11.128   0.892
78598SOL     OW37632   5.219  12.039   0.237
78598SOL    HW137633   5.273  12.047   0.158
78598SOL    HW237634   5.129  12.036   0.204
78599SOL     OW37635  11.125   4.671   3.370
78599SOL    HW137636  11.033   4.685   3.393
78599SOL    HW237637  11.128   4.580   3.339
78600SOL     OW37638  11.746   7.873  12.156
78600SOL    HW137639  11.670   7.870  12.099
78600SOL    HW237640  11.799   7.798  12.129
78601SOL     OW37641   8.590  12.551   9.963
78601SOL    HW137642   8.525  12.548  10.033
78601SOL    HW237643   8.567  12.478   9.905
78602SOL     OW37644   9.898   2.124  12.642
78602SOL    HW137645   9.923   2.159  12.727
78602SOL    HW237646   9.835   2.188  12.607
78603SOL     OW37647   7.751   8.413  13.679
78603SOL    HW137648   7.761   8.387  13.771
78603SOL    HW237649   7.696   8.345  13.641
78604SOL     OW37650  13.079   8.201   7.412
78604SOL    HW137651  13.086   8.294   7.433
78604SOL    HW237652  12.997   8.173   7.452
78605SOL     OW37653  13.988  11.817   1.256
78605SOL    HW137654  14.024  11.893   1.209
78605SOL    HW237655  13.921  11.782   1.197
78606SOL     OW37656   3.219   4.049   8.428
78606SOL    HW137657   3.244   4.036   8.519
78606SOL    HW237658   3.214   3.961   8.391
78607SOL     OW37659   2.016   7.452   1.754
78607SOL    HW137660   2.028   7.451   1.849
78607SOL    HW237661   1.983   7.364   1.734
78608SOL     OW37662  14.769   8.119  11.484
78608SOL    HW137663  14.703   8.128  11.415
78608SOL    HW237664  14.815   8.037  11.463
78609SOL     OW37665  13.255   3.830   9.070
78609SOL    HW137666  13.340   3.865   9.043
78609SOL    HW237667  13.274   3.742   9.101
78610SOL     OW37668   8.467   2.095   7.106
78610SOL    HW137669   8.422   2.060   7.183
78610SOL    HW237670   8.460   2.190   7.116
78611SOL     OW37671  10.557   6.268   6.106
78611SOL    HW137672  10.503   6.322   6.164
78611SOL    HW237673  10.534   6.298   6.018
78612SOL     OW37674   4.710   0.780   7.912
78612SOL    HW137675   4.646   0.711   7.925
78612SOL    HW237676   4.772   0.769   7.984
78613SOL     OW37677   6.562  10.075   2.201
78613SOL    HW137678   6.657  10.076   2.202
78613SOL    HW237679   6.537  10.027   2.280
78614SOL     OW37680   6.753   8.847   6.200
78614SOL    HW137681   6.681   8.813   6.253
78614SOL    HW237682   6.710   8.886   6.124
78615SOL     OW37683   8.262   5.389   6.643
78615SOL    HW137684   8.329   5.347   6.589
78615SOL    HW237685   8.295   5.478   6.658
78616SOL     OW37686  13.748  10.466   6.329
78616SOL    HW137687  13.757  10.549   6.375
78616SOL    HW237688  13.830  10.457   6.280
78617SOL     OW37689  12.476   0.644   6.379
78617SOL    HW137690  12.386   0.676   6.390
78617SOL    HW237691  12.466   0.566   6.323
78618SOL     OW37692   6.277  11.599   1.314
78618SOL    HW137693   6.304  11.642   1.395
78618SOL    HW237694   6.344  11.625   1.250
78619SOL     OW37695   7.931  13.628   9.431
78619SOL    HW137696   7.945  13.693   9.500
78619SOL    HW237697   7.840  13.639   9.406
78620SOL     OW37698   3.490   3.866   1.364
78620SOL    HW137699   3.501   3.946   1.313
78620SOL    HW237700   3.578   3.829   1.369
78621SOL     OW37701   9.018  13.577   8.765
78621SOL    HW137702   9.058  13.492   8.782
78621SOL    HW237703   9.002  13.614   8.852
78622SOL     OW37704   7.709  11.010   4.602
78622SOL    HW137705   7.743  11.001   4.691
78622SOL    HW237706   7.664  11.094   4.602
78623SOL     OW37707  13.784   1.999   7.682
78623SOL    HW137708  13.785   1.907   7.654
78623SOL    HW237709  13.705   2.006   7.736
78624SOL     OW37710   9.160   5.338   5.116
78624SOL    HW137711   9.202   5.406   5.062
78624SOL    HW237712   9.090   5.384   5.162
78625SOL     OW37713   4.139  14.724   6.042
78625SOL    HW137714   4.224  14.730   5.999
78625SOL    HW237715   4.113  14.633   6.029
78626SOL     OW37716   2.485  11.353   5.256
78626SOL    HW137717   2.456  11.397   5.336
78626SOL    HW237718   2.541  11.418   5.212
78627SOL     OW37719  11.358   3.712   6.500
78627SOL    HW137720  11.267   3.720   6.526
78627SOL    HW237721  11.373   3.788   6.443
78628SOL     OW37722   9.111   3.906   9.719
78628SOL    HW137723   9.024   3.941   9.740
78628SOL    HW237724   9.114   3.821   9.763
78629SOL     OW37725   8.258   6.115  13.437
78629SOL    HW137726   8.266   6.186  13.501
78629SOL    HW237727   8.185   6.141  13.381
78630SOL     OW37728  11.484   4.552   0.213
78630SOL    HW137729  11.390   4.538   0.209
78630SOL    HW237730  11.500   4.630   0.160
78631SOL     OW37731  10.122   6.672  13.843
78631SOL    HW137732  10.211   6.687  13.875
78631SOL    HW237733  10.119   6.720  13.760
78632SOL     OW37734   1.846   1.185  12.335
78632SOL    HW137735   1.786   1.163  12.264
78632SOL    HW237736   1.911   1.243  12.295
78633SOL     OW37737  11.297   5.145   7.671
78633SOL    HW137738  11.246   5.222   7.697
78633SOL    HW237739  11.234   5.088   7.627
78634SOL     OW37740   7.523  10.753   4.779
78634SOL    HW137741   7.608  10.795   4.786
78634SOL    HW237742   7.472  10.810   4.722
78635SOL     OW37743  12.204   1.086  12.656
78635SOL    HW137744  12.170   1.003  12.690
78635SOL    HW237745  12.242   1.063  12.571
78636SOL     OW37746  14.574   6.275   6.484
78636SOL    HW137747  14.504   6.339   6.495
78636SOL    HW237748  14.544   6.198   6.532
78637SOL     OW37749   3.839  12.758   9.516
78637SOL    HW137750   3.909  12.693   9.522
78637SOL    HW237751   3.842  12.789   9.425
78638SOL     OW37752  14.451   4.795   4.663
78638SOL    HW137753  14.494   4.826   4.583
78638SOL    HW237754  14.359   4.787   4.639
78639SOL     OW37755  14.222   6.437   3.189
78639SOL    HW137756  14.222   6.519   3.140
78639SOL    HW237757  14.132   6.428   3.222
78640SOL     OW37758  13.377   6.331   9.488
78640SOL    HW137759  13.369   6.425   9.474
78640SOL    HW237760  13.293   6.295   9.460
78641SOL     OW37761   8.040   7.357  13.764
78641SOL    HW137762   8.074   7.269  13.776
78641SOL    HW237763   7.983   7.351  13.687
78642SOL     OW37764  13.681   9.457   1.070
78642SOL    HW137765  13.712   9.467   0.980
78642SOL    HW237766  13.587   9.447   1.062
78643SOL     OW37767   0.915  11.978   4.324
78643SOL    HW137768   1.010  11.965   4.327
78643SOL    HW237769   0.900  12.027   4.243
78644SOL     OW37770  14.361   9.343   6.780
78644SOL    HW137771  14.311   9.304   6.709
78644SOL    HW237772  14.403   9.419   6.741
78645SOL     OW37773  14.375   6.570  10.106
78645SOL    HW137774  14.336   6.510  10.170
78645SOL    HW237775  14.308   6.580  10.039
78646SOL     OW37776   3.880   2.331  13.268
78646SOL    HW137777   3.950   2.280  13.309
78646SOL    HW237778   3.902   2.331  13.175
78647SOL     OW37779   5.285   6.699  14.480
78647SOL    HW137780   5.318   6.622  14.527
78647SOL    HW237781   5.306   6.682  14.388
78648SOL     OW37782   8.955   0.823   3.254
78648SOL    HW137783   8.989   0.804   3.167
78648SOL    HW237784   9.021   0.788   3.314
78649SOL     OW37785  10.864  14.636   7.281
78649SOL    HW137786  10.854  14.563   7.341
78649SOL    HW237787  10.806  14.615   7.208
78650SOL     OW37788   0.067   7.624   9.470
78650SOL    HW137789   0.110   7.551   9.515
78650SOL    HW237790  14.856   7.633   9.515
78651SOL     OW37791   7.705  11.317  12.145
78651SOL    HW137792   7.659  11.248  12.194
78651SOL    HW237793   7.769  11.270  12.092
78652SOL     OW37794   4.423  10.449  10.044
78652SOL    HW137795   4.417  10.494   9.960
78652SOL    HW237796   4.513  10.466  10.073
78653SOL     OW37797   9.096   0.674  12.886
78653SOL    HW137798   9.028   0.645  12.826
78653SOL    HW237799   9.048   0.717  12.957
78654SOL     OW37800  11.721   7.980  14.772
78654SOL    HW137801  11.646   8.037  14.788
78654SOL    HW237802  11.752   8.004  14.685
78655SOL     OW37803   4.035  14.403   8.000
78655SOL    HW137804   3.985  14.443   8.071
78655SOL    HW237805   4.125  14.430   8.016
78656SOL     OW37806  13.799  10.494   5.454
78656SOL    HW137807  13.854  10.416   5.453
78656SOL    HW237808  13.839  10.552   5.389
78657SOL     OW37809   5.792  11.008   9.825
78657SOL    HW137810   5.887  11.018   9.836
78657SOL    HW237811   5.773  10.920   9.858
78658SOL     OW37812   7.168  12.702  10.723
78658SOL    HW137813   7.151  12.786  10.764
78658SOL    HW237814   7.262  12.702  10.704
78659SOL     OW37815   2.984   5.112   1.642
78659SOL    HW137816   2.992   5.185   1.703
78659SOL    HW237817   3.040   5.043   1.679
78660SOL     OW37818   7.628   4.146   3.250
78660SOL    HW137819   7.598   4.055   3.250
78660SOL    HW237820   7.607   4.178   3.337
78661SOL     OW37821  10.787   7.688  13.485
78661SOL    HW137822  10.721   7.695  13.554
78661SOL    HW237823  10.760   7.610  13.436
78662SOL     OW37824   9.097   7.820   5.830
78662SOL    HW137825   9.128   7.803   5.741
78662SOL    HW237826   9.123   7.742   5.880
78663SOL     OW37827   5.878  11.601   9.901
78663SOL    HW137828   5.967  11.600   9.935
78663SOL    HW237829   5.826  11.552   9.965
78664SOL     OW37830   3.842  10.547  10.328
78664SOL    HW137831   3.816  10.456  10.342
78664SOL    HW237832   3.763  10.597  10.349
78665SOL     OW37833   9.989   2.246   4.695
78665SOL    HW137834   9.981   2.240   4.600
78665SOL    HW237835   9.898   2.247   4.726
78666SOL     OW37836   9.585   2.359   7.178
78666SOL    HW137837   9.508   2.307   7.197
78666SOL    HW237838   9.562   2.407   7.098
78667SOL     OW37839  14.423  14.497   6.489
78667SOL    HW137840  14.460  14.522   6.573
78667SOL    HW237841  14.406  14.403   6.497
78668SOL     OW37842  13.036  13.457  11.426
78668SOL    HW137843  13.075  13.530  11.378
78668SOL    HW237844  13.111  13.416  11.470
78669SOL     OW37845  13.574  11.588   0.187
78669SOL    HW137846  13.663  11.621   0.197
78669SOL    HW237847  13.571  11.511   0.245
78670SOL     OW37848  10.216   0.698   3.044
78670SOL    HW137849  10.139   0.709   2.987
78670SOL    HW237850  10.247   0.610   3.026
78671SOL     OW37851  10.671  12.354   9.263
78671SOL    HW137852  10.645  12.369   9.354
78671SOL    HW237853  10.727  12.428   9.241
78672SOL     OW37854   6.852   6.930   8.863
78672SOL    HW137855   6.911   6.857   8.846
78672SOL    HW237856   6.815   6.911   8.949
78673SOL     OW37857   5.649  12.118   9.627
78673SOL    HW137858   5.634  12.023   9.626
78673SOL    HW237859   5.573  12.155   9.584
78674SOL     OW37860   1.376   0.955   8.841
78674SOL    HW137861   1.427   1.028   8.807
78674SOL    HW237862   1.373   0.892   8.769
78675SOL     OW37863  13.496   9.601   0.274
78675SOL    HW137864  13.421   9.550   0.305
78675SOL    HW237865  13.570   9.566   0.324
78676SOL     OW37866  13.227   9.331   2.229
78676SOL    HW137867  13.242   9.248   2.275
78676SOL    HW237868  13.301   9.338   2.169
78677SOL     OW37869   1.831  11.663  14.614
78677SOL    HW137870   1.866  11.573  14.612
78677SOL    HW237871   1.877  11.707  14.542
78678SOL     OW37872   2.130   2.712   1.071
78678SOL    HW137873   2.188   2.750   1.005
78678SOL    HW237874   2.145   2.618   1.065
78679SOL     OW37875   7.529  12.776   9.535
78679SOL    HW137876   7.435  12.792   9.526
78679SOL    HW237877   7.536  12.717   9.611
78680SOL     OW37878  10.605   6.174   3.756
78680SOL    HW137879  10.664   6.099   3.751
78680SOL    HW237880  10.552   6.157   3.834
78681SOL     OW37881   1.775   6.688   3.811
78681SOL    HW137882   1.824   6.624   3.759
78681SOL    HW237883   1.683   6.664   3.800
78682SOL     OW37884   3.252   5.731   5.835
78682SOL    HW137885   3.296   5.740   5.919
78682SOL    HW237886   3.163   5.703   5.857
78683SOL     OW37887   9.052   0.211   0.797
78683SOL    HW137888   9.050   0.283   0.733
78683SOL    HW237889   8.996   0.241   0.868
78684SOL     OW37890   3.864  13.813  14.698
78684SOL    HW137891   3.806  13.851  14.632
78684SOL    HW237892   3.804  13.778  14.764
78685SOL     OW37893  10.548   0.423   3.550
78685SOL    HW137894  10.545   0.443   3.644
78685SOL    HW237895  10.624   0.470   3.517
78686SOL     OW37896  12.719   3.399   7.284
78686SOL    HW137897  12.722   3.331   7.217
78686SOL    HW237898  12.694   3.354   7.364
78687SOL     OW37899   1.970   6.923   8.077
78687SOL    HW137900   2.008   6.997   8.122
78687SOL    HW237901   2.004   6.846   8.123
78688SOL     OW37902   9.105   2.488   3.046
78688SOL    HW137903   9.079   2.573   3.010
78688SOL    HW237904   9.023   2.447   3.074
78689SOL     OW37905   1.110   3.899  14.701
78689SOL    HW137906   1.044   3.947  14.651
78689SOL    HW237907   1.099   3.808  14.673
78690SOL     OW37908   7.299   5.976  11.942
78690SOL    HW137909   7.273   6.034  11.870
78690SOL    HW237910   7.388   6.005  11.964
78691SOL     OW37911   4.703  10.861  11.096
78691SOL    HW137912   4.728  10.768  11.090
78691SOL    HW237913   4.642  10.864  11.170
78692SOL     OW37914  11.328  13.418  13.576
78692SOL    HW137915  11.370  13.340  13.540
78692SOL    HW237916  11.243  13.422  13.531
78693SOL     OW37917  14.242   2.230   7.167
78693SOL    HW137918  14.206   2.272   7.245
78693SOL    HW237919  14.321   2.280   7.147
78694SOL     OW37920   2.100   8.911   5.430
78694SOL    HW137921   2.177   8.906   5.375
78694SOL    HW237922   2.121   8.976   5.497
78695SOL     OW37923   7.885   9.987   6.086
78695SOL    HW137924   7.920   9.953   6.168
78695SOL    HW237925   7.802   9.940   6.074
78696SOL     OW37926   0.063   7.049   0.306
78696SOL    HW137927   0.098   6.968   0.269
78696SOL    HW237928   0.089   7.117   0.244
78697SOL     OW37929  12.291  11.565   7.878
78697SOL    HW137930  12.303  11.487   7.824
78697SOL    HW237931  12.200  11.591   7.862
78698SOL     OW37932   2.246   5.875  11.647
78698SOL    HW137933   2.175   5.900  11.705
78698SOL    HW237934   2.318   5.934  11.669
78699SOL     OW37935   6.045  14.463   2.865
78699SOL    HW137936   6.016  14.398   2.801
78699SOL    HW237937   6.066  14.412   2.943
78700SOL     OW37938   7.335  11.446  13.367
78700SOL    HW137939   7.346  11.429  13.460
78700SOL    HW237940   7.242  11.430  13.350
78701SOL     OW37941  10.854   0.501   6.036
78701SOL    HW137942  10.876   0.569   5.972
78701SOL    HW237943  10.926   0.504   6.100
78702SOL     OW37944   6.794  11.726   3.854
78702SOL    HW137945   6.826  11.743   3.765
78702SOL    HW237946   6.869  11.689   3.900
78703SOL     OW37947   0.243  13.806  14.165
78703SOL    HW137948   0.156  13.843  14.149
78703SOL    HW237949   0.302  13.881  14.167
78704SOL     OW37950   3.130   7.615   2.538
78704SOL    HW137951   3.179   7.533   2.545
78704SOL    HW237952   3.161   7.654   2.456
78705SOL     OW37953   6.856   9.394  10.207
78705SOL    HW137954   6.916   9.319  10.199
78705SOL    HW237955   6.857   9.415  10.300
78706SOL     OW37956  14.864  14.340  14.737
78706SOL    HW137957   0.054  14.402  14.700
78706SOL    HW237958  14.832  14.384  14.816
78707SOL     OW37959   1.513  14.145   7.329
78707SOL    HW137960   1.465  14.224   7.352
78707SOL    HW237961   1.560  14.168   7.249
78708SOL     OW37962  11.929  12.247  11.824
78708SOL    HW137963  11.938  12.161  11.865
78708SOL    HW237964  11.871  12.233  11.749
78709SOL     OW37965  14.050   0.144  12.435
78709SOL    HW137966  13.987   0.175  12.500
78709SOL    HW237967  14.045   0.208  12.364
78710SOL     OW37968   0.342   3.607   7.229
78710SOL    HW137969   0.348   3.694   7.188
78710SOL    HW237970   0.399   3.552   7.176
78711SOL     OW37971   4.054   7.441  12.543
78711SOL    HW137972   4.045   7.372  12.478
78711SOL    HW237973   4.021   7.520  12.500
78712SOL     OW37974   4.960   9.052   2.945
78712SOL    HW137975   4.969   8.996   3.021
78712SOL    HW237976   5.041   9.040   2.896
78713SOL     OW37977   7.574   9.217   5.105
78713SOL    HW137978   7.660   9.246   5.074
78713SOL    HW237979   7.577   9.122   5.094
78714SOL     OW37980  11.022   4.533  12.420
78714SOL    HW137981  11.043   4.442  12.401
78714SOL    HW237982  11.021   4.576  12.335
78715SOL     OW37983   7.140  10.026   2.769
78715SOL    HW137984   7.157   9.966   2.841
78715SOL    HW237985   7.067  10.080   2.800
78716SOL     OW37986  10.689   8.789   0.954
78716SOL    HW137987  10.687   8.801   0.859
78716SOL    HW237988  10.772   8.827   0.982
78717SOL     OW37989  13.387   0.572   5.992
78717SOL    HW137990  13.441   0.625   5.933
78717SOL    HW237991  13.409   0.605   6.080
78718SOL     OW37992   5.156   7.034   4.563
78718SOL    HW137993   5.141   7.006   4.653
78718SOL    HW237994   5.250   7.021   4.549
78719SOL     OW37995  11.310   9.546   7.777
78719SOL    HW137996  11.334   9.475   7.717
78719SOL    HW237997  11.380   9.547   7.842
78720SOL     OW37998   5.525   4.023   7.114
78720SOL    HW137999   5.493   3.946   7.162
78720SOL    HW238000   5.451   4.082   7.110
78721SOL     OW38001   6.406   9.088   3.128
78721SOL    HW138002   6.384   9.177   3.156
78721SOL    HW238003   6.409   9.037   3.210
78722SOL     OW38004   9.274   8.978   7.451
78722SOL    HW138005   9.179   8.986   7.448
78722SOL    HW238006   9.293   8.954   7.542
78723SOL     OW38007  14.755   7.979   5.830
78723SOL    HW138008  14.787   8.000   5.918
78723SOL    HW238009  14.702   7.901   5.842
78724SOL     OW38010   1.744  14.732  12.095
78724SOL    HW138011   1.745  14.790  12.019
78724SOL    HW238012   1.807  14.772  12.155
78725SOL     OW38013   1.251   9.527   4.791
78725SOL    HW138014   1.222   9.614   4.763
78725SOL    HW238015   1.344   9.539   4.811
78726SOL     OW38016   2.318  13.654   0.536
78726SOL    HW138017   2.300  13.600   0.459
78726SOL    HW238018   2.235  13.657   0.584
78727SOL     OW38019   3.532   3.048   6.283
78727SOL    HW138020   3.482   3.031   6.203
78727SOL    HW238021   3.624   3.035   6.257
78728SOL     OW38022   0.247   1.656  11.436
78728SOL    HW138023   0.160   1.688  11.412
78728SOL    HW238024   0.260   1.687  11.526
78729SOL     OW38025   6.432   2.295   1.106
78729SOL    HW138026   6.386   2.211   1.099
78729SOL    HW238027   6.520   2.272   1.138
78730SOL     OW38028   1.643   4.566   5.202
78730SOL    HW138029   1.657   4.514   5.281
78730SOL    HW238030   1.598   4.645   5.232
78731SOL     OW38031   0.101  10.116  10.490
78731SOL    HW138032   0.106  10.123  10.394
78731SOL    HW238033   0.117  10.204  10.521
78732SOL     OW38034  14.168   7.708   4.195
78732SOL    HW138035  14.167   7.713   4.291
78732SOL    HW238036  14.113   7.781   4.167
78733SOL     OW38037  14.185  13.768   4.642
78733SOL    HW138038  14.106  13.792   4.692
78733SOL    HW238039  14.256  13.814   4.687
78734SOL     OW38040   5.178   4.946   0.182
78734SOL    HW138041   5.086   4.948   0.156
78734SOL    HW238042   5.227   4.941   0.100
78735SOL     OW38043   0.727   8.217   0.565
78735SOL    HW138044   0.702   8.144   0.509
78735SOL    HW238045   0.729   8.181   0.653
78736SOL     OW38046   5.034   7.239   4.848
78736SOL    HW138047   4.951   7.285   4.863
78736SOL    HW238048   5.012   7.171   4.785
78737SOL     OW38049  14.584   1.655  12.883
78737SOL    HW138050  14.655   1.711  12.850
78737SOL    HW238051  14.617   1.623  12.967
78738SOL     OW38052   0.951   1.011   9.858
78738SOL    HW138053   0.960   1.071   9.932
78738SOL    HW238054   1.034   0.963   9.857
78739SOL     OW38055  13.482   5.900   4.349
78739SOL    HW138056  13.564   5.935   4.383
78739SOL    HW238057  13.430   5.977   4.327
78740SOL     OW38058   2.047   7.686   0.843
78740SOL    HW138059   2.029   7.648   0.928
78740SOL    HW238060   2.083   7.614   0.791
78741SOL     OW38061   7.402   6.573   0.150
78741SOL    HW138062   7.387   6.493   0.200
78741SOL    HW238063   7.456   6.628   0.207
78742SOL     OW38064   0.044   5.746  12.357
78742SOL    HW138065  14.830   5.731  12.321
78742SOL    HW238066   0.034   5.734  12.452
78743SOL     OW38067   2.455   9.541   0.690
78743SOL    HW138068   2.385   9.521   0.752
78743SOL    HW238069   2.480   9.455   0.655
78744SOL     OW38070   2.616   0.554   1.380
78744SOL    HW138071   2.549   0.499   1.421
78744SOL    HW238072   2.615   0.635   1.432
78745SOL     OW38073  14.870   1.638   9.498
78745SOL    HW138074   0.014   1.666   9.588
78745SOL    HW238075   0.083   1.637   9.456
78746SOL     OW38076  10.881  11.408   7.043
78746SOL    HW138077  10.965  11.429   7.003
78746SOL    HW238078  10.903  11.345   7.112
78747SOL     OW38079  12.940   1.762   1.047
78747SOL    HW138080  13.000   1.696   1.012
78747SOL    HW238081  12.977   1.786   1.132
78748SOL     OW38082   5.933  14.251   4.876
78748SOL    HW138083   5.943  14.166   4.920
78748SOL    HW238084   5.876  14.302   4.934
78749SOL     OW38085  11.469  13.197   9.995
78749SOL    HW138086  11.455  13.113  10.038
78749SOL    HW238087  11.444  13.262  10.060
78750SOL     OW38088   3.028   6.202  10.337
78750SOL    HW138089   3.053   6.208  10.429
78750SOL    HW238090   2.965   6.130  10.334
78751SOL     OW38091  11.205   2.424   8.142
78751SOL    HW138092  11.190   2.485   8.069
78751SOL    HW238093  11.250   2.477   8.208
78752SOL     OW38094  14.072  13.762   2.730
78752SOL    HW138095  13.998  13.808   2.691
78752SOL    HW238096  14.126  13.736   2.655
78753SOL     OW38097   7.621   0.901   9.888
78753SOL    HW138098   7.582   0.955   9.957
78753SOL    HW238099   7.714   0.919   9.893
78754SOL     OW38100  14.765   3.685   1.341
78754SOL    HW138101  14.775   3.614   1.404
78754SOL    HW238102  14.718   3.646   1.267
78755SOL     OW38103   7.865   1.442   8.749
78755SOL    HW138104   7.798   1.397   8.698
78755SOL    HW238105   7.842   1.535   8.743
78756SOL     OW38106   0.685  14.781   8.726
78756SOL    HW138107   0.758  14.747   8.674
78756SOL    HW238108   0.626  14.821   8.663
78757SOL     OW38109   5.891  11.088   5.988
78757SOL    HW138110   5.937  11.169   5.968
78757SOL    HW238111   5.955  11.034   6.034
78758SOL     OW38112  13.021   9.092   5.091
78758SOL    HW138113  13.086   9.083   5.160
78758SOL    HW238114  12.989   9.182   5.098
78759SOL     OW38115  14.740  10.948  10.437
78759SOL    HW138116  14.719  10.890  10.363
78759SOL    HW238117  14.672  11.016  10.433
78760SOL     OW38118   8.487   8.104  13.242
78760SOL    HW138119   8.443   8.139  13.165
78760SOL    HW238120   8.446   8.150  13.316
78761SOL     OW38121   2.562   9.218   1.449
78761SOL    HW138122   2.592   9.273   1.377
78761SOL    HW238123   2.642   9.178   1.483
78762SOL     OW38124  14.676  13.076   4.912
78762SOL    HW138125  14.591  13.059   4.951
78762SOL    HW238126  14.715  12.989   4.900
78763SOL     OW38127   5.517   3.627   5.630
78763SOL    HW138128   5.609   3.601   5.639
78763SOL    HW238129   5.507   3.699   5.691
78764SOL     OW38130   7.171   7.819   7.848
78764SOL    HW138131   7.128   7.743   7.809
78764SOL    HW238132   7.258   7.787   7.871
78765SOL     OW38133  12.789   7.787  12.800
78765SOL    HW138134  12.769   7.856  12.737
78765SOL    HW238135  12.706   7.770  12.844
78766SOL     OW38136  12.412  11.123   3.049
78766SOL    HW138137  12.319  11.128   3.070
78766SOL    HW238138  12.423  11.181   2.974
78767SOL     OW38139   4.520  13.941   8.905
78767SOL    HW138140   4.573  13.862   8.899
78767SOL    HW238141   4.584  14.012   8.915
78768SOL     OW38142   2.885   1.770   5.988
78768SOL    HW138143   2.916   1.806   6.071
78768SOL    HW238144   2.891   1.675   5.999
78769SOL     OW38145   6.511  12.205  11.880
78769SOL    HW138146   6.556  12.286  11.857
78769SOL    HW238147   6.543  12.183  11.968
78770SOL     OW38148   5.645   3.785  10.703
78770SOL    HW138149   5.695   3.762  10.781
78770SOL    HW238150   5.555   3.761  10.724
78771SOL     OW38151   7.761  13.212   7.092
78771SOL    HW138152   7.691  13.196   7.028
78771SOL    HW238153   7.773  13.127   7.135
78772SOL     OW38154  10.233   7.093  13.664
78772SOL    HW138155  10.233   7.033  13.739
78772SOL    HW238156  10.164   7.157  13.684
78773SOL     OW38157  14.425  12.250   0.477
78773SOL    HW138158  14.516  12.263   0.504
78773SOL    HW238159  14.411  12.315   0.408
78774SOL     OW38160   4.779   5.964  14.425
78774SOL    HW138161   4.794   5.888  14.483
78774SOL    HW238162   4.755   5.926  14.341
78775SOL     OW38163   3.773  14.844  10.181
78775SOL    HW138164   3.770  14.857  10.086
78775SOL    HW238165   3.853  14.793  10.195
78776SOL     OW38166   1.962   2.381   0.410
78776SOL    HW138167   1.955   2.299   0.459
78776SOL    HW238168   1.992   2.355   0.323
78777SOL     OW38169   6.871   4.622  14.578
78777SOL    HW138170   6.882   4.657  14.490
78777SOL    HW238171   6.776   4.617  14.589
78778SOL     OW38172   4.250   6.882   3.509
78778SOL    HW138173   4.306   6.948   3.551
78778SOL    HW238174   4.178   6.933   3.472
78779SOL     OW38175   2.023   3.802   1.939
78779SOL    HW138176   1.949   3.766   1.890
78779SOL    HW238177   2.097   3.794   1.878
78780SOL     OW38178   9.608   7.245   2.149
78780SOL    HW138179   9.550   7.312   2.186
78780SOL    HW238180   9.592   7.168   2.203
78781SOL     OW38181   9.237  14.024   7.823
78781SOL    HW138182   9.204  13.944   7.864
78781SOL    HW238183   9.332  14.020   7.833
78782SOL     OW38184   9.439   0.726  11.845
78782SOL    HW138185   9.499   0.670  11.796
78782SOL    HW238186   9.366   0.742  11.784
78783SOL     OW38187   7.355   9.931   4.869
78783SOL    HW138188   7.355   9.837   4.887
78783SOL    HW238189   7.446   9.958   4.883
78784SOL     OW38190   2.654  10.813  14.218
78784SOL    HW138191   2.643  10.743  14.281
78784SOL    HW238192   2.605  10.887  14.255
78785SOL     OW38193   9.148   5.729  11.138
78785SOL    HW138194   9.177   5.809  11.181
78785SOL    HW238195   9.098   5.682  11.205
78786SOL     OW38196  13.538   6.870   7.576
78786SOL    HW138197  13.532   6.826   7.661
78786SOL    HW238198  13.514   6.961   7.594
78787SOL     OW38199   8.799  13.179  11.870
78787SOL    HW138200   8.832  13.133  11.947
78787SOL    HW238201   8.866  13.246  11.852
78788SOL     OW38202   3.758  10.075   2.590
78788SOL    HW138203   3.742  10.046   2.500
78788SOL    HW238204   3.838  10.127   2.585
78789SOL     OW38205  13.581  10.917  14.238
78789SOL    HW138206  13.656  10.884  14.288
78789SOL    HW238207  13.539  10.838  14.202
78790SOL     OW38208   1.659   9.212  14.603
78790SOL    HW138209   1.572   9.230  14.638
78790SOL    HW238210   1.719   9.244  14.670
78791SOL     OW38211  12.902   1.791  12.070
78791SOL    HW138212  12.822   1.738  12.069
78791SOL    HW238213  12.935   1.786  11.980
78792SOL     OW38214   6.598  13.921   5.905
78792SOL    HW138215   6.660  13.983   5.866
78792SOL    HW238216   6.653  13.863   5.958
78793SOL     OW38217   5.439   3.057  13.112
78793SOL    HW138218   5.362   3.000  13.105
78793SOL    HW238219   5.405   3.138  13.150
78794SOL     OW38220  10.367  12.719  14.595
78794SOL    HW138221  10.440  12.727  14.534
78794SOL    HW238222  10.407  12.727  14.682
78795SOL     OW38223   7.998  14.428  12.829
78795SOL    HW138224   8.084  14.390  12.815
78795SOL    HW238225   7.937  14.364  12.794
78796SOL     OW38226   0.281   4.816   4.387
78796SOL    HW138227   0.320   4.731   4.403
78796SOL    HW238228   0.282   4.860   4.472
78797SOL     OW38229   9.340  10.347   6.694
78797SOL    HW138230   9.377  10.261   6.718
78797SOL    HW238231   9.319  10.338   6.601
78798SOL     OW38232  13.703   2.817  14.182
78798SOL    HW138233  13.737   2.776  14.102
78798SOL    HW238234  13.780   2.850  14.227
78799SOL     OW38235  13.599  10.690   9.761
78799SOL    HW138236  13.524  10.632   9.747
78799SOL    HW238237  13.650  10.683   9.681
78800SOL     OW38238  14.671  14.810   4.256
78800SOL    HW138239  14.576  14.803   4.267
78800SOL    HW238240  14.699  14.869   4.326
78801SOL     OW38241   5.327  13.312  10.261
78801SOL    HW138242   5.361  13.256  10.331
78801SOL    HW238243   5.237  13.284  10.250
78802SOL     OW38244   7.542   5.248   1.956
78802SOL    HW138245   7.572   5.227   2.044
78802SOL    HW238246   7.621   5.251   1.903
78803SOL     OW38247   5.431   0.538   8.077
78803SOL    HW138248   5.393   0.617   8.037
78803SOL    HW238249   5.432   0.473   8.007
78804SOL     OW38250   7.424   0.599   9.197
78804SOL    HW138251   7.460   0.510   9.198
78804SOL    HW238252   7.376   0.604   9.115
78805SOL     OW38253   1.476   6.804   0.128
78805SOL    HW138254   1.429   6.805   0.211
78805SOL    HW238255   1.567   6.822   0.151
78806SOL     OW38256   7.287  13.583  12.680
78806SOL    HW138257   7.358  13.538  12.725
78806SOL    HW238258   7.304  13.676  12.695
78807SOL     OW38259   8.722   2.855   8.999
78807SOL    HW138260   8.743   2.767   8.967
78807SOL    HW238261   8.668   2.893   8.931
78808SOL     OW38262  13.753   6.614   0.209
78808SOL    HW138263  13.679   6.667   0.239
78808SOL    HW238264  13.770   6.645   0.120
78809SOL     OW38265   4.885   5.657   2.460
78809SOL    HW138266   4.865   5.563   2.454
78809SOL    HW238267   4.975   5.665   2.429
78810SOL     OW38268  12.500   7.387   6.754
78810SOL    HW138269  12.464   7.298   6.749
78810SOL    HW238270  12.588   7.375   6.791
78811SOL     OW38271   3.379   6.682   6.918
78811SOL    HW138272   3.297   6.641   6.893
78811SOL    HW238273   3.407   6.635   6.997
78812SOL     OW38274   7.660   7.525  10.275
78812SOL    HW138275   7.681   7.432  10.272
78812SOL    HW238276   7.726   7.566  10.218
78813SOL     OW38277   6.402   4.319  10.003
78813SOL    HW138278   6.415   4.358   9.917
78813SOL    HW238279   6.466   4.248  10.007
78814SOL     OW38280   0.226   2.713  10.227
78814SOL    HW138281   0.317   2.739  10.241
78814SOL    HW238282   0.201   2.669  10.308
78815SOL     OW38283  13.838  10.726   1.111
78815SOL    HW138284  13.855  10.635   1.132
78815SOL    HW238285  13.828  10.769   1.196
78816SOL     OW38286   0.153   4.867   3.549
78816SOL    HW138287   0.177   4.810   3.622
78816SOL    HW238288   0.213   4.842   3.478
78817SOL     OW38289   5.555  13.161   6.943
78817SOL    HW138290   5.484  13.167   6.878
78817SOL    HW238291   5.534  13.084   6.994
78818SOL     OW38292   0.750   2.713   8.576
78818SOL    HW138293   0.734   2.619   8.578
78818SOL    HW238294   0.774   2.735   8.666
78819SOL     OW38295  14.829   8.080   9.803
78819SOL    HW138296   0.022   8.134   9.846
78819SOL    HW238297  14.791   8.028   9.873
78820SOL     OW38298   0.641  11.216   1.735
78820SOL    HW138299   0.603  11.205   1.649
78820SOL    HW238300   0.725  11.171   1.731
78821SOL     OW38301  12.025  11.176  13.967
78821SOL    HW138302  11.947  11.122  13.957
78821SOL    HW238303  12.048  11.202  13.877
78822SOL     OW38304   4.949   6.489   7.080
78822SOL    HW138305   5.022   6.428   7.074
78822SOL    HW238306   4.872   6.434   7.089
78823SOL     OW38307  12.928   0.727  13.339
78823SOL    HW138308  13.003   0.668  13.328
78823SOL    HW238309  12.966   0.810  13.367
78824SOL     OW38310   0.500  11.672   0.833
78824SOL    HW138311   0.592  11.668   0.860
78824SOL    HW238312   0.499  11.634   0.745
78825SOL     OW38313   3.002   7.203  13.424
78825SOL    HW138314   2.999   7.182  13.517
78825SOL    HW238315   2.953   7.133  13.381
78826SOL     OW38316   8.660  10.036  13.806
78826SOL    HW138317   8.594   9.987  13.855
78826SOL    HW238318   8.700   9.971  13.748
78827SOL     OW38319   7.815  13.998   8.122
78827SOL    HW138320   7.900  13.953   8.122
78827SOL    HW238321   7.779  13.981   8.035
78828SOL     OW38322   1.332   7.686  11.080
78828SOL    HW138323   1.372   7.674  10.994
78828SOL    HW238324   1.325   7.781  11.091
78829SOL     OW38325   8.314   7.382   3.030
78829SOL    HW138326   8.390   7.341   2.989
78829SOL    HW238327   8.278   7.439   2.962
78830SOL     OW38328   0.351  10.726   4.865
78830SOL    HW138329   0.367  10.693   4.953
78830SOL    HW238330   0.408  10.673   4.809
78831SOL     OW38331   6.780   4.141   8.101
78831SOL    HW138332   6.757   4.093   8.022
78831SOL    HW238333   6.855   4.092   8.137
78832SOL     OW38334   9.691   9.903   3.321
78832SOL    HW138335   9.696   9.807   3.321
78832SOL    HW238336   9.759   9.929   3.384
78833SOL     OW38337   7.483  10.251  12.682
78833SOL    HW138338   7.487  10.163  12.720
78833SOL    HW238339   7.528  10.307  12.745
78834SOL     OW38340   8.912  11.401   2.085
78834SOL    HW138341   8.961  11.459   2.028
78834SOL    HW238342   8.953  11.315   2.075
78835SOL     OW38343   5.940  12.268   4.756
78835SOL    HW138344   5.897  12.252   4.840
78835SOL    HW238345   6.031  12.285   4.779
78836SOL     OW38346   5.775   7.921  14.441
78836SOL    HW138347   5.735   7.835  14.452
78836SOL    HW238348   5.773   7.936  14.346
78837SOL     OW38349   1.688  12.903  13.595
78837SOL    HW138350   1.749  12.829  13.596
78837SOL    HW238351   1.699  12.944  13.680
78838SOL     OW38352  12.688   9.997   8.218
78838SOL    HW138353  12.651   9.994   8.129
78838SOL    HW238354  12.613  10.016   8.274
78839SOL     OW38355   1.100  13.358  10.233
78839SOL    HW138356   1.071  13.299  10.302
78839SOL    HW238357   1.176  13.314  10.194
78840SOL     OW38358  13.928   9.012   3.368
78840SOL    HW138359  13.866   8.971   3.307
78840SOL    HW238360  13.999   9.043   3.313
78841SOL     OW38361  11.911   8.271   7.076
78841SOL    HW138362  11.960   8.189   7.079
78841SOL    HW238363  11.885   8.280   6.984
78842SOL     OW38364   1.948  13.853   7.740
78842SOL    HW138365   1.922  13.905   7.664
78842SOL    HW238366   1.963  13.765   7.704
78843SOL     OW38367  12.928   9.859   4.594
78843SOL    HW138368  12.985   9.851   4.518
78843SOL    HW238369  12.984   9.898   4.662
78844SOL     OW38370   9.280  12.128   9.890
78844SOL    HW138371   9.337  12.055   9.917
78844SOL    HW238372   9.198  12.114   9.937
78845SOL     OW38373   5.995   6.258   0.766
78845SOL    HW138374   5.913   6.261   0.816
78845SOL    HW238375   5.996   6.341   0.718
78846SOL     OW38376   7.410   2.099   5.010
78846SOL    HW138377   7.347   2.157   4.967
78846SOL    HW238378   7.466   2.158   5.060
78847SOL     OW38379   9.261   6.925  12.697
78847SOL    HW138380   9.227   6.836  12.688
78847SOL    HW238381   9.345   6.924  12.651
78848SOL     OW38382   7.986   4.795   0.035
78848SOL    HW138383   7.990   4.762  14.818
78848SOL    HW238384   8.077   4.812   0.059
78849SOL     OW38385   4.862  12.689  13.341
78849SOL    HW138386   4.938  12.709  13.285
78849SOL    HW238387   4.790  12.738  13.301
78850SOL     OW38388   0.106   6.716   4.753
78850SOL    HW138389   0.108   6.704   4.848
78850SOL    HW238390   0.075   6.633   4.718
78851SOL     OW38391  11.647   3.391   3.740
78851SOL    HW138392  11.723   3.395   3.681
78851SOL    HW238393  11.597   3.316   3.709
78852SOL     OW38394  11.001   1.009   0.618
78852SOL    HW138395  11.039   1.019   0.531
78852SOL    HW238396  10.961   0.922   0.616
78853SOL     OW38397  13.054   9.472  11.212
78853SOL    HW138398  13.122   9.423  11.259
78853SOL    HW238399  13.024   9.411  11.144
78854SOL     OW38400   9.497   7.861   3.614
78854SOL    HW138401   9.499   7.891   3.705
78854SOL    HW238402   9.437   7.920   3.570
78855SOL     OW38403   1.190  10.001  10.695
78855SOL    HW138404   1.191   9.946  10.618
78855SOL    HW238405   1.097  10.015  10.714
78856SOL     OW38406   7.265   9.633  11.344
78856SOL    HW138407   7.262   9.694  11.418
78856SOL    HW238408   7.236   9.686  11.269
78857SOL     OW38409   7.921   2.637   3.084
78857SOL    HW138410   7.848   2.576   3.091
78857SOL    HW238411   7.959   2.619   2.998
78858SOL     OW38412  13.434   9.608   1.989
78858SOL    HW138413  13.343   9.584   1.972
78858SOL    HW238414  13.477   9.526   2.015
78859SOL     OW38415   8.139   7.922  14.855
78859SOL    HW138416   8.135   7.964   0.068
78859SOL    HW238417   8.130   7.829  14.873
78860SOL     OW38418  14.557   1.161   2.923
78860SOL    HW138419  14.499   1.140   2.997
78860SOL    HW238420  14.502   1.147   2.846
78861SOL     OW38421  13.448  11.027   1.533
78861SOL    HW138422  13.445  11.123   1.527
78861SOL    HW238423  13.534  11.008   1.571
78862SOL     OW38424  11.773   0.529  11.119
78862SOL    HW138425  11.825   0.607  11.099
78862SOL    HW238426  11.740   0.545  11.208
78863SOL     OW38427  11.606   0.594   5.657
78863SOL    HW138428  11.657   0.517   5.632
78863SOL    HW238429  11.667   0.667   5.649
78864SOL     OW38430   8.896   8.636   2.026
78864SOL    HW138431   8.923   8.617   2.116
78864SOL    HW238432   8.801   8.650   2.033
78865SOL     OW38433   6.427  11.154   4.340
78865SOL    HW138434   6.397  11.125   4.426
78865SOL    HW238435   6.477  11.234   4.358
78866SOL     OW38436  12.567   4.984   1.720
78866SOL    HW138437  12.591   5.058   1.776
78866SOL    HW238438  12.473   4.992   1.707
78867SOL     OW38439   6.553   4.883  11.304
78867SOL    HW138440   6.548   4.939  11.381
78867SOL    HW238441   6.468   4.893  11.262
78868SOL     OW38442   7.784   3.179   7.804
78868SOL    HW138443   7.706   3.132   7.834
78868SOL    HW238444   7.787   3.163   7.710
78869SOL     OW38445   2.859   7.421   6.447
78869SOL    HW138446   2.798   7.494   6.456
78869SOL    HW238447   2.946   7.460   6.460
78870SOL     OW38448   1.124   0.964   8.161
78870SOL    HW138449   1.032   0.971   8.134
78870SOL    HW238450   1.121   0.921   8.246
78871SOL     OW38451   0.538   1.976   7.874
78871SOL    HW138452   0.587   1.902   7.838
78871SOL    HW238453   0.603   2.047   7.878
78872SOL     OW38454   7.960   9.870   1.036
78872SOL    HW138455   7.987   9.961   1.034
78872SOL    HW238456   8.039   9.821   1.058
78873SOL     OW38457   6.378  11.715   5.052
78873SOL    HW138458   6.428  11.646   5.095
78873SOL    HW238459   6.287  11.695   5.070
78874SOL     OW38460   9.325  10.286   0.091
78874SOL    HW138461   9.395  10.260   0.031
78874SOL    HW238462   9.307  10.207   0.142
78875SOL     OW38463   6.628   1.265   4.491
78875SOL    HW138464   6.622   1.170   4.505
78875SOL    HW238465   6.548   1.300   4.530
78876SOL     OW38466   8.110   1.942   5.215
78876SOL    HW138467   8.143   2.023   5.253
78876SOL    HW238468   8.020   1.961   5.190
78877SOL     OW38469  13.704  12.360  12.203
78877SOL    HW138470  13.669  12.447  12.184
78877SOL    HW238471  13.783  12.378  12.254
78878SOL     OW38472  10.403   0.299   7.288
78878SOL    HW138473  10.319   0.254   7.291
78878SOL    HW238474  10.420   0.324   7.379
78879SOL     OW38475  10.786   8.529   1.280
78879SOL    HW138476  10.838   8.561   1.355
78879SOL    HW238477  10.843   8.542   1.204
78880SOL     OW38478   4.766   0.991   5.839
78880SOL    HW138479   4.795   1.019   5.753
78880SOL    HW238480   4.671   0.993   5.834
78881SOL     OW38481   2.717   2.636   7.089
78881SOL    HW138482   2.680   2.683   7.014
78881SOL    HW238483   2.655   2.564   7.105
78882SOL     OW38484   1.953   5.625  13.297
78882SOL    HW138485   2.041   5.587  13.306
78882SOL    HW238486   1.933   5.616  13.204
78883SOL     OW38487  12.998   9.520   7.764
78883SOL    HW138488  12.963   9.564   7.841
78883SOL    HW238489  12.975   9.577   7.691
78884SOL     OW38490   2.715   4.530   9.230
78884SOL    HW138491   2.802   4.517   9.269
78884SOL    HW238492   2.691   4.444   9.194
78885SOL     OW38493   6.747   4.654   8.488
78885SOL    HW138494   6.733   4.741   8.526
78885SOL    HW238495   6.776   4.600   8.562
78886SOL     OW38496   2.734  11.009   1.744
78886SOL    HW138497   2.755  11.103   1.739
78886SOL    HW238498   2.815  10.966   1.717
78887SOL     OW38499   4.131   2.991   3.969
78887SOL    HW138500   4.128   3.084   3.946
78887SOL    HW238501   4.039   2.965   3.976
78888SOL     OW38502   7.849   9.057   4.779
78888SOL    HW138503   7.829   9.077   4.871
78888SOL    HW238504   7.785   9.108   4.729
78889SOL     OW38505  12.319   8.766  12.391
78889SOL    HW138506  12.306   8.851  12.435
78889SOL    HW238507  12.401   8.776  12.344
78890SOL     OW38508   2.528  14.500  11.947
78890SOL    HW138509   2.582  14.579  11.943
78890SOL    HW238510   2.490  14.502  12.035
78891SOL     OW38511   4.385   6.677   4.557
78891SOL    HW138512   4.479   6.691   4.542
78891SOL    HW238513   4.378   6.666   4.652
78892SOL     OW38514   5.282   5.715   1.197
78892SOL    HW138515   5.218   5.680   1.259
78892SOL    HW238516   5.307   5.639   1.144
78893SOL     OW38517   2.985   1.521   6.106
78893SOL    HW138518   2.915   1.490   6.164
78893SOL    HW238519   2.998   1.449   6.043
78894SOL     OW38520   1.406   7.083   0.349
78894SOL    HW138521   1.393   7.148   0.419
78894SOL    HW238522   1.339   7.017   0.365
78895SOL     OW38523   9.234  13.065  11.958
78895SOL    HW138524   9.231  13.060  12.054
78895SOL    HW238525   9.281  12.986  11.932
78896SOL     OW38526   3.188  11.603   0.628
78896SOL    HW138527   3.242  11.634   0.555
78896SOL    HW238528   3.218  11.654   0.703
78897SOL     OW38529   2.288   3.136   2.354
78897SOL    HW138530   2.336   3.215   2.329
78897SOL    HW238531   2.238   3.112   2.276
78898SOL     OW38532   8.997   9.158   6.239
78898SOL    HW138533   9.032   9.229   6.292
78898SOL    HW238534   8.990   9.084   6.300
78899SOL     OW38535   6.392   0.930   2.355
78899SOL    HW138536   6.470   0.877   2.339
78899SOL    HW238537   6.427   1.016   2.381
78900SOL     OW38538  10.410   7.297  13.590
78900SOL    HW138539  10.467   7.236  13.543
78900SOL    HW238540  10.356   7.242  13.647
78901SOL     OW38541   0.982   2.562   7.344
78901SOL    HW138542   1.050   2.598   7.286
78901SOL    HW238543   0.983   2.620   7.421
78902SOL     OW38544  10.035   7.398   0.323
78902SOL    HW138545   9.960   7.347   0.292
78902SOL    HW238546  10.007   7.433   0.407
78903SOL     OW38547   7.492   5.989   3.406
78903SOL    HW138548   7.558   6.031   3.460
78903SOL    HW238549   7.416   5.980   3.463
78904SOL     OW38550   7.101   1.921  11.561
78904SOL    HW138551   7.184   1.947  11.601
78904SOL    HW238552   7.120   1.837  11.519
78905SOL     OW38553   4.374   8.380   8.321
78905SOL    HW138554   4.332   8.348   8.241
78905SOL    HW238555   4.337   8.467   8.334
78906SOL     OW38556   3.773   5.364  11.153
78906SOL    HW138557   3.697   5.352  11.209
78906SOL    HW238558   3.847   5.331  11.204
78907SOL     OW38559  10.359   8.760  10.691
78907SOL    HW138560  10.428   8.772  10.756
78907SOL    HW238561  10.326   8.672  10.706
78908SOL     OW38562   8.823   2.271   9.708
78908SOL    HW138563   8.846   2.255   9.617
78908SOL    HW238564   8.907   2.275   9.754
78909SOL     OW38565   5.630   9.709   4.903
78909SOL    HW138566   5.621   9.614   4.906
78909SOL    HW238567   5.713   9.725   4.858
78910SOL     OW38568   9.543   5.634   1.962
78910SOL    HW138569   9.562   5.540   1.967
78910SOL    HW238570   9.614   5.670   1.909
78911SOL     OW38571  11.499  13.915  14.071
78911SOL    HW138572  11.560  13.985  14.046
78911SOL    HW238573  11.414  13.959  14.074
78912SOL     OW38574   4.312   7.719   0.319
78912SOL    HW138575   4.352   7.658   0.381
78912SOL    HW238576   4.386   7.756   0.270
78913SOL     OW38577  12.468  10.150  10.350
78913SOL    HW138578  12.388  10.183  10.310
78913SOL    HW238579  12.439  10.079  10.408
78914SOL     OW38580   6.095  13.631   5.625
78914SOL    HW138581   6.080  13.542   5.657
78914SOL    HW238582   6.019  13.681   5.655
78915SOL     OW38583   8.409  10.075  12.334
78915SOL    HW138584   8.487  10.112  12.295
78915SOL    HW238585   8.442  10.017  12.403
78916SOL     OW38586   5.129  11.549   8.256
78916SOL    HW138587   5.098  11.545   8.346
78916SOL    HW238588   5.049  11.547   8.203
78917SOL     OW38589   8.113  12.843  13.680
78917SOL    HW138590   8.019  12.834  13.700
78917SOL    HW238591   8.157  12.817  13.760
78918SOL     OW38592   0.485  11.791   7.631
78918SOL    HW138593   0.575  11.784   7.599
78918SOL    HW238594   0.442  11.851   7.570
78919SOL     OW38595   7.969   4.474   2.726
78919SOL    HW138596   7.905   4.509   2.788
78919SOL    HW238597   8.039   4.440   2.782
78920SOL     OW38598   6.459   0.593  12.164
78920SOL    HW138599   6.481   0.669  12.218
78920SOL    HW238600   6.364   0.584  12.173
78921SOL     OW38601  13.135   7.623  14.275
78921SOL    HW138602  13.173   7.711  14.270
78921SOL    HW238603  13.042   7.639  14.294
78922SOL     OW38604   4.674  13.185  10.664
78922SOL    HW138605   4.722  13.112  10.704
78922SOL    HW238606   4.613  13.143  10.603
78923SOL     OW38607   7.631   0.299  10.690
78923SOL    HW138608   7.598   0.351  10.617
78923SOL    HW238609   7.703   0.249  10.653
78924SOL     OW38610  13.488   9.176  11.587
78924SOL    HW138611  13.404   9.210  11.621
78924SOL    HW238612  13.520   9.245  11.530
78925SOL     OW38613   0.493   7.398   8.587
78925SOL    HW138614   0.498   7.369   8.678
78925SOL    HW238615   0.402   7.425   8.575
78926SOL     OW38616   5.663   1.665   6.611
78926SOL    HW138617   5.734   1.713   6.569
78926SOL    HW238618   5.622   1.729   6.670
78927SOL     OW38619   2.209   6.923   3.033
78927SOL    HW138620   2.286   6.907   3.087
78927SOL    HW238621   2.244   6.944   2.946
78928SOL     OW38622   7.170   1.395   0.303
78928SOL    HW138623   7.242   1.444   0.263
78928SOL    HW238624   7.210   1.311   0.326
78929SOL     OW38625   0.599   4.133  12.384
78929SOL    HW138626   0.647   4.203  12.427
78929SOL    HW238627   0.598   4.062  12.449
78930SOL     OW38628   6.852   3.327   3.487
78930SOL    HW138629   6.799   3.249   3.505
78930SOL    HW238630   6.819   3.359   3.403
78931SOL     OW38631   5.751  13.378  13.159
78931SOL    HW138632   5.778  13.465  13.130
78931SOL    HW238633   5.825  13.321  13.136
78932SOL     OW38634   1.956  13.024   7.420
78932SOL    HW138635   1.924  12.936   7.397
78932SOL    HW238636   2.015  13.009   7.494
78933SOL     OW38637   3.350  10.726   8.381
78933SOL    HW138638   3.256  10.737   8.399
78933SOL    HW238639   3.369  10.636   8.405
78934SOL     OW38640   2.144   4.000  12.457
78934SOL    HW138641   2.118   4.018  12.367
78934SOL    HW238642   2.232   3.965  12.450
78935SOL     OW38643  11.680  12.986  12.123
78935SOL    HW138644  11.729  12.909  12.154
78935SOL    HW238645  11.595  12.951  12.096
78936SOL     OW38646   5.935  12.709   0.188
78936SOL    HW138647   5.990  12.735   0.114
78936SOL    HW238648   5.866  12.656   0.148
78937SOL     OW38649   6.964   9.746   4.770
78937SOL    HW138650   7.021   9.758   4.694
78937SOL    HW238651   6.906   9.822   4.769
78938SOL     OW38652  14.065  11.319   9.820
78938SOL    HW138653  14.030  11.262   9.751
78938SOL    HW238654  14.000  11.389   9.829
78939SOL     OW38655   4.159   7.406  13.120
78939SOL    HW138656   4.081   7.350  13.117
78939SOL    HW238657   4.217   7.363  13.183
78940SOL     OW38658   3.209   0.171  10.599
78940SOL    HW138659   3.200   0.206  10.511
78940SOL    HW238660   3.298   0.194  10.626
78941SOL     OW38661   3.832   0.077   8.247
78941SOL    HW138662   3.869   0.071   8.159
78941SOL    HW238663   3.745   0.038   8.239
78942SOL     OW38664  10.108  12.430   2.605
78942SOL    HW138665  10.091  12.344   2.643
78942SOL    HW238666  10.033  12.483   2.632
78943SOL     OW38667  13.671  12.765   5.116
78943SOL    HW138668  13.722  12.776   5.037
78943SOL    HW238669  13.735  12.769   5.187
78944SOL     OW38670   6.821   2.349   9.075
78944SOL    HW138671   6.731   2.318   9.084
78944SOL    HW238672   6.862   2.286   9.015
78945SOL     OW38673   9.381  10.753   0.576
78945SOL    HW138674   9.365  10.802   0.495
78945SOL    HW238675   9.352  10.664   0.557
78946SOL     OW38676  12.733   7.837   7.824
78946SOL    HW138677  12.720   7.792   7.907
78946SOL    HW238678  12.676   7.914   7.829
78947SOL     OW38679   5.325  14.444  12.715
78947SOL    HW138680   5.325  14.507  12.788
78947SOL    HW238681   5.264  14.481  12.651
78948SOL     OW38682  13.535   2.662   3.186
78948SOL    HW138683  13.447   2.699   3.171
78948SOL    HW238684  13.549   2.603   3.112
78949SOL     OW38685   7.610   4.834   2.190
78949SOL    HW138686   7.613   4.804   2.099
78949SOL    HW238687   7.660   4.769   2.239
78950SOL     OW38688   7.118   0.362  14.521
78950SOL    HW138689   7.024   0.350  14.505
78950SOL    HW238690   7.129   0.342  14.613
78951SOL     OW38691   5.958   4.094   2.718
78951SOL    HW138692   5.888   4.110   2.782
78951SOL    HW238693   6.001   4.179   2.707
78952SOL     OW38694   1.901  11.279  13.167
78952SOL    HW138695   1.887  11.317  13.253
78952SOL    HW238696   1.956  11.202  13.183
78953SOL     OW38697   6.036   2.402   3.517
78953SOL    HW138698   6.113   2.347   3.528
78953SOL    HW238699   5.986   2.359   3.447
78954SOL     OW38700   7.787   0.758  12.761
78954SOL    HW138701   7.692   0.758  12.769
78954SOL    HW238702   7.818   0.709  12.837
78955SOL     OW38703   7.743   2.001  10.399
78955SOL    HW138704   7.661   2.045  10.421
78955SOL    HW238705   7.757   1.940  10.471
78956SOL     OW38706   9.474   4.574   6.137
78956SOL    HW138707   9.539   4.645   6.138
78956SOL    HW238708   9.489   4.529   6.053
78957SOL     OW38709   5.995   0.381   2.716
78957SOL    HW138710   5.944   0.348   2.643
78957SOL    HW238711   6.077   0.412   2.677
78958SOL     OW38712   2.283  12.697  14.440
78958SOL    HW138713   2.334  12.769  14.477
78958SOL    HW238714   2.269  12.637  14.513
78959SOL     OW38715  13.980   8.427   1.003
78959SOL    HW138716  13.907   8.401   1.059
78959SOL    HW238717  13.979   8.523   1.005
78960SOL     OW38718   2.494  12.012   0.520
78960SOL    HW138719   2.559  12.082   0.527
78960SOL    HW238720   2.539  11.943   0.470
78961SOL     OW38721   1.641   3.176   3.431
78961SOL    HW138722   1.653   3.251   3.373
78961SOL    HW238723   1.730   3.152   3.458
78962SOL     OW38724   8.714   9.921   5.136
78962SOL    HW138725   8.723   9.897   5.044
78962SOL    HW238726   8.662   9.851   5.175
78963SOL     OW38727   5.051   8.208  14.350
78963SOL    HW138728   5.005   8.265  14.412
78963SOL    HW238729   5.122   8.169  14.401
78964SOL     OW38730   7.655   9.730   5.710
78964SOL    HW138731   7.589   9.667   5.681
78964SOL    HW238732   7.692   9.765   5.628
78965SOL     OW38733  12.695   7.341  10.569
78965SOL    HW138734  12.633   7.281  10.528
78965SOL    HW238735  12.742   7.380  10.495
78966SOL     OW38736   6.361  11.158   3.747
78966SOL    HW138737   6.280  11.109   3.756
78966SOL    HW238738   6.350  11.209   3.667
78967SOL     OW38739  10.764   3.456  12.661
78967SOL    HW138740  10.818   3.386  12.697
78967SOL    HW238741  10.742   3.427  12.572
78968SOL     OW38742   6.440   1.475  10.247
78968SOL    HW138743   6.529   1.441  10.252
78968SOL    HW238744   6.400   1.427  10.174
78969SOL     OW38745  12.142   8.051   2.568
78969SOL    HW138746  12.095   7.993   2.628
78969SOL    HW238747  12.117   8.139   2.596
78970SOL     OW38748   5.339  11.376   6.139
78970SOL    HW138749   5.334  11.283   6.115
78970SOL    HW238750   5.282  11.384   6.215
78971SOL     OW38751  10.705  13.522   1.515
78971SOL    HW138752  10.676  13.514   1.606
78971SOL    HW238753  10.792  13.483   1.514
78972SOL     OW38754   2.023   8.904  14.599
78972SOL    HW138755   1.987   8.941  14.519
78972SOL    HW238756   2.112   8.940  14.604
78973SOL     OW38757  10.565  12.920   7.952
78973SOL    HW138758  10.650  12.938   7.992
78973SOL    HW238759  10.511  12.995   7.976
78974SOL     OW38760  13.154  13.050  11.105
78974SOL    HW138761  13.226  13.112  11.116
78974SOL    HW238762  13.166  12.986  11.175
78975SOL     OW38763  13.618   6.044  11.988
78975SOL    HW138764  13.704   6.002  11.983
78975SOL    HW238765  13.557   5.973  12.005
78976SOL     OW38766   4.573   1.980   6.669
78976SOL    HW138767   4.603   1.934   6.747
78976SOL    HW238768   4.477   1.973   6.672
78977SOL     OW38769  14.505   7.297   9.337
78977SOL    HW138770  14.536   7.266   9.422
78977SOL    HW238771  14.584   7.301   9.283
78978SOL     OW38772   2.715  14.224   0.681
78978SOL    HW138773   2.685  14.134   0.670
78978SOL    HW238774   2.706  14.242   0.774
78979SOL     OW38775   5.311   0.300   2.572
78979SOL    HW138776   5.259   0.239   2.520
78979SOL    HW238777   5.339   0.249   2.648
78980SOL     OW38778  14.229   5.095   1.133
78980SOL    HW138779  14.173   5.020   1.111
78980SOL    HW238780  14.171   5.170   1.128
78981SOL     OW38781   0.965   3.739   4.792
78981SOL    HW138782   0.953   3.804   4.861
78981SOL    HW238783   0.879   3.698   4.783
78982SOL     OW38784   3.778  11.141  10.953
78982SOL    HW138785   3.814  11.090  11.026
78982SOL    HW238786   3.793  11.232  10.978
78983SOL     OW38787  12.603   6.126   9.718
78983SOL    HW138788  12.666   6.155   9.652
78983SOL    HW238789  12.574   6.206   9.761
78984SOL     OW38790  13.737   7.722   9.765
78984SOL    HW138791  13.756   7.639   9.721
78984SOL    HW238792  13.716   7.782   9.693
78985SOL     OW38793   6.374  11.567  14.869
78985SOL    HW138794   6.340  11.487  14.830
78985SOL    HW238795   6.401  11.541   0.084
78986SOL     OW38796  10.582   7.360   9.222
78986SOL    HW138797  10.496   7.398   9.205
78986SOL    HW238798  10.578   7.274   9.180
78987SOL     OW38799   6.362   3.770   9.585
78987SOL    HW138800   6.274   3.739   9.606
78987SOL    HW238801   6.405   3.777   9.670
78988SOL     OW38802  13.019   9.790   2.057
78988SOL    HW138803  13.013   9.707   2.011
78988SOL    HW238804  13.023   9.767   2.150
78989SOL     OW38805   8.741   4.954  10.144
78989SOL    HW138806   8.711   4.863  10.133
78989SOL    HW238807   8.830   4.954  10.108
78990SOL     OW38808   3.799   0.753   1.320
78990SOL    HW138809   3.734   0.726   1.254
78990SOL    HW238810   3.770   0.710   1.400
78991SOL     OW38811  13.806  14.165   8.867
78991SOL    HW138812  13.891  14.209   8.856
78991SOL    HW238813  13.828  14.072   8.863
78992SOL     OW38814  10.362  10.908   9.632
78992SOL    HW138815  10.457  10.913   9.642
78992SOL    HW238816  10.346  10.820   9.597
78993SOL     OW38817   1.112   7.557  14.624
78993SOL    HW138818   1.172   7.592  14.558
78993SOL    HW238819   1.158   7.570  14.707
78994SOL     OW38820   9.865   9.690   5.104
78994SOL    HW138821   9.900   9.704   5.016
78994SOL    HW238822   9.770   9.702   5.094
78995SOL     OW38823   4.184   5.696  14.868
78995SOL    HW138824   4.131   5.617   0.004
78995SOL    HW238825   4.267   5.665  14.832
78996SOL     OW38826  11.800   3.147  11.480
78996SOL    HW138827  11.805   3.052  11.493
78996SOL    HW238828  11.833   3.185  11.561
78997SOL     OW38829  11.701  13.003   8.106
78997SOL    HW138830  11.642  12.931   8.087
78997SOL    HW238831  11.770  12.996   8.039
78998SOL     OW38832  12.659  10.521   4.308
78998SOL    HW138833  12.682  10.430   4.324
78998SOL    HW238834  12.571  10.518   4.270
78999SOL     OW38835   0.921  14.057  12.247
78999SOL    HW138836   0.966  14.008  12.316
78999SOL    HW238837   0.975  14.042  12.168
79000SOL     OW38838   9.936   6.628   7.435
79000SOL    HW138839  10.004   6.654   7.496
79000SOL    HW238840   9.867   6.694   7.445
79001SOL     OW38841  13.767   0.683  10.673
79001SOL    HW138842  13.795   0.723  10.756
79001SOL    HW238843  13.698   0.622  10.698
79002SOL     OW38844  11.198   4.336   0.350
79002SOL    HW138845  11.225   4.418   0.391
79002SOL    HW238846  11.103   4.334   0.359
79003SOL     OW38847   6.847   6.063   8.425
79003SOL    HW138848   6.755   6.089   8.433
79003SOL    HW238849   6.861   6.002   8.498
79004SOL     OW38850  13.328   1.105  11.445
79004SOL    HW138851  13.340   1.068  11.532
79004SOL    HW238852  13.316   1.029  11.388
79005SOL     OW38853   1.811   5.539   0.613
79005SOL    HW138854   1.777   5.511   0.528
79005SOL    HW238855   1.906   5.526   0.607
79006SOL     OW38856   3.422   3.076   7.124
79006SOL    HW138857   3.518   3.087   7.123
79006SOL    HW238858   3.401   3.049   7.034
79007SOL     OW38859  13.836   2.069   4.462
79007SOL    HW138860  13.907   2.127   4.435
79007SOL    HW238861  13.876   1.982   4.466
79008SOL     OW38862   5.060   3.308   2.468
79008SOL    HW138863   5.119   3.319   2.542
79008SOL    HW238864   5.112   3.332   2.391
79009SOL     OW38865   2.233   6.687   3.746
79009SOL    HW138866   2.322   6.715   3.724
79009SOL    HW238867   2.178   6.763   3.725
79010SOL     OW38868  11.243   2.578   2.837
79010SOL    HW138869  11.337   2.597   2.844
79010SOL    HW238870  11.220   2.538   2.921
79011SOL     OW38871   8.726   6.765   5.934
79011SOL    HW138872   8.752   6.778   5.842
79011SOL    HW238873   8.670   6.687   5.931
79012SOL     OW38874   5.581  12.048   2.341
79012SOL    HW138875   5.491  12.021   2.325
79012SOL    HW238876   5.632  12.004   2.272
79013SOL     OW38877   6.495  11.537  11.242
79013SOL    HW138878   6.476  11.620  11.285
79013SOL    HW238879   6.424  11.526  11.178
79014SOL     OW38880   1.346   0.135  11.675
79014SOL    HW138881   1.274   0.078  11.650
79014SOL    HW238882   1.323   0.166  11.762
79015SOL     OW38883  11.802  10.676   2.205
79015SOL    HW138884  11.857  10.669   2.127
79015SOL    HW238885  11.853  10.636   2.275
79016SOL     OW38886   6.440   5.898   8.910
79016SOL    HW138887   6.407   5.819   8.952
79016SOL    HW238888   6.531   5.877   8.889
79017SOL     OW38889   0.394  10.014  14.371
79017SOL    HW138890   0.378  10.013  14.277
79017SOL    HW238891   0.313   9.981  14.409
79018SOL     OW38892  11.194   1.845   8.610
79018SOL    HW138893  11.282   1.868   8.580
79018SOL    HW238894  11.198   1.853   8.705
79019SOL     OW38895   0.340   1.847   1.588
79019SOL    HW138896   0.339   1.907   1.663
79019SOL    HW238897   0.425   1.861   1.547
79020SOL     OW38898   1.710   1.701   4.130
79020SOL    HW138899   1.756   1.701   4.046
79020SOL    HW238900   1.689   1.609   4.146
79021SOL     OW38901   8.337  12.695  11.858
79021SOL    HW138902   8.341  12.753  11.934
79021SOL    HW238903   8.428  12.672  11.841
79022SOL     OW38904  12.361   6.626  11.605
79022SOL    HW138905  12.324   6.615  11.692
79022SOL    HW238906  12.415   6.549  11.591
79023SOL     OW38907   2.973   8.856   0.225
79023SOL    HW138908   3.002   8.904   0.302
79023SOL    HW238909   3.047   8.859   0.165
79024SOL     OW38910  10.851  13.213   7.966
79024SOL    HW138911  10.858  13.208   7.871
79024SOL    HW238912  10.938  13.241   7.995
79025SOL     OW38913  11.141   8.434   7.723
79025SOL    HW138914  11.131   8.441   7.818
79025SOL    HW238915  11.119   8.521   7.690
79026SOL     OW38916  10.776   2.118  10.097
79026SOL    HW138917  10.748   2.094  10.185
79026SOL    HW238918  10.864   2.080  10.088
79027SOL     OW38919  12.786   8.183   4.627
79027SOL    HW138920  12.699   8.149   4.606
79027SOL    HW238921  12.822   8.121   4.690
79028SOL     OW38922  10.367   5.220  14.667
79028SOL    HW138923  10.303   5.220  14.738
79028SOL    HW238924  10.338   5.290  14.609
79029SOL     OW38925  13.654  10.187   5.430
79029SOL    HW138926  13.660  10.245   5.506
79029SOL    HW238927  13.561  10.166   5.423
79030SOL     OW38928   7.997   1.148   8.635
79030SOL    HW138929   8.043   1.205   8.574
79030SOL    HW238930   7.904   1.161   8.614
79031SOL     OW38931   8.421   9.604  10.201
79031SOL    HW138932   8.500   9.579  10.248
79031SOL    HW238933   8.396   9.689  10.237
79032SOL     OW38934   2.916   6.550  10.007
79032SOL    HW138935   2.901   6.605   9.930
79032SOL    HW238936   2.902   6.461   9.977
79033SOL     OW38937  12.073   8.614  11.938
79033SOL    HW138938  12.042   8.529  11.968
79033SOL    HW238939  12.121   8.649  12.013
79034SOL     OW38940  12.345   9.214   3.597
79034SOL    HW138941  12.322   9.219   3.504
79034SOL    HW238942  12.410   9.145   3.601
79035SOL     OW38943  11.188   4.191   3.817
79035SOL    HW138944  11.275   4.193   3.858
79035SOL    HW238945  11.188   4.264   3.756
79036SOL     OW38946   1.575   6.920   0.649
79036SOL    HW138947   1.624   6.990   0.607
79036SOL    HW238948   1.500   6.964   0.690
79037SOL     OW38949   4.574   6.264   7.467
79037SOL    HW138950   4.605   6.201   7.402
79037SOL    HW238951   4.642   6.331   7.471
79038SOL     OW38952  13.246  12.082   4.315
79038SOL    HW138953  13.275  12.056   4.402
79038SOL    HW238954  13.150  12.081   4.320
79039SOL     OW38955   1.984  10.528   1.227
79039SOL    HW138956   1.980  10.451   1.171
79039SOL    HW238957   2.048  10.586   1.184
79040SOL     OW38958  14.825   9.219  11.224
79040SOL    HW138959  14.809   9.312  11.241
79040SOL    HW238960   0.032   9.199  11.272
79041SOL     OW38961   4.930   1.241  12.691
79041SOL    HW138962   4.842   1.239  12.654
79041SOL    HW238963   4.943   1.154  12.728
79042SOL     OW38964   7.554  10.286   0.795
79042SOL    HW138965   7.559  10.379   0.816
79042SOL    HW238966   7.462  10.270   0.777
79043SOL     OW38967   3.102  13.276   1.153
79043SOL    HW138968   3.170  13.224   1.109
79043SOL    HW238969   3.131  13.367   1.141
79044SOL     OW38970   6.027   9.140   9.650
79044SOL    HW138971   5.935   9.161   9.668
79044SOL    HW238972   6.030   9.124   9.556
79045SOL     OW38973  10.867   6.442   2.943
79045SOL    HW138974  10.814   6.451   3.022
79045SOL    HW238975  10.941   6.388   2.970
79046SOL     OW38976  12.101   6.363   1.348
79046SOL    HW138977  12.120   6.367   1.254
79046SOL    HW238978  12.094   6.270   1.368
79047SOL     OW38979   1.661   9.342   8.777
79047SOL    HW138980   1.668   9.291   8.696
79047SOL    HW238981   1.580   9.392   8.767
79048SOL     OW38982  11.084   1.008  13.062
79048SOL    HW138983  11.080   1.096  13.024
79048SOL    HW238984  11.020   0.958  13.012
79049SOL     OW38985   8.730   4.982  11.434
79049SOL    HW138986   8.704   4.952  11.346
79049SOL    HW238987   8.655   4.961  11.490
79050SOL     OW38988  14.035   8.971   0.697
79050SOL    HW138989  14.125   8.953   0.668
79050SOL    HW238990  13.982   8.909   0.646
79051SOL     OW38991  13.452   0.269  13.572
79051SOL    HW138992  13.451   0.244  13.664
79051SOL    HW238993  13.393   0.344  13.566
79052SOL     OW38994   3.880  13.306   9.156
79052SOL    HW138995   3.861  13.399   9.168
79052SOL    HW238996   3.909  13.276   9.242
79053SOL     OW38997   6.995   1.432  11.317
79053SOL    HW138998   6.921   1.432  11.378
79053SOL    HW238999   7.001   1.523  11.287
79054SOL     OW39000   9.524   8.590  11.833
79054SOL    HW139001   9.478   8.592  11.749
79054SOL    HW239002   9.512   8.501  11.865
79055SOL     OW39003   3.919  14.586   2.575
79055SOL    HW139004   3.974  14.567   2.499
79055SOL    HW239005   3.974  14.643   2.630
79056SOL     OW39006   4.440   0.954   4.823
79056SOL    HW139007   4.518   0.900   4.816
79056SOL    HW239008   4.443   0.988   4.913
79057SOL     OW39009   2.193   6.292  13.588
79057SOL    HW139010   2.220   6.383  13.581
79057SOL    HW239011   2.231   6.250  13.510
79058SOL     OW39012   1.693   6.177  12.602
79058SOL    HW139013   1.613   6.149  12.557
79058SOL    HW239014   1.731   6.095  12.635
79059SOL     OW39015   2.335   3.075   2.597
79059SOL    HW139016   2.302   3.090   2.509
79059SOL    HW239017   2.430   3.070   2.587
79060SOL     OW39018  13.187   8.040  10.590
79060SOL    HW139019  13.270   8.083  10.612
79060SOL    HW239020  13.198   7.950  10.620
79061SOL     OW39021  10.090  11.938   8.943
79061SOL    HW139022  10.104  11.926   8.849
79061SOL    HW239023  10.063  11.851   8.975
79062SOL     OW39024  14.609  10.068   9.338
79062SOL    HW139025  14.607  10.043   9.431
79062SOL    HW239026  14.616  10.164   9.339
79063SOL     OW39027   3.209  12.407   9.052
79063SOL    HW139028   3.124  12.418   9.010
79063SOL    HW239029   3.269  12.456   8.996
79064SOL     OW39030   3.117   1.746   0.219
79064SOL    HW139031   3.106   1.801   0.297
79064SOL    HW239032   3.053   1.781   0.156
79065SOL     OW39033   9.705   6.942   4.728
79065SOL    HW139034   9.609   6.940   4.726
79065SOL    HW239035   9.726   6.985   4.811
79066SOL     OW39036  10.838   7.982  13.676
79066SOL    HW139037  10.809   7.928  13.603
79066SOL    HW239038  10.893   7.924  13.728
79067SOL     OW39039   0.737   7.970  14.709
79067SOL    HW139040   0.694   8.053  14.727
79067SOL    HW239041   0.667   7.905  14.711
79068SOL     OW39042   7.773   4.467  13.884
79068SOL    HW139043   7.752   4.544  13.830
79068SOL    HW239044   7.868   4.470  13.894
79069SOL     OW39045   8.836   0.609   0.348
79069SOL    HW139046   8.803   0.651   0.269
79069SOL    HW239047   8.800   0.520   0.345
79070SOL     OW39048   5.999   6.789  10.235
79070SOL    HW139049   5.908   6.764  10.248
79070SOL    HW239050   6.046   6.705  10.230
79071SOL     OW39051  11.633   0.664   7.332
79071SOL    HW139052  11.722   0.653   7.300
79071SOL    HW239053  11.601   0.575   7.346
79072SOL     OW39054   6.587   7.733  12.741
79072SOL    HW139055   6.641   7.769  12.670
79072SOL    HW239056   6.648   7.724  12.815
79073SOL     OW39057  10.059   8.492  12.614
79073SOL    HW139058  10.055   8.433  12.689
79073SOL    HW239059  10.151   8.493  12.588
79074SOL     OW39060  13.752   8.169  13.509
79074SOL    HW139061  13.818   8.226  13.549
79074SOL    HW239062  13.748   8.093  13.567
79075SOL     OW39063   9.340  11.557   7.200
79075SOL    HW139064   9.270  11.501   7.234
79075SOL    HW239065   9.324  11.643   7.239
79076SOL     OW39066  14.092   0.893   6.968
79076SOL    HW139067  14.090   0.839   6.889
79076SOL    HW239068  14.007   0.938   6.969
79077SOL     OW39069   4.470   9.403  10.773
79077SOL    HW139070   4.449   9.420  10.681
79077SOL    HW239071   4.387   9.377  10.812
79078SOL     OW39072   3.203  13.337   7.190
79078SOL    HW139073   3.216  13.379   7.275
79078SOL    HW239074   3.189  13.410   7.129
79079SOL     OW39075   8.213   2.756   2.913
79079SOL    HW139076   8.206   2.846   2.944
79079SOL    HW239077   8.144   2.747   2.847
79080SOL     OW39078  12.008   6.438  14.521
79080SOL    HW139079  12.062   6.504  14.564
79080SOL    HW239080  12.027   6.357  14.568
79081SOL     OW39081  11.016   6.211   2.452
79081SOL    HW139082  11.082   6.162   2.501
79081SOL    HW239083  10.971   6.263   2.518
79082SOL     OW39084   2.968   0.319   4.608
79082SOL    HW139085   2.988   0.289   4.697
79082SOL    HW239086   3.053   0.345   4.572
79083SOL     OW39087   2.057   0.549  12.495
79083SOL    HW139088   2.088   0.566  12.584
79083SOL    HW239089   2.121   0.592  12.439
79084SOL     OW39090   2.891  11.771   4.940
79084SOL    HW139091   2.970  11.815   4.910
79084SOL    HW239092   2.861  11.721   4.865
79085SOL     OW39093   7.899  10.954   4.994
79085SOL    HW139094   7.923  10.948   5.087
79085SOL    HW239095   7.977  10.925   4.947
79086SOL     OW39096  12.807   9.676   0.420
79086SOL    HW139097  12.736   9.628   0.463
79086SOL    HW239098  12.821   9.630   0.338
79087SOL     OW39099   6.425  13.197   7.131
79087SOL    HW139100   6.383  13.268   7.082
79087SOL    HW239101   6.408  13.119   7.077
79088SOL     OW39102   5.703   4.767  14.861
79088SOL    HW139103   5.652   4.848  14.855
79088SOL    HW239104   5.758   4.779   0.065
79089SOL     OW39105   0.465  10.387   5.913
79089SOL    HW139106   0.408  10.322   5.873
79089SOL    HW239107   0.501  10.438   5.840
79090SOL     OW39108   1.326  12.403   5.873
79090SOL    HW139109   1.313  12.400   5.779
79090SOL    HW239110   1.237  12.395   5.910
79091SOL     OW39111  13.977   8.620  10.820
79091SOL    HW139112  13.969   8.566  10.742
79091SOL    HW239113  13.896   8.604  10.869
79092SOL     OW39114   9.707   0.911  14.288
79092SOL    HW139115   9.653   0.876  14.217
79092SOL    HW239116   9.650   0.909  14.365
79093SOL     OW39117  14.115   6.720  12.235
79093SOL    HW139118  14.077   6.709  12.322
79093SOL    HW239119  14.060   6.787  12.193
79094SOL     OW39120   4.656   1.677   7.897
79094SOL    HW139121   4.691   1.682   7.808
79094SOL    HW239122   4.624   1.587   7.904
79095SOL     OW39123   3.671   3.715   4.816
79095SOL    HW139124   3.610   3.725   4.889
79095SOL    HW239125   3.749   3.677   4.856
79096SOL     OW39126   7.763  12.165   2.655
79096SOL    HW139127   7.713  12.235   2.697
79096SOL    HW239128   7.800  12.114   2.728
79097SOL     OW39129   1.737   8.432   0.607
79097SOL    HW139130   1.772   8.359   0.555
79097SOL    HW239131   1.802   8.502   0.597
79098SOL     OW39132  13.876   0.799  14.180
79098SOL    HW139133  13.910   0.711  14.167
79098SOL    HW239134  13.953   0.854  14.189
79099SOL     OW39135   1.918   0.582   5.849
79099SOL    HW139136   1.908   0.565   5.755
79099SOL    HW239137   1.997   0.533   5.874
79100SOL     OW39138  13.646   1.216  13.057
79100SOL    HW139139  13.734   1.241  13.084
79100SOL    HW239140  13.605   1.181  13.136
79101SOL     OW39141   6.978   7.057   1.133
79101SOL    HW139142   7.053   7.016   1.175
79101SOL    HW239143   6.931   7.101   1.204
79102SOL     OW39144   2.308  11.783   0.499
79102SOL    HW139145   2.294  11.767   0.406
79102SOL    HW239146   2.403  11.798   0.507
79103SOL     OW39147  12.542  13.855  14.492
79103SOL    HW139148  12.616  13.862  14.552
79103SOL    HW239149  12.567  13.909  14.417
79104SOL     OW39150   7.787  11.784   7.822
79104SOL    HW139151   7.870  11.811   7.781
79104SOL    HW239152   7.808  11.773   7.915
79105SOL     OW39153   7.021   7.626   9.494
79105SOL    HW139154   7.107   7.589   9.477
79105SOL    HW239155   7.022   7.712   9.452
79106SOL     OW39156  12.674  14.245  12.513
79106SOL    HW139157  12.662  14.292  12.431
79106SOL    HW239158  12.657  14.310  12.581
79107SOL     OW39159   8.724   0.775  13.269
79107SOL    HW139160   8.720   0.695  13.321
79107SOL    HW239161   8.806   0.817  13.297
79108SOL     OW39162   1.462   2.363   4.414
79108SOL    HW139163   1.516   2.285   4.405
79108SOL    HW239164   1.481   2.415   4.336
79109SOL     OW39165  13.859  10.040   6.414
79109SOL    HW139166  13.892  10.089   6.489
79109SOL    HW239167  13.770  10.073   6.401
79110SOL     OW39168  12.175   9.142   9.586
79110SOL    HW139169  12.154   9.222   9.537
79110SOL    HW239170  12.255   9.165   9.635
79111SOL     OW39171   7.016   2.402   2.819
79111SOL    HW139172   7.052   2.490   2.827
79111SOL    HW239173   7.001   2.374   2.909
79112SOL     OW39174   3.768   1.575  14.443
79112SOL    HW139175   3.715   1.605  14.369
79112SOL    HW239176   3.842   1.636  14.447
79113SOL     OW39177   6.989  10.924   0.920
79113SOL    HW139178   6.942  10.842   0.935
79113SOL    HW239179   6.921  10.987   0.896
79114SOL     OW39180  11.127  14.052  10.014
79114SOL    HW139181  11.182  14.057   9.936
79114SOL    HW239182  11.181  14.087  10.084
79115SOL     OW39183   2.385   4.931  13.080
79115SOL    HW139184   2.431   4.962  13.158
79115SOL    HW239185   2.338   5.009  13.048
79116SOL     OW39186   7.408  12.235   9.451
79116SOL    HW139187   7.328  12.287   9.448
79116SOL    HW239188   7.394  12.164   9.388
79117SOL     OW39189  11.065   9.428   4.819
79117SOL    HW139190  10.978   9.395   4.840
79117SOL    HW239191  11.078   9.501   4.880
79118SOL     OW39192   8.273  11.498   3.701
79118SOL    HW139193   8.237  11.586   3.696
79118SOL    HW239194   8.201  11.445   3.735
79119SOL     OW39195  14.608   5.511   5.229
79119SOL    HW139196  14.555   5.434   5.210
79119SOL    HW239197  14.635   5.499   5.320
79120SOL     OW39198   0.619  14.776   6.438
79120SOL    HW139199   0.580  14.764   6.525
79120SOL    HW239200   0.711  14.754   6.450
79121SOL     OW39201  11.960   5.584   9.144
79121SOL    HW139202  11.934   5.495   9.169
79121SOL    HW239203  12.020   5.612   9.212
79122SOL     OW39204  13.776  10.598   9.558
79122SOL    HW139205  13.781  10.561   9.470
79122SOL    HW239206  13.778  10.522   9.616
79123SOL     OW39207   2.735   5.734   4.223
79123SOL    HW139208   2.799   5.721   4.294
79123SOL    HW239209   2.774   5.801   4.168
79124SOL     OW39210   9.932  12.467   0.571
79124SOL    HW139211   9.954  12.459   0.478
79124SOL    HW239212  10.002  12.522   0.607
79125SOL     OW39213   4.535   4.166   4.629
79125SOL    HW139214   4.590   4.228   4.581
79125SOL    HW239215   4.445   4.190   4.605
79126SOL     OW39216   6.143   1.892   4.401
79126SOL    HW139217   6.169   1.960   4.339
79126SOL    HW239218   6.188   1.916   4.483
79127SOL     OW39219   7.645  13.476   7.980
79127SOL    HW139220   7.725  13.424   7.982
79127SOL    HW239221   7.581  13.425   8.028
79128SOL     OW39222  12.694   7.696   0.894
79128SOL    HW139223  12.610   7.651   0.891
79128SOL    HW239224  12.742   7.655   0.966
79129SOL     OW39225  14.202   4.847   4.505
79129SOL    HW139226  14.236   4.937   4.512
79129SOL    HW239227  14.133   4.852   4.438
79130SOL     OW39228   8.269   0.541   3.692
79130SOL    HW139229   8.211   0.582   3.756
79130SOL    HW239230   8.290   0.611   3.631
79131SOL     OW39231   8.024   7.813   7.939
79131SOL    HW139232   8.068   7.751   7.997
79131SOL    HW239233   8.025   7.896   7.987
79132SOL     OW39234  13.276  11.725  13.357
79132SOL    HW139235  13.300  11.799  13.301
79132SOL    HW239236  13.181  11.721  13.352
79133SOL     OW39237   3.873  13.030  12.774
79133SOL    HW139238   3.931  13.010  12.848
79133SOL    HW239239   3.914  13.106  12.732
79134SOL     OW39240   4.550   4.350   6.279
79134SOL    HW139241   4.635   4.387   6.302
79134SOL    HW239242   4.528   4.294   6.353
79135SOL     OW39243  12.940   1.013   0.927
79135SOL    HW139244  12.947   1.055   1.013
79135SOL    HW239245  12.999   1.064   0.871
79136SOL     OW39246   6.248  12.671   4.904
79136SOL    HW139247   6.301  12.670   4.824
79136SOL    HW239248   6.292  12.733   4.961
79137SOL     OW39249   7.427   8.733   6.067
79137SOL    HW139250   7.420   8.641   6.040
79137SOL    HW239251   7.421   8.730   6.162
79138SOL     OW39252   6.567   9.680  10.327
79138SOL    HW139253   6.611   9.610  10.374
79138SOL    HW239254   6.557   9.750  10.391
79139SOL     OW39255   2.121   9.854   4.554
79139SOL    HW139256   2.124   9.792   4.626
79139SOL    HW239257   2.177   9.816   4.486
79140SOL     OW39258  10.119   6.541   1.133
79140SOL    HW139259  10.113   6.450   1.162
79140SOL    HW239260  10.174   6.538   1.055
79141SOL     OW39261   4.923  14.252  11.573
79141SOL    HW139262   4.962  14.214  11.652
79141SOL    HW239263   4.884  14.334  11.602
79142SOL     OW39264   1.756   4.828   1.018
79142SOL    HW139265   1.716   4.760   0.964
79142SOL    HW239266   1.844   4.838   0.982
79143SOL     OW39267  14.150  11.064  10.221
79143SOL    HW139268  14.077  11.012  10.189
79143SOL    HW239269  14.110  11.129  10.279
79144SOL     OW39270   2.748  12.402   0.287
79144SOL    HW139271   2.744  12.487   0.331
79144SOL    HW239272   2.718  12.420   0.198
79145SOL     OW39273   7.393  10.253  10.458
79145SOL    HW139274   7.319  10.207  10.418
79145SOL    HW239275   7.461  10.186  10.466
79146SOL     OW39276   7.671   8.497   6.578
79146SOL    HW139277   7.598   8.487   6.640
79146SOL    HW239278   7.655   8.582   6.537
79147SOL     OW39279   7.177   8.609   8.873
79147SOL    HW139280   7.216   8.567   8.949
79147SOL    HW239281   7.093   8.565   8.862
79148SOL     OW39282   1.752   4.034   0.977
79148SOL    HW139283   1.796   4.110   0.940
79148SOL    HW239284   1.692   4.071   1.043
79149SOL     OW39285   8.912   2.946   8.482
79149SOL    HW139286   8.920   2.894   8.563
79149SOL    HW239287   8.992   2.999   8.480
79150SOL     OW39288   6.599  10.234   0.542
79150SOL    HW139289   6.528  10.245   0.478
79150SOL    HW239290   6.559  10.184   0.614
79151SOL     OW39291   8.494  10.151  11.973
79151SOL    HW139292   8.584  10.165  12.003
79151SOL    HW239293   8.480  10.057  11.983
79152SOL     OW39294  13.546   1.403   3.058
79152SOL    HW139295  13.473   1.348   3.085
79152SOL    HW239296  13.509   1.491   3.054
79153SOL     OW39297  13.565  12.443  10.190
79153SOL    HW139298  13.521  12.382  10.132
79153SOL    HW239299  13.533  12.420  10.278
79154SOL     OW39300   8.707   4.283   5.771
79154SOL    HW139301   8.723   4.320   5.684
79154SOL    HW239302   8.703   4.188   5.755
79155SOL     OW39303   5.890  12.664   1.652
79155SOL    HW139304   5.934  12.724   1.713
79155SOL    HW239305   5.844  12.602   1.708
79156SOL     OW39306   5.525   7.876   3.707
79156SOL    HW139307   5.479   7.959   3.695
79156SOL    HW239308   5.517   7.831   3.623
79157SOL     OW39309  10.850   0.226   1.351
79157SOL    HW139310  10.863   0.281   1.429
79157SOL    HW239311  10.759   0.198   1.356
79158SOL     OW39312   4.979  10.163   4.390
79158SOL    HW139313   4.921  10.181   4.463
79158SOL    HW239314   5.061  10.135   4.430
79159SOL     OW39315   1.482   6.372  14.313
79159SOL    HW139316   1.429   6.340  14.240
79159SOL    HW239317   1.482   6.467  14.303
79160SOL     OW39318   2.311  12.632  10.673
79160SOL    HW139319   2.309  12.653  10.580
79160SOL    HW239320   2.309  12.537  10.676
79161SOL     OW39321   4.938   9.600   9.669
79161SOL    HW139322   4.984   9.635   9.592
79161SOL    HW239323   4.916   9.678   9.720
79162SOL     OW39324   7.460  12.853  10.028
79162SOL    HW139325   7.509  12.779  10.065
79162SOL    HW239326   7.374  12.847  10.069
79163SOL     OW39327   4.372   9.583   1.776
79163SOL    HW139328   4.367   9.492   1.746
79163SOL    HW239329   4.308   9.588   1.848
79164SOL     OW39330  12.631  13.601   2.788
79164SOL    HW139331  12.680  13.557   2.718
79164SOL    HW239332  12.559  13.646   2.742
79165SOL     OW39333   0.245  14.161  11.067
79165SOL    HW139334   0.226  14.067  11.069
79165SOL    HW239335   0.168  14.202  11.108
79166SOL     OW39336   9.117   4.383   0.576
79166SOL    HW139337   9.146   4.361   0.487
79166SOL    HW239338   9.163   4.321   0.632
79167SOL     OW39339   6.588   9.340   3.835
79167SOL    HW139340   6.564   9.397   3.763
79167SOL    HW239341   6.619   9.259   3.793
79168SOL     OW39342   7.986  11.484   1.879
79168SOL    HW139343   8.000  11.410   1.821
79168SOL    HW239344   8.029  11.459   1.961
79169SOL     OW39345   9.026   8.833  14.810
79169SOL    HW139346   9.059   8.890   0.006
79169SOL    HW239347   8.981   8.762  14.857
79170SOL     OW39348   5.118  13.801   4.800
79170SOL    HW139349   5.094  13.810   4.708
79170SOL    HW239350   5.068  13.870   4.844
79171SOL     OW39351  13.425  13.006   8.162
79171SOL    HW139352  13.335  13.030   8.183
79171SOL    HW239353  13.474  13.024   8.242
79172SOL     OW39354  10.229  14.275  14.674
79172SOL    HW139355  10.316  14.238  14.662
79172SOL    HW239356  10.227  14.351  14.616
79173SOL     OW39357   6.152   4.696   3.624
79173SOL    HW139358   6.214   4.768   3.634
79173SOL    HW239359   6.129   4.670   3.713
79174SOL     OW39360  10.881   6.093   5.227
79174SOL    HW139361  10.786   6.087   5.213
79174SOL    HW239362  10.902   6.019   5.284
79175SOL     OW39363   4.929   8.056  10.097
79175SOL    HW139364   4.899   7.975  10.056
79175SOL    HW239365   4.886   8.057  10.182
79176SOL     OW39366   0.814   7.433   4.269
79176SOL    HW139367   0.733   7.391   4.298
79176SOL    HW239368   0.882   7.392   4.323
79177SOL     OW39369   4.999   2.608   0.883
79177SOL    HW139370   4.979   2.627   0.975
79177SOL    HW239371   4.975   2.515   0.872
79178SOL     OW39372   8.093  14.231   2.351
79178SOL    HW139373   8.026  14.273   2.298
79178SOL    HW239374   8.056  14.229   2.439
79179SOL     OW39375   4.652  10.267  14.056
79179SOL    HW139376   4.623  10.313  14.135
79179SOL    HW239377   4.666  10.177  14.084
79180SOL     OW39378  12.702  12.574   0.381
79180SOL    HW139379  12.795  12.554   0.376
79180SOL    HW239380  12.690  12.650   0.324
79181SOL     OW39381  14.111   4.908   0.425
79181SOL    HW139382  14.149   4.903   0.338
79181SOL    HW239383  14.054   4.832   0.431
79182SOL     OW39384   3.125   4.195   4.870
79182SOL    HW139385   3.040   4.153   4.858
79182SOL    HW239386   3.137   4.197   4.965
79183SOL     OW39387   2.436   9.197   8.903
79183SOL    HW139388   2.414   9.107   8.877
79183SOL    HW239389   2.532   9.198   8.908
79184SOL     OW39390  10.178  10.311   1.793
79184SOL    HW139391  10.232  10.232   1.805
79184SOL    HW239392  10.228  10.380   1.837
79185SOL     OW39393  14.359   2.427  12.462
79185SOL    HW139394  14.401   2.455  12.543
79185SOL    HW239395  14.296   2.360  12.489
79186SOL     OW39396  12.854   9.037  14.035
79186SOL    HW139397  12.878   8.987  13.957
79186SOL    HW239398  12.914   9.005  14.103
79187SOL     OW39399   6.388   8.520   7.667
79187SOL    HW139400   6.303   8.479   7.647
79187SOL    HW239401   6.403   8.579   7.594
79188SOL     OW39402   2.471   4.090   5.955
79188SOL    HW139403   2.476   4.097   6.051
79188SOL    HW239404   2.559   4.112   5.925
79189SOL     OW39405   5.484   7.507   6.848
79189SOL    HW139406   5.514   7.595   6.823
79189SOL    HW239407   5.430   7.521   6.925
79190SOL     OW39408   1.722   0.327   6.183
79190SOL    HW139409   1.727   0.357   6.092
79190SOL    HW239410   1.813   0.330   6.214
79191SOL     OW39411   4.628   5.123   4.566
79191SOL    HW139412   4.587   5.090   4.487
79191SOL    HW239413   4.722   5.123   4.546
79192SOL     OW39414   5.383  10.590   6.511
79192SOL    HW139415   5.405  10.534   6.585
79192SOL    HW239416   5.320  10.539   6.460
79193SOL     OW39417   7.573  13.144   9.307
79193SOL    HW139418   7.604  13.085   9.375
79193SOL    HW239419   7.512  13.092   9.255
79194SOL     OW39420   8.038  12.188  13.954
79194SOL    HW139421   8.042  12.284  13.960
79194SOL    HW239422   7.959  12.164  14.003
79195SOL     OW39423  10.689   5.886  14.146
79195SOL    HW139424  10.780   5.871  14.123
79195SOL    HW239425  10.649   5.799  14.144
79196SOL     OW39426   0.545  13.274   7.027
79196SOL    HW139427   0.489  13.202   6.999
79196SOL    HW239428   0.607  13.235   7.089
79197SOL     OW39429  10.966  14.064   6.385
79197SOL    HW139430  10.871  14.057   6.376
79197SOL    HW239431  10.989  13.995   6.448
79198SOL     OW39432   9.883   4.614   8.053
79198SOL    HW139433   9.961   4.573   8.091
79198SOL    HW239434   9.909   4.641   7.966
79199SOL     OW39435   7.408   2.577  12.378
79199SOL    HW139436   7.374   2.529  12.454
79199SOL    HW239437   7.358   2.659  12.378
79200SOL     OW39438  13.759   7.791   4.614
79200SOL    HW139439  13.716   7.867   4.576
79200SOL    HW239440  13.721   7.783   4.702
79201SOL     OW39441   3.518   2.673   0.167
79201SOL    HW139442   3.563   2.676   0.251
79201SOL    HW239443   3.568   2.611   0.115
79202SOL     OW39444  13.480   9.891  10.682
79202SOL    HW139445  13.393   9.860  10.658
79202SOL    HW239446  13.473   9.912  10.775
79203SOL     OW39447   1.275   0.065   8.328
79203SOL    HW139448   1.271   0.045   8.235
79203SOL    HW239449   1.347   0.012   8.361
79204SOL     OW39450   9.944   5.561   2.561
79204SOL    HW139451  10.033   5.583   2.589
79204SOL    HW239452   9.956   5.493   2.495
79205SOL     OW39453   9.633  11.458   9.988
79205SOL    HW139454   9.674  11.461   9.901
79205SOL    HW239455   9.555  11.403   9.975
79206SOL     OW39456   2.067   8.385   3.034
79206SOL    HW139457   2.024   8.433   2.963
79206SOL    HW239458   2.124   8.450   3.076
79207SOL     OW39459  10.945   2.405   7.481
79207SOL    HW139460  10.933   2.321   7.437
79207SOL    HW239461  11.033   2.433   7.458
79208SOL     OW39462   6.758   2.457   7.316
79208SOL    HW139463   6.687   2.472   7.378
79208SOL    HW239464   6.760   2.362   7.303
79209SOL     OW39465   9.054   3.299   2.368
79209SOL    HW139466   9.109   3.348   2.308
79209SOL    HW239467   8.986   3.261   2.313
79210SOL     OW39468   0.766   2.188  13.517
79210SOL    HW139469   0.700   2.154  13.578
79210SOL    HW239470   0.844   2.135  13.535
79211SOL     OW39471   4.276   8.035   7.264
79211SOL    HW139472   4.327   7.955   7.277
79211SOL    HW239473   4.187   8.004   7.246
79212SOL     OW39474   4.662  13.350   0.566
79212SOL    HW139475   4.714  13.290   0.512
79212SOL    HW239476   4.669  13.434   0.522
79213SOL     OW39477   3.997  14.546   1.469
79213SOL    HW139478   4.031  14.457   1.463
79213SOL    HW239479   3.993  14.565   1.563
79214SOL     OW39480  14.740   0.982   1.318
79214SOL    HW139481  14.831   1.011   1.310
79214SOL    HW239482  14.701   1.042   1.380
79215SOL     OW39483   0.651   0.065   4.515
79215SOL    HW139484   0.631   0.103   4.601
79215SOL    HW239485   0.611  14.851   4.517
79216SOL     OW39486   5.732   1.229   9.971
79216SOL    HW139487   5.713   1.183  10.053
79216SOL    HW239488   5.749   1.160   9.908
79217SOL     OW39489   8.652   6.729  14.446
79217SOL    HW139490   8.571   6.695  14.483
79217SOL    HW239491   8.640   6.720  14.351
79218SOL     OW39492   8.060   0.472  14.093
79218SOL    HW139493   8.063   0.400  14.031
79218SOL    HW239494   7.973   0.511  14.083
79219SOL     OW39495   6.050  13.845   2.565
79219SOL    HW139496   5.966  13.890   2.554
79219SOL    HW239497   6.113  13.916   2.579
79220SOL     OW39498  13.752  14.068   8.285
79220SOL    HW139499  13.732  14.010   8.359
79220SOL    HW239500  13.736  14.156   8.320
79221SOL     OW39501  10.843  10.164   5.115
79221SOL    HW139502  10.807  10.085   5.155
79221SOL    HW239503  10.778  10.232   5.132
79222SOL     OW39504  12.379   5.205   4.107
79222SOL    HW139505  12.382   5.117   4.143
79222SOL    HW239506  12.354   5.193   4.016
79223SOL     OW39507   1.534   9.717   0.135
79223SOL    HW139508   1.474   9.683   0.068
79223SOL    HW239509   1.619   9.681   0.112
79224SOL     OW39510   5.653   5.616  14.019
79224SOL    HW139511   5.741   5.653  14.009
79224SOL    HW239512   5.663   5.546  14.084
79225SOL     OW39513  12.708  11.223   6.780
79225SOL    HW139514  12.631  11.169   6.764
79225SOL    HW239515  12.694  11.259   6.867
79226SOL     OW39516   4.739  12.616  12.441
79226SOL    HW139517   4.805  12.561  12.483
79226SOL    HW239518   4.674  12.554  12.408
79227SOL     OW39519  11.286   1.284  14.326
79227SOL    HW139520  11.289   1.346  14.253
79227SOL    HW239521  11.200   1.243  14.319
79228SOL     OW39522   8.446  13.713   1.928
79228SOL    HW139523   8.360  13.754   1.923
79228SOL    HW239524   8.433  13.635   1.982
79229SOL     OW39525   1.345   7.948   8.492
79229SOL    HW139526   1.380   7.908   8.412
79229SOL    HW239527   1.264   7.990   8.464
79230SOL     OW39528   8.003  12.701  10.321
79230SOL    HW139529   8.068  12.681  10.254
79230SOL    HW239530   7.940  12.760  10.277
79231SOL     OW39531   1.692  13.571  12.768
79231SOL    HW139532   1.732  13.508  12.708
79231SOL    HW239533   1.598  13.554  12.762
79232SOL     OW39534  10.531  12.755  11.575
79232SOL    HW139535  10.626  12.763  11.575
79232SOL    HW239536  10.506  12.770  11.484
79233SOL     OW39537   3.120  10.822  12.549
79233SOL    HW139538   3.070  10.896  12.515
79233SOL    HW239539   3.211  10.854  12.550
79234SOL     OW39540   4.025  11.396   9.756
79234SOL    HW139541   3.987  11.439   9.833
79234SOL    HW239542   4.116  11.382   9.779
79235SOL     OW39543   0.981   7.374   6.540
79235SOL    HW139544   1.034   7.361   6.462
79235SOL    HW239545   1.044   7.375   6.612
79236SOL     OW39546  10.310   7.303  14.129
79236SOL    HW139547  10.379   7.349  14.082
79236SOL    HW239548  10.236   7.302  14.068
79237SOL     OW39549  13.637   8.121   8.724
79237SOL    HW139550  13.553   8.145   8.765
79237SOL    HW239551  13.636   8.167   8.640
79238SOL     OW39552  12.488   7.467   2.533
79238SOL    HW139553  12.555   7.510   2.586
79238SOL    HW239554  12.536   7.433   2.457
79239SOL     OW39555  10.010  10.880   2.952
79239SOL    HW139556   9.928  10.837   2.978
79239SOL    HW239557   9.986  10.930   2.873
79240SOL     OW39558   1.254   9.296  13.738
79240SOL    HW139559   1.333   9.280  13.789
79240SOL    HW239560   1.183   9.259  13.791
79241SOL     OW39561   4.981   6.163  14.055
79241SOL    HW139562   4.897   6.188  14.094
79241SOL    HW239563   5.017   6.246  14.021
79242SOL     OW39564   4.263  12.546  14.517
79242SOL    HW139565   4.324  12.508  14.454
79242SOL    HW239566   4.268  12.640  14.503
79243SOL     OW39567  13.830   6.850   9.105
79243SOL    HW139568  13.764   6.784   9.129
79243SOL    HW239569  13.784   6.908   9.044
79244SOL     OW39570   3.519  10.122   4.116
79244SOL    HW139571   3.432  10.086   4.131
79244SOL    HW239572   3.558  10.127   4.203
79245SOL     OW39573  11.463   4.158   7.407
79245SOL    HW139574  11.545   4.108   7.411
79245SOL    HW239575  11.462   4.194   7.318
79246SOL     OW39576  11.026  11.658  13.369
79246SOL    HW139577  10.947  11.611  13.343
79246SOL    HW239578  11.092  11.590  13.381
79247SOL     OW39579   7.805   1.381   1.502
79247SOL    HW139580   7.800   1.472   1.534
79247SOL    HW239581   7.719   1.364   1.464
79248SOL     OW39582   3.587  11.237   7.123
79248SOL    HW139583   3.553  11.326   7.115
79248SOL    HW239584   3.634  11.236   7.206
79249SOL     OW39585   4.221   3.646   7.345
79249SOL    HW139586   4.241   3.721   7.401
79249SOL    HW239587   4.291   3.583   7.363
79250SOL     OW39588   0.403  10.314   6.409
79250SOL    HW139589   0.387  10.406   6.431
79250SOL    HW239590   0.486  10.293   6.452
79251SOL     OW39591   9.878   0.021   1.721
79251SOL    HW139592   9.953  14.837   1.738
79251SOL    HW239593   9.802  14.837   1.725
79252SOL     OW39594   6.505   5.389   2.852
79252SOL    HW139595   6.524   5.309   2.803
79252SOL    HW239596   6.515   5.459   2.788
79253SOL     OW39597  13.949   5.707   3.350
79253SOL    HW139598  13.920   5.618   3.331
79253SOL    HW239599  13.926   5.721   3.442
79254SOL     OW39600   7.758   0.068  10.577
79254SOL    HW139601   7.726  14.862  10.534
79254SOL    HW239602   7.849   0.076  10.548
79255SOL     OW39603   7.754   1.364   7.498
79255SOL    HW139604   7.759   1.387   7.591
79255SOL    HW239605   7.773   1.270   7.496
79256SOL     OW39606  14.680  13.767  11.228
79256SOL    HW139607  14.746  13.754  11.160
79256SOL    HW239608  14.606  13.713  11.200
79257SOL     OW39609  10.516   6.813  12.895
79257SOL    HW139610  10.522   6.865  12.815
79257SOL    HW239611  10.483   6.728  12.866
79258SOL     OW39612   3.245  13.833  13.724
79258SOL    HW139613   3.167  13.798  13.681
79258SOL    HW239614   3.304  13.855  13.652
79259SOL     OW39615  11.719   9.733   1.332
79259SOL    HW139616  11.710   9.717   1.426
79259SOL    HW239617  11.731   9.647   1.293
79260SOL     OW39618  13.747  10.831   7.444
79260SOL    HW139619  13.658  10.804   7.422
79260SOL    HW239620  13.801  10.800   7.371
79261SOL     OW39621  14.463  13.223   7.812
79261SOL    HW139622  14.536  13.285   7.803
79261SOL    HW239623  14.429  13.240   7.900
79262SOL     OW39624   6.453   5.495   1.745
79262SOL    HW139625   6.516   5.429   1.771
79262SOL    HW239626   6.371   5.468   1.787
79263SOL     OW39627  10.405   9.741  10.441
79263SOL    HW139628  10.464   9.718  10.512
79263SOL    HW239629  10.328   9.686  10.454
79264SOL     OW39630   2.827   2.148   9.075
79264SOL    HW139631   2.779   2.181   9.150
79264SOL    HW239632   2.862   2.226   9.032
79265SOL     OW39633  13.568  12.318   1.435
79265SOL    HW139634  13.496  12.259   1.458
79265SOL    HW239635  13.525  12.399   1.409
79266SOL     OW39636  11.443  10.571  10.110
79266SOL    HW139637  11.432  10.504  10.043
79266SOL    HW239638  11.369  10.631  10.098
79267SOL     OW39639   9.717  12.632   8.600
79267SOL    HW139640   9.656  12.665   8.535
79267SOL    HW239641   9.667  12.630   8.682
79268SOL     OW39642   1.999  11.174   1.831
79268SOL    HW139643   1.932  11.196   1.766
79268SOL    HW239644   1.950  11.147   1.909
79269SOL     OW39645   2.135   9.872   1.350
79269SOL    HW139646   2.077   9.926   1.297
79269SOL    HW239647   2.205   9.846   1.290
79270SOL     OW39648   6.009   2.103  14.241
79270SOL    HW139649   5.963   2.072  14.163
79270SOL    HW239650   6.026   2.196  14.223
79271SOL     OW39651  12.688   7.873   4.158
79271SOL    HW139652  12.596   7.849   4.152
79271SOL    HW239653  12.714   7.850   4.247
79272SOL     OW39654  12.923   7.901   3.970
79272SOL    HW139655  12.974   7.974   4.006
79272SOL    HW239656  12.855   7.885   4.034
79273SOL     OW39657  10.256   9.035  12.126
79273SOL    HW139658  10.165   9.006  12.124
79273SOL    HW239659  10.307   8.958  12.102
79274SOL     OW39660  13.089   1.674   3.862
79274SOL    HW139661  13.047   1.757   3.840
79274SOL    HW239662  13.026   1.629   3.918
79275SOL     OW39663  13.481  10.341  12.775
79275SOL    HW139664  13.396  10.363  12.737
79275SOL    HW239665  13.544  10.364  12.707
79276SOL     OW39666   3.913  14.569   7.345
79276SOL    HW139667   3.951  14.655   7.327
79276SOL    HW239668   3.972  14.508   7.300
79277SOL     OW39669  10.318   7.980  13.504
79277SOL    HW139670  10.311   7.900  13.450
79277SOL    HW239671  10.256   8.041  13.464
79278SOL     OW39672  10.972  11.591   9.166
79278SOL    HW139673  10.938  11.566   9.080
79278SOL    HW239674  10.915  11.544   9.228
79279SOL     OW39675  14.035   1.938   4.719
79279SOL    HW139676  14.024   1.924   4.813
79279SOL    HW239677  14.015   2.031   4.706
79280SOL     OW39678  11.998   2.895   4.683
79280SOL    HW139679  11.920   2.924   4.637
79280SOL    HW239680  12.050   2.850   4.617
79281SOL     OW39681   4.341   5.730   5.500
79281SOL    HW139682   4.346   5.680   5.582
79281SOL    HW239683   4.327   5.664   5.433
79282SOL     OW39684   2.474   8.137   8.153
79282SOL    HW139685   2.458   8.072   8.084
79282SOL    HW239686   2.569   8.143   8.159
79283SOL     OW39687  11.475   5.750  13.510
79283SOL    HW139688  11.532   5.673  13.510
79283SOL    HW239689  11.535   5.824  13.503
79284SOL     OW39690   7.259   8.871  13.345
79284SOL    HW139691   7.328   8.805  13.359
79284SOL    HW239692   7.281   8.941  13.407
79285SOL     OW39693  10.988  10.672   3.800
79285SOL    HW139694  10.938  10.754   3.798
79285SOL    HW239695  11.034  10.670   3.716
79286SOL     OW39696  14.498   7.909  14.570
79286SOL    HW139697  14.438   7.855  14.621
79286SOL    HW239698  14.571   7.851  14.550
79287SOL     OW39699   4.126  12.823   7.470
79287SOL    HW139700   4.195  12.855   7.412
79287SOL    HW239701   4.166  12.750   7.517
79288SOL     OW39702   9.901  14.488  13.918
79288SOL    HW139703   9.822  14.482  13.971
79288SOL    HW239704   9.871  14.523  13.834
79289SOL     OW39705   5.737   6.469  10.970
79289SOL    HW139706   5.728   6.563  10.986
79289SOL    HW239707   5.709   6.428  11.052
79290SOL     OW39708   5.400   5.439  13.452
79290SOL    HW139709   5.382   5.414  13.362
79290SOL    HW239710   5.360   5.371  13.506
79291SOL     OW39711   8.763   8.237   6.858
79291SOL    HW139712   8.684   8.217   6.908
79291SOL    HW239713   8.819   8.160   6.868
79292SOL     OW39714   9.388  13.514  14.356
79292SOL    HW139715   9.401  13.439  14.297
79292SOL    HW239716   9.475  13.553  14.363
79293SOL     OW39717   4.033   6.680  13.229
79293SOL    HW139718   4.034   6.632  13.146
79293SOL    HW239719   3.940   6.697  13.245
79294SOL     OW39720   9.316  11.377   8.734
79294SOL    HW139721   9.257  11.322   8.785
79294SOL    HW239722   9.363  11.315   8.677
79295SOL     OW39723   6.820   3.922   1.745
79295SOL    HW139724   6.800   3.898   1.835
79295SOL    HW239725   6.846   3.840   1.703
79296SOL     OW39726   6.670   3.711   3.347
79296SOL    HW139727   6.625   3.761   3.279
79296SOL    HW239728   6.602   3.658   3.387
79297SOL     OW39729   9.845  11.813  12.789
79297SOL    HW139730   9.832  11.892  12.738
79297SOL    HW239731   9.760  11.797  12.831
79298SOL     OW39732  10.719  12.191  14.316
79298SOL    HW139733  10.802  12.214  14.357
79298SOL    HW239734  10.715  12.095  14.322
79299SOL     OW39735  10.655  13.688  10.483
79299SOL    HW139736  10.575  13.722  10.523
79299SOL    HW239737  10.628  13.607  10.441
79300SOL     OW39738   5.449   1.994   1.231
79300SOL    HW139739   5.458   1.998   1.135
79300SOL    HW239740   5.514   2.057   1.264
79301SOL     OW39741   0.032   4.391   2.515
79301SOL    HW139742  14.870   4.467   2.469
79301SOL    HW239743  14.830   4.333   2.527
79302SOL     OW39744   9.883  10.718  10.292
79302SOL    HW139745   9.936  10.645  10.323
79302SOL    HW239746   9.937  10.796  10.310
79303SOL     OW39747   5.036   4.312   5.423
79303SOL    HW139748   5.022   4.308   5.328
79303SOL    HW239749   5.041   4.220   5.449
79304SOL     OW39750  10.119  10.608   0.217
79304SOL    HW139751  10.134  10.541   0.150
79304SOL    HW239752  10.025  10.628   0.211
79305SOL     OW39753   5.465   6.869   1.202
79305SOL    HW139754   5.495   6.952   1.164
79305SOL    HW239755   5.478   6.805   1.133
79306SOL     OW39756   6.415   7.461   4.074
79306SOL    HW139757   6.336   7.514   4.062
79306SOL    HW239758   6.479   7.501   4.015
79307SOL     OW39759   3.407   7.091   6.529
79307SOL    HW139760   3.470   7.023   6.505
79307SOL    HW239761   3.424   7.107   6.622
79308SOL     OW39762   1.031   5.250  11.396
79308SOL    HW139763   0.976   5.203  11.458
79308SOL    HW239764   1.093   5.299  11.450
79309SOL     OW39765   6.516   5.549  14.776
79309SOL    HW139766   6.528   5.636  14.739
79309SOL    HW239767   6.495   5.494  14.701
79310SOL     OW39768   6.842   6.350   8.720
79310SOL    HW139769   6.773   6.284   8.714
79310SOL    HW239770   6.838   6.380   8.811
79311SOL     OW39771   7.029  14.340  11.540
79311SOL    HW139772   7.042  14.326  11.634
79311SOL    HW239773   6.940  14.374  11.533
79312SOL     OW39774   8.785  14.522   7.735
79312SOL    HW139775   8.853  14.581   7.770
79312SOL    HW239776   8.703  14.558   7.769
79313SOL     OW39777   8.037  14.760   4.026
79313SOL    HW139778   8.050  14.853   4.007
79313SOL    HW239779   8.032  14.718   3.939
79314SOL     OW39780   4.435   6.821   6.075
79314SOL    HW139781   4.451   6.788   5.987
79314SOL    HW239782   4.485   6.762   6.132
79315SOL     OW39783   1.995   4.917   0.579
79315SOL    HW139784   1.915   4.939   0.532
79315SOL    HW239785   2.058   4.983   0.551
79316SOL     OW39786  11.412  10.875   3.108
79316SOL    HW139787  11.358  10.916   3.175
79316SOL    HW239788  11.501  10.904   3.128
79317SOL     OW39789  14.401  11.221   3.185
79317SOL    HW139790  14.442  11.169   3.116
79317SOL    HW239791  14.376  11.156   3.252
79318SOL     OW39792   6.101  10.669   2.186
79318SOL    HW139793   6.035  10.731   2.218
79318SOL    HW239794   6.173  10.724   2.155
79319SOL     OW39795   9.925   1.830   2.367
79319SOL    HW139796   9.879   1.793   2.292
79319SOL    HW239797   9.905   1.771   2.439
79320SOL     OW39798   0.648   4.654   0.817
79320SOL    HW139799   0.720   4.716   0.808
79320SOL    HW239800   0.585   4.679   0.750
79321SOL     OW39801  12.934   0.521   0.798
79321SOL    HW139802  12.963   0.601   0.754
79321SOL    HW239803  12.845   0.540   0.825
79322SOL     OW39804  12.833   7.413  13.775
79322SOL    HW139805  12.807   7.416  13.683
79322SOL    HW239806  12.861   7.323  13.789
79323SOL     OW39807   2.249   5.660  12.772
79323SOL    HW139808   2.284   5.659  12.861
79323SOL    HW239809   2.216   5.749  12.760
79324SOL     OW39810   5.631  13.267   5.664
79324SOL    HW139811   5.594  13.259   5.577
79324SOL    HW239812   5.693  13.194   5.671
79325SOL     OW39813  10.641   2.139   5.530
79325SOL    HW139814  10.580   2.203   5.567
79325SOL    HW239815  10.673   2.090   5.605
79326SOL     OW39816  11.621   4.791   8.899
79326SOL    HW139817  11.596   4.790   8.991
79326SOL    HW239818  11.613   4.700   8.870
79327SOL     OW39819   4.624   2.985  12.621
79327SOL    HW139820   4.648   3.065  12.669
79327SOL    HW239821   4.551   3.011  12.565
79328SOL     OW39822   9.734   9.895   0.471
79328SOL    HW139823   9.662   9.844   0.508
79328SOL    HW239824   9.803   9.890   0.537
79329SOL     OW39825  11.015  11.755   9.718
79329SOL    HW139826  11.004  11.826   9.781
79329SOL    HW239827  11.062  11.794   9.645
79330SOL     OW39828  10.591  14.276   6.933
79330SOL    HW139829  10.554  14.250   7.018
79330SOL    HW239830  10.537  14.348   6.904
79331SOL     OW39831  13.208   2.433   1.150
79331SOL    HW139832  13.120   2.470   1.150
79331SOL    HW239833  13.207   2.370   1.077
79332SOL     OW39834   5.319   5.397  11.425
79332SOL    HW139835   5.404   5.427  11.458
79332SOL    HW239836   5.290   5.468  11.367
79333SOL     OW39837  13.313   0.064   0.089
79333SOL    HW139838  13.388   0.091   0.141
79333SOL    HW239839  13.236   0.092   0.139
79334SOL     OW39840   2.126   6.191   1.391
79334SOL    HW139841   2.136   6.279   1.357
79334SOL    HW239842   2.037   6.165   1.366
79335SOL     OW39843  10.407   7.637   2.269
79335SOL    HW139844  10.330   7.583   2.248
79335SOL    HW239845  10.430   7.679   2.187
79336SOL     OW39846  12.521   2.156   9.042
79336SOL    HW139847  12.443   2.101   9.037
79336SOL    HW239848  12.493   2.242   9.011
79337SOL     OW39849   5.583   5.484  11.845
79337SOL    HW139850   5.643   5.554  11.872
79337SOL    HW239851   5.631   5.403  11.862
79338SOL     OW39852  11.851  11.986   9.655
79338SOL    HW139853  11.769  11.951   9.621
79338SOL    HW239854  11.917  11.922   9.631
79339SOL     OW39855  12.979   7.816   1.586
79339SOL    HW139856  12.950   7.732   1.551
79339SOL    HW239857  13.072   7.803   1.607
79340SOL     OW39858   5.707   9.909   9.580
79340SOL    HW139859   5.706   9.969   9.506
79340SOL    HW239860   5.800   9.894   9.598
79341SOL     OW39861  12.215   4.638   1.416
79341SOL    HW139862  12.176   4.615   1.332
79341SOL    HW239863  12.140   4.661   1.471
79342SOL     OW39864   8.400  11.661   7.903
79342SOL    HW139865   8.399  11.687   7.811
79342SOL    HW239866   8.408  11.744   7.951
79343SOL     OW39867   1.231   9.613   3.504
79343SOL    HW139868   1.268   9.696   3.534
79343SOL    HW239869   1.306   9.562   3.475
79344SOL     OW39870   4.590   9.151  12.591
79344SOL    HW139871   4.552   9.103  12.517
79344SOL    HW239872   4.554   9.107  12.668
79345SOL     OW39873   5.053   8.401  12.219
79345SOL    HW139874   5.057   8.466  12.148
79345SOL    HW239875   4.961   8.373  12.220
79346SOL     OW39876   1.696   5.614   1.803
79346SOL    HW139877   1.713   5.601   1.710
79346SOL    HW239878   1.761   5.679   1.830
79347SOL     OW39879  10.667  14.122  11.021
79347SOL    HW139880  10.750  14.111  10.976
79347SOL    HW239881  10.690  14.135  11.113
79348SOL     OW39882  14.414   8.665  13.736
79348SOL    HW139883  14.402   8.758  13.754
79348SOL    HW239884  14.386   8.654  13.645
79349SOL     OW39885  13.451   0.954   2.867
79349SOL    HW139886  13.359   0.942   2.888
79349SOL    HW239887  13.454   0.953   2.771
79350SOL     OW39888   8.469   2.010   1.750
79350SOL    HW139889   8.401   2.077   1.739
79350SOL    HW239890   8.509   2.002   1.664
79351SOL     OW39891   1.471   0.103   3.175
79351SOL    HW139892   1.529   0.165   3.220
79351SOL    HW239893   1.490   0.115   3.082
79352SOL     OW39894   9.802  10.037   0.256
79352SOL    HW139895   9.753   9.982   0.318
79352SOL    HW239896   9.877  10.068   0.306
79353SOL     OW39897  14.520   1.114  12.174
79353SOL    HW139898  14.536   1.020  12.172
79353SOL    HW239899  14.547   1.141  12.262
79354SOL     OW39900  13.438   6.061   0.708
79354SOL    HW139901  13.469   6.136   0.658
79354SOL    HW239902  13.516   6.028   0.753
79355SOL     OW39903  14.292   8.444   3.861
79355SOL    HW139904  14.349   8.513   3.897
79355SOL    HW239905  14.222   8.492   3.817
79356SOL     OW39906   6.528   8.175   7.915
79356SOL    HW139907   6.481   8.160   7.833
79356SOL    HW239908   6.507   8.265   7.939
79357SOL     OW39909  14.584   2.217   0.396
79357SOL    HW139910  14.659   2.161   0.416
79357SOL    HW239911  14.581   2.279   0.469
79358SOL     OW39912  11.608  12.195   9.410
79358SOL    HW139913  11.671  12.260   9.440
79358SOL    HW239914  11.532  12.245   9.383
79359SOL     OW39915  12.473   8.999   1.085
79359SOL    HW139916  12.492   9.030   0.996
79359SOL    HW239917  12.552   8.952   1.111
79360SOL     OW39918   6.049  12.562   1.426
79360SOL    HW139919   5.997  12.575   1.506
79360SOL    HW239920   6.123  12.510   1.455
79361SOL     OW39921   7.356  11.198   6.667
79361SOL    HW139922   7.369  11.139   6.593
79361SOL    HW239923   7.444  11.217   6.699
79362SOL     OW39924   8.128   2.626   7.336
79362SOL    HW139925   8.054   2.681   7.312
79362SOL    HW239926   8.116   2.609   7.430
79363SOL     OW39927   4.261  14.824  10.624
79363SOL    HW139928   4.294   0.030  10.583
79363SOL    HW239929   4.306  14.819  10.708
79364SOL     OW39930   0.988   3.850  13.374
79364SOL    HW139931   0.997   3.936  13.333
79364SOL    HW239932   1.063   3.800  13.341
79365SOL     OW39933   1.043   1.712   6.662
79365SOL    HW139934   1.104   1.785   6.671
79365SOL    HW239935   1.045   1.690   6.569
79366SOL     OW39936   8.697   5.020   4.849
79366SOL    HW139937   8.768   5.029   4.786
79366SOL    HW239938   8.725   5.072   4.924
79367SOL     OW39939   6.580  14.767   4.868
79367SOL    HW139940   6.549  14.804   4.786
79367SOL    HW239941   6.549  14.828   4.935
79368SOL     OW39942  10.752  11.028  11.268
79368SOL    HW139943  10.714  10.940  11.275
79368SOL    HW239944  10.794  11.043  11.353
79369SOL     OW39945   4.990   1.042   5.997
79369SOL    HW139946   4.912   1.010   5.952
79369SOL    HW239947   4.961   1.058   6.087
79370SOL     OW39948   0.756   7.937   3.831
79370SOL    HW139949   0.761   8.005   3.899
79370SOL    HW239950   0.737   7.985   3.750
79371SOL     OW39951   3.304  12.333  10.153
79371SOL    HW139952   3.296  12.408  10.212
79371SOL    HW239953   3.233  12.274  10.179
79372SOL     OW39954  13.862   4.680   2.760
79372SOL    HW139955  13.786   4.628   2.733
79372SOL    HW239956  13.875   4.657   2.852
79373SOL     OW39957   4.496   3.637   0.907
79373SOL    HW139958   4.455   3.723   0.918
79373SOL    HW239959   4.548   3.646   0.827
79374SOL     OW39960  12.188   9.315   7.885
79374SOL    HW139961  12.140   9.239   7.918
79374SOL    HW239962  12.263   9.278   7.839
79375SOL     OW39963   0.925  10.867   6.200
79375SOL    HW139964   0.958  10.944   6.153
79375SOL    HW239965   0.995  10.802   6.191
79376SOL     OW39966  13.199   4.887   1.207
79376SOL    HW139967  13.213   4.795   1.229
79376SOL    HW239968  13.114   4.908   1.245
79377SOL     OW39969   9.186   8.681   5.479
79377SOL    HW139970   9.278   8.654   5.483
79377SOL    HW239971   9.187   8.774   5.502
79378SOL     OW39972   0.304  11.134   1.566
79378SOL    HW139973   0.255  11.214   1.550
79378SOL    HW239974   0.236  11.066   1.576
79379SOL     OW39975   1.968   1.268   7.537
79379SOL    HW139976   2.043   1.326   7.524
79379SOL    HW239977   1.920   1.271   7.454
79380SOL     OW39978   9.252  13.552   3.242
79380SOL    HW139979   9.262  13.587   3.154
79380SOL    HW239980   9.245  13.630   3.298
79381SOL     OW39981   9.557   0.828   5.790
79381SOL    HW139982   9.539   0.910   5.743
79381SOL    HW239983   9.479   0.775   5.776
79382SOL     OW39984   0.747   8.555  11.560
79382SOL    HW139985   0.753   8.572  11.654
79382SOL    HW239986   0.826   8.595  11.524
79383SOL     OW39987   3.799   6.527   5.025
79383SOL    HW139988   3.797   6.455   5.088
79383SOL    HW239989   3.729   6.586   5.054
79384SOL     OW39990  10.460   6.915   0.741
79384SOL    HW139991  10.458   6.943   0.650
79384SOL    HW239992  10.369   6.900   0.764
79385SOL     OW39993   5.185   8.412   6.570
79385SOL    HW139994   5.246   8.356   6.617
79385SOL    HW239995   5.232   8.495   6.558
79386SOL     OW39996   0.503  10.633  13.326
79386SOL    HW139997   0.591  10.671  13.317
79386SOL    HW239998   0.457  10.694  13.383
79387SOL     OW39999  13.182  11.362   0.534
79387SOL    HW140000  13.108  11.303   0.544
79387SOL    HW240001  13.164  11.435   0.593
79388SOL     OW40002  12.505   0.723   5.407
79388SOL    HW140003  12.545   0.733   5.493
79388SOL    HW240004  12.561   0.773   5.348
79389SOL     OW40005   7.340   6.540  11.428
79389SOL    HW140006   7.325   6.453  11.391
79389SOL    HW240007   7.259   6.561  11.474
79390SOL     OW40008   1.315   7.896  13.481
79390SOL    HW140009   1.285   7.846  13.556
79390SOL    HW240010   1.296   7.840  13.405
79391SOL     OW40011   5.171   8.459   5.035
79391SOL    HW140012   5.164   8.374   4.992
79391SOL    HW240013   5.213   8.440   5.120
79392SOL     OW40014   1.385   1.347  10.339
79392SOL    HW140015   1.459   1.358  10.279
79392SOL    HW240016   1.424   1.318  10.421
79393SOL     OW40017  12.052  10.891   0.045
79393SOL    HW140018  12.033  10.809   0.091
79393SOL    HW240019  12.084  10.864  14.833
79394SOL     OW40020   1.273  12.042  12.464
79394SOL    HW140021   1.209  12.034  12.534
79394SOL    HW240022   1.327  11.964  12.472
79395SOL     OW40023  12.113   5.432   6.044
79395SOL    HW140024  12.018   5.428   6.027
79395SOL    HW240025  12.136   5.343   6.071
79396SOL     OW40026   4.586   5.892   1.184
79396SOL    HW140027   4.522   5.847   1.129
79396SOL    HW240028   4.575   5.853   1.270
79397SOL     OW40029  12.662   3.697   9.877
79397SOL    HW140030  12.756   3.710   9.866
79397SOL    HW240031  12.655   3.615   9.927
79398SOL     OW40032   0.417   1.278  13.226
79398SOL    HW140033   0.448   1.224  13.153
79398SOL    HW240034   0.414   1.219  13.301
79399SOL     OW40035  10.025   1.141  10.870
79399SOL    HW140036   9.994   1.165  10.783
79399SOL    HW240037   9.984   1.057  10.889
79400SOL     OW40038   5.779   9.233   6.251
79400SOL    HW140039   5.772   9.318   6.207
79400SOL    HW240040   5.745   9.170   6.188
79401SOL     OW40041  10.967  12.310   7.738
79401SOL    HW140042  10.995  12.389   7.691
79401SOL    HW240043  10.875  12.299   7.714
79402SOL     OW40044  12.764   2.285  14.553
79402SOL    HW140045  12.803   2.207  14.592
79402SOL    HW240046  12.670   2.272  14.561
79403SOL     OW40047   0.410  11.400  13.289
79403SOL    HW140048   0.407  11.461  13.362
79403SOL    HW240049   0.327  11.353  13.294
79404SOL     OW40050   2.606   6.212   7.057
79404SOL    HW140051   2.685   6.247   7.016
79404SOL    HW240052   2.637   6.136   7.107
79405SOL     OW40053   1.740   4.314   6.854
79405SOL    HW140054   1.647   4.302   6.871
79405SOL    HW240055   1.770   4.228   6.823
79406SOL     OW40056  10.162   5.955  11.081
79406SOL    HW140057  10.071   5.929  11.096
79406SOL    HW240058  10.197   5.970  11.168
79407SOL     OW40059  13.303   1.778   1.056
79407SOL    HW140060  13.368   1.761   0.988
79407SOL    HW240061  13.241   1.705   1.049
79408SOL     OW40062   7.188   4.299   9.706
79408SOL    HW140063   7.279   4.270   9.700
79408SOL    HW240064   7.172   4.311   9.800
79409SOL     OW40065   0.503   4.644   8.893
79409SOL    HW140066   0.552   4.623   8.813
79409SOL    HW240067   0.546   4.592   8.961
79410SOL     OW40068   8.664   6.256   0.275
79410SOL    HW140069   8.679   6.270   0.369
79410SOL    HW240070   8.731   6.192   0.250
79411SOL     OW40071  10.500   3.302   2.706
79411SOL    HW140072  10.458   3.220   2.679
79411SOL    HW240073  10.530   3.342   2.625
79412SOL     OW40074   6.527   7.968  13.559
79412SOL    HW140075   6.470   7.892  13.571
79412SOL    HW240076   6.492   8.013  13.482
79413SOL     OW40077  10.084   4.964   9.863
79413SOL    HW140078  10.036   4.882   9.871
79413SOL    HW240079  10.128   4.975   9.948
79414SOL     OW40080   3.178   5.734  11.831
79414SOL    HW140081   3.254   5.675  11.841
79414SOL    HW240082   3.113   5.681  11.786
79415SOL     OW40083  13.681  10.908  13.643
79415SOL    HW140084  13.717  10.840  13.586
79415SOL    HW240085  13.586  10.901  13.631
79416SOL     OW40086   4.630   7.066   1.342
79416SOL    HW140087   4.682   7.034   1.416
79416SOL    HW240088   4.617   7.159   1.360
79417SOL     OW40089   9.050   7.920   1.668
79417SOL    HW140090   8.993   7.941   1.742
79417SOL    HW240091   9.125   7.876   1.708
79418SOL     OW40092  14.420   9.169   6.444
79418SOL    HW140093  14.337   9.200   6.480
79418SOL    HW240094  14.395   9.116   6.368
79419SOL     OW40095  12.183   5.297   3.326
79419SOL    HW140096  12.262   5.312   3.273
79419SOL    HW240097  12.112   5.297   3.262
79420SOL     OW40098  13.719  14.650  10.612
79420SOL    HW140099  13.741  14.723  10.554
79420SOL    HW240100  13.760  14.673  10.695
79421SOL     OW40101  12.535  10.208   1.355
79421SOL    HW140102  12.630  10.211   1.371
79421SOL    HW240103  12.508  10.123   1.390
79422SOL     OW40104  12.278   4.770  14.579
79422SOL    HW140105  12.274   4.748  14.672
79422SOL    HW240106  12.346   4.838  14.573
79423SOL     OW40107  10.116   1.332   0.120
79423SOL    HW140108  10.111   1.252   0.068
79423SOL    HW240109  10.024   1.354   0.140
79424SOL     OW40110   7.578  11.880   8.083
79424SOL    HW140111   7.609  11.934   8.156
79424SOL    HW240112   7.486  11.905   8.071
79425SOL     OW40113  13.838   3.712   7.783
79425SOL    HW140114  13.878   3.657   7.716
79425SOL    HW240115  13.781   3.771   7.734
79426SOL     OW40116   1.941   7.026   6.850
79426SOL    HW140117   2.016   7.050   6.796
79426SOL    HW240118   1.899   7.109   6.870
79427SOL     OW40119   3.570   5.667   9.218
79427SOL    HW140120   3.622   5.637   9.144
79427SOL    HW240121   3.505   5.725   9.179
79428SOL     OW40122  12.476   1.287  12.807
79428SOL    HW140123  12.382   1.296  12.821
79428SOL    HW240124  12.483   1.236  12.726
79429SOL     OW40125  10.542  11.926   0.947
79429SOL    HW140126  10.458  11.887   0.923
79429SOL    HW240127  10.607  11.876   0.897
79430SOL     OW40128   6.473   5.463  11.683
79430SOL    HW140129   6.469   5.508  11.767
79430SOL    HW240130   6.498   5.374  11.704
79431SOL     OW40131   5.600   4.271   7.479
79431SOL    HW140132   5.625   4.184   7.508
79431SOL    HW240133   5.638   4.330   7.544
79432SOL     OW40134  10.350  12.333   7.906
79432SOL    HW140135  10.393  12.247   7.901
79432SOL    HW240136  10.358  12.369   7.818
79433SOL     OW40137  10.559   8.754   1.654
79433SOL    HW140138  10.629   8.797   1.606
79433SOL    HW240139  10.486   8.751   1.593
79434SOL     OW40140  11.370  13.900   2.924
79434SOL    HW140141  11.301  13.913   2.859
79434SOL    HW240142  11.439  13.961   2.899
79435SOL     OW40143  13.251   3.945   6.927
79435SOL    HW140144  13.205   4.021   6.892
79435SOL    HW240145  13.235   3.948   7.022
79436SOL     OW40146   7.615  10.561  13.947
79436SOL    HW140147   7.594  10.469  13.930
79436SOL    HW240148   7.632  10.598  13.861
79437SOL     OW40149   5.865   5.896   0.662
79437SOL    HW140150   5.913   5.900   0.580
79437SOL    HW240151   5.796   5.962   0.653
79438SOL     OW40152   0.458   0.980  10.934
79438SOL    HW140153   0.388   0.920  10.959
79438SOL    HW240154   0.520   0.977  11.007
79439SOL     OW40155   4.099   2.767   0.292
79439SOL    HW140156   4.191   2.788   0.278
79439SOL    HW240157   4.097   2.672   0.301
79440SOL     OW40158  11.295   1.834   4.353
79440SOL    HW140159  11.234   1.761   4.360
79440SOL    HW240160  11.317   1.839   4.260
79441SOL     OW40161   8.465  11.003   2.082
79441SOL    HW140162   8.442  11.092   2.055
79441SOL    HW240163   8.406  10.983   2.155
79442SOL     OW40164  11.867   3.110   1.942
79442SOL    HW140165  11.836   3.021   1.959
79442SOL    HW240166  11.911   3.136   2.022
79443SOL     OW40167  13.744   4.735   5.516
79443SOL    HW140168  13.671   4.788   5.549
79443SOL    HW240169  13.710   4.693   5.437
79444SOL     OW40170   5.779   6.611   9.799
79444SOL    HW140171   5.771   6.582   9.708
79444SOL    HW240172   5.850   6.675   9.798
79445SOL     OW40173  11.229  12.011   4.700
79445SOL    HW140174  11.150  12.035   4.651
79445SOL    HW240175  11.196  11.977   4.783
79446SOL     OW40176   0.845  11.030   7.054
79446SOL    HW140177   0.841  10.935   7.069
79446SOL    HW240178   0.774  11.065   7.107
79447SOL     OW40179   3.603   2.239  11.655
79447SOL    HW140180   3.638   2.224  11.567
79447SOL    HW240181   3.539   2.309  11.643
79448SOL     OW40182  10.040   3.174   3.928
79448SOL    HW140183  10.074   3.086   3.910
79448SOL    HW240184  10.117   3.226   3.951
79449SOL     OW40185   5.324   0.258  14.692
79449SOL    HW140186   5.322   0.275  14.598
79449SOL    HW240187   5.240   0.219  14.712
79450SOL     OW40188   9.483   7.600   0.172
79450SOL    HW140189   9.532   7.664   0.120
79450SOL    HW240190   9.391   7.623   0.157
79451SOL     OW40191  13.847   2.084   8.838
79451SOL    HW140192  13.764   2.117   8.873
79451SOL    HW240193  13.879   2.155   8.782
79452SOL     OW40194   2.909  10.652   5.742
79452SOL    HW140195   2.976  10.622   5.804
79452SOL    HW240196   2.899  10.745   5.760
79453SOL     OW40197   4.262   7.597  14.773
79453SOL    HW140198   4.335   7.537  14.757
79453SOL    HW240199   4.237   7.628  14.686
79454SOL     OW40200   2.617   0.415  12.988
79454SOL    HW140201   2.635   0.383  13.077
79454SOL    HW240202   2.582   0.339  12.942
79455SOL     OW40203  11.904  10.917   0.389
79455SOL    HW140204  11.820  10.961   0.373
79455SOL    HW240205  11.908  10.850   0.320
79456SOL     OW40206  14.352   3.891   7.398
79456SOL    HW140207  14.394   3.956   7.342
79456SOL    HW240208  14.308   3.831   7.338
79457SOL     OW40209  10.234   1.158   6.528
79457SOL    HW140210  10.268   1.079   6.487
79457SOL    HW240211  10.306   1.220   6.525
79458SOL     OW40212   5.142   7.780   1.432
79458SOL    HW140213   5.190   7.824   1.502
79458SOL    HW240214   5.126   7.692   1.466
79459SOL     OW40215   7.471   6.318   2.896
79459SOL    HW140216   7.406   6.263   2.941
79459SOL    HW240217   7.442   6.407   2.913
79460SOL     OW40218   0.286  12.812   7.232
79460SOL    HW140219   0.215  12.804   7.168
79460SOL    HW240220   0.366  12.803   7.181
79461SOL     OW40221   3.880   6.412  12.684
79461SOL    HW140222   3.836   6.373  12.608
79461SOL    HW240223   3.808   6.447  12.737
79462SOL     OW40224   2.400   7.649   5.100
79462SOL    HW140225   2.393   7.561   5.064
79462SOL    HW240226   2.309   7.673   5.121
79463SOL     OW40227  14.575  10.688   5.732
79463SOL    HW140228  14.543  10.598   5.736
79463SOL    HW240229  14.670  10.680   5.729
79464SOL     OW40230   9.854   6.674   2.533
79464SOL    HW140231   9.905   6.755   2.530
79464SOL    HW240232   9.800   6.678   2.454
79465SOL     OW40233   1.594   2.426  14.145
79465SOL    HW140234   1.580   2.353  14.205
79465SOL    HW240235   1.595   2.503  14.201
79466SOL     OW40236  10.999   9.901   4.375
79466SOL    HW140237  11.051   9.854   4.309
79466SOL    HW240238  10.909   9.892   4.345
79467SOL     OW40239   4.386   8.726   2.292
79467SOL    HW140240   4.391   8.808   2.244
79467SOL    HW240241   4.466   8.679   2.267
79468SOL     OW40242   9.737   0.722  13.297
79468SOL    HW140243   9.741   0.774  13.377
79468SOL    HW240244   9.828   0.715  13.269
79469SOL     OW40245   3.493   0.596   5.636
79469SOL    HW140246   3.479   0.590   5.541
79469SOL    HW240247   3.548   0.673   5.648
79470SOL     OW40248   6.611  14.583  13.532
79470SOL    HW140249   6.691  14.567  13.482
79470SOL    HW240250   6.547  14.524  13.493
79471SOL     OW40251  13.774   1.962  13.572
79471SOL    HW140252  13.824   1.923  13.500
79471SOL    HW240253  13.809   2.051  13.580
79472SOL     OW40254   3.781  11.211   3.163
79472SOL    HW140255   3.753  11.251   3.081
79472SOL    HW240256   3.795  11.118   3.140
79473SOL     OW40257  12.309  10.922   1.876
79473SOL    HW140258  12.358  10.960   1.803
79473SOL    HW240259  12.272  10.841   1.840
79474SOL     OW40260   5.511   1.351   9.457
79474SOL    HW140261   5.420   1.322   9.461
79474SOL    HW240262   5.518   1.414   9.529
79475SOL     OW40263   7.850  10.809   1.767
79475SOL    HW140264   7.914  10.880   1.767
79475SOL    HW240265   7.899  10.733   1.799
79476SOL     OW40266   7.155  12.625   4.731
79476SOL    HW140267   7.153  12.550   4.791
79476SOL    HW240268   7.138  12.588   4.645
79477SOL     OW40269   2.234   5.826   0.386
79477SOL    HW140270   2.154   5.873   0.363
79477SOL    HW240271   2.278   5.882   0.449
79478SOL     OW40272   0.005   5.673   3.013
79478SOL    HW140273  14.843   5.742   3.069
79478SOL    HW240274   0.027   5.601   3.073
79479SOL     OW40275   8.295  10.588  11.564
79479SOL    HW140276   8.349  10.578  11.642
79479SOL    HW240277   8.205  10.580  11.595
79480SOL     OW40278  13.272  12.482   6.875
79480SOL    HW140279  13.290  12.388   6.871
79480SOL    HW240280  13.289  12.506   6.966
79481SOL     OW40281   7.977   6.796   3.986
79481SOL    HW140282   7.938   6.829   4.067
79481SOL    HW240283   8.072   6.808   3.998
79482SOL     OW40284   7.247   3.148   9.880
79482SOL    HW140285   7.181   3.079   9.884
79482SOL    HW240286   7.254   3.180   9.970
79483SOL     OW40287  14.212   5.509   5.770
79483SOL    HW140288  14.222   5.603   5.786
79483SOL    HW240289  14.289   5.469   5.812
79484SOL     OW40290   3.238   4.230   3.830
79484SOL    HW140291   3.208   4.320   3.817
79484SOL    HW240292   3.226   4.189   3.745
79485SOL     OW40293   4.500   4.696  10.493
79485SOL    HW140294   4.559   4.731  10.559
79485SOL    HW240295   4.414   4.699  10.535
79486SOL     OW40296  10.317   9.367   4.079
79486SOL    HW140297  10.299   9.318   4.159
79486SOL    HW240298  10.252   9.335   4.016
79487SOL     OW40299   5.518   4.918   5.256
79487SOL    HW140300   5.509   4.872   5.173
79487SOL    HW240301   5.517   4.850   5.323
79488SOL     OW40302   6.797  13.298   2.579
79488SOL    HW140303   6.847  13.366   2.623
79488SOL    HW240304   6.706  13.318   2.600
79489SOL     OW40305   6.062   1.057  12.408
79489SOL    HW140306   5.971   1.028  12.412
79489SOL    HW240307   6.084   1.081  12.499
79490SOL     OW40308   0.104   5.357  11.457
79490SOL    HW140309   0.022   5.357  11.407
79490SOL    HW240310   0.166   5.405  11.402
79491SOL     OW40311   8.501  13.032   3.118
79491SOL    HW140312   8.512  12.941   3.146
79491SOL    HW240313   8.471  13.078   3.196
79492SOL     OW40314   7.928  14.648  13.682
79492SOL    HW140315   7.941  14.555  13.697
79492SOL    HW240316   7.926  14.657  13.587
79493SOL     OW40317   6.015   9.341   4.346
79493SOL    HW140318   6.015   9.299   4.260
79493SOL    HW240319   5.929   9.321   4.383
79494SOL     OW40320   8.728   5.948   3.417
79494SOL    HW140321   8.740   5.854   3.401
79494SOL    HW240322   8.681   5.952   3.500
79495SOL     OW40323  11.563  10.271   4.079
79495SOL    HW140324  11.582  10.292   3.988
79495SOL    HW240325  11.495  10.333   4.105
79496SOL     OW40326   2.746   8.809   1.174
79496SOL    HW140327   2.687   8.758   1.228
79496SOL    HW240328   2.689   8.875   1.133
79497SOL     OW40329   6.764   4.389   4.387
79497SOL    HW140330   6.788   4.439   4.309
79497SOL    HW240331   6.682   4.429   4.416
79498SOL     OW40332   0.753   6.208  12.930
79498SOL    HW140333   0.833   6.167  12.896
79498SOL    HW240334   0.781   6.259  13.005
79499SOL     OW40335   7.723   0.265  12.429
79499SOL    HW140336   7.794   0.214  12.392
79499SOL    HW240337   7.646   0.241  12.378
79500SOL     OW40338   1.280   1.874   6.965
79500SOL    HW140339   1.340   1.833   7.027
79500SOL    HW240340   1.203   1.895   7.017
79501SOL     OW40341   3.847   0.204  12.337
79501SOL    HW140342   3.828   0.283  12.387
79501SOL    HW240343   3.942   0.195  12.341
79502SOL     OW40344   8.271   4.893   8.790
79502SOL    HW140345   8.270   4.943   8.709
79502SOL    HW240346   8.179   4.889   8.817
79503SOL     OW40347   3.124  10.621   3.588
79503SOL    HW140348   3.097  10.535   3.556
79503SOL    HW240349   3.164  10.664   3.512
79504SOL     OW40350   0.017   4.308  10.772
79504SOL    HW140351   0.011   4.399  10.803
79504SOL    HW240352   0.043   4.258  10.849
79505SOL     OW40353  12.274   1.537   7.033
79505SOL    HW140354  12.369   1.531   7.034
79505SOL    HW240355  12.245   1.467   7.092
79506SOL     OW40356   5.759   6.985  14.450
79506SOL    HW140357   5.785   7.023  14.534
79506SOL    HW240358   5.728   6.897  14.472
79507SOL     OW40359   0.456   6.900   3.100
79507SOL    HW140360   0.462   6.886   3.005
79507SOL    HW240361   0.374   6.949   3.112
79508SOL     OW40362  12.674   6.628  10.195
79508SOL    HW140363  12.686   6.537  10.224
79508SOL    HW240364  12.751   6.673  10.228
79509SOL     OW40365  10.964   1.427   6.513
79509SOL    HW140366  11.014   1.482   6.453
79509SOL    HW240367  10.881   1.473   6.525
79510SOL     OW40368   6.402   8.096  10.831
79510SOL    HW140369   6.438   8.039  10.900
79510SOL    HW240370   6.349   8.160  10.879
79511SOL     OW40371   7.851   1.912   8.069
79511SOL    HW140372   7.791   1.863   8.013
79511SOL    HW240373   7.934   1.866   8.062
79512SOL     OW40374   1.062   4.699   1.455
79512SOL    HW140375   1.056   4.615   1.410
79512SOL    HW240376   1.137   4.690   1.513
79513SOL     OW40377   1.791  14.595   8.653
79513SOL    HW140378   1.816  14.519   8.600
79513SOL    HW240379   1.772  14.664   8.589
79514SOL     OW40380  10.741   0.982  13.061
79514SOL    HW140381  10.735   1.048  13.131
79514SOL    HW240382  10.687   1.017  12.991
79515SOL     OW40383   1.910   9.172   2.627
79515SOL    HW140384   1.939   9.131   2.545
79515SOL    HW240385   1.899   9.098   2.687
79516SOL     OW40386  10.119   6.631  10.182
79516SOL    HW140387  10.150   6.543  10.203
79516SOL    HW240388  10.066   6.656  10.258
79517SOL     OW40389  11.231   0.146  11.349
79517SOL    HW140390  11.231   0.064  11.299
79517SOL    HW240391  11.140   0.157  11.376
79518SOL     OW40392   0.422   6.048  14.198
79518SOL    HW140393   0.447   6.065  14.107
79518SOL    HW240394   0.370   5.967  14.194
79519SOL     OW40395   6.908  10.396   9.303
79519SOL    HW140396   6.893  10.302   9.312
79519SOL    HW240397   6.824  10.436   9.325
79520SOL     OW40398   6.507   8.690   9.503
79520SOL    HW140399   6.427   8.640   9.522
79520SOL    HW240400   6.561   8.628   9.453
79521SOL     OW40401  10.647   3.061   2.593
79521SOL    HW140402  10.699   3.132   2.556
79521SOL    HW240403  10.582   3.041   2.526
79522SOL     OW40404   3.599  12.323  14.384
79522SOL    HW140405   3.613  12.416  14.369
79522SOL    HW240406   3.658  12.301  14.456
79523SOL     OW40407   9.224  14.242  14.153
79523SOL    HW140408   9.227  14.236  14.058
79523SOL    HW240409   9.283  14.173  14.183
79524SOL     OW40410   7.141   0.767   0.200
79524SOL    HW140411   7.220   0.749   0.251
79524SOL    HW240412   7.115   0.682   0.166
79525SOL     OW40413  10.986  12.865   8.156
79525SOL    HW140414  11.078  12.841   8.163
79525SOL    HW240415  10.950  12.850   8.243
79526SOL     OW40416   1.794   0.002   6.227
79526SOL    HW140417   1.749   0.031   6.148
79526SOL    HW240418   1.831  14.790   6.203
79527SOL     OW40419   5.761  13.552   7.005
79527SOL    HW140420   5.824  13.597   7.061
79527SOL    HW240421   5.700  13.621   6.977
79528SOL     OW40422  13.846   9.071   2.362
79528SOL    HW140423  13.764   9.061   2.315
79528SOL    HW240424  13.875   9.160   2.342
79529SOL     OW40425   3.198   7.323   1.260
79529SOL    HW140426   3.279   7.367   1.233
79529SOL    HW240427   3.128   7.374   1.218
79530SOL     OW40428   5.432  13.424   1.616
79530SOL    HW140429   5.448  13.500   1.560
79530SOL    HW240430   5.507  13.422   1.676
79531SOL     OW40431   2.647   2.923   2.227
79531SOL    HW140432   2.705   2.878   2.288
79531SOL    HW240433   2.700   2.934   2.148
79532SOL     OW40434   6.975   2.190   6.024
79532SOL    HW140435   6.918   2.266   6.035
79532SOL    HW240436   7.055   2.213   6.073
79533SOL     OW40437   3.527  14.791  14.519
79533SOL    HW140438   3.506  14.835  14.436
79533SOL    HW240439   3.443  14.786  14.565
79534SOL     OW40440  10.468   3.855   7.360
79534SOL    HW140441  10.374   3.871   7.350
79534SOL    HW240442  10.510   3.925   7.310
79535SOL     OW40443   2.061  14.653  11.760
79535SOL    HW140444   1.971  14.634  11.733
79535SOL    HW240445   2.079  14.739  11.720
79536SOL     OW40446   3.559   0.551  10.739
79536SOL    HW140447   3.535   0.481  10.799
79536SOL    HW240448   3.613   0.508  10.673
79537SOL     OW40449   9.614  10.084  11.806
79537SOL    HW140450   9.605  10.015  11.871
79537SOL    HW240451   9.705  10.078  11.777
79538SOL     OW40452   4.954  14.406  12.790
79538SOL    HW140453   4.949  14.469  12.861
79538SOL    HW240454   4.934  14.457  12.711
79539SOL     OW40455   6.391   8.709  12.764
79539SOL    HW140456   6.458   8.688  12.828
79539SOL    HW240457   6.431   8.689  12.680
79540SOL     OW40458  13.219   3.743   0.447
79540SOL    HW140459  13.144   3.722   0.391
79540SOL    HW240460  13.185   3.735   0.536
79541SOL     OW40461   6.995   9.881   8.103
79541SOL    HW140462   7.018   9.863   8.012
79541SOL    HW240463   7.004   9.796   8.147
79542SOL     OW40464   3.179  13.522   1.145
79542SOL    HW140465   3.101  13.576   1.158
79542SOL    HW240466   3.245  13.562   1.201
79543SOL     OW40467   2.549   2.338  13.787
79543SOL    HW140468   2.619   2.402  13.799
79543SOL    HW240469   2.510   2.328  13.874
79544SOL     OW40470  11.867   3.940   9.667
79544SOL    HW140471  11.906   3.980   9.589
79544SOL    HW240472  11.941   3.924   9.725
79545SOL     OW40473  11.090   2.722   2.324
79545SOL    HW140474  11.082   2.708   2.418
79545SOL    HW240475  11.000   2.727   2.292
79546SOL     OW40476   0.925   9.338   0.216
79546SOL    HW140477   0.926   9.260   0.271
79546SOL    HW240478   0.900   9.409   0.275
79547SOL     OW40479   0.784   2.386   0.466
79547SOL    HW140480   0.730   2.435   0.404
79547SOL    HW240481   0.873   2.418   0.451
79548SOL     OW40482   8.373  12.939   7.137
79548SOL    HW140483   8.468  12.954   7.139
79548SOL    HW240484   8.351  12.915   7.227
79549SOL     OW40485   9.847  11.827  11.948
79549SOL    HW140486   9.788  11.764  11.989
79549SOL    HW240487   9.873  11.786  11.866
79550SOL     OW40488   6.654  10.005  14.319
79550SOL    HW140489   6.599   9.978  14.245
79550SOL    HW240490   6.734  10.038  14.278
79551SOL     OW40491   0.703  13.473   3.089
79551SOL    HW140492   0.668  13.558   3.118
79551SOL    HW240493   0.658  13.409   3.145
79552SOL     OW40494   8.363  12.224   6.189
79552SOL    HW140495   8.440  12.221   6.131
79552SOL    HW240496   8.288  12.211   6.130
79553SOL     OW40497   9.121   8.997   2.855
79553SOL    HW140498   9.143   8.973   2.766
79553SOL    HW240499   9.134   9.091   2.859
79554SOL     OW40500   0.961   3.918  11.215
79554SOL    HW140501   0.866   3.909  11.212
79554SOL    HW240502   0.976   4.009  11.243
79555SOL     OW40503   7.975   2.309   3.085
79555SOL    HW140504   8.022   2.372   3.140
79555SOL    HW240505   7.893   2.293   3.133
79556SOL     OW40506   1.767   1.540   2.185
79556SOL    HW140507   1.745   1.588   2.105
79556SOL    HW240508   1.747   1.601   2.256
79557SOL     OW40509   0.745  14.639  10.785
79557SOL    HW140510   0.677  14.612  10.723
79557SOL    HW240511   0.821  14.660  10.730
79558SOL     OW40512  10.281  11.334   0.677
79558SOL    HW140513  10.254  11.283   0.753
79558SOL    HW240514  10.260  11.424   0.699
79559SOL     OW40515   0.651   3.905  14.293
79559SOL    HW140516   0.731   3.895  14.345
79559SOL    HW240517   0.660   3.841  14.223
79560SOL     OW40518   0.389   2.768  10.529
79560SOL    HW140519   0.303   2.767  10.570
79560SOL    HW240520   0.437   2.836  10.577
79561SOL     OW40521   8.716   2.468   2.298
79561SOL    HW140522   8.795   2.498   2.253
79561SOL    HW240523   8.733   2.484   2.391
79562SOL     OW40524   6.053   2.124  13.109
79562SOL    HW140525   6.134   2.164  13.077
79562SOL    HW240526   6.005   2.196  13.151
79563SOL     OW40527   8.858   5.940  13.265
79563SOL    HW140528   8.765   5.922  13.265
79563SOL    HW240529   8.899   5.862  13.303
79564SOL     OW40530   7.352  11.293  11.766
79564SOL    HW140531   7.441  11.311  11.797
79564SOL    HW240532   7.320  11.222  11.822
79565SOL     OW40533   6.632   4.196   2.830
79565SOL    HW140534   6.540   4.179   2.810
79565SOL    HW240535   6.677   4.114   2.807
79566SOL     OW40536   0.421  13.060  11.179
79566SOL    HW140537   0.447  13.007  11.254
79566SOL    HW240538   0.454  13.148  11.199
79567SOL     OW40539   9.793  12.559   9.244
79567SOL    HW140540   9.879  12.527   9.269
79567SOL    HW240541   9.732  12.503   9.292
79568SOL     OW40542   8.408   6.415   1.499
79568SOL    HW140543   8.479   6.424   1.563
79568SOL    HW240544   8.396   6.321   1.490
79569SOL     OW40545   2.268   3.711  12.982
79569SOL    HW140546   2.347   3.677  12.940
79569SOL    HW240547   2.232   3.773  12.919
79570SOL     OW40548  10.359  11.736  14.424
79570SOL    HW140549  10.308  11.742  14.505
79570SOL    HW240550  10.300  11.698  14.360
79571SOL     OW40551   5.913   5.617   3.790
79571SOL    HW140552   5.983   5.588   3.732
79571SOL    HW240553   5.856   5.670   3.735
79572SOL     OW40554   0.494   2.541   7.773
79572SOL    HW140555   0.512   2.632   7.798
79572SOL    HW240556   0.446   2.549   7.690
79573SOL     OW40557   2.073   4.655  12.452
79573SOL    HW140558   1.999   4.602  12.481
79573SOL    HW240559   2.148   4.620  12.500
79574SOL     OW40560   0.537  12.828   6.781
79574SOL    HW140561   0.462  12.770   6.763
79574SOL    HW240562   0.561  12.862   6.695
79575SOL     OW40563   6.344   6.996  13.336
79575SOL    HW140564   6.408   7.057  13.375
79575SOL    HW240565   6.288   7.052  13.282
79576SOL     OW40566   9.730   7.093   4.976
79576SOL    HW140567   9.817   7.130   4.960
79576SOL    HW240568   9.670   7.158   4.941
79577SOL     OW40569   2.191  11.769  11.588
79577SOL    HW140570   2.132  11.706  11.544
79577SOL    HW240571   2.279  11.736  11.570
79578SOL     OW40572   8.597   7.922   4.002
79578SOL    HW140573   8.575   7.947   4.091
79578SOL    HW240574   8.593   8.004   3.952
79579SOL     OW40575   2.684  14.087   5.516
79579SOL    HW140576   2.735  14.043   5.449
79579SOL    HW240577   2.700  14.180   5.502
79580SOL     OW40578   2.981  12.694   6.437
79580SOL    HW140579   2.886  12.708   6.444
79580SOL    HW240580   2.992  12.638   6.361
79581SOL     OW40581   3.978   0.161   3.755
79581SOL    HW140582   4.018   0.221   3.692
79581SOL    HW240583   3.885   0.162   3.733
79582SOL     OW40584   3.807   6.928  12.832
79582SOL    HW140585   3.774   6.971  12.911
79582SOL    HW240586   3.732   6.929  12.772
79583SOL     OW40587   3.494   9.322  10.298
79583SOL    HW140588   3.550   9.327  10.376
79583SOL    HW240589   3.488   9.413  10.267
79584SOL     OW40590   7.302  10.107   9.684
79584SOL    HW140591   7.223  10.160   9.689
79584SOL    HW240592   7.294  10.043   9.755
79585SOL     OW40593   5.510   6.488   4.316
79585SOL    HW140594   5.518   6.458   4.407
79585SOL    HW240595   5.425   6.455   4.287
79586SOL     OW40596  11.255   1.596   9.372
79586SOL    HW140597  11.298   1.604   9.457
79586SOL    HW240598  11.214   1.510   9.375
79587SOL     OW40599   1.992  10.183  10.822
79587SOL    HW140600   2.079  10.217  10.799
79587SOL    HW240601   1.989  10.096  10.781
79588SOL     OW40602   2.655   3.276   7.641
79588SOL    HW140603   2.674   3.359   7.685
79588SOL    HW240604   2.741   3.238   7.623
79589SOL     OW40605   6.527   7.191  12.921
79589SOL    HW140606   6.587   7.185  12.847
79589SOL    HW240607   6.496   7.101  12.933
79590SOL     OW40608  10.444   5.051   7.254
79590SOL    HW140609  10.534   5.067   7.282
79590SOL    HW240610  10.443   5.077   7.162
79591SOL     OW40611   6.139   4.588   0.444
79591SOL    HW140612   6.131   4.683   0.437
79591SOL    HW240613   6.049   4.557   0.452
79592SOL     OW40614  11.727   1.192  14.182
79592SOL    HW140615  11.785   1.188  14.106
79592SOL    HW240616  11.642   1.219  14.146
79593SOL     OW40617   0.543  10.081   5.870
79593SOL    HW140618   0.628  10.095   5.828
79593SOL    HW240619   0.544  10.139   5.946
79594SOL     OW40620   9.909   8.257  12.029
79594SOL    HW140621   9.881   8.347  12.042
79594SOL    HW240622   9.831   8.213  11.994
79595SOL     OW40623   2.317   2.532   6.623
79595SOL    HW140624   2.291   2.612   6.668
79595SOL    HW240625   2.292   2.546   6.531
79596SOL     OW40626  10.196  10.809   8.723
79596SOL    HW140627  10.113  10.777   8.687
79596SOL    HW240628  10.250  10.827   8.646
79597SOL     OW40629   8.092   6.867   6.606
79597SOL    HW140630   8.126   6.949   6.571
79597SOL    HW240631   8.072   6.887   6.698
79598SOL     OW40632   8.042   3.419   2.874
79598SOL    HW140633   7.960   3.459   2.903
79598SOL    HW240634   8.104   3.491   2.869
79599SOL     OW40635   6.268   5.009   5.596
79599SOL    HW140636   6.212   5.049   5.529
79599SOL    HW240637   6.333   4.959   5.547
79600SOL     OW40638   8.985   2.428   4.866
79600SOL    HW140639   8.991   2.472   4.951
79600SOL    HW240640   8.900   2.384   4.868
79601SOL     OW40641   7.660   5.743   3.396
79601SOL    HW140642   7.570   5.721   3.371
79601SOL    HW240643   7.658   5.837   3.413
79602SOL     OW40644   2.952   6.712   4.961
79602SOL    HW140645   3.018   6.705   5.030
79602SOL    HW240646   2.899   6.633   4.971
79603SOL     OW40647  12.450   6.347   9.579
79603SOL    HW140648  12.401   6.418   9.539
79603SOL    HW240649  12.535   6.385   9.601
79604SOL     OW40650  12.177   0.339   6.433
79604SOL    HW140651  12.119   0.412   6.455
79604SOL    HW240652  12.147   0.309   6.348
79605SOL     OW40653   6.448  10.208   4.536
79605SOL    HW140654   6.505  10.131   4.532
79605SOL    HW240655   6.507  10.283   4.536
79606SOL     OW40656   1.898   2.595  14.178
79606SOL    HW140657   1.895   2.513  14.227
79606SOL    HW240658   1.969   2.583  14.115
79607SOL     OW40659  10.988   0.135   7.150
79607SOL    HW140660  10.916   0.115   7.090
79607SOL    HW240661  11.012   0.050   7.188
79608SOL     OW40662   6.773  13.906   1.782
79608SOL    HW140663   6.783  13.861   1.699
79608SOL    HW240664   6.856  13.894   1.827
79609SOL     OW40665   6.646   0.961   3.331
79609SOL    HW140666   6.592   0.906   3.388
79609SOL    HW240667   6.651   0.912   3.249
79610SOL     OW40668   6.167  12.283   2.886
79610SOL    HW140669   6.246  12.335   2.873
79610SOL    HW240670   6.109  12.340   2.936
79611SOL     OW40671  14.717   8.461   3.841
79611SOL    HW140672  14.642   8.499   3.796
79611SOL    HW240673  14.687   8.375   3.871
79612SOL     OW40674   8.301   2.588   3.160
79612SOL    HW140675   8.276   2.595   3.068
79612SOL    HW240676   8.310   2.679   3.189
79613SOL     OW40677   6.230   1.606   0.932
79613SOL    HW140678   6.286   1.659   0.877
79613SOL    HW240679   6.143   1.644   0.923
79614SOL     OW40680   7.338  14.109   2.345
79614SOL    HW140681   7.349  14.102   2.440
79614SOL    HW240682   7.412  14.164   2.317
79615SOL     OW40683   7.919  11.733   9.008
79615SOL    HW140684   7.937  11.643   8.980
79615SOL    HW240685   7.963  11.741   9.093
79616SOL     OW40686   2.490  12.277  10.310
79616SOL    HW140687   2.427  12.213  10.343
79616SOL    HW240688   2.575  12.243  10.337
79617SOL     OW40689   0.493  11.352   2.143
79617SOL    HW140690   0.429  11.305   2.091
79617SOL    HW240691   0.460  11.347   2.233
79618SOL     OW40692   0.772   9.507   0.423
79618SOL    HW140693   0.733   9.420   0.416
79618SOL    HW240694   0.757   9.533   0.514
79619SOL     OW40695   8.218   2.317   9.004
79619SOL    HW140696   8.219   2.361   9.089
79619SOL    HW240697   8.183   2.382   8.943
79620SOL     OW40698   6.021   9.091   1.034
79620SOL    HW140699   5.960   9.145   1.084
79620SOL    HW240700   6.106   9.107   1.076
79621SOL     OW40701   4.331   5.368  11.932
79621SOL    HW140702   4.380   5.367  11.850
79621SOL    HW240703   4.306   5.277  11.946
79622SOL     OW40704   5.990   4.616   4.796
79622SOL    HW140705   5.908   4.634   4.750
79622SOL    HW240706   5.967   4.618   4.888
79623SOL     OW40707   4.513   3.611   4.285
79623SOL    HW140708   4.435   3.631   4.233
79623SOL    HW240709   4.578   3.674   4.255
79624SOL     OW40710   9.501   4.168   5.589
79624SOL    HW140711   9.526   4.260   5.595
79624SOL    HW240712   9.537   4.139   5.505
79625SOL     OW40713   2.833  13.721   1.529
79625SOL    HW140714   2.806  13.790   1.469
79625SOL    HW240715   2.917  13.690   1.495
79626SOL     OW40716  12.873   8.645  12.747
79626SOL    HW140717  12.824   8.633  12.665
79626SOL    HW240718  12.818   8.604  12.814
79627SOL     OW40719   3.149   4.730   4.926
79627SOL    HW140720   3.193   4.778   4.855
79627SOL    HW240721   3.116   4.798   4.984
79628SOL     OW40722   7.518   3.062   9.467
79628SOL    HW140723   7.550   3.076   9.556
79628SOL    HW240724   7.499   2.968   9.463
79629SOL     OW40725  11.783  14.153   6.777
79629SOL    HW140726  11.863  14.144   6.828
79629SOL    HW240727  11.803  14.115   6.692
79630SOL     OW40728  10.188   0.656   6.022
79630SOL    HW140729  10.168   0.617   5.937
79630SOL    HW240730  10.213   0.746   6.002
79631SOL     OW40731   0.841   7.552  12.310
79631SOL    HW140732   0.792   7.539  12.391
79631SOL    HW240733   0.908   7.616  12.333
79632SOL     OW40734   1.520  11.921  11.184
79632SOL    HW140735   1.455  11.912  11.115
79632SOL    HW240736   1.601  11.947  11.139
79633SOL     OW40737   8.560  13.306   8.301
79633SOL    HW140738   8.615  13.384   8.297
79633SOL    HW240739   8.540  13.286   8.209
79634SOL     OW40740   8.145   6.226   0.855
79634SOL    HW140741   8.239   6.227   0.836
79634SOL    HW240742   8.115   6.143   0.818
79635SOL     OW40743  11.888  12.284   2.418
79635SOL    HW140744  11.953  12.259   2.483
79635SOL    HW240745  11.808  12.238   2.445
79636SOL     OW40746  11.450   5.195   9.734
79636SOL    HW140747  11.394   5.216   9.809
79636SOL    HW240748  11.397   5.219   9.658
79637SOL     OW40749   3.354   6.920   8.806
79637SOL    HW140750   3.325   6.884   8.889
79637SOL    HW240751   3.409   6.995   8.830
79638SOL     OW40752   3.635   3.775   7.082
79638SOL    HW140753   3.659   3.739   6.997
79638SOL    HW240754   3.618   3.868   7.064
79639SOL     OW40755   4.387   3.058  12.936
79639SOL    HW140756   4.318   2.993  12.952
79639SOL    HW240757   4.341   3.142  12.933
79640SOL     OW40758  10.547   4.854   1.431
79640SOL    HW140759  10.605   4.913   1.479
79640SOL    HW240760  10.606   4.791   1.390
79641SOL     OW40761  11.330   6.355   8.607
79641SOL    HW140762  11.411   6.397   8.580
79641SOL    HW240763  11.357   6.294   8.676
79642SOL     OW40764   4.117   2.836   6.849
79642SOL    HW140765   4.040   2.820   6.902
79642SOL    HW240766   4.107   2.779   6.772
79643SOL     OW40767  13.675   1.840   0.608
79643SOL    HW140768  13.710   1.766   0.558
79643SOL    HW240769  13.632   1.801   0.684
79644SOL     OW40770  14.079   2.177   5.360
79644SOL    HW140771  14.123   2.198   5.277
79644SOL    HW240772  14.145   2.129   5.410
79645SOL     OW40773   1.713   7.816  12.237
79645SOL    HW140774   1.771   7.743  12.215
79645SOL    HW240775   1.757   7.861  12.309
79646SOL     OW40776   2.098  12.555   1.093
79646SOL    HW140777   2.032  12.487   1.085
79646SOL    HW240778   2.177  12.507   1.119
79647SOL     OW40779   1.153   4.813   4.631
79647SOL    HW140780   1.199   4.815   4.715
79647SOL    HW240781   1.137   4.720   4.615
79648SOL     OW40782  13.469   5.988  10.059
79648SOL    HW140783  13.525   6.062  10.083
79648SOL    HW240784  13.529   5.912  10.058
79649SOL     OW40785   0.552   4.011   6.054
79649SOL    HW140786   0.457   4.020   6.042
79649SOL    HW240787   0.589   4.045   5.973
79650SOL     OW40788   5.376   7.795   6.584
79650SOL    HW140789   5.325   7.737   6.527
79650SOL    HW240790   5.376   7.879   6.538
79651SOL     OW40791   5.578   5.738   6.289
79651SOL    HW140792   5.621   5.728   6.204
79651SOL    HW240793   5.605   5.661   6.339
79652SOL     OW40794  14.635  13.326   2.505
79652SOL    HW140795  14.541  13.342   2.513
79652SOL    HW240796  14.670  13.405   2.463
79653SOL     OW40797   6.028  14.726   9.942
79653SOL    HW140798   5.934  14.731   9.928
79653SOL    HW240799   6.066  14.753   9.858
79654SOL     OW40800  13.890   0.410   6.081
79654SOL    HW140801  13.903   0.315   6.085
79654SOL    HW240802  13.807   0.424   6.125
79655SOL     OW40803   8.128   6.325   5.390
79655SOL    HW140804   8.187   6.263   5.433
79655SOL    HW240805   8.043   6.308   5.429
79656SOL     OW40806   4.670  10.293   5.594
79656SOL    HW140807   4.731  10.236   5.547
79656SOL    HW240808   4.707  10.300   5.682
79657SOL     OW40809   9.785  11.873  11.004
79657SOL    HW140810   9.860  11.889  11.061
79657SOL    HW240811   9.822  11.836  10.924
79658SOL     OW40812   6.906   2.827   6.527
79658SOL    HW140813   6.891   2.843   6.433
79658SOL    HW240814   6.936   2.737   6.532
79659SOL     OW40815   5.773   3.256  12.719
79659SOL    HW140816   5.698   3.197  12.709
79659SOL    HW240817   5.795   3.252  12.812
79660SOL     OW40818   6.433  12.052   8.645
79660SOL    HW140819   6.407  12.085   8.731
79660SOL    HW240820   6.401  11.961   8.644
79661SOL     OW40821   4.495   0.333   6.383
79661SOL    HW140822   4.494   0.250   6.429
79661SOL    HW240823   4.580   0.372   6.405
79662SOL     OW40824   2.894   4.067  14.542
79662SOL    HW140825   2.806   4.034  14.561
79662SOL    HW240826   2.950   4.025  14.608
79663SOL     OW40827   1.821   8.346   4.261
79663SOL    HW140828   1.885   8.351   4.332
79663SOL    HW240829   1.794   8.437   4.246
79664SOL     OW40830   3.557   6.995   4.372
79664SOL    HW140831   3.625   6.971   4.435
79664SOL    HW240832   3.555   6.922   4.310
79665SOL     OW40833   4.569  11.664  14.462
79665SOL    HW140834   4.482  11.670  14.502
79665SOL    HW240835   4.566  11.727  14.390
79666SOL     OW40836  14.615  13.750   4.739
79666SOL    HW140837  14.614  13.656   4.725
79666SOL    HW240838  14.696  13.780   4.698
79667SOL     OW40839   8.381   0.335   2.694
79667SOL    HW140840   8.367   0.267   2.760
79667SOL    HW240841   8.457   0.306   2.645
79668SOL     OW40842  11.479   9.871   9.115
79668SOL    HW140843  11.422   9.882   9.039
79668SOL    HW240844  11.473   9.778   9.138
79669SOL     OW40845  14.504   9.069   5.466
79669SOL    HW140846  14.437   9.045   5.402
79669SOL    HW240847  14.569   8.999   5.459
79670SOL     OW40848   2.213  11.089   3.353
79670SOL    HW140849   2.202  10.995   3.368
79670SOL    HW240850   2.270  11.094   3.276
79671SOL     OW40851   3.700  11.079   0.002
79671SOL    HW140852   3.791  11.110   0.003
79671SOL    HW240853   3.704  10.991   0.038
79672SOL     OW40854  13.304  14.480  13.019
79672SOL    HW140855  13.333  14.445  12.935
79672SOL    HW240856  13.372  14.543  13.044
79673SOL     OW40857   7.813  13.505   4.200
79673SOL    HW140858   7.726  13.513   4.161
79673SOL    HW240859   7.825  13.411   4.214
79674SOL     OW40860  10.868   6.348   6.821
79674SOL    HW140861  10.786   6.383   6.855
79674SOL    HW240862  10.877   6.387   6.734
79675SOL     OW40863   1.198   3.892  11.538
79675SOL    HW140864   1.282   3.903  11.582
79675SOL    HW240865   1.166   3.981  11.525
79676SOL     OW40866   5.022  10.599   8.939
79676SOL    HW140867   5.025  10.632   9.029
79676SOL    HW240868   4.932  10.569   8.928
79677SOL     OW40869   0.845   2.027   2.649
79677SOL    HW140870   0.931   1.985   2.645
79677SOL    HW240871   0.801   1.999   2.569
79678SOL     OW40872   3.775  10.955  10.742
79678SOL    HW140873   3.794  10.995  10.827
79678SOL    HW240874   3.786  10.861  10.756
79679SOL     OW40875  14.125   4.890  13.251
79679SOL    HW140876  14.181   4.950  13.203
79679SOL    HW240877  14.101   4.937  13.331
79680SOL     OW40878  13.599   1.251   7.822
79680SOL    HW140879  13.524   1.192   7.817
79680SOL    HW240880  13.593   1.305   7.743
79681SOL     OW40881  10.364   9.411  11.467
79681SOL    HW140882  10.356   9.362  11.549
79681SOL    HW240883  10.280   9.455  11.458
79682SOL     OW40884   0.531   0.273   6.886
79682SOL    HW140885   0.565   0.350   6.841
79682SOL    HW240886   0.520   0.208   6.816
79683SOL     OW40887  12.506  12.711  12.279
79683SOL    HW140888  12.567  12.732  12.207
79683SOL    HW240889  12.553  12.646  12.331
79684SOL     OW40890  13.478   1.579  12.166
79684SOL    HW140891  13.540   1.550  12.233
79684SOL    HW240892  13.436   1.499  12.136
79685SOL     OW40893   9.473   1.276   3.184
79685SOL    HW140894   9.456   1.192   3.225
79685SOL    HW240895   9.389   1.321   3.184
79686SOL     OW40896   1.848  14.761  12.758
79686SOL    HW140897   1.800  14.679  12.746
79686SOL    HW240898   1.935  14.735  12.785
79687SOL     OW40899   2.066   4.540  11.376
79687SOL    HW140900   1.998   4.602  11.350
79687SOL    HW240901   2.147   4.589  11.368
79688SOL     OW40902  12.735   6.268   4.569
79688SOL    HW140903  12.690   6.184   4.572
79688SOL    HW240904  12.827   6.246   4.559
79689SOL     OW40905  14.142   2.584   5.877
79689SOL    HW140906  14.184   2.648   5.820
79689SOL    HW240907  14.167   2.610   5.966
79690SOL     OW40908   1.958   3.789   9.574
79690SOL    HW140909   1.911   3.766   9.495
79690SOL    HW240910   2.039   3.829   9.543
79691SOL     OW40911  10.498   7.014   9.550
79691SOL    HW140912  10.457   7.046   9.469
79691SOL    HW240913  10.438   7.042   9.619
79692SOL     OW40914  13.101   4.132   4.136
79692SOL    HW140915  13.035   4.171   4.077
79692SOL    HW240916  13.154   4.206   4.165
79693SOL     OW40917  14.582  14.226   1.382
79693SOL    HW140918  14.519  14.274   1.435
79693SOL    HW240919  14.652  14.202   1.443
79694SOL     OW40920   4.610   8.076  13.970
79694SOL    HW140921   4.638   7.985  13.969
79694SOL    HW240922   4.686   8.125  13.938
79695SOL     OW40923   3.241  13.874   0.888
79695SOL    HW140924   3.223  13.782   0.867
79695SOL    HW240925   3.329  13.872   0.926
79696SOL     OW40926   6.855   7.240  10.063
79696SOL    HW140927   6.837   7.251   9.970
79696SOL    HW240928   6.913   7.313  10.086
79697SOL     OW40929   7.772  10.724   7.069
79697SOL    HW140930   7.680  10.698   7.062
79697SOL    HW240931   7.779  10.803   7.016
79698SOL     OW40932   8.651   8.783   9.443
79698SOL    HW140933   8.676   8.693   9.467
79698SOL    HW240934   8.725   8.837   9.470
79699SOL     OW40935   1.626   6.242   0.847
79699SOL    HW140936   1.553   6.184   0.827
79699SOL    HW240937   1.703   6.185   0.842
79700SOL     OW40938   1.434   4.303   0.324
79700SOL    HW140939   1.499   4.350   0.376
79700SOL    HW240940   1.410   4.364   0.255
79701SOL     OW40941   7.125   2.695   6.985
79701SOL    HW140942   7.155   2.785   6.973
79701SOL    HW240943   7.061   2.699   7.056
79702SOL     OW40944   8.229   0.307   7.761
79702SOL    HW140945   8.216   0.357   7.680
79702SOL    HW240946   8.320   0.322   7.784
79703SOL     OW40947  13.118   5.063  13.943
79703SOL    HW140948  13.034   5.078  13.986
79703SOL    HW240949  13.109   5.106  13.858
79704SOL     OW40950   8.576   3.315  11.160
79704SOL    HW140951   8.497   3.272  11.126
79704SOL    HW240952   8.647   3.277  11.109
79705SOL     OW40953   8.922   7.759  12.411
79705SOL    HW140954   8.959   7.679  12.375
79705SOL    HW240955   8.912   7.817  12.335
79706SOL     OW40956  11.844   6.736  14.119
79706SOL    HW140957  11.913   6.670  14.129
79706SOL    HW240958  11.776   6.709  14.180
79707SOL     OW40959  13.257  13.460  13.331
79707SOL    HW140960  13.225  13.535  13.382
79707SOL    HW240961  13.302  13.405  13.396
79708SOL     OW40962   8.682  13.580   8.343
79708SOL    HW140963   8.626  13.651   8.377
79708SOL    HW240964   8.673  13.587   8.248
79709SOL     OW40965   1.269   6.274   2.657
79709SOL    HW140966   1.306   6.339   2.597
79709SOL    HW240967   1.222   6.212   2.602
79710SOL     OW40968  12.809   6.871   1.257
79710SOL    HW140969  12.747   6.803   1.284
79710SOL    HW240970  12.763   6.953   1.274
79711SOL     OW40971   1.452  12.106  12.773
79711SOL    HW140972   1.374  12.056  12.799
79711SOL    HW240973   1.417  12.178  12.721
79712SOL     OW40974  12.381   4.272  13.413
79712SOL    HW140975  12.353   4.185  13.441
79712SOL    HW240976  12.404   4.261  13.321
79713SOL     OW40977   3.365  12.150   6.783
79713SOL    HW140978   3.436  12.092   6.809
79713SOL    HW240979   3.355  12.135   6.689
79714SOL     OW40980   8.296   5.492   3.067
79714SOL    HW140981   8.365   5.556   3.048
79714SOL    HW240982   8.342   5.408   3.072
79715SOL     OW40983  14.235   7.523   3.041
79715SOL    HW140984  14.306   7.561   2.989
79715SOL    HW240985  14.280   7.467   3.105
79716SOL     OW40986  11.080   1.179   3.965
79716SOL    HW140987  11.128   1.261   3.979
79716SOL    HW240988  11.133   1.112   4.009
79717SOL     OW40989  11.996   4.679   9.677
79717SOL    HW140990  12.042   4.659   9.596
79717SOL    HW240991  11.905   4.656   9.659
79718SOL     OW40992  10.875   8.693  13.290
79718SOL    HW140993  10.919   8.657  13.366
79718SOL    HW240994  10.813   8.757  13.325
79719SOL     OW40995   0.258  10.195   3.500
79719SOL    HW140996   0.283  10.188   3.592
79719SOL    HW240997   0.257  10.104   3.469
79720SOL     OW40998   4.352  13.223  11.785
79720SOL    HW140999   4.413  13.150  11.797
79720SOL    HW241000   4.266  13.185  11.805
79721SOL     OW41001   7.895   7.977  11.644
79721SOL    HW141002   7.854   7.912  11.702
79721SOL    HW241003   7.988   7.953  11.644
79722SOL     OW41004  13.404  12.983  12.127
79722SOL    HW141005  13.330  12.931  12.094
79722SOL    HW241006  13.363  13.055  12.175
79723SOL     OW41007  10.694   2.045   9.779
79723SOL    HW141008  10.611   2.092   9.783
79723SOL    HW241009  10.671   1.954   9.798
79724SOL     OW41010   2.617   1.458  10.954
79724SOL    HW141011   2.532   1.436  10.916
79724SOL    HW241012   2.671   1.380  10.942
79725SOL     OW41013   8.716   0.352   6.914
79725SOL    HW141014   8.788   0.409   6.888
79725SOL    HW241015   8.637   0.401   6.892
79726SOL     OW41016   1.262   0.340   0.491
79726SOL    HW141017   1.328   0.348   0.423
79726SOL    HW241018   1.218   0.257   0.474
79727SOL     OW41019  12.085   0.380   3.959
79727SOL    HW141020  12.070   0.317   4.030
79727SOL    HW241021  12.122   0.456   4.003
79728SOL     OW41022   1.819   2.213  11.077
79728SOL    HW141023   1.801   2.190  10.986
79728SOL    HW241024   1.773   2.295  11.090
79729SOL     OW41025  10.356   5.875   6.448
79729SOL    HW141026  10.384   5.783   6.440
79729SOL    HW241027  10.350   5.907   6.358
79730SOL     OW41028  12.297   4.711   1.102
79730SOL    HW141029  12.321   4.799   1.134
79730SOL    HW241030  12.347   4.701   1.021
79731SOL     OW41031   3.349  11.763  11.061
79731SOL    HW141032   3.258  11.736  11.043
79731SOL    HW241033   3.398  11.729  10.986
79732SOL     OW41034  14.525   0.983   8.101
79732SOL    HW141035  14.446   0.947   8.142
79732SOL    HW241036  14.501   0.997   8.010
79733SOL     OW41037  11.723   1.095   1.777
79733SOL    HW141038  11.714   1.181   1.734
79733SOL    HW241039  11.639   1.052   1.761
79734SOL     OW41040  11.653   8.863  10.870
79734SOL    HW141041  11.720   8.861  10.802
79734SOL    HW241042  11.573   8.835  10.826
79735SOL     OW41043  12.292  11.377   1.449
79735SOL    HW141044  12.231  11.437   1.406
79735SOL    HW241045  12.240  11.330   1.514
79736SOL     OW41046   1.306   3.613  12.908
79736SOL    HW141047   1.210   3.609  12.907
79736SOL    HW241048   1.333   3.525  12.932
79737SOL     OW41049   7.233   9.419   5.405
79737SOL    HW141050   7.319   9.413   5.447
79737SOL    HW241051   7.219   9.512   5.392
79738SOL     OW41052  14.781   3.718   1.789
79738SOL    HW141053  14.756   3.809   1.807
79738SOL    HW241054  14.862   3.724   1.740
79739SOL     OW41055   9.105   8.910  14.101
79739SOL    HW141056   9.186   8.859  14.098
79739SOL    HW241057   9.048   8.871  14.035
79740SOL     OW41058   6.504   4.692   7.472
79740SOL    HW141059   6.545   4.725   7.551
79740SOL    HW241060   6.412   4.720   7.479
79741SOL     OW41061   3.521   2.183  10.221
79741SOL    HW141062   3.479   2.247  10.164
79741SOL    HW241063   3.528   2.104  10.166
79742SOL     OW41064   1.883   8.567   2.469
79742SOL    HW141065   1.932   8.612   2.400
79742SOL    HW241066   1.865   8.635   2.534
79743SOL     OW41067  14.240   1.672   3.998
79743SOL    HW141068  14.228   1.585   4.035
79743SOL    HW241069  14.333   1.677   3.976
79744SOL     OW41070   5.504  11.333   6.589
79744SOL    HW141071   5.484  11.418   6.551
79744SOL    HW241072   5.487  11.345   6.683
79745SOL     OW41073  10.286   3.548  10.899
79745SOL    HW141074  10.367   3.511  10.865
79745SOL    HW241075  10.253   3.483  10.962
79746SOL     OW41076   5.328   9.390   8.724
79746SOL    HW141077   5.306   9.480   8.746
79746SOL    HW241078   5.265   9.365   8.657
79747SOL     OW41079   0.773   8.415   1.857
79747SOL    HW141080   0.684   8.410   1.892
79747SOL    HW241081   0.768   8.483   1.790
79748SOL     OW41082  13.602   0.450   2.877
79748SOL    HW141083  13.582   0.361   2.846
79748SOL    HW241084  13.665   0.483   2.813
79749SOL     OW41085   9.913  11.651   6.329
79749SOL    HW141086   9.968  11.717   6.372
79749SOL    HW241087   9.974  11.602   6.274
79750SOL     OW41088   6.775   1.779   3.338
79750SOL    HW141089   6.751   1.734   3.257
79750SOL    HW241090   6.691   1.800   3.379
79751SOL     OW41091   1.645   3.774   8.099
79751SOL    HW141092   1.728   3.815   8.075
79751SOL    HW241093   1.656   3.682   8.077
79752SOL     OW41094   4.361  13.844   4.949
79752SOL    HW141095   4.347  13.898   5.026
79752SOL    HW241096   4.312  13.764   4.966
79753SOL     OW41097  10.005   6.876   3.230
79753SOL    HW141098  10.035   6.786   3.225
79753SOL    HW241099   9.934   6.882   3.165
79754SOL     OW41100   2.188  12.376   2.229
79754SOL    HW141101   2.144  12.339   2.153
79754SOL    HW241102   2.264  12.421   2.192
79755SOL     OW41103   6.847   8.769  13.060
79755SOL    HW141104   6.757   8.762  13.028
79755SOL    HW241105   6.842   8.833  13.131
79756SOL     OW41106   1.607   4.882   3.834
79756SOL    HW141107   1.681   4.838   3.791
79756SOL    HW241108   1.559   4.923   3.762
79757SOL     OW41109   4.589   0.662  14.834
79757SOL    HW141110   4.584   0.749  14.795
79757SOL    HW241111   4.562   0.674   0.052
79758SOL     OW41112  14.824  11.524  13.309
79758SOL    HW141113  14.756  11.496  13.248
79758SOL    HW241114  14.781  11.523  13.395
79759SOL     OW41115  11.075   0.619  10.566
79759SOL    HW141116  11.051   0.711  10.559
79759SOL    HW241117  11.119   0.612  10.651
79760SOL     OW41118   0.419  10.789  13.781
79760SOL    HW141119   0.333  10.829  13.790
79760SOL    HW241120   0.409  10.702  13.821
79761SOL     OW41121  12.697  12.747  12.059
79761SOL    HW141122  12.692  12.799  11.979
79761SOL    HW241123  12.790  12.728  12.069
79762SOL     OW41124   8.550   8.223  11.258
79762SOL    HW141125   8.540   8.244  11.351
79762SOL    HW241126   8.591   8.300  11.219
79763SOL     OW41127   6.116   2.854   6.598
79763SOL    HW141128   6.150   2.777   6.645
79763SOL    HW241129   6.079   2.910   6.667
79764SOL     OW41130   5.682   7.765   7.252
79764SOL    HW141131   5.774   7.786   7.234
79764SOL    HW241132   5.637   7.849   7.246
79765SOL     OW41133  13.929  10.590  10.133
79765SOL    HW141134  13.867  10.532  10.088
79765SOL    HW241135  13.883  10.673  10.139
79766SOL     OW41136   0.822   4.565  11.978
79766SOL    HW141137   0.916   4.567  11.959
79766SOL    HW241138   0.792   4.654  11.963
79767SOL     OW41139  13.003  14.096   7.826
79767SOL    HW141140  13.023  14.188   7.810
79767SOL    HW241141  13.086  14.051   7.812
79768SOL     OW41142   8.520   6.991   3.599
79768SOL    HW141143   8.448   6.928   3.594
79768SOL    HW241144   8.591   6.950   3.548
79769SOL     OW41145   4.213   1.448   5.364
79769SOL    HW141146   4.223   1.475   5.272
79769SOL    HW241147   4.272   1.506   5.412
79770SOL     OW41148   3.686   1.878  12.898
79770SOL    HW141149   3.723   1.824  12.829
79770SOL    HW241150   3.642   1.949  12.852
79771SOL     OW41151   4.725   5.035  11.964
79771SOL    HW141152   4.716   5.032  11.869
79771SOL    HW241153   4.782   5.111  11.980
79772SOL     OW41154   8.834   9.607  13.863
79772SOL    HW141155   8.808   9.680  13.807
79772SOL    HW241156   8.849   9.647  13.949
79773SOL     OW41157  14.144   0.612  11.330
79773SOL    HW141158  14.092   0.545  11.374
79773SOL    HW241159  14.080   0.676  11.300
79774SOL     OW41160   0.661   8.833  12.528
79774SOL    HW141161   0.565   8.830  12.533
79774SOL    HW241162   0.690   8.791  12.609
79775SOL     OW41163  10.752  11.385  13.874
79775SOL    HW141164  10.741  11.347  13.961
79775SOL    HW241165  10.789  11.472  13.890
79776SOL     OW41166  10.438  10.348   4.685
79776SOL    HW141167  10.447  10.421   4.746
79776SOL    HW241168  10.495  10.280   4.721
79777SOL     OW41169  11.757   2.983   7.902
79777SOL    HW141170  11.762   2.888   7.915
79777SOL    HW241171  11.773   3.019   7.989
79778SOL     OW41172   7.892   6.858   7.395
79778SOL    HW141173   7.809   6.812   7.403
79778SOL    HW241174   7.924   6.867   7.485
79779SOL     OW41175   6.070   6.165   1.293
79779SOL    HW141176   6.006   6.095   1.279
79779SOL    HW241177   6.112   6.176   1.208
79780SOL     OW41178  11.026   9.945  13.185
79780SOL    HW141179  10.938   9.978  13.168
79780SOL    HW241180  11.058   9.917  13.099
79781SOL     OW41181   6.622   4.834  13.594
79781SOL    HW141182   6.566   4.757  13.605
79781SOL    HW241183   6.568   4.907  13.625
79782SOL     OW41184   5.636  12.083  12.126
79782SOL    HW141185   5.591  12.165  12.148
79782SOL    HW241186   5.687  12.103  12.049
79783SOL     OW41187   0.904   0.894  11.688
79783SOL    HW141188   0.871   0.871  11.601
79783SOL    HW241189   0.999   0.896  11.678
79784SOL     OW41190   7.086  11.230   8.117
79784SOL    HW141191   7.032  11.151   8.117
79784SOL    HW241192   7.176  11.198   8.127
79785SOL     OW41193   2.150  10.249   2.697
79785SOL    HW141194   2.153  10.319   2.761
79785SOL    HW241195   2.061  10.214   2.703
79786SOL     OW41196  13.651   8.838   1.496
79786SOL    HW141197  13.705   8.847   1.575
79786SOL    HW241198  13.601   8.758   1.510
79787SOL     OW41199  13.948   8.657   2.473
79787SOL    HW141200  13.942   8.613   2.558
79787SOL    HW241201  13.941   8.586   2.409
79788SOL     OW41202   2.262  11.925   2.398
79788SOL    HW141203   2.314  11.905   2.320
79788SOL    HW241204   2.174  11.892   2.377
79789SOL     OW41205   2.845   4.436   8.902
79789SOL    HW141206   2.808   4.380   8.834
79789SOL    HW241207   2.841   4.384   8.982
79790SOL     OW41208  11.873   9.649   9.875
79790SOL    HW141209  11.831   9.607   9.949
79790SOL    HW241210  11.912   9.577   9.825
79791SOL     OW41211   6.981   5.413   0.701
79791SOL    HW141212   7.068   5.386   0.670
79791SOL    HW241213   6.987   5.508   0.706
79792SOL     OW41214   1.113  10.237   7.090
79792SOL    HW141215   1.171  10.277   7.025
79792SOL    HW241216   1.034  10.215   7.041
79793SOL     OW41217  13.777   0.959  13.489
79793SOL    HW141218  13.852   0.904  13.511
79793SOL    HW241219  13.749   0.928  13.403
79794SOL     OW41220   2.277  12.243   1.450
79794SOL    HW141221   2.295  12.154   1.481
79794SOL    HW241222   2.323  12.249   1.366
79795SOL     OW41223   8.743  11.190   7.776
79795SOL    HW141224   8.823  11.138   7.769
79795SOL    HW241225   8.774  11.280   7.784
79796SOL     OW41226  13.439   7.913  13.604
79796SOL    HW141227  13.454   8.004  13.630
79796SOL    HW241228  13.376   7.881  13.668
79797SOL     OW41229   1.974   9.873   9.286
79797SOL    HW141230   1.990   9.967   9.277
79797SOL    HW241231   2.036   9.845   9.354
79798SOL     OW41232   9.487   1.859   3.887
79798SOL    HW141233   9.431   1.782   3.894
79798SOL    HW241234   9.467   1.896   3.800
79799SOL     OW41235  12.708  10.837   7.543
79799SOL    HW141236  12.664  10.760   7.581
79799SOL    HW241237  12.799  10.810   7.532
79800SOL     OW41238   8.891   0.161  12.152
79800SOL    HW141239   8.818   0.101  12.143
79800SOL    HW241240   8.852   0.244  12.178
79801SOL     OW41241  14.173   4.334   4.091
79801SOL    HW141242  14.119   4.405   4.126
79801SOL    HW241243  14.123   4.254   4.110
79802SOL     OW41244  14.261   7.653   0.589
79802SOL    HW141245  14.278   7.617   0.676
79802SOL    HW241246  14.317   7.601   0.531
79803SOL     OW41247   0.964  11.215   6.504
79803SOL    HW141248   0.962  11.200   6.599
79803SOL    HW241249   0.998  11.133   6.468
79804SOL     OW41250   4.448   1.411  14.811
79804SOL    HW141251   4.353   1.404  14.802
79804SOL    HW241252   4.461   1.435   0.030
79805SOL     OW41253  13.581  12.453   0.827
79805SOL    HW141254  13.551  12.535   0.866
79805SOL    HW241255  13.516  12.388   0.852
79806SOL     OW41256   4.573   3.429  13.314
79806SOL    HW141257   4.502   3.471  13.265
79806SOL    HW241258   4.627   3.388  13.247
79807SOL     OW41259  11.218   1.798   0.085
79807SOL    HW141260  11.249   1.738   0.018
79807SOL    HW241261  11.287   1.797   0.152
79808SOL     OW41262   4.347  10.791   9.939
79808SOL    HW141263   4.313  10.834  10.017
79808SOL    HW241264   4.438  10.821   9.933
79809SOL     OW41265  12.131  13.319   4.757
79809SOL    HW141266  12.087  13.252   4.704
79809SOL    HW241267  12.171  13.270   4.829
79810SOL     OW41268  13.844  12.263  14.690
79810SOL    HW141269  13.791  12.241  14.767
79810SOL    HW241270  13.925  12.299  14.726
79811SOL     OW41271   3.383   3.514   2.231
79811SOL    HW141272   3.467   3.560   2.234
79811SOL    HW241273   3.320   3.583   2.212
79812SOL     OW41274   9.715   3.559   8.030
79812SOL    HW141275   9.740   3.527   7.943
79812SOL    HW241276   9.622   3.580   8.023
79813SOL     OW41277   6.385   2.849   1.853
79813SOL    HW141278   6.332   2.791   1.798
79813SOL    HW241279   6.322   2.905   1.898
79814SOL     OW41280   7.276   7.256   9.861
79814SOL    HW141281   7.268   7.243   9.955
79814SOL    HW241282   7.186   7.259   9.829
79815SOL     OW41283  10.547   8.987   5.079
79815SOL    HW141284  10.535   8.997   5.173
79815SOL    HW241285  10.641   8.996   5.065
79816SOL     OW41286   5.846   4.554  11.360
79816SOL    HW141287   5.907   4.609  11.310
79816SOL    HW241288   5.902   4.497  11.412
79817SOL     OW41289   5.831   1.993   1.728
79817SOL    HW141290   5.760   2.058   1.722
79817SOL    HW241291   5.910   2.045   1.744
79818SOL     OW41292   8.099   3.885   8.090
79818SOL    HW141293   8.131   3.970   8.058
79818SOL    HW241294   8.020   3.906   8.139
79819SOL     OW41295   1.972   1.771   4.905
79819SOL    HW141296   1.932   1.745   4.823
79819SOL    HW241297   1.899   1.775   4.967
79820SOL     OW41298   4.216   3.518  13.548
79820SOL    HW141299   4.145   3.520  13.612
79820SOL    HW241300   4.228   3.425  13.528
79821SOL     OW41301  10.093  14.863   2.758
79821SOL    HW141302  10.161  14.853   2.825
79821SOL    HW241303  10.030  14.794   2.778
79822SOL     OW41304   0.817   2.042  14.099
79822SOL    HW141305   0.723   2.060  14.096
79822SOL    HW241306   0.849   2.091  14.174
79823SOL     OW41307   1.250  11.134  11.591
79823SOL    HW141308   1.315  11.126  11.521
79823SOL    HW241309   1.297  11.107  11.670
79824SOL     OW41310  10.113   6.185   2.056
79824SOL    HW141311  10.192   6.182   2.003
79824SOL    HW241312  10.041   6.197   1.994
79825SOL     OW41313  14.007  11.841   2.822
79825SOL    HW141314  14.043  11.760   2.858
79825SOL    HW241315  13.992  11.820   2.729
79826SOL     OW41316  10.220   9.813  12.059
79826SOL    HW141317  10.238   9.799  12.152
79826SOL    HW241318  10.133   9.774  12.045
79827SOL     OW41319   9.160  11.284   9.549
79827SOL    HW141320   9.187  11.245   9.632
79827SOL    HW241321   9.065  11.280   9.550
79828SOL     OW41322   7.988   1.905  11.652
79828SOL    HW141323   7.951   1.824  11.616
79828SOL    HW241324   7.995   1.964  11.576
79829SOL     OW41325   5.362   8.478  12.884
79829SOL    HW141326   5.367   8.460  12.790
79829SOL    HW241327   5.372   8.392  12.925
79830SOL     OW41328   7.481   4.025   0.795
79830SOL    HW141329   7.477   4.073   0.878
79830SOL    HW241330   7.400   3.975   0.792
79831SOL     OW41331   5.504   3.456   9.271
79831SOL    HW141332   5.579   3.441   9.328
79831SOL    HW241333   5.543   3.487   9.189
79832SOL     OW41334  11.225   4.168   6.593
79832SOL    HW141335  11.311   4.153   6.555
79832SOL    HW241336  11.164   4.140   6.525
79833SOL     OW41337   8.228   6.739  12.732
79833SOL    HW141338   8.155   6.738  12.670
79833SOL    HW241339   8.187   6.760  12.817
79834SOL     OW41340   2.462  12.411   2.527
79834SOL    HW141341   2.510  12.395   2.446
79834SOL    HW241342   2.464  12.327   2.573
79835SOL     OW41343   2.890   0.402  13.913
79835SOL    HW141344   2.955   0.470  13.931
79835SOL    HW241345   2.806   0.445  13.927
79836SOL     OW41346  12.529   3.897   5.148
79836SOL    HW141347  12.527   3.802   5.137
79836SOL    HW241348  12.439   3.926   5.132
79837SOL     OW41349  12.195   2.247   9.709
79837SOL    HW141350  12.256   2.183   9.746
79837SOL    HW241351  12.199   2.230   9.615
79838SOL     OW41352   2.823   0.982   4.209
79838SOL    HW141353   2.856   0.897   4.238
79838SOL    HW241354   2.785   0.965   4.123
79839SOL     OW41355   9.335   2.748   2.007
79839SOL    HW141356   9.246   2.779   1.993
79839SOL    HW241357   9.334   2.656   1.980
79840SOL     OW41358   0.502   6.479  11.992
79840SOL    HW141359   0.548   6.403  12.029
79840SOL    HW241360   0.456   6.445  11.916
79841SOL     OW41361   0.646   4.360   7.656
79841SOL    HW141362   0.678   4.374   7.745
79841SOL    HW241363   0.638   4.265   7.648
79842SOL     OW41364  11.592   2.551  12.408
79842SOL    HW141365  11.522   2.533  12.346
79842SOL    HW241366  11.551   2.608  12.474
79843SOL     OW41367   4.601  10.878  10.011
79843SOL    HW141368   4.644  10.792  10.016
79843SOL    HW241369   4.673  10.940  10.002
79844SOL     OW41370   8.841   8.819   7.629
79844SOL    HW141371   8.878   8.832   7.716
79844SOL    HW241372   8.817   8.726   7.627
79845SOL     OW41373   0.963   1.594   5.875
79845SOL    HW141374   0.868   1.602   5.867
79845SOL    HW241375   0.994   1.684   5.883
79846SOL     OW41376  13.190   5.952   7.722
79846SOL    HW141377  13.097   5.943   7.700
79846SOL    HW241378  13.208   5.875   7.777
79847SOL     OW41379   8.814  10.549   8.333
79847SOL    HW141380   8.784  10.460   8.315
79847SOL    HW241381   8.908  10.540   8.346
79848SOL     OW41382   9.968   2.982   4.421
79848SOL    HW141383   9.899   3.040   4.388
79848SOL    HW241384  10.047   3.008   4.373
79849SOL     OW41385   3.422   7.597  10.107
79849SOL    HW141386   3.488   7.554  10.052
79849SOL    HW241387   3.359   7.527  10.127
79850SOL     OW41388  10.858  14.025  11.410
79850SOL    HW141389  10.933  14.034  11.351
79850SOL    HW241390  10.785  14.061  11.360
79851SOL     OW41391   1.866  11.593   0.213
79851SOL    HW141392   1.881  11.549   0.297
79851SOL    HW241393   1.800  11.539   0.169
79852SOL     OW41394   0.421  12.687   0.472
79852SOL    HW141395   0.483  12.676   0.400
79852SOL    HW241396   0.342  12.720   0.430
79853SOL     OW41397  12.447   0.598   1.254
79853SOL    HW141398  12.408   0.517   1.284
79853SOL    HW241399  12.531   0.572   1.217
79854SOL     OW41400   0.658   4.667   4.358
79854SOL    HW141401   0.672   4.645   4.450
79854SOL    HW241402   0.587   4.610   4.330
79855SOL     OW41403   4.378   8.192   6.886
79855SOL    HW141404   4.311   8.135   6.925
79855SOL    HW241405   4.461   8.158   6.920
79856SOL     OW41406  10.259   3.614  11.416
79856SOL    HW141407  10.211   3.638  11.336
79856SOL    HW241408  10.350   3.610  11.389
79857SOL     OW41409  10.552   5.643  14.673
79857SOL    HW141410  10.611   5.572  14.649
79857SOL    HW241411  10.610   5.717  14.690
79858SOL     OW41412   6.416   3.172  14.799
79858SOL    HW141413   6.415   3.256  14.843
79858SOL    HW241414   6.329   3.162  14.762
79859SOL     OW41415  11.563  10.468   7.051
79859SOL    HW141416  11.608  10.401   7.000
79859SOL    HW241417  11.505  10.419   7.109
79860SOL     OW41418   7.401   8.434   1.762
79860SOL    HW141419   7.337   8.370   1.730
79860SOL    HW241420   7.485   8.388   1.758
79861SOL     OW41421  12.527  10.459   1.210
79861SOL    HW141422  12.615  10.462   1.248
79861SOL    HW241423  12.494  10.373   1.236
79862SOL     OW41424   0.960   7.867   3.098
79862SOL    HW141425   0.890   7.895   3.156
79862SOL    HW241426   1.030   7.837   3.156
79863SOL     OW41427   7.880  13.927   8.540
79863SOL    HW141428   7.897  13.998   8.602
79863SOL    HW241429   7.966  13.888   8.525
79864SOL     OW41430   1.844  13.798  11.853
79864SOL    HW141431   1.818  13.876  11.805
79864SOL    HW241432   1.939  13.802  11.858
79865SOL     OW41433   3.844   3.385   2.568
79865SOL    HW141434   3.821   3.311   2.624
79865SOL    HW241435   3.872   3.345   2.486
79866SOL     OW41436  12.100   5.132   8.293
79866SOL    HW141437  12.144   5.206   8.249
79866SOL    HW241438  12.135   5.054   8.249
79867SOL     OW41439   2.971   2.776   1.181
79867SOL    HW141440   3.055   2.736   1.203
79867SOL    HW241441   2.938   2.725   1.107
79868SOL     OW41442   0.660  10.582  11.822
79868SOL    HW141443   0.672  10.502  11.874
79868SOL    HW241444   0.635  10.551  11.735
79869SOL     OW41445   8.939   5.255  13.661
79869SOL    HW141446   8.971   5.308  13.734
79869SOL    HW241447   8.955   5.164  13.687
79870SOL     OW41448  10.566   2.343   0.510
79870SOL    HW141449  10.601   2.391   0.585
79870SOL    HW241450  10.591   2.252   0.526
79871SOL     OW41451   1.236  13.178   7.387
79871SOL    HW141452   1.298  13.207   7.453
79871SOL    HW241453   1.270  13.094   7.357
79872SOL     OW41454   1.187  11.737  11.134
79872SOL    HW141455   1.256  11.686  11.092
79872SOL    HW241456   1.123  11.754  11.065
79873SOL     OW41457  10.275   0.750   0.393
79873SOL    HW141458  10.265   0.678   0.454
79873SOL    HW241459  10.208   0.813   0.420
79874SOL     OW41460   9.119  12.673  10.049
79874SOL    HW141461   9.045  12.653   9.991
79874SOL    HW241462   9.078  12.689  10.134
79875SOL     OW41463   0.037  10.930  14.172
79875SOL    HW141464   0.132  10.928  14.177
79875SOL    HW241465   0.007  10.894  14.256
79876SOL     OW41466  13.476  11.662   6.402
79876SOL    HW141467  13.472  11.684   6.494
79876SOL    HW241468  13.399  11.607   6.386
79877SOL     OW41469   8.830   0.052   2.613
79877SOL    HW141470   8.876  14.861   2.558
79877SOL    HW241471   8.870   0.042   2.699
79878SOL     OW41472   4.101   4.256   9.981
79878SOL    HW141473   4.196   4.257   9.992
79878SOL    HW241474   4.085   4.316   9.907
79879SOL     OW41475   7.470   8.860   4.628
79879SOL    HW141476   7.554   8.871   4.672
79879SOL    HW241477   7.457   8.943   4.581
79880SOL     OW41478  12.105   8.887  11.851
79880SOL    HW141479  12.199   8.905  11.859
79880SOL    HW241480  12.092   8.804  11.897
79881SOL     OW41481  11.968   4.225  10.931
79881SOL    HW141482  12.051   4.186  10.959
79881SOL    HW241483  11.957   4.195  10.841
79882SOL     OW41484   5.096  12.181   8.271
79882SOL    HW141485   5.046  12.214   8.346
79882SOL    HW241486   5.178  12.230   8.272
79883SOL     OW41487   0.287   7.944  13.645
79883SOL    HW141488   0.367   7.933  13.696
79883SOL    HW241489   0.316   7.947  13.554
79884SOL     OW41490   6.656  12.585   7.028
79884SOL    HW141491   6.633  12.581   6.935
79884SOL    HW241492   6.621  12.668   7.058
79885SOL     OW41493   2.289   0.956   9.849
79885SOL    HW141494   2.288   0.985   9.758
79885SOL    HW241495   2.340   1.023   9.895
79886SOL     OW41496  14.350   8.145  12.112
79886SOL    HW141497  14.374   8.112  12.026
79886SOL    HW241498  14.277   8.205  12.097
79887SOL     OW41499   1.582   0.707   1.320
79887SOL    HW141500   1.580   0.636   1.255
79887SOL    HW241501   1.590   0.787   1.267
79888SOL     OW41502   7.634  13.677  12.555
79888SOL    HW141503   7.581  13.751  12.524
79888SOL    HW241504   7.719  13.716  12.576
79889SOL     OW41505  10.564   2.639   5.609
79889SOL    HW141506  10.618   2.587   5.549
79889SOL    HW241507  10.627   2.683   5.666
79890SOL     OW41508   0.518  10.091   0.051
79890SOL    HW141509   0.593  10.041   0.018
79890SOL    HW241510   0.507  10.061   0.141
79891SOL     OW41511   9.454  10.625  14.361
79891SOL    HW141512   9.372  10.581  14.385
79891SOL    HW241513   9.488  10.574  14.288
79892SOL     OW41514  10.187   0.972   2.839
79892SOL    HW141515  10.242   0.950   2.914
79892SOL    HW241516  10.238   0.942   2.763
79893SOL     OW41517  12.520   3.924   8.383
79893SOL    HW141518  12.527   4.013   8.419
79893SOL    HW241519  12.499   3.937   8.291
79894SOL     OW41520  10.420   3.854   5.462
79894SOL    HW141521  10.331   3.883   5.481
79894SOL    HW241522  10.446   3.805   5.540
79895SOL     OW41523   2.129  12.634   9.961
79895SOL    HW141524   2.069  12.623  10.034
79895SOL    HW241525   2.076  12.672   9.891
79896SOL     OW41526   1.040  11.891  12.191
79896SOL    HW141527   1.053  11.969  12.245
79896SOL    HW241528   1.072  11.818  12.244
79897SOL     OW41529   9.743  12.118   0.292
79897SOL    HW141530   9.765  12.144   0.381
79897SOL    HW241531   9.733  12.200   0.244
79898SOL     OW41532  11.911  13.651   5.368
79898SOL    HW141533  11.861  13.575   5.397
79898SOL    HW241534  11.866  13.680   5.288
79899SOL     OW41535   2.038  13.382   2.413
79899SOL    HW141536   2.087  13.463   2.397
79899SOL    HW241537   2.105  13.317   2.434
79900SOL     OW41538   3.145   7.383   5.729
79900SOL    HW141539   3.216   7.363   5.667
79900SOL    HW241540   3.189   7.400   5.812
79901SOL     OW41541   6.925   6.438   3.066
79901SOL    HW141542   6.936   6.349   3.099
79901SOL    HW241543   6.994   6.488   3.109
79902SOL     OW41544  13.134   6.380  12.915
79902SOL    HW141545  13.057   6.436  12.901
79902SOL    HW241546  13.100   6.291  12.914
79903SOL     OW41547  12.022   3.369   5.405
79903SOL    HW141548  12.075   3.289   5.410
79903SOL    HW241549  12.082   3.439   5.427
79904SOL     OW41550   6.482   4.280   6.678
79904SOL    HW141551   6.447   4.365   6.651
79904SOL    HW241552   6.554   4.264   6.617
79905SOL     OW41553   5.007  13.764  11.985
79905SOL    HW141554   5.098  13.736  11.972
79905SOL    HW241555   4.987  13.817  11.908
79906SOL     OW41556  14.557   2.502  13.859
79906SOL    HW141557  14.581   2.567  13.925
79906SOL    HW241558  14.542   2.552  13.780
79907SOL     OW41559   4.639  14.830  10.320
79907SOL    HW141560   4.660  14.837  10.227
79907SOL    HW241561   4.628  14.736  10.335
79908SOL     OW41562   6.019  12.943   2.958
79908SOL    HW141563   5.966  12.936   3.037
79908SOL    HW241564   6.067  13.025   2.968
79909SOL     OW41565   8.991   8.095   4.546
79909SOL    HW141566   8.999   8.105   4.451
79909SOL    HW241567   8.979   8.184   4.579
79910SOL     OW41568  10.320   8.312  12.922
79910SOL    HW141569  10.391   8.370  12.896
79910SOL    HW241570  10.359   8.255  12.988
79911SOL     OW41571   0.266   4.155  10.844
79911SOL    HW141572   0.254   4.066  10.811
79911SOL    HW241573   0.295   4.205  10.767
79912SOL     OW41574   6.301  13.857   9.068
79912SOL    HW141575   6.206  13.858   9.068
79912SOL    HW241576   6.325  13.785   9.010
79913SOL     OW41577   3.389   1.122   7.736
79913SOL    HW141578   3.399   1.091   7.646
79913SOL    HW241579   3.321   1.065   7.773
79914SOL     OW41580   0.675  11.499   1.773
79914SOL    HW141581   0.674  11.405   1.758
79914SOL    HW241582   0.741  11.511   1.842
79915SOL     OW41583   6.891   5.548   4.773
79915SOL    HW141584   6.814   5.582   4.818
79915SOL    HW241585   6.948   5.517   4.844
79916SOL     OW41586   4.762   3.619   7.063
79916SOL    HW141587   4.759   3.579   7.150
79916SOL    HW241588   4.853   3.642   7.049
79917SOL     OW41589   6.216   8.975   8.712
79917SOL    HW141590   6.277   9.048   8.713
79917SOL    HW241591   6.238   8.923   8.790
79918SOL     OW41592   0.874   0.297  10.266
79918SOL    HW141593   0.950   0.355  10.260
79918SOL    HW241594   0.910   0.209  10.250
79919SOL     OW41595  10.903  14.076   0.614
79919SOL    HW141596  10.908  14.171   0.604
79919SOL    HW241597  10.969  14.042   0.554
79920SOL     OW41598   1.211   6.085   8.947
79920SOL    HW141599   1.224   6.139   9.025
79920SOL    HW241600   1.300   6.066   8.917
79921SOL     OW41601   4.930   8.656   0.171
79921SOL    HW141602   4.902   8.748   0.163
79921SOL    HW241603   5.004   8.649   0.111
79922SOL     OW41604   9.043   1.603  12.106
79922SOL    HW141605   9.057   1.675  12.044
79922SOL    HW241606   8.987   1.541  12.060
79923SOL     OW41607   9.558   1.655   0.538
79923SOL    HW141608   9.493   1.712   0.496
79923SOL    HW241609   9.635   1.711   0.548
79924SOL     OW41610   6.457   8.116   2.515
79924SOL    HW141611   6.406   8.064   2.578
79924SOL    HW241612   6.529   8.058   2.490
79925SOL     OW41613   4.531  13.814  12.169
79925SOL    HW141614   4.522  13.826  12.264
79925SOL    HW241615   4.604  13.753  12.160
79926SOL     OW41616  14.417  10.918   9.080
79926SOL    HW141617  14.356  10.971   9.028
79926SOL    HW241618  14.486  10.893   9.018
79927SOL     OW41619   6.527   2.764   9.645
79927SOL    HW141620   6.590   2.693   9.658
79927SOL    HW241621   6.457   2.745   9.707
79928SOL     OW41622  14.028   2.222   4.695
79928SOL    HW141623  14.094   2.268   4.643
79928SOL    HW241624  13.995   2.288   4.756
79929SOL     OW41625   2.543   8.615   7.752
79929SOL    HW141626   2.480   8.566   7.805
79929SOL    HW241627   2.588   8.548   7.700
79930SOL     OW41628   2.061  10.801   4.694
79930SOL    HW141629   2.063  10.758   4.779
79930SOL    HW241630   2.133  10.761   4.645
79931SOL     OW41631   9.129  13.179   8.616
79931SOL    HW141632   9.052  13.156   8.669
79931SOL    HW241633   9.204  13.156   8.671
79932SOL     OW41634  12.987   4.830  10.811
79932SOL    HW141635  12.899   4.794  10.808
79932SOL    HW241636  13.008   4.849  10.719
79933SOL     OW41637   1.919  12.944   6.545
79933SOL    HW141638   1.940  12.943   6.638
79933SOL    HW241639   1.951  12.860   6.512
79934SOL     OW41640  13.772  13.791   7.088
79934SOL    HW141641  13.695  13.767   7.037
79934SOL    HW241642  13.738  13.846   7.158
79935SOL     OW41643   8.970  11.978   8.523
79935SOL    HW141644   8.924  12.004   8.603
79935SOL    HW241645   9.061  11.968   8.549
79936SOL     OW41646   7.572   8.512   7.898
79936SOL    HW141647   7.657   8.470   7.914
79936SOL    HW241648   7.515   8.440   7.871
79937SOL     OW41649   2.892   3.659  14.796
79937SOL    HW141650   2.965   3.640  14.737
79937SOL    HW241651   2.825   3.697  14.739
79938SOL     OW41652   3.784   2.364   5.752
79938SOL    HW141653   3.848   2.399   5.690
79938SOL    HW241654   3.836   2.324   5.821
79939SOL     OW41655   6.263  14.412   9.480
79939SOL    HW141656   6.242  14.435   9.570
79939SOL    HW241657   6.223  14.481   9.427
79940SOL     OW41658   5.990   7.792  13.264
79940SOL    HW141659   5.895   7.784  13.269
79940SOL    HW241660   6.006   7.831  13.178
79941SOL     OW41661   5.188   4.670   6.603
79941SOL    HW141662   5.203   4.577   6.624
79941SOL    HW241663   5.270   4.713   6.625
79942SOL     OW41664   2.905  13.167   8.381
79942SOL    HW141665   2.967  13.095   8.381
79942SOL    HW241666   2.954  13.241   8.419
79943SOL     OW41667   6.122   8.587  10.888
79943SOL    HW141668   6.111   8.519  10.821
79943SOL    HW241669   6.043   8.581  10.942
79944SOL     OW41670   3.215  11.069   9.579
79944SOL    HW141671   3.265  11.045   9.657
79944SOL    HW241672   3.280  11.076   9.509
79945SOL     OW41673  11.238   8.183  14.411
79945SOL    HW141674  11.151   8.187  14.372
79945SOL    HW241675  11.297   8.171  14.337
79946SOL     OW41676  13.870   1.551   9.460
79946SOL    HW141677  13.925   1.488   9.415
79946SOL    HW241678  13.832   1.605   9.390
79947SOL     OW41679   1.504   6.629  11.301
79947SOL    HW141680   1.453   6.555  11.333
79947SOL    HW241681   1.475   6.703  11.354
79948SOL     OW41682   4.742   3.998   5.517
79948SOL    HW141683   4.724   3.958   5.432
79948SOL    HW241684   4.775   3.925   5.570
79949SOL     OW41685   1.255   5.633   6.170
79949SOL    HW141686   1.349   5.648   6.159
79949SOL    HW241687   1.242   5.634   6.265
79950SOL     OW41688   9.088   3.638  13.488
79950SOL    HW141689   9.127   3.577  13.550
79950SOL    HW241690   9.061   3.583  13.414
79951SOL     OW41691   6.522   0.415  12.517
79951SOL    HW141692   6.525   0.481  12.586
79951SOL    HW241693   6.485   0.338  12.559
79952SOL     OW41694   6.665   3.146   9.742
79952SOL    HW141695   6.570   3.142   9.757
79952SOL    HW241696   6.700   3.187   9.821
79953SOL     OW41697   0.713   0.256   5.498
79953SOL    HW141698   0.806   0.237   5.486
79953SOL    HW241699   0.704   0.350   5.481
79954SOL     OW41700   4.134  12.713   0.019
79954SOL    HW141701   4.157  12.783  14.830
79954SOL    HW241702   4.216  12.664   0.031
79955SOL     OW41703  11.311   8.450  14.528
79955SOL    HW141704  11.244   8.383  14.539
79955SOL    HW241705  11.262   8.529  14.504
79956SOL     OW41706  14.297   1.278   2.128
79956SOL    HW141707  14.344   1.194   2.126
79956SOL    HW241708  14.206   1.255   2.143
79957SOL     OW41709   1.615  10.415   6.642
79957SOL    HW141710   1.610  10.363   6.561
79957SOL    HW241711   1.527  10.450   6.653
79958SOL     OW41712   9.261  10.023   9.420
79958SOL    HW141713   9.217   9.973   9.352
79958SOL    HW241714   9.339   9.972   9.441
79959SOL     OW41715   4.557  10.361  14.294
79959SOL    HW141716   4.487  10.317  14.342
79959SOL    HW241717   4.535  10.454  14.299
79960SOL     OW41718  11.140   9.638   5.487
79960SOL    HW141719  11.232   9.658   5.468
79960SOL    HW241720  11.139   9.618   5.581
79961SOL     OW41721   2.864   3.579   6.212
79961SOL    HW141722   2.910   3.496   6.202
79961SOL    HW241723   2.867   3.597   6.306
79962SOL     OW41724   5.740   4.467   2.363
79962SOL    HW141725   5.770   4.442   2.276
79962SOL    HW241726   5.794   4.542   2.386
79963SOL     OW41727  10.661  13.669  11.962
79963SOL    HW141728  10.581  13.704  12.002
79963SOL    HW241729  10.648  13.574  11.961
79964SOL     OW41730   8.395   6.897   2.007
79964SOL    HW141731   8.375   6.853   1.924
79964SOL    HW241732   8.484   6.929   1.996
79965SOL     OW41733  11.076   3.898   8.305
79965SOL    HW141734  11.054   3.807   8.287
79965SOL    HW241735  11.129   3.895   8.385
79966SOL     OW41736   4.692   7.037  11.462
79966SOL    HW141737   4.685   7.088  11.543
79966SOL    HW241738   4.604   7.000  11.450
79967SOL     OW41739   8.248   3.144   7.737
79967SOL    HW141740   8.262   3.060   7.694
79967SOL    HW241741   8.272   3.128   7.829
79968SOL     OW41742  12.980  10.019   8.021
79968SOL    HW141743  12.942  10.034   7.934
79968SOL    HW241744  13.050  10.084   8.027
79969SOL     OW41745  10.638   9.844  11.819
79969SOL    HW141746  10.573   9.821  11.753
79969SOL    HW241747  10.603   9.809  11.901
79970SOL     OW41748   9.841   7.448   2.117
79970SOL    HW141749   9.766   7.410   2.073
79970SOL    HW241750   9.880   7.506   2.052
79971SOL     OW41751   5.419  13.573  12.391
79971SOL    HW141752   5.364  13.643  12.427
79971SOL    HW241753   5.508  13.609  12.395
79972SOL     OW41754  12.404  14.869   9.857
79972SOL    HW141755  12.321  14.871   9.905
79972SOL    HW241756  12.388   0.049   9.779
79973SOL     OW41757   9.892   6.825   9.178
79973SOL    HW141758   9.959   6.773   9.135
79973SOL    HW241759   9.880   6.783   9.264
79974SOL     OW41760   8.823   6.249   0.844
79974SOL    HW141761   8.820   6.295   0.760
79974SOL    HW241762   8.741   6.273   0.887
79975SOL     OW41763   0.904  10.951  10.251
79975SOL    HW141764   0.872  10.862  10.267
79975SOL    HW241765   0.937  10.949  10.161
79976SOL     OW41766   7.262   6.432  14.554
79976SOL    HW141767   7.273   6.512  14.605
79976SOL    HW241768   7.182   6.392  14.589
79977SOL     OW41769   7.758  11.826   4.463
79977SOL    HW141770   7.742  11.783   4.547
79977SOL    HW241771   7.790  11.913   4.486
79978SOL     OW41772  12.203  10.199   9.296
79978SOL    HW141773  12.190  10.281   9.248
79978SOL    HW241774  12.130  10.194   9.357
79979SOL     OW41775   8.112   8.139  14.173
79979SOL    HW141776   8.107   8.186  14.256
79979SOL    HW241777   8.030   8.160  14.128
79980SOL     OW41778   3.179   0.635  11.089
79980SOL    HW141779   3.273   0.628  11.069
79980SOL    HW241780   3.151   0.715  11.045
79981SOL     OW41781   4.317   7.508   7.099
79981SOL    HW141782   4.356   7.434   7.146
79981SOL    HW241783   4.360   7.508   7.014
79982SOL     OW41784   6.905   1.202   4.782
79982SOL    HW141785   6.927   1.143   4.710
79982SOL    HW241786   6.810   1.197   4.790
79983SOL     OW41787  10.488   6.365   5.300
79983SOL    HW141788  10.533   6.409   5.228
79983SOL    HW241789  10.517   6.274   5.293
79984SOL     OW41790   6.159   8.193   6.004
79984SOL    HW141791   6.092   8.246   5.962
79984SOL    HW241792   6.214   8.162   5.932
79985SOL     OW41793   6.267   7.599  11.804
79985SOL    HW141794   6.220   7.663  11.857
79985SOL    HW241795   6.198   7.544  11.766
79986SOL     OW41796  10.976  11.125   6.502
79986SOL    HW141797  10.911  11.060   6.474
79986SOL    HW241798  10.956  11.141   6.594
79987SOL     OW41799   6.259   0.730   8.495
79987SOL    HW141800   6.336   0.782   8.521
79987SOL    HW241801   6.274   0.644   8.535
79988SOL     OW41802  11.443   0.487   3.576
79988SOL    HW141803  11.355   0.480   3.540
79988SOL    HW241804  11.430   0.493   3.671
79989SOL     OW41805   9.773   5.607   7.899
79989SOL    HW141806   9.734   5.688   7.933
79989SOL    HW241807   9.826   5.575   7.972
79990SOL     OW41808   7.808  12.153   8.238
79990SOL    HW141809   7.754  12.077   8.263
79990SOL    HW241810   7.895  12.117   8.226
79991SOL     OW41811   6.009  10.692  14.411
79991SOL    HW141812   5.985  10.784  14.401
79991SOL    HW241813   6.052  10.669  14.328
79992SOL     OW41814   4.183   1.125   0.694
79992SOL    HW141815   4.214   1.215   0.689
79992SOL    HW241816   4.130   1.122   0.774
79993SOL     OW41817  13.378   4.735   0.878
79993SOL    HW141818  13.474   4.739   0.869
79993SOL    HW241819  13.356   4.807   0.937
79994SOL     OW41820  11.524   1.755   0.526
79994SOL    HW141821  11.473   1.680   0.495
79994SOL    HW241822  11.500   1.764   0.618
79995SOL     OW41823   3.998   0.160   1.700
79995SOL    HW141824   3.961   0.194   1.782
79995SOL    HW241825   4.073   0.109   1.728
79996SOL     OW41826   6.152   0.375   2.125
79996SOL    HW141827   6.177   0.438   2.057
79996SOL    HW241828   6.222   0.381   2.190
79997SOL     OW41829  13.770   5.181   3.127
79997SOL    HW141830  13.731   5.117   3.187
79997SOL    HW241831  13.837   5.132   3.080
79998SOL     OW41832   2.749   5.875  10.137
79998SOL    HW141833   2.746   5.779  10.129
79998SOL    HW241834   2.746   5.907  10.047
79999SOL     OW41835  12.238   1.467   6.387
79999SOL    HW141836  12.213   1.435   6.300
79999SOL    HW241837  12.216   1.394   6.446
80000SOL     OW41838   3.063   9.594  11.631
80000SOL    HW141839   3.083   9.523  11.692
80000SOL    HW241840   3.091   9.561  11.546
80001SOL     OW41841   3.102  14.095   8.916
80001SOL    HW141842   3.131  14.186   8.914
80001SOL    HW241843   3.182  14.044   8.907
80002SOL     OW41844  11.965  10.096   7.899
80002SOL    HW141845  11.913  10.176   7.889
80002SOL    HW241846  11.945  10.066   7.987
80003SOL     OW41847   1.700   9.171  12.455
80003SOL    HW141848   1.777   9.192  12.509
80003SOL    HW241849   1.669   9.087  12.489
80004SOL     OW41850   1.195   9.746   4.395
80004SOL    HW141851   1.139   9.821   4.415
80004SOL    HW241852   1.190   9.737   4.300
80005SOL     OW41853  12.981   6.619   7.692
80005SOL    HW141854  13.066   6.619   7.649
80005SOL    HW241855  12.940   6.701   7.662
80006SOL     OW41856  14.134  13.861  12.177
80006SOL    HW141857  14.068  13.856  12.108
80006SOL    HW241858  14.170  13.773  12.183
80007SOL     OW41859  14.026   3.250   2.439
80007SOL    HW141860  14.112   3.228   2.475
80007SOL    HW241861  13.988   3.311   2.503
80008SOL     OW41862   0.605  11.777   7.285
80008SOL    HW141863   0.565  11.691   7.280
80008SOL    HW241864   0.622  11.801   7.194
80009SOL     OW41865   5.172   0.668   4.563
80009SOL    HW141866   5.234   0.597   4.546
80009SOL    HW241867   5.190   0.733   4.495
80010SOL     OW41868   2.634   6.459   1.111
80010SOL    HW141869   2.610   6.465   1.018
80010SOL    HW241870   2.622   6.548   1.145
80011SOL     OW41871   4.142   0.072   6.964
80011SOL    HW141872   4.115   0.159   6.935
80011SOL    HW241873   4.182   0.086   7.050
80012SOL     OW41874  14.279   4.242   5.549
80012SOL    HW141875  14.296   4.334   5.572
80012SOL    HW241876  14.300   4.193   5.629
80013SOL     OW41877  11.954   3.269   1.151
80013SOL    HW141878  11.918   3.295   1.066
80013SOL    HW241879  11.925   3.339   1.211
80014SOL     OW41880   5.941  13.786   5.304
80014SOL    HW141881   5.988  13.827   5.231
80014SOL    HW241882   5.903  13.859   5.352
80015SOL     OW41883   3.897   8.854   9.541
80015SOL    HW141884   3.933   8.907   9.470
80015SOL    HW241885   3.856   8.779   9.498
80016SOL     OW41886   3.809  10.595   3.773
80016SOL    HW141887   3.723  10.601   3.731
80016SOL    HW241888   3.793  10.621   3.864
80017SOL     OW41889   9.339   9.981   0.650
80017SOL    HW141890   9.368   9.898   0.613
80017SOL    HW241891   9.413  10.012   0.702
80018SOL     OW41892   5.246  11.021   1.127
80018SOL    HW141893   5.172  11.069   1.090
80018SOL    HW241894   5.317  11.084   1.131
80019SOL     OW41895   4.704   6.554  13.964
80019SOL    HW141896   4.764   6.564  14.037
80019SOL    HW241897   4.747   6.600  13.891
80020SOL     OW41898   5.696   0.640  11.062
80020SOL    HW141899   5.613   0.653  11.107
80020SOL    HW241900   5.673   0.591  10.983
80021SOL     OW41901  10.033   3.061  12.340
80021SOL    HW141902  10.051   2.974  12.375
80021SOL    HW241903   9.979   3.044  12.262
80022SOL     OW41904   1.486   8.232   4.772
80022SOL    HW141905   1.412   8.281   4.736
80022SOL    HW241906   1.466   8.141   4.751
80023SOL     OW41907  12.075   8.422   3.076
80023SOL    HW141908  12.093   8.427   2.982
80023SOL    HW241909  11.981   8.407   3.082
80024SOL     OW41910   0.447  14.131   3.073
80024SOL    HW141911   0.439  14.067   3.003
80024SOL    HW241912   0.490  14.085   3.144
80025SOL     OW41913   1.185   5.473  12.235
80025SOL    HW141914   1.128   5.538  12.275
80025SOL    HW241915   1.125   5.408  12.198
80026SOL     OW41916   1.626   7.569  10.353
80026SOL    HW141917   1.572   7.597  10.279
80026SOL    HW241918   1.563   7.539  10.419
80027SOL     OW41919  12.859  10.954  14.010
80027SOL    HW141920  12.867  10.861  14.031
80027SOL    HW241921  12.864  10.997  14.096
80028SOL     OW41922   8.237   2.646  13.860
80028SOL    HW141923   8.305   2.698  13.817
80028SOL    HW241924   8.275   2.623  13.945
80029SOL     OW41925   7.611   5.341   0.530
80029SOL    HW141926   7.699   5.319   0.501
80029SOL    HW241927   7.569   5.256   0.546
80030SOL     OW41928   8.682   0.962   3.200
80030SOL    HW141929   8.691   0.879   3.248
80030SOL    HW241930   8.764   1.008   3.217
80031SOL     OW41931   8.276   9.777   2.136
80031SOL    HW141932   8.274   9.859   2.186
80031SOL    HW241933   8.249   9.710   2.199
80032SOL     OW41934   1.024  13.695   0.321
80032SOL    HW141935   1.089  13.726   0.384
80032SOL    HW241936   1.072  13.635   0.263
80033SOL     OW41937   8.128   5.876   0.981
80033SOL    HW141938   8.143   5.784   0.959
80033SOL    HW241939   8.119   5.919   0.896
80034SOL     OW41940  13.875  13.210   7.335
80034SOL    HW141941  13.817  13.286   7.335
80034SOL    HW241942  13.829  13.144   7.284
80035SOL     OW41943   9.024   0.708   5.749
80035SOL    HW141944   9.005   0.653   5.825
80035SOL    HW241945   8.997   0.795   5.775
80036SOL     OW41946   2.454   2.425   5.237
80036SOL    HW141947   2.519   2.357   5.222
80036SOL    HW241948   2.370   2.382   5.224
80037SOL     OW41949   7.511  12.327   2.291
80037SOL    HW141950   7.509  12.390   2.219
80037SOL    HW241951   7.601  12.331   2.324
80038SOL     OW41952   7.010  10.258   3.188
80038SOL    HW141953   6.926  10.272   3.232
80038SOL    HW241954   7.050  10.185   3.236
80039SOL     OW41955   2.855  11.486  12.937
80039SOL    HW141956   2.803  11.553  12.894
80039SOL    HW241957   2.918  11.535  12.991
80040SOL     OW41958   3.362  13.968  11.872
80040SOL    HW141959   3.275  13.964  11.831
80040SOL    HW241960   3.350  13.921  11.955
80041SOL     OW41961   2.699   9.709   8.123
80041SOL    HW141962   2.686   9.796   8.084
80041SOL    HW241963   2.787   9.683   8.096
80042SOL     OW41964   5.914  14.091   7.778
80042SOL    HW141965   6.000  14.078   7.739
80042SOL    HW241966   5.860  14.020   7.742
80043SOL     OW41967   3.766   2.798  12.283
80043SOL    HW141968   3.748   2.876  12.336
80043SOL    HW241969   3.705   2.732  12.315
80044SOL     OW41970  14.152   8.694  10.025
80044SOL    HW141971  14.234   8.645  10.032
80044SOL    HW241972  14.134   8.698   9.931
80045SOL     OW41973  11.439   9.130   9.703
80045SOL    HW141974  11.502   9.059   9.713
80045SOL    HW241975  11.359   9.087   9.673
80046SOL     OW41976  12.149   0.581   4.430
80046SOL    HW141977  12.215   0.563   4.364
80046SOL    HW241978  12.073   0.529   4.403
80047SOL     OW41979   8.065  14.057   0.840
80047SOL    HW141980   8.154  14.036   0.813
80047SOL    HW241981   8.012  13.983   0.809
80048SOL     OW41982  11.436   0.576   5.091
80048SOL    HW141983  11.422   0.630   5.014
80048SOL    HW241984  11.531   0.578   5.106
80049SOL     OW41985   2.123  13.294   4.133
80049SOL    HW141986   2.217  13.286   4.147
80049SOL    HW241987   2.108  13.387   4.119
80050SOL     OW41988  12.693   1.254  12.414
80050SOL    HW141989  12.658   1.223  12.331
80050SOL    HW241990  12.718   1.345  12.397
80051SOL     OW41991   7.946   0.799   0.799
80051SOL    HW141992   7.892   0.735   0.844
80051SOL    HW241993   7.973   0.755   0.718
80052SOL     OW41994   9.309   5.562  11.643
80052SOL    HW141995   9.385   5.521  11.602
80052SOL    HW241996   9.297   5.644  11.594
80053SOL     OW41997  10.824   8.244   2.870
80053SOL    HW141998  10.821   8.326   2.819
80053SOL    HW241999  10.733   8.216   2.875
80054SOL     OW42000   7.820  11.668   6.778
80054SOL    HW142001   7.730  11.663   6.810
80054SOL    HW242002   7.871  11.698   6.853
80055SOL     OW42003  14.637  14.065   4.252
80055SOL    HW142004  14.545  14.062   4.226
80055SOL    HW242005  14.672  14.142   4.208
80056SOL     OW42006  11.715  14.010   7.865
80056SOL    HW142007  11.742  14.034   7.777
80056SOL    HW242008  11.624  14.036   7.871
80057SOL     OW42009   1.184  12.475  14.007
80057SOL    HW142010   1.172  12.470  14.102
80057SOL    HW242011   1.177  12.385  13.976
80058SOL     OW42012  13.599  11.364   0.741
80058SOL    HW142013  13.609  11.449   0.698
80058SOL    HW242014  13.663  11.365   0.812
80059SOL     OW42015   1.917   1.110   5.224
80059SOL    HW142016   1.930   1.046   5.154
80059SOL    HW242017   1.832   1.089   5.262
80060SOL     OW42018  13.886   0.032   9.673
80060SOL    HW142019  13.831   0.107   9.651
80060SOL    HW242020  13.963   0.041   9.616
80061SOL     OW42021   6.266   7.284   7.258
80061SOL    HW142022   6.316   7.223   7.313
80061SOL    HW242023   6.205   7.229   7.209
80062SOL     OW42024   0.681   4.788   2.101
80062SOL    HW142025   0.763   4.835   2.090
80062SOL    HW242026   0.649   4.816   2.187
80063SOL     OW42027   5.346   9.284  13.714
80063SOL    HW142028   5.403   9.229  13.660
80063SOL    HW242029   5.293   9.221  13.764
80064SOL     OW42030  13.780  13.720   3.883
80064SOL    HW142031  13.808  13.670   3.960
80064SOL    HW242032  13.726  13.658   3.834
80065SOL     OW42033  13.737  11.598  14.808
80065SOL    HW142034  13.762  11.690  14.808
80065SOL    HW242035  13.776  11.563   0.016
80066SOL     OW42036   7.547  11.611   8.520
80066SOL    HW142037   7.502  11.567   8.592
80066SOL    HW242038   7.476  11.644   8.465
80067SOL     OW42039   6.320   4.479   6.217
80067SOL    HW142040   6.231   4.504   6.192
80067SOL    HW242041   6.372   4.494   6.138
80068SOL     OW42042  11.831   8.789   7.219
80068SOL    HW142043  11.925   8.787   7.234
80068SOL    HW242044  11.813   8.708   7.171
80069SOL     OW42045   8.274   2.648   4.571
80069SOL    HW142046   8.318   2.632   4.655
80069SOL    HW242047   8.283   2.742   4.556
80070SOL     OW42048   4.445  10.496   8.581
80070SOL    HW142049   4.461  10.542   8.499
80070SOL    HW242050   4.360  10.454   8.568
80071SOL     OW42051   1.684   3.282  14.818
80071SOL    HW142052   1.738   3.291  14.739
80071SOL    HW242053   1.639   3.198  14.806
80072SOL     OW42054   0.481   8.996   0.371
80072SOL    HW142055   0.574   8.981   0.358
80072SOL    HW242056   0.464   8.967   0.460
80073SOL     OW42057   3.705   0.922   7.794
80073SOL    HW142058   3.673   0.972   7.869
80073SOL    HW242059   3.758   0.984   7.744
80074SOL     OW42060  10.537   4.629   0.720
80074SOL    HW142061  10.577   4.679   0.648
80074SOL    HW242062  10.583   4.545   0.719
80075SOL     OW42063   3.465   6.598   3.903
80075SOL    HW142064   3.458   6.582   3.997
80075SOL    HW242065   3.537   6.541   3.875
80076SOL     OW42066   6.862   2.306   8.763
80076SOL    HW142067   6.818   2.351   8.690
80076SOL    HW242068   6.830   2.216   8.759
80077SOL     OW42069   8.384  14.543   7.004
80077SOL    HW142070   8.461  14.549   6.947
80077SOL    HW242071   8.390  14.455   7.042
80078SOL     OW42072   7.103   0.500   2.765
80078SOL    HW142073   7.139   0.559   2.831
80078SOL    HW242074   7.019   0.540   2.740
80079SOL     OW42075  11.300  14.795   7.025
80079SOL    HW142076  11.320  14.811   6.933
80079SOL    HW242077  11.214  14.754   7.025
80080SOL     OW42078   6.330   9.948  14.342
80080SOL    HW142079   6.270   9.874  14.333
80080SOL    HW242080   6.376   9.951  14.258
80081SOL     OW42081  14.588   4.661   7.906
80081SOL    HW142082  14.662   4.601   7.910
80081SOL    HW242083  14.511   4.606   7.920
80082SOL     OW42084   4.518   0.866   0.190
80082SOL    HW142085   4.504   0.912   0.107
80082SOL    HW242086   4.432   0.830   0.211
80083SOL     OW42087  11.743   4.799   7.713
80083SOL    HW142088  11.749   4.893   7.725
80083SOL    HW242089  11.797   4.762   7.783
80084SOL     OW42090  12.725   8.154   8.374
80084SOL    HW142091  12.788   8.117   8.436
80084SOL    HW242092  12.665   8.204   8.429
80085SOL     OW42093   8.664  14.321   6.785
80085SOL    HW142094   8.586  14.268   6.770
80085SOL    HW242095   8.713  14.273   6.853
80086SOL     OW42096  14.184   5.909   5.109
80086SOL    HW142097  14.242   5.877   5.040
80086SOL    HW242098  14.235   5.897   5.190
80087SOL     OW42099   6.482   2.721   8.600
80087SOL    HW142100   6.515   2.804   8.564
80087SOL    HW242101   6.533   2.708   8.680
80088SOL     OW42102  12.840  10.169   3.855
80088SOL    HW142103  12.776  10.239   3.869
80088SOL    HW242104  12.924  10.213   3.855
80089SOL     OW42105   7.270   5.595  10.914
80089SOL    HW142106   7.247   5.503  10.908
80089SOL    HW242107   7.290   5.621  10.824
80090SOL     OW42108  13.563   1.934   0.850
80090SOL    HW142109  13.615   2.014   0.841
80090SOL    HW242110  13.477   1.957   0.816
80091SOL     OW42111   2.092   6.521   4.278
80091SOL    HW142112   2.053   6.433   4.283
80091SOL    HW242113   2.131   6.526   4.191
80092SOL     OW42114   9.962   3.519  10.361
80092SOL    HW142115   9.908   3.594  10.388
80092SOL    HW242116  10.052   3.548  10.375
80093SOL     OW42117  10.640   4.924  12.592
80093SOL    HW142118  10.614   4.948  12.503
80093SOL    HW242119  10.570   4.867  12.623
80094SOL     OW42120  14.285  13.992   6.921
80094SOL    HW142121  14.331  14.035   6.994
80094SOL    HW242122  14.355  13.963   6.863
80095SOL     OW42123  11.181   4.436   4.357
80095SOL    HW142124  11.146   4.440   4.446
80095SOL    HW242125  11.113   4.475   4.302
80096SOL     OW42126   5.092  14.452   7.132
80096SOL    HW142127   5.129  14.535   7.102
80096SOL    HW242128   4.998  14.464   7.124
80097SOL     OW42129   3.256   4.360  13.781
80097SOL    HW142130   3.323   4.386  13.718
80097SOL    HW242131   3.179   4.340  13.728
80098SOL     OW42132  14.589  13.844  10.252
80098SOL    HW142133  14.611  13.758  10.288
80098SOL    HW242134  14.647  13.904  10.298
80099SOL     OW42135   3.809  10.256   9.831
80099SOL    HW142136   3.872  10.273   9.762
80099SOL    HW242137   3.748  10.193   9.793
80100SOL     OW42138  12.028  11.578   2.057
80100SOL    HW142139  11.983  11.518   1.999
80100SOL    HW242140  12.119  11.578   2.026
80101SOL     OW42141   6.542   8.406   5.936
80101SOL    HW142142   6.499   8.483   5.973
80101SOL    HW242143   6.614   8.441   5.884
80102SOL     OW42144  11.695   6.193   8.690
80102SOL    HW142145  11.654   6.246   8.758
80102SOL    HW242146  11.678   6.102   8.716
80103SOL     OW42147   4.243   4.479   6.562
80103SOL    HW142148   4.270   4.454   6.650
80103SOL    HW242149   4.210   4.568   6.571
80104SOL     OW42150  14.523  10.762   1.587
80104SOL    HW142151  14.575  10.682   1.585
80104SOL    HW242152  14.560  10.812   1.660
80105SOL     OW42153   0.044  10.407   2.908
80105SOL    HW142154   0.046  10.473   2.977
80105SOL    HW242155  14.824  10.392   2.891
80106SOL     OW42156   9.937  10.359   6.930
80106SOL    HW142157   9.886  10.414   6.990
80106SOL    HW242158  10.005  10.319   6.985
80107SOL     OW42159   1.165  13.142   6.498
80107SOL    HW142160   1.242  13.090   6.520
80107SOL    HW242161   1.091  13.092   6.531
80108SOL     OW42162  10.966  13.105   6.937
80108SOL    HW142163  10.939  13.070   6.852
80108SOL    HW242164  10.891  13.155   6.968
80109SOL     OW42165   9.336  10.790  11.783
80109SOL    HW142166   9.362  10.880  11.800
80109SOL    HW242167   9.263  10.774  11.843
80110SOL     OW42168   2.648   4.882   0.556
80110SOL    HW142169   2.561   4.901   0.592
80110SOL    HW242170   2.702   4.957   0.583
80111SOL     OW42171  14.137   0.846   0.776
80111SOL    HW142172  14.045   0.865   0.797
80111SOL    HW242173  14.165   0.919   0.722
80112SOL     OW42174   8.499   3.055   4.060
80112SOL    HW142175   8.538   3.015   3.982
80112SOL    HW242176   8.423   3.103   4.026
80113SOL     OW42177   8.275   4.614   8.798
80113SOL    HW142178   8.351   4.670   8.786
80113SOL    HW242179   8.207   4.653   8.744
80114SOL     OW42180   7.959   2.472   6.418
80114SOL    HW142181   7.951   2.404   6.351
80114SOL    HW242182   7.927   2.431   6.498
80115SOL     OW42183  12.691   0.725  14.263
80115SOL    HW142184  12.719   0.754  14.177
80115SOL    HW242185  12.731   0.638  14.274
80116SOL     OW42186   0.568   4.359   7.984
80116SOL    HW142187   0.554   4.427   8.050
80116SOL    HW242188   0.663   4.346   7.983
80117SOL     OW42189   2.501   5.794   9.457
80117SOL    HW142190   2.453   5.733   9.401
80117SOL    HW242191   2.449   5.798   9.537
80118SOL     OW42192  13.340  12.041  11.218
80118SOL    HW142193  13.421  12.029  11.168
80118SOL    HW242194  13.370  12.054  11.308
80119SOL     OW42195   0.724  12.110   3.822
80119SOL    HW142196   0.798  12.168   3.841
80119SOL    HW242197   0.753  12.024   3.854
80120SOL     OW42198  11.053  10.872  11.188
80120SOL    HW142199  11.074  10.957  11.148
80120SOL    HW242200  11.114  10.811  11.148
80121SOL     OW42201  14.216   5.828  13.643
80121SOL    HW142202  14.265   5.754  13.681
80121SOL    HW242203  14.273   5.904  13.657
80122SOL     OW42204  10.531  11.733   7.600
80122SOL    HW142205  10.598  11.736   7.669
80122SOL    HW242206  10.450  11.759   7.644
80123SOL     OW42207   9.508   3.389  13.841
80123SOL    HW142208   9.454   3.464  13.814
80123SOL    HW242209   9.461   3.352  13.916
80124SOL     OW42210  11.175  11.103  11.102
80124SOL    HW142211  11.165  11.142  11.015
80124SOL    HW242212  11.257  11.054  11.097
80125SOL     OW42213   8.210  10.897  10.741
80125SOL    HW142214   8.182  10.972  10.793
80125SOL    HW242215   8.130  10.845  10.728
80126SOL     OW42216  11.703  11.962   5.858
80126SOL    HW142217  11.681  11.872   5.880
80126SOL    HW242218  11.621  12.001   5.829
80127SOL     OW42219  11.630  13.371   0.767
80127SOL    HW142220  11.595  13.292   0.725
80127SOL    HW242221  11.554  13.427   0.782
80128SOL     OW42222   0.021   0.053   9.868
80128SOL    HW142223   0.083   0.091   9.805
80128SOL    HW242224   0.075  14.873   9.926
80129SOL     OW42225   9.280   8.810  12.330
80129SOL    HW142226   9.307   8.896  12.297
80129SOL    HW242227   9.243   8.829  12.417
80130SOL     OW42228   1.361  13.740   5.131
80130SOL    HW142229   1.360  13.738   5.227
80130SOL    HW242230   1.352  13.833   5.109
80131SOL     OW42231   2.423   0.453   3.332
80131SOL    HW142232   2.395   0.362   3.325
80131SOL    HW242233   2.478   0.468   3.256
80132SOL     OW42234   3.881   1.745  13.581
80132SOL    HW142235   3.924   1.756  13.666
80132SOL    HW242236   3.884   1.832  13.541
80133SOL     OW42237  11.738  13.945   4.143
80133SOL    HW142238  11.801  14.016   4.152
80133SOL    HW242239  11.792  13.866   4.142
80134SOL     OW42240   1.719   2.646   4.032
80134SOL    HW142241   1.688   2.556   4.044
80134SOL    HW242242   1.646   2.691   3.990
80135SOL     OW42243   2.549   6.491  10.155
80135SOL    HW142244   2.587   6.463  10.072
80135SOL    HW242245   2.462   6.451  10.156
80136SOL     OW42246   7.423   2.085  14.666
80136SOL    HW142247   7.414   2.045  14.580
80136SOL    HW242248   7.512   2.121  14.666
80137SOL     OW42249   9.577  14.152   3.989
80137SOL    HW142250   9.516  14.138   3.917
80137SOL    HW242251   9.547  14.092   4.057
80138SOL     OW42252   7.388  12.335  13.835
80138SOL    HW142253   7.383  12.278  13.758
80138SOL    HW242254   7.386  12.424  13.799
80139SOL     OW42255   2.893  11.671  12.484
80139SOL    HW142256   2.925  11.634  12.402
80139SOL    HW242257   2.876  11.596  12.540
80140SOL     OW42258   8.135   0.893   7.928
80140SOL    HW142259   8.140   0.811   7.978
80140SOL    HW242260   8.120   0.961   7.994
80141SOL     OW42261   9.800   3.295  14.749
80141SOL    HW142262   9.731   3.322  14.689
80141SOL    HW242263   9.842   3.221  14.705
80142SOL     OW42264  10.228  12.186   4.810
80142SOL    HW142265  10.217  12.195   4.904
80142SOL    HW242266  10.145  12.149   4.779
80143SOL     OW42267   3.978   9.706   2.909
80143SOL    HW142268   4.003   9.657   2.830
80143SOL    HW242269   4.000   9.648   2.981
80144SOL     OW42270  11.779   6.105   3.730
80144SOL    HW142271  11.858   6.126   3.780
80144SOL    HW242272  11.712   6.088   3.796
80145SOL     OW42273  14.421  12.645  12.189
80145SOL    HW142274  14.473  12.700  12.247
80145SOL    HW242275  14.466  12.561  12.188
80146SOL     OW42276   4.067   5.871  12.815
80146SOL    HW142277   4.052   5.959  12.850
80146SOL    HW242278   4.010   5.814  12.866
80147SOL     OW42279  11.990   8.802   4.851
80147SOL    HW142280  12.081   8.774   4.864
80147SOL    HW242281  11.938   8.723   4.867
80148SOL     OW42282   8.066   2.696  12.114
80148SOL    HW142283   8.061   2.607  12.150
80148SOL    HW242284   7.990   2.741  12.151
80149SOL     OW42285  13.863   0.381   6.491
80149SOL    HW142286  13.906   0.399   6.575
80149SOL    HW242287  13.917   0.312   6.451
80150SOL     OW42288   6.312   9.392   5.588
80150SOL    HW142289   6.312   9.342   5.507
80150SOL    HW242290   6.252   9.345   5.646
80151SOL     OW42291   0.533   5.875  13.571
80151SOL    HW142292   0.562   5.784  13.569
80151SOL    HW242293   0.561   5.911  13.487
80152SOL     OW42294   7.890   8.831   7.325
80152SOL    HW142295   7.875   8.920   7.292
80152SOL    HW242296   7.809   8.784   7.305
80153SOL     OW42297  13.908   2.946   6.686
80153SOL    HW142298  13.880   2.856   6.667
80153SOL    HW242299  13.859   2.970   6.764
80154SOL     OW42300  11.542   6.627   8.942
80154SOL    HW142301  11.472   6.577   8.986
80154SOL    HW242302  11.496   6.686   8.883
80155SOL     OW42303  10.280   1.226   7.450
80155SOL    HW142304  10.319   1.312   7.435
80155SOL    HW242305  10.211   1.219   7.385
80156SOL     OW42306   0.456  13.898   7.224
80156SOL    HW142307   0.472  13.964   7.293
80156SOL    HW242308   0.520  13.918   7.156
80157SOL     OW42309   1.156   0.280   6.981
80157SOL    HW142310   1.219   0.306   6.914
80157SOL    HW242311   1.071   0.282   6.936
80158SOL     OW42312  14.126  13.727   5.784
80158SOL    HW142313  14.067  13.662   5.746
80158SOL    HW242314  14.211  13.683   5.787
80159SOL     OW42315   4.644   2.177   6.459
80159SOL    HW142316   4.732   2.148   6.482
80159SOL    HW242317   4.588   2.140   6.527
80160SOL     OW42318  12.579   2.818   9.667
80160SOL    HW142319  12.486   2.836   9.679
80160SOL    HW242320  12.610   2.889   9.609
80161SOL     OW42321   8.550   5.077  14.775
80161SOL    HW142322   8.604   5.122  14.840
80161SOL    HW242323   8.468   5.127  14.773
80162SOL     OW42324   9.788   3.284   3.961
80162SOL    HW142325   9.761   3.355   3.902
80162SOL    HW242326   9.880   3.270   3.940
80163SOL     OW42327   7.981   8.288   9.799
80163SOL    HW142328   7.978   8.303   9.894
80163SOL    HW242329   8.074   8.296   9.777
80164SOL     OW42330   2.880   7.617  12.887
80164SOL    HW142331   2.884   7.524  12.863
80164SOL    HW242332   2.971   7.646  12.881
80165SOL     OW42333   1.228  12.101  11.479
80165SOL    HW142334   1.272  12.147  11.408
80165SOL    HW242335   1.173  12.036  11.436
80166SOL     OW42336  12.220   9.564  10.894
80166SOL    HW142337  12.248   9.614  10.970
80166SOL    HW242338  12.142   9.517  10.923
80167SOL     OW42339  13.769   1.914  14.513
80167SOL    HW142340  13.684   1.892  14.551
80167SOL    HW242341  13.797   1.993  14.560
80168SOL     OW42342   6.736   3.149  12.531
80168SOL    HW142343   6.780   3.103  12.460
80168SOL    HW242344   6.805   3.163  12.596
80169SOL     OW42345   9.798   5.525  13.531
80169SOL    HW142346   9.832   5.525  13.441
80169SOL    HW242347   9.828   5.608  13.568
80170SOL     OW42348   8.220  10.795   4.141
80170SOL    HW142349   8.164  10.870   4.122
80170SOL    HW242350   8.303  10.815   4.098
80171SOL     OW42351   5.210   9.192   4.338
80171SOL    HW142352   5.194   9.219   4.428
80171SOL    HW242353   5.229   9.098   4.344
80172SOL     OW42354   2.206  10.226  13.731
80172SOL    HW142355   2.301  10.217  13.741
80172SOL    HW242356   2.183  10.301  13.786
80173SOL     OW42357   7.711  13.752  10.651
80173SOL    HW142358   7.637  13.775  10.707
80173SOL    HW242359   7.787  13.792  10.693
80174SOL     OW42360   5.662   6.181   1.146
80174SOL    HW142361   5.607   6.109   1.177
80174SOL    HW242362   5.752   6.147   1.151
80175SOL     OW42363   8.972  13.095  14.361
80175SOL    HW142364   8.964  13.128  14.272
80175SOL    HW242365   9.066  13.103  14.381
80176SOL     OW42366  14.093   3.112   9.381
80176SOL    HW142367  14.188   3.107   9.391
80176SOL    HW242368  14.080   3.153   9.296
80177SOL     OW42369   5.432   3.949  12.942
80177SOL    HW142370   5.517   3.905  12.936
80177SOL    HW242371   5.454   4.041  12.953
80178SOL     OW42372  12.607   1.863   9.311
80178SOL    HW142373  12.675   1.842   9.247
80178SOL    HW242374  12.602   1.959   9.310
80179SOL     OW42375   9.457   4.304  10.666
80179SOL    HW142376   9.477   4.288  10.574
80179SOL    HW242377   9.383   4.364  10.665
80180SOL     OW42378   5.837   2.826  12.161
80180SOL    HW142379   5.859   2.748  12.111
80180SOL    HW242380   5.766   2.866  12.111
80181SOL     OW42381   9.821   0.663   6.029
80181SOL    HW142382   9.784   0.733   6.082
80181SOL    HW242383   9.882   0.618   6.088
80182SOL     OW42384  13.913   9.815   6.263
80182SOL    HW142385  13.911   9.883   6.330
80182SOL    HW242386  13.848   9.842   6.199
80183SOL     OW42387   7.932   7.464  11.140
80183SOL    HW142388   7.912   7.504  11.055
80183SOL    HW242389   7.937   7.538  11.200
80184SOL     OW42390   0.423   3.479   5.043
80184SOL    HW142391   0.493   3.535   5.076
80184SOL    HW242392   0.367   3.538   4.992
80185SOL     OW42393   3.758  11.004   2.167
80185SOL    HW142394   3.746  11.029   2.258
80185SOL    HW242395   3.670  10.988   2.134
80186SOL     OW42396  13.450   7.884   7.954
80186SOL    HW142397  13.382   7.831   7.912
80186SOL    HW242398  13.518   7.892   7.888
80187SOL     OW42399   7.077  14.590   7.990
80187SOL    HW142400   7.003  14.556   8.040
80187SOL    HW242401   7.152  14.581   8.049
80188SOL     OW42402  10.769  12.601   1.828
80188SOL    HW142403  10.798  12.661   1.896
80188SOL    HW242404  10.674  12.612   1.825
80189SOL     OW42405  14.820   0.188   1.790
80189SOL    HW142406  14.744   0.159   1.740
80189SOL    HW242407   0.004   0.231   1.726
80190SOL     OW42408  12.373  11.556   5.107
80190SOL    HW142409  12.464  11.566   5.134
80190SOL    HW242410  12.374  11.484   5.043
80191SOL     OW42411   2.077  12.241  12.651
80191SOL    HW142412   2.112  12.316  12.602
80191SOL    HW242413   2.027  12.191  12.587
80192SOL     OW42414   8.767   0.009   4.206
80192SOL    HW142415   8.793   0.025   4.115
80192SOL    HW242416   8.680   0.049   4.213
80193SOL     OW42417   5.461   8.027  11.792
80193SOL    HW142418   5.454   8.040  11.698
80193SOL    HW242419   5.418   7.943  11.808
80194SOL     OW42420  13.361   1.055   7.961
80194SOL    HW142421  13.322   1.132   7.919
80194SOL    HW242422  13.379   0.996   7.888
80195SOL     OW42423   0.330   9.882   8.045
80195SOL    HW142424   0.278   9.825   8.103
80195SOL    HW242425   0.380   9.821   7.991
80196SOL     OW42426   3.703   2.202   1.681
80196SOL    HW142427   3.650   2.128   1.648
80196SOL    HW242428   3.720   2.180   1.772
80197SOL     OW42429   7.161   3.061   8.949
80197SOL    HW142430   7.085   3.093   8.998
80197SOL    HW242431   7.211   3.140   8.929
80198SOL     OW42432   2.769   3.082  13.793
80198SOL    HW142433   2.698   3.116  13.738
80198SOL    HW242434   2.776   3.145  13.865
80199SOL     OW42435   4.525   7.834   8.820
80199SOL    HW142436   4.527   7.911   8.876
80199SOL    HW242437   4.531   7.760   8.881
80200SOL     OW42438   2.443  10.217  12.791
80200SOL    HW142439   2.536  10.235  12.778
80200SOL    HW242440   2.442  10.146  12.855
80201SOL     OW42441  14.015  11.057  11.617
80201SOL    HW142442  13.935  11.005  11.616
80201SOL    HW242443  13.985  11.147  11.630
80202SOL     OW42444   4.219   1.022   8.498
80202SOL    HW142445   4.143   1.004   8.443
80202SOL    HW242446   4.292   0.982   8.451
80203SOL     OW42447   9.453  11.075  13.007
80203SOL    HW142448   9.533  11.109  13.046
80203SOL    HW242449   9.400  11.047  13.082
80204SOL     OW42450   4.585  12.037   5.312
80204SOL    HW142451   4.575  12.084   5.395
80204SOL    HW242452   4.670  11.994   5.319
80205SOL     OW42453   4.854   5.424   6.831
80205SOL    HW142454   4.777   5.379   6.867
80205SOL    HW242455   4.907   5.353   6.794
80206SOL     OW42456   0.725   4.994   7.042
80206SOL    HW142457   0.761   4.922   6.990
80206SOL    HW242458   0.693   5.056   6.977
80207SOL     OW42459  11.031  13.333   7.221
80207SOL    HW142460  11.106  13.326   7.280
80207SOL    HW242461  10.987  13.248   7.227
80208SOL     OW42462  11.219  11.467  12.041
80208SOL    HW142463  11.200  11.463  12.134
80208SOL    HW242464  11.242  11.559  12.025
80209SOL     OW42465  11.275   7.331   5.123
80209SOL    HW142466  11.366   7.361   5.113
80209SOL    HW242467  11.224   7.412   5.119
80210SOL     OW42468  14.291   1.552  11.457
80210SOL    HW142469  14.286   1.554  11.553
80210SOL    HW242470  14.369   1.603  11.436
80211SOL     OW42471  11.311   1.660  14.750
80211SOL    HW142472  11.270   1.704  14.675
80211SOL    HW242473  11.377   1.603  14.711
80212SOL     OW42474  13.670  10.566   2.522
80212SOL    HW142475  13.628  10.650   2.503
80212SOL    HW242476  13.610  10.521   2.581
80213SOL     OW42477   1.559  11.648  11.896
80213SOL    HW142478   1.564  11.666  11.803
80213SOL    HW242479   1.469  11.620  11.911
80214SOL     OW42480  11.504   6.003   3.751
80214SOL    HW142481  11.445   5.995   3.825
80214SOL    HW242482  11.491   6.092   3.719
80215SOL     OW42483   2.377   1.539  11.372
80215SOL    HW142484   2.339   1.468  11.320
80215SOL    HW242485   2.415   1.599  11.308
80216SOL     OW42486   7.696   0.431  13.144
80216SOL    HW142487   7.632   0.392  13.203
80216SOL    HW242488   7.716   0.362  13.081
80217SOL     OW42489   7.207  11.506  10.799
80217SOL    HW142490   7.228  11.555  10.719
80217SOL    HW242491   7.203  11.415  10.771
80218SOL     OW42492  14.768  14.643   6.773
80218SOL    HW142493  14.786  14.706   6.843
80218SOL    HW242494  14.817  14.677   6.697
80219SOL     OW42495  10.248   5.350   8.546
80219SOL    HW142496  10.235   5.370   8.639
80219SOL    HW242497  10.253   5.254   8.542
80220SOL     OW42498   5.012   3.544   8.917
80220SOL    HW142499   4.998   3.496   8.836
80220SOL    HW242500   5.036   3.632   8.889
80221SOL     OW42501   2.321  11.290   7.223
80221SOL    HW142502   2.405  11.334   7.209
80221SOL    HW242503   2.311  11.233   7.147
80222SOL     OW42504  13.671   0.257   2.051
80222SOL    HW142505  13.686   0.169   2.018
80222SOL    HW242506  13.724   0.313   1.995
80223SOL     OW42507  10.252   5.406   4.444
80223SOL    HW142508  10.165   5.410   4.484
80223SOL    HW242509  10.247   5.462   4.367
80224SOL     OW42510   0.848   7.429   6.864
80224SOL    HW142511   0.919   7.440   6.801
80224SOL    HW242512   0.885   7.461   6.947
80225SOL     OW42513   1.010   7.306  11.336
80225SOL    HW142514   1.080   7.301  11.270
80225SOL    HW242515   1.053   7.339  11.414
80226SOL     OW42516   7.655   9.638   1.909
80226SOL    HW142517   7.696   9.720   1.935
80226SOL    HW242518   7.718   9.570   1.934
80227SOL     OW42519   7.520   9.116   8.618
80227SOL    HW142520   7.507   9.153   8.705
80227SOL    HW242521   7.511   9.021   8.631
80228SOL     OW42522   3.688   3.089  14.344
80228SOL    HW142523   3.626   3.093  14.271
80228SOL    HW242524   3.668   3.166  14.397
80229SOL     OW42525   1.469   5.203   4.826
80229SOL    HW142526   1.536   5.227   4.761
80229SOL    HW242527   1.390   5.186   4.774
80230SOL     OW42528   5.196  10.533   8.248
80230SOL    HW142529   5.218  10.592   8.320
80230SOL    HW242530   5.192  10.589   8.171
80231SOL     OW42531   6.786   0.718   6.385
80231SOL    HW142532   6.800   0.625   6.401
80231SOL    HW242533   6.699   0.736   6.420
80232SOL     OW42534   3.497   1.572  13.633
80232SOL    HW142535   3.592   1.576  13.620
80232SOL    HW242536   3.460   1.588  13.546
80233SOL     OW42537  10.974   7.812   8.834
80233SOL    HW142538  11.067   7.834   8.829
80233SOL    HW242539  10.935   7.887   8.881
80234SOL     OW42540   7.384   3.953  12.711
80234SOL    HW142541   7.376   3.941  12.806
80234SOL    HW242542   7.394   3.864  12.677
80235SOL     OW42543   3.769   5.884  14.192
80235SOL    HW142544   3.775   5.962  14.247
80235SOL    HW242545   3.703   5.906  14.126
80236SOL     OW42546   9.152   0.064   9.654
80236SOL    HW142547   9.215  14.870   9.679
80236SOL    HW242548   9.096   0.021   9.589
80237SOL     OW42549  10.401   0.511   6.137
80237SOL    HW142550  10.324   0.549   6.096
80237SOL    HW242551  10.462   0.494   6.065
80238SOL     OW42552   0.481  14.277   9.774
80238SOL    HW142553   0.416  14.212   9.802
80238SOL    HW242554   0.546  14.277   9.844
80239SOL     OW42555   4.676   1.793   3.187
80239SOL    HW142556   4.645   1.849   3.258
80239SOL    HW242557   4.748   1.842   3.147
80240SOL     OW42558   2.385  12.037   3.568
80240SOL    HW142559   2.346  11.994   3.492
80240SOL    HW242560   2.419  11.965   3.622
80241SOL     OW42561  14.113   0.876   9.674
80241SOL    HW142562  14.099   0.803   9.613
80241SOL    HW242563  14.069   0.950   9.634
80242SOL     OW42564  14.522   4.476   7.690
80242SOL    HW142565  14.436   4.514   7.710
80242SOL    HW242566  14.535   4.409   7.756
80243SOL     OW42567   0.214   0.190  10.760
80243SOL    HW142568   0.272   0.156  10.828
80243SOL    HW242569   0.271   0.243  10.704
80244SOL     OW42570  13.421   1.547  10.645
80244SOL    HW142571  13.471   1.628  10.658
80244SOL    HW242572  13.360   1.546  10.719
80245SOL     OW42573   1.979   1.470  13.633
80245SOL    HW142574   2.073   1.474  13.615
80245SOL    HW242575   1.968   1.523  13.713
80246SOL     OW42576   3.772  12.859   1.452
80246SOL    HW142577   3.837  12.897   1.511
80246SOL    HW242578   3.816  12.783   1.413
80247SOL     OW42579  11.593   5.175   4.146
80247SOL    HW142580  11.594   5.248   4.085
80247SOL    HW242581  11.550   5.104   4.098
80248SOL     OW42582  14.656   7.638  12.472
80248SOL    HW142583  14.597   7.706  12.505
80248SOL    HW242584  14.649   7.567  12.536
80249SOL     OW42585   3.024   1.645  12.780
80249SOL    HW142586   3.051   1.736  12.797
80249SOL    HW242587   3.036   1.634  12.685
80250SOL     OW42588  12.304   7.978   1.837
80250SOL    HW142589  12.337   7.893   1.866
80250SOL    HW242590  12.231   7.997   1.895
80251SOL     OW42591   1.800   6.923  12.963
80251SOL    HW142592   1.849   6.894  12.886
80251SOL    HW242593   1.713   6.884  12.953
80252SOL     OW42594  14.520   7.239  11.228
80252SOL    HW142595  14.586   7.264  11.163
80252SOL    HW242596  14.557   7.161  11.270
80253SOL     OW42597   5.088  14.772   2.590
80253SOL    HW142598   5.151  14.741   2.525
80253SOL    HW242599   5.005  14.777   2.542
80254SOL     OW42600  12.004   0.200   0.709
80254SOL    HW142601  11.935   0.265   0.724
80254SOL    HW242602  12.076   0.228   0.765
80255SOL     OW42603  14.310   3.506   4.856
80255SOL    HW142604  14.270   3.511   4.943
80255SOL    HW242605  14.371   3.579   4.853
80256SOL     OW42606  12.597  10.602   4.616
80256SOL    HW142607  12.596  10.512   4.583
80256SOL    HW242608  12.617  10.655   4.539
80257SOL     OW42609   9.055   1.347   8.276
80257SOL    HW142610   9.111   1.409   8.229
80257SOL    HW242611   9.031   1.282   8.209
80258SOL     OW42612   6.853   5.862  13.591
80258SOL    HW142613   6.849   5.957  13.606
80258SOL    HW242614   6.908   5.852  13.513
80259SOL     OW42615  11.961   5.935   8.190
80259SOL    HW142616  11.932   5.892   8.109
80259SOL    HW242617  11.892   5.998   8.210
80260SOL     OW42618   5.289   9.096   7.347
80260SOL    HW142619   5.280   9.031   7.277
80260SOL    HW242620   5.238   9.170   7.317
80261SOL     OW42621  10.682   1.467   0.266
80261SOL    HW142622  10.622   1.541   0.279
80261SOL    HW242623  10.637   1.392   0.305
80262SOL     OW42624  13.266  12.784   8.468
80262SOL    HW142625  13.218  12.726   8.408
80262SOL    HW242626  13.241  12.754   8.555
80263SOL     OW42627  11.889  11.476   9.119
80263SOL    HW142628  11.894  11.425   9.038
80263SOL    HW242629  11.971  11.525   9.122
80264SOL     OW42630   9.617  10.103   3.710
80264SOL    HW142631   9.631  10.158   3.632
80264SOL    HW242632   9.523  10.110   3.727
80265SOL     OW42633   1.416   6.729  11.697
80265SOL    HW142634   1.472   6.654  11.679
80265SOL    HW242635   1.353   6.697  11.762
80266SOL     OW42636   2.651   7.297   7.042
80266SOL    HW142637   2.671   7.326   7.131
80266SOL    HW242638   2.696   7.213   7.034
80267SOL     OW42639  14.268   5.363   6.058
80267SOL    HW142640  14.355   5.323   6.055
80267SOL    HW242641  14.274   5.430   6.126
80268SOL     OW42642  12.589   6.649   0.037
80268SOL    HW142643  12.627   6.611   0.117
80268SOL    HW242644  12.565   6.738   0.062
80269SOL     OW42645  14.020  10.518  14.457
80269SOL    HW142646  13.976  10.571  14.523
80269SOL    HW242647  14.099  10.485  14.500
80270SOL     OW42648   4.410  14.417   6.213
80270SOL    HW142649   4.475  14.372   6.160
80270SOL    HW242650   4.410  14.371   6.297
80271SOL     OW42651  11.223  13.103  14.205
80271SOL    HW142652  11.170  13.065  14.136
80271SOL    HW242653  11.247  13.190  14.172
80272SOL     OW42654  11.427   1.991  10.420
80272SOL    HW142655  11.350   1.972  10.367
80272SOL    HW242656  11.494   1.931  10.387
80273SOL     OW42657   4.336  10.677   6.265
80273SOL    HW142658   4.430  10.662   6.268
80273SOL    HW242659   4.297  10.591   6.283
80274SOL     OW42660   3.095   8.881  14.002
80274SOL    HW142661   3.045   8.800  13.993
80274SOL    HW242662   3.056   8.926  14.076
80275SOL     OW42663   1.642   7.279   6.885
80275SOL    HW142664   1.616   7.234   6.804
80275SOL    HW242665   1.559   7.310   6.922
80276SOL     OW42666   9.721   9.230   1.996
80276SOL    HW142667   9.778   9.278   2.057
80276SOL    HW242668   9.646   9.288   1.983
80277SOL     OW42669  11.002   9.713   0.662
80277SOL    HW142670  10.922   9.747   0.623
80277SOL    HW242671  11.069   9.778   0.641
80278SOL     OW42672   5.615  14.489   2.946
80278SOL    HW142673   5.624  14.528   3.033
80278SOL    HW242674   5.567  14.407   2.961
80279SOL     OW42675   9.161  10.108   7.037
80279SOL    HW142676   9.232  10.115   6.973
80279SOL    HW242677   9.140  10.199   7.058
80280SOL     OW42678   1.675   5.707  13.367
80280SOL    HW142679   1.619   5.700  13.290
80280SOL    HW242680   1.763   5.688  13.334
80281SOL     OW42681  10.483   9.716   9.892
80281SOL    HW142682  10.443   9.775   9.956
80281SOL    HW242683  10.409   9.677   9.846
80282SOL     OW42684   5.474  13.989  13.088
80282SOL    HW142685   5.479  13.972  12.994
80282SOL    HW242686   5.463  14.083  13.095
80283SOL     OW42687  11.571  10.927  10.191
80283SOL    HW142688  11.539  10.933  10.101
80283SOL    HW242689  11.661  10.959  10.187
80284SOL     OW42690   8.414  10.839   2.905
80284SOL    HW142691   8.482  10.863   2.968
80284SOL    HW242692   8.389  10.750   2.929
80285SOL     OW42693  13.899  14.620  11.306
80285SOL    HW142694  13.878  14.705  11.345
80285SOL    HW242695  13.888  14.558  11.377
80286SOL     OW42696  10.420   5.111   3.003
80286SOL    HW142697  10.453   5.023   3.020
80286SOL    HW242698  10.379   5.105   2.917
80287SOL     OW42699   3.369  10.730  11.626
80287SOL    HW142700   3.396  10.639  11.622
80287SOL    HW242701   3.275  10.726  11.646
80288SOL     OW42702  14.697   3.100  10.356
80288SOL    HW142703  14.761   3.030  10.371
80288SOL    HW242704  14.731   3.174  10.407
80289SOL     OW42705   0.481  11.714  13.007
80289SOL    HW142706   0.405  11.748  13.056
80289SOL    HW242707   0.503  11.632  13.052
80290SOL     OW42708   4.093  14.017  11.884
80290SOL    HW142709   4.132  13.948  11.937
80290SOL    HW242710   4.164  14.080  11.870
80291SOL     OW42711  12.002   1.223   2.584
80291SOL    HW142712  12.087   1.197   2.622
80291SOL    HW242713  11.978   1.302   2.631
80292SOL     OW42714   3.545   2.804   8.731
80292SOL    HW142715   3.514   2.805   8.821
80292SOL    HW242716   3.541   2.712   8.704
80293SOL     OW42717  14.835   7.327   8.533
80293SOL    HW142718  14.838   7.404   8.476
80293SOL    HW242719  14.758   7.278   8.504
80294SOL     OW42720   9.565   0.441  13.553
80294SOL    HW142721   9.511   0.504  13.600
80294SOL    HW242722   9.639   0.424  13.612
80295SOL     OW42723   2.961  14.561   8.027
80295SOL    HW142724   3.018  14.566   7.950
80295SOL    HW242725   2.873  14.550   7.990
80296SOL     OW42726   0.572   7.333  10.555
80296SOL    HW142727   0.553   7.326  10.461
80296SOL    HW242728   0.631   7.408  10.562
80297SOL     OW42729   1.251   3.230   9.243
80297SOL    HW142730   1.174   3.187   9.207
80297SOL    HW242731   1.217   3.303   9.294
80298SOL     OW42732   9.646  11.089  12.122
80298SOL    HW142733   9.632  11.183  12.114
80298SOL    HW242734   9.560  11.054  12.147
80299SOL     OW42735  10.741  13.111   5.206
80299SOL    HW142736  10.750  13.030   5.256
80299SOL    HW242737  10.704  13.085   5.122
80300SOL     OW42738  14.231   5.269   1.951
80300SOL    HW142739  14.218   5.202   2.018
80300SOL    HW242740  14.326   5.279   1.946
80301SOL     OW42741  12.146  12.525   9.238
80301SOL    HW142742  12.191  12.444   9.214
80301SOL    HW242743  12.183  12.592   9.181
80302SOL     OW42744   3.265   5.202  11.421
80302SOL    HW142745   3.313   5.119  11.415
80302SOL    HW242746   3.289   5.249  11.341
80303SOL     OW42747  12.859  10.063   4.822
80303SOL    HW142748  12.948  10.044   4.849
80303SOL    HW242749  12.842  10.152   4.854
80304SOL     OW42750  14.658  13.448   7.037
80304SOL    HW142751  14.693  13.486   7.118
80304SOL    HW242752  14.589  13.509   7.011
80305SOL     OW42753   5.717  11.274  12.218
80305SOL    HW142754   5.713  11.178  12.223
80305SOL    HW242755   5.640  11.303  12.268
80306SOL     OW42756   3.617  12.110  12.463
80306SOL    HW142757   3.668  12.074  12.391
80306SOL    HW242758   3.525  12.098  12.436
80307SOL     OW42759   4.649   1.053  11.166
80307SOL    HW142760   4.650   0.973  11.218
80307SOL    HW242761   4.599   1.030  11.087
80308SOL     OW42762   1.511   9.537   1.480
80308SOL    HW142763   1.493   9.597   1.553
80308SOL    HW242764   1.537   9.594   1.408
80309SOL     OW42765   9.702   8.406   0.851
80309SOL    HW142766   9.705   8.339   0.920
80309SOL    HW242767   9.609   8.425   0.841
80310SOL     OW42768   0.959  14.625   3.413
80310SOL    HW142769   0.903  14.563   3.367
80310SOL    HW242770   0.930  14.711   3.382
80311SOL     OW42771   6.355  11.148   6.493
80311SOL    HW142772   6.392  11.081   6.436
80311SOL    HW242773   6.288  11.103   6.543
80312SOL     OW42774   0.498   7.287   1.442
80312SOL    HW142775   0.591   7.270   1.424
80312SOL    HW242776   0.452   7.222   1.389
80313SOL     OW42777  12.098   6.269   9.105
80313SOL    HW142778  12.133   6.185   9.074
80313SOL    HW242779  12.120   6.272   9.198
80314SOL     OW42780   7.624   3.057  13.104
80314SOL    HW142781   7.529   3.047  13.116
80314SOL    HW242782   7.637   3.150  13.090
80315SOL     OW42783   1.348   6.170   2.198
80315SOL    HW142784   1.265   6.218   2.198
80315SOL    HW242785   1.322   6.078   2.203
80316SOL     OW42786   5.915   5.602   9.976
80316SOL    HW142787   5.829   5.568   9.999
80316SOL    HW242788   5.976   5.531   9.998
80317SOL     OW42789   4.228   2.723   1.867
80317SOL    HW142790   4.217   2.632   1.897
80317SOL    HW242791   4.144   2.746   1.828
80318SOL     OW42792  11.905  13.808   7.046
80318SOL    HW142793  11.992  13.848   7.045
80318SOL    HW242794  11.919  13.721   7.084
80319SOL     OW42795   9.619   4.717  14.844
80319SOL    HW142796   9.711   4.742  14.851
80319SOL    HW242797   9.578   4.789  14.796
80320SOL     OW42798   4.888   0.336   8.042
80320SOL    HW142799   4.815   0.378   7.995
80320SOL    HW242800   4.938   0.408   8.078
80321SOL     OW42801   5.544   8.586  14.587
80321SOL    HW142802   5.525   8.494  14.609
80321SOL    HW242803   5.543   8.632  14.671
80322SOL     OW42804   7.112  10.521  14.120
80322SOL    HW142805   7.095  10.518  14.026
80322SOL    HW242806   7.145  10.433  14.140
80323SOL     OW42807   4.798   3.780   1.888
80323SOL    HW142808   4.888   3.811   1.884
80323SOL    HW242809   4.784   3.754   1.979
80324SOL     OW42810   5.220  13.278   2.068
80324SOL    HW142811   5.127  13.288   2.051
80324SOL    HW242812   5.238  13.339   2.140
80325SOL     OW42813   5.993   4.553   7.249
80325SOL    HW142814   5.982   4.469   7.294
80325SOL    HW242815   5.940   4.614   7.299
80326SOL     OW42816   9.119   9.320   9.783
80326SOL    HW142817   9.138   9.297   9.874
80326SOL    HW242818   9.129   9.415   9.779
80327SOL     OW42819   6.455  10.615   6.064
80327SOL    HW142820   6.438  10.565   6.144
80327SOL    HW242821   6.549  10.635   6.068
80328SOL     OW42822   4.460  11.246   4.761
80328SOL    HW142823   4.550  11.226   4.785
80328SOL    HW242824   4.410  11.231   4.841
80329SOL     OW42825   5.947   8.640   3.505
80329SOL    HW142826   6.018   8.666   3.447
80329SOL    HW242827   5.878   8.704   3.488
80330SOL     OW42828   3.251   9.110   4.772
80330SOL    HW142829   3.309   9.178   4.807
80330SOL    HW242830   3.288   9.028   4.804
80331SOL     OW42831  10.712   2.950   6.287
80331SOL    HW142832  10.622   2.917   6.291
80331SOL    HW242833  10.705   3.041   6.318
80332SOL     OW42834  10.226   6.775   5.672
80332SOL    HW142835  10.216   6.860   5.628
80332SOL    HW242836  10.315   6.778   5.708
80333SOL     OW42837   9.588  10.244   7.860
80333SOL    HW142838   9.498  10.271   7.840
80333SOL    HW242839   9.584  10.148   7.864
80334SOL     OW42840   2.976   8.647  12.683
80334SOL    HW142841   2.914   8.581  12.650
80334SOL    HW242842   2.931   8.688  12.756
80335SOL     OW42843   2.940  14.373   8.831
80335SOL    HW142844   2.970  14.349   8.743
80335SOL    HW242845   2.911  14.291   8.870
80336SOL     OW42846  14.762   5.359  11.705
80336SOL    HW142847  14.835   5.366  11.643
80336SOL    HW242848  14.684   5.379  11.654
80337SOL     OW42849   8.220   0.343   4.598
80337SOL    HW142850   8.296   0.379   4.643
80337SOL    HW242851   8.179   0.286   4.663
80338SOL     OW42852  14.467  12.783   4.606
80338SOL    HW142853  14.529  12.711   4.594
80338SOL    HW242854  14.385  12.751   4.569
80339SOL     OW42855   2.121   7.093   3.504
80339SOL    HW142856   2.102   7.180   3.540
80339SOL    HW242857   2.132   7.108   3.410
80340SOL     OW42858  11.115  13.718   5.857
80340SOL    HW142859  11.168  13.719   5.778
80340SOL    HW242860  11.162  13.776   5.918
80341SOL     OW42861  11.518   2.196   8.955
80341SOL    HW142862  11.483   2.127   9.010
80341SOL    HW242863  11.466   2.274   8.976
80342SOL     OW42864  14.602   8.362   7.602
80342SOL    HW142865  14.508   8.345   7.606
80342SOL    HW242866  14.635   8.334   7.688
80343SOL     OW42867   0.737   2.116  10.445
80343SOL    HW142868   0.772   2.108  10.533
80343SOL    HW242869   0.794   2.061  10.391
80344SOL     OW42870  11.813   9.108   4.182
80344SOL    HW142871  11.743   9.164   4.216
80344SOL    HW242872  11.879   9.108   4.251
80345SOL     OW42873  13.163   8.022  13.598
80345SOL    HW142874  13.174   8.010  13.692
80345SOL    HW242875  13.249   8.002  13.560
80346SOL     OW42876   7.085   3.931   1.558
80346SOL    HW142877   7.043   3.983   1.626
80346SOL    HW242878   7.097   3.991   1.484
80347SOL     OW42879   6.094   6.468   3.259
80347SOL    HW142880   6.006   6.461   3.222
80347SOL    HW242881   6.099   6.396   3.321
80348SOL     OW42882  10.477   9.729   3.312
80348SOL    HW142883  10.506   9.799   3.369
80348SOL    HW242884  10.557   9.695   3.272
80349SOL     OW42885   7.007  13.929  12.470
80349SOL    HW142886   7.021  13.864  12.538
80349SOL    HW242887   6.918  13.911  12.438
80350SOL     OW42888  10.285  10.060   4.835
80350SOL    HW142889  10.319  10.070   4.924
80350SOL    HW242890  10.314   9.973   4.808
80351SOL     OW42891  11.870  12.448   8.494
80351SOL    HW142892  11.932  12.468   8.565
80351SOL    HW242893  11.784  12.453   8.535
80352SOL     OW42894   8.408   0.235   4.864
80352SOL    HW142895   8.367   0.164   4.815
80352SOL    HW242896   8.419   0.200   4.952
80353SOL     OW42897   9.904   5.646   4.519
80353SOL    HW142898   9.850   5.721   4.490
80353SOL    HW242899   9.984   5.686   4.552
80354SOL     OW42900   1.986  11.234   1.129
80354SOL    HW142901   2.005  11.255   1.221
80354SOL    HW242902   1.960  11.142   1.131
80355SOL     OW42903  12.433   8.053   2.520
80355SOL    HW142904  12.438   8.035   2.614
80355SOL    HW242905  12.350   8.014   2.493
80356SOL     OW42906   9.017   1.050   3.380
80356SOL    HW142907   8.983   0.969   3.341
80356SOL    HW242908   8.985   1.120   3.321
80357SOL     OW42909   5.682  12.913   1.245
80357SOL    HW142910   5.685  12.832   1.194
80357SOL    HW242911   5.757  12.908   1.303
80358SOL     OW42912  14.503  14.140   6.323
80358SOL    HW142913  14.584  14.119   6.368
80358SOL    HW242914  14.458  14.201   6.382
80359SOL     OW42915  10.179   0.401  13.638
80359SOL    HW142916  10.108   0.339  13.624
80359SOL    HW242917  10.147   0.483  13.602
80360SOL     OW42918   0.546  11.110   7.093
80360SOL    HW142919   0.513  11.021   7.108
80360SOL    HW242920   0.513  11.161   7.166
80361SOL     OW42921  13.273   4.028   2.941
80361SOL    HW142922  13.193   4.080   2.949
80361SOL    HW242923  13.242   3.940   2.918
80362SOL     OW42924   6.970  14.092  11.394
80362SOL    HW142925   6.897  14.134  11.348
80362SOL    HW242926   6.996  14.157  11.460
80363SOL     OW42927   0.972  11.084   3.148
80363SOL    HW142928   1.027  11.015   3.111
80363SOL    HW242929   1.031  11.160   3.156
80364SOL     OW42930   7.426   9.317  10.042
80364SOL    HW142931   7.449   9.262   9.967
80364SOL    HW242932   7.352   9.273  10.083
80365SOL     OW42933   4.654   9.948   0.704
80365SOL    HW142934   4.700   9.866   0.689
80365SOL    HW242935   4.573   9.923   0.750
80366SOL     OW42936   1.414   0.707   7.630
80366SOL    HW142937   1.330   0.747   7.606
80366SOL    HW242938   1.426   0.729   7.722
80367SOL     OW42939   4.944   2.491   7.291
80367SOL    HW142940   4.981   2.441   7.217
80367SOL    HW242941   4.868   2.535   7.254
80368SOL     OW42942   1.391   3.731   5.186
80368SOL    HW142943   1.307   3.731   5.141
80368SOL    HW242944   1.455   3.744   5.117
80369SOL     OW42945   4.317   4.645   5.704
80369SOL    HW142946   4.387   4.636   5.768
80369SOL    HW242947   4.237   4.646   5.755
80370SOL     OW42948  14.540   7.237   0.566
80370SOL    HW142949  14.467   7.178   0.584
80370SOL    HW242950  14.540   7.299   0.640
80371SOL     OW42951  10.896   0.506   1.595
80371SOL    HW142952  10.863   0.552   1.672
80371SOL    HW242953  10.917   0.575   1.533
80372SOL     OW42954   9.884   3.597   3.131
80372SOL    HW142955   9.959   3.629   3.081
80372SOL    HW242956   9.859   3.515   3.086
80373SOL     OW42957   5.701  12.508   8.738
80373SOL    HW142958   5.748  12.457   8.672
80373SOL    HW242959   5.760  12.580   8.760
80374SOL     OW42960  13.632  12.553   7.593
80374SOL    HW142961  13.685  12.606   7.652
80374SOL    HW242962  13.695  12.515   7.532
80375SOL     OW42963  13.740   7.190   6.331
80375SOL    HW142964  13.765   7.194   6.423
80375SOL    HW242965  13.703   7.276   6.312
80376SOL     OW42966   5.534   5.435  12.780
80376SOL    HW142967   5.616   5.404  12.741
80376SOL    HW242968   5.531   5.528  12.758
80377SOL     OW42969   5.775  10.511   5.564
80377SOL    HW142970   5.716  10.463   5.507
80377SOL    HW242971   5.719  10.547   5.632
80378SOL     OW42972   0.256   1.513   2.328
80378SOL    HW142973   0.311   1.591   2.319
80378SOL    HW242974   0.196   1.534   2.399
80379SOL     OW42975   7.212   4.432  10.996
80379SOL    HW142976   7.299   4.393  10.990
80379SOL    HW242977   7.206   4.462  11.086
80380SOL     OW42978  13.917   9.903   5.289
80380SOL    HW142979  13.891   9.829   5.344
80380SOL    HW242980  13.864   9.895   5.210
80381SOL     OW42981   4.200   6.086  14.363
80381SOL    HW142982   4.281   6.073  14.314
80381SOL    HW242983   4.211   6.170  14.407
80382SOL     OW42984   5.153   3.495   4.435
80382SOL    HW142985   5.133   3.552   4.510
80382SOL    HW242986   5.109   3.536   4.361
80383SOL     OW42987   7.900   5.906   7.141
80383SOL    HW142988   7.956   5.954   7.201
80383SOL    HW242989   7.832   5.969   7.116
80384SOL     OW42990  12.853   5.488   0.201
80384SOL    HW142991  12.949   5.484   0.203
80384SOL    HW242992  12.828   5.431   0.128
80385SOL     OW42993  14.670   7.902   6.796
80385SOL    HW142994  14.635   7.833   6.852
80385SOL    HW242995  14.657   7.982   6.846
80386SOL     OW42996   3.816   2.955   7.108
80386SOL    HW142997   3.799   2.894   7.036
80386SOL    HW242998   3.755   3.027   7.092
80387SOL     OW42999   6.522   8.548   5.480
80387SOL    HW143000   6.452   8.547   5.546
80387SOL    HW243001   6.553   8.639   5.479
80388SOL     OW43002  13.331   2.675   8.310
80388SOL    HW143003  13.410   2.686   8.362
80388SOL    HW243004  13.317   2.580   8.307
80389SOL     OW43005  14.057  12.442   6.832
80389SOL    HW143006  14.089  12.427   6.743
80389SOL    HW243007  14.117  12.506   6.869
80390SOL     OW43008  11.811  13.647   7.567
80390SOL    HW143009  11.872  13.657   7.494
80390SOL    HW243010  11.730  13.688   7.537
80391SOL     OW43011   5.327   0.254   3.959
80391SOL    HW143012   5.375   0.294   4.032
80391SOL    HW243013   5.263   0.321   3.933
80392SOL     OW43014   2.606   1.603  10.146
80392SOL    HW143015   2.543   1.532  10.160
80392SOL    HW243016   2.655   1.609  10.228
80393SOL     OW43017   6.079   1.267  14.814
80393SOL    HW143018   6.038   1.353  14.827
80393SOL    HW243019   6.087   1.231   0.029
80394SOL     OW43020   1.962   1.920   1.106
80394SOL    HW143021   2.033   1.868   1.068
80394SOL    HW243022   1.929   1.973   1.033
80395SOL     OW43023   5.954  14.405   6.518
80395SOL    HW143024   5.935  14.462   6.592
80395SOL    HW243025   6.003  14.332   6.556
80396SOL     OW43026   2.516  10.824  12.911
80396SOL    HW143027   2.552  10.758  12.851
80396SOL    HW243028   2.526  10.907  12.864
80397SOL     OW43029   4.813   4.838   7.878
80397SOL    HW143030   4.744   4.856   7.942
80397SOL    HW243031   4.789   4.890   7.802
80398SOL     OW43032   1.158   7.060   4.529
80398SOL    HW143033   1.212   7.054   4.608
80398SOL    HW243034   1.160   6.971   4.493
80399SOL     OW43035  14.048   2.661   9.865
80399SOL    HW143036  14.097   2.736   9.832
80399SOL    HW243037  13.978   2.649   9.800
80400SOL     OW43038  13.134  11.549   8.544
80400SOL    HW143039  13.171  11.563   8.632
80400SOL    HW243040  13.182  11.474   8.509
80401SOL     OW43041   4.923   5.292  12.038
80401SOL    HW143042   4.939   5.327  12.125
80401SOL    HW243043   5.007   5.258  12.009
80402SOL     OW43044   2.463   7.193   0.663
80402SOL    HW143045   2.447   7.127   0.596
80402SOL    HW243046   2.559   7.200   0.667
80403SOL     OW43047  11.887   9.031   8.721
80403SOL    HW143048  11.920   8.964   8.661
80403SOL    HW243049  11.839   9.092   8.665
80404SOL     OW43050   0.488  11.683   6.482
80404SOL    HW143051   0.544  11.742   6.432
80404SOL    HW243052   0.533  11.672   6.566
80405SOL     OW43053   2.803  10.123  13.730
80405SOL    HW143054   2.853  10.166  13.661
80405SOL    HW243055   2.781  10.193  13.792
80406SOL     OW43056   8.906  11.259  13.395
80406SOL    HW143057   8.822  11.281  13.354
80406SOL    HW243058   8.882  11.202  13.468
80407SOL     OW43059  14.763  10.287   1.242
80407SOL    HW143060  14.723  10.260   1.160
80407SOL    HW243061  14.844  10.331   1.216
80408SOL     OW43062  14.475  13.055  13.105
80408SOL    HW143063  14.461  13.117  13.176
80408SOL    HW243064  14.393  13.006  13.099
80409SOL     OW43065   5.284   5.992   4.237
80409SOL    HW143066   5.233   5.988   4.156
80409SOL    HW243067   5.228   5.952   4.303
80410SOL     OW43068   7.746   2.080  13.498
80410SOL    HW143069   7.659   2.057  13.530
80410SOL    HW243070   7.800   2.082  13.577
80411SOL     OW43071   4.532   3.497  10.564
80411SOL    HW143072   4.552   3.545  10.645
80411SOL    HW243073   4.532   3.405  10.590
80412SOL     OW43074   3.201   1.116   6.041
80412SOL    HW143075   3.164   1.157   6.119
80412SOL    HW243076   3.155   1.033   6.033
80413SOL     OW43077  14.851   2.219   1.932
80413SOL    HW143078  14.777   2.158   1.923
80413SOL    HW243079  14.865   2.227   2.026
80414SOL     OW43080   2.147  13.556  10.070
80414SOL    HW143081   2.081  13.555  10.000
80414SOL    HW243082   2.231  13.554  10.025
80415SOL     OW43083  11.783  13.969   8.295
80415SOL    HW143084  11.847  13.908   8.258
80415SOL    HW243085  11.832  14.017   8.362
80416SOL     OW43086   0.580   6.664   4.295
80416SOL    HW143087   0.591   6.585   4.347
80416SOL    HW243088   0.619   6.734   4.347
80417SOL     OW43089   5.480  11.058  11.261
80417SOL    HW143090   5.448  11.131  11.208
80417SOL    HW243091   5.494  11.095  11.348
80418SOL     OW43092   9.629   9.507   4.723
80418SOL    HW143093   9.697   9.444   4.748
80418SOL    HW243094   9.673   9.567   4.663
80419SOL     OW43095   3.859   4.881   1.485
80419SOL    HW143096   3.936   4.853   1.435
80419SOL    HW243097   3.791   4.816   1.463
80420SOL     OW43098  12.700   2.384  13.969
80420SOL    HW143099  12.695   2.479  13.979
80420SOL    HW243100  12.717   2.371  13.875
80421SOL     OW43101  10.696   4.255   9.516
80421SOL    HW143102  10.708   4.274   9.609
80421SOL    HW243103  10.782   4.272   9.477
80422SOL     OW43104   6.196   2.200   3.229
80422SOL    HW143105   6.215   2.289   3.199
80422SOL    HW243106   6.248   2.190   3.308
80423SOL     OW43107   9.687   8.940   2.034
80423SOL    HW143108   9.698   9.034   2.019
80423SOL    HW243109   9.684   8.902   1.947
80424SOL     OW43110   7.639   7.052   3.941
80424SOL    HW143111   7.611   7.091   4.024
80424SOL    HW243112   7.596   6.967   3.939
80425SOL     OW43113   0.165  14.494   0.723
80425SOL    HW143114   0.198  14.565   0.668
80425SOL    HW243115   0.230  14.424   0.716
80426SOL     OW43116   2.410   5.711  12.558
80426SOL    HW143117   2.352   5.678  12.627
80426SOL    HW243118   2.353   5.763  12.502
80427SOL     OW43119   5.082   6.309   2.793
80427SOL    HW143120   4.990   6.284   2.798
80427SOL    HW243121   5.099   6.318   2.700
80428SOL     OW43122   5.289   7.399   4.594
80428SOL    HW143123   5.303   7.485   4.555
80428SOL    HW243124   5.318   7.337   4.527
80429SOL     OW43125   7.468  13.971   4.921
80429SOL    HW143126   7.386  13.946   4.878
80429SOL    HW243127   7.471  13.917   5.000
80430SOL     OW43128  12.502  12.800  14.346
80430SOL    HW143129  12.467  12.857  14.278
80430SOL    HW243130  12.545  12.729  14.299
80431SOL     OW43131   7.788   5.737   2.555
80431SOL    HW143132   7.725   5.778   2.615
80431SOL    HW243133   7.856   5.703   2.613
80432SOL     OW43134   8.038   5.175   7.804
80432SOL    HW143135   8.052   5.252   7.859
80432SOL    HW243136   8.003   5.209   7.722
80433SOL     OW43137   1.388  11.802  12.511
80433SOL    HW143138   1.331  11.791  12.588
80433SOL    HW243139   1.397  11.714  12.476
80434SOL     OW43140  11.905  13.951   6.287
80434SOL    HW143141  11.899  13.966   6.193
80434SOL    HW243142  11.992  13.914   6.301
80435SOL     OW43143   0.763   5.675   7.789
80435SOL    HW143144   0.681   5.654   7.834
80435SOL    HW243145   0.803   5.744   7.842
80436SOL     OW43146  10.441  14.390  12.948
80436SOL    HW143147  10.367  14.434  12.990
80436SOL    HW243148  10.457  14.442  12.868
80437SOL     OW43149   9.514   2.096   6.579
80437SOL    HW143150   9.540   2.099   6.671
80437SOL    HW243151   9.596   2.094   6.531
80438SOL     OW43152  12.701  12.864   8.326
80438SOL    HW143153  12.677  12.955   8.311
80438SOL    HW243154  12.733  12.833   8.241
80439SOL     OW43155   6.814   1.526   7.663
80439SOL    HW143156   6.810   1.468   7.738
80439SOL    HW243157   6.818   1.614   7.701
80440SOL     OW43158   8.750   5.033   5.553
80440SOL    HW143159   8.723   4.984   5.474
80440SOL    HW243160   8.844   5.016   5.560
80441SOL     OW43161   5.778  12.503   1.810
80441SOL    HW143162   5.721  12.431   1.782
80441SOL    HW243163   5.797  12.484   1.902
80442SOL     OW43164   9.377   8.652   2.571
80442SOL    HW143165   9.426   8.727   2.605
80442SOL    HW243166   9.422   8.628   2.491
80443SOL     OW43167  12.852   3.209  12.964
80443SOL    HW143168  12.792   3.202  12.889
80443SOL    HW243169  12.939   3.200  12.927
80444SOL     OW43170  13.717  13.516   2.456
80444SOL    HW143171  13.719  13.611   2.447
80444SOL    HW243172  13.795  13.496   2.508
80445SOL     OW43173  12.747  12.534   1.914
80445SOL    HW143174  12.745  12.484   1.833
80445SOL    HW243175  12.678  12.599   1.904
80446SOL     OW43176   3.905   7.793   6.684
80446SOL    HW143177   3.968   7.794   6.756
80446SOL    HW243178   3.824   7.761   6.724
80447SOL     OW43179   6.443   0.697   7.986
80447SOL    HW143180   6.429   0.638   7.912
80447SOL    HW243181   6.371   0.677   8.046
80448SOL     OW43182   9.715  11.813   8.206
80448SOL    HW143183   9.705  11.889   8.149
80448SOL    HW243184   9.810  11.800   8.212
80449SOL     OW43185   1.334   3.300   6.076
80449SOL    HW143186   1.272   3.337   6.139
80449SOL    HW243187   1.413   3.283   6.126
80450SOL     OW43188  11.018   3.931   7.252
80450SOL    HW143189  10.991   3.963   7.165
80450SOL    HW243190  10.953   3.864   7.273
80451SOL     OW43191   4.855   5.263  11.672
80451SOL    HW143192   4.873   5.335  11.612
80451SOL    HW243193   4.931   5.206  11.665
80452SOL     OW43194   4.380   0.305  11.423
80452SOL    HW143195   4.381   0.262  11.337
80452SOL    HW243196   4.289   0.300  11.451
80453SOL     OW43197   1.332   4.215   3.915
80453SOL    HW143198   1.275   4.166   3.975
80453SOL    HW243199   1.404   4.154   3.897
80454SOL     OW43200   7.759  10.978  12.798
80454SOL    HW143201   7.697  10.904  12.792
80454SOL    HW243202   7.832  10.944  12.850
80455SOL     OW43203   0.134   4.942  11.383
80455SOL    HW143204   0.177   4.857  11.374
80455SOL    HW243205   0.198   5.006  11.353
80456SOL     OW43206   9.504  12.704   1.505
80456SOL    HW143207   9.459  12.620   1.511
80456SOL    HW243208   9.594  12.681   1.482
80457SOL     OW43209   7.303  12.722   5.644
80457SOL    HW143210   7.296  12.683   5.732
80457SOL    HW243211   7.311  12.816   5.661
80458SOL     OW43212  14.084   5.203  13.238
80458SOL    HW143213  14.002   5.169  13.201
80458SOL    HW243214  14.062   5.290  13.270
80459SOL     OW43215  10.744  12.161   1.728
80459SOL    HW143216  10.730  12.089   1.666
80459SOL    HW243217  10.657  12.184   1.759
80460SOL     OW43218   2.640  10.716   8.439
80460SOL    HW143219   2.648  10.623   8.460
80460SOL    HW243220   2.547  10.729   8.423
80461SOL     OW43221  10.154   1.058   3.671
80461SOL    HW143222  10.226   1.027   3.727
80461SOL    HW243223  10.105   1.119   3.726
80462SOL     OW43224   7.624   5.270   8.201
80462SOL    HW143225   7.697   5.218   8.169
80462SOL    HW243226   7.546   5.230   8.162
80463SOL     OW43227  11.259   0.966   0.207
80463SOL    HW143228  11.330   1.016   0.168
80463SOL    HW243229  11.197   0.953   0.136
80464SOL     OW43230   9.114   5.134  11.037
80464SOL    HW143231   9.170   5.209  11.055
80464SOL    HW243232   9.144   5.101  10.953
80465SOL     OW43233   7.511  12.419   4.326
80465SOL    HW143234   7.499  12.379   4.240
80465SOL    HW243235   7.439  12.386   4.379
80466SOL     OW43236  14.732   2.325   9.493
80466SOL    HW143237  14.818   2.288   9.472
80466SOL    HW243238  14.706   2.371   9.413
80467SOL     OW43239  10.192   5.728   2.332
80467SOL    HW143240  10.189   5.809   2.383
80467SOL    HW243241  10.228   5.663   2.392
80468SOL     OW43242   9.343  12.636   5.680
80468SOL    HW143243   9.348  12.723   5.640
80468SOL    HW243244   9.405  12.583   5.629
80469SOL     OW43245  11.301   2.445  11.264
80469SOL    HW143246  11.265   2.534  11.268
80469SOL    HW243247  11.395   2.457  11.255
80470SOL     OW43248   6.176   3.954  13.238
80470SOL    HW143249   6.176   3.859  13.255
80470SOL    HW243250   6.105   3.988  13.292
80471SOL     OW43251   3.220   3.482  11.083
80471SOL    HW143252   3.289   3.497  11.147
80471SOL    HW243253   3.217   3.563  11.032
80472SOL     OW43254   6.305   0.158   6.733
80472SOL    HW143255   6.237   0.221   6.756
80472SOL    HW243256   6.369   0.165   6.803
80473SOL     OW43257   7.512   2.969   5.143
80473SOL    HW143258   7.476   2.895   5.094
80473SOL    HW243259   7.567   2.928   5.210
80474SOL     OW43260  12.439   6.394  14.229
80474SOL    HW143261  12.390   6.397  14.146
80474SOL    HW243262  12.507   6.460  14.219
80475SOL     OW43263  12.422   6.573  12.451
80475SOL    HW143264  12.428   6.600  12.359
80475SOL    HW243265  12.510   6.585  12.485
80476SOL     OW43266   9.000   9.116  13.703
80476SOL    HW143267   9.026   9.192  13.755
80476SOL    HW243268   8.959   9.152  13.625
80477SOL     OW43269  14.286   2.531   1.162
80477SOL    HW143270  14.378   2.512   1.142
80477SOL    HW243271  14.255   2.582   1.087
80478SOL     OW43272  14.108  10.136   0.669
80478SOL    HW143273  14.185  10.139   0.612
80478SOL    HW243274  14.099  10.225   0.701
80479SOL     OW43275   0.737  13.646   4.720
80479SOL    HW143276   0.687  13.579   4.673
80479SOL    HW243277   0.763  13.604   4.801
80480SOL     OW43278   9.770   9.759   9.444
80480SOL    HW143279   9.809   9.833   9.490
80480SOL    HW243280   9.789   9.683   9.500
80481SOL     OW43281   6.621   2.749  12.662
80481SOL    HW143282   6.667   2.771  12.743
80481SOL    HW243283   6.644   2.657  12.647
80482SOL     OW43284  10.222   7.921  13.129
80482SOL    HW143285  10.246   8.011  13.151
80482SOL    HW243286  10.126   7.921  13.131
80483SOL     OW43287  10.609   4.433  14.459
80483SOL    HW143288  10.632   4.499  14.394
80483SOL    HW243289  10.665   4.454  14.535
80484SOL     OW43290   7.984  14.579  12.427
80484SOL    HW143291   7.996  14.484  12.419
80484SOL    HW243292   8.052  14.606  12.490
80485SOL     OW43293   7.917  13.766   2.674
80485SOL    HW143294   7.911  13.741   2.766
80485SOL    HW243295   7.978  13.704   2.635
80486SOL     OW43296   6.344  11.655   8.071
80486SOL    HW143297   6.425  11.658   8.021
80486SOL    HW243298   6.292  11.727   8.036
80487SOL     OW43299   8.213   7.667   0.868
80487SOL    HW143300   8.216   7.761   0.848
80487SOL    HW243301   8.124   7.652   0.899
80488SOL     OW43302  12.419   1.889   2.456
80488SOL    HW143303  12.328   1.861   2.457
80488SOL    HW243304  12.467   1.815   2.494
80489SOL     OW43305   1.939   6.173  13.982
80489SOL    HW143306   2.011   6.180  13.920
80489SOL    HW243307   1.910   6.082  13.975
80490SOL     OW43308  13.325   8.232  12.178
80490SOL    HW143309  13.268   8.297  12.138
80490SOL    HW243310  13.357   8.273  12.259
80491SOL     OW43311   2.525  11.270   4.244
80491SOL    HW143312   2.466  11.252   4.171
80491SOL    HW243313   2.560  11.184   4.268
80492SOL     OW43314   6.370   7.214  14.780
80492SOL    HW143315   6.449   7.185  14.733
80492SOL    HW243316   6.383   7.180  14.869
80493SOL     OW43317   8.989   9.293  14.786
80493SOL    HW143318   9.069   9.313  14.834
80493SOL    HW243319   8.933   9.247  14.849
80494SOL     OW43320   6.296  12.708   2.456
80494SOL    HW143321   6.281  12.677   2.545
80494SOL    HW243322   6.365  12.774   2.464
80495SOL     OW43323   5.656   7.539  10.094
80495SOL    HW143324   5.724   7.537  10.027
80495SOL    HW243325   5.607   7.619  10.078
80496SOL     OW43326   1.085   1.650   5.628
80496SOL    HW143327   1.075   1.572   5.684
80496SOL    HW243328   0.997   1.687   5.623
80497SOL     OW43329  10.333   1.875   2.481
80497SOL    HW143330  10.327   1.877   2.577
80497SOL    HW243331  10.313   1.784   2.458
80498SOL     OW43332   2.648   8.482   6.271
80498SOL    HW143333   2.616   8.571   6.281
80498SOL    HW243334   2.741   8.487   6.293
80499SOL     OW43335  10.007  11.792   8.170
80499SOL    HW143336  10.098  11.785   8.200
80499SOL    HW243337   9.988  11.707   8.130
80500SOL     OW43338  11.276   4.417   5.350
80500SOL    HW143339  11.284   4.341   5.408
80500SOL    HW243340  11.200   4.398   5.296
80501SOL     OW43341  11.043  14.009   7.552
80501SOL    HW143342  11.127  14.000   7.508
80501SOL    HW243343  11.065  14.029   7.643
80502SOL     OW43344   5.914   9.754   5.315
80502SOL    HW143345   5.938   9.662   5.329
80502SOL    HW243346   5.956   9.801   5.387
80503SOL     OW43347   5.066   0.539   3.539
80503SOL    HW143348   4.980   0.538   3.495
80503SOL    HW243349   5.093   0.630   3.536
80504SOL     OW43350  11.272  12.565   8.333
80504SOL    HW143351  11.343  12.504   8.313
80504SOL    HW243352  11.274  12.572   8.429
80505SOL     OW43353  14.750  13.578   5.842
80505SOL    HW143354  14.782  13.663   5.813
80505SOL    HW243355  14.812  13.550   5.910
80506SOL     OW43356  14.273   2.520   5.417
80506SOL    HW143357  14.337   2.450   5.404
80506SOL    HW243358  14.277   2.539   5.511
80507SOL     OW43359   9.487  11.440  12.193
80507SOL    HW143360   9.460  11.352  12.216
80507SOL    HW243361   9.581  11.433  12.176
80508SOL     OW43362   4.793   4.238  13.497
80508SOL    HW143363   4.737   4.174  13.541
80508SOL    HW243364   4.882   4.215  13.525
80509SOL     OW43365   8.866   2.687  13.316
80509SOL    HW143366   8.838   2.724  13.400
80509SOL    HW243367   8.961   2.679  13.324
80510SOL     OW43368   1.786  12.937   0.954
80510SOL    HW143369   1.755  12.997   1.022
80510SOL    HW243370   1.818  12.860   1.001
80511SOL     OW43371   3.371   0.033   7.081
80511SOL    HW143372   3.461   0.068   7.082
80511SOL    HW243373   3.331   0.075   7.004
80512SOL     OW43374   7.991   3.546   9.153
80512SOL    HW143375   8.006   3.523   9.244
80512SOL    HW243376   7.905   3.509   9.132
80513SOL     OW43377   0.654   7.817   2.409
80513SOL    HW143378   0.690   7.892   2.456
80513SOL    HW243379   0.623   7.854   2.326
80514SOL     OW43380   4.371   9.455   7.494
80514SOL    HW143381   4.283   9.420   7.478
80514SOL    HW243382   4.421   9.433   7.415
80515SOL     OW43383  12.807   0.692  13.827
80515SOL    HW143384  12.866   0.634  13.876
80515SOL    HW243385  12.791   0.645  13.745
80516SOL     OW43386  11.839   2.875  11.468
80516SOL    HW143387  11.921   2.892  11.423
80516SOL    HW243388  11.786   2.827  11.404
80517SOL     OW43389   6.914   1.275  11.126
80517SOL    HW143390   6.978   1.272  11.055
80517SOL    HW243391   6.958   1.323  11.196
80518SOL     OW43392  13.103  13.967  12.128
80518SOL    HW143393  13.195  13.940  12.130
80518SOL    HW243394  13.070  13.931  12.046
80519SOL     OW43395   6.635   8.310  12.090
80519SOL    HW143396   6.605   8.230  12.134
80519SOL    HW243397   6.650   8.372  12.162
80520SOL     OW43398   8.202  12.266   0.413
80520SOL    HW143399   8.126  12.299   0.364
80520SOL    HW243400   8.197  12.310   0.498
80521SOL     OW43401   2.610   2.382  10.247
80521SOL    HW143402   2.674   2.345  10.187
80521SOL    HW243403   2.560   2.307  10.279
80522SOL     OW43404   2.388   8.122  13.454
80522SOL    HW143405   2.439   8.079  13.385
80522SOL    HW243406   2.422   8.212  13.456
80523SOL     OW43407  10.460  13.459   4.754
80523SOL    HW143408  10.488  13.476   4.844
80523SOL    HW243409  10.534  13.489   4.700
80524SOL     OW43410   0.109   9.694  13.015
80524SOL    HW143411   0.022   9.733  13.025
80524SOL    HW243412   0.168   9.768  13.003
80525SOL     OW43413   2.346  11.084   9.824
80525SOL    HW143414   2.374  11.048   9.739
80525SOL    HW243415   2.409  11.154   9.841
80526SOL     OW43416  13.295   3.352   4.341
80526SOL    HW143417  13.284   3.367   4.247
80526SOL    HW243418  13.353   3.422   4.371
80527SOL     OW43419  13.194  11.605   5.734
80527SOL    HW143420  13.181  11.696   5.761
80527SOL    HW243421  13.221  11.611   5.643
80528SOL     OW43422  12.445   0.541   0.744
80528SOL    HW143423  12.447   0.489   0.664
80528SOL    HW243424  12.474   0.480   0.812
80529SOL     OW43425   5.614   4.156  13.895
80529SOL    HW143426   5.559   4.234  13.906
80529SOL    HW243427   5.590   4.099  13.968
80530SOL     OW43428  13.334  10.259   4.394
80530SOL    HW143429  13.360  10.334   4.447
80530SOL    HW243430  13.367  10.279   4.306
80531SOL     OW43431   2.044  11.598   1.628
80531SOL    HW143432   2.082  11.544   1.559
80531SOL    HW243433   2.118  11.647   1.664
80532SOL     OW43434   1.162   6.236   1.418
80532SOL    HW143435   1.206   6.213   1.336
80532SOL    HW243436   1.211   6.311   1.451
80533SOL     OW43437   9.183   5.546   4.850
80533SOL    HW143438   9.140   5.624   4.885
80533SOL    HW243439   9.267   5.579   4.815
80534SOL     OW43440   4.932  12.706   1.502
80534SOL    HW143441   4.923  12.615   1.531
80534SOL    HW243442   4.999  12.702   1.433
80535SOL     OW43443   2.313   0.501   5.148
80535SOL    HW143444   2.329   0.474   5.238
80535SOL    HW243445   2.224   0.471   5.129
80536SOL     OW43446   0.890   1.756  12.492
80536SOL    HW143447   0.980   1.729  12.475
80536SOL    HW243448   0.895   1.852  12.498
80537SOL     OW43449   4.814  12.255   0.691
80537SOL    HW143450   4.757  12.331   0.695
80537SOL    HW243451   4.879  12.269   0.760
80538SOL     OW43452   2.974  12.172   2.369
80538SOL    HW143453   3.018  12.257   2.374
80538SOL    HW243454   2.927  12.174   2.286
80539SOL     OW43455   2.125   1.478   9.349
80539SOL    HW143456   2.189   1.426   9.301
80539SOL    HW243457   2.168   1.499   9.432
80540SOL     OW43458  11.435   8.588  11.508
80540SOL    HW143459  11.437   8.504  11.554
80540SOL    HW243460  11.508   8.637  11.546
80541SOL     OW43461   0.734   4.590   8.685
80541SOL    HW143462   0.659   4.614   8.631
80541SOL    HW243463   0.757   4.501   8.656
80542SOL     OW43464  11.517   7.022   8.925
80542SOL    HW143465  11.599   6.980   8.898
80542SOL    HW243466  11.530   7.115   8.904
80543SOL     OW43467  12.002  13.558   7.123
80543SOL    HW143468  12.081  13.521   7.162
80543SOL    HW243469  11.962  13.485   7.076
80544SOL     OW43470   2.496  12.841  13.240
80544SOL    HW143471   2.448  12.800  13.311
80544SOL    HW243472   2.584  12.804  13.246
80545SOL     OW43473   1.529   2.543   6.890
80545SOL    HW143474   1.569   2.580   6.969
80545SOL    HW243475   1.487   2.618   6.847
80546SOL     OW43476  11.659  12.745  11.749
80546SOL    HW143477  11.564  12.734  11.746
80546SOL    HW243478  11.682  12.774  11.661
80547SOL     OW43479   8.850  14.659   4.000
80547SOL    HW143480   8.774  14.697   4.044
80547SOL    HW243481   8.824  14.655   3.908
80548SOL     OW43482   4.217   5.759  13.402
80548SOL    HW143483   4.303   5.719  13.408
80548SOL    HW243484   4.181   5.728  13.319
80549SOL     OW43485  10.748   6.127  11.998
80549SOL    HW143486  10.769   6.137  12.091
80549SOL    HW243487  10.789   6.045  11.972
80550SOL     OW43488   9.698   6.816   7.380
80550SOL    HW143489   9.658   6.846   7.461
80550SOL    HW243490   9.744   6.892   7.345
80551SOL     OW43491   4.437   9.719  14.438
80551SOL    HW143492   4.390   9.640  14.412
80551SOL    HW243493   4.392   9.790  14.393
80552SOL     OW43494  12.692   0.900   0.138
80552SOL    HW143495  12.787   0.891   0.137
80552SOL    HW243496  12.659   0.811   0.133
80553SOL     OW43497   9.723   5.934   3.845
80553SOL    HW143498   9.764   5.903   3.926
80553SOL    HW243499   9.779   6.005   3.815
80554SOL     OW43500  13.538   1.800  10.802
80554SOL    HW143501  13.528   1.891  10.774
80554SOL    HW243502  13.630   1.793  10.827
80555SOL     OW43503  12.019   2.435   3.617
80555SOL    HW143504  12.095   2.492   3.615
80555SOL    HW243505  12.013   2.398   3.529
80556SOL     OW43506   6.878   0.880   2.356
80556SOL    HW143507   6.837   0.876   2.269
80556SOL    HW243508   6.961   0.927   2.341
80557SOL     OW43509   4.613   7.985   9.099
80557SOL    HW143510   4.698   7.947   9.121
80557SOL    HW243511   4.574   8.009   9.183
80558SOL     OW43512   7.138   1.535  12.706
80558SOL    HW143513   7.218   1.519  12.756
80558SOL    HW243514   7.086   1.455  12.717
80559SOL     OW43515   5.088   5.488   6.595
80559SOL    HW143516   5.162   5.526   6.546
80559SOL    HW243517   5.128   5.452   6.674
80560SOL     OW43518   4.878   7.377   6.506
80560SOL    HW143519   4.913   7.448   6.452
80560SOL    HW243520   4.901   7.401   6.596
80561SOL     OW43521  10.129   5.496   1.928
80561SOL    HW143522  10.099   5.425   1.985
80561SOL    HW243523  10.077   5.485   1.848
80562SOL     OW43524  13.529   5.591  12.744
80562SOL    HW143525  13.494   5.507  12.715
80562SOL    HW243526  13.460   5.654  12.724
80563SOL     OW43527  11.538  10.816  10.939
80563SOL    HW143528  11.492  10.809  10.856
80563SOL    HW243529  11.510  10.738  10.989
80564SOL     OW43530   5.102   0.162   1.059
80564SOL    HW143531   5.024   0.139   1.010
80564SOL    HW243532   5.175   0.131   1.005
80565SOL     OW43533  14.811  13.086   0.187
80565SOL    HW143534  14.844  13.171   0.216
80565SOL    HW243535  14.728  13.107   0.143
80566SOL     OW43536  14.687  11.842   2.756
80566SOL    HW143537  14.745  11.787   2.808
80566SOL    HW243538  14.599  11.817   2.784
80567SOL     OW43539   5.905   5.038   5.545
80567SOL    HW143540   5.898   4.944   5.533
80567SOL    HW243541   5.816   5.071   5.537
80568SOL     OW43542   7.716  13.456   5.323
80568SOL    HW143543   7.626  13.488   5.322
80568SOL    HW243544   7.764  13.517   5.267
80569SOL     OW43545   7.382  12.164   0.437
80569SOL    HW143546   7.322  12.148   0.510
80569SOL    HW243547   7.336  12.228   0.382
80570SOL     OW43548   1.217   3.904   4.270
80570SOL    HW143549   1.152   3.968   4.297
80570SOL    HW243550   1.241   3.859   4.351
80571SOL     OW43551   1.325  14.120   1.304
80571SOL    HW143552   1.335  14.174   1.225
80571SOL    HW243553   1.414  14.112   1.339
80572SOL     OW43554  11.364  11.837   5.077
80572SOL    HW143555  11.387  11.872   5.163
80572SOL    HW243556  11.407  11.752   5.072
80573SOL     OW43557  14.703   7.159  12.738
80573SOL    HW143558  14.767   7.159  12.809
80573SOL    HW243559  14.665   7.072  12.740
80574SOL     OW43560   5.189   2.287   2.575
80574SOL    HW143561   5.239   2.368   2.561
80574SOL    HW243562   5.120   2.313   2.636
80575SOL     OW43563   0.707   0.413  11.595
80575SOL    HW143564   0.673   0.500  11.576
80575SOL    HW243565   0.792   0.428  11.635
80576SOL     OW43566  14.502   4.655   7.298
80576SOL    HW143567  14.419   4.632   7.338
80576SOL    HW243568  14.555   4.575   7.305
80577SOL     OW43569   7.282   8.183   4.305
80577SOL    HW143570   7.316   8.141   4.226
80577SOL    HW243571   7.214   8.122   4.337
80578SOL     OW43572   3.991   2.569   4.877
80578SOL    HW143573   3.935   2.512   4.931
80578SOL    HW243574   4.079   2.557   4.913
80579SOL     OW43575   4.128   4.392   6.917
80579SOL    HW143576   4.209   4.385   6.968
80579SOL    HW243577   4.120   4.307   6.873
80580SOL     OW43578  12.514   5.432  10.433
80580SOL    HW143579  12.532   5.403  10.343
80580SOL    HW243580  12.577   5.503  10.448
80581SOL     OW43581   9.896  12.313   1.314
80581SOL    HW143582   9.943  12.233   1.340
80581SOL    HW243583   9.841  12.285   1.241
80582SOL     OW43584  13.122   9.457   6.761
80582SOL    HW143585  13.112   9.365   6.783
80582SOL    HW243586  13.121   9.502   6.846
80583SOL     OW43587   3.606   5.627   3.610
80583SOL    HW143588   3.563   5.588   3.534
80583SOL    HW243589   3.688   5.662   3.575
80584SOL     OW43590   7.204  11.767   8.445
80584SOL    HW143591   7.281  11.751   8.390
80584SOL    HW243592   7.236  11.756   8.535
80585SOL     OW43593  13.380   8.921  14.850
80585SOL    HW143594  13.375   8.841  14.799
80585SOL    HW243595  13.344   8.897   0.063
80586SOL     OW43596   8.343  12.330   3.637
80586SOL    HW143597   8.315  12.316   3.547
80586SOL    HW243598   8.262  12.334   3.688
80587SOL     OW43599   6.557   3.549  14.430
80587SOL    HW143600   6.527   3.640  14.429
80587SOL    HW243601   6.479   3.499  14.455
80588SOL     OW43602   6.584   9.126   8.251
80588SOL    HW143603   6.507   9.158   8.299
80588SOL    HW243604   6.654   9.186   8.275
80589SOL     OW43605  10.675  13.756  13.699
80589SOL    HW143606  10.611  13.697  13.659
80589SOL    HW243607  10.723  13.701  13.762
80590SOL     OW43608   6.140  14.560   6.380
80590SOL    HW143609   6.153  14.622   6.452
80590SOL    HW243610   6.085  14.491   6.418
80591SOL     OW43611   5.327  12.372  13.596
80591SOL    HW143612   5.348  12.351  13.505
80591SOL    HW243613   5.257  12.437  13.590
80592SOL     OW43614  13.733   8.585   9.856
80592SOL    HW143615  13.667   8.599   9.787
80592SOL    HW243616  13.711   8.649   9.923
80593SOL     OW43617  11.372   1.302  14.616
80593SOL    HW143618  11.306   1.365  14.587
80593SOL    HW243619  11.413   1.271  14.535
80594SOL     OW43620   8.682   7.129   7.461
80594SOL    HW143621   8.692   7.180   7.381
80594SOL    HW243622   8.604   7.165   7.503
80595SOL     OW43623   3.146   4.113   7.917
80595SOL    HW143624   3.155   4.205   7.893
80595SOL    HW243625   3.184   4.066   7.843
80596SOL     OW43626   2.319   2.140  11.827
80596SOL    HW143627   2.236   2.139  11.874
80596SOL    HW243628   2.356   2.053  11.840
80597SOL     OW43629  11.788   0.414   1.951
80597SOL    HW143630  11.837   0.496   1.948
80597SOL    HW243631  11.737   0.414   1.870
80598SOL     OW43632   2.499   1.656   5.653
80598SOL    HW143633   2.428   1.591   5.649
80598SOL    HW243634   2.562   1.618   5.715
80599SOL     OW43635   1.458   9.177   3.299
80599SOL    HW143636   1.381   9.233   3.290
80599SOL    HW243637   1.423   9.091   3.321
80600SOL     OW43638   0.846  10.431   0.416
80600SOL    HW143639   0.773  10.402   0.362
80600SOL    HW243640   0.806  10.489   0.481
80601SOL     OW43641   6.283   1.841  10.649
80601SOL    HW143642   6.209   1.817  10.593
80601SOL    HW243643   6.331   1.907  10.599
80602SOL     OW43644   4.881  12.204   5.095
80602SOL    HW143645   4.973  12.231   5.096
80602SOL    HW243646   4.841  12.256   5.026
80603SOL     OW43647  12.304   4.947   8.229
80603SOL    HW143648  12.310   4.895   8.309
80603SOL    HW243649  12.348   4.894   8.162
80604SOL     OW43650   4.412  14.094   4.856
80604SOL    HW143651   4.500  14.112   4.887
80604SOL    HW243652   4.400  14.000   4.866
80605SOL     OW43653  14.489  11.867   5.208
80605SOL    HW143654  14.545  11.800   5.169
80605SOL    HW243655  14.403  11.825   5.215
80606SOL     OW43656  12.282   6.137   9.661
80606SOL    HW143657  12.299   6.125   9.755
80606SOL    HW243658  12.345   6.203   9.633
80607SOL     OW43659   5.752  11.848   1.740
80607SOL    HW143660   5.840  11.813   1.755
80607SOL    HW243661   5.695  11.770   1.743
80608SOL     OW43662   0.946   1.250   5.399
80608SOL    HW143663   0.987   1.299   5.327
80608SOL    HW243664   0.924   1.317   5.464
80609SOL     OW43665   7.739   7.942   5.809
80609SOL    HW143666   7.724   7.857   5.768
80609SOL    HW243667   7.709   7.931   5.899
80610SOL     OW43668   1.661   9.416   2.937
80610SOL    HW143669   1.649   9.334   2.985
80610SOL    HW243670   1.630   9.483   2.997
80611SOL     OW43671  11.514   7.605   2.513
80611SOL    HW143672  11.464   7.687   2.515
80611SOL    HW243673  11.455   7.540   2.550
80612SOL     OW43674  11.860   3.050  10.564
80612SOL    HW143675  11.820   2.994  10.497
80612SOL    HW243676  11.954   3.033  10.555
80613SOL     OW43677  13.316   6.916  11.543
80613SOL    HW143678  13.268   6.848  11.497
80613SOL    HW243679  13.296   6.901  11.636
80614SOL     OW43680  14.557  14.774  13.514
80614SOL    HW143681  14.651  14.772  13.493
80614SOL    HW243682  14.531  14.682  13.518
80615SOL     OW43683   5.370   8.049  10.523
80615SOL    HW143684   5.279   8.050  10.552
80615SOL    HW243685   5.415   8.110  10.582
80616SOL     OW43686  11.751   4.441  13.191
80616SOL    HW143687  11.775   4.500  13.120
80616SOL    HW243688  11.752   4.354  13.150
80617SOL     OW43689  10.337   6.565   1.534
80617SOL    HW143690  10.416   6.549   1.586
80617SOL    HW243691  10.280   6.491   1.554
80618SOL     OW43692   9.585   6.016  11.822
80618SOL    HW143693   9.539   6.086  11.869
80618SOL    HW243694   9.514   5.961  11.787
80619SOL     OW43695  11.034   9.063  14.423
80619SOL    HW143696  10.991   9.149  14.424
80619SOL    HW243697  11.021   9.029  14.511
80620SOL     OW43698  11.962   0.536   7.698
80620SOL    HW143699  12.013   0.514   7.620
80620SOL    HW243700  11.886   0.477   7.694
80621SOL     OW43701   8.000   8.095  13.291
80621SOL    HW143702   8.017   8.071  13.200
80621SOL    HW243703   7.992   8.012  13.337
80622SOL     OW43704   5.726   1.119  13.554
80622SOL    HW143705   5.738   1.048  13.617
80622SOL    HW243706   5.800   1.177  13.570
80623SOL     OW43707   9.606  10.481  11.007
80623SOL    HW143708   9.515  10.459  10.989
80623SOL    HW243709   9.602  10.566  11.051
80624SOL     OW43710  10.775   0.905  11.359
80624SOL    HW143711  10.775   0.814  11.386
80624SOL    HW243712  10.867   0.931  11.361
80625SOL     OW43713   7.130   3.201   6.816
80625SOL    HW143714   7.038   3.213   6.795
80625SOL    HW243715   7.136   3.223   6.909
80626SOL     OW43716   4.254   8.465  12.476
80626SOL    HW143717   4.173   8.431  12.437
80626SOL    HW243718   4.226   8.501  12.560
80627SOL     OW43719  11.175   3.335   2.598
80627SOL    HW143720  11.251   3.335   2.656
80627SOL    HW243721  11.181   3.417   2.549
80628SOL     OW43722   4.341  14.582  12.757
80628SOL    HW143723   4.426  14.562  12.717
80628SOL    HW243724   4.325  14.674  12.736
80629SOL     OW43725  14.356   7.214   8.312
80629SOL    HW143726  14.283   7.197   8.251
80629SOL    HW243727  14.365   7.310   8.312
80630SOL     OW43728   8.562  12.027   7.752
80630SOL    HW143729   8.578  12.114   7.714
80630SOL    HW243730   8.585  12.036   7.844
80631SOL     OW43731   6.810   7.338  10.300
80631SOL    HW143732   6.814   7.289  10.218
80631SOL    HW243733   6.856   7.420  10.281
80632SOL     OW43734  10.549   5.733   8.236
80632SOL    HW143735  10.469   5.682   8.240
80632SOL    HW243736  10.521   5.823   8.251
80633SOL     OW43737   6.614   9.915   4.419
80633SOL    HW143738   6.610   9.957   4.333
80633SOL    HW243739   6.695   9.865   4.417
80634SOL     OW43740   1.632   4.734   8.700
80634SOL    HW143741   1.612   4.701   8.787
80634SOL    HW243742   1.551   4.721   8.650
80635SOL     OW43743  10.125   5.382   4.099
80635SOL    HW143744  10.218   5.366   4.113
80635SOL    HW243745  10.103   5.453   4.159
80636SOL     OW43746   7.496   0.256   7.414
80636SOL    HW143747   7.537   0.207   7.343
80636SOL    HW243748   7.552   0.333   7.425
80637SOL     OW43749   4.044   0.142   1.263
80637SOL    HW143750   4.048   0.109   1.353
80637SOL    HW243751   3.970   0.096   1.224
80638SOL     OW43752  14.433   2.874   0.910
80638SOL    HW143753  14.374   2.837   0.974
80638SOL    HW243754  14.478   2.799   0.871
80639SOL     OW43755   2.260   7.116  11.555
80639SOL    HW143756   2.320   7.105  11.481
80639SOL    HW243757   2.311   7.087  11.631
80640SOL     OW43758   2.891   7.193   5.147
80640SOL    HW143759   2.814   7.203   5.202
80640SOL    HW243760   2.959   7.243   5.190
80641SOL     OW43761   2.995   1.332  13.629
80641SOL    HW143762   3.049   1.266  13.672
80641SOL    HW243763   2.995   1.406  13.690
80642SOL     OW43764   7.113   2.232  10.989
80642SOL    HW143765   7.151   2.293  11.053
80642SOL    HW243766   7.188   2.194  10.944
80643SOL     OW43767   5.945   2.103  14.795
80643SOL    HW143768   5.904   2.036  14.849
80643SOL    HW243769   5.876   2.134  14.737
80644SOL     OW43770  12.506  13.393   7.601
80644SOL    HW143771  12.563  13.431   7.667
80644SOL    HW243772  12.562  13.328   7.557
80645SOL     OW43773   2.406   6.385   1.264
80645SOL    HW143774   2.459   6.341   1.331
80645SOL    HW243775   2.465   6.397   1.190
80646SOL     OW43776   3.977   1.523   4.492
80646SOL    HW143777   3.931   1.444   4.519
80646SOL    HW243778   4.021   1.553   4.572
80647SOL     OW43779   0.525   2.856  13.522
80647SOL    HW143780   0.550   2.904  13.601
80647SOL    HW243781   0.433   2.833  13.535
80648SOL     OW43782   3.146   3.461   0.564
80648SOL    HW143783   3.062   3.504   0.583
80648SOL    HW243784   3.124   3.393   0.500
80649SOL     OW43785   2.277  10.215   2.040
80649SOL    HW143786   2.233  10.273   1.977
80649SOL    HW243787   2.330  10.156   1.986
80650SOL     OW43788   0.770  12.751   1.767
80650SOL    HW143789   0.704  12.821   1.762
80650SOL    HW243790   0.756  12.699   1.688
80651SOL     OW43791   0.993  12.111   3.172
80651SOL    HW143792   1.011  12.084   3.262
80651SOL    HW243793   1.080  12.126   3.134
80652SOL     OW43794   6.899   1.463   5.254
80652SOL    HW143795   6.946   1.381   5.243
80652SOL    HW243796   6.818   1.439   5.297
80653SOL     OW43797   7.418  13.579   2.222
80653SOL    HW143798   7.416  13.653   2.282
80653SOL    HW243799   7.445  13.504   2.276
80654SOL     OW43800  12.248   8.532  14.869
80654SOL    HW143801  12.175   8.537  14.807
80654SOL    HW243802  12.313   8.594  14.834
80655SOL     OW43803   1.086   1.353   2.401
80655SOL    HW143804   1.038   1.427   2.438
80655SOL    HW243805   1.082   1.285   2.468
80656SOL     OW43806  11.837   7.776   4.186
80656SOL    HW143807  11.811   7.687   4.159
80656SOL    HW243808  11.755   7.819   4.209
80657SOL     OW43809   2.295   6.829  11.596
80657SOL    HW143810   2.267   6.844  11.506
80657SOL    HW243811   2.389   6.844  11.595
80658SOL     OW43812  11.738   7.417  10.808
80658SOL    HW143813  11.722   7.506  10.839
80658SOL    HW243814  11.788   7.429  10.727
80659SOL     OW43815  11.730   1.625   9.848
80659SOL    HW143816  11.648   1.581   9.825
80659SOL    HW243817  11.743   1.688   9.778
80660SOL     OW43818   0.917  12.397  12.193
80660SOL    HW143819   0.829  12.416  12.160
80660SOL    HW243820   0.948  12.324  12.139
80661SOL     OW43821  13.607   8.395   2.922
80661SOL    HW143822  13.622   8.489   2.925
80661SOL    HW243823  13.669   8.358   2.985
80662SOL     OW43824   8.583   2.811   1.514
80662SOL    HW143825   8.543   2.861   1.585
80662SOL    HW243826   8.600   2.876   1.445
80663SOL     OW43827   7.340  14.378  13.897
80663SOL    HW143828   7.395  14.435  13.950
80663SOL    HW243829   7.264  14.431  13.874
80664SOL     OW43830   0.412  13.228  11.755
80664SOL    HW143831   0.381  13.318  11.756
80664SOL    HW243832   0.346  13.181  11.704
80665SOL     OW43833   9.024   1.421   2.493
80665SOL    HW143834   9.109   1.383   2.518
80665SOL    HW243835   9.046   1.509   2.460
80666SOL     OW43836  14.748   3.461   3.899
80666SOL    HW143837  14.685   3.503   3.959
80666SOL    HW243838  14.737   3.368   3.916
80667SOL     OW43839   6.841   6.264   3.824
80667SOL    HW143840   6.805   6.243   3.910
80667SOL    HW243841   6.813   6.353   3.808
80668SOL     OW43842  14.267   1.268   4.033
80668SOL    HW143843  14.175   1.249   4.051
80668SOL    HW243844  14.309   1.263   4.119
80669SOL     OW43845   5.330   1.621  14.863
80669SOL    HW143846   5.320   1.564  14.787
80669SOL    HW243847   5.250   1.674  14.864
80670SOL     OW43848   4.663  10.691  13.757
80670SOL    HW143849   4.572  10.687  13.728
80670SOL    HW243850   4.702  10.610  13.724
80671SOL     OW43851   0.441   9.901  14.684
80671SOL    HW143852   0.446   9.987  14.726
80671SOL    HW243853   0.456   9.839  14.755
80672SOL     OW43854  12.554   2.124  14.564
80672SOL    HW143855  12.576   2.084  14.648
80672SOL    HW243856  12.509   2.055  14.516
80673SOL     OW43857   7.936  14.754   4.991
80673SOL    HW143858   8.017  14.805   4.995
80673SOL    HW243859   7.932  14.724   4.900
80674SOL     OW43860   0.787  13.073   5.870
80674SOL    HW143861   0.743  13.044   5.790
80674SOL    HW243862   0.876  13.039   5.862
80675SOL     OW43863   8.782   5.684   3.396
80675SOL    HW143864   8.855   5.647   3.346
80675SOL    HW243865   8.721   5.611   3.406
80676SOL     OW43866   0.994   9.402  11.242
80676SOL    HW143867   0.917   9.438  11.287
80676SOL    HW243868   0.959   9.332  11.187
80677SOL     OW43869  10.272  11.863   0.853
80677SOL    HW143870  10.273  11.924   0.779
80677SOL    HW243871  10.201  11.894   0.909
80678SOL     OW43872   2.793  12.170   2.171
80678SOL    HW143873   2.736  12.243   2.145
80678SOL    HW243874   2.806  12.120   2.090
80679SOL     OW43875   1.217   9.237   3.013
80679SOL    HW143876   1.221   9.245   3.108
80679SOL    HW243877   1.124   9.240   2.993
80680SOL     OW43878  11.030   8.896   2.711
80680SOL    HW143879  11.094   8.825   2.715
80680SOL    HW243880  10.961   8.869   2.772
80681SOL     OW43881   8.633  11.428   3.170
80681SOL    HW143882   8.655  11.453   3.080
80681SOL    HW243883   8.625  11.332   3.166
80682SOL     OW43884   9.308   4.530   8.115
80682SOL    HW143885   9.299   4.434   8.113
80682SOL    HW243886   9.218   4.562   8.123
80683SOL     OW43887   3.030   7.733   5.392
80683SOL    HW143888   2.997   7.733   5.481
80683SOL    HW243889   3.123   7.710   5.401
80684SOL     OW43890   1.281   5.655  14.246
80684SOL    HW143891   1.352   5.702  14.202
80684SOL    HW243892   1.204   5.711  14.235
80685SOL     OW43893  11.666  10.450   9.255
80685SOL    HW143894  11.659  10.439   9.350
80685SOL    HW243895  11.614  10.528   9.236
80686SOL     OW43896   9.913   0.239   1.028
80686SOL    HW143897   9.994   0.263   1.072
80686SOL    HW243898   9.844   0.271   1.086
80687SOL     OW43899  12.197   8.265  11.654
80687SOL    HW143900  12.290   8.256  11.677
80687SOL    HW243901  12.158   8.181  11.678
80688SOL     OW43902   6.068   1.438  11.994
80688SOL    HW143903   6.019   1.375  11.940
80688SOL    HW243904   6.087   1.510  11.934
80689SOL     OW43905   9.296   8.406  12.680
80689SOL    HW143906   9.367   8.468  12.697
80689SOL    HW243907   9.326   8.354  12.606
80690SOL     OW43908   5.998   8.141   4.644
80690SOL    HW143909   6.025   8.110   4.731
80690SOL    HW243910   6.034   8.075   4.584
80691SOL     OW43911   8.459   2.781  10.472
80691SOL    HW143912   8.450   2.688  10.450
80691SOL    HW243913   8.376   2.804  10.512
80692SOL     OW43914  13.819   0.089   4.945
80692SOL    HW143915  13.799   0.183   4.951
80692SOL    HW243916  13.908   0.082   4.981
80693SOL     OW43917  11.193  13.795  10.298
80693SOL    HW143918  11.260  13.774  10.233
80693SOL    HW243919  11.115  13.815  10.247
80694SOL     OW43920   4.788   8.545  13.253
80694SOL    HW143921   4.850   8.491  13.204
80694SOL    HW243922   4.702   8.519  13.220
80695SOL     OW43923   3.959  12.455   3.320
80695SOL    HW143924   3.881  12.455   3.265
80695SOL    HW243925   4.024  12.506   3.270
80696SOL     OW43926  13.915   4.921   5.422
80696SOL    HW143927  13.851   4.987   5.449
80696SOL    HW243928  13.877   4.838   5.450
80697SOL     OW43929   9.492   8.362   3.909
80697SOL    HW143930   9.472   8.383   4.000
80697SOL    HW243931   9.413   8.387   3.861
80698SOL     OW43932   1.899   0.675   4.255
80698SOL    HW143933   1.942   0.760   4.248
80698SOL    HW243934   1.822   0.691   4.310
80699SOL     OW43935  11.596   1.743   2.195
80699SOL    HW143936  11.581   1.737   2.101
80699SOL    HW243937  11.691   1.751   2.204
80700SOL     OW43938   2.996  10.395  14.869
80700SOL    HW143939   3.047  10.335  14.813
80700SOL    HW243940   3.059  10.425   0.061
80701SOL     OW43941  10.255   3.045   4.890
80701SOL    HW143942  10.162   3.060   4.902
80701SOL    HW243943  10.263   2.950   4.879
80702SOL     OW43944   7.992   0.358  12.753
80702SOL    HW143945   7.979   0.354  12.848
80702SOL    HW243946   8.031   0.444  12.737
80703SOL     OW43947   3.730   4.318  11.243
80703SOL    HW143948   3.786   4.394  11.256
80703SOL    HW243949   3.786   4.252  11.203
80704SOL     OW43950   0.396   2.156   7.589
80704SOL    HW143951   0.360   2.082   7.540
80704SOL    HW243952   0.488   2.133   7.604
80705SOL     OW43953   5.568  14.795  11.519
80705SOL    HW143954   5.573  14.864  11.452
80705SOL    HW243955   5.496  14.823  11.576
80706SOL     OW43956   2.479  11.529   6.215
80706SOL    HW143957   2.422  11.604   6.203
80706SOL    HW243958   2.504  11.531   6.308
80707SOL     OW43959   3.146  14.087   4.098
80707SOL    HW143960   3.206  14.104   4.026
80707SOL    HW243961   3.154  14.164   4.155
80708SOL     OW43962   9.958   8.343  10.192
80708SOL    HW143963  10.012   8.411  10.150
80708SOL    HW243964   9.885   8.331  10.132
80709SOL     OW43965  12.251  10.071  12.824
80709SOL    HW143966  12.245  10.166  12.818
80709SOL    HW243967  12.343  10.054  12.847
80710SOL     OW43968   4.089   4.599  13.864
80710SOL    HW143969   4.013   4.645  13.827
80710SOL    HW243970   4.050   4.535  13.924
80711SOL     OW43971  12.888   7.654   4.725
80711SOL    HW143972  12.857   7.715   4.792
80711SOL    HW243973  12.832   7.577   4.735
80712SOL     OW43974   8.492   9.908   5.782
80712SOL    HW143975   8.492  10.004   5.781
80712SOL    HW243976   8.404   9.884   5.810
80713SOL     OW43977   8.795   8.678   2.667
80713SOL    HW143978   8.882   8.660   2.704
80713SOL    HW243979   8.756   8.592   2.655
80714SOL     OW43980  11.902   4.002  13.231
80714SOL    HW143981  11.940   4.073  13.284
80714SOL    HW243982  11.830   4.044  13.183
80715SOL     OW43983  11.740  12.546  11.363
80715SOL    HW143984  11.820  12.592  11.389
80715SOL    HW243985  11.679  12.560  11.436
80716SOL     OW43986  12.209   0.581  12.174
80716SOL    HW143987  12.141   0.547  12.232
80716SOL    HW243988  12.225   0.670  12.205
80717SOL     OW43989   6.330  14.191   1.107
80717SOL    HW143990   6.382  14.229   1.036
80717SOL    HW243991   6.388  14.128   1.149
80718SOL     OW43992  12.860  12.154   5.960
80718SOL    HW143993  12.936  12.155   5.902
80718SOL    HW243994  12.852  12.243   5.992
80719SOL     OW43995   0.782   5.057  11.210
80719SOL    HW143996   0.820   5.142  11.190
80719SOL    HW243997   0.786   5.009  11.127
80720SOL     OW43998   8.278   5.468  10.040
80720SOL    HW143999   8.305   5.554  10.008
80720SOL    HW244000   8.350   5.439  10.096
80721SOL     OW44001   3.641   4.370  14.525
80721SOL    HW144002   3.569   4.330  14.476
80721SOL    HW244003   3.602   4.398  14.607
80722SOL     OW44004   4.531   2.274   1.824
80722SOL    HW144005   4.544   2.368   1.836
80722SOL    HW244006   4.598   2.250   1.759
80723SOL     OW44007   4.060   1.497  12.521
80723SOL    HW144008   4.112   1.417  12.512
80723SOL    HW244009   4.096   1.540  12.598
80724SOL     OW44010  13.312  12.996  12.511
80724SOL    HW144011  13.384  12.934  12.497
80724SOL    HW244012  13.325  13.027  12.601
80725SOL     OW44013  10.891  14.395   6.320
80725SOL    HW144014  10.976  14.437   6.335
80725SOL    HW244015  10.879  14.399   6.225
80726SOL     OW44016  10.523  11.577   5.697
80726SOL    HW144017  10.443  11.538   5.663
80726SOL    HW244018  10.586  11.568   5.626
80727SOL     OW44019   0.207  12.169   5.659
80727SOL    HW144020   0.273  12.170   5.728
80727SOL    HW244021   0.124  12.180   5.706
80728SOL     OW44022  11.194  14.508   7.425
80728SOL    HW144023  11.119  14.457   7.456
80728SOL    HW244024  11.225  14.554   7.503
80729SOL     OW44025   6.312   5.253   4.557
80729SOL    HW144026   6.331   5.264   4.463
80729SOL    HW244027   6.242   5.316   4.575
80730SOL     OW44028   6.824  10.230   7.600
80730SOL    HW144029   6.863  10.155   7.554
80730SOL    HW244030   6.867  10.230   7.685
80731SOL     OW44031  11.152   1.991   2.669
80731SOL    HW144032  11.175   2.083   2.658
80731SOL    HW244033  11.068   1.982   2.625
80732SOL     OW44034   0.371  12.786   7.532
80732SOL    HW144035   0.285  12.788   7.490
80732SOL    HW244036   0.434  12.788   7.460
80733SOL     OW44037   5.665   0.803  10.339
80733SOL    HW144038   5.624   0.867  10.397
80733SOL    HW244039   5.639   0.718  10.375
80734SOL     OW44040   2.524   2.258   4.523
80734SOL    HW144041   2.596   2.271   4.586
80734SOL    HW244042   2.494   2.169   4.539
80735SOL     OW44043   5.208   7.692   7.348
80735SOL    HW144044   5.228   7.774   7.304
80735SOL    HW244045   5.294   7.651   7.363
80736SOL     OW44046   3.906   4.359  14.416
80736SOL    HW144047   3.820   4.399  14.428
80736SOL    HW244048   3.930   4.330  14.504
80737SOL     OW44049   0.648   4.421   5.060
80737SOL    HW144050   0.714   4.482   5.028
80737SOL    HW244051   0.678   4.335   5.030
80738SOL     OW44052   1.477  11.330  11.974
80738SOL    HW144053   1.465  11.356  11.883
80738SOL    HW244054   1.389  11.309  12.005
80739SOL     OW44055   5.258   9.593   4.066
80739SOL    HW144056   5.205   9.672   4.060
80739SOL    HW244057   5.214   9.530   4.009
80740SOL     OW44058   6.024  10.544  10.017
80740SOL    HW144059   6.026  10.448  10.014
80740SOL    HW244060   5.956  10.565  10.082
80741SOL     OW44061   9.725   1.593  11.503
80741SOL    HW144062   9.809   1.625  11.536
80741SOL    HW244063   9.738   1.499  11.491
80742SOL     OW44064   1.766   1.074   4.062
80742SOL    HW144065   1.859   1.054   4.060
80742SOL    HW244066   1.741   1.064   4.154
80743SOL     OW44067  14.746   6.383   4.874
80743SOL    HW144068  14.692   6.333   4.935
80743SOL    HW244069  14.692   6.391   4.795
80744SOL     OW44070   0.208   1.872   9.124
80744SOL    HW144071   0.155   1.827   9.189
80744SOL    HW244072   0.273   1.920   9.176
80745SOL     OW44073   1.602   2.595   1.218
80745SOL    HW144074   1.556   2.633   1.294
80745SOL    HW244075   1.694   2.616   1.233
80746SOL     OW44076  14.001   1.481  11.609
80746SOL    HW144077  14.082   1.431  11.601
80746SOL    HW244078  14.029   1.571  11.622
80747SOL     OW44079  12.506   1.480   8.936
80747SOL    HW144080  12.545   1.531   8.865
80747SOL    HW244081  12.552   1.508   9.014
80748SOL     OW44082   4.523   2.374   2.337
80748SOL    HW144083   4.470   2.426   2.398
80748SOL    HW244084   4.462   2.311   2.299
80749SOL     OW44085  11.408  11.005   4.999
80749SOL    HW144086  11.394  10.911   5.014
80749SOL    HW244087  11.327  11.046   5.030
80750SOL     OW44088   3.443  13.364   1.653
80750SOL    HW144089   3.382  13.429   1.689
80750SOL    HW244090   3.400  13.280   1.667
80751SOL     OW44091  10.441   8.573   5.957
80751SOL    HW144092  10.392   8.655   5.961
80751SOL    HW244093  10.533   8.600   5.961
80752SOL     OW44094   9.994   9.748   6.165
80752SOL    HW144095  10.029   9.674   6.215
80752SOL    HW244096  10.063   9.771   6.104
80753SOL     OW44097  11.741  13.178   0.117
80753SOL    HW144098  11.691  13.159   0.038
80753SOL    HW244099  11.733  13.273   0.129
80754SOL     OW44100   8.531   7.755   6.485
80754SOL    HW144101   8.578   7.747   6.402
80754SOL    HW244102   8.600   7.768   6.550
80755SOL     OW44103  12.288  13.492   9.633
80755SOL    HW144104  12.239  13.564   9.673
80755SOL    HW244105  12.369  13.533   9.601
80756SOL     OW44106  10.410  14.780  11.825
80756SOL    HW144107  10.484  14.765  11.766
80756SOL    HW244108  10.418  14.873  11.848
80757SOL     OW44109  14.536   4.933   4.910
80757SOL    HW144110  14.478   4.905   4.981
80757SOL    HW244111  14.482   4.923   4.831
80758SOL     OW44112   9.667   8.196  11.904
80758SOL    HW144113   9.673   8.101  11.898
80758SOL    HW244114   9.660   8.225  11.813
80759SOL     OW44115   8.136   6.390   8.333
80759SOL    HW144116   8.148   6.485   8.330
80759SOL    HW244117   8.224   6.355   8.318
80760SOL     OW44118  14.642   0.048   8.960
80760SOL    HW144119  14.691   0.090   9.031
80760SOL    HW244120  14.573  14.872   9.003
80761SOL     OW44121   5.334  11.603   8.650
80761SOL    HW144122   5.394  11.678   8.655
80761SOL    HW244123   5.251  11.640   8.621
80762SOL     OW44124   0.526  10.793   3.919
80762SOL    HW144125   0.546  10.884   3.941
80762SOL    HW244126   0.435  10.781   3.946
80763SOL     OW44127   2.209  10.544   0.710
80763SOL    HW144128   2.215  10.609   0.780
80763SOL    HW244129   2.120  10.553   0.676
80764SOL     OW44130   2.519   2.473   6.099
80764SOL    HW144131   2.535   2.550   6.044
80764SOL    HW244132   2.469   2.413   6.044
80765SOL     OW44133  13.521  13.196   5.661
80765SOL    HW144134  13.475  13.279   5.661
80765SOL    HW244135  13.602  13.213   5.612
80766SOL     OW44136  14.551   4.901  10.666
80766SOL    HW144137  14.570   4.918  10.573
80766SOL    HW244138  14.603   4.824  10.687
80767SOL     OW44139   6.144  11.840  13.793
80767SOL    HW144140   6.214  11.884  13.744
80767SOL    HW244141   6.063  11.872  13.753
80768SOL     OW44142   7.375   7.156   1.204
80768SOL    HW144143   7.350   7.064   1.215
80768SOL    HW244144   7.470   7.155   1.204
80769SOL     OW44145  14.779  11.180  12.352
80769SOL    HW144146  14.862  11.219  12.377
80769SOL    HW244147  14.786  11.168  12.257
80770SOL     OW44148  10.313   1.551  11.293
80770SOL    HW144149  10.236   1.605  11.275
80770SOL    HW244150  10.280   1.461  11.292
80771SOL     OW44151   0.815   8.370  10.293
80771SOL    HW144152   0.903   8.334  10.291
80771SOL    HW244153   0.810   8.416  10.377
80772SOL     OW44154   8.777   2.695   3.139
80772SOL    HW144155   8.683   2.688   3.123
80772SOL    HW244156   8.800   2.784   3.110
80773SOL     OW44157   9.218  14.306  12.978
80773SOL    HW144158   9.249  14.275  13.063
80773SOL    HW244159   9.123  14.311  12.988
80774SOL     OW44160   9.923   0.428   2.798
80774SOL    HW144161   9.840   0.381   2.788
80774SOL    HW244162   9.952   0.404   2.886
80775SOL     OW44163   0.578   8.820   5.081
80775SOL    HW144164   0.582   8.730   5.113
80775SOL    HW244165   0.641   8.823   5.010
80776SOL     OW44166  13.707  11.073   4.424
80776SOL    HW144167  13.698  11.093   4.517
80776SOL    HW244168  13.730  11.156   4.383
80777SOL     OW44169  14.557   9.970   5.551
80777SOL    HW144170  14.543   9.879   5.526
80777SOL    HW244171  14.631   9.999   5.497
80778SOL     OW44172   5.702  13.748   3.345
80778SOL    HW144173   5.645  13.674   3.323
80778SOL    HW244174   5.708  13.799   3.264
80779SOL     OW44175  10.319  13.438   1.730
80779SOL    HW144176  10.319  13.525   1.690
80779SOL    HW244177  10.294  13.454   1.821
80780SOL     OW44178  10.613   8.227   9.032
80780SOL    HW144179  10.594   8.151   8.978
80780SOL    HW244180  10.529   8.251   9.071
80781SOL     OW44181   3.980  14.575   0.524
80781SOL    HW144182   3.994  14.485   0.494
80781SOL    HW244183   3.926  14.615   0.456
80782SOL     OW44184   7.826   1.668  11.931
80782SOL    HW144185   7.904   1.708  11.970
80782SOL    HW244186   7.753   1.708  11.978
80783SOL     OW44187   8.883   2.084   3.003
80783SOL    HW144188   8.925   2.168   2.987
80783SOL    HW244189   8.884   2.075   3.099
80784SOL     OW44190  10.644   5.731   5.240
80784SOL    HW144191  10.657   5.762   5.151
80784SOL    HW244192  10.594   5.650   5.231
80785SOL     OW44193  14.477  12.762  14.538
80785SOL    HW144194  14.538  12.693  14.513
80785SOL    HW244195  14.514  12.841  14.498
80786SOL     OW44196  10.104   4.762   7.172
80786SOL    HW144197  10.093   4.675   7.210
80786SOL    HW244198  10.139   4.815   7.244
80787SOL     OW44199  12.636  10.894   9.593
80787SOL    HW144200  12.701  10.961   9.616
80787SOL    HW244201  12.587  10.880   9.674
80788SOL     OW44202  11.997   7.542   8.021
80788SOL    HW144203  11.969   7.609   8.083
80788SOL    HW244204  12.029   7.470   8.075
80789SOL     OW44205   6.399   2.335   7.953
80789SOL    HW144206   6.418   2.325   7.860
80789SOL    HW244207   6.341   2.411   7.958
80790SOL     OW44208  11.533  13.097   7.788
80790SOL    HW144209  11.540  13.106   7.693
80790SOL    HW244210  11.620  13.068   7.816
80791SOL     OW44211  12.705  14.533  14.718
80791SOL    HW144212  12.627  14.480  14.701
80791SOL    HW244213  12.723  14.576  14.634
80792SOL     OW44214   2.858  11.356  13.431
80792SOL    HW144215   2.765  11.376  13.445
80792SOL    HW244216   2.886  11.418  13.363
80793SOL     OW44217   4.826   6.436   7.821
80793SOL    HW144218   4.807   6.354   7.774
80793SOL    HW244219   4.775   6.429   7.901
80794SOL     OW44220   2.772   7.608   1.191
80794SOL    HW144221   2.696   7.555   1.171
80794SOL    HW244222   2.746   7.661   1.267
80795SOL     OW44223   1.089   9.916  11.180
80795SOL    HW144224   1.180   9.892  11.161
80795SOL    HW244225   1.037   9.856  11.126
80796SOL     OW44226   0.869   1.911   5.711
80796SOL    HW144227   0.891   1.996   5.673
80796SOL    HW244228   0.784   1.925   5.753
80797SOL     OW44229   0.531   7.647   0.569
80797SOL    HW144230   0.479   7.658   0.648
80797SOL    HW244231   0.621   7.642   0.599
80798SOL     OW44232   5.285   4.336   9.657
80798SOL    HW144233   5.325   4.257   9.621
80798SOL    HW244234   5.355   4.379   9.706
80799SOL     OW44235  13.534   2.856  13.576
80799SOL    HW144236  13.569   2.863  13.664
80799SOL    HW244237  13.465   2.923  13.572
80800SOL     OW44238   3.708   2.496  11.841
80800SOL    HW144239   3.640   2.436  11.810
80800SOL    HW244240   3.686   2.512  11.933
80801SOL     OW44241   0.180  11.833  10.058
80801SOL    HW144242   0.154  11.750  10.098
80801SOL    HW244243   0.163  11.820   9.964
80802SOL     OW44244   3.141  12.813   9.286
80802SOL    HW144245   3.193  12.884   9.322
80802SOL    HW244246   3.179  12.796   9.200
80803SOL     OW44247  11.346   7.892   9.530
80803SOL    HW144248  11.300   7.960   9.579
80803SOL    HW244249  11.301   7.888   9.446
80804SOL     OW44250   3.949   7.732   7.032
80804SOL    HW144251   3.865   7.721   6.987
80804SOL    HW244252   4.009   7.677   6.982
80805SOL     OW44253  13.037   4.692   2.532
80805SOL    HW144254  13.079   4.720   2.450
80805SOL    HW244255  12.944   4.709   2.519
80806SOL     OW44256   1.227  10.153   1.059
80806SOL    HW144257   1.142  10.119   1.087
80806SOL    HW244258   1.274  10.170   1.141
80807SOL     OW44259   9.156   3.848  10.582
80807SOL    HW144260   9.214   3.797  10.526
80807SOL    HW244261   9.208   3.923  10.609
80808SOL     OW44262   2.762   8.765   0.052
80808SOL    HW144263   2.831   8.806   0.105
80808SOL    HW244264   2.720   8.702   0.110
80809SOL     OW44265   3.944   5.581   8.089
80809SOL    HW144266   3.883   5.655   8.099
80809SOL    HW244267   3.890   5.510   8.055
80810SOL     OW44268   6.217   8.761  11.841
80810SOL    HW144269   6.192   8.687  11.897
80810SOL    HW244270   6.202   8.729  11.752
80811SOL     OW44271  10.391   8.703  13.420
80811SOL    HW144272  10.317   8.714  13.479
80811SOL    HW244273  10.352   8.687  13.334
80812SOL     OW44274   5.207  12.435   5.659
80812SOL    HW144275   5.170  12.383   5.587
80812SOL    HW244276   5.297  12.453   5.632
80813SOL     OW44277   6.584   2.407   8.815
80813SOL    HW144278   6.633   2.462   8.877
80813SOL    HW244279   6.571   2.324   8.863
80814SOL     OW44280  13.555   6.846  10.753
80814SOL    HW144281  13.578   6.784  10.685
80814SOL    HW244282  13.553   6.931  10.709
80815SOL     OW44283   4.113   5.417   2.683
80815SOL    HW144284   4.125   5.332   2.727
80815SOL    HW244285   4.024   5.414   2.648
80816SOL     OW44286   4.932   1.560   9.971
80816SOL    HW144287   4.874   1.488   9.997
80816SOL    HW244288   4.926   1.562   9.875
80817SOL     OW44289   8.886   8.332   5.569
80817SOL    HW144290   8.922   8.246   5.593
80817SOL    HW244291   8.963   8.388   5.561
80818SOL     OW44292   5.880   6.028   2.150
80818SOL    HW144293   5.915   5.968   2.216
80818SOL    HW244294   5.839   5.970   2.085
80819SOL     OW44295   0.582   9.992   8.687
80819SOL    HW144296   0.570  10.085   8.668
80819SOL    HW244297   0.676   9.980   8.694
80820SOL     OW44298   4.934  14.748   6.234
80820SOL    HW144299   4.952  14.661   6.199
80820SOL    HW244300   4.995  14.806   6.188
80821SOL     OW44301   5.942  10.008   8.264
80821SOL    HW144302   5.958  10.080   8.203
80821SOL    HW244303   5.847   9.999   8.266
80822SOL     OW44304   4.014   1.292   7.179
80822SOL    HW144305   4.055   1.364   7.226
80822SOL    HW244306   3.944   1.332   7.128
80823SOL     OW44307   2.490   7.108   7.406
80823SOL    HW144308   2.478   7.203   7.398
80823SOL    HW244309   2.406   7.077   7.441
80824SOL     OW44310   5.256  14.438  10.224
80824SOL    HW144311   5.236  14.412  10.314
80824SOL    HW244312   5.174  14.424  10.176
80825SOL     OW44313   9.998   2.584   6.832
80825SOL    HW144314   9.934   2.610   6.898
80825SOL    HW244315  10.083   2.603   6.871
80826SOL     OW44316  12.777  11.426   7.750
80826SOL    HW144317  12.741  11.417   7.662
80826SOL    HW244318  12.752  11.345   7.795
80827SOL     OW44319  11.216   4.212  12.240
80827SOL    HW144320  11.288   4.154  12.265
80827SOL    HW244321  11.244   4.299  12.270
80828SOL     OW44322   2.485   3.525   0.582
80828SOL    HW144323   2.547   3.483   0.641
80828SOL    HW244324   2.411   3.466   0.578
80829SOL     OW44325  13.585   6.954  11.526
80829SOL    HW144326  13.493   6.928  11.529
80829SOL    HW244327  13.600   6.980  11.436
80830SOL     OW44328   9.802   2.962   1.312
80830SOL    HW144329   9.882   2.989   1.358
80830SOL    HW244330   9.818   2.871   1.288
80831SOL     OW44331   2.503  11.729  10.363
80831SOL    HW144332   2.510  11.635  10.350
80831SOL    HW244333   2.411  11.750  10.343
80832SOL     OW44334   6.430  12.360   6.790
80832SOL    HW144335   6.360  12.373   6.854
80832SOL    HW244336   6.390  12.378   6.705
80833SOL     OW44337   0.035  14.569  10.167
80833SOL    HW144338   0.034  14.526  10.081
80833SOL    HW244339   0.046  14.662  10.147
80834SOL     OW44340   7.022   2.488   4.225
80834SOL    HW144341   7.035   2.415   4.286
80834SOL    HW244342   7.088   2.474   4.156
80835SOL     OW44343   2.365   9.805  12.129
80835SOL    HW144344   2.441   9.863  12.124
80835SOL    HW244345   2.389   9.739  12.194
80836SOL     OW44346  12.965  14.431  11.890
80836SOL    HW144347  12.917  14.362  11.938
80836SOL    HW244348  12.998  14.387  11.812
80837SOL     OW44349   9.450   7.459   4.936
80837SOL    HW144350   9.496   7.520   4.878
80837SOL    HW244351   9.437   7.380   4.884
80838SOL     OW44352  12.084   6.093   1.357
80838SOL    HW144353  12.151   6.025   1.346
80838SOL    HW244354  12.051   6.078   1.446
80839SOL     OW44355   8.292   4.443  13.672
80839SOL    HW144356   8.343   4.437  13.753
80839SOL    HW244357   8.203   4.421  13.698
80840SOL     OW44358   2.148  11.155   4.157
80840SOL    HW144359   2.058  11.189   4.156
80840SOL    HW244360   2.202  11.228   4.127
80841SOL     OW44361   5.660  11.729  12.648
80841SOL    HW144362   5.599  11.669  12.689
80841SOL    HW244363   5.626  11.816  12.668
80842SOL     OW44364   7.097   5.104   1.672
80842SOL    HW144365   7.073   5.173   1.611
80842SOL    HW244366   7.177   5.136   1.715
80843SOL     OW44367  14.150   1.286   9.683
80843SOL    HW144368  14.115   1.349   9.746
80843SOL    HW244369  14.239   1.268   9.713
80844SOL     OW44370  12.643   3.382   4.319
80844SOL    HW144371  12.724   3.384   4.370
80844SOL    HW244372  12.618   3.475   4.311
80845SOL     OW44373  13.485   0.126   5.304
80845SOL    HW144374  13.409   0.181   5.284
80845SOL    HW244375  13.506   0.083   5.221
80846SOL     OW44376  10.896   0.931  13.605
80846SOL    HW144377  10.953   0.975  13.541
80846SOL    HW244378  10.921   0.968  13.689
80847SOL     OW44379   2.401  13.176   0.846
80847SOL    HW144380   2.325  13.201   0.898
80847SOL    HW244381   2.473  13.229   0.880
80848SOL     OW44382  13.035   5.008   1.600
80848SOL    HW144383  12.958   4.958   1.572
80848SOL    HW244384  13.014   5.098   1.577
80849SOL     OW44385  11.104  10.094   2.005
80849SOL    HW144386  11.010  10.077   2.010
80849SOL    HW244387  11.132  10.106   2.096
80850SOL     OW44388   5.416  11.447   3.792
80850SOL    HW144389   5.382  11.462   3.881
80850SOL    HW244390   5.511  11.443   3.803
80851SOL     OW44391   7.214   7.073   4.868
80851SOL    HW144392   7.193   7.166   4.854
80851SOL    HW244393   7.296   7.074   4.916
80852SOL     OW44394   7.064  10.129   0.291
80852SOL    HW144395   7.110  10.191   0.233
80852SOL    HW244396   7.004  10.184   0.341
80853SOL     OW44397   9.295   8.607  14.353
80853SOL    HW144398   9.256   8.671  14.413
80853SOL    HW244399   9.306   8.655  14.271
80854SOL     OW44400   9.663   8.320  10.201
80854SOL    HW144401   9.574   8.347  10.225
80854SOL    HW244402   9.654   8.230  10.171
80855SOL     OW44403  13.698   5.998   0.486
80855SOL    HW144404  13.724   5.906   0.489
80855SOL    HW244405  13.762   6.039   0.427
80856SOL     OW44406   6.929   0.795   7.981
80856SOL    HW144407   6.875   0.799   7.902
80856SOL    HW244408   6.871   0.756   8.048
80857SOL     OW44409   6.106   4.351   4.381
80857SOL    HW144410   6.158   4.402   4.443
80857SOL    HW244411   6.171   4.307   4.326
80858SOL     OW44412   6.772  11.178  10.761
80858SOL    HW144413   6.848  11.152  10.812
80858SOL    HW244414   6.806  11.241  10.698
80859SOL     OW44415   8.839  14.060   9.282
80859SOL    HW144416   8.860  14.110   9.203
80859SOL    HW244417   8.854  14.122   9.354
80860SOL     OW44418  13.957   1.180  13.953
80860SOL    HW144419  13.999   1.155  14.034
80860SOL    HW244420  14.024   1.230  13.905
80861SOL     OW44421  13.015   6.992   0.578
80861SOL    HW144422  13.053   7.055   0.639
80861SOL    HW244423  13.004   7.041   0.496
80862SOL     OW44424   9.837   7.029  13.272
80862SOL    HW144425   9.851   7.121  13.295
80862SOL    HW244426   9.743   7.015  13.288
80863SOL     OW44427   9.790  14.592  13.669
80863SOL    HW144428   9.733  14.666  13.688
80863SOL    HW244429   9.736  14.533  13.616
80864SOL     OW44430   0.762   4.506   2.647
80864SOL    HW144431   0.819   4.548   2.711
80864SOL    HW244432   0.723   4.432   2.693
80865SOL     OW44433   8.476   0.778  13.187
80865SOL    HW144434   8.571   0.780  13.179
80865SOL    HW244435   8.455   0.850  13.247
80866SOL     OW44436   2.136  12.991  11.278
80866SOL    HW144437   2.069  12.974  11.343
80866SOL    HW244438   2.117  12.931  11.207
80867SOL     OW44439  14.202   6.103   3.514
80867SOL    HW144440  14.123   6.060   3.479
80867SOL    HW244441  14.266   6.096   3.443
80868SOL     OW44442   3.026   4.144  11.465
80868SOL    HW144443   3.040   4.126  11.557
80868SOL    HW244444   3.110   4.125  11.423
80869SOL     OW44445   6.431   3.547  13.364
80869SOL    HW144446   6.403   3.549  13.272
80869SOL    HW244447   6.494   3.618  13.372
80870SOL     OW44448   9.503   3.440   3.160
80870SOL    HW144449   9.415   3.461   3.129
80870SOL    HW244450   9.548   3.524   3.161
80871SOL     OW44451  10.938   0.356  11.631
80871SOL    HW144452  10.885   0.397  11.699
80871SOL    HW244453  11.002   0.304  11.678
80872SOL     OW44454  10.141   1.974  13.229
80872SOL    HW144455  10.102   1.994  13.314
80872SOL    HW244456  10.186   1.890  13.243
80873SOL     OW44457  10.835  13.711  10.004
80873SOL    HW144458  10.879  13.774  10.062
80873SOL    HW244459  10.784  13.766   9.944
80874SOL     OW44460   3.973  13.323   0.268
80874SOL    HW144461   4.067  13.322   0.248
80874SOL    HW244462   3.968  13.353   0.358
80875SOL     OW44463   5.946  12.431  12.127
80875SOL    HW144464   6.025  12.464  12.086
80875SOL    HW244465   5.878  12.442  12.061
80876SOL     OW44466   8.823  14.834   1.811
80876SOL    HW144467   8.810  14.792   1.897
80876SOL    HW244468   8.905  14.797   1.778
80877SOL     OW44469  10.073   2.561   3.415
80877SOL    HW144470   9.987   2.546   3.456
80877SOL    HW244471  10.136   2.536   3.482
80878SOL     OW44472   3.911   2.335   9.020
80878SOL    HW144473   3.844   2.305   8.959
80878SOL    HW244474   3.877   2.312   9.106
80879SOL     OW44475   0.012  10.357   1.509
80879SOL    HW144476  14.803  10.398   1.535
80879SOL    HW244477   0.001  10.338   1.416
80880SOL     OW44478   8.226   7.999   8.854
80880SOL    HW144479   8.188   8.087   8.857
80880SOL    HW244480   8.244   7.977   8.945
80881SOL     OW44481  11.144   7.746  10.843
80881SOL    HW144482  11.102   7.832  10.846
80881SOL    HW244483  11.074   7.685  10.866
80882SOL     OW44484   9.708   7.776   4.876
80882SOL    HW144485   9.772   7.705   4.872
80882SOL    HW244486   9.699   7.795   4.970
80883SOL     OW44487   7.086  13.509   3.922
80883SOL    HW144488   7.174  13.525   3.887
80883SOL    HW244489   7.068  13.418   3.899
80884SOL     OW44490   5.630  14.570   6.212
80884SOL    HW144491   5.697  14.523   6.162
80884SOL    HW244492   5.580  14.618   6.146
80885SOL     OW44493   6.216   3.987   0.918
80885SOL    HW144494   6.172   3.931   0.854
80885SOL    HW244495   6.144   4.028   0.967
80886SOL     OW44496   9.834   7.527   1.232
80886SOL    HW144497   9.816   7.552   1.322
80886SOL    HW244498   9.807   7.435   1.227
80887SOL     OW44499   8.829  12.677   6.472
80887SOL    HW144500   8.791  12.643   6.391
80887SOL    HW244501   8.772  12.643   6.541
80888SOL     OW44502   7.901   2.157   1.932
80888SOL    HW144503   7.819   2.194   1.963
80888SOL    HW244504   7.967   2.224   1.954
80889SOL     OW44505  10.061  13.964  14.383
80889SOL    HW144506  10.136  13.994  14.433
80889SOL    HW244507  10.089  13.968  14.292
80890SOL     OW44508   1.866   1.619   9.445
80890SOL    HW144509   1.935   1.552   9.444
80890SOL    HW244510   1.836   1.624   9.355
80891SOL     OW44511  11.976   9.000   2.497
80891SOL    HW144512  11.979   9.010   2.402
80891SOL    HW244513  12.023   8.918   2.514
80892SOL     OW44514   2.344  11.778   8.688
80892SOL    HW144515   2.286  11.707   8.661
80892SOL    HW244516   2.361  11.827   8.608
80893SOL     OW44517   9.790   3.352  13.777
80893SOL    HW144518   9.816   3.443  13.788
80893SOL    HW244519   9.694   3.355  13.774
80894SOL     OW44520   8.363   6.385   0.046
80894SOL    HW144521   8.350   6.386  14.824
80894SOL    HW244522   8.305   6.317   0.078
80895SOL     OW44523   7.939  12.455   8.041
80895SOL    HW144524   7.946  12.541   8.000
80895SOL    HW244525   7.890  12.402   7.978
80896SOL     OW44526   3.597  10.616  10.463
80896SOL    HW144527   3.537  10.560  10.512
80896SOL    HW244528   3.541  10.660  10.399
80897SOL     OW44529   3.813   0.670   0.226
80897SOL    HW144530   3.804   0.623   0.143
80897SOL    HW244531   3.880   0.736   0.210
80898SOL     OW44532  13.502   1.165   4.924
80898SOL    HW144533  13.573   1.188   4.863
80898SOL    HW244534  13.422   1.190   4.877
80899SOL     OW44535  14.431   9.693  14.694
80899SOL    HW144536  14.456   9.601  14.686
80899SOL    HW244537  14.335   9.692  14.697
80900SOL     OW44538   1.356  12.884   0.210
80900SOL    HW144539   1.303  12.957   0.177
80900SOL    HW244540   1.444  12.920   0.216
80901SOL     OW44541  12.788   0.771   9.757
80901SOL    HW144542  12.782   0.751   9.850
80901SOL    HW244543  12.872   0.817   9.748
80902SOL     OW44544  13.746   3.386   0.526
80902SOL    HW144545  13.753   3.305   0.475
80902SOL    HW244546  13.652   3.398   0.539
80903SOL     OW44547   9.604   5.786  14.045
80903SOL    HW144548   9.692   5.792  14.009
80903SOL    HW244549   9.552   5.846  13.992
80904SOL     OW44550   5.383   4.630   3.605
80904SOL    HW144551   5.291   4.629   3.579
80904SOL    HW244552   5.431   4.619   3.523
80905SOL     OW44553   0.982   0.594  12.834
80905SOL    HW144554   1.042   0.606  12.907
80905SOL    HW244555   1.036   0.609  12.756
80906SOL     OW44556   7.575   2.298  14.432
80906SOL    HW144557   7.650   2.286  14.489
80906SOL    HW244558   7.570   2.216  14.382
80907SOL     OW44559   1.743  12.479  14.462
80907SOL    HW144560   1.669  12.450  14.409
80907SOL    HW244561   1.804  12.517  14.400
80908SOL     OW44562  12.732   2.165  12.730
80908SOL    HW144563  12.687   2.195  12.809
80908SOL    HW244564  12.729   2.069  12.736
80909SOL     OW44565  13.135   1.289  14.236
80909SOL    HW144566  13.175   1.316  14.319
80909SOL    HW244567  13.157   1.358  14.174
80910SOL     OW44568  11.761   9.212  10.810
80910SOL    HW144569  11.740   9.159  10.732
80910SOL    HW244570  11.774   9.147  10.879
80911SOL     OW44571   0.893   0.852   3.307
80911SOL    HW144572   0.874   0.891   3.392
80911SOL    HW244573   0.972   0.800   3.322
80912SOL     OW44574   8.746  10.529   7.653
80912SOL    HW144575   8.692  10.596   7.611
80912SOL    HW244576   8.770  10.469   7.582
80913SOL     OW44577   1.391  13.138   3.150
80913SOL    HW144578   1.416  13.231   3.151
80913SOL    HW244579   1.401  13.112   3.058
80914SOL     OW44580  10.320   3.403   3.550
80914SOL    HW144581  10.365   3.481   3.584
80914SOL    HW244582  10.302   3.351   3.629
80915SOL     OW44583  11.595  10.346   4.888
80915SOL    HW144584  11.548  10.422   4.853
80915SOL    HW244585  11.663  10.328   4.823
80916SOL     OW44586   1.420   8.236   5.607
80916SOL    HW144587   1.510   8.218   5.633
80916SOL    HW244588   1.385   8.290   5.678
80917SOL     OW44589   1.852   7.214   1.760
80917SOL    HW144590   1.828   7.212   1.668
80917SOL    HW244591   1.784   7.266   1.802
80918SOL     OW44592   6.914   9.605  11.402
80918SOL    HW144593   6.995   9.555  11.415
80918SOL    HW244594   6.897   9.598  11.308
80919SOL     OW44595   4.678  11.988  11.057
80919SOL    HW144596   4.602  12.007  11.002
80919SOL    HW244597   4.644  11.995  11.147
80920SOL     OW44598  14.081  13.538  11.954
80920SOL    HW144599  14.007  13.569  12.007
80920SOL    HW244600  14.087  13.445  11.975
80921SOL     OW44601   0.719   6.399   4.004
80921SOL    HW144602   0.737   6.356   3.921
80921SOL    HW244603   0.658   6.470   3.983
80922SOL     OW44604   5.431   1.300   2.003
80922SOL    HW144605   5.394   1.317   1.916
80922SOL    HW244606   5.356   1.308   2.063
80923SOL     OW44607   7.959   9.572  13.857
80923SOL    HW144608   7.919   9.648  13.813
80923SOL    HW244609   8.053   9.584  13.844
80924SOL     OW44610   8.473  14.581   1.104
80924SOL    HW144611   8.553  14.532   1.126
80924SOL    HW244612   8.455  14.633   1.182
80925SOL     OW44613  13.131   1.300  12.557
80925SOL    HW144614  13.180   1.249  12.621
80925SOL    HW244615  13.074   1.356  12.610
80926SOL     OW44616   6.223  11.821  10.676
80926SOL    HW144617   6.239  11.805  10.583
80926SOL    HW244618   6.251  11.911  10.690
80927SOL     OW44619   6.206   2.173   4.255
80927SOL    HW144620   6.289   2.131   4.232
80927SOL    HW244621   6.214   2.261   4.218
80928SOL     OW44622   1.120  11.628   2.908
80928SOL    HW144623   1.030  11.633   2.876
80928SOL    HW244624   1.119  11.557   2.972
80929SOL     OW44625   3.844   3.337   6.639
80929SOL    HW144626   3.841   3.429   6.614
80929SOL    HW244627   3.913   3.299   6.585
80930SOL     OW44628  13.492  12.632  10.532
80930SOL    HW144629  13.424  12.689  10.566
80930SOL    HW244630  13.559  12.691  10.499
80931SOL     OW44631   7.770  12.718   9.721
80931SOL    HW144632   7.740  12.808   9.710
80931SOL    HW244633   7.813  12.697   9.638
80932SOL     OW44634   3.487  13.144   6.025
80932SOL    HW144635   3.418  13.210   6.020
80932SOL    HW244636   3.536  13.154   5.943
80933SOL     OW44637  11.133  10.462   5.622
80933SOL    HW144638  11.187  10.483   5.546
80933SOL    HW244639  11.051  10.508   5.607
80934SOL     OW44640   0.323  14.339   2.851
80934SOL    HW144641   0.398  14.317   2.796
80934SOL    HW244642   0.249  14.344   2.790
80935SOL     OW44643  14.243   2.506  13.649
80935SOL    HW144644  14.217   2.531  13.560
80935SOL    HW244645  14.264   2.413  13.643
80936SOL     OW44646  12.170   8.529   1.448
80936SOL    HW144647  12.249   8.511   1.499
80936SOL    HW244648  12.198   8.527   1.357
80937SOL     OW44649   1.604   4.324  10.001
80937SOL    HW144650   1.595   4.300   9.909
80937SOL    HW244651   1.532   4.279  10.045
80938SOL     OW44652   3.887   0.045   6.733
80938SOL    HW144653   3.918   0.003   6.814
80938SOL    HW244654   3.954   0.023   6.668
80939SOL     OW44655  11.806  13.588  11.610
80939SOL    HW144656  11.860  13.666  11.597
80939SOL    HW244657  11.856  13.517  11.568
80940SOL     OW44658  11.073   6.157   5.005
80940SOL    HW144659  11.024   6.118   5.078
80940SOL    HW244660  11.046   6.249   5.004
80941SOL     OW44661  11.275   6.974   7.281
80941SOL    HW144662  11.212   7.024   7.229
80941SOL    HW244663  11.304   6.904   7.223
80942SOL     OW44664  12.117   5.188   9.745
80942SOL    HW144665  12.161   5.228   9.670
80942SOL    HW244666  12.117   5.094   9.725
80943SOL     OW44667  13.599   3.582  13.657
80943SOL    HW144668  13.543   3.633  13.716
80943SOL    HW244669  13.680   3.568  13.706
80944SOL     OW44670  14.838   9.289   6.176
80944SOL    HW144671  14.759   9.314   6.129
80944SOL    HW244672  14.807   9.255   6.260
80945SOL     OW44673   0.099  14.198   1.038
80945SOL    HW144674   0.156  14.220   0.964
80945SOL    HW244675   0.117  14.105   1.054
80946SOL     OW44676   6.700   5.145   9.083
80946SOL    HW144677   6.792   5.127   9.063
80946SOL    HW244678   6.667   5.064   9.123
80947SOL     OW44679   5.184  12.348   4.265
80947SOL    HW144680   5.217  12.433   4.235
80947SOL    HW244681   5.095  12.367   4.295
80948SOL     OW44682  14.469  13.607   6.912
80948SOL    HW144683  14.486  13.582   6.821
80948SOL    HW244684  14.377  13.632   6.912
80949SOL     OW44685   1.147   3.997  13.917
80949SOL    HW144686   1.083   4.057  13.880
80949SOL    HW244687   1.133   4.002  14.012
80950SOL     OW44688   3.870   9.768  11.739
80950SOL    HW144689   3.930   9.702  11.704
80950SOL    HW244690   3.851   9.826  11.665
80951SOL     OW44691   8.966   8.309   2.153
80951SOL    HW144692   8.998   8.399   2.158
80951SOL    HW244693   8.987   8.281   2.064
80952SOL     OW44694   9.301   1.047   0.128
80952SOL    HW144695   9.265   1.134   0.148
80952SOL    HW244696   9.252   1.019   0.050
80953SOL     OW44697   3.136   4.403   0.786
80953SOL    HW144698   3.214   4.418   0.733
80953SOL    HW244699   3.112   4.313   0.768
80954SOL     OW44700   8.583   0.835   3.619
80954SOL    HW144701   8.554   0.904   3.559
80954SOL    HW244702   8.657   0.873   3.666
80955SOL     OW44703   1.063   2.481   9.997
80955SOL    HW144704   1.109   2.426   9.934
80955SOL    HW244705   0.973   2.485   9.964
80956SOL     OW44706   0.150  11.205   5.656
80956SOL    HW144707   0.138  11.300   5.662
80956SOL    HW244708   0.203  11.182   5.732
80957SOL     OW44709   0.750   8.785   3.867
80957SOL    HW144710   0.756   8.710   3.927
80957SOL    HW244711   0.790   8.857   3.915
80958SOL     OW44712   1.075  14.483   2.008
80958SOL    HW144713   1.100  14.532   1.930
80958SOL    HW244714   1.093  14.543   2.080
80959SOL     OW44715   6.202  11.067   5.714
80959SOL    HW144716   6.241  10.999   5.770
80959SOL    HW244717   6.163  11.129   5.775
80960SOL     OW44718   4.094   0.553   7.133
80960SOL    HW144719   4.028   0.552   7.063
80960SOL    HW244720   4.147   0.631   7.115
80961SOL     OW44721   3.555   8.839   2.217
80961SOL    HW144722   3.495   8.863   2.287
80961SOL    HW244723   3.616   8.913   2.210
80962SOL     OW44724   0.741  11.775  10.738
80962SOL    HW144725   0.659  11.822  10.753
80962SOL    HW244726   0.798  11.801  10.810
80963SOL     OW44727   7.808   4.678   6.894
80963SOL    HW144728   7.850   4.760   6.917
80963SOL    HW244729   7.812   4.626   6.975
80964SOL     OW44730  11.059  12.874  13.744
80964SOL    HW144731  11.130  12.820  13.778
80964SOL    HW244732  11.016  12.909  13.821
80965SOL     OW44733  14.314  14.551   5.620
80965SOL    HW144734  14.407  14.534   5.601
80965SOL    HW244735  14.275  14.464   5.628
80966SOL     OW44736   0.002   3.517  12.396
80966SOL    HW144737  14.851   3.425  12.384
80966SOL    HW244738  14.844   3.539  12.484
80967SOL     OW44739   0.169   1.807   4.916
80967SOL    HW144740   0.164   1.771   4.828
80967SOL    HW244741   0.190   1.731   4.972
80968SOL     OW44742   0.621   9.407   2.996
80968SOL    HW144743   0.662   9.387   3.080
80968SOL    HW244744   0.531   9.431   3.019
80969SOL     OW44745  14.325  13.403   5.927
80969SOL    HW144746  14.390  13.360   5.983
80969SOL    HW244747  14.373  13.474   5.884
80970SOL     OW44748   5.734  10.671   9.117
80970SOL    HW144749   5.793  10.716   9.178
80970SOL    HW244750   5.731  10.728   9.040
80971SOL     OW44751  10.313   9.935   2.996
80971SOL    HW144752  10.240   9.874   2.988
80971SOL    HW244753  10.379   9.902   2.934
80972SOL     OW44754   8.764  12.301   4.922
80972SOL    HW144755   8.751  12.350   4.841
80972SOL    HW244756   8.747  12.364   4.991
80973SOL     OW44757  14.202   7.090   2.783
80973SOL    HW144758  14.292   7.123   2.775
80973SOL    HW244759  14.177   7.108   2.873
80974SOL     OW44760  11.792   5.787   9.383
80974SOL    HW144761  11.864   5.726   9.371
80974SOL    HW244762  11.713   5.732   9.382
80975SOL     OW44763   7.689   8.973   9.704
80975SOL    HW144764   7.777   8.984   9.740
80975SOL    HW244765   7.703   8.925   9.622
80976SOL     OW44766  10.842   2.367  12.543
80976SOL    HW144767  10.899   2.335  12.474
80976SOL    HW244768  10.835   2.461  12.527
80977SOL     OW44769   2.838   1.626  13.916
80977SOL    HW144770   2.805   1.568  13.985
80977SOL    HW244771   2.920   1.587  13.888
80978SOL     OW44772   8.079   9.250   4.934
80978SOL    HW144773   8.131   9.184   4.888
80978SOL    HW244774   8.069   9.321   4.871
80979SOL     OW44775   0.189   7.651  12.323
80979SOL    HW144776   0.150   7.725  12.276
80979SOL    HW244777   0.143   7.574  12.289
80980SOL     OW44778   5.190  10.795   1.591
80980SOL    HW144779   5.210  10.836   1.675
80980SOL    HW244780   5.152  10.710   1.614
80981SOL     OW44781   6.100  14.824   7.363
80981SOL    HW144782   6.115  14.776   7.445
80981SOL    HW244783   6.015  14.791   7.332
80982SOL     OW44784   2.998   5.166   3.826
80982SOL    HW144785   3.083   5.149   3.867
80982SOL    HW244786   2.958   5.233   3.881
80983SOL     OW44787   6.897  14.771   9.454
80983SOL    HW144788   6.830  14.702   9.450
80983SOL    HW244789   6.911  14.795   9.362
80984SOL     OW44790   7.852   1.080  12.809
80984SOL    HW144791   7.835   1.149  12.874
80984SOL    HW244792   7.878   1.005  12.862
80985SOL     OW44793   1.359   6.754   2.055
80985SOL    HW144794   1.316   6.829   2.014
80985SOL    HW244795   1.372   6.692   1.983
80986SOL     OW44796   4.160  10.455   3.127
80986SOL    HW144797   4.071  10.489   3.138
80986SOL    HW244798   4.213  10.507   3.188
80987SOL     OW44799   1.514   5.868  13.866
80987SOL    HW144800   1.547   5.957  13.876
80987SOL    HW244801   1.545   5.841  13.780
80988SOL     OW44802   9.179   6.786   4.943
80988SOL    HW144803   9.122   6.834   4.883
80988SOL    HW244804   9.236   6.734   4.886
80989SOL     OW44805   0.024   0.825   4.437
80989SOL    HW144806  14.871   0.754   4.378
80989SOL    HW244807   0.052   0.895   4.378
80990SOL     OW44808   7.645   9.073   2.019
80990SOL    HW144809   7.605   8.990   2.043
80990SOL    HW244810   7.591   9.139   2.063
80991SOL     OW44811  11.625   4.115   2.122
80991SOL    HW144812  11.703   4.083   2.077
80991SOL    HW244813  11.571   4.037   2.134
80992SOL     OW44814   4.463   3.857  10.276
80992SOL    HW144815   4.527   3.787  10.287
80992SOL    HW244816   4.407   3.851  10.354
80993SOL     OW44817   0.897   9.166  12.303
80993SOL    HW144818   0.914   9.228  12.373
80993SOL    HW244819   0.852   9.218  12.236
80994SOL     OW44820  10.456   9.045   1.887
80994SOL    HW144821  10.455   8.950   1.892
80994SOL    HW244822  10.439   9.074   1.977
80995SOL     OW44823   0.100   0.758   9.179
80995SOL    HW144824   0.141   0.765   9.265
80995SOL    HW244825   0.034   0.689   9.189
80996SOL     OW44826  13.419   0.025  10.061
80996SOL    HW144827  13.494   0.037  10.119
80996SOL    HW244828  13.454   0.039   9.973
80997SOL     OW44829   7.508   6.257   1.282
80997SOL    HW144830   7.595   6.296   1.281
80997SOL    HW244831   7.494   6.230   1.372
80998SOL     OW44832  11.967  14.673   9.332
80998SOL    HW144833  12.030  14.685   9.260
80998SOL    HW244834  11.888  14.717   9.301
80999SOL     OW44835   6.424   0.718   2.936
80999SOL    HW144836   6.334   0.701   2.908
80999SOL    HW244837   6.415   0.778   3.010
81000SOL     OW44838  10.357   7.478   8.060
81000SOL    HW144839  10.360   7.488   8.155
81000SOL    HW244840  10.323   7.562   8.028
81001SOL     OW44841  10.674   8.656  10.502
81001SOL    HW144842  10.632   8.574  10.527
81001SOL    HW244843  10.759   8.629  10.466
81002SOL     OW44844   6.228  10.639   9.870
81002SOL    HW144845   6.198  10.670   9.784
81002SOL    HW244846   6.150  10.600   9.909
81003SOL     OW44847   0.387   1.803   0.779
81003SOL    HW144848   0.451   1.828   0.846
81003SOL    HW244849   0.407   1.860   0.705
81004SOL     OW44850  12.485   8.589   6.561
81004SOL    HW144851  12.399   8.611   6.524
81004SOL    HW244852  12.495   8.647   6.636
81005SOL     OW44853   1.942   0.688   2.329
81005SOL    HW144854   1.958   0.768   2.379
81005SOL    HW244855   1.847   0.676   2.334
81006SOL     OW44856  12.517   7.073   3.532
81006SOL    HW144857  12.603   7.108   3.507
81006SOL    HW244858  12.536   6.990   3.574
81007SOL     OW44859  14.788   7.294   1.836
81007SOL    HW144860  14.838   7.367   1.802
81007SOL    HW244861  14.852   7.225   1.850
81008SOL     OW44862   1.530   6.767  10.030
81008SOL    HW144863   1.566   6.800  10.112
81008SOL    HW244864   1.456   6.711  10.056
81009SOL     OW44865  14.212   1.399   1.677
81009SOL    HW144866  14.237   1.480   1.633
81009SOL    HW244867  14.292   1.346   1.677
81010SOL     OW44868   6.949  14.073   8.517
81010SOL    HW144869   6.984  14.146   8.569
81010SOL    HW244870   6.896  14.023   8.579
81011SOL     OW44871  13.259  10.409  12.629
81011SOL    HW144872  13.273  10.501  12.607
81011SOL    HW244873  13.202  10.411  12.705
81012SOL     OW44874   2.271   3.311   8.536
81012SOL    HW144875   2.321   3.345   8.611
81012SOL    HW244876   2.222   3.237   8.571
81013SOL     OW44877  10.117   5.329  11.489
81013SOL    HW144878  10.049   5.265  11.467
81013SOL    HW244879  10.086   5.411  11.450
81014SOL     OW44880  13.334   8.496   0.749
81014SOL    HW144881  13.323   8.591   0.744
81014SOL    HW244882  13.406   8.484   0.810
81015SOL     OW44883   0.263   1.440   0.952
81015SOL    HW144884   0.353   1.435   0.918
81015SOL    HW244885   0.224   1.513   0.906
81016SOL     OW44886  12.846  11.895   0.262
81016SOL    HW144887  12.858  11.819   0.205
81016SOL    HW244888  12.802  11.960   0.207
81017SOL     OW44889   4.049  11.364   5.105
81017SOL    HW144890   4.057  11.353   5.200
81017SOL    HW244891   3.958  11.339   5.086
81018SOL     OW44892   4.731  11.645   7.082
81018SOL    HW144893   4.649  11.644   7.131
81018SOL    HW244894   4.760  11.554   7.083
81019SOL     OW44895   6.162   6.551   1.054
81019SOL    HW144896   6.153   6.457   1.039
81019SOL    HW244897   6.101   6.591   0.992
81020SOL     OW44898   3.025  12.646   0.190
81020SOL    HW144899   2.961  12.715   0.175
81020SOL    HW244900   3.003  12.578   0.126
81021SOL     OW44901   4.373  14.767   5.891
81021SOL    HW144902   4.337  14.781   5.803
81021SOL    HW244903   4.372  14.854   5.931
81022SOL     OW44904   3.084   8.735   0.561
81022SOL    HW144905   3.136   8.663   0.525
81022SOL    HW244906   2.993   8.713   0.539
81023SOL     OW44907   9.794  10.076   6.645
81023SOL    HW144908   9.712  10.061   6.598
81023SOL    HW244909   9.804   9.999   6.702
81024SOL     OW44910  12.008   6.576   6.089
81024SOL    HW144911  12.020   6.670   6.101
81024SOL    HW244912  11.944   6.569   6.018
81025SOL     OW44913  10.972  14.016   9.578
81025SOL    HW144914  10.980  14.104   9.541
81025SOL    HW244915  10.965  14.030   9.673
81026SOL     OW44916   6.586  13.799   8.608
81026SOL    HW144917   6.626  13.714   8.625
81026SOL    HW244918   6.508  13.780   8.558
81027SOL     OW44919  10.169   5.195   0.667
81027SOL    HW144920  10.112   5.164   0.597
81027SOL    HW244921  10.114   5.257   0.716
81028SOL     OW44922  13.060   5.588   4.302
81028SOL    HW144923  13.088   5.510   4.254
81028SOL    HW244924  13.141   5.636   4.320
81029SOL     OW44925   0.593  10.035   4.984
81029SOL    HW144926   0.647  10.044   5.063
81029SOL    HW244927   0.652  10.001   4.918
81030SOL     OW44928  13.212   9.286  11.354
81030SOL    HW144929  13.274   9.213  11.358
81030SOL    HW244930  13.257   9.358  11.400
81031SOL     OW44931  12.610  13.592   4.528
81031SOL    HW144932  12.640  13.683   4.535
81031SOL    HW244933  12.655  13.546   4.599
81032SOL     OW44934   9.263   0.716  11.115
81032SOL    HW144935   9.252   0.631  11.157
81032SOL    HW244936   9.257   0.779  11.187
81033SOL     OW44937  10.797   6.962  11.572
81033SOL    HW144938  10.781   7.020  11.498
81033SOL    HW244939  10.775   7.015  11.649
81034SOL     OW44940  12.474   1.778  12.146
81034SOL    HW144941  12.469   1.817  12.233
81034SOL    HW244942  12.394   1.726  12.138
81035SOL     OW44943  12.630   8.734   0.680
81035SOL    HW144944  12.593   8.682   0.751
81035SOL    HW244945  12.712   8.689   0.659
81036SOL     OW44946   3.068   1.278   7.443
81036SOL    HW144947   3.102   1.365   7.465
81036SOL    HW244948   3.011   1.255   7.516
81037SOL     OW44949  11.496  12.647  12.507
81037SOL    HW144950  11.520  12.555  12.502
81037SOL    HW244951  11.413  12.648  12.555
81038SOL     OW44952   5.131  11.227   7.710
81038SOL    HW144953   5.186  11.170   7.657
81038SOL    HW244954   5.177  11.311   7.711
81039SOL     OW44955   9.708   8.641  10.736
81039SOL    HW144956   9.720   8.628  10.830
81039SOL    HW244957   9.640   8.578  10.711
81040SOL     OW44958   2.208   2.525   9.767
81040SOL    HW144959   2.275   2.535   9.700
81040SOL    HW244960   2.141   2.470   9.727
81041SOL     OW44961   0.737   3.891  10.107
81041SOL    HW144962   0.645   3.909  10.089
81041SOL    HW244963   0.736   3.835  10.185
81042SOL     OW44964  11.729  10.803  10.513
81042SOL    HW144965  11.643  10.843  10.508
81042SOL    HW244966  11.719  10.732  10.576
81043SOL     OW44967   9.396   9.986   1.115
81043SOL    HW144968   9.378   9.896   1.142
81043SOL    HW244969   9.361   9.992   1.026
81044SOL     OW44970   0.387   4.364  12.227
81044SOL    HW144971   0.384   4.282  12.177
81044SOL    HW244972   0.477   4.368  12.260
81045SOL     OW44973   5.005   0.577   7.658
81045SOL    HW144974   5.029   0.506   7.598
81045SOL    HW244975   4.952   0.637   7.605
81046SOL     OW44976   2.219   0.024   0.766
81046SOL    HW144977   2.274   0.102   0.762
81046SOL    HW244978   2.232  14.863   0.855
81047SOL     OW44979   1.513   8.380   9.591
81047SOL    HW144980   1.512   8.447   9.660
81047SOL    HW244981   1.600   8.339   9.599
81048SOL     OW44982   1.923   1.224   1.583
81048SOL    HW144983   1.883   1.140   1.604
81048SOL    HW244984   1.852   1.287   1.596
81049SOL     OW44985  13.181   1.481   2.448
81049SOL    HW144986  13.108   1.507   2.391
81049SOL    HW244987  13.258   1.491   2.393
81050SOL     OW44988  10.420  14.802  10.425
81050SOL    HW144989  10.407   0.022  10.438
81050SOL    HW244990  10.332  14.766  10.420
81051SOL     OW44991   8.165  13.596   9.890
81051SOL    HW144992   8.231  13.592   9.821
81051SOL    HW244993   8.094  13.648   9.852
81052SOL     OW44994   5.812   1.846  12.456
81052SOL    HW144995   5.787   1.804  12.538
81052SOL    HW244996   5.908   1.840  12.455
81053SOL     OW44997  10.915   4.768   0.288
81053SOL    HW144998  10.927   4.679   0.255
81053SOL    HW244999  10.859   4.810   0.222
81054SOL     OW45000   5.303   4.777  13.153
81054SOL    HW145001   5.257   4.694  13.138
81054SOL    HW245002   5.318   4.779  13.247
81055SOL     OW45003   2.408   3.288   3.637
81055SOL    HW145004   2.367   3.302   3.552
81055SOL    HW245005   2.471   3.218   3.623
81056SOL     OW45006  13.217   9.314  12.152
81056SOL    HW145007  13.237   9.381  12.217
81056SOL    HW245008  13.300   9.267  12.140
81057SOL     OW45009   1.923  10.863   4.231
81057SOL    HW145010   1.995  10.856   4.293
81057SOL    HW245011   1.882  10.776   4.232
81058SOL     OW45012   3.892   6.883  11.056
81058SOL    HW145013   3.805   6.922  11.045
81058SOL    HW245014   3.880   6.818  11.126
81059SOL     OW45015  11.905   3.744   1.212
81059SOL    HW145016  11.852   3.791   1.276
81059SOL    HW245017  11.849   3.738   1.134
81060SOL     OW45018   8.559  11.120   9.465
81060SOL    HW145019   8.538  11.208   9.497
81060SOL    HW245020   8.501  11.063   9.515
81061SOL     OW45021   2.043  13.225   8.602
81061SOL    HW145022   2.114  13.174   8.563
81061SOL    HW245023   2.075  13.315   8.601
81062SOL     OW45024   4.885   5.044   3.238
81062SOL    HW145025   4.845   4.959   3.222
81062SOL    HW245026   4.812   5.106   3.235
81063SOL     OW45027   0.562   4.753   1.833
81063SOL    HW145028   0.587   4.760   1.925
81063SOL    HW245029   0.608   4.825   1.790
81064SOL     OW45030   7.110   9.099   9.386
81064SOL    HW145031   7.124   9.045   9.308
81064SOL    HW245032   7.029   9.066   9.424
81065SOL     OW45033   3.841   6.278   7.522
81065SOL    HW145034   3.883   6.310   7.442
81065SOL    HW245035   3.800   6.195   7.495
81066SOL     OW45036   2.381  13.066  11.410
81066SOL    HW145037   2.356  13.033  11.496
81066SOL    HW245038   2.307  13.042  11.353
81067SOL     OW45039   8.243   4.551   5.732
81067SOL    HW145040   8.242   4.605   5.810
81067SOL    HW245041   8.277   4.466   5.761
81068SOL     OW45042   9.658   9.230  12.886
81068SOL    HW145043   9.716   9.208  12.959
81068SOL    HW245044   9.570   9.214  12.920
81069SOL     OW45045   4.798  12.651  11.668
81069SOL    HW145046   4.883  12.618  11.642
81069SOL    HW245047   4.759  12.582  11.722
81070SOL     OW45048  13.592   0.766   0.455
81070SOL    HW145049  13.561   0.676   0.465
81070SOL    HW245050  13.563   0.792   0.367
81071SOL     OW45051   4.609   3.221   6.890
81071SOL    HW145052   4.697   3.187   6.900
81071SOL    HW245053   4.613   3.279   6.814
81072SOL     OW45054   7.464   2.373   0.990
81072SOL    HW145055   7.551   2.407   1.012
81072SOL    HW245056   7.465   2.364   0.895
81073SOL     OW45057   6.700   1.096  12.960
81073SOL    HW145058   6.666   1.138  12.881
81073SOL    HW245059   6.747   1.019  12.928
81074SOL     OW45060   6.108   4.697   6.287
81074SOL    HW145061   6.026   4.649   6.288
81074SOL    HW245062   6.090   4.777   6.336
81075SOL     OW45063   4.354  11.930   7.134
81075SOL    HW145064   4.333  11.837   7.126
81075SOL    HW245065   4.271  11.972   7.154
81076SOL     OW45066   7.942  10.464   6.459
81076SOL    HW145067   7.921  10.556   6.479
81076SOL    HW245068   7.993  10.435   6.535
81077SOL     OW45069  13.243  13.748   2.178
81077SOL    HW145070  13.281  13.743   2.090
81077SOL    HW245071  13.159  13.791   2.166
81078SOL     OW45072   5.858   5.706   7.630
81078SOL    HW145073   5.950   5.711   7.606
81078SOL    HW245074   5.855   5.737   7.721
81079SOL     OW45075   0.471   7.434  12.555
81079SOL    HW145076   0.396   7.386  12.520
81079SOL    HW245077   0.460   7.430  12.650
81080SOL     OW45078   3.579   3.188   1.848
81080SOL    HW145079   3.570   3.157   1.938
81080SOL    HW245080   3.673   3.191   1.832
81081SOL     OW45081   0.965   6.361  11.614
81081SOL    HW145082   0.939   6.322  11.697
81081SOL    HW245083   1.058   6.338  11.604
81082SOL     OW45084   4.967  13.501  12.666
81082SOL    HW145085   4.907  13.470  12.598
81082SOL    HW245086   4.929  13.584  12.695
81083SOL     OW45087  12.065   5.416  11.625
81083SOL    HW145088  12.011   5.485  11.587
81083SOL    HW245089  12.070   5.437  11.718
81084SOL     OW45090  12.323  12.747  14.056
81084SOL    HW145091  12.329  12.836  14.090
81084SOL    HW245092  12.298  12.694  14.132
81085SOL     OW45093   6.078  13.760   6.481
81085SOL    HW145094   6.047  13.707   6.408
81085SOL    HW245095   6.133  13.702   6.532
81086SOL     OW45096  10.886  11.186   9.199
81086SOL    HW145097  10.931  11.179   9.114
81086SOL    HW245098  10.856  11.277   9.203
81087SOL     OW45099  12.140   3.580   9.540
81087SOL    HW145100  12.190   3.582   9.459
81087SOL    HW245101  12.121   3.672   9.559
81088SOL     OW45102   4.686   6.308   0.760
81088SOL    HW145103   4.612   6.329   0.704
81088SOL    HW245104   4.733   6.391   0.770
81089SOL     OW45105   3.780   3.872  13.319
81089SOL    HW145106   3.780   3.906  13.229
81089SOL    HW245107   3.859   3.818  13.324
81090SOL     OW45108   7.858  13.620   8.956
81090SOL    HW145109   7.917  13.626   8.881
81090SOL    HW245110   7.907  13.573   9.023
81091SOL     OW45111  11.489   0.638  13.647
81091SOL    HW145112  11.513   0.549  13.625
81091SOL    HW245113  11.464   0.634  13.740
81092SOL     OW45114  14.000   6.735   0.323
81092SOL    HW145115  13.907   6.743   0.300
81092SOL    HW245116  14.016   6.641   0.326
81093SOL     OW45117   1.260  14.302   4.372
81093SOL    HW145118   1.325  14.233   4.382
81093SOL    HW245119   1.311  14.383   4.367
81094SOL     OW45120  14.540   7.627   7.561
81094SOL    HW145121  14.481   7.653   7.490
81094SOL    HW245122  14.586   7.550   7.526
81095SOL     OW45123  11.521   2.644   5.854
81095SOL    HW145124  11.592   2.696   5.816
81095SOL    HW245125  11.523   2.561   5.808
81096SOL     OW45126  11.333   9.340  10.071
81096SOL    HW145127  11.258   9.342  10.011
81096SOL    HW245128  11.294   9.326  10.157
81097SOL     OW45129  11.340   7.217  14.564
81097SOL    HW145130  11.382   7.144  14.609
81097SOL    HW245131  11.251   7.186  14.546
81098SOL     OW45132   3.789  14.664   8.411
81098SOL    HW145133   3.832  14.750   8.413
81098SOL    HW245134   3.713  14.678   8.356
81099SOL     OW45135   6.356   6.379   4.699
81099SOL    HW145136   6.386   6.293   4.727
81099SOL    HW245137   6.314   6.417   4.776
81100SOL     OW45138   1.504  13.245   1.774
81100SOL    HW145139   1.545  13.313   1.827
81100SOL    HW245140   1.414  13.274   1.763
81101SOL     OW45141   4.757   3.986   8.204
81101SOL    HW145142   4.804   4.062   8.238
81101SOL    HW245143   4.744   3.930   8.281
81102SOL     OW45144   7.127   4.655   7.605
81102SOL    HW145145   7.044   4.701   7.620
81102SOL    HW245146   7.176   4.668   7.687
81103SOL     OW45147   4.093  13.625   9.410
81103SOL    HW145148   3.999  13.611   9.424
81103SOL    HW245149   4.100  13.646   9.317
81104SOL     OW45150   3.813  13.069   7.930
81104SOL    HW145151   3.769  13.136   7.878
81104SOL    HW245152   3.895  13.110   7.958
81105SOL     OW45153  10.931   5.702   6.605
81105SOL    HW145154  10.924   5.758   6.528
81105SOL    HW245155  10.912   5.759   6.679
81106SOL     OW45156   2.596   8.014  10.188
81106SOL    HW145157   2.605   7.975  10.101
81106SOL    HW245158   2.508   8.052  10.188
81107SOL     OW45159  11.639   8.452  14.207
81107SOL    HW145160  11.544   8.460  14.219
81107SOL    HW245161  11.669   8.400  14.281
81108SOL     OW45162   5.951   5.718   1.009
81108SOL    HW145163   5.976   5.762   0.928
81108SOL    HW245164   5.866   5.756   1.033
81109SOL     OW45165  12.336   5.439   6.796
81109SOL    HW145166  12.280   5.511   6.766
81109SOL    HW245167  12.384   5.412   6.718
81110SOL     OW45168   4.492  14.124  11.501
81110SOL    HW145169   4.401  14.130  11.472
81110SOL    HW245170   4.487  14.090  11.591
81111SOL     OW45171   0.283   7.083  13.320
81111SOL    HW145172   0.213   7.081  13.386
81111SOL    HW245173   0.248   7.033  13.247
81112SOL     OW45174   6.416  13.368   5.616
81112SOL    HW145175   6.505  13.391   5.646
81112SOL    HW245176   6.409  13.410   5.530
81113SOL     OW45177   0.648   1.595  12.582
81113SOL    HW145178   0.724   1.647  12.559
81113SOL    HW245179   0.581   1.659  12.607
81114SOL     OW45180   1.608   6.120  13.884
81114SOL    HW145181   1.600   6.171  13.965
81114SOL    HW245182   1.620   6.187  13.816
81115SOL     OW45183  13.601  12.303   7.707
81115SOL    HW145184  13.575  12.250   7.631
81115SOL    HW245185  13.631  12.386   7.670
81116SOL     OW45186   0.152   2.466   3.052
81116SOL    HW145187   0.075   2.428   3.093
81116SOL    HW245188   0.169   2.546   3.102
81117SOL     OW45189  12.043   5.906   6.636
81117SOL    HW145190  12.115   5.922   6.696
81117SOL    HW245191  12.043   5.981   6.577
81118SOL     OW45192  13.528   2.543   7.435
81118SOL    HW145193  13.547   2.460   7.392
81118SOL    HW245194  13.491   2.518   7.520
81119SOL     OW45195   1.587  10.860  14.600
81119SOL    HW145196   1.602  10.953  14.580
81119SOL    HW245197   1.672  10.828  14.628
81120SOL     OW45198   6.160  13.975  10.452
81120SOL    HW145199   6.173  13.916  10.378
81120SOL    HW245200   6.230  14.039  10.444
81121SOL     OW45201   2.055   2.891  13.553
81121SOL    HW145202   1.970   2.886  13.509
81121SOL    HW245203   2.083   2.799  13.561
81122SOL     OW45204  14.761   9.770   7.207
81122SOL    HW145205  14.684   9.802   7.255
81122SOL    HW245206  14.830   9.765   7.273
81123SOL     OW45207   6.270  13.273   9.424
81123SOL    HW145208   6.292  13.348   9.369
81123SOL    HW245209   6.214  13.310   9.493
81124SOL     OW45210   4.165   2.363  14.351
81124SOL    HW145211   4.168   2.362  14.447
81124SOL    HW245212   4.246   2.321  14.324
81125SOL     OW45213  11.744   0.158   8.317
81125SOL    HW145214  11.821   0.159   8.375
81125SOL    HW245215  11.669   0.157   8.376
81126SOL     OW45216   6.785  12.211   6.997
81126SOL    HW145217   6.694  12.190   6.976
81126SOL    HW245218   6.779  12.277   7.067
81127SOL     OW45219  13.866  11.922  12.434
81127SOL    HW145220  13.816  12.003  12.447
81127SOL    HW245221  13.898  11.899  12.522
81128SOL     OW45222   3.420   3.592   8.713
81128SOL    HW145223   3.489   3.640   8.666
81128SOL    HW245224   3.357   3.659   8.738
81129SOL     OW45225   6.771  11.265   4.277
81129SOL    HW145226   6.696  11.294   4.328
81129SOL    HW245227   6.818  11.346   4.255
81130SOL     OW45228   4.055   2.574  10.009
81130SOL    HW145229   4.109   2.499   9.981
81130SOL    HW245230   4.042   2.625   9.929
81131SOL     OW45231  11.428  13.744   2.255
81131SOL    HW145232  11.387  13.662   2.228
81131SOL    HW245233  11.369  13.779   2.323
81132SOL     OW45234   3.501  14.319   7.574
81132SOL    HW145235   3.466  14.315   7.485
81132SOL    HW245236   3.487  14.231   7.609
81133SOL     OW45237   4.143   8.651   6.720
81133SOL    HW145238   4.136   8.572   6.774
81133SOL    HW245239   4.188   8.621   6.641
81134SOL     OW45240  10.220   0.775   0.086
81134SOL    HW145241  10.216   0.775   0.181
81134SOL    HW245242  10.241   0.866   0.063
81135SOL     OW45243  11.643   9.542  11.754
81135SOL    HW145244  11.582   9.526  11.827
81135SOL    HW245245  11.698   9.464  11.753
81136SOL     OW45246  10.662   6.917   1.723
81136SOL    HW145247  10.656   6.873   1.639
81136SOL    HW245248  10.735   6.979   1.713
81137SOL     OW45249  12.442   8.262  13.234
81137SOL    HW145250  12.530   8.282  13.200
81137SOL    HW245251  12.393   8.234  13.157
81138SOL     OW45252   3.675  12.340   5.457
81138SOL    HW145253   3.751  12.299   5.417
81138SOL    HW245254   3.650  12.281   5.528
81139SOL     OW45255   4.895   2.982  13.520
81139SOL    HW145256   4.802   2.994  13.538
81139SOL    HW245257   4.919   3.056  13.464
81140SOL     OW45258   5.399   6.559   2.097
81140SOL    HW145259   5.482   6.535   2.054
81140SOL    HW245260   5.393   6.653   2.085
81141SOL     OW45261  13.935   4.107   4.372
81141SOL    HW145262  13.948   4.061   4.455
81141SOL    HW245263  13.894   4.190   4.397
81142SOL     OW45264   4.381   5.400   1.699
81142SOL    HW145265   4.476   5.407   1.695
81142SOL    HW245266   4.349   5.488   1.679
81143SOL     OW45267   6.225   8.643   9.191
81143SOL    HW145268   6.139   8.610   9.215
81143SOL    HW245269   6.271   8.566   9.156
81144SOL     OW45270   8.234  12.716   0.507
81144SOL    HW145271   8.319  12.689   0.541
81144SOL    HW245272   8.242  12.811   0.497
81145SOL     OW45273  14.608   8.663   7.392
81145SOL    HW145274  14.631   8.740   7.341
81145SOL    HW245275  14.538   8.692   7.450
81146SOL     OW45276  11.411   0.021   3.560
81146SOL    HW145277  11.482   0.079   3.533
81146SOL    HW245278  11.365   0.070   3.629
81147SOL     OW45279   1.717   6.790   0.281
81147SOL    HW145280   1.788   6.820   0.338
81147SOL    HW245281   1.710   6.696   0.299
81148SOL     OW45282  13.540   4.274  11.230
81148SOL    HW145283  13.599   4.227  11.289
81148SOL    HW245284  13.568   4.365  11.236
81149SOL     OW45285   5.186   2.047  10.326
81149SOL    HW145286   5.168   1.971  10.381
81149SOL    HW245287   5.198   2.119  10.387
81150SOL     OW45288  11.389  14.634  12.342
81150SOL    HW145289  11.407  14.682  12.423
81150SOL    HW245290  11.381  14.703  12.275
81151SOL     OW45291   7.236   3.208   5.648
81151SOL    HW145292   7.228   3.303   5.655
81151SOL    HW245293   7.223   3.176   5.737
81152SOL     OW45294   6.188  10.766  11.215
81152SOL    HW145295   6.251  10.735  11.280
81152SOL    HW245296   6.115  10.704  11.221
81153SOL     OW45297   4.636   7.781   2.915
81153SOL    HW145298   4.593   7.828   2.987
81153SOL    HW245299   4.700   7.844   2.881
81154SOL     OW45300  12.703   8.371   3.689
81154SOL    HW145301  12.742   8.457   3.704
81154SOL    HW245302  12.613   8.380   3.721
81155SOL     OW45303   5.324   8.413  14.116
81155SOL    HW145304   5.279   8.330  14.099
81155SOL    HW245305   5.355   8.441  14.030
81156SOL     OW45306   1.727  13.230  13.129
81156SOL    HW145307   1.778  13.179  13.066
81156SOL    HW245308   1.734  13.181  13.211
81157SOL     OW45309   3.142   2.029   2.430
81157SOL    HW145310   3.216   2.084   2.454
81157SOL    HW245311   3.168   1.941   2.457
81158SOL     OW45312  12.147   6.780   6.961
81158SOL    HW145313  12.121   6.867   6.992
81158SOL    HW245314  12.065   6.732   6.953
81159SOL     OW45315   6.493   5.056   1.591
81159SOL    HW145316   6.550   5.117   1.544
81159SOL    HW245317   6.414   5.107   1.611
81160SOL     OW45318  11.357   4.958  14.640
81160SOL    HW145319  11.336   4.980  14.731
81160SOL    HW245320  11.285   4.902  14.611
81161SOL     OW45321   1.261  10.181   8.488
81161SOL    HW145322   1.301  10.094   8.483
81161SOL    HW245323   1.323  10.233   8.538
81162SOL     OW45324   4.768   3.537   8.388
81162SOL    HW145325   4.682   3.502   8.412
81162SOL    HW245326   4.807   3.469   8.332
81163SOL     OW45327  10.275  10.352   5.174
81163SOL    HW145328  10.240  10.381   5.090
81163SOL    HW245329  10.226  10.272   5.194
81164SOL     OW45330   6.405   5.815   5.657
81164SOL    HW145331   6.414   5.730   5.613
81164SOL    HW245332   6.361   5.795   5.739
81165SOL     OW45333  14.477   0.483  12.731
81165SOL    HW145334  14.417   0.442  12.793
81165SOL    HW245335  14.518   0.409  12.685
81166SOL     OW45336   8.668   5.866   5.974
81166SOL    HW145337   8.666   5.858   5.879
81166SOL    HW245338   8.643   5.957   5.991
81167SOL     OW45339  10.976   9.509  10.412
81167SOL    HW145340  10.980   9.476  10.322
81167SOL    HW245341  10.918   9.585  10.407
81168SOL     OW45342   9.392   1.671   0.155
81168SOL    HW145343   9.442   1.753   0.162
81168SOL    HW245344   9.443   1.608   0.207
81169SOL     OW45345   7.548   4.452   8.939
81169SOL    HW145346   7.532   4.544   8.918
81169SOL    HW245347   7.642   4.449   8.960
81170SOL     OW45348  10.596   0.089   2.143
81170SOL    HW145349  10.652   0.131   2.078
81170SOL    HW245350  10.642   0.104   2.226
81171SOL     OW45351  10.420   2.360  12.070
81171SOL    HW145352  10.479   2.398  12.005
81171SOL    HW245353  10.459   2.384  12.154
81172SOL     OW45354   9.184   5.914   4.650
81172SOL    HW145355   9.127   5.837   4.646
81172SOL    HW245356   9.188   5.946   4.559
81173SOL     OW45357   2.520  14.254   6.950
81173SOL    HW145358   2.589  14.255   6.884
81173SOL    HW245359   2.440  14.273   6.901
81174SOL     OW45360   5.587   1.752   0.038
81174SOL    HW145361   5.604   1.744  14.817
81174SOL    HW245362   5.492   1.748   0.045
81175SOL     OW45363  13.715   3.618  11.397
81175SOL    HW145364  13.799   3.654  11.427
81175SOL    HW245365  13.700   3.657  11.311
81176SOL     OW45366   7.556   4.962  11.831
81176SOL    HW145367   7.613   4.945  11.907
81176SOL    HW245368   7.598   4.916  11.759
81177SOL     OW45369   7.236   5.705   0.102
81177SOL    HW145370   7.198   5.633   0.154
81177SOL    HW245371   7.160   5.753   0.069
81178SOL     OW45372   4.353   7.033  11.049
81178SOL    HW145373   4.324   7.108  10.998
81178SOL    HW245374   4.272   6.989  11.076
81179SOL     OW45375  12.097  14.358  13.299
81179SOL    HW145376  12.108  14.264  13.311
81179SOL    HW245377  12.177  14.397  13.335
81180SOL     OW45378   3.143   1.842  13.223
81180SOL    HW145379   3.057   1.850  13.264
81180SOL    HW245380   3.154   1.747  13.211
81181SOL     OW45381  10.567   5.466   9.394
81181SOL    HW145382  10.500   5.473   9.462
81181SOL    HW245383  10.554   5.380   9.356
81182SOL     OW45384   0.145   6.303   6.032
81182SOL    HW145385   0.128   6.213   6.002
81182SOL    HW245386   0.239   6.315   6.017
81183SOL     OW45387  11.791   1.311   4.124
81183SOL    HW145388  11.751   1.226   4.101
81183SOL    HW245389  11.854   1.290   4.193
81184SOL     OW45390   2.816   6.660   8.481
81184SOL    HW145391   2.814   6.686   8.389
81184SOL    HW245392   2.907   6.635   8.496
81185SOL     OW45393  11.486   4.455   9.146
81185SOL    HW145394  11.541   4.528   9.176
81185SOL    HW245395  11.441   4.425   9.225
81186SOL     OW45396   5.317   4.953   2.669
81186SOL    HW145397   5.398   4.912   2.698
81186SOL    HW245398   5.266   4.882   2.630
81187SOL     OW45399   8.743   0.591   1.006
81187SOL    HW145400   8.710   0.522   1.064
81187SOL    HW245401   8.813   0.632   1.055
81188SOL     OW45402  10.789   5.425   0.140
81188SOL    HW145403  10.752   5.395   0.223
81188SOL    HW245404  10.822   5.513   0.159
81189SOL     OW45405  10.649   0.352   8.290
81189SOL    HW145406  10.731   0.395   8.267
81189SOL    HW245407  10.675   0.265   8.320
81190SOL     OW45408   4.473  11.981   1.390
81190SOL    HW145409   4.467  12.017   1.479
81190SOL    HW245410   4.468  11.886   1.403
81191SOL     OW45411   0.757  11.657   1.548
81191SOL    HW145412   0.717  11.597   1.610
81191SOL    HW245413   0.834  11.691   1.593
81192SOL     OW45414  13.664   1.439   7.281
81192SOL    HW145415  13.673   1.533   7.262
81192SOL    HW245416  13.742   1.399   7.241
81193SOL     OW45417   2.495   2.853  13.171
81193SOL    HW145418   2.404   2.880  13.167
81193SOL    HW245419   2.535   2.892  13.092
81194SOL     OW45420   2.534   8.015  14.641
81194SOL    HW145421   2.472   8.078  14.605
81194SOL    HW245422   2.604   8.011  14.576
81195SOL     OW45423   1.784   4.962   9.972
81195SOL    HW145424   1.776   4.872   9.941
81195SOL    HW245425   1.776   4.954  10.067
81196SOL     OW45426  13.438   7.649  10.862
81196SOL    HW145427  13.363   7.659  10.921
81196SOL    HW245428  13.515   7.651  10.920
81197SOL     OW45429  11.937  11.485   6.592
81197SOL    HW145430  11.955  11.567   6.637
81197SOL    HW245431  11.842  11.474   6.597
81198SOL     OW45432  14.410   4.228  13.567
81198SOL    HW145433  14.379   4.287  13.498
81198SOL    HW245434  14.477   4.278  13.613
81199SOL     OW45435   7.431   8.563   0.672
81199SOL    HW145436   7.406   8.651   0.701
81199SOL    HW245437   7.431   8.511   0.752
81200SOL     OW45438  11.460   0.104   2.529
81200SOL    HW145439  11.538   0.083   2.477
81200SOL    HW245440  11.458   0.199   2.533
81201SOL     OW45441  14.288   1.135   8.398
81201SOL    HW145442  14.383   1.141   8.407
81201SOL    HW245443  14.259   1.226   8.391
81202SOL     OW45444   7.033   7.237   3.021
81202SOL    HW145445   7.109   7.229   3.078
81202SOL    HW245446   7.070   7.242   2.932
81203SOL     OW45447   8.296   1.788   3.951
81203SOL    HW145448   8.352   1.766   4.026
81203SOL    HW245449   8.283   1.704   3.906
81204SOL     OW45450   0.288  10.890   1.755
81204SOL    HW145451   0.200  10.921   1.774
81204SOL    HW245452   0.345  10.958   1.791
81205SOL     OW45453  14.794   6.136   0.531
81205SOL    HW145454  14.718   6.189   0.506
81205SOL    HW245455  14.845   6.129   0.450
81206SOL     OW45456  11.822  12.651   0.653
81206SOL    HW145457  11.883  12.629   0.583
81206SOL    HW245458  11.872  12.707   0.713
81207SOL     OW45459   5.547   9.734  12.047
81207SOL    HW145460   5.509   9.793  11.982
81207SOL    HW245461   5.563   9.653  11.999
81208SOL     OW45462  14.427  12.505   2.926
81208SOL    HW145463  14.516  12.541   2.934
81208SOL    HW245464  14.441  12.412   2.909
81209SOL     OW45465  11.488   8.616  13.858
81209SOL    HW145466  11.549   8.680  13.894
81209SOL    HW245467  11.402   8.658  13.866
81210SOL     OW45468   3.811   0.965  11.905
81210SOL    HW145469   3.819   0.870  11.901
81210SOL    HW245470   3.735   0.981  11.961
81211SOL     OW45471  11.431  11.927   7.661
81211SOL    HW145472  11.391  11.906   7.746
81211SOL    HW245473  11.362  11.971   7.612
81212SOL     OW45474  11.534  13.850  11.855
81212SOL    HW145475  11.451  13.897  11.848
81212SOL    HW245476  11.528  13.803  11.938
81213SOL     OW45477  12.650   4.463   6.184
81213SOL    HW145478  12.612   4.379   6.206
81213SOL    HW245479  12.703   4.446   6.106
81214SOL     OW45480   3.624   7.389   3.032
81214SOL    HW145481   3.595   7.360   3.119
81214SOL    HW245482   3.717   7.410   3.044
81215SOL     OW45483   2.083   7.824  10.591
81215SOL    HW145484   2.057   7.734  10.610
81215SOL    HW245485   2.085   7.867  10.676
81216SOL     OW45486   2.172  13.843  12.219
81216SOL    HW145487   2.100  13.897  12.250
81216SOL    HW245488   2.130  13.764  12.185
81217SOL     OW45489   8.887   8.076  10.224
81217SOL    HW145490   8.886   8.129  10.144
81217SOL    HW245491   8.918   7.990  10.195
81218SOL     OW45492  14.688   4.158   3.151
81218SOL    HW145493  14.657   4.093   3.214
81218SOL    HW245494  14.702   4.237   3.203
81219SOL     OW45495  13.935   1.287  10.793
81219SOL    HW145496  13.872   1.352  10.825
81219SOL    HW245497  14.020   1.331  10.802
81220SOL     OW45498   2.556  13.153   7.755
81220SOL    HW145499   2.591  13.065   7.767
81220SOL    HW245500   2.465  13.140   7.730
81221SOL     OW45501   5.647   2.047   4.980
81221SOL    HW145502   5.670   2.133   5.015
81221SOL    HW245503   5.703   1.986   5.028
81222SOL     OW45504   5.647   8.514   0.953
81222SOL    HW145505   5.735   8.479   0.939
81222SOL    HW245506   5.608   8.515   0.865
81223SOL     OW45507   6.328   1.567  11.488
81223SOL    HW145508   6.413   1.562  11.444
81223SOL    HW245509   6.344   1.530  11.574
81224SOL     OW45510   6.559   9.206  12.478
81224SOL    HW145511   6.497   9.169  12.541
81224SOL    HW245512   6.553   9.148  12.402
81225SOL     OW45513   6.517   1.137   0.324
81225SOL    HW145514   6.490   1.167   0.411
81225SOL    HW245515   6.572   1.208   0.290
81226SOL     OW45516   6.260   1.810   9.869
81226SOL    HW145517   6.335   1.787   9.925
81226SOL    HW245518   6.186   1.813   9.929
81227SOL     OW45519   9.870   2.719  11.095
81227SOL    HW145520   9.790   2.678  11.126
81227SOL    HW245521   9.940   2.664  11.131
81228SOL     OW45522  11.670  11.170  13.815
81228SOL    HW145523  11.587  11.124  13.807
81228SOL    HW245524  11.735  11.100  13.828
81229SOL     OW45525   4.787   6.806   8.857
81229SOL    HW145526   4.719   6.783   8.794
81229SOL    HW245527   4.764   6.895   8.885
81230SOL     OW45528   6.961   9.676   3.156
81230SOL    HW145529   6.966   9.624   3.076
81230SOL    HW245530   6.908   9.752   3.132
81231SOL     OW45531   0.734   4.081  14.833
81231SOL    HW145532   0.737   4.104   0.053
81231SOL    HW245533   0.640   4.078  14.813
81232SOL     OW45534   6.683   5.864   6.385
81232SOL    HW145535   6.683   5.898   6.295
81232SOL    HW245536   6.605   5.810   6.390
81233SOL     OW45537   3.529   6.687  12.511
81233SOL    HW145538   3.542   6.708  12.604
81233SOL    HW245539   3.586   6.748  12.464
81234SOL     OW45540  14.471   9.186   0.526
81234SOL    HW145541  14.532   9.117   0.500
81234SOL    HW245542  14.511   9.225   0.603
81235SOL     OW45543   5.583   3.520   5.365
81235SOL    HW145544   5.634   3.584   5.316
81235SOL    HW245545   5.559   3.566   5.445
81236SOL     OW45546  14.433   6.452   5.989
81236SOL    HW145547  14.368   6.392   6.026
81236SOL    HW245548  14.436   6.431   5.896
81237SOL     OW45549   2.049   5.617   6.629
81237SOL    HW145550   2.018   5.532   6.599
81237SOL    HW245551   2.122   5.638   6.570
81238SOL     OW45552  13.037   6.780   2.002
81238SOL    HW145553  12.991   6.855   2.039
81238SOL    HW245554  13.129   6.806   1.999
81239SOL     OW45555  10.054   5.857   0.430
81239SOL    HW145556  10.141   5.859   0.469
81239SOL    HW245557   9.995   5.880   0.501
81240SOL     OW45558  14.666   4.310  13.664
81240SOL    HW145559  14.640   4.345  13.749
81240SOL    HW245560  14.660   4.215  13.674
81241SOL     OW45561   3.686  13.654   4.750
81241SOL    HW145562   3.621  13.713   4.712
81241SOL    HW245563   3.636  13.594   4.804
81242SOL     OW45564   3.088   3.193   6.868
81242SOL    HW145565   3.018   3.210   6.805
81242SOL    HW245566   3.081   3.099   6.885
81243SOL     OW45567   4.271   4.934   5.680
81243SOL    HW145568   4.321   4.854   5.665
81243SOL    HW245569   4.276   4.981   5.596
81244SOL     OW45570   7.441  11.373   6.260
81244SOL    HW145571   7.369  11.358   6.322
81244SOL    HW245572   7.500  11.298   6.274
81245SOL     OW45573   4.939   0.523   4.069
81245SOL    HW145574   4.947   0.455   4.002
81245SOL    HW245575   5.029   0.540   4.097
81246SOL     OW45576   3.226   3.316   2.260
81246SOL    HW145577   3.195   3.364   2.337
81246SOL    HW245578   3.300   3.368   2.228
81247SOL     OW45579   1.337  11.960   1.768
81247SOL    HW145580   1.386  11.881   1.743
81247SOL    HW245581   1.264  11.963   1.706
81248SOL     OW45582   6.490   9.067   5.194
81248SOL    HW145583   6.569   9.060   5.247
81248SOL    HW245584   6.426   9.011   5.237
81249SOL     OW45585   3.883   7.770   8.994
81249SOL    HW145586   3.908   7.830   9.064
81249SOL    HW245587   3.916   7.813   8.914
81250SOL     OW45588   9.298   7.750  14.466
81250SOL    HW145589   9.269   7.836  14.496
81250SOL    HW245590   9.345   7.713  14.540
81251SOL     OW45591   6.220   3.421   3.880
81251SOL    HW145592   6.153   3.468   3.930
81251SOL    HW245593   6.171   3.375   3.811
81252SOL     OW45594  14.460  13.999  13.429
81252SOL    HW145595  14.551  14.018  13.452
81252SOL    HW245596  14.429  13.942  13.499
81253SOL     OW45597  10.366   4.954  11.591
81253SOL    HW145598  10.383   5.046  11.573
81253SOL    HW245599  10.327   4.921  11.510
81254SOL     OW45600   8.802  13.840   8.345
81254SOL    HW145601   8.710  13.850   8.366
81254SOL    HW245602   8.832  13.928   8.321
81255SOL     OW45603  11.921   8.634   4.049
81255SOL    HW145604  11.855   8.580   4.006
81255SOL    HW245605  11.879   8.664   4.130
81256SOL     OW45606  14.250  13.491   5.004
81256SOL    HW145607  14.173  13.439   5.023
81256SOL    HW245608  14.221  13.582   5.011
81257SOL     OW45609  11.364   6.711   9.659
81257SOL    HW145610  11.272   6.699   9.633
81257SOL    HW245611  11.406   6.746   9.581
81258SOL     OW45612  13.541   6.707   9.044
81258SOL    HW145613  13.561   6.725   8.953
81258SOL    HW245614  13.490   6.782   9.073
81259SOL     OW45615  14.091   3.203   1.693
81259SOL    HW145616  14.045   3.184   1.775
81259SOL    HW245617  14.122   3.118   1.663
81260SOL     OW45618   1.021   8.729   5.252
81260SOL    HW145619   0.953   8.790   5.222
81260SOL    HW245620   0.998   8.646   5.210
81261SOL     OW45621   5.422  10.305  14.808
81261SOL    HW145622   5.332  10.287  14.838
81261SOL    HW245623   5.428  10.400  14.807
81262SOL     OW45624   9.204  10.956   3.788
81262SOL    HW145625   9.280  10.940   3.733
81262SOL    HW245626   9.240  10.994   3.868
81263SOL     OW45627   1.900  14.233  12.313
81263SOL    HW145628   1.899  14.151  12.262
81263SOL    HW245629   1.847  14.213  12.390
81264SOL     OW45630   6.778  10.256   9.721
81264SOL    HW145631   6.747  10.254   9.812
81264SOL    HW245632   6.748  10.173   9.684
81265SOL     OW45633   7.757  13.814   7.415
81265SOL    HW145634   7.734  13.725   7.390
81265SOL    HW245635   7.706  13.870   7.356
81266SOL     OW45636   2.144   9.707   4.042
81266SOL    HW145637   2.233   9.733   4.065
81266SOL    HW245638   2.155   9.649   3.967
81267SOL     OW45639  12.717   8.673   3.668
81267SOL    HW145640  12.807   8.690   3.696
81267SOL    HW245641  12.713   8.705   3.578
81268SOL     OW45642  12.923  13.087   9.455
81268SOL    HW145643  12.888  13.091   9.544
81268SOL    HW245644  12.974  13.168   9.446
81269SOL     OW45645   2.801  14.355   6.413
81269SOL    HW145646   2.846  14.417   6.470
81269SOL    HW245647   2.863  14.282   6.403
81270SOL     OW45648   2.988  12.367   5.498
81270SOL    HW145649   2.954  12.279   5.515
81270SOL    HW245650   3.078  12.352   5.467
81271SOL     OW45651   4.704   5.916   0.462
81271SOL    HW145652   4.720   5.822   0.449
81271SOL    HW245653   4.738   5.957   0.383
81272SOL     OW45654   6.930   3.126  14.480
81272SOL    HW145655   6.903   3.210  14.517
81272SOL    HW245656   6.909   3.062  14.547
81273SOL     OW45657   1.529   5.487   4.572
81273SOL    HW145658   1.526   5.576   4.608
81273SOL    HW245659   1.441   5.472   4.538
81274SOL     OW45660   1.447  11.064   4.404
81274SOL    HW145661   1.510  11.079   4.475
81274SOL    HW245662   1.475  11.123   4.334
81275SOL     OW45663   3.255  11.773   4.198
81275SOL    HW145664   3.272  11.844   4.259
81275SOL    HW245665   3.302  11.797   4.118
81276SOL     OW45666  10.159   5.463  10.283
81276SOL    HW145667  10.082   5.479  10.228
81276SOL    HW245668  10.128   5.408  10.354
81277SOL     OW45669   7.218   5.270  11.795
81277SOL    HW145670   7.162   5.322  11.737
81277SOL    HW245671   7.162   5.251  11.870
81278SOL     OW45672   6.852   5.478  11.787
81278SOL    HW145673   6.808   5.553  11.826
81278SOL    HW245674   6.918   5.453  11.851
81279SOL     OW45675   9.155   0.551   7.623
81279SOL    HW145676   9.181   0.519   7.537
81279SOL    HW245677   9.237   0.576   7.665
81280SOL     OW45678   2.856   9.213  13.667
81280SOL    HW145679   2.946   9.194  13.639
81280SOL    HW245680   2.812   9.128  13.668
81281SOL     OW45681   6.963   5.412   5.244
81281SOL    HW145682   6.922   5.444   5.325
81281SOL    HW245683   6.997   5.326   5.267
81282SOL     OW45684   2.548   4.509   4.705
81282SOL    HW145685   2.518   4.586   4.657
81282SOL    HW245686   2.629   4.483   4.661
81283SOL     OW45687   9.415  13.623  10.539
81283SOL    HW145688   9.354  13.613  10.612
81283SOL    HW245689   9.447  13.535  10.521
81284SOL     OW45690   2.890   4.084  10.742
81284SOL    HW145691   2.929   4.171  10.750
81284SOL    HW245692   2.803   4.100  10.705
81285SOL     OW45693   0.099  10.941   3.536
81285SOL    HW145694   0.181  10.962   3.581
81285SOL    HW245695   0.120  10.863   3.484
81286SOL     OW45696   9.282   3.536  14.422
81286SOL    HW145697   9.284   3.446  14.390
81286SOL    HW245698   9.251   3.528  14.513
81287SOL     OW45699   2.738   7.837   9.407
81287SOL    HW145700   2.751   7.766   9.470
81287SOL    HW245701   2.824   7.879   9.401
81288SOL     OW45702   0.781  12.763   3.096
81288SOL    HW145703   0.801  12.850   3.130
81288SOL    HW245704   0.765  12.710   3.174
81289SOL     OW45705   0.590   6.385   6.754
81289SOL    HW145706   0.588   6.372   6.849
81289SOL    HW245707   0.663   6.331   6.724
81290SOL     OW45708  10.200   1.950  13.496
81290SOL    HW145709  10.272   1.935  13.435
81290SOL    HW245710  10.228   1.908  13.577
81291SOL     OW45711   4.225   0.744   6.562
81291SOL    HW145712   4.136   0.776   6.547
81291SOL    HW245713   4.216   0.649   6.561
81292SOL     OW45714   5.552   6.412   1.086
81292SOL    HW145715   5.490   6.428   1.157
81292SOL    HW245716   5.589   6.326   1.105
81293SOL     OW45717   7.606   8.423   8.942
81293SOL    HW145718   7.632   8.361   9.011
81293SOL    HW245719   7.599   8.370   8.863
81294SOL     OW45720  13.018   9.704   6.647
81294SOL    HW145721  13.035   9.692   6.553
81294SOL    HW245722  13.040   9.619   6.686
81295SOL     OW45723   2.478   1.954   7.025
81295SOL    HW145724   2.484   2.049   7.027
81295SOL    HW245725   2.469   1.932   6.933
81296SOL     OW45726   4.754   2.948   0.013
81296SOL    HW145727   4.804   2.917  14.811
81296SOL    HW245728   4.676   2.989  14.847
81297SOL     OW45729   4.653   3.215   9.253
81297SOL    HW145730   4.590   3.177   9.191
81297SOL    HW245731   4.738   3.185   9.221
81298SOL     OW45732   1.087   1.819   2.421
81298SOL    HW145733   1.004   1.822   2.374
81298SOL    HW245734   1.154   1.818   2.352
81299SOL     OW45735  10.568   9.811  12.324
81299SOL    HW145736  10.482   9.838  12.290
81299SOL    HW245737  10.608   9.764  12.250
81300SOL     OW45738   4.965   9.048  14.031
81300SOL    HW145739   4.960   8.956  14.054
81300SOL    HW245740   5.009   9.090  14.105
81301SOL     OW45741   6.154  14.497   2.577
81301SOL    HW145742   6.134  14.559   2.647
81301SOL    HW245743   6.190  14.551   2.506
81302SOL     OW45744   0.759   1.406   7.839
81302SOL    HW145745   0.849   1.420   7.869
81302SOL    HW245746   0.739   1.484   7.786
81303SOL     OW45747   8.328   3.037   7.999
81303SOL    HW145748   8.388   3.089   8.053
81303SOL    HW245749   8.372   2.953   7.989
81304SOL     OW45750   9.517   6.668   1.317
81304SOL    HW145751   9.530   6.758   1.287
81304SOL    HW245752   9.542   6.670   1.410
81305SOL     OW45753  13.070   8.131   4.120
81305SOL    HW145754  13.141   8.071   4.146
81305SOL    HW245755  13.030   8.158   4.203
81306SOL     OW45756   7.631   7.058   2.607
81306SOL    HW145757   7.671   7.130   2.655
81306SOL    HW245758   7.704   7.012   2.566
81307SOL     OW45759   1.351   9.922   8.456
81307SOL    HW145760   1.382   9.936   8.367
81307SOL    HW245761   1.387   9.837   8.481
81308SOL     OW45762   0.661   3.830   2.525
81308SOL    HW145763   0.717   3.776   2.581
81308SOL    HW245764   0.715   3.906   2.503
81309SOL     OW45765  14.246  12.574   2.286
81309SOL    HW145766  14.206  12.495   2.249
81309SOL    HW245767  14.336  12.548   2.303
81310SOL     OW45768  10.205   5.109   3.439
81310SOL    HW145769  10.242   5.156   3.364
81310SOL    HW245770  10.166   5.177   3.494
81311SOL     OW45771  10.112  10.814  13.471
81311SOL    HW145772  10.122  10.805  13.566
81311SOL    HW245773  10.056  10.741  13.446
81312SOL     OW45774   5.392   3.181  12.116
81312SOL    HW145775   5.349   3.115  12.170
81312SOL    HW245776   5.446   3.231  12.177
81313SOL     OW45777   4.280   0.234   7.490
81313SOL    HW145778   4.258   0.142   7.478
81313SOL    HW245779   4.376   0.236   7.486
81314SOL     OW45780   5.414  13.445   7.487
81314SOL    HW145781   5.332  13.455   7.439
81314SOL    HW245782   5.388  13.450   7.579
81315SOL     OW45783   8.452   2.872   8.895
81315SOL    HW145784   8.429   2.902   8.983
81315SOL    HW245785   8.416   2.938   8.837
81316SOL     OW45786  11.741   8.993   0.982
81316SOL    HW145787  11.828   9.022   1.011
81316SOL    HW245788  11.759   8.918   0.925
81317SOL     OW45789   1.268   3.521  10.435
81317SOL    HW145790   1.299   3.451  10.493
81317SOL    HW245791   1.261   3.597  10.492
81318SOL     OW45792  12.792   1.691  10.374
81318SOL    HW145793  12.800   1.785  10.359
81318SOL    HW245794  12.752   1.684  10.461
81319SOL     OW45795   4.060   9.452   5.074
81319SOL    HW145796   3.986   9.395   5.055
81319SOL    HW245797   4.083   9.491   4.989
81320SOL     OW45798   3.663   5.471   7.153
81320SOL    HW145799   3.629   5.528   7.223
81320SOL    HW245800   3.753   5.499   7.141
81321SOL     OW45801  13.366  10.394   3.811
81321SOL    HW145802  13.327  10.430   3.891
81321SOL    HW245803  13.323  10.309   3.800
81322SOL     OW45804   0.755   6.014   7.506
81322SOL    HW145805   0.664   6.002   7.531
81322SOL    HW245806   0.805   6.002   7.587
81323SOL     OW45807  14.159  11.536   8.745
81323SOL    HW145808  14.152  11.611   8.804
81323SOL    HW245809  14.191  11.574   8.663
81324SOL     OW45810  12.541   5.672   9.972
81324SOL    HW145811  12.446   5.667   9.984
81324SOL    HW245812  12.553   5.740   9.906
81325SOL     OW45813   3.916   5.948  11.136
81325SOL    HW145814   3.945   5.941  11.045
81325SOL    HW245815   3.984   5.904  11.187
81326SOL     OW45816  12.251   2.805   9.886
81326SOL    HW145817  12.200   2.734   9.848
81326SOL    HW245818  12.331   2.763   9.917
81327SOL     OW45819   4.548   9.478  12.530
81327SOL    HW145820   4.625   9.535  12.534
81327SOL    HW245821   4.553   9.425  12.610
81328SOL     OW45822   0.395   4.454   7.056
81328SOL    HW145823   0.439   4.396   6.993
81328SOL    HW245824   0.373   4.397   7.129
81329SOL     OW45825  13.376  14.406   2.104
81329SOL    HW145826  13.376  14.474   2.172
81329SOL    HW245827  13.365  14.324   2.152
81330SOL     OW45828   3.852   4.323   3.933
81330SOL    HW145829   3.936   4.284   3.908
81330SOL    HW245830   3.875   4.411   3.963
81331SOL     OW45831  10.263   1.135  11.226
81331SOL    HW145832  10.241   1.042  11.219
81331SOL    HW245833  10.359   1.137  11.235
81332SOL     OW45834   7.795  13.788   5.743
81332SOL    HW145835   7.794  13.698   5.774
81332SOL    HW245836   7.749  13.838   5.810
81333SOL     OW45837   4.197   5.055   3.761
81333SOL    HW145838   4.272   5.004   3.732
81333SOL    HW245839   4.121   5.003   3.735
81334SOL     OW45840   9.459   9.595   6.218
81334SOL    HW145841   9.444   9.517   6.163
81334SOL    HW245842   9.458   9.668   6.156
81335SOL     OW45843   9.031   0.462   4.137
81335SOL    HW145844   9.025   0.557   4.142
81335SOL    HW245845   8.987   0.440   4.054
81336SOL     OW45846   7.025   6.155   7.218
81336SOL    HW145847   7.034   6.173   7.311
81336SOL    HW245848   7.090   6.086   7.201
81337SOL     OW45849   8.890   1.238   0.303
81337SOL    HW145850   8.823   1.209   0.364
81337SOL    HW245851   8.876   1.186   0.224
81338SOL     OW45852  13.435   4.510   3.190
81338SOL    HW145853  13.373   4.532   3.119
81338SOL    HW245854  13.421   4.416   3.204
81339SOL     OW45855   1.127  13.383   7.200
81339SOL    HW145856   1.154  13.364   7.290
81339SOL    HW245857   1.059  13.318   7.181
81340SOL     OW45858  12.105   7.728   4.593
81340SOL    HW145859  12.033   7.696   4.539
81340SOL    HW245860  12.149   7.649   4.624
81341SOL     OW45861   7.696   6.350   6.659
81341SOL    HW145862   7.784   6.335   6.624
81341SOL    HW245863   7.711   6.382   6.748
81342SOL     OW45864  12.426   1.050   4.363
81342SOL    HW145865  12.410   1.035   4.270
81342SOL    HW245866  12.354   1.005   4.408
81343SOL     OW45867   9.646   4.934  12.393
81343SOL    HW145868   9.654   4.984  12.475
81343SOL    HW245869   9.605   4.995  12.332
81344SOL     OW45870  12.929   5.003   1.283
81344SOL    HW145871  12.842   4.962   1.280
81344SOL    HW245872  12.912   5.097   1.280
81345SOL     OW45873   4.843  10.637   7.223
81345SOL    HW145874   4.758  10.615   7.184
81345SOL    HW245875   4.828  10.721   7.267
81346SOL     OW45876   2.335   3.546  10.860
81346SOL    HW145877   2.392   3.622  10.857
81346SOL    HW245878   2.395   3.471  10.856
81347SOL     OW45879   8.540  11.187  12.009
81347SOL    HW145880   8.584  11.157  11.929
81347SOL    HW245881   8.521  11.279  11.994
81348SOL     OW45882   0.915   2.164   2.188
81348SOL    HW145883   1.008   2.185   2.180
81348SOL    HW245884   0.884   2.153   2.098
81349SOL     OW45885   5.478   9.486  14.818
81349SOL    HW145886   5.427   9.509  14.740
81349SOL    HW245887   5.435   9.408  14.853
81350SOL     OW45888  14.267   7.729   3.449
81350SOL    HW145889  14.197   7.708   3.387
81350SOL    HW245890  14.225   7.726   3.535
81351SOL     OW45891   9.172   7.471   4.581
81351SOL    HW145892   9.243   7.497   4.522
81351SOL    HW245893   9.177   7.533   4.653
81352SOL     OW45894   5.539   3.234  13.473
81352SOL    HW145895   5.565   3.219  13.564
81352SOL    HW245896   5.470   3.170  13.457
81353SOL     OW45897  11.631   9.262   4.329
81353SOL    HW145898  11.541   9.287   4.308
81353SOL    HW245899  11.647   9.303   4.414
81354SOL     OW45900   3.094  11.945  11.297
81354SOL    HW145901   3.128  11.863  11.331
81354SOL    HW245902   3.025  11.920  11.237
81355SOL     OW45903  14.262   0.130  10.090
81355SOL    HW145904  14.194   0.113  10.025
81355SOL    HW245905  14.285   0.222  10.078
81356SOL     OW45906   6.067   8.373  12.272
81356SOL    HW145907   6.016   8.355  12.193
81356SOL    HW245908   6.030   8.315  12.338
81357SOL     OW45909  11.125   1.852  14.251
81357SOL    HW145910  11.165   1.787  14.193
81357SOL    HW245911  11.136   1.935  14.205
81358SOL     OW45912   3.436  10.994   4.865
81358SOL    HW145913   3.524  10.975   4.834
81358SOL    HW245914   3.386  10.914   4.848
81359SOL     OW45915   0.124   6.457   0.092
81359SOL    HW145916   0.185   6.387   0.069
81359SOL    HW245917   0.096   6.493   0.008
81360SOL     OW45918   3.642   1.921  13.719
81360SOL    HW145919   3.736   1.904  13.722
81360SOL    HW245920   3.607   1.857  13.658
81361SOL     OW45921   4.562   5.523   3.557
81361SOL    HW145922   4.473   5.559   3.551
81361SOL    HW245923   4.551   5.430   3.542
81362SOL     OW45924  10.716   1.686   4.352
81362SOL    HW145925  10.807   1.657   4.341
81362SOL    HW245926  10.665   1.627   4.297
81363SOL     OW45927   6.408  11.431   8.522
81363SOL    HW145928   6.388  11.457   8.611
81363SOL    HW245929   6.411  11.513   8.472
81364SOL     OW45930   6.041   3.869   7.826
81364SOL    HW145931   5.978   3.941   7.822
81364SOL    HW245932   6.081   3.877   7.913
81365SOL     OW45933   6.710  10.405   5.624
81365SOL    HW145934   6.777  10.469   5.601
81365SOL    HW245935   6.756  10.321   5.625
81366SOL     OW45936  12.553  12.679   8.785
81366SOL    HW145937  12.524  12.763   8.821
81366SOL    HW245938  12.607  12.703   8.709
81367SOL     OW45939   4.040   7.868   3.659
81367SOL    HW145940   4.083   7.855   3.575
81367SOL    HW245941   3.947   7.878   3.638
81368SOL     OW45942   2.393  13.313  12.032
81368SOL    HW145943   2.396  13.335  12.125
81368SOL    HW245944   2.316  13.257  12.023
81369SOL     OW45945   8.316   7.073   7.948
81369SOL    HW145946   8.405   7.041   7.962
81369SOL    HW245947   8.263   6.993   7.940
81370SOL     OW45948  10.736   9.692   5.940
81370SOL    HW145949  10.790   9.680   5.862
81370SOL    HW245950  10.797   9.723   6.007
81371SOL     OW45951   5.818   4.162   1.909
81371SOL    HW145952   5.742   4.202   1.866
81371SOL    HW245953   5.850   4.098   1.845
81372SOL     OW45954   0.669   3.270   0.083
81372SOL    HW145955   0.700   3.241  14.870
81372SOL    HW245956   0.640   3.360   0.069
81373SOL     OW45957  11.927   3.351  13.517
81373SOL    HW145958  11.977   3.422  13.478
81373SOL    HW245959  11.843   3.352  13.471
81374SOL     OW45960   5.540  14.221   4.177
81374SOL    HW145961   5.545  14.171   4.258
81374SOL    HW245962   5.487  14.167   4.118
81375SOL     OW45963   2.269   9.641  13.798
81375SOL    HW145964   2.234   9.600  13.877
81375SOL    HW245965   2.297   9.567  13.743
81376SOL     OW45966   6.826  10.627   4.922
81376SOL    HW145967   6.737  10.655   4.944
81376SOL    HW245968   6.826  10.533   4.938
81377SOL     OW45969  14.134   4.067  11.370
81377SOL    HW145970  14.081   4.120  11.429
81377SOL    HW245971  14.072   4.004  11.332
81378SOL     OW45972  13.324   6.578   2.393
81378SOL    HW145973  13.416   6.600   2.383
81378SOL    HW245974  13.324   6.485   2.416
81379SOL     OW45975   3.490   8.342  12.078
81379SOL    HW145976   3.430   8.358  12.151
81379SOL    HW245977   3.534   8.260  12.100
81380SOL     OW45978   0.173  14.736  10.804
81380SOL    HW145979   0.190  14.827  10.779
81380SOL    HW245980   0.110  14.742  10.876
81381SOL     OW45981   9.365   6.866  13.363
81381SOL    HW145982   9.315   6.886  13.442
81381SOL    HW245983   9.310   6.802  13.316
81382SOL     OW45984  12.275   3.548  10.008
81382SOL    HW145985  12.356   3.506  10.038
81382SOL    HW245986  12.293   3.573   9.917
81383SOL     OW45987  14.424   6.807  12.456
81383SOL    HW145988  14.394   6.897  12.448
81383SOL    HW245989  14.464   6.787  12.371
81384SOL     OW45990   3.002   1.987   9.207
81384SOL    HW145991   2.940   2.038   9.154
81384SOL    HW245992   3.012   2.037   9.287
81385SOL     OW45993   2.072  13.334  11.629
81385SOL    HW145994   2.095  13.297  11.544
81385SOL    HW245995   1.996  13.390  11.611
81386SOL     OW45996   1.885   7.993   0.031
81386SOL    HW145997   1.932   7.909   0.022
81386SOL    HW245998   1.844   8.007  14.819
81387SOL     OW45999   0.944   6.015  12.784
81387SOL    HW146000   0.892   5.935  12.779
81387SOL    HW246001   1.009   5.998  12.852
81388SOL     OW46002   9.291   7.593   2.353
81388SOL    HW146003   9.267   7.593   2.445
81388SOL    HW246004   9.210   7.614   2.306
81389SOL     OW46005  14.011   3.077   3.345
81389SOL    HW146006  14.101   3.047   3.347
81389SOL    HW246007  14.012   3.153   3.287
81390SOL     OW46008   2.357  12.690   6.608
81390SOL    HW146009   2.356  12.603   6.646
81390SOL    HW246010   2.395  12.746   6.676
81391SOL     OW46011  12.218  13.312   5.698
81391SOL    HW146012  12.230  13.399   5.659
81391SOL    HW246013  12.138  13.321   5.750
81392SOL     OW46014   4.736   9.336   0.345
81392SOL    HW146015   4.780   9.255   0.373
81392SOL    HW246016   4.654   9.337   0.394
81393SOL     OW46017   2.591  10.269   9.725
81393SOL    HW146018   2.566  10.335   9.789
81393SOL    HW246019   2.684  10.284   9.710
81394SOL     OW46020   7.936   2.778  14.354
81394SOL    HW146021   7.899   2.830  14.282
81394SOL    HW246022   7.956   2.842  14.422
81395SOL     OW46023   7.481  14.748  11.443
81395SOL    HW146024   7.487  14.821  11.381
81395SOL    HW246025   7.438  14.784  11.520
81396SOL     OW46026  14.088   3.975   3.499
81396SOL    HW146027  13.993   3.967   3.489
81396SOL    HW246028  14.123   3.894   3.461
81397SOL     OW46029   9.757  13.637   6.162
81397SOL    HW146030   9.829  13.590   6.203
81397SOL    HW246031   9.687  13.637   6.227
81398SOL     OW46032   1.350   2.336  10.551
81398SOL    HW146033   1.288   2.273  10.590
81398SOL    HW246034   1.436   2.298  10.568
81399SOL     OW46035   4.982   4.623   1.311
81399SOL    HW146036   4.905   4.625   1.255
81399SOL    HW246037   4.968   4.547   1.368
81400SOL     OW46038  13.011  14.800   5.945
81400SOL    HW146039  13.016   0.000   6.007
81400SOL    HW246040  12.919  14.774   5.946
81401SOL     OW46041   6.143   9.373   6.271
81401SOL    HW146042   6.118   9.292   6.227
81401SOL    HW246043   6.206   9.414   6.212
81402SOL     OW46044   2.933   1.067   7.998
81402SOL    HW146045   2.864   1.035   8.056
81402SOL    HW246046   2.922   1.162   7.999
81403SOL     OW46047   7.141   1.488   3.936
81403SOL    HW146048   7.199   1.461   4.007
81403SOL    HW246049   7.156   1.423   3.867
81404SOL     OW46050  12.118   1.447  10.331
81404SOL    HW146051  12.132   1.538  10.359
81404SOL    HW246052  12.053   1.413  10.391
81405SOL     OW46053  11.876   7.476  13.672
81405SOL    HW146054  11.832   7.391  13.682
81405SOL    HW246055  11.808   7.533  13.634
81406SOL     OW46056   7.575   9.009  10.948
81406SOL    HW146057   7.592   9.102  10.965
81406SOL    HW246058   7.648   8.964  10.990
81407SOL     OW46059  12.324   7.421   4.404
81407SOL    HW146060  12.233   7.449   4.408
81407SOL    HW246061  12.327   7.339   4.454
81408SOL     OW46062  12.022  10.763   7.727
81408SOL    HW146063  12.081  10.805   7.665
81408SOL    HW246064  12.079  10.719   7.789
81409SOL     OW46065  14.188  10.915   2.142
81409SOL    HW146066  14.201  11.010   2.135
81409SOL    HW246067  14.233  10.879   2.065
81410SOL     OW46068   0.908   1.148   5.107
81410SOL    HW146069   0.936   1.082   5.170
81410SOL    HW246070   0.812   1.149   5.116
81411SOL     OW46071   0.090  11.182  11.540
81411SOL    HW146072   0.132  11.209  11.458
81411SOL    HW246073   0.007  11.231  11.541
81412SOL     OW46074  14.189   2.493   1.861
81412SOL    HW146075  14.282   2.476   1.881
81412SOL    HW246076  14.145   2.482   1.945
81413SOL     OW46077   5.985  10.847  13.623
81413SOL    HW146078   5.939  10.898  13.556
81413SOL    HW246079   5.996  10.907  13.696
81414SOL     OW46080   4.292   0.065   4.526
81414SOL    HW146081   4.303  14.864   4.467
81414SOL    HW246082   4.348   0.045   4.601
81415SOL     OW46083  14.478   2.491   1.613
81415SOL    HW146084  14.540   2.471   1.683
81415SOL    HW246085  14.521   2.558   1.560
81416SOL     OW46086   2.607   7.219   6.460
81416SOL    HW146087   2.578   7.129   6.443
81416SOL    HW246088   2.630   7.220   6.553
81417SOL     OW46089   1.219   9.405   4.005
81417SOL    HW146090   1.180   9.436   4.087
81417SOL    HW246091   1.192   9.314   3.998
81418SOL     OW46092   2.561  13.138   4.422
81418SOL    HW146093   2.636  13.170   4.471
81418SOL    HW246094   2.490  13.198   4.445
81419SOL     OW46095   8.109   0.305  14.439
81419SOL    HW146096   8.057   0.241  14.391
81419SOL    HW246097   8.080   0.390  14.406
81420SOL     OW46098   5.857   0.081  10.867
81420SOL    HW146099   5.900   0.070  10.782
81420SOL    HW246100   5.763   0.078  10.847
81421SOL     OW46101   4.079  10.920   9.787
81421SOL    HW146102   4.071  11.000   9.838
81421SOL    HW246103   4.170  10.892   9.800
81422SOL     OW46104  13.876   9.995   3.979
81422SOL    HW146105  13.964   9.969   3.953
81422SOL    HW246106  13.860  10.077   3.931
81423SOL     OW46107   6.227   3.190   0.428
81423SOL    HW146108   6.166   3.134   0.381
81423SOL    HW246109   6.254   3.256   0.364
81424SOL     OW46110   3.645   8.475   1.209
81424SOL    HW146111   3.665   8.495   1.117
81424SOL    HW246112   3.619   8.559   1.246
81425SOL     OW46113  13.913  14.249   5.396
81425SOL    HW146114  13.902  14.289   5.482
81425SOL    HW246115  14.008  14.236   5.388
81426SOL     OW46116   3.307  14.645  12.170
81426SOL    HW146117   3.395  14.638  12.208
81426SOL    HW246118   3.248  14.620  12.240
81427SOL     OW46119   3.063  14.255   3.360
81427SOL    HW146120   3.039  14.342   3.327
81427SOL    HW246121   3.015  14.246   3.442
81428SOL     OW46122  12.965   0.302  13.994
81428SOL    HW146123  13.041   0.246  14.012
81428SOL    HW246124  12.907   0.289  14.069
81429SOL     OW46125   0.882   3.962  11.784
81429SOL    HW146126   0.872   3.876  11.826
81429SOL    HW246127   0.970   3.990  11.810
81430SOL     OW46128  11.163   1.938   7.478
81430SOL    HW146129  11.166   1.892   7.395
81430SOL    HW246130  11.199   2.025   7.459
81431SOL     OW46131   7.342   8.533  13.889
81431SOL    HW146132   7.249   8.548  13.905
81431SOL    HW246133   7.361   8.582  13.809
81432SOL     OW46134   5.002  10.169   0.137
81432SOL    HW146135   4.926  10.180   0.194
81432SOL    HW246136   4.984  10.090   0.086
81433SOL     OW46137   3.067   3.742  10.350
81433SOL    HW146138   3.118   3.709  10.425
81433SOL    HW246139   3.031   3.663  10.310
81434SOL     OW46140  11.526   4.818   6.585
81434SOL    HW146141  11.488   4.859   6.663
81434SOL    HW246142  11.554   4.731   6.615
81435SOL     OW46143  11.295   4.995  12.961
81435SOL    HW146144  11.288   5.043  13.044
81435SOL    HW246145  11.225   4.930  12.964
81436SOL     OW46146   7.264   1.146  14.699
81436SOL    HW146147   7.294   1.068  14.746
81436SOL    HW246148   7.180   1.120  14.662
81437SOL     OW46149   7.496   9.148   2.317
81437SOL    HW146150   7.584   9.179   2.335
81437SOL    HW246151   7.486   9.070   2.371
81438SOL     OW46152   4.455   6.761   9.932
81438SOL    HW146153   4.361   6.756   9.950
81438SOL    HW246154   4.471   6.854   9.916
81439SOL     OW46155   9.771   4.695   4.903
81439SOL    HW146156   9.724   4.654   4.975
81439SOL    HW246157   9.862   4.696   4.931
81440SOL     OW46158   8.212   7.237   7.007
81440SOL    HW146159   8.300   7.215   7.038
81440SOL    HW246160   8.153   7.189   7.067
81441SOL     OW46161  13.094   1.078   0.096
81441SOL    HW146162  13.030   1.125   0.150
81441SOL    HW246163  13.146   1.028   0.158
81442SOL     OW46164   7.353   0.782   4.681
81442SOL    HW146165   7.313   0.783   4.768
81442SOL    HW246166   7.446   0.802   4.697
81443SOL     OW46167   5.345   3.831   3.261
81443SOL    HW146168   5.437   3.818   3.285
81443SOL    HW246169   5.318   3.908   3.311
81444SOL     OW46170   3.956  11.042   5.821
81444SOL    HW146171   3.941  11.013   5.731
81444SOL    HW246172   4.043  11.082   5.819
81445SOL     OW46173   3.617  11.507   4.337
81445SOL    HW146174   3.594  11.589   4.293
81445SOL    HW246175   3.565  11.440   4.293
81446SOL     OW46176   3.974  14.293  13.547
81446SOL    HW146177   3.989  14.313  13.639
81446SOL    HW246178   4.048  14.237  13.522
81447SOL     OW46179   7.055   3.451  12.030
81447SOL    HW146180   7.067   3.369  11.983
81447SOL    HW246181   7.134   3.501  12.013
81448SOL     OW46182   2.609  13.584   3.140
81448SOL    HW146183   2.672  13.613   3.206
81448SOL    HW246184   2.662  13.542   3.073
81449SOL     OW46185   1.811   7.936   8.709
81449SOL    HW146186   1.823   8.029   8.689
81449SOL    HW246187   1.898   7.898   8.698
81450SOL     OW46188   7.811   0.759   9.332
81450SOL    HW146189   7.818   0.677   9.285
81450SOL    HW246190   7.891   0.763   9.386
81451SOL     OW46191   6.468   0.012   1.318
81451SOL    HW146192   6.514   0.069   1.379
81451SOL    HW246193   6.533  14.862   1.252
81452SOL     OW46194   2.433  13.978  14.421
81452SOL    HW146195   2.376  13.909  14.389
81452SOL    HW246196   2.433  14.044  14.352
81453SOL     OW46197   2.608   9.590   7.821
81453SOL    HW146198   2.590   9.630   7.736
81453SOL    HW246199   2.550   9.635   7.882
81454SOL     OW46200   1.290  10.120  11.933
81454SOL    HW146201   1.280  10.065  11.855
81454SOL    HW246202   1.272  10.209  11.903
81455SOL     OW46203  11.893   4.696  14.514
81455SOL    HW146204  11.886   4.726  14.605
81455SOL    HW246205  11.976   4.732  14.484
81456SOL     OW46206  14.096  11.928   9.659
81456SOL    HW146207  14.100  12.010   9.611
81456SOL    HW246208  14.062  11.951   9.745
81457SOL     OW46209  10.630  10.331   5.172
81457SOL    HW146210  10.558  10.362   5.227
81457SOL    HW246211  10.660  10.409   5.125
81458SOL     OW46212   5.750   9.833   8.707
81458SOL    HW146213   5.824   9.830   8.647
81458SOL    HW246214   5.722   9.924   8.706
81459SOL     OW46215   4.524   0.028   6.586
81459SOL    HW146216   4.436  14.873   6.562
81459SOL    HW246217   4.550  14.842   6.656
81460SOL     OW46218   9.619   1.989   7.632
81460SOL    HW146219   9.678   1.936   7.578
81460SOL    HW246220   9.622   1.948   7.718
81461SOL     OW46221  11.836   5.894   6.816
81461SOL    HW146222  11.769   5.922   6.754
81461SOL    HW246223  11.919   5.905   6.769
81462SOL     OW46224   0.668  11.683  12.059
81462SOL    HW146225   0.672  11.602  12.007
81462SOL    HW246226   0.629  11.655  12.142
81463SOL     OW46227   8.014   6.213   0.370
81463SOL    HW146228   8.054   6.135   0.408
81463SOL    HW246229   8.054   6.286   0.419
81464SOL     OW46230   2.096   0.107  12.080
81464SOL    HW146231   2.058   0.099  11.993
81464SOL    HW246232   2.126   0.198  12.085
81465SOL     OW46233  10.657   1.517  12.412
81465SOL    HW146234  10.580   1.564  12.380
81465SOL    HW246235  10.722   1.586  12.427
81466SOL     OW46236   7.496   1.495  13.065
81466SOL    HW146237   7.557   1.567  13.052
81466SOL    HW246238   7.470   1.501  13.157
81467SOL     OW46239   3.167   2.532  11.726
81467SOL    HW146240   3.162   2.584  11.646
81467SOL    HW246241   3.169   2.596  11.797
81468SOL     OW46242   8.294   1.816   9.924
81468SOL    HW146243   8.207   1.786   9.952
81468SOL    HW246244   8.325   1.748   9.865
81469SOL     OW46245   0.546   6.602  14.408
81469SOL    HW146246   0.456   6.602  14.375
81469SOL    HW246247   0.544   6.546  14.486
81470SOL     OW46248   1.896   5.988  10.192
81470SOL    HW146249   1.852   5.978  10.276
81470SOL    HW246250   1.989   5.983  10.214
81471SOL     OW46251   0.101  10.815  11.119
81471SOL    HW146252   0.092  10.749  11.050
81471SOL    HW246253   0.011  10.832  11.147
81472SOL     OW46254   3.316  10.160   1.283
81472SOL    HW146255   3.279  10.235   1.329
81472SOL    HW246256   3.336  10.193   1.196
81473SOL     OW46257  14.318   4.777   3.818
81473SOL    HW146258  14.273   4.692   3.825
81473SOL    HW246259  14.401   4.757   3.775
81474SOL     OW46260   0.325   8.678   8.619
81474SOL    HW146261   0.256   8.616   8.646
81474SOL    HW246262   0.394   8.666   8.685
81475SOL     OW46263   3.952  10.163   5.642
81475SOL    HW146264   3.945  10.157   5.738
81475SOL    HW246265   4.045  10.152   5.624
81476SOL     OW46266   8.473   8.593   9.864
81476SOL    HW146267   8.546   8.550   9.819
81476SOL    HW246268   8.458   8.673   9.814
81477SOL     OW46269  12.776   5.159  11.468
81477SOL    HW146270  12.767   5.191  11.378
81477SOL    HW246271  12.871   5.158  11.483
81478SOL     OW46272   3.407   9.333   1.472
81478SOL    HW146273   3.501   9.339   1.456
81478SOL    HW246274   3.397   9.349   1.566
81479SOL     OW46275  11.612   7.195  10.910
81479SOL    HW146276  11.658   7.256  10.853
81479SOL    HW246277  11.634   7.224  10.999
81480SOL     OW46278   2.993   3.496   0.108
81480SOL    HW146279   2.927   3.502   0.177
81480SOL    HW246280   2.966   3.560   0.043
81481SOL     OW46281   1.570  13.761   5.822
81481SOL    HW146282   1.586  13.851   5.849
81481SOL    HW246283   1.651  13.714   5.845
81482SOL     OW46284   9.089   3.620   4.371
81482SOL    HW146285   9.088   3.712   4.397
81482SOL    HW246286   9.009   3.583   4.410
81483SOL     OW46287   2.246  11.212  13.047
81483SOL    HW146288   2.280  11.301  13.035
81483SOL    HW246289   2.225  11.207  13.140
81484SOL     OW46290   5.812  10.088  12.741
81484SOL    HW146291   5.769  10.173  12.737
81484SOL    HW246292   5.755  10.030  12.690
81485SOL     OW46293   1.200  12.356   0.739
81485SOL    HW146294   1.276  12.324   0.691
81485SOL    HW246295   1.148  12.277   0.758
81486SOL     OW46296   7.234  14.024   8.732
81486SOL    HW146297   7.156  14.052   8.686
81486SOL    HW246298   7.303  14.084   8.704
81487SOL     OW46299   2.586   3.456   0.055
81487SOL    HW146300   2.575   3.549   0.034
81487SOL    HW246301   2.577   3.451   0.150
81488SOL     OW46302   9.218   4.799   6.055
81488SOL    HW146303   9.230   4.845   6.138
81488SOL    HW246304   9.200   4.708   6.080
81489SOL     OW46305   7.447   2.723   4.556
81489SOL    HW146306   7.353   2.719   4.568
81489SOL    HW246307   7.481   2.646   4.600
81490SOL     OW46308  13.269  13.271   9.851
81490SOL    HW146309  13.236  13.284   9.762
81490SOL    HW246310  13.364  13.269   9.841
81491SOL     OW46311  11.930  14.820   3.095
81491SOL    HW146312  11.974  14.800   3.178
81491SOL    HW246313  11.964  14.757   3.033
81492SOL     OW46314   5.269   7.096   0.503
81492SOL    HW146315   5.265   7.180   0.456
81492SOL    HW246316   5.346   7.104   0.559
81493SOL     OW46317  12.760   2.826   0.687
81493SOL    HW146318  12.720   2.845   0.602
81493SOL    HW246319  12.831   2.890   0.694
81494SOL     OW46320   3.716   0.053   4.238
81494SOL    HW146321   3.783   0.118   4.221
81494SOL    HW246322   3.635   0.103   4.249
81495SOL     OW46323   4.878   7.288   9.950
81495SOL    HW146324   4.849   7.289  10.042
81495SOL    HW246325   4.968   7.258   9.953
81496SOL     OW46326  13.739   1.497   2.509
81496SOL    HW146327  13.687   1.421   2.482
81496SOL    HW246328  13.750   1.487   2.603
81497SOL     OW46329   7.795   0.892   2.310
81497SOL    HW146330   7.845   0.857   2.236
81497SOL    HW246331   7.757   0.973   2.277
81498SOL     OW46332   1.129  10.957   0.320
81498SOL    HW146333   1.048  10.977   0.272
81498SOL    HW246334   1.149  10.867   0.294
81499SOL     OW46335  11.333   6.445  12.455
81499SOL    HW146336  11.353   6.354  12.432
81499SOL    HW246337  11.418   6.482  12.478
81500SOL     OW46338   2.234   8.539   6.754
81500SOL    HW146339   2.145   8.517   6.727
81500SOL    HW246340   2.226   8.627   6.792
81501SOL     OW46341   3.571   5.806   5.353
81501SOL    HW146342   3.582   5.728   5.298
81501SOL    HW246343   3.627   5.872   5.313
81502SOL     OW46344  11.133   8.468   8.002
81502SOL    HW146345  11.125   8.520   8.082
81502SOL    HW246346  11.155   8.380   8.032
81503SOL     OW46347   5.670  11.642  13.756
81503SOL    HW146348   5.606  11.711  13.741
81503SOL    HW246349   5.677  11.635  13.851
81504SOL     OW46350   0.785   1.719   8.807
81504SOL    HW146351   0.852   1.737   8.873
81504SOL    HW246352   0.730   1.651   8.846
81505SOL     OW46353  13.913   9.093   5.929
81505SOL    HW146354  13.902   9.162   5.994
81505SOL    HW246355  13.833   9.095   5.877
81506SOL     OW46356  13.690   1.950  10.165
81506SOL    HW146357  13.601   1.918  10.150
81506SOL    HW246358  13.723   1.895  10.237
81507SOL     OW46359   0.713  13.569   7.327
81507SOL    HW146360   0.735  13.655   7.363
81507SOL    HW246361   0.712  13.582   7.232
81508SOL     OW46362   0.920   3.705   9.218
81508SOL    HW146363   0.942   3.708   9.312
81508SOL    HW246364   0.866   3.782   9.204
81509SOL     OW46365   7.228   5.199   7.892
81509SOL    HW146366   7.182   5.132   7.842
81509SOL    HW246367   7.290   5.150   7.946
81510SOL     OW46368  10.334  11.675  11.468
81510SOL    HW146369  10.384  11.751  11.440
81510SOL    HW246370  10.306  11.696  11.558
81511SOL     OW46371   6.161   9.420   2.305
81511SOL    HW146372   6.205   9.504   2.295
81511SOL    HW246373   6.082   9.441   2.355
81512SOL     OW46374  13.149   3.832   2.057
81512SOL    HW146375  13.062   3.814   2.020
81512SOL    HW246376  13.163   3.925   2.039
81513SOL     OW46377   6.475   6.907   8.039
81513SOL    HW146378   6.419   6.915   7.962
81513SOL    HW246379   6.519   6.992   8.045
81514SOL     OW46380  12.626  14.326   2.985
81514SOL    HW146381  12.613  14.262   2.916
81514SOL    HW246382  12.692  14.386   2.950
81515SOL     OW46383   2.880  13.623   5.546
81515SOL    HW146384   2.857  13.641   5.637
81515SOL    HW246385   2.812  13.563   5.516
81516SOL     OW46386  11.101   8.531  13.346
81516SOL    HW146387  11.143   8.549  13.431
81516SOL    HW246388  11.098   8.436  13.340
81517SOL     OW46389   1.842   5.009   7.819
81517SOL    HW146390   1.823   5.094   7.858
81517SOL    HW246391   1.862   4.952   7.894
81518SOL     OW46392  14.093   8.285   4.005
81518SOL    HW146393  14.150   8.343   3.956
81518SOL    HW246394  14.022   8.263   3.944
81519SOL     OW46395  14.236  12.950  13.095
81519SOL    HW146396  14.188  12.986  13.020
81519SOL    HW246397  14.210  12.858  13.099
81520SOL     OW46398   1.890   0.053   1.385
81520SOL    HW146399   1.923  14.867   1.453
81520SOL    HW246400   1.796   0.036   1.383
81521SOL     OW46401   2.848   7.567  14.395
81521SOL    HW146402   2.942   7.553  14.390
81521SOL    HW246403   2.813   7.485  14.430
81522SOL     OW46404   9.745   1.460  14.559
81522SOL    HW146405   9.830   1.426  14.587
81522SOL    HW246406   9.683   1.389  14.577
81523SOL     OW46407  13.983   3.882   8.244
81523SOL    HW146408  13.944   3.944   8.305
81523SOL    HW246409  13.909   3.835   8.207
81524SOL     OW46410   8.497  11.874   9.234
81524SOL    HW146411   8.575  11.920   9.205
81524SOL    HW246412   8.460  11.836   9.155
81525SOL     OW46413   5.142  13.747   0.760
81525SOL    HW146414   5.157  13.815   0.826
81525SOL    HW246415   5.202  13.770   0.689
81526SOL     OW46416   8.688   8.576   5.272
81526SOL    HW146417   8.679   8.638   5.200
81526SOL    HW246418   8.770   8.600   5.315
81527SOL     OW46419  11.778   9.768   5.932
81527SOL    HW146420  11.807   9.730   6.015
81527SOL    HW246421  11.755   9.693   5.878
81528SOL     OW46422  13.426   2.835   9.007
81528SOL    HW146423  13.353   2.889   9.036
81528SOL    HW246424  13.493   2.899   8.982
81529SOL     OW46425   7.406   9.867  10.357
81529SOL    HW146426   7.379   9.778  10.334
81529SOL    HW246427   7.398   9.916  10.275
81530SOL     OW46428  12.285   7.202   3.531
81530SOL    HW146429  12.221   7.153   3.479
81530SOL    HW246430  12.366   7.151   3.525
81531SOL     OW46431   6.491   5.584   1.495
81531SOL    HW146432   6.586   5.578   1.490
81531SOL    HW246433   6.469   5.555   1.583
81532SOL     OW46434   7.832   0.859   3.390
81532SOL    HW146435   7.772   0.932   3.376
81532SOL    HW246436   7.845   0.822   3.303
81533SOL     OW46437  13.255  10.950   7.133
81533SOL    HW146438  13.182  10.894   7.158
81533SOL    HW246439  13.214  11.028   7.095
81534SOL     OW46440   2.095   7.028  11.230
81534SOL    HW146441   2.054   7.038  11.316
81534SOL    HW246442   2.023   7.027  11.168
81535SOL     OW46443   4.620   9.695   1.027
81535SOL    HW146444   4.685   9.677   0.959
81535SOL    HW246445   4.589   9.608   1.053
81536SOL     OW46446   3.244   6.241   2.776
81536SOL    HW146447   3.271   6.292   2.700
81536SOL    HW246448   3.315   6.250   2.839
81537SOL     OW46449   1.709   8.590  12.313
81537SOL    HW146450   1.701   8.678  12.276
81537SOL    HW246451   1.622   8.571  12.349
81538SOL     OW46452   0.992   9.435   6.493
81538SOL    HW146453   0.996   9.367   6.560
81538SOL    HW246454   0.978   9.387   6.411
81539SOL     OW46455   5.723  12.559  11.401
81539SOL    HW146456   5.779  12.569  11.478
81539SOL    HW246457   5.706  12.465  11.396
81540SOL     OW46458  11.435   1.263  11.828
81540SOL    HW146459  11.351   1.304  11.810
81540SOL    HW246460  11.496   1.336  11.834
81541SOL     OW46461   3.905   9.589  13.388
81541SOL    HW146462   3.824   9.615  13.432
81541SOL    HW246463   3.940   9.672  13.353
81542SOL     OW46464   8.298  14.639  10.707
81542SOL    HW146465   8.227  14.580  10.732
81542SOL    HW246466   8.254  14.721  10.684
81543SOL     OW46467   4.653   5.997   4.742
81543SOL    HW146468   4.589   6.031   4.805
81543SOL    HW246469   4.724   5.965   4.797
81544SOL     OW46470  13.504  11.693   3.425
81544SOL    HW146471  13.434  11.651   3.375
81544SOL    HW246472  13.584  11.673   3.375
81545SOL     OW46473   4.254   3.150  10.364
81545SOL    HW146474   4.215   3.064  10.374
81545SOL    HW246475   4.184   3.211  10.388
81546SOL     OW46476   0.690   3.633  13.674
81546SOL    HW146477   0.596   3.642  13.659
81546SOL    HW246478   0.731   3.678  13.600
81547SOL     OW46479  14.542   0.087  13.198
81547SOL    HW146480  14.533   0.100  13.292
81547SOL    HW246481  14.614   0.025  13.189
81548SOL     OW46482  10.079   0.387   8.712
81548SOL    HW146483  10.024   0.362   8.786
81548SOL    HW246484  10.020   0.434   8.653
81549SOL     OW46485   8.962   5.520   7.018
81549SOL    HW146486   8.946   5.493   7.108
81549SOL    HW246487   8.984   5.439   6.972
81550SOL     OW46488   8.450   4.171  13.994
81550SOL    HW146489   8.409   4.163  13.908
81550SOL    HW246490   8.377   4.188  14.053
81551SOL     OW46491   3.231   9.002  13.284
81551SOL    HW146492   3.144   9.034  13.309
81551SOL    HW246493   3.249   9.044  13.200
81552SOL     OW46494  11.090   7.338   0.841
81552SOL    HW146495  11.116   7.399   0.910
81552SOL    HW246496  11.132   7.255   0.866
81553SOL     OW46497   2.236  10.669  12.186
81553SOL    HW146498   2.148  10.662  12.223
81553SOL    HW246499   2.264  10.579  12.174
81554SOL     OW46500   9.995   2.236  11.616
81554SOL    HW146501  10.065   2.231  11.681
81554SOL    HW246502   9.920   2.268  11.664
81555SOL     OW46503   0.221  12.078   6.102
81555SOL    HW146504   0.282  12.010   6.075
81555SOL    HW246505   0.184  12.046   6.184
81556SOL     OW46506   7.434   2.014   8.299
81556SOL    HW146507   7.511   2.066   8.276
81556SOL    HW246508   7.470   1.930   8.329
81557SOL     OW46509   3.239  12.445   5.397
81557SOL    HW146510   3.274  12.424   5.484
81557SOL    HW246511   3.316  12.473   5.347
81558SOL     OW46512   2.983  10.119   0.077
81558SOL    HW146513   3.074  10.140   0.094
81558SOL    HW246514   2.937  10.203   0.082
81559SOL     OW46515  11.522  12.933  13.131
81559SOL    HW146516  11.528  12.989  13.208
81559SOL    HW246517  11.600  12.877  13.136
81560SOL     OW46518   7.682   9.842   5.965
81560SOL    HW146519   7.676   9.811   5.874
81560SOL    HW246520   7.633   9.777   6.016
81561SOL     OW46521   2.129  10.097   8.790
81561SOL    HW146522   2.065  10.028   8.770
81561SOL    HW246523   2.162  10.124   8.705
81562SOL     OW46524   5.489   0.821  11.354
81562SOL    HW146525   5.468   0.739  11.309
81562SOL    HW246526   5.461   0.806  11.445
81563SOL     OW46527   2.186   5.346   7.480
81563SOL    HW146528   2.222   5.303   7.558
81563SOL    HW246529   2.139   5.276   7.434
81564SOL     OW46530   2.355  12.420   8.272
81564SOL    HW146531   2.338  12.355   8.340
81564SOL    HW246532   2.286  12.485   8.283
81565SOL     OW46533   8.754   0.713  10.519
81565SOL    HW146534   8.716   0.709  10.606
81565SOL    HW246535   8.768   0.806  10.503
81566SOL     OW46536   9.869   9.244   9.241
81566SOL    HW146537   9.947   9.235   9.187
81566SOL    HW246538   9.811   9.175   9.211
81567SOL     OW46539   6.943   3.791   0.719
81567SOL    HW146540   6.957   3.777   0.625
81567SOL    HW246541   6.862   3.842   0.724
81568SOL     OW46542  12.728   7.391   4.570
81568SOL    HW146543  12.668   7.463   4.549
81568SOL    HW246544  12.694   7.355   4.652
81569SOL     OW46545   8.620  14.696  11.497
81569SOL    HW146546   8.710  14.725  11.510
81569SOL    HW246547   8.627  14.625  11.433
81570SOL     OW46548   2.084   0.863   1.746
81570SOL    HW146549   2.044   0.932   1.799
81570SOL    HW246550   2.119   0.801   1.811
81571SOL     OW46551   4.886  14.389   4.166
81571SOL    HW146552   4.900  14.468   4.218
81571SOL    HW246553   4.974  14.351   4.155
81572SOL     OW46554  12.415  13.418   1.859
81572SOL    HW146555  12.378  13.504   1.876
81572SOL    HW246556  12.344  13.369   1.817
81573SOL     OW46557   5.536   9.536   7.224
81573SOL    HW146558   5.513   9.457   7.272
81573SOL    HW246559   5.464   9.597   7.243
81574SOL     OW46560  14.691   5.809  14.768
81574SOL    HW146561  14.643   5.779  14.690
81574SOL    HW246562  14.702   5.730  14.820
81575SOL     OW46563  13.827   7.075   1.399
81575SOL    HW146564  13.842   7.036   1.484
81575SOL    HW246565  13.880   7.155   1.400
81576SOL     OW46566   7.991   7.843  13.385
81576SOL    HW146567   7.993   7.794  13.467
81576SOL    HW246568   8.034   7.786  13.322
81577SOL     OW46569   6.187   9.705  14.281
81577SOL    HW146570   6.106   9.742  14.316
81577SOL    HW246571   6.170   9.694  14.187
81578SOL     OW46572  10.582   6.771   5.537
81578SOL    HW146573  10.633   6.767   5.618
81578SOL    HW246574  10.559   6.680   5.519
81579SOL     OW46575   9.154  13.158   8.172
81579SOL    HW146576   9.209  13.141   8.249
81579SOL    HW246577   9.200  13.116   8.100
81580SOL     OW46578  13.114   6.640   2.980
81580SOL    HW146579  13.089   6.650   3.071
81580SOL    HW246580  13.208   6.622   2.982
81581SOL     OW46581  13.416   0.009   3.881
81581SOL    HW146582  13.477   0.083   3.882
81581SOL    HW246583  13.470  14.807   3.855
81582SOL     OW46584   3.264   9.407  10.909
81582SOL    HW146585   3.171   9.385  10.907
81582SOL    HW246586   3.284   9.417  11.002
81583SOL     OW46587   8.518  12.297   3.298
81583SOL    HW146588   8.530  12.203   3.316
81583SOL    HW246589   8.607  12.331   3.291
81584SOL     OW46590   2.815  12.694   7.922
81584SOL    HW146591   2.731  12.700   7.876
81584SOL    HW246592   2.880  12.686   7.852
81585SOL     OW46593   2.171   4.114  11.644
81585SOL    HW146594   2.099   4.109  11.707
81585SOL    HW246595   2.131   4.099  11.559
81586SOL     OW46596   0.731   4.515   1.083
81586SOL    HW146597   0.729   4.518   0.987
81586SOL    HW246598   0.775   4.597   1.109
81587SOL     OW46599   3.564  13.002   4.280
81587SOL    HW146600   3.487  13.049   4.314
81587SOL    HW246601   3.548  12.995   4.185
81588SOL     OW46602  13.014   6.885   2.901
81588SOL    HW146603  12.923   6.855   2.899
81588SOL    HW246604  13.060   6.817   2.950
81589SOL     OW46605   4.575   0.898   9.847
81589SOL    HW146606   4.575   0.807   9.819
81589SOL    HW246607   4.624   0.898   9.930
81590SOL     OW46608   0.003   5.253  13.492
81590SOL    HW146609   0.060   5.283  13.422
81590SOL    HW246610  14.825   5.330  13.517
81591SOL     OW46611   6.855   9.199   2.231
81591SOL    HW146612   6.886   9.115   2.198
81591SOL    HW246613   6.831   9.181   2.322
81592SOL     OW46614   7.754   3.352  11.833
81592SOL    HW146615   7.725   3.441  11.814
81592SOL    HW246616   7.752   3.308  11.748
81593SOL     OW46617   9.805   1.832   1.039
81593SOL    HW146618   9.802   1.756   1.096
81593SOL    HW246619   9.726   1.882   1.061
81594SOL     OW46620   5.107  11.594  10.671
81594SOL    HW146621   5.090  11.544  10.751
81594SOL    HW246622   5.112  11.528  10.602
81595SOL     OW46623   8.118   5.706   0.612
81595SOL    HW146624   8.086   5.616   0.618
81595SOL    HW246625   8.195   5.708   0.669
81596SOL     OW46626  13.421   8.336   2.084
81596SOL    HW146627  13.353   8.284   2.041
81596SOL    HW246628  13.382   8.423   2.093
81597SOL     OW46629   7.846  10.186  10.967
81597SOL    HW146630   7.771  10.210  11.022
81597SOL    HW246631   7.914  10.249  10.991
81598SOL     OW46632   7.956  12.434  12.459
81598SOL    HW146633   7.939  12.391  12.375
81598SOL    HW246634   8.007  12.370  12.509
81599SOL     OW46635   4.613  13.217   2.338
81599SOL    HW146636   4.639  13.126   2.349
81599SOL    HW246637   4.641  13.260   2.419
81600SOL     OW46638  11.761  11.845  10.033
81600SOL    HW146639  11.836  11.785  10.023
81600SOL    HW246640  11.798  11.932  10.021
81601SOL     OW46641   6.046   4.000   4.909
81601SOL    HW146642   6.015   4.083   4.874
81601SOL    HW246643   6.000   3.934   4.856
81602SOL     OW46644   3.521   6.025  13.447
81602SOL    HW146645   3.426   6.012  13.445
81602SOL    HW246646   3.533   6.106  13.497
81603SOL     OW46647   1.465   3.895   8.262
81603SOL    HW146648   1.504   3.915   8.347
81603SOL    HW246649   1.539   3.865   8.208
81604SOL     OW46650  11.438   0.282   6.797
81604SOL    HW146651  11.375   0.345   6.762
81604SOL    HW246652  11.467   0.322   6.879
81605SOL     OW46653  11.070  11.287  11.604
81605SOL    HW146654  11.131  11.311  11.673
81605SOL    HW246655  11.115  11.309  11.523
81606SOL     OW46656  14.516  13.670  14.845
81606SOL    HW146657  14.511  13.736   0.041
81606SOL    HW246658  14.449  13.696  14.782
81607SOL     OW46659  11.306   4.533   7.572
81607SOL    HW146660  11.294   4.617   7.617
81607SOL    HW246661  11.234   4.478   7.604
81608SOL     OW46662  11.606  12.532  14.863
81608SOL    HW146663  11.527  12.477  14.867
81608SOL    HW246664  11.613  12.569   0.078
81609SOL     OW46665   5.191   7.962  12.713
81609SOL    HW146666   5.171   8.054  12.695
81609SOL    HW246667   5.135   7.913  12.653
81610SOL     OW46668   9.933  12.310   9.075
81610SOL    HW146669   9.862  12.373   9.062
81610SOL    HW246670  10.009  12.364   9.096
81611SOL     OW46671  14.225   8.228   5.972
81611SOL    HW146672  14.185   8.278   5.901
81611SOL    HW246673  14.300   8.280   5.999
81612SOL     OW46674   5.721   7.090   5.362
81612SOL    HW146675   5.685   7.178   5.354
81612SOL    HW246676   5.668   7.036   5.303
81613SOL     OW46677  14.169   7.795   8.437
81613SOL    HW146678  14.167   7.842   8.520
81613SOL    HW246679  14.171   7.863   8.370
81614SOL     OW46680   3.995  12.412  12.546
81614SOL    HW146681   4.041  12.328  12.546
81614SOL    HW246682   3.903  12.389  12.563
81615SOL     OW46683   8.805   3.759  11.985
81615SOL    HW146684   8.762   3.776  11.902
81615SOL    HW246685   8.836   3.669  11.978
81616SOL     OW46686   8.670   3.267   1.483
81616SOL    HW146687   8.592   3.283   1.536
81616SOL    HW246688   8.644   3.291   1.394
81617SOL     OW46689   2.686   6.781   5.900
81617SOL    HW146690   2.707   6.847   5.966
81617SOL    HW246691   2.648   6.830   5.827
81618SOL     OW46692  10.938  14.070  12.245
81618SOL    HW146693  10.908  14.005  12.181
81618SOL    HW246694  11.033  14.070  12.237
81619SOL     OW46695   5.817   4.323   0.232
81619SOL    HW146696   5.898   4.351   0.188
81619SOL    HW246697   5.809   4.230   0.211
81620SOL     OW46698   1.406   7.854   8.237
81620SOL    HW146699   1.399   7.935   8.186
81620SOL    HW246700   1.421   7.786   8.171
81621SOL     OW46701   1.248   2.107   8.810
81621SOL    HW146702   1.270   2.033   8.865
81621SOL    HW246703   1.310   2.104   8.737
81622SOL     OW46704   0.988   6.409   2.632
81622SOL    HW146705   0.999   6.350   2.558
81622SOL    HW246706   1.074   6.451   2.642
81623SOL     OW46707   3.084   1.740  10.255
81623SOL    HW146708   3.016   1.736  10.322
81623SOL    HW246709   3.164   1.763  10.303
81624SOL     OW46710   2.624   5.875   4.583
81624SOL    HW146711   2.595   5.951   4.533
81624SOL    HW246712   2.703   5.904   4.628
81625SOL     OW46713   7.645  10.371  10.052
81625SOL    HW146714   7.654  10.462  10.024
81625SOL    HW246715   7.564  10.369  10.103
81626SOL     OW46716  13.613   2.742   8.448
81626SOL    HW146717  13.599   2.828   8.408
81626SOL    HW246718  13.609   2.759   8.542
81627SOL     OW46719   2.394  14.375   7.601
81627SOL    HW146720   2.323  14.369   7.665
81627SOL    HW246721   2.396  14.288   7.560
81628SOL     OW46722   9.645  13.954   2.232
81628SOL    HW146723   9.591  13.985   2.159
81628SOL    HW246724   9.730  13.933   2.193
81629SOL     OW46725   3.416   3.190   8.933
81629SOL    HW146726   3.413   3.284   8.952
81629SOL    HW246727   3.510   3.171   8.926
81630SOL     OW46728  13.861   8.823   3.561
81630SOL    HW146729  13.869   8.886   3.489
81630SOL    HW246730  13.811   8.870   3.628
81631SOL     OW46731   0.602  10.511   7.021
81631SOL    HW146732   0.506  10.505   7.020
81631SOL    HW246733   0.622  10.566   7.096
81632SOL     OW46734  14.236   8.514   3.313
81632SOL    HW146735  14.158   8.556   3.348
81632SOL    HW246736  14.250   8.558   3.228
81633SOL     OW46737   4.384   2.796  13.232
81633SOL    HW146738   4.468   2.821  13.193
81633SOL    HW246739   4.326   2.871  13.214
81634SOL     OW46740   6.142  12.525   7.988
81634SOL    HW146741   6.061  12.476   7.971
81634SOL    HW246742   6.205  12.488   7.927
81635SOL     OW46743   2.480   0.856   6.582
81635SOL    HW146744   2.493   0.829   6.492
81635SOL    HW246745   2.385   0.861   6.592
81636SOL     OW46746   8.178  13.307   4.509
81636SOL    HW146747   8.090  13.322   4.543
81636SOL    HW246748   8.235  13.314   4.586
81637SOL     OW46749  10.365  10.252   0.820
81637SOL    HW146750  10.445  10.305   0.827
81637SOL    HW246751  10.381  10.178   0.879
81638SOL     OW46752   8.699   2.756   2.427
81638SOL    HW146753   8.787   2.732   2.454
81638SOL    HW246754   8.643   2.722   2.496
81639SOL     OW46755   6.936   8.787   6.749
81639SOL    HW146756   6.958   8.769   6.657
81639SOL    HW246757   6.885   8.711   6.776
81640SOL     OW46758  12.724   8.438   6.625
81640SOL    HW146759  12.810   8.473   6.601
81640SOL    HW246760  12.661   8.500   6.588
81641SOL     OW46761   9.568   3.937  12.231
81641SOL    HW146762   9.537   4.005  12.170
81641SOL    HW246763   9.647   3.903  12.190
81642SOL     OW46764  11.900   6.619   7.432
81642SOL    HW146765  11.896   6.590   7.522
81642SOL    HW246766  11.816   6.594   7.394
81643SOL     OW46767   3.040  13.510  12.109
81643SOL    HW146768   3.031  13.427  12.156
81643SOL    HW246769   3.058  13.485  12.019
81644SOL     OW46770   5.719   4.134  10.271
81644SOL    HW146771   5.782   4.153  10.340
81644SOL    HW246772   5.728   4.207  10.210
81645SOL     OW46773  11.502   0.878   1.400
81645SOL    HW146774  11.516   0.895   1.494
81645SOL    HW246775  11.577   0.920   1.357
81646SOL     OW46776   7.744  12.653   2.687
81646SOL    HW146777   7.753  12.637   2.780
81646SOL    HW246778   7.697  12.737   2.681
81647SOL     OW46779  10.201  11.337   2.576
81647SOL    HW146780  10.233  11.411   2.525
81647SOL    HW246781  10.265  11.325   2.646
81648SOL     OW46782   2.748   2.186  14.083
81648SOL    HW146783   2.741   2.272  14.041
81648SOL    HW246784   2.734   2.123  14.011
81649SOL     OW46785   4.769   5.022  14.101
81649SOL    HW146786   4.846   4.973  14.129
81649SOL    HW246787   4.787   5.048  14.011
81650SOL     OW46788   4.460   6.915   2.567
81650SOL    HW146789   4.542   6.963   2.556
81650SOL    HW246790   4.483   6.823   2.552
81651SOL     OW46791   3.464   7.412   6.871
81651SOL    HW146792   3.547   7.395   6.915
81651SOL    HW246793   3.489   7.459   6.791
81652SOL     OW46794   5.829   1.907   5.121
81652SOL    HW146795   5.860   1.998   5.116
81652SOL    HW246796   5.817   1.891   5.214
81653SOL     OW46797  14.246   8.934  12.009
81653SOL    HW146798  14.178   8.867  12.015
81653SOL    HW246799  14.319   8.890  11.964
81654SOL     OW46800   3.392   4.250   7.543
81654SOL    HW146801   3.479   4.240   7.582
81654SOL    HW246802   3.400   4.327   7.487
81655SOL     OW46803   6.650   7.579   1.257
81655SOL    HW146804   6.590   7.643   1.220
81655SOL    HW246805   6.727   7.630   1.282
81656SOL     OW46806  10.558  13.486   3.302
81656SOL    HW146807  10.641  13.449   3.333
81656SOL    HW246808  10.493  13.421   3.327
81657SOL     OW46809   1.723   7.635   6.729
81657SOL    HW146810   1.665   7.574   6.776
81657SOL    HW246811   1.746   7.701   6.794
81658SOL     OW46812  10.557   0.148  14.622
81658SOL    HW146813  10.618   0.151  14.549
81658SOL    HW246814  10.470   0.152  14.581
81659SOL     OW46815  11.024   3.430  11.801
81659SOL    HW146816  11.020   3.515  11.757
81659SOL    HW246817  10.932   3.404  11.811
81660SOL     OW46818  11.638  13.763   1.402
81660SOL    HW146819  11.585  13.710   1.462
81660SOL    HW246820  11.594  13.848   1.398
81661SOL     OW46821  13.691   0.591   7.697
81661SOL    HW146822  13.763   0.652   7.712
81661SOL    HW246823  13.644   0.627   7.622
81662SOL     OW46824  10.349  14.335   1.301
81662SOL    HW146825  10.266  14.367   1.267
81662SOL    HW246826  10.381  14.406   1.357
81663SOL     OW46827   4.591   5.402   2.471
81663SOL    HW146828   4.548   5.331   2.422
81663SOL    HW246829   4.522   5.436   2.528
81664SOL     OW46830  12.747  10.360   6.647
81664SOL    HW146831  12.769  10.364   6.740
81664SOL    HW246832  12.687  10.285   6.640
81665SOL     OW46833  10.072   9.502   8.558
81665SOL    HW146834  10.112   9.588   8.541
81665SOL    HW246835  10.089   9.486   8.651
81666SOL     OW46836  11.065   7.709   9.981
81666SOL    HW146837  11.131   7.761   9.936
81666SOL    HW246838  11.047   7.757  10.062
81667SOL     OW46839  10.423   3.005   7.227
81667SOL    HW146840  10.380   3.050   7.154
81667SOL    HW246841  10.516   3.028   7.218
81668SOL     OW46842   3.955   3.334   8.419
81668SOL    HW146843   3.987   3.246   8.403
81668SOL    HW246844   3.923   3.364   8.333
81669SOL     OW46845   8.370  13.648   9.708
81669SOL    HW146846   8.331  13.607   9.631
81669SOL    HW246847   8.374  13.741   9.686
81670SOL     OW46848  14.465  13.265   6.435
81670SOL    HW146849  14.528  13.219   6.490
81670SOL    HW246850  14.422  13.326   6.495
81671SOL     OW46851   8.963   9.720   4.229
81671SOL    HW146852   9.010   9.796   4.193
81671SOL    HW246853   9.031   9.662   4.262
81672SOL     OW46854   0.042   1.394  13.448
81672SOL    HW146855   0.009   1.306  13.432
81672SOL    HW246856   0.103   1.384  13.521
81673SOL     OW46857  11.064  13.920  13.490
81673SOL    HW146858  11.152  13.914  13.452
81673SOL    HW246859  11.023  13.992  13.443
81674SOL     OW46860   8.313   8.527   8.855
81674SOL    HW146861   8.227   8.541   8.817
81674SOL    HW246862   8.295   8.484   8.939
81675SOL     OW46863   7.393   6.810   9.861
81675SOL    HW146864   7.472   6.770   9.827
81675SOL    HW246865   7.378   6.887   9.806
81676SOL     OW46866  10.861  12.676   2.947
81676SOL    HW146867  10.803  12.670   3.023
81676SOL    HW246868  10.892  12.766   2.947
81677SOL     OW46869   6.444  14.024   3.753
81677SOL    HW146870   6.388  14.102   3.752
81677SOL    HW246871   6.456  14.001   3.661
81678SOL     OW46872   2.748  10.590  12.457
81678SOL    HW146873   2.720  10.596  12.366
81678SOL    HW246874   2.711  10.508  12.488
81679SOL     OW46875   1.321   3.896   6.003
81679SOL    HW146876   1.262   3.951   5.952
81679SOL    HW246877   1.379   3.856   5.938
81680SOL     OW46878   2.185   5.529   9.926
81680SOL    HW146879   2.090   5.523   9.924
81680SOL    HW246880   2.204   5.590   9.997
81681SOL     OW46881   3.385   2.209   0.315
81681SOL    HW146882   3.334   2.199   0.395
81681SOL    HW246883   3.320   2.234   0.249
81682SOL     OW46884   0.058  11.637  10.194
81682SOL    HW146885   0.095  11.596  10.116
81682SOL    HW246886   0.096  11.588  10.267
81683SOL     OW46887   9.039   2.047   6.723
81683SOL    HW146888   9.101   2.119   6.711
81683SOL    HW246889   8.955   2.090   6.736
81684SOL     OW46890  11.581  12.050   2.130
81684SOL    HW146891  11.497  12.082   2.164
81684SOL    HW246892  11.559  12.012   2.045
81685SOL     OW46893  10.219   9.203   6.082
81685SOL    HW146894  10.306   9.209   6.121
81685SOL    HW246895  10.186   9.118   6.110
81686SOL     OW46896   2.058  10.204   4.100
81686SOL    HW146897   1.998  10.171   4.167
81686SOL    HW246898   2.124  10.135   4.092
81687SOL     OW46899   7.940   8.079   2.302
81687SOL    HW146900   7.944   8.050   2.211
81687SOL    HW246901   7.889   8.012   2.347
81688SOL     OW46902  14.231  13.712   6.927
81688SOL    HW146903  14.245  13.806   6.935
81688SOL    HW246904  14.140  13.699   6.954
81689SOL     OW46905   7.578   5.739  12.879
81689SOL    HW146906   7.575   5.748  12.784
81689SOL    HW246907   7.490   5.711  12.904
81690SOL     OW46908  12.902   5.629   7.231
81690SOL    HW146909  12.856   5.566   7.175
81690SOL    HW246910  12.868   5.612   7.319
81691SOL     OW46911   2.160   8.400  13.615
81691SOL    HW146912   2.249   8.402  13.651
81691SOL    HW246913   2.140   8.307  13.603
81692SOL     OW46914  13.637   0.602  12.077
81692SOL    HW146915  13.684   0.549  12.141
81692SOL    HW246916  13.547   0.607  12.110
81693SOL     OW46917   0.648   3.121   1.058
81693SOL    HW146918   0.628   3.173   1.136
81693SOL    HW246919   0.580   3.053   1.056
81694SOL     OW46920   9.693   8.460   8.115
81694SOL    HW146921   9.758   8.459   8.185
81694SOL    HW246922   9.620   8.511   8.151
81695SOL     OW46923   1.369   9.684   5.760
81695SOL    HW146924   1.463   9.667   5.763
81695SOL    HW246925   1.359   9.770   5.800
81696SOL     OW46926  13.451   8.023  14.690
81696SOL    HW146927  13.519   7.988  14.748
81696SOL    HW246928  13.370   8.011  14.739
81697SOL     OW46929   9.090   0.393   2.569
81697SOL    HW146930   9.007   0.353   2.597
81697SOL    HW246931   9.136   0.322   2.525
81698SOL     OW46932   1.315   5.458  10.001
81698SOL    HW146933   1.317   5.531   9.940
81698SOL    HW246934   1.262   5.391   9.957
81699SOL     OW46935   4.477   8.039  10.364
81699SOL    HW146936   4.447   7.981  10.434
81699SOL    HW246937   4.443   7.999  10.284
81700SOL     OW46938   0.497   2.338  12.840
81700SOL    HW146939   0.465   2.423  12.811
81700SOL    HW246940   0.446   2.275  12.789
81701SOL     OW46941  14.070   8.530  12.167
81701SOL    HW146942  14.150   8.577  12.143
81701SOL    HW246943  14.101   8.446  12.200
81702SOL     OW46944   9.356   5.266   8.980
81702SOL    HW146945   9.424   5.282   8.914
81702SOL    HW246946   9.363   5.172   8.998
81703SOL     OW46947   9.491   4.052  10.143
81703SOL    HW146948   9.444   4.076  10.063
81703SOL    HW246949   9.467   3.961  10.158
81704SOL     OW46950   3.468   7.831   1.724
81704SOL    HW146951   3.458   7.760   1.661
81704SOL    HW246952   3.385   7.832   1.772
81705SOL     OW46953   3.937   7.421   9.921
81705SOL    HW146954   3.976   7.456   9.841
81705SOL    HW246955   3.931   7.496   9.979
81706SOL     OW46956   1.524   6.808   9.221
81706SOL    HW146957   1.598   6.869   9.219
81706SOL    HW246958   1.486   6.814   9.134
81707SOL     OW46959   5.267   3.997   1.504
81707SOL    HW146960   5.205   4.035   1.565
81707SOL    HW246961   5.231   3.910   1.484
81708SOL     OW46962  11.266   5.102  13.227
81708SOL    HW146963  11.320   5.095  13.306
81708SOL    HW246964  11.179   5.125  13.259
81709SOL     OW46965   5.373   9.853   9.658
81709SOL    HW146966   5.464   9.830   9.676
81709SOL    HW246967   5.336   9.877   9.743
81710SOL     OW46968   8.608  13.460   3.373
81710SOL    HW146969   8.611  13.449   3.468
81710SOL    HW246970   8.591  13.553   3.360
81711SOL     OW46971   0.911   0.033   2.086
81711SOL    HW146972   0.884   0.124   2.092
81711SOL    HW246973   1.006   0.037   2.072
81712SOL     OW46974  14.500   8.181  10.088
81712SOL    HW146975  14.415   8.223  10.075
81712SOL    HW246976  14.554   8.215  10.018
81713SOL     OW46977   0.734   2.792   8.106
81713SOL    HW146978   0.731   2.711   8.157
81713SOL    HW246979   0.760   2.859   8.169
81714SOL     OW46980   5.601   2.434   1.324
81714SOL    HW146981   5.603   2.522   1.288
81714SOL    HW246982   5.608   2.376   1.248
81715SOL     OW46983   9.221  14.490  13.375
81715SOL    HW146984   9.261  14.554  13.434
81715SOL    HW246985   9.178  14.427  13.433
81716SOL     OW46986   8.074  10.841  11.649
81716SOL    HW146987   8.073  10.804  11.738
81716SOL    HW246988   7.982  10.859  11.630
81717SOL     OW46989  13.083   1.180   0.702
81717SOL    HW146990  13.166   1.201   0.660
81717SOL    HW246991  13.016   1.208   0.639
81718SOL     OW46992   8.454  10.420   1.845
81718SOL    HW146993   8.511  10.474   1.900
81718SOL    HW246994   8.418  10.354   1.906
81719SOL     OW46995   7.407   6.717   6.145
81719SOL    HW146996   7.399   6.792   6.086
81719SOL    HW246997   7.391   6.641   6.090
81720SOL     OW46998   2.964   7.525   7.408
81720SOL    HW146999   3.004   7.441   7.388
81720SOL    HW247000   2.928   7.515   7.496
81721SOL     OW47001   9.705   3.977   3.300
81721SOL    HW147002   9.790   4.019   3.315
81721SOL    HW247003   9.718   3.924   3.221
81722SOL     OW47004  11.357   2.673   2.107
81722SOL    HW147005  11.299   2.669   2.183
81722SOL    HW247006  11.310   2.627   2.037
81723SOL     OW47007   9.378   6.290   6.529
81723SOL    HW147008   9.415   6.236   6.599
81723SOL    HW247009   9.448   6.295   6.463
81724SOL     OW47010   5.856   6.170  14.285
81724SOL    HW147011   5.860   6.232  14.358
81724SOL    HW247012   5.824   6.222  14.211
81725SOL     OW47013   2.732   8.603   4.034
81725SOL    HW147014   2.803   8.539   4.040
81725SOL    HW247015   2.712   8.624   4.126
81726SOL     OW47016   9.853  12.263  14.231
81726SOL    HW147017   9.823  12.347  14.264
81726SOL    HW247018   9.773  12.217  14.205
81727SOL     OW47019   5.942   8.956   8.430
81727SOL    HW147020   5.923   9.029   8.489
81727SOL    HW247021   6.032   8.930   8.453
81728SOL     OW47022   5.777   7.367  10.275
81728SOL    HW147023   5.720   7.346  10.349
81728SOL    HW247024   5.733   7.438  10.229
81729SOL     OW47025   2.489   3.136   5.133
81729SOL    HW147026   2.414   3.151   5.076
81729SOL    HW247027   2.471   3.188   5.211
81730SOL     OW47028   9.100   4.092   3.302
81730SOL    HW147029   9.187   4.132   3.295
81730SOL    HW247030   9.110   4.006   3.262
81731SOL     OW47031   1.635   6.349  14.773
81731SOL    HW147032   1.654   6.287  14.702
81731SOL    HW247033   1.722   6.375  14.806
81732SOL     OW47034   6.785   1.007   7.757
81732SOL    HW147035   6.718   1.074   7.743
81732SOL    HW247036   6.771   0.943   7.687
81733SOL     OW47037   4.558   0.216   2.890
81733SOL    HW147038   4.480   0.224   2.944
81733SOL    HW247039   4.540   0.270   2.813
81734SOL     OW47040   1.266   0.091  12.617
81734SOL    HW147041   1.272   0.185  12.634
81734SOL    HW247042   1.292   0.083  12.525
81735SOL     OW47043   2.602   8.777   5.298
81735SOL    HW147044   2.697   8.776   5.308
81735SOL    HW247045   2.579   8.869   5.295
81736SOL     OW47046  11.949  13.901   2.926
81736SOL    HW147047  12.004  13.978   2.914
81736SOL    HW247048  12.008  13.834   2.961
81737SOL     OW47049   7.153   6.788  11.192
81737SOL    HW147050   7.227   6.806  11.250
81737SOL    HW247051   7.175   6.706  11.150
81738SOL     OW47052   8.177   3.046   2.926
81738SOL    HW147053   8.087   3.022   2.905
81738SOL    HW247054   8.170   3.132   2.967
81739SOL     OW47055   1.761   7.516   3.455
81739SOL    HW147056   1.692   7.545   3.397
81739SOL    HW247057   1.805   7.596   3.482
81740SOL     OW47058   8.146   4.253  10.693
81740SOL    HW147059   8.066   4.286  10.653
81740SOL    HW247060   8.216   4.304  10.652
81741SOL     OW47061   5.432  11.027  12.400
81741SOL    HW147062   5.416  11.031  12.495
81741SOL    HW247063   5.434  10.933  12.380
81742SOL     OW47064  13.966   7.285   4.617
81742SOL    HW147065  14.018   7.299   4.538
81742SOL    HW247066  13.928   7.371   4.637
81743SOL     OW47067   0.919   7.869   4.147
81743SOL    HW147068   0.892   7.853   4.057
81743SOL    HW247069   0.963   7.954   4.144
81744SOL     OW47070   3.314   9.814   4.142
81744SOL    HW147071   3.293   9.906   4.123
81744SOL    HW247072   3.343   9.814   4.233
81745SOL     OW47073  14.264   5.797   9.631
81745SOL    HW147074  14.272   5.734   9.560
81745SOL    HW247075  14.352   5.835   9.640
81746SOL     OW47076   7.384  11.620   6.155
81746SOL    HW147077   7.404  11.530   6.178
81746SOL    HW247078   7.445  11.641   6.085
81747SOL     OW47079   7.637   5.846   9.982
81747SOL    HW147080   7.704   5.809  10.040
81747SOL    HW247081   7.574   5.774   9.970
81748SOL     OW47082  13.844   0.721  11.505
81748SOL    HW147083  13.927   0.737  11.550
81748SOL    HW247084  13.780   0.774  11.553
81749SOL     OW47085   6.066   2.586   5.020
81749SOL    HW147086   6.159   2.596   5.041
81749SOL    HW247087   6.022   2.653   5.072
81750SOL     OW47088  12.688   3.903  14.840
81750SOL    HW147089  12.674   3.842   0.040
81750SOL    HW247090  12.733   3.977   0.006
81751SOL     OW47091   8.594   6.488   0.141
81751SOL    HW147092   8.523   6.465   0.082
81751SOL    HW247093   8.595   6.416   0.205
81752SOL     OW47094   1.747   3.584   3.504
81752SOL    HW147095   1.810   3.512   3.498
81752SOL    HW247096   1.722   3.588   3.596
81753SOL     OW47097   9.176  12.491   0.592
81753SOL    HW147098   9.165  12.582   0.621
81753SOL    HW247099   9.251  12.494   0.533
81754SOL     OW47100   7.096   8.371   6.096
81754SOL    HW147101   7.141   8.305   6.042
81754SOL    HW247102   7.006   8.370   6.065
81755SOL     OW47103   7.285   4.590  13.810
81755SOL    HW147104   7.366   4.564  13.854
81755SOL    HW247105   7.239   4.644  13.875
81756SOL     OW47106   6.752  13.777   0.509
81756SOL    HW147107   6.745  13.832   0.587
81756SOL    HW247108   6.671  13.725   0.509
81757SOL     OW47109   8.426   1.805  12.299
81757SOL    HW147110   8.342   1.769  12.327
81757SOL    HW247111   8.479   1.727  12.279
81758SOL     OW47112  14.092  11.050  14.056
81758SOL    HW147113  14.067  10.969  14.012
81758SOL    HW247114  14.129  11.022  14.139
81759SOL     OW47115   8.269   5.852   4.926
81759SOL    HW147116   8.252   5.912   4.999
81759SOL    HW247117   8.269   5.907   4.848
81760SOL     OW47118   7.313   3.970   3.113
81760SOL    HW147119   7.319   4.061   3.083
81760SOL    HW247120   7.384   3.962   3.178
81761SOL     OW47121  13.705   1.239   6.158
81761SOL    HW147122  13.673   1.313   6.106
81761SOL    HW247123  13.687   1.264   6.248
81762SOL     OW47124   6.570   4.577   1.344
81762SOL    HW147125   6.635   4.642   1.320
81762SOL    HW247126   6.541   4.603   1.431
81763SOL     OW47127   4.684   9.633  10.877
81763SOL    HW147128   4.732   9.576  10.937
81763SOL    HW247129   4.606   9.584  10.854
81764SOL     OW47130   9.362   5.165  14.246
81764SOL    HW147131   9.348   5.136  14.336
81764SOL    HW247132   9.416   5.243  14.254
81765SOL     OW47133  11.703  14.684   0.408
81765SOL    HW147134  11.751  14.667   0.327
81765SOL    HW247135  11.771  14.708   0.471
81766SOL     OW47136  14.154  10.489  11.168
81766SOL    HW147137  14.087  10.430  11.132
81766SOL    HW247138  14.157  10.562  11.107
81767SOL     OW47139   7.981  14.062  13.241
81767SOL    HW147140   7.928  14.142  13.235
81767SOL    HW247141   8.060  14.090  13.287
81768SOL     OW47142  11.496   5.528  13.204
81768SOL    HW147143  11.428   5.560  13.145
81768SOL    HW247144  11.561   5.598  13.206
81769SOL     OW47145   0.358   4.561   4.552
81769SOL    HW147146   0.358   4.547   4.458
81769SOL    HW247147   0.323   4.480   4.589
81770SOL     OW47148   7.547  13.710   4.765
81770SOL    HW147149   7.475  13.771   4.750
81770SOL    HW247150   7.602  13.720   4.687
81771SOL     OW47151  14.375   0.394  10.007
81771SOL    HW147152  14.362   0.480   9.968
81771SOL    HW247153  14.468   0.374   9.992
81772SOL     OW47154  13.091   5.954  10.909
81772SOL    HW147155  13.018   5.894  10.893
81772SOL    HW247156  13.152   5.937  10.837
81773SOL     OW47157   3.654   8.434   8.111
81773SOL    HW147158   3.642   8.509   8.053
81773SOL    HW247159   3.745   8.441   8.141
81774SOL     OW47160  10.605   5.398  12.814
81774SOL    HW147161  10.552   5.417  12.892
81774SOL    HW247162  10.572   5.315  12.782
81775SOL     OW47163   8.096   3.718   1.347
81775SOL    HW147164   8.186   3.685   1.340
81775SOL    HW247165   8.078   3.756   1.262
81776SOL     OW47166  10.083   0.724  11.573
81776SOL    HW147167  10.114   0.649  11.625
81776SOL    HW247168  10.112   0.705  11.484
81777SOL     OW47169   9.408  10.142   5.499
81777SOL    HW147170   9.354  10.134   5.420
81777SOL    HW247171   9.409  10.054   5.536
81778SOL     OW47172   1.577   8.977  11.023
81778SOL    HW147173   1.592   9.054  10.968
81778SOL    HW247174   1.490   8.991  11.061
81779SOL     OW47175   4.227   5.961  10.003
81779SOL    HW147176   4.147   5.982  10.052
81779SOL    HW247177   4.253   6.044   9.963
81780SOL     OW47178  12.833   6.411   6.055
81780SOL    HW147179  12.846   6.394   5.962
81780SOL    HW247180  12.839   6.506   6.063
81781SOL     OW47181  13.250   3.549  11.231
81781SOL    HW147182  13.312   3.487  11.192
81781SOL    HW247183  13.255   3.626  11.174
81782SOL     OW47184  11.916   7.028   1.261
81782SOL    HW147185  11.967   7.051   1.184
81782SOL    HW247186  11.836   6.988   1.227
81783SOL     OW47187   7.759  13.409   3.070
81783SOL    HW147188   7.843  13.430   3.029
81783SOL    HW247189   7.710  13.491   3.068
81784SOL     OW47190   9.682   9.310   8.355
81784SOL    HW147191   9.652   9.396   8.325
81784SOL    HW247192   9.747   9.329   8.423
81785SOL     OW47193   6.044  10.600   7.290
81785SOL    HW147194   5.994  10.676   7.318
81785SOL    HW247195   6.038  10.539   7.364
81786SOL     OW47196   3.412   9.736  13.267
81786SOL    HW147197   3.376   9.777  13.345
81786SOL    HW247198   3.400   9.642  13.279
81787SOL     OW47199  11.509   7.866   0.362
81787SOL    HW147200  11.444   7.798   0.345
81787SOL    HW247201  11.556   7.834   0.440
81788SOL     OW47202   6.275   2.437   3.099
81788SOL    HW147203   6.288   2.530   3.116
81788SOL    HW247204   6.313   2.422   3.013
81789SOL     OW47205  13.642   1.606   5.527
81789SOL    HW147206  13.617   1.593   5.435
81789SOL    HW247207  13.699   1.683   5.525
81790SOL     OW47208   7.848   4.939  10.123
81790SOL    HW147209   7.823   4.854  10.089
81790SOL    HW247210   7.787   5.001  10.083
81791SOL     OW47211   3.385  11.204   8.024
81791SOL    HW147212   3.372  11.166   7.937
81791SOL    HW247213   3.461  11.260   8.015
81792SOL     OW47214   9.937   7.508   6.294
81792SOL    HW147215   9.935   7.568   6.369
81792SOL    HW247216   9.875   7.438   6.317
81793SOL     OW47217   1.745   8.921   0.589
81793SOL    HW147218   1.652   8.915   0.564
81793SOL    HW247219   1.744   8.972   0.670
81794SOL     OW47220   0.596   8.204   9.500
81794SOL    HW147221   0.658   8.141   9.536
81794SOL    HW247222   0.604   8.194   9.405
81795SOL     OW47223   7.276   5.892   9.983
81795SOL    HW147224   7.290   5.976  10.025
81795SOL    HW247225   7.248   5.834  10.054
81796SOL     OW47226   0.949  13.800   8.195
81796SOL    HW147227   0.988  13.727   8.242
81796SOL    HW247228   0.863  13.812   8.237
81797SOL     OW47229   2.788   4.153  14.291
81797SOL    HW147230   2.704   4.200  14.285
81797SOL    HW247231   2.818   4.170  14.380
81798SOL     OW47232   9.800   7.567   0.873
81798SOL    HW147233   9.850   7.642   0.841
81798SOL    HW247234   9.725   7.606   0.917
81799SOL     OW47235  12.616   2.749  10.252
81799SOL    HW147236  12.620   2.823  10.313
81799SOL    HW247237  12.537   2.765  10.200
81800SOL     OW47238   0.982  14.708  11.161
81800SOL    HW147239   1.044  14.760  11.212
81800SOL    HW247240   1.032  14.630  11.136
81801SOL     OW47241   3.089   9.041   5.001
81801SOL    HW147242   3.151   9.065   4.932
81801SOL    HW247243   3.057   8.954   4.976
81802SOL     OW47244  11.529   5.995  11.881
81802SOL    HW147245  11.569   6.004  11.794
81802SOL    HW247246  11.461   6.062  11.884
81803SOL     OW47247   8.476   9.594   7.579
81803SOL    HW147248   8.493   9.582   7.672
81803SOL    HW247249   8.535   9.532   7.536
81804SOL     OW47250   5.445  14.041   1.192
81804SOL    HW147251   5.384  14.111   1.171
81804SOL    HW247252   5.410  14.003   1.273
81805SOL     OW47253  11.225   1.205   5.892
81805SOL    HW147254  11.132   1.228   5.886
81805SOL    HW247255  11.263   1.237   5.810
81806SOL     OW47256   8.960   7.932  12.198
81806SOL    HW147257   9.055   7.933  12.184
81806SOL    HW247258   8.942   8.014  12.244
81807SOL     OW47259   3.410   2.732  10.427
81807SOL    HW147260   3.381   2.728  10.335
81807SOL    HW247261   3.505   2.739  10.422
81808SOL     OW47262   5.188  14.710  14.177
81808SOL    HW147263   5.238  14.755  14.245
81808SOL    HW247264   5.162  14.780  14.116
81809SOL     OW47265   9.811   7.377   9.600
81809SOL    HW147266   9.746   7.372   9.530
81809SOL    HW247267   9.768   7.336   9.675
81810SOL     OW47268   9.030   4.107   0.725
81810SOL    HW147269   9.046   4.096   0.632
81810SOL    HW247270   8.981   4.190   0.731
81811SOL     OW47271   1.956   8.074   9.930
81811SOL    HW147272   1.996   8.064  10.016
81811SOL    HW247273   1.936   8.167   9.923
81812SOL     OW47274   3.293   8.563  14.304
81812SOL    HW147275   3.295   8.508  14.382
81812SOL    HW247276   3.371   8.618  14.311
81813SOL     OW47277  10.365   8.291  13.348
81813SOL    HW147278  10.422   8.367  13.361
81813SOL    HW247279  10.290   8.306  13.406
81814SOL     OW47280  14.584  14.694  13.818
81814SOL    HW147281  14.588  14.671  13.725
81814SOL    HW247282  14.628  14.778  13.825
81815SOL     OW47283   4.504   0.113   1.190
81815SOL    HW147284   4.505   0.084   1.098
81815SOL    HW247285   4.411   0.115   1.213
81816SOL     OW47286   6.768   5.203   8.714
81816SOL    HW147287   6.743   5.295   8.727
81816SOL    HW247288   6.685   5.155   8.721
81817SOL     OW47289   6.363   1.137   6.356
81817SOL    HW147290   6.453   1.114   6.332
81817SOL    HW247291   6.366   1.230   6.377
81818SOL     OW47292  13.959  10.365  13.207
81818SOL    HW147293  13.999  10.289  13.166
81818SOL    HW247294  14.017  10.387  13.279
81819SOL     OW47295   0.111   9.309   2.101
81819SOL    HW147296   0.039   9.256   2.067
81819SOL    HW247297   0.069   9.370   2.162
81820SOL     OW47298  11.645   7.972  11.540
81820SOL    HW147299  11.732   7.932  11.535
81820SOL    HW247300  11.646   8.041  11.474
81821SOL     OW47301  12.643   5.306  14.062
81821SOL    HW147302  12.682   5.236  14.114
81821SOL    HW247303  12.655   5.385  14.116
81822SOL     OW47304   0.774   4.240   2.796
81822SOL    HW147305   0.734   4.204   2.875
81822SOL    HW247306   0.738   4.187   2.725
81823SOL     OW47307   1.398   0.488   7.862
81823SOL    HW147308   1.364   0.507   7.775
81823SOL    HW247309   1.449   0.408   7.851
81824SOL     OW47310  13.745   8.244  11.891
81824SOL    HW147311  13.743   8.337  11.914
81824SOL    HW247312  13.667   8.207  11.933
81825SOL     OW47313  14.293   6.568   2.469
81825SOL    HW147314  14.364   6.629   2.450
81825SOL    HW247315  14.311   6.537   2.558
81826SOL     OW47316   8.765   3.004  13.292
81826SOL    HW147317   8.844   3.029  13.340
81826SOL    HW247318   8.796   2.943  13.225
81827SOL     OW47319  13.666  10.013  13.324
81827SOL    HW147320  13.654   9.946  13.257
81827SOL    HW247321  13.599   9.994  13.390
81828SOL     OW47322  13.059  12.868   9.145
81828SOL    HW147323  13.003  12.869   9.223
81828SOL    HW247324  12.999  12.881   9.072
81829SOL     OW47325   7.409   5.475   6.987
81829SOL    HW147326   7.433   5.394   6.941
81829SOL    HW247327   7.382   5.535   6.918
81830SOL     OW47328  13.073   6.501   3.593
81830SOL    HW147329  13.018   6.478   3.518
81830SOL    HW247330  13.162   6.495   3.560
81831SOL     OW47331   7.345  14.752  12.178
81831SOL    HW147332   7.437  14.768  12.156
81831SOL    HW247333   7.333  14.792  12.264
81832SOL     OW47334   9.273   0.275  11.900
81832SOL    HW147335   9.259   0.336  11.827
81832SOL    HW247336   9.265   0.329  11.979
81833SOL     OW47337   8.682   6.618   6.909
81833SOL    HW147338   8.595   6.596   6.875
81833SOL    HW247339   8.718   6.534   6.937
81834SOL     OW47340   8.409  12.953   2.731
81834SOL    HW147341   8.459  12.872   2.742
81834SOL    HW247342   8.377  12.949   2.640
81835SOL     OW47343   7.815   3.611   6.994
81835SOL    HW147344   7.761   3.673   7.044
81835SOL    HW247345   7.770   3.603   6.910
81836SOL     OW47346   2.530  14.842  11.209
81836SOL    HW147347   2.558   0.026  11.137
81836SOL    HW247348   2.522  14.755  11.169
81837SOL     OW47349  10.094   3.109   0.028
81837SOL    HW147350  10.088   3.173  14.830
81837SOL    HW247351  10.155   3.043  14.869
81838SOL     OW47352  13.892  14.829   1.366
81838SOL    HW147353  13.855  14.816   1.279
81838SOL    HW247354  13.816  14.837   1.423
81839SOL     OW47355   4.985   3.862  12.752
81839SOL    HW147356   5.075   3.851  12.781
81839SOL    HW247357   4.939   3.897  12.829
81840SOL     OW47358  10.202  12.634  10.141
81840SOL    HW147359  10.226  12.726  10.151
81840SOL    HW247360  10.114  12.636  10.103
81841SOL     OW47361   0.257   0.764  14.607
81841SOL    HW147362   0.282   0.853  14.579
81841SOL    HW247363   0.163   0.759  14.591
81842SOL     OW47364  11.150   6.883   1.451
81842SOL    HW147365  11.113   6.915   1.534
81842SOL    HW247366  11.095   6.808   1.428
81843SOL     OW47367   7.120   4.239   0.804
81843SOL    HW147368   7.188   4.292   0.844
81843SOL    HW247369   7.113   4.271   0.714
81844SOL     OW47370   0.687   5.378   4.615
81844SOL    HW147371   0.763   5.368   4.557
81844SOL    HW247372   0.629   5.438   4.568
81845SOL     OW47373   9.156   4.468  14.546
81845SOL    HW147374   9.181   4.386  14.588
81845SOL    HW247375   9.232   4.525  14.557
81846SOL     OW47376   3.354  13.139   7.579
81846SOL    HW147377   3.270  13.180   7.562
81846SOL    HW247378   3.351  13.112   7.670
81847SOL     OW47379   1.165   8.273   7.076
81847SOL    HW147380   1.137   8.213   7.145
81847SOL    HW247381   1.171   8.218   6.998
81848SOL     OW47382  10.311   8.197   6.939
81848SOL    HW147383  10.240   8.196   7.003
81848SOL    HW247384  10.374   8.261   6.974
81849SOL     OW47385  12.282  13.109  11.790
81849SOL    HW147386  12.249  13.050  11.858
81849SOL    HW247387  12.238  13.193  11.808
81850SOL     OW47388  10.054   1.316   3.739
81850SOL    HW147389  10.039   1.320   3.644
81850SOL    HW247390  10.052   1.408   3.767
81851SOL     OW47391   0.300   9.598   1.882
81851SOL    HW147392   0.255   9.635   1.958
81851SOL    HW247393   0.350   9.524   1.917
81852SOL     OW47394   3.017   8.214  12.258
81852SOL    HW147395   3.077   8.286  12.237
81852SOL    HW247396   3.055   8.138  12.214
81853SOL     OW47397  11.211   6.900   3.344
81853SOL    HW147398  11.286   6.890   3.285
81853SOL    HW247399  11.187   6.810   3.367
81854SOL     OW47400   7.162   9.889   3.024
81854SOL    HW147401   7.160   9.918   3.115
81854SOL    HW247402   7.255   9.878   3.005
81855SOL     OW47403   0.560  12.024  13.039
81855SOL    HW147404   0.598  11.937  13.025
81855SOL    HW247405   0.535  12.024  13.131
81856SOL     OW47406  11.948   7.552  14.632
81856SOL    HW147407  11.861   7.588  14.613
81856SOL    HW247408  12.007   7.601  14.576
81857SOL     OW47409   7.033  12.626   2.763
81857SOL    HW147410   7.127  12.641   2.776
81857SOL    HW247411   7.019  12.646   2.670
81858SOL     OW47412   8.900   5.764   5.447
81858SOL    HW147413   8.940   5.850   5.433
81858SOL    HW247414   8.823   5.764   5.390
81859SOL     OW47415  10.960  11.886   8.595
81859SOL    HW147416  10.896  11.869   8.663
81859SOL    HW247417  11.027  11.940   8.637
81860SOL     OW47418   6.412  14.629   3.721
81860SOL    HW147419   6.346  14.660   3.783
81860SOL    HW247420   6.493  14.672   3.748
81861SOL     OW47421   5.619   5.255   4.561
81861SOL    HW147422   5.549   5.199   4.593
81861SOL    HW247423   5.578   5.341   4.552
81862SOL     OW47424   9.970   2.332  13.263
81862SOL    HW147425   9.983   2.331  13.168
81862SOL    HW247426   9.875   2.342  13.274
81863SOL     OW47427   4.849  12.134   5.949
81863SOL    HW147428   4.938  12.149   5.918
81863SOL    HW247429   4.846  12.174   6.036
81864SOL     OW47430   1.634  11.747   5.398
81864SOL    HW147431   1.715  11.789   5.426
81864SOL    HW247432   1.566  11.811   5.417
81865SOL     OW47433  10.887  13.557  14.196
81865SOL    HW147434  10.975  13.593  14.187
81865SOL    HW247435  10.830  13.624  14.157
81866SOL     OW47436   8.975   1.504  14.339
81866SOL    HW147437   9.033   1.518  14.414
81866SOL    HW247438   9.032   1.472  14.270
81867SOL     OW47439  14.627   9.689  10.800
81867SOL    HW147440  14.623   9.602  10.761
81867SOL    HW247441  14.720   9.708  10.808
81868SOL     OW47442   5.911   3.560   8.954
81868SOL    HW147443   5.986   3.620   8.947
81868SOL    HW247444   5.931   3.489   8.893
81869SOL     OW47445  12.971   4.425   0.642
81869SOL    HW147446  12.952   4.390   0.555
81869SOL    HW247447  12.968   4.349   0.700
81870SOL     OW47448   4.858  10.715   8.230
81870SOL    HW147449   4.852  10.627   8.267
81870SOL    HW247450   4.773  10.728   8.188
81871SOL     OW47451  12.247  11.674  13.432
81871SOL    HW147452  12.277  11.736  13.365
81871SOL    HW247453  12.183  11.724  13.482
81872SOL     OW47454  12.374   9.857   5.283
81872SOL    HW147455  12.406   9.947   5.286
81872SOL    HW247456  12.435   9.807   5.338
81873SOL     OW47457  14.344  13.259   1.375
81873SOL    HW147458  14.421  13.315   1.390
81873SOL    HW247459  14.334  13.257   1.280
81874SOL     OW47460  11.906   1.961   9.013
81874SOL    HW147461  11.862   1.917   9.085
81874SOL    HW247462  11.905   1.898   8.942
81875SOL     OW47463   6.991   4.317   1.329
81875SOL    HW147464   6.986   4.410   1.352
81875SOL    HW247465   6.920   4.276   1.378
81876SOL     OW47466  11.413   7.564   7.292
81876SOL    HW147467  11.481   7.630   7.310
81876SOL    HW247468  11.363   7.560   7.374
81877SOL     OW47469   4.277  12.110   5.805
81877SOL    HW147470   4.320  12.188   5.769
81877SOL    HW247471   4.212  12.086   5.738
81878SOL     OW47472  12.452   6.849  12.726
81878SOL    HW147473  12.380   6.789  12.707
81878SOL    HW247474  12.473   6.888  12.641
81879SOL     OW47475   8.465  13.994   5.507
81879SOL    HW147476   8.409  14.055   5.556
81879SOL    HW247477   8.404  13.941   5.456
81880SOL     OW47478   7.933  12.624   1.179
81880SOL    HW147479   7.992  12.599   1.249
81880SOL    HW247480   7.988  12.631   1.101
81881SOL     OW47481   5.712  12.771   5.354
81881SOL    HW147482   5.721  12.718   5.274
81881SOL    HW247483   5.629  12.743   5.391
81882SOL     OW47484   6.857   3.119  10.487
81882SOL    HW147485   6.824   3.179  10.420
81882SOL    HW247486   6.842   3.032  10.451
81883SOL     OW47487   1.155   6.364   8.072
81883SOL    HW147488   1.111   6.435   8.119
81883SOL    HW247489   1.112   6.361   7.987
81884SOL     OW47490   0.937   4.051   5.985
81884SOL    HW147491   0.924   3.969   6.032
81884SOL    HW247492   0.883   4.043   5.907
81885SOL     OW47493  11.564   7.957   6.812
81885SOL    HW147494  11.497   8.019   6.781
81885SOL    HW247495  11.527   7.918   6.891
81886SOL     OW47496  12.403  11.201  11.734
81886SOL    HW147497  12.480  11.236  11.690
81886SOL    HW247498  12.346  11.276  11.746
81887SOL     OW47499   6.245  14.661  13.982
81887SOL    HW147500   6.314  14.622  14.037
81887SOL    HW247501   6.287  14.673  13.897
81888SOL     OW47502   5.159  12.862   6.731
81888SOL    HW147503   5.138  12.812   6.809
81888SOL    HW247504   5.118  12.813   6.659
81889SOL     OW47505   3.343   2.011  14.620
81889SOL    HW147506   3.430   1.972  14.622
81889SOL    HW247507   3.341   2.060  14.538
81890SOL     OW47508   0.405   2.063  13.933
81890SOL    HW147509   0.334   2.127  13.924
81890SOL    HW247510   0.360   1.980  13.951
81891SOL     OW47511   7.216  12.120  11.911
81891SOL    HW147512   7.147  12.114  11.844
81891SOL    HW247513   7.264  12.038  11.902
81892SOL     OW47514   8.172   7.087  14.224
81892SOL    HW147515   8.251   7.042  14.195
81892SOL    HW247516   8.112   7.079  14.149
81893SOL     OW47517   2.635   1.774  13.532
81893SOL    HW147518   2.558   1.767  13.589
81893SOL    HW247519   2.602   1.748  13.445
81894SOL     OW47520   5.794  12.613  14.069
81894SOL    HW147521   5.770  12.606  14.161
81894SOL    HW247522   5.720  12.658  14.028
81895SOL     OW47523   4.658  14.802   4.451
81895SOL    HW147524   4.563  14.793   4.449
81895SOL    HW247525   4.686  14.750   4.526
81896SOL     OW47526  13.898   9.040   8.311
81896SOL    HW147527  13.871   8.994   8.390
81896SOL    HW247528  13.828   9.022   8.248
81897SOL     OW47529  14.011  13.838   4.191
81897SOL    HW147530  14.066  13.804   4.262
81897SOL    HW247531  13.921  13.825   4.221
81898SOL     OW47532   1.463   1.469   9.100
81898SOL    HW147533   1.530   1.490   9.035
81898SOL    HW247534   1.405   1.408   9.056
81899SOL     OW47535   1.248  13.346   2.742
81899SOL    HW147536   1.229  13.409   2.673
81899SOL    HW247537   1.230  13.392   2.823
81900SOL     OW47538   3.958  14.519  12.032
81900SOL    HW147539   3.966  14.470  11.950
81900SOL    HW247540   3.961  14.611  12.006
81901SOL     OW47541   6.275   2.930   4.473
81901SOL    HW147542   6.301   3.022   4.468
81901SOL    HW247543   6.198   2.924   4.417
81902SOL     OW47544   5.709   9.508  14.627
81902SOL    HW147545   5.676   9.482  14.541
81902SOL    HW247546   5.634   9.500  14.686
81903SOL     OW47547   0.283  10.555   6.417
81903SOL    HW147548   0.308  10.613   6.345
81903SOL    HW247549   0.188  10.544   6.406
81904SOL     OW47550   5.218   6.673  12.158
81904SOL    HW147551   5.254   6.736  12.096
81904SOL    HW247552   5.285   6.604  12.163
81905SOL     OW47553   3.749   3.208   9.420
81905SOL    HW147554   3.726   3.157   9.342
81905SOL    HW247555   3.695   3.169   9.489
81906SOL     OW47556  12.307   5.781   9.066
81906SOL    HW147557  12.380   5.767   9.006
81906SOL    HW247558  12.253   5.702   9.057
81907SOL     OW47559  11.544  12.136   6.621
81907SOL    HW147560  11.617  12.198   6.615
81907SOL    HW247561  11.528  12.109   6.531
81908SOL     OW47562   3.739   5.938   9.529
81908SOL    HW147563   3.759   5.959   9.620
81908SOL    HW247564   3.816   5.968   9.480
81909SOL     OW47565   4.150  11.560  13.873
81909SOL    HW147566   4.134  11.551  13.779
81909SOL    HW247567   4.123  11.476  13.910
81910SOL     OW47568   8.784   8.262  13.706
81910SOL    HW147569   8.848   8.285  13.638
81910SOL    HW247570   8.705   8.239  13.659
81911SOL     OW47571   2.286  14.845  11.374
81911SOL    HW147572   2.274  14.754  11.344
81911SOL    HW247573   2.376  14.866  11.351
81912SOL     OW47574   8.935  12.963   0.635
81912SOL    HW147575   9.011  13.017   0.659
81912SOL    HW247576   8.871  13.025   0.601
81913SOL     OW47577   0.827  10.072   8.497
81913SOL    HW147578   0.899  10.069   8.434
81913SOL    HW247579   0.797  10.163   8.494
81914SOL     OW47580   3.065  10.627  13.999
81914SOL    HW147581   3.101  10.573  13.929
81914SOL    HW247582   3.017  10.566  14.055
81915SOL     OW47583  13.919   4.002   4.614
81915SOL    HW147584  13.905   4.003   4.709
81915SOL    HW247585  13.896   3.913   4.588
81916SOL     OW47586   3.895  14.463  14.756
81916SOL    HW147587   3.876  14.373  14.731
81916SOL    HW247588   3.923  14.505  14.674
81917SOL     OW47589   2.637   2.067   7.829
81917SOL    HW147590   2.558   2.056   7.883
81917SOL    HW247591   2.639   1.988   7.774
81918SOL     OW47592   0.755   8.312  14.093
81918SOL    HW147593   0.679   8.342  14.044
81918SOL    HW247594   0.738   8.338  14.184
81919SOL     OW47595   8.602   2.534  13.628
81919SOL    HW147596   8.551   2.484  13.564
81919SOL    HW247597   8.538   2.592  13.670
81920SOL     OW47598  13.775   3.296   2.812
81920SOL    HW147599  13.838   3.326   2.746
81920SOL    HW247600  13.708   3.365   2.814
81921SOL     OW47601   9.398   2.193   6.224
81921SOL    HW147602   9.320   2.218   6.173
81921SOL    HW247603   9.364   2.168   6.309
81922SOL     OW47604   9.987   0.622   6.771
81922SOL    HW147605  10.081   0.607   6.780
81922SOL    HW247606   9.948   0.575   6.845
81923SOL     OW47607   3.575   2.920   1.492
81923SOL    HW147608   3.577   2.950   1.401
81923SOL    HW247609   3.605   2.829   1.487
81924SOL     OW47610   7.432   8.984   6.038
81924SOL    HW147611   7.402   8.893   6.031
81924SOL    HW247612   7.527   8.978   6.044
81925SOL     OW47613   0.321   6.796   5.190
81925SOL    HW147614   0.307   6.783   5.284
81925SOL    HW247615   0.403   6.749   5.171
81926SOL     OW47616   3.451   8.950  13.469
81926SOL    HW147617   3.409   8.938  13.383
81926SOL    HW247618   3.458   8.861  13.504
81927SOL     OW47619   2.058   5.367   1.126
81927SOL    HW147620   1.966   5.385   1.106
81927SOL    HW247621   2.068   5.273   1.112
81928SOL     OW47622   5.923  13.513   4.400
81928SOL    HW147623   5.893  13.510   4.309
81928SOL    HW247624   5.873  13.445   4.444
81929SOL     OW47625   5.680   8.639   6.530
81929SOL    HW147626   5.767   8.615   6.499
81929SOL    HW247627   5.693   8.724   6.573
81930SOL     OW47628   2.603  13.413  12.934
81930SOL    HW147629   2.616  13.343  12.870
81930SOL    HW247630   2.549  13.373  13.002
81931SOL     OW47631  11.858  10.890  14.284
81931SOL    HW147632  11.850  10.952  14.212
81931SOL    HW247633  11.802  10.926  14.353
81932SOL     OW47634   0.943   8.201  13.350
81932SOL    HW147635   0.895   8.284  13.348
81932SOL    HW247636   1.006   8.212  13.422
81933SOL     OW47637   0.156   5.996   6.032
81933SOL    HW147638   0.074   5.985   5.984
81933SOL    HW247639   0.176   5.909   6.068
81934SOL     OW47640   4.279   7.000   7.171
81934SOL    HW147641   4.199   7.044   7.145
81934SOL    HW247642   4.324   6.980   7.089
81935SOL     OW47643   9.918  14.850  14.070
81935SOL    HW147644   9.978  14.844  13.996
81935SOL    HW247645   9.837   0.011  14.033
81936SOL     OW47646   3.276  13.005   6.633
81936SOL    HW147647   3.245  13.030   6.546
81936SOL    HW247648   3.268  13.085   6.685
81937SOL     OW47649  10.555  10.166   3.112
81937SOL    HW147650  10.576  10.218   3.035
81937SOL    HW247651  10.506  10.091   3.077
81938SOL     OW47652   1.799   5.486   1.420
81938SOL    HW147653   1.782   5.570   1.462
81938SOL    HW247654   1.755   5.422   1.475
81939SOL     OW47655   1.379  14.494   8.453
81939SOL    HW147656   1.419  14.579   8.474
81939SOL    HW247657   1.453  14.436   8.437
81940SOL     OW47658   4.021  12.474  14.591
81940SOL    HW147659   4.113  12.498  14.577
81940SOL    HW247660   3.973  12.556  14.578
81941SOL     OW47661   7.189   9.109  14.444
81941SOL    HW147662   7.128   9.097  14.516
81941SOL    HW247663   7.137   9.095  14.365
81942SOL     OW47664   9.930   3.421   1.796
81942SOL    HW147665   9.931   3.499   1.740
81942SOL    HW247666  10.010   3.374   1.774
81943SOL     OW47667   0.422  13.535   4.235
81943SOL    HW147668   0.444  13.551   4.327
81943SOL    HW247669   0.457  13.610   4.188
81944SOL     OW47670   7.833   0.585  12.432
81944SOL    HW147671   7.881   0.564  12.512
81944SOL    HW247672   7.782   0.663  12.454
81945SOL     OW47673  12.705   9.450   8.885
81945SOL    HW147674  12.757   9.508   8.829
81945SOL    HW247675  12.669   9.385   8.825
81946SOL     OW47676   1.619   8.121   3.778
81946SOL    HW147677   1.631   8.159   3.691
81946SOL    HW247678   1.706   8.125   3.818
81947SOL     OW47679   9.138  11.618   6.420
81947SOL    HW147680   9.109  11.533   6.454
81947SOL    HW247681   9.232  11.608   6.408
81948SOL     OW47682  14.737   6.627   7.750
81948SOL    HW147683  14.797   6.680   7.803
81948SOL    HW247684  14.658   6.680   7.741
81949SOL     OW47685  11.261   8.223  14.070
81949SOL    HW147686  11.209   8.143  14.078
81949SOL    HW247687  11.350   8.195  14.089
81950SOL     OW47688   9.487   7.431   6.872
81950SOL    HW147689   9.438   7.351   6.888
81950SOL    HW247690   9.509   7.464   6.959
81951SOL     OW47691  14.078   7.507   7.037
81951SOL    HW147692  14.115   7.457   7.110
81951SOL    HW247693  13.990   7.530   7.067
81952SOL     OW47694  13.510  11.379  11.993
81952SOL    HW147695  13.479  11.433  12.065
81952SOL    HW247696  13.494  11.289  12.021
81953SOL     OW47697   5.524   5.731  12.770
81953SOL    HW147698   5.612   5.695  12.777
81953SOL    HW247699   5.519   5.764  12.680
81954SOL     OW47700   1.222  11.188   2.470
81954SOL    HW147701   1.301  11.214   2.423
81954SOL    HW247702   1.150  11.222   2.417
81955SOL     OW47703  13.871   9.915   9.173
81955SOL    HW147704  13.830   9.879   9.094
81955SOL    HW247705  13.965   9.913   9.155
81956SOL     OW47706  13.706   4.468   3.020
81956SOL    HW147707  13.727   4.556   3.050
81956SOL    HW247708  13.774   4.413   3.056
81957SOL     OW47709   5.704   9.192  11.353
81957SOL    HW147710   5.793   9.156  11.360
81957SOL    HW247711   5.652   9.121  11.314
81958SOL     OW47712  14.846  10.591   7.878
81958SOL    HW147713  14.825  10.668   7.930
81958SOL    HW247714  14.767  10.538   7.881
81959SOL     OW47715  14.139   4.960   3.925
81959SOL    HW147716  14.115   5.033   3.867
81959SOL    HW247717  14.203   4.909   3.874
81960SOL     OW47718   9.066  14.352  12.717
81960SOL    HW147719   9.023  14.359  12.802
81960SOL    HW247720   9.132  14.283  12.729
81961SOL     OW47721   4.552   1.100  10.441
81961SOL    HW147722   4.481   1.036  10.432
81961SOL    HW247723   4.616   1.058  10.498
81962SOL     OW47724   8.400  12.846   8.485
81962SOL    HW147725   8.371  12.765   8.443
81962SOL    HW247726   8.319  12.896   8.497
81963SOL     OW47727  13.209   2.492   3.350
81963SOL    HW147728  13.120   2.456   3.355
81963SOL    HW247729  13.227   2.524   3.438
81964SOL     OW47730   9.520   8.867   2.670
81964SOL    HW147731   9.484   8.924   2.737
81964SOL    HW247732   9.603   8.837   2.707
81965SOL     OW47733   3.305   5.970  10.049
81965SOL    HW147734   3.228   5.939  10.097
81965SOL    HW247735   3.304   6.065  10.061
81966SOL     OW47736   0.076   2.548   3.529
81966SOL    HW147737   0.041   2.603   3.458
81966SOL    HW247738   0.007   2.484   3.546
81967SOL     OW47739   9.019   9.671  12.366
81967SOL    HW147740   9.011   9.631  12.279
81967SOL    HW247741   8.982   9.606  12.426
81968SOL     OW47742   6.358   4.147   8.838
81968SOL    HW147743   6.396   4.123   8.753
81968SOL    HW247744   6.331   4.238   8.827
81969SOL     OW47745   1.195   1.342   9.624
81969SOL    HW147746   1.283   1.303   9.628
81969SOL    HW247747   1.136   1.267   9.620
81970SOL     OW47748   4.002   7.829   5.327
81970SOL    HW147749   3.987   7.823   5.421
81970SOL    HW247750   3.937   7.769   5.289
81971SOL     OW47751  13.940   4.993   3.497
81971SOL    HW147752  13.846   5.006   3.485
81971SOL    HW247753  13.979   5.018   3.413
81972SOL     OW47754   4.680  12.359  12.400
81972SOL    HW147755   4.666  12.377  12.494
81972SOL    HW247756   4.665  12.265  12.392
81973SOL     OW47757   8.482   5.704   6.179
81973SOL    HW147758   8.514   5.711   6.269
81973SOL    HW247759   8.535   5.766   6.129
81974SOL     OW47760   6.562   0.883   8.967
81974SOL    HW147761   6.566   0.968   9.009
81974SOL    HW247762   6.566   0.902   8.873
81975SOL     OW47763  13.776  10.499  12.290
81975SOL    HW147764  13.831  10.564  12.247
81975SOL    HW247765  13.720  10.550  12.348
81976SOL     OW47766  11.794  10.620  11.485
81976SOL    HW147767  11.842  10.582  11.411
81976SOL    HW247768  11.821  10.568  11.561
81977SOL     OW47769   6.825   2.914   9.717
81977SOL    HW147770   6.780   2.999   9.717
81977SOL    HW247771   6.761   2.853   9.754
81978SOL     OW47772  11.786   3.697   4.820
81978SOL    HW147773  11.870   3.742   4.829
81978SOL    HW247774  11.793   3.622   4.879
81979SOL     OW47775  11.427   3.951   1.825
81979SOL    HW147776  11.454   3.894   1.897
81979SOL    HW247777  11.344   3.914   1.794
81980SOL     OW47778   0.576   3.183   8.219
81980SOL    HW147779   0.607   3.267   8.252
81980SOL    HW247780   0.481   3.187   8.229
81981SOL     OW47781   3.099   8.999  10.752
81981SOL    HW147782   3.138   9.075  10.796
81981SOL    HW247783   3.167   8.932  10.757
81982SOL     OW47784   0.338   4.988   1.576
81982SOL    HW147785   0.256   4.985   1.526
81982SOL    HW247786   0.312   4.963   1.665
81983SOL     OW47787   1.754   9.684  14.384
81983SOL    HW147788   1.775   9.598  14.421
81983SOL    HW247789   1.785   9.747  14.448
81984SOL     OW47790   5.994  10.559   9.280
81984SOL    HW147791   5.972  10.652   9.284
81984SOL    HW247792   5.912  10.516   9.256
81985SOL     OW47793   3.376  14.146   3.956
81985SOL    HW147794   3.333  14.219   3.912
81985SOL    HW247795   3.466  14.177   3.970
81986SOL     OW47796   7.337  13.220   1.195
81986SOL    HW147797   7.396  13.180   1.259
81986SOL    HW247798   7.373  13.194   1.110
81987SOL     OW47799  12.275   8.653   2.747
81987SOL    HW147800  12.293   8.634   2.655
81987SOL    HW247801  12.324   8.733   2.766
81988SOL     OW47802   2.715   9.378   2.698
81988SOL    HW147803   2.659   9.346   2.627
81988SOL    HW247804   2.709   9.311   2.766
81989SOL     OW47805   7.506   5.796   8.527
81989SOL    HW147806   7.546   5.872   8.485
81989SOL    HW247807   7.476   5.828   8.612
81990SOL     OW47808  13.255   0.140  10.885
81990SOL    HW147809  13.198   0.081  10.934
81990SOL    HW247810  13.202   0.168  10.810
81991SOL     OW47811  12.037  11.207  11.028
81991SOL    HW147812  11.997  11.188  10.944
81991SOL    HW247813  12.013  11.133  11.084
81992SOL     OW47814   7.531   8.282   5.690
81992SOL    HW147815   7.590   8.327   5.751
81992SOL    HW247816   7.570   8.195   5.678
81993SOL     OW47817  11.203  11.532  11.732
81993SOL    HW147818  11.271  11.547  11.666
81993SOL    HW247819  11.248  11.488  11.804
81994SOL     OW47820  10.252   5.559   3.500
81994SOL    HW147821  10.300   5.580   3.580
81994SOL    HW247822  10.259   5.637   3.446
81995SOL     OW47823   7.427  11.704   8.283
81995SOL    HW147824   7.521  11.692   8.268
81995SOL    HW247825   7.385  11.668   8.205
81996SOL     OW47826   3.398   9.243   6.394
81996SOL    HW147827   3.449   9.296   6.334
81996SOL    HW247828   3.402   9.154   6.358
81997SOL     OW47829   5.849   8.699   5.683
81997SOL    HW147830   5.892   8.667   5.603
81997SOL    HW247831   5.766   8.651   5.686
81998SOL     OW47832   9.559  14.152   8.862
81998SOL    HW147833   9.557  14.185   8.772
81998SOL    HW247834   9.473  14.172   8.898
81999SOL     OW47835  12.973   1.546   3.222
81999SOL    HW147836  13.038   1.598   3.174
81999SOL    HW247837  13.005   1.456   3.217
82000SOL     OW47838   1.247  10.200   4.338
82000SOL    HW147839   1.256  10.284   4.293
82000SOL    HW247840   1.334  10.183   4.375
82001SOL     OW47841   7.840   0.218   1.084
82001SOL    HW147842   7.902   0.237   1.154
82001SOL    HW247843   7.856   0.126   1.062
82002SOL     OW47844   7.499   2.727   5.664
82002SOL    HW147845   7.504   2.638   5.698
82002SOL    HW247846   7.463   2.716   5.575
82003SOL     OW47847   7.107  14.518   3.966
82003SOL    HW147848   7.157  14.599   3.962
82003SOL    HW247849   7.127  14.473   3.884
82004SOL     OW47850  12.190   1.730   3.109
82004SOL    HW147851  12.167   1.748   3.200
82004SOL    HW247852  12.286   1.732   3.108
82005SOL     OW47853  13.589   8.484  13.611
82005SOL    HW147854  13.510   8.448  13.571
82005SOL    HW247855  13.627   8.411  13.659
82006SOL     OW47856  10.528   7.701   0.825
82006SOL    HW147857  10.507   7.794   0.824
82006SOL    HW247858  10.461   7.662   0.881
82007SOL     OW47859  13.710   0.507   5.741
82007SOL    HW147860  13.665   0.423   5.748
82007SOL    HW247861  13.654   0.569   5.788
82008SOL     OW47862   7.682  11.054   2.857
82008SOL    HW147863   7.760  11.042   2.912
82008SOL    HW247864   7.628  10.978   2.877
82009SOL     OW47865   8.298  12.588   7.536
82009SOL    HW147866   8.246  12.511   7.512
82009SOL    HW247867   8.235  12.661   7.531
82010SOL     OW47868   6.197  13.169   4.514
82010SOL    HW147869   6.293  13.170   4.522
82010SOL    HW247870   6.180  13.117   4.436
82011SOL     OW47871  11.972   8.593  13.290
82011SOL    HW147872  11.913   8.574  13.364
82011SOL    HW247873  11.985   8.688  13.294
82012SOL     OW47874  11.716   4.482  14.228
82012SOL    HW147875  11.768   4.402  14.231
82012SOL    HW247876  11.691   4.499  14.319
82013SOL     OW47877   2.641   8.437  10.360
82013SOL    HW147878   2.569   8.462  10.418
82013SOL    HW247879   2.599   8.422  10.275
82014SOL     OW47880  12.908   9.630   7.198
82014SOL    HW147881  12.845   9.579   7.249
82014SOL    HW247882  12.855   9.688   7.144
82015SOL     OW47883   6.944  13.036  14.055
82015SOL    HW147884   6.891  13.114  14.074
82015SOL    HW247885   6.882  12.974  14.018
82016SOL     OW47886  12.091   8.732   4.397
82016SOL    HW147887  12.022   8.738   4.331
82016SOL    HW247888  12.161   8.790   4.364
82017SOL     OW47889   3.706  13.312  12.727
82017SOL    HW147890   3.681  13.293  12.636
82017SOL    HW247891   3.801  13.301  12.729
82018SOL     OW47892   2.799   6.444   3.503
82018SOL    HW147893   2.838   6.459   3.588
82018SOL    HW247894   2.809   6.350   3.488
82019SOL     OW47895  12.441  11.713   7.603
82019SOL    HW147896  12.363  11.719   7.658
82019SOL    HW247897  12.506  11.768   7.648
82020SOL     OW47898   1.493   7.519  11.664
82020SOL    HW147899   1.452   7.548  11.745
82020SOL    HW247900   1.483   7.593  11.603
82021SOL     OW47901  11.259  12.201   8.304
82021SOL    HW147902  11.329  12.261   8.275
82021SOL    HW247903  11.305  12.122   8.333
82022SOL     OW47904  11.209  11.343   0.533
82022SOL    HW147905  11.176  11.299   0.455
82022SOL    HW247906  11.303  11.325   0.534
82023SOL     OW47907   3.976  10.652   3.226
82023SOL    HW147908   4.040  10.722   3.211
82023SOL    HW247909   3.907  10.694   3.277
82024SOL     OW47910  12.760  11.657   0.712
82024SOL    HW147911  12.803  11.604   0.646
82024SOL    HW247912  12.729  11.594   0.778
82025SOL     OW47913  11.356   8.672   1.463
82025SOL    HW147914  11.373   8.690   1.370
82025SOL    HW247915  11.431   8.619   1.490
82026SOL     OW47916   8.170   8.007   1.092
82026SOL    HW147917   8.213   7.939   1.039
82026SOL    HW247918   8.203   7.992   1.181
82027SOL     OW47919  14.385   5.983  11.560
82027SOL    HW147920  14.338   6.015  11.637
82027SOL    HW247921  14.433   6.060  11.528
82028SOL     OW47922   5.304   8.749   7.705
82028SOL    HW147923   5.341   8.798   7.778
82028SOL    HW247924   5.379   8.712   7.659
82029SOL     OW47925   8.674   0.311   4.389
82029SOL    HW147926   8.614   0.300   4.316
82029SOL    HW247927   8.650   0.242   4.451
82030SOL     OW47928  14.387   7.429  10.457
82030SOL    HW147929  14.298   7.462  10.469
82030SOL    HW247930  14.427   7.438  10.544
82031SOL     OW47931   8.417   8.720   9.227
82031SOL    HW147932   8.498   8.754   9.266
82031SOL    HW247933   8.447   8.660   9.159
82032SOL     OW47934   2.258   8.853  12.486
82032SOL    HW147935   2.244   8.943  12.457
82032SOL    HW247936   2.275   8.862  12.580
82033SOL     OW47937  13.087   1.920   2.689
82033SOL    HW147938  13.006   1.881   2.720
82033SOL    HW247939  13.151   1.899   2.757
82034SOL     OW47940   2.825   1.372   0.536
82034SOL    HW147941   2.785   1.286   0.521
82034SOL    HW247942   2.751   1.432   0.543
82035SOL     OW47943   8.381  13.502   4.140
82035SOL    HW147944   8.445  13.565   4.173
82035SOL    HW247945   8.424  13.417   4.149
82036SOL     OW47946  12.300   4.263   7.540
82036SOL    HW147947  12.242   4.280   7.614
82036SOL    HW247948  12.263   4.185   7.498
82037SOL     OW47949   8.913   6.603   0.744
82037SOL    HW147950   8.850   6.675   0.750
82037SOL    HW247951   8.996   6.642   0.773
82038SOL     OW47952   3.767   6.086   5.492
82038SOL    HW147953   3.753   6.012   5.550
82038SOL    HW247954   3.861   6.103   5.497
82039SOL     OW47955  10.042  12.333   6.382
82039SOL    HW147956  10.061  12.320   6.289
82039SOL    HW247957  10.067  12.424   6.399
82040SOL     OW47958   1.805   9.441  14.486
82040SOL    HW147959   1.764   9.356  14.506
82040SOL    HW247960   1.898   9.427  14.503
82041SOL     OW47961  13.779  10.097   2.481
82041SOL    HW147962  13.754  10.160   2.414
82041SOL    HW247963  13.723  10.021   2.465
82042SOL     OW47964  12.516   5.210   1.150
82042SOL    HW147965  12.474   5.276   1.206
82042SOL    HW247966  12.555   5.261   1.079
82043SOL     OW47967   8.250  12.722  11.604
82043SOL    HW147968   8.315  12.673  11.553
82043SOL    HW247969   8.273  12.705  11.695
82044SOL     OW47970  12.954   1.231   9.679
82044SOL    HW147971  12.966   1.271   9.765
82044SOL    HW247972  13.038   1.189   9.661
82045SOL     OW47973  14.399   9.674  12.249
82045SOL    HW147974  14.429   9.622  12.324
82045SOL    HW247975  14.306   9.652  12.241
82046SOL     OW47976   1.670   4.736  12.784
82046SOL    HW147977   1.748   4.741  12.840
82046SOL    HW247978   1.679   4.811  12.725
82047SOL     OW47979   2.951   9.103   1.125
82047SOL    HW147980   2.935   9.120   1.218
82047SOL    HW247981   3.046   9.092   1.119
82048SOL     OW47982   6.185   7.383   6.370
82048SOL    HW147983   6.134   7.374   6.451
82048SOL    HW247984   6.151   7.463   6.329
82049SOL     OW47985   4.158  10.401   7.743
82049SOL    HW147986   4.149  10.410   7.837
82049SOL    HW247987   4.120  10.315   7.723
82050SOL     OW47988  11.254   8.194  14.691
82050SOL    HW147989  11.174   8.226  14.733
82050SOL    HW247990  11.243   8.218  14.599
82051SOL     OW47991   3.390  13.436  14.237
82051SOL    HW147992   3.472  13.389  14.227
82051SOL    HW247993   3.368  13.465  14.149
82052SOL     OW47994   1.956  12.917  10.206
82052SOL    HW147995   2.025  12.950  10.148
82052SOL    HW247996   2.000  12.856  10.265
82053SOL     OW47997  11.419  14.804   0.769
82053SOL    HW147998  11.514  14.816   0.777
82053SOL    HW247999  11.406  14.773   0.679
82054SOL     OW48000   2.795  12.030   5.815
82054SOL    HW148001   2.700  12.041   5.826
82054SOL    HW248002   2.817  11.954   5.869
82055SOL     OW48003   9.052  10.405   5.439
82055SOL    HW148004   9.142  10.373   5.433
82055SOL    HW248005   8.998  10.327   5.432
82056SOL     OW48006   4.288   6.357  12.525
82056SOL    HW148007   4.366   6.320  12.567
82056SOL    HW248008   4.218   6.342  12.589
82057SOL     OW48009   2.660   8.082   4.647
82057SOL    HW148010   2.639   8.071   4.554
82057SOL    HW248011   2.721   8.011   4.666
82058SOL     OW48012   5.643   6.079   4.550
82058SOL    HW148013   5.671   6.155   4.600
82058SOL    HW248014   5.640   6.109   4.459
82059SOL     OW48015   8.318   4.628   3.513
82059SOL    HW148016   8.324   4.589   3.600
82059SOL    HW248017   8.227   4.613   3.487
82060SOL     OW48018  10.512   7.621   1.376
82060SOL    HW148019  10.449   7.670   1.428
82060SOL    HW248020  10.510   7.533   1.412
82061SOL     OW48021  10.165  14.092   9.866
82061SOL    HW148022  10.114  14.012   9.878
82061SOL    HW248023  10.101  14.163   9.868
82062SOL     OW48024  10.486   1.464  14.287
82062SOL    HW148025  10.546   1.436  14.218
82062SOL    HW248026  10.542   1.499  14.356
82063SOL     OW48027   4.606   6.365   8.460
82063SOL    HW148028   4.551   6.288   8.446
82063SOL    HW248029   4.558   6.436   8.419
82064SOL     OW48030   9.851   1.648   3.957
82064SOL    HW148031   9.784   1.592   3.919
82064SOL    HW248032   9.869   1.610   4.042
82065SOL     OW48033  11.196  12.771   6.636
82065SOL    HW148034  11.143  12.842   6.599
82065SOL    HW248035  11.261  12.815   6.691
82066SOL     OW48036   9.310  12.389   2.431
82066SOL    HW148037   9.263  12.392   2.514
82066SOL    HW248038   9.386  12.333   2.448
82067SOL     OW48039  10.446   1.443   4.904
82067SOL    HW148040  10.412   1.474   4.987
82067SOL    HW248041  10.540   1.430   4.920
82068SOL     OW48042  14.678   1.971   3.899
82068SOL    HW148043  14.641   1.986   3.986
82068SOL    HW248044  14.725   2.052   3.879
82069SOL     OW48045   9.966   9.616   9.983
82069SOL    HW148046   9.974   9.685   9.917
82069SOL    HW248047   9.904   9.554   9.946
82070SOL     OW48048   5.353   2.367  11.400
82070SOL    HW148049   5.428   2.322  11.439
82070SOL    HW248050   5.391   2.424  11.333
82071SOL     OW48051  14.138  11.077   7.752
82071SOL    HW148052  14.068  11.141   7.767
82071SOL    HW248053  14.165  11.051   7.840
82072SOL     OW48054   8.920   7.721  11.816
82072SOL    HW148055   9.005   7.762  11.798
82072SOL    HW248056   8.923   7.700  11.910
82073SOL     OW48057  11.626   1.084   0.005
82073SOL    HW148058  11.606   0.993  14.855
82073SOL    HW248059  11.660   1.078   0.095
82074SOL     OW48060   0.872   9.047   7.446
82074SOL    HW148061   0.961   9.049   7.482
82074SOL    HW248062   0.848   9.139   7.436
82075SOL     OW48063  12.793   8.760   0.344
82075SOL    HW148064  12.772   8.681   0.294
82075SOL    HW248065  12.730   8.760   0.416
82076SOL     OW48066  11.475  14.375  13.165
82076SOL    HW148067  11.449  14.283  13.156
82076SOL    HW248068  11.543  14.387  13.099
82077SOL     OW48069   5.725  13.099   5.142
82077SOL    HW148070   5.692  13.079   5.229
82077SOL    HW248071   5.652  13.077   5.083
82078SOL     OW48072  12.938   2.099   2.465
82078SOL    HW148073  12.884   2.170   2.499
82078SOL    HW248074  12.979   2.061   2.543
82079SOL     OW48075   2.561   8.382  12.509
82079SOL    HW148076   2.522   8.352  12.591
82079SOL    HW248077   2.556   8.477  12.514
82080SOL     OW48078  11.869   4.240   2.371
82080SOL    HW148079  11.786   4.287   2.363
82080SOL    HW248080  11.848   4.164   2.426
82081SOL     OW48081   1.160  12.248  11.687
82081SOL    HW148082   1.198  12.183  11.628
82081SOL    HW248083   1.066  12.242  11.673
82082SOL     OW48084   8.281  13.397   6.671
82082SOL    HW148085   8.237  13.326   6.624
82082SOL    HW248086   8.278  13.471   6.610
82083SOL     OW48087   2.299   6.136   7.962
82083SOL    HW148088   2.330   6.160   8.049
82083SOL    HW248089   2.251   6.213   7.931
82084SOL     OW48090   1.809   1.689   6.892
82084SOL    HW148091   1.753   1.649   6.957
82084SOL    HW248092   1.827   1.777   6.925
82085SOL     OW48093   0.016   0.075   5.492
82085SOL    HW148094   0.011   0.057   5.586
82085SOL    HW248095  14.801   0.055   5.460
82086SOL     OW48096  10.837  11.925   8.881
82086SOL    HW148097  10.762  11.888   8.927
82086SOL    HW248098  10.817  12.018   8.874
82087SOL     OW48099   0.318   6.577  14.299
82087SOL    HW148100   0.315   6.593  14.204
82087SOL    HW248101   0.238   6.618  14.332
82088SOL     OW48102  11.783   4.592   6.130
82088SOL    HW148103  11.703   4.591   6.182
82088SOL    HW248104  11.819   4.503   6.139
82089SOL     OW48105   9.164   2.735  14.264
82089SOL    HW148106   9.251   2.728  14.224
82089SOL    HW248107   9.154   2.829  14.282
82090SOL     OW48108   9.733   4.453  13.120
82090SOL    HW148109   9.695   4.373  13.155
82090SOL    HW248110   9.662   4.495  13.072
82091SOL     OW48111   2.225  14.722   3.941
82091SOL    HW148112   2.217  14.740   4.035
82091SOL    HW248113   2.266  14.800   3.905
82092SOL     OW48114  12.322   8.178  10.278
82092SOL    HW148115  12.412   8.173  10.312
82092SOL    HW248116  12.268   8.191  10.356
82093SOL     OW48117   3.450   4.517  10.592
82093SOL    HW148118   3.480   4.426  10.581
82093SOL    HW248119   3.465   4.557  10.506
82094SOL     OW48120   5.381   5.852   0.983
82094SOL    HW148121   5.375   5.833   1.077
82094SOL    HW248122   5.291   5.869   0.957
82095SOL     OW48123   5.026   6.996  10.847
82095SOL    HW148124   5.044   6.913  10.891
82095SOL    HW248125   4.931   7.001  10.843
82096SOL     OW48126  14.343  11.751  12.360
82096SOL    HW148127  14.438  11.749  12.347
82096SOL    HW248128  14.325  11.677  12.417
82097SOL     OW48129  14.620   1.274  11.196
82097SOL    HW148130  14.592   1.245  11.108
82097SOL    HW248131  14.539   1.302  11.239
82098SOL     OW48132   4.010  10.363  11.633
82098SOL    HW148133   4.052  10.336  11.715
82098SOL    HW248134   4.046  10.450  11.615
82099SOL     OW48135   3.745   8.341  11.766
82099SOL    HW148136   3.840   8.334  11.760
82099SOL    HW248137   3.717   8.258  11.804
82100SOL     OW48138   7.495   1.546   6.533
82100SOL    HW148139   7.474   1.569   6.623
82100SOL    HW248140   7.449   1.463   6.518
82101SOL     OW48141   6.343   5.343   3.788
82101SOL    HW148142   6.386   5.416   3.742
82101SOL    HW248143   6.253   5.344   3.755
82102SOL     OW48144  11.799   6.828  10.207
82102SOL    HW148145  11.748   6.777  10.270
82102SOL    HW248146  11.733   6.880  10.160
82103SOL     OW48147   8.687   9.531   1.333
82103SOL    HW148148   8.674   9.500   1.422
82103SOL    HW248149   8.668   9.455   1.278
82104SOL     OW48150   8.969   7.242   1.532
82104SOL    HW148151   9.015   7.232   1.449
82104SOL    HW248152   8.967   7.336   1.547
82105SOL     OW48153   3.897   7.878   6.075
82105SOL    HW148154   3.876   7.848   6.163
82105SOL    HW248155   3.931   7.801   6.030
82106SOL     OW48156   6.693   9.990   9.658
82106SOL    HW148157   6.760   9.946   9.710
82106SOL    HW248158   6.703   9.954   9.570
82107SOL     OW48159   2.193   6.509  12.739
82107SOL    HW148160   2.129   6.496  12.810
82107SOL    HW248161   2.139   6.530  12.662
82108SOL     OW48162   3.037   5.652   0.535
82108SOL    HW148163   3.053   5.733   0.584
82108SOL    HW248164   3.088   5.585   0.582
82109SOL     OW48165  13.892   1.396  12.463
82109SOL    HW148166  13.939   1.406  12.546
82109SOL    HW248167  13.937   1.455  12.403
82110SOL     OW48168   3.701  11.979   1.827
82110SOL    HW148169   3.649  12.056   1.803
82110SOL    HW248170   3.712  11.987   1.922
82111SOL     OW48171  13.953  12.258   7.161
82111SOL    HW148172  13.970  12.289   7.072
82111SOL    HW248173  13.865  12.220   7.156
82112SOL     OW48174   3.599   0.761   9.843
82112SOL    HW148175   3.609   0.835   9.785
82112SOL    HW248176   3.687   0.725   9.852
82113SOL     OW48177   8.849  14.732  13.240
82113SOL    HW148178   8.938  14.700  13.228
82113SOL    HW248179   8.820  14.692  13.321
82114SOL     OW48180  14.793   9.798   8.687
82114SOL    HW148181  14.703   9.809   8.716
82114SOL    HW248182  14.835   9.745   8.755
82115SOL     OW48183  11.399   1.652   7.358
82115SOL    HW148184  11.364   1.586   7.299
82115SOL    HW248185  11.435   1.720   7.301
82116SOL     OW48186   1.523   5.272   2.374
82116SOL    HW148187   1.465   5.318   2.313
82116SOL    HW248188   1.598   5.246   2.320
82117SOL     OW48189  10.784   2.787   9.929
82117SOL    HW148190  10.764   2.718   9.866
82117SOL    HW248191  10.709   2.787   9.989
82118SOL     OW48192   2.695   6.833   1.081
82118SOL    HW148193   2.617   6.877   1.047
82118SOL    HW248194   2.662   6.774   1.149
82119SOL     OW48195  13.311   1.694   4.418
82119SOL    HW148196  13.405   1.711   4.404
82119SOL    HW248197  13.294   1.727   4.506
82120SOL     OW48198   5.981  12.547   5.603
82120SOL    HW148199   6.010  12.511   5.687
82120SOL    HW248200   5.916  12.613   5.626
82121SOL     OW48201   8.733   0.639   0.110
82121SOL    HW148202   8.712   0.560   0.060
82121SOL    HW248203   8.657   0.697   0.096
82122SOL     OW48204  10.264   8.818  12.862
82122SOL    HW148205  10.222   8.732  12.850
82122SOL    HW248206  10.191   8.878  12.878
82123SOL     OW48207   6.676   0.808   1.830
82123SOL    HW148208   6.595   0.758   1.821
82123SOL    HW248209   6.715   0.806   1.742
82124SOL     OW48210   4.232   7.155   6.547
82124SOL    HW148211   4.291   7.139   6.621
82124SOL    HW248212   4.192   7.070   6.529
82125SOL     OW48213  10.449  12.902   1.495
82125SOL    HW148214  10.420  12.971   1.555
82125SOL    HW248215  10.521  12.941   1.446
82126SOL     OW48216   3.806  12.955   3.055
82126SOL    HW148217   3.805  13.049   3.041
82126SOL    HW248218   3.810  12.945   3.151
82127SOL     OW48219  13.083   2.154   8.511
82127SOL    HW148220  13.018   2.083   8.511
82127SOL    HW248221  13.109   2.162   8.419
82128SOL     OW48222   3.581  14.258   2.889
82128SOL    HW148223   3.503  14.279   2.940
82128SOL    HW248224   3.549  14.246   2.800
82129SOL     OW48225   7.140   2.028  11.163
82129SOL    HW148226   7.208   2.076  11.211
82129SOL    HW248227   7.100   2.095  11.106
82130SOL     OW48228   7.813   8.189   0.589
82130SOL    HW148229   7.831   8.185   0.495
82130SOL    HW248230   7.748   8.259   0.597
82131SOL     OW48231  13.961   6.066  13.720
82131SOL    HW148232  13.884   6.077  13.664
82131SOL    HW248233  14.026   6.026  13.662
82132SOL     OW48234   8.878  13.019   5.107
82132SOL    HW148235   8.897  13.093   5.049
82132SOL    HW248236   8.935  12.949   5.077
82133SOL     OW48237   2.097  12.848  12.964
82133SOL    HW148238   2.137  12.819  13.046
82133SOL    HW248239   2.157  12.915  12.930
82134SOL     OW48240   2.491   1.909  14.110
82134SOL    HW148241   2.438   1.988  14.124
82134SOL    HW248242   2.522   1.917  14.020
82135SOL     OW48243  13.785  12.680  11.933
82135SOL    HW148244  13.790  12.773  11.957
82135SOL    HW248245  13.807  12.678  11.840
82136SOL     OW48246  11.361   3.718   7.028
82136SOL    HW148247  11.309   3.638   7.020
82136SOL    HW248248  11.393   3.735   6.940
82137SOL     OW48249   5.763  10.320   9.523
82137SOL    HW148250   5.684  10.273   9.551
82137SOL    HW248251   5.778  10.385   9.591
82138SOL     OW48252  11.086  10.507  11.313
82138SOL    HW148253  11.078  10.491  11.219
82138SOL    HW248254  11.180  10.523  11.326
82139SOL     OW48255  13.283  11.978  11.680
82139SOL    HW148256  13.287  12.017  11.593
82139SOL    HW248257  13.309  12.049  11.739
82140SOL     OW48258   5.411  11.903  12.239
82140SOL    HW148259   5.348  11.964  12.278
82140SOL    HW248260   5.484  11.958  12.210
82141SOL     OW48261  10.919  10.463   6.714
82141SOL    HW148262  10.902  10.557   6.724
82141SOL    HW248263  10.887  10.443   6.626
82142SOL     OW48264   7.626  14.189   4.158
82142SOL    HW148265   7.664  14.274   4.183
82142SOL    HW248266   7.640  14.184   4.064
82143SOL     OW48267  14.334  13.780  12.654
82143SOL    HW148268  14.320  13.862  12.701
82143SOL    HW248269  14.251  13.733  12.663
82144SOL     OW48270  11.824   2.281   0.152
82144SOL    HW148271  11.805   2.365   0.110
82144SOL    HW248272  11.900   2.248   0.105
82145SOL     OW48273   9.892   4.885   3.417
82145SOL    HW148274   9.835   4.810   3.407
82145SOL    HW248275   9.956   4.859   3.483
82146SOL     OW48276   6.912  14.400   1.010
82146SOL    HW148277   6.839  14.346   1.042
82146SOL    HW248278   6.956  14.430   1.089
82147SOL     OW48279   5.492  14.251   2.996
82147SOL    HW148280   5.462  14.263   2.905
82147SOL    HW248281   5.421  14.287   3.049
82148SOL     OW48282   1.405  10.361   0.411
82148SOL    HW148283   1.456  10.406   0.344
82148SOL    HW248284   1.336  10.315   0.362
82149SOL     OW48285  14.459  11.738   7.080
82149SOL    HW148286  14.515  11.776   7.148
82149SOL    HW248287  14.439  11.650   7.113
82150SOL     OW48288   8.026   7.175   5.203
82150SOL    HW148289   8.060   7.148   5.118
82150SOL    HW248290   7.975   7.100   5.234
82151SOL     OW48291  12.895   8.729   0.994
82151SOL    HW148292  12.859   8.641   1.000
82151SOL    HW248293  12.877   8.757   0.904
82152SOL     OW48294   2.326   9.395   1.433
82152SOL    HW148295   2.238   9.369   1.406
82152SOL    HW248296   2.380   9.318   1.418
82153SOL     OW48297   1.343   1.800   2.288
82153SOL    HW148298   1.394   1.810   2.368
82153SOL    HW248299   1.344   1.706   2.270
82154SOL     OW48300   5.257   6.042  12.738
82154SOL    HW148301   5.222   6.129  12.754
82154SOL    HW248302   5.344   6.044  12.777
82155SOL     OW48303   7.526  10.022  14.189
82155SOL    HW148304   7.525  10.089  14.258
82155SOL    HW248305   7.476   9.949  14.226
82156SOL     OW48306  14.578  10.337  10.458
82156SOL    HW148307  14.642  10.318  10.527
82156SOL    HW248308  14.539  10.420  10.484
82157SOL     OW48309   9.690   8.692   6.292
82157SOL    HW148310   9.758   8.717   6.354
82157SOL    HW248311   9.674   8.771   6.240
82158SOL     OW48312   4.104   3.480   0.469
82158SOL    HW148313   4.032   3.428   0.432
82158SOL    HW248314   4.062   3.534   0.536
82159SOL     OW48315   8.996   6.501  12.571
82159SOL    HW148316   9.053   6.476  12.498
82159SOL    HW248317   8.920   6.542  12.529
82160SOL     OW48318   4.794   7.773   0.301
82160SOL    HW148319   4.885   7.743   0.301
82160SOL    HW248320   4.800   7.868   0.308
82161SOL     OW48321   2.653   5.540  11.406
82161SOL    HW148322   2.713   5.568  11.476
82161SOL    HW248323   2.698   5.565  11.325
82162SOL     OW48324  14.840  12.261   4.472
82162SOL    HW148325   0.045  12.287   4.422
82162SOL    HW248326  14.766  12.293   4.420
82163SOL     OW48327  13.542   3.738   2.206
82163SOL    HW148328  13.512   3.659   2.160
82163SOL    HW248329  13.473   3.756   2.269
82164SOL     OW48330   3.225   9.064   5.820
82164SOL    HW148331   3.212   8.977   5.859
82164SOL    HW248332   3.139   9.106   5.825
82165SOL     OW48333   1.134   8.831   9.930
82165SOL    HW148334   1.222   8.812   9.961
82165SOL    HW248335   1.136   8.925   9.910
82166SOL     OW48336   8.500   1.393   8.668
82166SOL    HW148337   8.457   1.311   8.690
82166SOL    HW248338   8.429   1.457   8.662
82167SOL     OW48339  13.462   6.505  14.683
82167SOL    HW148340  13.379   6.479  14.723
82167SOL    HW248341  13.482   6.590  14.722
82168SOL     OW48342   4.214   0.700  14.655
82168SOL    HW148343   4.186   0.610  14.672
82168SOL    HW248344   4.140   0.754  14.686
82169SOL     OW48345   9.641   8.574   5.929
82169SOL    HW148346   9.575   8.628   5.885
82169SOL    HW248347   9.592   8.525   5.995
82170SOL     OW48348   0.384  11.636   1.503
82170SOL    HW148349   0.407  11.643   1.596
82170SOL    HW248350   0.411  11.719   1.465
82171SOL     OW48351   4.118   1.742  13.031
82171SOL    HW148352   4.088   1.759  13.120
82171SOL    HW248353   4.183   1.672  13.040
82172SOL     OW48354   1.509   7.885   3.856
82172SOL    HW148355   1.528   7.884   3.950
82172SOL    HW248356   1.536   7.972   3.827
82173SOL     OW48357   6.746  13.365  10.268
82173SOL    HW148358   6.839  13.384  10.282
82173SOL    HW248359   6.735  13.367  10.173
82174SOL     OW48360   1.479  10.068   2.533
82174SOL    HW148361   1.451  10.104   2.449
82174SOL    HW248362   1.479  10.143   2.592
82175SOL     OW48363   6.219  10.852   5.202
82175SOL    HW148364   6.230  10.802   5.283
82175SOL    HW248365   6.228  10.787   5.132
82176SOL     OW48366  14.733  10.497  14.129
82176SOL    HW148367  14.647  10.534  14.150
82176SOL    HW248368  14.739  10.500  14.034
82177SOL     OW48369  14.582   6.374   4.131
82177SOL    HW148370  14.530   6.303   4.169
82177SOL    HW248371  14.536   6.453   4.158
82178SOL     OW48372   4.736  11.647  10.127
82178SOL    HW148373   4.661  11.662  10.069
82178SOL    HW248374   4.702  11.661  10.215
82179SOL     OW48375   4.595   1.214  10.186
82179SOL    HW148376   4.597   1.174  10.273
82179SOL    HW248377   4.503   1.225  10.166
82180SOL     OW48378  14.084   8.803  13.989
82180SOL    HW148379  14.019   8.765  14.048
82180SOL    HW248380  14.167   8.765  14.016
82181SOL     OW48381  10.559   9.943   4.696
82181SOL    HW148382  10.620   9.869   4.696
82181SOL    HW248383  10.472   9.902   4.698
82182SOL     OW48384  11.061   9.391  12.429
82182SOL    HW148385  11.031   9.339  12.504
82182SOL    HW248386  10.982   9.406  12.378
82183SOL     OW48387   1.945   0.432   0.308
82183SOL    HW148388   1.895   0.419   0.227
82183SOL    HW248389   2.003   0.506   0.289
82184SOL     OW48390  13.619   4.667   0.644
82184SOL    HW148391  13.658   4.752   0.624
82184SOL    HW248392  13.554   4.653   0.576
82185SOL     OW48393  10.827   5.318   8.602
82185SOL    HW148394  10.805   5.364   8.683
82185SOL    HW248395  10.882   5.379   8.553
82186SOL     OW48396   4.094   3.762   4.638
82186SOL    HW148397   4.004   3.737   4.618
82186SOL    HW248398   4.098   3.762   4.734
82187SOL     OW48399   8.230   7.708   3.119
82187SOL    HW148400   8.211   7.753   3.037
82187SOL    HW248401   8.214   7.615   3.100
82188SOL     OW48402   6.809  11.033   5.336
82188SOL    HW148403   6.792  11.006   5.427
82188SOL    HW248404   6.903  11.051   5.334
82189SOL     OW48405  10.111  14.351  12.557
82189SOL    HW148406  10.170  14.276  12.548
82189SOL    HW248407  10.085  14.351  12.649
82190SOL     OW48408  10.703   5.525  14.341
82190SOL    HW148409  10.665   5.437  14.335
82190SOL    HW248410  10.641   5.581  14.295
82191SOL     OW48411  13.616  13.196   3.386
82191SOL    HW148412  13.667  13.118   3.364
82191SOL    HW248413  13.594  13.235   3.301
82192SOL     OW48414   0.902  11.742   6.804
82192SOL    HW148415   0.943  11.685   6.739
82192SOL    HW248416   0.947  11.826   6.793
82193SOL     OW48417   9.405   9.741   2.793
82193SOL    HW148418   9.474   9.746   2.728
82193SOL    HW248419   9.334   9.692   2.750
82194SOL     OW48420   1.022  13.116  12.425
82194SOL    HW148421   1.106  13.087  12.462
82194SOL    HW248422   1.039  13.125  12.331
82195SOL     OW48423  12.496  12.460   7.818
82195SOL    HW148424  12.568  12.425   7.870
82195SOL    HW248425  12.437  12.500   7.883
82196SOL     OW48426   6.269   2.031  14.151
82196SOL    HW148427   6.184   2.032  14.194
82196SOL    HW248428   6.333   2.024  14.222
82197SOL     OW48429   8.543   3.617   2.103
82197SOL    HW148430   8.467   3.611   2.161
82197SOL    HW248431   8.546   3.533   2.057
82198SOL     OW48432   2.254   4.662   3.769
82198SOL    HW148433   2.226   4.590   3.826
82198SOL    HW248434   2.246   4.627   3.681
82199SOL     OW48435  12.628   8.338   3.068
82199SOL    HW148436  12.653   8.403   3.134
82199SOL    HW248437  12.616   8.257   3.118
82200SOL     OW48438   9.649   0.994   6.692
82200SOL    HW148439   9.701   0.991   6.773
82200SOL    HW248440   9.673   0.913   6.646
82201SOL     OW48441   6.261  13.511  13.644
82201SOL    HW148442   6.180  13.480  13.603
82201SOL    HW248443   6.331  13.474  13.590
82202SOL     OW48444   2.374   8.863   9.126
82202SOL    HW148445   2.423   8.945   9.134
82202SOL    HW248446   2.334   8.849   9.212
82203SOL     OW48447   2.962  10.232   7.763
82203SOL    HW148448   2.889  10.270   7.714
82203SOL    HW248449   3.003  10.307   7.807
82204SOL     OW48450  14.412   1.362   5.122
82204SOL    HW148451  14.352   1.292   5.096
82204SOL    HW248452  14.481   1.316   5.170
82205SOL     OW48453   2.871   4.937   3.233
82205SOL    HW148454   2.810   5.006   3.207
82205SOL    HW248455   2.941   4.940   3.168
82206SOL     OW48456   7.234   3.283   4.874
82206SOL    HW148457   7.239   3.212   4.939
82206SOL    HW248458   7.162   3.338   4.904
82207SOL     OW48459  12.162  10.632  10.315
82207SOL    HW148460  12.068  10.653  10.312
82207SOL    HW248461  12.187  10.621  10.223
82208SOL     OW48462  13.864  11.689   5.366
82208SOL    HW148463  13.790  11.726   5.414
82208SOL    HW248464  13.939  11.702   5.424
82209SOL     OW48465   8.794   0.513   2.663
82209SOL    HW148466   8.765   0.587   2.611
82209SOL    HW248467   8.718   0.455   2.668
82210SOL     OW48468   9.468   2.080   2.501
82210SOL    HW148469   9.399   2.106   2.562
82210SOL    HW248470   9.511   2.006   2.543
82211SOL     OW48471   1.708   4.412   4.552
82211SOL    HW148472   1.643   4.354   4.512
82211SOL    HW248473   1.703   4.393   4.646
82212SOL     OW48474  14.237  13.756   5.250
82212SOL    HW148475  14.251  13.815   5.324
82212SOL    HW248476  14.286  13.677   5.273
82213SOL     OW48477   0.011   1.783  14.681
82213SOL    HW148478   0.030   1.833  14.760
82213SOL    HW248479   0.081   1.806  14.620
82214SOL     OW48480  14.163  11.563   2.803
82214SOL    HW148481  14.120  11.480   2.822
82214SOL    HW248482  14.196  11.553   2.713
82215SOL     OW48483  13.375   3.966  10.200
82215SOL    HW148484  13.345   3.897  10.258
82215SOL    HW248485  13.444   4.010  10.249
82216SOL     OW48486   2.771   6.778   3.762
82216SOL    HW148487   2.762   6.814   3.674
82216SOL    HW248488   2.725   6.841   3.818
82217SOL     OW48489   2.543  10.400   7.103
82217SOL    HW148490   2.608  10.354   7.049
82217SOL    HW248491   2.460  10.359   7.080
82218SOL     OW48492   4.038  12.985   1.870
82218SOL    HW148493   4.119  12.938   1.890
82218SOL    HW248494   3.994  12.994   1.954
82219SOL     OW48495  14.276   1.542   8.878
82219SOL    HW148496  14.215   1.615   8.873
82219SOL    HW248497  14.242   1.477   8.816
82220SOL     OW48498   8.331   1.904   2.189
82220SOL    HW148499   8.351   1.965   2.117
82220SOL    HW248500   8.333   1.959   2.267
82221SOL     OW48501   6.597  10.286   7.728
82221SOL    HW148502   6.678  10.259   7.684
82221SOL    HW248503   6.528  10.260   7.668
82222SOL     OW48504  11.810   6.082   5.185
82222SOL    HW148505  11.783   6.066   5.094
82222SOL    HW248506  11.899   6.045   5.189
82223SOL     OW48507  14.828   1.566   2.064
82223SOL    HW148508  14.811   1.625   2.138
82223SOL    HW248509  14.805   1.479   2.097
82224SOL     OW48510   7.230  10.926  11.634
82224SOL    HW148511   7.234  10.839  11.674
82224SOL    HW248512   7.248  10.986  11.707
82225SOL     OW48513   6.401  12.580  11.677
82225SOL    HW148514   6.442  12.618  11.600
82225SOL    HW248515   6.470  12.528  11.718
82226SOL     OW48516   7.217   6.357   4.285
82226SOL    HW148517   7.239   6.447   4.307
82226SOL    HW248518   7.125   6.348   4.309
82227SOL     OW48519  13.890   4.861  10.816
82227SOL    HW148520  13.957   4.832  10.878
82227SOL    HW248521  13.808   4.826  10.851
82228SOL     OW48522   9.571   2.574  11.154
82228SOL    HW148523   9.589   2.546  11.243
82228SOL    HW248524   9.549   2.493  11.108
82229SOL     OW48525  12.654   4.578  14.648
82229SOL    HW148526  12.722   4.610  14.707
82229SOL    HW248527  12.600   4.520  14.703
82230SOL     OW48528  12.115   6.309  13.768
82230SOL    HW148529  12.194   6.349  13.731
82230SOL    HW248530  12.056   6.301  13.693
82231SOL     OW48531   3.940  11.232   9.211
82231SOL    HW148532   3.948  11.279   9.293
82231SOL    HW248533   3.867  11.274   9.166
82232SOL     OW48534   4.909   1.543   5.048
82232SOL    HW148535   4.853   1.479   5.003
82232SOL    HW248536   4.987   1.550   4.993
82233SOL     OW48537   1.181   6.935   3.652
82233SOL    HW148538   1.259   6.935   3.708
82233SOL    HW248539   1.209   6.980   3.572
82234SOL     OW48540   8.152  12.332   6.871
82234SOL    HW148541   8.200  12.410   6.843
82234SOL    HW248542   8.179  12.264   6.810
82235SOL     OW48543   6.014   2.656   6.022
82235SOL    HW148544   5.957   2.635   6.096
82235SOL    HW248545   6.098   2.616   6.044
82236SOL     OW48546  10.554   1.596   0.685
82236SOL    HW148547  10.473   1.590   0.737
82236SOL    HW248548  10.601   1.514   0.704
82237SOL     OW48549   0.439   9.620   6.266
82237SOL    HW148550   0.352   9.610   6.305
82237SOL    HW248551   0.475   9.531   6.264
82238SOL     OW48552   6.985   2.324   7.078
82238SOL    HW148553   6.981   2.268   7.001
82238SOL    HW248554   6.916   2.291   7.136
82239SOL     OW48555  12.372   6.939   0.272
82239SOL    HW148556  12.382   6.847   0.293
82239SOL    HW248557  12.371   6.942   0.176
82240SOL     OW48558   4.977   6.858   1.909
82240SOL    HW148559   5.012   6.841   1.822
82240SOL    HW248560   4.886   6.883   1.895
82241SOL     OW48561   5.461   4.350  10.031
82241SOL    HW148562   5.374   4.312  10.026
82241SOL    HW248563   5.465   4.413   9.959
82242SOL     OW48564  13.694   3.323  13.154
82242SOL    HW148565  13.667   3.414  13.161
82242SOL    HW248566  13.697   3.292  13.245
82243SOL     OW48567   7.304   5.555  13.754
82243SOL    HW148568   7.276   5.494  13.686
82243SOL    HW248569   7.311   5.502  13.833
82244SOL     OW48570   1.829  14.759   3.873
82244SOL    HW148571   1.836  14.847   3.910
82244SOL    HW248572   1.844  14.700   3.947
82245SOL     OW48573   9.865   6.392   8.454
82245SOL    HW148574   9.837   6.325   8.392
82245SOL    HW248575   9.940   6.434   8.412
82246SOL     OW48576  13.480  14.614   6.018
82246SOL    HW148577  13.436  14.567   6.089
82246SOL    HW248578  13.423  14.689   5.999
82247SOL     OW48579   3.482  11.337   4.163
82247SOL    HW148580   3.433  11.255   4.173
82247SOL    HW248581   3.415  11.401   4.139
82248SOL     OW48582   6.070  12.479   5.860
82248SOL    HW148583   6.074  12.407   5.923
82248SOL    HW248584   6.069  12.558   5.915
82249SOL     OW48585   3.704   7.611   8.205
82249SOL    HW148586   3.691   7.560   8.286
82249SOL    HW248587   3.779   7.569   8.163
82250SOL     OW48588  14.239   6.718   1.694
82250SOL    HW148589  14.308   6.721   1.760
82250SOL    HW248590  14.285   6.722   1.610
82251SOL     OW48591  11.376  11.798   8.173
82251SOL    HW148592  11.391  11.704   8.163
82251SOL    HW248593  11.410  11.819   8.260
82252SOL     OW48594  14.134  14.239   0.002
82252SOL    HW148595  14.064  14.231   0.067
82252SOL    HW248596  14.131  14.157  14.826
82253SOL     OW48597   3.852   2.479   1.838
82253SOL    HW148598   3.925   2.425   1.868
82253SOL    HW248599   3.780   2.459   1.897
82254SOL     OW48600   1.741   1.460   1.682
82254SOL    HW148601   1.787   1.512   1.616
82254SOL    HW248602   1.649   1.465   1.657
82255SOL     OW48603   4.071   3.185   6.965
82255SOL    HW148604   4.034   3.233   7.039
82255SOL    HW248605   4.090   3.098   6.999
82256SOL     OW48606   8.295   4.739   7.054
82256SOL    HW148607   8.240   4.664   7.033
82256SOL    HW248608   8.368   4.702   7.105
82257SOL     OW48609  11.759   8.810  12.767
82257SOL    HW148610  11.765   8.905  12.764
82257SOL    HW248611  11.770   8.782  12.676
82258SOL     OW48612  10.207  10.482  11.016
82258SOL    HW148613  10.261  10.528  10.951
82258SOL    HW248614  10.117  10.495  10.985
82259SOL     OW48615  10.750  13.045   5.608
82259SOL    HW148616  10.724  13.074   5.695
82259SOL    HW248617  10.846  13.042   5.611
82260SOL     OW48618   6.430   9.489   1.719
82260SOL    HW148619   6.372   9.539   1.661
82260SOL    HW248620   6.398   9.399   1.713
82261SOL     OW48621   7.912   7.462  14.099
82261SOL    HW148622   7.899   7.491  14.189
82261SOL    HW248623   8.007   7.457  14.088
82262SOL     OW48624  13.902   1.400   7.143
82262SOL    HW148625  13.886   1.463   7.072
82262SOL    HW248626  13.988   1.424   7.176
82263SOL     OW48627   3.544  11.262  11.223
82263SOL    HW148628   3.631  11.236  11.251
82263SOL    HW248629   3.559  11.318  11.147
82264SOL     OW48630   0.665  12.705   5.921
82264SOL    HW148631   0.694  12.743   6.004
82264SOL    HW248632   0.726  12.738   5.856
82265SOL     OW48633   4.957   1.980  14.000
82265SOL    HW148634   5.002   1.947  13.922
82265SOL    HW248635   4.948   2.074  13.984
82266SOL     OW48636   8.037  13.372   8.179
82266SOL    HW148637   7.968  13.335   8.123
82266SOL    HW248638   8.009  13.463   8.194
82267SOL     OW48639   8.222   3.015   5.742
82267SOL    HW148640   8.175   2.973   5.670
82267SOL    HW248641   8.280   2.947   5.776
82268SOL     OW48642   0.599   6.405   9.778
82268SOL    HW148643   0.595   6.330   9.837
82268SOL    HW248644   0.691   6.411   9.753
82269SOL     OW48645   0.508  12.814  10.623
82269SOL    HW148646   0.530  12.821  10.530
82269SOL    HW248647   0.413  12.812  10.625
82270SOL     OW48648   0.586   9.829   0.462
82270SOL    HW148649   0.580   9.840   0.557
82270SOL    HW248650   0.570   9.736   0.448
82271SOL     OW48651  10.598   7.409   6.229
82271SOL    HW148652  10.691   7.434   6.226
82271SOL    HW248653  10.558   7.457   6.157
82272SOL     OW48654   6.881   7.094  14.392
82272SOL    HW148655   6.877   7.047  14.309
82272SOL    HW248656   6.942   7.166  14.376
82273SOL     OW48657   4.487   8.513   9.427
82273SOL    HW148658   4.557   8.529   9.364
82273SOL    HW248659   4.442   8.597   9.435
82274SOL     OW48660   9.566   8.996   1.321
82274SOL    HW148661   9.597   9.072   1.272
82274SOL    HW248662   9.519   9.033   1.396
82275SOL     OW48663   8.980   9.339   8.788
82275SOL    HW148664   9.017   9.279   8.724
82275SOL    HW248665   9.045   9.341   8.859
82276SOL     OW48666  13.956  11.403   1.985
82276SOL    HW148667  13.944  11.409   1.890
82276SOL    HW248668  13.871  11.429   2.021
82277SOL     OW48669   2.898  14.567   7.045
82277SOL    HW148670   2.848  14.598   7.121
82277SOL    HW248671   2.983  14.609   7.054
82278SOL     OW48672  10.223  14.626  12.775
82278SOL    HW148673  10.145  14.660  12.731
82278SOL    HW248674  10.277  14.591  12.704
82279SOL     OW48675   1.833  12.873   0.105
82279SOL    HW148676   1.745  12.902   0.129
82279SOL    HW248677   1.891  12.931   0.155
82280SOL     OW48678   5.443  12.181   5.235
82280SOL    HW148679   5.414  12.198   5.145
82280SOL    HW248680   5.376  12.124   5.272
82281SOL     OW48681   8.495   0.347   8.620
82281SOL    HW148682   8.581   0.319   8.651
82281SOL    HW248683   8.454   0.267   8.586
82282SOL     OW48684   4.398  14.087   9.215
82282SOL    HW148685   4.461  14.109   9.284
82282SOL    HW248686   4.453  14.061   9.141
82283SOL     OW48687   9.745   6.062  12.659
82283SOL    HW148688   9.779   5.973  12.663
82283SOL    HW248689   9.727   6.076  12.566
82284SOL     OW48690   8.898  12.044   8.802
82284SOL    HW148691   8.981  12.081   8.832
82284SOL    HW248692   8.889  11.963   8.852
82285SOL     OW48693   3.856   3.394   7.157
82285SOL    HW148694   3.912   3.400   7.235
82285SOL    HW248695   3.849   3.485   7.126
82286SOL     OW48696   7.049   4.587  14.799
82286SOL    HW148697   6.974   4.632  14.838
82286SOL    HW248698   7.026   4.577  14.707
82287SOL     OW48699   2.811   4.287  13.515
82287SOL    HW148700   2.720   4.269  13.493
82287SOL    HW248701   2.816   4.272  13.610
82288SOL     OW48702  14.809   9.629   0.038
82288SOL    HW148703   0.020   9.587   0.021
82288SOL    HW248704  14.765   9.572   0.100
82289SOL     OW48705   0.202   9.658   7.837
82289SOL    HW148706   0.174   9.625   7.922
82289SOL    HW248707   0.285   9.702   7.855
82290SOL     OW48708   9.821   4.712  14.177
82290SOL    HW148709   9.765   4.763  14.119
82290SOL    HW248710   9.883   4.668  14.119
82291SOL     OW48711   4.533   5.434   1.377
82291SOL    HW148712   4.478   5.497   1.423
82291SOL    HW248713   4.568   5.377   1.446
82292SOL     OW48714   3.220  14.360  11.288
82292SOL    HW148715   3.294  14.421  11.292
82292SOL    HW248716   3.210  14.342  11.194
82293SOL     OW48717  14.289  12.110   0.018
82293SOL    HW148718  14.337  12.092  14.811
82293SOL    HW248719  14.279  12.205   0.020
82294SOL     OW48720   4.785   4.044  12.854
82294SOL    HW148721   4.803   4.128  12.813
82294SOL    HW248722   4.720   4.003  12.798
82295SOL     OW48723   1.411  10.173   1.579
82295SOL    HW148724   1.357  10.171   1.500
82295SOL    HW248725   1.484  10.114   1.560
82296SOL     OW48726   6.937   6.522  11.798
82296SOL    HW148727   6.850   6.561  11.794
82296SOL    HW248728   6.989   6.586  11.847
82297SOL     OW48729   7.319  10.099   6.149
82297SOL    HW148730   7.390  10.079   6.087
82297SOL    HW248731   7.360  10.091   6.235
82298SOL     OW48732   2.534  13.112   3.595
82298SOL    HW148733   2.502  13.176   3.532
82298SOL    HW248734   2.485  13.129   3.675
82299SOL     OW48735  12.605  13.440   4.854
82299SOL    HW148736  12.593  13.381   4.928
82299SOL    HW248737  12.643  13.385   4.785
82300SOL     OW48738  13.488   5.289  11.591
82300SOL    HW148739  13.537   5.369  11.570
82300SOL    HW248740  13.448   5.307  11.676
82301SOL     OW48741   5.058   9.893   1.157
82301SOL    HW148742   5.075   9.846   1.075
82301SOL    HW248743   4.963   9.903   1.158
82302SOL     OW48744   1.551   9.021   7.294
82302SOL    HW148745   1.570   8.970   7.215
82302SOL    HW248746   1.461   9.052   7.282
82303SOL     OW48747  10.180  10.916   3.156
82303SOL    HW148748  10.156  10.911   3.064
82303SOL    HW248749  10.181  10.826   3.186
82304SOL     OW48750   9.267   8.045  12.407
82304SOL    HW148751   9.246   8.138  12.416
82304SOL    HW248752   9.361   8.040  12.426
82305SOL     OW48753   4.017   1.891   3.879
82305SOL    HW148754   3.941   1.888   3.822
82305SOL    HW248755   4.072   1.960   3.843
82306SOL     OW48756   9.218   5.337  12.564
82306SOL    HW148757   9.308   5.305  12.564
82306SOL    HW248758   9.170   5.275  12.510
82307SOL     OW48759   7.583   6.730   8.732
82307SOL    HW148760   7.580   6.805   8.673
82307SOL    HW248761   7.676   6.708   8.738
82308SOL     OW48762  13.045  11.937  12.421
82308SOL    HW148763  13.038  11.854  12.374
82308SOL    HW248764  13.115  11.923  12.485
82309SOL     OW48765   9.558  12.135  11.380
82309SOL    HW148766   9.542  12.207  11.441
82309SOL    HW248767   9.647  12.150  11.349
82310SOL     OW48768  11.091   0.256   5.057
82310SOL    HW148769  11.140   0.258   4.975
82310SOL    HW248770  11.132   0.323   5.112
82311SOL     OW48771   1.040   4.045   1.299
82311SOL    HW148772   1.025   4.138   1.283
82311SOL    HW248773   0.974   4.001   1.245
82312SOL     OW48774  12.049   6.074   5.844
82312SOL    HW148775  12.086   6.023   5.916
82312SOL    HW248776  12.084   6.162   5.856
82313SOL     OW48777  12.560  12.458   8.354
82313SOL    HW148778  12.522  12.545   8.367
82313SOL    HW248779  12.495  12.398   8.391
82314SOL     OW48780   7.441   5.767  10.295
82314SOL    HW148781   7.487   5.818  10.229
82314SOL    HW248782   7.415   5.831  10.362
82315SOL     OW48783   3.090   1.280   5.413
82315SOL    HW148784   3.103   1.243   5.326
82315SOL    HW248785   3.090   1.204   5.471
82316SOL     OW48786   2.726  10.107  10.240
82316SOL    HW148787   2.706  10.015  10.225
82316SOL    HW248788   2.736  10.144  10.153
82317SOL     OW48789  11.549   9.532   8.322
82317SOL    HW148790  11.566   9.500   8.233
82317SOL    HW248791  11.636   9.533   8.363
82318SOL     OW48792  12.371  14.424   5.383
82318SOL    HW148793  12.385  14.385   5.469
82318SOL    HW248794  12.444  14.392   5.330
82319SOL     OW48795   2.577  13.101   5.722
82319SOL    HW148796   2.665  13.065   5.732
82319SOL    HW248797   2.519  13.027   5.739
82320SOL     OW48798   6.927   1.708  12.685
82320SOL    HW148799   6.998   1.646  12.702
82320SOL    HW248800   6.923   1.762  12.764
82321SOL     OW48801   2.800   8.051   6.505
82321SOL    HW148802   2.801   8.075   6.413
82321SOL    HW248803   2.892   8.048   6.531
82322SOL     OW48804   5.307  13.349   4.569
82322SOL    HW148805   5.375  13.381   4.628
82322SOL    HW248806   5.230  13.403   4.587
82323SOL     OW48807   2.255  10.926  12.056
82323SOL    HW148808   2.222  10.904  11.969
82323SOL    HW248809   2.236  10.849  12.109
82324SOL     OW48810   9.187   4.886   6.964
82324SOL    HW148811   9.167   4.829   7.039
82324SOL    HW248812   9.238   4.958   7.003
82325SOL     OW48813   9.829  12.217   4.918
82325SOL    HW148814   9.782  12.160   4.979
82325SOL    HW248815   9.884  12.157   4.868
82326SOL     OW48816   0.314   3.866   4.384
82326SOL    HW148817   0.349   3.780   4.409
82326SOL    HW248818   0.303   3.860   4.289
82327SOL     OW48819   7.257  12.526   0.376
82327SOL    HW148820   7.312  12.591   0.332
82327SOL    HW248821   7.227  12.570   0.455
82328SOL     OW48822  12.432  14.401   1.409
82328SOL    HW148823  12.476  14.341   1.350
82328SOL    HW248824  12.376  14.454   1.352
82329SOL     OW48825   3.457  14.158   6.401
82329SOL    HW148826   3.496  14.215   6.334
82329SOL    HW248827   3.367  14.147   6.372
82330SOL     OW48828  10.735   5.493  13.987
82330SOL    HW148829  10.750   5.400  13.973
82330SOL    HW248830  10.808   5.521  14.043
82331SOL     OW48831   6.967  14.308   0.369
82331SOL    HW148832   6.941  14.218   0.351
82331SOL    HW248833   6.925  14.328   0.453
82332SOL     OW48834   1.188  14.749   9.081
82332SOL    HW148835   1.271  14.796   9.086
82332SOL    HW248836   1.130  14.808   9.034
82333SOL     OW48837   2.566   2.646   5.712
82333SOL    HW148838   2.546   2.643   5.618
82333SOL    HW248839   2.633   2.579   5.725
82334SOL     OW48840   9.192   7.683  14.810
82334SOL    HW148841   9.220   7.744   0.004
82334SOL    HW248842   9.255   7.695  14.739
82335SOL     OW48843  14.152   8.100  13.607
82335SOL    HW148844  14.149   8.195  13.617
82335SOL    HW248845  14.226   8.072  13.661
82336SOL     OW48846   0.759  12.130  10.248
82336SOL    HW148847   0.767  12.158  10.339
82336SOL    HW248848   0.799  12.043  10.246
82337SOL     OW48849   7.674  10.418   7.293
82337SOL    HW148850   7.767  10.435   7.277
82337SOL    HW248851   7.664  10.324   7.280
82338SOL     OW48852   2.941   5.970   0.308
82338SOL    HW148853   2.956   6.057   0.270
82338SOL    HW248854   2.866   5.983   0.367
82339SOL     OW48855  13.192   1.574  12.773
82339SOL    HW148856  13.231   1.604  12.691
82339SOL    HW248857  13.122   1.514  12.746
82340SOL     OW48858  10.812  10.998  13.828
82340SOL    HW148859  10.738  11.059  13.830
82340SOL    HW248860  10.835  10.985  13.921
82341SOL     OW48861   9.752   0.713  11.353
82341SOL    HW148862   9.780   0.788  11.406
82341SOL    HW248863   9.810   0.642  11.380
82342SOL     OW48864   3.774   9.806   8.282
82342SOL    HW148865   3.733   9.719   8.278
82342SOL    HW248866   3.713   9.858   8.335
82343SOL     OW48867  11.597  14.139  10.520
82343SOL    HW148868  11.558  14.191  10.591
82343SOL    HW248869  11.674  14.190  10.493
82344SOL     OW48870   9.646   8.137   0.502
82344SOL    HW148871   9.717   8.129   0.438
82344SOL    HW248872   9.600   8.217   0.477
82345SOL     OW48873   5.784  12.889   2.513
82345SOL    HW148874   5.793  12.846   2.599
82345SOL    HW248875   5.727  12.964   2.529
82346SOL     OW48876   0.981   2.143   9.655
82346SOL    HW148877   1.010   2.137   9.563
82346SOL    HW248878   1.039   2.083   9.702
82347SOL     OW48879   3.163   1.288   3.175
82347SOL    HW148880   3.075   1.256   3.159
82347SOL    HW248881   3.203   1.291   3.088
82348SOL     OW48882   7.491   9.841  14.443
82348SOL    HW148883   7.471   9.843  14.537
82348SOL    HW248884   7.418   9.791  14.405
82349SOL     OW48885  10.202   6.541   4.983
82349SOL    HW148886  10.137   6.492   5.033
82349SOL    HW248887  10.210   6.624   5.030
82350SOL     OW48888  10.219   9.267  13.389
82350SOL    HW148889  10.250   9.192  13.440
82350SOL    HW248890  10.294   9.325  13.383
82351SOL     OW48891   4.967   6.633   3.949
82351SOL    HW148892   4.905   6.596   3.886
82351SOL    HW248893   4.911   6.681   4.012
82352SOL     OW48894   2.943   5.262  12.247
82352SOL    HW148895   2.867   5.253  12.190
82352SOL    HW248896   3.002   5.320  12.199
82353SOL     OW48897   0.522   8.424  14.760
82353SOL    HW148898   0.531   8.506  14.809
82353SOL    HW248899   0.435   8.392  14.784
82354SOL     OW48900  14.805  11.263   3.922
82354SOL    HW148901  14.744  11.316   3.871
82354SOL    HW248902   0.011  11.259   3.868
82355SOL     OW48903   9.604   4.512  13.473
82355SOL    HW148904   9.634   4.470  13.554
82355SOL    HW248905   9.646   4.462  13.403
82356SOL     OW48906  11.293  10.990   6.280
82356SOL    HW148907  11.364  10.996   6.215
82356SOL    HW248908  11.234  10.923   6.244
82357SOL     OW48909   0.461   2.424  10.051
82357SOL    HW148910   0.462   2.461  10.139
82357SOL    HW248911   0.369   2.404  10.035
82358SOL     OW48912   6.563   3.853   9.431
82358SOL    HW148913   6.497   3.820   9.492
82358SOL    HW248914   6.639   3.873   9.486
82359SOL     OW48915   0.943   2.245   2.450
82359SOL    HW148916   0.906   2.158   2.468
82359SOL    HW248917   0.946   2.250   2.355
82360SOL     OW48918   5.777  12.406   7.540
82360SOL    HW148919   5.842  12.476   7.537
82360SOL    HW248920   5.775  12.370   7.452
82361SOL     OW48921   0.574   9.422   6.706
82361SOL    HW148922   0.602   9.498   6.655
82361SOL    HW248923   0.480   9.414   6.687
82362SOL     OW48924   0.881   5.848   5.048
82362SOL    HW148925   0.924   5.860   5.132
82362SOL    HW248926   0.793   5.818   5.069
82363SOL     OW48927   8.799   8.282   7.289
82363SOL    HW148928   8.857   8.276   7.365
82363SOL    HW248929   8.832   8.358   7.240
82364SOL     OW48930  13.763   3.134  12.435
82364SOL    HW148931  13.827   3.141  12.506
82364SOL    HW248932  13.678   3.138  12.479
82365SOL     OW48933   5.891  12.958   9.986
82365SOL    HW148934   5.920  12.963   9.894
82365SOL    HW248935   5.865  13.048  10.008
82366SOL     OW48936   9.077  12.434   3.505
82366SOL    HW148937   9.079  12.356   3.450
82366SOL    HW248938   9.033  12.407   3.585
82367SOL     OW48939   4.241   9.843  11.884
82367SOL    HW148940   4.186   9.769  11.912
82367SOL    HW248941   4.181   9.901  11.838
82368SOL     OW48942   2.697   9.983   4.446
82368SOL    HW148943   2.707   9.904   4.392
82368SOL    HW248944   2.611   9.972   4.488
82369SOL     OW48945  13.245  10.962   2.218
82369SOL    HW148946  13.335  10.980   2.189
82369SOL    HW248947  13.249  10.971   2.313
82370SOL     OW48948   6.629   1.771   6.927
82370SOL    HW148949   6.615   1.751   7.020
82370SOL    HW248950   6.715   1.735   6.908
82371SOL     OW48951   9.861   5.343   8.969
82371SOL    HW148952   9.878   5.274   9.033
82371SOL    HW248953   9.828   5.416   9.021
82372SOL     OW48954   8.394   1.801  11.141
82372SOL    HW148955   8.400   1.780  11.047
82372SOL    HW248956   8.418   1.893  11.146
82373SOL     OW48957  12.221   0.354   1.235
82373SOL    HW148958  12.264   0.285   1.184
82373SOL    HW248959  12.137   0.316   1.261
82374SOL     OW48960  12.253   4.116  12.067
82374SOL    HW148961  12.290   4.204  12.060
82374SOL    HW248962  12.270   4.076  11.982
82375SOL     OW48963  13.115  13.461   7.144
82375SOL    HW148964  13.137  13.527   7.079
82375SOL    HW248965  13.195  13.408   7.153
82376SOL     OW48966  11.615   0.619   9.605
82376SOL    HW148967  11.551   0.583   9.666
82376SOL    HW248968  11.589   0.583   9.520
82377SOL     OW48969   5.544   0.181   6.038
82377SOL    HW148970   5.558   0.265   6.082
82377SOL    HW248971   5.627   0.161   5.996
82378SOL     OW48972   8.877   9.687   5.684
82378SOL    HW148973   8.936   9.642   5.745
82378SOL    HW248974   8.838   9.617   5.632
82379SOL     OW48975  14.570   0.522   6.597
82379SOL    HW148976  14.536   0.434   6.612
82379SOL    HW248977  14.535   0.574   6.670
82380SOL     OW48978  12.609   2.488  11.684
82380SOL    HW148979  12.578   2.544  11.755
82380SOL    HW248980  12.691   2.451  11.717
82381SOL     OW48981   4.505  13.424  11.163
82381SOL    HW148982   4.440  13.483  11.126
82381SOL    HW248983   4.587  13.473  11.159
82382SOL     OW48984  10.928  14.271   1.077
82382SOL    HW148985  10.974  14.306   1.000
82382SOL    HW248986  10.845  14.239   1.043
82383SOL     OW48987   2.471   8.193   9.076
82383SOL    HW148988   2.431   8.222   9.158
82383SOL    HW248989   2.470   8.270   9.020
82384SOL     OW48990  10.113  12.527   1.921
82384SOL    HW148991  10.022  12.520   1.949
82384SOL    HW248992  10.157  12.455   1.965
82385SOL     OW48993  12.190   2.573  11.103
82385SOL    HW148994  12.154   2.567  11.014
82385SOL    HW248995  12.211   2.482  11.126
82386SOL     OW48996   2.122  10.817   2.094
82386SOL    HW148997   2.040  10.801   2.048
82386SOL    HW248998   2.187  10.768   2.044
82387SOL     OW48999   2.363   4.058   1.964
82387SOL    HW149000   2.275   4.064   2.001
82387SOL    HW249001   2.363   3.975   1.916
82388SOL     OW49002  14.753  10.229  10.886
82388SOL    HW149003  14.811  10.153  10.883
82388SOL    HW249004  14.667  10.194  10.908
82389SOL     OW49005   1.408   1.849   9.727
82389SOL    HW149006   1.492   1.891   9.709
82389SOL    HW249007   1.415   1.763   9.685
82390SOL     OW49008  13.908  12.827   3.506
82390SOL    HW149009  13.961  12.819   3.426
82390SOL    HW249010  13.919  12.743   3.550
82391SOL     OW49011   3.755  10.698  13.590
82391SOL    HW149012   3.835  10.672  13.636
82391SOL    HW249013   3.748  10.792  13.606
82392SOL     OW49014  12.863   3.537  12.954
82392SOL    HW149015  12.786   3.481  12.941
82392SOL    HW249016  12.860   3.560  13.047
82393SOL     OW49017  12.688   8.132   8.884
82393SOL    HW149018  12.708   8.224   8.869
82393SOL    HW249019  12.613   8.114   8.828
82394SOL     OW49020   8.416   6.228   7.518
82394SOL    HW149021   8.392   6.275   7.598
82394SOL    HW249022   8.371   6.275   7.448
82395SOL     OW49023   2.466   4.367   9.371
82395SOL    HW149024   2.474   4.462   9.378
82395SOL    HW249025   2.539   4.341   9.315
82396SOL     OW49026  14.384   4.594  11.017
82396SOL    HW149027  14.443   4.555  11.081
82396SOL    HW249028  14.341   4.665  11.064
82397SOL     OW49029   7.562  10.228  11.746
82397SOL    HW149030   7.490  10.198  11.801
82397SOL    HW249031   7.525  10.302  11.697
82398SOL     OW49032   6.945   3.521  10.185
82398SOL    HW149033   7.016   3.566  10.230
82398SOL    HW249034   6.891   3.484  10.255
82399SOL     OW49035  11.284   9.793   3.301
82399SOL    HW149036  11.356   9.855   3.313
82399SOL    HW249037  11.310   9.716   3.352
82400SOL     OW49038  12.290  11.229   4.204
82400SOL    HW149039  12.306  11.264   4.117
82400SOL    HW249040  12.374  11.237   4.249
82401SOL     OW49041   4.278   8.873   7.372
82401SOL    HW149042   4.244   8.883   7.461
82401SOL    HW249043   4.269   8.779   7.353
82402SOL     OW49044   2.765   1.234   8.912
82402SOL    HW149045   2.783   1.247   9.005
82402SOL    HW249046   2.837   1.179   8.881
82403SOL     OW49047  13.677  13.029   5.309
82403SOL    HW149048  13.759  12.983   5.292
82403SOL    HW249049  13.702  13.104   5.362
82404SOL     OW49050   3.405  14.823  10.943
82404SOL    HW149051   3.353  14.804  10.865
82404SOL    HW249052   3.341  14.855  11.007
82405SOL     OW49053   0.420  12.161   5.850
82405SOL    HW149054   0.403  12.067   5.855
82405SOL    HW249055   0.505  12.173   5.893
82406SOL     OW49056  10.986   1.869   2.971
82406SOL    HW149057  10.924   1.840   3.037
82406SOL    HW249058  10.954   1.831   2.889
82407SOL     OW49059   8.218   2.147   6.823
82407SOL    HW149060   8.309   2.168   6.843
82407SOL    HW249061   8.193   2.211   6.757
82408SOL     OW49062   0.803   7.492  12.881
82408SOL    HW149063   0.896   7.509  12.870
82408SOL    HW249064   0.783   7.523  12.969
82409SOL     OW49065  11.827   7.408   2.238
82409SOL    HW149066  11.837   7.446   2.325
82409SOL    HW249067  11.772   7.470   2.190
82410SOL     OW49068   0.494   5.920   2.556
82410SOL    HW149069   0.406   5.883   2.547
82410SOL    HW249070   0.496   5.956   2.644
82411SOL     OW49071   3.475   7.311   7.295
82411SOL    HW149072   3.493   7.404   7.284
82411SOL    HW249073   3.550   7.267   7.255
82412SOL     OW49074  14.492   9.789   7.835
82412SOL    HW149075  14.424   9.826   7.778
82412SOL    HW249076  14.567   9.847   7.824
82413SOL     OW49077   4.776   9.476   7.516
82413SOL    HW149078   4.697   9.505   7.561
82413SOL    HW249079   4.819   9.417   7.579
82414SOL     OW49080   2.465   0.970   0.081
82414SOL    HW149081   2.468   1.041   0.016
82414SOL    HW249082   2.544   0.982   0.133
82415SOL     OW49083   7.651   4.362   1.748
82415SOL    HW149084   7.719   4.381   1.684
82415SOL    HW249085   7.578   4.418   1.722
82416SOL     OW49086   0.074   4.108   8.229
82416SOL    HW149087   0.036   4.176   8.173
82416SOL    HW249088   0.071   4.028   8.177
82417SOL     OW49089   7.233   5.746  12.679
82417SOL    HW149090   7.294   5.717  12.611
82417SOL    HW249091   7.156   5.777  12.631
82418SOL     OW49092   7.574   7.773   4.839
82418SOL    HW149093   7.643   7.807   4.896
82418SOL    HW249094   7.593   7.679   4.831
82419SOL     OW49095   3.401   7.874  10.654
82419SOL    HW149096   3.381   7.813  10.725
82419SOL    HW249097   3.495   7.886  10.658
82420SOL     OW49098   3.191   1.668   9.313
82420SOL    HW149099   3.200   1.712   9.398
82420SOL    HW249100   3.192   1.575   9.334
82421SOL     OW49101   1.251  10.000  12.212
82421SOL    HW149102   1.249  10.068  12.145
82421SOL    HW249103   1.225   9.920  12.166
82422SOL     OW49104  13.607   7.772   9.997
82422SOL    HW149105  13.676   7.750   9.936
82422SOL    HW249106  13.570   7.688  10.024
82423SOL     OW49107  10.858   0.331   4.138
82423SOL    HW149108  10.777   0.285   4.116
82423SOL    HW249109  10.846   0.359   4.229
82424SOL     OW49110  12.552   0.090   8.066
82424SOL    HW149111  12.623   0.135   8.111
82424SOL    HW249112  12.532   0.015   8.122
82425SOL     OW49113   2.461   1.447   7.330
82425SOL    HW149114   2.401   1.418   7.400
82425SOL    HW249115   2.431   1.401   7.252
82426SOL     OW49116  13.828   2.248  14.868
82426SOL    HW149117  13.800   2.238   0.086
82426SOL    HW249118  13.856   2.340  14.861
82427SOL     OW49119   2.095  10.360  12.796
82427SOL    HW149120   2.117  10.451  12.779
82427SOL    HW249121   2.164  10.310  12.754
82428SOL     OW49122   0.598  13.355  14.694
82428SOL    HW149123   0.691  13.347  14.674
82428SOL    HW249124   0.580  13.449  14.686
82429SOL     OW49125   6.047   4.090   5.212
82429SOL    HW149126   6.054   4.032   5.135
82429SOL    HW249127   6.000   4.166   5.180
82430SOL     OW49128  14.800   4.042   6.788
82430SOL    HW149129  14.758   3.973   6.736
82430SOL    HW249130  14.841   4.099   6.723
82431SOL     OW49131  12.761   0.949   7.354
82431SOL    HW149132  12.836   0.944   7.296
82431SOL    HW249133  12.798   0.973   7.439
82432SOL     OW49134  10.280   5.275   1.391
82432SOL    HW149135  10.311   5.189   1.362
82432SOL    HW249136  10.204   5.293   1.336
82433SOL     OW49137   9.932  10.851   4.070
82433SOL    HW149138   9.951  10.878   4.159
82433SOL    HW249139   9.921  10.756   4.075
82434SOL     OW49140  13.584  10.126   6.052
82434SOL    HW149141  13.618  10.214   6.040
82434SOL    HW249142  13.489  10.137   6.057
82435SOL     OW49143   4.350   1.125   8.719
82435SOL    HW149144   4.398   1.042   8.729
82435SOL    HW249145   4.319   1.124   8.628
82436SOL     OW49146   2.364   2.499   1.855
82436SOL    HW149147   2.346   2.407   1.833
82436SOL    HW249148   2.417   2.495   1.935
82437SOL     OW49149   4.259   8.624   7.491
82437SOL    HW149150   4.324   8.556   7.508
82437SOL    HW249151   4.198   8.584   7.429
82438SOL     OW49152   4.371   3.765   2.309
82438SOL    HW149153   4.332   3.780   2.223
82438SOL    HW249154   4.375   3.670   2.318
82439SOL     OW49155  11.171   3.282   4.184
82439SOL    HW149156  11.124   3.350   4.137
82439SOL    HW249157  11.261   3.287   4.150
82440SOL     OW49158  11.981   0.737  13.281
82440SOL    HW149159  12.008   0.662  13.334
82440SOL    HW249160  12.004   0.712  13.192
82441SOL     OW49161  11.004  13.788   3.657
82441SOL    HW149162  10.943  13.808   3.728
82441SOL    HW249163  11.024  13.695   3.668
82442SOL     OW49164   8.820  11.907   2.560
82442SOL    HW149165   8.902  11.894   2.513
82442SOL    HW249166   8.842  11.893   2.652
82443SOL     OW49167  12.889   0.038   2.354
82443SOL    HW149168  12.909  14.839   2.294
82443SOL    HW249169  12.794   0.047   2.351
82444SOL     OW49170   8.596   2.484   5.573
82444SOL    HW149171   8.522   2.491   5.512
82444SOL    HW249172   8.616   2.391   5.577
82445SOL     OW49173   7.810  12.468   3.766
82445SOL    HW149174   7.718  12.451   3.786
82445SOL    HW249175   7.849  12.491   3.851
82446SOL     OW49176   6.194   0.956   0.678
82446SOL    HW149177   6.287   0.931   0.681
82446SOL    HW249178   6.167   0.957   0.770
82447SOL     OW49179  13.790   1.725   8.109
82447SOL    HW149180  13.849   1.800   8.118
82447SOL    HW249181  13.785   1.689   8.198
82448SOL     OW49182  13.526   3.108  14.525
82448SOL    HW149183  13.519   3.049  14.450
82448SOL    HW249184  13.450   3.165  14.517
82449SOL     OW49185   6.699  10.647   6.782
82449SOL    HW149186   6.711  10.687   6.868
82449SOL    HW249187   6.710  10.719   6.719
82450SOL     OW49188  11.167  14.257   2.421
82450SOL    HW149189  11.088  14.249   2.367
82450SOL    HW249190  11.238  14.230   2.363
82451SOL     OW49191   5.090   5.502  10.079
82451SOL    HW149192   5.083   5.448  10.001
82451SOL    HW249193   5.005   5.545  10.087
82452SOL     OW49194   4.188   2.258  10.540
82452SOL    HW149195   4.166   2.310  10.463
82452SOL    HW249196   4.270   2.214  10.516
82453SOL     OW49197  10.997   7.804  11.476
82453SOL    HW149198  11.017   7.746  11.550
82453SOL    HW249199  10.916   7.769  11.439
82454SOL     OW49200   2.165  12.074  13.502
82454SOL    HW149201   2.070  12.084  13.503
82454SOL    HW249202   2.183  12.027  13.420
82455SOL     OW49203   4.539   0.414   1.681
82455SOL    HW149204   4.454   0.397   1.639
82455SOL    HW249205   4.517   0.457   1.763
82456SOL     OW49206   3.986  11.955   8.356
82456SOL    HW149207   3.928  11.932   8.429
82456SOL    HW249208   4.030  12.035   8.384
82457SOL     OW49209   8.909   3.939   4.927
82457SOL    HW149210   8.926   3.849   4.901
82457SOL    HW249211   8.992   3.970   4.961
82458SOL     OW49212   8.476  10.715   0.165
82458SOL    HW149213   8.500  10.623   0.175
82458SOL    HW249214   8.553  10.754   0.123
82459SOL     OW49215  10.745   2.983  13.414
82459SOL    HW149216  10.706   3.014  13.332
82459SOL    HW249217  10.788   3.059  13.451
82460SOL     OW49218   1.549   7.094   7.059
82460SOL    HW149219   1.606   7.149   7.005
82460SOL    HW249220   1.577   7.004   7.039
82461SOL     OW49221   9.241   5.950  11.288
82461SOL    HW149222   9.319   5.986  11.246
82461SOL    HW249223   9.198   6.025  11.328
82462SOL     OW49224  11.975  10.665   9.094
82462SOL    HW149225  11.952  10.753   9.123
82462SOL    HW249226  11.900  10.637   9.042
82463SOL     OW49227   2.803   5.100   1.163
82463SOL    HW149228   2.899   5.099   1.159
82463SOL    HW249229   2.775   5.092   1.072
82464SOL     OW49230   7.348   8.099   4.062
82464SOL    HW149231   7.324   8.169   4.001
82464SOL    HW249232   7.438   8.077   4.038
82465SOL     OW49233   3.394  11.973   0.572
82465SOL    HW149234   3.410  12.019   0.490
82465SOL    HW249235   3.305  11.938   0.563
82466SOL     OW49236   0.224   2.449  13.028
82466SOL    HW149237   0.198   2.533  12.992
82466SOL    HW249238   0.149   2.422  13.082
82467SOL     OW49239   7.846   4.691  10.938
82467SOL    HW149240   7.794   4.617  10.969
82467SOL    HW249241   7.860   4.674  10.845
82468SOL     OW49242   8.529   1.321  10.012
82468SOL    HW149243   8.453   1.262  10.017
82468SOL    HW249244   8.519   1.378  10.088
82469SOL     OW49245   5.292   3.472   4.184
82469SOL    HW149246   5.344   3.552   4.185
82469SOL    HW249247   5.287   3.444   4.276
82470SOL     OW49248   2.742   9.304  10.889
82470SOL    HW149249   2.751   9.279  10.797
82470SOL    HW249250   2.680   9.377  10.888
82471SOL     OW49251  11.982  14.684   6.014
82471SOL    HW149252  12.055  14.623   6.019
82471SOL    HW249253  12.023  14.770   6.005
82472SOL     OW49254  13.784   8.567   3.250
82472SOL    HW149255  13.703   8.527   3.284
82472SOL    HW249256  13.823   8.498   3.196
82473SOL     OW49257   1.435   9.671   8.505
82473SOL    HW149258   1.520   9.694   8.468
82473SOL    HW249259   1.412   9.588   8.462
82474SOL     OW49260   7.484   6.634   9.531
82474SOL    HW149261   7.547   6.643   9.603
82474SOL    HW249262   7.506   6.705   9.471
82475SOL     OW49263   2.924  12.144   5.610
82475SOL    HW149264   2.914  12.092   5.530
82475SOL    HW249265   2.863  12.103   5.672
82476SOL     OW49266  10.298   3.240   3.762
82476SOL    HW149267  10.297   3.155   3.718
82476SOL    HW249268  10.318   3.219   3.854
82477SOL     OW49269   0.142  10.984  10.823
82477SOL    HW149270   0.162  10.968  10.915
82477SOL    HW249271   0.047  10.971  10.816
82478SOL     OW49272   3.428   8.042   0.883
82478SOL    HW149273   3.335   8.035   0.861
82478SOL    HW249274   3.473   8.013   0.804
82479SOL     OW49275   9.392  14.650   8.685
82479SOL    HW149276   9.487  14.640   8.689
82479SOL    HW249277   9.364  14.586   8.620
82480SOL     OW49278   7.577   2.911   1.053
82480SOL    HW149279   7.504   2.848   1.055
82480SOL    HW249280   7.562   2.967   1.129
82481SOL     OW49281   8.532  11.661  14.723
82481SOL    HW149282   8.556  11.741  14.678
82481SOL    HW249283   8.512  11.599  14.653
82482SOL     OW49284   9.561  14.231   6.572
82482SOL    HW149285   9.493  14.214   6.638
82482SOL    HW249286   9.572  14.148   6.527
82483SOL     OW49287  10.260   8.843  14.251
82483SOL    HW149288  10.251   8.753  14.284
82483SOL    HW249289  10.336   8.878  14.297
82484SOL     OW49290   5.509  12.130   5.862
82484SOL    HW149291   5.599  12.098   5.861
82484SOL    HW249292   5.460  12.061   5.907
82485SOL     OW49293   8.604   3.428  13.208
82485SOL    HW149294   8.658   3.499  13.243
82485SOL    HW249295   8.625   3.353  13.264
82486SOL     OW49296  13.040   5.022   2.705
82486SOL    HW149297  12.996   5.090   2.653
82486SOL    HW249298  12.975   4.952   2.711
82487SOL     OW49299   3.784   3.093   1.298
82487SOL    HW149300   3.777   3.150   1.375
82487SOL    HW249301   3.694   3.080   1.270
82488SOL     OW49302   7.868   5.957  11.140
82488SOL    HW149303   7.799   5.902  11.176
82488SOL    HW249304   7.898   5.910  11.062
82489SOL     OW49305   2.759  13.652   3.394
82489SOL    HW149306   2.779  13.665   3.487
82489SOL    HW249307   2.710  13.730   3.369
82490SOL     OW49308  14.390   7.573   6.487
82490SOL    HW149309  14.462   7.511   6.475
82490SOL    HW249310  14.370   7.604   6.399
82491SOL     OW49311   3.635   9.142   8.073
82491SOL    HW149312   3.726   9.117   8.092
82491SOL    HW249313   3.616   9.212   8.135
82492SOL     OW49314   0.153  12.520   0.068
82492SOL    HW149315   0.171  12.564   0.151
82492SOL    HW249316   0.152  12.591   0.004
82493SOL     OW49317  13.639   4.427  10.770
82493SOL    HW149318  13.559   4.462  10.810
82493SOL    HW249319  13.673   4.499  10.718
82494SOL     OW49320   4.433   9.984  10.853
82494SOL    HW149321   4.428   9.922  10.780
82494SOL    HW249322   4.364  10.048  10.834
82495SOL     OW49323   3.527   0.054   1.666
82495SOL    HW149324   3.555  14.837   1.683
82495SOL    HW249325   3.521   0.060   1.570
82496SOL     OW49326   7.054   2.191   0.404
82496SOL    HW149327   6.981   2.237   0.363
82496SOL    HW249328   7.129   2.251   0.395
82497SOL     OW49329   9.715   1.886   5.150
82497SOL    HW149330   9.766   1.921   5.077
82497SOL    HW249331   9.637   1.849   5.108
82498SOL     OW49332   5.087  13.234  13.380
82498SOL    HW149333   5.103  13.141  13.362
82498SOL    HW249334   5.171  13.276  13.364
82499SOL     OW49335  11.160  10.235  13.461
82499SOL    HW149336  11.256  10.241  13.458
82499SOL    HW249337  11.141  10.141  13.452
82500SOL     OW49338   2.858   7.082  13.967
82500SOL    HW149339   2.854   7.133  14.047
82500SOL    HW249340   2.885   6.995  13.996
82501SOL     OW49341  13.219   1.606   8.592
82501SOL    HW149342  13.171   1.673   8.642
82501SOL    HW249343  13.160   1.531   8.590
82502SOL     OW49344   8.232   4.539  11.316
82502SOL    HW149345   8.147   4.506  11.284
82502SOL    HW249346   8.245   4.620  11.268
82503SOL     OW49347   1.842  10.334   2.013
82503SOL    HW149348   1.832  10.400   2.081
82503SOL    HW249349   1.936  10.331   1.996
82504SOL     OW49350   8.937  12.915  14.585
82504SOL    HW149351   8.973  12.829  14.563
82504SOL    HW249352   8.942  12.964  14.503
82505SOL     OW49353  13.382   9.663  14.329
82505SOL    HW149354  13.363   9.721  14.256
82505SOL    HW249355  13.415   9.721  14.398
82506SOL     OW49356  10.875   8.550   7.853
82506SOL    HW149357  10.859   8.639   7.822
82506SOL    HW249358  10.955   8.558   7.906
82507SOL     OW49359   4.814  14.252   3.874
82507SOL    HW149360   4.795  14.166   3.836
82507SOL    HW249361   4.812  14.237   3.969
82508SOL     OW49362  12.010  14.492   8.835
82508SOL    HW149363  11.990  14.430   8.905
82508SOL    HW249364  12.082  14.452   8.787
82509SOL     OW49365  12.382   3.997  11.834
82509SOL    HW149366  12.396   4.075  11.780
82509SOL    HW249367  12.464   3.948  11.828
82510SOL     OW49368  14.002   3.842  14.426
82510SOL    HW149369  14.088   3.842  14.468
82510SOL    HW249370  14.016   3.797  14.343
82511SOL     OW49371  10.555   6.983   6.117
82511SOL    HW149372  10.626   6.977   6.181
82511SOL    HW249373  10.493   7.044   6.156
82512SOL     OW49374  14.101   6.354   8.389
82512SOL    HW149375  14.050   6.405   8.326
82512SOL    HW249376  14.045   6.278   8.409
82513SOL     OW49377   1.472   2.907  12.372
82513SOL    HW149378   1.500   2.975  12.310
82513SOL    HW249379   1.377   2.912  12.372
82514SOL     OW49380  10.047   7.666   3.773
82514SOL    HW149381  10.012   7.653   3.685
82514SOL    HW249382  10.112   7.736   3.763
82515SOL     OW49383   2.964   1.362  13.043
82515SOL    HW149384   2.991   1.278  13.081
82515SOL    HW249385   2.869   1.359  13.041
82516SOL     OW49386  11.630  11.064  10.786
82516SOL    HW149387  11.603  10.988  10.837
82516SOL    HW249388  11.561  11.075  10.720
82517SOL     OW49389  12.294   5.777   1.808
82517SOL    HW149390  12.260   5.693   1.837
82517SOL    HW249391  12.295   5.831   1.888
82518SOL     OW49392   5.450   1.794  13.134
82518SOL    HW149393   5.423   1.798  13.226
82518SOL    HW249394   5.377   1.751  13.090
82519SOL     OW49395   4.252   6.337   9.531
82519SOL    HW149396   4.339   6.314   9.501
82519SOL    HW249397   4.196   6.325   9.454
82520SOL     OW49398   8.751   0.366   0.626
82520SOL    HW149399   8.713   0.343   0.711
82520SOL    HW249400   8.836   0.405   0.647
82521SOL     OW49401  14.815   9.368   8.226
82521SOL    HW149402  14.752   9.437   8.248
82521SOL    HW249403  14.862   9.352   8.308
82522SOL     OW49404  11.402   4.931   6.789
82522SOL    HW149405  11.391   4.927   6.884
82522SOL    HW249406  11.313   4.937   6.755
82523SOL     OW49407  13.889   2.255  10.053
82523SOL    HW149408  13.812   2.226  10.005
82523SOL    HW249409  13.875   2.348  10.069
82524SOL     OW49410   3.973  13.961   7.215
82524SOL    HW149411   3.903  13.911   7.172
82524SOL    HW249412   4.031  13.987   7.144
82525SOL     OW49413   0.146   9.243   0.058
82525SOL    HW149414   0.106   9.217  14.848
82525SOL    HW249415   0.187   9.328   0.039
82526SOL     OW49416   4.682   6.022   7.353
82526SOL    HW149417   4.749   5.981   7.298
82526SOL    HW249418   4.601   5.978   7.330
82527SOL     OW49419   6.432   4.655  10.463
82527SOL    HW149420   6.364   4.672  10.398
82527SOL    HW249421   6.501   4.610  10.414
82528SOL     OW49422  11.535   7.550   3.292
82528SOL    HW149423  11.618   7.501   3.295
82528SOL    HW249424  11.541   7.610   3.367
82529SOL     OW49425   1.707  12.528   6.207
82529SOL    HW149426   1.633  12.506   6.150
82529SOL    HW249427   1.777  12.553   6.147
82530SOL     OW49428   7.958   9.608   2.425
82530SOL    HW149429   7.901   9.650   2.490
82530SOL    HW249430   7.914   9.623   2.341
82531SOL     OW49431   2.416  11.622  11.582
82531SOL    HW149432   2.475  11.695  11.566
82531SOL    HW249433   2.432  11.562  11.510
82532SOL     OW49434   9.341   1.262  12.793
82532SOL    HW149435   9.395   1.337  12.766
82532SOL    HW249436   9.388   1.225  12.868
82533SOL     OW49437   4.332  11.135  13.011
82533SOL    HW149438   4.346  11.226  13.036
82533SOL    HW249439   4.418  11.094  13.015
82534SOL     OW49440  11.729  10.345   1.576
82534SOL    HW149441  11.684  10.378   1.498
82534SOL    HW249442  11.808  10.400   1.582
82535SOL     OW49443   6.344  11.925   1.154
82535SOL    HW149444   6.305  12.005   1.119
82535SOL    HW249445   6.299  11.910   1.237
82536SOL     OW49446   3.680   5.343   2.397
82536SOL    HW149447   3.666   5.370   2.307
82536SOL    HW249448   3.765   5.299   2.395
82537SOL     OW49449   7.555   2.815  10.586
82537SOL    HW149450   7.548   2.748  10.519
82537SOL    HW249451   7.644   2.850  10.576
82538SOL     OW49452  11.314   8.896   3.612
82538SOL    HW149453  11.294   8.805   3.634
82538SOL    HW249454  11.336   8.937   3.696
82539SOL     OW49455  11.578   4.733  10.222
82539SOL    HW149456  11.540   4.711  10.307
82539SOL    HW249457  11.587   4.828  10.223
82540SOL     OW49458  14.163   2.123  10.755
82540SOL    HW149459  14.245   2.077  10.745
82540SOL    HW249460  14.126   2.128  10.667
82541SOL     OW49461  13.922   3.762  10.485
82541SOL    HW149462  13.841   3.811  10.474
82541SOL    HW249463  13.908   3.681  10.436
82542SOL     OW49464  11.156  12.439   5.807
82542SOL    HW149465  11.135  12.495   5.731
82542SOL    HW249466  11.242  12.402   5.785
82543SOL     OW49467   8.554   3.747  14.566
82543SOL    HW149468   8.521   3.680  14.507
82543SOL    HW249469   8.630   3.783  14.520
82544SOL     OW49470  10.021   1.058  14.524
82544SOL    HW149471   9.981   1.122  14.465
82544SOL    HW249472   9.969   0.979  14.513
82545SOL     OW49473  14.716   4.437  12.919
82545SOL    HW149474  14.753   4.349  12.924
82545SOL    HW249475  14.748   4.472  12.836
82546SOL     OW49476   3.015   4.019   4.589
82546SOL    HW149477   2.934   4.014   4.640
82546SOL    HW249478   3.017   4.109   4.557
82547SOL     OW49479   8.034   3.296   1.035
82547SOL    HW149480   8.045   3.252   0.952
82547SOL    HW249481   7.981   3.236   1.088
82548SOL     OW49482   6.907  10.704  13.889
82548SOL    HW149483   6.961  10.759  13.945
82548SOL    HW249484   6.829  10.686  13.942
82549SOL     OW49485  13.304   3.586   7.790
82549SOL    HW149486  13.382   3.603   7.843
82549SOL    HW249487  13.283   3.494   7.810
82550SOL     OW49488   3.323   3.691   0.437
82550SOL    HW149489   3.385   3.763   0.442
82550SOL    HW249490   3.373   3.614   0.464
82551SOL     OW49491   1.452  12.536   3.165
82551SOL    HW149492   1.518  12.471   3.142
82551SOL    HW249493   1.388  12.533   3.094
82552SOL     OW49494  12.383   0.025   3.573
82552SOL    HW149495  12.412   0.116   3.586
82552SOL    HW249496  12.463  14.847   3.570
82553SOL     OW49497   1.916   5.912  11.420
82553SOL    HW149498   1.852   5.924  11.350
82553SOL    HW249499   1.910   5.820  11.443
82554SOL     OW49500  11.728   2.995  11.149
82554SOL    HW149501  11.812   2.977  11.107
82554SOL    HW249502  11.720   2.928  11.216
82555SOL     OW49503  11.132   4.845   8.503
82555SOL    HW149504  11.188   4.768   8.511
82555SOL    HW249505  11.074   4.842   8.579
82556SOL     OW49506   5.811   3.313  10.168
82556SOL    HW149507   5.781   3.291  10.080
82556SOL    HW249508   5.744   3.372  10.202
82557SOL     OW49509   2.269   9.821   0.857
82557SOL    HW149510   2.319   9.807   0.937
82557SOL    HW249511   2.336   9.829   0.788
82558SOL     OW49512  13.251   9.410   7.801
82558SOL    HW149513  13.262   9.322   7.765
82558SOL    HW249514  13.158   9.429   7.790
82559SOL     OW49515   9.625   4.645   5.124
82559SOL    HW149516   9.627   4.695   5.205
82559SOL    HW249517   9.614   4.554   5.151
82560SOL     OW49518   8.209   5.908   9.296
82560SOL    HW149519   8.238   5.863   9.217
82560SOL    HW249520   8.261   5.988   9.298
82561SOL     OW49521   3.224  11.445  10.743
82561SOL    HW149522   3.156  11.506  10.716
82561SOL    HW249523   3.269  11.422  10.662
82562SOL     OW49524  11.746  11.175   3.003
82562SOL    HW149525  11.755  11.235   2.929
82562SOL    HW249526  11.655  11.186   3.033
82563SOL     OW49527  11.607   3.769   8.489
82563SOL    HW149528  11.682   3.793   8.544
82563SOL    HW249529  11.629   3.682   8.455
82564SOL     OW49530  11.769   1.171  10.678
82564SOL    HW149531  11.821   1.091  10.689
82564SOL    HW249532  11.700   1.164  10.744
82565SOL     OW49533   8.640   1.896  10.486
82565SOL    HW149534   8.698   1.899  10.562
82565SOL    HW249535   8.628   1.987  10.461
82566SOL     OW49536   2.577  10.578   7.669
82566SOL    HW149537   2.520  10.611   7.599
82566SOL    HW249538   2.565  10.640   7.741
82567SOL     OW49539   1.000   4.716   9.191
82567SOL    HW149540   0.923   4.728   9.248
82567SOL    HW249541   0.969   4.661   9.119
82568SOL     OW49542   5.295   3.457   8.860
82568SOL    HW149543   5.231   3.449   8.931
82568SOL    HW249544   5.360   3.388   8.879
82569SOL     OW49545   2.286   0.031   0.215
82569SOL    HW149546   2.360  14.864   0.260
82569SOL    HW249547   2.214  14.842   0.225
82570SOL     OW49548   9.257   4.768   9.593
82570SOL    HW149549   9.199   4.724   9.531
82570SOL    HW249550   9.314   4.822   9.539
82571SOL     OW49551   2.949  13.508   2.781
82571SOL    HW149552   2.996  13.580   2.823
82571SOL    HW249553   3.011  13.435   2.783
82572SOL     OW49554   3.102  12.157  14.520
82572SOL    HW149555   3.090  12.252  14.522
82572SOL    HW249556   3.177  12.144  14.462
82573SOL     OW49557  13.369   2.673  11.686
82573SOL    HW149558  13.462   2.654  11.695
82573SOL    HW249559  13.355   2.752  11.738
82574SOL     OW49560   1.443   9.228  11.473
82574SOL    HW149561   1.350   9.215  11.493
82574SOL    HW249562   1.476   9.280  11.546
82575SOL     OW49563   4.561   4.428  11.864
82575SOL    HW149564   4.534   4.391  11.781
82575SOL    HW249565   4.620   4.499  11.841
82576SOL     OW49566   8.458   1.176  12.943
82576SOL    HW149567   8.538   1.177  12.995
82576SOL    HW249568   8.432   1.083  12.941
82577SOL     OW49569  11.011   2.144  10.600
82577SOL    HW149570  10.937   2.114  10.652
82577SOL    HW249571  11.044   2.220  10.649
82578SOL     OW49572   7.513   0.941   6.846
82578SOL    HW149573   7.437   0.992   6.874
82578SOL    HW249574   7.549   0.992   6.772
82579SOL     OW49575   5.904   6.901   6.866
82579SOL    HW149576   5.919   6.992   6.840
82579SOL    HW249577   5.811   6.886   6.849
82580SOL     OW49578   5.677  10.417   1.303
82580SOL    HW149579   5.674  10.418   1.208
82580SOL    HW249580   5.625  10.341   1.329
82581SOL     OW49581   5.887   1.995  14.012
82581SOL    HW149582   5.905   1.928  13.946
82581SOL    HW249583   5.864   2.072  13.961
82582SOL     OW49584   4.260   8.934   1.748
82582SOL    HW149585   4.246   8.995   1.675
82582SOL    HW249586   4.274   8.990   1.824
82583SOL     OW49587   7.079   8.645   5.294
82583SOL    HW149588   7.137   8.698   5.349
82583SOL    HW249589   7.136   8.575   5.260
82584SOL     OW49590   6.718   1.689   6.559
82584SOL    HW149591   6.792   1.670   6.501
82584SOL    HW249592   6.757   1.704   6.645
82585SOL     OW49593   3.510  12.081   5.229
82585SOL    HW149594   3.483  12.059   5.318
82585SOL    HW249595   3.451  12.031   5.173
82586SOL     OW49596  11.717  14.397   6.862
82586SOL    HW149597  11.767  14.322   6.830
82586SOL    HW249598  11.626  14.377   6.837
82587SOL     OW49599   0.127   7.241  11.183
82587SOL    HW149600   0.143   7.284  11.100
82587SOL    HW249601   0.070   7.301  11.231
82588SOL     OW49602  14.795   7.896  10.748
82588SOL    HW149603  14.771   7.927  10.835
82588SOL    HW249604  14.859   7.826  10.764
82589SOL     OW49605   9.066   2.618   9.004
82589SOL    HW149606   8.974   2.645   9.000
82589SOL    HW249607   9.079   2.567   8.924
82590SOL     OW49608   7.162   4.903   8.560
82590SOL    HW149609   7.097   4.972   8.573
82590SOL    HW249610   7.244   4.944   8.587
82591SOL     OW49611   0.994   3.250  12.824
82591SOL    HW149612   0.937   3.325  12.842
82591SOL    HW249613   1.029   3.267  12.737
82592SOL     OW49614   9.202   8.307  12.427
82592SOL    HW149615   9.135   8.345  12.485
82592SOL    HW249616   9.204   8.364  12.351
82593SOL     OW49617  11.183   4.374   8.227
82593SOL    HW149618  11.234   4.295   8.215
82593SOL    HW249619  11.093   4.349   8.206
82594SOL     OW49620   7.535   2.176   4.220
82594SOL    HW149621   7.447   2.159   4.187
82594SOL    HW249622   7.532   2.265   4.253
82595SOL     OW49623   2.450  13.968  11.294
82595SOL    HW149624   2.365  13.929  11.310
82595SOL    HW249625   2.499  13.900  11.248
82596SOL     OW49626   3.261   0.685   3.502
82596SOL    HW149627   3.334   0.622   3.501
82596SOL    HW249628   3.223   0.677   3.589
82597SOL     OW49629   0.764  10.865  13.945
82597SOL    HW149630   0.722  10.814  13.876
82597SOL    HW249631   0.759  10.956  13.914
82598SOL     OW49632  13.351   6.278   4.519
82598SOL    HW149633  13.381   6.368   4.509
82598SOL    HW249634  13.365   6.258   4.612
82599SOL     OW49635   4.595   9.944   5.556
82599SOL    HW149636   4.572   9.870   5.500
82599SOL    HW249637   4.528   9.942   5.625
82600SOL     OW49638   9.596   0.615  10.094
82600SOL    HW149639   9.530   0.561  10.138
82600SOL    HW249640   9.680   0.577  10.119
82601SOL     OW49641   4.235   7.748   7.939
82601SOL    HW149642   4.194   7.811   7.999
82601SOL    HW249643   4.189   7.666   7.956
82602SOL     OW49644  12.231   2.402  13.923
82602SOL    HW149645  12.169   2.451  13.977
82602SOL    HW249646  12.233   2.314  13.961
82603SOL     OW49647   9.533   3.736   4.581
82603SOL    HW149648   9.592   3.784   4.639
82603SOL    HW249649   9.591   3.681   4.528
82604SOL     OW49650   8.182   3.385  10.081
82604SOL    HW149651   8.232   3.385  10.162
82604SOL    HW249652   8.092   3.367  10.108
82605SOL     OW49653  10.899   2.740  14.553
82605SOL    HW149654  10.819   2.714  14.508
82605SOL    HW249655  10.879   2.827  14.589
82606SOL     OW49656  12.113   7.812  12.300
82606SOL    HW149657  12.162   7.889  12.273
82606SOL    HW249658  12.179   7.744  12.311
82607SOL     OW49659   1.645   9.589   5.376
82607SOL    HW149660   1.648   9.649   5.301
82607SOL    HW249661   1.603   9.511   5.342
82608SOL     OW49662  10.409   1.279   8.327
82608SOL    HW149663  10.501   1.295   8.309
82608SOL    HW249664  10.401   1.285   8.423
82609SOL     OW49665   9.441   9.352  13.115
82609SOL    HW149666   9.430   9.351  13.210
82609SOL    HW249667   9.483   9.436  13.096
82610SOL     OW49668   7.508   0.737   5.877
82610SOL    HW149669   7.510   0.818   5.827
82610SOL    HW249670   7.415   0.716   5.884
82611SOL     OW49671   5.618   6.595   9.043
82611SOL    HW149672   5.593   6.688   9.041
82611SOL    HW249673   5.713   6.596   9.032
82612SOL     OW49674   9.544  11.411   8.138
82612SOL    HW149675   9.500  11.414   8.223
82612SOL    HW249676   9.628  11.369   8.155
82613SOL     OW49677   8.371  11.902  10.317
82613SOL    HW149678   8.379  11.807  10.319
82613SOL    HW249679   8.364  11.924  10.224
82614SOL     OW49680  14.427   7.056   5.412
82614SOL    HW149681  14.438   7.069   5.317
82614SOL    HW249682  14.514   7.031   5.443
82615SOL     OW49683  12.126   1.408   5.460
82615SOL    HW149684  12.116   1.322   5.419
82615SOL    HW249685  12.044   1.421   5.509
82616SOL     OW49686   2.716  12.416  12.310
82616SOL    HW149687   2.740  12.500  12.272
82616SOL    HW249688   2.626  12.401  12.282
82617SOL     OW49689   5.795  14.289   9.498
82617SOL    HW149690   5.820  14.380   9.512
82617SOL    HW249691   5.760  14.261   9.583
82618SOL     OW49692   7.788   2.218   5.984
82618SOL    HW149693   7.715   2.175   6.029
82618SOL    HW249694   7.816   2.154   5.918
82619SOL     OW49695   8.334  14.676   2.274
82619SOL    HW149696   8.323  14.628   2.357
82619SOL    HW249697   8.418  14.644   2.240
82620SOL     OW49698   3.475  10.868   7.435
82620SOL    HW149699   3.386  10.892   7.461
82620SOL    HW249700   3.530  10.938   7.472
82621SOL     OW49701   5.668   0.644   3.130
82621SOL    HW149702   5.657   0.548   3.129
82621SOL    HW249703   5.591   0.676   3.177
82622SOL     OW49704   7.232  14.817   9.410
82622SOL    HW149705   7.165  14.755   9.381
82622SOL    HW249706   7.197   0.030   9.385
82623SOL     OW49707   8.842   3.643   4.246
82623SOL    HW149708   8.854   3.653   4.152
82623SOL    HW249709   8.887   3.719   4.285
82624SOL     OW49710   3.576   5.396  10.168
82624SOL    HW149711   3.577   5.348  10.085
82624SOL    HW249712   3.489   5.437  10.170
82625SOL     OW49713   1.067  10.547   2.053
82625SOL    HW149714   0.975  10.521   2.044
82625SOL    HW249715   1.067  10.610   2.125
82626SOL     OW49716   9.516   7.458   2.295
82626SOL    HW149717   9.555   7.535   2.253
82626SOL    HW249718   9.441   7.492   2.342
82627SOL     OW49719   6.672   1.404   4.220
82627SOL    HW149720   6.704   1.366   4.138
82627SOL    HW249721   6.712   1.350   4.288
82628SOL     OW49722   1.024   8.402   3.331
82628SOL    HW149723   0.971   8.394   3.411
82628SOL    HW249724   0.992   8.333   3.274
82629SOL     OW49725   6.805   2.082   8.998
82629SOL    HW149726   6.772   2.090   8.908
82629SOL    HW249727   6.727   2.065   9.051
82630SOL     OW49728  11.049   0.683   2.140
82630SOL    HW149729  11.140   0.710   2.148
82630SOL    HW249730  11.001   0.765   2.127
82631SOL     OW49731   5.637  14.563   5.494
82631SOL    HW149732   5.567  14.625   5.472
82631SOL    HW249733   5.595  14.477   5.490
82632SOL     OW49734  14.847   9.988   0.548
82632SOL    HW149735  14.756  10.014   0.557
82632SOL    HW249736  14.855   9.959   0.458
82633SOL     OW49737   8.693  10.605   5.036
82633SOL    HW149738   8.695  10.575   4.945
82633SOL    HW249739   8.607  10.648   5.045
82634SOL     OW49740  12.628  12.029  11.583
82634SOL    HW149741  12.719  12.049  11.560
82634SOL    HW249742  12.625  12.036  11.678
82635SOL     OW49743  11.854   4.650  10.246
82635SOL    HW149744  11.761   4.669  10.229
82635SOL    HW249745  11.853   4.598  10.327
82636SOL     OW49746  11.415   6.743   1.677
82636SOL    HW149747  11.423   6.788   1.761
82636SOL    HW249748  11.406   6.814   1.613
82637SOL     OW49749   2.397   1.124  14.171
82637SOL    HW149750   2.454   1.160  14.239
82637SOL    HW249751   2.457   1.090  14.105
82638SOL     OW49752   7.274  12.671   4.001
82638SOL    HW149753   7.357  12.713   4.025
82638SOL    HW249754   7.248  12.623   4.080
82639SOL     OW49755   3.294   0.289   5.232
82639SOL    HW149756   3.368   0.348   5.216
82639SOL    HW249757   3.329   0.222   5.290
82640SOL     OW49758   3.849   0.386   5.989
82640SOL    HW149759   3.754   0.395   5.996
82640SOL    HW249760   3.864   0.357   5.899
82641SOL     OW49761  13.397   2.910   6.876
82641SOL    HW149762  13.358   2.851   6.811
82641SOL    HW249763  13.489   2.887   6.878
82642SOL     OW49764  10.512  12.537  13.550
82642SOL    HW149765  10.527  12.625  13.586
82642SOL    HW249766  10.418  12.535  13.530
82643SOL     OW49767   1.120  10.352   2.794
82643SOL    HW149768   1.093  10.324   2.707
82643SOL    HW249769   1.160  10.274   2.833
82644SOL     OW49770   3.235  10.804   3.770
82644SOL    HW149771   3.189  10.728   3.734
82644SOL    HW249772   3.318  10.769   3.803
82645SOL     OW49773   8.374   3.888   3.488
82645SOL    HW149774   8.434   3.943   3.438
82645SOL    HW249775   8.290   3.900   3.444
82646SOL     OW49776   4.821   9.938   2.204
82646SOL    HW149777   4.831   9.984   2.287
82646SOL    HW249778   4.908   9.942   2.164
82647SOL     OW49779   3.741   8.198   4.884
82647SOL    HW149780   3.788   8.124   4.924
82647SOL    HW249781   3.738   8.176   4.791
82648SOL     OW49782   0.721  10.204  12.889
82648SOL    HW149783   0.749  10.287  12.849
82648SOL    HW249784   0.759  10.206  12.977
82649SOL     OW49785   8.518  11.392   8.685
82649SOL    HW149786   8.435  11.435   8.662
82649SOL    HW249787   8.567  11.388   8.603
82650SOL     OW49788   7.512   2.865   7.070
82650SOL    HW149789   7.545   2.866   7.159
82650SOL    HW249790   7.454   2.941   7.065
82651SOL     OW49791  12.443  10.018   8.617
82651SOL    HW149792  12.530  10.014   8.657
82651SOL    HW249793  12.390   9.957   8.668
82652SOL     OW49794   4.494   6.566   9.431
82652SOL    HW149795   4.525   6.632   9.368
82652SOL    HW249796   4.515   6.482   9.390
82653SOL     OW49797   1.738   0.717   5.438
82653SOL    HW149798   1.708   0.731   5.349
82653SOL    HW249799   1.709   0.795   5.486
82654SOL     OW49800   5.148   1.540   5.857
82654SOL    HW149801   5.149   1.604   5.929
82654SOL    HW249802   5.137   1.455   5.901
82655SOL     OW49803   6.554   7.742   6.428
82655SOL    HW149804   6.587   7.761   6.515
82655SOL    HW249805   6.504   7.661   6.438
82656SOL     OW49806   2.497   5.246   3.458
82656SOL    HW149807   2.505   5.238   3.553
82656SOL    HW249808   2.555   5.179   3.423
82657SOL     OW49809  11.185   2.456  14.242
82657SOL    HW149810  11.142   2.542  14.244
82657SOL    HW249811  11.278   2.476  14.254
82658SOL     OW49812  12.210   7.475   5.057
82658SOL    HW149813  12.294   7.510   5.027
82658SOL    HW249814  12.228   7.382   5.074
82659SOL     OW49815  14.673   0.654   5.417
82659SOL    HW149816  14.734   0.583   5.437
82659SOL    HW249817  14.727   0.734   5.423
82660SOL     OW49818  10.634   0.790  13.904
82660SOL    HW149819  10.579   0.861  13.869
82660SOL    HW249820  10.699   0.835  13.958
82661SOL     OW49821   0.027   6.026   2.255
82661SOL    HW149822   0.123   6.024   2.249
82661SOL    HW249823  14.873   5.939   2.225
82662SOL     OW49824  13.415   1.545   2.269
82662SOL    HW149825  13.471   1.622   2.254
82662SOL    HW249826  13.398   1.510   2.181
82663SOL     OW49827   9.532   2.512   7.889
82663SOL    HW149828   9.532   2.602   7.857
82663SOL    HW249829   9.440   2.491   7.903
82664SOL     OW49830   6.508   0.599  10.129
82664SOL    HW149831   6.456   0.668  10.171
82664SOL    HW249832   6.589   0.642  10.103
82665SOL     OW49833  14.547   9.533  10.424
82665SOL    HW149834  14.559   9.500  10.336
82665SOL    HW249835  14.513   9.621  10.412
82666SOL     OW49836   8.021   8.291   5.748
82666SOL    HW149837   7.988   8.244   5.824
82666SOL    HW249838   8.113   8.266   5.742
82667SOL     OW49839   5.975   9.649  10.788
82667SOL    HW149840   6.027   9.690  10.858
82667SOL    HW249841   5.991   9.704  10.711
82668SOL     OW49842   6.957   8.065   2.057
82668SOL    HW149843   6.923   8.153   2.039
82668SOL    HW249844   7.050   8.079   2.074
82669SOL     OW49845   4.303   3.989  12.218
82669SOL    HW149846   4.260   4.069  12.247
82669SOL    HW249847   4.244   3.952  12.152
82670SOL     OW49848   9.370   3.406   3.978
82670SOL    HW149849   9.388   3.455   3.898
82670SOL    HW249850   9.292   3.447   4.015
82671SOL     OW49851   0.232   4.637   8.939
82671SOL    HW149852   0.222   4.691   9.017
82671SOL    HW249853   0.326   4.615   8.937
82672SOL     OW49854   8.203   0.013  12.668
82672SOL    HW149855   8.273   0.040  12.728
82672SOL    HW249856   8.231  14.800  12.636
82673SOL     OW49857   4.016   7.580   0.583
82673SOL    HW149858   3.946   7.517   0.566
82673SOL    HW249859   3.982   7.636   0.653
82674SOL     OW49860  14.419   9.418   7.783
82674SOL    HW149861  14.495   9.463   7.821
82674SOL    HW249862  14.387   9.479   7.716
82675SOL     OW49863  14.396   7.604   4.175
82675SOL    HW149864  14.308   7.639   4.164
82675SOL    HW249865  14.435   7.657   4.244
82676SOL     OW49866  12.266   5.405   9.166
82676SOL    HW149867  12.202   5.403   9.094
82676SOL    HW249868  12.287   5.313   9.182
82677SOL     OW49869   7.688  13.000   6.295
82677SOL    HW149870   7.741  12.980   6.218
82677SOL    HW249871   7.749  13.000   6.368
82678SOL     OW49872   9.261   1.032   7.341
82678SOL    HW149873   9.203   1.101   7.373
82678SOL    HW249874   9.217   0.950   7.366
82679SOL     OW49875   9.082   5.006   8.469
82679SOL    HW149876   9.007   5.057   8.437
82679SOL    HW249877   9.115   4.961   8.390
82680SOL     OW49878   3.588   7.904   3.389
82680SOL    HW149879   3.554   7.816   3.376
82680SOL    HW249880   3.556   7.953   3.313
82681SOL     OW49881  13.741  13.836   4.227
82681SOL    HW149882  13.683  13.787   4.168
82681SOL    HW249883  13.695  13.918   4.243
82682SOL     OW49884   7.178   5.931  14.738
82682SOL    HW149885   7.105   5.871  14.722
82682SOL    HW249886   7.256   5.879  14.719
82683SOL     OW49887   7.770   4.506   6.494
82683SOL    HW149888   7.703   4.575   6.496
82683SOL    HW249889   7.785   4.485   6.586
82684SOL     OW49890  10.821   5.109   4.316
82684SOL    HW149891  10.862   5.098   4.230
82684SOL    HW249892  10.796   5.021   4.342
82685SOL     OW49893  12.558   5.588  11.785
82685SOL    HW149894  12.479   5.535  11.792
82685SOL    HW249895  12.609   5.547  11.715
82686SOL     OW49896   9.176   6.893  13.613
82686SOL    HW149897   9.081   6.907  13.615
82686SOL    HW249898   9.210   6.949  13.683
82687SOL     OW49899  14.513   2.737  13.265
82687SOL    HW149900  14.551   2.661  13.310
82687SOL    HW249901  14.419   2.717  13.260
82688SOL     OW49902   7.683   8.552   0.887
82688SOL    HW149903   7.749   8.486   0.905
82688SOL    HW249904   7.600   8.504   0.889
82689SOL     OW49905   4.467   8.885  11.588
82689SOL    HW149906   4.438   8.904  11.499
82689SOL    HW249907   4.399   8.922  11.644
82690SOL     OW49908  11.185   5.413  10.022
82690SOL    HW149909  11.185   5.433   9.928
82690SOL    HW249910  11.266   5.454  10.054
82691SOL     OW49911   0.873   9.915   0.462
82691SOL    HW149912   0.786   9.886   0.434
82691SOL    HW249913   0.904   9.972   0.392
82692SOL     OW49914  13.787   6.210   6.864
82692SOL    HW149915  13.831   6.127   6.883
82692SOL    HW249916  13.781   6.255   6.948
82693SOL     OW49917  11.832  11.298   9.967
82693SOL    HW149918  11.820  11.298  10.062
82693SOL    HW249919  11.793  11.381   9.938
82694SOL     OW49920  10.652   6.409  11.769
82694SOL    HW149921  10.573   6.411  11.716
82694SOL    HW249922  10.624   6.379  11.855
82695SOL     OW49923   0.370  14.850   9.184
82695SOL    HW149924   0.317   0.022   9.117
82695SOL    HW249925   0.350  14.757   9.170
82696SOL     OW49926   4.019  10.720   1.276
82696SOL    HW149927   3.994  10.725   1.368
82696SOL    HW249928   4.082  10.648   1.271
82697SOL     OW49929  10.352   0.817  11.658
82697SOL    HW149930  10.396   0.859  11.584
82697SOL    HW249931  10.263   0.801  11.627
82698SOL     OW49932   7.887  12.430  14.771
82698SOL    HW149933   7.900  12.525  14.765
82698SOL    HW249934   7.812  12.413  14.715
82699SOL     OW49935   6.256   4.236   8.294
82699SOL    HW149936   6.344   4.268   8.314
82699SOL    HW249937   6.199   4.278   8.358
82700SOL     OW49938  11.081   2.482   1.263
82700SOL    HW149939  11.064   2.416   1.331
82700SOL    HW249940  11.162   2.525   1.292
82701SOL     OW49941   8.143   0.098  12.122
82701SOL    HW149942   8.187   0.125  12.041
82701SOL    HW249943   8.088   0.024  12.096
82702SOL     OW49944  12.464  13.928  11.801
82702SOL    HW149945  12.504  13.941  11.887
82702SOL    HW249946  12.426  14.013  11.779
82703SOL     OW49947   0.798   3.603   2.633
82703SOL    HW149948   0.850   3.559   2.566
82703SOL    HW249949   0.818   3.555   2.714
82704SOL     OW49950   2.500   7.430   6.340
82704SOL    HW149951   2.406   7.419   6.350
82704SOL    HW249952   2.538   7.358   6.390
82705SOL     OW49953   9.043  12.845   6.843
82705SOL    HW149954   9.056  12.828   6.750
82705SOL    HW249955   9.106  12.789   6.888
82706SOL     OW49956   1.637   5.862   9.068
82706SOL    HW149957   1.586   5.872   8.988
82706SOL    HW249958   1.712   5.921   9.056
82707SOL     OW49959   9.059  13.756   4.771
82707SOL    HW149960   9.125  13.698   4.810
82707SOL    HW249961   9.106  13.836   4.750
82708SOL     OW49962   1.379  14.046   5.022
82708SOL    HW149963   1.319  14.110   5.059
82708SOL    HW249964   1.338  14.017   4.941
82709SOL     OW49965   1.265   5.372  11.588
82709SOL    HW149966   1.327   5.442  11.569
82709SOL    HW249967   1.318   5.304  11.629
82710SOL     OW49968   2.227   9.647   5.094
82710SOL    HW149969   2.162   9.703   5.136
82710SOL    HW249970   2.176   9.575   5.057
82711SOL     OW49971  13.781   0.404   9.233
82711SOL    HW149972  13.854   0.412   9.172
82711SOL    HW249973  13.778   0.488   9.278
82712SOL     OW49974   9.039   1.176   9.441
82712SOL    HW149975   8.949   1.147   9.458
82712SOL    HW249976   9.057   1.238   9.512
82713SOL     OW49977   2.283   5.898   5.089
82713SOL    HW149978   2.348   5.888   5.020
82713SOL    HW249979   2.334   5.915   5.168
82714SOL     OW49980   8.662  10.644  10.903
82714SOL    HW149981   8.632  10.562  10.942
82714SOL    HW249982   8.754  10.651  10.927
82715SOL     OW49983   8.530   9.905   7.249
82715SOL    HW149984   8.525   9.911   7.344
82715SOL    HW249985   8.445   9.934   7.218
82716SOL     OW49986  10.107  13.410  12.770
82716SOL    HW149987  10.094  13.317  12.754
82716SOL    HW249988  10.187  13.414  12.823
82717SOL     OW49989  11.056   1.221   9.117
82717SOL    HW149990  11.065   1.126   9.117
82717SOL    HW249991  11.138   1.253   9.078
82718SOL     OW49992   8.746  10.059  13.037
82718SOL    HW149993   8.793   9.987  12.996
82718SOL    HW249994   8.796  10.137  13.014
82719SOL     OW49995   5.007   7.824   7.556
82719SOL    HW149996   5.038   7.810   7.645
82719SOL    HW249997   5.080   7.797   7.500
82720SOL     OW49998   4.598  13.834   9.425
82720SOL    HW149999   4.600  13.808   9.333
82720SOL    HW250000   4.506  13.826   9.451
82721SOL     OW50001   7.832   1.020  10.802
82721SOL    HW150002   7.809   1.112  10.818
82721SOL    HW250003   7.844   0.982  10.889
82722SOL     OW50004   5.540   9.907   2.658
82722SOL    HW150005   5.480   9.833   2.655
82722SOL    HW250006   5.536   9.938   2.748
82723SOL     OW50007   9.918  14.031  10.449
82723SOL    HW150008  10.000  14.067  10.417
82723SOL    HW250009   9.944  13.966  10.514
82724SOL     OW50010  11.803   0.742   9.906
82724SOL    HW150011  11.731   0.802   9.886
82724SOL    HW250012  11.803   0.734  10.002
82725SOL     OW50013   8.468  13.549   6.910
82725SOL    HW150014   8.410  13.508   6.847
82725SOL    HW250015   8.550  13.501   6.902
82726SOL     OW50016  13.786  11.858   3.939
82726SOL    HW150017  13.812  11.787   3.998
82726SOL    HW250018  13.753  11.926   3.997
82727SOL     OW50019   5.549  11.783   9.304
82727SOL    HW150020   5.572  11.694   9.331
82727SOL    HW250021   5.454  11.785   9.304
82728SOL     OW50022  10.412  11.004  12.703
82728SOL    HW150023  10.416  10.910  12.717
82728SOL    HW250024  10.328  11.018  12.658
82729SOL     OW50025   0.110  12.734  14.054
82729SOL    HW150026   0.068  12.819  14.067
82729SOL    HW250027   0.040  12.677  14.022
82730SOL     OW50028   9.567   5.336   5.836
82730SOL    HW150029   9.600   5.349   5.747
82730SOL    HW250030   9.638   5.366   5.893
82731SOL     OW50031  13.919   5.770   1.296
82731SOL    HW150032  13.977   5.767   1.220
82731SOL    HW250033  13.908   5.678   1.321
82732SOL     OW50034  12.941   3.187   5.849
82732SOL    HW150035  12.980   3.108   5.812
82732SOL    HW250036  12.993   3.259   5.813
82733SOL     OW50037   0.235   0.816  10.942
82733SOL    HW150038   0.247   0.736  10.992
82733SOL    HW250039   0.196   0.787  10.860
82734SOL     OW50040  13.477  11.275  10.113
82734SOL    HW150041  13.521  11.209  10.166
82734SOL    HW250042  13.457  11.230  10.031
82735SOL     OW50043   6.809  10.616   4.164
82735SOL    HW150044   6.844  10.544   4.113
82735SOL    HW250045   6.805  10.689   4.102
82736SOL     OW50046  11.941  12.266  12.922
82736SOL    HW150047  11.904  12.335  12.978
82736SOL    HW250048  12.027  12.299  12.898
82737SOL     OW50049  13.171   2.053  10.262
82737SOL    HW150050  13.139   2.055  10.352
82737SOL    HW250051  13.239   2.120  10.259
82738SOL     OW50052   3.706   7.217   7.186
82738SOL    HW150053   3.756   7.137   7.173
82738SOL    HW250054   3.746   7.259   7.262
82739SOL     OW50055   9.372   6.628   4.794
82739SOL    HW150056   9.437   6.572   4.835
82739SOL    HW250057   9.368   6.598   4.703
82740SOL     OW50058   4.117  14.261  12.771
82740SOL    HW150059   4.053  14.195  12.744
82740SOL    HW250060   4.135  14.311  12.692
82741SOL     OW50061   2.124  10.566   3.365
82741SOL    HW150062   2.037  10.607   3.372
82741SOL    HW250063   2.110  10.493   3.304
82742SOL     OW50064   9.837  14.144   1.512
82742SOL    HW150065   9.886  14.181   1.585
82742SOL    HW250066   9.796  14.065   1.549
82743SOL     OW50067  10.360  12.724   2.554
82743SOL    HW150068  10.367  12.629   2.543
82743SOL    HW250069  10.298  12.751   2.486
82744SOL     OW50070   0.649   8.108   4.965
82744SOL    HW150071   0.588   8.038   4.989
82744SOL    HW250072   0.658   8.101   4.870
82745SOL     OW50073   9.708   8.769   3.140
82745SOL    HW150074   9.759   8.758   3.059
82745SOL    HW250075   9.695   8.864   3.147
82746SOL     OW50076  13.480   7.091   6.921
82746SOL    HW150077  13.515   7.119   7.005
82746SOL    HW250078  13.385   7.090   6.934
82747SOL     OW50079   9.749  10.656   3.574
82747SOL    HW150080   9.661  10.649   3.538
82747SOL    HW250081   9.740  10.714   3.650
82748SOL     OW50082  13.725   0.358   3.105
82748SOL    HW150083  13.806   0.405   3.127
82748SOL    HW250084  13.677   0.419   3.049
82749SOL     OW50085  10.542  13.512  12.611
82749SOL    HW150086  10.489  13.549  12.681
82749SOL    HW250087  10.619  13.477  12.656
82750SOL     OW50088   4.459   9.138  11.036
82750SOL    HW150089   4.460   9.050  11.073
82750SOL    HW250090   4.375   9.143  10.990
82751SOL     OW50091   8.449   9.467  13.700
82751SOL    HW150092   8.379   9.482  13.636
82751SOL    HW250093   8.529   9.468  13.648
82752SOL     OW50094   2.393   8.772  10.246
82752SOL    HW150095   2.368   8.704  10.309
82752SOL    HW250096   2.320   8.834  10.248
82753SOL     OW50097   4.494   7.116   8.109
82753SOL    HW150098   4.402   7.122   8.083
82753SOL    HW250099   4.529   7.204   8.095
82754SOL     OW50100   5.778   0.020   6.552
82754SOL    HW150101   5.773  14.801   6.527
82754SOL    HW250102   5.840   0.058   6.490
82755SOL     OW50103   8.111   4.150   9.501
82755SOL    HW150104   8.169   4.148   9.426
82755SOL    HW250105   8.123   4.238   9.538
82756SOL     OW50106   4.510  12.495   8.445
82756SOL    HW150107   4.546  12.418   8.399
82756SOL    HW250108   4.547  12.490   8.533
82757SOL     OW50109  14.226   3.355   5.943
82757SOL    HW150110  14.206   3.339   5.851
82757SOL    HW250111  14.142   3.344   5.988
82758SOL     OW50112   2.466  11.085  11.672
82758SOL    HW150113   2.517  11.081  11.591
82758SOL    HW250114   2.400  11.017  11.662
82759SOL     OW50115   8.445  10.677  13.372
82759SOL    HW150116   8.470  10.687  13.464
82759SOL    HW250117   8.386  10.602  13.372
82760SOL     OW50118   1.229   9.624   2.168
82760SOL    HW150119   1.237   9.715   2.139
82760SOL    HW250120   1.146   9.594   2.131
82761SOL     OW50121  12.710  14.387   8.042
82761SOL    HW150122  12.686  14.303   8.081
82761SOL    HW250123  12.675  14.382   7.953
82762SOL     OW50124   5.126   9.650  12.697
82762SOL    HW150125   5.072   9.683  12.769
82762SOL    HW250126   5.085   9.567  12.673
82763SOL     OW50127   5.935  11.344  10.866
82763SOL    HW150128   5.865  11.318  10.927
82763SOL    HW250129   5.993  11.268  10.863
82764SOL     OW50130   8.388   3.958   4.469
82764SOL    HW150131   8.444   4.010   4.527
82764SOL    HW250132   8.325   4.021   4.433
82765SOL     OW50133  14.414   8.373   2.911
82765SOL    HW150134  14.366   8.426   2.848
82765SOL    HW250135  14.388   8.283   2.893
82766SOL     OW50136   3.036   1.023  10.755
82766SOL    HW150137   2.977   0.991  10.687
82766SOL    HW250138   3.068   1.107  10.722
82767SOL     OW50139   8.139   1.818   9.139
82767SOL    HW150140   8.104   1.886   9.081
82767SOL    HW250141   8.062   1.779   9.181
82768SOL     OW50142  11.333   4.117   4.094
82768SOL    HW150143  11.396   4.090   4.161
82768SOL    HW250144  11.249   4.116   4.140
82769SOL     OW50145   1.756  12.397   3.109
82769SOL    HW150146   1.813  12.471   3.129
82769SOL    HW250147   1.809  12.319   3.127
82770SOL     OW50148   0.636  12.422   8.922
82770SOL    HW150149   0.694  12.477   8.975
82770SOL    HW250150   0.592  12.366   8.985
82771SOL     OW50151   5.758   3.531  12.737
82771SOL    HW150152   5.670   3.552  12.769
82771SOL    HW250153   5.764   3.436  12.744
82772SOL     OW50154   8.784  13.752   3.995
82772SOL    HW150155   8.812  13.663   4.015
82772SOL    HW250156   8.693  13.743   3.966
82773SOL     OW50157  13.740   2.020   9.210
82773SOL    HW150158  13.789   1.983   9.136
82773SOL    HW250159  13.672   2.074   9.169
82774SOL     OW50160   4.451   1.230   2.697
82774SOL    HW150161   4.495   1.300   2.745
82774SOL    HW250162   4.383   1.199   2.757
82775SOL     OW50163   4.917   2.359   0.871
82775SOL    HW150164   4.853   2.319   0.930
82775SOL    HW250165   4.965   2.284   0.835
82776SOL     OW50166   8.158  14.358   3.275
82776SOL    HW150167   8.220  14.417   3.318
82776SOL    HW250168   8.109  14.319   3.348
82777SOL     OW50169  11.421  10.872   7.853
82777SOL    HW150170  11.441  10.853   7.762
82777SOL    HW250171  11.434  10.788   7.898
82778SOL     OW50172  10.093   8.243   1.685
82778SOL    HW150173  10.010   8.224   1.727
82778SOL    HW250174  10.070   8.298   1.610
82779SOL     OW50175   9.380  12.580   6.191
82779SOL    HW150176   9.443  12.636   6.145
82779SOL    HW250177   9.432  12.509   6.228
82780SOL     OW50178   8.890  14.449   4.363
82780SOL    HW150179   8.907  14.516   4.429
82780SOL    HW250180   8.964  14.389   4.370
82781SOL     OW50181   1.216   5.526  13.486
82781SOL    HW150182   1.289   5.464  13.478
82781SOL    HW250183   1.259   5.610  13.503
82782SOL     OW50184   1.292   2.600  12.126
82782SOL    HW150185   1.292   2.651  12.045
82782SOL    HW250186   1.255   2.515  12.102
82783SOL     OW50187   4.688   8.973  13.018
82783SOL    HW150188   4.759   8.984  12.955
82783SOL    HW250189   4.725   8.919  13.088
82784SOL     OW50190  14.239   7.215  14.196
82784SOL    HW150191  14.256   7.121  14.206
82784SOL    HW250192  14.156   7.219  14.147
82785SOL     OW50193  10.791   2.068   8.107
82785SOL    HW150194  10.806   2.159   8.082
82785SOL    HW250195  10.870   2.022   8.080
82786SOL     OW50196   2.374  10.673   0.986
82786SOL    HW150197   2.418  10.718   1.058
82786SOL    HW250198   2.445  10.645   0.928
82787SOL     OW50199  11.793   0.130  13.778
82787SOL    HW150200  11.787   0.076  13.699
82787SOL    HW250201  11.879   0.172  13.773
82788SOL     OW50202  11.794  14.254   1.601
82788SOL    HW150203  11.746  14.335   1.616
82788SOL    HW250204  11.768  14.197   1.673
82789SOL     OW50205   0.847   8.976  13.466
82789SOL    HW150206   0.760   8.946  13.492
82789SOL    HW250207   0.831   9.043  13.400
82790SOL     OW50208  10.014   2.991   8.884
82790SOL    HW150209   9.978   3.012   8.798
82790SOL    HW250210  10.004   2.896   8.891
82791SOL     OW50211  10.729   2.180   4.329
82791SOL    HW150212  10.710   2.266   4.290
82791SOL    HW250213  10.791   2.139   4.269
82792SOL     OW50214  13.736  13.063  11.723
82792SOL    HW150215  13.698  13.071  11.810
82792SOL    HW250216  13.661  13.051  11.665
82793SOL     OW50217  14.068   4.316  13.635
82793SOL    HW150218  14.088   4.278  13.550
82793SOL    HW250219  14.153   4.322  13.679
82794SOL     OW50220  10.005   3.092   2.395
82794SOL    HW150221   9.941   3.161   2.418
82794SOL    HW250222   9.998   3.029   2.467
82795SOL     OW50223  14.537   9.760   6.346
82795SOL    HW150224  14.486   9.840   6.359
82795SOL    HW250225  14.518   9.734   6.256
82796SOL     OW50226   0.387  13.776   9.753
82796SOL    HW150227   0.331  13.772   9.831
82796SOL    HW250228   0.360  13.857   9.709
82797SOL     OW50229   3.350  12.949   4.678
82797SOL    HW150230   3.373  12.982   4.765
82797SOL    HW250231   3.325  12.858   4.693
82798SOL     OW50232  11.592  13.011  13.387
82798SOL    HW150233  11.540  12.985  13.463
82798SOL    HW250234  11.671  12.957  13.392
82799SOL     OW50235  10.401   5.538   0.901
82799SOL    HW150236  10.369   5.535   0.811
82799SOL    HW250237  10.394   5.631   0.925
82800SOL     OW50238   6.282   1.990   6.431
82800SOL    HW150239   6.227   1.972   6.355
82800SOL    HW250240   6.321   2.076   6.412
82801SOL     OW50241   3.746  13.281   6.990
82801SOL    HW150242   3.773  13.347   6.925
82801SOL    HW250243   3.822  13.274   7.048
82802SOL     OW50244  11.506   1.471   4.302
82802SOL    HW150245  11.454   1.453   4.381
82802SOL    HW250246  11.564   1.395   4.294
82803SOL     OW50247   8.541   2.254  12.447
82803SOL    HW150248   8.514   2.162  12.456
82803SOL    HW250249   8.460   2.301  12.429
82804SOL     OW50250   8.349   0.991   2.129
82804SOL    HW150251   8.414   1.059   2.110
82804SOL    HW250252   8.307   0.973   2.045
82805SOL     OW50253   0.965   6.318  13.701
82805SOL    HW150254   0.996   6.392  13.648
82805SOL    HW250255   0.888   6.352  13.747
82806SOL     OW50256   6.284   1.937   2.089
82806SOL    HW150257   6.263   1.940   1.995
82806SOL    HW250258   6.216   1.880   2.126
82807SOL     OW50259  10.625  10.178  13.589
82807SOL    HW150260  10.710  10.219  13.604
82807SOL    HW250261  10.579  10.238  13.531
82808SOL     OW50262   2.977   5.703   0.249
82808SOL    HW150263   2.985   5.676   0.341
82808SOL    HW250264   2.951   5.795   0.254
82809SOL     OW50265   4.627   8.340   0.371
82809SOL    HW150266   4.697   8.404   0.389
82809SOL    HW250267   4.641   8.315   0.279
82810SOL     OW50268   5.521   0.372   1.417
82810SOL    HW150269   5.594   0.330   1.462
82810SOL    HW250270   5.547   0.374   1.325
82811SOL     OW50271  14.677   3.815   6.742
82811SOL    HW150272  14.691   3.721   6.755
82811SOL    HW250273  14.586   3.822   6.713
82812SOL     OW50274   2.062   7.731   1.437
82812SOL    HW150275   2.156   7.746   1.427
82812SOL    HW250276   2.050   7.714   1.530
82813SOL     OW50277   5.620   4.904   8.465
82813SOL    HW150278   5.590   4.937   8.549
82813SOL    HW250279   5.583   4.816   8.459
82814SOL     OW50280  14.067   0.317  12.217
82814SOL    HW150281  14.055   0.396  12.164
82814SOL    HW250282  14.156   0.288  12.197
82815SOL     OW50283   4.384   8.569  11.031
82815SOL    HW150284   4.348   8.650  10.996
82815SOL    HW250285   4.469   8.595  11.069
82816SOL     OW50286  11.904   3.025  13.895
82816SOL    HW150287  11.994   3.055  13.888
82816SOL    HW250288  11.851   3.105  13.896
82817SOL     OW50289   9.111  12.491   2.249
82817SOL    HW150290   9.155  12.576   2.259
82817SOL    HW250291   9.171  12.429   2.289
82818SOL     OW50292  13.654  12.311   3.691
82818SOL    HW150293  13.641  12.395   3.733
82818SOL    HW250294  13.596  12.251   3.738
82819SOL     OW50295   7.548   5.063   6.568
82819SOL    HW150296   7.641   5.086   6.572
82819SOL    HW250297   7.545   4.972   6.598
82820SOL     OW50298   4.617   0.640   9.731
82820SOL    HW150299   4.711   0.654   9.744
82820SOL    HW250300   4.598   0.560   9.780
82821SOL     OW50301   7.405   6.576   7.892
82821SOL    HW150302   7.421   6.645   7.827
82821SOL    HW250303   7.444   6.609   7.972
82822SOL     OW50304   1.866  10.936   0.508
82822SOL    HW150305   1.916  10.950   0.428
82822SOL    HW250306   1.789  10.992   0.498
82823SOL     OW50307  10.916   1.968   6.867
82823SOL    HW150308  10.889   1.876   6.875
82823SOL    HW250309  10.867   2.000   6.791
82824SOL     OW50310   7.532   8.313   0.344
82824SOL    HW150311   7.559   8.222   0.332
82824SOL    HW250312   7.550   8.332   0.436
82825SOL     OW50313   0.488  14.852  13.391
82825SOL    HW150314   0.544  14.776  13.376
82825SOL    HW250315   0.399  14.818  13.384
82826SOL     OW50316   9.128   2.003   6.108
82826SOL    HW150317   9.179   1.964   6.037
82826SOL    HW250318   9.074   1.932   6.142
82827SOL     OW50319   0.744   4.365   5.850
82827SOL    HW150320   0.761   4.414   5.930
82827SOL    HW250321   0.754   4.430   5.780
82828SOL     OW50322   7.904  11.272   5.008
82828SOL    HW150323   7.910  11.194   4.953
82828SOL    HW250324   7.892  11.345   4.946
82829SOL     OW50325   1.348  10.942  11.181
82829SOL    HW150326   1.410  10.969  11.113
82829SOL    HW250327   1.263  10.942  11.137
82830SOL     OW50328  11.475   4.377   9.815
82830SOL    HW150329  11.470   4.291   9.858
82830SOL    HW250330  11.520   4.433   9.878
82831SOL     OW50331   3.016   7.754   4.440
82831SOL    HW150332   2.948   7.820   4.455
82831SOL    HW250333   3.020   7.744   4.345
82832SOL     OW50334  12.517   2.102  14.218
82832SOL    HW150335  12.464   2.145  14.286
82832SOL    HW250336  12.461   2.102  14.140
82833SOL     OW50337   0.061  14.303  14.364
82833SOL    HW150338   0.037  14.297  14.271
82833SOL    HW250339   0.083  14.213  14.388
82834SOL     OW50340   5.604   8.679   4.247
82834SOL    HW150341   5.601   8.729   4.329
82834SOL    HW250342   5.651   8.599   4.270
82835SOL     OW50343   6.073   1.445   0.290
82835SOL    HW150344   6.012   1.380   0.256
82835SOL    HW250345   6.116   1.402   0.364
82836SOL     OW50346   0.196   6.605   1.179
82836SOL    HW150347   0.198   6.572   1.269
82836SOL    HW250348   0.105   6.628   1.164
82837SOL     OW50349   0.972  10.402  10.331
82837SOL    HW150350   0.967  10.378  10.423
82837SOL    HW250351   0.913  10.342  10.287
82838SOL     OW50352   1.036   3.932   7.280
82838SOL    HW150353   1.002   3.906   7.366
82838SOL    HW250354   0.985   3.881   7.217
82839SOL     OW50355  12.521   9.338  14.502
82839SOL    HW150356  12.516   9.246  14.477
82839SOL    HW250357  12.431   9.363  14.520
82840SOL     OW50358  14.671   0.851   7.844
82840SOL    HW150359  14.705   0.939   7.862
82840SOL    HW250360  14.737   0.811   7.788
82841SOL     OW50361   2.498   7.973   7.528
82841SOL    HW150362   2.551   7.922   7.468
82841SOL    HW250363   2.554   7.989   7.604
82842SOL     OW50364   8.981   6.399   2.231
82842SOL    HW150365   8.897   6.364   2.200
82842SOL    HW250366   9.042   6.385   2.159
82843SOL     OW50367  12.092   7.332   5.771
82843SOL    HW150368  12.144   7.401   5.730
82843SOL    HW250369  12.150   7.295   5.838
82844SOL     OW50370   9.499   3.124  13.348
82844SOL    HW150371   9.424   3.152  13.400
82844SOL    HW250372   9.481   3.158  13.260
82845SOL     OW50373   7.842   2.152  13.738
82845SOL    HW150374   7.858   2.246  13.745
82845SOL    HW250375   7.929   2.112  13.747
82846SOL     OW50376   8.902   9.183   9.718
82846SOL    HW150377   8.834   9.249   9.701
82846SOL    HW250378   8.981   9.233   9.734
82847SOL     OW50379   5.826   6.119  11.180
82847SOL    HW150380   5.859   6.091  11.265
82847SOL    HW250381   5.743   6.162  11.200
82848SOL     OW50382   3.247   4.988  12.391
82848SOL    HW150383   3.153   5.006  12.402
82848SOL    HW250384   3.288   5.024  12.469
82849SOL     OW50385  10.207   7.784   0.874
82849SOL    HW150386  10.216   7.736   0.792
82849SOL    HW250387  10.161   7.724   0.932
82850SOL     OW50388   7.975  13.551  10.344
82850SOL    HW150389   8.051  13.493  10.343
82850SOL    HW250390   8.005  13.631  10.301
82851SOL     OW50391  14.524   5.029  10.946
82851SOL    HW150392  14.511   4.969  10.872
82851SOL    HW250393  14.447   5.085  10.945
82852SOL     OW50394  12.808  14.858   0.074
82852SOL    HW150395  12.846  14.774   0.099
82852SOL    HW250396  12.841   0.001  14.858
82853SOL     OW50397   6.256   8.125   0.901
82853SOL    HW150398   6.337   8.095   0.860
82853SOL    HW250399   6.197   8.051   0.894
82854SOL     OW50400   9.840   8.718   7.720
82854SOL    HW150401   9.857   8.654   7.788
82854SOL    HW250402   9.875   8.678   7.640
82855SOL     OW50403  14.775   5.998  12.584
82855SOL    HW150404  14.760   5.973  12.493
82855SOL    HW250405  14.802   5.918  12.627
82856SOL     OW50406  13.182   8.165  11.602
82856SOL    HW150407  13.201   8.118  11.521
82856SOL    HW250408  13.265   8.165  11.650
82857SOL     OW50409   5.706  11.335   7.738
82857SOL    HW150410   5.740  11.302   7.822
82857SOL    HW250411   5.613  11.313   7.739
82858SOL     OW50412   6.478  11.280  13.777
82858SOL    HW150413   6.462  11.294  13.684
82858SOL    HW250414   6.410  11.218  13.804
82859SOL     OW50415  11.764   8.974  12.484
82859SOL    HW150416  11.750   8.880  12.499
82859SOL    HW250417  11.814   9.003  12.560
82860SOL     OW50418   1.197   3.038   5.008
82860SOL    HW150419   1.175   3.103   5.075
82860SOL    HW250420   1.149   2.959   5.035
82861SOL     OW50421  13.768   6.879  12.714
82861SOL    HW150422  13.694   6.930  12.683
82861SOL    HW250423  13.736   6.834  12.792
82862SOL     OW50424   9.954   2.657  14.425
82862SOL    HW150425   9.944   2.732  14.365
82862SOL    HW250426  10.044   2.664  14.456
82863SOL     OW50427  12.890  12.453   5.453
82863SOL    HW150428  12.962  12.429   5.511
82863SOL    HW250429  12.929  12.454   5.366
82864SOL     OW50430  12.007  10.929   8.165
82864SOL    HW150431  11.954  10.868   8.113
82864SOL    HW250432  11.974  11.015   8.141
82865SOL     OW50433  13.206   6.814   2.373
82865SOL    HW150434  13.137   6.789   2.435
82865SOL    HW250435  13.261   6.736   2.366
82866SOL     OW50436   8.992   8.829   6.968
82866SOL    HW150437   9.048   8.875   6.905
82866SOL    HW250438   9.047   8.759   7.003
82867SOL     OW50439   9.516   1.957  14.493
82867SOL    HW150440   9.454   2.015  14.449
82867SOL    HW250441   9.602   1.997  14.477
82868SOL     OW50442   9.807   8.164   2.628
82868SOL    HW150443   9.894   8.131   2.652
82868SOL    HW250444   9.746   8.111   2.679
82869SOL     OW50445  13.685   9.999   0.686
82869SOL    HW150446  13.764   9.947   0.701
82869SOL    HW250447  13.622   9.935   0.651
82870SOL     OW50448   7.213  11.007  13.332
82870SOL    HW150449   7.148  10.951  13.289
82870SOL    HW250450   7.167  11.042  13.408
82871SOL     OW50451  11.020   8.611   4.794
82871SOL    HW150452  10.992   8.653   4.875
82871SOL    HW250453  11.088   8.669   4.759
82872SOL     OW50454  10.766   4.735   1.286
82872SOL    HW150455  10.814   4.816   1.302
82872SOL    HW250456  10.798   4.703   1.202
82873SOL     OW50457   7.645   6.957   2.327
82873SOL    HW150458   7.620   6.988   2.414
82873SOL    HW250459   7.740   6.945   2.332
82874SOL     OW50460  11.518   3.559   7.290
82874SOL    HW150461  11.496   3.495   7.223
82874SOL    HW250462  11.501   3.514   7.373
82875SOL     OW50463   6.149   3.543   3.198
82875SOL    HW150464   6.189   3.597   3.129
82875SOL    HW250465   6.205   3.558   3.275
82876SOL     OW50466  12.380   1.417   3.040
82876SOL    HW150467  12.392   1.339   2.986
82876SOL    HW250468  12.373   1.383   3.129
82877SOL     OW50469  11.512   9.296  11.477
82877SOL    HW150470  11.442   9.342  11.523
82877SOL    HW250471  11.467   9.227  11.427
82878SOL     OW50472   7.263   0.582   4.344
82878SOL    HW150473   7.298   0.506   4.391
82878SOL    HW250474   7.195   0.617   4.401
82879SOL     OW50475   6.012   6.381   8.983
82879SOL    HW150476   6.004   6.359   9.076
82879SOL    HW250477   6.061   6.308   8.946
82880SOL     OW50478  11.311  13.976   3.439
82880SOL    HW150479  11.401  14.000   3.458
82880SOL    HW250480  11.259  14.049   3.473
82881SOL     OW50481   1.146   3.965   5.765
82881SOL    HW150482   1.122   3.873   5.772
82881SOL    HW250483   1.075   4.005   5.714
82882SOL     OW50484   4.194   1.815  13.533
82882SOL    HW150485   4.182   1.904  13.567
82882SOL    HW250486   4.208   1.762  13.611
82883SOL     OW50487   9.834   7.067   7.294
82883SOL    HW150488   9.790   7.050   7.210
82883SOL    HW250489   9.854   7.161   7.291
82884SOL     OW50490   4.672   6.820   4.960
82884SOL    HW150491   4.659   6.767   4.881
82884SOL    HW250492   4.597   6.880   4.961
82885SOL     OW50493  12.485   0.559  12.882
82885SOL    HW150494  12.574   0.589  12.865
82885SOL    HW250495  12.431   0.613  12.824
82886SOL     OW50496  13.250   6.875  14.179
82886SOL    HW150497  13.273   6.782  14.175
82886SOL    HW250498  13.274   6.902  14.267
82887SOL     OW50499  10.181   5.534  13.314
82887SOL    HW150500  10.267   5.530  13.355
82887SOL    HW250501  10.197   5.516  13.222
82888SOL     OW50502   0.585  12.503   8.441
82888SOL    HW150503   0.552  12.570   8.502
82888SOL    HW250504   0.560  12.420   8.482
82889SOL     OW50505  13.098   8.472   0.166
82889SOL    HW150506  13.143   8.480   0.250
82889SOL    HW250507  13.153   8.411   0.116
82890SOL     OW50508   7.539  11.263   0.162
82890SOL    HW150509   7.516  11.228   0.076
82890SOL    HW250510   7.595  11.196   0.201
82891SOL     OW50511   8.717   8.315   5.775
82891SOL    HW150512   8.781   8.333   5.707
82891SOL    HW250513   8.643   8.373   5.755
82892SOL     OW50514   9.623  10.101   8.971
82892SOL    HW150515   9.623  10.008   8.947
82892SOL    HW250516   9.544  10.111   9.025
82893SOL     OW50517   4.360  14.688  13.030
82893SOL    HW150518   4.355  14.594  13.013
82893SOL    HW250519   4.395  14.694  13.119
82894SOL     OW50520   1.945   7.707   2.460
82894SOL    HW150521   1.897   7.660   2.528
82894SOL    HW250522   1.948   7.646   2.387
82895SOL     OW50523   1.896   4.217   8.455
82895SOL    HW150524   1.935   4.293   8.499
82895SOL    HW250525   1.870   4.249   8.369
82896SOL     OW50526  11.612   0.336   2.171
82896SOL    HW150527  11.673   0.337   2.097
82896SOL    HW250528  11.631   0.416   2.220
82897SOL     OW50529  10.412  14.064   4.071
82897SOL    HW150530  10.481  14.118   4.110
82897SOL    HW250531  10.332  14.093   4.115
82898SOL     OW50532   3.473   4.467  13.655
82898SOL    HW150533   3.433   4.541  13.610
82898SOL    HW250534   3.546   4.505  13.704
82899SOL     OW50535   5.901  11.818   6.435
82899SOL    HW150536   5.892  11.763   6.357
82899SOL    HW250537   5.943  11.898   6.403
82900SOL     OW50538   0.416   7.517   1.978
82900SOL    HW150539   0.353   7.449   1.955
82900SOL    HW250540   0.501   7.479   1.955
82901SOL     OW50541  13.428   0.084   7.394
82901SOL    HW150542  13.452   0.076   7.301
82901SOL    HW250543  13.479   0.159   7.425
82902SOL     OW50544   4.378  10.296   1.520
82902SOL    HW150545   4.285  10.318   1.514
82902SOL    HW250546   4.383  10.205   1.489
82903SOL     OW50547   4.384   3.742  11.712
82903SOL    HW150548   4.444   3.672  11.686
82903SOL    HW250549   4.425   3.783  11.788
82904SOL     OW50550  11.854   1.394   2.118
82904SOL    HW150551  11.763   1.393   2.089
82904SOL    HW250552  11.867   1.482   2.153
82905SOL     OW50553  13.185  13.677   7.854
82905SOL    HW150554  13.172  13.681   7.759
82905SOL    HW250555  13.266  13.627   7.865
82906SOL     OW50556   6.277   3.449  10.876
82906SOL    HW150557   6.312   3.363  10.901
82906SOL    HW250558   6.222   3.475  10.950
82907SOL     OW50559  13.080  13.188  11.388
82907SOL    HW150560  13.035  13.270  11.409
82907SOL    HW250561  13.012  13.121  11.396
82908SOL     OW50562   7.379   6.687   3.559
82908SOL    HW150563   7.305   6.734   3.598
82908SOL    HW250564   7.451   6.701   3.621
82909SOL     OW50565   0.527   5.618   6.367
82909SOL    HW150566   0.581   5.631   6.445
82909SOL    HW250567   0.464   5.690   6.369
82910SOL     OW50568   3.874   3.310   8.923
82910SOL    HW150569   3.837   3.384   8.971
82910SOL    HW250570   3.889   3.344   8.835
82911SOL     OW50571   4.261  12.375   4.597
82911SOL    HW150572   4.288  12.296   4.644
82911SOL    HW250573   4.286  12.359   4.506
82912SOL     OW50574   9.181   1.962  13.059
82912SOL    HW150575   9.235   1.913  12.997
82912SOL    HW250576   9.121   2.012  13.004
82913SOL     OW50577   3.452   4.594   3.750
82913SOL    HW150578   3.480   4.525   3.810
82913SOL    HW250579   3.367   4.622   3.784
82914SOL     OW50580   6.573  11.537   3.943
82914SOL    HW150581   6.660  11.508   3.914
82914SOL    HW250582   6.523  11.457   3.953
82915SOL     OW50583   2.052   6.745   5.381
82915SOL    HW150584   2.045   6.761   5.475
82915SOL    HW250585   2.071   6.652   5.374
82916SOL     OW50586   5.469   0.760   9.700
82916SOL    HW150587   5.436   0.812   9.627
82916SOL    HW250588   5.504   0.680   9.659
82917SOL     OW50589   1.900   2.604  14.644
82917SOL    HW150590   1.898   2.655  14.563
82917SOL    HW250591   1.975   2.641  14.692
82918SOL     OW50592  11.517   2.436   9.108
82918SOL    HW150593  11.541   2.500   9.175
82918SOL    HW250594  11.541   2.351   9.146
82919SOL     OW50595   2.932   3.800   9.608
82919SOL    HW150596   2.856   3.760   9.652
82919SOL    HW250597   2.951   3.742   9.535
82920SOL     OW50598  11.027   8.778  14.651
82920SOL    HW150599  11.087   8.848  14.677
82920SOL    HW250600  11.083   8.713  14.608
82921SOL     OW50601   3.862   1.315   4.599
82921SOL    HW150602   3.918   1.276   4.666
82921SOL    HW250603   3.801   1.245   4.575
82922SOL     OW50604   1.999   3.176   1.850
82922SOL    HW150605   1.932   3.233   1.888
82922SOL    HW250606   1.999   3.098   1.906
82923SOL     OW50607   9.614   1.510   5.991
82923SOL    HW150608   9.708   1.529   5.994
82923SOL    HW250609   9.581   1.561   5.918
82924SOL     OW50610  13.948  10.822   7.059
82924SOL    HW150611  13.940  10.886   7.130
82924SOL    HW250612  14.028  10.848   7.013
82925SOL     OW50613   3.932   7.855  14.584
82925SOL    HW150614   3.901   7.940  14.614
82925SOL    HW250615   4.001   7.831  14.647
82926SOL     OW50616   4.323   7.343  14.426
82926SOL    HW150617   4.364   7.262  14.396
82926SOL    HW250618   4.395   7.399  14.454
82927SOL     OW50619   3.529   4.234   9.833
82927SOL    HW150620   3.462   4.297   9.863
82927SOL    HW250621   3.480   4.171   9.780
82928SOL     OW50622   0.382   2.267   6.497
82928SOL    HW150623   0.425   2.303   6.574
82928SOL    HW250624   0.290   2.292   6.507
82929SOL     OW50625   9.083  10.838  13.648
82929SOL    HW150626   9.153  10.773  13.658
82929SOL    HW250627   9.093  10.895  13.725
82930SOL     OW50628   1.655  11.250  11.064
82930SOL    HW150629   1.742  11.285  11.044
82930SOL    HW250630   1.603  11.327  11.084
82931SOL     OW50631   3.286   1.628  14.160
82931SOL    HW150632   3.370   1.588  14.136
82931SOL    HW250633   3.295   1.719  14.132
82932SOL     OW50634   5.766   6.423  14.126
82932SOL    HW150635   5.854   6.439  14.093
82932SOL    HW250636   5.736   6.345  14.079
82933SOL     OW50637  14.726   5.526   9.045
82933SOL    HW150638  14.640   5.490   9.020
82933SOL    HW250639  14.709   5.619   9.062
82934SOL     OW50640   3.372  10.392  11.081
82934SOL    HW150641   3.367  10.327  11.151
82934SOL    HW250642   3.403  10.471  11.124
82935SOL     OW50643   1.029  10.632   1.272
82935SOL    HW150644   1.056  10.647   1.363
82935SOL    HW250645   0.933  10.625   1.278
82936SOL     OW50646   6.021   5.373   6.401
82936SOL    HW150647   6.081   5.342   6.468
82936SOL    HW250648   5.999   5.295   6.350
82937SOL     OW50649   5.326   8.135   5.325
82937SOL    HW150650   5.259   8.071   5.299
82937SOL    HW250651   5.407   8.085   5.329
82938SOL     OW50652   7.559   8.435   8.202
82938SOL    HW150653   7.604   8.446   8.118
82938SOL    HW250654   7.469   8.412   8.178
82939SOL     OW50655   2.612   6.833  13.117
82939SOL    HW150656   2.642   6.923  13.109
82939SOL    HW250657   2.693   6.782  13.122
82940SOL     OW50658   6.575   8.353  12.838
82940SOL    HW150659   6.564   8.327  12.746
82940SOL    HW250660   6.660   8.395  12.841
82941SOL     OW50661   6.442   1.341   2.147
82941SOL    HW150662   6.457   1.246   2.148
82941SOL    HW250663   6.526   1.378   2.174
82942SOL     OW50664   8.995  12.452  14.586
82942SOL    HW150665   8.957  12.378  14.538
82942SOL    HW250666   9.002  12.422  14.676
82943SOL     OW50667   2.901   4.785  12.278
82943SOL    HW150668   2.935   4.872  12.300
82943SOL    HW250669   2.807   4.791  12.296
82944SOL     OW50670   6.515  14.560   6.028
82944SOL    HW150671   6.517  14.654   6.010
82944SOL    HW250672   6.498  14.554   6.122
82945SOL     OW50673   2.064   8.196  14.740
82945SOL    HW150674   2.023   8.223  14.658
82945SOL    HW250675   1.999   8.214  14.807
82946SOL     OW50676  13.793  11.695   8.535
82946SOL    HW150677  13.703  11.704   8.566
82946SOL    HW250678  13.788  11.713   8.441
82947SOL     OW50679   0.315   7.057  11.277
82947SOL    HW150680   0.392   7.030  11.228
82947SOL    HW250681   0.255   7.090  11.211
82948SOL     OW50682   3.901   7.150  14.709
82948SOL    HW150683   3.964   7.218  14.682
82948SOL    HW250684   3.955   7.078  14.740
82949SOL     OW50685   9.607  10.869   5.580
82949SOL    HW150686   9.596  10.859   5.486
82949SOL    HW250687   9.663  10.946   5.590
82950SOL     OW50688   4.174  14.440   6.029
82950SOL    HW150689   4.263  14.409   6.044
82950SOL    HW250690   4.122  14.395   6.096
82951SOL     OW50691   0.175   0.996  12.280
82951SOL    HW150692   0.186   1.066  12.216
82951SOL    HW250693   0.251   1.005  12.338
82952SOL     OW50694   8.941   9.472  11.178
82952SOL    HW150695   8.886   9.528  11.233
82952SOL    HW250696   8.882   9.402  11.149
82953SOL     OW50697   4.299   9.235   4.133
82953SOL    HW150698   4.301   9.309   4.194
82953SOL    HW250699   4.353   9.168   4.175
82954SOL     OW50700   3.329   0.716   7.842
82954SOL    HW150701   3.394   0.757   7.899
82954SOL    HW250702   3.280   0.658   7.901
82955SOL     OW50703   7.498   4.466   7.795
82955SOL    HW150704   7.587   4.498   7.788
82955SOL    HW250705   7.488   4.445   7.888
82956SOL     OW50706   6.968   7.791   4.315
82956SOL    HW150707   6.953   7.703   4.351
82956SOL    HW250708   6.972   7.778   4.220
82957SOL     OW50709   7.418  10.498  11.017
82957SOL    HW150710   7.448  10.455  11.097
82957SOL    HW250711   7.445  10.589  11.027
82958SOL     OW50712   5.644   1.400  10.227
82958SOL    HW150713   5.654   1.313  10.189
82958SOL    HW250714   5.561   1.433  10.193
82959SOL     OW50715  10.301  11.162   5.726
82959SOL    HW150716  10.340  11.174   5.813
82959SOL    HW250717  10.374  11.176   5.665
82960SOL     OW50718   6.327  14.361  11.800
82960SOL    HW150719   6.353  14.388  11.888
82960SOL    HW250720   6.401  14.308  11.769
82961SOL     OW50721  11.924   5.786   7.464
82961SOL    HW150722  11.954   5.705   7.422
82961SOL    HW250723  11.869   5.757   7.536
82962SOL     OW50724   5.305  10.070  12.724
82962SOL    HW150725   5.286  10.005  12.657
82962SOL    HW250726   5.366  10.026  12.783
82963SOL     OW50727   9.076   9.300   5.036
82963SOL    HW150728   9.149   9.308   5.097
82963SOL    HW250729   9.083   9.376   4.979
82964SOL     OW50730  12.785   9.417   7.004
82964SOL    HW150731  12.726   9.477   6.957
82964SOL    HW250732  12.804   9.462   7.086
82965SOL     OW50733   4.838  10.607   0.241
82965SOL    HW150734   4.790  10.690   0.241
82965SOL    HW250735   4.863  10.594   0.332
82966SOL     OW50736  12.509   6.143   1.470
82966SOL    HW150737  12.502   6.238   1.465
82966SOL    HW250738  12.493   6.112   1.381
82967SOL     OW50739  13.590   2.214   8.394
82967SOL    HW150740  13.630   2.205   8.308
82967SOL    HW250741  13.577   2.309   8.404
82968SOL     OW50742   2.984  11.509   7.679
82968SOL    HW150743   2.941  11.589   7.649
82968SOL    HW250744   2.937  11.485   7.759
82969SOL     OW50745   2.525   4.566   0.514
82969SOL    HW150746   2.516   4.657   0.542
82969SOL    HW250747   2.463   4.557   0.441
82970SOL     OW50748  12.478   3.089   2.278
82970SOL    HW150749  12.564   3.127   2.261
82970SOL    HW250750  12.418   3.142   2.226
82971SOL     OW50751   2.263  14.224   8.160
82971SOL    HW150752   2.304  14.243   8.075
82971SOL    HW250753   2.279  14.130   8.173
82972SOL     OW50754   8.171   0.810   6.783
82972SOL    HW150755   8.143   0.764   6.704
82972SOL    HW250756   8.264   0.825   6.770
82973SOL     OW50757   5.054   1.741   2.776
82973SOL    HW150758   4.983   1.750   2.840
82973SOL    HW250759   5.119   1.686   2.819
82974SOL     OW50760  13.615   2.349   7.938
82974SOL    HW150761  13.578   2.319   7.854
82974SOL    HW250762  13.685   2.409   7.912
82975SOL     OW50763   7.063   4.324  13.148
82975SOL    HW150764   7.142   4.325  13.094
82975SOL    HW250765   7.067   4.407  13.197
82976SOL     OW50766   2.090   2.821   2.966
82976SOL    HW150767   2.165   2.864   2.924
82976SOL    HW250768   2.081   2.738   2.920
82977SOL     OW50769   7.948  12.119   7.472
82977SOL    HW150770   7.980  12.086   7.387
82977SOL    HW250771   7.854  12.104   7.469
82978SOL     OW50772   4.194   9.601   1.977
82978SOL    HW150773   4.165   9.542   2.047
82978SOL    HW250774   4.185   9.689   2.015
82979SOL     OW50775  12.182   8.904   1.141
82979SOL    HW150776  12.146   8.968   1.079
82979SOL    HW250777  12.265   8.941   1.169
82980SOL     OW50778   1.790   1.980   5.338
82980SOL    HW150779   1.879   2.005   5.363
82980SOL    HW250780   1.733   2.043   5.382
82981SOL     OW50781   2.339  14.207   7.289
82981SOL    HW150782   2.369  14.148   7.220
82981SOL    HW250783   2.378  14.292   7.267
82982SOL     OW50784   2.957  10.811   4.434
82982SOL    HW150785   2.916  10.776   4.355
82982SOL    HW250786   2.891  10.800   4.503
82983SOL     OW50787  11.321   9.822  12.102
82983SOL    HW150788  11.393   9.762  12.120
82983SOL    HW250789  11.328   9.889  12.169
82984SOL     OW50790   5.125   6.464  14.050
82984SOL    HW150791   5.106   6.493  13.961
82984SOL    HW250792   5.200   6.406  14.041
82985SOL     OW50793   6.893   4.148   1.925
82985SOL    HW150794   6.805   4.112   1.933
82985SOL    HW250795   6.917   4.134   1.834
82986SOL     OW50796   6.374   2.051   2.697
82986SOL    HW150797   6.428   2.123   2.665
82986SOL    HW250798   6.327   2.088   2.772
82987SOL     OW50799   0.696  10.711  11.491
82987SOL    HW150800   0.670  10.636  11.544
82987SOL    HW250801   0.738  10.673  11.414
82988SOL     OW50802   9.343   0.308   7.119
82988SOL    HW150803   9.320   0.382   7.063
82988SOL    HW250804   9.261   0.261   7.132
82989SOL     OW50805   5.780   4.762   1.509
82989SOL    HW150806   5.768   4.693   1.574
82989SOL    HW250807   5.834   4.828   1.553
82990SOL     OW50808   0.790   6.835  12.738
82990SOL    HW150809   0.802   6.928  12.717
82990SOL    HW250810   0.728   6.804  12.673
82991SOL     OW50811  11.265  13.596  13.199
82991SOL    HW150812  11.172  13.614  13.188
82991SOL    HW250813  11.299  13.673  13.247
82992SOL     OW50814  14.357   1.999  12.283
82992SOL    HW150815  14.298   1.958  12.219
82992SOL    HW250816  14.436   2.019  12.233
82993SOL     OW50817  14.586  13.584   8.216
82993SOL    HW150818  14.548  13.510   8.168
82993SOL    HW250819  14.565  13.661   8.163
82994SOL     OW50820   0.889   2.946   2.481
82994SOL    HW150821   0.864   3.037   2.465
82994SOL    HW250822   0.822   2.912   2.540
82995SOL     OW50823  13.701   9.549  10.474
82995SOL    HW150824  13.690   9.574  10.566
82995SOL    HW250825  13.733   9.459  10.478
82996SOL     OW50826   8.684   0.705   4.750
82996SOL    HW150827   8.779   0.707   4.740
82996SOL    HW250828   8.650   0.725   4.662
82997SOL     OW50829   2.987   9.862  14.844
82997SOL    HW150830   2.907   9.817  14.817
82997SOL    HW250831   2.956   9.936   0.024
82998SOL     OW50832   8.590   7.619   7.859
82998SOL    HW150833   8.591   7.656   7.948
82998SOL    HW250834   8.679   7.586   7.847
82999SOL     OW50835   3.245   9.628   5.231
82999SOL    HW150836   3.274   9.651   5.319
82999SOL    HW250837   3.303   9.557   5.203
83000SOL     OW50838   4.263   3.311   3.501
83000SOL    HW150839   4.206   3.235   3.509
83000SOL    HW250840   4.248   3.343   3.412
83001SOL     OW50841   6.859   6.052   1.716
83001SOL    HW150842   6.777   6.035   1.762
83001SOL    HW250843   6.927   6.039   1.782
83002SOL     OW50844  12.280  13.217   7.962
83002SOL    HW150845  12.262  13.293   7.905
83002SOL    HW250846  12.194  13.189   7.992
83003SOL     OW50847  11.966   8.169   5.744
83003SOL    HW150848  11.959   8.181   5.650
83003SOL    HW250849  11.919   8.244   5.781
83004SOL     OW50850  10.785   7.672   2.041
83004SOL    HW150851  10.733   7.753   2.044
83004SOL    HW250852  10.796   7.648   2.133
83005SOL     OW50853  13.606  13.059  13.761
83005SOL    HW150854  13.641  13.136  13.806
83005SOL    HW250855  13.601  13.084  13.669
83006SOL     OW50856  10.952   1.534   2.430
83006SOL    HW150857  10.874   1.501   2.475
83006SOL    HW250858  10.924   1.543   2.339
83007SOL     OW50859   9.712   3.795   5.821
83007SOL    HW150860   9.633   3.796   5.768
83007SOL    HW250861   9.714   3.881   5.864
83008SOL     OW50862   9.928   6.871   8.448
83008SOL    HW150863   9.973   6.886   8.365
83008SOL    HW250864   9.928   6.956   8.491
83009SOL     OW50865  11.710   4.800  11.232
83009SOL    HW150866  11.702   4.708  11.257
83009SOL    HW250867  11.753   4.799  11.147
83010SOL     OW50868   2.651  11.950  14.120
83010SOL    HW150869   2.685  11.945  14.210
83010SOL    HW250870   2.651  12.043  14.100
83011SOL     OW50871  14.734   1.209  13.307
83011SOL    HW150872  14.716   1.163  13.389
83011SOL    HW250873  14.663   1.273  13.299
83012SOL     OW50874   6.578   3.048  14.348
83012SOL    HW150875   6.483   3.046  14.355
83012SOL    HW250876   6.609   3.039  14.438
83013SOL     OW50877   7.235   7.946   8.521
83013SOL    HW150878   7.240   7.856   8.551
83013SOL    HW250879   7.206   7.996   8.597
83014SOL     OW50880   2.064  12.423   0.384
83014SOL    HW150881   2.000  12.462   0.325
83014SOL    HW250882   2.067  12.483   0.459
83015SOL     OW50883  12.845  10.585   0.556
83015SOL    HW150884  12.810  10.674   0.556
83015SOL    HW250885  12.775  10.531   0.519
83016SOL     OW50886  12.992   6.387   6.739
83016SOL    HW150887  12.956   6.424   6.819
83016SOL    HW250888  12.922   6.330   6.706
83017SOL     OW50889   2.176   1.079   4.427
83017SOL    HW150890   2.248   1.068   4.488
83017SOL    HW250891   2.216   1.117   4.349
83018SOL     OW50892   3.740   2.151   7.912
83018SOL    HW150893   3.814   2.212   7.908
83018SOL    HW250894   3.664   2.204   7.888
83019SOL     OW50895   0.584   9.681  14.028
83019SOL    HW150896   0.619   9.748  14.087
83019SOL    HW250897   0.590   9.599  14.077
83020SOL     OW50898  13.936   6.592   6.472
83020SOL    HW150899  13.933   6.561   6.562
83020SOL    HW250900  13.858   6.646   6.462
83021SOL     OW50901   9.679  11.502  12.541
83021SOL    HW150902   9.585  11.495  12.522
83021SOL    HW250903   9.683  11.506  12.637
83022SOL     OW50904   3.976   4.688   2.802
83022SOL    HW150905   3.924   4.697   2.882
83022SOL    HW250906   3.920   4.725   2.733
83023SOL     OW50907   1.271   8.432   0.500
83023SOL    HW150908   1.232   8.349   0.472
83023SOL    HW250909   1.364   8.424   0.479
83024SOL     OW50910   9.460   4.149  12.036
83024SOL    HW150911   9.403   4.174  12.109
83024SOL    HW250912   9.510   4.229  12.017
83025SOL     OW50913   9.685   9.983  11.175
83025SOL    HW150914   9.623   9.935  11.230
83025SOL    HW250915   9.665  10.075  11.192
83026SOL     OW50916  10.828  10.952  12.188
83026SOL    HW150917  10.870  10.867  12.204
83026SOL    HW250918  10.749  10.931  12.140
83027SOL     OW50919  13.531  11.458   5.547
83027SOL    HW150920  13.512  11.550   5.529
83027SOL    HW250921  13.571  11.426   5.466
83028SOL     OW50922  10.821  14.054   9.248
83028SOL    HW150923  10.746  14.097   9.289
83028SOL    HW250924  10.827  13.969   9.290
83029SOL     OW50925   0.082  13.173   4.498
83029SOL    HW150926  14.872  13.139   4.529
83029SOL    HW250927   0.085  13.149   4.405
83030SOL     OW50928   8.366  13.580   1.370
83030SOL    HW150929   8.364  13.673   1.351
83030SOL    HW250930   8.413  13.573   1.453
83031SOL     OW50931   1.983   8.905   9.561
83031SOL    HW150932   1.900   8.897   9.513
83031SOL    HW250933   1.991   8.822   9.608
83032SOL     OW50934   3.076   5.838   1.623
83032SOL    HW150935   3.036   5.869   1.542
83032SOL    HW250936   3.159   5.887   1.629
83033SOL     OW50937   4.881   8.511   1.617
83033SOL    HW150938   4.929   8.429   1.624
83033SOL    HW250939   4.887   8.535   1.524
83034SOL     OW50940   2.327  14.346   8.507
83034SOL    HW150941   2.262  14.399   8.461
83034SOL    HW250942   2.406  14.353   8.454
83035SOL     OW50943   7.316  12.436  14.219
83035SOL    HW150944   7.239  12.466  14.267
83035SOL    HW250945   7.286  12.360  14.169
83036SOL     OW50946   9.074  12.695  13.935
83036SOL    HW150947   9.114  12.622  13.887
83036SOL    HW250948   9.097  12.679  14.026
83037SOL     OW50949   8.450  14.451  12.326
83037SOL    HW150950   8.491  14.537  12.314
83037SOL    HW250951   8.522  14.389  12.325
83038SOL     OW50952   7.631   5.876   4.251
83038SOL    HW150953   7.545   5.896   4.289
83038SOL    HW250954   7.620   5.788   4.215
83039SOL     OW50955  10.138   9.978  14.327
83039SOL    HW150956  10.121  10.052  14.269
83039SOL    HW250957  10.130  10.015  14.415
83040SOL     OW50958   8.670   9.016   6.315
83040SOL    HW150959   8.685   8.961   6.392
83040SOL    HW250960   8.621   9.091   6.348
83041SOL     OW50961   0.290  14.491   7.891
83041SOL    HW150962   0.343  14.564   7.860
83041SOL    HW250963   0.332  14.413   7.855
83042SOL     OW50964   1.656  13.645   9.695
83042SOL    HW150965   1.590  13.703   9.732
83042SOL    HW250966   1.650  13.660   9.600
83043SOL     OW50967   7.379  12.100   9.218
83043SOL    HW150968   7.295  12.061   9.240
83043SOL    HW250969   7.369  12.128   9.127
83044SOL     OW50970   2.927   2.070   2.290
83044SOL    HW150971   2.903   1.980   2.268
83044SOL    HW250972   2.988   2.062   2.363
83045SOL     OW50973   3.708   6.341   6.200
83045SOL    HW150974   3.665   6.426   6.191
83045SOL    HW250975   3.743   6.322   6.113
83046SOL     OW50976  12.147   8.674  10.356
83046SOL    HW150977  12.226   8.695  10.307
83046SOL    HW250978  12.167   8.703  10.446
83047SOL     OW50979   0.279   4.649  10.913
83047SOL    HW150980   0.267   4.727  10.966
83047SOL    HW250981   0.191   4.622  10.889
83048SOL     OW50982   2.234  12.174  12.882
83048SOL    HW150983   2.211  12.082  12.890
83048SOL    HW250984   2.179  12.208  12.812
83049SOL     OW50985  13.150  11.525   1.163
83049SOL    HW150986  13.164  11.595   1.226
83049SOL    HW250987  13.225  11.530   1.104
83050SOL     OW50988   5.620   6.001   2.951
83050SOL    HW150989   5.685   5.964   2.891
83050SOL    HW250990   5.659   5.988   3.038
83051SOL     OW50991   0.783  10.102   7.554
83051SOL    HW150992   0.865  10.074   7.596
83051SOL    HW250993   0.772  10.041   7.481
83052SOL     OW50994   5.701   9.257  12.619
83052SOL    HW150995   5.777   9.200  12.606
83052SOL    HW250996   5.706   9.283  12.711
83053SOL     OW50997   8.334  10.702  14.389
83053SOL    HW150998   8.358  10.738  14.474
83053SOL    HW250999   8.243  10.730  14.376
83054SOL     OW51000   3.847   6.774  11.660
83054SOL    HW151001   3.888   6.859  11.676
83054SOL    HW251002   3.761   6.795  11.624
83055SOL     OW51003   2.605   9.195   4.552
83055SOL    HW151004   2.546   9.131   4.512
83055SOL    HW251005   2.603   9.175   4.645
83056SOL     OW51006  11.174   8.047   9.699
83056SOL    HW151007  11.079   8.058   9.708
83056SOL    HW251008  11.210   8.135   9.711
83057SOL     OW51009   2.299  14.022  11.927
83057SOL    HW151010   2.359  13.975  11.985
83057SOL    HW251011   2.355  14.076  11.872
83058SOL     OW51012  13.535   6.762   5.870
83058SOL    HW151013  13.522   6.667   5.863
83058SOL    HW251014  13.487   6.798   5.796
83059SOL     OW51015   2.685  12.441   5.575
83059SOL    HW151016   2.773  12.404   5.571
83059SOL    HW251017   2.629  12.377   5.530
83060SOL     OW51018   0.422  12.116   6.974
83060SOL    HW151019   0.376  12.034   6.989
83060SOL    HW251020   0.455  12.110   6.884
83061SOL     OW51021   2.328  11.918   1.396
83061SOL    HW151022   2.317  11.823   1.392
83061SOL    HW251023   2.241  11.952   1.417
83062SOL     OW51024   0.258   9.377   5.645
83062SOL    HW151025   0.321   9.345   5.580
83062SOL    HW251026   0.310   9.385   5.725
83063SOL     OW51027   7.191   4.720   7.013
83063SOL    HW151028   7.263   4.658   7.010
83063SOL    HW251029   7.171   4.729   7.107
83064SOL     OW51030   4.004   9.796   0.288
83064SOL    HW151031   4.085   9.776   0.333
83064SOL    HW251032   3.936   9.786   0.355
83065SOL     OW51033   9.277   6.527  14.835
83065SOL    HW151034   9.330   6.515   0.041
83065SOL    HW251035   9.187   6.537  14.868
83066SOL     OW51036   6.519   3.673   0.684
83066SOL    HW151037   6.572   3.688   0.606
83066SOL    HW251038   6.538   3.748   0.740
83067SOL     OW51039  13.536   5.907   1.407
83067SOL    HW151040  13.563   5.946   1.491
83067SOL    HW251041  13.611   5.854   1.380
83068SOL     OW51042  13.821  13.023   3.763
83068SOL    HW151043  13.840  12.991   3.675
83068SOL    HW251044  13.877  13.100   3.773
83069SOL     OW51045  11.194   6.510   7.837
83069SOL    HW151046  11.271   6.454   7.844
83069SOL    HW251047  11.159   6.515   7.926
83070SOL     OW51048   9.331   5.076   1.091
83070SOL    HW151049   9.248   5.115   1.117
83070SOL    HW251050   9.395   5.146   1.101
83071SOL     OW51051   6.433   8.920  12.166
83071SOL    HW151052   6.476   8.853  12.112
83071SOL    HW251053   6.504   8.979  12.192
83072SOL     OW51054   7.838   1.715  14.012
83072SOL    HW151055   7.853   1.767  13.932
83072SOL    HW251056   7.919   1.725  14.062
83073SOL     OW51057   1.838  14.494  10.949
83073SOL    HW151058   1.882  14.444  10.880
83073SOL    HW251059   1.885  14.470  11.029
83074SOL     OW51060  10.024  13.137  12.730
83074SOL    HW151061   9.933  13.138  12.758
83074SOL    HW251062  10.063  13.065  12.780
83075SOL     OW51063   9.780  12.919   6.835
83075SOL    HW151064   9.737  12.987   6.783
83075SOL    HW251065   9.709  12.863   6.867
83076SOL     OW51066   8.879   9.287   6.931
83076SOL    HW151067   8.848   9.365   6.978
83076SOL    HW251068   8.939   9.245   6.993
83077SOL     OW51069   3.194   6.439   0.610
83077SOL    HW151070   3.120   6.415   0.555
83077SOL    HW251071   3.224   6.356   0.647
83078SOL     OW51072   1.441  12.766   2.732
83078SOL    HW151073   1.403  12.769   2.820
83078SOL    HW251074   1.387  12.703   2.684
83079SOL     OW51075  11.124  13.193   0.116
83079SOL    HW151076  11.066  13.201   0.192
83079SOL    HW251077  11.126  13.099   0.097
83080SOL     OW51078   7.154   6.462  13.420
83080SOL    HW151079   7.085   6.418  13.370
83080SOL    HW251080   7.204   6.511  13.354
83081SOL     OW51081  11.972   8.002   3.527
83081SOL    HW151082  11.921   7.921   3.528
83081SOL    HW251083  12.059   7.977   3.558
83082SOL     OW51084   4.101   5.397   8.440
83082SOL    HW151085   4.122   5.385   8.347
83082SOL    HW251086   4.021   5.450   8.439
83083SOL     OW51087   8.935   7.610   1.341
83083SOL    HW151088   8.863   7.656   1.297
83083SOL    HW251089   8.918   7.623   1.434
83084SOL     OW51090   6.187  12.061   5.183
83084SOL    HW151091   6.219  12.141   5.224
83084SOL    HW251092   6.264  12.003   5.183
83085SOL     OW51093   9.522  10.812   4.961
83085SOL    HW151094   9.518  10.907   4.945
83085SOL    HW251095   9.441  10.792   5.007
83086SOL     OW51096   8.933   9.567   6.539
83086SOL    HW151097   8.911   9.598   6.452
83086SOL    HW251098   8.936   9.647   6.593
83087SOL     OW51099   4.366  14.350   2.736
83087SOL    HW151100   4.454  14.315   2.722
83087SOL    HW251101   4.378  14.417   2.804
83088SOL     OW51102   4.589   7.357   2.322
83088SOL    HW151103   4.557   7.435   2.368
83088SOL    HW251104   4.513   7.324   2.276
83089SOL     OW51105   3.193  14.786  13.229
83089SOL    HW151106   3.188  14.828  13.314
83089SOL    HW251107   3.102  14.773  13.202
83090SOL     OW51108  10.311   9.256   2.847
83090SOL    HW151109  10.328   9.207   2.766
83090SOL    HW251110  10.372   9.329   2.845
83091SOL     OW51111   7.864   5.004   6.354
83091SOL    HW151112   7.890   4.947   6.427
83091SOL    HW251113   7.938   5.063   6.343
83092SOL     OW51114   8.843   4.524  12.647
83092SOL    HW151115   8.926   4.497  12.607
83092SOL    HW251116   8.779   4.517  12.575
83093SOL     OW51117   2.030   1.867   6.251
83093SOL    HW151118   1.988   1.801   6.306
83093SOL    HW251119   1.960   1.930   6.231
83094SOL     OW51120   7.913   4.583   4.843
83094SOL    HW151121   7.952   4.496   4.841
83094SOL    HW251122   7.921   4.615   4.753
83095SOL     OW51123   0.972  11.360  13.080
83095SOL    HW151124   1.018  11.337  13.160
83095SOL    HW251125   0.887  11.315  13.088
83096SOL     OW51126  11.381  11.737   3.911
83096SOL    HW151127  11.462  11.689   3.929
83096SOL    HW251128  11.361  11.781   3.993
83097SOL     OW51129   0.070   1.216  12.481
83097SOL    HW151130   0.155   1.214  12.437
83097SOL    HW251131   0.013   1.263  12.420
83098SOL     OW51132   6.539   7.049  12.512
83098SOL    HW151133   6.590   7.045  12.593
83098SOL    HW251134   6.456   7.007  12.535
83099SOL     OW51135  13.979   9.320   0.690
83099SOL    HW151136  14.069   9.288   0.693
83099SOL    HW251137  13.977   9.393   0.751
83100SOL     OW51138   5.953   0.867   7.711
83100SOL    HW151139   5.999   0.792   7.748
83100SOL    HW251140   6.023   0.925   7.679
83101SOL     OW51141   3.367  10.414  14.482
83101SOL    HW151142   3.420  10.464  14.544
83101SOL    HW251143   3.430  10.355  14.441
83102SOL     OW51144   6.428  14.663   9.500
83102SOL    HW151145   6.421  14.726   9.573
83102SOL    HW251146   6.340  14.628   9.490
83103SOL     OW51147   2.926   9.262   3.746
83103SOL    HW151148   2.951   9.335   3.803
83103SOL    HW251149   2.953   9.290   3.658
83104SOL     OW51150   2.790   3.740   4.171
83104SOL    HW151151   2.809   3.651   4.202
83104SOL    HW251152   2.697   3.752   4.191
83105SOL     OW51153   1.628   6.730   8.933
83105SOL    HW151154   1.698   6.765   8.988
83105SOL    HW251155   1.670   6.711   8.849
83106SOL     OW51156   2.812  11.709  11.926
83106SOL    HW151157   2.813  11.711  12.021
83106SOL    HW251158   2.863  11.630  11.904
83107SOL     OW51159   9.753   1.212   3.907
83107SOL    HW151160   9.680   1.150   3.904
83107SOL    HW251161   9.714   1.294   3.938
83108SOL     OW51162  13.993   8.485   6.875
83108SOL    HW151163  14.016   8.401   6.915
83108SOL    HW251164  13.968   8.462   6.785
83109SOL     OW51165  14.541   6.650   6.166
83109SOL    HW151166  14.508   6.586   6.104
83109SOL    HW251167  14.462   6.690   6.203
83110SOL     OW51168   8.225  13.991  11.709
83110SOL    HW151169   8.250  14.079  11.736
83110SOL    HW251170   8.146  13.972  11.760
83111SOL     OW51171   9.326   6.587   0.489
83111SOL    HW151172   9.299   6.676   0.509
83111SOL    HW251173   9.265   6.531   0.536
83112SOL     OW51174   8.158  14.604  12.628
83112SOL    HW151175   8.222  14.536  12.650
83112SOL    HW251176   8.096  14.603  12.702
83113SOL     OW51177  10.467   5.959   6.748
83113SOL    HW151178  10.535   6.007   6.700
83113SOL    HW251179  10.426   6.025   6.804
83114SOL     OW51180   2.907   6.544  12.407
83114SOL    HW151181   3.002   6.544  12.413
83114SOL    HW251182   2.881   6.457  12.435
83115SOL     OW51183  11.269   5.766   9.728
83115SOL    HW151184  11.320   5.732   9.801
83115SOL    HW251185  11.266   5.861   9.743
83116SOL     OW51186   1.439  11.145   0.895
83116SOL    HW151187   1.482  11.095   0.964
83116SOL    HW251188   1.449  11.236   0.921
83117SOL     OW51189  12.371   6.424  12.941
83117SOL    HW151190  12.438   6.357  12.947
83117SOL    HW251191  12.311   6.392  12.874
83118SOL     OW51192  12.990   5.294   3.418
83118SOL    HW151193  12.956   5.381   3.439
83118SOL    HW251194  12.961   5.278   3.328
83119SOL     OW51195   0.715  11.283   3.096
83119SOL    HW151196   0.723  11.203   3.044
83119SOL    HW251197   0.780  11.272   3.165
83120SOL     OW51198   1.283  11.734   5.598
83120SOL    HW151199   1.285  11.771   5.686
83120SOL    HW251200   1.191  11.735   5.572
83121SOL     OW51201   6.126   0.734  10.627
83121SOL    HW151202   6.144   0.827  10.612
83121SOL    HW251203   6.146   0.720  10.719
83122SOL     OW51204  10.943  10.292  10.756
83122SOL    HW151205  10.897  10.292  10.839
83122SOL    HW251206  10.973  10.202  10.745
83123SOL     OW51207   9.141  14.221   1.753
83123SOL    HW151208   9.213  14.269   1.713
83123SOL    HW251209   9.070  14.227   1.690
83124SOL     OW51210   8.064  10.441   6.704
83124SOL    HW151211   8.013  10.478   6.775
83124SOL    HW251212   8.150  10.483   6.711
83125SOL     OW51213   3.100   4.723   0.819
83125SOL    HW151214   3.154   4.661   0.769
83125SOL    HW251215   3.161   4.793   0.843
83126SOL     OW51216  12.306   8.804   5.488
83126SOL    HW151217  12.342   8.848   5.411
83126SOL    HW251218  12.226   8.761   5.456
83127SOL     OW51219  12.108  13.572   3.451
83127SOL    HW151220  12.064  13.656   3.439
83127SOL    HW251221  12.137  13.547   3.364
83128SOL     OW51222   7.544  12.629   8.283
83128SOL    HW151223   7.627  12.584   8.268
83128SOL    HW251224   7.488  12.602   8.210
83129SOL     OW51225   0.182   2.897   4.556
83129SOL    HW151226   0.102   2.846   4.548
83129SOL    HW251227   0.238   2.846   4.614
83130SOL     OW51228   8.990   5.185   7.274
83130SOL    HW151229   8.914   5.208   7.327
83130SOL    HW251230   8.957   5.181   7.184
83131SOL     OW51231  13.658   7.376   7.064
83131SOL    HW151232  13.705   7.366   6.981
83131SOL    HW251233  13.653   7.287   7.099
83132SOL     OW51234   0.276  10.265   7.604
83132SOL    HW151235   0.319  10.298   7.683
83132SOL    HW251236   0.263  10.172   7.621
83133SOL     OW51237   0.435   2.242   2.688
83133SOL    HW151238   0.404   2.261   2.776
83133SOL    HW251239   0.524   2.276   2.685
83134SOL     OW51240  11.506  11.353   4.979
83134SOL    HW151241  11.597  11.377   4.962
83134SOL    HW251242  11.511  11.292   5.053
83135SOL     OW51243  12.440   3.702   6.258
83135SOL    HW151244  12.408   3.616   6.232
83135SOL    HW251245  12.526   3.685   6.297
83136SOL     OW51246   6.177  11.174   1.546
83136SOL    HW151247   6.270  11.195   1.541
83136SOL    HW251248   6.146  11.180   1.455
83137SOL     OW51249  12.481   8.137   4.678
83137SOL    HW151250  12.455   8.108   4.591
83137SOL    HW251251  12.435   8.220   4.691
83138SOL     OW51252   4.425   0.240   0.551
83138SOL    HW151253   4.350   0.225   0.494
83138SOL    HW251254   4.391   0.223   0.640
83139SOL     OW51255  10.701   4.795  12.146
83139SOL    HW151256  10.630   4.858  12.155
83139SOL    HW251257  10.750   4.802  12.228
83140SOL     OW51258   8.880   1.334   6.613
83140SOL    HW151259   8.944   1.302   6.677
83140SOL    HW251260   8.886   1.429   6.620
83141SOL     OW51261   5.208   7.550  12.604
83141SOL    HW151262   5.259   7.630  12.588
83141SOL    HW251263   5.222   7.532  12.697
83142SOL     OW51264  10.837   9.791   5.048
83142SOL    HW151265  10.759   9.747   5.013
83142SOL    HW251266  10.899   9.792   4.976
83143SOL     OW51267   0.406   4.829   8.042
83143SOL    HW151268   0.434   4.903   7.987
83143SOL    HW251269   0.363   4.769   7.981
83144SOL     OW51270   0.725   3.050  12.737
83144SOL    HW151271   0.803   3.105  12.735
83144SOL    HW251272   0.747   2.975  12.682
83145SOL     OW51273   3.647   8.615  13.148
83145SOL    HW151274   3.738   8.591  13.126
83145SOL    HW251275   3.614   8.541  13.198
83146SOL     OW51276  13.933   5.556   7.221
83146SOL    HW151277  13.989   5.523   7.292
83146SOL    HW251278  13.887   5.630   7.260
83147SOL     OW51279  14.824   3.751   9.696
83147SOL    HW151280   0.046   3.751   9.699
83147SOL    HW251281  14.802   3.737   9.604
83148SOL     OW51282   8.777   5.794   2.622
83148SOL    HW151283   8.843   5.856   2.594
83148SOL    HW251284   8.695   5.827   2.585
83149SOL     OW51285  14.262   6.648  13.810
83149SOL    HW151286  14.187   6.598  13.844
83149SOL    HW251287  14.222   6.718  13.759
83150SOL     OW51288  10.958  13.430   6.977
83150SOL    HW151289  11.021  13.417   7.048
83150SOL    HW251290  10.872  13.417   7.019
83151SOL     OW51291  10.069   0.843   4.590
83151SOL    HW151292  10.095   0.803   4.507
83151SOL    HW251293  10.114   0.928   4.590
83152SOL     OW51294   6.421  12.901  13.344
83152SOL    HW151295   6.514  12.894  13.323
83152SOL    HW251296   6.380  12.931  13.263
83153SOL     OW51297   9.453   4.657   3.476
83153SOL    HW151298   9.419   4.705   3.551
83153SOL    HW251299   9.391   4.675   3.406
83154SOL     OW51300  10.435   2.765  10.959
83154SOL    HW151301  10.408   2.856  10.952
83154SOL    HW251302  10.491   2.762  11.037
83155SOL     OW51303   6.224   5.697  14.477
83155SOL    HW151304   6.272   5.727  14.554
83155SOL    HW251305   6.247   5.760  14.409
83156SOL     OW51306   0.223   4.474   1.117
83156SOL    HW151307   0.198   4.547   1.060
83156SOL    HW251308   0.296   4.432   1.072
83157SOL     OW51309   2.318   3.809   7.772
83157SOL    HW151310   2.402   3.765   7.758
83157SOL    HW251311   2.327   3.849   7.859
83158SOL     OW51312  11.044   9.109  10.492
83158SOL    HW151313  10.959   9.084  10.528
83158SOL    HW251314  11.030   9.114  10.398
83159SOL     OW51315  14.860   0.896   3.952
83159SOL    HW151316   0.071   0.905   3.906
83159SOL    HW251317  14.845   0.801   3.955
83160SOL     OW51318  12.037   2.132   0.541
83160SOL    HW151319  11.963   2.186   0.512
83160SOL    HW251320  12.113   2.190   0.536
83161SOL     OW51321  13.564  10.186  11.454
83161SOL    HW151322  13.503  10.139  11.510
83161SOL    HW251323  13.508  10.238  11.396
83162SOL     OW51324  10.626   9.330  13.836
83162SOL    HW151325  10.668   9.415  13.852
83162SOL    HW251326  10.572   9.315  13.914
83163SOL     OW51327   0.225   8.236   4.072
83163SOL    HW151328   0.144   8.199   4.038
83163SOL    HW251329   0.202   8.325   4.100
83164SOL     OW51330   8.974   7.701  11.278
83164SOL    HW151331   8.913   7.703  11.204
83164SOL    HW251332   8.953   7.620  11.324
83165SOL     OW51333  13.118   0.833   7.896
83165SOL    HW151334  13.094   0.915   7.853
83165SOL    HW251335  13.078   0.765   7.841
83166SOL     OW51336   1.136  13.497   4.348
83166SOL    HW151337   1.176  13.584   4.354
83166SOL    HW251338   1.079  13.502   4.271
83167SOL     OW51339   6.536   3.633  12.412
83167SOL    HW151340   6.575   3.546  12.422
83167SOL    HW251341   6.456   3.630  12.465
83168SOL     OW51342   4.240   8.830   1.015
83168SOL    HW151343   4.176   8.881   0.966
83168SOL    HW251344   4.199   8.744   1.025
83169SOL     OW51345   3.236   2.656   2.620
83169SOL    HW151346   3.196   2.649   2.534
83169SOL    HW251347   3.180   2.718   2.668
83170SOL     OW51348  12.486  13.117   4.043
83170SOL    HW151349  12.418  13.184   4.048
83170SOL    HW251350  12.567  13.166   4.034
83171SOL     OW51351   1.414   8.202   6.015
83171SOL    HW151352   1.385   8.117   6.047
83171SOL    HW251353   1.509   8.201   6.027
83172SOL     OW51354   4.673   3.239   5.722
83172SOL    HW151355   4.709   3.168   5.669
83172SOL    HW251356   4.625   3.294   5.659
83173SOL     OW51357   9.321   7.346   4.192
83173SOL    HW151358   9.346   7.257   4.215
83173SOL    HW251359   9.225   7.345   4.194
83174SOL     OW51360   0.450   1.489   5.853
83174SOL    HW151361   0.401   1.570   5.868
83174SOL    HW251362   0.472   1.458   5.941
83175SOL     OW51363  10.810   9.411   1.115
83175SOL    HW151364  10.903   9.412   1.135
83175SOL    HW251365  10.770   9.472   1.177
83176SOL     OW51366  11.371   9.747   8.003
83176SOL    HW151367  11.312   9.822   7.995
83176SOL    HW251368  11.427   9.753   7.925
83177SOL     OW51369   7.251  13.125   3.392
83177SOL    HW151370   7.225  13.047   3.344
83177SOL    HW251371   7.335  13.102   3.432
83178SOL     OW51372   8.891   0.533   1.380
83178SOL    HW151373   8.852   0.513   1.465
83178SOL    HW251374   8.977   0.491   1.382
83179SOL     OW51375  14.115  13.632   9.686
83179SOL    HW151376  14.108  13.713   9.737
83179SOL    HW251377  14.209  13.624   9.667
83180SOL     OW51378   0.269   4.966   4.177
83180SOL    HW151379   0.196   5.016   4.215
83180SOL    HW251380   0.281   4.892   4.237
83181SOL     OW51381   6.378   3.182   8.435
83181SOL    HW151382   6.466   3.215   8.453
83181SOL    HW251383   6.382   3.151   8.345
83182SOL     OW51384   6.758   0.417   6.405
83182SOL    HW151385   6.782   0.324   6.397
83182SOL    HW251386   6.714   0.437   6.322
83183SOL     OW51387  10.486   4.441   4.050
83183SOL    HW151388  10.565   4.457   3.998
83183SOL    HW251389  10.439   4.524   4.048
83184SOL     OW51390   7.096   8.259   9.325
83184SOL    HW151391   7.079   8.329   9.262
83184SOL    HW251392   7.040   8.187   9.296
83185SOL     OW51393   4.398   2.184   8.569
83185SOL    HW151394   4.331   2.138   8.620
83185SOL    HW251395   4.435   2.247   8.631
83186SOL     OW51396   8.715  12.531   5.880
83186SOL    HW151397   8.716  12.436   5.896
83186SOL    HW251398   8.793  12.563   5.925
83187SOL     OW51399   3.989   8.749   7.607
83187SOL    HW151400   3.907   8.722   7.649
83187SOL    HW251401   3.962   8.803   7.533
83188SOL     OW51402   3.496   4.199  10.245
83188SOL    HW151403   3.524   4.115  10.209
83188SOL    HW251404   3.577   4.242  10.271
83189SOL     OW51405   4.789   5.965   5.210
83189SOL    HW151406   4.699   5.935   5.223
83189SOL    HW251407   4.798   6.040   5.269
83190SOL     OW51408  12.027   5.058   6.240
83190SOL    HW151409  11.992   5.142   6.211
83190SOL    HW251410  11.971   4.993   6.196
83191SOL     OW51411   4.435   9.896  13.842
83191SOL    HW151412   4.472   9.984  13.837
83191SOL    HW251413   4.501   9.840  13.800
83192SOL     OW51414   2.767   4.830   8.218
83192SOL    HW151415   2.723   4.752   8.184
83192SOL    HW251416   2.811   4.801   8.297
83193SOL     OW51417  14.470   2.157   3.085
83193SOL    HW151418  14.494   2.174   3.176
83193SOL    HW251419  14.519   2.078   3.062
83194SOL     OW51420  10.288  11.648   9.110
83194SOL    HW151421  10.269  11.646   9.016
83194SOL    HW251422  10.235  11.720   9.144
83195SOL     OW51423   6.704   2.744   8.026
83195SOL    HW151424   6.659   2.671   8.067
83195SOL    HW251425   6.771   2.769   8.090
83196SOL     OW51426  13.902   3.152   7.619
83196SOL    HW151427  13.827   3.104   7.655
83196SOL    HW251428  13.864   3.235   7.589
83197SOL     OW51429   2.418   2.189   2.572
83197SOL    HW151430   2.481   2.255   2.544
83197SOL    HW251431   2.333   2.228   2.554
83198SOL     OW51432   7.911   4.913  11.686
83198SOL    HW151433   7.925   5.006  11.703
83198SOL    HW251434   7.953   4.868  11.760
83199SOL     OW51435   2.808   4.339   2.656
83199SOL    HW151436   2.733   4.393   2.682
83199SOL    HW251437   2.839   4.378   2.574
83200SOL     OW51438   2.154  10.678  11.331
83200SOL    HW151439   2.175  10.598  11.283
83200SOL    HW251440   2.230  10.735  11.318
83201SOL     OW51441  11.974  13.071   3.397
83201SOL    HW151442  11.933  12.992   3.432
83201SOL    HW251443  12.058  13.076   3.443
83202SOL     OW51444   2.172   1.780   4.644
83202SOL    HW151445   2.186   1.830   4.563
83202SOL    HW251446   2.082   1.750   4.638
83203SOL     OW51447   8.118  13.779   8.452
83203SOL    HW151448   8.146  13.708   8.394
83203SOL    HW251449   8.185  13.781   8.521
83204SOL     OW51450  13.171  10.462   8.717
83204SOL    HW151451  13.101  10.470   8.781
83204SOL    HW251452  13.247  10.501   8.760
83205SOL     OW51453   7.753   9.018   2.568
83205SOL    HW151454   7.753   8.949   2.501
83205SOL    HW251455   7.837   9.008   2.612
83206SOL     OW51456  10.561   9.635  14.104
83206SOL    HW151457  10.587   9.702  14.041
83206SOL    HW251458  10.640   9.618  14.155
83207SOL     OW51459  11.461   8.487  12.473
83207SOL    HW151460  11.468   8.411  12.530
83207SOL    HW251461  11.368   8.495  12.454
83208SOL     OW51462   2.505  11.341  14.800
83208SOL    HW151463   2.556  11.422  14.795
83208SOL    HW251464   2.414  11.370  14.803
83209SOL     OW51465  11.506  13.156   0.677
83209SOL    HW151466  11.559  13.082   0.649
83209SOL    HW251467  11.421  13.142   0.636
83210SOL     OW51468   1.034   5.352   9.395
83210SOL    HW151469   1.099   5.284   9.380
83210SOL    HW251470   0.956   5.321   9.350
83211SOL     OW51471   2.258   6.546  13.573
83211SOL    HW151472   2.316   6.622  13.564
83211SOL    HW251473   2.176   6.583  13.605
83212SOL     OW51474   2.025  10.295   8.533
83212SOL    HW151475   2.070  10.359   8.588
83212SOL    HW251476   1.932  10.314   8.545
83213SOL     OW51477   9.433   9.485   8.659
83213SOL    HW151478   9.353   9.434   8.645
83213SOL    HW251479   9.498   9.422   8.688
83214SOL     OW51480  14.415  14.746   1.541
83214SOL    HW151481  14.396  14.839   1.545
83214SOL    HW251482  14.414  14.717   1.632
83215SOL     OW51483   9.789   5.931  14.714
83215SOL    HW151484   9.849   6.005  14.711
83215SOL    HW251485   9.759   5.929  14.805
83216SOL     OW51486   9.465  11.678   9.111
83216SOL    HW151487   9.527  11.606   9.127
83216SOL    HW251488   9.521  11.756   9.101
83217SOL     OW51489   6.799   0.592   0.310
83217SOL    HW151490   6.831   0.503   0.325
83217SOL    HW251491   6.706   0.581   0.291
83218SOL     OW51492  10.052  13.378   2.587
83218SOL    HW151493  10.122  13.411   2.531
83218SOL    HW251494   9.974  13.381   2.532
83219SOL     OW51495   2.661  13.905  13.076
83219SOL    HW151496   2.597  13.932  13.011
83219SOL    HW251497   2.612  13.848  13.136
83220SOL     OW51498   4.768   9.683   3.479
83220SOL    HW151499   4.718   9.601   3.476
83220SOL    HW251500   4.781   9.700   3.573
83221SOL     OW51501  11.208   9.007   8.400
83221SOL    HW151502  11.166   8.967   8.323
83221SOL    HW251503  11.274   8.943   8.426
83222SOL     OW51504   2.597  11.040  12.758
83222SOL    HW151505   2.685  11.003  12.763
83222SOL    HW251506   2.607  11.119  12.704
83223SOL     OW51507   8.545  13.497   2.662
83223SOL    HW151508   8.461  13.477   2.702
83223SOL    HW251509   8.534  13.474   2.570
83224SOL     OW51510   4.743   1.624  11.678
83224SOL    HW151511   4.723   1.686  11.608
83224SOL    HW251512   4.774   1.678  11.750
83225SOL     OW51513   7.938   7.640   2.424
83225SOL    HW151514   8.018   7.621   2.375
83225SOL    HW251515   7.873   7.581   2.386
83226SOL     OW51516  11.369  14.209   6.018
83226SOL    HW151517  11.379  14.221   6.112
83226SOL    HW251518  11.348  14.297   5.984
83227SOL     OW51519   0.577   2.956  13.913
83227SOL    HW151520   0.634   2.886  13.884
83227SOL    HW251521   0.532   2.985  13.834
83228SOL     OW51522  14.545  12.384  11.529
83228SOL    HW151523  14.509  12.430  11.454
83228SOL    HW251524  14.492  12.413  11.603
83229SOL     OW51525   3.489  12.796  12.775
83229SOL    HW151526   3.544  12.862  12.817
83229SOL    HW251527   3.509  12.715  12.822
83230SOL     OW51528  13.615   4.210   9.851
83230SOL    HW151529  13.580   4.290   9.889
83230SOL    HW251530  13.555   4.189   9.780
83231SOL     OW51531  14.099  10.414  12.392
83231SOL    HW151532  14.016  10.415  12.345
83231SOL    HW251533  14.155  10.473  12.342
83232SOL     OW51534   7.346   8.781  10.664
83232SOL    HW151535   7.403   8.714  10.703
83232SOL    HW251536   7.303   8.736  10.591
83233SOL     OW51537   0.865  14.130   9.968
83233SOL    HW151538   0.826  14.099  10.050
83233SOL    HW251539   0.905  14.052   9.930
83234SOL     OW51540  14.694   5.425  10.813
83234SOL    HW151541  14.737   5.510  10.803
83234SOL    HW251542  14.744   5.381  10.882
83235SOL     OW51543   7.175   7.863  13.244
83235SOL    HW151544   7.211   7.896  13.327
83235SOL    HW251545   7.177   7.768  13.254
83236SOL     OW51546   0.559   8.430  10.524
83236SOL    HW151547   0.654   8.444  10.518
83236SOL    HW251548   0.550   8.347  10.570
83237SOL     OW51549  13.306  12.462  13.392
83237SOL    HW151550  13.358  12.512  13.330
83237SOL    HW251551  13.370  12.412  13.442
83238SOL     OW51552  12.925   9.823   9.423
83238SOL    HW151553  12.842   9.798   9.383
83238SOL    HW251554  12.955   9.897   9.371
83239SOL     OW51555   1.998   6.846  12.776
83239SOL    HW151556   1.964   6.769  12.731
83239SOL    HW251557   2.087   6.857  12.741
83240SOL     OW51558  12.015   7.229   1.753
83240SOL    HW151559  11.979   7.233   1.665
83240SOL    HW251560  12.088   7.291   1.753
83241SOL     OW51561   7.350   0.888   2.077
83241SOL    HW151562   7.256   0.872   2.078
83241SOL    HW251563   7.357   0.984   2.069
83242SOL     OW51564  10.413   3.705   0.588
83242SOL    HW151565  10.379   3.641   0.650
83242SOL    HW251566  10.468   3.763   0.641
83243SOL     OW51567  13.276  11.595   9.656
83243SOL    HW151568  13.331  11.633   9.587
83243SOL    HW251569  13.195  11.570   9.611
83244SOL     OW51570   3.443   7.347   8.136
83244SOL    HW151571   3.463   7.259   8.167
83244SOL    HW251572   3.477   7.349   8.047
83245SOL     OW51573   4.718   7.666   1.718
83245SOL    HW151574   4.719   7.748   1.767
83245SOL    HW251575   4.781   7.679   1.648
83246SOL     OW51576   2.973   5.657   5.895
83246SOL    HW151577   2.899   5.671   5.836
83246SOL    HW251578   2.945   5.585   5.951
83247SOL     OW51579  13.453  10.655   8.489
83247SOL    HW151580  13.436  10.600   8.566
83247SOL    HW251581  13.441  10.595   8.415
83248SOL     OW51582  10.413   9.201  12.681
83248SOL    HW151583  10.325   9.239  12.680
83248SOL    HW251584  10.418   9.157  12.766
83249SOL     OW51585   4.596  13.404  10.167
83249SOL    HW151586   4.602  13.459  10.245
83249SOL    HW251587   4.686  13.399  10.134
83250SOL     OW51588  10.588   8.800   9.336
83250SOL    HW151589  10.682   8.801   9.351
83250SOL    HW251590  10.552   8.756   9.413
83251SOL     OW51591   5.218   7.346  14.465
83251SOL    HW151592   5.224   7.292  14.386
83251SOL    HW251593   5.190   7.432  14.433
83252SOL     OW51594   9.789  14.437  14.867
83252SOL    HW151595   9.797  14.504   0.061
83252SOL    HW251596   9.720  14.379   0.026
83253SOL     OW51597  12.232   0.865   0.758
83253SOL    HW151598  12.213   0.782   0.801
83253SOL    HW251599  12.279   0.840   0.678
83254SOL     OW51600  10.181  11.189   9.241
83254SOL    HW151601  10.259  11.133   9.236
83254SOL    HW251602  10.215  11.276   9.261
83255SOL     OW51603  13.803   4.321   4.500
83255SOL    HW151604  13.725   4.339   4.552
83255SOL    HW251605  13.783   4.356   4.413
83256SOL     OW51606  12.158  13.029  14.487
83256SOL    HW151607  12.106  13.051  14.564
83256SOL    HW251608  12.188  13.113  14.453
83257SOL     OW51609  11.232   7.427   6.627
83257SOL    HW151610  11.313   7.376   6.629
83257SOL    HW251611  11.232   7.476   6.709
83258SOL     OW51612   5.508   7.041   8.019
83258SOL    HW151613   5.548   6.975   7.961
83258SOL    HW251614   5.422   7.006   8.039
83259SOL     OW51615  11.815   2.687   7.871
83259SOL    HW151616  11.834   2.617   7.933
83259SOL    HW251617  11.786   2.642   7.792
83260SOL     OW51618   9.954   9.647   4.821
83260SOL    HW151619  10.007   9.720   4.790
83260SOL    HW251620   9.986   9.571   4.772
83261SOL     OW51621  13.715  10.671   2.953
83261SOL    HW151622  13.632  10.663   3.000
83261SOL    HW251623  13.724  10.589   2.906
83262SOL     OW51624  14.827  13.417  13.384
83262SOL    HW151625  14.737  13.384  13.378
83262SOL    HW251626  14.818  13.511  13.369
83263SOL     OW51627   2.068   5.498   4.515
83263SOL    HW151628   1.986   5.543   4.493
83263SOL    HW251629   2.044   5.405   4.516
83264SOL     OW51630   6.751   5.331   0.370
83264SOL    HW151631   6.692   5.407   0.374
83264SOL    HW251632   6.746   5.293   0.458
83265SOL     OW51633  11.849   5.953  11.466
83265SOL    HW151634  11.903   5.892  11.416
83265SOL    HW251635  11.913   6.010  11.510
83266SOL     OW51636   1.371  10.321  14.621
83266SOL    HW151637   1.454  10.368  14.625
83266SOL    HW251638   1.396  10.229  14.618
83267SOL     OW51639  10.054  14.368   0.018
83267SOL    HW151640  10.094  14.317  14.821
83267SOL    HW251641   9.964  14.382  14.863
83268SOL     OW51642   0.805   7.670   4.883
83268SOL    HW151643   0.848   7.724   4.949
83268SOL    HW251644   0.774   7.733   4.817
83269SOL     OW51645  12.275   9.520   0.695
83269SOL    HW151646  12.204   9.479   0.646
83269SOL    HW251647  12.234   9.594   0.740
83270SOL     OW51648  13.541  14.265   7.994
83270SOL    HW151649  13.463  14.319   8.013
83270SOL    HW251650  13.611  14.305   8.046
83271SOL     OW51651  12.692   6.559   4.534
83271SOL    HW151652  12.696   6.574   4.440
83271SOL    HW251653  12.739   6.477   4.547
83272SOL     OW51654  11.409  11.680  14.831
83272SOL    HW151655  11.403  11.707  14.739
83272SOL    HW251656  11.428  11.586  14.827
83273SOL     OW51657  13.119   2.924   2.471
83273SOL    HW151658  13.202   2.905   2.514
83273SOL    HW251659  13.136   3.002   2.418
83274SOL     OW51660   7.852  12.636  12.263
83274SOL    HW151661   7.899  12.700  12.316
83274SOL    HW251662   7.848  12.558  12.318
83275SOL     OW51663   9.151  13.124   1.447
83275SOL    HW151664   9.109  13.209   1.452
83275SOL    HW251665   9.244  13.142   1.462
83276SOL     OW51666  10.286   5.078   2.386
83276SOL    HW151667  10.207   5.105   2.434
83276SOL    HW251668  10.265   5.094   2.294
83277SOL     OW51669   4.229   4.703   8.508
83277SOL    HW151670   4.157   4.641   8.496
83277SOL    HW251671   4.294   4.655   8.560
83278SOL     OW51672   9.984  12.193  13.405
83278SOL    HW151673   9.913  12.240  13.449
83278SOL    HW251674   9.961  12.196  13.312
83279SOL     OW51675   9.568   7.228  11.125
83279SOL    HW151676   9.499   7.241  11.060
83279SOL    HW251677   9.523   7.232  11.209
83280SOL     OW51678   2.109   8.318   5.518
83280SOL    HW151679   2.193   8.337   5.476
83280SOL    HW251680   2.044   8.335   5.450
83281SOL     OW51681  11.046  10.154   4.904
83281SOL    HW151682  11.109  10.222   4.929
83281SOL    HW251683  10.980  10.156   4.974
83282SOL     OW51684   8.513   9.597  14.217
83282SOL    HW151685   8.422   9.579  14.195
83282SOL    HW251686   8.544   9.654  14.146
83283SOL     OW51687   3.047  14.454   6.808
83283SOL    HW151688   2.984  14.497   6.867
83283SOL    HW251689   3.083  14.383   6.860
83284SOL     OW51690  14.247   2.122   7.758
83284SOL    HW151691  14.174   2.085   7.807
83284SOL    HW251692  14.218   2.121   7.666
83285SOL     OW51693  13.527   9.405  10.835
83285SOL    HW151694  13.524   9.426  10.929
83285SOL    HW251695  13.555   9.486  10.793
83286SOL     OW51696   2.192   7.546   2.323
83286SOL    HW151697   2.282   7.557   2.354
83286SOL    HW251698   2.179   7.451   2.321
83287SOL     OW51699   3.320   5.870  14.290
83287SOL    HW151700   3.364   5.894  14.372
83287SOL    HW251701   3.325   5.949  14.236
83288SOL     OW51702  13.574   6.224  14.278
83288SOL    HW151703  13.512   6.221  14.204
83288SOL    HW251704  13.625   6.304  14.263
83289SOL     OW51705   0.875  13.144   5.534
83289SOL    HW151706   0.915  13.058   5.522
83289SOL    HW251707   0.784  13.126   5.556
83290SOL     OW51708  12.674   6.594   7.124
83290SOL    HW151709  12.601   6.543   7.087
83290SOL    HW251710  12.636   6.638   7.200
83291SOL     OW51711  12.040   2.203  10.124
83291SOL    HW151712  12.087   2.229  10.203
83291SOL    HW251713  11.948   2.221  10.143
83292SOL     OW51714   3.613   8.678  12.582
83292SOL    HW151715   3.680   8.618  12.613
83292SOL    HW251716   3.606   8.660  12.488
83293SOL     OW51717   6.987  11.901   3.109
83293SOL    HW151718   7.080  11.885   3.125
83293SOL    HW251719   6.959  11.827   3.055
83294SOL     OW51720   2.084   4.280   2.173
83294SOL    HW151721   2.071   4.189   2.148
83294SOL    HW251722   2.003   4.305   2.218
83295SOL     OW51723   7.549   8.247   8.724
83295SOL    HW151724   7.541   8.152   8.720
83295SOL    HW251725   7.530   8.277   8.635
83296SOL     OW51726   1.631  10.284   9.430
83296SOL    HW151727   1.591  10.209   9.474
83296SOL    HW251728   1.699  10.247   9.374
83297SOL     OW51729  14.598   0.118   8.219
83297SOL    HW151730  14.551   0.187   8.267
83297SOL    HW251731  14.548   0.107   8.138
83298SOL     OW51732   9.120   7.883  11.708
83298SOL    HW151733   9.149   7.971  11.683
83298SOL    HW251734   9.151   7.827  11.637
83299SOL     OW51735   1.690   1.017   4.325
83299SOL    HW151736   1.732   0.978   4.402
83299SOL    HW251737   1.618   1.069   4.361
83300SOL     OW51738  11.797   8.835   4.562
83300SOL    HW151739  11.750   8.757   4.593
83300SOL    HW251740  11.728   8.892   4.528
83301SOL     OW51741   6.168   7.509   9.035
83301SOL    HW151742   6.204   7.546   8.954
83301SOL    HW251743   6.180   7.577   9.101
83302SOL     OW51744  11.788   7.889   8.466
83302SOL    HW151745  11.883   7.877   8.469
83302SOL    HW251746  11.764   7.908   8.557
83303SOL     OW51747   2.689   7.214   3.255
83303SOL    HW151748   2.691   7.279   3.185
83303SOL    HW251749   2.606   7.228   3.300
83304SOL     OW51750   6.861   5.217   2.589
83304SOL    HW151751   6.939   5.181   2.547
83304SOL    HW251752   6.843   5.297   2.541
83305SOL     OW51753   6.445   9.164   4.761
83305SOL    HW151754   6.483   9.225   4.824
83305SOL    HW251755   6.481   9.193   4.676
83306SOL     OW51756  13.495   6.065  12.286
83306SOL    HW151757  13.586   6.091  12.268
83306SOL    HW251758  13.480   5.989  12.229
83307SOL     OW51759   6.120   2.037  12.855
83307SOL    HW151760   6.092   2.015  12.944
83307SOL    HW251761   6.065   2.112  12.830
83308SOL     OW51762   7.520   1.829  12.727
83308SOL    HW151763   7.471   1.818  12.646
83308SOL    HW251764   7.490   1.913  12.762
83309SOL     OW51765   3.984  12.338  13.514
83309SOL    HW151766   3.996  12.281  13.438
83309SOL    HW251767   3.981  12.278  13.589
83310SOL     OW51768   7.997   7.981   5.817
83310SOL    HW151769   8.003   7.908   5.756
83310SOL    HW251770   7.905   7.980   5.846
83311SOL     OW51771  13.790   7.094   0.677
83311SOL    HW151772  13.815   7.170   0.731
83311SOL    HW251773  13.833   7.109   0.593
83312SOL     OW51774   8.017  12.009  12.067
83312SOL    HW151775   7.957  11.983  12.136
83312SOL    HW251776   7.962  12.057  12.004
83313SOL     OW51777  12.635   6.180   5.905
83313SOL    HW151778  12.628   6.203   5.997
83313SOL    HW251779  12.718   6.133   5.898
83314SOL     OW51780   8.543   7.941   1.856
83314SOL    HW151781   8.477   7.921   1.789
83314SOL    HW251782   8.493   7.955   1.936
83315SOL     OW51783  10.856  10.602   5.592
83315SOL    HW151784  10.765  10.610   5.564
83315SOL    HW251785  10.898  10.681   5.558
83316SOL     OW51786  11.749   1.971  14.365
83316SOL    HW151787  11.840   1.957  14.391
83316SOL    HW251788  11.738   2.066  14.370
83317SOL     OW51789  13.967   4.856   4.768
83317SOL    HW151790  13.924   4.933   4.731
83317SOL    HW251791  13.943   4.785   4.709
83318SOL     OW51792   5.592  12.319   6.030
83318SOL    HW151793   5.633  12.245   6.074
83318SOL    HW251794   5.565  12.285   5.944
83319SOL     OW51795   0.287   9.969   7.615
83319SOL    HW151796   0.337   9.980   7.534
83319SOL    HW251797   0.346   9.999   7.684
83320SOL     OW51798   8.728   3.463  14.210
83320SOL    HW151799   8.745   3.452  14.116
83320SOL    HW251800   8.811   3.494  14.246
83321SOL     OW51801   9.191   2.083   6.428
83321SOL    HW151802   9.224   2.067   6.517
83321SOL    HW251803   9.194   1.997   6.386
83322SOL     OW51804   1.593  14.402   3.158
83322SOL    HW151805   1.542  14.345   3.100
83322SOL    HW251806   1.541  14.407   3.238
83323SOL     OW51807   3.014   5.758  10.481
83323SOL    HW151808   3.094   5.777  10.432
83323SOL    HW251809   3.030   5.791  10.569
83324SOL     OW51810   3.489   0.808   4.338
83324SOL    HW151811   3.429   0.761   4.280
83324SOL    HW251812   3.433   0.871   4.383
83325SOL     OW51813   1.316   3.869   0.266
83325SOL    HW151814   1.292   3.824   0.347
83325SOL    HW251815   1.235   3.909   0.236
83326SOL     OW51816   5.895   5.946  14.549
83326SOL    HW151817   5.914   5.855  14.528
83326SOL    HW251818   5.975   5.993  14.523
83327SOL     OW51819   4.546   3.580   6.847
83327SOL    HW151820   4.506   3.649   6.899
83327SOL    HW251821   4.621   3.551   6.899
83328SOL     OW51822   7.230   7.806   7.147
83328SOL    HW151823   7.303   7.771   7.198
83328SOL    HW251824   7.164   7.828   7.212
83329SOL     OW51825   7.995   2.581  11.541
83329SOL    HW151826   7.917   2.616  11.497
83329SOL    HW251827   7.974   2.489  11.557
83330SOL     OW51828  10.407   2.982   9.017
83330SOL    HW151829  10.483   3.039   9.019
83330SOL    HW251830  10.403   2.950   8.927
83331SOL     OW51831   2.581  12.576   5.792
83331SOL    HW151832   2.619  12.533   5.716
83331SOL    HW251833   2.656  12.591   5.851
83332SOL     OW51834  10.048   0.117  10.576
83332SOL    HW151835  10.070   0.169  10.498
83332SOL    HW251836  10.097   0.159  10.647
83333SOL     OW51837  11.713   4.738   3.411
83333SOL    HW151838  11.692   4.653   3.450
83333SOL    HW251839  11.630   4.770   3.377
83334SOL     OW51840  13.094  10.343   7.618
83334SOL    HW151841  13.061  10.380   7.536
83334SOL    HW251842  13.071  10.408   7.685
83335SOL     OW51843   5.384   4.445  10.757
83335SOL    HW151844   5.296   4.419  10.785
83335SOL    HW251845   5.371   4.529  10.714
83336SOL     OW51846   8.149   4.677   2.114
83336SOL    HW151847   8.113   4.637   2.035
83336SOL    HW251848   8.218   4.618   2.142
83337SOL     OW51849  10.362   6.333  11.248
83337SOL    HW151850  10.423   6.379  11.306
83337SOL    HW251851  10.416   6.303  11.176
83338SOL     OW51852  13.412  13.358  13.100
83338SOL    HW151853  13.452  13.272  13.094
83338SOL    HW251854  13.387  13.368  13.192
83339SOL     OW51855   3.486   3.863   8.663
83339SOL    HW151856   3.457   3.906   8.743
83339SOL    HW251857   3.577   3.890   8.653
83340SOL     OW51858  10.936   8.152   9.698
83340SOL    HW151859  10.927   8.225   9.637
83340SOL    HW251860  10.887   8.081   9.657
83341SOL     OW51861   7.101   3.303   2.397
83341SOL    HW151862   7.172   3.312   2.333
83341SOL    HW251863   7.070   3.213   2.385
83342SOL     OW51864   7.658   8.840  10.338
83342SOL    HW151865   7.694   8.911  10.390
83342SOL    HW251866   7.640   8.879  10.252
83343SOL     OW51867   8.636  11.229   5.445
83343SOL    HW151868   8.686  11.310   5.457
83343SOL    HW251869   8.610  11.230   5.353
83344SOL     OW51870   9.227   7.927  12.180
83344SOL    HW151871   9.316   7.900  12.156
83344SOL    HW251872   9.235   7.959  12.270
83345SOL     OW51873   7.820   0.520   3.798
83345SOL    HW151874   7.727   0.535   3.812
83345SOL    HW251875   7.824   0.449   3.734
83346SOL     OW51876  13.049   8.380   6.833
83346SOL    HW151877  12.997   8.303   6.812
83346SOL    HW251878  13.126   8.346   6.878
83347SOL     OW51879   5.200   0.633   5.533
83347SOL    HW151880   5.217   0.728   5.528
83347SOL    HW251881   5.206   0.604   5.442
83348SOL     OW51882   1.708  11.225  13.613
83348SOL    HW151883   1.684  11.148  13.562
83348SOL    HW251884   1.784  11.197  13.665
83349SOL     OW51885   8.312   6.239   8.988
83349SOL    HW151886   8.362   6.313   8.952
83349SOL    HW251887   8.342   6.232   9.079
83350SOL     OW51888   1.310   2.163   8.248
83350SOL    HW151889   1.405   2.171   8.241
83350SOL    HW251890   1.296   2.107   8.324
83351SOL     OW51891   2.150  13.216   3.041
83351SOL    HW151892   2.205  13.138   3.039
83351SOL    HW251893   2.131  13.234   2.949
83352SOL     OW51894  12.467   5.725   1.412
83352SOL    HW151895  12.486   5.706   1.504
83352SOL    HW251896  12.549   5.758   1.376
83353SOL     OW51897   6.252   5.709   0.215
83353SOL    HW151898   6.183   5.681   0.275
83353SOL    HW251899   6.284   5.792   0.251
83354SOL     OW51900   3.993   1.013  10.303
83354SOL    HW151901   4.018   1.007  10.211
83354SOL    HW251902   3.903   0.982  10.306
83355SOL     OW51903   5.014  14.763   7.709
83355SOL    HW151904   5.021  14.856   7.688
83355SOL    HW251905   5.045  14.755   7.799
83356SOL     OW51906  14.228   3.472   3.505
83356SOL    HW151907  14.238   3.520   3.588
83356SOL    HW251908  14.283   3.394   3.517
83357SOL     OW51909   1.651  10.866   0.181
83357SOL    HW151910   1.656  10.940   0.120
83357SOL    HW251911   1.566  10.826   0.164
83358SOL     OW51912   8.346  13.001   0.946
83358SOL    HW151913   8.303  13.083   0.919
83358SOL    HW251914   8.413  13.029   1.008
83359SOL     OW51915   0.164   2.563  10.462
83359SOL    HW151916   0.100   2.499  10.430
83359SOL    HW251917   0.154   2.562  10.557
83360SOL     OW51918   7.391   3.432  12.229
83360SOL    HW151919   7.475   3.463  12.261
83360SOL    HW251920   7.412   3.361  12.168
83361SOL     OW51921   1.920   5.126   8.359
83361SOL    HW151922   1.841   5.079   8.330
83361SOL    HW251923   1.958   5.069   8.426
83362SOL     OW51924   3.019   4.915  10.933
83362SOL    HW151925   2.962   4.965  10.874
83362SOL    HW251926   3.082   4.872  10.875
83363SOL     OW51927   5.002   3.408   4.844
83363SOL    HW151928   4.994   3.321   4.806
83363SOL    HW251929   4.953   3.465   4.785
83364SOL     OW51930  14.201   4.105   4.608
83364SOL    HW151931  14.116   4.061   4.602
83364SOL    HW251932  14.211   4.126   4.701
83365SOL     OW51933   7.679   9.362   0.167
83365SOL    HW151934   7.638   9.276   0.174
83365SOL    HW251935   7.612   9.417   0.126
83366SOL     OW51936   5.221  12.097   6.201
83366SOL    HW151937   5.157  12.154   6.158
83366SOL    HW251938   5.247  12.145   6.279
83367SOL     OW51939   3.818  10.947   0.553
83367SOL    HW151940   3.845  11.024   0.504
83367SOL    HW251941   3.812  10.977   0.644
83368SOL     OW51942  12.882  10.159   1.731
83368SOL    HW151943  12.903  10.066   1.740
83368SOL    HW251944  12.786  10.161   1.733
83369SOL     OW51945  12.458   0.888   3.715
83369SOL    HW151946  12.507   0.938   3.781
83369SOL    HW251947  12.472   0.936   3.634
83370SOL     OW51948   0.831   0.515   0.584
83370SOL    HW151949   0.889   0.590   0.599
83370SOL    HW251950   0.865   0.475   0.504
83371SOL     OW51951   0.007  12.684   8.348
83371SOL    HW151952  14.795  12.728   8.349
83371SOL    HW251953   0.066  12.745   8.391
83372SOL     OW51954   1.548   7.815  10.554
83372SOL    HW151955   1.459   7.783  10.539
83372SOL    HW251956   1.596   7.739  10.587
83373SOL     OW51957  13.975  12.792   9.820
83373SOL    HW151958  14.013  12.707   9.842
83373SOL    HW251959  14.050  12.845   9.791
83374SOL     OW51960   5.351  14.259   2.026
83374SOL    HW151961   5.400  14.326   2.074
83374SOL    HW251962   5.344  14.294   1.937
83375SOL     OW51963   5.772   0.850   8.608
83375SOL    HW151964   5.791   0.793   8.533
83375SOL    HW251965   5.841   0.830   8.671
83376SOL     OW51966  12.970   4.182   5.756
83376SOL    HW151967  12.943   4.140   5.674
83376SOL    HW251968  12.964   4.112   5.821
83377SOL     OW51969   5.134   7.541   4.358
83377SOL    HW151970   5.178   7.458   4.341
83377SOL    HW251971   5.199   7.594   4.404
83378SOL     OW51972  13.031   4.607   0.455
83378SOL    HW151973  13.051   4.610   0.549
83378SOL    HW251974  12.989   4.522   0.442
83379SOL     OW51975  10.140   9.547   8.836
83379SOL    HW151976  10.066   9.548   8.896
83379SOL    HW251977  10.190   9.469   8.859
83380SOL     OW51978   6.222   9.863   8.827
83380SOL    HW151979   6.200   9.801   8.757
83380SOL    HW251980   6.138   9.899   8.854
83381SOL     OW51981   4.406  12.744  11.014
83381SOL    HW151982   4.339  12.756  11.082
83381SOL    HW251983   4.472  12.689  11.055
83382SOL     OW51984  14.846   1.167   8.099
83382SOL    HW151985  14.780   1.236   8.096
83382SOL    HW251986  14.796   1.086   8.106
83383SOL     OW51987   0.822  13.122  13.131
83383SOL    HW151988   0.868  13.161  13.206
83383SOL    HW251989   0.737  13.096  13.166
83384SOL     OW51990  11.686   1.448   3.701
83384SOL    HW151991  11.766   1.454   3.650
83384SOL    HW251992  11.704   1.499   3.781
83385SOL     OW51993   8.591  11.493   3.936
83385SOL    HW151994   8.552  11.407   3.924
83385SOL    HW251995   8.517  11.553   3.938
83386SOL     OW51996   2.542  11.862   3.718
83386SOL    HW151997   2.512  11.836   3.805
83386SOL    HW251998   2.585  11.783   3.683
83387SOL     OW51999   1.871  12.520  13.848
83387SOL    HW152000   1.848  12.496  13.758
83387SOL    HW252001   1.818  12.596  13.867
83388SOL     OW52002   1.761   9.981   8.506
83388SOL    HW152003   1.733  10.068   8.477
83388SOL    HW252004   1.712   9.920   8.451
83389SOL     OW52005  13.089   1.831   6.799
83389SOL    HW152006  13.181   1.853   6.806
83389SOL    HW252007  13.061   1.814   6.889
83390SOL     OW52008  13.869   5.513  14.185
83390SOL    HW152009  13.892   5.590  14.237
83390SOL    HW252010  13.882   5.439  14.246
83391SOL     OW52011   0.830   2.794  14.262
83391SOL    HW152012   0.866   2.783  14.350
83391SOL    HW252013   0.762   2.861  14.272
83392SOL     OW52014   3.800  12.523   2.711
83392SOL    HW152015   3.742  12.573   2.653
83392SOL    HW252016   3.775  12.550   2.799
83393SOL     OW52017  13.218   8.973   1.130
83393SOL    HW152018  13.244   8.881   1.128
83393SOL    HW252019  13.143   8.976   1.189
83394SOL     OW52020   0.946   6.963   5.149
83394SOL    HW152021   0.969   6.912   5.226
83394SOL    HW252022   0.900   7.040   5.183
83395SOL     OW52023   1.103   2.950   8.557
83395SOL    HW152024   1.016   2.965   8.521
83395SOL    HW252025   1.144   3.036   8.561
83396SOL     OW52026   7.807   9.015  13.793
83396SOL    HW152027   7.756   9.096  13.791
83396SOL    HW252028   7.898   9.044  13.781
83397SOL     OW52029  11.274   9.082  10.200
83397SOL    HW152030  11.272   9.138  10.278
83397SOL    HW252031  11.367   9.074  10.179
83398SOL     OW52032   1.874   0.109   5.430
83398SOL    HW152033   1.781   0.118   5.409
83398SOL    HW252034   1.919   0.128   5.348
83399SOL     OW52035   0.357   4.420   1.987
83399SOL    HW152036   0.393   4.462   1.909
83399SOL    HW252037   0.291   4.359   1.953
83400SOL     OW52038  14.079   0.838   6.450
83400SOL    HW152039  14.010   0.777   6.425
83400SOL    HW252040  14.160   0.796   6.421
83401SOL     OW52041  11.019   1.737   6.538
83401SOL    HW152042  10.945   1.740   6.599
83401SOL    HW252043  11.003   1.810   6.478
83402SOL     OW52044   6.950   8.378   1.968
83402SOL    HW152045   7.032   8.422   1.945
83402SOL    HW252046   6.885   8.413   1.907
83403SOL     OW52047  13.280   2.999   3.928
83403SOL    HW152048  13.191   2.972   3.907
83403SOL    HW252049  13.298   3.071   3.868
83404SOL     OW52050   0.762   3.037   2.133
83404SOL    HW152051   0.731   3.092   2.061
83404SOL    HW252052   0.848   3.006   2.104
83405SOL     OW52053   4.204  10.319   8.596
83405SOL    HW152054   4.170  10.311   8.507
83405SOL    HW252055   4.126  10.316   8.652
83406SOL     OW52056  13.611   2.428  13.549
83406SOL    HW152057  13.547   2.494  13.524
83406SOL    HW252058  13.603   2.360  13.483
83407SOL     OW52059   8.907   8.770   6.685
83407SOL    HW152060   8.852   8.749   6.761
83407SOL    HW252061   8.969   8.698   6.680
83408SOL     OW52062  13.697   1.004  10.837
83408SOL    HW152063  13.625   0.974  10.892
83408SOL    HW252064  13.656   1.024  10.752
83409SOL     OW52065   0.639  13.058   5.655
83409SOL    HW152066   0.567  12.996   5.665
83409SOL    HW252067   0.596  13.140   5.629
83410SOL     OW52068   0.874  11.067   4.561
83410SOL    HW152069   0.838  11.141   4.513
83410SOL    HW252070   0.805  11.001   4.558
83411SOL     OW52071  14.020   5.532   0.674
83411SOL    HW152072  14.073   5.537   0.594
83411SOL    HW252073  14.053   5.456   0.720
83412SOL     OW52074   9.243   8.656   7.843
83412SOL    HW152075   9.332   8.623   7.848
83412SOL    HW252076   9.197   8.615   7.917
83413SOL     OW52077   6.426  11.171   9.983
83413SOL    HW152078   6.456  11.180   9.893
83413SOL    HW252079   6.381  11.087   9.986
83414SOL     OW52080   3.217   2.256   9.024
83414SOL    HW152081   3.211   2.162   9.041
83414SOL    HW252082   3.300   2.266   8.978
83415SOL     OW52083   6.481  10.043   3.968
83415SOL    HW152084   6.392  10.058   4.003
83415SOL    HW252085   6.475  10.071   3.877
83416SOL     OW52086   0.023  12.487   5.848
83416SOL    HW152087   0.108  12.463   5.886
83416SOL    HW252088  14.835  12.422   5.882
83417SOL     OW52089   6.499  12.152   5.951
83417SOL    HW152090   6.406  12.159   5.929
83417SOL    HW252091   6.513  12.218   6.019
83418SOL     OW52092   3.638   6.204   6.929
83418SOL    HW152093   3.581   6.227   6.856
83418SOL    HW252094   3.603   6.123   6.963
83419SOL     OW52095  12.496   5.609   0.740
83419SOL    HW152096  12.591   5.614   0.756
83419SOL    HW252097  12.487   5.547   0.669
83420SOL     OW52098   5.578   9.541  12.892
83420SOL    HW152099   5.611   9.631  12.885
83420SOL    HW252100   5.515   9.533  12.820
83421SOL     OW52101   0.614   3.899  13.510
83421SOL    HW152102   0.523   3.926  13.506
83421SOL    HW252103   0.636   3.898  13.603
83422SOL     OW52104   9.587   1.570   1.713
83422SOL    HW152105   9.577   1.494   1.655
83422SOL    HW252106   9.674   1.604   1.693
83423SOL     OW52107   3.297  13.207   5.138
83423SOL    HW152108   3.233  13.187   5.207
83423SOL    HW252109   3.332  13.292   5.162
83424SOL     OW52110   8.795   4.695  13.106
83424SOL    HW152111   8.706   4.726  13.125
83424SOL    HW252112   8.783   4.628  13.039
83425SOL     OW52113  14.716   1.960   0.406
83425SOL    HW152114  14.682   1.911   0.332
83425SOL    HW252115  14.793   1.910   0.435
83426SOL     OW52116   1.942   1.694   5.273
83426SOL    HW152117   1.954   1.787   5.257
83426SOL    HW252118   2.004   1.674   5.344
83427SOL     OW52119   2.905   3.879   2.208
83427SOL    HW152120   2.930   3.796   2.167
83427SOL    HW252121   2.814   3.867   2.233
83428SOL     OW52122   9.942   5.808   6.173
83428SOL    HW152123   9.849   5.786   6.166
83428SOL    HW252124   9.943   5.904   6.174
83429SOL     OW52125  14.856   7.945   8.868
83429SOL    HW152126  14.869   7.924   8.961
83429SOL    HW252127  14.761   7.947   8.858
83430SOL     OW52128   7.859  14.365   5.573
83430SOL    HW152129   7.937  14.340   5.523
83430SOL    HW252130   7.812  14.426   5.517
83431SOL     OW52131   8.263  11.168   9.889
83431SOL    HW152132   8.204  11.226   9.937
83431SOL    HW252133   8.228  11.080   9.906
83432SOL     OW52134   7.000  11.904   0.245
83432SOL    HW152135   6.922  11.880   0.195
83432SOL    HW252136   7.063  11.835   0.225
83433SOL     OW52137  13.412   5.994   9.745
83433SOL    HW152138  13.415   6.024   9.836
83433SOL    HW252139  13.319   5.990   9.724
83434SOL     OW52140   9.557   3.163  11.877
83434SOL    HW152141   9.565   3.223  11.951
83434SOL    HW252142   9.469   3.180  11.843
83435SOL     OW52143  12.665  13.538  14.395
83435SOL    HW152144  12.672  13.614  14.337
83435SOL    HW252145  12.585  13.493  14.367
83436SOL     OW52146  12.460   5.756   0.482
83436SOL    HW152147  12.484   5.806   0.560
83436SOL    HW252148  12.464   5.665   0.509
83437SOL     OW52149  10.569  10.412   6.865
83437SOL    HW152150  10.646  10.399   6.809
83437SOL    HW252151  10.516  10.334   6.852
83438SOL     OW52152   9.390  12.846  10.550
83438SOL    HW152153   9.467  12.891  10.515
83438SOL    HW252154   9.316  12.891  10.509
83439SOL     OW52155   3.972  14.493   3.074
83439SOL    HW152156   3.891  14.528   3.037
83439SOL    HW252157   3.951  14.402   3.096
83440SOL     OW52158  13.842   6.439   9.255
83440SOL    HW152159  13.858   6.425   9.162
83440SOL    HW252160  13.746   6.447   9.262
83441SOL     OW52161   5.473   2.739   9.893
83441SOL    HW152162   5.391   2.787   9.881
83441SOL    HW252163   5.445   2.651   9.917
83442SOL     OW52164  10.924   5.124  12.896
83442SOL    HW152165  11.000   5.150  12.845
83442SOL    HW252166  10.910   5.032  12.872
83443SOL     OW52167   2.733   2.883  13.363
83443SOL    HW152168   2.646   2.884  13.403
83443SOL    HW252169   2.717   2.852  13.273
83444SOL     OW52170   7.854  13.301  11.148
83444SOL    HW152171   7.907  13.357  11.092
83444SOL    HW252172   7.815  13.360  11.212
83445SOL     OW52173   1.725   0.276   9.537
83445SOL    HW152174   1.655   0.223   9.499
83445SOL    HW252175   1.802   0.220   9.535
83446SOL     OW52176  12.944  14.783   4.089
83446SOL    HW152177  13.033  14.756   4.067
83446SOL    HW252178  12.888  14.729   4.033
83447SOL     OW52179   3.783   4.081   4.605
83447SOL    HW152180   3.821   4.138   4.538
83447SOL    HW252181   3.713   4.134   4.645
83448SOL     OW52182  11.355   3.734  13.259
83448SOL    HW152183  11.332   3.676  13.186
83448SOL    HW252184  11.283   3.723  13.321
83449SOL     OW52185  14.553  13.887   0.162
83449SOL    HW152186  14.591  13.970   0.134
83449SOL    HW252187  14.465  13.909   0.192
83450SOL     OW52188   2.173  10.223   1.602
83450SOL    HW152189   2.178  10.127   1.599
83450SOL    HW252190   2.121  10.246   1.525
83451SOL     OW52191  13.828  13.519   1.536
83451SOL    HW152192  13.892  13.466   1.488
83451SOL    HW252193  13.744  13.495   1.498
83452SOL     OW52194   2.860   3.087  10.685
83452SOL    HW152195   2.793   3.154  10.674
83452SOL    HW252196   2.933   3.115  10.629
83453SOL     OW52197  13.173   9.410  14.747
83453SOL    HW152198  13.252   9.453  14.780
83453SOL    HW252199  13.195   9.317  14.742
83454SOL     OW52200   5.463   5.186   4.174
83454SOL    HW152201   5.482   5.252   4.108
83454SOL    HW252202   5.395   5.225   4.228
83455SOL     OW52203  12.033  11.732  11.503
83455SOL    HW152204  11.941  11.740  11.480
83455SOL    HW252205  12.057  11.643  11.478
83456SOL     OW52206   0.576  13.333  13.048
83456SOL    HW152207   0.487  13.347  13.015
83456SOL    HW252208   0.574  13.244  13.085
83457SOL     OW52209   0.825   0.186   2.542
83457SOL    HW152210   0.750   0.137   2.507
83457SOL    HW252211   0.785   0.255   2.595
83458SOL     OW52212   4.420   2.584  14.291
83458SOL    HW152213   4.358   2.536  14.236
83458SOL    HW252214   4.444   2.660  14.239
83459SOL     OW52215   3.909  12.951  12.079
83459SOL    HW152216   3.976  12.913  12.023
83459SOL    HW252217   3.924  13.046  12.073
83460SOL     OW52218   9.853  10.858  14.832
83460SOL    HW152219   9.844  10.948  14.801
83460SOL    HW252220   9.900  10.867   0.042
83461SOL     OW52221   7.719   7.326   1.268
83461SOL    HW152222   7.665   7.351   1.192
83461SOL    HW252223   7.702   7.233   1.279
83462SOL     OW52224   5.030   4.177   2.123
83462SOL    HW152225   5.120   4.154   2.146
83462SOL    HW252226   4.979   4.099   2.147
83463SOL     OW52227   6.985  14.715   7.470
83463SOL    HW152228   7.014  14.627   7.443
83463SOL    HW252229   6.908  14.731   7.416
83464SOL     OW52230   9.203   2.801  13.362
83464SOL    HW152231   9.181   2.710  13.341
83464SOL    HW252232   9.233   2.838  13.278
83465SOL     OW52233   7.556   3.941  10.209
83465SOL    HW152234   7.601   4.024  10.192
83465SOL    HW252235   7.591   3.880  10.144
83466SOL     OW52236  10.757  11.704   9.980
83466SOL    HW152237  10.704  11.759   9.923
83466SOL    HW252238  10.794  11.764  10.044
83467SOL     OW52239   0.647   4.314   1.803
83467SOL    HW152240   0.668   4.305   1.710
83467SOL    HW252241   0.566   4.364   1.805
83468SOL     OW52242   4.366   5.966   3.453
83468SOL    HW152243   4.403   6.034   3.509
83468SOL    HW252244   4.281   5.999   3.427
83469SOL     OW52245   0.116   8.980   6.798
83469SOL    HW152246   0.206   8.975   6.830
83469SOL    HW252247   0.119   9.046   6.728
83470SOL     OW52248   5.862  11.390  14.081
83470SOL    HW152249   5.811  11.344  14.014
83470SOL    HW252250   5.842  11.483  14.066
83471SOL     OW52251   1.138   0.472   8.141
83471SOL    HW152252   1.220   0.466   8.190
83471SOL    HW252253   1.077   0.512   8.203
83472SOL     OW52254  13.089   7.270  10.127
83472SOL    HW152255  13.021   7.337  10.111
83472SOL    HW252256  13.170   7.320  10.135
83473SOL     OW52257  10.344   6.104   9.033
83473SOL    HW152258  10.380   6.043   9.097
83473SOL    HW252259  10.372   6.069   8.948
83474SOL     OW52260  11.172  10.143   6.602
83474SOL    HW152261  11.082  10.122   6.579
83474SOL    HW252262  11.183  10.107   6.690
83475SOL     OW52263  11.067   8.779   1.321
83475SOL    HW152264  11.148   8.756   1.367
83475SOL    HW252265  11.058   8.873   1.336
83476SOL     OW52266  10.691  10.042   2.680
83476SOL    HW152267  10.714  10.003   2.765
83476SOL    HW252268  10.770  10.034   2.627
83477SOL     OW52269   8.692   8.874   6.538
83477SOL    HW152270   8.758   8.828   6.590
83477SOL    HW252271   8.647   8.805   6.490
83478SOL     OW52272  11.330   9.022   2.849
83478SOL    HW152273  11.354   9.096   2.793
83478SOL    HW252274  11.289   9.061   2.925
83479SOL     OW52275   2.898   3.275   3.942
83479SOL    HW152276   2.850   3.192   3.937
83479SOL    HW252277   2.927   3.291   3.852
83480SOL     OW52278   1.665  14.336  13.760
83480SOL    HW152279   1.683  14.258  13.708
83480SOL    HW252280   1.749  14.360  13.799
83481SOL     OW52281   1.079   4.955   5.179
83481SOL    HW152282   1.104   4.864   5.161
83481SOL    HW252283   0.995   4.948   5.225
83482SOL     OW52284   4.610  12.940  14.200
83482SOL    HW152285   4.601  13.034  14.189
83482SOL    HW252286   4.586  12.903  14.115
83483SOL     OW52287  13.106   3.653   1.088
83483SOL    HW152288  13.118   3.726   1.149
83483SOL    HW252289  13.194   3.617   1.075
83484SOL     OW52290   9.386   0.738   3.363
83484SOL    HW152291   9.415   0.781   3.443
83484SOL    HW252292   9.299   0.703   3.386
83485SOL     OW52293  12.307   8.294   4.335
83485SOL    HW152294  12.287   8.375   4.383
83485SOL    HW252295  12.236   8.286   4.271
83486SOL     OW52296   4.187   3.342  12.475
83486SOL    HW152297   4.164   3.371  12.563
83486SOL    HW252298   4.229   3.418  12.434
83487SOL     OW52299  11.342  10.859   2.026
83487SOL    HW152300  11.288  10.867   2.105
83487SOL    HW252301  11.428  10.894   2.052
83488SOL     OW52302   5.562   9.032   3.341
83488SOL    HW152303   5.588   8.978   3.266
83488SOL    HW252304   5.483   9.077   3.311
83489SOL     OW52305   0.542  14.452   1.483
83489SOL    HW152306   0.507  14.367   1.459
83489SOL    HW252307   0.593  14.480   1.407
83490SOL     OW52308   3.450   7.436   1.201
83490SOL    HW152309   3.505   7.496   1.251
83490SOL    HW252310   3.430   7.484   1.120
83491SOL     OW52311   9.583  10.057   6.497
83491SOL    HW152312   9.535  10.080   6.576
83491SOL    HW252313   9.587  10.138   6.446
83492SOL     OW52314   2.928  12.944   2.057
83492SOL    HW152315   2.955  12.992   1.979
83492SOL    HW252316   3.007  12.938   2.111
83493SOL     OW52317   1.063   3.376  13.484
83493SOL    HW152318   1.143   3.424  13.503
83493SOL    HW252319   1.010   3.436  13.432
83494SOL     OW52320   2.339   7.525   9.831
83494SOL    HW152321   2.297   7.446   9.865
83494SOL    HW252322   2.394   7.556   9.903
83495SOL     OW52323   7.170  14.175   5.175
83495SOL    HW152324   7.180  14.084   5.205
83495SOL    HW252325   7.159  14.167   5.080
83496SOL     OW52326   1.290   6.767   2.308
83496SOL    HW152327   1.369   6.803   2.348
83496SOL    HW252328   1.309   6.765   2.214
83497SOL     OW52329   6.098   4.856   1.852
83497SOL    HW152330   6.168   4.893   1.905
83497SOL    HW252331   6.117   4.763   1.848
83498SOL     OW52332   3.292   8.119   8.054
83498SOL    HW152333   3.343   8.072   8.120
83498SOL    HW252334   3.204   8.082   8.060
83499SOL     OW52335   2.226  14.408   1.173
83499SOL    HW152336   2.197  14.320   1.195
83499SOL    HW252337   2.161  14.441   1.111
83500SOL     OW52338  12.817   7.984   3.084
83500SOL    HW152339  12.879   7.920   3.119
83500SOL    HW252340  12.868   8.065   3.077
83501SOL     OW52341   1.285  13.367   9.925
83501SOL    HW152342   1.336  13.327   9.855
83501SOL    HW252343   1.298  13.461   9.913
83502SOL     OW52344   3.559   5.491   2.731
83502SOL    HW152345   3.563   5.531   2.818
83502SOL    HW252346   3.620   5.543   2.678
83503SOL     OW52347   0.042   7.927   8.218
83503SOL    HW152348   0.093   7.893   8.291
83503SOL    HW252349  14.824   7.912   8.243
83504SOL     OW52350  10.966   9.130   9.021
83504SOL    HW152351  10.903   9.094   9.083
83504SOL    HW252352  10.916   9.198   8.974
83505SOL     OW52353   4.547  10.377   4.645
83505SOL    HW152354   4.483  10.443   4.618
83505SOL    HW252355   4.502  10.328   4.714
83506SOL     OW52356   4.992   6.126   3.828
83506SOL    HW152357   4.903   6.155   3.808
83506SOL    HW252358   5.039   6.136   3.745
83507SOL     OW52359   3.321   0.528   1.045
83507SOL    HW152360   3.366   0.551   0.963
83507SOL    HW252361   3.346   0.437   1.060
83508SOL     OW52362   5.697   1.080   1.493
83508SOL    HW152363   5.607   1.050   1.506
83508SOL    HW252364   5.695   1.123   1.407
83509SOL     OW52365  10.854   5.878   7.787
83509SOL    HW152366  10.819   5.853   7.873
83509SOL    HW252367  10.913   5.951   7.806
83510SOL     OW52368   5.470   4.650   4.485
83510SOL    HW152369   5.402   4.716   4.499
83510SOL    HW252370   5.473   4.601   4.567
83511SOL     OW52371  13.068   2.998   2.117
83511SOL    HW152372  13.128   3.050   2.170
83511SOL    HW252373  13.074   2.910   2.154
83512SOL     OW52374   0.659  12.216   5.998
83512SOL    HW152375   0.717  12.179   5.931
83512SOL    HW252376   0.671  12.159   6.074
83513SOL     OW52377  12.350   9.789  10.119
83513SOL    HW152378  12.359   9.883  10.106
83513SOL    HW252379  12.281   9.763  10.057
83514SOL     OW52380   9.256   1.059   4.549
83514SOL    HW152381   9.277   1.153   4.552
83514SOL    HW252382   9.171   1.055   4.504
83515SOL     OW52383   6.268  12.418   4.272
83515SOL    HW152384   6.202  12.487   4.282
83515SOL    HW252385   6.250  12.357   4.344
83516SOL     OW52386   1.390   9.910   7.333
83516SOL    HW152387   1.444   9.879   7.260
83516SOL    HW252388   1.351   9.831   7.370
83517SOL     OW52389  11.017  14.708  11.419
83517SOL    HW152390  11.083  14.741  11.358
83517SOL    HW252391  11.054  14.724  11.506
83518SOL     OW52392   7.629  12.027   2.462
83518SOL    HW152393   7.657  12.108   2.506
83518SOL    HW252394   7.603  11.969   2.533
83519SOL     OW52395   8.204   4.671   8.462
83519SOL    HW152396   8.157   4.597   8.424
83519SOL    HW252397   8.143   4.707   8.527
83520SOL     OW52398   7.793   0.923  14.425
83520SOL    HW152399   7.758   0.879  14.502
83520SOL    HW252400   7.850   0.992  14.460
83521SOL     OW52401  13.800   1.529   3.794
83521SOL    HW152402  13.790   1.536   3.699
83521SOL    HW252403  13.803   1.435   3.811
83522SOL     OW52404   1.860  11.985   5.830
83522SOL    HW152405   1.779  12.035   5.830
83522SOL    HW252406   1.929  12.052   5.825
83523SOL     OW52407  12.401   8.888   1.935
83523SOL    HW152408  12.425   8.836   2.012
83523SOL    HW252409  12.363   8.825   1.874
83524SOL     OW52410   7.827  13.292  14.728
83524SOL    HW152411   7.808  13.225  14.663
83524SOL    HW252412   7.752  13.352  14.723
83525SOL     OW52413   4.944   3.621  10.853
83525SOL    HW152414   4.974   3.543  10.901
83525SOL    HW252415   4.971   3.605  10.762
83526SOL     OW52416   3.419  11.732   0.010
83526SOL    HW152417   3.414  11.794  14.811
83526SOL    HW252418   3.496  11.759   0.060
83527SOL     OW52419  14.253   6.293   8.902
83527SOL    HW152420  14.319   6.361   8.917
83527SOL    HW252421  14.202   6.325   8.828
83528SOL     OW52422  13.203   6.830   8.239
83528SOL    HW152423  13.291   6.864   8.253
83528SOL    HW252424  13.171   6.808   8.326
83529SOL     OW52425  13.544   6.362   4.169
83529SOL    HW152426  13.615   6.403   4.218
83529SOL    HW252427  13.484   6.433   4.148
83530SOL     OW52428  11.939  11.195   6.023
83530SOL    HW152429  11.896  11.223   6.104
83530SOL    HW252430  11.905  11.255   5.956
83531SOL     OW52431   9.476   0.313  11.242
83531SOL    HW152432   9.493   0.376  11.312
83531SOL    HW252433   9.388   0.280  11.260
83532SOL     OW52434   4.948  13.691  13.671
83532SOL    HW152435   4.990  13.774  13.648
83532SOL    HW252436   5.003  13.654  13.740
83533SOL     OW52437   9.606   3.858   7.889
83533SOL    HW152438   9.566   3.844   7.974
83533SOL    HW252439   9.566   3.792   7.832
83534SOL     OW52440   7.323   0.198   1.791
83534SOL    HW152441   7.358   0.121   1.836
83534SOL    HW252442   7.394   0.262   1.794
83535SOL     OW52443   3.610  11.877  12.598
83535SOL    HW152444   3.636  11.963  12.567
83535SOL    HW252445   3.518  11.887  12.622
83536SOL     OW52446   2.523   4.236  13.501
83536SOL    HW152447   2.452   4.178  13.474
83536SOL    HW252448   2.491   4.277  13.582
83537SOL     OW52449   0.790   3.074   7.820
83537SOL    HW152450   0.882   3.047   7.821
83537SOL    HW252451   0.751   3.020   7.751
83538SOL     OW52452   9.067   8.907   0.213
83538SOL    HW152453   9.139   8.901   0.275
83538SOL    HW252454   8.989   8.883   0.265
83539SOL     OW52455   7.827   9.878   9.960
83539SOL    HW152456   7.804   9.970   9.975
83539SOL    HW252457   7.828   9.839  10.047
83540SOL     OW52458   7.702  12.858   9.328
83540SOL    HW152459   7.625  12.822   9.371
83540SOL    HW252460   7.722  12.797   9.257
83541SOL     OW52461   6.778   0.213  10.310
83541SOL    HW152462   6.765   0.293  10.361
83541SOL    HW252463   6.872   0.198  10.312
83542SOL     OW52464  13.592   5.917  13.603
83542SOL    HW152465  13.506   5.875  13.602
83542SOL    HW252466  13.646   5.863  13.546
83543SOL     OW52467   0.725   1.280   9.229
83543SOL    HW152468   0.743   1.187   9.223
83543SOL    HW252469   0.782   1.320   9.164
83544SOL     OW52470   4.483   7.169   7.477
83544SOL    HW152471   4.540   7.245   7.487
83544SOL    HW252472   4.395   7.205   7.480
83545SOL     OW52473   1.394   6.789   7.144
83545SOL    HW152474   1.384   6.834   7.228
83545SOL    HW252475   1.359   6.851   7.079
83546SOL     OW52476   6.092  13.547   2.128
83546SOL    HW152477   6.175  13.503   2.142
83546SOL    HW252478   6.085  13.609   2.200
83547SOL     OW52479   1.121   3.446   5.694
83547SOL    HW152480   1.053   3.462   5.628
83547SOL    HW252481   1.177   3.379   5.655
83548SOL     OW52482   3.646   2.091   6.174
83548SOL    HW152483   3.671   2.140   6.252
83548SOL    HW252484   3.729   2.073   6.129
83549SOL     OW52485   1.633   7.171   4.888
83549SOL    HW152486   1.538   7.170   4.901
83549SOL    HW252487   1.645   7.154   4.795
83550SOL     OW52488   4.172   9.708   2.275
83550SOL    HW152489   4.176   9.752   2.190
83550SOL    HW252490   4.165   9.779   2.339
83551SOL     OW52491   0.024  13.011   7.350
83551SOL    HW152492   0.110  13.013   7.308
83551SOL    HW252493   0.012  13.100   7.383
83552SOL     OW52494   4.463  13.851  11.047
83552SOL    HW152495   4.430  13.898  10.970
83552SOL    HW252496   4.416  13.768  11.046
83553SOL     OW52497   2.675   4.364   6.402
83553SOL    HW152498   2.700   4.432   6.466
83553SOL    HW252499   2.596   4.399   6.361
83554SOL     OW52500  13.125  12.637  11.841
83554SOL    HW152501  13.048  12.581  11.852
83554SOL    HW252502  13.187  12.583  11.791
83555SOL     OW52503   9.511  12.667   0.760
83555SOL    HW152504   9.590  12.672   0.705
83555SOL    HW252505   9.530  12.596   0.822
83556SOL     OW52506   6.987   2.146  14.070
83556SOL    HW152507   6.927   2.148  14.144
83556SOL    HW252508   6.956   2.215  14.011
83557SOL     OW52509  11.788   9.737   8.985
83557SOL    HW152510  11.725   9.694   9.042
83557SOL    HW252511  11.734   9.782   8.920
83558SOL     OW52512  12.768   7.177   2.886
83558SOL    HW152513  12.752   7.140   2.973
83558SOL    HW252514  12.812   7.260   2.903
83559SOL     OW52515   7.534   9.872   9.303
83559SOL    HW152516   7.481   9.934   9.353
83559SOL    HW252517   7.493   9.870   9.217
83560SOL     OW52518   6.649   6.357   5.309
83560SOL    HW152519   6.651   6.439   5.261
83560SOL    HW252520   6.729   6.358   5.362
83561SOL     OW52521   4.536  11.380   3.250
83561SOL    HW152522   4.553  11.286   3.237
83561SOL    HW252523   4.621  11.416   3.277
83562SOL     OW52524   0.886  10.887   4.311
83562SOL    HW152525   0.908  10.917   4.399
83562SOL    HW252526   0.834  10.808   4.325
83563SOL     OW52527   3.030   8.673   6.109
83563SOL    HW152528   2.935   8.675   6.123
83563SOL    HW252529   3.056   8.584   6.135
83564SOL     OW52530   1.914   5.063   4.757
83564SOL    HW152531   1.892   5.060   4.663
83564SOL    HW252532   1.961   5.145   4.768
83565SOL     OW52533   0.202  12.816  14.318
83565SOL    HW152534   0.286  12.797  14.361
83565SOL    HW252535   0.210  12.775  14.232
83566SOL     OW52536   4.089   7.479  10.692
83566SOL    HW152537   4.161   7.438  10.741
83566SOL    HW252538   4.068   7.558  10.743
83567SOL     OW52539  14.855   0.610  13.758
83567SOL    HW152540   0.042   0.549  13.800
83567SOL    HW252541   0.038   0.679  13.723
83568SOL     OW52542   2.905   8.112   0.688
83568SOL    HW152543   2.880   8.189   0.739
83568SOL    HW252544   2.822   8.073   0.661
83569SOL     OW52545  10.276   5.173   9.538
83569SOL    HW152546  10.327   5.249   9.565
83569SOL    HW252547  10.327   5.133   9.468
83570SOL     OW52548   8.099   3.005  14.865
83570SOL    HW152549   8.192   3.024   0.004
83570SOL    HW252550   8.058   3.091  14.862
83571SOL     OW52551   5.768   1.326   5.749
83571SOL    HW152552   5.727   1.329   5.836
83571SOL    HW252553   5.783   1.233   5.732
83572SOL     OW52554  10.093  10.608   9.320
83572SOL    HW152555  10.136  10.669   9.262
83572SOL    HW252556  10.162  10.549   9.351
83573SOL     OW52557  14.620   8.253   1.878
83573SOL    HW152558  14.649   8.182   1.936
83573SOL    HW252559  14.612   8.212   1.792
83574SOL     OW52560  11.694  14.219   4.398
83574SOL    HW152561  11.674  14.173   4.317
83574SOL    HW252562  11.608  14.234   4.439
83575SOL     OW52563   0.043  10.901   5.015
83575SOL    HW152564   0.115  10.897   5.078
83575SOL    HW252565   0.079  10.951   4.941
83576SOL     OW52566   0.724   1.583  10.141
83576SOL    HW152567   0.809   1.601  10.179
83576SOL    HW252568   0.687   1.514  10.196
83577SOL     OW52569   3.393   3.434   2.544
83577SOL    HW152570   3.315   3.481   2.513
83577SOL    HW252571   3.457   3.503   2.560
83578SOL     OW52572  14.323  12.513   8.489
83578SOL    HW152573  14.279  12.465   8.419
83578SOL    HW252574  14.361  12.445   8.545
83579SOL     OW52575   1.875  10.330  13.884
83579SOL    HW152576   1.907  10.284  13.806
83579SOL    HW252577   1.805  10.274  13.917
83580SOL     OW52578   1.773   7.429   5.489
83580SOL    HW152579   1.706   7.438   5.421
83580SOL    HW252580   1.734   7.372   5.554
83581SOL     OW52581  13.956   7.048   3.061
83581SOL    HW152582  14.048   7.039   3.086
83581SOL    HW252583  13.932   6.964   3.023
83582SOL     OW52584  14.069   3.909   5.547
83582SOL    HW152585  14.150   3.868   5.578
83582SOL    HW252586  14.000   3.847   5.571
83583SOL     OW52587  10.489   2.597  13.654
83583SOL    HW152588  10.422   2.663  13.638
83583SOL    HW252589  10.536   2.629  13.730
83584SOL     OW52590  10.743  10.974   3.269
83584SOL    HW152591  10.651  10.947   3.274
83584SOL    HW252592  10.788  10.919   3.333
83585SOL     OW52593  10.057   2.101   7.756
83585SOL    HW152594   9.978   2.113   7.808
83585SOL    HW252595  10.046   2.015   7.715
83586SOL     OW52596  10.765   5.439   5.981
83586SOL    HW152597  10.707   5.505   6.019
83586SOL    HW252598  10.708   5.362   5.969
83587SOL     OW52599   2.211  13.648   1.784
83587SOL    HW152600   2.213  13.575   1.846
83587SOL    HW252601   2.192  13.607   1.700
83588SOL     OW52602   3.658   9.965   7.463
83588SOL    HW152603   3.706   9.996   7.540
83588SOL    HW252604   3.707   9.999   7.388
83589SOL     OW52605  13.710  10.361   2.348
83589SOL    HW152606  13.711  10.437   2.406
83589SOL    HW252607  13.642  10.304   2.384
83590SOL     OW52608   5.619   1.415   1.645
83590SOL    HW152609   5.566   1.342   1.615
83590SOL    HW252610   5.579   1.492   1.604
83591SOL     OW52611  11.949  11.739   3.480
83591SOL    HW152612  11.914  11.686   3.552
83591SOL    HW252613  12.022  11.787   3.519
83592SOL     OW52614   9.053   5.560   1.483
83592SOL    HW152615   9.118   5.541   1.416
83592SOL    HW252616   9.081   5.509   1.559
83593SOL     OW52617  14.033  14.446  12.850
83593SOL    HW152618  14.067  14.485  12.770
83593SOL    HW252619  14.098  14.467  12.917
83594SOL     OW52620  14.630   4.999  14.136
83594SOL    HW152621  14.663   4.941  14.067
83594SOL    HW252622  14.551   5.039  14.098
83595SOL     OW52623   6.123   2.074  12.365
83595SOL    HW152624   6.116   1.993  12.416
83595SOL    HW252625   6.081   2.054  12.282
83596SOL     OW52626   4.072  11.046  11.688
83596SOL    HW152627   4.159  11.011  11.708
83596SOL    HW252628   4.016  11.012  11.758
83597SOL     OW52629   7.658  14.160  13.137
83597SOL    HW152630   7.589  14.100  13.109
83597SOL    HW252631   7.661  14.150  13.232
83598SOL     OW52632   9.449  10.434   0.301
83598SOL    HW152633   9.399  10.381   0.238
83598SOL    HW252634   9.504  10.371   0.346
83599SOL     OW52635   5.051   5.663  14.471
83599SOL    HW152636   5.101   5.694  14.396
83599SOL    HW252637   5.066   5.730  14.539
83600SOL     OW52638   1.404   2.867  14.593
83600SOL    HW152639   1.361   2.785  14.621
83600SOL    HW252640   1.487   2.838  14.555
83601SOL     OW52641  13.758   5.479   9.950
83601SOL    HW152642  13.714   5.483   9.865
83601SOL    HW252643  13.797   5.565   9.961
83602SOL     OW52644   9.904   0.734  10.213
83602SOL    HW152645   9.814   0.759  10.236
83602SOL    HW252646   9.955   0.814  10.225
83603SOL     OW52647   0.345  14.317  11.693
83603SOL    HW152648   0.336  14.234  11.740
83603SOL    HW252649   0.404  14.297  11.620
83604SOL     OW52650   7.775  14.402   4.454
83604SOL    HW152651   7.696  14.377   4.502
83604SOL    HW252652   7.845  14.351   4.495
83605SOL     OW52653   9.472  12.335   9.233
83605SOL    HW152654   9.498  12.322   9.142
83605SOL    HW252655   9.551  12.369   9.276
83606SOL     OW52656   3.603   8.949   4.678
83606SOL    HW152657   3.678   8.967   4.735
83606SOL    HW252658   3.605   9.018   4.612
83607SOL     OW52659   8.720   0.066   9.424
83607SOL    HW152660   8.667   0.144   9.437
83607SOL    HW252661   8.664  14.867   9.452
83608SOL     OW52662  14.217   1.447   2.811
83608SOL    HW152663  14.174   1.476   2.891
83608SOL    HW252664  14.300   1.496   2.809
83609SOL     OW52665  14.025  14.613   2.822
83609SOL    HW152666  13.960  14.547   2.843
83609SOL    HW252667  14.090  14.608   2.892
83610SOL     OW52668   7.111   5.454  10.194
83610SOL    HW152669   7.199   5.473  10.228
83610SOL    HW252670   7.057   5.445  10.272
83611SOL     OW52671  12.118  13.860  11.198
83611SOL    HW152672  12.036  13.887  11.239
83611SOL    HW252673  12.092  13.795  11.132
83612SOL     OW52674  14.264   9.319   9.952
83612SOL    HW152675  14.195   9.279   9.899
83612SOL    HW252676  14.292   9.395   9.902
83613SOL     OW52677   4.112   0.453   2.551
83613SOL    HW152678   4.179   0.391   2.522
83613SOL    HW252679   4.149   0.539   2.532
83614SOL     OW52680   8.094  13.937   3.054
83614SOL    HW152681   8.047  13.859   3.025
83614SOL    HW252682   8.031  13.984   3.109
83615SOL     OW52683   6.082   6.579   4.616
83615SOL    HW152684   6.131   6.542   4.542
83615SOL    HW252685   6.005   6.522   4.623
83616SOL     OW52686  10.647  10.586  13.863
83616SOL    HW152687  10.722  10.530  13.882
83616SOL    HW252688  10.676  10.641  13.791
83617SOL     OW52689   8.817   3.860   2.164
83617SOL    HW152690   8.809   3.768   2.188
83617SOL    HW252691   8.731   3.883   2.129
83618SOL     OW52692   9.491   4.546   0.889
83618SOL    HW152693   9.552   4.601   0.936
83618SOL    HW252694   9.477   4.470   0.946
83619SOL     OW52695  13.858   9.992   8.173
83619SOL    HW152696  13.846  10.085   8.192
83619SOL    HW252697  13.933   9.966   8.227
83620SOL     OW52698   3.241   6.746  14.066
83620SOL    HW152699   3.188   6.708  14.136
83620SOL    HW252700   3.227   6.840  14.074
83621SOL     OW52701   5.163   9.440   0.398
83621SOL    HW152702   5.077   9.471   0.426
83621SOL    HW252703   5.174   9.474   0.310
83622SOL     OW52704   6.774   7.866   6.016
83622SOL    HW152705   6.700   7.868   6.076
83622SOL    HW252706   6.736   7.874   5.929
83623SOL     OW52707  12.014  13.281   7.527
83623SOL    HW152708  12.001  13.309   7.436
83623SOL    HW252709  11.926  13.268   7.561
83624SOL     OW52710   9.249   9.812   4.792
83624SOL    HW152711   9.218   9.806   4.882
83624SOL    HW252712   9.201   9.887   4.756
83625SOL     OW52713   3.303   1.238   6.646
83625SOL    HW152714   3.311   1.178   6.573
83625SOL    HW252715   3.374   1.301   6.634
83626SOL     OW52716  14.444   8.196  13.288
83626SOL    HW152717  14.393   8.276  13.297
83626SOL    HW252718  14.525   8.213  13.336
83627SOL     OW52719  13.000   8.049  14.643
83627SOL    HW152720  12.919   8.016  14.603
83627SOL    HW252721  13.018   8.130  14.595
83628SOL     OW52722   2.244   3.070  12.137
83628SOL    HW152723   2.215   2.982  12.161
83628SOL    HW252724   2.183   3.098  12.069
83629SOL     OW52725   8.195   6.951   0.365
83629SOL    HW152726   8.181   6.955   0.460
83629SOL    HW252727   8.127   6.892   0.334
83630SOL     OW52728   8.982   2.959   7.017
83630SOL    HW152729   9.020   2.913   6.941
83630SOL    HW252730   8.932   2.891   7.063
83631SOL     OW52731  10.307  10.694   2.187
83631SOL    HW152732  10.276  10.699   2.277
83631SOL    HW252733  10.402  10.705   2.194
83632SOL     OW52734   4.666   2.782   8.457
83632SOL    HW152735   4.673   2.822   8.544
83632SOL    HW252736   4.749   2.804   8.414
83633SOL     OW52737   8.260   5.353   0.506
83633SOL    HW152738   8.183   5.297   0.510
83633SOL    HW252739   8.334   5.295   0.519
83634SOL     OW52740  11.192  11.785  13.605
83634SOL    HW152741  11.147  11.864  13.637
83634SOL    HW252742  11.202  11.730  13.683
83635SOL     OW52743   1.987  10.046  13.025
83635SOL    HW152744   2.066  10.091  12.995
83635SOL    HW252745   1.965   9.985  12.955
83636SOL     OW52746   4.679   7.586  13.104
83636SOL    HW152747   4.717   7.667  13.138
83636SOL    HW252748   4.624   7.614  13.031
83637SOL     OW52749   0.425   0.460   3.913
83637SOL    HW152750   0.342   0.432   3.951
83637SOL    HW252751   0.404   0.477   3.821
83638SOL     OW52752  13.378  13.280   7.687
83638SOL    HW152753  13.436  13.236   7.625
83638SOL    HW252754  13.321  13.334   7.633
83639SOL     OW52755  10.586   3.400   1.329
83639SOL    HW152756  10.635   3.330   1.287
83639SOL    HW252757  10.638   3.479   1.312
83640SOL     OW52758   6.472  13.622  10.326
83640SOL    HW152759   6.440  13.533  10.309
83640SOL    HW252760   6.492  13.622  10.420
83641SOL     OW52761   1.024   0.295   1.498
83641SOL    HW152762   1.011   0.230   1.567
83641SOL    HW252763   1.079   0.362   1.538
83642SOL     OW52764   5.738  10.027  14.278
83642SOL    HW152765   5.784  10.074  14.209
83642SOL    HW252766   5.766  10.070  14.359
83643SOL     OW52767   2.500   2.102   9.073
83643SOL    HW152768   2.533   2.021   9.034
83643SOL    HW252769   2.424   2.074   9.125
83644SOL     OW52770  11.322   7.669   0.386
83644SOL    HW152771  11.321   7.690   0.480
83644SOL    HW252772  11.231   7.652   0.365
83645SOL     OW52773   8.344   1.064   1.429
83645SOL    HW152774   8.431   1.028   1.407
83645SOL    HW252775   8.357   1.107   1.513
83646SOL     OW52776   1.983  10.864   5.978
83646SOL    HW152777   1.931  10.931   6.023
83646SOL    HW252778   2.024  10.910   5.905
83647SOL     OW52779  14.561   7.133   8.634
83647SOL    HW152780  14.566   7.197   8.563
83647SOL    HW252781  14.474   7.093   8.623
83648SOL     OW52782   2.096  14.613   1.365
83648SOL    HW152783   2.137  14.695   1.392
83648SOL    HW252784   2.163  14.570   1.311
83649SOL     OW52785   4.920   7.448   4.467
83649SOL    HW152786   4.993   7.486   4.417
83649SOL    HW252787   4.893   7.372   4.417
83650SOL     OW52788   1.150   6.694  12.115
83650SOL    HW152789   1.217   6.637  12.153
83650SOL    HW252790   1.196   6.775  12.095
83651SOL     OW52791  13.857   7.407  11.828
83651SOL    HW152792  13.881   7.499  11.817
83651SOL    HW252793  13.925   7.359  11.781
83652SOL     OW52794   0.151   9.588   5.508
83652SOL    HW152795   0.079   9.549   5.459
83652SOL    HW252796   0.193   9.514   5.551
83653SOL     OW52797   3.734   9.336   7.487
83653SOL    HW152798   3.755   9.422   7.450
83653SOL    HW252799   3.774   9.273   7.428
83654SOL     OW52800  12.126   6.853   2.551
83654SOL    HW152801  12.193   6.856   2.619
83654SOL    HW252802  12.119   6.760   2.529
83655SOL     OW52803  12.010   2.388   2.573
83655SOL    HW152804  11.936   2.367   2.517
83655SOL    HW252805  12.080   2.330   2.543
83656SOL     OW52806  12.766   9.432   2.904
83656SOL    HW152807  12.830   9.485   2.858
83656SOL    HW252808  12.811   9.403   2.984
83657SOL     OW52809  12.923   2.876  14.427
83657SOL    HW152810  12.892   2.918  14.507
83657SOL    HW252811  12.845   2.835  14.390
83658SOL     OW52812   2.503   8.351   4.446
83658SOL    HW152813   2.474   8.377   4.533
83658SOL    HW252814   2.425   8.311   4.406
83659SOL     OW52815   5.427  14.549   7.781
83659SOL    HW152816   5.428  14.608   7.707
83659SOL    HW252817   5.345  14.569   7.827
83660SOL     OW52818  13.704   4.281   6.745
83660SOL    HW152819  13.797   4.300   6.744
83660SOL    HW252820  13.679   4.283   6.837
83661SOL     OW52821   0.170   1.103   2.729
83661SOL    HW152822   0.075   1.115   2.727
83661SOL    HW252823   0.182   1.011   2.749
83662SOL     OW52824  11.331  11.389  12.817
83662SOL    HW152825  11.393  11.458  12.841
83662SOL    HW252826  11.381  11.331  12.759
83663SOL     OW52827   7.621  11.978  11.949
83663SOL    HW152828   7.576  11.981  12.033
83663SOL    HW252829   7.552  11.992  11.884
83664SOL     OW52830  12.441  11.091   9.161
83664SOL    HW152831  12.389  11.053   9.231
83664SOL    HW252832  12.400  11.060   9.081
83665SOL     OW52833   4.907   3.295   4.553
83665SOL    HW152834   4.867   3.337   4.477
83665SOL    HW252835   4.976   3.239   4.515
83666SOL     OW52836   1.528   2.870   3.749
83666SOL    HW152837   1.508   2.854   3.841
83666SOL    HW252838   1.450   2.840   3.701
83667SOL     OW52839   1.027   1.763  14.286
83667SOL    HW152840   0.953   1.763  14.346
83667SOL    HW252841   0.997   1.815  14.211
83668SOL     OW52842  14.427   4.344  13.180
83668SOL    HW152843  14.347   4.359  13.231
83668SOL    HW252844  14.472   4.428  13.181
83669SOL     OW52845   7.446   5.209  13.029
83669SOL    HW152846   7.406   5.296  13.033
83669SOL    HW252847   7.446   5.188  12.936
83670SOL     OW52848   8.321   9.676   0.649
83670SOL    HW152849   8.342   9.737   0.578
83670SOL    HW252850   8.399   9.620   0.655
83671SOL     OW52851   3.979  14.701   4.228
83671SOL    HW152852   4.047  14.641   4.198
83671SOL    HW252853   3.955  14.751   4.150
83672SOL     OW52854   1.866  14.543   4.612
83672SOL    HW152855   1.948  14.567   4.568
83672SOL    HW252856   1.872  14.584   4.698
83673SOL     OW52857  13.872   0.534  13.683
83673SOL    HW152858  13.855   0.535  13.589
83673SOL    HW252859  13.838   0.618  13.714
83674SOL     OW52860   9.304   4.252   8.118
83674SOL    HW152861   9.268   4.182   8.172
83674SOL    HW252862   9.305   4.216   8.030
83675SOL     OW52863   0.500   9.752  10.610
83675SOL    HW152864   0.419   9.788  10.573
83675SOL    HW252865   0.482   9.659  10.622
83676SOL     OW52866  10.937   3.903  14.808
83676SOL    HW152867  10.950   3.817  14.848
83676SOL    HW252868  10.844   3.921  14.819
83677SOL     OW52869  11.089   5.241   6.527
83677SOL    HW152870  11.095   5.309   6.594
83677SOL    HW252871  11.127   5.280   6.449
83678SOL     OW52872   6.136  13.356   5.601
83678SOL    HW152873   6.106  13.272   5.637
83678SOL    HW252874   6.230  13.357   5.617
83679SOL     OW52875  14.020   1.783   7.493
83679SOL    HW152876  14.044   1.868   7.531
83679SOL    HW252877  13.959   1.804   7.423
83680SOL     OW52878  13.124  12.538   4.883
83680SOL    HW152879  13.085  12.612   4.836
83680SOL    HW252880  13.068  12.463   4.861
83681SOL     OW52881  10.799   9.853  14.196
83681SOL    HW152882  10.835   9.815  14.276
83681SOL    HW252883  10.777   9.943  14.220
83682SOL     OW52884  11.666   6.253   0.172
83682SOL    HW152885  11.653   6.244   0.077
83682SOL    HW252886  11.730   6.324   0.180
83683SOL     OW52887  10.078   9.901   9.344
83683SOL    HW152888  10.020   9.950   9.403
83683SOL    HW252889  10.036   9.907   9.258
83684SOL     OW52890   1.774  13.778   4.558
83684SOL    HW152891   1.720  13.752   4.633
83684SOL    HW252892   1.758  13.872   4.549
83685SOL     OW52893   9.038   2.251  12.605
83685SOL    HW152894   9.065   2.343  12.603
83685SOL    HW252895   8.976   2.242  12.533
83686SOL     OW52896  10.457  10.566   1.283
83686SOL    HW152897  10.502  10.489   1.247
83686SOL    HW252898  10.527  10.629   1.300
83687SOL     OW52899   0.800   7.425   1.046
83687SOL    HW152900   0.726   7.480   1.019
83687SOL    HW252901   0.876   7.482   1.038
83688SOL     OW52902  11.884  12.084  10.035
83688SOL    HW152903  11.912  12.067  10.125
83688SOL    HW252904  11.874  12.179  10.030
83689SOL     OW52905   5.297   8.981  14.368
83689SOL    HW152906   5.312   9.040  14.442
83689SOL    HW252907   5.270   8.899  14.408
83690SOL     OW52908   9.900   9.019   1.155
83690SOL    HW152909   9.977   9.071   1.175
83690SOL    HW252910   9.827   9.070   1.190
83691SOL     OW52911   9.599  14.542   3.294
83691SOL    HW152912   9.588  14.619   3.351
83691SOL    HW252913   9.566  14.570   3.209
83692SOL     OW52914   8.516  14.025   9.422
83692SOL    HW152915   8.554  13.974   9.351
83692SOL    HW252916   8.573  14.101   9.431
83693SOL     OW52917  10.096   0.122   6.508
83693SOL    HW152918  10.037   0.191   6.478
83693SOL    HW252919  10.069   0.044   6.460
83694SOL     OW52920  14.546   1.923   3.536
83694SOL    HW152921  14.473   1.890   3.589
83694SOL    HW252922  14.565   1.854   3.473
83695SOL     OW52923  14.587   8.069  13.981
83695SOL    HW152924  14.582   8.158  14.017
83695SOL    HW252925  14.531   8.017  14.039
83696SOL     OW52926   1.367   1.135   9.708
83696SOL    HW152927   1.415   1.139   9.791
83696SOL    HW252928   1.418   1.074   9.655
83697SOL     OW52929   9.440   7.987   0.589
83697SOL    HW152930   9.515   8.014   0.536
83697SOL    HW252931   9.414   7.903   0.553
83698SOL     OW52932   6.587   0.694   2.725
83698SOL    HW152933   6.518   0.708   2.789
83698SOL    HW252934   6.605   0.781   2.689
83699SOL     OW52935  11.343   0.262   1.797
83699SOL    HW152936  11.296   0.257   1.714
83699SOL    HW252937  11.300   0.333   1.845
83700SOL     OW52938  14.580   3.949   1.817
83700SOL    HW152939  14.594   4.038   1.783
83700SOL    HW252940  14.503   3.957   1.873
83701SOL     OW52941   7.430   6.216   1.533
83701SOL    HW152942   7.439   6.125   1.561
83701SOL    HW252943   7.490   6.264   1.590
83702SOL     OW52944   0.647   8.567   9.472
83702SOL    HW152945   0.696   8.495   9.431
83702SOL    HW252946   0.562   8.529   9.492
83703SOL     OW52947   8.840   4.640   8.308
83703SOL    HW152948   8.770   4.700   8.281
83703SOL    HW252949   8.848   4.653   8.402
83704SOL     OW52950   1.774  12.583   3.921
83704SOL    HW152951   1.761  12.628   4.004
83704SOL    HW252952   1.771  12.490   3.943
83705SOL     OW52953   6.607   3.582   6.438
83705SOL    HW152954   6.608   3.676   6.460
83705SOL    HW252955   6.609   3.538   6.522
83706SOL     OW52956   8.341  12.525   9.734
83706SOL    HW152957   8.312  12.468   9.805
83706SOL    HW252958   8.298  12.609   9.752
83707SOL     OW52959   8.641   1.614   9.341
83707SOL    HW152960   8.642   1.536   9.285
83707SOL    HW252961   8.725   1.657   9.324
83708SOL     OW52962   7.452   2.209   5.345
83708SOL    HW152963   7.397   2.186   5.420
83708SOL    HW252964   7.534   2.161   5.360
83709SOL     OW52965  11.893   2.825   7.152
83709SOL    HW152966  11.987   2.838   7.136
83709SOL    HW252967  11.891   2.760   7.222
83710SOL     OW52968   7.546   7.292  13.312
83710SOL    HW152969   7.496   7.374  13.306
83710SOL    HW252970   7.539   7.254  13.224
83711SOL     OW52971   4.589  13.003   9.127
83711SOL    HW152972   4.609  13.016   9.034
83711SOL    HW252973   4.549  12.916   9.131
83712SOL     OW52974  11.701  13.185   2.530
83712SOL    HW152975  11.747  13.269   2.527
83712SOL    HW252976  11.713  13.154   2.620
83713SOL     OW52977   3.637  12.391  12.626
83713SOL    HW152978   3.680  12.350  12.551
83713SOL    HW252979   3.606  12.318  12.679
83714SOL     OW52980   0.902   1.131   6.454
83714SOL    HW152981   0.955   1.206   6.479
83714SOL    HW252982   0.937   1.058   6.505
83715SOL     OW52983  11.653  10.575  10.295
83715SOL    HW152984  11.583  10.568  10.230
83715SOL    HW252985  11.643  10.663  10.331
83716SOL     OW52986  10.676  11.217   7.245
83716SOL    HW152987  10.706  11.168   7.321
83716SOL    HW252988  10.699  11.162   7.170
83717SOL     OW52989  12.722   4.853  14.596
83717SOL    HW152990  12.703   4.884  14.684
83717SOL    HW252991  12.715   4.758  14.601
83718SOL     OW52992   9.805   8.459   5.061
83718SOL    HW152993   9.834   8.400   4.991
83718SOL    HW252994   9.719   8.425   5.086
83719SOL     OW52995   4.780   2.135   7.859
83719SOL    HW152996   4.828   2.078   7.919
83719SOL    HW252997   4.743   2.203   7.915
83720SOL     OW52998   2.836  13.622  13.461
83720SOL    HW152999   2.756  13.616  13.410
83720SOL    HW253000   2.811  13.594  13.549
83721SOL     OW53001   6.363  14.261  12.270
83721SOL    HW153002   6.300  14.328  12.297
83721SOL    HW253003   6.308  14.192  12.232
83722SOL     OW53004   8.985   1.164  13.297
83722SOL    HW153005   9.002   1.241  13.244
83722SOL    HW253006   8.913   1.189  13.354
83723SOL     OW53007  10.814   3.460   3.258
83723SOL    HW153008  10.738   3.455   3.199
83723SOL    HW253009  10.798   3.391   3.323
83724SOL     OW53010   5.024   4.178   8.119
83724SOL    HW153011   5.003   4.167   8.211
83724SOL    HW253012   5.096   4.116   8.103
83725SOL     OW53013  10.515   1.577   3.691
83725SOL    HW153014  10.432   1.615   3.663
83725SOL    HW253015  10.581   1.642   3.665
83726SOL     OW53016   7.603  14.470   1.068
83726SOL    HW153017   7.592  14.554   1.113
83726SOL    HW253018   7.562  14.482   0.983
83727SOL     OW53019  10.493   7.960   6.759
83727SOL    HW153020  10.544   7.915   6.827
83727SOL    HW253021  10.523   7.922   6.677
83728SOL     OW53022   3.128   1.588   8.233
83728SOL    HW153023   3.058   1.645   8.264
83728SOL    HW253024   3.195   1.593   8.301
83729SOL     OW53025   7.991  12.351   3.457
83729SOL    HW153026   8.075  12.316   3.426
83729SOL    HW253027   8.015  12.424   3.513
83730SOL     OW53028   8.371   5.711  10.789
83730SOL    HW153029   8.305   5.707  10.719
83730SOL    HW253030   8.360   5.628  10.836
83731SOL     OW53031  13.503   8.341   9.719
83731SOL    HW153032  13.587   8.359   9.676
83731SOL    HW253033  13.438   8.384   9.663
83732SOL     OW53034   8.844   0.954   2.962
83732SOL    HW153035   8.812   0.934   3.050
83732SOL    HW253036   8.767   0.985   2.915
83733SOL     OW53037  10.140   6.614   8.584
83733SOL    HW153038  10.117   6.564   8.662
83733SOL    HW253039  10.131   6.706   8.610
83734SOL     OW53040   5.956   3.230   6.462
83734SOL    HW153041   5.970   3.273   6.547
83734SOL    HW253042   6.008   3.149   6.468
83735SOL     OW53043  10.721   4.548   7.861
83735SOL    HW153044  10.689   4.469   7.903
83735SOL    HW253045  10.816   4.543   7.867
83736SOL     OW53046   7.357   9.977   2.588
83736SOL    HW153047   7.357  10.071   2.605
83736SOL    HW253048   7.310   9.939   2.662
83737SOL     OW53049   9.470   3.227   8.748
83737SOL    HW153050   9.515   3.269   8.674
83737SOL    HW253051   9.390   3.193   8.709
83738SOL     OW53052   8.391   5.245   5.681
83738SOL    HW153053   8.393   5.154   5.652
83738SOL    HW253054   8.338   5.291   5.616
83739SOL     OW53055   4.518   4.267   9.723
83739SOL    HW153056   4.514   4.363   9.725
83739SOL    HW253057   4.444   4.241   9.669
83740SOL     OW53058   8.025   0.215   6.756
83740SOL    HW153059   7.999   0.165   6.833
83740SOL    HW253060   8.084   0.282   6.790
83741SOL     OW53061   6.144  14.179  11.656
83741SOL    HW153062   6.189  14.261  11.676
83741SOL    HW253063   6.081  14.201  11.588
83742SOL     OW53064  12.745  11.875   4.217
83742SOL    HW153065  12.802  11.946   4.247
83742SOL    HW253066  12.658  11.913   4.216
83743SOL     OW53067  10.560  14.822   8.890
83743SOL    HW153068  10.610  14.747   8.856
83743SOL    HW253069  10.472  14.809   8.857
83744SOL     OW53070   5.075   0.072   3.362
83744SOL    HW153071   5.082   0.165   3.341
83744SOL    HW253072   4.981   0.053   3.360
83745SOL     OW53073  13.014   8.780  10.820
83745SOL    HW153074  13.105   8.761  10.842
83745SOL    HW253075  13.017   8.868  10.782
83746SOL     OW53076  12.819  11.605  10.058
83746SOL    HW153077  12.912  11.596  10.035
83746SOL    HW253078  12.819  11.648  10.143
83747SOL     OW53079   6.024   2.562   3.168
83747SOL    HW153080   6.008   2.591   3.078
83747SOL    HW253081   6.099   2.503   3.161
83748SOL     OW53082   8.090   5.127   2.839
83748SOL    HW153083   8.080   5.126   2.744
83748SOL    HW253084   8.162   5.067   2.856
83749SOL     OW53085   5.521   2.204  11.582
83749SOL    HW153086   5.614   2.226  11.573
83749SOL    HW253087   5.520   2.108  11.584
83750SOL     OW53088  12.394   3.012   6.498
83750SOL    HW153089  12.320   3.054   6.542
83750SOL    HW253090  12.406   2.930   6.546
83751SOL     OW53091   0.859   5.420   3.435
83751SOL    HW153092   0.786   5.420   3.373
83751SOL    HW253093   0.936   5.398   3.382
83752SOL     OW53094   1.639   8.456   3.055
83752SOL    HW153095   1.674   8.370   3.077
83752SOL    HW253096   1.683   8.516   3.115
83753SOL     OW53097   9.486  13.042   3.851
83753SOL    HW153098   9.574  13.037   3.889
83753SOL    HW253099   9.488  12.981   3.777
83754SOL     OW53100   8.218   9.415   9.774
83754SOL    HW153101   8.190   9.500   9.807
83754SOL    HW253102   8.157   9.395   9.703
83755SOL     OW53103   4.332   3.305  14.713
83755SOL    HW153104   4.387   3.379  14.689
83755SOL    HW253105   4.298   3.272  14.630
83756SOL     OW53106   3.470   5.041   9.859
83756SOL    HW153107   3.512   4.955   9.867
83756SOL    HW253108   3.515   5.083   9.786
83757SOL     OW53109   1.638   4.496   7.750
83757SOL    HW153110   1.636   4.583   7.710
83757SOL    HW253111   1.569   4.447   7.704
83758SOL     OW53112   4.747  12.536   7.899
83758SOL    HW153113   4.837  12.568   7.892
83758SOL    HW253114   4.753  12.457   7.953
83759SOL     OW53115   4.709   7.482   2.833
83759SOL    HW153116   4.674   7.571   2.821
83759SOL    HW253117   4.800   7.495   2.858
83760SOL     OW53118  13.499   4.477   7.173
83760SOL    HW153119  13.448   4.487   7.093
83760SOL    HW253120  13.585   4.513   7.151
83761SOL     OW53121   5.644   9.710   3.086
83761SOL    HW153122   5.694   9.631   3.064
83761SOL    HW253123   5.621   9.748   3.001
83762SOL     OW53124  11.329   7.785  13.899
83762SOL    HW153125  11.332   7.717  13.967
83762SOL    HW253126  11.410   7.773  13.850
83763SOL     OW53127  11.628   5.517   0.782
83763SOL    HW153128  11.547   5.497   0.827
83763SOL    HW253129  11.605   5.519   0.689
83764SOL     OW53130  14.656  10.633   9.245
83764SOL    HW153131  14.589  10.568   9.267
83764SOL    HW253132  14.672  10.619   9.151
83765SOL     OW53133  14.166   9.702  14.725
83765SOL    HW153134  14.081   9.688  14.684
83765SOL    HW253135  14.146   9.742  14.809
83766SOL     OW53136   7.934   5.310   9.928
83766SOL    HW153137   7.998   5.349   9.988
83766SOL    HW253138   7.939   5.365   9.850
83767SOL     OW53139  10.617   9.989   9.408
83767SOL    HW153140  10.639   9.939   9.486
83767SOL    HW253141  10.525   9.968   9.391
83768SOL     OW53142   0.184  14.556  11.436
83768SOL    HW153143   0.191  14.606  11.355
83768SOL    HW253144   0.213  14.616  11.504
83769SOL     OW53145   7.046  13.439   4.640
83769SOL    HW153146   6.988  13.401   4.706
83769SOL    HW253147   7.043  13.377   4.567
83770SOL     OW53148  10.193  14.174   4.129
83770SOL    HW153149  10.104  14.141   4.118
83770SOL    HW253150  10.193  14.259   4.085
83771SOL     OW53151  14.813   2.629   8.993
83771SOL    HW153152  14.775   2.610   8.908
83771SOL    HW253153  14.738   2.651   9.049
83772SOL     OW53154   9.688   6.096  13.967
83772SOL    HW153155   9.731   6.016  13.937
83772SOL    HW253156   9.651   6.134  13.887
83773SOL     OW53157   0.479   4.890   7.140
83773SOL    HW153158   0.435   4.974   7.154
83773SOL    HW253159   0.571   4.913   7.124
83774SOL     OW53160   4.555   7.131  10.284
83774SOL    HW153161   4.590   7.105  10.369
83774SOL    HW253162   4.463   7.150  10.301
83775SOL     OW53163   8.665   7.620  11.295
83775SOL    HW153164   8.655   7.715  11.289
83775SOL    HW253165   8.716   7.596  11.218
83776SOL     OW53166  11.001  11.810   3.656
83776SOL    HW153167  10.950  11.730   3.656
83776SOL    HW253168  10.998  11.841   3.746
83777SOL     OW53169   5.992   3.710   2.601
83777SOL    HW153170   5.987   3.732   2.694
83777SOL    HW253171   5.987   3.614   2.599
83778SOL     OW53172   5.218  10.232   6.133
83778SOL    HW153173   5.179  10.285   6.063
83778SOL    HW253174   5.310  10.257   6.133
83779SOL     OW53175   3.823   2.645   9.391
83779SOL    HW153176   3.849   2.626   9.301
83779SOL    HW253177   3.905   2.672   9.434
83780SOL     OW53178   0.531   3.121   7.670
83780SOL    HW153179   0.596   3.054   7.647
83780SOL    HW253180   0.519   3.112   7.764
83781SOL     OW53181  11.887  11.490   8.430
83781SOL    HW153182  11.969  11.443   8.447
83781SOL    HW253183  11.843  11.491   8.515
83782SOL     OW53184  12.719   7.707   8.107
83782SOL    HW153185  12.756   7.641   8.166
83782SOL    HW253186  12.679   7.771   8.164
83783SOL     OW53187   2.206   2.296   5.171
83783SOL    HW153188   2.242   2.211   5.195
83783SOL    HW253189   2.117   2.277   5.141
83784SOL     OW53190   3.351   8.638  10.957
83784SOL    HW153191   3.281   8.648  10.892
83784SOL    HW253192   3.309   8.594  11.031
83785SOL     OW53193   6.707   0.904   0.338
83785SOL    HW153194   6.667   0.988   0.316
83785SOL    HW253195   6.634   0.847   0.361
83786SOL     OW53196   9.362   1.108  13.582
83786SOL    HW153197   9.360   1.158  13.500
83786SOL    HW253198   9.345   1.018  13.556
83787SOL     OW53199   5.468   2.538   5.944
83787SOL    HW153200   5.513   2.600   5.886
83787SOL    HW253201   5.379   2.534   5.911
83788SOL     OW53202   5.752   3.021   1.358
83788SOL    HW153203   5.737   3.018   1.453
83788SOL    HW253204   5.790   3.107   1.343
83789SOL     OW53205   1.644  14.735   6.898
83789SOL    HW153206   1.735  14.737   6.927
83789SOL    HW253207   1.609  14.653   6.934
83790SOL     OW53208   3.586   8.371   1.545
83790SOL    HW153209   3.604   8.449   1.493
83790SOL    HW253210   3.498   8.344   1.518
83791SOL     OW53211   2.097   2.840  11.582
83791SOL    HW153212   2.016   2.880  11.615
83791SOL    HW253213   2.167   2.887  11.628
83792SOL     OW53214   9.231  14.806   3.497
83792SOL    HW153215   9.242  14.790   3.591
83792SOL    HW253216   9.139  14.829   3.487
83793SOL     OW53217   2.078   1.499  10.137
83793SOL    HW153218   2.163   1.513  10.095
83793SOL    HW253219   2.015   1.502  10.065
83794SOL     OW53220   4.676  12.148   9.567
83794SOL    HW153221   4.762  12.190   9.575
83794SOL    HW253222   4.666  12.130   9.473
83795SOL     OW53223  10.726  12.935   2.447
83795SOL    HW153224  10.761  12.869   2.387
83795SOL    HW253225  10.709  12.888   2.528
83796SOL     OW53226   1.693  11.689   4.503
83796SOL    HW153227   1.617  11.633   4.519
83796SOL    HW253228   1.681  11.719   4.413
83797SOL     OW53229   7.005   5.942   2.468
83797SOL    HW153230   7.046   6.011   2.520
83797SOL    HW253231   7.075   5.878   2.453
83798SOL     OW53232   3.193   0.985  11.499
83798SOL    HW153233   3.128   0.970  11.567
83798SOL    HW253234   3.244   1.060  11.531
83799SOL     OW53235   0.909   2.797   1.501
83799SOL    HW153236   0.971   2.726   1.519
83799SOL    HW253237   0.867   2.814   1.585
83800SOL     OW53238   9.321   1.215   2.872
83800SOL    HW153239   9.412   1.207   2.900
83800SOL    HW253240   9.295   1.304   2.898
83801SOL     OW53241   1.574  14.194   8.625
83801SOL    HW153242   1.505  14.134   8.652
83801SOL    HW253243   1.539  14.239   8.548
83802SOL     OW53244   0.624   2.796   3.404
83802SOL    HW153245   0.654   2.840   3.324
83802SOL    HW253246   0.669   2.712   3.403
83803SOL     OW53247   8.147   9.426   9.397
83803SOL    HW153248   8.141   9.366   9.471
83803SOL    HW253249   8.056   9.436   9.367
83804SOL     OW53250   8.514  13.100  12.725
83804SOL    HW153251   8.510  13.194  12.743
83804SOL    HW253252   8.551  13.062  12.805
83805SOL     OW53253   4.875  13.890   5.154
83805SOL    HW153254   4.919  13.966   5.191
83805SOL    HW253255   4.883  13.900   5.059
83806SOL     OW53256   4.097   6.556   6.706
83806SOL    HW153257   4.030   6.490   6.687
83806SOL    HW253258   4.178   6.517   6.674
83807SOL     OW53259  12.930   1.934  12.831
83807SOL    HW153260  12.962   1.875  12.900
83807SOL    HW253261  12.854   1.889  12.794
83808SOL     OW53262  12.883  10.113  14.542
83808SOL    HW153263  12.948  10.044  14.557
83808SOL    HW253264  12.935  10.189  14.516
83809SOL     OW53265   6.449   0.921   8.444
83809SOL    HW153266   6.497   0.871   8.379
83809SOL    HW253267   6.454   1.012   8.413
83810SOL     OW53268  10.816   7.431   1.933
83810SOL    HW153269  10.801   7.439   1.839
83810SOL    HW253270  10.798   7.519   1.967
83811SOL     OW53271   0.868   8.295   8.945
83811SOL    HW153272   0.812   8.307   9.022
83811SOL    HW253273   0.809   8.262   8.877
83812SOL     OW53274   4.313  13.866   6.996
83812SOL    HW153275   4.253  13.938   6.975
83812SOL    HW253276   4.312  13.861   7.091
83813SOL     OW53277   6.678  12.972  13.260
83813SOL    HW153278   6.729  13.018  13.327
83813SOL    HW253279   6.696  13.020  13.179
83814SOL     OW53280   0.892   1.044  10.858
83814SOL    HW153281   0.836   1.100  10.912
83814SOL    HW253282   0.981   1.073  10.878
83815SOL     OW53283  11.171   1.646   1.678
83815SOL    HW153284  11.231   1.651   1.752
83815SOL    HW253285  11.093   1.604   1.713
83816SOL     OW53286   0.176   7.093   6.532
83816SOL    HW153287   0.142   7.148   6.461
83816SOL    HW253288   0.271   7.099   6.523
83817SOL     OW53289   2.238   2.213  14.626
83817SOL    HW153290   2.283   2.132  14.650
83817SOL    HW253291   2.153   2.184  14.592
83818SOL     OW53292   7.369   7.147  12.658
83818SOL    HW153293   7.370   7.055  12.631
83818SOL    HW253294   7.368   7.196  12.576
83819SOL     OW53295  13.216  10.515   1.569
83819SOL    HW153296  13.258  10.516   1.655
83819SOL    HW253297  13.126  10.489   1.587
83820SOL     OW53298   9.775   6.727   6.129
83820SOL    HW153299   9.698   6.781   6.110
83820SOL    HW253300   9.833   6.740   6.054
83821SOL     OW53301   0.149   4.957  10.431
83821SOL    HW153302   0.218   4.961  10.366
83821SOL    HW253303   0.193   4.929  10.511
83822SOL     OW53304   5.456  13.465   9.378
83822SOL    HW153305   5.499  13.529   9.435
83822SOL    HW253306   5.371  13.503   9.360
83823SOL     OW53307  11.908   9.868   8.392
83823SOL    HW153308  11.910   9.803   8.462
83823SOL    HW253309  11.958   9.942   8.427
83824SOL     OW53310   8.809  13.387   1.960
83824SOL    HW153311   8.764  13.326   1.902
83824SOL    HW253312   8.893  13.345   1.980
83825SOL     OW53313   5.524   1.315   8.205
83825SOL    HW153314   5.471   1.386   8.241
83825SOL    HW253315   5.599   1.309   8.264
83826SOL     OW53316   4.668  12.473   0.574
83826SOL    HW153317   4.731  12.531   0.530
83826SOL    HW253318   4.586  12.487   0.526
83827SOL     OW53319   1.257   1.329  11.540
83827SOL    HW153320   1.215   1.319  11.455
83827SOL    HW253321   1.191   1.302  11.603
83828SOL     OW53322  10.459  13.111   5.597
83828SOL    HW153323  10.551  13.084   5.587
83828SOL    HW253324  10.460  13.172   5.670
83829SOL     OW53325  12.543  14.042   0.280
83829SOL    HW153326  12.484  14.106   0.240
83829SOL    HW253327  12.488  13.965   0.296
83830SOL     OW53328  12.892   6.928   7.615
83830SOL    HW153329  12.874   6.881   7.534
83830SOL    HW253330  12.809   6.967   7.640
83831SOL     OW53331  11.589  12.620   7.510
83831SOL    HW153332  11.604  12.558   7.439
83831SOL    HW253333  11.644  12.696   7.489
83832SOL     OW53334   5.808   7.841  11.948
83832SOL    HW153335   5.837   7.837  12.040
83832SOL    HW253336   5.746   7.914  11.946
83833SOL     OW53337   2.051   9.269   6.878
83833SOL    HW153338   2.002   9.286   6.958
83833SOL    HW253339   2.132   9.227   6.907
83834SOL     OW53340  12.922   0.433  11.945
83834SOL    HW153341  13.011   0.405  11.926
83834SOL    HW253342  12.925   0.463  12.036
83835SOL     OW53343  10.525  14.418  10.239
83835SOL    HW153344  10.434  14.432  10.267
83835SOL    HW253345  10.578  14.450  10.312
83836SOL     OW53346   4.818   5.941  13.876
83836SOL    HW153347   4.830   6.036  13.877
83836SOL    HW253348   4.907   5.905  13.880
83837SOL     OW53349  13.293   0.168  14.335
83837SOL    HW153350  13.246   0.099  14.287
83837SOL    HW253351  13.225   0.233  14.354
83838SOL     OW53352  12.883   2.297   2.035
83838SOL    HW153353  12.803   2.281   2.083
83838SOL    HW253354  12.914   2.382   2.066
83839SOL     OW53355   7.406  11.124   4.150
83839SOL    HW153356   7.371  11.130   4.239
83839SOL    HW253357   7.340  11.074   4.101
83840SOL     OW53358  10.734   7.068  14.377
83840SOL    HW153359  10.666   7.114  14.329
83840SOL    HW253360  10.807   7.063  14.316
83841SOL     OW53361  10.719   3.814   7.144
83841SOL    HW153362  10.636   3.766   7.135
83841SOL    HW253363  10.692   3.906   7.146
83842SOL     OW53364   2.285  12.740   8.860
83842SOL    HW153365   2.280  12.651   8.826
83842SOL    HW253366   2.328  12.731   8.945
83843SOL     OW53367   6.465   6.952  10.594
83843SOL    HW153368   6.494   7.028  10.644
83843SOL    HW253369   6.463   6.880  10.657
83844SOL     OW53370   1.178  13.012  14.355
83844SOL    HW153371   1.202  12.926  14.390
83844SOL    HW253372   1.097  12.996  14.307
83845SOL     OW53373   0.779  13.628  12.264
83845SOL    HW153374   0.718  13.701  12.254
83845SOL    HW253375   0.845  13.643  12.196
83846SOL     OW53376   9.164  14.165   8.398
83846SOL    HW153377   9.170  14.081   8.444
83846SOL    HW253378   9.180  14.143   8.306
83847SOL     OW53379   4.628   1.970   1.053
83847SOL    HW153380   4.575   2.024   1.110
83847SOL    HW253381   4.703   2.025   1.030
83848SOL     OW53382   5.639   1.818  14.073
83848SOL    HW153383   5.703   1.888  14.086
83848SOL    HW253384   5.605   1.833  13.985
83849SOL     OW53385  14.733  14.374   9.813
83849SOL    HW153386  14.745  14.354   9.906
83849SOL    HW253387  14.801  14.323   9.768
83850SOL     OW53388   4.883   9.850   4.378
83850SOL    HW153389   4.886   9.881   4.468
83850SOL    HW253390   4.814   9.902   4.337
83851SOL     OW53391  11.128   2.132   9.638
83851SOL    HW153392  11.118   2.137   9.733
83851SOL    HW253393  11.042   2.157   9.604
83852SOL     OW53394   2.282   5.075  10.485
83852SOL    HW153395   2.272   5.160  10.527
83852SOL    HW253396   2.311   5.016  10.554
83853SOL     OW53397   1.504  10.156   5.645
83853SOL    HW153398   1.464  10.213   5.711
83853SOL    HW253399   1.430  10.124   5.594
83854SOL     OW53400  12.449  14.136   4.348
83854SOL    HW153401  12.460  14.219   4.301
83854SOL    HW253402  12.450  14.161   4.440
83855SOL     OW53403   6.548  14.543   0.924
83855SOL    HW153404   6.469  14.566   0.974
83855SOL    HW253405   6.534  14.452   0.899
83856SOL     OW53406  14.827  10.491   6.074
83856SOL    HW153407  14.767  10.446   6.015
83856SOL    HW253408   0.040  10.479   6.035
83857SOL     OW53409   8.191   4.435   6.253
83857SOL    HW153410   8.274   4.457   6.210
83857SOL    HW253411   8.190   4.489   6.332
83858SOL     OW53412   1.045   4.178   8.266
83858SOL    HW153413   1.069   4.162   8.175
83858SOL    HW253414   1.129   4.176   8.313
83859SOL     OW53415   2.286  14.411  13.628
83859SOL    HW153416   2.270  14.357  13.551
83859SOL    HW253417   2.240  14.494  13.609
83860SOL     OW53418   2.445   4.976   8.611
83860SOL    HW153419   2.409   4.887   8.617
83860SOL    HW253420   2.468   4.998   8.702
83861SOL     OW53421   2.808   6.898   4.831
83861SOL    HW153422   2.839   6.841   4.901
83861SOL    HW253423   2.810   6.843   4.753
83862SOL     OW53424   5.401   0.486   4.985
83862SOL    HW153425   5.317   0.444   4.964
83862SOL    HW253426   5.467   0.426   4.952
83863SOL     OW53427   1.251   7.944  11.093
83863SOL    HW153428   1.159   7.929  11.070
83863SOL    HW253429   1.248   7.999  11.171
83864SOL     OW53430  11.368  10.153   7.737
83864SOL    HW153431  11.421  10.089   7.689
83864SOL    HW253432  11.338  10.214   7.669
83865SOL     OW53433  12.890   0.383   5.875
83865SOL    HW153434  12.954   0.454   5.879
83865SOL    HW253435  12.941   0.305   5.855
83866SOL     OW53436  14.004   1.225   5.666
83866SOL    HW153437  14.091   1.243   5.702
83866SOL    HW253438  14.008   1.135   5.634
83867SOL     OW53439   1.464  14.102   1.954
83867SOL    HW153440   1.392  14.160   1.977
83867SOL    HW253441   1.446  14.075   1.864
83868SOL     OW53442   5.945   2.118   1.471
83868SOL    HW153443   5.995   2.082   1.545
83868SOL    HW253444   5.991   2.086   1.394
83869SOL     OW53445  12.440   8.414   6.330
83869SOL    HW153446  12.434   8.420   6.235
83869SOL    HW253447  12.395   8.492   6.362
83870SOL     OW53448   0.223   4.592  13.612
83870SOL    HW153449   0.143   4.620  13.567
83870SOL    HW253450   0.212   4.624  13.701
83871SOL     OW53451   4.647   1.804   6.888
83871SOL    HW153452   4.646   1.887   6.936
83871SOL    HW253453   4.706   1.748   6.939
83872SOL     OW53454   0.613  11.912   1.663
83872SOL    HW153455   0.610  11.883   1.571
83872SOL    HW253456   0.521  11.925   1.687
83873SOL     OW53457   0.153   8.529   1.175
83873SOL    HW153458   0.065   8.529   1.137
83873SOL    HW253459   0.138   8.537   1.269
83874SOL     OW53460  11.997   4.565  10.903
83874SOL    HW153461  11.944   4.587  10.826
83874SOL    HW253462  12.003   4.469  10.900
83875SOL     OW53463   0.848   7.216   8.811
83875SOL    HW153464   0.835   7.133   8.857
83875SOL    HW253465   0.869   7.279   8.879
83876SOL     OW53466   5.262   2.783  13.133
83876SOL    HW153467   5.295   2.704  13.090
83876SOL    HW253468   5.214   2.750  13.209
83877SOL     OW53469   6.287  11.917   0.284
83877SOL    HW153470   6.249  11.832   0.308
83877SOL    HW253471   6.241  11.980   0.340
83878SOL     OW53472  14.094   6.638  13.512
83878SOL    HW153473  14.085   6.729  13.539
83878SOL    HW253474  14.068   6.587  13.588
83879SOL     OW53475   5.615   7.451   9.731
83879SOL    HW153476   5.584   7.445   9.641
83879SOL    HW253477   5.691   7.393   9.735
83880SOL     OW53478   4.427   4.205   6.513
83880SOL    HW153479   4.357   4.140   6.503
83880SOL    HW253480   4.390   4.272   6.571
83881SOL     OW53481  12.648   9.614  10.515
83881SOL    HW153482  12.623   9.647  10.428
83881SOL    HW253483  12.736   9.579  10.502
83882SOL     OW53484   6.508   4.933   2.890
83882SOL    HW153485   6.528   4.995   2.820
83882SOL    HW253486   6.589   4.884   2.903
83883SOL     OW53487   5.301   0.207   6.564
83883SOL    HW153488   5.309   0.195   6.469
83883SOL    HW253489   5.387   0.183   6.599
83884SOL     OW53490  10.991   9.615   3.734
83884SOL    HW153491  11.059   9.681   3.748
83884SOL    HW253492  10.953   9.602   3.821
83885SOL     OW53493   3.975   6.950   4.818
83885SOL    HW153494   3.992   6.865   4.778
83885SOL    HW253495   3.992   6.937   4.911
83886SOL     OW53496  10.341   3.437  10.285
83886SOL    HW153497  10.333   3.464  10.376
83886SOL    HW253498  10.270   3.375  10.271
83887SOL     OW53499   7.213   0.993   8.061
83887SOL    HW153500   7.257   1.066   8.105
83887SOL    HW253501   7.230   0.917   8.116
83888SOL     OW53502  14.673  10.969   4.928
83888SOL    HW153503  14.619  10.923   4.863
83888SOL    HW253504  14.756  10.923   4.926
83889SOL     OW53505   1.657   6.719  14.045
83889SOL    HW153506   1.709   6.668  14.106
83889SOL    HW253507   1.668   6.810  14.072
83890SOL     OW53508  11.462  12.226   4.857
83890SOL    HW153509  11.374  12.189   4.851
83890SOL    HW253510  11.451  12.318   4.831
83891SOL     OW53511   7.571   3.150   1.528
83891SOL    HW153512   7.605   3.238   1.511
83891SOL    HW253513   7.481   3.164   1.557
83892SOL     OW53514   9.517  12.056   6.658
83892SOL    HW153515   9.579  12.114   6.704
83892SOL    HW253516   9.568  11.978   6.638
83893SOL     OW53517  10.617  13.875   5.998
83893SOL    HW153518  10.572  13.916   5.925
83893SOL    HW253519  10.709  13.876   5.973
83894SOL     OW53520   2.458   6.894   2.051
83894SOL    HW153521   2.410   6.847   1.983
83894SOL    HW253522   2.432   6.985   2.040
83895SOL     OW53523   3.853   4.716   7.650
83895SOL    HW153524   3.930   4.750   7.605
83895SOL    HW253525   3.884   4.638   7.696
83896SOL     OW53526   5.620   9.155   3.728
83896SOL    HW153527   5.583   9.067   3.721
83896SOL    HW253528   5.545   9.212   3.742
83897SOL     OW53529   4.593   9.616  13.963
83897SOL    HW153530   4.616   9.666  13.885
83897SOL    HW253531   4.552   9.536  13.929
83898SOL     OW53532   2.331  12.445  10.063
83898SOL    HW153533   2.349  12.415  10.153
83898SOL    HW253534   2.242  12.480  10.067
83899SOL     OW53535   4.128  12.080   7.194
83899SOL    HW153536   4.160  12.105   7.280
83899SOL    HW253537   4.035  12.064   7.207
83900SOL     OW53538   7.220   9.414   4.827
83900SOL    HW153539   7.177   9.472   4.890
83900SOL    HW253540   7.234   9.469   4.750
83901SOL     OW53541   9.615   2.356   5.045
83901SOL    HW153542   9.661   2.421   4.992
83901SOL    HW253543   9.537   2.403   5.078
83902SOL     OW53544   9.002   1.910   7.423
83902SOL    HW153545   8.956   1.966   7.360
83902SOL    HW253546   9.088   1.951   7.432
83903SOL     OW53547   4.594  14.651   3.227
83903SOL    HW153548   4.506  14.671   3.260
83903SOL    HW253549   4.627  14.736   3.196
83904SOL     OW53550   5.459   0.236   0.202
83904SOL    HW153551   5.450   0.141   0.190
83904SOL    HW253552   5.378   0.263   0.245
83905SOL     OW53553   6.566   0.766   6.859
83905SOL    HW153554   6.510   0.701   6.816
83905SOL    HW253555   6.626   0.714   6.913
83906SOL     OW53556   4.628  13.702   1.458
83906SOL    HW153557   4.537  13.727   1.438
83906SOL    HW253558   4.645  13.629   1.398
83907SOL     OW53559   9.835   3.730  13.525
83907SOL    HW153560   9.924   3.714  13.494
83907SOL    HW253561   9.803   3.803  13.472
83908SOL     OW53562   1.954  13.510   4.172
83908SOL    HW153563   1.921  13.504   4.261
83908SOL    HW253564   1.879  13.537   4.119
83909SOL     OW53565   5.824  10.633   7.998
83909SOL    HW153566   5.891  10.591   7.944
83909SOL    HW253567   5.742  10.594   7.967
83910SOL     OW53568  11.147  14.156   0.016
83910SOL    HW153569  11.128  14.161   0.110
83910SOL    HW253570  11.081  14.212  14.848
83911SOL     OW53571   1.994   8.658   0.072
83911SOL    HW153572   1.992   8.740   0.122
83911SOL    HW253573   1.970   8.590   0.135
83912SOL     OW53574   5.122  11.801   2.091
83912SOL    HW153575   5.040  11.828   2.133
83912SOL    HW253576   5.093  11.755   2.011
83913SOL     OW53577  12.214   5.963   3.726
83913SOL    HW153578  12.124   5.931   3.730
83913SOL    HW253579  12.259   5.917   3.797
83914SOL     OW53580   3.702  13.338   0.745
83914SOL    HW153581   3.775  13.384   0.787
83914SOL    HW253582   3.664  13.286   0.816
83915SOL     OW53583   9.172   4.965   3.893
83915SOL    HW153584   9.253   5.004   3.860
83915SOL    HW253585   9.107   4.983   3.825
83916SOL     OW53586   7.512   0.372  14.120
83916SOL    HW153587   7.530   0.280  14.100
83916SOL    HW253588   7.495   0.372  14.214
83917SOL     OW53589   7.138   8.629   1.948
83917SOL    HW153590   7.135   8.723   1.933
83917SOL    HW253591   7.195   8.618   2.024
83918SOL     OW53592   7.227  14.639  10.387
83918SOL    HW153593   7.245  14.708  10.322
83918SOL    HW253594   7.222  14.686  10.470
83919SOL     OW53595   5.151   0.736  14.219
83919SOL    HW153596   5.229   0.781  14.187
83919SOL    HW253597   5.150   0.653  14.171
83920SOL     OW53598   2.097  12.626   0.064
83920SOL    HW153599   2.075  12.675  14.858
83920SOL    HW253600   2.133  12.692   0.123
83921SOL     OW53601   0.593   5.544  10.339
83921SOL    HW153602   0.602   5.638  10.356
83921SOL    HW253603   0.550   5.510  10.418
83922SOL     OW53604   0.018   2.513   7.500
83922SOL    HW153605   0.026   2.439   7.561
83922SOL    HW253606  14.864   2.473   7.417
83923SOL     OW53607  12.269  14.416   8.770
83923SOL    HW153608  12.298  14.488   8.825
83923SOL    HW253609  12.333  14.346   8.786
83924SOL     OW53610   5.236   9.076  13.854
83924SOL    HW153611   5.144   9.056  13.869
83924SOL    HW253612   5.281   9.043  13.932
83925SOL     OW53613  11.665  11.994  13.048
83925SOL    HW153614  11.586  11.940  13.041
83925SOL    HW253615  11.704  11.968  13.132
83926SOL     OW53616  14.528  10.461   7.374
83926SOL    HW153617  14.491  10.424   7.294
83926SOL    HW253618  14.453  10.470   7.433
83927SOL     OW53619  12.446   2.157   2.407
83927SOL    HW153620  12.526   2.159   2.354
83927SOL    HW253621  12.428   2.064   2.419
83928SOL     OW53622  14.780  14.278   0.237
83928SOL    HW153623  14.804  14.363   0.202
83928SOL    HW253624  14.864  14.235   0.255
83929SOL     OW53625   0.444   9.587   0.433
83929SOL    HW153626   0.395   9.647   0.377
83929SOL    HW253627   0.434   9.501   0.392
83930SOL     OW53628   0.671   3.722   0.676
83930SOL    HW153629   0.588   3.676   0.684
83930SOL    HW253630   0.710   3.717   0.763
83931SOL     OW53631   0.234  11.324   7.828
83931SOL    HW153632   0.273  11.275   7.900
83931SOL    HW253633   0.226  11.413   7.861
83932SOL     OW53634   1.937   8.148   7.679
83932SOL    HW153635   1.995   8.219   7.652
83932SOL    HW253636   1.923   8.163   7.773
83933SOL     OW53637  13.368   5.702   4.528
83933SOL    HW153638  13.411   5.757   4.463
83933SOL    HW253639  13.382   5.748   4.611
83934SOL     OW53640  14.464  11.694  13.747
83934SOL    HW153641  14.414  11.641  13.686
83934SOL    HW253642  14.404  11.764  13.773
83935SOL     OW53643   3.655   7.355   3.564
83935SOL    HW153644   3.676   7.263   3.551
83935SOL    HW253645   3.708   7.382   3.639
83936SOL     OW53646  11.802   5.737  11.066
83936SOL    HW153647  11.711   5.763  11.052
83936SOL    HW253648  11.830   5.701  10.982
83937SOL     OW53649   4.292   3.377   9.038
83937SOL    HW153650   4.357   3.439   9.006
83937SOL    HW253651   4.228   3.430   9.085
83938SOL     OW53652   7.977   4.757   2.371
83938SOL    HW153653   8.004   4.735   2.282
83938SOL    HW253654   7.974   4.673   2.416
83939SOL     OW53655   8.623   3.309   5.176
83939SOL    HW153656   8.581   3.324   5.261
83939SOL    HW253657   8.582   3.372   5.118
83940SOL     OW53658   1.999   6.543  12.941
83940SOL    HW153659   1.922   6.582  12.899
83940SOL    HW253660   1.972   6.529  13.031
83941SOL     OW53661   3.035  13.116  12.680
83941SOL    HW153662   3.082  13.114  12.597
83941SOL    HW253663   2.970  13.046  12.672
83942SOL     OW53664   2.608  12.291   2.850
83942SOL    HW153665   2.615  12.197   2.835
83942SOL    HW253666   2.519  12.303   2.883
83943SOL     OW53667  10.769   4.471  12.755
83943SOL    HW153668  10.740   4.388  12.719
83943SOL    HW253669  10.762   4.460  12.850
83944SOL     OW53670   5.132  14.161  14.610
83944SOL    HW153671   5.161  14.156  14.519
83944SOL    HW253672   5.070  14.235  14.612
83945SOL     OW53673   3.812   2.629   9.129
83945SOL    HW153674   3.831   2.696   9.064
83945SOL    HW253675   3.804   2.548   9.079
83946SOL     OW53676  11.267  13.679   8.639
83946SOL    HW153677  11.321  13.697   8.716
83946SOL    HW253678  11.201  13.617   8.670
83947SOL     OW53679  11.210  14.859   8.295
83947SOL    HW153680  11.274   0.035   8.244
83947SOL    HW253681  11.154   0.053   8.334
83948SOL     OW53682   2.772   2.614  11.980
83948SOL    HW153683   2.695   2.595  12.033
83948SOL    HW253684   2.775   2.710  11.976
83949SOL     OW53685  14.844   7.625  10.978
83949SOL    HW153686   0.048   7.634  10.922
83949SOL    HW253687  14.859   7.687  11.050
83950SOL     OW53688  10.702   2.909   9.242
83950SOL    HW153689  10.676   2.933   9.153
83950SOL    HW253690  10.724   2.992   9.284
83951SOL     OW53691   1.216   4.043   7.617
83951SOL    HW153692   1.244   4.115   7.674
83951SOL    HW253693   1.282   3.975   7.629
83952SOL     OW53694   3.312   3.502   5.661
83952SOL    HW153695   3.246   3.502   5.730
83952SOL    HW253696   3.289   3.427   5.606
83953SOL     OW53697   2.072  14.333  14.696
83953SOL    HW153698   2.105  14.423  14.706
83953SOL    HW253699   2.084  14.294  14.783
83954SOL     OW53700  11.304  10.980   3.636
83954SOL    HW153701  11.371  11.044   3.611
83954SOL    HW253702  11.224  11.010   3.592
83955SOL     OW53703   1.377   6.162   3.731
83955SOL    HW153704   1.376   6.175   3.826
83955SOL    HW253705   1.298   6.110   3.713
83956SOL     OW53706   6.052   8.943  13.229
83956SOL    HW153707   6.071   8.868  13.172
83956SOL    HW253708   6.053   9.019  13.171
83957SOL     OW53709   2.445   9.303   6.054
83957SOL    HW153710   2.443   9.315   6.149
83957SOL    HW253711   2.362   9.261   6.033
83958SOL     OW53712   6.901   5.645   9.655
83958SOL    HW153713   6.914   5.731   9.696
83958SOL    HW253714   6.934   5.656   9.566
83959SOL     OW53715   5.640   3.544   0.956
83959SOL    HW153716   5.649   3.636   0.932
83959SOL    HW253717   5.554   3.539   0.999
83960SOL     OW53718  13.843   0.138   3.778
83960SOL    HW153719  13.858   0.203   3.709
83960SOL    HW253720  13.752   0.154   3.806
83961SOL     OW53721   5.743   3.415   3.540
83961SOL    HW153722   5.739   3.423   3.635
83961SOL    HW253723   5.663   3.458   3.510
83962SOL     OW53724   4.253   6.340  11.749
83962SOL    HW153725   4.215   6.331  11.662
83962SOL    HW253726   4.179   6.361  11.805
83963SOL     OW53727   3.929   3.312   3.590
83963SOL    HW153728   3.980   3.342   3.514
83963SOL    HW253729   3.981   3.239   3.625
83964SOL     OW53730  11.509  12.028   0.590
83964SOL    HW153731  11.535  12.052   0.679
83964SOL    HW253732  11.554  12.091   0.534
83965SOL     OW53733   1.093   4.292  12.182
83965SOL    HW153734   0.998   4.298  12.178
83965SOL    HW253735   1.121   4.287  12.090
83966SOL     OW53736  10.436  11.524   7.889
83966SOL    HW153737  10.387  11.603   7.913
83966SOL    HW253738  10.499  11.513   7.961
83967SOL     OW53739   2.396   6.144   8.230
83967SOL    HW153740   2.343   6.097   8.294
83967SOL    HW253741   2.484   6.106   8.239
83968SOL     OW53742   3.828  11.582   6.237
83968SOL    HW153743   3.863  11.661   6.196
83968SOL    HW253744   3.904  11.541   6.278
83969SOL     OW53745   6.580   7.112   2.671
83969SOL    HW153746   6.542   7.050   2.608
83969SOL    HW253747   6.554   7.079   2.756
83970SOL     OW53748  14.771  13.808   3.979
83970SOL    HW153749  14.845  13.786   4.036
83970SOL    HW253750  14.694  13.798   4.034
83971SOL     OW53751   3.814  13.584   7.328
83971SOL    HW153752   3.809  13.489   7.336
83971SOL    HW253753   3.775  13.618   7.409
83972SOL     OW53754   5.986   6.359   4.939
83972SOL    HW153755   5.946   6.299   5.001
83972SOL    HW253756   5.956   6.446   4.966
83973SOL     OW53757   5.263   5.472   7.548
83973SOL    HW153758   5.328   5.402   7.539
83973SOL    HW253759   5.200   5.438   7.611
83974SOL     OW53760  11.977   3.920  10.523
83974SOL    HW153761  12.031   3.844  10.546
83974SOL    HW253762  11.947   3.902  10.434
83975SOL     OW53763  10.921   9.005   1.006
83975SOL    HW153764  11.001   8.952   1.000
83975SOL    HW253765  10.928   9.068   0.935
83976SOL     OW53766   9.733   0.599   1.351
83976SOL    HW153767   9.794   0.673   1.343
83976SOL    HW253768   9.703   0.603   1.442
83977SOL     OW53769   3.882   6.075   5.985
83977SOL    HW153770   3.942   6.012   5.947
83977SOL    HW253771   3.914   6.088   6.074
83978SOL     OW53772   0.032   9.429  12.040
83978SOL    HW153773   0.043   9.506  12.097
83978SOL    HW253774  14.816   9.400  12.057
83979SOL     OW53775   8.548  14.623  14.085
83979SOL    HW153776   8.578  14.569  14.012
83979SOL    HW253777   8.466  14.663  14.054
83980SOL     OW53778  13.097   7.105   2.758
83980SOL    HW153779  13.186   7.085   2.730
83980SOL    HW253780  13.071   7.029   2.811
83981SOL     OW53781   1.040   1.545  14.581
83981SOL    HW153782   0.971   1.608  14.601
83981SOL    HW253783   1.116   1.577  14.628
83982SOL     OW53784  11.167   0.807   7.951
83982SOL    HW153785  11.151   0.809   7.857
83982SOL    HW253786  11.104   0.869   7.987
83983SOL     OW53787   2.432   1.410   7.957
83983SOL    HW153788   2.494   1.337   7.954
83983SOL    HW253789   2.358   1.381   7.905
83984SOL     OW53790   8.020   3.424   3.515
83984SOL    HW153791   8.069   3.422   3.597
83984SOL    HW253792   8.088   3.424   3.447
83985SOL     OW53793   6.840   4.868   2.069
83985SOL    HW153794   6.758   4.905   2.104
83985SOL    HW253795   6.891   4.945   2.043
83986SOL     OW53796   2.834   9.084   6.813
83986SOL    HW153797   2.757   9.038   6.845
83986SOL    HW253798   2.867   9.029   6.741
83987SOL     OW53799   3.893   6.082  12.944
83987SOL    HW153800   3.814   6.035  12.917
83987SOL    HW253801   3.864   6.140  13.014
83988SOL     OW53802  12.864   1.457  10.235
83988SOL    HW153803  12.856   1.521  10.306
83988SOL    HW253804  12.952   1.421  10.246
83989SOL     OW53805  12.910   6.503   9.553
83989SOL    HW153806  12.940   6.505   9.462
83989SOL    HW253807  12.981   6.544   9.603
83990SOL     OW53808   5.629  13.106   1.876
83990SOL    HW153809   5.534  13.096   1.879
83990SOL    HW253810   5.663  13.018   1.893
83991SOL     OW53811   4.740   8.321   5.803
83991SOL    HW153812   4.716   8.250   5.743
83991SOL    HW253813   4.687   8.395   5.775
83992SOL     OW53814   5.246   8.011   5.002
83992SOL    HW153815   5.186   8.077   5.035
83992SOL    HW253816   5.207   7.983   4.919
83993SOL     OW53817   1.532  10.422  12.197
83993SOL    HW153818   1.474  10.497  12.185
83993SOL    HW253819   1.551  10.392  12.109
83994SOL     OW53820   1.103  10.762   7.996
83994SOL    HW153821   1.083  10.684   7.943
83994SOL    HW253822   1.111  10.729   8.085
83995SOL     OW53823   2.479   1.160  11.240
83995SOL    HW153824   2.545   1.181  11.306
83995SOL    HW253825   2.448   1.072  11.264
83996SOL     OW53826   0.921   0.399   6.233
83996SOL    HW153827   0.849   0.405   6.296
83996SOL    HW253828   0.914   0.478   6.180
83997SOL     OW53829  14.350   3.123   7.871
83997SOL    HW153830  14.361   3.113   7.966
83997SOL    HW253831  14.316   3.039   7.842
83998SOL     OW53832   0.615  12.082   5.024
83998SOL    HW153833   0.561  12.006   5.045
83998SOL    HW253834   0.552  12.152   5.007
83999SOL     OW53835   0.498   7.182   9.963
83999SOL    HW153836   0.542   7.115   9.910
83999SOL    HW253837   0.480   7.139  10.046
84000SOL     OW53838  13.371   3.177   2.630
84000SOL    HW153839  13.289   3.225   2.637
84000SOL    HW253840  13.347   3.086   2.644
84001SOL     OW53841   0.008   6.631  10.971
84001SOL    HW153842  14.793   6.665  10.960
84001SOL    HW253843   0.050   6.691  11.032
84002SOL     OW53844   9.065  13.979  12.268
84002SOL    HW153845   9.157  13.969  12.295
84002SOL    HW253846   9.069  13.982  12.173
84003SOL     OW53847   3.665   2.791   2.435
84003SOL    HW153848   3.689   2.817   2.524
84003SOL    HW253849   3.569   2.792   2.435
84004SOL     OW53850  10.563   4.871   8.114
84004SOL    HW153851  10.516   4.919   8.047
84004SOL    HW253852  10.504   4.870   8.190
84005SOL     OW53853   1.052  12.715   2.707
84005SOL    HW153854   0.972  12.763   2.686
84005SOL    HW253855   1.023  12.643   2.763
84006SOL     OW53856   4.980   7.263  13.136
84006SOL    HW153857   5.035   7.242  13.060
84006SOL    HW253858   4.920   7.188  13.143
84007SOL     OW53859   8.201   5.410  14.525
84007SOL    HW153860   8.199   5.506  14.527
84007SOL    HW253861   8.113   5.385  14.497
84008SOL     OW53862   8.559  11.210  14.111
84008SOL    HW153863   8.497  11.140  14.129
84008SOL    HW253864   8.637  11.187  14.161
84009SOL     OW53865   4.776  10.296   5.112
84009SOL    HW153866   4.745  10.383   5.133
84009SOL    HW253867   4.865  10.310   5.079
84010SOL     OW53868  12.424   3.559   2.123
84010SOL    HW153869  12.445   3.617   2.050
84010SOL    HW253870  12.359   3.608   2.175
84011SOL     OW53871   9.731   9.277  10.314
84011SOL    HW153872   9.747   9.227  10.233
84011SOL    HW253873   9.684   9.216  10.371
84012SOL     OW53874  10.249   0.627   1.840
84012SOL    HW153875  10.255   0.560   1.909
84012SOL    HW253876  10.323   0.609   1.783
84013SOL     OW53877   2.690   3.966  11.798
84013SOL    HW153878   2.689   3.992  11.706
84013SOL    HW253879   2.762   4.015  11.837
84014SOL     OW53880   9.023   0.138   4.028
84014SOL    HW153881   8.953   0.191   3.992
84014SOL    HW253882   9.005   0.135   4.122
84015SOL     OW53883   7.494   9.655   2.260
84015SOL    HW153884   7.496   9.651   2.356
84015SOL    HW253885   7.476   9.565   2.232
84016SOL     OW53886   6.460   2.172  11.808
84016SOL    HW153887   6.382   2.198  11.758
84016SOL    HW253888   6.483   2.249  11.858
84017SOL     OW53889   5.107  13.101  12.857
84017SOL    HW153890   5.122  13.125  12.948
84017SOL    HW253891   5.188  13.057  12.830
84018SOL     OW53892  13.140  13.259   6.571
84018SOL    HW153893  13.087  13.310   6.510
84018SOL    HW253894  13.226  13.252   6.528
84019SOL     OW53895   6.200   6.434   6.841
84019SOL    HW153896   6.127   6.455   6.782
84019SOL    HW253897   6.187   6.492   6.916
84020SOL     OW53898   3.648   4.355   6.012
84020SOL    HW153899   3.671   4.308   6.092
84020SOL    HW253900   3.592   4.427   6.041
84021SOL     OW53901  12.198  12.176  13.363
84021SOL    HW153902  12.226  12.179  13.271
84021SOL    HW253903  12.230  12.259  13.400
84022SOL     OW53904   7.344   0.504   6.633
84022SOL    HW153905   7.425   0.507   6.684
84022SOL    HW253906   7.329   0.594   6.606
84023SOL     OW53907  14.398  12.860  10.612
84023SOL    HW153908  14.430  12.919  10.544
84023SOL    HW253909  14.411  12.772  10.575
84024SOL     OW53910   8.100   1.442   6.466
84024SOL    HW153911   8.019   1.424   6.419
84024SOL    HW253912   8.081   1.519   6.518
84025SOL     OW53913   7.312   3.618   1.831
84025SOL    HW153914   7.288   3.532   1.866
84025SOL    HW253915   7.269   3.681   1.890
84026SOL     OW53916   4.872   1.814  14.218
84026SOL    HW153917   4.820   1.743  14.181
84026SOL    HW253918   4.901   1.865  14.143
84027SOL     OW53919   9.474  11.858   8.350
84027SOL    HW153920   9.482  11.943   8.391
84027SOL    HW253921   9.562  11.839   8.316
84028SOL     OW53922  11.796   5.046   2.609
84028SOL    HW153923  11.708   5.008   2.620
84028SOL    HW253924  11.854   4.982   2.650
84029SOL     OW53925   6.210  11.736  12.079
84029SOL    HW153926   6.124  11.767  12.107
84029SOL    HW253927   6.239  11.800  12.014
84030SOL     OW53928   3.834  12.436   7.921
84030SOL    HW153929   3.887  12.399   7.992
84030SOL    HW253930   3.744  12.411   7.943
84031SOL     OW53931   4.744   6.651  12.266
84031SOL    HW153932   4.817   6.691  12.217
84031SOL    HW253933   4.690   6.610  12.198
84032SOL     OW53934   9.296   2.742   4.401
84032SOL    HW153935   9.308   2.652   4.370
84032SOL    HW253936   9.256   2.787   4.327
84033SOL     OW53937  10.944   3.283   3.544
84033SOL    HW153938  10.969   3.365   3.586
84033SOL    HW253939  10.999   3.278   3.466
84034SOL     OW53940   1.993   1.802   7.511
84034SOL    HW153941   1.991   1.751   7.592
84034SOL    HW253942   2.077   1.848   7.513
84035SOL     OW53943   9.930  10.334   8.513
84035SOL    HW153944   9.957  10.366   8.600
84035SOL    HW253945   9.840  10.365   8.504
84036SOL     OW53946   7.756   1.170  10.119
84036SOL    HW153947   7.705   1.090  10.130
84036SOL    HW253948   7.717   1.232  10.180
84037SOL     OW53949   4.783  13.028   9.708
84037SOL    HW153950   4.874  13.017   9.681
84037SOL    HW253951   4.742  12.944   9.688
84038SOL     OW53952   1.322   8.179   1.723
84038SOL    HW153953   1.341   8.218   1.638
84038SOL    HW253954   1.373   8.231   1.785
84039SOL     OW53955   5.238   9.345   2.100
84039SOL    HW153956   5.179   9.411   2.064
84039SOL    HW253957   5.279   9.387   2.175
84040SOL     OW53958  10.960   3.093  10.846
84040SOL    HW153959  11.052   3.085  10.821
84040SOL    HW253960  10.943   3.016  10.900
84041SOL     OW53961   3.144   4.169   3.557
84041SOL    HW153962   3.058   4.158   3.518
84041SOL    HW253963   3.192   4.090   3.532
84042SOL     OW53964   9.556   4.159   2.150
84042SOL    HW153965   9.543   4.157   2.055
84042SOL    HW253966   9.582   4.249   2.168
84043SOL     OW53967   8.422   1.780   4.734
84043SOL    HW153968   8.428   1.873   4.714
84043SOL    HW253969   8.328   1.762   4.734
84044SOL     OW53970  10.362   6.667  13.442
84044SOL    HW153971  10.306   6.745  13.442
84044SOL    HW253972  10.327   6.612  13.512
84045SOL     OW53973  12.026   0.736   5.116
84045SOL    HW153974  12.110   0.742   5.161
84045SOL    HW253975  12.010   0.642   5.105
84046SOL     OW53976   1.263   4.810   3.079
84046SOL    HW153977   1.308   4.871   3.138
84046SOL    HW253978   1.304   4.725   3.096
84047SOL     OW53979   8.944   5.338   6.416
84047SOL    HW153980   8.857   5.297   6.411
84047SOL    HW253981   8.926   5.432   6.415
84048SOL     OW53982   0.122  10.757   8.464
84048SOL    HW153983   0.203  10.739   8.416
84048SOL    HW253984   0.150  10.809   8.540
84049SOL     OW53985   7.533  13.365   9.844
84049SOL    HW153986   7.568  13.326   9.925
84049SOL    HW253987   7.514  13.290   9.788
84050SOL     OW53988   7.311   5.037   6.008
84050SOL    HW153989   7.361   5.049   6.088
84050SOL    HW253990   7.375   5.006   5.943
84051SOL     OW53991   7.563   4.933   5.364
84051SOL    HW153992   7.643   4.902   5.407
84051SOL    HW253993   7.512   4.854   5.347
84052SOL     OW53994   8.796  13.269   7.841
84052SOL    HW153995   8.703  13.273   7.861
84052SOL    HW253996   8.835  13.224   7.917
84053SOL     OW53997   3.161   7.135   0.126
84053SOL    HW153998   3.209   7.157   0.047
84053SOL    HW253999   3.101   7.065   0.100
84054SOL     OW54000  14.783   2.681  10.966
84054SOL    HW154001  14.800   2.719  10.880
84054SOL    HW254002  14.859   2.706  11.019
84055SOL     OW54003   5.969   2.599   2.907
84055SOL    HW154004   5.967   2.504   2.898
84055SOL    HW254005   5.953   2.632   2.819
84056SOL     OW54006   1.247   5.866   3.192
84056SOL    HW154007   1.209   5.923   3.259
84056SOL    HW254008   1.204   5.892   3.111
84057SOL     OW54009   7.106  13.640   1.684
84057SOL    HW154010   7.118  13.561   1.631
84057SOL    HW254011   7.105  13.609   1.774
84058SOL     OW54012   7.927   2.293   9.146
84058SOL    HW154013   7.897   2.366   9.092
84058SOL    HW254014   7.993   2.333   9.204
84059SOL     OW54015   3.365  11.321   8.307
84059SOL    HW154016   3.456  11.352   8.310
84059SOL    HW254017   3.366  11.254   8.238
84060SOL     OW54018  10.419   0.860   1.559
84060SOL    HW154019  10.479   0.934   1.565
84060SOL    HW254020  10.358   0.883   1.489
84061SOL     OW54021  12.235   8.180   3.727
84061SOL    HW154022  12.170   8.181   3.796
84061SOL    HW254023  12.214   8.257   3.673
84062SOL     OW54024   0.359   4.405   2.850
84062SOL    HW154025   0.441   4.440   2.885
84062SOL    HW254026   0.340   4.330   2.907
84063SOL     OW54027  12.221   8.617   0.621
84063SOL    HW154028  12.290   8.577   0.569
84063SOL    HW254029  12.192   8.548   0.680
84064SOL     OW54030   5.320   0.773   1.911
84064SOL    HW154031   5.262   0.849   1.917
84064SOL    HW254032   5.348   0.772   1.820
84065SOL     OW54033   9.807   4.248  11.408
84065SOL    HW154034   9.839   4.199  11.483
84065SOL    HW254035   9.825   4.339  11.429
84066SOL     OW54036   9.945   8.533  12.332
84066SOL    HW154037   9.967   8.488  12.414
84066SOL    HW254038   9.899   8.467  12.280
84067SOL     OW54039  11.786  10.891   8.451
84067SOL    HW154040  11.819  10.977   8.425
84067SOL    HW254041  11.697  10.909   8.482
84068SOL     OW54042   5.637  14.816   3.804
84068SOL    HW154043   5.590   0.020   3.774
84068SOL    HW254044   5.728  14.843   3.808
84069SOL     OW54045   0.799  13.359   0.775
84069SOL    HW154046   0.832  13.306   0.702
84069SOL    HW254047   0.864  13.430   0.784
84070SOL     OW54048   4.422   7.822   1.081
84070SOL    HW154049   4.379   7.896   1.125
84070SOL    HW254050   4.350   7.770   1.045
84071SOL     OW54051  14.376   9.815   7.546
84071SOL    HW154052  14.371   9.725   7.513
84071SOL    HW254053  14.462   9.846   7.519
84072SOL     OW54054   2.751  12.477   3.447
84072SOL    HW154055   2.776  12.536   3.518
84072SOL    HW254056   2.776  12.523   3.367
84073SOL     OW54057  10.430   3.794   8.977
84073SOL    HW154058  10.439   3.882   9.013
84073SOL    HW254059  10.443   3.806   8.883
84074SOL     OW54060   6.882  11.419  10.653
84074SOL    HW154061   6.797  11.448  10.619
84074SOL    HW254062   6.899  11.478  10.727
84075SOL     OW54063  12.343   7.409   7.029
84075SOL    HW154064  12.370   7.454   6.949
84075SOL    HW254065  12.248   7.400   7.019
84076SOL     OW54066   6.701   9.074   5.643
84076SOL    HW154067   6.631   9.134   5.669
84076SOL    HW254068   6.748   9.055   5.724
84077SOL     OW54069  10.426  12.222  10.255
84077SOL    HW154070  10.370  12.187  10.324
84077SOL    HW254071  10.379  12.297  10.221
84078SOL     OW54072  14.091  14.043   2.407
84078SOL    HW154073  14.014  14.081   2.363
84078SOL    HW254074  14.057  13.964   2.449
84079SOL     OW54075   1.895   0.447   8.814
84079SOL    HW154076   1.800   0.461   8.817
84079SOL    HW254077   1.914   0.436   8.721
84080SOL     OW54078   1.460   7.017   9.483
84080SOL    HW154079   1.397   7.065   9.537
84080SOL    HW254080   1.411   6.992   9.405
84081SOL     OW54081   6.913   1.521  10.817
84081SOL    HW154082   6.969   1.584  10.773
84081SOL    HW254083   6.826   1.561  10.817
84082SOL     OW54084   7.487   6.060   2.029
84082SOL    HW154085   7.392   6.048   2.034
84082SOL    HW254086   7.517   5.986   1.976
84083SOL     OW54087   4.794   1.506  10.952
84083SOL    HW154088   4.851   1.567  10.999
84083SOL    HW254089   4.846   1.426  10.946
84084SOL     OW54090  14.330  14.316   4.631
84084SOL    HW154091  14.301  14.401   4.665
84084SOL    HW254092  14.388  14.281   4.699
84085SOL     OW54093   9.060   8.091   2.843
84085SOL    HW154094   8.982   8.068   2.792
84085SOL    HW254095   9.130   8.099   2.779
84086SOL     OW54096  13.158   5.665   1.131
84086SOL    HW154097  13.146   5.683   1.038
84086SOL    HW254098  13.229   5.601   1.135
84087SOL     OW54099  13.797  10.895  11.626
84087SOL    HW154100  13.766  10.808  11.604
84087SOL    HW254101  13.727  10.933  11.679
84088SOL     OW54102   9.669   0.037   4.995
84088SOL    HW154103   9.608  14.837   4.989
84088SOL    HW254104   9.754  14.868   5.012
84089SOL     OW54105  11.375   2.456   5.459
84089SOL    HW154106  11.372   2.550   5.477
84089SOL    HW254107  11.454   2.425   5.504
84090SOL     OW54108   4.255   1.398  10.748
84090SOL    HW154109   4.240   1.492  10.753
84090SOL    HW254110   4.174   1.362  10.712
84091SOL     OW54111   7.255  13.336  10.394
84091SOL    HW154112   7.279  13.260  10.341
84091SOL    HW254113   7.328  13.396  10.385
84092SOL     OW54114   8.708  11.016   4.934
84092SOL    HW154115   8.709  10.946   4.868
84092SOL    HW254116   8.753  10.979   5.009
84093SOL     OW54117  11.407  11.884   8.509
84093SOL    HW154118  11.338  11.820   8.526
84093SOL    HW254119  11.474  11.866   8.575
84094SOL     OW54120   9.450   7.373   5.382
84094SOL    HW154121   9.432   7.281   5.360
84094SOL    HW254122   9.529   7.394   5.332
84095SOL     OW54123   5.009   4.508  13.352
84095SOL    HW154124   4.961   4.427  13.332
84095SOL    HW254125   4.940   4.573  13.367
84096SOL     OW54126   6.691  14.121   6.166
84096SOL    HW154127   6.713  14.186   6.099
84096SOL    HW254128   6.596  14.112   6.159
84097SOL     OW54129   4.311  11.439   1.239
84097SOL    HW154130   4.236  11.444   1.179
84097SOL    HW254131   4.332  11.346   1.244
84098SOL     OW54132  10.199  14.473   5.022
84098SOL    HW154133  10.108  14.445   5.032
84098SOL    HW254134  10.244  14.397   4.985
84099SOL     OW54135  11.541   6.046   1.829
84099SOL    HW154136  11.527   5.961   1.787
84099SOL    HW254137  11.601   6.093   1.771
84100SOL     OW54138  13.368   5.230   1.887
84100SOL    HW154139  13.365   5.310   1.835
84100SOL    HW254140  13.331   5.163   1.829
84101SOL     OW54141   5.931   7.286   3.011
84101SOL    HW154142   5.918   7.320   2.922
84101SOL    HW254143   5.866   7.217   3.021
84102SOL     OW54144  13.366  13.614  14.199
84102SOL    HW154145  13.419  13.689  14.226
84102SOL    HW254146  13.400  13.592  14.112
84103SOL     OW54147   0.471  11.274   7.649
84103SOL    HW154148   0.522  11.335   7.701
84103SOL    HW254149   0.383  11.277   7.688
84104SOL     OW54150   5.181  13.829   1.680
84104SOL    HW154151   5.174  13.924   1.680
84104SOL    HW254152   5.233  13.808   1.758
84105SOL     OW54153  11.270   4.794   4.895
84105SOL    HW154154  11.362   4.779   4.916
84105SOL    HW254155  11.234   4.707   4.879
84106SOL     OW54156   3.083   2.280  13.806
84106SOL    HW154157   3.169   2.241  13.791
84106SOL    HW254158   3.024   2.205  13.815
84107SOL     OW54159   5.732   0.415   4.551
84107SOL    HW154160   5.760   0.390   4.463
84107SOL    HW254161   5.691   0.336   4.586
84108SOL     OW54162   5.372  14.094   6.728
84108SOL    HW154163   5.320  14.173   6.740
84108SOL    HW254164   5.430  14.091   6.803
84109SOL     OW54165   1.917   1.398   3.005
84109SOL    HW154166   1.982   1.451   3.052
84109SOL    HW254167   1.965   1.320   2.978
84110SOL     OW54168   4.368   4.269  14.846
84110SOL    HW154169   4.355   4.218  14.766
84110SOL    HW254170   4.401   4.206   0.036
84111SOL     OW54171   5.215  11.413   1.832
84111SOL    HW154172   5.173  11.499   1.841
84111SOL    HW254173   5.217  11.378   1.920
84112SOL     OW54174   6.271   9.928   4.735
84112SOL    HW154175   6.348   9.897   4.687
84112SOL    HW254176   6.248   9.854   4.792
84113SOL     OW54177   8.739   8.764  12.805
84113SOL    HW154178   8.659   8.715  12.791
84113SOL    HW254179   8.716   8.854  12.782
84114SOL     OW54180  13.397  10.110   5.338
84114SOL    HW154181  13.401  10.081   5.247
84114SOL    HW254182  13.371  10.031   5.386
84115SOL     OW54183   8.360   6.921   6.927
84115SOL    HW154184   8.302   6.847   6.947
84115SOL    HW254185   8.367   6.922   6.832
84116SOL     OW54186  14.367  10.468  13.675
84116SOL    HW154187  14.337  10.471  13.765
84116SOL    HW254188  14.430  10.396  13.673
84117SOL     OW54189  13.029   3.465  12.173
84117SOL    HW154190  12.957   3.401  12.171
84117SOL    HW254191  13.024   3.509  12.088
84118SOL     OW54192  10.464   5.521   5.229
84118SOL    HW154193  10.375   5.540   5.198
84118SOL    HW254194  10.497   5.455   5.169
84119SOL     OW54195   1.038  11.025   4.797
84119SOL    HW154196   1.033  10.947   4.851
84119SOL    HW254197   0.989  11.002   4.718
84120SOL     OW54198  12.535   5.381   5.036
84120SOL    HW154199  12.584   5.402   5.116
84120SOL    HW254200  12.478   5.309   5.062
84121SOL     OW54201  14.288   5.408   9.737
84121SOL    HW154202  14.238   5.438   9.814
84121SOL    HW254203  14.353   5.348   9.772
84122SOL     OW54204   0.504   5.451   6.153
84122SOL    HW154205   0.522   5.512   6.225
84122SOL    HW254206   0.415   5.421   6.169
84123SOL     OW54207   7.558   3.303   5.472
84123SOL    HW154208   7.559   3.252   5.391
84123SOL    HW254209   7.542   3.238   5.541
84124SOL     OW54210   4.124   4.183  13.113
84124SOL    HW154211   4.075   4.236  13.176
84124SOL    HW254212   4.059   4.159  13.047
84125SOL     OW54213   1.630   1.579   7.082
84125SOL    HW154214   1.646   1.547   7.171
84125SOL    HW254215   1.584   1.507   7.039
84126SOL     OW54216  12.677   3.258  13.871
84126SOL    HW154217  12.604   3.208  13.906
84126SOL    HW254218  12.677   3.340  13.920
84127SOL     OW54219   7.136   2.897   1.976
84127SOL    HW154220   7.097   2.889   1.889
84127SOL    HW254221   7.210   2.957   1.964
84128SOL     OW54222  11.539   0.410  11.865
84128SOL    HW154223  11.554   0.458  11.784
84128SOL    HW254224  11.626   0.379  11.891
84129SOL     OW54225   1.366   8.423   9.369
84129SOL    HW154226   1.401   8.379   9.447
84129SOL    HW254227   1.370   8.516   9.389
84130SOL     OW54228   8.644  14.024   4.947
84130SOL    HW154229   8.549  14.012   4.951
84130SOL    HW254230   8.678  13.938   4.925
84131SOL     OW54231   3.206  12.369   7.903
84131SOL    HW154232   3.123  12.335   7.868
84131SOL    HW254233   3.231  12.437   7.841
84132SOL     OW54234  14.500   7.380  13.694
84132SOL    HW154235  14.448   7.367  13.773
84132SOL    HW254236  14.447   7.344  13.624
84133SOL     OW54237  13.974  12.211  13.738
84133SOL    HW154238  13.938  12.252  13.816
84133SOL    HW254239  14.035  12.275  13.703
84134SOL     OW54240   1.675   0.017   5.722
84134SOL    HW154241   1.697   0.037   5.631
84134SOL    HW254242   1.673  14.795   5.727
84135SOL     OW54243   2.352   2.223  12.648
84135SOL    HW154244   2.412   2.297  12.660
84135SOL    HW254245   2.385   2.178  12.571
84136SOL     OW54246   6.300   7.905   5.833
84136SOL    HW154247   6.382   7.860   5.809
84136SOL    HW254248   6.304   7.988   5.787
84137SOL     OW54249   0.303  11.036   6.122
84137SOL    HW154250   0.246  11.076   6.188
84137SOL    HW254251   0.281  10.943   6.124
84138SOL     OW54252  14.169  13.607   6.677
84138SOL    HW154253  14.159  13.512   6.673
84138SOL    HW254254  14.184  13.626   6.770
84139SOL     OW54255  11.263   7.002   3.882
84139SOL    HW154256  11.232   6.951   3.807
84139SOL    HW254257  11.332   6.948   3.921
84140SOL     OW54258  11.678   3.120   9.753
84140SOL    HW154259  11.720   3.172   9.685
84140SOL    HW254260  11.742   3.053   9.775
84141SOL     OW54261   0.388   3.666   7.496
84141SOL    HW154262   0.439   3.585   7.487
84141SOL    HW254263   0.381   3.699   7.407
84142SOL     OW54264  12.619   8.791  11.962
84142SOL    HW154265  12.625   8.696  11.972
84142SOL    HW254266  12.693   8.825  12.011
84143SOL     OW54267   9.450  13.599   5.415
84143SOL    HW154268   9.468  13.684   5.374
84143SOL    HW254269   9.449  13.617   5.509
84144SOL     OW54270   4.904   9.361  12.929
84144SOL    HW154271   4.993   9.327  12.928
84144SOL    HW254272   4.863   9.323  12.852
84145SOL     OW54273   5.575  10.444  13.676
84145SOL    HW154274   5.668  10.445  13.651
84145SOL    HW254275   5.559  10.355  13.707
84146SOL     OW54276   8.962  11.665  12.127
84146SOL    HW154277   8.934  11.703  12.044
84146SOL    HW254278   9.049  11.700  12.142
84147SOL     OW54279   5.296  11.092   0.434
84147SOL    HW154280   5.367  11.082   0.498
84147SOL    HW254281   5.263  11.180   0.447
84148SOL     OW54282   5.819   0.934  12.442
84148SOL    HW154283   5.730   0.962  12.464
84148SOL    HW254284   5.808   0.870  12.372
84149SOL     OW54285   8.215   8.752  12.588
84149SOL    HW154286   8.247   8.702  12.664
84149SOL    HW254287   8.210   8.843  12.620
84150SOL     OW54288   5.568   9.843   7.437
84150SOL    HW154289   5.508   9.832   7.510
84150SOL    HW254290   5.580   9.938   7.429
84151SOL     OW54291   5.852  13.076   0.090
84151SOL    HW154292   5.874  12.984   0.098
84151SOL    HW254293   5.927  13.115   0.045
84152SOL     OW54294  11.783   2.775   4.534
84152SOL    HW154295  11.836   2.696   4.521
84152SOL    HW254296  11.700   2.742   4.568
84153SOL     OW54297  11.666  13.373   1.651
84153SOL    HW154298  11.759  13.371   1.629
84153SOL    HW254299  11.634  13.286   1.629
84154SOL     OW54300   9.515  14.016   7.859
84154SOL    HW154301   9.537  14.041   7.769
84154SOL    HW254302   9.595  13.976   7.893
84155SOL     OW54303  10.274   7.164   9.659
84155SOL    HW154304  10.230   7.242   9.626
84155SOL    HW254305  10.213   7.092   9.641
84156SOL     OW54306   4.572   6.351   4.620
84156SOL    HW154307   4.477   6.362   4.628
84156SOL    HW254308   4.584   6.257   4.607
84157SOL     OW54309   5.750   8.652   6.095
84157SOL    HW154310   5.818   8.659   6.028
84157SOL    HW254311   5.754   8.735   6.141
84158SOL     OW54312  11.453   7.656  12.702
84158SOL    HW154313  11.544   7.643  12.728
84158SOL    HW254314  11.404   7.654  12.785
84159SOL     OW54315   7.934   1.008  10.324
84159SOL    HW154316   8.009   0.965  10.364
84159SOL    HW254317   7.961   1.100  10.316
84160SOL     OW54318   8.555   8.228   1.780
84160SOL    HW154319   8.596   8.143   1.795
84160SOL    HW254320   8.508   8.219   1.698
84161SOL     OW54321   5.879  13.181  13.951
84161SOL    HW154322   5.873  13.099  14.000
84161SOL    HW254323   5.811  13.237  13.989
84162SOL     OW54324   0.852   6.375   9.670
84162SOL    HW154325   0.841   6.381   9.575
84162SOL    HW254326   0.889   6.288   9.685
84163SOL     OW54327  10.841  11.150  11.525
84163SOL    HW154328  10.771  11.214  11.535
84163SOL    HW254329  10.921  11.202  11.515
84164SOL     OW54330  12.345  11.626   6.477
84164SOL    HW154331  12.373  11.611   6.567
84164SOL    HW254332  12.308  11.542   6.449
84165SOL     OW54333   6.712   7.942   2.011
84165SOL    HW154334   6.647   7.985   2.066
84165SOL    HW254335   6.796   7.980   2.037
84166SOL     OW54336   8.215  11.117   6.164
84166SOL    HW154337   8.151  11.076   6.107
84166SOL    HW254338   8.278  11.048   6.184
84167SOL     OW54339   9.767   5.018   5.321
84167SOL    HW154340   9.693   5.039   5.377
84167SOL    HW254341   9.728   4.990   5.238
84168SOL     OW54342   1.107   7.018  11.057
84168SOL    HW154343   1.123   6.934  11.099
84168SOL    HW254344   1.018   7.011  11.021
84169SOL     OW54345   0.299   8.025  11.180
84169SOL    HW154346   0.358   8.097  11.203
84169SOL    HW254347   0.224   8.068  11.139
84170SOL     OW54348   3.628   7.703  13.721
84170SOL    HW154349   3.674   7.637  13.772
84170SOL    HW254350   3.688   7.724  13.649
84171SOL     OW54351  13.024   9.013   0.783
84171SOL    HW154352  12.960   9.066   0.735
84171SOL    HW254353  12.999   9.024   0.875
84172SOL     OW54354  12.925   0.738   5.533
84172SOL    HW154355  12.837   0.705   5.551
84172SOL    HW254356  12.955   0.773   5.617
84173SOL     OW54357   5.074   1.011   1.179
84173SOL    HW154358   5.118   1.073   1.121
84173SOL    HW254359   5.031   1.066   1.245
84174SOL     OW54360   6.201   9.794  14.551
84174SOL    HW154361   6.122   9.834  14.515
84174SOL    HW254362   6.267   9.863  14.545
84175SOL     OW54363  11.534   0.189   3.224
84175SOL    HW154364  11.461   0.248   3.206
84175SOL    HW254365  11.567   0.218   3.309
84176SOL     OW54366   8.900  11.721   6.285
84176SOL    HW154367   8.852  11.736   6.366
84176SOL    HW254368   8.992  11.723   6.311
84177SOL     OW54369  11.605  11.848   6.693
84177SOL    HW154370  11.604  11.938   6.660
84177SOL    HW254371  11.512  11.825   6.703
84178SOL     OW54372   0.033  10.937   3.800
84178SOL    HW154373   0.044  10.940   3.705
84178SOL    HW254374   0.053  11.027   3.829
84179SOL     OW54375   0.769   3.636   7.583
84179SOL    HW154376   0.715   3.698   7.632
84179SOL    HW254377   0.839   3.689   7.546
84180SOL     OW54378   4.824  14.165  12.848
84180SOL    HW154379   4.863  14.252  12.838
84180SOL    HW254380   4.880  14.121  12.912
84181SOL     OW54381   8.922   5.965   0.047
84181SOL    HW154382   8.871   5.963  14.839
84181SOL    HW254383   8.933   6.058   0.066
84182SOL     OW54384   9.127  12.622   8.338
84182SOL    HW154385   9.112  12.709   8.375
84182SOL    HW254386   9.191  12.581   8.397
84183SOL     OW54387   7.418  12.937   0.451
84183SOL    HW154388   7.348  12.964   0.392
84183SOL    HW254389   7.471  13.016   0.463
84184SOL     OW54390   5.180   7.340   6.462
84184SOL    HW154391   5.262   7.295   6.481
84184SOL    HW254392   5.111   7.278   6.486
84185SOL     OW54393   9.758   0.792  13.572
84185SOL    HW154394   9.665   0.769  13.573
84185SOL    HW254395   9.803   0.713  13.601
84186SOL     OW54396   4.576  14.741  12.070
84186SOL    HW154397   4.538  14.667  12.117
84186SOL    HW254398   4.508  14.769  12.009
84187SOL     OW54399   3.837   7.971  13.907
84187SOL    HW154400   3.745   7.995  13.915
84187SOL    HW254401   3.844   7.886  13.951
84188SOL     OW54402  12.079  13.375  14.160
84188SOL    HW154403  11.990  13.341  14.167
84188SOL    HW254404  12.068  13.467  14.139
84189SOL     OW54405  12.556  12.437  11.015
84189SOL    HW154406  12.555  12.480  10.930
84189SOL    HW254407  12.482  12.376  11.011
84190SOL     OW54408   9.300  13.434   1.698
84190SOL    HW154409   9.367  13.495   1.729
84190SOL    HW254410   9.232  13.437   1.765
84191SOL     OW54411   3.995  10.749   9.295
84191SOL    HW154412   3.930  10.683   9.320
84191SOL    HW254413   3.951  10.833   9.311
84192SOL     OW54414   6.216   4.153   9.234
84192SOL    HW154415   6.182   4.115   9.153
84192SOL    HW254416   6.141   4.154   9.294
84193SOL     OW54417  14.064   0.775   8.594
84193SOL    HW154418  13.986   0.747   8.546
84193SOL    HW254419  14.136   0.765   8.531
84194SOL     OW54420   5.255   5.515   2.730
84194SOL    HW154421   5.266   5.488   2.821
84194SOL    HW254422   5.344   5.532   2.699
84195SOL     OW54423  13.080  14.686   2.506
84195SOL    HW154424  13.048  14.760   2.456
84195SOL    HW254425  13.029  14.611   2.474
84196SOL     OW54426   1.411  13.754   7.710
84196SOL    HW154427   1.413  13.707   7.627
84196SOL    HW254428   1.414  13.846   7.686
84197SOL     OW54429   4.050   0.558   6.309
84197SOL    HW154430   4.107   0.506   6.366
84197SOL    HW254431   4.026   0.497   6.239
84198SOL     OW54432  14.495   0.618  14.721
84198SOL    HW154433  14.549   0.695  14.740
84198SOL    HW254434  14.414   0.653  14.687
84199SOL     OW54435  10.323   7.872  14.343
84199SOL    HW154436  10.236   7.880  14.382
84199SOL    HW254437  10.369   7.811  14.400
84200SOL     OW54438  10.225  13.465  10.472
84200SOL    HW154439  10.315  13.468  10.502
84200SOL    HW254440  10.173  13.499  10.545
84201SOL     OW54441  11.633   7.858   4.700
84201SOL    HW154442  11.545   7.885   4.673
84201SOL    HW254443  11.690   7.928   4.668
84202SOL     OW54444   6.572   8.998   1.117
84202SOL    HW154445   6.630   8.958   1.182
84202SOL    HW254446   6.575   9.092   1.136
84203SOL     OW54447   9.936   5.605  14.140
84203SOL    HW154448   9.994   5.672  14.176
84203SOL    HW254449   9.850   5.627  14.176
84204SOL     OW54450  13.219  10.409   3.495
84204SOL    HW154451  13.172  10.445   3.420
84204SOL    HW254452  13.276  10.480   3.524
84205SOL     OW54453   7.007  11.680   6.271
84205SOL    HW154454   7.062  11.724   6.206
84205SOL    HW254455   6.950  11.748   6.305
84206SOL     OW54456   2.818   0.954   6.289
84206SOL    HW154457   2.901   0.966   6.243
84206SOL    HW254458   2.806   0.859   6.292
84207SOL     OW54459  10.910   5.908   9.946
84207SOL    HW154460  10.920   5.958   9.865
84207SOL    HW254461  10.900   5.974  10.014
84208SOL     OW54462   9.786   7.118  11.187
84208SOL    HW154463   9.698   7.156  11.180
84208SOL    HW254464   9.828   7.168  11.257
84209SOL     OW54465   4.076  11.836  12.622
84209SOL    HW154466   4.022  11.805  12.550
84209SOL    HW254467   4.156  11.868  12.581
84210SOL     OW54468   2.395   6.132   8.599
84210SOL    HW154469   2.369   6.174   8.681
84210SOL    HW254470   2.483   6.097   8.617
84211SOL     OW54471  10.418   2.698   4.458
84211SOL    HW154472  10.506   2.663   4.472
84211SOL    HW254473  10.371   2.629   4.412
84212SOL     OW54474  13.715   6.431   4.364
84212SOL    HW154475  13.772   6.486   4.418
84212SOL    HW254476  13.654   6.392   4.426
84213SOL     OW54477   2.412  14.845   2.254
84213SOL    HW154478   2.323   0.000   2.274
84213SOL    HW254479   2.442   0.035   2.188
84214SOL     OW54480   8.927  12.710   3.497
84214SOL    HW154481   8.881  12.668   3.570
84214SOL    HW254482   8.999  12.650   3.476
84215SOL     OW54483   1.759   2.002   6.261
84215SOL    HW154484   1.664   1.994   6.259
84215SOL    HW254485   1.776   2.088   6.299
84216SOL     OW54486   2.625   0.104   0.826
84216SOL    HW154487   2.690   0.151   0.773
84216SOL    HW254488   2.621   0.016   0.787
84217SOL     OW54489   2.426   1.748  13.692
84217SOL    HW154490   2.393   1.661  13.711
84217SOL    HW254491   2.351   1.796  13.658
84218SOL     OW54492   2.507   3.179   3.083
84218SOL    HW154493   2.431   3.182   3.026
84218SOL    HW254494   2.548   3.094   3.064
84219SOL     OW54495   2.766   1.245   6.550
84219SOL    HW154496   2.846   1.213   6.592
84219SOL    HW254497   2.775   1.218   6.459
84220SOL     OW54498   1.607  11.462   5.506
84220SOL    HW154499   1.643  11.550   5.492
84220SOL    HW254500   1.681  11.403   5.489
84221SOL     OW54501   1.499   7.986  14.284
84221SOL    HW154502   1.496   8.080  14.303
84221SOL    HW254503   1.423   7.950  14.330
84222SOL     OW54504   1.459  11.476   9.178
84222SOL    HW154505   1.402  11.552   9.190
84222SOL    HW254506   1.517  11.477   9.255
84223SOL     OW54507   4.941  13.889  10.309
84223SOL    HW154508   4.882  13.943  10.255
84223SOL    HW254509   4.887  13.816  10.338
84224SOL     OW54510  12.687   1.439  14.666
84224SOL    HW154511  12.598   1.406  14.678
84224SOL    HW254512  12.685   1.482  14.581
84225SOL     OW54513   3.428   5.781  12.942
84225SOL    HW154514   3.451   5.787  13.034
84225SOL    HW254515   3.512   5.768  12.897
84226SOL     OW54516   0.645   0.606   8.584
84226SOL    HW154517   0.564   0.556   8.583
84226SOL    HW254518   0.617   0.696   8.601
84227SOL     OW54519   9.402  13.455   8.017
84227SOL    HW154520   9.401  13.368   7.976
84227SOL    HW254521   9.450  13.442   8.099
84228SOL     OW54522   9.056  14.590  10.701
84228SOL    HW154523   9.100  14.675  10.701
84228SOL    HW254524   9.119  14.531  10.659
84229SOL     OW54525   3.133   4.280  11.025
84229SOL    HW154526   3.066   4.268  11.093
84229SOL    HW254527   3.206   4.322  11.071
84230SOL     OW54528   4.956  13.614   0.130
84230SOL    HW154529   5.018  13.661   0.075
84230SOL    HW254530   4.900  13.681   0.168
84231SOL     OW54531  13.225   9.792   0.954
84231SOL    HW154532  13.161   9.854   0.989
84231SOL    HW254533  13.291   9.784   1.024
84232SOL     OW54534  12.943   7.142  12.047
84232SOL    HW154535  12.985   7.174  11.967
84232SOL    HW254536  12.950   7.047  12.041
84233SOL     OW54537   3.678   0.396  10.534
84233SOL    HW154538   3.692   0.391  10.439
84233SOL    HW254539   3.716   0.315  10.568
84234SOL     OW54540  13.700  12.682  12.390
84234SOL    HW154541  13.632  12.652  12.331
84234SOL    HW254542  13.656  12.693  12.475
84235SOL     OW54543   3.188   4.375   5.992
84235SOL    HW154544   3.092   4.377   5.997
84235SOL    HW254545   3.214   4.467   6.002
84236SOL     OW54546  10.466   9.144   0.507
84236SOL    HW154547  10.478   9.081   0.577
84236SOL    HW254548  10.388   9.115   0.461
84237SOL     OW54549  14.400   1.472   6.330
84237SOL    HW154550  14.376   1.380   6.316
84237SOL    HW254551  14.400   1.481   6.425
84238SOL     OW54552   9.483  10.889   3.676
84238SOL    HW154553   9.572  10.920   3.659
84238SOL    HW254554   9.479  10.805   3.630
84239SOL     OW54555   8.632   8.460   6.577
84239SOL    HW154556   8.708   8.437   6.630
84239SOL    HW254557   8.611   8.380   6.528
84240SOL     OW54558   8.007   1.284  12.157
84240SOL    HW154559   7.919   1.313  12.131
84240SOL    HW254560   8.053   1.365  12.180
84241SOL     OW54561  14.780   4.029  13.865
84241SOL    HW154562  14.696   4.043  13.822
84241SOL    HW254563  14.788   3.934  13.872
84242SOL     OW54564   9.243   1.383   0.962
84242SOL    HW154565   9.200   1.466   0.984
84242SOL    HW254566   9.218   1.367   0.871
84243SOL     OW54567  12.718   3.834   7.956
84243SOL    HW154568  12.647   3.812   7.897
84243SOL    HW254569  12.678   3.887   8.025
84244SOL     OW54570  10.237  11.759   0.432
84244SOL    HW154571  10.173  11.690   0.448
84244SOL    HW254572  10.222  11.822   0.503
84245SOL     OW54573   7.188   8.933  14.033
84245SOL    HW154574   7.162   8.985  13.958
84245SOL    HW254575   7.108   8.889  14.061
84246SOL     OW54576   8.466   8.670   1.014
84246SOL    HW154577   8.415   8.590   1.025
84246SOL    HW254578   8.508   8.684   1.099
84247SOL     OW54579   2.477  12.515   5.208
84247SOL    HW154580   2.411  12.484   5.271
84247SOL    HW254581   2.426  12.563   5.143
84248SOL     OW54582   6.043   4.933  12.709
84248SOL    HW154583   6.132   4.944  12.744
84248SOL    HW254584   6.033   5.005  12.646
84249SOL     OW54585  12.037   7.694  14.390
84249SOL    HW154586  12.023   7.775  14.437
84249SOL    HW254587  12.127   7.700  14.356
84250SOL     OW54588   0.714   4.007   9.358
84250SOL    HW154589   0.752   3.984   9.274
84250SOL    HW254590   0.619   4.009   9.342
84251SOL     OW54591   8.499   7.066  14.091
84251SOL    HW154592   8.516   7.059  14.185
84251SOL    HW254593   8.558   7.135  14.061
84252SOL     OW54594   9.539   8.562   1.885
84252SOL    HW154595   9.582   8.542   1.803
84252SOL    HW254596   9.452   8.595   1.860
84253SOL     OW54597   1.132   1.419   9.294
84253SOL    HW154598   1.086   1.451   9.371
84253SOL    HW254599   1.176   1.339   9.323
84254SOL     OW54600   5.713  11.702   2.538
84254SOL    HW154601   5.772  11.730   2.468
84254SOL    HW254602   5.629  11.742   2.517
84255SOL     OW54603  10.790  13.133   7.399
84255SOL    HW154604  10.795  13.077   7.476
84255SOL    HW254605  10.855  13.098   7.339
84256SOL     OW54606  11.191  12.478  14.813
84256SOL    HW154607  11.136  12.456  14.738
84256SOL    HW254608  11.130  12.480   0.014
84257SOL     OW54609   9.585  10.000   7.954
84257SOL    HW154610   9.554   9.919   7.914
84257SOL    HW254611   9.678   9.985   7.970
84258SOL     OW54612   1.827  14.840  13.048
84258SOL    HW154613   1.836  14.808  12.958
84258SOL    HW254614   1.738   0.001  13.053
84259SOL     OW54615   8.333  10.860  13.845
84259SOL    HW154616   8.240  10.880  13.850
84259SOL    HW254617   8.365  10.868  13.935
84260SOL     OW54618   7.884   2.449   9.915
84260SOL    HW154619   7.961   2.412   9.959
84260SOL    HW254620   7.841   2.502   9.982
84261SOL     OW54621   9.495   6.403   8.954
84261SOL    HW154622   9.425   6.398   9.019
84261SOL    HW254623   9.540   6.485   8.973
84262SOL     OW54624   2.130   0.265  13.782
84262SOL    HW154625   2.082   0.348  13.788
84262SOL    HW254626   2.201   0.283  13.720
84263SOL     OW54627   8.311   7.363   2.377
84263SOL    HW154628   8.228   7.317   2.367
84263SOL    HW254629   8.289   7.456   2.368
84264SOL     OW54630   6.458  14.527   4.938
84264SOL    HW154631   6.485  14.553   5.026
84264SOL    HW254632   6.526  14.563   4.881
84265SOL     OW54633   6.909   4.404   8.108
84265SOL    HW154634   6.866   4.322   8.083
84265SOL    HW254635   6.857   4.437   8.181
84266SOL     OW54636  13.398  11.143  14.141
84266SOL    HW154637  13.357  11.138  14.227
84266SOL    HW254638  13.487  11.110  14.154
84267SOL     OW54639   8.246   6.483   3.941
84267SOL    HW154640   8.152   6.479   3.921
84267SOL    HW254641   8.250   6.478   4.037
84268SOL     OW54642   6.634   4.747   5.713
84268SOL    HW154643   6.587   4.789   5.641
84268SOL    HW254644   6.569   4.738   5.782
84269SOL     OW54645  12.025   2.562  12.161
84269SOL    HW154646  12.075   2.512  12.095
84269SOL    HW254647  12.075   2.643  12.173
84270SOL     OW54648   1.708   5.018   6.524
84270SOL    HW154649   1.771   5.071   6.474
84270SOL    HW254650   1.763   4.954   6.569
84271SOL     OW54651  11.500   0.947   1.684
84271SOL    HW154652  11.409   0.953   1.653
84271SOL    HW254653  11.508   0.858   1.716
84272SOL     OW54654  11.763  11.423  12.739
84272SOL    HW154655  11.721  11.461  12.662
84272SOL    HW254656  11.767  11.495  12.802
84273SOL     OW54657  11.141   6.716  10.340
84273SOL    HW154658  11.139   6.752  10.429
84273SOL    HW254659  11.185   6.783  10.288
84274SOL     OW54660   5.656   7.871   3.941
84274SOL    HW154661   5.599   7.880   3.865
84274SOL    HW254662   5.632   7.787   3.979
84275SOL     OW54663  10.566  14.228   5.966
84275SOL    HW154664  10.563  14.317   5.999
84275SOL    HW254665  10.576  14.238   5.871
84276SOL     OW54666   7.820  11.845   4.032
84276SOL    HW154667   7.879  11.912   4.069
84276SOL    HW254668   7.806  11.784   4.104
84277SOL     OW54669   5.212  10.634   9.625
84277SOL    HW154670   5.196  10.728   9.615
84277SOL    HW254671   5.227  10.603   9.536
84278SOL     OW54672   4.677   1.144   2.520
84278SOL    HW154673   4.692   1.238   2.534
84278SOL    HW254674   4.621   1.118   2.593
84279SOL     OW54675  11.233   2.865   2.912
84279SOL    HW154676  11.295   2.799   2.940
84279SOL    HW254677  11.223   2.851   2.817
84280SOL     OW54678   5.915   7.455   6.513
84280SOL    HW154679   5.936   7.407   6.593
84280SOL    HW254680   5.858   7.396   6.464
84281SOL     OW54681  13.627   3.104   5.094
84281SOL    HW154682  13.641   3.061   5.178
84281SOL    HW254683  13.585   3.187   5.116
84282SOL     OW54684  14.547   7.985   9.349
84282SOL    HW154685  14.626   8.016   9.392
84282SOL    HW254686  14.491   7.955   9.421
84283SOL     OW54687   5.349   0.691   1.620
84283SOL    HW154688   5.281   0.636   1.583
84283SOL    HW254689   5.422   0.685   1.558
84284SOL     OW54690   9.989   5.869   5.050
84284SOL    HW154691  10.047   5.931   5.094
84284SOL    HW254692  10.037   5.842   4.972
84285SOL     OW54693   4.029   5.561   6.496
84285SOL    HW154694   3.957   5.623   6.492
84285SOL    HW254695   4.088   5.597   6.562
84286SOL     OW54696   5.458  13.297   5.424
84286SOL    HW154697   5.373  13.326   5.389
84286SOL    HW254698   5.497  13.246   5.354
84287SOL     OW54699  10.911  11.593   1.581
84287SOL    HW154700  10.987  11.623   1.532
84287SOL    HW254701  10.899  11.659   1.650
84288SOL     OW54702   2.201  11.065   1.006
84288SOL    HW154703   2.181  11.037   1.095
84288SOL    HW254704   2.122  11.109   0.976
84289SOL     OW54705  12.454  13.637   8.484
84289SOL    HW154706  12.426  13.723   8.515
84289SOL    HW254707  12.550  13.641   8.486
84290SOL     OW54708   7.760   2.051   4.523
84290SOL    HW154709   7.723   1.963   4.515
84290SOL    HW254710   7.694   2.101   4.571
84291SOL     OW54711   5.151   9.679  11.371
84291SOL    HW154712   5.227   9.688  11.314
84291SOL    HW254713   5.099   9.609  11.332
84292SOL     OW54714  14.152   5.478   7.417
84292SOL    HW154715  14.165   5.383   7.407
84292SOL    HW254716  14.240   5.514   7.425
84293SOL     OW54717   1.168   7.769   1.961
84293SOL    HW154718   1.093   7.739   2.012
84293SOL    HW254719   1.155   7.864   1.955
84294SOL     OW54720   2.474   9.758   3.934
84294SOL    HW154721   2.427   9.680   3.904
84294SOL    HW254722   2.506   9.798   3.853
84295SOL     OW54723  12.098   2.068  13.135
84295SOL    HW154724  12.120   2.161  13.127
84295SOL    HW254725  12.019   2.058  13.082
84296SOL     OW54726   9.938   8.093   4.490
84296SOL    HW154727   9.887   8.023   4.530
84296SOL    HW254728   9.873   8.156   4.460
84297SOL     OW54729   8.920   5.766   1.987
84297SOL    HW154730   8.880   5.742   2.071
84297SOL    HW254731   9.008   5.797   2.010
84298SOL     OW54732   1.858  11.937   7.200
84298SOL    HW154733   1.882  11.954   7.109
84298SOL    HW254734   1.763  11.943   7.202
84299SOL     OW54735   9.708   7.095   5.309
84299SOL    HW154736   9.722   7.103   5.215
84299SOL    HW254737   9.613   7.093   5.319
84300SOL     OW54738   9.881   6.260   1.917
84300SOL    HW154739   9.831   6.303   1.848
84300SOL    HW254740   9.817   6.205   1.962
84301SOL     OW54741  11.841   4.568   0.213
84301SOL    HW154742  11.899   4.643   0.200
84301SOL    HW254743  11.757   4.597   0.178
84302SOL     OW54744   0.738   6.300  11.443
84302SOL    HW154745   0.821   6.328  11.483
84302SOL    HW254746   0.726   6.210  11.473
84303SOL     OW54747  10.576   5.953   5.793
84303SOL    HW154748  10.481   5.955   5.785
84303SOL    HW254749  10.609   5.985   5.709
84304SOL     OW54750   4.959  12.994   0.106
84304SOL    HW154751   4.895  12.940   0.153
84304SOL    HW254752   5.041  12.981   0.154
84305SOL     OW54753  14.206  10.279   9.748
84305SOL    HW154754  14.124  10.308   9.707
84305SOL    HW254755  14.237  10.207   9.693
84306SOL     OW54756  10.094   7.295   3.077
84306SOL    HW154757  10.097   7.215   3.131
84306SOL    HW254758  10.140   7.272   2.997
84307SOL     OW54759  13.818  11.759   3.536
84307SOL    HW154760  13.788  11.711   3.459
84307SOL    HW254761  13.824  11.850   3.506
84308SOL     OW54762   5.155  11.862  12.623
84308SOL    HW154763   5.109  11.862  12.706
84308SOL    HW254764   5.224  11.797  12.633
84309SOL     OW54765  12.863   2.686   5.994
84309SOL    HW154766  12.786   2.738   6.018
84309SOL    HW254767  12.892   2.723   5.911
84310SOL     OW54768   9.345  14.771  13.284
84310SOL    HW154769   9.381  14.773  13.196
84310SOL    HW254770   9.253  14.796  13.273
84311SOL     OW54771   8.173   3.555   6.793
84311SOL    HW154772   8.080   3.541   6.775
84311SOL    HW254773   8.203   3.474   6.834
84312SOL     OW54774  12.757   8.801  10.284
84312SOL    HW154775  12.705   8.879  10.303
84312SOL    HW254776  12.824   8.833  10.223
84313SOL     OW54777  13.721  11.308  10.601
84313SOL    HW154778  13.758  11.286  10.516
84313SOL    HW254779  13.672  11.389  10.586
84314SOL     OW54780   1.213   6.118  13.552
84314SOL    HW154781   1.128   6.078  13.571
84314SOL    HW254782   1.227   6.182  13.622
84315SOL     OW54783   5.230  13.635   9.372
84315SOL    HW154784   5.166  13.597   9.312
84315SOL    HW254785   5.181  13.701   9.420
84316SOL     OW54786   9.815   9.179   8.747
84316SOL    HW154787   9.773   9.127   8.816
84316SOL    HW254788   9.834   9.116   8.677
84317SOL     OW54789   4.449   1.681  14.753
84317SOL    HW154790   4.464   1.587  14.750
84317SOL    HW254791   4.533   1.720  14.730
84318SOL     OW54792   0.922   9.077  14.214
84318SOL    HW154793   0.922   9.054  14.307
84318SOL    HW254794   1.015   9.086  14.193
84319SOL     OW54795   5.454   3.279   2.236
84319SOL    HW154796   5.539   3.321   2.230
84319SOL    HW254797   5.468   3.203   2.292
84320SOL     OW54798   6.227   2.161  11.612
84320SOL    HW154799   6.278   2.194  11.538
84320SOL    HW254800   6.157   2.109  11.573
84321SOL     OW54801   5.371   2.489  11.714
84321SOL    HW154802   5.431   2.435  11.662
84321SOL    HW254803   5.337   2.429  11.780
84322SOL     OW54804   1.104  10.297   7.726
84322SOL    HW154805   1.172  10.305   7.659
84322SOL    HW254806   1.118  10.211   7.765
84323SOL     OW54807   6.708  12.320  10.638
84323SOL    HW154808   6.662  12.263  10.576
84323SOL    HW254809   6.800  12.293  10.631
84324SOL     OW54810   3.746   0.150  12.066
84324SOL    HW154811   3.790   0.180  12.145
84324SOL    HW254812   3.653   0.154  12.087
84325SOL     OW54813   4.168   5.981   2.413
84325SOL    HW154814   4.251   5.934   2.407
84325SOL    HW254815   4.171   6.044   2.341
84326SOL     OW54816   3.989   0.307   6.226
84326SOL    HW154817   3.965   0.318   6.134
84326SOL    HW254818   3.910   0.328   6.274
84327SOL     OW54819  12.036   9.475  13.594
84327SOL    HW154820  11.984   9.535  13.647
84327SOL    HW254821  12.028   9.508  13.504
84328SOL     OW54822   5.418  12.089   8.755
84328SOL    HW154823   5.375  12.164   8.712
84328SOL    HW254824   5.373  12.081   8.839
84329SOL     OW54825  12.572   7.276   5.839
84329SOL    HW154826  12.632   7.344   5.871
84329SOL    HW254827  12.610   7.194   5.870
84330SOL     OW54828  13.911   1.089  14.368
84330SOL    HW154829  13.848   1.132  14.311
84330SOL    HW254830  13.962   1.160  14.406
84331SOL     OW54831   9.995   6.284  13.081
84331SOL    HW154832  10.011   6.368  13.038
84331SOL    HW254833  10.057   6.282  13.154
84332SOL     OW54834   3.429   5.547  11.302
84332SOL    HW154835   3.457   5.593  11.223
84332SOL    HW254836   3.417   5.617  11.367
84333SOL     OW54837   9.383   6.465   7.965
84333SOL    HW154838   9.459   6.448   8.020
84333SOL    HW254839   9.319   6.504   8.024
84334SOL     OW54840   6.354   4.639   2.653
84334SOL    HW154841   6.396   4.605   2.731
84334SOL    HW254842   6.275   4.683   2.685
84335SOL     OW54843   3.965   0.817   6.703
84335SOL    HW154844   4.046   0.840   6.750
84335SOL    HW254845   3.895   0.837   6.765
84336SOL     OW54846   5.417   9.473   7.545
84336SOL    HW154847   5.474   9.511   7.612
84336SOL    HW254848   5.441   9.381   7.542
84337SOL     OW54849  11.535  12.286   1.379
84337SOL    HW154850  11.471  12.345   1.417
84337SOL    HW254851  11.618  12.310   1.421
84338SOL     OW54852   4.795   1.733  11.920
84338SOL    HW154853   4.765   1.702  12.005
84338SOL    HW254854   4.735   1.805  11.898
84339SOL     OW54855   5.914   8.619  10.555
84339SOL    HW154856   5.973   8.675  10.607
84339SOL    HW254857   5.968   8.590  10.481
84340SOL     OW54858   3.068   3.662   4.568
84340SOL    HW154859   3.121   3.732   4.605
84340SOL    HW254860   3.071   3.677   4.473
84341SOL     OW54861  13.188   2.667  14.146
84341SOL    HW154862  13.236   2.587  14.125
84341SOL    HW254863  13.120   2.639  14.207
84342SOL     OW54864   8.916   2.621   8.650
84342SOL    HW154865   9.007   2.598   8.635
84342SOL    HW254866   8.919   2.708   8.691
84343SOL     OW54867  14.355  12.933  10.864
84343SOL    HW154868  14.446  12.905  10.875
84343SOL    HW254869  14.343  12.937  10.769
84344SOL     OW54870  14.655   1.101  12.515
84344SOL    HW154871  14.677   1.075  12.604
84344SOL    HW254872  14.729   1.072  12.462
84345SOL     OW54873  14.706   2.288  12.032
84345SOL    HW154874  14.651   2.351  11.987
84345SOL    HW254875  14.674   2.288  12.123
84346SOL     OW54876   4.250  13.559   1.344
84346SOL    HW154877   4.336  13.596   1.325
84346SOL    HW254878   4.218  13.611   1.418
84347SOL     OW54879  12.992   7.748   0.278
84347SOL    HW154880  13.048   7.815   0.317
84347SOL    HW254881  12.907   7.762   0.319
84348SOL     OW54882   4.871  11.148  12.173
84348SOL    HW154883   4.922  11.068  12.156
84348SOL    HW254884   4.931  11.219  12.151
84349SOL     OW54885   7.338   5.376  14.434
84349SOL    HW154886   7.256   5.400  14.390
84349SOL    HW254887   7.330   5.416  14.521
84350SOL     OW54888   4.510   1.955   5.585
84350SOL    HW154889   4.446   1.943   5.656
84350SOL    HW254890   4.460   1.942   5.505
84351SOL     OW54891   0.372  11.754  11.181
84351SOL    HW154892   0.351  11.755  11.275
84351SOL    HW254893   0.468  11.752  11.178
84352SOL     OW54894  10.075   9.112   0.759
84352SOL    HW154895  10.030   9.182   0.806
84352SOL    HW254896  10.116   9.060   0.828
84353SOL     OW54897   1.166   2.054   7.691
84353SOL    HW154898   1.245   2.009   7.721
84353SOL    HW254899   1.151   2.019   7.603
84354SOL     OW54900   3.104  12.688   1.966
84354SOL    HW154901   3.177  12.701   1.905
84354SOL    HW254902   3.027  12.717   1.917
84355SOL     OW54903   3.334  11.785   3.658
84355SOL    HW154904   3.264  11.761   3.719
84355SOL    HW254905   3.292  11.846   3.597
84356SOL     OW54906   1.859  13.487   1.708
84356SOL    HW154907   1.893  13.530   1.786
84356SOL    HW254908   1.764  13.484   1.722
84357SOL     OW54909   8.108  13.268   7.639
84357SOL    HW154910   8.155  13.185   7.643
84357SOL    HW254911   8.175  13.332   7.617
84358SOL     OW54912   5.677  11.597   1.675
84358SOL    HW154913   5.674  11.502   1.671
84358SOL    HW254914   5.585  11.624   1.673
84359SOL     OW54915  12.941   8.582   1.254
84359SOL    HW154916  12.911   8.580   1.345
84359SOL    HW254917  13.030   8.615   1.259
84360SOL     OW54918   4.114  14.760  12.630
84360SOL    HW154919   4.034  14.787  12.585
84360SOL    HW254920   4.174  14.834  12.618
84361SOL     OW54921   2.572   1.541   6.006
84361SOL    HW154922   2.605   1.546   5.917
84361SOL    HW254923   2.489   1.494   5.999
84362SOL     OW54924   1.796   8.841   5.109
84362SOL    HW154925   1.763   8.892   5.184
84362SOL    HW254926   1.819   8.908   5.044
84363SOL     OW54927  10.933  12.069   2.470
84363SOL    HW154928  10.961  12.133   2.534
84363SOL    HW254929  10.991  11.994   2.483
84364SOL     OW54930   9.586  12.521   4.076
84364SOL    HW154931   9.568  12.597   4.132
84364SOL    HW254932   9.550  12.546   3.991
84365SOL     OW54933  11.337  10.419  10.410
84365SOL    HW154934  11.251  10.382  10.391
84365SOL    HW254935  11.324  10.513  10.407
84366SOL     OW54936  13.773   6.128  13.341
84366SOL    HW154937  13.780   6.208  13.289
84366SOL    HW254938  13.863   6.107  13.365
84367SOL     OW54939   4.419  14.076   7.341
84367SOL    HW154940   4.482  14.139   7.305
84367SOL    HW254941   4.454  13.990   7.315
84368SOL     OW54942  11.758   6.671   2.388
84368SOL    HW154943  11.673   6.667   2.431
84368SOL    HW254944  11.759   6.756   2.343
84369SOL     OW54945  14.314  13.434   0.915
84369SOL    HW154946  14.270  13.518   0.898
84369SOL    HW254947  14.407  13.456   0.920
84370SOL     OW54948   7.626   5.308   3.912
84370SOL    HW154949   7.685   5.331   3.841
84370SOL    HW254950   7.626   5.212   3.914
84371SOL     OW54951  10.543   9.582  12.023
84371SOL    HW154952  10.545   9.516  11.953
84371SOL    HW254953  10.627   9.573  12.067
84372SOL     OW54954  11.555  13.910   8.429
84372SOL    HW154955  11.519  13.825   8.404
84372SOL    HW254956  11.622  13.928   8.364
84373SOL     OW54957   4.107  12.703  13.954
84373SOL    HW154958   4.196  12.672  13.942
84373SOL    HW254959   4.065  12.689  13.869
84374SOL     OW54960  13.153  12.929  12.024
84374SOL    HW154961  13.122  13.008  11.980
84374SOL    HW254962  13.141  12.859  11.960
84375SOL     OW54963   0.369   3.538  11.144
84375SOL    HW154964   0.278   3.567  11.152
84375SOL    HW254965   0.406   3.552  11.231
84376SOL     OW54966   2.474   1.759   1.498
84376SOL    HW154967   2.522   1.693   1.448
84376SOL    HW254968   2.468   1.723   1.587
84377SOL     OW54969  14.050   1.562  13.278
84377SOL    HW154970  14.035   1.481  13.326
84377SOL    HW254971  13.963   1.601  13.268
84378SOL     OW54972   6.467  11.139  10.658
84378SOL    HW154973   6.448  11.052  10.694
84378SOL    HW254974   6.562  11.145  10.658
84379SOL     OW54975   6.588   1.414   9.404
84379SOL    HW154976   6.571   1.454   9.489
84379SOL    HW254977   6.585   1.320   9.420
84380SOL     OW54978  13.813   1.019   4.071
84380SOL    HW154979  13.834   1.073   3.996
84380SOL    HW254980  13.792   0.933   4.034
84381SOL     OW54981   3.467   9.246   4.895
84381SOL    HW154982   3.454   9.252   4.990
84381SOL    HW254983   3.437   9.330   4.862
84382SOL     OW54984   7.432   4.873   1.680
84382SOL    HW154985   7.359   4.936   1.681
84382SOL    HW254986   7.408   4.808   1.746
84383SOL     OW54987  10.504  12.485   4.680
84383SOL    HW154988  10.500  12.569   4.725
84383SOL    HW254989  10.550  12.427   4.740
84384SOL     OW54990  12.870  13.559  10.556
84384SOL    HW154991  12.845  13.596  10.472
84384SOL    HW254992  12.965  13.548  10.550
84385SOL     OW54993   5.679   1.520   7.836
84385SOL    HW154994   5.715   1.589   7.892
84385SOL    HW254995   5.587   1.514   7.861
84386SOL     OW54996   6.653   0.002  11.140
84386SOL    HW154997   6.562   0.030  11.152
84386SOL    HW254998   6.647  14.792  11.092
84387SOL     OW54999   1.171  11.372  12.647
84387SOL    HW155000   1.128  11.428  12.712
84387SOL    HW255001   1.261  11.362  12.680
84388SOL     OW55002  14.425   0.283  11.604
84388SOL    HW155003  14.339   0.243  11.592
84388SOL    HW255004  14.434   0.344  11.530
84389SOL     OW55005   7.467   7.158   8.186
84389SOL    HW155006   7.536   7.092   8.179
84389SOL    HW255007   7.509   7.239   8.159
84390SOL     OW55008  12.392   0.909  13.206
84390SOL    HW155009  12.484   0.934  13.201
84390SOL    HW255010  12.353   0.971  13.267
84391SOL     OW55011   2.098  14.339   6.611
84391SOL    HW155012   2.078  14.416   6.665
84391SOL    HW255013   2.013  14.299   6.593
84392SOL     OW55014   5.799   8.355   5.537
84392SOL    HW155015   5.860   8.325   5.470
84392SOL    HW255016   5.712   8.331   5.503
84393SOL     OW55017  11.216  10.101  12.639
84393SOL    HW155018  11.206  10.006  12.635
84393SOL    HW255019  11.146  10.135  12.583
84394SOL     OW55020   7.956  12.282   4.239
84394SOL    HW155021   7.908  12.335   4.302
84394SOL    HW255022   7.913  12.196   4.243
84395SOL     OW55023  11.966   8.262   3.436
84395SOL    HW155024  11.978   8.174   3.473
84395SOL    HW255025  12.050   8.281   3.394
84396SOL     OW55026   3.466   9.628  12.043
84396SOL    HW155027   3.522   9.550  12.047
84396SOL    HW255028   3.377   9.594  12.049
84397SOL     OW55029  14.782   6.783  14.801
84397SOL    HW155030  14.819   6.704  14.840
84397SOL    HW255031  14.687   6.768  14.801
84398SOL     OW55032  14.829   7.914   2.640
84398SOL    HW155033   0.027   7.977   2.628
84398SOL    HW255034  14.758   7.948   2.585
84399SOL     OW55035  10.477   6.207   7.542
84399SOL    HW155036  10.526   6.148   7.598
84399SOL    HW255037  10.388   6.171   7.540
84400SOL     OW55038   2.832   6.509  13.716
84400SOL    HW155039   2.900   6.477  13.656
84400SOL    HW255040   2.750   6.493  13.670
84401SOL     OW55041   6.446  12.368   2.572
84401SOL    HW155042   6.378  12.432   2.591
84401SOL    HW255043   6.528  12.412   2.593
84402SOL     OW55044   8.484  13.866  12.056
84402SOL    HW155045   8.484  13.835  11.966
84402SOL    HW255046   8.481  13.787  12.110
84403SOL     OW55047   7.194   3.904   0.697
84403SOL    HW155048   7.105   3.868   0.700
84403SOL    HW255049   7.250   3.827   0.701
84404SOL     OW55050   5.349   0.109   2.025
84404SOL    HW155051   5.386   0.131   1.939
84404SOL    HW255052   5.346   0.013   2.026
84405SOL     OW55053   0.992  10.164   5.468
84405SOL    HW155054   0.905  10.127   5.479
84405SOL    HW255055   0.999  10.182   5.374
84406SOL     OW55056   2.639   2.554   8.717
84406SOL    HW155057   2.663   2.462   8.716
84406SOL    HW255058   2.630   2.578   8.625
84407SOL     OW55059   8.283   6.887  13.547
84407SOL    HW155060   8.317   6.816  13.601
84407SOL    HW255061   8.201   6.852  13.510
84408SOL     OW55062   1.428   5.192  10.760
84408SOL    HW155063   1.430   5.159  10.670
84408SOL    HW255064   1.336   5.212  10.777
84409SOL     OW55065  10.798   7.044   2.977
84409SOL    HW155066  10.769   6.953   2.965
84409SOL    HW255067  10.802   7.056   3.071
84410SOL     OW55068  11.235  11.046   1.036
84410SOL    HW155069  11.262  11.062   1.127
84410SOL    HW255070  11.140  11.036   1.041
84411SOL     OW55071   8.929   9.698   3.607
84411SOL    HW155072   8.963   9.780   3.642
84411SOL    HW255073   8.851   9.724   3.558
84412SOL     OW55074  13.779   4.421   1.495
84412SOL    HW155075  13.853   4.436   1.554
84412SOL    HW255076  13.712   4.379   1.549
84413SOL     OW55077   7.590   0.142  12.220
84413SOL    HW155078   7.596   0.057  12.178
84413SOL    HW255079   7.509   0.181  12.186
84414SOL     OW55080   1.775   2.091   3.385
84414SOL    HW155081   1.791   2.000   3.408
84414SOL    HW255082   1.681   2.103   3.392
84415SOL     OW55083   8.404   8.489   6.767
84415SOL    HW155084   8.365   8.575   6.777
84415SOL    HW255085   8.464   8.497   6.694
84416SOL     OW55086  10.452   8.772  12.687
84416SOL    HW155087  10.530   8.817  12.716
84416SOL    HW255088  10.382   8.807  12.742
84417SOL     OW55089   2.719   7.800   0.731
84417SOL    HW155090   2.738   7.732   0.667
84417SOL    HW255091   2.776   7.781   0.805
84418SOL     OW55092   6.718   6.154  14.677
84418SOL    HW155093   6.661   6.121  14.746
84418SOL    HW255094   6.720   6.249  14.690
84419SOL     OW55095  12.167  14.649  12.900
84419SOL    HW155096  12.177  14.573  12.956
84419SOL    HW255097  12.084  14.635  12.854
84420SOL     OW55098   6.688   1.220   6.805
84420SOL    HW155099   6.616   1.246   6.862
84420SOL    HW255100   6.754   1.185   6.865
84421SOL     OW55101   6.634   8.856   9.046
84421SOL    HW155102   6.586   8.906   8.979
84421SOL    HW255103   6.726   8.879   9.033
84422SOL     OW55104  14.339   8.874   3.899
84422SOL    HW155105  14.256   8.837   3.928
84422SOL    HW255106  14.330   8.883   3.804
84423SOL     OW55107  14.134  11.399  10.769
84423SOL    HW155108  14.045  11.424  10.794
84423SOL    HW255109  14.135  11.303  10.775
84424SOL     OW55110   3.644   0.120   7.088
84424SOL    HW155111   3.624   0.086   7.001
84424SOL    HW255112   3.737   0.100   7.101
84425SOL     OW55113   7.450   0.415   0.871
84425SOL    HW155114   7.458   0.500   0.829
84425SOL    HW255115   7.510   0.419   0.945
84426SOL     OW55116   9.292   2.813  12.286
84426SOL    HW155117   9.212   2.762  12.274
84426SOL    HW255118   9.267   2.886  12.342
84427SOL     OW55119   0.699  14.129   8.166
84427SOL    HW155120   0.616  14.096   8.131
84427SOL    HW255121   0.720  14.069   8.238
84428SOL     OW55122  14.065   8.183  10.802
84428SOL    HW155123  13.988   8.235  10.825
84428SOL    HW255124  14.091   8.216  10.716
84429SOL     OW55125   4.794  13.946   7.716
84429SOL    HW155126   4.853  13.992   7.657
84429SOL    HW255127   4.808  13.853   7.697
84430SOL     OW55128   0.781  13.255   1.290
84430SOL    HW155129   0.835  13.318   1.338
84430SOL    HW255130   0.835  13.231   1.214
84431SOL     OW55131   0.417   9.042   8.575
84431SOL    HW155132   0.447   9.125   8.612
84431SOL    HW255133   0.483   8.978   8.600
84432SOL     OW55134   4.098  14.500   2.163
84432SOL    HW155135   4.085  14.444   2.087
84432SOL    HW255136   4.024  14.479   2.221
84433SOL     OW55137   8.645   1.562   1.252
84433SOL    HW155138   8.618   1.488   1.198
84433SOL    HW255139   8.599   1.550   1.335
84434SOL     OW55140   5.039   3.925   1.885
84434SOL    HW155141   5.050   4.012   1.926
84434SOL    HW255142   5.118   3.877   1.911
84435SOL     OW55143   4.521  13.416   9.845
84435SOL    HW155144   4.590  13.350   9.844
84435SOL    HW255145   4.444  13.370   9.878
84436SOL     OW55146   7.259   8.533   7.225
84436SOL    HW155147   7.252   8.628   7.231
84436SOL    HW255148   7.280   8.505   7.314
84437SOL     OW55149   9.088   8.561   3.229
84437SOL    HW155150   9.133   8.487   3.270
84437SOL    HW255151   9.048   8.609   3.302
84438SOL     OW55152  14.384   7.734  13.200
84438SOL    HW155153  14.327   7.798  13.243
84438SOL    HW255154  14.468   7.743  13.246
84439SOL     OW55155   4.250   5.774   4.711
84439SOL    HW155156   4.322   5.723   4.746
84439SOL    HW255157   4.279   5.865   4.718
84440SOL     OW55158   0.909  11.981  13.737
84440SOL    HW155159   0.936  12.063  13.695
84440SOL    HW255160   0.932  11.913  13.674
84441SOL     OW55161   6.196   3.873  11.716
84441SOL    HW155162   6.130   3.817  11.674
84441SOL    HW255163   6.148   3.952  11.740
84442SOL     OW55164  11.658  14.797  10.957
84442SOL    HW155165  11.590  14.789  10.891
84442SOL    HW255166  11.739  14.806  10.907
84443SOL     OW55167   3.045   0.192  14.222
84443SOL    HW155168   2.958   0.231  14.218
84443SOL    HW255169   3.056   0.147  14.139
84444SOL     OW55170   5.975   8.353   2.290
84444SOL    HW155171   6.053   8.409   2.291
84444SOL    HW255172   5.993   8.289   2.221
84445SOL     OW55173   1.344   8.018   5.117
84445SOL    HW155174   1.331   8.107   5.148
84445SOL    HW255175   1.260   7.974   5.132
84446SOL     OW55176  14.577  13.447   4.687
84446SOL    HW155177  14.538  13.361   4.675
84446SOL    HW255178  14.607  13.472   4.599
84447SOL     OW55179   1.525  13.304  13.615
84447SOL    HW155180   1.467  13.233  13.589
84447SOL    HW255181   1.519  13.367  13.543
84448SOL     OW55182  11.762   2.726  11.671
84448SOL    HW155183  11.794   2.779  11.597
84448SOL    HW255184  11.830   2.737  11.738
84449SOL     OW55185   0.257  12.031  10.280
84449SOL    HW155186   0.231  11.982  10.202
84449SOL    HW255187   0.180  12.083  10.302
84450SOL     OW55188  11.404  11.327  11.086
84450SOL    HW155189  11.367  11.239  11.078
84450SOL    HW255190  11.484  11.315  11.137
84451SOL     OW55191   5.602   6.332   9.257
84451SOL    HW155192   5.593   6.239   9.238
84451SOL    HW255193   5.677   6.360   9.205
84452SOL     OW55194   8.609   4.829  12.885
84452SOL    HW155195   8.655   4.745  12.885
84452SOL    HW255196   8.530   4.812  12.832
84453SOL     OW55197  10.015   0.391   3.852
84453SOL    HW155198  10.109   0.373   3.857
84453SOL    HW255199  10.008   0.485   3.870
84454SOL     OW55200   6.759   0.727   1.553
84454SOL    HW155201   6.681   0.673   1.540
84454SOL    HW255202   6.832   0.666   1.542
84455SOL     OW55203  11.296   9.309   0.727
84455SOL    HW155204  11.216   9.361   0.729
84455SOL    HW255205  11.337   9.326   0.812
84456SOL     OW55206   4.212  11.574  12.506
84456SOL    HW155207   4.150  11.627  12.456
84456SOL    HW255208   4.251  11.515  12.442
84457SOL     OW55209  10.329  10.028  14.812
84457SOL    HW155210  10.401  10.027   0.001
84457SOL    HW255211  10.371  10.031  14.726
84458SOL     OW55212  13.506   3.130   3.438
84458SOL    HW155213  13.513   3.224   3.456
84458SOL    HW255214  13.566   3.116   3.365
84459SOL     OW55215   2.255   8.533   9.785
84459SOL    HW155216   2.346   8.548   9.812
84459SOL    HW255217   2.221   8.472   9.851
84460SOL     OW55218   7.710  12.099   4.223
84460SOL    HW155219   7.700  12.004   4.227
84460SOL    HW255220   7.695  12.129   4.313
84461SOL     OW55221   6.262   4.130   1.432
84461SOL    HW155222   6.337   4.132   1.372
84461SOL    HW255223   6.204   4.200   1.401
84462SOL     OW55224  10.486  14.779   3.510
84462SOL    HW155225  10.477  14.841   3.582
84462SOL    HW255226  10.500  14.695   3.552
84463SOL     OW55227   9.643   3.600  12.668
84463SOL    HW155228   9.627   3.676  12.725
84463SOL    HW255229   9.724   3.562  12.701
84464SOL     OW55230  13.169  10.203   8.711
84464SOL    HW155231  13.254  10.165   8.735
84464SOL    HW255232  13.182  10.297   8.721
84465SOL     OW55233  13.761  11.589   2.869
84465SOL    HW155234  13.846  11.570   2.829
84465SOL    HW255235  13.708  11.623   2.797
84466SOL     OW55236   2.220   7.031   1.039
84466SOL    HW155237   2.261   7.059   1.121
84466SOL    HW255238   2.139   6.987   1.067
84467SOL     OW55239  10.702   5.607  12.396
84467SOL    HW155240  10.736   5.562  12.473
84467SOL    HW255241  10.667   5.690  12.430
84468SOL     OW55242   3.948  11.237   0.904
84468SOL    HW155243   3.973  11.240   0.812
84468SOL    HW255244   3.968  11.147   0.931
84469SOL     OW55245  10.778   1.750   8.027
84469SOL    HW155246  10.745   1.725   7.941
84469SOL    HW255247  10.842   1.819   8.009
84470SOL     OW55248   9.425   7.154   6.363
84470SOL    HW155249   9.464   7.094   6.426
84470SOL    HW255250   9.375   7.097   6.304
84471SOL     OW55251   9.860   2.529  11.373
84471SOL    HW155252   9.900   2.450  11.337
84471SOL    HW255253   9.809   2.498  11.448
84472SOL     OW55254   5.179   3.362  10.524
84472SOL    HW155255   5.143   3.308  10.453
84472SOL    HW255256   5.142   3.323  10.603
84473SOL     OW55257   0.860   6.360   7.133
84473SOL    HW155258   0.873   6.380   7.226
84473SOL    HW255259   0.849   6.265   7.130
84474SOL     OW55260   8.809   6.079   0.585
84474SOL    HW155261   8.790   6.106   0.675
84474SOL    HW255262   8.746   6.009   0.567
84475SOL     OW55263  12.986   7.655   7.910
84475SOL    HW155264  12.891   7.657   7.899
84475SOL    HW255265  13.001   7.697   7.995
84476SOL     OW55266   8.813  12.141   8.381
84476SOL    HW155267   8.810  12.204   8.454
84476SOL    HW255268   8.858  12.065   8.418
84477SOL     OW55269   4.173  14.723   2.021
84477SOL    HW155270   4.225  14.676   1.955
84477SOL    HW255271   4.118  14.655   2.060
84478SOL     OW55272   0.528   7.578   6.178
84478SOL    HW155273   0.548   7.531   6.259
84478SOL    HW255274   0.610   7.577   6.128
84479SOL     OW55275   7.654   7.713   2.112
84479SOL    HW155276   7.660   7.679   2.202
84479SOL    HW255277   7.718   7.784   2.108
84480SOL     OW55278   2.312  11.653   1.389
84480SOL    HW155279   2.250  11.581   1.374
84480SOL    HW255280   2.367  11.655   1.311
84481SOL     OW55281   5.846  13.207   8.236
84481SOL    HW155282   5.788  13.148   8.283
84481SOL    HW255283   5.818  13.295   8.263
84482SOL     OW55284   5.950   9.038   9.025
84482SOL    HW155285   5.927   8.962   8.971
84482SOL    HW255286   6.045   9.044   9.018
84483SOL     OW55287  11.708   4.082  14.693
84483SOL    HW155288  11.723   4.176  14.701
84483SOL    HW255289  11.729   4.061  14.602
84484SOL     OW55290  10.507  12.114  12.100
84484SOL    HW155291  10.494  12.021  12.115
84484SOL    HW255292  10.426  12.144  12.059
84485SOL     OW55293   5.400  10.485   7.465
84485SOL    HW155294   5.483  10.457   7.502
84485SOL    HW255295   5.398  10.446   7.378
84486SOL     OW55296  13.302   9.198   4.475
84486SOL    HW155297  13.380   9.190   4.531
84486SOL    HW255298  13.270   9.287   4.492
84487SOL     OW55299   9.746  13.733  11.868
84487SOL    HW155300   9.820  13.762  11.921
84487SOL    HW255301   9.760  13.774  11.783
84488SOL     OW55302   1.094  11.864  10.894
84488SOL    HW155303   1.077  11.938  10.837
84488SOL    HW255304   1.138  11.800  10.838
84489SOL     OW55305   2.021   0.100   6.380
84489SOL    HW155306   1.930   0.128   6.385
84489SOL    HW255307   2.016   0.007   6.356
84490SOL     OW55308   8.089  12.766  13.978
84490SOL    HW155309   8.182  12.750  13.963
84490SOL    HW255310   8.086  12.821  14.057
84491SOL     OW55311   8.700  12.415   2.511
84491SOL    HW155312   8.680  12.507   2.493
84491SOL    HW255313   8.713  12.412   2.606
84492SOL     OW55314   7.432  12.111   9.699
84492SOL    HW155315   7.438  12.159   9.616
84492SOL    HW255316   7.488  12.035   9.688
84493SOL     OW55317   9.998  14.730   0.070
84493SOL    HW155318  10.071  14.760   0.124
84493SOL    HW255319  10.039  14.694  14.864
84494SOL     OW55320  10.043   9.182   4.645
84494SOL    HW155321  10.030   9.132   4.726
84494SOL    HW255322  10.116   9.139   4.602
84495SOL     OW55323  14.759   6.626  13.103
84495SOL    HW155324  14.719   6.713  13.097
84495SOL    HW255325  14.686   6.566  13.099
84496SOL     OW55326  14.240  13.279   8.717
84496SOL    HW155327  14.312  13.220   8.741
84496SOL    HW255328  14.226  13.264   8.624
84497SOL     OW55329   6.184   3.357  11.968
84497SOL    HW155330   6.101   3.361  11.922
84497SOL    HW255331   6.248   3.393  11.906
84498SOL     OW55332   5.566  10.582   8.939
84498SOL    HW155333   5.479  10.575   8.978
84498SOL    HW255334   5.626  10.589   9.013
84499SOL     OW55335   8.991  14.809   0.700
84499SOL    HW155336   9.007   0.027   0.722
84499SOL    HW255337   8.896  14.802   0.690
84500SOL     OW55338   1.361   3.873   2.465
84500SOL    HW155339   1.437   3.817   2.482
84500SOL    HW255340   1.395   3.943   2.410
84501SOL     OW55341   7.311   3.977   3.880
84501SOL    HW155342   7.219   3.986   3.905
84501SOL    HW255343   7.311   3.989   3.785
84502SOL     OW55344   7.951   0.776   2.107
84502SOL    HW155345   8.034   0.732   2.126
84502SOL    HW255346   7.926   0.742   2.021
84503SOL     OW55347   0.464   5.110   1.989
84503SOL    HW155348   0.418   5.185   2.027
84503SOL    HW255349   0.436   5.036   2.042
84504SOL     OW55350  11.274   0.725   7.520
84504SOL    HW155351  11.357   0.766   7.495
84504SOL    HW255352  11.288   0.631   7.506
84505SOL     OW55353   2.256  14.486   2.718
84505SOL    HW155354   2.261  14.510   2.625
84505SOL    HW255355   2.186  14.541   2.753
84506SOL     OW55356   4.088   3.655   3.690
84506SOL    HW155357   4.129   3.693   3.612
84506SOL    HW255358   4.054   3.731   3.738
84507SOL     OW55359  11.139  14.166   3.507
84507SOL    HW155360  11.072  14.133   3.447
84507SOL    HW255361  11.090  14.197   3.583
84508SOL     OW55362   2.305   8.261   4.099
84508SOL    HW155363   2.349   8.344   4.084
84508SOL    HW255364   2.363   8.196   4.060
84509SOL     OW55365  11.638   2.828  12.501
84509SOL    HW155366  11.709   2.831  12.438
84509SOL    HW255367  11.558   2.830  12.448
84510SOL     OW55368   3.793  10.869   3.667
84510SOL    HW155369   3.813  10.962   3.659
84510SOL    HW255370   3.715  10.865   3.723
84511SOL     OW55371  13.864  12.936   2.512
84511SOL    HW155372  13.940  12.884   2.486
84511SOL    HW255373  13.836  12.980   2.432
84512SOL     OW55374   7.102  11.020   9.814
84512SOL    HW155375   7.096  11.115   9.801
84512SOL    HW255376   7.178  10.994   9.762
84513SOL     OW55377   5.614   0.492  10.826
84513SOL    HW155378   5.663   0.422  10.782
84513SOL    HW255379   5.527   0.456  10.840
84514SOL     OW55380   5.615   6.344   6.124
84514SOL    HW155381   5.611   6.272   6.061
84514SOL    HW255382   5.700   6.333   6.167
84515SOL     OW55383  13.393   1.158   3.068
84515SOL    HW155384  13.442   1.107   3.003
84515SOL    HW255385  13.301   1.148   3.042
84516SOL     OW55386   9.111   4.651  12.736
84516SOL    HW155387   9.158   4.727  12.701
84516SOL    HW255388   9.076   4.680  12.820
84517SOL     OW55389  13.359   6.795   3.645
84517SOL    HW155390  13.452   6.783   3.662
84517SOL    HW255391  13.355   6.854   3.570
84518SOL     OW55392   0.228   5.346   7.666
84518SOL    HW155393   0.207   5.252   7.661
84518SOL    HW255394   0.146   5.390   7.647
84519SOL     OW55395   3.760  11.006   7.284
84519SOL    HW155396   3.825  11.074   7.302
84519SOL    HW255397   3.744  11.012   7.190
84520SOL     OW55398   4.032   1.639  14.841
84520SOL    HW155399   4.047   1.545  14.857
84520SOL    HW255400   4.120   1.675  14.831
84521SOL     OW55401   0.004   6.283   6.431
84521SOL    HW155402  14.838   6.236   6.504
84521SOL    HW255403   0.055   6.217   6.384
84522SOL     OW55404   2.875   5.008   6.169
84522SOL    HW155405   2.822   4.934   6.139
84522SOL    HW255406   2.910   4.979   6.253
84523SOL     OW55407   7.771  14.380   8.802
84523SOL    HW155408   7.680  14.411   8.803
84523SOL    HW255409   7.814  14.430   8.871
84524SOL     OW55410   0.748  12.113  10.833
84524SOL    HW155411   0.713  12.189  10.786
84524SOL    HW255412   0.683  12.096  10.902
84525SOL     OW55413   9.533   0.210   8.761
84525SOL    HW155414   9.518   0.138   8.822
84525SOL    HW255415   9.502   0.176   8.677
84526SOL     OW55416  10.724   5.092  11.910
84526SOL    HW155417  10.770   5.037  11.847
84526SOL    HW255418  10.698   5.170  11.860
84527SOL     OW55419   1.959   3.527   7.211
84527SOL    HW155420   1.871   3.490   7.219
84527SOL    HW255421   1.960   3.600   7.272
84528SOL     OW55422   9.031  13.778   0.933
84528SOL    HW155423   9.015  13.685   0.952
84528SOL    HW255424   9.076  13.811   1.011
84529SOL     OW55425  12.938   4.333   1.827
84529SOL    HW155426  12.960   4.417   1.787
84529SOL    HW255427  12.912   4.278   1.753
84530SOL     OW55428   6.300   2.097   8.068
84530SOL    HW155429   6.358   2.160   8.024
84530SOL    HW255430   6.257   2.148   8.137
84531SOL     OW55431  14.309  10.692  14.001
84531SOL    HW155432  14.216  10.694  13.977
84531SOL    HW255433  14.334  10.600  13.992
84532SOL     OW55434   0.343   1.273  10.286
84532SOL    HW155435   0.399   1.250  10.359
84532SOL    HW255436   0.294   1.193  10.267
84533SOL     OW55437   0.645   2.444   4.697
84533SOL    HW155438   0.605   2.516   4.745
84533SOL    HW255439   0.577   2.377   4.691
84534SOL     OW55440  14.057  14.848   0.681
84534SOL    HW155441  14.142   0.009   0.654
84534SOL    HW255442  14.077  14.773   0.737
84535SOL     OW55443   2.061   6.259  10.957
84535SOL    HW155444   2.013   6.309  11.024
84535SOL    HW255445   2.126   6.210  11.007
84536SOL     OW55446   3.896   4.177  11.055
84536SOL    HW155447   3.923   4.087  11.035
84536SOL    HW255448   3.969   4.213  11.105
84537SOL     OW55449  11.395   8.798  14.619
84537SOL    HW155450  11.442   8.805  14.536
84537SOL    HW255451  11.393   8.704  14.638
84538SOL     OW55452  10.474   7.378   6.468
84538SOL    HW155453  10.517   7.408   6.388
84538SOL    HW255454  10.383   7.408   6.460
84539SOL     OW55455   3.402   2.326  10.000
84539SOL    HW155456   3.334   2.258  10.000
84539SOL    HW255457   3.440   2.322   9.912
84540SOL     OW55458  12.591   1.416  10.533
84540SOL    HW155459  12.669   1.470  10.545
84540SOL    HW255460  12.558   1.402  10.622
84541SOL     OW55461  13.853   2.010  10.529
84541SOL    HW155462  13.826   1.919  10.515
84541SOL    HW255463  13.941   2.015  10.491
84542SOL     OW55464   3.090   8.478  12.952
84542SOL    HW155465   3.035   8.546  12.913
84542SOL    HW255466   3.091   8.407  12.887
84543SOL     OW55467   8.375   8.281  13.424
84543SOL    HW155468   8.414   8.364  13.398
84543SOL    HW255469   8.284   8.287  13.394
84544SOL     OW55470   1.788   0.802   6.327
84544SOL    HW155471   1.792   0.797   6.232
84544SOL    HW255472   1.875   0.775   6.357
84545SOL     OW55473  14.292   6.255   2.042
84545SOL    HW155474  14.291   6.348   2.023
84545SOL    HW255475  14.211   6.221   2.005
84546SOL     OW55476   3.929   5.446  14.230
84546SOL    HW155477   3.855   5.440  14.290
84546SOL    HW255478   3.945   5.540  14.223
84547SOL     OW55479   2.566   7.524  12.452
84547SOL    HW155480   2.548   7.576  12.374
84547SOL    HW255481   2.613   7.584  12.510
84548SOL     OW55482   2.777   8.857   2.868
84548SOL    HW155483   2.832   8.880   2.944
84548SOL    HW255484   2.827   8.889   2.793
84549SOL     OW55485   8.690  11.972  12.942
84549SOL    HW155486   8.779  11.957  12.910
84549SOL    HW255487   8.644  12.012  12.868
84550SOL     OW55488   0.387   4.195   6.397
84550SOL    HW155489   0.298   4.200   6.362
84550SOL    HW255490   0.416   4.106   6.377
84551SOL     OW55491   6.361   8.060   8.452
84551SOL    HW155492   6.390   8.123   8.386
84551SOL    HW255493   6.376   7.974   8.412
84552SOL     OW55494   6.327   0.516   3.966
84552SOL    HW155495   6.379   0.517   4.046
84552SOL    HW255496   6.380   0.563   3.902
84553SOL     OW55497   8.116   0.314   8.996
84553SOL    HW155498   8.087   0.403   9.015
84553SOL    HW255499   8.209   0.313   9.020
84554SOL     OW55500   6.360  13.765  12.996
84554SOL    HW155501   6.310  13.784  13.075
84554SOL    HW255502   6.308  13.801  12.924
84555SOL     OW55503  14.082   0.218   5.008
84555SOL    HW155504  14.161   0.262   4.976
84555SOL    HW255505  14.082   0.134   4.962
84556SOL     OW55506   5.682   7.750  14.160
84556SOL    HW155507   5.621   7.676  14.168
84556SOL    HW255508   5.766   7.715  14.189
84557SOL     OW55509   0.579   3.546  12.552
84557SOL    HW155510   0.664   3.580  12.579
84557SOL    HW255511   0.540   3.512  12.633
84558SOL     OW55512   5.232   7.749   7.044
84558SOL    HW155513   5.273   7.825   7.086
84558SOL    HW255514   5.142   7.750   7.078
84559SOL     OW55515   3.519   5.702   1.571
84559SOL    HW155516   3.473   5.784   1.589
84559SOL    HW255517   3.531   5.661   1.656
84560SOL     OW55518  13.428   7.494  11.696
84560SOL    HW155519  13.498   7.431  11.675
84560SOL    HW255520  13.347   7.447  11.675
84561SOL     OW55521  11.435   1.439   6.263
84561SOL    HW155522  11.409   1.408   6.350
84561SOL    HW255523  11.433   1.360   6.208
84562SOL     OW55524  11.438   5.213   6.336
84562SOL    HW155525  11.441   5.118   6.344
84562SOL    HW255526  11.424   5.229   6.243
84563SOL     OW55527   0.018   0.352  14.757
84563SOL    HW155528   0.060   0.341  14.843
84563SOL    HW255529   0.087   0.329  14.694
84564SOL     OW55530  13.611   3.230   4.161
84564SOL    HW155531  13.622   3.145   4.120
84564SOL    HW255532  13.535   3.268   4.117
84565SOL     OW55533  12.128   6.357   4.786
84565SOL    HW155534  12.048   6.305   4.789
84565SOL    HW255535  12.199   6.294   4.799
84566SOL     OW55536  11.168   7.287   1.741
84566SOL    HW155537  11.136   7.293   1.831
84566SOL    HW255538  11.263   7.279   1.750
84567SOL     OW55539   1.984   0.424   3.172
84567SOL    HW155540   2.045   0.498   3.175
84567SOL    HW255541   1.901   0.464   3.146
84568SOL     OW55542   7.342   1.306   6.485
84568SOL    HW155543   7.303   1.226   6.522
84568SOL    HW255544   7.271   1.370   6.487
84569SOL     OW55545   3.059  12.180   7.284
84569SOL    HW155546   3.053  12.138   7.198
84569SOL    HW255547   3.066  12.107   7.345
84570SOL     OW55548   2.241   1.791   4.951
84570SOL    HW155549   2.149   1.808   4.934
84570SOL    HW255550   2.258   1.706   4.910
84571SOL     OW55551  10.588   6.492   1.664
84571SOL    HW155552  10.655   6.489   1.595
84571SOL    HW255553  10.615   6.424   1.727
84572SOL     OW55554  12.839  14.448   4.185
84572SOL    HW155555  12.914  14.408   4.140
84572SOL    HW255556  12.879  14.506   4.250
84573SOL     OW55557   3.051   6.245   4.877
84573SOL    HW155558   3.070   6.284   4.792
84573SOL    HW255559   2.966   6.279   4.902
84574SOL     OW55560   2.980   9.060  10.504
84574SOL    HW155561   2.978   8.980  10.452
84574SOL    HW255562   3.042   9.042  10.574
84575SOL     OW55563  12.621   4.654  13.056
84575SOL    HW155564  12.604   4.693  13.141
84575SOL    HW255565  12.617   4.727  12.995
84576SOL     OW55566  14.687  13.098   2.047
84576SOL    HW155567  14.692  13.052   1.964
84576SOL    HW255568  14.767  13.074   2.094
84577SOL     OW55569   5.750   0.863   1.154
84577SOL    HW155570   5.819   0.806   1.188
84577SOL    HW255571   5.789   0.950   1.152
84578SOL     OW55572   2.260   7.053  11.914
84578SOL    HW155573   2.280   6.965  11.944
84578SOL    HW255574   2.344   7.088  11.884
84579SOL     OW55575  14.208   5.039   9.451
84579SOL    HW155576  14.275   5.107   9.451
84579SOL    HW255577  14.257   4.957   9.445
84580SOL     OW55578  13.508  12.363  13.523
84580SOL    HW155579  13.561  12.307  13.467
84580SOL    HW255580  13.570  12.399  13.587
84581SOL     OW55581   5.865  12.547  11.892
84581SOL    HW155582   5.859  12.541  11.797
84581SOL    HW255583   5.919  12.625  11.908
84582SOL     OW55584  14.338   1.766   6.615
84582SOL    HW155585  14.415   1.765   6.558
84582SOL    HW255586  14.314   1.673   6.624
84583SOL     OW55587  14.349   5.291   7.132
84583SOL    HW155588  14.363   5.361   7.196
84583SOL    HW255589  14.254   5.282   7.128
84584SOL     OW55590  11.074  12.649   3.688
84584SOL    HW155591  11.063  12.741   3.664
84584SOL    HW255592  10.996  12.606   3.653
84585SOL     OW55593   2.262   7.277   6.073
84585SOL    HW155594   2.236   7.311   6.159
84585SOL    HW255595   2.193   7.213   6.052
84586SOL     OW55596  12.461   7.101   8.350
84586SOL    HW155597  12.516   7.137   8.419
84586SOL    HW255598  12.424   7.020   8.388
84587SOL     OW55599   2.653  12.145   9.223
84587SOL    HW155600   2.631  12.057   9.254
84587SOL    HW255601   2.665  12.135   9.128
84588SOL     OW55602  11.872   2.256  10.753
84588SOL    HW155603  11.956   2.289  10.721
84588SOL    HW255604  11.857   2.303  10.835
84589SOL     OW55605   2.685   4.714   4.873
84589SOL    HW155606   2.647   4.663   4.802
84589SOL    HW255607   2.619   4.713   4.942
84590SOL     OW55608   0.362   4.675   3.632
84590SOL    HW155609   0.428   4.744   3.638
84590SOL    HW255610   0.381   4.631   3.548
84591SOL     OW55611   8.322   9.463  11.445
84591SOL    HW155612   8.361   9.486  11.360
84591SOL    HW255613   8.397   9.453  11.504
84592SOL     OW55614   7.345   9.031   8.216
84592SOL    HW155615   7.420   9.091   8.209
84592SOL    HW255616   7.329   9.002   8.126
84593SOL     OW55617   9.835  14.328   6.601
84593SOL    HW155618   9.740  14.316   6.593
84593SOL    HW255619   9.844  14.399   6.665
84594SOL     OW55620  14.207   5.623  13.405
84594SOL    HW155621  14.280   5.568  13.432
84594SOL    HW255622  14.224   5.709  13.445
84595SOL     OW55623  12.703   8.653   6.865
84595SOL    HW155624  12.704   8.728   6.806
84595SOL    HW255625  12.610   8.637   6.882
84596SOL     OW55626   0.431  14.511  14.859
84596SOL    HW155627   0.361  14.565  14.821
84596SOL    HW255628   0.487  14.489  14.784
84597SOL     OW55629   7.120  12.019  13.448
84597SOL    HW155630   7.172  11.997  13.526
84597SOL    HW255631   7.140  11.949  13.385
84598SOL     OW55632   6.921   1.642   9.881
84598SOL    HW155633   6.929   1.605   9.793
84598SOL    HW255634   6.827   1.658   9.892
84599SOL     OW55635   2.913  10.499  13.279
84599SOL    HW155636   2.995  10.462  13.246
84599SOL    HW255637   2.849  10.482  13.209
84600SOL     OW55638   6.361   5.428   7.765
84600SOL    HW155639   6.402   5.471   7.690
84600SOL    HW255640   6.435   5.402   7.821
84601SOL     OW55641   8.735   7.595   5.699
84601SOL    HW155642   8.727   7.521   5.639
84601SOL    HW255643   8.748   7.671   5.642
84602SOL     OW55644   5.748   0.396   3.930
84602SOL    HW155645   5.725   0.485   3.906
84602SOL    HW255646   5.740   0.346   3.849
84603SOL     OW55647   1.516   4.976   5.559
84603SOL    HW155648   1.445   5.039   5.545
84603SOL    HW255649   1.495   4.934   5.642
84604SOL     OW55650  10.651   2.826  14.277
84604SOL    HW155651  10.608   2.743  14.257
84604SOL    HW255652  10.737   2.819  14.236
84605SOL     OW55653   7.066   8.664  13.939
84605SOL    HW155654   7.051   8.693  13.849
84605SOL    HW255655   6.990   8.611  13.960
84606SOL     OW55656  11.406   8.495   6.998
84606SOL    HW155657  11.377   8.404   6.993
84606SOL    HW255658  11.495   8.494   6.963
84607SOL     OW55659  14.298   8.949   9.351
84607SOL    HW155660  14.303   8.960   9.446
84607SOL    HW255661  14.322   9.035   9.316
84608SOL     OW55662   3.035   1.554   5.383
84608SOL    HW155663   3.049   1.459   5.380
84608SOL    HW255664   2.970   1.571   5.315
84609SOL     OW55665  10.769  12.995   8.102
84609SOL    HW155666  10.784  13.076   8.053
84609SOL    HW255667  10.854  12.976   8.142
84610SOL     OW55668   0.788   9.266   3.664
84610SOL    HW155669   0.694   9.270   3.684
84610SOL    HW255670   0.831   9.276   3.749
84611SOL     OW55671   7.165  12.685   6.230
84611SOL    HW155672   7.139  12.726   6.148
84611SOL    HW255673   7.219  12.752   6.274
84612SOL     OW55674   4.765  12.548   6.204
84612SOL    HW155675   4.745  12.459   6.232
84612SOL    HW255676   4.860  12.552   6.202
84613SOL     OW55677  10.673  13.209  13.185
84613SOL    HW155678  10.738  13.168  13.241
84613SOL    HW255679  10.590  13.170  13.212
84614SOL     OW55680  11.592   3.463   3.425
84614SOL    HW155681  11.538   3.391   3.393
84614SOL    HW255682  11.571   3.469   3.518
84615SOL     OW55683  10.062   4.572   8.637
84615SOL    HW155684  10.134   4.577   8.700
84615SOL    HW255685   9.992   4.622   8.677
84616SOL     OW55686   8.105  11.067   2.426
84616SOL    HW155687   8.017  11.037   2.450
84616SOL    HW255688   8.099  11.163   2.428
84617SOL     OW55689   6.320  12.039   0.044
84617SOL    HW155690   6.254  11.990  14.869
84617SOL    HW255691   6.320  12.001   0.131
84618SOL     OW55692   7.646   8.051   5.572
84618SOL    HW155693   7.728   8.100   5.562
84618SOL    HW255694   7.657   8.002   5.653
84619SOL     OW55695   0.290   1.713   5.838
84619SOL    HW155696   0.194   1.711   5.847
84619SOL    HW255697   0.305   1.769   5.762
84620SOL     OW55698   6.482   3.020  12.143
84620SOL    HW155699   6.492   3.084  12.213
84620SOL    HW255700   6.411   3.054  12.089
84621SOL     OW55701   6.949   0.214   2.814
84621SOL    HW155702   6.993   0.296   2.791
84621SOL    HW255703   6.922   0.226   2.904
84622SOL     OW55704   4.500  14.579   1.142
84622SOL    HW155705   4.567  14.512   1.157
84622SOL    HW255706   4.520  14.613   1.055
84623SOL     OW55707   3.690  13.836  11.580
84623SOL    HW155708   3.628  13.886  11.527
84623SOL    HW255709   3.688  13.879  11.666
84624SOL     OW55710   8.821   9.098  11.276
84624SOL    HW155711   8.874   9.116  11.354
84624SOL    HW255712   8.754   9.167  11.276
84625SOL     OW55713  11.788   2.015  11.764
84625SOL    HW155714  11.761   1.951  11.830
84625SOL    HW255715  11.718   2.081  11.764
84626SOL     OW55716   2.333   9.539   3.849
84626SOL    HW155717   2.343   9.497   3.763
84626SOL    HW255718   2.250   9.504   3.883
84627SOL     OW55719  13.020   0.284  11.346
84627SOL    HW155720  13.075   0.240  11.411
84627SOL    HW255721  13.056   0.373  11.341
84628SOL     OW55722  12.636   3.829  11.804
84628SOL    HW155723  12.693   3.758  11.835
84628SOL    HW255724  12.696   3.890  11.760
84629SOL     OW55725  14.671   1.622  14.582
84629SOL    HW155726  14.679   1.673  14.501
84629SOL    HW255727  14.720   1.674  14.646
84630SOL     OW55728  11.047  10.082  10.994
84630SOL    HW155729  11.004  10.014  11.046
84630SOL    HW255730  11.141  10.062  11.002
84631SOL     OW55731   6.895  10.740   4.410
84631SOL    HW155732   6.948  10.680   4.462
84631SOL    HW255733   6.866  10.687   4.335
84632SOL     OW55734  12.748  10.323   8.863
84632SOL    HW155735  12.832  10.350   8.901
84632SOL    HW255736  12.733  10.236   8.899
84633SOL     OW55737  11.085   0.991   6.711
84633SOL    HW155738  11.094   1.086   6.708
84633SOL    HW255739  11.007   0.973   6.658
84634SOL     OW55740  10.870   7.167   9.159
84634SOL    HW155741  10.876   7.084   9.206
84634SOL    HW255742  10.858   7.233   9.228
84635SOL     OW55743   0.623  11.369   1.115
84635SOL    HW155744   0.573  11.387   1.195
84635SOL    HW255745   0.601  11.279   1.093
84636SOL     OW55746   5.700   1.588   4.225
84636SOL    HW155747   5.755   1.612   4.152
84636SOL    HW255748   5.627   1.650   4.223
84637SOL     OW55749   1.875   8.954   1.776
84637SOL    HW155750   1.789   8.929   1.741
84637SOL    HW255751   1.856   8.989   1.864
84638SOL     OW55752   0.982   3.512  10.397
84638SOL    HW155753   0.954   3.422  10.382
84638SOL    HW255754   1.077   3.507  10.411
84639SOL     OW55755   6.857   8.889   9.256
84639SOL    HW155756   6.839   8.920   9.168
84639SOL    HW255757   6.850   8.967   9.311
84640SOL     OW55758   0.304  12.488   4.012
84640SOL    HW155759   0.272  12.515   4.098
84640SOL    HW255760   0.321  12.571   3.967
84641SOL     OW55761   5.128   6.007   2.991
84641SOL    HW155762   5.202   6.012   2.931
84641SOL    HW255763   5.070   6.079   2.965
84642SOL     OW55764  10.747  11.992   0.220
84642SOL    HW155765  10.774  12.059   0.283
84642SOL    HW255766  10.788  11.912   0.251
84643SOL     OW55767  12.520  14.659   1.095
84643SOL    HW155768  12.533  14.743   1.139
84643SOL    HW255769  12.439  14.624   1.133
84644SOL     OW55770  12.139   1.711  10.378
84644SOL    HW155771  12.107   1.782  10.434
84644SOL    HW255772  12.094   1.724  10.294
84645SOL     OW55773   6.197   5.923   6.211
84645SOL    HW155774   6.168   6.007   6.176
84645SOL    HW255775   6.121   5.866   6.202
84646SOL     OW55776   8.584   3.441  13.522
84646SOL    HW155777   8.663   3.446  13.575
84646SOL    HW255778   8.535   3.521  13.543
84647SOL     OW55779   3.038   9.443   6.454
84647SOL    HW155780   2.975   9.497   6.406
84647SOL    HW255781   3.079   9.389   6.387
84648SOL     OW55782  10.500   4.834   1.840
84648SOL    HW155783  10.448   4.853   1.762
84648SOL    HW255784  10.469   4.897   1.905
84649SOL     OW55785   2.621   4.682  11.332
84649SOL    HW155786   2.592   4.763  11.374
84649SOL    HW255787   2.709   4.702  11.301
84650SOL     OW55788   1.120  11.417  11.907
84650SOL    HW155789   1.184  11.362  11.952
84650SOL    HW255790   1.056  11.355  11.873
84651SOL     OW55791  11.669   9.863   2.904
84651SOL    HW155792  11.662   9.852   2.999
84651SOL    HW255793  11.751   9.820   2.881
84652SOL     OW55794   6.214  14.389   0.562
84652SOL    HW155795   6.151  14.459   0.579
84652SOL    HW255796   6.292  14.434   0.529
84653SOL     OW55797   4.640   7.736   5.235
84653SOL    HW155798   4.642   7.762   5.327
84653SOL    HW255799   4.702   7.795   5.192
84654SOL     OW55800   7.059   9.276   2.541
84654SOL    HW155801   7.109   9.344   2.586
84654SOL    HW255802   7.099   9.270   2.454
84655SOL     OW55803   8.899   3.073  10.523
84655SOL    HW155804   8.920   3.102  10.435
84655SOL    HW255805   8.820   3.020  10.514
84656SOL     OW55806   5.720   8.653  12.812
84656SOL    HW155807   5.751   8.659  12.722
84656SOL    HW255808   5.749   8.566  12.841
84657SOL     OW55809  12.735  14.017   6.126
84657SOL    HW155810  12.827  14.041   6.128
84657SOL    HW255811  12.706  14.026   6.217
84658SOL     OW55812   2.623  11.491   1.102
84658SOL    HW155813   2.559  11.553   1.136
84658SOL    HW255814   2.625  11.507   1.008
84659SOL     OW55815  12.640   6.957  12.499
84659SOL    HW155816  12.694   6.981  12.424
84659SOL    HW255817  12.642   7.034  12.556
84660SOL     OW55818   1.805  12.043  13.197
84660SOL    HW155819   1.828  11.956  13.165
84660SOL    HW255820   1.730  12.069  13.143
84661SOL     OW55821   9.098   0.500  11.690
84661SOL    HW155822   9.177   0.448  11.702
84661SOL    HW255823   9.050   0.489  11.772
84662SOL     OW55824  13.900   2.749   8.094
84662SOL    HW155825  13.869   2.795   8.016
84662SOL    HW255826  13.858   2.796   8.167
84663SOL     OW55827  10.898   2.379  14.046
84663SOL    HW155828  10.986   2.396  14.013
84663SOL    HW255829  10.905   2.393  14.140
84664SOL     OW55830   6.976   6.163   0.495
84664SOL    HW155831   7.069   6.140   0.496
84664SOL    HW255832   6.963   6.206   0.411
84665SOL     OW55833   4.861   7.731  12.330
84665SOL    HW155834   4.936   7.688  12.289
84665SOL    HW255835   4.864   7.702  12.422
84666SOL     OW55836   2.915  14.798   1.575
84666SOL    HW155837   2.926  14.706   1.550
84666SOL    HW255838   2.856  14.795   1.650
84667SOL     OW55839   5.617  11.616   6.921
84667SOL    HW155840   5.688  11.596   6.982
84667SOL    HW255841   5.659  11.623   6.836
84668SOL     OW55842   4.990   4.063   0.901
84668SOL    HW155843   4.941   4.062   0.819
84668SOL    HW255844   5.082   4.054   0.875
84669SOL     OW55845   3.218  14.835   1.475
84669SOL    HW155846   3.264  14.866   1.553
84669SOL    HW255847   3.232  14.741   1.475
84670SOL     OW55848   1.350   1.200   3.529
84670SOL    HW155849   1.364   1.262   3.600
84670SOL    HW255850   1.294   1.246   3.467
84671SOL     OW55851   8.034  11.000  11.939
84671SOL    HW155852   8.039  10.904  11.934
84671SOL    HW255853   8.124  11.029  11.928
84672SOL     OW55854   2.301  13.893  12.775
84672SOL    HW155855   2.327  13.808  12.810
84672SOL    HW255856   2.209  13.882  12.750
84673SOL     OW55857   1.540   6.383   8.799
84673SOL    HW155858   1.536   6.291   8.824
84673SOL    HW255859   1.628   6.395   8.763
84674SOL     OW55860   0.468   4.731   0.598
84674SOL    HW155861   0.469   4.825   0.584
84674SOL    HW255862   0.379   4.713   0.631
84675SOL     OW55863  14.396   1.234   3.512
84675SOL    HW155864  14.397   1.324   3.544
84675SOL    HW255865  14.443   1.185   3.580
84676SOL     OW55866   3.514   6.543  10.803
84676SOL    HW155867   3.442   6.605  10.792
84676SOL    HW255868   3.495   6.472  10.742
84677SOL     OW55869   7.960   4.151   2.413
84677SOL    HW155870   7.987   4.207   2.341
84677SOL    HW255871   7.899   4.088   2.374
84678SOL     OW55872  12.808  10.327   6.378
84678SOL    HW155873  12.790  10.320   6.472
84678SOL    HW255874  12.901  10.305   6.369
84679SOL     OW55875   7.436   6.837   3.958
84679SOL    HW155876   7.452   6.831   4.052
84679SOL    HW255877   7.445   6.747   3.926
84680SOL     OW55878  13.917  14.238   7.959
84680SOL    HW155879  13.884  14.225   7.871
84680SOL    HW255880  13.884  14.324   7.985
84681SOL     OW55881   7.244   2.025   3.207
84681SOL    HW155882   7.265   2.102   3.154
84681SOL    HW255883   7.157   1.998   3.178
84682SOL     OW55884   9.798   4.863  10.632
84682SOL    HW155885   9.774   4.819  10.714
84682SOL    HW255886   9.715   4.889  10.593
84683SOL     OW55887   0.483   3.675   3.234
84683SOL    HW155888   0.575   3.654   3.217
84683SOL    HW255889   0.455   3.610   3.299
84684SOL     OW55890  13.225   5.891   0.211
84684SOL    HW155891  13.262   5.867   0.126
84684SOL    HW255892  13.298   5.932   0.258
84685SOL     OW55893   0.312   3.860  14.676
84685SOL    HW155894   0.404   3.884  14.689
84685SOL    HW255895   0.264   3.943  14.681
84686SOL     OW55896   0.116   7.237   6.796
84686SOL    HW155897   0.108   7.143   6.780
84686SOL    HW255898   0.209   7.256   6.781
84687SOL     OW55899  10.912  13.326   2.089
84687SOL    HW155900  10.898  13.340   2.182
84687SOL    HW255901  10.998  13.283   2.083
84688SOL     OW55902   8.076  10.695  11.291
84688SOL    HW155903   8.009  10.694  11.223
84688SOL    HW255904   8.045  10.633  11.357
84689SOL     OW55905  10.224  12.018   5.991
84689SOL    HW155906  10.298  11.958   5.994
84689SOL    HW255907  10.217  12.052   6.081
84690SOL     OW55908   3.148  12.837   9.996
84690SOL    HW155909   3.233  12.814   9.957
84690SOL    HW255910   3.147  12.791  10.080
84691SOL     OW55911   1.467   2.291   6.978
84691SOL    HW155912   1.410   2.332   7.044
84691SOL    HW255913   1.509   2.365   6.935
84692SOL     OW55914   6.825   4.618   8.774
84692SOL    HW155915   6.919   4.617   8.753
84692SOL    HW255916   6.807   4.528   8.801
84693SOL     OW55917   1.451   4.113   0.851
84693SOL    HW155918   1.518   4.098   0.785
84693SOL    HW255919   1.388   4.041   0.839
84694SOL     OW55920  10.090  13.372   5.179
84694SOL    HW155921  10.079  13.442   5.243
84694SOL    HW255922  10.062  13.410   5.096
84695SOL     OW55923  10.053  11.723  12.580
84695SOL    HW155924   9.990  11.727  12.651
84695SOL    HW255925  10.036  11.803  12.529
84696SOL     OW55926   7.184   1.945   0.252
84696SOL    HW155927   7.118   1.909   0.192
84696SOL    HW255928   7.143   2.023   0.289
84697SOL     OW55929  13.513  14.374  10.173
84697SOL    HW155930  13.508  14.375  10.077
84697SOL    HW255931  13.472  14.457  10.200
84698SOL     OW55932   6.094   3.398  12.553
84698SOL    HW155933   6.031   3.389  12.482
84698SOL    HW255934   6.149   3.473  12.527
84699SOL     OW55935   1.187   4.112   7.364
84699SOL    HW155936   1.172   4.092   7.457
84699SOL    HW255937   1.133   4.048   7.317
84700SOL     OW55938   6.333  14.279   7.610
84700SOL    HW155939   6.377  14.195   7.627
84700SOL    HW255940   6.405  14.339   7.588
84701SOL     OW55941  10.838  11.519   7.418
84701SOL    HW155942  10.893  11.447   7.388
84701SOL    HW255943  10.900  11.588   7.441
84702SOL     OW55944   5.090  12.402   9.493
84702SOL    HW155945   5.162  12.341   9.481
84702SOL    HW255946   5.132  12.485   9.513
84703SOL     OW55947   4.446   8.111  11.598
84703SOL    HW155948   4.400   8.050  11.540
84703SOL    HW255949   4.538   8.101  11.575
84704SOL     OW55950  12.208  12.461   5.862
84704SOL    HW155951  12.232  12.402   5.790
84704SOL    HW255952  12.163  12.534   5.818
84705SOL     OW55953   1.945  11.783  12.084
84705SOL    HW155954   2.031  11.764  12.120
84705SOL    HW255955   1.918  11.701  12.042
84706SOL     OW55956   3.924  14.104   7.743
84706SOL    HW155957   3.941  14.197   7.728
84706SOL    HW255958   3.856  14.082   7.679
84707SOL     OW55959  10.482  13.817   0.872
84707SOL    HW155960  10.520  13.816   0.784
84707SOL    HW255961  10.540  13.874   0.923
84708SOL     OW55962   6.337  12.822   2.095
84708SOL    HW155963   6.351  12.898   2.151
84708SOL    HW255964   6.243  12.822   2.077
84709SOL     OW55965   7.904  12.969   4.556
84709SOL    HW155966   7.913  13.033   4.626
84709SOL    HW255967   7.956  12.894   4.586
84710SOL     OW55968   0.708   2.544   7.238
84710SOL    HW155969   0.796   2.579   7.252
84710SOL    HW255970   0.717   2.451   7.260
84711SOL     OW55971   7.503  13.255   4.317
84711SOL    HW155972   7.421  13.213   4.293
84711SOL    HW255973   7.561  13.183   4.341
84712SOL     OW55974   8.142  10.037   2.868
84712SOL    HW155975   8.107  10.014   2.782
84712SOL    HW255976   8.066  10.065   2.919
84713SOL     OW55977   7.062   7.955   3.892
84713SOL    HW155978   7.150   7.921   3.875
84713SOL    HW255979   7.004   7.899   3.841
84714SOL     OW55980   7.128  11.865   3.855
84714SOL    HW155981   7.100  11.949   3.821
84714SOL    HW255982   7.086  11.857   3.940
84715SOL     OW55983   3.311  14.871   0.852
84715SOL    HW155984   3.295  14.861   0.945
84715SOL    HW255985   3.315  14.781   0.818
84716SOL     OW55986   5.678   0.864  10.078
84716SOL    HW155987   5.674   0.868  10.174
84716SOL    HW255988   5.626   0.787  10.055
84717SOL     OW55989   8.509  10.549   9.476
84717SOL    HW155990   8.569  10.598   9.420
84717SOL    HW255991   8.443  10.613   9.502
84718SOL     OW55992   5.570   6.586   6.060
84718SOL    HW155993   5.592   6.500   6.097
84718SOL    HW255994   5.590   6.577   5.967
84719SOL     OW55995   2.749   3.245   0.239
84719SOL    HW155996   2.743   3.258   0.145
84719SOL    HW255997   2.674   3.293   0.275
84720SOL     OW55998  13.179   7.231   0.652
84720SOL    HW155999  13.228   7.250   0.572
84720SOL    HW256000  13.238   7.257   0.722
84721SOL     OW56001   4.220   0.436   9.357
84721SOL    HW156002   4.130   0.452   9.385
84721SOL    HW256003   4.267   0.415   9.438
84722SOL     OW56004   0.262   1.936   6.858
84722SOL    HW156005   0.182   1.989   6.861
84722SOL    HW256006   0.333   2.000   6.851
84723SOL     OW56007   0.769   5.436  12.219
84723SOL    HW156008   0.780   5.439  12.124
84723SOL    HW256009   0.681   5.401  12.232
84724SOL     OW56010   5.626   6.807   6.861
84724SOL    HW156011   5.544   6.846   6.830
84724SOL    HW256012   5.600   6.749   6.933
84725SOL     OW56013   8.547  12.856   6.782
84725SOL    HW156014   8.473  12.917   6.786
84725SOL    HW256015   8.621  12.911   6.756
84726SOL     OW56016  14.319   6.962   0.166
84726SOL    HW156017  14.263   6.970   0.244
84726SOL    HW256018  14.386   6.899   0.193
84727SOL     OW56019   9.379   1.812  11.889
84727SOL    HW156020   9.303   1.846  11.936
84727SOL    HW256021   9.345   1.736  11.842
84728SOL     OW56022  14.072  11.538   6.475
84728SOL    HW156023  14.016  11.467   6.505
84728SOL    HW256024  14.153  11.496   6.448
84729SOL     OW56025   6.679   9.293   5.845
84729SOL    HW156026   6.653   9.245   5.924
84729SOL    HW256027   6.666   9.385   5.868
84730SOL     OW56028   8.848   2.512   9.569
84730SOL    HW156029   8.914   2.476   9.510
84730SOL    HW256030   8.803   2.436   9.605
84731SOL     OW56031   6.186  11.155   0.015
84731SOL    HW156032   6.209  11.149   0.108
84731SOL    HW256033   6.158  11.066  14.866
84732SOL     OW56034   2.162   8.574  12.838
84732SOL    HW156035   2.123   8.635  12.900
84732SOL    HW256036   2.192   8.500  12.892
84733SOL     OW56037   6.595   5.394   7.975
84733SOL    HW156038   6.575   5.359   8.062
84733SOL    HW256039   6.690   5.386   7.967
84734SOL     OW56040   6.775   7.199   2.058
84734SOL    HW156041   6.730   7.114   2.060
84734SOL    HW256042   6.788   7.220   2.151
84735SOL     OW56043   1.697   3.860  12.108
84735SOL    HW156044   1.656   3.943  12.133
84735SOL    HW256045   1.710   3.814  12.190
84736SOL     OW56046  14.784   1.067   5.447
84736SOL    HW156047  14.770   1.048   5.540
84736SOL    HW256048  14.819   1.156   5.445
84737SOL     OW56049   7.171   5.261   3.362
84737SOL    HW156050   7.189   5.222   3.447
84737SOL    HW256051   7.093   5.214   3.330
84738SOL     OW56052   5.606   4.493  10.216
84738SOL    HW156053   5.549   4.570  10.225
84738SOL    HW256054   5.551   4.427  10.174
84739SOL     OW56055  11.975   2.095   3.087
84739SOL    HW156056  12.005   2.057   3.004
84739SOL    HW256057  12.033   2.057   3.153
84740SOL     OW56058   3.580  11.579  13.918
84740SOL    HW156059   3.530  11.590  13.999
84740SOL    HW256060   3.632  11.499  13.933
84741SOL     OW56061   8.508   8.385   0.772
84741SOL    HW156062   8.570   8.435   0.719
84741SOL    HW256063   8.457   8.452   0.818
84742SOL     OW56064   7.967  11.851  10.315
84742SOL    HW156065   7.996  11.777  10.368
84742SOL    HW256066   8.039  11.865  10.253
84743SOL     OW56067  13.110  11.122  11.609
84743SOL    HW156068  13.163  11.043  11.610
84743SOL    HW256069  13.022  11.092  11.587
84744SOL     OW56070  12.467   3.098   1.453
84744SOL    HW156071  12.386   3.149   1.458
84744SOL    HW256072  12.438   3.007   1.452
84745SOL     OW56073  11.556  14.119   3.776
84745SOL    HW156074  11.602  14.039   3.749
84745SOL    HW256075  11.496  14.138   3.704
84746SOL     OW56076   0.873   4.848  12.675
84746SOL    HW156077   0.779   4.865  12.671
84746SOL    HW256078   0.880   4.758  12.708
84747SOL     OW56079  11.418   9.479   4.672
84747SOL    HW156080  11.370   9.561   4.682
84747SOL    HW256081  11.371   9.432   4.602
84748SOL     OW56082   8.327   9.243  11.240
84748SOL    HW156083   8.360   9.292  11.165
84748SOL    HW256084   8.378   9.275  11.314
84749SOL     OW56085   4.948   2.303   9.099
84749SOL    HW156086   4.922   2.386   9.060
84749SOL    HW256087   5.044   2.308   9.106
84750SOL     OW56088  14.562   9.431  10.153
84750SOL    HW156089  14.605   9.346  10.161
84750SOL    HW256090  14.493   9.416  10.088
84751SOL     OW56091   0.018   4.748  12.999
84751SOL    HW156092  14.830   4.779  12.932
84751SOL    HW256093   0.041   4.659  12.971
84752SOL     OW56094   1.159   0.156  10.132
84752SOL    HW156095   1.157   0.251  10.144
84752SOL    HW256096   1.206   0.143  10.050
84753SOL     OW56097  13.864  12.713   6.828
84753SOL    HW156098  13.796  12.670   6.879
84753SOL    HW256099  13.923  12.643   6.800
84754SOL     OW56100   4.293  10.537   5.435
84754SOL    HW156101   4.197  10.542   5.430
84754SOL    HW256102   4.316  10.585   5.515
84755SOL     OW56103   5.816  12.277   1.545
84755SOL    HW156104   5.846  12.187   1.535
84755SOL    HW256105   5.768  12.296   1.465
84756SOL     OW56106   2.527   5.842   3.572
84756SOL    HW156107   2.575   5.886   3.642
84756SOL    HW256108   2.509   5.911   3.508
84757SOL     OW56109  10.975   9.794  11.442
84757SOL    HW156110  11.066   9.792  11.412
84757SOL    HW256111  10.971   9.872  11.499
84758SOL     OW56112  13.812   8.138   6.084
84758SOL    HW156113  13.772   8.145   6.171
84758SOL    HW256114  13.821   8.228   6.054
84759SOL     OW56115   2.509   4.454   3.778
84759SOL    HW156116   2.436   4.438   3.719
84759SOL    HW256117   2.547   4.367   3.793
84760SOL     OW56118  12.445   5.957   5.903
84760SOL    HW156119  12.499   6.034   5.923
84760SOL    HW256120  12.374   5.960   5.967
84761SOL     OW56121   3.513   9.955   1.023
84761SOL    HW156122   3.493   9.952   0.930
84761SOL    HW256123   3.490  10.044   1.049
84762SOL     OW56124   3.115  13.068   6.439
84762SOL    HW156125   3.021  13.086   6.438
84762SOL    HW256126   3.137  13.053   6.347
84763SOL     OW56127   2.795   5.297   2.289
84763SOL    HW156128   2.795   5.253   2.204
84763SOL    HW256129   2.857   5.247   2.342
84764SOL     OW56130   0.679   3.311  13.738
84764SOL    HW156131   0.671   3.403  13.713
84764SOL    HW256132   0.749   3.311  13.804
84765SOL     OW56133   1.813   2.722   5.593
84765SOL    HW156134   1.788   2.637   5.557
84765SOL    HW256135   1.909   2.722   5.590
84766SOL     OW56136   7.163   2.779   7.980
84766SOL    HW156137   7.094   2.824   8.028
84766SOL    HW256138   7.225   2.752   8.047
84767SOL     OW56139  10.822   3.238  13.091
84767SOL    HW156140  10.881   3.274  13.025
84767SOL    HW256141  10.880   3.216  13.165
84768SOL     OW56142   8.527   6.979   2.796
84768SOL    HW156143   8.503   6.974   2.704
84768SOL    HW256144   8.593   6.910   2.807
84769SOL     OW56145   2.714   6.637  13.924
84769SOL    HW156146   2.739   6.608  13.837
84769SOL    HW256147   2.619   6.634  13.925
84770SOL     OW56148   6.213   1.386   4.518
84770SOL    HW156149   6.162   1.340   4.452
84770SOL    HW256150   6.183   1.477   4.511
84771SOL     OW56151   2.717   5.574   8.372
84771SOL    HW156152   2.692   5.482   8.370
84771SOL    HW256153   2.657   5.615   8.434
84772SOL     OW56154   3.596   2.978   5.102
84772SOL    HW156155   3.505   3.000   5.119
84772SOL    HW256156   3.612   2.898   5.151
84773SOL     OW56157  11.748   9.288  14.657
84773SOL    HW156158  11.707   9.217  14.707
84773SOL    HW256159  11.821   9.246  14.611
84774SOL     OW56160   3.079   8.777   9.734
84774SOL    HW156161   3.145   8.709   9.725
84774SOL    HW256162   3.010   8.751   9.673
84775SOL     OW56163  10.000  13.383  11.724
84775SOL    HW156164  10.080  13.331  11.728
84775SOL    HW256165   9.983  13.408  11.815
84776SOL     OW56166   9.854  12.073   9.010
84776SOL    HW156167   9.932  12.031   8.973
84776SOL    HW256168   9.884  12.159   9.038
84777SOL     OW56169  13.987   8.476   9.579
84777SOL    HW156170  13.955   8.427   9.654
84777SOL    HW256171  13.908   8.510   9.537
84778SOL     OW56172   3.421   4.403   0.688
84778SOL    HW156173   3.486   4.419   0.619
84778SOL    HW256174   3.461   4.440   0.766
84779SOL     OW56175  10.288   8.338   0.299
84779SOL    HW156176  10.294   8.434   0.303
84779SOL    HW256177  10.261   8.312   0.387
84780SOL     OW56178  14.071  11.780  14.387
84780SOL    HW156179  14.163  11.782  14.412
84780SOL    HW256180  14.071  11.782  14.292
84781SOL     OW56181   2.915   0.697  14.464
84781SOL    HW156182   2.961   0.620  14.496
84781SOL    HW256183   2.834   0.700  14.515
84782SOL     OW56184   2.783   8.799  11.437
84782SOL    HW156185   2.733   8.838  11.508
84782SOL    HW256186   2.845   8.740  11.481
84783SOL     OW56187   5.138   6.312   6.103
84783SOL    HW156188   5.115   6.404   6.117
84783SOL    HW256189   5.210   6.296   6.164
84784SOL     OW56190   7.315   9.302  12.182
84784SOL    HW156191   7.320   9.279  12.089
84784SOL    HW256192   7.240   9.361  12.188
84785SOL     OW56193   4.929  12.470   4.732
84785SOL    HW156194   4.942  12.545   4.673
84785SOL    HW256195   5.013  12.424   4.729
84786SOL     OW56196   9.371  12.426  14.126
84786SOL    HW156197   9.427  12.459  14.055
84786SOL    HW256198   9.291  12.399  14.081
84787SOL     OW56199   2.678  11.731   9.062
84787SOL    HW156200   2.645  11.773   8.982
84787SOL    HW256201   2.756  11.781   9.085
84788SOL     OW56202   9.173   2.140  12.237
84788SOL    HW156203   9.229   2.069  12.205
84788SOL    HW256204   9.229   2.218  12.236
84789SOL     OW56205   4.687  11.387   9.582
84789SOL    HW156206   4.657  11.313   9.635
84789SOL    HW256207   4.612  11.408   9.526
84790SOL     OW56208  14.031  11.224   8.868
84790SOL    HW156209  14.023  11.266   8.783
84790SOL    HW256210  14.076  11.289   8.923
84791SOL     OW56211  11.804  11.586   8.188
84791SOL    HW156212  11.719  11.544   8.186
84791SOL    HW256213  11.828  11.590   8.281
84792SOL     OW56214  13.737   4.051   0.045
84792SOL    HW156215  13.732   3.957   0.060
84792SOL    HW256216  13.737   4.089   0.133
84793SOL     OW56217   5.476   1.596   3.989
84793SOL    HW156218   5.501   1.688   3.985
84793SOL    HW256219   5.425   1.581   3.909
84794SOL     OW56220  12.540   6.561   4.810
84794SOL    HW156221  12.576   6.606   4.733
84794SOL    HW256222  12.445   6.564   4.798
84795SOL     OW56223   1.666  12.760   0.549
84795SOL    HW156224   1.715  12.721   0.621
84795SOL    HW256225   1.593  12.805   0.591
84796SOL     OW56226   1.757   2.485   5.195
84796SOL    HW156227   1.830   2.488   5.134
84796SOL    HW256228   1.748   2.575   5.227
84797SOL     OW56229   1.033   9.675  12.970
84797SOL    HW156230   1.087   9.665  12.892
84797SOL    HW256231   0.954   9.720  12.939
84798SOL     OW56232   3.415   4.060  13.678
84798SOL    HW156233   3.363   3.982  13.699
84798SOL    HW256234   3.380   4.089  13.594
84799SOL     OW56235  12.956  14.095   1.157
84799SOL    HW156236  12.945  14.025   1.092
84799SOL    HW256237  13.047  14.123   1.146
84800SOL     OW56238   9.695   4.998   7.059
84800SOL    HW156239   9.731   4.954   7.136
84800SOL    HW256240   9.684   5.089   7.086
84801SOL     OW56241   8.479   2.370  10.731
84801SOL    HW156242   8.390   2.335  10.726
84801SOL    HW256243   8.525   2.311  10.791
84802SOL     OW56244   8.065   6.428  11.387
84802SOL    HW156245   8.003   6.413  11.315
84802SOL    HW256246   8.063   6.346  11.437
84803SOL     OW56247  12.871   9.025  12.370
84803SOL    HW156248  12.838   9.086  12.305
84803SOL    HW256249  12.902   9.081  12.442
84804SOL     OW56250   3.171  14.543   5.590
84804SOL    HW156251   3.215  14.588   5.662
84804SOL    HW256252   3.186  14.600   5.514
84805SOL     OW56253   9.548  14.844  11.430
84805SOL    HW156254   9.480  14.778  11.416
84805SOL    HW256255   9.630  14.797  11.419
84806SOL     OW56256  13.132   1.257   6.048
84806SOL    HW156257  13.038   1.273   6.040
84806SOL    HW256258  13.171   1.312   5.981
84807SOL     OW56259   1.797   8.825   7.417
84807SOL    HW156260   1.739   8.889   7.375
84807SOL    HW256261   1.758   8.811   7.503
84808SOL     OW56262   1.383   4.011   1.805
84808SOL    HW156263   1.379   4.102   1.837
84808SOL    HW256264   1.293   3.980   1.811
84809SOL     OW56265  12.112   1.771  13.324
84809SOL    HW156266  12.171   1.727  13.262
84809SOL    HW256267  12.151   1.756  13.410
84810SOL     OW56268   4.608  12.546   0.992
84810SOL    HW156269   4.537  12.562   0.930
84810SOL    HW256270   4.679  12.604   0.963
84811SOL     OW56271   0.102  11.485   6.992
84811SOL    HW156272   0.034  11.524   7.046
84811SOL    HW256273   0.100  11.391   7.014
84812SOL     OW56274  14.099  10.717   3.410
84812SOL    HW156275  14.003  10.715   3.405
84812SOL    HW256276  14.118  10.738   3.501
84813SOL     OW56277   2.748   0.998  13.348
84813SOL    HW156278   2.758   0.912  13.308
84813SOL    HW256279   2.717   0.979  13.437
84814SOL     OW56280   6.391   5.379   9.842
84814SOL    HW156281   6.341   5.342   9.770
84814SOL    HW256282   6.325   5.416   9.901
84815SOL     OW56283   4.696   5.236  13.446
84815SOL    HW156284   4.673   5.174  13.515
84815SOL    HW256285   4.784   5.266  13.468
84816SOL     OW56286   0.368  10.791  13.480
84816SOL    HW156287   0.275  10.768  13.480
84816SOL    HW256288   0.397  10.774  13.569
84817SOL     OW56289   2.206  13.164   9.132
84817SOL    HW156290   2.242  13.124   9.053
84817SOL    HW256291   2.114  13.136   9.134
84818SOL     OW56292   4.839   4.554  14.416
84818SOL    HW156293   4.817   4.539  14.509
84818SOL    HW256294   4.787   4.631  14.391
84819SOL     OW56295   1.689   6.532   9.251
84819SOL    HW156296   1.742   6.547   9.329
84819SOL    HW256297   1.643   6.615   9.237
84820SOL     OW56298   1.176  10.060   0.446
84820SOL    HW156299   1.138  10.124   0.505
84820SOL    HW256300   1.102  10.028   0.394
84821SOL     OW56301  13.236   1.933  12.798
84821SOL    HW156302  13.163   1.872  12.811
84821SOL    HW256303  13.209   1.987  12.724
84822SOL     OW56304   2.543  11.482  12.674
84822SOL    HW156305   2.451  11.503  12.689
84822SOL    HW256306   2.573  11.547  12.611
84823SOL     OW56307   7.029  13.156   0.537
84823SOL    HW156308   6.975  13.109   0.600
84823SOL    HW256309   6.976  13.233   0.514
84824SOL     OW56310   7.102   3.673  13.142
84824SOL    HW156311   7.148   3.755  13.125
84824SOL    HW256312   7.110   3.659  13.236
84825SOL     OW56313   7.100  13.633  13.542
84825SOL    HW156314   7.064  13.617  13.455
84825SOL    HW256315   7.036  13.690  13.584
84826SOL     OW56316  12.516   2.044   7.138
84826SOL    HW156317  12.424   2.019   7.153
84826SOL    HW256318  12.532   2.113   7.203
84827SOL     OW56319  14.385   3.147   3.479
84827SOL    HW156320  14.352   3.084   3.544
84827SOL    HW256321  14.480   3.139   3.483
84828SOL     OW56322  13.675  12.239  10.588
84828SOL    HW156323  13.724  12.255  10.507
84828SOL    HW256324  13.722  12.289  10.655
84829SOL     OW56325   0.246   1.078  11.908
84829SOL    HW156326   0.203   1.153  11.867
84829SOL    HW256327   0.272   1.109  11.995
84830SOL     OW56328   5.373   8.099   2.865
84830SOL    HW156329   5.448   8.040   2.875
84830SOL    HW256330   5.362   8.138   2.951
84831SOL     OW56331   4.492   5.604  10.420
84831SOL    HW156332   4.485   5.674  10.485
84831SOL    HW256333   4.403   5.571  10.410
84832SOL     OW56334  11.309   5.662  12.630
84832SOL    HW156335  11.243   5.702  12.573
84832SOL    HW256336  11.362   5.735  12.660
84833SOL     OW56337   3.200   6.050  11.537
84833SOL    HW156338   3.122   6.061  11.590
84833SOL    HW256339   3.209   6.133  11.490
84834SOL     OW56340  10.277  14.383   8.647
84834SOL    HW156341  10.202  14.354   8.700
84834SOL    HW256342  10.250  14.469   8.613
84835SOL     OW56343   0.783   3.906   9.126
84835SOL    HW156344   0.859   3.947   9.085
84835SOL    HW256345   0.732   3.871   9.053
84836SOL     OW56346   7.747   4.130   6.173
84836SOL    HW156347   7.716   4.049   6.132
84836SOL    HW256348   7.674   4.158   6.228
84837SOL     OW56349   9.493  12.351   1.805
84837SOL    HW156350   9.429  12.314   1.744
84837SOL    HW256351   9.542  12.276   1.837
84838SOL     OW56352   2.786   0.279   0.157
84838SOL    HW156353   2.833   0.197   0.144
84838SOL    HW256354   2.712   0.256   0.213
84839SOL     OW56355   4.784  13.592   6.746
84839SOL    HW156356   4.737  13.593   6.663
84839SOL    HW256357   4.809  13.683   6.761
84840SOL     OW56358  10.217   9.828   3.326
84840SOL    HW156359  10.294   9.811   3.271
84840SOL    HW256360  10.151   9.767   3.292
84841SOL     OW56361  10.729  12.616   9.687
84841SOL    HW156362  10.689  12.583   9.767
84841SOL    HW256363  10.666  12.680   9.653
84842SOL     OW56364   0.761   2.223   1.608
84842SOL    HW156365   0.798   2.288   1.547
84842SOL    HW256366   0.831   2.208   1.672
84843SOL     OW56367   4.757   1.104   7.568
84843SOL    HW156368   4.778   1.035   7.632
84843SOL    HW256369   4.715   1.057   7.496
84844SOL     OW56370   3.902  13.841  13.333
84844SOL    HW156371   3.954  13.779  13.385
84844SOL    HW256372   3.907  13.807  13.244
84845SOL     OW56373   1.977   7.487   3.815
84845SOL    HW156374   1.894   7.511   3.774
84845SOL    HW256375   1.966   7.508   3.907
84846SOL     OW56376  14.711   1.808  12.000
84846SOL    HW156377  14.668   1.726  11.978
84846SOL    HW256378  14.798   1.782  12.032
84847SOL     OW56379   0.263   3.451  12.478
84847SOL    HW156380   0.278   3.516  12.547
84847SOL    HW256381   0.188   3.485  12.430
84848SOL     OW56382   2.088   8.043  12.519
84848SOL    HW156383   1.993   8.040  12.533
84848SOL    HW256384   2.101   8.114  12.456
84849SOL     OW56385   9.747  11.921   5.525
84849SOL    HW156386   9.730  11.896   5.616
84849SOL    HW256387   9.720  11.845   5.474
84850SOL     OW56388   7.360  10.576   2.534
84850SOL    HW156389   7.302  10.620   2.471
84850SOL    HW256390   7.395  10.501   2.485
84851SOL     OW56391   4.805  10.441   6.691
84851SOL    HW156392   4.839  10.485   6.769
84851SOL    HW256393   4.820  10.504   6.620
84852SOL     OW56394   4.654   5.201   0.125
84852SOL    HW156395   4.732   5.179   0.075
84852SOL    HW256396   4.650   5.297   0.124
84853SOL     OW56397   9.624  11.357   7.631
84853SOL    HW156398   9.554  11.291   7.628
84853SOL    HW256399   9.593  11.422   7.694
84854SOL     OW56400   7.931   7.920   1.454
84854SOL    HW156401   7.876   7.964   1.389
84854SOL    HW256402   7.882   7.842   1.478
84855SOL     OW56403   1.390   0.734   3.135
84855SOL    HW156404   1.387   0.658   3.077
84855SOL    HW256405   1.483   0.744   3.155
84856SOL     OW56406   0.574  12.439   6.749
84856SOL    HW156407   0.631  12.468   6.820
84856SOL    HW256408   0.584  12.344   6.748
84857SOL     OW56409   2.612  11.214  14.136
84857SOL    HW156410   2.608  11.308  14.116
84857SOL    HW256411   2.642  11.174  14.055
84858SOL     OW56412   1.560   2.623   7.168
84858SOL    HW156413   1.601   2.552   7.217
84858SOL    HW256414   1.520   2.679   7.234
84859SOL     OW56415  11.271   6.075   1.392
84859SOL    HW156416  11.227   6.067   1.476
84859SOL    HW256417  11.296   5.986   1.369
84860SOL     OW56418   0.910   0.094   4.805
84860SOL    HW156419   0.954   0.155   4.864
84860SOL    HW256420   0.822   0.130   4.795
84861SOL     OW56421   0.680   1.738   6.042
84861SOL    HW156422   0.745   1.808   6.032
84861SOL    HW256423   0.686   1.689   5.960
84862SOL     OW56424   5.051  12.263   6.550
84862SOL    HW156425   5.092  12.329   6.606
84862SOL    HW256426   5.022  12.311   6.473
84863SOL     OW56427  11.370   8.897   1.983
84863SOL    HW156428  11.385   8.827   1.920
84863SOL    HW256429  11.387   8.978   1.935
84864SOL     OW56430   2.710   9.144  12.901
84864SOL    HW156431   2.702   9.163  12.807
84864SOL    HW256432   2.709   9.230  12.943
84865SOL     OW56433   8.571   0.850   0.574
84865SOL    HW156434   8.664   0.850   0.554
84865SOL    HW256435   8.552   0.761   0.602
84866SOL     OW56436  11.329   8.452   4.966
84866SOL    HW156437  11.267   8.507   5.014
84866SOL    HW256438  11.337   8.495   4.881
84867SOL     OW56439  13.535  14.515  10.465
84867SOL    HW156440  13.538  14.424  10.496
84867SOL    HW256441  13.594  14.562  10.524
84868SOL     OW56442   2.099   8.678   1.100
84868SOL    HW156443   2.142   8.661   1.016
84868SOL    HW256444   2.098   8.594   1.145
84869SOL     OW56445   2.912   8.039  14.614
84869SOL    HW156446   2.852   8.086  14.672
84869SOL    HW256447   2.859   8.018  14.537
84870SOL     OW56448   6.884  12.844   6.069
84870SOL    HW156449   6.970  12.864   6.106
84870SOL    HW256450   6.828  12.918   6.094
84871SOL     OW56451   9.201   7.237   4.922
84871SOL    HW156452   9.141   7.260   4.852
84871SOL    HW256453   9.177   7.295   4.995
84872SOL     OW56454  10.062   3.190  12.602
84872SOL    HW156455  10.073   3.284  12.618
84872SOL    HW256456  10.071   3.181  12.507
84873SOL     OW56457   2.507   4.681  14.410
84873SOL    HW156458   2.570   4.739  14.366
84873SOL    HW256459   2.449   4.651  14.339
84874SOL     OW56460   4.985  13.810   9.145
84874SOL    HW156461   5.054  13.827   9.081
84874SOL    HW256462   4.957  13.897   9.175
84875SOL     OW56463  11.906  13.858   2.172
84875SOL    HW156464  11.977  13.863   2.236
84875SOL    HW256465  11.930  13.784   2.116
84876SOL     OW56466   8.279   9.695   0.062
84876SOL    HW156467   8.284   9.617   0.006
84876SOL    HW256468   8.251   9.662   0.147
84877SOL     OW56469  11.224   9.599   6.928
84877SOL    HW156470  11.278   9.583   7.006
84877SOL    HW256471  11.179   9.516   6.913
84878SOL     OW56472   8.564   7.231   2.185
84878SOL    HW156473   8.585   7.293   2.115
84878SOL    HW256474   8.472   7.209   2.171
84879SOL     OW56475   0.352   5.075  11.253
84879SOL    HW156476   0.353   5.037  11.165
84879SOL    HW256477   0.413   5.020  11.303
84880SOL     OW56478  11.957   2.140   9.790
84880SOL    HW156479  11.907   2.208   9.835
84880SOL    HW256480  12.046   2.175   9.783
84881SOL     OW56481   8.375   1.058   4.551
84881SOL    HW156482   8.320   1.108   4.491
84881SOL    HW256483   8.452   1.114   4.563
84882SOL     OW56484   8.191  13.898   2.315
84882SOL    HW156485   8.158  13.984   2.288
84882SOL    HW256486   8.137  13.836   2.265
84883SOL     OW56487   9.683  14.164  10.451
84883SOL    HW156488   9.775  14.140  10.462
84883SOL    HW256489   9.654  14.109  10.378
84884SOL     OW56490   5.125  14.450   0.284
84884SOL    HW156491   5.195  14.482   0.341
84884SOL    HW256492   5.126  14.509   0.209
84885SOL     OW56493   5.175   7.346   9.901
84885SOL    HW156494   5.264   7.355   9.934
84885SOL    HW256495   5.164   7.252   9.885
84886SOL     OW56496   9.830   1.370   8.232
84886SOL    HW156497   9.851   1.364   8.325
84886SOL    HW256498   9.781   1.452   8.224
84887SOL     OW56499   9.939   1.218   5.647
84887SOL    HW156500   9.870   1.284   5.657
84887SOL    HW256501   9.898   1.148   5.596
84888SOL     OW56502   1.924   8.638   5.345
84888SOL    HW156503   1.953   8.715   5.296
84888SOL    HW256504   1.908   8.671   5.434
84889SOL     OW56505   1.600   9.130   3.591
84889SOL    HW156506   1.691   9.155   3.605
84889SOL    HW256507   1.594   9.114   3.496
84890SOL     OW56508  14.381   7.302   3.565
84890SOL    HW156509  14.422   7.378   3.605
84890SOL    HW256510  14.442   7.274   3.497
84891SOL     OW56511   2.928   3.622  12.467
84891SOL    HW156512   2.909   3.554  12.402
84891SOL    HW256513   3.013   3.597  12.502
84892SOL     OW56514   6.745   7.587   4.318
84892SOL    HW156515   6.793   7.505   4.329
84892SOL    HW256516   6.712   7.607   4.405
84893SOL     OW56517   8.682   9.985  11.693
84893SOL    HW156518   8.729   9.951  11.618
84893SOL    HW256519   8.695   9.920  11.762
84894SOL     OW56520   3.922   8.449   8.114
84894SOL    HW156521   3.928   8.544   8.122
84894SOL    HW256522   3.937   8.431   8.021
84895SOL     OW56523   7.136   9.226  11.840
84895SOL    HW156524   7.217   9.221  11.891
84895SOL    HW256525   7.164   9.250  11.751
84896SOL     OW56526   6.027   3.963  10.747
84896SOL    HW156527   5.964   3.915  10.693
84896SOL    HW256528   6.064   3.896  10.805
84897SOL     OW56529   9.892   1.081  13.382
84897SOL    HW156530   9.814   1.053  13.430
84897SOL    HW256531   9.934   1.144  13.440
84898SOL     OW56532  10.894   0.869   5.827
84898SOL    HW156533  10.837   0.868   5.903
84898SOL    HW256534  10.834   0.870   5.752
84899SOL     OW56535  13.436  10.951  14.702
84899SOL    HW156536  13.349  10.982  14.729
84899SOL    HW256537  13.476  11.026  14.658
84900SOL     OW56538   9.589  13.481   3.459
84900SOL    HW156539   9.518  13.536   3.490
84900SOL    HW256540   9.665  13.506   3.512
84901SOL     OW56541   5.923   2.454   9.129
84901SOL    HW156542   6.006   2.407   9.124
84901SOL    HW256543   5.944   2.543   9.103
84902SOL     OW56544   1.253   5.122   7.427
84902SOL    HW156545   1.189   5.176   7.473
84902SOL    HW256546   1.235   5.033   7.457
84903SOL     OW56547   1.199  13.631   6.573
84903SOL    HW156548   1.159  13.649   6.658
84903SOL    HW256549   1.152  13.555   6.540
84904SOL     OW56550   3.904  13.800   8.908
84904SOL    HW156551   3.840  13.815   8.839
84904SOL    HW256552   3.985  13.780   8.861
84905SOL     OW56553   0.729   3.831  10.793
84905SOL    HW156554   0.686   3.747  10.778
84905SOL    HW256555   0.783   3.816  10.871
84906SOL     OW56556  11.791   4.955   1.008
84906SOL    HW156557  11.768   5.028   0.950
84906SOL    HW256558  11.793   4.994   1.095
84907SOL     OW56559   4.358  11.963   8.742
84907SOL    HW156560   4.285  12.022   8.760
84907SOL    HW256561   4.405  11.957   8.825
84908SOL     OW56562   0.380   1.994  14.592
84908SOL    HW156563   0.393   1.934  14.666
84908SOL    HW256564   0.293   1.971  14.557
84909SOL     OW56565   9.452  12.172   1.557
84909SOL    HW156566   9.544  12.147   1.555
84909SOL    HW256567   9.418  12.147   1.471
84910SOL     OW56568   3.542   3.859   0.222
84910SOL    HW156569   3.613   3.804   0.255
84910SOL    HW256570   3.521   3.823   0.136
84911SOL     OW56571  10.890   6.389   8.442
84911SOL    HW156572  10.886   6.359   8.533
84911SOL    HW256573  10.903   6.484   8.449
84912SOL     OW56574   9.116   0.649   3.405
84912SOL    HW156575   9.093   0.620   3.493
84912SOL    HW256576   9.149   0.570   3.361
84913SOL     OW56577   1.994   4.444   5.559
84913SOL    HW156578   1.916   4.425   5.610
84913SOL    HW256579   1.984   4.535   5.533
84914SOL     OW56580  14.211   9.026  12.744
84914SOL    HW156581  14.299   8.996  12.722
84914SOL    HW256582  14.163   9.023  12.662
84915SOL     OW56583   3.153   6.404   2.997
84915SOL    HW156584   3.189   6.316   2.987
84915SOL    HW256585   3.111   6.422   2.913
84916SOL     OW56586  12.330  13.934   6.614
84916SOL    HW156587  12.394  13.880   6.661
84916SOL    HW256588  12.251  13.930   6.667
84917SOL     OW56589   6.119  13.192   1.395
84917SOL    HW156590   6.096  13.173   1.304
84917SOL    HW256591   6.215  13.192   1.395
84918SOL     OW56592   1.405  10.808   0.104
84918SOL    HW156593   1.324  10.796   0.153
84918SOL    HW256594   1.379  10.799   0.012
84919SOL     OW56595   1.469   1.851  13.358
84919SOL    HW156596   1.548   1.830  13.406
84919SOL    HW256597   1.406   1.784  13.384
84920SOL     OW56598  11.826   0.639   1.289
84920SOL    HW156599  11.905   0.595   1.257
84920SOL    HW256600  11.755   0.600   1.239
84921SOL     OW56601  10.204   1.598   3.333
84921SOL    HW156602  10.226   1.506   3.345
84921SOL    HW256603  10.118   1.597   3.290
84922SOL     OW56604  13.881  12.667   2.020
84922SOL    HW156605  13.819  12.715   1.965
84922SOL    HW256606  13.910  12.594   1.966
84923SOL     OW56607   7.006   9.540   2.940
84923SOL    HW156608   6.930   9.490   2.912
84923SOL    HW256609   7.020   9.604   2.870
84924SOL     OW56610   6.771  14.696   5.280
84924SOL    HW156611   6.719  14.629   5.236
84924SOL    HW256612   6.798  14.755   5.210
84925SOL     OW56613   1.500  10.271  12.450
84925SOL    HW156614   1.503  10.193  12.395
84925SOL    HW256615   1.505  10.344  12.388
84926SOL     OW56616  11.654   0.095   4.209
84926SOL    HW156617  11.632   0.154   4.281
84926SOL    HW256618  11.648   0.150   4.131
84927SOL     OW56619   8.867   7.416   3.752
84927SOL    HW156620   8.802   7.444   3.817
84927SOL    HW256621   8.828   7.440   3.668
84928SOL     OW56622   5.282  11.529   7.708
84928SOL    HW156623   5.243  11.597   7.653
84928SOL    HW256624   5.266  11.560   7.798
84929SOL     OW56625  13.287   8.157  10.106
84929SOL    HW156626  13.343   8.208  10.047
84929SOL    HW256627  13.285   8.069  10.068
84930SOL     OW56628  11.683   7.642  14.580
84930SOL    HW156629  11.634   7.630  14.662
84930SOL    HW256630  11.630   7.595  14.515
84931SOL     OW56631  13.830  14.855  13.842
84931SOL    HW156632  13.902  14.864  13.779
84931SOL    HW256633  13.783  14.778  13.813
84932SOL     OW56634   4.019  13.204   4.754
84932SOL    HW156635   4.000  13.226   4.662
84932SOL    HW256636   3.937  13.166   4.786
84933SOL     OW56637   5.876   2.829   7.529
84933SOL    HW156638   5.806   2.877   7.485
84933SOL    HW256639   5.837   2.799   7.611
84934SOL     OW56640  10.410  11.338   6.808
84934SOL    HW156641  10.351  11.270   6.775
84934SOL    HW256642  10.486  11.334   6.750
84935SOL     OW56643   0.081   4.548   6.504
84935SOL    HW156644   0.161   4.555   6.555
84935SOL    HW256645   0.101   4.588   6.420
84936SOL     OW56646   8.850  10.468   2.897
84936SOL    HW156647   8.928  10.412   2.905
84936SOL    HW256648   8.777  10.410   2.916
84937SOL     OW56649   0.095  13.873   9.270
84937SOL    HW156650   0.148  13.866   9.349
84937SOL    HW256651   0.144  13.824   9.204
84938SOL     OW56652  14.364  10.057   9.554
84938SOL    HW156653  14.309  10.009   9.493
84938SOL    HW256654  14.383  10.140   9.509
84939SOL     OW56655  11.744  14.102  10.918
84939SOL    HW156656  11.671  14.045  10.896
84939SOL    HW256657  11.820  14.043  10.921
84940SOL     OW56658   1.253   1.133   6.132
84940SOL    HW156659   1.247   1.057   6.074
84940SOL    HW256660   1.291   1.202   6.078
84941SOL     OW56661  11.720   2.808   5.766
84941SOL    HW156662  11.812   2.780   5.767
84941SOL    HW256663  11.716   2.875   5.698
84942SOL     OW56664   7.244  11.093   5.023
84942SOL    HW156665   7.175  11.160   5.026
84942SOL    HW256666   7.232  11.049   4.940
84943SOL     OW56667  10.153   6.449  12.799
84943SOL    HW156668  10.094   6.523  12.787
84943SOL    HW256669  10.154   6.405  12.714
84944SOL     OW56670   4.736   2.182   4.720
84944SOL    HW156671   4.780   2.205   4.639
84944SOL    HW256672   4.689   2.261   4.746
84945SOL     OW56673   0.514   5.538   8.866
84945SOL    HW156674   0.460   5.615   8.844
84945SOL    HW256675   0.473   5.466   8.818
84946SOL     OW56676   5.104   4.435   1.566
84946SOL    HW156677   5.111   4.529   1.581
84946SOL    HW256678   5.014   4.413   1.593
84947SOL     OW56679  12.329  11.475   9.022
84947SOL    HW156680  12.405  11.436   9.066
84947SOL    HW256681  12.295  11.404   8.966
84948SOL     OW56682   4.660   7.791   6.399
84948SOL    HW156683   4.730   7.729   6.379
84948SOL    HW256684   4.579   7.743   6.382
84949SOL     OW56685   6.258   1.930   3.145
84949SOL    HW156686   6.330   1.901   3.202
84949SOL    HW256687   6.244   2.022   3.167
84950SOL     OW56688   1.090   6.617  12.450
84950SOL    HW156689   1.020   6.625  12.515
84950SOL    HW256690   1.044   6.610  12.366
84951SOL     OW56691   2.395  10.513   8.348
84951SOL    HW156692   2.434  10.428   8.370
84951SOL    HW256693   2.308  10.491   8.314
84952SOL     OW56694   6.760   8.254   1.279
84952SOL    HW156695   6.695   8.314   1.314
84952SOL    HW256696   6.732   8.238   1.189
84953SOL     OW56697  12.156   1.627   4.984
84953SOL    HW156698  12.130   1.661   4.898
84953SOL    HW256699  12.074   1.610   5.029
84954SOL     OW56700   2.600  13.814  13.667
84954SOL    HW156701   2.674  13.875  13.675
84954SOL    HW256702   2.532  13.864  13.622
84955SOL     OW56703   7.892   5.494   3.248
84955SOL    HW156704   7.878   5.404   3.219
84955SOL    HW256705   7.975   5.492   3.294
84956SOL     OW56706   2.784   0.282  14.224
84956SOL    HW156707   2.785   0.377  14.220
84956SOL    HW256708   2.721   0.262  14.294
84957SOL     OW56709  11.523   2.214   3.214
84957SOL    HW156710  11.447   2.157   3.203
84957SOL    HW256711  11.569   2.210   3.130
84958SOL     OW56712   4.724   1.562  14.497
84958SOL    HW156713   4.736   1.650  14.461
84958SOL    HW256714   4.785   1.558  14.571
84959SOL     OW56715   8.116   4.987   7.165
84959SOL    HW156716   8.087   4.939   7.242
84959SOL    HW256717   8.198   4.945   7.140
84960SOL     OW56718  11.544   1.672  14.389
84960SOL    HW156719  11.535   1.757  14.431
84960SOL    HW256720  11.618   1.631  14.434
84961SOL     OW56721   1.327  10.805   7.786
84961SOL    HW156722   1.276  10.737   7.742
84961SOL    HW256723   1.293  10.807   7.876
84962SOL     OW56724   5.162   0.489  14.087
84962SOL    HW156725   5.088   0.429  14.089
84962SOL    HW256726   5.234   0.440  14.128
84963SOL     OW56727   9.819   6.208   0.431
84963SOL    HW156728   9.826   6.148   0.357
84963SOL    HW256729   9.886   6.274   0.415
84964SOL     OW56730  14.514   0.594  13.391
84964SOL    HW156731  14.574   0.633  13.455
84964SOL    HW256732  14.436   0.649  13.394
84965SOL     OW56733   4.851   7.800   9.946
84965SOL    HW156734   4.824   7.714   9.915
84965SOL    HW256735   4.934   7.784   9.992
84966SOL     OW56736  10.666  13.536  13.289
84966SOL    HW156737  10.642  13.458  13.240
84966SOL    HW256738  10.584  13.565  13.330
84967SOL     OW56739  12.497  10.515  11.907
84967SOL    HW156740  12.537  10.558  11.982
84967SOL    HW256741  12.502  10.422  11.926
84968SOL     OW56742  10.032   2.860   8.591
84968SOL    HW156743  10.106   2.855   8.530
84968SOL    HW256744   9.967   2.912   8.544
84969SOL     OW56745   2.567   0.697   8.627
84969SOL    HW156746   2.653   0.655   8.629
84969SOL    HW256747   2.532   0.683   8.715
84970SOL     OW56748   7.915  12.520  13.215
84970SOL    HW156749   7.834  12.475  13.189
84970SOL    HW256750   7.916  12.599  13.161
84971SOL     OW56751   0.658   9.632   3.386
84971SOL    HW156752   0.675   9.669   3.473
84971SOL    HW256753   0.606   9.553   3.404
84972SOL     OW56754  11.297   5.609   5.521
84972SOL    HW156755  11.356   5.669   5.475
84972SOL    HW256756  11.220   5.602   5.465
84973SOL     OW56757   9.497  13.854  11.927
84973SOL    HW156758   9.589  13.849  11.955
84973SOL    HW256759   9.499  13.905  11.846
84974SOL     OW56760  11.319   6.326   5.821
84974SOL    HW156761  11.268   6.246   5.820
84974SOL    HW256762  11.347   6.339   5.731
84975SOL     OW56763   0.155   6.486   6.659
84975SOL    HW156764   0.076   6.527   6.695
84975SOL    HW256765   0.125   6.442   6.580
84976SOL     OW56766   3.520   6.937   6.955
84976SOL    HW156767   3.484   6.945   7.043
84976SOL    HW256768   3.467   6.868   6.914
84977SOL     OW56769   6.671   1.983  12.671
84977SOL    HW156770   6.680   1.952  12.581
84977SOL    HW256771   6.741   1.937  12.719
84978SOL     OW56772   2.384   8.676   3.843
84978SOL    HW156773   2.308   8.641   3.797
84978SOL    HW256774   2.354   8.759   3.880
84979SOL     OW56775   4.923   1.751   2.304
84979SOL    HW156776   4.946   1.688   2.373
84979SOL    HW256777   4.907   1.833   2.351
84980SOL     OW56778  11.265   8.681  11.841
84980SOL    HW156779  11.361   8.687  11.834
84980SOL    HW256780  11.241   8.750  11.903
84981SOL     OW56781   9.207   7.571   6.701
84981SOL    HW156782   9.250   7.566   6.786
84981SOL    HW256783   9.254   7.509   6.646
84982SOL     OW56784  13.098   9.115   1.813
84982SOL    HW156785  13.075   9.048   1.878
84982SOL    HW256786  13.078   9.198   1.855
84983SOL     OW56787   4.212  13.171  13.124
84983SOL    HW156788   4.163  13.126  13.055
84983SOL    HW256789   4.170  13.257  13.130
84984SOL     OW56790  10.855   7.010   6.243
84984SOL    HW156791  10.905   6.936   6.209
84984SOL    HW256792  10.846   7.069   6.168
84985SOL     OW56793   6.172   7.018   8.979
84985SOL    HW156794   6.122   7.096   8.951
84985SOL    HW256795   6.262   7.050   8.986
84986SOL     OW56796  10.886  11.006  14.123
84986SOL    HW156797  10.917  10.921  14.155
84986SOL    HW256798  10.943  11.069  14.166
84987SOL     OW56799  13.339   3.284  10.623
84987SOL    HW156800  13.363   3.310  10.712
84987SOL    HW256801  13.307   3.194  10.632
84988SOL     OW56802  12.749   4.914   1.063
84988SOL    HW156803  12.696   4.968   1.005
84988SOL    HW256804  12.824   4.969   1.086
84989SOL     OW56805   3.783   9.836   4.818
84989SOL    HW156806   3.692   9.808   4.817
84989SOL    HW256807   3.830   9.770   4.767
84990SOL     OW56808   9.238  13.737   6.450
84990SOL    HW156809   9.182  13.701   6.382
84990SOL    HW256810   9.303  13.669   6.466
84991SOL     OW56811  12.755  14.351  14.176
84991SOL    HW156812  12.678  14.317  14.130
84991SOL    HW256813  12.824  14.287  14.156
84992SOL     OW56814  14.802   8.747   5.872
84992SOL    HW156815  14.862   8.681   5.837
84992SOL    HW256816  14.750   8.700   5.936
84993SOL     OW56817   5.937   3.844   2.848
84993SOL    HW156818   5.858   3.835   2.902
84993SOL    HW256819   5.938   3.936   2.823
84994SOL     OW56820   0.373   7.074   6.312
84994SOL    HW156821   0.368   7.148   6.251
84994SOL    HW256822   0.457   7.033   6.292
84995SOL     OW56823   1.002   7.341   4.993
84995SOL    HW156824   0.962   7.355   5.079
84995SOL    HW256825   1.090   7.377   5.001
84996SOL     OW56826   9.183   0.772   0.931
84996SOL    HW156827   9.229   0.856   0.935
84996SOL    HW256828   9.252   0.707   0.922
84997SOL     OW56829   2.979  12.371   1.628
84997SOL    HW156830   3.056  12.376   1.571
84997SOL    HW256831   2.916  12.430   1.588
84998SOL     OW56832  11.732   5.522   8.814
84998SOL    HW156833  11.792   5.596   8.807
84998SOL    HW256834  11.651   5.553   8.774
84999SOL     OW56835  12.614   5.493   6.902
84999SOL    HW156836  12.522   5.485   6.876
84999SOL    HW256837  12.662   5.491   6.819
85000SOL     OW56838   8.703   9.321  14.530
85000SOL    HW156839   8.797   9.342  14.530
85000SOL    HW256840   8.688   9.279  14.445
85001SOL     OW56841   9.557   2.282  14.571
85001SOL    HW156842   9.613   2.359  14.576
85001SOL    HW256843   9.478   2.313  14.526
85002SOL     OW56844   5.939   0.656   1.517
85002SOL    HW156845   5.901   0.573   1.488
85002SOL    HW256846   6.033   0.646   1.501
85003SOL     OW56847   2.748   4.031  11.522
85003SOL    HW156848   2.750   4.018  11.427
85003SOL    HW256849   2.693   4.108  11.534
85004SOL     OW56850  13.693  14.378   9.606
85004SOL    HW156851  13.602  14.348   9.611
85004SOL    HW256852  13.714  14.375   9.513
85005SOL     OW56853   0.178   9.893   2.316
85005SOL    HW156854   0.199   9.986   2.319
85005SOL    HW256855   0.082   9.890   2.316
85006SOL     OW56856   0.020   6.774   5.508
85006SOL    HW156857   0.111   6.784   5.480
85006SOL    HW256858   0.026   6.766   5.604
85007SOL     OW56859   4.129  10.971   0.220
85007SOL    HW156860   4.114  10.953   0.312
85007SOL    HW256861   4.114  10.888   0.176
85008SOL     OW56862   0.777   0.545   2.922
85008SOL    HW156863   0.685   0.562   2.937
85008SOL    HW256864   0.819   0.560   3.007
85009SOL     OW56865   9.404   8.350   2.265
85009SOL    HW156866   9.445   8.274   2.305
85009SOL    HW256867   9.458   8.424   2.293
85010SOL     OW56868   4.147  11.403   1.845
85010SOL    HW156869   4.226  11.441   1.882
85010SOL    HW256870   4.148  11.430   1.753
85011SOL     OW56871   9.921   9.053  12.130
85011SOL    HW156872   9.835   9.051  12.173
85011SOL    HW256873   9.949   9.144  12.136
85012SOL     OW56874   9.197   9.332   8.517
85012SOL    HW156875   9.259   9.275   8.471
85012SOL    HW256876   9.111   9.299   8.492
85013SOL     OW56877  12.588   3.965   1.813
85013SOL    HW156878  12.495   3.943   1.814
85013SOL    HW256879  12.595   4.033   1.746
85014SOL     OW56880   9.955  14.710   5.757
85014SOL    HW156881   9.888  14.744   5.697
85014SOL    HW256882  10.005  14.787   5.783
85015SOL     OW56883  12.657   7.164   8.560
85015SOL    HW156884  12.576   7.177   8.609
85015SOL    HW256885  12.712   7.111   8.618
85016SOL     OW56886  12.190   0.290   8.564
85016SOL    HW156887  12.165   0.381   8.578
85016SOL    HW256888  12.284   0.288   8.582
85017SOL     OW56889   4.531   4.650   8.918
85017SOL    HW156890   4.524   4.659   8.823
85017SOL    HW256891   4.512   4.558   8.935
85018SOL     OW56892   8.192   3.263   9.299
85018SOL    HW156893   8.145   3.337   9.338
85018SOL    HW256894   8.284   3.278   9.321
85019SOL     OW56895  11.540   8.155  14.173
85019SOL    HW156896  11.629   8.171  14.143
85019SOL    HW256897  11.550   8.114  14.259
85020SOL     OW56898  13.973   1.999   2.600
85020SOL    HW156899  14.030   2.076   2.599
85020SOL    HW256900  13.888   2.033   2.626
85021SOL     OW56901   3.103   9.013  12.314
85021SOL    HW156902   3.171   9.049  12.371
85021SOL    HW256903   3.043   8.969  12.374
85022SOL     OW56904   1.276  11.182   2.010
85022SOL    HW156905   1.266  11.155   1.919
85022SOL    HW256906   1.237  11.112   2.061
85023SOL     OW56907   8.536   5.568  12.394
85023SOL    HW156908   8.573   5.535  12.312
85023SOL    HW256909   8.487   5.646  12.368
85024SOL     OW56910  13.907  11.811   4.719
85024SOL    HW156911  13.919  11.742   4.785
85024SOL    HW256912  13.979  11.872   4.734
85025SOL     OW56913   0.597  10.470  11.573
85025SOL    HW156914   0.618  10.379  11.592
85025SOL    HW256915   0.510  10.467  11.534
85026SOL     OW56916  12.278  14.784   4.963
85026SOL    HW156917  12.335  14.855   4.934
85026SOL    HW256918  12.233  14.820   5.040
85027SOL     OW56919   3.915   9.259   3.604
85027SOL    HW156920   3.981   9.326   3.585
85027SOL    HW256921   3.870   9.292   3.682
85028SOL     OW56922   4.684   2.107   8.605
85028SOL    HW156923   4.607   2.117   8.661
85028SOL    HW256924   4.649   2.080   8.520
85029SOL     OW56925   3.110  13.595  12.450
85029SOL    HW156926   3.181  13.560  12.396
85029SOL    HW256927   3.068  13.517  12.488
85030SOL     OW56928   7.855   5.014  13.443
85030SOL    HW156929   7.764   5.023  13.473
85030SOL    HW256930   7.907   5.060  13.509
85031SOL     OW56931  12.807  14.186   6.592
85031SOL    HW156932  12.902  14.184   6.581
85031SOL    HW256933  12.778  14.259   6.538
85032SOL     OW56934  12.188  14.018  14.122
85032SOL    HW156935  12.190  14.017  14.218
85032SOL    HW256936  12.099  14.046  14.100
85033SOL     OW56937   5.087   9.539   7.254
85033SOL    HW156938   5.093   9.580   7.168
85033SOL    HW256939   5.171   9.559   7.296
85034SOL     OW56940   9.881  10.254   1.276
85034SOL    HW156941   9.959  10.237   1.328
85034SOL    HW256942   9.855  10.343   1.299
85035SOL     OW56943  13.912  12.736   3.248
85035SOL    HW156944  13.949  12.702   3.166
85035SOL    HW256945  13.858  12.665   3.281
85036SOL     OW56946  14.500  14.181   3.034
85036SOL    HW156947  14.466  14.104   3.080
85036SOL    HW256948  14.441  14.252   3.061
85037SOL     OW56949   9.047  13.071   0.132
85037SOL    HW156950   9.096  12.990   0.145
85037SOL    HW256951   9.080  13.105   0.048
85038SOL     OW56952  11.995  10.554   6.167
85038SOL    HW156953  11.920  10.497   6.149
85038SOL    HW256954  11.971  10.601   6.247
85039SOL     OW56955   1.922   3.251  12.091
85039SOL    HW156956   1.987   3.184  12.068
85039SOL    HW256957   1.912   3.303  12.011
85040SOL     OW56958   6.425   6.022   6.108
85040SOL    HW156959   6.399   6.113   6.119
85040SOL    HW256960   6.361   5.972   6.159
85041SOL     OW56961   4.879   9.149   1.111
85041SOL    HW156962   4.832   9.175   1.031
85041SOL    HW256963   4.963   9.194   1.104
85042SOL     OW56964   8.909  10.327   3.927
85042SOL    HW156965   8.837  10.389   3.929
85042SOL    HW256966   8.868  10.242   3.942
85043SOL     OW56967  11.058   9.397  13.290
85043SOL    HW156968  11.056   9.400  13.194
85043SOL    HW256969  11.024   9.310  13.312
85044SOL     OW56970   9.232   7.942   6.406
85044SOL    HW156971   9.263   7.887   6.477
85044SOL    HW256972   9.141   7.913   6.391
85045SOL     OW56973   8.611   3.304   2.537
85045SOL    HW156974   8.521   3.328   2.558
85045SOL    HW256975   8.604   3.253   2.456
85046SOL     OW56976   8.636  14.600   2.602
85046SOL    HW156977   8.601  14.672   2.655
85046SOL    HW256978   8.559  14.563   2.558
85047SOL     OW56979   9.731  10.024   5.699
85047SOL    HW156980   9.693   9.982   5.776
85047SOL    HW256981   9.817  10.054   5.727
85048SOL     OW56982  10.900   2.089   0.470
85048SOL    HW156983  10.952   2.155   0.424
85048SOL    HW256984  10.965   2.033   0.513
85049SOL     OW56985  11.808  14.216   6.090
85049SOL    HW156986  11.859  14.214   6.009
85049SOL    HW256987  11.718  14.227   6.061
85050SOL     OW56988   0.464   8.254  11.018
85050SOL    HW156989   0.376   8.293  11.018
85050SOL    HW256990   0.503   8.283  11.101
85051SOL     OW56991   5.752   0.425   6.113
85051SOL    HW156992   5.789   0.343   6.145
85051SOL    HW256993   5.820   0.461   6.056
85052SOL     OW56994  14.692   1.643   6.638
85052SOL    HW156995  14.626   1.610   6.699
85052SOL    HW256996  14.641   1.691   6.572
85053SOL     OW56997  10.390   9.282   3.152
85053SOL    HW156998  10.458   9.336   3.110
85053SOL    HW256999  10.318   9.343   3.166
85054SOL     OW57000   2.883   2.303   4.590
85054SOL    HW157001   2.935   2.328   4.666
85054SOL    HW257002   2.913   2.363   4.521
85055SOL     OW57003   9.757   8.319  13.611
85055SOL    HW157004   9.684   8.266  13.641
85055SOL    HW257005   9.729   8.355  13.527
85056SOL     OW57006   6.853   1.113   6.221
85056SOL    HW157007   6.922   1.047   6.234
85056SOL    HW257008   6.901   1.192   6.196
85057SOL     OW57009   1.491  14.340   3.808
85057SOL    HW157010   1.504  14.274   3.876
85057SOL    HW257011   1.556  14.408   3.827
85058SOL     OW57012  11.691   6.942   9.860
85058SOL    HW157013  11.668   6.872   9.798
85058SOL    HW257014  11.718   7.015   9.804
85059SOL     OW57015   3.485   0.411   2.585
85059SOL    HW157016   3.496   0.466   2.507
85059SOL    HW257017   3.567   0.421   2.633
85060SOL     OW57018   1.704   0.648  14.652
85060SOL    HW157019   1.628   0.706  14.644
85060SOL    HW257020   1.760   0.692  14.715
85061SOL     OW57021  11.736  12.636   6.416
85061SOL    HW157022  11.800  12.666   6.352
85061SOL    HW257023  11.787  12.618   6.494
85062SOL     OW57024  12.454  12.488   7.274
85062SOL    HW157025  12.406  12.405   7.269
85062SOL    HW257026  12.545  12.465   7.255
85063SOL     OW57027  10.742   9.667   3.288
85063SOL    HW157028  10.757   9.746   3.235
85063SOL    HW257029  10.826   9.620   3.284
85064SOL     OW57030   3.698   8.959  10.765
85064SOL    HW157031   3.606   8.984  10.775
85064SOL    HW257032   3.717   8.906  10.843
85065SOL     OW57033   2.082   8.627   4.133
85065SOL    HW157034   2.014   8.586   4.187
85065SOL    HW257035   2.155   8.642   4.194
85066SOL     OW57036  14.314  10.999   6.712
85066SOL    HW157037  14.335  11.028   6.623
85066SOL    HW257038  14.364  10.918   6.723
85067SOL     OW57039  13.835   6.939   8.696
85067SOL    HW157040  13.894   6.863   8.696
85067SOL    HW257041  13.819   6.957   8.788
85068SOL     OW57042   7.265   8.529  13.147
85068SOL    HW157043   7.316   8.522  13.066
85068SOL    HW257044   7.310   8.595  13.199
85069SOL     OW57045   1.917   2.085  10.343
85069SOL    HW157046   1.945   2.005  10.298
85069SOL    HW257047   1.934   2.068  10.436
85070SOL     OW57048  12.199   2.745   3.180
85070SOL    HW157049  12.283   2.701   3.197
85070SOL    HW257050  12.204   2.770   3.087
85071SOL     OW57051  13.711  14.713   5.086
85071SOL    HW157052  13.719  14.734   5.179
85071SOL    HW257053  13.745  14.790   5.041
85072SOL     OW57054   7.860   4.055   8.220
85072SOL    HW157055   7.810   4.115   8.275
85072SOL    HW257056   7.941   4.040   8.268
85073SOL     OW57057   8.481   7.897   2.959
85073SOL    HW157058   8.390   7.903   2.989
85073SOL    HW257059   8.479   7.833   2.888
85074SOL     OW57060   0.279  14.046  13.229
85074SOL    HW157061   0.342  14.115  13.249
85074SOL    HW257062   0.197  14.092  13.211
85075SOL     OW57063  11.960   7.237  10.025
85075SOL    HW157064  11.869   7.226   9.998
85075SOL    HW257065  11.994   7.307   9.971
85076SOL     OW57066   7.005   2.625   9.457
85076SOL    HW157067   7.100   2.636   9.457
85076SOL    HW257068   6.992   2.531   9.446
85077SOL     OW57069   5.907   8.846  13.437
85077SOL    HW157070   5.944   8.785  13.500
85077SOL    HW257071   5.978   8.863  13.375
85078SOL     OW57072   4.886   0.023   8.925
85078SOL    HW157073   4.822  14.868   8.859
85078SOL    HW257074   4.839   0.087   8.978
85079SOL     OW57075  13.367  10.560  10.202
85079SOL    HW157076  13.443  10.617  10.214
85079SOL    HW257077  13.399  10.489  10.146
85080SOL     OW57078   9.767   7.894  10.948
85080SOL    HW157079   9.738   7.829  10.885
85080SOL    HW257080   9.826   7.846  11.007
85081SOL     OW57081   4.737   6.359  10.295
85081SOL    HW157082   4.781   6.279  10.321
85081SOL    HW257083   4.783   6.429  10.341
85082SOL     OW57084  10.841  10.757   0.522
85082SOL    HW157085  10.746  10.769   0.518
85082SOL    HW257086  10.875  10.817   0.454
85083SOL     OW57087   3.589   6.031  10.046
85083SOL    HW157088   3.510   5.979  10.031
85083SOL    HW257089   3.567   6.086  10.122
85084SOL     OW57090  11.560   5.836   8.283
85084SOL    HW157091  11.562   5.811   8.376
85084SOL    HW257092  11.644   5.879   8.268
85085SOL     OW57093  12.557   2.008   3.544
85085SOL    HW157094  12.641   1.977   3.510
85085SOL    HW257095  12.520   2.060   3.472
85086SOL     OW57096   2.133   2.077   9.107
85086SOL    HW157097   2.081   1.997   9.103
85086SOL    HW257098   2.190   2.066   9.183
85087SOL     OW57099  14.536   9.938   4.803
85087SOL    HW157100  14.507   9.915   4.891
85087SOL    HW257101  14.458   9.972   4.760
85088SOL     OW57102  12.309  14.307  14.576
85088SOL    HW157103  12.215  14.319  14.589
85088SOL    HW257104  12.349  14.376  14.628
85089SOL     OW57105  11.149   9.913   0.516
85089SOL    HW157106  11.236   9.950   0.505
85089SOL    HW257107  11.089   9.984   0.494
85090SOL     OW57108   3.603  13.505   7.913
85090SOL    HW157109   3.546  13.483   7.987
85090SOL    HW257110   3.657  13.577   7.945
85091SOL     OW57111   0.075   3.216   0.315
85091SOL    HW157112   0.167   3.241   0.305
85091SOL    HW257113   0.067   3.134   0.268
85092SOL     OW57114  12.035  12.911   5.289
85092SOL    HW157115  12.128  12.934   5.279
85092SOL    HW257116  11.990  12.995   5.294
85093SOL     OW57117   5.179   2.247  12.170
85093SOL    HW157118   5.265   2.277  12.201
85093SOL    HW257119   5.149   2.186  12.237
85094SOL     OW57120   4.060   7.563   3.091
85094SOL    HW157121   4.104   7.640   3.055
85094SOL    HW257122   4.065   7.574   3.186
85095SOL     OW57123   2.687   0.825  14.036
85095SOL    HW157124   2.656   0.915  14.046
85095SOL    HW257125   2.779   0.834  14.014
85096SOL     OW57126   4.161  12.712   5.344
85096SOL    HW157127   4.241  12.713   5.292
85096SOL    HW257128   4.123  12.626   5.328
85097SOL     OW57129   6.228   6.917   4.501
85097SOL    HW157130   6.260   6.971   4.429
85097SOL    HW257131   6.133   6.921   4.494
85098SOL     OW57132   1.234   0.496   2.549
85098SOL    HW157133   1.234   0.490   2.644
85098SOL    HW257134   1.142   0.505   2.525
85099SOL     OW57135   3.195   7.560  12.115
85099SOL    HW157136   3.173   7.641  12.162
85099SOL    HW257137   3.113   7.512  12.112
85100SOL     OW57138  10.155  11.422  12.861
85100SOL    HW157139  10.176  11.329  12.854
85100SOL    HW257140  10.159  11.440  12.955
85101SOL     OW57141  14.761   4.250   6.428
85101SOL    HW157142  14.811   4.286   6.502
85101SOL    HW257143  14.670   4.266   6.451
85102SOL     OW57144  10.183  11.156   3.242
85102SOL    HW157145  10.193  11.136   3.335
85102SOL    HW257146  10.191  11.071   3.198
85103SOL     OW57147  10.054   5.685   6.869
85103SOL    HW157148  10.039   5.779   6.882
85103SOL    HW257149  10.132   5.681   6.814
85104SOL     OW57150   2.996   4.404   2.882
85104SOL    HW157151   2.957   4.441   2.802
85104SOL    HW257152   2.921   4.393   2.941
85105SOL     OW57153  13.152   6.379   7.871
85105SOL    HW157154  13.151   6.474   7.873
85105SOL    HW257155  13.060   6.354   7.871
85106SOL     OW57156   3.388  13.996   7.613
85106SOL    HW157157   3.442  13.994   7.533
85106SOL    HW257158   3.300  14.018   7.582
85107SOL     OW57159   9.320  14.000   9.163
85107SOL    HW157160   9.333  14.046   9.246
85107SOL    HW257161   9.285  14.067   9.104
85108SOL     OW57162  14.218  12.760  14.154
85108SOL    HW157163  14.264  12.798  14.079
85108SOL    HW257164  14.187  12.675  14.123
85109SOL     OW57165   3.827   3.373   3.992
85109SOL    HW157166   3.838   3.424   4.072
85109SOL    HW257167   3.845   3.435   3.921
85110SOL     OW57168   7.464   9.386  12.425
85110SOL    HW157169   7.424   9.349  12.347
85110SOL    HW257170   7.417   9.346  12.498
85111SOL     OW57171  13.990   8.020   8.978
85111SOL    HW157172  13.972   8.110   8.952
85111SOL    HW257173  13.915   7.970   8.947
85112SOL     OW57174   3.839   2.161  12.655
85112SOL    HW157175   3.884   2.132  12.575
85112SOL    HW257176   3.887   2.239  12.683
85113SOL     OW57177   2.328  11.136  13.882
85113SOL    HW157178   2.380  11.189  13.822
85113SOL    HW257179   2.242  11.180  13.884
85114SOL     OW57180  11.049   9.602  12.203
85114SOL    HW157181  11.053   9.561  12.117
85114SOL    HW257182  11.135   9.587  12.242
85115SOL     OW57183   5.621   5.036  11.296
85115SOL    HW157184   5.689   4.980  11.335
85115SOL    HW257185   5.633   5.121  11.338
85116SOL     OW57186  14.262   0.994  12.573
85116SOL    HW157187  14.324   1.067  12.571
85116SOL    HW257188  14.298   0.931  12.511
85117SOL     OW57189   2.350   7.687  14.728
85117SOL    HW157190   2.354   7.679  14.823
85117SOL    HW257191   2.302   7.768  14.712
85118SOL     OW57192  13.848   6.154  10.273
85118SOL    HW157193  13.857   6.237  10.318
85118SOL    HW257194  13.881   6.089  10.335
85119SOL     OW57195  14.747   4.963  11.354
85119SOL    HW157196  14.739   5.018  11.433
85119SOL    HW257197  14.840   4.943  11.349
85120SOL     OW57198  11.695   4.375  14.491
85120SOL    HW157199  11.667   4.382  14.582
85120SOL    HW257200  11.624   4.327  14.448
85121SOL     OW57201   1.932   8.526  10.326
85121SOL    HW157202   2.005   8.566  10.279
85121SOL    HW257203   1.974   8.466  10.387
85122SOL     OW57204  13.847   6.223  12.842
85122SOL    HW157205  13.903   6.175  12.903
85122SOL    HW257206  13.853   6.314  12.871
85123SOL     OW57207   9.884  12.744   5.139
85123SOL    HW157208   9.954  12.788   5.091
85123SOL    HW257209   9.869  12.663   5.089
85124SOL     OW57210   1.555   1.942   8.454
85124SOL    HW157211   1.573   1.906   8.541
85124SOL    HW257212   1.471   1.986   8.463
85125SOL     OW57213  14.299  13.888   0.310
85125SOL    HW157214  14.225  13.928   0.266
85125SOL    HW257215  14.262  13.851   0.390
85126SOL     OW57216   6.812   3.131   7.078
85126SOL    HW157217   6.857   3.055   7.041
85126SOL    HW257218   6.779   3.179   7.002
85127SOL     OW57219  12.937   7.162  14.408
85127SOL    HW157220  13.015   7.211  14.432
85127SOL    HW257221  12.864   7.218  14.433
85128SOL     OW57222   3.866  11.291   5.303
85128SOL    HW157223   3.854  11.266   5.395
85128SOL    HW257224   3.778  11.301   5.269
85129SOL     OW57225   6.442  11.751   3.810
85129SOL    HW157226   6.512  11.776   3.751
85129SOL    HW257227   6.484  11.695   3.876
85130SOL     OW57228   7.158   1.563   2.054
85130SOL    HW157229   7.188   1.652   2.071
85130SOL    HW257230   7.227   1.507   2.089
85131SOL     OW57231   7.238   7.738  13.517
85131SOL    HW157232   7.231   7.753  13.611
85131SOL    HW257233   7.210   7.647  13.505
85132SOL     OW57234   2.734   2.407   6.295
85132SOL    HW157235   2.670   2.432   6.229
85132SOL    HW257236   2.815   2.395   6.245
85133SOL     OW57237   4.517   9.006   3.063
85133SOL    HW157238   4.600   9.050   3.083
85133SOL    HW257239   4.542   8.931   3.010
85134SOL     OW57240   0.916   3.800   5.144
85134SOL    HW157241   0.914   3.761   5.231
85134SOL    HW257242   0.983   3.869   5.150
85135SOL     OW57243   8.008  11.634   8.030
85135SOL    HW157244   8.040  11.723   8.015
85135SOL    HW257245   7.980  11.633   8.121
85136SOL     OW57246   2.070   3.984  14.171
85136SOL    HW157247   2.055   4.078  14.185
85136SOL    HW257248   2.051   3.944  14.255
85137SOL     OW57249   2.690   5.120   4.572
85137SOL    HW157250   2.694   5.139   4.666
85137SOL    HW257251   2.622   5.178   4.539
85138SOL     OW57252   3.094  13.574   3.495
85138SOL    HW157253   3.045  13.532   3.424
85138SOL    HW257254   3.051  13.545   3.575
85139SOL     OW57255  11.468   2.052  13.637
85139SOL    HW157256  11.484   2.004  13.718
85139SOL    HW257257  11.500   2.141  13.656
85140SOL     OW57258   8.672   1.409   8.012
85140SOL    HW157259   8.737   1.430   7.945
85140SOL    HW257260   8.710   1.443   8.093
85141SOL     OW57261   6.823  12.566   6.036
85141SOL    HW157262   6.844  12.656   6.061
85141SOL    HW257263   6.878  12.550   5.959
85142SOL     OW57264   1.538   6.630   3.259
85142SOL    HW157265   1.489   6.618   3.340
85142SOL    HW257266   1.630   6.628   3.286
85143SOL     OW57267   2.024   9.311   0.674
85143SOL    HW157268   1.975   9.393   0.683
85143SOL    HW257269   2.007   9.264   0.756
85144SOL     OW57270  10.033  14.573   8.634
85144SOL    HW157271   9.944  14.552   8.664
85144SOL    HW257272  10.030  14.666   8.614
85145SOL     OW57273   0.927   7.117  12.153
85145SOL    HW157274   0.871   7.064  12.096
85145SOL    HW257275   0.887   7.204  12.151
85146SOL     OW57276   9.798  10.202  12.848
85146SOL    HW157277   9.784  10.111  12.873
85146SOL    HW257278   9.885  10.223  12.882
85147SOL     OW57279   6.928  14.106   7.671
85147SOL    HW157280   6.957  14.028   7.718
85147SOL    HW257281   7.000  14.125   7.610
85148SOL     OW57282  12.509   8.716   0.418
85148SOL    HW157283  12.494   8.627   0.385
85148SOL    HW257284  12.528   8.704   0.511
85149SOL     OW57285   2.117  13.122   4.738
85149SOL    HW157286   2.097  13.189   4.804
85149SOL    HW257287   2.064  13.147   4.662
85150SOL     OW57288   1.757   4.472   5.697
85150SOL    HW157289   1.668   4.494   5.670
85150SOL    HW257290   1.777   4.531   5.770
85151SOL     OW57291   6.913   2.749   8.259
85151SOL    HW157292   6.918   2.658   8.289
85151SOL    HW257293   6.952   2.800   8.330
85152SOL     OW57294  13.300   5.954  13.876
85152SOL    HW157295  13.317   6.023  13.940
85152SOL    HW257296  13.262   5.999  13.801
85153SOL     OW57297   7.176   9.905   5.968
85153SOL    HW157298   7.191   9.840   6.036
85153SOL    HW257299   7.207   9.987   6.006
85154SOL     OW57300   3.392  13.253   9.218
85154SOL    HW157301   3.474  13.235   9.173
85154SOL    HW257302   3.324  13.242   9.151
85155SOL     OW57303   6.544  10.404   2.124
85155SOL    HW157304   6.567  10.486   2.080
85155SOL    HW257305   6.450  10.393   2.108
85156SOL     OW57306   2.778   6.768   8.199
85156SOL    HW157307   2.788   6.677   8.171
85156SOL    HW257308   2.748   6.814   8.121
85157SOL     OW57309   3.709  12.805   1.744
85157SOL    HW157310   3.743  12.890   1.715
85157SOL    HW257311   3.704  12.753   1.664
85158SOL     OW57312   8.218   4.601   0.727
85158SOL    HW157313   8.184   4.627   0.813
85158SOL    HW257314   8.149   4.627   0.665
85159SOL     OW57315   7.068   2.280   8.001
85159SOL    HW157316   6.976   2.285   8.029
85159SOL    HW257317   7.067   2.309   7.910
85160SOL     OW57318   3.975   7.502   8.766
85160SOL    HW157319   4.040   7.514   8.834
85160SOL    HW257320   3.892   7.492   8.813
85161SOL     OW57321   7.266   2.098   9.930
85161SOL    HW157322   7.328   2.153   9.978
85161SOL    HW257323   7.285   2.009   9.961
85162SOL     OW57324   9.943   3.136  13.734
85162SOL    HW157325   9.914   3.222  13.764
85162SOL    HW257326   9.906   3.075  13.798
85163SOL     OW57327   4.391  12.372   0.241
85163SOL    HW157328   4.416  12.437   0.307
85163SOL    HW257329   4.411  12.413   0.157
85164SOL     OW57330   4.402  12.943   0.996
85164SOL    HW157331   4.372  13.027   1.032
85164SOL    HW257332   4.435  12.895   1.072
85165SOL     OW57333  12.032   4.162  14.424
85165SOL    HW157334  12.121   4.157  14.460
85165SOL    HW257335  12.008   4.254  14.435
85166SOL     OW57336  12.271   0.602   8.161
85166SOL    HW157337  12.233   0.576   8.245
85166SOL    HW257338  12.328   0.529   8.137
85167SOL     OW57339  10.615   3.256   9.820
85167SOL    HW157340  10.671   3.312   9.873
85167SOL    HW257341  10.668   3.178   9.803
85168SOL     OW57342   3.649   8.503   1.937
85168SOL    HW157343   3.559   8.477   1.918
85168SOL    HW257344   3.645   8.544   2.023
85169SOL     OW57345   3.240   5.640   0.297
85169SOL    HW157346   3.147   5.661   0.289
85169SOL    HW257347   3.281   5.683   0.221
85170SOL     OW57348   8.327  13.717   4.558
85170SOL    HW157349   8.261  13.668   4.508
85170SOL    HW257350   8.391  13.651   4.584
85171SOL     OW57351   0.746   1.542   0.131
85171SOL    HW157352   0.787   1.492   0.060
85171SOL    HW257353   0.744   1.481   0.205
85172SOL     OW57354   4.294   7.902   2.710
85172SOL    HW157355   4.387   7.883   2.711
85172SOL    HW257356   4.259   7.848   2.639
85173SOL     OW57357   2.192   3.116   8.283
85173SOL    HW157358   2.261   3.171   8.320
85173SOL    HW257359   2.220   3.026   8.300
85174SOL     OW57360  10.530   8.583   1.266
85174SOL    HW157361  10.620   8.558   1.247
85174SOL    HW257362  10.510   8.541   1.349
85175SOL     OW57363  13.818   2.238   6.238
85175SOL    HW157364  13.910   2.241   6.265
85175SOL    HW257365  13.803   2.146   6.216
85176SOL     OW57366  10.285  10.136   7.811
85176SOL    HW157367  10.323  10.195   7.876
85176SOL    HW257368  10.227  10.192   7.759
85177SOL     OW57369   3.282   3.454   6.141
85177SOL    HW157370   3.272   3.360   6.130
85177SOL    HW257371   3.354   3.464   6.204
85178SOL     OW57372   3.909   2.498   7.108
85178SOL    HW157373   3.877   2.500   7.018
85178SOL    HW257374   3.856   2.431   7.150
85179SOL     OW57375  12.771   5.317  12.677
85179SOL    HW157376  12.759   5.256  12.605
85179SOL    HW257377  12.865   5.336  12.678
85180SOL     OW57378   5.471   6.524  10.311
85180SOL    HW157379   5.519   6.605  10.295
85180SOL    HW257380   5.500   6.465  10.241
85181SOL     OW57381   1.039   6.766  12.857
85181SOL    HW157382   1.039   6.766  12.952
85181SOL    HW257383   0.952   6.798  12.833
85182SOL     OW57384   9.048   0.231   5.643
85182SOL    HW157385   8.954   0.250   5.643
85182SOL    HW257386   9.090   0.315   5.621
85183SOL     OW57387   7.166  11.250  14.567
85183SOL    HW157388   7.245  11.247  14.512
85183SOL    HW257389   7.131  11.161  14.563
85184SOL     OW57390   9.658   3.567   0.225
85184SOL    HW157391   9.686   3.654   0.197
85184SOL    HW257392   9.696   3.557   0.313
85185SOL     OW57393   3.037   6.760   8.824
85185SOL    HW157394   2.985   6.832   8.788
85185SOL    HW257395   3.060   6.788   8.913
85186SOL     OW57396  10.046   8.321  12.903
85186SOL    HW157397  10.138   8.294  12.902
85186SOL    HW257398   9.997   8.239  12.896
85187SOL     OW57399   4.995   4.881   3.771
85187SOL    HW157400   5.063   4.838   3.824
85187SOL    HW257401   4.913   4.853   3.812
85188SOL     OW57402  10.819   2.876   1.144
85188SOL    HW157403  10.726   2.872   1.164
85188SOL    HW257404  10.823   2.890   1.049
85189SOL     OW57405  10.617   4.800   3.021
85189SOL    HW157406  10.685   4.739   2.993
85189SOL    HW257407  10.547   4.744   3.055
85190SOL     OW57408   2.753   9.920  10.567
85190SOL    HW157409   2.772  10.011  10.591
85190SOL    HW257410   2.820   9.897  10.503
85191SOL     OW57411  11.259  12.024  12.685
85191SOL    HW157412  11.278  11.931  12.667
85191SOL    HW257413  11.170  12.036  12.652
85192SOL     OW57414   6.478   2.402   3.941
85192SOL    HW157415   6.461   2.496   3.946
85192SOL    HW257416   6.507   2.378   4.029
85193SOL     OW57417  12.732   0.593   7.525
85193SOL    HW157418  12.816   0.554   7.499
85193SOL    HW257419  12.675   0.579   7.449
85194SOL     OW57420   1.987  14.791   3.241
85194SOL    HW157421   1.943  14.718   3.197
85194SOL    HW257422   2.047  14.750   3.303
85195SOL     OW57423   3.369   8.209   2.996
85195SOL    HW157424   3.332   8.260   3.068
85195SOL    HW257425   3.369   8.118   3.027
85196SOL     OW57426   1.669  11.222  11.563
85196SOL    HW157427   1.722  11.242  11.486
85196SOL    HW257428   1.732  11.190  11.628
85197SOL     OW57429   3.298   3.961   3.498
85197SOL    HW157430   3.330   3.896   3.561
85197SOL    HW257431   3.359   3.956   3.425
85198SOL     OW57432   0.378  14.496   3.835
85198SOL    HW157433   0.418  14.413   3.811
85198SOL    HW257434   0.438  14.535   3.898
85199SOL     OW57435   6.577   3.130   5.568
85199SOL    HW157436   6.542   3.058   5.515
85199SOL    HW257437   6.556   3.106   5.658
85200SOL     OW57438   0.463  12.732   2.328
85200SOL    HW157439   0.512  12.671   2.274
85200SOL    HW257440   0.506  12.728   2.414
85201SOL     OW57441  12.567  12.865   4.805
85201SOL    HW157442  12.559  12.784   4.755
85201SOL    HW257443  12.580  12.933   4.739
85202SOL     OW57444   2.913   1.343   5.676
85202SOL    HW157445   2.911   1.427   5.630
85202SOL    HW257446   3.000   1.307   5.658
85203SOL     OW57447  12.404   4.091   6.822
85203SOL    HW157448  12.316   4.113   6.793
85203SOL    HW257449  12.407   4.119   6.913
85204SOL     OW57450   3.371   4.495   3.064
85204SOL    HW157451   3.343   4.404   3.054
85204SOL    HW257452   3.297   4.546   3.031
85205SOL     OW57453   6.573   0.472   9.302
85205SOL    HW157454   6.630   0.470   9.378
85205SOL    HW257455   6.583   0.385   9.262
85206SOL     OW57456   5.503  13.169  11.149
85206SOL    HW157457   5.509  13.225  11.071
85206SOL    HW257458   5.452  13.093  11.120
85207SOL     OW57459   5.914  10.774  14.112
85207SOL    HW157460   6.005  10.746  14.128
85207SOL    HW257461   5.863  10.693  14.115
85208SOL     OW57462  13.367   9.628  13.743
85208SOL    HW157463  13.336   9.563  13.681
85208SOL    HW257464  13.443   9.588  13.786
85209SOL     OW57465   1.922   9.169   0.145
85209SOL    HW157466   1.866   9.209   0.212
85209SOL    HW257467   1.972   9.103   0.192
85210SOL     OW57468  14.010  11.030  14.687
85210SOL    HW157469  14.004  11.088  14.764
85210SOL    HW257470  13.929  11.047  14.639
85211SOL     OW57471   7.526   7.930   8.692
85211SOL    HW157472   7.483   7.939   8.777
85211SOL    HW257473   7.594   7.864   8.706
85212SOL     OW57474   6.178   3.916   6.792
85212SOL    HW157475   6.097   3.948   6.751
85212SOL    HW257476   6.236   3.993   6.792
85213SOL     OW57477  11.961   4.129  13.492
85213SOL    HW157478  11.904   4.053  13.507
85213SOL    HW257479  11.961   4.175  13.576
85214SOL     OW57480   0.802   2.892   0.735
85214SOL    HW157481   0.772   2.966   0.683
85214SOL    HW257482   0.812   2.927   0.823
85215SOL     OW57483   6.598   1.662  11.569
85215SOL    HW157484   6.576   1.665  11.663
85215SOL    HW257485   6.643   1.744  11.552
85216SOL     OW57486  10.352   7.924  13.979
85216SOL    HW157487  10.446   7.909  13.983
85216SOL    HW257488  10.322   7.869  13.907
85217SOL     OW57489   8.917  11.410   2.991
85217SOL    HW157490   8.984  11.478   2.993
85217SOL    HW257491   8.930  11.367   2.906
85218SOL     OW57492   6.838   7.246  10.545
85218SOL    HW157493   6.765   7.284  10.594
85218SOL    HW257494   6.822   7.273  10.454
85219SOL     OW57495   8.998  13.782  12.009
85219SOL    HW157496   9.055  13.742  12.075
85219SOL    HW257497   8.931  13.827  12.060
85220SOL     OW57498  13.370   7.435   7.887
85220SOL    HW157499  13.453   7.426   7.841
85220SOL    HW257500  13.304   7.398   7.828
85221SOL     OW57501   9.252   4.922   4.136
85221SOL    HW157502   9.221   4.924   4.046
85221SOL    HW257503   9.246   4.830   4.162
85222SOL     OW57504   8.280   1.566   6.894
85222SOL    HW157505   8.225   1.610   6.959
85222SOL    HW257506   8.310   1.487   6.937
85223SOL     OW57507  14.798   5.039   4.966
85223SOL    HW157508  14.715   4.993   4.957
85223SOL    HW257509  14.850   5.012   4.890
85224SOL     OW57510  11.482   0.943  11.528
85224SOL    HW157511  11.490   0.863  11.475
85224SOL    HW257512  11.391   0.944  11.556
85225SOL     OW57513   8.748  11.473   3.671
85225SOL    HW157514   8.705  11.397   3.633
85225SOL    HW257515   8.716  11.476   3.761
85226SOL     OW57516   9.895   7.903   5.147
85226SOL    HW157517   9.870   7.918   5.238
85226SOL    HW257518   9.962   7.835   5.151
85227SOL     OW57519  13.029  11.902  14.720
85227SOL    HW157520  12.984  11.899  14.635
85227SOL    HW257521  13.084  11.824  14.720
85228SOL     OW57522   7.275   2.466  12.614
85228SOL    HW157523   7.216   2.487  12.686
85228SOL    HW257524   7.231   2.393  12.569
85229SOL     OW57525   0.211  14.180   7.524
85229SOL    HW157526   0.163  14.171   7.441
85229SOL    HW257527   0.143  14.184   7.591
85230SOL     OW57528  11.362  10.880   0.482
85230SOL    HW157529  11.271  10.902   0.503
85230SOL    HW257530  11.397  10.842   0.563
85231SOL     OW57531  11.218   8.984   4.860
85231SOL    HW157532  11.222   8.933   4.941
85231SOL    HW257533  11.229   9.075   4.888
85232SOL     OW57534   7.474  10.879   3.615
85232SOL    HW157535   7.434  10.830   3.543
85232SOL    HW257536   7.468  10.971   3.588
85233SOL     OW57537  13.319  10.108   1.365
85233SOL    HW157538  13.235  10.119   1.411
85233SOL    HW257539  13.308  10.155   1.283
85234SOL     OW57540   2.621   2.578  12.375
85234SOL    HW157541   2.671   2.500  12.399
85234SOL    HW257542   2.558   2.547  12.310
85235SOL     OW57543   8.412   5.347  14.039
85235SOL    HW157544   8.452   5.262  14.057
85235SOL    HW257545   8.438   5.367  13.949
85236SOL     OW57546   9.630   1.490   2.774
85236SOL    HW157547   9.639   1.413   2.831
85236SOL    HW257548   9.624   1.564   2.835
85237SOL     OW57549  12.608   0.621  11.422
85237SOL    HW157550  12.619   0.682  11.348
85237SOL    HW257551  12.649   0.540  11.392
85238SOL     OW57552   2.431  13.729   2.747
85238SOL    HW157553   2.518  13.754   2.779
85238SOL    HW257554   2.374  13.802   2.773
85239SOL     OW57555   3.027  14.134   1.019
85239SOL    HW157556   3.036  14.119   0.925
85239SOL    HW257557   3.117  14.135   1.052
85240SOL     OW57558   4.979   0.317   0.057
85240SOL    HW157559   4.969   0.410   0.035
85240SOL    HW257560   4.946   0.310   0.147
85241SOL     OW57561   9.097  14.301   3.586
85241SOL    HW157562   9.037  14.330   3.517
85241SOL    HW257563   9.176  14.353   3.573
85242SOL     OW57564   2.560   2.162  14.773
85242SOL    HW157565   2.544   2.193  14.862
85242SOL    HW257566   2.643   2.116  14.779
85243SOL     OW57567   0.480   5.166  10.458
85243SOL    HW157568   0.437   5.112  10.392
85243SOL    HW257569   0.573   5.160  10.436
85244SOL     OW57570   1.119   6.557  13.628
85244SOL    HW157571   1.159   6.598  13.704
85244SOL    HW257572   1.187   6.499  13.593
85245SOL     OW57573  14.009   8.166   8.609
85245SOL    HW157574  14.049   8.172   8.523
85245SOL    HW257575  13.965   8.081   8.610
85246SOL     OW57576  12.371   6.079   0.124
85246SOL    HW157577  12.330   6.045   0.044
85246SOL    HW257578  12.304   6.137   0.161
85247SOL     OW57579  12.931  13.570   1.996
85247SOL    HW157580  12.857  13.554   1.938
85247SOL    HW257581  12.924  13.662   2.020
85248SOL     OW57582   2.670   5.113   2.608
85248SOL    HW157583   2.635   5.201   2.595
85248SOL    HW257584   2.640   5.089   2.696
85249SOL     OW57585  10.173  10.313   5.846
85249SOL    HW157586  10.152  10.406   5.840
85249SOL    HW257587  10.259  10.310   5.887
85250SOL     OW57588   2.279   7.329   1.388
85250SOL    HW157589   2.325   7.267   1.445
85250SOL    HW257590   2.264   7.405   1.444
85251SOL     OW57591   1.383   7.433  11.237
85251SOL    HW157592   1.438   7.509  11.259
85251SOL    HW257593   1.305   7.471  11.196
85252SOL     OW57594   0.807   5.104   2.737
85252SOL    HW157595   0.799   5.151   2.654
85252SOL    HW257596   0.717   5.094   2.767
85253SOL     OW57597   7.716  11.458  10.158
85253SOL    HW157598   7.732  11.456  10.252
85253SOL    HW257599   7.658  11.384  10.142
85254SOL     OW57600  10.943   1.004  14.456
85254SOL    HW157601  10.974   0.913  14.457
85254SOL    HW257602  10.964   1.038  14.543
85255SOL     OW57603  11.261   1.553   5.129
85255SOL    HW157604  11.231   1.523   5.043
85255SOL    HW257605  11.265   1.648   5.122
85256SOL     OW57606   9.881   7.755   6.168
85256SOL    HW157607   9.841   7.837   6.197
85256SOL    HW257608   9.935   7.728   6.242
85257SOL     OW57609  13.689  11.271   3.469
85257SOL    HW157610  13.762  11.327   3.495
85257SOL    HW257611  13.627  11.278   3.542
85258SOL     OW57612   4.132   5.318   9.662
85258SOL    HW157613   4.140   5.269   9.580
85258SOL    HW257614   4.222   5.343   9.683
85259SOL     OW57615   4.676   6.775   8.529
85259SOL    HW157616   4.615   6.777   8.456
85259SOL    HW257617   4.662   6.690   8.571
85260SOL     OW57618   5.800  13.756  10.582
85260SOL    HW157619   5.771  13.672  10.546
85260SOL    HW257620   5.815  13.739  10.675
85261SOL     OW57621  11.826   8.034  14.134
85261SOL    HW157622  11.921   8.032  14.124
85261SOL    HW257623  11.793   8.051  14.046
85262SOL     OW57624  11.386   3.579   3.610
85262SOL    HW157625  11.342   3.554   3.692
85262SOL    HW257626  11.322   3.558   3.542
85263SOL     OW57627  13.173   0.633   8.098
85263SOL    HW157628  13.241   0.647   8.164
85263SOL    HW257629  13.196   0.694   8.027
85264SOL     OW57630   7.463   0.371  12.853
85264SOL    HW157631   7.409   0.331  12.785
85264SOL    HW257632   7.553   0.360  12.822
85265SOL     OW57633  13.286   1.971   6.271
85265SOL    HW157634  13.230   1.982   6.348
85265SOL    HW257635  13.235   2.005   6.198
85266SOL     OW57636   3.840   5.225   0.733
85266SOL    HW157637   3.775   5.259   0.671
85266SOL    HW257638   3.852   5.296   0.796
85267SOL     OW57639   6.796  13.255   5.529
85267SOL    HW157640   6.840  13.188   5.582
85267SOL    HW257641   6.772  13.210   5.449
85268SOL     OW57642  13.313   5.742  14.849
85268SOL    HW157643  13.378   5.674  14.871
85268SOL    HW257644  13.360   5.804  14.794
85269SOL     OW57645   4.966   1.626   1.385
85269SOL    HW157646   4.952   1.657   1.296
85269SOL    HW257647   5.061   1.627   1.396
85270SOL     OW57648  11.649   9.858   3.826
85270SOL    HW157649  11.642   9.763   3.825
85270SOL    HW257650  11.667   9.880   3.917
85271SOL     OW57651   2.904   6.269   8.317
85271SOL    HW157652   2.818   6.252   8.356
85271SOL    HW257653   2.915   6.201   8.250
85272SOL     OW57654   6.063  10.136   8.651
85272SOL    HW157655   6.047  10.214   8.704
85272SOL    HW257656   6.092  10.170   8.566
85273SOL     OW57657   3.331   0.631   9.873
85273SOL    HW157658   3.276   0.660   9.946
85273SOL    HW257659   3.421   0.646   9.904
85274SOL     OW57660   2.364  12.143   6.112
85274SOL    HW157661   2.287  12.093   6.140
85274SOL    HW257662   2.398  12.182   6.193
85275SOL     OW57663   8.252  13.045  10.732
85275SOL    HW157664   8.296  12.963  10.756
85275SOL    HW257665   8.284  13.108  10.797
85276SOL     OW57666   6.009   2.648   6.410
85276SOL    HW157667   5.973   2.732   6.436
85276SOL    HW257668   6.104   2.659   6.416
85277SOL     OW57669  14.831  11.012   1.622
85277SOL    HW157670  14.764  10.961   1.667
85277SOL    HW257671  14.801  11.018   1.532
85278SOL     OW57672  11.471   2.562  14.369
85278SOL    HW157673  11.492   2.647  14.406
85278SOL    HW257674  11.552   2.512  14.374
85279SOL     OW57675   3.756   9.229   5.869
85279SOL    HW157676   3.728   9.320   5.872
85279SOL    HW257677   3.844   9.228   5.905
85280SOL     OW57678   8.918  13.316  13.066
85280SOL    HW157679   8.969  13.382  13.018
85280SOL    HW257680   8.925  13.342  13.158
85281SOL     OW57681   6.432   7.109   5.796
85281SOL    HW157682   6.500   7.174   5.812
85281SOL    HW257683   6.467   7.052   5.729
85282SOL     OW57684   8.985   9.200   4.296
85282SOL    HW157685   8.975   9.243   4.211
85282SOL    HW257686   8.948   9.263   4.359
85283SOL     OW57687   6.667   3.134   3.460
85283SOL    HW157688   6.629   3.090   3.536
85283SOL    HW257689   6.594   3.184   3.422
85284SOL     OW57690   2.073   9.118   9.088
85284SOL    HW157691   2.073   9.108   9.183
85284SOL    HW257692   2.072   9.213   9.075
85285SOL     OW57693  10.263  12.751   2.018
85285SOL    HW157694  10.190  12.813   2.026
85285SOL    HW257695  10.221  12.668   1.997
85286SOL     OW57696   0.438  10.664   0.964
85286SOL    HW157697   0.398  10.667   0.877
85286SOL    HW257698   0.459  10.572   0.977
85287SOL     OW57699   4.677   3.097  13.680
85287SOL    HW157700   4.671   3.189  13.653
85287SOL    HW257701   4.690   3.101  13.774
85288SOL     OW57702   1.265   8.924   2.845
85288SOL    HW157703   1.187   8.967   2.811
85288SOL    HW257704   1.251   8.919   2.939
85289SOL     OW57705  13.349  14.428  12.496
85289SOL    HW157706  13.391  14.345  12.475
85289SOL    HW257707  13.380  14.488  12.429
85290SOL     OW57708  13.308   2.310   6.589
85290SOL    HW157709  13.237   2.297   6.652
85290SOL    HW257710  13.267   2.358   6.517
85291SOL     OW57711   3.232   9.825  11.392
85291SOL    HW157712   3.206   9.874  11.314
85291SOL    HW257713   3.177   9.860  11.462
85292SOL     OW57714  11.472   9.456  14.620
85292SOL    HW157715  11.558   9.419  14.602
85292SOL    HW257716  11.433   9.397  14.684
85293SOL     OW57717   9.679   7.418  10.476
85293SOL    HW157718   9.614   7.351  10.496
85293SOL    HW257719   9.755   7.369  10.444
85294SOL     OW57720   4.174  14.850   8.435
85294SOL    HW157721   4.079  14.855   8.441
85294SOL    HW257722   4.206   0.014   8.517
85295SOL     OW57723   7.364   0.918  14.837
85295SOL    HW157724   7.434   0.893  14.777
85295SOL    HW257725   7.308   0.841  14.842
85296SOL     OW57726  10.607  11.069   3.738
85296SOL    HW157727  10.577  11.013   3.666
85296SOL    HW257728  10.570  11.028   3.816
85297SOL     OW57729  11.138   5.239   4.711
85297SOL    HW157730  11.042   5.236   4.711
85297SOL    HW257731  11.160   5.297   4.638
85298SOL     OW57732  10.101  12.745   4.102
85298SOL    HW157733  10.177  12.761   4.158
85298SOL    HW257734  10.138  12.725   4.016
85299SOL     OW57735   4.021  13.440   5.015
85299SOL    HW157736   3.957  13.436   5.086
85299SOL    HW257737   3.999  13.367   4.957
85300SOL     OW57738   2.224   2.454  14.817
85300SOL    HW157739   2.161   2.434   0.013
85300SOL    HW257740   2.220   2.378  14.759
85301SOL     OW57741   2.840   7.890   4.700
85301SOL    HW157742   2.886   7.953   4.755
85301SOL    HW257743   2.907   7.826   4.675
85302SOL     OW57744  14.461   8.571  14.378
85302SOL    HW157745  14.524   8.580  14.450
85302SOL    HW257746  14.376   8.568  14.422
85303SOL     OW57747  12.258   6.874   4.165
85303SOL    HW157748  12.330   6.917   4.210
85303SOL    HW257749  12.292   6.788   4.142
85304SOL     OW57750   5.266   6.970  11.961
85304SOL    HW157751   5.244   6.891  11.911
85304SOL    HW257752   5.360   6.978  11.951
85305SOL     OW57753   4.886   5.781   9.831
85305SOL    HW157754   4.952   5.740   9.775
85305SOL    HW257755   4.930   5.858   9.867
85306SOL     OW57756   7.057   2.475  13.172
85306SOL    HW157757   7.144   2.443  13.194
85306SOL    HW257758   7.061   2.496  13.079
85307SOL     OW57759  13.956  14.665  11.042
85307SOL    HW157760  13.909  14.624  11.114
85307SOL    HW257761  14.047  14.670  11.073
85308SOL     OW57762   2.728   1.123   7.060
85308SOL    HW157763   2.656   1.133   7.122
85308SOL    HW257764   2.735   1.208   7.016
85309SOL     OW57765   6.699  10.410   6.549
85309SOL    HW157766   6.680  10.492   6.594
85309SOL    HW257767   6.717  10.348   6.620
85310SOL     OW57768   0.622  14.443   5.878
85310SOL    HW157769   0.672  14.453   5.797
85310SOL    HW257770   0.595  14.351   5.878
85311SOL     OW57771   2.729   7.151   4.933
85311SOL    HW157772   2.810   7.155   4.984
85311SOL    HW257773   2.741   7.073   4.877
85312SOL     OW57774   2.260  13.630  10.972
85312SOL    HW157775   2.200  13.704  10.980
85312SOL    HW257776   2.203  13.554  10.967
85313SOL     OW57777  11.440  11.879   2.403
85313SOL    HW157778  11.443  11.798   2.454
85313SOL    HW257779  11.419  11.947   2.467
85314SOL     OW57780   4.143   4.653  12.954
85314SOL    HW157781   4.114   4.711  12.883
85314SOL    HW257782   4.063   4.613  12.987
85315SOL     OW57783   0.001  13.360   4.177
85315SOL    HW157784   0.027  13.273   4.208
85315SOL    HW257785   0.065  13.420   4.217
85316SOL     OW57786   2.380  11.821   2.632
85316SOL    HW157787   2.445  11.856   2.571
85316SOL    HW257788   2.305  11.796   2.577
85317SOL     OW57789   6.294  13.163  12.036
85317SOL    HW157790   6.390  13.162  12.030
85317SOL    HW257791   6.269  13.254  12.024
85318SOL     OW57792  11.594   1.075   0.971
85318SOL    HW157793  11.608   1.166   0.947
85318SOL    HW257794  11.501   1.070   0.992
85319SOL     OW57795  11.676   0.210  12.816
85319SOL    HW157796  11.753   0.225  12.760
85319SOL    HW257797  11.694   0.261  12.895
85320SOL     OW57798   6.983   3.881  11.248
85320SOL    HW157799   7.063   3.935  11.252
85320SOL    HW257800   6.984   3.844  11.160
85321SOL     OW57801   0.233  11.455   1.363
85321SOL    HW157802   0.276  11.525   1.412
85321SOL    HW257803   0.173  11.415   1.426
85322SOL     OW57804   9.206   9.603  14.302
85322SOL    HW157805   9.226   9.689  14.340
85322SOL    HW257806   9.283   9.550  14.323
85323SOL     OW57807   8.493  13.829  10.141
85323SOL    HW157808   8.402  13.839  10.115
85323SOL    HW257809   8.535  13.787  10.066
85324SOL     OW57810  12.570   2.102   6.306
85324SOL    HW157811  12.543   2.022   6.351
85324SOL    HW257812  12.501   2.119   6.242
85325SOL     OW57813   4.156  11.539   2.455
85325SOL    HW157814   4.182  11.602   2.521
85325SOL    HW257815   4.109  11.471   2.504
85326SOL     OW57816  12.600   2.889   5.959
85326SOL    HW157817  12.509   2.860   5.956
85326SOL    HW257818  12.634   2.871   5.871
85327SOL     OW57819   7.133   9.626   7.103
85327SOL    HW157820   7.217   9.665   7.128
85327SOL    HW257821   7.141   9.611   7.008
85328SOL     OW57822   9.546   8.484   6.656
85328SOL    HW157823   9.626   8.514   6.699
85328SOL    HW257824   9.498   8.564   6.636
85329SOL     OW57825   4.184  10.238   3.949
85329SOL    HW157826   4.262  10.294   3.945
85329SOL    HW257827   4.208  10.168   4.010
85330SOL     OW57828   9.267   3.197  14.504
85330SOL    HW157829   9.329   3.148  14.558
85330SOL    HW257830   9.319   3.229  14.430
85331SOL     OW57831   1.229  12.166   4.789
85331SOL    HW157832   1.289  12.104   4.748
85331SOL    HW257833   1.233  12.244   4.734
85332SOL     OW57834   7.871   8.666   4.138
85332SOL    HW157835   7.955   8.667   4.183
85332SOL    HW257836   7.841   8.757   4.140
85333SOL     OW57837  10.845   7.142   5.554
85333SOL    HW157838  10.856   7.074   5.620
85333SOL    HW257839  10.920   7.200   5.567
85334SOL     OW57840  12.396   5.519  10.682
85334SOL    HW157841  12.323   5.569  10.645
85334SOL    HW257842  12.438   5.478  10.606
85335SOL     OW57843   6.512   2.720   5.650
85335SOL    HW157844   6.546   2.751   5.734
85335SOL    HW257845   6.566   2.645   5.628
85336SOL     OW57846   9.271   9.189   1.435
85336SOL    HW157847   9.209   9.130   1.391
85336SOL    HW257848   9.241   9.189   1.526
85337SOL     OW57849   6.843  12.745   7.578
85337SOL    HW157850   6.771  12.743   7.641
85337SOL    HW257851   6.828  12.826   7.528
85338SOL     OW57852   9.227   8.786  13.520
85338SOL    HW157853   9.295   8.719  13.531
85338SOL    HW257854   9.206   8.813  13.610
85339SOL     OW57855  12.808   8.404   2.893
85339SOL    HW157856  12.732   8.380   2.946
85339SOL    HW257857  12.788   8.491   2.859
85340SOL     OW57858   5.958   1.076   5.959
85340SOL    HW157859   6.017   1.113   6.025
85340SOL    HW257860   5.870   1.091   5.994
85341SOL     OW57861   2.797  11.314   6.416
85341SOL    HW157862   2.743  11.335   6.491
85341SOL    HW257863   2.856  11.246   6.447
85342SOL     OW57864   6.493   9.508   6.766
85342SOL    HW157865   6.530   9.437   6.713
85342SOL    HW257866   6.495   9.584   6.708
85343SOL     OW57867   6.718   2.586   9.704
85343SOL    HW157868   6.768   2.530   9.644
85343SOL    HW257869   6.752   2.563   9.790
85344SOL     OW57870  11.091   8.729   9.062
85344SOL    HW157871  11.117   8.638   9.075
85344SOL    HW257872  10.996   8.726   9.049
85345SOL     OW57873   3.369   7.385   0.566
85345SOL    HW157874   3.417   7.412   0.644
85345SOL    HW257875   3.426   7.410   0.493
85346SOL     OW57876  14.587   2.380  13.345
85346SOL    HW157877  14.651   2.437  13.389
85346SOL    HW257878  14.591   2.298  13.394
85347SOL     OW57879   3.395   8.139   6.359
85347SOL    HW157880   3.406   8.101   6.446
85347SOL    HW257881   3.383   8.064   6.301
85348SOL     OW57882  13.333  14.855   9.604
85348SOL    HW157883  13.396   0.052   9.621
85348SOL    HW257884  13.269   0.021   9.544
85349SOL     OW57885   4.481   5.509   3.244
85349SOL    HW157886   4.428   5.507   3.324
85349SOL    HW257887   4.483   5.602   3.219
85350SOL     OW57888   4.111   1.584   1.408
85350SOL    HW157889   4.176   1.648   1.379
85350SOL    HW257890   4.047   1.635   1.457
85351SOL     OW57891   9.806   4.782  10.990
85351SOL    HW157892   9.897   4.764  10.966
85351SOL    HW257893   9.755   4.728  10.930
85352SOL     OW57894   4.532   4.524   6.830
85352SOL    HW157895   4.621   4.524   6.797
85352SOL    HW257896   4.534   4.581   6.907
85353SOL     OW57897   3.756   1.812   4.458
85353SOL    HW157898   3.817   1.798   4.386
85353SOL    HW257899   3.811   1.814   4.537
85354SOL     OW57900   6.978   8.983   0.343
85354SOL    HW157901   7.034   8.910   0.317
85354SOL    HW257902   6.889   8.946   0.341
85355SOL     OW57903   6.230  14.444   4.475
85355SOL    HW157904   6.140  14.470   4.453
85355SOL    HW257905   6.266  14.520   4.520
85356SOL     OW57906   1.811   6.258  10.221
85356SOL    HW157907   1.862   6.270  10.301
85356SOL    HW257908   1.837   6.172  10.189
85357SOL     OW57909   7.942   8.639   2.623
85357SOL    HW157910   7.986   8.569   2.670
85357SOL    HW257911   7.852   8.608   2.612
85358SOL     OW57912   9.398   8.846  11.913
85358SOL    HW157913   9.483   8.857  11.954
85358SOL    HW257914   9.388   8.751  11.902
85359SOL     OW57915  13.621   9.431  13.604
85359SOL    HW157916  13.535   9.471  13.592
85359SOL    HW257917  13.649   9.406  13.516
85360SOL     OW57918   4.789  11.350  11.516
85360SOL    HW157919   4.872  11.390  11.540
85360SOL    HW257920   4.751  11.411  11.452
85361SOL     OW57921   3.474  13.428   2.442
85361SOL    HW157922   3.394  13.443   2.392
85361SOL    HW257923   3.459  13.473   2.525
85362SOL     OW57924  11.331   5.266  11.466
85362SOL    HW157925  11.307   5.346  11.419
85362SOL    HW257926  11.295   5.278  11.553
85363SOL     OW57927  14.206   0.470   2.079
85363SOL    HW157928  14.197   0.489   1.986
85363SOL    HW257929  14.118   0.478   2.114
85364SOL     OW57930   4.326   3.186   1.767
85364SOL    HW157931   4.326   3.094   1.795
85364SOL    HW257932   4.275   3.187   1.687
85365SOL     OW57933   5.063   7.558   9.775
85365SOL    HW157934   5.101   7.486   9.825
85365SOL    HW257935   5.025   7.516   9.698
85366SOL     OW57936   4.217   0.389  10.737
85366SOL    HW157937   4.145   0.328  10.751
85366SOL    HW257938   4.175   0.471  10.712
85367SOL     OW57939  11.088  11.451   3.432
85367SOL    HW157940  11.038  11.406   3.499
85367SOL    HW257941  11.053  11.417   3.349
85368SOL     OW57942   2.030   1.331  11.136
85368SOL    HW157943   2.124   1.343  11.151
85368SOL    HW257944   2.004   1.267  11.203
85369SOL     OW57945   6.069   8.774   1.176
85369SOL    HW157946   6.095   8.817   1.095
85369SOL    HW257947   6.139   8.711   1.193
85370SOL     OW57948  11.472  10.740   5.052
85370SOL    HW157949  11.464  10.646   5.038
85370SOL    HW257950  11.505  10.749   5.141
85371SOL     OW57951  12.310   2.260  13.526
85371SOL    HW157952  12.389   2.226  13.484
85371SOL    HW257953  12.270   2.184  13.569
85372SOL     OW57954   3.823   6.847   0.155
85372SOL    HW157955   3.730   6.854   0.137
85372SOL    HW257956   3.866   6.883   0.078
85373SOL     OW57957   1.183   5.056  12.811
85373SOL    HW157958   1.261   5.016  12.848
85373SOL    HW257959   1.212   5.142  12.781
85374SOL     OW57960  10.021   1.441   2.448
85374SOL    HW157961  10.097   1.461   2.393
85374SOL    HW257962  10.009   1.347   2.439
85375SOL     OW57963   0.563  11.652  14.231
85375SOL    HW157964   0.490  11.696  14.275
85375SOL    HW257965   0.640  11.677  14.282
85376SOL     OW57966  12.073   4.567   0.834
85376SOL    HW157967  12.097   4.518   0.913
85376SOL    HW257968  11.996   4.617   0.861
85377SOL     OW57969  13.945  13.137   8.228
85377SOL    HW157970  13.858  13.143   8.267
85377SOL    HW257971  13.998  13.201   8.275
85378SOL     OW57972  12.189   1.071  12.127
85378SOL    HW157973  12.244   1.149  12.127
85378SOL    HW257974  12.169   1.056  12.034
85379SOL     OW57975   1.461   5.636   4.107
85379SOL    HW157976   1.402   5.703   4.142
85379SOL    HW257977   1.424   5.553   4.137
85380SOL     OW57978   1.760  13.013  14.509
85380SOL    HW157979   1.781  13.012  14.416
85380SOL    HW257980   1.723  12.927  14.527
85381SOL     OW57981  14.663  10.192   1.010
85381SOL    HW157982  14.709  10.109   1.020
85381SOL    HW257983  14.590  10.172   0.952
85382SOL     OW57984   3.678  10.974  13.708
85382SOL    HW157985   3.669  11.068  13.697
85382SOL    HW257986   3.603  10.949  13.761
85383SOL     OW57987   6.320   3.640   8.327
85383SOL    HW157988   6.398   3.694   8.311
85383SOL    HW257989   6.276   3.637   8.242
85384SOL     OW57990  13.000   8.244   7.748
85384SOL    HW157991  13.002   8.151   7.771
85384SOL    HW257992  12.956   8.246   7.663
85385SOL     OW57993   9.310  13.954   8.539
85385SOL    HW157994   9.404  13.938   8.539
85385SOL    HW257995   9.270  13.870   8.559
85386SOL     OW57996  13.953  10.922  10.118
85386SOL    HW157997  13.880  10.880  10.162
85386SOL    HW257998  13.961  10.876  10.035
85387SOL     OW57999   8.564   2.848   3.045
85387SOL    HW158000   8.479   2.838   3.089
85387SOL    HW258001   8.592   2.937   3.066
85388SOL     OW58002   9.310   4.088   9.928
85388SOL    HW158003   9.331   3.995   9.918
85388SOL    HW258004   9.290   4.117   9.839
85389SOL     OW58005   2.564   8.099   4.355
85389SOL    HW158006   2.548   8.185   4.393
85389SOL    HW258007   2.572   8.114   4.261
85390SOL     OW58008   2.905  11.941   2.511
85390SOL    HW158009   2.915  12.021   2.460
85390SOL    HW258010   2.962  11.877   2.467
85391SOL     OW58011   4.786  14.861   3.311
85391SOL    HW158012   4.768   0.020   3.223
85391SOL    HW258013   4.750   0.054   3.369
85392SOL     OW58014   9.645   1.843   7.886
85392SOL    HW158015   9.568   1.840   7.942
85392SOL    HW258016   9.653   1.753   7.852
85393SOL     OW58017   0.664   9.111  12.773
85393SOL    HW158018   0.572   9.092  12.757
85393SOL    HW258019   0.665   9.202  12.803
85394SOL     OW58020  13.745  13.596  10.515
85394SOL    HW158021  13.816  13.592  10.451
85394SOL    HW258022  13.737  13.689  10.536
85395SOL     OW58023   4.619   0.755  11.251
85395SOL    HW158024   4.617   0.667  11.288
85395SOL    HW258025   4.528   0.784  11.251
85396SOL     OW58026  12.866   0.444  14.606
85396SOL    HW158027  12.909   0.422  14.689
85396SOL    HW258028  12.825   0.529  14.622
85397SOL     OW58029   4.146   5.586  11.105
85397SOL    HW158030   4.209   5.618  11.040
85397SOL    HW258031   4.090   5.661  11.124
85398SOL     OW58032  10.651   4.361  10.482
85398SOL    HW158033  10.706   4.412  10.422
85398SOL    HW258034  10.667   4.401  10.568
85399SOL     OW58035   7.743   2.573   0.986
85399SOL    HW158036   7.765   2.665   0.971
85399SOL    HW258037   7.774   2.528   0.907
85400SOL     OW58038   4.198   6.390   2.230
85400SOL    HW158039   4.290   6.365   2.220
85400SOL    HW258040   4.175   6.427   2.145
85401SOL     OW58041   7.466   0.809   8.924
85401SOL    HW158042   7.487   0.849   8.839
85401SOL    HW258043   7.499   0.872   8.988
85402SOL     OW58044  12.423  11.692   3.104
85402SOL    HW158045  12.410  11.786   3.116
85402SOL    HW258046  12.448  11.660   3.190
85403SOL     OW58047   2.151   7.128   0.372
85403SOL    HW158048   2.241   7.153   0.393
85403SOL    HW258049   2.117   7.088   0.453
85404SOL     OW58050   7.747   3.891   0.812
85404SOL    HW158051   7.652   3.901   0.813
85404SOL    HW258052   7.774   3.928   0.727
85405SOL     OW58053  13.243   6.981   0.768
85405SOL    HW158054  13.339   6.983   0.765
85405SOL    HW258055  13.217   7.071   0.747
85406SOL     OW58056  12.973   2.298   9.760
85406SOL    HW158057  13.061   2.287   9.796
85406SOL    HW258058  12.958   2.220   9.707
85407SOL     OW58059   4.521  14.585   2.877
85407SOL    HW158060   4.579  14.618   2.946
85407SOL    HW258061   4.498  14.663   2.826
85408SOL     OW58062   6.118   7.409   8.576
85408SOL    HW158063   6.051   7.416   8.508
85408SOL    HW258064   6.146   7.318   8.573
85409SOL     OW58065  10.450  13.050   6.859
85409SOL    HW158066  10.421  12.964   6.829
85409SOL    HW258067  10.393  13.070   6.933
85410SOL     OW58068  14.524   7.114   4.492
85410SOL    HW158069  14.439   7.079   4.467
85410SOL    HW258070  14.583   7.038   4.490
85411SOL     OW58071  13.394   4.235   6.925
85411SOL    HW158072  13.477   4.191   6.943
85411SOL    HW258073  13.411   4.284   6.844
85412SOL     OW58074  12.693   6.147   4.229
85412SOL    HW158075  12.634   6.072   4.222
85412SOL    HW258076  12.636   6.223   4.226
85413SOL     OW58077  13.549   1.388  12.831
85413SOL    HW158078  13.604   1.329  12.882
85413SOL    HW258079  13.588   1.388  12.744
85414SOL     OW58080   6.808  14.603   9.974
85414SOL    HW158081   6.804  14.645   9.888
85414SOL    HW258082   6.901  14.585   9.988
85415SOL     OW58083   0.582   3.450   0.346
85415SOL    HW158084   0.673   3.431   0.321
85415SOL    HW258085   0.570   3.405   0.430
85416SOL     OW58086  11.690  13.493   7.254
85416SOL    HW158087  11.686  13.576   7.207
85416SOL    HW258088  11.600  13.460   7.250
85417SOL     OW58089   6.062  14.196   4.368
85417SOL    HW158090   6.026  14.284   4.364
85417SOL    HW258091   6.060  14.173   4.461
85418SOL     OW58092   3.841  13.842  14.333
85418SOL    HW158093   3.822  13.760  14.378
85418SOL    HW258094   3.781  13.905  14.372
85419SOL     OW58095   5.165  14.703  12.555
85419SOL    HW158096   5.237  14.664  12.605
85419SOL    HW258097   5.172  14.797  12.572
85420SOL     OW58098  10.005  14.778  13.545
85420SOL    HW158099  10.066  14.710  13.518
85420SOL    HW258100   9.940  14.733  13.598
85421SOL     OW58101  14.823  11.331   4.187
85421SOL    HW158102  14.865  11.259   4.234
85421SOL    HW258103  14.812  11.298   4.098
85422SOL     OW58104   7.115   4.846   6.165
85422SOL    HW158105   7.171   4.823   6.240
85422SOL    HW258106   7.172   4.896   6.107
85423SOL     OW58107   8.634   9.255   1.319
85423SOL    HW158108   8.628   9.226   1.228
85423SOL    HW258109   8.549   9.233   1.357
85424SOL     OW58110   9.821  10.863  12.449
85424SOL    HW158111   9.750  10.914  12.487
85424SOL    HW258112   9.850  10.914  12.373
85425SOL     OW58113  11.049  14.797   6.610
85425SOL    HW158114  11.079  14.729   6.671
85425SOL    HW258115  11.038  14.751   6.527
85426SOL     OW58116   6.959  12.612  13.929
85426SOL    HW158117   6.934  12.535  13.878
85426SOL    HW258118   7.052  12.598  13.950
85427SOL     OW58119  14.361   1.298   1.317
85427SOL    HW158120  14.316   1.381   1.303
85427SOL    HW258121  14.326   1.265   1.400
85428SOL     OW58122   4.291   2.600   0.926
85428SOL    HW158123   4.370   2.588   0.874
85428SOL    HW258124   4.246   2.675   0.886
85429SOL     OW58125  14.265   1.645   1.629
85429SOL    HW158126  14.314   1.708   1.681
85429SOL    HW258127  14.254   1.689   1.544
85430SOL     OW58128   9.854   9.192   1.765
85430SOL    HW158129   9.925   9.245   1.803
85430SOL    HW258130   9.783   9.197   1.828
85431SOL     OW58131  14.267  14.517  13.278
85431SOL    HW158132  14.179  14.537  13.310
85431SOL    HW258133  14.254  14.446  13.215
85432SOL     OW58134  11.760   0.644   1.681
85432SOL    HW158135  11.726   0.564   1.641
85432SOL    HW258136  11.844   0.618   1.720
85433SOL     OW58137   4.729   7.100  11.182
85433SOL    HW158138   4.696   7.069  11.266
85433SOL    HW258139   4.822   7.114  11.196
85434SOL     OW58140   7.423  13.538   5.320
85434SOL    HW158141   7.337  13.542   5.362
85434SOL    HW258142   7.417  13.598   5.246
85435SOL     OW58143  11.541   7.678  13.738
85435SOL    HW158144  11.570   7.687  13.648
85435SOL    HW258145  11.609   7.721  13.790
85436SOL     OW58146   1.212   2.833   6.678
85436SOL    HW158147   1.285   2.876   6.634
85436SOL    HW258148   1.134   2.865   6.633
85437SOL     OW58149  11.915   4.163   6.483
85437SOL    HW158150  11.896   4.084   6.534
85437SOL    HW258151  11.933   4.130   6.395
85438SOL     OW58152  11.378   5.045   0.290
85438SOL    HW158153  11.342   5.119   0.339
85438SOL    HW258154  11.442   5.005   0.349
85439SOL     OW58155   9.044  10.890   9.623
85439SOL    HW158156   9.124  10.939   9.645
85439SOL    HW258157   8.986  10.903   9.698
85440SOL     OW58158  14.554   0.650  10.419
85440SOL    HW158159  14.626   0.689  10.369
85440SOL    HW258160  14.524   0.577  10.366
85441SOL     OW58161   3.662   2.878  11.458
85441SOL    HW158162   3.715   2.938  11.509
85441SOL    HW258163   3.720   2.849  11.387
85442SOL     OW58164   6.251   8.692   0.912
85442SOL    HW158165   6.282   8.661   0.827
85442SOL    HW258166   6.188   8.761   0.892
85443SOL     OW58167   5.994   6.896   7.287
85443SOL    HW158168   5.919   6.923   7.234
85443SOL    HW258169   5.972   6.809   7.318
85444SOL     OW58170   7.572  10.554   0.936
85444SOL    HW158171   7.488  10.571   0.979
85444SOL    HW258172   7.635  10.607   0.984
85445SOL     OW58173   3.544   6.100   7.782
85445SOL    HW158174   3.535   6.126   7.874
85445SOL    HW258175   3.620   6.149   7.751
85446SOL     OW58176   7.744   5.916   4.865
85446SOL    HW158177   7.735   6.009   4.887
85446SOL    HW258178   7.734   5.871   4.949
85447SOL     OW58179  11.463   8.830   0.088
85447SOL    HW158180  11.514   8.792   0.159
85447SOL    HW258181  11.452   8.758   0.025
85448SOL     OW58182   6.296   9.582   8.617
85448SOL    HW158183   6.213   9.541   8.644
85448SOL    HW258184   6.271   9.646   8.550
85449SOL     OW58185  12.250  14.435   2.140
85449SOL    HW158186  12.221  14.488   2.214
85449SOL    HW258187  12.171  14.393   2.107
85450SOL     OW58188  11.075  13.439  13.445
85450SOL    HW158189  11.077  13.491  13.365
85450SOL    HW258190  10.987  13.401  13.447
85451SOL     OW58191   6.794   3.486  11.137
85451SOL    HW158192   6.765   3.418  11.197
85451SOL    HW258193   6.867   3.447  11.089
85452SOL     OW58194  12.003   6.986   9.739
85452SOL    HW158195  11.967   6.932   9.810
85452SOL    HW258196  11.979   7.076   9.764
85453SOL     OW58197   1.306  11.331   5.832
85453SOL    HW158198   1.308  11.371   5.745
85453SOL    HW258199   1.390  11.355   5.871
85454SOL     OW58200   7.223   0.233   3.515
85454SOL    HW158201   7.307   0.239   3.561
85454SOL    HW258202   7.191   0.145   3.535
85455SOL     OW58203  11.617   5.025  14.336
85455SOL    HW158204  11.610   4.930  14.324
85455SOL    HW258205  11.695   5.049  14.286
85456SOL     OW58206   6.601   9.119  12.196
85456SOL    HW158207   6.599   9.173  12.117
85456SOL    HW258208   6.690   9.085  12.200
85457SOL     OW58209   1.065  11.324  10.017
85457SOL    HW158210   1.146  11.372  10.000
85457SOL    HW258211   1.093  11.246  10.064
85458SOL     OW58212   2.820   0.167   2.676
85458SOL    HW158213   2.872   0.154   2.755
85458SOL    HW258214   2.741   0.114   2.689
85459SOL     OW58215   8.240   5.102   6.127
85459SOL    HW158216   8.297   5.062   6.061
85459SOL    HW258217   8.271   5.065   6.210
85460SOL     OW58218   8.656   5.165  12.334
85460SOL    HW158219   8.674   5.098  12.400
85460SOL    HW258220   8.715   5.237  12.355
85461SOL     OW58221   5.306  14.543  12.181
85461SOL    HW158222   5.215  14.530  12.154
85461SOL    HW258223   5.319  14.638  12.174
85462SOL     OW58224  14.133   1.646   4.447
85462SOL    HW158225  14.100   1.733   4.472
85462SOL    HW258226  14.215   1.637   4.496
85463SOL     OW58227   4.716   4.223   8.704
85463SOL    HW158228   4.650   4.182   8.649
85463SOL    HW258229   4.751   4.295   8.651
85464SOL     OW58230   1.130   5.562  14.661
85464SOL    HW158231   1.115   5.547  14.568
85464SOL    HW258232   1.079   5.640  14.681
85465SOL     OW58233   0.378   3.689  13.598
85465SOL    HW158234   0.408   3.715  13.511
85465SOL    HW258235   0.284   3.704  13.597
85466SOL     OW58236  11.466   8.127  13.571
85466SOL    HW158237  11.409   8.167  13.638
85466SOL    HW258238  11.443   8.172  13.490
85467SOL     OW58239   5.203  10.140   9.409
85467SOL    HW158240   5.162  10.074   9.352
85467SOL    HW258241   5.211  10.218   9.354
85468SOL     OW58242   3.762   6.304   5.165
85468SOL    HW158243   3.789   6.214   5.144
85468SOL    HW258244   3.753   6.303   5.261
85469SOL     OW58245  10.938   0.648   8.073
85469SOL    HW158246  11.029   0.657   8.046
85469SOL    HW258247  10.937   0.675   8.165
85470SOL     OW58248   3.246  11.148  14.524
85470SOL    HW158249   3.220  11.237  14.549
85470SOL    HW258250   3.185  11.091  14.572
85471SOL     OW58251  11.769   0.301  12.000
85471SOL    HW158252  11.864   0.314  12.000
85471SOL    HW258253  11.755   0.232  11.936
85472SOL     OW58254  13.827  14.106   2.227
85472SOL    HW158255  13.760  14.038   2.224
85472SOL    HW258256  13.848  14.123   2.135
85473SOL     OW58257   0.850   7.834   0.564
85473SOL    HW158258   0.929   7.823   0.511
85473SOL    HW258259   0.835   7.748   0.603
85474SOL     OW58260   2.231  13.763   9.581
85474SOL    HW158261   2.268  13.680   9.611
85474SOL    HW258262   2.217  13.814   9.660
85475SOL     OW58263   1.848   6.505   8.177
85475SOL    HW158264   1.763   6.549   8.185
85475SOL    HW258265   1.862   6.497   8.083
85476SOL     OW58266   7.729   3.756   4.898
85476SOL    HW158267   7.733   3.850   4.914
85476SOL    HW258268   7.714   3.748   4.803
85477SOL     OW58269   1.990   4.597   2.574
85477SOL    HW158270   1.962   4.671   2.628
85477SOL    HW258271   2.055   4.551   2.628
85478SOL     OW58272  12.980  14.274  12.281
85478SOL    HW158273  12.924  14.202  12.253
85478SOL    HW258274  12.923  14.351  12.279
85479SOL     OW58275   1.107   7.831  10.590
85479SOL    HW158276   1.056   7.842  10.510
85479SOL    HW258277   1.166   7.758  10.572
85480SOL     OW58278   7.255  12.294  10.099
85480SOL    HW158279   7.202  12.217  10.079
85480SOL    HW258280   7.235  12.313  10.190
85481SOL     OW58281   0.617   0.335   8.856
85481SOL    HW158282   0.596   0.297   8.942
85481SOL    HW258283   0.534   0.331   8.807
85482SOL     OW58284  12.627   1.187   8.333
85482SOL    HW158285  12.635   1.150   8.246
85482SOL    HW258286  12.684   1.132   8.388
85483SOL     OW58287   6.800   4.771   2.885
85483SOL    HW158288   6.875   4.766   2.826
85483SOL    HW258289   6.839   4.781   2.972
85484SOL     OW58290   7.773  11.343   2.939
85484SOL    HW158291   7.810  11.256   2.956
85484SOL    HW258292   7.773  11.386   3.024
85485SOL     OW58293   4.870   1.976  10.380
85485SOL    HW158294   4.824   2.053  10.412
85485SOL    HW258295   4.802   1.922  10.340
85486SOL     OW58296   6.789  14.090   1.335
85486SOL    HW158297   6.806  14.002   1.369
85486SOL    HW258298   6.872  14.136   1.342
85487SOL     OW58299   6.058   0.455   4.066
85487SOL    HW158300   6.072   0.368   4.102
85487SOL    HW258301   6.145   0.494   4.063
85488SOL     OW58302   8.270   3.776   5.225
85488SOL    HW158303   8.178   3.768   5.199
85488SOL    HW258304   8.308   3.831   5.157
85489SOL     OW58305   8.796   5.170   9.124
85489SOL    HW158306   8.852   5.150   9.049
85489SOL    HW258307   8.787   5.265   9.123
85490SOL     OW58308   8.818   6.157   5.004
85490SOL    HW158309   8.818   6.062   5.016
85490SOL    HW258310   8.906   6.178   4.972
85491SOL     OW58311  12.773  11.656  10.783
85491SOL    HW158312  12.678  11.656  10.770
85491SOL    HW258313  12.789  11.733  10.838
85492SOL     OW58314  13.879  13.589  14.146
85492SOL    HW158315  13.889  13.510  14.197
85492SOL    HW258316  13.790  13.584  14.110
85493SOL     OW58317  12.460   0.820  10.340
85493SOL    HW158318  12.445   0.913  10.357
85493SOL    HW258319  12.404   0.775  10.404
85494SOL     OW58320  12.883   5.223   7.094
85494SOL    HW158321  12.957   5.262   7.047
85494SOL    HW258322  12.846   5.159   7.033
85495SOL     OW58323  12.707  14.611  14.085
85495SOL    HW158324  12.695  14.536  14.143
85495SOL    HW258325  12.718  14.573  13.998
85496SOL     OW58326   7.571   1.990   8.810
85496SOL    HW158327   7.592   2.057   8.745
85496SOL    HW258328   7.626   2.011   8.885
85497SOL     OW58329  10.535   5.029  14.257
85497SOL    HW158330  10.490   4.962  14.206
85497SOL    HW258331  10.468   5.061  14.318
85498SOL     OW58332  10.710  11.561   8.012
85498SOL    HW158333  10.788  11.580   7.961
85498SOL    HW258334  10.720  11.469   8.039
85499SOL     OW58335   1.124   6.300   8.448
85499SOL    HW158336   1.102   6.278   8.538
85499SOL    HW258337   1.148   6.392   8.450
85500SOL     OW58338   1.426   7.106  11.397
85500SOL    HW158339   1.480   7.178  11.431
85500SOL    HW258340   1.463   7.089  11.310
85501SOL     OW58341  11.788   8.300   8.992
85501SOL    HW158342  11.733   8.358   9.045
85501SOL    HW258343  11.727   8.239   8.951
85502SOL     OW58344   6.905  10.017  11.690
85502SOL    HW158345   6.872  10.106  11.676
85502SOL    HW258346   6.856   9.963  11.628
85503SOL     OW58347  11.547   3.849   2.064
85503SOL    HW158348  11.463   3.813   2.092
85503SOL    HW258349  11.612   3.803   2.116
85504SOL     OW58350  10.266   9.813   6.474
85504SOL    HW158351  10.249   9.730   6.519
85504SOL    HW258352  10.349   9.843   6.511
85505SOL     OW58353  11.013   0.502  14.651
85505SOL    HW158354  10.923   0.515  14.682
85505SOL    HW258355  11.041   0.420  14.691
85506SOL     OW58356   3.898   1.455  11.782
85506SOL    HW158357   3.954   1.513  11.731
85506SOL    HW258358   3.879   1.381  11.724
85507SOL     OW58359  13.452   0.435   3.852
85507SOL    HW158360  13.470   0.521   3.890
85507SOL    HW258361  13.358   0.423   3.863
85508SOL     OW58362   4.506   3.174   5.356
85508SOL    HW158363   4.590   3.135   5.333
85508SOL    HW258364   4.528   3.247   5.414
85509SOL     OW58365   2.520  12.841  10.433
85509SOL    HW158366   2.484  12.754  10.416
85509SOL    HW258367   2.615  12.829  10.427
85510SOL     OW58368  14.760  14.354   6.776
85510SOL    HW158369  14.781  14.447   6.789
85510SOL    HW258370  14.843  14.309   6.792
85511SOL     OW58371  14.433   4.317   4.752
85511SOL    HW158372  14.387   4.321   4.668
85511SOL    HW258373  14.363   4.309   4.817
85512SOL     OW58374  12.073   6.352  11.589
85512SOL    HW158375  12.143   6.407  11.625
85512SOL    HW258376  11.999   6.411  11.577
85513SOL     OW58377  12.477   8.477   5.440
85513SOL    HW158378  12.510   8.546   5.498
85513SOL    HW258379  12.463   8.402   5.499
85514SOL     OW58380   4.980  11.274  10.565
85514SOL    HW158381   4.922  11.209  10.606
85514SOL    HW258382   4.920  11.333  10.520
85515SOL     OW58383  10.320   4.640   1.374
85515SOL    HW158384  10.276   4.561   1.405
85515SOL    HW258385  10.413   4.622   1.388
85516SOL     OW58386   1.296   4.108   8.374
85516SOL    HW158387   1.358   4.177   8.393
85516SOL    HW258388   1.348   4.039   8.331
85517SOL     OW58389   8.120   1.497  12.638
85517SOL    HW158390   8.050   1.460  12.692
85517SOL    HW258391   8.189   1.431  12.639
85518SOL     OW58392  10.735   7.340  11.918
85518SOL    HW158393  10.760   7.380  12.001
85518SOL    HW258394  10.719   7.414  11.859
85519SOL     OW58395  13.005   0.903   8.449
85519SOL    HW158396  12.988   0.895   8.355
85519SOL    HW258397  12.928   0.948   8.484
85520SOL     OW58398   6.073   6.947   3.179
85520SOL    HW158399   6.164   6.947   3.210
85520SOL    HW258400   6.026   6.892   3.242
85521SOL     OW58401   7.015  14.108  12.778
85521SOL    HW158402   6.940  14.131  12.723
85521SOL    HW258403   7.017  14.012  12.777
85522SOL     OW58404  13.915   4.106  14.364
85522SOL    HW158405  13.960   4.023  14.382
85522SOL    HW258406  13.872   4.128  14.446
85523SOL     OW58407   5.867  12.192   2.523
85523SOL    HW158408   5.940  12.130   2.530
85523SOL    HW258409   5.885  12.241   2.443
85524SOL     OW58410  14.664   8.404   7.326
85524SOL    HW158411  14.653   8.499   7.330
85524SOL    HW258412  14.664   8.376   7.417
85525SOL     OW58413  11.403   2.017   6.265
85525SOL    HW158414  11.332   2.047   6.207
85525SOL    HW258415  11.432   1.935   6.225
85526SOL     OW58416   8.821   5.347   7.469
85526SOL    HW158417   8.777   5.285   7.527
85526SOL    HW258418   8.755   5.370   7.404
85527SOL     OW58419   3.443   8.309   1.804
85527SOL    HW158420   3.501   8.309   1.728
85527SOL    HW258421   3.482   8.246   1.864
85528SOL     OW58422   5.419   7.551   7.815
85528SOL    HW158423   5.414   7.476   7.874
85528SOL    HW258424   5.508   7.549   7.780
85529SOL     OW58425   7.964   5.028   2.251
85529SOL    HW158426   7.964   4.956   2.313
85529SOL    HW258427   7.926   4.992   2.171
85530SOL     OW58428   6.038   1.790  14.218
85530SOL    HW158429   6.014   1.866  14.166
85530SOL    HW258430   5.968   1.726  14.201
85531SOL     OW58431  10.005   6.690  12.845
85531SOL    HW158432   9.948   6.714  12.772
85531SOL    HW258433   9.948   6.692  12.921
85532SOL     OW58434  12.243  12.004   3.603
85532SOL    HW158435  12.228  11.955   3.684
85532SOL    HW258436  12.257  12.094   3.631
85533SOL     OW58437   3.478  14.370  13.056
85533SOL    HW158438   3.485  14.465  13.055
85533SOL    HW258439   3.415  14.350  13.126
85534SOL     OW58440  14.624   0.029   6.710
85534SOL    HW158441  14.581  14.819   6.732
85534SOL    HW258442  14.618   0.081   6.789
85535SOL     OW58443   9.478   1.190  14.100
85535SOL    HW158444   9.532   1.257  14.143
85535SOL    HW258445   9.471   1.120  14.165
85536SOL     OW58446  11.217  10.663   8.800
85536SOL    HW158447  11.193  10.576   8.768
85536SOL    HW258448  11.303  10.680   8.763
85537SOL     OW58449  12.268   6.496   9.040
85537SOL    HW158450  12.228   6.411   9.024
85537SOL    HW258451  12.345   6.477   9.093
85538SOL     OW58452   0.993   3.390   8.331
85538SOL    HW158453   0.969   3.329   8.262
85538SOL    HW258454   0.942   3.469   8.313
85539SOL     OW58455   5.419  14.260  10.103
85539SOL    HW158456   5.350  14.308  10.150
85539SOL    HW258457   5.424  14.302  10.017
85540SOL     OW58458   5.179   9.749  14.785
85540SOL    HW158459   5.219   9.699  14.714
85540SOL    HW258460   5.252   9.793  14.829
85541SOL     OW58461  12.298   2.336   1.995
85541SOL    HW158462  12.209   2.360   2.021
85541SOL    HW258463  12.344   2.419   1.985
85542SOL     OW58464   3.775   9.080   6.653
85542SOL    HW158465   3.786   9.170   6.684
85542SOL    HW258466   3.850   9.033   6.688
85543SOL     OW58467  13.270  10.883  13.338
85543SOL    HW158468  13.217  10.804  13.340
85543SOL    HW258469  13.232  10.940  13.405
85544SOL     OW58470   9.093  13.869  10.149
85544SOL    HW158471   9.031  13.941  10.146
85544SOL    HW258472   9.167  13.898  10.096
85545SOL     OW58473  11.039   9.044  13.584
85545SOL    HW158474  10.995   9.048  13.669
85545SOL    HW258475  11.124   9.084  13.600
85546SOL     OW58476  12.824  12.174  14.495
85546SOL    HW158477  12.761  12.193  14.564
85546SOL    HW258478  12.834  12.079  14.498
85547SOL     OW58479  14.017   8.326   3.441
85547SOL    HW158480  14.033   8.405   3.389
85547SOL    HW258481  14.071   8.259   3.399
85548SOL     OW58482  11.283  13.708   0.140
85548SOL    HW158483  11.199  13.748   0.158
85548SOL    HW258484  11.347  13.778   0.153
85549SOL     OW58485  10.067  13.495   7.864
85549SOL    HW158486  10.138  13.558   7.874
85549SOL    HW258487  10.052  13.460   7.952
85550SOL     OW58488   4.258   8.269   3.068
85550SOL    HW158489   4.172   8.237   3.040
85550SOL    HW258490   4.295   8.308   2.988
85551SOL     OW58491   9.071   0.708   3.027
85551SOL    HW158492   9.039   0.630   2.982
85551SOL    HW258493   9.117   0.758   2.960
85552SOL     OW58494   0.131   1.549  14.215
85552SOL    HW158495   0.208   1.604  14.228
85552SOL    HW258496   0.108   1.561  14.123
85553SOL     OW58497  14.226   4.707  11.296
85553SOL    HW158498  14.279   4.772  11.248
85553SOL    HW258499  14.137   4.722  11.263
85554SOL     OW58500  12.121   4.096   7.011
85554SOL    HW158501  12.086   4.087   7.100
85554SOL    HW258502  12.133   4.190   7.000
85555SOL     OW58503   6.885  10.119   6.020
85555SOL    HW158504   6.834  10.069   6.084
85555SOL    HW258505   6.932  10.051   5.970
85556SOL     OW58506   9.351   4.731   0.016
85556SOL    HW158507   9.440   4.708   0.045
85556SOL    HW258508   9.306   4.646   0.009
85557SOL     OW58509   0.187  13.389   3.578
85557SOL    HW158510   0.258  13.342   3.623
85557SOL    HW258511   0.208  13.481   3.588
85558SOL     OW58512   6.160  14.670   9.385
85558SOL    HW158513   6.180  14.737   9.319
85558SOL    HW258514   6.104  14.715   9.448
85559SOL     OW58515   0.804   4.878   3.871
85559SOL    HW158516   0.874   4.901   3.932
85559SOL    HW258517   0.845   4.881   3.785
85560SOL     OW58518   4.148   3.835   4.957
85560SOL    HW158519   4.225   3.891   4.958
85560SOL    HW258520   4.078   3.891   4.923
85561SOL     OW58521  11.299   2.382   0.735
85561SOL    HW158522  11.296   2.306   0.793
85561SOL    HW258523  11.378   2.370   0.683
85562SOL     OW58524  10.198  12.172  10.505
85562SOL    HW158525  10.107  12.144  10.517
85562SOL    HW258526  10.221  12.213  10.588
85563SOL     OW58527   0.824   9.063  10.202
85563SOL    HW158528   0.739   9.070  10.158
85563SOL    HW258529   0.876   9.006  10.145
85564SOL     OW58530  12.536  13.038   4.584
85564SOL    HW158531  12.465  13.008   4.528
85564SOL    HW258532  12.501  13.115   4.629
85565SOL     OW58533   6.250   5.196   1.697
85565SOL    HW158534   6.156   5.205   1.684
85565SOL    HW258535   6.289   5.255   1.632
85566SOL     OW58536   5.887   7.631  13.926
85566SOL    HW158537   5.877   7.598  13.837
85566SOL    HW258538   5.967   7.683  13.924
85567SOL     OW58539   4.944   5.786   8.621
85567SOL    HW158540   4.902   5.737   8.550
85567SOL    HW258541   4.997   5.720   8.668
85568SOL     OW58542  13.518   8.834   4.315
85568SOL    HW158543  13.443   8.804   4.265
85568SOL    HW258544  13.497   8.811   4.406
85569SOL     OW58545  14.537   6.465  12.377
85569SOL    HW158546  14.574   6.549  12.350
85569SOL    HW258547  14.455   6.458  12.327
85570SOL     OW58548  14.406   8.030  11.868
85570SOL    HW158549  14.491   8.057  11.833
85570SOL    HW258550  14.383   7.953  11.817
85571SOL     OW58551   2.227   5.404  12.478
85571SOL    HW158552   2.296   5.397  12.412
85571SOL    HW258553   2.212   5.498  12.488
85572SOL     OW58554   5.182   2.266   8.635
85572SOL    HW158555   5.204   2.350   8.676
85572SOL    HW258556   5.125   2.223   8.698
85573SOL     OW58557   5.538   5.606  14.701
85573SOL    HW158558   5.632   5.600  14.687
85573SOL    HW258559   5.499   5.562  14.625
85574SOL     OW58560   2.144  11.474   4.799
85574SOL    HW158561   2.107  11.461   4.886
85574SOL    HW258562   2.184  11.561   4.802
85575SOL     OW58563  10.568   7.530   8.646
85575SOL    HW158564  10.579   7.624   8.632
85575SOL    HW258565  10.475   7.514   8.633
85576SOL     OW58566  11.726  12.300   1.751
85576SOL    HW158567  11.666  12.302   1.826
85576SOL    HW258568  11.715  12.212   1.714
85577SOL     OW58569   2.798  12.478   5.091
85577SOL    HW158570   2.892  12.464   5.077
85577SOL    HW258571   2.762  12.485   5.002
85578SOL     OW58572  13.310  14.327  10.754
85578SOL    HW158573  13.314  14.421  10.735
85578SOL    HW258574  13.388  14.310  10.806
85579SOL     OW58575   1.478   4.353   6.935
85579SOL    HW158576   1.414   4.288   6.965
85579SOL    HW258577   1.426   4.433   6.923
85580SOL     OW58578   6.881   2.767  12.123
85580SOL    HW158579   6.959   2.744  12.175
85580SOL    HW258580   6.816   2.794  12.187
85581SOL     OW58581  11.269  11.193   3.987
85581SOL    HW158582  11.248  11.117   3.932
85581SOL    HW258583  11.185  11.240   3.995
85582SOL     OW58584   7.382  13.603   6.584
85582SOL    HW158585   7.407  13.684   6.541
85582SOL    HW258586   7.294  13.584   6.552
85583SOL     OW58587   3.400   8.956   9.340
85583SOL    HW158588   3.495   8.945   9.348
85583SOL    HW258589   3.388   9.051   9.332
85584SOL     OW58590   4.476   2.175   9.825
85584SOL    HW158591   4.423   2.118   9.769
85584SOL    HW258592   4.555   2.125   9.843
85585SOL     OW58593  10.324   3.971   0.501
85585SOL    HW158594  10.236   3.931   0.494
85585SOL    HW258595  10.381   3.897   0.523
85586SOL     OW58596  10.428   9.031   6.467
85586SOL    HW158597  10.480   8.955   6.492
85586SOL    HW258598  10.428   9.086   6.545
85587SOL     OW58599   5.547   1.692   6.955
85587SOL    HW158600   5.460   1.654   6.966
85587SOL    HW258601   5.592   1.672   7.038
85588SOL     OW58602   1.011  11.668  14.560
85588SOL    HW158603   1.077  11.731  14.587
85588SOL    HW258604   1.043  11.583  14.592
85589SOL     OW58605   1.766   0.759  11.680
85589SOL    HW158606   1.847   0.803  11.705
85589SOL    HW258607   1.737   0.715  11.760
85590SOL     OW58608   4.955  10.901   5.909
85590SOL    HW158609   5.032  10.956   5.896
85590SOL    HW258610   4.941  10.859   5.823
85591SOL     OW58611  10.225   8.671   2.947
85591SOL    HW158612  10.227   8.766   2.946
85591SOL    HW258613  10.251   8.646   2.858
85592SOL     OW58614   4.463   9.786  14.161
85592SOL    HW158615   4.503   9.701  14.141
85592SOL    HW258616   4.533   9.849  14.148
85593SOL     OW58617   9.230  11.562  14.640
85593SOL    HW158618   9.312  11.610  14.650
85593SOL    HW258619   9.162  11.629  14.650
85594SOL     OW58620   8.472  10.541  12.948
85594SOL    HW158621   8.485  10.503  13.035
85594SOL    HW258622   8.472  10.636  12.964
85595SOL     OW58623   7.579   1.117   3.662
85595SOL    HW158624   7.537   1.196   3.697
85595SOL    HW258625   7.549   1.112   3.571
85596SOL     OW58626  10.385   5.576   4.592
85596SOL    HW158627  10.472   5.547   4.565
85596SOL    HW258628  10.324   5.524   4.539
85597SOL     OW58629   2.748   4.945  11.418
85597SOL    HW158630   2.785   5.032  11.434
85597SOL    HW258631   2.790   4.889  11.482
85598SOL     OW58632   4.574   9.420  14.360
85598SOL    HW158633   4.629   9.493  14.332
85598SOL    HW258634   4.510   9.409  14.289
85599SOL     OW58635   1.412  13.564   6.419
85599SOL    HW158636   1.482  13.611   6.465
85599SOL    HW258637   1.336  13.571   6.477
85600SOL     OW58638  10.622   5.763   4.257
85600SOL    HW158639  10.638   5.669   4.265
85600SOL    HW258640  10.544   5.779   4.311
85601SOL     OW58641   6.036  10.767   1.774
85601SOL    HW158642   5.993  10.697   1.823
85601SOL    HW258643   6.017  10.847   1.823
85602SOL     OW58644  13.234  13.274  12.670
85602SOL    HW158645  13.170  13.247  12.605
85602SOL    HW258646  13.295  13.331  12.623
85603SOL     OW58647   7.475   4.435   9.636
85603SOL    HW158648   7.415   4.505   9.661
85603SOL    HW258649   7.562   4.475   9.638
85604SOL     OW58650   5.638   9.932   7.098
85604SOL    HW158651   5.565   9.965   7.151
85604SOL    HW258652   5.596   9.894   7.021
85605SOL     OW58653   1.839   0.703  13.864
85605SOL    HW158654   1.783   0.689  13.941
85605SOL    HW258655   1.839   0.798  13.851
85606SOL     OW58656   6.027  12.154   0.335
85606SOL    HW158657   6.074  12.129   0.414
85606SOL    HW258658   6.083  12.219   0.293
85607SOL     OW58659  11.026  14.641   8.027
85607SOL    HW158660  11.063  14.668   8.111
85607SOL    HW258661  11.017  14.722   7.977
85608SOL     OW58662  11.726   9.364   1.387
85608SOL    HW158663  11.741   9.311   1.465
85608SOL    HW258664  11.792   9.334   1.325
85609SOL     OW58665   3.748  13.313   7.324
85609SOL    HW158666   3.812  13.253   7.286
85609SOL    HW258667   3.729  13.278   7.411
85610SOL     OW58668  13.614   3.021   8.886
85610SOL    HW158669  13.673   2.988   8.954
85610SOL    HW258670  13.595   3.111   8.913
85611SOL     OW58671  12.294  11.077   1.476
85611SOL    HW158672  12.269  11.127   1.399
85611SOL    HW258673  12.316  11.143   1.542
85612SOL     OW58674   5.836   3.245   8.341
85612SOL    HW158675   5.892   3.315   8.376
85612SOL    HW258676   5.893   3.195   8.284
85613SOL     OW58677   4.849  13.314   6.819
85613SOL    HW158678   4.941  13.287   6.820
85613SOL    HW258679   4.852  13.409   6.811
85614SOL     OW58680   3.992   5.055  14.448
85614SOL    HW158681   3.897   5.046  14.441
85614SOL    HW258682   4.008   5.067  14.541
85615SOL     OW58683   5.803  14.711  11.628
85615SOL    HW158684   5.871  14.711  11.561
85615SOL    HW258685   5.729  14.756  11.587
85616SOL     OW58686   1.695  14.010  11.053
85616SOL    HW158687   1.670  14.008  11.146
85616SOL    HW258688   1.776  13.959  11.049
85617SOL     OW58689   0.588   9.750   3.140
85617SOL    HW158690   0.506   9.717   3.105
85617SOL    HW258691   0.588   9.722   3.232
85618SOL     OW58692  10.628  12.678   9.163
85618SOL    HW158693  10.640  12.772   9.174
85618SOL    HW258694  10.717  12.644   9.152
85619SOL     OW58695  10.908   4.035   0.499
85619SOL    HW158696  10.972   4.012   0.566
85619SOL    HW258697  10.918   3.967   0.432
85620SOL     OW58698  12.487   9.524  10.999
85620SOL    HW158699  12.551   9.493  10.935
85620SOL    HW258700  12.403   9.491  10.968
85621SOL     OW58701   4.037   0.455  13.370
85621SOL    HW158702   3.993   0.441  13.454
85621SOL    HW258703   3.967   0.454  13.305
85622SOL     OW58704  10.595   3.877   9.840
85622SOL    HW158705  10.659   3.895   9.771
85622SOL    HW258706  10.630   3.921   9.917
85623SOL     OW58707   8.908  13.152  12.416
85623SOL    HW158708   8.924  13.127  12.507
85623SOL    HW258709   8.849  13.084  12.383
85624SOL     OW58710   9.040   4.403   9.659
85624SOL    HW158711   9.074   4.314   9.662
85624SOL    HW258712   8.984   4.409   9.737
85625SOL     OW58713  14.200  13.702   6.108
85625SOL    HW158714  14.180  13.721   6.199
85625SOL    HW258715  14.169  13.613   6.094
85626SOL     OW58716  14.152  11.465  11.055
85626SOL    HW158717  14.144  11.459  10.960
85626SOL    HW258718  14.243  11.442  11.073
85627SOL     OW58719  11.110  10.158   5.956
85627SOL    HW158720  11.151  10.239   5.987
85627SOL    HW258721  11.149  10.089   6.009
85628SOL     OW58722   9.312  14.075   3.320
85628SOL    HW158723   9.364  14.134   3.266
85628SOL    HW258724   9.348  14.086   3.409
85629SOL     OW58725   7.595   0.841   4.770
85629SOL    HW158726   7.664   0.904   4.750
85629SOL    HW258727   7.551   0.877   4.847
85630SOL     OW58728  11.861   2.851   8.606
85630SOL    HW158729  11.951   2.883   8.601
85630SOL    HW258730  11.810   2.916   8.557
85631SOL     OW58731   7.608   5.461   7.170
85631SOL    HW158732   7.535   5.465   7.108
85631SOL    HW258733   7.567   5.449   7.256
85632SOL     OW58734   3.114  14.083  12.108
85632SOL    HW158735   3.200  14.125  12.103
85632SOL    HW258736   3.099  14.070  12.201
85633SOL     OW58737   9.819   4.384   1.510
85633SOL    HW158738   9.763   4.419   1.579
85633SOL    HW258739   9.897   4.353   1.556
85634SOL     OW58740   0.446   3.050   8.504
85634SOL    HW158741   0.378   2.993   8.540
85634SOL    HW258742   0.401   3.102   8.437
85635SOL     OW58743   6.210  14.283  13.515
85635SOL    HW158744   6.294  14.309  13.477
85635SOL    HW258745   6.189  14.354  13.577
85636SOL     OW58746   3.742   6.706   6.218
85636SOL    HW158747   3.771   6.776   6.160
85636SOL    HW258748   3.820   6.684   6.270
85637SOL     OW58749   5.815   3.114   7.991
85637SOL    HW158750   5.726   3.095   8.020
85637SOL    HW258751   5.806   3.132   7.898
85638SOL     OW58752   9.337  10.332   7.832
85638SOL    HW158753   9.244  10.317   7.819
85638SOL    HW258754   9.347  10.427   7.829
85639SOL     OW58755   4.644   0.963  14.024
85639SOL    HW158756   4.728   0.928  14.053
85639SOL    HW258757   4.580   0.899  14.054
85640SOL     OW58758   5.034  13.760   9.555
85640SOL    HW158759   4.944  13.737   9.576
85640SOL    HW258760   5.057  13.828   9.617
85641SOL     OW58761   8.250   3.820   2.254
85641SOL    HW158762   8.268   3.906   2.294
85641SOL    HW258763   8.231   3.840   2.163
85642SOL     OW58764   2.924  14.581   8.539
85642SOL    HW158765   2.938  14.645   8.469
85642SOL    HW258766   2.866  14.626   8.601
85643SOL     OW58767  14.687  13.047   8.092
85643SOL    HW158768  14.606  13.012   8.055
85643SOL    HW258769  14.755  12.985   8.062
85644SOL     OW58770   8.963   1.657   9.429
85644SOL    HW158771   8.981   1.744   9.464
85644SOL    HW258772   8.891   1.624   9.483
85645SOL     OW58773  11.394  12.321   4.499
85645SOL    HW158774  11.477  12.365   4.482
85645SOL    HW258775  11.414  12.228   4.495
85646SOL     OW58776   6.132   1.953  11.797
85646SOL    HW158777   6.189   2.026  11.772
85646SOL    HW258778   6.099   1.977  11.884
85647SOL     OW58779   1.557   4.067   3.861
85647SOL    HW158780   1.637   4.088   3.909
85647SOL    HW258781   1.586   4.055   3.770
85648SOL     OW58782  14.227  13.848   8.856
85648SOL    HW158783  14.310  13.887   8.830
85648SOL    HW258784  14.220  13.768   8.804
85649SOL     OW58785  13.459   0.983   5.523
85649SOL    HW158786  13.525   0.926   5.484
85649SOL    HW258787  13.375   0.940   5.504
85650SOL     OW58788   4.212   3.882   9.007
85650SOL    HW158789   4.233   3.904   9.097
85650SOL    HW258790   4.235   3.960   8.957
85651SOL     OW58791   7.783  14.765   1.427
85651SOL    HW158792   7.692  14.772   1.458
85651SOL    HW258793   7.801  14.850   1.387
85652SOL     OW58794   7.772   1.697   8.820
85652SOL    HW158795   7.857   1.740   8.818
85652SOL    HW258796   7.745   1.699   8.912
85653SOL     OW58797  10.501  10.864   3.242
85653SOL    HW158798  10.488  10.776   3.206
85653SOL    HW258799  10.413  10.900   3.250
85654SOL     OW58800   2.876   7.578   0.540
85654SOL    HW158801   2.965   7.543   0.541
85654SOL    HW258802   2.820   7.501   0.550
85655SOL     OW58803   7.103  10.178   1.804
85655SOL    HW158804   7.035  10.117   1.777
85655SOL    HW258805   7.180  10.151   1.753
85656SOL     OW58806  14.286  13.960   1.374
85656SOL    HW158807  14.291  13.974   1.468
85656SOL    HW258808  14.373  13.930   1.349
85657SOL     OW58809   6.093   1.865  13.233
85657SOL    HW158810   6.047   1.859  13.316
85657SOL    HW258811   6.091   1.958  13.210
85658SOL     OW58812   4.742   1.350   4.978
85658SOL    HW158813   4.763   1.282   5.043
85658SOL    HW258814   4.659   1.321   4.940
85659SOL     OW58815   2.343  14.767   3.236
85659SOL    HW158816   2.277  14.716   3.282
85659SOL    HW258817   2.367  14.837   3.297
85660SOL     OW58818  12.288   9.832  10.750
85660SOL    HW158819  12.238   9.905  10.789
85660SOL    HW258820  12.264   9.756  10.802
85661SOL     OW58821   0.810   9.199   5.969
85661SOL    HW158822   0.770   9.162   5.891
85661SOL    HW258823   0.783   9.141   6.040
85662SOL     OW58824   5.890   1.195   7.668
85662SOL    HW158825   5.958   1.131   7.648
85662SOL    HW258826   5.912   1.228   7.755
85663SOL     OW58827  10.073   5.624  12.497
85663SOL    HW158828  10.001   5.598  12.439
85663SOL    HW258829  10.088   5.547  12.552
85664SOL     OW58830   2.297   5.714  13.229
85664SOL    HW158831   2.230   5.773  13.264
85664SOL    HW258832   2.351   5.691  13.305
85665SOL     OW58833  11.614   7.851   9.069
85665SOL    HW158834  11.536   7.810   9.106
85665SOL    HW258835  11.655   7.782   9.017
85666SOL     OW58836   5.873  10.863   8.146
85666SOL    HW158837   5.852  10.778   8.109
85666SOL    HW258838   5.880  10.848   8.240
85667SOL     OW58839   1.335  11.200  13.989
85667SOL    HW158840   1.359  11.116  14.027
85667SOL    HW258841   1.247  11.218  14.022
85668SOL     OW58842   5.163  12.724  10.585
85668SOL    HW158843   5.160  12.629  10.571
85668SOL    HW258844   5.071  12.751  10.584
85669SOL     OW58845   8.625   6.000  10.574
85669SOL    HW158846   8.708   6.048  10.571
85669SOL    HW258847   8.561   6.065  10.603
85670SOL     OW58848   4.808   0.220   1.449
85670SOL    HW158849   4.800   0.285   1.380
85670SOL    HW258850   4.864   0.152   1.412
85671SOL     OW58851  11.532   4.322  13.358
85671SOL    HW158852  11.567   4.384  13.295
85671SOL    HW258853  11.515   4.375  13.436
85672SOL     OW58854  13.114   5.891   9.862
85672SOL    HW158855  13.117   5.927   9.950
85672SOL    HW258856  13.143   5.800   9.871
85673SOL     OW58857  13.014   0.132   3.213
85673SOL    HW158858  12.935   0.138   3.268
85673SOL    HW258859  13.046   0.222   3.207
85674SOL     OW58860   5.730   4.230   3.409
85674SOL    HW158861   5.747   4.246   3.316
85674SOL    HW258862   5.802   4.274   3.455
85675SOL     OW58863  10.708   9.050  12.398
85675SOL    HW158864  10.677   9.104  12.470
85675SOL    HW258865  10.784   9.004  12.433
85676SOL     OW58866   9.571   1.977  12.271
85676SOL    HW158867   9.605   1.967  12.182
85676SOL    HW258868   9.605   2.061  12.300
85677SOL     OW58869   1.079   2.072  13.139
85677SOL    HW158870   1.129   2.014  13.081
85677SOL    HW258871   1.018   2.117  13.080
85678SOL     OW58872  13.617  11.343   4.036
85678SOL    HW158873  13.531  11.385   4.034
85678SOL    HW258874  13.612  11.279   4.106
85679SOL     OW58875  12.140  14.399  10.711
85679SOL    HW158876  12.100  14.313  10.697
85679SOL    HW258877  12.171  14.397  10.802
85680SOL     OW58878   4.099   9.419   7.670
85680SOL    HW158879   4.161   9.363   7.717
85680SOL    HW258880   4.100   9.385   7.580
85681SOL     OW58881   0.080   7.768   6.241
85681SOL    HW158882   0.167   7.737   6.268
85681SOL    HW258883   0.044   7.808   6.320
85682SOL     OW58884   7.504  11.421   4.437
85682SOL    HW158885   7.432  11.374   4.396
85682SOL    HW258886   7.500  11.396   4.529
85683SOL     OW58887  11.139   6.119   9.149
85683SOL    HW158888  11.230   6.148   9.154
85683SOL    HW258889  11.144   6.024   9.136
85684SOL     OW58890   4.726   9.260   6.789
85684SOL    HW158891   4.758   9.341   6.829
85684SOL    HW258892   4.804   9.208   6.772
85685SOL     OW58893  11.205   6.839  13.637
85685SOL    HW158894  11.155   6.912  13.600
85685SOL    HW258895  11.283   6.879  13.674
85686SOL     OW58896   5.049   3.721   6.633
85686SOL    HW158897   5.134   3.679   6.645
85686SOL    HW258898   5.018   3.689   6.548
85687SOL     OW58899   0.124   0.430   0.494
85687SOL    HW158900   0.102   0.414   0.402
85687SOL    HW258901   0.066   0.372   0.543
85688SOL     OW58902   3.007  12.131   3.829
85688SOL    HW158903   2.959  12.056   3.793
85688SOL    HW258904   3.052  12.096   3.905
85689SOL     OW58905   5.288   1.070   0.346
85689SOL    HW158906   5.309   1.023   0.265
85689SOL    HW258907   5.262   1.001   0.407
85690SOL     OW58908  11.939   1.085   5.932
85690SOL    HW158909  11.924   1.146   5.860
85690SOL    HW258910  11.852   1.052   5.954
85691SOL     OW58911   4.870   3.196   3.261
85691SOL    HW158912   4.786   3.215   3.301
85691SOL    HW258913   4.849   3.141   3.185
85692SOL     OW58914   7.008   4.757   9.485
85692SOL    HW158915   7.087   4.729   9.440
85692SOL    HW258916   6.948   4.783   9.416
85693SOL     OW58917  14.549   5.370   9.939
85693SOL    HW158918  14.486   5.408  10.001
85693SOL    HW258919  14.524   5.278   9.933
85694SOL     OW58920   1.698   2.053  10.040
85694SOL    HW158921   1.673   2.115  10.108
85694SOL    HW258922   1.640   1.979  10.052
85695SOL     OW58923   7.512   9.696   1.389
85695SOL    HW158924   7.449   9.664   1.455
85695SOL    HW258925   7.457   9.731   1.319
85696SOL     OW58926  11.921   8.601  10.498
85696SOL    HW158927  11.857   8.565  10.437
85696SOL    HW258928  12.001   8.609  10.445
85697SOL     OW58929   3.336  12.330  14.324
85697SOL    HW158930   3.431  12.323  14.324
85697SOL    HW258931   3.305  12.247  14.289
85698SOL     OW58932  11.491  12.340   3.445
85698SOL    HW158933  11.453  12.370   3.528
85698SOL    HW258934  11.496  12.244   3.454
85699SOL     OW58935  12.305  10.992   5.436
85699SOL    HW158936  12.284  10.901   5.413
85699SOL    HW258937  12.272  11.043   5.362
85700SOL     OW58938  12.713   7.809  10.585
85700SOL    HW158939  12.732   7.871  10.656
85700SOL    HW258940  12.694   7.727  10.630
85701SOL     OW58941   8.204  11.017   3.394
85701SOL    HW158942   8.178  11.031   3.485
85701SOL    HW258943   8.150  10.943   3.365
85702SOL     OW58944   8.169  11.161   1.033
85702SOL    HW158945   8.228  11.097   1.073
85702SOL    HW258946   8.114  11.191   1.106
85703SOL     OW58947   2.301   4.475  12.985
85703SOL    HW158948   2.242   4.406  12.955
85703SOL    HW258949   2.387   4.433  12.987
85704SOL     OW58950   4.942   7.911  14.583
85704SOL    HW158951   4.861   7.960  14.568
85704SOL    HW258952   4.965   7.931  14.674
85705SOL     OW58953   3.277  14.285   6.717
85705SOL    HW158954   3.257  14.374   6.687
85705SOL    HW258955   3.239  14.228   6.650
85706SOL     OW58956   5.570   7.893   9.542
85706SOL    HW158957   5.526   7.944   9.610
85706SOL    HW258958   5.608   7.819   9.589
85707SOL     OW58959  13.905  12.013   1.972
85707SOL    HW158960  13.956  11.960   2.033
85707SOL    HW258961  13.928  11.980   1.885
85708SOL     OW58962   2.953  10.531   1.178
85708SOL    HW158963   2.954  10.436   1.164
85708SOL    HW258964   2.895  10.564   1.110
85709SOL     OW58965  13.151   8.387  11.941
85709SOL    HW158966  13.223   8.406  12.001
85709SOL    HW258967  13.096   8.465  11.944
85710SOL     OW58968   1.380   6.737  10.357
85710SOL    HW158969   1.467   6.772  10.333
85710SOL    HW258970   1.356   6.785  10.436
85711SOL     OW58971  11.817   5.810  12.305
85711SOL    HW158972  11.798   5.885  12.248
85711SOL    HW258973  11.751   5.745  12.282
85712SOL     OW58974  10.066   1.545   7.556
85712SOL    HW158975  10.004   1.473   7.545
85712SOL    HW258976  10.113   1.525   7.637
85713SOL     OW58977   0.205   1.435   6.769
85713SOL    HW158978   0.210   1.345   6.736
85713SOL    HW258979   0.295   1.468   6.762
85714SOL     OW58980   2.079   4.887  12.097
85714SOL    HW158981   2.024   4.944  12.151
85714SOL    HW258982   2.162   4.882  12.145
85715SOL     OW58983   5.508   6.508   8.205
85715SOL    HW158984   5.474   6.595   8.229
85715SOL    HW258985   5.574   6.489   8.271
85716SOL     OW58986   3.365   5.715   0.586
85716SOL    HW158987   3.350   5.694   0.494
85716SOL    HW258988   3.459   5.699   0.599
85717SOL     OW58989   8.041   9.493   0.943
85717SOL    HW158990   7.952   9.527   0.947
85717SOL    HW258991   8.065   9.498   0.851
85718SOL     OW58992   3.345  11.815   1.499
85718SOL    HW158993   3.275  11.759   1.530
85718SOL    HW258994   3.424  11.783   1.544
85719SOL     OW58995   7.547   2.757   0.059
85719SOL    HW158996   7.511   2.845   0.046
85719SOL    HW258997   7.473   2.706   0.091
85720SOL     OW58998  10.223   2.646  14.525
85720SOL    HW158999  10.209   2.667  14.617
85720SOL    HW259000  10.241   2.730  14.483
85721SOL     OW59001   8.923   5.064   9.623
85721SOL    HW159002   8.935   4.996   9.557
85721SOL    HW259003   8.969   5.140   9.588
85722SOL     OW59004   8.368   7.182  11.751
85722SOL    HW159005   8.329   7.264  11.782
85722SOL    HW259006   8.347   7.179  11.658
85723SOL     OW59007   7.648   1.558   8.231
85723SOL    HW159008   7.649   1.530   8.139
85723SOL    HW259009   7.736   1.593   8.246
85724SOL     OW59010   7.414  13.252   3.089
85724SOL    HW159011   7.489  13.215   3.044
85724SOL    HW259012   7.345  13.255   3.023
85725SOL     OW59013   7.181  10.027  13.459
85725SOL    HW159014   7.250  10.082  13.495
85725SOL    HW259015   7.113  10.026  13.526
85726SOL     OW59016   0.310   9.003   7.725
85726SOL    HW159017   0.315   8.908   7.726
85726SOL    HW259018   0.362   9.028   7.648
85727SOL     OW59019   3.424   9.932  12.726
85727SOL    HW159020   3.415   9.916  12.820
85727SOL    HW259021   3.503   9.985  12.719
85728SOL     OW59022   8.451   3.314  10.542
85728SOL    HW159023   8.413   3.226  10.544
85728SOL    HW259024   8.455   3.340  10.633
85729SOL     OW59025  13.660   6.737   9.484
85729SOL    HW159026  13.602   6.711   9.413
85729SOL    HW259027  13.660   6.832   9.482
85730SOL     OW59028   7.412   0.862   2.854
85730SOL    HW159029   7.434   0.924   2.785
85730SOL    HW259030   7.336   0.901   2.897
85731SOL     OW59031  13.887  11.492  10.830
85731SOL    HW159032  13.902  11.490  10.925
85731SOL    HW259033  13.795  11.470  10.820
85732SOL     OW59034   5.200   8.114   8.716
85732SOL    HW159035   5.200   8.094   8.810
85732SOL    HW259036   5.290   8.096   8.688
85733SOL     OW59037   3.030   6.801   7.009
85733SOL    HW159038   3.052   6.805   6.916
85733SOL    HW259039   3.070   6.879   7.047
85734SOL     OW59040   7.284   0.930   2.543
85734SOL    HW159041   7.357   0.967   2.592
85734SOL    HW259042   7.305   0.837   2.536
85735SOL     OW59043   1.396  12.989   3.693
85735SOL    HW159044   1.437  13.028   3.616
85735SOL    HW259045   1.382  12.897   3.669
85736SOL     OW59046   3.226   1.727   2.719
85736SOL    HW159047   3.176   1.809   2.726
85736SOL    HW259048   3.202   1.678   2.797
85737SOL     OW59049  12.126   7.366   4.085
85737SOL    HW159050  12.065   7.383   4.013
85737SOL    HW259051  12.100   7.280   4.119
85738SOL     OW59052  10.716  14.278   3.425
85738SOL    HW159053  10.636  14.237   3.391
85738SOL    HW259054  10.707  14.371   3.401
85739SOL     OW59055   8.648   7.730   0.176
85739SOL    HW159056   8.701   7.760   0.250
85739SOL    HW259057   8.710   7.685   0.119
85740SOL     OW59058   8.043   0.279   1.268
85740SOL    HW159059   8.063   0.352   1.327
85740SOL    HW259060   8.126   0.232   1.260
85741SOL     OW59061   3.372   8.206  12.551
85741SOL    HW159062   3.417   8.173  12.629
85741SOL    HW259063   3.283   8.171  12.558
85742SOL     OW59064   0.544   9.496   9.023
85742SOL    HW159065   0.578   9.555   9.090
85742SOL    HW259066   0.579   9.410   9.045
85743SOL     OW59067   0.273   7.786   2.553
85743SOL    HW159068   0.218   7.722   2.598
85743SOL    HW259069   0.348   7.799   2.611
85744SOL     OW59070   3.369  14.082   4.835
85744SOL    HW159071   3.385  14.088   4.741
85744SOL    HW259072   3.454  14.057   4.872
85745SOL     OW59073  10.252   0.910   7.533
85745SOL    HW159074  10.246   1.005   7.522
85745SOL    HW259075  10.287   0.878   7.450
85746SOL     OW59076  13.017   9.679   0.165
85746SOL    HW159077  13.113   9.678   0.168
85746SOL    HW259078  12.992   9.762   0.206
85747SOL     OW59079   9.294  10.730   2.612
85747SOL    HW159080   9.372  10.763   2.568
85747SOL    HW259081   9.223  10.782   2.576
85748SOL     OW59082   6.999   9.346   9.535
85748SOL    HW159083   7.076   9.310   9.491
85748SOL    HW259084   6.988   9.291   9.613
85749SOL     OW59085  13.453  13.902   9.106
85749SOL    HW159086  13.358  13.908   9.105
85749SOL    HW259087  13.477  13.883   9.015
85750SOL     OW59088   8.332  10.293   7.717
85750SOL    HW159089   8.417  10.304   7.759
85750SOL    HW259090   8.275  10.354   7.762
85751SOL     OW59091   5.124   6.023  11.567
85751SOL    HW159092   5.120   5.966  11.644
85751SOL    HW259093   5.207   6.069  11.576
85752SOL     OW59094   2.613  11.218   9.978
85752SOL    HW159095   2.680  11.175   9.925
85752SOL    HW259096   2.617  11.310   9.951
85753SOL     OW59097   3.089   8.944   0.722
85753SOL    HW159098   3.005   8.940   0.768
85753SOL    HW259099   3.093   8.863   0.673
85754SOL     OW59100  12.012   0.947  11.781
85754SOL    HW159101  11.979   0.983  11.864
85754SOL    HW259102  11.947   0.882  11.755
85755SOL     OW59103   4.479   5.719   1.385
85755SOL    HW159104   4.502   5.789   1.446
85755SOL    HW259105   4.383   5.721   1.382
85756SOL     OW59106   4.908   3.419   9.648
85756SOL    HW159107   4.930   3.511   9.632
85756SOL    HW259108   4.813   3.415   9.638
85757SOL     OW59109   0.003  12.430   2.529
85757SOL    HW159110  14.805  12.370   2.505
85757SOL    HW259111  14.852  12.463   2.616
85758SOL     OW59112   0.014   5.902   1.005
85758SOL    HW159113   0.022   5.970   0.938
85758SOL    HW259114  14.865   5.822   0.957
85759SOL     OW59115  12.887  13.050   6.595
85759SOL    HW159116  12.922  13.095   6.672
85759SOL    HW259117  12.863  13.121   6.534
85760SOL     OW59118   9.167   0.415   1.324
85760SOL    HW159119   9.160   0.332   1.371
85760SOL    HW259120   9.230   0.397   1.254
85761SOL     OW59121   1.462   6.128  12.453
85761SOL    HW159122   1.400   6.100  12.521
85761SOL    HW259123   1.442   6.070  12.379
85762SOL     OW59124  14.397   9.378   2.802
85762SOL    HW159125  14.370   9.324   2.727
85762SOL    HW259126  14.488   9.353   2.818
85763SOL     OW59127  10.113   7.232   9.973
85763SOL    HW159128  10.203   7.205   9.994
85763SOL    HW259129  10.118   7.327   9.965
85764SOL     OW59130   2.234   3.007   0.520
85764SOL    HW159131   2.166   3.055   0.567
85764SOL    HW259132   2.194   2.986   0.435
85765SOL     OW59133   8.265   5.936  10.898
85765SOL    HW159134   8.316   5.895  10.828
85765SOL    HW259135   8.179   5.895  10.892
85766SOL     OW59136   7.127  12.034  11.291
85766SOL    HW159137   7.119  12.101  11.222
85766SOL    HW259138   7.051  11.978  11.279
85767SOL     OW59139   8.182  12.937   9.528
85767SOL    HW159140   8.142  12.851   9.515
85767SOL    HW259141   8.134  12.995   9.470
85768SOL     OW59142   6.125   7.211  11.746
85768SOL    HW159143   6.198   7.198  11.686
85768SOL    HW259144   6.165   7.208  11.833
85769SOL     OW59145   0.453   2.664   6.455
85769SOL    HW159146   0.508   2.649   6.532
85769SOL    HW259147   0.514   2.661   6.381
85770SOL     OW59148   4.760   2.494  11.129
85770SOL    HW159149   4.836   2.526  11.080
85770SOL    HW259150   4.789   2.492  11.220
85771SOL     OW59151   1.880   2.623  12.378
85771SOL    HW159152   1.803   2.673  12.405
85771SOL    HW259153   1.932   2.613  12.458
85772SOL     OW59154   5.459   5.228  12.962
85772SOL    HW159155   5.485   5.277  12.884
85772SOL    HW259156   5.440   5.140  12.930
85773SOL     OW59157   6.028   9.944  11.846
85773SOL    HW159158   6.011  10.032  11.811
85773SOL    HW259159   6.122   9.943  11.863
85774SOL     OW59160  11.967   1.236   4.320
85774SOL    HW159161  11.890   1.260   4.371
85774SOL    HW259162  12.041   1.261   4.375
85775SOL     OW59163   3.575  10.191   0.254
85775SOL    HW159164   3.636  10.200   0.328
85775SOL    HW259165   3.595  10.104   0.218
85776SOL     OW59166   0.563   8.013  12.464
85776SOL    HW159167   0.652   7.999  12.498
85776SOL    HW259168   0.564   7.973  12.377
85777SOL     OW59169  13.431  13.534  12.008
85777SOL    HW159170  13.504  13.524  12.069
85777SOL    HW259171  13.445  13.465  11.943
85778SOL     OW59172  13.043  12.241   7.292
85778SOL    HW159173  13.071  12.322   7.249
85778SOL    HW259174  12.991  12.271   7.367
85779SOL     OW59175   3.404  10.370  13.379
85779SOL    HW159176   3.384  10.295  13.323
85779SOL    HW259177   3.397  10.336  13.469
85780SOL     OW59178   5.170  12.844   5.024
85780SOL    HW159179   5.208  12.756   5.015
85780SOL    HW259180   5.142  12.849   5.115
85781SOL     OW59181  11.286   4.119   3.310
85781SOL    HW159182  11.335   4.051   3.355
85781SOL    HW259183  11.206   4.129   3.362
85782SOL     OW59184   4.357   1.010  14.199
85782SOL    HW159185   4.294   1.005  14.271
85782SOL    HW259186   4.419   1.077  14.226
85783SOL     OW59187  13.336  13.196   3.004
85783SOL    HW159188  13.360  13.144   3.081
85783SOL    HW259189  13.386  13.156   2.933
85784SOL     OW59190   3.708   7.768  14.752
85784SOL    HW159191   3.798   7.796  14.736
85784SOL    HW259192   3.696   7.781  14.846
85785SOL     OW59193   1.115  10.167  13.840
85785SOL    HW159194   1.149  10.078  13.836
85785SOL    HW259195   1.080  10.183  13.752
85786SOL     OW59196  10.889   7.729   3.444
85786SOL    HW159197  10.939   7.658   3.484
85786SOL    HW259198  10.798   7.700   3.448
85787SOL     OW59199  14.472   3.736  12.807
85787SOL    HW159200  14.498   3.652  12.770
85787SOL    HW259201  14.460   3.793  12.731
85788SOL     OW59202  13.754   8.839   2.514
85788SOL    HW159203  13.827   8.779   2.501
85788SOL    HW259204  13.794   8.926   2.516
85789SOL     OW59205   8.202  11.663   0.336
85789SOL    HW159206   8.197  11.615   0.418
85789SOL    HW259207   8.291  11.646   0.304
85790SOL     OW59208   9.380  11.155   7.717
85790SOL    HW159209   9.296  11.201   7.715
85790SOL    HW259210   9.358  11.064   7.733
85791SOL     OW59211  14.817   2.770  13.674
85791SOL    HW159212  14.739   2.809  13.712
85791SOL    HW259213   0.017   2.821  13.710
85792SOL     OW59214   7.427   7.772   0.697
85792SOL    HW159215   7.468   7.855   0.671
85792SOL    HW259216   7.413   7.781   0.792
85793SOL     OW59217  10.367  10.791  14.015
85793SOL    HW159218  10.381  10.834  13.931
85793SOL    HW259219  10.454  10.788  14.056
85794SOL     OW59220   5.911   0.553  12.021
85794SOL    HW159221   5.828   0.508  12.040
85794SOL    HW259222   5.960   0.490  11.967
85795SOL     OW59223   6.375  11.527   7.547
85795SOL    HW159224   6.401  11.446   7.591
85795SOL    HW259225   6.303  11.561   7.601
85796SOL     OW59226   5.163   3.461   1.984
85796SOL    HW159227   5.156   3.533   1.922
85796SOL    HW259228   5.072   3.432   1.997
85797SOL     OW59229  13.950   0.410   7.437
85797SOL    HW159230  13.888   0.396   7.365
85797SOL    HW259231  14.036   0.396   7.397
85798SOL     OW59232  14.164   5.357  14.171
85798SOL    HW159233  14.076   5.318  14.178
85798SOL    HW259234  14.220   5.285  14.143
85799SOL     OW59235   3.241   2.360   0.751
85799SOL    HW159236   3.246   2.289   0.688
85799SOL    HW259237   3.173   2.418   0.718
85800SOL     OW59238   5.776   2.292  14.674
85800SOL    HW159239   5.684   2.295  14.647
85800SOL    HW259240   5.777   2.331  14.761
85801SOL     OW59241   1.998   7.454  13.181
85801SOL    HW159242   1.974   7.386  13.118
85801SOL    HW259243   1.949   7.433  13.260
85802SOL     OW59244  13.937   9.204  12.663
85802SOL    HW159245  13.968   9.130  12.610
85802SOL    HW259246  13.923   9.166  12.750
85803SOL     OW59247   6.065  13.676   9.746
85803SOL    HW159248   6.054  13.747   9.809
85803SOL    HW259249   5.976  13.648   9.725
85804SOL     OW59250   0.751   2.925   3.920
85804SOL    HW159251   0.694   2.979   3.975
85804SOL    HW259252   0.706   2.922   3.835
85805SOL     OW59253   1.781   7.165   2.815
85805SOL    HW159254   1.768   7.071   2.828
85805SOL    HW259255   1.768   7.178   2.721
85806SOL     OW59256   0.668  10.504  12.971
85806SOL    HW159257   0.681  10.518  12.877
85806SOL    HW259258   0.756  10.496  13.007
85807SOL     OW59259  11.622   6.377   4.567
85807SOL    HW159260  11.554   6.371   4.635
85807SOL    HW259261  11.614   6.467   4.535
85808SOL     OW59262  11.953   4.428  14.443
85808SOL    HW159263  11.869   4.384  14.434
85808SOL    HW259264  11.930   4.519  14.464
85809SOL     OW59265  13.518   1.045   9.684
85809SOL    HW159266  13.501   1.108   9.754
85809SOL    HW259267  13.600   1.003   9.708
85810SOL     OW59268   5.792   0.994   6.618
85810SOL    HW159269   5.877   0.991   6.573
85810SOL    HW259270   5.779   1.087   6.637
85811SOL     OW59271   3.702   0.306   0.464
85811SOL    HW159272   3.769   0.246   0.497
85811SOL    HW259273   3.670   0.352   0.541
85812SOL     OW59274  10.545  11.843  10.314
85812SOL    HW159275  10.483  11.872  10.246
85812SOL    HW259276  10.500  11.771  10.357
85813SOL     OW59277   6.231   4.556   4.670
85813SOL    HW159278   6.242   4.467   4.702
85813SOL    HW259279   6.145   4.583   4.702
85814SOL     OW59280   4.245  13.027   5.455
85814SOL    HW159281   4.306  13.019   5.528
85814SOL    HW259282   4.220  12.937   5.434
85815SOL     OW59283  12.953   9.843   1.333
85815SOL    HW159284  12.905   9.837   1.416
85815SOL    HW259285  13.040   9.810   1.354
85816SOL     OW59286  10.647  12.809   7.718
85816SOL    HW159287  10.605  12.852   7.793
85816SOL    HW259288  10.724  12.767   7.756
85817SOL     OW59289   1.943  13.582   1.959
85817SOL    HW159290   2.034  13.553   1.952
85817SOL    HW259291   1.923  13.577   2.052
85818SOL     OW59292   0.293   4.837   1.813
85818SOL    HW159293   0.379   4.797   1.804
85818SOL    HW259294   0.292   4.874   1.901
85819SOL     OW59295  11.249   2.446   2.477
85819SOL    HW159296  11.216   2.374   2.532
85819SOL    HW259297  11.181   2.512   2.481
85820SOL     OW59298   3.227   8.144  11.977
85820SOL    HW159299   3.149   8.191  11.949
85820SOL    HW259300   3.300   8.194  11.941
85821SOL     OW59301   9.568  11.980  13.928
85821SOL    HW159302   9.499  11.928  13.970
85821SOL    HW259303   9.531  12.003  13.843
85822SOL     OW59304   7.154  14.581  14.409
85822SOL    HW159305   7.089  14.651  14.413
85822SOL    HW259306   7.115  14.514  14.354
85823SOL     OW59307   1.475   4.990   3.619
85823SOL    HW159308   1.515   5.077   3.627
85823SOL    HW259309   1.382   5.005   3.636
85824SOL     OW59310   0.529   5.787   8.575
85824SOL    HW159311   0.503   5.740   8.496
85824SOL    HW259312   0.623   5.769   8.583
85825SOL     OW59313   2.326  12.071  12.270
85825SOL    HW159314   2.288  12.032  12.191
85825SOL    HW259315   2.274  12.150  12.285
85826SOL     OW59316   2.288   1.829   2.161
85826SOL    HW159317   2.259   1.742   2.186
85826SOL    HW259318   2.224   1.859   2.096
85827SOL     OW59319   8.198  12.639   3.776
85827SOL    HW159320   8.118  12.691   3.783
85827SOL    HW259321   8.167  12.549   3.762
85828SOL     OW59322   4.958   9.460   4.787
85828SOL    HW159323   4.984   9.464   4.695
85828SOL    HW259324   5.036   9.486   4.835
85829SOL     OW59325   4.746   9.405   0.053
85829SOL    HW159326   4.736   9.360   0.136
85829SOL    HW259327   4.786   9.489   0.076
85830SOL     OW59328  11.601   8.450   2.207
85830SOL    HW159329  11.539   8.433   2.277
85830SOL    HW259330  11.659   8.518   2.242
85831SOL     OW59331  13.963  13.204   4.160
85831SOL    HW159332  13.885  13.256   4.139
85831SOL    HW259333  14.031  13.269   4.175
85832SOL     OW59334   3.946  13.864   7.477
85832SOL    HW159335   3.870  13.918   7.498
85832SOL    HW259336   3.961  13.879   7.383
85833SOL     OW59337   4.415  13.287  12.139
85833SOL    HW159338   4.344  13.224  12.150
85833SOL    HW259339   4.462  13.286  12.222
85834SOL     OW59340   1.962   7.313   0.215
85834SOL    HW159341   1.879   7.326   0.261
85834SOL    HW259342   2.001   7.238   0.259
85835SOL     OW59343   6.841  11.323  14.419
85835SOL    HW159344   6.855  11.344  14.512
85835SOL    HW259345   6.929  11.310  14.384
85836SOL     OW59346   3.143  13.745  11.583
85836SOL    HW159347   3.054  13.771  11.608
85836SOL    HW259348   3.130  13.669  11.526
85837SOL     OW59349   6.968   6.612   5.478
85837SOL    HW159350   6.964   6.517   5.465
85837SOL    HW259351   6.987   6.647   5.391
85838SOL     OW59352   7.584   5.291   7.699
85838SOL    HW159353   7.535   5.338   7.766
85838SOL    HW259354   7.522   5.281   7.627
85839SOL     OW59355   7.247   0.445  11.105
85839SOL    HW159356   7.296   0.393  11.170
85839SOL    HW259357   7.264   0.402  11.022
85840SOL     OW59358  12.149   0.955  10.331
85840SOL    HW159359  12.123   0.870  10.295
85840SOL    HW259360  12.132   1.017  10.261
85841SOL     OW59361   2.761   7.609   5.028
85841SOL    HW159362   2.820   7.603   4.953
85841SOL    HW259363   2.742   7.518   5.051
85842SOL     OW59364   2.377   4.649  13.214
85842SOL    HW159365   2.282   4.648  13.220
85842SOL    HW259366   2.396   4.635  13.121
85843SOL     OW59367  11.195  13.589   1.390
85843SOL    HW159368  11.274  13.603   1.338
85843SOL    HW259369  11.160  13.506   1.359
85844SOL     OW59370   6.270   2.391   5.113
85844SOL    HW159371   6.217   2.391   5.193
85844SOL    HW259372   6.335   2.460   5.126
85845SOL     OW59373   3.127  13.813   3.870
85845SOL    HW159374   3.199  13.819   3.934
85845SOL    HW259375   3.162  13.853   3.791
85846SOL     OW59376  10.693  11.359   4.305
85846SOL    HW159377  10.625  11.418   4.338
85846SOL    HW259378  10.653  11.314   4.232
85847SOL     OW59379   0.432  12.913  12.765
85847SOL    HW159380   0.398  13.001  12.750
85847SOL    HW259381   0.407  12.864  12.687
85848SOL     OW59382   7.403   3.793  13.419
85848SOL    HW159383   7.435   3.881  13.402
85848SOL    HW259384   7.331   3.806  13.481
85849SOL     OW59385  12.686   1.597   2.315
85849SOL    HW159386  12.660   1.671   2.261
85849SOL    HW259387  12.777   1.615   2.340
85850SOL     OW59388   0.677   1.730  13.521
85850SOL    HW159389   0.583   1.727  13.540
85850SOL    HW259390   0.682   1.745  13.426
85851SOL     OW59391  10.921   2.347   9.329
85851SOL    HW159392  10.845   2.403   9.346
85851SOL    HW259393  10.889   2.279   9.270
85852SOL     OW59394  12.823   8.517   1.780
85852SOL    HW159395  12.847   8.429   1.808
85852SOL    HW259396  12.740   8.535   1.825
85853SOL     OW59397   7.488  10.405  10.669
85853SOL    HW159398   7.430  10.352  10.614
85853SOL    HW259399   7.551  10.442  10.609
85854SOL     OW59400   2.527  14.512   2.755
85854SOL    HW159401   2.597  14.575   2.768
85854SOL    HW259402   2.452  14.565   2.727
85855SOL     OW59403   4.988   5.743  12.057
85855SOL    HW159404   5.040   5.663  12.059
85855SOL    HW259405   4.907   5.720  12.103
85856SOL     OW59406   9.521  14.334   5.587
85856SOL    HW159407   9.512  14.303   5.677
85856SOL    HW259408   9.593  14.396   5.589
85857SOL     OW59409   8.286   1.175  13.484
85857SOL    HW159410   8.360   1.169  13.545
85857SOL    HW259411   8.214   1.209  13.537
85858SOL     OW59412   0.449   7.950   5.970
85858SOL    HW159413   0.398   7.979   5.894
85858SOL    HW259414   0.426   7.858   5.979
85859SOL     OW59415  10.763   3.365   9.042
85859SOL    HW159416  10.762   3.448   8.993
85859SOL    HW259417  10.833   3.315   9.002
85860SOL     OW59418   9.011   1.232  14.367
85860SOL    HW159419   8.993   1.177  14.291
85860SOL    HW259420   8.989   1.321  14.338
85861SOL     OW59421   9.024  10.099   5.662
85861SOL    HW159422   9.088  10.158   5.702
85861SOL    HW259423   8.989  10.048   5.735
85862SOL     OW59424  10.859   2.048  14.044
85862SOL    HW159425  10.904   2.087  14.119
85862SOL    HW259426  10.794   1.989  14.083
85863SOL     OW59427   8.971   1.446   3.350
85863SOL    HW159428   8.968   1.368   3.294
85863SOL    HW259429   8.896   1.499   3.322
85864SOL     OW59430  14.146   3.265   7.591
85864SOL    HW159431  14.125   3.359   7.593
85864SOL    HW259432  14.062   3.221   7.604
85865SOL     OW59433   6.969   7.884   8.032
85865SOL    HW159434   6.911   7.939   7.980
85865SOL    HW259435   7.028   7.844   7.968
85866SOL     OW59436  10.533   0.207  12.297
85866SOL    HW159437  10.584   0.205  12.216
85866SOL    HW259438  10.515   0.115  12.317
85867SOL     OW59439   4.577  12.568  14.121
85867SOL    HW159440   4.659  12.569  14.072
85867SOL    HW259441   4.534  12.650  14.098
85868SOL     OW59442   1.299   5.737   1.457
85868SOL    HW159443   1.350   5.815   1.435
85868SOL    HW259444   1.215   5.750   1.412
85869SOL     OW59445  10.877   9.630  13.024
85869SOL    HW159446  10.805   9.642  13.086
85869SOL    HW259447  10.878   9.536  13.005
85870SOL     OW59448  13.029  10.049   6.250
85870SOL    HW159449  13.098  10.055   6.316
85870SOL    HW259450  12.952  10.020   6.298
85871SOL     OW59451  14.843  10.401   8.536
85871SOL    HW159452  14.786  10.342   8.488
85871SOL    HW259453   0.003  10.461   8.469
85872SOL     OW59454   2.729  14.694   7.246
85872SOL    HW159455   2.807  14.723   7.294
85872SOL    HW259456   2.673  14.655   7.313
85873SOL     OW59457   3.041   1.939   0.594
85873SOL    HW159458   2.993   1.946   0.511
85873SOL    HW259459   3.081   1.852   0.591
85874SOL     OW59460  12.188   9.399   3.024
85874SOL    HW159461  12.218   9.318   2.984
85874SOL    HW259462  12.096   9.382   3.046
85875SOL     OW59463   3.114   9.862   5.142
85875SOL    HW159464   3.076   9.832   5.059
85875SOL    HW259465   3.165   9.788   5.173
85876SOL     OW59466   6.457   0.910  13.689
85876SOL    HW159467   6.543   0.870  13.684
85876SOL    HW259468   6.403   0.856  13.631
85877SOL     OW59469   6.176  13.626   4.498
85877SOL    HW159470   6.110  13.566   4.463
85877SOL    HW259471   6.158  13.629   4.592
85878SOL     OW59472  13.726  12.527   3.391
85878SOL    HW159473  13.797  12.510   3.452
85878SOL    HW259474  13.670  12.591   3.435
85879SOL     OW59475   9.567   5.870   4.237
85879SOL    HW159476   9.483   5.873   4.192
85879SOL    HW259477   9.576   5.957   4.277
85880SOL     OW59478  13.560  14.248   9.874
85880SOL    HW159479  13.502  14.323   9.863
85880SOL    HW259480  13.566  14.209   9.787
85881SOL     OW59481   7.881   1.189   4.896
85881SOL    HW159482   7.890   1.236   4.979
85881SOL    HW259483   7.969   1.158   4.876
85882SOL     OW59484   3.074   8.022  10.125
85882SOL    HW159485   2.979   8.024  10.137
85882SOL    HW259486   3.108   8.079  10.195
85883SOL     OW59487   7.372   9.534   5.871
85883SOL    HW159488   7.325   9.563   5.949
85883SOL    HW259489   7.403   9.446   5.894
85884SOL     OW59490   1.226  10.357   7.315
85884SOL    HW159491   1.202  10.307   7.237
85884SOL    HW259492   1.196  10.446   7.298
85885SOL     OW59493   1.397   9.326  14.656
85885SOL    HW159494   1.397   9.296  14.747
85885SOL    HW259495   1.306   9.348  14.638
85886SOL     OW59496   1.896   1.452   8.092
85886SOL    HW159497   1.841   1.375   8.107
85886SOL    HW259498   1.941   1.466   8.175
85887SOL     OW59499  10.832   6.286   9.667
85887SOL    HW159500  10.902   6.264   9.606
85887SOL    HW259501  10.877   6.302   9.750
85888SOL     OW59502   5.869  11.366  12.534
85888SOL    HW159503   5.904  11.454  12.520
85888SOL    HW259504   5.909  11.313  12.466
85889SOL     OW59505  11.634   8.871   1.456
85889SOL    HW159506  11.565   8.862   1.390
85889SOL    HW259507  11.587   8.873   1.540
85890SOL     OW59508   3.616   7.189   6.237
85890SOL    HW159509   3.573   7.265   6.276
85890SOL    HW259510   3.694   7.175   6.290
85891SOL     OW59511   3.469  13.144  14.496
85891SOL    HW159512   3.417  13.082  14.445
85891SOL    HW259513   3.409  13.214  14.519
85892SOL     OW59514   7.740   3.590  13.108
85892SOL    HW159515   7.694   3.671  13.132
85892SOL    HW259516   7.807   3.579  13.175
85893SOL     OW59517  10.074  14.043   2.190
85893SOL    HW159518  10.040  14.130   2.212
85893SOL    HW259519  10.138  14.023   2.258
85894SOL     OW59520   5.611  12.883   0.686
85894SOL    HW159521   5.643  12.794   0.700
85894SOL    HW259522   5.681  12.926   0.636
85895SOL     OW59523   1.138   0.383   8.552
85895SOL    HW159524   1.069   0.447   8.533
85895SOL    HW259525   1.096   0.298   8.537
85896SOL     OW59526   8.140   8.795   9.028
85896SOL    HW159527   8.068   8.755   9.078
85896SOL    HW259528   8.124   8.889   9.034
85897SOL     OW59529  12.949   1.777   1.666
85897SOL    HW159530  13.013   1.836   1.626
85897SOL    HW259531  12.904   1.736   1.592
85898SOL     OW59532   9.272  12.176   5.945
85898SOL    HW159533   9.230  12.143   5.865
85898SOL    HW259534   9.307  12.098   5.987
85899SOL     OW59535   6.768   4.778  11.561
85899SOL    HW159536   6.846   4.825  11.532
85899SOL    HW259537   6.763   4.701  11.505
85900SOL     OW59538   4.206  14.443  12.161
85900SOL    HW159539   4.137  14.493  12.118
85900SOL    HW259540   4.162  14.398  12.233
85901SOL     OW59541   3.450  14.056   2.482
85901SOL    HW159542   3.532  14.007   2.483
85901SOL    HW259543   3.388  13.998   2.436
85902SOL     OW59544  10.360   7.578   5.607
85902SOL    HW159545  10.363   7.655   5.663
85902SOL    HW259546  10.415   7.513   5.652
85903SOL     OW59547  11.388   7.482   8.602
85903SOL    HW159548  11.316   7.427   8.569
85903SOL    HW259549  11.358   7.572   8.588
85904SOL     OW59550   3.277  13.655   2.501
85904SOL    HW159551   3.267  13.704   2.583
85904SOL    HW259552   3.253  13.717   2.433
85905SOL     OW59553   1.783   5.186  10.526
85905SOL    HW159554   1.723   5.254  10.558
85905SOL    HW259555   1.734   5.105  10.538
85906SOL     OW59556  11.594  11.871  10.469
85906SOL    HW159557  11.594  11.822  10.387
85906SOL    HW259558  11.664  11.936  10.459
85907SOL     OW59559   8.764   5.270   5.706
85907SOL    HW159560   8.700   5.206   5.675
85907SOL    HW259561   8.840   5.218   5.733
85908SOL     OW59562   0.415  14.069  11.859
85908SOL    HW159563   0.380  14.117  11.933
85908SOL    HW259564   0.496  14.114  11.837
85909SOL     OW59565  11.302   9.889   1.878
85909SOL    HW159566  11.238   9.958   1.895
85909SOL    HW259567  11.255   9.808   1.894
85910SOL     OW59568  12.176   9.022   2.012
85910SOL    HW159569  12.243   8.957   1.989
85910SOL    HW259570  12.123   9.030   1.933
85911SOL     OW59571   3.414   3.169   5.920
85911SOL    HW159572   3.413   3.074   5.913
85911SOL    HW259573   3.506   3.193   5.926
85912SOL     OW59574  14.120  10.740   2.829
85912SOL    HW159575  14.207  10.753   2.791
85912SOL    HW259576  14.060  10.750   2.755
85913SOL     OW59577  13.932  11.640   4.969
85913SOL    HW159578  13.963  11.700   5.037
85913SOL    HW259579  13.845  11.613   4.999
85914SOL     OW59580   6.028   0.878  12.791
85914SOL    HW159581   5.942   0.893  12.831
85914SOL    HW259582   6.089   0.931  12.843
85915SOL     OW59583   3.279  11.552  11.637
85915SOL    HW159584   3.215  11.480  11.641
85915SOL    HW259585   3.363  11.509  11.652
85916SOL     OW59586  12.714  14.705  13.314
85916SOL    HW159587  12.722  14.752  13.232
85916SOL    HW259588  12.775  14.750  13.374
85917SOL     OW59589   0.808  11.608   8.955
85917SOL    HW159590   0.788  11.695   8.992
85917SOL    HW259591   0.725  11.581   8.914
85918SOL     OW59592   8.295   0.757   4.953
85918SOL    HW159593   8.284   0.662   4.955
85918SOL    HW259594   8.309   0.778   4.861
85919SOL     OW59595   5.876  11.881   7.703
85919SOL    HW159596   5.849  11.790   7.715
85919SOL    HW259597   5.818  11.930   7.761
85920SOL     OW59598   0.932   3.071   8.935
85920SOL    HW159599   0.881   3.151   8.920
85920SOL    HW259600   1.018   3.090   8.897
85921SOL     OW59601   7.791  10.322  10.428
85921SOL    HW159602   7.817  10.273  10.506
85921SOL    HW259603   7.856  10.298  10.362
85922SOL     OW59604   5.158  11.002  13.394
85922SOL    HW159605   5.065  10.983  13.384
85922SOL    HW259606   5.194  10.923  13.435
85923SOL     OW59607  13.431   8.844   4.006
85923SOL    HW159608  13.505   8.900   4.028
85923SOL    HW259609  13.366   8.904   3.970
85924SOL     OW59610   1.938   2.667   2.790
85924SOL    HW159611   1.966   2.623   2.710
85924SOL    HW259612   1.861   2.618   2.818
85925SOL     OW59613   6.779   4.160   0.317
85925SOL    HW159614   6.771   4.228   0.384
85925SOL    HW259615   6.807   4.082   0.364
85926SOL     OW59616  14.742  14.213  11.545
85926SOL    HW159617  14.768  14.132  11.501
85926SOL    HW259618  14.736  14.278  11.475
85927SOL     OW59619  12.900   3.210   3.613
85927SOL    HW159620  12.941   3.257   3.540
85927SOL    HW259621  12.808   3.204   3.588
85928SOL     OW59622  13.226   9.976   2.653
85928SOL    HW159623  13.265   9.911   2.594
85928SOL    HW259624  13.298  10.003   2.710
85929SOL     OW59625   4.407   1.002   1.030
85929SOL    HW159626   4.438   0.917   0.999
85929SOL    HW259627   4.340   1.028   0.967
85930SOL     OW59628   2.754   7.866  13.270
85930SOL    HW159629   2.839   7.879  13.314
85930SOL    HW259630   2.768   7.790  13.214
85931SOL     OW59631  13.371   0.423   8.291
85931SOL    HW159632  13.372   0.332   8.265
85931SOL    HW259633  13.295   0.460   8.247
85932SOL     OW59634   5.218  14.809   5.013
85932SOL    HW159635   5.290  14.868   5.032
85932SOL    HW259636   5.151  14.864   4.972
85933SOL     OW59637   5.295   1.887   4.288
85933SOL    HW159638   5.264   1.872   4.199
85933SOL    HW259639   5.380   1.843   4.292
85934SOL     OW59640   3.052   9.626   2.850
85934SOL    HW159641   3.055   9.712   2.809
85934SOL    HW259642   2.966   9.622   2.890
85935SOL     OW59643   5.797  13.183  10.444
85935SOL    HW159644   5.793  13.260  10.388
85935SOL    HW259645   5.740  13.119  10.400
85936SOL     OW59646  13.590   9.950   8.171
85936SOL    HW159647  13.575  10.031   8.122
85936SOL    HW259648  13.684   9.951   8.191
85937SOL     OW59649   8.447  12.811  11.170
85937SOL    HW159650   8.457  12.905  11.181
85937SOL    HW259651   8.537  12.777  11.169
85938SOL     OW59652  12.067   8.800   8.207
85938SOL    HW159653  12.070   8.889   8.240
85938SOL    HW259654  11.999   8.802   8.139
85939SOL     OW59655  12.039   9.791   4.729
85939SOL    HW159656  12.120   9.844   4.728
85939SOL    HW259657  11.975   9.845   4.683
85940SOL     OW59658   8.782  10.368   5.661
85940SOL    HW159659   8.835  10.445   5.642
85940SOL    HW259660   8.712  10.370   5.596
85941SOL     OW59661   2.164  13.743  13.678
85941SOL    HW159662   2.234  13.684  13.706
85941SOL    HW259663   2.101  13.685  13.635
85942SOL     OW59664   8.106   5.787   2.493
85942SOL    HW159665   8.135   5.740   2.571
85942SOL    HW259666   8.021   5.823   2.518
85943SOL     OW59667  11.960   6.620  13.227
85943SOL    HW159668  12.038   6.620  13.172
85943SOL    HW259669  11.893   6.662  13.174
85944SOL     OW59670   7.158   9.130   4.226
85944SOL    HW159671   7.212   9.052   4.223
85944SOL    HW259672   7.141   9.152   4.134
85945SOL     OW59673   9.075  13.751   3.969
85945SOL    HW159674   8.996  13.804   3.958
85945SOL    HW259675   9.056  13.695   4.044
85946SOL     OW59676  11.718   2.430   4.029
85946SOL    HW159677  11.809   2.410   4.007
85946SOL    HW259678  11.709   2.523   4.008
85947SOL     OW59679   7.720   4.025   5.025
85947SOL    HW159680   7.723   3.955   5.090
85947SOL    HW259681   7.796   4.080   5.044
85948SOL     OW59682   2.891   3.961  11.003
85948SOL    HW159683   2.884   4.023  10.931
85948SOL    HW259684   2.802   3.949  11.034
85949SOL     OW59685   2.263  12.694   2.436
85949SOL    HW159686   2.329  12.627   2.419
85949SOL    HW259687   2.191  12.647   2.480
85950SOL     OW59688  11.588   5.647   9.505
85950SOL    HW159689  11.573   5.737   9.534
85950SOL    HW259690  11.562   5.593   9.579
85951SOL     OW59691  13.449  11.098  11.998
85951SOL    HW159692  13.445  11.118  11.905
85951SOL    HW259693  13.359  11.109  12.030
85952SOL     OW59694   6.635   3.953   3.163
85952SOL    HW159695   6.579   3.890   3.117
85952SOL    HW259696   6.717   3.951   3.115
85953SOL     OW59697   1.818   0.516  13.399
85953SOL    HW159698   1.798   0.595  13.448
85953SOL    HW259699   1.848   0.453  13.465
85954SOL     OW59700   1.819   3.472   9.076
85954SOL    HW159701   1.738   3.476   9.127
85954SOL    HW259702   1.810   3.542   9.012
85955SOL     OW59703   1.985   2.608   5.934
85955SOL    HW159704   1.908   2.554   5.955
85955SOL    HW259705   2.019   2.569   5.853
85956SOL     OW59706  11.862   7.437  12.977
85956SOL    HW159707  11.916   7.358  12.967
85956SOL    HW259708  11.777   7.404  13.007
85957SOL     OW59709  12.548  13.489   0.475
85957SOL    HW159710  12.574  13.397   0.477
85957SOL    HW259711  12.566  13.517   0.385
85958SOL     OW59712   8.353   6.024   4.714
85958SOL    HW159713   8.406   6.103   4.701
85958SOL    HW259714   8.412   5.961   4.754
85959SOL     OW59715   5.581   9.830   6.463
85959SOL    HW159716   5.534   9.749   6.441
85959SOL    HW259717   5.646   9.803   6.527
85960SOL     OW59718   6.528   6.689   4.796
85960SOL    HW159719   6.547   6.717   4.886
85960SOL    HW259720   6.433   6.693   4.790
85961SOL     OW59721   0.221   8.367   4.424
85961SOL    HW159722   0.220   8.284   4.471
85961SOL    HW259723   0.187   8.431   4.486
85962SOL     OW59724   0.873  10.452  12.754
85962SOL    HW159725   0.963  10.419  12.750
85962SOL    HW259726   0.882  10.547  12.743
85963SOL     OW59727  12.368   8.255   2.874
85963SOL    HW159728  12.346   8.211   2.956
85963SOL    HW259729  12.285   8.289   2.842
85964SOL     OW59730  13.690   9.636   2.639
85964SOL    HW159731  13.728   9.668   2.721
85964SOL    HW259732  13.746   9.562   2.614
85965SOL     OW59733   4.147  10.921  12.042
85965SOL    HW159734   4.058  10.951  12.024
85965SOL    HW259735   4.203  10.997  12.022
85966SOL     OW59736   2.827   8.989   7.503
85966SOL    HW159737   2.893   8.921   7.517
85966SOL    HW259738   2.807   9.020   7.591
85967SOL     OW59739   6.541   4.988   5.981
85967SOL    HW159740   6.460   4.954   5.942
85967SOL    HW259741   6.582   5.038   5.911
85968SOL     OW59742   6.005   4.067  13.407
85968SOL    HW159743   6.066   4.094  13.476
85968SOL    HW259744   5.963   4.149  13.380
85969SOL     OW59745   0.032  12.872   1.099
85969SOL    HW159746  14.865  12.821   1.028
85969SOL    HW259747   0.093  12.812   1.141
85970SOL     OW59748   5.132  10.362   6.681
85970SOL    HW159749   5.186  10.372   6.760
85970SOL    HW259750   5.176  10.294   6.630
85971SOL     OW59751   4.992   3.580  11.825
85971SOL    HW159752   5.036   3.634  11.760
85971SOL    HW259753   5.025   3.613  11.909
85972SOL     OW59754   6.467   8.562   0.425
85972SOL    HW159755   6.500   8.477   0.454
85972SOL    HW259756   6.444   8.608   0.506
85973SOL     OW59757   6.143   2.807  14.523
85973SOL    HW159758   6.082   2.743  14.486
85973SOL    HW259759   6.228   2.764  14.519
85974SOL     OW59760   9.226   1.104   9.782
85974SOL    HW159761   9.181   1.067   9.706
85974SOL    HW259762   9.167   1.088   9.855
85975SOL     OW59763  12.949  11.378  13.462
85975SOL    HW159764  12.881  11.417  13.408
85975SOL    HW259765  13.031  11.407  13.421
85976SOL     OW59766   8.442   8.992  11.900
85976SOL    HW159767   8.352   8.967  11.879
85976SOL    HW259768   8.488   8.908  11.908
85977SOL     OW59769  14.449   6.982  14.451
85977SOL    HW159770  14.381   6.946  14.395
85977SOL    HW259771  14.510   7.025  14.391
85978SOL     OW59772  13.468  13.294   2.102
85978SOL    HW159773  13.539  13.359   2.092
85978SOL    HW259774  13.507  13.224   2.155
85979SOL     OW59775   7.327   5.051   9.993
85979SOL    HW159776   7.366   5.138  10.004
85979SOL    HW259777   7.331   5.036   9.898
85980SOL     OW59778  12.497  10.664  11.673
85980SOL    HW159779  12.577  10.636  11.628
85980SOL    HW259780  12.495  10.613  11.754
85981SOL     OW59781  12.457   5.379   5.435
85981SOL    HW159782  12.458   5.300   5.490
85981SOL    HW259783  12.546   5.384   5.401
85982SOL     OW59784   2.623   8.568  11.642
85982SOL    HW159785   2.575   8.548  11.562
85982SOL    HW259786   2.606   8.493  11.699
85983SOL     OW59787   1.379   3.966  12.353
85983SOL    HW159788   1.360   4.060  12.358
85983SOL    HW259789   1.341   3.939  12.269
85984SOL     OW59790   3.242  10.098   7.171
85984SOL    HW159791   3.180  10.158   7.213
85984SOL    HW259792   3.322  10.150   7.160
85985SOL     OW59793   8.038  10.208   9.526
85985SOL    HW159794   8.036  10.113   9.516
85985SOL    HW259795   8.098  10.238   9.458
85986SOL     OW59796   1.120  13.873   9.529
85986SOL    HW159797   1.116  13.968   9.542
85986SOL    HW259798   1.203  13.847   9.570
85987SOL     OW59799   1.958   9.782  14.176
85987SOL    HW159800   1.972   9.819  14.263
85987SOL    HW259801   2.030   9.818  14.123
85988SOL     OW59802  14.570  11.914   4.084
85988SOL    HW159803  14.501  11.968   4.046
85988SOL    HW259804  14.599  11.858   4.013
85989SOL     OW59805   6.953   9.046   8.210
85989SOL    HW159806   7.000   9.084   8.284
85989SOL    HW259807   6.934   8.956   8.237
85990SOL     OW59808   7.692  13.756   5.318
85990SOL    HW159809   7.784  13.781   5.309
85990SOL    HW259810   7.652  13.828   5.367
85991SOL     OW59811   2.419  13.830   1.513
85991SOL    HW159812   2.466  13.910   1.490
85991SOL    HW259813   2.425  13.825   1.608
85992SOL     OW59814   5.569   7.296  12.342
85992SOL    HW159815   5.631   7.253  12.400
85992SOL    HW259816   5.551   7.232  12.273
85993SOL     OW59817  12.146   1.341  12.415
85993SOL    HW159818  12.061   1.363  12.453
85993SOL    HW259819  12.149   1.391  12.333
85994SOL     OW59820  10.904   8.598   2.533
85994SOL    HW159821  10.899   8.573   2.441
85994SOL    HW259822  10.984   8.651   2.539
85995SOL     OW59823   7.885   0.411   6.977
85995SOL    HW159824   7.886   0.507   6.979
85995SOL    HW259825   7.977   0.386   6.986
85996SOL     OW59826  12.961  12.761   3.995
85996SOL    HW159827  12.926  12.756   3.906
85996SOL    HW259828  12.909  12.830   4.037
85997SOL     OW59829   6.669  14.512   6.939
85997SOL    HW159830   6.754  14.554   6.930
85997SOL    HW259831   6.661  14.492   7.033
85998SOL     OW59832   7.356   1.440  11.265
85998SOL    HW159833   7.291   1.390  11.314
85998SOL    HW259834   7.332   1.425  11.173
85999SOL     OW59835  11.964   9.697   5.481
85999SOL    HW159836  12.049   9.660   5.505
85999SOL    HW259837  11.985   9.764   5.416
86000SOL     OW59838   1.666   5.627  13.019
86000SOL    HW159839   1.660   5.642  12.925
86000SOL    HW259840   1.640   5.711  13.058
86001SOL     OW59841   0.286  11.066  12.684
86001SOL    HW159842   0.288  10.978  12.720
86001SOL    HW259843   0.359  11.111  12.727
86002SOL     OW59844   5.215   3.368  12.648
86002SOL    HW159845   5.290   3.328  12.604
86002SOL    HW259846   5.215   3.327  12.735
86003SOL     OW59847  10.378   8.124   9.583
86003SOL    HW159848  10.419   8.210   9.595
86003SOL    HW259849  10.289   8.135   9.616
86004SOL     OW59850  10.523   4.733   7.710
86004SOL    HW159851  10.472   4.680   7.648
86004SOL    HW259852  10.571   4.670   7.763
86005SOL     OW59853   6.235   8.416   8.148
86005SOL    HW159854   6.200   8.502   8.170
86005SOL    HW259855   6.289   8.432   8.071
86006SOL     OW59856   8.363  14.521  10.480
86006SOL    HW159857   8.365  14.573  10.561
86006SOL    HW259858   8.369  14.585  10.410
86007SOL     OW59859   6.330  12.389   1.113
86007SOL    HW159860   6.375  12.467   1.146
86007SOL    HW259861   6.401  12.327   1.093
86008SOL     OW59862  10.067   3.374   3.722
86008SOL    HW159863   9.992   3.326   3.688
86008SOL    HW259864  10.139   3.311   3.723
86009SOL     OW59865   1.148  10.206   9.483
86009SOL    HW159866   1.118  10.225   9.394
86009SOL    HW259867   1.076  10.157   9.522
86010SOL     OW59868  14.581   7.563   8.861
86010SOL    HW159869  14.665   7.564   8.908
86010SOL    HW259870  14.544   7.477   8.880
86011SOL     OW59871   7.786   5.529   7.416
86011SOL    HW159872   7.704   5.577   7.411
86011SOL    HW259873   7.853   5.596   7.433
86012SOL     OW59874   0.091   0.100  12.682
86012SOL    HW159875   0.061   0.191  12.691
86012SOL    HW259876   0.171   0.097  12.734
86013SOL     OW59877  12.298   0.961  11.836
86013SOL    HW159878  12.208   0.930  11.827
86013SOL    HW259879  12.306   1.032  11.772
86014SOL     OW59880   5.312  12.646  12.405
86014SOL    HW159881   5.375  12.575  12.399
86014SOL    HW259882   5.276  12.654  12.316
86015SOL     OW59883  10.569  10.409   9.430
86015SOL    HW159884  10.488  10.358   9.437
86015SOL    HW259885  10.636  10.343   9.413
86016SOL     OW59886   5.729   4.832   4.236
86016SOL    HW159887   5.802   4.870   4.187
86016SOL    HW259888   5.718   4.891   4.311
86017SOL     OW59889   6.786   3.195   3.132
86017SOL    HW159890   6.775   3.286   3.159
86017SOL    HW259891   6.868   3.167   3.173
86018SOL     OW59892   9.308  12.272   4.371
86018SOL    HW159893   9.389  12.317   4.344
86018SOL    HW259894   9.338  12.194   4.418
86019SOL     OW59895   6.536  10.447   4.630
86019SOL    HW159896   6.521  10.542   4.628
86019SOL    HW259897   6.631  10.437   4.632
86020SOL     OW59898   2.818   7.310   5.790
86020SOL    HW159899   2.863   7.325   5.707
86020SOL    HW259900   2.750   7.378   5.793
86021SOL     OW59901   4.223   1.966  11.719
86021SOL    HW159902   4.292   1.909  11.684
86021SOL    HW259903   4.162   1.976  11.646
86022SOL     OW59904  10.677   1.826  12.926
86022SOL    HW159905  10.649   1.857  12.840
86022SOL    HW259906  10.703   1.905  12.973
86023SOL     OW59907   4.023   7.735   2.674
86023SOL    HW159908   4.074   7.728   2.593
86023SOL    HW259909   3.987   7.647   2.687
86024SOL     OW59910   3.772   8.780   4.931
86024SOL    HW159911   3.753   8.693   4.964
86024SOL    HW259912   3.823   8.765   4.851
86025SOL     OW59913   8.138   6.016   7.257
86025SOL    HW159914   8.228   6.036   7.232
86025SOL    HW259915   8.125   6.064   7.339
86026SOL     OW59916   9.998   4.563   9.478
86026SOL    HW159917   9.936   4.490   9.470
86026SOL    HW259918  10.068   4.528   9.535
86027SOL     OW59919   2.249   1.567  13.514
86027SOL    HW159920   2.201   1.609  13.443
86027SOL    HW259921   2.223   1.617  13.592
86028SOL     OW59922   5.907   2.955  13.001
86028SOL    HW159923   5.977   2.968  12.937
86028SOL    HW259924   5.904   3.036  13.051
86029SOL     OW59925   4.438   7.292  11.164
86029SOL    HW159926   4.412   7.299  11.256
86029SOL    HW259927   4.464   7.200  11.154
86030SOL     OW59928   1.382  14.182  11.896
86030SOL    HW159929   1.381  14.228  11.980
86030SOL    HW259930   1.296  14.201  11.858
86031SOL     OW59931   0.441   2.395   6.763
86031SOL    HW159932   0.494   2.471   6.739
86031SOL    HW259933   0.393   2.422   6.841
86032SOL     OW59934   4.060   6.844  10.834
86032SOL    HW159935   4.024   6.758  10.812
86032SOL    HW259936   4.010   6.872  10.911
86033SOL     OW59937  14.430   5.513  10.864
86033SOL    HW159938  14.514   5.507  10.820
86033SOL    HW259939  14.373   5.453  10.815
86034SOL     OW59940   3.293   5.042   9.245
86034SOL    HW159941   3.326   4.969   9.295
86034SOL    HW259942   3.355   5.052   9.173
86035SOL     OW59943  13.047   4.914  11.214
86035SOL    HW159944  13.098   4.874  11.284
86035SOL    HW259945  13.112   4.959  11.160
86036SOL     OW59946   8.835  13.590   3.195
86036SOL    HW159947   8.815  13.501   3.167
86036SOL    HW259948   8.789  13.646   3.133
86037SOL     OW59949   2.362   7.617   7.951
86037SOL    HW159950   2.360   7.679   8.023
86037SOL    HW259951   2.349   7.531   7.992
86038SOL     OW59952   1.328   1.343  13.539
86038SOL    HW159953   1.295   1.291  13.612
86038SOL    HW259954   1.285   1.305  13.462
86039SOL     OW59955  14.021  11.641   0.256
86039SOL    HW159956  13.987  11.552   0.246
86039SOL    HW259957  14.089  11.647   0.189
86040SOL     OW59958  13.622   1.642  11.633
86040SOL    HW159959  13.617   1.701  11.709
86040SOL    HW259960  13.695   1.675  11.581
86041SOL     OW59961   1.399   3.195  13.514
86041SOL    HW159962   1.484   3.170  13.550
86041SOL    HW259963   1.384   3.133  13.443
86042SOL     OW59964   1.893   8.096   2.975
86042SOL    HW159965   1.821   8.108   3.037
86042SOL    HW259966   1.865   8.142   2.896
86043SOL     OW59967   9.750  12.708   3.347
86043SOL    HW159968   9.839  12.738   3.329
86043SOL    HW259969   9.702  12.789   3.366
86044SOL     OW59970  11.072   0.883  12.438
86044SOL    HW159971  11.135   0.954  12.430
86044SOL    HW259972  10.996   0.923  12.481
86045SOL     OW59973  14.642   7.794  13.260
86045SOL    HW159974  14.716   7.847  13.232
86045SOL    HW259975  14.631   7.730  13.189
86046SOL     OW59976   8.650   1.219   5.133
86046SOL    HW159977   8.682   1.142   5.087
86046SOL    HW259978   8.702   1.291   5.100
86047SOL     OW59979   6.730   2.694   4.524
86047SOL    HW159980   6.656   2.749   4.552
86047SOL    HW259981   6.717   2.611   4.570
86048SOL     OW59982   1.905   3.755  11.952
86048SOL    HW159983   1.978   3.777  12.010
86048SOL    HW259984   1.836   3.817  11.976
86049SOL     OW59985  12.821  11.331   4.314
86049SOL    HW159986  12.837  11.420   4.283
86049SOL    HW259987  12.878  11.275   4.261
86050SOL     OW59988  14.366  11.901   4.318
86050SOL    HW159989  14.427  11.898   4.245
86050SOL    HW259990  14.293  11.955   4.287
86051SOL     OW59991   1.770   7.144   3.463
86051SOL    HW159992   1.792   7.166   3.554
86051SOL    HW259993   1.690   7.193   3.445
86052SOL     OW59994   8.763  10.046   9.066
86052SOL    HW159995   8.783  10.025   8.975
86052SOL    HW259996   8.689  10.106   9.062
86053SOL     OW59997   5.829   3.602   4.584
86053SOL    HW159998   5.782   3.629   4.505
86053SOL    HW259999   5.908   3.560   4.552
86054SOL     OW60000   9.117   3.750   8.564
86054SOL    HW160001   9.022   3.757   8.562
86054SOL    HW260002   9.142   3.779   8.651
86055SOL     OW60003  13.941   9.034  10.220
86055SOL    HW160004  13.966   9.112  10.270
86055SOL    HW260005  13.907   8.973  10.286
86056SOL     OW60006   3.846  11.610  10.195
86056SOL    HW160007   3.896  11.655  10.263
86056SOL    HW260008   3.759  11.650  10.197
86057SOL     OW60009  10.921   5.113   7.895
86057SOL    HW160010  10.915   5.027   7.937
86057SOL    HW260011  10.946   5.172   7.966
86058SOL     OW60012   8.532  11.479  14.447
86058SOL    HW160013   8.482  11.467  14.366
86058SOL    HW260014   8.599  11.411  14.444
86059SOL     OW60015   4.313   7.394   0.137
86059SOL    HW160016   4.387   7.445   0.103
86059SOL    HW260017   4.241   7.456   0.144
86060SOL     OW60018   8.742  11.794  10.224
86060SOL    HW160019   8.819  11.815  10.277
86060SOL    HW260020   8.674  11.854  10.256
86061SOL     OW60021  11.622   0.818   8.160
86061SOL    HW160022  11.714   0.821   8.186
86061SOL    HW260023  11.583   0.897   8.199
86062SOL     OW60024   3.886   7.065   6.268
86062SOL    HW160025   3.957   7.040   6.327
86062SOL    HW260026   3.912   7.151   6.234
86063SOL     OW60027  10.001  11.891  11.211
86063SOL    HW160028  10.059  11.816  11.193
86063SOL    HW260029  10.040  11.933  11.287
86064SOL     OW60030   2.379   6.800   9.398
86064SOL    HW160031   2.400   6.861   9.327
86064SOL    HW260032   2.298   6.834   9.436
86065SOL     OW60033  10.631   1.316   6.687
86065SOL    HW160034  10.697   1.247   6.688
86065SOL    HW260035  10.665   1.380   6.624
86066SOL     OW60036   5.892  14.171   9.131
86066SOL    HW160037   5.836  14.230   9.080
86066SOL    HW260038   5.861  14.180   9.221
86067SOL     OW60039  10.626   0.292   9.232
86067SOL    HW160040  10.617   0.199   9.214
86067SOL    HW260041  10.705   0.318   9.185
86068SOL     OW60042   1.420   8.151   0.589
86068SOL    HW160043   1.486   8.220   0.579
86068SOL    HW260044   1.418   8.133   0.683
86069SOL     OW60045  14.495   6.970   7.275
86069SOL    HW160046  14.586   6.997   7.261
86069SOL    HW260047  14.450   7.051   7.300
86070SOL     OW60048   5.715  13.146   0.827
86070SOL    HW160049   5.704  13.211   0.757
86070SOL    HW260050   5.675  13.186   0.904
86071SOL     OW60051   5.029   7.789   5.033
86071SOL    HW160052   4.954   7.774   4.975
86071SOL    HW260053   5.105   7.766   4.980
86072SOL     OW60054   2.697  13.486  12.333
86072SOL    HW160055   2.689  13.548  12.405
86072SOL    HW260056   2.738  13.536  12.263
86073SOL     OW60057   8.608  12.521   1.584
86073SOL    HW160058   8.517  12.507   1.559
86073SOL    HW260059   8.635  12.599   1.536
86074SOL     OW60060   7.274   1.304  10.668
86074SOL    HW160061   7.357   1.267  10.697
86074SOL    HW260062   7.276   1.395  10.696
86075SOL     OW60063  11.341   5.358   3.123
86075SOL    HW160064  11.402   5.286   3.137
86075SOL    HW260065  11.368   5.395   3.038
86076SOL     OW60066   4.987   0.566  11.986
86076SOL    HW160067   4.982   0.541  11.894
86076SOL    HW260068   4.897   0.585  12.011
86077SOL     OW60069   6.749  12.422   3.721
86077SOL    HW160070   6.749  12.376   3.637
86077SOL    HW260071   6.832  12.470   3.722
86078SOL     OW60072   4.775   5.169   4.302
86078SOL    HW160073   4.719   5.097   4.273
86078SOL    HW260074   4.763   5.237   4.235
86079SOL     OW60075  11.130   8.646  10.752
86079SOL    HW160076  11.165   8.733  10.732
86079SOL    HW260077  11.178   8.587  10.695
86080SOL     OW60078   9.424  12.230   5.646
86080SOL    HW160079   9.386  12.142   5.648
86080SOL    HW260080   9.430  12.254   5.739
86081SOL     OW60081  10.866   8.039   8.941
86081SOL    HW160082  10.922   8.079   8.875
86081SOL    HW260083  10.777   8.053   8.907
86082SOL     OW60084   6.500   2.774  11.619
86082SOL    HW160085   6.534   2.781  11.530
86082SOL    HW260086   6.415   2.730  11.609
86083SOL     OW60087  12.917  11.261   9.031
86083SOL    HW160088  12.885  11.292   8.946
86083SOL    HW260089  12.938  11.168   9.015
86084SOL     OW60090   9.913  13.722  14.347
86084SOL    HW160091   9.962  13.804  14.338
86084SOL    HW260092   9.976  13.655  14.320
86085SOL     OW60093  11.260   0.900   8.492
86085SOL    HW160094  11.170   0.920   8.518
86085SOL    HW260095  11.313   0.928   8.566
86086SOL     OW60096  12.917  11.898   3.803
86086SOL    HW160097  12.940  11.965   3.868
86086SOL    HW260098  12.832  11.865   3.831
86087SOL     OW60099   2.541   8.050   2.788
86087SOL    HW160100   2.536   8.141   2.817
86087SOL    HW260101   2.450   8.020   2.785
86088SOL     OW60102  11.145   8.357   4.633
86088SOL    HW160103  11.085   8.382   4.704
86088SOL    HW260104  11.182   8.273   4.662
86089SOL     OW60105   0.994  14.202  10.869
86089SOL    HW160106   0.911  14.248  10.857
86089SOL    HW260107   1.017  14.171  10.782
86090SOL     OW60108   1.496  12.968   0.950
86090SOL    HW160109   1.470  13.049   0.906
86090SOL    HW260110   1.587  12.954   0.922
86091SOL     OW60111   5.595   0.514   1.100
86091SOL    HW160112   5.675   0.462   1.088
86091SOL    HW260113   5.602   0.584   1.035
86092SOL     OW60114   3.707  13.188   3.892
86092SOL    HW160115   3.794  13.159   3.920
86092SOL    HW260116   3.713  13.197   3.797
86093SOL     OW60117   7.214   3.038   7.469
86093SOL    HW160118   7.287   3.034   7.407
86093SOL    HW260119   7.196   2.947   7.492
86094SOL     OW60120   6.967  14.246  11.817
86094SOL    HW160121   6.989  14.153  11.827
86094SOL    HW260122   6.871  14.249  11.816
86095SOL     OW60123   0.031   6.774  12.203
86095SOL    HW160124   0.047   6.776  12.108
86095SOL    HW260125   0.093   6.838  12.238
86096SOL     OW60126   7.371   1.793   2.580
86096SOL    HW160127   7.464   1.778   2.596
86096SOL    HW260128   7.329   1.775   2.664
86097SOL     OW60129  10.013   5.078  12.365
86097SOL    HW160130   9.966   5.058  12.284
86097SOL    HW260131  10.102   5.047  12.349
86098SOL     OW60132   7.279   1.707   9.727
86098SOL    HW160133   7.328   1.703   9.644
86098SOL    HW260134   7.195   1.745   9.703
86099SOL     OW60135   0.590  13.626  11.937
86099SOL    HW160136   0.593  13.530  11.935
86099SOL    HW260137   0.497  13.647  11.947
86100SOL     OW60138  12.652   6.535  14.168
86100SOL    HW160139  12.725   6.475  14.151
86100SOL    HW260140  12.685   6.596  14.233
86101SOL     OW60141   0.966  12.611  10.914
86101SOL    HW160142   0.975  12.674  10.986
86101SOL    HW260143   0.882  12.631  10.875
86102SOL     OW60144   6.996   2.564   7.216
86102SOL    HW160145   7.010   2.483   7.167
86102SOL    HW260146   6.906   2.557   7.248
86103SOL     OW60147  11.837  14.016   8.861
86103SOL    HW160148  11.828  14.030   8.956
86103SOL    HW260149  11.765  13.956   8.839
86104SOL     OW60150   2.288  14.079   6.421
86104SOL    HW160151   2.226  14.126   6.366
86104SOL    HW260152   2.374  14.098   6.383
86105SOL     OW60153  14.318   7.949  13.348
86105SOL    HW160154  14.394   7.931  13.404
86105SOL    HW260155  14.269   8.016  13.396
86106SOL     OW60156   2.563   1.167   5.821
86106SOL    HW160157   2.599   1.237   5.766
86106SOL    HW260158   2.468   1.183   5.820
86107SOL     OW60159  10.819  14.344   6.723
86107SOL    HW160160  10.766  14.316   6.797
86107SOL    HW260161  10.819  14.440   6.727
86108SOL     OW60162  12.127  14.361   4.908
86108SOL    HW160163  12.193  14.386   4.972
86108SOL    HW260164  12.155  14.276   4.875
86109SOL     OW60165  12.809   2.782  11.763
86109SOL    HW160166  12.829   2.734  11.682
86109SOL    HW260167  12.890   2.778  11.814
86110SOL     OW60168  14.270  12.050  10.710
86110SOL    HW160169  14.305  12.039  10.622
86110SOL    HW260170  14.235  11.964  10.734
86111SOL     OW60171   1.837  12.148   5.518
86111SOL    HW160172   1.743  12.163   5.516
86111SOL    HW260173   1.859  12.120   5.429
86112SOL     OW60174  10.040  14.202   0.953
86112SOL    HW160175  10.135  14.206   0.964
86112SOL    HW260176  10.006  14.269   1.013
86113SOL     OW60177   5.124   3.172   6.805
86113SOL    HW160178   5.111   3.107   6.736
86113SOL    HW260179   5.129   3.255   6.759
86114SOL     OW60180   9.079   5.609   0.791
86114SOL    HW160181   9.039   5.535   0.744
86114SOL    HW260182   9.032   5.612   0.874
86115SOL     OW60183   4.050   7.322   5.339
86115SOL    HW160184   4.018   7.366   5.260
86115SOL    HW260185   4.050   7.391   5.406
86116SOL     OW60186   5.276  10.017   1.394
86116SOL    HW160187   5.328   9.985   1.468
86116SOL    HW260188   5.258   9.938   1.343
86117SOL     OW60189   1.821   9.011   5.381
86117SOL    HW160190   1.907   8.975   5.402
86117SOL    HW260191   1.766   8.987   5.456
86118SOL     OW60192   8.437  11.104  11.367
86118SOL    HW160193   8.403  11.016  11.382
86118SOL    HW260194   8.443  11.113  11.272
86119SOL     OW60195  11.231   1.094  10.425
86119SOL    HW160196  11.319   1.101  10.461
86119SOL    HW260197  11.229   1.008  10.383
86120SOL     OW60198   5.866   4.647   6.077
86120SOL    HW160199   5.819   4.731   6.071
86120SOL    HW260200   5.844   4.614   6.164
86121SOL     OW60201   3.264   1.165   9.645
86121SOL    HW160202   3.192   1.122   9.598
86121SOL    HW260203   3.256   1.135   9.735
86122SOL     OW60204  12.808  12.638   1.080
86122SOL    HW160205  12.733  12.615   1.134
86122SOL    HW260206  12.883  12.632   1.140
86123SOL     OW60207   6.208   8.461   2.366
86123SOL    HW160208   6.263   8.384   2.354
86123SOL    HW260209   6.269   8.534   2.370
86124SOL     OW60210   2.550  14.714  12.479
86124SOL    HW160211   2.543  14.797  12.524
86124SOL    HW260212   2.557  14.649  12.549
86125SOL     OW60213   2.828   3.747   4.685
86125SOL    HW160214   2.876   3.735   4.603
86125SOL    HW260215   2.800   3.839   4.683
86126SOL     OW60216   9.365   5.963   4.887
86126SOL    HW160217   9.351   5.919   4.802
86126SOL    HW260218   9.395   5.893   4.945
86127SOL     OW60219   7.399  12.147   3.730
86127SOL    HW160220   7.492  12.134   3.749
86127SOL    HW260221   7.353  12.092   3.794
86128SOL     OW60222   8.851  13.790  10.325
86128SOL    HW160223   8.776  13.756  10.374
86128SOL    HW260224   8.893  13.712  10.287
86129SOL     OW60225   7.102   8.490  14.181
86129SOL    HW160226   7.138   8.575  14.155
86129SOL    HW260227   7.106   8.437  14.101
86130SOL     OW60228   9.775   2.408   3.895
86130SOL    HW160229   9.775   2.343   3.825
86130SOL    HW260230   9.868   2.429   3.908
86131SOL     OW60231  11.643  13.298  11.380
86131SOL    HW160232  11.599  13.289  11.464
86131SOL    HW260233  11.595  13.369  11.335
86132SOL     OW60234   1.584   5.494   3.664
86132SOL    HW160235   1.503   5.514   3.617
86132SOL    HW260236   1.565   5.413   3.712
86133SOL     OW60237  13.699  12.453  13.698
86133SOL    HW160238  13.794  12.458  13.711
86133SOL    HW260239  13.662  12.474  13.784
86134SOL     OW60240  13.468   8.087   4.671
86134SOL    HW160241  13.478   8.011   4.613
86134SOL    HW260242  13.451   8.049   4.757
86135SOL     OW60243   3.527   8.343  11.328
86135SOL    HW160244   3.527   8.397  11.249
86135SOL    HW260245   3.536   8.253  11.297
86136SOL     OW60246  12.487   4.300   2.505
86136SOL    HW160247  12.513   4.384   2.469
86136SOL    HW260248  12.414   4.321   2.564
86137SOL     OW60249  14.519   1.412  12.764
86137SOL    HW160250  14.502   1.473  12.837
86137SOL    HW260251  14.595   1.362  12.792
86138SOL     OW60252   6.565   1.338   3.567
86138SOL    HW160253   6.570   1.346   3.472
86138SOL    HW260254   6.569   1.244   3.584
86139SOL     OW60255   5.502   8.726  12.071
86139SOL    HW160256   5.527   8.712  12.162
86139SOL    HW260257   5.406   8.729  12.072
86140SOL     OW60258   0.294   5.739   6.731
86140SOL    HW160259   0.210   5.778   6.757
86140SOL    HW260260   0.358   5.809   6.745
86141SOL     OW60261   3.604   6.503   9.878
86141SOL    HW160262   3.515   6.523   9.904
86141SOL    HW260263   3.622   6.417   9.916
86142SOL     OW60264  14.662   1.165   7.867
86142SOL    HW160265  14.697   1.246   7.830
86142SOL    HW260266  14.567   1.179   7.870
86143SOL     OW60267   9.090   6.865  14.218
86143SOL    HW160268   9.175   6.824  14.200
86143SOL    HW260269   9.046   6.867  14.133
86144SOL     OW60270   1.962   9.595   5.311
86144SOL    HW160271   2.015   9.674   5.298
86144SOL    HW260272   1.876   9.628   5.334
86145SOL     OW60273  10.648   3.390  14.434
86145SOL    HW160274  10.716   3.348  14.381
86145SOL    HW260275  10.689   3.401  14.520
86146SOL     OW60276  14.751  10.040  13.668
86146SOL    HW160277  14.824  10.009  13.615
86146SOL    HW260278  14.784  10.038  13.758
86147SOL     OW60279  10.258   1.343  12.563
86147SOL    HW160280  10.347   1.320  12.588
86147SOL    HW260281  10.235   1.280  12.494
86148SOL     OW60282  13.133   1.455   4.650
86148SOL    HW160283  13.129   1.550   4.639
86148SOL    HW260284  13.062   1.421   4.595
86149SOL     OW60285   4.276  10.916   5.623
86149SOL    HW160286   4.195  10.967   5.622
86149SOL    HW260287   4.259  10.845   5.685
86150SOL     OW60288   3.768   7.248   9.376
86150SOL    HW160289   3.852   7.202   9.380
86150SOL    HW260290   3.752   7.276   9.466
86151SOL     OW60291   8.284   3.652   9.498
86151SOL    HW160292   8.375   3.623   9.503
86151SOL    HW260293   8.290   3.746   9.483
86152SOL     OW60294  12.210  13.216   3.533
86152SOL    HW160295  12.293  13.255   3.560
86152SOL    HW260296  12.144  13.261   3.586
86153SOL     OW60297   9.019   1.106   9.971
86153SOL    HW160298   8.986   1.195   9.960
86153SOL    HW260299   8.941   1.053   9.986
86154SOL     OW60300   5.377   3.851   8.285
86154SOL    HW160301   5.336   3.779   8.238
86154SOL    HW260302   5.341   3.930   8.245
86155SOL     OW60303   1.057   5.136   2.846
86155SOL    HW160304   0.989   5.132   2.778
86155SOL    HW260305   1.068   5.045   2.874
86156SOL     OW60306   8.588   3.062   3.562
86156SOL    HW160307   8.608   3.152   3.536
86156SOL    HW260308   8.641   3.008   3.503
86157SOL     OW60309  10.514  11.946   9.552
86157SOL    HW160310  10.483  11.911   9.635
86157SOL    HW260311  10.579  12.012   9.577
86158SOL     OW60312  13.868   7.595  12.489
86158SOL    HW160313  13.899   7.650  12.560
86158SOL    HW260314  13.911   7.511  12.503
86159SOL     OW60315   2.490   6.597  13.079
86159SOL    HW160316   2.520   6.684  13.104
86159SOL    HW260317   2.491   6.598  12.983
86160SOL     OW60318  13.017   6.561   3.910
86160SOL    HW160319  12.941   6.507   3.929
86160SOL    HW260320  12.984   6.631   3.853
86161SOL     OW60321  11.016   5.156  13.300
86161SOL    HW160322  11.006   5.249  13.279
86161SOL    HW260323  10.928   5.120  13.295
86162SOL     OW60324  13.258   5.414   5.254
86162SOL    HW160325  13.322   5.359   5.299
86162SOL    HW260326  13.178   5.360   5.252
86163SOL     OW60327   5.057   5.379   0.379
86163SOL    HW160328   5.096   5.292   0.384
86163SOL    HW260329   5.131   5.440   0.386
86164SOL     OW60330   7.922   4.150  10.079
86164SOL    HW160331   7.897   4.091  10.150
86164SOL    HW260332   7.850   4.146  10.016
86165SOL     OW60333   8.406   3.234   3.102
86165SOL    HW160334   8.417   3.325   3.129
86165SOL    HW260335   8.311   3.223   3.092
86166SOL     OW60336   9.568   4.996  10.491
86166SOL    HW160337   9.495   5.032  10.543
86166SOL    HW260338   9.544   5.016  10.401
86167SOL     OW60339   6.512   4.231   8.377
86167SOL    HW160340   6.599   4.216   8.414
86167SOL    HW260341   6.497   4.325   8.388
86168SOL     OW60342  14.188   6.588   4.504
86168SOL    HW160343  14.257   6.544   4.455
86168SOL    HW260344  14.231   6.620   4.583
86169SOL     OW60345   8.832   1.272  11.620
86169SOL    HW160346   8.826   1.205  11.551
86169SOL    HW260347   8.875   1.346  11.578
86170SOL     OW60348   0.166  14.093   6.551
86170SOL    HW160349   0.152  14.185   6.531
86170SOL    HW260350   0.139  14.046   6.472
86171SOL     OW60351   8.224  11.243   9.436
86171SOL    HW160352   8.176  11.325   9.445
86171SOL    HW260353   8.303  11.255   9.490
86172SOL     OW60354   0.949   9.957   0.718
86172SOL    HW160355   0.989  10.042   0.701
86172SOL    HW260356   0.903   9.936   0.637
86173SOL     OW60357   5.645   8.687   4.548
86173SOL    HW160358   5.709   8.700   4.618
86173SOL    HW260359   5.640   8.592   4.538
86174SOL     OW60360   1.030   1.276  10.713
86174SOL    HW160361   1.119   1.249  10.691
86174SOL    HW260362   0.976   1.200  10.692
86175SOL     OW60363   8.278   1.233  11.534
86175SOL    HW160364   8.292   1.201  11.624
86175SOL    HW260365   8.185   1.220  11.518
86176SOL     OW60366   8.893   0.476  11.003
86176SOL    HW160367   8.801   0.450  10.999
86176SOL    HW260368   8.921   0.451  11.091
86177SOL     OW60369   0.222  11.326  11.335
86177SOL    HW160370   0.195  11.406  11.289
86177SOL    HW260371   0.318  11.332  11.338
86178SOL     OW60372  14.339  12.964   4.829
86178SOL    HW160373  14.357  12.901   4.759
86178SOL    HW260374  14.326  12.910   4.907
86179SOL     OW60375  10.236   7.510  11.305
86179SOL    HW160376  10.171   7.441  11.313
86179SOL    HW260377  10.245   7.544  11.394
86180SOL     OW60378   0.133   0.495   9.865
86180SOL    HW160379   0.046   0.456   9.871
86180SOL    HW260380   0.180   0.442   9.800
86181SOL     OW60381   4.690   4.525  11.337
86181SOL    HW160382   4.712   4.618  11.345
86181SOL    HW260383   4.707   4.489  11.424
86182SOL     OW60384   4.184   2.957   9.477
86182SOL    HW160385   4.202   3.050   9.465
86182SOL    HW260386   4.185   2.921   9.388
86183SOL     OW60387   6.858   2.488   7.674
86183SOL    HW160388   6.907   2.515   7.752
86183SOL    HW260389   6.795   2.559   7.660
86184SOL     OW60390   2.904   0.056   6.294
86184SOL    HW160391   2.848   0.093   6.226
86184SOL    HW260392   2.864   0.083   6.376
86185SOL     OW60393   4.248  14.195   9.634
86185SOL    HW160394   4.226  14.214   9.542
86185SOL    HW260395   4.277  14.279   9.670
86186SOL     OW60396   6.452  10.272   5.173
86186SOL    HW160397   6.536  10.298   5.212
86186SOL    HW260398   6.457  10.304   5.082
86187SOL     OW60399   2.601  12.541  13.567
86187SOL    HW160400   2.641  12.509  13.486
86187SOL    HW260401   2.508  12.553  13.544
86188SOL     OW60402   9.359   5.162   5.548
86188SOL    HW160403   9.385   5.236   5.602
86188SOL    HW260404   9.303   5.200   5.481
86189SOL     OW60405   5.949  11.926  11.554
86189SOL    HW160406   6.018  11.914  11.619
86189SOL    HW260407   5.993  11.918  11.470
86190SOL     OW60408   5.581   2.440   8.214
86190SOL    HW160409   5.541   2.369   8.165
86190SOL    HW260410   5.514   2.465   8.278
86191SOL     OW60411  11.692   7.888  11.189
86191SOL    HW160412  11.698   7.974  11.230
86191SOL    HW260413  11.626   7.898  11.121
86192SOL     OW60414   0.815  11.601  13.650
86192SOL    HW160415   0.908  11.593  13.673
86192SOL    HW260416   0.777  11.652  13.721
86193SOL     OW60417   6.472   0.607   0.593
86193SOL    HW160418   6.537   0.542   0.619
86193SOL    HW260419   6.388   0.570   0.623
86194SOL     OW60420   3.239   5.108   6.983
86194SOL    HW160421   3.331   5.124   7.005
86194SOL    HW260422   3.190   5.171   7.036
86195SOL     OW60423   5.477   7.457   9.147
86195SOL    HW160424   5.419   7.476   9.221
86195SOL    HW260425   5.509   7.543   9.120
86196SOL     OW60426   9.827   9.421   5.748
86196SOL    HW160427   9.828   9.370   5.829
86196SOL    HW260428   9.852   9.510   5.776
86197SOL     OW60429  11.327   0.091   0.457
86197SOL    HW160430  11.258   0.070   0.394
86197SOL    HW260431  11.373   0.008   0.471
86198SOL     OW60432   3.329  11.032  10.427
86198SOL    HW160433   3.383  10.966  10.383
86198SOL    HW260434   3.239  11.012  10.399
86199SOL     OW60435   8.554  11.513   5.846
86199SOL    HW160436   8.555  11.422   5.816
86199SOL    HW260437   8.641  11.545   5.824
86200SOL     OW60438   0.101   5.441   5.959
86200SOL    HW160439   0.099   5.352   5.926
86200SOL    HW260440   0.152   5.435   6.040
86201SOL     OW60441  12.460  14.451   5.855
86201SOL    HW160442  12.492  14.396   5.927
86201SOL    HW260443  12.391  14.504   5.894
86202SOL     OW60444  12.303   8.333  12.761
86202SOL    HW160445  12.349   8.318  12.844
86202SOL    HW260446  12.245   8.258  12.751
86203SOL     OW60447   1.041   1.744   9.574
86203SOL    HW160448   1.059   1.790   9.492
86203SOL    HW260449   1.006   1.659   9.547
86204SOL     OW60450   3.734   0.743  12.131
86204SOL    HW160451   3.777   0.703  12.056
86204SOL    HW260452   3.665   0.797  12.093
86205SOL     OW60453   6.582   7.040  14.008
86205SOL    HW160454   6.580   7.092  14.088
86205SOL    HW260455   6.490   7.023  13.989
86206SOL     OW60456   9.651   5.380   5.568
86206SOL    HW160457   9.736   5.423   5.575
86206SOL    HW260458   9.631   5.380   5.474
86207SOL     OW60459   0.948   4.259  10.596
86207SOL    HW160460   0.950   4.171  10.558
86207SOL    HW260461   0.858   4.289  10.583
86208SOL     OW60462   2.404  13.839   3.369
86208SOL    HW160463   2.409  13.829   3.464
86208SOL    HW260464   2.311  13.848   3.350
86209SOL     OW60465   0.010   4.773   1.753
86209SOL    HW160466  14.803   4.825   1.759
86209SOL    HW260467   0.078   4.831   1.789
86210SOL     OW60468  11.189   0.609   9.572
86210SOL    HW160469  11.232   0.672   9.630
86210SOL    HW260470  11.261   0.565   9.527
86211SOL     OW60471  10.006   9.209  11.159
86211SOL    HW160472   9.987   9.167  11.075
86211SOL    HW260473  10.096   9.181  11.180
86212SOL     OW60474   8.243   8.313   9.775
86212SOL    HW160475   8.330   8.311   9.814
86212SOL    HW260476   8.234   8.402   9.742
86213SOL     OW60477  10.387   2.235   3.286
86213SOL    HW160478  10.437   2.222   3.205
86213SOL    HW260479  10.335   2.314   3.270
86214SOL     OW60480  14.785   6.750  13.911
86214SOL    HW160481  14.815   6.836  13.880
86214SOL    HW260482  14.698   6.740  13.873
86215SOL     OW60483   5.121  10.902   9.637
86215SOL    HW160484   5.171  10.966   9.688
86215SOL    HW260485   5.070  10.956   9.576
86216SOL     OW60486   5.977   9.262  12.336
86216SOL    HW160487   5.972   9.175  12.297
86216SOL    HW260488   6.009   9.246  12.425
86217SOL     OW60489   5.905  14.689  10.230
86217SOL    HW160490   5.890  14.606  10.276
86217SOL    HW260491   5.980  14.673  10.173
86218SOL     OW60492  10.367  10.359   2.600
86218SOL    HW160493  10.388  10.452   2.586
86218SOL    HW260494  10.289  10.360   2.655
86219SOL     OW60495   7.547   8.365   4.074
86219SOL    HW160496   7.540   8.390   4.166
86219SOL    HW260497   7.458   8.341   4.049
86220SOL     OW60498  14.188   6.957  14.642
86220SOL    HW160499  14.156   7.043  14.670
86220SOL    HW260500  14.264   6.976  14.587
86221SOL     OW60501  10.146   0.288  11.403
86221SOL    HW160502  10.083   0.319  11.468
86221SOL    HW260503  10.104   0.211  11.364
86222SOL     OW60504   7.608  13.065   7.788
86222SOL    HW160505   7.604  13.138   7.726
86222SOL    HW260506   7.702  13.056   7.808
86223SOL     OW60507   1.762   4.821   6.300
86223SOL    HW160508   1.735   4.731   6.315
86223SOL    HW260509   1.721   4.871   6.371
86224SOL     OW60510   9.223  10.046  10.103
86224SOL    HW160511   9.256  10.136  10.109
86224SOL    HW260512   9.237  10.010  10.191
86225SOL     OW60513   0.340   3.312   5.247
86225SOL    HW160514   0.369   3.378   5.184
86225SOL    HW260515   0.253   3.342   5.274
86226SOL     OW60516   9.174  12.442   2.654
86226SOL    HW160517   9.188  12.508   2.721
86226SOL    HW260518   9.155  12.361   2.702
86227SOL     OW60519   9.610   2.796  13.374
86227SOL    HW160520   9.635   2.888  13.389
86227SOL    HW260521   9.575   2.795  13.285
86228SOL     OW60522   1.526  12.848   7.057
86228SOL    HW160523   1.504  12.817   7.145
86228SOL    HW260524   1.618  12.872   7.064
86229SOL     OW60525   0.611   8.032   6.808
86229SOL    HW160526   0.591   7.984   6.889
86229SOL    HW260527   0.612   7.964   6.740
86230SOL     OW60528   7.843   1.502  13.796
86230SOL    HW160529   7.848   1.549  13.879
86230SOL    HW260530   7.935   1.483  13.774
86231SOL     OW60531   2.993   1.048   3.323
86231SOL    HW160532   3.004   1.104   3.400
86231SOL    HW260533   2.929   0.982   3.350
86232SOL     OW60534  13.818   4.179   2.243
86232SOL    HW160535  13.822   4.224   2.159
86232SOL    HW260536  13.739   4.125   2.237
86233SOL     OW60537   5.133   9.545   9.870
86233SOL    HW160538   5.094   9.560   9.784
86233SOL    HW260539   5.132   9.450   9.880
86234SOL     OW60540   9.158  12.509   9.758
86234SOL    HW160541   9.179  12.489   9.667
86234SOL    HW260542   9.122  12.598   9.756
86235SOL     OW60543   0.014  10.387   6.353
86235SOL    HW160544   0.077  10.316   6.341
86235SOL    HW260545  14.865  10.414   6.265
86236SOL     OW60546   6.096   0.370   7.236
86236SOL    HW160547   6.058   0.305   7.176
86236SOL    HW260548   6.114   0.320   7.316
86237SOL     OW60549   0.993   1.654   9.219
86237SOL    HW160550   0.911   1.655   9.268
86237SOL    HW260551   1.016   1.561   9.212
86238SOL     OW60552  13.688   0.784   5.480
86238SOL    HW160553  13.687   0.766   5.575
86238SOL    HW260554  13.756   0.726   5.446
86239SOL     OW60555  12.669   0.251   4.205
86239SOL    HW160556  12.661   0.272   4.112
86239SOL    HW260557  12.757   0.217   4.215
86240SOL     OW60558   7.006  11.479  12.962
86240SOL    HW160559   7.056  11.560  12.960
86240SOL    HW260560   6.994  11.459  13.055
86241SOL     OW60561  13.681  14.352  13.562
86241SOL    HW160562  13.757  14.295  13.555
86241SOL    HW260563  13.711  14.436  13.526
86242SOL     OW60564  14.562   8.810   9.150
86242SOL    HW160565  14.495   8.866   9.110
86242SOL    HW260566  14.637   8.868   9.164
86243SOL     OW60567   1.741   5.492   4.211
86243SOL    HW160568   1.740   5.545   4.132
86243SOL    HW260569   1.650   5.467   4.225
86244SOL     OW60570   3.628   3.514   7.401
86244SOL    HW160571   3.586   3.553   7.479
86244SOL    HW260572   3.660   3.429   7.431
86245SOL     OW60573   2.979   4.507   0.145
86245SOL    HW160574   2.994   4.522   0.238
86245SOL    HW260575   2.900   4.452   0.142
86246SOL     OW60576   5.191   7.746   2.736
86246SOL    HW160577   5.135   7.676   2.702
86246SOL    HW260578   5.167   7.752   2.829
86247SOL     OW60579   4.796  13.506  13.546
86247SOL    HW160580   4.844  13.423  13.553
86247SOL    HW260581   4.845  13.566  13.601
86248SOL     OW60582   0.601  12.748   9.063
86248SOL    HW160583   0.607  12.800   8.983
86248SOL    HW260584   0.512  12.714   9.064
86249SOL     OW60585  14.108   2.727  11.097
86249SOL    HW160586  14.195   2.690  11.082
86249SOL    HW260587  14.050   2.652  11.103
86250SOL     OW60588   9.569   1.924   8.746
86250SOL    HW160589   9.613   1.853   8.794
86250SOL    HW260590   9.534   1.981   8.814
86251SOL     OW60591   6.677   7.781   5.026
86251SOL    HW160592   6.719   7.810   5.107
86251SOL    HW260593   6.708   7.843   4.960
86252SOL     OW60594  12.408  11.840  10.098
86252SOL    HW160595  12.315  11.820  10.105
86252SOL    HW260596  12.444  11.769  10.045
86253SOL     OW60597   4.085   7.718  10.298
86253SOL    HW160598   4.108   7.784  10.364
86253SOL    HW260599   4.154   7.727  10.232
86254SOL     OW60600   9.582   6.944   7.587
86254SOL    HW160601   9.618   7.033   7.587
86254SOL    HW260602   9.593   6.914   7.677
86255SOL     OW60603   4.625   6.939   1.105
86255SOL    HW160604   4.631   6.974   1.194
86255SOL    HW260605   4.561   6.995   1.061
86256SOL     OW60606  10.379   5.315   4.145
86256SOL    HW160607  10.398   5.273   4.060
86256SOL    HW260608  10.410   5.251   4.210
86257SOL     OW60609   5.949  12.279   3.313
86257SOL    HW160610   5.937  12.280   3.408
86257SOL    HW260611   6.036  12.242   3.300
86258SOL     OW60612   5.493  10.399   9.979
86258SOL    HW160613   5.451  10.395   9.893
86258SOL    HW260614   5.459  10.479  10.019
86259SOL     OW60615  12.552  14.269   6.053
86259SOL    HW160616  12.460  14.242   6.050
86259SOL    HW260617  12.600  14.188   6.070
86260SOL     OW60618  10.870  11.367  14.321
86260SOL    HW160619  10.795  11.308  14.317
86260SOL    HW260620  10.871  11.398  14.412
86261SOL     OW60621   9.637   8.128  12.290
86261SOL    HW160622   9.729   8.106  12.299
86261SOL    HW260623   9.635   8.224  12.294
86262SOL     OW60624   6.982   0.582  13.220
86262SOL    HW160625   7.045   0.641  13.179
86262SOL    HW260626   6.956   0.626  13.301
86263SOL     OW60627  12.404   1.016   1.332
86263SOL    HW160628  12.497   0.994   1.319
86263SOL    HW260629  12.383   1.074   1.258
86264SOL     OW60630   1.201   2.954  12.323
86264SOL    HW160631   1.108   2.950  12.299
86264SOL    HW260632   1.204   3.013  12.398
86265SOL     OW60633   6.876   2.110   8.449
86265SOL    HW160634   6.940   2.181   8.452
86265SOL    HW260635   6.834   2.112   8.535
86266SOL     OW60636  10.022   0.897   6.962
86266SOL    HW160637   9.993   0.809   6.987
86266SOL    HW260638  10.116   0.888   6.948
86267SOL     OW60639  12.581   0.360   9.282
86267SOL    HW160640  12.617   0.445   9.259
86267SOL    HW260641  12.613   0.301   9.213
86268SOL     OW60642   4.948   7.027   4.393
86268SOL    HW160643   4.973   7.093   4.328
86268SOL    HW260644   5.019   7.029   4.457
86269SOL     OW60645  11.020   6.569  14.754
86269SOL    HW160646  11.105   6.538  14.786
86269SOL    HW260647  11.012   6.530  14.667
86270SOL     OW60648   0.700  12.616  11.768
86270SOL    HW160649   0.759  12.692  11.765
86270SOL    HW260650   0.616  12.650  11.737
86271SOL     OW60651   8.729   5.207   3.096
86271SOL    HW160652   8.709   5.118   3.125
86271SOL    HW260653   8.756   5.197   3.005
86272SOL     OW60654   3.491   6.718  13.252
86272SOL    HW160655   3.425   6.650  13.252
86272SOL    HW260656   3.572   6.673  13.275
86273SOL     OW60657  11.063  13.644   4.148
86273SOL    HW160658  11.113  13.575   4.103
86273SOL    HW260659  11.129  13.692   4.199
86274SOL     OW60660   7.328   8.554   5.725
86274SOL    HW160661   7.390   8.626   5.712
86274SOL    HW260662   7.366   8.501   5.794
86275SOL     OW60663   7.840   2.498   0.187
86275SOL    HW160664   7.881   2.527   0.269
86275SOL    HW260665   7.812   2.408   0.205
86276SOL     OW60666   0.985  14.459   5.173
86276SOL    HW160667   0.962  14.469   5.081
86276SOL    HW260668   1.039  14.536   5.193
86277SOL     OW60669  12.428   7.199   0.393
86277SOL    HW160670  12.395   7.127   0.339
86277SOL    HW260671  12.468   7.259   0.331
86278SOL     OW60672  11.796   0.056   0.538
86278SOL    HW160673  11.788   0.063   0.443
86278SOL    HW260674  11.875   0.107   0.559
86279SOL     OW60675  12.985   4.799   5.961
86279SOL    HW160676  12.899   4.835   5.941
86279SOL    HW260677  12.976   4.765   6.050
86280SOL     OW60678   6.388   4.943  12.216
86280SOL    HW160679   6.307   4.919  12.261
86280SOL    HW260680   6.412   5.028  12.254
86281SOL     OW60681   8.387  13.283  13.367
86281SOL    HW160682   8.478  13.254  13.368
86281SOL    HW260683   8.365  13.291  13.275
86282SOL     OW60684   6.534   4.022  14.375
86282SOL    HW160685   6.507   4.038  14.284
86282SOL    HW260686   6.467   4.065  14.428
86283SOL     OW60687  14.459  10.233   6.759
86283SOL    HW160688  14.525  10.280   6.810
86283SOL    HW260689  14.510  10.176   6.701
86284SOL     OW60690   2.053   7.621   2.025
86284SOL    HW160691   2.054   7.677   2.103
86284SOL    HW260692   2.091   7.675   1.956
86285SOL     OW60693   6.063  10.245   2.973
86285SOL    HW160694   6.134  10.308   2.984
86285SOL    HW260695   6.087  10.171   3.030
86286SOL     OW60696  11.601   7.450   5.710
86286SOL    HW160697  11.643   7.374   5.749
86286SOL    HW260698  11.674   7.500   5.672
86287SOL     OW60699   5.063  12.090  10.342
86287SOL    HW160700   5.136  12.028  10.353
86287SOL    HW260701   5.029  12.103  10.430
86288SOL     OW60702   3.326   2.180  10.752
86288SOL    HW160703   3.399   2.223  10.708
86288SOL    HW260704   3.316   2.097  10.706
86289SOL     OW60705  13.318   9.829  12.078
86289SOL    HW160706  13.397   9.881  12.091
86289SOL    HW260707  13.285   9.812  12.166
86290SOL     OW60708   3.796   9.946  13.461
86290SOL    HW160709   3.769   9.913  13.376
86290SOL    HW260710   3.745  10.026  13.474
86291SOL     OW60711  12.425   1.360  14.553
86291SOL    HW160712  12.381   1.306  14.619
86291SOL    HW260713  12.438   1.301  14.479
86292SOL     OW60714   9.905   8.760  11.090
86292SOL    HW160715   9.989   8.760  11.135
86292SOL    HW260716   9.918   8.819  11.016
86293SOL     OW60717  14.417   9.894  11.610
86293SOL    HW160718  14.380   9.937  11.533
86293SOL    HW260719  14.362   9.817  11.623
86294SOL     OW60720   4.793   5.053   7.699
86294SOL    HW160721   4.704   5.088   7.701
86294SOL    HW260722   4.850   5.130   7.700
86295SOL     OW60723  12.592   1.162  12.176
86295SOL    HW160724  12.506   1.198  12.155
86295SOL    HW260725  12.606   1.094  12.110
86296SOL     OW60726  10.644  11.742   3.566
86296SOL    HW160727  10.670  11.831   3.541
86296SOL    HW260728  10.549  11.743   3.562
86297SOL     OW60729   0.739   4.918   1.689
86297SOL    HW160730   0.832   4.937   1.676
86297SOL    HW260731   0.697   5.004   1.685
86298SOL     OW60732   3.556  13.903   0.186
86298SOL    HW160733   3.587  13.982   0.141
86298SOL    HW260734   3.598  13.831   0.138
86299SOL     OW60735   6.341   1.525  11.781
86299SOL    HW160736   6.408   1.523  11.849
86299SOL    HW260737   6.263   1.559  11.826
86300SOL     OW60738   9.730  10.804   3.803
86300SOL    HW160739   9.701  10.777   3.890
86300SOL    HW260740   9.692  10.891   3.791
86301SOL     OW60741   0.704   6.703   3.591
86301SOL    HW160742   0.747   6.785   3.566
86301SOL    HW260743   0.751   6.636   3.542
86302SOL     OW60744   7.455   5.353   2.956
86302SOL    HW160745   7.494   5.417   3.015
86302SOL    HW260746   7.529   5.319   2.905
86303SOL     OW60747   3.832  10.494   0.507
86303SOL    HW160748   3.839  10.504   0.602
86303SOL    HW260749   3.803  10.404   0.494
86304SOL     OW60750  11.301   3.295   0.116
86304SOL    HW160751  11.254   3.353   0.057
86304SOL    HW260752  11.327   3.350   0.190
86305SOL     OW60753   4.314   2.685  12.858
86305SOL    HW160754   4.402   2.695  12.896
86305SOL    HW260755   4.266   2.761  12.892
86306SOL     OW60756   7.666  14.486  11.066
86306SOL    HW160757   7.745  14.466  11.115
86306SOL    HW260758   7.655  14.581  11.075
86307SOL     OW60759   7.484  13.844   5.164
86307SOL    HW160760   7.455  13.761   5.124
86307SOL    HW260761   7.565  13.821   5.209
86308SOL     OW60762  10.465   1.637  11.054
86308SOL    HW160763  10.502   1.554  11.023
86308SOL    HW260764  10.392   1.610  11.110
86309SOL     OW60765   5.764   6.372   2.328
86309SOL    HW160766   5.802   6.459   2.340
86309SOL    HW260767   5.746   6.342   2.417
86310SOL     OW60768   2.988   1.018  12.638
86310SOL    HW160769   3.003   1.055  12.725
86310SOL    HW260770   2.935   1.083  12.593
86311SOL     OW60771   3.653   9.198   1.974
86311SOL    HW160772   3.669   9.152   1.892
86311SOL    HW260773   3.558   9.199   1.984
86312SOL     OW60774   2.895  13.122   9.443
86312SOL    HW160775   2.937  13.120   9.529
86312SOL    HW260776   2.965  13.147   9.383
86313SOL     OW60777   2.478   5.814   9.995
86313SOL    HW160778   2.547   5.873  10.023
86313SOL    HW260779   2.474   5.746  10.062
86314SOL     OW60780   9.432   9.685   3.053
86314SOL    HW160781   9.428   9.695   2.958
86314SOL    HW260782   9.494   9.751   3.082
86315SOL     OW60783   6.026  13.355   8.652
86315SOL    HW160784   6.057  13.313   8.732
86315SOL    HW260785   6.099  13.411   8.624
86316SOL     OW60786  14.845   4.323   1.472
86316SOL    HW160787  14.870   4.398   1.525
86316SOL    HW260788  14.818   4.361   1.388
86317SOL     OW60789   6.318   0.853  10.200
86317SOL    HW160790   6.269   0.928  10.166
86317SOL    HW260791   6.361   0.886  10.279
86318SOL     OW60792   9.419  10.908   8.901
86318SOL    HW160793   9.461  10.824   8.921
86318SOL    HW260794   9.459  10.970   8.962
86319SOL     OW60795   0.695  12.328   1.891
86319SOL    HW160796   0.770  12.382   1.864
86319SOL    HW260797   0.712  12.243   1.851
86320SOL     OW60798  12.162   3.509   4.589
86320SOL    HW160799  12.214   3.534   4.512
86320SOL    HW260800  12.197   3.565   4.660
86321SOL     OW60801   5.822   4.059  11.491
86321SOL    HW160802   5.866   4.027  11.413
86321SOL    HW260803   5.837   3.992  11.557
86322SOL     OW60804  11.368   0.347   8.692
86322SOL    HW160805  11.329   0.430   8.666
86322SOL    HW260806  11.394   0.361   8.783
86323SOL     OW60807  13.178   6.124   0.717
86323SOL    HW160808  13.148   6.167   0.637
86323SOL    HW260809  13.271   6.106   0.701
86324SOL     OW60810  11.737   5.585   1.151
86324SOL    HW160811  11.830   5.570   1.169
86324SOL    HW260812  11.737   5.651   1.082
86325SOL     OW60813   1.260  10.082   5.548
86325SOL    HW160814   1.167  10.100   5.534
86325SOL    HW260815   1.271   9.990   5.524
86326SOL     OW60816   2.337   4.969   0.895
86326SOL    HW160817   2.386   4.925   0.825
86326SOL    HW260818   2.391   5.044   0.918
86327SOL     OW60819  11.586  13.018  10.290
86327SOL    HW160820  11.655  12.951  10.286
86327SOL    HW260821  11.631  13.100  10.271
86328SOL     OW60822   9.171   6.256   8.800
86328SOL    HW160823   9.187   6.350   8.803
86328SOL    HW260824   9.258   6.218   8.790
86329SOL     OW60825   8.935   6.753  11.321
86329SOL    HW160826   8.842   6.732  11.314
86329SOL    HW260827   8.938   6.830  11.378
86330SOL     OW60828   6.625   4.534   0.096
86330SOL    HW160829   6.590   4.615   0.059
86330SOL    HW260830   6.680   4.564   0.168
86331SOL     OW60831   0.549  14.860   5.961
86331SOL    HW160832   0.626  14.810   5.937
86331SOL    HW260833   0.569   0.022   6.048
86332SOL     OW60834   7.061   3.959   6.891
86332SOL    HW160835   7.013   3.908   6.956
86332SOL    HW260836   7.054   3.908   6.810
86333SOL     OW60837   9.374  14.125   0.514
86333SOL    HW160838   9.391  14.031   0.507
86333SOL    HW260839   9.305  14.132   0.579
86334SOL     OW60840  12.724  11.813  11.856
86334SOL    HW160841  12.771  11.804  11.773
86334SOL    HW260842  12.681  11.728  11.868
86335SOL     OW60843   7.370   1.296   4.479
86335SOL    HW160844   7.300   1.274   4.541
86335SOL    HW260845   7.418   1.214   4.467
86336SOL     OW60846   0.355   9.057  14.697
86336SOL    HW160847   0.282   9.080  14.753
86336SOL    HW260848   0.413   9.005  14.754
86337SOL     OW60849  14.124  13.341   7.279
86337SOL    HW160850  14.075  13.277   7.330
86337SOL    HW260851  14.202  13.358   7.331
86338SOL     OW60852  10.358   0.685  10.022
86338SOL    HW160853  10.309   0.760   9.988
86338SOL    HW260854  10.373   0.706  10.114
86339SOL     OW60855   0.106   5.869   3.442
86339SOL    HW160856   0.079   5.841   3.530
86339SOL    HW260857   0.079   5.798   3.385
86340SOL     OW60858   4.277   3.299  12.940
86340SOL    HW160859   4.185   3.274  12.931
86340SOL    HW260860   4.285   3.380  12.890
86341SOL     OW60861  14.652   3.520  10.452
86341SOL    HW160862  14.629   3.540  10.543
86341SOL    HW260863  14.617   3.594  10.401
86342SOL     OW60864  12.493   3.002   6.250
86342SOL    HW160865  12.427   2.933   6.253
86342SOL    HW260866  12.472   3.059   6.324
86343SOL     OW60867   6.341  14.482  10.637
86343SOL    HW160868   6.419  14.536  10.651
86343SOL    HW260869   6.303  14.471  10.724
86344SOL     OW60870  10.103   8.994   8.003
86344SOL    HW160871  10.011   8.970   8.014
86344SOL    HW260872  10.102   9.062   7.936
86345SOL     OW60873   8.776   2.756   3.899
86345SOL    HW160874   8.866   2.775   3.926
86345SOL    HW260875   8.743   2.838   3.864
86346SOL     OW60876   0.590   0.871   8.966
86346SOL    HW160877   0.681   0.840   8.970
86346SOL    HW260878   0.564   0.858   8.875
86347SOL     OW60879  13.619   4.114   4.192
86347SOL    HW160880  13.578   4.201   4.191
86347SOL    HW260881  13.621   4.088   4.100
86348SOL     OW60882   6.309  11.378  14.663
86348SOL    HW160883   6.401  11.389  14.639
86348SOL    HW260884   6.278  11.306  14.608
86349SOL     OW60885   3.330   4.791   0.664
86349SOL    HW160886   3.380   4.758   0.590
86349SOL    HW260887   3.372   4.874   0.686
86350SOL     OW60888  12.227   9.396   3.326
86350SOL    HW160889  12.184   9.356   3.250
86350SOL    HW260890  12.162   9.457   3.361
86351SOL     OW60891  14.638  13.836   0.406
86351SOL    HW160892  14.656  13.928   0.426
86351SOL    HW260893  14.614  13.836   0.314
86352SOL     OW60894   5.133  10.361  14.816
86352SOL    HW160895   5.132  10.445  14.862
86352SOL    HW260896   5.087  10.301   0.002
86353SOL     OW60897   4.747  12.269  12.919
86353SOL    HW160898   4.795  12.337  12.966
86353SOL    HW260899   4.655  12.284  12.944
86354SOL     OW60900   4.402   3.396   6.717
86354SOL    HW160901   4.457   3.445   6.778
86354SOL    HW260902   4.337   3.460   6.687
86355SOL     OW60903   6.005  12.648  13.911
86355SOL    HW160904   5.927  12.625  13.962
86355SOL    HW260905   6.040  12.726  13.954
86356SOL     OW60906   6.342   0.379   7.560
86356SOL    HW160907   6.268   0.380   7.621
86356SOL    HW260908   6.361   0.472   7.545
86357SOL     OW60909   0.367   3.504  13.115
86357SOL    HW160910   0.355   3.591  13.153
86357SOL    HW260911   0.458   3.483  13.132
86358SOL     OW60912   3.239  11.913   4.444
86358SOL    HW160913   3.160  11.964   4.425
86358SOL    HW260914   3.302  11.979   4.476
86359SOL     OW60915  13.480  13.198   1.424
86359SOL    HW160916  13.506  13.106   1.421
86359SOL    HW260917  13.386  13.197   1.439
86360SOL     OW60918   3.803   0.299   3.064
86360SOL    HW160919   3.808   0.203   3.061
86360SOL    HW260920   3.720   0.319   3.021
86361SOL     OW60921  13.142  14.185   1.432
86361SOL    HW160922  13.217  14.127   1.420
86361SOL    HW260923  13.152  14.251   1.363
86362SOL     OW60924   4.394   4.870  13.545
86362SOL    HW160925   4.345   4.851  13.465
86362SOL    HW260926   4.348   4.820  13.613
86363SOL     OW60927   0.995   3.867   3.860
86363SOL    HW160928   1.042   3.949   3.845
86363SOL    HW260929   0.972   3.836   3.772
86364SOL     OW60930  13.833   5.409  11.266
86364SOL    HW160931  13.845   5.357  11.187
86364SOL    HW260932  13.831   5.500  11.235
86365SOL     OW60933  11.447   4.135   2.842
86365SOL    HW160934  11.397   4.155   2.921
86365SOL    HW260935  11.532   4.178   2.856
86366SOL     OW60936   1.773   9.255   7.929
86366SOL    HW160937   1.868   9.261   7.936
86366SOL    HW260938   1.753   9.288   7.841
86367SOL     OW60939  13.439  11.412   7.133
86367SOL    HW160940  13.503  11.344   7.156
86367SOL    HW260941  13.406  11.443   7.217
86368SOL     OW60942   9.855   5.325   1.394
86368SOL    HW160943   9.840   5.416   1.370
86368SOL    HW260944   9.767   5.290   1.410
86369SOL     OW60945   1.267  13.134  10.082
86369SOL    HW160946   1.286  13.051  10.037
86369SOL    HW260947   1.239  13.193  10.012
86370SOL     OW60948   3.387   8.740   2.565
86370SOL    HW160949   3.391   8.658   2.516
86370SOL    HW260950   3.479   8.768   2.572
86371SOL     OW60951   0.056   7.985   5.201
86371SOL    HW160952   0.015   7.899   5.206
86371SOL    HW260953   0.124   7.983   5.269
86372SOL     OW60954  14.183   7.555  12.014
86372SOL    HW160955  14.225   7.499  12.080
86372SOL    HW260956  14.093   7.566  12.047
86373SOL     OW60957   1.785  12.260  12.791
86373SOL    HW160958   1.743  12.261  12.705
86373SOL    HW260959   1.820  12.172  12.801
86374SOL     OW60960   6.371   7.451  13.658
86374SOL    HW160961   6.367   7.420  13.748
86374SOL    HW260962   6.463   7.475  13.644
86375SOL     OW60963  12.526  12.919   4.269
86375SOL    HW160964  12.498  12.973   4.195
86375SOL    HW260965  12.451  12.919   4.328
86376SOL     OW60966   5.445   9.027   7.013
86376SOL    HW160967   5.368   9.041   6.958
86376SOL    HW260968   5.498   9.105   7.000
86377SOL     OW60969  12.552  11.238   5.793
86377SOL    HW160970  12.531  11.196   5.877
86377SOL    HW260971  12.537  11.169   5.728
86378SOL     OW60972   7.889  13.346   0.856
86378SOL    HW160973   7.965  13.400   0.840
86378SOL    HW260974   7.917  13.257   0.834
86379SOL     OW60975  11.042   3.870   5.074
86379SOL    HW160976  10.999   3.953   5.092
86379SOL    HW260977  11.087   3.848   5.156
86380SOL     OW60978   3.030   1.192   9.856
86380SOL    HW160979   2.999   1.103   9.841
86380SOL    HW260980   3.123   1.182   9.876
86381SOL     OW60981  10.800   3.315   1.174
86381SOL    HW160982  10.855   3.267   1.235
86381SOL    HW260983  10.859   3.377   1.131
86382SOL     OW60984   9.009  12.827   2.672
86382SOL    HW160985   9.080  12.763   2.665
86382SOL    HW260986   9.048  12.901   2.719
86383SOL     OW60987   5.778  13.649  11.121
86383SOL    HW160988   5.838  13.583  11.157
86383SOL    HW260989   5.704  13.648  11.181
86384SOL     OW60990  12.086   8.831   7.276
86384SOL    HW160991  12.150   8.817   7.346
86384SOL    HW260992  12.083   8.926   7.265
86385SOL     OW60993   4.327   2.959   4.143
86385SOL    HW160994   4.387   2.982   4.073
86385SOL    HW260995   4.240   2.971   4.105
86386SOL     OW60996  10.361   7.942   4.142
86386SOL    HW160997  10.445   7.936   4.188
86386SOL    HW260998  10.301   7.889   4.194
86387SOL     OW60999  11.653   0.536   1.062
86387SOL    HW161000  11.569   0.523   1.017
86387SOL    HW261001  11.694   0.610   1.017
86388SOL     OW61002  13.714   0.867  13.249
86388SOL    HW161003  13.789   0.900  13.200
86388SOL    HW261004  13.664   0.816  13.186
86389SOL     OW61005   7.046  12.332  14.637
86389SOL    HW161006   7.091  12.284  14.567
86389SOL    HW261007   6.981  12.270  14.670
86390SOL     OW61008  14.589   5.958   3.398
86390SOL    HW161009  14.607   5.997   3.483
86390SOL    HW261010  14.573   5.865   3.416
86391SOL     OW61011   1.985   4.553   4.776
86391SOL    HW161012   1.899   4.569   4.815
86391SOL    HW261013   2.034   4.506   4.844
86392SOL     OW61014  11.649  10.059  14.131
86392SOL    HW161015  11.709  10.109  14.186
86392SOL    HW261016  11.604  10.001  14.192
86393SOL     OW61017  11.201   6.517   5.388
86393SOL    HW161018  11.107   6.528   5.405
86393SOL    HW261019  11.213   6.547   5.298
86394SOL     OW61020  14.710  10.590   0.702
86394SOL    HW161021  14.795  10.629   0.722
86394SOL    HW261022  14.693  10.530   0.774
86395SOL     OW61023   3.081   3.712   0.831
86395SOL    HW161024   3.109   3.738   0.918
86395SOL    HW261025   3.091   3.616   0.830
86396SOL     OW61026   4.777  12.988   2.045
86396SOL    HW161027   4.803  13.054   1.981
86396SOL    HW261028   4.688  12.964   2.019
86397SOL     OW61029   9.074   6.936   8.943
86397SOL    HW161030   9.017   6.860   8.958
86397SOL    HW261031   9.038   6.977   8.864
86398SOL     OW61032   1.072   2.487   2.482
86398SOL    HW161033   1.038   2.399   2.466
86398SOL    HW261034   0.999   2.533   2.523
86399SOL     OW61035  14.459   1.748   1.306
86399SOL    HW161036  14.400   1.823   1.313
86399SOL    HW261037  14.474   1.738   1.212
86400SOL     OW61038  13.430  14.241  11.355
86400SOL    HW161039  13.393  14.264  11.269
86400SOL    HW261040  13.384  14.160  11.379
86401SOL     OW61041   9.594  13.278   4.745
86401SOL    HW161042   9.622  13.302   4.834
86401SOL    HW261043   9.545  13.197   4.757
86402SOL     OW61044  10.368   7.857   9.943
86402SOL    HW161045  10.288   7.902   9.970
86402SOL    HW261046  10.416   7.923   9.892
86403SOL     OW61047   2.270   0.593   3.514
86403SOL    HW161048   2.278   0.515   3.570
86403SOL    HW261049   2.301   0.563   3.428
86404SOL     OW61050   6.154  10.012  12.149
86404SOL    HW161051   6.219  10.038  12.214
86404SOL    HW261052   6.150   9.917  12.154
86405SOL     OW61053   6.055   4.505   9.951
86405SOL    HW161054   6.078   4.532   9.862
86405SOL    HW261055   6.032   4.586   9.995
86406SOL     OW61056   3.304   8.984   4.053
86406SOL    HW161057   3.304   9.077   4.031
86406SOL    HW261058   3.259   8.942   3.980
86407SOL     OW61059  10.132   2.635  13.809
86407SOL    HW161060  10.106   2.544  13.826
86407SOL    HW261061  10.068   2.666  13.745
86408SOL     OW61062   9.898   8.035  11.676
86408SOL    HW161063   9.841   8.004  11.606
86408SOL    HW261064   9.846   8.026  11.756
86409SOL     OW61065   3.599   0.739   0.379
86409SOL    HW161066   3.628   0.740   0.470
86409SOL    HW261067   3.670   0.698   0.331
86410SOL     OW61068  12.892   8.653   0.640
86410SOL    HW161069  12.917   8.576   0.588
86410SOL    HW261070  12.975   8.687   0.673
86411SOL     OW61071   7.892   9.812   0.677
86411SOL    HW161072   7.838   9.816   0.756
86411SOL    HW261073   7.945   9.891   0.680
86412SOL     OW61074   7.026   8.359   7.513
86412SOL    HW161075   7.118   8.334   7.515
86412SOL    HW261076   6.980   8.278   7.491
86413SOL     OW61077   0.847   0.123  14.140
86413SOL    HW161078   0.814   0.038  14.110
86413SOL    HW261079   0.891   0.104  14.223
86414SOL     OW61080  10.346   0.094   1.655
86414SOL    HW161081  10.295   0.153   1.710
86414SOL    HW261082  10.319   0.114   1.565
86415SOL     OW61083   2.348  12.620   1.814
86415SOL    HW161084   2.444  12.627   1.813
86415SOL    HW261085   2.317  12.701   1.774
86416SOL     OW61086   7.689   8.558  11.174
86416SOL    HW161087   7.745   8.609  11.233
86416SOL    HW261088   7.745   8.486  11.145
86417SOL     OW61089  12.693   4.539  11.315
86417SOL    HW161090  12.631   4.466  11.323
86417SOL    HW261091  12.660   4.590  11.241
86418SOL     OW61092  14.872   0.218   6.827
86418SOL    HW161093   0.013   0.212   6.733
86418SOL    HW261094  14.784   0.184   6.841
86419SOL     OW61095   7.828   9.335  13.874
86419SOL    HW161096   7.779   9.340  13.956
86419SOL    HW261097   7.873   9.419  13.868
86420SOL     OW61098   0.388   0.044   2.749
86420SOL    HW161099   0.391  14.822   2.751
86420SOL    HW261100   0.446   0.072   2.819
86421SOL     OW61101  11.941   7.768   1.493
86421SOL    HW161102  11.897   7.812   1.565
86421SOL    HW261103  12.034   7.769   1.516
86422SOL     OW61104  10.174   2.533   2.280
86422SOL    HW161105  10.147   2.622   2.256
86422SOL    HW261106  10.202   2.493   2.198
86423SOL     OW61107   2.648   3.430   4.493
86423SOL    HW161108   2.740   3.403   4.483
86423SOL    HW261109   2.621   3.454   4.404
86424SOL     OW61110   3.439   8.709   7.388
86424SOL    HW161111   3.444   8.693   7.482
86424SOL    HW261112   3.494   8.641   7.349
86425SOL     OW61113  12.025   4.786   3.668
86425SOL    HW161114  12.060   4.733   3.596
86425SOL    HW261115  12.099   4.797   3.728
86426SOL     OW61116  11.652  13.059   5.990
86426SOL    HW161117  11.676  13.129   5.929
86426SOL    HW261118  11.615  12.990   5.935
86427SOL     OW61119  14.239  12.212   7.134
86427SOL    HW161120  14.282  12.295   7.113
86427SOL    HW261121  14.148  12.237   7.153
86428SOL     OW61122   2.834   0.483   8.696
86428SOL    HW161123   2.852   0.525   8.780
86428SOL    HW261124   2.901   0.516   8.637
86429SOL     OW61125   6.738   3.279  12.056
86429SOL    HW161126   6.730   3.374  12.070
86429SOL    HW261127   6.765   3.245  12.142
86430SOL     OW61128   2.667   4.531   5.995
86430SOL    HW161129   2.588   4.476   5.991
86430SOL    HW261130   2.662   4.586   5.917
86431SOL     OW61131   8.710   6.083   2.170
86431SOL    HW161132   8.665   6.075   2.254
86431SOL    HW261133   8.663   6.022   2.112
86432SOL     OW61134  14.419  11.532   0.586
86432SOL    HW161135  14.420  11.516   0.680
86432SOL    HW261136  14.336  11.496   0.556
86433SOL     OW61137   2.401   7.230   3.343
86433SOL    HW161138   2.390   7.207   3.251
86433SOL    HW261139   2.337   7.299   3.358
86434SOL     OW61140  13.328   2.723   3.875
86434SOL    HW161141  13.407   2.735   3.822
86434SOL    HW261142  13.306   2.811   3.905
86435SOL     OW61143   7.283  13.777   7.643
86435SOL    HW161144   7.209  13.830   7.675
86435SOL    HW261145   7.339  13.839   7.597
86436SOL     OW61146  14.697  11.689   1.231
86436SOL    HW161147  14.741  11.771   1.211
86436SOL    HW261148  14.604  11.712   1.234
86437SOL     OW61149   9.264   1.562   2.245
86437SOL    HW161150   9.315   1.487   2.214
86437SOL    HW261151   9.326   1.614   2.295
86438SOL     OW61152  12.742   3.324   0.081
86438SOL    HW161153  12.683   3.249   0.092
86438SOL    HW261154  12.762   3.352   0.171
86439SOL     OW61155  11.712  10.211  13.219
86439SOL    HW161156  11.723  10.287  13.276
86439SOL    HW261157  11.729  10.136  13.275
86440SOL     OW61158   3.718   7.867  13.279
86440SOL    HW161159   3.776   7.941  13.294
86440SOL    HW261160   3.633   7.896  13.312
86441SOL     OW61161  12.277  14.729   8.188
86441SOL    HW161162  12.291  14.647   8.140
86441SOL    HW261163  12.188  14.754   8.164
86442SOL     OW61164   4.429  13.422   6.615
86442SOL    HW161165   4.365  13.494   6.610
86442SOL    HW261166   4.380  13.349   6.653
86443SOL     OW61167   4.638   7.711   8.588
86443SOL    HW161168   4.611   7.757   8.668
86443SOL    HW261169   4.606   7.621   8.601
86444SOL     OW61170  10.577   1.940   5.349
86444SOL    HW161171  10.643   1.871   5.343
86444SOL    HW261172  10.623   2.013   5.389
86445SOL     OW61173   3.969   5.552   3.813
86445SOL    HW161174   3.895   5.544   3.874
86445SOL    HW261175   3.960   5.640   3.777
86446SOL     OW61176   6.427  10.047   7.633
86446SOL    HW161177   6.375  10.043   7.713
86446SOL    HW261178   6.500   9.987   7.649
86447SOL     OW61179   8.436   7.758  10.310
86447SOL    HW161180   8.510   7.818  10.323
86447SOL    HW261181   8.474   7.682  10.266
86448SOL     OW61182  14.600   0.301   8.839
86448SOL    HW161183  14.591   0.217   8.883
86448SOL    HW261184  14.576   0.284   8.748
86449SOL     OW61185   1.636   5.577   6.471
86449SOL    HW161186   1.715   5.522   6.464
86449SOL    HW261187   1.579   5.545   6.401
86450SOL     OW61188  10.084   2.150   8.444
86450SOL    HW161189  10.122   2.163   8.357
86450SOL    HW261190  10.041   2.064   8.439
86451SOL     OW61191  14.628   9.539   7.912
86451SOL    HW161192  14.611   9.625   7.874
86451SOL    HW261193  14.588   9.543   7.999
86452SOL     OW61194  14.818  12.456  11.547
86452SOL    HW161195  14.834  12.451  11.641
86452SOL    HW261196  14.727  12.429  11.536
86453SOL     OW61197  12.671  12.923   0.870
86453SOL    HW161198  12.734  12.976   0.821
86453SOL    HW261199  12.618  12.880   0.803
86454SOL     OW61200  13.126  14.863   9.191
86454SOL    HW161201  13.173   0.057   9.142
86454SOL    HW261202  13.060   0.039   9.240
86455SOL     OW61203   3.213   2.841   2.022
86455SOL    HW161204   3.238   2.862   1.932
86455SOL    HW261205   3.222   2.924   2.070
86456SOL     OW61206  10.377   4.090   9.062
86456SOL    HW161207  10.304   4.111   9.005
86456SOL    HW261208  10.346   4.112   9.150
86457SOL     OW61209   1.511   8.941   0.470
86457SOL    HW161210   1.447   8.983   0.528
86457SOL    HW261211   1.461   8.875   0.423
86458SOL     OW61212  10.055  11.057  13.324
86458SOL    HW161213  10.027  10.993  13.390
86458SOL    HW261214  10.119  11.011  13.271
86459SOL     OW61215  11.746  10.008  13.401
86459SOL    HW161216  11.809   9.939  13.422
86459SOL    HW261217  11.661   9.965  13.410
86460SOL     OW61218   4.290   0.435   8.677
86460SOL    HW161219   4.269   0.512   8.729
86460SOL    HW261220   4.293   0.466   8.586
86461SOL     OW61221   6.049   0.956   1.189
86461SOL    HW161222   6.104   1.028   1.218
86461SOL    HW261223   5.996   0.933   1.266
86462SOL     OW61224  10.032   4.046   1.192
86462SOL    HW161225  10.088   4.124   1.192
86462SOL    HW261226  10.008   4.034   1.284
86463SOL     OW61227   4.140   3.092   3.207
86463SOL    HW161228   4.133   3.021   3.271
86463SOL    HW261229   4.230   3.124   3.217
86464SOL     OW61230   8.394   3.492  14.525
86464SOL    HW161231   8.351   3.576  14.505
86464SOL    HW261232   8.327   3.440  14.568
86465SOL     OW61233   8.067   4.332  13.784
86465SOL    HW161234   8.052   4.373  13.869
86465SOL    HW261235   7.999   4.265  13.777
86466SOL     OW61236  10.193   2.483   6.653
86466SOL    HW161237  10.122   2.513   6.709
86466SOL    HW261238  10.273   2.510   6.698
86467SOL     OW61239   7.190   3.197  10.350
86467SOL    HW161240   7.123   3.156  10.295
86467SOL    HW261241   7.235   3.258  10.291
86468SOL     OW61242  11.607   7.485   7.919
86468SOL    HW161243  11.639   7.490   7.828
86468SOL    HW261244  11.532   7.544   7.921
86469SOL     OW61245  13.787   2.876   5.945
86469SOL    HW161246  13.808   2.817   5.873
86469SOL    HW261247  13.870   2.917   5.968
86470SOL     OW61248   5.900  10.224   6.093
86470SOL    HW161249   5.809  10.194   6.092
86470SOL    HW261250   5.938  10.183   6.170
86471SOL     OW61251   4.484  10.308  10.532
86471SOL    HW161252   4.400  10.345  10.505
86471SOL    HW261253   4.508  10.357  10.610
86472SOL     OW61254   6.754   5.825   8.850
86472SOL    HW161255   6.748   5.735   8.819
86472SOL    HW261256   6.801   5.871   8.780
86473SOL     OW61257  10.954   3.628   7.369
86473SOL    HW161258  11.043   3.640   7.335
86473SOL    HW261259  10.916   3.561   7.312
86474SOL     OW61260   3.197   3.017  12.413
86474SOL    HW161261   3.240   3.044  12.331
86474SOL    HW261262   3.105   3.039  12.399
86475SOL     OW61263   2.219   9.719  12.574
86475SOL    HW161264   2.128   9.745  12.555
86475SOL    HW261265   2.254   9.791  12.627
86476SOL     OW61266  14.608   2.492   7.284
86476SOL    HW161267  14.540   2.497   7.218
86476SOL    HW261268  14.662   2.417   7.258
86477SOL     OW61269  12.330   9.203   0.397
86477SOL    HW161270  12.332   9.298   0.406
86477SOL    HW261271  12.313   9.187   0.304
86478SOL     OW61272   3.719   5.302   1.190
86478SOL    HW161273   3.752   5.242   1.256
86478SOL    HW261274   3.628   5.317   1.215
86479SOL     OW61275   1.686  10.179   9.045
86479SOL    HW161276   1.719  10.091   9.063
86479SOL    HW261277   1.765  10.232   9.031
86480SOL     OW61278   2.430   2.835   5.156
86480SOL    HW161279   2.489   2.870   5.223
86480SOL    HW261280   2.447   2.889   5.079
86481SOL     OW61281  14.265   1.907  13.897
86481SOL    HW161282  14.235   1.997  13.910
86481SOL    HW261283  14.217   1.877  13.819
86482SOL     OW61284   9.831   1.208  13.130
86482SOL    HW161285   9.889   1.155  13.183
86482SOL    HW261286   9.820   1.289  13.180
86483SOL     OW61287  10.236   8.615   0.354
86483SOL    HW161288  10.141   8.609   0.364
86483SOL    HW261289  10.252   8.707   0.331
86484SOL     OW61290   9.742   1.265   6.363
86484SOL    HW161291   9.714   1.356   6.358
86484SOL    HW261292   9.835   1.269   6.384
86485SOL     OW61293   0.917   2.596   3.127
86485SOL    HW161294   0.974   2.667   3.157
86485SOL    HW261295   0.899   2.617   3.036
86486SOL     OW61296   0.519   0.503   1.199
86486SOL    HW161297   0.583   0.466   1.139
86486SOL    HW261298   0.436   0.497   1.152
86487SOL     OW61299   7.904   0.122  12.259
86487SOL    HW161300   7.865   0.137  12.174
86487SOL    HW261301   7.998   0.135  12.245
86488SOL     OW61302   2.763   3.010   8.043
86488SOL    HW161303   2.717   3.046   7.967
86488SOL    HW261304   2.721   2.926   8.060
86489SOL     OW61305   4.279  11.787   0.050
86489SOL    HW161306   4.250  11.818  14.838
86489SOL    HW261307   4.278  11.691   0.043
86490SOL     OW61308   5.635   0.851   2.522
86490SOL    HW161309   5.545   0.819   2.519
86490SOL    HW261310   5.677   0.799   2.591
86491SOL     OW61311   0.930  12.999  10.660
86491SOL    HW161312   0.852  12.993  10.715
86491SOL    HW261313   1.002  13.009  10.722
86492SOL     OW61314   8.779   1.761  10.107
86492SOL    HW161315   8.740   1.740  10.022
86492SOL    HW261316   8.753   1.852  10.124
86493SOL     OW61317   9.224   2.100   7.424
86493SOL    HW161318   9.288   2.110   7.495
86493SOL    HW261319   9.271   2.128   7.345
86494SOL     OW61320   0.023   9.423  13.918
86494SOL    HW161321  14.873   9.426  14.011
86494SOL    HW261322  14.815   9.443  13.872
86495SOL     OW61323   5.059  13.312   2.773
86495SOL    HW161324   5.076  13.294   2.681
86495SOL    HW261325   5.103  13.241   2.820
86496SOL     OW61326   1.723  10.898  11.742
86496SOL    HW161327   1.799  10.934  11.786
86496SOL    HW261328   1.754  10.815  11.705
86497SOL     OW61329   8.563  14.623   7.830
86497SOL    HW161330   8.562  14.633   7.925
86497SOL    HW261331   8.490  14.676   7.800
86498SOL     OW61332   9.115   1.016   7.095
86498SOL    HW161333   9.193   1.056   7.058
86498SOL    HW261334   9.126   1.024   7.190
86499SOL     OW61335   6.767   0.136  12.903
86499SOL    HW161336   6.746   0.069  12.969
86499SOL    HW261337   6.860   0.154  12.917
86500SOL     OW61338  11.618  14.855   2.907
86500SOL    HW161339  11.559  14.817   2.843
86500SOL    HW261340  11.584  14.826   2.992
86501SOL     OW61341   2.189  12.006   5.682
86501SOL    HW161342   2.200  12.003   5.587
86501SOL    HW261343   2.242  11.933   5.715
86502SOL     OW61344   4.307   1.638   2.245
86502SOL    HW161345   4.300   1.593   2.161
86502SOL    HW261346   4.386   1.602   2.286
86503SOL     OW61347   4.101   5.551   8.934
86503SOL    HW161348   4.011   5.586   8.934
86503SOL    HW261349   4.093   5.465   8.893
86504SOL     OW61350   8.128   8.647   5.611
86504SOL    HW161351   8.121   8.713   5.680
86504SOL    HW261352   8.222   8.642   5.593
86505SOL     OW61353   9.310   1.052  12.417
86505SOL    HW161354   9.309   0.990  12.344
86505SOL    HW261355   9.360   1.127  12.384
86506SOL     OW61356  10.140   6.345  14.648
86506SOL    HW161357  10.152   6.366  14.555
86506SOL    HW261358  10.195   6.268  14.662
86507SOL     OW61359   6.562   6.919   8.511
86507SOL    HW161360   6.509   6.851   8.552
86507SOL    HW261361   6.501   6.992   8.498
86508SOL     OW61362  11.574  11.207  10.395
86508SOL    HW161363  11.548  11.199  10.304
86508SOL    HW261364  11.593  11.300  10.407
86509SOL     OW61365   5.511   5.843  14.043
86509SOL    HW161366   5.555   5.865  14.125
86509SOL    HW261367   5.557   5.766  14.011
86510SOL     OW61368   6.694   6.397   3.435
86510SOL    HW161369   6.656   6.460   3.374
86510SOL    HW261370   6.630   6.391   3.506
86511SOL     OW61371   0.353  13.962   8.429
86511SOL    HW161372   0.391  14.029   8.487
86511SOL    HW261373   0.338  14.008   8.347
86512SOL     OW61374  12.577   4.166   4.720
86512SOL    HW161375  12.651   4.212   4.759
86512SOL    HW261376  12.520   4.235   4.687
86513SOL     OW61377   0.043  10.550   4.043
86513SOL    HW161378  14.835  10.539   4.092
86513SOL    HW261379   0.021  10.613   3.974
86514SOL     OW61380   3.969   7.358   1.359
86514SOL    HW161381   3.939   7.273   1.391
86514SOL    HW261382   4.064   7.353   1.362
86515SOL     OW61383   3.165   1.036  10.425
86515SOL    HW161384   3.077   1.072  10.429
86515SOL    HW261385   3.221   1.110  10.403
86516SOL     OW61386  10.323   8.462   3.436
86516SOL    HW161387  10.343   8.456   3.530
86516SOL    HW261388  10.269   8.541   3.429
86517SOL     OW61389  12.864   4.823   7.494
86517SOL    HW161390  12.858   4.728   7.493
86517SOL    HW261391  12.958   4.841   7.504
86518SOL     OW61392   1.759   0.602   0.095
86518SOL    HW161393   1.815   0.680   0.091
86518SOL    HW261394   1.718   0.606   0.182
86519SOL     OW61395   1.840   9.361   1.398
86519SOL    HW161396   1.746   9.361   1.414
86519SOL    HW261397   1.851   9.417   1.322
86520SOL     OW61398   2.095  12.313   6.106
86520SOL    HW161399   2.135  12.378   6.048
86520SOL    HW261400   2.168  12.269   6.147
86521SOL     OW61401   4.534  10.599  12.640
86521SOL    HW161402   4.530  10.629  12.549
86521SOL    HW261403   4.461  10.644  12.683
86522SOL     OW61404   6.593   0.399   8.973
86522SOL    HW161405   6.680   0.434   8.992
86522SOL    HW261406   6.532   0.467   9.002
86523SOL     OW61407   5.340   4.946   1.604
86523SOL    HW161408   5.375   4.997   1.677
86523SOL    HW261409   5.415   4.937   1.544
86524SOL     OW61410  14.696  13.525   1.220
86524SOL    HW161411  14.719  13.436   1.191
86524SOL    HW261412  14.767  13.551   1.278
86525SOL     OW61413   3.380   6.063   3.882
86525SOL    HW161414   3.329   5.998   3.833
86525SOL    HW261415   3.465   6.021   3.896
86526SOL     OW61416   0.708   8.223  14.787
86526SOL    HW161417   0.795   8.261  14.773
86526SOL    HW261418   0.648   8.297  14.780
86527SOL     OW61419   5.992   5.918  11.061
86527SOL    HW161420   6.078   5.943  11.094
86527SOL    HW261421   5.932   5.983  11.098
86528SOL     OW61422   5.837   0.755  12.207
86528SOL    HW161423   5.867   0.675  12.164
86528SOL    HW261424   5.819   0.815  12.135
86529SOL     OW61425   9.767   7.417   4.699
86529SOL    HW161426   9.727   7.478   4.638
86529SOL    HW261427   9.819   7.471   4.758
86530SOL     OW61428   4.119   3.338   2.297
86530SOL    HW161429   4.024   3.325   2.297
86530SOL    HW261430   4.136   3.394   2.221
86531SOL     OW61431   4.602   2.002   7.632
86531SOL    HW161432   4.511   2.031   7.633
86531SOL    HW261433   4.646   2.059   7.694
86532SOL     OW61434   0.066   8.580   3.735
86532SOL    HW161435   0.142   8.562   3.791
86532SOL    HW261436  14.867   8.534   3.778
86533SOL     OW61437   1.797  11.838  13.008
86533SOL    HW161438   1.722  11.815  12.953
86533SOL    HW261439   1.873  11.827  12.951
86534SOL     OW61440   6.079  13.992   7.475
86534SOL    HW161441   6.003  13.946   7.510
86534SOL    HW261442   6.153  13.936   7.495
86535SOL     OW61443   1.253   2.489   0.809
86535SOL    HW161444   1.239   2.447   0.894
86535SOL    HW261445   1.336   2.536   0.819
86536SOL     OW61446   3.337   7.941   6.574
86536SOL    HW161447   3.343   7.922   6.668
86536SOL    HW261448   3.319   7.856   6.534
86537SOL     OW61449  13.665   2.820   6.846
86537SOL    HW161450  13.711   2.883   6.900
86537SOL    HW261451  13.733   2.761   6.814
86538SOL     OW61452   4.414   6.317   1.486
86538SOL    HW161453   4.433   6.407   1.458
86538SOL    HW261454   4.499   6.275   1.489
86539SOL     OW61455   8.601   5.692   7.236
86539SOL    HW161456   8.564   5.730   7.316
86539SOL    HW261457   8.674   5.750   7.215
86540SOL     OW61458   8.246   6.921   4.597
86540SOL    HW161459   8.182   6.986   4.625
86540SOL    HW261460   8.285   6.958   4.518
86541SOL     OW61461   3.744  14.418  11.637
86541SOL    HW161462   3.666  14.362  11.644
86541SOL    HW261463   3.769  14.413  11.544
86542SOL     OW61464   4.295  10.491  12.099
86542SOL    HW161465   4.364  10.469  12.162
86542SOL    HW261466   4.342  10.522  12.022
86543SOL     OW61467   4.652   7.585   7.474
86543SOL    HW161468   4.688   7.497   7.470
86543SOL    HW261469   4.557   7.572   7.477
86544SOL     OW61470   3.263   4.389   3.403
86544SOL    HW161471   3.289   4.331   3.332
86544SOL    HW261472   3.316   4.361   3.478
86545SOL     OW61473  10.838   4.946   8.115
86545SOL    HW161474  10.816   4.983   8.200
86545SOL    HW261475  10.764   4.887   8.095
86546SOL     OW61476   3.030   6.962   2.278
86546SOL    HW161477   2.998   6.981   2.366
86546SOL    HW261478   3.125   6.951   2.289
86547SOL     OW61479  12.049   8.127   8.626
86547SOL    HW161480  12.139   8.156   8.612
86547SOL    HW261481  12.055   8.065   8.699
86548SOL     OW61482  13.497   8.142  11.952
86548SOL    HW161483  13.465   8.052  11.959
86548SOL    HW261484  13.458   8.188  12.026
86549SOL     OW61485   1.922   9.881   4.099
86549SOL    HW161486   1.976   9.806   4.073
86549SOL    HW261487   1.984   9.947   4.129
86550SOL     OW61488   8.980   1.467  12.560
86550SOL    HW161489   9.034   1.389  12.573
86550SOL    HW261490   8.891   1.439  12.584
86551SOL     OW61491   7.045   9.816  11.877
86551SOL    HW161492   7.029   9.731  11.836
86551SOL    HW261493   6.970   9.870  11.852
86552SOL     OW61494   6.497  14.403   8.411
86552SOL    HW161495   6.430  14.390   8.478
86552SOL    HW261496   6.477  14.337   8.344
86553SOL     OW61497   1.507   8.538   4.004
86553SOL    HW161498   1.468   8.616   4.042
86553SOL    HW261499   1.543   8.567   3.920
86554SOL     OW61500   4.615   4.037   1.011
86554SOL    HW161501   4.593   4.078   0.927
86554SOL    HW261502   4.544   3.974   1.026
86555SOL     OW61503   4.903   8.412  12.797
86555SOL    HW161504   4.937   8.327  12.823
86555SOL    HW261505   4.956   8.475  12.846
86556SOL     OW61506   5.346   5.409  10.284
86556SOL    HW161507   5.389   5.485  10.245
86556SOL    HW261508   5.408   5.378  10.350
86557SOL     OW61509  12.739   7.985   0.967
86557SOL    HW161510  12.689   7.995   1.048
86557SOL    HW261511  12.694   7.916   0.919
86558SOL     OW61512   0.186   3.496   6.920
86558SOL    HW161513   0.127   3.564   6.953
86558SOL    HW261514   0.260   3.546   6.884
86559SOL     OW61515  13.048   8.544   6.587
86559SOL    HW161516  13.074   8.479   6.653
86559SOL    HW261517  13.130   8.586   6.561
86560SOL     OW61518  11.107   7.441  10.009
86560SOL    HW161519  11.081   7.531   9.990
86560SOL    HW261520  11.109   7.437  10.104
86561SOL     OW61521   9.243  10.037  13.341
86561SOL    HW161522   9.292  10.071  13.266
86561SOL    HW261523   9.265  10.097  13.413
86562SOL     OW61524   4.368  12.915   2.139
86562SOL    HW161525   4.370  12.932   2.045
86562SOL    HW261526   4.368  13.002   2.179
86563SOL     OW61527  12.384   7.066  10.223
86563SOL    HW161528  12.457   7.107  10.176
86563SOL    HW261529  12.310   7.075  10.164
86564SOL     OW61530   3.516   7.428   6.385
86564SOL    HW161531   3.436   7.376   6.377
86564SOL    HW261532   3.551   7.405   6.471
86565SOL     OW61533  10.716   2.880   8.942
86565SOL    HW161534  10.707   2.951   8.879
86565SOL    HW261535  10.802   2.895   8.982
86566SOL     OW61536   2.090   9.746  12.135
86566SOL    HW161537   2.183   9.728  12.120
86566SOL    HW261538   2.062   9.795  12.057
86567SOL     OW61539   3.360   5.501   7.238
86567SOL    HW161540   3.265   5.498   7.242
86567SOL    HW261541   3.387   5.409   7.244
86568SOL     OW61542  14.141  10.194  14.460
86568SOL    HW161543  14.171  10.283  14.444
86568SOL    HW261544  14.166  10.176  14.551
86569SOL     OW61545   0.340   7.772   2.273
86569SOL    HW161546   0.382   7.708   2.215
86569SOL    HW261547   0.331   7.726   2.356
86570SOL     OW61548  11.372  11.360   4.726
86570SOL    HW161549  11.428  11.356   4.804
86570SOL    HW261550  11.346  11.452   4.720
86571SOL     OW61551   8.621  14.077  10.658
86571SOL    HW161552   8.567  14.146  10.620
86571SOL    HW261553   8.711  14.103  10.639
86572SOL     OW61554   5.801   3.880  13.913
86572SOL    HW161555   5.708   3.864  13.925
86572SOL    HW261556   5.818   3.859  13.821
86573SOL     OW61557   8.805   0.257   5.384
86573SOL    HW161558   8.887   0.214   5.410
86573SOL    HW261559   8.780   0.213   5.302
86574SOL     OW61560   6.117   6.050   3.731
86574SOL    HW161561   6.063   6.019   3.804
86574SOL    HW261562   6.114   5.979   3.668
86575SOL     OW61563   6.823   3.624   7.588
86575SOL    HW161564   6.728   3.640   7.590
86575SOL    HW261565   6.862   3.711   7.604
86576SOL     OW61566  10.387   4.849  14.798
86576SOL    HW161567  10.437   4.930  14.793
86576SOL    HW261568  10.423   4.793  14.730
86577SOL     OW61569   2.692   8.898   8.401
86577SOL    HW161570   2.712   8.805   8.390
86577SOL    HW261571   2.633   8.919   8.328
86578SOL     OW61572  11.158   5.924   4.437
86578SOL    HW161573  11.203   6.006   4.459
86578SOL    HW261574  11.088   5.950   4.377
86579SOL     OW61575  12.378   0.054   7.730
86579SOL    HW161576  12.358  14.847   7.778
86579SOL    HW261577  12.467   0.040   7.696
86580SOL     OW61578   3.458  13.070  11.958
86580SOL    HW161579   3.479  13.082  12.050
86580SOL    HW261580   3.537  13.030  11.921
86581SOL     OW61581   3.529   6.114  11.396
86581SOL    HW161582   3.507   6.128  11.304
86581SOL    HW261583   3.475   6.178  11.443
86582SOL     OW61584  11.614  14.591  10.424
86582SOL    HW161585  11.563  14.527  10.374
86582SOL    HW261586  11.594  14.573  10.516
86583SOL     OW61587  10.483   7.535  13.767
86583SOL    HW161588  10.424   7.606  13.740
86583SOL    HW261589  10.488   7.479  13.690
86584SOL     OW61590   1.888   0.525   5.587
86584SOL    HW161591   1.831   0.583   5.536
86584SOL    HW261592   1.971   0.526   5.540
86585SOL     OW61593   4.687   2.030   0.654
86585SOL    HW161594   4.640   2.044   0.572
86585SOL    HW261595   4.619   2.032   0.721
86586SOL     OW61596  11.627  11.921  12.021
86586SOL    HW161597  11.604  11.895  11.932
86586SOL    HW261598  11.588  11.853  12.077
86587SOL     OW61599   9.396   3.893   0.282
86587SOL    HW161600   9.400   3.814   0.230
86587SOL    HW261601   9.455   3.877   0.356
86588SOL     OW61602   3.831   4.489   0.044
86588SOL    HW161603   3.901   4.474   0.106
86588SOL    HW261604   3.821   4.406  14.871
86589SOL     OW61605   7.669   1.519   7.978
86589SOL    HW161606   7.671   1.599   7.926
86589SOL    HW261607   7.601   1.465   7.937
86590SOL     OW61608  11.919   6.471   2.679
86590SOL    HW161609  11.825   6.457   2.664
86590SOL    HW261610  11.937   6.556   2.640
86591SOL     OW61611   5.001   9.517   1.958
86591SOL    HW161612   4.950   9.541   2.036
86591SOL    HW261613   5.041   9.598   1.929
86592SOL     OW61614  13.080   2.752  12.347
86592SOL    HW161615  13.134   2.829  12.327
86592SOL    HW261616  12.990   2.781  12.333
86593SOL     OW61617   1.260   9.433   0.349
86593SOL    HW161618   1.199   9.469   0.285
86593SOL    HW261619   1.342   9.482   0.334
86594SOL     OW61620  12.636  13.590   1.940
86594SOL    HW161621  12.675  13.622   1.858
86594SOL    HW261622  12.584  13.514   1.913
86595SOL     OW61623  14.165  14.765  12.465
86595SOL    HW161624  14.073  14.787  12.451
86595SOL    HW261625  14.206  14.847  12.491
86596SOL     OW61626  14.026  11.437   3.111
86596SOL    HW161627  13.968  11.378   3.158
86596SOL    HW261628  14.057  11.498   3.178
86597SOL     OW61629   9.996   5.863  12.846
86597SOL    HW161630  10.002   5.957  12.827
86597SOL    HW261631   9.922   5.834  12.793
86598SOL     OW61632  14.434   7.169   3.201
86598SOL    HW161633  14.400   7.250   3.240
86598SOL    HW261634  14.380   7.156   3.123
86599SOL     OW61635   5.973   4.258   4.820
86599SOL    HW161636   5.901   4.315   4.846
86599SOL    HW261637   6.049   4.292   4.867
86600SOL     OW61638   0.137   6.490   8.744
86600SOL    HW161639   0.146   6.500   8.649
86600SOL    HW261640   0.043   6.499   8.760
86601SOL     OW61641  14.736   2.062  14.525
86601SOL    HW161642  14.700   2.111  14.600
86601SOL    HW261643  14.815   2.110  14.502
86602SOL     OW61644  14.838   5.826  13.328
86602SOL    HW161645   0.019   5.897  13.294
86602SOL    HW261646   0.006   5.746  13.294
86603SOL     OW61647   6.573   6.736   9.100
86603SOL    HW161648   6.667   6.751   9.115
86603SOL    HW261649   6.532   6.760   9.183
86604SOL     OW61650   3.216  14.308  13.544
86604SOL    HW161651   3.302  14.273  13.567
86604SOL    HW261652   3.199  14.375  13.611
86605SOL     OW61653   0.748   9.936   2.985
86605SOL    HW161654   0.728   9.843   2.977
86605SOL    HW261655   0.802   9.955   2.908
86606SOL     OW61656   5.101  13.877  14.544
86606SOL    HW161657   5.113  13.858  14.637
86606SOL    HW261658   5.071  13.968  14.542
86607SOL     OW61659  14.512   6.568   6.545
86607SOL    HW161660  14.466   6.588   6.627
86607SOL    HW261661  14.442   6.554   6.481
86608SOL     OW61662   8.948  11.399   6.455
86608SOL    HW161663   8.880  11.440   6.402
86608SOL    HW261664   8.920  11.411   6.545
86609SOL     OW61665   5.991   8.708   6.504
86609SOL    HW161666   5.995   8.617   6.474
86609SOL    HW261667   6.038   8.707   6.587
86610SOL     OW61668  11.304   1.795  13.831
86610SOL    HW161669  11.267   1.877  13.795
86610SOL    HW261670  11.398   1.811  13.835
86611SOL     OW61671   9.985  13.015   9.901
86611SOL    HW161672  10.068  13.013   9.854
86611SOL    HW261673   9.994  13.087   9.963
86612SOL     OW61674   0.818   3.507  11.957
86612SOL    HW161675   0.848   3.586  11.912
86612SOL    HW261676   0.876   3.501  12.034
86613SOL     OW61677   8.564   9.605   9.449
86613SOL    HW161678   8.561   9.578   9.357
86613SOL    HW261679   8.649   9.573   9.480
86614SOL     OW61680   8.697   0.173  11.541
86614SOL    HW161681   8.658   0.159  11.455
86614SOL    HW261682   8.754   0.249  11.530
86615SOL     OW61683   7.350   2.051   1.231
86615SOL    HW161684   7.445   2.050   1.217
86615SOL    HW261685   7.340   2.075   1.323
86616SOL     OW61686   0.651   0.765   4.448
86616SOL    HW161687   0.687   0.794   4.365
86616SOL    HW261688   0.618   0.677   4.432
86617SOL     OW61689   0.774   0.970   3.675
86617SOL    HW161690   0.797   1.063   3.672
86617SOL    HW261691   0.708   0.964   3.744
86618SOL     OW61692   8.377   6.135   1.510
86618SOL    HW161693   8.432   6.115   1.434
86618SOL    HW261694   8.436   6.126   1.585
86619SOL     OW61695  13.823  14.204   1.600
86619SOL    HW161696  13.810  14.236   1.511
86619SOL    HW261697  13.832  14.109   1.590
86620SOL     OW61698  10.710   6.375   4.782
86620SOL    HW161699  10.765   6.364   4.705
86620SOL    HW261700  10.673   6.463   4.773
86621SOL     OW61701   9.941   4.978   2.701
86621SOL    HW161702   9.979   4.900   2.742
86621SOL    HW261703   9.857   4.989   2.745
86622SOL     OW61704  11.657   4.278  11.937
86622SOL    HW161705  11.751   4.260  11.947
86622SOL    HW261706  11.616   4.192  11.931
86623SOL     OW61707  12.779   0.040  14.648
86623SOL    HW161708  12.871   0.061  14.663
86623SOL    HW261709  12.738   0.125  14.629
86624SOL     OW61710   4.352   6.653  12.387
86624SOL    HW161711   4.312   6.585  12.441
86624SOL    HW261712   4.374   6.723  12.448
86625SOL     OW61713  12.012  11.200   5.400
86625SOL    HW161714  12.069  11.156   5.337
86625SOL    HW261715  11.986  11.131   5.462
86626SOL     OW61716   5.355   0.554   8.332
86626SOL    HW161717   5.432   0.594   8.371
86626SOL    HW261718   5.376   0.545   8.239
86627SOL     OW61719  13.351  10.534   9.789
86627SOL    HW161720  13.325  10.467   9.726
86627SOL    HW261721  13.269  10.570   9.822
86628SOL     OW61722   9.192   9.182   7.697
86628SOL    HW161723   9.133   9.193   7.771
86628SOL    HW261724   9.232   9.096   7.710
86629SOL     OW61725   8.859  10.567  12.815
86629SOL    HW161726   8.866  10.661  12.803
86629SOL    HW261727   8.819  10.557  12.902
86630SOL     OW61728   7.493   3.906  11.672
86630SOL    HW161729   7.408   3.902  11.629
86630SOL    HW261730   7.549   3.849  11.620
86631SOL     OW61731  12.102   2.329  10.593
86631SOL    HW161732  12.131   2.416  10.566
86631SOL    HW261733  12.179   2.289  10.632
86632SOL     OW61734   8.912   4.700   5.893
86632SOL    HW161735   8.925   4.624   5.835
86632SOL    HW261736   8.970   4.684   5.967
86633SOL     OW61737   4.885  13.701   7.642
86633SOL    HW161738   4.897  13.608   7.624
86633SOL    HW261739   4.929  13.745   7.570
86634SOL     OW61740   5.618  12.303   1.713
86634SOL    HW161741   5.624  12.230   1.775
86634SOL    HW261742   5.687  12.286   1.649
86635SOL     OW61743  10.881  10.756  13.429
86635SOL    HW161744  10.859  10.779  13.339
86635SOL    HW261745  10.917  10.668  13.423
86636SOL     OW61746   2.064  14.640   1.850
86636SOL    HW161747   1.982  14.599   1.822
86636SOL    HW261748   2.128  14.610   1.786
86637SOL     OW61749   7.122   8.842  11.173
86637SOL    HW161750   7.062   8.772  11.151
86637SOL    HW261751   7.184   8.846  11.100
86638SOL     OW61752  13.141   8.987   4.408
86638SOL    HW161753  13.187   9.070   4.419
86638SOL    HW261754  13.196   8.938   4.347
86639SOL     OW61755   2.255   6.817  11.318
86639SOL    HW161756   2.210   6.896  11.289
86639SOL    HW261757   2.348   6.838  11.312
86640SOL     OW61758  13.746  11.541   9.485
86640SOL    HW161759  13.748  11.469   9.422
86640SOL    HW261760  13.687  11.510   9.554
86641SOL     OW61761   7.490  12.042   6.365
86641SOL    HW161762   7.569  11.995   6.393
86641SOL    HW261763   7.488  12.120   6.421
86642SOL     OW61764   3.985  10.095   8.492
86642SOL    HW161765   3.965  10.154   8.565
86642SOL    HW261766   3.937  10.015   8.512
86643SOL     OW61767  14.872  12.696   9.938
86643SOL    HW161768  14.839  12.613   9.905
86643SOL    HW261769   0.094  12.686   9.940
86644SOL     OW61770  11.318   7.688   4.411
86644SOL    HW161771  11.246   7.746   4.387
86644SOL    HW261772  11.329   7.631   4.335
86645SOL     OW61773  11.705   6.881   1.136
86645SOL    HW161774  11.613   6.888   1.161
86645SOL    HW261775  11.719   6.787   1.123
86646SOL     OW61776   0.742  12.031   4.519
86646SOL    HW161777   0.703  11.957   4.564
86646SOL    HW261778   0.793  11.992   4.448
86647SOL     OW61779   3.333   0.231   1.070
86647SOL    HW161780   3.304   0.139   1.069
86647SOL    HW261781   3.412   0.231   1.017
86648SOL     OW61782   0.958   7.202   7.232
86648SOL    HW161783   0.864   7.224   7.236
86648SOL    HW261784   0.960   7.108   7.216
86649SOL     OW61785   4.283  13.916  13.513
86649SOL    HW161786   4.254  13.848  13.453
86649SOL    HW261787   4.361  13.953  13.472
86650SOL     OW61788   7.954   8.913  10.822
86650SOL    HW161789   8.005   8.889  10.899
86650SOL    HW261790   7.937   9.007  10.834
86651SOL     OW61791   0.351   3.992  10.015
86651SOL    HW161792   0.276   4.047   9.993
86651SOL    HW261793   0.427   4.049  10.003
86652SOL     OW61794   6.909   1.609   3.871
86652SOL    HW161795   6.993   1.584   3.909
86652SOL    HW261796   6.914   1.583   3.779
86653SOL     OW61797   2.444   1.502  11.842
86653SOL    HW161798   2.432   1.527  11.751
86653SOL    HW261799   2.536   1.477  11.849
86654SOL     OW61800   3.990  13.558  10.438
86654SOL    HW161801   3.956  13.642  10.470
86654SOL    HW261802   3.951  13.493  10.497
86655SOL     OW61803  14.780   5.869   3.186
86655SOL    HW161804  14.734   5.896   3.266
86655SOL    HW261805  14.838   5.941   3.165
86656SOL     OW61806  13.671  11.194   4.942
86656SOL    HW161807  13.766  11.185   4.950
86656SOL    HW261808  13.650  11.270   4.995
86657SOL     OW61809   5.921   0.797   4.786
86657SOL    HW161810   5.886   0.857   4.719
86657SOL    HW261811   5.847   0.740   4.808
86658SOL     OW61812   6.409   5.032   0.509
86658SOL    HW161813   6.382   5.005   0.597
86658SOL    HW261814   6.374   5.120   0.499
86659SOL     OW61815  14.613   6.008   0.921
86659SOL    HW161816  14.652   5.998   0.834
86659SOL    HW261817  14.605   5.919   0.954
86660SOL     OW61818  14.206  10.594   4.763
86660SOL    HW161819  14.263  10.665   4.792
86660SOL    HW261820  14.164  10.627   4.683
86661SOL     OW61821   7.640   2.619   9.512
86661SOL    HW161822   7.571   2.669   9.469
86661SOL    HW261823   7.601   2.589   9.594
86662SOL     OW61824   8.278  10.473  13.477
86662SOL    HW161825   8.279  10.553  13.529
86662SOL    HW261826   8.186  10.455  13.461
86663SOL     OW61827  11.169  10.372  12.931
86663SOL    HW161828  11.111  10.421  12.872
86663SOL    HW261829  11.109  10.328  12.992
86664SOL     OW61830  13.959  13.578  10.781
86664SOL    HW161831  13.895  13.648  10.798
86664SOL    HW261832  14.020  13.616  10.718
86665SOL     OW61833  10.093  13.852   1.627
86665SOL    HW161834  10.101  13.923   1.690
86665SOL    HW261835  10.015  13.804   1.655
86666SOL     OW61836   3.986  11.132   0.058
86666SOL    HW161837   4.026  11.060   0.107
86666SOL    HW261838   4.013  11.117  14.841
86667SOL     OW61839   7.756  11.888   3.679
86667SOL    HW161840   7.716  11.965   3.719
86667SOL    HW261841   7.682  11.838   3.645
86668SOL     OW61842   4.524  12.984   1.906
86668SOL    HW161843   4.533  12.934   1.824
86668SOL    HW261844   4.512  13.074   1.878
86669SOL     OW61845   8.370  13.996   0.106
86669SOL    HW161846   8.411  13.909   0.106
86669SOL    HW261847   8.318  13.997   0.025
86670SOL     OW61848   0.750  10.998  14.723
86670SOL    HW161849   0.685  11.036  14.782
86670SOL    HW261850   0.705  10.991  14.639
86671SOL     OW61851   2.569  13.091  12.080
86671SOL    HW161852   2.499  13.153  12.061
86671SOL    HW261853   2.624  13.136  12.144
86672SOL     OW61854   5.299   8.110   2.442
86672SOL    HW161855   5.262   8.096   2.529
86672SOL    HW261856   5.359   8.036   2.428
86673SOL     OW61857   7.067  14.088   8.261
86673SOL    HW161858   7.080  14.181   8.243
86673SOL    HW261859   7.029  14.087   8.349
86674SOL     OW61860   6.985  14.473   9.245
86674SOL    HW161861   7.013  14.495   9.333
86674SOL    HW261862   6.960  14.381   9.249
86675SOL     OW61863   9.464  12.541  12.229
86675SOL    HW161864   9.410  12.503  12.159
86675SOL    HW261865   9.550  12.502  12.217
86676SOL     OW61866   0.360   1.418   0.433
86676SOL    HW161867   0.395   1.376   0.355
86676SOL    HW261868   0.266   1.424   0.418
86677SOL     OW61869  11.411   8.015  12.249
86677SOL    HW161870  11.320   8.044  12.243
86677SOL    HW261871  11.461   8.096  12.259
86678SOL     OW61872  12.636  14.678  12.866
86678SOL    HW161873  12.545  14.705  12.851
86678SOL    HW261874  12.636  14.644  12.955
86679SOL     OW61875  10.901   6.595  10.185
86679SOL    HW161876  10.960   6.631  10.252
86679SOL    HW261877  10.815   6.628  10.209
86680SOL     OW61878   0.523  11.408  11.614
86680SOL    HW161879   0.509  11.369  11.528
86680SOL    HW261880   0.435  11.433  11.644
86681SOL     OW61881   6.963  10.496  10.900
86681SOL    HW161882   6.983  10.550  10.977
86681SOL    HW261883   7.046  10.453  10.880
86682SOL     OW61884  12.423   6.121   5.138
86682SOL    HW161885  12.488   6.122   5.208
86682SOL    HW261886  12.460   6.179   5.071
86683SOL     OW61887  13.314   5.057   8.224
86683SOL    HW161888  13.327   5.086   8.134
86683SOL    HW261889  13.256   5.123   8.263
86684SOL     OW61890   7.874   2.581  12.432
86684SOL    HW161891   7.819   2.516  12.476
86684SOL    HW261892   7.839   2.665  12.462
86685SOL     OW61893   7.411   4.260   6.652
86685SOL    HW161894   7.386   4.352   6.657
86685SOL    HW261895   7.350   4.221   6.590
86686SOL     OW61896  13.102   8.100  13.140
86686SOL    HW161897  13.116   8.170  13.076
86686SOL    HW261898  13.148   8.024  13.103
86687SOL     OW61899  12.096   3.003   8.577
86687SOL    HW161900  12.146   3.034   8.653
86687SOL    HW261901  12.144   2.925   8.548
86688SOL     OW61902   8.010   9.331  10.987
86688SOL    HW161903   7.959   9.411  10.995
86688SOL    HW261904   7.985   9.295  10.901
86689SOL     OW61905   6.272  11.495   5.985
86689SOL    HW161906   6.343  11.514   6.046
86689SOL    HW261907   6.193  11.496   6.039
86690SOL     OW61908   0.337  14.447   7.223
86690SOL    HW161909   0.249  14.457   7.187
86690SOL    HW261910   0.385  14.523   7.190
86691SOL     OW61911   2.234  10.095   3.147
86691SOL    HW161912   2.215  10.110   3.054
86691SOL    HW261913   2.328  10.079   3.150
86692SOL     OW61914  13.482  14.773   3.304
86692SOL    HW161915  13.438  14.785   3.389
86692SOL    HW261916  13.412  14.747   3.244
86693SOL     OW61917   0.387   2.831   6.855
86693SOL    HW161918   0.476   2.825   6.890
86693SOL    HW261919   0.331   2.845   6.932
86694SOL     OW61920  12.365   1.749   3.806
86694SOL    HW161921  12.434   1.724   3.745
86694SOL    HW261922  12.331   1.832   3.773
86695SOL     OW61923   0.768  10.722   1.145
86695SOL    HW161924   0.753  10.627   1.140
86695SOL    HW261925   0.680  10.759   1.155
86696SOL     OW61926   5.756   6.823   9.287
86696SOL    HW161927   5.804   6.867   9.217
86696SOL    HW261928   5.730   6.894   9.346
86697SOL     OW61929   7.597   8.994   8.892
86697SOL    HW161930   7.559   9.071   8.934
86697SOL    HW261931   7.689   8.996   8.917
86698SOL     OW61932   6.199  13.442  12.380
86698SOL    HW161933   6.175  13.354  12.409
86698SOL    HW261934   6.212  13.492  12.461
86699SOL     OW61935   4.264  12.843   4.706
86699SOL    HW161936   4.286  12.781   4.637
86699SOL    HW261937   4.349  12.866   4.745
86700SOL     OW61938  10.634  12.511  12.723
86700SOL    HW161939  10.716  12.501  12.673
86700SOL    HW261940  10.639  12.441  12.789
86701SOL     OW61941   4.027   7.363   6.528
86701SOL    HW161942   4.028   7.379   6.434
86701SOL    HW261943   4.111   7.319   6.546
86702SOL     OW61944   0.543   8.331   4.365
86702SOL    HW161945   0.594   8.264   4.410
86702SOL    HW261946   0.453   8.318   4.396
86703SOL     OW61947  11.657  12.510  13.654
86703SOL    HW161948  11.632  12.444  13.719
86703SOL    HW261949  11.582  12.515  13.596
86704SOL     OW61950   7.695   3.030   2.019
86704SOL    HW161951   7.711   3.122   2.002
86704SOL    HW261952   7.717   2.985   1.937
86705SOL     OW61953   9.913   4.981   9.398
86705SOL    HW161954   9.852   4.908   9.386
86705SOL    HW261955   9.998   4.940   9.412
86706SOL     OW61956  13.728  10.385  11.349
86706SOL    HW161957  13.694  10.306  11.391
86706SOL    HW261958  13.716  10.370  11.255
86707SOL     OW61959   8.840   5.817   2.278
86707SOL    HW161960   8.897   5.842   2.351
86707SOL    HW261961   8.767   5.771   2.319
86708SOL     OW61962  11.918  10.576   5.553
86708SOL    HW161963  11.854  10.553   5.485
86708SOL    HW261964  11.920  10.499   5.610
86709SOL     OW61965  13.744   7.708  11.942
86709SOL    HW161966  13.664   7.660  11.921
86709SOL    HW261967  13.713   7.795  11.969
86710SOL     OW61968   7.980   6.560  12.973
86710SOL    HW161969   7.951   6.513  13.051
86710SOL    HW261970   7.907   6.619  12.953
86711SOL     OW61971   0.983  13.188   2.656
86711SOL    HW161972   1.038  13.263   2.632
86711SOL    HW261973   1.012  13.166   2.745
86712SOL     OW61974   9.913   8.078  10.092
86712SOL    HW161975   9.954   8.144  10.148
86712SOL    HW261976   9.909   7.999  10.145
86713SOL     OW61977  12.232   3.044   7.995
86713SOL    HW161978  12.192   3.042   8.082
86713SOL    HW261979  12.311   2.990   8.004
86714SOL     OW61980  12.407   3.094   5.604
86714SOL    HW161981  12.430   3.114   5.514
86714SOL    HW261982  12.399   2.998   5.607
86715SOL     OW61983   4.652   6.579   2.733
86715SOL    HW161984   4.563   6.590   2.766
86715SOL    HW261985   4.669   6.659   2.683
86716SOL     OW61986   7.363   6.456   4.732
86716SOL    HW161987   7.374   6.552   4.732
86716SOL    HW261988   7.389   6.429   4.644
86717SOL     OW61989   0.820  14.149  12.007
86717SOL    HW161990   0.849  14.085  12.072
86717SOL    HW261991   0.890  14.215  12.005
86718SOL     OW61992   3.032   7.990   7.617
86718SOL    HW161993   3.006   8.002   7.709
86718SOL    HW261994   3.127   7.990   7.619
86719SOL     OW61995   0.323   1.626   2.937
86719SOL    HW161996   0.359   1.701   2.889
86719SOL    HW261997   0.394   1.562   2.938
86720SOL     OW61998   5.764  12.345  10.558
86720SOL    HW161999   5.791  12.378  10.473
86720SOL    HW262000   5.841  12.299  10.592
86721SOL     OW62001   4.934  12.854   5.583
86721SOL    HW162002   4.897  12.766   5.586
86721SOL    HW262003   4.993  12.858   5.658
86722SOL     OW62004  10.592   7.225   2.956
86722SOL    HW162005  10.659   7.157   2.955
86722SOL    HW262006  10.608   7.274   3.036
86723SOL     OW62007   3.999  10.705   0.187
86723SOL    HW162008   3.980  10.701   0.280
86723SOL    HW262009   4.068  10.640   0.174
86724SOL     OW62010   0.077   2.826   8.852
86724SOL    HW162011   0.133   2.903   8.862
86724SOL    HW262012   0.054   2.801   8.941
86725SOL     OW62013   9.264   8.932  13.146
86725SOL    HW162014   9.335   8.922  13.210
86725SOL    HW262015   9.184   8.928  13.199
86726SOL     OW62016  12.803   3.990  11.597
86726SOL    HW162017  12.874   3.999  11.533
86726SOL    HW262018  12.757   3.910  11.571
86727SOL     OW62019   6.742   3.500   1.518
86727SOL    HW162020   6.770   3.415   1.485
86727SOL    HW262021   6.721   3.551   1.440
86728SOL     OW62022   7.794   4.217   2.007
86728SOL    HW162023   7.775   4.217   1.913
86728SOL    HW262024   7.846   4.297   2.021
86729SOL     OW62025   3.367   2.572   2.276
86729SOL    HW162026   3.394   2.661   2.254
86729SOL    HW262027   3.373   2.524   2.193
86730SOL     OW62028   2.798  14.294  13.202
86730SOL    HW162029   2.790  14.375  13.151
86730SOL    HW262030   2.848  14.320  13.280
86731SOL     OW62031   6.206   9.857  11.257
86731SOL    HW162032   6.259   9.902  11.191
86731SOL    HW262033   6.148   9.925  11.291
86732SOL     OW62034  11.099   5.744  12.506
86732SOL    HW162035  11.029   5.770  12.566
86732SOL    HW262036  11.072   5.779  12.421
86733SOL     OW62037  13.833   5.384  13.619
86733SOL    HW162038  13.871   5.463  13.658
86733SOL    HW262039  13.888   5.367  13.542
86734SOL     OW62040   2.993   2.421   7.800
86734SOL    HW162041   2.953   2.340   7.768
86734SOL    HW262042   2.927   2.488   7.783
86735SOL     OW62043   7.470   3.281   1.979
86735SOL    HW162044   7.385   3.324   1.966
86735SOL    HW262045   7.466   3.203   1.924
86736SOL     OW62046  11.179   0.458   7.456
86736SOL    HW162047  11.210   0.388   7.398
86736SOL    HW262048  11.098   0.488   7.415
86737SOL     OW62049   8.264  14.336  11.635
86737SOL    HW162050   8.296  14.426  11.638
86737SOL    HW262051   8.331  14.288  11.586
86738SOL     OW62052  10.233  12.750   7.692
86738SOL    HW162053  10.246  12.844   7.685
86738SOL    HW262054  10.200  12.736   7.781
86739SOL     OW62055   2.222   9.929   2.398
86739SOL    HW162056   2.163   9.910   2.471
86739SOL    HW262057   2.309   9.929   2.438
86740SOL     OW62058  10.030   7.490  11.038
86740SOL    HW162059   9.936   7.492  11.021
86740SOL    HW262060  10.048   7.574  11.079
86741SOL     OW62061  10.596   1.466   9.212
86741SOL    HW162062  10.680   1.421   9.209
86741SOL    HW262063  10.617   1.558   9.202
86742SOL     OW62064   9.844  13.891  10.827
86742SOL    HW162065   9.919  13.880  10.767
86742SOL    HW262066   9.770  13.856  10.777
86743SOL     OW62067  13.067   9.070   5.534
86743SOL    HW162068  13.106   9.108   5.454
86743SOL    HW262069  13.016   8.995   5.503
86744SOL     OW62070   0.452  14.519   3.237
86744SOL    HW162071   0.375  14.463   3.229
86744SOL    HW262072   0.453  14.547   3.328
86745SOL     OW62073   0.105   4.467   0.847
86745SOL    HW162074   0.030   4.523   0.830
86745SOL    HW262075   0.068   4.388   0.887
86746SOL     OW62076   5.934   6.960   4.931
86746SOL    HW162077   5.951   6.917   4.847
86746SOL    HW262078   5.985   6.909   4.995
86747SOL     OW62079  10.890  13.799  12.069
86747SOL    HW162080  10.962  13.758  12.021
86747SOL    HW262081  10.811  13.758  12.034
86748SOL     OW62082  14.289  14.064   3.720
86748SOL    HW162083  14.210  14.046   3.670
86748SOL    HW262084  14.361  14.042   3.660
86749SOL     OW62085   6.376   8.560   4.162
86749SOL    HW162086   6.424   8.488   4.120
86749SOL    HW262087   6.386   8.633   4.101
86750SOL     OW62088   2.331  13.818   0.913
86750SOL    HW162089   2.348  13.905   0.877
86750SOL    HW262090   2.249  13.828   0.961
86751SOL     OW62091  10.488  12.873  14.029
86751SOL    HW162092  10.507  12.788  13.988
86751SOL    HW262093  10.397  12.892  14.004
86752SOL     OW62094   8.446   8.144   0.657
86752SOL    HW162095   8.456   8.209   0.727
86752SOL    HW262096   8.392   8.188   0.591
86753SOL     OW62097  10.313  13.566   6.888
86753SOL    HW162098  10.319  13.657   6.860
86753SOL    HW262099  10.402  13.531   6.877
86754SOL     OW62100   9.057   6.782   7.243
86754SOL    HW162101   9.082   6.870   7.274
86754SOL    HW262102   9.000   6.749   7.312
86755SOL     OW62103   2.756  13.889   9.368
86755SOL    HW162104   2.756  13.811   9.423
86755SOL    HW262105   2.834  13.937   9.394
86756SOL     OW62106  14.752   2.379   3.665
86756SOL    HW162107  14.783   2.370   3.755
86756SOL    HW262108  14.756   2.291   3.629
86757SOL     OW62109  13.663   6.105  12.689
86757SOL    HW162110  13.712   6.182  12.717
86757SOL    HW262111  13.666   6.045  12.764
86758SOL     OW62112  13.927   4.129  13.295
86758SOL    HW162113  13.971   4.140  13.210
86758SOL    HW262114  13.995   4.152  13.359
86759SOL     OW62115   0.814   7.413  11.014
86759SOL    HW162116   0.746   7.351  11.039
86759SOL    HW262117   0.849   7.446  11.097
86760SOL     OW62118   4.421   7.680   1.953
86760SOL    HW162119   4.359   7.713   1.888
86760SOL    HW262120   4.468   7.609   1.908
86761SOL     OW62121   4.278   8.603   2.677
86761SOL    HW162122   4.338   8.541   2.718
86761SOL    HW262123   4.191   8.566   2.694
86762SOL     OW62124   9.675   4.183   6.542
86762SOL    HW162125   9.758   4.228   6.555
86762SOL    HW262126   9.672   4.165   6.448
86763SOL     OW62127   6.091   2.659   3.417
86763SOL    HW162128   6.068   2.664   3.325
86763SOL    HW262129   6.109   2.566   3.432
86764SOL     OW62130   9.434   5.927  12.375
86764SOL    HW162131   9.348   5.931  12.416
86764SOL    HW262132   9.421   5.960  12.287
86765SOL     OW62133   8.168   2.391   0.464
86765SOL    HW162134   8.141   2.300   0.453
86765SOL    HW262135   8.176   2.425   0.375
86766SOL     OW62136   5.077  12.967   2.473
86766SOL    HW162137   5.082  13.062   2.483
86766SOL    HW262138   5.027  12.954   2.393
86767SOL     OW62139  12.299  11.232   3.670
86767SOL    HW162140  12.349  11.311   3.688
86767SOL    HW262141  12.351  11.185   3.604
86768SOL     OW62142  11.184   8.461   9.094
86768SOL    HW162143  11.197   8.388   9.032
86768SOL    HW262144  11.154   8.419   9.175
86769SOL     OW62145   1.453   8.725   3.418
86769SOL    HW162146   1.430   8.641   3.378
86769SOL    HW262147   1.374   8.752   3.463
86770SOL     OW62148   4.661   5.594   5.621
86770SOL    HW162149   4.705   5.647   5.688
86770SOL    HW262150   4.584   5.559   5.664
86771SOL     OW62151   0.828  11.531  12.320
86771SOL    HW162152   0.889  11.564  12.254
86771SOL    HW262153   0.876  11.539  12.403
86772SOL     OW62154   6.944   3.204   4.305
86772SOL    HW162155   6.972   3.283   4.351
86772SOL    HW262156   7.005   3.196   4.232
86773SOL     OW62157   6.062   8.784   2.531
86773SOL    HW162158   6.100   8.839   2.599
86773SOL    HW262159   6.125   8.787   2.459
86774SOL     OW62160  10.896   3.507   9.938
86774SOL    HW162161  10.810   3.482   9.972
86774SOL    HW262162  10.950   3.429   9.950
86775SOL     OW62163   8.270   5.992   9.914
86775SOL    HW162164   8.358   6.026   9.894
86775SOL    HW262165   8.228   6.061   9.965
86776SOL     OW62166  13.913  10.123   6.689
86776SOL    HW162167  13.974  10.062   6.729
86776SOL    HW262168  13.913  10.200   6.746
86777SOL     OW62169   1.425  14.125   9.516
86777SOL    HW162170   1.404  14.040   9.556
86777SOL    HW262171   1.367  14.187   9.560
86778SOL     OW62172   1.185   8.163   0.448
86778SOL    HW162173   1.124   8.199   0.513
86778SOL    HW262174   1.261   8.138   0.500
86779SOL     OW62175   1.043   1.784   4.082
86779SOL    HW162176   0.963   1.836   4.087
86779SOL    HW262177   1.052   1.762   3.990
86780SOL     OW62178   9.151  12.025   6.311
86780SOL    HW162179   9.059  12.011   6.331
86780SOL    HW262180   9.183  12.080   6.383
86781SOL     OW62181   0.560   8.846   6.978
86781SOL    HW162182   0.603   8.921   7.019
86781SOL    HW262183   0.598   8.842   6.890
86782SOL     OW62184   0.368  12.851  14.673
86782SOL    HW162185   0.298  12.788  14.688
86782SOL    HW262186   0.403  12.870  14.760
86783SOL     OW62187  14.351   1.171   5.527
86783SOL    HW162188  14.307   1.223   5.594
86783SOL    HW262189  14.297   1.182   5.449
86784SOL     OW62190   6.230   0.260   2.934
86784SOL    HW162191   6.179   0.195   2.982
86784SOL    HW262192   6.237   0.224   2.846
86785SOL     OW62193  13.441  12.824   4.961
86785SOL    HW162194  13.512  12.836   5.024
86785SOL    HW262195  13.404  12.911   4.948
86786SOL     OW62196  14.420  12.168  11.226
86786SOL    HW162197  14.511  12.195  11.212
86786SOL    HW262198  14.374  12.200  11.148
86787SOL     OW62199   3.940   2.564   6.367
86787SOL    HW162200   3.934   2.564   6.463
86787SOL    HW262201   4.017   2.511   6.348
86788SOL     OW62202   3.193   0.832  10.599
86788SOL    HW162203   3.177   0.894  10.529
86788SOL    HW262204   3.273   0.863  10.642
86789SOL     OW62205   9.001  10.596   3.316
86789SOL    HW162206   9.084  10.558   3.343
86789SOL    HW262207   8.977  10.656   3.386
86790SOL     OW62208   0.075   3.172   7.265
86790SOL    HW162209  14.863   3.128   7.258
86790SOL    HW262210   0.092   3.204   7.177
86791SOL     OW62211   8.309  10.564   6.827
86791SOL    HW162212   8.377  10.528   6.884
86791SOL    HW262213   8.299  10.655   6.857
86792SOL     OW62214   9.038   5.295  10.051
86792SOL    HW162215   9.037   5.381  10.093
86792SOL    HW262216   8.975   5.303   9.979
86793SOL     OW62217   8.611   3.681   9.161
86793SOL    HW162218   8.522   3.684   9.195
86793SOL    HW262219   8.604   3.718   9.073
86794SOL     OW62220   4.012   6.757  13.763
86794SOL    HW162221   4.058   6.814  13.825
86794SOL    HW262222   4.035   6.669  13.791
86795SOL     OW62223  14.358   9.550   4.268
86795SOL    HW162224  14.281   9.570   4.215
86795SOL    HW262225  14.418   9.508   4.207
86796SOL     OW62226   8.936   1.285   5.886
86796SOL    HW162227   8.901   1.329   5.808
86796SOL    HW262228   8.992   1.351   5.927
86797SOL     OW62229   1.116  11.603  13.282
86797SOL    HW162230   1.176  11.600  13.356
86797SOL    HW262231   1.157  11.547  13.216
86798SOL     OW62232   5.025  13.476   5.970
86798SOL    HW162233   4.969  13.419   5.917
86798SOL    HW262234   5.048  13.422   6.046
86799SOL     OW62235   7.903   3.724   7.363
86799SOL    HW162236   7.860   3.680   7.289
86799SOL    HW262237   7.906   3.816   7.337
86800SOL     OW62238  10.940   3.975   3.474
86800SOL    HW162239  10.945   3.880   3.485
86800SOL    HW262240  10.848   3.991   3.451
86801SOL     OW62241   3.088  12.026   7.068
86801SOL    HW162242   3.028  11.996   7.000
86801SOL    HW262243   3.145  11.951   7.085
86802SOL     OW62244   2.925   0.683   2.943
86802SOL    HW162245   2.872   0.688   2.863
86802SOL    HW262246   2.961   0.772   2.953
86803SOL     OW62247   3.225   6.289  12.316
86803SOL    HW162248   3.232   6.222  12.383
86803SOL    HW262249   3.272   6.364  12.351
86804SOL     OW62250  11.624   6.302   6.917
86804SOL    HW162251  11.591   6.285   6.829
86804SOL    HW262252  11.658   6.218   6.947
86805SOL     OW62253   8.190  12.386   0.666
86805SOL    HW162254   8.202  12.351   0.754
86805SOL    HW262255   8.115  12.444   0.673
86806SOL     OW62256   2.381   9.183  13.645
86806SOL    HW162257   2.364   9.101  13.598
86806SOL    HW262258   2.430   9.157  13.723
86807SOL     OW62259  11.772   9.450  12.556
86807SOL    HW162260  11.751   9.427  12.647
86807SOL    HW262261  11.774   9.366  12.510
86808SOL     OW62262   5.736   2.368   9.627
86808SOL    HW162263   5.800   2.353   9.697
86808SOL    HW262264   5.782   2.421   9.562
86809SOL     OW62265   5.220  11.152   9.739
86809SOL    HW162266   5.292  11.166   9.677
86809SOL    HW262267   5.142  11.180   9.692
86810SOL     OW62268  11.613  10.309   5.180
86810SOL    HW162269  11.645  10.295   5.091
86810SOL    HW262270  11.518  10.296   5.175
86811SOL     OW62271  11.126  10.517  10.748
86811SOL    HW162272  11.086  10.601  10.773
86811SOL    HW262273  11.063  10.451  10.779
86812SOL     OW62274  11.332  10.902   4.495
86812SOL    HW162275  11.296  10.981   4.536
86812SOL    HW262276  11.427  10.915   4.496
86813SOL     OW62277  14.825   9.202   2.995
86813SOL    HW162278  14.861   9.289   3.011
86813SOL    HW262279  14.844   9.153   3.076
86814SOL     OW62280  14.045   6.959  13.181
86814SOL    HW162281  13.956   6.922  13.176
86814SOL    HW262282  14.035   7.050  13.153
86815SOL     OW62283  14.768   3.167   8.857
86815SOL    HW162284  14.721   3.230   8.912
86815SOL    HW262285  14.798   3.099   8.918
86816SOL     OW62286   6.109   1.782   0.477
86816SOL    HW162287   6.154   1.701   0.455
86816SOL    HW262288   6.177   1.849   0.474
86817SOL     OW62289  12.988   6.782   4.118
86817SOL    HW162290  13.008   6.875   4.101
86817SOL    HW262291  13.001   6.740   4.033
86818SOL     OW62292   9.226  13.035  13.156
86818SOL    HW162293   9.247  12.979  13.081
86818SOL    HW262294   9.277  13.114  13.142
86819SOL     OW62295  14.517   5.140  10.246
86819SOL    HW162296  14.450   5.103  10.188
86819SOL    HW262297  14.512   5.234  10.232
86820SOL     OW62298   0.099   7.354   1.227
86820SOL    HW162299   0.097   7.272   1.178
86820SOL    HW262300   0.016   7.397   1.204
86821SOL     OW62301   1.168   2.585  13.042
86821SOL    HW162302   1.138   2.620  12.958
86821SOL    HW262303   1.159   2.658  13.103
86822SOL     OW62304  12.210   8.303   5.863
86822SOL    HW162305  12.239   8.257   5.942
86822SOL    HW262306  12.131   8.257   5.836
86823SOL     OW62307   3.408   2.492   2.908
86823SOL    HW162308   3.455   2.530   2.982
86823SOL    HW262309   3.323   2.537   2.908
86824SOL     OW62310   3.373   3.715   1.164
86824SOL    HW162311   3.415   3.762   1.236
86824SOL    HW262312   3.338   3.784   1.107
86825SOL     OW62313   7.922   3.985   4.794
86825SOL    HW162314   7.969   4.041   4.733
86825SOL    HW262315   7.831   3.988   4.764
86826SOL     OW62316   0.785   5.375   7.275
86826SOL    HW162317   0.795   5.342   7.186
86826SOL    HW262318   0.828   5.309   7.330
86827SOL     OW62319  11.237  12.135  11.987
86827SOL    HW162320  11.329  12.159  11.998
86827SOL    HW262321  11.218  12.075  12.059
86828SOL     OW62322   5.558   3.088  12.857
86828SOL    HW162323   5.600   3.159  12.907
86828SOL    HW262324   5.523   3.030  12.924
86829SOL     OW62325  11.245  10.472   1.936
86829SOL    HW162326  11.327  10.503   1.899
86829SOL    HW262327  11.266  10.451   2.027
86830SOL     OW62328   1.224   3.449   4.167
86830SOL    HW162329   1.189   3.468   4.080
86830SOL    HW262330   1.213   3.354   4.177
86831SOL     OW62331   2.540   9.956   0.337
86831SOL    HW162332   2.604   9.954   0.409
86831SOL    HW262333   2.589   9.990   0.262
86832SOL     OW62334   1.432   6.461   9.885
86832SOL    HW162335   1.384   6.511   9.952
86832SOL    HW262336   1.517   6.443   9.926
86833SOL     OW62337   4.979  13.660   4.220
86833SOL    HW162338   4.916  13.669   4.291
86833SOL    HW262339   5.050  13.607   4.257
86834SOL     OW62340   6.871   9.912   3.680
86834SOL    HW162341   6.938   9.882   3.741
86834SOL    HW262342   6.806   9.842   3.679
86835SOL     OW62343  10.314   2.182   7.757
86835SOL    HW162344  10.335   2.223   7.673
86835SOL    HW262345  10.218   2.174   7.757
86836SOL     OW62346   6.125  12.808   2.715
86836SOL    HW162347   6.136  12.898   2.683
86836SOL    HW262348   6.063  12.816   2.788
86837SOL     OW62349   5.360   7.572   0.901
86837SOL    HW162350   5.289   7.563   0.965
86837SOL    HW262351   5.431   7.518   0.936
86838SOL     OW62352  10.746   9.019  14.784
86838SOL    HW162353  10.741   8.924  14.797
86838SOL    HW262354  10.777   9.052  14.869
86839SOL     OW62355  12.228   8.988   9.359
86839SOL    HW162356  12.226   9.035   9.442
86839SOL    HW262357  12.136   8.974   9.338
86840SOL     OW62358   1.059   3.004   7.848
86840SOL    HW162359   1.107   3.038   7.773
86840SOL    HW262360   1.123   3.000   7.919
86841SOL     OW62361  10.188  14.134   6.447
86841SOL    HW162362  10.279  14.114   6.471
86841SOL    HW262363  10.192  14.219   6.404
86842SOL     OW62364  14.152   4.191  13.429
86842SOL    HW162365  14.225   4.229  13.380
86842SOL    HW262366  14.176   4.099  13.441
86843SOL     OW62367   2.444   1.441   9.860
86843SOL    HW162368   2.404   1.435   9.947
86843SOL    HW262369   2.398   1.514   9.817
86844SOL     OW62370   8.746   0.346  13.822
86844SOL    HW162371   8.838   0.338  13.846
86844SOL    HW262372   8.707   0.262  13.845
86845SOL     OW62373   5.060  14.361   3.464
86845SOL    HW162374   5.142  14.336   3.507
86845SOL    HW262375   5.044  14.451   3.491
86846SOL     OW62376   7.181   6.464   2.313
86846SOL    HW162377   7.247   6.531   2.330
86846SOL    HW262378   7.098   6.511   2.316
86847SOL     OW62379   4.799   3.756   9.908
86847SOL    HW162380   4.738   3.826   9.930
86847SOL    HW262381   4.794   3.695   9.981
86848SOL     OW62382  14.030   2.103   3.901
86848SOL    HW162383  13.999   2.051   3.975
86848SOL    HW262384  14.016   2.194   3.927
86849SOL     OW62385   2.933  11.526   7.005
86849SOL    HW162386   3.023  11.499   7.022
86849SOL    HW262387   2.907  11.576   7.082
86850SOL     OW62388   8.434   2.421   9.206
86850SOL    HW162389   8.469   2.344   9.250
86850SOL    HW262390   8.480   2.495   9.245
86851SOL     OW62391  13.057   1.380   7.241
86851SOL    HW162392  12.990   1.447   7.231
86851SOL    HW262393  13.029   1.330   7.318
86852SOL     OW62394  10.289   5.902   8.800
86852SOL    HW162395  10.302   5.886   8.706
86852SOL    HW262396  10.375   5.885   8.839
86853SOL     OW62397   3.520  10.378  13.072
86853SOL    HW162398   3.519  10.418  13.159
86853SOL    HW262399   3.512  10.284  13.088
86854SOL     OW62400   0.100  12.370   1.054
86854SOL    HW162401   0.079  12.366   0.960
86854SOL    HW262402   0.192  12.394   1.057
86855SOL     OW62403   4.283  14.514   8.002
86855SOL    HW162404   4.297  14.604   7.974
86855SOL    HW262405   4.321  14.510   8.090
86856SOL     OW62406   7.702  10.434   2.304
86856SOL    HW162407   7.731  10.454   2.214
86856SOL    HW262408   7.719  10.515   2.353
86857SOL     OW62409   1.488   1.339  12.604
86857SOL    HW162410   1.452   1.372  12.687
86857SOL    HW262411   1.415   1.348  12.542
86858SOL     OW62412   1.592  11.245   4.257
86858SOL    HW162413   1.630  11.300   4.326
86858SOL    HW262414   1.663  11.187   4.231
86859SOL     OW62415   4.966   4.746  13.046
86859SOL    HW162416   4.875   4.765  13.023
86859SOL    HW262417   5.013   4.748  12.963
86860SOL     OW62418   0.967   3.848   1.104
86860SOL    HW162419   1.048   3.892   1.078
86860SOL    HW262420   0.992   3.793   1.178
86861SOL     OW62421   2.251   5.490   4.296
86861SOL    HW162422   2.199   5.489   4.377
86861SOL    HW262423   2.342   5.491   4.325
86862SOL     OW62424   2.950  11.325   2.173
86862SOL    HW162425   3.044  11.324   2.158
86862SOL    HW262426   2.938  11.378   2.251
86863SOL     OW62427   0.076   8.815   3.956
86863SOL    HW162428   0.105   8.742   3.901
86863SOL    HW262429   0.017   8.865   3.901
86864SOL     OW62430   2.736   9.521   9.576
86864SOL    HW162431   2.641   9.509   9.582
86864SOL    HW262432   2.766   9.521   9.666
86865SOL     OW62433  14.264  13.673   3.495
86865SOL    HW162434  14.350  13.633   3.482
86865SOL    HW262435  14.257  13.683   3.590
86866SOL     OW62436   3.121   7.939   2.770
86866SOL    HW162437   3.168   7.863   2.802
86866SOL    HW262438   3.049   7.951   2.833
86867SOL     OW62439   0.017   5.840   6.309
86867SOL    HW162440   0.055   5.790   6.237
86867SOL    HW262441  14.828   5.780   6.350
86868SOL     OW62442  10.873  11.853  14.624
86868SOL    HW162443  10.950  11.804  14.652
86868SOL    HW262444  10.861  11.920  14.691
86869SOL     OW62445   1.245  14.843  14.249
86869SOL    HW162446   1.325   0.011  14.217
86869SOL    HW262447   1.272  14.796  14.328
86870SOL     OW62448   5.641   6.533   1.981
86870SOL    HW162449   5.672   6.493   1.900
86870SOL    HW262450   5.716   6.581   2.015
86871SOL     OW62451   7.882  11.846   0.834
86871SOL    HW162452   7.938  11.830   0.759
86871SOL    HW262453   7.835  11.763   0.846
86872SOL     OW62454  13.649   3.877   3.605
86872SOL    HW162455  13.618   3.817   3.673
86872SOL    HW262456  13.572   3.892   3.550
86873SOL     OW62457   5.865   0.025  14.521
86873SOL    HW162458   5.873  14.804  14.507
86873SOL    HW262459   5.789   0.051  14.469
86874SOL     OW62460  12.648   5.787  13.331
86874SOL    HW162461  12.684   5.698  13.337
86874SOL    HW262462  12.666   5.813  13.240
86875SOL     OW62463  10.950   7.768   5.355
86875SOL    HW162464  10.862   7.768   5.319
86875SOL    HW262465  10.939   7.802   5.444
86876SOL     OW62466  14.568   4.652   8.626
86876SOL    HW162467  14.610   4.701   8.697
86876SOL    HW262468  14.571   4.561   8.655
86877SOL     OW62469   3.205   8.229  11.054
86877SOL    HW162470   3.115   8.199  11.037
86877SOL    HW262471   3.248   8.152  11.091
86878SOL     OW62472  14.027   2.170   9.750
86878SOL    HW162473  13.939   2.139   9.773
86878SOL    HW262474  14.059   2.106   9.686
86879SOL     OW62475   5.970  14.090  11.880
86879SOL    HW162476   6.007  14.093  11.792
86879SOL    HW262477   6.020  14.021  11.924
86880SOL     OW62478   8.428  14.292   1.756
86880SOL    HW162479   8.411  14.231   1.828
86880SOL    HW262480   8.345  14.336   1.741
86881SOL     OW62481   1.868   2.640   7.202
86881SOL    HW162482   1.880   2.693   7.123
86881SOL    HW262483   1.861   2.550   7.169
86882SOL     OW62484   3.388   6.718   2.590
86882SOL    HW162485   3.473   6.722   2.634
86882SOL    HW262486   3.326   6.753   2.654
86883SOL     OW62487   6.736   4.438   8.317
86883SOL    HW162488   6.766   4.360   8.365
86883SOL    HW262489   6.752   4.511   8.377
86884SOL     OW62490  11.983  13.610   3.084
86884SOL    HW162491  12.063  13.633   3.036
86884SOL    HW262492  11.991  13.516   3.098
86885SOL     OW62493   7.807   8.943  12.720
86885SOL    HW162494   7.798   8.988  12.804
86885SOL    HW262495   7.805   9.013  12.655
86886SOL     OW62496   2.412   3.841  13.349
86886SOL    HW162497   2.456   3.867  13.268
86886SOL    HW262498   2.399   3.924  13.396
86887SOL     OW62499   2.992  12.590   2.537
86887SOL    HW162500   2.934  12.569   2.464
86887SOL    HW262501   2.950  12.550   2.613
86888SOL     OW62502   7.145   4.072   7.598
86888SOL    HW162503   7.153   4.057   7.504
86888SOL    HW262504   7.051   4.075   7.615
86889SOL     OW62505   7.742   7.646   5.247
86889SOL    HW162506   7.711   7.694   5.324
86889SOL    HW262507   7.672   7.583   5.228
86890SOL     OW62508   2.200   8.377  10.000
86890SOL    HW162509   2.111   8.361  10.032
86890SOL    HW262510   2.250   8.301  10.030
86891SOL     OW62511   5.355   1.479  13.110
86891SOL    HW162512   5.329   1.392  13.079
86891SOL    HW262513   5.350   1.473  13.206
86892SOL     OW62514  14.822   6.990   1.326
86892SOL    HW162515  14.749   7.052   1.321
86892SOL    HW262516  14.852   6.979   1.236
86893SOL     OW62517   1.468   5.054   0.319
86893SOL    HW162518   1.436   5.127   0.371
86893SOL    HW262519   1.389   5.015   0.280
86894SOL     OW62520  10.517   6.669   8.147
86894SOL    HW162521  10.432   6.626   8.144
86894SOL    HW262522  10.498   6.761   8.163
86895SOL     OW62523   3.177   0.876   5.084
86895SOL    HW162524   3.158   0.782   5.091
86895SOL    HW262525   3.265   0.885   5.118
86896SOL     OW62526   9.730   6.261   5.325
86896SOL    HW162527   9.703   6.254   5.417
86896SOL    HW262528   9.653   6.230   5.275
86897SOL     OW62529   3.356   4.703  14.052
86897SOL    HW162530   3.359   4.798  14.065
86897SOL    HW262531   3.270   4.687  14.014
86898SOL     OW62532   3.669   5.686   7.900
86898SOL    HW162533   3.720   5.628   7.843
86898SOL    HW262534   3.635   5.628   7.968
86899SOL     OW62535   9.316  13.274  10.693
86899SOL    HW162536   9.249  13.205  10.687
86899SOL    HW262537   9.277  13.340  10.750
86900SOL     OW62538  13.233   7.232   6.396
86900SOL    HW162539  13.218   7.224   6.491
86900SOL    HW262540  13.243   7.326   6.382
86901SOL     OW62541  11.811   9.919   4.709
86901SOL    HW162542  11.792   9.893   4.619
86901SOL    HW262543  11.740   9.881   4.761
86902SOL     OW62544  10.549   6.704  11.699
86902SOL    HW162545  10.501   6.763  11.756
86902SOL    HW262546  10.583   6.636  11.758
86903SOL     OW62547   5.065  11.483   3.500
86903SOL    HW162548   5.009  11.561   3.499
86903SOL    HW262549   5.126  11.496   3.427
86904SOL     OW62550  12.290   2.514   9.452
86904SOL    HW162551  12.231   2.586   9.474
86904SOL    HW262552  12.251   2.437   9.493
86905SOL     OW62553   2.656   1.654   3.991
86905SOL    HW162554   2.729   1.664   3.930
86905SOL    HW262555   2.673   1.718   4.060
86906SOL     OW62556   7.510   6.380   7.744
86906SOL    HW162557   7.478   6.317   7.808
86906SOL    HW262558   7.478   6.465   7.776
86907SOL     OW62559  14.295  11.787  11.423
86907SOL    HW162560  14.279  11.827  11.337
86907SOL    HW262561  14.226  11.821  11.479
86908SOL     OW62562  10.711   8.131   1.689
86908SOL    HW162563  10.730   8.095   1.602
86908SOL    HW262564  10.636   8.080   1.720
86909SOL     OW62565   2.424   5.599  10.273
86909SOL    HW162566   2.355   5.647  10.228
86909SOL    HW262567   2.391   5.509  10.280
86910SOL     OW62568   2.616   9.888   3.702
86910SOL    HW162569   2.571   9.862   3.622
86910SOL    HW262570   2.668   9.964   3.677
86911SOL     OW62571   5.026   7.977  13.512
86911SOL    HW162572   4.976   7.906  13.552
86911SOL    HW262573   4.983   8.057  13.541
86912SOL     OW62574   1.636   0.244   0.153
86912SOL    HW162575   1.695   0.196   0.095
86912SOL    HW262576   1.553   0.247   0.106
86913SOL     OW62577  11.909   1.919   0.680
86913SOL    HW162578  11.857   1.914   0.601
86913SOL    HW262579  11.971   1.990   0.664
86914SOL     OW62580   4.155  13.366   9.480
86914SOL    HW162581   4.139  13.456   9.452
86914SOL    HW262582   4.238  13.370   9.526
86915SOL     OW62583   7.230   0.022   6.010
86915SOL    HW162584   7.316  14.853   6.002
86915SOL    HW262585   7.228   0.052   6.101
86916SOL     OW62586  11.153   6.403  11.896
86916SOL    HW162587  11.119   6.492  11.901
86916SOL    HW262588  11.098   6.352  11.955
86917SOL     OW62589   6.059  10.065   9.435
86917SOL    HW162590   6.041  10.006   9.362
86917SOL    HW262591   6.087  10.147   9.394
86918SOL     OW62592  14.508  13.716  12.200
86918SOL    HW162593  14.444  13.665  12.150
86918SOL    HW262594  14.512  13.672  12.285
86919SOL     OW62595  10.873   2.255   9.763
86919SOL    HW162596  10.806   2.187   9.773
86919SOL    HW262597  10.892   2.283   9.853
86920SOL     OW62598  13.069  11.580   3.564
86920SOL    HW162599  13.001  11.613   3.505
86920SOL    HW262600  13.038  11.602   3.652
86921SOL     OW62601  13.721   3.038   0.824
86921SOL    HW162602  13.669   2.962   0.849
86921SOL    HW262603  13.798   3.034   0.880
86922SOL     OW62604   8.523  12.216   4.656
86922SOL    HW162605   8.489  12.215   4.567
86922SOL    HW262606   8.617  12.233   4.646
86923SOL     OW62607   5.217   4.733   1.325
86923SOL    HW162608   5.175   4.818   1.321
86923SOL    HW262609   5.145   4.671   1.338
86924SOL     OW62610   7.033   1.603   0.663
86924SOL    HW162611   7.021   1.523   0.612
86924SOL    HW262612   7.123   1.598   0.695
86925SOL     OW62613  11.658   7.335  10.097
86925SOL    HW162614  11.577   7.378  10.068
86925SOL    HW262615  11.646   7.243  10.073
86926SOL     OW62616  14.601   5.973   2.410
86926SOL    HW162617  14.692   5.969   2.439
86926SOL    HW262618  14.586   6.066   2.393
86927SOL     OW62619   7.957   1.414   5.252
86927SOL    HW162620   7.970   1.494   5.202
86927SOL    HW262621   7.871   1.425   5.294
86928SOL     OW62622   8.830   1.036   4.094
86928SOL    HW162623   8.746   1.069   4.062
86928SOL    HW262624   8.893   1.105   4.072
86929SOL     OW62625   3.371   5.872   2.757
86929SOL    HW162626   3.332   5.852   2.842
86929SOL    HW262627   3.381   5.787   2.714
86930SOL     OW62628  14.080   9.084  14.764
86930SOL    HW162629  14.038   9.105  14.681
86930SOL    HW262630  14.122   9.165  14.792
86931SOL     OW62631   6.232  10.225   3.373
86931SOL    HW162632   6.287  10.274   3.434
86931SOL    HW262633   6.158  10.283   3.354
86932SOL     OW62634   5.285  10.248  10.270
86932SOL    HW162635   5.229  10.238  10.347
86932SOL    HW262636   5.366  10.286  10.304
86933SOL     OW62637   3.248  10.101   4.123
86933SOL    HW162638   3.202  10.132   4.045
86933SOL    HW262639   3.200  10.141   4.196
86934SOL     OW62640   6.689   9.930   5.340
86934SOL    HW162641   6.668   9.926   5.247
86934SOL    HW262642   6.609   9.963   5.381
86935SOL     OW62643   5.597  13.019  14.504
86935SOL    HW162644   5.623  13.109  14.524
86935SOL    HW262645   5.512  13.008  14.546
86936SOL     OW62646   9.952   6.859   5.135
86936SOL    HW162647   9.963   6.938   5.082
86936SOL    HW262648  10.041   6.832   5.157
86937SOL     OW62649   8.703   1.112   8.072
86937SOL    HW162650   8.696   1.197   8.030
86937SOL    HW262651   8.630   1.061   8.037
86938SOL     OW62652   3.381  10.300   5.511
86938SOL    HW162653   3.428  10.221   5.537
86938SOL    HW262654   3.446  10.352   5.463
86939SOL     OW62655   5.145  10.182  11.535
86939SOL    HW162656   5.080  10.139  11.480
86939SOL    HW262657   5.139  10.136  11.619
86940SOL     OW62658   4.252  12.903   0.275
86940SOL    HW162659   4.160  12.877   0.275
86940SOL    HW262660   4.253  12.989   0.232
86941SOL     OW62661   9.627  10.376   1.160
86941SOL    HW162662   9.616  10.321   1.238
86941SOL    HW262663   9.538  10.395   1.132
86942SOL     OW62664   2.008   1.961  14.272
86942SOL    HW162665   2.080   1.915  14.230
86942SOL    HW262666   2.040   1.982  14.359
86943SOL     OW62667   2.899   7.378   2.989
86943SOL    HW162668   2.818   7.403   3.033
86943SOL    HW262669   2.907   7.440   2.917
86944SOL     OW62670   0.260  10.787   6.170
86944SOL    HW162671   0.165  10.787   6.172
86944SOL    HW262672   0.282  10.728   6.097
86945SOL     OW62673   6.857   6.087   5.793
86945SOL    HW162674   6.851   6.132   5.878
86945SOL    HW262675   6.894   6.001   5.815
86946SOL     OW62676   8.843   8.401   0.221
86946SOL    HW162677   8.900   8.337   0.179
86946SOL    HW262678   8.791   8.350   0.283
86947SOL     OW62679   5.666   9.886   5.898
86947SOL    HW162680   5.675   9.891   5.994
86947SOL    HW262681   5.756   9.888   5.866
86948SOL     OW62682  12.045   3.443   9.916
86948SOL    HW162683  12.124   3.490   9.945
86948SOL    HW262684  12.005   3.502   9.852
86949SOL     OW62685   7.827   0.387   2.473
86949SOL    HW162686   7.808   0.447   2.546
86949SOL    HW262687   7.784   0.305   2.499
86950SOL     OW62688   3.625   1.010  14.827
86950SOL    HW162689   3.672   1.039   0.033
86950SOL    HW262690   3.603   0.918  14.845
86951SOL     OW62691  13.484  13.899  10.559
86951SOL    HW162692  13.467  13.943  10.476
86951SOL    HW262693  13.578  13.883  10.558
86952SOL     OW62694  14.003  12.936   7.207
86952SOL    HW162695  14.067  12.961   7.274
86952SOL    HW262696  14.047  12.867   7.157
86953SOL     OW62697   9.956   0.640  14.836
86953SOL    HW162698  10.027   0.603   0.014
86953SOL    HW262699   9.999   0.691  14.767
86954SOL     OW62700   8.771  11.671   4.809
86954SOL    HW162701   8.848  11.619   4.787
86954SOL    HW262702   8.760  11.658   4.903
86955SOL     OW62703   9.040   1.644  10.094
86955SOL    HW162704   9.086   1.600  10.166
86955SOL    HW262705   8.954   1.665  10.130
86956SOL     OW62706  13.584   0.138  13.130
86956SOL    HW162707  13.593   0.163  13.222
86956SOL    HW262708  13.667   0.096  13.109
86957SOL     OW62709   3.318  13.037   4.407
86957SOL    HW162710   3.337  13.016   4.499
86957SOL    HW262711   3.229  13.070   4.408
86958SOL     OW62712   7.924  13.090   6.425
86958SOL    HW162713   8.001  13.047   6.389
86958SOL    HW262714   7.935  13.182   6.403
86959SOL     OW62715  13.100   8.547   2.776
86959SOL    HW162716  13.111   8.598   2.856
86959SOL    HW262717  13.015   8.572   2.741
86960SOL     OW62718   7.639   2.232   7.826
86960SOL    HW162719   7.609   2.275   7.906
86960SOL    HW262720   7.734   2.222   7.839
86961SOL     OW62721   0.998   8.467   5.370
86961SOL    HW162722   1.027   8.541   5.425
86961SOL    HW262723   0.932   8.505   5.312
86962SOL     OW62724   4.240   5.066  10.968
86962SOL    HW162725   4.231   5.146  11.019
86962SOL    HW262726   4.294   5.090  10.893
86963SOL     OW62727   1.937   4.729   0.141
86963SOL    HW162728   1.847   4.762   0.138
86963SOL    HW262729   1.935   4.649   0.089
86964SOL     OW62730   2.570  10.544   5.001
86964SOL    HW162731   2.583  10.481   5.071
86964SOL    HW262732   2.479  10.529   4.972
86965SOL     OW62733  12.358  14.169   7.496
86965SOL    HW162734  12.389  14.079   7.492
86965SOL    HW262735  12.398  14.211   7.420
86966SOL     OW62736   3.199  14.761   8.852
86966SOL    HW162737   3.144  14.837   8.832
86966SOL    HW262738   3.181  14.699   8.782
86967SOL     OW62739  14.609   8.636  11.274
86967SOL    HW162740  14.646   8.705  11.328
86967SOL    HW262741  14.518   8.629  11.303
86968SOL     OW62742   5.480  11.624  14.866
86968SOL    HW162743   5.404  11.676  14.839
86968SOL    HW262744   5.511  11.583  14.785
86969SOL     OW62745  13.787   4.812  11.595
86969SOL    HW162746  13.726   4.754  11.640
86969SOL    HW262747  13.858   4.826  11.657
86970SOL     OW62748   6.198  14.040   7.721
86970SOL    HW162749   6.239  13.970   7.670
86970SOL    HW262750   6.247  14.119   7.699
86971SOL     OW62751   0.664   5.981   1.908
86971SOL    HW162752   0.613   5.951   1.984
86971SOL    HW262753   0.598   6.004   1.843
86972SOL     OW62754  14.394   3.444   2.247
86972SOL    HW162755  14.470   3.493   2.216
86972SOL    HW262756  14.417   3.352   2.232
86973SOL     OW62757   2.535   2.598  11.307
86973SOL    HW162758   2.562   2.506  11.308
86973SOL    HW262759   2.509   2.615  11.216
86974SOL     OW62760   0.240   5.157   1.804
86974SOL    HW162761   0.154   5.121   1.823
86974SOL    HW262762   0.296   5.124   1.875
86975SOL     OW62763  11.967   9.177   4.860
86975SOL    HW162764  11.923   9.135   4.786
86975SOL    HW262765  11.961   9.271   4.841
86976SOL     OW62766  14.398  14.071  14.539
86976SOL    HW162767  14.445  14.154  14.541
86976SOL    HW262768  14.465  14.005  14.521
86977SOL     OW62769   9.038   3.478  13.281
86977SOL    HW162770   9.024   3.512  13.192
86977SOL    HW262771   9.035   3.383  13.271
86978SOL     OW62772   1.284   2.072   6.216
86978SOL    HW162773   1.215   2.017   6.254
86978SOL    HW262774   1.361   2.056   6.272
86979SOL     OW62775   2.521  13.393  13.630
86979SOL    HW162776   2.529  13.312  13.579
86979SOL    HW262777   2.612  13.420  13.644
86980SOL     OW62778   4.399  10.961  12.539
86980SOL    HW162779   4.377  11.053  12.522
86980SOL    HW262780   4.442  10.962  12.624
86981SOL     OW62781   5.868   3.846   5.444
86981SOL    HW162782   5.803   3.854   5.374
86981SOL    HW262783   5.888   3.936   5.470
86982SOL     OW62784  10.614   6.771   3.918
86982SOL    HW162785  10.586   6.859   3.941
86982SOL    HW262786  10.536   6.717   3.928
86983SOL     OW62787   9.561   3.350  13.570
86983SOL    HW162788   9.527   3.381  13.654
86983SOL    HW262789   9.486   3.353  13.511
86984SOL     OW62790  10.536  13.466   6.482
86984SOL    HW162791  10.581  13.531   6.536
86984SOL    HW262792  10.607  13.423   6.433
86985SOL     OW62793   6.098   1.178   5.719
86985SOL    HW162794   6.180   1.147   5.757
86985SOL    HW262795   6.030   1.151   5.780
86986SOL     OW62796  14.353   9.582  13.439
86986SOL    HW162797  14.271   9.631  13.435
86986SOL    HW262798  14.326   9.490  13.441
86987SOL     OW62799  13.936  12.521  13.445
86987SOL    HW162800  13.938  12.544  13.538
86987SOL    HW262801  14.024  12.538  13.413
86988SOL     OW62802   3.815   2.607   4.403
86988SOL    HW162803   3.722   2.582   4.399
86988SOL    HW262804   3.825   2.645   4.491
86989SOL     OW62805  11.293   0.293  10.239
86989SOL    HW162806  11.264   0.381  10.263
86989SOL    HW262807  11.374   0.307  10.190
86990SOL     OW62808   9.113  12.181   2.769
86990SOL    HW162809   9.061  12.164   2.690
86990SOL    HW262810   9.060  12.243   2.819
86991SOL     OW62811  11.218   9.504   2.921
86991SOL    HW162812  11.224   9.477   2.830
86991SOL    HW262813  11.263   9.589   2.924
86992SOL     OW62814  12.030  14.676   1.164
86992SOL    HW162815  11.968  14.738   1.203
86992SOL    HW262816  11.979  14.595   1.154
86993SOL     OW62817  10.578  12.993  11.209
86993SOL    HW162818  10.513  12.964  11.273
86993SOL    HW262819  10.540  13.074  11.173
86994SOL     OW62820  12.007   1.437  14.699
86994SOL    HW162821  12.003   1.519  14.650
86994SOL    HW262822  11.921   1.397  14.683
86995SOL     OW62823  13.136  11.702  10.056
86995SOL    HW162824  13.061  11.760  10.041
86995SOL    HW262825  13.134  11.684  10.150
86996SOL     OW62826   0.341   3.189  14.431
86996SOL    HW162827   0.312   3.211  14.520
86996SOL    HW262828   0.319   3.096  14.421
86997SOL     OW62829  13.271   6.870   4.979
86997SOL    HW162830  13.330   6.914   4.918
86997SOL    HW262831  13.323   6.799   5.017
86998SOL     OW62832   8.889  11.338   2.701
86998SOL    HW162833   8.962  11.315   2.644
86998SOL    HW262834   8.810  11.318   2.650
86999SOL     OW62835  11.161   2.434   4.772
86999SOL    HW162836  11.103   2.359   4.789
86999SOL    HW262837  11.222   2.402   4.705
87000SOL     OW62838   8.016  13.644   8.715
87000SOL    HW162839   7.976  13.672   8.633
87000SOL    HW262840   8.101  13.609   8.689
87001SOL     OW62841   2.935   6.090   0.988
87001SOL    HW162842   2.904   6.180   0.979
87001SOL    HW262843   3.030   6.096   0.988
87002SOL     OW62844   0.773   4.492   3.258
87002SOL    HW162845   0.818   4.441   3.190
87002SOL    HW262846   0.806   4.456   3.340
87003SOL     OW62847   5.924  14.470   2.438
87003SOL    HW162848   5.900  14.554   2.475
87003SOL    HW262849   6.012  14.453   2.471
87004SOL     OW62850   2.255   4.644   1.438
87004SOL    HW162851   2.166   4.649   1.471
87004SOL    HW262852   2.281   4.553   1.452
87005SOL     OW62853   6.180   3.278   2.951
87005SOL    HW162854   6.266   3.256   2.987
87005SOL    HW262855   6.121   3.278   3.026
87006SOL     OW62856   5.154   2.259  12.818
87006SOL    HW162857   5.249   2.253  12.827
87006SOL    HW262858   5.133   2.197  12.748
87007SOL     OW62859  10.270   1.345   3.405
87007SOL    HW162860  10.279   1.288   3.329
87007SOL    HW262861  10.343   1.321   3.463
87008SOL     OW62862  11.031   7.685   0.261
87008SOL    HW162863  10.985   7.604   0.236
87008SOL    HW262864  11.021   7.743   0.186
87009SOL     OW62865   5.489  14.450   2.186
87009SOL    HW162866   5.495  14.545   2.200
87009SOL    HW262867   5.574  14.417   2.214
87010SOL     OW62868   5.054  11.802   6.418
87010SOL    HW162869   5.113  11.805   6.343
87010SOL    HW262870   4.982  11.746   6.389
87011SOL     OW62871   3.360   4.285  14.507
87011SOL    HW162872   3.317   4.278  14.593
87011SOL    HW262873   3.305   4.233  14.448
87012SOL     OW62874  10.325  14.640  12.485
87012SOL    HW162875  10.298  14.568  12.428
87012SOL    HW262876  10.340  14.713  12.425
87013SOL     OW62877   1.898   5.113   5.531
87013SOL    HW162878   1.946   5.050   5.584
87013SOL    HW262879   1.872   5.182   5.593
87014SOL     OW62880   4.006   6.075   4.935
87014SOL    HW162881   3.937   6.015   4.964
87014SOL    HW262882   4.079   6.058   4.994
87015SOL     OW62883   2.932   9.208   4.097
87015SOL    HW162884   2.933   9.118   4.063
87015SOL    HW262885   2.895   9.260   4.025
87016SOL     OW62886  14.455  11.785   1.264
87016SOL    HW162887  14.370  11.783   1.306
87016SOL    HW262888  14.459  11.870   1.220
87017SOL     OW62889  10.193   8.424   2.249
87017SOL    HW162890  10.208   8.514   2.219
87017SOL    HW262891  10.230   8.369   2.180
87018SOL     OW62892   6.804   0.201  10.977
87018SOL    HW162893   6.768   0.138  11.039
87018SOL    HW262894   6.758   0.182  10.895
87019SOL     OW62895   5.794   7.225  13.120
87019SOL    HW162896   5.734   7.300  13.128
87019SOL    HW262897   5.876   7.263  13.087
87020SOL     OW62898   6.098   2.740   0.306
87020SOL    HW162899   6.022   2.734   0.248
87020SOL    HW262900   6.161   2.679   0.269
87021SOL     OW62901   8.937  12.683  10.808
87021SOL    HW162902   8.986  12.719  10.735
87021SOL    HW262903   8.846  12.699  10.787
87022SOL     OW62904   3.825   2.086  11.884
87022SOL    HW162905   3.879   2.084  11.806
87022SOL    HW262906   3.736   2.072  11.851
87023SOL     OW62907  14.605   8.306   0.754
87023SOL    HW162908  14.510   8.308   0.760
87023SOL    HW262909  14.623   8.278   0.664
87024SOL     OW62910   8.718   5.385   8.801
87024SOL    HW162911   8.734   5.372   8.895
87024SOL    HW262912   8.699   5.479   8.793
87025SOL     OW62913   7.712   3.118   3.709
87025SOL    HW162914   7.627   3.130   3.668
87025SOL    HW262915   7.775   3.149   3.644
87026SOL     OW62916  12.150  10.001   8.512
87026SOL    HW162917  12.130   9.994   8.605
87026SOL    HW262918  12.233   9.955   8.502
87027SOL     OW62919   2.453   3.774   3.171
87027SOL    HW162920   2.415   3.770   3.083
87027SOL    HW262921   2.462   3.682   3.197
87028SOL     OW62922   5.043  13.001  14.553
87028SOL    HW162923   5.137  13.007  14.535
87028SOL    HW262924   5.008  13.086  14.524
87029SOL     OW62925  11.030   2.959  13.530
87029SOL    HW162926  10.971   2.884  13.524
87029SOL    HW262927  11.002   3.006  13.609
87030SOL     OW62928  13.713   6.115   0.901
87030SOL    HW162929  13.652   6.185   0.922
87030SOL    HW262930  13.764   6.149   0.827
87031SOL     OW62931   1.853   8.291  14.471
87031SOL    HW162932   1.905   8.223  14.428
87031SOL    HW262933   1.885   8.373  14.433
87032SOL     OW62934   0.511   3.304   0.881
87032SOL    HW162935   0.454   3.339   0.950
87032SOL    HW262936   0.590   3.275   0.928
87033SOL     OW62937  12.335  13.076  10.545
87033SOL    HW162938  12.270  13.067  10.615
87033SOL    HW262939  12.367  13.166  10.554
87034SOL     OW62940  10.101   2.323   2.748
87034SOL    HW162941  10.013   2.311   2.782
87034SOL    HW262942  10.093   2.396   2.686
87035SOL     OW62943   6.727   0.134   1.408
87035SOL    HW162944   6.788   0.103   1.476
87035SOL    HW262945   6.777   0.128   1.327
87036SOL     OW62946   6.584  13.121  13.989
87036SOL    HW162947   6.540  13.204  14.007
87036SOL    HW262948   6.665  13.146  13.944
87037SOL     OW62949   4.893  14.134  12.124
87037SOL    HW162950   4.862  14.137  12.034
87037SOL    HW262951   4.900  14.226  12.150
87038SOL     OW62952  14.072  10.968  10.918
87038SOL    HW162953  13.991  10.981  10.968
87038SOL    HW262954  14.110  10.888  10.953
87039SOL     OW62955  11.928   3.300   9.176
87039SOL    HW162956  11.958   3.330   9.262
87039SOL    HW262957  11.878   3.221   9.194
87040SOL     OW62958   7.460   8.941   0.163
87040SOL    HW162959   7.392   8.997   0.126
87040SOL    HW262960   7.413   8.870   0.205
87041SOL     OW62961  10.767  12.391   5.049
87041SOL    HW162962  10.726  12.374   4.965
87041SOL    HW262963  10.715  12.462   5.088
87042SOL     OW62964   3.460  12.545   9.999
87042SOL    HW162965   3.412  12.468  10.028
87042SOL    HW262966   3.507  12.575  10.077
87043SOL     OW62967   5.060   8.550   7.588
87043SOL    HW162968   5.121   8.516   7.654
87043SOL    HW262969   4.974   8.542   7.628
87044SOL     OW62970   9.225  11.949   8.624
87044SOL    HW162971   9.268  11.886   8.566
87044SOL    HW262972   9.288  11.964   8.694
87045SOL     OW62973  14.251  11.652   3.042
87045SOL    HW162974  14.237  11.617   2.954
87045SOL    HW262975  14.298  11.582   3.088
87046SOL     OW62976  12.236   3.100   5.931
87046SOL    HW162977  12.312   3.149   5.962
87046SOL    HW262978  12.163   3.162   5.941
87047SOL     OW62979  12.936   9.670  10.751
87047SOL    HW162980  12.886   9.717  10.684
87047SOL    HW262981  12.983   9.602  10.702
87048SOL     OW62982   5.859  11.820   6.051
87048SOL    HW162983   5.808  11.884   6.001
87048SOL    HW262984   5.867  11.745   5.991
87049SOL     OW62985  14.406   3.973   2.046
87049SOL    HW162986  14.323   3.947   2.007
87049SOL    HW262987  14.390   3.972   2.140
87050SOL     OW62988   0.149   6.544   3.132
87050SOL    HW162989   0.117   6.455   3.142
87050SOL    HW262990   0.232   6.535   3.085
87051SOL     OW62991  12.911  13.549   9.394
87051SOL    HW162992  12.837  13.579   9.447
87051SOL    HW262993  12.914  13.455   9.407
87052SOL     OW62994  11.093   6.150   3.974
87052SOL    HW162995  11.004   6.172   4.004
87052SOL    HW262996  11.144   6.228   3.994
87053SOL     OW62997   5.875   7.030   3.477
87053SOL    HW162998   5.877   6.937   3.451
87053SOL    HW262999   5.965   7.060   3.462
87054SOL     OW63000   7.555   4.449   0.423
87054SOL    HW163001   7.585   4.400   0.347
87054SOL    HW263002   7.563   4.541   0.397
87055SOL     OW63003   3.296   2.185   8.109
87055SOL    HW163004   3.227   2.133   8.151
87055SOL    HW263005   3.250   2.257   8.067
87056SOL     OW63006  12.055  12.249   2.620
87056SOL    HW163007  12.043  12.309   2.694
87056SOL    HW263008  12.074  12.164   2.661
87057SOL     OW63009   2.727   8.027   3.018
87057SOL    HW163010   2.705   8.009   2.926
87057SOL    HW263011   2.670   7.969   3.068
87058SOL     OW63012  10.413   2.178   4.990
87058SOL    HW163013  10.372   2.110   5.043
87058SOL    HW263014  10.362   2.178   4.908
87059SOL     OW63015   2.921   4.165  13.759
87059SOL    HW163016   2.878   4.140  13.841
87059SOL    HW263017   2.978   4.091  13.739
87060SOL     OW63018   9.534   2.013  11.523
87060SOL    HW163019   9.551   1.999  11.616
87060SOL    HW263020   9.479   2.091  11.520
87061SOL     OW63021   1.484   3.803   4.204
87061SOL    HW163022   1.399   3.842   4.187
87061SOL    HW263023   1.474   3.711   4.180
87062SOL     OW63024   2.877   9.526   3.163
87062SOL    HW163025   2.797   9.474   3.171
87062SOL    HW263026   2.945   9.462   3.140
87063SOL     OW63027   0.688   9.410  14.138
87063SOL    HW163028   0.774   9.410  14.094
87063SOL    HW263029   0.673   9.318  14.161
87064SOL     OW63030   0.035  10.883  11.611
87064SOL    HW163031   0.063  10.974  11.609
87064SOL    HW263032   0.089  10.840  11.545
87065SOL     OW63033   3.205   3.214   5.750
87065SOL    HW163034   3.177   3.285   5.808
87065SOL    HW263035   3.296   3.197   5.775
87066SOL     OW63036   5.928   8.163  13.682
87066SOL    HW163037   5.977   8.245  13.690
87066SOL    HW263038   5.913   8.154  13.588
87067SOL     OW63039   6.748  10.649  14.254
87067SOL    HW163040   6.825  10.697  14.224
87067SOL    HW263041   6.699  10.632  14.173
87068SOL     OW63042   5.752  14.732   8.821
87068SOL    HW163043   5.729  14.678   8.896
87068SOL    HW263044   5.837  14.698   8.791
87069SOL     OW63045   6.136  14.197  13.964
87069SOL    HW163046   6.057  14.164  14.006
87069SOL    HW263047   6.132  14.164  13.874
87070SOL     OW63048   2.082   8.408   9.344
87070SOL    HW163049   2.121   8.422   9.257
87070SOL    HW263050   2.157   8.390   9.401
87071SOL     OW63051   4.736   0.738   4.863
87071SOL    HW163052   4.671   0.674   4.889
87071SOL    HW263053   4.794   0.691   4.803
87072SOL     OW63054   7.126   5.747   4.510
87072SOL    HW163055   7.047   5.693   4.515
87072SOL    HW263056   7.189   5.702   4.566
87073SOL     OW63057   2.369   4.461   7.677
87073SOL    HW163058   2.331   4.520   7.611
87073SOL    HW263059   2.422   4.400   7.626
87074SOL     OW63060   1.420   0.935   0.509
87074SOL    HW163061   1.335   0.917   0.549
87074SOL    HW263062   1.447   0.852   0.471
87075SOL     OW63063   8.446  12.019   6.352
87075SOL    HW163064   8.531  12.007   6.309
87075SOL    HW263065   8.407  12.094   6.308
87076SOL     OW63066   3.196   4.630   6.078
87076SOL    HW163067   3.248   4.622   6.158
87076SOL    HW263068   3.134   4.701   6.097
87077SOL     OW63069   6.647   0.240   0.447
87077SOL    HW163070   6.627   0.292   0.525
87077SOL    HW263071   6.739   0.215   0.458
87078SOL     OW63072  13.689   9.636   0.010
87078SOL    HW163073  13.745   9.703   0.048
87078SOL    HW263074  13.627   9.614   0.079
87079SOL     OW63075   1.337   8.081   9.579
87079SOL    HW163076   1.356   8.111   9.668
87079SOL    HW263077   1.253   8.037   9.585
87080SOL     OW63078  10.459  14.244   7.977
87080SOL    HW163079  10.511  14.190   7.918
87080SOL    HW263080  10.404  14.296   7.919
87081SOL     OW63081   8.482   8.938   0.211
87081SOL    HW163082   8.442   9.016   0.173
87081SOL    HW263083   8.571   8.936   0.175
87082SOL     OW63084   8.993  12.487   4.948
87082SOL    HW163085   9.069  12.518   4.996
87082SOL    HW263086   8.918  12.508   5.004
87083SOL     OW63087   6.460   5.118   1.006
87083SOL    HW163088   6.372   5.156   1.002
87083SOL    HW263089   6.516   5.182   0.962
87084SOL     OW63090  13.494  13.964   5.117
87084SOL    HW163091  13.487  13.920   5.202
87084SOL    HW263092  13.524  14.052   5.139
87085SOL     OW63093   5.388   9.018  13.249
87085SOL    HW163094   5.480   9.030  13.271
87085SOL    HW263095   5.343   9.092  13.291
87086SOL     OW63096   5.125  12.410   7.505
87086SOL    HW163097   5.155  12.426   7.595
87086SOL    HW263098   5.031  12.394   7.514
87087SOL     OW63099   5.610   2.525   6.411
87087SOL    HW163100   5.559   2.540   6.331
87087SOL    HW263101   5.609   2.430   6.423
87088SOL     OW63102   8.266   2.389   6.693
87088SOL    HW163103   8.284   2.381   6.600
87088SOL    HW263104   8.351   2.407   6.733
87089SOL     OW63105  10.857   3.821  12.856
87089SOL    HW163106  10.928   3.816  12.793
87089SOL    HW263107  10.782   3.780  12.812
87090SOL     OW63108   8.557   0.868   8.513
87090SOL    HW163109   8.542   0.902   8.425
87090SOL    HW263110   8.539   0.774   8.505
87091SOL     OW63111   3.426  10.264   6.504
87091SOL    HW163112   3.339  10.296   6.526
87091SOL    HW263113   3.473  10.340   6.472
87092SOL     OW63114   7.596  14.007  10.481
87092SOL    HW163115   7.628  14.073  10.543
87092SOL    HW263116   7.640  13.926  10.508
87093SOL     OW63117   3.533   3.711   7.562
87093SOL    HW163118   3.529   3.697   7.656
87093SOL    HW263119   3.476   3.786   7.546
87094SOL     OW63120   2.893  13.113   6.000
87094SOL    HW163121   2.985  13.089   5.998
87094SOL    HW263122   2.887  13.195   5.951
87095SOL     OW63123  11.596   4.206   5.821
87095SOL    HW163124  11.642   4.219   5.905
87095SOL    HW263125  11.503   4.207   5.844
87096SOL     OW63126  10.252   2.509  13.502
87096SOL    HW163127  10.305   2.433  13.525
87096SOL    HW263128  10.167   2.491  13.542
87097SOL     OW63129   0.748   3.985   8.182
87097SOL    HW163130   0.661   4.014   8.154
87097SOL    HW263131   0.795   3.969   8.101
87098SOL     OW63132   3.786   2.486  10.532
87098SOL    HW163133   3.865   2.444  10.566
87098SOL    HW263134   3.722   2.477  10.603
87099SOL     OW63135  14.844   7.700   2.362
87099SOL    HW163136   0.052   7.739   2.394
87099SOL    HW263137  14.776   7.733   2.421
87100SOL     OW63138   6.203   0.427   3.343
87100SOL    HW163139   6.194   0.439   3.249
87100SOL    HW263140   6.138   0.359   3.365
87101SOL     OW63141   5.912   6.681   8.098
87101SOL    HW163142   5.892   6.705   8.188
87101SOL    HW263143   5.971   6.750   8.067
87102SOL     OW63144  11.792   5.194   1.397
87102SOL    HW163145  11.833   5.109   1.379
87102SOL    HW263146  11.776   5.231   1.311
87103SOL     OW63147  14.778   9.749  11.855
87103SOL    HW163148  14.705   9.694  11.884
87103SOL    HW263149  14.821   9.775  11.936
87104SOL     OW63150  14.090   8.761  14.781
87104SOL    HW163151  14.003   8.733  14.811
87104SOL    HW263152  14.086   8.857  14.783
87105SOL     OW63153   4.302   9.345  14.797
87105SOL    HW163154   4.373   9.403  14.822
87105SOL    HW263155   4.344   9.260  14.786
87106SOL     OW63156  10.555  11.720  12.829
87106SOL    HW163157  10.613  11.644  12.822
87106SOL    HW263158  10.577  11.775  12.754
87107SOL     OW63159   1.238   5.615   4.652
87107SOL    HW163160   1.272   5.573   4.572
87107SOL    HW263161   1.244   5.709   4.634
87108SOL     OW63162  12.191   6.251  13.438
87108SOL    HW163163  12.104   6.259  13.476
87108SOL    HW263164  12.237   6.189  13.495
87109SOL     OW63165   1.590   4.006   5.735
87109SOL    HW163166   1.647   3.990   5.810
87109SOL    HW263167   1.511   3.955   5.753
87110SOL     OW63168  13.870   9.878   7.665
87110SOL    HW163169  13.901   9.928   7.741
87110SOL    HW263170  13.800   9.823   7.700
87111SOL     OW63171  14.340   6.251   0.688
87111SOL    HW163172  14.319   6.160   0.667
87111SOL    HW263173  14.257   6.298   0.677
87112SOL     OW63174   2.579  11.623   9.605
87112SOL    HW163175   2.621  11.573   9.535
87112SOL    HW263176   2.517  11.563   9.644
87113SOL     OW63177  11.288   4.473   6.899
87113SOL    HW163178  11.202   4.502   6.867
87113SOL    HW263179  11.338   4.554   6.910
87114SOL     OW63180  14.821   7.847   9.187
87114SOL    HW163181   0.041   7.849   9.207
87114SOL    HW263182  14.784   7.921   9.236
87115SOL     OW63183  11.822  12.798   2.394
87115SOL    HW163184  11.889  12.863   2.419
87115SOL    HW263185  11.823  12.734   2.465
87116SOL     OW63186   5.037  11.639   0.586
87116SOL    HW163187   5.006  11.625   0.675
87116SOL    HW263188   4.957  11.651   0.534
87117SOL     OW63189  11.932   6.249  13.127
87117SOL    HW163190  11.884   6.296  13.194
87117SOL    HW263191  11.875   6.250  13.050
87118SOL     OW63192   9.307   1.686   9.959
87118SOL    HW163193   9.248   1.692  10.034
87118SOL    HW263194   9.253   1.651   9.888
87119SOL     OW63195   8.183   5.137   1.153
87119SOL    HW163196   8.102   5.186   1.139
87119SOL    HW263197   8.193   5.135   1.248
87120SOL     OW63198  12.779   1.942  11.171
87120SOL    HW163199  12.802   1.871  11.231
87120SOL    HW263200  12.856   1.998  11.170
87121SOL     OW63201   8.270  11.744   9.425
87121SOL    HW163202   8.188  11.694   9.421
87121SOL    HW263203   8.337  11.682   9.396
87122SOL     OW63204  10.165  11.125   7.893
87122SOL    HW163205  10.088  11.130   7.837
87122SOL    HW263206  10.233  11.170   7.844
87123SOL     OW63207   9.346  13.013   1.989
87123SOL    HW163208   9.380  13.030   1.901
87123SOL    HW263209   9.279  12.945   1.976
87124SOL     OW63210   4.067   2.817  12.565
87124SOL    HW163211   4.005   2.760  12.610
87124SOL    HW263212   4.148   2.766  12.562
87125SOL     OW63213   1.650   2.431  11.097
87125SOL    HW163214   1.577   2.411  11.156
87125SOL    HW263215   1.621   2.508  11.047
87126SOL     OW63216   6.948  11.660   9.425
87126SOL    HW163217   6.930  11.704   9.508
87126SOL    HW263218   6.923  11.724   9.358
87127SOL     OW63219   4.009   0.165   0.002
87127SOL    HW163220   3.974   0.199   0.084
87127SOL    HW263221   4.062   0.090   0.028
87128SOL     OW63222   9.431   1.877  12.913
87128SOL    HW163223   9.467   1.892  13.000
87128SOL    HW263224   9.477   1.939  12.856
87129SOL     OW63225   0.619   7.322   3.320
87129SOL    HW163226   0.544   7.308   3.378
87129SOL    HW263227   0.581   7.333   3.233
87130SOL     OW63228  14.179   9.083   9.803
87130SOL    HW163229  14.144   9.145   9.739
87130SOL    HW263230  14.119   9.089   9.878
87131SOL     OW63231   0.069   7.982   5.624
87131SOL    HW163232   0.020   8.019   5.551
87131SOL    HW263233   0.003   7.967   5.692
87132SOL     OW63234  12.981   3.412  10.384
87132SOL    HW163235  12.979   3.362  10.303
87132SOL    HW263236  12.935   3.494  10.364
87133SOL     OW63237   6.237   1.698   9.218
87133SOL    HW163238   6.260   1.720   9.308
87133SOL    HW263239   6.253   1.778   9.168
87134SOL     OW63240   6.659  11.629  10.325
87134SOL    HW163241   6.638  11.604  10.235
87134SOL    HW263242   6.616  11.714  10.337
87135SOL     OW63243   1.737   5.129   2.698
87135SOL    HW163244   1.797   5.093   2.764
87135SOL    HW263245   1.794   5.177   2.638
87136SOL     OW63246   7.811  10.348   0.195
87136SOL    HW163247   7.779  10.268   0.153
87136SOL    HW263248   7.743  10.369   0.260
87137SOL     OW63249   3.719  12.109  13.817
87137SOL    HW163250   3.656  12.063  13.872
87137SOL    HW263251   3.795  12.050  13.813
87138SOL     OW63252   7.253   7.640   2.932
87138SOL    HW163253   7.316   7.569   2.944
87138SOL    HW263254   7.248   7.683   3.017
87139SOL     OW63255   6.796  10.348   4.927
87139SOL    HW163256   6.811  10.317   5.017
87139SOL    HW263257   6.701  10.341   4.915
87140SOL     OW63258   4.580   4.175   3.367
87140SOL    HW163259   4.628   4.204   3.289
87140SOL    HW263260   4.524   4.249   3.389
87141SOL     OW63261   1.395   8.957  11.310
87141SOL    HW163262   1.387   9.034  11.366
87141SOL    HW263263   1.373   8.988  11.222
87142SOL     OW63264   2.050  14.629   3.749
87142SOL    HW163265   2.128  14.654   3.798
87142SOL    HW263266   1.982  14.689   3.780
87143SOL     OW63267   6.373   6.226   8.814
87143SOL    HW163268   6.322   6.292   8.768
87143SOL    HW263269   6.327   6.144   8.796
87144SOL     OW63270   3.330  12.247   3.127
87144SOL    HW163271   3.360  12.164   3.089
87144SOL    HW263272   3.351  12.240   3.220
87145SOL     OW63273   2.333   8.457  11.214
87145SOL    HW163274   2.289   8.374  11.230
87145SOL    HW263275   2.309   8.480  11.124
87146SOL     OW63276   0.821  12.829   7.341
87146SOL    HW163277   0.839  12.846   7.433
87146SOL    HW263278   0.764  12.900   7.313
87147SOL     OW63279   1.246   1.242   3.947
87147SOL    HW163280   1.170   1.217   3.998
87147SOL    HW263281   1.274   1.326   3.985
87148SOL     OW63282   5.602   2.729  10.229
87148SOL    HW163283   5.512   2.760  10.230
87148SOL    HW263284   5.594   2.634  10.237
87149SOL     OW63285  10.974  14.727  13.597
87149SOL    HW163286  10.954  14.803  13.542
87149SOL    HW263287  11.046  14.756  13.652
87150SOL     OW63288   6.354  10.404  12.111
87150SOL    HW163289   6.304  10.334  12.071
87150SOL    HW263290   6.296  10.439  12.179
87151SOL     OW63291   3.716  14.081  13.837
87151SOL    HW163292   3.717  14.155  13.897
87151SOL    HW263293   3.705  14.121  13.750
87152SOL     OW63294   5.850   9.886   1.039
87152SOL    HW163295   5.762   9.867   1.006
87152SOL    HW263296   5.835   9.930   1.123
87153SOL     OW63297  13.669   9.463   1.415
87153SOL    HW163298  13.745   9.469   1.472
87153SOL    HW263299  13.648   9.370   1.414
87154SOL     OW63300   0.313   2.399  13.357
87154SOL    HW163301   0.354   2.321  13.395
87154SOL    HW263302   0.369   2.422  13.283
87155SOL     OW63303   4.486  12.485   4.413
87155SOL    HW163304   4.526  12.430   4.480
87155SOL    HW263305   4.560  12.518   4.362
87156SOL     OW63306   2.989   0.003  10.404
87156SOL    HW163307   3.081   0.023  10.383
87156SOL    HW263308   2.951   0.088  10.427
87157SOL     OW63309  13.975   1.781   6.274
87157SOL    HW163310  14.024   1.810   6.351
87157SOL    HW263311  13.989   1.686   6.272
87158SOL     OW63312   7.079   6.717   3.971
87158SOL    HW163313   7.140   6.758   4.032
87158SOL    HW263314   7.053   6.635   4.014
87159SOL     OW63315   5.264   3.925   0.812
87159SOL    HW163316   5.223   3.884   0.888
87159SOL    HW263317   5.308   3.852   0.767
87160SOL     OW63318  11.830   4.199   8.280
87160SOL    HW163319  11.890   4.128   8.304
87160SOL    HW263320  11.843   4.210   8.185
87161SOL     OW63321   0.885   3.497   8.674
87161SOL    HW163322   0.810   3.555   8.664
87161SOL    HW263323   0.856   3.414   8.636
87162SOL     OW63324   1.553  11.804  10.745
87162SOL    HW163325   1.498  11.814  10.667
87162SOL    HW263326   1.589  11.716  10.738
87163SOL     OW63327  12.759  10.860  11.164
87163SOL    HW163328  12.678  10.869  11.114
87163SOL    HW263329  12.772  10.765  11.172
87164SOL     OW63330   6.632  13.296   3.198
87164SOL    HW163331   6.665  13.257   3.117
87164SOL    HW263332   6.709  13.303   3.254
87165SOL     OW63333   2.775   9.469   0.564
87165SOL    HW163334   2.849   9.412   0.586
87165SOL    HW263335   2.698   9.413   0.575
87166SOL     OW63336   8.664   9.943   7.003
87166SOL    HW163337   8.644   9.862   6.954
87166SOL    HW263338   8.621   9.931   7.087
87167SOL     OW63339   2.505  11.001  12.402
87167SOL    HW163340   2.553  11.018  12.483
87167SOL    HW263341   2.494  11.088  12.362
87168SOL     OW63342   8.556   3.929   2.098
87168SOL    HW163343   8.525   3.969   2.017
87168SOL    HW263344   8.542   3.835   2.085
87169SOL     OW63345   1.686  12.358  11.078
87169SOL    HW163346   1.659  12.391  11.164
87169SOL    HW263347   1.644  12.417  11.016
87170SOL     OW63348  13.892  11.023   8.596
87170SOL    HW163349  13.882  11.085   8.669
87170SOL    HW263350  13.911  10.940   8.639
87171SOL     OW63351  14.542   2.295   4.003
87171SOL    HW163352  14.579   2.367   4.054
87171SOL    HW263353  14.599   2.221   4.021
87172SOL     OW63354   0.219   2.187  10.309
87172SOL    HW163355   0.284   2.140  10.361
87172SOL    HW263356   0.139   2.135  10.320
87173SOL     OW63357   5.171  12.381   0.085
87173SOL    HW163358   5.224  12.304   0.063
87173SOL    HW263359   5.082  12.357   0.060
87174SOL     OW63360   4.503   3.129  10.415
87174SOL    HW163361   4.533   3.182  10.342
87174SOL    HW263362   4.408   3.126  10.405
87175SOL     OW63363   4.758   8.580   3.587
87175SOL    HW163364   4.780   8.543   3.673
87175SOL    HW263365   4.690   8.644   3.605
87176SOL     OW63366   9.896   4.081  11.637
87176SOL    HW163367   9.986   4.099  11.667
87176SOL    HW263368   9.863   4.015  11.699
87177SOL     OW63369   3.305  14.685   6.825
87177SOL    HW163370   3.400  14.682   6.816
87177SOL    HW263371   3.283  14.604   6.870
87178SOL     OW63372   8.176  12.148   7.621
87178SOL    HW163373   8.233  12.102   7.560
87178SOL    HW263374   8.087  12.126   7.592
87179SOL     OW63375   0.418   6.578   8.794
87179SOL    HW163376   0.334   6.532   8.797
87179SOL    HW263377   0.434   6.593   8.701
87180SOL     OW63378   7.252   5.420   7.573
87180SOL    HW163379   7.236   5.411   7.667
87180SOL    HW263380   7.223   5.510   7.553
87181SOL     OW63381   9.127   5.537   3.593
87181SOL    HW163382   9.104   5.629   3.604
87181SOL    HW263383   9.152   5.530   3.501
87182SOL     OW63384  14.484  10.978   2.309
87182SOL    HW163385  14.553  11.009   2.367
87182SOL    HW263386  14.411  10.957   2.367
87183SOL     OW63387   0.989   2.654   5.604
87183SOL    HW163388   1.064   2.665   5.546
87183SOL    HW263389   0.999   2.722   5.670
87184SOL     OW63390   5.845   7.206   7.164
87184SOL    HW163391   5.838   7.285   7.110
87184SOL    HW263392   5.810   7.233   7.250
87185SOL     OW63393  13.835   1.926   3.739
87185SOL    HW163394  13.890   1.992   3.780
87185SOL    HW263395  13.896   1.857   3.711
87186SOL     OW63396   3.667  14.858   4.764
87186SOL    HW163397   3.603   0.013   4.828
87186SOL    HW263398   3.621  14.861   4.680
87187SOL     OW63399   2.722   4.348   4.008
87187SOL    HW163400   2.748   4.375   3.920
87187SOL    HW263401   2.796   4.373   4.064
87188SOL     OW63402  12.221   1.273  14.721
87188SOL    HW163403  12.136   1.316  14.719
87188SOL    HW263404  12.268   1.314  14.793
87189SOL     OW63405   2.078  12.031   7.433
87189SOL    HW163406   2.016  12.037   7.506
87189SOL    HW263407   2.023  12.033   7.355
87190SOL     OW63408  12.728   7.152   9.776
87190SOL    HW163409  12.760   7.212   9.709
87190SOL    HW263410  12.633   7.162   9.773
87191SOL     OW63411  11.503  13.714  10.274
87191SOL    HW163412  11.449  13.664  10.335
87191SOL    HW263413  11.589  13.719  10.315
87192SOL     OW63414   4.694   7.303   5.880
87192SOL    HW163415   4.745   7.350   5.814
87192SOL    HW263416   4.754   7.236   5.912
87193SOL     OW63417  11.407   1.800   5.116
87193SOL    HW163418  11.386   1.881   5.162
87193SOL    HW263419  11.393   1.820   5.023
87194SOL     OW63420   2.215   0.571   6.492
87194SOL    HW163421   2.250   0.572   6.582
87194SOL    HW263422   2.284   0.529   6.440
87195SOL     OW63423   3.601   5.685   9.472
87195SOL    HW163424   3.627   5.774   9.498
87195SOL    HW263425   3.612   5.683   9.377
87196SOL     OW63426  12.199   4.733   3.906
87196SOL    HW163427  12.158   4.687   3.980
87196SOL    HW263428  12.257   4.668   3.866
87197SOL     OW63429  11.265   2.366   4.520
87197SOL    HW163430  11.297   2.430   4.457
87197SOL    HW263431  11.265   2.283   4.473
87198SOL     OW63432   6.573   7.967   1.752
87198SOL    HW163433   6.591   7.940   1.841
87198SOL    HW263434   6.620   8.050   1.741
87199SOL     OW63435  12.324   4.284   8.298
87199SOL    HW163436  12.416   4.260   8.304
87199SOL    HW263437  12.281   4.206   8.264
87200SOL     OW63438   7.413   8.691  13.674
87200SOL    HW163439   7.421   8.774  13.722
87200SOL    HW263440   7.503   8.661  13.662
87201SOL     OW63441   8.688   3.133   4.226
87201SOL    HW163442   8.623   3.076   4.183
87201SOL    HW263443   8.656   3.141   4.316
87202SOL     OW63444   2.093   7.176  14.309
87202SOL    HW163445   2.132   7.089  14.318
87202SOL    HW263446   2.042   7.171  14.228
87203SOL     OW63447  12.907  13.931   5.469
87203SOL    HW163448  12.969  13.885   5.412
87203SOL    HW263449  12.822  13.920   5.426
87204SOL     OW63450   6.800   3.105   5.974
87204SOL    HW163451   6.787   3.025   6.025
87204SOL    HW263452   6.877   3.087   5.920
87205SOL     OW63453   0.047   5.426   7.331
87205SOL    HW163454  14.864   5.386   7.397
87205SOL    HW263455   0.114   5.472   7.380
87206SOL     OW63456   1.998   8.553   3.350
87206SOL    HW163457   2.028   8.612   3.419
87206SOL    HW263458   1.986   8.469   3.393
87207SOL     OW63459   0.558   6.641   5.160
87207SOL    HW163460   0.626   6.638   5.228
87207SOL    HW263461   0.600   6.602   5.083
87208SOL     OW63462   1.607  13.946   8.946
87208SOL    HW163463   1.600  13.963   9.039
87208SOL    HW263464   1.638  14.028   8.908
87209SOL     OW63465   9.230  10.723   9.369
87209SOL    HW163466   9.184  10.640   9.352
87209SOL    HW263467   9.260  10.751   9.282
87210SOL     OW63468   5.679  12.907   9.291
87210SOL    HW163469   5.619  12.939   9.359
87210SOL    HW263470   5.665  12.967   9.218
87211SOL     OW63471   0.490   5.200   4.225
87211SOL    HW163472   0.451   5.195   4.312
87211SOL    HW263473   0.502   5.108   4.200
87212SOL     OW63474   0.408   4.083   8.558
87212SOL    HW163475   0.345   4.099   8.487
87212SOL    HW263476   0.470   4.156   8.552
87213SOL     OW63477   2.953  11.952   7.705
87213SOL    HW163478   2.909  11.962   7.789
87213SOL    HW263479   3.046  11.956   7.726
87214SOL     OW63480  13.758   5.192  12.919
87214SOL    HW163481  13.756   5.261  12.853
87214SOL    HW263482  13.711   5.229  12.994
87215SOL     OW63483   6.305   8.463   6.828
87215SOL    HW163484   6.370   8.401   6.795
87215SOL    HW263485   6.345   8.549   6.817
87216SOL     OW63486   9.877  10.967   6.059
87216SOL    HW163487   9.967  10.990   6.080
87216SOL    HW263488   9.847  11.039   6.003
87217SOL     OW63489   2.189   3.579   9.488
87217SOL    HW163490   2.106   3.560   9.444
87217SOL    HW263491   2.205   3.502   9.544
87218SOL     OW63492  11.196   4.030   0.715
87218SOL    HW163493  11.245   4.018   0.634
87218SOL    HW263494  11.261   4.061   0.778
87219SOL     OW63495  11.555   3.087   8.673
87219SOL    HW163496  11.618   3.041   8.729
87219SOL    HW263497  11.588   3.177   8.670
87220SOL     OW63498   0.582   3.369   9.778
87220SOL    HW163499   0.630   3.452   9.780
87220SOL    HW263500   0.536   3.366   9.862
87221SOL     OW63501   4.491   0.917  11.560
87221SOL    HW163502   4.570   0.924  11.507
87221SOL    HW263503   4.479   1.005  11.597
87222SOL     OW63504  13.181   7.915  13.872
87222SOL    HW163505  13.103   7.867  13.902
87222SOL    HW263506  13.181   7.995  13.924
87223SOL     OW63507  11.088  10.760   2.254
87223SOL    HW163508  11.012  10.818   2.253
87223SOL    HW263509  11.121  10.762   2.165
87224SOL     OW63510  13.554  12.753   8.535
87224SOL    HW163511  13.464  12.759   8.505
87224SOL    HW263512  13.568  12.834   8.585
87225SOL     OW63513   2.300   2.916  11.373
87225SOL    HW163514   2.209   2.901  11.398
87225SOL    HW263515   2.309   2.874  11.287
87226SOL     OW63516   9.370   6.230  14.278
87226SOL    HW163517   9.356   6.295  14.209
87226SOL    HW263518   9.411   6.279  14.349
87227SOL     OW63519   4.647   2.117  12.504
87227SOL    HW163520   4.564   2.072  12.519
87227SOL    HW263521   4.650   2.184  12.572
87228SOL     OW63522  10.588  10.235  11.058
87228SOL    HW163523  10.509  10.287  11.041
87228SOL    HW263524  10.554  10.150  11.087
87229SOL     OW63525  14.708   4.948   6.143
87229SOL    HW163526  14.707   4.857   6.174
87229SOL    HW263527  14.617   4.965   6.120
87230SOL     OW63528   0.969   9.971   6.252
87230SOL    HW163529   0.992   9.906   6.319
87230SOL    HW263530   1.053   9.997   6.214
87231SOL     OW63531   2.745   5.944   6.840
87231SOL    HW163532   2.809   5.916   6.773
87231SOL    HW263533   2.706   6.024   6.804
87232SOL     OW63534   7.832   9.771  14.800
87232SOL    HW163535   7.832   9.827  14.722
87232SOL    HW263536   7.791   9.824  14.868
87233SOL     OW63537   0.594  14.707  12.463
87233SOL    HW163538   0.559  14.721  12.551
87233SOL    HW263539   0.525  14.659  12.417
87234SOL     OW63540   8.224   1.523   5.626
87234SOL    HW163541   8.152   1.584   5.636
87234SOL    HW263542   8.234   1.514   5.531
87235SOL     OW63543  12.199   0.022   1.241
87235SOL    HW163544  12.145  14.817   1.249
87235SOL    HW263545  12.224   0.024   1.149
87236SOL     OW63546   0.758   0.438   8.011
87236SOL    HW163547   0.795   0.350   8.021
87236SOL    HW263548   0.774   0.461   7.919
87237SOL     OW63549   4.946   8.989   9.476
87237SOL    HW163550   4.891   9.063   9.499
87237SOL    HW263551   5.000   8.973   9.554
87238SOL     OW63552  13.876   1.736   6.684
87238SOL    HW163553  13.784   1.755   6.668
87238SOL    HW263554  13.875   1.659   6.742
87239SOL     OW63555  14.118   0.615  10.649
87239SOL    HW163556  14.055   0.582  10.714
87239SOL    HW263557  14.200   0.570  10.670
87240SOL     OW63558  12.569  12.627   3.537
87240SOL    HW163559  12.518  12.694   3.582
87240SOL    HW263560  12.652  12.670   3.517
87241SOL     OW63561   5.836   7.723   9.434
87241SOL    HW163562   5.798   7.733   9.522
87241SOL    HW263563   5.770   7.674   9.385
87242SOL     OW63564   0.412   8.117   8.005
87242SOL    HW163565   0.331   8.130   8.055
87242SOL    HW263566   0.459   8.200   8.014
87243SOL     OW63567   0.449   2.164   7.274
87243SOL    HW163568   0.512   2.184   7.342
87243SOL    HW263569   0.381   2.231   7.282
87244SOL     OW63570   3.683   7.002   1.858
87244SOL    HW163571   3.658   6.940   1.790
87244SOL    HW263572   3.691   6.948   1.937
87245SOL     OW63573   7.612  12.922  13.797
87245SOL    HW163574   7.580  12.837  13.826
87245SOL    HW263575   7.687  12.941  13.854
87246SOL     OW63576   7.677   4.496   3.580
87246SOL    HW163577   7.697   4.556   3.652
87246SOL    HW263578   7.615   4.434   3.617
87247SOL     OW63579   1.580  12.448  11.312
87247SOL    HW163580   1.523  12.435  11.389
87247SOL    HW263581   1.609  12.538  11.319
87248SOL     OW63582  14.559  14.697  14.715
87248SOL    HW163583  14.529  14.754  14.644
87248SOL    HW263584  14.545  14.749  14.794
87249SOL     OW63585   7.312   4.845  12.591
87249SOL    HW163586   7.247   4.900  12.635
87249SOL    HW263587   7.266   4.763  12.572
87250SOL     OW63588   6.148   7.590  10.513
87250SOL    HW163589   6.062   7.596  10.555
87250SOL    HW263590   6.145   7.508  10.464
87251SOL     OW63591   5.757  11.368  14.781
87251SOL    HW163592   5.665  11.374  14.809
87251SOL    HW263593   5.778  11.275  14.787
87252SOL     OW63594   2.324   8.855   7.052
87252SOL    HW163595   2.385   8.864   7.126
87252SOL    HW263596   2.268   8.781   7.076
87253SOL     OW63597   9.398   5.689   3.389
87253SOL    HW163598   9.358   5.775   3.377
87253SOL    HW263599   9.329   5.627   3.365
87254SOL     OW63600   4.249   2.759   9.802
87254SOL    HW163601   4.154   2.768   9.790
87254SOL    HW263602   4.273   2.831   9.861
87255SOL     OW63603   7.497   0.297  11.045
87255SOL    HW163604   7.480   0.342  10.963
87255SOL    HW263605   7.523   0.208  11.020
87256SOL     OW63606  10.388   0.350   8.422
87256SOL    HW163607  10.313   0.349   8.362
87256SOL    HW263608  10.464   0.363   8.366
87257SOL     OW63609   2.964  10.461   8.295
87257SOL    HW163610   2.898  10.395   8.318
87257SOL    HW263611   3.048  10.417   8.311
87258SOL     OW63612  12.403   3.530  11.596
87258SOL    HW163613  12.332   3.562  11.541
87258SOL    HW263614  12.391   3.575  11.680
87259SOL     OW63615   5.376   2.410   0.158
87259SOL    HW163616   5.459   2.455   0.144
87259SOL    HW263617   5.355   2.427   0.250
87260SOL     OW63618   3.263   9.423   9.603
87260SOL    HW163619   3.243   9.505   9.559
87260SOL    HW263620   3.179   9.392   9.637
87261SOL     OW63621  11.125  11.922  10.253
87261SOL    HW163622  11.182  11.989  10.214
87261SOL    HW263623  11.172  11.894  10.331
87262SOL     OW63624  14.227  11.339   5.871
87262SOL    HW163625  14.239  11.429   5.902
87262SOL    HW263626  14.203  11.349   5.779
87263SOL     OW63627   7.193  14.404   1.419
87263SOL    HW163628   7.282  14.400   1.384
87263SOL    HW263629   7.197  14.469   1.490
87264SOL     OW63630  10.569  13.113  13.801
87264SOL    HW163631  10.657  13.084  13.778
87264SOL    HW263632  10.520  13.033  13.815
87265SOL     OW63633   9.604   6.234  10.967
87265SOL    HW163634   9.523   6.281  10.945
87265SOL    HW263635   9.639   6.283  11.042
87266SOL     OW63636  13.100  10.010  11.487
87266SOL    HW163637  13.094   9.924  11.446
87266SOL    HW263638  13.015  10.024  11.529
87267SOL     OW63639   4.552  12.539  13.039
87267SOL    HW163640   4.642  12.514  13.061
87267SOL    HW263641   4.562  12.618  12.986
87268SOL     OW63642   8.528   0.095   5.689
87268SOL    HW163643   8.437   0.082   5.662
87268SOL    HW263644   8.531   0.063   5.779
87269SOL     OW63645  14.738   6.327   9.979
87269SOL    HW163646  14.807   6.325   9.912
87269SOL    HW263647  14.695   6.411   9.966
87270SOL     OW63648   4.073   5.221   9.112
87270SOL    HW163649   4.009   5.205   9.044
87270SOL    HW263650   4.032   5.285   9.170
87271SOL     OW63651   6.715   0.118   3.625
87271SOL    HW163652   6.802   0.145   3.656
87271SOL    HW263653   6.701   0.170   3.545
87272SOL     OW63654   4.537  13.820   7.243
87272SOL    HW163655   4.444  13.807   7.263
87272SOL    HW263656   4.578  13.736   7.267
87273SOL     OW63657   8.451   1.727   4.450
87273SOL    HW163658   8.443   1.757   4.541
87273SOL    HW263659   8.531   1.770   4.418
87274SOL     OW63660   9.891  10.347   3.988
87274SOL    HW163661   9.809  10.356   4.036
87274SOL    HW263662   9.958  10.379   4.049
87275SOL     OW63663   0.467   3.097   7.944
87275SOL    HW163664   0.530   3.111   8.015
87275SOL    HW263665   0.382   3.093   7.987
87276SOL     OW63666   6.317  12.252   5.310
87276SOL    HW163667   6.255  12.316   5.344
87276SOL    HW263668   6.381  12.241   5.381
87277SOL     OW63669   6.766  13.529   6.324
87277SOL    HW163670   6.829  13.459   6.305
87277SOL    HW263671   6.684  13.497   6.287
87278SOL     OW63672   1.692   7.753  14.698
87278SOL    HW163673   1.746   7.704  14.635
87278SOL    HW263674   1.735   7.838  14.705
87279SOL     OW63675   7.576  12.615  10.121
87279SOL    HW163676   7.591  12.599  10.214
87279SOL    HW263677   7.566  12.527  10.083
87280SOL     OW63678   5.317   9.990   2.457
87280SOL    HW163679   5.411  10.004   2.441
87280SOL    HW263680   5.282  10.078   2.471
87281SOL     OW63681  14.486  14.742   2.283
87281SOL    HW163682  14.526  14.665   2.243
87281SOL    HW263683  14.502  14.813   2.220
87282SOL     OW63684  10.155   4.734   6.496
87282SOL    HW163685  10.098   4.760   6.568
87282SOL    HW263686  10.240   4.719   6.537
87283SOL     OW63687  12.012  10.790  13.178
87283SOL    HW163688  12.047  10.803  13.090
87283SOL    HW263689  12.077  10.829  13.237
87284SOL     OW63690   3.184   1.843  12.434
87284SOL    HW163691   3.258   1.865  12.489
87284SOL    HW263692   3.131   1.923  12.430
87285SOL     OW63693   9.440  13.182   7.944
87285SOL    HW163694   9.374  13.126   7.984
87285SOL    HW263695   9.503  13.121   7.904
87286SOL     OW63696   1.067  10.947   2.121
87286SOL    HW163697   1.061  10.899   2.203
87286SOL    HW263698   0.985  10.995   2.114
87287SOL     OW63699  14.867  14.713   8.463
87287SOL    HW163700  14.856  14.781   8.529
87287SOL    HW263701   0.045  14.645   8.508
87288SOL     OW63702   9.417  12.484   6.953
87288SOL    HW163703   9.507  12.472   6.924
87288SOL    HW263704   9.378  12.396   6.948
87289SOL     OW63705   8.294  10.911   6.574
87289SOL    HW163706   8.348  10.988   6.556
87289SOL    HW263707   8.272  10.918   6.667
87290SOL     OW63708   4.185  13.416  13.889
87290SOL    HW163709   4.227  13.428  13.974
87290SOL    HW263710   4.092  13.404  13.910
87291SOL     OW63711   3.101  12.056  12.384
87291SOL    HW163712   3.107  12.101  12.300
87291SOL    HW263713   3.036  12.106  12.434
87292SOL     OW63714   7.643   5.038  12.161
87292SOL    HW163715   7.640   5.123  12.117
87292SOL    HW263716   7.627   5.058  12.253
87293SOL     OW63717   5.447  11.555   5.383
87293SOL    HW163718   5.428  11.511   5.299
87293SOL    HW263719   5.390  11.511   5.446
87294SOL     OW63720   5.756  13.939   5.028
87294SOL    HW163721   5.738  13.848   5.005
87294SOL    HW263722   5.840  13.959   4.988
87295SOL     OW63723  12.185  11.125   5.174
87295SOL    HW163724  12.144  11.208   5.148
87295SOL    HW263725  12.265  11.119   5.123
87296SOL     OW63726   7.480   7.511  13.670
87296SOL    HW163727   7.535   7.451  13.620
87296SOL    HW263728   7.542   7.577  13.703
87297SOL     OW63729   0.081   5.965   7.231
87297SOL    HW163730   0.042   5.878   7.243
87297SOL    HW263731   0.029   6.023   7.287
87298SOL     OW63732   8.431  11.957   5.319
87298SOL    HW163733   8.437  11.929   5.227
87298SOL    HW263734   8.462  11.882   5.369
87299SOL     OW63735   1.066  11.683   4.106
87299SOL    HW163736   1.103  11.772   4.105
87299SOL    HW263737   1.031  11.672   4.018
87300SOL     OW63738   8.718   1.700   4.366
87300SOL    HW163739   8.764   1.657   4.294
87300SOL    HW263740   8.765   1.675   4.445
87301SOL     OW63741   2.926  14.590   9.002
87301SOL    HW163742   2.889  14.533   8.935
87301SOL    HW263743   3.014  14.555   9.017
87302SOL     OW63744   1.800   9.858  13.948
87302SOL    HW163745   1.708   9.854  13.975
87302SOL    HW263746   1.848   9.819  14.021
87303SOL     OW63747  13.013   8.972   7.813
87303SOL    HW163748  13.025   9.050   7.759
87303SOL    HW263749  13.035   9.000   7.902
87304SOL     OW63750  10.256   1.685   4.196
87304SOL    HW163751  10.177   1.683   4.251
87304SOL    HW263752  10.305   1.761   4.227
87305SOL     OW63753   4.220   5.336   2.217
87305SOL    HW163754   4.205   5.242   2.208
87305SOL    HW263755   4.315   5.346   2.216
87306SOL     OW63756   4.075   7.346   4.182
87306SOL    HW163757   4.012   7.371   4.249
87306SOL    HW263758   4.070   7.251   4.178
87307SOL     OW63759   8.393   4.530   5.130
87307SOL    HW163760   8.458   4.556   5.064
87307SOL    HW263761   8.422   4.573   5.210
87308SOL     OW63762  12.691   0.538  12.514
87308SOL    HW163763  12.639   0.613  12.486
87308SOL    HW263764  12.678   0.473  12.446
87309SOL     OW63765  13.845  10.558  14.734
87309SOL    HW163766  13.788  10.525  14.804
87309SOL    HW263767  13.801  10.637  14.703
87310SOL     OW63768  12.269  14.562  13.855
87310SOL    HW163769  12.261  14.607  13.770
87310SOL    HW263770  12.297  14.631  13.915
87311SOL     OW63771   9.128   0.455  10.203
87311SOL    HW163772   9.119   0.406  10.121
87311SOL    HW263773   9.074   0.407  10.266
87312SOL     OW63774   2.230   4.852   3.964
87312SOL    HW163775   2.204   4.799   4.039
87312SOL    HW263776   2.242   4.789   3.893
87313SOL     OW63777   3.513   1.118  13.119
87313SOL    HW163778   3.437   1.120  13.062
87313SOL    HW263779   3.586   1.146  13.063
87314SOL     OW63780   9.508   4.991   0.031
87314SOL    HW163781   9.539   4.932   0.100
87314SOL    HW263782   9.425   5.026   0.064
87315SOL     OW63783  11.274   5.417   4.929
87315SOL    HW163784  11.239   5.381   4.847
87315SOL    HW263785  11.262   5.511   4.921
87316SOL     OW63786   2.484   7.145   1.823
87316SOL    HW163787   2.399   7.131   1.865
87316SOL    HW263788   2.547   7.147   1.894
87317SOL     OW63789   9.033   6.349   7.058
87317SOL    HW163790   9.091   6.274   7.067
87317SOL    HW263791   9.092   6.422   7.036
87318SOL     OW63792  14.053  12.569  10.296
87318SOL    HW163793  13.991  12.624  10.248
87318SOL    HW263794  14.139  12.594  10.262
87319SOL     OW63795  10.218  12.584   0.590
87319SOL    HW163796  10.217  12.594   0.494
87319SOL    HW263797  10.306  12.550   0.608
87320SOL     OW63798   9.092  12.573   4.371
87320SOL    HW163799   9.125  12.585   4.460
87320SOL    HW263800   9.124  12.649   4.323
87321SOL     OW63801   2.537   3.620   8.681
87321SOL    HW163802   2.491   3.538   8.696
87321SOL    HW263803   2.587   3.635   8.761
87322SOL     OW63804  14.565   4.870   3.230
87322SOL    HW163805  14.490   4.813   3.245
87322SOL    HW263806  14.637   4.827   3.277
87323SOL     OW63807   0.621  12.278  10.676
87323SOL    HW163808   0.563  12.341  10.720
87323SOL    HW263809   0.563  12.206  10.651
87324SOL     OW63810  11.113  11.709   8.091
87324SOL    HW163811  11.072  11.748   8.168
87324SOL    HW263812  11.203  11.741   8.093
87325SOL     OW63813   5.039  14.359   9.118
87325SOL    HW163814   5.019  14.369   9.211
87325SOL    HW263815   5.084  14.440   9.094
87326SOL     OW63816   7.598   3.342   8.938
87326SOL    HW163817   7.572   3.254   8.908
87326SOL    HW263818   7.567   3.400   8.869
87327SOL     OW63819   9.291  14.187   1.036
87327SOL    HW163820   9.311  14.142   0.953
87327SOL    HW263821   9.208  14.231   1.020
87328SOL     OW63822   2.254  11.942   9.315
87328SOL    HW163823   2.307  11.879   9.364
87328SOL    HW263824   2.164  11.916   9.333
87329SOL     OW63825   9.049   7.980   3.955
87329SOL    HW163826   9.042   7.954   4.047
87329SOL    HW263827   8.985   8.050   3.945
87330SOL     OW63828   4.677   3.028   5.930
87330SOL    HW163829   4.610   2.988   5.874
87330SOL    HW263830   4.739   3.067   5.868
87331SOL     OW63831  13.974  14.386   4.292
87331SOL    HW163832  13.933  14.309   4.331
87331SOL    HW263833  14.032  14.351   4.225
87332SOL     OW63834   3.713   3.016   2.291
87332SOL    HW163835   3.688   2.951   2.356
87332SOL    HW263836   3.676   2.983   2.209
87333SOL     OW63837  11.401  10.317  13.617
87333SOL    HW163838  11.455  10.336  13.694
87333SOL    HW263839  11.430  10.231  13.588
87334SOL     OW63840   6.733  10.662   6.075
87334SOL    HW163841   6.785  10.737   6.104
87334SOL    HW263842   6.733  10.603   6.151
87335SOL     OW63843   9.413   0.800  10.608
87335SOL    HW163844   9.425   0.790  10.514
87335SOL    HW263845   9.318   0.792  10.621
87336SOL     OW63846   3.242   0.538   5.864
87336SOL    HW163847   3.212   0.623   5.830
87336SOL    HW263848   3.269   0.490   5.786
87337SOL     OW63849  10.795   4.377   5.360
87337SOL    HW163850  10.754   4.394   5.444
87337SOL    HW263851  10.729   4.402   5.295
87338SOL     OW63852   4.987   5.027   7.006
87338SOL    HW163853   5.028   5.064   6.927
87338SOL    HW263854   4.942   4.948   6.975
87339SOL     OW63855   4.890   1.058   6.241
87339SOL    HW163856   4.905   1.151   6.259
87339SOL    HW263857   4.810   1.036   6.289
87340SOL     OW63858   8.690   9.007   1.849
87340SOL    HW163859   8.781   9.034   1.861
87340SOL    HW263860   8.639   9.076   1.892
87341SOL     OW63861   1.187  13.769   7.124
87341SOL    HW163862   1.129  13.706   7.080
87341SOL    HW263863   1.140  13.852   7.119
87342SOL     OW63864   8.893   7.447  12.831
87342SOL    HW163865   8.944   7.373  12.865
87342SOL    HW263866   8.954   7.495  12.776
87343SOL     OW63867   2.159   4.898   2.511
87343SOL    HW163868   2.139   4.805   2.503
87343SOL    HW263869   2.121   4.923   2.596
87344SOL     OW63870  13.395   8.709   8.706
87344SOL    HW163871  13.348   8.647   8.649
87344SOL    HW263872  13.345   8.710   8.787
87345SOL     OW63873  13.124  14.453  10.307
87345SOL    HW163874  13.126  14.365  10.272
87345SOL    HW263875  13.079  14.444  10.391
87346SOL     OW63876   0.017   2.071   8.445
87346SOL    HW163877   0.031   1.995   8.388
87346SOL    HW263878  14.853   2.138   8.389
87347SOL     OW63879   0.941  14.688  10.616
87347SOL    HW163880   0.950  14.609  10.563
87347SOL    HW263881   1.025  14.697  10.661
87348SOL     OW63882   4.076   5.439  14.855
87348SOL    HW163883   4.137   5.372  14.827
87348SOL    HW263884   4.029   5.464  14.775
87349SOL     OW63885   8.055   3.390   3.830
87349SOL    HW163886   7.990   3.328   3.863
87349SOL    HW263887   8.097   3.424   3.908
87350SOL     OW63888   3.671  12.445   9.841
87350SOL    HW163889   3.605  12.435   9.909
87350SOL    HW263890   3.642  12.388   9.770
87351SOL     OW63891   1.186   3.783   4.039
87351SOL    HW163892   1.184   3.832   4.121
87351SOL    HW263893   1.123   3.828   3.983
87352SOL     OW63894  12.740   8.818   9.789
87352SOL    HW163895  12.646   8.801   9.787
87352SOL    HW263896  12.778   8.739   9.828
87353SOL     OW63897   4.309  10.136   6.273
87353SOL    HW163898   4.247  10.091   6.331
87353SOL    HW263899   4.281  10.112   6.185
87354SOL     OW63900   0.415   7.215   5.764
87354SOL    HW163901   0.486   7.262   5.720
87354SOL    HW263902   0.449   7.195   5.851
87355SOL     OW63903   1.966   4.742   4.554
87355SOL    HW163904   1.969   4.677   4.625
87355SOL    HW263905   2.011   4.818   4.590
87356SOL     OW63906   5.133   0.992   6.801
87356SOL    HW163907   5.229   0.991   6.809
87356SOL    HW263908   5.117   0.969   6.709
87357SOL     OW63909  12.248  11.187  13.050
87357SOL    HW163910  12.214  11.266  13.092
87357SOL    HW263911  12.270  11.129  13.123
87358SOL     OW63912   7.218   4.091   7.132
87358SOL    HW163913   7.154   4.155   7.163
87358SOL    HW263914   7.186   4.065   7.046
87359SOL     OW63915   2.813  12.235  11.944
87359SOL    HW163916   2.803  12.284  11.862
87359SOL    HW263917   2.729  12.193  11.958
87360SOL     OW63918   8.657   8.058   5.330
87360SOL    HW163919   8.742   8.037   5.291
87360SOL    HW263920   8.665   8.151   5.354
87361SOL     OW63921   6.879  11.243   1.324
87361SOL    HW163922   6.960  11.228   1.372
87361SOL    HW263923   6.904  11.237   1.232
87362SOL     OW63924   1.746  12.202   6.537
87362SOL    HW163925   1.774  12.215   6.446
87362SOL    HW263926   1.698  12.282   6.558
87363SOL     OW63927  12.621   2.759  13.705
87363SOL    HW163928  12.688   2.690  13.696
87363SOL    HW263929  12.668   2.833  13.744
87364SOL     OW63930   6.306   1.256   1.830
87364SOL    HW163931   6.266   1.334   1.791
87364SOL    HW263932   6.364   1.290   1.897
87365SOL     OW63933   0.099   3.919  10.419
87365SOL    HW163934   0.054   3.962  10.346
87365SOL    HW263935   0.029   3.872  10.465
87366SOL     OW63936   9.389   0.553   0.927
87366SOL    HW163937   9.412   0.482   0.868
87366SOL    HW263938   9.379   0.511   1.012
87367SOL     OW63939   0.027   2.195   1.466
87367SOL    HW163940   0.019   2.129   1.535
87367SOL    HW263941  14.818   2.243   1.470
87368SOL     OW63942  11.482   0.183   4.994
87368SOL    HW163943  11.493   0.270   4.955
87368SOL    HW263944  11.428   0.136   4.930
87369SOL     OW63945   8.362   3.045   0.074
87369SOL    HW163946   8.389   3.135   0.090
87369SOL    HW263947   8.414   2.993   0.135
87370SOL     OW63948   1.281   6.058  10.093
87370SOL    HW163949   1.217   6.098  10.151
87370SOL    HW263950   1.285   5.967  10.121
87371SOL     OW63951   3.210  11.750  11.464
87371SOL    HW163952   3.233  11.680  11.524
87371SOL    HW263953   3.213  11.830  11.517
87372SOL     OW63954  12.288  13.671   1.206
87372SOL    HW163955  12.363  13.715   1.165
87372SOL    HW263956  12.211  13.713   1.168
87373SOL     OW63957   0.299   5.107   9.403
87373SOL    HW163958   0.349   5.043   9.352
87373SOL    HW263959   0.343   5.110   9.488
87374SOL     OW63960   5.770  13.163   6.272
87374SOL    HW163961   5.838  13.218   6.310
87374SOL    HW263962   5.754  13.095   6.338
87375SOL     OW63963   3.800  14.809  14.023
87375SOL    HW163964   3.732  14.857  13.976
87375SOL    HW263965   3.850  14.765  13.954
87376SOL     OW63966  10.917   6.373   4.614
87376SOL    HW163967  10.941   6.357   4.523
87376SOL    HW263968  11.001   6.382   4.659
87377SOL     OW63969   5.666   2.349   7.441
87377SOL    HW163970   5.628   2.369   7.355
87377SOL    HW263971   5.729   2.420   7.456
87378SOL     OW63972   8.427   1.499   7.306
87378SOL    HW163973   8.411   1.461   7.220
87378SOL    HW263974   8.444   1.424   7.363
87379SOL     OW63975   5.036   8.653  12.882
87379SOL    HW163976   5.103   8.717  12.857
87379SOL    HW263977   5.056   8.632  12.973
87380SOL     OW63978   7.564   6.098   9.832
87380SOL    HW163979   7.557   6.031   9.900
87380SOL    HW263980   7.489   6.082   9.775
87381SOL     OW63981   6.126  11.571  14.519
87381SOL    HW163982   6.041  11.610  14.538
87381SOL    HW263983   6.152  11.527  14.599
87382SOL     OW63984   7.648   0.380   8.355
87382SOL    HW163985   7.588   0.357   8.284
87382SOL    HW263986   7.698   0.454   8.321
87383SOL     OW63987   0.777   6.021   1.449
87383SOL    HW163988   0.718   6.094   1.466
87383SOL    HW263989   0.803   5.989   1.536
87384SOL     OW63990   7.961   5.667   4.668
87384SOL    HW163991   7.974   5.578   4.634
87384SOL    HW263992   7.983   5.724   4.594
87385SOL     OW63993   1.605  11.718  10.034
87385SOL    HW163994   1.533  11.738  10.093
87385SOL    HW263995   1.597  11.782   9.963
87386SOL     OW63996   3.999   4.088   8.959
87386SOL    HW163997   3.995   4.060   9.051
87386SOL    HW263998   4.091   4.111   8.945
87387SOL     OW63999   4.345   5.647   3.467
87387SOL    HW164000   4.358   5.742   3.463
87387SOL    HW264001   4.250   5.635   3.466
87388SOL     OW64002   4.302   2.534  13.238
87388SOL    HW164003   4.330   2.486  13.160
87388SOL    HW264004   4.330   2.624  13.222
87389SOL     OW64005  10.228  13.616  11.583
87389SOL    HW164006  10.213  13.634  11.490
87389SOL    HW264007  10.152  13.655  11.627
87390SOL     OW64008   2.947   3.077  12.349
87390SOL    HW164009   2.893   3.134  12.404
87390SOL    HW264010   2.930   3.108  12.260
87391SOL     OW64011   4.402   4.507   0.573
87391SOL    HW164012   4.461   4.518   0.498
87391SOL    HW264013   4.385   4.596   0.604
87392SOL     OW64014   5.525  14.534   4.950
87392SOL    HW164015   5.537  14.581   4.868
87392SOL    HW264016   5.431  14.538   4.966
87393SOL     OW64017  10.449  10.608   5.665
87393SOL    HW164018  10.389  10.683   5.663
87393SOL    HW264019  10.392  10.532   5.682
87394SOL     OW64020   4.727   8.254   9.031
87394SOL    HW164021   4.654   8.196   9.011
87394SOL    HW264022   4.797   8.194   9.059
87395SOL     OW64023  11.771  10.103  11.626
87395SOL    HW164024  11.845  10.062  11.671
87395SOL    HW264025  11.747  10.041  11.558
87396SOL     OW64026   1.996   0.177   5.171
87396SOL    HW164027   1.916   0.126   5.159
87396SOL    HW264028   1.996   0.239   5.098
87397SOL     OW64029   9.710   0.802   5.507
87397SOL    HW164030   9.677   0.789   5.418
87397SOL    HW264031   9.637   0.841   5.554
87398SOL     OW64032   3.128   7.204   3.525
87398SOL    HW164033   3.175   7.279   3.561
87398SOL    HW264034   3.134   7.216   3.430
87399SOL     OW64035   6.530   2.885   5.437
87399SOL    HW164036   6.537   2.836   5.519
87399SOL    HW264037   6.591   2.840   5.378
87400SOL     OW64038  14.624   0.162   9.633
87400SOL    HW164039  14.661   0.158   9.545
87400SOL    HW264040  14.615   0.071   9.660
87401SOL     OW64041   4.931   2.442   6.028
87401SOL    HW164042   4.925   2.405   6.116
87401SOL    HW264043   4.924   2.366   5.970
87402SOL     OW64044   4.266   4.332  11.007
87402SOL    HW164045   4.290   4.337  11.099
87402SOL    HW264046   4.296   4.246  10.978
87403SOL     OW64047   6.662   9.997  10.855
87403SOL    HW164048   6.705   9.933  10.799
87403SOL    HW264049   6.728  10.020  10.921
87404SOL     OW64050  13.472  10.375   8.667
87404SOL    HW164051  13.454  10.295   8.715
87404SOL    HW264052  13.489  10.346   8.577
87405SOL     OW64053   2.902   9.970  13.425
87405SOL    HW164054   2.929  10.060  13.444
87405SOL    HW264055   2.848   9.944  13.500
87406SOL     OW64056   9.438   9.708  11.363
87406SOL    HW164057   9.383   9.702  11.285
87406SOL    HW264058   9.462   9.618  11.382
87407SOL     OW64059  10.691  10.573   5.055
87407SOL    HW164060  10.772  10.583   5.005
87407SOL    HW264061  10.630  10.636   5.015
87408SOL     OW64062   3.222   6.804   4.002
87408SOL    HW164063   3.140   6.829   4.044
87408SOL    HW264064   3.239   6.715   4.033
87409SOL     OW64065  13.692   6.272   1.955
87409SOL    HW164066  13.730   6.203   2.010
87409SOL    HW264067  13.615   6.302   2.004
87410SOL     OW64068  10.496   2.749   9.344
87410SOL    HW164069  10.565   2.813   9.326
87410SOL    HW264070  10.512   2.678   9.282
87411SOL     OW64071   2.645   0.160   9.398
87411SOL    HW164072   2.738   0.144   9.412
87411SOL    HW264073   2.637   0.255   9.391
87412SOL     OW64074   4.020  10.578   7.364
87412SOL    HW164075   3.989  10.573   7.454
87412SOL    HW264076   4.094  10.640   7.367
87413SOL     OW64077   0.217   4.607   6.256
87413SOL    HW164078   0.228   4.521   6.215
87413SOL    HW264079   0.274   4.665   6.205
87414SOL     OW64080   3.852   9.985   2.084
87414SOL    HW164081   3.927  10.043   2.096
87414SOL    HW264082   3.821  10.004   1.995
87415SOL     OW64083   9.263  10.032   0.221
87415SOL    HW164084   9.253  10.008   0.129
87415SOL    HW264085   9.335   9.977   0.253
87416SOL     OW64086  14.230   1.734  13.339
87416SOL    HW164087  14.169   1.664  13.317
87416SOL    HW264088  14.268   1.760  13.255
87417SOL     OW64089   8.954   7.112   4.121
87417SOL    HW164090   8.919   7.199   4.138
87417SOL    HW264091   8.893   7.074   4.057
87418SOL     OW64092   5.281   2.209  13.914
87418SOL    HW164093   5.248   2.147  13.979
87418SOL    HW264094   5.204   2.240  13.867
87419SOL     OW64095   8.671   3.278   2.798
87419SOL    HW164096   8.688   3.368   2.826
87419SOL    HW264097   8.646   3.286   2.706
87420SOL     OW64098   3.038   3.779   9.960
87420SOL    HW164099   3.033   3.857  10.016
87420SOL    HW264100   3.019   3.812   9.872
87421SOL     OW64101   6.970  14.727   2.771
87421SOL    HW164102   6.879  14.700   2.761
87421SOL    HW264103   6.995  14.761   2.685
87422SOL     OW64104  13.832  11.428   5.312
87422SOL    HW164105  13.857  11.512   5.350
87422SOL    HW264106  13.854  11.364   5.380
87423SOL     OW64107   7.128   6.934   5.086
87423SOL    HW164108   7.144   7.010   5.142
87423SOL    HW264109   7.115   6.971   4.998
87424SOL     OW64110   1.135  14.479   6.500
87424SOL    HW164111   1.051  14.522   6.488
87424SOL    HW264112   1.128  14.398   6.450
87425SOL     OW64113   0.004   7.908  12.823
87425SOL    HW164114  14.841   7.929  12.737
87425SOL    HW264115   0.059   7.984  12.844
87426SOL     OW64116   3.595   1.492   5.563
87426SOL    HW164117   3.675   1.481   5.614
87426SOL    HW264118   3.530   1.524   5.626
87427SOL     OW64119   5.839  14.261   7.089
87427SOL    HW164120   5.896  14.266   7.166
87427SOL    HW264121   5.886  14.204   7.028
87428SOL     OW64122  13.373   9.232  13.313
87428SOL    HW164123  13.294   9.202  13.358
87428SOL    HW264124  13.341   9.272  13.233
87429SOL     OW64125  11.574  14.778   4.881
87429SOL    HW164126  11.604  14.703   4.934
87429SOL    HW264127  11.644  14.791   4.817
87430SOL     OW64128   6.406  12.658   3.899
87430SOL    HW164129   6.370  12.733   3.946
87430SOL    HW264130   6.469  12.696   3.837
87431SOL     OW64131  12.795   9.355  14.433
87431SOL    HW164132  12.815   9.346  14.340
87431SOL    HW264133  12.707   9.319  14.442
87432SOL     OW64134   4.838  10.060  13.228
87432SOL    HW164135   4.867  10.148  13.208
87432SOL    HW264136   4.773  10.071  13.298
87433SOL     OW64137   2.247  11.479  13.562
87433SOL    HW164138   2.326  11.508  13.607
87433SOL    HW264139   2.266  11.389  13.535
87434SOL     OW64140   9.686  13.113   4.559
87434SOL    HW164141   9.647  13.173   4.622
87434SOL    HW264142   9.780  13.128   4.566
87435SOL     OW64143  14.359  12.809   7.565
87435SOL    HW164144  14.403  12.864   7.631
87435SOL    HW264145  14.279  12.857   7.543
87436SOL     OW64146   6.738   3.414  10.372
87436SOL    HW164147   6.677   3.488  10.378
87436SOL    HW264148   6.682   3.336  10.379
87437SOL     OW64149  10.545   4.612   3.454
87437SOL    HW164150  10.597   4.597   3.533
87437SOL    HW264151  10.462   4.566   3.471
87438SOL     OW64152   6.042   4.343   9.011
87438SOL    HW164153   6.118   4.382   8.969
87438SOL    HW264154   6.048   4.371   9.103
87439SOL     OW64155   9.117  11.704  14.025
87439SOL    HW164156   9.068  11.702  13.943
87439SOL    HW264157   9.162  11.620  14.028
87440SOL     OW64158   6.417   6.308   5.485
87440SOL    HW164159   6.505   6.324   5.518
87440SOL    HW264160   6.429   6.290   5.392
87441SOL     OW64161  10.546   5.084  12.119
87441SOL    HW164162  10.458   5.112  12.092
87441SOL    HW264163  10.598   5.091  12.039
87442SOL     OW64164   8.056   7.010  12.411
87442SOL    HW164165   8.007   7.045  12.485
87442SOL    HW264166   8.010   7.042  12.333
87443SOL     OW64167   4.395  13.460   7.001
87443SOL    HW164168   4.399  13.547   6.960
87443SOL    HW264169   4.401  13.478   7.095
87444SOL     OW64170   5.710   3.211  11.143
87444SOL    HW164171   5.679   3.279  11.083
87444SOL    HW264172   5.702   3.129  11.093
87445SOL     OW64173  11.612  12.633   9.477
87445SOL    HW164174  11.533  12.616   9.529
87445SOL    HW264175  11.581  12.682   9.402
87446SOL     OW64176   6.039  11.933   5.514
87446SOL    HW164177   6.022  12.025   5.492
87446SOL    HW264178   6.022  11.885   5.433
87447SOL     OW64179   3.450   3.889  12.055
87447SOL    HW164180   3.392   3.920  11.985
87447SOL    HW264181   3.522   3.846  12.009
87448SOL     OW64182   1.028   0.396  12.453
87448SOL    HW164183   1.024   0.320  12.511
87448SOL    HW264184   1.009   0.362  12.366
87449SOL     OW64185   8.621  10.952   7.821
87449SOL    HW164186   8.528  10.976   7.828
87449SOL    HW264187   8.669  11.034   7.833
87450SOL     OW64188   2.127   9.402  12.939
87450SOL    HW164189   2.115   9.361  13.025
87450SOL    HW264190   2.163   9.332  12.884
87451SOL     OW64191   3.628   9.015   3.303
87451SOL    HW164192   3.681   9.053   3.373
87451SOL    HW264193   3.654   9.064   3.225
87452SOL     OW64194  13.100   1.240  11.324
87452SOL    HW164195  13.172   1.177  11.317
87452SOL    HW264196  13.143   1.326  11.317
87453SOL     OW64197   5.135  11.215  11.495
87453SOL    HW164198   5.230  11.203  11.489
87453SOL    HW264199   5.124  11.304  11.529
87454SOL     OW64200  11.740  14.868  12.503
87454SOL    HW164201  11.659  14.819  12.516
87454SOL    HW264202  11.717   0.086  12.520
87455SOL     OW64203   6.708   0.506  13.606
87455SOL    HW164204   6.695   0.440  13.675
87455SOL    HW264205   6.732   0.455  13.529
87456SOL     OW64206  10.743   9.079  11.637
87456SOL    HW164207  10.829   9.042  11.616
87456SOL    HW264208  10.722   9.134  11.562
87457SOL     OW64209   5.040  10.935   4.595
87457SOL    HW164210   5.124  10.903   4.629
87457SOL    HW264211   4.975  10.877   4.635
87458SOL     OW64212  10.941  14.018  10.943
87458SOL    HW164213  11.014  13.974  10.900
87458SOL    HW264214  10.972  14.034  11.032
87459SOL     OW64215   2.839   7.957   4.382
87459SOL    HW164216   2.859   8.049   4.364
87459SOL    HW264217   2.772   7.934   4.318
87460SOL     OW64218  14.289  14.304   0.546
87460SOL    HW164219  14.352  14.232   0.550
87460SOL    HW264220  14.327  14.366   0.484
87461SOL     OW64221  14.338   0.607  10.995
87461SOL    HW164222  14.342   0.703  10.988
87461SOL    HW264223  14.254   0.590  11.036
87462SOL     OW64224   4.647  14.567  10.439
87462SOL    HW164225   4.706  14.492  10.449
87462SOL    HW264226   4.643  14.606  10.526
87463SOL     OW64227   7.636  12.374  13.221
87463SOL    HW164228   7.668  12.296  13.266
87463SOL    HW264229   7.573  12.342  13.157
87464SOL     OW64230   0.193   5.765  14.383
87464SOL    HW164231   0.131   5.832  14.355
87464SOL    HW264232   0.143   5.683  14.381
87465SOL     OW64233  12.968   7.557   5.813
87465SOL    HW164234  12.920   7.479   5.841
87465SOL    HW264235  13.034   7.523   5.752
87466SOL     OW64236   4.933   9.559   8.863
87466SOL    HW164237   5.026   9.548   8.845
87466SOL    HW264238   4.912   9.647   8.831
87467SOL     OW64239   4.044   6.303   5.948
87467SOL    HW164240   4.102   6.310   6.024
87467SOL    HW264241   3.990   6.226   5.966
87468SOL     OW64242   2.424   9.575   1.904
87468SOL    HW164243   2.466   9.517   1.841
87468SOL    HW264244   2.466   9.556   1.988
87469SOL     OW64245   0.492   6.247  13.458
87469SOL    HW164246   0.555   6.228  13.528
87469SOL    HW264247   0.532   6.317  13.407
87470SOL     OW64248   3.623   2.310   9.747
87470SOL    HW164249   3.646   2.331   9.837
87470SOL    HW264250   3.636   2.391   9.699
87471SOL     OW64251   3.730   0.719   8.805
87471SOL    HW164252   3.660   0.687   8.748
87471SOL    HW264253   3.790   0.646   8.812
87472SOL     OW64254  12.890   5.849   3.877
87472SOL    HW164255  12.847   5.831   3.961
87472SOL    HW264256  12.981   5.867   3.900
87473SOL     OW64257   2.259   5.963   7.171
87473SOL    HW164258   2.180   5.950   7.119
87473SOL    HW264259   2.232   5.946   7.261
87474SOL     OW64260   5.553   6.344   6.877
87474SOL    HW164261   5.630   6.378   6.922
87474SOL    HW264262   5.563   6.249   6.880
87475SOL     OW64263  10.241  10.217   1.261
87475SOL    HW164264  10.171  10.255   1.208
87475SOL    HW264265  10.263  10.286   1.325
87476SOL     OW64266   8.883   8.938   2.970
87476SOL    HW164267   8.971   8.947   2.934
87476SOL    HW264268   8.840   9.021   2.948
87477SOL     OW64269   6.912   7.338  13.123
87477SOL    HW164270   6.917   7.311  13.032
87477SOL    HW264271   6.850   7.277  13.163
87478SOL     OW64272  13.045  11.446   7.746
87478SOL    HW164273  12.951  11.467   7.741
87478SOL    HW264274  13.087  11.512   7.691
87479SOL     OW64275  12.811   3.628   4.147
87479SOL    HW164276  12.772   3.668   4.225
87479SOL    HW264277  12.746   3.643   4.078
87480SOL     OW64278   1.306  11.894  10.465
87480SOL    HW164279   1.261  11.812  10.448
87480SOL    HW264280   1.236  11.957  10.484
87481SOL     OW64281   9.442  10.173   2.047
87481SOL    HW164282   9.397  10.219   2.117
87481SOL    HW264283   9.529  10.154   2.082
87482SOL     OW64284   9.954  14.608  12.966
87482SOL    HW164285   9.860  14.607  12.949
87482SOL    HW264286   9.992  14.555  12.895
87483SOL     OW64287  10.539   0.809   0.575
87483SOL    HW164288  10.463   0.758   0.547
87483SOL    HW264289  10.541   0.883   0.514
87484SOL     OW64290   2.936   9.618  14.122
87484SOL    HW164291   2.903   9.667  14.046
87484SOL    HW264292   2.881   9.540  14.127
87485SOL     OW64293   0.973   1.825   7.855
87485SOL    HW164294   1.059   1.839   7.894
87485SOL    HW264295   0.988   1.826   7.761
87486SOL     OW64296  14.621  10.945  13.141
87486SOL    HW164297  14.696  10.888  13.124
87486SOL    HW264298  14.582  10.909  13.221
87487SOL     OW64299  10.775   6.140   0.866
87487SOL    HW164300  10.710   6.203   0.834
87487SOL    HW264301  10.798   6.089   0.788
87488SOL     OW64302  10.377  13.604   7.708
87488SOL    HW164303  10.295  13.638   7.745
87488SOL    HW264304  10.349  13.537   7.646
87489SOL     OW64305   6.246   0.345   8.318
87489SOL    HW164306   6.231   0.275   8.255
87489SOL    HW264307   6.176   0.335   8.382
87490SOL     OW64308  12.999   7.646   6.581
87490SOL    HW164309  12.920   7.598   6.556
87490SOL    HW264310  12.985   7.668   6.673
87491SOL     OW64311  10.894  11.616   8.861
87491SOL    HW164312  10.883  11.600   8.768
87491SOL    HW264313  10.882  11.711   8.871
87492SOL     OW64314   4.825   7.182  13.697
87492SOL    HW164315   4.796   7.219  13.613
87492SOL    HW264316   4.850   7.258  13.749
87493SOL     OW64317   6.981   0.868   6.535
87493SOL    HW164318   6.931   0.791   6.509
87493SOL    HW264319   6.920   0.919   6.589
87494SOL     OW64320   1.165   8.854   8.574
87494SOL    HW164321   1.153   8.771   8.620
87494SOL    HW264322   1.169   8.919   8.644
87495SOL     OW64323   2.956   1.259   1.350
87495SOL    HW164324   2.914   1.312   1.418
87495SOL    HW264325   2.982   1.178   1.395
87496SOL     OW64326   3.775   0.852   2.113
87496SOL    HW164327   3.805   0.826   2.200
87496SOL    HW264328   3.840   0.815   2.053
87497SOL     OW64329  10.338   9.231  10.671
87497SOL    HW164330  10.315   9.253  10.761
87497SOL    HW264331  10.324   9.312  10.621
87498SOL     OW64332  14.627   5.188   9.493
87498SOL    HW164333  14.722   5.172   9.492
87498SOL    HW264334  14.588   5.103   9.475
87499SOL     OW64335   2.768  11.227  10.990
87499SOL    HW164336   2.810  11.277  10.919
87499SOL    HW264337   2.675  11.247  10.982
87500SOL     OW64338   2.714  10.510  12.173
87500SOL    HW164339   2.673  10.436  12.129
87500SOL    HW264340   2.665  10.586  12.142
87501SOL     OW64341   3.626  10.709   4.542
87501SOL    HW164342   3.597  10.630   4.587
87501SOL    HW264343   3.642  10.772   4.611
87502SOL     OW64344   5.733   6.280   2.572
87502SOL    HW164345   5.657   6.324   2.612
87502SOL    HW264346   5.802   6.287   2.638
87503SOL     OW64347  10.427   4.189   4.962
87503SOL    HW164348  10.366   4.170   4.890
87503SOL    HW264349  10.379   4.162   5.041
87504SOL     OW64350   0.690   4.323  13.638
87504SOL    HW164351   0.686   4.391  13.571
87504SOL    HW264352   0.607   4.332  13.686
87505SOL     OW64353   2.094   2.463   4.671
87505SOL    HW164354   2.085   2.370   4.689
87505SOL    HW264355   2.052   2.476   4.586
87506SOL     OW64356  10.167   7.873   8.950
87506SOL    HW164357  10.115   7.940   8.994
87506SOL    HW264358  10.108   7.834   8.886
87507SOL     OW64359   3.248   2.133   0.596
87507SOL    HW164360   3.337   2.098   0.600
87507SOL    HW264361   3.192   2.060   0.621
87508SOL     OW64362  14.051  14.006   4.527
87508SOL    HW164363  14.069  13.932   4.469
87508SOL    HW264364  14.137  14.028   4.564
87509SOL     OW64365   1.887   5.245   0.372
87509SOL    HW164366   1.844   5.325   0.340
87509SOL    HW264367   1.855   5.235   0.462
87510SOL     OW64368   0.512   4.193   4.975
87510SOL    HW164369   0.520   4.185   4.880
87510SOL    HW264370   0.442   4.257   4.987
87511SOL     OW64371   9.318  13.348  10.132
87511SOL    HW164372   9.396  13.303  10.099
87511SOL    HW264373   9.345  13.439  10.142
87512SOL     OW64374   5.876   0.889  10.956
87512SOL    HW164375   5.784   0.908  10.977
87512SOL    HW264376   5.902   0.822  11.018
87513SOL     OW64377   8.500   5.763   4.415
87513SOL    HW164378   8.411   5.727   4.416
87513SOL    HW264379   8.488   5.856   4.433
87514SOL     OW64380   2.719   6.738   7.629
87514SOL    HW164381   2.779   6.664   7.638
87514SOL    HW264382   2.730   6.766   7.538
87515SOL     OW64383  14.447   9.398   8.290
87515SOL    HW164384  14.480   9.309   8.281
87515SOL    HW264385  14.396   9.413   8.210
87516SOL     OW64386   0.740   6.965   4.698
87516SOL    HW164387   0.817   6.982   4.751
87516SOL    HW264388   0.670   6.948   4.762
87517SOL     OW64389   1.065  14.801  12.451
87517SOL    HW164390   0.988  14.808  12.395
87517SOL    HW264391   1.138  14.826  12.395
87518SOL     OW64392  14.506   9.918   6.624
87518SOL    HW164393  14.482   9.963   6.543
87518SOL    HW264394  14.507   9.825   6.601
87519SOL     OW64395   7.119   6.925   2.364
87519SOL    HW164396   7.184   6.897   2.429
87519SOL    HW264397   7.170   6.947   2.287
87520SOL     OW64398   0.073   1.280   9.274
87520SOL    HW164399   0.121   1.201   9.297
87520SOL    HW264400   0.109   1.347   9.332
87521SOL     OW64401   9.922  14.228   9.917
87521SOL    HW164402   9.867  14.226   9.995
87521SOL    HW264403   9.895  14.308   9.870
87522SOL     OW64404   6.198  13.214   6.236
87522SOL    HW164405   6.259  13.220   6.162
87522SOL    HW264406   6.169  13.123   6.236
87523SOL     OW64407  10.653  14.554   8.120
87523SOL    HW164408  10.682  14.596   8.201
87523SOL    HW264409  10.604  14.477   8.149
87524SOL     OW64410  12.550  10.219  10.028
87524SOL    HW164411  12.507  10.304  10.037
87524SOL    HW264412  12.538  10.196   9.936
87525SOL     OW64413   6.553   1.585  12.374
87525SOL    HW164414   6.471   1.551  12.411
87525SOL    HW264415   6.525   1.661  12.322
87526SOL     OW64416  14.191   0.127  11.591
87526SOL    HW164417  14.128   0.073  11.543
87526SOL    HW264418  14.242   0.063  11.641
87527SOL     OW64419   1.097  10.853   3.070
87527SOL    HW164420   1.174  10.825   3.119
87527SOL    HW264421   1.045  10.774   3.058
87528SOL     OW64422  11.970   6.021  10.916
87528SOL    HW164423  11.907   6.085  10.947
87528SOL    HW264424  11.932   5.936  10.939
87529SOL     OW64425  11.124   4.318   5.713
87529SOL    HW164426  11.179   4.380   5.762
87529SOL    HW264427  11.040   4.362   5.705
87530SOL     OW64428   9.004   0.176   3.586
87530SOL    HW164429   8.991   0.119   3.511
87530SOL    HW264430   9.003   0.117   3.661
87531SOL     OW64431   1.124  13.612  14.853
87531SOL    HW164432   1.123  13.707  14.848
87531SOL    HW264433   1.168  13.593   0.063
87532SOL     OW64434   0.036   4.416   7.708
87532SOL    HW164435   0.130   4.411   7.689
87532SOL    HW264436   0.018   4.336   7.758
87533SOL     OW64437   7.770   6.662   0.567
87533SOL    HW164438   7.853   6.666   0.521
87533SOL    HW264439   7.746   6.569   0.565
87534SOL     OW64440   5.563   5.209  11.066
87534SOL    HW164441   5.633   5.273  11.081
87534SOL    HW264442   5.585   5.136  11.123
87535SOL     OW64443   8.480  14.735  11.141
87535SOL    HW164444   8.469  14.811  11.199
87535SOL    HW264445   8.412  14.674  11.169
87536SOL     OW64446   5.417   6.319   0.802
87536SOL    HW164447   5.367   6.237   0.811
87536SOL    HW264448   5.490   6.309   0.864
87537SOL     OW64449   8.257   4.287  12.324
87537SOL    HW164450   8.180   4.343  12.316
87537SOL    HW264451   8.322   4.343  12.366
87538SOL     OW64452  13.879  13.414   1.799
87538SOL    HW164453  13.850  13.461   1.720
87538SOL    HW264454  13.968  13.445   1.813
87539SOL     OW64455   7.788   6.403   0.539
87539SOL    HW164456   7.773   6.334   0.474
87539SOL    HW264457   7.810   6.355   0.619
87540SOL     OW64458   8.606  14.744   9.603
87540SOL    HW164459   8.537  14.787   9.653
87540SOL    HW264460   8.655  14.693   9.667
87541SOL     OW64461  12.255   5.440  12.260
87541SOL    HW164462  12.264   5.486  12.343
87541SOL    HW264463  12.286   5.351  12.278
87542SOL     OW64464  12.362   1.190   3.893
87542SOL    HW164465  12.405   1.210   3.809
87542SOL    HW264466  12.275   1.229   3.885
87543SOL     OW64467  10.852   0.105  11.831
87543SOL    HW164468  10.936   0.135  11.865
87543SOL    HW264469  10.793   0.106  11.906
87544SOL     OW64470  13.938  11.907   3.708
87544SOL    HW164471  13.915  11.841   3.642
87544SOL    HW264472  13.864  11.908   3.768
87545SOL     OW64473  14.579   1.266  11.624
87545SOL    HW164474  14.590   1.315  11.705
87545SOL    HW264475  14.509   1.203  11.643
87546SOL     OW64476   9.740  13.848  12.188
87546SOL    HW164477   9.708  13.936  12.166
87546SOL    HW264478   9.814  13.864  12.246
87547SOL     OW64479  10.094   5.750   1.806
87547SOL    HW164480  10.082   5.671   1.858
87547SOL    HW264481  10.189   5.762   1.802
87548SOL     OW64482  10.523   9.117   8.938
87548SOL    HW164483  10.545   9.047   9.000
87548SOL    HW264484  10.505   9.071   8.856
87549SOL     OW64485  13.638   1.521   4.190
87549SOL    HW164486  13.579   1.559   4.125
87549SOL    HW264487  13.714   1.578   4.191
87550SOL     OW64488   3.771  13.478   8.759
87550SOL    HW164489   3.842  13.541   8.752
87550SOL    HW264490   3.706  13.522   8.815
87551SOL     OW64491   8.639  12.342   8.178
87551SOL    HW164492   8.589  12.385   8.109
87551SOL    HW264493   8.661  12.412   8.239
87552SOL     OW64494   2.185   4.017  12.053
87552SOL    HW164495   2.270   4.057  12.036
87552SOL    HW264496   2.204   3.926  12.075
87553SOL     OW64497   8.290   0.303   6.314
87553SOL    HW164498   8.322   0.291   6.403
87553SOL    HW264499   8.368   0.290   6.259
87554SOL     OW64500   4.820  10.323   8.035
87554SOL    HW164501   4.878  10.261   8.080
87554SOL    HW264502   4.764  10.357   8.105
87555SOL     OW64503   2.024   7.849  14.325
87555SOL    HW164504   2.036   7.779  14.389
87555SOL    HW264505   2.102   7.844  14.269
87556SOL     OW64506   8.283   5.482   8.132
87556SOL    HW164507   8.334   5.491   8.051
87556SOL    HW264508   8.345   5.506   8.201
87557SOL     OW64509   4.015  14.754   3.737
87557SOL    HW164510   4.007  14.734   3.643
87557SOL    HW264511   4.006  14.849   3.743
87558SOL     OW64512  12.097   9.627   1.334
87558SOL    HW164513  12.188   9.647   1.314
87558SOL    HW264514  12.047   9.675   1.268
87559SOL     OW64515   9.890  14.131  14.208
87559SOL    HW164516   9.833  14.098  14.277
87559SOL    HW264517   9.977  14.134  14.248
87560SOL     OW64518  10.064   1.783   8.410
87560SOL    HW164519   9.998   1.772   8.342
87560SOL    HW264520  10.137   1.826   8.367
87561SOL     OW64521   1.248  11.039   3.628
87561SOL    HW164522   1.336  11.032   3.592
87561SOL    HW264523   1.257  11.101   3.701
87562SOL     OW64524   4.495   5.447   4.450
87562SOL    HW164525   4.468   5.391   4.378
87562SOL    HW264526   4.465   5.534   4.426
87563SOL     OW64527   1.527  11.785  14.380
87563SOL    HW164528   1.614  11.808  14.349
87563SOL    HW264529   1.518  11.832  14.463
87564SOL     OW64530  12.447  12.763   9.307
87564SOL    HW164531  12.484  12.701   9.370
87564SOL    HW264532  12.357  12.733   9.293
87565SOL     OW64533   6.726   1.940   3.037
87565SOL    HW164534   6.709   1.848   3.061
87565SOL    HW264535   6.710   1.943   2.943
87566SOL     OW64536  14.762  14.779  10.503
87566SOL    HW164537  14.721  14.736  10.428
87566SOL    HW264538  14.734  14.871  10.496
87567SOL     OW64539   7.432  12.410   7.578
87567SOL    HW164540   7.376  12.405   7.656
87567SOL    HW264541   7.391  12.349   7.516
87568SOL     OW64542   4.990  10.394   4.940
87568SOL    HW164543   5.047  10.340   4.994
87568SOL    HW264544   5.032  10.394   4.854
87569SOL     OW64545   0.048   8.791  13.102
87569SOL    HW164546   0.071   8.868  13.155
87569SOL    HW264547  14.827   8.779  13.117
87570SOL     OW64548   1.125   9.589  14.431
87570SOL    HW164549   1.191   9.633  14.378
87570SOL    HW264550   1.042   9.610  14.390
87571SOL     OW64551  11.486   6.642   2.585
87571SOL    HW164552  11.445   6.704   2.525
87571SOL    HW264553  11.423   6.632   2.657
87572SOL     OW64554  11.624   4.490  12.128
87572SOL    HW164555  11.717   4.495  12.152
87572SOL    HW264556  11.614   4.404  12.088
87573SOL     OW64557  14.003  10.523   1.078
87573SOL    HW164558  14.060  10.593   1.111
87573SOL    HW264559  14.012  10.452   1.142
87574SOL     OW64560   3.008   1.545   1.514
87574SOL    HW164561   2.979   1.554   1.605
87574SOL    HW264562   3.102   1.531   1.521
87575SOL     OW64563  10.816   6.105   4.032
87575SOL    HW164564  10.753   6.041   4.002
87575SOL    HW264565  10.766   6.164   4.088
87576SOL     OW64566  14.393   0.861   9.596
87576SOL    HW164567  14.302   0.875   9.621
87576SOL    HW264568  14.434   0.822   9.673
87577SOL     OW64569   2.206   4.532  14.859
87577SOL    HW164570   2.276   4.549  14.796
87577SOL    HW264571   2.135   4.591  14.832
87578SOL     OW64572   4.109   5.270   7.352
87578SOL    HW164573   4.178   5.274   7.286
87578SOL    HW264574   4.088   5.177   7.360
87579SOL     OW64575   2.677   4.703   5.347
87579SOL    HW164576   2.711   4.788   5.319
87579SOL    HW264577   2.616   4.723   5.417
87580SOL     OW64578   1.837   3.740  10.308
87580SOL    HW164579   1.838   3.794  10.388
87580SOL    HW264580   1.874   3.797  10.241
87581SOL     OW64581  13.970   7.892   4.999
87581SOL    HW164582  13.875   7.897   4.985
87581SOL    HW264583  14.000   7.824   4.938
87582SOL     OW64584   1.280   5.552  10.595
87582SOL    HW164585   1.196   5.593  10.574
87582SOL    HW264586   1.308   5.512  10.513
87583SOL     OW64587   9.808   3.087  14.282
87583SOL    HW164588   9.744   3.117  14.346
87583SOL    HW264589   9.851   3.167  14.251
87584SOL     OW64590  13.377   3.299   8.572
87584SOL    HW164591  13.386   3.277   8.480
87584SOL    HW264592  13.383   3.216   8.618
87585SOL     OW64593  13.570  13.655   5.571
87585SOL    HW164594  13.579  13.563   5.549
87585SOL    HW264595  13.649  13.696   5.538
87586SOL     OW64596   2.260   5.836   6.502
87586SOL    HW164597   2.212   5.898   6.448
87586SOL    HW264598   2.288   5.767   6.441
87587SOL     OW64599  10.525   6.448   2.034
87587SOL    HW164600  10.438   6.488   2.039
87587SOL    HW264601  10.575   6.505   1.976
87588SOL     OW64602  12.979   5.038   7.945
87588SOL    HW164603  12.973   5.113   7.886
87588SOL    HW264604  12.895   4.993   7.935
87589SOL     OW64605  14.288  10.647   1.531
87589SOL    HW164606  14.316  10.636   1.440
87589SOL    HW264607  14.360  10.695   1.572
87590SOL     OW64608  14.756  11.898  13.987
87590SOL    HW164609  14.762  11.819  13.933
87590SOL    HW264610  14.800  11.965  13.936
87591SOL     OW64611   1.635   3.441  12.557
87591SOL    HW164612   1.703   3.506  12.541
87591SOL    HW264613   1.562   3.491  12.595
87592SOL     OW64614   0.862   6.963  14.742
87592SOL    HW164615   0.802   7.016  14.796
87592SOL    HW264616   0.808   6.890  14.712
87593SOL     OW64617   9.799   3.148   4.245
87593SOL    HW164618   9.818   3.187   4.160
87593SOL    HW264619   9.709   3.174   4.264
87594SOL     OW64620   1.314  12.582   9.601
87594SOL    HW164621   1.372  12.595   9.526
87594SOL    HW264622   1.371  12.547   9.669
87595SOL     OW64623  10.011   8.162  10.410
87595SOL    HW164624   9.938   8.159  10.472
87595SOL    HW264625   9.989   8.235  10.351
87596SOL     OW64626   8.997  14.705   7.802
87596SOL    HW164627   9.081  14.745   7.778
87596SOL    HW264628   8.992  14.715   7.897
87597SOL     OW64629  14.258  11.946   3.568
87597SOL    HW164630  14.240  12.039   3.554
87597SOL    HW264631  14.196  11.920   3.636
87598SOL     OW64632  11.814   7.065  13.774
87598SOL    HW164633  11.819   6.970  13.785
87598SOL    HW264634  11.783   7.097  13.858
87599SOL     OW64635   6.740   0.119  10.043
87599SOL    HW164636   6.755   0.143  10.134
87599SOL    HW264637   6.819   0.072  10.017
87600SOL     OW64638  10.513  11.500   3.809
87600SOL    HW164639  10.604  11.527   3.796
87600SOL    HW264640  10.512  11.460   3.896
87601SOL     OW64641   5.080   1.201  11.157
87601SOL    HW164642   5.175   1.184  11.159
87601SOL    HW264643   5.043   1.133  11.213
87602SOL     OW64644   6.298   3.559   5.577
87602SOL    HW164645   6.376   3.509   5.555
87602SOL    HW264646   6.318   3.649   5.551
87603SOL     OW64647   4.864   7.808   1.504
87603SOL    HW164648   4.882   7.875   1.570
87603SOL    HW264649   4.940   7.809   1.447
87604SOL     OW64650   1.620  12.734   6.621
87604SOL    HW164651   1.692  12.760   6.678
87604SOL    HW264652   1.649  12.756   6.533
87605SOL     OW64653   4.414   2.565   9.939
87605SOL    HW164654   4.337   2.615   9.911
87605SOL    HW264655   4.378   2.481   9.969
87606SOL     OW64656   4.424  14.691   6.250
87606SOL    HW164657   4.406  14.713   6.158
87606SOL    HW264658   4.438  14.597   6.250
87607SOL     OW64659  11.476   8.313  13.087
87607SOL    HW164660  11.519   8.338  13.005
87607SOL    HW264661  11.530   8.353  13.156
87608SOL     OW64662   7.255   2.158   1.478
87608SOL    HW164663   7.198   2.089   1.511
87608SOL    HW264664   7.231   2.235   1.529
87609SOL     OW64665  14.619   7.271   2.498
87609SOL    HW164666  14.534   7.311   2.479
87609SOL    HW264667  14.647   7.314   2.579
87610SOL     OW64668  10.245  14.182  10.146
87610SOL    HW164669  10.224  14.159  10.055
87610SOL    HW264670  10.341  14.189  10.147
87611SOL     OW64671  14.219   4.926   9.888
87611SOL    HW164672  14.162   4.879   9.826
87611SOL    HW264673  14.304   4.882   9.880
87612SOL     OW64674   9.920   4.006   8.462
87612SOL    HW164675   9.994   3.970   8.511
87612SOL    HW264676   9.895   3.935   8.402
87613SOL     OW64677  13.071   3.633  10.178
87613SOL    HW164678  13.143   3.660  10.120
87613SOL    HW264679  13.109   3.635  10.266
87614SOL     OW64680   3.481  12.557  11.029
87614SOL    HW164681   3.525  12.637  11.057
87614SOL    HW264682   3.536  12.486  11.063
87615SOL     OW64683   3.587   7.017  14.487
87615SOL    HW164684   3.564   6.929  14.516
87615SOL    HW264685   3.659   7.004  14.426
87616SOL     OW64686   1.095   2.662   5.245
87616SOL    HW164687   1.132   2.658   5.333
87616SOL    HW264688   1.165   2.699   5.192
87617SOL     OW64689  11.129  13.418   4.004
87617SOL    HW164690  11.195  13.352   4.024
87617SOL    HW264691  11.067  13.375   3.945
87618SOL     OW64692   6.746  13.439   7.870
87618SOL    HW164693   6.697  13.374   7.920
87618SOL    HW264694   6.752  13.403   7.782
87619SOL     OW64695   3.734   3.893  12.557
87619SOL    HW164696   3.775   3.975  12.530
87619SOL    HW264697   3.680   3.867  12.482
87620SOL     OW64698  11.039   0.444   8.462
87620SOL    HW164699  10.959   0.434   8.513
87620SOL    HW264700  11.101   0.485   8.522
87621SOL     OW64701  14.496  11.143  11.508
87621SOL    HW164702  14.402  11.140  11.491
87621SOL    HW264703  14.521  11.051  11.518
87622SOL     OW64704  14.230  11.636   0.047
87622SOL    HW164705  14.224  11.660  14.828
87622SOL    HW264706  14.289  11.701   0.085
87623SOL     OW64707   7.786   8.386   2.593
87623SOL    HW164708   7.872   8.345   2.598
87623SOL    HW264709   7.759   8.374   2.502
87624SOL     OW64710  10.868  14.687   5.576
87624SOL    HW164711  10.888  14.775   5.545
87624SOL    HW264712  10.795  14.658   5.521
87625SOL     OW64713   6.555  12.863   2.823
87625SOL    HW164714   6.502  12.915   2.883
87625SOL    HW264715   6.606  12.927   2.774
87626SOL     OW64716   9.757  11.194   5.993
87626SOL    HW164717   9.664  11.179   5.976
87626SOL    HW264718   9.779  11.272   5.941
87627SOL     OW64719   0.411   3.606   0.701
87627SOL    HW164720   0.384   3.624   0.792
87627SOL    HW264721   0.337   3.636   0.648
87628SOL     OW64722   2.419   5.591   8.249
87628SOL    HW164723   2.361   5.610   8.175
87628SOL    HW264724   2.457   5.506   8.229
87629SOL     OW64725   6.858   6.683  13.913
87629SOL    HW164726   6.788   6.736  13.953
87629SOL    HW264727   6.836   6.681  13.820
87630SOL     OW64728  10.065   4.531  13.629
87630SOL    HW164729  10.158   4.553  13.625
87630SOL    HW264730  10.021   4.600  13.578
87631SOL     OW64731   1.530  13.803   8.087
87631SOL    HW164732   1.592  13.839   8.023
87631SOL    HW264733   1.475  13.745   8.035
87632SOL     OW64734   9.534   6.567  13.831
87632SOL    HW164735   9.478   6.644  13.820
87632SOL    HW264736   9.592   6.569  13.755
87633SOL     OW64737   4.548  11.611  14.010
87633SOL    HW164738   4.510  11.654  13.934
87633SOL    HW264739   4.495  11.641  14.084
87634SOL     OW64740   0.459   6.936  14.813
87634SOL    HW164741   0.372   6.897  14.815
87634SOL    HW264742   0.449   7.021  14.855
87635SOL     OW64743  14.311   1.355   3.292
87635SOL    HW164744  14.316   1.287   3.359
87635SOL    HW264745  14.260   1.425   3.332
87636SOL     OW64746   5.684  13.851   7.168
87636SOL    HW164747   5.634  13.863   7.249
87636SOL    HW264748   5.751  13.786   7.190
87637SOL     OW64749   3.309   2.523  12.083
87637SOL    HW164750   3.258   2.525  12.002
87637SOL    HW264751   3.243   2.520  12.152
87638SOL     OW64752   0.390   5.769  14.195
87638SOL    HW164753   0.323   5.757  14.263
87638SOL    HW264754   0.473   5.759  14.242
87639SOL     OW64755   9.617   2.936  11.330
87639SOL    HW164756   9.589   3.011  11.382
87639SOL    HW264757   9.630   2.866  11.393
87640SOL     OW64758   0.229   0.850   0.258
87640SOL    HW164759   0.271   0.886   0.336
87640SOL    HW264760   0.246   0.756   0.262
87641SOL     OW64761   5.463   7.258   1.501
87641SOL    HW164762   5.542   7.232   1.549
87641SOL    HW264763   5.429   7.176   1.463
87642SOL     OW64764   5.733  10.270  14.751
87642SOL    HW164765   5.769  10.256  14.839
87642SOL    HW264766   5.639  10.282  14.766
87643SOL     OW64767   6.330   5.810   1.623
87643SOL    HW164768   6.305   5.869   1.695
87643SOL    HW264769   6.422   5.790   1.639
87644SOL     OW64770  11.955   8.335   1.455
87644SOL    HW164771  12.002   8.252   1.444
87644SOL    HW264772  12.025   8.400   1.462
87645SOL     OW64773  12.321   4.529   6.971
87645SOL    HW164774  12.342   4.599   6.910
87645SOL    HW264775  12.405   4.503   7.009
87646SOL     OW64776   2.779  11.377  14.503
87646SOL    HW164777   2.722  11.311  14.462
87646SOL    HW264778   2.868  11.345  14.487
87647SOL     OW64779   3.365   5.067   5.122
87647SOL    HW164780   3.317   4.984   5.125
87647SOL    HW264781   3.394   5.074   5.031
87648SOL     OW64782  13.891  12.856  12.794
87648SOL    HW164783  13.888  12.812  12.709
87648SOL    HW264784  13.849  12.940  12.780
87649SOL     OW64785  12.546   6.871   4.932
87649SOL    HW164786  12.491   6.877   4.854
87649SOL    HW264787  12.595   6.953   4.934
87650SOL     OW64788   4.238  10.961  10.198
87650SOL    HW164789   4.252  10.867  10.209
87650SOL    HW264790   4.156  10.979  10.245
87651SOL     OW64791   5.924  13.647   7.770
87651SOL    HW164792   5.905  13.565   7.815
87651SOL    HW264793   5.986  13.692   7.827
87652SOL     OW64794   5.136   6.224   8.960
87652SOL    HW164795   5.055   6.175   8.950
87652SOL    HW264796   5.119   6.287   9.030
87653SOL     OW64797   2.875   2.350   7.092
87653SOL    HW164798   2.941   2.419   7.086
87653SOL    HW264799   2.901   2.300   7.170
87654SOL     OW64800   6.949  14.534   6.378
87654SOL    HW164801   6.893  14.457   6.395
87654SOL    HW264802   6.889  14.608   6.385
87655SOL     OW64803   0.143   5.495  11.102
87655SOL    HW164804   0.222   5.441  11.097
87655SOL    HW264805   0.168   5.567  11.159
87656SOL     OW64806  13.864  12.653   7.371
87656SOL    HW164807  13.785  12.661   7.317
87656SOL    HW264808  13.936  12.655   7.308
87657SOL     OW64809  12.827   9.891   8.836
87657SOL    HW164810  12.810   9.800   8.811
87657SOL    HW264811  12.741   9.932   8.834
87658SOL     OW64812   3.697   8.070   2.966
87658SOL    HW164813   3.692   8.005   3.035
87658SOL    HW264814   3.699   8.020   2.885
87659SOL     OW64815   3.929  11.774   8.172
87659SOL    HW164816   3.954  11.843   8.233
87659SOL    HW264817   3.869  11.816   8.110
87660SOL     OW64818   6.530   1.835  14.617
87660SOL    HW164819   6.555   1.756  14.665
87660SOL    HW264820   6.471   1.882  14.676
87661SOL     OW64821   9.530   6.998  14.383
87661SOL    HW164822   9.499   6.912  14.356
87661SOL    HW264823   9.625   6.992  14.379
87662SOL     OW64824  10.664   5.304   6.858
87662SOL    HW164825  10.569   5.295   6.863
87662SOL    HW264826  10.695   5.216   6.834
87663SOL     OW64827   8.347   6.875   3.147
87663SOL    HW164828   8.424   6.923   3.175
87663SOL    HW264829   8.372   6.835   3.064
87664SOL     OW64830   4.692  10.296   3.769
87664SOL    HW164831   4.747  10.236   3.718
87664SOL    HW264832   4.603  10.267   3.752
87665SOL     OW64833   7.908   2.790   4.112
87665SOL    HW164834   7.827   2.755   4.149
87665SOL    HW264835   7.976   2.763   4.174
87666SOL     OW64836  10.904   0.647  10.835
87666SOL    HW164837  10.989   0.605  10.844
87666SOL    HW264838  10.841   0.580  10.860
87667SOL     OW64839   8.578  11.720   6.218
87667SOL    HW164840   8.647  11.785   6.203
87667SOL    HW264841   8.625  11.639   6.238
87668SOL     OW64842   4.734  14.170   8.790
87668SOL    HW164843   4.789  14.248   8.785
87668SOL    HW264844   4.706  14.155   8.699
87669SOL     OW64845  11.872  12.931  10.054
87669SOL    HW164846  11.897  12.966  10.139
87669SOL    HW264847  11.923  12.982   9.991
87670SOL     OW64848   7.264  13.066   3.773
87670SOL    HW164849   7.250  12.981   3.733
87670SOL    HW264850   7.283  13.125   3.700
87671SOL     OW64851  13.402  11.402   0.964
87671SOL    HW164852  13.479  11.438   1.010
87671SOL    HW264853  13.422  11.415   0.871
87672SOL     OW64854  12.826   8.936   0.086
87672SOL    HW164855  12.847   8.875   0.016
87672SOL    HW264856  12.832   8.884   0.166
87673SOL     OW64857  10.019  13.637  11.361
87673SOL    HW164858  10.005  13.721  11.317
87673SOL    HW264859   9.948  13.632  11.425
87674SOL     OW64860  12.368  11.985   0.685
87674SOL    HW164861  12.454  12.019   0.664
87674SOL    HW264862  12.311  12.020   0.617
87675SOL     OW64863   8.194   8.662   1.273
87675SOL    HW164864   8.184   8.633   1.364
87675SOL    HW264865   8.286   8.646   1.253
87676SOL     OW64866   6.257   1.870  14.793
87676SOL    HW164867   6.308   1.865   0.001
87676SOL    HW264868   6.203   1.791  14.795
87677SOL     OW64869   3.646  10.659  10.070
87677SOL    HW164870   3.617  10.678   9.981
87677SOL    HW264871   3.742  10.662  10.065
87678SOL     OW64872   4.915   8.326   2.855
87678SOL    HW164873   4.949   8.308   2.768
87678SOL    HW264874   4.825   8.295   2.853
87679SOL     OW64875   5.013  14.362   5.791
87679SOL    HW164876   4.965  14.443   5.807
87679SOL    HW264877   4.950  14.303   5.751
87680SOL     OW64878  14.223  12.692   1.878
87680SOL    HW164879  14.284  12.627   1.914
87680SOL    HW264880  14.184  12.734   1.955
87681SOL     OW64881  11.227  14.742  13.240
87681SOL    HW164882  11.137  14.757  13.213
87681SOL    HW264883  11.279  14.807  13.193
87682SOL     OW64884  12.276  12.567   2.465
87682SOL    HW164885  12.193  12.559   2.419
87682SOL    HW264886  12.258  12.533   2.552
87683SOL     OW64887   6.289   4.261   0.889
87683SOL    HW164888   6.273   4.167   0.887
87683SOL    HW264889   6.211   4.300   0.851
87684SOL     OW64890   4.939   3.270   7.946
87684SOL    HW164891   5.013   3.210   7.936
87684SOL    HW264892   4.921   3.270   8.040
87685SOL     OW64893   2.294  10.851   6.080
87685SOL    HW164894   2.302  10.756   6.079
87685SOL    HW264895   2.266  10.874   5.992
87686SOL     OW64896   4.610  12.059   8.704
87686SOL    HW164897   4.532  12.035   8.654
87686SOL    HW264898   4.579  12.124   8.767
87687SOL     OW64899  10.917   3.800   5.863
87687SOL    HW164900  10.971   3.877   5.848
87687SOL    HW264901  10.942   3.739   5.794
87688SOL     OW64902   5.964   9.007  12.887
87688SOL    HW164903   6.040   8.949  12.880
87688SOL    HW264904   5.888   8.949  12.882
87689SOL     OW64905   1.450   6.654   8.645
87689SOL    HW164906   1.385   6.586   8.627
87689SOL    HW264907   1.533   6.606   8.655
87690SOL     OW64908   0.295   4.131   0.019
87690SOL    HW164909   0.360   4.201   0.013
87690SOL    HW264910   0.242   4.142  14.813
87691SOL     OW64911   6.202   9.715   3.685
87691SOL    HW164912   6.108   9.705   3.670
87691SOL    HW264913   6.214   9.694   3.777
87692SOL     OW64914  11.483   4.566  12.913
87692SOL    HW164915  11.396   4.573  12.874
87692SOL    HW264916  11.468   4.523  12.998
87693SOL     OW64917   5.012   2.142   4.994
87693SOL    HW164918   4.941   2.086   5.025
87693SOL    HW264919   5.015   2.126   4.899
87694SOL     OW64920  11.564  14.267   7.795
87694SOL    HW164921  11.494  14.202   7.786
87694SOL    HW264922  11.538  14.321   7.870
87695SOL     OW64923   7.649  13.333   4.994
87695SOL    HW164924   7.571  13.292   4.958
87695SOL    HW264925   7.629  13.348   5.086
87696SOL     OW64926  10.878   2.261   3.631
87696SOL    HW164927  10.944   2.313   3.677
87696SOL    HW264928  10.822   2.326   3.589
87697SOL     OW64929  11.143   7.964  14.020
87697SOL    HW164930  11.227   7.933  13.985
87697SOL    HW264931  11.087   7.887  14.018
87698SOL     OW64932  12.815   4.805  11.067
87698SOL    HW164933  12.771   4.857  11.000
87698SOL    HW264934  12.870   4.869  11.113
87699SOL     OW64935   1.659   0.524  12.915
87699SOL    HW164936   1.674   0.441  12.961
87699SOL    HW264937   1.723   0.523  12.843
87700SOL     OW64938   8.504   9.272  14.019
87700SOL    HW164939   8.595   9.298  14.003
87700SOL    HW264940   8.451   9.340  13.978
87701SOL     OW64941  13.843   1.055  11.778
87701SOL    HW164942  13.879   1.139  11.749
87701SOL    HW264943  13.866   1.049  11.871
87702SOL     OW64944   4.867   9.182   5.669
87702SOL    HW164945   4.856   9.160   5.577
87702SOL    HW264946   4.796   9.244   5.688
87703SOL     OW64947  14.040   2.773   9.165
87703SOL    HW164948  14.120   2.721   9.162
87703SOL    HW264949  14.056   2.845   9.103
87704SOL     OW64950  12.453  10.436   4.132
87704SOL    HW164951  12.437  10.368   4.067
87704SOL    HW264952  12.421  10.399   4.214
87705SOL     OW64953   6.454  10.718   4.627
87705SOL    HW164954   6.506  10.729   4.707
87705SOL    HW264955   6.496  10.777   4.564
87706SOL     OW64956   6.919  12.150  10.583
87706SOL    HW164957   6.955  12.092  10.650
87706SOL    HW264958   6.940  12.108  10.500
87707SOL     OW64959   9.302   9.894   8.894
87707SOL    HW164960   9.361   9.910   8.820
87707SOL    HW264961   9.252   9.817   8.868
87708SOL     OW64962   2.787   7.183   0.098
87708SOL    HW164963   2.709   7.171   0.152
87708SOL    HW264964   2.808   7.276   0.106
87709SOL     OW64965   6.317   9.721  12.544
87709SOL    HW164966   6.392   9.706  12.601
87709SOL    HW264967   6.282   9.805  12.572
87710SOL     OW64968  12.543  12.808   1.332
87710SOL    HW164969  12.561  12.714   1.337
87710SOL    HW264970  12.468  12.815   1.272
87711SOL     OW64971   9.139   3.623  14.092
87711SOL    HW164972   9.069   3.614  14.027
87711SOL    HW264973   9.170   3.713  14.082
87712SOL     OW64974  14.842  14.794  13.501
87712SOL    HW164975  14.856  14.706  13.536
87712SOL    HW264976   0.024  14.851  13.554
87713SOL     OW64977   2.829   7.781   0.995
87713SOL    HW164978   2.830   7.710   1.059
87713SOL    HW264979   2.759   7.838   1.024
87714SOL     OW64980   6.228   4.006  12.709
87714SOL    HW164981   6.211   4.100  12.703
87714SOL    HW264982   6.285   3.997  12.786
87715SOL     OW64983  14.681   1.446  14.187
87715SOL    HW164984  14.750   1.488  14.238
87715SOL    HW264985  14.704   1.353  14.187
87716SOL     OW64986  11.836  10.394  13.993
87716SOL    HW164987  11.876  10.347  13.920
87716SOL    HW264988  11.896  10.379  14.067
87717SOL     OW64989   2.083   0.250   0.491
87717SOL    HW164990   2.000   0.288   0.462
87717SOL    HW264991   2.147   0.320   0.479
87718SOL     OW64992  13.205   3.975  10.606
87718SOL    HW164993  13.251   3.924  10.540
87718SOL    HW264994  13.159   4.043  10.557
87719SOL     OW64995  10.179  12.014   0.589
87719SOL    HW164996  10.085  12.017   0.611
87719SOL    HW264997  10.184  12.043   0.498
87720SOL     OW64998  11.398   2.151   0.960
87720SOL    HW164999  11.331   2.097   1.001
87720SOL    HW265000  11.426   2.100   0.884
87721SOL     OW65001   4.256  12.190   5.043
87721SOL    HW165002   4.274  12.105   5.084
87721SOL    HW265003   4.272  12.254   5.113
87722SOL     OW65004  12.259  11.044  10.514
87722SOL    HW165005  12.189  11.109  10.516
87722SOL    HW265006  12.268  11.022  10.421
87723SOL     OW65007   8.013  12.855  11.615
87723SOL    HW165008   8.028  12.938  11.571
87723SOL    HW265009   8.090  12.802  11.595
87724SOL     OW65010   0.153   9.806   2.782
87724SOL    HW165011   0.247   9.826   2.783
87724SOL    HW265012   0.129   9.806   2.690
87725SOL     OW65013   8.160   3.900  14.692
87725SOL    HW165014   8.184   3.807  14.690
87725SOL    HW265015   8.066   3.900  14.712
87726SOL     OW65016  12.829  13.754   7.312
87726SOL    HW165017  12.746  13.732   7.354
87726SOL    HW265018  12.845  13.682   7.251
87727SOL     OW65019   9.906   8.550   7.524
87727SOL    HW165020   9.825   8.499   7.530
87727SOL    HW265021   9.905   8.586   7.435
87728SOL     OW65022   6.972   0.951   9.567
87728SOL    HW165023   7.040   0.993   9.515
87728SOL    HW265024   6.904   0.928   9.503
87729SOL     OW65025   9.881   5.666   5.888
87729SOL    HW165026   9.957   5.700   5.935
87729SOL    HW265027   9.815   5.735   5.895
87730SOL     OW65028  11.594  11.667   6.155
87730SOL    HW165029  11.613  11.617   6.235
87730SOL    HW265030  11.596  11.759   6.183
87731SOL     OW65031  12.209   9.048  12.592
87731SOL    HW165032  12.150   9.076  12.522
87731SOL    HW265033  12.169   8.968  12.626
87732SOL     OW65034  11.769  13.460   5.982
87732SOL    HW165035  11.783  13.441   6.074
87732SOL    HW265036  11.783  13.554   5.974
87733SOL     OW65037   0.257   9.337   6.446
87733SOL    HW165038   0.251   9.367   6.537
87733SOL    HW265039   0.350   9.320   6.432
87734SOL     OW65040   0.926  10.866  13.388
87734SOL    HW165041   0.978  10.919  13.327
87734SOL    HW265042   0.925  10.917  13.469
87735SOL     OW65043   7.752  12.948  14.824
87735SOL    HW165044   7.834  12.978  14.863
87735SOL    HW265045   7.737  13.007  14.751
87736SOL     OW65046   9.938   1.584   3.301
87736SOL    HW165047   9.922   1.660   3.245
87736SOL    HW265048   9.888   1.513   3.262
87737SOL     OW65049   0.382   0.912  11.754
87737SOL    HW165050   0.346   0.895  11.667
87737SOL    HW265051   0.315   0.964  11.798
87738SOL     OW65052   7.300   6.784   8.362
87738SOL    HW165053   7.308   6.718   8.431
87738SOL    HW265054   7.289   6.866   8.409
87739SOL     OW65055   9.040   8.090   4.262
87739SOL    HW165056   9.005   8.179   4.254
87739SOL    HW265057   9.126   8.093   4.219
87740SOL     OW65058  13.116  14.164   3.450
87740SOL    HW165059  13.175  14.220   3.400
87740SOL    HW265060  13.112  14.205   3.536
87741SOL     OW65061   0.418   7.556   9.286
87741SOL    HW165062   0.356   7.483   9.280
87741SOL    HW265063   0.461   7.544   9.371
87742SOL     OW65064  12.376   4.507   8.883
87742SOL    HW165065  12.370   4.470   8.971
87742SOL    HW265066  12.286   4.508   8.851
87743SOL     OW65067  10.462  11.092   9.277
87743SOL    HW165068  10.526  11.023   9.290
87743SOL    HW265069  10.422  11.073   9.193
87744SOL     OW65070  10.559   5.371   1.294
87744SOL    HW165071  10.612   5.298   1.263
87744SOL    HW265072  10.485   5.329   1.338
87745SOL     OW65073   9.083  11.491  14.871
87745SOL    HW165074   9.110  11.562  14.813
87745SOL    HW265075   9.105  11.523   0.086
87746SOL     OW65076  13.637   3.891   4.443
87746SOL    HW165077  13.579   3.837   4.389
87746SOL    HW265078  13.691   3.939   4.381
87747SOL     OW65079   4.061  12.797  12.529
87747SOL    HW165080   3.984  12.740  12.534
87747SOL    HW265081   4.025  12.884  12.511
87748SOL     OW65082   8.884   0.777   4.116
87748SOL    HW165083   8.863   0.871   4.113
87748SOL    HW265084   8.890   0.757   4.209
87749SOL     OW65085   0.797   9.800   0.163
87749SOL    HW165086   0.882   9.776   0.126
87749SOL    HW265087   0.752   9.717   0.174
87750SOL     OW65088   0.618   3.496  13.173
87750SOL    HW165089   0.678   3.553  13.124
87750SOL    HW265090   0.674   3.427  13.209
87751SOL     OW65091   5.341   0.431  12.747
87751SOL    HW165092   5.337   0.523  12.770
87751SOL    HW265093   5.271   0.390  12.799
87752SOL     OW65094   3.590  12.210  12.847
87752SOL    HW165095   3.553  12.242  12.930
87752SOL    HW265096   3.684  12.202  12.864
87753SOL     OW65097   2.559  12.194   6.870
87753SOL    HW165098   2.616  12.270   6.864
87753SOL    HW265099   2.535  12.187   6.962
87754SOL     OW65100   0.453   9.822   5.888
87754SOL    HW165101   0.519   9.758   5.862
87754SOL    HW265102   0.497   9.907   5.881
87755SOL     OW65103  12.221   4.450  13.592
87755SOL    HW165104  12.232   4.377  13.653
87755SOL    HW265105  12.216   4.408  13.506
87756SOL     OW65106  13.860   7.386   2.093
87756SOL    HW165107  13.799   7.329   2.047
87756SOL    HW265108  13.832   7.382   2.184
87757SOL     OW65109   4.350  11.619  10.782
87757SOL    HW165110   4.429  11.572  10.807
87757SOL    HW265111   4.382  11.705  10.752
87758SOL     OW65112   0.906   1.500   3.622
87758SOL    HW165113   0.969   1.515   3.551
87758SOL    HW265114   0.866   1.416   3.601
87759SOL     OW65115   7.804   0.159   1.409
87759SOL    HW165116   7.750   0.196   1.479
87759SOL    HW265117   7.886   0.210   1.412
87760SOL     OW65118  11.493   1.179  11.389
87760SOL    HW165119  11.513   1.092  11.425
87760SOL    HW265120  11.433   1.218  11.453
87761SOL     OW65121  14.085   3.075   8.361
87761SOL    HW165122  14.094   3.135   8.287
87761SOL    HW265123  14.018   3.012   8.333
87762SOL     OW65124   8.656   3.072   8.765
87762SOL    HW165125   8.612   3.146   8.808
87762SOL    HW265126   8.588   3.033   8.710
87763SOL     OW65127   7.618  11.794   6.154
87763SOL    HW165128   7.667  11.837   6.223
87763SOL    HW265129   7.569  11.865   6.111
87764SOL     OW65130   6.892  10.905   1.658
87764SOL    HW165131   6.915  10.926   1.749
87764SOL    HW265132   6.846  10.821   1.665
87765SOL     OW65133  10.996   7.685  13.277
87765SOL    HW165134  10.988   7.590  13.278
87765SOL    HW265135  10.917   7.715  13.323
87766SOL     OW65136   4.180   4.172   2.400
87766SOL    HW165137   4.251   4.140   2.456
87766SOL    HW265138   4.142   4.245   2.449
87767SOL     OW65139   5.555   4.901   7.868
87767SOL    HW165140   5.549   4.826   7.809
87767SOL    HW265141   5.632   4.882   7.922
87768SOL     OW65142   2.944   1.074   0.095
87768SOL    HW165143   3.027   1.077   0.048
87768SOL    HW265144   2.894   1.147   0.060
87769SOL     OW65145   6.729   7.134   6.955
87769SOL    HW165146   6.711   7.183   6.875
87769SOL    HW265147   6.643   7.122   6.995
87770SOL     OW65148   2.327   3.390  14.288
87770SOL    HW165149   2.346   3.392  14.382
87770SOL    HW265150   2.404   3.430  14.247
87771SOL     OW65151  11.092   0.647  11.603
87771SOL    HW165152  11.005   0.627  11.637
87771SOL    HW265153  11.150   0.636  11.677
87772SOL     OW65154   6.029  14.405   7.925
87772SOL    HW165155   6.070  14.488   7.901
87772SOL    HW265156   6.102  14.349   7.952
87773SOL     OW65157  11.613   1.945  13.400
87773SOL    HW165158  11.540   1.975  13.453
87773SOL    HW265159  11.685   1.935  13.462
87774SOL     OW65160  14.608  11.214   2.759
87774SOL    HW165161  14.514  11.197   2.762
87774SOL    HW265162  14.646  11.151   2.821
87775SOL     OW65163  12.239   3.227  13.247
87775SOL    HW165164  12.157   3.266  13.278
87775SOL    HW265165  12.292   3.216  13.326
87776SOL     OW65166  12.577   3.354  14.303
87776SOL    HW165167  12.495   3.403  14.304
87776SOL    HW265168  12.623   3.386  14.225
87777SOL     OW65169   2.309  10.561   8.038
87777SOL    HW165170   2.388  10.548   8.090
87777SOL    HW265171   2.260  10.478   8.047
87778SOL     OW65172   5.181  10.435   5.947
87778SOL    HW165173   5.178  10.412   5.854
87778SOL    HW265174   5.229  10.518   5.949
87779SOL     OW65175   0.827   4.167   8.412
87779SOL    HW165176   0.820   4.071   8.419
87779SOL    HW265177   0.897   4.181   8.347
87780SOL     OW65178   9.973   9.483   4.084
87780SOL    HW165179   9.956   9.533   4.163
87780SOL    HW265180  10.027   9.542   4.030
87781SOL     OW65181   5.779   1.482   2.605
87781SOL    HW165182   5.716   1.481   2.534
87781SOL    HW265183   5.859   1.446   2.567
87782SOL     OW65184   8.022  12.178  13.675
87782SOL    HW165185   7.952  12.235  13.645
87782SOL    HW265186   8.032  12.198  13.768
87783SOL     OW65187   1.215   3.430   6.316
87783SOL    HW165188   1.277   3.499   6.341
87783SOL    HW265189   1.227   3.362   6.382
87784SOL     OW65190   5.601   0.840   1.752
87784SOL    HW165191   5.617   0.748   1.774
87784SOL    HW265192   5.668   0.888   1.800
87785SOL     OW65193   7.437   3.855  12.972
87785SOL    HW165194   7.490   3.829  13.047
87785SOL    HW265195   7.390   3.775  12.946
87786SOL     OW65196   5.926   1.810   7.634
87786SOL    HW165197   5.913   1.889   7.581
87786SOL    HW265198   6.003   1.768   7.595
87787SOL     OW65199   4.018   3.185  12.937
87787SOL    HW165200   3.963   3.215  13.009
87787SOL    HW265201   3.963   3.124  12.888
87788SOL     OW65202   5.097  10.066  14.379
87788SOL    HW165203   5.113  10.113  14.461
87788SOL    HW265204   5.184  10.044  14.347
87789SOL     OW65205   5.955   2.075   0.587
87789SOL    HW165206   5.987   2.081   0.497
87789SOL    HW265207   6.015   2.131   0.637
87790SOL     OW65208   5.618   8.480  12.427
87790SOL    HW165209   5.676   8.534  12.374
87790SOL    HW265210   5.558   8.440  12.364
87791SOL     OW65211   1.444  11.311   0.084
87791SOL    HW165212   1.404  11.388   0.124
87791SOL    HW265213   1.413  11.237   0.137
87792SOL     OW65214  14.184  12.980   7.776
87792SOL    HW165215  14.233  13.028   7.709
87792SOL    HW265216  14.104  13.031   7.788
87793SOL     OW65217   0.412   9.922   6.531
87793SOL    HW165218   0.376   9.837   6.556
87793SOL    HW265219   0.384   9.935   6.440
87794SOL     OW65220   1.934   3.095   3.434
87794SOL    HW165221   1.989   3.034   3.483
87794SOL    HW265222   1.916   3.050   3.351
87795SOL     OW65223   8.975   8.705   9.751
87795SOL    HW165224   8.907   8.686   9.686
87795SOL    HW265225   8.945   8.662   9.830
87796SOL     OW65226   4.427   7.678   2.359
87796SOL    HW165227   4.428   7.768   2.325
87796SOL    HW265228   4.508   7.670   2.408
87797SOL     OW65229   3.286   3.286   7.259
87797SOL    HW165230   3.360   3.345   7.241
87797SOL    HW265231   3.314   3.202   7.223
87798SOL     OW65232   3.343  13.426   4.264
87798SOL    HW165233   3.360  13.380   4.181
87798SOL    HW265234   3.400  13.503   4.260
87799SOL     OW65235  12.890   1.738   5.482
87799SOL    HW165236  12.979   1.754   5.452
87799SOL    HW265237  12.839   1.809   5.445
87800SOL     OW65238   3.513   8.337   7.699
87800SOL    HW165239   3.541   8.246   7.692
87800SOL    HW265240   3.461   8.340   7.779
87801SOL     OW65241  12.938  14.147  13.857
87801SOL    HW165242  12.864  14.086  13.854
87801SOL    HW265243  12.916  14.214  13.792
87802SOL     OW65244   5.308  13.806  10.975
87802SOL    HW165245   5.378  13.808  10.910
87802SOL    HW265246   5.350  13.827  11.058
87803SOL     OW65247   8.940   7.568   0.725
87803SOL    HW165248   9.017   7.517   0.751
87803SOL    HW265249   8.949   7.579   0.630
87804SOL     OW65250  12.265  13.125   6.220
87804SOL    HW165251  12.206  13.198   6.238
87804SOL    HW265252  12.250  13.104   6.128
87805SOL     OW65253   4.121   2.433  10.922
87805SOL    HW165254   4.060   2.387  10.980
87805SOL    HW265255   4.206   2.393  10.940
87806SOL     OW65256   6.743   4.298  11.512
87806SOL    HW165257   6.697   4.270  11.591
87806SOL    HW265258   6.748   4.219  11.459
87807SOL     OW65259   3.082  11.202   2.639
87807SOL    HW165260   2.987  11.216   2.647
87807SOL    HW265261   3.093  11.161   2.554
87808SOL     OW65262   5.635  12.743   6.996
87808SOL    HW165263   5.625  12.657   7.037
87808SOL    HW265264   5.730  12.754   6.987
87809SOL     OW65265   5.114   0.744  13.913
87809SOL    HW165266   5.089   0.711  13.827
87809SOL    HW265267   5.031   0.759  13.958
87810SOL     OW65268   0.469   2.994   3.528
87810SOL    HW165269   0.534   2.925   3.516
87810SOL    HW265270   0.471   3.012   3.622
87811SOL     OW65271   1.111  13.248  10.525
87811SOL    HW165272   1.150  13.160  10.522
87811SOL    HW265273   1.182  13.305  10.552
87812SOL     OW65274   7.853   9.222   0.733
87812SOL    HW165275   7.786   9.154   0.741
87812SOL    HW265276   7.827   9.273   0.657
87813SOL     OW65277  13.114   5.669   0.600
87813SOL    HW165278  13.039   5.619   0.568
87813SOL    HW265279  13.122   5.742   0.538
87814SOL     OW65280   1.057   4.804   7.381
87814SOL    HW165281   0.999   4.877   7.402
87814SOL    HW265282   0.998   4.734   7.352
87815SOL     OW65283  14.593  12.815   0.400
87815SOL    HW165284  14.619  12.723   0.411
87815SOL    HW265285  14.642  12.862   0.467
87816SOL     OW65286   2.968   7.237   3.923
87816SOL    HW165287   2.921   7.188   3.856
87816SOL    HW265288   3.060   7.235   3.894
87817SOL     OW65289   4.477   2.843   9.663
87817SOL    HW165290   4.519   2.760   9.686
87817SOL    HW265291   4.383   2.826   9.675
87818SOL     OW65292  10.535   5.411   5.745
87818SOL    HW165293  10.546   5.361   5.826
87818SOL    HW265294  10.497   5.349   5.683
87819SOL     OW65295   6.136   6.724  10.712
87819SOL    HW165296   6.121   6.695  10.802
87819SOL    HW265297   6.089   6.808  10.706
87820SOL     OW65298  11.457  10.116   2.174
87820SOL    HW165299  11.485  10.181   2.110
87820SOL    HW265300  11.362  10.117   2.169
87821SOL     OW65301   3.525   7.452   0.768
87821SOL    HW165302   3.525   7.381   0.832
87821SOL    HW265303   3.565   7.526   0.814
87822SOL     OW65304   8.296   0.611  14.102
87822SOL    HW165305   8.214   0.562  14.089
87822SOL    HW265306   8.271   0.685  14.157
87823SOL     OW65307  12.441  11.814   3.771
87823SOL    HW165308  12.369  11.752   3.761
87823SOL    HW265309  12.476  11.824   3.683
87824SOL     OW65310  14.178  10.864   4.919
87824SOL    HW165311  14.109  10.929   4.930
87824SOL    HW265312  14.254  10.903   4.963
87825SOL     OW65313   6.536  10.480   6.918
87825SOL    HW165314   6.568  10.563   6.882
87825SOL    HW265315   6.581  10.413   6.866
87826SOL     OW65316   3.491   3.082   0.096
87826SOL    HW165317   3.435   3.030   0.038
87826SOL    HW265318   3.539   3.140   0.036
87827SOL     OW65319  13.451   9.833  13.368
87827SOL    HW165320  13.453   9.838  13.272
87827SOL    HW265321  13.432   9.741  13.387
87828SOL     OW65322   8.734   6.333   2.111
87828SOL    HW165323   8.720   6.240   2.133
87828SOL    HW265324   8.647   6.372   2.120
87829SOL     OW65325   3.665   8.821   0.779
87829SOL    HW165326   3.672   8.727   0.759
87829SOL    HW265327   3.747   8.858   0.747
87830SOL     OW65328   1.172  10.076   6.077
87830SOL    HW165329   1.150  10.161   6.039
87830SOL    HW265330   1.267  10.071   6.069
87831SOL     OW65331   7.745  10.418   4.816
87831SOL    HW165332   7.837  10.393   4.816
87831SOL    HW265333   7.740  10.495   4.873
87832SOL     OW65334  12.081   5.611   1.196
87832SOL    HW165335  12.031   5.638   1.119
87832SOL    HW265336  12.143   5.683   1.210
87833SOL     OW65337   9.995   8.825  11.507
87833SOL    HW165338   9.918   8.812  11.562
87833SOL    HW265339  10.016   8.918  11.517
87834SOL     OW65340  13.196   0.913   2.959
87834SOL    HW165341  13.116   0.934   2.912
87834SOL    HW265342  13.169   0.849   3.026
87835SOL     OW65343  10.911  12.794   0.179
87835SOL    HW165344  10.895  12.711   0.135
87835SOL    HW265345  10.854  12.792   0.256
87836SOL     OW65346  10.526   2.255   7.930
87836SOL    HW165347  10.455   2.226   7.873
87836SOL    HW265348  10.605   2.245   7.878
87837SOL     OW65349   9.034   5.019   4.721
87837SOL    HW165350   9.088   5.092   4.690
87837SOL    HW265351   9.025   5.034   4.816
87838SOL     OW65352  11.011   4.298  14.202
87838SOL    HW165353  11.060   4.372  14.165
87838SOL    HW265354  10.945   4.338  14.258
87839SOL     OW65355  14.782   5.198   6.212
87839SOL    HW165356  14.872   5.185   6.184
87839SOL    HW265357  14.746   5.109   6.219
87840SOL     OW65358  10.653  10.913   7.099
87840SOL    HW165359  10.581  10.885   7.156
87840SOL    HW265360  10.693  10.832   7.070
87841SOL     OW65361   7.685   2.091   8.251
87841SOL    HW165362   7.736   2.096   8.332
87841SOL    HW265363   7.735   2.033   8.194
87842SOL     OW65364   0.691  13.992  10.152
87842SOL    HW165365   0.602  13.968  10.128
87842SOL    HW265366   0.689  13.998  10.247
87843SOL     OW65367   5.161   2.400   8.385
87843SOL    HW165368   5.246   2.444   8.376
87843SOL    HW265369   5.173   2.338   8.457
87844SOL     OW65370  14.431   2.872  10.056
87844SOL    HW165371  14.381   2.935  10.108
87844SOL    HW265372  14.400   2.885   9.967
87845SOL     OW65373  12.402   8.872  10.031
87845SOL    HW165374  12.405   8.856  10.125
87845SOL    HW265375  12.316   8.840  10.003
87846SOL     OW65376   8.576   7.414  13.630
87846SOL    HW165377   8.607   7.341  13.684
87846SOL    HW265378   8.633   7.487  13.652
87847SOL     OW65379  12.789  11.438  10.951
87847SOL    HW165380  12.780  11.509  10.888
87847SOL    HW265381  12.701  11.427  10.987
87848SOL     OW65382  11.960   9.428   4.727
87848SOL    HW165383  12.000   9.512   4.702
87848SOL    HW265384  11.946   9.383   4.643
87849SOL     OW65385   0.808   6.560   1.588
87849SOL    HW165386   0.882   6.619   1.574
87849SOL    HW265387   0.831   6.480   1.541
87850SOL     OW65388   0.863   4.064   5.642
87850SOL    HW165389   0.912   4.105   5.570
87850SOL    HW265390   0.780   4.112   5.645
87851SOL     OW65391   7.888   6.588  11.925
87851SOL    HW165392   7.918   6.614  11.838
87851SOL    HW265393   7.968   6.579  11.977
87852SOL     OW65394   9.391   3.501   9.974
87852SOL    HW165395   9.371   3.506   9.880
87852SOL    HW265396   9.394   3.407   9.992
87853SOL     OW65397  13.729   5.751   9.787
87853SOL    HW165398  13.727   5.827   9.730
87853SOL    HW265399  13.811   5.760   9.836
87854SOL     OW65400  11.259  12.506  12.227
87854SOL    HW165401  11.181  12.540  12.270
87854SOL    HW265402  11.268  12.560  12.148
87855SOL     OW65403  14.415   9.447  10.662
87855SOL    HW165404  14.473   9.477  10.592
87855SOL    HW265405  14.332   9.428  10.619
87856SOL     OW65406   9.641  12.433  13.002
87856SOL    HW165407   9.606  12.359  13.053
87856SOL    HW265408   9.580  12.441  12.928
87857SOL     OW65409   1.435  12.735   6.817
87857SOL    HW165410   1.502  12.742   6.749
87857SOL    HW265411   1.468  12.788   6.889
87858SOL     OW65412  11.277   2.292   3.569
87858SOL    HW165413  11.261   2.270   3.661
87858SOL    HW265414  11.365   2.329   3.568
87859SOL     OW65415   5.757  13.495   5.765
87859SOL    HW165416   5.726  13.421   5.712
87859SOL    HW265417   5.678  13.535   5.800
87860SOL     OW65418  12.215  12.149  12.438
87860SOL    HW165419  12.285  12.127  12.376
87860SOL    HW265420  12.177  12.229  12.403
87861SOL     OW65421  10.537   3.117   3.109
87861SOL    HW165422  10.557   3.094   3.018
87861SOL    HW265423  10.541   3.033   3.156
87862SOL     OW65424  14.832  12.416  10.211
87862SOL    HW165425  14.780  12.341  10.185
87862SOL    HW265426  14.775  12.491  10.196
87863SOL     OW65427   5.402  14.741   5.436
87863SOL    HW165428   5.425  14.786   5.354
87863SOL    HW265429   5.418  14.806   5.504
87864SOL     OW65430  12.492   5.302   8.864
87864SOL    HW165431  12.419   5.265   8.914
87864SOL    HW265432  12.568   5.250   8.892
87865SOL     OW65433   5.247  14.421   4.536
87865SOL    HW165434   5.307  14.395   4.606
87865SOL    HW265435   5.193  14.343   4.521
87866SOL     OW65436   1.799   1.158   0.199
87866SOL    HW165437   1.846   1.177   0.280
87866SOL    HW265438   1.706   1.166   0.222
87867SOL     OW65439   1.282  14.404   3.638
87867SOL    HW165440   1.363  14.403   3.688
87867SOL    HW265441   1.237  14.324   3.662
87868SOL     OW65442   2.498   8.945   3.632
87868SOL    HW165443   2.453   8.873   3.588
87868SOL    HW265444   2.538   8.904   3.709
87869SOL     OW65445   0.439   2.622   8.733
87869SOL    HW165446   0.436   2.707   8.777
87869SOL    HW265447   0.363   2.575   8.768
87870SOL     OW65448   0.041   7.963   6.432
87870SOL    HW165449   0.024   8.057   6.428
87870SOL    HW265450   0.133   7.955   6.455
87871SOL     OW65451   9.570  10.610   0.139
87871SOL    HW165452   9.529  10.585   0.056
87871SOL    HW265453   9.537  10.547   0.202
87872SOL     OW65454   5.069   7.051   2.239
87872SOL    HW165455   4.996   7.106   2.210
87872SOL    HW265456   5.138   7.067   2.174
87873SOL     OW65457  13.732   9.530  11.054
87873SOL    HW165458  13.645   9.554  11.083
87873SOL    HW265459  13.762   9.465  11.118
87874SOL     OW65460   2.132   5.240   5.454
87874SOL    HW165461   2.055   5.232   5.510
87874SOL    HW265462   2.147   5.151   5.422
87875SOL     OW65463   6.866  14.792  11.354
87875SOL    HW165464   6.957  14.777  11.328
87875SOL    HW265465   6.819  14.803  11.271
87876SOL     OW65466   7.664   0.716   0.621
87876SOL    HW165467   7.701   0.649   0.678
87876SOL    HW265468   7.664   0.676   0.534
87877SOL     OW65469  10.652   5.403   9.862
87877SOL    HW165470  10.559   5.396   9.886
87877SOL    HW265471  10.686   5.471   9.920
87878SOL     OW65472   0.236   7.333  12.173
87878SOL    HW165473   0.199   7.396  12.111
87878SOL    HW265474   0.247   7.253  12.121
87879SOL     OW65475  13.721   8.007  10.280
87879SOL    HW165476  13.767   8.061  10.344
87879SOL    HW265477  13.637   7.988  10.322
87880SOL     OW65478   1.618  14.342   4.703
87880SOL    HW165479   1.613  14.437   4.715
87880SOL    HW265480   1.636  14.331   4.610
87881SOL     OW65481   8.613  14.453   1.892
87881SOL    HW165482   8.579  14.533   1.853
87881SOL    HW265483   8.576  14.383   1.838
87882SOL     OW65484  14.789  10.675   8.750
87882SOL    HW165485   0.011  10.663   8.756
87882SOL    HW265486  14.767  10.646   8.662
87883SOL     OW65487  12.971  14.654   9.263
87883SOL    HW165488  13.013  14.731   9.225
87883SOL    HW265489  12.882  14.681   9.284
87884SOL     OW65490  14.470  10.875  14.801
87884SOL    HW165491  14.522  10.951  14.777
87884SOL    HW265492  14.396  10.876  14.740
87885SOL     OW65493   9.701  10.176   1.617
87885SOL    HW165494   9.793  10.152   1.605
87885SOL    HW265495   9.660  10.098   1.654
87886SOL     OW65496   9.531   2.177   3.395
87886SOL    HW165497   9.520   2.200   3.488
87886SOL    HW265498   9.462   2.226   3.350
87887SOL     OW65499  11.722   8.140   3.302
87887SOL    HW165500  11.748   8.169   3.215
87887SOL    HW265501  11.794   8.167   3.359
87888SOL     OW65502  12.135  12.752   3.413
87888SOL    HW165503  12.203  12.759   3.480
87888SOL    HW265504  12.146  12.665   3.376
87889SOL     OW65505   5.359  13.860   1.370
87889SOL    HW165506   5.429  13.848   1.435
87889SOL    HW265507   5.286  13.808   1.404
87890SOL     OW65508  13.138   1.492   4.340
87890SOL    HW165509  13.159   1.461   4.252
87890SOL    HW265510  13.214   1.544   4.367
87891SOL     OW65511  11.993   2.133   3.501
87891SOL    HW165512  12.057   2.103   3.437
87891SOL    HW265513  11.909   2.131   3.455
87892SOL     OW65514   3.152   6.990   5.306
87892SOL    HW165515   3.061   6.962   5.303
87892SOL    HW265516   3.176   7.003   5.214
87893SOL     OW65517   0.458   1.292  12.734
87893SOL    HW165518   0.402   1.369  12.744
87893SOL    HW265519   0.500   1.304  12.649
87894SOL     OW65520   4.332   8.131   1.969
87894SOL    HW165521   4.303   8.202   2.026
87894SOL    HW265522   4.377   8.174   1.897
87895SOL     OW65523   6.430  14.724   2.765
87895SOL    HW165524   6.392  14.792   2.710
87895SOL    HW265525   6.523  14.724   2.743
87896SOL     OW65526   7.175   0.123   2.908
87896SOL    HW165527   7.085   0.146   2.885
87896SOL    HW265528   7.221   0.206   2.910
87897SOL     OW65529  13.746   3.107  13.427
87897SOL    HW165530  13.690   3.032  13.408
87897SOL    HW265531  13.796   3.082  13.504
87898SOL     OW65532   4.695   6.892   3.897
87898SOL    HW165533   4.651   6.807   3.907
87898SOL    HW265534   4.625   6.953   3.873
87899SOL     OW65535   7.250  13.553   7.470
87899SOL    HW165536   7.279  13.604   7.546
87899SOL    HW265537   7.321  13.564   7.405
87900SOL     OW65538  10.980  12.187  12.334
87900SOL    HW165539  10.892  12.222  12.318
87900SOL    HW265540  11.000  12.134  12.258
87901SOL     OW65541  12.377   9.171  11.732
87901SOL    HW165542  12.414   9.203  11.814
87901SOL    HW265543  12.361   9.078  11.747
87902SOL     OW65544   7.792   3.977  11.140
87902SOL    HW165545   7.786   4.051  11.201
87902SOL    HW265546   7.720   3.919  11.166
87903SOL     OW65547   7.128   1.412  10.275
87903SOL    HW165548   7.130   1.323  10.311
87903SOL    HW265549   7.121   1.398  10.180
87904SOL     OW65550   7.656   0.266   1.610
87904SOL    HW165551   7.655   0.210   1.687
87904SOL    HW265552   7.684   0.352   1.643
87905SOL     OW65553  13.474   2.661   5.542
87905SOL    HW165554  13.392   2.691   5.503
87905SOL    HW265555  13.481   2.709   5.624
87906SOL     OW65556   5.568   2.786  10.710
87906SOL    HW165557   5.597   2.837  10.785
87906SOL    HW265558   5.638   2.721  10.697
87907SOL     OW65559   9.155  11.063  14.447
87907SOL    HW165560   9.210  11.067  14.369
87907SOL    HW265561   9.137  11.154  14.469
87908SOL     OW65562  13.055   4.237  12.022
87908SOL    HW165563  13.007   4.267  11.945
87908SOL    HW265564  12.996   4.253  12.096
87909SOL     OW65565   6.563   2.299   9.090
87909SOL    HW165566   6.521   2.347   9.161
87909SOL    HW265567   6.549   2.207   9.111
87910SOL     OW65568   2.394  10.392   5.627
87910SOL    HW165569   2.453  10.416   5.556
87910SOL    HW265570   2.415  10.300   5.645
87911SOL     OW65571  10.621   3.562  11.814
87911SOL    HW165572  10.704   3.598  11.784
87911SOL    HW265573  10.557   3.592  11.749
87912SOL     OW65574   5.028   3.146   6.051
87912SOL    HW165575   4.990   3.178   5.970
87912SOL    HW265576   5.112   3.109   6.025
87913SOL     OW65577   1.167   7.482   0.089
87913SOL    HW165578   1.109   7.521   0.155
87913SOL    HW265579   1.207   7.557   0.046
87914SOL     OW65580   2.889   3.739   5.149
87914SOL    HW165581   2.906   3.670   5.212
87914SOL    HW265582   2.804   3.776   5.176
87915SOL     OW65583   1.230   8.211  12.430
87915SOL    HW165584   1.201   8.301  12.448
87915SOL    HW265585   1.191   8.190  12.345
87916SOL     OW65586   5.334   4.735   3.267
87916SOL    HW165587   5.258   4.677   3.260
87916SOL    HW265588   5.404   4.678   3.300
87917SOL     OW65589  11.255   1.293   8.504
87917SOL    HW165590  11.200   1.265   8.431
87917SOL    HW265591  11.201   1.356   8.552
87918SOL     OW65592  10.166   4.923   8.821
87918SOL    HW165593  10.109   4.934   8.897
87918SOL    HW265594  10.206   4.838   8.833
87919SOL     OW65595   1.121   1.307  14.299
87919SOL    HW165596   1.166   1.390  14.284
87919SOL    HW265597   1.040   1.332  14.345
87920SOL     OW65598  10.207   8.337   6.614
87920SOL    HW165599  10.263   8.380   6.550
87920SOL    HW265600  10.135   8.399   6.628
87921SOL     OW65601   8.726   1.068   8.363
87921SOL    HW165602   8.793   1.122   8.405
87921SOL    HW265603   8.739   1.082   8.269
87922SOL     OW65604   8.165   3.646  10.011
87922SOL    HW165605   8.108   3.650   9.934
87922SOL    HW265606   8.190   3.553  10.018
87923SOL     OW65607   9.639   1.504   6.260
87923SOL    HW165608   9.652   1.589   6.300
87923SOL    HW265609   9.626   1.523   6.167
87924SOL     OW65610   1.402   6.063   4.000
87924SOL    HW165611   1.469   6.054   4.068
87924SOL    HW265612   1.390   6.158   3.991
87925SOL     OW65613   0.730   8.695   4.553
87925SOL    HW165614   0.742   8.607   4.517
87925SOL    HW265615   0.670   8.737   4.492
87926SOL     OW65616   6.552   0.517   0.214
87926SOL    HW165617   6.554   0.460   0.138
87926SOL    HW265618   6.466   0.559   0.211
87927SOL     OW65619   1.356   5.739   9.861
87927SOL    HW165620   1.317   5.781   9.785
87927SOL    HW265621   1.425   5.682   9.826
87928SOL     OW65622  10.237   3.989   9.690
87928SOL    HW165623  10.307   3.941   9.647
87928SOL    HW265624  10.160   3.972   9.636
87929SOL     OW65625  13.548  13.283   1.144
87929SOL    HW165626  13.504  13.236   1.215
87929SOL    HW265627  13.621  13.227   1.119
87930SOL     OW65628   5.202   0.070   2.797
87930SOL    HW165629   5.292   0.045   2.778
87930SOL    HW265630   5.150   0.016   2.737
87931SOL     OW65631   9.311   1.533  12.455
87931SOL    HW165632   9.298   1.570  12.368
87931SOL    HW265633   9.241   1.571  12.508
87932SOL     OW65634  11.663   8.794   2.142
87932SOL    HW165635  11.572   8.823   2.147
87932SOL    HW265636  11.697   8.833   2.061
87933SOL     OW65637   2.837  13.371   6.497
87933SOL    HW165638   2.777  13.309   6.540
87933SOL    HW265639   2.818  13.361   6.404
87934SOL     OW65640   2.276   5.491  10.879
87934SOL    HW165641   2.184   5.517  10.881
87934SOL    HW265642   2.323   5.566  10.917
87935SOL     OW65643  13.681   1.712   3.956
87935SOL    HW165644  13.682   1.632   3.903
87935SOL    HW265645  13.772   1.740   3.959
87936SOL     OW65646  11.349   4.514  14.050
87936SOL    HW165647  11.441   4.497  14.028
87936SOL    HW265648  11.311   4.547  13.970
87937SOL     OW65649  13.646   5.456   3.724
87937SOL    HW165650  13.628   5.488   3.813
87937SOL    HW265651  13.568   5.480   3.674
87938SOL     OW65652   1.019   1.316  10.390
87938SOL    HW165653   0.961   1.330  10.465
87938SOL    HW265654   1.011   1.396  10.338
87939SOL     OW65655  10.891   9.827   9.236
87939SOL    HW165656  10.814   9.881   9.217
87939SOL    HW265657  10.883   9.807   9.329
87940SOL     OW65658   8.162   6.209   0.140
87940SOL    HW165659   8.238   6.154   0.158
87940SOL    HW265660   8.094   6.174   0.198
87941SOL     OW65661   1.985  10.158   6.872
87941SOL    HW165662   1.945  10.075   6.845
87941SOL    HW265663   1.928  10.225   6.834
87942SOL     OW65664  12.656   3.949   7.074
87942SOL    HW165665  12.572   3.995   7.078
87942SOL    HW265666  12.634   3.860   7.049
87943SOL     OW65667   3.242   7.011   7.293
87943SOL    HW165668   3.210   7.016   7.203
87943SOL    HW265669   3.337   7.003   7.284
87944SOL     OW65670   7.704   6.183   4.843
87944SOL    HW165671   7.658   6.166   4.761
87944SOL    HW265672   7.770   6.249   4.820
87945SOL     OW65673   0.474   6.066  12.103
87945SOL    HW165674   0.417   6.030  12.171
87945SOL    HW265675   0.447   6.020  12.023
87946SOL     OW65676   5.151   8.745   8.440
87946SOL    HW165677   5.112   8.662   8.414
87946SOL    HW265678   5.198   8.775   8.362
87947SOL     OW65679   7.736   9.237   8.526
87947SOL    HW165680   7.799   9.164   8.532
87947SOL    HW265681   7.656   9.203   8.565
87948SOL     OW65682   2.667   0.127   3.821
87948SOL    HW165683   2.711   0.047   3.793
87948SOL    HW265684   2.734   0.194   3.819
87949SOL     OW65685   0.624   5.364   2.900
87949SOL    HW165686   0.623   5.271   2.878
87949SOL    HW265687   0.534   5.384   2.926
87950SOL     OW65688   8.241  10.824   9.011
87950SOL    HW165689   8.296  10.757   9.053
87950SOL    HW265690   8.152  10.794   9.025
87951SOL     OW65691  10.238   0.561   7.863
87951SOL    HW165692  10.229   0.550   7.768
87951SOL    HW265693  10.272   0.650   7.874
87952SOL     OW65694   9.843  11.498  11.597
87952SOL    HW165695   9.779  11.468  11.662
87952SOL    HW265696   9.845  11.428  11.531
87953SOL     OW65697   1.929   7.979   2.449
87953SOL    HW165698   1.946   7.884   2.447
87953SOL    HW265699   2.015   8.018   2.466
87954SOL     OW65700   4.300  11.103  11.048
87954SOL    HW165701   4.235  11.171  11.029
87954SOL    HW265702   4.271  11.064  11.130
87955SOL     OW65703   0.087  10.075   9.014
87955SOL    HW165704   0.014  10.084   8.953
87955SOL    HW265705   0.165  10.074   8.959
87956SOL     OW65706   8.266   6.903  14.857
87956SOL    HW165707   8.284   6.980   0.037
87956SOL    HW265708   8.271   6.829   0.045
87957SOL     OW65709   4.493   2.854   1.304
87957SOL    HW165710   4.494   2.943   1.340
87957SOL    HW265711   4.445   2.802   1.369
87958SOL     OW65712   2.783   7.614  13.143
87958SOL    HW165713   2.804   7.533  13.189
87958SOL    HW265714   2.832   7.609  13.061
87959SOL     OW65715   0.384  14.710  14.288
87959SOL    HW165716   0.415  14.775  14.226
87959SOL    HW265717   0.293  14.694  14.263
87960SOL     OW65718  12.035  13.663  12.665
87960SOL    HW165719  12.039  13.569  12.650
87960SOL    HW265720  12.033  13.673  12.760
87961SOL     OW65721   0.642   3.405  11.716
87961SOL    HW165722   0.581   3.478  11.702
87961SOL    HW265723   0.700   3.436  11.786
87962SOL     OW65724  11.811   0.145  13.361
87962SOL    HW165725  11.815   0.121  13.269
87962SOL    HW265726  11.868   0.221  13.369
87963SOL     OW65727   0.968  12.901   5.491
87963SOL    HW165728   1.063  12.898   5.505
87963SOL    HW265729   0.952  12.838   5.421
87964SOL     OW65730   4.400  10.132   5.988
87964SOL    HW165731   4.389  10.227   5.991
87964SOL    HW265732   4.486  10.116   6.026
87965SOL     OW65733   1.752   6.624  11.162
87965SOL    HW165734   1.810   6.623  11.238
87965SOL    HW265735   1.664   6.625  11.199
87966SOL     OW65736  12.147   1.802   3.362
87966SOL    HW165737  12.191   1.827   3.443
87966SOL    HW265738  12.065   1.761   3.391
87967SOL     OW65739  12.214  13.413  13.029
87967SOL    HW165740  12.208  13.322  13.057
87967SOL    HW265741  12.196  13.464  13.108
87968SOL     OW65742  11.442   8.836   7.174
87968SOL    HW165743  11.476   8.926   7.168
87968SOL    HW265744  11.354   8.842   7.137
87969SOL     OW65745   3.745   2.722   0.782
87969SOL    HW165746   3.689   2.689   0.852
87969SOL    HW265747   3.684   2.754   0.716
87970SOL     OW65748   9.528  14.126   5.408
87970SOL    HW165749   9.439  14.119   5.375
87970SOL    HW265750   9.520  14.170   5.493
87971SOL     OW65751   6.686  14.248   1.133
87971SOL    HW165752   6.643  14.321   1.179
87971SOL    HW265753   6.713  14.189   1.203
87972SOL     OW65754  11.270   0.771   0.431
87972SOL    HW165755  11.250   0.845   0.374
87972SOL    HW265756  11.366   0.769   0.435
87973SOL     OW65757   1.248   9.509  11.230
87973SOL    HW165758   1.166   9.475  11.266
87973SOL    HW265759   1.226   9.537  11.141
87974SOL     OW65760  13.830   5.729   0.516
87974SOL    HW165761  13.833   5.727   0.611
87974SOL    HW265762  13.914   5.692   0.488
87975SOL     OW65763   8.038   9.994   2.623
87975SOL    HW165764   8.081   9.972   2.540
87975SOL    HW265765   7.948  10.017   2.598
87976SOL     OW65766   3.489   6.037  14.872
87976SOL    HW165767   3.554   5.971   0.025
87976SOL    HW265768   3.415   6.022   0.058
87977SOL     OW65769  13.851   5.483   3.043
87977SOL    HW165770  13.760   5.458   3.029
87977SOL    HW265771  13.876   5.438   3.124
87978SOL     OW65772   1.705   1.290   6.780
87978SOL    HW165773   1.625   1.324   6.740
87978SOL    HW265774   1.720   1.206   6.735
87979SOL     OW65775  10.964   9.685  14.409
87979SOL    HW165776  11.057   9.698  14.392
87979SOL    HW265777  10.961   9.619  14.477
87980SOL     OW65778  12.763  10.334   6.936
87980SOL    HW165779  12.680  10.376   6.960
87980SOL    HW265780  12.828  10.376   6.992
87981SOL     OW65781   9.493   1.938   6.257
87981SOL    HW165782   9.404   1.951   6.291
87981SOL    HW265783   9.495   1.988   6.175
87982SOL     OW65784   8.394  14.522   3.745
87982SOL    HW165785   8.365  14.453   3.685
87982SOL    HW265786   8.431  14.475   3.819
87983SOL     OW65787   2.735   1.941   5.840
87983SOL    HW165788   2.780   1.938   5.755
87983SOL    HW265789   2.784   1.882   5.896
87984SOL     OW65790   0.213   8.815   1.545
87984SOL    HW165791   0.286   8.866   1.581
87984SOL    HW265792   0.144   8.880   1.530
87985SOL     OW65793   2.207  10.985   1.262
87985SOL    HW165794   2.161  10.980   1.347
87985SOL    HW265795   2.299  10.988   1.285
87986SOL     OW65796  11.821   8.723  13.847
87986SOL    HW165797  11.779   8.777  13.913
87986SOL    HW265798  11.778   8.746  13.765
87987SOL     OW65799   2.476   3.969   2.820
87987SOL    HW165800   2.551   4.009   2.775
87987SOL    HW265801   2.400   3.996   2.768
87988SOL     OW65802   8.282  11.525   2.029
87988SOL    HW165803   8.304  11.574   1.950
87988SOL    HW265804   8.316  11.579   2.101
87989SOL     OW65805   8.276   6.044   1.209
87989SOL    HW165806   8.252   6.125   1.163
87989SOL    HW265807   8.355   6.067   1.257
87990SOL     OW65808   9.593  14.724   9.421
87990SOL    HW165809   9.506  14.700   9.390
87990SOL    HW265810   9.592  14.820   9.425
87991SOL     OW65811   4.734   5.603   8.406
87991SOL    HW165812   4.714   5.647   8.324
87991SOL    HW265813   4.649   5.575   8.440
87992SOL     OW65814   1.840   9.844  14.575
87992SOL    HW165815   1.765   9.835  14.633
87992SOL    HW265816   1.911   9.872  14.632
87993SOL     OW65817  10.437   5.919  13.995
87993SOL    HW165818  10.379   5.984  14.035
87993SOL    HW265819  10.517   5.924  14.047
87994SOL     OW65820  14.627   0.707   0.189
87994SOL    HW165821  14.620   0.729   0.282
87994SOL    HW265822  14.696   0.641   0.185
87995SOL     OW65823   3.707   1.559   2.770
87995SOL    HW165824   3.686   1.523   2.856
87995SOL    HW265825   3.731   1.483   2.717
87996SOL     OW65826   7.045  13.503   6.734
87996SOL    HW165827   7.076  13.525   6.646
87996SOL    HW265828   6.984  13.574   6.755
87997SOL     OW65829   6.724  13.157  12.627
87997SOL    HW165830   6.658  13.127  12.565
87997SOL    HW265831   6.689  13.241  12.659
87998SOL     OW65832   9.528   3.069  13.855
87998SOL    HW165833   9.592   3.111  13.913
87998SOL    HW265834   9.500   3.139  13.796
87999SOL     OW65835  10.257   6.543   2.915
87999SOL    HW165836  10.297   6.566   2.830
87999SOL    HW265837  10.315   6.477   2.951
88000SOL     OW65838   2.095  14.675   2.922
88000SOL    HW165839   2.102  14.765   2.953
88000SOL    HW265840   2.004  14.651   2.939
88001SOL     OW65841   1.151  12.692   6.293
88001SOL    HW165842   1.212  12.648   6.351
88001SOL    HW265843   1.101  12.621   6.252
88002SOL     OW65844   6.840   6.095   9.928
88002SOL    HW165845   6.767   6.140   9.972
88002SOL    HW265846   6.914   6.154   9.941
88003SOL     OW65847   8.113   4.179  14.807
88003SOL    HW165848   8.183   4.202  14.868
88003SOL    HW265849   8.101   4.085  14.818
88004SOL     OW65850   0.736   1.251   3.577
88004SOL    HW165851   0.678   1.292   3.641
88004SOL    HW265852   0.705   1.284   3.492
88005SOL     OW65853   7.702   0.750  10.649
88005SOL    HW165854   7.710   0.687  10.722
88005SOL    HW265855   7.744   0.829  10.682
88006SOL     OW65856  14.340   5.326   0.949
88006SOL    HW165857  14.368   5.405   0.995
88006SOL    HW265858  14.421   5.276   0.935
88007SOL     OW65859  11.138   3.443   6.392
88007SOL    HW165860  11.082   3.430   6.469
88007SOL    HW265861  11.225   3.416   6.420
88008SOL     OW65862  13.484   9.702   5.971
88008SOL    HW165863  13.446   9.727   6.056
88008SOL    HW265864  13.409   9.693   5.913
88009SOL     OW65865   6.754  14.596   1.412
88009SOL    HW165866   6.808  14.614   1.489
88009SOL    HW265867   6.664  14.598   1.445
88010SOL     OW65868   7.814  11.017  13.970
88010SOL    HW165869   7.737  11.067  14.000
88010SOL    HW265870   7.788  10.925  13.981
88011SOL     OW65871   0.452   6.908   7.788
88011SOL    HW165872   0.426   7.000   7.796
88011SOL    HW265873   0.371   6.863   7.763
88012SOL     OW65874   1.967  13.774   8.385
88012SOL    HW165875   2.061  13.794   8.387
88012SOL    HW265876   1.952  13.723   8.465
88013SOL     OW65877  11.023   0.018   7.911
88013SOL    HW165878  11.002   0.003   7.819
88013SOL    HW265879  11.106   0.066   7.909
88014SOL     OW65880   1.834   5.544  14.446
88014SOL    HW165881   1.843   5.506  14.359
88014SOL    HW265882   1.858   5.636  14.436
88015SOL     OW65883   0.721   6.696   8.050
88015SOL    HW165884   0.638   6.679   8.095
88015SOL    HW265885   0.751   6.779   8.086
88016SOL     OW65886   1.515   8.157  10.963
88016SOL    HW165887   1.542   8.130  10.875
88016SOL    HW265888   1.428   8.195  10.951
88017SOL     OW65889  13.458   3.360   0.511
88017SOL    HW165890  13.458   3.268   0.539
88017SOL    HW265891  13.367   3.376   0.485
88018SOL     OW65892  10.740   9.696  10.328
88018SOL    HW165893  10.689   9.772  10.356
88018SOL    HW265894  10.674   9.630  10.305
88019SOL     OW65895   5.630  11.229  12.676
88019SOL    HW165896   5.647  11.247  12.768
88019SOL    HW265897   5.672  11.301  12.629
88020SOL     OW65898   6.881  14.072   9.455
88020SOL    HW165899   6.929  14.048   9.534
88020SOL    HW265900   6.821  13.999   9.440
88021SOL     OW65901   8.522   2.169   2.623
88021SOL    HW165902   8.570   2.130   2.696
88021SOL    HW265903   8.435   2.187   2.659
88022SOL     OW65904   0.240   7.228   3.874
88022SOL    HW165905   0.309   7.210   3.811
88022SOL    HW265906   0.283   7.276   3.945
88023SOL     OW65907   0.724  14.202   5.156
88023SOL    HW165908   0.812  14.179   5.187
88023SOL    HW265909   0.666  14.144   5.205
88024SOL     OW65910   4.948   6.299  13.154
88024SOL    HW165911   4.938   6.234  13.085
88024SOL    HW265912   5.002   6.368  13.115
88025SOL     OW65913   1.046   1.456   6.123
88025SOL    HW165914   1.032   1.504   6.042
88025SOL    HW265915   1.123   1.401   6.106
88026SOL     OW65916  10.797  11.965   5.322
88026SOL    HW165917  10.853  12.004   5.389
88026SOL    HW265918  10.743  12.038   5.291
88027SOL     OW65919  12.623  14.169  13.988
88027SOL    HW165920  12.555  14.222  13.947
88027SOL    HW265921  12.647  14.104  13.921
88028SOL     OW65922  11.265  11.512   0.207
88028SOL    HW165923  11.183  11.480   0.245
88028SOL    HW265924  11.305  11.563   0.277
88029SOL     OW65925  14.024  13.031  13.670
88029SOL    HW165926  13.981  13.113  13.650
88029SOL    HW265927  13.956  12.976  13.708
88030SOL     OW65928  11.871  10.781  11.010
88030SOL    HW165929  11.947  10.750  10.961
88030SOL    HW265930  11.813  10.819  10.943
88031SOL     OW65931  14.544   0.005  11.857
88031SOL    HW165932  14.475  14.825  11.816
88031SOL    HW265933  14.497   0.076  11.900
88032SOL     OW65934   4.054  13.003   6.821
88032SOL    HW165935   4.012  12.936   6.767
88032SOL    HW265936   4.015  12.991   6.908
88033SOL     OW65937   0.348  12.507   0.693
88033SOL    HW165938   0.371  12.561   0.769
88033SOL    HW265939   0.377  12.558   0.618
88034SOL     OW65940  12.516  11.443  12.874
88034SOL    HW165941  12.532  11.502  12.800
88034SOL    HW265942  12.471  11.368  12.835
88035SOL     OW65943   3.435   4.737   3.513
88035SOL    HW165944   3.434   4.678   3.588
88035SOL    HW265945   3.383   4.693   3.446
88036SOL     OW65946   9.849   2.531   6.126
88036SOL    HW165947   9.775   2.476   6.154
88036SOL    HW265948   9.885   2.485   6.051
88037SOL     OW65949   1.246  12.742  13.424
88037SOL    HW165950   1.310  12.677  13.394
88037SOL    HW265951   1.299  12.819  13.445
88038SOL     OW65952   3.048   2.543  13.486
88038SOL    HW165953   3.109   2.470  13.492
88038SOL    HW265954   2.962   2.503  13.503
88039SOL     OW65955  12.044   6.258  10.068
88039SOL    HW165956  12.053   6.249  10.163
88039SOL    HW265957  12.095   6.186  10.032
88040SOL     OW65958  11.168   9.372   2.118
88040SOL    HW165959  11.234   9.318   2.159
88040SOL    HW265960  11.215   9.452   2.091
88041SOL     OW65961   2.551   8.551   1.352
88041SOL    HW165962   2.519   8.637   1.381
88041SOL    HW265963   2.488   8.523   1.286
88042SOL     OW65964   4.511   6.382  13.068
88042SOL    HW165965   4.419   6.373  13.044
88042SOL    HW265966   4.542   6.455  13.014
88043SOL     OW65967  11.949   9.266  14.474
88043SOL    HW165968  11.946   9.237  14.382
88043SOL    HW265969  11.949   9.361  14.469
88044SOL     OW65970   9.026   2.716   2.942
88044SOL    HW165971   8.946   2.730   2.891
88044SOL    HW265972   9.062   2.804   2.953
88045SOL     OW65973  13.428  12.214   4.737
88045SOL    HW165974  13.515  12.226   4.699
88045SOL    HW265975  13.385  12.298   4.727
88046SOL     OW65976   1.702   8.118   4.950
88046SOL    HW165977   1.660   8.145   4.868
88046SOL    HW265978   1.765   8.051   4.924
88047SOL     OW65979   8.831  10.352   3.280
88047SOL    HW165980   8.868  10.440   3.284
88047SOL    HW265981   8.906  10.295   3.262
88048SOL     OW65982   9.809  13.201   8.033
88048SOL    HW165983   9.756  13.278   8.055
88048SOL    HW265984   9.815  13.152   8.114
88049SOL     OW65985  14.702  13.625  12.429
88049SOL    HW165986  14.620  13.669  12.454
88049SOL    HW265987  14.764  13.697  12.416
88050SOL     OW65988   4.088  14.270   4.091
88050SOL    HW165989   4.016  14.214   4.119
88050SOL    HW265990   4.050  14.324   4.022
88051SOL     OW65991  12.032   4.174  12.855
88051SOL    HW165992  11.995   4.087  12.872
88051SOL    HW265993  12.081   4.195  12.935
88052SOL     OW65994   5.354   6.693  11.216
88052SOL    HW165995   5.370   6.765  11.154
88052SOL    HW265996   5.435   6.687  11.267
88053SOL     OW65997  12.881  12.475   8.692
88053SOL    HW165998  12.961  12.502   8.736
88053SOL    HW265999  12.910  12.426   8.615
88054SOL     OW66000  11.141   8.931  10.696
88054SOL    HW166001  11.217   8.967  10.742
88054SOL    HW266002  11.144   8.973  10.609
88055SOL     OW66003   8.985  10.689  10.221
88055SOL    HW166004   8.981  10.596  10.239
88055SOL    HW266005   9.072  10.703  10.184
88056SOL     OW66006   5.182   1.415  14.688
88056SOL    HW166007   5.145   1.356  14.622
88056SOL    HW266008   5.191   1.361  14.766
88057SOL     OW66009  12.465  14.294   7.243
88057SOL    HW166010  12.528  14.352   7.199
88057SOL    HW266011  12.466  14.214   7.191
88058SOL     OW66012   2.641   7.195   4.015
88058SOL    HW166013   2.548   7.189   3.994
88058SOL    HW266014   2.671   7.274   3.969
88059SOL     OW66015   0.853   8.778  10.353
88059SOL    HW166016   0.920   8.843  10.374
88059SOL    HW266017   0.830   8.795  10.262
88060SOL     OW66018   1.915   8.545   1.672
88060SOL    HW166019   1.834   8.560   1.623
88060SOL    HW266020   1.967   8.488   1.615
88061SOL     OW66021   9.954   5.521   0.089
88061SOL    HW166022   9.866   5.511   0.055
88061SOL    HW266023   9.945   5.582   0.162
88062SOL     OW66024   3.892   5.915   7.025
88062SOL    HW166025   3.944   5.980   7.073
88062SOL    HW266026   3.804   5.953   7.023
88063SOL     OW66027  12.582  11.754   8.362
88063SOL    HW166028  12.663  11.789   8.400
88063SOL    HW266029  12.588  11.775   8.269
88064SOL     OW66030   6.474   0.689  10.433
88064SOL    HW166031   6.484   0.696  10.528
88064SOL    HW266032   6.523   0.763  10.398
88065SOL     OW66033   7.319   8.630   7.575
88065SOL    HW166034   7.297   8.573   7.649
88065SOL    HW266035   7.391   8.585   7.531
88066SOL     OW66036   0.142   5.707   4.000
88066SOL    HW166037   0.049   5.729   4.003
88066SOL    HW266038   0.145   5.615   3.976
88067SOL     OW66039   5.566   7.336   0.928
88067SOL    HW166040   5.547   7.262   0.987
88067SOL    HW266041   5.661   7.336   0.919
88068SOL     OW66042   3.306   4.832   5.259
88068SOL    HW166043   3.213   4.855   5.261
88068SOL    HW266044   3.329   4.814   5.350
88069SOL     OW66045   4.717  13.099   7.309
88069SOL    HW166046   4.628  13.133   7.316
88069SOL    HW266047   4.766  13.171   7.268
88070SOL     OW66048  10.027  12.418   6.956
88070SOL    HW166049  10.110  12.371   6.960
88070SOL    HW266050   9.961  12.349   6.944
88071SOL     OW66051   1.035   1.062   7.801
88071SOL    HW166052   1.039   1.065   7.897
88071SOL    HW266053   1.056   1.151   7.774
88072SOL     OW66054  12.387  10.457   6.719
88072SOL    HW166055  12.322  10.503   6.665
88072SOL    HW266056  12.468  10.505   6.704
88073SOL     OW66057  14.396  12.512   3.931
88073SOL    HW166058  14.487  12.541   3.921
88073SOL    HW266059  14.347  12.594   3.938
88074SOL     OW66060   5.034   3.265   0.307
88074SOL    HW166061   5.100   3.327   0.276
88074SOL    HW266062   4.951   3.304   0.281
88075SOL     OW66063   1.444   4.440   3.794
88075SOL    HW166064   1.408   4.353   3.814
88075SOL    HW266065   1.527   4.443   3.843
88076SOL     OW66066   5.236   3.079   9.543
88076SOL    HW166067   5.179   3.011   9.506
88076SOL    HW266068   5.203   3.161   9.507
88077SOL     OW66069  12.530   2.905   3.499
88077SOL    HW166070  12.524   2.909   3.595
88077SOL    HW266071  12.619   2.936   3.480
88078SOL     OW66072  14.080   1.913  11.072
88078SOL    HW166073  13.998   1.943  11.110
88078SOL    HW266074  14.146   1.971  11.109
88079SOL     OW66075   8.486  13.913  11.497
88079SOL    HW166076   8.518  13.879  11.580
88079SOL    HW266077   8.552  13.886  11.433
88080SOL     OW66078   8.191  12.669   1.279
88080SOL    HW166079   8.142  12.751   1.289
88080SOL    HW266080   8.268  12.693   1.228
88081SOL     OW66081   0.216   8.551   4.630
88081SOL    HW166082   0.262   8.611   4.689
88081SOL    HW266083   0.145   8.604   4.593
88082SOL     OW66084  13.725   6.745   7.371
88082SOL    HW166085  13.670   6.752   7.449
88082SOL    HW266086  13.761   6.657   7.374
88083SOL     OW66087   0.332   7.872   7.153
88083SOL    HW166088   0.278   7.793   7.152
88083SOL    HW266089   0.398   7.856   7.086
88084SOL     OW66090   7.850  14.230  14.806
88084SOL    HW166091   7.756  14.212  14.808
88084SOL    HW266092   7.887  14.172  14.872
88085SOL     OW66093   8.692   4.589   9.800
88085SOL    HW166094   8.732   4.676   9.794
88085SOL    HW266095   8.685   4.572   9.893
88086SOL     OW66096   5.386  11.916   2.691
88086SOL    HW166097   5.470  11.891   2.654
88086SOL    HW266098   5.321  11.881   2.630
88087SOL     OW66099   7.981  11.117  13.040
88087SOL    HW166100   7.978  11.168  12.959
88087SOL    HW266101   8.044  11.047  13.022
88088SOL     OW66102  11.399   8.947  12.145
88088SOL    HW166103  11.418   9.035  12.179
88088SOL    HW266104  11.404   8.890  12.222
88089SOL     OW66105   2.584   9.583   3.325
88089SOL    HW166106   2.495   9.579   3.288
88089SOL    HW266107   2.605   9.491   3.344
88090SOL     OW66108   4.422  13.380   9.491
88090SOL    HW166109   4.459  13.454   9.442
88090SOL    HW266110   4.494  13.351   9.548
88091SOL     OW66111   5.686   7.884   3.341
88091SOL    HW166112   5.598   7.858   3.367
88091SOL    HW266113   5.731   7.904   3.423
88092SOL     OW66114   0.274   9.246   9.007
88092SOL    HW166115   0.235   9.186   8.944
88092SOL    HW266116   0.228   9.329   8.993
88093SOL     OW66117  14.858   1.673   3.544
88093SOL    HW166118  14.797   1.656   3.472
88093SOL    HW266119  14.801   1.693   3.619
88094SOL     OW66120   9.634   8.414   7.583
88094SOL    HW166121   9.607   8.443   7.670
88094SOL    HW266122   9.650   8.320   7.594
88095SOL     OW66123   7.833   0.946   8.014
88095SOL    HW166124   7.893   0.982   8.079
88095SOL    HW266125   7.754   1.001   8.021
88096SOL     OW66126  11.803   2.972   6.385
88096SOL    HW166127  11.776   2.995   6.474
88096SOL    HW266128  11.744   3.023   6.329
88097SOL     OW66129   3.593   7.264   2.488
88097SOL    HW166130   3.615   7.233   2.401
88097SOL    HW266131   3.503   7.296   2.480
88098SOL     OW66132   6.555  13.827   0.234
88098SOL    HW166133   6.573  13.920   0.240
88098SOL    HW266134   6.463  13.821   0.208
88099SOL     OW66135   1.857   6.021   5.633
88099SOL    HW166136   1.889   6.083   5.567
88099SOL    HW266137   1.911   5.943   5.622
88100SOL     OW66138   7.686   1.626  14.220
88100SOL    HW166139   7.722   1.653  14.305
88100SOL    HW266140   7.742   1.670  14.156
88101SOL     OW66141   1.963   7.715   4.488
88101SOL    HW166142   1.933   7.669   4.567
88101SOL    HW266143   2.055   7.691   4.481
88102SOL     OW66144  13.886  10.549   0.217
88102SOL    HW166145  13.882  10.495   0.297
88102SOL    HW266146  13.801  10.592   0.213
88103SOL     OW66147  12.174  12.813   9.661
88103SOL    HW166148  12.180  12.748   9.732
88103SOL    HW266149  12.193  12.896   9.703
88104SOL     OW66150   0.581   3.520  14.852
88104SOL    HW166151   0.498   3.560   0.004
88104SOL    HW266152   0.589   3.538  14.758
88105SOL     OW66153   6.858   9.256   2.976
88105SOL    HW166154   6.813   9.223   3.054
88105SOL    HW266155   6.946   9.278   3.007
88106SOL     OW66156   7.583   1.060   7.759
88106SOL    HW166157   7.557   0.969   7.773
88106SOL    HW266158   7.659   1.055   7.701
88107SOL     OW66159  14.698  10.479  12.546
88107SOL    HW166160  14.672  10.568  12.569
88107SOL    HW266161  14.793  10.485  12.534
88108SOL     OW66162  12.818   4.957  10.337
88108SOL    HW166163  12.898   4.945  10.286
88108SOL    HW266164  12.822   4.887  10.403
88109SOL     OW66165   8.219   8.342   5.446
88109SOL    HW166166   8.174   8.427   5.445
88109SOL    HW266167   8.161   8.284   5.397
88110SOL     OW66168   4.548   4.223   3.860
88110SOL    HW166169   4.603   4.147   3.880
88110SOL    HW266170   4.494   4.234   3.938
88111SOL     OW66171  12.840  13.107  13.388
88111SOL    HW166172  12.761  13.159  13.373
88111SOL    HW266173  12.876  13.093  13.301
88112SOL     OW66174  12.727   0.203  10.882
88112SOL    HW166175  12.705   0.218  10.790
88112SOL    HW266176  12.714   0.109  10.895
88113SOL     OW66177   7.682  12.488   7.712
88113SOL    HW166178   7.603  12.453   7.671
88113SOL    HW266179   7.651  12.559   7.767
88114SOL     OW66180  11.997  10.011  12.223
88114SOL    HW166181  11.963   9.957  12.294
88114SOL    HW266182  11.946   9.985  12.147
88115SOL     OW66183  10.353   6.311   2.240
88115SOL    HW166184  10.349   6.407   2.235
88115SOL    HW266185  10.340   6.281   2.150
88116SOL     OW66186  14.590  12.561   3.419
88116SOL    HW166187  14.538  12.640   3.403
88116SOL    HW266188  14.675  12.594   3.451
88117SOL     OW66189  12.380   6.862   9.104
88117SOL    HW166190  12.305   6.866   9.164
88117SOL    HW266191  12.381   6.771   9.074
88118SOL     OW66192   8.545  13.953   1.852
88118SOL    HW166193   8.638  13.968   1.835
88118SOL    HW266194   8.541  13.863   1.885
88119SOL     OW66195   1.171   1.524  12.625
88119SOL    HW166196   1.161   1.616  12.650
88119SOL    HW266197   1.217   1.484  12.699
88120SOL     OW66198  14.670  13.054  14.061
88120SOL    HW166199  14.765  13.065  14.061
88120SOL    HW266200  14.637  13.132  14.017
88121SOL     OW66201  10.593   1.932  14.151
88121SOL    HW166202  10.606   1.920  14.057
88121SOL    HW266203  10.619   1.848  14.189
88122SOL     OW66204  14.855   9.268   8.892
88122SOL    HW166205  14.867   9.178   8.862
88122SOL    HW266206  14.761   9.275   8.910
88123SOL     OW66207   7.941   4.794  10.377
88123SOL    HW166208   7.911   4.709  10.347
88123SOL    HW266209   7.930   4.852  10.302
88124SOL     OW66210  12.054   9.349   0.080
88124SOL    HW166211  11.986   9.342   0.013
88124SOL    HW266212  12.065   9.443   0.094
88125SOL     OW66213  10.166  12.657   0.999
88125SOL    HW166214  10.240  12.607   0.965
88125SOL    HW266215  10.116  12.594   1.052
88126SOL     OW66216  12.585   4.554   1.001
88126SOL    HW166217  12.619   4.562   0.912
88126SOL    HW266218  12.662   4.540   1.056
88127SOL     OW66219   1.998   9.184  10.238
88127SOL    HW166220   2.042   9.264  10.265
88127SOL    HW266221   2.014   9.178  10.144
88128SOL     OW66222  13.940   7.863   1.861
88128SOL    HW166223  13.956   7.771   1.882
88128SOL    HW266224  13.863   7.887   1.914
88129SOL     OW66225  12.282   2.303  10.229
88129SOL    HW166226  12.305   2.211  10.232
88129SOL    HW266227  12.273   2.324  10.136
88130SOL     OW66228   0.762   1.849   3.275
88130SOL    HW166229   0.771   1.813   3.364
88130SOL    HW266230   0.712   1.782   3.228
88131SOL     OW66231   8.680  13.019  13.164
88131SOL    HW166232   8.607  12.967  13.129
88131SOL    HW266233   8.691  13.090  13.102
88132SOL     OW66234  14.491   4.504   3.172
88132SOL    HW166235  14.557   4.438   3.196
88132SOL    HW266236  14.473   4.551   3.253
88133SOL     OW66237  10.815   0.488  10.576
88133SOL    HW166238  10.909   0.505  10.571
88133SOL    HW266239  10.795   0.494  10.669
88134SOL     OW66240   6.151   7.033   2.924
88134SOL    HW166241   6.158   7.114   2.974
88134SOL    HW266242   6.099   6.975   2.980
88135SOL     OW66243  11.986  12.041   0.848
88135SOL    HW166244  11.938  12.123   0.834
88135SOL    HW266245  12.075  12.059   0.817
88136SOL     OW66246   7.332  12.211  12.580
88136SOL    HW166247   7.302  12.261  12.505
88136SOL    HW266248   7.292  12.125  12.570
88137SOL     OW66249   1.726   1.063   4.645
88137SOL    HW166250   1.745   0.969   4.656
88137SOL    HW266251   1.809   1.100   4.613
88138SOL     OW66252   7.913   5.135   6.859
88138SOL    HW166253   8.006   5.157   6.853
88138SOL    HW266254   7.879   5.191   6.928
88139SOL     OW66255  10.990   0.253  13.691
88139SOL    HW166256  10.934   0.215  13.759
88139SOL    HW266257  10.967   0.204  13.611
88140SOL     OW66258   4.298   4.339  13.408
88140SOL    HW166259   4.211   4.367  13.379
88140SOL    HW266260   4.351   4.418  13.403
88141SOL     OW66261   5.082   0.738   6.519
88141SOL    HW166262   5.103   0.645   6.507
88141SOL    HW266263   5.022   0.739   6.595
88142SOL     OW66264  12.758   2.626   9.437
88142SOL    HW166265  12.667   2.597   9.440
88142SOL    HW266266  12.765   2.677   9.357
88143SOL     OW66267  14.130   5.938   7.367
88143SOL    HW166268  14.041   5.971   7.378
88143SOL    HW266269  14.146   5.944   7.273
88144SOL     OW66270   4.083  11.010  13.822
88144SOL    HW166271   4.064  10.940  13.884
88144SOL    HW266272   4.099  11.087  13.876
88145SOL     OW66273   4.476   6.145   3.038
88145SOL    HW166274   4.381   6.132   3.035
88145SOL    HW266275   4.506   6.124   2.949
88146SOL     OW66276   7.927  14.161   8.683
88146SOL    HW166277   7.890  14.219   8.749
88146SOL    HW266278   8.020  14.159   8.703
88147SOL     OW66279   7.015   6.581   4.515
88147SOL    HW166280   7.018   6.525   4.592
88147SOL    HW266281   6.927   6.618   4.515
88148SOL     OW66282   3.720  12.979  12.563
88148SOL    HW166283   3.771  12.986  12.644
88148SOL    HW266284   3.753  13.049  12.508
88149SOL     OW66285  13.147  10.460   0.994
88149SOL    HW166286  13.221  10.448   0.934
88149SOL    HW266287  13.076  10.492   0.938
88150SOL     OW66288  12.249   9.635   1.969
88150SOL    HW166289  12.250   9.718   2.017
88150SOL    HW266290  12.156   9.617   1.956
88151SOL     OW66291   1.008   0.058  10.872
88151SOL    HW166292   1.010   0.127  10.939
88151SOL    HW266293   0.915   0.041  10.857
88152SOL     OW66294   2.556  12.586   1.223
88152SOL    HW166295   2.501  12.624   1.292
88152SOL    HW266296   2.645  12.611   1.247
88153SOL     OW66297  14.157   6.066   1.633
88153SOL    HW166298  14.080   6.053   1.577
88153SOL    HW266299  14.209   5.986   1.620
88154SOL     OW66300   6.557   2.955   7.173
88154SOL    HW166301   6.498   2.905   7.229
88154SOL    HW266302   6.547   2.916   7.087
88155SOL     OW66303  11.109   2.571   5.683
88155SOL    HW166304  11.113   2.652   5.733
88155SOL    HW266305  11.197   2.562   5.646
88156SOL     OW66306   3.654  10.666  14.237
88156SOL    HW166307   3.653  10.731  14.307
88156SOL    HW266308   3.562  10.642  14.226
88157SOL     OW66309   5.957   0.322  12.511
88157SOL    HW166310   5.870   0.362  12.510
88157SOL    HW266311   6.016   0.390  12.478
88158SOL     OW66312   2.834  10.334   1.808
88158SOL    HW166313   2.771  10.304   1.743
88158SOL    HW266314   2.870  10.415   1.772
88159SOL     OW66315   6.886   2.386   0.263
88159SOL    HW166316   6.808   2.384   0.208
88159SOL    HW266317   6.937   2.461   0.231
88160SOL     OW66318   4.274   5.980  14.864
88160SOL    HW166319   4.317   5.979  14.778
88160SOL    HW266320   4.257   5.888   0.010
88161SOL     OW66321  10.043   1.990  11.083
88161SOL    HW166322  10.002   1.905  11.066
88161SOL    HW266323  10.027   2.006  11.176
88162SOL     OW66324   5.542  14.222   3.847
88162SOL    HW166325   5.509  14.150   3.900
88162SOL    HW266326   5.592  14.276   3.908
88163SOL     OW66327   1.134   3.604   5.097
88163SOL    HW166328   1.140   3.536   5.164
88163SOL    HW266329   1.043   3.633   5.099
88164SOL     OW66330   5.535   2.327   4.525
88164SOL    HW166331   5.545   2.277   4.606
88164SOL    HW266332   5.521   2.417   4.553
88165SOL     OW66333   6.692   5.717  12.805
88165SOL    HW166334   6.619   5.755  12.756
88165SOL    HW266335   6.770   5.759  12.770
88166SOL     OW66336   8.494   7.900   7.073
88166SOL    HW166337   8.399   7.890   7.079
88166SOL    HW266338   8.511   7.990   7.102
88167SOL     OW66339   4.911  13.773   0.492
88167SOL    HW166340   4.841  13.719   0.456
88167SOL    HW266341   4.936  13.832   0.421
88168SOL     OW66342   9.636  10.379  11.796
88168SOL    HW166343   9.680  10.295  11.792
88168SOL    HW266344   9.700  10.438  11.835
88169SOL     OW66345   3.882  12.866   5.678
88169SOL    HW166346   3.918  12.942   5.633
88169SOL    HW266347   3.953  12.802   5.677
88170SOL     OW66348  13.590   4.401   8.805
88170SOL    HW166349  13.535   4.359   8.739
88170SOL    HW266350  13.673   4.417   8.760
88171SOL     OW66351   9.724   0.768  12.399
88171SOL    HW166352   9.719   0.769  12.494
88171SOL    HW266353   9.818   0.759  12.380
88172SOL     OW66354  11.960  11.652  12.037
88172SOL    HW166355  11.885  11.686  12.087
88172SOL    HW266356  11.962  11.706  11.958
88173SOL     OW66357  13.045   0.588   4.006
88173SOL    HW166358  13.093   0.527   3.950
88173SOL    HW266359  13.024   0.662   3.948
88174SOL     OW66360   6.131   9.788   0.764
88174SOL    HW166361   6.046   9.744   0.761
88174SOL    HW266362   6.137   9.822   0.853
88175SOL     OW66363   1.360  10.893   4.694
88175SOL    HW166364   1.436  10.871   4.640
88175SOL    HW266365   1.350  10.987   4.685
88176SOL     OW66366  13.280   0.332   5.293
88176SOL    HW166367  13.206   0.392   5.292
88176SOL    HW266368  13.345   0.375   5.348
88177SOL     OW66369   6.972  14.161   4.956
88177SOL    HW166370   7.023  14.190   4.881
88177SOL    HW266371   6.939  14.242   4.996
88178SOL     OW66372   3.880   7.360   3.137
88178SOL    HW166373   3.888   7.363   3.232
88178SOL    HW266374   3.935   7.431   3.106
88179SOL     OW66375   3.007  13.904   0.530
88179SOL    HW166376   2.944  13.923   0.460
88179SOL    HW266377   3.074  13.972   0.522
88180SOL     OW66378   1.828   5.233   5.001
88180SOL    HW166379   1.810   5.149   5.043
88180SOL    HW266380   1.772   5.296   5.047
88181SOL     OW66381   7.467  10.532   9.771
88181SOL    HW166382   7.426  10.475   9.837
88181SOL    HW266383   7.403  10.535   9.700
88182SOL     OW66384   4.158   4.313   8.316
88182SOL    HW166385   4.134   4.381   8.379
88182SOL    HW266386   4.228   4.264   8.360
88183SOL     OW66387   7.471   5.393  11.031
88183SOL    HW166388   7.531   5.461  11.002
88183SOL    HW266389   7.428   5.362  10.951
88184SOL     OW66390   4.333   1.499  13.647
88184SOL    HW166391   4.355   1.466  13.560
88184SOL    HW266392   4.347   1.424  13.705
88185SOL     OW66393  13.434  13.784   5.897
88185SOL    HW166394  13.530  13.784   5.890
88185SOL    HW266395  13.404  13.815   5.812
88186SOL     OW66396   8.289  14.766   6.837
88186SOL    HW166397   8.340  14.701   6.886
88186SOL    HW266398   8.284  14.841   6.897
88187SOL     OW66399   0.172   8.605   0.531
88187SOL    HW166400   0.230   8.600   0.607
88187SOL    HW266401   0.202   8.683   0.483
88188SOL     OW66402   4.266  11.368   0.620
88188SOL    HW166403   4.308  11.387   0.704
88188SOL    HW266404   4.331  11.395   0.555
88189SOL     OW66405  12.322   4.519   7.916
88189SOL    HW166406  12.363   4.606   7.917
88189SOL    HW266407  12.296   4.507   7.825
88190SOL     OW66408   3.669   7.325  10.370
88190SOL    HW166409   3.618   7.404  10.386
88190SOL    HW266410   3.756   7.357  10.345
88191SOL     OW66411  13.959  11.338  11.199
88191SOL    HW166412  14.026  11.395  11.236
88191SOL    HW266413  13.949  11.369  11.109
88192SOL     OW66414   5.592   4.441   1.383
88192SOL    HW166415   5.522   4.497   1.351
88192SOL    HW266416   5.600   4.463   1.476
88193SOL     OW66417  11.319   1.460  12.943
88193SOL    HW166418  11.412   1.470  12.967
88193SOL    HW266419  11.272   1.506  13.012
88194SOL     OW66420  12.232   0.067  11.799
88194SOL    HW166421  12.321   0.097  11.817
88194SOL    HW266422  12.203   0.028  11.881
88195SOL     OW66423   1.806   6.950   5.024
88195SOL    HW166424   1.771   7.011   4.958
88195SOL    HW266425   1.901   6.961   5.019
88196SOL     OW66426   8.320  12.233  11.738
88196SOL    HW166427   8.276  12.152  11.711
88196SOL    HW266428   8.254  12.279  11.791
88197SOL     OW66429   2.041  14.650   8.853
88197SOL    HW166430   2.087  14.593   8.792
88197SOL    HW266431   1.948  14.629   8.841
88198SOL     OW66432   3.703   1.741  12.443
88198SOL    HW166433   3.659   1.760  12.359
88198SOL    HW266434   3.759   1.666  12.424
88199SOL     OW66435   2.113   6.058   8.712
88199SOL    HW166436   2.090   6.082   8.622
88199SOL    HW266437   2.059   5.982   8.731
88200SOL     OW66438   1.150   6.729   4.099
88200SOL    HW166439   1.115   6.812   4.130
88200SOL    HW266440   1.124   6.726   4.006
88201SOL     OW66441   8.627  11.836   7.428
88201SOL    HW166442   8.536  11.862   7.444
88201SOL    HW266443   8.622  11.742   7.412
88202SOL     OW66444   7.260   7.762  13.802
88202SOL    HW166445   7.333   7.795  13.853
88202SOL    HW266446   7.259   7.668  13.819
88203SOL     OW66447   1.139   3.857   6.643
88203SOL    HW166448   1.063   3.914   6.633
88203SOL    HW266449   1.185   3.891   6.721
88204SOL     OW66450   0.869   3.723   5.381
88204SOL    HW166451   0.774   3.736   5.378
88204SOL    HW266452   0.895   3.759   5.466
88205SOL     OW66453   2.554   2.993   1.837
88205SOL    HW166454   2.589   2.908   1.866
88205SOL    HW266455   2.615   3.021   1.769
88206SOL     OW66456   2.496  13.467  14.525
88206SOL    HW166457   2.450  13.539  14.482
88206SOL    HW266458   2.564  13.510  14.577
88207SOL     OW66459   2.716  14.076   8.033
88207SOL    HW166460   2.705  14.041   7.945
88207SOL    HW266461   2.807  14.059   8.054
88208SOL     OW66462   6.058  12.403  12.906
88208SOL    HW166463   6.015  12.320  12.885
88208SOL    HW266464   6.014  12.467  12.852
88209SOL     OW66465  10.191   3.828  12.227
88209SOL    HW166466  10.162   3.745  12.265
88209SOL    HW266467  10.242   3.870  12.297
88210SOL     OW66468   8.614   1.885   7.446
88210SOL    HW166469   8.526   1.880   7.483
88210SOL    HW266470   8.673   1.877   7.521
88211SOL     OW66471   8.677   3.010  14.668
88211SOL    HW166472   8.630   3.057  14.599
88211SOL    HW266473   8.753   2.972  14.623
88212SOL     OW66474   5.205   7.868   0.574
88212SOL    HW166475   5.117   7.880   0.538
88212SOL    HW266476   5.191   7.841   0.665
88213SOL     OW66477   6.848   8.677   2.120
88213SOL    HW166478   6.904   8.606   2.089
88213SOL    HW266479   6.772   8.633   2.157
88214SOL     OW66480  12.563   2.330   8.291
88214SOL    HW166481  12.644   2.285   8.318
88214SOL    HW266482  12.572   2.418   8.328
88215SOL     OW66483   8.593   7.421   2.002
88215SOL    HW166484   8.619   7.494   2.057
88215SOL    HW266485   8.608   7.452   1.912
88216SOL     OW66486  13.425   0.342   1.330
88216SOL    HW166487  13.482   0.386   1.267
88216SOL    HW266488  13.471   0.260   1.350
88217SOL     OW66489   9.408  13.865   0.422
88217SOL    HW166490   9.494  13.864   0.380
88217SOL    HW266491   9.424  13.828   0.509
88218SOL     OW66492   6.932  12.558  12.061
88218SOL    HW166493   6.962  12.497  11.994
88218SOL    HW266494   6.882  12.504  12.122
88219SOL     OW66495   5.884   2.684   9.727
88219SOL    HW166496   5.940   2.761   9.720
88219SOL    HW266497   5.869   2.658   9.636
88220SOL     OW66498   3.435   9.452   1.117
88220SOL    HW166499   3.353   9.409   1.140
88220SOL    HW266500   3.409   9.527   1.063
88221SOL     OW66501  12.373  14.239  14.313
88221SOL    HW166502  12.340  14.256  14.402
88221SOL    HW266503  12.377  14.325  14.272
88222SOL     OW66504   1.362   2.832   8.519
88222SOL    HW166505   1.388   2.897   8.584
88222SOL    HW266506   1.266   2.829   8.525
88223SOL     OW66507   0.225   0.808  13.930
88223SOL    HW166508   0.269   0.893  13.931
88223SOL    HW266509   0.186   0.802  13.843
88224SOL     OW66510   1.135   1.024  12.367
88224SOL    HW166511   1.133   1.012  12.462
88224SOL    HW266512   1.220   1.065  12.350
88225SOL     OW66513   2.600  10.323   5.235
88225SOL    HW166514   2.580  10.255   5.171
88225SOL    HW266515   2.677  10.291   5.281
88226SOL     OW66516   8.770   9.759  12.104
88226SOL    HW166517   8.859   9.730  12.125
88226SOL    HW266518   8.780   9.849  12.075
88227SOL     OW66519   5.898   2.452  11.750
88227SOL    HW166520   5.992   2.467  11.741
88227SOL    HW266521   5.864   2.458  11.661
88228SOL     OW66522   9.856   7.022   5.986
88228SOL    HW166523   9.815   7.056   6.066
88228SOL    HW266524   9.784   7.012   5.924
88229SOL     OW66525  11.851  12.600   7.021
88229SOL    HW166526  11.858  12.655   6.943
88229SOL    HW266527  11.882  12.514   6.992
88230SOL     OW66528   7.962  14.243   3.882
88230SOL    HW166529   7.906  14.188   3.827
88230SOL    HW266530   8.051  14.223   3.854
88231SOL     OW66531  12.975  10.676   5.415
88231SOL    HW166532  13.056  10.643   5.454
88231SOL    HW266533  12.909  10.610   5.439
88232SOL     OW66534  14.758   0.566   7.873
88232SOL    HW166535  14.685   0.505   7.886
88232SOL    HW266536  14.777   0.560   7.779
88233SOL     OW66537   4.888  14.638   0.946
88233SOL    HW166538   4.897  14.621   1.039
88233SOL    HW266539   4.815  14.582   0.918
88234SOL     OW66540   9.735   9.057  14.042
88234SOL    HW166541   9.669   9.024  14.103
88234SOL    HW266542   9.688   9.066  13.959
88235SOL     OW66543   5.910   0.676   9.260
88235SOL    HW166544   5.837   0.736   9.242
88235SOL    HW266545   5.969   0.726   9.315
88236SOL     OW66546   3.752   7.860  10.218
88236SOL    HW166547   3.659   7.854  10.243
88236SOL    HW266548   3.763   7.950  10.190
88237SOL     OW66549  12.937   3.619  14.661
88237SOL    HW166550  12.854   3.620  14.612
88237SOL    HW266551  13.002   3.649  14.597
88238SOL     OW66552  14.589   8.393   8.274
88238SOL    HW166553  14.531   8.319   8.256
88238SOL    HW266554  14.647   8.361   8.343
88239SOL     OW66555   5.335   1.488   8.292
88239SOL    HW166556   5.316   1.560   8.352
88239SOL    HW266557   5.258   1.484   8.235
88240SOL     OW66558   8.352   2.027  13.582
88240SOL    HW166559   8.259   2.010  13.594
88240SOL    HW266560   8.396   1.961  13.636
88241SOL     OW66561   2.054  12.980   7.077
88241SOL    HW166562   2.099  12.988   6.992
88241SOL    HW266563   2.125  12.971   7.140
88242SOL     OW66564   3.671   3.677   8.244
88242SOL    HW166565   3.621   3.656   8.166
88242SOL    HW266566   3.688   3.592   8.286
88243SOL     OW66567  11.562  12.941   3.082
88243SOL    HW166568  11.582  12.857   3.041
88243SOL    HW266569  11.523  12.918   3.166
88244SOL     OW66570   4.851  13.356  12.861
88244SOL    HW166571   4.840  13.430  12.921
88244SOL    HW266572   4.901  13.392  12.788
88245SOL     OW66573  12.788  10.324   4.908
88245SOL    HW166574  12.762  10.296   4.995
88245SOL    HW266575  12.712  10.371   4.873
88246SOL     OW66576  10.783  13.963   7.699
88246SOL    HW166577  10.834  13.946   7.778
88246SOL    HW266578  10.836  13.927   7.628
88247SOL     OW66579   2.933   0.729   1.562
88247SOL    HW166580   2.871   0.736   1.489
88247SOL    HW266581   3.018   0.753   1.523
88248SOL     OW66582   1.568   1.815   6.758
88248SOL    HW166583   1.652   1.831   6.714
88248SOL    HW266584   1.547   1.899   6.798
88249SOL     OW66585   4.798   1.684   3.792
88249SOL    HW166586   4.856   1.675   3.867
88249SOL    HW266587   4.732   1.615   3.804
88250SOL     OW66588   2.329   4.794  14.743
88250SOL    HW166589   2.320   4.869  14.801
88250SOL    HW266590   2.402   4.816  14.685
88251SOL     OW66591   4.120   4.401   4.973
88251SOL    HW166592   4.151   4.464   5.039
88251SOL    HW266593   4.026   4.395   4.988
88252SOL     OW66594   9.927   2.577   2.845
88252SOL    HW166595   9.897   2.487   2.858
88252SOL    HW266596   9.853   2.621   2.803
88253SOL     OW66597   1.041  12.507   8.260
88253SOL    HW166598   1.125  12.528   8.219
88253SOL    HW266599   1.064  12.446   8.331
88254SOL     OW66600   8.901  10.637  13.827
88254SOL    HW166601   8.822  10.610  13.781
88254SOL    HW266602   8.954  10.682  13.760
88255SOL     OW66603   0.919  11.622   0.353
88255SOL    HW166604   0.865  11.693   0.389
88255SOL    HW266605   0.855  11.561   0.316
88256SOL     OW66606  14.668  13.780   7.786
88256SOL    HW166607  14.692  13.841   7.716
88256SOL    HW266608  14.720  13.808   7.861
88257SOL     OW66609  12.784   4.090   1.098
88257SOL    HW166610  12.725   4.018   1.076
88257SOL    HW266611  12.725   4.159   1.129
88258SOL     OW66612  10.651   6.316   1.315
88258SOL    HW166613  10.685   6.324   1.226
88258SOL    HW266614  10.718   6.355   1.370
88259SOL     OW66615   9.763  12.577  13.680
88259SOL    HW166616   9.742  12.571  13.773
88259SOL    HW266617   9.774  12.671  13.664
88260SOL     OW66618  14.470  13.304  11.494
88260SOL    HW166619  14.401  13.273  11.436
88260SOL    HW266620  14.546  13.252  11.470
88261SOL     OW66621  14.500   2.982   5.115
88261SOL    HW166622  14.583   2.996   5.069
88261SOL    HW266623  14.483   2.888   5.106
88262SOL     OW66624   3.072  11.560  14.259
88262SOL    HW166625   3.125  11.523  14.331
88262SOL    HW266626   3.075  11.493  14.191
88263SOL     OW66627   6.908   8.938   2.178
88263SOL    HW166628   6.868   8.856   2.148
88263SOL    HW266629   6.965   8.912   2.250
88264SOL     OW66630   1.346   4.688   0.247
88264SOL    HW166631   1.278   4.740   0.205
88264SOL    HW266632   1.346   4.605   0.199
88265SOL     OW66633   5.557   3.281   7.849
88265SOL    HW166634   5.524   3.193   7.831
88265SOL    HW266635   5.559   3.323   7.763
88266SOL     OW66636   0.311   8.445   4.960
88266SOL    HW166637   0.328   8.540   4.963
88266SOL    HW266638   0.378   8.411   4.901
88267SOL     OW66639   1.126  13.390  13.504
88267SOL    HW166640   1.073  13.418  13.579
88267SOL    HW266641   1.069  13.331  13.455
88268SOL     OW66642   0.722   7.033   1.426
88268SOL    HW166643   0.671   7.080   1.361
88268SOL    HW266644   0.800   7.003   1.379
88269SOL     OW66645   1.781  13.129  10.563
88269SOL    HW166646   1.799  13.164  10.650
88269SOL    HW266647   1.722  13.193  10.524
88270SOL     OW66648   5.647  12.083  14.451
88270SOL    HW166649   5.728  12.084  14.502
88270SOL    HW266650   5.668  12.130  14.371
88271SOL     OW66651   1.690   2.887  13.928
88271SOL    HW166652   1.752   2.826  13.889
88271SOL    HW266653   1.745   2.954  13.970
88272SOL     OW66654   9.054   6.257   3.235
88272SOL    HW166655   9.146   6.261   3.260
88272SOL    HW266656   9.054   6.273   3.140
88273SOL     OW66657   9.204   3.531  12.926
88273SOL    HW166658   9.169   3.449  12.891
88273SOL    HW266659   9.128   3.577  12.960
88274SOL     OW66660   9.601   9.449   5.463
88274SOL    HW166661   9.585   9.387   5.534
88274SOL    HW266662   9.618   9.533   5.507
88275SOL     OW66663  10.831  13.383   8.692
88275SOL    HW166664  10.736  13.396   8.701
88275SOL    HW266665  10.860  13.456   8.637
88276SOL     OW66666   6.623   3.030   1.528
88276SOL    HW166667   6.549   2.977   1.557
88276SOL    HW266668   6.601   3.055   1.438
88277SOL     OW66669  12.487   6.902   1.940
88277SOL    HW166670  12.568   6.898   1.889
88277SOL    HW266671  12.428   6.956   1.887
88278SOL     OW66672   9.351  10.385  10.965
88278SOL    HW166673   9.283  10.341  10.914
88278SOL    HW266674   9.317  10.384  11.054
88279SOL     OW66675  13.239   1.056   9.193
88279SOL    HW166676  13.178   1.021   9.258
88279SOL    HW266677  13.325   1.044   9.233
88280SOL     OW66678   6.832  10.673  11.326
88280SOL    HW166679   6.901  10.707  11.383
88280SOL    HW266680   6.753  10.675  11.379
88281SOL     OW66681   5.338  11.555   9.152
88281SOL    HW166682   5.333  11.460   9.142
88281SOL    HW266683   5.308  11.590   9.068
88282SOL     OW66684  11.346  10.830  13.016
88282SOL    HW166685  11.380  10.809  12.929
88282SOL    HW266686  11.309  10.748  13.048
88283SOL     OW66687   7.863  12.813   0.440
88283SOL    HW166688   7.782  12.761   0.441
88283SOL    HW266689   7.906  12.786   0.358
88284SOL     OW66690   5.596   4.819   0.897
88284SOL    HW166691   5.554   4.886   0.951
88284SOL    HW266692   5.549   4.738   0.917
88285SOL     OW66693   4.247  13.583   5.010
88285SOL    HW166694   4.173  13.523   5.002
88285SOL    HW266695   4.317  13.530   5.046
88286SOL     OW66696  13.870   4.626   4.684
88286SOL    HW166697  13.856   4.632   4.779
88286SOL    HW266698  13.932   4.555   4.673
88287SOL     OW66699  10.711   3.579   5.716
88287SOL    HW166700  10.804   3.588   5.734
88287SOL    HW266701  10.705   3.503   5.657
88288SOL     OW66702   1.688   3.795  14.801
88288SOL    HW166703   1.730   3.767   0.009
88288SOL    HW266704   1.598   3.816  14.825
88289SOL     OW66705   1.878   1.175  14.653
88289SOL    HW166706   1.785   1.153  14.665
88289SOL    HW266707   1.908   1.197  14.742
88290SOL     OW66708   2.855   9.638   8.653
88290SOL    HW166709   2.879   9.644   8.746
88290SOL    HW266710   2.759   9.643   8.654
88291SOL     OW66711  11.800   3.273  14.622
88291SOL    HW166712  11.750   3.261  14.703
88291SOL    HW266713  11.868   3.205  14.626
88292SOL     OW66714   6.873   2.266   5.175
88292SOL    HW166715   6.786   2.229   5.157
88292SOL    HW266716   6.893   2.238   5.264
88293SOL     OW66717   0.910   5.127   8.339
88293SOL    HW166718   0.899   5.183   8.262
88293SOL    HW266719   0.951   5.184   8.405
88294SOL     OW66720  10.995  12.505   0.773
88294SOL    HW166721  11.049  12.489   0.850
88294SOL    HW266722  10.963  12.418   0.747
88295SOL     OW66723   9.216   2.026   5.529
88295SOL    HW166724   9.196   2.108   5.485
88295SOL    HW266725   9.168   2.032   5.612
88296SOL     OW66726   9.651   6.689  13.235
88296SOL    HW166727   9.634   6.779  13.208
88296SOL    HW266728   9.578   6.638  13.198
88297SOL     OW66729  10.292  12.516  13.216
88297SOL    HW166730  10.246  12.595  13.189
88297SOL    HW266731  10.281  12.512  13.311
88298SOL     OW66732   0.725   7.820  13.342
88298SOL    HW166733   0.817   7.805  13.323
88298SOL    HW266734   0.712   7.914  13.330
88299SOL     OW66735   3.940  12.891   8.536
88299SOL    HW166736   3.856  12.848   8.521
88299SOL    HW266737   3.969  12.916   8.448
88300SOL     OW66738   7.211   4.365  10.345
88300SOL    HW166739   7.123   4.391  10.374
88300SOL    HW266740   7.270   4.423  10.393
88301SOL     OW66741   2.572   7.459   8.492
88301SOL    HW166742   2.508   7.476   8.562
88301SOL    HW266743   2.617   7.380   8.520
88302SOL     OW66744   6.283   5.852  13.890
88302SOL    HW166745   6.355   5.862  13.953
88302SOL    HW266746   6.304   5.772  13.842
88303SOL     OW66747   1.573   3.558   7.452
88303SOL    HW166748   1.575   3.562   7.548
88303SOL    HW266749   1.481   3.543   7.431
88304SOL     OW66750  13.761  12.200  10.912
88304SOL    HW166751  13.797  12.260  10.847
88304SOL    HW266752  13.774  12.113  10.874
88305SOL     OW66753  14.705  12.305  12.036
88305SOL    HW166754  14.746  12.297  12.122
88305SOL    HW266755  14.653  12.225  12.026
88306SOL     OW66756  14.111   0.215   3.882
88306SOL    HW166757  14.056   0.152   3.836
88306SOL    HW266758  14.200   0.193   3.856
88307SOL     OW66759  13.848   7.459   5.202
88307SOL    HW166760  13.865   7.545   5.241
88307SOL    HW266761  13.927   7.408   5.220
88308SOL     OW66762   1.120   4.257   5.962
88308SOL    HW166763   1.057   4.314   6.005
88308SOL    HW266764   1.078   4.171   5.961
88309SOL     OW66765   3.695   0.595  13.879
88309SOL    HW166766   3.633   0.529  13.849
88309SOL    HW266767   3.666   0.676  13.836
88310SOL     OW66768   2.436   3.223   9.605
88310SOL    HW166769   2.366   3.287   9.624
88310SOL    HW266770   2.392   3.138   9.611
88311SOL     OW66771   5.269   4.480   9.419
88311SOL    HW166772   5.186   4.439   9.444
88311SOL    HW266773   5.272   4.560   9.471
88312SOL     OW66774   5.038   0.449   9.792
88312SOL    HW166775   5.054   0.469   9.885
88312SOL    HW266776   4.985   0.522   9.760
88313SOL     OW66777   4.595   2.687  11.979
88313SOL    HW166778   4.624   2.616  12.035
88313SOL    HW266779   4.670   2.746  11.973
88314SOL     OW66780  14.689  11.057   3.014
88314SOL    HW166781  14.611  11.014   2.977
88314SOL    HW266782  14.702  11.014   3.098
88315SOL     OW66783  10.008   1.617  13.653
88315SOL    HW166784  10.092   1.621  13.609
88315SOL    HW266785  10.030   1.608  13.746
88316SOL     OW66786   0.437  13.713   0.250
88316SOL    HW166787   0.445  13.708   0.154
88316SOL    HW266788   0.442  13.623   0.279
88317SOL     OW66789   0.653   9.449   4.744
88317SOL    HW166790   0.637   9.537   4.777
88317SOL    HW266791   0.636   9.391   4.818
88318SOL     OW66792   0.231   6.872   2.870
88318SOL    HW166793   0.158   6.896   2.813
88318SOL    HW266794   0.275   6.801   2.824
88319SOL     OW66795  11.722   8.861  11.317
88319SOL    HW166796  11.743   8.772  11.289
88319SOL    HW266797  11.688   8.850  11.406
88320SOL     OW66798  14.613  11.340   4.469
88320SOL    HW166799  14.626  11.424   4.425
88320SOL    HW266800  14.673  11.341   4.543
88321SOL     OW66801   8.957   7.604   4.946
88321SOL    HW166802   8.879   7.635   4.900
88321SOL    HW266803   9.029   7.656   4.908
88322SOL     OW66804  10.933   4.034  14.298
88322SOL    HW166805  10.908   4.036  14.391
88322SOL    HW266806  10.951   4.125  14.277
88323SOL     OW66807   1.114  10.369  11.918
88323SOL    HW166808   1.046  10.320  11.963
88323SOL    HW266809   1.071  10.449  11.889
88324SOL     OW66810   3.211  10.495   9.641
88324SOL    HW166811   3.239  10.586   9.650
88324SOL    HW266812   3.148  10.482   9.711
88325SOL     OW66813   7.969   5.638   3.993
88325SOL    HW166814   8.005   5.723   4.019
88325SOL    HW266815   8.014   5.618   3.911
88326SOL     OW66816   4.122   3.463  12.803
88326SOL    HW166817   4.028   3.447  12.813
88326SOL    HW266818   4.127   3.555  12.775
88327SOL     OW66819  10.255   0.419   4.636
88327SOL    HW166820  10.328   0.358   4.643
88327SOL    HW266821  10.213   0.396   4.553
88328SOL     OW66822   2.560  14.755   6.035
88328SOL    HW166823   2.523  14.825   6.089
88328SOL    HW266824   2.498  14.683   6.042
88329SOL     OW66825  12.097  10.108   9.935
88329SOL    HW166826  12.149  10.085   9.857
88329SOL    HW266827  12.017  10.056   9.926
88330SOL     OW66828   1.684  14.570   0.142
88330SOL    HW166829   1.760  14.595   0.196
88330SOL    HW266830   1.630  14.517   0.200
88331SOL     OW66831   1.639   2.773  13.037
88331SOL    HW166832   1.703   2.810  12.977
88331SOL    HW266833   1.691   2.739  13.110
88332SOL     OW66834   4.575   1.405  11.599
88332SOL    HW166835   4.635   1.475  11.626
88332SOL    HW266836   4.631   1.339  11.558
88333SOL     OW66837  10.699   6.590   1.005
88333SOL    HW166838  10.722   6.508   1.048
88333SOL    HW266839  10.621   6.620   1.051
88334SOL     OW66840   2.100   3.410  13.075
88334SOL    HW166841   2.063   3.325  13.054
88334SOL    HW266842   2.179   3.390  13.126
88335SOL     OW66843   8.885   7.177   8.119
88335SOL    HW166844   8.810   7.129   8.154
88335SOL    HW266845   8.960   7.119   8.135
88336SOL     OW66846  11.083   2.642  11.320
88336SOL    HW166847  11.003   2.599  11.348
88336SOL    HW266848  11.057   2.695  11.245
88337SOL     OW66849  13.178   6.744   0.614
88337SOL    HW166850  13.147   6.804   0.682
88337SOL    HW266851  13.256   6.786   0.578
88338SOL     OW66852   8.091   2.482   9.285
88338SOL    HW166853   8.169   2.465   9.337
88338SOL    HW266854   8.037   2.539   9.340
88339SOL     OW66855   3.536   0.781   1.994
88339SOL    HW166856   3.451   0.806   2.031
88339SOL    HW266857   3.600   0.808   2.060
88340SOL     OW66858   6.348  14.663   4.662
88340SOL    HW166859   6.277  14.657   4.726
88340SOL    HW266860   6.385  14.750   4.677
88341SOL     OW66861   0.667  12.401   1.494
88341SOL    HW166862   0.759  12.389   1.467
88341SOL    HW266863   0.659  12.494   1.511
88342SOL     OW66864  10.153   2.666  14.774
88342SOL    HW166865  10.224   2.617  14.814
88342SOL    HW266866  10.092   2.684  14.846
88343SOL     OW66867  14.836   9.893  14.456
88343SOL    HW166868  14.774   9.859  14.521
88343SOL    HW266869   0.042   9.911  14.507
88344SOL     OW66870   9.161  13.811   5.376
88344SOL    HW166871   9.182  13.802   5.469
88344SOL    HW266872   9.245  13.832   5.334
88345SOL     OW66873   6.449   5.901   2.621
88345SOL    HW166874   6.529   5.892   2.674
88345SOL    HW266875   6.472   5.966   2.555
88346SOL     OW66876   1.240   6.226   3.385
88346SOL    HW166877   1.277   6.179   3.460
88346SOL    HW266878   1.186   6.162   3.340
88347SOL     OW66879   6.506  11.610   9.858
88347SOL    HW166880   6.498  11.634   9.766
88347SOL    HW266881   6.585  11.556   9.862
88348SOL     OW66882  11.184   6.877  14.194
88348SOL    HW166883  11.228   6.839  14.270
88348SOL    HW266884  11.199   6.814  14.123
88349SOL     OW66885  14.506   3.863   3.581
88349SOL    HW166886  14.429   3.897   3.535
88349SOL    HW266887  14.561   3.828   3.511
88350SOL     OW66888   0.615   3.893   5.416
88350SOL    HW166889   0.533   3.914   5.370
88350SOL    HW266890   0.630   3.968   5.473
88351SOL     OW66891   4.553   4.894  13.807
88351SOL    HW166892   4.498   4.816  13.806
88351SOL    HW266893   4.495   4.964  13.836
88352SOL     OW66894   7.701   0.598   7.757
88352SOL    HW166895   7.761   0.632   7.822
88352SOL    HW266896   7.755   0.542   7.701
88353SOL     OW66897   4.952   7.167   8.846
88353SOL    HW166898   4.881   7.110   8.875
88353SOL    HW266899   5.032   7.120   8.869
88354SOL     OW66900   5.868   7.424   2.759
88354SOL    HW166901   5.815   7.426   2.679
88354SOL    HW266902   5.958   7.412   2.727
88355SOL     OW66903   0.093   0.566   8.036
88355SOL    HW166904   0.020   0.580   7.976
88355SOL    HW266905   0.063   0.604   8.119
88356SOL     OW66906   3.120  14.633   1.021
88356SOL    HW166907   3.119  14.538   1.011
88356SOL    HW266908   3.055  14.652   1.088
88357SOL     OW66909   3.819  13.144  10.175
88357SOL    HW166910   3.900  13.096  10.156
88357SOL    HW266911   3.817  13.149  10.270
88358SOL     OW66912  11.419  12.343  14.850
88358SOL    HW166913  11.387  12.273  14.793
88358SOL    HW266914  11.350  12.409  14.848
88359SOL     OW66915   6.090   4.074  14.521
88359SOL    HW166916   6.058   3.994  14.479
88359SOL    HW266917   6.011   4.124  14.541
88360SOL     OW66918   0.159  12.336  12.899
88360SOL    HW166919   0.188  12.290  12.821
88360SOL    HW266920   0.235  12.335  12.957
88361SOL     OW66921   8.240   5.796   5.398
88361SOL    HW166922   8.182   5.749   5.458
88361SOL    HW266923   8.327   5.759   5.416
88362SOL     OW66924   8.886  14.685   5.322
88362SOL    HW166925   8.872  14.713   5.412
88362SOL    HW266926   8.977  14.708   5.304
88363SOL     OW66927   9.510   6.865  11.241
88363SOL    HW166928   9.501   6.770  11.228
88363SOL    HW266929   9.544   6.897  11.157
88364SOL     OW66930   1.473   5.058  13.811
88364SOL    HW166931   1.481   4.979  13.759
88364SOL    HW266932   1.393   5.100  13.779
88365SOL     OW66933   4.692   0.049  11.431
88365SOL    HW166934   4.712   0.103  11.354
88365SOL    HW266935   4.658   0.110  11.496
88366SOL     OW66936   2.617  11.501   1.494
88366SOL    HW166937   2.613  11.415   1.453
88366SOL    HW266938   2.571  11.559   1.433
88367SOL     OW66939   4.141  11.600   4.381
88367SOL    HW166940   4.165  11.660   4.452
88367SOL    HW266941   4.048  11.584   4.394
88368SOL     OW66942   8.911   7.383   4.090
88368SOL    HW166943   8.835   7.396   4.033
88368SOL    HW266944   8.970   7.454   4.068
88369SOL     OW66945   5.532  13.050   9.097
88369SOL    HW166946   5.595  13.029   9.028
88369SOL    HW266947   5.549  13.141   9.118
88370SOL     OW66948  10.939  10.476   6.012
88370SOL    HW166949  10.980  10.500   5.929
88370SOL    HW266950  10.860  10.429   5.988
88371SOL     OW66951   9.422   4.240   5.196
88371SOL    HW166952   9.349   4.274   5.144
88371SOL    HW266953   9.383   4.172   5.251
88372SOL     OW66954   8.110   7.343   6.792
88372SOL    HW166955   8.125   7.281   6.863
88372SOL    HW266956   8.190   7.396   6.790
88373SOL     OW66957   5.215  14.632   7.956
88373SOL    HW166958   5.144  14.568   7.950
88373SOL    HW266959   5.193  14.685   8.033
88374SOL     OW66960  14.765   7.443   3.136
88374SOL    HW166961  14.816   7.381   3.187
88374SOL    HW266962  14.826   7.514   3.116
88375SOL     OW66963  11.058   0.803  11.113
88375SOL    HW166964  11.077   0.709  11.115
88375SOL    HW266965  11.009   0.816  11.032
88376SOL     OW66966   4.517  13.936   4.145
88376SOL    HW166967   4.456  14.006   4.169
88376SOL    HW266968   4.523  13.940   4.050
88377SOL     OW66969   6.689   1.385  14.573
88377SOL    HW166970   6.686   1.395  14.668
88377SOL    HW266971   6.603   1.416  14.543
88378SOL     OW66972  10.676   3.535   8.836
88378SOL    HW166973  10.730   3.543   8.757
88378SOL    HW266974  10.606   3.474   8.812
88379SOL     OW66975   9.198   7.695  12.814
88379SOL    HW166976   9.259   7.624  12.833
88379SOL    HW266977   9.137   7.658  12.749
88380SOL     OW66978   4.353  13.161   2.239
88380SOL    HW166979   4.440  13.186   2.267
88380SOL    HW266980   4.303  13.151   2.320
88381SOL     OW66981   4.998   7.357   2.807
88381SOL    HW166982   5.007   7.364   2.712
88381SOL    HW266983   4.994   7.263   2.825
88382SOL     OW66984   6.829  13.590   7.047
88382SOL    HW166985   6.849  13.634   6.964
88382SOL    HW266986   6.768  13.521   7.022
88383SOL     OW66987  12.216  14.586   4.224
88383SOL    HW166988  12.296  14.548   4.260
88383SOL    HW266989  12.189  14.652   4.287
88384SOL     OW66990   5.400   5.178  11.991
88384SOL    HW166991   5.465   5.112  11.964
88384SOL    HW266992   5.450   5.260  11.993
88385SOL     OW66993   5.194   0.239   4.666
88385SOL    HW166994   5.173   0.152   4.631
88385SOL    HW266995   5.186   0.297   4.591
88386SOL     OW66996  11.401  13.723  11.598
88386SOL    HW166997  11.464  13.681  11.658
88386SOL    HW266998  11.342  13.652  11.573
88387SOL     OW66999   4.319   0.065  12.710
88387SOL    HW167000   4.317   0.104  12.798
88387SOL    HW267001   4.296   0.137  12.651
88388SOL     OW67002  12.459  12.451   0.544
88388SOL    HW167003  12.503  12.371   0.573
88388SOL    HW267004  12.529  12.505   0.507
88389SOL     OW67005  12.513   4.210  13.799
88389SOL    HW167006  12.568   4.220  13.876
88389SOL    HW267007  12.521   4.293  13.752
88390SOL     OW67008   2.264  10.404   0.403
88390SOL    HW167009   2.275  10.312   0.378
88390SOL    HW267010   2.174  10.425   0.377
88391SOL     OW67011   1.765   1.358   3.667
88391SOL    HW167012   1.761   1.265   3.689
88391SOL    HW267013   1.675   1.389   3.680
88392SOL     OW67014   9.663  10.617  10.539
88392SOL    HW167015   9.576  10.615  10.577
88392SOL    HW267016   9.709  10.687  10.586
88393SOL     OW67017   8.255   4.328   8.703
88393SOL    HW167018   8.262   4.421   8.725
88393SOL    HW267019   8.188   4.294   8.761
88394SOL     OW67020  11.293  13.171   4.902
88394SOL    HW167021  11.308  13.080   4.873
88394SOL    HW267022  11.201  13.188   4.880
88395SOL     OW67023  11.002  12.083   3.002
88395SOL    HW167024  11.062  12.136   2.950
88395SOL    HW267025  11.059  12.022   3.050
88396SOL     OW67026   1.036   4.214   2.889
88396SOL    HW167027   0.954   4.215   2.841
88396SOL    HW267028   1.103   4.203   2.822
88397SOL     OW67029  13.583   4.997   3.201
88397SOL    HW167030  13.601   5.008   3.294
88397SOL    HW267031  13.516   4.929   3.198
88398SOL     OW67032  12.472   3.388   6.261
88398SOL    HW167033  12.422   3.318   6.218
88398SOL    HW267034  12.561   3.353   6.266
88399SOL     OW67035  12.387   4.875   5.689
88399SOL    HW167036  12.395   4.968   5.709
88399SOL    HW267037  12.411   4.831   5.771
88400SOL     OW67038  10.383  12.835  13.015
88400SOL    HW167039  10.306  12.778  13.008
88400SOL    HW267040  10.456  12.776  13.033
88401SOL     OW67041   0.783   5.312  10.759
88401SOL    HW167042   0.814   5.229  10.723
88401SOL    HW267043   0.863   5.363  10.775
88402SOL     OW67044   1.001  11.838   1.847
88402SOL    HW167045   0.915  11.800   1.863
88402SOL    HW267046   1.048  11.827   1.929
88403SOL     OW67047   7.481   6.087   9.182
88403SOL    HW167048   7.397   6.121   9.212
88403SOL    HW267049   7.540   6.101   9.256
88404SOL     OW67050   2.179   9.191  11.830
88404SOL    HW167051   2.174   9.135  11.907
88404SOL    HW267052   2.273   9.197  11.810
88405SOL     OW67053   3.529   3.156  12.018
88405SOL    HW167054   3.500   3.230  11.966
88405SOL    HW267055   3.595   3.192  12.077
88406SOL     OW67056   1.634   8.424   8.749
88406SOL    HW167057   1.577   8.392   8.819
88406SOL    HW267058   1.693   8.350   8.731
88407SOL     OW67059   3.569   8.108  13.011
88407SOL    HW167060   3.522   8.041  13.061
88407SOL    HW267061   3.552   8.190  13.059
88408SOL     OW67062   1.535  11.820   7.631
88408SOL    HW167063   1.542  11.914   7.618
88408SOL    HW267064   1.449  11.807   7.670
88409SOL     OW67065   1.295  12.662   9.262
88409SOL    HW167066   1.323  12.752   9.276
88409SOL    HW267067   1.366  12.609   9.299
88410SOL     OW67068   9.510  12.217   5.245
88410SOL    HW167069   9.596  12.204   5.284
88410SOL    HW267070   9.518  12.300   5.198
88411SOL     OW67071   4.508   0.703   6.863
88411SOL    HW167072   4.513   0.668   6.774
88411SOL    HW267073   4.584   0.760   6.871
88412SOL     OW67074  10.860   5.725  12.703
88412SOL    HW167075  10.858   5.634  12.676
88412SOL    HW267076  10.811   5.727  12.785
88413SOL     OW67077   8.973  14.703   5.941
88413SOL    HW167078   9.011  14.783   5.905
88413SOL    HW267079   8.963  14.645   5.865
88414SOL     OW67080   5.403  10.317   1.736
88414SOL    HW167081   5.489  10.291   1.703
88414SOL    HW267082   5.346  10.315   1.659
88415SOL     OW67083   6.307   6.275  10.148
88415SOL    HW167084   6.371   6.287  10.219
88415SOL    HW267085   6.232   6.235  10.191
88416SOL     OW67086  10.034  11.385   7.545
88416SOL    HW167087   9.957  11.329   7.535
88416SOL    HW267088  10.102  11.341   7.494
88417SOL     OW67089  10.022  13.118   5.201
88417SOL    HW167090  10.051  13.209   5.192
88417SOL    HW267091   9.942  13.113   5.148
88418SOL     OW67092  10.286   5.597   4.258
88418SOL    HW167093  10.358   5.597   4.196
88418SOL    HW267094  10.255   5.688   4.259
88419SOL     OW67095   4.432   8.365   4.302
88419SOL    HW167096   4.492   8.296   4.330
88419SOL    HW267097   4.347   8.322   4.296
88420SOL     OW67098  11.761   5.906  14.282
88420SOL    HW167099  11.702   5.876  14.351
88420SOL    HW267100  11.828   5.839  14.277
88421SOL     OW67101   9.036   8.429   0.993
88421SOL    HW167102   9.064   8.341   1.017
88421SOL    HW267103   9.083   8.486   1.053
88422SOL     OW67104  11.312   2.893   0.597
88422SOL    HW167105  11.325   2.846   0.515
88422SOL    HW267106  11.313   2.986   0.573
88423SOL     OW67107   4.301  10.238   9.877
88423SOL    HW167108   4.322  10.168   9.939
88423SOL    HW267109   4.341  10.316   9.915
88424SOL     OW67110   6.812   6.065   4.930
88424SOL    HW167111   6.813   6.014   5.010
88424SOL    HW267112   6.848   6.007   4.863
88425SOL     OW67113   3.963   6.006  10.092
88425SOL    HW167114   3.902   5.938  10.122
88425SOL    HW267115   3.913   6.055  10.026
88426SOL     OW67116  10.418  13.092   4.427
88426SOL    HW167117  10.480  13.043   4.481
88426SOL    HW267118  10.473  13.133   4.360
88427SOL     OW67119   3.399  12.163  13.572
88427SOL    HW167120   3.356  12.224  13.633
88427SOL    HW267121   3.369  12.191  13.485
88428SOL     OW67122   1.955   9.371   2.164
88428SOL    HW167123   2.018   9.403   2.099
88428SOL    HW267124   1.919   9.449   2.204
88429SOL     OW67125   0.696  14.392   4.953
88429SOL    HW167126   0.713  14.338   5.031
88429SOL    HW267127   0.644  14.336   4.896
88430SOL     OW67128  10.652  12.252   0.497
88430SOL    HW167129  10.621  12.162   0.491
88430SOL    HW267130  10.710  12.253   0.574
88431SOL     OW67131   8.089   4.672  12.949
88431SOL    HW167132   8.026   4.670  13.021
88431SOL    HW267133   8.154   4.737  12.976
88432SOL     OW67134   0.283  10.993  14.300
88432SOL    HW167135   0.285  10.906  14.340
88432SOL    HW267136   0.367  11.001  14.255
88433SOL     OW67137   4.346   8.591   0.473
88433SOL    HW167138   4.294   8.536   0.415
88433SOL    HW267139   4.424   8.538   0.492
88434SOL     OW67140   5.669  11.942   4.653
88434SOL    HW167141   5.597  11.950   4.589
88434SOL    HW267142   5.738  11.999   4.618
88435SOL     OW67143   7.267   7.932  12.974
88435SOL    HW167144   7.244   7.931  13.067
88435SOL    HW267145   7.206   7.869  12.935
88436SOL     OW67146  11.042   1.363   6.966
88436SOL    HW167147  10.982   1.433   6.991
88436SOL    HW267148  11.014   1.288   7.019
88437SOL     OW67149   0.611  10.555  14.117
88437SOL    HW167150   0.665  10.491  14.071
88437SOL    HW267151   0.542  10.503  14.158
88438SOL     OW67152   5.931   4.959   3.825
88438SOL    HW167153   5.909   4.873   3.788
88438SOL    HW267154   5.949   4.941   3.917
88439SOL     OW67155   5.273   8.531   1.486
88439SOL    HW167156   5.298   8.602   1.545
88439SOL    HW267157   5.186   8.554   1.456
88440SOL     OW67158   8.275   1.429  10.159
88440SOL    HW167159   8.226   1.424  10.077
88440SOL    HW267160   8.261   1.345  10.201
88441SOL     OW67161   9.257   4.525  11.037
88441SOL    HW167162   9.221   4.552  11.121
88441SOL    HW267163   9.267   4.606  10.988
88442SOL     OW67164   2.875   9.959   5.624
88442SOL    HW167165   2.809   9.895   5.653
88442SOL    HW267166   2.913   9.919   5.546
88443SOL     OW67167   8.804   5.910   1.565
88443SOL    HW167168   8.770   5.860   1.490
88443SOL    HW267169   8.891   5.874   1.580
88444SOL     OW67170   6.468  12.863   9.985
88444SOL    HW167171   6.494  12.955   9.993
88444SOL    HW267172   6.384  12.858  10.030
88445SOL     OW67173  13.849   9.918   3.300
88445SOL    HW167174  13.754   9.929   3.300
88445SOL    HW267175  13.863   9.828   3.331
88446SOL     OW67176   7.336  10.804   6.712
88446SOL    HW167177   7.300  10.744   6.646
88446SOL    HW267178   7.259  10.840   6.756
88447SOL     OW67179   5.930  14.489   3.883
88447SOL    HW167180   5.898  14.521   3.967
88447SOL    HW267181   5.865  14.521   3.820
88448SOL     OW67182  13.090   5.302   6.933
88448SOL    HW167183  13.109   5.363   6.862
88448SOL    HW267184  13.176   5.277   6.967
88449SOL     OW67185   4.454  11.024   6.707
88449SOL    HW167186   4.378  11.063   6.665
88449SOL    HW267187   4.423  10.998   6.794
88450SOL     OW67188   0.310   6.653  11.673
88450SOL    HW167189   0.384   6.709  11.697
88450SOL    HW267190   0.348   6.566  11.665
88451SOL     OW67191   4.142   9.616   7.229
88451SOL    HW167192   4.057   9.613   7.186
88451SOL    HW267193   4.206   9.600   7.160
88452SOL     OW67194   3.744  10.872   5.003
88452SOL    HW167195   3.793  10.792   5.020
88452SOL    HW267196   3.734  10.913   5.089
88453SOL     OW67197  12.683  10.343  10.372
88453SOL    HW167198  12.766  10.305  10.399
88453SOL    HW267199  12.621  10.270  10.372
88454SOL     OW67200   6.838   1.197  14.450
88454SOL    HW167201   6.779   1.255  14.500
88454SOL    HW267202   6.796   1.187  14.365
88455SOL     OW67203   7.715   2.269   3.145
88455SOL    HW167204   7.673   2.350   3.172
88455SOL    HW267205   7.644   2.215   3.110
88456SOL     OW67206   6.745   5.315   2.016
88456SOL    HW167207   6.838   5.308   1.990
88456SOL    HW267208   6.742   5.390   2.075
88457SOL     OW67209  12.956   5.412   0.545
88457SOL    HW167210  13.013   5.372   0.611
88457SOL    HW267211  12.996   5.389   0.461
88458SOL     OW67212  11.733   7.786   7.706
88458SOL    HW167213  11.769   7.859   7.655
88458SOL    HW267214  11.783   7.786   7.788
88459SOL     OW67215  11.166  12.146  10.093
88459SOL    HW167216  11.162  12.168   9.999
88459SOL    HW267217  11.257  12.164  10.117
88460SOL     OW67218   7.075   4.391   5.105
88460SOL    HW167219   7.108   4.311   5.144
88460SOL    HW267220   6.999   4.363   5.053
88461SOL     OW67221  13.742  12.760   9.288
88461SOL    HW167222  13.691  12.820   9.234
88461SOL    HW267223  13.818  12.736   9.234
88462SOL     OW67224   0.092  10.916   8.720
88462SOL    HW167225   0.123  10.847   8.777
88462SOL    HW267226  14.872  10.925   8.741
88463SOL     OW67227   8.297  13.924   6.730
88463SOL    HW167228   8.254  13.910   6.646
88463SOL    HW267229   8.274  13.848   6.782
88464SOL     OW67230   8.700   0.220   7.166
88464SOL    HW167231   8.740   0.214   7.079
88464SOL    HW267232   8.771   0.201   7.227
88465SOL     OW67233   0.489   4.961   6.268
88465SOL    HW167234   0.501   5.054   6.248
88465SOL    HW267235   0.575   4.922   6.254
88466SOL     OW67236   9.648   9.230  12.413
88466SOL    HW167237   9.671   9.185  12.495
88466SOL    HW267238   9.665   9.322  12.430
88467SOL     OW67239   5.098  12.590   6.559
88467SOL    HW167240   5.037  12.656   6.527
88467SOL    HW267241   5.099  12.522   6.491
88468SOL     OW67242  10.442   6.423  14.503
88468SOL    HW167243  10.465   6.461  14.418
88468SOL    HW267244  10.406   6.496  14.553
88469SOL     OW67245   7.487   4.558  10.287
88469SOL    HW167246   7.396   4.585  10.302
88469SOL    HW267247   7.513   4.604  10.207
88470SOL     OW67248   3.606  10.489   5.433
88470SOL    HW167249   3.563  10.526   5.511
88470SOL    HW267250   3.686  10.449   5.467
88471SOL     OW67251  11.489  12.508   6.947
88471SOL    HW167252  11.464  12.467   6.863
88471SOL    HW267253  11.557  12.452   6.982
88472SOL     OW67254   5.529   5.852   3.690
88472SOL    HW167255   5.443   5.826   3.658
88472SOL    HW267256   5.581   5.866   3.611
88473SOL     OW67257   6.563   2.499  11.930
88473SOL    HW167258   6.578   2.421  11.984
88473SOL    HW267259   6.646   2.546  11.931
88474SOL     OW67260   6.039  10.141   6.320
88474SOL    HW167261   6.053  10.113   6.410
88474SOL    HW267262   6.067  10.232   6.319
88475SOL     OW67263  12.682   8.080   4.874
88475SOL    HW167264  12.675   8.095   4.969
88475SOL    HW267265  12.603   8.120   4.838
88476SOL     OW67266   5.074  14.453   6.543
88476SOL    HW167267   5.056  14.534   6.591
88476SOL    HW267268   5.159  14.425   6.577
88477SOL     OW67269  11.179   7.942   8.669
88477SOL    HW167270  11.242   8.001   8.626
88477SOL    HW267271  11.097   7.992   8.671
88478SOL     OW67272   9.696   7.858  12.346
88478SOL    HW167273   9.779   7.878  12.389
88478SOL    HW267274   9.631   7.909  12.394
88479SOL     OW67275   8.217   4.409   7.587
88479SOL    HW167276   8.311   4.392   7.591
88479SOL    HW267277   8.176   4.325   7.607
88480SOL     OW67278   9.488  14.070   4.515
88480SOL    HW167279   9.522  14.159   4.504
88480SOL    HW267280   9.416  14.079   4.578
88481SOL     OW67281   3.539  14.417  13.486
88481SOL    HW167282   3.452  14.454  13.470
88481SOL    HW267283   3.534  14.328  13.451
88482SOL     OW67284  10.845  12.845  14.458
88482SOL    HW167285  10.877  12.852  14.368
88482SOL    HW267286  10.825  12.935  14.483
88483SOL     OW67287  12.725  14.564   6.407
88483SOL    HW167288  12.736  14.628   6.336
88483SOL    HW267289  12.804  14.510   6.403
88484SOL     OW67290  10.709   4.042  14.542
88484SOL    HW167291  10.620   4.007  14.555
88484SOL    HW267292  10.707   4.080  14.454
88485SOL     OW67293  11.093   5.734   5.988
88485SOL    HW167294  11.148   5.733   5.910
88485SOL    HW267295  11.143   5.785   6.052
88486SOL     OW67296   9.660  14.700   9.705
88486SOL    HW167297   9.695  14.617   9.739
88486SOL    HW267298   9.668  14.692   9.610
88487SOL     OW67299   0.024  14.142   9.210
88487SOL    HW167300   0.093  14.207   9.224
88487SOL    HW267301   0.070  14.058   9.213
88488SOL     OW67302   9.704   0.666   2.452
88488SOL    HW167303   9.747   0.583   2.473
88488SOL    HW267304   9.744   0.730   2.511
88489SOL     OW67305   7.528   1.000   5.757
88489SOL    HW167306   7.462   1.033   5.697
88489SOL    HW267307   7.601   0.972   5.701
88490SOL     OW67308   6.369   8.123   4.676
88490SOL    HW167309   6.453   8.169   4.683
88490SOL    HW267310   6.311   8.186   4.633
88491SOL     OW67311   6.913   8.276   4.330
88491SOL    HW167312   6.935   8.342   4.264
88491SOL    HW267313   6.901   8.196   4.280
88492SOL     OW67314   7.074   0.521   9.543
88492SOL    HW167315   7.107   0.580   9.475
88492SOL    HW267316   6.983   0.504   9.518
88493SOL     OW67317   7.248  12.869   8.279
88493SOL    HW167318   7.337  12.851   8.248
88493SOL    HW267319   7.256  12.951   8.327
88494SOL     OW67320   1.218   8.947   5.474
88494SOL    HW167321   1.226   9.038   5.503
88494SOL    HW267322   1.152   8.950   5.404
88495SOL     OW67323  11.148  14.042   5.147
88495SOL    HW167324  11.054  14.052   5.128
88495SOL    HW267325  11.153  14.041   5.242
88496SOL     OW67326   7.970   2.711   0.066
88496SOL    HW167327   7.932   2.629   0.098
88496SOL    HW267328   7.960   2.706  14.844
88497SOL     OW67329  14.240  10.822   9.994
88497SOL    HW167330  14.282  10.797  10.077
88497SOL    HW267331  14.267  10.913   9.980
88498SOL     OW67332   2.850  14.403   2.688
88498SOL    HW167333   2.904  14.411   2.610
88498SOL    HW267334   2.824  14.311   2.690
88499SOL     OW67335  11.716  13.739   9.743
88499SOL    HW167336  11.691  13.830   9.727
88499SOL    HW267337  11.655  13.688   9.690
88500SOL     OW67338  13.332   1.819  14.143
88500SOL    HW167339  13.363   1.909  14.152
88500SOL    HW267340  13.409   1.765  14.161
88501SOL     OW67341  11.970   2.755   5.620
88501SOL    HW167342  12.024   2.708   5.558
88501SOL    HW267343  12.030   2.818   5.662
88502SOL     OW67344   5.782  12.539   0.064
88502SOL    HW167345   5.824  12.522  14.853
88502SOL    HW267346   5.688  12.541   0.044
88503SOL     OW67347   8.329  14.635  11.984
88503SOL    HW167348   8.343  14.541  11.972
88503SOL    HW267349   8.314  14.645  12.078
88504SOL     OW67350  14.277   1.766   7.060
88504SOL    HW167351  14.303   1.831   6.994
88504SOL    HW267352  14.359   1.741   7.102
88505SOL     OW67353   1.953  10.443   9.442
88505SOL    HW167354   2.001  10.525   9.450
88505SOL    HW267355   1.861  10.468   9.449
88506SOL     OW67356   1.204   9.221   1.049
88506SOL    HW167357   1.213   9.201   1.142
88506SOL    HW267358   1.248   9.306   1.039
88507SOL     OW67359   7.789   4.683   0.185
88507SOL    HW167360   7.718   4.747   0.189
88507SOL    HW267361   7.852   4.720   0.124
88508SOL     OW67362  12.955  12.720  11.457
88508SOL    HW167363  12.942  12.645  11.515
88508SOL    HW267364  13.048  12.716  11.434
88509SOL     OW67365   4.329   2.646   4.403
88509SOL    HW167366   4.304   2.592   4.329
88509SOL    HW267367   4.387   2.713   4.365
88510SOL     OW67368   5.956   0.457   3.640
88510SOL    HW167369   5.873   0.414   3.661
88510SOL    HW267370   6.022   0.404   3.683
88511SOL     OW67371   7.537   4.557  10.756
88511SOL    HW167372   7.591   4.488  10.793
88511SOL    HW267373   7.499   4.602  10.831
88512SOL     OW67374   2.009   3.659   5.899
88512SOL    HW167375   1.920   3.663   5.936
88512SOL    HW267376   1.998   3.687   5.808
88513SOL     OW67377  12.990   1.161   4.953
88513SOL    HW167378  12.926   1.223   4.988
88513SOL    HW267379  12.969   1.155   4.860
88514SOL     OW67380  14.519   2.681  13.656
88514SOL    HW167381  14.565   2.635  13.586
88514SOL    HW267382  14.431   2.695  13.621
88515SOL     OW67383  12.542  10.242   8.293
88515SOL    HW167384  12.571  10.248   8.384
88515SOL    HW267385  12.486  10.318   8.281
88516SOL     OW67386   0.727   4.056  13.078
88516SOL    HW167387   0.649   4.100  13.045
88516SOL    HW267388   0.725   4.071  13.172
88517SOL     OW67389   7.460   2.323   3.297
88517SOL    HW167390   7.438   2.278   3.215
88517SOL    HW267391   7.440   2.415   3.279
88518SOL     OW67392   1.978  11.239   1.415
88518SOL    HW167393   2.022  11.158   1.442
88518SOL    HW267394   1.905  11.248   1.478
88519SOL     OW67395   3.217   2.228   1.748
88519SOL    HW167396   3.159   2.160   1.783
88519SOL    HW267397   3.157   2.299   1.724
88520SOL     OW67398   8.877   9.415  13.382
88520SOL    HW167399   8.892   9.357  13.457
88520SOL    HW267400   8.962   9.418  13.337
88521SOL     OW67401   2.684   3.024   4.113
88521SOL    HW167402   2.701   3.054   4.023
88521SOL    HW267403   2.589   3.017   4.118
88522SOL     OW67404   5.544   1.244  10.511
88522SOL    HW167405   5.487   1.238  10.435
88522SOL    HW267406   5.627   1.278  10.477
88523SOL     OW67407   2.936  13.715   8.323
88523SOL    HW167408   2.853  13.678   8.292
88523SOL    HW267409   3.002  13.677   8.265
88524SOL     OW67410   1.976  14.706  14.783
88524SOL    HW167411   1.992  14.716   0.004
88524SOL    HW267412   2.063  14.695  14.745
88525SOL     OW67413   9.008   3.817  11.673
88525SOL    HW167414   9.006   3.839  11.580
88525SOL    HW267415   8.916   3.809  11.698
88526SOL     OW67416   2.338   6.877  13.263
88526SOL    HW167417   2.303   6.869  13.174
88526SOL    HW267418   2.430   6.851  13.255
88527SOL     OW67419   1.117   5.152  12.405
88527SOL    HW167420   1.108   5.093  12.479
88527SOL    HW267421   1.140   5.236  12.444
88528SOL     OW67422  11.300   0.730  12.235
88528SOL    HW167423  11.231   0.791  12.209
88528SOL    HW267424  11.353   0.719  12.156
88529SOL     OW67425  14.177  13.844   3.944
88529SOL    HW167426  14.195  13.938   3.935
88529SOL    HW267427  14.102  13.840   4.003
88530SOL     OW67428   9.189  10.538  10.023
88530SOL    HW167429   9.139  10.517   9.944
88530SOL    HW267430   9.250  10.607   9.995
88531SOL     OW67431  14.685   5.942   8.876
88531SOL    HW167432  14.599   5.937   8.835
88531SOL    HW267433  14.746   5.913   8.808
88532SOL     OW67434   7.398   2.691   4.266
88532SOL    HW167435   7.319   2.741   4.288
88532SOL    HW267436   7.469   2.753   4.280
88533SOL     OW67437   1.134   2.638  14.163
88533SOL    HW167438   1.219   2.681  14.178
88533SOL    HW267439   1.090   2.695  14.100
88534SOL     OW67440   5.089   7.975  10.647
88534SOL    HW167441   5.029   7.902  10.662
88534SOL    HW267442   5.095   7.982  10.552
88535SOL     OW67443  11.268  11.499   4.980
88535SOL    HW167444  11.361  11.477   4.979
88535SOL    HW267445  11.255  11.553   4.902
88536SOL     OW67446   4.552  12.903   2.788
88536SOL    HW167447   4.540  12.808   2.796
88536SOL    HW267448   4.642  12.914   2.760
88537SOL     OW67449   1.443   0.398   9.905
88537SOL    HW167450   1.450   0.371   9.997
88537SOL    HW267451   1.525   0.370   9.865
88538SOL     OW67452  10.995  12.413   7.075
88538SOL    HW167453  11.052  12.335   7.078
88538SOL    HW267454  10.906  12.378   7.081
88539SOL     OW67455  10.151  13.154   0.914
88539SOL    HW167456  10.221  13.137   0.977
88539SOL    HW267457  10.075  13.109   0.951
88540SOL     OW67458   5.133   7.027   3.910
88540SOL    HW167459   5.192   7.068   3.974
88540SOL    HW267460   5.170   6.940   3.895
88541SOL     OW67461   2.791  12.129   7.139
88541SOL    HW167462   2.827  12.116   7.051
88541SOL    HW267463   2.847  12.196   7.177
88542SOL     OW67464   5.902  12.203   0.061
88542SOL    HW167465   5.935  12.114   0.073
88542SOL    HW267466   5.962  12.259   0.110
88543SOL     OW67467  12.846  12.869   7.515
88543SOL    HW167468  12.884  12.879   7.428
88543SOL    HW267469  12.768  12.815   7.501
88544SOL     OW67470   8.870   4.080   9.970
88544SOL    HW167471   8.882   4.167   9.933
88544SOL    HW267472   8.821   4.094  10.050
88545SOL     OW67473   2.050   9.239   1.492
88545SOL    HW167474   1.977   9.290   1.457
88545SOL    HW267475   2.033   9.234   1.586
88546SOL     OW67476   0.322  12.737   3.900
88546SOL    HW167477   0.394  12.787   3.861
88546SOL    HW267478   0.258  12.729   3.830
88547SOL     OW67479   0.993  12.416   7.086
88547SOL    HW167480   0.978  12.473   7.161
88547SOL    HW267481   1.072  12.367   7.108
88548SOL     OW67482   9.828  12.085  14.818
88548SOL    HW167483   9.796  12.161  14.866
88548SOL    HW267484   9.885  12.039   0.007
88549SOL     OW67485   4.566   1.987  10.601
88549SOL    HW167486   4.593   1.898  10.576
88549SOL    HW267487   4.573   1.987  10.697
88550SOL     OW67488   0.343   6.329   0.915
88550SOL    HW167489   0.371   6.405   0.863
88550SOL    HW267490   0.294   6.275   0.853
88551SOL     OW67491   9.432   3.113   0.302
88551SOL    HW167492   9.513   3.110   0.353
88551SOL    HW267493   9.363   3.126   0.366
88552SOL     OW67494  14.316   9.940  14.241
88552SOL    HW167495  14.344   9.893  14.319
88552SOL    HW267496  14.227   9.909  14.224
88553SOL     OW67497  14.817  13.755   1.079
88553SOL    HW167498  14.764  13.710   1.145
88553SOL    HW267499  14.764  13.752   0.999
88554SOL     OW67500   6.644   4.769   7.685
88554SOL    HW167501   6.618   4.705   7.751
88554SOL    HW267502   6.611   4.853   7.717
88555SOL     OW67503   8.935   3.248  11.585
88555SOL    HW167504   8.968   3.264  11.673
88555SOL    HW267505   8.972   3.319  11.532
88556SOL     OW67506   0.591  11.663   3.189
88556SOL    HW167507   0.663  11.726   3.185
88556SOL    HW267508   0.560  11.657   3.099
88557SOL     OW67509  14.867   2.981   0.811
88557SOL    HW167510  14.774   3.003   0.818
88557SOL    HW267511   0.026   3.035   0.739
88558SOL     OW67512   3.702   7.424   8.402
88558SOL    HW167513   3.698   7.359   8.331
88558SOL    HW267514   3.656   7.382   8.475
88559SOL     OW67515   1.232   4.525   0.581
88559SOL    HW167516   1.313   4.569   0.610
88559SOL    HW267517   1.252   4.432   0.586
88560SOL     OW67518   1.549   2.288  14.629
88560SOL    HW167519   1.458   2.302  14.658
88560SOL    HW267520   1.567   2.197  14.651
88561SOL     OW67521   3.747  14.852   5.436
88561SOL    HW167522   3.801   0.001   5.513
88561SOL    HW267523   3.703   0.061   5.414
88562SOL     OW67524  12.455   4.767   8.103
88562SOL    HW167525  12.523   4.752   8.170
88562SOL    HW267526  12.499   4.747   8.020
88563SOL     OW67527   4.944   8.433   1.033
88563SOL    HW167528   4.950   8.346   1.073
88563SOL    HW267529   5.031   8.470   1.044
88564SOL     OW67530   6.474  13.771  10.593
88564SOL    HW167531   6.541  13.839  10.601
88564SOL    HW267532   6.392  13.815  10.613
88565SOL     OW67533   8.409   2.392   6.006
88565SOL    HW167534   8.350   2.354   6.071
88565SOL    HW267535   8.386   2.348   5.924
88566SOL     OW67536  13.483   4.323   8.006
88566SOL    HW167537  13.509   4.296   8.094
88566SOL    HW267538  13.525   4.408   7.994
88567SOL     OW67539  11.532   0.128   5.755
88567SOL    HW167540  11.457   0.188   5.749
88567SOL    HW267541  11.505   0.051   5.705
88568SOL     OW67542  12.427   8.412   1.450
88568SOL    HW167543  12.489   8.394   1.521
88568SOL    HW267544  12.478   8.465   1.388
88569SOL     OW67545  11.858  11.114   3.995
88569SOL    HW167546  11.862  11.159   4.079
88569SOL    HW267547  11.912  11.036   4.007
88570SOL     OW67548   8.059   1.309   8.228
88570SOL    HW167549   8.045   1.380   8.165
88570SOL    HW267550   7.972   1.271   8.240
88571SOL     OW67551   8.910   1.426   7.296
88571SOL    HW167552   8.941   1.511   7.263
88571SOL    HW267553   8.832   1.407   7.244
88572SOL     OW67554   2.694   5.699  14.289
88572SOL    HW167555   2.774   5.648  14.274
88572SOL    HW267556   2.699   5.727  14.380
88573SOL     OW67557   7.807   9.646   0.974
88573SOL    HW167558   7.765   9.635   1.059
88573SOL    HW267559   7.868   9.719   0.988
88574SOL     OW67560  12.607   2.102   4.520
88574SOL    HW167561  12.522   2.066   4.494
88574SOL    HW267562  12.664   2.026   4.527
88575SOL     OW67563  10.081   4.507   6.323
88575SOL    HW167564  10.080   4.582   6.382
88575SOL    HW267565  10.158   4.457   6.350
88576SOL     OW67566  10.590   9.723   8.539
88576SOL    HW167567  10.560   9.734   8.448
88576SOL    HW267568  10.655   9.791   8.551
88577SOL     OW67569  13.916   1.399  13.434
88577SOL    HW167570  13.897   1.475  13.489
88577SOL    HW267571  13.831   1.370  13.403
88578SOL     OW67572   6.764   6.715  13.391
88578SOL    HW167573   6.822   6.669  13.331
88578SOL    HW267574   6.681   6.722  13.343
88579SOL     OW67575   3.976  12.075  10.631
88579SOL    HW167576   4.069  12.070  10.609
88579SOL    HW267577   3.975  12.080  10.727
88580SOL     OW67578  14.263   9.760  12.611
88580SOL    HW167579  14.285   9.853  12.614
88580SOL    HW267580  14.287   9.727  12.698
88581SOL     OW67581  13.388  12.000   5.462
88581SOL    HW167582  13.310  11.963   5.422
88581SOL    HW267583  13.356  12.045   5.540
88582SOL     OW67584  11.004  10.552   4.150
88582SOL    HW167585  11.080  10.605   4.125
88582SOL    HW267586  10.929  10.602   4.120
88583SOL     OW67587   9.103   7.919  12.580
88583SOL    HW167588   9.173   7.971  12.540
88583SOL    HW267589   9.087   7.848  12.518
88584SOL     OW67590   6.312   5.444   9.072
88584SOL    HW167591   6.376   5.417   9.137
88584SOL    HW267592   6.258   5.510   9.118
88585SOL     OW67593   8.192   2.198   7.250
88585SOL    HW167594   8.126   2.240   7.305
88585SOL    HW267595   8.212   2.262   7.183
88586SOL     OW67596   2.609   1.163   4.919
88586SOL    HW167597   2.637   1.248   4.886
88586SOL    HW267598   2.526   1.146   4.875
88587SOL     OW67599   2.472  10.970  14.357
88587SOL    HW167600   2.419  11.038  14.316
88587SOL    HW267601   2.476  10.996  14.449
88588SOL     OW67602  12.193   5.149   5.450
88588SOL    HW167603  12.178   5.065   5.494
88588SOL    HW267604  12.167   5.214   5.516
88589SOL     OW67605  10.921   9.014   4.271
88589SOL    HW167606  10.934   9.006   4.177
88589SOL    HW267607  10.832   9.048   4.280
88590SOL     OW67608  12.454   1.688   3.088
88590SOL    HW167609  12.547   1.679   3.068
88590SOL    HW267610  12.419   1.599   3.078
88591SOL     OW67611   9.271   4.360   3.466
88591SOL    HW167612   9.332   4.311   3.520
88591SOL    HW267613   9.288   4.331   3.376
88592SOL     OW67614   3.501  13.434   1.318
88592SOL    HW167615   3.511  13.342   1.344
88592SOL    HW267616   3.437  13.432   1.247
88593SOL     OW67617   9.303  12.180  14.442
88593SOL    HW167618   9.236  12.115  14.422
88593SOL    HW267619   9.380  12.152  14.392
88594SOL     OW67620   1.478   6.677  13.289
88594SOL    HW167621   1.547   6.726  13.334
88594SOL    HW267622   1.404   6.737  13.285
88595SOL     OW67623  11.739   6.844   1.721
88595SOL    HW167624  11.704   6.924   1.682
88595SOL    HW267625  11.829   6.867   1.745
88596SOL     OW67626   3.856   8.241   5.385
88596SOL    HW167627   3.817   8.281   5.463
88596SOL    HW267628   3.936   8.291   5.370
88597SOL     OW67629  11.836   9.312   9.532
88597SOL    HW167630  11.809   9.304   9.623
88597SOL    HW267631  11.756   9.296   9.482
88598SOL     OW67632   7.190   6.200   6.246
88598SOL    HW167633   7.264   6.196   6.306
88598SOL    HW267634   7.169   6.294   6.241
88599SOL     OW67635   8.391   1.617   9.783
88599SOL    HW167636   8.460   1.607   9.718
88599SOL    HW267637   8.344   1.534   9.781
88600SOL     OW67638  12.076  13.741   7.747
88600SOL    HW167639  12.099  13.651   7.724
88600SOL    HW267640  11.987  13.752   7.715
88601SOL     OW67641   3.276   3.730  13.234
88601SOL    HW167642   3.346   3.700  13.292
88601SOL    HW267643   3.229   3.650  13.210
88602SOL     OW67644   7.206  13.743   6.225
88602SOL    HW167645   7.220  13.833   6.197
88602SOL    HW267646   7.275  13.693   6.181
88603SOL     OW67647   1.764   7.413  12.937
88603SOL    HW167648   1.805   7.329  12.955
88603SOL    HW267649   1.690   7.392  12.880
88604SOL     OW67650   6.410   0.739  12.450
88604SOL    HW167651   6.394   0.751  12.543
88604SOL    HW267652   6.500   0.708  12.445
88605SOL     OW67653   2.772   6.656  12.171
88605SOL    HW167654   2.787   6.608  12.252
88605SOL    HW267655   2.794   6.747  12.192
88606SOL     OW67656   1.982  12.995   0.744
88606SOL    HW167657   1.902  12.952   0.773
88606SOL    HW267658   1.975  13.084   0.778
88607SOL     OW67659  13.632  13.578   9.922
88607SOL    HW167660  13.578  13.635   9.977
88607SOL    HW267661  13.669  13.514   9.984
88608SOL     OW67662  10.420   1.808   8.535
88608SOL    HW167663  10.373   1.855   8.467
88608SOL    HW267664  10.450   1.876   8.596
88609SOL     OW67665  11.416  12.023   9.533
88609SOL    HW167666  11.483  12.083   9.498
88609SOL    HW267667  11.453  11.936   9.520
88610SOL     OW67668  13.817   5.759  10.501
88610SOL    HW167669  13.809   5.790  10.411
88610SOL    HW267670  13.727   5.756  10.533
88611SOL     OW67671   9.755   5.184  10.650
88611SOL    HW167672   9.727   5.096  10.623
88611SOL    HW267673   9.737   5.239  10.574
88612SOL     OW67674   9.020  12.711  10.525
88612SOL    HW167675   9.068  12.630  10.542
88612SOL    HW267676   8.964  12.690  10.450
88613SOL     OW67677   1.637   4.519   3.032
88613SOL    HW167678   1.695   4.590   3.006
88613SOL    HW267679   1.557   4.534   2.981
88614SOL     OW67680   1.485  11.950  14.141
88614SOL    HW167681   1.477  11.877  14.202
88614SOL    HW267682   1.526  11.912  14.063
88615SOL     OW67683   5.819   2.943   5.855
88615SOL    HW167684   5.854   3.026   5.888
88615SOL    HW267685   5.852   2.937   5.765
88616SOL     OW67686  11.341   6.194   8.833
88616SOL    HW167687  11.403   6.255   8.872
88616SOL    HW267688  11.367   6.108   8.866
88617SOL     OW67689   1.484   7.678   6.594
88617SOL    HW167690   1.570   7.662   6.633
88617SOL    HW267691   1.504   7.710   6.506
88618SOL     OW67692   1.520   3.378  11.073
88618SOL    HW167693   1.445   3.331  11.109
88618SOL    HW267694   1.547   3.326  10.997
88619SOL     OW67695  13.578   2.618  11.195
88619SOL    HW167696  13.581   2.533  11.150
88619SOL    HW267697  13.519   2.671  11.141
88620SOL     OW67698   8.894  14.214  12.249
88620SOL    HW167699   8.913  14.241  12.339
88620SOL    HW267700   8.953  14.140  12.234
88621SOL     OW67701   5.476  14.355   8.599
88621SOL    HW167702   5.426  14.436   8.595
88621SOL    HW267703   5.481  14.326   8.508
88622SOL     OW67704  12.768   1.453   3.663
88622SOL    HW167705  12.862   1.444   3.645
88622SOL    HW267706  12.763   1.527   3.724
88623SOL     OW67707   9.987   8.023   3.942
88623SOL    HW167708   9.974   8.009   4.036
88623SOL    HW267709  10.081   8.035   3.932
88624SOL     OW67710   0.547   9.542   1.138
88624SOL    HW167711   0.551   9.537   1.233
88624SOL    HW267712   0.635   9.518   1.108
88625SOL     OW67713   9.092  10.702   0.286
88625SOL    HW167714   9.005  10.662   0.275
88625SOL    HW267715   9.143  10.669   0.212
88626SOL     OW67716   3.627   7.380   4.813
88626SOL    HW167717   3.656   7.309   4.871
88626SOL    HW267718   3.551   7.344   4.768
88627SOL     OW67719  14.269   2.694  12.774
88627SOL    HW167720  14.248   2.766  12.715
88627SOL    HW267721  14.302   2.737  12.853
88628SOL     OW67722  14.571   5.551   1.935
88628SOL    HW167723  14.626   5.629   1.930
88628SOL    HW267724  14.546   5.545   2.028
88629SOL     OW67725   6.319   3.928   2.883
88629SOL    HW167726   6.244   3.982   2.908
88629SOL    HW267727   6.359   3.975   2.810
88630SOL     OW67728   7.646   6.433   9.196
88630SOL    HW167729   7.661   6.501   9.130
88630SOL    HW267730   7.553   6.411   9.186
88631SOL     OW67731   2.434  14.611   1.309
88631SOL    HW167732   2.361  14.600   1.248
88631SOL    HW267733   2.509  14.634   1.254
88632SOL     OW67734  10.324  13.241   9.903
88632SOL    HW167735  10.277  13.281   9.829
88632SOL    HW267736  10.334  13.313   9.965
88633SOL     OW67737   7.310   0.340  10.461
88633SOL    HW167738   7.319   0.431  10.433
88633SOL    HW267739   7.399   0.305  10.455
88634SOL     OW67740   4.850   6.965   0.958
88634SOL    HW167741   4.923   6.999   1.010
88634SOL    HW267742   4.784   6.940   1.023
88635SOL     OW67743   4.506   0.577   4.796
88635SOL    HW167744   4.494   0.632   4.719
88635SOL    HW267745   4.565   0.507   4.768
88636SOL     OW67746  11.627   5.408   6.348
88636SOL    HW167747  11.557   5.463   6.311
88636SOL    HW267748  11.587   5.322   6.359
88637SOL     OW67749   6.430   6.123  10.602
88637SOL    HW167750   6.417   6.207  10.646
88637SOL    HW267751   6.509   6.087  10.643
88638SOL     OW67752   5.898   3.780   1.553
88638SOL    HW167753   5.838   3.753   1.483
88638SOL    HW267754   5.968   3.827   1.508
88639SOL     OW67755  13.476  14.583  14.030
88639SOL    HW167756  13.465  14.492  14.003
88639SOL    HW267757  13.395  14.604  14.077
88640SOL     OW67758   7.299  14.511   4.648
88640SOL    HW167759   7.307  14.479   4.738
88640SOL    HW267760   7.280  14.433   4.596
88641SOL     OW67761  13.106   0.451   4.377
88641SOL    HW167762  13.147   0.537   4.377
88641SOL    HW267763  13.044   0.454   4.450
88642SOL     OW67764   7.119   8.047  12.217
88642SOL    HW167765   7.155   8.132  12.190
88642SOL    HW267766   7.156   7.985  12.153
88643SOL     OW67767  13.056   7.819  10.264
88643SOL    HW167768  13.094   7.904  10.242
88643SOL    HW267769  12.961   7.833  10.259
88644SOL     OW67770   2.366   0.794   0.791
88644SOL    HW167771   2.364   0.771   0.884
88644SOL    HW267772   2.435   0.739   0.754
88645SOL     OW67773   4.027   6.579   8.097
88645SOL    HW167774   3.955   6.607   8.153
88645SOL    HW267775   3.985   6.522   8.032
88646SOL     OW67776   7.899   1.248  12.451
88646SOL    HW167777   7.962   1.238  12.379
88646SOL    HW267778   7.953   1.255  12.529
88647SOL     OW67779   8.686   7.975   0.833
88647SOL    HW167780   8.618   7.916   0.798
88647SOL    HW267781   8.728   7.924   0.902
88648SOL     OW67782   7.686   0.339   2.825
88648SOL    HW167783   7.710   0.394   2.750
88648SOL    HW267784   7.769   0.299   2.852
88649SOL     OW67785   4.935   8.600   2.828
88649SOL    HW167786   4.856   8.650   2.808
88649SOL    HW267787   4.904   8.510   2.839
88650SOL     OW67788   3.795   0.372   5.039
88650SOL    HW167789   3.832   0.452   5.077
88650SOL    HW267790   3.870   0.311   5.034
88651SOL     OW67791   2.240   1.943   0.257
88651SOL    HW167792   2.305   1.976   0.318
88651SOL    HW267793   2.281   1.868   0.215
88652SOL     OW67794  10.947   4.218  11.542
88652SOL    HW167795  10.880   4.206  11.609
88652SOL    HW267796  10.964   4.312  11.541
88653SOL     OW67797   0.366   2.931   2.369
88653SOL    HW167798   0.325   2.992   2.429
88653SOL    HW267799   0.454   2.967   2.354
88654SOL     OW67800   7.455  14.119  10.281
88654SOL    HW167801   7.503  14.079  10.354
88654SOL    HW267802   7.421  14.044  10.231
88655SOL     OW67803   3.448   0.500   6.091
88655SOL    HW167804   3.444   0.461   6.178
88655SOL    HW267805   3.359   0.533   6.076
88656SOL     OW67806   8.804   9.588  14.259
88656SOL    HW167807   8.785   9.648  14.332
88656SOL    HW267808   8.718   9.563  14.225
88657SOL     OW67809   4.156   5.556  11.775
88657SOL    HW167810   4.207   5.499  11.832
88657SOL    HW267811   4.079   5.578  11.826
88658SOL     OW67812   5.658   2.354  12.466
88658SOL    HW167813   5.680   2.394  12.551
88658SOL    HW267814   5.713   2.275  12.462
88659SOL     OW67815   8.965   3.059   9.059
88659SOL    HW167816   8.886   3.008   9.078
88659SOL    HW267817   8.946   3.104   8.977
88660SOL     OW67818  11.815   3.795   5.271
88660SOL    HW167819  11.854   3.820   5.187
88660SOL    HW267820  11.774   3.875   5.303
88661SOL     OW67821  13.139   3.814  12.766
88661SOL    HW167822  13.155   3.908  12.771
88661SOL    HW267823  13.150   3.793  12.673
88662SOL     OW67824  13.217   1.331   8.883
88662SOL    HW167825  13.196   1.399   8.947
88662SOL    HW267826  13.139   1.275   8.882
88663SOL     OW67827   9.016  12.021  11.203
88663SOL    HW167828   9.035  12.074  11.126
88663SOL    HW267829   8.993  11.935  11.168
88664SOL     OW67830  13.012  10.659   5.860
88664SOL    HW167831  13.036  10.595   5.928
88664SOL    HW267832  12.918  10.672   5.872
88665SOL     OW67833   1.614   9.852   3.143
88665SOL    HW167834   1.530   9.805   3.137
88665SOL    HW267835   1.622   9.875   3.236
88666SOL     OW67836   0.873  11.385  10.215
88666SOL    HW167837   0.938  11.376  10.146
88666SOL    HW267838   0.854  11.295  10.242
88667SOL     OW67839   4.032   3.760  13.012
88667SOL    HW167840   3.984   3.693  12.963
88667SOL    HW267841   4.012   3.741  13.104
88668SOL     OW67842   4.914   9.076   7.289
88668SOL    HW167843   4.958   9.095   7.371
88668SOL    HW267844   4.888   9.162   7.255
88669SOL     OW67845   5.353   4.286  14.368
88669SOL    HW167846   5.384   4.248  14.451
88669SOL    HW267847   5.284   4.347  14.395
88670SOL     OW67848   6.501   4.620   9.566
88670SOL    HW167849   6.448   4.648   9.491
88670SOL    HW267850   6.551   4.698   9.591
88671SOL     OW67851   9.325   7.213   8.245
88671SOL    HW167852   9.417   7.232   8.229
88671SOL    HW267853   9.286   7.297   8.267
88672SOL     OW67854  13.550  10.309  13.259
88672SOL    HW167855  13.566  10.224  13.217
88672SOL    HW267856  13.533  10.288  13.350
88673SOL     OW67857   3.239   3.364  13.380
88673SOL    HW167858   3.329   3.336  13.398
88673SOL    HW267859   3.208   3.401  13.462
88674SOL     OW67860   8.370   0.915  10.892
88674SOL    HW167861   8.303   0.928  10.959
88674SOL    HW267862   8.321   0.919  10.809
88675SOL     OW67863   0.981  12.423   8.528
88675SOL    HW167864   0.894  12.399   8.559
88675SOL    HW267865   1.006  12.497   8.583
88676SOL     OW67866  14.204  13.236   1.999
88676SOL    HW167867  14.201  13.184   1.919
88676SOL    HW267868  14.291  13.276   1.999
88677SOL     OW67869   7.283   7.943   6.025
88677SOL    HW167870   7.264   7.876   5.960
88677SOL    HW267871   7.208   7.940   6.085
88678SOL     OW67872   9.148   7.767   1.995
88678SOL    HW167873   9.111   7.763   2.083
88678SOL    HW267874   9.193   7.851   1.992
88679SOL     OW67875   6.805  13.680  13.856
88679SOL    HW167876   6.763  13.750  13.806
88679SOL    HW267877   6.803  13.711  13.947
88680SOL     OW67878   2.669  12.208  10.024
88680SOL    HW167879   2.606  12.184  10.092
88680SOL    HW267880   2.655  12.302  10.009
88681SOL     OW67881   5.126  11.320   0.173
88681SOL    HW167882   5.059  11.348   0.111
88681SOL    HW267883   5.077  11.279   0.244
88682SOL     OW67884   3.775  12.380  12.334
88682SOL    HW167885   3.691  12.357  12.293
88682SOL    HW267886   3.806  12.456  12.285
88683SOL     OW67887   5.025  14.831   4.289
88683SOL    HW167888   5.103  14.808   4.240
88683SOL    HW267889   4.989   0.034   4.242
88684SOL     OW67890   7.915   8.463   8.963
88684SOL    HW167891   7.827   8.458   9.001
88684SOL    HW267892   7.973   8.479   9.038
88685SOL     OW67893   9.350   2.237  11.485
88685SOL    HW167894   9.387   2.305  11.429
88685SOL    HW267895   9.256   2.256  11.487
88686SOL     OW67896   7.685  13.512  11.222
88686SOL    HW167897   7.671  13.470  11.138
88686SOL    HW267898   7.597  13.521  11.259
88687SOL     OW67899  12.343  12.402  10.678
88687SOL    HW167900  12.429  12.361  10.692
88687SOL    HW267901  12.361  12.478  10.623
88688SOL     OW67902   3.631  14.307  14.289
88688SOL    HW167903   3.676  14.232  14.251
88688SOL    HW267904   3.657  14.307  14.381
88689SOL     OW67905   9.051  12.431  10.332
88689SOL    HW167906   9.099  12.375  10.271
88689SOL    HW267907   8.976  12.462  10.282
88690SOL     OW67908   8.493   9.002   9.778
88690SOL    HW167909   8.433   9.009   9.852
88690SOL    HW267910   8.579   8.986   9.817
88691SOL     OW67911   0.144  14.632  10.545
88691SOL    HW167912   0.060  14.674  10.523
88691SOL    HW267913   0.151  14.642  10.640
88692SOL     OW67914  11.646   4.415  12.564
88692SOL    HW167915  11.623   4.508  12.563
88692SOL    HW267916  11.735   4.413  12.599
88693SOL     OW67917   2.602  13.030   4.177
88693SOL    HW167918   2.654  13.085   4.119
88693SOL    HW267919   2.595  13.081   4.258
88694SOL     OW67920   5.680   8.343  12.078
88694SOL    HW167921   5.604   8.344  12.135
88694SOL    HW267922   5.644   8.352  11.990
88695SOL     OW67923   5.951  12.162   5.409
88695SOL    HW167924   5.904  12.178   5.327
88695SOL    HW267925   5.889  12.185   5.477
88696SOL     OW67926   8.044  10.764  12.553
88696SOL    HW167927   8.013  10.717  12.629
88696SOL    HW267928   8.129  10.723  12.532
88697SOL     OW67929   8.659  10.969   2.991
88697SOL    HW167930   8.699  10.886   3.017
88697SOL    HW267931   8.716  11.003   2.922
88698SOL     OW67932   3.448   0.704  10.456
88698SOL    HW167933   3.360   0.703  10.420
88698SOL    HW267934   3.437   0.687  10.549
88699SOL     OW67935   0.974   9.641   3.665
88699SOL    HW167936   1.042   9.575   3.649
88699SOL    HW267937   0.958   9.680   3.579
88700SOL     OW67938   5.758  10.848   1.591
88700SOL    HW167939   5.824  10.894   1.540
88700SOL    HW267940   5.681  10.905   1.588
88701SOL     OW67941   4.117   7.517   0.973
88701SOL    HW167942   4.051   7.449   0.961
88701SOL    HW267943   4.127   7.525   1.068
88702SOL     OW67944   6.482   6.079   8.476
88702SOL    HW167945   6.546   6.141   8.511
88702SOL    HW267946   6.412   6.077   8.541
88703SOL     OW67947   2.903  13.770   4.784
88703SOL    HW167948   2.995  13.795   4.776
88703SOL    HW267949   2.898  13.684   4.744
88704SOL     OW67950  10.070   6.371   7.957
88704SOL    HW167951  10.104   6.331   8.037
88704SOL    HW267952   9.982   6.402   7.981
88705SOL     OW67953   4.886   2.526   9.543
88705SOL    HW167954   4.899   2.431   9.543
88705SOL    HW267955   4.885   2.550   9.636
88706SOL     OW67956   8.990   9.718   7.243
88706SOL    HW167957   8.900   9.690   7.258
88706SOL    HW267958   9.036   9.638   7.216
88707SOL     OW67959   8.765   3.249  10.726
88707SOL    HW167960   8.734   3.322  10.672
88707SOL    HW267961   8.840   3.214  10.678
88708SOL     OW67962  11.535  13.956  14.854
88708SOL    HW167963  11.474  13.985  14.786
88708SOL    HW267964  11.547  13.862  14.837
88709SOL     OW67965   3.859   7.246   2.817
88709SOL    HW167966   3.935   7.245   2.875
88709SOL    HW267967   3.888   7.201   2.738
88710SOL     OW67968   5.569   1.833  12.135
88710SOL    HW167969   5.536   1.893  12.068
88710SOL    HW267970   5.518   1.855  12.214
88711SOL     OW67971  10.330   1.105   4.240
88711SOL    HW167972  10.300   1.195   4.256
88711SOL    HW267973  10.354   1.104   4.148
88712SOL     OW67974   3.858   4.398   6.922
88712SOL    HW167975   3.940   4.355   6.947
88712SOL    HW267976   3.806   4.329   6.881
88713SOL     OW67977   7.575   1.394  13.490
88713SOL    HW167978   7.586   1.474  13.542
88713SOL    HW267979   7.641   1.334  13.524
88714SOL     OW67980   5.544   7.782   4.315
88714SOL    HW167981   5.480   7.841   4.275
88714SOL    HW267982   5.544   7.704   4.258
88715SOL     OW67983  11.995  12.359   4.601
88715SOL    HW167984  11.965  12.377   4.690
88715SOL    HW267985  12.040  12.439   4.575
88716SOL     OW67986   6.586   7.027   4.689
88716SOL    HW167987   6.669   7.043   4.733
88716SOL    HW267988   6.599   6.944   4.643
88717SOL     OW67989   6.538   8.017   8.161
88717SOL    HW167990   6.549   8.057   8.075
88717SOL    HW267991   6.499   8.085   8.215
88718SOL     OW67992   2.056  13.801   3.856
88718SOL    HW167993   2.090  13.879   3.811
88718SOL    HW267994   1.966  13.793   3.825
88719SOL     OW67995   4.707   1.187  12.514
88719SOL    HW167996   4.704   1.163  12.421
88719SOL    HW267997   4.619   1.219  12.533
88720SOL     OW67998  10.688  10.222   1.833
88720SOL    HW167999  10.757  10.229   1.766
88720SOL    HW268000  10.622  10.287   1.806
88721SOL     OW68001   9.333   9.409  12.862
88721SOL    HW168002   9.354   9.384  12.952
88721SOL    HW268003   9.252   9.459  12.868
88722SOL     OW68004   5.045  10.397   4.668
88722SOL    HW168005   4.955  10.421   4.645
88722SOL    HW268006   5.099  10.436   4.599
88723SOL     OW68007   2.691  14.238   7.623
88723SOL    HW168008   2.695  14.332   7.636
88723SOL    HW268009   2.611  14.223   7.572
88724SOL     OW68010  12.562  10.399   2.091
88724SOL    HW168011  12.644  10.442   2.118
88724SOL    HW268012  12.539  10.443   2.009
88725SOL     OW68013   5.078   1.158   5.660
88725SOL    HW168014   5.091   1.237   5.608
88725SOL    HW268015   4.991   1.126   5.635
88726SOL     OW68016   2.054  11.051  10.547
88726SOL    HW168017   2.119  11.034  10.478
88726SOL    HW268018   2.094  11.117  10.603
88727SOL     OW68019   5.742   8.992   5.927
88727SOL    HW168020   5.732   8.981   5.832
88727SOL    HW268021   5.653   9.007   5.958
88728SOL     OW68022  13.586  14.736  14.610
88728SOL    HW168023  13.642  14.662  14.586
88728SOL    HW268024  13.540  14.759  14.529
88729SOL     OW68025   6.701   3.055  12.900
88729SOL    HW168026   6.656   3.035  12.817
88729SOL    HW268027   6.715   2.969  12.940
88730SOL     OW68028   9.414   5.942   9.024
88730SOL    HW168029   9.339   5.993   8.991
88730SOL    HW268030   9.380   5.898   9.102
88731SOL     OW68031  13.509   6.544   3.893
88731SOL    HW168032  13.451   6.553   3.968
88731SOL    HW268033  13.569   6.618   3.900
88732SOL     OW68034   6.323   7.312   8.011
88732SOL    HW168035   6.281   7.393   7.983
88732SOL    HW268036   6.252   7.258   8.046
88733SOL     OW68037   0.764   7.158   0.862
88733SOL    HW168038   0.733   7.175   0.951
88733SOL    HW268039   0.703   7.205   0.806
88734SOL     OW68040   9.164   0.124  11.250
88734SOL    HW168041   9.077   0.108  11.286
88734SOL    HW268042   9.224   0.108  11.323
88735SOL     OW68043  13.232   2.162   0.530
88735SOL    HW168044  13.317   2.186   0.567
88735SOL    HW268045  13.253   2.111   0.451
88736SOL     OW68046   9.561  10.474  14.169
88736SOL    HW168047   9.650  10.472  14.204
88736SOL    HW268048   9.570  10.444  14.079
88737SOL     OW68049   9.322  11.713  13.749
88737SOL    HW168050   9.404  11.680  13.713
88737SOL    HW268051   9.256  11.690  13.683
88738SOL     OW68052  12.990   2.570  10.799
88738SOL    HW168053  12.911   2.596  10.751
88738SOL    HW268054  12.975   2.603  10.888
88739SOL     OW68055   1.751  14.538  12.486
88739SOL    HW168056   1.772  14.452  12.523
88739SOL    HW268057   1.801  14.541  12.404
88740SOL     OW68058   8.645   5.900   4.074
88740SOL    HW168059   8.725   5.865   4.113
88740SOL    HW268060   8.656   5.995   4.081
88741SOL     OW68061   8.875   5.481   2.403
88741SOL    HW168062   8.859   5.417   2.334
88741SOL    HW268063   8.932   5.547   2.362
88742SOL     OW68064   8.328   3.856   4.023
88742SOL    HW168065   8.361   3.839   3.935
88742SOL    HW268066   8.329   3.952   4.031
88743SOL     OW68067   4.385   2.801   7.954
88743SOL    HW168068   4.407   2.750   7.877
88743SOL    HW268069   4.468   2.812   8.000
88744SOL     OW68070   4.244   1.184  10.929
88744SOL    HW168071   4.191   1.126  10.874
88744SOL    HW268072   4.258   1.262  10.876
88745SOL     OW68073   7.648   7.388  13.924
88745SOL    HW168074   7.714   7.375  13.992
88745SOL    HW268075   7.695   7.375  13.842
88746SOL     OW68076   4.203   7.262  10.933
88746SOL    HW168077   4.189   7.227  10.845
88746SOL    HW268078   4.269   7.331  10.922
88747SOL     OW68079   9.925   7.116   9.775
88747SOL    HW168080   9.982   7.160   9.839
88747SOL    HW268081   9.842   7.163   9.781
88748SOL     OW68082   8.400  14.843   8.031
88748SOL    HW168083   8.377  14.852   7.939
88748SOL    HW268084   8.341   0.029   8.077
88749SOL     OW68085   9.979   4.125  11.237
88749SOL    HW168086  10.048   4.191  11.240
88749SOL    HW268087   9.909   4.161  11.292
88750SOL     OW68088  13.612   5.691   3.389
88750SOL    HW168089  13.553   5.617   3.403
88750SOL    HW268090  13.697   5.660   3.419
88751SOL     OW68091   4.216   1.309   2.123
88751SOL    HW168092   4.161   1.381   2.089
88751SOL    HW268093   4.305   1.334   2.100
88752SOL     OW68094  12.487   1.343  13.095
88752SOL    HW168095  12.533   1.413  13.048
88752SOL    HW268096  12.490   1.268  13.036
88753SOL     OW68097  12.526   1.619   7.342
88753SOL    HW168098  12.535   1.606   7.247
88753SOL    HW268099  12.616   1.622   7.374
88754SOL     OW68100   2.260   3.114   4.988
88754SOL    HW168101   2.190   3.058   5.021
88754SOL    HW268102   2.320   3.054   4.944
88755SOL     OW68103   3.774  14.644   7.750
88755SOL    HW168104   3.705  14.651   7.683
88755SOL    HW268105   3.856  14.645   7.700
88756SOL     OW68106   0.490   8.345   4.052
88756SOL    HW168107   0.406   8.300   4.059
88756SOL    HW268108   0.509   8.375   4.141
88757SOL     OW68109  14.548  14.682   3.451
88757SOL    HW168110  14.598  14.636   3.384
88757SOL    HW268111  14.605  14.682   3.528
88758SOL     OW68112  13.891  13.277  11.631
88758SOL    HW168113  13.826  13.207  11.640
88758SOL    HW268114  13.912  13.279  11.538
88759SOL     OW68115   9.103   3.501   5.529
88759SOL    HW168116   9.060   3.416   5.541
88759SOL    HW268117   9.102   3.514   5.434
88760SOL     OW68118  12.592   5.398   2.164
88760SOL    HW168119  12.680   5.373   2.138
88760SOL    HW268120  12.576   5.481   2.119
88761SOL     OW68121   7.181   3.599  10.288
88761SOL    HW168122   7.142   3.677  10.328
88761SOL    HW268123   7.271   3.625  10.267
88762SOL     OW68124   0.608   3.112   0.535
88762SOL    HW168125   0.520   3.144   0.514
88762SOL    HW268126   0.601   3.082   0.626
88763SOL     OW68127   2.312  10.246   3.505
88763SOL    HW168128   2.287  10.299   3.581
88763SOL    HW268129   2.238  10.254   3.444
88764SOL     OW68130   4.712   8.542   4.061
88764SOL    HW168131   4.714   8.619   4.118
88764SOL    HW268132   4.640   8.488   4.095
88765SOL     OW68133   9.951   9.607  10.950
88765SOL    HW168134  10.000   9.620  10.869
88765SOL    HW268135   9.879   9.670  10.945
88766SOL     OW68136   5.987   0.081   5.596
88766SOL    HW168137   6.016   0.146   5.533
88766SOL    HW268138   5.914   0.036   5.553
88767SOL     OW68139  12.470  12.011   9.204
88767SOL    HW168140  12.436  12.070   9.271
88767SOL    HW268141  12.564  12.029   9.202
88768SOL     OW68142   0.793   6.339   1.266
88768SOL    HW168143   0.771   6.265   1.210
88768SOL    HW268144   0.714   6.393   1.266
88769SOL     OW68145   0.245   7.427   9.567
88769SOL    HW168146   0.280   7.344   9.536
88769SOL    HW268147   0.313   7.491   9.548
88770SOL     OW68148  13.117   5.783   8.293
88770SOL    HW168149  13.103   5.814   8.203
88770SOL    HW268150  13.031   5.750   8.320
88771SOL     OW68151  13.076   0.269   0.399
88771SOL    HW168152  13.098   0.228   0.482
88771SOL    HW268153  13.098   0.203   0.333
88772SOL     OW68154   8.794  14.771  14.250
88772SOL    HW168155   8.746  14.806  14.326
88772SOL    HW268156   8.728  14.719  14.203
88773SOL     OW68157   0.250   7.234   8.037
88773SOL    HW168158   0.311   7.247   8.109
88773SOL    HW268159   0.164   7.244   8.077
88774SOL     OW68160  10.230   4.915   7.376
88774SOL    HW168161  10.299   4.956   7.323
88774SOL    HW268162  10.198   4.985   7.433
88775SOL     OW68163   2.243  12.979  12.151
88775SOL    HW168164   2.211  12.892  12.177
88775SOL    HW268165   2.265  12.971  12.058
88776SOL     OW68166   2.400  10.630   7.415
88776SOL    HW168167   2.319  10.675   7.389
88776SOL    HW268168   2.373  10.540   7.431
88777SOL     OW68169   6.903   5.992   4.053
88777SOL    HW168170   6.876   5.900   4.048
88777SOL    HW268171   6.970   6.000   3.985
88778SOL     OW68172  13.971  12.733  11.308
88778SOL    HW168173  13.962  12.698  11.219
88778SOL    HW268174  13.884  12.769  11.328
88779SOL     OW68175   7.496   6.154  13.749
88779SOL    HW168176   7.535   6.185  13.830
88779SOL    HW268177   7.425   6.215  13.730
88780SOL     OW68178   2.107   7.374  12.481
88780SOL    HW168179   2.183   7.382  12.424
88780SOL    HW268180   2.137   7.404  12.566
88781SOL     OW68181   5.060   6.395  10.525
88781SOL    HW168182   5.041   6.330  10.593
88781SOL    HW268183   5.141   6.436  10.553
88782SOL     OW68184   5.455  14.393   3.330
88782SOL    HW168185   5.502  14.471   3.302
88782SOL    HW268186   5.396  14.373   3.257
88783SOL     OW68187  12.527   1.142  12.584
88783SOL    HW168188  12.499   1.096  12.505
88783SOL    HW268189  12.596   1.201  12.554
88784SOL     OW68190  13.233  12.147   1.053
88784SOL    HW168191  13.270  12.155   1.141
88784SOL    HW268192  13.211  12.055   1.044
88785SOL     OW68193  12.774   8.188  13.651
88785SOL    HW168194  12.734   8.106  13.623
88785SOL    HW268195  12.735   8.254  13.595
88786SOL     OW68196   3.636   7.610   1.275
88786SOL    HW168197   3.650   7.701   1.251
88786SOL    HW268198   3.707   7.562   1.230
88787SOL     OW68199   0.639   1.868   3.936
88787SOL    HW168200   0.651   1.849   4.030
88787SOL    HW268201   0.605   1.957   3.934
88788SOL     OW68202   7.480   2.226  11.842
88788SOL    HW168203   7.422   2.253  11.771
88788SOL    HW268204   7.556   2.187  11.798
88789SOL     OW68205  13.696   0.381  10.393
88789SOL    HW168206  13.792   0.383  10.391
88789SOL    HW268207  13.674   0.313  10.456
88790SOL     OW68208  12.802  12.635   2.885
88790SOL    HW168209  12.748  12.558   2.905
88790SOL    HW268210  12.890  12.600   2.871
88791SOL     OW68211  11.215   7.394  13.950
88791SOL    HW168212  11.270   7.462  13.987
88791SOL    HW268213  11.224   7.405  13.855
88792SOL     OW68214   6.800   3.163  14.734
88792SOL    HW168215   6.763   3.173  14.822
88792SOL    HW268216   6.829   3.251  14.710
88793SOL     OW68217   7.742   0.517  10.856
88793SOL    HW168218   7.739   0.445  10.792
88793SOL    HW268219   7.704   0.481  10.935
88794SOL     OW68220  14.056   9.824  13.810
88794SOL    HW168221  14.088   9.772  13.736
88794SOL    HW268222  13.961   9.827  13.798
88795SOL     OW68223   3.407  13.191  12.845
88795SOL    HW168224   3.316  13.161  12.858
88795SOL    HW268225   3.413  13.271  12.897
88796SOL     OW68226   6.968   3.463   4.082
88796SOL    HW168227   7.063   3.454   4.094
88796SOL    HW268228   6.956   3.554   4.057
88797SOL     OW68229   9.162   8.409   7.172
88797SOL    HW168230   9.161   8.398   7.267
88797SOL    HW268231   9.082   8.364   7.143
88798SOL     OW68232  13.122  14.741   8.887
88798SOL    HW168233  13.151  14.799   8.958
88798SOL    HW268234  13.170  14.660   8.902
88799SOL     OW68235   2.356  13.327   4.514
88799SOL    HW168236   2.300  13.380   4.570
88799SOL    HW268237   2.395  13.390   4.452
88800SOL     OW68238   0.601   7.403  11.862
88800SOL    HW168239   0.593   7.472  11.795
88800SOL    HW268240   0.629   7.450  11.941
88801SOL     OW68241   9.885   2.569   7.506
88801SOL    HW168242   9.876   2.581   7.412
88801SOL    HW268243   9.939   2.490   7.516
88802SOL     OW68244  11.812   6.639   4.399
88802SOL    HW168245  11.789   6.611   4.310
88802SOL    HW268246  11.908   6.639   4.400
88803SOL     OW68247   4.574   6.150   0.472
88803SOL    HW168248   4.549   6.138   0.381
88803SOL    HW268249   4.618   6.069   0.496
88804SOL     OW68250   6.234   6.397   4.439
88804SOL    HW168251   6.287   6.405   4.518
88804SOL    HW268252   6.216   6.303   4.431
88805SOL     OW68253   0.456   1.662  10.059
88805SOL    HW168254   0.537   1.633  10.101
88805SOL    HW268255   0.433   1.743  10.106
88806SOL     OW68256  14.084  14.147  11.528
88806SOL    HW168257  14.142  14.206  11.481
88806SOL    HW268258  14.024  14.114  11.462
88807SOL     OW68259   6.010   9.513   8.632
88807SOL    HW168260   5.951   9.472   8.694
88807SOL    HW268261   5.953   9.555   8.568
88808SOL     OW68262  11.073   3.090   1.196
88808SOL    HW168263  11.093   2.996   1.202
88808SOL    HW268264  11.062   3.106   1.103
88809SOL     OW68265   0.653   5.446  13.851
88809SOL    HW168266   0.710   5.493  13.913
88809SOL    HW268267   0.581   5.506  13.834
88810SOL     OW68268  14.486   0.559   8.041
88810SOL    HW168269  14.435   0.629   8.001
88810SOL    HW268270  14.561   0.603   8.081
88811SOL     OW68271  13.469   4.411   7.434
88811SOL    HW168272  13.460   4.318   7.411
88811SOL    HW268273  13.483   4.455   7.350
88812SOL     OW68274   9.732  11.464  12.836
88812SOL    HW168275   9.770  11.447  12.922
88812SOL    HW268276   9.808  11.463  12.777
88813SOL     OW68277  11.306   8.989  13.174
88813SOL    HW168278  11.280   8.898  13.189
88813SOL    HW268279  11.244   9.040  13.227
88814SOL     OW68280   4.155   8.753   6.973
88814SOL    HW168281   4.151   8.718   6.884
88814SOL    HW268282   4.249   8.758   6.993
88815SOL     OW68283  12.338   6.186   1.968
88815SOL    HW168284  12.370   6.139   2.046
88815SOL    HW268285  12.244   6.172   1.969
88816SOL     OW68286   8.646   6.173   3.717
88816SOL    HW168287   8.668   6.245   3.658
88816SOL    HW268288   8.588   6.212   3.782
88817SOL     OW68289   9.855  11.851   4.390
88817SOL    HW168290   9.866  11.783   4.324
88817SOL    HW268291   9.775  11.897   4.364
88818SOL     OW68292  12.888   5.550  12.905
88818SOL    HW168293  12.923   5.588  12.986
88818SOL    HW268294  12.793   5.547  12.918
88819SOL     OW68295   7.696   1.815   7.875
88819SOL    HW168296   7.607   1.832   7.906
88819SOL    HW268297   7.685   1.794   7.782
88820SOL     OW68298   6.377   7.721  13.964
88820SOL    HW168299   6.307   7.785  13.951
88820SOL    HW268300   6.334   7.636  13.965
88821SOL     OW68301   1.371   5.495   5.789
88821SOL    HW168302   1.431   5.513   5.862
88821SOL    HW268303   1.427   5.460   5.720
88822SOL     OW68304   1.887  12.051  13.447
88822SOL    HW168305   1.813  12.109  13.462
88822SOL    HW268306   1.881  12.027  13.355
88823SOL     OW68307  14.857   9.263  11.809
88823SOL    HW168308  14.850   9.348  11.851
88823SOL    HW268309   0.047   9.215  11.862
88824SOL     OW68310   5.836   9.836   7.269
88824SOL    HW168311   5.764   9.855   7.208
88824SOL    HW268312   5.869   9.923   7.293
88825SOL     OW68313  11.508  12.886  13.643
88825SOL    HW168314  11.449  12.842  13.704
88825SOL    HW268315  11.579  12.823  13.629
88826SOL     OW68316  13.088   8.432   3.477
88826SOL    HW168317  13.126   8.514   3.508
88826SOL    HW268318  13.155   8.366   3.493
88827SOL     OW68319   3.040   9.239  10.961
88827SOL    HW168320   3.055   9.201  11.047
88827SOL    HW268321   2.945   9.239  10.950
88828SOL     OW68322   7.994  10.483   3.567
88828SOL    HW168323   8.059  10.429   3.612
88828SOL    HW268324   8.024  10.573   3.580
88829SOL     OW68325   1.187  13.305  13.852
88829SOL    HW168326   1.112  13.245  13.858
88829SOL    HW268327   1.252  13.268  13.912
88830SOL     OW68328   7.409   7.565  11.728
88830SOL    HW168329   7.483   7.519  11.688
88830SOL    HW268330   7.342   7.497  11.740
88831SOL     OW68331   1.818  10.215  14.250
88831SOL    HW168332   1.751  10.215  14.182
88831SOL    HW268333   1.770  10.230  14.331
88832SOL     OW68334   7.790  14.093   4.382
88832SOL    HW168335   7.718  14.032   4.399
88832SOL    HW268336   7.763  14.142   4.305
88833SOL     OW68337   5.429  11.582   9.511
88833SOL    HW168338   5.346  11.562   9.468
88833SOL    HW268339   5.405  11.607   9.600
88834SOL     OW68340   7.687   6.906   1.816
88834SOL    HW168341   7.647   6.905   1.903
88834SOL    HW268342   7.658   6.989   1.778
88835SOL     OW68343   8.369   7.970   5.589
88835SOL    HW168344   8.377   7.966   5.494
88835SOL    HW268345   8.456   7.997   5.619
88836SOL     OW68346   6.320  11.785   1.514
88836SOL    HW168347   6.276  11.868   1.535
88836SOL    HW268348   6.413  11.805   1.523
88837SOL     OW68349   7.983  10.158  13.538
88837SOL    HW168350   7.931  10.122  13.610
88837SOL    HW268351   8.003  10.082  13.483
88838SOL     OW68352   1.286   7.416   5.287
88838SOL    HW168353   1.271   7.410   5.193
88838SOL    HW268354   1.214   7.368   5.326
88839SOL     OW68355  14.499   9.564   5.747
88839SOL    HW168356  14.551   9.489   5.718
88839SOL    HW268357  14.507   9.563   5.843
88840SOL     OW68358   6.903   4.690   0.554
88840SOL    HW168359   6.901   4.780   0.587
88840SOL    HW268360   6.938   4.638   0.627
88841SOL     OW68361   2.804   9.245  10.627
88841SOL    HW168362   2.844   9.169  10.585
88841SOL    HW268363   2.724   9.260  10.576
88842SOL     OW68364   9.068   2.228   5.418
88842SOL    HW168365   9.003   2.253   5.484
88842SOL    HW268366   9.018   2.223   5.337
88843SOL     OW68367  10.544   7.532   4.934
88843SOL    HW168368  10.551   7.461   4.998
88843SOL    HW268369  10.458   7.571   4.951
88844SOL     OW68370   7.048   1.910  10.572
88844SOL    HW168371   6.995   1.887  10.495
88844SOL    HW268372   7.038   1.835  10.631
88845SOL     OW68373   6.694   9.725  14.341
88845SOL    HW168374   6.604   9.700  14.362
88845SOL    HW268375   6.711   9.803  14.394
88846SOL     OW68376  11.318  10.369   6.718
88846SOL    HW168377  11.358  10.444   6.674
88846SOL    HW268378  11.295  10.309   6.647
88847SOL     OW68379   7.150  12.367   8.105
88847SOL    HW168380   7.116  12.370   8.194
88847SOL    HW268381   7.235  12.323   8.112
88848SOL     OW68382  10.334  11.232   0.969
88848SOL    HW168383  10.261  11.170   0.966
88848SOL    HW268384  10.369  11.223   1.057
88849SOL     OW68385  14.181   5.154   2.200
88849SOL    HW168386  14.181   5.059   2.187
88849SOL    HW268387  14.100   5.172   2.247
88850SOL     OW68388   4.627   4.127  10.153
88850SOL    HW168389   4.699   4.141  10.092
88850SOL    HW268390   4.597   4.038  10.136
88851SOL     OW68391   1.928   8.379   7.339
88851SOL    HW168392   1.997   8.338   7.286
88851SOL    HW268393   1.961   8.376   7.428
88852SOL     OW68394   5.393  12.871   8.441
88852SOL    HW168395   5.325  12.934   8.418
88852SOL    HW268396   5.380  12.856   8.535
88853SOL     OW68397   3.296   1.876   4.397
88853SOL    HW168398   3.355   1.848   4.327
88853SOL    HW268399   3.353   1.890   4.473
88854SOL     OW68400   5.201  14.302  10.472
88854SOL    HW168401   5.199  14.222  10.420
88854SOL    HW268402   5.170  14.276  10.558
88855SOL     OW68403   0.765  12.279   3.165
88855SOL    HW168404   0.849  12.234   3.177
88855SOL    HW268405   0.756  12.287   3.070
88856SOL     OW68406   7.788  14.682   4.457
88856SOL    HW168407   7.785  14.586   4.460
88856SOL    HW268408   7.703  14.708   4.423
88857SOL     OW68409  14.187  13.098  11.601
88857SOL    HW168410  14.135  13.101  11.520
88857SOL    HW268411  14.169  13.012  11.638
88858SOL     OW68412  11.006  13.217   5.251
88858SOL    HW168413  10.912  13.219   5.238
88858SOL    HW268414  11.033  13.130   5.220
88859SOL     OW68415   1.581  14.357  11.302
88859SOL    HW168416   1.572  14.413  11.225
88859SOL    HW268417   1.653  14.395  11.352
88860SOL     OW68418   5.324  13.482  14.058
88860SOL    HW168419   5.383  13.538  14.007
88860SOL    HW268420   5.347  13.501  14.149
88861SOL     OW68421   6.798  11.208   2.152
88861SOL    HW168422   6.775  11.131   2.203
88861SOL    HW268423   6.727  11.217   2.088
88862SOL     OW68424   1.006  10.745  12.540
88862SOL    HW168425   0.932  10.773  12.485
88862SOL    HW268426   1.063  10.698  12.480
88863SOL     OW68427  12.213  10.815  12.957
88863SOL    HW168428  12.262  10.744  12.998
88863SOL    HW268429  12.263  10.837  12.878
88864SOL     OW68430   8.347   2.760   5.836
88864SOL    HW168431   8.440   2.782   5.845
88864SOL    HW268432   8.347   2.674   5.792
88865SOL     OW68433  13.422   5.483   1.807
88865SOL    HW168434  13.494   5.542   1.783
88865SOL    HW268435  13.343   5.531   1.782
88866SOL     OW68436   4.264   9.709  13.435
88866SOL    HW168437   4.257   9.744  13.524
88866SOL    HW268438   4.231   9.779  13.379
88867SOL     OW68439  10.337   0.425   9.274
88867SOL    HW168440  10.256   0.442   9.322
88867SOL    HW268441  10.377   0.352   9.321
88868SOL     OW68442   9.754   5.914   2.975
88868SOL    HW168443   9.716   5.983   3.030
88868SOL    HW268444   9.684   5.892   2.913
88869SOL     OW68445   5.597  12.492   3.856
88869SOL    HW168446   5.686  12.468   3.882
88869SOL    HW268447   5.546  12.411   3.867
88870SOL     OW68448  14.655  11.226   9.857
88870SOL    HW168449  14.576  11.275   9.880
88870SOL    HW268450  14.668  11.244   9.764
88871SOL     OW68451   7.080  10.134  10.731
88871SOL    HW168452   7.121  10.053  10.702
88871SOL    HW268453   7.150  10.180  10.778
88872SOL     OW68454  10.328   6.218  12.510
88872SOL    HW168455  10.247   6.177  12.539
88872SOL    HW268456  10.386   6.210  12.586
88873SOL     OW68457   3.361   3.025  10.248
88873SOL    HW168458   3.273   2.995  10.224
88873SOL    HW268459   3.394   3.068  10.169
88874SOL     OW68460   8.821  13.174   7.343
88874SOL    HW168461   8.754  13.202   7.281
88874SOL    HW268462   8.778  13.107   7.397
88875SOL     OW68463  12.226  14.634  10.286
88875SOL    HW168464  12.252  14.653  10.376
88875SOL    HW268465  12.297  14.669  10.232
88876SOL     OW68466   9.766  10.622   6.679
88876SOL    HW168467   9.716  10.652   6.602
88876SOL    HW268468   9.731  10.535   6.697
88877SOL     OW68469   6.059   8.570  12.435
88877SOL    HW168470   6.133   8.541  12.488
88877SOL    HW268471   6.061   8.512  12.358
88878SOL     OW68472   8.933   8.082   6.584
88878SOL    HW168473   8.903   7.997   6.551
88878SOL    HW268474   9.014   8.063   6.631
88879SOL     OW68475   4.046   2.116   6.475
88879SOL    HW168476   3.957   2.083   6.492
88879SOL    HW268477   4.071   2.158   6.557
88880SOL     OW68478   1.393   1.545   2.230
88880SOL    HW168479   1.355   1.461   2.255
88880SOL    HW268480   1.472   1.522   2.182
88881SOL     OW68481   8.310   5.523  11.999
88881SOL    HW168482   8.256   5.547  12.075
88881SOL    HW268483   8.246   5.504  11.930
88882SOL     OW68484   3.011   7.640   8.871
88882SOL    HW168485   2.965   7.642   8.955
88882SOL    HW268486   3.098   7.675   8.890
88883SOL     OW68487   5.504  10.785   4.913
88883SOL    HW168488   5.595  10.813   4.906
88883SOL    HW268489   5.468  10.795   4.825
88884SOL     OW68490  11.157   4.391   6.192
88884SOL    HW168491  11.239   4.351   6.222
88884SOL    HW268492  11.185   4.473   6.152
88885SOL     OW68493  14.199  13.657   8.661
88885SOL    HW168494  14.264  13.623   8.600
88885SOL    HW268495  14.159  13.731   8.615
88886SOL     OW68496   6.638   8.738  11.228
88886SOL    HW168497   6.696   8.811  11.251
88886SOL    HW268498   6.678   8.662  11.271
88887SOL     OW68499   7.938   3.574   4.794
88887SOL    HW168500   7.889   3.492   4.801
88887SOL    HW268501   7.882   3.639   4.835
88888SOL     OW68502   4.717   3.318   4.775
88888SOL    HW168503   4.659   3.390   4.751
88888SOL    HW268504   4.779   3.312   4.702
88889SOL     OW68505   4.458   6.703  11.898
88889SOL    HW168506   4.512   6.646  11.843
88889SOL    HW268507   4.463   6.663  11.985
88890SOL     OW68508  11.371   3.314   2.787
88890SOL    HW168509  11.302   3.364   2.831
88890SOL    HW268510  11.447   3.372   2.788
88891SOL     OW68511   2.352   3.378   9.051
88891SOL    HW168512   2.325   3.291   9.082
88891SOL    HW268513   2.271   3.430   9.053
88892SOL     OW68514   7.003   8.954  14.271
88892SOL    HW168515   6.960   8.889  14.326
88892SOL    HW268516   6.938   9.024  14.261
88893SOL     OW68517  12.393   9.372  10.053
88893SOL    HW168518  12.463   9.411  10.104
88893SOL    HW268519  12.331   9.339  10.119
88894SOL     OW68520   4.631   9.036   4.435
88894SOL    HW168521   4.590   8.952   4.455
88894SOL    HW268522   4.715   9.034   4.481
88895SOL     OW68523   5.471   1.016  13.518
88895SOL    HW168524   5.477   0.922  13.533
88895SOL    HW268525   5.562   1.047  13.523
88896SOL     OW68526  14.644   7.315   7.025
88896SOL    HW168527  14.605   7.376   7.087
88896SOL    HW268528  14.616   7.346   6.939
88897SOL     OW68529  10.945  13.421   4.281
88897SOL    HW168530  10.944  13.465   4.196
88897SOL    HW268531  10.915  13.332   4.262
88898SOL     OW68532   5.802  12.938  12.842
88898SOL    HW168533   5.734  12.905  12.900
88898SOL    HW268534   5.766  13.018  12.804
88899SOL     OW68535   0.996   3.857   8.548
88899SOL    HW168536   1.082   3.895   8.563
88899SOL    HW268537   0.997   3.831   8.455
88900SOL     OW68538  11.044   7.532   5.312
88900SOL    HW168539  11.064   7.507   5.402
88900SOL    HW268540  11.033   7.627   5.315
88901SOL     OW68541   6.203   4.799   4.513
88901SOL    HW168542   6.233   4.721   4.560
88901SOL    HW268543   6.248   4.872   4.555
88902SOL     OW68544   4.967  14.000   4.353
88902SOL    HW168545   5.033  14.064   4.328
88902SOL    HW268546   4.948  13.952   4.272
88903SOL     OW68547   7.825  13.381   9.235
88903SOL    HW168548   7.785  13.361   9.150
88903SOL    HW268549   7.891  13.448   9.215
88904SOL     OW68550   3.412   2.895  12.509
88904SOL    HW168551   3.366   2.831  12.563
88904SOL    HW268552   3.344   2.938  12.459
88905SOL     OW68553  10.945   4.292   1.565
88905SOL    HW168554  10.897   4.346   1.628
88905SOL    HW268555  10.979   4.219   1.616
88906SOL     OW68556   6.848  11.459  14.859
88906SOL    HW168557   6.903  11.538  14.858
88906SOL    HW268558   6.783  11.474  14.791
88907SOL     OW68559  12.439  10.902  14.058
88907SOL    HW168560  12.492  10.977  14.032
88907SOL    HW268561  12.481  10.869  14.137
88908SOL     OW68562  10.804  13.984  13.980
88908SOL    HW168563  10.863  13.983  13.905
88908SOL    HW268564  10.751  14.062  13.968
88909SOL     OW68565  10.281   6.712   6.004
88909SOL    HW168566  10.370   6.726   5.971
88909SOL    HW268567  10.245   6.801   6.014
88910SOL     OW68568   3.092   5.344  14.792
88910SOL    HW168569   3.007   5.309  14.763
88910SOL    HW268570   3.069   5.421  14.844
88911SOL     OW68571   3.184   8.196   8.934
88911SOL    HW168572   3.250   8.257   8.903
88911SOL    HW268573   3.234   8.125   8.974
88912SOL     OW68574   5.801   8.372   3.953
88912SOL    HW168575   5.797   8.281   3.921
88912SOL    HW268576   5.777   8.425   3.877
88913SOL     OW68577  11.347   6.115   0.973
88913SOL    HW168578  11.372   6.174   1.044
88913SOL    HW268579  11.368   6.027   1.007
88914SOL     OW68580  13.735  14.797  11.820
88914SOL    HW168581  13.699  14.714  11.852
88914SOL    HW268582  13.660  14.855  11.813
88915SOL     OW68583  14.136   7.605   2.598
88915SOL    HW168584  14.063   7.546   2.578
88915SOL    HW268585  14.109   7.651   2.678
88916SOL     OW68586   6.858   1.157  13.709
88916SOL    HW168587   6.853   1.212  13.631
88916SOL    HW268588   6.818   1.209  13.778
88917SOL     OW68589   2.126   7.357   2.001
88917SOL    HW168590   2.063   7.320   2.062
88917SOL    HW268591   2.112   7.452   2.006
88918SOL     OW68592  13.335  12.492  12.708
88918SOL    HW168593  13.386  12.413  12.691
88918SOL    HW268594  13.274  12.466  12.778
88919SOL     OW68595   4.042  11.870   1.115
88919SOL    HW168596   3.993  11.833   1.041
88919SOL    HW268597   3.980  11.928   1.159
88920SOL     OW68598   9.035   4.589   4.610
88920SOL    HW168599   9.094   4.564   4.538
88920SOL    HW268600   8.963   4.634   4.566
88921SOL     OW68601  12.821   4.838  14.205
88921SOL    HW168602  12.908   4.833  14.166
88921SOL    HW268603  12.777   4.757  14.177
88922SOL     OW68604   3.965  14.131   1.880
88922SOL    HW168605   3.943  14.066   1.947
88922SOL    HW268606   3.969  14.214   1.927
88923SOL     OW68607  14.373   5.793   6.807
88923SOL    HW168608  14.454   5.829   6.843
88923SOL    HW268609  14.349   5.723   6.868
88924SOL     OW68610   6.502   0.227   4.101
88924SOL    HW168611   6.513   0.257   4.011
88924SOL    HW268612   6.531   0.136   4.100
88925SOL     OW68613   5.479  11.397  14.371
88925SOL    HW168614   5.547  11.334  14.349
88925SOL    HW268615   5.426  11.404  14.291
88926SOL     OW68616  10.206   4.146  14.473
88926SOL    HW168617  10.256   4.227  14.483
88926SOL    HW268618  10.270   4.076  14.483
88927SOL     OW68619  11.005   9.068  11.199
88927SOL    HW168620  10.924   9.018  11.190
88927SOL    HW268621  10.981   9.157  11.175
88928SOL     OW68622  13.553   3.538  14.339
88928SOL    HW168623  13.495   3.551  14.414
88928SOL    HW268624  13.548   3.445  14.320
88929SOL     OW68625  11.113   7.344  10.294
88929SOL    HW168626  11.165   7.263  10.290
88929SOL    HW268627  11.155   7.395  10.364
88930SOL     OW68628   7.591   3.233   0.768
88930SOL    HW168629   7.660   3.289   0.731
88930SOL    HW268630   7.561   3.279   0.846
88931SOL     OW68631  13.351   5.622   6.456
88931SOL    HW168632  13.302   5.551   6.414
88931SOL    HW268633  13.285   5.672   6.504
88932SOL     OW68634   6.740   5.138  13.008
88932SOL    HW168635   6.714   5.199  13.077
88932SOL    HW268636   6.658   5.114  12.965
88933SOL     OW68637  14.303   6.017  12.271
88933SOL    HW168638  14.379   6.029  12.329
88933SOL    HW268639  14.338   5.970  12.196
88934SOL     OW68640  11.014  12.664  10.364
88934SOL    HW168641  11.064  12.587  10.337
88934SOL    HW268642  10.923  12.641  10.346
88935SOL     OW68643   7.471   8.440   6.994
88935SOL    HW168644   7.543   8.503   6.997
88935SOL    HW268645   7.400   8.481   7.042
88936SOL     OW68646   7.484  10.264   1.531
88936SOL    HW168647   7.431  10.340   1.510
88936SOL    HW268648   7.540  10.250   1.454
88937SOL     OW68649   6.595   1.065  12.285
88937SOL    HW168650   6.563   1.137  12.339
88937SOL    HW268651   6.645   1.108  12.215
88938SOL     OW68652   0.766   7.792  11.902
88938SOL    HW168653   0.746   7.722  11.964
88938SOL    HW268654   0.838   7.758  11.849
88939SOL     OW68655   7.243  13.892   3.121
88939SOL    HW168656   7.308  13.864   3.185
88939SOL    HW268657   7.290  13.897   3.038
88940SOL     OW68658   7.278   6.479  11.753
88940SOL    HW168659   7.252   6.407  11.695
88940SOL    HW268660   7.231   6.555  11.720
88941SOL     OW68661   2.461   4.309   2.010
88941SOL    HW168662   2.431   4.220   1.991
88941SOL    HW268663   2.381   4.360   2.021
88942SOL     OW68664   9.166   0.563   6.625
88942SOL    HW168665   9.253   0.529   6.604
88942SOL    HW268666   9.181   0.656   6.647
88943SOL     OW68667   7.942   5.394   1.600
88943SOL    HW168668   8.014   5.449   1.569
88943SOL    HW268669   7.918   5.431   1.685
88944SOL     OW68670  14.489  14.163   7.895
88944SOL    HW168671  14.395  14.145   7.891
88944SOL    HW268672  14.507  14.214   7.816
88945SOL     OW68673   4.720   7.535   0.838
88945SOL    HW168674   4.634   7.572   0.858
88945SOL    HW268675   4.782   7.601   0.867
88946SOL     OW68676  11.681   5.094  10.438
88946SOL    HW168677  11.631   5.089  10.356
88946SOL    HW268678  11.623   5.138  10.499
88947SOL     OW68679   0.196  14.223   7.838
88947SOL    HW168680   0.115  14.244   7.884
88947SOL    HW268681   0.189  14.130   7.819
88948SOL     OW68682   8.475  13.232   4.514
88948SOL    HW168683   8.535  13.176   4.466
88948SOL    HW268684   8.394  13.230   4.463
88949SOL     OW68685   5.510  11.949   2.059
88949SOL    HW168686   5.525  11.855   2.069
88949SOL    HW268687   5.451  11.972   2.131
88950SOL     OW68688   0.995  11.810   3.501
88950SOL    HW168689   1.086  11.840   3.502
88950SOL    HW268690   0.987  11.761   3.419
88951SOL     OW68691   9.589   2.298  10.321
88951SOL    HW168692   9.503   2.266  10.346
88951SOL    HW268693   9.649   2.260  10.385
88952SOL     OW68694  10.529   0.579   8.636
88952SOL    HW168695  10.601   0.629   8.597
88952SOL    HW268696  10.483   0.541   8.561
88953SOL     OW68697  10.726   1.097   3.033
88953SOL    HW168698  10.650   1.152   3.049
88953SOL    HW268699  10.748   1.060   3.118
88954SOL     OW68700   6.131  13.871  11.991
88954SOL    HW168701   6.107  13.835  11.905
88954SOL    HW268702   6.149  13.795  12.045
88955SOL     OW68703  10.605   4.356  13.826
88955SOL    HW168704  10.590   4.307  13.907
88955SOL    HW268705  10.640   4.291  13.765
88956SOL     OW68706   5.866   9.390  13.617
88956SOL    HW168707   5.874   9.480  13.650
88956SOL    HW268708   5.809   9.398  13.540
88957SOL     OW68709   3.571   6.603   0.275
88957SOL    HW168710   3.498   6.592   0.336
88957SOL    HW268711   3.611   6.516   0.269
88958SOL     OW68712   5.828  14.828   3.046
88958SOL    HW168713   5.832  14.738   3.076
88958SOL    HW268714   5.814  14.821   2.951
88959SOL     OW68715   7.470   8.884   7.552
88959SOL    HW168716   7.549   8.837   7.578
88959SOL    HW268717   7.399   8.822   7.567
88960SOL     OW68718   6.695  11.290   7.356
88960SOL    HW168719   6.689  11.203   7.396
88960SOL    HW268720   6.734  11.345   7.424
88961SOL     OW68721   0.282   4.496  12.643
88961SOL    HW168722   0.229   4.430  12.686
88961SOL    HW268723   0.252   4.495  12.552
88962SOL     OW68724  13.723  14.404   2.093
88962SOL    HW168725  13.668  14.461   2.039
88962SOL    HW268726  13.707  14.316   2.060
88963SOL     OW68727  10.875   4.942   3.833
88963SOL    HW168728  10.810   4.872   3.824
88963SOL    HW268729  10.959   4.900   3.815
88964SOL     OW68730  13.208   5.167   3.487
88964SOL    HW168731  13.196   5.098   3.554
88964SOL    HW268732  13.119   5.202   3.474
88965SOL     OW68733   4.682   1.606   4.601
88965SOL    HW168734   4.760   1.645   4.639
88965SOL    HW268735   4.613   1.621   4.666
88966SOL     OW68736  13.145   2.362   7.704
88966SOL    HW168737  13.161   2.410   7.785
88966SOL    HW268738  13.230   2.323   7.682
88967SOL     OW68739  14.119   7.386  12.501
88967SOL    HW168740  14.121   7.480  12.485
88967SOL    HW268741  14.113   7.377  12.596
88968SOL     OW68742   7.719   8.127   6.547
88968SOL    HW168743   7.786   8.184   6.585
88968SOL    HW268744   7.659   8.187   6.502
88969SOL     OW68745   4.090   5.738   1.906
88969SOL    HW168746   3.996   5.721   1.896
88969SOL    HW268747   4.127   5.652   1.929
88970SOL     OW68748  10.729  13.878   5.691
88970SOL    HW168749  10.785  13.807   5.662
88970SOL    HW268750  10.783  13.925   5.755
88971SOL     OW68751   9.865   1.545   0.140
88971SOL    HW168752   9.843   1.638   0.131
88971SOL    HW268753   9.799   1.511   0.200
88972SOL     OW68754  13.030   6.683   4.973
88972SOL    HW168755  13.112   6.732   4.963
88972SOL    HW268756  13.055   6.604   5.022
88973SOL     OW68757   5.185   1.695   5.113
88973SOL    HW168758   5.226   1.753   5.177
88973SOL    HW268759   5.222   1.722   5.029
88974SOL     OW68760   0.467   6.304   8.534
88974SOL    HW168761   0.547   6.328   8.488
88974SOL    HW268762   0.496   6.277   8.621
88975SOL     OW68763   3.817   0.054  13.233
88975SOL    HW168764   3.789  14.853  13.286
88975SOL    HW268765   3.783   0.034  13.145
88976SOL     OW68766   2.527  10.519   6.273
88976SOL    HW168767   2.558  10.601   6.312
88976SOL    HW268768   2.460  10.487   6.334
88977SOL     OW68769   8.477   3.156   4.990
88977SOL    HW168770   8.435   3.242   5.001
88977SOL    HW268771   8.566   3.168   5.023
88978SOL     OW68772  10.555   1.105  12.880
88978SOL    HW168773  10.555   1.167  12.808
88978SOL    HW268774  10.515   1.026  12.844
88979SOL     OW68775   1.562   1.922   4.153
88979SOL    HW168776   1.481   1.892   4.111
88979SOL    HW268777   1.625   1.851   4.137
88980SOL     OW68778   6.231   1.786   7.134
88980SOL    HW168779   6.241   1.698   7.100
88980SOL    HW268780   6.308   1.800   7.189
88981SOL     OW68781   6.833   4.215   4.721
88981SOL    HW168782   6.746   4.205   4.683
88981SOL    HW268783   6.886   4.148   4.678
88982SOL     OW68784   2.116  12.734   5.192
88982SOL    HW168785   2.118  12.815   5.242
88982SOL    HW268786   2.032  12.695   5.214
88983SOL     OW68787   4.690  10.723   7.909
88983SOL    HW168788   4.645  10.762   7.984
88983SOL    HW268789   4.697  10.794   7.845
88984SOL     OW68790   9.962   7.702   3.495
88984SOL    HW168791   9.981   7.720   3.403
88984SOL    HW268792   9.887   7.758   3.515
88985SOL     OW68793   5.328   4.268   7.135
88985SOL    HW168794   5.304   4.268   7.043
88985SOL    HW268795   5.252   4.304   7.180
88986SOL     OW68796  13.318  14.251   9.265
88986SOL    HW168797  13.265  14.192   9.318
88986SOL    HW268798  13.274  14.336   9.274
88987SOL     OW68799   5.025   3.748   1.373
88987SOL    HW168800   5.020   3.835   1.332
88987SOL    HW268801   5.116   3.741   1.401
88988SOL     OW68802   2.239   6.306   2.634
88988SOL    HW168803   2.268   6.302   2.543
88988SOL    HW268804   2.185   6.228   2.645
88989SOL     OW68805   9.508   3.475   1.075
88989SOL    HW168806   9.580   3.488   1.137
88989SOL    HW268807   9.444   3.542   1.097
88990SOL     OW68808  14.550   1.338   5.557
88990SOL    HW168809  14.593   1.346   5.471
88990SOL    HW268810  14.483   1.272   5.543
88991SOL     OW68811   2.849   3.618   9.406
88991SOL    HW168812   2.920   3.557   9.385
88991SOL    HW268813   2.769   3.567   9.389
88992SOL     OW68814   6.383   2.387   5.807
88992SOL    HW168815   6.336   2.311   5.771
88992SOL    HW268816   6.323   2.460   5.796
88993SOL     OW68817   8.770   9.340  12.127
88993SOL    HW168818   8.739   9.275  12.065
88993SOL    HW268819   8.768   9.295  12.212
88994SOL     OW68820  11.241  11.181   5.450
88994SOL    HW168821  11.331  11.213   5.445
88994SOL    HW268822  11.191  11.245   5.399
88995SOL     OW68823   9.466   1.854   5.955
88995SOL    HW168824   9.545   1.907   5.962
88995SOL    HW268825   9.488   1.787   5.890
88996SOL     OW68826   7.602   1.095  13.980
88996SOL    HW168827   7.660   1.032  14.023
88996SOL    HW268828   7.629   1.180  14.014
88997SOL     OW68829   9.183   7.432  10.143
88997SOL    HW168830   9.164   7.502  10.080
88997SOL    HW268831   9.171   7.473  10.229
88998SOL     OW68832   2.032  10.949   5.041
88998SOL    HW168833   1.937  10.951   5.031
88998SOL    HW268834   2.060  11.038   5.020
88999SOL     OW68835   3.408   0.976  11.326
88999SOL    HW168836   3.319   0.982  11.363
88999SOL    HW268837   3.446   0.900  11.370
89000SOL     OW68838   4.904   4.693   2.685
89000SOL    HW168839   4.934   4.701   2.776
89000SOL    HW268840   4.834   4.628   2.689
89001SOL     OW68841  14.500   4.078   8.847
89001SOL    HW168842  14.536   4.004   8.896
89001SOL    HW268843  14.413   4.049   8.819
89002SOL     OW68844   5.309   7.913  12.437
89002SOL    HW168845   5.355   7.988  12.476
89002SOL    HW268846   5.216   7.931  12.452
89003SOL     OW68847   4.591   1.975   3.395
89003SOL    HW168848   4.512   2.002   3.441
89003SOL    HW268849   4.662   1.991   3.457
89004SOL     OW68850   8.407   2.440   5.377
89004SOL    HW168851   8.377   2.352   5.398
89004SOL    HW268852   8.339   2.476   5.320
89005SOL     OW68853   5.987   0.750  11.490
89005SOL    HW168854   6.037   0.824  11.454
89005SOL    HW268855   6.050   0.704  11.546
89006SOL     OW68856   0.762  12.496   8.218
89006SOL    HW168857   0.857  12.492   8.232
89006SOL    HW268858   0.726  12.502   8.306
89007SOL     OW68859   2.307  10.637   5.708
89007SOL    HW168860   2.350  10.562   5.668
89007SOL    HW268861   2.260  10.601   5.783
89008SOL     OW68862   3.353   6.966   1.484
89008SOL    HW168863   3.344   6.873   1.507
89008SOL    HW268864   3.298   6.977   1.406
89009SOL     OW68865   2.076  12.763   9.123
89009SOL    HW168866   2.167  12.758   9.093
89009SOL    HW268867   2.080  12.738   9.216
89010SOL     OW68868   7.634   8.220   2.771
89010SOL    HW168869   7.552   8.243   2.727
89010SOL    HW268870   7.697   8.283   2.738
89011SOL     OW68871  12.111   0.316   5.685
89011SOL    HW168872  12.140   0.226   5.669
89011SOL    HW268873  12.192   0.366   5.693
89012SOL     OW68874   1.285  10.832   6.200
89012SOL    HW168875   1.213  10.770   6.214
89012SOL    HW268876   1.329  10.799   6.121
89013SOL     OW68877   3.991   5.500  13.520
89013SOL    HW168878   3.952   5.437  13.580
89013SOL    HW268879   4.085   5.495  13.538
89014SOL     OW68880   3.826   3.696  14.122
89014SOL    HW168881   3.784   3.766  14.072
89014SOL    HW268882   3.905   3.737  14.159
89015SOL     OW68883   4.319  12.519   1.648
89015SOL    HW168884   4.230  12.550   1.663
89015SOL    HW268885   4.374  12.576   1.701
89016SOL     OW68886  13.700  12.847  14.568
89016SOL    HW168887  13.781  12.885  14.534
89016SOL    HW268888  13.722  12.757  14.588
89017SOL     OW68889   1.518   8.803  11.479
89017SOL    HW168890   1.480   8.848  11.404
89017SOL    HW268891   1.464   8.724  11.489
89018SOL     OW68892  12.573  13.944  10.774
89018SOL    HW168893  12.661  13.955  10.738
89018SOL    HW268894  12.568  13.851  10.796
89019SOL     OW68895   3.602   4.280   1.938
89019SOL    HW168896   3.680   4.265   1.991
89019SOL    HW268897   3.557   4.353   1.982
89020SOL     OW68898   3.773   5.209   9.581
89020SOL    HW168899   3.865   5.199   9.559
89020SOL    HW268900   3.772   5.222   9.676
89021SOL     OW68901   3.431   2.192  14.419
89021SOL    HW168902   3.353   2.227  14.462
89021SOL    HW268903   3.487   2.268  14.405
89022SOL     OW68904  11.539   6.549  10.787
89022SOL    HW168905  11.561   6.637  10.757
89022SOL    HW268906  11.468   6.521  10.729
89023SOL     OW68907   1.443   8.608  12.423
89023SOL    HW168908   1.365   8.553  12.433
89023SOL    HW268909   1.452   8.620  12.328
89024SOL     OW68910  14.528   9.930  14.868
89024SOL    HW168911  14.615   9.932  14.829
89024SOL    HW268912  14.469   9.924  14.793
89025SOL     OW68913  11.505   8.763  11.115
89025SOL    HW168914  11.553   8.816  11.051
89025SOL    HW268915  11.502   8.817  11.193
89026SOL     OW68916  10.418   1.021   0.417
89026SOL    HW168917  10.401   1.057   0.330
89026SOL    HW268918  10.349   0.956   0.429
89027SOL     OW68919   8.348   4.469   3.760
89027SOL    HW168920   8.275   4.481   3.820
89027SOL    HW268921   8.423   4.510   3.805
89028SOL     OW68922   1.028   6.318   3.665
89028SOL    HW168923   1.075   6.351   3.741
89028SOL    HW268924   1.076   6.354   3.590
89029SOL     OW68925  10.576   9.052   9.763
89029SOL    HW168926  10.616   8.969   9.735
89029SOL    HW268927  10.621   9.119   9.711
89030SOL     OW68928   5.235   8.550   0.635
89030SOL    HW168929   5.230   8.475   0.694
89030SOL    HW268930   5.171   8.531   0.566
89031SOL     OW68931  12.502  13.314   8.066
89031SOL    HW168932  12.409  13.290   8.061
89031SOL    HW268933  12.505  13.381   8.134
89032SOL     OW68934   2.863  10.279   9.703
89032SOL    HW168935   2.906  10.320   9.778
89032SOL    HW268936   2.931  10.277   9.635
89033SOL     OW68937   8.401   6.351  13.474
89033SOL    HW168938   8.337   6.407  13.431
89033SOL    HW268939   8.485   6.378  13.438
89034SOL     OW68940  12.178   4.664   7.205
89034SOL    HW168941  12.214   4.635   7.121
89034SOL    HW268942  12.254   4.688   7.257
89035SOL     OW68943   2.563   4.031  10.222
89035SOL    HW168944   2.609   4.108  10.191
89035SOL    HW268945   2.486   4.024  10.165
89036SOL     OW68946   2.654   2.621   9.156
89036SOL    HW168947   2.577   2.613   9.100
89036SOL    HW268948   2.640   2.557   9.226
89037SOL     OW68949   8.088   8.893  10.039
89037SOL    HW168950   8.113   8.817  10.092
89037SOL    HW268951   8.038   8.857   9.967
89038SOL     OW68952  11.359   1.180   4.717
89038SOL    HW168953  11.310   1.185   4.799
89038SOL    HW268954  11.410   1.099   4.724
89039SOL     OW68955  11.335   0.661   9.236
89039SOL    HW168956  11.374   0.655   9.148
89039SOL    HW268957  11.358   0.748   9.267
89040SOL     OW68958   9.704   3.307  12.550
89040SOL    HW168959   9.623   3.278  12.592
89040SOL    HW268960   9.752   3.352  12.618
89041SOL     OW68961   0.470   3.722   5.929
89041SOL    HW168962   0.461   3.758   5.840
89041SOL    HW268963   0.564   3.713   5.941
89042SOL     OW68964   1.312  14.685   6.181
89042SOL    HW168965   1.342  14.642   6.261
89042SOL    HW268966   1.319  14.779   6.200
89043SOL     OW68967   7.462  11.660   4.613
89043SOL    HW168968   7.410  11.630   4.539
89043SOL    HW268969   7.540  11.605   4.611
89044SOL     OW68970   3.784   9.761   9.209
89044SOL    HW168971   3.767   9.836   9.266
89044SOL    HW268972   3.857   9.715   9.251
89045SOL     OW68973   2.370  10.947  10.584
89045SOL    HW168974   2.314  10.912  10.514
89045SOL    HW268975   2.458  10.946  10.547
89046SOL     OW68976   5.255  10.875  14.002
89046SOL    HW168977   5.235  10.943  14.066
89046SOL    HW268978   5.170  10.834  13.984
89047SOL     OW68979   6.706   9.025   5.363
89047SOL    HW168980   6.751   8.941   5.373
89047SOL    HW268981   6.706   9.063   5.451
89048SOL     OW68982   0.012   1.415  12.084
89048SOL    HW168983   0.000   1.320  12.092
89048SOL    HW268984   0.019   1.430  11.990
89049SOL     OW68985   7.351   1.667   4.756
89049SOL    HW168986   7.324   1.747   4.800
89049SOL    HW268987   7.422   1.693   4.697
89050SOL     OW68988  14.864  10.014   5.373
89050SOL    HW168989   0.028  10.089   5.418
89050SOL    HW268990   0.007  10.031   5.280
89051SOL     OW68991   7.629   2.193   0.056
89051SOL    HW168992   7.564   2.128   0.083
89051SOL    HW268993   7.704   2.141   0.028
89052SOL     OW68994   7.735   9.452   5.020
89052SOL    HW168995   7.711   9.453   4.927
89052SOL    HW268996   7.778   9.367   5.032
89053SOL     OW68997   6.741  13.892  14.660
89053SOL    HW168998   6.674  13.823  14.658
89053SOL    HW268999   6.778  13.887  14.748
89054SOL     OW69000  11.825  14.645   2.878
89054SOL    HW169001  11.778  14.616   2.956
89054SOL    HW269002  11.797  14.735   2.864
89055SOL     OW69003   1.414   4.946   5.816
89055SOL    HW169004   1.398   4.864   5.863
89055SOL    HW269005   1.380   5.014   5.874
89056SOL     OW69006   2.955   1.991   4.803
89056SOL    HW169007   2.864   1.974   4.778
89056SOL    HW269008   2.951   2.071   4.855
89057SOL     OW69009   8.920   0.865   8.638
89057SOL    HW169010   8.868   0.943   8.618
89057SOL    HW269011   8.916   0.857   8.733
89058SOL     OW69012  14.090  13.830   7.219
89058SOL    HW169013  14.021  13.767   7.239
89058SOL    HW269014  14.077  13.900   7.283
89059SOL     OW69015  12.645  13.222   0.414
89059SOL    HW169016  12.724  13.188   0.457
89059SOL    HW269017  12.572  13.184   0.462
89060SOL     OW69018   7.619   1.876  10.810
89060SOL    HW169019   7.542   1.873  10.754
89060SOL    HW269020   7.637   1.969  10.823
89061SOL     OW69021   3.808  14.769  12.330
89061SOL    HW169022   3.783  14.840  12.271
89061SOL    HW269023   3.903  14.776  12.338
89062SOL     OW69024   9.331   9.488   5.719
89062SOL    HW169025   9.317   9.487   5.624
89062SOL    HW269026   9.411   9.438   5.732
89063SOL     OW69027   5.506   9.790   3.863
89063SOL    HW169028   5.597   9.814   3.881
89063SOL    HW269029   5.459   9.812   3.943
89064SOL     OW69030   0.389   7.760   9.101
89064SOL    HW169031   0.407   7.699   9.172
89064SOL    HW269032   0.309   7.806   9.128
89065SOL     OW69033  12.730  12.689  13.223
89065SOL    HW169034  12.709  12.638  13.145
89065SOL    HW269035  12.824  12.677  13.235
89066SOL     OW69036   0.139   6.566   9.938
89066SOL    HW169037   0.151   6.658   9.915
89066SOL    HW269038   0.114   6.523   9.856
89067SOL     OW69039  11.353   4.784   9.959
89067SOL    HW169040  11.273   4.835   9.949
89067SOL    HW269041  11.345   4.714   9.894
89068SOL     OW69042   8.445  14.063   6.479
89068SOL    HW169043   8.419  14.027   6.564
89068SOL    HW269044   8.426  13.993   6.416
89069SOL     OW69045   4.502   3.566  10.002
89069SOL    HW169046   4.472   3.506  10.070
89069SOL    HW269047   4.449   3.543   9.925
89070SOL     OW69048   4.052  12.624   1.633
89070SOL    HW169049   4.071  12.641   1.541
89070SOL    HW269050   4.009  12.703   1.664
89071SOL     OW69051  13.960   4.309  11.476
89071SOL    HW169052  13.949   4.392  11.521
89071SOL    HW269053  14.004   4.332  11.394
89072SOL     OW69054  12.276   9.211   1.664
89072SOL    HW169055  12.280   9.261   1.746
89072SOL    HW269056  12.290   9.276   1.595
89073SOL     OW69057  11.044   0.848  14.207
89073SOL    HW169058  11.046   0.820  14.298
89073SOL    HW269059  11.055   0.767  14.157
89074SOL     OW69060   1.712   9.315   7.678
89074SOL    HW169061   1.759   9.335   7.597
89074SOL    HW269062   1.631   9.273   7.649
89075SOL     OW69063   1.801  10.621   5.542
89075SOL    HW169064   1.788  10.657   5.455
89075SOL    HW269065   1.735  10.552   5.550
89076SOL     OW69066  12.646   3.649   7.112
89076SOL    HW169067  12.680   3.566   7.146
89076SOL    HW269068  12.597   3.687   7.185
89077SOL     OW69069   4.579   7.667  13.592
89077SOL    HW169070   4.515   7.657  13.662
89077SOL    HW269071   4.530   7.646  13.512
89078SOL     OW69072   9.367   1.008  11.518
89078SOL    HW169073   9.419   1.081  11.549
89078SOL    HW269074   9.331   0.968  11.597
89079SOL     OW69075   9.564   3.876  13.659
89079SOL    HW169076   9.606   3.822  13.592
89079SOL    HW269077   9.477   3.837  13.671
89080SOL     OW69078   8.728   0.302  11.873
89080SOL    HW169079   8.670   0.346  11.811
89080SOL    HW269080   8.691   0.214  11.883
89081SOL     OW69081   6.577   1.588   4.498
89081SOL    HW169082   6.631   1.529   4.445
89081SOL    HW269083   6.527   1.529   4.555
89082SOL     OW69084   7.099   5.452   6.180
89082SOL    HW169085   7.092   5.478   6.088
89082SOL    HW269086   7.188   5.477   6.205
89083SOL     OW69087  11.804   6.670   8.280
89083SOL    HW169088  11.816   6.746   8.335
89083SOL    HW269089  11.848   6.598   8.327
89084SOL     OW69090   0.354  11.200   5.040
89084SOL    HW169091   0.296  11.276   5.034
89084SOL    HW269092   0.417  11.213   4.969
89085SOL     OW69093  11.124   0.645   4.119
89085SOL    HW169094  11.055   0.603   4.068
89085SOL    HW269095  11.134   0.589   4.196
89086SOL     OW69096   5.804  14.083  13.178
89086SOL    HW169097   5.770  14.146  13.240
89086SOL    HW269098   5.742  14.010  13.180
89087SOL     OW69099  10.337   9.962   1.289
89087SOL    HW169100  10.307  10.053   1.290
89087SOL    HW269101  10.431   9.968   1.274
89088SOL     OW69102  13.727  13.562   7.913
89088SOL    HW169103  13.807  13.613   7.921
89088SOL    HW269104  13.657  13.627   7.913
89089SOL     OW69105   9.645   3.406   4.324
89089SOL    HW169106   9.723   3.436   4.277
89089SOL    HW269107   9.574   3.462   4.291
89090SOL     OW69108   7.661  14.794  13.491
89090SOL    HW169109   7.619  14.758  13.412
89090SOL    HW269110   7.603  14.865  13.518
89091SOL     OW69111   9.082   3.929   2.877
89091SOL    HW169112   9.066   3.847   2.924
89091SOL    HW269113   9.154   3.909   2.818
89092SOL     OW69114  14.399   1.617  10.887
89092SOL    HW169115  14.473   1.573  10.928
89092SOL    HW269116  14.391   1.577  10.801
89093SOL     OW69117   3.780   9.349   6.763
89093SOL    HW169118   3.707   9.399   6.799
89093SOL    HW269119   3.858   9.389   6.802
89094SOL     OW69120   9.538   8.965  14.229
89094SOL    HW169121   9.493   9.038  14.272
89094SOL    HW269122   9.601   8.933  14.294
89095SOL     OW69123  13.333   0.476  10.766
89095SOL    HW169124  13.270   0.522  10.822
89095SOL    HW269125  13.366   0.405  10.821
89096SOL     OW69126   5.037  11.860  10.727
89096SOL    HW169127   5.099  11.787  10.737
89096SOL    HW269128   5.005  11.876  10.815
89097SOL     OW69129   4.764  10.057  13.563
89097SOL    HW169130   4.764  10.135  13.508
89097SOL    HW269131   4.714   9.993  13.512
89098SOL     OW69132   8.999   9.515  12.151
89098SOL    HW169133   9.021   9.513  12.058
89098SOL    HW269134   8.931   9.448  12.160
89099SOL     OW69135   6.309   6.087   5.362
89099SOL    HW169136   6.314   6.151   5.433
89099SOL    HW269137   6.391   6.037   5.368
89100SOL     OW69138  11.207  11.308   5.177
89100SOL    HW169139  11.295  11.291   5.211
89100SOL    HW269140  11.219  11.380   5.115
89101SOL     OW69141  12.063   0.637  14.775
89101SOL    HW169142  12.117   0.562  14.750
89101SOL    HW269143  12.118   0.688  14.834
89102SOL     OW69144   2.717   9.753  14.766
89102SOL    HW169145   2.635   9.706  14.750
89102SOL    HW269146   2.737   9.795  14.682
89103SOL     OW69147   3.914   5.971   1.826
89103SOL    HW169148   3.982   5.904   1.839
89103SOL    HW269149   3.892   5.965   1.733
89104SOL     OW69150   4.834  10.950   1.422
89104SOL    HW169151   4.845  10.983   1.333
89104SOL    HW269152   4.832  11.028   1.477
89105SOL     OW69153   4.109  11.293   5.564
89105SOL    HW169154   4.020  11.273   5.594
89105SOL    HW269155   4.166  11.251   5.628
89106SOL     OW69156   2.474   5.323   4.011
89106SOL    HW169157   2.430   5.278   4.083
89106SOL    HW269158   2.560   5.345   4.045
89107SOL     OW69159  11.357   0.446  11.260
89107SOL    HW169160  11.398   0.360  11.260
89107SOL    HW269161  11.288   0.440  11.327
89108SOL     OW69162   0.325   9.257   9.822
89108SOL    HW169163   0.319   9.273   9.916
89108SOL    HW269164   0.274   9.327   9.782
89109SOL     OW69165  13.054   8.313  14.530
89109SOL    HW169166  13.015   8.369  14.597
89109SOL    HW269167  13.131   8.362  14.500
89110SOL     OW69168   5.289   8.331  14.464
89110SOL    HW169169   5.289   8.416  14.421
89110SOL    HW269170   5.346   8.276  14.410
89111SOL     OW69171  13.790  14.825   0.636
89111SOL    HW169172  13.768  14.737   0.605
89111SOL    HW269173  13.885  14.830   0.629
89112SOL     OW69174  13.015   0.848   5.771
89112SOL    HW169175  12.975   0.812   5.850
89112SOL    HW269176  13.007   0.943   5.782
89113SOL     OW69177   1.578   4.715   6.873
89113SOL    HW169178   1.637   4.789   6.865
89113SOL    HW269179   1.610   4.651   6.809
89114SOL     OW69180   8.288   4.761  11.170
89114SOL    HW169181   8.320   4.846  11.200
89114SOL    HW269182   8.232   4.782  11.095
89115SOL     OW69183   9.060   2.077  14.082
89115SOL    HW169184   9.056   2.064  14.176
89115SOL    HW269185   9.063   1.989  14.046
89116SOL     OW69186   3.573  14.616   6.758
89116SOL    HW169187   3.578  14.561   6.837
89116SOL    HW269188   3.544  14.556   6.689
89117SOL     OW69189   1.295   0.323  13.924
89117SOL    HW169190   1.208   0.306  13.888
89117SOL    HW269191   1.333   0.237  13.939
89118SOL     OW69192   3.095   4.118   9.970
89118SOL    HW169193   3.036   4.131  10.045
89118SOL    HW269194   3.037   4.090   9.900
89119SOL     OW69195  12.230   5.760  14.487
89119SOL    HW169196  12.308   5.806  14.518
89119SOL    HW269197  12.218   5.689  14.550
89120SOL     OW69198   7.676  14.823  10.183
89120SOL    HW169199   7.757  14.813  10.132
89120SOL    HW269200   7.680   0.039  10.218
89121SOL     OW69201   5.739   8.713   1.588
89121SOL    HW169202   5.760   8.640   1.529
89121SOL    HW269203   5.741   8.791   1.533
89122SOL     OW69204  12.713   9.390   1.845
89122SOL    HW169205  12.802   9.372   1.817
89122SOL    HW269206  12.660   9.322   1.803
89123SOL     OW69207   0.796   0.288  11.380
89123SOL    HW169208   0.890   0.302  11.377
89123SOL    HW269209   0.769   0.322  11.466
89124SOL     OW69210   0.193   7.840   4.674
89124SOL    HW169211   0.125   7.850   4.741
89124SOL    HW269212   0.152   7.785   4.607
89125SOL     OW69213   2.929  14.388   2.036
89125SOL    HW169214   2.943  14.476   2.071
89125SOL    HW269215   2.885  14.341   2.107
89126SOL     OW69216  14.776   5.679   8.459
89126SOL    HW169217  14.863   5.659   8.494
89126SOL    HW269218  14.793   5.728   8.379
89127SOL     OW69219   2.155   5.560   1.636
89127SOL    HW169220   2.208   5.497   1.586
89127SOL    HW269221   2.116   5.616   1.570
89128SOL     OW69222  10.141   7.237   1.680
89128SOL    HW169223  10.183   7.204   1.759
89128SOL    HW269224  10.200   7.212   1.609
89129SOL     OW69225  14.417  11.306  13.401
89129SOL    HW169226  14.507  11.275  13.402
89129SOL    HW269227  14.366  11.233  13.437
89130SOL     OW69228  11.929  11.989   3.825
89130SOL    HW169229  12.022  11.978   3.842
89130SOL    HW269230  11.893  12.020   3.908
89131SOL     OW69231   9.447   4.541   2.804
89131SOL    HW169232   9.501   4.513   2.731
89131SOL    HW269233   9.389   4.608   2.768
89132SOL     OW69234   8.711   1.176  13.069
89132SOL    HW169235   8.736   1.090  13.035
89132SOL    HW269236   8.757   1.238  13.012
89133SOL     OW69237  10.244   8.650   4.582
89133SOL    HW169238  10.302   8.696   4.643
89133SOL    HW269239  10.174   8.614   4.638
89134SOL     OW69240  10.144   1.028   9.151
89134SOL    HW169241  10.168   1.103   9.097
89134SOL    HW269242  10.191   0.954   9.111
89135SOL     OW69243  11.858  14.071   5.383
89135SOL    HW169244  11.792  14.066   5.314
89135SOL    HW269245  11.938  14.095   5.337
89136SOL     OW69246   0.575  12.256   4.499
89136SOL    HW169247   0.516  12.202   4.552
89136SOL    HW269248   0.662  12.240   4.536
89137SOL     OW69249   7.106   8.731   5.766
89137SOL    HW169250   7.130   8.654   5.715
89137SOL    HW269251   7.190   8.774   5.785
89138SOL     OW69252   1.669   6.316   5.653
89138SOL    HW169253   1.587   6.297   5.608
89138SOL    HW269254   1.688   6.236   5.702
89139SOL     OW69255   8.396   3.016   9.135
89139SOL    HW169256   8.392   3.004   9.230
89139SOL    HW269257   8.475   3.069   9.120
89140SOL     OW69258  14.186   0.665  10.066
89140SOL    HW169259  14.187   0.636  10.158
89140SOL    HW269260  14.097   0.696  10.052
89141SOL     OW69261   9.866  11.096   7.808
89141SOL    HW169262   9.777  11.081   7.840
89141SOL    HW269263   9.855  11.115   7.714
89142SOL     OW69264   8.841   6.013   1.243
89142SOL    HW169265   8.800   5.940   1.288
89142SOL    HW269266   8.933   5.989   1.236
89143SOL     OW69267   4.049   6.266  13.986
89143SOL    HW169268   3.955   6.261  13.968
89143SOL    HW269269   4.080   6.177  13.974
89144SOL     OW69270   5.678   1.456   2.909
89144SOL    HW169271   5.744   1.461   2.839
89144SOL    HW269272   5.730   1.447   2.989
89145SOL     OW69273  14.410   1.342  10.500
89145SOL    HW169274  14.428   1.250  10.520
89145SOL    HW269275  14.315   1.351  10.513
89146SOL     OW69276  12.184  10.417   0.994
89146SOL    HW169277  12.242  10.381   0.927
89146SOL    HW269278  12.174  10.346   1.057
89147SOL     OW69279   7.840   3.116   7.105
89147SOL    HW169280   7.925   3.074   7.090
89147SOL    HW269281   7.855   3.174   7.180
89148SOL     OW69282   1.032  10.551   5.630
89148SOL    HW169283   1.108  10.569   5.575
89148SOL    HW269284   1.044  10.607   5.707
89149SOL     OW69285  12.005  11.066   2.872
89149SOL    HW169286  11.914  11.050   2.898
89149SOL    HW269287  12.044  10.978   2.868
89150SOL     OW69288   8.112   4.100   6.005
89150SOL    HW169289   8.204   4.125   5.998
89150SOL    HW269290   8.093   4.056   5.922
89151SOL     OW69291   9.862   4.074  10.696
89151SOL    HW169292   9.831   4.158  10.663
89151SOL    HW269293   9.836   4.074  10.789
89152SOL     OW69294  10.673   9.114   5.621
89152SOL    HW169295  10.705   9.169   5.693
89152SOL    HW269296  10.681   9.025   5.653
89153SOL     OW69297  12.451   6.736   3.110
89153SOL    HW169298  12.414   6.792   3.178
89153SOL    HW269299  12.457   6.792   3.032
89154SOL     OW69300   4.062  14.165   2.383
89154SOL    HW169301   4.015  14.091   2.420
89154SOL    HW269302   4.104  14.207   2.459
89155SOL     OW69303  12.412  10.720   6.269
89155SOL    HW169304  12.401  10.625   6.267
89155SOL    HW269305  12.502  10.732   6.300
89156SOL     OW69306  10.179   8.061   5.286
89156SOL    HW169307  10.246   7.993   5.279
89156SOL    HW269308  10.206   8.113   5.362
89157SOL     OW69309   9.349  13.053   9.101
89157SOL    HW169310   9.315  13.109   9.171
89157SOL    HW269311   9.321  12.965   9.125
89158SOL     OW69312   2.546  10.413   9.322
89158SOL    HW169313   2.544  10.346   9.390
89158SOL    HW269314   2.510  10.369   9.244
89159SOL     OW69315   7.780   3.063   0.005
89159SOL    HW169316   7.845   3.132  14.865
89159SOL    HW269317   7.705   3.107   0.044
89160SOL     OW69318   4.087   9.889   0.803
89160SOL    HW169319   4.122   9.861   0.887
89160SOL    HW269320   4.062   9.807   0.759
89161SOL     OW69321   5.086   0.518   0.997
89161SOL    HW169322   5.083   0.501   0.902
89161SOL    HW269323   5.178   0.507   1.019
89162SOL     OW69324  12.778   3.025  11.200
89162SOL    HW169325  12.755   2.970  11.124
89162SOL    HW269326  12.711   3.006  11.265
89163SOL     OW69327   3.742   1.617  10.212
89163SOL    HW169328   3.752   1.631  10.118
89163SOL    HW269329   3.656   1.654  10.233
89164SOL     OW69330   0.494  14.622   3.483
89164SOL    HW169331   0.577  14.582   3.507
89164SOL    HW269332   0.470  14.676   3.558
89165SOL     OW69333   3.153   9.450  13.202
89165SOL    HW169334   3.184   9.388  13.267
89165SOL    HW269335   3.228   9.468  13.146
89166SOL     OW69336   7.790  10.136  12.280
89166SOL    HW169337   7.767  10.158  12.189
89166SOL    HW269338   7.707  10.113  12.321
89167SOL     OW69339   3.865  14.773   4.457
89167SOL    HW169340   3.907  14.765   4.372
89167SOL    HW269341   3.938  14.772   4.520
89168SOL     OW69342   6.951  13.759   9.863
89168SOL    HW169343   6.947  13.820   9.936
89168SOL    HW269344   6.863  13.724   9.856
89169SOL     OW69345  10.648  12.515   6.470
89169SOL    HW169346  10.629  12.544   6.560
89169SOL    HW269347  10.740  12.490   6.473
89170SOL     OW69348  12.388  13.754   5.805
89170SOL    HW169349  12.416  13.784   5.718
89170SOL    HW269350  12.456  13.787   5.864
89171SOL     OW69351  12.715  14.224  13.371
89171SOL    HW169352  12.809  14.221  13.385
89171SOL    HW269353  12.693  14.317  13.376
89172SOL     OW69354   1.181   9.793   8.701
89172SOL    HW169355   1.262   9.811   8.748
89172SOL    HW269356   1.196   9.709   8.657
89173SOL     OW69357  12.806   9.924   6.363
89173SOL    HW169358  12.728   9.978   6.380
89173SOL    HW269359  12.826   9.885   6.448
89174SOL     OW69360   7.320   8.328   3.908
89174SOL    HW169361   7.285   8.417   3.909
89174SOL    HW269362   7.361   8.320   3.822
89175SOL     OW69363   5.331   0.988   3.589
89175SOL    HW169364   5.307   1.074   3.623
89175SOL    HW269365   5.404   0.960   3.643
89176SOL     OW69366   2.263   9.813   9.898
89176SOL    HW169367   2.323   9.838   9.968
89176SOL    HW269368   2.320   9.781   9.828
89177SOL     OW69369   7.341   9.905   5.310
89177SOL    HW169370   7.314   9.944   5.393
89177SOL    HW269371   7.300   9.960   5.243
89178SOL     OW69372   4.845   8.504   0.395
89178SOL    HW169373   4.863   8.555   0.316
89178SOL    HW269374   4.881   8.557   0.467
89179SOL     OW69375   6.259  11.772   2.831
89179SOL    HW169376   6.248  11.867   2.825
89179SOL    HW269377   6.285  11.745   2.743
89180SOL     OW69378   8.163   8.873   0.121
89180SOL    HW169379   8.122   8.810   0.061
89180SOL    HW269380   8.250   8.889   0.083
89181SOL     OW69381   3.619   7.217   2.211
89181SOL    HW169382   3.580   7.301   2.186
89181SOL    HW269383   3.555   7.152   2.182
89182SOL     OW69384   0.829   0.466   8.425
89182SOL    HW169385   0.840   0.522   8.348
89182SOL    HW269386   0.779   0.519   8.487
89183SOL     OW69387   8.965  13.495   5.563
89183SOL    HW169388   9.040  13.553   5.550
89183SOL    HW269389   8.891  13.555   5.576
89184SOL     OW69390   6.746  12.564  12.394
89184SOL    HW169391   6.827  12.539  12.439
89184SOL    HW269392   6.680  12.568  12.463
89185SOL     OW69393   7.664  11.844   8.575
89185SOL    HW169394   7.753  11.839   8.609
89185SOL    HW269395   7.644  11.753   8.550
89186SOL     OW69396   2.447   0.861   9.129
89186SOL    HW169397   2.421   0.940   9.081
89186SOL    HW269398   2.526   0.831   9.083
89187SOL     OW69399  11.873  11.832   2.052
89187SOL    HW169400  11.927  11.753   2.059
89187SOL    HW269401  11.794  11.811   2.103
89188SOL     OW69402  11.240   1.737  12.120
89188SOL    HW169403  11.292   1.658  12.131
89188SOL    HW269404  11.152   1.706  12.101
89189SOL     OW69405  11.734  12.442  11.887
89189SOL    HW169406  11.766  12.502  11.954
89189SOL    HW269407  11.799  12.372  11.884
89190SOL     OW69408  13.410   4.613   4.410
89190SOL    HW169409  13.493   4.647   4.443
89190SOL    HW269410  13.343   4.655   4.464
89191SOL     OW69411   3.478   5.454  10.950
89191SOL    HW169412   3.539   5.405  11.006
89191SOL    HW269413   3.404   5.394  10.937
89192SOL     OW69414  10.827   1.656  12.248
89192SOL    HW169415  10.756   1.716  12.226
89192SOL    HW269416  10.846   1.610  12.167
89193SOL     OW69417  14.512   3.688  13.453
89193SOL    HW169418  14.585   3.631  13.476
89193SOL    HW269419  14.440   3.628  13.434
89194SOL     OW69420   4.582  12.926   2.430
89194SOL    HW169421   4.655  12.865   2.441
89194SOL    HW269422   4.504  12.870   2.430
89195SOL     OW69423   2.621   5.859  11.220
89195SOL    HW169424   2.675   5.912  11.278
89195SOL    HW269425   2.673   5.780  11.204
89196SOL     OW69426   4.938  10.879   3.622
89196SOL    HW169427   4.890  10.865   3.540
89196SOL    HW269428   5.024  10.909   3.595
89197SOL     OW69429  10.403   8.207   9.265
89197SOL    HW169430  10.401   8.301   9.285
89197SOL    HW269431  10.312   8.179   9.270
89198SOL     OW69432   8.637   9.678   0.034
89198SOL    HW169433   8.574   9.612   0.062
89198SOL    HW269434   8.635   9.674  14.811
89199SOL     OW69435   0.654   3.033  12.378
89199SOL    HW169436   0.569   2.996  12.402
89199SOL    HW269437   0.654   3.033  12.283
89200SOL     OW69438   7.235   3.020  13.369
89200SOL    HW169439   7.280   3.079  13.430
89200SOL    HW269440   7.163   2.983  13.419
89201SOL     OW69441  11.241  11.283   9.160
89201SOL    HW169442  11.206  11.301   9.248
89201SOL    HW269443  11.192  11.341   9.102
89202SOL     OW69444  10.835   2.277   3.233
89202SOL    HW169445  10.759   2.268   3.291
89202SOL    HW269446  10.820   2.360   3.187
89203SOL     OW69447   6.688   5.309  14.587
89203SOL    HW169448   6.604   5.269  14.611
89203SOL    HW269449   6.696   5.293  14.493
89204SOL     OW69450   8.314  14.169   5.667
89204SOL    HW169451   8.261  14.115   5.726
89204SOL    HW269452   8.252  14.231   5.629
89205SOL     OW69453   4.444   1.423  11.858
89205SOL    HW169454   4.477   1.436  11.769
89205SOL    HW269455   4.349   1.429  11.850
89206SOL     OW69456  11.417   8.654   9.265
89206SOL    HW169457  11.344   8.711   9.288
89206SOL    HW269458  11.403   8.575   9.318
89207SOL     OW69459   1.432  10.431   3.444
89207SOL    HW169460   1.469  10.505   3.396
89207SOL    HW269461   1.395  10.374   3.377
89208SOL     OW69462   7.971   2.749   1.795
89208SOL    HW169463   8.014   2.835   1.796
89208SOL    HW269464   8.042   2.686   1.805
89209SOL     OW69465  11.540   3.215   4.891
89209SOL    HW169466  11.544   3.183   4.981
89209SOL    HW269467  11.586   3.299   4.894
89210SOL     OW69468   3.933   6.056   1.043
89210SOL    HW169469   4.010   6.110   1.023
89210SOL    HW269470   3.968   5.984   1.096
89211SOL     OW69471  10.426   9.375   9.939
89211SOL    HW169472  10.412   9.422   9.857
89211SOL    HW269473  10.359   9.307   9.939
89212SOL     OW69474   3.574   3.521   6.607
89212SOL    HW169475   3.518   3.571   6.546
89212SOL    HW269476   3.563   3.430   6.579
89213SOL     OW69477   5.881  11.932   9.432
89213SOL    HW169478   5.878  11.837   9.444
89213SOL    HW269479   5.853  11.967   9.516
89214SOL     OW69480  13.225   0.494  11.570
89214SOL    HW169481  13.277   0.488  11.650
89214SOL    HW269482  13.137   0.466  11.597
89215SOL     OW69483  11.030  13.171   4.796
89215SOL    HW169484  11.043  13.256   4.839
89215SOL    HW269485  10.936  13.165   4.783
89216SOL     OW69486   8.752   0.871  12.130
89216SOL    HW169487   8.800   0.802  12.085
89216SOL    HW269488   8.757   0.847  12.223
89217SOL     OW69489   7.834  11.693  14.243
89217SOL    HW169490   7.925  11.674  14.265
89217SOL    HW269491   7.812  11.632  14.172
89218SOL     OW69492  14.820  14.385   6.243
89218SOL    HW169493  14.796  14.301   6.282
89218SOL    HW269494  14.749  14.444   6.269
89219SOL     OW69495   3.548   1.992   0.010
89219SOL    HW169496   3.570   1.978  14.791
89219SOL    HW269497   3.499   2.074   0.011
89220SOL     OW69498   8.608  11.033  13.109
89220SOL    HW169499   8.673  11.022  13.179
89220SOL    HW269500   8.543  10.964  13.126
89221SOL     OW69501   4.175  10.908  13.099
89221SOL    HW169502   4.176  10.839  13.032
89221SOL    HW269503   4.217  10.983  13.057
89222SOL     OW69504  14.800   4.683  14.238
89222SOL    HW169505  14.711   4.706  14.209
89222SOL    HW269506  14.793   4.676  14.333
89223SOL     OW69507  14.799   2.986   2.821
89223SOL    HW169508  14.706   2.980   2.842
89223SOL    HW269509  14.813   2.919   2.754
89224SOL     OW69510  14.402   3.943   9.269
89224SOL    HW169511  14.314   3.906   9.269
89224SOL    HW269512  14.458   3.872   9.300
89225SOL     OW69513   6.547   0.864  12.100
89225SOL    HW169514   6.552   0.926  12.173
89225SOL    HW269515   6.638   0.842  12.082
89226SOL     OW69516  10.696   5.090   7.400
89226SOL    HW169517  10.735   5.108   7.485
89226SOL    HW269518  10.698   4.994   7.392
89227SOL     OW69519  10.519  10.700  12.611
89227SOL    HW169520  10.539  10.611  12.583
89227SOL    HW269521  10.530  10.753  12.533
89228SOL     OW69522   7.286  11.672   7.789
89228SOL    HW169523   7.299  11.623   7.870
89228SOL    HW269524   7.374  11.688   7.755
89229SOL     OW69525   3.326   6.313   1.813
89229SOL    HW169526   3.240   6.355   1.820
89229SOL    HW269527   3.373   6.342   1.891
89230SOL     OW69528   0.636   1.516   7.567
89230SOL    HW169529   0.575   1.583   7.600
89230SOL    HW269530   0.594   1.433   7.588
89231SOL     OW69531  10.334  14.421  13.734
89231SOL    HW169532  10.400  14.377  13.787
89231SOL    HW269533  10.254  14.418  13.786
89232SOL     OW69534   0.676   6.639   6.865
89232SOL    HW169535   0.646   6.594   6.786
89232SOL    HW269536   0.599   6.641   6.922
89233SOL     OW69537   0.655   7.314   7.142
89233SOL    HW169538   0.611   7.322   7.226
89233SOL    HW269539   0.720   7.384   7.142
89234SOL     OW69540  10.331   0.370  12.717
89234SOL    HW169541  10.284   0.404  12.793
89234SOL    HW269542  10.367   0.448  12.674
89235SOL     OW69543   3.597  11.171   4.432
89235SOL    HW169544   3.598  11.229   4.355
89235SOL    HW269545   3.679  11.122   4.426
89236SOL     OW69546   0.326  14.765  10.196
89236SOL    HW169547   0.399  14.746  10.138
89236SOL    HW269548   0.362  14.757  10.284
89237SOL     OW69549   7.441   7.914  13.934
89237SOL    HW169550   7.384   7.990  13.925
89237SOL    HW269551   7.514   7.932  13.875
89238SOL     OW69552   5.336  10.682  10.219
89238SOL    HW169553   5.294  10.669  10.134
89238SOL    HW269554   5.277  10.640  10.282
89239SOL     OW69555   9.829   1.764  13.523
89239SOL    HW169556   9.751   1.712  13.542
89239SOL    HW269557   9.902   1.713  13.560
89240SOL     OW69558   7.273  10.462   0.711
89240SOL    HW169559   7.187  10.469   0.752
89240SOL    HW269560   7.265  10.511   0.629
89241SOL     OW69561  14.031   8.398   3.125
89241SOL    HW169562  14.086   8.476   3.121
89241SOL    HW269563  14.041   8.357   3.039
89242SOL     OW69564   6.346   0.967   6.597
89242SOL    HW169565   6.311   1.009   6.519
89242SOL    HW269566   6.398   1.035   6.640
89243SOL     OW69567   8.963   9.314   5.796
89243SOL    HW169568   9.015   9.370   5.853
89243SOL    HW269569   8.889   9.287   5.850
89244SOL     OW69570  14.017   3.364   0.116
89244SOL    HW169571  13.932   3.378   0.157
89244SOL    HW269572  13.999   3.307   0.041
89245SOL     OW69573   4.507   5.076  14.808
89245SOL    HW169574   4.550   5.131   0.001
89245SOL    HW269575   4.500   4.990  14.850
89246SOL     OW69576   8.092   1.575   0.585
89246SOL    HW169577   8.082   1.647   0.522
89246SOL    HW269578   8.149   1.610   0.653
89247SOL     OW69579   3.783   2.524   3.853
89247SOL    HW169580   3.828   2.479   3.924
89247SOL    HW269581   3.715   2.575   3.896
89248SOL     OW69582   2.506  11.444  10.268
89248SOL    HW169583   2.411  11.435  10.279
89248SOL    HW269584   2.535  11.358  10.237
89249SOL     OW69585   5.595   3.526   7.989
89249SOL    HW169586   5.574   3.439   7.954
89249SOL    HW269587   5.577   3.518   8.083
89250SOL     OW69588   2.044   0.736   6.387
89250SOL    HW169589   2.095   0.682   6.447
89250SOL    HW269590   2.106   0.763   6.320
89251SOL     OW69591  10.960   3.920   0.821
89251SOL    HW169592  10.972   3.841   0.769
89251SOL    HW269593  11.040   3.971   0.806
89252SOL     OW69594   2.096  13.365  10.795
89252SOL    HW169595   2.073  13.299  10.861
89252SOL    HW269596   2.182  13.338  10.764
89253SOL     OW69597   2.550  10.838   1.141
89253SOL    HW169598   2.519  10.925   1.115
89253SOL    HW269599   2.579  10.850   1.232
89254SOL     OW69600   7.072   9.931  12.593
89254SOL    HW169601   7.000   9.874  12.564
89254SOL    HW269602   7.151   9.886  12.564
89255SOL     OW69603   1.137   3.483   3.920
89255SOL    HW169604   1.153   3.568   3.879
89255SOL    HW269605   1.206   3.426   3.885
89256SOL     OW69606   2.607  10.483   3.390
89256SOL    HW169607   2.535  10.519   3.442
89256SOL    HW269608   2.666  10.444   3.455
89257SOL     OW69609   8.856  10.330   7.974
89257SOL    HW169610   8.772  10.352   8.016
89257SOL    HW269611   8.910  10.407   7.987
89258SOL     OW69612   2.031   9.643   6.482
89258SOL    HW169613   2.085   9.628   6.560
89258SOL    HW269614   2.085   9.700   6.427
89259SOL     OW69615  11.972   5.794   3.742
89259SOL    HW169616  11.885   5.832   3.730
89259SOL    HW269617  11.972   5.716   3.688
89260SOL     OW69618  12.381   5.811  11.848
89260SOL    HW169619  12.364   5.779  11.936
89260SOL    HW269620  12.459   5.764  11.819
89261SOL     OW69621   1.939   4.030  13.624
89261SOL    HW169622   1.990   3.980  13.560
89261SOL    HW269623   1.932   3.973  13.700
89262SOL     OW69624   8.569   1.593   4.856
89262SOL    HW169625   8.492   1.563   4.807
89262SOL    HW269626   8.547   1.682   4.884
89263SOL     OW69627   9.369  14.667  12.308
89263SOL    HW169628   9.297  14.651  12.247
89263SOL    HW269629   9.335  14.733  12.369
89264SOL     OW69630   3.309   6.049   1.347
89264SOL    HW169631   3.274   6.078   1.432
89264SOL    HW269632   3.327   6.131   1.300
89265SOL     OW69633  12.193  11.708   2.662
89265SOL    HW169634  12.236  11.708   2.577
89265SOL    HW269635  12.135  11.632   2.659
89266SOL     OW69636   4.129   7.921   6.239
89266SOL    HW169637   4.080   7.987   6.190
89266SOL    HW269638   4.066   7.885   6.301
89267SOL     OW69639   4.217   4.960   9.928
89267SOL    HW169640   4.162   5.037   9.919
89267SOL    HW269641   4.297   4.992   9.970
89268SOL     OW69642  10.602   5.472   4.246
89268SOL    HW169643  10.653   5.427   4.179
89268SOL    HW269644  10.513   5.439   4.235
89269SOL     OW69645   6.531  14.573   5.680
89269SOL    HW169646   6.528  14.624   5.761
89269SOL    HW269647   6.459  14.510   5.689
89270SOL     OW69648   2.922  11.944   6.854
89270SOL    HW169649   2.946  11.910   6.768
89270SOL    HW269650   2.852  11.886   6.884
89271SOL     OW69651   1.239  11.731  13.493
89271SOL    HW169652   1.281  11.666  13.550
89271SOL    HW269653   1.309  11.760  13.435
89272SOL     OW69654   7.361   9.832   1.190
89272SOL    HW169655   7.427   9.898   1.167
89272SOL    HW269656   7.279   9.867   1.155
89273SOL     OW69657   6.046   5.474  10.735
89273SOL    HW169658   6.140   5.477  10.746
89273SOL    HW269659   6.024   5.556  10.691
89274SOL     OW69660   1.330   0.230   0.016
89274SOL    HW169661   1.327   0.325   0.020
89274SOL    HW269662   1.243   0.202   0.046
89275SOL     OW69663   6.293   8.001   2.806
89275SOL    HW169664   6.306   7.922   2.754
89275SOL    HW269665   6.375   8.049   2.798
89276SOL     OW69666  10.832   7.580   5.858
89276SOL    HW169667  10.755   7.563   5.803
89276SOL    HW269668  10.875   7.654   5.817
89277SOL     OW69669  14.546   0.085   3.491
89277SOL    HW169670  14.502   0.137   3.423
89277SOL    HW269671  14.526  14.867   3.469
89278SOL     OW69672   3.473   9.452  13.306
89278SOL    HW169673   3.555   9.418  13.342
89278SOL    HW269674   3.408   9.386  13.329
89279SOL     OW69675  12.671   5.146  13.718
89279SOL    HW169676  12.580   5.147  13.691
89279SOL    HW269677  12.720   5.178  13.641
89280SOL     OW69678   7.733   5.202  14.339
89280SOL    HW169679   7.666   5.134  14.346
89280SOL    HW269680   7.784   5.178  14.262
89281SOL     OW69681   1.769   6.362  13.305
89281SOL    HW169682   1.721   6.286  13.339
89281SOL    HW269683   1.828   6.387  13.376
89282SOL     OW69684   7.239   0.630   2.988
89282SOL    HW169685   7.196   0.617   3.072
89282SOL    HW269686   7.274   0.719   2.992
89283SOL     OW69687  10.889   3.268  14.348
89283SOL    HW169688  10.953   3.328  14.309
89283SOL    HW269689  10.942   3.206  14.399
89284SOL     OW69690   3.591   9.579   5.476
89284SOL    HW169691   3.657   9.521   5.514
89284SOL    HW269692   3.636   9.663   5.467
89285SOL     OW69693   4.846  12.775   7.042
89285SOL    HW169694   4.916  12.799   7.103
89285SOL    HW269695   4.814  12.690   7.073
89286SOL     OW69696   5.944  10.769  13.252
89286SOL    HW169697   5.956  10.778  13.158
89286SOL    HW269698   5.891  10.845  13.277
89287SOL     OW69699  13.148   6.279   0.479
89287SOL    HW169700  13.088   6.207   0.459
89287SOL    HW269701  13.194   6.295   0.397
89288SOL     OW69702  10.386   4.993   6.454
89288SOL    HW169703  10.333   4.993   6.533
89288SOL    HW269704  10.347   4.925   6.399
89289SOL     OW69705  12.774   5.150  13.092
89289SOL    HW169706  12.862   5.121  13.067
89289SOL    HW269707  12.753   5.098  13.169
89290SOL     OW69708  14.609   4.131   7.791
89290SOL    HW169709  14.617   4.102   7.701
89290SOL    HW269710  14.532   4.086   7.825
89291SOL     OW69711  13.131   7.995  12.686
89291SOL    HW169712  13.225   8.003  12.673
89291SOL    HW269713  13.098   8.084  12.669
89292SOL     OW69714   8.196  11.782   8.690
89292SOL    HW169715   8.286  11.751   8.681
89292SOL    HW269716   8.194  11.865   8.643
89293SOL     OW69717  13.431  14.521   4.329
89293SOL    HW169718  13.522  14.538   4.352
89293SOL    HW269719  13.395  14.479   4.407
89294SOL     OW69720  11.973   4.563   7.378
89294SOL    HW169721  11.999   4.568   7.286
89294SOL    HW269722  11.983   4.470   7.400
89295SOL     OW69723   5.137   3.619  12.803
89295SOL    HW169724   5.130   3.526  12.823
89295SOL    HW269725   5.110   3.627  12.712
89296SOL     OW69726  14.590  11.932  10.886
89296SOL    HW169727  14.620  11.841  10.889
89296SOL    HW269728  14.494  11.925  10.881
89297SOL     OW69729   7.874  10.104   5.823
89297SOL    HW169730   7.824  10.070   5.897
89297SOL    HW269731   7.921  10.028   5.789
89298SOL     OW69732  12.784   4.928   3.068
89298SOL    HW169733  12.700   4.951   3.028
89298SOL    HW269734  12.848   4.984   3.024
89299SOL     OW69735   1.549   1.131   3.356
89299SOL    HW169736   1.562   1.037   3.364
89299SOL    HW269737   1.487   1.152   3.426
89300SOL     OW69738  14.103  13.428   6.081
89300SOL    HW169739  14.179  13.420   6.023
89300SOL    HW269740  14.120  13.364   6.150
89301SOL     OW69741   2.563   4.313   4.239
89301SOL    HW169742   2.484   4.367   4.245
89301SOL    HW269743   2.596   4.328   4.151
89302SOL     OW69744   6.505   7.415   0.808
89302SOL    HW169745   6.507   7.363   0.888
89302SOL    HW269746   6.449   7.490   0.829
89303SOL     OW69747   5.453   9.145   6.686
89303SOL    HW169748   5.516   9.174   6.751
89303SOL    HW269749   5.373   9.129   6.736
89304SOL     OW69750  10.675   1.008   2.280
89304SOL    HW169751  10.588   0.983   2.247
89304SOL    HW269752  10.684   1.100   2.256
89305SOL     OW69753  11.158   0.682   2.909
89305SOL    HW169754  11.070   0.682   2.946
89305SOL    HW269755  11.165   0.598   2.864
89306SOL     OW69756   3.875   5.353   0.960
89306SOL    HW169757   3.840   5.337   1.047
89306SOL    HW269758   3.967   5.375   0.974
89307SOL     OW69759   0.337   0.425  12.851
89307SOL    HW169760   0.278   0.479  12.798
89307SOL    HW269761   0.405   0.398  12.789
89308SOL     OW69762   9.483   1.368   0.046
89308SOL    HW169763   9.450   1.453   0.018
89308SOL    HW269764   9.512   1.382   0.136
89309SOL     OW69765   6.730   0.623   7.022
89309SOL    HW169766   6.804   0.564   7.005
89309SOL    HW269767   6.669   0.571   7.073
89310SOL     OW69768   7.608  12.289   3.172
89310SOL    HW169769   7.698  12.318   3.178
89310SOL    HW269770   7.602  12.215   3.233
89311SOL     OW69771  12.077   3.677   0.973
89311SOL    HW169772  12.053   3.764   1.004
89311SOL    HW269773  12.098   3.628   1.052
89312SOL     OW69774  13.232   9.326  10.868
89312SOL    HW169775  13.221   9.288  10.955
89312SOL    HW269776  13.325   9.317  10.849
89313SOL     OW69777  12.628   0.221   1.488
89313SOL    HW169778  12.534   0.204   1.494
89313SOL    HW269779  12.650   0.265   1.570
89314SOL     OW69780   2.463   3.414   8.143
89314SOL    HW169781   2.519   3.391   8.217
89314SOL    HW269782   2.378   3.375   8.163
89315SOL     OW69783   1.911  12.589  11.113
89315SOL    HW169784   1.937  12.562  11.201
89315SOL    HW269785   1.892  12.508  11.067
89316SOL     OW69786  12.903   2.542  12.526
89316SOL    HW169787  12.972   2.600  12.493
89316SOL    HW269788  12.866   2.589  12.600
89317SOL     OW69789   5.604  11.385   5.996
89317SOL    HW169790   5.680  11.421   5.950
89317SOL    HW269791   5.642  11.331   6.066
89318SOL     OW69792   9.065   6.707   7.712
89318SOL    HW169793   9.156   6.724   7.688
89318SOL    HW269794   9.045   6.772   7.779
89319SOL     OW69795  10.682   0.332  12.524
89319SOL    HW169796  10.709   0.241  12.516
89319SOL    HW269797  10.609   0.341  12.463
89320SOL     OW69798  12.081   6.322  11.254
89320SOL    HW169799  12.117   6.244  11.212
89320SOL    HW269800  12.096   6.307  11.347
89321SOL     OW69801  13.099   2.370   0.638
89321SOL    HW169802  13.023   2.400   0.588
89321SOL    HW269803  13.120   2.284   0.601
89322SOL     OW69804   9.185  14.337  10.094
89322SOL    HW169805   9.127  14.297  10.029
89322SOL    HW269806   9.133  14.338  10.174
89323SOL     OW69807   5.558   3.831  14.788
89323SOL    HW169808   5.566   3.741  14.756
89323SOL    HW269809   5.648   3.862  14.796
89324SOL     OW69810   2.083   1.647  13.278
89324SOL    HW169811   2.065   1.691  13.195
89324SOL    HW269812   2.021   1.686  13.340
89325SOL     OW69813  13.354   0.667   0.758
89325SOL    HW169814  13.331   0.586   0.714
89325SOL    HW269815  13.279   0.725   0.742
89326SOL     OW69816   7.349   5.679   1.381
89326SOL    HW169817   7.425   5.646   1.334
89326SOL    HW269818   7.274   5.655   1.326
89327SOL     OW69819  10.998   4.443   2.724
89327SOL    HW169820  11.022   4.535   2.725
89327SOL    HW269821  11.066   4.401   2.671
89328SOL     OW69822   1.297  14.667   4.265
89328SOL    HW169823   1.365  14.608   4.231
89328SOL    HW269824   1.321  14.753   4.230
89329SOL     OW69825  13.953   9.368   7.861
89329SOL    HW169826  14.013   9.296   7.841
89329SOL    HW269827  13.982   9.400   7.946
89330SOL     OW69828   2.705   5.594  10.107
89330SOL    HW169829   2.722   5.500  10.099
89330SOL    HW269830   2.628   5.600  10.163
89331SOL     OW69831  11.247   9.593  13.343
89331SOL    HW169832  11.215   9.626  13.427
89331SOL    HW269833  11.196   9.513  13.328
89332SOL     OW69834   9.856   5.343  14.200
89332SOL    HW169835   9.863   5.438  14.206
89332SOL    HW269836   9.910   5.310  14.272
89333SOL     OW69837   8.391  12.362   0.235
89333SOL    HW169838   8.433  12.426   0.293
89333SOL    HW269839   8.353  12.298   0.295
89334SOL     OW69840   1.788   2.194  12.646
89334SOL    HW169841   1.743   2.197  12.730
89334SOL    HW269842   1.802   2.286  12.623
89335SOL     OW69843   4.687  13.418   8.782
89335SOL    HW169844   4.690  13.386   8.872
89335SOL    HW269845   4.596  13.445   8.769
89336SOL     OW69846  14.207   2.420  12.764
89336SOL    HW169847  14.233   2.511  12.780
89336SOL    HW269848  14.144   2.401  12.833
89337SOL     OW69849   6.757  14.615   8.768
89337SOL    HW169850   6.798  14.649   8.688
89337SOL    HW269851   6.666  14.646   8.762
89338SOL     OW69852   7.466  11.744  13.681
89338SOL    HW169853   7.447  11.660  13.640
89338SOL    HW269854   7.535  11.782  13.626
89339SOL     OW69855   8.089  13.081   7.205
89339SOL    HW169856   8.045  12.996   7.205
89339SOL    HW269857   8.170  13.067   7.254
89340SOL     OW69858  14.690   8.671   5.167
89340SOL    HW169859  14.772   8.710   5.196
89340SOL    HW269860  14.686   8.587   5.212
89341SOL     OW69861  11.535   4.815   7.283
89341SOL    HW169862  11.628   4.794   7.283
89341SOL    HW269863  11.510   4.814   7.375
89342SOL     OW69864   0.080  13.872  13.369
89342SOL    HW169865   0.140  13.828  13.430
89342SOL    HW269866   0.134  13.936  13.324
89343SOL     OW69867  14.689   9.399  11.467
89343SOL    HW169868  14.632   9.474  11.448
89343SOL    HW269869  14.773   9.423  11.428
89344SOL     OW69870  12.475  10.493   8.137
89344SOL    HW169871  12.503  10.488   8.045
89344SOL    HW269872  12.383  10.469   8.136
89345SOL     OW69873  13.989  10.641   4.982
89345SOL    HW169874  13.947  10.714   5.027
89345SOL    HW269875  14.055  10.681   4.927
89346SOL     OW69876  12.307  11.400   5.748
89346SOL    HW169877  12.386  11.347   5.751
89346SOL    HW269878  12.331  11.482   5.791
89347SOL     OW69879   6.290   0.832   3.200
89347SOL    HW169880   6.202   0.827   3.161
89347SOL    HW269881   6.278   0.802   3.290
89348SOL     OW69882   9.598  14.149   0.905
89348SOL    HW169883   9.633  14.190   0.826
89348SOL    HW269884   9.513  14.114   0.878
89349SOL     OW69885   0.939  13.870   4.306
89349SOL    HW169886   0.861  13.816   4.318
89349SOL    HW269887   0.958  13.905   4.392
89350SOL     OW69888   0.940  10.328   9.275
89350SOL    HW169889   0.881  10.295   9.206
89350SOL    HW269890   0.884  10.341   9.351
89351SOL     OW69891  10.683  12.245   7.631
89351SOL    HW169892  10.640  12.224   7.549
89351SOL    HW269893  10.698  12.160   7.673
89352SOL     OW69894  10.193   2.282  13.774
89352SOL    HW169895  10.211   2.249  13.687
89352SOL    HW269896  10.276   2.318  13.805
89353SOL     OW69897   8.401  13.938   4.392
89353SOL    HW169898   8.375  13.867   4.450
89353SOL    HW269899   8.355  14.015   4.425
89354SOL     OW69900   8.534  11.256   5.708
89354SOL    HW169901   8.504  11.178   5.755
89354SOL    HW269902   8.585  11.222   5.635
89355SOL     OW69903  12.830   5.870  11.451
89355SOL    HW169904  12.756   5.817  11.422
89355SOL    HW269905  12.869   5.820  11.522
89356SOL     OW69906   6.504   4.295  12.811
89356SOL    HW169907   6.511   4.390  12.809
89356SOL    HW269908   6.448   4.276  12.886
89357SOL     OW69909   8.427  11.523  11.076
89357SOL    HW169910   8.352  11.582  11.066
89357SOL    HW269911   8.501  11.572  11.041
89358SOL     OW69912  11.735  13.319  10.824
89358SOL    HW169913  11.768  13.326  10.914
89358SOL    HW269914  11.719  13.226  10.812
89359SOL     OW69915   9.692   0.867  12.647
89359SOL    HW169916   9.728   0.902  12.728
89359SOL    HW269917   9.602   0.897  12.644
89360SOL     OW69918  10.051   9.316  10.464
89360SOL    HW169919  10.050   9.264  10.544
89360SOL    HW269920   9.965   9.359  10.463
89361SOL     OW69921   5.958  10.938  11.454
89361SOL    HW169922   6.014  10.862  11.436
89361SOL    HW269923   6.013  10.996  11.506
89362SOL     OW69924   4.625   2.476   5.958
89362SOL    HW169925   4.674   2.540   6.010
89362SOL    HW269926   4.623   2.398   6.013
89363SOL     OW69927  13.080   3.903   8.030
89363SOL    HW169928  13.023   3.968   7.988
89363SOL    HW269929  13.106   3.944   8.113
89364SOL     OW69930   2.958  13.058   1.831
89364SOL    HW169931   2.964  12.989   1.764
89364SOL    HW269932   2.910  13.128   1.787
89365SOL     OW69933  13.929  14.343   8.380
89365SOL    HW169934  13.861  14.337   8.446
89365SOL    HW269935  13.890  14.394   8.309
89366SOL     OW69936   6.081   1.011  10.170
89366SOL    HW169937   6.023   1.001  10.245
89366SOL    HW269938   6.098   1.105  10.165
89367SOL     OW69939  12.927  11.845   7.497
89367SOL    HW169940  12.957  11.878   7.412
89367SOL    HW269941  12.990  11.880   7.560
89368SOL     OW69942  12.370   4.332   2.751
89368SOL    HW169943  12.409   4.415   2.777
89368SOL    HW269944  12.408   4.268   2.811
89369SOL     OW69945   9.903   9.924  14.024
89369SOL    HW169946   9.912  10.005  13.973
89369SOL    HW269947   9.961   9.862  13.981
89370SOL     OW69948   8.643  12.295  10.771
89370SOL    HW169949   8.655  12.215  10.719
89370SOL    HW269950   8.558  12.329  10.742
89371SOL     OW69951  14.171   7.737   4.487
89371SOL    HW169952  14.215   7.793   4.550
89371SOL    HW269953  14.201   7.649   4.508
89372SOL     OW69954  10.232  13.296   4.491
89372SOL    HW169955  10.308  13.240   4.474
89372SOL    HW269956  10.249  13.376   4.441
89373SOL     OW69957   9.056  14.423   9.160
89373SOL    HW169958   9.006  14.342   9.157
89373SOL    HW269959   9.134  14.401   9.212
89374SOL     OW69960   5.683  10.307   8.283
89374SOL    HW169961   5.601  10.329   8.326
89374SOL    HW269962   5.678  10.212   8.268
89375SOL     OW69963  14.338   2.773   1.470
89375SOL    HW169964  14.413   2.762   1.529
89375SOL    HW269965  14.373   2.821   1.395
89376SOL     OW69966   1.204   0.140  13.032
89376SOL    HW169967   1.217   0.124  13.125
89376SOL    HW269968   1.138   0.210  13.028
89377SOL     OW69969  10.270  14.610   8.889
89377SOL    HW169970  10.347  14.563   8.857
89377SOL    HW269971  10.290  14.702   8.872
89378SOL     OW69972  14.113   1.505   4.208
89378SOL    HW169973  14.086   1.418   4.241
89378SOL    HW269974  14.105   1.562   4.284
89379SOL     OW69975   1.941   1.164   9.824
89379SOL    HW169976   2.016   1.212   9.787
89379SOL    HW269977   1.933   1.087   9.768
89380SOL     OW69978  10.608   1.969   4.725
89380SOL    HW169979  10.550   1.899   4.754
89380SOL    HW269980  10.595   1.974   4.631
89381SOL     OW69981  11.626  11.971  11.511
89381SOL    HW169982  11.536  11.969  11.544
89381SOL    HW269983  11.628  11.906  11.441
89382SOL     OW69984   5.965   9.808  14.349
89382SOL    HW169985   5.934   9.855  14.426
89382SOL    HW269986   5.888   9.801  14.292
89383SOL     OW69987   7.699   2.184   9.240
89383SOL    HW169988   7.670   2.163   9.329
89383SOL    HW269989   7.776   2.239   9.252
89384SOL     OW69990   2.084  11.609   0.073
89384SOL    HW169991   2.165  11.608   0.123
89384SOL    HW269992   2.015  11.601   0.138
89385SOL     OW69993   8.938  10.281   5.910
89385SOL    HW169994   8.911  10.268   5.819
89385SOL    HW269995   8.869  10.240   5.962
89386SOL     OW69996   8.548   5.445   1.671
89386SOL    HW169997   8.633   5.479   1.641
89386SOL    HW269998   8.509   5.519   1.718
89387SOL     OW69999   3.206   2.557   0.168
89387SOL    HW170000   3.293   2.586   0.196
89387SOL    HW270001   3.176   2.625   0.108
89388SOL     OW70002   0.980  13.786   2.718
89388SOL    HW170003   1.000  13.833   2.637
89388SOL    HW270004   0.913  13.722   2.693
89389SOL     OW70005  11.645   8.841  14.048
89389SOL    HW170006  11.558   8.833  14.086
89389SOL    HW270007  11.648   8.931  14.015
89390SOL     OW70008  14.088  14.793   7.808
89390SOL    HW170009  14.175  14.805   7.848
89390SOL    HW270010  14.092  14.843   7.727
89391SOL     OW70011  13.733   3.666  11.143
89391SOL    HW170012  13.735   3.757  11.112
89391SOL    HW270013  13.815   3.628  11.113
89392SOL     OW70014   6.280   9.110  10.018
89392SOL    HW170015   6.272   9.194   9.972
89392SOL    HW270016   6.236   9.047   9.961
89393SOL     OW70017   5.898   8.583   8.003
89393SOL    HW170018   5.932   8.597   8.091
89393SOL    HW270019   5.941   8.651   7.950
89394SOL     OW70020   8.981  14.733   8.735
89394SOL    HW170021   9.037  14.799   8.694
89394SOL    HW270022   8.943  14.778   8.810
89395SOL     OW70023   4.366   8.062  11.860
89395SOL    HW170024   4.346   8.152  11.887
89395SOL    HW270025   4.350   8.062  11.766
89396SOL     OW70026  11.370   1.172   6.130
89396SOL    HW170027  11.324   1.175   6.047
89396SOL    HW270028  11.309   1.128   6.190
89397SOL     OW70029  12.764   9.237  10.383
89397SOL    HW170030  12.781   9.284  10.464
89397SOL    HW270031  12.849   9.199  10.359
89398SOL     OW70032  14.054   9.564   8.708
89398SOL    HW170033  13.982   9.531   8.761
89398SOL    HW270034  14.054   9.507   8.630
89399SOL     OW70035   6.024   9.771   1.324
89399SOL    HW170036   6.012   9.831   1.398
89399SOL    HW270037   6.033   9.828   1.248
89400SOL     OW70038   5.523  14.729   2.224
89400SOL    HW170039   5.560  14.703   2.309
89400SOL    HW270040   5.549  14.821   2.213
89401SOL     OW70041   7.517   7.732  12.094
89401SOL    HW170042   7.436   7.704  12.051
89401SOL    HW270043   7.540   7.814  12.051
89402SOL     OW70044   6.427  13.793   0.854
89402SOL    HW170045   6.513  13.760   0.830
89402SOL    HW270046   6.396  13.734   0.922
89403SOL     OW70047  12.044  14.813  11.658
89403SOL    HW170048  12.080  14.778  11.577
89403SOL    HW270049  12.116  14.861  11.699
89404SOL     OW70050  11.209  12.839  10.380
89404SOL    HW170051  11.266  12.787  10.436
89404SOL    HW270052  11.131  12.785  10.368
89405SOL     OW70053  11.141  12.930   2.625
89405SOL    HW170054  11.135  12.985   2.703
89405SOL    HW270055  11.231  12.941   2.595
89406SOL     OW70056  14.057   6.173  10.472
89406SOL    HW170057  14.140   6.136  10.441
89406SOL    HW270058  14.053   6.260  10.433
89407SOL     OW70059  14.832   5.472  14.212
89407SOL    HW170060  14.823   5.558  14.252
89407SOL    HW270061  14.767   5.471  14.141
89408SOL     OW70062   8.998  10.181   3.151
89408SOL    HW170063   8.943  10.112   3.187
89408SOL    HW270064   9.087  10.146   3.153
89409SOL     OW70065   4.198   4.040   3.197
89409SOL    HW170066   4.266   3.973   3.206
89409SOL    HW270067   4.119   3.990   3.177
89410SOL     OW70068   2.245   1.175   0.861
89410SOL    HW170069   2.196   1.190   0.941
89410SOL    HW270070   2.187   1.205   0.791
89411SOL     OW70071   0.809   1.274  12.347
89411SOL    HW170072   0.844   1.293  12.434
89411SOL    HW270073   0.883   1.284  12.288
89412SOL     OW70074   9.153   2.820  11.296
89412SOL    HW170075   9.178   2.832  11.388
89412SOL    HW270076   9.072   2.869  11.286
89413SOL     OW70077   2.662   1.670   3.229
89413SOL    HW170078   2.654   1.596   3.168
89413SOL    HW270079   2.711   1.736   3.180
89414SOL     OW70080   5.188   7.736  13.817
89414SOL    HW170081   5.214   7.798  13.749
89414SOL    HW270082   5.209   7.650  13.780
89415SOL     OW70083   3.951   8.076   0.685
89415SOL    HW170084   4.030   8.101   0.636
89415SOL    HW270085   3.897   8.029   0.621
89416SOL     OW70086   0.716   3.239   1.898
89416SOL    HW170087   0.645   3.303   1.894
89416SOL    HW270088   0.683   3.163   1.851
89417SOL     OW70089   8.232   7.523  14.262
89417SOL    HW170090   8.223   7.464  14.187
89417SOL    HW270091   8.254   7.608  14.223
89418SOL     OW70092   2.296   6.432  11.313
89418SOL    HW170093   2.247   6.425  11.395
89418SOL    HW270094   2.386   6.448  11.340
89419SOL     OW70095  14.766  12.009   2.289
89419SOL    HW170096  14.788  11.936   2.346
89419SOL    HW270097  14.842  12.018   2.231
89420SOL     OW70098   3.047   6.113  10.994
89420SOL    HW170099   2.952   6.104  10.992
89420SOL    HW270100   3.065   6.198  10.955
89421SOL     OW70101  12.818  12.102   1.672
89421SOL    HW170102  12.795  12.047   1.597
89421SOL    HW270103  12.792  12.050   1.749
89422SOL     OW70104  14.778   3.655  14.370
89422SOL    HW170105  14.808   3.656  14.279
89422SOL    HW270106  14.722   3.577  14.375
89423SOL     OW70107   0.831   9.480  14.381
89423SOL    HW170108   0.872   9.539  14.317
89423SOL    HW270109   0.762   9.436  14.332
89424SOL     OW70110  11.430  11.506   3.010
89424SOL    HW170111  11.426  11.434   2.947
89424SOL    HW270112  11.372  11.477   3.081
89425SOL     OW70113   7.878  13.669   0.703
89425SOL    HW170114   7.797  13.619   0.711
89425SOL    HW270115   7.897  13.698   0.792
89426SOL     OW70116   3.803   1.339  12.625
89426SOL    HW170117   3.771   1.403  12.688
89426SOL    HW270118   3.863   1.389  12.569
89427SOL     OW70119   9.572   1.272   5.775
89427SOL    HW170120   9.508   1.263   5.846
89427SOL    HW270121   9.655   1.288   5.820
89428SOL     OW70122   9.840   2.334  10.136
89428SOL    HW170123   9.911   2.313  10.196
89428SOL    HW270124   9.774   2.266  10.152
89429SOL     OW70125   2.613  12.865  13.778
89429SOL    HW170126   2.662  12.947  13.786
89429SOL    HW270127   2.670  12.799  13.819
89430SOL     OW70128   6.589   4.885   3.221
89430SOL    HW170129   6.527   4.899   3.293
89430SOL    HW270130   6.613   4.973   3.193
89431SOL     OW70131   8.440   6.331   3.261
89431SOL    HW170132   8.451   6.242   3.229
89431SOL    HW270133   8.417   6.321   3.353
89432SOL     OW70134   9.232  13.646  10.230
89432SOL    HW170135   9.167  13.615  10.293
89432SOL    HW270136   9.190  13.721  10.188
89433SOL     OW70137   2.888  11.524  13.905
89433SOL    HW170138   2.950  11.480  13.963
89433SOL    HW270139   2.912  11.493  13.817
89434SOL     OW70140   6.923  14.353   3.309
89434SOL    HW170141   6.846  14.406   3.331
89434SOL    HW270142   6.888  14.279   3.260
89435SOL     OW70143   6.502  12.595   4.331
89435SOL    HW170144   6.407  12.606   4.332
89435SOL    HW270145   6.531  12.638   4.251
89436SOL     OW70146   7.580  10.167   7.209
89436SOL    HW170147   7.521  10.108   7.256
89436SOL    HW270148   7.526  10.205   7.139
89437SOL     OW70149   5.071  14.008   8.500
89437SOL    HW170150   5.022  14.006   8.583
89437SOL    HW270151   5.083  14.101   8.482
89438SOL     OW70152  11.775  11.793   8.382
89438SOL    HW170153  11.725  11.756   8.455
89438SOL    HW270154  11.725  11.769   8.304
89439SOL     OW70155  12.030   4.394   2.221
89439SOL    HW170156  12.113   4.352   2.198
89439SOL    HW270157  11.986   4.331   2.278
89440SOL     OW70158   6.306   5.685   3.333
89440SOL    HW170159   6.313   5.617   3.266
89440SOL    HW270160   6.242   5.746   3.298
89441SOL     OW70161   3.757  11.951   1.012
89441SOL    HW170162   3.730  12.037   0.980
89441SOL    HW270163   3.746  11.955   1.107
89442SOL     OW70164   9.827  14.203   5.822
89442SOL    HW170165   9.865  14.174   5.905
89442SOL    HW270166   9.733  14.195   5.834
89443SOL     OW70167   9.937  13.372   6.082
89443SOL    HW170168   9.906  13.320   6.008
89443SOL    HW270169   9.962  13.307   6.148
89444SOL     OW70170  11.970   9.821   0.591
89444SOL    HW170171  11.927   9.906   0.588
89444SOL    HW270172  11.961   9.786   0.502
89445SOL     OW70173  12.411  12.176   5.897
89445SOL    HW170174  12.464  12.106   5.857
89445SOL    HW270175  12.336  12.186   5.838
89446SOL     OW70176   1.430   2.327  10.084
89446SOL    HW170177   1.426   2.239  10.120
89446SOL    HW270178   1.357   2.331  10.022
89447SOL     OW70179   8.115   9.603  14.514
89447SOL    HW170180   8.064   9.574  14.589
89447SOL    HW270181   8.171   9.672  14.548
89448SOL     OW70182   4.207  14.273   4.801
89448SOL    HW170183   4.267  14.205   4.832
89448SOL    HW270184   4.197  14.332   4.876
89449SOL     OW70185  12.477   1.517  12.392
89449SOL    HW170186  12.558   1.523  12.341
89449SOL    HW270187  12.432   1.441  12.356
89450SOL     OW70188   3.472  14.776  13.720
89450SOL    HW170189   3.378  14.793  13.730
89450SOL    HW270190   3.491  14.800  13.630
89451SOL     OW70191   8.454   1.341   5.539
89451SOL    HW170192   8.388   1.322   5.473
89451SOL    HW270193   8.416   1.311   5.621
89452SOL     OW70194  11.750  10.363  12.503
89452SOL    HW170195  11.696  10.424  12.553
89452SOL    HW270196  11.697  10.343  12.425
89453SOL     OW70197  13.932   8.705   1.417
89453SOL    HW170198  13.929   8.728   1.509
89453SOL    HW270199  13.949   8.788   1.372
89454SOL     OW70200   7.637   9.459  14.398
89454SOL    HW170201   7.572   9.508  14.348
89454SOL    HW270202   7.609   9.468  14.489
89455SOL     OW70203   4.877  13.663   5.287
89455SOL    HW170204   4.876  13.745   5.238
89455SOL    HW270205   4.791  13.625   5.272
89456SOL     OW70206   1.608   1.390  12.933
89456SOL    HW170207   1.632   1.477  12.900
89456SOL    HW270208   1.542   1.407  13.000
89457SOL     OW70209  13.542   3.967  11.307
89457SOL    HW170210  13.567   3.970  11.215
89457SOL    HW270211  13.623   3.986  11.355
89458SOL     OW70212   1.954  13.680   5.819
89458SOL    HW170213   1.924  13.685   5.729
89458SOL    HW270214   1.876  13.654   5.869
89459SOL     OW70215   3.709   3.690   0.353
89459SOL    HW170216   3.766   3.760   0.385
89459SOL    HW270217   3.742   3.670   0.266
89460SOL     OW70218   4.350   2.859  11.906
89460SOL    HW170219   4.300   2.778  11.920
89460SOL    HW270220   4.395   2.845  11.822
89461SOL     OW70221   7.389   2.688  13.286
89461SOL    HW170222   7.396   2.736  13.368
89461SOL    HW270223   7.344   2.748  13.226
89462SOL     OW70224  12.372   9.948  10.515
89462SOL    HW170225  12.337   9.859  10.516
89462SOL    HW270226  12.348   9.984  10.600
89463SOL     OW70227   1.415   3.386   2.604
89463SOL    HW170228   1.454   3.310   2.562
89463SOL    HW270229   1.343   3.411   2.546
89464SOL     OW70230   4.645  11.602  13.607
89464SOL    HW170231   4.657  11.587  13.701
89464SOL    HW270232   4.731  11.632  13.576
89465SOL     OW70233   8.210   2.828   8.636
89465SOL    HW170234   8.208   2.733   8.645
89465SOL    HW270235   8.184   2.844   8.545
89466SOL     OW70236   3.350  11.633  13.097
89466SOL    HW170237   3.440  11.603  13.108
89466SOL    HW270238   3.305  11.603  13.177
89467SOL     OW70239   4.379   5.337   4.231
89467SOL    HW170240   4.448   5.384   4.184
89467SOL    HW270241   4.391   5.246   4.206
89468SOL     OW70242   4.682   6.627   0.221
89468SOL    HW170243   4.675   6.595   0.311
89468SOL    HW270244   4.743   6.567   0.179
89469SOL     OW70245   2.841   8.398   1.681
89469SOL    HW170246   2.848   8.306   1.658
89469SOL    HW270247   2.810   8.399   1.772
89470SOL     OW70248   0.352  12.645   8.975
89470SOL    HW170249   0.301  12.564   8.966
89470SOL    HW270250   0.293  12.714   8.943
89471SOL     OW70251  11.139   7.220   8.575
89471SOL    HW170252  11.073   7.288   8.563
89471SOL    HW270253  11.092   7.137   8.566
89472SOL     OW70254  11.982   4.269   5.324
89472SOL    HW170255  11.952   4.359   5.338
89472SOL    HW270256  11.910   4.227   5.277
89473SOL     OW70257   4.288   0.747  11.465
89473SOL    HW170258   4.353   0.804  11.506
89473SOL    HW270259   4.271   0.680  11.531
89474SOL     OW70260   3.894   6.692   7.037
89474SOL    HW170261   3.824   6.634   7.008
89474SOL    HW270262   3.862   6.780   7.018
89475SOL     OW70263   0.360   1.235  14.843
89475SOL    HW170264   0.271   1.219  14.811
89475SOL    HW270265   0.407   1.153  14.825
89476SOL     OW70266   2.474   1.894  11.846
89476SOL    HW170267   2.392   1.845  11.854
89476SOL    HW270268   2.510   1.868  11.761
89477SOL     OW70269  11.209  14.869   2.379
89477SOL    HW170270  11.247  14.807   2.441
89477SOL    HW270271  11.265  14.863   2.302
89478SOL     OW70272  11.456  14.324   6.808
89478SOL    HW170273  11.401  14.255   6.772
89478SOL    HW270274  11.400  14.369   6.871
89479SOL     OW70275   8.101   3.300  11.260
89479SOL    HW170276   8.035   3.358  11.298
89479SOL    HW270277   8.185   3.341  11.285
89480SOL     OW70278   9.412  10.450  11.365
89480SOL    HW170279   9.356  10.420  11.294
89480SOL    HW270280   9.356  10.508  11.416
89481SOL     OW70281   8.995   6.859   4.273
89481SOL    HW170282   8.977   6.948   4.241
89481SOL    HW270283   8.983   6.803   4.196
89482SOL     OW70284   5.089   9.300   3.387
89482SOL    HW170285   5.063   9.227   3.330
89482SOL    HW270286   5.181   9.316   3.364
89483SOL     OW70287  10.742  13.344   5.345
89483SOL    HW170288  10.753  13.253   5.315
89483SOL    HW270289  10.699  13.335   5.430
89484SOL     OW70290   5.905  10.282   4.000
89484SOL    HW170291   5.912  10.297   3.906
89484SOL    HW270292   5.932  10.366   4.039
89485SOL     OW70293   2.435   7.300  11.112
89485SOL    HW170294   2.380   7.376  11.097
89485SOL    HW270295   2.523   7.329  11.087
89486SOL     OW70296  12.406   1.355  13.600
89486SOL    HW170297  12.483   1.396  13.561
89486SOL    HW270298  12.439   1.274  13.639
89487SOL     OW70299  12.947   8.445   4.126
89487SOL    HW170300  13.042   8.448   4.112
89487SOL    HW270301  12.911   8.500   4.057
89488SOL     OW70302   9.352   5.090  12.652
89488SOL    HW170303   9.393   5.005  12.667
89488SOL    HW270304   9.333   5.124  12.739
89489SOL     OW70305   5.792   2.892   8.741
89489SOL    HW170306   5.837   2.977   8.738
89489SOL    HW270307   5.726   2.899   8.671
89490SOL     OW70308  13.910  10.914   4.724
89490SOL    HW170309  14.003  10.900   4.707
89490SOL    HW270310  13.900  11.009   4.724
89491SOL     OW70311   7.264  12.586   9.627
89491SOL    HW170312   7.354  12.610   9.646
89491SOL    HW270313   7.243  12.519   9.693
89492SOL     OW70314  13.692   8.906   2.813
89492SOL    HW170315  13.676   8.866   2.727
89492SOL    HW270316  13.776   8.951   2.803
89493SOL     OW70317  14.092   7.769   9.020
89493SOL    HW170318  14.120   7.731   8.937
89493SOL    HW270319  14.078   7.862   9.000
89494SOL     OW70320  13.776   5.018   3.914
89494SOL    HW170321  13.849   5.061   3.868
89494SOL    HW270322  13.729   5.090   3.957
89495SOL     OW70323   3.743   9.167   4.813
89495SOL    HW170324   3.771   9.245   4.766
89495SOL    HW270325   3.659   9.191   4.853
89496SOL     OW70326  10.598  10.977   8.556
89496SOL    HW170327  10.676  10.998   8.608
89496SOL    HW270328  10.536  11.046   8.576
89497SOL     OW70329   8.953  12.541  13.666
89497SOL    HW170330   8.928  12.505  13.581
89497SOL    HW270331   8.876  12.528  13.722
89498SOL     OW70332   4.160   1.230   0.032
89498SOL    HW170333   4.155   1.288   0.108
89498SOL    HW270334   4.132   1.284  14.831
89499SOL     OW70335   0.900  11.403   9.837
89499SOL    HW170336   0.921  11.495   9.820
89499SOL    HW270337   0.958  11.378   9.909
89500SOL     OW70338   1.177   9.872  10.441
89500SOL    HW170339   1.200   9.789  10.482
89500SOL    HW270340   1.260   9.920  10.436
89501SOL     OW70341  13.742   8.331   4.281
89501SOL    HW170342  13.705   8.409   4.239
89501SOL    HW270343  13.782   8.364   4.361
89502SOL     OW70344   1.388   0.376   6.090
89502SOL    HW170345   1.373   0.456   6.140
89502SOL    HW270346   1.361   0.397   6.000
89503SOL     OW70347   7.795   8.468   9.255
89503SOL    HW170348   7.742   8.392   9.229
89503SOL    HW270349   7.886   8.436   9.252
89504SOL     OW70350  11.094   9.359   3.596
89504SOL    HW170351  11.013   9.311   3.615
89504SOL    HW270352  11.077   9.448   3.626
89505SOL     OW70353   1.716   9.263   6.057
89505SOL    HW170354   1.691   9.197   6.121
89505SOL    HW270355   1.810   9.251   6.044
89506SOL     OW70356  10.951   6.687   1.265
89506SOL    HW170357  11.023   6.629   1.291
89506SOL    HW270358  10.978   6.724   1.182
89507SOL     OW70359   1.006   2.282   9.376
89507SOL    HW170360   1.017   2.189   9.356
89507SOL    HW270361   1.051   2.327   9.304
89508SOL     OW70362   1.757  10.254   1.528
89508SOL    HW170363   1.714  10.246   1.443
89508SOL    HW270364   1.691  10.225   1.591
89509SOL     OW70365   9.980  10.320   3.675
89509SOL    HW170366   9.944  10.343   3.760
89509SOL    HW270367   9.970  10.225   3.669
89510SOL     OW70368  11.681   5.225  14.030
89510SOL    HW170369  11.682   5.276  14.111
89510SOL    HW270370  11.617   5.155  14.047
89511SOL     OW70371   7.226  12.322   5.272
89511SOL    HW170372   7.154  12.259   5.286
89511SOL    HW270373   7.232  12.370   5.355
89512SOL     OW70374   8.949   9.076   8.267
89512SOL    HW170375   9.025   9.130   8.246
89512SOL    HW270376   8.885   9.099   8.200
89513SOL     OW70377   9.637  14.566  10.714
89513SOL    HW170378   9.639  14.471  10.708
89513SOL    HW270379   9.702  14.588  10.780
89514SOL     OW70380   6.053   8.318  11.739
89514SOL    HW170381   6.106   8.391  11.706
89514SOL    HW270382   6.110   8.242  11.732
89515SOL     OW70383   8.474  13.444   1.055
89515SOL    HW170384   8.551  13.472   1.005
89515SOL    HW270385   8.487  13.481   1.142
89516SOL     OW70386  13.561  14.463   0.415
89516SOL    HW170387  13.602  14.379   0.393
89516SOL    HW270388  13.578  14.475   0.508
89517SOL     OW70389  14.141   8.072   5.668
89517SOL    HW170390  14.194   8.145   5.700
89517SOL    HW270391  14.051   8.095   5.691
89518SOL     OW70392   4.176   2.205   4.742
89518SOL    HW170393   4.102   2.167   4.695
89518SOL    HW270394   4.188   2.291   4.703
89519SOL     OW70395  12.762   4.249  14.034
89519SOL    HW170396  12.680   4.290  14.062
89519SOL    HW270397  12.829   4.311  14.061
89520SOL     OW70398   0.092   5.189  10.044
89520SOL    HW170399   0.170   5.228  10.082
89520SOL    HW270400   0.019   5.228  10.094
89521SOL     OW70401   9.481   9.833   9.219
89521SOL    HW170402   9.498   9.884   9.298
89521SOL    HW270403   9.398   9.865   9.186
89522SOL     OW70404   5.716   1.650   6.167
89522SOL    HW170405   5.680   1.636   6.080
89522SOL    HW270406   5.674   1.731   6.197
89523SOL     OW70407   8.233  13.152   6.540
89523SOL    HW170408   8.309  13.109   6.580
89523SOL    HW270409   8.231  13.118   6.450
89524SOL     OW70410   9.039   8.114   1.457
89524SOL    HW170411   9.039   8.058   1.534
89524SOL    HW270412   8.978   8.185   1.480
89525SOL     OW70413   1.025   3.113   0.452
89525SOL    HW170414   1.026   3.023   0.419
89525SOL    HW270415   0.986   3.164   0.380
89526SOL     OW70416   6.644   5.266   1.424
89526SOL    HW170417   6.641   5.340   1.485
89526SOL    HW270418   6.679   5.304   1.343
89527SOL     OW70419  10.845  12.974   7.612
89527SOL    HW170420  10.897  12.961   7.692
89527SOL    HW270421  10.761  12.932   7.631
89528SOL     OW70422   6.043  13.707  12.272
89528SOL    HW170423   5.985  13.665  12.209
89528SOL    HW270424   6.101  13.637  12.302
89529SOL     OW70425   1.554  11.927   0.670
89529SOL    HW170426   1.552  11.872   0.592
89529SOL    HW270427   1.632  11.981   0.659
89530SOL     OW70428  12.956   2.076   9.599
89530SOL    HW170429  13.036   2.025   9.582
89530SOL    HW270430  12.885   2.014   9.581
89531SOL     OW70431   4.875   4.894  12.548
89531SOL    HW170432   4.825   4.968  12.582
89531SOL    HW270433   4.962   4.904  12.586
89532SOL     OW70434   5.306   9.723  12.349
89532SOL    HW170435   5.258   9.666  12.289
89532SOL    HW270436   5.383   9.672  12.374
89533SOL     OW70437  10.628   0.084   4.861
89533SOL    HW170438  10.720   0.102   4.842
89533SOL    HW270439  10.619  14.863   4.850
89534SOL     OW70440   6.176  14.622   7.929
89534SOL    HW170441   6.160  14.656   8.017
89534SOL    HW270442   6.268  14.643   7.912
89535SOL     OW70443   2.778   3.728   1.842
89535SOL    HW170444   2.804   3.713   1.751
89535SOL    HW270445   2.711   3.662   1.859
89536SOL     OW70446   2.885   2.551   5.873
89536SOL    HW170447   2.861   2.638   5.905
89536SOL    HW270448   2.964   2.529   5.923
89537SOL     OW70449   7.665   0.521  14.362
89537SOL    HW170450   7.729   0.527  14.433
89537SOL    HW270451   7.714   0.544  14.283
89538SOL     OW70452   4.918  13.284  13.601
89538SOL    HW170453   5.008  13.281  13.568
89538SOL    HW270454   4.877  13.205  13.568
89539SOL     OW70455   3.675  14.452   4.617
89539SOL    HW170456   3.728  14.373   4.618
89539SOL    HW270457   3.716  14.509   4.682
89540SOL     OW70458   1.708  10.959   3.350
89540SOL    HW170459   1.795  10.920   3.346
89540SOL    HW270460   1.703  11.015   3.272
89541SOL     OW70461  14.338   1.783   7.762
89541SOL    HW170462  14.375   1.799   7.849
89541SOL    HW270463  14.300   1.866   7.736
89542SOL     OW70464  11.989   2.456  12.434
89542SOL    HW170465  11.975   2.486  12.344
89542SOL    HW270466  11.964   2.364  12.433
89543SOL     OW70467   5.930   1.531   1.671
89543SOL    HW170468   5.921   1.481   1.590
89543SOL    HW270469   5.913   1.622   1.645
89544SOL     OW70470   3.488  13.237   6.407
89544SOL    HW170471   3.473  13.181   6.483
89544SOL    HW270472   3.469  13.326   6.438
89545SOL     OW70473   9.305   4.197   8.446
89545SOL    HW170474   9.340   4.280   8.413
89545SOL    HW270475   9.252   4.162   8.375
89546SOL     OW70476   4.839   3.569   1.003
89546SOL    HW170477   4.848   3.521   1.085
89546SOL    HW270478   4.815   3.658   1.031
89547SOL     OW70479  13.000   8.673   7.718
89547SOL    HW170480  13.025   8.609   7.784
89547SOL    HW270481  13.022   8.757   7.756
89548SOL     OW70482   4.595   4.419   8.029
89548SOL    HW170483   4.557   4.488   7.973
89548SOL    HW270484   4.681   4.404   7.992
89549SOL     OW70485  13.461   1.439  14.409
89549SOL    HW170486  13.371   1.416  14.430
89549SOL    HW270487  13.453   1.510  14.345
89550SOL     OW70488  10.038   4.055   1.462
89550SOL    HW170489  10.123   4.012   1.461
89550SOL    HW270490  10.041   4.112   1.539
89551SOL     OW70491   4.095   2.375   3.335
89551SOL    HW170492   4.169   2.374   3.275
89551SOL    HW270493   4.050   2.458   3.316
89552SOL     OW70494   1.758   1.443   2.774
89552SOL    HW170495   1.734   1.361   2.731
89552SOL    HW270496   1.787   1.416   2.861
89553SOL     OW70497   9.111  10.774  12.502
89553SOL    HW170498   9.161  10.704  12.544
89553SOL    HW270499   9.032  10.783  12.556
89554SOL     OW70500   3.685   3.708   3.316
89554SOL    HW170501   3.619   3.776   3.303
89554SOL    HW270502   3.641   3.643   3.372
89555SOL     OW70503   9.114   5.057   2.762
89555SOL    HW170504   9.187   5.096   2.811
89555SOL    HW270505   9.117   5.100   2.677
89556SOL     OW70506   8.830   5.932   2.870
89556SOL    HW170507   8.787   5.876   2.805
89556SOL    HW270508   8.830   6.019   2.830
89557SOL     OW70509   1.908   0.177   3.648
89557SOL    HW170510   1.881   0.239   3.715
89557SOL    HW270511   1.983   0.131   3.685
89558SOL     OW70512   8.508   9.218   6.925
89558SOL    HW170513   8.522   9.294   6.869
89558SOL    HW270514   8.543   9.144   6.876
89559SOL     OW70515  10.569  10.923   1.277
89559SOL    HW170516  10.631  10.851   1.289
89559SOL    HW270517  10.582  10.980   1.352
89560SOL     OW70518   4.325   0.144  12.987
89560SOL    HW170519   4.247   0.153  13.042
89560SOL    HW270520   4.398   0.154  13.048
89561SOL     OW70521  13.747  12.665  13.313
89561SOL    HW170522  13.765  12.744  13.364
89561SOL    HW270523  13.811  12.601  13.344
89562SOL     OW70524   6.602   0.164   9.772
89562SOL    HW170525   6.584   0.255   9.795
89562SOL    HW270526   6.640   0.126   9.851
89563SOL     OW70527  14.397   0.733   5.686
89563SOL    HW170528  14.436   0.783   5.615
89563SOL    HW270529  14.357   0.657   5.643
89564SOL     OW70530   1.734   4.713   8.966
89564SOL    HW170531   1.681   4.653   9.020
89564SOL    HW270532   1.813   4.663   8.946
89565SOL     OW70533   4.162   6.192   6.388
89565SOL    HW170534   4.185   6.178   6.480
89565SOL    HW270535   4.094   6.259   6.390
89566SOL     OW70536   6.878   9.745  12.495
89566SOL    HW170537   6.894   9.703  12.411
89566SOL    HW270538   6.788   9.777  12.489
89567SOL     OW70539  10.128   6.743   6.921
89567SOL    HW170540  10.072   6.811   6.884
89567SOL    HW270541  10.095   6.731   7.010
89568SOL     OW70542   4.040   0.624  10.225
89568SOL    HW170543   4.017   0.627  10.318
89568SOL    HW270544   4.073   0.535  10.212
89569SOL     OW70545  12.074   5.277   9.014
89569SOL    HW170546  12.053   5.324   8.934
89569SOL    HW270547  12.008   5.306   9.077
89570SOL     OW70548  12.932   0.543   8.200
89570SOL    HW170549  12.888   0.502   8.125
89570SOL    HW270550  12.991   0.608   8.161
89571SOL     OW70551   0.583   3.960   5.075
89571SOL    HW170552   0.595   3.978   5.168
89571SOL    HW270553   0.551   4.043   5.039
89572SOL     OW70554  14.041   5.681  11.629
89572SOL    HW170555  13.975   5.636  11.576
89572SOL    HW270556  14.020   5.656  11.719
89573SOL     OW70557   2.878   3.535   7.432
89573SOL    HW170558   2.927   3.476   7.376
89573SOL    HW270559   2.794   3.546   7.388
89574SOL     OW70560  11.618   6.030   5.377
89574SOL    HW170561  11.685   6.068   5.320
89574SOL    HW270562  11.610   6.092   5.449
89575SOL     OW70563   8.259   7.309   4.840
89575SOL    HW170564   8.293   7.241   4.898
89575SOL    HW270565   8.338   7.348   4.801
89576SOL     OW70566   6.605   0.807   9.789
89576SOL    HW170567   6.640   0.719   9.788
89576SOL    HW270568   6.534   0.806   9.725
89577SOL     OW70569  11.255   7.832   4.742
89577SOL    HW170570  11.293   7.794   4.662
89577SOL    HW270571  11.172   7.869   4.713
89578SOL     OW70572   5.102   6.374   1.191
89578SOL    HW170573   5.025   6.321   1.174
89578SOL    HW270574   5.099   6.443   1.124
89579SOL     OW70575  11.995   8.788   8.560
89579SOL    HW170576  12.043   8.781   8.478
89579SOL    HW270577  12.018   8.710   8.609
89580SOL     OW70578  12.823   4.122   9.364
89580SOL    HW170579  12.866   4.098   9.282
89580SOL    HW270580  12.794   4.039   9.401
89581SOL     OW70581   5.519   7.002  12.989
89581SOL    HW170582   5.476   6.918  12.974
89581SOL    HW270583   5.613   6.983  12.982
89582SOL     OW70584  11.321   8.706  10.168
89582SOL    HW170585  11.345   8.750  10.087
89582SOL    HW270586  11.230   8.732  10.183
89583SOL     OW70587   0.070  11.809   1.915
89583SOL    HW170588   0.084  11.871   1.987
89583SOL    HW270589  14.862  11.839   1.873
89584SOL     OW70590  12.825  10.605   1.856
89584SOL    HW170591  12.836  10.619   1.949
89584SOL    HW270592  12.907  10.564   1.827
89585SOL     OW70593   1.503   9.874   4.518
89585SOL    HW170594   1.437   9.936   4.546
89585SOL    HW270595   1.453   9.797   4.490
89586SOL     OW70596   2.723   4.114  10.003
89586SOL    HW170597   2.707   4.068   9.920
89586SOL    HW270598   2.732   4.206   9.978
89587SOL     OW70599   7.729   2.009   4.060
89587SOL    HW170600   7.658   2.069   4.084
89587SOL    HW270601   7.809   2.061   4.072
89588SOL     OW70602  11.175   9.449  14.573
89588SOL    HW170603  11.245   9.514  14.577
89588SOL    HW270604  11.097   9.496  14.603
89589SOL     OW70605   3.560   1.242   3.735
89589SOL    HW170606   3.470   1.236   3.767
89589SOL    HW270607   3.613   1.213   3.810
89590SOL     OW70608   0.539   6.988  11.127
89590SOL    HW170609   0.508   6.975  11.038
89590SOL    HW270610   0.565   6.901  11.157
89591SOL     OW70611   7.345  10.474   7.222
89591SOL    HW170612   7.437  10.501   7.216
89591SOL    HW270613   7.314  10.474   7.131
89592SOL     OW70614   3.032   7.284   0.318
89592SOL    HW170615   3.090   7.237   0.259
89592SOL    HW270616   2.980   7.341   0.261
89593SOL     OW70617   6.216  13.674  13.313
89593SOL    HW170618   6.295  13.728  13.324
89593SOL    HW270619   6.246  13.597  13.265
89594SOL     OW70620   6.321   9.443   7.714
89594SOL    HW170621   6.373   9.374   7.756
89594SOL    HW270622   6.272   9.398   7.645
89595SOL     OW70623   5.256   8.504   6.874
89595SOL    HW170624   5.247   8.554   6.955
89595SOL    HW270625   5.317   8.556   6.821
89596SOL     OW70626   7.058   0.635  10.954
89596SOL    HW170627   7.052   0.547  10.917
89596SOL    HW270628   7.046   0.622  11.048
89597SOL     OW70629   2.924   1.654   9.213
89597SOL    HW170630   2.988   1.724   9.231
89597SOL    HW270631   2.978   1.576   9.198
89598SOL     OW70632  11.026   4.468  11.567
89598SOL    HW170633  10.936   4.498  11.583
89598SOL    HW270634  11.080   4.544  11.589
89599SOL     OW70635   1.980   8.751  12.507
89599SOL    HW170636   2.068   8.788  12.498
89599SOL    HW270637   1.994   8.665  12.547
89600SOL     OW70638   5.107  13.998  14.151
89600SOL    HW170639   5.067  14.008  14.064
89600SOL    HW270640   5.200  13.985  14.133
89601SOL     OW70641   5.420   4.480   5.690
89601SOL    HW170642   5.386   4.455   5.604
89601SOL    HW270643   5.346   4.467   5.749
89602SOL     OW70644  11.602   1.713   1.264
89602SOL    HW170645  11.564   1.650   1.326
89602SOL    HW270646  11.684   1.671   1.236
89603SOL     OW70647   0.179   5.438   3.927
89603SOL    HW170648   0.140   5.402   3.847
89603SOL    HW270649   0.270   5.458   3.903
89604SOL     OW70650  14.642  10.916   1.786
89604SOL    HW170651  14.622  10.984   1.850
89604SOL    HW270652  14.607  10.836   1.826
89605SOL     OW70653  12.975   7.975  13.395
89605SOL    HW170654  13.052   7.955  13.448
89605SOL    HW270655  13.009   8.024  13.320
89606SOL     OW70656   0.467  12.077   0.371
89606SOL    HW170657   0.447  12.037   0.286
89606SOL    HW270658   0.559  12.056   0.385
89607SOL     OW70659   6.945   5.706   2.982
89607SOL    HW170660   6.951   5.776   3.047
89607SOL    HW270661   6.968   5.749   2.900
89608SOL     OW70662  13.853   7.734  10.240
89608SOL    HW170663  13.860   7.726  10.145
89608SOL    HW270664  13.787   7.803  10.253
89609SOL     OW70665   7.165  12.861   3.604
89609SOL    HW170666   7.156  12.781   3.656
89609SOL    HW270667   7.108  12.847   3.528
89610SOL     OW70668   4.105   1.133   1.804
89610SOL    HW170669   4.130   1.204   1.744
89610SOL    HW270670   4.182   1.121   1.860
89611SOL     OW70671   7.160  12.880   1.670
89611SOL    HW170672   7.136  12.837   1.588
89611SOL    HW270673   7.253  12.901   1.660
89612SOL     OW70674   4.138   8.702   3.847
89612SOL    HW170675   4.050   8.740   3.847
89612SOL    HW270676   4.195   8.774   3.819
89613SOL     OW70677   9.232  12.827   1.387
89613SOL    HW170678   9.318  12.824   1.427
89613SOL    HW270679   9.216  12.920   1.371
89614SOL     OW70680  10.097  10.209  12.979
89614SOL    HW170681  10.135  10.135  12.932
89614SOL    HW270682  10.145  10.285  12.948
89615SOL     OW70683   8.915   5.545  14.308
89615SOL    HW170684   9.007   5.538  14.330
89615SOL    HW270685   8.870   5.493  14.375
89616SOL     OW70686   5.812  13.118   9.757
89616SOL    HW170687   5.856  13.107   9.673
89616SOL    HW270688   5.726  13.077   9.745
89617SOL     OW70689   8.088  11.999   1.026
89617SOL    HW170690   8.173  11.961   1.005
89617SOL    HW270691   8.025  11.939   0.986
89618SOL     OW70692   8.791  10.500   1.731
89618SOL    HW170693   8.880  10.531   1.711
89618SOL    HW270694   8.771  10.539   1.816
89619SOL     OW70695   5.346   1.385   3.236
89619SOL    HW170696   5.439   1.367   3.253
89619SOL    HW270697   5.330   1.470   3.278
89620SOL     OW70698   8.100   6.559   3.007
89620SOL    HW170699   8.162   6.489   2.986
89620SOL    HW270700   8.079   6.545   3.100
89621SOL     OW70701   9.184   3.975   9.192
89621SOL    HW170702   9.187   3.999   9.100
89621SOL    HW270703   9.252   4.029   9.233
89622SOL     OW70704  13.039  13.508   3.504
89622SOL    HW170705  13.113  13.503   3.565
89622SOL    HW270706  13.054  13.437   3.442
89623SOL     OW70707   8.062  11.655   2.939
89623SOL    HW170708   8.053  11.713   2.864
89623SOL    HW270709   8.156  11.650   2.955
89624SOL     OW70710  10.527   7.188   4.518
89624SOL    HW170711  10.549   7.112   4.465
89624SOL    HW270712  10.432   7.195   4.512
89625SOL     OW70713  12.313  10.175  14.756
89625SOL    HW170714  12.344  10.116  14.824
89625SOL    HW270715  12.301  10.259  14.800
89626SOL     OW70716   5.149   1.260   6.565
89626SOL    HW170717   5.098   1.181   6.582
89626SOL    HW270718   5.237   1.228   6.545
89627SOL     OW70719   5.915   7.983   2.874
89627SOL    HW170720   5.901   7.888   2.875
89627SOL    HW270721   5.968   8.000   2.952
89628SOL     OW70722   8.321  10.786   0.603
89628SOL    HW170723   8.238  10.820   0.569
89628SOL    HW270724   8.386  10.812   0.537
89629SOL     OW70725   0.827  12.279   2.883
89629SOL    HW170726   0.920  12.302   2.880
89629SOL    HW270727   0.825  12.187   2.856
89630SOL     OW70728   8.467  11.004   5.096
89630SOL    HW170729   8.562  10.993   5.102
89630SOL    HW270730   8.455  11.093   5.062
89631SOL     OW70731  10.673   0.122  11.276
89631SOL    HW170732  10.703   0.165  11.356
89631SOL    HW270733  10.578   0.134  11.277
89632SOL     OW70734   8.168   8.421   6.976
89632SOL    HW170735   8.171   8.328   6.957
89632SOL    HW270736   8.178   8.464   6.891
89633SOL     OW70737  12.899   9.959   4.022
89633SOL    HW170738  12.874  10.031   3.964
89633SOL    HW270739  12.922  10.002   4.105
89634SOL     OW70740  12.038  13.328  13.460
89634SOL    HW170741  12.066  13.239  13.481
89634SOL    HW270742  11.962  13.343  13.517
89635SOL     OW70743   6.155   8.775   7.971
89635SOL    HW170744   6.240   8.785   7.929
89635SOL    HW270745   6.140   8.859   8.015
89636SOL     OW70746   4.422   0.309   8.879
89636SOL    HW170747   4.381   0.353   8.804
89636SOL    HW270748   4.511   0.345   8.881
89637SOL     OW70749   0.899  14.118  12.966
89637SOL    HW170750   0.899  14.166  13.049
89637SOL    HW270751   0.835  14.164  12.912
89638SOL     OW70752  10.192   8.430  13.645
89638SOL    HW170753  10.283   8.416  13.670
89638SOL    HW270754  10.147   8.351  13.673
89639SOL     OW70755   6.670  10.592  10.861
89639SOL    HW170756   6.683  10.647  10.938
89639SOL    HW270757   6.697  10.505  10.889
89640SOL     OW70758   9.905   4.546   3.397
89640SOL    HW170759   9.827   4.513   3.442
89640SOL    HW270760   9.873   4.617   3.341
89641SOL     OW70761   3.756   3.239   3.376
89641SOL    HW170762   3.824   3.293   3.417
89641SOL    HW270763   3.741   3.169   3.439
89642SOL     OW70764   1.838   4.290   6.304
89642SOL    HW170765   1.759   4.237   6.313
89642SOL    HW270766   1.806   4.380   6.295
89643SOL     OW70767   8.678   3.522   3.937
89643SOL    HW170768   8.763   3.564   3.942
89643SOL    HW270769   8.634   3.565   3.863
89644SOL     OW70770   0.641   5.050   8.160
89644SOL    HW170771   0.562   5.063   8.107
89644SOL    HW270772   0.663   5.137   8.192
89645SOL     OW70773  11.313   7.895  10.131
89645SOL    HW170774  11.290   7.920  10.041
89645SOL    HW270775  11.324   7.800  10.128
89646SOL     OW70776   3.915   8.580   3.245
89646SOL    HW170777   3.908   8.622   3.159
89646SOL    HW270778   4.008   8.559   3.253
89647SOL     OW70779  11.592   7.686   6.710
89647SOL    HW170780  11.580   7.646   6.796
89647SOL    HW270781  11.621   7.775   6.729
89648SOL     OW70782   0.382   9.391   2.049
89648SOL    HW170783   0.412   9.319   2.104
89648SOL    HW270784   0.286   9.385   2.052
89649SOL     OW70785   8.715   9.422   0.921
89649SOL    HW170786   8.784   9.467   0.969
89649SOL    HW270787   8.640   9.422   0.980
89650SOL     OW70788   2.687  10.465   8.509
89650SOL    HW170789   2.645  10.400   8.565
89650SOL    HW270790   2.779  10.462   8.534
89651SOL     OW70791  11.984  10.026   4.255
89651SOL    HW170792  11.900  10.074   4.251
89651SOL    HW270793  11.962   9.942   4.296
89652SOL     OW70794  12.891  11.609   2.729
89652SOL    HW170795  12.874  11.605   2.823
89652SOL    HW270796  12.805  11.603   2.689
89653SOL     OW70797  12.866   5.237   7.386
89653SOL    HW170798  12.862   5.202   7.297
89653SOL    HW270799  12.862   5.332   7.376
89654SOL     OW70800   4.738   7.779   9.477
89654SOL    HW170801   4.747   7.865   9.518
89654SOL    HW270802   4.827   7.745   9.474
89655SOL     OW70803   1.571   8.059  13.385
89655SOL    HW170804   1.611   8.090  13.466
89655SOL    HW270805   1.506   7.994  13.413
89656SOL     OW70806  14.302   0.931   0.318
89656SOL    HW170807  14.227   0.908   0.373
89656SOL    HW270808  14.379   0.905   0.369
89657SOL     OW70809  13.044  14.700   7.048
89657SOL    HW170810  13.001  14.759   6.985
89657SOL    HW270811  12.985  14.698   7.123
89658SOL     OW70812   7.138   3.677  14.804
89658SOL    HW170813   7.103   3.610  14.745
89658SOL    HW270814   7.179   3.741  14.745
89659SOL     OW70815   8.004  10.185   9.036
89659SOL    HW170816   8.020  10.091   9.036
89659SOL    HW270817   7.947  10.200   8.961
89660SOL     OW70818   1.518   0.749   4.882
89660SOL    HW170819   1.466   0.825   4.856
89660SOL    HW270820   1.484   0.677   4.828
89661SOL     OW70821   8.858   3.198   2.217
89661SOL    HW170822   8.826   3.139   2.286
89661SOL    HW270823   8.786   3.261   2.204
89662SOL     OW70824   1.097   8.021  12.667
89662SOL    HW170825   1.081   8.101  12.717
89662SOL    HW270826   1.159   8.047  12.600
89663SOL     OW70827   6.733   3.014   6.619
89663SOL    HW170828   6.806   2.953   6.611
89663SOL    HW270829   6.678   2.996   6.542
89664SOL     OW70830   8.496   2.313   1.890
89664SOL    HW170831   8.476   2.347   1.803
89664SOL    HW270832   8.525   2.389   1.939
89665SOL     OW70833  12.923   7.539   3.974
89665SOL    HW170834  12.839   7.495   3.961
89665SOL    HW270835  12.929   7.551   4.069
89666SOL     OW70836   5.891   6.622   8.973
89666SOL    HW170837   5.928   6.686   9.033
89666SOL    HW270838   5.962   6.560   8.957
89667SOL     OW70839  11.138  14.652   2.814
89667SOL    HW170840  11.195  14.728   2.802
89667SOL    HW270841  11.177  14.584   2.758
89668SOL     OW70842  11.273   4.322   4.832
89668SOL    HW170843  11.263   4.255   4.900
89668SOL    HW270844  11.365   4.319   4.808
89669SOL     OW70845   1.789  12.427  10.334
89669SOL    HW170846   1.758  12.464  10.416
89669SOL    HW270847   1.829  12.344  10.359
89670SOL     OW70848  12.295   7.757   9.631
89670SOL    HW170849  12.224   7.765   9.694
89670SOL    HW270850  12.268   7.685   9.573
89671SOL     OW70851   2.383  14.665   7.768
89671SOL    HW170852   2.445  14.605   7.728
89671SOL    HW270853   2.368  14.631   7.856
89672SOL     OW70854   4.845  12.914   7.863
89672SOL    HW170855   4.897  12.971   7.919
89672SOL    HW270856   4.769  12.966   7.838
89673SOL     OW70857   5.763   9.547   7.061
89673SOL    HW170858   5.822   9.513   7.129
89673SOL    HW270859   5.680   9.560   7.107
89674SOL     OW70860   9.310   3.366   0.197
89674SOL    HW170861   9.383   3.305   0.193
89674SOL    HW270862   9.282   3.365   0.289
89675SOL     OW70863   2.950   7.135   5.957
89675SOL    HW170864   2.910   7.215   5.924
89675SOL    HW270865   2.879   7.089   6.002
89676SOL     OW70866   9.995   1.901   4.075
89676SOL    HW170867   9.947   1.895   3.992
89676SOL    HW270868  10.064   1.835   4.068
89677SOL     OW70869   5.931   0.961   1.724
89677SOL    HW170870   5.846   0.999   1.703
89677SOL    HW270871   5.974   1.025   1.780
89678SOL     OW70872  12.910   0.928  10.231
89678SOL    HW170873  12.949   0.846  10.201
89678SOL    HW270874  12.899   0.980  10.152
89679SOL     OW70875  14.536  12.612  14.173
89679SOL    HW170876  14.531  12.707  14.158
89679SOL    HW270877  14.463  12.593  14.231
89680SOL     OW70878   1.683   7.742  11.069
89680SOL    HW170879   1.632   7.661  11.079
89680SOL    HW270880   1.624   7.811  11.099
89681SOL     OW70881   0.951   7.301   7.625
89681SOL    HW170882   0.870   7.332   7.663
89681SOL    HW270883   0.975   7.225   7.678
89682SOL     OW70884   9.706  13.284   8.404
89682SOL    HW170885   9.681  13.195   8.429
89682SOL    HW270886   9.788  13.300   8.452
89683SOL     OW70887   9.423   9.387  10.603
89683SOL    HW170888   9.337   9.418  10.573
89683SOL    HW270889   9.403   9.329  10.677
89684SOL     OW70890   6.363  12.970  13.980
89684SOL    HW170891   6.452  13.002  13.995
89684SOL    HW270892   6.310  13.049  13.976
89685SOL     OW70893   6.754   8.813  11.853
89685SOL    HW170894   6.778   8.837  11.764
89685SOL    HW270895   6.659   8.802  11.850
89686SOL     OW70896   1.220   3.817   2.744
89686SOL    HW170897   1.207   3.823   2.650
89686SOL    HW270898   1.307   3.855   2.759
89687SOL     OW70899  11.765  13.539   2.784
89687SOL    HW170900  11.779  13.511   2.693
89687SOL    HW270901  11.713  13.618   2.777
89688SOL     OW70902   0.690   9.409  11.858
89688SOL    HW170903   0.729   9.385  11.942
89688SOL    HW270904   0.743   9.482  11.827
89689SOL     OW70905   5.235  13.962   9.645
89689SOL    HW170906   5.173  14.033   9.663
89689SOL    HW270907   5.227  13.903   9.720
89690SOL     OW70908  11.197   3.080   2.155
89690SOL    HW170909  11.213   3.153   2.095
89690SOL    HW270910  11.279   3.030   2.154
89691SOL     OW70911  10.960   7.277  13.530
89691SOL    HW170912  10.902   7.221  13.582
89691SOL    HW270913  11.023   7.217  13.492
89692SOL     OW70914  14.261  13.920   2.889
89692SOL    HW170915  14.181  13.882   2.852
89692SOL    HW270916  14.302  13.966   2.816
89693SOL     OW70917   0.268   4.954  12.926
89693SOL    HW170918   0.241   4.921  12.840
89693SOL    HW270919   0.187   4.986  12.966
89694SOL     OW70920   8.533   6.280   5.728
89694SOL    HW170921   8.627   6.263   5.734
89694SOL    HW270922   8.492   6.200   5.761
89695SOL     OW70923  10.553   6.956   4.354
89695SOL    HW170924  10.638   6.954   4.310
89695SOL    HW270925  10.492   6.984   4.286
89696SOL     OW70926   6.894   0.952  13.534
89696SOL    HW170927   6.982   0.928  13.563
89696SOL    HW270928   6.857   1.000  13.609
89697SOL     OW70929  14.033   3.786  10.735
89697SOL    HW170930  13.976   3.790  10.658
89697SOL    HW270931  14.040   3.877  10.765
89698SOL     OW70932  10.802   0.458  13.907
89698SOL    HW170933  10.866   0.514  13.865
89698SOL    HW270934  10.718   0.483  13.868
89699SOL     OW70935  11.256   3.167   4.888
89699SOL    HW170936  11.337   3.216   4.906
89699SOL    HW270937  11.274   3.079   4.922
89700SOL     OW70938  13.588   8.246   5.233
89700SOL    HW170939  13.592   8.321   5.175
89700SOL    HW270940  13.555   8.281   5.316
89701SOL     OW70941   6.149  12.261   5.637
89701SOL    HW170942   6.180  12.349   5.614
89701SOL    HW270943   6.063  12.255   5.597
89702SOL     OW70944   7.363   1.504   5.731
89702SOL    HW170945   7.350   1.549   5.814
89702SOL    HW270946   7.399   1.571   5.673
89703SOL     OW70947  14.859   9.555  10.643
89703SOL    HW170948   0.060   9.588  10.693
89703SOL    HW270949  14.858   9.608  10.563
89704SOL     OW70950   9.902   1.633   5.019
89704SOL    HW170951   9.872   1.568   4.955
89704SOL    HW270952   9.824   1.652   5.072
89705SOL     OW70953  12.483   5.597  10.986
89705SOL    HW170954  12.469   5.502  10.994
89705SOL    HW270955  12.517   5.609  10.897
89706SOL     OW70956   2.516   2.597   0.843
89706SOL    HW170957   2.590   2.548   0.806
89706SOL    HW270958   2.535   2.689   0.823
89707SOL     OW70959   5.292   1.798  11.416
89707SOL    HW170960   5.218   1.847  11.380
89707SOL    HW270961   5.251   1.730  11.470
89708SOL     OW70962   6.734   2.666  10.567
89708SOL    HW170963   6.759   2.582  10.606
89708SOL    HW270964   6.674   2.705  10.630
89709SOL     OW70965   9.722   9.920  12.853
89709SOL    HW170966   9.628   9.940  12.850
89709SOL    HW270967   9.732   9.861  12.927
89710SOL     OW70968   0.093  13.190  12.476
89710SOL    HW170969   0.154  13.251  12.519
89710SOL    HW270970   0.018  13.245  12.452
89711SOL     OW70971  11.502  13.197   3.101
89711SOL    HW170972  11.441  13.207   3.028
89711SOL    HW270973  11.536  13.108   3.092
89712SOL     OW70974   9.989   5.530   4.987
89712SOL    HW170975   9.953   5.449   4.952
89712SOL    HW270976   9.913   5.587   4.999
89713SOL     OW70977   4.101   6.131  10.320
89713SOL    HW170978   4.052   6.121  10.238
89713SOL    HW270979   4.110   6.225  10.331
89714SOL     OW70980   0.978   3.727   9.492
89714SOL    HW170981   1.030   3.713   9.572
89714SOL    HW270982   0.994   3.818   9.469
89715SOL     OW70983   2.618  11.462   9.039
89715SOL    HW170984   2.634  11.555   9.024
89715SOL    HW270985   2.705  11.422   9.038
89716SOL     OW70986  13.542   6.297   3.061
89716SOL    HW170987  13.607   6.356   3.024
89716SOL    HW270988  13.593   6.233   3.111
89717SOL     OW70989   9.079  11.524  13.651
89717SOL    HW170990   9.156  11.506  13.705
89717SOL    HW270991   9.106  11.499  13.562
89718SOL     OW70992   1.961  10.856   2.344
89718SOL    HW170993   2.034  10.824   2.292
89718SOL    HW270994   1.928  10.778   2.390
89719SOL     OW70995  13.054   2.231  12.247
89719SOL    HW170996  12.999   2.217  12.324
89719SOL    HW270997  13.106   2.309  12.269
89720SOL     OW70998  10.462   0.950   2.139
89720SOL    HW170999  10.419   1.029   2.106
89720SOL    HW271000  10.395   0.905   2.190
89721SOL     OW71001   0.446  10.932   7.994
89721SOL    HW171002   0.466  10.885   7.913
89721SOL    HW271003   0.411  10.865   8.053
89722SOL     OW71004  10.758  12.519  10.358
89722SOL    HW171005  10.731  12.435  10.396
89722SOL    HW271006  10.747  12.507  10.264
89723SOL     OW71007   7.833   5.019   1.317
89723SOL    HW171008   7.756   5.042   1.369
89723SOL    HW271009   7.896   4.984   1.381
89724SOL     OW71010  11.489   1.045   8.287
89724SOL    HW171011  11.421   1.040   8.354
89724SOL    HW271012  11.549   1.113   8.318
89725SOL     OW71013  10.042   6.059   0.059
89725SOL    HW171014  10.092   5.996   0.007
89725SOL    HW271015   9.986   6.104  14.869
89726SOL     OW71016   2.514  12.038   7.175
89726SOL    HW171017   2.597  12.056   7.130
89726SOL    HW271018   2.525  12.076   7.262
89727SOL     OW71019  12.341   0.365  12.334
89727SOL    HW171020  12.259   0.347  12.381
89727SOL    HW271021  12.327   0.451  12.294
89728SOL     OW71022   8.552   9.011  14.377
89728SOL    HW171023   8.623   9.052  14.328
89728SOL    HW271024   8.493   8.977  14.309
89729SOL     OW71025   8.892   2.102  13.036
89729SOL    HW171026   8.822   2.097  13.102
89729SOL    HW271027   8.869   2.034  12.973
89730SOL     OW71028  11.839   4.128  12.384
89730SOL    HW171029  11.892   4.168  12.453
89730SOL    HW271030  11.899   4.123  12.309
89731SOL     OW71031   2.984   9.719   4.365
89731SOL    HW171032   3.048   9.674   4.310
89731SOL    HW271033   2.985   9.670   4.448
89732SOL     OW71034  14.751   6.220   2.141
89732SOL    HW171035  14.799   6.151   2.186
89732SOL    HW271036  14.783   6.217   2.051
89733SOL     OW71037  13.559   3.146  13.814
89733SOL    HW171038  13.590   3.219  13.868
89733SOL    HW271039  13.475   3.177  13.780
89734SOL     OW71040   2.681   2.559   7.875
89734SOL    HW171041   2.599   2.553   7.827
89734SOL    HW271042   2.749   2.555   7.807
89735SOL     OW71043   5.651  10.320  12.755
89735SOL    HW171044   5.613  10.330  12.668
89735SOL    HW271045   5.706  10.397  12.767
89736SOL     OW71046   6.756   1.880  12.029
89736SOL    HW171047   6.787   1.795  11.998
89736SOL    HW271048   6.836   1.927  12.052
89737SOL     OW71049   5.423  12.087   3.451
89737SOL    HW171050   5.375  12.162   3.487
89737SOL    HW271051   5.365  12.012   3.468
89738SOL     OW71052   5.654  14.215  13.367
89738SOL    HW171053   5.573  14.248  13.327
89738SOL    HW271054   5.640  14.225  13.461
89739SOL     OW71055  10.940   5.022   9.222
89739SOL    HW171056  10.960   5.059   9.307
89739SOL    HW271057  10.874   4.955   9.239
89740SOL     OW71058   6.344   0.171  10.108
89740SOL    HW171059   6.350   0.245  10.169
89740SOL    HW271060   6.267   0.123  10.136
89741SOL     OW71061   7.163  12.361   8.767
89741SOL    HW171062   7.082  12.412   8.766
89741SOL    HW271063   7.232  12.424   8.748
89742SOL     OW71064  13.792   8.120  12.203
89742SOL    HW171065  13.804   8.214  12.191
89742SOL    HW271066  13.855   8.080  12.142
89743SOL     OW71067  10.555   5.634  14.115
89743SOL    HW171068  10.484   5.658  14.054
89743SOL    HW271069  10.605   5.568  14.068
89744SOL     OW71070  13.986   7.619  12.191
89744SOL    HW171071  14.007   7.616  12.284
89744SOL    HW271072  13.893   7.597  12.187
89745SOL     OW71073   1.819   3.669  11.182
89745SOL    HW171074   1.849   3.591  11.228
89745SOL    HW271075   1.729   3.681  11.210
89746SOL     OW71076  14.626  10.847   8.916
89746SOL    HW171077  14.648  10.916   8.853
89746SOL    HW271078  14.687  10.776   8.895
89747SOL     OW71079  13.828   2.599   7.253
89747SOL    HW171080  13.833   2.535   7.324
89747SOL    HW271081  13.907   2.584   7.201
89748SOL     OW71082   0.278   9.675   6.618
89748SOL    HW171083   0.338   9.658   6.690
89748SOL    HW271084   0.191   9.674   6.658
89749SOL     OW71085   6.091  10.974  14.584
89749SOL    HW171086   6.092  11.068  14.571
89749SOL    HW271087   6.163  10.941  14.530
89750SOL     OW71088  10.208   5.210   0.010
89750SOL    HW171089  10.177   5.269   0.079
89750SOL    HW271090  10.129   5.165  14.852
89751SOL     OW71091   5.046   3.661  14.083
89751SOL    HW171092   4.980   3.661  14.152
89751SOL    HW271093   5.001   3.697  14.006
89752SOL     OW71094   2.378   5.879  12.302
89752SOL    HW171095   2.468   5.911  12.288
89752SOL    HW271096   2.378   5.792  12.263
89753SOL     OW71097   8.216  10.248   8.726
89753SOL    HW171098   8.311  10.241   8.726
89753SOL    HW271099   8.186  10.159   8.748
89754SOL     OW71100  13.700   6.930   5.096
89754SOL    HW171101  13.785   6.936   5.138
89754SOL    HW271102  13.711   6.861   5.030
89755SOL     OW71103   3.089   5.064   2.674
89755SOL    HW171104   3.032   5.042   2.747
89755SOL    HW271105   3.163   5.110   2.715
89756SOL     OW71106  14.317   9.140  10.386
89756SOL    HW171107  14.238   9.095  10.412
89756SOL    HW271108  14.336   9.108  10.298
89757SOL     OW71109   3.113   9.164  13.904
89757SOL    HW171110   3.159   9.084  13.928
89757SOL    HW271111   3.020   9.143  13.916
89758SOL     OW71112   7.638  14.668   3.911
89758SOL    HW171113   7.657  14.581   3.877
89758SOL    HW271114   7.558  14.695   3.865
89759SOL     OW71115  12.033   2.265  11.267
89759SOL    HW171116  11.986   2.308  11.196
89759SOL    HW271117  12.013   2.172  11.256
89760SOL     OW71118  12.757  14.816   4.440
89760SOL    HW171119  12.829  14.756   4.421
89760SOL    HW271120  12.684  14.760   4.463
89761SOL     OW71121   0.273   0.600  11.089
89761SOL    HW171122   0.253   0.563  11.175
89761SOL    HW271123   0.365   0.576  11.074
89762SOL     OW71124   8.763  10.259   4.535
89762SOL    HW171125   8.856  10.244   4.555
89762SOL    HW271126   8.721  10.176   4.559
89763SOL     OW71127   4.931  14.206   1.560
89763SOL    HW171128   4.955  14.203   1.652
89763SOL    HW271129   4.956  14.121   1.524
89764SOL     OW71130   8.562   0.876  12.739
89764SOL    HW171131   8.478   0.873  12.784
89764SOL    HW271132   8.620   0.823  12.792
89765SOL     OW71133  12.483  13.040  12.444
89765SOL    HW171134  12.388  13.041  12.455
89765SOL    HW271135  12.498  13.070  12.355
89766SOL     OW71136   1.780   0.477  11.620
89766SOL    HW171137   1.702   0.422  11.630
89766SOL    HW271138   1.817   0.483  11.708
89767SOL     OW71139   5.395   9.662   3.170
89767SOL    HW171140   5.372   9.704   3.087
89767SOL    HW271141   5.489   9.645   3.162
89768SOL     OW71142   2.196   9.913   7.194
89768SOL    HW171143   2.156   9.994   7.164
89768SOL    HW271144   2.270   9.899   7.135
89769SOL     OW71145   4.895  12.322  10.750
89769SOL    HW171146   4.806  12.327  10.715
89769SOL    HW271147   4.884  12.284  10.837
89770SOL     OW71148   2.508  14.688   7.418
89770SOL    HW171149   2.531  14.749   7.488
89770SOL    HW271150   2.438  14.732   7.370
89771SOL     OW71151  10.073  14.015   2.825
89771SOL    HW171152  10.006  13.994   2.760
89771SOL    HW271153  10.092  13.932   2.868
89772SOL     OW71154   5.898   8.190   7.856
89772SOL    HW171155   5.837   8.172   7.927
89772SOL    HW271156   5.850   8.166   7.777
89773SOL     OW71157   3.706   7.713   0.797
89773SOL    HW171158   3.797   7.725   0.770
89773SOL    HW271159   3.701   7.753   0.884
89774SOL     OW71160   5.488  12.289   2.457
89774SOL    HW171161   5.525  12.202   2.441
89774SOL    HW271162   5.396  12.272   2.477
89775SOL     OW71163   8.620  14.046   8.943
89775SOL    HW171164   8.548  14.090   8.899
89775SOL    HW271165   8.650  13.979   8.880
89776SOL     OW71166   0.007   7.714   7.767
89776SOL    HW171167  14.841   7.787   7.816
89776SOL    HW271168  14.847   7.724   7.678
89777SOL     OW71169   3.839   8.172  11.535
89777SOL    HW171170   3.814   8.156  11.444
89777SOL    HW271171   3.840   8.268  11.543
89778SOL     OW71172   5.610   9.413   4.812
89778SOL    HW171173   5.688   9.413   4.757
89778SOL    HW271174   5.618   9.334   4.865
89779SOL     OW71175  11.034   0.544   6.232
89779SOL    HW171176  11.053   0.638   6.225
89779SOL    HW271177  11.119   0.503   6.241
89780SOL     OW71178  10.655  13.393   6.239
89780SOL    HW171179  10.620  13.420   6.155
89780SOL    HW271180  10.750  13.389   6.225
89781SOL     OW71181   9.075   5.546  13.569
89781SOL    HW171182   9.027   5.465  13.549
89781SOL    HW271183   9.156   5.516  13.611
89782SOL     OW71184   5.456   7.500   8.189
89782SOL    HW171185   5.543   7.483   8.154
89782SOL    HW271186   5.471   7.533   8.277
89783SOL     OW71187   2.335   8.403   1.234
89783SOL    HW171188   2.252   8.423   1.192
89783SOL    HW271189   2.331   8.309   1.252
89784SOL     OW71190  10.127   3.611   2.649
89784SOL    HW171191  10.115   3.661   2.569
89784SOL    HW271192  10.214   3.636   2.681
89785SOL     OW71193   0.770   5.533  14.083
89785SOL    HW171194   0.853   5.487  14.099
89785SOL    HW271195   0.709   5.494  14.146
89786SOL     OW71196   3.428   0.912   3.598
89786SOL    HW171197   3.370   0.841   3.570
89786SOL    HW271198   3.485   0.871   3.663
89787SOL     OW71199   0.203  12.433  10.044
89787SOL    HW171200   0.283  12.410  10.091
89787SOL    HW271201   0.136  12.442  10.112
89788SOL     OW71202   1.008  10.528   4.533
89788SOL    HW171203   1.052  10.613   4.539
89788SOL    HW271204   0.953  10.534   4.455
89789SOL     OW71205  11.277   6.265  14.188
89789SOL    HW171206  11.263   6.174  14.212
89789SOL    HW271207  11.265   6.267  14.093
89790SOL     OW71208  13.332   1.613   1.859
89790SOL    HW171209  13.425   1.592   1.852
89790SOL    HW271210  13.294   1.539   1.905
89791SOL     OW71211  12.028   8.768   0.508
89791SOL    HW171212  12.092   8.710   0.550
89791SOL    HW271213  12.081   8.839   0.471
89792SOL     OW71214  13.765  14.417  13.250
89792SOL    HW171215  13.755  14.408  13.156
89792SOL    HW271216  13.804  14.505  13.261
89793SOL     OW71217  11.214   0.155   3.710
89793SOL    HW171218  11.191   0.214   3.781
89793SOL    HW271219  11.133   0.108   3.689
89794SOL     OW71220   4.666   3.831   8.485
89794SOL    HW171221   4.755   3.833   8.521
89794SOL    HW271222   4.663   3.750   8.434
89795SOL     OW71223   6.455  12.616   2.230
89795SOL    HW171224   6.420  12.664   2.155
89795SOL    HW271225   6.384  12.613   2.293
89796SOL     OW71226  12.460   3.535   3.647
89796SOL    HW171227  12.378   3.566   3.687
89796SOL    HW271228  12.482   3.456   3.696
89797SOL     OW71229   3.744   1.801   0.444
89797SOL    HW171230   3.788   1.854   0.510
89797SOL    HW271231   3.810   1.788   0.376
89798SOL     OW71232   4.388   4.936   8.304
89798SOL    HW171233   4.366   4.848   8.335
89798SOL    HW271234   4.324   4.993   8.346
89799SOL     OW71235   8.424   3.308  14.865
89799SOL    HW171236   8.515   3.279  14.857
89799SOL    HW271237   8.377   3.261  14.796
89800SOL     OW71238   3.844   9.812   6.637
89800SOL    HW171239   3.754   9.803   6.607
89800SOL    HW271240   3.837   9.831   6.731
89801SOL     OW71241   1.565   3.927  13.495
89801SOL    HW171242   1.595   3.896  13.581
89801SOL    HW271243   1.472   3.907  13.493
89802SOL     OW71244   4.805   7.500   7.114
89802SOL    HW171245   4.861   7.503   7.192
89802SOL    HW271246   4.865   7.483   7.042
89803SOL     OW71247  10.909  12.898  13.109
89803SOL    HW171248  10.870  12.826  13.060
89803SOL    HW271249  10.960  12.946  13.044
89804SOL     OW71250   8.953  13.886   7.424
89804SOL    HW171251   9.026  13.843   7.380
89804SOL    HW271252   8.994  13.955   7.476
89805SOL     OW71253  13.197   3.309   1.625
89805SOL    HW171254  13.137   3.243   1.588
89805SOL    HW271255  13.173   3.390   1.580
89806SOL     OW71256   2.319  12.283  13.861
89806SOL    HW171257   2.352  12.267  13.949
89806SOL    HW271258   2.248  12.347  13.873
89807SOL     OW71259   0.911   5.277  11.162
89807SOL    HW171260   0.932   5.249  11.251
89807SOL    HW271261   0.995   5.303  11.124
89808SOL     OW71262   3.909  10.960  11.895
89808SOL    HW171263   3.848  10.891  11.918
89808SOL    HW271264   3.876  11.038  11.941
89809SOL     OW71265   6.461   0.053   4.604
89809SOL    HW171266   6.543   0.099   4.620
89809SOL    HW271267   6.465   0.027   4.512
89810SOL     OW71268   2.825   6.759  14.585
89810SOL    HW171269   2.849   6.794  14.671
89810SOL    HW271270   2.827   6.664  14.596
89811SOL     OW71271   2.647  12.829   6.905
89811SOL    HW171272   2.615  12.739   6.911
89811SOL    HW271273   2.741  12.822   6.922
89812SOL     OW71274  14.480   7.424   1.128
89812SOL    HW171275  14.435   7.482   1.189
89812SOL    HW271276  14.565   7.466   1.113
89813SOL     OW71277  12.669   8.139   3.435
89813SOL    HW171278  12.606   8.109   3.501
89813SOL    HW271279  12.684   8.231   3.456
89814SOL     OW71280   7.751  12.866   8.735
89814SOL    HW171281   7.714  12.791   8.689
89814SOL    HW271282   7.701  12.941   8.704
89815SOL     OW71283   5.021   6.835   8.220
89815SOL    HW171284   5.031   6.920   8.176
89815SOL    HW271285   5.032   6.856   8.313
89816SOL     OW71286   4.036   1.552   2.296
89816SOL    HW171287   4.121   1.595   2.305
89816SOL    HW271288   4.036   1.515   2.208
89817SOL     OW71289  10.796   2.314   1.989
89817SOL    HW171290  10.740   2.239   1.973
89817SOL    HW271291  10.865   2.308   1.922
89818SOL     OW71292  12.628   7.759   6.134
89818SOL    HW171293  12.714   7.721   6.155
89818SOL    HW271294  12.645   7.853   6.126
89819SOL     OW71295   2.418   4.097   6.266
89819SOL    HW171296   2.481   4.049   6.319
89819SOL    HW271297   2.370   4.151   6.329
89820SOL     OW71298  13.734   8.037   3.940
89820SOL    HW171299  13.640   8.019   3.943
89820SOL    HW271300  13.756   8.034   3.847
89821SOL     OW71301   1.718   1.114   3.779
89821SOL    HW171302   1.627   1.098   3.802
89821SOL    HW271303   1.767   1.095   3.858
89822SOL     OW71304   0.832   2.450   6.406
89822SOL    HW171305   0.822   2.355   6.409
89822SOL    HW271306   0.820   2.479   6.496
89823SOL     OW71307   3.852  12.393   1.250
89823SOL    HW171308   3.858  12.413   1.343
89823SOL    HW271309   3.770  12.346   1.240
89824SOL     OW71310   2.132   1.563   4.196
89824SOL    HW171311   2.207   1.586   4.140
89824SOL    HW271312   2.103   1.647   4.233
89825SOL     OW71313  14.652   5.735   4.420
89825SOL    HW171314  14.663   5.641   4.408
89825SOL    HW271315  14.737   5.766   4.451
89826SOL     OW71316   9.938   4.345   5.650
89826SOL    HW171317   9.875   4.392   5.595
89826SOL    HW271318  10.008   4.408   5.666
89827SOL     OW71319  12.158   2.451  11.938
89827SOL    HW171320  12.080   2.397  11.935
89827SOL    HW271321  12.175   2.474  11.847
89828SOL     OW71322   6.417   6.966   1.224
89828SOL    HW171323   6.417   6.891   1.164
89828SOL    HW271324   6.351   7.025   1.189
89829SOL     OW71325   4.127   9.703  10.376
89829SOL    HW171326   4.036   9.708  10.347
89829SOL    HW271327   4.125   9.727  10.468
89830SOL     OW71328   1.929   5.251   4.534
89830SOL    HW171329   1.850   5.274   4.584
89830SOL    HW271330   1.900   5.245   4.443
89831SOL     OW71331   5.512  11.112  11.745
89831SOL    HW171332   5.550  11.173  11.808
89831SOL    HW271333   5.585  11.056  11.720
89832SOL     OW71334   1.056   1.058   2.037
89832SOL    HW171335   1.133   1.015   1.999
89832SOL    HW271336   1.047   1.017   2.123
89833SOL     OW71337   4.034   2.369  11.619
89833SOL    HW171338   4.017   2.446  11.564
89833SOL    HW271339   4.126   2.378  11.645
89834SOL     OW71340   2.189  12.150   8.717
89834SOL    HW171341   2.221  12.149   8.807
89834SOL    HW271342   2.112  12.094   8.718
89835SOL     OW71343   1.384   6.551   3.504
89835SOL    HW171344   1.463   6.500   3.521
89835SOL    HW271345   1.371   6.602   3.584
89836SOL     OW71346  10.915  12.477  10.750
89836SOL    HW171347  10.867  12.559  10.751
89836SOL    HW271348  10.961  12.477  10.666
89837SOL     OW71349   1.342   0.490   2.801
89837SOL    HW171350   1.403   0.464   2.870
89837SOL    HW271351   1.273   0.538   2.848
89838SOL     OW71352   5.690   6.371   8.739
89838SOL    HW171353   5.691   6.453   8.788
89838SOL    HW271354   5.610   6.375   8.686
89839SOL     OW71355   9.848   0.564   0.548
89839SOL    HW171356   9.895   0.488   0.513
89839SOL    HW271357   9.892   0.584   0.630
89840SOL     OW71358   5.890   8.293   6.629
89840SOL    HW171359   5.946   8.345   6.572
89840SOL    HW271360   5.897   8.204   6.595
89841SOL     OW71361   4.581   3.792  11.444
89841SOL    HW171362   4.662   3.802  11.395
89841SOL    HW271363   4.607   3.753  11.527
89842SOL     OW71364   0.720   8.869  13.119
89842SOL    HW171365   0.695   8.837  13.206
89842SOL    HW271366   0.657   8.938  13.099
89843SOL     OW71367  11.312   5.609   3.260
89843SOL    HW171368  11.232   5.646   3.222
89843SOL    HW271369  11.323   5.525   3.215
89844SOL     OW71370  10.905   6.926  10.583
89844SOL    HW171371  10.909   7.018  10.610
89844SOL    HW271372  10.894   6.929  10.488
89845SOL     OW71373  14.830   8.265  14.399
89845SOL    HW171374  14.737   8.284  14.399
89845SOL    HW271375  14.860   8.288  14.311
89846SOL     OW71376   9.089  11.694   5.023
89846SOL    HW171377   9.100  11.722   5.114
89846SOL    HW271378   9.087  11.775   4.973
89847SOL     OW71379  12.932   7.256   6.709
89847SOL    HW171380  12.867   7.299   6.654
89847SOL    HW271381  12.886   7.182   6.748
89848SOL     OW71382  13.618   5.534   4.967
89848SOL    HW171383  13.688   5.474   4.992
89848SOL    HW271384  13.659   5.593   4.903
89849SOL     OW71385  14.411  10.677   3.608
89849SOL    HW171386  14.362  10.711   3.683
89849SOL    HW271387  14.433  10.587   3.633
89850SOL     OW71388  13.444  13.511   3.548
89850SOL    HW171389  13.403  13.467   3.474
89850SOL    HW271390  13.466  13.598   3.516
89851SOL     OW71391   4.455   0.761  14.140
89851SOL    HW171392   4.432   0.697  14.208
89851SOL    HW271393   4.400   0.836  14.158
89852SOL     OW71394   6.271  11.508  11.074
89852SOL    HW171395   6.228  11.555  11.003
89852SOL    HW271396   6.224  11.534  11.153
89853SOL     OW71397  11.650  13.255  14.587
89853SOL    HW171398  11.693  13.196  14.525
89853SOL    HW271399  11.627  13.199  14.661
89854SOL     OW71400   3.333   5.744  12.420
89854SOL    HW171401   3.409   5.790  12.456
89854SOL    HW271402   3.342   5.654  12.451
89855SOL     OW71403   0.382   3.523   1.564
89855SOL    HW171404   0.347   3.516   1.653
89855SOL    HW271405   0.320   3.474   1.510
89856SOL     OW71406   4.978   0.502   4.718
89856SOL    HW171407   5.049   0.494   4.654
89856SOL    HW271408   4.907   0.545   4.669
89857SOL     OW71409   5.742   6.314  10.545
89857SOL    HW171410   5.646   6.317  10.536
89857SOL    HW271411   5.768   6.237  10.496
89858SOL     OW71412  12.909   0.263   0.860
89858SOL    HW171413  12.921   0.357   0.849
89858SOL    HW271414  12.989   0.225   0.823
89859SOL     OW71415  14.163  11.465   3.996
89859SOL    HW171416  14.095  11.448   4.062
89859SOL    HW271417  14.183  11.558   4.007
89860SOL     OW71418   2.440   0.614  14.507
89860SOL    HW171419   2.366   0.669  14.482
89860SOL    HW271420   2.456   0.635  14.599
89861SOL     OW71421  12.922   9.731  13.146
89861SOL    HW171422  12.985   9.715  13.075
89861SOL    HW271423  12.862   9.656  13.142
89862SOL     OW71424  12.618   8.449   4.061
89862SOL    HW171425  12.567   8.373   4.034
89862SOL    HW271426  12.598   8.516   3.995
89863SOL     OW71427   9.598   9.312   5.028
89863SOL    HW171428   9.620   9.388   5.081
89863SOL    HW271429   9.668   9.307   4.963
89864SOL     OW71430   4.039   5.954  13.180
89864SOL    HW171431   3.984   5.934  13.255
89864SOL    HW271432   3.979   5.985  13.113
89865SOL     OW71433   4.661   8.345   6.093
89865SOL    HW171434   4.683   8.352   6.000
89865SOL    HW271435   4.697   8.425   6.133
89866SOL     OW71436   4.555   0.496   3.762
89866SOL    HW171437   4.586   0.541   3.840
89866SOL    HW271438   4.463   0.476   3.782
89867SOL     OW71439   2.393   1.204   1.951
89867SOL    HW171440   2.483   1.176   1.970
89867SOL    HW271441   2.381   1.182   1.858
89868SOL     OW71442   8.382  10.087   5.392
89868SOL    HW171443   8.328  10.125   5.461
89868SOL    HW271444   8.411  10.161   5.340
89869SOL     OW71445   5.795   8.204  11.152
89869SOL    HW171446   5.813   8.138  11.219
89869SOL    HW271447   5.850   8.279  11.176
89870SOL     OW71448   9.884  11.469   4.843
89870SOL    HW171449   9.841  11.398   4.890
89870SOL    HW271450   9.953  11.498   4.903
89871SOL     OW71451   3.100   5.111   3.380
89871SOL    HW171452   3.056   5.193   3.358
89871SOL    HW271453   3.029   5.047   3.389
89872SOL     OW71454  11.419   1.195   2.901
89872SOL    HW171455  11.382   1.107   2.895
89872SOL    HW271456  11.401   1.235   2.816
89873SOL     OW71457   1.564  11.795  11.659
89873SOL    HW171458   1.535  11.884  11.638
89873SOL    HW271459   1.535  11.742  11.585
89874SOL     OW71460   6.588  13.155   7.871
89874SOL    HW171461   6.672  13.160   7.918
89874SOL    HW271462   6.611  13.171   7.780
89875SOL     OW71463   7.636  14.453   6.608
89875SOL    HW171464   7.707  14.477   6.549
89875SOL    HW271465   7.557  14.487   6.565
89876SOL     OW71466   7.601   4.166   9.028
89876SOL    HW171467   7.571   4.252   8.998
89876SOL    HW271468   7.688   4.156   8.988
89877SOL     OW71469   4.459   8.343   3.450
89877SOL    HW171470   4.462   8.412   3.384
89877SOL    HW271471   4.497   8.383   3.528
89878SOL     OW71472   1.800  13.854   1.222
89878SOL    HW171473   1.707  13.834   1.210
89878SOL    HW271474   1.832  13.786   1.281
89879SOL     OW71475  12.928  13.575   4.600
89879SOL    HW171476  12.988  13.599   4.530
89879SOL    HW271477  12.888  13.658   4.627
89880SOL     OW71478  13.928   6.997   5.543
89880SOL    HW171479  13.862   6.972   5.608
89880SOL    HW271480  13.912   7.090   5.527
89881SOL     OW71481  10.184   8.947  10.627
89881SOL    HW171482  10.229   9.028  10.654
89881SOL    HW271483  10.248   8.878  10.643
89882SOL     OW71484   8.514   3.284   0.303
89882SOL    HW171485   8.597   3.272   0.350
89882SOL    HW271486   8.529   3.359   0.246
89883SOL     OW71487   7.353   1.153   0.344
89883SOL    HW171488   7.296   1.088   0.385
89883SOL    HW271489   7.419   1.172   0.411
89884SOL     OW71490   9.467   4.088  13.145
89884SOL    HW171491   9.445   4.006  13.101
89884SOL    HW271492   9.431   4.079  13.233
89885SOL     OW71493   5.848   3.042   7.177
89885SOL    HW171494   5.854   3.137   7.177
89885SOL    HW271495   5.820   3.019   7.088
89886SOL     OW71496   7.411   5.704  12.481
89886SOL    HW171497   7.447   5.673  12.398
89886SOL    HW271498   7.477   5.678  12.546
89887SOL     OW71499   2.017   2.204   8.223
89887SOL    HW171500   1.950   2.201   8.155
89887SOL    HW271501   2.091   2.157   8.185
89888SOL     OW71502   4.740   6.792   8.231
89888SOL    HW171503   4.817   6.841   8.202
89888SOL    HW271504   4.767   6.754   8.315
89889SOL     OW71505   6.579   9.804   9.179
89889SOL    HW171506   6.519   9.734   9.203
89889SOL    HW271507   6.529   9.858   9.118
89890SOL     OW71508   0.552   9.161   4.274
89890SOL    HW171509   0.517   9.249   4.293
89890SOL    HW271510   0.628   9.153   4.330
89891SOL     OW71511  13.367   5.934  14.192
89891SOL    HW171512  13.395   6.025  14.198
89891SOL    HW271513  13.399   5.894  14.273
89892SOL     OW71514  13.835   8.471   3.653
89892SOL    HW171515  13.855   8.378   3.645
89892SOL    HW271516  13.885   8.500   3.729
89893SOL     OW71517  12.381  10.632   1.014
89893SOL    HW171518  12.415  10.588   1.091
89893SOL    HW271519  12.286  10.637   1.029
89894SOL     OW71520   5.585  11.094  13.013
89894SOL    HW171521   5.557  11.144  13.089
89894SOL    HW271522   5.603  11.006  13.046
89895SOL     OW71523   4.321   4.026  11.298
89895SOL    HW171524   4.364   4.093  11.353
89895SOL    HW271525   4.319   3.948  11.353
89896SOL     OW71526   8.778   8.937   4.804
89896SOL    HW171527   8.864   8.976   4.787
89896SOL    HW271528   8.735   8.998   4.863
89897SOL     OW71529   3.519   9.900  14.598
89897SOL    HW171530   3.526   9.973  14.660
89897SOL    HW271531   3.608   9.887  14.567
89898SOL     OW71532   3.974   2.852   4.865
89898SOL    HW171533   4.047   2.868   4.924
89898SOL    HW271534   3.965   2.757   4.864
89899SOL     OW71535   5.688  10.676   8.333
89899SOL    HW171536   5.649  10.757   8.368
89899SOL    HW271537   5.713  10.627   8.411
89900SOL     OW71538  10.647   0.187  12.002
89900SOL    HW171539  10.676   0.278  12.002
89900SOL    HW271540  10.568   0.187  11.948
89901SOL     OW71541  11.728  11.996   0.147
89901SOL    HW171542  11.633  11.999   0.157
89901SOL    HW271543  11.754  12.087   0.137
89902SOL     OW71544   2.302   4.083  13.444
89902SOL    HW171545   2.227   4.024  13.441
89902SOL    HW271546   2.299   4.129  13.361
89903SOL     OW71547  14.515   6.072  12.461
89903SOL    HW171548  14.542   6.146  12.516
89903SOL    HW271549  14.594   6.046  12.415
89904SOL     OW71550  12.297   2.118   8.756
89904SOL    HW171551  12.231   2.169   8.711
89904SOL    HW271552  12.251   2.080   8.832
89905SOL     OW71553   8.511   1.446  14.705
89905SOL    HW171554   8.451   1.379  14.737
89905SOL    HW271555   8.456   1.507  14.655
89906SOL     OW71556   5.523   6.259  11.449
89906SOL    HW171557   5.609   6.291  11.475
89906SOL    HW271558   5.542   6.191  11.384
89907SOL     OW71559   0.098   8.166   7.905
89907SOL    HW171560   0.159   8.216   7.851
89907SOL    HW271561   0.131   8.177   7.994
89908SOL     OW71562  13.392  14.087   8.834
89908SOL    HW171563  13.477  14.052   8.807
89908SOL    HW271564  13.413  14.162   8.890
89909SOL     OW71565   1.626   5.052   0.056
89909SOL    HW171566   1.635   5.108   0.133
89909SOL    HW271567   1.628   4.963   0.091
89910SOL     OW71568  13.183   5.503   2.488
89910SOL    HW171569  13.185   5.440   2.561
89910SOL    HW271570  13.121   5.465   2.426
89911SOL     OW71571   0.974  13.371   3.096
89911SOL    HW171572   1.018  13.355   3.180
89911SOL    HW271573   0.888  13.404   3.121
89912SOL     OW71574   6.729  11.051  14.149
89912SOL    HW171575   6.713  11.055  14.055
89912SOL    HW271576   6.824  11.053  14.158
89913SOL     OW71577   4.046  12.066   0.182
89913SOL    HW171578   4.126  12.091   0.136
89913SOL    HW271579   3.977  12.117   0.139
89914SOL     OW71580  13.932   8.298   7.348
89914SOL    HW171581  13.975   8.220   7.383
89914SOL    HW271582  13.839   8.276   7.349
89915SOL     OW71583   8.727   1.524  12.720
89915SOL    HW171584   8.749   1.513  12.813
89915SOL    HW271585   8.735   1.618  12.705
89916SOL     OW71586   0.257   6.446   5.461
89916SOL    HW171587   0.194   6.376   5.443
89916SOL    HW271588   0.280   6.434   5.553
89917SOL     OW71589  13.396  13.455   3.276
89917SOL    HW171590  13.439  13.450   3.191
89917SOL    HW271591  13.308  13.421   3.261
89918SOL     OW71592   7.021   6.147  14.869
89918SOL    HW171593   7.082   6.086  14.828
89918SOL    HW271594   7.072   6.227   0.010
89919SOL     OW71595   3.767   0.149  10.605
89919SOL    HW171596   3.849   0.100  10.605
89919SOL    HW271597   3.725   0.127  10.689
89920SOL     OW71598   7.818   1.691   6.109
89920SOL    HW171599   7.733   1.648   6.108
89920SOL    HW271600   7.850   1.680   6.199
89921SOL     OW71601  11.721   7.159   2.723
89921SOL    HW171602  11.742   7.117   2.806
89921SOL    HW271603  11.778   7.116   2.659
89922SOL     OW71604   3.025   4.119  14.128
89922SOL    HW171605   3.024   4.071  14.045
89922SOL    HW271606   2.934   4.118  14.157
89923SOL     OW71607   3.606  14.121  10.085
89923SOL    HW171608   3.535  14.113  10.149
89923SOL    HW271609   3.671  14.057  10.113
89924SOL     OW71610   2.076   3.121  14.394
89924SOL    HW171611   2.168   3.103  14.410
89924SOL    HW271612   2.031   3.082  14.469
89925SOL     OW71613   5.160   3.287   6.412
89925SOL    HW171614   5.168   3.348   6.340
89925SOL    HW271615   5.178   3.201   6.373
89926SOL     OW71616   2.530  12.132  14.435
89926SOL    HW171617   2.468  12.081  14.383
89926SOL    HW271618   2.615  12.114  14.395
89927SOL     OW71619  14.449  11.862   5.472
89927SOL    HW171620  14.492  11.894   5.392
89927SOL    HW271621  14.362  11.836   5.443
89928SOL     OW71622   4.610   9.850   4.867
89928SOL    HW171623   4.683   9.796   4.896
89928SOL    HW271624   4.568   9.879   4.947
89929SOL     OW71625   2.966  12.870   3.792
89929SOL    HW171626   2.985  12.798   3.852
89929SOL    HW271627   2.965  12.948   3.848
89930SOL     OW71628   8.954  13.216  10.403
89930SOL    HW171629   8.968  13.194  10.311
89930SOL    HW271630   8.863  13.191  10.420
89931SOL     OW71631   4.417   8.141   8.965
89931SOL    HW171632   4.482   8.084   9.006
89931SOL    HW271633   4.348   8.082   8.936
89932SOL     OW71634  12.471   6.163  12.228
89932SOL    HW171635  12.561   6.193  12.244
89932SOL    HW271636  12.420   6.243  12.218
89933SOL     OW71637  10.056  14.769  14.307
89933SOL    HW171638  10.008  14.770  14.224
89933SOL    HW271639  10.064  14.676  14.329
89934SOL     OW71640   8.563   2.434   0.963
89934SOL    HW171641   8.568   2.527   0.984
89934SOL    HW271642   8.469   2.415   0.960
89935SOL     OW71643   8.735  14.498  10.325
89935SOL    HW171644   8.697  14.411  10.318
89935SOL    HW271645   8.830  14.482  10.330
89936SOL     OW71646   0.228  11.770   6.541
89936SOL    HW171647   0.320  11.753   6.520
89936SOL    HW271648   0.220  11.751   6.634
89937SOL     OW71649   5.290   7.085   2.601
89937SOL    HW171650   5.201   7.060   2.573
89937SOL    HW271651   5.304   7.172   2.562
89938SOL     OW71652   7.851   0.127  12.966
89938SOL    HW171653   7.860   0.058  13.033
89938SOL    HW271654   7.881   0.085  12.885
89939SOL     OW71655   1.569   6.982  13.837
89939SOL    HW171656   1.474   6.980  13.826
89939SOL    HW271657   1.584   7.034  13.916
89940SOL     OW71658   0.667   9.847   6.588
89940SOL    HW171659   0.572   9.855   6.581
89940SOL    HW271660   0.683   9.753   6.582
89941SOL     OW71661   4.126   8.629   7.231
89941SOL    HW171662   4.138   8.653   7.139
89941SOL    HW271663   4.060   8.691   7.263
89942SOL     OW71664   4.240   1.759  14.576
89942SOL    HW171665   4.277   1.733  14.661
89942SOL    HW271666   4.297   1.719  14.511
89943SOL     OW71667  14.731  13.462  11.771
89943SOL    HW171668  14.701  13.504  11.690
89943SOL    HW271669  14.719  13.368  11.754
89944SOL     OW71670   5.787  13.069  11.097
89944SOL    HW171671   5.754  12.989  11.056
89944SOL    HW271672   5.716  13.132  11.088
89945SOL     OW71673   3.016   3.276  11.074
89945SOL    HW171674   3.061   3.330  11.009
89945SOL    HW271675   3.071   3.280  11.152
89946SOL     OW71676   0.918   4.823  13.148
89946SOL    HW171677   0.906   4.892  13.082
89946SOL    HW271678   0.983   4.764  13.110
89947SOL     OW71679   1.213   9.350  13.029
89947SOL    HW171680   1.232   9.401  12.950
89947SOL    HW271681   1.257   9.397  13.100
89948SOL     OW71682  13.321  11.337  12.315
89948SOL    HW171683  13.350  11.417  12.272
89948SOL    HW271684  13.231  11.355  12.342
89949SOL     OW71685  10.018   2.466  11.939
89949SOL    HW171686   9.996   2.521  11.863
89949SOL    HW271687   9.933   2.440  11.975
89950SOL     OW71688  13.024  12.476  11.008
89950SOL    HW171689  13.062  12.396  11.045
89950SOL    HW271690  12.957  12.502  11.071
89951SOL     OW71691  10.251   2.817   9.152
89951SOL    HW171692  10.295   2.732   9.154
89951SOL    HW271693  10.313   2.876   9.110
89952SOL     OW71694   6.829   7.101   8.024
89952SOL    HW171695   6.755   7.162   8.028
89952SOL    HW271696   6.897   7.147   7.976
89953SOL     OW71697   4.552   6.734   5.194
89953SOL    HW171698   4.626   6.751   5.136
89953SOL    HW271699   4.589   6.684   5.267
89954SOL     OW71700  10.570   2.740  12.418
89954SOL    HW171701  10.555   2.742  12.324
89954SOL    HW271702  10.507   2.804  12.453
89955SOL     OW71703   5.921   1.385  12.663
89955SOL    HW171704   5.920   1.480  12.672
89955SOL    HW271705   5.998   1.357  12.713
89956SOL     OW71706   3.897  13.644  12.116
89956SOL    HW171707   3.801  13.643  12.121
89956SOL    HW271708   3.925  13.621  12.205
89957SOL     OW71709   6.564  13.861   7.461
89957SOL    HW171710   6.598  13.854   7.372
89957SOL    HW271711   6.597  13.784   7.506
89958SOL     OW71712   6.776   9.751  13.238
89958SOL    HW171713   6.685   9.734  13.213
89958SOL    HW271714   6.770   9.808  13.314
89959SOL     OW71715   7.252   6.914   6.007
89959SOL    HW171716   7.275   6.904   5.914
89959SOL    HW271717   7.285   7.000   6.031
89960SOL     OW71718   7.156   4.781   2.099
89960SOL    HW171719   7.076   4.742   2.134
89960SOL    HW271720   7.225   4.720   2.124
89961SOL     OW71721   1.189   7.522   8.197
89961SOL    HW171722   1.127   7.511   8.125
89961SOL    HW271723   1.217   7.613   8.191
89962SOL     OW71724   7.874  13.439   3.859
89962SOL    HW171725   7.920  13.358   3.885
89962SOL    HW271726   7.846  13.477   3.942
89963SOL     OW71727   5.308   6.624  14.217
89963SOL    HW171728   5.392   6.601  14.176
89963SOL    HW271729   5.244   6.566  14.176
89964SOL     OW71730   0.610   0.650   2.651
89964SOL    HW171731   0.667   0.725   2.667
89964SOL    HW271732   0.529   0.689   2.619
89965SOL     OW71733  10.657   4.104   1.098
89965SOL    HW171734  10.696   4.018   1.080
89965SOL    HW271735  10.713   4.166   1.051
89966SOL     OW71736   3.810   5.861   5.685
89966SOL    HW171737   3.721   5.835   5.661
89966SOL    HW271738   3.840   5.792   5.744
89967SOL     OW71739  13.053   1.148   2.722
89967SOL    HW171740  12.993   1.145   2.648
89967SOL    HW271741  13.118   1.081   2.703
89968SOL     OW71742   0.099  14.381  11.237
89968SOL    HW171743   0.119  14.391  11.330
89968SOL    HW271744   0.134  14.460  11.195
89969SOL     OW71745   2.125  12.203  14.266
89969SOL    HW171746   2.061  12.162  14.207
89969SOL    HW271747   2.084  12.286  14.291
89970SOL     OW71748  12.317   0.569   5.015
89970SOL    HW171749  12.412   0.581   5.006
89970SOL    HW271750  12.308   0.496   5.077
89971SOL     OW71751  12.283   4.493   1.782
89971SOL    HW171752  12.327   4.484   1.866
89971SOL    HW271753  12.235   4.411   1.771
89972SOL     OW71754  14.489  13.529   6.655
89972SOL    HW171755  14.583  13.523   6.637
89972SOL    HW271756  14.452  13.564   6.574
89973SOL     OW71757   8.650   5.502  13.078
89973SOL    HW171758   8.566   5.465  13.049
89973SOL    HW271759   8.636   5.596  13.074
89974SOL     OW71760   7.202   8.761  14.383
89974SOL    HW171761   7.171   8.813  14.457
89974SOL    HW271762   7.148   8.788  14.309
89975SOL     OW71763   6.234   6.423   2.823
89975SOL    HW171764   6.316   6.470   2.806
89975SOL    HW271765   6.166   6.485   2.798
89976SOL     OW71766  13.322  12.425  13.906
89976SOL    HW171767  13.255  12.446  13.971
89976SOL    HW271768  13.274  12.420  13.823
89977SOL     OW71769   7.036   1.817   9.596
89977SOL    HW171770   7.004   1.730   9.620
89977SOL    HW271771   7.008   1.828   9.505
89978SOL     OW71772   5.836  13.615   9.631
89978SOL    HW171773   5.761  13.586   9.683
89978SOL    HW271774   5.814  13.704   9.605
89979SOL     OW71775   8.674   7.812  10.879
89979SOL    HW171776   8.624   7.893  10.885
89979SOL    HW271777   8.632   7.763  10.809
89980SOL     OW71778   5.792   4.884   3.420
89980SOL    HW171779   5.766   4.854   3.333
89980SOL    HW271780   5.713   4.874   3.473
89981SOL     OW71781   0.322   4.052   2.688
89981SOL    HW171782   0.262   4.073   2.759
89981SOL    HW271783   0.351   4.137   2.655
89982SOL     OW71784   0.788   3.324  12.172
89982SOL    HW171785   0.779   3.325  12.268
89982SOL    HW271786   0.881   3.310  12.157
89983SOL     OW71787   6.990   7.018   3.338
89983SOL    HW171788   6.911   7.048   3.293
89983SOL    HW271789   7.022   7.096   3.384
89984SOL     OW71790   5.946   2.719   4.477
89984SOL    HW171791   5.965   2.799   4.526
89984SOL    HW271792   5.903   2.748   4.397
89985SOL     OW71793  11.445  10.521  10.970
89985SOL    HW171794  11.414  10.502  10.881
89985SOL    HW271795  11.405  10.454  11.025
89986SOL     OW71796   4.976   6.939  14.023
89986SOL    HW171797   5.071   6.942  14.012
89986SOL    HW271798   4.942   6.920  13.935
89987SOL     OW71799   0.141  10.355   1.200
89987SOL    HW171800   0.226  10.367   1.241
89987SOL    HW271801   0.159  10.361   1.106
89988SOL     OW71802   5.956  11.007  13.969
89988SOL    HW171803   5.873  11.012  13.922
89988SOL    HW271804   5.951  10.925  14.019
89989SOL     OW71805   8.786   3.286   0.290
89989SOL    HW171806   8.812   3.272   0.199
89989SOL    HW271807   8.819   3.374   0.311
89990SOL     OW71808  14.025   4.950   5.031
89990SOL    HW171809  14.099   4.907   5.074
89990SOL    HW271810  14.010   4.899   4.952
89991SOL     OW71811  10.624   0.834   1.163
89991SOL    HW171812  10.709   0.838   1.119
89991SOL    HW271813  10.564   0.878   1.103
89992SOL     OW71814   0.637  14.033  12.490
89992SOL    HW171815   0.732  14.018  12.494
89992SOL    HW271816   0.602  13.985  12.565
89993SOL     OW71817   8.803   9.838   2.425
89993SOL    HW171818   8.849   9.914   2.460
89993SOL    HW271819   8.860   9.805   2.355
89994SOL     OW71820   9.218  11.038  13.271
89994SOL    HW171821   9.137  10.988  13.271
89994SOL    HW271822   9.193  11.126  13.241
89995SOL     OW71823   5.837   5.403   0.646
89995SOL    HW171824   5.755   5.356   0.629
89995SOL    HW271825   5.810   5.486   0.685
89996SOL     OW71826  12.274  10.786  11.041
89996SOL    HW171827  12.204  10.736  10.999
89996SOL    HW271828  12.338  10.801  10.971
89997SOL     OW71829   4.325   1.453   6.182
89997SOL    HW171830   4.306   1.400   6.259
89997SOL    HW271831   4.406   1.416   6.146
89998SOL     OW71832   5.315  14.381   1.785
89998SOL    HW171833   5.322  14.475   1.772
89998SOL    HW271834   5.267  14.350   1.708
89999SOL     OW71835   6.163   6.284   1.005
89999SOL    HW171836   6.214   6.204   1.021
89999SOL    HW271837   6.112   6.264   0.927
90000SOL     OW71838   2.247   2.513   4.883
90000SOL    HW171839   2.307   2.441   4.903
90000SOL    HW271840   2.208   2.489   4.799
90001SOL     OW71841   6.400  11.525   5.748
90001SOL    HW171842   6.345  11.514   5.826
90001SOL    HW271843   6.360  11.467   5.683
90002SOL     OW71844   9.641  13.465   4.337
90002SOL    HW171845   9.551  13.479   4.309
90002SOL    HW271846   9.695  13.510   4.272
90003SOL     OW71847  11.842   6.907  12.800
90003SOL    HW171848  11.880   6.852  12.731
90003SOL    HW271849  11.900   6.895  12.875
90004SOL     OW71850  11.592  14.786   2.042
90004SOL    HW171851  11.505  14.755   2.016
90004SOL    HW271852  11.647  14.708   2.039
90005SOL     OW71853  11.548   6.034   6.775
90005SOL    HW171854  11.523   5.969   6.841
90005SOL    HW271855  11.484   6.104   6.785
90006SOL     OW71856   2.256  14.148   1.400
90006SOL    HW171857   2.165  14.169   1.417
90006SOL    HW271858   2.305  14.220   1.439
90007SOL     OW71859   5.234   8.584   9.575
90007SOL    HW171860   5.158   8.566   9.519
90007SOL    HW271861   5.247   8.503   9.624
90008SOL     OW71862   2.909   3.731   6.922
90008SOL    HW171863   2.851   3.656   6.915
90008SOL    HW271864   2.982   3.711   6.864
90009SOL     OW71865   6.704   4.881   3.791
90009SOL    HW171866   6.612   4.905   3.785
90009SOL    HW271867   6.735   4.883   3.700
90010SOL     OW71868  12.257   5.422  12.575
90010SOL    HW171869  12.188   5.488  12.560
90010SOL    HW271870  12.334   5.474  12.597
90011SOL     OW71871   7.493  14.135   3.019
90011SOL    HW171872   7.464  14.185   2.943
90011SOL    HW271873   7.477  14.044   2.996
90012SOL     OW71874  12.198   5.677   5.111
90012SOL    HW171875  12.271   5.689   5.172
90012SOL    HW271876  12.227   5.609   5.051
90013SOL     OW71877   6.927   0.803  10.231
90013SOL    HW171878   7.003   0.845  10.191
90013SOL    HW271879   6.919   0.845  10.316
90014SOL     OW71880  12.550   0.049   1.225
90014SOL    HW171881  12.494   0.062   1.302
90014SOL    HW271882  12.533   0.126   1.171
90015SOL     OW71883   7.991   6.227   8.097
90015SOL    HW171884   7.994   6.215   8.192
90015SOL    HW271885   8.053   6.298   8.080
90016SOL     OW71886   8.412   0.895   9.213
90016SOL    HW171887   8.317   0.901   9.225
90016SOL    HW271888   8.448   0.958   9.275
90017SOL     OW71889  14.352   8.128   7.009
90017SOL    HW171890  14.260   8.153   7.000
90017SOL    HW271891  14.387   8.189   7.074
90018SOL     OW71892   1.520  10.858   5.397
90018SOL    HW171893   1.480  10.814   5.321
90018SOL    HW271894   1.519  10.951   5.374
90019SOL     OW71895  14.406   3.982  14.809
90019SOL    HW171896  14.373   3.911  14.864
90019SOL    HW271897  14.495   3.997  14.841
90020SOL     OW71898   8.355   5.736   0.725
90020SOL    HW171899   8.353   5.831   0.727
90020SOL    HW271900   8.346   5.710   0.817
90021SOL     OW71901  10.214   9.078  10.993
90021SOL    HW171902  10.175   9.010  10.939
90021SOL    HW271903  10.299   9.044  11.018
90022SOL     OW71904   9.001   8.163   1.910
90022SOL    HW171905   9.045   8.206   1.837
90022SOL    HW271906   8.932   8.111   1.869
90023SOL     OW71907   5.846   5.187   3.171
90023SOL    HW171908   5.761   5.218   3.202
90023SOL    HW271909   5.827   5.146   3.086
90024SOL     OW71910  14.740  13.741   9.241
90024SOL    HW171911  14.813  13.803   9.236
90024SOL    HW271912  14.771  13.664   9.194
90025SOL     OW71913   3.789  11.322   7.921
90025SOL    HW171914   3.823  11.347   8.007
90025SOL    HW271915   3.695  11.341   7.926
90026SOL     OW71916   5.417   8.375  13.851
90026SOL    HW171917   5.506   8.385  13.815
90026SOL    HW271918   5.365   8.441  13.804
90027SOL     OW71919  14.292  10.914   4.348
90027SOL    HW171920  14.372  10.966   4.357
90027SOL    HW271921  14.250  10.948   4.268
90028SOL     OW71922   3.263  14.612   5.309
90028SOL    HW171923   3.196  14.545   5.296
90028SOL    HW271924   3.317  14.608   5.230
90029SOL     OW71925   5.408  10.674   5.191
90029SOL    HW171926   5.344  10.638   5.130
90029SOL    HW271927   5.493  10.651   5.153
90030SOL     OW71928  10.704   3.947  12.084
90030SOL    HW171929  10.662   4.030  12.102
90030SOL    HW271930  10.633   3.883  12.084
90031SOL     OW71931   5.621  10.178   6.057
90031SOL    HW171932   5.559  10.158   5.988
90031SOL    HW271933   5.633  10.096   6.104
90032SOL     OW71934   0.140   8.597   4.156
90032SOL    HW171935   0.052   8.564   4.172
90032SOL    HW271936   0.129   8.662   4.087
90033SOL     OW71937  10.035   2.677   8.030
90033SOL    HW171938  10.018   2.583   8.022
90033SOL    HW271939  10.123   2.683   8.065
90034SOL     OW71940   5.425   0.380  10.673
90034SOL    HW171941   5.344   0.421  10.702
90034SOL    HW271942   5.414   0.287  10.693
90035SOL     OW71943   4.003   6.880  10.524
90035SOL    HW171944   4.007   6.857  10.617
90035SOL    HW271945   4.011   6.975  10.522
90036SOL     OW71946   7.594  13.076  13.562
90036SOL    HW171947   7.618  13.010  13.627
90036SOL    HW271948   7.668  13.136  13.560
90037SOL     OW71949   6.248   4.282  12.706
90037SOL    HW171950   6.200   4.329  12.638
90037SOL    HW271951   6.332   4.328  12.711
90038SOL     OW71952  11.046   8.314  12.590
90038SOL    HW171953  11.035   8.220  12.605
90038SOL    HW271954  11.045   8.353  12.677
90039SOL     OW71955   4.784  10.199   7.788
90039SOL    HW171956   4.696  10.230   7.767
90039SOL    HW271957   4.810  10.252   7.864
90040SOL     OW71958   7.943  11.723  12.453
90040SOL    HW171959   8.028  11.744  12.491
90040SOL    HW271960   7.951  11.632  12.424
90041SOL     OW71961   8.058   1.006  13.376
90041SOL    HW171962   8.131   1.041  13.426
90041SOL    HW271963   8.034   1.075  13.315
90042SOL     OW71964   8.102   8.483   2.777
90042SOL    HW171965   8.046   8.409   2.800
90042SOL    HW271966   8.167   8.486   2.847
90043SOL     OW71967  12.177   7.390  10.905
90043SOL    HW171968  12.141   7.436  10.981
90043SOL    HW271969  12.271   7.408  10.907
90044SOL     OW71970   4.431  11.378   0.357
90044SOL    HW171971   4.498  11.416   0.301
90044SOL    HW271972   4.467  11.293   0.383
90045SOL     OW71973   7.136   8.747   5.005
90045SOL    HW171974   7.191   8.709   5.073
90045SOL    HW271975   7.192   8.752   4.928
90046SOL     OW71976   3.713   6.538  13.314
90046SOL    HW171977   3.749   6.626  13.325
90046SOL    HW271978   3.790   6.481  13.310
90047SOL     OW71979  11.216   6.616   0.660
90047SOL    HW171980  11.294   6.565   0.680
90047SOL    HW271981  11.175   6.632   0.745
90048SOL     OW71982   4.611   7.782   8.161
90048SOL    HW171983   4.519   7.771   8.188
90048SOL    HW271984   4.606   7.822   8.074
90049SOL     OW71985   1.044   6.416   3.123
90049SOL    HW171986   1.051   6.504   3.160
90049SOL    HW271987   1.133   6.395   3.095
90050SOL     OW71988   2.432  11.221   0.469
90050SOL    HW171989   2.514  11.197   0.513
90050SOL    HW271990   2.442  11.315   0.450
90051SOL     OW71991   8.265   9.533  11.847
90051SOL    HW171992   8.321   9.461  11.818
90051SOL    HW271993   8.200   9.492  11.903
90052SOL     OW71994  14.454   7.969   7.883
90052SOL    HW171995  14.506   7.924   7.816
90052SOL    HW271996  14.517   8.022   7.931
90053SOL     OW71997   0.466   5.334  14.647
90053SOL    HW171998   0.461   5.355  14.740
90053SOL    HW271999   0.524   5.257  14.643
90054SOL     OW72000   6.304  12.921   1.078
90054SOL    HW172001   6.221  12.967   1.094
90054SOL    HW272002   6.338  12.961   0.998
90055SOL     OW72003  14.081   8.741  13.410
90055SOL    HW172004  14.088   8.733  13.315
90055SOL    HW272005  14.106   8.831  13.429
90056SOL     OW72006   2.167   1.545   8.733
90056SOL    HW172007   2.144   1.609   8.665
90056SOL    HW272008   2.135   1.461   8.699
90057SOL     OW72009   3.440   9.505   7.361
90057SOL    HW172010   3.392   9.574   7.406
90057SOL    HW272011   3.416   9.425   7.408
90058SOL     OW72012   7.817  13.692   6.330
90058SOL    HW172013   7.848  13.770   6.284
90058SOL    HW272014   7.850  13.702   6.419
90059SOL     OW72015  10.361   5.651  12.882
90059SOL    HW172016  10.330   5.741  12.870
90059SOL    HW272017  10.364   5.615  12.793
90060SOL     OW72018   2.136   0.605   5.432
90060SOL    HW172019   2.096   0.660   5.365
90060SOL    HW272020   2.220   0.647   5.451
90061SOL     OW72021   0.794   8.034   6.174
90061SOL    HW172022   0.801   7.962   6.111
90061SOL    HW272023   0.811   7.993   6.259
90062SOL     OW72024  11.976  12.815   4.281
90062SOL    HW172025  12.033  12.891   4.267
90062SOL    HW272026  11.902  12.851   4.332
90063SOL     OW72027  12.687   8.560  12.973
90063SOL    HW172028  12.716   8.574  13.063
90063SOL    HW272029  12.665   8.467  12.969
90064SOL     OW72030  10.071   4.744   5.101
90064SOL    HW172031  10.034   4.655   5.102
90064SOL    HW272032  10.067   4.771   5.010
90065SOL     OW72033   9.185   4.472   2.617
90065SOL    HW172034   9.161   4.428   2.535
90065SOL    HW272035   9.125   4.436   2.682
90066SOL     OW72036   7.985   6.446   6.256
90066SOL    HW172037   7.925   6.462   6.183
90066SOL    HW272038   8.018   6.533   6.279
90067SOL     OW72039   8.715   7.629  14.708
90067SOL    HW172040   8.799   7.645  14.663
90067SOL    HW272041   8.741   7.602  14.797
90068SOL     OW72042   0.687  12.467  14.862
90068SOL    HW172043   0.619  12.507  14.808
90068SOL    HW272044   0.655  12.474   0.078
90069SOL     OW72045   4.111  12.479  11.421
90069SOL    HW172046   4.019  12.456  11.408
90069SOL    HW272047   4.131  12.447  11.509
90070SOL     OW72048   5.978  14.713   1.238
90070SOL    HW172049   5.937  14.660   1.169
90070SOL    HW272050   6.037  14.652   1.282
90071SOL     OW72051   2.619   9.237  13.538
90071SOL    HW172052   2.548   9.195  13.587
90071SOL    HW272053   2.699   9.206  13.580
90072SOL     OW72054   6.356  10.247   6.754
90072SOL    HW172055   6.340  10.338   6.731
90072SOL    HW272056   6.449  10.244   6.779
90073SOL     OW72057   4.447   5.721  13.020
90073SOL    HW172058   4.495   5.795  13.057
90073SOL    HW272059   4.515   5.660  12.993
90074SOL     OW72060   3.486   2.313   0.853
90074SOL    HW172061   3.503   2.393   0.904
90074SOL    HW272062   3.399   2.326   0.817
90075SOL     OW72063   9.194  10.862   7.558
90075SOL    HW172064   9.211  10.955   7.545
90075SOL    HW272065   9.105  10.849   7.525
90076SOL     OW72066   6.186  12.410  11.583
90076SOL    HW172067   6.251  12.468  11.621
90076SOL    HW272068   6.224  12.322  11.592
90077SOL     OW72069   2.930  14.034  11.560
90077SOL    HW172070   2.963  14.060  11.474
90077SOL    HW272071   2.848  13.987  11.540
90078SOL     OW72072   8.389   7.368   7.988
90078SOL    HW172073   8.408   7.446   7.935
90078SOL    HW272074   8.462   7.309   7.971
90079SOL     OW72075   6.527   3.336   3.765
90079SOL    HW172076   6.543   3.355   3.858
90079SOL    HW272077   6.612   3.311   3.731
90080SOL     OW72078   4.497   3.845  13.837
90080SOL    HW172079   4.513   3.938  13.853
90080SOL    HW272080   4.466   3.841  13.746
90081SOL     OW72081  13.146   4.114   9.336
90081SOL    HW172082  13.083   4.170   9.381
90081SOL    HW272083  13.125   4.123   9.243
90082SOL     OW72084   6.777  14.392   4.831
90082SOL    HW172085   6.690  14.379   4.793
90082SOL    HW272086   6.822  14.448   4.768
90083SOL     OW72087   0.617   5.553  11.934
90083SOL    HW172088   0.711   5.538  11.933
90083SOL    HW272089   0.580   5.472  11.969
90084SOL     OW72090   1.477   5.505  10.964
90084SOL    HW172091   1.564   5.466  10.958
90084SOL    HW272092   1.429   5.446  11.023
90085SOL     OW72093   3.467  13.605   2.816
90085SOL    HW172094   3.487  13.696   2.794
90085SOL    HW272095   3.546  13.572   2.859
90086SOL     OW72096   9.797   9.386  11.206
90086SOL    HW172097   9.856   9.312  11.190
90086SOL    HW272098   9.776   9.380  11.299
90087SOL     OW72099   9.161   7.482  10.411
90087SOL    HW172100   9.214   7.502  10.489
90087SOL    HW272101   9.101   7.414  10.440
90088SOL     OW72102   7.754   2.745   3.715
90088SOL    HW172103   7.770   2.705   3.800
90088SOL    HW272104   7.840   2.779   3.688
90089SOL     OW72105  10.014   5.486   1.678
90089SOL    HW172106  10.092   5.517   1.632
90089SOL    HW272107   9.960   5.447   1.611
90090SOL     OW72108  13.498  13.899  13.740
90090SOL    HW172109  13.506  13.951  13.660
90090SOL    HW272110  13.585  13.862  13.754
90091SOL     OW72111   1.928  11.768  10.895
90091SOL    HW172112   2.011  11.812  10.878
90091SOL    HW272113   1.914  11.713  10.817
90092SOL     OW72114   8.166   9.770   4.418
90092SOL    HW172115   8.225   9.835   4.380
90092SOL    HW272116   8.127   9.726   4.343
90093SOL     OW72117  13.975  10.846  13.114
90093SOL    HW172118  14.005  10.905  13.046
90093SOL    HW272119  13.969  10.760  13.072
90094SOL     OW72120  11.412   8.296   9.278
90094SOL    HW172121  11.456   8.241   9.343
90094SOL    HW272122  11.362   8.235   9.224
90095SOL     OW72123   5.667   7.117   1.649
90095SOL    HW172124   5.665   7.043   1.589
90095SOL    HW272125   5.754   7.155   1.639
90096SOL     OW72126  12.924  13.073  14.186
90096SOL    HW172127  12.911  12.981  14.163
90096SOL    HW272128  12.883  13.083  14.272
90097SOL     OW72129   7.094   2.387   6.266
90097SOL    HW172130   7.130   2.345   6.188
90097SOL    HW272131   7.101   2.321   6.335
90098SOL     OW72132  14.782  10.950  12.820
90098SOL    HW172133  14.723  10.988  12.755
90098SOL    HW272134  14.801  11.022  12.880
90099SOL     OW72135   0.746   2.367   9.472
90099SOL    HW172136   0.728   2.311   9.548
90099SOL    HW272137   0.840   2.353   9.455
90100SOL     OW72138  14.727   2.415  14.409
90100SOL    HW172139  14.632   2.423  14.407
90100SOL    HW272140  14.751   2.433  14.500
90101SOL     OW72141   5.280   5.047   5.230
90101SOL    HW172142   5.241   5.048   5.318
90101SOL    HW272143   5.374   5.044   5.247
90102SOL     OW72144   7.279  10.256   3.510
90102SOL    HW172145   7.360  10.205   3.500
90102SOL    HW272146   7.212  10.190   3.529
90103SOL     OW72147  12.609   0.934   5.743
90103SOL    HW172148  12.595   0.929   5.838
90103SOL    HW272149  12.626   0.843   5.717
90104SOL     OW72150  11.708   3.986  12.588
90104SOL    HW172151  11.731   4.042  12.663
90104SOL    HW272152  11.749   4.029  12.513
90105SOL     OW72153   5.081  12.011  13.975
90105SOL    HW172154   5.152  12.041  14.032
90105SOL    HW272155   5.079  11.916  13.987
90106SOL     OW72156   6.778   5.856   7.572
90106SOL    HW172157   6.737   5.931   7.615
90106SOL    HW272158   6.769   5.785   7.635
90107SOL     OW72159   0.748   9.572   4.324
90107SOL    HW172160   0.684   9.642   4.310
90107SOL    HW272161   0.697   9.491   4.320
90108SOL     OW72162   9.197   1.345  12.270
90108SOL    HW172163   9.275   1.297  12.242
90108SOL    HW272164   9.223   1.384  12.354
90109SOL     OW72165   7.778   3.793   7.933
90109SOL    HW172166   7.719   3.724   7.901
90109SOL    HW272167   7.866   3.761   7.912
90110SOL     OW72168   2.227   8.910  13.628
90110SOL    HW172169   2.183   8.825  13.617
90110SOL    HW272170   2.193   8.963  13.555
90111SOL     OW72171   9.324   2.113   1.586
90111SOL    HW172172   9.290   2.075   1.668
90111SOL    HW272173   9.402   2.160   1.613
90112SOL     OW72174   8.730  11.668  12.596
90112SOL    HW172175   8.732  11.763  12.609
90112SOL    HW272176   8.766  11.655  12.508
90113SOL     OW72177  11.621   6.512   5.147
90113SOL    HW172178  11.566   6.537   5.222
90113SOL    HW272179  11.656   6.425   5.171
90114SOL     OW72180  14.282   1.040  10.814
90114SOL    HW172181  14.252   0.951  10.834
90114SOL    HW272182  14.291   1.041  10.719
90115SOL     OW72183  14.749   9.508  14.162
90115SOL    HW172184  14.724   9.425  14.203
90115SOL    HW272185  14.673   9.533  14.110
90116SOL     OW72186   1.306   8.130  13.641
90116SOL    HW172187   1.320   8.055  13.583
90116SOL    HW272188   1.348   8.104  13.723
90117SOL     OW72189   0.626   1.198  12.119
90117SOL    HW172190   0.681   1.131  12.078
90117SOL    HW272191   0.651   1.196  12.211
90118SOL     OW72192   1.245   8.952  14.357
90118SOL    HW172193   1.314   8.970  14.421
90118SOL    HW272194   1.280   8.882  14.302
90119SOL     OW72195  11.255   4.027  11.381
90119SOL    HW172196  11.279   4.115  11.349
90119SOL    HW272197  11.179   4.042  11.437
90120SOL     OW72198   0.330   0.355   5.176
90120SOL    HW172199   0.289   0.280   5.220
90120SOL    HW272200   0.337   0.422   5.243
90121SOL     OW72201   3.266   9.462  14.787
90121SOL    HW172202   3.247   9.543  14.835
90121SOL    HW272203   3.271   9.490  14.695
90122SOL     OW72204  12.003   3.618  11.739
90122SOL    HW172205  11.979   3.659  11.822
90122SOL    HW272206  11.924   3.572  11.712
90123SOL     OW72207   8.226   8.535   6.477
90123SOL    HW172208   8.277   8.499   6.405
90123SOL    HW272209   8.258   8.625   6.485
90124SOL     OW72210   6.342  10.779   2.099
90124SOL    HW172211   6.348  10.852   2.036
90124SOL    HW272212   6.419  10.726   2.080
90125SOL     OW72213   2.005   4.716  13.952
90125SOL    HW172214   1.966   4.655  14.015
90125SOL    HW272215   1.975   4.683  13.866
90126SOL     OW72216   9.967  12.511  14.659
90126SOL    HW172217   9.974  12.589  14.714
90126SOL    HW272218   9.886  12.469  14.686
90127SOL     OW72219   8.258   1.836   2.970
90127SOL    HW172220   8.264   1.914   2.914
90127SOL    HW272221   8.218   1.868   3.051
90128SOL     OW72222   5.260   4.676   1.623
90128SOL    HW172223   5.299   4.725   1.550
90128SOL    HW272224   5.222   4.743   1.679
90129SOL     OW72225   1.619   0.475   5.392
90129SOL    HW172226   1.578   0.494   5.308
90129SOL    HW272227   1.693   0.537   5.396
90130SOL     OW72228  12.248   7.919   4.454
90130SOL    HW172229  12.212   8.006   4.472
90130SOL    HW272230  12.199   7.860   4.511
90131SOL     OW72231   2.667  10.300   1.575
90131SOL    HW172232   2.693  10.325   1.486
90131SOL    HW272233   2.630  10.380   1.612
90132SOL     OW72234   1.274   7.019   1.120
90132SOL    HW172235   1.290   6.945   1.061
90132SOL    HW272236   1.272   7.095   1.063
90133SOL     OW72237   7.382   8.155   0.795
90133SOL    HW172238   7.318   8.198   0.738
90133SOL    HW272239   7.402   8.072   0.751
90134SOL     OW72240   0.721   3.205  11.911
90134SOL    HW172241   0.659   3.248  11.852
90134SOL    HW272242   0.764   3.277  11.957
90135SOL     OW72243   1.277   8.780   0.041
90135SOL    HW172244   1.256   8.836  14.839
90135SOL    HW272245   1.278   8.692   0.006
90136SOL     OW72246  14.756   2.543   5.817
90136SOL    HW172247  14.843   2.567   5.850
90136SOL    HW272248  14.700   2.542   5.894
90137SOL     OW72249  13.326   8.316  14.847
90137SOL    HW172250  13.388   8.366   0.028
90137SOL    HW272251  13.333   8.355  14.760
90138SOL     OW72252   9.804   6.694   0.355
90138SOL    HW172253   9.758   6.744   0.287
90138SOL    HW272254   9.771   6.728   0.437
90139SOL     OW72255   3.805   1.079   6.482
90139SOL    HW172256   3.899   1.078   6.501
90139SOL    HW272257   3.798   1.040   6.395
90140SOL     OW72258  13.699   1.637  12.313
90140SOL    HW172259  13.771   1.575  12.306
90140SOL    HW272260  13.739   1.722  12.293
90141SOL     OW72261   7.683  12.802   3.780
90141SOL    HW172262   7.773  12.781   3.758
90141SOL    HW272263   7.644  12.830   3.697
90142SOL     OW72264   1.044   3.719  11.411
90142SOL    HW172265   1.052   3.740  11.318
90142SOL    HW272266   1.104   3.780  11.454
90143SOL     OW72267   3.581  10.699   9.818
90143SOL    HW172268   3.534  10.722   9.738
90143SOL    HW272269   3.663  10.749   9.812
90144SOL     OW72270  10.461   4.565   1.971
90144SOL    HW172271  10.466   4.659   1.954
90144SOL    HW272272  10.524   4.550   2.041
90145SOL     OW72273   0.575   1.822  10.570
90145SOL    HW172274   0.543   1.732  10.570
90145SOL    HW272275   0.640   1.825  10.501
90146SOL     OW72276   8.667   2.539   0.129
90146SOL    HW172277   8.716   2.617   0.102
90146SOL    HW272278   8.578   2.554   0.098
90147SOL     OW72279  10.852   3.113  11.162
90147SOL    HW172280  10.904   3.040  11.197
90147SOL    HW272281  10.882   3.190  11.212
90148SOL     OW72282   0.922   9.103  13.923
90148SOL    HW172283   1.013   9.085  13.947
90148SOL    HW272284   0.876   9.108  14.007
90149SOL     OW72285   6.277  12.444   7.019
90149SOL    HW172286   6.246  12.364   7.061
90149SOL    HW272287   6.248  12.515   7.077
90150SOL     OW72288  12.599   2.207   1.477
90150SOL    HW172289  12.675   2.154   1.451
90150SOL    HW272290  12.597   2.202   1.572
90151SOL     OW72291   9.459   5.913   2.545
90151SOL    HW172292   9.383   5.969   2.524
90151SOL    HW272293   9.532   5.956   2.502
90152SOL     OW72294   7.777  14.229   2.809
90152SOL    HW172295   7.798  14.135   2.814
90152SOL    HW272296   7.700  14.239   2.865
90153SOL     OW72297   2.082   5.611  13.037
90153SOL    HW172298   2.149   5.632  13.102
90153SOL    HW272299   2.115   5.532  12.993
90154SOL     OW72300   0.329   5.315   0.482
90154SOL    HW172301   0.286   5.319   0.568
90154SOL    HW272302   0.258   5.332   0.420
90155SOL     OW72303   4.755  12.212  11.535
90155SOL    HW172304   4.704  12.206  11.615
90155SOL    HW272305   4.842  12.179  11.559
90156SOL     OW72306   3.398   5.858   9.086
90156SOL    HW172307   3.362   5.947   9.089
90156SOL    HW272308   3.322   5.801   9.098
90157SOL     OW72309   3.118  13.986   6.806
90157SOL    HW172310   3.113  14.036   6.724
90157SOL    HW272311   3.032  13.995   6.846
90158SOL     OW72312   1.830   3.827   3.430
90158SOL    HW172313   1.814   3.837   3.336
90158SOL    HW272314   1.793   3.741   3.451
90159SOL     OW72315   3.490   0.217   9.543
90159SOL    HW172316   3.408   0.229   9.494
90159SOL    HW272317   3.481   0.275   9.618
90160SOL     OW72318  14.445   5.986   5.667
90160SOL    HW172319  14.478   6.075   5.657
90160SOL    HW272320  14.405   5.966   5.582
90161SOL     OW72321  14.599   0.220  12.312
90161SOL    HW172322  14.644   0.136  12.312
90161SOL    HW272323  14.596   0.245  12.405
90162SOL     OW72324   4.807  14.871  12.148
90162SOL    HW172325   4.825   0.083  12.107
90162SOL    HW272326   4.723  14.844  12.110
90163SOL     OW72327   4.387   6.840   2.184
90163SOL    HW172328   4.382   6.776   2.255
90163SOL    HW272329   4.476   6.874   2.188
90164SOL     OW72330   3.524   4.574   1.793
90164SOL    HW172331   3.520   4.533   1.707
90164SOL    HW272332   3.609   4.547   1.828
90165SOL     OW72333  10.894   2.770   9.386
90165SOL    HW172334  10.851   2.689   9.413
90165SOL    HW272335  10.826   2.822   9.344
90166SOL     OW72336  10.603   0.009   9.157
90166SOL    HW172337  10.698   0.001   9.159
90166SOL    HW272338  10.578  14.862   9.067
90167SOL     OW72339  12.510  12.333   6.897
90167SOL    HW172340  12.469  12.341   6.811
90167SOL    HW272341  12.600  12.364   6.883
90168SOL     OW72342   6.116   9.247   5.275
90168SOL    HW172343   6.204   9.277   5.296
90168SOL    HW272344   6.071   9.242   5.360
90169SOL     OW72345  11.869  12.605  14.383
90169SOL    HW172346  11.815  12.550  14.439
90169SOL    HW272347  11.877  12.688  14.431
90170SOL     OW72348  13.600   8.140   2.176
90170SOL    HW172349  13.530   8.192   2.137
90170SOL    HW272350  13.558   8.097   2.251
90171SOL     OW72351   1.965  10.707  11.542
90171SOL    HW172352   1.878  10.693  11.506
90171SOL    HW272353   2.024  10.686  11.469
90172SOL     OW72354  14.414   2.743   4.194
90172SOL    HW172355  14.353   2.816   4.178
90172SOL    HW272356  14.358   2.672   4.227
90173SOL     OW72357   0.239   5.622  13.612
90173SOL    HW172358   0.212   5.713  13.601
90173SOL    HW272359   0.298   5.624  13.687
90174SOL     OW72360  12.557  11.121   0.331
90174SOL    HW172361  12.480  11.141   0.384
90174SOL    HW272362  12.534  11.153   0.243
90175SOL     OW72363   8.198  10.468   3.044
90175SOL    HW172364   8.114  10.459   2.999
90175SOL    HW272365   8.182  10.530   3.114
90176SOL     OW72366   5.822  14.690   1.966
90176SOL    HW172367   5.754  14.752   1.941
90176SOL    HW272368   5.825  14.695   2.062
90177SOL     OW72369   8.749   9.158   2.892
90177SOL    HW172370   8.716   9.209   2.965
90177SOL    HW272371   8.672   9.141   2.837
90178SOL     OW72372   7.745  14.865   7.969
90178SOL    HW172373   7.821  14.868   8.026
90178SOL    HW272374   7.767   0.050   7.896
90179SOL     OW72375   1.164   5.242  10.877
90179SOL    HW172376   1.198   5.258  10.965
90179SOL    HW272377   1.119   5.323  10.853
90180SOL     OW72378  10.972  12.237   0.719
90180SOL    HW172379  11.027  12.163   0.743
90180SOL    HW272380  10.887  12.217   0.759
90181SOL     OW72381  13.441   9.543   3.356
90181SOL    HW172382  13.346   9.533   3.363
90181SOL    HW272383  13.472   9.538   3.447
90182SOL     OW72384  13.542   8.138   4.164
90182SOL    HW172385  13.616   8.130   4.103
90182SOL    HW272386  13.563   8.216   4.216
90183SOL     OW72387  12.795   3.145  10.436
90183SOL    HW172388  12.816   3.189  10.354
90183SOL    HW272389  12.863   3.078  10.446
90184SOL     OW72390   1.459   0.256   5.216
90184SOL    HW172391   1.502   0.258   5.301
90184SOL    HW272392   1.490   0.335   5.172
90185SOL     OW72393   7.869   6.202  13.072
90185SOL    HW172394   7.915   6.235  12.995
90185SOL    HW272395   7.786   6.169  13.039
90186SOL     OW72396  10.212   2.834   7.716
90186SOL    HW172397  10.151   2.829   7.642
90186SOL    HW272398  10.259   2.751   7.714
90187SOL     OW72399   6.380   0.546   5.008
90187SOL    HW172400   6.292   0.579   4.993
90187SOL    HW272401   6.395   0.559   5.102
90188SOL     OW72402  12.424   2.539  11.454
90188SOL    HW172403  12.496   2.525  11.516
90188SOL    HW272404  12.457   2.508  11.370
90189SOL     OW72405   0.769   8.305   2.985
90189SOL    HW172406   0.818   8.380   3.018
90189SOL    HW272407   0.830   8.231   2.993
90190SOL     OW72408   2.324  13.933   2.011
90190SOL    HW172409   2.259  13.994   2.047
90190SOL    HW272410   2.324  13.859   2.072
90191SOL     OW72411  11.420   6.090  11.397
90191SOL    HW172412  11.497   6.095  11.341
90191SOL    HW272413  11.378   6.176  11.389
90192SOL     OW72414   9.836   6.160   6.454
90192SOL    HW172415   9.904   6.144   6.520
90192SOL    HW272416   9.819   6.254   6.460
90193SOL     OW72417   9.000   0.422   2.182
90193SOL    HW172418   8.989   0.397   2.090
90193SOL    HW272419   8.915   0.458   2.207
90194SOL     OW72420  13.440   8.987   1.496
90194SOL    HW172421  13.383   8.928   1.544
90194SOL    HW272422  13.526   8.945   1.498
90195SOL     OW72423   7.700   0.002   2.197
90195SOL    HW172424   7.634  14.855   2.264
90195SOL    HW272425   7.778   0.024   2.247
90196SOL     OW72426   2.092   5.324   5.006
90196SOL    HW172427   2.003   5.291   5.007
90196SOL    HW272428   2.107   5.351   4.915
90197SOL     OW72429   5.316  13.401   6.764
90197SOL    HW172430   5.249  13.455   6.722
90197SOL    HW272431   5.266  13.343   6.822
90198SOL     OW72432   8.434   7.583   6.995
90198SOL    HW172433   8.423   7.674   7.022
90198SOL    HW272434   8.408   7.532   7.073
90199SOL     OW72435   7.565   1.614   1.381
90199SOL    HW172436   7.571   1.708   1.395
90199SOL    HW272437   7.494   1.586   1.438
90200SOL     OW72438   6.347   0.412  12.833
90200SOL    HW172439   6.255   0.388  12.844
90200SOL    HW272440   6.390   0.332  12.805
90201SOL     OW72441   0.713  13.355   7.536
90201SOL    HW172442   0.637  13.297   7.528
90201SOL    HW272443   0.684  13.438   7.499
90202SOL     OW72444   1.231  14.239  11.024
90202SOL    HW172445   1.172  14.206  10.957
90202SOL    HW272446   1.309  14.183  11.017
90203SOL     OW72447   3.410  13.986   7.894
90203SOL    HW172448   3.456  14.069   7.901
90203SOL    HW272449   3.373  13.986   7.806
90204SOL     OW72450   3.939   7.799   6.373
90204SOL    HW172451   3.902   7.713   6.355
90204SOL    HW272452   3.942   7.806   6.468
90205SOL     OW72453   2.910   5.300  14.414
90205SOL    HW172454   2.956   5.217  14.405
90205SOL    HW272455   2.872   5.298  14.502
90206SOL     OW72456   7.438   1.598   9.312
90206SOL    HW172457   7.462   1.625   9.224
90206SOL    HW272458   7.351   1.560   9.302
90207SOL     OW72459  11.235   4.660  12.815
90207SOL    HW172460  11.184   4.701  12.885
90207SOL    HW272461  11.169   4.620  12.758
90208SOL     OW72462  11.722  10.105   8.058
90208SOL    HW172463  11.726  10.070   7.969
90208SOL    HW272464  11.629  10.101   8.082
90209SOL     OW72465  12.487  13.142  12.159
90209SOL    HW172466  12.463  13.226  12.119
90209SOL    HW272467  12.510  13.086  12.085
90210SOL     OW72468   8.859   4.986   5.874
90210SOL    HW172469   8.810   4.903   5.881
90210SOL    HW272470   8.940   4.962   5.829
90211SOL     OW72471   9.130   3.169   3.397
90211SOL    HW172472   9.107   3.261   3.404
90211SOL    HW272473   9.082   3.127   3.468
90212SOL     OW72474   1.593   0.092  13.085
90212SOL    HW172475   1.536   0.154  13.040
90212SOL    HW272476   1.602   0.128  13.173
90213SOL     OW72477   2.484   6.668   8.944
90213SOL    HW172478   2.518   6.757   8.952
90213SOL    HW272479   2.389   6.679   8.944
90214SOL     OW72480  10.979   2.091   4.878
90214SOL    HW172481  10.899   2.119   4.921
90214SOL    HW272482  10.958   2.088   4.785
90215SOL     OW72483  13.437   3.965   6.745
90215SOL    HW172484  13.364   3.944   6.803
90215SOL    HW272485  13.509   3.989   6.804
90216SOL     OW72486   9.630   3.104  14.500
90216SOL    HW172487   9.544   3.073  14.527
90216SOL    HW272488   9.644   3.184  14.552
90217SOL     OW72489   8.515   2.018  13.947
90217SOL    HW172490   8.529   1.928  13.915
90217SOL    HW272491   8.603   2.055  13.949
90218SOL     OW72492   9.223   0.257   0.250
90218SOL    HW172493   9.180   0.180   0.288
90218SOL    HW272494   9.316   0.245   0.271
90219SOL     OW72495  10.239   5.670   6.159
90219SOL    HW172496  10.185   5.671   6.238
90219SOL    HW272497  10.302   5.600   6.174
90220SOL     OW72498  11.640   2.649   0.330
90220SOL    HW172499  11.729   2.614   0.332
90220SOL    HW272500  11.591   2.594   0.392
90221SOL     OW72501   6.164   9.252   7.577
90221SOL    HW172502   6.253   9.240   7.544
90221SOL    HW272503   6.108   9.228   7.503
90222SOL     OW72504   6.969   0.941  13.247
90222SOL    HW172505   7.045   0.891  13.276
90222SOL    HW272506   6.914   0.949  13.325
90223SOL     OW72507   7.413   6.507   0.562
90223SOL    HW172508   7.439   6.594   0.591
90223SOL    HW272509   7.441   6.448   0.633
90224SOL     OW72510  11.856   8.829   5.912
90224SOL    HW172511  11.851   8.775   5.992
90224SOL    HW272512  11.944   8.864   5.913
90225SOL     OW72513   5.963   5.956   7.156
90225SOL    HW172514   5.884   5.984   7.108
90225SOL    HW272515   5.938   5.871   7.194
90226SOL     OW72516   5.513   4.204  13.001
90226SOL    HW172517   5.589   4.263  13.001
90226SOL    HW272518   5.437   4.262  12.994
90227SOL     OW72519   2.687  10.644   9.421
90227SOL    HW172520   2.615  10.588   9.392
90227SOL    HW272521   2.759  10.621   9.363
90228SOL     OW72522  14.342   7.102  10.738
90228SOL    HW172523  14.400   7.092  10.813
90228SOL    HW272524  14.263   7.054  10.763
90229SOL     OW72525   7.014   0.769   3.814
90229SOL    HW172526   6.997   0.863   3.807
90229SOL    HW272527   7.078   0.762   3.885
90230SOL     OW72528  12.918   2.634   3.183
90230SOL    HW172529  12.932   2.541   3.201
90230SOL    HW272530  12.960   2.649   3.099
90231SOL     OW72531   4.740   8.551   9.293
90231SOL    HW172532   4.786   8.469   9.306
90231SOL    HW272533   4.808   8.618   9.291
90232SOL     OW72534   1.674   6.196   9.575
90232SOL    HW172535   1.758   6.241   9.572
90232SOL    HW272536   1.688   6.115   9.527
90233SOL     OW72537   3.397  12.097   4.511
90233SOL    HW172538   3.340  12.159   4.557
90233SOL    HW272539   3.417  12.139   4.428
90234SOL     OW72540   5.957  11.125   5.592
90234SOL    HW172541   6.041  11.095   5.625
90234SOL    HW272542   5.917  11.172   5.665
90235SOL     OW72543   0.802  10.161   4.234
90235SOL    HW172544   0.791  10.256   4.222
90235SOL    HW272545   0.857  10.154   4.312
90236SOL     OW72546  14.681   8.558  14.564
90236SOL    HW172547  14.753   8.504  14.596
90236SOL    HW272548  14.722   8.642  14.542
90237SOL     OW72549   8.815   7.644  11.048
90237SOL    HW172550   8.824   7.559  11.004
90237SOL    HW272551   8.761   7.696  10.989
90238SOL     OW72552   3.785   8.766  11.417
90238SOL    HW172553   3.791   8.734  11.506
90238SOL    HW272554   3.698   8.742  11.387
90239SOL     OW72555   4.369   2.055  10.439
90239SOL    HW172556   4.426   2.013  10.502
90239SOL    HW272557   4.428   2.094  10.375
90240SOL     OW72558   0.195  12.662   0.308
90240SOL    HW172559   0.137  12.734   0.283
90240SOL    HW272560   0.160  12.631   0.391
90241SOL     OW72561   9.357   5.223  10.494
90241SOL    HW172562   9.313   5.149  10.453
90241SOL    HW272563   9.377   5.283  10.422
90242SOL     OW72564  14.372   7.144  13.234
90242SOL    HW172565  14.346   7.054  13.217
90242SOL    HW272566  14.346   7.192  13.155
90243SOL     OW72567   4.506   4.673   2.197
90243SOL    HW172568   4.557   4.665   2.278
90243SOL    HW272569   4.543   4.608   2.138
90244SOL     OW72570  14.825   4.321  12.223
90244SOL    HW172571  14.851   4.235  12.254
90244SOL    HW272572  14.729   4.322  12.232
90245SOL     OW72573   1.019  10.795  10.566
90245SOL    HW172574   1.021  10.825  10.475
90245SOL    HW272575   0.931  10.760  10.578
90246SOL     OW72576   7.128   8.965   2.355
90246SOL    HW172577   7.191   8.954   2.426
90246SOL    HW272578   7.130   9.059   2.336
90247SOL     OW72579   1.023  11.771   5.743
90247SOL    HW172580   0.971  11.741   5.818
90247SOL    HW272581   0.961  11.820   5.689
90248SOL     OW72582   4.668  10.839   0.678
90248SOL    HW172583   4.606  10.909   0.659
90248SOL    HW272584   4.695  10.855   0.768
90249SOL     OW72585   5.724   0.452  14.471
90249SOL    HW172586   5.734   0.398  14.550
90249SOL    HW272587   5.808   0.445  14.426
90250SOL     OW72588  10.186   5.501   5.624
90250SOL    HW172589  10.244   5.555   5.570
90250SOL    HW272590  10.158   5.430   5.566
90251SOL     OW72591   7.268   3.494   0.808
90251SOL    HW172592   7.251   3.469   0.717
90251SOL    HW272593   7.182   3.493   0.850
90252SOL     OW72594   6.218   3.429   7.826
90252SOL    HW172595   6.213   3.341   7.788
90252SOL    HW272596   6.128   3.448   7.853
90253SOL     OW72597  12.809   5.933   6.131
90253SOL    HW172598  12.883   5.923   6.191
90253SOL    HW272599  12.734   5.952   6.188
90254SOL     OW72600  11.904   5.433  10.635
90254SOL    HW172601  11.971   5.367  10.619
90254SOL    HW272602  11.828   5.402  10.585
90255SOL     OW72603   9.304   0.350   8.147
90255SOL    HW172604   9.244   0.337   8.073
90255SOL    HW272605   9.385   0.382   8.107
90256SOL     OW72606   9.604   6.142   0.610
90256SOL    HW172607   9.682   6.167   0.561
90256SOL    HW272608   9.603   6.046   0.605
90257SOL     OW72609   9.423   5.967  10.192
90257SOL    HW172610   9.360   6.014  10.246
90257SOL    HW272611   9.497   6.028  10.183
90258SOL     OW72612   1.831   6.003   0.051
90258SOL    HW172613   1.919   6.021   0.019
90258SOL    HW272614   1.812   5.914   0.021
90259SOL     OW72615   6.981   3.459  13.465
90259SOL    HW172616   7.031   3.536  13.438
90259SOL    HW272617   6.960   3.414  13.384
90260SOL     OW72618   4.446   0.589   5.661
90260SOL    HW172619   4.531   0.568   5.699
90260SOL    HW272620   4.387   0.595   5.737
90261SOL     OW72621  11.039   5.883   3.916
90261SOL    HW172622  11.025   5.970   3.955
90261SOL    HW272623  11.115   5.894   3.860
90262SOL     OW72624   1.663   9.338  12.236
90262SOL    HW172625   1.678   9.287  12.315
90262SOL    HW272626   1.615   9.279  12.177
90263SOL     OW72627  14.124   0.285   3.172
90263SOL    HW172628  14.144   0.268   3.264
90263SOL    HW272629  14.062   0.216   3.148
90264SOL     OW72630   0.800   7.947   8.145
90264SOL    HW172631   0.804   7.917   8.054
90264SOL    HW272632   0.799   7.866   8.197
90265SOL     OW72633   3.766   0.781   3.274
90265SOL    HW172634   3.750   0.859   3.327
90265SOL    HW272635   3.781   0.815   3.185
90266SOL     OW72636  10.160   7.190   6.202
90266SOL    HW172637  10.253   7.201   6.222
90266SOL    HW272638  10.125   7.141   6.276
90267SOL     OW72639   0.285   1.047  10.464
90267SOL    HW172640   0.249   0.958  10.455
90267SOL    HW272641   0.302   1.056  10.558
90268SOL     OW72642   5.691  12.926  12.482
90268SOL    HW172643   5.780  12.952  12.506
90268SOL    HW272644   5.691  12.831  12.493
90269SOL     OW72645  12.167  11.521   4.814
90269SOL    HW172646  12.150  11.505   4.721
90269SOL    HW272647  12.142  11.612   4.828
90270SOL     OW72648   6.756   8.910   4.921
90270SOL    HW172649   6.822   8.854   4.961
90270SOL    HW272650   6.719   8.960   4.994
90271SOL     OW72651  12.668   0.753  13.513
90271SOL    HW172652  12.589   0.735  13.462
90271SOL    HW272653  12.739   0.713  13.463
90272SOL     OW72654   2.400  14.328   1.941
90272SOL    HW172655   2.476  14.384   1.954
90272SOL    HW272656   2.330  14.370   1.991
90273SOL     OW72657   1.182   7.712   5.544
90273SOL    HW172658   1.276   7.696   5.541
90273SOL    HW272659   1.157   7.697   5.635
90274SOL     OW72660   3.696  12.063   6.906
90274SOL    HW172661   3.704  12.156   6.886
90274SOL    HW272662   3.647  12.061   6.989
90275SOL     OW72663   9.376   9.783   1.444
90275SOL    HW172664   9.346   9.776   1.354
90275SOL    HW272665   9.465   9.818   1.437
90276SOL     OW72666  13.538  13.036  11.551
90276SOL    HW172667  13.566  13.081  11.471
90276SOL    HW272668  13.446  13.014  11.534
90277SOL     OW72669   2.713   8.458   1.067
90277SOL    HW172670   2.781   8.476   1.131
90277SOL    HW272671   2.712   8.363   1.058
90278SOL     OW72672   7.220   0.565   0.601
90278SOL    HW172673   7.257   0.612   0.526
90278SOL    HW272674   7.136   0.608   0.617
90279SOL     OW72675   4.078   9.767  14.484
90279SOL    HW172676   4.116   9.854  14.472
90279SOL    HW272677   4.076   9.729  14.396
90280SOL     OW72678   7.883  14.820   9.358
90280SOL    HW172679   7.916   0.037   9.354
90280SOL    HW272680   7.925  14.776   9.283
90281SOL     OW72681   8.231   0.142  10.304
90281SOL    HW172682   8.260   0.103  10.221
90281SOL    HW272683   8.305   0.128  10.363
90282SOL     OW72684  14.861  13.449  10.680
90282SOL    HW172685  14.799  13.409  10.619
90282SOL    HW272686   0.074  13.421  10.648
90283SOL     OW72687  13.284   5.249   4.488
90283SOL    HW172688  13.281   5.298   4.406
90283SOL    HW272689  13.283   5.317   4.556
90284SOL     OW72690   2.452  10.482   2.091
90284SOL    HW172691   2.501  10.527   2.160
90284SOL    HW272692   2.463  10.389   2.112
90285SOL     OW72693   4.836   8.571   7.899
90285SOL    HW172694   4.809   8.661   7.884
90285SOL    HW272695   4.755   8.520   7.895
90286SOL     OW72696   4.700   6.064  14.848
90286SOL    HW172697   4.683   6.070  14.754
90286SOL    HW272698   4.682   5.973  14.870
90287SOL     OW72699   5.650   4.171   1.335
90287SOL    HW172700   5.641   4.266   1.344
90287SOL    HW272701   5.560   4.140   1.324
90288SOL     OW72702   6.579  10.376   8.543
90288SOL    HW172703   6.655  10.382   8.601
90288SOL    HW272704   6.571  10.282   8.523
90289SOL     OW72705  11.689   8.549   2.769
90289SOL    HW172706  11.621   8.506   2.820
90289SOL    HW272707  11.682   8.510   2.682
90290SOL     OW72708   1.982   2.371   0.077
90290SOL    HW172709   1.906   2.347   0.025
90290SOL    HW272710   2.032   2.289   0.086
90291SOL     OW72711   2.971   5.883   5.579
90291SOL    HW172712   3.066   5.893   5.567
90291SOL    HW272713   2.933   5.960   5.538
90292SOL     OW72714   3.555   2.349   3.720
90292SOL    HW172715   3.568   2.271   3.774
90292SOL    HW272716   3.629   2.406   3.741
90293SOL     OW72717   2.360   2.758   3.588
90293SOL    HW172718   2.291   2.739   3.651
90293SOL    HW272719   2.355   2.687   3.524
90294SOL     OW72720   1.251  12.843   1.933
90294SOL    HW172721   1.251  12.909   2.002
90294SOL    HW272722   1.172  12.860   1.882
90295SOL     OW72723   8.948  11.955  13.796
90295SOL    HW172724   9.014  11.901  13.753
90295SOL    HW272725   8.868  11.903  13.791
90296SOL     OW72726  13.822  11.244   2.482
90296SOL    HW172727  13.800  11.198   2.563
90296SOL    HW272728  13.850  11.175   2.422
90297SOL     OW72729  14.338   0.157   1.515
90297SOL    HW172730  14.254   0.163   1.560
90297SOL    HW272731  14.401   0.192   1.578
90298SOL     OW72732   1.352   7.666   9.726
90298SOL    HW172733   1.441   7.636   9.708
90298SOL    HW272734   1.337   7.644   9.818
90299SOL     OW72735   7.574   4.121   1.113
90299SOL    HW172736   7.661   4.117   1.154
90299SOL    HW272737   7.546   4.211   1.125
90300SOL     OW72738  12.564   7.776  12.929
90300SOL    HW172739  12.596   7.812  13.012
90300SOL    HW272740  12.481   7.734  12.952
90301SOL     OW72741  13.377   6.174   5.531
90301SOL    HW172742  13.307   6.239   5.524
90301SOL    HW272743  13.359   6.129   5.614
90302SOL     OW72744  11.944  13.885   5.573
90302SOL    HW172745  11.918  13.960   5.519
90302SOL    HW272746  11.960  13.815   5.510
90303SOL     OW72747  13.394   3.391   2.448
90303SOL    HW172748  13.422   3.352   2.531
90303SOL    HW272749  13.474   3.396   2.395
90304SOL     OW72750   1.532   6.157   4.311
90304SOL    HW172751   1.487   6.241   4.301
90304SOL    HW272752   1.570   6.161   4.399
90305SOL     OW72753   4.134   0.455   7.414
90305SOL    HW172754   4.096   0.430   7.330
90305SOL    HW272755   4.198   0.386   7.433
90306SOL     OW72756   3.914  10.611  10.058
90306SOL    HW172757   3.901  10.569  10.144
90306SOL    HW272758   4.005  10.590  10.036
90307SOL     OW72759   5.287  12.261   5.856
90307SOL    HW172760   5.370  12.213   5.851
90307SOL    HW272761   5.306  12.347   5.821
90308SOL     OW72762   1.564  14.807   4.282
90308SOL    HW172763   1.532  14.858   4.208
90308SOL    HW272764   1.497  14.816   4.349
90309SOL     OW72765  12.523  10.781   3.656
90309SOL    HW172766  12.478  10.707   3.695
90309SOL    HW272767  12.517  10.851   3.721
90310SOL     OW72768   8.285   6.260  13.123
90310SOL    HW172769   8.214   6.275  13.187
90310SOL    HW272770   8.256   6.307  13.045
90311SOL     OW72771   7.616  12.684   2.971
90311SOL    HW172772   7.644  12.716   3.057
90311SOL    HW272773   7.568  12.758   2.933
90312SOL     OW72774   2.971  10.073  10.830
90312SOL    HW172775   2.904  10.056  10.896
90312SOL    HW272776   3.005   9.987  10.808
90313SOL     OW72777  12.808  13.991  12.483
90313SOL    HW172778  12.738  14.056  12.487
90313SOL    HW272779  12.856  14.003  12.564
90314SOL     OW72780   9.565   6.633   1.038
90314SOL    HW172781   9.603   6.549   1.012
90314SOL    HW272782   9.547   6.623   1.131
90315SOL     OW72783  10.728   2.818  13.042
90315SOL    HW172784  10.646   2.771  13.028
90315SOL    HW272785  10.750   2.854  12.957
90316SOL     OW72786   0.529   1.471  11.723
90316SOL    HW172787   0.510   1.378  11.730
90316SOL    HW272788   0.509   1.493  11.632
90317SOL     OW72789   3.720  13.506  11.171
90317SOL    HW172790   3.773  13.560  11.230
90317SOL    HW272791   3.737  13.543  11.084
90318SOL     OW72792   0.086  12.744  14.725
90318SOL    HW172793   0.008  12.693  14.747
90318SOL    HW272794   0.056  12.835  14.729
90319SOL     OW72795   4.083   0.088   0.859
90319SOL    HW172796   4.116   0.020   0.801
90319SOL    HW272797   4.158   0.111   0.914
90320SOL     OW72798   0.906   4.644   4.883
90320SOL    HW172799   0.983   4.701   4.894
90320SOL    HW272800   0.831   4.703   4.896
90321SOL     OW72801  12.558   1.432   8.276
90321SOL    HW172802  12.519   1.365   8.221
90321SOL    HW272803  12.630   1.388   8.321
90322SOL     OW72804   3.006  14.169   2.259
90322SOL    HW172805   3.008  14.074   2.267
90322SOL    HW272806   2.914  14.193   2.271
90323SOL     OW72807   8.370   7.064   0.173
90323SOL    HW172808   8.446   7.097   0.222
90323SOL    HW272809   8.317   7.020   0.239
90324SOL     OW72810   4.994   7.436   9.531
90324SOL    HW172811   4.958   7.461   9.447
90324SOL    HW272812   5.047   7.358   9.513
90325SOL     OW72813   5.674   7.722  11.756
90325SOL    HW172814   5.710   7.769  11.831
90325SOL    HW272815   5.613   7.659  11.794
90326SOL     OW72816   3.684   8.803   1.126
90326SOL    HW172817   3.765   8.785   1.174
90326SOL    HW272818   3.697   8.765   1.040
90327SOL     OW72819   3.081   6.640  10.846
90327SOL    HW172820   3.003   6.690  10.823
90327SOL    HW272821   3.153   6.685  10.802
90328SOL     OW72822   6.497   3.127   5.845
90328SOL    HW172823   6.486   3.147   5.938
90328SOL    HW272824   6.456   3.199   5.799
90329SOL     OW72825  12.820   4.357  10.315
90329SOL    HW172826  12.746   4.339  10.373
90329SOL    HW272827  12.782   4.360  10.227
90330SOL     OW72828   4.238   8.908   7.663
90330SOL    HW172829   4.155   8.861   7.653
90330SOL    HW272830   4.266   8.887   7.752
90331SOL     OW72831   7.282   9.329   1.588
90331SOL    HW172832   7.318   9.326   1.499
90331SOL    HW272833   7.228   9.250   1.594
90332SOL     OW72834  12.323   7.462  10.610
90332SOL    HW172835  12.373   7.405  10.668
90332SOL    HW272836  12.299   7.405  10.536
90333SOL     OW72837   1.419   0.455   4.071
90333SOL    HW172838   1.341   0.509   4.084
90333SOL    HW272839   1.400   0.403   3.994
90334SOL     OW72840   8.325   7.726   4.153
90334SOL    HW172841   8.366   7.802   4.113
90334SOL    HW272842   8.369   7.716   4.237
90335SOL     OW72843   9.045   7.802   7.972
90335SOL    HW172844   9.103   7.866   8.014
90335SOL    HW272845   8.959   7.818   8.011
90336SOL     OW72846   8.190   0.424   6.728
90336SOL    HW172847   8.194   0.442   6.822
90336SOL    HW272848   8.151   0.502   6.690
90337SOL     OW72849   2.631   9.511  12.134
90337SOL    HW172850   2.659   9.591  12.089
90337SOL    HW272851   2.694   9.500  12.205
90338SOL     OW72852   8.313   8.325   8.325
90338SOL    HW172853   8.293   8.302   8.416
90338SOL    HW272854   8.370   8.255   8.294
90339SOL     OW72855   8.894   4.204   4.317
90339SOL    HW172856   8.833   4.245   4.379
90339SOL    HW272857   8.980   4.216   4.356
90340SOL     OW72858   5.086  10.190   7.552
90340SOL    HW172859   5.059  10.108   7.594
90340SOL    HW272860   5.029  10.198   7.475
90341SOL     OW72861  13.706  12.254   0.434
90341SOL    HW172862  13.652  12.308   0.376
90341SOL    HW272863  13.764  12.207   0.374
90342SOL     OW72864   4.498  10.496  11.923
90342SOL    HW172865   4.523  10.588  11.937
90342SOL    HW272866   4.553  10.467  11.850
90343SOL     OW72867   5.211  10.130   1.133
90343SOL    HW172868   5.126  10.096   1.106
90343SOL    HW272869   5.216  10.112   1.227
90344SOL     OW72870   5.253  10.725  13.447
90344SOL    HW172871   5.207  10.681  13.376
90344SOL    HW272872   5.346  10.712  13.427
90345SOL     OW72873   4.815  13.717   4.465
90345SOL    HW172874   4.806  13.660   4.541
90345SOL    HW272875   4.755  13.790   4.482
90346SOL     OW72876   4.166  14.674   3.000
90346SOL    HW172877   4.107  14.600   3.011
90346SOL    HW272878   4.237  14.658   3.062
90347SOL     OW72879   7.269   8.582  12.104
90347SOL    HW172880   7.302   8.672  12.093
90347SOL    HW272881   7.261   8.571  12.199
90348SOL     OW72882   9.407  11.477  12.478
90348SOL    HW172883   9.431  11.425  12.402
90348SOL    HW272884   9.378  11.561  12.442
90349SOL     OW72885   7.708   2.048   5.280
90349SOL    HW172886   7.642   1.983   5.255
90349SOL    HW272887   7.783   2.029   5.224
90350SOL     OW72888   7.528  12.131  14.280
90350SOL    HW172889   7.455  12.110  14.338
90350SOL    HW272890   7.497  12.107  14.193
90351SOL     OW72891   6.768   9.272   8.384
90351SOL    HW172892   6.737   9.362   8.382
90351SOL    HW272893   6.863   9.279   8.381
90352SOL     OW72894   8.381  14.206   2.468
90352SOL    HW172895   8.289  14.192   2.443
90352SOL    HW272896   8.393  14.150   2.544
90353SOL     OW72897   0.041  13.998   5.081
90353SOL    HW172898   0.058  13.983   5.174
90353SOL    HW272899   0.070  14.088   5.066
90354SOL     OW72900  13.380   6.528   3.048
90354SOL    HW172901  13.395   6.521   3.142
90354SOL    HW272902  13.423   6.451   3.011
90355SOL     OW72903  11.599  11.252   0.309
90355SOL    HW172904  11.625  11.344   0.316
90355SOL    HW272905  11.643  11.220   0.230
90356SOL     OW72906   1.000   9.351   7.511
90356SOL    HW172907   0.913   9.322   7.482
90356SOL    HW272908   0.982   9.419   7.576
90357SOL     OW72909   2.817   6.080   4.425
90357SOL    HW172910   2.722   6.087   4.412
90357SOL    HW272911   2.826   6.039   4.511
90358SOL     OW72912  10.824   1.307   1.560
90358SOL    HW172913  10.875   1.368   1.506
90358SOL    HW272914  10.819   1.348   1.646
90359SOL     OW72915  12.832   5.521   1.477
90359SOL    HW172916  12.766   5.476   1.425
90359SOL    HW272917  12.873   5.583   1.417
90360SOL     OW72918   2.826  13.497   4.150
90360SOL    HW172919   2.737  13.531   4.160
90360SOL    HW272920   2.872  13.565   4.099
90361SOL     OW72921  10.122   6.138  10.677
90361SOL    HW172922  10.213   6.110  10.688
90361SOL    HW272923  10.115   6.161  10.584
90362SOL     OW72924   6.125   1.339  13.432
90362SOL    HW172925   6.205   1.360  13.383
90362SOL    HW272926   6.055   1.344  13.367
90363SOL     OW72927   1.877  11.283   8.489
90363SOL    HW172928   1.830  11.240   8.562
90363SOL    HW272929   1.947  11.222   8.467
90364SOL     OW72930   6.794  14.445   7.415
90364SOL    HW172931   6.889  14.441   7.422
90364SOL    HW272932   6.766  14.354   7.427
90365SOL     OW72933   7.525   7.013   0.740
90365SOL    HW172934   7.465   7.083   0.713
90365SOL    HW272935   7.470   6.951   0.788
90366SOL     OW72936   9.424   9.041   6.825
90366SOL    HW172937   9.483   9.100   6.872
90366SOL    HW272938   9.482   8.983   6.776
90367SOL     OW72939   1.590   7.209  10.306
90367SOL    HW172940   1.545   7.246  10.230
90367SOL    HW272941   1.519   7.181  10.365
90368SOL     OW72942   2.486  12.575   7.332
90368SOL    HW172943   2.471  12.638   7.262
90368SOL    HW272944   2.464  12.623   7.412
90369SOL     OW72945   1.815   3.018   7.082
90369SOL    HW172946   1.732   2.972   7.073
90369SOL    HW272947   1.826   3.030   7.176
90370SOL     OW72948   8.920   9.100   0.491
90370SOL    HW172949   8.939   9.040   0.563
90370SOL    HW272950   8.874   9.046   0.426
90371SOL     OW72951   0.315  10.965   3.692
90371SOL    HW172952   0.311  10.893   3.754
90371SOL    HW272953   0.407  10.990   3.689
90372SOL     OW72954   9.498   0.940  11.070
90372SOL    HW172955   9.485   1.030  11.039
90372SOL    HW272956   9.439   0.931  11.145
90373SOL     OW72957   6.623   9.396   3.372
90373SOL    HW172958   6.540   9.359   3.403
90373SOL    HW272959   6.598   9.462   3.308
90374SOL     OW72960   1.181   8.599   3.774
90374SOL    HW172961   1.275   8.616   3.778
90374SOL    HW272962   1.145   8.648   3.848
90375SOL     OW72963   5.565   7.622  13.821
90375SOL    HW172964   5.519   7.598  13.740
90375SOL    HW272965   5.622   7.547  13.839
90376SOL     OW72966  12.981   9.762  10.306
90376SOL    HW172967  12.947   9.742  10.219
90376SOL    HW272968  12.978   9.857  10.312
90377SOL     OW72969   3.219   7.828  12.848
90377SOL    HW172970   3.195   7.788  12.765
90377SOL    HW272971   3.185   7.767  12.914
90378SOL     OW72972   0.942   0.967   5.840
90378SOL    HW172973   0.889   0.959   5.919
90378SOL    HW272974   1.023   1.009   5.869
90379SOL     OW72975   4.866  11.437   1.599
90379SOL    HW172976   4.896  11.523   1.628
90379SOL    HW272977   4.866  11.383   1.678
90380SOL     OW72978   2.970  13.944   3.251
90380SOL    HW172979   3.025  14.002   3.198
90380SOL    HW272980   2.999  13.960   3.341
90381SOL     OW72981   2.655   3.985  11.285
90381SOL    HW172982   2.602   4.060  11.258
90381SOL    HW272983   2.628   3.914  11.227
90382SOL     OW72984  14.388  11.112   6.484
90382SOL    HW172985  14.319  11.106   6.418
90382SOL    HW272986  14.388  11.204   6.511
90383SOL     OW72987   1.754   0.817   8.639
90383SOL    HW172988   1.816   0.806   8.712
90383SOL    HW272989   1.671   0.787   8.674
90384SOL     OW72990   0.988   5.888   8.237
90384SOL    HW172991   1.028   5.845   8.312
90384SOL    HW272992   1.054   5.952   8.208
90385SOL     OW72993   3.267  10.237   8.863
90385SOL    HW172994   3.295  10.311   8.918
90385SOL    HW272995   3.347  10.187   8.850
90386SOL     OW72996   8.339   8.711   5.804
90386SOL    HW172997   8.337   8.757   5.888
90386SOL    HW272998   8.399   8.638   5.817
90387SOL     OW72999   7.173   9.115  12.651
90387SOL    HW173000   7.201   9.040  12.704
90387SOL    HW273001   7.192   9.088  12.561
90388SOL     OW73002  10.011   7.688  12.029
90388SOL    HW173003  10.054   7.671  11.946
90388SOL    HW273004  10.068   7.750  12.074
90389SOL     OW73005   7.511   2.689  14.590
90389SOL    HW173006   7.530   2.596  14.607
90389SOL    HW273007   7.593   2.734  14.612
90390SOL     OW73008   3.163  14.303   3.873
90390SOL    HW173009   3.117  14.378   3.911
90390SOL    HW273010   3.098  14.262   3.816
90391SOL     OW73011   3.691   8.341   4.422
90391SOL    HW173012   3.667   8.335   4.329
90391SOL    HW273013   3.783   8.366   4.421
90392SOL     OW73014  11.644  14.806  12.018
90392SOL    HW173015  11.728  14.845  12.043
90392SOL    HW273016  11.665  14.753  11.941
90393SOL     OW73017   4.687  13.089   5.894
90393SOL    HW173018   4.743  13.012   5.891
90393SOL    HW273019   4.601  13.056   5.919
90394SOL     OW73020   4.785  13.794  14.544
90394SOL    HW173021   4.752  13.747  14.468
90394SOL    HW273022   4.749  13.747  14.619
90395SOL     OW73023   0.546  14.661   6.678
90395SOL    HW173024   0.513  14.571   6.678
90395SOL    HW273025   0.616  14.661   6.742
90396SOL     OW73026   5.088   2.707  11.868
90396SOL    HW173027   5.176   2.745  11.865
90396SOL    HW273028   5.096   2.633  11.929
90397SOL     OW73029   1.616   0.477   5.805
90397SOL    HW173030   1.649   0.540   5.869
90397SOL    HW273031   1.670   0.399   5.818
90398SOL     OW73032   9.678   8.558  14.297
90398SOL    HW173033   9.644   8.599  14.376
90398SOL    HW273034   9.734   8.625  14.258
90399SOL     OW73035   2.474   5.863   0.182
90399SOL    HW173036   2.452   5.839   0.272
90399SOL    HW273037   2.414   5.934   0.160
90400SOL     OW73038  13.447   5.906   5.388
90400SOL    HW173039  13.518   5.912   5.453
90400SOL    HW273040  13.410   5.994   5.385
90401SOL     OW73041   7.345  11.366  10.362
90401SOL    HW173042   7.258  11.337  10.389
90401SOL    HW273043   7.389  11.389  10.443
90402SOL     OW73044  11.531   4.661  10.491
90402SOL    HW173045  11.595   4.699  10.552
90402SOL    HW273046  11.528   4.568  10.514
90403SOL     OW73047   2.474  12.318   4.758
90403SOL    HW173048   2.379  12.315   4.769
90403SOL    HW273049   2.509  12.330   4.846
90404SOL     OW73050   7.302   8.895   1.035
90404SOL    HW173051   7.379   8.929   1.079
90404SOL    HW273052   7.243   8.869   1.106
90405SOL     OW73053   4.200   4.875  14.397
90405SOL    HW173054   4.126   4.931  14.423
90405SOL    HW273055   4.184   4.855  14.305
90406SOL     OW73056   1.481  11.706   2.182
90406SOL    HW173057   1.467  11.705   2.088
90406SOL    HW273058   1.415  11.767   2.216
90407SOL     OW73059   4.209   7.032   2.169
90407SOL    HW173060   4.135   7.007   2.113
90407SOL    HW273061   4.273   6.961   2.158
90408SOL     OW73062   8.071   3.044   8.213
90408SOL    HW173063   8.089   3.118   8.155
90408SOL    HW273064   7.981   3.019   8.191
90409SOL     OW73065   2.131   5.224   2.920
90409SOL    HW173066   2.096   5.259   3.002
90409SOL    HW273067   2.151   5.301   2.867
90410SOL     OW73068   3.662  14.088   6.027
90410SOL    HW173069   3.615  14.030   5.967
90410SOL    HW273070   3.626  14.175   6.009
90411SOL     OW73071  13.835   1.653   0.482
90411SOL    HW173072  13.853   1.652   0.388
90411SOL    HW273073  13.922   1.655   0.523
90412SOL     OW73074  10.488  12.194   6.842
90412SOL    HW173075  10.455  12.255   6.776
90412SOL    HW273076  10.563  12.152   6.801
90413SOL     OW73077   4.575   3.933  10.615
90413SOL    HW173078   4.494   3.883  10.627
90413SOL    HW273079   4.639   3.888  10.670
90414SOL     OW73080   4.915  10.207   0.910
90414SOL    HW173081   4.857  10.148   0.959
90414SOL    HW273082   4.968  10.250   0.978
90415SOL     OW73083   8.128   4.657  10.658
90415SOL    HW173084   8.069   4.731  10.645
90415SOL    HW273085   8.215   4.692  10.636
90416SOL     OW73086  13.165   9.299   6.103
90416SOL    HW173087  13.096   9.234   6.089
90416SOL    HW273088  13.134   9.377   6.056
90417SOL     OW73089   6.906  12.987   6.448
90417SOL    HW173090   6.920  13.075   6.482
90417SOL    HW273091   6.814  12.985   6.424
90418SOL     OW73092   3.534   8.284   2.235
90418SOL    HW173093   3.534   8.376   2.209
90418SOL    HW273094   3.515   8.237   2.154
90419SOL     OW73095   6.281   1.446   1.140
90419SOL    HW173096   6.267   1.499   1.061
90419SOL    HW273097   6.195   1.442   1.182
90420SOL     OW73098   7.551   3.373  13.402
90420SOL    HW173099   7.601   3.305  13.358
90420SOL    HW273100   7.611   3.409  13.467
90421SOL     OW73101   4.689   7.736   1.086
90421SOL    HW173102   4.696   7.780   1.170
90421SOL    HW273103   4.598   7.749   1.059
90422SOL     OW73104   5.200  10.418  10.653
90422SOL    HW173105   5.261  10.384  10.587
90422SOL    HW273106   5.256  10.462  10.717
90423SOL     OW73107   2.676   5.445  12.805
90423SOL    HW173108   2.674   5.540  12.802
90423SOL    HW273109   2.767   5.423  12.823
90424SOL     OW73110   7.977   9.704   8.063
90424SOL    HW173111   7.966   9.616   8.026
90424SOL    HW273112   7.892   9.746   8.052
90425SOL     OW73113  10.157   2.565   1.032
90425SOL    HW173114  10.078   2.528   1.071
90425SOL    HW273115  10.214   2.584   1.107
90426SOL     OW73116  14.593  12.645   1.050
90426SOL    HW173117  14.572  12.680   0.964
90426SOL    HW273118  14.521  12.584   1.070
90427SOL     OW73119   6.876  14.862   3.383
90427SOL    HW173120   6.910  14.781   3.420
90427SOL    HW273121   6.803   0.013   3.441
90428SOL     OW73122   5.933  14.765  13.712
90428SOL    HW173123   5.997  14.765  13.641
90428SOL    HW273124   5.860  14.816  13.677
90429SOL     OW73125   8.755   2.949   3.394
90429SOL    HW173126   8.823   2.961   3.461
90429SOL    HW273127   8.801   2.961   3.311
90430SOL     OW73128   3.265  13.534   8.474
90430SOL    HW173129   3.292  13.598   8.539
90430SOL    HW273130   3.332  13.466   8.478
90431SOL     OW73131   2.532  13.497   0.650
90431SOL    HW173132   2.454  13.541   0.615
90431SOL    HW273133   2.518  13.497   0.745
90432SOL     OW73134   5.848  14.012  10.511
90432SOL    HW173135   5.811  13.931  10.546
90432SOL    HW273136   5.941  13.993  10.498
90433SOL     OW73137  13.181   8.444   6.022
90433SOL    HW173138  13.268   8.405   6.034
90433SOL    HW273139  13.124   8.370   6.005
90434SOL     OW73140   1.096   7.960   5.876
90434SOL    HW173141   1.174   7.996   5.920
90434SOL    HW273142   1.035   8.033   5.872
90435SOL     OW73143   0.049   5.458   0.044
90435SOL    HW173144   0.042   5.396  14.845
90435SOL    HW273145   0.142   5.457   0.067
90436SOL     OW73146   6.698  11.661   5.607
90436SOL    HW173147   6.611  11.697   5.590
90436SOL    HW273148   6.687  11.606   5.684
90437SOL     OW73149  12.427   6.521   5.331
90437SOL    HW173150  12.498   6.471   5.292
90437SOL    HW273151  12.384   6.460   5.390
90438SOL     OW73152   9.231  13.944  10.630
90438SOL    HW173153   9.212  13.852  10.614
90438SOL    HW273154   9.154  13.990  10.595
90439SOL     OW73155   0.239   2.446   2.228
90439SOL    HW173156   0.249   2.445   2.323
90439SOL    HW273157   0.288   2.523   2.200
90440SOL     OW73158   0.213  10.246  14.129
90440SOL    HW173159   0.299  10.275  14.160
90440SOL    HW273160   0.164  10.226  14.208
90441SOL     OW73161   5.113   0.317   8.279
90441SOL    HW173162   5.090   0.388   8.220
90441SOL    HW273163   5.208   0.310   8.273
90442SOL     OW73164   1.069   8.411   2.314
90442SOL    HW173165   1.006   8.424   2.243
90442SOL    HW273166   1.128   8.343   2.283
90443SOL     OW73167   7.229   9.105   8.944
90443SOL    HW173168   7.240   9.181   8.887
90443SOL    HW273169   7.273   9.034   8.898
90444SOL     OW73170   1.215  11.133  10.203
90444SOL    HW173171   1.223  11.103  10.113
90444SOL    HW273172   1.220  11.053  10.256
90445SOL     OW73173   6.152   8.763   1.571
90445SOL    HW173174   6.223   8.819   1.602
90445SOL    HW273175   6.101   8.819   1.512
90446SOL     OW73176   1.260   1.673   1.056
90446SOL    HW173177   1.197   1.632   0.997
90446SOL    HW273178   1.328   1.606   1.067
90447SOL     OW73179   3.784   9.158   0.896
90447SOL    HW173180   3.775   9.114   0.811
90447SOL    HW273181   3.747   9.246   0.881
90448SOL     OW73182   9.741  12.641  10.744
90448SOL    HW173183   9.738  12.719  10.800
90448SOL    HW273184   9.790  12.577  10.796
90449SOL     OW73185  13.897   3.408   2.595
90449SOL    HW173186  13.927   3.482   2.649
90449SOL    HW273187  13.866   3.448   2.514
90450SOL     OW73188   0.146   9.525   7.381
90450SOL    HW173189   0.200   9.597   7.348
90450SOL    HW273190   0.062   9.536   7.336
90451SOL     OW73191   6.636  10.277   8.827
90451SOL    HW173192   6.729  10.301   8.821
90451SOL    HW273193   6.632  10.190   8.788
90452SOL     OW73194   9.515  10.519   1.454
90452SOL    HW173195   9.494  10.508   1.547
90452SOL    HW273196   9.536  10.430   1.424
90453SOL     OW73197   7.679   2.755  12.737
90453SOL    HW173198   7.698   2.764  12.830
90453SOL    HW273199   7.593   2.714  12.733
90454SOL     OW73200   9.812  10.502   1.984
90454SOL    HW173201   9.763  10.584   1.996
90454SOL    HW273202   9.849  10.484   2.071
90455SOL     OW73203   7.748   6.081   4.394
90455SOL    HW173204   7.711   6.006   4.347
90455SOL    HW273205   7.830   6.100   4.349
90456SOL     OW73206   3.301  14.402  11.739
90456SOL    HW173207   3.358  14.353  11.799
90456SOL    HW273208   3.359  14.431  11.669
90457SOL     OW73209   0.085   0.423   6.237
90457SOL    HW173210   0.019   0.452   6.175
90457SOL    HW273211   0.039   0.362   6.295
90458SOL     OW73212   4.077   9.058   0.527
90458SOL    HW173213   4.128   9.002   0.585
90458SOL    HW273214   4.119   9.050   0.442
90459SOL     OW73215  12.258   3.568   5.898
90459SOL    HW173216  12.285   3.479   5.876
90459SOL    HW273217  12.338   3.620   5.892
90460SOL     OW73218   2.903  10.633   6.072
90460SOL    HW173219   2.961  10.578   6.125
90460SOL    HW273220   2.919  10.722   6.104
90461SOL     OW73221   8.409  11.008   9.675
90461SOL    HW173222   8.407  10.957   9.756
90461SOL    HW273223   8.368  11.091   9.698
90462SOL     OW73224  14.719   2.801   5.748
90462SOL    HW173225  14.690   2.797   5.657
90462SOL    HW273226  14.722   2.709   5.776
90463SOL     OW73227   2.676   6.998   9.518
90463SOL    HW173228   2.640   7.047   9.444
90463SOL    HW273229   2.602   6.991   9.579
90464SOL     OW73230   7.919  14.861  14.583
90464SOL    HW173231   7.838  14.819  14.612
90464SOL    HW273232   7.982  14.789  14.574
90465SOL     OW73233  11.123   6.305   6.640
90465SOL    HW173234  11.130   6.383   6.695
90465SOL    HW273235  11.185   6.320   6.569
90466SOL     OW73236   9.842   6.371   4.237
90466SOL    HW173237   9.886   6.360   4.322
90466SOL    HW273238   9.910   6.407   4.180
90467SOL     OW73239   7.881   2.376   2.808
90467SOL    HW173240   7.873   2.282   2.788
90467SOL    HW273241   7.933   2.379   2.888
90468SOL     OW73242  13.725  10.279   0.678
90468SOL    HW173243  13.664  10.306   0.609
90468SOL    HW273244  13.710  10.185   0.688
90469SOL     OW73245   5.511  11.863  11.916
90469SOL    HW173246   5.532  11.880  12.008
90469SOL    HW273247   5.516  11.768  11.908
90470SOL     OW73248   1.744   4.080  11.836
90470SOL    HW173249   1.821   4.062  11.891
90470SOL    HW273250   1.757   4.170  11.806
90471SOL     OW73251   1.839  10.312   0.026
90471SOL    HW173252   1.847  10.403   0.054
90471SOL    HW273253   1.918  10.296  14.847
90472SOL     OW73254   5.976   5.320   8.952
90472SOL    HW173255   6.006   5.387   8.890
90472SOL    HW273256   6.054   5.267   8.968
90473SOL     OW73257   6.686  10.887   5.599
90473SOL    HW173258   6.686  10.848   5.686
90473SOL    HW273259   6.632  10.966   5.607
90474SOL     OW73260  13.537   1.191   5.209
90474SOL    HW173261  13.622   1.158   5.182
90474SOL    HW273262  13.487   1.198   5.128
90475SOL     OW73263   7.965  13.170  10.102
90475SOL    HW173264   7.970  13.152  10.196
90475SOL    HW273265   7.982  13.085  10.061
90476SOL     OW73266  11.331   0.419  12.030
90476SOL    HW173267  11.370   0.411  12.117
90476SOL    HW273268  11.406   0.422  11.970
90477SOL     OW73269   0.666   3.924  11.086
90477SOL    HW173270   0.623   3.845  11.054
90477SOL    HW273271   0.662   3.985  11.013
90478SOL     OW73272   8.753  14.513   9.285
90478SOL    HW173273   8.740  14.433   9.336
90478SOL    HW273274   8.696  14.577   9.327
90479SOL     OW73275   9.964   1.405  14.222
90479SOL    HW173276   9.929   1.481  14.175
90479SOL    HW273277  10.028   1.367  14.162
90480SOL     OW73278  10.663   2.379   7.541
90480SOL    HW173279  10.741   2.386   7.485
90480SOL    HW273280  10.641   2.470   7.562
90481SOL     OW73281   3.356  14.384   0.004
90481SOL    HW173282   3.386  14.376  14.786
90481SOL    HW273283   3.398  14.463   0.037
90482SOL     OW73284   5.115   0.643   2.852
90482SOL    HW173285   5.110   0.550   2.872
90482SOL    HW273286   5.029   0.666   2.817
90483SOL     OW73287  13.244   4.451  13.668
90483SOL    HW173288  13.236   4.540  13.703
90483SOL    HW273289  13.184   4.399  13.720
90484SOL     OW73290   8.725   3.824  11.712
90484SOL    HW173291   8.736   3.904  11.660
90484SOL    HW273292   8.660   3.773  11.663
90485SOL     OW73293   3.303   8.318   4.378
90485SOL    HW173294   3.374   8.321   4.315
90485SOL    HW273295   3.344   8.291   4.460
90486SOL     OW73296   3.457   9.195   0.670
90486SOL    HW173297   3.368   9.230   0.668
90486SOL    HW273298   3.513   9.269   0.647
90487SOL     OW73299   1.995   9.569   9.003
90487SOL    HW173300   2.086   9.598   9.004
90487SOL    HW273301   1.980   9.534   9.090
90488SOL     OW73302   4.708   8.795   1.415
90488SOL    HW173303   4.760   8.827   1.342
90488SOL    HW273304   4.769   8.797   1.490
90489SOL     OW73305   0.228   4.900   9.661
90489SOL    HW173306   0.204   4.854   9.580
90489SOL    HW273307   0.149   4.947   9.687
90490SOL     OW73308   7.171   6.647   9.795
90490SOL    HW173309   7.207   6.559   9.806
90490SOL    HW273310   7.233   6.704   9.839
90491SOL     OW73311  12.328   0.519   4.204
90491SOL    HW173312  12.392   0.460   4.243
90491SOL    HW273313  12.379   0.575   4.145
90492SOL     OW73314   6.175  14.229  14.367
90492SOL    HW173315   6.154  14.292  14.436
90492SOL    HW273316   6.259  14.191  14.393
90493SOL     OW73317   5.631   7.679  14.445
90493SOL    HW173318   5.560   7.739  14.465
90493SOL    HW273319   5.589   7.593  14.440
90494SOL     OW73320   2.245  13.161   1.978
90494SOL    HW173321   2.238  13.161   2.073
90494SOL    HW273322   2.214  13.074   1.952
90495SOL     OW73323   4.050  10.092   9.478
90495SOL    HW173324   4.055  10.187   9.466
90495SOL    HW273325   4.052  10.080   9.573
90496SOL     OW73326   9.337   6.562   6.445
90496SOL    HW173327   9.364   6.475   6.472
90496SOL    HW273328   9.267   6.586   6.506
90497SOL     OW73329  14.403  14.400   7.013
90497SOL    HW173330  14.447  14.383   7.096
90497SOL    HW273331  14.457  14.356   6.948
90498SOL     OW73332  13.202   0.162   3.746
90498SOL    HW173333  13.144   0.093   3.777
90498SOL    HW273334  13.285   0.146   3.791
90499SOL     OW73335   9.826   4.945  10.186
90499SOL    HW173336   9.881   5.020  10.208
90499SOL    HW273337   9.885   4.885  10.139
90500SOL     OW73338   0.624   1.459   3.886
90500SOL    HW173339   0.598   1.525   3.949
90500SOL    HW273340   0.556   1.392   3.891
90501SOL     OW73341   5.100   4.388   7.214
90501SOL    HW173342   5.053   4.376   7.131
90501SOL    HW273343   5.045   4.345   7.279
90502SOL     OW73344   5.368   6.294   2.100
90502SOL    HW173345   5.365   6.243   2.019
90502SOL    HW273346   5.388   6.383   2.072
90503SOL     OW73347   8.063  12.091   3.830
90503SOL    HW173348   7.989  12.060   3.882
90503SOL    HW273349   8.060  12.039   3.750
90504SOL     OW73350   3.373   4.779   5.556
90504SOL    HW173351   3.350   4.686   5.549
90504SOL    HW273352   3.338   4.805   5.642
90505SOL     OW73353   8.561   1.289   1.368
90505SOL    HW173354   8.568   1.195   1.349
90505SOL    HW273355   8.467   1.305   1.377
90506SOL     OW73356   0.333   8.351   6.773
90506SOL    HW173357   0.385   8.359   6.853
90506SOL    HW273358   0.398   8.342   6.703
90507SOL     OW73359   2.610  14.294   8.393
90507SOL    HW173360   2.664  14.284   8.314
90507SOL    HW273361   2.665  14.262   8.464
90508SOL     OW73362   5.759   2.889  13.875
90508SOL    HW173363   5.853   2.886  13.861
90508SOL    HW273364   5.722   2.839  13.802
90509SOL     OW73365   4.424   7.898   2.215
90509SOL    HW173366   4.361   7.953   2.169
90509SOL    HW273367   4.486   7.871   2.148
90510SOL     OW73368  10.658   7.452   0.682
90510SOL    HW173369  10.638   7.514   0.753
90510SOL    HW273370  10.637   7.366   0.718
90511SOL     OW73371   2.772   5.030  13.658
90511SOL    HW173372   2.677   5.020  13.660
90511SOL    HW273373   2.798   5.000  13.571
90512SOL     OW73374  10.658  10.446  10.853
90512SOL    HW173375  10.718  10.501  10.903
90512SOL    HW273376  10.677  10.357  10.882
90513SOL     OW73377  11.848   3.968   0.031
90513SOL    HW173378  11.831   3.882  14.867
90513SOL    HW273379  11.812   4.029  14.839
90514SOL     OW73380   2.391  13.314   4.131
90514SOL    HW173381   2.484  13.295   4.132
90514SOL    HW273382   2.386  13.410   4.134
90515SOL     OW73383   7.761  10.994  13.312
90515SOL    HW173384   7.681  10.982  13.260
90515SOL    HW273385   7.758  11.087  13.338
90516SOL     OW73386   2.061   9.208   8.323
90516SOL    HW173387   2.055   9.156   8.403
90516SOL    HW273388   2.149   9.245   8.324
90517SOL     OW73389  13.167   2.851   3.647
90517SOL    HW173390  13.257   2.883   3.637
90517SOL    HW273391  13.114   2.930   3.645
90518SOL     OW73392   7.518  12.872  12.104
90518SOL    HW173393   7.465  12.877  12.024
90518SOL    HW273394   7.499  12.785  12.140
90519SOL     OW73395   2.444   8.627  10.822
90519SOL    HW173396   2.424   8.710  10.864
90519SOL    HW273397   2.363   8.604  10.776
90520SOL     OW73398   3.234   5.155  10.724
90520SOL    HW173399   3.258   5.146  10.631
90520SOL    HW273400   3.306   5.112  10.771
90521SOL     OW73401  14.096  10.018   3.252
90521SOL    HW173402  14.021   9.969   3.285
90521SOL    HW273403  14.172   9.971   3.287
90522SOL     OW73404   4.719   1.406   0.517
90522SOL    HW173405   4.767   1.398   0.600
90522SOL    HW273406   4.777   1.457   0.461
90523SOL     OW73407  11.112   1.498   4.905
90523SOL    HW173408  11.113   1.580   4.857
90523SOL    HW273409  11.044   1.446   4.862
90524SOL     OW73410   3.538   4.372   3.900
90524SOL    HW173411   3.502   4.291   3.937
90524SOL    HW273412   3.609   4.396   3.959
90525SOL     OW73413   0.800   7.049   5.700
90525SOL    HW173414   0.774   6.962   5.667
90525SOL    HW273415   0.758   7.110   5.640
90526SOL     OW73416   4.358   4.971   7.899
90526SOL    HW173417   4.407   4.921   7.964
90526SOL    HW273418   4.268   4.972   7.933
90527SOL     OW73419   7.215   1.745   4.123
90527SOL    HW173420   7.293   1.769   4.173
90527SOL    HW273421   7.143   1.754   4.185
90528SOL     OW73422   0.049   6.259  10.927
90528SOL    HW173423  14.860   6.191  10.952
90528SOL    HW273424   0.017   6.338  10.970
90529SOL     OW73425   5.093  10.977  10.385
90529SOL    HW173426   5.039  10.904  10.354
90529SOL    HW273427   5.052  11.054  10.347
90530SOL     OW73428   4.122   5.592   9.666
90530SOL    HW173429   4.057   5.656   9.636
90530SOL    HW273430   4.089   5.508   9.634
90531SOL     OW73431   5.423  11.409   3.034
90531SOL    HW173432   5.424  11.399   3.130
90531SOL    HW273433   5.450  11.499   3.019
90532SOL     OW73434  11.974   5.398   1.826
90532SOL    HW173435  11.918   5.336   1.778
90532SOL    HW273436  11.913   5.451   1.877
90533SOL     OW73437  10.052   3.295   5.345
90533SOL    HW173438  10.018   3.378   5.310
90533SOL    HW273439   9.974   3.246   5.371
90534SOL     OW73440   8.040   3.003  13.769
90534SOL    HW173441   8.051   3.002  13.674
90534SOL    HW273442   8.011   2.914  13.790
90535SOL     OW73443   8.541   8.468  13.359
90535SOL    HW173444   8.600   8.399  13.390
90535SOL    HW273445   8.577   8.495  13.275
90536SOL     OW73446   0.857   8.615  12.774
90536SOL    HW173447   0.883   8.584  12.860
90536SOL    HW273448   0.827   8.705  12.788
90537SOL     OW73449   1.918   0.482   9.596
90537SOL    HW173450   1.982   0.473   9.525
90537SOL    HW273451   1.845   0.425   9.569
90538SOL     OW73452   9.432  11.033  10.781
90538SOL    HW173453   9.437  11.070  10.870
90538SOL    HW273454   9.425  10.938  10.796
90539SOL     OW73455  13.964   8.291  10.418
90539SOL    HW173456  13.926   8.349  10.352
90539SOL    HW273457  13.992   8.214  10.369
90540SOL     OW73458   2.093   4.548  12.164
90540SOL    HW173459   2.082   4.597  12.246
90540SOL    HW273460   2.185   4.521  12.164
90541SOL     OW73461   6.314  12.168   6.547
90541SOL    HW173462   6.293  12.108   6.476
90541SOL    HW273463   6.287  12.122   6.627
90542SOL     OW73464   9.534  14.490  12.447
90542SOL    HW173465   9.492  14.492  12.533
90542SOL    HW273466   9.497  14.565  12.400
90543SOL     OW73467   6.196  12.518   9.455
90543SOL    HW173468   6.200  12.508   9.360
90543SOL    HW273469   6.282  12.490   9.486
90544SOL     OW73470  12.824  12.042   6.217
90544SOL    HW173471  12.830  12.025   6.123
90544SOL    HW273472  12.732  12.027   6.238
90545SOL     OW73473   7.332   8.997  10.340
90545SOL    HW173474   7.261   9.041  10.388
90545SOL    HW273475   7.402   9.062  10.336
90546SOL     OW73476   8.264   3.617   2.882
90546SOL    HW173477   8.252   3.712   2.891
90546SOL    HW273478   8.331   3.596   2.947
90547SOL     OW73479   9.533  12.568   1.164
90547SOL    HW173480   9.533  12.594   1.256
90547SOL    HW273481   9.518  12.473   1.167
90548SOL     OW73482  14.015  13.385   2.094
90548SOL    HW173483  14.058  13.308   2.056
90548SOL    HW273484  14.077  13.457   2.078
90549SOL     OW73485  13.478  13.648   9.603
90549SOL    HW173486  13.555  13.596   9.626
90549SOL    HW273487  13.512  13.737   9.595
90550SOL     OW73488   5.186  10.861  12.610
90550SOL    HW173489   5.245  10.937  12.600
90550SOL    HW273490   5.141  10.855  12.526
90551SOL     OW73491   7.761   2.815   2.210
90551SOL    HW173492   7.674   2.788   2.237
90551SOL    HW273493   7.748   2.900   2.167
90552SOL     OW73494  10.800   9.467   8.179
90552SOL    HW173495  10.735   9.484   8.111
90552SOL    HW273496  10.748   9.438   8.254
90553SOL     OW73497   9.231   5.438   2.629
90553SOL    HW173498   9.224   5.370   2.562
90553SOL    HW273499   9.143   5.443   2.667
90554SOL     OW73500   6.615   0.951   4.859
90554SOL    HW173501   6.573   0.998   4.931
90554SOL    HW273502   6.555   0.880   4.838
90555SOL     OW73503   1.725   0.577  10.917
90555SOL    HW173504   1.819   0.578  10.900
90555SOL    HW273505   1.686   0.551  10.834
90556SOL     OW73506   1.373   3.142   4.715
90556SOL    HW173507   1.445   3.120   4.773
90556SOL    HW273508   1.384   3.235   4.697
90557SOL     OW73509   1.121   9.441   5.030
90557SOL    HW173510   1.183   9.453   4.959
90557SOL    HW273511   1.038   9.477   4.997
90558SOL     OW73512  12.827   1.776   6.490
90558SOL    HW173513  12.843   1.859   6.535
90558SOL    HW273514  12.913   1.753   6.453
90559SOL     OW73515   6.992   1.598  13.628
90559SOL    HW173516   6.959   1.585  13.717
90559SOL    HW273517   7.085   1.577  13.634
90560SOL     OW73518   3.884  14.096  11.716
90560SOL    HW173519   3.824  14.107  11.789
90560SOL    HW273520   3.971  14.097  11.756
90561SOL     OW73521   4.760  11.634   5.132
90561SOL    HW173522   4.713  11.702   5.082
90561SOL    HW273523   4.712  11.628   5.214
90562SOL     OW73524  11.907   3.540   7.273
90562SOL    HW173525  11.857   3.481   7.329
90562SOL    HW273526  11.984   3.563   7.324
90563SOL     OW73527  13.551  10.226   9.128
90563SOL    HW173528  13.582  10.195   9.043
90563SOL    HW273529  13.460  10.196   9.133
90564SOL     OW73530   0.223   5.946   6.996
90564SOL    HW173531   0.192   5.953   7.087
90564SOL    HW273532   0.251   5.855   6.987
90565SOL     OW73533   1.703   9.433   4.317
90565SOL    HW173534   1.728   9.447   4.408
90565SOL    HW273535   1.772   9.477   4.266
90566SOL     OW73536   7.646   4.849  11.595
90566SOL    HW173537   7.621   4.907  11.522
90566SOL    HW273538   7.740   4.863  11.606
90567SOL     OW73539   7.887  10.123   7.478
90567SOL    HW173540   7.970  10.091   7.514
90567SOL    HW273541   7.903  10.216   7.464
90568SOL     OW73542  13.983   7.491   3.306
90568SOL    HW173543  14.039   7.418   3.280
90568SOL    HW273544  13.895   7.454   3.312
90569SOL     OW73545   0.031   8.083   3.019
90569SOL    HW173546  14.842   8.017   3.049
90569SOL    HW273547   0.072   8.043   2.942
90570SOL     OW73548   6.159  12.276  11.898
90570SOL    HW173549   6.235  12.262  11.841
90570SOL    HW273550   6.176  12.359  11.941
90571SOL     OW73551   0.749   3.361  14.196
90571SOL    HW173552   0.747   3.308  14.117
90571SOL    HW273553   0.659   3.358  14.229
90572SOL     OW73554  13.799   5.334  10.992
90572SOL    HW173555  13.888   5.366  10.978
90572SOL    HW273556  13.797   5.250  10.947
90573SOL     OW73557   9.881   8.928  12.518
90573SOL    HW173558   9.959   8.969  12.481
90573SOL    HW273559   9.831   9.000  12.557
90574SOL     OW73560   7.586   3.486   0.326
90574SOL    HW173561   7.520   3.555   0.316
90574SOL    HW273562   7.666   3.534   0.348
90575SOL     OW73563  12.903   5.045   3.506
90575SOL    HW173564  12.916   5.133   3.472
90575SOL    HW273565  12.905   4.988   3.429
90576SOL     OW73566   4.130  11.903   6.397
90576SOL    HW173567   4.210  11.955   6.407
90576SOL    HW273568   4.113  11.869   6.485
90577SOL     OW73569  12.928  13.838  13.195
90577SOL    HW173570  12.983  13.760  13.182
90577SOL    HW273571  12.950  13.894  13.121
90578SOL     OW73572   4.791   4.983   4.988
90578SOL    HW173573   4.846   4.908   4.967
90578SOL    HW273574   4.707   4.964   4.945
90579SOL     OW73575   9.511   3.776   2.627
90579SOL    HW173576   9.447   3.752   2.694
90579SOL    HW273577   9.596   3.766   2.670
90580SOL     OW73578   7.265   7.842   3.126
90580SOL    HW173579   7.181   7.870   3.089
90580SOL    HW273580   7.252   7.847   3.221
90581SOL     OW73581   6.714  14.559   3.314
90581SOL    HW173582   6.790  14.602   3.354
90581SOL    HW273583   6.697  14.609   3.235
90582SOL     OW73584   2.929   9.030   6.552
90582SOL    HW173585   2.915   9.120   6.581
90582SOL    HW273586   2.970   9.038   6.466
90583SOL     OW73587   0.490   2.570  13.710
90583SOL    HW173588   0.558   2.532  13.655
90583SOL    HW273589   0.516   2.546  13.799
90584SOL     OW73590   8.681   3.647   0.043
90584SOL    HW173591   8.599   3.647  14.866
90584SOL    HW273592   8.659   3.601   0.124
90585SOL     OW73593   0.638  11.098  11.210
90585SOL    HW173594   0.594  11.056  11.285
90585SOL    HW273595   0.722  11.126  11.245
90586SOL     OW73596   6.669  12.329   8.022
90586SOL    HW173597   6.663  12.246   7.974
90586SOL    HW273598   6.758  12.359   8.006
90587SOL     OW73599   6.642  13.177   9.387
90587SOL    HW173600   6.688  13.107   9.431
90587SOL    HW273601   6.602  13.136   9.311
90588SOL     OW73602   0.672  13.192  14.110
90588SOL    HW173603   0.676  13.107  14.067
90588SOL    HW273604   0.599  13.238  14.069
90589SOL     OW73605   4.658   0.351   7.844
90589SOL    HW173606   4.668   0.414   7.773
90589SOL    HW273607   4.713   0.277   7.819
90590SOL     OW73608   1.169   6.161   4.253
90590SOL    HW173609   1.094   6.202   4.209
90590SOL    HW273610   1.239   6.227   4.247
90591SOL     OW73611   7.956   3.859   6.070
90591SOL    HW173612   8.004   3.836   5.989
90591SOL    HW273613   8.005   3.932   6.106
90592SOL     OW73614  13.301   8.447  10.643
90592SOL    HW173615  13.356   8.371  10.625
90592SOL    HW273616  13.215   8.423  10.609
90593SOL     OW73617   8.958  10.335   9.199
90593SOL    HW173618   9.009  10.400   9.248
90593SOL    HW273619   8.955  10.370   9.110
90594SOL     OW73620   0.471   6.980   5.594
90594SOL    HW173621   0.531   6.936   5.653
90594SOL    HW273622   0.426   7.044   5.649
90595SOL     OW73623  10.453   4.151   0.164
90595SOL    HW173624  10.421   4.150   0.074
90595SOL    HW273625  10.546   4.130   0.157
90596SOL     OW73626   8.255   9.578  14.155
90596SOL    HW173627   8.246   9.567  14.060
90596SOL    HW273628   8.178   9.628  14.181
90597SOL     OW73629   1.203  14.563   1.760
90597SOL    HW173630   1.243  14.477   1.770
90597SOL    HW273631   1.133  14.549   1.696
90598SOL     OW73632  11.873   0.131   6.767
90598SOL    HW173633  11.907   0.042   6.761
90598SOL    HW273634  11.786   0.127   6.726
90599SOL     OW73635   7.242   3.108   5.081
90599SOL    HW173636   7.311   3.041   5.082
90599SOL    HW273637   7.161   3.059   5.074
90600SOL     OW73638   7.851  14.202  11.618
90600SOL    HW173639   7.899  14.283  11.601
90600SOL    HW273640   7.765  14.217  11.579
90601SOL     OW73641  13.796  10.892   2.331
90601SOL    HW173642  13.877  10.907   2.380
90601SOL    HW273643  13.822  10.835   2.258
90602SOL     OW73644   2.637  11.081   5.790
90602SOL    HW173645   2.597  10.995   5.777
90602SOL    HW273646   2.609  11.133   5.715
90603SOL     OW73647  10.872   5.397   4.117
90603SOL    HW173648  10.858   5.334   4.046
90603SOL    HW273649  10.920   5.348   4.184
90604SOL     OW73650  10.257   7.182   1.911
90604SOL    HW173651  10.345   7.151   1.931
90604SOL    HW273652  10.217   7.197   1.997
90605SOL     OW73653   7.307   0.549  13.233
90605SOL    HW173654   7.303   0.454  13.220
90605SOL    HW273655   7.295   0.560  13.328
90606SOL     OW73656   8.691   7.679  11.646
90606SOL    HW173657   8.769   7.666  11.700
90606SOL    HW273658   8.706   7.625  11.569
90607SOL     OW73659   3.371  14.241  12.180
90607SOL    HW173660   3.389  14.174  12.246
90607SOL    HW273661   3.287  14.278  12.206
90608SOL     OW73662   1.325  12.788   8.284
90608SOL    HW173663   1.356  12.712   8.234
90608SOL    HW273664   1.289  12.751   8.364
90609SOL     OW73665  11.593   4.844   9.441
90609SOL    HW173666  11.612   4.913   9.505
90609SOL    HW273667  11.672   4.839   9.387
90610SOL     OW73668   2.150   0.446   3.960
90610SOL    HW173669   2.192   0.384   4.019
90610SOL    HW273670   2.185   0.531   3.987
90611SOL     OW73671   8.452  12.607   9.029
90611SOL    HW173672   8.386  12.559   8.979
90611SOL    HW273673   8.525  12.546   9.038
90612SOL     OW73674   5.789   3.420   3.229
90612SOL    HW173675   5.736   3.441   3.305
90612SOL    HW273676   5.736   3.448   3.154
90613SOL     OW73677   2.481   9.656  10.707
90613SOL    HW173678   2.503   9.633  10.617
90613SOL    HW273679   2.452   9.573  10.746
90614SOL     OW73680  10.434  12.303  12.648
90614SOL    HW173681  10.426  12.393  12.616
90614SOL    HW273682  10.517  12.302  12.697
90615SOL     OW73683  14.818   4.404   7.057
90615SOL    HW173684  14.731   4.378   7.027
90615SOL    HW273685  14.820   4.499   7.045
90616SOL     OW73686   3.918   1.983   0.577
90616SOL    HW173687   3.990   2.017   0.523
90616SOL    HW273688   3.962   1.945   0.653
90617SOL     OW73689   3.738   2.810  11.997
90617SOL    HW173690   3.722   2.756  12.075
90617SOL    HW273691   3.817   2.773  11.958
90618SOL     OW73692  11.921   6.992  11.844
90618SOL    HW173693  11.890   7.076  11.810
90618SOL    HW273694  11.964   7.014  11.927
90619SOL     OW73695   1.104   8.053   9.786
90619SOL    HW173696   1.061   8.029   9.704
90619SOL    HW273697   1.124   8.147   9.776
90620SOL     OW73698   9.991  14.513   4.357
90620SOL    HW173699   9.943  14.561   4.425
90620SOL    HW273700  10.082  14.541   4.366
90621SOL     OW73701   6.228   6.458   4.925
90621SOL    HW173702   6.145   6.410   4.929
90621SOL    HW273703   6.241   6.489   5.015
90622SOL     OW73704   1.282  11.317   1.532
90622SOL    HW173705   1.322  11.404   1.535
90622SOL    HW273706   1.292  11.288   1.442
90623SOL     OW73707  13.844   1.107   8.710
90623SOL    HW173708  13.925   1.093   8.661
90623SOL    HW273709  13.776   1.071   8.654
90624SOL     OW73710  13.114  11.678   5.096
90624SOL    HW173711  13.060  11.602   5.117
90624SOL    HW273712  13.153  11.657   5.011
90625SOL     OW73713  11.730  11.672  12.191
90625SOL    HW173714  11.636  11.664  12.209
90625SOL    HW273715  11.769  11.685  12.277
90626SOL     OW73716   9.784   6.720  10.323
90626SOL    HW173717   9.871   6.748  10.354
90626SOL    HW273718   9.723   6.774  10.373
90627SOL     OW73719   8.689   6.122   6.709
90627SOL    HW173720   8.758   6.134   6.774
90627SOL    HW273721   8.712   6.182   6.638
90628SOL     OW73722  11.841   0.190   3.399
90628SOL    HW173723  11.934   0.178   3.416
90628SOL    HW273724  11.837   0.217   3.307
90629SOL     OW73725   7.285  12.620  10.290
90629SOL    HW173726   7.368  12.618  10.337
90629SOL    HW273727   7.233  12.685  10.336
90630SOL     OW73728   1.380  14.527   2.043
90630SOL    HW173729   1.342  14.440   2.031
90630SOL    HW273730   1.310  14.578   2.085
90631SOL     OW73731   1.133  10.403  10.776
90631SOL    HW173732   1.212  10.356  10.749
90631SOL    HW273733   1.154  10.495  10.763
90632SOL     OW73734  13.843   2.464   0.315
90632SOL    HW173735  13.936   2.444   0.328
90632SOL    HW273736  13.805   2.381   0.286
90633SOL     OW73737   4.595   6.129   1.046
90633SOL    HW173738   4.613   6.093   0.959
90633SOL    HW273739   4.600   6.054   1.105
90634SOL     OW73740   2.971  10.489   8.587
90634SOL    HW173741   3.014  10.501   8.502
90634SOL    HW273742   3.039  10.508   8.651
90635SOL     OW73743   6.696  11.630   2.465
90635SOL    HW173744   6.675  11.559   2.403
90635SOL    HW273745   6.684  11.591   2.551
90636SOL     OW73746   9.413   4.490   3.968
90636SOL    HW173747   9.466   4.418   3.933
90636SOL    HW273748   9.330   4.484   3.921
90637SOL     OW73749  14.858   0.294   4.335
90637SOL    HW173750   0.042   0.243   4.278
90637SOL    HW273751   0.031   0.297   4.419
90638SOL     OW73752  14.742  10.531   9.013
90638SOL    HW173753  14.772  10.453   8.966
90638SOL    HW273754  14.823  10.571   9.045
90639SOL     OW73755  12.843   4.311  11.836
90639SOL    HW173756  12.845   4.407  11.844
90639SOL    HW273757  12.802   4.296  11.751
90640SOL     OW73758  10.335   3.580  14.224
90640SOL    HW173759  10.305   3.609  14.137
90640SOL    HW273760  10.342   3.485  14.216
90641SOL     OW73761   2.357  12.487  12.344
90641SOL    HW173762   2.340  12.445  12.428
90641SOL    HW273763   2.392  12.416  12.289
90642SOL     OW73764   8.266   1.381   9.320
90642SOL    HW173765   8.234   1.438   9.390
90642SOL    HW273766   8.296   1.440   9.252
90643SOL     OW73767   1.655   8.236  11.559
90643SOL    HW173768   1.623   8.228  11.649
90643SOL    HW273769   1.628   8.154  11.517
90644SOL     OW73770   4.841   8.704   6.052
90644SOL    HW173771   4.754   8.703   6.011
90644SOL    HW273772   4.844   8.622   6.102
90645SOL     OW73773   0.240   2.046  14.260
90645SOL    HW173774   0.317   2.001  14.225
90645SOL    HW273775   0.223   2.116  14.197
90646SOL     OW73776  13.283   7.741   4.695
90646SOL    HW173777  13.356   7.683   4.676
90646SOL    HW273778  13.305   7.822   4.648
90647SOL     OW73779  12.738   6.755   8.824
90647SOL    HW173780  12.682   6.800   8.761
90647SOL    HW273781  12.708   6.664   8.822
90648SOL     OW73782  14.273   7.659   7.429
90648SOL    HW173783  14.271   7.576   7.383
90648SOL    HW273784  14.216   7.717   7.378
90649SOL     OW73785   9.175   5.343   6.593
90649SOL    HW173786   9.221   5.425   6.575
90649SOL    HW273787   9.104   5.340   6.529
90650SOL     OW73788   7.801  11.345   3.916
90650SOL    HW173789   7.780  11.295   3.994
90650SOL    HW273790   7.851  11.420   3.948
90651SOL     OW73791   0.839   7.824   0.201
90651SOL    HW173792   0.828   7.917   0.180
90651SOL    HW273793   0.762   7.802   0.253
90652SOL     OW73794   7.077   3.608   5.204
90652SOL    HW173795   7.052   3.538   5.263
90652SOL    HW273796   7.019   3.681   5.227
90653SOL     OW73797   5.220  11.626   8.912
90653SOL    HW173798   5.228  11.626   8.817
90653SOL    HW273799   5.130  11.655   8.929
90654SOL     OW73800   1.122   9.000  12.210
90654SOL    HW173801   1.194   9.061  12.192
90654SOL    HW273802   1.047   9.057  12.228
90655SOL     OW73803   5.107   5.333   7.747
90655SOL    HW173804   5.146   5.346   7.833
90655SOL    HW273805   5.154   5.257   7.711
90656SOL     OW73806   5.945   5.530   1.539
90656SOL    HW173807   5.995   5.585   1.599
90656SOL    HW273808   5.974   5.558   1.452
90657SOL     OW73809   1.786  13.250   2.921
90657SOL    HW173810   1.815  13.186   2.986
90657SOL    HW273811   1.866  13.280   2.878
90658SOL     OW73812   6.924   8.865  10.139
90658SOL    HW173813   6.882   8.789  10.098
90658SOL    HW273814   6.986   8.897  10.073
90659SOL     OW73815   8.804   6.940   2.460
90659SOL    HW173816   8.805   6.992   2.380
90659SOL    HW273817   8.713   6.914   2.471
90660SOL     OW73818  10.634   8.257  11.145
90660SOL    HW173819  10.569   8.328  11.144
90660SOL    HW273820  10.718   8.302  11.143
90661SOL     OW73821   7.121   4.076  10.852
90661SOL    HW173822   7.189   4.111  10.794
90661SOL    HW273823   7.128   3.981  10.842
90662SOL     OW73824   0.980  12.047   6.964
90662SOL    HW173825   1.023  12.131   6.979
90662SOL    HW273826   1.018  12.015   6.882
90663SOL     OW73827   7.752  14.746   0.120
90663SOL    HW173828   7.717  14.775   0.035
90663SOL    HW273829   7.682  14.691   0.156
90664SOL     OW73830   5.564  12.638  13.534
90664SOL    HW173831   5.637  12.604  13.484
90664SOL    HW273832   5.565  12.587  13.615
90665SOL     OW73833   8.524   3.058  10.779
90665SOL    HW173834   8.435   3.082  10.803
90665SOL    HW273835   8.572   3.140  10.775
90666SOL     OW73836   1.991   3.972   8.587
90666SOL    HW173837   1.956   3.893   8.545
90666SOL    HW273838   1.946   4.044   8.542
90667SOL     OW73839  12.764   0.700   2.012
90667SOL    HW173840  12.842   0.752   1.995
90667SOL    HW273841  12.790   0.610   1.993
90668SOL     OW73842   5.846   9.435  10.606
90668SOL    HW173843   5.880   9.379  10.676
90668SOL    HW273844   5.862   9.524  10.637
90669SOL     OW73845   1.980   5.476   2.239
90669SOL    HW173846   1.999   5.441   2.151
90669SOL    HW273847   2.066   5.497   2.275
90670SOL     OW73848   6.326   8.322   8.547
90670SOL    HW173849   6.242   8.275   8.547
90670SOL    HW273850   6.366   8.300   8.463
90671SOL     OW73851   5.671  13.229   3.640
90671SOL    HW173852   5.658  13.135   3.644
90671SOL    HW273853   5.762  13.242   3.665
90672SOL     OW73854   7.605   8.476  11.801
90672SOL    HW173855   7.582   8.521  11.720
90672SOL    HW273856   7.553   8.395  11.799
90673SOL     OW73857  10.465   5.296   2.351
90673SOL    HW173858  10.513   5.270   2.273
90673SOL    HW273859  10.415   5.218   2.376
90674SOL     OW73860   4.886   3.634   5.416
90674SOL    HW173861   4.813   3.597   5.366
90674SOL    HW273862   4.856   3.634   5.506
90675SOL     OW73863   7.868   4.286   4.618
90675SOL    HW173864   7.913   4.331   4.690
90675SOL    HW273865   7.925   4.212   4.597
90676SOL     OW73866  12.118   3.533   7.454
90676SOL    HW173867  12.200   3.561   7.415
90676SOL    HW273868  12.134   3.443   7.484
90677SOL     OW73869   2.156   6.560   7.036
90677SOL    HW173870   2.144   6.652   7.058
90677SOL    HW273871   2.238   6.536   7.078
90678SOL     OW73872   8.093   4.619   1.846
90678SOL    HW173873   8.034   4.628   1.771
90678SOL    HW273874   8.181   4.627   1.809
90679SOL     OW73875   1.623   4.125  12.162
90679SOL    HW173876   1.654   4.212  12.137
90679SOL    HW273877   1.609   4.130  12.256
90680SOL     OW73878   6.772   8.496   1.790
90680SOL    HW173879   6.778   8.588   1.766
90680SOL    HW273880   6.686   8.487   1.831
90681SOL     OW73881   1.895   1.625  11.318
90681SOL    HW173882   1.839   1.555  11.284
90681SOL    HW273883   1.911   1.601  11.409
90682SOL     OW73884   6.446   2.328  10.439
90682SOL    HW173885   6.405   2.414  10.449
90682SOL    HW273886   6.455   2.316  10.345
90683SOL     OW73887   7.294   5.021   3.185
90683SOL    HW173888   7.351   5.096   3.197
90683SOL    HW273889   7.353   4.946   3.177
90684SOL     OW73890   9.329  12.874  14.039
90684SOL    HW173891   9.409  12.906  13.996
90684SOL    HW273892   9.271  12.950  14.039
90685SOL     OW73893   4.988  11.387   6.779
90685SOL    HW173894   4.929  11.442   6.728
90685SOL    HW273895   4.964  11.297   6.757
90686SOL     OW73896   0.984   7.457   9.057
90686SOL    HW173897   0.985   7.546   9.022
90686SOL    HW273898   0.949   7.467   9.146
90687SOL     OW73899   2.947   6.846   9.069
90687SOL    HW173900   2.893   6.777   9.108
90687SOL    HW273901   2.996   6.882   9.142
90688SOL     OW73902   6.659   1.415   5.440
90688SOL    HW173903   6.585   1.359   5.416
90688SOL    HW273904   6.643   1.438   5.532
90689SOL     OW73905   2.988   4.873   5.694
90689SOL    HW173906   2.930   4.897   5.766
90689SOL    HW273907   3.071   4.916   5.714
90690SOL     OW73908   9.337  12.519   8.505
90690SOL    HW173909   9.389  12.508   8.585
90690SOL    HW273910   9.293  12.434   8.494
90691SOL     OW73911  12.366   0.226  13.768
90691SOL    HW173912  12.373   0.320  13.751
90691SOL    HW273913  12.354   0.187  13.682
90692SOL     OW73914   5.058   3.958   1.181
90692SOL    HW173915   5.011   3.962   1.098
90692SOL    HW273916   5.007   4.014   1.240
90693SOL     OW73917  12.953   4.880   3.294
90693SOL    HW173918  12.889   4.892   3.224
90693SOL    HW273919  13.032   4.922   3.262
90694SOL     OW73920   6.502   1.761   4.317
90694SOL    HW173921   6.592   1.734   4.296
90694SOL    HW273922   6.478   1.707   4.393
90695SOL     OW73923  12.029  14.044   4.949
90695SOL    HW173924  12.112  14.079   4.916
90695SOL    HW273925  12.036  13.950   4.936
90696SOL     OW73926  12.510   6.479   0.480
90696SOL    HW173927  12.569   6.483   0.555
90696SOL    HW273928  12.532   6.397   0.436
90697SOL     OW73929  10.376   4.841   3.522
90697SOL    HW173930  10.335   4.877   3.443
90697SOL    HW273931  10.450   4.789   3.490
90698SOL     OW73932  11.301  13.758   9.800
90698SOL    HW173933  11.319  13.786   9.889
90698SOL    HW273934  11.235  13.690   9.809
90699SOL     OW73935   2.777   6.742   2.470
90699SOL    HW173936   2.762   6.656   2.430
90699SOL    HW273937   2.733   6.804   2.412
90700SOL     OW73938   4.123   0.424  14.736
90700SOL    HW173939   4.112   0.478  14.814
90700SOL    HW273940   4.082   0.340  14.759
90701SOL     OW73941   1.272   0.750   8.642
90701SOL    HW173942   1.277   0.685   8.712
90701SOL    HW273943   1.348   0.731   8.587
90702SOL     OW73944   3.913  10.787   4.557
90702SOL    HW173945   3.856  10.859   4.529
90702SOL    HW273946   3.935  10.808   4.648
90703SOL     OW73947  13.728   2.510   8.697
90703SOL    HW173948  13.636   2.537   8.696
90703SOL    HW273949  13.742   2.476   8.785
90704SOL     OW73950   9.180   0.369  13.051
90704SOL    HW173951   9.173   0.367  12.955
90704SOL    HW273952   9.235   0.445  13.070
90705SOL     OW73953   7.998  10.770  10.428
90705SOL    HW173954   7.951  10.836  10.377
90705SOL    HW273955   8.088  10.775  10.397
90706SOL     OW73956   4.004   0.210   7.580
90706SOL    HW173957   4.081   0.265   7.597
90706SOL    HW273958   3.939   0.271   7.544
90707SOL     OW73959   3.759   2.983   4.607
90707SOL    HW173960   3.750   3.072   4.573
90707SOL    HW273961   3.746   2.992   4.701
90708SOL     OW73962   1.915   0.970  13.541
90708SOL    HW173963   1.913   1.002  13.451
90708SOL    HW273964   1.998   0.923  13.548
90709SOL     OW73965   2.805   9.788   4.695
90709SOL    HW173966   2.784   9.856   4.631
90709SOL    HW273967   2.772   9.822   4.778
90710SOL     OW73968  12.140  12.351   3.912
90710SOL    HW173969  12.167  12.296   3.986
90710SOL    HW273970  12.117  12.434   3.952
90711SOL     OW73971  14.021   9.394   1.802
90711SOL    HW173972  14.091   9.458   1.819
90711SOL    HW273973  14.045   9.319   1.856
90712SOL     OW73974  12.613   4.950  10.147
90712SOL    HW173975  12.662   4.916  10.222
90712SOL    HW273976  12.629   4.887  10.077
90713SOL     OW73977  10.445  12.092   8.991
90713SOL    HW173978  10.532  12.077   9.027
90713SOL    HW273979  10.450  12.178   8.949
90714SOL     OW73980   6.923   1.444   0.424
90714SOL    HW173981   6.846   1.461   0.369
90714SOL    HW273982   6.998   1.453   0.365
90715SOL     OW73983  12.451   3.142  11.155
90715SOL    HW173984  12.499   3.182  11.228
90715SOL    HW273985  12.413   3.062  11.193
90716SOL     OW73986   2.961  11.494   1.645
90716SOL    HW173987   2.873  11.465   1.670
90716SOL    HW273988   3.019  11.437   1.695
90717SOL     OW73989   9.028   0.103   5.123
90717SOL    HW173990   9.063   0.036   5.182
90717SOL    HW273991   8.938   0.116   5.152
90718SOL     OW73992   9.981   3.018   5.213
90718SOL    HW173993   9.903   3.055   5.253
90718SOL    HW273994  10.000   3.077   5.140
90719SOL     OW73995   5.033  13.035   7.066
90719SOL    HW173996   5.091  12.974   7.111
90719SOL    HW273997   4.946  13.012   7.097
90720SOL     OW73998   1.941  13.803   1.794
90720SOL    HW173999   2.009  13.822   1.729
90720SOL    HW274000   1.976  13.729   1.843
90721SOL     OW74001  12.139   5.118   7.503
90721SOL    HW174002  12.109   5.206   7.525
90721SOL    HW274003  12.092   5.096   7.422
90722SOL     OW74004   3.033  13.381   5.558
90722SOL    HW174005   3.005  13.463   5.516
90722SOL    HW274006   2.987  13.313   5.509
90723SOL     OW74007   1.640   1.640   7.994
90723SOL    HW174008   1.579   1.698   7.949
90723SOL    HW274009   1.638   1.670   8.085
90724SOL     OW74010   7.131  12.063   6.789
90724SOL    HW174011   7.051  12.113   6.773
90724SOL    HW274012   7.123  12.034   6.880
90725SOL     OW74013   9.204   8.094   5.433
90725SOL    HW174014   9.120   8.095   5.480
90725SOL    HW274015   9.261   8.152   5.485
90726SOL     OW74016  14.385   1.488   3.636
90726SOL    HW174017  14.300   1.486   3.591
90726SOL    HW274018  14.411   1.580   3.632
90727SOL     OW74019   1.317  11.508  10.216
90727SOL    HW174020   1.310  11.490  10.122
90727SOL    HW274021   1.381  11.579  10.222
90728SOL     OW74022   5.332   5.487   6.338
90728SOL    HW174023   5.343   5.508   6.430
90728SOL    HW274024   5.246   5.520   6.315
90729SOL     OW74025  11.792   7.539  12.163
90729SOL    HW174026  11.714   7.522  12.110
90729SOL    HW274027  11.849   7.590  12.106
90730SOL     OW74028   4.754   8.294   6.872
90730SOL    HW174029   4.733   8.364   6.934
90730SOL    HW274030   4.820   8.332   6.814
90731SOL     OW74031  10.684   0.769  14.341
90731SOL    HW174032  10.659   0.840  14.400
90731SOL    HW274033  10.620   0.772  14.270
90732SOL     OW74034   1.584   7.830   1.548
90732SOL    HW174035   1.657   7.798   1.495
90732SOL    HW274036   1.597   7.925   1.551
90733SOL     OW74037  10.729   3.841  13.662
90733SOL    HW174038  10.667   3.820  13.592
90733SOL    HW274039  10.683   3.818  13.743
90734SOL     OW74040  11.464   8.936  12.408
90734SOL    HW174041  11.549   8.974  12.433
90734SOL    HW274042  11.400   8.999  12.441
90735SOL     OW74043  12.566   6.059   2.336
90735SOL    HW174044  12.607   6.108   2.407
90735SOL    HW274045  12.608   6.093   2.257
90736SOL     OW74046  14.198   0.358   5.535
90736SOL    HW174047  14.133   0.416   5.574
90736SOL    HW274048  14.282   0.391   5.568
90737SOL     OW74049  13.269   8.906   9.245
90737SOL    HW174050  13.202   8.917   9.177
90737SOL    HW274051  13.310   8.992   9.253
90738SOL     OW74052   2.122   6.916   3.942
90738SOL    HW174053   2.166   6.854   4.000
90738SOL    HW274054   2.152   7.002   3.972
90739SOL     OW74055   9.361   3.318  10.486
90739SOL    HW174056   9.412   3.274  10.554
90739SOL    HW274057   9.427   3.357  10.428
90740SOL     OW74058   3.443   8.699   1.647
90740SOL    HW174059   3.404   8.777   1.609
90740SOL    HW274060   3.513   8.732   1.703
90741SOL     OW74061   9.483  13.683   6.254
90741SOL    HW174062   9.470  13.777   6.243
90741SOL    HW274063   9.450  13.664   6.342
90742SOL     OW74064   3.700   9.203   1.423
90742SOL    HW174065   3.713   9.167   1.335
90742SOL    HW274066   3.619   9.162   1.454
90743SOL     OW74067   5.628   9.192   8.356
90743SOL    HW174068   5.713   9.207   8.398
90743SOL    HW274069   5.565   9.240   8.411
90744SOL     OW74070  12.465   4.931  13.598
90744SOL    HW174071  12.413   4.886  13.531
90744SOL    HW274072  12.440   5.023  13.589
90745SOL     OW74073   7.788  14.574   0.831
90745SOL    HW174074   7.816  14.484   0.845
90745SOL    HW274075   7.692  14.569   0.831
90746SOL     OW74076   4.693   2.072  13.927
90746SOL    HW174077   4.647   1.993  13.956
90746SOL    HW274078   4.725   2.050  13.839
90747SOL     OW74079   4.820   4.237   0.204
90747SOL    HW174080   4.786   4.161   0.253
90747SOL    HW274081   4.741   4.280   0.171
90748SOL     OW74082   8.431  12.252   7.151
90748SOL    HW174083   8.438  12.348   7.160
90748SOL    HW274084   8.446  12.236   7.058
90749SOL     OW74085   2.250  12.705  12.206
90749SOL    HW174086   2.160  12.696  12.237
90749SOL    HW274087   2.295  12.629  12.242
90750SOL     OW74088  10.679   1.480   7.690
90750SOL    HW174089  10.664   1.414   7.623
90750SOL    HW274090  10.622   1.455   7.762
90751SOL     OW74091  13.120   4.529   3.258
90751SOL    HW174092  13.105   4.595   3.326
90751SOL    HW274093  13.115   4.446   3.305
90752SOL     OW74094   5.533  11.064   3.805
90752SOL    HW174095   5.523  11.052   3.899
90752SOL    HW274096   5.624  11.091   3.793
90753SOL     OW74097  10.878   1.206   5.316
90753SOL    HW174098  10.909   1.296   5.319
90753SOL    HW274099  10.802   1.205   5.374
90754SOL     OW74100   0.937  11.983   7.226
90754SOL    HW174101   0.952  12.009   7.135
90754SOL    HW274102   0.865  12.039   7.255
90755SOL     OW74103   3.638  14.021   7.042
90755SOL    HW174104   3.549  13.991   7.061
90755SOL    HW274105   3.642  14.022   6.947
90756SOL     OW74106  12.394   4.116  13.173
90756SOL    HW174107  12.436   4.041  13.131
90756SOL    HW274108  12.341   4.156  13.104
90757SOL     OW74109   3.126   6.945   5.828
90757SOL    HW174110   3.081   7.003   5.890
90757SOL    HW274111   3.216   6.941   5.861
90758SOL     OW74112  10.459   7.212   6.799
90758SOL    HW174113  10.497   7.143   6.743
90758SOL    HW274114  10.495   7.194   6.886
90759SOL     OW74115   7.941   0.050   2.364
90759SOL    HW174116   7.977  14.840   2.334
90759SOL    HW274117   7.944   0.044   2.460
90760SOL     OW74118  14.508   6.777   7.826
90760SOL    HW174119  14.463   6.767   7.742
90760SOL    HW274120  14.437   6.784   7.890
90761SOL     OW74121   2.198   6.736  14.682
90761SOL    HW174122   2.113   6.764  14.718
90761SOL    HW274123   2.239   6.817  14.652
90762SOL     OW74124   1.049   6.273  14.252
90762SOL    HW174125   0.986   6.216  14.207
90762SOL    HW274126   1.002   6.305  14.329
90763SOL     OW74127   2.489  13.612   6.489
90763SOL    HW174128   2.408  13.634   6.535
90763SOL    HW274129   2.499  13.681   6.423
90764SOL     OW74130   3.094   4.549   4.532
90764SOL    HW174131   3.123   4.572   4.444
90764SOL    HW274132   3.028   4.614   4.554
90765SOL     OW74133   1.041  14.860   2.916
90765SOL    HW174134   1.071   0.022   2.833
90765SOL    HW274135   1.104  14.790   2.937
90766SOL     OW74136   7.733   3.035   4.338
90766SOL    HW174137   7.816   3.082   4.329
90766SOL    HW274138   7.682   3.087   4.401
90767SOL     OW74139   5.195   0.805   1.344
90767SOL    HW174140   5.279   0.773   1.311
90767SOL    HW274141   5.158   0.855   1.270
90768SOL     OW74142   0.594  12.734   4.673
90768SOL    HW174143   0.534  12.804   4.698
90768SOL    HW274144   0.639  12.767   4.595
90769SOL     OW74145   9.502   7.805  10.246
90769SOL    HW174146   9.556   7.727  10.241
90769SOL    HW274147   9.467   7.805  10.335
90770SOL     OW74148  13.603   7.971  13.907
90770SOL    HW174149  13.557   7.892  13.935
90770SOL    HW274150  13.557   8.043  13.951
90771SOL     OW74151   9.892   3.279  11.407
90771SOL    HW174152   9.924   3.194  11.440
90771SOL    HW274153   9.953   3.343  11.444
90772SOL     OW74154  10.745   7.005   3.505
90772SOL    HW174155  10.658   7.016   3.542
90772SOL    HW274156  10.744   6.917   3.467
90773SOL     OW74157   7.953   3.780   1.878
90773SOL    HW174158   7.949   3.691   1.914
90773SOL    HW274159   7.993   3.768   1.792
90774SOL     OW74160   3.944   0.624   0.485
90774SOL    HW174161   3.909   0.694   0.542
90774SOL    HW274162   3.905   0.641   0.400
90775SOL     OW74163  14.093  10.253  10.041
90775SOL    HW174164  14.079  10.249   9.947
90775SOL    HW274165  14.005  10.254  10.078
90776SOL     OW74166   0.755   4.226   9.042
90776SOL    HW174167   0.750   4.188   8.954
90776SOL    HW274168   0.665   4.245   9.066
90777SOL     OW74169   5.730   5.053  10.796
90777SOL    HW174170   5.710   5.144  10.814
90777SOL    HW274171   5.758   5.017  10.881
90778SOL     OW74172  12.451   8.383   3.783
90778SOL    HW174173  12.414   8.361   3.698
90778SOL    HW274174  12.391   8.344   3.846
90779SOL     OW74175   7.373  13.303   4.899
90779SOL    HW174176   7.322  13.380   4.873
90779SOL    HW274177   7.414  13.272   4.818
90780SOL     OW74178   3.550  10.360   6.223
90780SOL    HW174179   3.501  10.422   6.278
90780SOL    HW274180   3.492  10.343   6.148
90781SOL     OW74181   4.435  12.377   2.019
90781SOL    HW174182   4.463  12.467   2.001
90781SOL    HW274183   4.500  12.322   1.975
90782SOL     OW74184   0.395   0.501   3.659
90782SOL    HW174185   0.475   0.519   3.610
90782SOL    HW274186   0.330   0.561   3.620
90783SOL     OW74187  13.821  14.012   9.872
90783SOL    HW174188  13.864  14.064   9.804
90783SOL    HW274189  13.855  13.923   9.860
90784SOL     OW74190  11.790   7.229   5.836
90784SOL    HW174191  11.735   7.183   5.773
90784SOL    HW274192  11.877   7.193   5.823
90785SOL     OW74193   1.917   7.854  13.511
90785SOL    HW174194   1.946   7.766  13.533
90785SOL    HW274195   1.863   7.881  13.585
90786SOL     OW74196  11.957   0.835   7.734
90786SOL    HW174197  11.863   0.848   7.717
90786SOL    HW274198  11.965   0.741   7.751
90787SOL     OW74199   6.710   1.538   7.418
90787SOL    HW174200   6.767   1.546   7.495
90787SOL    HW274201   6.634   1.490   7.450
90788SOL     OW74202   4.335   4.301   1.401
90788SOL    HW174203   4.401   4.250   1.354
90788SOL    HW274204   4.375   4.319   1.486
90789SOL     OW74205   9.587   5.320   2.588
90789SOL    HW174206   9.492   5.326   2.593
90789SOL    HW274207   9.618   5.361   2.670
90790SOL     OW74208   7.219   8.529   1.071
90790SOL    HW174209   7.163   8.454   1.088
90790SOL    HW274210   7.174   8.603   1.112
90791SOL     OW74211  11.697   1.170   3.052
90791SOL    HW174212  11.792   1.168   3.057
90791SOL    HW274213  11.678   1.234   2.982
90792SOL     OW74214  10.290   0.969   2.577
90792SOL    HW174215  10.338   0.887   2.566
90792SOL    HW274216  10.357   1.037   2.573
90793SOL     OW74217   2.492   6.702   4.383
90793SOL    HW174218   2.487   6.796   4.398
90793SOL    HW274219   2.520   6.694   4.291
90794SOL     OW74220   8.036   9.728  14.274
90794SOL    HW174221   8.051   9.665  14.346
90794SOL    HW274222   8.099   9.798  14.290
90795SOL     OW74223  11.552   5.287  11.654
90795SOL    HW174224  11.562   5.349  11.727
90795SOL    HW274225  11.462   5.301  11.624
90796SOL     OW74226   0.088   1.775   6.580
90796SOL    HW174227   0.025   1.712   6.545
90796SOL    HW274228   0.051   1.802   6.664
90797SOL     OW74229   9.727  13.124   7.418
90797SOL    HW174230   9.703  13.031   7.414
90797SOL    HW274231   9.810  13.125   7.467
90798SOL     OW74232   3.311  13.850   5.358
90798SOL    HW174233   3.343  13.892   5.277
90798SOL    HW274234   3.385  13.854   5.418
90799SOL     OW74235  12.914   2.512   2.230
90799SOL    HW174236  12.959   2.460   2.297
90799SOL    HW274237  12.983   2.562   2.188
90800SOL     OW74238   5.441   9.031   9.034
90800SOL    HW174239   5.394   9.065   9.110
90800SOL    HW274240   5.476   8.947   9.064
90801SOL     OW74241   5.656  13.468   9.795
90801SOL    HW174242   5.724  13.408   9.827
90801SOL    HW274243   5.590  13.411   9.756
90802SOL     OW74244   0.660   0.157  10.129
90802SOL    HW174245   0.726   0.217  10.163
90802SOL    HW274246   0.595   0.214  10.086
90803SOL     OW74247   2.901  14.248   0.472
90803SOL    HW174248   2.833  14.239   0.405
90803SOL    HW274249   2.852  14.267   0.553
90804SOL     OW74250   5.280   9.592   0.734
90804SOL    HW174251   5.321   9.655   0.674
90804SOL    HW274252   5.315   9.507   0.708
90805SOL     OW74253  12.219   6.686  12.185
90805SOL    HW174254  12.152   6.751  12.163
90805SOL    HW274255  12.302   6.731  12.168
90806SOL     OW74256   9.955   7.701   6.486
90806SOL    HW174257   9.989   7.787   6.459
90806SOL    HW274258   9.994   7.686   6.572
90807SOL     OW74259  10.409   8.564   3.156
90807SOL    HW174260  10.373   8.553   3.244
90807SOL    HW274261  10.331   8.573   3.100
90808SOL     OW74262  12.362   4.410   0.381
90808SOL    HW174263  12.310   4.370   0.311
90808SOL    HW274264  12.452   4.401   0.352
90809SOL     OW74265  11.028   3.496   4.032
90809SOL    HW174266  11.064   3.576   3.994
90809SOL    HW274267  10.974   3.526   4.105
90810SOL     OW74268   3.285   1.021   6.457
90810SOL    HW174269   3.190   1.009   6.459
90810SOL    HW274270   3.320   0.939   6.492
90811SOL     OW74271   5.427   7.235   6.715
90811SOL    HW174272   5.493   7.221   6.783
90811SOL    HW274273   5.431   7.328   6.696
90812SOL     OW74274   3.266   5.767   4.538
90812SOL    HW174275   3.200   5.782   4.606
90812SOL    HW274276   3.350   5.781   4.582
90813SOL     OW74277   8.184   1.046   5.848
90813SOL    HW174278   8.166   0.990   5.772
90813SOL    HW274279   8.156   1.133   5.820
90814SOL     OW74280   9.045  12.171  10.981
90814SOL    HW174281   9.076  12.255  10.946
90814SOL    HW274282   8.994  12.133  10.910
90815SOL     OW74283   8.390   5.569   7.684
90815SOL    HW174284   8.411   5.545   7.775
90815SOL    HW274285   8.322   5.507   7.658
90816SOL     OW74286  12.441   1.242   7.290
90816SOL    HW174287  12.463   1.168   7.347
90816SOL    HW274288  12.403   1.307   7.348
90817SOL     OW74289   5.309   4.232  14.795
90817SOL    HW174290   5.255   4.289  14.850
90817SOL    HW274291   5.356   4.176  14.857
90818SOL     OW74292  13.528   8.454  10.866
90818SOL    HW174293  13.449   8.461  10.812
90818SOL    HW274294  13.520   8.526  10.929
90819SOL     OW74295  14.424   2.041   6.121
90819SOL    HW174296  14.453   2.028   6.211
90819SOL    HW274297  14.407   2.134   6.114
90820SOL     OW74298  11.901   8.179   0.706
90820SOL    HW174299  11.898   8.268   0.741
90820SOL    HW274300  11.828   8.176   0.644
90821SOL     OW74301   5.864  12.118   8.612
90821SOL    HW174302   5.884  12.076   8.527
90821SOL    HW274303   5.913  12.066   8.676
90822SOL     OW74304   8.015  13.704   1.202
90822SOL    HW174305   8.015  13.611   1.225
90822SOL    HW274306   8.107  13.726   1.187
90823SOL     OW74307   7.119  11.293   6.294
90823SOL    HW174308   7.024  11.303   6.304
90823SOL    HW274309   7.131  11.266   6.203
90824SOL     OW74310  13.702   2.851   4.602
90824SOL    HW174311  13.734   2.938   4.580
90824SOL    HW274312  13.631   2.866   4.664
90825SOL     OW74313   7.798  10.640   4.971
90825SOL    HW174314   7.852  10.698   5.025
90825SOL    HW274315   7.716  10.633   5.019
90826SOL     OW74316  10.698   2.009   3.259
90826SOL    HW174317  10.650   2.057   3.192
90826SOL    HW274318  10.789   2.035   3.247
90827SOL     OW74319   0.788   0.409  12.723
90827SOL    HW174320   0.879   0.421  12.749
90827SOL    HW274321   0.757   0.496  12.700
90828SOL     OW74322  10.283   5.121   2.752
90828SOL    HW174323  10.360   5.174   2.731
90828SOL    HW274324  10.214   5.154   2.694
90829SOL     OW74325  11.210  12.394   6.263
90829SOL    HW174326  11.151  12.463   6.231
90829SOL    HW274327  11.276  12.442   6.313
90830SOL     OW74328   1.348  12.601   4.167
90830SOL    HW174329   1.436  12.634   4.150
90830SOL    HW274330   1.336  12.613   4.261
90831SOL     OW74331   3.313  10.877  10.750
90831SOL    HW174332   3.305  10.952  10.809
90831SOL    HW274333   3.391  10.897  10.697
90832SOL     OW74334   9.056   3.088   4.911
90832SOL    HW174335   9.077   2.995   4.908
90832SOL    HW274336   9.017   3.107   4.825
90833SOL     OW74337   4.889   4.081   9.558
90833SOL    HW174338   4.886   4.146   9.488
90833SOL    HW274339   4.857   4.127   9.635
90834SOL     OW74340   4.947   8.231  13.295
90834SOL    HW174341   4.877   8.170  13.318
90834SOL    HW274342   4.958   8.285  13.373
90835SOL     OW74343  11.193  10.404   2.433
90835SOL    HW174344  11.227  10.330   2.383
90835SOL    HW274345  11.111  10.427   2.390
90836SOL     OW74346   2.343   4.682   6.206
90836SOL    HW174347   2.338   4.714   6.116
90836SOL    HW274348   2.254   4.691   6.239
90837SOL     OW74349   7.562   9.609   6.744
90837SOL    HW174350   7.620   9.682   6.764
90837SOL    HW274351   7.481   9.629   6.791
90838SOL     OW74352  11.716  14.191  13.400
90838SOL    HW174353  11.726  14.179  13.495
90838SOL    HW274354  11.770  14.267  13.380
90839SOL     OW74355  13.992   1.577  12.288
90839SOL    HW174356  14.024   1.533  12.209
90839SOL    HW274357  14.036   1.661  12.288
90840SOL     OW74358  11.634   0.733  14.042
90840SOL    HW174359  11.647   0.642  14.069
90840SOL    HW274360  11.638   0.783  14.124
90841SOL     OW74361   6.678   0.785   3.117
90841SOL    HW174362   6.746   0.721   3.138
90841SOL    HW274363   6.628   0.743   3.047
90842SOL     OW74364  11.192  11.021   9.326
90842SOL    HW174365  11.251  11.095   9.339
90842SOL    HW274366  11.180  11.015   9.231
90843SOL     OW74367  11.855   1.988   4.418
90843SOL    HW174368  11.892   1.900   4.414
90843SOL    HW274369  11.931   2.046   4.422
90844SOL     OW74370   1.860   1.743   3.879
90844SOL    HW174371   1.915   1.765   3.804
90844SOL    HW274372   1.791   1.810   3.879
90845SOL     OW74373  13.895   1.209   5.378
90845SOL    HW174374  13.809   1.210   5.421
90845SOL    HW274375  13.881   1.159   5.297
90846SOL     OW74376   8.944   6.660   9.495
90846SOL    HW174377   8.890   6.668   9.574
90846SOL    HW274378   9.026   6.704   9.517
90847SOL     OW74379   7.237   3.655   6.828
90847SOL    HW174380   7.321   3.699   6.812
90847SOL    HW274381   7.228   3.593   6.755
90848SOL     OW74382   2.082   3.752  11.220
90848SOL    HW174383   2.086   3.677  11.161
90848SOL    HW274384   2.162   3.801  11.201
90849SOL     OW74385   5.707   6.671   5.718
90849SOL    HW174386   5.800   6.658   5.734
90849SOL    HW274387   5.699   6.765   5.698
90850SOL     OW74388   9.752   6.238   7.879
90850SOL    HW174389   9.783   6.298   7.947
90850SOL    HW274390   9.741   6.294   7.802
90851SOL     OW74391   1.586   8.687  13.674
90851SOL    HW174392   1.666   8.722  13.714
90851SOL    HW274393   1.615   8.607  13.630
90852SOL     OW74394   0.700   3.243   7.476
90852SOL    HW174395   0.790   3.261   7.505
90852SOL    HW274396   0.664   3.186   7.544
90853SOL     OW74397  13.686   5.663  13.847
90853SOL    HW174398  13.613   5.706  13.892
90853SOL    HW274399  13.710   5.724  13.778
90854SOL     OW74400   2.743   4.218   7.863
90854SOL    HW174401   2.783   4.185   7.782
90854SOL    HW274402   2.803   4.189   7.932
90855SOL     OW74403   3.389   8.489   2.391
90855SOL    HW174404   3.352   8.463   2.306
90855SOL    HW274405   3.397   8.406   2.439
90856SOL     OW74406   4.258   6.733   5.328
90856SOL    HW174407   4.307   6.658   5.362
90856SOL    HW274408   4.283   6.805   5.385
90857SOL     OW74409   4.049   6.332   4.260
90857SOL    HW174410   4.024   6.425   4.256
90857SOL    HW274411   3.967   6.286   4.274
90858SOL     OW74412   7.455  12.946  11.307
90858SOL    HW174413   7.444  12.888  11.232
90858SOL    HW274414   7.483  12.889  11.378
90859SOL     OW74415   3.878   2.621   6.618
90859SOL    HW174416   3.853   2.583   6.702
90859SOL    HW274417   3.972   2.632   6.623
90860SOL     OW74418   8.547  12.870   7.380
90860SOL    HW174419   8.607  12.914   7.441
90860SOL    HW274420   8.605  12.818   7.324
90861SOL     OW74421   3.791   1.543   1.655
90861SOL    HW174422   3.861   1.566   1.716
90861SOL    HW274423   3.785   1.448   1.659
90862SOL     OW74424  12.249   1.031   6.600
90862SOL    HW174425  12.188   0.962   6.624
90862SOL    HW274426  12.336   0.990   6.606
90863SOL     OW74427   6.593  13.330   9.721
90863SOL    HW174428   6.684  13.352   9.705
90863SOL    HW274429   6.546  13.413   9.713
90864SOL     OW74430   8.878   6.026   3.697
90864SOL    HW174431   8.912   6.081   3.627
90864SOL    HW274432   8.798   6.071   3.726
90865SOL     OW74433   7.606   0.916   3.077
90865SOL    HW174434   7.666   0.842   3.084
90865SOL    HW274435   7.532   0.882   3.027
90866SOL     OW74436  10.911   1.468  10.316
90866SOL    HW174437  10.896   1.553  10.358
90866SOL    HW274438  10.970   1.489  10.243
90867SOL     OW74439  10.266   6.596   1.969
90867SOL    HW174440  10.211   6.571   1.895
90867SOL    HW274441  10.205   6.630   2.034
90868SOL     OW74442   6.150   4.108   7.528
90868SOL    HW174443   6.195   4.026   7.552
90868SOL    HW274444   6.139   4.102   7.433
90869SOL     OW74445  14.706   8.135   6.995
90869SOL    HW174446  14.801   8.134   6.989
90869SOL    HW274447  14.681   8.226   6.979
90870SOL     OW74448   0.790   0.596   2.229
90870SOL    HW174449   0.729   0.608   2.302
90870SOL    HW274450   0.771   0.668   2.170
90871SOL     OW74451   3.641  12.118   8.197
90871SOL    HW174452   3.640  12.123   8.293
90871SOL    HW274453   3.585  12.042   8.177
90872SOL     OW74454   2.908   2.667   0.907
90872SOL    HW174455   2.932   2.704   0.822
90872SOL    HW274456   2.915   2.572   0.895
90873SOL     OW74457   9.468   8.772  10.858
90873SOL    HW174458   9.558   8.744  10.873
90873SOL    HW274459   9.466   8.804  10.768
90874SOL     OW74460   2.402  11.851  12.705
90874SOL    HW174461   2.445  11.825  12.786
90874SOL    HW274462   2.455  11.812  12.635
90875SOL     OW74463   4.845   7.404   1.406
90875SOL    HW174464   4.806   7.428   1.322
90875SOL    HW274465   4.772   7.369   1.457
90876SOL     OW74466   7.995  13.490   1.995
90876SOL    HW174467   7.914  13.538   1.973
90876SOL    HW274468   8.033  13.468   1.910
90877SOL     OW74469  13.216  13.132   1.163
90877SOL    HW174470  13.127  13.115   1.133
90877SOL    HW274471  13.208  13.208   1.221
90878SOL     OW74472  10.879   8.584  10.765
90878SOL    HW174473  10.971   8.611  10.768
90878SOL    HW274474  10.882   8.491  10.743
90879SOL     OW74475   4.747   2.426   3.065
90879SOL    HW174476   4.721   2.405   3.155
90879SOL    HW274477   4.665   2.421   3.015
90880SOL     OW74478  14.640   6.884   5.294
90880SOL    HW174479  14.557   6.874   5.247
90880SOL    HW274480  14.697   6.817   5.257
90881SOL     OW74481  14.559   4.368  12.112
90881SOL    HW174482  14.604   4.412  12.040
90881SOL    HW274483  14.484   4.325  12.072
90882SOL     OW74484   8.706   6.388   0.561
90882SOL    HW174485   8.720   6.454   0.493
90882SOL    HW274486   8.623   6.413   0.602
90883SOL     OW74487   5.241   6.568   1.807
90883SOL    HW174488   5.235   6.543   1.899
90883SOL    HW274489   5.306   6.638   1.805
90884SOL     OW74490   8.332   1.243   0.053
90884SOL    HW174491   8.303   1.168   0.105
90884SOL    HW274492   8.254   1.269   0.002
90885SOL     OW74493   8.704  11.181   1.740
90885SOL    HW174494   8.702  11.085   1.745
90885SOL    HW274495   8.651  11.201   1.664
90886SOL     OW74496   7.315   4.512   6.555
90886SOL    HW174497   7.240   4.465   6.517
90886SOL    HW274498   7.281   4.599   6.575
90887SOL     OW74499   5.922  10.955   4.123
90887SOL    HW174500   6.012  10.941   4.093
90887SOL    HW274501   5.930  10.978   4.215
90888SOL     OW74502   2.468   1.706   1.824
90888SOL    HW174503   2.502   1.789   1.857
90888SOL    HW274504   2.539   1.643   1.839
90889SOL     OW74505   9.215   8.298   8.843
90889SOL    HW174506   9.291   8.296   8.901
90889SOL    HW274507   9.222   8.217   8.791
90890SOL     OW74508  10.433   8.881   8.155
90890SOL    HW174509  10.415   8.821   8.082
90890SOL    HW274510  10.481   8.954   8.116
90891SOL     OW74511   9.015   8.582   3.725
90891SOL    HW174512   9.020   8.523   3.650
90891SOL    HW274513   9.094   8.636   3.718
90892SOL     OW74514  14.345  11.382   0.134
90892SOL    HW174515  14.293  11.462   0.128
90892SOL    HW274516  14.326  11.334   0.054
90893SOL     OW74517   7.688  10.555   2.845
90893SOL    HW174518   7.750  10.593   2.906
90893SOL    HW274519   7.692  10.612   2.768
90894SOL     OW74520   6.679   3.184   1.277
90894SOL    HW174521   6.601   3.214   1.324
90894SOL    HW274522   6.688   3.245   1.204
90895SOL     OW74523  12.017  10.119  14.153
90895SOL    HW174524  12.054  10.207  14.150
90895SOL    HW274525  11.959  10.120  14.229
90896SOL     OW74526   4.837   1.316   9.370
90896SOL    HW174527   4.867   1.300   9.459
90896SOL    HW274528   4.773   1.386   9.377
90897SOL     OW74529   9.609   8.954   5.479
90897SOL    HW174530   9.668   8.920   5.411
90897SOL    HW274531   9.665   8.968   5.555
90898SOL     OW74532   1.267   6.429  11.072
90898SOL    HW174533   1.189   6.377  11.051
90898SOL    HW274534   1.268   6.431  11.168
90899SOL     OW74535   7.028   3.280   6.472
90899SOL    HW174536   7.093   3.341   6.436
90899SOL    HW274537   6.986   3.243   6.395
90900SOL     OW74538   0.066   6.836   0.935
90900SOL    HW174539   0.052   6.847   1.030
90900SOL    HW274540  14.865   6.782   0.906
90901SOL     OW74541   9.595  13.651  12.698
90901SOL    HW174542   9.634  13.671  12.613
90901SOL    HW274543   9.670  13.639  12.756
90902SOL     OW74544   1.995   7.030   9.687
90902SOL    HW174545   1.901   7.049   9.690
90902SOL    HW274546   2.038   7.115   9.683
90903SOL     OW74547   4.489  13.705  14.713
90903SOL    HW174548   4.469  13.713  14.620
90903SOL    HW274549   4.413  13.744  14.757
90904SOL     OW74550  11.264   4.554  12.113
90904SOL    HW174551  11.268   4.491  12.041
90904SOL    HW274552  11.199   4.618  12.086
90905SOL     OW74553  14.009   8.635   6.579
90905SOL    HW174554  14.095   8.608   6.547
90905SOL    HW274555  14.025   8.720   6.621
90906SOL     OW74556   1.289  10.501  13.964
90906SOL    HW174557   1.346  10.578  13.962
90906SOL    HW274558   1.317  10.448  13.889
90907SOL     OW74559   3.076  12.834   4.846
90907SOL    HW174560   2.982  12.819   4.853
90907SOL    HW274561   3.086  12.929   4.847
90908SOL     OW74562   6.926   0.816   2.969
90908SOL    HW174563   6.858   0.883   2.976
90908SOL    HW274564   6.901   0.751   3.035
90909SOL     OW74565   6.669   0.220   1.887
90909SOL    HW174566   6.628   0.293   1.839
90909SOL    HW274567   6.748   0.258   1.925
90910SOL     OW74568   3.624   4.742   3.890
90910SOL    HW174569   3.628   4.825   3.843
90910SOL    HW274570   3.569   4.685   3.836
90911SOL     OW74571   1.053  12.531   7.842
90911SOL    HW174572   1.123  12.474   7.813
90911SOL    HW274573   0.973  12.487   7.814
90912SOL     OW74574  12.291   5.336  10.886
90912SOL    HW174575  12.209   5.381  10.904
90912SOL    HW274576  12.339   5.396  10.829
90913SOL     OW74577  11.113   1.955  12.782
90913SOL    HW174578  11.051   1.913  12.842
90913SOL    HW274579  11.182   1.889  12.771
90914SOL     OW74580   2.314   0.616  12.135
90914SOL    HW174581   2.407   0.639  12.134
90914SOL    HW274582   2.282   0.647  12.220
90915SOL     OW74583   2.656   5.275  11.543
90915SOL    HW174584   2.750   5.261  11.532
90915SOL    HW274585   2.631   5.328  11.467
90916SOL     OW74586   1.863   7.496   2.231
90916SOL    HW174587   1.930   7.521   2.168
90916SOL    HW274588   1.885   7.406   2.255
90917SOL     OW74589   1.960   3.453   2.187
90917SOL    HW174590   1.902   3.449   2.111
90917SOL    HW274591   1.961   3.363   2.221
90918SOL     OW74592  11.682   7.291  14.687
90918SOL    HW174593  11.607   7.280  14.630
90918SOL    HW274594  11.645   7.295  14.775
90919SOL     OW74595   3.549   2.201   2.999
90919SOL    HW174596   3.523   2.156   2.919
90919SOL    HW274597   3.534   2.294   2.981
90920SOL     OW74598  14.759   4.160   4.415
90920SOL    HW174599  14.719   4.154   4.502
90920SOL    HW274600  14.726   4.242   4.378
90921SOL     OW74601  10.851  12.048   5.960
90921SOL    HW174602  10.758  12.070   5.949
90921SOL    HW274603  10.897  12.129   5.938
90922SOL     OW74604   4.386   0.441  13.646
90922SOL    HW174605   4.408   0.451  13.553
90922SOL    HW274606   4.299   0.401  13.646
90923SOL     OW74607  10.657   0.312  13.486
90923SOL    HW174608  10.685   0.385  13.541
90923SOL    HW274609  10.612   0.252  13.545
90924SOL     OW74610   1.263   9.824  11.961
90924SOL    HW174611   1.256   9.889  11.891
90924SOL    HW274612   1.342   9.775  11.940
90925SOL     OW74613   1.982  10.573  10.236
90925SOL    HW174614   1.976  10.503  10.170
90925SOL    HW274615   2.045  10.540  10.300
90926SOL     OW74616   9.769  11.748   3.735
90926SOL    HW174617   9.682  11.779   3.760
90926SOL    HW274618   9.828  11.818   3.765
90927SOL     OW74619  13.333  10.947   1.841
90927SOL    HW174620  13.318  11.034   1.803
90927SOL    HW274621  13.428  10.943   1.856
90928SOL     OW74622  12.473  11.610   0.507
90928SOL    HW174623  12.405  11.676   0.499
90928SOL    HW274624  12.539  11.634   0.442
90929SOL     OW74625   7.190   8.142   1.056
90929SOL    HW174626   7.225   8.169   0.971
90929SOL    HW274627   7.121   8.206   1.075
90930SOL     OW74628   7.467   8.079  11.996
90930SOL    HW174629   7.385   8.030  11.983
90930SOL    HW274630   7.459   8.116  12.083
90931SOL     OW74631   8.701   7.614   7.290
90931SOL    HW174632   8.699   7.518   7.282
90931SOL    HW274633   8.737   7.630   7.377
90932SOL     OW74634  14.167   3.994   1.325
90932SOL    HW174635  14.102   3.970   1.259
90932SOL    HW274636  14.121   3.983   1.409
90933SOL     OW74637   7.407   8.125   3.311
90933SOL    HW174638   7.461   8.197   3.344
90933SOL    HW274639   7.441   8.047   3.356
90934SOL     OW74640   2.481   1.940   1.040
90934SOL    HW174641   2.508   2.006   0.977
90934SOL    HW274642   2.392   1.966   1.065
90935SOL     OW74643  11.721   7.349   0.319
90935SOL    HW174644  11.712   7.427   0.375
90935SOL    HW274645  11.715   7.383   0.230
90936SOL     OW74646  14.755   1.862  10.797
90936SOL    HW174647  14.667   1.858  10.759
90936SOL    HW274648  14.812   1.823  10.730
90937SOL     OW74649   8.655   5.429   7.272
90937SOL    HW174650   8.581   5.383   7.311
90937SOL    HW274651   8.621   5.516   7.251
90938SOL     OW74652   8.959   9.006   1.678
90938SOL    HW174653   8.943   8.918   1.645
90938SOL    HW274654   8.925   9.064   1.610
90939SOL     OW74655   4.429   2.527   3.326
90939SOL    HW174656   4.423   2.601   3.266
90939SOL    HW274657   4.429   2.566   3.413
90940SOL     OW74658   3.548   0.344  14.586
90940SOL    HW174659   3.608   0.283  14.629
90940SOL    HW274660   3.603   0.419  14.564
90941SOL     OW74661  10.037  14.740   8.942
90941SOL    HW174662  10.107  14.697   8.892
90941SOL    HW274663  10.072  14.747   9.031
90942SOL     OW74664   4.905   8.543   4.958
90942SOL    HW174665   4.988   8.515   4.997
90942SOL    HW274666   4.924   8.549   4.864
90943SOL     OW74667   3.687   6.297   1.830
90943SOL    HW174668   3.739   6.275   1.908
90943SOL    HW274669   3.637   6.374   1.856
90944SOL     OW74670   8.316  11.146   8.484
90944SOL    HW174671   8.376  11.132   8.411
90944SOL    HW274672   8.255  11.212   8.451
90945SOL     OW74673   5.242   2.638  14.082
90945SOL    HW174674   5.324   2.662  14.125
90945SOL    HW274675   5.207   2.567  14.136
90946SOL     OW74676   6.521  14.135  14.125
90946SOL    HW174677   6.575  14.069  14.081
90946SOL    HW274678   6.535  14.215  14.075
90947SOL     OW74679   8.636   7.290   3.320
90947SOL    HW174680   8.732   7.285   3.324
90947SOL    HW274681   8.618   7.384   3.311
90948SOL     OW74682   0.488  10.818  12.471
90948SOL    HW174683   0.394  10.822  12.485
90948SOL    HW274684   0.500  10.836  12.378
90949SOL     OW74685  13.420   3.931  11.971
90949SOL    HW174686  13.331   3.902  11.993
90949SOL    HW274687  13.410   3.978  11.889
90950SOL     OW74688   5.204   4.211   3.507
90950SOL    HW174689   5.262   4.181   3.436
90950SOL    HW274690   5.141   4.140   3.517
90951SOL     OW74691  14.120  13.183   9.132
90951SOL    HW174692  14.094  13.274   9.149
90951SOL    HW274693  14.057  13.130   9.181
90952SOL     OW74694   6.488  14.570   1.513
90952SOL    HW174695   6.506  14.498   1.573
90952SOL    HW274696   6.415  14.617   1.553
90953SOL     OW74697   1.218   7.792   6.947
90953SOL    HW174698   1.157   7.820   7.015
90953SOL    HW274699   1.241   7.702   6.970
90954SOL     OW74700  13.851   6.262   0.738
90954SOL    HW174701  13.927   6.284   0.792
90954SOL    HW274702  13.789   6.333   0.754
90955SOL     OW74703  12.107   5.526  10.953
90955SOL    HW174704  12.145   5.538  11.040
90955SOL    HW274705  12.125   5.609  10.908
90956SOL     OW74706   1.076   5.195   7.176
90956SOL    HW174707   1.087   5.120   7.117
90956SOL    HW274708   1.025   5.160   7.250
90957SOL     OW74709   7.741   9.194   3.186
90957SOL    HW174710   7.691   9.124   3.144
90957SOL    HW274711   7.746   9.263   3.120
90958SOL     OW74712  12.668   2.999   7.266
90958SOL    HW174713  12.742   2.942   7.286
90958SOL    HW274714  12.706   3.074   7.221
90959SOL     OW74715   4.422  13.526  13.116
90959SOL    HW174716   4.465  13.447  13.149
90959SOL    HW274717   4.494  13.579  13.082
90960SOL     OW74718   0.120   1.135   4.056
90960SOL    HW174719   0.059   1.062   4.048
90960SOL    HW274720   0.128   1.170   3.967
90961SOL     OW74721   7.443  12.042   0.132
90961SOL    HW174722   7.492  11.960   0.144
90961SOL    HW274723   7.427  12.073   0.221
90962SOL     OW74724   3.721  13.723  14.077
90962SOL    HW174725   3.674  13.790  14.126
90962SOL    HW274726   3.743  13.656  14.142
90963SOL     OW74727   6.912   5.749   5.531
90963SOL    HW174728   6.825   5.726   5.562
90963SOL    HW274729   6.964   5.669   5.542
90964SOL     OW74730   7.612   5.513   5.109
90964SOL    HW174731   7.690   5.545   5.156
90964SOL    HW274732   7.630   5.533   5.017
90965SOL     OW74733   3.753  11.510   9.275
90965SOL    HW174734   3.718  11.599   9.284
90965SOL    HW274735   3.728  11.483   9.186
90966SOL     OW74736   3.174   9.967  11.176
90966SOL    HW174737   3.164   9.917  11.095
90966SOL    HW274738   3.107  10.034  11.172
90967SOL     OW74739   5.279   5.649  13.235
90967SOL    HW174740   5.283   5.568  13.186
90967SOL    HW274741   5.352   5.701  13.202
90968SOL     OW74742   3.459   3.523  11.213
90968SOL    HW174743   3.516   3.484  11.279
90968SOL    HW274744   3.494   3.493  11.130
90969SOL     OW74745   5.009   8.363   6.805
90969SOL    HW174746   5.080   8.423   6.784
90969SOL    HW274747   4.991   8.378   6.898
90970SOL     OW74748   0.722   1.595   8.379
90970SOL    HW174749   0.691   1.657   8.313
90970SOL    HW274750   0.703   1.509   8.342
90971SOL     OW74751   2.043   8.833  10.950
90971SOL    HW174752   2.059   8.921  10.914
90971SOL    HW274753   1.948   8.821  10.941
90972SOL     OW74754   2.210  11.830   2.901
90972SOL    HW174755   2.243  11.822   2.812
90972SOL    HW274756   2.119  11.803   2.895
90973SOL     OW74757  13.858   2.609   5.852
90973SOL    HW174758  13.840   2.606   5.758
90973SOL    HW274759  13.954   2.612   5.858
90974SOL     OW74760   0.939  13.141  12.890
90974SOL    HW174761   0.901  13.121  12.976
90974SOL    HW274762   0.886  13.214  12.857
90975SOL     OW74763   4.589  11.680  12.028
90975SOL    HW174764   4.626  11.592  12.026
90975SOL    HW274765   4.530  11.683  11.953
90976SOL     OW74766   5.147   7.954  11.290
90976SOL    HW174767   5.091   7.983  11.362
90976SOL    HW274768   5.112   7.997  11.212
90977SOL     OW74769   0.100   2.121   0.246
90977SOL    HW174770   0.187   2.127   0.206
90977SOL    HW274771   0.093   2.029   0.273
90978SOL     OW74772   3.151   4.569  10.553
90978SOL    HW174773   3.127   4.482  10.583
90978SOL    HW274774   3.247   4.569  10.551
90979SOL     OW74775   7.065  13.789   3.600
90979SOL    HW174776   7.131  13.753   3.659
90979SOL    HW274777   6.981  13.766   3.642
90980SOL     OW74778  10.644  14.031   1.047
90980SOL    HW174779  10.727  13.991   1.075
90980SOL    HW274780  10.595  14.042   1.128
90981SOL     OW74781  11.725  11.634   5.100
90981SOL    HW174782  11.631  11.620   5.107
90981SOL    HW274783  11.743  11.634   5.006
90982SOL     OW74784   9.222   2.711  14.668
90982SOL    HW174785   9.303   2.670  14.697
90982SOL    HW274786   9.219   2.796  14.712
90983SOL     OW74787  10.694   2.168   1.193
90983SOL    HW174788  10.622   2.150   1.132
90983SOL    HW274789  10.755   2.222   1.143
90984SOL     OW74790  10.551   0.767   3.186
90984SOL    HW174791  10.618   0.805   3.243
90984SOL    HW274792  10.573   0.674   3.182
90985SOL     OW74793   4.413  13.117   1.571
90985SOL    HW174794   4.456  13.146   1.490
90985SOL    HW274795   4.352  13.188   1.593
90986SOL     OW74796  11.252   4.659  10.181
90986SOL    HW174797  11.302   4.684  10.103
90986SOL    HW274798  11.243   4.741  10.230
90987SOL     OW74799   4.513   3.365   3.046
90987SOL    HW174800   4.528   3.286   2.994
90987SOL    HW274801   4.474   3.427   2.985
90988SOL     OW74802  12.854  10.174   0.382
90988SOL    HW174803  12.788  10.211   0.440
90988SOL    HW274804  12.865  10.240   0.314
90989SOL     OW74805   5.054   0.386   1.247
90989SOL    HW174806   5.075   0.300   1.210
90989SOL    HW274807   5.078   0.448   1.178
90990SOL     OW74808   1.025   8.836  12.884
90990SOL    HW174809   0.955   8.902  12.880
90990SOL    HW274810   1.054   8.826  12.794
90991SOL     OW74811   7.922   1.511   1.867
90991SOL    HW174812   8.009   1.475   1.851
90991SOL    HW274813   7.883   1.518   1.780
90992SOL     OW74814  10.529   2.539   4.858
90992SOL    HW174815  10.511   2.506   4.946
90992SOL    HW274816  10.595   2.480   4.823
90993SOL     OW74817   7.714   1.512   7.250
90993SOL    HW174818   7.701   1.476   7.338
90993SOL    HW274819   7.805   1.490   7.229
90994SOL     OW74820  14.434  13.059  13.750
90994SOL    HW174821  14.380  13.116  13.804
90994SOL    HW274822  14.379  13.035  13.676
90995SOL     OW74823   9.540   8.652  14.523
90995SOL    HW174824   9.502   8.626  14.439
90995SOL    HW274825   9.472   8.703  14.566
90996SOL     OW74826   5.843   7.315   0.886
90996SOL    HW174827   5.925   7.322   0.935
90996SOL    HW274828   5.861   7.251   0.818
90997SOL     OW74829   9.921  11.229   9.178
90997SOL    HW174830   9.906  11.197   9.089
90997SOL    HW274831  10.014  11.213   9.194
90998SOL     OW74832   1.941   8.192  11.659
90998SOL    HW174833   1.956   8.167  11.568
90998SOL    HW274834   1.851   8.223  11.661
90999SOL     OW74835   5.070   6.322   6.718
90999SOL    HW174836   5.051   6.379   6.643
90999SOL    HW274837   5.148   6.361   6.758
91000SOL     OW74838   6.287   3.332  10.268
91000SOL    HW174839   6.232   3.410  10.266
91000SOL    HW274840   6.360   3.352  10.209
91001SOL     OW74841   3.660   6.817   2.614
91001SOL    HW174842   3.702   6.844   2.532
91001SOL    HW274843   3.725   6.762   2.658
91002SOL     OW74844  10.813   3.846   1.074
91002SOL    HW174845  10.791   3.801   0.993
91002SOL    HW274846  10.895   3.892   1.054
91003SOL     OW74847  11.445   1.372   9.317
91003SOL    HW174848  11.499   1.306   9.274
91003SOL    HW274849  11.359   1.332   9.325
91004SOL     OW74850   7.463  13.576   7.302
91004SOL    HW174851   7.542  13.562   7.355
91004SOL    HW274852   7.473  13.517   7.228
91005SOL     OW74853   4.073   7.459   7.659
91005SOL    HW174854   4.109   7.465   7.747
91005SOL    HW274855   4.089   7.545   7.621
91006SOL     OW74856  13.143  10.997   2.498
91006SOL    HW174857  13.070  11.045   2.459
91006SOL    HW274858  13.102  10.918   2.535
91007SOL     OW74859   4.027   2.706  10.573
91007SOL    HW174860   3.997   2.622  10.607
91007SOL    HW274861   3.950   2.742  10.528
91008SOL     OW74862   2.952   2.852   7.948
91008SOL    HW174863   2.876   2.901   7.979
91008SOL    HW274864   3.007   2.841   8.025
91009SOL     OW74865  14.811   6.631   1.169
91009SOL    HW174866  14.748   6.695   1.134
91009SOL    HW274867  14.757   6.571   1.221
91010SOL     OW74868  10.902   4.106   3.730
91010SOL    HW174869  10.994   4.081   3.729
91010SOL    HW274870  10.896   4.177   3.793
91011SOL     OW74871   4.705   9.175   0.787
91011SOL    HW174872   4.718   9.232   0.863
91011SOL    HW274873   4.791   9.136   0.770
91012SOL     OW74874   6.514   5.574   9.364
91012SOL    HW174875   6.507   5.529   9.449
91012SOL    HW274876   6.548   5.507   9.304
91013SOL     OW74877   7.987  10.213   1.396
91013SOL    HW174878   8.022  10.276   1.333
91013SOL    HW274879   7.947  10.145   1.343
91014SOL     OW74880   4.638   3.347  13.579
91014SOL    HW174881   4.652   3.415  13.645
91014SOL    HW274882   4.589   3.390  13.510
91015SOL     OW74883  10.213   1.843   9.923
91015SOL    HW174884  10.297   1.875   9.959
91015SOL    HW274885  10.187   1.910   9.860
91016SOL     OW74886   6.827   4.350  12.516
91016SOL    HW174887   6.824   4.429  12.570
91016SOL    HW274888   6.920   4.330  12.508
91017SOL     OW74889   6.506   9.030   4.110
91017SOL    HW174890   6.526   9.116   4.148
91017SOL    HW274891   6.411   9.029   4.102
91018SOL     OW74892   5.028  10.566   6.975
91018SOL    HW174893   4.935  10.586   6.961
91018SOL    HW274894   5.037  10.560   7.070
91019SOL     OW74895   8.472   7.543   3.250
91019SOL    HW174896   8.409   7.478   3.221
91019SOL    HW274897   8.420   7.623   3.264
91020SOL     OW74898  13.614   2.854   6.496
91020SOL    HW174899  13.560   2.932   6.486
91020SOL    HW274900  13.552   2.784   6.518
91021SOL     OW74901  13.912  13.537   6.466
91021SOL    HW174902  13.908  13.451   6.425
91021SOL    HW274903  13.824  13.551   6.502
91022SOL     OW74904   8.554   6.341   9.273
91022SOL    HW174905   8.556   6.434   9.249
91022SOL    HW274906   8.623   6.301   9.219
91023SOL     OW74907  11.847  12.942   0.184
91023SOL    HW174908  11.797  13.010   0.140
91023SOL    HW274909  11.930  12.938   0.135
91024SOL     OW74910   4.851   8.318   9.336
91024SOL    HW174911   4.834   8.287   9.247
91024SOL    HW274912   4.820   8.247   9.392
91025SOL     OW74913   4.131  12.769   8.723
91025SOL    HW174914   4.087  12.837   8.672
91025SOL    HW274915   4.081  12.762   8.804
91026SOL     OW74916  11.999   7.280   3.673
91026SOL    HW174917  12.064   7.210   3.683
91026SOL    HW274918  12.001   7.327   3.756
91027SOL     OW74919   2.510  14.803   1.541
91027SOL    HW174920   2.585  14.857   1.516
91027SOL    HW274921   2.549  14.728   1.587
91028SOL     OW74922  12.939   7.717   4.447
91028SOL    HW174923  12.950   7.697   4.540
91028SOL    HW274924  13.023   7.695   4.407
91029SOL     OW74925  13.797   5.150  13.200
91029SOL    HW174926  13.800   5.064  13.159
91029SOL    HW274927  13.713   5.152  13.247
91030SOL     OW74928   3.566  13.933  11.058
91030SOL    HW174929   3.629  13.919  11.128
91030SOL    HW274930   3.593  14.016  11.017
91031SOL     OW74931   2.965   9.960   1.649
91031SOL    HW174932   3.005  10.043   1.674
91031SOL    HW274933   2.871   9.978   1.648
91032SOL     OW74934   8.738   5.827  12.049
91032SOL    HW174935   8.831   5.802  12.052
91032SOL    HW274936   8.691   5.744  12.040
91033SOL     OW74937  12.528   8.341   9.640
91033SOL    HW174938  12.551   8.275   9.575
91033SOL    HW274939  12.456   8.390   9.600
91034SOL     OW74940   8.486   5.204   0.548
91034SOL    HW174941   8.514   5.174   0.462
91034SOL    HW274942   8.565   5.200   0.602
91035SOL     OW74943   6.059   0.466  14.477
91035SOL    HW174944   6.030   0.550  14.441
91035SOL    HW274945   6.026   0.466  14.567
91036SOL     OW74946   9.941  13.499   1.647
91036SOL    HW174947   9.978  13.475   1.562
91036SOL    HW274948   9.848  13.514   1.630
91037SOL     OW74949   5.147   0.533   1.445
91037SOL    HW174950   5.129   0.455   1.393
91037SOL    HW274951   5.142   0.605   1.382
91038SOL     OW74952   8.791   4.341   2.741
91038SOL    HW174953   8.711   4.386   2.716
91038SOL    HW274954   8.838   4.328   2.659
91039SOL     OW74955   2.650   7.261  11.733
91039SOL    HW174956   2.734   7.285  11.771
91039SOL    HW274957   2.670   7.193  11.669
91040SOL     OW74958   2.600   6.272  11.155
91040SOL    HW174959   2.622   6.365  11.145
91040SOL    HW274960   2.569   6.264  11.245
91041SOL     OW74961  12.190   8.201   7.439
91041SOL    HW174962  12.220   8.115   7.410
91041SOL    HW274963  12.110   8.217   7.389
91042SOL     OW74964   3.765   6.861   5.644
91042SOL    HW174965   3.683   6.890   5.607
91042SOL    HW274966   3.827   6.863   5.571
91043SOL     OW74967   4.332   0.222   7.147
91043SOL    HW174968   4.344   0.287   7.216
91043SOL    HW274969   4.329   0.274   7.066
91044SOL     OW74970   7.191  11.424   8.436
91044SOL    HW174971   7.133  11.463   8.370
91044SOL    HW274972   7.260  11.382   8.384
91045SOL     OW74973   5.539  13.247  13.075
91045SOL    HW174974   5.543  13.255  12.980
91045SOL    HW274975   5.612  13.300  13.107
91046SOL     OW74976  12.979  11.093  12.315
91046SOL    HW174977  12.901  11.149  12.317
91046SOL    HW274978  12.948  11.011  12.277
91047SOL     OW74979  13.593   9.277   6.719
91047SOL    HW174980  13.544   9.278   6.636
91047SOL    HW274981  13.529   9.249   6.784
91048SOL     OW74982   4.668  13.917  12.820
91048SOL    HW174983   4.703  14.006  12.826
91048SOL    HW274984   4.605  13.921  12.748
91049SOL     OW74985   3.195  13.841   3.577
91049SOL    HW174986   3.143  13.764   3.551
91049SOL    HW274987   3.286  13.814   3.565
91050SOL     OW74988   8.837  13.911   1.904
91050SOL    HW174989   8.906  13.964   1.946
91050SOL    HW274990   8.864  13.821   1.919
91051SOL     OW74991   9.247   2.524  11.039
91051SOL    HW174992   9.269   2.617  11.048
91051SOL    HW274993   9.175   2.523  10.976
91052SOL     OW74994   3.655   4.628   0.219
91052SOL    HW174995   3.709   4.605   0.143
91052SOL    HW274996   3.565   4.615   0.190
91053SOL     OW74997   7.992  14.244   3.468
91053SOL    HW174998   8.032  14.189   3.536
91053SOL    HW274999   7.899  14.225   3.474
91054SOL     OW75000   6.368  11.014   7.722
91054SOL    HW175001   6.352  11.095   7.771
91054SOL    HW275002   6.455  11.026   7.683
91055SOL     OW75003  13.967   8.636   7.872
91055SOL    HW175004  13.927   8.678   7.795
91055SOL    HW275005  13.904   8.568   7.897
91056SOL     OW75006   8.848  13.263   2.856
91056SOL    HW175007   8.799  13.197   2.904
91056SOL    HW275008   8.925  13.280   2.911
91057SOL     OW75009   9.031   6.983   4.814
91057SOL    HW175010   9.050   7.035   4.736
91057SOL    HW275011   8.937   6.995   4.829
91058SOL     OW75012   8.946   0.973   5.836
91058SOL    HW175013   8.863   0.930   5.856
91058SOL    HW275014   8.923   1.064   5.821
91059SOL     OW75015   4.081  13.348   3.242
91059SOL    HW175016   4.171  13.377   3.254
91059SOL    HW275017   4.028  13.415   3.285
91060SOL     OW75018   8.037   5.869  10.673
91060SOL    HW175019   7.985   5.949  10.683
91060SOL    HW275020   8.088   5.884  10.594
91061SOL     OW75021   2.012   6.277   4.254
91061SOL    HW175022   2.026   6.212   4.323
91061SOL    HW275023   1.941   6.241   4.201
91062SOL     OW75024   6.852   0.087   7.317
91062SOL    HW175025   6.919   0.047   7.372
91062SOL    HW275026   6.774   0.033   7.331
91063SOL     OW75027   0.050  12.681   0.871
91063SOL    HW175028   0.001  12.607   0.907
91063SOL    HW275029   0.142  12.656   0.881
91064SOL     OW75030   6.147  12.717  11.337
91064SOL    HW175031   6.239  12.727  11.314
91064SOL    HW275032   6.104  12.790  11.292
91065SOL     OW75033   1.919  13.608   9.289
91065SOL    HW175034   1.896  13.585   9.199
91065SOL    HW275035   1.982  13.541   9.316
91066SOL     OW75036   8.945  10.699   6.908
91066SOL    HW175037   9.018  10.684   6.968
91066SOL    HW275038   8.889  10.622   6.918
91067SOL     OW75039   8.230   0.989   1.851
91067SOL    HW175040   8.176   0.922   1.809
91067SOL    HW275041   8.204   1.071   1.810
91068SOL     OW75042   1.865   9.412   6.379
91068SOL    HW175043   1.810   9.416   6.457
91068SOL    HW275044   1.937   9.472   6.398
91069SOL     OW75045   3.730   9.639   2.764
91069SOL    HW175046   3.738   9.544   2.757
91069SOL    HW275047   3.802   9.665   2.822
91070SOL     OW75048   4.678   8.173   2.994
91070SOL    HW175049   4.640   8.111   3.056
91070SOL    HW275050   4.682   8.256   3.042
91071SOL     OW75051   2.261   0.067  13.125
91071SOL    HW175052   2.183   0.078  13.181
91071SOL    HW275053   2.226   0.060  13.036
91072SOL     OW75054   0.757   5.823  12.713
91072SOL    HW175055   0.724   5.794  12.798
91072SOL    HW275056   0.711   5.768  12.649
91073SOL     OW75057  10.352   2.626   3.846
91073SOL    HW175058  10.275   2.642   3.791
91073SOL    HW275059  10.424   2.618   3.783
91074SOL     OW75060   7.759   9.794  11.273
91074SOL    HW175061   7.688   9.853  11.245
91074SOL    HW275062   7.716   9.730  11.330
91075SOL     OW75063   8.370   8.821   7.443
91075SOL    HW175064   8.372   8.755   7.512
91075SOL    HW275065   8.461   8.842   7.426
91076SOL     OW75066   3.318  10.775   9.667
91076SOL    HW175067   3.233  10.797   9.630
91076SOL    HW275068   3.338  10.846   9.728
91077SOL     OW75069   5.840   1.325  13.124
91077SOL    HW175070   5.935   1.330  13.131
91077SOL    HW275071   5.808   1.407  13.164
91078SOL     OW75072  12.944  11.520   6.345
91078SOL    HW175073  12.965  11.433   6.312
91078SOL    HW275074  12.854  11.535   6.319
91079SOL     OW75075   4.936   5.267  13.520
91079SOL    HW175076   4.979   5.351  13.537
91079SOL    HW275077   4.997   5.220  13.462
91080SOL     OW75078  13.706   1.610   6.229
91080SOL    HW175079  13.769   1.549   6.190
91080SOL    HW275080  13.685   1.671   6.159
91081SOL     OW75081   9.484   8.814  11.274
91081SOL    HW175082   9.501   8.720  11.265
91081SOL    HW275083   9.554   8.845  11.332
91082SOL     OW75084   5.193   1.603  11.634
91082SOL    HW175085   5.165   1.565  11.718
91082SOL    HW275086   5.283   1.570  11.623
91083SOL     OW75087   4.400   9.145  12.181
91083SOL    HW175088   4.447   9.228  12.191
91083SOL    HW275089   4.450   9.083  12.233
91084SOL     OW75090   9.297   2.459  14.091
91084SOL    HW175091   9.343   2.432  14.012
91084SOL    HW275092   9.366   2.495  14.147
91085SOL     OW75093   2.564   0.502   1.110
91085SOL    HW175094   2.588   0.414   1.082
91085SOL    HW275095   2.573   0.500   1.205
91086SOL     OW75096   1.286  13.834   8.323
91086SOL    HW175097   1.281  13.824   8.228
91086SOL    HW275098   1.275  13.928   8.337
91087SOL     OW75099   8.545  10.755   6.411
91087SOL    HW175100   8.473  10.718   6.462
91087SOL    HW275101   8.606  10.789   6.476
91088SOL     OW75102  13.244  11.177   6.090
91088SOL    HW175103  13.316  11.165   6.152
91088SOL    HW275104  13.231  11.090   6.052
91089SOL     OW75105   0.635   9.614   9.884
91089SOL    HW175106   0.681   9.530   9.877
91089SOL    HW275107   0.545   9.590   9.904
91090SOL     OW75108   7.667  12.563  11.818
91090SOL    HW175109   7.709  12.552  11.734
91090SOL    HW275110   7.574  12.545  11.801
91091SOL     OW75111  14.343  13.041   6.577
91091SOL    HW175112  14.386  13.107   6.524
91091SOL    HW275113  14.253  13.073   6.587
91092SOL     OW75114   0.439  13.655  12.918
91092SOL    HW175115   0.521  13.648  12.967
91092SOL    HW275116   0.465  13.643  12.827
91093SOL     OW75117   1.888   1.354   4.594
91093SOL    HW175118   1.901   1.376   4.502
91093SOL    HW275119   1.793   1.341   4.602
91094SOL     OW75120   2.252  11.095   2.213
91094SOL    HW175121   2.257  11.162   2.144
91094SOL    HW275122   2.222  11.142   2.290
91095SOL     OW75123   2.683  11.812   6.943
91095SOL    HW175124   2.599  11.785   6.981
91095SOL    HW275125   2.743  11.816   7.017
91096SOL     OW75126  10.412  10.532  13.734
91096SOL    HW175127  10.435  10.547  13.643
91096SOL    HW275128  10.489  10.563  13.784
91097SOL     OW75129  13.431   2.111   2.762
91097SOL    HW175130  13.508   2.152   2.723
91097SOL    HW275131  13.357   2.158   2.725
91098SOL     OW75132  12.813   2.528   4.816
91098SOL    HW175133  12.783   2.458   4.757
91098SOL    HW275134  12.864   2.482   4.883
91099SOL     OW75135  14.805   7.676   5.614
91099SOL    HW175136   0.001   7.716   5.665
91099SOL    HW275137  14.731   7.670   5.674
91100SOL     OW75138  14.327   0.056   5.110
91100SOL    HW175139  14.371   0.112   5.174
91100SOL    HW275140  14.243   0.098   5.095
91101SOL     OW75141   8.891   9.546   4.010
91101SOL    HW175142   8.969   9.580   3.965
91101SOL    HW275143   8.898   9.581   4.099
91102SOL     OW75144   9.017   6.917   0.143
91102SOL    HW175145   9.030   6.975   0.068
91102SOL    HW275146   9.098   6.925   0.193
91103SOL     OW75147  14.709   7.924  11.064
91103SOL    HW175148  14.644   7.993  11.048
91103SOL    HW275149  14.658   7.853  11.103
91104SOL     OW75150  10.540   8.697   8.383
91104SOL    HW175151  10.509   8.767   8.325
91104SOL    HW275152  10.514   8.725   8.471
91105SOL     OW75153  12.202   0.183   9.300
91105SOL    HW175154  12.244   0.251   9.352
91105SOL    HW275155  12.127   0.155   9.352
91106SOL     OW75156   5.824   3.868  10.053
91106SOL    HW175157   5.888   3.874  10.125
91106SOL    HW275158   5.740   3.884  10.095
91107SOL     OW75159   9.623   0.641  11.640
91107SOL    HW175160   9.625   0.736  11.649
91107SOL    HW275161   9.672   0.608  11.715
91108SOL     OW75162   3.673   1.514  12.805
91108SOL    HW175163   3.629   1.520  12.890
91108SOL    HW275164   3.613   1.556  12.744
91109SOL     OW75165   3.423   1.028  11.814
91109SOL    HW175166   3.485   1.002  11.746
91109SOL    HW275167   3.402   1.119  11.795
91110SOL     OW75168   2.228   1.275   6.722
91110SOL    HW175169   2.256   1.350   6.774
91110SOL    HW275170   2.268   1.200   6.765
91111SOL     OW75171   7.568   1.300   1.811
91111SOL    HW175172   7.587   1.331   1.722
91111SOL    HW275173   7.526   1.215   1.798
91112SOL     OW75174   1.247   9.004   0.828
91112SOL    HW175175   1.317   9.044   0.776
91112SOL    HW275176   1.259   9.040   0.916
91113SOL     OW75177   6.932   8.759   4.736
91113SOL    HW175178   7.006   8.784   4.792
91113SOL    HW275179   6.865   8.730   4.798
91114SOL     OW75180  13.706   2.779  10.222
91114SOL    HW175181  13.703   2.728  10.141
91114SOL    HW275182  13.724   2.713  10.290
91115SOL     OW75183   4.926   8.252  13.593
91115SOL    HW175184   4.835   8.279  13.580
91115SOL    HW275185   4.959   8.314  13.659
91116SOL     OW75186   1.277   7.370   9.594
91116SOL    HW175187   1.237   7.283   9.594
91116SOL    HW275188   1.249   7.409   9.511
91117SOL     OW75189   1.466   1.166   1.425
91117SOL    HW175190   1.499   1.100   1.486
91117SOL    HW275191   1.396   1.211   1.474
91118SOL     OW75192   3.736   2.332  10.276
91118SOL    HW175193   3.725   2.393  10.349
91118SOL    HW275194   3.664   2.270  10.284
91119SOL     OW75195   2.575  13.422   0.085
91119SOL    HW175196   2.543  13.480   0.016
91119SOL    HW275197   2.499  13.367   0.107
91120SOL     OW75198  14.353  10.933   5.295
91120SOL    HW175199  14.261  10.906   5.295
91120SOL    HW275200  14.398  10.863   5.343
91121SOL     OW75201  10.008  13.936   1.370
91121SOL    HW175202  10.049  13.919   1.455
91121SOL    HW275203   9.936  13.996   1.390
91122SOL     OW75204   4.486  10.061   3.036
91122SOL    HW175205   4.480  10.141   3.089
91122SOL    HW275206   4.577  10.033   3.046
91123SOL     OW75207   3.782   3.575  12.099
91123SOL    HW175208   3.803   3.499  12.045
91123SOL    HW275209   3.693   3.559  12.130
91124SOL     OW75210  10.357   4.964   5.948
91124SOL    HW175211  10.294   5.007   6.005
91124SOL    HW275212  10.353   5.013   5.866
91125SOL     OW75213   7.802  11.642   2.943
91125SOL    HW175214   7.782  11.562   2.894
91125SOL    HW275215   7.897  11.644   2.949
91126SOL     OW75216   2.990  13.364  11.612
91126SOL    HW175217   2.919  13.353  11.675
91126SOL    HW275218   2.946  13.367  11.527
91127SOL     OW75219   4.409   4.170  10.310
91127SOL    HW175220   4.419   4.263  10.290
91127SOL    HW275221   4.487   4.129  10.272
91128SOL     OW75222  12.089   3.164  14.791
91128SOL    HW175223  12.129   3.249  14.771
91128SOL    HW275224  12.072   3.125  14.706
91129SOL     OW75225   7.924  12.723   3.686
91129SOL    HW175226   7.959  12.708   3.598
91129SOL    HW275227   7.891  12.638   3.714
91130SOL     OW75228   3.046   4.908   6.909
91130SOL    HW175229   3.106   4.979   6.928
91130SOL    HW275230   2.996   4.896   6.990
91131SOL     OW75231  12.817   2.231   0.967
91131SOL    HW175232  12.845   2.142   0.948
91131SOL    HW275233  12.721   2.227   0.963
91132SOL     OW75234  10.783  13.543  13.853
91132SOL    HW175235  10.706  13.488  13.867
91132SOL    HW275236  10.855  13.481  13.839
91133SOL     OW75237   8.308   9.077   8.849
91133SOL    HW175238   8.221   9.048   8.821
91133SOL    HW275239   8.337   9.009   8.910
91134SOL     OW75240   7.362   0.030  12.433
91134SOL    HW175241   7.439   0.083  12.452
91134SOL    HW275242   7.364  14.833  12.498
91135SOL     OW75243   7.909  11.526   6.399
91135SOL    HW175244   7.823  11.545   6.363
91135SOL    HW275245   7.970  11.572   6.341
91136SOL     OW75246   4.883   8.945   4.153
91136SOL    HW175247   4.942   8.937   4.078
91136SOL    HW275248   4.807   8.992   4.119
91137SOL     OW75249  10.014   9.903  12.307
91137SOL    HW175250  10.000   9.978  12.366
91137SOL    HW275251   9.930   9.891  12.264
91138SOL     OW75252  10.662   8.830   9.639
91138SOL    HW175253  10.704   8.904   9.596
91138SOL    HW275254  10.734   8.776   9.671
91139SOL     OW75255  13.609   1.316  11.922
91139SOL    HW175256  13.698   1.330  11.955
91139SOL    HW275257  13.616   1.333  11.828
91140SOL     OW75258   5.896  13.706  12.702
91140SOL    HW175259   5.811  13.727  12.740
91140SOL    HW275260   5.906  13.612  12.716
91141SOL     OW75261   0.391  13.547  11.728
91141SOL    HW175262   0.389  13.620  11.789
91141SOL    HW275263   0.442  13.578  11.654
91142SOL     OW75264   8.918   7.677   1.618
91142SOL    HW175265   8.967   7.754   1.646
91142SOL    HW275266   8.966   7.602   1.654
91143SOL     OW75267   3.425  11.606   6.019
91143SOL    HW175268   3.332  11.604   5.997
91143SOL    HW275269   3.429  11.583   6.112
91144SOL     OW75270   2.083  10.463  11.890
91144SOL    HW175271   2.014  10.452  11.956
91144SOL    HW275272   2.063  10.397  11.824
91145SOL     OW75273   2.974  10.125   4.841
91145SOL    HW175274   2.893  10.146   4.888
91145SOL    HW275275   2.949  10.126   4.749
91146SOL     OW75276  11.489   3.879  12.688
91146SOL    HW175277  11.561   3.938  12.664
91146SOL    HW275278  11.497   3.807  12.626
91147SOL     OW75279   4.119   3.802   1.312
91147SOL    HW175280   4.172   3.881   1.317
91147SOL    HW275281   4.031   3.832   1.289
91148SOL     OW75282   8.724   0.563  11.672
91148SOL    HW175283   8.649   0.590  11.619
91148SOL    HW275284   8.731   0.631  11.740
91149SOL     OW75285   2.231  14.491   6.427
91149SOL    HW175286   2.177  14.441   6.489
91149SOL    HW275287   2.269  14.425   6.369
91150SOL     OW75288   8.919   7.669   0.040
91150SOL    HW175289   9.001   7.639   0.003
91150SOL    HW275290   8.929   7.764   0.046
91151SOL     OW75291   1.195  10.609   1.812
91151SOL    HW175292   1.209  10.539   1.748
91151SOL    HW275293   1.135  10.572   1.877
91152SOL     OW75294   7.953   6.681   1.345
91152SOL    HW175295   7.982   6.753   1.401
91152SOL    HW275296   7.865   6.706   1.317
91153SOL     OW75297   4.988  12.177  12.966
91153SOL    HW175298   4.898  12.206  12.981
91153SOL    HW275299   5.041  12.255  12.984
91154SOL     OW75300   0.068   9.053   1.543
91154SOL    HW175301   0.038   9.090   1.626
91154SOL    HW275302   0.135   9.114   1.513
91155SOL     OW75303   9.632  13.587   3.191
91155SOL    HW175304   9.644  13.560   3.282
91155SOL    HW275305   9.645  13.682   3.193
91156SOL     OW75306   6.625   8.230   5.090
91156SOL    HW175307   6.596   8.322   5.090
91156SOL    HW275308   6.680   8.223   5.012
91157SOL     OW75309   9.845   1.996   7.933
91157SOL    HW175310   9.771   1.937   7.920
91157SOL    HW275311   9.922   1.943   7.915
91158SOL     OW75312  10.106  14.232   0.587
91158SOL    HW175313  10.031  14.273   0.543
91158SOL    HW275314  10.071  14.207   0.673
91159SOL     OW75315  14.523   1.569   2.442
91159SOL    HW175316  14.549   1.502   2.504
91159SOL    HW275317  14.519   1.649   2.494
91160SOL     OW75318   9.045   4.966   0.869
91160SOL    HW175319   8.952   4.978   0.887
91160SOL    HW275320   9.068   4.885   0.913
91161SOL     OW75321   7.039   3.236   7.356
91161SOL    HW175322   7.117   3.202   7.400
91161SOL    HW275323   7.007   3.163   7.304
91162SOL     OW75324   7.274  12.025  12.224
91162SOL    HW175325   7.368  12.012  12.223
91162SOL    HW275326   7.239  11.958  12.165
91163SOL     OW75327   2.350   2.771   9.819
91163SOL    HW175328   2.259   2.744   9.814
91163SOL    HW275329   2.360   2.836   9.750
91164SOL     OW75330   5.235  13.902   9.343
91164SOL    HW175331   5.213  13.885   9.435
91164SOL    HW275332   5.158  13.874   9.294
91165SOL     OW75333   7.734  14.662   6.103
91165SOL    HW175334   7.697  14.665   6.191
91165SOL    HW275335   7.829  14.665   6.116
91166SOL     OW75336  11.788   7.234   4.969
91166SOL    HW175337  11.815   7.303   5.029
91166SOL    HW275338  11.696   7.253   4.949
91167SOL     OW75339   1.354  10.243   3.276
91167SOL    HW175340   1.366  10.165   3.330
91167SOL    HW275341   1.404  10.226   3.196
91168SOL     OW75342  12.052   7.272   0.723
91168SOL    HW175343  12.044   7.366   0.710
91168SOL    HW275344  11.965   7.244   0.753
91169SOL     OW75345   5.613  14.296   6.225
91169SOL    HW175346   5.610  14.391   6.217
91169SOL    HW275347   5.693  14.278   6.275
91170SOL     OW75348   7.367   5.504  10.264
91170SOL    HW175349   7.445   5.459  10.297
91170SOL    HW275350   7.381   5.596  10.288
91171SOL     OW75351   2.879   2.512   0.438
91171SOL    HW175352   2.883   2.538   0.346
91171SOL    HW275353   2.846   2.422   0.436
91172SOL     OW75354   7.886   0.694   8.741
91172SOL    HW175355   7.929   0.663   8.661
91172SOL    HW275356   7.958   0.721   8.798
91173SOL     OW75357   5.690   0.437   0.760
91173SOL    HW175358   5.767   0.482   0.728
91173SOL    HW275359   5.674   0.475   0.847
91174SOL     OW75360  13.885  12.000   1.047
91174SOL    HW175361  13.934  12.019   0.967
91174SOL    HW275362  13.812  12.062   1.046
91175SOL     OW75363   9.784  12.231   3.426
91175SOL    HW175364   9.732  12.284   3.486
91175SOL    HW275365   9.736  12.235   3.343
91176SOL     OW75366   5.467   2.252   6.689
91176SOL    HW175367   5.385   2.204   6.685
91176SOL    HW275368   5.508   2.238   6.603
91177SOL     OW75369   1.368   2.221   8.581
91177SOL    HW175370   1.408   2.294   8.628
91177SOL    HW275371   1.287   2.258   8.545
91178SOL     OW75372   5.776   2.292  13.899
91178SOL    HW175373   5.699   2.240  13.920
91178SOL    HW275374   5.752   2.341  13.820
91179SOL     OW75375  12.228   4.977   1.878
91179SOL    HW175376  12.227   4.883   1.897
91179SOL    HW275377  12.225   5.019   1.964
91180SOL     OW75378  12.334  10.263  11.604
91180SOL    HW175379  12.299  10.254  11.692
91180SOL    HW275380  12.260  10.294  11.552
91181SOL     OW75381   7.030   5.057   0.593
91181SOL    HW175382   7.060   5.086   0.507
91181SOL    HW275383   7.103   5.077   0.652
91182SOL     OW75384   3.752   9.761   5.156
91182SOL    HW175385   3.830   9.806   5.122
91182SOL    HW275386   3.738   9.688   5.096
91183SOL     OW75387   4.787   8.493  14.854
91183SOL    HW175388   4.868   8.541  14.868
91183SOL    HW275389   4.721   8.561  14.838
91184SOL     OW75390   7.100   1.974   5.457
91184SOL    HW175391   7.078   2.019   5.376
91184SOL    HW275392   7.069   1.884   5.445
91185SOL     OW75393  14.006  14.489   3.522
91185SOL    HW175394  13.958  14.474   3.440
91185SOL    HW275395  13.983  14.579   3.546
91186SOL     OW75396   7.175   4.506   3.115
91186SOL    HW175397   7.212   4.462   3.038
91186SOL    HW275398   7.223   4.471   3.189
91187SOL     OW75399   4.817   4.055   0.653
91187SOL    HW175400   4.759   4.115   0.607
91187SOL    HW275401   4.793   3.969   0.621
91188SOL     OW75402   4.839  13.454   2.390
91188SOL    HW175403   4.860  13.527   2.331
91188SOL    HW275404   4.853  13.375   2.338
91189SOL     OW75405  11.591  10.847   0.163
91189SOL    HW175406  11.637  10.908   0.105
91189SOL    HW275407  11.540  10.903   0.221
91190SOL     OW75408   4.164   0.240   6.511
91190SOL    HW175409   4.141   0.161   6.559
91190SOL    HW275410   4.113   0.235   6.430
91191SOL     OW75411   9.734   2.243   8.080
91191SOL    HW175412   9.755   2.155   8.047
91191SOL    HW275413   9.704   2.227   8.170
91192SOL     OW75414  13.038  14.738  13.414
91192SOL    HW175415  13.051  14.697  13.500
91192SOL    HW275416  13.046  14.666  13.352
91193SOL     OW75417   1.747   2.059   2.708
91193SOL    HW175418   1.709   2.044   2.621
91193SOL    HW275419   1.768   1.971   2.740
91194SOL     OW75420   9.735   8.121   4.978
91194SOL    HW175421   9.827   8.113   5.003
91194SOL    HW275422   9.690   8.055   5.031
91195SOL     OW75423   0.636   6.276  12.146
91195SOL    HW175424   0.586   6.195  12.134
91195SOL    HW275425   0.714   6.249  12.194
91196SOL     OW75426   6.335   7.126  13.663
91196SOL    HW175427   6.407   7.066  13.644
91196SOL    HW275428   6.281   7.123  13.584
91197SOL     OW75429  10.915   3.063   8.611
91197SOL    HW175430  11.003   3.053   8.648
91197SOL    HW275431  10.923   3.136   8.550
91198SOL     OW75432   6.400   3.318  11.473
91198SOL    HW175433   6.492   3.307  11.495
91198SOL    HW275434   6.391   3.411  11.453
91199SOL     OW75435   7.162  13.328   7.365
91199SOL    HW175436   7.171  13.414   7.406
91199SOL    HW275437   7.116  13.346   7.283
91200SOL     OW75438   9.939  11.520   9.162
91200SOL    HW175439   9.975  11.545   9.247
91200SOL    HW275440   9.936  11.424   9.164
91201SOL     OW75441   6.590   8.786  12.971
91201SOL    HW175442   6.551   8.716  13.024
91201SOL    HW275443   6.541   8.864  12.996
91202SOL     OW75444   8.132   2.086  13.102
91202SOL    HW175445   8.169   2.001  13.076
91202SOL    HW275446   8.047   2.089  13.058
91203SOL     OW75447  11.637   0.268  14.359
91203SOL    HW175448  11.627   0.302  14.448
91203SOL    HW275449  11.631   0.173  14.369
91204SOL     OW75450   1.221   5.056   1.457
91204SOL    HW175451   1.254   4.978   1.413
91204SOL    HW275452   1.268   5.129   1.417
91205SOL     OW75453   3.138   2.817   4.757
91205SOL    HW175454   3.084   2.812   4.678
91205SOL    HW275455   3.228   2.815   4.724
91206SOL     OW75456  10.908  13.171  12.570
91206SOL    HW175457  11.000  13.198  12.569
91206SOL    HW275458  10.863  13.241  12.619
91207SOL     OW75459   5.523   1.496  12.192
91207SOL    HW175460   5.428   1.505  12.188
91207SOL    HW275461   5.538   1.410  12.232
91208SOL     OW75462  14.063   2.821   6.259
91208SOL    HW175463  14.060   2.890   6.326
91208SOL    HW275464  14.028   2.744   6.303
91209SOL     OW75465   3.581   5.214  13.445
91209SOL    HW175466   3.671   5.200  13.416
91209SOL    HW275467   3.586   5.215  13.541
91210SOL     OW75468   6.089   8.704   6.764
91210SOL    HW175469   6.106   8.710   6.858
91210SOL    HW275470   6.019   8.639   6.757
91211SOL     OW75471   8.215   8.232  10.846
91211SOL    HW175472   8.122   8.248  10.830
91211SOL    HW275473   8.219   8.205  10.938
91212SOL     OW75474   7.468   8.273   8.441
91212SOL    HW175475   7.544   8.298   8.388
91212SOL    HW275476   7.425   8.205   8.389
91213SOL     OW75477   4.978   8.830   4.412
91213SOL    HW175478   4.926   8.910   4.412
91213SOL    HW275479   4.984   8.805   4.320
91214SOL     OW75480   5.747  14.705   0.100
91214SOL    HW175481   5.664  14.675   0.063
91214SOL    HW275482   5.750  14.665   0.187
91215SOL     OW75483   6.962  13.053   2.535
91215SOL    HW175484   6.944  13.024   2.445
91215SOL    HW275485   6.919  13.138   2.541
91216SOL     OW75486   6.918  11.440   2.047
91216SOL    HW175487   6.990  11.458   2.107
91216SOL    HW275488   6.872  11.366   2.086
91217SOL     OW75489  12.461  12.327   2.508
91217SOL    HW175490  12.421  12.240   2.515
91217SOL    HW275491  12.519  12.320   2.432
91218SOL     OW75492  13.284   7.543   7.513
91218SOL    HW175493  13.209   7.531   7.572
91218SOL    HW275494  13.340   7.468   7.529
91219SOL     OW75495  10.041   7.379   0.841
91219SOL    HW175496   9.954   7.412   0.861
91219SOL    HW275497  10.095   7.405   0.916
91220SOL     OW75498   8.687   0.413   1.184
91220SOL    HW175499   8.691   0.436   1.277
91220SOL    HW275500   8.743   0.336   1.177
91221SOL     OW75501  14.329   4.990   8.288
91221SOL    HW175502  14.396   4.983   8.356
91221SOL    HW275503  14.313   4.899   8.261
91222SOL     OW75504   3.800   4.924   9.097
91222SOL    HW175505   3.880   4.875   9.116
91222SOL    HW275506   3.829   4.993   9.036
91223SOL     OW75507   4.469   0.736   6.443
91223SOL    HW175508   4.456   0.692   6.359
91223SOL    HW275509   4.380   0.746   6.478
91224SOL     OW75510  14.251   2.979   1.685
91224SOL    HW175511  14.199   2.900   1.669
91224SOL    HW275512  14.291   2.965   1.770
91225SOL     OW75513   3.818   7.686   8.541
91225SOL    HW175514   3.837   7.704   8.449
91225SOL    HW275515   3.776   7.600   8.541
91226SOL     OW75516   2.160   5.649   6.891
91226SOL    HW175517   2.129   5.636   6.801
91226SOL    HW275518   2.210   5.731   6.887
91227SOL     OW75519  12.580   2.001   8.019
91227SOL    HW175520  12.595   1.907   8.015
91227SOL    HW275521  12.656   2.035   8.066
91228SOL     OW75522  10.284  14.392   1.684
91228SOL    HW175523  10.294  14.487   1.674
91228SOL    HW275524  10.286  14.359   1.594
91229SOL     OW75525   1.034  10.019   4.636
91229SOL    HW175526   1.002  10.011   4.546
91229SOL    HW275527   1.051  10.113   4.647
91230SOL     OW75528   6.048   3.539   0.422
91230SOL    HW175529   5.994   3.525   0.499
91230SOL    HW275530   6.054   3.634   0.413
91231SOL     OW75531   4.216  11.878   3.721
91231SOL    HW175532   4.310  11.890   3.737
91231SOL    HW275533   4.212  11.819   3.645
91232SOL     OW75534   7.303   2.742   8.842
91232SOL    HW175535   7.298   2.719   8.749
91232SOL    HW275536   7.218   2.782   8.861
91233SOL     OW75537   8.600   8.180   7.126
91233SOL    HW175538   8.552   8.262   7.118
91233SOL    HW275539   8.674   8.201   7.184
91234SOL     OW75540   8.181  14.000  14.805
91234SOL    HW175541   8.173  13.999  14.710
91234SOL    HW275542   8.091  14.000  14.837
91235SOL     OW75543  10.626  11.673   6.765
91235SOL    HW175544  10.531  11.668   6.775
91235SOL    HW275545  10.659  11.672   6.854
91236SOL     OW75546  13.054  12.415   1.562
91236SOL    HW175547  13.015  12.390   1.646
91236SOL    HW275548  13.025  12.347   1.502
91237SOL     OW75549   5.712   4.651   1.737
91237SOL    HW175550   5.625   4.615   1.717
91237SOL    HW275551   5.717   4.647   1.833
91238SOL     OW75552  13.858   9.788   9.416
91238SOL    HW175553  13.816   9.827   9.339
91238SOL    HW275554  13.801   9.812   9.489
91239SOL     OW75555   5.852   4.752  11.642
91239SOL    HW175556   5.946   4.736  11.645
91239SOL    HW275557   5.813   4.666  11.627
91240SOL     OW75558   1.019   0.159   9.729
91240SOL    HW175559   0.959   0.226   9.695
91240SOL    HW275560   1.010   0.086   9.668
91241SOL     OW75561   3.991   8.959   1.514
91241SOL    HW175562   3.997   8.978   1.420
91241SOL    HW275563   3.954   8.871   1.518
91242SOL     OW75564   0.775  11.210   7.298
91242SOL    HW175565   0.786  11.159   7.378
91242SOL    HW275566   0.684  11.240   7.300
91243SOL     OW75567   0.689   5.055   0.835
91243SOL    HW175568   0.757   5.113   0.802
91243SOL    HW275569   0.609   5.082   0.789
91244SOL     OW75570   9.554  14.867   3.748
91244SOL    HW175571   9.478  14.813   3.766
91244SOL    HW275572   9.558   0.055   3.821
91245SOL     OW75573   0.037   3.333   9.195
91245SOL    HW175574  14.829   3.315   9.149
91245SOL    HW275575   0.082   3.248   9.199
91246SOL     OW75576  13.157   8.267   3.878
91246SOL    HW175577  13.104   8.232   3.949
91246SOL    HW275578  13.219   8.197   3.856
91247SOL     OW75579   9.783   1.710   2.146
91247SOL    HW175580   9.736   1.641   2.193
91247SOL    HW275581   9.715   1.771   2.118
91248SOL     OW75582   4.491   6.847  12.612
91248SOL    HW175583   4.516   6.883  12.527
91248SOL    HW275584   4.553   6.885  12.673
91249SOL     OW75585  10.407   3.179   7.021
91249SOL    HW175586  10.399   3.273   7.009
91249SOL    HW275587  10.383   3.141   6.937
91250SOL     OW75588  10.288   8.201  12.651
91250SOL    HW175589  10.304   8.251  12.731
91250SOL    HW275590  10.315   8.112  12.672
91251SOL     OW75591  12.376  12.342  12.078
91251SOL    HW175592  12.373  12.350  11.983
91251SOL    HW275593  12.331  12.260  12.097
91252SOL     OW75594  11.790   4.519   7.984
91252SOL    HW175595  11.720   4.517   7.919
91252SOL    HW275596  11.749   4.556   8.063
91253SOL     OW75597   9.564   9.102   8.516
91253SOL    HW175598   9.609   9.171   8.466
91253SOL    HW275599   9.635   9.046   8.547
91254SOL     OW75600   1.187  12.001   9.491
91254SOL    HW175601   1.103  12.040   9.516
91254SOL    HW275602   1.242  12.076   9.468
91255SOL     OW75603  11.598  13.434  12.987
91255SOL    HW175604  11.507  13.409  12.998
91255SOL    HW275605  11.597  13.530  12.986
91256SOL     OW75606  10.182   4.830  14.489
91256SOL    HW175607  10.217   4.741  14.481
91256SOL    HW275608  10.087   4.820  14.479
91257SOL     OW75609  13.021   4.489   6.846
91257SOL    HW175610  12.926   4.481   6.846
91257SOL    HW275611  13.037   4.583   6.836
91258SOL     OW75612   1.442   8.038   8.732
91258SOL    HW175613   1.405   8.015   8.646
91258SOL    HW275614   1.471   8.129   8.721
91259SOL     OW75615  14.505   5.701   5.459
91259SOL    HW175616  14.428   5.688   5.514
91259SOL    HW275617  14.576   5.659   5.507
91260SOL     OW75618  14.111   4.956   9.183
91260SOL    HW175619  14.105   4.970   9.278
91260SOL    HW275620  14.077   5.037   9.145
91261SOL     OW75621   1.034   7.632   6.232
91261SOL    HW175622   1.031   7.573   6.307
91261SOL    HW275623   1.099   7.593   6.173
91262SOL     OW75624  12.291   9.723   8.277
91262SOL    HW175625  12.340   9.805   8.280
91262SOL    HW275626  12.238   9.729   8.197
91263SOL     OW75627  11.061   6.246   9.537
91263SOL    HW175628  11.074   6.170   9.480
91263SOL    HW275629  11.118   6.314   9.500
91264SOL     OW75630   5.158  10.005   0.295
91264SOL    HW175631   5.130  10.032   0.382
91264SOL    HW275632   5.119  10.069   0.235
91265SOL     OW75633   3.122   1.464   7.140
91265SOL    HW175634   3.132   1.450   7.046
91265SOL    HW275635   3.116   1.559   7.149
91266SOL     OW75636   0.739   9.389   7.157
91266SOL    HW175637   0.673   9.405   7.089
91266SOL    HW275638   0.792   9.469   7.157
91267SOL     OW75639  13.204   7.353   9.553
91267SOL    HW175640  13.168   7.321   9.636
91267SOL    HW275641  13.233   7.442   9.573
91268SOL     OW75642   8.071   0.918   8.470
91268SOL    HW175643   8.150   0.953   8.511
91268SOL    HW275644   8.003   0.982   8.489
91269SOL     OW75645  11.105   0.255  11.059
91269SOL    HW175646  11.109   0.240  11.153
91269SOL    HW275647  11.197   0.260  11.032
91270SOL     OW75648  14.263   5.980   4.696
91270SOL    HW175649  14.204   5.963   4.622
91270SOL    HW275650  14.347   6.000   4.656
91271SOL     OW75651  12.844  12.505   3.340
91271SOL    HW175652  12.910  12.463   3.394
91271SOL    HW275653  12.811  12.577   3.393
91272SOL     OW75654   4.420   8.278   0.557
91272SOL    HW175655   4.423   8.286   0.652
91272SOL    HW275656   4.506   8.306   0.527
91273SOL     OW75657  11.748   6.310   4.164
91273SOL    HW175658  11.790   6.272   4.087
91273SOL    HW275659  11.750   6.404   4.150
91274SOL     OW75660  14.349   2.860   6.869
91274SOL    HW175661  14.412   2.866   6.940
91274SOL    HW275662  14.367   2.776   6.828
91275SOL     OW75663  12.038   0.434   0.923
91275SOL    HW175664  12.033   0.349   0.966
91275SOL    HW275665  11.962   0.436   0.864
91276SOL     OW75666   9.382   0.339   5.591
91276SOL    HW175667   9.405   0.401   5.522
91276SOL    HW275668   9.304   0.377   5.632
91277SOL     OW75669   8.958  13.727  13.937
91277SOL    HW175670   8.968  13.801  13.996
91277SOL    HW275671   8.948  13.767  13.850
91278SOL     OW75672   2.795  13.952   1.955
91278SOL    HW175673   2.774  13.887   1.888
91278SOL    HW275674   2.718  14.009   1.959
91279SOL     OW75675  12.627   5.082   9.599
91279SOL    HW175676  12.678   5.153   9.637
91279SOL    HW275677  12.671   5.062   9.516
91280SOL     OW75678   2.815  11.780   4.070
91280SOL    HW175679   2.829  11.695   4.028
91280SOL    HW275680   2.808  11.759   4.164
91281SOL     OW75681  14.275   0.603  11.676
91281SOL    HW175682  14.200   0.662  11.671
91281SOL    HW275683  14.283   0.569  11.587
91282SOL     OW75684   5.975   0.350  11.581
91282SOL    HW175685   5.955   0.430  11.533
91282SOL    HW275686   6.028   0.298  11.521
91283SOL     OW75687   8.949   7.336   2.802
91283SOL    HW175688   8.924   7.249   2.833
91283SOL    HW275689   9.041   7.345   2.824
91284SOL     OW75690   3.063   4.739  12.048
91284SOL    HW175691   3.015   4.756  12.129
91284SOL    HW275692   3.154   4.760  12.070
91285SOL     OW75693   6.298  10.472  13.332
91285SOL    HW175694   6.300  10.531  13.257
91285SOL    HW275695   6.205  10.464  13.354
91286SOL     OW75696  10.746  13.130   4.727
91286SOL    HW175697  10.751  13.048   4.678
91286SOL    HW275698  10.674  13.117   4.789
91287SOL     OW75699  10.810   9.371   0.828
91287SOL    HW175700  10.720   9.351   0.805
91287SOL    HW275701  10.805   9.399   0.920
91288SOL     OW75702   5.966   3.192  10.342
91288SOL    HW175703   6.055   3.165  10.318
91288SOL    HW275704   5.925   3.216  10.259
91289SOL     OW75705   3.907   6.799   1.815
91289SOL    HW175706   3.906   6.708   1.846
91289SOL    HW275707   3.816   6.828   1.824
91290SOL     OW75708   1.138  11.616  12.817
91290SOL    HW175709   1.219  11.668  12.818
91290SOL    HW275710   1.068  11.681  12.817
91291SOL     OW75711  13.593   5.236   3.558
91291SOL    HW175712  13.634   5.253   3.643
91291SOL    HW275713  13.500   5.225   3.577
91292SOL     OW75714   2.039  10.286   6.309
91292SOL    HW175715   2.015  10.249   6.224
91292SOL    HW275716   2.084  10.368   6.288
91293SOL     OW75717   8.272   0.969   3.651
91293SOL    HW175718   8.305   0.995   3.565
91293SOL    HW275719   8.183   0.939   3.635
91294SOL     OW75720  14.364  11.473   3.459
91294SOL    HW175721  14.418  11.545   3.491
91294SOL    HW275722  14.388  11.399   3.515
91295SOL     OW75723   8.642   6.463  11.028
91295SOL    HW175724   8.569   6.403  11.041
91295SOL    HW275725   8.660   6.459  10.934
91296SOL     OW75726   2.264   4.133  11.057
91296SOL    HW175727   2.206   4.093  10.992
91296SOL    HW275728   2.215   4.207  11.091
91297SOL     OW75729   6.875  13.296   1.582
91297SOL    HW175730   6.832  13.254   1.657
91297SOL    HW275731   6.803  13.334   1.532
91298SOL     OW75732   4.010  12.024   0.705
91298SOL    HW175733   3.982  12.033   0.614
91298SOL    HW275734   3.949  11.960   0.743
91299SOL     OW75735   8.035   2.492  13.515
91299SOL    HW175736   8.072   2.580  13.518
91299SOL    HW275737   8.109   2.435  13.491
91300SOL     OW75738  11.091   1.993  13.674
91300SOL    HW175739  11.112   2.022  13.763
91300SOL    HW275740  11.070   2.073  13.627
91301SOL     OW75741  11.399   7.072   4.845
91301SOL    HW175742  11.305   7.087   4.843
91301SOL    HW275743  11.436   7.155   4.875
91302SOL     OW75744   9.332   8.659   1.420
91302SOL    HW175745   9.422   8.687   1.438
91302SOL    HW275746   9.292   8.654   1.507
91303SOL     OW75747   2.583   3.516   1.623
91303SOL    HW175748   2.576   3.518   1.719
91303SOL    HW275749   2.608   3.426   1.603
91304SOL     OW75750  10.307   2.397   0.693
91304SOL    HW175751  10.262   2.329   0.641
91304SOL    HW275752  10.341   2.458   0.628
91305SOL     OW75753   2.825  10.103   7.533
91305SOL    HW175754   2.812  10.092   7.439
91305SOL    HW275755   2.748  10.151   7.562
91306SOL     OW75756   1.085  13.886   7.539
91306SOL    HW175757   1.128  13.806   7.511
91306SOL    HW275758   1.119  13.904   7.627
91307SOL     OW75759   4.102   1.436   0.188
91307SOL    HW175760   4.041   1.406   0.257
91307SOL    HW275761   4.153   1.505   0.230
91308SOL     OW75762   2.885   1.893  13.320
91308SOL    HW175763   2.827   1.819  13.307
91308SOL    HW275764   2.877   1.913  13.413
91309SOL     OW75765   7.483   2.455  14.044
91309SOL    HW175766   7.518   2.415  13.965
91309SOL    HW275767   7.510   2.547  14.039
91310SOL     OW75768   9.590  14.587   0.478
91310SOL    HW175769   9.527  14.518   0.459
91310SOL    HW275770   9.551  14.633   0.553
91311SOL     OW75771   3.601   1.446  13.304
91311SOL    HW175772   3.662   1.447  13.378
91311SOL    HW275773   3.518   1.417  13.342
91312SOL     OW75774   3.756   8.509  13.873
91312SOL    HW175775   3.844   8.546  13.869
91312SOL    HW275776   3.762   8.427  13.825
91313SOL     OW75777  13.568   8.049  10.051
91313SOL    HW175778  13.596   8.026  10.140
91313SOL    HW275779  13.562   7.965  10.005
91314SOL     OW75780  11.064   0.416   2.070
91314SOL    HW175781  11.097   0.407   1.981
91314SOL    HW275782  11.055   0.511   2.082
91315SOL     OW75783   3.555  13.056   0.294
91315SOL    HW175784   3.627  13.010   0.336
91315SOL    HW275785   3.591  13.085   0.210
91316SOL     OW75786   7.906   5.943  11.668
91316SOL    HW175787   7.923   5.857  11.629
91316SOL    HW275788   7.826   5.974  11.625
91317SOL     OW75789   1.248   1.024  11.325
91317SOL    HW175790   1.344   1.026  11.323
91317SOL    HW275791   1.222   1.115  11.311
91318SOL     OW75792   0.697   2.276   7.433
91318SOL    HW175793   0.793   2.282   7.440
91318SOL    HW275794   0.677   2.187   7.464
91319SOL     OW75795  12.481  11.410   1.637
91319SOL    HW175796  12.429  11.372   1.566
91319SOL    HW275797  12.451  11.364   1.716
91320SOL     OW75798  12.771  12.812   6.690
91320SOL    HW175799  12.812  12.768   6.764
91320SOL    HW275800  12.823  12.891   6.676
91321SOL     OW75801  14.039   0.952  13.805
91321SOL    HW175802  14.049   1.025  13.744
91321SOL    HW275803  14.049   0.992  13.892
91322SOL     OW75804  11.591  12.205   6.154
91322SOL    HW175805  11.528  12.176   6.220
91322SOL    HW275806  11.641  12.274   6.197
91323SOL     OW75807  11.171  14.422   2.637
91323SOL    HW175808  11.108  14.380   2.697
91323SOL    HW275809  11.166  14.370   2.557
91324SOL     OW75810   8.877  13.990   0.917
91324SOL    HW175811   8.787  13.965   0.894
91324SOL    HW275812   8.926  13.908   0.914
91325SOL     OW75813   5.058   3.219   9.777
91325SOL    HW175814   4.993   3.272   9.731
91325SOL    HW275815   5.138   3.270   9.772
91326SOL     OW75816   0.607   5.736   7.254
91326SOL    HW175817   0.676   5.782   7.301
91326SOL    HW275818   0.577   5.798   7.188
91327SOL     OW75819   1.296   6.876  14.520
91327SOL    HW175820   1.208   6.896  14.553
91327SOL    HW275821   1.329   6.811  14.581
91328SOL     OW75822   8.614   3.147   1.891
91328SOL    HW175823   8.572   3.086   1.951
91328SOL    HW275824   8.542   3.190   1.845
91329SOL     OW75825   2.070  11.149   8.825
91329SOL    HW175826   2.157  11.112   8.813
91329SOL    HW275827   2.033  11.100   8.899
91330SOL     OW75828   1.272   8.385   5.130
91330SOL    HW175829   1.347   8.384   5.071
91330SOL    HW275830   1.309   8.362   5.216
91331SOL     OW75831   8.652  11.303  13.268
91331SOL    HW175832   8.583  11.247  13.302
91331SOL    HW275833   8.653  11.286  13.173
91332SOL     OW75834   2.626   2.403  10.723
91332SOL    HW175835   2.673   2.486  10.712
91332SOL    HW275836   2.695   2.336  10.724
91333SOL     OW75837   3.569  11.602   2.351
91333SOL    HW175838   3.660  11.624   2.372
91333SOL    HW275839   3.573  11.512   2.321
91334SOL     OW75840   8.684   6.928  14.689
91334SOL    HW175841   8.618   6.879  14.738
91334SOL    HW275842   8.690   7.012  14.734
91335SOL     OW75843   1.537   6.634   2.259
91335SOL    HW175844   1.547   6.544   2.226
91335SOL    HW275845   1.491   6.679   2.189
91336SOL     OW75846   9.258   3.251   0.796
91336SOL    HW175847   9.300   3.262   0.881
91336SOL    HW275848   9.325   3.277   0.733
91337SOL     OW75849   2.620  13.383   5.912
91337SOL    HW175850   2.664  13.466   5.894
91337SOL    HW275851   2.668  13.318   5.861
91338SOL     OW75852   6.947   5.565  11.333
91338SOL    HW175853   6.946   5.524  11.246
91338SOL    HW275854   7.040   5.575  11.353
91339SOL     OW75855  14.828  11.992  13.488
91339SOL    HW175856  14.773  11.915  13.498
91339SOL    HW275857  14.824  12.013  13.395
91340SOL     OW75858   1.546   3.581   7.717
91340SOL    HW175859   1.580   3.632   7.791
91340SOL    HW275860   1.539   3.492   7.751
91341SOL     OW75861   4.222  12.321   9.277
91341SOL    HW175862   4.127  12.320   9.289
91341SOL    HW275863   4.237  12.267   9.200
91342SOL     OW75864   7.906  11.535   0.206
91342SOL    HW175865   7.995  11.504   0.185
91342SOL    HW275866   7.891  11.607   0.145
91343SOL     OW75867   5.308   9.526   9.235
91343SOL    HW175868   5.369   9.558   9.168
91343SOL    HW275869   5.287   9.436   9.208
91344SOL     OW75870  12.239  12.754  10.120
91344SOL    HW175871  12.181  12.721  10.052
91344SOL    HW275872  12.238  12.685  10.187
91345SOL     OW75873   3.421  12.763   5.729
91345SOL    HW175874   3.481  12.804   5.790
91345SOL    HW275875   3.402  12.677   5.767
91346SOL     OW75876   8.941   2.003   1.537
91346SOL    HW175877   8.912   2.008   1.446
91346SOL    HW275878   8.875   2.051   1.586
91347SOL     OW75879   5.154   3.641   2.807
91347SOL    HW175880   5.170   3.659   2.900
91347SOL    HW275881   5.068   3.600   2.806
91348SOL     OW75882   4.690  10.043  14.343
91348SOL    HW175883   4.717  10.087  14.263
91348SOL    HW275884   4.753   9.970  14.353
91349SOL     OW75885  10.734  13.706   2.901
91349SOL    HW175886  10.654  13.677   2.944
91349SOL    HW275887  10.776  13.765   2.964
91350SOL     OW75888   9.262  13.079  10.363
91350SOL    HW175889   9.201  13.116  10.299
91350SOL    HW275890   9.207  13.028  10.422
91351SOL     OW75891   7.858  11.894  12.249
91351SOL    HW175892   7.869  11.964  12.313
91351SOL    HW275893   7.844  11.815  12.301
91352SOL     OW75894   2.757   0.906   6.655
91352SOL    HW175895   2.680   0.855   6.628
91352SOL    HW275896   2.720   0.985   6.695
91353SOL     OW75897  12.024   6.348   5.101
91353SOL    HW175898  12.067   6.265   5.123
91353SOL    HW275899  12.091   6.414   5.118
91354SOL     OW75900   6.433  12.534  14.644
91354SOL    HW175901   6.521  12.568  14.662
91354SOL    HW275902   6.412  12.482  14.722
91355SOL     OW75903  13.096   5.080   8.455
91355SOL    HW175904  13.099   4.985   8.461
91355SOL    HW275905  13.011   5.104   8.493
91356SOL     OW75906   9.128  11.899  12.428
91356SOL    HW175907   9.107  11.837  12.497
91356SOL    HW275908   9.045  11.916  12.384
91357SOL     OW75909   5.889  13.306   1.260
91357SOL    HW175910   5.843  13.387   1.283
91357SOL    HW275911   5.954  13.296   1.329
91358SOL     OW75912   7.689   5.044   7.700
91358SOL    HW175913   7.649   5.129   7.719
91358SOL    HW275914   7.747   5.061   7.626
91359SOL     OW75915   7.329  12.386  11.933
91359SOL    HW175916   7.294  12.303  11.966
91359SOL    HW275917   7.252  12.429  11.895
91360SOL     OW75918   2.344   2.528   6.344
91360SOL    HW175919   2.272   2.564   6.292
91360SOL    HW275920   2.404   2.491   6.280
91361SOL     OW75921  13.421  11.451  10.314
91361SOL    HW175922  13.461  11.536  10.297
91361SOL    HW275923  13.453  11.395  10.243
91362SOL     OW75924   0.670   6.812   0.300
91362SOL    HW175925   0.700   6.865   0.375
91362SOL    HW275926   0.751   6.778   0.262
91363SOL     OW75927   5.552   8.762   1.779
91363SOL    HW175928   5.623   8.729   1.723
91363SOL    HW275929   5.592   8.767   1.866
91364SOL     OW75930   4.002   8.698  14.723
91364SOL    HW175931   3.971   8.750  14.796
91364SOL    HW275932   3.927   8.645  14.696
91365SOL     OW75933   3.510   6.774   4.222
91365SOL    HW175934   3.577   6.712   4.193
91365SOL    HW275935   3.478   6.739   4.305
91366SOL     OW75936  11.292  13.826   6.053
91366SOL    HW175937  11.271  13.865   6.137
91366SOL    HW275938  11.356  13.886   6.014
91367SOL     OW75939   8.902  10.266  11.196
91367SOL    HW175940   8.820  10.222  11.220
91367SOL    HW275941   8.930  10.220  11.116
91368SOL     OW75942  13.238   8.845  14.140
91368SOL    HW175943  13.216   8.764  14.187
91368SOL    HW275944  13.331   8.860  14.160
91369SOL     OW75945   5.359   1.836  14.400
91369SOL    HW175946   5.295   1.769  14.423
91369SOL    HW275947   5.438   1.788  14.378
91370SOL     OW75948   6.756   4.477  14.348
91370SOL    HW175949   6.668   4.493  14.314
91370SOL    HW275950   6.801   4.561  14.339
91371SOL     OW75951   2.810   4.355  14.698
91371SOL    HW175952   2.858   4.372  14.617
91371SOL    HW275953   2.876   4.325  14.760
91372SOL     OW75954   0.823   8.971   0.809
91372SOL    HW175955   0.823   9.037   0.740
91372SOL    HW275956   0.893   8.910   0.785
91373SOL     OW75957   5.389   9.000   9.560
91373SOL    HW175958   5.459   9.063   9.539
91373SOL    HW275959   5.433   8.932   9.611
91374SOL     OW75960   7.096   1.630   6.751
91374SOL    HW175961   7.106   1.722   6.727
91374SOL    HW275962   7.162   1.584   6.699
91375SOL     OW75963   1.251  11.311   2.716
91375SOL    HW175964   1.332  11.316   2.766
91375SOL    HW275965   1.262  11.235   2.658
91376SOL     OW75966  10.696  14.256   6.487
91376SOL    HW175967  10.739  14.286   6.568
91376SOL    HW275968  10.723  14.320   6.421
91377SOL     OW75969   4.269   4.800  13.318
91377SOL    HW175970   4.322   4.726  13.288
91377SOL    HW275971   4.188   4.760  13.349
91378SOL     OW75972  10.372   1.261   1.834
91378SOL    HW175973  10.301   1.228   1.889
91378SOL    HW275974  10.380   1.353   1.859
91379SOL     OW75975  14.215   2.623   7.046
91379SOL    HW175976  14.147   2.689   7.057
91379SOL    HW275977  14.195   2.581   6.962
91380SOL     OW75978   8.045  10.046   4.282
91380SOL    HW175979   8.082  10.047   4.193
91380SOL    HW275980   8.113  10.084   4.337
91381SOL     OW75981   6.330   5.289   0.646
91381SOL    HW175982   6.284   5.331   0.719
91381SOL    HW275983   6.421   5.316   0.657
91382SOL     OW75984   8.784   5.057   4.370
91382SOL    HW175985   8.730   5.127   4.334
91382SOL    HW275986   8.807   5.088   4.458
91383SOL     OW75987   4.263  14.749   3.503
91383SOL    HW175988   4.303  14.702   3.575
91383SOL    HW275989   4.260  14.840   3.533
91384SOL     OW75990   8.455   8.733  10.768
91384SOL    HW175991   8.472   8.645  10.802
91384SOL    HW275992   8.380   8.722  10.709
91385SOL     OW75993  11.193   8.268  10.017
91385SOL    HW175994  11.273   8.247   9.969
91385SOL    HW275995  11.128   8.206   9.984
91386SOL     OW75996  12.596  13.130   7.758
91386SOL    HW175997  12.539  13.156   7.687
91386SOL    HW275998  12.621  13.212   7.801
91387SOL     OW75999   5.874  11.785   8.150
91387SOL    HW176000   5.913  11.724   8.088
91387SOL    HW276001   5.780  11.764   8.149
91388SOL     OW76002  11.654   8.434   0.128
91388SOL    HW176003  11.622   8.349   0.160
91388SOL    HW276004  11.696   8.413   0.044
91389SOL     OW76005   6.578   1.076  10.093
91389SOL    HW176006   6.651   1.137  10.089
91389SOL    HW276007   6.615   0.992  10.067
91390SOL     OW76008   1.151  11.831   2.080
91390SOL    HW176009   1.160  11.789   2.165
91390SOL    HW276010   1.230  11.883   2.071
91391SOL     OW76011  12.601   7.789  14.104
91391SOL    HW176012  12.665   7.859  14.098
91391SOL    HW276013  12.653   7.708  14.106
91392SOL     OW76014   1.129   9.214   5.213
91392SOL    HW176015   1.120   9.297   5.167
91392SOL    HW276016   1.199   9.168   5.166
91393SOL     OW76017   8.582   5.477   3.483
91393SOL    HW176018   8.614   5.388   3.466
91393SOL    HW276019   8.556   5.476   3.575
91394SOL     OW76020  12.005   3.540   5.772
91394SOL    HW176021  11.976   3.580   5.690
91394SOL    HW276022  12.099   3.557   5.776
91395SOL     OW76023   6.369   4.022  14.166
91395SOL    HW176024   6.327   3.969  14.099
91395SOL    HW276025   6.348   4.112  14.143
91396SOL     OW76026   8.427   1.470   1.971
91396SOL    HW176027   8.474   1.394   2.005
91396SOL    HW276028   8.487   1.509   1.907
91397SOL     OW76029  13.548  11.521   3.113
91397SOL    HW176030  13.598  11.540   3.034
91397SOL    HW276031  13.545  11.425   3.117
91398SOL     OW76032   3.896   8.186  12.610
91398SOL    HW176033   3.980   8.165  12.650
91398SOL    HW276034   3.837   8.199  12.685
91399SOL     OW76035   3.782   3.288  12.515
91399SOL    HW176036   3.754   3.298  12.606
91399SOL    HW276037   3.809   3.376  12.488
91400SOL     OW76038  10.074   4.227   9.260
91400SOL    HW176039  10.151   4.280   9.283
91400SOL    HW276040  10.108   4.139   9.247
91401SOL     OW76041   1.095   2.895   2.307
91401SOL    HW176042   1.145   2.864   2.382
91401SOL    HW276043   1.005   2.904   2.341
91402SOL     OW76044  10.991  10.577  14.637
91402SOL    HW176045  10.900  10.589  14.667
91402SOL    HW276046  11.009  10.656  14.586
91403SOL     OW76047   0.038   0.312  12.061
91403SOL    HW176048   0.096   0.258  12.115
91403SOL    HW276049   0.080   0.398  12.060
91404SOL     OW76050   3.294   3.521   8.259
91404SOL    HW176051   3.199   3.518   8.243
91404SOL    HW276052   3.315   3.614   8.264
91405SOL     OW76053   4.636  11.179  12.310
91405SOL    HW176054   4.693  11.189  12.386
91405SOL    HW276055   4.696  11.168  12.236
91406SOL     OW76056   3.996   8.919   3.211
91406SOL    HW176057   3.964   8.962   3.290
91406SOL    HW276058   3.952   8.834   3.210
91407SOL     OW76059  10.944  10.482   7.215
91407SOL    HW176060  11.018  10.501   7.273
91407SOL    HW276061  10.984  10.453   7.134
91408SOL     OW76062   6.862   8.817   1.030
91408SOL    HW176063   6.940   8.805   0.975
91408SOL    HW276064   6.799   8.860   0.972
91409SOL     OW76065   4.541  13.449   3.509
91409SOL    HW176066   4.544  13.472   3.417
91409SOL    HW276067   4.452  13.470   3.537
91410SOL     OW76068   5.227   2.053   3.688
91410SOL    HW176069   5.281   2.055   3.609
91410SOL    HW276070   5.285   2.086   3.757
91411SOL     OW76071  12.473   2.791   0.218
91411SOL    HW176072  12.508   2.779   0.307
91411SOL    HW276073  12.412   2.864   0.226
91412SOL     OW76074  11.694   0.132   9.484
91412SOL    HW176075  11.724   0.205   9.539
91412SOL    HW276076  11.606   0.158   9.456
91413SOL     OW76077  11.719  10.612   2.985
91413SOL    HW176078  11.685  10.558   3.056
91413SOL    HW276079  11.647  10.615   2.921
91414SOL     OW76080  10.472  13.950  13.911
91414SOL    HW176081  10.562  13.922  13.892
91414SOL    HW276082  10.473  14.044  13.897
91415SOL     OW76083   6.166   4.780  10.778
91415SOL    HW176084   6.197   4.788  10.869
91415SOL    HW276085   6.217   4.707  10.743
91416SOL     OW76086   8.310   2.557   8.096
91416SOL    HW176087   8.291   2.483   8.154
91416SOL    HW276088   8.230   2.609   8.096
91417SOL     OW76089   1.024   5.424  10.704
91417SOL    HW176090   1.036   5.518  10.685
91417SOL    HW276091   1.047   5.380  10.622
91418SOL     OW76092   0.067   4.184  11.862
91418SOL    HW176093   0.069   4.260  11.920
91418SOL    HW276094  14.870   4.129  11.896
91419SOL     OW76095   5.736  13.488   8.274
91419SOL    HW176096   5.657  13.468   8.224
91419SOL    HW276097   5.705  13.541   8.348
91420SOL     OW76098   3.090  14.106  11.347
91420SOL    HW176099   3.140  14.057  11.412
91420SOL    HW276100   3.136  14.189  11.338
91421SOL     OW76101   4.243   8.795  10.986
91421SOL    HW176102   4.208   8.838  10.908
91421SOL    HW276103   4.188   8.827  11.058
91422SOL     OW76104  10.134  11.957   6.435
91422SOL    HW176105  10.182  11.881   6.468
91422SOL    HW276106  10.173  11.976   6.350
91423SOL     OW76107   7.946   6.341   4.072
91423SOL    HW176108   7.852   6.344   4.088
91423SOL    HW276109   7.956   6.356   3.978
91424SOL     OW76110   7.387  10.299   0.470
91424SOL    HW176111   7.359  10.207   0.465
91424SOL    HW276112   7.364  10.326   0.558
91425SOL     OW76113   6.505   1.855  12.269
91425SOL    HW176114   6.439   1.922  12.284
91425SOL    HW276115   6.511   1.847  12.174
91426SOL     OW76116  13.788   4.694   2.030
91426SOL    HW176117  13.713   4.640   2.055
91426SOL    HW276118  13.767   4.781   2.064
91427SOL     OW76119   2.407   9.330   6.850
91427SOL    HW176120   2.494   9.295   6.872
91427SOL    HW276121   2.347   9.258   6.870
91428SOL     OW76122   4.034   4.698  13.398
91428SOL    HW176123   3.981   4.770  13.364
91428SOL    HW276124   3.971   4.630  13.422
91429SOL     OW76125   2.793  14.253   9.285
91429SOL    HW176126   2.800  14.235   9.191
91429SOL    HW276127   2.739  14.182   9.319
91430SOL     OW76128   9.966  13.184   6.545
91430SOL    HW176129   9.939  13.274   6.529
91430SOL    HW276130   9.968  13.175   6.640
91431SOL     OW76131   0.081  14.835  10.147
91431SOL    HW176132   0.168  14.807  10.176
91431SOL    HW276133   0.079   0.056  10.166
91432SOL     OW76134   8.352   7.219   3.462
91432SOL    HW176135   8.395   7.142   3.499
91432SOL    HW276136   8.424   7.281   3.445
91433SOL     OW76137   2.041   5.641   1.362
91433SOL    HW176138   1.980   5.590   1.309
91433SOL    HW276139   2.128   5.616   1.329
91434SOL     OW76140   0.746   1.729   9.312
91434SOL    HW176141   0.726   1.810   9.265
91434SOL    HW276142   0.693   1.732   9.391
91435SOL     OW76143   8.245   2.002   0.923
91435SOL    HW176144   8.164   2.017   0.875
91435SOL    HW276145   8.314   2.005   0.856
91436SOL     OW76146   5.821   2.902   3.766
91436SOL    HW176147   5.834   2.914   3.860
91436SOL    HW276148   5.899   2.856   3.737
91437SOL     OW76149  14.022   3.176   2.951
91437SOL    HW176150  13.984   3.139   2.872
91437SOL    HW276151  13.983   3.264   2.957
91438SOL     OW76152  14.527  13.371   3.843
91438SOL    HW176153  14.508  13.399   3.754
91438SOL    HW276154  14.593  13.302   3.834
91439SOL     OW76155   8.858   0.488   5.550
91439SOL    HW176156   8.774   0.527   5.575
91439SOL    HW276157   8.834   0.404   5.511
91440SOL     OW76158   2.964  10.871   6.174
91440SOL    HW176159   3.060  10.867   6.179
91440SOL    HW276160   2.943  10.963   6.190
91441SOL     OW76161  12.199  12.317  11.724
91441SOL    HW176162  12.220  12.231  11.686
91441SOL    HW276163  12.120  12.302  11.776
91442SOL     OW76164  11.433   4.549   3.478
91442SOL    HW176165  11.440   4.516   3.568
91442SOL    HW276166  11.443   4.471   3.424
91443SOL     OW76167   6.631  10.504  13.336
91443SOL    HW176168   6.716  10.499  13.379
91443SOL    HW276169   6.612  10.413  13.311
91444SOL     OW76170   7.674   6.446  14.680
91444SOL    HW176171   7.633   6.382  14.739
91444SOL    HW276172   7.717   6.392  14.613
91445SOL     OW76173   0.740   5.701   6.856
91445SOL    HW176174   0.663   5.670   6.903
91445SOL    HW276175   0.806   5.634   6.871
91446SOL     OW76176  12.929   3.769  11.028
91446SOL    HW176177  12.900   3.702  11.090
91446SOL    HW276178  13.014   3.796  11.061
91447SOL     OW76179   5.007  12.115  13.719
91447SOL    HW176180   5.056  12.090  13.797
91447SOL    HW276181   4.959  12.194  13.745
91448SOL     OW76182   7.250  12.907   7.886
91448SOL    HW176183   7.158  12.903   7.914
91448SOL    HW276184   7.251  12.861   7.802
91449SOL     OW76185   2.187   1.991   6.458
91449SOL    HW176186   2.106   1.944   6.440
91449SOL    HW276187   2.181   2.015   6.550
91450SOL     OW76188   0.056   6.058   0.285
91450SOL    HW176189   0.019   5.971   0.296
91450SOL    HW276190   0.037   6.081   0.194
91451SOL     OW76191  14.121  13.287  10.992
91451SOL    HW176192  14.148  13.203  11.028
91451SOL    HW276193  14.120  13.273  10.897
91452SOL     OW76194  10.196  14.333   7.855
91452SOL    HW176195  10.145  14.279   7.795
91452SOL    HW276196  10.130  14.375   7.911
91453SOL     OW76197  12.178   0.576   1.510
91453SOL    HW176198  12.154   0.536   1.426
91453SOL    HW276199  12.198   0.501   1.566
91454SOL     OW76200  11.622   6.496   8.153
91454SOL    HW176201  11.696   6.557   8.160
91454SOL    HW276202  11.545   6.552   8.150
91455SOL     OW76203  13.774   5.668  11.833
91455SOL    HW176204  13.869   5.662  11.842
91455SOL    HW276205  13.757   5.760  11.813
91456SOL     OW76206   3.354   2.979   6.853
91456SOL    HW176207   3.372   3.057   6.801
91456SOL    HW276208   3.387   2.907   6.800
91457SOL     OW76209  12.484   1.056  10.078
91457SOL    HW176210  12.426   0.988  10.112
91457SOL    HW276211  12.562   1.051  10.133
91458SOL     OW76212   3.742  14.324  12.964
91458SOL    HW176213   3.774  14.293  13.048
91458SOL    HW276214   3.657  14.363  12.983
91459SOL     OW76215   4.305  12.256   2.233
91459SOL    HW176216   4.220  12.295   2.211
91459SOL    HW276217   4.364  12.288   2.164
91460SOL     OW76218   5.000   9.737  12.932
91460SOL    HW176219   4.931   9.670  12.929
91460SOL    HW276220   4.963   9.811  12.884
91461SOL     OW76221   7.663   0.651   9.716
91461SOL    HW176222   7.678   0.743   9.695
91461SOL    HW276223   7.708   0.637   9.800
91462SOL     OW76224  10.502  12.873   3.092
91462SOL    HW176225  10.559  12.797   3.102
91462SOL    HW276226  10.500  12.889   2.998
91463SOL     OW76227  11.916  13.293   4.110
91463SOL    HW176228  11.971  13.371   4.109
91463SOL    HW276229  11.835  13.320   4.066
91464SOL     OW76230   9.013   8.901   3.448
91464SOL    HW176231   9.070   8.956   3.502
91464SOL    HW276232   9.071   8.835   3.410
91465SOL     OW76233  11.871   0.897   8.284
91465SOL    HW176234  11.837   0.885   8.373
91465SOL    HW276235  11.946   0.955   8.295
91466SOL     OW76236  13.217  13.220   9.564
91466SOL    HW176237  13.285  13.273   9.521
91466SOL    HW276238  13.249  13.130   9.555
91467SOL     OW76239   0.101   6.202  11.539
91467SOL    HW176240   0.008   6.219  11.524
91467SOL    HW276241   0.109   6.191  11.634
91468SOL     OW76242   6.857   3.149   5.562
91468SOL    HW176243   6.872   3.155   5.467
91468SOL    HW276244   6.766   3.177   5.573
91469SOL     OW76245   7.741   4.243  12.804
91469SOL    HW176246   7.751   4.153  12.832
91469SOL    HW276247   7.800   4.293  12.861
91470SOL     OW76248  14.241  12.726  12.391
91470SOL    HW176249  14.181  12.679  12.333
91470SOL    HW276250  14.311  12.756  12.333
91471SOL     OW76251  12.072  13.015  12.815
91471SOL    HW176252  12.125  13.046  12.888
91471SOL    HW276253  11.993  13.069  12.819
91472SOL     OW76254   7.171   2.375  11.318
91472SOL    HW176255   7.171   2.446  11.382
91472SOL    HW276256   7.102   2.315  11.348
91473SOL     OW76257  10.363   6.728  13.948
91473SOL    HW176258  10.442   6.676  13.951
91473SOL    HW276259  10.375   6.796  14.015
91474SOL     OW76260   2.860  10.749   2.239
91474SOL    HW176261   2.826  10.752   2.328
91474SOL    HW276262   2.860  10.656   2.216
91475SOL     OW76263   4.818   6.955  14.640
91475SOL    HW176264   4.893   6.920  14.593
91475SOL    HW276265   4.744   6.902  14.610
91476SOL     OW76266  14.271  12.519   3.445
91476SOL    HW176267  14.286  12.499   3.352
91476SOL    HW276268  14.351  12.487   3.488
91477SOL     OW76269   0.518   4.798   8.307
91477SOL    HW176270   0.565   4.853   8.244
91477SOL    HW276271   0.500   4.717   8.260
91478SOL     OW76272   0.162   7.242   4.546
91478SOL    HW176273   0.251   7.257   4.512
91478SOL    HW276274   0.105   7.262   4.472
91479SOL     OW76275  12.776   1.648  14.448
91479SOL    HW176276  12.798   1.555  14.440
91479SOL    HW276277  12.738   1.672  14.363
91480SOL     OW76278   9.498   8.186   2.724
91480SOL    HW176279   9.407   8.157   2.732
91480SOL    HW276280   9.550   8.106   2.728
91481SOL     OW76281   8.133  13.343  13.423
91481SOL    HW176282   8.228  13.330  13.420
91481SOL    HW276283   8.099  13.264  13.464
91482SOL     OW76284   3.563   8.802   5.888
91482SOL    HW176285   3.653   8.835   5.893
91482SOL    HW276286   3.511   8.866   5.938
91483SOL     OW76287  12.504   0.572   3.743
91483SOL    HW176288  12.501   0.602   3.652
91483SOL    HW276289  12.584   0.610   3.778
91484SOL     OW76290   2.094  14.007   3.677
91484SOL    HW176291   2.107  14.067   3.603
91484SOL    HW276292   2.075  14.065   3.751
91485SOL     OW76293  14.440  14.663   5.973
91485SOL    HW176294  14.456  14.659   5.879
91485SOL    HW276295  14.527  14.668   6.012
91486SOL     OW76296   0.001   2.528   0.907
91486SOL    HW176297   0.049   2.445   0.902
91486SOL    HW276298   0.002   2.562   0.817
91487SOL     OW76299  13.709  14.745   1.115
91487SOL    HW176300  13.623  14.782   1.135
91487SOL    HW276301  13.734  14.786   1.033
91488SOL     OW76302  12.583   3.419   5.492
91488SOL    HW176303  12.667   3.420   5.446
91488SOL    HW276304  12.605   3.405   5.583
91489SOL     OW76305  12.905   6.076   5.289
91489SOL    HW176306  12.907   6.090   5.383
91489SOL    HW276307  12.997   6.064   5.265
91490SOL     OW76308   2.350   8.900  10.676
91490SOL    HW176309   2.365   8.915  10.769
91490SOL    HW276310   2.438   8.902  10.637
91491SOL     OW76311  11.245   8.071   0.340
91491SOL    HW176312  11.227   8.044   0.430
91491SOL    HW276313  11.256   7.989   0.292
91492SOL     OW76314  10.540   9.554   3.755
91492SOL    HW176315  10.517   9.637   3.796
91492SOL    HW276316  10.618   9.574   3.702
91493SOL     OW76317   2.802  12.271   4.801
91493SOL    HW176318   2.830  12.186   4.766
91493SOL    HW276319   2.733  12.300   4.741
91494SOL     OW76320  14.320  10.092   8.253
91494SOL    HW176321  14.373  10.051   8.185
91494SOL    HW276322  14.383  10.144   8.304
91495SOL     OW76323   6.726   4.687  14.054
91495SOL    HW176324   6.718   4.593  14.040
91495SOL    HW276325   6.708   4.726  13.968
91496SOL     OW76326   4.117   5.307   4.368
91496SOL    HW176327   4.198   5.330   4.322
91496SOL    HW276328   4.054   5.289   4.298
91497SOL     OW76329   7.275  14.243  13.040
91497SOL    HW176330   7.180  14.255  13.033
91497SOL    HW276331   7.309  14.332  13.054
91498SOL     OW76332   2.160   8.332   0.543
91498SOL    HW176333   2.156   8.320   0.638
91498SOL    HW276334   2.122   8.418   0.529
91499SOL     OW76335   3.659   6.293   9.698
91499SOL    HW176336   3.567   6.285   9.673
91499SOL    HW276337   3.683   6.383   9.678
91500SOL     OW76338   6.933   9.747   5.158
91500SOL    HW176339   6.925   9.826   5.106
91500SOL    HW276340   6.940   9.778   5.248
91501SOL     OW76341   1.355   3.850  12.805
91501SOL    HW176342   1.370   3.764  12.847
91501SOL    HW276343   1.264   3.846  12.775
91502SOL     OW76344   7.010   8.337   1.143
91502SOL    HW176345   7.002   8.281   1.220
91502SOL    HW276346   6.920   8.353   1.114
91503SOL     OW76347   6.378  12.092   0.886
91503SOL    HW176348   6.435  12.044   0.826
91503SOL    HW276349   6.296  12.103   0.837
91504SOL     OW76350   3.354   0.254   4.060
91504SOL    HW176351   3.309   0.259   4.144
91504SOL    HW276352   3.351   0.161   4.037
91505SOL     OW76353  13.666   7.269   8.769
91505SOL    HW176354  13.714   7.287   8.688
91505SOL    HW276355  13.651   7.355   8.808
91506SOL     OW76356   3.740   7.327   6.525
91506SOL    HW176357   3.731   7.232   6.530
91506SOL    HW276358   3.826   7.345   6.564
91507SOL     OW76359   8.377   4.389  10.594
91507SOL    HW176360   8.472   4.377  10.593
91507SOL    HW276361   8.357   4.434  10.512
91508SOL     OW76362   0.867   2.332   3.440
91508SOL    HW176363   0.828   2.418   3.421
91508SOL    HW276364   0.931   2.318   3.371
91509SOL     OW76365  10.644   3.637   5.419
91509SOL    HW176366  10.595   3.675   5.347
91509SOL    HW276367  10.578   3.596   5.475
91510SOL     OW76368   5.507   5.688  13.501
91510SOL    HW176369   5.474   5.602  13.476
91510SOL    HW276370   5.445   5.750  13.463
91511SOL     OW76371   6.947   2.774   0.546
91511SOL    HW176372   7.020   2.800   0.490
91511SOL    HW276373   6.870   2.810   0.503
91512SOL     OW76374   8.756   4.426   5.323
91512SOL    HW176375   8.681   4.483   5.342
91512SOL    HW276376   8.791   4.458   5.240
91513SOL     OW76377  11.562   6.473  11.809
91513SOL    HW176378  11.525   6.556  11.777
91513SOL    HW276379  11.643   6.497  11.852
91514SOL     OW76380   8.260   0.160  11.858
91514SOL    HW176381   8.271   0.074  11.816
91514SOL    HW276382   8.169   0.183  11.840
91515SOL     OW76383   5.431  14.636  10.327
91515SOL    HW176384   5.366  14.581  10.282
91515SOL    HW276385   5.455  14.586  10.405
91516SOL     OW76386   1.661  13.731   0.552
91516SOL    HW176387   1.708  13.654   0.584
91516SOL    HW276388   1.726  13.778   0.499
91517SOL     OW76389   6.833   5.757   2.357
91517SOL    HW176390   6.864   5.831   2.409
91517SOL    HW276391   6.864   5.775   2.268
91518SOL     OW76392  14.527  11.762  12.672
91518SOL    HW176393  14.542  11.675  12.635
91518SOL    HW276394  14.592  11.817  12.628
91519SOL     OW76395   5.880   0.715   4.094
91519SOL    HW176396   5.906   0.626   4.116
91519SOL    HW276397   5.940   0.740   4.024
91520SOL     OW76398   6.619   9.398  14.797
91520SOL    HW176399   6.700   9.426  14.753
91520SOL    HW276400   6.626   9.433   0.012
91521SOL     OW76401   0.897   6.357  11.984
91521SOL    HW176402   0.836   6.367  12.057
91521SOL    HW276403   0.857   6.291  11.928
91522SOL     OW76404   1.317  10.386   2.391
91522SOL    HW176405   1.378  10.312   2.385
91522SOL    HW276406   1.264  10.380   2.311
91523SOL     OW76407  13.915  11.327  11.954
91523SOL    HW176408  13.830  11.286  11.968
91523SOL    HW276409  13.908  11.365  11.866
91524SOL     OW76410  14.044  11.151   1.022
91524SOL    HW176411  14.135  11.138   1.047
91524SOL    HW276412  14.009  11.063   1.009
91525SOL     OW76413   3.564   8.826   7.141
91525SOL    HW176414   3.609   8.747   7.172
91525SOL    HW276415   3.573   8.823   7.045
91526SOL     OW76416  10.500   8.939   3.959
91526SOL    HW176417  10.546   8.883   3.897
91526SOL    HW276418  10.517   8.899   4.045
91527SOL     OW76419   6.702  10.596   7.890
91527SOL    HW176420   6.787  10.579   7.849
91527SOL    HW276421   6.687  10.690   7.877
91528SOL     OW76422  13.191   1.440  14.457
91528SOL    HW176423  13.164   1.532  14.451
91528SOL    HW276424  13.124   1.399  14.511
91529SOL     OW76425   5.229  14.138   4.364
91529SOL    HW176426   5.218  14.157   4.458
91529SOL    HW276427   5.245  14.044   4.361
91530SOL     OW76428  11.239   0.568  10.345
91530SOL    HW176429  11.172   0.549  10.410
91530SOL    HW276430  11.259   0.661  10.356
91531SOL     OW76431  14.623   1.932   0.648
91531SOL    HW176432  14.704   1.946   0.697
91531SOL    HW276433  14.641   1.970   0.562
91532SOL     OW76434  13.282  12.578  10.984
91532SOL    HW176435  13.205  12.520  10.984
91532SOL    HW276436  13.255  12.653  10.931
91533SOL     OW76437   0.465   6.296   3.695
91533SOL    HW176438   0.442   6.367   3.636
91533SOL    HW276439   0.548   6.324   3.735
91534SOL     OW76440   4.180  10.698   4.588
91534SOL    HW176441   4.095  10.739   4.569
91534SOL    HW276442   4.229  10.766   4.634
91535SOL     OW76443   4.775  10.360   1.188
91535SOL    HW176444   4.718  10.323   1.120
91535SOL    HW276445   4.720  10.363   1.266
91536SOL     OW76446   4.860   7.781   0.880
91536SOL    HW176447   4.785   7.775   0.940
91536SOL    HW276448   4.829   7.834   0.807
91537SOL     OW76449  14.229  10.400   6.758
91537SOL    HW176450  14.241  10.455   6.836
91537SOL    HW276451  14.283  10.323   6.775
91538SOL     OW76452  12.599  14.653  11.223
91538SOL    HW176453  12.506  14.632  11.216
91538SOL    HW276454  12.608  14.737  11.180
91539SOL     OW76455  13.967  14.858   9.019
91539SOL    HW176456  14.061  14.869   9.012
91539SOL    HW276457  13.940   0.051   9.083
91540SOL     OW76458   7.887   0.332   3.999
91540SOL    HW176459   7.861   0.423   3.986
91540SOL    HW276460   7.861   0.288   3.918
91541SOL     OW76461   1.219  14.140   3.705
91541SOL    HW176462   1.286  14.072   3.698
91541SOL    HW276463   1.152  14.103   3.762
91542SOL     OW76464  11.820   7.581  10.121
91542SOL    HW176465  11.773   7.498  10.124
91542SOL    HW276466  11.877   7.574  10.044
91543SOL     OW76467  13.712   4.743  12.011
91543SOL    HW176468  13.617   4.747  11.995
91543SOL    HW276469  13.742   4.670  11.956
91544SOL     OW76470  11.947   3.335   6.776
91544SOL    HW176471  12.009   3.378   6.835
91544SOL    HW276472  11.887   3.404   6.750
91545SOL     OW76473   8.002   6.756   5.078
91545SOL    HW176474   7.939   6.782   5.145
91545SOL    HW276475   8.071   6.711   5.126
91546SOL     OW76476  14.779   8.757   6.388
91546SOL    HW176477  14.684   8.770   6.377
91546SOL    HW276478  14.812   8.743   6.299
91547SOL     OW76479  10.713   0.973   8.397
91547SOL    HW176480  10.675   0.913   8.332
91547SOL    HW276481  10.640   0.996   8.454
91548SOL     OW76482   8.607   4.340   1.333
91548SOL    HW176483   8.615   4.288   1.253
91548SOL    HW276484   8.567   4.281   1.397
91549SOL     OW76485   3.488   3.800  14.791
91549SOL    HW176486   3.470   3.781  14.699
91549SOL    HW276487   3.416   3.758  14.838
91550SOL     OW76488   6.195   3.170   5.995
91550SOL    HW176489   6.159   3.229   5.928
91550SOL    HW276490   6.133   3.097   5.999
91551SOL     OW76491   7.434   6.156   7.339
91551SOL    HW176492   7.339   6.156   7.326
91551SOL    HW276493   7.453   6.238   7.383
91552SOL     OW76494  11.203   0.301   5.460
91552SOL    HW176495  11.287   0.322   5.502
91552SOL    HW276496  11.137   0.338   5.519
91553SOL     OW76497   2.412   8.858   5.957
91553SOL    HW176498   2.378   8.774   5.987
91553SOL    HW276499   2.339   8.896   5.907
91554SOL     OW76500  14.321   9.327   8.814
91554SOL    HW176501  14.228   9.306   8.810
91554SOL    HW276502  14.342   9.359   8.726
91555SOL     OW76503  13.785   4.795   8.156
91555SOL    HW176504  13.784   4.797   8.251
91555SOL    HW276505  13.802   4.886   8.130
91556SOL     OW76506   4.728   2.673   7.914
91556SOL    HW176507   4.813   2.629   7.918
91556SOL    HW276508   4.742   2.746   7.853
91557SOL     OW76509  14.399  11.454   1.865
91557SOL    HW176510  14.428  11.534   1.821
91557SOL    HW276511  14.318  11.480   1.910
91558SOL     OW76512   3.288   2.595   8.248
91558SOL    HW176513   3.208   2.551   8.275
91558SOL    HW276514   3.357   2.555   8.301
91559SOL     OW76515  13.167  11.106   3.509
91559SOL    HW176516  13.189  11.193   3.475
91559SOL    HW276517  13.104  11.123   3.579
91560SOL     OW76518   9.146   3.032   9.705
91560SOL    HW176519   9.162   3.105   9.646
91560SOL    HW276520   9.203   2.962   9.673
91561SOL     OW76521   1.359  12.407   6.350
91561SOL    HW176522   1.296  12.409   6.278
91561SOL    HW276523   1.357  12.496   6.386
91562SOL     OW76524  10.749   7.062   0.499
91562SOL    HW176525  10.735   7.064   0.594
91562SOL    HW276526  10.795   7.143   0.479
91563SOL     OW76527   3.502   1.688   2.917
91563SOL    HW176528   3.487   1.779   2.890
91563SOL    HW276529   3.589   1.668   2.886
91564SOL     OW76530  14.726   5.516   5.505
91564SOL    HW176531  14.788   5.510   5.432
91564SOL    HW276532  14.780   5.544   5.579
91565SOL     OW76533  14.024  10.559  12.629
91565SOL    HW176534  14.046  10.495  12.561
91565SOL    HW276535  14.052  10.643  12.592
91566SOL     OW76536  13.697  14.732  14.255
91566SOL    HW176537  13.617  14.732  14.308
91566SOL    HW276538  13.692  14.814  14.205
91567SOL     OW76539   6.207   0.473   9.967
91567SOL    HW176540   6.178   0.560   9.995
91567SOL    HW276541   6.212   0.422  10.048
91568SOL     OW76542  10.502   9.534  10.623
91568SOL    HW176543  10.584   9.509  10.666
91568SOL    HW276544  10.496   9.477  10.547
91569SOL     OW76545   8.540   4.334  12.570
91569SOL    HW176546   8.479   4.404  12.545
91569SOL    HW276547   8.601   4.328  12.497
91570SOL     OW76548   9.667   1.766   8.396
91570SOL    HW176549   9.611   1.736   8.468
91570SOL    HW276550   9.642   1.857   8.383
91571SOL     OW76551   2.053   8.678   3.867
91571SOL    HW176552   2.084   8.669   3.957
91571SOL    HW276553   1.967   8.637   3.867
91572SOL     OW76554   7.331  13.818   9.260
91572SOL    HW176555   7.388  13.745   9.233
91572SOL    HW276556   7.366  13.894   9.213
91573SOL     OW76557  12.477  11.994   4.917
91573SOL    HW176558  12.418  12.047   4.862
91573SOL    HW276559  12.456  11.904   4.894
91574SOL     OW76560   5.737  10.785  12.870
91574SOL    HW176561   5.716  10.831  12.789
91574SOL    HW276562   5.658  10.792  12.924
91575SOL     OW76563   7.464   2.388   0.736
91575SOL    HW176564   7.493   2.317   0.678
91575SOL    HW276565   7.428   2.454   0.677
91576SOL     OW76566   6.230   7.743   7.474
91576SOL    HW176567   6.292   7.687   7.520
91576SOL    HW276568   6.275   7.768   7.393
91577SOL     OW76569   2.350   3.402   5.286
91577SOL    HW176570   2.337   3.463   5.213
91577SOL    HW276571   2.445   3.404   5.301
91578SOL     OW76572   4.088   7.341   0.317
91578SOL    HW176573   4.169   7.291   0.322
91578SOL    HW276574   4.114   7.430   0.339
91579SOL     OW76575   3.808  12.238   2.854
91579SOL    HW176576   3.760  12.318   2.831
91579SOL    HW276577   3.757  12.199   2.925
91580SOL     OW76578   6.917  14.484   2.509
91580SOL    HW176579   6.843  14.519   2.459
91580SOL    HW276580   6.891  14.395   2.532
91581SOL     OW76581   3.939   5.889  10.654
91581SOL    HW176582   4.019   5.857  10.613
91581SOL    HW276583   3.891   5.932  10.583
91582SOL     OW76584   7.713  12.288   1.624
91582SOL    HW176585   7.720  12.373   1.580
91582SOL    HW276586   7.633  12.249   1.588
91583SOL     OW76587  11.763   8.508  10.305
91583SOL    HW176588  11.702   8.438  10.283
91583SOL    HW276589  11.736   8.581  10.249
91584SOL     OW76590   4.665   0.267  12.708
91584SOL    HW176591   4.616   0.333  12.758
91584SOL    HW276592   4.617   0.259  12.626
91585SOL     OW76593   0.411  13.609   2.988
91585SOL    HW176594   0.483  13.618   2.926
91585SOL    HW276595   0.332  13.605   2.933
91586SOL     OW76596   2.457   2.352  14.056
91586SOL    HW176597   2.436   2.414  14.125
91586SOL    HW276598   2.426   2.267  14.089
91587SOL     OW76599   8.273   6.896  10.760
91587SOL    HW176600   8.197   6.926  10.809
91587SOL    HW276601   8.315   6.976  10.730
91588SOL     OW76602   8.322   4.978   2.860
91588SOL    HW176603   8.325   4.993   2.954
91588SOL    HW276604   8.328   4.883   2.850
91589SOL     OW76605   4.778  13.005  11.312
91589SOL    HW176606   4.818  13.067  11.374
91589SOL    HW276607   4.741  12.936  11.367
91590SOL     OW76608  12.608   3.375   5.127
91590SOL    HW176609  12.697   3.408   5.117
91590SOL    HW276610  12.604   3.299   5.069
91591SOL     OW76611  10.428   4.907  10.620
91591SOL    HW176612  10.399   4.998  10.613
91591SOL    HW276613  10.461   4.885  10.533
91592SOL     OW76614   5.431  12.629   5.413
91592SOL    HW176615   5.408  12.556   5.470
91592SOL    HW276616   5.421  12.595   5.324
91593SOL     OW76617  11.572   1.983   7.171
91593SOL    HW176618  11.478   1.966   7.158
91593SOL    HW276619  11.583   1.978   7.266
91594SOL     OW76620  12.637  10.034   7.160
91594SOL    HW176621  12.607   9.993   7.078
91594SOL    HW276622  12.616   9.969   7.228
91595SOL     OW76623  13.825   7.708   6.870
91595SOL    HW176624  13.792   7.797   6.886
91595SOL    HW276625  13.854   7.710   6.779
91596SOL     OW76626   0.114   4.199   6.963
91596SOL    HW176627   0.074   4.177   6.879
91596SOL    HW276628   0.076   4.284   6.987
91597SOL     OW76629   6.896   3.453   5.382
91597SOL    HW176630   6.833   3.522   5.359
91597SOL    HW276631   6.929   3.480   5.468
91598SOL     OW76632  13.547   4.264  13.208
91598SOL    HW176633  13.582   4.329  13.146
91598SOL    HW276634  13.480   4.312  13.257
91599SOL     OW76635   5.677   2.265   2.712
91599SOL    HW176636   5.646   2.355   2.703
91599SOL    HW276637   5.603   2.211   2.687
91600SOL     OW76638   9.246  13.114  14.760
91600SOL    HW176639   9.336  13.095  14.731
91600SOL    HW276640   9.254  13.193  14.813
91601SOL     OW76641   1.933  13.294   6.749
91601SOL    HW176642   2.011  13.245   6.721
91601SOL    HW276643   1.967  13.362   6.807
91602SOL     OW76644   3.472  10.197   2.057
91602SOL    HW176645   3.555  10.243   2.051
91602SOL    HW276646   3.487  10.128   2.122
91603SOL     OW76647  12.730   2.890   8.354
91603SOL    HW176648  12.756   2.891   8.262
91603SOL    HW276649  12.750   2.979   8.386
91604SOL     OW76650   5.080  13.408   8.266
91604SOL    HW176651   5.120  13.346   8.327
91604SOL    HW276652   5.150  13.428   8.203
91605SOL     OW76653   8.685  10.240   1.697
91605SOL    HW176654   8.719  10.325   1.724
91605SOL    HW276655   8.604  10.229   1.747
91606SOL     OW76656  12.590   6.801  14.460
91606SOL    HW176657  12.528   6.733  14.488
91606SOL    HW276658  12.671   6.753  14.443
91607SOL     OW76659  10.610   8.627  14.625
91607SOL    HW176660  10.640   8.601  14.712
91607SOL    HW276661  10.518   8.653  14.639
91608SOL     OW76662  14.165   1.771   3.577
91608SOL    HW176663  14.107   1.767   3.653
91608SOL    HW276664  14.129   1.840   3.522
91609SOL     OW76665   6.821  12.399   8.656
91609SOL    HW176666   6.849  12.342   8.585
91609SOL    HW276667   6.754  12.455   8.616
91610SOL     OW76668   2.906  11.754   1.774
91610SOL    HW176669   2.858  11.787   1.698
91610SOL    HW276670   2.944  11.672   1.744
91611SOL     OW76671   4.382   7.738   4.485
91611SOL    HW176672   4.313   7.671   4.484
91611SOL    HW276673   4.353   7.802   4.549
91612SOL     OW76674  13.743   7.956  12.746
91612SOL    HW176675  13.710   8.035  12.789
91612SOL    HW276676  13.680   7.888  12.772
91613SOL     OW76677   7.761   0.339   2.201
91613SOL    HW176678   7.836   0.303   2.153
91613SOL    HW276679   7.792   0.347   2.291
91614SOL     OW76680   7.796   9.144  12.914
91614SOL    HW176681   7.719   9.170  12.963
91614SOL    HW276682   7.868   9.150  12.977
91615SOL     OW76683   9.415   9.688   8.489
91615SOL    HW176684   9.494   9.675   8.437
91615SOL    HW276685   9.421   9.623   8.559
91616SOL     OW76686   2.689   7.779  14.292
91616SOL    HW176687   2.714   7.778  14.200
91616SOL    HW276688   2.715   7.693  14.325
91617SOL     OW76689  13.123   0.932  12.355
91617SOL    HW176690  13.038   0.973  12.372
91617SOL    HW276691  13.164   0.990  12.290
91618SOL     OW76692   7.619   1.422  12.707
91618SOL    HW176693   7.546   1.481  12.723
91618SOL    HW276694   7.606   1.350  12.768
91619SOL     OW76695   9.303  14.353   5.424
91619SOL    HW176696   9.358  14.356   5.502
91619SOL    HW276697   9.237  14.287   5.443
91620SOL     OW76698   1.951   0.433   8.148
91620SOL    HW176699   2.033   0.386   8.134
91620SOL    HW276700   1.940   0.486   8.069
91621SOL     OW76701  14.819   1.675   7.472
91621SOL    HW176702  14.727   1.668   7.499
91621SOL    HW276703  14.845   1.764   7.494
91622SOL     OW76704   8.039   6.212   9.581
91622SOL    HW176705   8.035   6.172   9.494
91622SOL    HW276706   7.965   6.273   9.583
91623SOL     OW76707  13.072   6.985   5.746
91623SOL    HW176708  12.977   6.995   5.757
91623SOL    HW276709  13.084   6.894   5.717
91624SOL     OW76710   5.038  13.913  13.543
91624SOL    HW176711   5.033  14.005  13.519
91624SOL    HW276712   5.132  13.895  13.549
91625SOL     OW76713  11.863   9.997   5.407
91625SOL    HW176714  11.955   9.975   5.392
91625SOL    HW276715  11.855  10.088   5.379
91626SOL     OW76716  11.233   2.628   0.854
91626SOL    HW176717  11.268   2.547   0.818
91626SOL    HW276718  11.309   2.684   0.868
91627SOL     OW76719   2.293   2.740   0.592
91627SOL    HW176720   2.387   2.730   0.580
91627SOL    HW276721   2.280   2.834   0.606
91628SOL     OW76722   8.285  11.947  11.024
91628SOL    HW176723   8.278  11.926  10.931
91628SOL    HW276724   8.281  12.043  11.028
91629SOL     OW76725  10.180   6.669   2.430
91629SOL    HW176726  10.085   6.683   2.431
91629SOL    HW276727  10.212   6.726   2.361
91630SOL     OW76728   4.419   5.010   9.007
91630SOL    HW176729   4.331   5.012   9.044
91630SOL    HW276730   4.408   5.041   8.917
91631SOL     OW76731   2.455   5.327   5.047
91631SOL    HW176732   2.373   5.280   5.032
91631SOL    HW276733   2.512   5.263   5.091
91632SOL     OW76734  11.226  12.777   7.850
91632SOL    HW176735  11.224  12.797   7.944
91632SOL    HW276736  11.273  12.693   7.845
91633SOL     OW76737  13.912   7.635   8.516
91633SOL    HW176738  13.989   7.595   8.474
91633SOL    HW276739  13.942   7.723   8.541
91634SOL     OW76740  11.584   0.465   3.271
91634SOL    HW176741  11.574   0.515   3.190
91634SOL    HW276742  11.532   0.514   3.335
91635SOL     OW76743   4.420   5.837   4.942
91635SOL    HW176744   4.513   5.832   4.963
91635SOL    HW276745   4.384   5.753   4.968
91636SOL     OW76746   9.728  10.145  12.181
91636SOL    HW176747   9.727  10.050  12.191
91636SOL    HW276748   9.637  10.172  12.187
91637SOL     OW76749   2.327   1.076   3.102
91637SOL    HW176750   2.274   1.089   3.023
91637SOL    HW276751   2.264   1.077   3.174
91638SOL     OW76752  12.852   0.023   7.499
91638SOL    HW176753  12.895  14.826   7.450
91638SOL    HW276754  12.924   0.074   7.537
91639SOL     OW76755  13.938   1.135   7.029
91639SOL    HW176756  13.920   1.226   7.052
91639SOL    HW276757  13.865   1.086   7.067
91640SOL     OW76758  10.395   2.407  12.548
91640SOL    HW176759  10.343   2.482  12.578
91640SOL    HW276760  10.331   2.347  12.510
91641SOL     OW76761  13.435  10.590   4.300
91641SOL    HW176762  13.406  10.530   4.231
91641SOL    HW276763  13.355  10.633   4.329
91642SOL     OW76764  12.391  13.460   3.007
91642SOL    HW176765  12.454  13.473   2.936
91642SOL    HW276766  12.351  13.375   2.989
91643SOL     OW76767  12.517   6.828   3.637
91643SOL    HW176768  12.573   6.785   3.701
91643SOL    HW276769  12.493   6.758   3.576
91644SOL     OW76770   6.244   3.874   7.651
91644SOL    HW176771   6.176   3.863   7.718
91644SOL    HW276772   6.232   3.800   7.592
91645SOL     OW76773   6.254   7.069  10.490
91645SOL    HW176774   6.180   7.010  10.504
91645SOL    HW276775   6.328   7.026  10.534
91646SOL     OW76776   8.535   8.675   6.427
91646SOL    HW176777   8.567   8.662   6.338
91646SOL    HW276778   8.544   8.589   6.468
91647SOL     OW76779   8.772  10.431   0.500
91647SOL    HW176780   8.854  10.440   0.452
91647SOL    HW276781   8.732  10.352   0.465
91648SOL     OW76782  12.562   9.792  10.771
91648SOL    HW176783  12.573   9.752  10.685
91648SOL    HW276784  12.468   9.810  10.777
91649SOL     OW76785   7.680   5.627   4.511
91649SOL    HW176786   7.592   5.665   4.507
91649SOL    HW276787   7.665   5.537   4.539
91650SOL     OW76788   6.698   6.548   5.129
91650SOL    HW176789   6.714   6.501   5.047
91650SOL    HW276790   6.661   6.632   5.101
91651SOL     OW76791  12.686   8.976   7.817
91651SOL    HW176792  12.757   8.938   7.766
91651SOL    HW276793  12.726   9.051   7.861
91652SOL     OW76794   4.415   8.116   3.312
91652SOL    HW176795   4.423   8.199   3.360
91652SOL    HW276796   4.362   8.138   3.235
91653SOL     OW76797  14.168   8.739   5.692
91653SOL    HW176798  14.218   8.808   5.735
91653SOL    HW276799  14.175   8.758   5.599
91654SOL     OW76800  14.849  11.403  10.980
91654SOL    HW176801  14.813  11.465  10.916
91654SOL    HW276802   0.049  11.448  11.020
91655SOL     OW76803  12.881   3.539  13.701
91655SOL    HW176804  12.959   3.577  13.660
91655SOL    HW276805  12.873   3.586  13.784
91656SOL     OW76806   2.172  14.531   4.444
91656SOL    HW176807   2.237  14.582   4.491
91656SOL    HW276808   2.206  14.525   4.355
91657SOL     OW76809   5.746   0.904   5.113
91657SOL    HW176810   5.695   0.909   5.031
91657SOL    HW276811   5.799   0.826   5.103
91658SOL     OW76812   3.022   4.231  12.830
91658SOL    HW176813   3.046   4.267  12.744
91658SOL    HW276814   2.936   4.270  12.849
91659SOL     OW76815  13.316   8.136   7.939
91659SOL    HW176816  13.235   8.092   7.964
91659SOL    HW276817  13.368   8.067   7.898
91660SOL     OW76818   8.532  13.735   3.328
91660SOL    HW176819   8.448  13.693   3.309
91660SOL    HW276820   8.513  13.799   3.396
91661SOL     OW76821  14.352  11.213  12.692
91661SOL    HW176822  14.432  11.161  12.696
91661SOL    HW276823  14.346  11.255  12.777
91662SOL     OW76824  13.755  12.199   4.934
91662SOL    HW176825  13.780  12.283   4.973
91662SOL    HW276826  13.796  12.200   4.847
91663SOL     OW76827  11.250   0.422   9.335
91663SOL    HW176828  11.335   0.386   9.361
91663SOL    HW276829  11.271   0.504   9.291
91664SOL     OW76830   1.280   9.796   1.469
91664SOL    HW176831   1.257   9.709   1.503
91664SOL    HW276832   1.249   9.795   1.378
91665SOL     OW76833  13.662  10.667  13.838
91665SOL    HW176834  13.705  10.743  13.798
91665SOL    HW276835  13.732  10.620  13.883
91666SOL     OW76836  14.116   7.688   8.093
91666SOL    HW176837  14.166   7.759   8.054
91666SOL    HW276838  14.112   7.621   8.024
91667SOL     OW76839  10.202  12.079  12.623
91667SOL    HW176840  10.252  12.155  12.653
91667SOL    HW276841  10.111  12.101  12.643
91668SOL     OW76842   8.555   4.859  11.615
91668SOL    HW176843   8.508   4.881  11.695
91668SOL    HW276844   8.512   4.780  11.583
91669SOL     OW76845   0.516   2.972   1.464
91669SOL    HW176846   0.604   2.971   1.426
91669SOL    HW276847   0.478   3.055   1.435
91670SOL     OW76848   4.619   7.185   5.534
91670SOL    HW176849   4.586   7.098   5.509
91670SOL    HW276850   4.543   7.228   5.574
91671SOL     OW76851   3.613   9.249   3.953
91671SOL    HW176852   3.637   9.161   3.925
91671SOL    HW276853   3.689   9.303   3.928
91672SOL     OW76854  10.642  10.346   8.866
91672SOL    HW176855  10.667  10.331   8.775
91672SOL    HW276856  10.562  10.295   8.877
91673SOL     OW76857   1.913  11.477   2.362
91673SOL    HW176858   1.824  11.442   2.362
91673SOL    HW276859   1.919  11.524   2.278
91674SOL     OW76860   7.987   6.530   5.862
91674SOL    HW176861   8.020   6.481   5.788
91674SOL    HW276862   7.905   6.568   5.831
91675SOL     OW76863  11.055   4.725  12.080
91675SOL    HW176864  11.040   4.706  11.988
91675SOL    HW276865  10.992   4.794  12.102
91676SOL     OW76866  11.970   8.925   5.494
91676SOL    HW176867  12.013   8.851   5.451
91676SOL    HW276868  11.977   8.996   5.430
91677SOL     OW76869   0.865   5.340   0.473
91677SOL    HW176870   0.884   5.434   0.479
91677SOL    HW276871   0.773   5.336   0.447
91678SOL     OW76872   2.304  14.233  14.558
91678SOL    HW176873   2.288  14.141  14.538
91678SOL    HW276874   2.222  14.263  14.598
91679SOL     OW76875   4.303   3.454   0.876
91679SOL    HW176876   4.225   3.486   0.920
91679SOL    HW276877   4.370   3.521   0.892
91680SOL     OW76878   1.824   3.364   0.488
91680SOL    HW176879   1.748   3.381   0.432
91680SOL    HW276880   1.820   3.270   0.506
91681SOL     OW76881  14.756   5.008   8.605
91681SOL    HW176882  14.702   5.072   8.652
91681SOL    HW276883  14.805   4.963   8.674
91682SOL     OW76884   5.766   4.933   7.009
91682SOL    HW176885   5.851   4.904   6.977
91682SOL    HW276886   5.753   5.018   6.968
91683SOL     OW76887   1.025   1.684   3.804
91683SOL    HW176888   0.981   1.611   3.761
91683SOL    HW276889   0.959   1.754   3.805
91684SOL     OW76890   2.780   6.748   7.070
91684SOL    HW176891   2.875   6.760   7.060
91684SOL    HW276892   2.745   6.837   7.071
91685SOL     OW76893  10.131  13.419   6.702
91685SOL    HW176894  10.089  13.489   6.653
91685SOL    HW276895  10.209  13.460   6.740
91686SOL     OW76896   2.758   1.949  11.152
91686SOL    HW176897   2.834   1.970  11.096
91686SOL    HW276898   2.789   1.880  11.210
91687SOL     OW76899  12.053   1.791   4.805
91687SOL    HW176900  12.055   1.886   4.813
91687SOL    HW276901  11.960   1.769   4.808
91688SOL     OW76902   9.909  14.123  13.344
91688SOL    HW176903   9.979  14.121  13.279
91688SOL    HW276904   9.931  14.195  13.402
91689SOL     OW76905   5.353   6.735   6.116
91689SOL    HW176906   5.429   6.684   6.087
91689SOL    HW276907   5.352   6.811   6.058
91690SOL     OW76908   2.717   4.703   2.952
91690SOL    HW176909   2.746   4.643   3.021
91690SOL    HW276910   2.758   4.669   2.872
91691SOL     OW76911   5.298   7.912   9.269
91691SOL    HW176912   5.316   7.924   9.362
91691SOL    HW276913   5.379   7.877   9.233
91692SOL     OW76914   4.528   0.517  11.342
91692SOL    HW176915   4.454   0.462  11.317
91692SOL    HW276916   4.559   0.479  11.424
91693SOL     OW76917   7.425  13.937   8.458
91693SOL    HW176918   7.493  13.950   8.392
91693SOL    HW276919   7.420  14.020   8.504
91694SOL     OW76920  12.038  14.314   2.042
91694SOL    HW176921  12.060  14.221   2.032
91694SOL    HW276922  12.012  14.342   1.954
91695SOL     OW76923   7.000   4.116   0.140
91695SOL    HW176924   6.923   4.121   0.197
91695SOL    HW276925   7.040   4.203   0.145
91696SOL     OW76926  12.221   1.907  12.547
91696SOL    HW176927  12.131   1.877  12.557
91696SOL    HW276928  12.214   1.987  12.495
91697SOL     OW76929   8.653   8.114  11.715
91697SOL    HW176930   8.741   8.096  11.683
91697SOL    HW276931   8.612   8.167  11.647
91698SOL     OW76932  13.894  11.873   9.079
91698SOL    HW176933  13.906  11.828   9.162
91698SOL    HW276934  13.942  11.955   9.089
91699SOL     OW76935   0.249   9.276   1.173
91699SOL    HW176936   0.226   9.255   1.082
91699SOL    HW276937   0.238   9.371   1.179
91700SOL     OW76938  12.227   6.173   0.511
91700SOL    HW176939  12.170   6.126   0.450
91700SOL    HW276940  12.230   6.262   0.476
91701SOL     OW76941  11.485   2.321   1.189
91701SOL    HW176942  11.483   2.394   1.128
91701SOL    HW276943  11.464   2.244   1.136
91702SOL     OW76944   2.931  11.059   9.657
91702SOL    HW176945   3.023  11.060   9.630
91702SOL    HW276946   2.904  10.967   9.645
91703SOL     OW76947  14.420   6.824   5.103
91703SOL    HW176948  14.476   6.782   5.038
91703SOL    HW276949  14.343   6.767   5.109
91704SOL     OW76950  10.524   2.561   9.158
91704SOL    HW176951  10.471   2.492   9.121
91704SOL    HW276952  10.571   2.599   9.084
91705SOL     OW76953  10.885   2.636  12.724
91705SOL    HW176954  10.861   2.544  12.739
91705SOL    HW276955  10.980   2.635  12.719
91706SOL     OW76956   5.712  13.778  13.834
91706SOL    HW176957   5.689  13.863  13.871
91706SOL    HW276958   5.805  13.768  13.855
91707SOL     OW76959  12.672   5.359   9.333
91707SOL    HW176960  12.634   5.376   9.419
91707SOL    HW276961  12.629   5.421   9.274
91708SOL     OW76962   3.576   0.104  11.345
91708SOL    HW176963   3.528   0.023  11.329
91708SOL    HW276964   3.556   0.127  11.435
91709SOL     OW76965  14.849   3.821  10.958
91709SOL    HW176966   0.030   3.771  11.018
91709SOL    HW276967  14.771   3.844  11.010
91710SOL     OW76968   8.742   9.256  12.374
91710SOL    HW176969   8.678   9.186  12.367
91710SOL    HW276970   8.758   9.265  12.468
91711SOL     OW76971   1.409   3.766  13.919
91711SOL    HW176972   1.363   3.692  13.879
91711SOL    HW276973   1.354   3.791  13.993
91712SOL     OW76974   9.674   3.607  10.086
91712SOL    HW176975   9.763   3.640  10.078
91712SOL    HW276976   9.658   3.561  10.004
91713SOL     OW76977   4.651   5.100  13.208
91713SOL    HW176978   4.649   5.009  13.239
91713SOL    HW276979   4.655   5.153  13.287
91714SOL     OW76980   6.045   8.433  13.382
91714SOL    HW176981   6.112   8.497  13.404
91714SOL    HW276982   5.984   8.480  13.325
91715SOL     OW76983   8.240   7.870  11.914
91715SOL    HW176984   8.199   7.818  11.984
91715SOL    HW276985   8.326   7.893  11.949
91716SOL     OW76986   8.968   2.365  14.798
91716SOL    HW176987   9.058   2.337  14.813
91716SOL    HW276988   8.972   2.461  14.801
91717SOL     OW76989   8.266  11.095   8.997
91717SOL    HW176990   8.274  11.000   9.008
91717SOL    HW276991   8.335  11.131   9.053
91718SOL     OW76992   2.147   5.712  11.423
91718SOL    HW176993   2.215   5.646  11.413
91718SOL    HW276994   2.183   5.774  11.486
91719SOL     OW76995   3.277   1.175   1.029
91719SOL    HW176996   3.266   1.171   0.934
91719SOL    HW276997   3.269   1.085   1.058
91720SOL     OW76998   9.254  14.326   5.787
91720SOL    HW176999   9.229  14.416   5.810
91720SOL    HW277000   9.249  14.278   5.870
91721SOL     OW77001   8.866   3.444  11.046
91721SOL    HW177002   8.789   3.491  11.014
91721SOL    HW277003   8.858   3.356  11.011
91722SOL     OW77004   8.952  14.549   5.711
91722SOL    HW177005   8.996  14.466   5.693
91722SOL    HW277006   8.988  14.610   5.646
91723SOL     OW77007   8.214  12.018   5.484
91723SOL    HW177008   8.213  11.934   5.530
91723SOL    HW277009   8.277  12.006   5.413
91724SOL     OW77010  11.852   8.571   4.827
91724SOL    HW177011  11.861   8.477   4.842
91724SOL    HW277012  11.762   8.582   4.796
91725SOL     OW77013   9.578   2.973   3.270
91725SOL    HW177014   9.515   2.900   3.269
91725SOL    HW277015   9.608   2.977   3.360
91726SOL     OW77016  11.791  10.500  10.031
91726SOL    HW177017  11.780  10.405  10.024
91726SOL    HW277018  11.730  10.526  10.100
91727SOL     OW77019   8.566   9.339   3.661
91727SOL    HW177020   8.473   9.321   3.648
91727SOL    HW277021   8.600   9.260   3.704
91728SOL     OW77022   9.206   9.759   7.418
91728SOL    HW177023   9.279   9.759   7.356
91728SOL    HW277024   9.129   9.780   7.363
91729SOL     OW77025  11.021   5.744   5.089
91729SOL    HW177026  10.965   5.667   5.082
91729SOL    HW277027  11.009   5.790   5.006
91730SOL     OW77028   5.413   2.178   3.820
91730SOL    HW177029   5.442   2.187   3.910
91730SOL    HW277030   5.482   2.219   3.768
91731SOL     OW77031  13.129  12.323  12.062
91731SOL    HW177032  13.064  12.387  12.092
91731SOL    HW277033  13.162  12.284  12.143
91732SOL     OW77034   4.158  10.254   5.326
91732SOL    HW177035   4.149  10.225   5.416
91732SOL    HW277036   4.247  10.290   5.321
91733SOL     OW77037   7.310   9.679   0.844
91733SOL    HW177038   7.314   9.774   0.854
91733SOL    HW277039   7.396   9.654   0.810
91734SOL     OW77040   8.932   4.124  11.217
91734SOL    HW177041   9.022   4.135  11.184
91734SOL    HW277042   8.877   4.166  11.151
91735SOL     OW77043   9.494   0.905  13.182
91735SOL    HW177044   9.557   0.832  13.186
91735SOL    HW277045   9.534   0.966  13.120
91736SOL     OW77046   1.014   3.567  12.958
91736SOL    HW177047   0.943   3.519  12.915
91736SOL    HW277048   0.974   3.650  12.984
91737SOL     OW77049   3.273   9.371   1.735
91737SOL    HW177050   3.288   9.278   1.753
91737SOL    HW277051   3.354   9.414   1.762
91738SOL     OW77052  10.864   5.524   5.039
91738SOL    HW177053  10.802   5.526   4.967
91738SOL    HW277054  10.823   5.468   5.105
91739SOL     OW77055   3.006   6.700   5.958
91739SOL    HW177056   2.933   6.679   5.899
91739SOL    HW277057   3.058   6.764   5.911
91740SOL     OW77058  12.108   2.628  12.953
91740SOL    HW177059  12.095   2.682  12.875
91740SOL    HW277060  12.106   2.690  13.025
91741SOL     OW77061  12.864   7.313   8.436
91741SOL    HW177062  12.865   7.257   8.359
91741SOL    HW277063  12.782   7.291   8.481
91742SOL     OW77064   0.038   6.984   8.185
91742SOL    HW177065   0.067   7.073   8.206
91742SOL    HW277066  14.853   6.995   8.110
91743SOL     OW77067  14.623   3.897   9.033
91743SOL    HW177068  14.603   3.956   9.106
91743SOL    HW277069  14.552   3.834   9.033
91744SOL     OW77070  14.738  13.175  12.041
91744SOL    HW177071  14.661  13.134  12.003
91744SOL    HW277072  14.705  13.254  12.085
91745SOL     OW77073   8.172   2.482  10.544
91745SOL    HW177074   8.257   2.525  10.555
91745SOL    HW277075   8.185   2.421  10.471
91746SOL     OW77076  13.592   8.640   0.708
91746SOL    HW177077  13.646   8.714   0.736
91746SOL    HW277078  13.601   8.576   0.778
91747SOL     OW77079   9.219   9.401   0.813
91747SOL    HW177080   9.264   9.390   0.729
91747SOL    HW277081   9.145   9.341   0.808
91748SOL     OW77082  12.219   4.973   6.848
91748SOL    HW177083  12.224   5.049   6.790
91748SOL    HW277084  12.136   4.931   6.825
91749SOL     OW77085   1.172  11.590   2.606
91749SOL    HW177086   1.213  11.594   2.692
91749SOL    HW277087   1.109  11.519   2.613
91750SOL     OW77088  13.008   9.577   2.793
91750SOL    HW177089  13.100   9.591   2.768
91750SOL    HW277090  12.978   9.663   2.822
91751SOL     OW77091   3.913  13.438   6.297
91751SOL    HW177092   3.840  13.492   6.328
91751SOL    HW277093   3.879  13.396   6.218
91752SOL     OW77094  10.617   9.377   5.468
91752SOL    HW177095  10.712   9.381   5.455
91752SOL    HW277096  10.604   9.404   5.559
91753SOL     OW77097   1.398   6.549   1.074
91753SOL    HW177098   1.318   6.520   1.030
91753SOL    HW277099   1.465   6.485   1.048
91754SOL     OW77100  12.481   8.769   2.162
91754SOL    HW177101  12.465   8.708   2.235
91754SOL    HW277102  12.501   8.852   2.205
91755SOL     OW77103   6.442   5.116   9.394
91755SOL    HW177104   6.523   5.162   9.418
91755SOL    HW277105   6.471   5.032   9.359
91756SOL     OW77106   7.263  10.528   2.057
91756SOL    HW177107   7.185  10.473   2.061
91756SOL    HW277108   7.336  10.466   2.047
91757SOL     OW77109   3.649   0.823   7.460
91757SOL    HW177110   3.739   0.840   7.434
91757SOL    HW277111   3.656   0.785   7.548
91758SOL     OW77112   7.203  11.383   4.012
91758SOL    HW177113   7.267  11.347   3.952
91758SOL    HW277114   7.255  11.419   4.084
91759SOL     OW77115  12.510  11.264   4.345
91759SOL    HW177116  12.496  11.294   4.435
91759SOL    HW277117  12.589  11.309   4.316
91760SOL     OW77118   2.914  13.707  14.182
91760SOL    HW177119   2.837  13.651  14.174
91760SOL    HW277120   2.906  13.770  14.110
91761SOL     OW77121   6.573   3.453   6.697
91761SOL    HW177122   6.579   3.387   6.766
91761SOL    HW277123   6.617   3.530   6.734
91762SOL     OW77124   5.711   9.751  10.820
91762SOL    HW177125   5.798   9.712  10.830
91762SOL    HW277126   5.676   9.711  10.741
91763SOL     OW77127   4.166   9.295  14.086
91763SOL    HW177128   4.187   9.215  14.135
91763SOL    HW277129   4.089   9.272  14.034
91764SOL     OW77130  14.445  13.733   1.951
91764SOL    HW177131  14.410  13.653   1.990
91764SOL    HW277132  14.401  13.803   1.998
91765SOL     OW77133   6.607   2.791   2.929
91765SOL    HW177134   6.589   2.846   3.005
91765SOL    HW277135   6.575   2.842   2.854
91766SOL     OW77136   7.109   5.001   2.774
91766SOL    HW177137   7.081   4.963   2.858
91766SOL    HW277138   7.068   4.945   2.708
91767SOL     OW77139  13.559  10.565  10.802
91767SOL    HW177140  13.617  10.555  10.727
91767SOL    HW277141  13.613  10.542  10.878
91768SOL     OW77142   2.433   7.873   1.168
91768SOL    HW177143   2.447   7.847   1.259
91768SOL    HW277144   2.512   7.922   1.144
91769SOL     OW77145  13.211  13.358  11.224
91769SOL    HW177146  13.276  13.308  11.175
91769SOL    HW277147  13.161  13.291  11.272
91770SOL     OW77148   1.437   9.719  13.147
91770SOL    HW177149   1.445   9.702  13.053
91770SOL    HW277150   1.360   9.775  13.155
91771SOL     OW77151   6.810   3.699  11.339
91771SOL    HW177152   6.868   3.772  11.315
91771SOL    HW277153   6.833   3.630  11.277
91772SOL     OW77154   8.402   9.316  11.723
91772SOL    HW177155   8.343   9.247  11.752
91772SOL    HW277156   8.439   9.282  11.641
91773SOL     OW77157   6.529  13.649  14.445
91773SOL    HW177158   6.513  13.742  14.428
91773SOL    HW277159   6.605  13.648  14.503
91774SOL     OW77160   2.557   0.624  11.230
91774SOL    HW177161   2.604   0.541  11.243
91774SOL    HW277162   2.522   0.645  11.316
91775SOL     OW77163   9.160   1.005   8.519
91775SOL    HW177164   9.078   1.050   8.537
91775SOL    HW277165   9.138   0.939   8.453
91776SOL     OW77166   8.895  10.143  13.903
91776SOL    HW177167   8.882  10.237  13.916
91776SOL    HW277168   8.807  10.109  13.886
91777SOL     OW77169   3.147  12.403   6.527
91777SOL    HW177170   3.054  12.391   6.505
91777SOL    HW277171   3.179  12.461   6.457
91778SOL     OW77172  12.152   8.616   8.413
91778SOL    HW177173  12.228   8.664   8.380
91778SOL    HW277174  12.091   8.614   8.339
91779SOL     OW77175   7.625   2.953   0.710
91779SOL    HW177176   7.678   2.983   0.637
91779SOL    HW277177   7.591   3.034   0.749
91780SOL     OW77178   7.871   6.495   2.835
91780SOL    HW177179   7.836   6.574   2.876
91780SOL    HW277180   7.960   6.487   2.870
91781SOL     OW77181   9.287  13.795   2.620
91781SOL    HW177182   9.308  13.853   2.547
91781SOL    HW277183   9.321  13.709   2.593
91782SOL     OW77184  12.825  11.092   0.347
91782SOL    HW177185  12.729  11.093   0.346
91782SOL    HW277186  12.850  11.179   0.318
91783SOL     OW77187   6.437  14.535   0.486
91783SOL    HW177188   6.421  14.598   0.556
91783SOL    HW277189   6.447  14.588   0.407
91784SOL     OW77190   7.787   2.648   6.255
91784SOL    HW177191   7.769   2.736   6.287
91784SOL    HW277192   7.852   2.614   6.316
91785SOL     OW77193   9.724   6.338   7.373
91785SOL    HW177194   9.648   6.282   7.387
91785SOL    HW277195   9.687   6.423   7.350
91786SOL     OW77196  12.679   3.195  12.448
91786SOL    HW177197  12.664   3.105  12.419
91786SOL    HW277198  12.768   3.215  12.420
91787SOL     OW77199   1.179   9.042   0.242
91787SOL    HW177200   1.143   8.955   0.228
91787SOL    HW277201   1.231   9.034   0.322
91788SOL     OW77202  13.559   5.623  14.832
91788SOL    HW177203  13.646   5.659  14.850
91788SOL    HW277204  13.576   5.535  14.797
91789SOL     OW77205  10.527  10.274   1.499
91789SOL    HW177206  10.451  10.271   1.441
91789SOL    HW277207  10.511  10.350   1.555
91790SOL     OW77208   1.529   6.651   6.508
91790SOL    HW177209   1.509   6.651   6.602
91790SOL    HW277210   1.595   6.582   6.497
91791SOL     OW77211   8.322  12.243  13.049
91791SOL    HW177212   8.306  12.151  13.028
91791SOL    HW277213   8.272  12.258  13.130
91792SOL     OW77214   2.077   7.912   8.708
91792SOL    HW177215   2.124   7.994   8.695
91792SOL    HW277216   2.079   7.899   8.803
91793SOL     OW77217   7.367  11.733   2.863
91793SOL    HW177218   7.274  11.728   2.844
91793SOL    HW277219   7.395  11.642   2.872
91794SOL     OW77220   6.382   5.570  11.153
91794SOL    HW177221   6.298   5.581  11.109
91794SOL    HW277222   6.423   5.657  11.149
91795SOL     OW77223   1.815  11.322   5.416
91795SOL    HW177224   1.886  11.279   5.464
91795SOL    HW277225   1.821  11.287   5.327
91796SOL     OW77226   7.114   1.207   2.128
91796SOL    HW177227   7.166   1.287   2.132
91796SOL    HW277228   7.064   1.214   2.046
91797SOL     OW77229   3.528   7.064   2.697
91797SOL    HW177230   3.570   6.982   2.670
91797SOL    HW277231   3.519   7.114   2.616
91798SOL     OW77232   9.355  11.358   9.219
91798SOL    HW177233   9.391  11.272   9.237
91798SOL    HW277234   9.431  11.415   9.210
91799SOL     OW77235  10.668   6.418  12.749
91799SOL    HW177236  10.712   6.379  12.824
91799SOL    HW277237  10.630   6.499  12.782
91800SOL     OW77238  12.842   5.745  11.126
91800SOL    HW177239  12.861   5.749  11.032
91800SOL    HW277240  12.756   5.786  11.135
91801SOL     OW77241   3.265   7.601   0.045
91801SOL    HW177242   3.215   7.593   0.126
91801SOL    HW277243   3.356   7.609   0.073
91802SOL     OW77244  12.331   6.140   6.468
91802SOL    HW177245  12.329   6.084   6.390
91802SOL    HW277246  12.337   6.079   6.541
91803SOL     OW77247   4.618   3.314  10.216
91803SOL    HW177248   4.528   3.316  10.185
91803SOL    HW277249   4.669   3.346  10.142
91804SOL     OW77250   2.517  12.190   3.191
91804SOL    HW177251   2.488  12.232   3.272
91804SOL    HW277252   2.612  12.180   3.202
91805SOL     OW77253  10.123   9.461  12.098
91805SOL    HW177254  10.044   9.420  12.134
91805SOL    HW277255  10.093   9.546  12.065
91806SOL     OW77256   3.443   9.283   2.135
91806SOL    HW177257   3.370   9.327   2.179
91806SOL    HW277258   3.516   9.345   2.140
91807SOL     OW77259   6.152   3.503  11.123
91807SOL    HW177260   6.099   3.430  11.154
91807SOL    HW277261   6.088   3.563  11.083
91808SOL     OW77262  11.471   4.254   0.369
91808SOL    HW177263  11.535   4.317   0.402
91808SOL    HW277264  11.391   4.305   0.357
91809SOL     OW77265   4.874  12.082   5.479
91809SOL    HW177266   4.871  12.004   5.424
91809SOL    HW277267   4.789  12.084   5.524
91810SOL     OW77268   7.082   4.679  10.609
91810SOL    HW177269   7.005   4.687  10.553
91810SOL    HW277270   7.092   4.585  10.624
91811SOL     OW77271   0.990   3.049   1.540
91811SOL    HW177272   0.963   2.975   1.486
91811SOL    HW277273   0.973   3.022   1.630
91812SOL     OW77274   9.739   4.399   7.925
91812SOL    HW177275   9.778   4.469   7.977
91812SOL    HW277276   9.808   4.374   7.864
91813SOL     OW77277  11.409   9.832   5.592
91813SOL    HW177278  11.417   9.901   5.658
91813SOL    HW277279  11.392   9.753   5.643
91814SOL     OW77280   4.730   1.016  11.692
91814SOL    HW177281   4.790   0.942  11.690
91814SOL    HW277282   4.759   1.072  11.619
91815SOL     OW77283   6.462   3.463   5.897
91815SOL    HW177284   6.552   3.430   5.901
91815SOL    HW277285   6.409   3.392   5.935
91816SOL     OW77286  12.750   2.839   9.244
91816SOL    HW177287  12.793   2.914   9.284
91816SOL    HW277288  12.746   2.861   9.151
91817SOL     OW77289   6.553   8.293   7.608
91817SOL    HW177290   6.490   8.352   7.650
91817SOL    HW277291   6.637   8.337   7.618
91818SOL     OW77292   6.239   1.152   8.608
91818SOL    HW177293   6.326   1.113   8.616
91818SOL    HW277294   6.193   1.122   8.686
91819SOL     OW77295   7.581   3.892  14.319
91819SOL    HW177296   7.523   3.885  14.243
91819SOL    HW277297   7.645   3.959  14.294
91820SOL     OW77298   6.934   5.525  12.537
91820SOL    HW177299   6.962   5.617  12.533
91820SOL    HW277300   6.929   5.505  12.630
91821SOL     OW77301  11.235   4.141   5.074
91821SOL    HW177302  11.247   4.090   5.155
91821SOL    HW277303  11.146   4.121   5.047
91822SOL     OW77304  13.050   8.830  11.552
91822SOL    HW177305  12.974   8.809  11.497
91822SOL    HW277306  13.112   8.870  11.492
91823SOL     OW77307   3.046   8.381   3.706
91823SOL    HW177308   3.042   8.413   3.796
91823SOL    HW277309   3.140   8.377   3.686
91824SOL     OW77310   7.070   8.877   4.514
91824SOL    HW177311   6.992   8.853   4.564
91824SOL    HW277312   7.092   8.965   4.543
91825SOL     OW77313   2.034   5.982   9.437
91825SOL    HW177314   2.054   5.941   9.353
91825SOL    HW277315   2.104   6.045   9.451
91826SOL     OW77316   9.863   3.505   8.377
91826SOL    HW177317   9.782   3.545   8.345
91826SOL    HW277318   9.872   3.540   8.466
91827SOL     OW77319   6.557   0.892   5.961
91827SOL    HW177320   6.594   0.980   5.970
91827SOL    HW277321   6.624   0.834   5.996
91828SOL     OW77322   3.459   4.014  13.338
91828SOL    HW177323   3.500   3.931  13.318
91828SOL    HW277324   3.530   4.069  13.372
91829SOL     OW77325   3.333   2.076   6.067
91829SOL    HW177326   3.389   2.016   6.019
91829SOL    HW277327   3.389   2.111   6.136
91830SOL     OW77328   8.379   8.308  11.732
91830SOL    HW177329   8.432   8.318  11.811
91830SOL    HW277330   8.320   8.236  11.753
91831SOL     OW77331   1.380   1.418  11.245
91831SOL    HW177332   1.286   1.422  11.261
91831SOL    HW277333   1.392   1.337  11.194
91832SOL     OW77334   2.710   3.252   3.284
91832SOL    HW177335   2.760   3.181   3.244
91832SOL    HW277336   2.625   3.248   3.240
91833SOL     OW77337   3.600   7.005   8.533
91833SOL    HW177338   3.579   7.095   8.555
91833SOL    HW277339   3.690   7.009   8.500
91834SOL     OW77340  13.727  11.577  10.279
91834SOL    HW177341  13.706  11.529  10.199
91834SOL    HW277342  13.655  11.638  10.290
91835SOL     OW77343   0.033   9.235  14.365
91835SOL    HW177344   0.052   9.328  14.368
91835SOL    HW277345   0.111   9.193  14.402
91836SOL     OW77346  11.630  14.580   3.076
91836SOL    HW177347  11.629  14.521   3.151
91836SOL    HW277348  11.584  14.658   3.106
91837SOL     OW77349   8.604   5.974   0.452
91837SOL    HW177350   8.658   5.982   0.374
91837SOL    HW277351   8.585   5.880   0.458
91838SOL     OW77352   7.963  11.653  10.936
91838SOL    HW177353   7.895  11.707  10.976
91838SOL    HW277354   7.916  11.587  10.886
91839SOL     OW77355   4.476   1.227  13.027
91839SOL    HW177356   4.433   1.207  13.110
91839SOL    HW277357   4.416   1.193  12.960
91840SOL     OW77358   4.802  11.756   4.207
91840SOL    HW177359   4.760  11.739   4.291
91840SOL    HW277360   4.782  11.679   4.154
91841SOL     OW77361  13.247   9.979   2.071
91841SOL    HW177362  13.276  10.001   1.983
91841SOL    HW277363  13.161   9.939   2.058
91842SOL     OW77364   5.675   2.811   9.442
91842SOL    HW177365   5.627   2.891   9.465
91842SOL    HW277366   5.628   2.741   9.486
91843SOL     OW77367   3.419   6.195   8.308
91843SOL    HW177368   3.395   6.232   8.393
91843SOL    HW277369   3.338   6.195   8.258
91844SOL     OW77370   3.027   4.440   3.259
91844SOL    HW177371   3.083   4.438   3.337
91844SOL    HW277372   3.036   4.352   3.221
91845SOL     OW77373  14.788  13.409   3.641
91845SOL    HW177374  14.786  13.417   3.736
91845SOL    HW277375  14.872  13.366   3.622
91846SOL     OW77376   6.172   4.436   3.055
91846SOL    HW177377   6.087   4.475   3.037
91846SOL    HW277378   6.235   4.497   3.017
91847SOL     OW77379   0.189  14.419  12.077
91847SOL    HW177380   0.138  14.487  12.121
91847SOL    HW277381   0.264  14.404  12.134
91848SOL     OW77382  12.644   0.441  10.280
91848SOL    HW177383  12.586   0.501  10.234
91848SOL    HW277384  12.717   0.495  10.308
91849SOL     OW77385   8.898  11.757  14.231
91849SOL    HW177386   8.948  11.749  14.150
91849SOL    HW277387   8.944  11.824  14.282
91850SOL     OW77388   5.944  10.495  14.782
91850SOL    HW177389   5.874  10.435  14.755
91850SOL    HW277390   6.008  10.490  14.711
91851SOL     OW77391   7.521  12.661  11.157
91851SOL    HW177392   7.549  12.661  11.066
91851SOL    HW277393   7.509  12.569  11.180
91852SOL     OW77394  10.700   7.476   8.903
91852SOL    HW177395  10.634   7.517   8.960
91852SOL    HW277396  10.674   7.502   8.814
91853SOL     OW77397   6.756   7.601   2.668
91853SOL    HW177398   6.682   7.562   2.716
91853SOL    HW277399   6.814   7.634   2.736
91854SOL     OW77400   7.910   4.870   3.411
91854SOL    HW177401   7.935   4.806   3.345
91854SOL    HW277402   7.815   4.882   3.398
91855SOL     OW77403   7.948   5.134   4.816
91855SOL    HW177404   7.981   5.181   4.893
91855SOL    HW277405   8.013   5.065   4.800
91856SOL     OW77406  13.870   1.880  13.836
91856SOL    HW177407  13.796   1.897  13.894
91856SOL    HW277408  13.838   1.900  13.749
91857SOL     OW77409   0.463  12.792  11.375
91857SOL    HW177410   0.410  12.795  11.454
91857SOL    HW277411   0.554  12.790  11.408
91858SOL     OW77412  11.154  12.186  10.773
91858SOL    HW177413  11.193  12.184  10.685
91858SOL    HW277414  11.216  12.137  10.827
91859SOL     OW77415   1.808   6.590  14.221
91859SOL    HW177416   1.861   6.512  14.204
91859SOL    HW277417   1.871   6.658  14.245
91860SOL     OW77418   6.842   4.413   6.654
91860SOL    HW177419   6.791   4.493   6.669
91860SOL    HW277420   6.894   4.403   6.734
91861SOL     OW77421   0.909   5.167   0.717
91861SOL    HW177422   0.944   5.092   0.670
91861SOL    HW277423   0.887   5.230   0.648
91862SOL     OW77424   1.470   7.433  14.117
91862SOL    HW177425   1.486   7.524  14.142
91862SOL    HW277426   1.377   7.431  14.092
91863SOL     OW77427   6.592   3.907   1.379
91863SOL    HW177428   6.608   3.816   1.355
91863SOL    HW277429   6.616   3.957   1.301
91864SOL     OW77430  11.193   3.956  12.953
91864SOL    HW177431  11.160   4.032  12.906
91864SOL    HW277432  11.227   3.898  12.884
91865SOL     OW77433   2.333   0.527  13.415
91865SOL    HW177434   2.358   0.620  13.415
91865SOL    HW277435   2.239   0.528  13.403
91866SOL     OW77436  10.856   4.887  12.780
91866SOL    HW177437  10.896   4.808  12.746
91866SOL    HW277438  10.787   4.908  12.717
91867SOL     OW77439  11.813   1.292  11.311
91867SOL    HW177440  11.889   1.292  11.252
91867SOL    HW277441  11.743   1.252  11.259
91868SOL     OW77442   9.256   8.243  10.847
91868SOL    HW177443   9.198   8.319  10.847
91868SOL    HW277444   9.228   8.192  10.771
91869SOL     OW77445   2.906   5.908   4.924
91869SOL    HW177446   2.894   6.001   4.945
91869SOL    HW277447   2.971   5.878   4.987
91870SOL     OW77448  14.560   7.396  10.685
91870SOL    HW177449  14.641   7.355  10.654
91870SOL    HW277450  14.588   7.479  10.723
91871SOL     OW77451   1.127  11.241   7.418
91871SOL    HW177452   1.144  11.288   7.500
91871SOL    HW277453   1.148  11.305   7.349
91872SOL     OW77454  11.850   7.909   9.224
91872SOL    HW177455  11.889   7.996   9.216
91872SOL    HW277456  11.766   7.917   9.178
91873SOL     OW77457  14.490   5.843   3.982
91873SOL    HW177458  14.424   5.911   3.967
91873SOL    HW277459  14.519   5.857   4.072
91874SOL     OW77460   1.423   3.159   5.498
91874SOL    HW177461   1.447   3.151   5.405
91874SOL    HW277462   1.497   3.207   5.537
91875SOL     OW77463   8.169  13.188   5.571
91875SOL    HW177464   8.264  13.182   5.579
91875SOL    HW277465   8.136  13.151   5.653
91876SOL     OW77466  11.798  13.884  13.524
91876SOL    HW177467  11.863  13.863  13.456
91876SOL    HW277468  11.717  13.900  13.475
91877SOL     OW77469   7.918  12.778   5.869
91877SOL    HW177470   7.890  12.775   5.777
91877SOL    HW277471   8.001  12.732   5.871
91878SOL     OW77472   2.952  12.555   4.265
91878SOL    HW177473   2.917  12.643   4.255
91878SOL    HW277474   2.889  12.510   4.322
91879SOL     OW77475   8.661   2.744  13.925
91879SOL    HW177476   8.634   2.774  14.012
91879SOL    HW277477   8.727   2.677  13.942
91880SOL     OW77478   8.194  13.476   1.050
91880SOL    HW177479   8.214  13.541   0.982
91880SOL    HW277480   8.277  13.463   1.096
91881SOL     OW77481  12.942  14.482   2.430
91881SOL    HW177482  12.855  14.496   2.468
91881SOL    HW277483  12.925  14.470   2.336
91882SOL     OW77484   3.611   0.976   1.087
91882SOL    HW177485   3.530   0.946   1.128
91882SOL    HW277486   3.587   1.058   1.045
91883SOL     OW77487   3.741   8.999  11.660
91883SOL    HW177488   3.810   9.034  11.717
91883SOL    HW277489   3.747   8.904  11.671
91884SOL     OW77490   6.736   1.398  14.851
91884SOL    HW177491   6.822   1.435  14.870
91884SOL    HW277492   6.691   1.398   0.062
91885SOL     OW77493   5.355   7.858   8.704
91885SOL    HW177494   5.395   7.875   8.619
91885SOL    HW277495   5.356   7.763   8.713
91886SOL     OW77496   5.951   0.050   5.240
91886SOL    HW177497   5.970  14.853   5.177
91886SOL    HW277498   5.884   0.013   5.297
91887SOL     OW77499   0.998   6.269  14.753
91887SOL    HW177500   1.082   6.229  14.771
91887SOL    HW277501   0.995   6.347  14.809
91888SOL     OW77502   8.862   8.761   8.400
91888SOL    HW177503   8.880   8.764   8.494
91888SOL    HW277504   8.769   8.739   8.394
91889SOL     OW77505   8.767  13.042   9.128
91889SOL    HW177506   8.740  13.128   9.161
91889SOL    HW277507   8.720  12.980   9.182
91890SOL     OW77508   5.764   0.265   1.179
91890SOL    HW177509   5.778   0.201   1.249
91890SOL    HW277510   5.841   0.322   1.183
91891SOL     OW77511  13.923   4.164   2.532
91891SOL    HW177512  13.914   4.156   2.437
91891SOL    HW277513  14.003   4.216   2.544
91892SOL     OW77514   3.548   4.053   6.624
91892SOL    HW177515   3.538   4.114   6.550
91892SOL    HW277516   3.469   4.066   6.676
91893SOL     OW77517  10.802  14.487  10.960
91893SOL    HW177518  10.845  14.566  10.927
91893SOL    HW277519  10.802  14.497  11.055
91894SOL     OW77520   1.781   5.186   4.313
91894SOL    HW177521   1.806   5.266   4.266
91894SOL    HW277522   1.725   5.139   4.252
91895SOL     OW77523   7.053   1.236  10.499
91895SOL    HW177524   6.983   1.271  10.554
91895SOL    HW277525   7.134   1.258  10.547
91896SOL     OW77526   0.534   9.595  11.554
91896SOL    HW177527   0.474   9.670  11.560
91896SOL    HW277528   0.501   9.533  11.620
91897SOL     OW77529   5.255   6.735   5.736
91897SOL    HW177530   5.280   6.752   5.646
91897SOL    HW277531   5.272   6.818   5.782
91898SOL     OW77532   6.063   7.865   1.845
91898SOL    HW177533   5.977   7.905   1.827
91898SOL    HW277534   6.058   7.836   1.936
91899SOL     OW77535   3.253   6.901  13.487
91899SOL    HW177536   3.296   6.935  13.408
91899SOL    HW277537   3.262   6.972  13.551
91900SOL     OW77538   3.902   9.224  14.075
91900SOL    HW177539   3.850   9.145  14.078
91900SOL    HW277540   3.858   9.285  14.134
91901SOL     OW77541  12.520   2.269   8.720
91901SOL    HW177542  12.442   2.219   8.742
91901SOL    HW277543  12.487   2.348   8.678
91902SOL     OW77544   5.657  13.484   5.445
91902SOL    HW177545   5.729  13.423   5.463
91902SOL    HW277546   5.578  13.429   5.445
91903SOL     OW77547   7.114   0.752  14.759
91903SOL    HW177548   7.184   0.687  14.754
91903SOL    HW277549   7.101   0.781  14.668
91904SOL     OW77550  11.044  10.304   4.185
91904SOL    HW177551  11.022  10.307   4.278
91904SOL    HW277552  11.036  10.394   4.155
91905SOL     OW77553  13.749   2.545   0.899
91905SOL    HW177554  13.714   2.462   0.929
91905SOL    HW277555  13.788   2.525   0.813
91906SOL     OW77556  12.963  12.896   4.350
91906SOL    HW177557  12.883  12.901   4.298
91906SOL    HW277558  13.033  12.916   4.288
91907SOL     OW77559   1.139   5.872   6.674
91907SOL    HW177560   1.084   5.800   6.704
91907SOL    HW277561   1.195   5.893   6.749
91908SOL     OW77562  14.451   0.778   1.147
91908SOL    HW177563  14.438   0.871   1.169
91908SOL    HW277564  14.463   0.735   1.232
91909SOL     OW77565  10.063   9.976   1.957
91909SOL    HW177566  10.101  10.050   2.005
91909SOL    HW277567  10.103   9.980   1.870
91910SOL     OW77568  12.637  12.198   9.364
91910SOL    HW177569  12.690  12.128   9.402
91910SOL    HW277570  12.700  12.256   9.322
91911SOL     OW77571   2.817   3.116  10.939
91911SOL    HW177572   2.876   3.188  10.961
91911SOL    HW277573   2.829   3.104  10.845
91912SOL     OW77574   8.171   8.589  11.981
91912SOL    HW177575   8.136   8.611  11.895
91912SOL    HW277576   8.190   8.495  11.976
91913SOL     OW77577   7.318  11.744   9.292
91913SOL    HW177578   7.240  11.799   9.294
91913SOL    HW277579   7.302  11.676   9.358
91914SOL     OW77580   2.457   3.585  10.157
91914SOL    HW177581   2.503   3.644  10.097
91914SOL    HW277582   2.426   3.643  10.227
91915SOL     OW77583  11.822   6.148  11.757
91915SOL    HW177584  11.831   6.200  11.677
91915SOL    HW277585  11.757   6.081  11.735
91916SOL     OW77586   5.445   4.790  13.413
91916SOL    HW177587   5.376   4.724  13.427
91916SOL    HW277588   5.430   4.855  13.481
91917SOL     OW77589   7.886   0.892  13.789
91917SOL    HW177590   7.883   0.987  13.799
91917SOL    HW277591   7.800   0.869  13.755
91918SOL     OW77592   7.080   4.502   0.365
91918SOL    HW177593   7.030   4.561   0.421
91918SOL    HW277594   7.165   4.494   0.408
91919SOL     OW77595  11.175   5.428   4.022
91919SOL    HW177596  11.236   5.498   4.000
91919SOL    HW277597  11.089   5.470   4.024
91920SOL     OW77598   8.542  14.659   9.370
91920SOL    HW177599   8.559  14.689   9.459
91920SOL    HW277600   8.448  14.643   9.367
91921SOL     OW77601  10.057  14.512   6.946
91921SOL    HW177602  10.030  14.543   6.860
91921SOL    HW277603  10.078  14.591   6.995
91922SOL     OW77604   0.255  14.565   0.348
91922SOL    HW177605   0.197  14.616   0.291
91922SOL    HW277606   0.339  14.566   0.302
91923SOL     OW77607   3.700  14.361   3.369
91923SOL    HW177608   3.641  14.424   3.411
91923SOL    HW277609   3.788  14.391   3.393
91924SOL     OW77610  10.972   4.391  13.223
91924SOL    HW177611  11.050   4.368  13.273
91924SOL    HW277612  10.958   4.484  13.241
91925SOL     OW77613   3.091   3.616  14.621
91925SOL    HW177614   3.167   3.570  14.657
91925SOL    HW277615   3.126   3.663  14.545
91926SOL     OW77616  11.370   1.177   1.836
91926SOL    HW177617  11.406   1.128   1.762
91926SOL    HW277618  11.373   1.116   1.910
91927SOL     OW77619  12.893  10.768  10.726
91927SOL    HW177620  12.956  10.727  10.785
91927SOL    HW277621  12.874  10.701  10.660
91928SOL     OW77622   2.825  12.514   1.886
91928SOL    HW177623   2.844  12.462   1.808
91928SOL    HW277624   2.877  12.473   1.955
91929SOL     OW77625   5.466   3.700   4.533
91929SOL    HW177626   5.438   3.696   4.625
91929SOL    HW277627   5.449   3.791   4.507
91930SOL     OW77628  14.136   9.181   4.964
91930SOL    HW177629  14.079   9.221   5.029
91930SOL    HW277630  14.184   9.254   4.926
91931SOL     OW77631   0.966   1.791  13.474
91931SOL    HW177632   0.953   1.807  13.380
91931SOL    HW277633   0.992   1.876  13.510
91932SOL     OW77634  11.261   8.295  10.749
91932SOL    HW177635  11.349   8.286  10.713
91932SOL    HW277636  11.244   8.210  10.791
91933SOL     OW77637   4.816  11.480  10.489
91933SOL    HW177638   4.816  11.575  10.480
91933SOL    HW277639   4.734  11.452  10.446
91934SOL     OW77640   8.888   0.829   8.912
91934SOL    HW177641   8.974   0.789   8.925
91934SOL    HW277642   8.838   0.805   8.990
91935SOL     OW77643   1.819   5.258  10.106
91935SOL    HW177644   1.820   5.163  10.118
91935SOL    HW277645   1.728   5.283  10.124
91936SOL     OW77646   6.727  12.245  14.556
91936SOL    HW177647   6.753  12.201  14.475
91936SOL    HW277648   6.706  12.334  14.531
91937SOL     OW77649   6.096   8.688   3.921
91937SOL    HW177650   6.093   8.651   4.009
91937SOL    HW277651   6.049   8.771   3.929
91938SOL     OW77652  11.723   3.042   8.449
91938SOL    HW177653  11.796   3.099   8.423
91938SOL    HW277654  11.664   3.099   8.498
91939SOL     OW77655  13.066   8.783   6.843
91939SOL    HW177656  13.019   8.831   6.775
91939SOL    HW277657  13.001   8.769   6.912
91940SOL     OW77658   2.825   2.015  11.577
91940SOL    HW177659   2.850   2.077  11.646
91940SOL    HW277660   2.772   2.066  11.517
91941SOL     OW77661   1.174  11.988   4.304
91941SOL    HW177662   1.195  12.071   4.346
91941SOL    HW277663   1.215  11.922   4.359
91942SOL     OW77664   4.537   9.217   1.923
91942SOL    HW177665   4.599   9.252   1.987
91942SOL    HW277666   4.569   9.248   1.839
91943SOL     OW77667   4.847   6.290  14.821
91943SOL    HW177668   4.833   6.336   0.030
91943SOL    HW277669   4.809   6.203  14.835
91944SOL     OW77670  13.394  12.549   9.058
91944SOL    HW177671  13.473  12.525   9.106
91944SOL    HW277672  13.424  12.570   8.970
91945SOL     OW77673  13.551   1.553   8.528
91945SOL    HW177674  13.506   1.513   8.454
91945SOL    HW277675  13.481   1.581   8.586
91946SOL     OW77676  12.033   9.893   2.973
91946SOL    HW177677  12.003   9.829   3.037
91946SOL    HW277678  12.129   9.887   2.977
91947SOL     OW77679  14.349  12.582   2.625
91947SOL    HW177680  14.391  12.497   2.612
91947SOL    HW277681  14.316  12.579   2.715
91948SOL     OW77682   2.298   1.459   6.938
91948SOL    HW177683   2.233   1.525   6.915
91948SOL    HW277684   2.249   1.395   6.990
91949SOL     OW77685   1.906   7.336   3.273
91949SOL    HW177686   1.885   7.256   3.321
91949SOL    HW277687   1.849   7.402   3.310
91950SOL     OW77688   2.177  12.359   4.094
91950SOL    HW177689   2.113  12.294   4.123
91950SOL    HW277690   2.146  12.386   4.008
91951SOL     OW77691   7.723   4.474  11.032
91951SOL    HW177692   7.721   4.388  10.990
91951SOL    HW277693   7.677   4.461  11.115
91952SOL     OW77694   5.225   1.748   7.422
91952SOL    HW177695   5.292   1.816   7.431
91952SOL    HW277696   5.153   1.778   7.478
91953SOL     OW77697  13.109   6.951  12.892
91953SOL    HW177698  13.124   6.920  12.803
91953SOL    HW277699  13.094   7.045  12.883
91954SOL     OW77700   8.113  13.725   3.453
91954SOL    HW177701   8.037  13.743   3.397
91954SOL    HW277702   8.172  13.675   3.397
91955SOL     OW77703   5.734  13.237   8.898
91955SOL    HW177704   5.683  13.313   8.868
91955SOL    HW277705   5.754  13.257   8.990
91956SOL     OW77706  13.442  12.714  12.589
91956SOL    HW177707  13.501  12.743  12.658
91956SOL    HW277708  13.395  12.640  12.628
91957SOL     OW77709   4.215   2.918   3.400
91957SOL    HW177710   4.276   2.902   3.328
91957SOL    HW277711   4.164   2.837   3.407
91958SOL     OW77712  11.842   0.153   1.584
91958SOL    HW177713  11.845   0.245   1.558
91958SOL    HW277714  11.877   0.152   1.673
91959SOL     OW77715   8.386   1.279   4.799
91959SOL    HW177716   8.423   1.191   4.795
91959SOL    HW277717   8.447   1.333   4.747
91960SOL     OW77718  10.840  13.165   4.374
91960SOL    HW177719  10.756  13.202   4.348
91960SOL    HW277720  10.822  13.073   4.391
91961SOL     OW77721   3.193   3.447   8.809
91961SOL    HW177722   3.194   3.477   8.900
91961SOL    HW277723   3.264   3.495   8.767
91962SOL     OW77724   7.712   7.655  13.711
91962SOL    HW177725   7.777   7.676  13.779
91962SOL    HW277726   7.761   7.605  13.646
91963SOL     OW77727  10.492  12.390  10.561
91963SOL    HW177728  10.547  12.324  10.519
91963SOL    HW277729  10.418  12.401  10.502
91964SOL     OW77730   4.608   3.065   9.632
91964SOL    HW177731   4.553   3.125   9.584
91964SOL    HW277732   4.552   2.989   9.651
91965SOL     OW77733   8.702   9.059  11.573
91965SOL    HW177734   8.691   8.971  11.608
91965SOL    HW277735   8.779   9.094  11.620
91966SOL     OW77736   2.633   3.141   3.583
91966SOL    HW177737   2.645   3.191   3.502
91966SOL    HW277738   2.634   3.050   3.554
91967SOL     OW77739   5.295   7.043  10.126
91967SOL    HW177740   5.339   7.009  10.204
91967SOL    HW277741   5.229   7.103  10.160
91968SOL     OW77742   1.797   8.112  12.288
91968SOL    HW177743   1.711   8.152  12.294
91968SOL    HW277744   1.828   8.108  12.378
91969SOL     OW77745   6.970   7.557   1.599
91969SOL    HW177746   6.929   7.491   1.654
91969SOL    HW277747   7.012   7.507   1.528
91970SOL     OW77748  10.835   2.828  14.037
91970SOL    HW177749  10.919   2.828  13.991
91970SOL    HW277750  10.797   2.914  14.019
91971SOL     OW77751   2.834   0.036  12.834
91971SOL    HW177752   2.791   0.121  12.838
91971SOL    HW277753   2.916   0.052  12.787
91972SOL     OW77754  13.766   3.048   6.335
91972SOL    HW177755  13.709   3.003   6.398
91972SOL    HW277756  13.852   3.048   6.377
91973SOL     OW77757   0.724   5.796   8.124
91973SOL    HW177758   0.818   5.812   8.129
91973SOL    HW277759   0.685   5.883   8.123
91974SOL     OW77760  11.368  11.824  10.979
91974SOL    HW177761  11.380  11.730  10.965
91974SOL    HW277762  11.390  11.838  11.071
91975SOL     OW77763   9.915   6.177   3.866
91975SOL    HW177764   9.843   6.173   3.930
91975SOL    HW277765   9.871   6.172   3.781
91976SOL     OW77766   1.441   5.186   4.459
91976SOL    HW177767   1.432   5.112   4.398
91976SOL    HW277768   1.370   5.173   4.523
91977SOL     OW77769   6.255   6.611   5.808
91977SOL    HW177770   6.244   6.534   5.753
91977SOL    HW277771   6.342   6.645   5.785
91978SOL     OW77772  10.668   3.295  11.937
91978SOL    HW177773  10.634   3.385  11.941
91978SOL    HW277774  10.718   3.293  11.856
91979SOL     OW77775  12.851   3.403   2.780
91979SOL    HW177776  12.883   3.353   2.705
91979SOL    HW277777  12.759   3.378   2.787
91980SOL     OW77778   2.073   2.023   2.768
91980SOL    HW177779   2.045   2.041   2.858
91980SOL    HW277780   2.168   2.035   2.771
91981SOL     OW77781   1.317  13.927   3.925
91981SOL    HW177782   1.394  13.929   3.868
91981SOL    HW277783   1.343  13.975   4.003
91982SOL     OW77784   1.446   3.169   4.120
91982SOL    HW177785   1.468   3.206   4.205
91982SOL    HW277786   1.477   3.234   4.057
91983SOL     OW77787   8.007   1.898   0.236
91983SOL    HW177788   8.090   1.881   0.191
91983SOL    HW277789   8.019   1.858   0.323
91984SOL     OW77790  11.627   5.320   7.694
91984SOL    HW177791  11.564   5.314   7.622
91984SOL    HW277792  11.590   5.387   7.752
91985SOL     OW77793   3.438   5.488   5.276
91985SOL    HW177794   3.510   5.474   5.338
91985SOL    HW277795   3.474   5.545   5.209
91986SOL     OW77796   2.024   5.336  10.266
91986SOL    HW177797   1.956   5.308  10.205
91986SOL    HW277798   2.035   5.261  10.325
91987SOL     OW77799   4.749  11.359   0.834
91987SOL    HW177800   4.724  11.412   0.759
91987SOL    HW277801   4.789  11.421   0.896
91988SOL     OW77802   4.790   9.035   6.120
91988SOL    HW177803   4.774   9.055   6.213
91988SOL    HW277804   4.812   8.941   6.120
91989SOL     OW77805   4.492   3.774   3.861
91989SOL    HW177806   4.548   3.704   3.895
91989SOL    HW277807   4.409   3.731   3.843
91990SOL     OW77808   7.906  11.869   5.481
91990SOL    HW177809   7.846  11.928   5.436
91990SOL    HW277810   7.887  11.881   5.574
91991SOL     OW77811  12.395   2.678   8.821
91991SOL    HW177812  12.433   2.625   8.751
91991SOL    HW277813  12.301   2.664   8.813
91992SOL     OW77814   5.195   2.544   8.731
91992SOL    HW177815   5.287   2.554   8.707
91992SOL    HW277816   5.156   2.629   8.713
91993SOL     OW77817   8.218  14.142  11.250
91993SOL    HW177818   8.213  14.052  11.282
91993SOL    HW277819   8.127  14.168  11.238
91994SOL     OW77820   9.142  10.687   8.705
91994SOL    HW177821   9.154  10.680   8.800
91994SOL    HW277822   9.049  10.668   8.691
91995SOL     OW77823   8.500   6.033   6.200
91995SOL    HW177824   8.422   5.992   6.237
91995SOL    HW277825   8.569   6.018   6.265
91996SOL     OW77826   9.517   0.887   3.083
91996SOL    HW177827   9.576   0.930   3.021
91996SOL    HW277828   9.447   0.850   3.028
91997SOL     OW77829  10.853   4.224   8.780
91997SOL    HW177830  10.895   4.157   8.834
91997SOL    HW277831  10.924   4.256   8.724
91998SOL     OW77832  10.368   8.861   5.967
91998SOL    HW177833  10.432   8.929   5.988
91998SOL    HW277834  10.340   8.881   5.878
91999SOL     OW77835   6.162   5.533   9.333
91999SOL    HW177836   6.119   5.474   9.394
91999SOL    HW277837   6.109   5.613   9.336
92000SOL     OW77838   8.918  11.772   3.903
92000SOL    HW177839   8.976  11.847   3.892
92000SOL    HW277840   8.912  11.733   3.815
92001SOL     OW77841  10.822  12.494   0.373
92001SOL    HW177842  10.832  12.585   0.399
92001SOL    HW277843  10.732  12.487   0.342
92002SOL     OW77844   0.361  14.058  13.677
92002SOL    HW177845   0.378  13.965  13.666
92002SOL    HW277846   0.445  14.095  13.706
92003SOL     OW77847   5.202   4.693   2.645
92003SOL    HW177848   5.107   4.685   2.654
92003SOL    HW277849   5.238   4.631   2.708
92004SOL     OW77850   2.015   0.206  10.367
92004SOL    HW177851   1.960   0.147  10.418
92004SOL    HW277852   2.084   0.233  10.428
92005SOL     OW77853  10.670  10.732   6.449
92005SOL    HW177854  10.622  10.783   6.383
92005SOL    HW277855  10.652  10.777   6.531
92006SOL     OW77856   1.856   9.598  10.239
92006SOL    HW177857   1.949   9.619  10.251
92006SOL    HW277858   1.811   9.648  10.307
92007SOL     OW77859   4.161  12.022   9.719
92007SOL    HW177860   4.173  12.116   9.709
92007SOL    HW277861   4.120  11.993   9.638
92008SOL     OW77862   7.446  13.693   6.929
92008SOL    HW177863   7.397  13.611   6.926
92008SOL    HW277864   7.536  13.668   6.905
92009SOL     OW77865   5.531  12.938   9.778
92009SOL    HW177866   5.469  12.983   9.720
92009SOL    HW277867   5.598  12.904   9.719
92010SOL     OW77868   3.758   3.006   4.906
92010SOL    HW177869   3.703   2.978   4.979
92010SOL    HW277870   3.833   2.947   4.909
92011SOL     OW77871   5.241   9.275   1.632
92011SOL    HW177872   5.291   9.356   1.647
92011SOL    HW277873   5.215   9.247   1.720
92012SOL     OW77874   0.144   0.987   1.635
92012SOL    HW177875   0.057   0.983   1.675
92012SOL    HW277876   0.134   1.048   1.562
92013SOL     OW77877   4.954   6.153  14.430
92013SOL    HW177878   5.006   6.101  14.367
92013SOL    HW277879   4.890   6.091  14.464
92014SOL     OW77880   8.211   2.781   8.307
92014SOL    HW177881   8.172   2.788   8.220
92014SOL    HW277882   8.301   2.812   8.295
92015SOL     OW77883   3.873   0.413  12.126
92015SOL    HW177884   3.956   0.395  12.170
92015SOL    HW277885   3.895   0.414  12.033
92016SOL     OW77886   5.220   3.793  10.641
92016SOL    HW177887   5.160   3.845  10.587
92016SOL    HW277888   5.219   3.837  10.727
92017SOL     OW77889   9.329  11.700   6.896
92017SOL    HW177890   9.281  11.655   6.826
92017SOL    HW277891   9.288  11.669   6.977
92018SOL     OW77892   0.225   0.128   5.307
92018SOL    HW177893   0.300   0.132   5.366
92018SOL    HW277894   0.151   0.107   5.363
92019SOL     OW77895  14.777  14.673   7.981
92019SOL    HW177896  14.835  14.740   7.944
92019SOL    HW277897  14.762  14.702   8.071
92020SOL     OW77898   4.319  13.596  12.816
92020SOL    HW177899   4.384  13.555  12.759
92020SOL    HW277900   4.365  13.612  12.899
92021SOL     OW77901   1.159  11.621   5.233
92021SOL    HW177902   1.235  11.668   5.199
92021SOL    HW277903   1.100  11.614   5.158
92022SOL     OW77904  11.692   1.808   4.062
92022SOL    HW177905  11.665   1.899   4.068
92022SOL    HW277906  11.788   1.811   4.056
92023SOL     OW77907   6.385   5.117   5.259
92023SOL    HW177908   6.297   5.090   5.284
92023SOL    HW277909   6.372   5.182   5.190
92024SOL     OW77910   5.883  14.265  13.503
92024SOL    HW177911   5.975  14.287  13.518
92024SOL    HW277912   5.883  14.214  13.422
92025SOL     OW77913   9.435   7.079   5.293
92025SOL    HW177914   9.410   7.085   5.201
92025SOL    HW277915   9.364   7.029   5.334
92026SOL     OW77916   2.968  13.139  10.733
92026SOL    HW177917   2.877  13.147  10.704
92026SOL    HW277918   3.020  13.159  10.655
92027SOL     OW77919   4.815  10.103   5.474
92027SOL    HW177920   4.809  10.074   5.383
92027SOL    HW277921   4.748  10.051   5.519
92028SOL     OW77922  10.780  14.775  12.376
92028SOL    HW177923  10.703  14.815  12.418
92028SOL    HW277924  10.834  14.850  12.349
92029SOL     OW77925   9.233   8.395   5.061
92029SOL    HW177926   9.234   8.474   5.115
92029SOL    HW277927   9.144   8.360   5.073
92030SOL     OW77928   0.132   7.730   6.657
92030SOL    HW177929   0.097   7.794   6.595
92030SOL    HW277930   0.058   7.706   6.712
92031SOL     OW77931  11.785   5.902  12.600
92031SOL    HW177932  11.793   5.830  12.663
92031SOL    HW277933  11.850   5.882  12.533
92032SOL     OW77934  10.604   8.594  10.815
92032SOL    HW177935  10.698   8.576  10.808
92032SOL    HW277936  10.571   8.581  10.726
92033SOL     OW77937   9.585  10.857   2.860
92033SOL    HW177938   9.651  10.805   2.906
92033SOL    HW277939   9.504  10.806   2.871
92034SOL     OW77940   3.593   6.181   0.752
92034SOL    HW177941   3.558   6.269   0.742
92034SOL    HW277942   3.633   6.180   0.838
92035SOL     OW77943   1.242   3.720   8.981
92035SOL    HW177944   1.205   3.672   8.907
92035SOL    HW277945   1.248   3.810   8.950
92036SOL     OW77946   3.023   6.218  10.637
92036SOL    HW177947   3.067   6.262  10.709
92036SOL    HW277948   2.932   6.249  10.641
92037SOL     OW77949   4.021  14.265  13.822
92037SOL    HW177950   4.029  14.169  13.819
92037SOL    HW277951   3.993  14.285  13.911
92038SOL     OW77952   7.616  10.749   0.041
92038SOL    HW177953   7.668  10.669   0.043
92038SOL    HW277954   7.629  10.784  14.826
92039SOL     OW77955  12.273   3.842  13.536
92039SOL    HW177956  12.346   3.871  13.591
92039SOL    HW277957  12.300   3.863  13.447
92040SOL     OW77958   5.561   6.172   6.574
92040SOL    HW177959   5.539   6.125   6.493
92040SOL    HW277960   5.478   6.176   6.622
92041SOL     OW77961   1.225   8.603   2.573
92041SOL    HW177962   1.282   8.679   2.567
92041SOL    HW277963   1.158   8.618   2.506
92042SOL     OW77964   8.486   2.316   2.911
92042SOL    HW177965   8.548   2.388   2.903
92042SOL    HW277966   8.536   2.238   2.885
92043SOL     OW77967   4.386   7.447  10.814
92043SOL    HW177968   4.434   7.505  10.755
92043SOL    HW277969   4.381   7.496  10.896
92044SOL     OW77970   0.764   3.303   7.960
92044SOL    HW177971   0.754   3.224   7.907
92044SOL    HW277972   0.818   3.276   8.034
92045SOL     OW77973   8.172   2.231   2.013
92045SOL    HW177974   8.221   2.258   2.091
92045SOL    HW277975   8.192   2.138   2.003
92046SOL     OW77976   1.969   7.038   4.618
92046SOL    HW177977   1.986   6.960   4.670
92046SOL    HW277978   1.986   7.011   4.528
92047SOL     OW77979   7.617  10.107   2.282
92047SOL    HW177980   7.578  10.039   2.227
92047SOL    HW277981   7.621  10.184   2.226
92048SOL     OW77982   7.475  10.405  14.583
92048SOL    HW177983   7.455  10.395  14.676
92048SOL    HW277984   7.460  10.499  14.566
92049SOL     OW77985   2.412   6.652   9.756
92049SOL    HW177986   2.325   6.631   9.789
92049SOL    HW277987   2.440   6.573   9.711
92050SOL     OW77988   2.082   1.986   6.738
92050SOL    HW177989   2.061   2.077   6.759
92050SOL    HW277990   2.043   1.936   6.809
92051SOL     OW77991  12.705  14.092  14.674
92051SOL    HW177992  12.708  14.041  14.755
92051SOL    HW277993  12.646  14.165  14.693
92052SOL     OW77994   4.711  11.156   8.521
92052SOL    HW177995   4.664  11.239   8.532
92052SOL    HW277996   4.798  11.171   8.558
92053SOL     OW77997  12.958   6.735  13.286
92053SOL    HW177998  12.940   6.705  13.375
92053SOL    HW277999  12.873   6.732  13.242
92054SOL     OW78000   1.524   0.063  14.243
92054SOL    HW178001   1.600   0.004  14.241
92054SOL    HW278002   1.551   0.134  14.301
92055SOL     OW78003   6.034   8.824   5.194
92055SOL    HW178004   6.111   8.860   5.151
92055SOL    HW278005   5.991   8.900   5.233
92056SOL     OW78006   7.614   9.287  13.552
92056SOL    HW178007   7.520   9.294  13.569
92056SOL    HW278008   7.653   9.355  13.608
92057SOL     OW78009  12.132   3.108  12.509
92057SOL    HW178010  12.079   3.173  12.555
92057SOL    HW278011  12.069   3.058  12.456
92058SOL     OW78012   5.953   3.676  14.065
92058SOL    HW178013   5.909   3.594  14.085
92058SOL    HW278014   5.884   3.735  14.035
92059SOL     OW78015   9.635  11.079   4.663
92059SOL    HW178016   9.626  11.157   4.608
92059SOL    HW278017   9.566  11.088   4.728
92060SOL     OW78018   2.262  13.980   8.312
92060SOL    HW178019   2.233  13.897   8.272
92060SOL    HW278020   2.193  14.002   8.374
92061SOL     OW78021   0.154   9.432   7.663
92061SOL    HW178022   0.167   9.516   7.707
92061SOL    HW278023   0.155   9.454   7.570
92062SOL     OW78024   8.506   4.551  14.337
92062SOL    HW178025   8.527   4.512  14.252
92062SOL    HW278026   8.584   4.534  14.391
92063SOL     OW78027   5.941   3.233   6.759
92063SOL    HW178028   5.881   3.159   6.774
92063SOL    HW278029   5.918   3.296   6.827
92064SOL     OW78030  10.904   2.430   8.297
92064SOL    HW178031  10.898   2.382   8.215
92064SOL    HW278032  10.814   2.456   8.316
92065SOL     OW78033   2.356  13.891  13.818
92065SOL    HW178034   2.427  13.845  13.772
92065SOL    HW278035   2.276  13.856  13.779
92066SOL     OW78036   5.298   9.652   8.782
92066SOL    HW178037   5.206   9.679   8.779
92066SOL    HW278038   5.342   9.709   8.719
92067SOL     OW78039  12.733  10.981   0.009
92067SOL    HW178040  12.764  10.951   0.094
92067SOL    HW278041  12.770  11.069  14.871
92068SOL     OW78042  10.481   7.065   4.847
92068SOL    HW178043  10.576   7.067   4.859
92068SOL    HW278044  10.465   6.994   4.785
92069SOL     OW78045  11.134   0.239   8.953
92069SOL    HW178046  11.132   0.163   8.896
92069SOL    HW278047  11.147   0.203   9.041
92070SOL     OW78048   6.738   0.817   2.114
92070SOL    HW178049   6.760   0.787   2.026
92070SOL    HW278050   6.642   0.819   2.116
92071SOL     OW78051   2.714   5.856  11.642
92071SOL    HW178052   2.742   5.765  11.655
92071SOL    HW278053   2.753   5.882  11.559
92072SOL     OW78054  14.439   6.622   4.207
92072SOL    HW178055  14.505   6.655   4.268
92072SOL    HW278056  14.451   6.675   4.128
92073SOL     OW78057  11.325  13.616  12.000
92073SOL    HW178058  11.307  13.545  11.938
92073SOL    HW278059  11.385  13.577  12.064
92074SOL     OW78060   5.511   8.298   8.198
92074SOL    HW178061   5.436   8.258   8.243
92074SOL    HW278062   5.536   8.372   8.253
92075SOL     OW78063  11.040   5.518  14.017
92075SOL    HW178064  11.123   5.562  13.998
92075SOL    HW278065  11.060   5.425  14.005
92076SOL     OW78066   6.251   5.115   2.272
92076SOL    HW178067   6.322   5.060   2.306
92076SOL    HW278068   6.249   5.095   2.178
92077SOL     OW78069  14.509  12.693   5.651
92077SOL    HW178070  14.601  12.668   5.639
92077SOL    HW278071  14.461  12.610   5.646
92078SOL     OW78072   2.839   9.574  11.353
92078SOL    HW178073   2.749   9.545  11.341
92078SOL    HW278074   2.833   9.665  11.380
92079SOL     OW78075   4.982   7.507  14.479
92079SOL    HW178076   4.975   7.529  14.386
92079SOL    HW278077   4.940   7.580  14.525
92080SOL     OW78078   3.238   4.277   1.556
92080SOL    HW178079   3.159   4.225   1.570
92080SOL    HW278080   3.298   4.249   1.625
92081SOL     OW78081   3.336  12.620  13.147
92081SOL    HW178082   3.415  12.654  13.105
92081SOL    HW278083   3.284  12.584  13.075
92082SOL     OW78084  10.134   4.062  10.612
92082SOL    HW178085  10.039   4.069  10.618
92082SOL    HW278086  10.160   4.134  10.555
92083SOL     OW78087   4.190  11.555   4.965
92083SOL    HW178088   4.132  11.596   4.900
92083SOL    HW278089   4.136  11.487   5.006
92084SOL     OW78090   1.220  14.858  10.376
92084SOL    HW178091   1.145   0.021  10.328
92084SOL    HW278092   1.204   0.010  10.467
92085SOL     OW78093   5.030   6.836  10.164
92085SOL    HW178094   4.940   6.805  10.171
92085SOL    HW278095   5.055   6.814  10.074
92086SOL     OW78096   2.733  12.785  14.163
92086SOL    HW178097   2.821  12.782  14.125
92086SOL    HW278098   2.727  12.872  14.203
92087SOL     OW78099  12.883   0.965   4.028
92087SOL    HW178100  12.949   1.011   4.080
92087SOL    HW278101  12.916   0.969   3.939
92088SOL     OW78102   8.130  13.097   4.293
92088SOL    HW178103   8.059  13.049   4.335
92088SOL    HW278104   8.160  13.159   4.359
92089SOL     OW78105   4.121  11.765   3.965
92089SOL    HW178106   4.157  11.806   3.886
92089SOL    HW278107   4.198  11.740   4.016
92090SOL     OW78108   1.268  10.992   7.006
92090SOL    HW178109   1.211  11.053   7.054
92090SOL    HW278110   1.226  10.980   6.922
92091SOL     OW78111  10.501  13.451  10.588
92091SOL    HW178112  10.591  13.431  10.614
92091SOL    HW278113  10.450  13.444  10.668
92092SOL     OW78114   9.562   3.482  14.183
92092SOL    HW178115   9.527   3.563  14.220
92092SOL    HW278116   9.489   3.446  14.132
92093SOL     OW78117   4.149  13.874  11.307
92093SOL    HW178118   4.106  13.819  11.242
92093SOL    HW278119   4.171  13.814  11.378
92094SOL     OW78120   3.290   0.026   9.228
92094SOL    HW178121   3.329   0.022   9.141
92094SOL    HW278122   3.321  14.820   9.272
92095SOL     OW78123  10.838   0.609   1.900
92095SOL    HW178124  10.838   0.679   1.834
92095SOL    HW278125  10.902   0.638   1.965
92096SOL     OW78126   2.888   5.442  10.302
92096SOL    HW178127   2.815   5.382  10.294
92096SOL    HW278128   2.966   5.388  10.288
92097SOL     OW78129  11.523   9.457   1.558
92097SOL    HW178130  11.600   9.436   1.505
92097SOL    HW278131  11.473   9.375   1.562
92098SOL     OW78132   6.170  10.951   3.637
92098SOL    HW178133   6.233  10.948   3.565
92098SOL    HW278134   6.200  10.883   3.698
92099SOL     OW78135   2.255  11.984  13.970
92099SOL    HW178136   2.345  11.984  14.002
92099SOL    HW278137   2.263  11.995  13.875
92100SOL     OW78138   2.636   1.859  10.010
92100SOL    HW178139   2.727   1.888  10.016
92100SOL    HW278140   2.640   1.765  10.024
92101SOL     OW78141   8.822  14.666   2.400
92101SOL    HW178142   8.747  14.639   2.453
92101SOL    HW278143   8.865  14.584   2.376
92102SOL     OW78144  14.224  11.009  13.169
92102SOL    HW178145  14.188  11.096  13.182
92102SOL    HW278146  14.226  10.971  13.257
92103SOL     OW78147  14.535   4.235   6.747
92103SOL    HW178148  14.558   4.322   6.779
92103SOL    HW278149  14.612   4.181   6.767
92104SOL     OW78150   7.897   0.936   9.913
92104SOL    HW178151   7.961   1.006   9.924
92104SOL    HW278152   7.928   0.865   9.970
92105SOL     OW78153   3.856  12.932  13.777
92105SOL    HW178154   3.884  12.933  13.868
92105SOL    HW278155   3.782  12.992  13.773
92106SOL     OW78156  14.333   8.268   4.495
92106SOL    HW178157  14.281   8.288   4.417
92106SOL    HW278158  14.423   8.266   4.463
92107SOL     OW78159   1.241   1.483  12.034
92107SOL    HW178160   1.281   1.507  11.951
92107SOL    HW278161   1.314   1.478  12.096
92108SOL     OW78162   7.418   5.644   3.328
92108SOL    HW178163   7.360   5.663   3.254
92108SOL    HW278164   7.361   5.599   3.391
92109SOL     OW78165  13.699   2.382   2.643
92109SOL    HW178166  13.666   2.456   2.693
92109SOL    HW278167  13.788   2.368   2.676
92110SOL     OW78168   0.331   8.979   2.693
92110SOL    HW178169   0.256   8.986   2.752
92110SOL    HW278170   0.364   8.890   2.708
92111SOL     OW78171   6.681  13.047   2.110
92111SOL    HW178172   6.706  12.955   2.117
92111SOL    HW278173   6.714  13.087   2.191
92112SOL     OW78174  10.319   7.863   2.006
92112SOL    HW178175  10.384   7.833   1.943
92112SOL    HW278176  10.276   7.937   1.963
92113SOL     OW78177  12.310  12.289  10.940
92113SOL    HW178178  12.358  12.211  10.911
92113SOL    HW278179  12.305  12.345  10.862
92114SOL     OW78180  12.706  14.189   3.872
92114SOL    HW178181  12.801  14.186   3.873
92114SOL    HW278182  12.684  14.261   3.931
92115SOL     OW78183   3.942   2.787  10.842
92115SOL    HW178184   3.997   2.731  10.787
92115SOL    HW278185   3.873   2.818  10.783
92116SOL     OW78186   0.195   6.227   8.474
92116SOL    HW178187   0.165   6.184   8.394
92116SOL    HW278188   0.287   6.247   8.457
92117SOL     OW78189   0.919  10.340  10.638
92117SOL    HW178190   0.997  10.374  10.682
92117SOL    HW278191   0.849  10.354  10.701
92118SOL     OW78192   9.992  12.929  14.842
92118SOL    HW178193  10.063  12.950  14.781
92118SOL    HW278194   9.958  12.846  14.810
92119SOL     OW78195  12.841   0.129   0.346
92119SOL    HW178196  12.907   0.198   0.359
92119SOL    HW278197  12.775   0.170   0.289
92120SOL     OW78198   6.217   0.070   8.578
92120SOL    HW178199   6.286   0.063   8.645
92120SOL    HW278200   6.243   0.007   8.510
92121SOL     OW78201   1.175   7.569   2.739
92121SOL    HW178202   1.244   7.632   2.756
92121SOL    HW278203   1.180   7.552   2.644
92122SOL     OW78204  14.468  10.536  12.840
92122SOL    HW178205  14.460  10.628  12.865
92122SOL    HW278206  14.394  10.493  12.882
92123SOL     OW78207   1.129  13.473   1.060
92123SOL    HW178208   1.147  13.395   1.113
92123SOL    HW278209   1.103  13.438   0.975
92124SOL     OW78210   0.879  12.933   2.685
92124SOL    HW178211   0.895  13.025   2.665
92124SOL    HW278212   0.789  12.931   2.718
92125SOL     OW78213   7.639   2.720   6.498
92125SOL    HW178214   7.679   2.800   6.464
92125SOL    HW278215   7.707   2.683   6.555
92126SOL     OW78216   7.966   7.771   7.084
92126SOL    HW178217   7.939   7.707   7.150
92126SOL    HW278218   7.885   7.819   7.063
92127SOL     OW78219  11.157  14.443  14.196
92127SOL    HW178220  11.148  14.400  14.281
92127SOL    HW278221  11.150  14.536  14.215
92128SOL     OW78222   2.310  10.963   0.456
92128SOL    HW178223   2.350  11.049   0.447
92128SOL    HW278224   2.299  10.952   0.551
92129SOL     OW78225   8.463  12.662   5.173
92129SOL    HW178226   8.448  12.680   5.080
92129SOL    HW278227   8.413  12.582   5.190
92130SOL     OW78228   7.597   9.393   1.235
92130SOL    HW178229   7.640   9.470   1.201
92130SOL    HW278230   7.618   9.392   1.328
92131SOL     OW78231  10.806   5.531   9.156
92131SOL    HW178232  10.835   5.529   9.247
92131SOL    HW278233  10.782   5.440   9.136
92132SOL     OW78234   7.184   3.278   3.206
92132SOL    HW178235   7.135   3.195   3.207
92132SOL    HW278236   7.270   3.254   3.173
92133SOL     OW78237   7.799  14.279   2.242
92133SOL    HW178238   7.786  14.368   2.208
92133SOL    HW278239   7.781  14.286   2.335
92134SOL     OW78240  10.482   2.343   6.900
92134SOL    HW178241  10.391   2.317   6.917
92134SOL    HW278242  10.507   2.292   6.824
92135SOL     OW78243  13.415   2.045  13.614
92135SOL    HW178244  13.369   2.036  13.698
92135SOL    HW278245  13.349   2.024  13.548
92136SOL     OW78246   6.157   8.961  10.642
92136SOL    HW178247   6.244   8.974  10.681
92136SOL    HW278248   6.159   8.871  10.609
92137SOL     OW78249   4.901   8.590   6.484
92137SOL    HW178250   4.848   8.617   6.559
92137SOL    HW278251   4.979   8.552   6.523
92138SOL     OW78252   2.399   1.839   5.252
92138SOL    HW178253   2.444   1.813   5.171
92138SOL    HW278254   2.352   1.760   5.280
92139SOL     OW78255   7.625   3.617  14.366
92139SOL    HW178256   7.567   3.575  14.303
92139SOL    HW278257   7.607   3.710  14.358
92140SOL     OW78258   1.896   2.984  11.735
92140SOL    HW178259   1.814   3.030  11.717
92140SOL    HW278260   1.883   2.945  11.821
92141SOL     OW78261   0.082   9.318   0.869
92141SOL    HW178262   0.114   9.407   0.881
92141SOL    HW278263  14.865   9.321   0.900
92142SOL     OW78264   9.955  12.978   4.035
92142SOL    HW178265   9.999  13.015   3.958
92142SOL    HW278266  10.002  12.896   4.052
92143SOL     OW78267  14.773   3.840  10.607
92143SOL    HW178268  14.727   3.886  10.677
92143SOL    HW278269  14.741   3.750  10.612
92144SOL     OW78270  14.653  12.180   3.729
92144SOL    HW178271  14.725  12.167   3.667
92144SOL    HW278272  14.589  12.113   3.705
92145SOL     OW78273  13.606   9.125   3.611
92145SOL    HW178274  13.695   9.152   3.589
92145SOL    HW278275  13.583   9.177   3.688
92146SOL     OW78276   0.679   1.652  10.991
92146SOL    HW178277   0.648   1.697  11.071
92146SOL    HW278278   0.628   1.571  10.988
92147SOL     OW78279  12.825   1.585   9.969
92147SOL    HW178280  12.850   1.677   9.977
92147SOL    HW278281  12.825   1.552  10.059
92148SOL     OW78282   3.928  13.532   9.948
92148SOL    HW178283   3.993  13.470   9.981
92148SOL    HW278284   3.919  13.510   9.855
92149SOL     OW78285  13.260  13.552   3.983
92149SOL    HW178286  13.349  13.557   3.948
92149SOL    HW278287  13.272  13.523   4.074
92150SOL     OW78288   5.806   8.313   0.013
92150SOL    HW178289   5.795   8.226   0.050
92150SOL    HW278290   5.900   8.329   0.016
92151SOL     OW78291  14.226   9.882   5.222
92151SOL    HW178292  14.241   9.970   5.257
92151SOL    HW278293  14.138   9.859   5.252
92152SOL     OW78294   5.820   9.531   6.590
92152SOL    HW178295   5.746   9.497   6.640
92152SOL    HW278296   5.880   9.457   6.584
92153SOL     OW78297  14.191   0.667   9.117
92153SOL    HW178298  14.101   0.687   9.092
92153SOL    HW278299  14.241   0.679   9.036
92154SOL     OW78300  14.290   4.461   3.554
92154SOL    HW178301  14.254   4.402   3.488
92154SOL    HW278302  14.248   4.435   3.635
92155SOL     OW78303   3.844   4.704   6.633
92155SOL    HW178304   3.824   4.612   6.615
92155SOL    HW278305   3.922   4.702   6.687
92156SOL     OW78306   7.402   3.029   6.543
92156SOL    HW178307   7.311   3.038   6.517
92156SOL    HW278308   7.414   2.935   6.559
92157SOL     OW78309  11.639   8.585   4.052
92157SOL    HW178310  11.587   8.642   4.110
92157SOL    HW278311  11.594   8.589   3.968
92158SOL     OW78312  13.775   5.759   7.278
92158SOL    HW178313  13.780   5.819   7.353
92158SOL    HW278314  13.681   5.756   7.256
92159SOL     OW78315  10.273  10.989   5.203
92159SOL    HW178316  10.200  10.991   5.141
92159SOL    HW278317  10.279  11.078   5.236
92160SOL     OW78318  11.402   6.180   9.226
92160SOL    HW178319  11.478   6.130   9.256
92160SOL    HW278320  11.380   6.236   9.300
92161SOL     OW78321   9.380   2.139  14.300
92161SOL    HW178322   9.391   2.086  14.221
92161SOL    HW278323   9.286   2.150  14.310
92162SOL     OW78324   6.487   1.004   0.930
92162SOL    HW178325   6.541   1.053   0.867
92162SOL    HW278326   6.441   1.071   0.980
92163SOL     OW78327   2.852  13.308   5.797
92163SOL    HW178328   2.831  13.356   5.717
92163SOL    HW278329   2.933  13.261   5.777
92164SOL     OW78330  12.668  12.010   5.512
92164SOL    HW178331  12.648  11.973   5.598
92164SOL    HW278332  12.670  12.105   5.527
92165SOL     OW78333  14.149   1.240  13.265
92165SOL    HW178334  14.201   1.252  13.344
92165SOL    HW278335  14.186   1.303  13.202
92166SOL     OW78336  12.970   9.361   8.047
92166SOL    HW178337  12.891   9.363   8.101
92166SOL    HW278338  12.991   9.454   8.033
92167SOL     OW78339   3.624   7.153   7.879
92167SOL    HW178340   3.702   7.193   7.916
92167SOL    HW278341   3.589   7.218   7.818
92168SOL     OW78342   9.215   7.520   0.338
92168SOL    HW178343   9.237   7.489   0.426
92168SOL    HW278344   9.240   7.613   0.338
92169SOL     OW78345   5.155   7.103   6.802
92169SOL    HW178346   5.122   7.105   6.712
92169SOL    HW278347   5.242   7.142   6.796
92170SOL     OW78348   7.668   6.050   3.592
92170SOL    HW178349   7.628   5.975   3.636
92170SOL    HW278350   7.680   6.114   3.662
92171SOL     OW78351  10.132  10.344   7.106
92171SOL    HW178352  10.119  10.378   7.195
92171SOL    HW278353  10.227  10.332   7.099
92172SOL     OW78354   3.102  10.589   6.993
92172SOL    HW178355   3.034  10.525   6.973
92172SOL    HW278356   3.057  10.658   7.043
92173SOL     OW78357   9.031   5.525   4.350
92173SOL    HW178358   8.995   5.507   4.263
92173SOL    HW278359   9.051   5.438   4.386
92174SOL     OW78360   2.276  10.723   1.829
92174SOL    HW178361   2.331  10.789   1.871
92174SOL    HW278362   2.253  10.761   1.744
92175SOL     OW78363   6.601   6.049   8.071
92175SOL    HW178364   6.678   6.028   8.017
92175SOL    HW278365   6.581   6.140   8.048
92176SOL     OW78366  10.132   1.567   9.061
92176SOL    HW178367  10.174   1.537   9.142
92176SOL    HW278368  10.129   1.662   9.069
92177SOL     OW78369  11.773   4.822   6.978
92177SOL    HW178370  11.753   4.910   7.008
92177SOL    HW278371  11.836   4.788   7.043
92178SOL     OW78372   2.500   8.868   1.064
92178SOL    HW178373   2.510   8.917   0.982
92178SOL    HW278374   2.449   8.926   1.120
92179SOL     OW78375  10.345   8.130  11.538
92179SOL    HW178376  10.387   8.202  11.490
92179SOL    HW278377  10.398   8.119  11.616
92180SOL     OW78378  14.615   3.884  11.128
92180SOL    HW178379  14.540   3.829  11.104
92180SOL    HW278380  14.602   3.903  11.221
92181SOL     OW78381   8.001  10.712  11.907
92181SOL    HW178382   8.072  10.664  11.950
92181SOL    HW278383   7.922  10.688  11.956
92182SOL     OW78384   2.937   4.810   2.406
92182SOL    HW178385   2.921   4.801   2.312
92182SOL    HW278386   2.955   4.904   2.418
92183SOL     OW78387  13.443   4.713  11.444
92183SOL    HW178388  13.371   4.652  11.435
92183SOL    HW278389  13.489   4.710  11.360
92184SOL     OW78390   4.752   8.090  10.348
92184SOL    HW178391   4.656   8.091  10.338
92184SOL    HW278392   4.767   8.130  10.433
92185SOL     OW78393   3.092  10.193   1.723
92185SOL    HW178394   3.181  10.219   1.749
92185SOL    HW278395   3.035  10.252   1.772
92186SOL     OW78396   5.885  12.413   6.270
92186SOL    HW178397   5.849  12.448   6.352
92186SOL    HW278398   5.860  12.478   6.204
92187SOL     OW78399   2.982  10.463   7.547
92187SOL    HW178400   2.964  10.472   7.640
92187SOL    HW278401   3.077  10.449   7.541
92188SOL     OW78402  12.019   2.823   4.204
92188SOL    HW178403  12.035   2.893   4.268
92188SOL    HW278404  12.036   2.863   4.119
92189SOL     OW78405  12.494   2.339  12.448
92189SOL    HW178406  12.471   2.390  12.371
92189SOL    HW278407  12.551   2.270  12.415
92190SOL     OW78408   8.522   3.055   9.743
92190SOL    HW178409   8.500   2.961   9.742
92190SOL    HW278410   8.445   3.097   9.781
92191SOL     OW78411  12.555  13.074   3.665
92191SOL    HW178412  12.525  13.155   3.624
92191SOL    HW278413  12.644  13.061   3.631
92192SOL     OW78414   2.194   4.145  13.937
92192SOL    HW178415   2.267   4.111  13.884
92192SOL    HW278416   2.144   4.067  13.961
92193SOL     OW78417   7.996  12.225   0.040
92193SOL    HW178418   7.957  12.295  14.861
92193SOL    HW278419   7.967  12.144  14.871
92194SOL     OW78420   4.408   2.145   9.379
92194SOL    HW178421   4.499   2.173   9.376
92194SOL    HW278422   4.371   2.173   9.296
92195SOL     OW78423  13.993  11.091   0.114
92195SOL    HW178424  14.057  11.034   0.073
92195SOL    HW278425  14.014  11.088   0.208
92196SOL     OW78426  13.136  14.579  13.618
92196SOL    HW178427  13.225  14.610  13.633
92196SOL    HW278428  13.147  14.497  13.570
92197SOL     OW78429  12.452   0.203   4.588
92197SOL    HW178430  12.479   0.275   4.531
92197SOL    HW278431  12.381   0.240   4.641
92198SOL     OW78432  10.447   7.925   3.196
92198SOL    HW178433  10.364   7.970   3.211
92198SOL    HW278434  10.465   7.939   3.103
92199SOL     OW78435   5.174  14.082   4.977
92199SOL    HW178436   5.256  14.122   4.947
92199SOL    HW278437   5.111  14.154   4.978
92200SOL     OW78438   0.508   6.184   2.121
92200SOL    HW178439   0.573   6.248   2.089
92200SOL    HW278440   0.436   6.189   2.057
92201SOL     OW78441   1.130  10.571  12.380
92201SOL    HW178442   1.140  10.477  12.361
92201SOL    HW278443   1.192  10.614  12.320
92202SOL     OW78444   6.835   5.891   3.457
92202SOL    HW178445   6.764   5.955   3.456
92202SOL    HW278446   6.901   5.928   3.515
92203SOL     OW78447   1.093   9.505   0.039
92203SOL    HW178448   1.082   9.598   0.019
92203SOL    HW278449   1.057   9.496   0.127
92204SOL     OW78450  13.290  12.329  11.281
92204SOL    HW178451  13.296  12.235  11.264
92204SOL    HW278452  13.357  12.368  11.225
92205SOL     OW78453   1.625   1.759   9.037
92205SOL    HW178454   1.608   1.848   9.007
92205SOL    HW278455   1.556   1.742   9.102
92206SOL     OW78456   4.974  12.773   3.940
92206SOL    HW178457   4.971  12.771   3.845
92206SOL    HW278458   4.911  12.705   3.967
92207SOL     OW78459  14.699   4.014   9.688
92207SOL    HW178460  14.625   4.014   9.749
92207SOL    HW278461  14.738   3.928   9.696
92208SOL     OW78462   9.508   4.411   7.773
92208SOL    HW178463   9.522   4.326   7.730
92208SOL    HW278464   9.590   4.427   7.820
92209SOL     OW78465   6.708   2.503   4.703
92209SOL    HW178466   6.650   2.456   4.643
92209SOL    HW278467   6.658   2.511   4.784
92210SOL     OW78468  14.271  12.357   3.713
92210SOL    HW178469  14.321  12.390   3.787
92210SOL    HW278470  14.334  12.352   3.641
92211SOL     OW78471  13.259   1.938   2.924
92211SOL    HW178472  13.286   1.950   3.015
92211SOL    HW278473  13.307   2.004   2.875
92212SOL     OW78474   5.088   8.324   7.467
92212SOL    HW178475   5.087   8.412   7.504
92212SOL    HW278476   5.114   8.336   7.376
92213SOL     OW78477  10.099   1.165   2.347
92213SOL    HW178478  10.048   1.163   2.266
92213SOL    HW278479  10.107   1.073   2.373
92214SOL     OW78480   4.198  11.975  10.859
92214SOL    HW178481   4.191  12.070  10.864
92214SOL    HW278482   4.152  11.944  10.937
92215SOL     OW78483   0.111   9.429   5.906
92215SOL    HW178484   0.090   9.378   5.827
92215SOL    HW278485   0.113   9.520   5.875
92216SOL     OW78486   8.716   6.863   0.188
92216SOL    HW178487   8.720   6.958   0.178
92216SOL    HW278488   8.807   6.835   0.200
92217SOL     OW78489   8.233  13.110   8.597
92217SOL    HW178490   8.147  13.070   8.605
92217SOL    HW278491   8.286  13.068   8.666
92218SOL     OW78492   4.917  11.460   0.056
92218SOL    HW178493   4.865  11.536   0.031
92218SOL    HW278494   4.857  11.386   0.051
92219SOL     OW78495   7.279   8.464  11.660
92219SOL    HW178496   7.282   8.492  11.569
92219SOL    HW278497   7.280   8.368  11.656
92220SOL     OW78498   2.349  14.229   0.745
92220SOL    HW178499   2.408  14.175   0.798
92220SOL    HW278500   2.262  14.197   0.765
92221SOL     OW78501  12.534   8.463  13.904
92221SOL    HW178502  12.480   8.414  13.966
92221SOL    HW278503  12.624   8.448  13.934
92222SOL     OW78504   9.778  12.035   8.007
92222SOL    HW178505   9.848  11.973   7.985
92222SOL    HW278506   9.782  12.101   7.938
92223SOL     OW78507   8.480  13.239  11.671
92223SOL    HW178508   8.405  13.188  11.642
92223SOL    HW278509   8.442  13.320  11.704
92224SOL     OW78510   3.551   9.170   2.811
92224SOL    HW178511   3.459   9.196   2.811
92224SOL    HW278512   3.568   9.145   2.720
92225SOL     OW78513   3.922   6.369   6.607
92225SOL    HW178514   3.952   6.376   6.516
92225SOL    HW278515   3.881   6.282   6.612
92226SOL     OW78516   7.386   9.811  12.961
92226SOL    HW178517   7.480   9.791  12.967
92226SOL    HW278518   7.363   9.843  13.047
92227SOL     OW78519   5.716   5.197   6.912
92227SOL    HW178520   5.738   5.255   6.984
92227SOL    HW278521   5.626   5.221   6.889
92228SOL     OW78522  13.478   9.862   8.592
92228SOL    HW178523  13.433   9.845   8.675
92228SOL    HW278524  13.491   9.775   8.553
92229SOL     OW78525   3.019   6.108   9.217
92229SOL    HW178526   3.006   6.150   9.132
92229SOL    HW278527   3.091   6.156   9.257
92230SOL     OW78528   5.802   6.964   2.741
92230SOL    HW178529   5.845   6.952   2.825
92230SOL    HW278530   5.841   7.043   2.704
92231SOL     OW78531   2.761   6.361  10.671
92231SOL    HW178532   2.742   6.432  10.732
92231SOL    HW278533   2.745   6.398  10.584
92232SOL     OW78534  14.502   4.648   4.014
92232SOL    HW178535  14.503   4.668   3.920
92232SOL    HW278536  14.486   4.732   4.056
92233SOL     OW78537   8.807   0.158   8.195
92233SOL    HW178538   8.782   0.066   8.188
92233SOL    HW278539   8.852   0.164   8.279
92234SOL     OW78540  10.487   8.525   9.124
92234SOL    HW178541  10.528   8.546   9.040
92234SOL    HW278542  10.493   8.606   9.175
92235SOL     OW78543  12.721   9.382   9.861
92235SOL    HW178544  12.690   9.463   9.820
92235SOL    HW278545  12.680   9.382   9.947
92236SOL     OW78546   4.982   6.419   4.779
92236SOL    HW178547   4.910   6.441   4.720
92236SOL    HW278548   4.951   6.344   4.830
92237SOL     OW78549   4.746   4.861  11.396
92237SOL    HW178550   4.702   4.882  11.478
92237SOL    HW278551   4.837   4.885  11.410
92238SOL     OW78552   9.040   6.158   5.222
92238SOL    HW178553   8.946   6.168   5.213
92238SOL    HW278554   9.058   6.070   5.188
92239SOL     OW78555   6.855  12.977  10.988
92239SOL    HW178556   6.894  13.039  11.050
92239SOL    HW278557   6.899  12.995  10.905
92240SOL     OW78558   9.449  11.139   8.392
92240SOL    HW178559   9.433  11.231   8.368
92240SOL    HW278560   9.541  11.136   8.418
92241SOL     OW78561  14.837   0.786  14.594
92241SOL    HW178562  14.786   0.805  14.672
92241SOL    HW278563  14.808   0.850  14.529
92242SOL     OW78564   6.160  14.211   6.051
92242SOL    HW178565   6.124  14.131   6.012
92242SOL    HW278566   6.149  14.277   5.982
92243SOL     OW78567  13.964   9.224  13.346
92243SOL    HW178568  13.999   9.142  13.311
92243SOL    HW278569  13.918   9.198  13.426
92244SOL     OW78570   2.101   0.649   7.501
92244SOL    HW178571   2.051   0.722   7.539
92244SOL    HW278572   2.082   0.575   7.558
92245SOL     OW78573   6.478   9.454  13.703
92245SOL    HW178574   6.462   9.378  13.647
92245SOL    HW278575   6.437   9.431  13.787
92246SOL     OW78576  13.501   3.712  10.789
92246SOL    HW178577  13.407   3.706  10.772
92246SOL    HW278578  13.524   3.802  10.767
92247SOL     OW78579   0.774   8.191   0.896
92247SOL    HW178580   0.704   8.144   0.942
92247SOL    HW278581   0.832   8.122   0.864
92248SOL     OW78582   7.173  10.404  11.667
92248SOL    HW178583   7.132  10.359  11.593
92248SOL    HW278584   7.213  10.333  11.718
92249SOL     OW78585   5.812  10.891   5.091
92249SOL    HW178586   5.787  10.918   5.179
92249SOL    HW278587   5.783  10.801   5.084
92250SOL     OW78588   3.546   9.403  13.710
92250SOL    HW178589   3.630   9.362  13.692
92250SOL    HW278590   3.499   9.340  13.764
92251SOL     OW78591  11.186  12.666   9.896
92251SOL    HW178592  11.153  12.708   9.817
92251SOL    HW278593  11.141  12.712   9.967
92252SOL     OW78594  12.743   4.724   3.976
92252SOL    HW178595  12.823   4.775   3.970
92252SOL    HW278596  12.673   4.790   3.967
92253SOL     OW78597   6.024  13.540   4.744
92253SOL    HW178598   5.935  13.575   4.744
92253SOL    HW278599   6.065  13.576   4.823
92254SOL     OW78600   2.660   5.770   4.948
92254SOL    HW178601   2.754   5.787   4.938
92254SOL    HW278602   2.620   5.812   4.872
92255SOL     OW78603   1.813   8.417   9.846
92255SOL    HW178604   1.797   8.335   9.799
92255SOL    HW278605   1.780   8.485   9.787
92256SOL     OW78606   3.386   6.626  12.111
92256SOL    HW178607   3.325   6.690  12.148
92256SOL    HW278608   3.395   6.651  12.019
92257SOL     OW78609  12.759   1.543   5.329
92257SOL    HW178610  12.671   1.566   5.300
92257SOL    HW278611  12.790   1.621   5.376
92258SOL     OW78612   9.580  12.344   0.521
92258SOL    HW178613   9.666  12.304   0.513
92258SOL    HW278614   9.589  12.406   0.594
92259SOL     OW78615  11.488   0.033   4.497
92259SOL    HW178616  11.436   0.059   4.573
92259SOL    HW278617  11.548   0.106   4.483
92260SOL     OW78618   6.254  10.491   1.811
92260SOL    HW178619   6.340  10.508   1.773
92260SOL    HW278620   6.194  10.543   1.758
92261SOL     OW78621   8.337  14.100   1.917
92261SOL    HW178622   8.416  14.049   1.896
92261SOL    HW278623   8.265  14.045   1.889
92262SOL     OW78624   5.768   2.117  10.721
92262SOL    HW178625   5.739   2.124  10.630
92262SOL    HW278626   5.851   2.071  10.716
92263SOL     OW78627   5.692   8.797   8.472
92263SOL    HW178628   5.763   8.859   8.456
92263SOL    HW278629   5.735   8.720   8.509
92264SOL     OW78630  12.718   7.942   5.800
92264SOL    HW178631  12.732   7.965   5.892
92264SOL    HW278632  12.801   7.903   5.772
92265SOL     OW78633   8.042   1.953   7.546
92265SOL    HW178634   8.019   1.987   7.632
92265SOL    HW278635   7.958   1.950   7.498
92266SOL     OW78636   3.984  12.131   6.165
92266SOL    HW178637   4.072  12.113   6.198
92266SOL    HW278638   3.934  12.155   6.243
92267SOL     OW78639   6.040   3.554   6.386
92267SOL    HW178640   6.110   3.490   6.401
92267SOL    HW278641   6.015   3.583   6.474
92268SOL     OW78642   7.646   9.038   7.392
92268SOL    HW178643   7.585   8.978   7.436
92268SOL    HW278644   7.602   9.060   7.310
92269SOL     OW78645   4.672   8.344   8.095
92269SOL    HW178646   4.743   8.320   8.154
92269SOL    HW278647   4.621   8.263   8.084
92270SOL     OW78648   3.702  10.625  11.578
92270SOL    HW178649   3.738  10.714  11.570
92270SOL    HW278650   3.673  10.619  11.669
92271SOL     OW78651  10.601   4.432   1.541
92271SOL    HW178652  10.541   4.380   1.594
92271SOL    HW278653  10.620   4.509   1.595
92272SOL     OW78654  11.000   0.133  10.383
92272SOL    HW178655  10.977   0.200  10.318
92272SOL    HW278656  11.064   0.078  10.338
92273SOL     OW78657  12.811   0.146   3.440
92273SOL    HW178658  12.733   0.124   3.491
92273SOL    HW278659  12.863   0.200   3.499
92274SOL     OW78660   7.176   9.677   2.499
92274SOL    HW178661   7.184   9.649   2.408
92274SOL    HW278662   7.262   9.712   2.521
92275SOL     OW78663   9.167   7.494  14.331
92275SOL    HW178664   9.201   7.583  14.339
92275SOL    HW278665   9.156   7.464  14.421
92276SOL     OW78666   5.371   4.568   5.109
92276SOL    HW178667   5.375   4.553   5.203
92276SOL    HW278668   5.395   4.485   5.070
92277SOL     OW78669   0.772  12.438   5.882
92277SOL    HW178670   0.717  12.517   5.877
92277SOL    HW278671   0.719  12.375   5.929
92278SOL     OW78672  11.265   3.896   3.830
92278SOL    HW178673  11.351   3.917   3.792
92278SOL    HW278674  11.221   3.980   3.837
92279SOL     OW78675   4.872   6.171   2.988
92279SOL    HW178676   4.844   6.190   3.078
92279SOL    HW278677   4.835   6.242   2.936
92280SOL     OW78678   9.509   1.426  11.147
92280SOL    HW178679   9.446   1.414  11.218
92280SOL    HW278680   9.575   1.486  11.183
92281SOL     OW78681   5.177  11.613   3.249
92281SOL    HW178682   5.194  11.707   3.254
92281SOL    HW278683   5.263  11.572   3.262
92282SOL     OW78684   6.161   1.541   3.687
92282SOL    HW178685   6.224   1.605   3.655
92282SOL    HW278686   6.215   1.468   3.720
92283SOL     OW78687  12.218   2.737   0.470
92283SOL    HW178688  12.129   2.761   0.496
92283SOL    HW278689  12.239   2.797   0.398
92284SOL     OW78690   6.469   1.856   7.278
92284SOL    HW178691   6.457   1.800   7.354
92284SOL    HW278692   6.558   1.837   7.248
92285SOL     OW78693   6.506   3.406  13.618
92285SOL    HW178694   6.499   3.424  13.525
92285SOL    HW278695   6.559   3.478  13.653
92286SOL     OW78696   0.228  11.544   9.989
92286SOL    HW178697   0.309  11.500  10.015
92286SOL    HW278698   0.167  11.473   9.969
92287SOL     OW78699   7.153   4.642  12.478
92287SOL    HW178700   7.244   4.646  12.449
92287SOL    HW278701   7.145   4.557  12.521
92288SOL     OW78702  11.668   8.956   3.891
92288SOL    HW178703  11.586   9.004   3.909
92288SOL    HW278704  11.736   9.010   3.930
92289SOL     OW78705   2.374  12.555   3.656
92289SOL    HW178706   2.435  12.508   3.713
92289SOL    HW278707   2.384  12.647   3.682
92290SOL     OW78708   4.340   9.330   1.692
92290SOL    HW178709   4.310   9.275   1.765
92290SOL    HW278710   4.339   9.271   1.616
92291SOL     OW78711   1.176   7.868   4.822
92291SOL    HW178712   1.183   7.836   4.911
92291SOL    HW278713   1.265   7.897   4.799
92292SOL     OW78714   3.729  12.552   5.754
92292SOL    HW178715   3.809  12.598   5.776
92292SOL    HW278716   3.706  12.584   5.667
92293SOL     OW78717   4.376   8.789   7.896
92293SOL    HW178718   4.410   8.766   7.983
92293SOL    HW278719   4.340   8.707   7.862
92294SOL     OW78720  12.129   9.943  11.019
92294SOL    HW178721  12.172  10.028  11.011
92294SOL    HW278722  12.198   9.884  11.050
92295SOL     OW78723   3.120  13.235   3.763
92295SOL    HW178724   3.064  13.235   3.686
92295SOL    HW278725   3.206  13.259   3.730
92296SOL     OW78726   9.983   2.149   7.347
92296SOL    HW178727   9.972   2.062   7.308
92296SOL    HW278728   9.894   2.179   7.364
92297SOL     OW78729  10.824   1.016   8.880
92297SOL    HW178730  10.756   1.083   8.873
92297SOL    HW278731  10.779   0.939   8.915
92298SOL     OW78732  11.050  10.019  14.114
92298SOL    HW178733  11.000   9.950  14.070
92298SOL    HW278734  10.990  10.055  14.179
92299SOL     OW78735  13.670   3.592   3.157
92299SOL    HW178736  13.665   3.507   3.112
92299SOL    HW278737  13.731   3.577   3.229
92300SOL     OW78738   7.926  12.032   6.125
92300SOL    HW178739   7.938  12.007   6.217
92300SOL    HW278740   7.923  11.949   6.078
92301SOL     OW78741  14.350   6.934   1.211
92301SOL    HW178742  14.440   6.966   1.200
92301SOL    HW278743  14.316   6.983   1.287
92302SOL     OW78744  13.555   7.373   2.655
92302SOL    HW178745  13.605   7.309   2.604
92302SOL    HW278746  13.596   7.370   2.742
92303SOL     OW78747   7.257   9.282  10.775
92303SOL    HW178748   7.302   9.253  10.696
92303SOL    HW278749   7.237   9.201  10.822
92304SOL     OW78750   8.940   5.774  14.148
92304SOL    HW178751   8.934   5.705  14.214
92304SOL    HW278752   8.866   5.757  14.089
92305SOL     OW78753   0.257   7.315   9.243
92305SOL    HW178754   0.210   7.247   9.292
92305SOL    HW278755   0.335   7.271   9.209
92306SOL     OW78756  13.724   6.843   1.006
92306SOL    HW178757  13.794   6.837   1.070
92306SOL    HW278758  13.649   6.802   1.048
92307SOL     OW78759   7.550  10.637   1.717
92307SOL    HW178760   7.634  10.679   1.737
92307SOL    HW278761   7.487  10.683   1.774
92308SOL     OW78762  12.735   0.681   2.997
92308SOL    HW178763  12.781   0.755   2.958
92308SOL    HW278764  12.643   0.703   2.988
92309SOL     OW78765  12.244   6.291  10.514
92309SOL    HW178766  12.333   6.309  10.483
92309SOL    HW278767  12.227   6.359  10.579
92310SOL     OW78768  10.094   8.815  10.893
92310SOL    HW178769  10.175   8.784  10.934
92310SOL    HW278770  10.078   8.754  10.821
92311SOL     OW78771   1.692   7.729   1.094
92311SOL    HW178772   1.670   7.787   1.021
92311SOL    HW278773   1.607   7.697   1.126
92312SOL     OW78774   6.004   4.495  12.300
92312SOL    HW178775   5.920   4.536  12.322
92312SOL    HW278776   6.055   4.564  12.258
92313SOL     OW78777   8.198  12.848   4.257
92313SOL    HW178778   8.235  12.932   4.285
92313SOL    HW278779   8.219  12.787   4.327
92314SOL     OW78780   5.413  12.097  13.135
92314SOL    HW178781   5.437  12.130  13.048
92314SOL    HW278782   5.320  12.116  13.143
92315SOL     OW78783   3.869  10.249   1.038
92315SOL    HW178784   3.884  10.184   0.969
92315SOL    HW278785   3.853  10.198   1.116
92316SOL     OW78786   1.945   5.551   3.474
92316SOL    HW178787   1.902   5.607   3.539
92316SOL    HW278788   1.880   5.542   3.404
92317SOL     OW78789   7.168   1.823   1.157
92317SOL    HW178790   7.230   1.887   1.191
92317SOL    HW278791   7.220   1.768   1.098
92318SOL     OW78792   5.488  12.585   6.836
92318SOL    HW178793   5.404  12.539   6.849
92318SOL    HW278794   5.481  12.663   6.891
92319SOL     OW78795   8.946   8.810  10.865
92319SOL    HW178796   8.869   8.819  10.809
92319SOL    HW278797   9.020   8.809  10.803
92320SOL     OW78798   5.900  11.809   4.254
92320SOL    HW178799   5.841  11.737   4.275
92320SOL    HW278800   5.926  11.793   4.163
92321SOL     OW78801   1.685   0.666   3.618
92321SOL    HW178802   1.666   0.713   3.699
92321SOL    HW278803   1.685   0.574   3.642
92322SOL     OW78804  11.216   0.304   1.563
92322SOL    HW178805  11.175   0.283   1.479
92322SOL    HW278806  11.298   0.347   1.540
92323SOL     OW78807   2.598   7.085   0.313
92323SOL    HW178808   2.675   7.118   0.359
92323SOL    HW278809   2.560   7.021   0.373
92324SOL     OW78810   8.450   6.578   7.722
92324SOL    HW178811   8.503   6.626   7.785
92324SOL    HW278812   8.428   6.643   7.655
92325SOL     OW78813   9.847   8.625  13.416
92325SOL    HW178814   9.942   8.634  13.425
92325SOL    HW278815   9.833   8.533  13.398
92326SOL     OW78816  14.160  13.456   3.989
92326SOL    HW178817  14.208  13.505   3.922
92326SOL    HW278818  14.205  13.477   4.070
92327SOL     OW78819   7.065   9.294  12.404
92327SOL    HW178820   7.124   9.222  12.384
92327SOL    HW278821   6.992   9.254  12.450
92328SOL     OW78822   1.405   3.658   3.887
92328SOL    HW178823   1.323   3.701   3.913
92328SOL    HW278824   1.414   3.584   3.947
92329SOL     OW78825  10.677   7.181   7.323
92329SOL    HW178826  10.635   7.168   7.408
92329SOL    HW278827  10.742   7.249   7.338
92330SOL     OW78828   3.098  11.680   7.999
92330SOL    HW178829   3.157  11.608   8.017
92330SOL    HW278830   3.154  11.750   7.966
92331SOL     OW78831  13.009  10.796   7.041
92331SOL    HW178832  12.952  10.785   7.118
92331SOL    HW278833  12.974  10.873   6.996
92332SOL     OW78834  14.390  14.171   3.327
92332SOL    HW178835  14.301  14.138   3.320
92332SOL    HW278836  14.387  14.258   3.287
92333SOL     OW78837   1.573  14.339  12.963
92333SOL    HW178838   1.629  14.265  12.988
92333SOL    HW278839   1.504  14.341  13.030
92334SOL     OW78840  11.568   3.464   6.062
92334SOL    HW178841  11.580   3.558   6.049
92334SOL    HW278842  11.579   3.451   6.156
92335SOL     OW78843   5.536   9.782  13.309
92335SOL    HW178844   5.532   9.720  13.236
92335SOL    HW278845   5.629   9.798  13.322
92336SOL     OW78846   1.514   3.753   4.917
92336SOL    HW178847   1.430   3.754   4.871
92336SOL    HW278848   1.551   3.840   4.900
92337SOL     OW78849  14.381   1.899   1.711
92337SOL    HW178850  14.467   1.932   1.688
92337SOL    HW278851  14.324   1.927   1.640
92338SOL     OW78852   8.609   0.666  12.933
92338SOL    HW178853   8.514   0.668  12.925
92338SOL    HW278854   8.632   0.574  12.915
92339SOL     OW78855   3.367   2.811  13.854
92339SOL    HW178856   3.385   2.720  13.831
92339SOL    HW278857   3.277   2.810  13.887
92340SOL     OW78858   8.437   0.376   7.531
92340SOL    HW178859   8.464   0.347   7.443
92340SOL    HW278860   8.519   0.395   7.576
92341SOL     OW78861  11.314  13.257  11.503
92341SOL    HW178862  11.256  13.333  11.498
92341SOL    HW278863  11.287  13.202  11.429
92342SOL     OW78864   2.163  13.559   2.180
92342SOL    HW178865   2.074  13.586   2.200
92342SOL    HW278866   2.217  13.635   2.205
92343SOL     OW78867  10.821   8.775  11.768
92343SOL    HW178868  10.843   8.825  11.847
92343SOL    HW278869  10.861   8.824  11.697
92344SOL     OW78870   5.454   7.879   7.906
92344SOL    HW178871   5.436   7.828   7.827
92344SOL    HW278872   5.471   7.968   7.874
92345SOL     OW78873   1.614   9.100  13.772
92345SOL    HW178874   1.677   9.171  13.758
92345SOL    HW278875   1.584   9.076  13.684
92346SOL     OW78876  11.020  12.006   1.358
92346SOL    HW178877  11.090  11.996   1.422
92346SOL    HW278878  10.999  12.100   1.360
92347SOL     OW78879   1.770   8.977  14.256
92347SOL    HW178880   1.684   8.987  14.297
92347SOL    HW278881   1.750   8.943  14.168
92348SOL     OW78882   7.416   3.831   6.631
92348SOL    HW178883   7.510   3.813   6.636
92348SOL    HW278884   7.404   3.909   6.684
92349SOL     OW78885   3.254  12.724  12.647
92349SOL    HW178886   3.329  12.773  12.681
92349SOL    HW278887   3.289  12.637  12.627
92350SOL     OW78888   1.553   7.082  14.714
92350SOL    HW178889   1.627   7.142  14.712
92350SOL    HW278890   1.477   7.138  14.693
92351SOL     OW78891   7.090   2.113   1.238
92351SOL    HW178892   7.085   2.201   1.275
92351SOL    HW278893   7.180   2.086   1.254
92352SOL     OW78894   8.298  14.396   6.704
92352SOL    HW178895   8.352  14.451   6.647
92352SOL    HW278896   8.338  14.406   6.791
92353SOL     OW78897  11.951   0.310   5.461
92353SOL    HW178898  12.000   0.301   5.542
92353SOL    HW278899  12.000   0.375   5.411
92354SOL     OW78900   3.419   1.946   0.364
92354SOL    HW178901   3.336   1.898   0.367
92354SOL    HW278902   3.396   2.032   0.329
92355SOL     OW78903   7.666   0.086   4.454
92355SOL    HW178904   7.679   0.083   4.359
92355SOL    HW278905   7.755   0.083   4.490
92356SOL     OW78906   9.146  10.394   7.055
92356SOL    HW178907   9.180  10.398   7.145
92356SOL    HW278908   9.063  10.441   7.059
92357SOL     OW78909   8.293  12.529  12.405
92357SOL    HW178910   8.256  12.467  12.342
92357SOL    HW278911   8.276  12.615  12.367
92358SOL     OW78912  13.792   7.004   4.400
92358SOL    HW178913  13.791   6.977   4.308
92358SOL    HW278914  13.700   7.008   4.425
92359SOL     OW78915  12.535   6.137  11.272
92359SOL    HW178916  12.600   6.181  11.327
92359SOL    HW278917  12.554   6.168  11.183
92360SOL     OW78918   2.611   7.593  13.367
92360SOL    HW178919   2.682   7.615  13.427
92360SOL    HW278920   2.643   7.621  13.281
92361SOL     OW78921   9.249   4.274  13.546
92361SOL    HW178922   9.161   4.311  13.544
92361SOL    HW278923   9.264   4.252  13.638
92362SOL     OW78924  11.493   6.371   0.367
92362SOL    HW178925  11.412   6.325   0.347
92362SOL    HW278926  11.558   6.332   0.309
92363SOL     OW78927  10.136  13.021   8.122
92363SOL    HW178928  10.051  13.039   8.163
92363SOL    HW278929  10.175  12.954   8.177
92364SOL     OW78930   0.456   4.319  13.778
92364SOL    HW178931   0.383   4.317  13.716
92364SOL    HW278932   0.437   4.248  13.839
92365SOL     OW78933  10.341  13.488   3.521
92365SOL    HW178934  10.301  13.454   3.441
92365SOL    HW278935  10.293  13.569   3.539
92366SOL     OW78936   7.731  11.478   7.298
92366SOL    HW178937   7.681  11.397   7.303
92366SOL    HW278938   7.666  11.547   7.306
92367SOL     OW78939   7.728   0.426  11.410
92367SOL    HW178940   7.642   0.467  11.425
92367SOL    HW278941   7.780   0.452  11.486
92368SOL     OW78942   0.335  10.330  14.501
92368SOL    HW178943   0.404  10.286  14.452
92368SOL    HW278944   0.359  10.423  14.499
92369SOL     OW78945  12.803   1.411   9.460
92369SOL    HW178946  12.830   1.368   9.541
92369SOL    HW278947  12.878   1.466   9.436
92370SOL     OW78948   1.972  12.518   4.422
92370SOL    HW178949   1.924  12.601   4.419
92370SOL    HW278950   2.046  12.532   4.363
92371SOL     OW78951   4.574   3.091   8.592
92371SOL    HW178952   4.645   3.073   8.530
92371SOL    HW278953   4.496   3.052   8.552
92372SOL     OW78954  11.106  13.469   8.717
92372SOL    HW178955  11.021  13.478   8.672
92372SOL    HW278956  11.109  13.378   8.745
92373SOL     OW78957  14.712   1.640   3.320
92373SOL    HW178958  14.636   1.651   3.261
92373SOL    HW278959  14.773   1.586   3.270
92374SOL     OW78960  10.440  12.348   0.358
92374SOL    HW178961  10.486  12.374   0.278
92374SOL    HW278962  10.504  12.297   0.406
92375SOL     OW78963  11.175   7.416  13.676
92375SOL    HW178964  11.203   7.492  13.625
92375SOL    HW278965  11.083   7.405  13.653
92376SOL     OW78966  14.873  14.528   3.315
92376SOL    HW178967  14.849  14.620   3.299
92376SOL    HW278968  14.802  14.478   3.276
92377SOL     OW78969   8.222   7.611   4.528
92377SOL    HW178970   8.205   7.682   4.589
92377SOL    HW278971   8.315   7.619   4.507
92378SOL     OW78972  13.564   7.108  14.251
92378SOL    HW178973  13.487   7.166  14.253
92378SOL    HW278974  13.553   7.052  14.328
92379SOL     OW78975   2.314   1.555   1.008
92379SOL    HW178976   2.341   1.483   1.066
92379SOL    HW278977   2.397   1.592   0.976
92380SOL     OW78978  10.998   3.875   9.844
92380SOL    HW178979  10.992   3.876   9.940
92380SOL    HW278980  10.915   3.911   9.814
92381SOL     OW78981  13.671   3.243   1.082
92381SOL    HW178982  13.662   3.308   1.152
92381SOL    HW278983  13.757   3.204   1.098
92382SOL     OW78984  10.458   6.977   1.923
92382SOL    HW178985  10.379   6.936   1.887
92382SOL    HW278986  10.518   6.982   1.848
92383SOL     OW78987   9.160   3.225  13.194
92383SOL    HW178988   9.254   3.205  13.186
92383SOL    HW278989   9.122   3.194  13.112
92384SOL     OW78990   5.522   8.050   9.758
92384SOL    HW178991   5.607   8.045   9.801
92384SOL    HW278992   5.460   8.070   9.828
92385SOL     OW78993  14.463   1.343   0.840
92385SOL    HW178994  14.415   1.400   0.901
92385SOL    HW278995  14.555   1.357   0.862
92386SOL     OW78996   8.356   8.346   8.655
92386SOL    HW178997   8.358   8.411   8.725
92386SOL    HW278998   8.447   8.342   8.623
92387SOL     OW78999  12.740   7.434   6.542
92387SOL    HW179000  12.706   7.523   6.526
92387SOL    HW279001  12.680   7.377   6.494
92388SOL     OW79002   6.505   0.660   8.610
92388SOL    HW179003   6.598   0.681   8.605
92388SOL    HW279004   6.503   0.565   8.624
92389SOL     OW79005   1.729   1.197   1.253
92389SOL    HW179006   1.672   1.168   1.324
92389SOL    HW279007   1.760   1.115   1.214
92390SOL     OW79008   3.566   7.300   8.602
92390SOL    HW179009   3.470   7.296   8.603
92390SOL    HW279010   3.591   7.300   8.694
92391SOL     OW79011  14.826  14.845  14.461
92391SOL    HW179012  14.785   0.057  14.447
92391SOL    HW279013  14.821  14.801  14.376
92392SOL     OW79014   7.618   4.607   4.211
92392SOL    HW179015   7.529   4.571   4.215
92392SOL    HW279016   7.650   4.602   4.301
92393SOL     OW79017   2.476  13.916  14.672
92393SOL    HW179018   2.569  13.939  14.679
92393SOL    HW279019   2.450  13.950  14.586
92394SOL     OW79020  14.824  10.653   1.242
92394SOL    HW179021  14.812  10.716   1.171
92394SOL    HW279022  14.839  10.570   1.198
92395SOL     OW79023  13.884  14.529   1.567
92395SOL    HW179024  13.963  14.485   1.598
92395SOL    HW279025  13.885  14.517   1.472
92396SOL     OW79026  13.386   3.287   4.645
92396SOL    HW179027  13.296   3.263   4.623
92396SOL    HW279028  13.392   3.269   4.739
92397SOL     OW79029   3.230   6.154   1.612
92397SOL    HW179030   3.252   6.199   1.693
92397SOL    HW279031   3.146   6.193   1.586
92398SOL     OW79032   0.199   7.376  12.465
92398SOL    HW179033   0.112   7.360  12.501
92398SOL    HW279034   0.192   7.351  12.373
92399SOL     OW79035  13.096   1.023   9.423
92399SOL    HW179036  13.042   0.957   9.467
92399SOL    HW279037  13.129   1.078   9.495
92400SOL     OW79038   4.715   3.039   4.887
92400SOL    HW179039   4.734   3.010   4.798
92400SOL    HW279040   4.705   3.134   4.881
92401SOL     OW79041   3.550   2.125  11.280
92401SOL    HW179042   3.465   2.112  11.321
92401SOL    HW279043   3.530   2.145  11.189
92402SOL     OW79044   0.582  14.506  10.187
92402SOL    HW179045   0.601  14.596  10.164
92402SOL    HW279046   0.487  14.503  10.198
92403SOL     OW79047   2.032   7.648   6.307
92403SOL    HW179048   2.054   7.557   6.286
92403SOL    HW279049   1.939   7.646   6.326
92404SOL     OW79050  11.504  10.411  11.335
92404SOL    HW179051  11.583  10.400  11.281
92404SOL    HW279052  11.457  10.484  11.295
92405SOL     OW79053   1.109  14.423  13.630
92405SOL    HW179054   1.130  14.445  13.721
92405SOL    HW279055   1.194  14.403  13.591
92406SOL     OW79056  13.776   2.593   1.632
92406SOL    HW179057  13.836   2.595   1.558
92406SOL    HW279058  13.736   2.680   1.632
92407SOL     OW79059   2.872  11.617  13.274
92407SOL    HW179060   2.901  11.708  13.264
92407SOL    HW279061   2.784  11.624  13.311
92408SOL     OW79062   1.952   8.890   8.134
92408SOL    HW179063   1.925   8.893   8.226
92408SOL    HW279064   2.043   8.920   8.135
92409SOL     OW79065   2.061  13.659   0.636
92409SOL    HW179066   2.114  13.616   0.704
92409SOL    HW279067   1.973  13.625   0.649
92410SOL     OW79068  10.612  11.472   7.298
92410SOL    HW179069  10.628  11.378   7.286
92410SOL    HW279070  10.675  11.498   7.365
92411SOL     OW79071  14.223   0.528   5.251
92411SOL    HW179072  14.260   0.510   5.164
92411SOL    HW279073  14.154   0.462   5.262
92412SOL     OW79074   6.388   1.359   1.556
92412SOL    HW179075   6.317   1.301   1.583
92412SOL    HW279076   6.357   1.447   1.580
92413SOL     OW79077   5.501  10.255  14.075
92413SOL    HW179078   5.477  10.329  14.131
92413SOL    HW279079   5.420  10.233  14.029
92414SOL     OW79080   8.011  10.411   8.244
92414SOL    HW179081   8.030  10.473   8.315
92414SOL    HW279082   8.061  10.333   8.267
92415SOL     OW79083   9.388  12.294  10.530
92415SOL    HW179084   9.437  12.350  10.590
92415SOL    HW279085   9.298  12.299  10.561
92416SOL     OW79086  11.919   6.071   0.834
92416SOL    HW179087  11.909   6.055   0.927
92416SOL    HW279088  12.006   6.109   0.825
92417SOL     OW79089  10.720  14.497   9.230
92417SOL    HW179090  10.633  14.530   9.206
92417SOL    HW279091  10.718  14.493   9.326
92418SOL     OW79092   4.891  12.045  14.165
92418SOL    HW179093   4.948  12.056  14.089
92418SOL    HW279094   4.839  12.125  14.168
92419SOL     OW79095   3.538   1.675  10.938
92419SOL    HW179096   3.572   1.689  10.849
92419SOL    HW279097   3.613   1.642  10.987
92420SOL     OW79098   0.927  13.691  10.590
92420SOL    HW179099   0.846  13.680  10.640
92420SOL    HW279100   0.901  13.676  10.499
92421SOL     OW79101   7.785   4.994  11.045
92421SOL    HW179102   7.767   5.033  10.960
92421SOL    HW279103   7.813   4.905  11.025
92422SOL     OW79104   6.104   6.192   6.943
92422SOL    HW179105   6.167   6.171   7.012
92422SOL    HW279106   6.140   6.271   6.903
92423SOL     OW79107   8.238   1.824   9.614
92423SOL    HW179108   8.289   1.753   9.576
92423SOL    HW279109   8.287   1.851   9.692
92424SOL     OW79110   3.415   2.814   6.649
92424SOL    HW179111   3.346   2.846   6.591
92424SOL    HW279112   3.488   2.792   6.591
92425SOL     OW79113   0.995  10.252   0.601
92425SOL    HW179114   0.977  10.294   0.685
92425SOL    HW279115   1.015  10.324   0.542
92426SOL     OW79116   5.519   5.281   5.017
92426SOL    HW179117   5.454   5.326   4.962
92426SOL    HW279118   5.602   5.324   4.997
92427SOL     OW79119  13.833   2.123   6.926
92427SOL    HW179120  13.864   2.033   6.936
92427SOL    HW279121  13.790   2.143   7.009
92428SOL     OW79122  10.195  12.399  14.584
92428SOL    HW179123  10.235  12.459  14.521
92428SOL    HW279124  10.114  12.443  14.611
92429SOL     OW79125   3.877   3.122   5.789
92429SOL    HW179126   3.846   3.045   5.742
92429SOL    HW279127   3.891   3.092   5.879
92430SOL     OW79128   4.861   6.253   6.255
92430SOL    HW179129   4.930   6.220   6.312
92430SOL    HW279130   4.780   6.241   6.304
92431SOL     OW79131   3.143  14.505  13.706
92431SOL    HW179132   3.156  14.600  13.717
92431SOL    HW279133   3.057  14.489  13.745
92432SOL     OW79134   6.992   5.592   8.607
92432SOL    HW179135   7.057   5.642   8.558
92432SOL    HW279136   7.027   5.503   8.611
92433SOL     OW79137  13.184   3.794  13.799
92433SOL    HW179138  13.113   3.848  13.764
92433SOL    HW279139  13.188   3.817  13.892
92434SOL     OW79140   3.587  13.962   4.577
92434SOL    HW179141   3.571  13.870   4.558
92434SOL    HW279142   3.509  14.008   4.545
92435SOL     OW79143   6.342   0.443   7.118
92435SOL    HW179144   6.323   0.357   7.080
92435SOL    HW279145   6.274   0.454   7.185
92436SOL     OW79146   4.191   6.930   9.750
92436SOL    HW179147   4.228   6.855   9.704
92436SOL    HW279148   4.215   7.006   9.696
92437SOL     OW79149   1.560  13.754   6.571
92437SOL    HW179150   1.533  13.839   6.537
92437SOL    HW279151   1.554  13.763   6.666
92438SOL     OW79152   9.164   5.719   8.318
92438SOL    HW179153   9.157   5.710   8.223
92438SOL    HW279154   9.256   5.703   8.337
92439SOL     OW79155   3.287   9.398   8.925
92439SOL    HW179156   3.260   9.346   9.001
92439SOL    HW279157   3.257   9.487   8.944
92440SOL     OW79158  14.469  10.828   7.671
92440SOL    HW179159  14.389  10.809   7.622
92440SOL    HW279160  14.475  10.923   7.671
92441SOL     OW79161   7.181   2.244  14.514
92441SOL    HW179162   7.255   2.269  14.568
92441SOL    HW279163   7.110   2.302  14.542
92442SOL     OW79164  10.107  14.507   5.616
92442SOL    HW179165  10.074  14.575   5.674
92442SOL    HW279166  10.093  14.425   5.664
92443SOL     OW79167  13.568  11.119   9.890
92443SOL    HW179168  13.612  11.167   9.819
92443SOL    HW279169  13.522  11.048   9.846
92444SOL     OW79170   9.161   8.813   2.008
92444SOL    HW179171   9.135   8.735   1.959
92444SOL    HW279172   9.208   8.780   2.084
92445SOL     OW79173   3.447  14.123  13.587
92445SOL    HW179174   3.467  14.037  13.550
92445SOL    HW279175   3.531  14.169  13.587
92446SOL     OW79176   2.356   6.137   1.564
92446SOL    HW179177   2.403   6.074   1.510
92446SOL    HW279178   2.273   6.150   1.517
92447SOL     OW79179   5.604   2.851  12.000
92447SOL    HW179180   5.588   2.757  11.997
92447SOL    HW279181   5.582   2.882  11.912
92448SOL     OW79182   6.785  11.553  13.235
92448SOL    HW179183   6.850  11.487  13.260
92448SOL    HW279184   6.828  11.636  13.255
92449SOL     OW79185  10.828  14.850  10.166
92449SOL    HW179186  10.733  14.851  10.156
92449SOL    HW279187  10.861   0.024  10.089
92450SOL     OW79188  10.096  12.826   3.587
92450SOL    HW179189  10.027  12.813   3.522
92450SOL    HW279190  10.142  12.904   3.557
92451SOL     OW79191   0.532   8.320   2.856
92451SOL    HW179192   0.616   8.298   2.895
92451SOL    HW279193   0.507   8.243   2.806
92452SOL     OW79194   9.847   6.278   9.391
92452SOL    HW179195   9.752   6.289   9.394
92452SOL    HW279196   9.867   6.269   9.298
92453SOL     OW79197   6.939   0.220  12.467
92453SOL    HW179198   6.852   0.221  12.427
92453SOL    HW279199   6.986   0.290  12.422
92454SOL     OW79200  11.218  10.127   3.619
92454SOL    HW179201  11.296  10.125   3.673
92454SOL    HW279202  11.160  10.060   3.656
92455SOL     OW79203   1.691   2.732   2.425
92455SOL    HW179204   1.617   2.762   2.373
92455SOL    HW279205   1.653   2.669   2.487
92456SOL     OW79206   6.262  12.546  10.237
92456SOL    HW179207   6.287  12.572  10.326
92456SOL    HW279208   6.215  12.622  10.202
92457SOL     OW79209   7.245   8.121   7.279
92457SOL    HW179210   7.236   8.141   7.372
92457SOL    HW279211   7.339   8.105   7.267
92458SOL     OW79212   9.668   5.739   3.275
92458SOL    HW179213   9.576   5.754   3.296
92458SOL    HW279214   9.666   5.691   3.192
92459SOL     OW79215   4.285  10.115  12.005
92459SOL    HW179216   4.292  10.022  11.987
92459SOL    HW279217   4.376  10.145  12.014
92460SOL     OW79218  11.535   5.519   0.484
92460SOL    HW179219  11.523   5.505   0.391
92460SOL    HW279220  11.525   5.614   0.496
92461SOL     OW79221   4.589   6.070   8.201
92461SOL    HW179222   4.684   6.073   8.212
92461SOL    HW279223   4.572   6.126   8.125
92462SOL     OW79224  11.744   0.247   2.831
92462SOL    HW179225  11.738   0.152   2.845
92462SOL    HW279226  11.678   0.284   2.888
92463SOL     OW79227   4.490  14.688   2.220
92463SOL    HW179228   4.431  14.618   2.189
92463SOL    HW279229   4.550  14.644   2.280
92464SOL     OW79230   4.242  11.668  10.425
92464SOL    HW179231   4.220  11.723  10.500
92464SOL    HW279232   4.182  11.594  10.431
92465SOL     OW79233  12.476  11.407   4.578
92465SOL    HW179234  12.445  11.346   4.644
92465SOL    HW279235  12.571  11.408   4.589
92466SOL     OW79236   4.674   5.232  13.782
92466SOL    HW179237   4.642   5.149  13.745
92466SOL    HW279238   4.621   5.299  13.739
92467SOL     OW79239  13.691   4.779  10.271
92467SOL    HW179240  13.637   4.777  10.350
92467SOL    HW279241  13.642   4.835  10.211
92468SOL     OW79242   1.923   1.916   6.947
92468SOL    HW179243   1.867   1.994   6.939
92468SOL    HW279244   1.926   1.897   7.040
92469SOL     OW79245   1.641  12.984   4.527
92469SOL    HW179246   1.684  12.943   4.602
92469SOL    HW279247   1.640  13.077   4.548
92470SOL     OW79248  11.866  14.693  10.369
92470SOL    HW179249  11.931  14.677  10.438
92470SOL    HW279250  11.795  14.633  10.389
92471SOL     OW79251   9.394   2.461   0.947
92471SOL    HW179252   9.371   2.437   0.857
92471SOL    HW279253   9.324   2.423   1.000
92472SOL     OW79254   9.697  13.458   9.297
92472SOL    HW179255   9.700  13.463   9.202
92472SOL    HW279256   9.736  13.373   9.318
92473SOL     OW79257   3.827   7.525   7.954
92473SOL    HW179258   3.830   7.619   7.975
92473SOL    HW279259   3.769   7.519   7.879
92474SOL     OW79260   3.948   2.021   8.502
92474SOL    HW179261   4.011   1.970   8.450
92474SOL    HW279262   3.958   1.987   8.591
92475SOL     OW79263   5.100  14.789   8.170
92475SOL    HW179264   5.066  14.865   8.124
92475SOL    HW279265   5.023  14.744   8.204
92476SOL     OW79266   5.044  13.079   4.620
92476SOL    HW179267   5.139  13.073   4.630
92476SOL    HW279268   5.009  13.042   4.702
92477SOL     OW79269  11.359   0.337  13.168
92477SOL    HW179270  11.300   0.364  13.239
92477SOL    HW279271  11.440   0.384  13.185
92478SOL     OW79272   0.431   8.128  14.830
92478SOL    HW179273   0.525   8.146  14.828
92478SOL    HW279274   0.411   8.098  14.741
92479SOL     OW79275   6.904  13.299   6.274
92479SOL    HW179276   6.986  13.343   6.252
92479SOL    HW279277   6.859  13.288   6.190
92480SOL     OW79278   7.445   2.616  12.800
92480SOL    HW179279   7.404   2.530  12.811
92480SOL    HW279280   7.398   2.656  12.728
92481SOL     OW79281   5.306   4.583   5.982
92481SOL    HW179282   5.386   4.565   5.933
92481SOL    HW279283   5.333   4.642   6.052
92482SOL     OW79284   2.682  13.006  14.289
92482SOL    HW179285   2.660  13.045  14.204
92482SOL    HW279286   2.665  13.075  14.353
92483SOL     OW79287   7.381   6.836   2.870
92483SOL    HW179288   7.294   6.815   2.838
92483SOL    HW279289   7.416   6.752   2.901
92484SOL     OW79290   2.981   5.378   1.833
92484SOL    HW179291   3.049   5.319   1.867
92484SOL    HW279292   2.952   5.428   1.909
92485SOL     OW79293   2.932  14.194   6.002
92485SOL    HW179294   3.013  14.209   5.955
92485SOL    HW279295   2.864  14.195   5.934
92486SOL     OW79296   6.072   6.970  10.823
92486SOL    HW179297   6.045   7.026  10.896
92486SOL    HW279298   6.154   7.007  10.793
92487SOL     OW79299   4.185   5.736  10.219
92487SOL    HW179300   4.093   5.726  10.196
92487SOL    HW279301   4.228   5.762  10.138
92488SOL     OW79302   3.180   8.860   3.447
92488SOL    HW179303   3.148   8.950   3.452
92488SOL    HW279304   3.269   8.864   3.480
92489SOL     OW79305  12.303  14.372  10.954
92489SOL    HW179306  12.389  14.348  10.920
92489SOL    HW279307  12.321  14.404  11.043
92490SOL     OW79308   3.012   6.496   0.129
92490SOL    HW179309   2.989   6.558   0.198
92490SOL    HW279310   3.064   6.547   0.067
92491SOL     OW79311  12.738   6.963  11.047
92491SOL    HW179312  12.813   7.021  11.037
92491SOL    HW279313  12.703   6.983  11.134
92492SOL     OW79314   3.013   0.858   8.383
92492SOL    HW179315   2.964   0.940   8.376
92492SOL    HW279316   3.077   0.875   8.453
92493SOL     OW79317   3.574  10.056   3.217
92493SOL    HW179318   3.520  10.018   3.286
92493SOL    HW279319   3.657  10.076   3.259
92494SOL     OW79320   4.988   4.860   6.583
92494SOL    HW179321   5.055   4.794   6.567
92494SOL    HW279322   4.909   4.824   6.542
92495SOL     OW79323   8.132   7.825  11.630
92495SOL    HW179324   8.205   7.857  11.576
92495SOL    HW279325   8.172   7.801  11.713
92496SOL     OW79326   4.758  12.710  11.327
92496SOL    HW179327   4.812  12.676  11.399
92496SOL    HW279328   4.820  12.759  11.273
92497SOL     OW79329   2.168   1.008   2.033
92497SOL    HW179330   2.138   1.060   2.108
92497SOL    HW279331   2.239   1.061   1.994
92498SOL     OW79332   9.688   9.221  11.859
92498SOL    HW179333   9.708   9.304  11.903
92498SOL    HW279334   9.613   9.186  11.908
92499SOL     OW79335  13.888  12.786   9.508
92499SOL    HW179336  13.829  12.771   9.434
92499SOL    HW279337  13.831  12.790   9.585
92500SOL     OW79338   5.900   8.313   5.071
92500SOL    HW179339   5.974   8.294   5.013
92500SOL    HW279340   5.840   8.366   5.018
92501SOL     OW79341  14.423  10.314   9.486
92501SOL    HW179342  14.424  10.381   9.555
92501SOL    HW279343  14.487  10.345   9.422
92502SOL     OW79344   5.745   4.234   6.657
92502SOL    HW179345   5.797   4.215   6.579
92502SOL    HW279346   5.708   4.149   6.682
92503SOL     OW79347  14.695  10.882   7.799
92503SOL    HW179348  14.628  10.842   7.744
92503SOL    HW279349  14.665  10.867   7.889
92504SOL     OW79350   3.061   9.394  10.650
92504SOL    HW179351   2.975   9.351  10.654
92504SOL    HW279352   3.123   9.326  10.678
92505SOL     OW79353  12.083   9.020   7.933
92505SOL    HW179354  11.988   9.019   7.946
92505SOL    HW279355  12.100   8.948   7.873
92506SOL     OW79356   0.369   2.373   0.965
92506SOL    HW179357   0.384   2.379   1.060
92506SOL    HW279358   0.432   2.436   0.928
92507SOL     OW79359   0.094  14.185  10.750
92507SOL    HW179360   0.185  14.196  10.777
92507SOL    HW279361   0.067  14.272  10.721
92508SOL     OW79362   7.643  13.590  14.354
92508SOL    HW179363   7.618  13.501  14.377
92508SOL    HW279364   7.737  13.587  14.341
92509SOL     OW79365  10.413   6.699  12.585
92509SOL    HW179366  10.446   6.640  12.652
92509SOL    HW279367  10.322   6.672  12.572
92510SOL     OW79368   9.156  12.632   1.642
92510SOL    HW179369   9.072  12.609   1.601
92510SOL    HW279370   9.201  12.683   1.575
92511SOL     OW79371   6.383   6.244   1.883
92511SOL    HW179372   6.376   6.297   1.803
92511SOL    HW279373   6.329   6.290   1.947
92512SOL     OW79374   2.094   9.885  11.803
92512SOL    HW179375   2.051   9.958  11.846
92512SOL    HW279376   2.062   9.807  11.849
92513SOL     OW79377  11.747   1.684   6.498
92513SOL    HW179378  11.732   1.685   6.593
92513SOL    HW279379  11.819   1.622   6.485
92514SOL     OW79380   0.748   6.248   0.068
92514SOL    HW179381   0.784   6.162   0.089
92514SOL    HW279382   0.806   6.309   0.115
92515SOL     OW79383   8.999   2.325  13.230
92515SOL    HW179384   8.949   2.302  13.152
92515SOL    HW279385   9.007   2.244  13.280
92516SOL     OW79386   2.273   1.840  11.552
92516SOL    HW179387   2.368   1.832  11.554
92516SOL    HW279388   2.258   1.935  11.544
92517SOL     OW79389   1.033  14.057   1.996
92517SOL    HW179390   1.085  13.990   1.951
92517SOL    HW279391   0.953  14.064   1.943
92518SOL     OW79392   2.350   1.322   9.220
92518SOL    HW179393   2.417   1.324   9.288
92518SOL    HW279394   2.352   1.233   9.185
92519SOL     OW79395   1.252   3.005   6.205
92519SOL    HW179396   1.214   2.990   6.292
92519SOL    HW279397   1.308   3.082   6.217
92520SOL     OW79398  11.087   2.553   8.635
92520SOL    HW179399  11.071   2.464   8.666
92520SOL    HW279400  11.007   2.601   8.653
92521SOL     OW79401   5.177  10.251   8.235
92521SOL    HW179402   5.091  10.210   8.223
92521SOL    HW279403   5.160  10.345   8.231
92522SOL     OW79404   3.185  13.887   1.720
92522SOL    HW179405   3.119  13.819   1.735
92522SOL    HW279406   3.266  13.839   1.703
92523SOL     OW79407   3.206   9.019   8.601
92523SOL    HW179408   3.238   9.100   8.641
92523SOL    HW279409   3.204   9.037   8.507
92524SOL     OW79410   3.423  10.589  11.295
92524SOL    HW179411   3.465  10.539  11.365
92524SOL    HW279412   3.479  10.666  11.283
92525SOL     OW79413  11.813  11.767  12.451
92525SOL    HW179414  11.885  11.826  12.430
92525SOL    HW279415  11.756  11.817  12.509
92526SOL     OW79416  13.792   7.065   3.600
92526SOL    HW179417  13.704   7.100   3.594
92526SOL    HW279418  13.813   7.035   3.512
92527SOL     OW79419   6.155   3.231   2.466
92527SOL    HW179420   6.103   3.310   2.460
92527SOL    HW279421   6.114   3.180   2.536
92528SOL     OW79422   8.054   2.617  12.801
92528SOL    HW179423   7.991   2.549  12.825
92528SOL    HW279424   8.111   2.626  12.878
92529SOL     OW79425   0.962   9.663  14.208
92529SOL    HW179426   0.922   9.611  14.138
92529SOL    HW279427   1.036   9.707  14.166
92530SOL     OW79428   7.091  14.709   6.743
92530SOL    HW179429   7.165  14.660   6.777
92530SOL    HW279430   7.108  14.800   6.770
92531SOL     OW79431  11.118   6.571   6.488
92531SOL    HW179432  11.107   6.650   6.434
92531SOL    HW279433  11.132   6.501   6.424
92532SOL     OW79434   8.771  11.750   3.644
92532SOL    HW179435   8.856  11.792   3.629
92532SOL    HW279436   8.792  11.656   3.647
92533SOL     OW79437   3.962   2.671   8.670
92533SOL    HW179438   4.048   2.658   8.709
92533SOL    HW279439   3.927   2.582   8.659
92534SOL     OW79440   0.773   7.773  10.182
92534SOL    HW179441   0.843   7.724  10.139
92534SOL    HW279442   0.709   7.791  10.113
92535SOL     OW79443   5.906  10.522   2.518
92535SOL    HW179444   5.944  10.448   2.471
92535SOL    HW279445   5.922  10.502   2.611
92536SOL     OW79446  11.329   3.817  14.784
92536SOL    HW179447  11.331   3.911  14.769
92536SOL    HW279448  11.335   3.779  14.696
92537SOL     OW79449   3.408   7.540   1.832
92537SOL    HW179450   3.502   7.559   1.826
92537SOL    HW279451   3.385   7.507   1.745
92538SOL     OW79452  13.424   8.196   5.788
92538SOL    HW179453  13.374   8.115   5.776
92538SOL    HW279454  13.432   8.204   5.883
92539SOL     OW79455  14.548   7.977   4.905
92539SOL    HW179456  14.503   8.048   4.858
92539SOL    HW279457  14.624   8.019   4.945
92540SOL     OW79458   9.916   7.798   0.767
92540SOL    HW179459   9.873   7.846   0.837
92540SOL    HW279460  10.002   7.839   0.759
92541SOL     OW79461   1.984   6.797   7.078
92541SOL    HW179462   1.923   6.734   7.117
92541SOL    HW279463   1.971   6.788   6.984
92542SOL     OW79464   0.795   8.009   2.699
92542SOL    HW179465   0.840   7.931   2.732
92542SOL    HW279466   0.831   8.022   2.611
92543SOL     OW79467   3.615   7.954   6.475
92543SOL    HW179468   3.525   7.940   6.445
92543SOL    HW279469   3.668   7.946   6.396
92544SOL     OW79470   3.214  11.934  13.506
92544SOL    HW179471   3.305  11.905  13.517
92544SOL    HW279472   3.202  12.003  13.571
92545SOL     OW79473  10.438   1.747   5.550
92545SOL    HW179474  10.469   1.813   5.488
92545SOL    HW279475  10.502   1.676   5.543
92546SOL     OW79476  11.116  11.025  10.616
92546SOL    HW179477  11.103  11.043  10.522
92546SOL    HW279478  11.039  11.064  10.658
92547SOL     OW79479  11.028   4.810  11.200
92547SOL    HW179480  11.043   4.841  11.111
92547SOL    HW279481  11.114   4.778  11.229
92548SOL     OW79482  11.155  12.777   9.020
92548SOL    HW179483  11.204  12.842   9.070
92548SOL    HW279484  11.074  12.821   8.997
92549SOL     OW79485   2.261   9.827   8.646
92549SOL    HW179486   2.293   9.853   8.733
92549SOL    HW279487   2.182   9.777   8.664
92550SOL     OW79488  14.125   7.958   2.025
92550SOL    HW179489  14.146   8.051   2.019
92550SOL    HW279490  14.040   7.950   1.982
92551SOL     OW79491   2.977  12.477   7.323
92551SOL    HW179492   3.028  12.419   7.266
92551SOL    HW279493   2.886  12.450   7.309
92552SOL     OW79494   3.196   0.567   8.866
92552SOL    HW179495   3.229   0.656   8.869
92552SOL    HW279496   3.148   0.561   8.784
92553SOL     OW79497   3.009   6.543   7.973
92553SOL    HW179498   2.915   6.552   7.990
92553SOL    HW279499   3.013   6.501   7.886
92554SOL     OW79500   5.321   9.563  10.862
92554SOL    HW179501   5.347   9.509  10.936
92554SOL    HW279502   5.341   9.652  10.889
92555SOL     OW79503  13.096  10.317   5.861
92555SOL    HW179504  13.165  10.327   5.795
92555SOL    HW279505  13.044  10.243   5.830
92556SOL     OW79506  12.937  12.395   3.071
92556SOL    HW179507  12.888  12.328   3.025
92556SOL    HW279508  12.892  12.406   3.155
92557SOL     OW79509   2.572   6.732   6.744
92557SOL    HW179510   2.580   6.803   6.680
92557SOL    HW279511   2.511   6.766   6.810
92558SOL     OW79512   1.343   4.844   0.862
92558SOL    HW179513   1.349   4.919   0.922
92558SOL    HW279514   1.250   4.839   0.839
92559SOL     OW79515   4.892   7.269  10.712
92559SOL    HW179516   4.966   7.209  10.721
92559SOL    HW279517   4.845   7.261  10.795
92560SOL     OW79518   2.899   9.234   0.896
92560SOL    HW179519   2.805   9.254   0.889
92560SOL    HW279520   2.913   9.214   0.988
92561SOL     OW79521  14.075   1.222   2.708
92561SOL    HW179522  14.128   1.297   2.735
92561SOL    HW279523  14.088   1.156   2.776
92562SOL     OW79524  11.176   5.337  12.101
92562SOL    HW179525  11.184   5.387  12.020
92562SOL    HW279526  11.107   5.380  12.150
92563SOL     OW79527   6.483   7.995   0.422
92563SOL    HW179528   6.496   7.943   0.343
92563SOL    HW279529   6.473   7.930   0.492
92564SOL     OW79530  12.632  12.933  10.227
92564SOL    HW179531  12.695  12.917  10.157
92564SOL    HW279532  12.621  12.847  10.269
92565SOL     OW79533   1.257  10.424   1.622
92565SOL    HW179534   1.195  10.393   1.556
92565SOL    HW279535   1.336  10.371   1.608
92566SOL     OW79536   8.885   2.225   5.633
92566SOL    HW179537   8.841   2.256   5.713
92566SOL    HW279538   8.814   2.210   5.571
92567SOL     OW79539  12.065   8.770  11.197
92567SOL    HW179540  12.001   8.732  11.257
92567SOL    HW279541  12.070   8.863  11.222
92568SOL     OW79542   8.102   5.798  13.535
92568SOL    HW179543   8.037   5.811  13.466
92568SOL    HW279544   8.105   5.881  13.581
92569SOL     OW79545  11.381   6.779   0.994
92569SOL    HW179546  11.336   6.695   1.003
92569SOL    HW279547  11.317   6.844   1.023
92570SOL     OW79548   9.629  10.656  11.374
92570SOL    HW179549   9.565  10.684  11.439
92570SOL    HW279550   9.705  10.628  11.426
92571SOL     OW79551   2.132   6.433   1.305
92571SOL    HW179552   2.111   6.523   1.279
92571SOL    HW279553   2.225   6.424   1.285
92572SOL     OW79554   4.762  11.894   8.005
92572SOL    HW179555   4.792  11.976   8.044
92572SOL    HW279556   4.778  11.904   7.911
92573SOL     OW79557   6.850   2.883   0.047
92573SOL    HW179558   6.791   2.808   0.044
92573SOL    HW279559   6.935   2.846   0.069
92574SOL     OW79560  12.141   0.461   6.901
92574SOL    HW179561  12.082   0.394   6.934
92574SOL    HW279562  12.222   0.415   6.880
92575SOL     OW79563   9.578   0.389  14.701
92575SOL    HW179564   9.525   0.324  14.747
92575SOL    HW279565   9.638   0.424  14.767
92576SOL     OW79566   9.374   6.342  10.841
92576SOL    HW179567   9.320   6.272  10.878
92576SOL    HW279568   9.320   6.421  10.851
92577SOL     OW79569   9.119   0.685   8.008
92577SOL    HW179570   9.143   0.593   8.011
92577SOL    HW279571   9.043   0.689   7.950
92578SOL     OW79572   8.760  14.649   8.467
92578SOL    HW179573   8.855  14.661   8.477
92578SOL    HW279574   8.732  14.611   8.550
92579SOL     OW79575  12.384   5.891  10.633
92579SOL    HW179576  12.331   5.813  10.620
92579SOL    HW279577  12.320   5.960  10.652
92580SOL     OW79578   4.280   6.786   3.826
92580SOL    HW179579   4.256   6.694   3.812
92580SOL    HW279580   4.251   6.830   3.746
92581SOL     OW79581  11.912  13.807  10.016
92581SOL    HW179582  11.876  13.725   9.982
92581SOL    HW279583  11.960  13.844   9.943
92582SOL     OW79584   9.239  12.938   0.863
92582SOL    HW179585   9.295  12.916   0.937
92582SOL    HW279586   9.295  12.987   0.803
92583SOL     OW79587   2.870  12.526  13.633
92583SOL    HW179588   2.778  12.551  13.633
92583SOL    HW279589   2.880  12.471  13.711
92584SOL     OW79590  10.623  14.162   0.364
92584SOL    HW179591  10.566  14.218   0.312
92584SOL    HW279592  10.660  14.101   0.300
92585SOL     OW79593  13.256   5.910   2.672
92585SOL    HW179594  13.215   5.869   2.748
92585SOL    HW279595  13.263   5.839   2.608
92586SOL     OW79596   2.949  13.837   2.991
92586SOL    HW179597   2.935  13.743   3.003
92586SOL    HW279598   2.946  13.873   3.079
92587SOL     OW79599  13.832   3.142   9.844
92587SOL    HW179600  13.868   3.055   9.862
92587SOL    HW279601  13.896   3.202   9.882
92588SOL     OW79602   8.304   4.298   5.806
92588SOL    HW179603   8.260   4.218   5.780
92588SOL    HW279604   8.381   4.269   5.854
92589SOL     OW79605  14.249  11.196   4.836
92589SOL    HW179606  14.327  11.251   4.824
92589SOL    HW279607  14.272  11.138   4.908
92590SOL     OW79608   3.632  13.081   2.461
92590SOL    HW179609   3.581  13.083   2.542
92590SOL    HW279610   3.670  13.169   2.455
92591SOL     OW79611   1.096  14.546   0.945
92591SOL    HW179612   1.150  14.622   0.925
92591SOL    HW279613   1.039  14.575   1.016
92592SOL     OW79614  10.794   6.083  10.616
92592SOL    HW179615  10.882   6.111  10.643
92592SOL    HW279616  10.736   6.149  10.654
92593SOL     OW79617  14.438  14.109  11.555
92593SOL    HW179618  14.444  14.172  11.627
92593SOL    HW279619  14.519  14.059  11.560
92594SOL     OW79620  13.931  10.560   6.029
92594SOL    HW179621  13.985  10.484   6.051
92594SOL    HW279622  13.913  10.550   5.936
92595SOL     OW79623  14.074   8.445  10.088
92595SOL    HW179624  13.993   8.444  10.140
92595SOL    HW279625  14.090   8.538  10.072
92596SOL     OW79626   8.891  13.905   0.321
92596SOL    HW179627   8.880  13.986   0.371
92596SOL    HW279628   8.985  13.890   0.320
92597SOL     OW79629   3.331   9.234   8.706
92597SOL    HW179630   3.390   9.283   8.648
92597SOL    HW279631   3.294   9.301   8.765
92598SOL     OW79632   0.264   8.390  14.835
92598SOL    HW179633   0.225   8.445  14.767
92598SOL    HW279634   0.226   8.303  14.821
92599SOL     OW79635  14.424  13.309   9.023
92599SOL    HW179636  14.495  13.254   8.990
92599SOL    HW279637  14.469  13.384   9.062
92600SOL     OW79638  13.058   9.948   1.660
92600SOL    HW179639  13.151   9.965   1.644
92600SOL    HW279640  13.053   9.853   1.670
92601SOL     OW79641   5.102   4.648   5.115
92601SOL    HW179642   5.185   4.620   5.077
92601SOL    HW279643   5.112   4.633   5.209
92602SOL     OW79644  11.667   5.923  13.495
92602SOL    HW179645  11.707   5.961  13.417
92602SOL    HW279646  11.655   5.997  13.554
92603SOL     OW79647   9.224  14.274   7.095
92603SOL    HW179648   9.170  14.201   7.128
92603SOL    HW279649   9.161  14.332   7.052
92604SOL     OW79650  14.089   9.081   1.164
92604SOL    HW179651  14.039   9.110   1.088
92604SOL    HW279652  14.177   9.116   1.150
92605SOL     OW79653   9.613  11.119   7.902
92605SOL    HW179654   9.530  11.117   7.854
92605SOL    HW279655   9.596  11.177   7.977
92606SOL     OW79656  14.422  10.601   8.495
92606SOL    HW179657  14.414  10.532   8.430
92606SOL    HW279658  14.491  10.658   8.461
92607SOL     OW79659  13.161   1.361   8.221
92607SOL    HW179660  13.148   1.277   8.177
92607SOL    HW279661  13.161   1.425   8.149
92608SOL     OW79662  12.025  11.084  11.636
92608SOL    HW179663  12.110  11.050  11.609
92608SOL    HW279664  12.039  11.118  11.724
92609SOL     OW79665   6.976   1.567   9.617
92609SOL    HW179666   7.025   1.486   9.630
92609SOL    HW279667   6.921   1.550   9.541
92610SOL     OW79668   2.022   5.877  14.490
92610SOL    HW179669   1.952   5.843  14.435
92610SOL    HW279670   2.065   5.799  14.525
92611SOL     OW79671  10.943   6.035  12.304
92611SOL    HW179672  10.866   6.033  12.361
92611SOL    HW279673  10.950   5.946  12.270
92612SOL     OW79674  14.387   1.974   9.792
92612SOL    HW179675  14.433   1.942   9.869
92612SOL    HW279676  14.454   1.976   9.723
92613SOL     OW79677   0.404  13.083   4.210
92613SOL    HW179678   0.418  12.992   4.236
92613SOL    HW279679   0.344  13.078   4.136
92614SOL     OW79680  10.374  13.143   3.089
92614SOL    HW179681  10.452  13.192   3.114
92614SOL    HW279682  10.406  13.056   3.066
92615SOL     OW79683   1.433   3.291   8.891
92615SOL    HW179684   1.526   3.282   8.874
92615SOL    HW279685   1.425   3.283   8.986
92616SOL     OW79686   4.479   6.591  12.152
92616SOL    HW179687   4.415   6.626  12.215
92616SOL    HW279688   4.464   6.497  12.152
92617SOL     OW79689  11.876   8.260   5.492
92617SOL    HW179690  11.896   8.253   5.399
92617SOL    HW279691  11.781   8.272   5.494
92618SOL     OW79692  11.059   7.482   2.232
92618SOL    HW179693  11.023   7.428   2.303
92618SOL    HW279694  11.008   7.563   2.235
92619SOL     OW79695   1.849  10.785  13.243
92619SOL    HW179696   1.789  10.780  13.318
92619SOL    HW279697   1.854  10.695  13.212
92620SOL     OW79698   9.489   7.200  12.641
92620SOL    HW179699   9.404   7.206  12.683
92620SOL    HW279700   9.545   7.259  12.692
92621SOL     OW79701   3.177   8.495  11.133
92621SOL    HW179702   3.213   8.406  11.133
92621SOL    HW279703   3.122   8.499  11.054
92622SOL     OW79704  14.871   0.887  13.473
92622SOL    HW179705   0.041   0.951  13.416
92622SOL    HW279706  14.792   0.862  13.424
92623SOL     OW79707  10.650   2.428   1.369
92623SOL    HW179708  10.577   2.368   1.357
92623SOL    HW279709  10.712   2.405   1.299
92624SOL     OW79710  11.510  11.381  12.330
92624SOL    HW179711  11.421  11.376  12.365
92624SOL    HW279712  11.499  11.379  12.235
92625SOL     OW79713   4.951   3.921   6.363
92625SOL    HW179714   4.910   4.002   6.332
92625SOL    HW279715   4.908   3.852   6.313
92626SOL     OW79716  12.871   9.263  14.178
92626SOL    HW179717  12.877   9.184  14.125
92626SOL    HW279718  12.953   9.309  14.162
92627SOL     OW79719   5.522   2.290  14.511
92627SOL    HW179720   5.456   2.222  14.496
92627SOL    HW279721   5.491   2.365  14.460
92628SOL     OW79722   4.276   5.463  13.524
92628SOL    HW179723   4.323   5.543  13.500
92628SOL    HW279724   4.297   5.402  13.454
92629SOL     OW79725   5.120   3.734   3.054
92629SOL    HW179726   5.131   3.728   3.149
92629SOL    HW279727   5.037   3.781   3.042
92630SOL     OW79728   9.748   8.698   2.172
92630SOL    HW179729   9.706   8.638   2.111
92630SOL    HW279730   9.721   8.785   2.143
92631SOL     OW79731   5.668   3.176   3.986
92631SOL    HW179732   5.670   3.197   3.892
92631SOL    HW279733   5.579   3.200   4.013
92632SOL     OW79734   5.759  11.686   3.555
92632SOL    HW179735   5.761  11.641   3.470
92632SOL    HW279736   5.718  11.771   3.536
92633SOL     OW79737   6.614  11.452  10.545
92633SOL    HW179738   6.652  11.485  10.463
92633SOL    HW279739   6.520  11.446  10.528
92634SOL     OW79740  11.557  12.904   7.419
92634SOL    HW179741  11.487  12.882   7.480
92634SOL    HW279742  11.546  12.843   7.346
92635SOL     OW79743  11.110   0.463  12.368
92635SOL    HW179744  11.093   0.461  12.462
92635SOL    HW279745  11.199   0.430  12.359
92636SOL     OW79746  10.598   1.546  14.627
92636SOL    HW179747  10.623   1.637  14.641
92636SOL    HW279748  10.669   1.511  14.572
92637SOL     OW79749   0.049   2.114   5.184
92637SOL    HW179750   0.026   2.207   5.182
92637SOL    HW279751   0.143   2.114   5.203
92638SOL     OW79752   0.515   7.764  10.075
92638SOL    HW179753   0.435   7.786  10.027
92638SOL    HW279754   0.527   7.670  10.059
92639SOL     OW79755   7.819  12.438  10.146
92639SOL    HW179756   7.857  12.503  10.086
92639SOL    HW279757   7.781  12.372  10.088
92640SOL     OW79758  10.511   1.107   7.340
92640SOL    HW179759  10.429   1.155   7.338
92640SOL    HW279760  10.526   1.081   7.249
92641SOL     OW79761  11.401   6.524  11.348
92641SOL    HW179762  11.465   6.590  11.374
92641SOL    HW279763  11.368   6.488  11.431
92642SOL     OW79764   8.826  13.032   5.507
92642SOL    HW179765   8.884  13.081   5.448
92642SOL    HW279766   8.763  12.990   5.449
92643SOL     OW79767   9.554  12.021   1.329
92643SOL    HW179768   9.497  12.080   1.280
92643SOL    HW279769   9.638  12.026   1.283
92644SOL     OW79770  11.950   2.750  13.911
92644SOL    HW179771  11.930   2.842  13.897
92644SOL    HW279772  12.021   2.750  13.975
92645SOL     OW79773   5.557  12.843  14.779
92645SOL    HW179774   5.638  12.893  14.768
92645SOL    HW279775   5.488  12.904  14.753
92646SOL     OW79776   4.029  11.342   6.699
92646SOL    HW179777   3.955  11.292   6.665
92646SOL    HW279778   4.077  11.370   6.621
92647SOL     OW79779   1.699   4.687   1.693
92647SOL    HW179780   1.706   4.762   1.751
92647SOL    HW279781   1.778   4.635   1.709
92648SOL     OW79782   3.214   1.193   5.194
92648SOL    HW179783   3.164   1.206   5.113
92648SOL    HW279784   3.266   1.114   5.178
92649SOL     OW79785   2.413   0.921   2.378
92649SOL    HW179786   2.430   0.926   2.284
92649SOL    HW279787   2.483   0.972   2.418
92650SOL     OW79788   3.594   0.081   2.955
92650SOL    HW179789   3.571   0.031   2.877
92650SOL    HW279790   3.684   0.056   2.974
92651SOL     OW79791   0.982  13.633   9.985
92651SOL    HW179792   0.913  13.567   9.988
92651SOL    HW279793   0.996  13.657  10.077
92652SOL     OW79794   4.834  14.753   8.005
92652SOL    HW179795   4.832  14.727   8.097
92652SOL    HW279796   4.889  14.831   8.003
92653SOL     OW79797   7.157  12.325  13.260
92653SOL    HW179798   7.207  12.250  13.230
92653SOL    HW279799   7.209  12.362  13.331
92654SOL     OW79800   3.460  13.043   2.245
92654SOL    HW179801   3.505  12.971   2.201
92654SOL    HW279802   3.512  13.060   2.323
92655SOL     OW79803  10.531   3.436   3.091
92655SOL    HW179804  10.498   3.471   3.174
92655SOL    HW279805  10.527   3.341   3.102
92656SOL     OW79806   6.088   2.206   7.903
92656SOL    HW179807   6.165   2.157   7.935
92656SOL    HW279808   6.116   2.242   7.819
92657SOL     OW79809   5.490   1.004  13.883
92657SOL    HW179810   5.569   1.051  13.856
92657SOL    HW279811   5.522   0.917  13.908
92658SOL     OW79812  11.298   9.945  13.273
92658SOL    HW179813  11.209   9.975  13.254
92658SOL    HW279814  11.289   9.854  13.299
92659SOL     OW79815  11.337   2.918   0.895
92659SOL    HW179816  11.341   2.902   0.801
92659SOL    HW279817  11.257   2.971   0.906
92660SOL     OW79818  11.748  11.674   8.962
92660SOL    HW179819  11.793  11.604   9.009
92660SOL    HW279820  11.805  11.694   8.888
92661SOL     OW79821  14.032   8.729   7.301
92661SOL    HW179822  14.013   8.823   7.304
92661SOL    HW279823  14.128   8.724   7.299
92662SOL     OW79824   7.465  13.405   2.411
92662SOL    HW179825   7.521  13.344   2.364
92662SOL    HW279826   7.522  13.444   2.477
92663SOL     OW79827   0.288   2.367   7.353
92663SOL    HW179828   0.200   2.363   7.315
92663SOL    HW279829   0.276   2.338   7.444
92664SOL     OW79830   5.957   8.457   1.468
92664SOL    HW179831   5.996   8.398   1.403
92664SOL    HW279832   5.867   8.427   1.477
92665SOL     OW79833   0.706   0.961   2.578
92665SOL    HW179834   0.741   0.961   2.489
92665SOL    HW279835   0.612   0.968   2.567
92666SOL     OW79836   9.975  14.543   0.796
92666SOL    HW179837  10.062  14.520   0.829
92666SOL    HW279838   9.967  14.493   0.714
92667SOL     OW79839   9.649   3.818   4.907
92667SOL    HW179840   9.635   3.724   4.922
92667SOL    HW279841   9.686   3.850   4.989
92668SOL     OW79842  12.128   4.792   8.039
92668SOL    HW179843  12.204   4.766   8.090
92668SOL    HW279844  12.156   4.871   7.992
92669SOL     OW79845  12.062   4.903   9.418
92669SOL    HW179846  12.056   4.894   9.513
92669SOL    HW279847  12.150   4.937   9.403
92670SOL     OW79848   9.388   6.468   3.386
92670SOL    HW179849   9.483   6.480   3.390
92670SOL    HW279850   9.376   6.389   3.334
92671SOL     OW79851  12.626   5.896   1.098
92671SOL    HW179852  12.720   5.910   1.085
92671SOL    HW279853  12.621   5.847   1.181
92672SOL     OW79854   9.719  12.401  11.835
92672SOL    HW179855   9.783  12.472  11.828
92672SOL    HW279856   9.639  12.438  11.797
92673SOL     OW79857   9.384   5.353   3.113
92673SOL    HW179858   9.463   5.387   3.154
92673SOL    HW279859   9.370   5.268   3.153
92674SOL     OW79860  12.639   2.774   6.487
92674SOL    HW179861  12.609   2.756   6.398
92674SOL    HW279862  12.559   2.771   6.541
92675SOL     OW79863   1.501   4.689   0.679
92675SOL    HW179864   1.475   4.747   0.751
92675SOL    HW279865   1.504   4.747   0.603
92676SOL     OW79866   3.478   5.820  13.210
92676SOL    HW179867   3.485   5.841  13.303
92676SOL    HW279868   3.385   5.833  13.189
92677SOL     OW79869   6.042   7.078   0.446
92677SOL    HW179870   5.990   7.057   0.369
92677SOL    HW279871   6.100   7.148   0.417
92678SOL     OW79872   6.628   9.199  11.935
92678SOL    HW179873   6.722   9.216  11.935
92678SOL    HW279874   6.614   9.142  11.859
92679SOL     OW79875  12.625   0.360   3.937
92679SOL    HW179876  12.551   0.365   3.877
92679SOL    HW279877  12.697   0.405   3.891
92680SOL     OW79878   1.523   4.403   8.090
92680SOL    HW179879   1.585   4.341   8.052
92680SOL    HW279880   1.557   4.489   8.064
92681SOL     OW79881   8.754  12.759   7.229
92681SOL    HW179882   8.706  12.750   7.146
92681SOL    HW279883   8.822  12.824   7.210
92682SOL     OW79884   8.068   9.192   0.013
92682SOL    HW179885   8.016   9.126   0.058
92682SOL    HW279886   8.072   9.162  14.795
92683SOL     OW79887   0.214   8.340  10.782
92683SOL    HW179888   0.263   8.401  10.837
92683SOL    HW279889   0.236   8.365  10.693
92684SOL     OW79890   1.592  14.012  10.484
92684SOL    HW179891   1.614  13.919  10.489
92684SOL    HW279892   1.675  14.057  10.503
92685SOL     OW79893  14.768   8.902   3.034
92685SOL    HW179894  14.691   8.900   2.977
92685SOL    HW279895  14.741   8.955   3.109
92686SOL     OW79896  11.651   8.078   1.965
92686SOL    HW179897  11.653   8.047   2.055
92686SOL    HW279898  11.697   8.162   1.967
92687SOL     OW79899  13.261  11.844   6.803
92687SOL    HW179900  13.286  11.838   6.895
92687SOL    HW279901  13.186  11.786   6.794
92688SOL     OW79902  12.990   8.220  12.650
92688SOL    HW179903  12.963   8.282  12.582
92688SOL    HW279904  12.907   8.193  12.690
92689SOL     OW79905   3.918  11.119   8.376
92689SOL    HW179906   3.952  11.040   8.333
92689SOL    HW279907   3.853  11.086   8.438
92690SOL     OW79908   0.900   5.824   5.983
92690SOL    HW179909   0.959   5.893   5.952
92690SOL    HW279910   0.886   5.845   6.075
92691SOL     OW79911   4.308   9.600   8.712
92691SOL    HW179912   4.318   9.682   8.761
92691SOL    HW279913   4.312   9.626   8.620
92692SOL     OW79914   3.565  11.494  11.423
92692SOL    HW179915   3.553  11.429  11.354
92692SOL    HW279916   3.511  11.568  11.395
92693SOL     OW79917   7.031  12.550   1.434
92693SOL    HW179918   7.037  12.643   1.412
92693SOL    HW279919   7.098  12.537   1.501
92694SOL     OW79920   2.507  12.950   2.791
92694SOL    HW179921   2.447  12.964   2.718
92694SOL    HW279922   2.582  13.007   2.772
92695SOL     OW79923   0.495  11.682   9.827
92695SOL    HW179924   0.418  11.640   9.788
92695SOL    HW279925   0.564  11.617   9.821
92696SOL     OW79926  11.748   8.518   7.154
92696SOL    HW179927  11.762   8.425   7.134
92696SOL    HW279928  11.679   8.518   7.220
92697SOL     OW79929   9.234   3.577   6.230
92697SOL    HW179930   9.321   3.566   6.268
92697SOL    HW279931   9.179   3.605   6.304
92698SOL     OW79932  13.800   3.929  11.950
92698SOL    HW179933  13.887   3.925  11.911
92698SOL    HW279934  13.814   3.971  12.035
92699SOL     OW79935   7.280  11.056   9.351
92699SOL    HW179936   7.243  11.128   9.402
92699SOL    HW279937   7.361  11.092   9.314
92700SOL     OW79938   4.227   0.818   9.648
92700SOL    HW179939   4.280   0.847   9.723
92700SOL    HW279940   4.146   0.867   9.656
92701SOL     OW79941  10.884   3.809   0.367
92701SOL    HW179942  10.905   3.753   0.442
92701SOL    HW279943  10.885   3.751   0.292
92702SOL     OW79944   9.550   0.707   0.768
92702SOL    HW179945   9.518   0.646   0.834
92702SOL    HW279946   9.644   0.713   0.785
92703SOL     OW79947  12.332   0.551   7.105
92703SOL    HW179948  12.314   0.475   7.162
92703SOL    HW279949  12.278   0.536   7.028
92704SOL     OW79950   1.895   7.974   5.183
92704SOL    HW179951   1.922   7.907   5.121
92704SOL    HW279952   1.820   8.017   5.141
92705SOL     OW79953   8.412   9.528  11.173
92705SOL    HW179954   8.380   9.616  11.194
92705SOL    HW279955   8.372   9.507  11.089
92706SOL     OW79956   9.000   6.164  10.247
92706SOL    HW179957   8.925   6.212  10.281
92706SOL    HW279958   9.012   6.197  10.158
92707SOL     OW79959   8.067   9.702   1.981
92707SOL    HW179960   8.129   9.745   2.041
92707SOL    HW279961   8.123   9.654   1.920
92708SOL     OW79962  10.461   9.188   6.216
92708SOL    HW179963  10.467   9.128   6.291
92708SOL    HW279964  10.546   9.179   6.172
92709SOL     OW79965   9.447   3.835   5.648
92709SOL    HW179966   9.379   3.781   5.606
92709SOL    HW279967   9.487   3.883   5.576
92710SOL     OW79968  10.928   6.979   7.406
92710SOL    HW179969  10.922   6.987   7.311
92710SOL    HW279970  10.881   7.055   7.440
92711SOL     OW79971   2.008   3.268  14.137
92711SOL    HW179972   2.041   3.244  14.224
92711SOL    HW279973   2.082   3.311  14.094
92712SOL     OW79974   5.003  13.110   1.868
92712SOL    HW179975   4.918  13.131   1.830
92712SOL    HW279976   5.060  13.092   1.793
92713SOL     OW79977   9.470  11.899   5.666
92713SOL    HW179978   9.533  11.864   5.729
92713SOL    HW279979   9.496  11.860   5.582
92714SOL     OW79980   8.509  13.849  13.346
92714SOL    HW179981   8.505  13.925  13.288
92714SOL    HW279982   8.422  13.842  13.384
92715SOL     OW79983   9.935   1.046   4.035
92715SOL    HW179984   9.888   1.101   3.972
92715SOL    HW279985   9.866   1.011   4.092
92716SOL     OW79986  10.070   9.491   9.605
92716SOL    HW179987  10.125   9.536   9.669
92716SOL    HW279988  10.131   9.454   9.542
92717SOL     OW79989   9.832   7.391   2.426
92717SOL    HW179990   9.816   7.377   2.332
92717SOL    HW279991   9.764   7.454   2.452
92718SOL     OW79992  11.959   5.135  13.904
92718SOL    HW179993  12.006   5.073  13.847
92718SOL    HW279994  11.928   5.081  13.977
92719SOL     OW79995   0.199   9.928  14.571
92719SOL    HW179996   0.174  10.018  14.590
92719SOL    HW279997   0.287   9.918  14.609
92720SOL     OW79998   9.283   4.665   3.260
92720SOL    HW179999   9.217   4.598   3.242
92720SOL    HW280000   9.237   4.748   3.248
92721SOL     OW80001  12.533   4.224   9.022
92721SOL    HW180002  12.437   4.227   9.021
92721SOL    HW280003  12.557   4.281   9.096
92722SOL     OW80004  11.904   8.404   8.113
92722SOL    HW180005  11.820   8.431   8.078
92722SOL    HW280006  11.907   8.443   8.200
92723SOL     OW80007  12.386   9.991   3.287
92723SOL    HW180008  12.346  10.025   3.367
92723SOL    HW280009  12.367   9.897   3.289
92724SOL     OW80010   3.699   2.906  12.986
92724SOL    HW180011   3.682   2.821  13.025
92724SOL    HW280012   3.692   2.968  13.058
92725SOL     OW80013   9.753   7.844  13.305
92725SOL    HW180014   9.754   7.756  13.341
92725SOL    HW280015   9.684   7.890  13.353
92726SOL     OW80016  14.346   1.158   9.991
92726SOL    HW180017  14.393   1.176   9.910
92726SOL    HW280018  14.322   1.065   9.985
92727SOL     OW80019  12.515   9.881   6.024
92727SOL    HW180020  12.535   9.970   5.996
92727SOL    HW280021  12.488   9.889   6.116
92728SOL     OW80022  12.337   6.348   6.132
92728SOL    HW180023  12.426   6.369   6.161
92728SOL    HW280024  12.340   6.356   6.036
92729SOL     OW80025   4.115  12.372  11.125
92729SOL    HW180026   4.062  12.387  11.203
92729SOL    HW280027   4.126  12.458  11.085
92730SOL     OW80028  11.023   2.436   3.763
92730SOL    HW180029  11.115   2.411   3.760
92730SOL    HW280030  11.024   2.531   3.777
92731SOL     OW80031  11.364   8.771   1.204
92731SOL    HW180032  11.293   8.818   1.160
92731SOL    HW280033  11.440   8.783   1.146
92732SOL     OW80034   6.051  10.126   4.458
92732SOL    HW180035   6.060  10.211   4.501
92732SOL    HW280036   5.984  10.140   4.392
92733SOL     OW80037  14.651  10.445  11.750
92733SOL    HW180038  14.671  10.492  11.669
92733SOL    HW280039  14.728  10.390  11.765
92734SOL     OW80040   7.044  13.605   0.015
92734SOL    HW180041   7.058  13.642  14.801
92734SOL    HW280042   6.973  13.541   0.002
92735SOL     OW80043   3.316   6.278   7.714
92735SOL    HW180044   3.393   6.221   7.720
92735SOL    HW280045   3.242   6.217   7.702
92736SOL     OW80046   1.532   2.017  14.685
92736SOL    HW180047   1.481   2.022  14.766
92736SOL    HW280048   1.476   1.968  14.625
92737SOL     OW80049  10.244   1.325   9.456
92737SOL    HW180050  10.290   1.385   9.397
92737SOL    HW280051  10.151   1.339   9.437
92738SOL     OW80052   8.081  13.622   6.457
92738SOL    HW180053   8.159  13.648   6.505
92738SOL    HW280054   8.019  13.693   6.473
92739SOL     OW80055   4.517  12.645   2.847
92739SOL    HW180056   4.445  12.584   2.857
92739SOL    HW280057   4.583  12.598   2.795
92740SOL     OW80058   3.489   8.514   3.030
92740SOL    HW180059   3.401   8.485   3.054
92740SOL    HW280060   3.484   8.530   2.936
92741SOL     OW80061   6.810   1.750   0.759
92741SOL    HW180062   6.901   1.722   0.758
92741SOL    HW280063   6.814   1.845   0.771
92742SOL     OW80064  13.398   9.812   6.222
92742SOL    HW180065  13.438   9.897   6.238
92742SOL    HW280066  13.367   9.784   6.308
92743SOL     OW80067   1.831  14.730  13.382
92743SOL    HW180068   1.764  14.799  13.383
92743SOL    HW280069   1.814  14.679  13.461
92744SOL     OW80070   5.487   5.982  13.717
92744SOL    HW180071   5.489   5.945  13.629
92744SOL    HW280072   5.569   6.031  13.724
92745SOL     OW80073  13.570   8.377   2.628
92745SOL    HW180074  13.535   8.460   2.595
92745SOL    HW280075  13.550   8.379   2.722
92746SOL     OW80076   1.610   3.512   9.251
92746SOL    HW180077   1.600   3.431   9.301
92746SOL    HW280078   1.522   3.550   9.250
92747SOL     OW80079   5.868   4.685   5.819
92747SOL    HW180080   5.876   4.650   5.908
92747SOL    HW280081   5.944   4.742   5.809
92748SOL     OW80082   4.411   1.884   5.859
92748SOL    HW180083   4.322   1.880   5.895
92748SOL    HW280084   4.453   1.956   5.907
92749SOL     OW80085   6.637   3.003   0.237
92749SOL    HW180086   6.720   3.007   0.189
92749SOL    HW280087   6.579   2.951   0.181
92750SOL     OW80088   7.765   0.067   5.603
92750SOL    HW180089   7.802   0.006   5.667
92750SOL    HW280090   7.778   0.023   5.519
92751SOL     OW80091  10.720  11.211  14.097
92751SOL    HW180092  10.769  11.132  14.119
92751SOL    HW280093  10.640  11.179  14.055
92752SOL     OW80094   4.314   0.983   9.857
92752SOL    HW180095   4.391   0.926   9.855
92752SOL    HW280096   4.344   1.062   9.902
92753SOL     OW80097  12.090   2.350   6.227
92753SOL    HW180098  12.157   2.381   6.288
92753SOL    HW280099  12.139   2.300   6.161
92754SOL     OW80100  12.983  12.878   2.562
92754SOL    HW180101  13.015  12.968   2.572
92754SOL    HW280102  12.894  12.881   2.597
92755SOL     OW80103   7.909   1.889   1.908
92755SOL    HW180104   7.840   1.844   1.860
92755SOL    HW280105   7.887   1.982   1.902
92756SOL     OW80106   4.493  10.837   4.394
92756SOL    HW180107   4.572  10.796   4.357
92756SOL    HW280108   4.422  10.776   4.372
92757SOL     OW80109  13.225  13.191   1.532
92757SOL    HW180110  13.234  13.187   1.627
92757SOL    HW280111  13.193  13.279   1.514
92758SOL     OW80112   2.753  13.169   0.529
92758SOL    HW180113   2.768  13.179   0.435
92758SOL    HW280114   2.659  13.152   0.537
92759SOL     OW80115   3.285   2.152   2.139
92759SOL    HW180116   3.294   2.100   2.219
92759SOL    HW280117   3.255   2.090   2.073
92760SOL     OW80118   9.767  13.144   1.174
92760SOL    HW180119   9.823  13.156   1.251
92760SOL    HW280120   9.776  13.226   1.126
92761SOL     OW80121   5.726   5.658   0.767
92761SOL    HW180122   5.664   5.725   0.799
92761SOL    HW280123   5.787   5.706   0.712
92762SOL     OW80124   1.910   2.561  11.248
92762SOL    HW180125   1.835   2.505  11.269
92762SOL    HW280126   1.938   2.533  11.160
92763SOL     OW80127   1.452  11.261  13.044
92763SOL    HW180128   1.363  11.286  13.017
92763SOL    HW280129   1.479  11.329  13.105
92764SOL     OW80130   9.809   6.512   5.623
92764SOL    HW180131   9.873   6.566   5.577
92764SOL    HW280132   9.859   6.434   5.649
92765SOL     OW80133   4.836   2.486   2.264
92765SOL    HW180134   4.924   2.470   2.296
92765SOL    HW280135   4.838   2.456   2.173
92766SOL     OW80136   7.383  11.352   6.987
92766SOL    HW180137   7.351  11.381   6.902
92766SOL    HW280138   7.359  11.259   6.991
92767SOL     OW80139  10.397  10.951   7.306
92767SOL    HW180140  10.390  10.948   7.210
92767SOL    HW280141  10.308  10.930   7.336
92768SOL     OW80142  11.743  13.822  14.506
92768SOL    HW180143  11.766  13.874  14.430
92768SOL    HW280144  11.826  13.802  14.549
92769SOL     OW80145  13.557   7.207  11.092
92769SOL    HW180146  13.499   7.176  11.022
92769SOL    HW280147  13.609   7.276  11.050
92770SOL     OW80148  10.984   3.743   1.869
92770SOL    HW180149  10.909   3.747   1.810
92770SOL    HW280150  10.945   3.736   1.956
92771SOL     OW80151   6.634   1.669   6.259
92771SOL    HW180152   6.657   1.718   6.338
92771SOL    HW280153   6.565   1.719   6.218
92772SOL     OW80154   9.187   3.547  12.184
92772SOL    HW180155   9.266   3.601  12.176
92772SOL    HW280156   9.123   3.603  12.228
92773SOL     OW80157   9.032   3.865  10.034
92773SOL    HW180158   9.111   3.892   9.988
92773SOL    HW280159   8.965   3.927  10.006
92774SOL     OW80160  12.753   2.389  11.437
92774SOL    HW180161  12.809   2.446  11.384
92774SOL    HW280162  12.780   2.406  11.527
92775SOL     OW80163   9.713   1.455  11.870
92775SOL    HW180164   9.745   1.468  11.781
92775SOL    HW280165   9.618   1.446  11.860
92776SOL     OW80166   9.654  12.236  12.501
92776SOL    HW180167   9.685  12.174  12.434
92776SOL    HW280168   9.685  12.199  12.584
92777SOL     OW80169   4.782  10.525   4.606
92777SOL    HW180170   4.707  10.466   4.596
92777SOL    HW280171   4.779  10.582   4.530
92778SOL     OW80172   2.578  12.541  11.822
92778SOL    HW180173   2.492  12.562  11.786
92778SOL    HW280174   2.616  12.626  11.845
92779SOL     OW80175   7.416   5.959  11.552
92779SOL    HW180176   7.439   5.868  11.538
92779SOL    HW280177   7.467   5.986  11.629
92780SOL     OW80178   2.855   1.232   6.302
92780SOL    HW180179   2.862   1.174   6.226
92780SOL    HW280180   2.798   1.303   6.273
92781SOL     OW80181  13.275   4.729   5.220
92781SOL    HW180182  13.271   4.648   5.270
92781SOL    HW280183  13.368   4.738   5.196
92782SOL     OW80184  10.798   3.625   4.149
92782SOL    HW180185  10.716   3.585   4.177
92782SOL    HW280186  10.772   3.688   4.081
92783SOL     OW80187  12.599   8.953  14.142
92783SOL    HW180188  12.535   9.002  14.089
92783SOL    HW280189  12.683   8.971  14.100
92784SOL     OW80190   4.362  12.664   7.316
92784SOL    HW180191   4.439  12.676   7.372
92784SOL    HW280192   4.293  12.636   7.377
92785SOL     OW80193   5.012  13.614   8.676
92785SOL    HW180194   4.997  13.520   8.686
92785SOL    HW280195   4.925  13.653   8.681
92786SOL     OW80196   5.270   9.863  12.578
92786SOL    HW180197   5.284   9.826  12.490
92786SOL    HW280198   5.216   9.797  12.622
92787SOL     OW80199   8.844  13.797  14.665
92787SOL    HW180200   8.886  13.710  14.664
92787SOL    HW280201   8.857  13.828  14.755
92788SOL     OW80202   8.767  13.992   6.014
92788SOL    HW180203   8.680  14.016   5.983
92788SOL    HW280204   8.821  14.069   5.997
92789SOL     OW80205   9.478   4.970  13.755
92789SOL    HW180206   9.386   4.985  13.775
92789SOL    HW280207   9.524   5.041  13.799
92790SOL     OW80208   5.526   1.400   0.572
92790SOL    HW180209   5.464   1.369   0.507
92790SOL    HW280210   5.524   1.495   0.565
92791SOL     OW80211  13.693   2.836  13.340
92791SOL    HW180212  13.645   2.867  13.417
92791SOL    HW280213  13.632   2.849  13.267
92792SOL     OW80214  10.510   2.555  11.242
92792SOL    HW180215  10.418   2.539  11.261
92792SOL    HW280216  10.526   2.644  11.273
92793SOL     OW80217   7.238   9.373   3.358
92793SOL    HW180218   7.196   9.391   3.275
92793SOL    HW280219   7.200   9.290   3.387
92794SOL     OW80220  12.568   6.084   4.523
92794SOL    HW180221  12.625   6.009   4.538
92794SOL    HW280222  12.480   6.048   4.522
92795SOL     OW80223   1.374   0.781  11.988
92795SOL    HW180224   1.437   0.714  11.962
92795SOL    HW280225   1.359   0.764  12.081
92796SOL     OW80226  11.203  14.772  11.613
92796SOL    HW180227  11.279  14.821  11.645
92796SOL    HW280228  11.173  14.724  11.690
92797SOL     OW80229  11.494  10.791  13.695
92797SOL    HW180230  11.518  10.799  13.788
92797SOL    HW280231  11.398  10.793  13.695
92798SOL     OW80232  14.538   1.027   0.755
92798SOL    HW180233  14.566   1.045   0.845
92798SOL    HW280234  14.488   1.104   0.729
92799SOL     OW80235   4.629   9.627   1.647
92799SOL    HW180236   4.539   9.614   1.678
92799SOL    HW280237   4.660   9.539   1.626
92800SOL     OW80238   9.309   7.253   9.167
92800SOL    HW180239   9.391   7.238   9.213
92800SOL    HW280240   9.319   7.207   9.084
92801SOL     OW80241   4.756  12.770   0.887
92801SOL    HW180242   4.684  12.770   0.824
92801SOL    HW280243   4.834  12.757   0.833
92802SOL     OW80244   5.392   8.067  11.498
92802SOL    HW180245   5.360   7.987  11.454
92802SOL    HW280246   5.321   8.130  11.486
92803SOL     OW80247   4.101   4.088   6.811
92803SOL    HW180248   4.140   4.001   6.799
92803SOL    HW280249   4.043   4.078   6.885
92804SOL     OW80250   2.155  13.363   6.447
92804SOL    HW180251   2.242  13.346   6.412
92804SOL    HW280252   2.127  13.443   6.403
92805SOL     OW80253   4.832   2.938   3.406
92805SOL    HW180254   4.813   2.858   3.357
92805SOL    HW280255   4.920   2.925   3.441
92806SOL     OW80256   8.067   5.757  12.700
92806SOL    HW180257   8.058   5.845  12.737
92806SOL    HW280258   8.157   5.753  12.669
92807SOL     OW80259  13.799  12.700  13.983
92807SOL    HW180260  13.844  12.737  14.059
92807SOL    HW280261  13.706  12.714  14.000
92808SOL     OW80262   3.685   1.332   3.404
92808SOL    HW180263   3.674   1.415   3.357
92808SOL    HW280264   3.596   1.300   3.418
92809SOL     OW80265  11.141   6.862  12.759
92809SOL    HW180266  11.134   6.767  12.747
92809SOL    HW280267  11.200   6.872  12.834
92810SOL     OW80268  13.627   4.942   6.952
92810SOL    HW180269  13.553   4.888   6.926
92810SOL    HW280270  13.648   4.993   6.874
92811SOL     OW80271   0.755  13.444  10.051
92811SOL    HW180272   0.761  13.420   9.959
92811SOL    HW280273   0.728  13.364  10.096
92812SOL     OW80274   2.529  11.435  11.929
92812SOL    HW180275   2.486  11.350  11.938
92812SOL    HW280276   2.601  11.432  11.993
92813SOL     OW80277   4.598   1.824  11.104
92813SOL    HW180278   4.690   1.851  11.106
92813SOL    HW280279   4.560   1.859  11.184
92814SOL     OW80280   3.157   5.716   2.319
92814SOL    HW180281   3.228   5.655   2.301
92814SOL    HW280282   3.078   5.663   2.317
92815SOL     OW80283  14.337  12.102   5.152
92815SOL    HW180284  14.320  12.140   5.066
92815SOL    HW280285  14.361  12.011   5.133
92816SOL     OW80286   7.136   8.429  10.103
92816SOL    HW180287   7.126   8.497  10.170
92816SOL    HW280288   7.093   8.465  10.025
92817SOL     OW80289   8.975   7.660   6.949
92817SOL    HW180290   8.959   7.628   6.860
92817SOL    HW280291   8.889   7.693   6.977
92818SOL     OW80292  12.712  14.123   8.074
92818SOL    HW180293  12.690  14.066   8.148
92818SOL    HW280294  12.791  14.085   8.037
92819SOL     OW80295   6.639  13.007   0.980
92819SOL    HW180296   6.649  13.076   1.046
92819SOL    HW280297   6.552  13.022   0.944
92820SOL     OW80298   3.096   5.088   7.467
92820SOL    HW180299   3.079   5.175   7.504
92820SOL    HW280300   3.070   5.027   7.536
92821SOL     OW80301   6.495   9.448   2.903
92821SOL    HW180302   6.513   9.356   2.883
92821SOL    HW280303   6.458   9.484   2.823
92822SOL     OW80304   3.418   1.363  12.709
92822SOL    HW180305   3.441   1.453  12.730
92822SOL    HW280306   3.467   1.343  12.629
92823SOL     OW80307   8.094   2.925   5.006
92823SOL    HW180308   8.189   2.917   4.992
92823SOL    HW280309   8.056   2.922   4.919
92824SOL     OW80310   9.873   9.510   8.994
92824SOL    HW180311   9.829   9.433   8.957
92824SOL    HW280312   9.806   9.552   9.048
92825SOL     OW80313   8.981  10.069   2.454
92825SOL    HW180314   9.036  10.097   2.381
92825SOL    HW280315   8.945  10.151   2.489
92826SOL     OW80316  11.795   0.119   6.269
92826SOL    HW180317  11.759   0.030   6.270
92826SOL    HW280318  11.889   0.108   6.282
92827SOL     OW80319   2.641  13.339   0.924
92827SOL    HW180320   2.729  13.304   0.915
92827SOL    HW280321   2.654  13.432   0.943
92828SOL     OW80322   8.090  12.043   8.526
92828SOL    HW180323   8.041  12.126   8.524
92828SOL    HW280324   8.140  12.047   8.608
92829SOL     OW80325  11.262  11.772  13.247
92829SOL    HW180326  11.176  11.792  13.284
92829SOL    HW280327  11.275  11.678  13.265
92830SOL     OW80328   1.634   8.196  10.084
92830SOL    HW180329   1.706   8.219  10.025
92830SOL    HW280330   1.674   8.195  10.171
92831SOL     OW80331   9.172   1.265   6.704
92831SOL    HW180332   9.222   1.316   6.641
92831SOL    HW280333   9.166   1.178   6.664
92832SOL     OW80334  13.712   1.783   8.503
92832SOL    HW180335  13.671   1.698   8.490
92832SOL    HW280336  13.653   1.845   8.460
92833SOL     OW80337   9.195  14.120  10.331
92833SOL    HW180338   9.238  14.055  10.277
92833SOL    HW280339   9.262  14.185  10.350
92834SOL     OW80340   9.102   5.380   9.748
92834SOL    HW180341   9.158   5.456   9.760
92834SOL    HW280342   9.101   5.365   9.654
92835SOL     OW80343  14.414  14.343   2.142
92835SOL    HW180344  14.450  14.420   2.186
92835SOL    HW280345  14.335  14.323   2.190
92836SOL     OW80346  10.515   5.107   1.010
92836SOL    HW180347  10.460   5.184   1.019
92836SOL    HW280348  10.459   5.042   0.966
92837SOL     OW80349   8.735  14.480   1.123
92837SOL    HW180350   8.790  14.401   1.115
92837SOL    HW280351   8.741  14.504   1.215
92838SOL     OW80352   2.514   8.159   4.865
92838SOL    HW180353   2.565   8.140   4.786
92838SOL    HW280354   2.566   8.120   4.936
92839SOL     OW80355  12.139   8.166   4.892
92839SOL    HW180356  12.227   8.170   4.930
92839SOL    HW280357  12.123   8.072   4.881
92840SOL     OW80358   9.504   0.890   8.314
92840SOL    HW180359   9.587   0.883   8.267
92840SOL    HW280360   9.528   0.877   8.406
92841SOL     OW80361   4.193   7.327   9.078
92841SOL    HW180362   4.104   7.298   9.100
92841SOL    HW280363   4.241   7.245   9.061
92842SOL     OW80364   2.972   3.834  11.555
92842SOL    HW180365   2.938   3.923  11.552
92842SOL    HW280366   2.923   3.787  11.488
92843SOL     OW80367   0.842   7.736   1.948
92843SOL    HW180368   0.866   7.657   1.899
92843SOL    HW280369   0.842   7.806   1.883
92844SOL     OW80370   5.685   0.873   7.373
92844SOL    HW180371   5.713   0.965   7.376
92844SOL    HW280372   5.649   0.863   7.284
92845SOL     OW80373  12.962   8.213   3.057
92845SOL    HW180374  13.020   8.278   3.097
92845SOL    HW280375  12.914   8.262   2.990
92846SOL     OW80376   5.156  12.122  13.211
92846SOL    HW180377   5.084  12.141  13.151
92846SOL    HW280378   5.115  12.114  13.296
92847SOL     OW80379  11.553   3.263   2.519
92847SOL    HW180380  11.598   3.224   2.593
92847SOL    HW280381  11.549   3.356   2.540
92848SOL     OW80382   3.307   1.579  13.847
92848SOL    HW180383   3.376   1.592  13.782
92848SOL    HW280384   3.284   1.667  13.875
92849SOL     OW80385   3.345   7.184  14.714
92849SOL    HW180386   3.396   7.265  14.716
92849SOL    HW280387   3.407   7.117  14.743
92850SOL     OW80388  12.910   1.124   2.484
92850SOL    HW180389  12.856   1.187   2.437
92850SOL    HW280390  12.999   1.142   2.456
92851SOL     OW80391   4.103  12.830   5.947
92851SOL    HW180392   4.091  12.771   5.873
92851SOL    HW280393   4.192  12.812   5.977
92852SOL     OW80394  13.059   4.439   1.202
92852SOL    HW180395  12.991   4.429   1.136
92852SOL    HW280396  13.140   4.452   1.151
92853SOL     OW80397  10.282   9.581   8.361
92853SOL    HW180398  10.283   9.564   8.267
92853SOL    HW280399  10.222   9.655   8.372
92854SOL     OW80400  14.490   1.930  13.721
92854SOL    HW180401  14.465   1.866  13.653
92854SOL    HW280402  14.419   1.924  13.785
92855SOL     OW80403   2.560  13.994   5.936
92855SOL    HW180404   2.568  13.901   5.916
92855SOL    HW280405   2.469  14.016   5.916
92856SOL     OW80406   3.147  13.539   5.778
92856SOL    HW180407   3.117  13.488   5.702
92856SOL    HW280408   3.204  13.480   5.826
92857SOL     OW80409  12.550   7.998  11.812
92857SOL    HW180410  12.577   7.909  11.788
92857SOL    HW280411  12.548   7.998  11.908
92858SOL     OW80412   6.646   8.686   9.754
92858SOL    HW180413   6.606   8.649   9.675
92858SOL    HW280414   6.605   8.771   9.765
92859SOL     OW80415   7.109   2.369   5.343
92859SOL    HW180416   7.166   2.386   5.418
92859SOL    HW280417   7.022   2.362   5.381
92860SOL     OW80418   1.428   0.311   3.804
92860SOL    HW180419   1.335   0.329   3.787
92860SOL    HW280420   1.431   0.216   3.819
92861SOL     OW80421  11.785   8.894   1.901
92861SOL    HW180422  11.825   8.973   1.938
92861SOL    HW280423  11.731   8.925   1.829
92862SOL     OW80424   6.040   7.196  10.984
92862SOL    HW180425   6.016   7.281  11.020
92862SOL    HW280426   6.136   7.198  10.978
92863SOL     OW80427   3.982   4.228   0.816
92863SOL    HW180428   3.975   4.151   0.871
92863SOL    HW280429   3.950   4.200   0.730
92864SOL     OW80430   2.938   4.486   4.852
92864SOL    HW180431   3.017   4.539   4.860
92864SOL    HW280432   2.929   4.468   4.759
92865SOL     OW80433  12.722   9.476  12.529
92865SOL    HW180434  12.673   9.478  12.611
92865SOL    HW280435  12.733   9.568  12.506
92866SOL     OW80436   6.899   1.858  13.494
92866SOL    HW180437   6.905   1.860  13.589
92866SOL    HW280438   6.835   1.789  13.475
92867SOL     OW80439   8.179   2.970  11.599
92867SOL    HW180440   8.170   2.986  11.693
92867SOL    HW280441   8.207   2.878  11.594
92868SOL     OW80442   1.658   5.632  10.201
92868SOL    HW180443   1.748   5.626  10.233
92868SOL    HW280444   1.662   5.690  10.125
92869SOL     OW80445  13.184   9.275  13.876
92869SOL    HW180446  13.162   9.304  13.964
92869SOL    HW280447  13.279   9.265  13.877
92870SOL     OW80448   5.411  14.298  14.254
92870SOL    HW180449   5.478  14.236  14.283
92870SOL    HW280450   5.328  14.261  14.286
92871SOL     OW80451   7.072   4.409   6.454
92871SOL    HW180452   6.989   4.408   6.502
92871SOL    HW280453   7.128   4.347   6.501
92872SOL     OW80454  13.082   4.761   5.036
92872SOL    HW180455  13.126   4.815   4.971
92872SOL    HW280456  13.146   4.751   5.106
92873SOL     OW80457   0.905  11.374   8.550
92873SOL    HW180458   0.810  11.363   8.545
92873SOL    HW280459   0.923  11.384   8.644
92874SOL     OW80460   7.067  11.625   5.882
92874SOL    HW180461   7.134  11.558   5.873
92874SOL    HW280462   7.023  11.626   5.796
92875SOL     OW80463   0.703   4.497   9.244
92875SOL    HW180464   0.731   4.419   9.195
92875SOL    HW280465   0.621   4.523   9.203
92876SOL     OW80466  13.835   6.948   9.733
92876SOL    HW180467  13.815   6.860   9.699
92876SOL    HW280468  13.902   6.981   9.673
92877SOL     OW80469   9.795  14.802   4.127
92877SOL    HW180470   9.852   0.003   4.107
92877SOL    HW280471   9.706  14.837   4.116
92878SOL     OW80472  14.159   5.065   4.180
92878SOL    HW180473  14.199   5.152   4.173
92878SOL    HW280474  14.142   5.039   4.089
92879SOL     OW80475   4.583   2.368  12.651
92879SOL    HW180476   4.643   2.427  12.698
92879SOL    HW280477   4.529   2.426  12.598
92880SOL     OW80478  10.325   4.002   6.122
92880SOL    HW180479  10.280   4.024   6.040
92880SOL    HW280480  10.257   4.006   6.189
92881SOL     OW80481   1.568  14.476  11.047
92881SOL    HW180482   1.497  14.462  10.985
92881SOL    HW280483   1.646  14.483  10.993
92882SOL     OW80484   8.628  11.794  10.761
92882SOL    HW180485   8.604  11.738  10.688
92882SOL    HW280486   8.633  11.735  10.836
92883SOL     OW80487   6.568   2.324  13.837
92883SOL    HW180488   6.499   2.310  13.901
92883SOL    HW280489   6.589   2.417  13.843
92884SOL     OW80490   2.455  14.118   7.521
92884SOL    HW180491   2.463  14.022   7.521
92884SOL    HW280492   2.413  14.138   7.438
92885SOL     OW80493   9.722   9.557   1.755
92885SOL    HW180494   9.690   9.572   1.844
92885SOL    HW280495   9.660   9.495   1.717
92886SOL     OW80496   7.400   7.180   5.090
92886SOL    HW180497   7.342   7.174   5.166
92886SOL    HW280498   7.401   7.273   5.068
92887SOL     OW80499  12.211  12.873   2.308
92887SOL    HW180500  12.145  12.804   2.298
92887SOL    HW280501  12.257  12.874   2.224
92888SOL     OW80502   1.713   4.270   4.869
92888SOL    HW180503   1.642   4.330   4.893
92888SOL    HW280504   1.789   4.300   4.919
92889SOL     OW80505   7.829   2.102   2.726
92889SOL    HW180506   7.808   2.012   2.753
92889SOL    HW280507   7.896   2.092   2.659
92890SOL     OW80508  14.029   2.812   7.053
92890SOL    HW180509  14.030   2.907   7.043
92890SOL    HW280510  13.961   2.782   6.992
92891SOL     OW80511   0.196   5.868  12.904
92891SOL    HW180512   0.194   5.781  12.864
92891SOL    HW280513   0.117   5.871  12.958
92892SOL     OW80514  13.567  12.096  11.743
92892SOL    HW180515  13.498  12.131  11.799
92892SOL    HW280516  13.644  12.091  11.800
92893SOL     OW80517  11.166   6.738   4.861
92893SOL    HW180518  11.229   6.673   4.893
92893SOL    HW280519  11.218   6.817   4.847
92894SOL     OW80520   7.573   8.543   3.858
92894SOL    HW180521   7.580   8.477   3.927
92894SOL    HW280522   7.540   8.621   3.902
92895SOL     OW80523   7.181   7.321  13.171
92895SOL    HW180524   7.095   7.342  13.134
92895SOL    HW280525   7.241   7.384  13.130
92896SOL     OW80526  13.999   2.314   2.060
92896SOL    HW180527  13.955   2.270   1.987
92896SOL    HW280528  13.943   2.389   2.080
92897SOL     OW80529   8.490   2.056  14.465
92897SOL    HW180530   8.516   2.006  14.542
92897SOL    HW280531   8.448   2.135  14.501
92898SOL     OW80532   5.347   9.307  14.168
92898SOL    HW180533   5.302   9.226  14.145
92898SOL    HW280534   5.421   9.311  14.108
92899SOL     OW80535   8.282   1.860   7.510
92899SOL    HW180536   8.273   1.778   7.462
92899SOL    HW280537   8.195   1.876   7.547
92900SOL     OW80538   3.193  12.529   9.593
92900SOL    HW180539   3.231  12.607   9.554
92900SOL    HW280540   3.108  12.519   9.550
92901SOL     OW80541  13.996  10.811   3.997
92901SOL    HW180542  13.960  10.863   4.070
92901SOL    HW280543  13.923  10.803   3.935
92902SOL     OW80544   3.008  11.836   3.197
92902SOL    HW180545   3.013  11.928   3.223
92902SOL    HW280546   2.915  11.816   3.199
92903SOL     OW80547   3.275  12.098   2.545
92903SOL    HW180548   3.246  12.057   2.463
92903SOL    HW280549   3.319  12.028   2.593
92904SOL     OW80550   6.113  12.964   5.349
92904SOL    HW180551   6.108  13.058   5.332
92904SOL    HW280552   6.206  12.945   5.354
92905SOL     OW80553   4.616  12.361  13.888
92905SOL    HW180554   4.599  12.315  13.970
92905SOL    HW280555   4.529  12.385  13.856
92906SOL     OW80556   8.048  14.815  10.754
92906SOL    HW180557   7.992  14.794  10.829
92906SOL    HW280558   8.130  14.846  10.793
92907SOL     OW80559   5.156   5.680   5.929
92907SOL    HW180560   5.138   5.749   5.865
92907SOL    HW280561   5.238   5.707   5.971
92908SOL     OW80562   6.372  13.617   5.168
92908SOL    HW180563   6.330  13.568   5.238
92908SOL    HW280564   6.343  13.708   5.181
92909SOL     OW80565   5.910   6.775   4.730
92909SOL    HW180566   5.853   6.711   4.773
92909SOL    HW280567   5.976   6.722   4.686
92910SOL     OW80568   2.454  14.169  11.732
92910SOL    HW180569   2.529  14.180  11.673
92910SOL    HW280570   2.420  14.258  11.744
92911SOL     OW80571  13.794   5.732   0.211
92911SOL    HW180572  13.834   5.645   0.205
92911SOL    HW280573  13.801   5.756   0.303
92912SOL     OW80574  13.214   3.849   9.419
92912SOL    HW180575  13.191   3.933   9.459
92912SOL    HW280576  13.195   3.861   9.326
92913SOL     OW80577   8.080   1.152  12.628
92913SOL    HW180578   8.018   1.137  12.699
92913SOL    HW280579   8.112   1.065  12.604
92914SOL     OW80580   4.055   4.785   5.799
92914SOL    HW180581   4.116   4.857   5.785
92914SOL    HW280582   3.969   4.827   5.804
92915SOL     OW80583  13.400  13.471   5.181
92915SOL    HW180584  13.419  13.384   5.214
92915SOL    HW280585  13.471  13.489   5.118
92916SOL     OW80586  11.081   7.119  12.045
92916SOL    HW180587  11.170   7.114  12.079
92916SOL    HW280588  11.032   7.166  12.112
92917SOL     OW80589   5.177   5.728   7.930
92917SOL    HW180590   5.271   5.712   7.932
92917SOL    HW280591   5.137   5.642   7.939
92918SOL     OW80592   2.502  11.711  13.040
92918SOL    HW180593   2.480  11.619  13.024
92918SOL    HW280594   2.594  11.720  13.014
92919SOL     OW80595   7.256   8.528  11.380
92919SOL    HW180596   7.325   8.547  11.316
92919SOL    HW280597   7.210   8.453  11.343
92920SOL     OW80598  10.217  12.339  11.163
92920SOL    HW180599  10.141  12.303  11.209
92920SOL    HW280600  10.255  12.401  11.224
92921SOL     OW80601   3.301  14.763  10.712
92921SOL    HW180602   3.355  14.709  10.655
92921SOL    HW280603   3.246  14.813  10.652
92922SOL     OW80604   0.354   4.779  14.381
92922SOL    HW180605   0.345   4.806  14.472
92922SOL    HW280606   0.443   4.743  14.375
92923SOL     OW80607  14.416  12.997   8.470
92923SOL    HW180608  14.415  13.009   8.565
92923SOL    HW280609  14.353  12.927   8.454
92924SOL     OW80610   8.982   1.216   3.986
92924SOL    HW180611   9.036   1.294   3.998
92924SOL    HW280612   8.983   1.200   3.892
92925SOL     OW80613  10.486  11.088  13.987
92925SOL    HW180614  10.481  11.046  13.901
92925SOL    HW280615  10.428  11.163  13.980
92926SOL     OW80616  12.784  14.465   2.822
92926SOL    HW180617  12.855  14.414   2.784
92926SOL    HW280618  12.822  14.553   2.833
92927SOL     OW80619  11.394   1.071   9.749
92927SOL    HW180620  11.339   1.128   9.802
92927SOL    HW280621  11.456   1.130   9.706
92928SOL     OW80622   7.215   0.681   5.885
92928SOL    HW180623   7.180   0.603   5.841
92928SOL    HW280624   7.138   0.733   5.907
92929SOL     OW80625  10.170  14.364   3.639
92929SOL    HW180626  10.172  14.326   3.551
92929SOL    HW280627  10.151  14.457   3.624
92930SOL     OW80628  14.251  12.808   0.862
92930SOL    HW180629  14.245  12.893   0.818
92930SOL    HW280630  14.340  12.778   0.843
92931SOL     OW80631  13.411  12.619   7.455
92931SOL    HW180632  13.395  12.703   7.499
92931SOL    HW280633  13.493  12.587   7.495
92932SOL     OW80634   0.618  13.908   0.006
92932SOL    HW180635   0.682  13.844  14.847
92932SOL    HW280636   0.648  13.930   0.094
92933SOL     OW80637   1.430   2.828   7.295
92933SOL    HW180638   1.414   2.912   7.252
92933SOL    HW280639   1.344   2.796   7.321
92934SOL     OW80640   9.223   4.774   4.722
92934SOL    HW180641   9.170   4.701   4.691
92934SOL    HW280642   9.166   4.851   4.713
92935SOL     OW80643   8.764   1.516   5.237
92935SOL    HW180644   8.704   1.528   5.311
92935SOL    HW280645   8.851   1.509   5.277
92936SOL     OW80646   3.287  11.764  10.651
92936SOL    HW180647   3.371  11.811  10.645
92936SOL    HW280648   3.221  11.833  10.649
92937SOL     OW80649   1.496   1.495  14.497
92937SOL    HW180650   1.507   1.465  14.587
92937SOL    HW280651   1.484   1.414  14.447
92938SOL     OW80652   0.911   5.418   4.455
92938SOL    HW180653   0.973   5.419   4.527
92938SOL    HW280654   0.936   5.342   4.402
92939SOL     OW80655   4.237   1.305   1.623
92939SOL    HW180656   4.230   1.308   1.528
92939SOL    HW280657   4.331   1.316   1.641
92940SOL     OW80658  11.884   8.957   6.238
92940SOL    HW180659  11.973   8.985   6.213
92940SOL    HW280660  11.854   9.024   6.298
92941SOL     OW80661   1.273  10.155   1.330
92941SOL    HW180662   1.206  10.109   1.380
92941SOL    HW280663   1.232  10.239   1.307
92942SOL     OW80664   9.215  11.460   8.058
92942SOL    HW180665   9.242  11.518   8.129
92942SOL    HW280666   9.221  11.514   7.979
92943SOL     OW80667   0.434   9.376   5.841
92943SOL    HW180668   0.465   9.286   5.849
92943SOL    HW280669   0.385   9.392   5.921
92944SOL     OW80670  11.572   2.499  11.910
92944SOL    HW180671  11.645   2.535  11.961
92944SOL    HW280672  11.535   2.575  11.865
92945SOL     OW80673  11.671  13.127   2.248
92945SOL    HW180674  11.591  13.079   2.268
92945SOL    HW280675  11.713  13.140   2.334
92946SOL     OW80676   3.838  14.193   9.869
92946SOL    HW180677   3.800  14.192   9.957
92946SOL    HW280678   3.763  14.186   9.810
92947SOL     OW80679   1.766  13.069  13.349
92947SOL    HW180680   1.718  13.016  13.412
92947SOL    HW280681   1.846  13.020  13.331
92948SOL     OW80682   8.217   6.447  12.928
92948SOL    HW180683   8.138   6.497  12.951
92948SOL    HW280684   8.204   6.423  12.836
92949SOL     OW80685   9.605   2.102   6.830
92949SOL    HW180686   9.582   2.035   6.895
92949SOL    HW280687   9.698   2.118   6.844
92950SOL     OW80688   7.468   4.087   8.229
92950SOL    HW180689   7.444   4.094   8.321
92950SOL    HW280690   7.518   4.005   8.224
92951SOL     OW80691   4.114   1.504   1.767
92951SOL    HW180692   4.118   1.594   1.734
92951SOL    HW280693   4.137   1.450   1.691
92952SOL     OW80694   2.786   0.988   3.698
92952SOL    HW180695   2.797   0.901   3.661
92952SOL    HW280696   2.701   0.986   3.742
92953SOL     OW80697  12.099   4.249  10.544
92953SOL    HW180698  12.184   4.236  10.585
92953SOL    HW280699  12.103   4.338  10.509
92954SOL     OW80700  12.143   0.234  14.861
92954SOL    HW180701  12.099   0.217   0.071
92954SOL    HW280702  12.143   0.150  14.815
92955SOL     OW80703  14.859   0.473   5.443
92955SOL    HW180704   0.038   0.434   5.513
92955SOL    HW280705   0.048   0.485   5.371
92956SOL     OW80706   7.628  12.903   2.701
92956SOL    HW180707   7.698  12.952   2.744
92956SOL    HW280708   7.549  12.956   2.719
92957SOL     OW80709   2.220  10.978  10.341
92957SOL    HW180710   2.165  10.960  10.266
92957SOL    HW280711   2.309  10.963  10.310
92958SOL     OW80712   9.485  12.282  13.149
92958SOL    HW180713   9.395  12.315  13.147
92958SOL    HW280714   9.489  12.228  13.228
92959SOL     OW80715   3.709  14.313   8.909
92959SOL    HW180716   3.704  14.384   8.973
92959SOL    HW280717   3.801  14.285   8.911
92960SOL     OW80718   6.607  11.336   8.335
92960SOL    HW180719   6.684  11.319   8.390
92960SOL    HW280720   6.539  11.363   8.396
92961SOL     OW80721   8.500   3.522   9.541
92961SOL    HW180722   8.571   3.483   9.490
92961SOL    HW280723   8.544   3.562   9.616
92962SOL     OW80724   6.186  13.671  11.291
92962SOL    HW180725   6.243  13.641  11.361
92962SOL    HW280726   6.243  13.674  11.214
92963SOL     OW80727   8.225  11.184   5.798
92963SOL    HW180728   8.262  11.250   5.858
92963SOL    HW280729   8.249  11.100   5.837
92964SOL     OW80730  12.118   4.478  11.250
92964SOL    HW180731  12.024   4.459  11.248
92964SOL    HW280732  12.155   4.428  11.178
92965SOL     OW80733   0.667   6.384  12.723
92965SOL    HW180734   0.672   6.466  12.770
92965SOL    HW280735   0.699   6.318  12.784
92966SOL     OW80736   7.154   6.390   0.768
92966SOL    HW180737   7.155   6.484   0.752
92966SOL    HW280738   7.147   6.351   0.681
92967SOL     OW80739   7.407  12.714   0.242
92967SOL    HW180740   7.462  12.788   0.266
92967SOL    HW280741   7.350  12.748   0.172
92968SOL     OW80742  12.958   0.334   9.082
92968SOL    HW180743  12.925   0.364   9.167
92968SOL    HW280744  12.980   0.414   9.035
92969SOL     OW80745   1.671  12.716  13.974
92969SOL    HW180746   1.707  12.723  14.063
92969SOL    HW280747   1.632  12.802  13.957
92970SOL     OW80748  12.971   5.007   9.870
92970SOL    HW180749  13.037   5.005   9.939
92970SOL    HW280750  12.953   5.100   9.857
92971SOL     OW80751   2.258   8.184  10.767
92971SOL    HW180752   2.167   8.167  10.793
92971SOL    HW280753   2.309   8.116  10.810
92972SOL     OW80754   8.812   0.442  10.391
92972SOL    HW180755   8.880   0.441  10.459
92972SOL    HW280756   8.777   0.531  10.393
92973SOL     OW80757   7.082   9.046   2.686
92973SOL    HW180758   7.076   9.130   2.641
92973SOL    HW280759   7.168   9.012   2.662
92974SOL     OW80760   4.268   9.193   6.731
92974SOL    HW180761   4.302   9.141   6.803
92974SOL    HW280762   4.208   9.134   6.685
92975SOL     OW80763  12.865  12.080   2.538
92975SOL    HW180764  12.894  12.023   2.609
92975SOL    HW280765  12.856  12.166   2.579
92976SOL     OW80766   9.851   8.384   0.361
92976SOL    HW180767   9.930   8.355   0.407
92976SOL    HW280768   9.869   8.474   0.335
92977SOL     OW80769   8.192   3.136   0.823
92977SOL    HW180770   8.247   3.111   0.897
92977SOL    HW280771   8.217   3.077   0.752
92978SOL     OW80772  13.562  14.196   9.404
92978SOL    HW180773  13.483  14.233   9.365
92978SOL    HW280774  13.613  14.165   9.329
92979SOL     OW80775   0.885   3.661   7.294
92979SOL    HW180776   0.829   3.614   7.233
92979SOL    HW280777   0.842   3.746   7.305
92980SOL     OW80778   9.985   1.344   9.459
92980SOL    HW180779  10.003   1.264   9.507
92980SOL    HW280780   9.940   1.401   9.522
92981SOL     OW80781   1.797   8.322   6.374
92981SOL    HW180782   1.882   8.351   6.342
92981SOL    HW280783   1.804   8.326   6.469
92982SOL     OW80784  13.970  13.775   6.601
92982SOL    HW180785  14.027  13.710   6.641
92982SOL    HW280786  13.908  13.723   6.549
92983SOL     OW80787   9.710   8.239   3.966
92983SOL    HW180788   9.642   8.306   3.951
92983SOL    HW280789   9.661   8.158   3.981
92984SOL     OW80790  13.764   1.054   2.810
92984SOL    HW180791  13.716   1.132   2.838
92984SOL    HW280792  13.776   1.066   2.716
92985SOL     OW80793   2.627   6.284  11.600
92985SOL    HW180794   2.580   6.218  11.548
92985SOL    HW280795   2.689   6.232  11.652
92986SOL     OW80796   3.328   8.357   7.909
92986SOL    HW180797   3.287   8.271   7.907
92986SOL    HW280798   3.362   8.366   7.998
92987SOL     OW80799   1.862  11.554   7.387
92987SOL    HW180800   1.811  11.474   7.380
92987SOL    HW280801   1.952  11.524   7.400
92988SOL     OW80802   3.437  12.540   4.832
92988SOL    HW180803   3.356  12.500   4.865
92988SOL    HW280804   3.491  12.553   4.909
92989SOL     OW80805   7.422   3.563   1.429
92989SOL    HW180806   7.416   3.638   1.488
92989SOL    HW280807   7.340   3.515   1.442
92990SOL     OW80808   1.704   4.997  13.091
92990SOL    HW180809   1.757   4.928  13.052
92990SOL    HW280810   1.708   5.069  13.028
92991SOL     OW80811   6.229   6.319   9.900
92991SOL    HW180812   6.274   6.290   9.979
92991SOL    HW280813   6.226   6.415   9.909
92992SOL     OW80814  10.169   2.461   9.003
92992SOL    HW180815  10.256   2.432   9.031
92992SOL    HW280816  10.133   2.386   8.956
92993SOL     OW80817   4.145  13.708   6.807
92993SOL    HW180818   4.122  13.667   6.891
92993SOL    HW280819   4.165  13.799   6.829
92994SOL     OW80820   4.599   2.159   3.140
92994SOL    HW180821   4.535   2.228   3.127
92994SOL    HW280822   4.585   2.128   3.229
92995SOL     OW80823  13.424  11.598   2.522
92995SOL    HW180824  13.369  11.609   2.444
92995SOL    HW280825  13.363  11.571   2.591
92996SOL     OW80826   2.953   5.868   8.032
92996SOL    HW180827   3.021   5.801   8.036
92996SOL    HW280828   2.884   5.836   8.091
92997SOL     OW80829  10.417  14.731   4.462
92997SOL    HW180830  10.327  14.757   4.480
92997SOL    HW280831  10.469  14.809   4.482
92998SOL     OW80832  11.919   5.360  10.175
92998SOL    HW180833  11.858   5.290  10.197
92998SOL    HW280834  12.001   5.314  10.156
92999SOL     OW80835   0.200   2.077  13.371
92999SOL    HW180836   0.256   2.095  13.295
92999SOL    HW280837   0.256   2.094  13.446
93000SOL     OW80838  14.550  12.352   1.773
93000SOL    HW180839  14.621  12.319   1.719
93000SOL    HW280840  14.494  12.402   1.713
93001SOL     OW80841  10.049   1.863  12.221
93001SOL    HW180842  10.054   1.952  12.254
93001SOL    HW280843  10.074   1.808  12.296
93002SOL     OW80844   5.346  14.801   9.025
93002SOL    HW180845   5.380   0.004   8.977
93002SOL    HW280846   5.390  14.805   9.110
93003SOL     OW80847   8.771   6.039   7.566
93003SOL    HW180848   8.823   6.095   7.624
93003SOL    HW280849   8.776   6.083   7.481
93004SOL     OW80850   5.847   8.344  10.488
93004SOL    HW180851   5.903   8.412  10.525
93004SOL    HW280852   5.759   8.380  10.494
93005SOL     OW80853   6.453   6.755   1.053
93005SOL    HW180854   6.406   6.796   0.980
93005SOL    HW280855   6.386   6.706   1.101
93006SOL     OW80856   0.563  14.241   3.398
93006SOL    HW180857   0.561  14.291   3.316
93006SOL    HW280858   0.601  14.301   3.462
93007SOL     OW80859   7.394   8.186   6.856
93007SOL    HW180860   7.474   8.185   6.803
93007SOL    HW280861   7.424   8.207   6.944
93008SOL     OW80862   7.428   6.932  12.883
93008SOL    HW180863   7.393   6.893  12.803
93008SOL    HW280864   7.497   6.991  12.853
93009SOL     OW80865   5.763   4.344  13.752
93009SOL    HW180866   5.710   4.270  13.782
93009SOL    HW280867   5.736   4.358  13.661
93010SOL     OW80868  13.457  14.317  13.958
93010SOL    HW180869  13.378  14.266  13.974
93010SOL    HW280870  13.462  14.324  13.863
93011SOL     OW80871  10.194   8.904   0.397
93011SOL    HW180872  10.139   8.980   0.415
93011SOL    HW280873  10.213   8.866   0.483
93012SOL     OW80874   4.917   5.957   1.111
93012SOL    HW180875   4.861   5.899   1.059
93012SOL    HW280876   4.880   5.953   1.199
93013SOL     OW80877   6.198  11.350   5.222
93013SOL    HW180878   6.200  11.267   5.175
93013SOL    HW280879   6.155  11.330   5.305
93014SOL     OW80880   1.952   3.948   3.107
93014SOL    HW180881   1.956   3.905   3.022
93014SOL    HW280882   1.861   3.977   3.115
93015SOL     OW80883  10.383  11.104  12.954
93015SOL    HW180884  10.394  11.068  12.866
93015SOL    HW280885  10.460  11.160  12.966
93016SOL     OW80886   6.085  11.270   8.818
93016SOL    HW180887   6.037  11.231   8.744
93016SOL    HW280888   6.171  11.229   8.815
93017SOL     OW80889   1.509  10.847  13.219
93017SOL    HW180890   1.423  10.807  13.232
93017SOL    HW280891   1.510  10.869  13.125
93018SOL     OW80892   7.241  13.703   5.913
93018SOL    HW180893   7.332  13.715   5.940
93018SOL    HW280894   7.246  13.689   5.818
93019SOL     OW80895   2.014   2.228  12.285
93019SOL    HW180896   2.063   2.293  12.235
93019SOL    HW280897   1.922   2.247  12.265
93020SOL     OW80898  14.527   5.247  14.421
93020SOL    HW180899  14.520   5.285  14.333
93020SOL    HW280900  14.621   5.237  14.435
93021SOL     OW80901   0.943  11.270   0.401
93021SOL    HW180902   1.023  11.251   0.451
93021SOL    HW280903   0.899  11.186   0.394
93022SOL     OW80904   5.390  10.618  13.790
93022SOL    HW180905   5.436  10.555  13.735
93022SOL    HW280906   5.455  10.687  13.807
93023SOL     OW80907   5.400  14.778  13.379
93023SOL    HW180908   5.413  14.864  13.340
93023SOL    HW280909   5.370  14.796  13.468
93024SOL     OW80910  14.473   0.309  10.844
93024SOL    HW180911  14.536   0.242  10.871
93024SOL    HW280912  14.481   0.313  10.749
93025SOL     OW80913  12.802  13.508   6.007
93025SOL    HW180914  12.837  13.555   5.931
93025SOL    HW280915  12.819  13.416   5.989
93026SOL     OW80916   1.401   9.365  10.408
93026SOL    HW180917   1.478   9.356  10.352
93026SOL    HW280918   1.403   9.457  10.437
93027SOL     OW80919  12.156   7.040   3.143
93027SOL    HW180920  12.156   7.127   3.103
93027SOL    HW280921  12.067   7.028   3.176
93028SOL     OW80922   2.967   8.673  13.187
93028SOL    HW180923   2.934   8.597  13.139
93028SOL    HW280924   3.060   8.677  13.167
93029SOL     OW80925  10.687   1.914  10.298
93029SOL    HW180926  10.596   1.885  10.288
93029SOL    HW280927  10.733   1.872  10.225
93030SOL     OW80928  12.627   7.011   1.038
93030SOL    HW180929  12.653   7.013   1.130
93030SOL    HW280930  12.532   6.995   1.040
93031SOL     OW80931   1.912   7.546   5.720
93031SOL    HW180932   1.841   7.514   5.664
93031SOL    HW280933   1.978   7.579   5.658
93032SOL     OW80934  14.220  13.215   3.438
93032SOL    HW180935  14.177  13.267   3.370
93032SOL    HW280936  14.204  13.265   3.519
93033SOL     OW80937   3.128   6.501   7.694
93033SOL    HW180938   3.203   6.442   7.700
93033SOL    HW280939   3.163   6.580   7.652
93034SOL     OW80940  12.523   4.017   9.995
93034SOL    HW180941  12.463   3.982   9.929
93034SOL    HW280942  12.562   4.094   9.954
93035SOL     OW80943   5.673   6.331   5.725
93035SOL    HW180944   5.695   6.324   5.632
93035SOL    HW280945   5.618   6.409   5.731
93036SOL     OW80946   1.794   2.348  14.734
93036SOL    HW180947   1.832   2.430  14.703
93036SOL    HW280948   1.704   2.349  14.699
93037SOL     OW80949   2.662  12.894   1.965
93037SOL    HW180950   2.752  12.923   1.979
93037SOL    HW280951   2.614  12.974   1.946
93038SOL     OW80952   3.834  10.246   6.168
93038SOL    HW180953   3.746  10.254   6.206
93038SOL    HW280954   3.873  10.332   6.181
93039SOL     OW80955   8.927   7.747   2.460
93039SOL    HW180956   8.855   7.686   2.477
93039SOL    HW280957   8.964   7.765   2.546
93040SOL     OW80958   7.560  12.804   7.666
93040SOL    HW180959   7.544  12.897   7.686
93040SOL    HW280960   7.598  12.768   7.746
93041SOL     OW80961  10.019  10.920  10.419
93041SOL    HW180962   9.986  10.979  10.488
93041SOL    HW280963  10.111  10.906  10.443
93042SOL     OW80964   2.382   6.637  14.475
93042SOL    HW180965   2.429   6.599  14.550
93042SOL    HW280966   2.315   6.693  14.515
93043SOL     OW80967   4.573   8.407   7.068
93043SOL    HW180968   4.536   8.425   6.981
93043SOL    HW280969   4.499   8.375   7.119
93044SOL     OW80970   2.779  12.498   7.601
93044SOL    HW180971   2.717  12.434   7.636
93044SOL    HW280972   2.829  12.449   7.535
93045SOL     OW80973   3.312  14.827   2.354
93045SOL    HW180974   3.327   0.042   2.387
93045SOL    HW280975   3.372  14.817   2.280
93046SOL     OW80976   9.915   0.618   0.862
93046SOL    HW180977   9.922   0.712   0.844
93046SOL    HW280978   9.942   0.609   0.953
93047SOL     OW80979  11.903  14.085   0.457
93047SOL    HW180980  11.992  14.113   0.476
93047SOL    HW280981  11.912  14.007   0.402
93048SOL     OW80982  12.913   2.461   0.271
93048SOL    HW180983  13.002   2.492   0.259
93048SOL    HW280984  12.864   2.537   0.302
93049SOL     OW80985   7.657   1.620  14.736
93049SOL    HW180986   7.703   1.617  14.820
93049SOL    HW280987   7.595   1.692  14.745
93050SOL     OW80988  12.530   0.613   7.338
93050SOL    HW180989  12.479   0.588   7.261
93050SOL    HW280990  12.470   0.602   7.411
93051SOL     OW80991  12.950   3.950  13.756
93051SOL    HW180992  12.957   4.043  13.735
93051SOL    HW280993  12.885   3.916  13.694
93052SOL     OW80994   3.837  12.570  11.635
93052SOL    HW180995   3.874  12.651  11.670
93052SOL    HW280996   3.824  12.587  11.542
93053SOL     OW80997   9.460   1.552  10.388
93053SOL    HW180998   9.422   1.467  10.366
93053SOL    HW280999   9.554   1.541  10.372
93054SOL     OW81000   6.338  11.972   5.429
93054SOL    HW181001   6.251  11.998   5.459
93054SOL    HW281002   6.394  12.046   5.452
93055SOL     OW81003   0.226   8.998   0.159
93055SOL    HW181004   0.187   9.079   0.127
93055SOL    HW281005   0.273   9.024   0.239
93056SOL     OW81006   8.250   8.828   3.231
93056SOL    HW181007   8.281   8.746   3.193
93056SOL    HW281008   8.203   8.872   3.160
93057SOL     OW81009   3.141  13.113   5.311
93057SOL    HW181010   3.123  13.019   5.312
93057SOL    HW281011   3.062  13.153   5.347
93058SOL     OW81012   8.911   0.272   2.976
93058SOL    HW181013   8.961   0.282   3.056
93058SOL    HW281014   8.946   0.193   2.934
93059SOL     OW81015   5.884  12.004  13.712
93059SOL    HW181016   5.831  11.972  13.639
93059SOL    HW281017   5.877  12.100  13.707
93060SOL     OW81018   2.516   3.395   7.441
93060SOL    HW181019   2.558   3.354   7.516
93060SOL    HW281020   2.423   3.377   7.452
93061SOL     OW81021  11.330  14.813   4.266
93061SOL    HW181022  11.356  14.828   4.175
93061SOL    HW281023  11.385   0.000   4.316
93062SOL     OW81024   0.197  13.150  13.148
93062SOL    HW181025   0.160  13.075  13.100
93062SOL    HW281026   0.156  13.146  13.234
93063SOL     OW81027  14.184   6.731   6.277
93063SOL    HW181028  14.220   6.775   6.200
93063SOL    HW281029  14.140   6.654   6.242
93064SOL     OW81030   9.160   1.904   3.384
93064SOL    HW181031   9.184   1.963   3.455
93064SOL    HW281032   9.110   1.834   3.426
93065SOL     OW81033   5.917   7.556   5.607
93065SOL    HW181034   5.975   7.627   5.636
93065SOL    HW281035   5.857   7.597   5.546
93066SOL     OW81036   8.594   5.918   4.806
93066SOL    HW181037   8.615   5.937   4.897
93066SOL    HW281038   8.629   5.830   4.791
93067SOL     OW81039  12.903   0.684  10.767
93067SOL    HW181040  12.945   0.731  10.695
93067SOL    HW281041  12.895   0.750  10.837
93068SOL     OW81042  12.127   0.839   9.319
93068SOL    HW181043  12.195   0.821   9.384
93068SOL    HW281044  12.083   0.917   9.352
93069SOL     OW81045  11.611   2.791  10.796
93069SOL    HW181046  11.598   2.697  10.805
93069SOL    HW281047  11.559   2.815  10.719
93070SOL     OW81048   3.109   6.098   4.581
93070SOL    HW181049   3.137   6.188   4.596
93070SOL    HW281050   3.111   6.087   4.486
93071SOL     OW81051  11.711   0.473   8.032
93071SOL    HW181052  11.680   0.532   7.963
93071SOL    HW281053  11.648   0.484   8.103
93072SOL     OW81054   8.635   1.940   9.055
93072SOL    HW181055   8.688   1.922   9.132
93072SOL    HW281056   8.571   2.005   9.084
93073SOL     OW81057   4.383  10.523   2.392
93073SOL    HW181058   4.390  10.441   2.440
93073SOL    HW281059   4.336  10.582   2.451
93074SOL     OW81060  12.652   9.375  13.002
93074SOL    HW181061  12.651   9.304  13.066
93074SOL    HW281062  12.635   9.454  13.052
93075SOL     OW81063   9.300  13.664   8.334
93075SOL    HW181064   9.264  13.662   8.423
93075SOL    HW281065   9.265  13.586   8.292
93076SOL     OW81066   8.239   0.660  13.176
93076SOL    HW181067   8.194   0.684  13.257
93076SOL    HW281068   8.328   0.694  13.188
93077SOL     OW81069  13.599   8.060   1.834
93077SOL    HW181070  13.531   7.998   1.863
93077SOL    HW281071  13.671   8.047   1.896
93078SOL     OW81072   4.941  11.660   3.098
93078SOL    HW181073   5.005  11.626   3.161
93078SOL    HW281074   4.935  11.754   3.119
93079SOL     OW81075   6.583   2.230   7.531
93079SOL    HW181076   6.532   2.251   7.453
93079SOL    HW281077   6.591   2.135   7.530
93080SOL     OW81078   3.066   9.388   5.535
93080SOL    HW181079   3.155   9.405   5.566
93080SOL    HW281080   3.012   9.391   5.615
93081SOL     OW81081   7.294  13.987  12.391
93081SOL    HW181082   7.329  13.947  12.311
93081SOL    HW281083   7.213  13.939  12.408
93082SOL     OW81084   2.325  11.132   5.653
93082SOL    HW181085   2.322  11.084   5.571
93082SOL    HW281086   2.408  11.182   5.649
93083SOL     OW81087   0.096  14.272   5.102
93083SOL    HW181088   0.111  14.317   5.185
93083SOL    HW281089   0.022  14.318   5.063
93084SOL     OW81090  10.729  12.303   7.115
93084SOL    HW181091  10.728  12.207   7.117
93084SOL    HW281092  10.661  12.329   7.178
93085SOL     OW81093  11.243   0.886  11.593
93085SOL    HW181094  11.207   0.807  11.552
93085SOL    HW281095  11.167   0.928  11.634
93086SOL     OW81096  13.220  10.720   5.680
93086SOL    HW181097  13.214  10.662   5.604
93086SOL    HW281098  13.139  10.704   5.729
93087SOL     OW81099   8.649   5.989  12.257
93087SOL    HW181100   8.680   5.988  12.167
93087SOL    HW281101   8.640   6.082  12.279
93088SOL     OW81102   6.855   1.341  13.492
93088SOL    HW181103   6.860   1.340  13.397
93088SOL    HW281104   6.854   1.434  13.515
93089SOL     OW81105   5.745  12.502  13.400
93089SOL    HW181106   5.666  12.450  13.390
93089SOL    HW281107   5.816  12.438  13.405
93090SOL     OW81108   3.095   1.437  10.182
93090SOL    HW181109   3.098   1.476  10.094
93090SOL    HW281110   3.093   1.511  10.242
93091SOL     OW81111   7.474  14.701   1.758
93091SOL    HW181112   7.506  14.785   1.791
93091SOL    HW281113   7.498  14.701   1.665
93092SOL     OW81114  10.258   6.368   9.318
93092SOL    HW181115  10.196   6.337   9.383
93092SOL    HW281116  10.343   6.362   9.361
93093SOL     OW81117   6.917   2.924   0.762
93093SOL    HW181118   6.824   2.944   0.755
93093SOL    HW281119   6.941   2.891   0.676
93094SOL     OW81120   8.601   0.454   2.404
93094SOL    HW181121   8.515   0.422   2.376
93094SOL    HW281122   8.582   0.530   2.459
93095SOL     OW81123   2.624   2.491   0.024
93095SOL    HW181124   2.576   2.572   0.044
93095SOL    HW281125   2.596   2.468  14.809
93096SOL     OW81126   0.675  10.523   0.813
93096SOL    HW181127   0.676  10.427   0.817
93096SOL    HW281128   0.658  10.551   0.903
93097SOL     OW81129  13.373   9.370  12.796
93097SOL    HW181130  13.367   9.305  12.726
93097SOL    HW281131  13.466   9.377  12.815
93098SOL     OW81132  11.432  11.493  11.863
93098SOL    HW181133  11.454  11.578  11.902
93098SOL    HW281134  11.501  11.479  11.798
93099SOL     OW81135   2.241   4.333   7.285
93099SOL    HW181136   2.192   4.274   7.342
93099SOL    HW281137   2.293   4.275   7.229
93100SOL     OW81138  10.485  10.108   2.529
93100SOL    HW181139  10.455  10.195   2.555
93100SOL    HW281140  10.551  10.085   2.594
93101SOL     OW81141   5.111   5.384   3.574
93101SOL    HW181142   5.157   5.322   3.518
93101SOL    HW281143   5.172   5.457   3.584
93102SOL     OW81144  14.146  14.844   3.348
93102SOL    HW181145  14.055  14.817   3.361
93102SOL    HW281146  14.149   0.061   3.378
93103SOL     OW81147  12.804  14.717   8.953
93103SOL    HW181148  12.786  14.632   8.992
93103SOL    HW281149  12.885  14.704   8.904
93104SOL     OW81150  12.068   6.487   6.808
93104SOL    HW181151  12.038   6.568   6.767
93104SOL    HW281152  12.133   6.452   6.746
93105SOL     OW81153   0.716   9.426   1.671
93105SOL    HW181154   0.799   9.382   1.651
93105SOL    HW281155   0.708   9.419   1.766
93106SOL     OW81156   3.086   6.520   8.971
93106SOL    HW181157   2.992   6.505   8.961
93106SOL    HW281158   3.100   6.608   8.936
93107SOL     OW81159   1.644   9.634   5.874
93107SOL    HW181160   1.632   9.564   5.938
93107SOL    HW281161   1.674   9.589   5.795
93108SOL     OW81162   9.865   4.248   4.154
93108SOL    HW181163   9.945   4.302   4.150
93108SOL    HW281164   9.797   4.309   4.181
93109SOL     OW81165   1.849   6.019   7.443
93109SOL    HW181166   1.775   5.973   7.480
93109SOL    HW281167   1.905   6.041   7.518
93110SOL     OW81168   9.631   9.738   2.632
93110SOL    HW181169   9.672   9.820   2.658
93110SOL    HW281170   9.664   9.673   2.694
93111SOL     OW81171   9.093  11.923   7.089
93111SOL    HW181172   9.137  11.973   7.019
93111SOL    HW281173   9.158  11.918   7.159
93112SOL     OW81174   1.369   9.471   6.014
93112SOL    HW181175   1.443   9.499   6.068
93112SOL    HW281176   1.318   9.550   5.999
93113SOL     OW81177  12.189  13.532   2.247
93113SOL    HW181178  12.188  13.572   2.160
93113SOL    HW281179  12.235  13.595   2.302
93114SOL     OW81180   2.483  11.558   9.286
93114SOL    HW181181   2.507  11.541   9.195
93114SOL    HW281182   2.557  11.526   9.337
93115SOL     OW81183  13.900   8.238   9.232
93115SOL    HW181184  13.824   8.180   9.230
93115SOL    HW281185  13.882   8.305   9.167
93116SOL     OW81186   6.712  14.540   8.308
93116SOL    HW181187   6.649  14.499   8.368
93116SOL    HW281188   6.753  14.609   8.360
93117SOL     OW81189   6.581  11.848  13.169
93117SOL    HW181190   6.551  11.765  13.133
93117SOL    HW281191   6.677  11.840  13.172
93118SOL     OW81192   1.629   0.477   8.770
93118SOL    HW181193   1.547   0.470   8.719
93118SOL    HW281194   1.618   0.556   8.822
93119SOL     OW81195   8.235   4.588  10.074
93119SOL    HW181196   8.277   4.580   9.989
93119SOL    HW281197   8.228   4.683  10.089
93120SOL     OW81198   1.411  11.432  12.806
93120SOL    HW181199   1.483  11.395  12.855
93120SOL    HW281200   1.452  11.473  12.730
93121SOL     OW81201  14.492   1.080  10.554
93121SOL    HW181202  14.464   0.992  10.577
93121SOL    HW281203  14.587   1.076  10.552
93122SOL     OW81204   3.794  10.371  11.814
93122SOL    HW181205   3.732  10.298  11.806
93122SOL    HW281206   3.842  10.371  11.731
93123SOL     OW81207   6.262   3.396   8.994
93123SOL    HW181208   6.197   3.423   9.060
93123SOL    HW281209   6.342   3.383   9.044
93124SOL     OW81210   6.191   0.644   6.038
93124SOL    HW181211   6.111   0.594   6.030
93124SOL    HW281212   6.180   0.717   5.977
93125SOL     OW81213   7.031  12.840   1.437
93125SOL    HW181214   7.095  12.860   1.369
93125SOL    HW281215   6.978  12.920   1.444
93126SOL     OW81216   3.548   2.112   4.385
93126SOL    HW181217   3.519   2.021   4.379
93126SOL    HW281218   3.480   2.162   4.340
93127SOL     OW81219  10.684   3.411   7.292
93127SOL    HW181220  10.618   3.480   7.288
93127SOL    HW281221  10.726   3.413   7.206
93128SOL     OW81222   5.527  14.404   4.661
93128SOL    HW181223   5.596  14.345   4.629
93128SOL    HW281224   5.573  14.479   4.698
93129SOL     OW81225   8.115   2.289  11.220
93129SOL    HW181226   8.152   2.374  11.246
93129SOL    HW281227   8.173   2.225  11.262
93130SOL     OW81228   8.165   5.388   7.614
93130SOL    HW181229   8.073   5.404   7.593
93130SOL    HW281230   8.185   5.304   7.572
93131SOL     OW81231  14.179   1.722   5.137
93131SOL    HW181232  14.164   1.720   5.231
93131SOL    HW281233  14.134   1.801   5.107
93132SOL     OW81234   8.250   1.170  10.035
93132SOL    HW181235   8.274   1.138  10.122
93132SOL    HW281236   8.160   1.202  10.045
93133SOL     OW81237  12.332   9.874  14.644
93133SOL    HW181238  12.372   9.926  14.713
93133SOL    HW281239  12.272   9.934  14.600
93134SOL     OW81240   3.582   3.916   9.467
93134SOL    HW181241   3.646   3.986   9.456
93134SOL    HW281242   3.555   3.922   9.559
93135SOL     OW81243  14.598  14.185  14.280
93135SOL    HW181244  14.633  14.145  14.359
93135SOL    HW281245  14.535  14.250  14.311
93136SOL     OW81246   4.689  14.403   7.508
93136SOL    HW181247   4.713  14.317   7.474
93136SOL    HW281248   4.768  14.434   7.553
93137SOL     OW81249  11.989  10.673  10.607
93137SOL    HW181250  11.938  10.711  10.536
93137SOL    HW281251  12.072  10.719  10.605
93138SOL     OW81252   0.499   2.927   9.527
93138SOL    HW181253   0.554   2.995   9.566
93138SOL    HW281254   0.552   2.890   9.457
93139SOL     OW81255   0.537   5.237   0.682
93139SOL    HW181256   0.523   5.297   0.755
93139SOL    HW281257   0.563   5.294   0.609
93140SOL     OW81258  14.775   2.356   3.132
93140SOL    HW181259  14.706   2.397   3.081
93140SOL    HW281260  14.733   2.282   3.176
93141SOL     OW81261  10.787  12.138   6.764
93141SOL    HW181262  10.815  12.082   6.836
93141SOL    HW281263  10.827  12.223   6.782
93142SOL     OW81264   8.789  12.932  11.468
93142SOL    HW181265   8.862  12.900  11.522
93142SOL    HW281266   8.768  13.018  11.505
93143SOL     OW81267   3.265   9.422   3.066
93143SOL    HW181268   3.275   9.510   3.029
93143SOL    HW281269   3.348   9.405   3.111
93144SOL     OW81270   2.349   0.972   5.069
93144SOL    HW181271   2.321   1.049   5.019
93144SOL    HW281272   2.358   0.903   5.004
93145SOL     OW81273   8.796  10.341  13.429
93145SOL    HW181274   8.839  10.260  13.454
93145SOL    HW281275   8.727  10.314  13.368
93146SOL     OW81276   6.363   0.017  11.629
93146SOL    HW181277   6.459   0.016  11.619
93146SOL    HW281278   6.348  14.857  11.717
93147SOL     OW81279  11.681   5.878   1.455
93147SOL    HW181280  11.761   5.857   1.503
93147SOL    HW281281  11.660   5.798   1.407
93148SOL     OW81282  10.972  10.789   1.255
93148SOL    HW181283  10.990  10.856   1.190
93148SOL    HW281284  11.058  10.761   1.286
93149SOL     OW81285   7.995   4.932   0.737
93149SOL    HW181286   8.072   4.944   0.792
93149SOL    HW281287   8.012   4.852   0.687
93150SOL     OW81288   1.871  12.221  14.871
93150SOL    HW181289   1.907  12.173   0.073
93150SOL    HW281290   1.804  12.278   0.036
93151SOL     OW81291   7.560  10.202   7.559
93151SOL    HW181292   7.652  10.228   7.570
93151SOL    HW281293   7.558  10.110   7.586
93152SOL     OW81294   9.605   5.667   9.449
93152SOL    HW181295   9.537   5.605   9.474
93152SOL    HW281296   9.587   5.745   9.503
93153SOL     OW81297   5.912   4.229   8.314
93153SOL    HW181298   5.946   4.318   8.303
93153SOL    HW281299   5.846   4.221   8.245
93154SOL     OW81300   7.392   0.347   2.863
93154SOL    HW181301   7.389   0.431   2.817
93154SOL    HW281302   7.484   0.332   2.882
93155SOL     OW81303   8.935   9.094   2.451
93155SOL    HW181304   8.877   9.031   2.494
93155SOL    HW281305   8.994   9.040   2.397
93156SOL     OW81306   0.051   8.953  13.642
93156SOL    HW181307   0.042   9.048  13.650
93156SOL    HW281308   0.104   8.928  13.718
93157SOL     OW81309   0.633  12.664   4.234
93157SOL    HW181310   0.608  12.572   4.244
93157SOL    HW281311   0.551  12.711   4.220
93158SOL     OW81312   7.509  12.414   8.952
93158SOL    HW181313   7.498  12.320   8.946
93158SOL    HW281314   7.432  12.450   8.907
93159SOL     OW81315   6.231  10.650  13.838
93159SOL    HW181316   6.141  10.627  13.861
93159SOL    HW281317   6.253  10.591  13.765
93160SOL     OW81318   5.256   8.208   8.361
93160SOL    HW181319   5.234   8.171   8.276
93160SOL    HW281320   5.180   8.261   8.385
93161SOL     OW81321   2.808  14.329   4.017
93161SOL    HW181322   2.772  14.377   3.942
93161SOL    HW281323   2.894  14.369   4.032
93162SOL     OW81324   5.213  14.121   9.010
93162SOL    HW181325   5.301  14.142   9.042
93162SOL    HW281326   5.214  14.026   8.997
93163SOL     OW81327   5.595   0.041  11.240
93163SOL    HW181328   5.659   0.100  11.199
93163SOL    HW281329   5.577  14.848  11.173
93164SOL     OW81330  11.920  12.240   2.940
93164SOL    HW181331  11.945  12.329   2.966
93164SOL    HW281332  11.921  12.190   3.022
93165SOL     OW81333  11.170   2.809  14.588
93165SOL    HW181334  11.080   2.797  14.560
93165SOL    HW281335  11.211   2.860  14.518
93166SOL     OW81336   0.871   6.710   5.843
93166SOL    HW181337   0.814   6.722   5.767
93166SOL    HW281338   0.938   6.648   5.814
93167SOL     OW81339   8.178   5.327  11.795
93167SOL    HW181340   8.098   5.380  11.805
93167SOL    HW281341   8.184   5.310  11.701
93168SOL     OW81342   9.152  12.772  12.128
93168SOL    HW181343   9.190  12.725  12.054
93168SOL    HW281344   9.058  12.776  12.108
93169SOL     OW81345   6.454  10.203   1.795
93169SOL    HW181346   6.398  10.168   1.726
93169SOL    HW281347   6.417  10.289   1.815
93170SOL     OW81348   6.067   4.384  11.262
93170SOL    HW181349   6.130   4.455  11.278
93170SOL    HW281350   6.040   4.356  11.349
93171SOL     OW81351   3.489   2.474  12.832
93171SOL    HW181352   3.569   2.434  12.867
93171SOL    HW281353   3.418   2.417  12.863
93172SOL     OW81354   6.853  12.046   7.332
93172SOL    HW181355   6.940  12.082   7.318
93172SOL    HW281356   6.808  12.112   7.386
93173SOL     OW81357   6.908  12.662  14.556
93173SOL    HW181358   6.882  12.570  14.570
93173SOL    HW281359   6.890  12.705  14.640
93174SOL     OW81360  13.773  14.458   1.135
93174SOL    HW181361  13.835  14.439   1.205
93174SOL    HW281362  13.767  14.553   1.134
93175SOL     OW81363   1.167   5.982   3.658
93175SOL    HW181364   1.099   5.951   3.599
93175SOL    HW281365   1.133   5.962   3.746
93176SOL     OW81366   6.599  14.677  11.407
93176SOL    HW181367   6.637  14.729  11.477
93176SOL    HW281368   6.673  14.630  11.368
93177SOL     OW81369  11.760   1.543   3.971
93177SOL    HW181370  11.784   1.475   4.033
93177SOL    HW281371  11.739   1.619   4.027
93178SOL     OW81372   3.859   9.491  10.704
93178SOL    HW181373   3.876   9.501  10.797
93178SOL    HW281374   3.829   9.577  10.675
93179SOL     OW81375  14.073  11.114   3.444
93179SOL    HW181376  14.027  11.041   3.403
93179SOL    HW281377  14.083  11.087   3.536
93180SOL     OW81378   5.145  10.657   3.338
93180SOL    HW181379   5.161  10.749   3.360
93180SOL    HW281380   5.227  10.612   3.359
93181SOL     OW81381   6.340   6.805   5.290
93181SOL    HW181382   6.274   6.849   5.343
93181SOL    HW281383   6.307   6.715   5.282
93182SOL     OW81384   1.886   3.014  13.111
93182SOL    HW181385   1.919   3.085  13.057
93182SOL    HW281386   1.960   2.954  13.120
93183SOL     OW81387   6.564   3.631  10.352
93183SOL    HW181388   6.506   3.647  10.277
93183SOL    HW281389   6.507   3.632  10.428
93184SOL     OW81390   4.246   5.162   6.549
93184SOL    HW181391   4.161   5.206   6.540
93184SOL    HW281392   4.240   5.087   6.489
93185SOL     OW81393   7.791  13.666   2.305
93185SOL    HW181394   7.753  13.578   2.314
93185SOL    HW281395   7.742  13.719   2.368
93186SOL     OW81396  12.807  14.167   0.563
93186SOL    HW181397  12.837  14.081   0.535
93186SOL    HW281398  12.865  14.191   0.635
93187SOL     OW81399  13.522  13.269  12.280
93187SOL    HW181400  13.431  13.267  12.250
93187SOL    HW281401  13.553  13.179  12.268
93188SOL     OW81402   8.019  11.248  13.272
93188SOL    HW181403   7.983  11.190  13.205
93188SOL    HW281404   8.092  11.292  13.229
93189SOL     OW81405   1.052   9.167   3.589
93189SOL    HW181406   1.096   9.236   3.640
93189SOL    HW281407   0.967   9.204   3.568
93190SOL     OW81408   9.347  12.598   1.837
93190SOL    HW181409   9.358  12.505   1.858
93190SOL    HW281410   9.277  12.600   1.772
93191SOL     OW81411   8.587   6.616   7.954
93191SOL    HW181412   8.630   6.600   8.038
93191SOL    HW281413   8.658   6.613   7.890
93192SOL     OW81414  12.142   9.050   0.695
93192SOL    HW181415  12.226   9.082   0.727
93192SOL    HW281416  12.164   8.979   0.635
93193SOL     OW81417   4.699   2.249   9.409
93193SOL    HW181418   4.679   2.296   9.490
93193SOL    HW281419   4.775   2.295   9.372
93194SOL     OW81420   1.330   9.452   1.037
93194SOL    HW181421   1.417   9.482   1.011
93194SOL    HW281422   1.271   9.524   1.012
93195SOL     OW81423   7.334   5.245   3.927
93195SOL    HW181424   7.399   5.313   3.948
93195SOL    HW281425   7.258   5.269   3.979
93196SOL     OW81426   3.214   2.007   5.012
93196SOL    HW181427   3.306   1.982   5.010
93196SOL    HW281428   3.185   1.999   4.921
93197SOL     OW81429  14.667   3.125   1.212
93197SOL    HW181430  14.695   3.216   1.214
93197SOL    HW281431  14.626   3.114   1.127
93198SOL     OW81432   3.934  14.373  10.880
93198SOL    HW181433   3.937  14.360  10.974
93198SOL    HW281434   3.841  14.377  10.859
93199SOL     OW81435   8.720   8.730   2.942
93199SOL    HW181436   8.775   8.807   2.956
93199SOL    HW281437   8.763   8.661   2.992
93200SOL     OW81438   0.989   8.695  11.897
93200SOL    HW181439   0.906   8.703  11.850
93200SOL    HW281440   0.987   8.607  11.933
93201SOL     OW81441   0.858  10.515   5.426
93201SOL    HW181442   0.922  10.530   5.496
93201SOL    HW281443   0.785  10.573   5.447
93202SOL     OW81444   3.319  12.968   1.149
93202SOL    HW181445   3.349  12.877   1.147
93202SOL    HW281446   3.359  13.008   1.072
93203SOL     OW81447  13.830   3.974   5.813
93203SOL    HW181448  13.822   4.005   5.904
93203SOL    HW281449  13.769   4.029   5.764
93204SOL     OW81450   0.262   3.126   8.292
93204SOL    HW181451   0.223   3.046   8.257
93204SOL    HW281452   0.188   3.186   8.301
93205SOL     OW81453   9.564   1.920   0.166
93205SOL    HW181454   9.657   1.903   0.154
93205SOL    HW281455   9.546   1.996   0.111
93206SOL     OW81456  12.553   5.597  13.065
93206SOL    HW181457  12.545   5.568  13.155
93206SOL    HW281458  12.518   5.525  13.013
93207SOL     OW81459   4.137  12.816  10.778
93207SOL    HW181460   4.191  12.893  10.761
93207SOL    HW281461   4.181  12.745  10.730
93208SOL     OW81462   0.744   7.324   5.630
93208SOL    HW181463   0.729   7.408   5.588
93208SOL    HW281464   0.821   7.338   5.685
93209SOL     OW81465   5.029  13.431   0.306
93209SOL    HW181466   5.100  13.375   0.275
93209SOL    HW281467   5.024  13.502   0.241
93210SOL     OW81468  14.009  13.594   9.420
93210SOL    HW181469  14.087  13.627   9.374
93210SOL    HW281470  14.027  13.611   9.513
93211SOL     OW81471   0.563  11.564   8.832
93211SOL    HW181472   0.490  11.616   8.798
93211SOL    HW281473   0.553  11.478   8.792
93212SOL     OW81474   2.082   0.369  11.525
93212SOL    HW181475   2.098   0.460  11.500
93212SOL    HW281476   1.997   0.348  11.486
93213SOL     OW81477  14.798   6.420  10.286
93213SOL    HW181478  14.742   6.406  10.210
93213SOL    HW281479  14.763   6.499  10.327
93214SOL     OW81480   5.428   1.282   7.191
93214SOL    HW181481   5.397   1.289   7.281
93214SOL    HW281482   5.410   1.192   7.165
93215SOL     OW81483   6.653   2.190   8.320
93215SOL    HW181484   6.664   2.243   8.241
93215SOL    HW281485   6.742   2.173   8.350
93216SOL     OW81486  12.743   7.284   7.126
93216SOL    HW181487  12.654   7.281   7.161
93216SOL    HW281488  12.781   7.199   7.148
93217SOL     OW81489   0.948   4.568   2.870
93217SOL    HW181490   0.898   4.639   2.910
93217SOL    HW281491   0.970   4.510   2.943
93218SOL     OW81492   0.303   9.578  14.186
93218SOL    HW181493   0.373   9.617  14.238
93218SOL    HW281494   0.223   9.609  14.228
93219SOL     OW81495   9.346  13.787   1.446
93219SOL    HW181496   9.256  13.796   1.478
93219SOL    HW281497   9.379  13.877   1.442
93220SOL     OW81498   7.804  10.709   4.216
93220SOL    HW181499   7.843  10.794   4.235
93220SOL    HW281500   7.780  10.713   4.124
93221SOL     OW81501  13.935  11.928   5.565
93221SOL    HW181502  13.845  11.895   5.554
93221SOL    HW281503  13.926  11.998   5.630
93222SOL     OW81504   1.371   4.537   9.033
93222SOL    HW181505   1.445   4.521   9.090
93222SOL    HW281506   1.361   4.632   9.031
93223SOL     OW81507   8.622  10.409  11.075
93223SOL    HW181508   8.605  10.328  11.122
93223SOL    HW281509   8.537  10.436  11.041
93224SOL     OW81510   9.173  14.400   9.613
93224SOL    HW181511   9.142  14.480   9.570
93224SOL    HW281512   9.268  14.411   9.618
93225SOL     OW81513   8.534   2.836  12.522
93225SOL    HW181514   8.454   2.812  12.474
93225SOL    HW281515   8.565   2.915  12.478
93226SOL     OW81516   4.514   8.743  12.828
93226SOL    HW181517   4.599   8.741  12.871
93226SOL    HW281518   4.456   8.788  12.891
93227SOL     OW81519  11.758   9.960   0.283
93227SOL    HW181520  11.687   9.953   0.220
93227SOL    HW281521  11.837   9.967   0.230
93228SOL     OW81522   8.911   9.873   5.885
93228SOL    HW181523   8.892   9.815   5.811
93228SOL    HW281524   8.918   9.815   5.960
93229SOL     OW81525   5.268  11.583  14.427
93229SOL    HW181526   5.326  11.512  14.400
93229SOL    HW281527   5.328  11.653  14.455
93230SOL     OW81528   5.352   7.580  13.983
93230SOL    HW181529   5.429   7.588  13.925
93230SOL    HW281530   5.387   7.542  14.063
93231SOL     OW81531   0.872  13.208   6.076
93231SOL    HW181532   0.863  13.183   5.984
93231SOL    HW281533   0.925  13.139   6.115
93232SOL     OW81534  12.956   3.403   4.196
93232SOL    HW181535  12.958   3.381   4.289
93232SOL    HW281536  12.901   3.481   4.191
93233SOL     OW81537  12.945   7.340  14.063
93233SOL    HW181538  12.993   7.321  14.143
93233SOL    HW281539  12.904   7.425  14.079
93234SOL     OW81540  10.140  13.431   1.122
93234SOL    HW181541  10.199  13.356   1.122
93234SOL    HW281542  10.167  13.483   1.198
93235SOL     OW81543   2.464  11.937   6.367
93235SOL    HW181544   2.525  11.929   6.441
93235SOL    HW281545   2.382  11.966   6.407
93236SOL     OW81546   9.471   7.885   8.204
93236SOL    HW181547   9.563   7.878   8.178
93236SOL    HW281548   9.473   7.930   8.289
93237SOL     OW81549   3.808   1.403   8.940
93237SOL    HW181550   3.788   1.330   8.997
93237SOL    HW281551   3.865   1.367   8.873
93238SOL     OW81552   4.138  14.171   3.275
93238SOL    HW181553   4.137  14.230   3.351
93238SOL    HW281554   4.148  14.228   3.200
93239SOL     OW81555   8.913  11.728   7.468
93239SOL    HW181556   8.969  11.774   7.530
93239SOL    HW281557   8.827  11.726   7.509
93240SOL     OW81558  14.075   8.017   9.264
93240SOL    HW181559  14.062   8.022   9.169
93240SOL    HW281560  14.004   8.070   9.301
93241SOL     OW81561  10.495   6.111   9.991
93241SOL    HW181562  10.530   6.111   9.902
93241SOL    HW281563  10.462   6.022  10.004
93242SOL     OW81564  13.827  12.297   6.903
93242SOL    HW181565  13.890  12.368   6.889
93242SOL    HW281566  13.744  12.332   6.872
93243SOL     OW81567   9.000  10.013   3.546
93243SOL    HW181568   8.923  10.045   3.499
93243SOL    HW281569   9.046   9.958   3.482
93244SOL     OW81570  11.608  14.603  12.584
93244SOL    HW181571  11.523  14.640  12.606
93244SOL    HW281572  11.663  14.624  12.659
93245SOL     OW81573  11.090   7.349   5.536
93245SOL    HW181574  11.167   7.300   5.506
93245SOL    HW281575  11.124   7.406   5.605
93246SOL     OW81576  10.720   5.749   7.268
93246SOL    HW181577  10.734   5.676   7.328
93246SOL    HW281578  10.724   5.710   7.181
93247SOL     OW81579   7.010   2.970  13.522
93247SOL    HW181580   6.930   3.011  13.488
93247SOL    HW281581   6.987   2.877  13.531
93248SOL     OW81582  13.958   0.671   7.242
93248SOL    HW181583  13.910   0.753   7.249
93248SOL    HW281584  14.031   0.679   7.304
93249SOL     OW81585   0.083   7.586   7.482
93249SOL    HW181586   0.014   7.647   7.507
93249SOL    HW281587   0.045   7.499   7.494
93250SOL     OW81588  10.291   3.655   6.319
93250SOL    HW181589  10.310   3.686   6.230
93250SOL    HW281590  10.274   3.734   6.369
93251SOL     OW81591  11.731  11.411   8.669
93251SOL    HW181592  11.700  11.388   8.756
93251SOL    HW281593  11.699  11.339   8.613
93252SOL     OW81594   4.464   8.192   2.826
93252SOL    HW181595   4.528   8.149   2.883
93252SOL    HW281596   4.419   8.120   2.782
93253SOL     OW81597  12.630   7.376   4.240
93253SOL    HW181598  12.714   7.421   4.245
93253SOL    HW281599  12.619   7.336   4.326
93254SOL     OW81600  13.432   4.790   6.840
93254SOL    HW181601  13.450   4.698   6.857
93254SOL    HW281602  13.387   4.791   6.756
93255SOL     OW81603   2.368  13.532   9.929
93255SOL    HW181604   2.427  13.487   9.869
93255SOL    HW281605   2.408  13.617   9.943
93256SOL     OW81606  13.697  13.289  13.875
93256SOL    HW181607  13.665  13.362  13.821
93256SOL    HW281608  13.664  13.308  13.963
93257SOL     OW81609   4.982  10.277   3.596
93257SOL    HW181610   5.074  10.250   3.599
93257SOL    HW281611   4.945  10.228   3.522
93258SOL     OW81612   3.752   8.734  14.434
93258SOL    HW181613   3.716   8.779  14.358
93258SOL    HW281614   3.726   8.789  14.508
93259SOL     OW81615   2.124  10.674   7.307
93259SOL    HW181616   2.139  10.727   7.228
93259SOL    HW281617   2.041  10.628   7.290
93260SOL     OW81618   4.218   5.481  12.973
93260SOL    HW181619   4.233   5.413  13.039
93260SOL    HW281620   4.247   5.562  13.016
93261SOL     OW81621   9.667   4.147   6.263
93261SOL    HW181622   9.649   4.064   6.218
93261SOL    HW281623   9.756   4.170   6.238
93262SOL     OW81624   9.064   6.381  14.270
93262SOL    HW181625   9.129   6.339  14.326
93262SOL    HW281626   8.980   6.346  14.301
93263SOL     OW81627  13.752   9.847  11.824
93263SOL    HW181628  13.711   9.930  11.849
93263SOL    HW281629  13.680   9.794  11.790
93264SOL     OW81630   1.260  13.531   8.496
93264SOL    HW181631   1.278  13.577   8.578
93264SOL    HW281632   1.217  13.450   8.523
93265SOL     OW81633   1.335   2.852   5.684
93265SOL    HW181634   1.290   2.824   5.763
93265SOL    HW281635   1.362   2.942   5.701
93266SOL     OW81636   2.129   8.416   6.995
93266SOL    HW181637   2.206   8.399   6.941
93266SOL    HW281638   2.078   8.335   6.990
93267SOL     OW81639   4.366   7.932  14.328
93267SOL    HW181640   4.316   7.979  14.394
93267SOL    HW281641   4.442   7.988  14.311
93268SOL     OW81642   8.135   0.839   1.646
93268SOL    HW181643   8.058   0.892   1.624
93268SOL    HW281644   8.179   0.824   1.563
93269SOL     OW81645  12.955   4.186   8.834
93269SOL    HW181646  12.862   4.171   8.816
93269SOL    HW281647  12.987   4.102   8.867
93270SOL     OW81648  13.736   9.792   2.910
93270SOL    HW181649  13.684   9.836   2.976
93270SOL    HW281650  13.764   9.861   2.851
93271SOL     OW81651   6.605   6.630   4.261
93271SOL    HW181652   6.515   6.609   4.286
93271SOL    HW281653   6.651   6.546   4.266
93272SOL     OW81654  11.260   1.497  11.226
93272SOL    HW181655  11.276   1.525  11.316
93272SOL    HW281656  11.172   1.458  11.227
93273SOL     OW81657   0.659   9.005  11.870
93273SOL    HW181658   0.709   8.953  11.933
93273SOL    HW281659   0.569   9.001  11.901
93274SOL     OW81660   6.038   7.746   8.445
93274SOL    HW181661   6.056   7.736   8.352
93274SOL    HW281662   6.125   7.749   8.486
93275SOL     OW81663   5.036   7.270   3.526
93275SOL    HW181664   5.013   7.215   3.452
93275SOL    HW281665   4.954   7.277   3.577
93276SOL     OW81666   8.054  13.505   3.106
93276SOL    HW181667   8.055  13.553   3.189
93276SOL    HW281668   8.142  13.519   3.070
93277SOL     OW81669   8.170  12.432  13.902
93277SOL    HW181670   8.151  12.525  13.913
93277SOL    HW281671   8.184  12.422  13.808
93278SOL     OW81672  12.232   6.673  12.741
93278SOL    HW181673  12.154   6.719  12.709
93278SOL    HW281674  12.209   6.580  12.736
93279SOL     OW81675  12.186  10.175   3.187
93279SOL    HW181676  12.207  10.252   3.134
93279SOL    HW281677  12.261  10.117   3.177
93280SOL     OW81678   7.187  11.749   0.129
93280SOL    HW181679   7.228  11.665   0.109
93280SOL    HW281680   7.220  11.809   0.062
93281SOL     OW81681   2.078   0.705  12.037
93281SOL    HW181682   2.171   0.698  12.060
93281SOL    HW281683   2.032   0.663  12.110
93282SOL     OW81684   8.481   4.767   0.092
93282SOL    HW181685   8.509   4.792   0.003
93282SOL    HW281686   8.478   4.850   0.140
93283SOL     OW81687  12.845   8.826  11.389
93283SOL    HW181688  12.859   8.885  11.315
93283SOL    HW281689  12.779   8.869  11.442
93284SOL     OW81690   6.437  11.737   3.341
93284SOL    HW181691   6.403  11.796   3.274
93284SOL    HW281692   6.415  11.649   3.310
93285SOL     OW81693   0.501   3.004  10.641
93285SOL    HW181694   0.509   3.040  10.729
93285SOL    HW281695   0.564   3.053  10.589
93286SOL     OW81696  12.474   5.006  12.647
93286SOL    HW181697  12.430   4.930  12.608
93286SOL    HW281698  12.414   5.034  12.717
93287SOL     OW81699  10.854  11.677   3.228
93287SOL    HW181700  10.799  11.722   3.293
93287SOL    HW281701  10.824  11.586   3.230
93288SOL     OW81702   5.039  13.939   0.290
93288SOL    HW181703   4.958  13.960   0.244
93288SOL    HW281704   5.085  14.022   0.295
93289SOL     OW81705   6.144   8.608   9.802
93289SOL    HW181706   6.050   8.622   9.813
93289SOL    HW281707   6.181   8.617   9.890
93290SOL     OW81708  13.744   9.229  10.808
93290SOL    HW181709  13.811   9.291  10.834
93290SOL    HW281710  13.662   9.279  10.811
93291SOL     OW81711   9.611   3.561   4.002
93291SOL    HW181712   9.668   3.517   3.939
93291SOL    HW281713   9.540   3.499   4.019
93292SOL     OW81714   4.169  13.014  12.868
93292SOL    HW181715   4.139  12.926  12.892
93292SOL    HW281716   4.231  12.999  12.797
93293SOL     OW81717   1.171  14.746   5.952
93293SOL    HW181718   1.227  14.812   5.912
93293SOL    HW281719   1.224  14.711   6.024
93294SOL     OW81720   0.001   5.587   6.647
93294SOL    HW181721  14.842   5.675   6.665
93294SOL    HW281722   0.034   5.555   6.732
93295SOL     OW81723   0.488   8.005   2.174
93295SOL    HW181724   0.424   7.934   2.187
93295SOL    HW281725   0.547   7.973   2.107
93296SOL     OW81726   7.621   3.774  10.005
93296SOL    HW181727   7.690   3.769   9.939
93296SOL    HW281728   7.621   3.688  10.047
93297SOL     OW81729   1.840  13.247  13.611
93297SOL    HW181730   1.752  13.278  13.593
93297SOL    HW281731   1.829  13.159  13.646
93298SOL     OW81732   5.036   3.028   5.055
93298SOL    HW181733   5.060   3.039   4.963
93298SOL    HW281734   4.940   3.021   5.054
93299SOL     OW81735   8.175  12.288  10.796
93299SOL    HW181736   8.250  12.250  10.750
93299SOL    HW281737   8.119  12.213  10.815
93300SOL     OW81738   4.785  10.089  12.363
93300SOL    HW181739   4.808  10.151  12.294
93300SOL    HW281740   4.796  10.003  12.322
93301SOL     OW81741   4.850   8.036   7.668
93301SOL    HW181742   4.815   8.091   7.598
93301SOL    HW281743   4.889   7.962   7.622
93302SOL     OW81744   0.453  11.113  12.894
93302SOL    HW181745   0.487  11.102  12.982
93302SOL    HW281746   0.514  11.064  12.838
93303SOL     OW81747  12.235   1.232   2.739
93303SOL    HW181748  12.193   1.197   2.818
93303SOL    HW281749  12.315   1.273   2.771
93304SOL     OW81750  12.562   2.100   0.314
93304SOL    HW181751  12.622   2.167   0.281
93304SOL    HW281752  12.597   2.077   0.400
93305SOL     OW81753   2.226  13.643  11.298
93305SOL    HW181754   2.300  13.594  11.335
93305SOL    HW281755   2.170  13.576  11.259
93306SOL     OW81756   8.757   5.525   5.842
93306SOL    HW181757   8.747   5.448   5.786
93306SOL    HW281758   8.752   5.599   5.781
93307SOL     OW81759   8.597  12.787   0.301
93307SOL    HW181760   8.638  12.710   0.340
93307SOL    HW281761   8.671  12.842   0.274
93308SOL     OW81762   0.156  11.995   6.362
93308SOL    HW181763   0.188  11.980   6.451
93308SOL    HW281764   0.105  11.917   6.341
93309SOL     OW81765   9.826   7.999   2.359
93309SOL    HW181766   9.874   8.079   2.380
93309SOL    HW281767   9.887   7.946   2.309
93310SOL     OW81768  10.183   5.921  13.200
93310SOL    HW181769  10.201   5.901  13.108
93310SOL    HW281770  10.265   5.900  13.245
93311SOL     OW81771   0.651  12.586   1.037
93311SOL    HW181772   0.611  12.651   1.094
93311SOL    HW281773   0.622  12.502   1.072
93312SOL     OW81774   5.840   6.392   9.532
93312SOL    HW181775   5.777   6.457   9.501
93312SOL    HW281776   5.924   6.437   9.526
93313SOL     OW81777   2.391  14.210   7.916
93313SOL    HW181778   2.325  14.212   7.847
93313SOL    HW281779   2.435  14.126   7.905
93314SOL     OW81780  11.887  13.247   1.203
93314SOL    HW181781  11.903  13.341   1.201
93314SOL    HW281782  11.872  13.227   1.296
93315SOL     OW81783   4.730  11.041  11.916
93315SOL    HW181784   4.760  11.131  11.904
93315SOL    HW281785   4.635  11.045  11.907
93316SOL     OW81786  10.747   6.347   1.810
93316SOL    HW181787  10.815   6.409   1.835
93316SOL    HW281788  10.787   6.291   1.744
93317SOL     OW81789  12.358   9.489   0.361
93317SOL    HW181790  12.317   9.575   0.370
93317SOL    HW281791  12.452   9.506   0.373
93318SOL     OW81792   0.271   7.722  14.253
93318SOL    HW181793   0.230   7.675  14.182
93318SOL    HW281794   0.365   7.714  14.237
93319SOL     OW81795  12.059   9.607  10.183
93319SOL    HW181796  12.141   9.574  10.220
93319SOL    HW281797  12.084   9.642  10.098
93320SOL     OW81798  13.747  10.065   3.647
93320SOL    HW181799  13.727  10.109   3.564
93320SOL    HW281800  13.717   9.975   3.634
93321SOL     OW81801   4.327   1.815  11.954
93321SOL    HW181802   4.323   1.721  11.936
93321SOL    HW281803   4.279   1.855  11.882
93322SOL     OW81804   4.896   8.276   8.212
93322SOL    HW181805   4.914   8.357   8.259
93322SOL    HW281806   4.906   8.207   8.277
93323SOL     OW81807  12.945   4.239   5.247
93323SOL    HW181808  12.910   4.305   5.307
93323SOL    HW281809  13.015   4.285   5.200
93324SOL     OW81810  11.618   4.671  11.480
93324SOL    HW181811  11.647   4.753  11.440
93324SOL    HW281812  11.546   4.696  11.537
93325SOL     OW81813  14.651   8.981   6.609
93325SOL    HW181814  14.647   8.933   6.692
93325SOL    HW281815  14.572   8.955   6.562
93326SOL     OW81816   6.506   2.037   0.753
93326SOL    HW181817   6.507   1.971   0.684
93326SOL    HW281818   6.538   2.117   0.711
93327SOL     OW81819  14.096  10.604   7.440
93327SOL    HW181820  14.012  10.569   7.472
93327SOL    HW281821  14.098  10.579   7.347
93328SOL     OW81822   5.352   7.376   6.066
93328SOL    HW181823   5.406   7.389   5.989
93328SOL    HW281824   5.270   7.422   6.046
93329SOL     OW81825   8.917  11.527   1.322
93329SOL    HW181826   8.838  11.484   1.289
93329SOL    HW281827   8.913  11.615   1.285
93330SOL     OW81828   2.761  14.750   7.605
93330SOL    HW181829   2.810  14.783   7.529
93330SOL    HW281830   2.726  14.828   7.647
93331SOL     OW81831  10.345   4.351  11.049
93331SOL    HW181832  10.325   4.289  10.979
93331SOL    HW281833  10.440   4.342  11.062
93332SOL     OW81834  14.398   7.887   2.104
93332SOL    HW181835  14.326   7.892   2.040
93332SOL    HW281836  14.449   7.812   2.076
93333SOL     OW81837   2.013   5.949   7.062
93333SOL    HW181838   1.929   5.911   7.036
93333SOL    HW281839   1.990   6.034   7.101
93334SOL     OW81840   9.298   2.750   9.050
93334SOL    HW181841   9.205   2.728   9.055
93334SOL    HW281842   9.319   2.747   8.957
93335SOL     OW81843  13.531  10.281  14.015
93335SOL    HW181844  13.620  10.263  14.044
93335SOL    HW281845  13.488  10.320  14.091
93336SOL     OW81846   9.741   3.332   6.454
93336SOL    HW181847   9.782   3.389   6.519
93336SOL    HW281848   9.811   3.312   6.392
93337SOL     OW81849   0.850   5.751   9.012
93337SOL    HW181850   0.938   5.780   9.032
93337SOL    HW281851   0.796   5.830   9.016
93338SOL     OW81852   7.581   0.157   6.389
93338SOL    HW181853   7.638   0.096   6.435
93338SOL    HW281854   7.598   0.242   6.430
93339SOL     OW81855  10.246   0.438   2.989
93339SOL    HW181856  10.155   0.427   3.019
93339SOL    HW281857  10.293   0.364   3.028
93340SOL     OW81858  11.218   2.656   0.499
93340SOL    HW181859  11.266   2.683   0.576
93340SOL    HW281860  11.149   2.599   0.532
93341SOL     OW81861   5.388   0.107  14.061
93341SOL    HW181862   5.440   0.036  14.024
93341SOL    HW281863   5.297   0.081  14.045
93342SOL     OW81864   8.383   2.733   2.116
93342SOL    HW181865   8.358   2.763   2.203
93342SOL    HW281866   8.451   2.667   2.132
93343SOL     OW81867  12.457   8.000  12.508
93343SOL    HW181868  12.444   8.017  12.601
93343SOL    HW281869  12.488   7.909  12.504
93344SOL     OW81870   2.861  11.750   5.888
93344SOL    HW181871   2.935  11.690   5.894
93344SOL    HW281872   2.802  11.709   5.826
93345SOL     OW81873  14.362  10.526  12.292
93345SOL    HW181874  14.359  10.563  12.203
93345SOL    HW281875  14.383  10.434  12.278
93346SOL     OW81876  14.390   9.303  13.979
93346SOL    HW181877  14.440   9.249  13.918
93346SOL    HW281878  14.350   9.240  14.039
93347SOL     OW81879   6.106   6.240  11.079
93347SOL    HW181880   6.020   6.237  11.037
93347SOL    HW281881   6.127   6.333  11.087
93348SOL     OW81882   7.037  14.827   8.613
93348SOL    HW181883   7.095  14.751   8.610
93348SOL    HW281884   7.092   0.026   8.644
93349SOL     OW81885  12.963  11.784   8.171
93349SOL    HW181886  12.999  11.778   8.260
93349SOL    HW281887  12.977  11.698   8.133
93350SOL     OW81888   4.462   8.235   1.757
93350SOL    HW181889   4.519   8.300   1.715
93350SOL    HW281890   4.376   8.249   1.716
93351SOL     OW81891   5.627   9.841   0.917
93351SOL    HW181892   5.559   9.881   0.863
93351SOL    HW281893   5.580   9.805   0.992
93352SOL     OW81894   6.648  12.942  14.236
93352SOL    HW181895   6.637  13.023  14.187
93352SOL    HW281896   6.558  12.914  14.255
93353SOL     OW81897  14.548   9.372   7.163
93353SOL    HW181898  14.467   9.369   7.112
93353SOL    HW281899  14.586   9.285   7.155
93354SOL     OW81900   2.169   3.253   8.018
93354SOL    HW181901   2.164   3.216   8.106
93354SOL    HW281902   2.207   3.184   7.965
93355SOL     OW81903   1.245   3.092   3.576
93355SOL    HW181904   1.185   3.122   3.645
93355SOL    HW281905   1.332   3.113   3.609
93356SOL     OW81906   6.241  13.319  12.744
93356SOL    HW181907   6.186  13.323  12.822
93356SOL    HW281908   6.324  13.283  12.774
93357SOL     OW81909   8.524   1.581   7.602
93357SOL    HW181910   8.463   1.559   7.532
93357SOL    HW281911   8.473   1.573   7.682
93358SOL     OW81912   3.096   1.916  11.830
93358SOL    HW181913   3.105   1.915  11.925
93358SOL    HW281914   3.124   2.004  11.804
93359SOL     OW81915   4.769   4.743  10.739
93359SOL    HW181916   4.697   4.682  10.754
93359SOL    HW281917   4.834   4.721  10.806
93360SOL     OW81918  11.663   4.025   4.019
93360SOL    HW181919  11.758   4.035   4.021
93360SOL    HW281920  11.634   4.052   4.107
93361SOL     OW81921  11.451   1.904   8.533
93361SOL    HW181922  11.466   1.915   8.440
93361SOL    HW281923  11.503   1.973   8.575
93362SOL     OW81924   0.164  11.077   4.253
93362SOL    HW181925   0.126  10.994   4.225
93362SOL    HW281926   0.214  11.107   4.176
93363SOL     OW81927   2.415   7.315   2.286
93363SOL    HW181928   2.467   7.241   2.316
93363SOL    HW281929   2.416   7.376   2.360
93364SOL     OW81930   0.805  13.671   9.581
93364SOL    HW181931   0.758  13.718   9.649
93364SOL    HW281932   0.830  13.739   9.518
93365SOL     OW81933   1.643   2.461  12.938
93365SOL    HW181934   1.582   2.480  13.008
93365SOL    HW281935   1.627   2.369  12.916
93366SOL     OW81936   6.537   7.973  10.463
93366SOL    HW181937   6.576   7.982  10.550
93366SOL    HW281938   6.608   7.942  10.407
93367SOL     OW81939  11.353   6.798   6.956
93367SOL    HW181940  11.335   6.869   6.895
93367SOL    HW281941  11.267   6.764   6.980
93368SOL     OW81942   2.946   8.636  13.967
93368SOL    HW181943   2.996   8.563  13.931
93368SOL    HW281944   2.859   8.600  13.983
93369SOL     OW81945  13.822  13.293   0.752
93369SOL    HW181946  13.790  13.271   0.839
93369SOL    HW281947  13.792  13.221   0.696
93370SOL     OW81948   3.271   8.630   1.037
93370SOL    HW181949   3.268   8.715   0.991
93370SOL    HW281950   3.230   8.569   0.976
93371SOL     OW81951   6.211  12.194   2.484
93371SOL    HW181952   6.147  12.258   2.455
93371SOL    HW281953   6.285  12.246   2.514
93372SOL     OW81954  10.473  10.154   6.790
93372SOL    HW181955  10.558  10.154   6.746
93372SOL    HW281956  10.444  10.063   6.786
93373SOL     OW81957   2.044   2.824   9.043
93373SOL    HW181958   2.017   2.736   9.017
93373SOL    HW281959   2.137   2.816   9.064
93374SOL     OW81960   1.757   2.822   0.015
93374SOL    HW181961   1.793   2.734   0.019
93374SOL    HW281962   1.833   2.880   0.025
93375SOL     OW81963   2.907   6.190  11.322
93375SOL    HW181964   2.893   6.283  11.302
93375SOL    HW281965   3.001   6.181  11.331
93376SOL     OW81966   3.229   0.442   4.546
93376SOL    HW181967   3.322   0.440   4.523
93376SOL    HW281968   3.223   0.510   4.613
93377SOL     OW81969  11.205  10.565   7.293
93377SOL    HW181970  11.298  10.554   7.314
93377SOL    HW281971  11.205  10.586   7.199
93378SOL     OW81972  13.950   6.662   1.626
93378SOL    HW181973  13.856   6.650   1.641
93378SOL    HW281974  13.971   6.744   1.669
93379SOL     OW81975   6.420   7.017   8.842
93379SOL    HW181976   6.473   6.956   8.790
93379SOL    HW281977   6.476   7.094   8.853
93380SOL     OW81978   1.203   7.501   9.341
93380SOL    HW181979   1.113   7.495   9.372
93380SOL    HW281980   1.200   7.565   9.270
93381SOL     OW81981   2.692   4.625  14.078
93381SOL    HW181982   2.773   4.601  14.123
93381SOL    HW281983   2.710   4.607  13.986
93382SOL     OW81984  10.915   0.914  10.854
93382SOL    HW181985  10.950   0.963  10.780
93382SOL    HW281986  10.913   0.823  10.824
93383SOL     OW81987  13.224   6.215   3.642
93383SOL    HW181988  13.132   6.192   3.657
93383SOL    HW281989  13.258   6.236   3.729
93384SOL     OW81990   1.389  10.597   6.901
93384SOL    HW181991   1.358  10.584   6.811
93384SOL    HW281992   1.481  10.623   6.890
93385SOL     OW81993  13.265   2.524  12.715
93385SOL    HW181994  13.266   2.488  12.803
93385SOL    HW281995  13.177   2.561  12.704
93386SOL     OW81996   5.200   5.817   5.081
93386SOL    HW181997   5.195   5.913   5.077
93386SOL    HW281998   5.288   5.799   5.114
93387SOL     OW81999   1.377  13.869   7.415
93387SOL    HW182000   1.290  13.899   7.390
93387SOL    HW282001   1.431  13.948   7.412
93388SOL     OW82002   5.118  14.599  14.573
93388SOL    HW182003   5.072  14.659  14.515
93388SOL    HW282004   5.081  14.513  14.551
93389SOL     OW82005  14.386  11.421   2.250
93389SOL    HW182006  14.341  11.471   2.182
93389SOL    HW282007  14.442  11.485   2.294
93390SOL     OW82008   7.231   6.523   8.954
93390SOL    HW182009   7.291   6.593   8.979
93390SOL    HW282010   7.245   6.512   8.860
93391SOL     OW82011   1.637  12.129   8.759
93391SOL    HW182012   1.644  12.175   8.843
93391SOL    HW282013   1.543  12.113   8.749
93392SOL     OW82014   7.637  13.605   1.422
93392SOL    HW182015   7.615  13.521   1.383
93392SOL    HW282016   7.727  13.594   1.454
93393SOL     OW82017   6.548  10.229   3.466
93393SOL    HW182018   6.530  10.155   3.407
93393SOL    HW282019   6.508  10.204   3.549
93394SOL     OW82020   3.448  13.203  10.957
93394SOL    HW182021   3.532  13.162  10.940
93394SOL    HW282022   3.468  13.295  10.973
93395SOL     OW82023   7.614   8.464   4.344
93395SOL    HW182024   7.706   8.445   4.323
93395SOL    HW282025   7.601   8.428   4.432
93396SOL     OW82026   4.479   1.331   6.394
93396SOL    HW182027   4.453   1.239   6.384
93396SOL    HW282028   4.568   1.326   6.428
93397SOL     OW82029   3.012   0.448   6.298
93397SOL    HW182030   3.064   0.445   6.218
93397SOL    HW282031   2.960   0.368   6.296
93398SOL     OW82032   7.947   8.924   1.720
93398SOL    HW182033   7.949   8.979   1.799
93398SOL    HW282034   7.869   8.954   1.673
93399SOL     OW82035   8.990  12.076   6.662
93399SOL    HW182036   9.070  12.076   6.609
93399SOL    HW282037   8.986  11.988   6.700
93400SOL     OW82038   6.477   3.574   5.143
93400SOL    HW182039   6.432   3.659   5.146
93400SOL    HW282040   6.561   3.590   5.186
93401SOL     OW82041  10.901  10.321   6.260
93401SOL    HW182042  10.986  10.332   6.304
93401SOL    HW282043  10.921  10.332   6.167
93402SOL     OW82044   9.457   7.201   4.848
93402SOL    HW182045   9.369   7.210   4.883
93402SOL    HW282046   9.463   7.109   4.821
93403SOL     OW82047   8.046   9.151   0.899
93403SOL    HW182048   7.993   9.185   0.827
93403SOL    HW282049   7.982   9.122   0.964
93404SOL     OW82050  14.650  11.534  13.530
93404SOL    HW182051  14.575  11.477  13.515
93404SOL    HW282052  14.704  11.486  13.593
93405SOL     OW82053   1.981  12.404   4.658
93405SOL    HW182054   1.969  12.441   4.570
93405SOL    HW282055   1.917  12.333   4.664
93406SOL     OW82056  10.431  14.788   5.784
93406SOL    HW182057  10.379  14.747   5.715
93406SOL    HW282058  10.403  14.745   5.864
93407SOL     OW82059  10.394   1.155  13.126
93407SOL    HW182060  10.445   1.111  13.058
93407SOL    HW282061  10.459   1.185  13.189
93408SOL     OW82062  13.177   2.757  10.629
93408SOL    HW182063  13.126   2.725  10.703
93408SOL    HW282064  13.217   2.678  10.591
93409SOL     OW82065  14.570   4.829   1.500
93409SOL    HW182066  14.609   4.907   1.460
93409SOL    HW282067  14.622   4.756   1.466
93410SOL     OW82068  12.142   0.589   9.551
93410SOL    HW182069  12.183   0.671   9.580
93410SOL    HW282070  12.055   0.590   9.591
93411SOL     OW82071   0.146  11.378   0.518
93411SOL    HW182072   0.192  11.393   0.601
93411SOL    HW282073   0.054  11.373   0.542
93412SOL     OW82074   0.597   8.726   3.641
93412SOL    HW182075   0.503   8.746   3.639
93412SOL    HW282076   0.621   8.731   3.733
93413SOL     OW82077   1.066  10.051   0.023
93413SOL    HW182078   1.157  10.081   0.026
93413SOL    HW282079   1.030  10.092  14.817
93414SOL     OW82080   9.212   3.958  14.455
93414SOL    HW182081   9.141   3.895  14.466
93414SOL    HW282082   9.272   3.939  14.528
93415SOL     OW82083   7.978   2.953   4.729
93415SOL    HW182084   8.012   3.003   4.654
93415SOL    HW282085   7.897   2.997   4.753
93416SOL     OW82086  13.526   5.292  13.043
93416SOL    HW182087  13.451   5.254  12.997
93416SOL    HW282088  13.494   5.375  13.077
93417SOL     OW82089  10.603  13.268  14.644
93417SOL    HW182090  10.583  13.336  14.708
93417SOL    HW282091  10.596  13.312  14.559
93418SOL     OW82092  14.616  11.334  14.802
93418SOL    HW182093  14.542  11.376  14.758
93418SOL    HW282094  14.692  11.384  14.773
93419SOL     OW82095  10.026   2.949   9.837
93419SOL    HW182096  10.097   2.967   9.775
93419SOL    HW282097   9.949   2.991   9.799
93420SOL     OW82098   7.636  13.469  10.956
93420SOL    HW182099   7.706  13.532  10.970
93420SOL    HW282100   7.668  13.413  10.885
93421SOL     OW82101   7.863   8.300  10.072
93421SOL    HW182102   7.775   8.290  10.109
93421SOL    HW282103   7.918   8.242  10.124
93422SOL     OW82104   5.084   2.984  13.131
93422SOL    HW182105   5.003   2.958  13.087
93422SOL    HW282106   5.145   2.913  13.113
93423SOL     OW82107  13.964   1.897   0.717
93423SOL    HW182108  13.884   1.919   0.670
93423SOL    HW282109  13.984   1.807   0.690
93424SOL     OW82110  13.372   8.494  12.080
93424SOL    HW182111  13.332   8.576  12.112
93424SOL    HW282112  13.465   8.504  12.101
93425SOL     OW82113   5.661   0.814  14.726
93425SOL    HW182114   5.700   0.743  14.777
93425SOL    HW282115   5.729   0.881  14.721
93426SOL     OW82116   5.161  11.050   5.831
93426SOL    HW182117   5.230  11.057   5.765
93426SOL    HW282118   5.198  11.095   5.908
93427SOL     OW82119   5.103  13.358   6.187
93427SOL    HW182120   5.183  13.372   6.238
93427SOL    HW282121   5.070  13.273   6.216
93428SOL     OW82122   6.511   8.306   4.292
93428SOL    HW182123   6.524   8.312   4.197
93428SOL    HW282124   6.516   8.212   4.311
93429SOL     OW82125   9.425  10.099   2.519
93429SOL    HW182126   9.391  10.160   2.584
93429SOL    HW282127   9.520  10.103   2.531
93430SOL     OW82128   7.185   9.770   4.504
93430SOL    HW182129   7.269   9.739   4.536
93430SOL    HW282130   7.146   9.694   4.461
93431SOL     OW82131   5.277   6.129   6.631
93431SOL    HW182132   5.251   6.131   6.723
93431SOL    HW282133   5.231   6.203   6.592
93432SOL     OW82134   8.682  10.259   7.016
93432SOL    HW182135   8.674  10.173   6.975
93432SOL    HW282136   8.673  10.241   7.110
93433SOL     OW82137   0.942  11.661   2.361
93433SOL    HW182138   1.034  11.640   2.345
93433SOL    HW282139   0.937  11.676   2.455
93434SOL     OW82140  10.075  14.423   3.106
93434SOL    HW182141  10.127  14.472   3.043
93434SOL    HW282142   9.990  14.411   3.064
93435SOL     OW82143   3.656   3.917  11.170
93435SOL    HW182144   3.597   3.879  11.105
93435SOL    HW282145   3.744   3.897  11.137
93436SOL     OW82146  12.475  13.943   0.715
93436SOL    HW182147  12.413  13.919   0.647
93436SOL    HW282148  12.495  14.035   0.698
93437SOL     OW82149   9.068   0.442   3.634
93437SOL    HW182150   9.069   0.349   3.611
93437SOL    HW282151   9.142   0.454   3.692
93438SOL     OW82152  12.855   8.118   2.422
93438SOL    HW182153  12.772   8.130   2.377
93438SOL    HW282154  12.833   8.118   2.515
93439SOL     OW82155   5.467   2.560   8.649
93439SOL    HW182156   5.514   2.482   8.676
93439SOL    HW282157   5.514   2.632   8.689
93440SOL     OW82158   4.930  12.720   9.764
93440SOL    HW182159   4.855  12.779   9.772
93440SOL    HW282160   4.994  12.770   9.713
93441SOL     OW82161   3.676   5.497  12.590
93441SOL    HW182162   3.731   5.419  12.604
93441SOL    HW282163   3.699   5.527  12.502
93442SOL     OW82164   3.944   4.455   1.601
93442SOL    HW182165   4.035   4.438   1.626
93442SOL    HW282166   3.947   4.473   1.508
93443SOL     OW82167   5.088  12.918  11.527
93443SOL    HW182168   5.003  12.952  11.501
93443SOL    HW282169   5.108  12.963  11.609
93444SOL     OW82170   5.674   9.139   0.586
93444SOL    HW182171   5.739   9.193   0.540
93444SOL    HW282172   5.618   9.202   0.632
93445SOL     OW82173  13.455  12.791  13.262
93445SOL    HW182174  13.549  12.773  13.262
93445SOL    HW282175  13.437  12.824  13.349
93446SOL     OW82176  10.998  13.436  12.480
93446SOL    HW182177  10.932  13.424  12.548
93446SOL    HW282178  11.061  13.497  12.519
93447SOL     OW82179  11.464   1.686   4.139
93447SOL    HW182180  11.487   1.603   4.180
93447SOL    HW282181  11.548   1.723   4.111
93448SOL     OW82182   8.062   3.862  12.867
93448SOL    HW182183   8.139   3.851  12.923
93448SOL    HW282184   8.088   3.927  12.802
93449SOL     OW82185  14.120  13.710   6.364
93449SOL    HW182186  14.147  13.769   6.434
93449SOL    HW282187  14.050  13.658   6.404
93450SOL     OW82188   2.810   1.960   8.790
93450SOL    HW182189   2.819   1.940   8.883
93450SOL    HW282190   2.859   1.891   8.746
93451SOL     OW82191   4.827  11.231   6.391
93451SOL    HW182192   4.753  11.170   6.394
93451SOL    HW282193   4.859  11.234   6.482
93452SOL     OW82194  13.340  11.158   6.413
93452SOL    HW182195  13.333  11.248   6.382
93452SOL    HW282196  13.280  11.109   6.357
93453SOL     OW82197   3.875   9.276   3.289
93453SOL    HW182198   3.936   9.269   3.216
93453SOL    HW282199   3.899   9.204   3.348
93454SOL     OW82200  12.136   6.090   4.143
93454SOL    HW182201  12.088   6.019   4.186
93454SOL    HW282202  12.188   6.130   4.213
93455SOL     OW82203  13.336   4.489   0.582
93455SOL    HW182204  13.398   4.443   0.637
93455SOL    HW282205  13.272   4.526   0.643
93456SOL     OW82206   0.657   6.101  13.684
93456SOL    HW182207   0.589   6.036  13.665
93456SOL    HW282208   0.685   6.081  13.773
93457SOL     OW82209   9.146   8.615   0.098
93457SOL    HW182210   9.052   8.630   0.111
93457SOL    HW282211   9.166   8.657   0.015
93458SOL     OW82212  12.173   7.953   9.326
93458SOL    HW182213  12.262   7.944   9.362
93458SOL    HW282214  12.166   8.045   9.303
93459SOL     OW82215   4.642   5.920   7.850
93459SOL    HW182216   4.662   5.833   7.817
93459SOL    HW282217   4.720   5.972   7.831
93460SOL     OW82218  11.129  12.099   5.399
93460SOL    HW182219  11.188  12.174   5.394
93460SOL    HW282220  11.101  12.084   5.309
93461SOL     OW82221   1.207   8.308  10.904
93461SOL    HW182222   1.117   8.341  10.903
93461SOL    HW282223   1.205   8.233  10.844
93462SOL     OW82224   5.536   9.838   9.208
93462SOL    HW182225   5.628   9.815   9.218
93462SOL    HW282226   5.510   9.799   9.124
93463SOL     OW82227   7.675   3.388   3.837
93463SOL    HW182228   7.727   3.312   3.864
93463SOL    HW282229   7.729   3.463   3.860
93464SOL     OW82230   9.334   3.666  12.710
93464SOL    HW182231   9.300   3.635  12.794
93464SOL    HW282232   9.341   3.587  12.656
93465SOL     OW82233   1.801   7.692  13.086
93465SOL    HW182234   1.808   7.623  13.020
93465SOL    HW282235   1.727   7.746  13.056
93466SOL     OW82236   1.799   9.032   3.845
93466SOL    HW182237   1.782   9.008   3.936
93466SOL    HW282238   1.893   9.018   3.834
93467SOL     OW82239   5.188   2.988   4.410
93467SOL    HW182240   5.130   3.057   4.377
93467SOL    HW282241   5.237   3.031   4.481
93468SOL     OW82242   1.246   6.848   9.705
93468SOL    HW182243   1.305   6.847   9.629
93468SOL    HW282244   1.268   6.769   9.753
93469SOL     OW82245   1.254   5.101   5.573
93469SOL    HW182246   1.200   5.023   5.589
93469SOL    HW282247   1.230   5.162   5.642
93470SOL     OW82248   2.132   9.067  12.390
93470SOL    HW182249   2.109   9.158  12.371
93470SOL    HW282250   2.064   9.016  12.345
93471SOL     OW82251   6.912   8.997   4.263
93471SOL    HW182252   6.914   8.924   4.324
93471SOL    HW282253   6.982   9.055   4.293
93472SOL     OW82254   3.730  11.745  13.727
93472SOL    HW182255   3.715  11.730  13.634
93472SOL    HW282256   3.667  11.689  13.772
93473SOL     OW82257   0.920   4.249  12.852
93473SOL    HW182258   0.902   4.302  12.930
93473SOL    HW282259   0.921   4.159  12.884
93474SOL     OW82260   3.672  14.502   2.449
93474SOL    HW182261   3.620  14.507   2.530
93474SOL    HW282262   3.751  14.552   2.469
93475SOL     OW82263  12.178  11.129  10.795
93475SOL    HW182264  12.174  11.094  10.706
93475SOL    HW282265  12.100  11.184  10.803
93476SOL     OW82266   8.701  14.502   5.676
93476SOL    HW182267   8.792  14.513   5.702
93476SOL    HW282268   8.678  14.582   5.629
93477SOL     OW82269  10.861   0.348  11.180
93477SOL    HW182270  10.908   0.284  11.234
93477SOL    HW282271  10.924   0.373  11.112
93478SOL     OW82272  14.572  14.255   8.807
93478SOL    HW182273  14.565  14.240   8.902
93478SOL    HW282274  14.483  14.240   8.774
93479SOL     OW82275   9.654   9.304   4.144
93479SOL    HW182276   9.644   9.374   4.209
93479SOL    HW282277   9.667   9.225   4.195
93480SOL     OW82278   4.570   1.820  14.374
93480SOL    HW182279   4.567   1.878  14.298
93480SOL    HW282280   4.575   1.879  14.449
93481SOL     OW82281   7.568   3.603   5.046
93481SOL    HW182282   7.485   3.636   5.011
93481SOL    HW282283   7.632   3.671   5.023
93482SOL     OW82284   7.364   3.044  13.139
93482SOL    HW182285   7.329   2.973  13.086
93482SOL    HW282286   7.322   3.033  13.225
93483SOL     OW82287  13.787   3.139   9.427
93483SOL    HW182288  13.736   3.063   9.454
93483SOL    HW282289  13.858   3.104   9.374
93484SOL     OW82290   4.237   4.622   4.743
93484SOL    HW182291   4.318   4.573   4.750
93484SOL    HW282292   4.170   4.556   4.725
93485SOL     OW82293   6.597   7.301   5.046
93485SOL    HW182294   6.648   7.242   4.990
93485SOL    HW282295   6.561   7.366   4.986
93486SOL     OW82296   0.580  10.901   5.716
93486SOL    HW182297   0.535  10.972   5.671
93486SOL    HW282298   0.663  10.939   5.745
93487SOL     OW82299   5.102   1.070   7.319
93487SOL    HW182300   5.194   1.093   7.327
93487SOL    HW282301   5.057   1.155   7.314
93488SOL     OW82302  10.851   8.765   1.955
93488SOL    HW182303  10.810   8.772   2.041
93488SOL    HW282304  10.827   8.847   1.911
93489SOL     OW82305   8.868  11.455   0.925
93489SOL    HW182306   8.795  11.433   0.983
93489SOL    HW282307   8.946  11.447   0.979
93490SOL     OW82308   9.516   9.337   1.120
93490SOL    HW182309   9.544   9.423   1.089
93490SOL    HW282310   9.597   9.295   1.150
93491SOL     OW82311   3.050   5.495   1.358
93491SOL    HW182312   3.112   5.515   1.428
93491SOL    HW282313   3.057   5.569   1.297
93492SOL     OW82314   4.724   8.142  12.671
93492SOL    HW182315   4.663   8.069  12.661
93492SOL    HW282316   4.752   8.163  12.582
93493SOL     OW82317   9.232   6.024  13.538
93493SOL    HW182318   9.233   6.120  13.533
93493SOL    HW282319   9.321   6.001  13.565
93494SOL     OW82320   0.498   7.882  12.226
93494SOL    HW182321   0.566   7.830  12.181
93494SOL    HW282322   0.423   7.823  12.232
93495SOL     OW82323   2.745   1.949   0.863
93495SOL    HW182324   2.831   1.979   0.892
93495SOL    HW282325   2.689   2.027   0.870
93496SOL     OW82326   4.674   6.052  10.119
93496SOL    HW182327   4.609   6.086  10.057
93496SOL    HW282328   4.634   6.067  10.205
93497SOL     OW82329   5.593   6.657   7.079
93497SOL    HW182330   5.629   6.570   7.097
93497SOL    HW282331   5.570   6.692   7.165
93498SOL     OW82332   1.808   0.717   7.315
93498SOL    HW182333   1.814   0.810   7.293
93498SOL    HW282334   1.756   0.714   7.395
93499SOL     OW82335   5.879   0.265   3.166
93499SOL    HW182336   5.832   0.299   3.243
93499SOL    HW282337   5.961   0.232   3.201
93500SOL     OW82338   4.044  11.499   3.062
93500SOL    HW182339   4.001  11.531   3.141
93500SOL    HW282340   4.075  11.578   3.018
93501SOL     OW82341   8.048  12.754   7.035
93501SOL    HW182342   8.103  12.733   6.960
93501SOL    HW282343   8.100  12.729   7.111
93502SOL     OW82344  13.460   6.769   8.344
93502SOL    HW182345  13.508   6.691   8.316
93502SOL    HW282346  13.422   6.745   8.429
93503SOL     OW82347   9.027   4.606  13.754
93503SOL    HW182348   9.118   4.629  13.769
93503SOL    HW282349   9.027   4.556  13.672
93504SOL     OW82350   5.282  12.871  12.213
93504SOL    HW182351   5.377  12.865  12.223
93504SOL    HW282352   5.255  12.940  12.273
93505SOL     OW82353   5.743   6.119  10.100
93505SOL    HW182354   5.826   6.109  10.053
93505SOL    HW282355   5.684   6.058  10.056
93506SOL     OW82356   9.413  14.761  14.014
93506SOL    HW182357   9.333  14.813  14.022
93506SOL    HW282358   9.458  14.773  14.098
93507SOL     OW82359  14.373   6.711   1.466
93507SOL    HW182360  14.361   6.666   1.382
93507SOL    HW282361  14.451   6.765   1.452
93508SOL     OW82362  13.394  10.108  13.823
93508SOL    HW182363  13.432  10.186  13.864
93508SOL    HW282364  13.364  10.054  13.897
93509SOL     OW82365   0.390   9.623  10.268
93509SOL    HW182366   0.438   9.706  10.264
93509SOL    HW282367   0.445   9.560  10.222
93510SOL     OW82368  13.324   0.345   2.660
93510SOL    HW182369  13.330   0.262   2.707
93510SOL    HW282370  13.230   0.356   2.642
93511SOL     OW82371   6.384   4.839   3.746
93511SOL    HW182372   6.332   4.917   3.766
93511SOL    HW282373   6.378   4.785   3.825
93512SOL     OW82374   5.910  10.696   5.424
93512SOL    HW182375   5.866  10.655   5.499
93512SOL    HW282376   5.906  10.629   5.355
93513SOL     OW82377   9.222  13.695  13.692
93513SOL    HW182378   9.175  13.754  13.633
93513SOL    HW282379   9.184  13.608  13.674
93514SOL     OW82380   0.622   9.914   5.652
93514SOL    HW182381   0.571   9.952   5.723
93514SOL    HW282382   0.558   9.864   5.600
93515SOL     OW82383  14.851  12.686  11.387
93515SOL    HW182384  14.763  12.715  11.409
93515SOL    HW282385  14.854  12.595  11.418
93516SOL     OW82386   0.709   5.413  13.027
93516SOL    HW182387   0.773   5.341  13.030
93516SOL    HW282388   0.629   5.375  13.062
93517SOL     OW82389   4.729  10.073   4.775
93517SOL    HW182390   4.699   9.999   4.829
93517SOL    HW282391   4.658  10.137   4.781
93518SOL     OW82392   9.495  12.415  12.756
93518SOL    HW182393   9.434  12.348  12.786
93518SOL    HW282394   9.473  12.427  12.664
93519SOL     OW82395  12.063   7.623   8.736
93519SOL    HW182396  12.007   7.682   8.786
93519SOL    HW282397  12.110   7.572   8.802
93520SOL     OW82398   9.738  11.474  10.269
93520SOL    HW182399   9.672  11.485  10.338
93520SOL    HW282400   9.692  11.492  10.188
93521SOL     OW82401   2.288   1.711  11.908
93521SOL    HW182402   2.214   1.686  11.964
93521SOL    HW282403   2.319   1.628  11.870
93522SOL     OW82404   7.132  14.129   3.010
93522SOL    HW182405   7.140  14.063   3.080
93522SOL    HW282406   7.145  14.212   3.054
93523SOL     OW82407   3.995   4.467   3.463
93523SOL    HW182408   4.062   4.409   3.426
93523SOL    HW282409   3.917   4.412   3.470
93524SOL     OW82410   2.966   7.091  12.363
93524SOL    HW182411   2.896   7.085  12.428
93524SOL    HW282412   3.022   7.015  12.380
93525SOL     OW82413   7.663   3.504  12.336
93525SOL    HW182414   7.710   3.424  12.314
93525SOL    HW282415   7.729   3.573  12.329
93526SOL     OW82416  10.500   3.524  11.302
93526SOL    HW182417  10.494   3.437  11.261
93526SOL    HW282418  10.593   3.535  11.321
93527SOL     OW82419   2.241  10.344   0.936
93527SOL    HW182420   2.288  10.330   0.854
93527SOL    HW282421   2.235  10.439   0.945
93528SOL     OW82422   6.944   2.657  13.929
93528SOL    HW182423   6.989   2.573  13.918
93528SOL    HW282424   7.000   2.707  13.988
93529SOL     OW82425   3.193   2.398   7.981
93529SOL    HW182426   3.129   2.455   8.024
93529SOL    HW282427   3.155   2.380   7.895
93530SOL     OW82428   0.793  13.168  12.564
93530SOL    HW182429   0.864  13.152  12.502
93530SOL    HW282430   0.800  13.261  12.586
93531SOL     OW82431   1.317  14.178   7.687
93531SOL    HW182432   1.244  14.192   7.748
93531SOL    HW282433   1.283  14.203   7.602
93532SOL     OW82434   7.309   2.663   3.554
93532SOL    HW182435   7.360   2.593   3.595
93532SOL    HW282436   7.218   2.635   3.563
93533SOL     OW82437  10.719   3.001  14.615
93533SOL    HW182438  10.700   2.951  14.536
93533SOL    HW282439  10.687   2.945  14.687
93534SOL     OW82440   9.754   0.431   1.136
93534SOL    HW182441   9.788   0.450   1.224
93534SOL    HW282442   9.694   0.502   1.118
93535SOL     OW82443   2.857  14.205  13.691
93535SOL    HW182444   2.898  14.232  13.609
93535SOL    HW282445   2.862  14.109  13.690
93536SOL     OW82446   1.164  11.226   3.247
93536SOL    HW182447   1.207  11.276   3.317
93536SOL    HW282448   1.227  11.158   3.223
93537SOL     OW82449   0.230  10.901  12.439
93537SOL    HW182450   0.243  10.978  12.495
93537SOL    HW282451   0.239  10.934  12.350
93538SOL     OW82452  11.281   6.834   8.321
93538SOL    HW182453  11.249   6.893   8.391
93538SOL    HW282454  11.214   6.839   8.254
93539SOL     OW82455   7.482   8.064   4.458
93539SOL    HW182456   7.448   8.093   4.543
93539SOL    HW282457   7.423   8.104   4.394
93540SOL     OW82458  12.272  14.290  12.403
93540SOL    HW182459  12.277  14.327  12.492
93540SOL    HW282460  12.202  14.339  12.361
93541SOL     OW82461   0.247  10.735  14.395
93541SOL    HW182462   0.303  10.704  14.324
93541SOL    HW282463   0.205  10.655  14.428
93542SOL     OW82464   8.962   2.755  10.457
93542SOL    HW182465   9.018   2.832  10.459
93542SOL    HW282466   8.879   2.786  10.419
93543SOL     OW82467   7.439   8.204  13.543
93543SOL    HW182468   7.457   8.287  13.499
93543SOL    HW282469   7.525   8.165  13.556
93544SOL     OW82470   2.831   1.959   3.978
93544SOL    HW182471   2.813   1.880   3.927
93544SOL    HW282472   2.924   1.955   3.998
93545SOL     OW82473  12.548   9.145   0.834
93545SOL    HW182474  12.616   9.183   0.779
93545SOL    HW282475  12.470   9.199   0.817
93546SOL     OW82476   3.528  14.137   8.781
93546SOL    HW182477   3.574  14.196   8.841
93546SOL    HW282478   3.493  14.194   8.713
93547SOL     OW82479   2.031  10.576   3.690
93547SOL    HW182480   2.006  10.484   3.697
93547SOL    HW282481   2.070  10.597   3.775
93548SOL     OW82482   1.932  11.830   9.795
93548SOL    HW182483   1.948  11.812   9.887
93548SOL    HW282484   2.019  11.831   9.755
93549SOL     OW82485   3.887   0.668   9.794
93549SOL    HW182486   3.922   0.587   9.758
93549SOL    HW282487   3.941   0.737   9.755
93550SOL     OW82488   1.880   9.909  11.551
93550SOL    HW182489   1.907   9.988  11.505
93550SOL    HW282490   1.943   9.842  11.523
93551SOL     OW82491  14.648   1.460  10.537
93551SOL    HW182492  14.562   1.418  10.524
93551SOL    HW282493  14.691   1.405  10.602
93552SOL     OW82494   6.664   5.897  13.266
93552SOL    HW182495   6.729   5.963  13.288
93552SOL    HW282496   6.603   5.941  13.206
93553SOL     OW82497   7.798   6.480   7.849
93553SOL    HW182498   7.890   6.503   7.840
93553SOL    HW282499   7.750   6.560   7.826
93554SOL     OW82500  11.998   5.361   6.345
93554SOL    HW182501  12.003   5.407   6.261
93554SOL    HW282502  11.917   5.391   6.385
93555SOL     OW82503   2.181   1.493  12.992
93555SOL    HW182504   2.249   1.499  13.059
93555SOL    HW282505   2.133   1.575  12.998
93556SOL     OW82506   1.951  13.330   5.007
93556SOL    HW182507   1.917  13.365   5.089
93556SOL    HW282508   1.982  13.406   4.958
93557SOL     OW82509  10.484  11.863   5.225
93557SOL    HW182510  10.541  11.787   5.236
93557SOL    HW282511  10.500  11.916   5.304
93558SOL     OW82512   3.985   8.022   1.838
93558SOL    HW182513   3.911   8.039   1.896
93558SOL    HW282514   4.054   7.990   1.896
93559SOL     OW82515  12.431   2.787   2.947
93559SOL    HW182516  12.433   2.783   2.851
93559SOL    HW282517  12.463   2.875   2.968
93560SOL     OW82518  11.474   1.185   2.400
93560SOL    HW182519  11.502   1.134   2.323
93560SOL    HW282520  11.550   1.239   2.421
93561SOL     OW82521   9.334  10.530   7.519
93561SOL    HW182522   9.266  10.588   7.486
93561SOL    HW282523   9.329  10.540   7.614
93562SOL     OW82524   5.871   6.084  10.334
93562SOL    HW182525   5.889   5.991  10.348
93562SOL    HW282526   5.821   6.086  10.252
93563SOL     OW82527  13.224  12.075   8.217
93563SOL    HW182528  13.242  12.166   8.241
93563SOL    HW282529  13.128  12.069   8.217
93564SOL     OW82530   0.061   5.141   0.696
93564SOL    HW182531  14.857   5.100   0.658
93564SOL    HW282532   0.121   5.068   0.711
93565SOL     OW82533   1.164   4.554   4.128
93565SOL    HW182534   1.223   4.493   4.172
93565SOL    HW282535   1.078   4.536   4.166
93566SOL     OW82536   6.279   5.435   7.377
93566SOL    HW182537   6.214   5.503   7.395
93566SOL    HW282538   6.334   5.434   7.455
93567SOL     OW82539   5.184   7.350  10.600
93567SOL    HW182540   5.149   7.262  10.593
93567SOL    HW282541   5.279   7.338  10.609
93568SOL     OW82542   0.693  14.314   7.495
93568SOL    HW182543   0.720  14.314   7.586
93568SOL    HW282544   0.599  14.333   7.498
93569SOL     OW82545   9.927   3.867  14.072
93569SOL    HW182546   9.955   3.928  14.140
93569SOL    HW282547   9.894   3.923  14.001
93570SOL     OW82548   9.917  12.024   9.393
93570SOL    HW182549   9.961  11.955   9.344
93570SOL    HW282550   9.984  12.091   9.406
93571SOL     OW82551   9.164   2.974   7.621
93571SOL    HW182552   9.217   2.903   7.659
93571SOL    HW282553   9.204   2.990   7.535
93572SOL     OW82554  11.946   3.935   0.633
93572SOL    HW182555  11.852   3.917   0.627
93572SOL    HW282556  11.986   3.849   0.644
93573SOL     OW82557   4.354   1.245  13.755
93573SOL    HW182558   4.318   1.224  13.841
93573SOL    HW282559   4.446   1.220  13.760
93574SOL     OW82560   1.855   3.589  13.005
93574SOL    HW182561   1.945   3.572  13.033
93574SOL    HW282562   1.840   3.528  12.934
93575SOL     OW82563   9.879  11.910  14.323
93575SOL    HW182564   9.918  11.879  14.405
93575SOL    HW282565   9.950  11.954  14.277
93576SOL     OW82566   7.511  10.956   9.917
93576SOL    HW182567   7.435  10.913   9.957
93576SOL    HW282568   7.533  11.027   9.977
93577SOL     OW82569  10.908   7.092  12.350
93577SOL    HW182570  10.815   7.104  12.333
93577SOL    HW282571  10.924   7.000  12.331
93578SOL     OW82572   1.146   9.636   0.979
93578SOL    HW182573   1.163   9.651   0.886
93578SOL    HW282574   1.057   9.600   0.981
93579SOL     OW82575   9.431   5.592   0.010
93579SOL    HW182576   9.362   5.616   0.073
93579SOL    HW282577   9.383   5.557  14.808
93580SOL     OW82578   5.210   9.313   4.596
93580SOL    HW182579   5.222   9.306   4.691
93580SOL    HW282580   5.299   9.313   4.560
93581SOL     OW82581   2.377   7.505   3.180
93581SOL    HW182582   2.373   7.515   3.276
93581SOL    HW282583   2.321   7.429   3.162
93582SOL     OW82584   7.975  11.431  14.444
93582SOL    HW182585   7.988  11.523  14.421
93582SOL    HW282586   7.889  11.410  14.406
93583SOL     OW82587   3.801   5.635   4.688
93583SOL    HW182588   3.816   5.564   4.626
93583SOL    HW282589   3.886   5.647   4.731
93584SOL     OW82590  14.201   4.877   0.667
93584SOL    HW182591  14.161   4.891   0.581
93584SOL    HW282592  14.129   4.854   0.724
93585SOL     OW82593   1.079   9.021   3.820
93585SOL    HW182594   1.084   9.064   3.734
93585SOL    HW282595   1.159   9.048   3.865
93586SOL     OW82596   2.367   8.585  10.442
93586SOL    HW182597   2.300   8.650  10.463
93586SOL    HW282598   2.352   8.514  10.504
93587SOL     OW82599  13.843   1.086   4.516
93587SOL    HW182600  13.872   1.038   4.439
93587SOL    HW282601  13.759   1.125   4.490
93588SOL     OW82602   4.804  12.609  13.599
93588SOL    HW182603   4.777  12.680  13.656
93588SOL    HW282604   4.808  12.648  13.511
93589SOL     OW82605   9.958   5.341  13.932
93589SOL    HW182606   9.931   5.417  13.881
93589SOL    HW282607   9.915   5.351  14.016
93590SOL     OW82608  13.498  10.644   6.550
93590SOL    HW182609  13.492  10.572   6.612
93590SOL    HW282610  13.591  10.663   6.544
93591SOL     OW82611  14.203  10.066   6.727
93591SOL    HW182612  14.173  10.034   6.812
93591SOL    HW282613  14.283  10.114   6.746
93592SOL     OW82614  13.495   0.751  14.755
93592SOL    HW182615  13.544   0.736  14.836
93592SOL    HW282616  13.445   0.831  14.772
93593SOL     OW82617   9.136  11.913   2.467
93593SOL    HW182618   9.101  11.990   2.422
93593SOL    HW282619   9.199  11.948   2.530
93594SOL     OW82620   9.120   5.018   5.274
93594SOL    HW182621   9.099   5.029   5.182
93594SOL    HW282622   9.200   4.965   5.275
93595SOL     OW82623   8.853   8.633   1.118
93595SOL    HW182624   8.798   8.709   1.095
93595SOL    HW282625   8.843   8.573   1.045
93596SOL     OW82626   5.455   8.162  14.340
93596SOL    HW182627   5.506   8.214  14.279
93596SOL    HW282628   5.440   8.079  14.295
93597SOL     OW82629   8.926  10.459  11.833
93597SOL    HW182630   8.961  10.494  11.751
93597SOL    HW282631   8.991  10.483  11.899
93598SOL     OW82632   1.455   1.974   6.408
93598SOL    HW182633   1.429   1.886   6.435
93598SOL    HW282634   1.520   2.001   6.474
93599SOL     OW82635   6.528   1.762   2.497
93599SOL    HW182636   6.441   1.802   2.491
93599SOL    HW282637   6.514   1.670   2.476
93600SOL     OW82638   0.740  14.612   5.289
93600SOL    HW182639   0.788  14.585   5.211
93600SOL    HW282640   0.698  14.532   5.321
93601SOL     OW82641   7.150   1.739   3.152
93601SOL    HW182642   7.102   1.690   3.085
93601SOL    HW282643   7.119   1.829   3.143
93602SOL     OW82644  12.787   7.933  12.574
93602SOL    HW182645  12.866   7.961  12.528
93602SOL    HW282646  12.726   7.910  12.504
93603SOL     OW82647   8.799   9.216   6.056
93603SOL    HW182648   8.711   9.195   6.086
93603SOL    HW282649   8.857   9.171   6.118
93604SOL     OW82650  12.201   3.232   0.390
93604SOL    HW182651  12.206   3.327   0.377
93604SOL    HW282652  12.108   3.215   0.408
93605SOL     OW82653   1.988   7.396   6.439
93605SOL    HW182654   1.904   7.440   6.450
93605SOL    HW282655   1.970   7.324   6.378
93606SOL     OW82656   7.153   4.586   4.781
93606SOL    HW182657   7.069   4.543   4.794
93606SOL    HW282658   7.160   4.599   4.687
93607SOL     OW82659  11.436   9.858  11.203
93607SOL    HW182660  11.518   9.812  11.219
93607SOL    HW282661  11.460   9.951  11.201
93608SOL     OW82662  10.907   0.542   1.035
93608SOL    HW182663  10.843   0.513   1.100
93608SOL    HW282664  10.875   0.628   1.007
93609SOL     OW82665   7.779   1.182   8.166
93609SOL    HW182666   7.707   1.166   8.105
93609SOL    HW282667   7.786   1.100   8.216
93610SOL     OW82668   8.038   1.781   2.539
93610SOL    HW182669   8.006   1.754   2.454
93610SOL    HW282670   7.960   1.797   2.591
93611SOL     OW82671   7.280   3.828   8.446
93611SOL    HW182672   7.333   3.815   8.367
93611SOL    HW282673   7.198   3.783   8.427
93612SOL     OW82674   5.096   3.939  14.438
93612SOL    HW182675   5.035   4.004  14.402
93612SOL    HW282676   5.157   3.991  14.491
93613SOL     OW82677   5.228  10.568   0.995
93613SOL    HW182678   5.305  10.536   1.041
93613SOL    HW282679   5.153  10.533   1.044
93614SOL     OW82680   9.414   7.513   9.300
93614SOL    HW182681   9.376   7.459   9.369
93614SOL    HW282682   9.413   7.602   9.336
93615SOL     OW82683  10.613   3.703  10.605
93615SOL    HW182684  10.619   3.776  10.543
93615SOL    HW282685  10.643   3.740  10.688
93616SOL     OW82686   5.444   8.976   8.393
93616SOL    HW182687   5.511   9.037   8.363
93616SOL    HW282688   5.492   8.898   8.420
93617SOL     OW82689   4.081  13.881   5.556
93617SOL    HW182690   4.028  13.814   5.514
93617SOL    HW282691   4.171  13.855   5.539
93618SOL     OW82692  10.939   8.735   5.761
93618SOL    HW182693  11.010   8.721   5.699
93618SOL    HW282694  10.963   8.684   5.838
93619SOL     OW82695   1.578   9.248   4.658
93619SOL    HW182696   1.645   9.283   4.598
93619SOL    HW282697   1.539   9.175   4.610
93620SOL     OW82698   2.341  12.659   5.037
93620SOL    HW182699   2.273  12.695   5.095
93620SOL    HW282700   2.295  12.595   4.983
93621SOL     OW82701  10.926  10.023   3.903
93621SOL    HW182702  11.006  10.019   3.956
93621SOL    HW282703  10.952   9.990   3.817
93622SOL     OW82704   3.560   6.552   6.090
93622SOL    HW182705   3.605   6.603   6.158
93622SOL    HW282706   3.471   6.586   6.091
93623SOL     OW82707   3.717   2.294  12.394
93623SOL    HW182708   3.691   2.208  12.426
93623SOL    HW282709   3.660   2.355  12.441
93624SOL     OW82710  10.463  11.918  13.997
93624SOL    HW182711  10.523  11.844  14.002
93624SOL    HW282712  10.400  11.893  13.929
93625SOL     OW82713  12.155  13.510  13.294
93625SOL    HW182714  12.132  13.437  13.351
93625SOL    HW282715  12.075  13.531  13.248
93626SOL     OW82716   3.628   1.038  14.264
93626SOL    HW182717   3.552   1.008  14.314
93626SOL    HW282718   3.656   1.118  14.309
93627SOL     OW82719  12.737  12.773  11.160
93627SOL    HW182720  12.729  12.857  11.206
93627SOL    HW282721  12.697  12.789  11.075
93628SOL     OW82722   6.801   8.173   9.998
93628SOL    HW182723   6.895   8.165  10.013
93628SOL    HW282724   6.762   8.169  10.085
93629SOL     OW82725   2.801  11.463   7.925
93629SOL    HW182726   2.812  11.466   8.020
93629SOL    HW282727   2.726  11.405   7.911
93630SOL     OW82728  13.491   6.011  10.788
93630SOL    HW182729  13.450   5.932  10.822
93630SOL    HW282730  13.578   6.014  10.828
93631SOL     OW82731  13.391   8.484   5.712
93631SOL    HW182732  13.317   8.538   5.739
93631SOL    HW282733  13.380   8.402   5.760
93632SOL     OW82734   8.466  12.596   6.135
93632SOL    HW182735   8.459  12.634   6.048
93632SOL    HW282736   8.444  12.503   6.123
93633SOL     OW82737   0.370   9.828   9.066
93633SOL    HW182738   0.388   9.739   9.096
93633SOL    HW282739   0.288   9.851   9.109
93634SOL     OW82740   6.190  13.924   5.460
93634SOL    HW182741   6.245  13.877   5.523
93634SOL    HW282742   6.142  13.855   5.414
93635SOL     OW82743  11.715   2.116   2.621
93635SOL    HW182744  11.740   2.031   2.586
93635SOL    HW282745  11.682   2.097   2.709
93636SOL     OW82746  13.432  11.770   1.343
93636SOL    HW182747  13.359  11.790   1.401
93636SOL    HW282748  13.493  11.719   1.397
93637SOL     OW82749   1.835   5.532   3.933
93637SOL    HW182750   1.920   5.573   3.925
93637SOL    HW282751   1.772   5.602   3.918
93638SOL     OW82752  12.662   1.555   9.127
93638SOL    HW182753  12.622   1.515   9.204
93638SOL    HW282754  12.721   1.622   9.162
93639SOL     OW82755   8.952   9.765   2.212
93639SOL    HW182756   9.011   9.833   2.178
93639SOL    HW282757   8.876   9.768   2.153
93640SOL     OW82758  13.835   5.670   8.722
93640SOL    HW182759  13.769   5.684   8.790
93640SOL    HW282760  13.913   5.714   8.755
93641SOL     OW82761   5.680   8.375   4.190
93641SOL    HW182762   5.691   8.380   4.095
93641SOL    HW282763   5.642   8.289   4.205
93642SOL     OW82764  10.588   0.682  12.936
93642SOL    HW182765  10.579   0.660  13.028
93642SOL    HW282766  10.649   0.616  12.902
93643SOL     OW82767   5.335   1.132  11.610
93643SOL    HW182768   5.413   1.077  11.618
93643SOL    HW282769   5.368   1.212  11.567
93644SOL     OW82770   1.855   4.496   3.235
93644SOL    HW182771   1.923   4.450   3.184
93644SOL    HW282772   1.831   4.571   3.179
93645SOL     OW82773   3.174   6.351   7.270
93645SOL    HW182774   3.231   6.422   7.296
93645SOL    HW282775   3.122   6.386   7.198
93646SOL     OW82776  12.962   3.484   6.179
93646SOL    HW182777  12.941   3.466   6.271
93646SOL    HW282778  12.970   3.579   6.174
93647SOL     OW82779  11.232   3.572  13.080
93647SOL    HW182780  11.280   3.528  13.010
93647SOL    HW282781  11.142   3.575  13.049
93648SOL     OW82782  13.709   4.622   3.324
93648SOL    HW182783  13.636   4.608   3.263
93648SOL    HW282784  13.754   4.699   3.289
93649SOL     OW82785   6.878   1.806   5.240
93649SOL    HW182786   6.854   1.742   5.172
93649SOL    HW282787   6.949   1.857   5.201
93650SOL     OW82788  10.728   4.703   0.490
93650SOL    HW182789  10.778   4.637   0.537
93650SOL    HW282790  10.788   4.735   0.422
93651SOL     OW82791   7.551   1.852   2.148
93651SOL    HW182792   7.634   1.823   2.111
93651SOL    HW282793   7.573   1.929   2.200
93652SOL     OW82794  10.608  14.810  14.803
93652SOL    HW182795  10.645  14.858   0.004
93652SOL    HW282796  10.585   0.005  14.739
93653SOL     OW82797  12.155  13.291   3.868
93653SOL    HW182798  12.110  13.375   3.853
93653SOL    HW282799  12.211  13.308   3.944
93654SOL     OW82800   2.556   9.570   7.541
93654SOL    HW182801   2.643   9.534   7.527
93654SOL    HW282802   2.500   9.524   7.478
93655SOL     OW82803   2.631   5.021   9.535
93655SOL    HW182804   2.557   5.018   9.475
93655SOL    HW282805   2.619   4.946   9.593
93656SOL     OW82806   7.477   2.603   4.003
93656SOL    HW182807   7.463   2.650   4.085
93656SOL    HW282808   7.497   2.671   3.939
93657SOL     OW82809   1.531   5.139   6.263
93657SOL    HW182810   1.500   5.099   6.345
93657SOL    HW282811   1.489   5.225   6.262
93658SOL     OW82812  14.718   0.473  14.098
93658SOL    HW182813  14.792   0.480  14.159
93658SOL    HW282814  14.728   0.387  14.058
93659SOL     OW82815   1.648   5.021   9.563
93659SOL    HW182816   1.596   4.983   9.635
93659SOL    HW282817   1.717   5.070   9.608
93660SOL     OW82818   9.354  14.269   1.322
93660SOL    HW182819   9.306  14.257   1.240
93660SOL    HW282820   9.436  14.311   1.295
93661SOL     OW82821  14.142  14.342   0.779
93661SOL    HW182822  14.203  14.323   0.708
93661SOL    HW282823  14.151  14.269   0.840
93662SOL     OW82824   3.043   0.603   6.522
93662SOL    HW182825   3.037   0.556   6.438
93662SOL    HW282826   3.023   0.536   6.588
93663SOL     OW82827   3.868   1.138   9.367
93663SOL    HW182828   3.935   1.077   9.336
93663SOL    HW282829   3.785   1.093   9.350
93664SOL     OW82830   7.343   5.583  12.933
93664SOL    HW182831   7.330   5.513  12.997
93664SOL    HW282832   7.384   5.540  12.858
93665SOL     OW82833  10.126   9.324   7.279
93665SOL    HW182834  10.132   9.405   7.228
93665SOL    HW282835  10.206   9.276   7.258
93666SOL     OW82836   6.510  12.300  14.269
93666SOL    HW182837   6.494  12.381  14.318
93666SOL    HW282838   6.448  12.237  14.306
93667SOL     OW82839  13.582  14.398  11.524
93667SOL    HW182840  13.511  14.353  11.479
93667SOL    HW282841  13.539  14.450  11.592
93668SOL     OW82842  14.400  12.915   2.861
93668SOL    HW182843  14.382  12.944   2.950
93668SOL    HW282844  14.328  12.855   2.841
93669SOL     OW82845   0.195  10.739   8.886
93669SOL    HW182846   0.215  10.814   8.942
93669SOL    HW282847   0.277  10.689   8.882
93670SOL     OW82848   5.315   2.823   1.750
93670SOL    HW182849   5.245   2.763   1.774
93670SOL    HW282850   5.288   2.907   1.786
93671SOL     OW82851  13.396  12.015  10.189
93671SOL    HW182852  13.339  12.085  10.219
93671SOL    HW282853  13.378  12.006  10.096
93672SOL     OW82854   4.974   9.650  12.405
93672SOL    HW182855   4.987   9.572  12.459
93672SOL    HW282856   5.008   9.722  12.458
93673SOL     OW82857   9.310  14.204   4.700
93673SOL    HW182858   9.385  14.247   4.741
93673SOL    HW282859   9.286  14.262   4.628
93674SOL     OW82860   1.956   8.177   9.432
93674SOL    HW182861   1.987   8.261   9.399
93674SOL    HW282862   1.905   8.140   9.360
93675SOL     OW82863   7.908   2.138   7.899
93675SOL    HW182864   7.970   2.083   7.852
93675SOL    HW282865   7.865   2.079   7.962
93676SOL     OW82866   1.585   2.170  10.545
93676SOL    HW182867   1.617   2.128  10.466
93676SOL    HW282868   1.545   2.099  10.596
93677SOL     OW82869   4.438   0.819   2.675
93677SOL    HW182870   4.525   0.830   2.638
93677SOL    HW282871   4.449   0.839   2.768
93678SOL     OW82872   7.653  11.920   7.101
93678SOL    HW182873   7.564  11.955   7.106
93678SOL    HW282874   7.642  11.825   7.106
93679SOL     OW82875   2.854   9.426  13.183
93679SOL    HW182876   2.947   9.404  13.192
93679SOL    HW282877   2.839   9.493  13.250
93680SOL     OW82878  12.057  10.286   4.237
93680SOL    HW182879  12.085  10.320   4.322
93680SOL    HW282880  12.062  10.191   4.246
93681SOL     OW82881  12.271   9.393  14.586
93681SOL    HW182882  12.252   9.446  14.663
93681SOL    HW282883  12.200   9.328  14.583
93682SOL     OW82884   7.519  13.427  13.523
93682SOL    HW182885   7.558  13.510  13.495
93682SOL    HW282886   7.446  13.453  13.579
93683SOL     OW82887   0.637   7.893   8.742
93683SOL    HW182888   0.666   7.854   8.825
93683SOL    HW282889   0.659   7.827   8.676
93684SOL     OW82890   5.230   4.510  14.634
93684SOL    HW182891   5.326   4.512  14.626
93684SOL    HW282892   5.201   4.587  14.586
93685SOL     OW82893  11.131   0.956   5.928
93685SOL    HW182894  11.159   1.047   5.925
93685SOL    HW282895  11.038   0.959   5.906
93686SOL     OW82896  12.673   2.153   1.756
93686SOL    HW182897  12.703   2.063   1.771
93686SOL    HW282898  12.622   2.175   1.834
93687SOL     OW82899   2.542  12.852   5.844
93687SOL    HW182900   2.466  12.823   5.895
93687SOL    HW282901   2.556  12.782   5.781
93688SOL     OW82902   9.404   8.888   3.852
93688SOL    HW182903   9.407   8.962   3.912
93688SOL    HW282904   9.463   8.823   3.889
93689SOL     OW82905   5.984   3.308   1.052
93689SOL    HW182906   6.041   3.317   0.976
93689SOL    HW282907   5.938   3.224   1.038
93690SOL     OW82908   1.976   0.495  14.155
93690SOL    HW182909   2.014   0.583  14.160
93690SOL    HW282910   1.976   0.464  14.245
93691SOL     OW82911   1.606  11.428  12.587
93691SOL    HW182912   1.559  11.476  12.519
93691SOL    HW282913   1.653  11.495  12.637
93692SOL     OW82914   0.392   7.610  13.820
93692SOL    HW182915   0.431   7.594  13.734
93692SOL    HW282916   0.298   7.614  13.805
93693SOL     OW82917   8.776   7.830   0.392
93693SOL    HW182918   8.868   7.852   0.373
93693SOL    HW282919   8.737   7.913   0.421
93694SOL     OW82920   4.773   6.333   9.844
93694SOL    HW182921   4.709   6.352   9.913
93694SOL    HW282922   4.730   6.360   9.763
93695SOL     OW82923   2.421   5.590   0.564
93695SOL    HW182924   2.498   5.618   0.514
93695SOL    HW282925   2.455   5.576   0.653
93696SOL     OW82926  14.027   3.615   2.814
93696SOL    HW182927  14.095   3.672   2.778
93696SOL    HW282928  14.065   3.580   2.895
93697SOL     OW82929   5.775   8.872   3.469
93697SOL    HW182930   5.737   8.848   3.553
93697SOL    HW282931   5.707   8.924   3.426
93698SOL     OW82932   0.920  13.160  14.263
93698SOL    HW182933   0.831  13.181  14.234
93698SOL    HW282934   0.930  13.067  14.242
93699SOL     OW82935   3.647   8.856   8.152
93699SOL    HW182936   3.642   8.943   8.114
93699SOL    HW282937   3.574   8.852   8.213
93700SOL     OW82938   1.290  13.794   3.165
93700SOL    HW182939   1.228  13.752   3.106
93700SOL    HW282940   1.361  13.824   3.108
93701SOL     OW82941  11.144   6.612  13.733
93701SOL    HW182942  11.176   6.691  13.689
93701SOL    HW282943  11.213   6.591  13.797
93702SOL     OW82944   8.578   7.717  10.636
93702SOL    HW182945   8.671   7.718  10.616
93702SOL    HW282946   8.539   7.665  10.565
93703SOL     OW82947   4.522   0.081   7.034
93703SOL    HW182948   4.466   0.130   7.094
93703SOL    HW282949   4.609   0.119   7.046
93704SOL     OW82950   8.482   4.698   1.962
93704SOL    HW182951   8.440   4.693   1.877
93704SOL    HW282952   8.548   4.629   1.960
93705SOL     OW82953   7.453  11.251  11.230
93705SOL    HW182954   7.507  11.207  11.295
93705SOL    HW282955   7.428  11.334  11.272
93706SOL     OW82956  14.377  14.653   1.821
93706SOL    HW182957  14.471  14.672   1.832
93706SOL    HW282958  14.338  14.683   1.903
93707SOL     OW82959  11.435   5.570   2.970
93707SOL    HW182960  11.475   5.589   3.055
93707SOL    HW282961  11.491   5.614   2.906
93708SOL     OW82962  12.087   6.742   4.965
93708SOL    HW182963  12.007   6.739   5.018
93708SOL    HW282964  12.147   6.682   5.009
93709SOL     OW82965   5.129  11.267  11.876
93709SOL    HW182966   5.181  11.330  11.925
93709SOL    HW282967   5.148  11.182  11.917
93710SOL     OW82968   4.504   5.336   8.686
93710SOL    HW182969   4.420   5.369   8.654
93710SOL    HW282970   4.494   5.240   8.684
93711SOL     OW82971   9.914   2.192  12.128
93711SOL    HW182972   9.979   2.257  12.156
93711SOL    HW282973   9.963   2.133  12.071
93712SOL     OW82974   5.226   5.798   3.649
93712SOL    HW182975   5.141   5.783   3.607
93712SOL    HW282976   5.263   5.711   3.661
93713SOL     OW82977   6.837  12.171   5.014
93713SOL    HW182978   6.772  12.237   5.041
93713SOL    HW282979   6.784  12.096   4.987
93714SOL     OW82980   2.839   0.311   6.926
93714SOL    HW182981   2.750   0.286   6.903
93714SOL    HW282982   2.831   0.402   6.956
93715SOL     OW82983   3.349   2.938  10.829
93715SOL    HW182984   3.339   2.961  10.736
93715SOL    HW282985   3.391   3.014  10.868
93716SOL     OW82986  10.427   7.262   9.866
93716SOL    HW182987  10.446   7.354   9.846
93716SOL    HW282988  10.385   7.228   9.787
93717SOL     OW82989   1.000   8.760   7.170
93717SOL    HW182990   1.045   8.680   7.142
93717SOL    HW282991   0.916   8.731   7.203
93718SOL     OW82992   4.953  10.678   9.196
93718SOL    HW182993   4.954  10.772   9.217
93718SOL    HW282994   4.883  10.642   9.250
93719SOL     OW82995   1.050  12.572   0.727
93719SOL    HW182996   0.989  12.569   0.800
93719SOL    HW282997   1.092  12.485   0.727
93720SOL     OW82998   8.084  13.079   4.754
93720SOL    HW182999   8.096  13.168   4.722
93720SOL    HW283000   8.079  13.088   4.849
93721SOL     OW83001  13.675   9.507   8.731
93721SOL    HW183002  13.633   9.467   8.807
93721SOL    HW283003  13.731   9.439   8.695
93722SOL     OW83004  10.770  12.415  11.464
93722SOL    HW183005  10.796  12.425  11.372
93722SOL    HW283006  10.852  12.426  11.512
93723SOL     OW83007   9.136   9.207   1.702
93723SOL    HW183008   9.095   9.122   1.716
93723SOL    HW283009   9.066   9.261   1.664
93724SOL     OW83010  11.970  13.650   0.640
93724SOL    HW183011  12.017  13.607   0.569
93724SOL    HW283012  12.011  13.616   0.720
93725SOL     OW83013   8.197  13.685   7.392
93725SOL    HW183014   8.240  13.666   7.309
93725SOL    HW283015   8.136  13.755   7.372
93726SOL     OW83016   6.928  13.919  10.339
93726SOL    HW183017   6.930  13.836  10.292
93726SOL    HW283018   6.907  13.984  10.272
93727SOL     OW83019   4.237   6.089  13.868
93727SOL    HW183020   4.298   6.162  13.855
93727SOL    HW283021   4.214   6.061  13.779
93728SOL     OW83022  10.490   0.733  14.121
93728SOL    HW183023  10.410   0.785  14.116
93728SOL    HW283024  10.539   0.756  14.041
93729SOL     OW83025   5.674   5.788   2.352
93729SOL    HW183026   5.622   5.856   2.394
93729SOL    HW283027   5.640   5.783   2.263
93730SOL     OW83028   4.919   9.200   5.017
93730SOL    HW183029   4.970   9.123   4.992
93730SOL    HW283030   4.983   9.271   5.025
93731SOL     OW83031   3.419  13.579   3.834
93731SOL    HW183032   3.500  13.555   3.878
93731SOL    HW283033   3.394  13.662   3.874
93732SOL     OW83034   1.102   3.593   8.781
93732SOL    HW183035   1.185   3.572   8.739
93732SOL    HW283036   1.040   3.528   8.746
93733SOL     OW83037  13.795  11.900  10.885
93733SOL    HW183038  13.705  11.870  10.875
93733SOL    HW283039  13.847  11.837  10.836
93734SOL     OW83040   9.423   8.397   4.168
93734SOL    HW183041   9.492   8.457   4.196
93734SOL    HW283042   9.357   8.403   4.237
93735SOL     OW83043  13.431   6.711   5.439
93735SOL    HW183044  13.493   6.682   5.506
93735SOL    HW283045  13.441   6.648   5.368
93736SOL     OW83046   1.643   3.798  14.276
93736SOL    HW183047   1.730   3.773  14.308
93736SOL    HW283048   1.592   3.812  14.356
93737SOL     OW83049  11.959   2.028   2.323
93737SOL    HW183050  11.978   2.112   2.365
93737SOL    HW283051  11.894   1.987   2.380
93738SOL     OW83052  10.820   0.618   3.528
93738SOL    HW183053  10.881   0.578   3.590
93738SOL    HW283054  10.759   0.667   3.584
93739SOL     OW83055   6.332  10.651   7.246
93739SOL    HW183056   6.378  10.686   7.323
93739SOL    HW283057   6.242  10.637   7.276
93740SOL     OW83058  12.296   2.897   9.035
93740SOL    HW183059  12.248   2.817   9.015
93740SOL    HW283060  12.321   2.889   9.127
93741SOL     OW83061   5.999   6.423   1.930
93741SOL    HW183062   5.933   6.461   1.871
93741SOL    HW283063   5.951   6.358   1.981
93742SOL     OW83064  12.617   8.274  14.720
93742SOL    HW183065  12.550   8.332  14.683
93742SOL    HW283066  12.635   8.211  14.651
93743SOL     OW83067  14.157   7.548   7.858
93743SOL    HW183068  14.208   7.614   7.811
93743SOL    HW283069  14.076   7.541   7.807
93744SOL     OW83070   3.319   3.681  10.589
93744SOL    HW183071   3.367   3.763  10.579
93744SOL    HW283072   3.352   3.625  10.518
93745SOL     OW83073   4.901   2.533   4.419
93745SOL    HW183074   4.877   2.625   4.427
93745SOL    HW283075   4.885   2.512   4.327
93746SOL     OW83076  14.317  11.451   9.401
93746SOL    HW183077  14.334  11.372   9.350
93746SOL    HW283078  14.357  11.434   9.486
93747SOL     OW83079   4.967   2.633   9.278
93747SOL    HW183080   4.945   2.590   9.196
93747SOL    HW283081   4.882   2.654   9.318
93748SOL     OW83082  12.000   8.756   6.501
93748SOL    HW183083  11.990   8.850   6.512
93748SOL    HW283084  11.919   8.718   6.536
93749SOL     OW83085   4.133   7.739   5.869
93749SOL    HW183086   4.223   7.716   5.845
93749SOL    HW283087   4.087   7.655   5.869
93750SOL     OW83088  12.575   1.744   5.176
93750SOL    HW183089  12.534   1.749   5.089
93750SOL    HW283090  12.506   1.711   5.233
93751SOL     OW83091   7.277   7.255   1.836
93751SOL    HW183092   7.320   7.231   1.754
93751SOL    HW283093   7.253   7.347   1.824
93752SOL     OW83094   9.893   5.638   0.304
93752SOL    HW183095   9.803   5.671   0.312
93752SOL    HW283096   9.946   5.700   0.354
93753SOL     OW83097  11.869   7.687  11.096
93753SOL    HW183098  11.848   7.767  11.144
93753SOL    HW283099  11.800   7.681  11.030
93754SOL     OW83100  10.895   2.482   9.602
93754SOL    HW183101  10.915   2.462   9.511
93754SOL    HW283102  10.902   2.398   9.647
93755SOL     OW83103   7.749  14.651   4.755
93755SOL    HW183104   7.719  14.697   4.677
93755SOL    HW283105   7.841  14.629   4.737
93756SOL     OW83106   9.122  14.190   7.385
93756SOL    HW183107   9.186  14.142   7.437
93756SOL    HW283108   9.166  14.272   7.363
93757SOL     OW83109  12.025  14.607   9.718
93757SOL    HW183110  12.081  14.543   9.761
93757SOL    HW283111  12.037  14.589   9.624
93758SOL     OW83112  11.264   3.581   0.780
93758SOL    HW183113  11.338   3.636   0.754
93758SOL    HW283114  11.229   3.625   0.857
93759SOL     OW83115  13.570   3.418   6.399
93759SOL    HW183116  13.488   3.380   6.429
93759SOL    HW283117  13.637   3.375   6.452
93760SOL     OW83118  10.154   7.143  13.259
93760SOL    HW183119  10.198   7.095  13.188
93760SOL    HW283120  10.119   7.221  13.217
93761SOL     OW83121  10.415  11.160  13.485
93761SOL    HW183122  10.451  11.216  13.553
93761SOL    HW283123  10.441  11.201  13.403
93762SOL     OW83124  12.213   0.480   7.853
93762SOL    HW183125  12.257   0.477   7.938
93762SOL    HW283126  12.143   0.545   7.865
93763SOL     OW83127   9.469   0.517   8.786
93763SOL    HW183128   9.451   0.427   8.812
93763SOL    HW283129   9.550   0.540   8.831
93764SOL     OW83130   8.209  11.011   2.931
93764SOL    HW183131   8.182  11.022   2.839
93764SOL    HW283132   8.292  10.964   2.926
93765SOL     OW83133   1.677   0.675   7.599
93765SOL    HW183134   1.709   0.599   7.648
93765SOL    HW283135   1.587   0.687   7.629
93766SOL     OW83136   5.681   2.838   1.695
93766SOL    HW183137   5.595   2.817   1.658
93766SOL    HW283138   5.734   2.761   1.676
93767SOL     OW83139   8.181  14.047   1.548
93767SOL    HW183140   8.132  14.096   1.614
93767SOL    HW283141   8.115  13.995   1.502
93768SOL     OW83142   6.860   4.596   3.711
93768SOL    HW183143   6.909   4.568   3.633
93768SOL    HW283144   6.786   4.645   3.675
93769SOL     OW83145   0.255   2.934   3.802
93769SOL    HW183146   0.179   2.992   3.812
93769SOL    HW283147   0.223   2.864   3.744
93770SOL     OW83148   4.293   2.263   7.102
93770SOL    HW183149   4.347   2.229   7.173
93770SOL    HW283150   4.204   2.235   7.123
93771SOL     OW83151   1.788  14.857  14.499
93771SOL    HW183152   1.872   0.029  14.510
93771SOL    HW283153   1.811  14.772  14.461
93772SOL     OW83154  14.026   7.969   0.275
93772SOL    HW183155  14.046   8.037   0.212
93772SOL    HW283156  13.983   7.900   0.224
93773SOL     OW83157   1.091   9.762  12.291
93773SOL    HW183158   1.165   9.708  12.318
93773SOL    HW283159   1.066   9.810  12.370
93774SOL     OW83160   0.434   5.140  10.077
93774SOL    HW183161   0.413   5.233  10.079
93774SOL    HW283162   0.399   5.110   9.992
93775SOL     OW83163  12.630   1.060  11.637
93775SOL    HW183164  12.570   0.995  11.600
93775SOL    HW283165  12.590   1.084  11.720
93776SOL     OW83166   7.932   9.663   5.630
93776SOL    HW183167   7.883   9.638   5.709
93776SOL    HW283168   8.000   9.595   5.622
93777SOL     OW83169   1.646   6.200   1.946
93777SOL    HW183170   1.637   6.111   1.911
93777SOL    HW283171   1.739   6.221   1.935
93778SOL     OW83172   8.678  14.426  13.943
93778SOL    HW183173   8.743  14.471  13.997
93778SOL    HW283174   8.641  14.359  14.000
93779SOL     OW83175   5.556   0.303   5.311
93779SOL    HW183176   5.555   0.314   5.406
93779SOL    HW283177   5.582   0.389   5.277
93780SOL     OW83178   1.422  10.147   7.084
93780SOL    HW183179   1.391  10.058   7.104
93780SOL    HW283180   1.355  10.184   7.027
93781SOL     OW83181   6.433  14.448  11.013
93781SOL    HW183182   6.379  14.512  11.060
93781SOL    HW283183   6.376  14.414  10.944
93782SOL     OW83184   6.336   2.593  10.458
93782SOL    HW183185   6.266   2.537  10.491
93782SOL    HW283186   6.298   2.636  10.382
93783SOL     OW83187   6.951   9.484   5.330
93783SOL    HW183188   6.982   9.512   5.243
93783SOL    HW283189   6.960   9.389   5.329
93784SOL     OW83190   3.655   3.255  10.304
93784SOL    HW183191   3.611   3.257  10.389
93784SOL    HW283192   3.596   3.204  10.248
93785SOL     OW83193   1.894   1.239  13.896
93785SOL    HW183194   1.919   1.311  13.838
93785SOL    HW283195   1.937   1.259  13.979
93786SOL     OW83196  11.471   8.310   3.236
93786SOL    HW183197  11.555   8.272   3.260
93786SOL    HW283198  11.424   8.239   3.193
93787SOL     OW83199  12.348   4.211   5.614
93787SOL    HW183200  12.318   4.235   5.702
93787SOL    HW283201  12.443   4.223   5.617
93788SOL     OW83202  12.690   0.087   5.040
93788SOL    HW183203  12.704   0.125   5.126
93788SOL    HW283204  12.737   0.145   4.980
93789SOL     OW83205   4.400   3.024   5.700
93789SOL    HW183206   4.415   3.107   5.745
93789SOL    HW283207   4.397   2.959   5.770
93790SOL     OW83208  14.572   3.758  14.032
93790SOL    HW183209  14.503   3.756  14.099
93790SOL    HW283210  14.525   3.765  13.949
93791SOL     OW83211  11.151   7.347  14.829
93791SOL    HW183212  11.184   7.383   0.038
93791SOL    HW283213  11.193   7.399  14.761
93792SOL     OW83214   7.242  11.025   8.439
93792SOL    HW183215   7.163  10.980   8.411
93792SOL    HW283216   7.302  10.955   8.465
93793SOL     OW83217  14.290   3.943   2.514
93793SOL    HW183218  14.370   3.910   2.474
93793SOL    HW283219  14.264   3.875   2.576
93794SOL     OW83220   0.290   3.277   4.563
93794SOL    HW183221   0.264   3.323   4.643
93794SOL    HW283222   0.208   3.248   4.525
93795SOL     OW83223  10.927   9.509   4.407
93795SOL    HW183224  10.901   9.428   4.452
93795SOL    HW283225  10.981   9.555   4.471
93796SOL     OW83226   1.358   8.763  13.184
93796SOL    HW183227   1.369   8.680  13.230
93796SOL    HW283228   1.371   8.830  13.252
93797SOL     OW83229  11.744   4.644   7.449
93797SOL    HW183230  11.742   4.658   7.544
93797SOL    HW283231  11.830   4.606   7.432
93798SOL     OW83232   0.497   9.754   8.569
93798SOL    HW183233   0.485   9.834   8.620
93798SOL    HW283234   0.458   9.685   8.622
93799SOL     OW83235   3.517  11.974   4.756
93799SOL    HW183236   3.515  12.044   4.821
93799SOL    HW283237   3.537  12.018   4.674
93800SOL     OW83238   8.249   2.163   2.995
93800SOL    HW183239   8.222   2.145   3.085
93800SOL    HW283240   8.312   2.235   3.003
93801SOL     OW83241   2.232   3.470   8.306
93801SOL    HW183242   2.224   3.557   8.346
93801SOL    HW283243   2.262   3.414   8.378
93802SOL     OW83244  14.745   4.104   2.297
93802SOL    HW183245  14.771   4.181   2.247
93802SOL    HW283246  14.712   4.138   2.379
93803SOL     OW83247  13.382   4.533  14.650
93803SOL    HW183248  13.426   4.604  14.696
93803SOL    HW283249  13.309   4.508  14.707
93804SOL     OW83250   6.733   9.696   1.876
93804SOL    HW183251   6.829   9.690   1.872
93804SOL    HW283252   6.712   9.774   1.825
93805SOL     OW83253  13.481   3.252  14.208
93805SOL    HW183254  13.483   3.164  14.244
93805SOL    HW283255  13.396   3.258  14.164
93806SOL     OW83256   3.471   6.415  11.036
93806SOL    HW183257   3.469   6.335  10.984
93806SOL    HW283258   3.517   6.478  10.981
93807SOL     OW83259   6.410   5.220  12.244
93807SOL    HW183260   6.333   5.227  12.187
93807SOL    HW283261   6.409   5.302  12.295
93808SOL     OW83262   7.142  13.720  10.974
93808SOL    HW183263   7.068  13.701  10.916
93808SOL    HW283264   7.170  13.634  11.005
93809SOL     OW83265   7.514   3.959   6.277
93809SOL    HW183266   7.517   3.968   6.182
93809SOL    HW283267   7.443   4.017   6.305
93810SOL     OW83268  10.329   4.252   9.709
93810SOL    HW183269  10.345   4.221   9.798
93810SOL    HW283270  10.258   4.196   9.676
93811SOL     OW83271  14.512  10.242   6.283
93811SOL    HW183272  14.521  10.186   6.205
93811SOL    HW283273  14.603  10.257   6.312
93812SOL     OW83274   4.422   7.755   4.209
93812SOL    HW183275   4.423   7.759   4.305
93812SOL    HW283276   4.457   7.839   4.181
93813SOL     OW83277   3.914  10.970  11.134
93813SOL    HW183278   3.853  10.896  11.128
93813SOL    HW283279   3.978  10.942  11.199
93814SOL     OW83280  11.376   7.912   5.818
93814SOL    HW183281  11.433   7.836   5.805
93814SOL    HW283282  11.334   7.896   5.902
93815SOL     OW83283   4.541  13.911   3.614
93815SOL    HW183284   4.594  13.840   3.651
93815SOL    HW283285   4.516  13.879   3.527
93816SOL     OW83286  12.884  14.558   0.044
93816SOL    HW183287  12.903  14.467   0.068
93816SOL    HW283288  12.817  14.551  14.850
93817SOL     OW83289  13.022   0.924   8.183
93817SOL    HW183290  12.995   1.015   8.174
93817SOL    HW283291  13.069   0.905   8.102
93818SOL     OW83292  13.705  13.505   0.181
93818SOL    HW183293  13.752  13.533   0.102
93818SOL    HW283294  13.771  13.509   0.250
93819SOL     OW83295   8.219   8.205   1.702
93819SOL    HW183296   8.146   8.267   1.691
93819SOL    HW283297   8.282   8.230   1.635
93820SOL     OW83298  14.510  11.022   8.050
93820SOL    HW183299  14.494  11.104   8.003
93820SOL    HW283300  14.425  10.979   8.055
93821SOL     OW83301   7.921  12.986   8.092
93821SOL    HW183302   7.847  12.970   8.149
93821SOL    HW283303   7.981  13.040   8.144
93822SOL     OW83304   9.600   9.091  10.463
93822SOL    HW183305   9.514   9.104  10.503
93822SOL    HW283306   9.654   9.058  10.535
93823SOL     OW83307   5.131   1.959  13.754
93823SOL    HW183308   5.218   1.992  13.777
93823SOL    HW283309   5.113   1.998  13.668
93824SOL     OW83310  10.203  11.635  14.210
93824SOL    HW183311  10.241  11.563  14.159
93824SOL    HW283312  10.135  11.594  14.263
93825SOL     OW83313   7.540  13.882   6.478
93825SOL    HW183314   7.614  13.840   6.523
93825SOL    HW283315   7.528  13.964   6.525
93826SOL     OW83316   0.864   7.937   8.501
93826SOL    HW183317   0.943   7.905   8.545
93826SOL    HW283318   0.824   7.858   8.464
93827SOL     OW83319   9.198   2.135   2.197
93827SOL    HW183320   9.167   2.078   2.268
93827SOL    HW283321   9.293   2.129   2.201
93828SOL     OW83322   0.081  14.202   7.282
93828SOL    HW183323   0.048  14.112   7.291
93828SOL    HW283324   0.132  14.200   7.201
93829SOL     OW83325   6.484   7.324  13.882
93829SOL    HW183326   6.452   7.234  13.877
93829SOL    HW283327   6.513   7.334  13.973
93830SOL     OW83328  12.624   1.575   6.340
93830SOL    HW183329  12.655   1.530   6.262
93830SOL    HW283330  12.688   1.644   6.355
93831SOL     OW83331   2.452   1.732   0.490
93831SOL    HW183332   2.531   1.678   0.500
93831SOL    HW283333   2.458   1.797   0.560
93832SOL     OW83334  12.940  12.811   0.433
93832SOL    HW183335  13.024  12.812   0.389
93832SOL    HW283336  12.876  12.826   0.363
93833SOL     OW83337   3.220   1.323  14.865
93833SOL    HW183338   3.128   1.334  14.842
93833SOL    HW283339   3.263   1.304  14.782
93834SOL     OW83340   4.623   8.287  13.526
93834SOL    HW183341   4.558   8.235  13.479
93834SOL    HW283342   4.575   8.326  13.598
93835SOL     OW83343   7.241  10.318   6.967
93835SOL    HW183344   7.155  10.339   7.003
93835SOL    HW283345   7.225  10.245   6.907
93836SOL     OW83346  12.639   2.317   4.707
93836SOL    HW183347  12.618   2.262   4.782
93836SOL    HW283348  12.642   2.256   4.633
93837SOL     OW83349   4.099  13.872   2.143
93837SOL    HW183350   4.152  13.933   2.194
93837SOL    HW283351   4.051  13.821   2.209
93838SOL     OW83352   0.683  10.572   6.457
93838SOL    HW183353   0.642  10.590   6.372
93838SOL    HW283354   0.700  10.478   6.455
93839SOL     OW83355   6.738  13.853  13.367
93839SOL    HW183356   6.799  13.780  13.378
93839SOL    HW283357   6.793  13.931  13.376
93840SOL     OW83358   9.951   4.085   2.124
93840SOL    HW183359   9.940   4.090   2.219
93840SOL    HW283360  10.036   4.042   2.112
93841SOL     OW83361   2.430   2.338   5.738
93841SOL    HW183362   2.380   2.396   5.796
93841SOL    HW283363   2.513   2.383   5.726
93842SOL     OW83364   0.417   7.245   8.246
93842SOL    HW183365   0.449   7.174   8.300
93842SOL    HW283366   0.464   7.323   8.278
93843SOL     OW83367   6.470   1.315   7.170
93843SOL    HW183368   6.503   1.282   7.254
93843SOL    HW283369   6.544   1.361   7.131
93844SOL     OW83370  11.088  10.007   8.645
93844SOL    HW183371  11.163   9.959   8.610
93844SOL    HW283372  11.014   9.981   8.590
93845SOL     OW83373  11.624  10.792   2.022
93845SOL    HW183374  11.695  10.816   1.962
93845SOL    HW283375  11.666  10.735   2.087
93846SOL     OW83376   1.895  10.379  12.069
93846SOL    HW183377   1.907  10.357  12.162
93846SOL    HW283378   1.804  10.356  12.051
93847SOL     OW83379   8.658   4.542   2.334
93847SOL    HW183380   8.698   4.457   2.316
93847SOL    HW283381   8.719   4.605   2.297
93848SOL     OW83382   2.553   8.161   3.351
93848SOL    HW183383   2.645   8.171   3.378
93848SOL    HW283384   2.531   8.070   3.373
93849SOL     OW83385   1.824  11.356  10.300
93849SOL    HW183386   1.836  11.321  10.212
93849SOL    HW283387   1.767  11.293  10.344
93850SOL     OW83388   8.604  14.508   0.245
93850SOL    HW183389   8.677  14.500   0.306
93850SOL    HW283390   8.551  14.579   0.280
93851SOL     OW83391  10.213   7.760   1.717
93851SOL    HW183392  10.287   7.774   1.658
93851SOL    HW283393  10.159   7.839   1.707
93852SOL     OW83394   4.158   2.480  12.107
93852SOL    HW183395   4.073   2.477  12.061
93852SOL    HW283396   4.214   2.421  12.056
93853SOL     OW83397   6.458   1.719   1.640
93853SOL    HW183398   6.420   1.639   1.677
93853SOL    HW283399   6.522   1.689   1.576
93854SOL     OW83400   9.791  11.252   1.172
93854SOL    HW183401   9.748  11.331   1.205
93854SOL    HW283402   9.761  11.244   1.082
93855SOL     OW83403   6.375  12.826   4.200
93855SOL    HW183404   6.442  12.780   4.150
93855SOL    HW283405   6.390  12.919   4.181
93856SOL     OW83406  11.613   2.992   1.679
93856SOL    HW183407  11.642   3.014   1.768
93856SOL    HW283408  11.579   3.074   1.645
93857SOL     OW83409  13.639   9.377  12.830
93857SOL    HW183410  13.682   9.293  12.850
93857SOL    HW283411  13.695   9.442  12.872
93858SOL     OW83412   7.574   3.221   0.369
93858SOL    HW183413   7.665   3.190   0.370
93858SOL    HW283414   7.582   3.317   0.374
93859SOL     OW83415   5.352   6.888   5.119
93859SOL    HW183416   5.315   6.923   5.199
93859SOL    HW283417   5.301   6.929   5.049
93860SOL     OW83418   6.090   3.839  12.545
93860SOL    HW183419   5.997   3.860  12.554
93860SOL    HW283420   6.133   3.892  12.612
93861SOL     OW83421   6.808   5.122   5.058
93861SOL    HW183422   6.736   5.071   5.095
93861SOL    HW283423   6.772   5.210   5.049
93862SOL     OW83424   1.435   6.291   7.754
93862SOL    HW183425   1.437   6.225   7.685
93862SOL    HW283426   1.355   6.340   7.738
93863SOL     OW83427   5.474  13.529   3.198
93863SOL    HW183428   5.446  13.596   3.136
93863SOL    HW283429   5.392  13.486   3.226
93864SOL     OW83430   2.333   9.277  10.035
93864SOL    HW183431   2.250   9.255   9.993
93864SOL    HW283432   2.391   9.203  10.017
93865SOL     OW83433   0.959   6.378   6.124
93865SOL    HW183434   0.936   6.381   6.217
93865SOL    HW283435   1.050   6.347   6.123
93866SOL     OW83436  12.696   5.152   6.410
93866SOL    HW183437  12.738   5.078   6.365
93866SOL    HW283438  12.745   5.228   6.380
93867SOL     OW83439  12.680  13.373   7.863
93867SOL    HW183440  12.636  13.346   7.944
93867SOL    HW283441  12.693  13.468   7.873
93868SOL     OW83442   4.242   1.857   4.025
93868SOL    HW183443   4.312   1.828   3.967
93868SOL    HW283444   4.162   1.852   3.972
93869SOL     OW83445  10.543  12.106  12.495
93869SOL    HW183446  10.476  12.044  12.466
93869SOL    HW283447  10.499  12.159  12.561
93870SOL     OW83448   4.691   5.133   6.645
93870SOL    HW183449   4.758   5.197   6.620
93870SOL    HW283450   4.683   5.142   6.740
93871SOL     OW83451  14.592  11.145  11.773
93871SOL    HW183452  14.646  11.219  11.801
93871SOL    HW283453  14.579  11.160  11.679
93872SOL     OW83454  14.097   6.650   3.729
93872SOL    HW183455  14.070   6.585   3.794
93872SOL    HW283456  14.191   6.635   3.719
93873SOL     OW83457  14.315   3.503  13.396
93873SOL    HW183458  14.269   3.506  13.313
93873SOL    HW283459  14.251   3.533  13.461
93874SOL     OW83460   6.173  14.430  12.360
93874SOL    HW183461   6.082  14.437  12.331
93874SOL    HW283462   6.166  14.407  12.453
93875SOL     OW83463   7.219   5.934   7.588
93875SOL    HW183464   7.280   5.914   7.659
93875SOL    HW283465   7.165   6.005   7.622
93876SOL     OW83466   5.849  13.194  10.863
93876SOL    HW183467   5.852  13.155  10.950
93876SOL    HW283468   5.933  13.239  10.854
93877SOL     OW83469   6.597   0.358   5.325
93877SOL    HW183470   6.631   0.423   5.387
93877SOL    HW283471   6.635   0.275   5.353
93878SOL     OW83472  14.157   3.496   3.036
93878SOL    HW183473  14.229   3.554   3.062
93878SOL    HW283474  14.178   3.412   3.078
93879SOL     OW83475   6.590   4.190   7.238
93879SOL    HW183476   6.600   4.143   7.321
93879SOL    HW283477   6.523   4.140   7.190
93880SOL     OW83478   7.491   9.291  14.230
93880SOL    HW183479   7.537   9.333  14.303
93880SOL    HW283480   7.407   9.336  14.226
93881SOL     OW83481   5.692   0.132   4.649
93881SOL    HW183482   5.733   0.095   4.728
93881SOL    HW283483   5.615   0.077   4.634
93882SOL     OW83484   3.904   4.008   8.511
93882SOL    HW183485   3.890   3.948   8.438
93882SOL    HW283486   3.912   4.094   8.470
93883SOL     OW83487  10.354   2.746  10.416
93883SOL    HW183488  10.271   2.711  10.449
93883SOL    HW283489  10.335   2.838  10.397
93884SOL     OW83490  11.474  13.426  12.182
93884SOL    HW183491  11.435  13.481  12.250
93884SOL    HW283492  11.569  13.435  12.196
93885SOL     OW83493  12.540  11.344   9.119
93885SOL    HW183494  12.632  11.339   9.093
93885SOL    HW283495  12.512  11.253   9.128
93886SOL     OW83496   8.803   7.828   2.950
93886SOL    HW183497   8.746   7.874   2.888
93886SOL    HW283498   8.743   7.786   3.011
93887SOL     OW83499   7.100   0.671  11.242
93887SOL    HW183500   7.113   0.669  11.336
93887SOL    HW283501   7.169   0.615  11.207
93888SOL     OW83502   4.294   6.482   0.818
93888SOL    HW183503   4.363   6.536   0.856
93888SOL    HW283504   4.280   6.519   0.731
93889SOL     OW83505   7.644   3.143   6.909
93889SOL    HW183506   7.706   3.109   6.974
93889SOL    HW283507   7.699   3.168   6.835
93890SOL     OW83508   4.786  13.805   0.212
93890SOL    HW183509   4.761  13.863   0.284
93890SOL    HW283510   4.734  13.834   0.138
93891SOL     OW83511   3.415   4.345  10.841
93891SOL    HW183512   3.485   4.350  10.906
93891SOL    HW283513   3.414   4.431  10.800
93892SOL     OW83514   7.357   4.034   0.126
93892SOL    HW183515   7.436   3.988   0.098
93892SOL    HW283516   7.333   3.993   0.209
93893SOL     OW83517   8.006   4.636   1.296
93893SOL    HW183518   7.984   4.543   1.289
93893SOL    HW283519   8.093   4.643   1.255
93894SOL     OW83520  13.720   6.147  13.624
93894SOL    HW183521  13.675   6.065  13.646
93894SOL    HW283522  13.720   6.149  13.528
93895SOL     OW83523   2.285   2.596  10.483
93895SOL    HW183524   2.257   2.560  10.400
93895SOL    HW283525   2.299   2.689  10.466
93896SOL     OW83526   5.441   0.121   5.086
93896SOL    HW183527   5.464   0.182   5.016
93896SOL    HW283528   5.460   0.169   5.167
93897SOL     OW83529   8.088   7.479   3.726
93897SOL    HW183530   8.046   7.409   3.775
93897SOL    HW283531   8.103   7.548   3.791
93898SOL     OW83532   3.717   6.404   9.307
93898SOL    HW183533   3.760   6.467   9.249
93898SOL    HW283534   3.716   6.446   9.392
93899SOL     OW83535  10.671  11.461  13.495
93899SOL    HW183536  10.620  11.453  13.576
93899SOL    HW283537  10.630  11.533  13.448
93900SOL     OW83538   1.554  13.487  10.929
93900SOL    HW183539   1.465  13.454  10.939
93900SOL    HW283540   1.607  13.430  10.986
93901SOL     OW83541  10.507   4.142   1.622
93901SOL    HW183542  10.595   4.129   1.657
93901SOL    HW283543  10.521   4.155   1.528
93902SOL     OW83544   4.380  12.740   1.318
93902SOL    HW183545   4.412  12.829   1.307
93902SOL    HW283546   4.430  12.705   1.392
93903SOL     OW83547   5.182  12.088   0.826
93903SOL    HW183548   5.153  12.052   0.742
93903SOL    HW283549   5.275  12.065   0.830
93904SOL     OW83550   0.696   5.798  11.517
93904SOL    HW183551   0.642   5.751  11.580
93904SOL    HW283552   0.665   5.767  11.432
93905SOL     OW83553   8.889  14.297   7.617
93905SOL    HW183554   8.855  14.281   7.528
93905SOL    HW283555   8.826  14.357   7.656
93906SOL     OW83556   0.557   5.138   1.706
93906SOL    HW183557   0.471   5.139   1.663
93906SOL    HW283558   0.539   5.108   1.795
93907SOL     OW83559  12.846  12.175   9.562
93907SOL    HW183560  12.911  12.138   9.502
93907SOL    HW283561  12.879  12.262   9.583
93908SOL     OW83562  11.855   0.993   1.999
93908SOL    HW183563  11.814   1.042   1.928
93908SOL    HW283564  11.946   0.981   1.970
93909SOL     OW83565   9.770  11.077   4.099
93909SOL    HW183566   9.825  10.999   4.091
93909SOL    HW283567   9.744  11.097   4.009
93910SOL     OW83568   2.557   4.861   7.726
93910SOL    HW183569   2.484   4.914   7.694
93910SOL    HW283570   2.546   4.861   7.822
93911SOL     OW83571   6.453  11.486   5.182
93911SOL    HW183572   6.500  11.454   5.259
93911SOL    HW283573   6.363  11.455   5.194
93912SOL     OW83574   9.210   6.550  11.130
93912SOL    HW183575   9.174   6.629  11.089
93912SOL    HW283576   9.133   6.501  11.158
93913SOL     OW83577   9.316   1.306   0.436
93913SOL    HW183578   9.253   1.280   0.503
93913SOL    HW283579   9.263   1.348   0.368
93914SOL     OW83580   3.479   0.957  10.337
93914SOL    HW183581   3.469   0.878  10.389
93914SOL    HW283582   3.549   1.006  10.380
93915SOL     OW83583   4.178  14.264   7.489
93915SOL    HW183584   4.206  14.172   7.495
93915SOL    HW283585   4.129  14.279   7.570
93916SOL     OW83586   1.373   5.185   5.923
93916SOL    HW183587   1.326   5.250   5.975
93916SOL    HW283588   1.351   5.206   5.832
93917SOL     OW83589   4.196  12.235  12.859
93917SOL    HW183590   4.134  12.272  12.922
93917SOL    HW283591   4.150  12.240  12.774
93918SOL     OW83592   8.376  11.748   4.536
93918SOL    HW183593   8.281  11.743   4.548
93918SOL    HW283594   8.412  11.721   4.620
93919SOL     OW83595  11.331   1.504   3.743
93919SOL    HW183596  11.376   1.455   3.812
93919SOL    HW283597  11.398   1.562   3.708
93920SOL     OW83598  14.525  11.509   5.549
93920SOL    HW183599  14.553  11.424   5.584
93920SOL    HW283600  14.515  11.564   5.626
93921SOL     OW83601   7.715  12.269  11.105
93921SOL    HW183602   7.795  12.231  11.142
93921SOL    HW283603   7.747  12.322  11.031
93922SOL     OW83604   3.712  13.226   5.828
93922SOL    HW183605   3.632  13.184   5.799
93922SOL    HW283606   3.732  13.290   5.760
93923SOL     OW83607   5.828   4.704   3.766
93923SOL    HW183608   5.757   4.719   3.828
93923SOL    HW283609   5.885   4.641   3.809
93924SOL     OW83610  11.624   9.364  13.191
93924SOL    HW183611  11.604   9.427  13.122
93924SOL    HW283612  11.594   9.406  13.272
93925SOL     OW83613   3.063  13.892   5.037
93925SOL    HW183614   2.985  13.945   5.025
93925SOL    HW283615   3.134  13.945   5.000
93926SOL     OW83616   7.849   4.374  11.583
93926SOL    HW183617   7.905   4.416  11.648
93926SOL    HW283618   7.775   4.340  11.633
93927SOL     OW83619   1.583   2.950   4.299
93927SOL    HW183620   1.659   3.007   4.285
93927SOL    HW283621   1.618   2.861   4.293
93928SOL     OW83622   3.938   8.467   7.834
93928SOL    HW183623   3.891   8.520   7.769
93928SOL    HW283624   3.903   8.379   7.823
93929SOL     OW83625   1.573   1.917  11.310
93929SOL    HW183626   1.526   1.906  11.228
93929SOL    HW283627   1.575   2.011  11.324
93930SOL     OW83628   7.379  12.661   1.915
93930SOL    HW183629   7.311  12.691   1.976
93930SOL    HW283630   7.414  12.742   1.878
93931SOL     OW83631  12.526   7.519  13.723
93931SOL    HW183632  12.579   7.591  13.758
93931SOL    HW283633  12.452   7.513  13.783
93932SOL     OW83634   0.375   4.467  14.055
93932SOL    HW183635   0.336   4.485  13.969
93932SOL    HW283636   0.321   4.516  14.117
93933SOL     OW83637   6.566   1.154   2.387
93933SOL    HW183638   6.618   1.218   2.339
93933SOL    HW283639   6.599   1.158   2.477
93934SOL     OW83640  12.881  10.524   2.572
93934SOL    HW183641  12.881  10.474   2.490
93934SOL    HW283642  12.800  10.574   2.569
93935SOL     OW83643  13.450  12.987  10.898
93935SOL    HW183644  13.360  12.969  10.869
93935SOL    HW283645  13.496  13.012  10.819
93936SOL     OW83646   6.556   9.644  12.044
93936SOL    HW183647   6.514   9.558  12.047
93936SOL    HW283648   6.485   9.706  12.060
93937SOL     OW83649   7.691  14.072  12.052
93937SOL    HW183650   7.753  14.044  11.985
93937SOL    HW283651   7.660  13.991  12.092
93938SOL     OW83652  13.830   9.808  10.819
93938SOL    HW183653  13.915   9.807  10.774
93938SOL    HW283654  13.850   9.835  10.909
93939SOL     OW83655   1.544  12.601  13.728
93939SOL    HW183656   1.527  12.508  13.744
93939SOL    HW283657   1.560  12.638  13.815
93940SOL     OW83658   4.316   4.505   4.446
93940SOL    HW183659   4.308   4.411   4.433
93940SOL    HW283660   4.232   4.531   4.485
93941SOL     OW83661   2.228   6.997   7.850
93941SOL    HW183662   2.271   6.923   7.893
93941SOL    HW283663   2.241   7.071   7.909
93942SOL     OW83664   6.210   9.966  13.503
93942SOL    HW183665   6.259   9.887  13.528
93942SOL    HW283666   6.215   9.968  13.407
93943SOL     OW83667   8.180   2.545   8.433
93943SOL    HW183668   8.198   2.490   8.356
93943SOL    HW283669   8.166   2.633   8.397
93944SOL     OW83670  11.622   8.440   2.513
93944SOL    HW183671  11.581   8.523   2.487
93944SOL    HW283672  11.558   8.374   2.487
93945SOL     OW83673  12.634  11.776   1.011
93945SOL    HW183674  12.619  11.720   1.087
93945SOL    HW283675  12.585  11.735   0.941
93946SOL     OW83676  10.073   4.222   6.878
93946SOL    HW183677  10.074   4.300   6.933
93946SOL    HW283678  10.136   4.163   6.919
93947SOL     OW83679   9.472   2.522   2.638
93947SOL    HW183680   9.470   2.477   2.722
93947SOL    HW283681   9.531   2.470   2.583
93948SOL     OW83682   6.426   2.103  10.021
93948SOL    HW183683   6.339   2.084  10.056
93948SOL    HW283684   6.412   2.113   9.927
93949SOL     OW83685   2.032   0.463   0.892
93949SOL    HW183686   1.963   0.415   0.846
93949SOL    HW283687   2.082   0.506   0.823
93950SOL     OW83688  13.631  10.517  11.894
93950SOL    HW183689  13.561  10.455  11.878
93950SOL    HW283690  13.712  10.467  11.880
93951SOL     OW83691   2.998   3.325   4.883
93951SOL    HW183692   3.087   3.362   4.882
93951SOL    HW283693   2.941   3.401   4.885
93952SOL     OW83694   5.107   6.380  12.080
93952SOL    HW183695   5.192   6.413  12.108
93952SOL    HW283696   5.125   6.290  12.052
93953SOL     OW83697  10.720   1.498   8.412
93953SOL    HW183698  10.703   1.428   8.349
93953SOL    HW283699  10.702   1.578   8.363
93954SOL     OW83700   0.419  14.458  13.589
93954SOL    HW183701   0.338  14.509  13.591
93954SOL    HW283702   0.392  14.370  13.566
93955SOL     OW83703   9.779  10.545   0.682
93955SOL    HW183704   9.855  10.603   0.674
93955SOL    HW283705   9.723  10.568   0.607
93956SOL     OW83706  12.993   1.116   5.760
93956SOL    HW183707  12.936   1.185   5.794
93956SOL    HW283708  13.065   1.163   5.718
93957SOL     OW83709   8.652  10.794   9.884
93957SOL    HW183710   8.675  10.742   9.807
93957SOL    HW283711   8.559  10.774   9.899
93958SOL     OW83712   2.762   0.842  10.643
93958SOL    HW183713   2.692   0.801  10.695
93958SOL    HW283714   2.730   0.930  10.626
93959SOL     OW83715   4.008   5.202   4.137
93959SOL    HW183716   4.086   5.233   4.092
93959SOL    HW283717   3.937   5.211   4.073
93960SOL     OW83718   8.558   4.773   2.690
93960SOL    HW183719   8.483   4.753   2.745
93960SOL    HW283720   8.521   4.791   2.604
93961SOL     OW83721   6.284   1.876   2.502
93961SOL    HW183722   6.321   1.928   2.573
93961SOL    HW283723   6.247   1.941   2.442
93962SOL     OW83724   4.799  12.270   6.951
93962SOL    HW183725   4.739  12.234   7.017
93962SOL    HW283726   4.744  12.286   6.874
93963SOL     OW83727   2.984  13.320   9.924
93963SOL    HW183728   2.909  13.362   9.882
93963SOL    HW283729   2.970  13.226   9.910
93964SOL     OW83730   9.117   4.628  11.562
93964SOL    HW183731   9.189   4.678  11.600
93964SOL    HW283732   9.147   4.606  11.474
93965SOL     OW83733   6.746   8.826  10.517
93965SOL    HW183734   6.807   8.754  10.503
93965SOL    HW283735   6.660   8.785  10.516
93966SOL     OW83736   9.288  11.552   9.602
93966SOL    HW183737   9.194  11.544   9.615
93966SOL    HW283738   9.314  11.468   9.563
93967SOL     OW83739   6.802   7.869   5.268
93967SOL    HW183740   6.775   7.952   5.308
93967SOL    HW283741   6.830   7.814   5.342
93968SOL     OW83742  11.174   8.042  13.479
93968SOL    HW183743  11.162   7.999  13.564
93968SOL    HW283744  11.261   8.013  13.450
93969SOL     OW83745   2.887   6.371   0.739
93969SOL    HW183746   2.903   6.368   0.833
93969SOL    HW283747   2.972   6.387   0.700
93970SOL     OW83748   6.812   4.484   1.104
93970SOL    HW183749   6.819   4.412   1.041
93970SOL    HW283750   6.778   4.444   1.184
93971SOL     OW83751  13.583   7.012  13.450
93971SOL    HW183752  13.568   6.922  13.422
93971SOL    HW283753  13.559   7.066  13.374
93972SOL     OW83754  10.970   5.272   7.172
93972SOL    HW183755  10.964   5.264   7.077
93972SOL    HW283756  11.064   5.280   7.189
93973SOL     OW83757   2.454   8.650   3.259
93973SOL    HW183758   2.483   8.561   3.239
93973SOL    HW283759   2.361   8.650   3.238
93974SOL     OW83760   1.373   8.234   3.553
93974SOL    HW183761   1.304   8.202   3.611
93974SOL    HW283762   1.342   8.320   3.525
93975SOL     OW83763   9.668   8.913  13.019
93975SOL    HW183764   9.649   8.874  13.104
93975SOL    HW283765   9.696   9.003  13.040
93976SOL     OW83766   3.080   6.813  10.205
93976SOL    HW183767   3.090   6.867  10.127
93976SOL    HW283768   2.986   6.811  10.221
93977SOL     OW83769  11.575   6.510  12.566
93977SOL    HW183770  11.540   6.527  12.654
93977SOL    HW283771  11.670   6.520  12.575
93978SOL     OW83772   4.889   9.153   0.469
93978SOL    HW183773   4.906   9.192   0.555
93978SOL    HW283774   4.867   9.062   0.487
93979SOL     OW83775   8.097   5.094   9.213
93979SOL    HW183776   8.128   5.110   9.124
93979SOL    HW283777   8.072   5.180   9.245
93980SOL     OW83778  14.869   2.718   2.660
93980SOL    HW183779   0.082   2.713   2.619
93980SOL    HW283780  14.857   2.633   2.703
93981SOL     OW83781   2.358   7.767  10.046
93981SOL    HW183782   2.331   7.693  10.100
93981SOL    HW283783   2.278   7.794  10.001
93982SOL     OW83784   5.503  13.356   8.539
93982SOL    HW183785   5.491  13.449   8.558
93982SOL    HW283786   5.566  13.325   8.604
93983SOL     OW83787   4.299  10.050   4.098
93983SOL    HW183788   4.302   9.981   4.031
93983SOL    HW283789   4.310  10.003   4.181
93984SOL     OW83790   6.458   9.976  14.112
93984SOL    HW183791   6.479  10.034  14.039
93984SOL    HW283792   6.447   9.890  14.072
93985SOL     OW83793   1.590  13.261   7.476
93985SOL    HW183794   1.610  13.347   7.513
93985SOL    HW283795   1.575  13.277   7.383
93986SOL     OW83796   7.098   5.509  11.979
93986SOL    HW183797   7.076   5.542  12.066
93986SOL    HW283798   7.134   5.584  11.933
93987SOL     OW83799  14.629  10.762   8.042
93987SOL    HW183800  14.659  10.712   8.118
93987SOL    HW283801  14.538  10.784   8.062
93988SOL     OW83802   6.633  13.607  12.266
93988SOL    HW183803   6.576  13.531  12.278
93988SOL    HW283804   6.580  13.669  12.215
93989SOL     OW83805   8.938   4.485  11.134
93989SOL    HW183806   8.864   4.449  11.182
93989SOL    HW283807   8.943   4.576  11.162
93990SOL     OW83808   1.640   1.037  11.064
93990SOL    HW183809   1.672   1.036  11.154
93990SOL    HW283810   1.562   1.091  11.067
93991SOL     OW83811   1.078   8.316   0.092
93991SOL    HW183812   1.005   8.372   0.122
93991SOL    HW283813   1.153   8.346   0.143
93992SOL     OW83814  13.330   5.415   4.696
93992SOL    HW183815  13.353   5.421   4.789
93992SOL    HW283816  13.395   5.468   4.651
93993SOL     OW83817   2.667  11.889  11.812
93993SOL    HW183818   2.718  11.813  11.840
93993SOL    HW283819   2.596  11.895  11.876
93994SOL     OW83820  11.199   7.385   8.816
93994SOL    HW183821  11.113   7.418   8.841
93994SOL    HW283822  11.187   7.349   8.729
93995SOL     OW83823   0.045   5.089  13.038
93995SOL    HW183824   0.102   5.126  13.105
93995SOL    HW283825  14.832   5.085  13.079
93996SOL     OW83826   4.026  14.855   5.053
93996SOL    HW183827   4.003  14.808   5.133
93996SOL    HW283828   3.958  14.830   4.990
93997SOL     OW83829   4.756  12.328   3.935
93997SOL    HW183830   4.752  12.235   3.912
93997SOL    HW283831   4.731  12.330   4.027
93998SOL     OW83832   0.266  13.977  10.435
93998SOL    HW183833   0.196  13.962  10.498
93998SOL    HW283834   0.294  13.889  10.410
93999SOL     OW83835  14.650  13.491  14.498
93999SOL    HW183836  14.677  13.556  14.562
93999SOL    HW283837  14.593  13.431  14.546
94000SOL     OW83838   0.784  14.091   1.054
94000SOL    HW183839   0.847  14.155   1.087
94000SOL    HW283840   0.757  14.043   1.133
94001SOL     OW83841   0.278   2.628  11.333
94001SOL    HW183842   0.269   2.657  11.424
94001SOL    HW283843   0.209   2.561  11.323
94002SOL     OW83844   3.220   3.609   9.566
94002SOL    HW183845   3.246   3.526   9.526
94002SOL    HW283846   3.182   3.584   9.651
94003SOL     OW83847  10.602   8.691   4.580
94003SOL    HW183848  10.680   8.728   4.538
94003SOL    HW283849  10.635   8.649   4.659
94004SOL     OW83850   5.936   6.141   0.366
94004SOL    HW183851   5.840   6.146   0.366
94004SOL    HW283852   5.955   6.050   0.388
94005SOL     OW83853   2.703   4.814   8.680
94005SOL    HW183854   2.724   4.773   8.764
94005SOL    HW283855   2.621   4.861   8.696
94006SOL     OW83856   6.865  12.613  11.567
94006SOL    HW183857   6.820  12.696  11.552
94006SOL    HW283858   6.897  12.587  11.481
94007SOL     OW83859   9.758   2.926  13.088
94007SOL    HW183860   9.680   2.871  13.097
94007SOL    HW283861   9.734   2.990  13.020
94008SOL     OW83862   2.625   0.586   7.316
94008SOL    HW183863   2.649   0.676   7.336
94008SOL    HW283864   2.709   0.541   7.307
94009SOL     OW83865   3.845   9.733   2.048
94009SOL    HW183866   3.852   9.828   2.060
94009SOL    HW283867   3.851   9.697   2.136
94010SOL     OW83868   5.486  10.089   4.782
94010SOL    HW183869   5.524  10.064   4.866
94010SOL    HW283870   5.547  10.155   4.747
94011SOL     OW83871   6.667  12.101  11.262
94011SOL    HW183872   6.573  12.086  11.271
94011SOL    HW283873   6.674  12.196  11.248
94012SOL     OW83874  14.173  14.219  14.356
94012SOL    HW183875  14.201  14.178  14.274
94012SOL    HW283876  14.254  14.233  14.405
94013SOL     OW83877  13.084   0.721   1.990
94013SOL    HW183878  13.125   0.642   2.024
94013SOL    HW283879  13.060   0.771   2.067
94014SOL     OW83880   6.122   7.368  14.180
94014SOL    HW183881   6.165   7.285  14.200
94014SOL    HW283882   6.103   7.406  14.266
94015SOL     OW83883   9.808   4.330   2.012
94015SOL    HW183884   9.765   4.364   2.090
94015SOL    HW283885   9.889   4.291   2.044
94016SOL     OW83886   1.159   3.232   6.491
94016SOL    HW183887   1.145   3.282   6.571
94016SOL    HW283888   1.071   3.206   6.464
94017SOL     OW83889  10.190   4.505   5.448
94017SOL    HW183890  10.248   4.504   5.372
94017SOL    HW283891  10.234   4.563   5.510
94018SOL     OW83892  14.276   4.639  12.377
94018SOL    HW183893  14.299   4.718  12.426
94018SOL    HW283894  14.186   4.655  12.347
94019SOL     OW83895  14.542  10.896   0.293
94019SOL    HW183896  14.495  10.822   0.253
94019SOL    HW283897  14.561  10.954   0.220
94020SOL     OW83898   9.148  12.584  12.338
94020SOL    HW183899   9.188  12.628  12.262
94020SOL    HW283900   9.088  12.649  12.375
94021SOL     OW83901   6.148   3.304   9.489
94021SOL    HW183902   6.104   3.220   9.503
94021SOL    HW283903   6.239   3.288   9.513
94022SOL     OW83904  14.223  11.790   1.398
94022SOL    HW183905  14.210  11.756   1.487
94022SOL    HW283906  14.135  11.788   1.359
94023SOL     OW83907   3.490   0.903   6.176
94023SOL    HW183908   3.469   0.976   6.235
94023SOL    HW283909   3.459   0.826   6.223
94024SOL     OW83910  12.306   0.384   9.450
94024SOL    HW183911  12.357   0.448   9.400
94024SOL    HW283912  12.231   0.434   9.483
94025SOL     OW83913   8.154   4.057   5.269
94025SOL    HW183914   8.106   3.974   5.262
94025SOL    HW283915   8.189   4.057   5.358
94026SOL     OW83916   0.651   6.134   4.663
94026SOL    HW183917   0.650   6.058   4.721
94026SOL    HW283918   0.589   6.195   4.703
94027SOL     OW83919  10.702  11.228   7.713
94027SOL    HW183920  10.768  11.197   7.651
94027SOL    HW283921  10.699  11.323   7.699
94028SOL     OW83922   8.018  11.103  10.863
94028SOL    HW183923   7.932  11.106  10.821
94028SOL    HW283924   8.018  11.178  10.922
94029SOL     OW83925   4.886   4.806   4.756
94029SOL    HW183926   4.867   4.889   4.711
94029SOL    HW283927   4.971   4.780   4.722
94030SOL     OW83928   8.272   8.186   0.036
94030SOL    HW183929   8.283   8.150   0.124
94030SOL    HW283930   8.287   8.111  14.851
94031SOL     OW83931   5.187   8.392   7.206
94031SOL    HW183932   5.135   8.433   7.136
94031SOL    HW283933   5.251   8.459   7.230
94032SOL     OW83934  12.096   9.759  14.309
94032SOL    HW183935  12.065   9.777  14.220
94032SOL    HW283936  12.186   9.790  14.310
94033SOL     OW83937   0.923   7.654  14.012
94033SOL    HW183938   0.905   7.709  13.935
94033SOL    HW283939   0.837   7.619  14.036
94034SOL     OW83940   7.590   8.800  12.835
94034SOL    HW183941   7.686   8.799  12.831
94034SOL    HW283942   7.569   8.889  12.865
94035SOL     OW83943   0.258   2.989   5.151
94035SOL    HW183944   0.307   3.058   5.196
94035SOL    HW283945   0.275   2.910   5.202
94036SOL     OW83946  11.972  10.977   5.101
94036SOL    HW183947  12.030  10.957   5.027
94036SOL    HW283948  12.031  11.002   5.172
94037SOL     OW83949   5.277   3.558  10.315
94037SOL    HW183950   5.194   3.519  10.344
94037SOL    HW283951   5.341   3.532  10.382
94038SOL     OW83952  10.317  14.661   4.861
94038SOL    HW183953  10.275  14.641   4.778
94038SOL    HW283954  10.283  14.596   4.922
94039SOL     OW83955   3.124   9.549  10.383
94039SOL    HW183956   3.146   9.468  10.337
94039SOL    HW283957   3.114   9.524  10.474
94040SOL     OW83958   3.829   6.000  12.484
94040SOL    HW183959   3.885   5.932  12.447
94040SOL    HW283960   3.885   6.044  12.549
94041SOL     OW83961   4.410   1.517   7.423
94041SOL    HW183962   4.494   1.495   7.382
94041SOL    HW283963   4.428   1.599   7.470
94042SOL     OW83964  11.510   7.483  12.075
94042SOL    HW183965  11.461   7.560  12.103
94042SOL    HW283966  11.452   7.409  12.092
94043SOL     OW83967  13.979   6.567   5.982
94043SOL    HW183968  14.045   6.547   6.048
94043SOL    HW283969  13.896   6.557   6.027
94044SOL     OW83970   8.398   0.345   1.109
94044SOL    HW183971   8.488   0.314   1.116
94044SOL    HW283972   8.404   0.441   1.114
94045SOL     OW83973   7.310   0.625  10.450
94045SOL    HW183974   7.395   0.645  10.412
94045SOL    HW283975   7.302   0.684  10.525
94046SOL     OW83976   7.605  11.089  12.215
94046SOL    HW183977   7.690  11.047  12.204
94046SOL    HW283978   7.577  11.064  12.303
94047SOL     OW83979  12.958  13.629   0.672
94047SOL    HW183980  12.965  13.537   0.647
94047SOL    HW283981  12.868  13.639   0.704
94048SOL     OW83982   1.145   8.633   0.964
94048SOL    HW183983   1.091   8.569   1.011
94048SOL    HW283984   1.213   8.656   1.026
94049SOL     OW83985  13.967   8.712  14.537
94049SOL    HW183986  14.030   8.745  14.601
94049SOL    HW283987  13.885   8.704  14.587
94050SOL     OW83988   4.795   4.390  11.551
94050SOL    HW183989   4.746   4.307  11.553
94050SOL    HW283990   4.866   4.376  11.613
94051SOL     OW83991   7.858   8.354  14.775
94051SOL    HW183992   7.806   8.376  14.853
94051SOL    HW283993   7.808   8.391  14.702
94052SOL     OW83994   8.328  11.073  14.400
94052SOL    HW183995   8.283  11.143  14.448
94052SOL    HW283996   8.418  11.077  14.432
94053SOL     OW83997  10.142   1.692  12.410
94053SOL    HW183998  10.096   1.640  12.477
94053SOL    HW283999  10.188   1.759  12.461
94054SOL     OW84000  11.089   9.185   1.927
94054SOL    HW184001  11.073   9.235   2.007
94054SOL    HW284002  11.157   9.233   1.881
94055SOL     OW84003   8.194   6.689   7.017
94055SOL    HW184004   8.199   6.688   7.113
94055SOL    HW284005   8.100   6.679   6.998
94056SOL     OW84006   9.742  12.340  13.534
94056SOL    HW184007   9.733  12.369  13.444
94056SOL    HW284008   9.718  12.416  13.587
94057SOL     OW84009  12.175   6.548   7.593
94057SOL    HW184010  12.198   6.537   7.501
94057SOL    HW284011  12.254   6.521   7.641
94058SOL     OW84012  13.559   7.174   7.944
94058SOL    HW184013  13.584   7.263   7.920
94058SOL    HW284014  13.529   7.135   7.863
94059SOL     OW84015  10.170   8.870   2.632
94059SOL    HW184016  10.078   8.893   2.646
94059SOL    HW284017  10.181   8.875   2.537
94060SOL     OW84018   3.155   8.855   6.289
94060SOL    HW184019   3.099   8.933   6.294
94060SOL    HW284020   3.101   8.790   6.244
94061SOL     OW84021  13.899   1.853  11.820
94061SOL    HW184022  13.954   1.819  11.749
94061SOL    HW284023  13.905   1.786  11.888
94062SOL     OW84024  11.157   1.335   1.549
94062SOL    HW184025  11.132   1.343   1.641
94062SOL    HW284026  11.253   1.329   1.551
94063SOL     OW84027   1.330  10.995  10.488
94063SOL    HW184028   1.272  10.980  10.562
94063SOL    HW284029   1.364  10.909  10.465
94064SOL     OW84030   2.135  14.340   9.891
94064SOL    HW184031   2.188  14.260   9.894
94064SOL    HW284032   2.044  14.309   9.896
94065SOL     OW84033   7.604   3.304  14.599
94065SOL    HW184034   7.550   3.232  14.631
94065SOL    HW284035   7.610   3.365  14.673
94066SOL     OW84036   2.644  13.430   5.147
94066SOL    HW184037   2.558  13.473   5.142
94066SOL    HW284038   2.690  13.459   5.069
94067SOL     OW84039   5.829   9.393   0.946
94067SOL    HW184040   5.917   9.419   0.973
94067SOL    HW284041   5.809   9.318   1.001
94068SOL     OW84042  10.048   5.562   9.140
94068SOL    HW184043  10.079   5.609   9.063
94068SOL    HW284044   9.955   5.586   9.146
94069SOL     OW84045   0.935  11.440   7.254
94069SOL    HW184046   0.882  11.360   7.252
94069SOL    HW284047   0.969  11.448   7.165
94070SOL     OW84048   3.642   4.140   7.839
94070SOL    HW184049   3.717   4.160   7.895
94070SOL    HW284050   3.666   4.177   7.753
94071SOL     OW84051  12.153  10.918   3.230
94071SOL    HW184052  12.065  10.880   3.238
94071SOL    HW284053  12.138  11.003   3.188
94072SOL     OW84054   3.102   6.083  13.999
94072SOL    HW184055   3.179   6.089  14.055
94072SOL    HW284056   3.124   6.136  13.922
94073SOL     OW84057   1.339   5.937   6.858
94073SOL    HW184058   1.370   6.027   6.864
94073SOL    HW284059   1.411   5.885   6.893
94074SOL     OW84060   1.990  12.449  14.701
94074SOL    HW184061   1.924  12.502  14.746
94074SOL    HW284062   1.971  12.359  14.726
94075SOL     OW84063  13.583   7.182   9.457
94075SOL    HW184064  13.531   7.142   9.527
94075SOL    HW284065  13.667   7.136   9.461
94076SOL     OW84066   6.491   8.581  11.767
94076SOL    HW184067   6.560   8.549  11.709
94076SOL    HW284068   6.409   8.560  11.723
94077SOL     OW84069   8.257   2.077  10.246
94077SOL    HW184070   8.292   1.989  10.237
94077SOL    HW284071   8.234   2.103  10.156
94078SOL     OW84072   1.733   2.784   9.636
94078SOL    HW184073   1.679   2.847   9.589
94078SOL    HW284074   1.682   2.704   9.637
94079SOL     OW84075   9.181   5.936  12.483
94079SOL    HW184076   9.118   5.993  12.527
94079SOL    HW284077   9.127   5.873  12.435
94080SOL     OW84078   7.188  11.037   0.253
94080SOL    HW184079   7.217  10.967   0.194
94080SOL    HW284080   7.093  11.040   0.241
94081SOL     OW84081  13.642  11.929   1.958
94081SOL    HW184082  13.727  11.970   1.974
94081SOL    HW284083  13.589  11.997   1.918
94082SOL     OW84084   6.794   9.250   6.299
94082SOL    HW184085   6.823   9.172   6.347
94082SOL    HW284086   6.840   9.323   6.343
94083SOL     OW84087   3.083  10.827   1.320
94083SOL    HW184088   3.152  10.833   1.254
94083SOL    HW284089   3.055  10.917   1.335
94084SOL     OW84090   6.973   6.506   2.612
94084SOL    HW184091   7.042   6.444   2.588
94084SOL    HW284092   6.970   6.568   2.538
94085SOL     OW84093   1.911   0.025   2.865
94085SOL    HW184094   1.877  14.811   2.884
94085SOL    HW284095   1.905   0.072   2.949
94086SOL     OW84096   5.237  10.971   6.385
94086SOL    HW184097   5.314  10.914   6.394
94086SOL    HW284098   5.251  11.041   6.449
94087SOL     OW84099   6.803  14.126  12.614
94087SOL    HW184100   6.849  14.076  12.547
94087SOL    HW284101   6.733  14.172  12.568
94088SOL     OW84102   0.307  10.800   5.619
94088SOL    HW184103   0.396  10.785   5.587
94088SOL    HW284104   0.274  10.873   5.567
94089SOL     OW84105  12.544   8.472  11.626
94089SOL    HW184106  12.634   8.470  11.592
94089SOL    HW284107  12.490   8.491  11.550
94090SOL     OW84108  13.010  13.457  13.991
94090SOL    HW184109  13.043  13.471  14.080
94090SOL    HW284110  12.942  13.391  14.001
94091SOL     OW84111   6.474  11.314  12.504
94091SOL    HW184112   6.438  11.388  12.552
94091SOL    HW284113   6.529  11.354  12.436
94092SOL     OW84114   8.627  12.859   9.254
94092SOL    HW184115   8.708  12.808   9.255
94092SOL    HW284116   8.597  12.860   9.345
94093SOL     OW84117  11.042   1.182  12.117
94093SOL    HW184118  11.115   1.243  12.120
94093SOL    HW284119  10.980   1.215  12.182
94094SOL     OW84120  10.380   6.525   3.763
94094SOL    HW184121  10.330   6.479   3.696
94094SOL    HW284122  10.329   6.604   3.780
94095SOL     OW84123   1.404   0.541   3.445
94095SOL    HW184124   1.350   0.610   3.484
94095SOL    HW284125   1.343   0.468   3.432
94096SOL     OW84126   1.657  10.971  11.296
94096SOL    HW184127   1.653  10.931  11.210
94096SOL    HW284128   1.742  11.017  11.297
94097SOL     OW84129  13.201   0.985  12.713
94097SOL    HW184130  13.235   1.052  12.773
94097SOL    HW284131  13.107   1.002  12.709
94098SOL     OW84132  11.693   1.261   8.964
94098SOL    HW184133  11.626   1.206   9.003
94098SOL    HW284134  11.646   1.335   8.926
94099SOL     OW84135   9.590   3.367   8.525
94099SOL    HW184136   9.533   3.377   8.448
94099SOL    HW284137   9.652   3.440   8.519
94100SOL     OW84138   5.782  12.541   6.052
94100SOL    HW184139   5.797  12.592   5.973
94100SOL    HW284140   5.729  12.466   6.024
94101SOL     OW84141   9.644  13.638  13.961
94101SOL    HW184142   9.703  13.628  14.036
94101SOL    HW284143   9.666  13.567  13.902
94102SOL     OW84144   0.785   5.272   4.833
94102SOL    HW184145   0.737   5.305   4.756
94102SOL    HW284146   0.828   5.350   4.868
94103SOL     OW84147  12.979   4.027   5.982
94103SOL    HW184148  12.997   4.039   6.075
94103SOL    HW284149  13.042   3.961   5.953
94104SOL     OW84150   2.554   3.442  13.173
94104SOL    HW184151   2.628   3.463  13.116
94104SOL    HW284152   2.496   3.389  13.119
94105SOL     OW84153   4.762   9.398   2.735
94105SOL    HW184154   4.790   9.489   2.731
94105SOL    HW284155   4.833   9.349   2.694
94106SOL     OW84156  12.261   7.325   2.844
94106SOL    HW184157  12.248   7.418   2.865
94106SOL    HW284158  12.353   7.309   2.863
94107SOL     OW84159  10.367  13.868  14.751
94107SOL    HW184160  10.344  13.775  14.750
94107SOL    HW284161  10.284  13.914  14.764
94108SOL     OW84162  10.603   4.025   9.411
94108SOL    HW184163  10.625   3.973   9.488
94108SOL    HW284164  10.586   4.113   9.446
94109SOL     OW84165   8.579  13.548  13.124
94109SOL    HW184166   8.596  13.607  13.197
94109SOL    HW284167   8.606  13.598  13.047
94110SOL     OW84168   1.191   2.210   3.458
94110SOL    HW184169   1.197   2.294   3.414
94110SOL    HW284170   1.247   2.151   3.407
94111SOL     OW84171   6.311   9.126   6.147
94111SOL    HW184172   6.371   9.182   6.097
94111SOL    HW284173   6.324   9.153   6.238
94112SOL     OW84174   8.052   0.890   5.238
94112SOL    HW184175   8.026   0.981   5.256
94112SOL    HW284176   8.028   0.876   5.147
94113SOL     OW84177   9.028  11.544   4.721
94113SOL    HW184178   9.081  11.568   4.645
94113SOL    HW284179   9.065  11.595   4.793
94114SOL     OW84180   0.826   1.577  10.561
94114SOL    HW184181   0.814   1.516  10.634
94114SOL    HW284182   0.742   1.578  10.516
94115SOL     OW84183  13.176  13.499   5.891
94115SOL    HW184184  13.169  13.557   5.815
94115SOL    HW284185  13.104  13.437   5.881
94116SOL     OW84186  14.641   3.259  12.402
94116SOL    HW184187  14.593   3.177  12.386
94116SOL    HW284188  14.578   3.328  12.380
94117SOL     OW84189  11.550   3.599   0.635
94117SOL    HW184190  11.536   3.534   0.566
94117SOL    HW284191  11.490   3.670   0.614
94118SOL     OW84192   2.521   2.674   6.863
94118SOL    HW184193   2.570   2.607   6.816
94118SOL    HW284194   2.430   2.664   6.833
94119SOL     OW84195   9.675   1.555  10.017
94119SOL    HW184196   9.734   1.616   9.974
94119SOL    HW284197   9.622   1.518   9.947
94120SOL     OW84198   0.396  11.455  13.812
94120SOL    HW184199   0.342  11.530  13.837
94120SOL    HW284200   0.383  11.445  13.718
94121SOL     OW84201   5.551  14.028   4.846
94121SOL    HW184202   5.618  14.008   4.911
94121SOL    HW284203   5.483  13.962   4.860
94122SOL     OW84204   7.447  13.600   5.036
94122SOL    HW184205   7.376  13.540   5.012
94122SOL    HW284206   7.491  13.620   4.953
94123SOL     OW84207  12.759   7.107  12.976
94123SOL    HW184208  12.787   7.019  13.002
94123SOL    HW284209  12.705   7.138  13.049
94124SOL     OW84210  13.508   1.624  13.774
94124SOL    HW184211  13.528   1.684  13.702
94124SOL    HW284212  13.565   1.653  13.846
94125SOL     OW84213   9.372   3.822   1.548
94125SOL    HW184214   9.297   3.776   1.587
94125SOL    HW284215   9.423   3.851   1.624
94126SOL     OW84216   1.079   6.025  12.453
94126SOL    HW184217   1.138   6.034  12.528
94126SOL    HW284218   1.009   5.968  12.485
94127SOL     OW84219   0.500   2.072   2.420
94127SOL    HW184220   0.591   2.042   2.427
94127SOL    HW284221   0.503   2.143   2.356
94128SOL     OW84222  10.770   8.398   1.650
94128SOL    HW184223  10.769   8.305   1.669
94128SOL    HW284224  10.802   8.439   1.730
94129SOL     OW84225  13.656   4.366   3.774
94129SOL    HW184226  13.710   4.444   3.762
94129SOL    HW284227  13.626   4.344   3.686
94130SOL     OW84228   7.001  10.732   5.086
94130SOL    HW184229   6.958  10.708   5.004
94130SOL    HW284230   6.961  10.674   5.151
94131SOL     OW84231  11.915  12.541   6.618
94131SOL    HW184232  11.993  12.486   6.614
94131SOL    HW284233  11.940  12.612   6.677
94132SOL     OW84234   6.252  12.804   3.071
94132SOL    HW184235   6.169  12.838   3.039
94132SOL    HW284236   6.315  12.875   3.059
94133SOL     OW84237   9.599   5.252  11.522
94133SOL    HW184238   9.523   5.286  11.476
94133SOL    HW284239   9.661   5.230  11.453
94134SOL     OW84240   7.651   6.836   1.424
94134SOL    HW184241   7.612   6.924   1.421
94134SOL    HW284242   7.652   6.806   1.333
94135SOL     OW84243  12.625   6.803   9.193
94135SOL    HW184244  12.640   6.832   9.283
94135SOL    HW284245  12.540   6.840   9.170
94136SOL     OW84246   7.533   6.645  12.938
94136SOL    HW184247   7.444   6.610  12.929
94136SOL    HW284248   7.534   6.685  13.025
94137SOL     OW84249   2.829   3.482  12.274
94137SOL    HW184250   2.802   3.526  12.194
94137SOL    HW284251   2.785   3.397  12.272
94138SOL     OW84252   7.360   9.451  14.501
94138SOL    HW184253   7.392   9.375  14.551
94138SOL    HW284254   7.292   9.489  14.557
94139SOL     OW84255   2.849  11.234   8.927
94139SOL    HW184256   2.833  11.223   9.021
94139SOL    HW284257   2.944  11.235   8.919
94140SOL     OW84258   4.754   7.426  10.459
94140SOL    HW184259   4.820   7.389  10.518
94140SOL    HW284260   4.699   7.480  10.515
94141SOL     OW84261   8.098  12.045   7.267
94141SOL    HW184262   8.103  12.138   7.245
94141SOL    HW284263   8.187  12.021   7.291
94142SOL     OW84264  13.409   1.030   2.227
94142SOL    HW184265  13.481   0.999   2.283
94142SOL    HW284266  13.447   1.101   2.176
94143SOL     OW84267  12.039   2.533  10.253
94143SOL    HW184268  12.016   2.498  10.167
94143SOL    HW284269  12.107   2.598  10.235
94144SOL     OW84270   1.119  14.183  11.826
94144SOL    HW184271   1.096  14.180  11.733
94144SOL    HW284272   1.055  14.126  11.868
94145SOL     OW84273  14.455   0.601  13.116
94145SOL    HW184274  14.407   0.519  13.103
94145SOL    HW284275  14.458   0.612  13.211
94146SOL     OW84276   9.820  14.822   0.487
94146SOL    HW184277   9.754   0.016   0.507
94146SOL    HW284278   9.828  14.824   0.392
94147SOL     OW84279   1.391  10.854  14.165
94147SOL    HW184280   1.320  10.889  14.111
94147SOL    HW284281   1.438  10.793  14.108
94148SOL     OW84282   5.673   5.005   1.770
94148SOL    HW184283   5.674   4.960   1.854
94148SOL    HW284284   5.685   4.936   1.705
94149SOL     OW84285   1.661  14.153  11.927
94149SOL    HW184286   1.694  14.242  11.913
94149SOL    HW284287   1.572  14.154  11.893
94150SOL     OW84288   2.892   8.708   6.449
94150SOL    HW184289   2.967   8.650   6.446
94150SOL    HW284290   2.893   8.755   6.366
94151SOL     OW84291  12.759  14.853   1.445
94151SOL    HW184292  12.724   0.035   1.515
94151SOL    HW284293  12.688  14.845   1.382
94152SOL     OW84294   0.432   9.537   8.242
94152SOL    HW184295   0.415   9.467   8.179
94152SOL    HW284296   0.364   9.527   8.309
94153SOL     OW84297  12.740  10.008   5.153
94153SOL    HW184298  12.673   9.951   5.115
94153SOL    HW284299  12.810   9.948   5.180
94154SOL     OW84300  13.004   4.262  14.822
94154SOL    HW184301  12.950   4.285   0.025
94154SOL    HW284302  13.032   4.172  14.839
94155SOL     OW84303  11.385  12.358  10.865
94155SOL    HW184304  11.309  12.388  10.814
94155SOL    HW284305  11.392  12.265  10.844
94156SOL     OW84306   8.446   5.382   7.449
94156SOL    HW184307   8.465   5.450   7.514
94156SOL    HW284308   8.388   5.425   7.386
94157SOL     OW84309   9.256   5.038   5.941
94157SOL    HW184310   9.235   4.952   5.978
94157SOL    HW284311   9.215   5.037   5.855
94158SOL     OW84312  12.066  12.474   3.048
94158SOL    HW184313  12.003  12.515   3.108
94158SOL    HW284314  12.135  12.441   3.106
94159SOL     OW84315  10.286   5.573  14.047
94159SOL    HW184316  10.263   5.590  13.955
94159SOL    HW284317  10.229   5.632  14.097
94160SOL     OW84318  11.683   7.555   8.213
94160SOL    HW184319  11.695   7.534   8.306
94160SOL    HW284320  11.594   7.524   8.193
94161SOL     OW84321   6.228   6.820  13.820
94161SOL    HW184322   6.322   6.807  13.831
94161SOL    HW284323   6.214   6.811  13.726
94162SOL     OW84324   4.286   8.653   2.980
94162SOL    HW184325   4.297   8.618   3.068
94162SOL    HW284326   4.335   8.593   2.924
94163SOL     OW84327   9.068  14.796  14.221
94163SOL    HW184328   9.087  14.710  14.183
94163SOL    HW284329   8.981  14.787  14.259
94164SOL     OW84330   3.891   7.113   1.447
94164SOL    HW184331   3.841   7.032   1.436
94164SOL    HW284332   3.882   7.136   1.539
94165SOL     OW84333  13.626   7.809   5.769
94165SOL    HW184334  13.672   7.870   5.826
94165SOL    HW284335  13.627   7.725   5.816
94166SOL     OW84336   4.169  10.727  12.897
94166SOL    HW184337   4.113  10.679  12.837
94166SOL    HW284338   4.258  10.710  12.867
94167SOL     OW84339   6.289   1.990  12.639
94167SOL    HW184340   6.314   2.073  12.597
94167SOL    HW284341   6.238   2.017  12.715
94168SOL     OW84342   9.063  11.307   3.235
94168SOL    HW184343   9.006  11.365   3.285
94168SOL    HW284344   9.022  11.221   3.241
94169SOL     OW84345   2.095   2.202  12.546
94169SOL    HW184346   2.056   2.220  12.460
94169SOL    HW284347   2.171   2.260  12.551
94170SOL     OW84348  10.730  12.632   1.271
94170SOL    HW184349  10.805  12.678   1.234
94170SOL    HW284350  10.714  12.676   1.355
94171SOL     OW84351   5.228   9.505   2.534
94171SOL    HW184352   5.167   9.504   2.608
94171SOL    HW284353   5.195   9.573   2.476
94172SOL     OW84354   6.959   8.428   1.615
94172SOL    HW184355   7.028   8.493   1.627
94172SOL    HW284356   6.897   8.446   1.686
94173SOL     OW84357  14.237   0.030   4.579
94173SOL    HW184358  14.330   0.048   4.567
94173SOL    HW284359  14.217  14.835   4.514
94174SOL     OW84360   3.101  13.263   9.022
94174SOL    HW184361   3.094  13.333   8.957
94174SOL    HW284362   3.059  13.187   8.980
94175SOL     OW84363   6.833   8.183   5.934
94175SOL    HW184364   6.780   8.134   5.998
94175SOL    HW284365   6.835   8.272   5.970
94176SOL     OW84366   3.279   7.741   8.900
94176SOL    HW184367   3.357   7.692   8.876
94176SOL    HW284368   3.295   7.770   8.990
94177SOL     OW84369   1.426  14.403  10.263
94177SOL    HW184370   1.358  14.471  10.257
94177SOL    HW284371   1.417  14.354  10.181
94178SOL     OW84372   8.245   3.077   3.490
94178SOL    HW184373   8.193   3.014   3.542
94178SOL    HW284374   8.323   3.093   3.543
94179SOL     OW84375   5.114   0.103  14.452
94179SOL    HW184376   5.191   0.045  14.451
94179SOL    HW284377   5.087   0.105  14.543
94180SOL     OW84378  13.606   3.613  13.113
94180SOL    HW184379  13.610   3.677  13.185
94180SOL    HW284380  13.518   3.624  13.077
94181SOL     OW84381   9.723   9.797   6.181
94181SOL    HW184382   9.689   9.760   6.262
94181SOL    HW284383   9.817   9.777   6.183
94182SOL     OW84384   5.797   1.995   3.318
94182SOL    HW184385   5.836   2.082   3.320
94182SOL    HW284386   5.871   1.935   3.310
94183SOL     OW84387   6.798   2.334   6.487
94183SOL    HW184388   6.754   2.310   6.406
94183SOL    HW284389   6.813   2.250   6.532
94184SOL     OW84390  10.120   6.759  11.015
94184SOL    HW184391  10.085   6.847  11.027
94184SOL    HW284392  10.046   6.701  11.031
94185SOL     OW84393  13.853   8.404   8.531
94185SOL    HW184394  13.919   8.429   8.595
94185SOL    HW284395  13.805   8.332   8.573
94186SOL     OW84396   9.591   2.346   2.454
94186SOL    HW184397   9.680   2.357   2.489
94186SOL    HW284398   9.568   2.256   2.474
94187SOL     OW84399   2.632  11.821  13.911
94187SOL    HW184400   2.580  11.753  13.954
94187SOL    HW284401   2.669  11.872  13.983
94188SOL     OW84402   5.858   4.241   6.930
94188SOL    HW184403   5.890   4.331   6.940
94188SOL    HW284404   5.857   4.227   6.835
94189SOL     OW84405   9.158  10.441   2.521
94189SOL    HW184406   9.181  10.530   2.548
94189SOL    HW284407   9.223  10.386   2.563
94190SOL     OW84408   8.632   6.051  13.917
94190SOL    HW184409   8.632   5.997  13.838
94190SOL    HW284410   8.626   5.989  13.989
94191SOL     OW84411  11.601   9.697   5.274
94191SOL    HW184412  11.554   9.671   5.353
94191SOL    HW284413  11.564   9.642   5.205
94192SOL     OW84414  10.463   9.368   0.880
94192SOL    HW184415  10.474   9.459   0.910
94192SOL    HW284416  10.463   9.317   0.961
94193SOL     OW84417   3.512   2.328   1.249
94193SOL    HW184418   3.594   2.315   1.297
94193SOL    HW284419   3.472   2.241   1.246
94194SOL     OW84420   5.920   7.479   7.877
94194SOL    HW184421   5.943   7.536   7.950
94194SOL    HW284422   5.979   7.506   7.806
94195SOL     OW84423  13.049  11.561   0.686
94195SOL    HW184424  12.979  11.527   0.631
94195SOL    HW284425  13.040  11.514   0.769
94196SOL     OW84426   3.227   3.024   9.899
94196SOL    HW184427   3.292   3.094   9.898
94196SOL    HW284428   3.162   3.051   9.834
94197SOL     OW84429   2.519   6.231  13.628
94197SOL    HW184430   2.541   6.323  13.615
94197SOL    HW284431   2.600   6.185  13.604
94198SOL     OW84432  10.951   5.899   0.359
94198SOL    HW184433  10.974   5.867   0.446
94198SOL    HW284434  11.036   5.913   0.316
94199SOL     OW84435   4.531   2.173  10.232
94199SOL    HW184436   4.468   2.216  10.174
94199SOL    HW284437   4.604   2.150  10.175
94200SOL     OW84438   5.577   9.124   0.046
94200SOL    HW184439   5.517   9.174  14.863
94200SOL    HW284440   5.664   9.160   0.026
94201SOL     OW84441   3.590  14.458   7.818
94201SOL    HW184442   3.555  14.421   7.737
94201SOL    HW284443   3.669  14.505   7.791
94202SOL     OW84444   8.434   9.103  11.509
94202SOL    HW184445   8.521   9.121  11.547
94202SOL    HW284446   8.428   9.008  11.508
94203SOL     OW84447   9.697  14.657   7.221
94203SOL    HW184448   9.747  14.596   7.166
94203SOL    HW284449   9.607  14.626   7.215
94204SOL     OW84450   7.483   5.634   0.974
94204SOL    HW184451   7.448   5.718   1.005
94204SOL    HW284452   7.502   5.585   1.054
94205SOL     OW84453  14.283  10.501   6.064
94205SOL    HW184454  14.239  10.582   6.037
94205SOL    HW284455  14.364  10.530   6.105
94206SOL     OW84456   1.092  13.579   1.997
94206SOL    HW184457   1.081  13.493   2.038
94206SOL    HW284458   1.091  13.641   2.070
94207SOL     OW84459   6.618   7.607   1.822
94207SOL    HW184460   6.598   7.527   1.775
94207SOL    HW284461   6.533   7.641   1.851
94208SOL     OW84462   9.835   3.943   3.045
94208SOL    HW184463   9.908   3.998   3.073
94208SOL    HW284464   9.816   3.973   2.956
94209SOL     OW84465   6.234  13.564   6.609
94209SOL    HW184466   6.305  13.504   6.586
94209SOL    HW284467   6.170  13.509   6.655
94210SOL     OW84468  13.189   4.556  11.395
94210SOL    HW184469  13.189   4.649  11.420
94210SOL    HW284470  13.105   4.523  11.425
94211SOL     OW84471   7.494   0.422   1.799
94211SOL    HW184472   7.586   0.445   1.791
94211SOL    HW284473   7.477   0.422   1.893
94212SOL     OW84474   8.566   2.858   0.707
94212SOL    HW184475   8.490   2.913   0.686
94212SOL    HW284476   8.553   2.831   0.798
94213SOL     OW84477   5.141   8.260   2.279
94213SOL    HW184478   5.179   8.233   2.362
94213SOL    HW284479   5.183   8.343   2.259
94214SOL     OW84480   6.437   2.012   8.344
94214SOL    HW184481   6.495   2.086   8.327
94214SOL    HW284482   6.358   2.031   8.293
94215SOL     OW84483   3.507  11.823   2.223
94215SOL    HW184484   3.524  11.744   2.276
94215SOL    HW284485   3.534  11.895   2.280
94216SOL     OW84486  13.078   6.575   0.258
94216SOL    HW184487  13.006   6.610   0.310
94216SOL    HW284488  13.052   6.485   0.238
94217SOL     OW84489   4.393  14.394   3.300
94217SOL    HW184490   4.369  14.321   3.244
94217SOL    HW284491   4.478  14.369   3.338
94218SOL     OW84492   9.733  11.660   3.356
94218SOL    HW184493   9.685  11.740   3.337
94218SOL    HW284494   9.667  11.600   3.390
94219SOL     OW84495   7.098   1.345   8.374
94219SOL    HW184496   7.091   1.320   8.466
94219SOL    HW284497   7.011   1.381   8.352
94220SOL     OW84498   4.679  10.427  11.701
94220SOL    HW184499   4.772  10.409  11.711
94220SOL    HW284500   4.647  10.358  11.642
94221SOL     OW84501   5.729   9.679   8.950
94221SOL    HW184502   5.809   9.634   8.979
94221SOL    HW284503   5.748   9.704   8.859
94222SOL     OW84504  11.594  13.980   6.973
94222SOL    HW184505  11.626  14.025   6.895
94222SOL    HW284506  11.528  14.040   7.010
94223SOL     OW84507   4.014  12.232   6.733
94223SOL    HW184508   3.989  12.323   6.718
94223SOL    HW284509   4.032  12.227   6.827
94224SOL     OW84510   2.225   3.752  14.779
94224SOL    HW184511   2.232   3.751   0.002
94224SOL    HW284512   2.175   3.831  14.760
94225SOL     OW84513   9.772  14.509   5.633
94225SOL    HW184514   9.796  14.506   5.725
94225SOL    HW284515   9.747  14.601   5.618
94226SOL     OW84516  13.533   8.877   6.955
94226SOL    HW184517  13.483   8.959   6.955
94226SOL    HW284518  13.474   8.813   6.914
94227SOL     OW84519   7.436   7.733   3.576
94227SOL    HW184520   7.373   7.675   3.533
94227SOL    HW284521   7.494   7.675   3.624
94228SOL     OW84522   4.595  12.038   7.770
94228SOL    HW184523   4.672  11.990   7.799
94228SOL    HW284524   4.628  12.124   7.743
94229SOL     OW84525   4.469  10.775  12.871
94229SOL    HW184526   4.537  10.775  12.939
94229SOL    HW284527   4.464  10.866  12.843
94230SOL     OW84528   5.350  14.833  10.149
94230SOL    HW184529   5.381  14.757  10.198
94230SOL    HW284530   5.421   0.024  10.159
94231SOL     OW84531   2.792  11.840   1.448
94231SOL    HW184532   2.729  11.817   1.517
94231SOL    HW284533   2.738  11.870   1.375
94232SOL     OW84534   6.363   3.192  13.764
94232SOL    HW184535   6.406   3.155  13.687
94232SOL    HW284536   6.415   3.270  13.785
94233SOL     OW84537   9.388   7.499  12.848
94233SOL    HW184538   9.462   7.489  12.788
94233SOL    HW284539   9.366   7.410  12.874
94234SOL     OW84540  14.353  12.961   0.421
94234SOL    HW184541  14.440  12.928   0.440
94234SOL    HW284542  14.323  12.910   0.346
94235SOL     OW84543   7.926   5.370  11.335
94235SOL    HW184544   7.923   5.313  11.258
94235SOL    HW284545   7.935   5.458  11.298
94236SOL     OW84546   2.467   5.295   8.899
94236SOL    HW184547   2.550   5.285   8.852
94236SOL    HW284548   2.493   5.313   8.989
94237SOL     OW84549  13.740   3.010  14.699
94237SOL    HW184550  13.665   3.047  14.652
94237SOL    HW284551  13.702   2.942  14.755
94238SOL     OW84552   1.824  12.838   3.534
94238SOL    HW184553   1.809  12.884   3.616
94238SOL    HW284554   1.833  12.746   3.558
94239SOL     OW84555  13.299  11.968  10.445
94239SOL    HW184556  13.216  12.011  10.427
94239SOL    HW284557  13.355  11.992  10.372
94240SOL     OW84558   2.259  11.528  14.535
94240SOL    HW184559   2.211  11.604  14.503
94240SOL    HW284560   2.344  11.563  14.561
94241SOL     OW84561   0.960   2.132   4.879
94241SOL    HW184562   0.998   2.102   4.961
94241SOL    HW284563   0.947   2.053   4.827
94242SOL     OW84564  13.048   3.847   4.123
94242SOL    HW184565  13.051   3.937   4.156
94242SOL    HW284566  12.957   3.819   4.137
94243SOL     OW84567   0.196   1.574  10.437
94243SOL    HW184568   0.194   1.503  10.501
94243SOL    HW284569   0.171   1.533  10.355
94244SOL     OW84570   3.572  11.999  14.004
94244SOL    HW184571   3.536  12.056  14.072
94244SOL    HW284572   3.527  11.916  14.016
94245SOL     OW84573   4.103   2.212  13.375
94245SOL    HW184574   4.169   2.280  13.361
94245SOL    HW284575   4.151   2.138  13.411
94246SOL     OW84576   9.125   2.937   8.109
94246SOL    HW184577   9.216   2.912   8.126
94246SOL    HW284578   9.099   2.884   8.035
94247SOL     OW84579   3.538   5.109  12.016
94247SOL    HW184580   3.469   5.061  11.971
94247SOL    HW284581   3.619   5.075  11.979
94248SOL     OW84582  13.145   7.602   2.136
94248SOL    HW184583  13.105   7.515   2.124
94248SOL    HW284584  13.131   7.622   2.229
94249SOL     OW84585   4.696   3.027   4.528
94249SOL    HW184586   4.646   3.041   4.447
94249SOL    HW284587   4.765   3.093   4.525
94250SOL     OW84588   1.686   9.929   4.325
94250SOL    HW184589   1.636   9.912   4.404
94250SOL    HW284590   1.731   9.847   4.306
94251SOL     OW84591   3.984   5.544   1.346
94251SOL    HW184592   3.909   5.583   1.300
94251SOL    HW284593   3.946   5.507   1.426
94252SOL     OW84594   5.874  11.574   5.897
94252SOL    HW184595   5.876  11.505   5.963
94252SOL    HW284596   5.836  11.531   5.820
94253SOL     OW84597   3.359   0.305   2.195
94253SOL    HW184598   3.277   0.311   2.244
94253SOL    HW284599   3.336   0.259   2.115
94254SOL     OW84600   2.788   5.589   4.619
94254SOL    HW184601   2.696   5.589   4.647
94254SOL    HW284602   2.837   5.584   4.700
94255SOL     OW84603   4.364  11.121  12.292
94255SOL    HW184604   4.355  11.029  12.317
94255SOL    HW284605   4.458  11.133  12.278
94256SOL     OW84606  11.523   8.470  13.595
94256SOL    HW184607  11.542   8.529  13.668
94256SOL    HW284608  11.515   8.384  13.636
94257SOL     OW84609   6.830   2.014   1.358
94257SOL    HW184610   6.843   2.074   1.431
94257SOL    HW284611   6.915   1.972   1.346
94258SOL     OW84612  11.658   1.267  13.657
94258SOL    HW184613  11.570   1.290  13.629
94258SOL    HW284614  11.713   1.286  13.581
94259SOL     OW84615   3.003   7.878   0.049
94259SOL    HW184616   2.991   7.796   0.000
94259SOL    HW284617   2.942   7.872   0.122
94260SOL     OW84618  12.149   7.777  11.365
94260SOL    HW184619  12.107   7.709  11.417
94260SOL    HW284620  12.199   7.828  11.429
94261SOL     OW84621  11.450  14.286   1.457
94261SOL    HW184622  11.412  14.369   1.429
94261SOL    HW284623  11.395  14.257   1.530
94262SOL     OW84624   0.688   2.915   7.614
94262SOL    HW184625   0.750   2.859   7.568
94262SOL    HW284626   0.626   2.854   7.655
94263SOL     OW84627   4.047  12.111   4.295
94263SOL    HW184628   4.045  12.203   4.268
94263SOL    HW284629   4.021  12.112   4.387
94264SOL     OW84630  14.396   2.422   7.085
94264SOL    HW184631  14.435   2.421   6.998
94264SOL    HW284632  14.344   2.502   7.087
94265SOL     OW84633   5.096   9.710   9.153
94265SOL    HW184634   5.165   9.654   9.188
94265SOL    HW284635   5.138   9.758   9.081
94266SOL     OW84636   0.450   8.335   9.680
94266SOL    HW184637   0.501   8.291   9.612
94266SOL    HW284638   0.359   8.311   9.661
94267SOL     OW84639  14.309   5.977   2.752
94267SOL    HW184640  14.284   5.895   2.796
94267SOL    HW284641  14.373   5.949   2.687
94268SOL     OW84642   1.876  12.959   4.206
94268SOL    HW184643   1.851  13.037   4.254
94268SOL    HW284644   1.928  12.991   4.132
94269SOL     OW84645   9.927  11.538   8.066
94269SOL    HW184646  10.014  11.505   8.044
94269SOL    HW284647   9.868  11.482   8.017
94270SOL     OW84648   3.523   3.738   6.798
94270SOL    HW184649   3.572   3.776   6.725
94270SOL    HW284650   3.536   3.643   6.789
94271SOL     OW84651   5.806   2.404   5.293
94271SOL    HW184652   5.769   2.485   5.258
94271SOL    HW284653   5.786   2.407   5.387
94272SOL     OW84654  12.633   7.610   9.966
94272SOL    HW184655  12.677   7.606   9.881
94272SOL    HW284656  12.705   7.602  10.030
94273SOL     OW84657  12.759  13.125  12.796
94273SOL    HW184658  12.828  13.189  12.809
94273SOL    HW284659  12.805  13.041  12.791
94274SOL     OW84660   0.779   2.343   5.157
94274SOL    HW184661   0.828   2.341   5.075
94274SOL    HW284662   0.738   2.429   5.159
94275SOL     OW84663   4.551   5.986  11.565
94275SOL    HW184664   4.594   5.945  11.491
94275SOL    HW284665   4.621   6.031  11.612
94276SOL     OW84666  11.270   7.903   2.794
94276SOL    HW184667  11.189   7.948   2.771
94276SOL    HW284668  11.255   7.870   2.883
94277SOL     OW84669   9.335   7.646  13.318
94277SOL    HW184670   9.246   7.670  13.294
94277SOL    HW284671   9.388   7.671  13.242
94278SOL     OW84672  10.520   9.697   8.252
94278SOL    HW184673  10.456   9.627   8.242
94278SOL    HW284674  10.546   9.718   8.163
94279SOL     OW84675   7.194   0.480   8.313
94279SOL    HW184676   7.186   0.474   8.408
94279SOL    HW284677   7.250   0.406   8.288
94280SOL     OW84678   6.342   2.126   5.178
94280SOL    HW184679   6.323   2.218   5.161
94280SOL    HW284680   6.438   2.121   5.177
94281SOL     OW84681   6.465   1.211   5.462
94281SOL    HW184682   6.503   1.183   5.545
94281SOL    HW284683   6.431   1.130   5.423
94282SOL     OW84684   8.024   7.333   1.754
94282SOL    HW184685   8.113   7.314   1.783
94282SOL    HW284686   8.036   7.391   1.678
94283SOL     OW84687   6.279  10.814   1.656
94283SOL    HW184688   6.203  10.808   1.713
94283SOL    HW284689   6.247  10.782   1.571
94284SOL     OW84690   5.662   4.387   5.174
94284SOL    HW184691   5.589   4.353   5.226
94284SOL    HW284692   5.699   4.457   5.228
94285SOL     OW84693   0.950  14.109   0.344
94285SOL    HW184694   0.992  14.195   0.343
94285SOL    HW284695   0.977  14.070   0.427
94286SOL     OW84696   2.714   6.410  10.403
94286SOL    HW184697   2.676   6.322  10.395
94286SOL    HW284698   2.687   6.455  10.323
94287SOL     OW84699  11.372   3.234  11.845
94287SOL    HW184700  11.376   3.140  11.861
94287SOL    HW284701  11.463   3.263  11.840
94288SOL     OW84702  10.262   7.149   7.155
94288SOL    HW184703  10.329   7.081   7.163
94288SOL    HW284704  10.183   7.110   7.194
94289SOL     OW84705   5.804   2.651   3.402
94289SOL    HW184706   5.893   2.623   3.424
94289SOL    HW284707   5.812   2.689   3.315
94290SOL     OW84708  10.795  12.696  12.983
94290SOL    HW184709  10.844  12.640  12.923
94290SOL    HW284710  10.703  12.676  12.964
94291SOL     OW84711   0.374   4.900   5.168
94291SOL    HW184712   0.378   4.979   5.114
94291SOL    HW284713   0.347   4.831   5.108
94292SOL     OW84714   4.419   4.058   8.277
94292SOL    HW184715   4.405   3.966   8.253
94292SOL    HW284716   4.388   4.108   8.202
94293SOL     OW84717   3.732   9.726   5.708
94293SOL    HW184718   3.761   9.802   5.757
94293SOL    HW284719   3.701   9.761   5.625
94294SOL     OW84720   4.629  14.427   0.559
94294SOL    HW184721   4.644  14.511   0.515
94294SOL    HW284722   4.539  14.403   0.536
94295SOL     OW84723   7.303   0.721  10.031
94295SOL    HW184724   7.227   0.672  10.062
94295SOL    HW284725   7.321   0.687   9.944
94296SOL     OW84726   7.484   5.394   5.350
94296SOL    HW184727   7.544   5.438   5.290
94296SOL    HW284728   7.504   5.301   5.340
94297SOL     OW84729   0.709   1.055   0.160
94297SOL    HW184730   0.721   1.091   0.247
94297SOL    HW284731   0.796   1.054   0.122
94298SOL     OW84732   8.616  12.530  11.838
94298SOL    HW184733   8.603  12.447  11.793
94298SOL    HW284734   8.608  12.508  11.931
94299SOL     OW84735   9.724   1.960  10.999
94299SOL    HW184736   9.747   1.934  10.910
94299SOL    HW284737   9.795   1.924  11.053
94300SOL     OW84738   7.770   0.184   4.198
94300SOL    HW184739   7.801   0.246   4.132
94300SOL    HW284740   7.848   0.133   4.220
94301SOL     OW84741  11.718  12.055   4.716
94301SOL    HW184742  11.707  12.016   4.802
94301SOL    HW284743  11.629  12.078   4.689
94302SOL     OW84744   3.176   4.668   6.665
94302SOL    HW184745   3.197   4.579   6.694
94302SOL    HW284746   3.220   4.725   6.728
94303SOL     OW84747  13.451   1.302   2.462
94303SOL    HW184748  13.366   1.294   2.505
94303SOL    HW284749  13.440   1.371   2.397
94304SOL     OW84750   2.557  10.238  12.064
94304SOL    HW184751   2.480  10.232  12.121
94304SOL    HW284752   2.521  10.255  11.977
94305SOL     OW84753   7.759  12.618  14.265
94305SOL    HW184754   7.814  12.592  14.340
94305SOL    HW284755   7.686  12.556  14.268
94306SOL     OW84756   3.921   0.409  14.398
94306SOL    HW184757   3.905   0.337  14.337
94306SOL    HW284758   4.002   0.385  14.443
94307SOL     OW84759   2.643  14.201   1.672
94307SOL    HW184760   2.723  14.233   1.714
94307SOL    HW284761   2.586  14.177   1.745
94308SOL     OW84762   6.065   0.657   7.286
94308SOL    HW184763   5.981   0.665   7.331
94308SOL    HW284764   6.071   0.566   7.260
94309SOL     OW84765  13.084   4.686   7.292
94309SOL    HW184766  13.008   4.733   7.256
94309SOL    HW284767  13.158   4.743   7.276
94310SOL     OW84768   3.494   3.107   2.659
94310SOL    HW184769   3.433   3.142   2.725
94310SOL    HW284770   3.446   3.034   2.619
94311SOL     OW84771   1.998   4.833   2.749
94311SOL    HW184772   1.938   4.897   2.789
94311SOL    HW284773   2.033   4.784   2.823
94312SOL     OW84774   9.306   9.714  10.720
94312SOL    HW184775   9.348   9.748  10.799
94312SOL    HW284776   9.277   9.626  10.745
94313SOL     OW84777   5.030   8.756   8.136
94313SOL    HW184778   5.035   8.767   8.041
94313SOL    HW284779   4.944   8.789   8.161
94314SOL     OW84780   7.562  12.471   2.039
94314SOL    HW184781   7.510  12.514   1.971
94314SOL    HW284782   7.624  12.416   1.991
94315SOL     OW84783   6.162   2.422   8.478
94315SOL    HW184784   6.120   2.496   8.520
94315SOL    HW284785   6.103   2.348   8.493
94316SOL     OW84786   6.321   1.387  12.429
94316SOL    HW184787   6.247   1.410  12.372
94316SOL    HW284788   6.320   1.291  12.432
94317SOL     OW84789   9.984  13.972   5.331
94317SOL    HW184790  10.003  14.063   5.351
94317SOL    HW284791  10.033  13.922   5.397
94318SOL     OW84792   7.151   8.571  10.517
94318SOL    HW184793   7.147   8.586  10.423
94318SOL    HW284794   7.061   8.588  10.547
94319SOL     OW84795   2.867   2.172  12.900
94319SOL    HW184796   2.883   2.254  12.946
94319SOL    HW284797   2.772   2.170  12.886
94320SOL     OW84798  13.834   3.305   5.571
94320SOL    HW184799  13.922   3.283   5.541
94320SOL    HW284800  13.804   3.226   5.616
94321SOL     OW84801   7.746   4.469  10.055
94321SOL    HW184802   7.668   4.464  10.000
94321SOL    HW284803   7.814   4.423  10.004
94322SOL     OW84804   9.322   0.145   0.849
94322SOL    HW184805   9.332   0.065   0.901
94322SOL    HW284806   9.227   0.161   0.848
94323SOL     OW84807   2.863   0.488   7.304
94323SOL    HW184808   2.954   0.517   7.316
94323SOL    HW284809   2.869   0.392   7.302
94324SOL     OW84810  10.087  11.381  13.488
94324SOL    HW184811  10.107  11.296  13.527
94324SOL    HW284812  10.045  11.430  13.559
94325SOL     OW84813  12.306   4.788  10.203
94325SOL    HW184814  12.340   4.876  10.217
94325SOL    HW284815  12.225   4.786  10.254
94326SOL     OW84816   7.733   2.670   7.410
94326SOL    HW184817   7.717   2.593   7.355
94326SOL    HW284818   7.679   2.655   7.488
94327SOL     OW84819   2.186   2.506   0.668
94327SOL    HW184820   2.227   2.593   0.671
94327SOL    HW284821   2.092   2.524   0.661
94328SOL     OW84822   5.009   7.227   9.162
94328SOL    HW184823   5.019   7.225   9.257
94328SOL    HW284824   5.093   7.196   9.128
94329SOL     OW84825   3.155  14.168  11.731
94329SOL    HW184826   3.066  14.183  11.701
94329SOL    HW284827   3.198  14.253  11.723
94330SOL     OW84828  14.094   5.479  12.083
94330SOL    HW184829  14.113   5.403  12.028
94330SOL    HW284830  14.037   5.446  12.152
94331SOL     OW84831   4.559   0.010  12.826
94331SOL    HW184832   4.482   0.023  12.770
94331SOL    HW284833   4.611   0.090  12.813
94332SOL     OW84834   0.252   4.263   0.254
94332SOL    HW184835   0.158   4.281   0.245
94332SOL    HW284836   0.281   4.243   0.165
94333SOL     OW84837   2.603   3.194  14.157
94333SOL    HW184838   2.530   3.151  14.113
94333SOL    HW284839   2.672   3.199  14.090
94334SOL     OW84840   1.329  14.698   4.885
94334SOL    HW184841   1.262  14.758   4.852
94334SOL    HW284842   1.298  14.675   4.973
94335SOL     OW84843   9.640   6.922   9.778
94335SOL    HW184844   9.551   6.902   9.805
94335SOL    HW284845   9.632   6.966   9.694
94336SOL     OW84846  14.247  11.704   7.367
94336SOL    HW184847  14.262  11.623   7.318
94336SOL    HW284848  14.153  11.705   7.384
94337SOL     OW84849  11.168   8.230   4.922
94337SOL    HW184850  11.121   8.181   4.989
94337SOL    HW284851  11.213   8.300   4.970
94338SOL     OW84852  10.869   3.886  14.076
94338SOL    HW184853  10.923   3.809  14.058
94338SOL    HW284854  10.913   3.930  14.148
94339SOL     OW84855   0.961   5.500  10.106
94339SOL    HW184856   0.924   5.552  10.034
94339SOL    HW284857   1.055   5.502  10.092
94340SOL     OW84858   3.942  13.433   7.676
94340SOL    HW184859   4.006  13.504   7.675
94340SOL    HW284860   3.857  13.477   7.682
94341SOL     OW84861   2.934  10.750  10.359
94341SOL    HW184862   2.935  10.655  10.348
94341SOL    HW284863   2.996  10.766  10.429
94342SOL     OW84864  10.406   5.807   9.749
94342SOL    HW184865  10.337   5.856   9.793
94342SOL    HW284866  10.375   5.716   9.750
94343SOL     OW84867   4.667  13.865  13.669
94343SOL    HW184868   4.665  13.880  13.574
94343SOL    HW284869   4.757  13.839  13.688
94344SOL     OW84870   5.075   7.391   0.841
94344SOL    HW184871   5.136   7.408   0.769
94344SOL    HW284872   5.029   7.311   0.814
94345SOL     OW84873  10.295   0.828   2.307
94345SOL    HW184874  10.331   0.741   2.323
94345SOL    HW284875  10.209   0.812   2.269
94346SOL     OW84876  12.044  11.695  14.219
94346SOL    HW184877  12.099  11.753  14.271
94346SOL    HW284878  11.959  11.737  14.218
94347SOL     OW84879   0.079  12.926  12.464
94347SOL    HW184880   0.018  12.918  12.390
94347SOL    HW284881   0.094  13.020  12.472
94348SOL     OW84882   6.098   1.822   1.803
94348SOL    HW184883   6.074   1.913   1.820
94348SOL    HW284884   6.096   1.814   1.707
94349SOL     OW84885   8.180  14.531   0.916
94349SOL    HW184886   8.224  14.613   0.941
94349SOL    HW284887   8.185  14.530   0.821
94350SOL     OW84888   4.915   7.071   6.285
94350SOL    HW184889   4.978   6.999   6.286
94350SOL    HW284890   4.963   7.144   6.248
94351SOL     OW84891   2.439   3.666   9.410
94351SOL    HW184892   2.378   3.624   9.471
94351SOL    HW284893   2.459   3.750   9.450
94352SOL     OW84894  10.006  13.886  11.109
94352SOL    HW184895  10.041  13.964  11.067
94352SOL    HW284896   9.947  13.847  11.045
94353SOL     OW84897   3.326   9.067   3.185
94353SOL    HW184898   3.252   9.091   3.241
94353SOL    HW284899   3.403   9.089   3.236
94354SOL     OW84900   4.278  13.493   7.521
94354SOL    HW184901   4.346  13.491   7.589
94354SOL    HW284902   4.280  13.405   7.483
94355SOL     OW84903   7.257   5.782  12.251
94355SOL    HW184904   7.302   5.798  12.333
94355SOL    HW284905   7.202   5.706  12.269
94356SOL     OW84906   7.445   6.832   1.612
94356SOL    HW184907   7.395   6.812   1.533
94356SOL    HW284908   7.531   6.796   1.596
94357SOL     OW84909   6.989   4.565   0.773
94357SOL    HW184910   7.028   4.515   0.844
94357SOL    HW284911   7.012   4.656   0.791
94358SOL     OW84912   6.266  14.791   7.118
94358SOL    HW184913   6.184  14.753   7.088
94358SOL    HW284914   6.252  14.810   7.210
94359SOL     OW84915   8.229   8.412   4.620
94359SOL    HW184916   8.198   8.419   4.530
94359SOL    HW284917   8.277   8.494   4.635
94360SOL     OW84918  14.492   9.227  12.962
94360SOL    HW184919  14.419   9.285  12.986
94360SOL    HW284920  14.500   9.237  12.867
94361SOL     OW84921   4.599   9.170   7.180
94361SOL    HW184922   4.653   9.123   7.116
94361SOL    HW284923   4.656   9.240   7.211
94362SOL     OW84924  11.593   0.222   0.617
94362SOL    HW184925  11.583   0.290   0.550
94362SOL    HW284926  11.666   0.169   0.585
94363SOL     OW84927   3.948   7.087  12.648
94363SOL    HW184928   4.044   7.082  12.656
94363SOL    HW284929   3.915   7.042  12.726
94364SOL     OW84930   7.455   7.379   4.706
94364SOL    HW184931   7.418   7.450   4.653
94364SOL    HW284932   7.384   7.353   4.765
94365SOL     OW84933   2.314   9.826   4.805
94365SOL    HW184934   2.290   9.902   4.858
94365SOL    HW284935   2.399   9.799   4.840
94366SOL     OW84936  10.310   8.737   9.395
94366SOL    HW184937  10.318   8.826   9.429
94366SOL    HW284938  10.284   8.748   9.304
94367SOL     OW84939   6.876   4.885  12.628
94367SOL    HW184940   6.804   4.931  12.585
94367SOL    HW284941   6.920   4.952  12.680
94368SOL     OW84942   8.900   0.205   9.706
94368SOL    HW184943   8.989   0.239   9.716
94368SOL    HW284944   8.850   0.280   9.673
94369SOL     OW84945   6.198  12.033   1.551
94369SOL    HW184946   6.130  12.101   1.557
94369SOL    HW284947   6.277  12.076   1.582
94370SOL     OW84948   1.098  12.259   2.846
94370SOL    HW184949   1.128  12.218   2.927
94370SOL    HW284950   1.162  12.329   2.830
94371SOL     OW84951  11.534   3.371   8.677
94371SOL    HW184952  11.542   3.325   8.760
94371SOL    HW284953  11.582   3.453   8.689
94372SOL     OW84954   9.779  11.628   7.700
94372SOL    HW184955   9.749  11.568   7.631
94372SOL    HW284956   9.784  11.573   7.779
94373SOL     OW84957   4.357   5.339  12.386
94373SOL    HW184958   4.364   5.405  12.317
94373SOL    HW284959   4.434   5.353  12.441
94374SOL     OW84960  10.673   2.090  14.728
94374SOL    HW184961  10.632   2.112  14.644
94374SOL    HW284962  10.661   2.168  14.782
94375SOL     OW84963   9.068   0.989  10.722
94375SOL    HW184964   9.099   0.967  10.810
94375SOL    HW284965   9.054   1.084  10.724
94376SOL     OW84966   0.609   8.485   2.099
94376SOL    HW184967   0.663   8.465   2.175
94376SOL    HW284968   0.539   8.419   2.101
94377SOL     OW84969  14.727   3.414   4.282
94377SOL    HW184970  14.648   3.444   4.237
94377SOL    HW284971  14.799   3.456   4.235
94378SOL     OW84972  12.864  12.633  10.727
94378SOL    HW184973  12.776  12.610  10.757
94378SOL    HW284974  12.883  12.569  10.659
94379SOL     OW84975   6.404   0.495  13.743
94379SOL    HW184976   6.466   0.568  13.735
94379SOL    HW284977   6.423   0.439  13.668
94380SOL     OW84978   0.385  10.313   1.311
94380SOL    HW184979   0.433  10.382   1.356
94380SOL    HW284980   0.425  10.231   1.342
94381SOL     OW84981   0.981   3.280  13.097
94381SOL    HW184982   0.909   3.221  13.121
94381SOL    HW284983   0.984   3.276  13.002
94382SOL     OW84984   8.296   7.612   5.189
94382SOL    HW184985   8.207   7.576   5.193
94382SOL    HW284986   8.338   7.583   5.270
94383SOL     OW84987   4.709   6.963   5.775
94383SOL    HW184988   4.638   7.008   5.729
94383SOL    HW284989   4.771   6.941   5.705
94384SOL     OW84990  13.699  13.706  13.108
94384SOL    HW184991  13.743  13.749  13.034
94384SOL    HW284992  13.743  13.622  13.117
94385SOL     OW84993  10.693   7.727   3.695
94385SOL    HW184994  10.672   7.801   3.638
94385SOL    HW284995  10.765   7.759   3.750
94386SOL     OW84996   2.754  10.200   8.243
94386SOL    HW184997   2.824  10.135   8.252
94386SOL    HW284998   2.709  10.198   8.327
94387SOL     OW84999   5.585   3.301   8.532
94387SOL    HW185000   5.655   3.243   8.503
94387SOL    HW285001   5.628   3.362   8.593
94388SOL     OW85002  12.292  13.806   5.436
94388SOL    HW185003  12.380  13.791   5.402
94388SOL    HW285004  12.283  13.901   5.441
94389SOL     OW85005   5.340   5.946  11.192
94389SOL    HW185006   5.350   5.903  11.107
94389SOL    HW285007   5.259   5.911  11.228
94390SOL     OW85008   0.140   6.255   5.144
94390SOL    HW185009   0.204   6.325   5.155
94390SOL    HW285010   0.094   6.250   5.228
94391SOL     OW85011  13.429   7.091  10.579
94391SOL    HW185012  13.378   7.072  10.500
94391SOL    HW285013  13.468   7.177  10.563
94392SOL     OW85014  10.599  10.897   7.462
94392SOL    HW185015  10.516  10.914   7.417
94392SOL    HW285016  10.625  10.810   7.433
94393SOL     OW85017  12.412   0.959  14.212
94393SOL    HW185018  12.359   0.995  14.141
94393SOL    HW285019  12.457   0.884  14.173
94394SOL     OW85020   6.754   1.681   1.554
94394SOL    HW185021   6.824   1.746   1.555
94394SOL    HW285022   6.756   1.644   1.466
94395SOL     OW85023   8.034   7.532   0.502
94395SOL    HW185024   8.060   7.561   0.414
94395SOL    HW285025   7.969   7.464   0.487
94396SOL     OW85026   6.132   4.686  11.586
94396SOL    HW185027   6.198   4.619  11.601
94396SOL    HW285028   6.150   4.753  11.651
94397SOL     OW85029  11.732   5.778  10.246
94397SOL    HW185030  11.793   5.745  10.313
94397SOL    HW285031  11.706   5.864  10.278
94398SOL     OW85032   7.344   1.913  12.199
94398SOL    HW185033   7.316   1.848  12.135
94398SOL    HW285034   7.419   1.955  12.159
94399SOL     OW85035  10.642   8.590   1.867
94399SOL    HW185036  10.711   8.648   1.900
94399SOL    HW285037  10.608   8.635   1.790
94400SOL     OW85038   8.775   5.290   9.417
94400SOL    HW185039   8.869   5.281   9.434
94400SOL    HW285040   8.733   5.268   9.500
94401SOL     OW85041   7.025   1.638  10.598
94401SOL    HW185042   7.100   1.645  10.539
94401SOL    HW285043   6.951   1.617  10.541
94402SOL     OW85044  13.273   2.091   5.248
94402SOL    HW185045  13.334   2.020   5.229
94402SOL    HW285046  13.298   2.121   5.335
94403SOL     OW85047   5.211  14.867   3.129
94403SOL    HW185048   5.152   0.049   3.179
94403SOL    HW285049   5.277   0.053   3.095
94404SOL     OW85050  10.480   9.168  13.183
94404SOL    HW185051  10.529   9.113  13.244
94404SOL    HW285052  10.454   9.244  13.235
94405SOL     OW85053  14.796   1.229   5.211
94405SOL    HW185054  14.761   1.146   5.244
94405SOL    HW285055   0.015   1.228   5.237
94406SOL     OW85056   1.079   1.213   4.606
94406SOL    HW185057   1.042   1.296   4.634
94406SOL    HW285058   1.136   1.235   4.533
94407SOL     OW85059  13.832   6.401   0.496
94407SOL    HW185060  13.806   6.473   0.554
94407SOL    HW285061  13.775   6.328   0.522
94408SOL     OW85062   7.601  13.090  14.251
94408SOL    HW185063   7.523  13.146  14.253
94408SOL    HW285064   7.665  13.140  14.201
94409SOL     OW85065   4.993   1.719   5.543
94409SOL    HW185066   4.916   1.776   5.536
94409SOL    HW285067   4.977   1.649   5.480
94410SOL     OW85068   4.292   2.625   4.894
94410SOL    HW185069   4.315   2.540   4.856
94410SOL    HW285070   4.313   2.688   4.826
94411SOL     OW85071  12.731   9.581   4.931
94411SOL    HW185072  12.648   9.537   4.915
94411SOL    HW285073  12.797   9.514   4.911
94412SOL     OW85074   7.433   3.127  14.718
94412SOL    HW185075   7.489   3.109  14.793
94412SOL    HW285076   7.359   3.176  14.755
94413SOL     OW85077  14.736   5.641  11.282
94413SOL    HW185078  14.724   5.555  11.242
94413SOL    HW285079  14.830   5.657  11.276
94414SOL     OW85080   1.056   7.812   7.215
94414SOL    HW185081   1.017   7.757   7.282
94414SOL    HW285082   1.139   7.842   7.252
94415SOL     OW85083  14.239   2.838  14.663
94415SOL    HW185084  14.254   2.759  14.612
94415SOL    HW285085  14.326   2.870  14.685
94416SOL     OW85086   3.523   3.926   5.438
94416SOL    HW185087   3.558   3.965   5.358
94416SOL    HW285088   3.508   4.000   5.496
94417SOL     OW85089   9.196   9.606   4.618
94417SOL    HW185090   9.222   9.666   4.688
94417SOL    HW285091   9.158   9.662   4.551
94418SOL     OW85092  10.578  14.866   9.483
94418SOL    HW185093  10.490  14.827   9.480
94418SOL    HW285094  10.635  14.798   9.447
94419SOL     OW85095  14.132   8.472  11.028
94419SOL    HW185096  14.095   8.507  10.947
94419SOL    HW285097  14.063   8.415  11.063
94420SOL     OW85098   1.950   5.139   8.683
94420SOL    HW185099   1.860   5.109   8.668
94420SOL    HW285100   1.967   5.200   8.611
94421SOL     OW85101  11.388   2.787   9.642
94421SOL    HW185102  11.321   2.732   9.602
94421SOL    HW285103  11.447   2.809   9.571
94422SOL     OW85104  13.681   8.587   4.201
94422SOL    HW185105  13.693   8.594   4.106
94422SOL    HW285106  13.700   8.675   4.234
94423SOL     OW85107   2.137   4.509   9.706
94423SOL    HW185108   2.075   4.447   9.744
94423SOL    HW285109   2.180   4.460   9.637
94424SOL     OW85110   5.513   8.400   7.892
94424SOL    HW185111   5.595   8.436   7.858
94424SOL    HW285112   5.529   8.390   7.985
94425SOL     OW85113  11.341  13.215   7.934
94425SOL    HW185114  11.396  13.155   7.885
94425SOL    HW285115  11.381  13.301   7.922
94426SOL     OW85116   6.039   7.312   4.679
94426SOL    HW185117   6.084   7.235   4.714
94426SOL    HW285118   5.987   7.345   4.752
94427SOL     OW85119   1.090   3.412  10.772
94427SOL    HW185120   0.996   3.434  10.768
94427SOL    HW285121   1.107   3.398  10.865
94428SOL     OW85122   8.733   7.547   2.522
94428SOL    HW185123   8.786   7.483   2.475
94428SOL    HW285124   8.683   7.495   2.585
94429SOL     OW85125   5.622   2.928  10.480
94429SOL    HW185126   5.591   2.863  10.416
94429SOL    HW285127   5.582   2.901  10.563
94430SOL     OW85128   1.650   4.638   7.138
94430SOL    HW185129   1.687   4.726   7.135
94430SOL    HW285130   1.613   4.624   7.051
94431SOL     OW85131   8.425   3.175   4.675
94431SOL    HW185132   8.455   3.175   4.766
94431SOL    HW285133   8.458   3.093   4.638
94432SOL     OW85134   8.680   6.609   8.494
94432SOL    HW185135   8.626   6.640   8.567
94432SOL    HW285136   8.702   6.519   8.519
94433SOL     OW85137   7.208  10.413  13.517
94433SOL    HW185138   7.188  10.402  13.610
94433SOL    HW285139   7.268  10.342  13.496
94434SOL     OW85140   6.768  13.409   0.744
94434SOL    HW185141   6.719  13.386   0.822
94434SOL    HW285142   6.707  13.394   0.671
94435SOL     OW85143  14.850   2.162  12.301
94435SOL    HW185144   0.008   2.153  12.391
94435SOL    HW285145  14.777   2.223  12.307
94436SOL     OW85146  10.405  13.821   8.728
94436SOL    HW185147  10.334  13.881   8.749
94436SOL    HW285148  10.435  13.788   8.813
94437SOL     OW85149  10.395   3.148  13.093
94437SOL    HW185150  10.478   3.101  13.094
94437SOL    HW285151  10.340   3.097  13.033
94438SOL     OW85152   5.631   0.072   0.508
94438SOL    HW185153   5.647   0.111   0.422
94438SOL    HW285154   5.654  14.853   0.497
94439SOL     OW85155   5.026  12.319  14.360
94439SOL    HW185156   5.083  12.315  14.283
94439SOL    HW285157   4.982  12.233  14.362
94440SOL     OW85158   4.206  11.041   6.539
94440SOL    HW185159   4.163  11.036   6.624
94440SOL    HW285160   4.134  11.042   6.476
94441SOL     OW85161   3.915   6.756   8.735
94441SOL    HW185162   3.927   6.759   8.640
94441SOL    HW285163   4.004   6.761   8.771
94442SOL     OW85164   9.880   9.729   5.699
94442SOL    HW185165   9.946   9.710   5.632
94442SOL    HW285166   9.796   9.716   5.654
94443SOL     OW85167  10.906   0.236  12.810
94443SOL    HW185168  10.947   0.227  12.724
94443SOL    HW285169  10.970   0.198  12.870
94444SOL     OW85170   7.745   7.570   2.662
94444SOL    HW185171   7.840   7.572   2.645
94444SOL    HW285172   7.738   7.581   2.757
94445SOL     OW85173   0.219   9.069  14.468
94445SOL    HW185174   0.211   8.982  14.430
94445SOL    HW285175   0.276   9.057  14.544
94446SOL     OW85176   1.759   3.492   1.389
94446SOL    HW185177   1.854   3.479   1.386
94446SOL    HW285178   1.736   3.527   1.303
94447SOL     OW85179  13.873  10.171   3.151
94447SOL    HW185180  13.925  10.098   3.185
94447SOL    HW285181  13.815  10.194   3.223
94448SOL     OW85182   7.734   7.243   0.701
94448SOL    HW185183   7.794   7.297   0.649
94448SOL    HW285184   7.730   7.160   0.655
94449SOL     OW85185   4.228  10.013   8.002
94449SOL    HW185186   4.300  10.070   8.027
94449SOL    HW285187   4.170  10.012   8.078
94450SOL     OW85188   9.700   9.937   5.447
94450SOL    HW185189   9.744  10.013   5.409
94450SOL    HW285190   9.731   9.933   5.537
94451SOL     OW85191  13.064  13.673   0.096
94451SOL    HW185192  13.069  13.719   0.180
94451SOL    HW285193  13.131  13.715   0.042
94452SOL     OW85194   5.498  14.173   2.610
94452SOL    HW185195   5.474  14.265   2.595
94452SOL    HW285196   5.434  14.142   2.674
94453SOL     OW85197  14.068   1.780  13.686
94453SOL    HW185198  14.003   1.800  13.753
94453SOL    HW285199  14.020   1.731  13.620
94454SOL     OW85200   4.056   6.104   6.172
94454SOL    HW185201   4.082   6.012   6.175
94454SOL    HW285202   4.090   6.142   6.254
94455SOL     OW85203  13.063   0.888   1.780
94455SOL    HW185204  13.081   0.831   1.855
94455SOL    HW285205  13.083   0.834   1.703
94456SOL     OW85206   0.222   2.685  10.780
94456SOL    HW185207   0.207   2.590  10.789
94456SOL    HW285208   0.135   2.720  10.759
94457SOL     OW85209   6.121  10.280  14.704
94457SOL    HW185210   6.199  10.319  14.743
94457SOL    HW285211   6.118  10.316  14.615
94458SOL     OW85212  14.259   2.544   8.718
94458SOL    HW185213  14.193   2.543   8.649
94458SOL    HW285214  14.211   2.522   8.798
94459SOL     OW85215   1.914   6.303   1.560
94459SOL    HW185216   1.929   6.221   1.512
94459SOL    HW285217   1.998   6.322   1.601
94460SOL     OW85218   5.659  13.178   1.132
94460SOL    HW185219   5.658  13.093   1.176
94460SOL    HW285220   5.738  13.221   1.166
94461SOL     OW85221   6.826  12.470   7.530
94461SOL    HW185222   6.834  12.563   7.509
94461SOL    HW285223   6.898  12.453   7.591
94462SOL     OW85224  10.586   3.437   6.234
94462SOL    HW185225  10.592   3.409   6.143
94462SOL    HW285226  10.553   3.526   6.230
94463SOL     OW85227   8.248  10.266   7.260
94463SOL    HW185228   8.238  10.318   7.180
94463SOL    HW285229   8.252  10.175   7.230
94464SOL     OW85230   2.710  14.634  12.779
94464SOL    HW185231   2.780  14.698  12.787
94464SOL    HW285232   2.630  14.683  12.798
94465SOL     OW85233   3.912   0.625   4.087
94465SOL    HW185234   3.856   0.678   4.143
94465SOL    HW285235   3.954   0.687   4.028
94466SOL     OW85236  14.523   7.249   7.930
94466SOL    HW185237  14.489   7.336   7.909
94466SOL    HW285238  14.446   7.193   7.935
94467SOL     OW85239  11.583   7.113   5.645
94467SOL    HW185240  11.615   7.178   5.583
94467SOL    HW285241  11.612   7.029   5.609
94468SOL     OW85242   1.913   4.459   3.510
94468SOL    HW185243   1.871   4.477   3.426
94468SOL    HW285244   1.903   4.541   3.560
94469SOL     OW85245   1.900   9.199   5.184
94469SOL    HW185246   1.869   9.130   5.243
94469SOL    HW285247   1.853   9.184   5.102
94470SOL     OW85248   0.762  14.213  11.380
94470SOL    HW185249   0.805  14.281  11.327
94470SOL    HW285250   0.679  14.252  11.406
94471SOL     OW85251   5.338  11.348  12.622
94471SOL    HW185252   5.342  11.349  12.718
94471SOL    HW285253   5.416  11.299  12.595
94472SOL     OW85254   6.438   0.301   8.049
94472SOL    HW185255   6.348   0.298   8.080
94472SOL    HW285256   6.436   0.361   7.974
94473SOL     OW85257   5.416  12.312   3.989
94473SOL    HW185258   5.330  12.353   3.986
94473SOL    HW285259   5.398  12.218   3.988
94474SOL     OW85260  13.144   6.924  10.493
94474SOL    HW185261  13.210   6.858  10.474
94474SOL    HW285262  13.122   6.961  10.407
94475SOL     OW85263  10.954   1.768  12.467
94475SOL    HW185264  10.922   1.709  12.399
94475SOL    HW285265  10.975   1.849  12.420
94476SOL     OW85266  11.452   3.988   1.279
94476SOL    HW185267  11.431   3.987   1.372
94476SOL    HW285268  11.447   3.896   1.252
94477SOL     OW85269  14.767   2.998   5.916
94477SOL    HW185270  14.712   2.975   5.991
94477SOL    HW285271  14.760   2.922   5.858
94478SOL     OW85272   6.095   7.965   2.486
94478SOL    HW185273   6.068   8.038   2.541
94478SOL    HW285274   6.088   7.888   2.543
94479SOL     OW85275   2.642   4.182   3.764
94479SOL    HW185276   2.731   4.184   3.800
94479SOL    HW285277   2.620   4.089   3.761
94480SOL     OW85278   6.102  12.870  13.173
94480SOL    HW185279   6.091  12.963  13.191
94480SOL    HW285280   6.041  12.826  13.232
94481SOL     OW85281  11.596   0.525   8.276
94481SOL    HW185282  11.581   0.612   8.237
94481SOL    HW285283  11.575   0.537   8.369
94482SOL     OW85284   7.542   7.378   1.065
94482SOL    HW185285   7.479   7.438   1.105
94482SOL    HW285286   7.555   7.413   0.977
94483SOL     OW85287  11.216  10.276  12.153
94483SOL    HW185288  11.135  10.255  12.107
94483SOL    HW285289  11.219  10.372  12.155
94484SOL     OW85290  13.473  14.337   9.014
94484SOL    HW185291  13.561  14.369   9.034
94484SOL    HW285292  13.445  14.292   9.094
94485SOL     OW85293   0.590   8.533   6.760
94485SOL    HW185294   0.604   8.457   6.817
94485SOL    HW285295   0.499   8.556   6.773
94486SOL     OW85296   0.412   4.485  13.426
94486SOL    HW185297   0.396   4.393  13.404
94486SOL    HW285298   0.346   4.506  13.491
94487SOL     OW85299   2.623   7.327   1.390
94487SOL    HW185300   2.629   7.417   1.421
94487SOL    HW285301   2.637   7.333   1.296
94488SOL     OW85302   7.786  12.552   8.907
94488SOL    HW185303   7.702  12.506   8.912
94488SOL    HW285304   7.852  12.483   8.910
94489SOL     OW85305   4.605  10.216   9.792
94489SOL    HW185306   4.682  10.165   9.767
94489SOL    HW285307   4.541  10.198   9.724
94490SOL     OW85308   1.323   3.578   0.413
94490SOL    HW185309   1.271   3.532   0.478
94490SOL    HW285310   1.260   3.605   0.346
94491SOL     OW85311  13.860   2.536  14.853
94491SOL    HW185312  13.785   2.575   0.026
94491SOL    HW285313  13.907   2.611  14.817
94492SOL     OW85314   2.268   6.896  12.420
94492SOL    HW185315   2.315   6.820  12.387
94492SOL    HW285316   2.178   6.883  12.393
94493SOL     OW85317   8.614   1.601  14.145
94493SOL    HW185318   8.521   1.620  14.143
94493SOL    HW285319   8.647   1.650  14.221
94494SOL     OW85320   0.363  11.052  13.961
94494SOL    HW185321   0.401  11.086  14.042
94494SOL    HW285322   0.426  11.074  13.893
94495SOL     OW85323  14.676  13.631   2.660
94495SOL    HW185324  14.609  13.700   2.659
94495SOL    HW285325  14.691  13.611   2.568
94496SOL     OW85326  14.865   4.182   4.027
94496SOL    HW185327   0.005   4.123   3.954
94496SOL    HW285328  14.773   4.171   4.052
94497SOL     OW85329   2.695   7.026   7.270
94497SOL    HW185330   2.768   7.029   7.332
94497SOL    HW285331   2.619   7.052   7.321
94498SOL     OW85332   5.396   6.740   8.268
94498SOL    HW185333   5.337   6.813   8.250
94498SOL    HW285334   5.445   6.767   8.345
94499SOL     OW85335   9.879  11.011   1.092
94499SOL    HW185336   9.856  11.096   1.130
94499SOL    HW285337   9.864  10.948   1.163
94500SOL     OW85338   1.593  14.602   8.003
94500SOL    HW185339   1.607  14.640   7.917
94500SOL    HW285340   1.505  14.566   8.000
94501SOL     OW85341  11.653   1.201  12.563
94501SOL    HW185342  11.561   1.177  12.560
94501SOL    HW285343  11.679   1.188  12.654
94502SOL     OW85344   0.745  13.097   2.953
94502SOL    HW185345   0.683  13.111   3.024
94502SOL    HW285346   0.720  13.012   2.916
94503SOL     OW85347   0.738  12.330   9.780
94503SOL    HW185348   0.653  12.310   9.743
94503SOL    HW285349   0.773  12.245   9.808
94504SOL     OW85350  14.793   2.984   9.077
94504SOL    HW185351  14.749   2.901   9.098
94504SOL    HW285352  14.761   3.045   9.143
94505SOL     OW85353   4.709   3.829   4.233
94505SOL    HW185354   4.693   3.880   4.154
94505SOL    HW285355   4.688   3.888   4.305
94506SOL     OW85356   4.593   3.421   3.731
94506SOL    HW185357   4.539   3.485   3.684
94506SOL    HW285358   4.589   3.449   3.823
94507SOL     OW85359   9.217   6.961   8.345
94507SOL    HW185360   9.286   6.939   8.408
94507SOL    HW285361   9.250   7.038   8.299
94508SOL     OW85362  13.712   6.383   4.688
94508SOL    HW185363  13.712   6.378   4.784
94508SOL    HW285364  13.789   6.436   4.668
94509SOL     OW85365   9.578   2.428   4.411
94509SOL    HW185366   9.616   2.395   4.329
94509SOL    HW285367   9.653   2.435   4.470
94510SOL     OW85368  11.854   9.746   7.949
94510SOL    HW185369  11.899   9.733   7.866
94510SOL    HW285370  11.826   9.837   7.947
94511SOL     OW85371   6.121   5.171   6.062
94511SOL    HW185372   6.161   5.095   6.104
94511SOL    HW285373   6.194   5.230   6.043
94512SOL     OW85374   4.420   0.636  10.052
94512SOL    HW185375   4.355   0.657   9.985
94512SOL    HW285376   4.434   0.542  10.044
94513SOL     OW85377  13.833   9.380   8.282
94513SOL    HW185378  13.865   9.438   8.212
94513SOL    HW285379  13.761   9.332   8.242
94514SOL     OW85380  13.435  13.980   6.822
94514SOL    HW185381  13.398  13.943   6.742
94514SOL    HW285382  13.438  14.074   6.807
94515SOL     OW85383   4.774   0.122   4.633
94515SOL    HW185384   4.753   0.079   4.550
94515SOL    HW285385   4.866   0.146   4.625
94516SOL     OW85386  13.079   6.431   1.390
94516SOL    HW185387  12.987   6.458   1.387
94516SOL    HW285388  13.119   6.475   1.315
94517SOL     OW85389   8.563   9.682   6.117
94517SOL    HW185390   8.636   9.666   6.058
94517SOL    HW285391   8.556   9.602   6.169
94518SOL     OW85392  10.969  10.309  13.110
94518SOL    HW185393  10.891  10.360  13.091
94518SOL    HW285394  10.941  10.247  13.177
94519SOL     OW85395   6.147  14.127  12.166
94519SOL    HW185396   6.056  14.153  12.153
94519SOL    HW285397   6.162  14.060  12.099
94520SOL     OW85398   0.818   0.757   1.092
94520SOL    HW185399   0.790   0.691   1.028
94520SOL    HW285400   0.903   0.787   1.060
94521SOL     OW85401   8.617   7.370   6.553
94521SOL    HW185402   8.697   7.317   6.549
94521SOL    HW285403   8.636   7.440   6.615
94522SOL     OW85404   5.860  11.662   3.973
94522SOL    HW185405   5.892  11.577   4.006
94522SOL    HW285406   5.909  11.675   3.892
94523SOL     OW85407  12.774  11.454   2.248
94523SOL    HW185408  12.795  11.532   2.300
94523SOL    HW285409  12.776  11.382   2.311
94524SOL     OW85410   8.698   1.873  14.223
94524SOL    HW185411   8.679   1.967  14.220
94524SOL    HW285412   8.732   1.853  14.136
94525SOL     OW85413  12.457  10.715   8.508
94525SOL    HW185414  12.363  10.695   8.505
94525SOL    HW285415  12.497  10.646   8.455
94526SOL     OW85416   1.694   1.339  11.947
94526SOL    HW185417   1.730   1.315  11.861
94526SOL    HW285418   1.722   1.430  11.959
94527SOL     OW85419  14.370   9.332   4.462
94527SOL    HW185420  14.327   9.253   4.430
94527SOL    HW285421  14.399   9.378   4.383
94528SOL     OW85422   7.435   4.246  13.746
94528SOL    HW185423   7.428   4.222  13.654
94528SOL    HW285424   7.353   4.214  13.785
94529SOL     OW85425   4.715   8.778  13.682
94529SOL    HW185426   4.783   8.841  13.659
94529SOL    HW285427   4.727   8.706  13.620
94530SOL     OW85428   7.874  11.101   4.323
94530SOL    HW185429   7.882  11.159   4.398
94530SOL    HW285430   7.881  11.013   4.359
94531SOL     OW85431  14.401   1.943  12.528
94531SOL    HW185432  14.376   2.017  12.583
94531SOL    HW285433  14.387   1.974  12.438
94532SOL     OW85434  12.418   3.392   3.045
94532SOL    HW185435  12.467   3.404   2.963
94532SOL    HW285436  12.458   3.453   3.106
94533SOL     OW85437   6.808   6.060  10.428
94533SOL    HW185438   6.822   6.122  10.500
94533SOL    HW285439   6.813   5.974  10.470
94534SOL     OW85440  14.625  12.316   7.364
94534SOL    HW185441  14.702  12.313   7.420
94534SOL    HW285442  14.551  12.311   7.425
94535SOL     OW85443   9.273   7.192   9.770
94535SOL    HW185444   9.179   7.199   9.789
94535SOL    HW285445   9.306   7.282   9.780
94536SOL     OW85446   7.953   5.745   5.979
94536SOL    HW185447   7.893   5.724   6.051
94536SOL    HW285448   8.040   5.734   6.016
94537SOL     OW85449   0.654   2.464   8.626
94537SOL    HW185450   0.622   2.382   8.587
94537SOL    HW285451   0.579   2.496   8.676
94538SOL     OW85452  12.909  12.458  12.186
94538SOL    HW185453  12.886  12.449  12.278
94538SOL    HW285454  12.824  12.462  12.140
94539SOL     OW85455   4.233  14.001   9.957
94539SOL    HW185456   4.191  14.085   9.938
94539SOL    HW285457   4.169  13.935   9.932
94540SOL     OW85458   1.638   8.651  14.016
94540SOL    HW185459   1.592   8.638  13.933
94540SOL    HW285460   1.669   8.741  14.012
94541SOL     OW85461   9.471   5.834   4.526
94541SOL    HW185462   9.450   5.743   4.547
94541SOL    HW285463   9.403   5.860   4.463
94542SOL     OW85464  14.691   4.506   0.140
94542SOL    HW185465  14.626   4.542   0.200
94542SOL    HW285466  14.711   4.578   0.079
94543SOL     OW85467   6.191  10.349   4.620
94543SOL    HW185468   6.200  10.430   4.570
94543SOL    HW285469   6.262  10.293   4.589
94544SOL     OW85470  10.962   9.189  14.018
94544SOL    HW185471  10.955   9.103  13.976
94544SOL    HW285472  10.877   9.201  14.062
94545SOL     OW85473   7.498  10.697  11.438
94545SOL    HW185474   7.554  10.771  11.462
94545SOL    HW285475   7.548  10.651  11.370
94546SOL     OW85476  10.656   8.399  13.177
94546SOL    HW185477  10.624   8.425  13.264
94546SOL    HW285478  10.716   8.326  13.194
94547SOL     OW85479   4.370  11.175   5.012
94547SOL    HW185480   4.281  11.153   5.040
94547SOL    HW285481   4.413  11.205   5.092
94548SOL     OW85482  12.421   7.366   0.834
94548SOL    HW185483  12.457   7.289   0.790
94548SOL    HW285484  12.471   7.373   0.915
94549SOL     OW85485   6.899   4.453   4.844
94549SOL    HW185486   6.848   4.515   4.792
94549SOL    HW285487   6.886   4.369   4.801
94550SOL     OW85488  10.037   5.850   1.394
94550SOL    HW185489  10.084   5.903   1.458
94550SOL    HW285490   9.990   5.913   1.339
94551SOL     OW85491   4.733   5.921   2.618
94551SOL    HW185492   4.811   5.869   2.603
94551SOL    HW285493   4.683   5.872   2.683
94552SOL     OW85494   4.860  13.255   8.632
94552SOL    HW185495   4.941  13.264   8.681
94552SOL    HW285496   4.798  13.313   8.678
94553SOL     OW85497   7.748   2.780  11.091
94553SOL    HW185498   7.690   2.735  11.154
94553SOL    HW285499   7.817   2.818  11.146
94554SOL     OW85500  13.550   0.651   4.281
94554SOL    HW185501  13.491   0.576   4.280
94554SOL    HW285502  13.576   0.660   4.373
94555SOL     OW85503  11.422   6.254   6.531
94555SOL    HW185504  11.445   6.275   6.621
94555SOL    HW285505  11.507   6.248   6.486
94556SOL     OW85506   2.854   0.043   2.154
94556SOL    HW185507   2.835   0.041   2.061
94556SOL    HW285508   2.811   0.122   2.186
94557SOL     OW85509  12.276   5.775   4.298
94557SOL    HW185510  12.186   5.809   4.299
94557SOL    HW285511  12.297   5.768   4.205
94558SOL     OW85512   3.569  13.567   6.718
94558SOL    HW185513   3.499  13.563   6.783
94558SOL    HW285514   3.648  13.587   6.769
94559SOL     OW85515  14.082  10.344   1.285
94559SOL    HW185516  14.098  10.253   1.311
94559SOL    HW285517  14.113  10.396   1.359
94560SOL     OW85518   4.616   1.321   0.965
94560SOL    HW185519   4.694   1.294   1.013
94560SOL    HW285520   4.611   1.260   0.891
94561SOL     OW85521   5.058   7.913   8.540
94561SOL    HW185522   5.026   7.842   8.485
94561SOL    HW285523   5.134   7.877   8.585
94562SOL     OW85524  10.985  14.418   7.569
94562SOL    HW185525  10.934  14.495   7.592
94562SOL    HW285526  11.021  14.388   7.653
94563SOL     OW85527   0.475   3.224   1.309
94563SOL    HW185528   0.413   3.270   1.253
94563SOL    HW285529   0.553   3.280   1.309
94564SOL     OW85530  12.511  14.555  14.385
94564SOL    HW185531  12.446  14.600  14.440
94564SOL    HW285532  12.587  14.614  14.385
94565SOL     OW85533   2.568   1.983  11.328
94565SOL    HW185534   2.640   1.985  11.265
94565SOL    HW285535   2.490   1.968  11.275
94566SOL     OW85536  11.200  11.482   7.207
94566SOL    HW185537  11.135  11.457   7.272
94566SOL    HW285538  11.268  11.528   7.258
94567SOL     OW85539  13.263   6.451  12.458
94567SOL    HW185540  13.172   6.445  12.431
94567SOL    HW285541  13.309   6.387  12.404
94568SOL     OW85542  12.611   3.512  14.082
94568SOL    HW185543  12.521   3.486  14.102
94568SOL    HW285544  12.605   3.558  13.998
94569SOL     OW85545   6.892  14.450   8.129
94569SOL    HW185546   6.885  14.356   8.110
94569SOL    HW285547   6.823  14.467   8.193
94570SOL     OW85548   6.190   5.928  14.701
94570SOL    HW185549   6.225   5.960  14.618
94570SOL    HW285550   6.126   5.994  14.727
94571SOL     OW85551  10.922   6.085  10.156
94571SOL    HW185552  10.901   6.150  10.223
94571SOL    HW285553  10.959   6.012  10.206
94572SOL     OW85554  11.557   2.437   5.224
94572SOL    HW185555  11.483   2.439   5.284
94572SOL    HW285556  11.523   2.473   5.142
94573SOL     OW85557  13.735  12.414   5.971
94573SOL    HW185558  13.749  12.384   5.881
94573SOL    HW285559  13.665  12.479   5.965
94574SOL     OW85560   5.852  12.420   3.970
94574SOL    HW185561   5.878  12.471   4.047
94574SOL    HW285562   5.882  12.331   3.989
94575SOL     OW85563   9.234  10.193  12.597
94575SOL    HW185564   9.317  10.241  12.588
94575SOL    HW285565   9.180  10.225  12.525
94576SOL     OW85566   4.791   9.871   8.761
94576SOL    HW185567   4.772   9.856   8.853
94576SOL    HW285568   4.707   9.899   8.723
94577SOL     OW85569   7.550  12.690  13.884
94577SOL    HW185570   7.629  12.652  13.921
94577SOL    HW285571   7.479  12.633  13.914
94578SOL     OW85572   0.058   0.287  10.350
94578SOL    HW185573   0.095   0.349  10.413
94578SOL    HW285574   0.133   0.240  10.316
94579SOL     OW85575   1.013  12.232  13.612
94579SOL    HW185576   1.090  12.251  13.559
94579SOL    HW285577   0.952  12.303  13.591
94580SOL     OW85578  11.781   2.509   5.376
94580SOL    HW185579  11.782   2.437   5.439
94580SOL    HW285580  11.724   2.478   5.306
94581SOL     OW85581   4.572  14.324   4.769
94581SOL    HW185582   4.525  14.298   4.848
94581SOL    HW285583   4.510  14.307   4.698
94582SOL     OW85584   1.146  14.223  12.339
94582SOL    HW185585   1.092  14.302  12.337
94582SOL    HW285586   1.168  14.207  12.247
94583SOL     OW85587   1.288   7.180   8.240
94583SOL    HW185588   1.362   7.214   8.289
94583SOL    HW285589   1.326   7.117   8.178
94584SOL     OW85590   4.347   3.978   9.851
94584SOL    HW185591   4.425   3.957   9.902
94584SOL    HW285592   4.361   4.068   9.821
94585SOL     OW85593  10.339  10.597   8.373
94585SOL    HW185594  10.255  10.567   8.339
94585SOL    HW285595  10.335  10.693   8.366
94586SOL     OW85596   0.535   9.253  12.475
94586SOL    HW185597   0.568   9.177  12.524
94586SOL    HW285598   0.614   9.295  12.441
94587SOL     OW85599   1.158   0.612  14.223
94587SOL    HW185600   1.236   0.663  14.247
94587SOL    HW285601   1.085   0.658  14.264
94588SOL     OW85602   0.415   1.775  12.896
94588SOL    HW185603   0.388   1.766  12.987
94588SOL    HW285604   0.335   1.797  12.849
94589SOL     OW85605   9.825  13.374  12.435
94589SOL    HW185606   9.865  13.451  12.395
94589SOL    HW285607   9.892  13.305  12.426
94590SOL     OW85608   7.261  11.353   4.647
94590SOL    HW185609   7.196  11.337   4.716
94590SOL    HW285610   7.211  11.396   4.577
94591SOL     OW85611   5.338  12.988  14.591
94591SOL    HW185612   5.287  12.938  14.655
94591SOL    HW285613   5.330  12.938  14.510
94592SOL     OW85614   3.757   1.128   4.848
94592SOL    HW185615   3.826   1.086   4.900
94592SOL    HW285616   3.748   1.073   4.771
94593SOL     OW85617  12.931   1.333   4.480
94593SOL    HW185618  13.006   1.368   4.432
94593SOL    HW285619  12.898   1.263   4.424
94594SOL     OW85620   2.560   5.409   2.156
94594SOL    HW185621   2.557   5.390   2.250
94594SOL    HW285622   2.609   5.336   2.118
94595SOL     OW85623   3.465   1.445  14.063
94595SOL    HW185624   3.499   1.360  14.035
94595SOL    HW285625   3.388   1.459  14.007
94596SOL     OW85626  11.306  11.639  10.652
94596SOL    HW185627  11.313  11.633  10.747
94596SOL    HW285628  11.285  11.550  10.624
94597SOL     OW85629   8.579   1.608   6.671
94597SOL    HW185630   8.594   1.620   6.577
94597SOL    HW285631   8.505   1.547   6.676
94598SOL     OW85632  11.775   8.315   2.032
94598SOL    HW185633  11.831   8.366   2.091
94598SOL    HW285634  11.688   8.323   2.070
94599SOL     OW85635   7.410   0.912  14.149
94599SOL    HW185636   7.379   0.990  14.196
94599SOL    HW285637   7.341   0.847  14.164
94600SOL     OW85638   4.500   4.912   1.157
94600SOL    HW185639   4.469   4.935   1.069
94600SOL    HW285640   4.432   4.945   1.216
94601SOL     OW85641   8.064  11.022   9.349
94601SOL    HW185642   8.073  11.094   9.411
94601SOL    HW285643   8.138  11.033   9.289
94602SOL     OW85644   7.429   5.539   8.714
94602SOL    HW185645   7.361   5.580   8.767
94602SOL    HW285646   7.427   5.447   8.740
94603SOL     OW85647  10.612   4.392   6.402
94603SOL    HW185648  10.676   4.453   6.367
94603SOL    HW285649  10.618   4.314   6.346
94604SOL     OW85650  14.221   3.278   8.197
94604SOL    HW185651  14.261   3.296   8.111
94604SOL    HW285652  14.144   3.336   8.200
94605SOL     OW85653   7.913   2.397   6.742
94605SOL    HW185654   7.942   2.348   6.819
94605SOL    HW285655   7.850   2.338   6.699
94606SOL     OW85656   0.752  14.570   7.928
94606SOL    HW185657   0.757  14.517   8.008
94606SOL    HW285658   0.777  14.658   7.955
94607SOL     OW85659   8.332   1.306   5.790
94607SOL    HW185660   8.270   1.379   5.788
94607SOL    HW285661   8.375   1.313   5.875
94608SOL     OW85662   2.496   3.798   8.488
94608SOL    HW185663   2.481   3.882   8.531
94608SOL    HW285664   2.527   3.740   8.557
94609SOL     OW85665   8.518   7.520   1.366
94609SOL    HW185666   8.435   7.477   1.387
94609SOL    HW285667   8.585   7.462   1.402
94610SOL     OW85668   4.362  11.610   3.838
94610SOL    HW185669   4.274  11.600   3.803
94610SOL    HW285670   4.389  11.521   3.862
94611SOL     OW85671   9.979   8.237   8.802
94611SOL    HW185672  10.008   8.329   8.797
94611SOL    HW285673  10.012   8.198   8.721
94612SOL     OW85674   4.282   4.078  13.316
94612SOL    HW185675   4.225   4.095  13.241
94612SOL    HW285676   4.333   4.158  13.327
94613SOL     OW85677   9.196  12.871   0.187
94613SOL    HW185678   9.176  12.890   0.278
94613SOL    HW285679   9.233  12.783   0.188
94614SOL     OW85680  12.735  14.784  12.439
94614SOL    HW185681  12.827  14.760  12.454
94614SOL    HW285682  12.687  14.701  12.449
94615SOL     OW85683   5.391  12.939   0.544
94615SOL    HW185684   5.457  12.914   0.609
94615SOL    HW285685   5.421  12.899   0.462
94616SOL     OW85686   8.349  14.688   4.211
94616SOL    HW185687   8.421  14.636   4.246
94616SOL    HW285688   8.275  14.628   4.205
94617SOL     OW85689  14.873  10.730   6.179
94617SOL    HW185690  14.838  10.646   6.148
94617SOL    HW285691  14.814  10.796   6.143
94618SOL     OW85692   2.147  13.936   3.333
94618SOL    HW185693   2.150  14.031   3.345
94618SOL    HW285694   2.134  13.924   3.239
94619SOL     OW85695  12.850   9.199   0.667
94619SOL    HW185696  12.878   9.267   0.605
94619SOL    HW285697  12.840   9.120   0.614
94620SOL     OW85698   2.948   6.293   3.223
94620SOL    HW185699   2.916   6.325   3.139
94620SOL    HW285700   3.003   6.363   3.257
94621SOL     OW85701   9.079   6.246   1.210
94621SOL    HW185702   9.036   6.329   1.229
94621SOL    HW285703   9.135   6.230   1.286
94622SOL     OW85704  10.882   1.792  13.818
94622SOL    HW185705  10.803   1.842  13.839
94622SOL    HW285706  10.928   1.845  13.754
94623SOL     OW85707   8.056   7.042   0.635
94623SOL    HW185708   7.961   7.042   0.625
94623SOL    HW285709   8.074   7.108   0.702
94624SOL     OW85710   6.011   0.602  13.828
94624SOL    HW185711   6.023   0.515  13.790
94624SOL    HW285712   5.957   0.588  13.905
94625SOL     OW85713  10.587   1.101   8.031
94625SOL    HW185714  10.502   1.077   8.067
94625SOL    HW285715  10.632   1.017   8.016
94626SOL     OW85716   9.890   3.390   8.706
94626SOL    HW185717   9.888   3.381   8.801
94626SOL    HW285718   9.845   3.473   8.689
94627SOL     OW85719   8.304  10.060   9.172
94627SOL    HW185720   8.270  10.149   9.183
94627SOL    HW285721   8.287  10.018   9.256
94628SOL     OW85722  11.261   1.848   3.811
94628SOL    HW185723  11.227   1.880   3.727
94628SOL    HW285724  11.322   1.778   3.787
94629SOL     OW85725  11.000  14.679   3.715
94629SOL    HW185726  10.945  14.686   3.636
94629SOL    HW285727  11.088  14.663   3.681
94630SOL     OW85728  12.186   3.036  11.856
94630SOL    HW185729  12.249   3.093  11.810
94630SOL    HW285730  12.231   2.952  11.864
94631SOL     OW85731   6.384   0.168   7.002
94631SOL    HW185732   6.476   0.147   7.015
94631SOL    HW285733   6.337   0.096   7.045
94632SOL     OW85734  10.489   1.210   0.758
94632SOL    HW185735  10.520   1.226   0.669
94632SOL    HW285736  10.564   1.232   0.814
94633SOL     OW85737  10.658   3.490   7.616
94633SOL    HW185738  10.599   3.415   7.609
94633SOL    HW285739  10.672   3.519   7.525
94634SOL     OW85740   6.630  14.136  14.579
94634SOL    HW185741   6.671  14.052  14.599
94634SOL    HW285742   6.591  14.163  14.662
94635SOL     OW85743   2.169  12.511   7.539
94635SOL    HW185744   2.084  12.467   7.548
94635SOL    HW285745   2.177  12.527   7.445
94636SOL     OW85746   8.330  13.268   3.850
94636SOL    HW185747   8.296  13.224   3.928
94636SOL    HW285748   8.342  13.359   3.878
94637SOL     OW85749   9.588   7.822   5.848
94637SOL    HW185750   9.547   7.879   5.783
94637SOL    HW285751   9.524   7.817   5.919
94638SOL     OW85752   9.101  12.503   5.738
94638SOL    HW185753   9.126  12.465   5.823
94638SOL    HW285754   9.180  12.547   5.707
94639SOL     OW85755   3.639   2.856   2.036
94639SOL    HW185756   3.638   2.776   2.089
94639SOL    HW285757   3.618   2.827   1.948
94640SOL     OW85758  10.426   0.778   6.657
94640SOL    HW185759  10.414   0.751   6.566
94640SOL    HW285760  10.510   0.741   6.683
94641SOL     OW85761   3.375   1.606   0.820
94641SOL    HW185762   3.378   1.537   0.754
94641SOL    HW285763   3.311   1.575   0.884
94642SOL     OW85764   5.625   2.776   7.108
94642SOL    HW185765   5.682   2.720   7.161
94642SOL    HW285766   5.539   2.768   7.149
94643SOL     OW85767   1.895   2.560  12.131
94643SOL    HW185768   1.801   2.556  12.112
94643SOL    HW285769   1.899   2.584  12.224
94644SOL     OW85770   2.069   3.507   0.492
94644SOL    HW185771   2.081   3.533   0.583
94644SOL    HW285772   1.980   3.471   0.489
94645SOL     OW85773   8.643  11.019   0.673
94645SOL    HW185774   8.597  11.052   0.596
94645SOL    HW285775   8.577  10.968   0.721
94646SOL     OW85776   9.684   0.304   2.857
94646SOL    HW185777   9.665   0.280   2.948
94646SOL    HW285778   9.689   0.221   2.811
94647SOL     OW85779   0.100  11.231   7.153
94647SOL    HW185780   0.161  11.170   7.196
94647SOL    HW285781   0.020  11.179   7.140
94648SOL     OW85782   4.917  14.438   9.346
94648SOL    HW185783   4.908  14.523   9.390
94648SOL    HW285784   4.833  14.426   9.301
94649SOL     OW85785  14.352   5.714   4.429
94649SOL    HW185786  14.445   5.711   4.404
94649SOL    HW285787  14.332   5.626   4.460
94650SOL     OW85788   8.960   6.399   9.351
94650SOL    HW185789   9.053   6.384   9.369
94650SOL    HW285790   8.932   6.460   9.419
94651SOL     OW85791   0.595   1.511   2.813
94651SOL    HW185792   0.652   1.555   2.749
94651SOL    HW285793   0.600   1.419   2.790
94652SOL     OW85794  13.018  12.792  13.389
94652SOL    HW185795  12.984  12.718  13.439
94652SOL    HW285796  12.952  12.861  13.400
94653SOL     OW85797   2.455  13.715   7.248
94653SOL    HW185798   2.549  13.704   7.250
94653SOL    HW285799   2.419  13.626   7.248
94654SOL     OW85800  12.999   3.344   3.367
94654SOL    HW185801  12.987   3.439   3.362
94654SOL    HW285802  12.999   3.315   3.276
94655SOL     OW85803   8.322   6.638   1.357
94655SOL    HW185804   8.345   6.548   1.380
94655SOL    HW285805   8.305   6.681   1.440
94656SOL     OW85806  13.013   0.127   6.113
94656SOL    HW185807  13.071   0.134   6.188
94656SOL    HW285808  13.004   0.217   6.081
94657SOL     OW85809  10.222   6.596   6.271
94657SOL    HW185810  10.240   6.653   6.197
94657SOL    HW285811  10.129   6.611   6.291
94658SOL     OW85812  13.408  12.528   1.398
94658SOL    HW185813  13.362  12.550   1.479
94658SOL    HW285814  13.384  12.598   1.337
94659SOL     OW85815   9.833   2.947   9.183
94659SOL    HW185816   9.927   2.933   9.178
94659SOL    HW285817   9.795   2.883   9.123
94660SOL     OW85818  10.244   9.353  14.807
94660SOL    HW185819  10.207   9.290  14.745
94660SOL    HW285820  10.291   9.300  14.871
94661SOL     OW85821   8.544   5.853  13.284
94661SOL    HW185822   8.501   5.863  13.369
94661SOL    HW285823   8.530   5.937  13.240
94662SOL     OW85824  11.088   6.814   8.119
94662SOL    HW185825  11.048   6.850   8.040
94662SOL    HW285826  11.019   6.763   8.161
94663SOL     OW85827   8.157   9.316   9.010
94663SOL    HW185828   8.146   9.221   9.004
94663SOL    HW285829   8.082   9.345   9.062
94664SOL     OW85830  14.788   0.707   0.727
94664SOL    HW185831  14.749   0.669   0.806
94664SOL    HW285832   0.003   0.670   0.724
94665SOL     OW85833   5.162   0.926  11.896
94665SOL    HW185834   5.174   0.932  11.802
94665SOL    HW285835   5.205   1.003  11.932
94666SOL     OW85836  13.227   9.967   5.522
94666SOL    HW185837  13.231   9.880   5.483
94666SOL    HW285838  13.138   9.974   5.556
94667SOL     OW85839   9.223  14.852  13.658
94667SOL    HW185840   9.146  14.795  13.661
94667SOL    HW285841   9.187   0.067  13.661
94668SOL     OW85842   1.681  11.358   7.285
94668SOL    HW185843   1.640  11.383   7.202
94668SOL    HW285844   1.608  11.355   7.347
94669SOL     OW85845   7.789   8.315   5.131
94669SOL    HW185846   7.846   8.266   5.071
94669SOL    HW285847   7.701   8.295   5.100
94670SOL     OW85848   5.838  10.523   9.668
94670SOL    HW185849   5.764  10.572   9.705
94670SOL    HW285850   5.915  10.557   9.714
94671SOL     OW85851  12.257   4.947   3.412
94671SOL    HW185852  12.220   5.011   3.473
94671SOL    HW285853  12.214   4.966   3.329
94672SOL     OW85854  11.214   1.327   4.375
94672SOL    HW185855  11.222   1.394   4.308
94672SOL    HW285856  11.249   1.367   4.454
94673SOL     OW85857  14.057  13.304   3.246
94673SOL    HW185858  14.114  13.332   3.174
94673SOL    HW285859  14.007  13.231   3.210
94674SOL     OW85860  11.619   6.069  10.557
94674SOL    HW185861  11.580   5.996  10.606
94674SOL    HW285862  11.558   6.142  10.571
94675SOL     OW85863   3.088   0.474  14.251
94675SOL    HW185864   3.120   0.391  14.217
94675SOL    HW285865   3.109   0.471  14.345
94676SOL     OW85866   2.910   9.742   6.432
94676SOL    HW185867   2.865   9.791   6.501
94676SOL    HW285868   2.992   9.791   6.417
94677SOL     OW85869   4.046   3.505  11.210
94677SOL    HW185870   4.118   3.503  11.146
94677SOL    HW285871   4.066   3.580  11.265
94678SOL     OW85872   7.943   4.628   4.263
94678SOL    HW185873   7.888   4.668   4.330
94678SOL    HW285874   7.932   4.685   4.186
94679SOL     OW85875   3.836   8.131   6.160
94679SOL    HW185876   3.863   8.193   6.092
94679SOL    HW285877   3.852   8.045   6.122
94680SOL     OW85878  12.972   2.137  13.162
94680SOL    HW185879  13.049   2.131  13.106
94680SOL    HW285880  12.984   2.220  13.209
94681SOL     OW85881   2.346  12.357  10.688
94681SOL    HW185882   2.290  12.307  10.629
94681SOL    HW285883   2.426  12.305  10.697
94682SOL     OW85884   4.262   9.164   3.136
94682SOL    HW185885   4.310   9.107   3.076
94682SOL    HW285886   4.284   9.252   3.107
94683SOL     OW85887   6.679  11.837   0.449
94683SOL    HW185888   6.692  11.928   0.474
94683SOL    HW285889   6.675  11.838   0.354
94684SOL     OW85890  13.969  11.427   8.192
94684SOL    HW185891  13.904  11.362   8.221
94684SOL    HW285892  13.942  11.449   8.102
94685SOL     OW85893   4.795  13.394  14.505
94685SOL    HW185894   4.859  13.450  14.549
94685SOL    HW285895   4.848  13.326  14.463
94686SOL     OW85896   3.404   0.712   8.435
94686SOL    HW185897   3.404   0.796   8.391
94686SOL    HW285898   3.479   0.665   8.398
94687SOL     OW85899   1.041   1.081   9.214
94687SOL    HW185900   1.090   1.125   9.283
94687SOL    HW285901   0.952   1.075   9.248
94688SOL     OW85902   0.628  12.918   2.766
94688SOL    HW185903   0.622  12.827   2.794
94688SOL    HW285904   0.556  12.929   2.704
94689SOL     OW85905   6.620   4.052   1.623
94689SOL    HW185906   6.695   4.027   1.678
94689SOL    HW285907   6.623   3.991   1.549
94690SOL     OW85908   6.531  12.785  11.560
94690SOL    HW185909   6.498  12.861  11.608
94690SOL    HW285910   6.609  12.817  11.515
94691SOL     OW85911   8.872   8.884  12.029
94691SOL    HW185912   8.965   8.902  12.044
94691SOL    HW285913   8.827   8.944  12.088
94692SOL     OW85914   5.752   0.036   0.767
94692SOL    HW185915   5.734   0.042   0.674
94692SOL    HW285916   5.769  14.816   0.782
94693SOL     OW85917   9.613  12.181   8.155
94693SOL    HW185918   9.667  12.192   8.233
94693SOL    HW285919   9.667  12.127   8.096
94694SOL     OW85920   9.276   9.213  11.253
94694SOL    HW185921   9.210   9.184  11.315
94694SOL    HW285922   9.286   9.139  11.192
94695SOL     OW85923   6.761  12.451   3.985
94695SOL    HW185924   6.753  12.460   3.890
94695SOL    HW285925   6.703  12.378   4.008
94696SOL     OW85926  14.607   7.900  12.186
94696SOL    HW185927  14.644   7.972  12.136
94696SOL    HW285928  14.549   7.942  12.250
94697SOL     OW85929   3.400  10.096  13.304
94697SOL    HW185930   3.305  10.104  13.289
94697SOL    HW285931   3.437  10.095  13.215
94698SOL     OW85932   4.645   5.461   1.816
94698SOL    HW185933   4.595   5.515   1.877
94698SOL    HW285934   4.714   5.519   1.783
94699SOL     OW85935  11.348  10.083   7.405
94699SOL    HW185936  11.400  10.021   7.456
94699SOL    HW285937  11.327  10.036   7.324
94700SOL     OW85938  10.069  10.208   2.580
94700SOL    HW185939  10.069  10.131   2.637
94700SOL    HW285940  10.030  10.278   2.634
94701SOL     OW85941   9.939   8.958   6.185
94701SOL    HW185942   9.988   8.890   6.139
94701SOL    HW285943   9.998   8.986   6.256
94702SOL     OW85944   8.273  12.819   3.282
94702SOL    HW185945   8.356  12.855   3.314
94702SOL    HW285946   8.211  12.892   3.288
94703SOL     OW85947   1.758  10.550   3.297
94703SOL    HW185948   1.799  10.467   3.275
94703SOL    HW285949   1.684  10.558   3.237
94704SOL     OW85950   8.551  13.059   4.274
94704SOL    HW185951   8.497  12.984   4.250
94704SOL    HW285952   8.623  13.021   4.325
94705SOL     OW85953   8.241   4.256  11.938
94705SOL    HW185954   8.274   4.172  11.969
94705SOL    HW285955   8.312   4.317  11.954
94706SOL     OW85956   5.701   2.741   7.719
94706SOL    HW185957   5.681   2.719   7.810
94706SOL    HW285958   5.616   2.762   7.680
94707SOL     OW85959   5.902   2.650  12.804
94707SOL    HW185960   5.952   2.722  12.766
94707SOL    HW285961   5.821   2.690  12.836
94708SOL     OW85962   3.100   5.806  11.449
94708SOL    HW185963   3.174   5.770  11.402
94708SOL    HW285964   3.125   5.896  11.468
94709SOL     OW85965   7.774  12.368   1.892
94709SOL    HW185966   7.869  12.380   1.886
94709SOL    HW285967   7.749  12.328   1.808
94710SOL     OW85968   5.680  11.724  12.119
94710SOL    HW185969   5.691  11.737  12.213
94710SOL    HW285970   5.767  11.742  12.082
94711SOL     OW85971  10.830   4.826   7.065
94711SOL    HW185972  10.870   4.884   7.129
94711SOL    HW285973  10.886   4.834   6.987
94712SOL     OW85974  11.191   8.208   1.709
94712SOL    HW185975  11.191   8.147   1.635
94712SOL    HW285976  11.104   8.198   1.748
94713SOL     OW85977   2.186   7.529   4.145
94713SOL    HW185978   2.219   7.459   4.201
94713SOL    HW285979   2.102   7.497   4.114
94714SOL     OW85980  12.388  13.776   7.886
94714SOL    HW185981  12.384  13.871   7.872
94714SOL    HW285982  12.385  13.766   7.981
94715SOL     OW85983   1.707   1.702  14.766
94715SOL    HW185984   1.752   1.714  14.683
94715SOL    HW285985   1.760   1.751  14.829
94716SOL     OW85986  14.694   7.400  11.068
94716SOL    HW185987  14.725   7.417  11.157
94716SOL    HW285988  14.731   7.471  11.016
94717SOL     OW85989   0.912   1.695   1.876
94717SOL    HW185990   0.879   1.690   1.787
94717SOL    HW285991   0.954   1.610   1.891
94718SOL     OW85992  12.747   9.806   5.493
94718SOL    HW185993  12.732   9.744   5.564
94718SOL    HW285994  12.730   9.756   5.413
94719SOL     OW85995   5.263   9.478   2.913
94719SOL    HW185996   5.263   9.402   2.855
94719SOL    HW285997   5.257   9.442   3.001
94720SOL     OW85998  12.412   9.239   7.741
94720SOL    HW185999  12.382   9.149   7.727
94720SOL    HW286000  12.462   9.235   7.823
94721SOL     OW86001   7.781  13.195   3.562
94721SOL    HW186002   7.836  13.142   3.619
94721SOL    HW286003   7.836  13.269   3.537
94722SOL     OW86004   0.022  14.642  12.140
94722SOL    HW186005  14.823  14.646  12.077
94722SOL    HW286006   0.080  14.714  12.115
94723SOL     OW86007   6.680  11.840  11.642
94723SOL    HW186008   6.616  11.864  11.709
94723SOL    HW286009   6.704  11.750  11.663
94724SOL     OW86010   8.842   6.322   9.744
94724SOL    HW186011   8.829   6.404   9.791
94724SOL    HW286012   8.805   6.337   9.657
94725SOL     OW86013   9.471  10.650   3.494
94725SOL    HW186014   9.432  10.598   3.564
94725SOL    HW286015   9.413  10.638   3.419
94726SOL     OW86016  13.092  12.789  14.327
94726SOL    HW186017  13.007  12.783  14.372
94726SOL    HW286018  13.072  12.768  14.236
94727SOL     OW86019  10.107  13.188   7.830
94727SOL    HW186020  10.090  13.179   7.924
94727SOL    HW286021  10.111  13.283   7.815
94728SOL     OW86022   1.593   7.943  11.477
94728SOL    HW186023   1.511   7.901  11.448
94728SOL    HW286024   1.621   7.892  11.553
94729SOL     OW86025   7.796   4.051   0.597
94729SOL    HW186026   7.849   4.123   0.633
94729SOL    HW286027   7.759   4.087   0.516
94730SOL     OW86028   1.275   0.514   5.890
94730SOL    HW186029   1.218   0.583   5.924
94730SOL    HW286030   1.333   0.560   5.829
94731SOL     OW86031  10.680   1.987   3.512
94731SOL    HW186032  10.683   1.985   3.417
94731SOL    HW286033  10.753   2.044   3.537
94732SOL     OW86034   5.480   4.523   1.674
94732SOL    HW186035   5.396   4.562   1.650
94732SOL    HW286036   5.467   4.429   1.660
94733SOL     OW86037   5.884  10.063  11.209
94733SOL    HW186038   5.827  10.131  11.245
94733SOL    HW286039   5.831   9.983  11.213
94734SOL     OW86040   7.652   3.850   4.419
94734SOL    HW186041   7.727   3.801   4.452
94734SOL    HW286042   7.596   3.784   4.377
94735SOL     OW86043   5.531   4.197  14.169
94735SOL    HW186044   5.462   4.196  14.235
94735SOL    HW286045   5.609   4.165  14.215
94736SOL     OW86046   5.737   0.264   3.636
94736SOL    HW186047   5.648   0.234   3.651
94736SOL    HW286048   5.749   0.261   3.541
94737SOL     OW86049  10.439   6.341   8.939
94737SOL    HW186050  10.384   6.270   8.970
94737SOL    HW286051  10.492   6.365   9.016
94738SOL     OW86052   5.415   1.341  10.722
94738SOL    HW186053   5.467   1.280  10.671
94738SOL    HW286054   5.325   1.310  10.712
94739SOL     OW86055   6.837   2.429  14.502
94739SOL    HW186056   6.917   2.445  14.452
94739SOL    HW286057   6.862   2.367  14.570
94740SOL     OW86058  11.748   7.142  10.624
94740SOL    HW186059  11.749   7.121  10.531
94740SOL    HW286060  11.832   7.187  10.639
94741SOL     OW86061   8.711   0.926   7.768
94741SOL    HW186062   8.740   0.902   7.856
94741SOL    HW286063   8.615   0.920   7.772
94742SOL     OW86064  11.385  10.396   1.000
94742SOL    HW186065  11.374  10.357   1.087
94742SOL    HW286066  11.479  10.409   0.991
94743SOL     OW86067   9.438  10.514   6.898
94743SOL    HW186068   9.431  10.433   6.847
94743SOL    HW286069   9.385  10.497   6.976
94744SOL     OW86070   0.824  14.846   1.407
94744SOL    HW186071   0.764  14.864   1.480
94744SOL    HW286072   0.776   0.004   1.330
94745SOL     OW86073   6.048   1.554  10.511
94745SOL    HW186074   6.069   1.598  10.428
94745SOL    HW286075   6.093   1.469  10.506
94746SOL     OW86076   1.922   1.185  12.798
94746SOL    HW186077   1.873   1.106  12.821
94746SOL    HW286078   1.866   1.232  12.737
94747SOL     OW86079   0.389  11.990   9.432
94747SOL    HW186080   0.308  11.949   9.401
94747SOL    HW286081   0.426  11.926   9.492
94748SOL     OW86082   7.176   4.203   5.350
94748SOL    HW186083   7.234   4.263   5.397
94748SOL    HW286084   7.196   4.117   5.388
94749SOL     OW86085   2.555  11.990  14.665
94749SOL    HW186086   2.576  12.050  14.594
94749SOL    HW286087   2.462  12.004  14.683
94750SOL     OW86088   1.920   6.921   3.754
94750SOL    HW186089   1.869   6.840   3.758
94750SOL    HW286090   1.991   6.907   3.818
94751SOL     OW86091   4.764  12.303   3.275
94751SOL    HW186092   4.754  12.368   3.345
94751SOL    HW286093   4.782  12.354   3.197
94752SOL     OW86094  10.215   0.399  12.470
94752SOL    HW186095  10.120   0.391  12.473
94752SOL    HW286096  10.244   0.383  12.560
94753SOL     OW86097   3.655   7.447   0.051
94753SOL    HW186098   3.598   7.447  14.848
94753SOL    HW286099   3.612   7.505   0.114
94754SOL     OW86100   6.151  14.167   0.704
94754SOL    HW186101   6.094  14.127   0.638
94754SOL    HW286102   6.200  14.233   0.655
94755SOL     OW86103   4.980   6.734   8.622
94755SOL    HW186104   4.928   6.663   8.585
94755SOL    HW286105   4.936   6.755   8.705
94756SOL     OW86106  11.181  12.760  14.747
94756SOL    HW186107  11.113  12.724  14.690
94756SOL    HW286108  11.197  12.691  14.811
94757SOL     OW86109   7.990   7.696   5.190
94757SOL    HW186110   7.897   7.710   5.206
94757SOL    HW286111   8.005   7.605   5.216
94758SOL     OW86112  10.278   4.749   7.890
94758SOL    HW186113  10.370   4.744   7.861
94758SOL    HW286114  10.230   4.778   7.813
94759SOL     OW86115   4.738  11.094   0.843
94759SOL    HW186116   4.829  11.074   0.820
94759SOL    HW286117   4.736  11.189   0.854
94760SOL     OW86118  11.028   4.191  12.966
94760SOL    HW186119  11.057   4.143  13.044
94760SOL    HW286120  11.024   4.282  12.996
94761SOL     OW86121   9.244   5.370  12.836
94761SOL    HW186122   9.172   5.428  12.861
94761SOL    HW286123   9.214   5.328  12.755
94762SOL     OW86124   7.638  13.360  13.797
94762SOL    HW186125   7.581  13.341  13.722
94762SOL    HW286126   7.718  13.396  13.758
94763SOL     OW86127  11.685   6.393   7.493
94763SOL    HW186128  11.734   6.312   7.507
94763SOL    HW286129  11.679   6.433   7.579
94764SOL     OW86130  12.101   7.486  10.026
94764SOL    HW186131  12.087   7.533   9.944
94764SOL    HW286132  12.196   7.475  10.032
94765SOL     OW86133  11.594  12.679   7.235
94765SOL    HW186134  11.558  12.738   7.169
94765SOL    HW286135  11.688  12.676   7.216
94766SOL     OW86136   7.003   1.344   3.230
94766SOL    HW186137   6.920   1.318   3.190
94766SOL    HW286138   7.025   1.272   3.289
94767SOL     OW86139   6.183  10.901   4.045
94767SOL    HW186140   6.260  10.869   4.091
94767SOL    HW286141   6.159  10.831   3.985
94768SOL     OW86142   1.908   0.018  12.250
94768SOL    HW186143   1.972   0.062  12.194
94768SOL    HW286144   1.955   0.001  12.332
94769SOL     OW86145   2.321  12.995   3.278
94769SOL    HW186146   2.382  13.038   3.338
94769SOL    HW286147   2.368  12.990   3.195
94770SOL     OW86148   6.182  10.554   8.878
94770SOL    HW186149   6.203  10.558   8.785
94770SOL    HW286150   6.112  10.489   8.884
94771SOL     OW86151   0.072   1.938   3.425
94771SOL    HW186152   0.049   1.845   3.417
94771SOL    HW286153   0.165   1.937   3.451
94772SOL     OW86154   0.313   9.754  13.988
94772SOL    HW186155   0.256   9.704  14.046
94772SOL    HW286156   0.395   9.705  13.986
94773SOL     OW86157   8.937   9.353   0.614
94773SOL    HW186158   8.955   9.321   0.703
94773SOL    HW286159   8.912   9.274   0.566
94774SOL     OW86160   4.660  13.544   6.487
94774SOL    HW186161   4.628  13.589   6.408
94774SOL    HW286162   4.591  13.482   6.508
94775SOL     OW86163   5.465  14.651   6.002
94775SOL    HW186164   5.387  14.607   5.968
94775SOL    HW286165   5.467  14.735   5.955
94776SOL     OW86166  11.141   4.677   5.407
94776SOL    HW186167  11.215   4.618   5.390
94776SOL    HW286168  11.158   4.753   5.351
94777SOL     OW86169  13.534   4.157  10.981
94777SOL    HW186170  13.522   4.185  11.071
94777SOL    HW286171  13.472   4.210  10.931
94778SOL     OW86172   2.857   9.208  10.070
94778SOL    HW186173   2.826   9.118  10.067
94778SOL    HW286174   2.857   9.231  10.163
94779SOL     OW86175   1.288   8.386   4.598
94779SOL    HW186176   1.206   8.429   4.624
94779SOL    HW286177   1.266   8.342   4.515
94780SOL     OW86178  13.749   5.052   5.952
94780SOL    HW186179  13.750   5.090   5.864
94780SOL    HW286180  13.745   4.957   5.938
94781SOL     OW86181   9.013   9.722  14.113
94781SOL    HW186182   9.082   9.667  14.151
94781SOL    HW286183   8.931   9.684  14.146
94782SOL     OW86184  12.387   7.267  11.836
94782SOL    HW186185  12.474   7.262  11.875
94782SOL    HW286186  12.397   7.230  11.749
94783SOL     OW86187  12.200   5.441   4.848
94783SOL    HW186188  12.227   5.373   4.910
94783SOL    HW286189  12.281   5.470   4.807
94784SOL     OW86190  13.873  13.922   3.742
94784SOL    HW186191  13.795  13.939   3.689
94784SOL    HW286192  13.850  13.847   3.796
94785SOL     OW86193   6.783   1.419   1.391
94785SOL    HW186194   6.838   1.464   1.327
94785SOL    HW286195   6.694   1.433   1.359
94786SOL     OW86196   4.885   4.563   7.908
94786SOL    HW186197   4.874   4.651   7.944
94786SOL    HW286198   4.902   4.576   7.815
94787SOL     OW86199   6.399   3.686  11.663
94787SOL    HW186200   6.365   3.771  11.693
94787SOL    HW286201   6.468   3.709  11.601
94788SOL     OW86202   5.816  14.613   7.637
94788SOL    HW186203   5.823  14.522   7.667
94788SOL    HW286204   5.906  14.639   7.617
94789SOL     OW86205  11.921   3.417   0.896
94789SOL    HW186206  11.949   3.504   0.923
94789SOL    HW286207  11.884   3.430   0.809
94790SOL     OW86208  10.520   3.845  13.479
94790SOL    HW186209  10.449   3.867  13.539
94790SOL    HW286210  10.480   3.785  13.416
94791SOL     OW86211   6.069  10.154  14.153
94791SOL    HW186212   5.988  10.160  14.103
94791SOL    HW286213   6.135  10.130  14.088
94792SOL     OW86214   2.170  11.251   0.523
94792SOL    HW186215   2.246  11.193   0.524
94792SOL    HW286216   2.205  11.336   0.550
94793SOL     OW86217   9.468   0.681  12.871
94793SOL    HW186218   9.562   0.663  12.873
94793SOL    HW286219   9.438   0.662  12.960
94794SOL     OW86220  10.624   1.820  12.158
94794SOL    HW186221  10.583   1.881  12.220
94794SOL    HW286222  10.601   1.855  12.072
94795SOL     OW86223  14.058   1.504   9.810
94795SOL    HW186224  14.085   1.532   9.898
94795SOL    HW286225  13.963   1.516   9.809
94796SOL     OW86226   7.259   2.546   9.043
94796SOL    HW186227   7.289   2.631   9.011
94796SOL    HW286228   7.183   2.525   8.988
94797SOL     OW86229   9.713   3.092  12.889
94797SOL    HW186230   9.623   3.081  12.857
94797SOL    HW286231   9.715   3.182  12.921
94798SOL     OW86232  14.188  11.642   9.618
94798SOL    HW186233  14.212  11.605   9.533
94798SOL    HW286234  14.180  11.736   9.603
94799SOL     OW86235   7.636   0.532  12.215
94799SOL    HW186236   7.701   0.544  12.285
94799SOL    HW286237   7.553   0.519  12.261
94800SOL     OW86238   5.412   6.893   2.763
94800SOL    HW186239   5.373   6.970   2.721
94800SOL    HW286240   5.376   6.819   2.714
94801SOL     OW86241   1.590  10.438   5.584
94801SOL    HW186242   1.577  10.345   5.563
94801SOL    HW286243   1.572  10.443   5.678
94802SOL     OW86244  13.778   1.939  12.370
94802SOL    HW186245  13.690   1.976  12.371
94802SOL    HW286246  13.811   1.952  12.459
94803SOL     OW86247   8.471   7.230   0.400
94803SOL    HW186248   8.376   7.235   0.405
94803SOL    HW286249   8.500   7.321   0.400
94804SOL     OW86250   4.839  10.828  12.662
94804SOL    HW186251   4.930  10.860  12.665
94804SOL    HW286252   4.824  10.809  12.570
94805SOL     OW86253  13.759   8.178   6.954
94805SOL    HW186254  13.714   8.260   6.975
94805SOL    HW286255  13.779   8.184   6.861
94806SOL     OW86256  12.169   4.523   0.101
94806SOL    HW186257  12.195   4.441   0.144
94806SOL    HW286258  12.091   4.500   0.051
94807SOL     OW86259   4.417   3.544  13.962
94807SOL    HW186260   4.371   3.596  14.029
94807SOL    HW286261   4.351   3.531  13.894
94808SOL     OW86262   1.825  10.016   6.135
94808SOL    HW186263   1.804   9.923   6.121
94808SOL    HW286264   1.797  10.059   6.054
94809SOL     OW86265   1.614   3.923  11.227
94809SOL    HW186266   1.598   4.012  11.197
94809SOL    HW286267   1.537   3.873  11.200
94810SOL     OW86268   2.046   7.954  12.989
94810SOL    HW186269   2.130   7.988  13.020
94810SOL    HW286270   2.019   7.891  13.056
94811SOL     OW86271   5.326  13.586   9.830
94811SOL    HW186272   5.398  13.641   9.860
94811SOL    HW286273   5.341  13.501   9.872
94812SOL     OW86274   6.540  10.046   4.854
94812SOL    HW186275   6.456  10.092   4.855
94812SOL    HW286276   6.520   9.962   4.813
94813SOL     OW86277   5.114   7.283  10.218
94813SOL    HW186278   5.121   7.378  10.217
94813SOL    HW286279   5.037   7.265  10.272
94814SOL     OW86280   9.885   5.257  12.514
94814SOL    HW186281   9.920   5.181  12.467
94814SOL    HW286282   9.791   5.238  12.522
94815SOL     OW86283   8.249  12.703   8.727
94815SOL    HW186284   8.159  12.723   8.701
94815SOL    HW286285   8.242  12.628   8.786
94816SOL     OW86286  10.309   4.649  12.431
94816SOL    HW186287  10.263   4.569  12.457
94816SOL    HW286288  10.393   4.619  12.398
94817SOL     OW86289   2.550   6.189  13.034
94817SOL    HW186290   2.487   6.260  13.045
94817SOL    HW286291   2.534   6.131  13.109
94818SOL     OW86292   6.798   0.851   6.737
94818SOL    HW186293   6.817   0.764   6.700
94818SOL    HW286294   6.714   0.841   6.781
94819SOL     OW86295  11.421   7.964  11.691
94819SOL    HW186296  11.342   7.968  11.637
94819SOL    HW286297  11.493   7.968  11.628
94820SOL     OW86298   7.910   4.090   5.706
94820SOL    HW186299   7.914   4.171   5.756
94820SOL    HW286300   7.946   4.113   5.620
94821SOL     OW86301   1.317   9.334   4.419
94821SOL    HW186302   1.264   9.260   4.446
94821SOL    HW286303   1.390   9.295   4.370
94822SOL     OW86304  14.840  10.090   8.780
94822SOL    HW186305   0.010  10.013   8.743
94822SOL    HW286306  14.752  10.089   8.744
94823SOL     OW86307  10.150   3.637   9.565
94823SOL    HW186308  10.227   3.598   9.524
94823SOL    HW286309  10.105   3.681   9.493
94824SOL     OW86310   5.180   5.656  14.820
94824SOL    HW186311   5.194   5.583  14.759
94824SOL    HW286312   5.186   5.616   0.034
94825SOL     OW86313   8.097   2.813   0.977
94825SOL    HW186314   8.001   2.816   0.979
94825SOL    HW286315   8.125   2.893   1.022
94826SOL     OW86316  11.313  14.423  11.218
94826SOL    HW186317  11.353  14.478  11.151
94826SOL    HW286318  11.346  14.458  11.301
94827SOL     OW86319   1.463   7.743   5.449
94827SOL    HW186320   1.390   7.764   5.391
94827SOL    HW286321   1.528   7.811   5.432
94828SOL     OW86322   8.518   2.343   7.700
94828SOL    HW186323   8.485   2.314   7.615
94828SOL    HW286324   8.440   2.367   7.750
94829SOL     OW86325   6.441  11.286   3.979
94829SOL    HW186326   6.418  11.241   3.898
94829SOL    HW286327   6.368  11.269   4.038
94830SOL     OW86328   2.836   2.944  11.371
94830SOL    HW186329   2.750   2.932  11.412
94830SOL    HW286330   2.888   2.869  11.400
94831SOL     OW86331   0.860   0.739   7.289
94831SOL    HW186332   0.929   0.702   7.345
94831SOL    HW286333   0.788   0.677   7.295
94832SOL     OW86334   7.745   2.631   4.999
94832SOL    HW186335   7.799   2.553   4.981
94832SOL    HW286336   7.798   2.682   5.061
94833SOL     OW86337   3.441   6.948   3.547
94833SOL    HW186338   3.396   6.947   3.631
94833SOL    HW286339   3.442   6.856   3.519
94834SOL     OW86340   3.367  11.146  13.663
94834SOL    HW186341   3.407  11.072  13.708
94834SOL    HW286342   3.352  11.115  13.574
94835SOL     OW86343  13.781  11.708  11.775
94835SOL    HW186344  13.748  11.779  11.720
94835SOL    HW286345  13.753  11.628  11.730
94836SOL     OW86346  12.011  13.860   4.083
94836SOL    HW186347  12.070  13.790   4.110
94836SOL    HW286348  12.026  13.868   3.989
94837SOL     OW86349   4.902   0.274   2.029
94837SOL    HW186350   4.892   0.355   1.979
94837SOL    HW286351   4.990   0.281   2.068
94838SOL     OW86352   0.339   2.850  10.973
94838SOL    HW186353   0.306   2.812  10.892
94838SOL    HW286354   0.419   2.800  10.992
94839SOL     OW86355   9.466   7.548   0.795
94839SOL    HW186356   9.530   7.581   0.858
94839SOL    HW286357   9.454   7.456   0.820
94840SOL     OW86358   0.630   5.542   9.372
94840SOL    HW186359   0.716   5.534   9.330
94840SOL    HW286360   0.567   5.535   9.300
94841SOL     OW86361  11.669   8.515  11.878
94841SOL    HW186362  11.646   8.448  11.942
94841SOL    HW286363  11.762   8.501  11.861
94842SOL     OW86364  11.700  13.558   9.200
94842SOL    HW186365  11.621  13.608   9.224
94842SOL    HW286366  11.759  13.570   9.275
94843SOL     OW86367  13.527   9.168   8.516
94843SOL    HW186368  13.464   9.237   8.537
94843SOL    HW286369  13.496   9.092   8.565
94844SOL     OW86370   0.577   8.525  13.207
94844SOL    HW186371   0.557   8.613  13.240
94844SOL    HW286372   0.611   8.540  13.119
94845SOL     OW86373   4.379  10.988   2.469
94845SOL    HW186374   4.360  10.905   2.425
94845SOL    HW286375   4.299  11.009   2.517
94846SOL     OW86376   9.756   9.279   4.834
94846SOL    HW186377   9.784   9.189   4.851
94846SOL    HW286378   9.766   9.290   4.739
94847SOL     OW86379  12.401   8.219   6.518
94847SOL    HW186380  12.432   8.280   6.451
94847SOL    HW286381  12.342   8.271   6.572
94848SOL     OW86382  12.407   9.573   6.355
94848SOL    HW186383  12.366   9.579   6.268
94848SOL    HW286384  12.358   9.503   6.399
94849SOL     OW86385   0.056   2.053   5.678
94849SOL    HW186386   0.055   2.103   5.760
94849SOL    HW286387   0.038   2.119   5.610
94850SOL     OW86388   5.471  12.514   9.282
94850SOL    HW186389   5.508  12.429   9.308
94850SOL    HW286390   5.541  12.556   9.233
94851SOL     OW86391  14.647   0.282   2.639
94851SOL    HW186392  14.609   0.224   2.573
94851SOL    HW286393  14.719   0.326   2.594
94852SOL     OW86394   1.416   0.103   1.456
94852SOL    HW186395   1.414   0.199   1.448
94852SOL    HW286396   1.355   0.085   1.527
94853SOL     OW86397   2.981   1.188  12.837
94853SOL    HW186398   3.030   1.256  12.790
94853SOL    HW286399   3.031   1.173  12.917
94854SOL     OW86400   7.441   1.039  12.540
94854SOL    HW186401   7.420   0.949  12.566
94854SOL    HW286402   7.528   1.054  12.576
94855SOL     OW86403   2.661  12.023   3.484
94855SOL    HW186404   2.577  12.024   3.530
94855SOL    HW286405   2.669  11.933   3.451
94856SOL     OW86406  12.585  13.171  13.236
94856SOL    HW186407  12.580  13.126  13.151
94856SOL    HW286408  12.577  13.101  13.300
94857SOL     OW86409   2.820   9.163  12.177
94857SOL    HW186410   2.849   9.073  12.163
94857SOL    HW286411   2.789   9.166  12.267
94858SOL     OW86412  12.045   0.221  11.031
94858SOL    HW186413  12.069   0.145  10.978
94858SOL    HW286414  12.089   0.207  11.115
94859SOL     OW86415   6.381  10.889  10.451
94859SOL    HW186416   6.294  10.886  10.491
94859SOL    HW286417   6.439  10.852  10.517
94860SOL     OW86418   2.286  10.964   7.609
94860SOL    HW186419   2.370  10.950   7.565
94860SOL    HW286420   2.229  10.999   7.541
94861SOL     OW86421   3.930  14.284   2.635
94861SOL    HW186422   3.920  14.360   2.693
94861SOL    HW286423   4.023  14.282   2.613
94862SOL     OW86424  14.129   7.276   0.656
94862SOL    HW186425  14.199   7.230   0.702
94862SOL    HW286426  14.055   7.274   0.716
94863SOL     OW86427  13.307  11.438   7.391
94863SOL    HW186428  13.303  11.511   7.452
94863SOL    HW286429  13.347  11.367   7.441
94864SOL     OW86430   9.605   7.823   6.792
94864SOL    HW186431   9.647   7.900   6.830
94864SOL    HW286432   9.561   7.781   6.866
94865SOL     OW86433   4.194   4.260   4.455
94865SOL    HW186434   4.185   4.166   4.473
94865SOL    HW286435   4.169   4.303   4.536
94866SOL     OW86436   9.653   7.923   2.738
94866SOL    HW186437   9.678   7.918   2.831
94866SOL    HW286438   9.604   7.843   2.723
94867SOL     OW86439   7.303  10.897  12.800
94867SOL    HW186440   7.323  10.896  12.893
94867SOL    HW286441   7.245  10.972  12.788
94868SOL     OW86442   3.339   5.934  11.990
94868SOL    HW186443   3.419   5.888  11.967
94868SOL    HW286444   3.269   5.879  11.955
94869SOL     OW86445   0.944  14.643  12.125
94869SOL    HW186446   0.914  14.656  12.035
94869SOL    HW286447   0.902  14.714  12.175
94870SOL     OW86448   3.388  12.128  10.787
94870SOL    HW186449   3.320  12.111  10.853
94870SOL    HW286450   3.338  12.145  10.707
94871SOL     OW86451   4.437   3.244   5.882
94871SOL    HW186452   4.532   3.237   5.870
94871SOL    HW286453   4.416   3.335   5.861
94872SOL     OW86454   1.544   4.475   4.963
94872SOL    HW186455   1.578   4.539   4.901
94872SOL    HW286456   1.591   4.493   5.044
94873SOL     OW86457   1.745   4.661   2.324
94873SOL    HW186458   1.702   4.591   2.274
94873SOL    HW286459   1.681   4.732   2.325
94874SOL     OW86460   9.960  11.188   1.551
94874SOL    HW186461   9.967  11.148   1.638
94874SOL    HW286462   9.986  11.118   1.491
94875SOL     OW86463   9.548   5.624   1.633
94875SOL    HW186464   9.494   5.662   1.564
94875SOL    HW286465   9.638   5.644   1.607
94876SOL     OW86466  11.845  14.750   9.830
94876SOL    HW186467  11.907  14.722   9.762
94876SOL    HW286468  11.865  14.695   9.905
94877SOL     OW86469   0.281  11.891   0.120
94877SOL    HW186470   0.199  11.847   0.099
94877SOL    HW286471   0.301  11.864   0.210
94878SOL     OW86472   2.950  14.469   4.312
94878SOL    HW186473   2.925  14.554   4.348
94878SOL    HW286474   2.898  14.406   4.361
94879SOL     OW86475   7.961  14.585   1.091
94879SOL    HW186476   7.908  14.528   1.147
94879SOL    HW286477   8.004  14.525   1.030
94880SOL     OW86478   5.761  10.683   6.663
94880SOL    HW186479   5.819  10.692   6.588
94880SOL    HW286480   5.757  10.588   6.679
94881SOL     OW86481  10.786  14.000   1.391
94881SOL    HW186482  10.802  13.905   1.387
94881SOL    HW286483  10.748  14.014   1.478
94882SOL     OW86484  10.641   9.554   4.328
94882SOL    HW186485  10.736   9.556   4.316
94882SOL    HW286486  10.624   9.477   4.382
94883SOL     OW86487   2.079   2.785   5.378
94883SOL    HW186488   2.104   2.730   5.303
94883SOL    HW286489   2.055   2.723   5.446
94884SOL     OW86490   6.989   4.882   1.323
94884SOL    HW186491   6.958   4.967   1.291
94884SOL    HW286492   7.018   4.900   1.413
94885SOL     OW86493   9.256  10.311   5.240
94885SOL    HW186494   9.220  10.339   5.156
94885SOL    HW286495   9.342  10.353   5.244
94886SOL     OW86496   2.299  11.956   4.810
94886SOL    HW186497   2.374  12.007   4.841
94886SOL    HW286498   2.325  11.927   4.722
94887SOL     OW86499  13.423  12.478   0.559
94887SOL    HW186500  13.490  12.541   0.533
94887SOL    HW286501  13.453  12.446   0.644
94888SOL     OW86502   6.074   0.240   5.387
94888SOL    HW186503   6.146   0.267   5.330
94888SOL    HW286504   6.027   0.172   5.338
94889SOL     OW86505   6.376  13.955  11.079
94889SOL    HW186506   6.435  13.908  11.138
94889SOL    HW286507   6.433  13.993  11.013
94890SOL     OW86508  12.662   0.962   2.480
94890SOL    HW186509  12.741   1.014   2.494
94890SOL    HW286510  12.595   1.026   2.457
94891SOL     OW86511  12.707   9.714   7.562
94891SOL    HW186512  12.693   9.620   7.570
94891SOL    HW286513  12.684   9.749   7.648
94892SOL     OW86514  11.109  13.044   3.107
94892SOL    HW186515  11.143  13.053   3.018
94892SOL    HW286516  11.172  12.987   3.151
94893SOL     OW86517   0.321   3.322   8.722
94893SOL    HW186518   0.334   3.394   8.783
94893SOL    HW286519   0.253   3.352   8.662
94894SOL     OW86520   5.936   6.656  11.033
94894SOL    HW186521   6.003   6.596  11.001
94894SOL    HW286522   5.930   6.638  11.127
94895SOL     OW86523   7.314   2.332   2.068
94895SOL    HW186524   7.292   2.402   2.131
94895SOL    HW286525   7.320   2.377   1.984
94896SOL     OW86526  11.047   2.314   5.175
94896SOL    HW186527  11.033   2.408   5.161
94896SOL    HW286528  10.973   2.272   5.133
94897SOL     OW86529   6.722  10.718  11.091
94897SOL    HW186530   6.761  10.701  11.177
94897SOL    HW286531   6.705  10.812  11.090
94898SOL     OW86532   2.205   1.745   2.838
94898SOL    HW186533   2.122   1.717   2.800
94898SOL    HW286534   2.197   1.840   2.846
94899SOL     OW86535  13.478   0.886   3.714
94899SOL    HW186536  13.535   0.880   3.638
94899SOL    HW286537  13.412   0.950   3.690
94900SOL     OW86538   6.055   4.643  14.108
94900SOL    HW186539   6.020   4.572  14.162
94900SOL    HW286540   6.015   4.631  14.023
94901SOL     OW86541   5.234   4.281   2.995
94901SOL    HW186542   5.241   4.193   3.032
94901SOL    HW286543   5.183   4.269   2.915
94902SOL     OW86544   2.287   8.134   1.245
94902SOL    HW186545   2.335   8.064   1.201
94902SOL    HW286546   2.220   8.089   1.296
94903SOL     OW86547   0.510   8.412   6.359
94903SOL    HW186548   0.573   8.362   6.307
94903SOL    HW286549   0.511   8.371   6.445
94904SOL     OW86550   3.383   6.442  10.333
94904SOL    HW186551   3.408   6.480  10.418
94904SOL    HW286552   3.295   6.476  10.317
94905SOL     OW86553   4.032   2.208   4.058
94905SOL    HW186554   4.028   2.172   3.969
94905SOL    HW286555   3.956   2.266   4.063
94906SOL     OW86556   6.353   3.750  14.360
94906SOL    HW186557   6.259   3.743  14.341
94906SOL    HW286558   6.380   3.831  14.318
94907SOL     OW86559   9.619  10.854  10.986
94907SOL    HW186560   9.680  10.817  11.050
94907SOL    HW286561   9.631  10.949  10.994
94908SOL     OW86562  12.032   9.912   8.770
94908SOL    HW186563  11.967   9.963   8.819
94908SOL    HW286564  12.077   9.861   8.838
94909SOL     OW86565   5.133   4.830  12.268
94909SOL    HW186566   5.203   4.841  12.204
94909SOL    HW286567   5.143   4.903  12.329
94910SOL     OW86568  12.339   1.553   9.456
94910SOL    HW186569  12.249   1.524   9.440
94910SOL    HW286570  12.331   1.646   9.479
94911SOL     OW86571   0.296  11.824  13.163
94911SOL    HW186572   0.250  11.882  13.102
94911SOL    HW286573   0.344  11.883  13.221
94912SOL     OW86574   3.592  10.622   3.101
94912SOL    HW186575   3.549  10.593   3.181
94912SOL    HW286576   3.642  10.546   3.072
94913SOL     OW86577   5.268   1.839   4.027
94913SOL    HW186578   5.223   1.838   3.942
94913SOL    HW286579   5.358   1.867   4.006
94914SOL     OW86580   8.008  10.676   0.819
94914SOL    HW186581   7.994  10.658   0.726
94914SOL    HW286582   7.970  10.762   0.833
94915SOL     OW86583  10.595   3.487   8.095
94915SOL    HW186584  10.551   3.418   8.045
94915SOL    HW286585  10.631   3.546   8.029
94916SOL     OW86586   8.986  12.408   2.886
94916SOL    HW186587   9.067  12.458   2.896
94916SOL    HW286588   8.930  12.436   2.958
94917SOL     OW86589   2.647  12.268   3.626
94917SOL    HW186590   2.689  12.201   3.571
94917SOL    HW286591   2.661  12.350   3.578
94918SOL     OW86592   1.113  12.762  14.057
94918SOL    HW186593   1.096  12.711  13.978
94918SOL    HW286594   1.205  12.743  14.078
94919SOL     OW86595  10.661  10.474   9.776
94919SOL    HW186596  10.654  10.386   9.741
94919SOL    HW286597  10.676  10.529   9.699
94920SOL     OW86598   8.504   5.156  12.734
94920SOL    HW186599   8.454   5.238  12.732
94920SOL    HW286600   8.486   5.120  12.821
94921SOL     OW86601  14.536   5.856   9.622
94921SOL    HW186602  14.585   5.853   9.704
94921SOL    HW286603  14.603   5.858   9.553
94922SOL     OW86604   2.152   7.453   8.131
94922SOL    HW186605   2.135   7.423   8.042
94922SOL    HW286606   2.112   7.540   8.136
94923SOL     OW86607   3.248   9.383   0.651
94923SOL    HW186608   3.154   9.367   0.660
94923SOL    HW286609   3.273   9.432   0.729
94924SOL     OW86610   4.302   7.436  13.633
94924SOL    HW186611   4.349   7.456  13.553
94924SOL    HW286612   4.370   7.407  13.694
94925SOL     OW86613  10.368  12.391   9.302
94925SOL    HW186614  10.457  12.413   9.330
94925SOL    HW286615  10.366  12.295   9.303
94926SOL     OW86616   8.589  11.042   8.915
94926SOL    HW186617   8.632  10.981   8.855
94926SOL    HW286618   8.507  11.064   8.871
94927SOL     OW86619   7.961  12.434  13.475
94927SOL    HW186620   7.881  12.454  13.525
94927SOL    HW286621   7.951  12.483  13.394
94928SOL     OW86622  10.755   3.500   2.173
94928SOL    HW186623  10.756   3.416   2.127
94928SOL    HW286624  10.824   3.492   2.238
94929SOL     OW86625  14.324   3.709   1.283
94929SOL    HW186626  14.260   3.654   1.237
94929SOL    HW286627  14.301   3.798   1.256
94930SOL     OW86628   0.862   4.048   9.593
94930SOL    HW186629   0.858   4.142   9.608
94930SOL    HW286630   0.810   4.034   9.514
94931SOL     OW86631  10.931   8.524   1.820
94931SOL    HW186632  10.918   8.615   1.846
94931SOL    HW286633  10.953   8.478   1.902
94932SOL     OW86634  11.502  11.766  14.023
94932SOL    HW186635  11.508  11.810  13.938
94932SOL    HW286636  11.420  11.717  14.018
94933SOL     OW86637   9.049   1.581   0.994
94933SOL    HW186638   8.988   1.643   0.954
94933SOL    HW286639   9.003   1.497   0.992
94934SOL     OW86640   4.832   7.486  11.503
94934SOL    HW186641   4.814   7.578  11.522
94934SOL    HW286642   4.798   7.439  11.578
94935SOL     OW86643  10.614  11.183   8.331
94935SOL    HW186644  10.652  11.251   8.387
94935SOL    HW286645  10.674  11.109   8.339
94936SOL     OW86646   0.072   4.930   5.989
94936SOL    HW186647  14.863   4.954   6.033
94936SOL    HW286648   0.070   4.835   5.985
94937SOL     OW86649   2.369  14.821   8.718
94937SOL    HW186650   2.430  14.835   8.645
94937SOL    HW286651   2.393   0.014   8.782
94938SOL     OW86652   0.815   4.896  10.974
94938SOL    HW186653   0.862   4.822  11.011
94938SOL    HW286654   0.863   4.918  10.894
94939SOL     OW86655   6.150  14.029   2.899
94939SOL    HW186656   6.186  14.026   2.810
94939SOL    HW286657   6.071  14.083   2.891
94940SOL     OW86658   4.061  12.188   6.479
94940SOL    HW186659   4.033  12.101   6.450
94940SOL    HW286660   4.017  12.199   6.563
94941SOL     OW86661  12.053   4.981   0.015
94941SOL    HW186662  12.073   4.964  14.796
94941SOL    HW286663  11.981   5.044   0.013
94942SOL     OW86664  14.274   8.574   4.275
94942SOL    HW186665  14.181   8.566   4.296
94942SOL    HW286666  14.317   8.582   4.360
94943SOL     OW86667   0.364   7.277  11.780
94943SOL    HW186668   0.368   7.278  11.685
94943SOL    HW286669   0.447   7.315  11.808
94944SOL     OW86670   8.601  10.886   4.428
94944SOL    HW186671   8.550  10.894   4.509
94944SOL    HW286672   8.639  10.973   4.415
94945SOL     OW86673   5.216   0.653  12.810
94945SOL    HW186674   5.195   0.713  12.739
94945SOL    HW286675   5.138   0.652  12.865
94946SOL     OW86676   9.621   5.252   4.815
94946SOL    HW186677   9.664   5.318   4.760
94946SOL    HW286678   9.690   5.189   4.836
94947SOL     OW86679  11.352  10.669   1.449
94947SOL    HW186680  11.289  10.668   1.377
94947SOL    HW286681  11.412  10.740   1.426
94948SOL     OW86682   4.370   3.745   8.243
94948SOL    HW186683   4.453   3.737   8.196
94948SOL    HW286684   4.331   3.658   8.240
94949SOL     OW86685  13.205   3.739  10.731
94949SOL    HW186686  13.151   3.694  10.667
94949SOL    HW286687  13.210   3.829  10.698
94950SOL     OW86688   0.904  13.233   0.133
94950SOL    HW186689   0.872  13.229   0.223
94950SOL    HW286690   0.836  13.191   0.081
94951SOL     OW86691  12.588   6.649   7.385
94951SOL    HW186692  12.611   6.556   7.390
94951SOL    HW286693  12.495   6.649   7.366
94952SOL     OW86694  14.776   8.626   6.861
94952SOL    HW186695  14.694   8.661   6.897
94952SOL    HW286696  14.790   8.675   6.780
94953SOL     OW86697   4.019   5.508  12.354
94953SOL    HW186698   4.087   5.539  12.413
94953SOL    HW286699   3.949   5.573  12.361
94954SOL     OW86700  10.171  10.175   2.108
94954SOL    HW186701  10.203  10.264   2.098
94954SOL    HW286702  10.167  10.161   2.203
94955SOL     OW86703   9.858   2.578  11.724
94955SOL    HW186704   9.813   2.494  11.709
94955SOL    HW286705   9.815   2.639  11.665
94956SOL     OW86706  12.797   0.900   2.806
94956SOL    HW186707  12.723   0.848   2.776
94956SOL    HW286708  12.874   0.861   2.764
94957SOL     OW86709  10.275   3.986   9.351
94957SOL    HW186710  10.251   3.900   9.386
94957SOL    HW286711  10.364   4.001   9.384
94958SOL     OW86712  13.124  11.496   2.639
94958SOL    HW186713  13.042  11.545   2.646
94958SOL    HW286714  13.175  11.522   2.716
94959SOL     OW86715   4.298   7.681   0.900
94959SOL    HW186716   4.235   7.610   0.908
94959SOL    HW286717   4.367   7.646   0.843
94960SOL     OW86718   3.818  13.274  11.073
94960SOL    HW186719   3.750  13.334  11.102
94960SOL    HW286720   3.772  13.210  11.018
94961SOL     OW86721   3.816   0.961  11.627
94961SOL    HW186722   3.825   0.868  11.607
94961SOL    HW286723   3.818   0.966  11.723
94962SOL     OW86724  12.702   7.090   9.316
94962SOL    HW186725  12.756   7.019   9.351
94962SOL    HW286726  12.616   7.078   9.358
94963SOL     OW86727   4.305   9.972  11.127
94963SOL    HW186728   4.318   9.948  11.035
94963SOL    HW286729   4.385   9.942  11.171
94964SOL     OW86730  14.327   2.145   0.431
94964SOL    HW186731  14.415   2.177   0.413
94964SOL    HW286732  14.300   2.103   0.350
94965SOL     OW86733   2.264   8.846   8.027
94965SOL    HW186734   2.274   8.807   7.940
94965SOL    HW286735   2.254   8.940   8.010
94966SOL     OW86736  12.405   0.821   7.718
94966SOL    HW186737  12.357   0.758   7.664
94966SOL    HW286738  12.359   0.822   7.802
94967SOL     OW86739  11.447   6.608   5.331
94967SOL    HW186740  11.382   6.575   5.392
94967SOL    HW286741  11.396   6.657   5.266
94968SOL     OW86742   7.447   0.073  13.093
94968SOL    HW186743   7.373   0.131  13.075
94968SOL    HW286744   7.437   0.002  13.030
94969SOL     OW86745   5.870   5.531   9.548
94969SOL    HW186746   5.778   5.509   9.560
94969SOL    HW286747   5.881   5.615   9.594
94970SOL     OW86748   1.420   9.565  14.157
94970SOL    HW186749   1.496   9.509  14.168
94970SOL    HW286750   1.402   9.599  14.245
94971SOL     OW86751  11.623  14.365  12.938
94971SOL    HW186752  11.541  14.396  12.901
94971SOL    HW286753  11.616  14.270  12.936
94972SOL     OW86754   5.260   0.421   4.395
94972SOL    HW186755   5.178   0.388   4.358
94972SOL    HW286756   5.317   0.434   4.319
94973SOL     OW86757   3.055  13.894  10.094
94973SOL    HW186758   3.039  13.864  10.183
94973SOL    HW286759   2.967  13.899  10.054
94974SOL     OW86760   9.031  13.076  10.119
94974SOL    HW186761   9.087  13.080  10.041
94974SOL    HW286762   8.967  13.008  10.099
94975SOL     OW86763   9.631   5.187  11.169
94975SOL    HW186764   9.610   5.162  11.079
94975SOL    HW286765   9.650   5.281  11.164
94976SOL     OW86766  12.953   9.045   9.376
94976SOL    HW186767  12.884   9.109   9.390
94976SOL    HW286768  13.000   9.041   9.460
94977SOL     OW86769   1.988   1.894   8.809
94977SOL    HW186770   1.941   1.977   8.798
94977SOL    HW286771   2.026   1.899   8.897
94978SOL     OW86772   1.663  11.635  12.358
94978SOL    HW186773   1.678  11.702  12.292
94978SOL    HW286774   1.588  11.585  12.326
94979SOL     OW86775   0.978   9.019   7.165
94979SOL    HW186776   0.973   8.924   7.153
94979SOL    HW286777   1.056   9.032   7.219
94980SOL     OW86778   0.599   1.823  11.193
94980SOL    HW186779   0.653   1.902  11.192
94980SOL    HW286780   0.646   1.763  11.250
94981SOL     OW86781   0.008   0.074   7.549
94981SOL    HW186782  14.837   0.037   7.472
94981SOL    HW286783  14.868   0.008   7.617
94982SOL     OW86784   6.382  10.243   1.270
94982SOL    HW186785   6.459  10.264   1.322
94982SOL    HW286786   6.328  10.323   1.274
94983SOL     OW86787  10.158  11.200   6.725
94983SOL    HW186788  10.093  11.134   6.751
94983SOL    HW286789  10.233  11.149   6.695
94984SOL     OW86790   9.132   0.126   8.012
94984SOL    HW186791   9.109   0.035   8.029
94984SOL    HW286792   9.105   0.141   7.921
94985SOL     OW86793   4.318   9.601  12.808
94985SOL    HW186794   4.393   9.648  12.771
94985SOL    HW286795   4.256   9.669  12.833
94986SOL     OW86796  13.259   6.785   4.369
94986SOL    HW186797  13.175   6.820   4.341
94986SOL    HW286798  13.321   6.810   4.301
94987SOL     OW86799   2.635   9.794   1.848
94987SOL    HW186800   2.564   9.771   1.788
94987SOL    HW286801   2.680   9.867   1.806
94988SOL     OW86802  13.923  13.158   8.607
94988SOL    HW186803  13.896  13.237   8.561
94988SOL    HW286804  13.927  13.091   8.538
94989SOL     OW86805   2.417   1.154   4.703
94989SOL    HW186806   2.417   1.241   4.664
94989SOL    HW286807   2.444   1.096   4.632
94990SOL     OW86808  13.161   6.765   6.036
94990SOL    HW186809  13.237   6.787   6.090
94990SOL    HW286810  13.094   6.829   6.062
94991SOL     OW86811   1.274   0.927   9.390
94991SOL    HW186812   1.351   0.900   9.341
94991SOL    HW286813   1.255   0.854   9.448
94992SOL     OW86814   0.801   9.195  14.599
94992SOL    HW186815   0.812   9.107  14.636
94992SOL    HW286816   0.879   9.209  14.546
94993SOL     OW86817  11.758   0.362  13.016
94993SOL    HW186818  11.703   0.421  13.067
94993SOL    HW286819  11.845   0.402  13.018
94994SOL     OW86820   0.418   5.948  12.676
94994SOL    HW186821   0.449   6.004  12.747
94994SOL    HW286822   0.453   5.862  12.696
94995SOL     OW86823   0.516   1.046   9.788
94995SOL    HW186824   0.487   1.022   9.876
94995SOL    HW286825   0.551   1.134   9.797
94996SOL     OW86826   3.863   0.729   9.391
94996SOL    HW186827   3.810   0.661   9.350
94996SOL    HW286828   3.930   0.681   9.440
94997SOL     OW86829   9.341  14.013   0.828
94997SOL    HW186830   9.374  13.942   0.883
94997SOL    HW286831   9.246  13.999   0.825
94998SOL     OW86832   4.015   5.073  12.700
94998SOL    HW186833   3.962   5.048  12.624
94998SOL    HW286834   4.100   5.099  12.663
94999SOL     OW86835   5.054   1.276  10.172
94999SOL    HW186836   5.024   1.214  10.238
94999SOL    HW286837   4.974   1.320  10.141
95000SOL     OW86838  14.490   3.976  11.668
95000SOL    HW186839  14.412   3.970  11.723
95000SOL    HW286840  14.494   4.068  11.642
95001SOL     OW86841   2.069   5.201   7.973
95001SOL    HW186842   1.974   5.190   7.971
95001SOL    HW286843   2.092   5.199   8.066
95002SOL     OW86844   5.115   5.398   3.241
95002SOL    HW186845   5.035   5.445   3.265
95002SOL    HW286846   5.121   5.326   3.304
95003SOL     OW86847   3.017   6.345   5.677
95003SOL    HW186848   2.975   6.424   5.712
95003SOL    HW286849   3.028   6.288   5.754
95004SOL     OW86850   4.463   5.669  13.403
95004SOL    HW186851   4.523   5.685  13.330
95004SOL    HW286852   4.520   5.658  13.479
95005SOL     OW86853   1.108   3.673   5.865
95005SOL    HW186854   1.077   3.592   5.825
95005SOL    HW286855   1.201   3.678   5.843
95006SOL     OW86856   3.170   6.668   5.650
95006SOL    HW186857   3.188   6.587   5.602
95006SOL    HW286858   3.234   6.667   5.722
95007SOL     OW86859   9.980   0.322   7.467
95007SOL    HW186860  10.038   0.249   7.445
95007SOL    HW286861   9.973   0.373   7.386
95008SOL     OW86862   3.884  11.551   8.503
95008SOL    HW186863   3.889  11.502   8.585
95008SOL    HW286864   3.974  11.554   8.471
95009SOL     OW86865   2.079   6.900   2.221
95009SOL    HW186866   2.081   6.828   2.284
95009SOL    HW286867   2.059   6.977   2.273
95010SOL     OW86868  13.550   2.236  13.978
95010SOL    HW186869  13.593   2.223  13.893
95010SOL    HW286870  13.607   2.299  14.023
95011SOL     OW86871   9.161   4.336   7.674
95011SOL    HW186872   9.105   4.367   7.745
95011SOL    HW286873   9.141   4.242   7.668
95012SOL     OW86874   8.765  10.138   2.933
95012SOL    HW186875   8.788  10.126   3.025
95012SOL    HW286876   8.826  10.081   2.886
95013SOL     OW86877   5.857  13.630   5.973
95013SOL    HW186878   5.953  13.627   5.971
95013SOL    HW286879   5.829  13.563   5.911
95014SOL     OW86880   4.814   4.416   8.502
95014SOL    HW186881   4.849   4.494   8.545
95014SOL    HW286882   4.776   4.448   8.420
95015SOL     OW86883   3.564  10.251  11.255
95015SOL    HW186884   3.545  10.312  11.327
95015SOL    HW286885   3.510  10.174  11.274
95016SOL     OW86886  13.323  13.929   1.342
95016SOL    HW186887  13.375  13.916   1.421
95016SOL    HW286888  13.281  13.844   1.326
95017SOL     OW86889   4.800   3.764   4.972
95017SOL    HW186890   4.706   3.773   4.957
95017SOL    HW286891   4.830   3.708   4.900
95018SOL     OW86892   8.193   8.841  11.801
95018SOL    HW186893   8.108   8.805  11.826
95018SOL    HW286894   8.200   8.822  11.708
95019SOL     OW86895   7.028   2.348  13.448
95019SOL    HW186896   7.079   2.425  13.423
95019SOL    HW286897   7.080   2.306  13.516
95020SOL     OW86898   7.400  10.928   7.098
95020SOL    HW186899   7.340  11.000   7.114
95020SOL    HW286900   7.430  10.901   7.186
95021SOL     OW86901   7.578   0.320   9.991
95021SOL    HW186902   7.552   0.336   9.900
95021SOL    HW286903   7.495   0.313  10.039
95022SOL     OW86904  13.681  12.528  11.509
95022SOL    HW186905  13.637  12.608  11.535
95022SOL    HW286906  13.675  12.471  11.586
95023SOL     OW86907  14.200   8.428   0.183
95023SOL    HW186908  14.156   8.485   0.246
95023SOL    HW286909  14.226   8.486   0.111
95024SOL     OW86910   4.379   9.829  10.098
95024SOL    HW186911   4.331   9.911  10.097
95024SOL    HW286912   4.312   9.761  10.105
95025SOL     OW86913   9.516  10.859   6.673
95025SOL    HW186914   9.534  10.843   6.765
95025SOL    HW286915   9.421  10.850   6.665
95026SOL     OW86916  14.559  11.955   4.875
95026SOL    HW186917  14.614  11.933   4.951
95026SOL    HW286918  14.498  11.882   4.867
95027SOL     OW86919   4.570   8.068   2.356
95027SOL    HW186920   4.516   8.000   2.317
95027SOL    HW286921   4.549   8.147   2.305
95028SOL     OW86922   5.032   7.929  14.018
95028SOL    HW186923   5.126   7.914  14.021
95028SOL    HW286924   5.005   7.933  14.110
95029SOL     OW86925   0.708  11.507   6.275
95029SOL    HW186926   0.632  11.462   6.238
95029SOL    HW286927   0.731  11.455   6.353
95030SOL     OW86928   3.229   8.592   9.942
95030SOL    HW186929   3.262   8.535  10.011
95030SOL    HW286930   3.212   8.675   9.987
95031SOL     OW86931   0.886  13.377  10.604
95031SOL    HW186932   0.863  13.421  10.522
95031SOL    HW286933   0.971  13.336  10.587
95032SOL     OW86934  10.047   5.124   2.497
95032SOL    HW186935   9.965   5.168   2.472
95032SOL    HW286936  10.024   5.074   2.575
95033SOL     OW86937   2.787   3.452  10.905
95033SOL    HW186938   2.699   3.417  10.918
95033SOL    HW286939   2.832   3.435  10.988
95034SOL     OW86940   2.038   5.100  11.870
95034SOL    HW186941   2.114   5.110  11.928
95034SOL    HW286942   2.030   5.006  11.858
95035SOL     OW86943   3.337   7.990   7.595
95035SOL    HW186944   3.320   8.073   7.552
95035SOL    HW286945   3.296   7.925   7.539
95036SOL     OW86946   9.323   0.932  12.157
95036SOL    HW186947   9.380   0.856  12.143
95036SOL    HW286948   9.324   0.978  12.073
95037SOL     OW86949   5.336   7.923   7.217
95037SOL    HW186950   5.413   7.974   7.243
95037SOL    HW286951   5.268   7.988   7.201
95038SOL     OW86952  11.623   1.347  14.784
95038SOL    HW186953  11.544   1.323  14.736
95038SOL    HW286954  11.631   1.280  14.852
95039SOL     OW86955   5.409   3.136   2.695
95039SOL    HW186956   5.364   3.061   2.655
95039SOL    HW286957   5.385   3.131   2.788
95040SOL     OW86958   4.732  14.746  14.447
95040SOL    HW186959   4.726  14.800  14.369
95040SOL    HW286960   4.797  14.680  14.426
95041SOL     OW86961  10.978   9.612   9.666
95041SOL    HW186962  10.950   9.635   9.754
95041SOL    HW286963  11.051   9.551   9.679
95042SOL     OW86964   1.629   6.806  10.285
95042SOL    HW186965   1.695   6.740  10.304
95042SOL    HW286966   1.644   6.874  10.350
95043SOL     OW86967  13.659  10.106  11.890
95043SOL    HW186968  13.582  10.163  11.888
95043SOL    HW286969  13.701  10.120  11.804
95044SOL     OW86970   2.635  12.750   2.588
95044SOL    HW186971   2.574  12.758   2.662
95044SOL    HW286972   2.619  12.662   2.553
95045SOL     OW86973   2.011  13.562   3.030
95045SOL    HW186974   2.068  13.638   3.035
95045SOL    HW286975   2.066  13.489   3.059
95046SOL     OW86976   2.447   8.010   0.291
95046SOL    HW186977   2.431   8.041   0.202
95046SOL    HW286978   2.496   7.928   0.280
95047SOL     OW86979  12.622   9.430   0.231
95047SOL    HW186980  12.633   9.351   0.178
95047SOL    HW286981  12.663   9.499   0.180
95048SOL     OW86982   7.404   7.695   1.030
95048SOL    HW186983   7.489   7.711   1.072
95048SOL    HW286984   7.340   7.723   1.095
95049SOL     OW86985  11.919   3.144  12.280
95049SOL    HW186986  11.870   3.074  12.323
95049SOL    HW286987  11.872   3.224  12.303
95050SOL     OW86988   1.527  10.907   9.146
95050SOL    HW186989   1.546  10.850   9.220
95050SOL    HW286990   1.556  10.856   9.069
95051SOL     OW86991   1.529  14.572  12.029
95051SOL    HW186992   1.614  14.615  12.030
95051SOL    HW286993   1.504  14.565  12.121
95052SOL     OW86994   5.455   3.335   9.548
95052SOL    HW186995   5.498   3.283   9.480
95052SOL    HW286996   5.511   3.412   9.559
95053SOL     OW86997   5.744  12.251   4.941
95053SOL    HW186998   5.741  12.269   5.035
95053SOL    HW286999   5.743  12.156   4.934
95054SOL     OW87000   1.631   6.599   7.104
95054SOL    HW187001   1.715   6.619   7.144
95054SOL    HW287002   1.567   6.645   7.158
95055SOL     OW87003   2.520   3.925  14.280
95055SOL    HW187004   2.513   3.891  14.191
95055SOL    HW287005   2.611   3.907  14.305
95056SOL     OW87006   1.782  11.209   3.155
95056SOL    HW187007   1.846  11.280   3.151
95056SOL    HW287008   1.701  11.251   3.186
95057SOL     OW87009  14.833   6.960   9.491
95057SOL    HW187010  14.867   6.904   9.561
95057SOL    HW287011  14.807   7.041   9.534
95058SOL     OW87012   5.343   7.204  11.376
95058SOL    HW187013   5.332   7.231  11.284
95058SOL    HW287014   5.273   7.249  11.423
95059SOL     OW87015   2.538  10.725   2.245
95059SOL    HW187016   2.608  10.718   2.310
95059SOL    HW287017   2.458  10.708   2.294
95060SOL     OW87018   4.241  11.568  11.078
95060SOL    HW187019   4.253  11.621  10.999
95060SOL    HW287020   4.329  11.533  11.096
95061SOL     OW87021   8.590   3.110  14.183
95061SOL    HW187022   8.497   3.120  14.162
95061SOL    HW287023   8.627   3.197  14.168
95062SOL     OW87024   1.203   9.110   8.784
95062SOL    HW187025   1.177   9.199   8.761
95062SOL    HW287026   1.169   9.097   8.872
95063SOL     OW87027   4.056  14.811   2.393
95063SOL    HW187028   4.090  14.862   2.319
95063SOL    HW287029   4.015   0.003   2.450
95064SOL     OW87030   4.098  14.522   3.847
95064SOL    HW187031   4.060  14.606   3.821
95064SOL    HW287032   4.193  14.538   3.847
95065SOL     OW87033   9.643  14.114   6.190
95065SOL    HW187034   9.682  14.185   6.138
95065SOL    HW287035   9.667  14.034   6.144
95066SOL     OW87036  13.395  14.070  13.082
95066SOL    HW187037  13.476  14.086  13.130
95066SOL    HW287038  13.416  14.091  12.991
95067SOL     OW87039   1.708   6.772  10.692
95067SOL    HW187040   1.700   6.700  10.754
95067SOL    HW287041   1.635   6.761  10.632
95068SOL     OW87042  14.022   4.515   2.044
95068SOL    HW187043  13.957   4.585   2.044
95068SOL    HW287044  14.039   4.499   2.137
95069SOL     OW87045   0.695  11.402   0.459
95069SOL    HW187046   0.661  11.388   0.371
95069SOL    HW287047   0.780  11.358   0.459
95070SOL     OW87048  14.204  13.134  13.984
95070SOL    HW187049  14.177  13.224  13.968
95070SOL    HW287050  14.220  13.130  14.079
95071SOL     OW87051   1.703   8.967   0.009
95071SOL    HW187052   1.653   8.983   0.089
95071SOL    HW287053   1.764   9.041   0.003
95072SOL     OW87054  13.556   7.994   1.171
95072SOL    HW187055  13.469   7.956   1.158
95072SOL    HW287056  13.548   8.047   1.250
95073SOL     OW87057  12.388   5.468  13.613
95073SOL    HW187058  12.478   5.500  13.614
95073SOL    HW287059  12.341   5.528  13.672
95074SOL     OW87060  13.990  11.906   8.831
95074SOL    HW187061  13.942  11.870   8.906
95074SOL    HW287062  14.021  11.992   8.862
95075SOL     OW87063   3.803   2.011   6.483
95075SOL    HW187064   3.759   2.085   6.440
95075SOL    HW287065   3.783   1.936   6.428
95076SOL     OW87066   9.799  12.845   0.650
95076SOL    HW187067   9.891  12.836   0.673
95076SOL    HW287068   9.776  12.760   0.611
95077SOL     OW87069  12.459  10.341  11.250
95077SOL    HW187070  12.471  10.262  11.303
95077SOL    HW287071  12.470  10.413  11.312
95078SOL     OW87072   6.343  11.136   4.832
95078SOL    HW187073   6.400  11.187   4.891
95078SOL    HW287074   6.268  11.112   4.887
95079SOL     OW87075   1.871   1.311   2.018
95079SOL    HW187076   1.840   1.377   2.079
95079SOL    HW287077   1.952   1.348   1.983
95080SOL     OW87078   2.907   7.138   2.470
95080SOL    HW187079   2.991   7.149   2.513
95080SOL    HW287080   2.842   7.161   2.537
95081SOL     OW87081   3.317   2.923  11.693
95081SOL    HW187082   3.399   2.892  11.731
95081SOL    HW287083   3.271   2.965  11.765
95082SOL     OW87084   5.083   6.726  13.273
95082SOL    HW187085   5.127   6.810  13.288
95082SOL    HW287086   4.990   6.748  13.267
95083SOL     OW87087  14.411  12.063  14.370
95083SOL    HW187088  14.408  12.039  14.278
95083SOL    HW287089  14.491  12.116  14.378
95084SOL     OW87090   4.230   0.578  13.927
95084SOL    HW187091   4.202   0.600  14.016
95084SOL    HW287092   4.149   0.556  13.881
95085SOL     OW87093   3.200   4.522   7.399
95085SOL    HW187094   3.123   4.566   7.436
95085SOL    HW287095   3.177   4.429   7.399
95086SOL     OW87096  13.927   8.943   5.410
95086SOL    HW187097  13.988   8.876   5.379
95086SOL    HW287098  13.944   8.950   5.504
95087SOL     OW87099   2.460   2.106  12.425
95087SOL    HW187100   2.513   2.041  12.380
95087SOL    HW287101   2.388   2.126  12.365
95088SOL     OW87102  10.380   9.138  12.934
95088SOL    HW187103  10.346   9.054  12.966
95088SOL    HW287104  10.394   9.190  13.014
95089SOL     OW87105   9.271   9.908  14.358
95089SOL    HW187106   9.338   9.946  14.415
95089SOL    HW287107   9.188   9.926  14.402
95090SOL     OW87108  14.733   2.038  10.077
95090SOL    HW187109  14.676   2.028  10.001
95090SOL    HW287110  14.819   2.008  10.046
95091SOL     OW87111   0.715  12.190  14.696
95091SOL    HW187112   0.728  12.283  14.712
95091SOL    HW287113   0.796  12.148  14.728
95092SOL     OW87114  12.507   9.881   9.741
95092SOL    HW187115  12.532   9.789   9.750
95092SOL    HW287116  12.585   9.930   9.766
95093SOL     OW87117   5.183   7.022   8.869
95093SOL    HW187118   5.190   7.024   8.964
95093SOL    HW287119   5.208   6.933   8.845
95094SOL     OW87120   8.383   9.969   3.010
95094SOL    HW187121   8.446  10.039   2.993
95094SOL    HW287122   8.302   9.999   2.969
95095SOL     OW87123   0.784  10.484  11.003
95095SOL    HW187124   0.743  10.518  10.924
95095SOL    HW287125   0.831  10.406  10.974
95096SOL     OW87126   4.592   6.582  13.719
95096SOL    HW187127   4.605   6.522  13.645
95096SOL    HW287128   4.645   6.659  13.697
95097SOL     OW87129   1.100  10.685  12.951
95097SOL    HW187130   1.182  10.694  12.902
95097SOL    HW287131   1.034  10.726  12.895
95098SOL     OW87132   7.903   7.800   2.896
95098SOL    HW187133   7.820   7.847   2.883
95098SOL    HW287134   7.876   7.709   2.912
95099SOL     OW87135   4.359   1.668   2.557
95099SOL    HW187136   4.372   1.595   2.497
95099SOL    HW287137   4.436   1.724   2.544
95100SOL     OW87138   3.992   2.931   6.506
95100SOL    HW187139   3.967   2.963   6.593
95100SOL    HW287140   4.086   2.912   6.514
95101SOL     OW87141   4.668   7.745  12.143
95101SOL    HW187142   4.727   7.733  12.217
95101SOL    HW287143   4.592   7.791  12.180
95102SOL     OW87144   0.717   1.221  10.192
95102SOL    HW187145   0.674   1.289  10.244
95102SOL    HW287146   0.687   1.138  10.230
95103SOL     OW87147   6.563   8.113   2.831
95103SOL    HW187148   6.567   8.178   2.760
95103SOL    HW287149   6.642   8.060   2.819
95104SOL     OW87150   0.279   4.543   1.411
95104SOL    HW187151   0.203   4.544   1.469
95104SOL    HW287152   0.246   4.507   1.328
95105SOL     OW87153  14.519   3.663   2.618
95105SOL    HW187154  14.546   3.583   2.573
95105SOL    HW287155  14.601   3.709   2.637
95106SOL     OW87156  12.227   7.422   1.753
95106SOL    HW187157  12.314   7.455   1.773
95106SOL    HW287158  12.169   7.471   1.812
95107SOL     OW87159   8.691   6.887  11.306
95107SOL    HW187160   8.687   6.963  11.364
95107SOL    HW287161   8.609   6.840  11.322
95108SOL     OW87162   9.633  10.380   8.549
95108SOL    HW187163   9.581  10.326   8.609
95108SOL    HW287164   9.586  10.374   8.466
95109SOL     OW87165   8.577   8.576   6.140
95109SOL    HW187166   8.658   8.558   6.092
95109SOL    HW287167   8.524   8.627   6.078
95110SOL     OW87168   5.420  14.320  13.236
95110SOL    HW187169   5.393  14.412  13.235
95110SOL    HW287170   5.478  14.312  13.160
95111SOL     OW87171   9.882   3.453  13.478
95111SOL    HW187172   9.860   3.537  13.518
95111SOL    HW287173   9.816   3.393  13.511
95112SOL     OW87174   7.459   1.913  13.404
95112SOL    HW187175   7.369   1.882  13.407
95112SOL    HW287176   7.475   1.947  13.492
95113SOL     OW87177  10.598   1.563   1.603
95113SOL    HW187178  10.648   1.645   1.602
95113SOL    HW287179  10.634   1.513   1.530
95114SOL     OW87180   0.948   7.435   8.605
95114SOL    HW187181   0.913   7.363   8.658
95114SOL    HW287182   0.947   7.401   8.515
95115SOL     OW87183   4.697   1.531   6.232
95115SOL    HW187184   4.639   1.539   6.308
95115SOL    HW287185   4.765   1.470   6.261
95116SOL     OW87186   9.901  13.266  13.980
95116SOL    HW187187   9.807  13.283  13.989
95116SOL    HW287188   9.940  13.353  13.967
95117SOL     OW87189  10.945  10.199  12.188
95117SOL    HW187190  11.000  10.127  12.156
95117SOL    HW287191  10.867  10.196  12.132
95118SOL     OW87192   5.287   8.971   9.316
95118SOL    HW187193   5.241   8.888   9.330
95118SOL    HW287194   5.348   8.977   9.390
95119SOL     OW87195   9.426   6.134   1.912
95119SOL    HW187196   9.468   6.217   1.936
95119SOL    HW287197   9.494   6.068   1.925
95120SOL     OW87198   2.858  13.279  14.174
95120SOL    HW187199   2.786  13.275  14.237
95120SOL    HW287200   2.935  13.256  14.226
95121SOL     OW87201  10.414   7.781   9.653
95121SOL    HW187202  10.474   7.844   9.692
95121SOL    HW287203  10.440   7.777   9.561
95122SOL     OW87204   0.743  13.578  14.465
95122SOL    HW187205   0.770  13.488  14.483
95122SOL    HW287206   0.688  13.602  14.539
95123SOL     OW87207   5.883   1.788   2.702
95123SOL    HW187208   5.871   1.879   2.730
95123SOL    HW287209   5.795   1.758   2.679
95124SOL     OW87210   3.469  14.354  11.957
95124SOL    HW187211   3.561  14.378  11.972
95124SOL    HW287212   3.442  14.312  12.039
95125SOL     OW87213  14.225   4.224   4.920
95125SOL    HW187214  14.260   4.181   4.998
95125SOL    HW287215  14.143   4.264   4.949
95126SOL     OW87216   9.915  14.341   0.424
95126SOL    HW187217   9.832  14.319   0.381
95126SOL    HW287218   9.897  14.422   0.472
95127SOL     OW87219   8.238   4.399   2.792
95127SOL    HW187220   8.267   4.333   2.855
95127SOL    HW287221   8.288   4.378   2.712
95128SOL     OW87222  10.421   2.735  13.265
95128SOL    HW187223  10.333   2.699  13.279
95128SOL    HW287224  10.416   2.825  13.298
95129SOL     OW87225   1.964   6.381   3.344
95129SOL    HW187226   1.927   6.469   3.353
95129SOL    HW287227   1.888   6.324   3.327
95130SOL     OW87228   2.575  12.021  12.532
95130SOL    HW187229   2.664  12.030  12.566
95130SOL    HW287230   2.552  12.107  12.497
95131SOL     OW87231  14.160   3.292   6.819
95131SOL    HW187232  14.233   3.291   6.881
95131SOL    HW287233  14.107   3.216   6.843
95132SOL     OW87234   7.763   9.697   5.443
95132SOL    HW187235   7.832   9.680   5.507
95132SOL    HW287236   7.799   9.664   5.360
95133SOL     OW87237   9.190   0.312   9.491
95133SOL    HW187238   9.126   0.273   9.432
95133SOL    HW287239   9.201   0.247   9.561
95134SOL     OW87240  12.905   7.559   1.842
95134SOL    HW187241  12.911   7.541   1.936
95134SOL    HW287242  12.989   7.596   1.818
95135SOL     OW87243  13.797   3.455  14.619
95135SOL    HW187244  13.780   3.404  14.540
95135SOL    HW287245  13.805   3.545  14.588
95136SOL     OW87246   9.353  13.341   2.899
95136SOL    HW187247   9.358  13.271   2.964
95136SOL    HW287248   9.391  13.304   2.819
95137SOL     OW87249   3.412   9.491   6.225
95137SOL    HW187250   3.492   9.464   6.180
95137SOL    HW287251   3.357   9.529   6.156
95138SOL     OW87252  14.743  10.621   9.995
95138SOL    HW187253  14.725  10.533  10.027
95138SOL    HW287254  14.729  10.617   9.901
95139SOL     OW87255   8.389   7.068   4.802
95139SOL    HW187256   8.470   7.046   4.755
95139SOL    HW287257   8.321   7.022   4.754
95140SOL     OW87258   5.079   5.399  10.362
95140SOL    HW187259   5.159   5.400  10.310
95140SOL    HW287260   5.109   5.387  10.452
95141SOL     OW87261   4.268   4.216   5.691
95141SOL    HW187262   4.330   4.279   5.729
95141SOL    HW287263   4.282   4.135   5.741
95142SOL     OW87264   4.987   8.438  13.789
95142SOL    HW187265   4.949   8.513  13.834
95142SOL    HW287266   5.074   8.468  13.762
95143SOL     OW87267  13.880   5.656   4.952
95143SOL    HW187268  13.851   5.667   5.042
95143SOL    HW287269  13.970   5.624   4.959
95144SOL     OW87270   4.997  13.802   2.935
95144SOL    HW187271   4.914  13.838   2.966
95144SOL    HW287272   5.006  13.834   2.845
95145SOL     OW87273   1.730   1.781  12.574
95145SOL    HW187274   1.740   1.847  12.505
95145SOL    HW287275   1.703   1.702  12.527
95146SOL     OW87276   2.503   7.410   9.031
95146SOL    HW187277   2.440   7.402   9.103
95146SOL    HW287278   2.454   7.381   8.954
95147SOL     OW87279  10.461   7.655  10.309
95147SOL    HW187280  10.441   7.732  10.363
95147SOL    HW287281  10.556   7.655  10.302
95148SOL     OW87282   1.852  14.248   8.641
95148SOL    HW187283   1.764  14.216   8.625
95148SOL    HW287284   1.884  14.274   8.555
95149SOL     OW87285   3.434  10.139   8.567
95149SOL    HW187286   3.437  10.089   8.648
95149SOL    HW287287   3.494  10.095   8.508
95150SOL     OW87288   3.401   5.557   5.609
95150SOL    HW187289   3.478   5.510   5.577
95150SOL    HW287290   3.339   5.488   5.633
95151SOL     OW87291   9.016   8.296  11.563
95151SOL    HW187292   8.973   8.262  11.485
95151SOL    HW287293   9.017   8.221  11.624
95152SOL     OW87294   1.626   9.024   2.578
95152SOL    HW187295   1.589   9.034   2.491
95152SOL    HW287296   1.656   9.112   2.602
95153SOL     OW87297   9.924  10.176   6.146
95153SOL    HW187298   9.933  10.208   6.235
95153SOL    HW287299  10.010  10.140   6.124
95154SOL     OW87300  13.020   5.295   1.574
95154SOL    HW187301  13.035   5.312   1.667
95154SOL    HW287302  12.941   5.345   1.553
95155SOL     OW87303   3.918  10.026  12.323
95155SOL    HW187304   3.878  10.083  12.258
95155SOL    HW287305   4.008  10.058  12.330
95156SOL     OW87306   2.702   6.331  12.686
95156SOL    HW187307   2.712   6.258  12.748
95156SOL    HW287308   2.777   6.388  12.705
95157SOL     OW87309   9.459  13.566   9.894
95157SOL    HW187310   9.458  13.654   9.932
95157SOL    HW287311   9.536  13.565   9.837
95158SOL     OW87312  12.531   4.959   3.780
95158SOL    HW187313  12.473   4.889   3.809
95158SOL    HW287314  12.547   4.941   3.687
95159SOL     OW87315  14.340   0.607   9.784
95159SOL    HW187316  14.250   0.604   9.818
95159SOL    HW287317  14.353   0.520   9.745
95160SOL     OW87318  14.163   1.863   1.959
95160SOL    HW187319  14.160   1.790   2.020
95160SOL    HW287320  14.105   1.837   1.887
95161SOL     OW87321   0.474   4.283   3.644
95161SOL    HW187322   0.495   4.266   3.735
95161SOL    HW287323   0.520   4.365   3.624
95162SOL     OW87324   3.504  13.908   5.906
95162SOL    HW187325   3.528  13.833   5.961
95162SOL    HW287326   3.455  13.870   5.833
95163SOL     OW87327   6.370   2.693  14.270
95163SOL    HW187328   6.385   2.714  14.362
95163SOL    HW287329   6.448   2.726  14.225
95164SOL     OW87330   5.624   9.253   7.046
95164SOL    HW187331   5.695   9.316   7.033
95164SOL    HW287332   5.555   9.304   7.089
95165SOL     OW87333   7.759   8.827   3.785
95165SOL    HW187334   7.672   8.790   3.802
95165SOL    HW287335   7.777   8.883   3.860
95166SOL     OW87336  13.213   5.985  10.381
95166SOL    HW187337  13.214   6.052  10.449
95166SOL    HW287338  13.304   5.959  10.370
95167SOL     OW87339  12.293  12.160  12.704
95167SOL    HW187340  12.271  12.160  12.611
95167SOL    HW287341  12.384  12.187  12.708
95168SOL     OW87342   1.751  12.225  14.570
95168SOL    HW187343   1.734  12.318  14.554
95168SOL    HW287344   1.811  12.200  14.500
95169SOL     OW87345   1.703   1.636   4.833
95169SOL    HW187346   1.635   1.590   4.883
95169SOL    HW287347   1.694   1.727   4.859
95170SOL     OW87348   9.894   8.508  14.845
95170SOL    HW187349   9.802   8.518  14.872
95170SOL    HW287350   9.936   8.467   0.047
95171SOL     OW87351   3.543  13.665  11.893
95171SOL    HW187352   3.574  13.750  11.864
95171SOL    HW287353   3.480  13.638  11.826
95172SOL     OW87354  10.976   6.726  11.609
95172SOL    HW187355  10.971   6.671  11.531
95172SOL    HW287356  10.918   6.800  11.590
95173SOL     OW87357   7.428   8.201   9.355
95173SOL    HW187358   7.476   8.128   9.395
95173SOL    HW287359   7.445   8.275   9.412
95174SOL     OW87360  11.553   1.536   5.152
95174SOL    HW187361  11.519   1.477   5.219
95174SOL    HW287362  11.480   1.595   5.134
95175SOL     OW87363   1.671   5.176  12.890
95175SOL    HW187364   1.739   5.167  12.823
95175SOL    HW287365   1.688   5.261  12.930
95176SOL     OW87366   8.582   3.458   4.590
95176SOL    HW187367   8.560   3.537   4.639
95176SOL    HW287368   8.521   3.392   4.623
95177SOL     OW87369   7.663   3.517   1.866
95177SOL    HW187370   7.570   3.496   1.875
95177SOL    HW287371   7.668   3.611   1.882
95178SOL     OW87372   3.342   1.804   8.309
95178SOL    HW187373   3.266   1.839   8.263
95178SOL    HW287374   3.414   1.864   8.288
95179SOL     OW87375   8.895   9.709   0.130
95179SOL    HW187376   8.810   9.701   0.086
95179SOL    HW287377   8.886   9.656   0.209
95180SOL     OW87378  14.862   5.144   9.395
95180SOL    HW187379  14.854   5.212   9.328
95180SOL    HW287380   0.083   5.128   9.403
95181SOL     OW87381   1.371   6.632   4.543
95181SOL    HW187382   1.391   6.648   4.451
95181SOL    HW287383   1.385   6.538   4.554
95182SOL     OW87384   1.212   4.566   3.834
95182SOL    HW187385   1.293   4.535   3.793
95182SOL    HW287386   1.218   4.538   3.925
95183SOL     OW87387  14.336   8.043   0.094
95183SOL    HW187388  14.320   7.956   0.129
95183SOL    HW287389  14.430   8.045   0.076
95184SOL     OW87390   8.306   2.523  14.090
95184SOL    HW187391   8.348   2.545  14.173
95184SOL    HW287392   8.358   2.451  14.055
95185SOL     OW87393   4.234   0.618   8.865
95185SOL    HW187394   4.166   0.673   8.826
95185SOL    HW287395   4.187   0.551   8.914
95186SOL     OW87396   3.419   7.791   3.761
95186SOL    HW187397   3.385   7.726   3.823
95186SOL    HW287398   3.511   7.767   3.749
95187SOL     OW87399   7.131   3.031   6.504
95187SOL    HW187400   7.107   3.120   6.530
95187SOL    HW287401   7.070   2.975   6.552
95188SOL     OW87402   1.942  11.585   2.108
95188SOL    HW187403   1.940  11.680   2.111
95188SOL    HW287404   1.986  11.564   2.025
95189SOL     OW87405   3.370   8.091   7.119
95189SOL    HW187406   3.285   8.058   7.090
95189SOL    HW287407   3.394   8.157   7.054
95190SOL     OW87408  11.850   1.122  11.645
95190SOL    HW187409  11.925   1.068  11.672
95190SOL    HW287410  11.775   1.083  11.689
95191SOL     OW87411   2.918   5.557   2.367
95191SOL    HW187412   2.964   5.533   2.447
95191SOL    HW287413   2.865   5.481   2.346
95192SOL     OW87414   8.564  14.121   5.285
95192SOL    HW187415   8.563  14.064   5.362
95192SOL    HW287416   8.611  14.199   5.314
95193SOL     OW87417  12.707   6.810  13.447
95193SOL    HW187418  12.670   6.736  13.496
95193SOL    HW287419  12.784   6.837  13.497
95194SOL     OW87420   7.805   8.888   9.405
95194SOL    HW187421   7.741   8.896   9.334
95194SOL    HW287422   7.855   8.810   9.384
95195SOL     OW87423  12.478   9.094   9.630
95195SOL    HW187424  12.437   9.065   9.712
95195SOL    HW287425  12.480   9.016   9.575
95196SOL     OW87426  14.699   7.497   9.587
95196SOL    HW187427  14.644   7.535   9.518
95196SOL    HW287428  14.640   7.491   9.662
95197SOL     OW87429   4.641   0.443   6.114
95197SOL    HW187430   4.561   0.433   6.063
95197SOL    HW287431   4.656   0.358   6.155
95198SOL     OW87432   5.980  14.574   9.190
95198SOL    HW187433   6.024  14.533   9.115
95198SOL    HW287434   6.051  14.616   9.239
95199SOL     OW87435   9.729   1.621   1.240
95199SOL    HW187436   9.726   1.526   1.245
95199SOL    HW287437   9.638   1.648   1.233
95200SOL     OW87438   6.007   5.777  11.573
95200SOL    HW187439   5.958   5.851  11.609
95200SOL    HW287440   6.085   5.817  11.534
95201SOL     OW87441   4.290   2.425  13.600
95201SOL    HW187442   4.301   2.519  13.591
95201SOL    HW287443   4.325   2.389  13.519
95202SOL     OW87444  11.597  14.430   8.938
95202SOL    HW187445  11.625  14.496   9.002
95202SOL    HW287446  11.610  14.472   8.853
95203SOL     OW87447  11.062   9.660  12.494
95203SOL    HW187448  11.053   9.572  12.458
95203SOL    HW287449  11.070   9.716  12.418
95204SOL     OW87450   2.486   8.766  14.630
95204SOL    HW187451   2.438   8.708  14.688
95204SOL    HW287452   2.546   8.708  14.582
95205SOL     OW87453   9.630  14.111  13.722
95205SOL    HW187454   9.724  14.128  13.709
95205SOL    HW287455   9.606  14.165  13.796
95206SOL     OW87456  12.699   6.541  13.222
95206SOL    HW187457  12.736   6.503  13.301
95206SOL    HW287458  12.633   6.478  13.193
95207SOL     OW87459   4.607  13.651   6.224
95207SOL    HW187460   4.570  13.569   6.192
95207SOL    HW287461   4.579  13.717   6.161
95208SOL     OW87462   0.341   2.686   5.092
95208SOL    HW187463   0.322   2.599   5.057
95208SOL    HW287464   0.335   2.744   5.017
95209SOL     OW87465  10.487   0.517   8.902
95209SOL    HW187466  10.485   0.422   8.902
95209SOL    HW287467  10.517   0.542   8.815
95210SOL     OW87468   9.363   4.079  14.197
95210SOL    HW187469   9.291   4.063  14.258
95210SOL    HW287470   9.336   4.157  14.148
95211SOL     OW87471  12.998  11.159   4.220
95211SOL    HW187472  13.054  11.164   4.143
95211SOL    HW287473  13.055  11.121   4.288
95212SOL     OW87474  11.872  14.465   4.823
95212SOL    HW187475  11.807  14.404   4.789
95212SOL    HW287476  11.953  14.413   4.829
95213SOL     OW87477   7.608  11.020   7.915
95213SOL    HW187478   7.682  11.081   7.914
95213SOL    HW287479   7.649  10.933   7.919
95214SOL     OW87480  14.627  14.777   7.617
95214SOL    HW187481  14.588  14.863   7.631
95214SOL    HW287482  14.618  14.733   7.702
95215SOL     OW87483   3.310   9.218   0.017
95215SOL    HW187484   3.236   9.160   0.033
95215SOL    HW287485   3.271   9.295  14.848
95216SOL     OW87486  12.329   3.149   5.046
95216SOL    HW187487  12.374   3.179   4.967
95216SOL    HW287488  12.253   3.101   5.014
95217SOL     OW87489   7.052   0.842  10.747
95217SOL    HW187490   7.013   0.864  10.832
95217SOL    HW287491   7.046   0.747  10.742
95218SOL     OW87492  13.742   7.911   4.255
95218SOL    HW187493  13.788   7.843   4.204
95218SOL    HW287494  13.793   7.990   4.239
95219SOL     OW87495   0.964   3.863   2.224
95219SOL    HW187496   1.028   3.916   2.177
95219SOL    HW287497   0.904   3.926   2.265
95220SOL     OW87498   5.913  13.560  10.066
95220SOL    HW187499   5.958  13.636  10.029
95220SOL    HW287500   5.822  13.587  10.073
95221SOL     OW87501   7.549   4.728   6.790
95221SOL    HW187502   7.507   4.657   6.839
95221SOL    HW287503   7.630   4.746   6.838
95222SOL     OW87504   7.570  10.484   3.284
95222SOL    HW187505   7.541  10.425   3.354
95222SOL    HW287506   7.660  10.508   3.309
95223SOL     OW87507  12.504   6.410   8.338
95223SOL    HW187508  12.556   6.479   8.296
95223SOL    HW287509  12.562   6.334   8.338
95224SOL     OW87510  11.999   1.426  13.281
95224SOL    HW187511  12.025   1.402  13.192
95224SOL    HW287512  12.077   1.411  13.334
95225SOL     OW87513   0.397   3.654  14.213
95225SOL    HW187514   0.486   3.658  14.177
95225SOL    HW287515   0.355   3.734  14.183
95226SOL     OW87516   0.904  14.698  11.861
95226SOL    HW187517   0.923  14.790  11.845
95226SOL    HW287518   0.906  14.657  11.775
95227SOL     OW87519   2.274  13.723   6.609
95227SOL    HW187520   2.206  13.790   6.597
95227SOL    HW287521   2.285  13.716   6.703
95228SOL     OW87522   7.121  11.497  11.318
95228SOL    HW187523   7.087  11.426  11.265
95228SOL    HW287524   7.105  11.576  11.266
95229SOL     OW87525   3.441   8.311   9.796
95229SOL    HW187526   3.531   8.324   9.825
95229SOL    HW287527   3.440   8.224   9.757
95230SOL     OW87528   1.836  14.617   4.862
95230SOL    HW187529   1.753  14.639   4.905
95230SOL    HW287530   1.902  14.632   4.930
95231SOL     OW87531   8.530   6.073   3.184
95231SOL    HW187532   8.478   5.993   3.180
95231SOL    HW287533   8.610   6.048   3.230
95232SOL     OW87534   5.599  14.658   4.705
95232SOL    HW187535   5.542  14.734   4.691
95232SOL    HW287536   5.624  14.632   4.616
95233SOL     OW87537   8.865   0.189   6.473
95233SOL    HW187538   8.880   0.178   6.380
95233SOL    HW287539   8.870   0.284   6.487
95234SOL     OW87540   4.298  10.731   0.916
95234SOL    HW187541   4.365  10.668   0.944
95234SOL    HW287542   4.342  10.784   0.849
95235SOL     OW87543   6.569   3.292   8.733
95235SOL    HW187544   6.590   3.375   8.691
95235SOL    HW287545   6.592   3.305   8.825
95236SOL     OW87546  11.804   0.350   9.640
95236SOL    HW187547  11.797   0.435   9.598
95236SOL    HW287548  11.765   0.362   9.726
95237SOL     OW87549   3.216   4.443   7.913
95237SOL    HW187550   3.205   4.531   7.879
95237SOL    HW287551   3.307   4.421   7.895
95238SOL     OW87552   6.643   6.402   1.997
95238SOL    HW187553   6.661   6.442   1.912
95238SOL    HW287554   6.548   6.392   2.000
95239SOL     OW87555   7.280  12.537   5.128
95239SOL    HW187556   7.286  12.508   5.037
95239SOL    HW287557   7.243  12.461   5.175
95240SOL     OW87558   6.571   6.834  12.696
95240SOL    HW187559   6.578   6.749  12.652
95240SOL    HW287560   6.492   6.873  12.660
95241SOL     OW87561  11.323  10.510  11.875
95241SOL    HW187562  11.267  10.505  11.953
95241SOL    HW287563  11.263  10.498  11.802
95242SOL     OW87564  14.310   2.953   0.427
95242SOL    HW187565  14.315   3.048   0.442
95242SOL    HW287566  14.217   2.932   0.434
95243SOL     OW87567  13.322   2.327   2.035
95243SOL    HW187568  13.402   2.279   2.013
95243SOL    HW287569  13.275   2.268   2.095
95244SOL     OW87570   1.595   6.157  13.256
95244SOL    HW187571   1.602   6.121  13.168
95244SOL    HW287572   1.522   6.109  13.296
95245SOL     OW87573   8.672   3.637  12.534
95245SOL    HW187574   8.630   3.669  12.454
95245SOL    HW287575   8.696   3.716  12.583
95246SOL     OW87576   1.899   4.576  14.817
95246SOL    HW187577   1.889   4.491  14.773
95246SOL    HW287578   1.823   4.627  14.788
95247SOL     OW87579   8.570   9.446   5.221
95247SOL    HW187580   8.502   9.389   5.256
95247SOL    HW287581   8.630   9.387   5.176
95248SOL     OW87582  13.557   2.610   4.220
95248SOL    HW187583  13.626   2.648   4.274
95248SOL    HW287584  13.533   2.529   4.265
95249SOL     OW87585   3.489  14.472  11.139
95249SOL    HW187586   3.479  14.448  11.047
95249SOL    HW287587   3.528  14.395  11.180
95250SOL     OW87588   0.523  12.150  12.816
95250SOL    HW187589   0.531  12.108  12.901
95250SOL    HW287590   0.546  12.242  12.832
95251SOL     OW87591  12.462  11.737   0.814
95251SOL    HW187592  12.443  11.661   0.760
95251SOL    HW287593  12.465  11.810   0.753
95252SOL     OW87594  13.989  14.107   4.795
95252SOL    HW187595  13.896  14.117   4.776
95252SOL    HW287596  14.016  14.031   4.744
95253SOL     OW87597   4.618   8.208   2.027
95253SOL    HW187598   4.547   8.154   2.060
95253SOL    HW287599   4.576   8.288   1.996
95254SOL     OW87600   2.898  14.752   9.221
95254SOL    HW187601   2.813  14.729   9.257
95254SOL    HW287602   2.914  14.686   9.153
95255SOL     OW87603   7.325   1.170   0.841
95255SOL    HW187604   7.312   1.247   0.897
95255SOL    HW287605   7.320   1.096   0.901
95256SOL     OW87606   7.620  10.248   5.683
95256SOL    HW187607   7.665  10.178   5.729
95256SOL    HW287608   7.613  10.319   5.747
95257SOL     OW87609   0.130  14.063  14.048
95257SOL    HW187610   0.061  14.124  14.076
95257SOL    HW287611   0.212  14.108  14.072
95258SOL     OW87612   9.985  10.996   1.798
95258SOL    HW187613  10.015  10.946   1.874
95258SOL    HW287614   9.983  10.933   1.726
95259SOL     OW87615   6.770  11.734  10.697
95259SOL    HW187616   6.815  11.765  10.776
95259SOL    HW287617   6.680  11.719  10.724
95260SOL     OW87618   6.609   1.230   0.816
95260SOL    HW187619   6.691   1.256   0.775
95260SOL    HW287620   6.565   1.312   0.839
95261SOL     OW87621  13.172  10.538  11.978
95261SOL    HW187622  13.260  10.562  12.007
95261SOL    HW287623  13.128  10.509  12.058
95262SOL     OW87624  11.178   5.942  10.965
95262SOL    HW187625  11.141   5.857  10.990
95262SOL    HW287626  11.185   5.991  11.047
95263SOL     OW87627   4.069   0.626   0.071
95263SOL    HW187628   4.006   0.686   0.030
95263SOL    HW287629   4.137   0.683   0.106
95264SOL     OW87630   7.161   0.959   2.918
95264SOL    HW187631   7.140   1.014   2.843
95264SOL    HW287632   7.082   0.906   2.932
95265SOL     OW87633   3.970   7.770   7.479
95265SOL    HW187634   4.063   7.780   7.501
95265SOL    HW287635   3.969   7.716   7.400
95266SOL     OW87636   9.224  12.214  11.534
95266SOL    HW187637   9.262  12.268  11.465
95266SOL    HW287638   9.215  12.127  11.495
95267SOL     OW87639   1.129   3.611   1.833
95267SOL    HW187640   1.129   3.582   1.742
95267SOL    HW287641   1.036   3.616   1.857
95268SOL     OW87642   5.150   4.329   1.056
95268SOL    HW187643   5.193   4.284   0.983
95268SOL    HW287644   5.111   4.259   1.108
95269SOL     OW87645   3.820  12.066  11.976
95269SOL    HW187646   3.823  12.008  11.900
95269SOL    HW287647   3.903  12.050  12.021
95270SOL     OW87648   9.620   9.916   7.432
95270SOL    HW187649   9.671   9.846   7.472
95270SOL    HW287650   9.552   9.871   7.382
95271SOL     OW87651   9.561   3.905   1.787
95271SOL    HW187652   9.621   3.963   1.739
95271SOL    HW287653   9.616   3.865   1.854
95272SOL     OW87654   2.023  13.657   8.652
95272SOL    HW187655   1.937  13.628   8.685
95272SOL    HW287656   2.055  13.715   8.721
95273SOL     OW87657   9.938  13.036   8.588
95273SOL    HW187658   9.981  12.961   8.548
95273SOL    HW287659   9.856  13.045   8.539
95274SOL     OW87660  12.286   0.757   1.117
95274SOL    HW187661  12.349   0.709   1.171
95274SOL    HW287662  12.260   0.694   1.050
95275SOL     OW87663  10.457   5.560  11.398
95275SOL    HW187664  10.441   5.468  11.417
95275SOL    HW287665  10.382   5.588  11.346
95276SOL     OW87666  12.065   7.487   1.459
95276SOL    HW187667  12.108   7.568   1.431
95276SOL    HW287668  11.987   7.515   1.507
95277SOL     OW87669   0.131   3.301  12.679
95277SOL    HW187670   0.053   3.355  12.674
95277SOL    HW287671   0.193   3.341  12.618
95278SOL     OW87672  10.775   1.972   6.620
95278SOL    HW187673  10.775   1.988   6.526
95278SOL    HW287674  10.705   1.909   6.634
95279SOL     OW87675  14.364   1.403   9.095
95279SOL    HW187676  14.283   1.358   9.121
95279SOL    HW287677  14.338   1.456   9.020
95280SOL     OW87678  11.601   8.638  12.921
95280SOL    HW187679  11.674   8.590  12.881
95280SOL    HW287680  11.596   8.719  12.870
95281SOL     OW87681  10.714   1.724   9.725
95281SOL    HW187682  10.669   1.688   9.648
95281SOL    HW287683  10.768   1.652   9.757
95282SOL     OW87684   5.880   5.062  14.091
95282SOL    HW187685   5.895   5.095  14.002
95282SOL    HW287686   5.906   4.971  14.087
95283SOL     OW87687  10.312  12.162  14.654
95283SOL    HW187688  10.268  12.239  14.617
95283SOL    HW287689  10.400  12.165  14.616
95284SOL     OW87690  10.244   3.027  14.029
95284SOL    HW187691  10.196   3.109  14.018
95284SOL    HW287692  10.243   2.987  13.942
95285SOL     OW87693   0.854   4.154   0.218
95285SOL    HW187694   0.849   4.179   0.310
95285SOL    HW287695   0.844   4.059   0.218
95286SOL     OW87696  14.269   6.233   2.310
95286SOL    HW187697  14.353   6.255   2.351
95286SOL    HW287698  14.283   6.246   2.217
95287SOL     OW87699  11.871  13.265   8.481
95287SOL    HW187700  11.777  13.280   8.471
95287SOL    HW287701  11.902  13.250   8.391
95288SOL     OW87702   4.914   1.081  14.085
95288SOL    HW187703   4.913   0.989  14.059
95288SOL    HW287704   4.827   1.096  14.122
95289SOL     OW87705  14.724   9.464   9.224
95289SOL    HW187706  14.818   9.470   9.239
95289SOL    HW287707  14.715   9.446   9.130
95290SOL     OW87708   4.540   4.111  13.887
95290SOL    HW187709   4.484   4.189  13.889
95290SOL    HW287710   4.617   4.135  13.939
95291SOL     OW87711  12.246   1.416   1.923
95291SOL    HW187712  12.295   1.366   1.857
95291SOL    HW287713  12.155   1.388   1.909
95292SOL     OW87714   6.242   6.587  11.686
95292SOL    HW187715   6.296   6.579  11.766
95292SOL    HW287716   6.291   6.647  11.630
95293SOL     OW87717   9.914   4.815   3.894
95293SOL    HW187718   9.929   4.761   3.816
95293SOL    HW287719   9.870   4.756   3.955
95294SOL     OW87720  14.780   9.111   2.072
95294SOL    HW187721  14.722   9.086   2.145
95294SOL    HW287722  14.722   9.151   2.008
95295SOL     OW87723   1.326   2.182   3.223
95295SOL    HW187724   1.328   2.107   3.163
95295SOL    HW287725   1.320   2.258   3.166
95296SOL     OW87726  11.889   1.619   2.564
95296SOL    HW187727  11.829   1.544   2.560
95296SOL    HW287728  11.973   1.583   2.535
95297SOL     OW87729  10.143   0.159   4.216
95297SOL    HW187730  10.160   0.065   4.227
95297SOL    HW287731  10.068   0.163   4.157
95298SOL     OW87732   0.323   0.790   1.738
95298SOL    HW187733   0.260   0.843   1.689
95298SOL    HW287734   0.302   0.700   1.715
95299SOL     OW87735   5.426  12.892   5.820
95299SOL    HW187736   5.446  12.814   5.872
95299SOL    HW287737   5.511  12.936   5.811
95300SOL     OW87738   8.315   4.939   4.242
95300SOL    HW187739   8.284   4.975   4.325
95300SOL    HW287740   8.275   4.994   4.175
95301SOL     OW87741   0.192  13.164  11.575
95301SOL    HW187742   0.145  13.081  11.579
95301SOL    HW287743   0.187  13.190  11.483
95302SOL     OW87744   3.194   8.812  14.716
95302SOL    HW187745   3.207   8.849  14.803
95302SOL    HW287746   3.220   8.883  14.656
95303SOL     OW87747  13.707  10.266   0.325
95303SOL    HW187748  13.639  10.273   0.391
95303SOL    HW287749  13.784  10.233   0.372
95304SOL     OW87750   0.791   9.115   5.630
95304SOL    HW187751   0.840   9.105   5.549
95304SOL    HW287752   0.756   9.204   5.627
95305SOL     OW87753   9.849   2.839  14.252
95305SOL    HW187754   9.814   2.919  14.292
95305SOL    HW287755   9.890   2.869  14.172
95306SOL     OW87756  13.033  13.503   3.138
95306SOL    HW187757  13.088  13.569   3.094
95306SOL    HW287758  12.951  13.505   3.089
95307SOL     OW87759  11.384   7.142   0.329
95307SOL    HW187760  11.345   7.081   0.391
95307SOL    HW287761  11.365   7.229   0.366
95308SOL     OW87762  12.883   4.829  11.595
95308SOL    HW187763  12.801   4.857  11.555
95308SOL    HW287764  12.856   4.777  11.671
95309SOL     OW87765   1.768  10.773   7.987
95309SOL    HW187766   1.723  10.782   7.903
95309SOL    HW287767   1.820  10.853   7.994
95310SOL     OW87768   7.634  13.620   3.335
95310SOL    HW187769   7.620  13.663   3.420
95310SOL    HW287770   7.554  13.572   3.319
95311SOL     OW87771   5.853   2.045   2.797
95311SOL    HW187772   5.807   2.119   2.758
95311SOL    HW287773   5.882   2.077   2.882
95312SOL     OW87774  10.910   1.179   0.160
95312SOL    HW187775  10.915   1.267   0.123
95312SOL    HW287776  10.846   1.134   0.106
95313SOL     OW87777   3.305  13.700   1.377
95313SOL    HW187778   3.357  13.688   1.457
95313SOL    HW287779   3.345  13.775   1.334
95314SOL     OW87780   5.315   6.146   2.607
95314SOL    HW187781   5.220   6.156   2.598
95314SOL    HW287782   5.343   6.106   2.525
95315SOL     OW87783  10.513  12.061   6.499
95315SOL    HW187784  10.576  11.998   6.535
95315SOL    HW287785  10.516  12.135   6.560
95316SOL     OW87786   1.550   5.498  13.552
95316SOL    HW187787   1.588   5.576  13.510
95316SOL    HW287788   1.609   5.480  13.625
95317SOL     OW87789   0.194   9.296   4.779
95317SOL    HW187790   0.246   9.246   4.716
95317SOL    HW287791   0.259   9.339   4.835
95318SOL     OW87792   9.462  13.544   2.027
95318SOL    HW187793   9.432  13.607   2.093
95318SOL    HW287794   9.477  13.463   2.076
95319SOL     OW87795   1.431  11.515   4.983
95319SOL    HW187796   1.347  11.484   4.948
95319SOL    HW287797   1.438  11.605   4.951
95320SOL     OW87798  10.497   2.672  11.646
95320SOL    HW187799  10.551   2.750  11.650
95320SOL    HW287800  10.407   2.704  11.647
95321SOL     OW87801  12.322   8.876  12.972
95321SOL    HW187802  12.412   8.859  12.997
95321SOL    HW287803  12.298   8.799  12.919
95322SOL     OW87804   9.731  10.453   1.733
95322SOL    HW187805   9.731  10.359   1.717
95322SOL    HW287806   9.757  10.462   1.825
95323SOL     OW87807   2.344   5.003   0.014
95323SOL    HW187808   2.424   5.024   0.063
95323SOL    HW287809   2.287   5.078   0.029
95324SOL     OW87810   7.018  14.215   7.262
95324SOL    HW187811   6.983  14.137   7.220
95324SOL    HW287812   7.094  14.185   7.311
95325SOL     OW87813  13.892   1.230   1.881
95325SOL    HW187814  13.949   1.225   1.804
95325SOL    HW287815  13.893   1.323   1.905
95326SOL     OW87816   2.463   4.305  12.380
95326SOL    HW187817   2.441   4.370  12.313
95326SOL    HW287818   2.444   4.350  12.463
95327SOL     OW87819   3.968  12.656  13.437
95327SOL    HW187820   3.991  12.692  13.523
95327SOL    HW287821   3.898  12.594  13.455
95328SOL     OW87822   1.818   1.594   4.419
95328SOL    HW187823   1.814   1.641   4.336
95328SOL    HW287824   1.726   1.577   4.441
95329SOL     OW87825  14.130  12.969   5.426
95329SOL    HW187826  14.102  12.923   5.505
95329SOL    HW287827  14.225  12.979   5.437
95330SOL     OW87828   1.053   7.207   2.544
95330SOL    HW187829   1.008   7.267   2.485
95330SOL    HW287830   1.087   7.137   2.487
95331SOL     OW87831   6.408   4.507   5.078
95331SOL    HW187832   6.489   4.521   5.127
95331SOL    HW287833   6.383   4.416   5.096
95332SOL     OW87834   6.403   6.846   0.803
95332SOL    HW187835   6.365   6.911   0.744
95332SOL    HW287836   6.491   6.880   0.822
95333SOL     OW87837   1.596   0.144   2.912
95333SOL    HW187838   1.571   0.174   2.824
95333SOL    HW287839   1.681   0.184   2.928
95334SOL     OW87840  11.891  11.064   3.325
95334SOL    HW187841  11.969  11.082   3.377
95334SOL    HW287842  11.913  11.094   3.237
95335SOL     OW87843   0.659   5.835   5.613
95335SOL    HW187844   0.612   5.904   5.567
95335SOL    HW287845   0.695   5.780   5.544
95336SOL     OW87846   8.174   6.798   0.714
95336SOL    HW187847   8.142   6.888   0.708
95336SOL    HW287848   8.174   6.778   0.807
95337SOL     OW87849  10.344   5.044  14.446
95337SOL    HW187850  10.339   5.092  14.529
95337SOL    HW287851  10.286   4.970  14.458
95338SOL     OW87852   2.282  14.539   7.022
95338SOL    HW187853   2.207  14.514   7.076
95338SOL    HW287854   2.273  14.487   6.942
95339SOL     OW87855   7.038   0.020   6.296
95339SOL    HW187856   7.127   0.021   6.333
95339SOL    HW287857   6.981   0.018   6.373
95340SOL     OW87858   0.637  10.751   1.683
95340SOL    HW187859   0.668  10.749   1.774
95340SOL    HW287860   0.542  10.755   1.691
95341SOL     OW87861   8.951   1.169   3.704
95341SOL    HW187862   8.990   1.082   3.718
95341SOL    HW287863   8.882   1.154   3.639
95342SOL     OW87864   1.864   4.446   1.305
95342SOL    HW187865   1.882   4.436   1.212
95342SOL    HW287866   1.830   4.535   1.314
95343SOL     OW87867   0.919   4.112   6.964
95343SOL    HW187868   0.827   4.139   6.968
95343SOL    HW287869   0.933   4.090   6.872
95344SOL     OW87870  12.033   4.199   3.168
95344SOL    HW187871  12.108   4.224   3.222
95344SOL    HW287872  12.012   4.110   3.195
95345SOL     OW87873  10.266  14.757   1.230
95345SOL    HW187874  10.362  14.759   1.241
95345SOL    HW287875  10.248  14.671   1.193
95346SOL     OW87876  13.757   0.217   6.729
95346SOL    HW187877  13.731   0.236   6.819
95346SOL    HW287878  13.710   0.281   6.676
95347SOL     OW87879   4.398  13.025   6.923
95347SOL    HW187880   4.450  12.954   6.959
95347SOL    HW287881   4.456  13.101   6.925
95348SOL     OW87882   8.322   6.094  12.277
95348SOL    HW187883   8.353   6.102  12.367
95348SOL    HW287884   8.233   6.129  12.279
95349SOL     OW87885   1.178  14.227  10.140
95349SOL    HW187886   1.152  14.318  10.158
95349SOL    HW287887   1.199  14.191  10.226
95350SOL     OW87888  14.816   7.503  12.272
95350SOL    HW187889  14.767   7.572  12.227
95350SOL    HW287890  14.770   7.493  12.356
95351SOL     OW87891  11.868   5.496   1.516
95351SOL    HW187892  11.796   5.558   1.505
95351SOL    HW287893  11.833   5.427   1.572
95352SOL     OW87894  12.414   2.492   0.194
95352SOL    HW187895  12.439   2.584   0.198
95352SOL    HW287896  12.482   2.452   0.139
95353SOL     OW87897   6.088   0.107   2.417
95353SOL    HW187898   6.134   0.170   2.361
95353SOL    HW287899   6.013   0.156   2.451
95354SOL     OW87900  14.276   4.840  10.609
95354SOL    HW187901  14.367   4.860  10.629
95354SOL    HW287902  14.241   4.922  10.573
95355SOL     OW87903   0.854   6.558  11.157
95355SOL    HW187904   0.892   6.472  11.175
95355SOL    HW287905   0.856   6.565  11.061
95356SOL     OW87906   1.629   7.587   4.148
95356SOL    HW187907   1.619   7.498   4.182
95356SOL    HW287908   1.719   7.612   4.172
95357SOL     OW87909   6.163   0.556   1.655
95357SOL    HW187910   6.178   0.479   1.710
95357SOL    HW287911   6.104   0.611   1.706
95358SOL     OW87912   5.073   2.106   3.331
95358SOL    HW187913   5.047   2.176   3.271
95358SOL    HW287914   5.153   2.139   3.373
95359SOL     OW87915  12.468   4.560   2.886
95359SOL    HW187916  12.411   4.631   2.858
95359SOL    HW287917  12.428   4.528   2.967
95360SOL     OW87918   9.998  14.434   2.118
95360SOL    HW187919  10.091  14.414   2.101
95360SOL    HW287920   9.971  14.366   2.180
95361SOL     OW87921   5.293   4.989  12.929
95361SOL    HW187922   5.222   5.049  12.953
95361SOL    HW287923   5.291   4.922  12.997
95362SOL     OW87924  13.637  10.283  12.208
95362SOL    HW187925  13.708  10.231  12.172
95362SOL    HW287926  13.680  10.363  12.239
95363SOL     OW87927   5.773  11.632   3.037
95363SOL    HW187928   5.837  11.701   3.018
95363SOL    HW287929   5.824  11.551   3.036
95364SOL     OW87930   3.237   1.988  13.513
95364SOL    HW187931   3.201   1.987  13.424
95364SOL    HW287932   3.329   2.010  13.501
95365SOL     OW87933   5.600   8.214   5.427
95365SOL    HW187934   5.625   8.208   5.335
95365SOL    HW287935   5.558   8.130   5.446
95366SOL     OW87936  12.480  11.635   3.360
95366SOL    HW187937  12.522  11.694   3.422
95366SOL    HW287938  12.389  11.632   3.388
95367SOL     OW87939   5.599   3.166  10.622
95367SOL    HW187940   5.588   3.086  10.570
95367SOL    HW287941   5.572   3.141  10.710
95368SOL     OW87942   5.148  13.412  12.482
95368SOL    HW187943   5.215  13.459  12.434
95368SOL    HW287944   5.092  13.480  12.520
95369SOL     OW87945   4.964  12.132   9.716
95369SOL    HW187946   5.025  12.059   9.727
95369SOL    HW287947   4.979  12.189   9.791
95370SOL     OW87948   1.007   6.825   6.804
95370SOL    HW187949   0.942   6.757   6.791
95370SOL    HW287950   1.056   6.828   6.721
95371SOL     OW87951  11.476  13.620   8.430
95371SOL    HW187952  11.433  13.567   8.362
95371SOL    HW287953  11.407  13.677   8.463
95372SOL     OW87954   9.268   9.857  11.176
95372SOL    HW187955   9.317   9.844  11.095
95372SOL    HW287956   9.301   9.940  11.211
95373SOL     OW87957   9.698  12.669   6.188
95373SOL    HW187958   9.719  12.757   6.156
95373SOL    HW287959   9.746  12.661   6.270
95374SOL     OW87960   8.664  13.515   9.260
95374SOL    HW187961   8.701  13.601   9.280
95374SOL    HW287962   8.590  13.534   9.202
95375SOL     OW87963  13.703  12.339  11.692
95375SOL    HW187964  13.689  12.246  11.673
95375SOL    HW287965  13.654  12.355  11.773
95376SOL     OW87966  10.993  14.658  11.877
95376SOL    HW187967  11.082  14.644  11.910
95376SOL    HW287968  10.974  14.579  11.826
95377SOL     OW87969   4.788  14.352   5.339
95377SOL    HW187970   4.762  14.348   5.247
95377SOL    HW287971   4.883  14.360   5.337
95378SOL     OW87972   5.631   1.768  11.356
95378SOL    HW187973   5.645   1.720  11.439
95378SOL    HW287974   5.719   1.794  11.329
95379SOL     OW87975   1.298   2.116   3.847
95379SOL    HW187976   1.292   2.030   3.889
95379SOL    HW287977   1.212   2.155   3.860
95380SOL     OW87978   7.723   5.394  12.643
95380SOL    HW187979   7.807   5.408  12.686
95380SOL    HW287980   7.713   5.299  12.640
95381SOL     OW87981  11.030   3.109  14.843
95381SOL    HW187982  10.976   3.188  14.846
95381SOL    HW287983  11.034   3.080   0.061
95382SOL     OW87984  12.333   7.621   7.705
95382SOL    HW187985  12.382   7.642   7.785
95382SOL    HW287986  12.271   7.554   7.732
95383SOL     OW87987   3.151  13.628   0.854
95383SOL    HW187988   3.070  13.642   0.805
95383SOL    HW287989   3.122  13.595   0.939
95384SOL     OW87990   9.816   4.755   8.590
95384SOL    HW187991   9.846   4.806   8.514
95384SOL    HW287992   9.817   4.664   8.559
95385SOL     OW87993  14.099   2.584   8.492
95385SOL    HW187994  14.127   2.592   8.400
95385SOL    HW287995  14.070   2.672   8.516
95386SOL     OW87996   2.349  10.919   1.509
95386SOL    HW187997   2.420  10.897   1.569
95386SOL    HW287998   2.316  10.835   1.478
95387SOL     OW87999  10.517   7.179  12.080
95387SOL    HW188000  10.438   7.168  12.026
95387SOL    HW288001  10.585   7.204  12.017
95388SOL     OW88002  11.898  13.593   8.294
95388SOL    HW188003  11.929  13.683   8.301
95388SOL    HW288004  11.850  13.577   8.375
95389SOL     OW88005   2.362   7.779   6.257
95389SOL    HW188006   2.407   7.736   6.185
95389SOL    HW288007   2.395   7.869   6.256
95390SOL     OW88008   9.180  14.170   2.387
95390SOL    HW188009   9.135  14.086   2.397
95390SOL    HW288010   9.131  14.230   2.442
95391SOL     OW88011   8.262  13.548   3.917
95391SOL    HW188012   8.320  13.532   3.991
95391SOL    HW288013   8.232  13.638   3.929
95392SOL     OW88014   3.960   0.095   3.257
95392SOL    HW188015   4.028   0.161   3.266
95392SOL    HW288016   3.894   0.118   3.323
95393SOL     OW88017  10.923   7.933   0.938
95393SOL    HW188018  10.873   7.851   0.937
95393SOL    HW288019  10.877   7.988   1.001
95394SOL     OW88020   5.940   4.401   1.806
95394SOL    HW188021   5.983   4.316   1.823
95394SOL    HW288022   5.848   4.386   1.829
95395SOL     OW88023   1.927  11.118   2.391
95395SOL    HW188024   1.953  11.028   2.376
95395SOL    HW288025   2.007  11.169   2.380
95396SOL     OW88026   9.195   4.782   9.181
95396SOL    HW188027   9.221   4.689   9.182
95396SOL    HW288028   9.101   4.780   9.164
95397SOL     OW88029  13.590   6.779  12.921
95397SOL    HW188030  13.518   6.834  12.952
95397SOL    HW288031  13.565   6.691  12.948
95398SOL     OW88032   4.067   5.587   3.532
95398SOL    HW188033   4.001   5.652   3.509
95398SOL    HW288034   4.061   5.579   3.628
95399SOL     OW88035  13.261  10.624  10.494
95399SOL    HW188036  13.338  10.681  10.500
95399SOL    HW288037  13.249  10.591  10.583
95400SOL     OW88038  13.687   6.304  11.048
95400SOL    HW188039  13.770   6.342  11.077
95400SOL    HW288040  13.710   6.215  11.020
95401SOL     OW88041   3.631  12.250   8.833
95401SOL    HW188042   3.695  12.319   8.814
95401SOL    HW288043   3.603  12.218   8.747
95402SOL     OW88044   2.885   3.186  12.113
95402SOL    HW188045   2.823   3.212  12.045
95402SOL    HW288046   2.958   3.247  12.104
95403SOL     OW88047   2.680   7.819  10.960
95403SOL    HW188048   2.713   7.872  10.888
95403SOL    HW288049   2.644   7.882  11.022
95404SOL     OW88050   1.938   5.172   3.432
95404SOL    HW188051   1.991   5.191   3.509
95404SOL    HW288052   1.850   5.202   3.455
95405SOL     OW88053   0.061   6.545   4.995
95405SOL    HW188054   0.015   6.491   4.930
95405SOL    HW288055   0.079   6.485   5.067
95406SOL     OW88056  13.383   2.476  12.478
95406SOL    HW188057  13.419   2.389  12.494
95406SOL    HW288058  13.343   2.501  12.562
95407SOL     OW88059   3.631   3.716   6.292
95407SOL    HW188060   3.699   3.650   6.302
95407SOL    HW288061   3.679   3.799   6.285
95408SOL     OW88062   5.009  12.922   4.169
95408SOL    HW188063   5.004  12.878   4.084
95408SOL    HW288064   4.938  12.882   4.220
95409SOL     OW88065   6.213   2.924   2.560
95409SOL    HW188066   6.261   3.002   2.589
95409SOL    HW288067   6.206   2.934   2.465
95410SOL     OW88068   2.231   3.783   8.759
95410SOL    HW188069   2.182   3.863   8.739
95410SOL    HW288070   2.294   3.776   8.687
95411SOL     OW88071   0.553   4.919   4.605
95411SOL    HW188072   0.624   4.948   4.663
95411SOL    HW288073   0.595   4.905   4.520
95412SOL     OW88074   9.129   3.912   6.291
95412SOL    HW188075   9.105   3.878   6.205
95412SOL    HW288076   9.166   3.999   6.273
95413SOL     OW88077   9.668   0.391   4.872
95413SOL    HW188078   9.706   0.404   4.959
95413SOL    HW288079   9.665   0.296   4.861
95414SOL     OW88080   8.487   9.097   8.267
95414SOL    HW188081   8.515   9.187   8.255
95414SOL    HW288082   8.493   9.082   8.362
95415SOL     OW88083   9.396   1.753   2.383
95415SOL    HW188084   9.442   1.814   2.325
95415SOL    HW288085   9.406   1.791   2.471
95416SOL     OW88086  14.838  14.769   1.837
95416SOL    HW188087  14.853  14.862   1.817
95416SOL    HW288088   0.007  14.722   1.765
95417SOL     OW88089  10.906  13.887   2.667
95417SOL    HW188090  10.925  13.875   2.574
95417SOL    HW288091  10.966  13.826   2.712
95418SOL     OW88092  11.491   8.345  10.594
95418SOL    HW188093  11.481   8.371  10.502
95418SOL    HW288094  11.546   8.267  10.590
95419SOL     OW88095   5.436   7.300   5.808
95419SOL    HW188096   5.510   7.260   5.855
95419SOL    HW288097   5.477   7.359   5.746
95420SOL     OW88098  14.236  11.486   1.007
95420SOL    HW188099  14.168  11.514   0.946
95420SOL    HW288100  14.316  11.484   0.955
95421SOL     OW88101   1.073  13.697   6.813
95421SOL    HW188102   1.028  13.643   6.878
95421SOL    HW288103   1.007  13.760   6.785
95422SOL     OW88104   7.336   4.546   2.498
95422SOL    HW188105   7.284   4.626   2.492
95422SOL    HW288106   7.272   4.475   2.487
95423SOL     OW88107   4.468   7.791   7.482
95423SOL    HW188108   4.548   7.740   7.468
95423SOL    HW288109   4.433   7.806   7.394
95424SOL     OW88110   9.564  11.126   6.885
95424SOL    HW188111   9.594  11.133   6.794
95424SOL    HW288112   9.492  11.189   6.891
95425SOL     OW88113   5.528   0.472   7.641
95425SOL    HW188114   5.467   0.544   7.625
95425SOL    HW288115   5.491   0.425   7.715
95426SOL     OW88116  14.166   3.423   1.906
95426SOL    HW188117  14.219   3.426   1.826
95426SOL    HW288118  14.076   3.420   1.875
95427SOL     OW88119   0.769   3.080  13.158
95427SOL    HW188120   0.800   2.989  13.157
95427SOL    HW288121   0.719   3.087  13.239
95428SOL     OW88122   5.111   3.443   0.550
95428SOL    HW188123   5.144   3.519   0.502
95428SOL    HW288124   5.185   3.383   0.553
95429SOL     OW88125  11.593   2.048   9.801
95429SOL    HW188126  11.520   1.987   9.816
95429SOL    HW288127  11.581   2.116   9.867
95430SOL     OW88128  12.652   7.246  11.946
95430SOL    HW188129  12.690   7.170  11.990
95430SOL    HW288130  12.704   7.256  11.866
95431SOL     OW88131   2.994   6.133  10.025
95431SOL    HW188132   2.957   6.055  10.067
95431SOL    HW288133   3.084   6.136  10.056
95432SOL     OW88134   5.010   2.700   3.163
95432SOL    HW188135   5.081   2.644   3.195
95432SOL    HW288136   4.933   2.673   3.215
95433SOL     OW88137   1.139  12.472  14.312
95433SOL    HW188138   1.046  12.492  14.327
95433SOL    HW288139   1.167  12.428  14.393
95434SOL     OW88140   9.694   7.596  14.505
95434SOL    HW188141   9.640   7.633  14.435
95434SOL    HW288142   9.671   7.647  14.582
95435SOL     OW88143  12.282  10.641  12.029
95435SOL    HW188144  12.358  10.661  12.084
95435SOL    HW288145  12.309  10.564  11.979
95436SOL     OW88146   4.411  13.757   0.772
95436SOL    HW188147   4.459  13.826   0.727
95436SOL    HW288148   4.478  13.697   0.805
95437SOL     OW88149  13.674   7.453   6.365
95437SOL    HW188150  13.698   7.453   6.457
95437SOL    HW288151  13.626   7.535   6.352
95438SOL     OW88152  11.176   3.392  11.144
95438SOL    HW188153  11.227   3.361  11.218
95438SOL    HW288154  11.241   3.415  11.078
95439SOL     OW88155   7.033   3.768   0.980
95439SOL    HW188156   7.035   3.680   1.018
95439SOL    HW288157   7.002   3.755   0.890
95440SOL     OW88158   1.623  10.136   5.285
95440SOL    HW188159   1.598  10.049   5.318
95440SOL    HW288160   1.684  10.170   5.351
95441SOL     OW88161   3.984   1.986   5.577
95441SOL    HW188162   3.987   1.891   5.569
95441SOL    HW288163   3.916   2.003   5.643
95442SOL     OW88164   3.244   4.421  12.957
95442SOL    HW188165   3.179   4.365  12.915
95442SOL    HW288166   3.297   4.360  13.009
95443SOL     OW88167   0.499  14.287   2.643
95443SOL    HW188168   0.518  14.195   2.662
95443SOL    HW288169   0.541  14.303   2.558
95444SOL     OW88170   8.614   0.227   2.595
95444SOL    HW188171   8.640   0.283   2.522
95444SOL    HW288172   8.682   0.160   2.598
95445SOL     OW88173  14.312   1.223   4.656
95445SOL    HW188174  14.309   1.162   4.582
95445SOL    HW288175  14.241   1.284   4.640
95446SOL     OW88176   7.013  12.830   4.869
95446SOL    HW188177   7.070  12.781   4.810
95446SOL    HW288178   6.928  12.786   4.861
95447SOL     OW88179   8.459  13.667   5.887
95447SOL    HW188180   8.404  13.599   5.847
95447SOL    HW288181   8.546  13.628   5.890
95448SOL     OW88182  11.989  11.361  12.111
95448SOL    HW188183  11.923  11.307  12.155
95448SOL    HW288184  11.949  11.448  12.106
95449SOL     OW88185   5.212  13.369   1.050
95449SOL    HW188186   5.219  13.460   1.079
95449SOL    HW288187   5.283  13.324   1.095
95450SOL     OW88188   4.596   9.745  10.399
95450SOL    HW188189   4.633   9.783  10.319
95450SOL    HW288190   4.661   9.764  10.466
95451SOL     OW88191   4.731   8.105  14.243
95451SOL    HW188192   4.702   8.058  14.165
95451SOL    HW288193   4.816   8.066  14.264
95452SOL     OW88194  14.486   2.504  12.711
95452SOL    HW188195  14.416   2.563  12.739
95452SOL    HW288196  14.493   2.440  12.782
95453SOL     OW88197   1.780  12.259  10.798
95453SOL    HW188198   1.705  12.258  10.858
95453SOL    HW288199   1.814  12.169  10.800
95454SOL     OW88200  14.514   8.821   4.102
95454SOL    HW188201  14.455   8.830   4.027
95454SOL    HW288202  14.516   8.726   4.118
95455SOL     OW88203   3.246   6.747   5.403
95455SOL    HW188204   3.207   6.833   5.390
95455SOL    HW288205   3.221   6.722   5.492
95456SOL     OW88206   7.004   5.021  13.421
95456SOL    HW188207   6.917   5.005  13.383
95456SOL    HW288208   7.025   4.941  13.468
95457SOL     OW88209   3.767   6.087   9.853
95457SOL    HW188210   3.704   6.055   9.917
95457SOL    HW288211   3.720   6.154   9.804
95458SOL     OW88212   2.787   4.058   1.313
95458SOL    HW188213   2.763   4.028   1.225
95458SOL    HW288214   2.862   4.116   1.299
95459SOL     OW88215   6.136   8.871   6.071
95459SOL    HW188216   6.102   8.791   6.031
95459SOL    HW288217   6.204   8.841   6.131
95460SOL     OW88218   5.035   7.049   1.119
95460SOL    HW188219   5.099   7.121   1.115
95460SOL    HW288220   5.089   6.970   1.118
95461SOL     OW88221   3.169   8.531   4.233
95461SOL    HW188222   3.235   8.588   4.273
95461SOL    HW288223   3.186   8.445   4.271
95462SOL     OW88224  14.077   8.318   5.310
95462SOL    HW188225  14.075   8.260   5.234
95462SOL    HW288226  13.985   8.334   5.330
95463SOL     OW88227  10.684   7.529   3.346
95463SOL    HW188228  10.613   7.593   3.355
95463SOL    HW288229  10.742   7.567   3.280
95464SOL     OW88230   1.994   0.045   5.880
95464SOL    HW188231   2.079   0.002   5.875
95464SOL    HW288232   1.985   0.090   5.796
95465SOL     OW88233   6.001  11.292   9.489
95465SOL    HW188234   6.005  11.365   9.551
95465SOL    HW288235   6.049  11.323   9.412
95466SOL     OW88236   3.288   9.957  14.461
95466SOL    HW188237   3.331   9.975  14.378
95466SOL    HW288238   3.360   9.942  14.522
95467SOL     OW88239   1.199  14.262   9.134
95467SOL    HW188240   1.239  14.347   9.112
95467SOL    HW288241   1.165  14.230   9.051
95468SOL     OW88242  12.932  13.304   7.818
95468SOL    HW188243  12.925  13.224   7.766
95468SOL    HW288244  12.842  13.337   7.823
95469SOL     OW88245   8.717   7.751   7.018
95469SOL    HW188246   8.642   7.807   7.037
95469SOL    HW288247   8.740   7.712   7.102
95470SOL     OW88248  10.726   6.068  12.496
95470SOL    HW188249  10.795   6.113  12.545
95470SOL    HW288250  10.660   6.136  12.480
95471SOL     OW88251  12.084   5.248   3.845
95471SOL    HW188252  12.169   5.213   3.872
95471SOL    HW288253  12.021   5.205   3.903
95472SOL     OW88254   2.135   5.151   0.181
95472SOL    HW188255   2.063   5.170   0.242
95472SOL    HW288256   2.171   5.237   0.160
95473SOL     OW88257   0.781   9.683  10.346
95473SOL    HW188258   0.873   9.680  10.320
95473SOL    HW288259   0.733   9.666  10.264
95474SOL     OW88260   1.306  13.358  13.233
95474SOL    HW188261   1.244  13.395  13.296
95474SOL    HW288262   1.252  13.303  13.177
95475SOL     OW88263  13.544   5.228   2.990
95475SOL    HW188264  13.490   5.284   3.046
95475SOL    HW288265  13.622   5.210   3.043
95476SOL     OW88266   8.110   9.708   9.217
95476SOL    HW188267   8.149   9.684   9.133
95476SOL    HW288268   8.138   9.639   9.277
95477SOL     OW88269  11.149   6.664  14.021
95477SOL    HW188270  11.227   6.619  13.989
95477SOL    HW288271  11.134   6.628  14.108
95478SOL     OW88272  10.400   8.961  12.481
95478SOL    HW188273  10.425   9.030  12.543
95478SOL    HW288274  10.414   8.880  12.529
95479SOL     OW88275   0.952   9.218   1.578
95479SOL    HW188276   0.962   9.194   1.670
95479SOL    HW288277   1.039   9.247   1.551
95480SOL     OW88278   2.127   7.425   3.366
95480SOL    HW188279   2.135   7.400   3.458
95480SOL    HW288280   2.048   7.380   3.337
95481SOL     OW88281  13.037  10.860   9.337
95481SOL    HW188282  12.968  10.893   9.279
95481SOL    HW288283  12.995  10.852   9.422
95482SOL     OW88284   8.754   7.970   1.268
95482SOL    HW188285   8.717   7.882   1.265
95482SOL    HW288286   8.761   7.990   1.362
95483SOL     OW88287  14.630   2.766  12.370
95483SOL    HW188288  14.548   2.717  12.361
95483SOL    HW288289  14.638   2.782  12.464
95484SOL     OW88290   1.730   4.934   6.907
95484SOL    HW188291   1.818   4.927   6.869
95484SOL    HW288292   1.707   5.026   6.898
95485SOL     OW88293   3.799   3.513   6.252
95485SOL    HW188294   3.891   3.498   6.275
95485SOL    HW288295   3.786   3.462   6.171
95486SOL     OW88296  13.160   7.195   5.545
95486SOL    HW188297  13.173   7.155   5.459
95486SOL    HW288298  13.122   7.126   5.598
95487SOL     OW88299   2.364   6.937  14.584
95487SOL    HW188300   2.335   7.026  14.600
95487SOL    HW288301   2.458   6.944  14.568
95488SOL     OW88302   0.254  10.243   9.704
95488SOL    HW188303   0.335  10.193   9.706
95488SOL    HW288304   0.194  10.189   9.652
95489SOL     OW88305   7.244   3.931   5.115
95489SOL    HW188306   7.323   3.972   5.080
95489SOL    HW288307   7.274   3.884   5.193
95490SOL     OW88308   6.485  14.009   1.256
95490SOL    HW188309   6.560  14.051   1.296
95490SOL    HW288310   6.521  13.934   1.209
95491SOL     OW88311  12.681  10.120   5.467
95491SOL    HW188312  12.727  10.131   5.550
95491SOL    HW288313  12.679  10.025   5.454
95492SOL     OW88314   7.461   9.120   7.748
95492SOL    HW188315   7.511   9.039   7.753
95492SOL    HW288316   7.422   9.129   7.836
95493SOL     OW88317  11.566   2.919   0.240
95493SOL    HW188318  11.576   2.833   0.281
95493SOL    HW288319  11.609   2.909   0.154
95494SOL     OW88320  11.113   6.630   8.428
95494SOL    HW188321  11.141   6.588   8.510
95494SOL    HW288322  11.193   6.672   8.395
95495SOL     OW88323  14.859   3.821   5.249
95495SOL    HW188324   0.029   3.830   5.163
95495SOL    HW288325   0.055   3.839   5.312
95496SOL     OW88326  13.842   5.124   0.447
95496SOL    HW188327  13.904   5.082   0.505
95496SOL    HW288328  13.761   5.130   0.498
95497SOL     OW88329  14.474   8.324  14.735
95497SOL    HW188330  14.500   8.404  14.780
95497SOL    HW288331  14.391   8.300  14.775
95498SOL     OW88332   4.971   6.891  11.438
95498SOL    HW188333   4.884   6.905  11.400
95498SOL    HW288334   4.976   6.796  11.450
95499SOL     OW88335   3.024  14.521   7.683
95499SOL    HW188336   3.001  14.614   7.677
95499SOL    HW288337   3.119  14.521   7.697
95500SOL     OW88338  10.921  12.952  12.777
95500SOL    HW188339  10.841  12.904  12.757
95500SOL    HW288340  10.916  13.031  12.723
95501SOL     OW88341   4.625   6.117   6.356
95501SOL    HW188342   4.636   6.164   6.438
95501SOL    HW288343   4.619   6.025   6.381
95502SOL     OW88344  11.246  14.017   2.675
95502SOL    HW188345  11.187  14.091   2.660
95502SOL    HW288346  11.314  14.027   2.609
95503SOL     OW88347   6.608  13.983   9.032
95503SOL    HW188348   6.568  13.896   9.036
95503SOL    HW288349   6.588  14.015   8.944
95504SOL     OW88350  10.084  13.102  14.117
95504SOL    HW188351  10.026  13.151  14.058
95504SOL    HW288352  10.037  13.103  14.201
95505SOL     OW88353  11.142   0.370   4.792
95505SOL    HW188354  11.168   0.370   4.700
95505SOL    HW288355  11.169   0.455   4.826
95506SOL     OW88356   2.848  13.632  11.717
95506SOL    HW188357   2.824  13.644  11.626
95506SOL    HW288358   2.842  13.537  11.731
95507SOL     OW88359   7.012   6.905   0.666
95507SOL    HW188360   6.963   6.949   0.735
95507SOL    HW288361   7.047   6.826   0.709
95508SOL     OW88362   3.818   4.438   5.613
95508SOL    HW188363   3.833   4.433   5.519
95508SOL    HW288364   3.739   4.490   5.622
95509SOL     OW88365   7.245  13.480   6.916
95509SOL    HW188366   7.176  13.489   6.851
95509SOL    HW288367   7.202  13.439   6.991
95510SOL     OW88368   6.983  13.251   3.842
95510SOL    HW188369   6.993  13.178   3.781
95510SOL    HW288370   6.889  13.256   3.860
95511SOL     OW88371   8.149   9.969  14.378
95511SOL    HW188372   8.068  10.014  14.402
95511SOL    HW288373   8.215  10.038  14.372
95512SOL     OW88374   1.260   4.249   7.775
95512SOL    HW188375   1.290   4.325   7.726
95512SOL    HW288376   1.253   4.279   7.865
95513SOL     OW88377   5.097   4.590  10.280
95513SOL    HW188378   5.063   4.559  10.364
95513SOL    HW288379   5.147   4.669  10.302
95514SOL     OW88380   3.534   7.602   6.089
95514SOL    HW188381   3.519   7.691   6.121
95514SOL    HW288382   3.498   7.546   6.158
95515SOL     OW88383   8.736   6.335   9.502
95515SOL    HW188384   8.653   6.314   9.458
95515SOL    HW288385   8.803   6.318   9.436
95516SOL     OW88386   3.987  11.977   2.073
95516SOL    HW188387   4.016  11.912   2.137
95516SOL    HW288388   3.892  11.974   2.077
95517SOL     OW88389   4.002   8.858  13.245
95517SOL    HW188390   4.026   8.836  13.154
95517SOL    HW288391   4.025   8.780  13.295
95518SOL     OW88392   1.415  13.851  11.173
95518SOL    HW188393   1.499  13.817  11.206
95518SOL    HW288394   1.415  13.943  11.197
95519SOL     OW88395   2.319   5.135  11.937
95519SOL    HW188396   2.345   5.195  12.007
95519SOL    HW288397   2.367   5.164  11.860
95520SOL     OW88398   5.727   4.537   7.019
95520SOL    HW188399   5.663   4.497   7.078
95520SOL    HW288400   5.678   4.606   6.974
95521SOL     OW88401  12.556   4.795   6.445
95521SOL    HW188402  12.625   4.751   6.495
95521SOL    HW288403  12.496   4.830   6.512
95522SOL     OW88404  12.402   3.280   2.029
95522SOL    HW188405  12.413   3.375   2.036
95522SOL    HW288406  12.397   3.263   1.935
95523SOL     OW88407   1.008  10.794   4.977
95523SOL    HW188408   0.917  10.808   5.003
95523SOL    HW288409   1.003  10.738   4.900
95524SOL     OW88410   3.973   0.602   5.094
95524SOL    HW188411   4.000   0.604   5.185
95524SOL    HW288412   4.055   0.604   5.044
95525SOL     OW88413  10.222   7.478   6.420
95525SOL    HW188414  10.141   7.432   6.441
95525SOL    HW288415  10.222   7.554   6.478
95526SOL     OW88416   2.645   4.811   7.083
95526SOL    HW188417   2.738   4.811   7.107
95526SOL    HW288418   2.611   4.729   7.118
95527SOL     OW88419   1.136   2.452  13.303
95527SOL    HW188420   1.159   2.466  13.211
95527SOL    HW288421   1.089   2.531  13.329
95528SOL     OW88422  12.472  12.542   1.500
95528SOL    HW188423  12.465  12.447   1.491
95528SOL    HW288424  12.565  12.558   1.518
95529SOL     OW88425   9.751  10.434   5.403
95529SOL    HW188426   9.818  10.423   5.336
95529SOL    HW288427   9.734  10.346   5.435
95530SOL     OW88428   5.071   9.492  10.879
95530SOL    HW188429   5.165   9.499  10.860
95530SOL    HW288430   5.053   9.565  10.938
95531SOL     OW88431   5.953  10.202   1.384
95531SOL    HW188432   5.945  10.280   1.439
95531SOL    HW288433   5.976  10.236   1.297
95532SOL     OW88434  12.924  10.937  13.693
95532SOL    HW188435  12.962  10.950  13.781
95532SOL    HW288436  12.999  10.910  13.639
95533SOL     OW88437   8.373   9.440   2.050
95533SOL    HW188438   8.316   9.501   2.097
95533SOL    HW288439   8.372   9.471   1.960
95534SOL     OW88440   1.380  11.474  10.582
95534SOL    HW188441   1.359  11.398  10.527
95534SOL    HW288442   1.402  11.543  10.520
95535SOL     OW88443   2.020  14.652   7.981
95535SOL    HW188444   2.022  14.594   7.905
95535SOL    HW288445   1.972  14.729   7.951
95536SOL     OW88446   0.056   2.940   1.064
95536SOL    HW188447   0.031   2.938   0.972
95536SOL    HW288448  14.847   2.931   1.112
95537SOL     OW88449  12.741   6.270  10.586
95537SOL    HW188450  12.732   6.285  10.492
95537SOL    HW288451  12.803   6.197  10.593
95538SOL     OW88452   0.171  14.788   7.765
95538SOL    HW188453   0.146  14.696   7.772
95538SOL    HW288454   0.112  14.834   7.824
95539SOL     OW88455   7.825   0.950   4.283
95539SOL    HW188456   7.850   0.859   4.270
95539SOL    HW288457   7.743   0.947   4.331
95540SOL     OW88458   6.775   1.468   4.807
95540SOL    HW188459   6.691   1.428   4.828
95540SOL    HW288460   6.839   1.399   4.824
95541SOL     OW88461  10.894  11.112  10.764
95541SOL    HW188462  10.848  11.128  10.847
95541SOL    HW288463  10.849  11.037  10.726
95542SOL     OW88464   5.839  14.505   1.050
95542SOL    HW188465   5.790  14.498   1.132
95542SOL    HW288466   5.817  14.425   1.002
95543SOL     OW88467  12.918  14.069   2.951
95543SOL    HW188468  12.899  14.035   3.038
95543SOL    HW288469  12.920  13.992   2.895
95544SOL     OW88470   1.492   5.855   4.272
95544SOL    HW188471   1.495   5.848   4.367
95544SOL    HW288472   1.535   5.939   4.253
95545SOL     OW88473   8.594   8.157  13.570
95545SOL    HW188474   8.552   8.076  13.599
95545SOL    HW288475   8.529   8.200  13.515
95546SOL     OW88476   2.254   3.389   7.600
95546SOL    HW188477   2.291   3.430   7.678
95546SOL    HW288478   2.160   3.379   7.620
95547SOL     OW88479   2.007   4.145  12.223
95547SOL    HW188480   1.951   4.192  12.161
95547SOL    HW288481   2.074   4.103  12.168
95548SOL     OW88482   4.587   7.231  10.737
95548SOL    HW188483   4.499   7.267  10.742
95548SOL    HW288484   4.628   7.256  10.819
95549SOL     OW88485  10.846   5.716   6.212
95549SOL    HW188486  10.888   5.736   6.295
95549SOL    HW288487  10.918   5.697   6.152
95550SOL     OW88488  12.588  12.589  10.761
95550SOL    HW188489  12.540  12.598  10.679
95550SOL    HW288490  12.568  12.669  10.809
95551SOL     OW88491  14.165   8.761   6.177
95551SOL    HW188492  14.124   8.740   6.093
95551SOL    HW288493  14.104   8.727   6.243
95552SOL     OW88494   2.749   1.406  10.328
95552SOL    HW188495   2.805   1.414  10.406
95552SOL    HW288496   2.809   1.382  10.258
95553SOL     OW88497   6.110   0.832  14.740
95553SOL    HW188498   6.044   0.823  14.809
95553SOL    HW288499   6.192   0.807  14.782
95554SOL     OW88500   1.500  11.510   4.561
95554SOL    HW188501   1.416  11.469   4.580
95554SOL    HW288502   1.495  11.534   4.468
95555SOL     OW88503   8.641   4.138   4.159
95555SOL    HW188504   8.613   4.046   4.161
95555SOL    HW288505   8.729   4.137   4.196
95556SOL     OW88506   8.605   2.999   7.546
95556SOL    HW188507   8.624   2.910   7.517
95556SOL    HW288508   8.576   2.989   7.636
95557SOL     OW88509   7.458   2.427   9.347
95557SOL    HW188510   7.412   2.395   9.270
95557SOL    HW288511   7.528   2.362   9.362
95558SOL     OW88512   4.966  12.251  11.913
95558SOL    HW188513   5.001  12.338  11.931
95558SOL    HW288514   5.021  12.192  11.964
95559SOL     OW88515   8.771   9.558   8.288
95559SOL    HW188516   8.773   9.526   8.378
95559SOL    HW288517   8.862   9.548   8.258
95560SOL     OW88518   8.941   2.641   2.614
95560SOL    HW188519   9.001   2.567   2.611
95560SOL    HW288520   8.869   2.612   2.670
95561SOL     OW88521  10.737  10.314  12.414
95561SOL    HW188522  10.659  10.364  12.390
95561SOL    HW288523  10.714  10.223  12.396
95562SOL     OW88524   6.918  12.615  10.850
95562SOL    HW188525   6.997  12.651  10.811
95562SOL    HW288526   6.853  12.685  10.842
95563SOL     OW88527   7.265   2.834  10.433
95563SOL    HW188528   7.288   2.898  10.500
95563SOL    HW288529   7.195   2.782  10.473
95564SOL     OW88530   0.966  12.273   8.893
95564SOL    HW188531   0.888  12.235   8.933
95564SOL    HW288532   0.944  12.281   8.800
95565SOL     OW88533   6.364   1.611  13.878
95565SOL    HW188534   6.458   1.595  13.885
95565SOL    HW288535   6.335   1.555  13.806
95566SOL     OW88536   0.793   8.052   5.716
95566SOL    HW188537   0.876   8.017   5.682
95566SOL    HW288538   0.802   8.147   5.707
95567SOL     OW88539   8.006   6.965   1.188
95567SOL    HW188540   7.913   6.975   1.169
95567SOL    HW288541   8.010   6.929   1.276
95568SOL     OW88542   9.584  13.483   8.242
95568SOL    HW188543   9.644  13.436   8.300
95568SOL    HW288544   9.559  13.562   8.291
95569SOL     OW88545   7.072  14.090   6.763
95569SOL    HW188546   7.036  14.140   6.836
95569SOL    HW288547   7.022  14.008   6.763
95570SOL     OW88548   1.903   5.162   9.175
95570SOL    HW188549   1.846   5.085   9.172
95570SOL    HW288550   1.855   5.225   9.228
95571SOL     OW88551   6.687   1.139  10.439
95571SOL    HW188552   6.734   1.104  10.514
95571SOL    HW288553   6.707   1.078  10.368
95572SOL     OW88554   4.242  14.108   5.947
95572SOL    HW188555   4.187  14.092   5.870
95572SOL    HW288556   4.241  14.024   5.994
95573SOL     OW88557   4.225  13.173   2.505
95573SOL    HW188558   4.143  13.164   2.553
95573SOL    HW288559   4.290  13.127   2.558
95574SOL     OW88560  11.822   6.172   7.567
95574SOL    HW188561  11.800   6.119   7.644
95574SOL    HW288562  11.784   6.124   7.493
95575SOL     OW88563   1.363   1.717   5.054
95575SOL    HW188564   1.394   1.808   5.054
95575SOL    HW288565   1.290   1.718   5.116
95576SOL     OW88566  13.259   4.144   1.385
95576SOL    HW188567  13.167   4.157   1.362
95576SOL    HW288568  13.283   4.222   1.435
95577SOL     OW88569   9.848   2.970   0.742
95577SOL    HW188570   9.754   2.981   0.761
95577SOL    HW288571   9.851   2.905   0.673
95578SOL     OW88572   1.332  14.762   3.100
95578SOL    HW188573   1.305  14.733   3.187
95578SOL    HW288574   1.387  14.839   3.116
95579SOL     OW88575  12.180  14.091   2.918
95579SOL    HW188576  12.238  14.064   2.848
95579SOL    HW288577  12.139  14.171   2.887
95580SOL     OW88578   3.525   2.731  13.122
95580SOL    HW188579   3.510   2.805  13.181
95580SOL    HW288580   3.548   2.659  13.180
95581SOL     OW88581   5.206  14.760   1.500
95581SOL    HW188582   5.216  14.775   1.405
95581SOL    HW288583   5.182  14.846   1.535
95582SOL     OW88584   2.192   5.805  13.946
95582SOL    HW188585   2.229   5.770  13.866
95582SOL    HW288586   2.267   5.845  13.992
95583SOL     OW88587   5.086  11.858   0.969
95583SOL    HW188588   5.096  11.953   0.962
95583SOL    HW288589   4.992  11.844   0.972
95584SOL     OW88590   2.799  12.120   0.788
95584SOL    HW188591   2.848  12.134   0.707
95584SOL    HW288592   2.810  12.202   0.837
95585SOL     OW88593   5.530   6.846  10.592
95585SOL    HW188594   5.454   6.799  10.628
95585SOL    HW288595   5.602   6.782  10.597
95586SOL     OW88596   6.820   4.849   8.207
95586SOL    HW188597   6.856   4.934   8.180
95586SOL    HW288598   6.800   4.861   8.300
95587SOL     OW88599  12.824   8.135  14.055
95587SOL    HW188600  12.770   8.086  13.993
95587SOL    HW288601  12.854   8.211  14.006
95588SOL     OW88602   5.032   4.562  11.546
95588SOL    HW188603   5.089   4.613  11.488
95588SOL    HW288604   4.963   4.528  11.489
95589SOL     OW88605  11.793   5.476   9.420
95589SOL    HW188606  11.706   5.491   9.458
95589SOL    HW288607  11.853   5.520   9.480
95590SOL     OW88608  13.681  13.363   4.738
95590SOL    HW188609  13.700  13.440   4.684
95590SOL    HW288610  13.753  13.303   4.720
95591SOL     OW88611   3.974   4.101  12.274
95591SOL    HW188612   3.915   4.025  12.272
95591SOL    HW288613   3.929   4.167  12.221
95592SOL     OW88614   3.205  13.328  14.686
95592SOL    HW188615   3.233  13.368  14.768
95592SOL    HW288616   3.171  13.401  14.634
95593SOL     OW88617   9.425  10.584  10.641
95593SOL    HW188618   9.412  10.661  10.696
95593SOL    HW288619   9.348  10.580  10.586
95594SOL     OW88620  10.684  13.418   7.240
95594SOL    HW188621  10.651  13.372   7.317
95594SOL    HW288622  10.696  13.508   7.269
95595SOL     OW88623  13.267  14.515   8.939
95595SOL    HW188624  13.244  14.447   8.875
95595SOL    HW288625  13.350  14.487   8.976
95596SOL     OW88626  14.722   4.855  11.992
95596SOL    HW188627  14.719   4.840  12.087
95596SOL    HW288628  14.759   4.943  11.984
95597SOL     OW88629   4.676   9.423  10.491
95597SOL    HW188630   4.724   9.406  10.572
95597SOL    HW288631   4.671   9.519  10.486
95598SOL     OW88632  14.217   5.080  10.484
95598SOL    HW188633  14.157   5.107  10.415
95598SOL    HW288634  14.280   5.152  10.490
95599SOL     OW88635   9.533  11.563   8.786
95599SOL    HW188636   9.530  11.542   8.693
95599SOL    HW288637   9.444  11.592   8.807
95600SOL     OW88638   3.156  11.645   5.931
95600SOL    HW188639   3.160  11.703   6.008
95600SOL    HW288640   3.096  11.575   5.957
95601SOL     OW88641   6.728   3.434   9.926
95601SOL    HW188642   6.784   3.512   9.936
95601SOL    HW288643   6.658   3.462   9.867
95602SOL     OW88644   2.648   1.082  11.646
95602SOL    HW188645   2.679   1.017  11.583
95602SOL    HW288646   2.656   1.039  11.731
95603SOL     OW88647   3.878  11.408   2.352
95603SOL    HW188648   3.973  11.393   2.342
95603SOL    HW288649   3.845  11.325   2.386
95604SOL     OW88650   7.590   1.832   6.843
95604SOL    HW188651   7.602   1.784   6.761
95604SOL    HW288652   7.584   1.765   6.910
95605SOL     OW88653   4.872  11.830  14.356
95605SOL    HW188654   4.858  11.890  14.282
95605SOL    HW288655   4.810  11.860  14.423
95606SOL     OW88656   3.901  14.704   0.005
95606SOL    HW188657   3.899  14.615  14.842
95606SOL    HW288658   3.834  14.752  14.830
95607SOL     OW88659   0.725   1.124   7.144
95607SOL    HW188660   0.787   1.186   7.104
95607SOL    HW288661   0.639   1.151   7.109
95608SOL     OW88662   9.129   8.016   0.331
95608SOL    HW188663   9.107   8.071   0.406
95608SOL    HW288664   9.178   8.073   0.272
95609SOL     OW88665   1.707   2.573   8.701
95609SOL    HW188666   1.708   2.651   8.646
95609SOL    HW288667   1.797   2.566   8.734
95610SOL     OW88668   8.862  11.661  13.496
95610SOL    HW188669   8.923  11.592  13.523
95610SOL    HW288670   8.783  11.615  13.470
95611SOL     OW88671   5.391  10.935   0.063
95611SOL    HW188672   5.338  10.961  14.860
95611SOL    HW288673   5.327  10.919   0.132
95612SOL     OW88674   1.628   7.117   5.841
95612SOL    HW188675   1.599   7.204   5.866
95612SOL    HW288676   1.687   7.131   5.767
95613SOL     OW88677   1.644   1.626   2.578
95613SOL    HW188678   1.690   1.658   2.500
95613SOL    HW288679   1.708   1.569   2.621
95614SOL     OW88680   4.137   8.871  12.560
95614SOL    HW188681   4.042   8.872  12.566
95614SOL    HW288682   4.165   8.950  12.607
95615SOL     OW88683  11.984   4.649   2.414
95615SOL    HW188684  12.059   4.606   2.456
95615SOL    HW288685  11.911   4.589   2.430
95616SOL     OW88686   1.464  10.608   4.046
95616SOL    HW188687   1.548  10.607   4.001
95616SOL    HW288688   1.403  10.645   3.982
95617SOL     OW88689   4.384   7.558  11.066
95617SOL    HW188690   4.411   7.469  11.087
95617SOL    HW288691   4.296   7.566  11.102
95618SOL     OW88692  13.249   7.386   1.232
95618SOL    HW188693  13.233   7.469   1.187
95618SOL    HW288694  13.344   7.378   1.236
95619SOL     OW88695   6.151   9.118   3.017
95619SOL    HW188696   6.245   9.097   3.010
95619SOL    HW288697   6.107   9.034   3.002
95620SOL     OW88698   5.857  13.020   0.567
95620SOL    HW188699   5.949  13.032   0.591
95620SOL    HW288700   5.825  13.109   0.550
95621SOL     OW88701   9.312  14.748   8.077
95621SOL    HW188702   9.381  14.709   8.130
95621SOL    HW288703   9.290  14.681   8.012
95622SOL     OW88704  10.799  14.220   5.183
95622SOL    HW188705  10.746  14.185   5.111
95622SOL    HW288706  10.803  14.148   5.247
95623SOL     OW88707  11.055   2.816  12.123
95623SOL    HW188708  11.108   2.738  12.107
95623SOL    HW288709  10.968   2.782  12.141
95624SOL     OW88710   8.033   1.977   9.504
95624SOL    HW188711   8.062   2.028   9.429
95624SOL    HW288712   8.109   1.923   9.527
95625SOL     OW88713   6.482   4.169   2.007
95625SOL    HW188714   6.476   4.121   2.089
95625SOL    HW288715   6.505   4.258   2.032
95626SOL     OW88716   5.742   2.455  10.243
95626SOL    HW188717   5.829   2.441  10.281
95626SOL    HW288718   5.756   2.446  10.149
95627SOL     OW88719   9.216   8.238   8.011
95627SOL    HW188720   9.215   8.146   8.038
95627SOL    HW288721   9.246   8.236   7.920
95628SOL     OW88722  14.046   9.598   7.723
95628SOL    HW188723  14.018   9.523   7.777
95628SOL    HW288724  13.970   9.619   7.669
95629SOL     OW88725  10.686   4.670   9.704
95629SOL    HW188726  10.603   4.627   9.726
95629SOL    HW288727  10.739   4.602   9.663
95630SOL     OW88728  11.485  13.691  12.612
95630SOL    HW188729  11.575  13.696  12.579
95630SOL    HW288730  11.484  13.612  12.667
95631SOL     OW88731  12.473   6.051   1.760
95631SOL    HW188732  12.465   6.086   1.671
95631SOL    HW288733  12.399   6.090   1.807
95632SOL     OW88734  11.930  13.387   1.578
95632SOL    HW188735  11.976  13.470   1.591
95632SOL    HW288736  11.998  13.325   1.552
95633SOL     OW88737   7.146   8.137   8.098
95633SOL    HW188738   7.060   8.112   8.132
95633SOL    HW288739   7.148   8.101   8.010
95634SOL     OW88740   1.903  10.891   8.595
95634SOL    HW188741   1.818  10.856   8.619
95634SOL    HW288742   1.965  10.820   8.614
95635SOL     OW88743  12.000   7.180  10.996
95635SOL    HW188744  11.930   7.196  10.932
95635SOL    HW288745  12.061   7.252  10.983
95636SOL     OW88746   5.865   3.781   4.845
95636SOL    HW188747   5.776   3.746   4.854
95636SOL    HW288748   5.877   3.789   4.750
95637SOL     OW88749   7.335  10.371   6.665
95637SOL    HW188750   7.269  10.386   6.733
95637SOL    HW288751   7.313  10.432   6.595
95638SOL     OW88752   2.571   0.433   2.081
95638SOL    HW188753   2.571   0.485   2.001
95638SOL    HW288754   2.479   0.419   2.101
95639SOL     OW88755  10.292   0.336  13.096
95639SOL    HW188756  10.380   0.343  13.059
95639SOL    HW288757  10.289   0.249  13.136
95640SOL     OW88758  13.630  13.019   9.926
95640SOL    HW188759  13.587  13.100   9.900
95640SOL    HW288760  13.568  12.976   9.985
95641SOL     OW88761   1.714  10.552   9.682
95641SOL    HW188762   1.779  10.564   9.751
95641SOL    HW288763   1.669  10.470   9.704
95642SOL     OW88764   0.291   0.666   5.878
95642SOL    HW188765   0.278   0.599   5.945
95642SOL    HW288766   0.379   0.650   5.844
95643SOL     OW88767   2.693   7.165   4.301
95643SOL    HW188768   2.699   7.179   4.207
95643SOL    HW288769   2.784   7.153   4.329
95644SOL     OW88770   1.667   6.306   7.108
95644SOL    HW188771   1.621   6.388   7.092
95644SOL    HW288772   1.755   6.321   7.075
95645SOL     OW88773   1.353   4.309  13.099
95645SOL    HW188774   1.421   4.256  13.142
95645SOL    HW288775   1.402   4.378  13.054
95646SOL     OW88776  11.472   7.715   5.619
95646SOL    HW188777  11.506   7.629   5.644
95646SOL    HW288778  11.385   7.696   5.584
95647SOL     OW88779  13.090  13.053   5.668
95647SOL    HW188780  13.013  13.007   5.703
95647SOL    HW288781  13.054  13.130   5.625
95648SOL     OW88782   5.493  13.210   8.282
95648SOL    HW188783   5.517  13.118   8.279
95648SOL    HW288784   5.509  13.237   8.373
95649SOL     OW88785   4.791  11.596  10.777
95649SOL    HW188786   4.799  11.641  10.693
95649SOL    HW288787   4.875  11.551  10.789
95650SOL     OW88788  11.505  11.974   1.882
95650SOL    HW188789  11.452  11.899   1.909
95650SOL    HW288790  11.481  11.989   1.791
95651SOL     OW88791   0.068   2.128  12.999
95651SOL    HW188792   0.053   2.194  13.066
95651SOL    HW288793   0.123   2.063  13.042
95652SOL     OW88794   3.211   6.130   8.140
95652SOL    HW188795   3.117   6.143   8.133
95652SOL    HW288796   3.238   6.102   8.052
95653SOL     OW88797   8.349   0.790   2.582
95653SOL    HW188798   8.341   0.694   2.578
95653SOL    HW288799   8.408   0.805   2.656
95654SOL     OW88800   9.698  10.718   2.414
95654SOL    HW188801   9.762  10.777   2.374
95654SOL    HW288802   9.654  10.772   2.480
95655SOL     OW88803   3.402   7.906  13.136
95655SOL    HW188804   3.317   7.940  13.165
95655SOL    HW288805   3.437   7.862  13.213
95656SOL     OW88806   4.262  13.120   4.627
95656SOL    HW188807   4.189  13.140   4.685
95656SOL    HW288808   4.280  13.027   4.643
95657SOL     OW88809   4.471  11.475   9.821
95657SOL    HW188810   4.548  11.491   9.876
95657SOL    HW288811   4.474  11.546   9.756
95658SOL     OW88812   1.317   1.859   4.013
95658SOL    HW188813   1.317   1.796   3.941
95658SOL    HW288814   1.231   1.848   4.055
95659SOL     OW88815  14.739   0.098   1.061
95659SOL    HW188816  14.693   0.014   1.058
95659SOL    HW288817  14.830   0.076   1.041
95660SOL     OW88818   8.606  10.097   7.883
95660SOL    HW188819   8.542  10.052   7.828
95660SOL    HW288820   8.577  10.188   7.885
95661SOL     OW88821   6.196   4.622  10.228
95661SOL    HW188822   6.130   4.555  10.243
95661SOL    HW288823   6.174   4.692  10.291
95662SOL     OW88824   7.015   2.840   7.304
95662SOL    HW188825   6.997   2.763   7.249
95662SOL    HW288826   7.063   2.899   7.246
95663SOL     OW88827   3.616   9.368   8.227
95663SOL    HW188828   3.707   9.381   8.254
95663SOL    HW288829   3.590   9.453   8.191
95664SOL     OW88830   2.688   1.600   7.059
95664SOL    HW188831   2.654   1.663   7.123
95664SOL    HW288832   2.631   1.610   6.983
95665SOL     OW88833   6.251   7.941  11.116
95665SOL    HW188834   6.344   7.942  11.095
95665SOL    HW288835   6.221   7.855  11.087
95666SOL     OW88836  14.485   9.288  13.402
95666SOL    HW188837  14.556   9.275  13.466
95666SOL    HW288838  14.405   9.280  13.454
95667SOL     OW88839   8.942   9.060   2.009
95667SOL    HW188840   8.891   8.988   2.046
95667SOL    HW288841   9.033   9.036   2.024
95668SOL     OW88842   6.877   3.183  11.831
95668SOL    HW188843   6.849   3.215  11.916
95668SOL    HW288844   6.902   3.091  11.847
95669SOL     OW88845  10.088   8.474   4.290
95669SOL    HW188846  10.109   8.485   4.383
95669SOL    HW288847  10.147   8.404   4.261
95670SOL     OW88848   0.149   2.837   7.397
95670SOL    HW188849   0.055   2.835   7.413
95670SOL    HW288850   0.177   2.923   7.429
95671SOL     OW88851   5.442   7.261   0.711
95671SOL    HW188852   5.483   7.293   0.791
95671SOL    HW288853   5.393   7.337   0.678
95672SOL     OW88854   8.899   9.645   1.603
95672SOL    HW188855   8.924   9.733   1.574
95672SOL    HW288856   8.930   9.588   1.533
95673SOL     OW88857   8.627   8.228   6.418
95673SOL    HW188858   8.550   8.183   6.452
95673SOL    HW288859   8.690   8.159   6.400
95674SOL     OW88860   7.313   1.378   2.472
95674SOL    HW188861   7.392   1.323   2.466
95674SOL    HW288862   7.339   1.461   2.431
95675SOL     OW88863   8.243   3.670   2.599
95675SOL    HW188864   8.152   3.691   2.578
95675SOL    HW288865   8.245   3.665   2.695
95676SOL     OW88866  11.424   0.984   7.781
95676SOL    HW188867  11.412   1.055   7.718
95676SOL    HW288868  11.385   1.017   7.862
95677SOL     OW88869   1.824  13.544  14.632
95677SOL    HW188870   1.793  13.454  14.620
95677SOL    HW288871   1.751  13.590  14.672
95678SOL     OW88872   0.532  11.735   9.197
95678SOL    HW188873   0.472  11.786   9.142
95678SOL    HW288874   0.619  11.769   9.175
95679SOL     OW88875  12.955   1.834  14.805
95679SOL    HW188876  12.944   1.885   0.013
95679SOL    HW288877  13.011   1.761  14.830
95680SOL     OW88878  13.813   3.375   6.846
95680SOL    HW188879  13.830   3.442   6.913
95680SOL    HW288880  13.895   3.368   6.798
95681SOL     OW88881  11.233   9.579  11.987
95681SOL    HW188882  11.217   9.670  12.012
95681SOL    HW288883  11.321   9.560  12.020
95682SOL     OW88884   7.661   9.770   4.406
95682SOL    HW188885   7.650   9.831   4.479
95682SOL    HW288886   7.750   9.787   4.374
95683SOL     OW88887   7.568   8.964   3.150
95683SOL    HW188888   7.536   8.951   3.239
95683SOL    HW288889   7.646   8.909   3.144
95684SOL     OW88890   5.172  12.152   4.000
95684SOL    HW188891   5.077  12.162   3.990
95684SOL    HW288892   5.188  12.172   4.092
95685SOL     OW88893   4.804  10.161  14.598
95685SOL    HW188894   4.729  10.180  14.655
95685SOL    HW288895   4.764  10.130  14.517
95686SOL     OW88896  14.421   8.276   0.241
95686SOL    HW188897  14.413   8.211   0.172
95686SOL    HW288898  14.353   8.340   0.223
95687SOL     OW88899   4.408  14.003   8.083
95687SOL    HW188900   4.437  13.914   8.103
95687SOL    HW288901   4.484  14.045   8.043
95688SOL     OW88902  14.439   0.311   8.350
95688SOL    HW188903  14.350   0.278   8.341
95688SOL    HW288904  14.471   0.271   8.431
95689SOL     OW88905   9.950  12.272   5.820
95689SOL    HW188906   9.856  12.256   5.811
95689SOL    HW288907   9.969  12.255   5.912
95690SOL     OW88908   5.593   4.828   2.011
95690SOL    HW188909   5.574   4.746   1.964
95690SOL    HW288910   5.680   4.815   2.047
95691SOL     OW88911   9.163   0.886   9.174
95691SOL    HW188912   9.142   0.830   9.100
95691SOL    HW288913   9.125   0.971   9.152
95692SOL     OW88914   6.949  12.206   6.601
95692SOL    HW188915   6.918  12.272   6.539
95692SOL    HW288916   6.996  12.142   6.547
95693SOL     OW88917  13.912  14.459   5.228
95693SOL    HW188918  13.925  14.413   5.145
95693SOL    HW288919  13.895  14.390   5.292
95694SOL     OW88920   6.008   1.561   6.177
95694SOL    HW188921   5.933   1.620   6.177
95694SOL    HW288922   6.016   1.531   6.087
95695SOL     OW88923  14.146   0.608   7.790
95695SOL    HW188924  14.103   0.570   7.867
95695SOL    HW288925  14.201   0.538   7.756
95696SOL     OW88926   4.321  12.808  12.384
95696SOL    HW188927   4.301  12.725  12.340
95696SOL    HW288928   4.251  12.818  12.448
95697SOL     OW88929   3.224   3.940   2.500
95697SOL    HW188930   3.169   3.890   2.560
95697SOL    HW288931   3.172   4.018   2.479
95698SOL     OW88932   3.957  11.016  14.389
95698SOL    HW188933   3.897  10.998  14.317
95698SOL    HW288934   3.908  10.993  14.468
95699SOL     OW88935   3.406   3.339  11.790
95699SOL    HW188936   3.336   3.323  11.727
95699SOL    HW288937   3.429   3.431  11.779
95700SOL     OW88938   1.102  13.290   2.019
95700SOL    HW188939   1.138  13.202   2.033
95700SOL    HW288940   1.029  13.276   1.959
95701SOL     OW88941   5.633  14.723  10.769
95701SOL    HW188942   5.726  14.706  10.787
95701SOL    HW288943   5.621  14.695  10.678
95702SOL     OW88944   8.673  13.164   1.856
95702SOL    HW188945   8.595  13.136   1.902
95702SOL    HW288946   8.705  13.085   1.811
95703SOL     OW88947   9.006   9.930   9.976
95703SOL    HW188948   9.069   9.975  10.031
95703SOL    HW288949   9.014   9.837  10.000
95704SOL     OW88950   5.612   6.882   7.827
95704SOL    HW188951   5.543   6.816   7.835
95704SOL    HW288952   5.681   6.838   7.777
95705SOL     OW88953  10.587  14.508   4.208
95705SOL    HW188954  10.510  14.536   4.158
95705SOL    HW288955  10.592  14.414   4.194
95706SOL     OW88956   3.627   4.119  11.385
95706SOL    HW188957   3.653   4.205  11.353
95706SOL    HW288958   3.651   4.059  11.314
95707SOL     OW88959   6.174   5.911   7.004
95707SOL    HW188960   6.244   5.976   6.999
95707SOL    HW288961   6.105   5.955   7.055
95708SOL     OW88962  11.141  13.840   1.537
95708SOL    HW188963  11.199  13.773   1.500
95708SOL    HW288964  11.197  13.892   1.594
95709SOL     OW88965  11.577   3.934   5.763
95709SOL    HW188966  11.650   3.890   5.807
95709SOL    HW288967  11.594   4.027   5.776
95710SOL     OW88968   3.186   4.731  11.642
95710SOL    HW188969   3.281   4.745  11.642
95710SOL    HW288970   3.156   4.769  11.724
95711SOL     OW88971   2.358   8.718   8.241
95711SOL    HW188972   2.301   8.642   8.255
95711SOL    HW288973   2.322   8.761   8.163
95712SOL     OW88974   3.303   4.515  13.321
95712SOL    HW188975   3.293   4.561  13.238
95712SOL    HW288976   3.222   4.466  13.331
95713SOL     OW88977  10.613   8.714   4.134
95713SOL    HW188978  10.670   8.694   4.208
95713SOL    HW288979  10.664   8.689   4.057
95714SOL     OW88980   6.832   0.658  12.135
95714SOL    HW188981   6.851   0.650  12.229
95714SOL    HW288982   6.759   0.598  12.120
95715SOL     OW88983  12.774  12.286  12.454
95715SOL    HW188984  12.798  12.197  12.483
95715SOL    HW288985  12.686  12.277  12.420
95716SOL     OW88986   9.472   4.599  13.013
95716SOL    HW188987   9.513   4.623  12.930
95716SOL    HW288988   9.494   4.670  13.073
95717SOL     OW88989  14.398   1.597   6.077
95717SOL    HW188990  14.403   1.556   6.163
95717SOL    HW288991  14.353   1.533   6.022
95718SOL     OW88992   4.327   6.091  12.385
95718SOL    HW188993   4.405   6.073  12.437
95718SOL    HW288994   4.352   6.165  12.330
95719SOL     OW88995   1.765   8.753  10.969
95719SOL    HW188996   1.783   8.701  11.047
95719SOL    HW288997   1.687   8.804  10.992
95720SOL     OW88998  14.224   9.585   4.647
95720SOL    HW188999  14.133   9.589   4.675
95720SOL    HW289000  14.226   9.517   4.580
95721SOL     OW89001   5.807   7.707   2.733
95721SOL    HW189002   5.899   7.733   2.729
95721SOL    HW289003   5.809   7.612   2.746
95722SOL     OW89004   4.359  10.541   2.097
95722SOL    HW189005   4.428  10.484   2.062
95722SOL    HW289006   4.348  10.513   2.187
95723SOL     OW89007  14.417   8.787   6.583
95723SOL    HW189008  14.438   8.812   6.493
95723SOL    HW289009  14.402   8.692   6.578
95724SOL     OW89010   7.847  10.059   7.178
95724SOL    HW189011   7.868  10.006   7.255
95724SOL    HW289012   7.758  10.091   7.194
95725SOL     OW89013   9.443   4.622   8.923
95725SOL    HW189014   9.523   4.645   8.969
95725SOL    HW289015   9.472   4.600   8.834
95726SOL     OW89016   9.828   4.051  14.844
95726SOL    HW189017   9.920   4.060  14.823
95726SOL    HW289018   9.788   4.133  14.814
95727SOL     OW89019   0.674   2.361  11.888
95727SOL    HW189020   0.739   2.386  11.954
95727SOL    HW289021   0.595   2.408  11.914
95728SOL     OW89022   6.409   2.903  10.053
95728SOL    HW189023   6.325   2.937  10.085
95728SOL    HW289024   6.434   2.835  10.116
95729SOL     OW89025   4.106  11.082   5.090
95729SOL    HW189026   4.031  11.120   5.044
95729SOL    HW289027   4.123  11.143   5.163
95730SOL     OW89028  12.755  14.090   6.840
95730SOL    HW189029  12.792  14.003   6.834
95730SOL    HW289030  12.779  14.132   6.757
95731SOL     OW89031  11.580   8.985   3.176
95731SOL    HW189032  11.502   8.940   3.210
95731SOL    HW289033  11.653   8.943   3.221
95732SOL     OW89034   5.838   2.769   1.347
95732SOL    HW189035   5.813   2.860   1.332
95732SOL    HW289036   5.774   2.718   1.298
95733SOL     OW89037   7.318   4.932   9.364
95733SOL    HW189038   7.241   4.986   9.383
95733SOL    HW289039   7.385   4.995   9.337
95734SOL     OW89040  14.714  12.512   7.073
95734SOL    HW189041  14.623  12.525   7.096
95734SOL    HW289042  14.718  12.526   6.978
95735SOL     OW89043  12.762  11.934   9.232
95735SOL    HW189044  12.715  11.876   9.172
95735SOL    HW289045  12.854  11.911   9.220
95736SOL     OW89046  10.254   3.411  12.407
95736SOL    HW189047  10.293   3.341  12.459
95736SOL    HW289048  10.292   3.492  12.442
95737SOL     OW89049  12.362   6.926   4.697
95737SOL    HW189050  12.367   6.960   4.607
95737SOL    HW289051  12.268   6.917   4.714
95738SOL     OW89052  13.972  11.570   7.367
95738SOL    HW189053  13.914  11.574   7.443
95738SOL    HW289054  13.914  11.555   7.293
95739SOL     OW89055   4.154   2.771  14.792
95739SOL    HW189056   4.206   2.832  14.741
95739SOL    HW289057   4.218   2.720  14.841
95740SOL     OW89058   1.868   1.700  14.534
95740SOL    HW189059   1.960   1.690  14.509
95740SOL    HW289060   1.832   1.763  14.472
95741SOL     OW89061   1.969   1.668   9.898
95741SOL    HW189062   2.030   1.725   9.944
95741SOL    HW289063   1.914   1.728   9.847
95742SOL     OW89064   8.982   2.077   8.137
95742SOL    HW189065   9.052   2.013   8.126
95742SOL    HW289066   8.928   2.042   8.208
95743SOL     OW89067   9.250  14.694   4.221
95743SOL    HW189068   9.292  14.780   4.218
95743SOL    HW289069   9.188  14.700   4.293
95744SOL     OW89070   7.833   4.879   1.066
95744SOL    HW189071   7.914   4.829   1.079
95744SOL    HW289072   7.815   4.918   1.151
95745SOL     OW89073   9.959   6.482  13.961
95745SOL    HW189074   9.971   6.566  13.915
95745SOL    HW289075  10.048   6.453  13.980
95746SOL     OW89076  14.150  12.771   4.933
95746SOL    HW189077  14.130  12.858   4.969
95746SOL    HW289078  14.144  12.713   5.008
95747SOL     OW89079  10.760   5.946   3.781
95747SOL    HW189080  10.711   5.895   3.845
95747SOL    HW289081  10.851   5.941   3.809
95748SOL     OW89082   0.689   0.254   3.272
95748SOL    HW189083   0.774   0.210   3.267
95748SOL    HW289084   0.633   0.191   3.317
95749SOL     OW89085  13.979   8.043   7.490
95749SOL    HW189086  13.915   7.972   7.493
95749SOL    HW289087  14.049   8.016   7.549
95750SOL     OW89088   1.874   3.478  10.350
95750SOL    HW189089   1.868   3.573  10.348
95750SOL    HW289090   1.869   3.455  10.443
95751SOL     OW89091   3.837   5.060   6.445
95751SOL    HW189092   3.794   5.052   6.530
95751SOL    HW289093   3.930   5.067   6.465
95752SOL     OW89094  10.796   2.497   3.533
95752SOL    HW189095  10.883   2.536   3.527
95752SOL    HW289096  10.765   2.494   3.442
95753SOL     OW89097   6.827  14.591   0.856
95753SOL    HW189098   6.878  14.525   0.903
95753SOL    HW289099   6.737  14.573   0.882
95754SOL     OW89100   5.841   2.595   2.060
95754SOL    HW189101   5.836   2.500   2.072
95754SOL    HW289102   5.848   2.629   2.149
95755SOL     OW89103   0.684   0.281  10.492
95755SOL    HW189104   0.740   0.317  10.423
95755SOL    HW289105   0.697   0.186  10.486
95756SOL     OW89106   2.310   8.413   7.323
95756SOL    HW189107   2.293   8.504   7.345
95756SOL    HW289108   2.227   8.380   7.289
95757SOL     OW89109   4.373  12.232  13.444
95757SOL    HW189110   4.353  12.267  13.357
95757SOL    HW289111   4.397  12.308  13.496
95758SOL     OW89112   0.054  11.683   8.626
95758SOL    HW189113   0.043  11.595   8.591
95758SOL    HW289114  14.840  11.707   8.658
95759SOL     OW89115  10.163  10.931   6.510
95759SOL    HW189116  10.138  10.843   6.538
95759SOL    HW289117  10.080  10.976   6.495
95760SOL     OW89118  12.400   1.143   9.271
95760SOL    HW189119  12.489   1.142   9.306
95760SOL    HW289120  12.369   1.053   9.284
95761SOL     OW89121   9.044  13.666   6.183
95761SOL    HW189122   8.989  13.590   6.204
95761SOL    HW289123   8.983  13.740   6.180
95762SOL     OW89124   6.415   0.803   3.867
95762SOL    HW189125   6.485   0.848   3.912
95762SOL    HW289126   6.346   0.869   3.856
95763SOL     OW89127  11.187   1.143   7.567
95763SOL    HW189128  11.212   1.195   7.644
95763SOL    HW289129  11.263   1.150   7.509
95764SOL     OW89130   4.206   8.209  13.924
95764SOL    HW189131   4.203   8.129  13.977
95764SOL    HW289132   4.126   8.257  13.948
95765SOL     OW89133   8.747  12.410  13.817
95765SOL    HW189134   8.660  12.442  13.795
95765SOL    HW289135   8.747  12.318  13.790
95766SOL     OW89136  11.583   3.395  13.019
95766SOL    HW189137  11.675   3.370  13.030
95766SOL    HW289138  11.584   3.491  13.021
95767SOL     OW89139   3.162   4.682   2.944
95767SOL    HW189140   3.090   4.621   2.926
95767SOL    HW289141   3.176   4.728   2.861
95768SOL     OW89142   8.744   7.029   5.116
95768SOL    HW189143   8.736   7.025   5.021
95768SOL    HW289144   8.764   7.121   5.134
95769SOL     OW89145  11.367   5.181  12.718
95769SOL    HW189146  11.451   5.169  12.673
95769SOL    HW289147  11.365   5.113  12.785
95770SOL     OW89148  11.802   5.416   4.720
95770SOL    HW189149  11.714   5.426   4.683
95770SOL    HW289150  11.825   5.324   4.705
95771SOL     OW89151  14.016   0.414   1.593
95771SOL    HW189152  13.923   0.436   1.600
95771SOL    HW289153  14.017   0.330   1.548
95772SOL     OW89154  13.718   5.770   2.513
95772SOL    HW189155  13.750   5.809   2.431
95772SOL    HW289156  13.790   5.783   2.575
95773SOL     OW89157   5.629   3.788   2.578
95773SOL    HW189158   5.547   3.777   2.627
95773SOL    HW289159   5.676   3.855   2.627
95774SOL     OW89160  12.060   4.712   4.250
95774SOL    HW189161  12.012   4.653   4.308
95774SOL    HW289162  12.036   4.800   4.279
95775SOL     OW89163  11.489  11.157   2.454
95775SOL    HW189164  11.569  11.204   2.431
95775SOL    HW289165  11.502  11.130   2.545
95776SOL     OW89166  13.194   3.386   0.467
95776SOL    HW189167  13.129   3.437   0.516
95776SOL    HW289168  13.154   3.300   0.456
95777SOL     OW89169   2.249   6.908  12.693
95777SOL    HW189170   2.251   6.887  12.599
95777SOL    HW289171   2.270   7.002  12.696
95778SOL     OW89172   7.912  10.954  11.351
95778SOL    HW189173   7.999  10.913  11.349
95778SOL    HW289174   7.852  10.885  11.323
95779SOL     OW89175   7.398   3.145  11.494
95779SOL    HW189176   7.346   3.171  11.570
95779SOL    HW289177   7.338   3.090  11.442
95780SOL     OW89178  12.549   3.529   7.970
95780SOL    HW189179  12.471   3.520   7.916
95780SOL    HW289180  12.528   3.599   8.032
95781SOL     OW89181  11.457  10.044   0.553
95781SOL    HW189182  11.474   9.960   0.596
95781SOL    HW289183  11.483  10.110   0.618
95782SOL     OW89184   5.654   7.925   9.119
95782SOL    HW189185   5.605   7.954   9.042
95782SOL    HW289186   5.667   8.005   9.171
95783SOL     OW89187  10.087   9.191   5.020
95783SOL    HW189188  10.099   9.202   5.114
95783SOL    HW289189  10.051   9.274   4.990
95784SOL     OW89190   2.725   8.949   8.073
95784SOL    HW189191   2.711   9.041   8.097
95784SOL    HW289192   2.820   8.941   8.063
95785SOL     OW89193   4.076   4.776  12.719
95785SOL    HW189194   4.116   4.739  12.640
95785SOL    HW289195   4.047   4.863  12.691
95786SOL     OW89196  14.728   2.044   7.491
95786SOL    HW189197  14.801   1.996   7.452
95786SOL    HW289198  14.690   1.982   7.553
95787SOL     OW89199   1.465   2.211   9.172
95787SOL    HW189200   1.509   2.294   9.193
95787SOL    HW289201   1.392   2.236   9.116
95788SOL     OW89202   9.591  12.653   0.299
95788SOL    HW189203   9.629  12.741   0.296
95788SOL    HW289204   9.608  12.616   0.213
95789SOL     OW89205  12.208   2.110   2.897
95789SOL    HW189206  12.195   2.062   2.816
95789SOL    HW289207  12.238   2.197   2.869
95790SOL     OW89208   1.058   9.644   6.695
95790SOL    HW189209   1.060   9.563   6.643
95790SOL    HW289210   1.128   9.632   6.759
95791SOL     OW89211   4.510  12.370   9.279
95791SOL    HW189212   4.419  12.342   9.284
95791SOL    HW289213   4.527  12.380   9.185
95792SOL     OW89214   8.472   6.167  10.702
95792SOL    HW189215   8.393   6.206  10.665
95792SOL    HW289216   8.468   6.188  10.795
95793SOL     OW89217  12.746   3.017   0.244
95793SOL    HW189218  12.822   3.001   0.188
95793SOL    HW289219  12.671   3.014   0.185
95794SOL     OW89220   1.941  12.830   6.220
95794SOL    HW189221   2.030  12.843   6.254
95794SOL    HW289222   1.944  12.745   6.175
95795SOL     OW89223  13.943   9.701   4.634
95795SOL    HW189224  13.864   9.749   4.659
95795SOL    HW289225  13.976   9.749   4.557
95796SOL     OW89226  11.449   4.977  11.759
95796SOL    HW189227  11.471   5.056  11.710
95796SOL    HW289228  11.381   5.005  11.821
95797SOL     OW89229  10.316  12.156   1.623
95797SOL    HW189230  10.381  12.159   1.552
95797SOL    HW289231  10.317  12.245   1.659
95798SOL     OW89232  11.698  13.423  14.855
95798SOL    HW189233  11.628  13.483   0.007
95798SOL    HW289234  11.719  13.447  14.765
95799SOL     OW89235   9.193  13.704   8.591
95799SOL    HW189236   9.112  13.721   8.639
95799SOL    HW289237   9.237  13.636   8.643
95800SOL     OW89238   4.594   6.320  10.051
95800SOL    HW189239   4.537   6.388  10.086
95800SOL    HW289240   4.648   6.294  10.126
95801SOL     OW89241   1.437   8.127   3.308
95801SOL    HW189242   1.352   8.115   3.266
95801SOL    HW289243   1.416   8.149   3.399
95802SOL     OW89244   0.699   4.991   2.284
95802SOL    HW189245   0.650   5.050   2.227
95802SOL    HW289246   0.736   5.048   2.351
95803SOL     OW89247  13.161  11.344  10.222
95803SOL    HW189248  13.101  11.316  10.291
95803SOL    HW289249  13.247  11.318  10.254
95804SOL     OW89250   1.373  11.771  12.823
95804SOL    HW189251   1.462  11.738  12.834
95804SOL    HW289252   1.359  11.829  12.897
95805SOL     OW89253   8.740   7.498  14.013
95805SOL    HW189254   8.693   7.490  14.096
95805SOL    HW289255   8.831   7.512  14.038
95806SOL     OW89256   8.669  14.840  12.491
95806SOL    HW189257   8.695   0.056  12.518
95806SOL    HW289258   8.600  14.854  12.426
95807SOL     OW89259  13.319   6.450   2.775
95807SOL    HW189260  13.362   6.536   2.773
95807SOL    HW289261  13.333   6.416   2.686
95808SOL     OW89262   2.773   5.456   6.867
95808SOL    HW189263   2.741   5.487   6.952
95808SOL    HW289264   2.694   5.436   6.818
95809SOL     OW89265   6.471  12.333   2.285
95809SOL    HW189266   6.509  12.321   2.372
95809SOL    HW289267   6.465  12.428   2.275
95810SOL     OW89268   0.089   5.721  14.777
95810SOL    HW189269   0.054   5.638  14.810
95810SOL    HW289270   0.014   5.763  14.734
95811SOL     OW89271   1.890  12.098   3.258
95811SOL    HW189272   1.859  12.024   3.206
95811SOL    HW289273   1.935  12.154   3.195
95812SOL     OW89274  10.606  12.585   5.147
95812SOL    HW189275  10.649  12.666   5.120
95812SOL    HW289276  10.519  12.589   5.108
95813SOL     OW89277   8.941  14.680  12.158
95813SOL    HW189278   8.912  14.665  12.248
95813SOL    HW289279   9.030  14.645  12.154
95814SOL     OW89280   3.784  13.212   2.992
95814SOL    HW189281   3.813  13.286   3.044
95814SOL    HW289282   3.803  13.237   2.902
95815SOL     OW89283   6.843  13.393   0.061
95815SOL    HW189284   6.774  13.456   0.083
95815SOL    HW289285   6.805  13.337  14.867
95816SOL     OW89286   5.581   7.180  14.490
95816SOL    HW189287   5.517   7.109  14.486
95816SOL    HW289288   5.666   7.137  14.480
95817SOL     OW89289   0.865  13.920   9.450
95817SOL    HW189290   0.856  13.897   9.358
95817SOL    HW289291   0.949  13.882   9.476
95818SOL     OW89292  10.491   1.761   1.330
95818SOL    HW189293  10.518   1.669   1.337
95818SOL    HW289294  10.533   1.793   1.251
95819SOL     OW89295  11.323   6.862   7.573
95819SOL    HW189296  11.292   6.885   7.485
95819SOL    HW289297  11.260   6.905   7.632
95820SOL     OW89298   9.387   5.572   5.543
95820SOL    HW189299   9.358   5.499   5.488
95820SOL    HW289300   9.483   5.566   5.543
95821SOL     OW89301   8.124   2.065   9.788
95821SOL    HW189302   8.163   2.135   9.735
95821SOL    HW289303   8.067   2.018   9.727
95822SOL     OW89304  12.876   6.499   6.967
95822SOL    HW189305  12.888   6.419   7.018
95822SOL    HW289306  12.817   6.553   7.021
95823SOL     OW89307  14.639   1.918   8.611
95823SOL    HW189308  14.725   1.931   8.651
95823SOL    HW289309  14.579   1.907   8.684
95824SOL     OW89310   4.408  11.724  13.823
95824SOL    HW189311   4.341  11.666  13.788
95824SOL    HW289312   4.359  11.793  13.868
95825SOL     OW89313   9.613   9.244   7.050
95825SOL    HW189314   9.624   9.337   7.032
95825SOL    HW289315   9.666   9.200   6.983
95826SOL     OW89316  14.799   6.144  13.637
95826SOL    HW189317  14.821   6.234  13.659
95826SOL    HW289318  14.851   6.091  13.697
95827SOL     OW89319   0.421   5.424   0.941
95827SOL    HW189320   0.341   5.440   0.990
95827SOL    HW289321   0.469   5.360   0.994
95828SOL     OW89322  13.784   3.588   7.039
95828SOL    HW189323  13.803   3.616   7.128
95828SOL    HW289324  13.705   3.533   7.047
95829SOL     OW89325  10.894  12.254  12.820
95829SOL    HW189326  10.881  12.293  12.907
95829SOL    HW289327  10.922  12.164  12.838
95830SOL     OW89328   4.260  13.759  14.844
95830SOL    HW189329   4.235  13.690   0.031
95830SOL    HW289330   4.246  13.840   0.020
95831SOL     OW89331  13.702  10.438   6.796
95831SOL    HW189332  13.775  10.389   6.835
95831SOL    HW289333  13.739  10.525   6.778
95832SOL     OW89334   0.304   6.993   4.959
95832SOL    HW189335   0.399   7.003   4.949
95832SOL    HW289336   0.294   6.943   5.040
95833SOL     OW89337  10.241  12.202   5.328
95833SOL    HW189338  10.186  12.242   5.396
95833SOL    HW289339  10.288  12.132   5.373
95834SOL     OW89340  12.249   4.205  13.820
95834SOL    HW189341  12.344   4.189  13.819
95834SOL    HW289342  12.216   4.156  13.745
95835SOL     OW89343   4.849   5.957   4.941
95835SOL    HW189344   4.843   5.971   5.036
95835SOL    HW289345   4.896   5.874   4.933
95836SOL     OW89346  12.718  11.985   1.907
95836SOL    HW189347  12.623  11.975   1.909
95836SOL    HW289348  12.740  12.023   1.992
95837SOL     OW89349   9.984   9.691  12.037
95837SOL    HW189350   9.902   9.642  12.044
95837SOL    HW289351   9.996   9.704  11.943
95838SOL     OW89352  12.515   5.612   4.637
95838SOL    HW189353  12.537   5.523   4.666
95838SOL    HW289354  12.423   5.605   4.608
95839SOL     OW89355   8.721  12.622  14.454
95839SOL    HW189356   8.774  12.556  14.409
95839SOL    HW289357   8.740  12.703  14.408
95840SOL     OW89358   2.644   3.657   8.930
95840SOL    HW189359   2.562   3.707   8.933
95840SOL    HW289360   2.713   3.722   8.939
95841SOL     OW89361  14.496  14.236  12.144
95841SOL    HW189362  14.454  14.280  12.070
95841SOL    HW289363  14.439  14.162  12.164
95842SOL     OW89364   8.645  12.329  14.143
95842SOL    HW189365   8.578  12.320  14.211
95842SOL    HW289366   8.598  12.313  14.061
95843SOL     OW89367   9.958   5.016  13.161
95843SOL    HW189368   9.927   4.928  13.141
95843SOL    HW289369   9.982   5.013  13.254
95844SOL     OW89370   1.769  10.778   5.319
95844SOL    HW189371   1.765  10.710   5.252
95844SOL    HW289372   1.677  10.790   5.346
95845SOL     OW89373  13.150   7.733   8.141
95845SOL    HW189374  13.238   7.749   8.176
95845SOL    HW289375  13.094   7.727   8.219
95846SOL     OW89376   4.604   5.895   6.693
95846SOL    HW189377   4.683   5.925   6.646
95846SOL    HW289378   4.637   5.868   6.779
95847SOL     OW89379   8.075   8.733   7.755
95847SOL    HW189380   8.011   8.795   7.721
95847SOL    HW289381   8.092   8.763   7.844
95848SOL     OW89382   2.319   7.463   4.704
95848SOL    HW189383   2.264   7.527   4.750
95848SOL    HW289384   2.387   7.440   4.768
95849SOL     OW89385   5.495   8.303  13.304
95849SOL    HW189386   5.446   8.227  13.336
95849SOL    HW289387   5.458   8.377  13.353
95850SOL     OW89388   0.730  14.647  11.068
95850SOL    HW189389   0.730  14.646  10.972
95850SOL    HW289390   0.817  14.681  11.091
95851SOL     OW89391   7.519  11.493  12.295
95851SOL    HW189392   7.563  11.452  12.220
95851SOL    HW289393   7.470  11.422  12.336
95852SOL     OW89394   2.044   0.434   6.194
95852SOL    HW189395   2.064   0.426   6.101
95852SOL    HW289396   2.064   0.526   6.215
95853SOL     OW89397  12.871   0.389  13.359
95853SOL    HW189398  12.953   0.342  13.371
95853SOL    HW289399  12.897   0.478  13.334
95854SOL     OW89400   5.832   3.634   0.037
95854SOL    HW189401   5.791   3.690   0.103
95854SOL    HW289402   5.774   3.558   0.029
95855SOL     OW89403   4.556   1.154   5.356
95855SOL    HW189404   4.515   1.154   5.442
95855SOL    HW289405   4.579   1.245   5.340
95856SOL     OW89406   4.529  11.293   1.718
95856SOL    HW189407   4.491  11.333   1.640
95856SOL    HW289408   4.474  11.218   1.737
95857SOL     OW89409   5.055   8.581   2.421
95857SOL    HW189410   5.112   8.519   2.467
95857SOL    HW289411   5.084   8.578   2.330
95858SOL     OW89412   5.881  11.816   2.760
95858SOL    HW189413   5.844  11.787   2.676
95858SOL    HW289414   5.926  11.898   2.738
95859SOL     OW89415   7.148   9.543  12.380
95859SOL    HW189416   7.117   9.455  12.402
95859SOL    HW289417   7.113   9.560  12.293
95860SOL     OW89418   6.577   8.272  11.410
95860SOL    HW189419   6.586   8.265  11.315
95860SOL    HW289420   6.603   8.186  11.443
95861SOL     OW89421  10.438   1.530  11.810
95861SOL    HW189422  10.359   1.480  11.789
95861SOL    HW289423  10.466   1.496  11.895
95862SOL     OW89424   9.918   6.200   8.258
95862SOL    HW189425   9.887   6.228   8.172
95862SOL    HW289426   9.880   6.113   8.270
95863SOL     OW89427   0.931  12.570   5.496
95863SOL    HW189428   0.897  12.483   5.474
95863SOL    HW289429   0.882  12.630   5.439
95864SOL     OW89430  10.303  12.317   2.860
95864SOL    HW189431  10.283  12.244   2.919
95864SOL    HW289432  10.268  12.289   2.776
95865SOL     OW89433  11.775  11.123   4.810
95865SOL    HW189434  11.831  11.123   4.733
95865SOL    HW289435  11.760  11.215   4.830
95866SOL     OW89436   2.655   1.386  12.178
95866SOL    HW189437   2.673   1.473  12.144
95866SOL    HW289438   2.741   1.348  12.197
95867SOL     OW89439   4.452  13.992   5.619
95867SOL    HW189440   4.517  14.032   5.560
95867SOL    HW289441   4.505  13.950   5.687
95868SOL     OW89442  10.497   0.457  14.252
95868SOL    HW189443  10.555   0.497  14.316
95868SOL    HW289444  10.490   0.523  14.182
95869SOL     OW89445   8.409   7.362  13.014
95869SOL    HW189446   8.465   7.398  12.945
95869SOL    HW289447   8.460   7.371  13.094
95870SOL     OW89448   2.524   9.862   1.527
95870SOL    HW189449   2.478   9.937   1.492
95870SOL    HW289450   2.455   9.807   1.566
95871SOL     OW89451   2.989   5.164   4.862
95871SOL    HW189452   2.999   5.099   4.932
95871SOL    HW289453   3.027   5.123   4.785
95872SOL     OW89454  11.934  12.389   3.724
95872SOL    HW189455  11.869  12.323   3.699
95872SOL    HW289456  11.990  12.346   3.788
95873SOL     OW89457   1.610   1.302   4.680
95873SOL    HW189458   1.521   1.291   4.715
95873SOL    HW289459   1.649   1.214   4.686
95874SOL     OW89460   0.360  11.839   3.140
95874SOL    HW189461   0.380  11.796   3.223
95874SOL    HW289462   0.444  11.869   3.107
95875SOL     OW89463   9.222   6.721   9.112
95875SOL    HW189464   9.297   6.758   9.064
95875SOL    HW289465   9.167   6.797   9.133
95876SOL     OW89466  13.538   5.487   4.510
95876SOL    HW189467  13.464   5.545   4.491
95876SOL    HW289468  13.605   5.544   4.546
95877SOL     OW89469  13.490  10.789   4.079
95877SOL    HW189470  13.483  10.869   4.130
95877SOL    HW289471  13.514  10.722   4.143
95878SOL     OW89472   2.258   5.949   8.408
95878SOL    HW189473   2.244   5.859   8.435
95878SOL    HW289474   2.287   5.994   8.488
95879SOL     OW89475  12.282   3.385  12.189
95879SOL    HW189476  12.238   3.419  12.111
95879SOL    HW289477  12.336   3.313  12.158
95880SOL     OW89478  13.990  12.295  11.740
95880SOL    HW189479  14.018  12.354  11.810
95880SOL    HW289480  13.916  12.339  11.699
95881SOL     OW89481   2.660   7.397   4.485
95881SOL    HW189482   2.718   7.427   4.415
95881SOL    HW289483   2.710   7.330   4.530
95882SOL     OW89484   6.549   7.407   2.105
95882SOL    HW189485   6.508   7.321   2.092
95882SOL    HW289486   6.608   7.394   2.180
95883SOL     OW89487  14.403   0.806  12.930
95883SOL    HW189488  14.408   0.741  13.001
95883SOL    HW289489  14.322   0.783  12.884
95884SOL     OW89490   0.034   9.325  10.361
95884SOL    HW189491  14.865   9.393  10.413
95884SOL    HW289492  14.843   9.253  10.361
95885SOL     OW89493   0.496   7.248  13.375
95885SOL    HW189494   0.482   7.320  13.313
95885SOL    HW289495   0.429   7.183  13.352
95886SOL     OW89496   0.408   6.111   2.859
95886SOL    HW189497   0.343   6.180   2.872
95886SOL    HW289498   0.477   6.153   2.808
95887SOL     OW89499  14.578   8.329  10.778
95887SOL    HW189500  14.489   8.324  10.814
95887SOL    HW289501  14.611   8.414  10.808
95888SOL     OW89502   9.546   2.099   4.046
95888SOL    HW189503   9.483   2.140   3.986
95888SOL    HW289504   9.567   2.015   4.005
95889SOL     OW89505   8.320   2.119  10.704
95889SOL    HW189506   8.296   2.027  10.692
95889SOL    HW289507   8.366   2.143  10.624
95890SOL     OW89508  11.651   4.264  14.026
95890SOL    HW189509  11.705   4.263  14.106
95890SOL    HW289510  11.677   4.345  13.982
95891SOL     OW89511  10.172   1.748   1.815
95891SOL    HW189512  10.081   1.724   1.833
95891SOL    HW289513  10.174   1.771   1.722
95892SOL     OW89514   2.615   5.737   6.926
95892SOL    HW189515   2.671   5.804   6.888
95892SOL    HW289516   2.527   5.775   6.924
95893SOL     OW89517   2.701  14.372   5.486
95893SOL    HW189518   2.645  14.449   5.478
95893SOL    HW289519   2.780  14.405   5.529
95894SOL     OW89520   5.040  11.117   0.813
95894SOL    HW189521   5.024  11.125   0.907
95894SOL    HW289522   5.127  11.154   0.800
95895SOL     OW89523  13.550   5.927   6.992
95895SOL    HW189524  13.552   5.995   7.059
95895SOL    HW289525  13.630   5.942   6.940
95896SOL     OW89526   6.866   7.366   5.220
95896SOL    HW189527   6.939   7.414   5.181
95896SOL    HW289528   6.806   7.350   5.147
95897SOL     OW89529   0.388  13.394   9.882
95897SOL    HW189530   0.455  13.330   9.858
95897SOL    HW289531   0.423  13.437   9.960
95898SOL     OW89532   8.145   4.620   6.461
95898SOL    HW189533   8.063   4.634   6.509
95898SOL    HW289534   8.212   4.616   6.529
95899SOL     OW89535   2.854   0.226   5.599
95899SOL    HW189536   2.817   0.193   5.681
95899SOL    HW289537   2.932   0.275   5.626
95900SOL     OW89538   2.443  10.450  14.843
95900SOL    HW189539   2.534  10.457  14.816
95900SOL    HW289540   2.400  10.528  14.809
95901SOL     OW89541   0.653  10.738  12.056
95901SOL    HW189542   0.642  10.691  11.974
95901SOL    HW289543   0.708  10.680  12.110
95902SOL     OW89544  10.472   7.458  11.173
95902SOL    HW189545  10.389   7.495  11.204
95902SOL    HW289546  10.497   7.395  11.241
95903SOL     OW89547   1.902  13.302   9.889
95903SOL    HW189548   1.985  13.264   9.918
95903SOL    HW289549   1.866  13.236   9.830
95904SOL     OW89550   6.434  11.667   8.350
95904SOL    HW189551   6.407  11.651   8.260
95904SOL    HW289552   6.447  11.761   8.356
95905SOL     OW89553  14.455   1.516   8.453
95905SOL    HW189554  14.450   1.569   8.533
95905SOL    HW289555  14.516   1.446   8.474
95906SOL     OW89556   4.675   8.184   0.776
95906SOL    HW189557   4.633   8.238   0.843
95906SOL    HW289558   4.768   8.206   0.782
95907SOL     OW89559   2.214   0.754   3.307
95907SOL    HW189560   2.138   0.810   3.325
95907SOL    HW289561   2.237   0.718   3.392
95908SOL     OW89562  12.164   3.895  11.505
95908SOL    HW189563  12.256   3.873  11.492
95908SOL    HW289564  12.164   3.987  11.530
95909SOL     OW89565   8.814   1.974   7.203
95909SOL    HW189566   8.736   1.964   7.259
95909SOL    HW289567   8.818   2.067   7.185
95910SOL     OW89568  13.112   7.069   3.682
95910SOL    HW189569  13.158   7.072   3.766
95910SOL    HW289570  13.023   7.098   3.703
95911SOL     OW89571  13.299   8.512   9.954
95911SOL    HW189572  13.353   8.434   9.968
95911SOL    HW289573  13.356   8.585   9.980
95912SOL     OW89574  11.450   8.078   0.888
95912SOL    HW189575  11.355   8.087   0.887
95912SOL    HW289576  11.476   8.086   0.797
95913SOL     OW89577   6.498   7.422   1.423
95913SOL    HW189578   6.551   7.420   1.503
95913SOL    HW289579   6.554   7.464   1.358
95914SOL     OW89580   4.269   5.571   5.284
95914SOL    HW189581   4.187   5.547   5.328
95914SOL    HW289582   4.253   5.554   5.192
95915SOL     OW89583   5.668  14.584   9.041
95915SOL    HW189584   5.686  14.496   9.007
95915SOL    HW289585   5.629  14.568   9.127
95916SOL     OW89586  10.228   6.393  10.223
95916SOL    HW189587  10.288   6.355  10.287
95916SOL    HW289588  10.152   6.335  10.224
95917SOL     OW89589   6.169   3.170  11.460
95917SOL    HW189590   6.252   3.216  11.471
95917SOL    HW289591   6.114   3.231  11.410
95918SOL     OW89592   8.835  11.686  11.873
95918SOL    HW189593   8.769  11.750  11.849
95918SOL    HW289594   8.882  11.668  11.791
95919SOL     OW89595   3.725  13.911   2.437
95919SOL    HW189596   3.805  13.870   2.472
95919SOL    HW289597   3.663  13.839   2.428
95920SOL     OW89598   6.570   5.660   5.378
95920SOL    HW189599   6.492   5.640   5.430
95920SOL    HW289600   6.618   5.577   5.374
95921SOL     OW89601   4.452   1.810   0.878
95921SOL    HW189602   4.516   1.862   0.928
95921SOL    HW289603   4.442   1.730   0.929
95922SOL     OW89604   5.857   0.625   2.209
95922SOL    HW189605   5.925   0.623   2.276
95922SOL    HW289606   5.878   0.702   2.156
95923SOL     OW89607  14.810  11.849   7.726
95923SOL    HW189608  14.864  11.772   7.706
95923SOL    HW289609  14.872  11.922   7.730
95924SOL     OW89610   9.083   6.736  12.263
95924SOL    HW189611   9.054   6.767  12.177
95924SOL    HW289612   9.132   6.810  12.298
95925SOL     OW89613   9.323   3.865   3.665
95925SOL    HW189614   9.403   3.858   3.614
95925SOL    HW289615   9.351   3.857   3.756
95926SOL     OW89616   8.568   1.491   0.642
95926SOL    HW189617   8.515   1.457   0.570
95926SOL    HW289618   8.647   1.524   0.599
95927SOL     OW89619   2.417   1.668   6.506
95927SOL    HW189620   2.487   1.630   6.559
95927SOL    HW289621   2.456   1.745   6.466
95928SOL     OW89622  11.815  14.105   2.094
95928SOL    HW189623  11.830  14.013   2.113
95928SOL    HW289624  11.884  14.152   2.142
95929SOL     OW89625  14.127  11.796   3.384
95929SOL    HW189626  14.158  11.858   3.450
95929SOL    HW289627  14.068  11.848   3.329
95930SOL     OW89628  13.495   3.547  12.483
95930SOL    HW189629  13.524   3.635  12.505
95930SOL    HW289630  13.472   3.551  12.390
95931SOL     OW89631   6.398   3.769   8.806
95931SOL    HW189632   6.336   3.738   8.872
95931SOL    HW289633   6.395   3.864   8.812
95932SOL     OW89634   1.665   4.944   4.788
95932SOL    HW189635   1.742   4.998   4.771
95932SOL    HW289636   1.608   4.999   4.842
95933SOL     OW89637  11.756   6.162  11.074
95933SOL    HW189638  11.671   6.154  11.030
95933SOL    HW289639  11.752   6.099  11.146
95934SOL     OW89640   3.269   6.396   8.827
95934SOL    HW189641   3.194   6.413   8.884
95934SOL    HW289642   3.294   6.483   8.794
95935SOL     OW89643   7.979   2.807   7.220
95935SOL    HW189644   8.052   2.868   7.208
95935SOL    HW289645   7.962   2.773   7.132
95936SOL     OW89646   9.959   1.446   1.646
95936SOL    HW189647  10.005   1.431   1.563
95936SOL    HW289648   9.999   1.385   1.707
95937SOL     OW89649   6.694   2.695  14.842
95937SOL    HW189650   6.772   2.693  14.786
95937SOL    HW289651   6.641   2.767  14.809
95938SOL     OW89652  11.590   8.857  14.398
95938SOL    HW189653  11.657   8.819  14.341
95938SOL    HW289654  11.517   8.877  14.339
95939SOL     OW89655   6.043   1.486   4.765
95939SOL    HW189656   5.953   1.457   4.748
95939SOL    HW289657   6.032   1.573   4.806
95940SOL     OW89658   9.571   6.953   8.450
95940SOL    HW189659   9.634   7.023   8.467
95940SOL    HW289660   9.566   6.948   8.355
95941SOL     OW89661   5.495  12.314  12.191
95941SOL    HW189662   5.407  12.351  12.197
95941SOL    HW289663   5.550  12.387  12.162
95942SOL     OW89664   1.809  11.392  10.786
95942SOL    HW189665   1.790  11.304  10.753
95942SOL    HW289666   1.864  11.431  10.718
95943SOL     OW89667  11.279   4.945  14.169
95943SOL    HW189668  11.235   4.986  14.243
95943SOL    HW289669  11.298   4.856  14.199
95944SOL     OW89670  12.748   7.592  12.579
95944SOL    HW189671  12.784   7.664  12.629
95944SOL    HW289672  12.734   7.522  12.643
95945SOL     OW89673   9.608  11.777  14.385
95945SOL    HW189674   9.527  11.735  14.356
95945SOL    HW289675   9.673  11.753  14.318
95946SOL     OW89676   9.128   7.778  14.039
95946SOL    HW189677   9.096   7.757  13.951
95946SOL    HW289678   9.199   7.715  14.054
95947SOL     OW89679   3.104   6.099   7.680
95947SOL    HW189680   3.033   6.044   7.711
95947SOL    HW289681   3.177   6.038   7.664
95948SOL     OW89682  13.557  11.053  10.261
95948SOL    HW189683  13.506  11.060  10.341
95948SOL    HW289684  13.647  11.039  10.290
95949SOL     OW89685   1.344   7.382   9.851
95949SOL    HW189686   1.293   7.454   9.887
95949SOL    HW289687   1.343   7.397   9.756
95950SOL     OW89688   9.015   3.822   7.662
95950SOL    HW189689   8.945   3.794   7.721
95950SOL    HW289690   9.050   3.902   7.701
95951SOL     OW89691   7.027   1.321   6.219
95951SOL    HW189692   7.116   1.304   6.188
95951SOL    HW289693   7.039   1.357   6.307
95952SOL     OW89694   9.723   8.514   2.784
95952SOL    HW189695   9.730   8.462   2.704
95952SOL    HW289696   9.632   8.504   2.812
95953SOL     OW89697   9.842   6.667   4.985
95953SOL    HW189698   9.828   6.602   5.054
95953SOL    HW289699   9.890   6.738   5.027
95954SOL     OW89700   2.797  13.779  14.482
95954SOL    HW189701   2.789  13.732  14.400
95954SOL    HW289702   2.720  13.835  14.485
95955SOL     OW89703   8.182  12.613   2.341
95955SOL    HW189704   8.156  12.641   2.429
95955SOL    HW289705   8.157  12.521   2.336
95956SOL     OW89706   1.496  14.458  11.579
95956SOL    HW189707   1.537  14.542  11.559
95956SOL    HW289708   1.485  14.416  11.494
95957SOL     OW89709   2.994   4.761   3.655
95957SOL    HW189710   2.977   4.690   3.718
95957SOL    HW289711   2.977   4.722   3.570
95958SOL     OW89712  10.344   2.855  13.544
95958SOL    HW189713  10.272   2.821  13.491
95958SOL    HW289714  10.382   2.926  13.492
95959SOL     OW89715   1.274   1.571   4.508
95959SOL    HW189716   1.253   1.645   4.450
95959SOL    HW289717   1.196   1.560   4.562
95960SOL     OW89718   7.063  14.684  14.120
95960SOL    HW189719   6.979  14.718  14.089
95960SOL    HW289720   7.066  14.594  14.086
95961SOL     OW89721  11.812  11.566   4.383
95961SOL    HW189722  11.867  11.554   4.306
95961SOL    HW289723  11.766  11.649   4.367
95962SOL     OW89724   8.592  14.194   0.704
95962SOL    HW189725   8.567  14.199   0.612
95962SOL    HW289726   8.528  14.248   0.749
95963SOL     OW89727  12.629  11.347   5.319
95963SOL    HW189728  12.706  11.349   5.375
95963SOL    HW289729  12.564  11.399   5.366
95964SOL     OW89730  14.040   9.572   2.862
95964SOL    HW189731  14.059   9.644   2.802
95964SOL    HW289732  14.027   9.614   2.947
95965SOL     OW89733   6.005   0.764   6.326
95965SOL    HW189734   5.977   0.777   6.236
95965SOL    HW289735   6.040   0.675   6.328
95966SOL     OW89736  12.492   6.015   8.084
95966SOL    HW189737  12.435   6.040   8.011
95966SOL    HW289738  12.573   6.065   8.069
95967SOL     OW89739   5.845   8.163   0.994
95967SOL    HW189740   5.857   8.251   0.957
95967SOL    HW289741   5.933   8.137   1.023
95968SOL     OW89742   9.742   7.897   0.951
95968SOL    HW189743   9.720   7.940   1.033
95968SOL    HW289744   9.688   7.818   0.949
95969SOL     OW89745  13.810  13.799   2.945
95969SOL    HW189746  13.727  13.769   2.907
95969SOL    HW289747  13.844  13.861   2.881
95970SOL     OW89748   8.029   0.717   9.490
95970SOL    HW189749   8.101   0.657   9.470
95970SOL    HW289750   8.022   0.716   9.585
95971SOL     OW89751   2.316   1.908   8.715
95971SOL    HW189752   2.365   1.843   8.765
95971SOL    HW289753   2.270   1.959   8.782
95972SOL     OW89754   9.391   9.591  10.265
95972SOL    HW189755   9.480   9.604  10.231
95972SOL    HW289756   9.343   9.552  10.192
95973SOL     OW89757  13.945   7.597  10.940
95973SOL    HW189758  13.989   7.551  10.869
95973SOL    HW289759  13.988   7.566  11.020
95974SOL     OW89760   5.244   4.531   7.933
95974SOL    HW189761   5.261   4.573   7.849
95974SOL    HW289762   5.149   4.526   7.939
95975SOL     OW89763   5.613   0.661   6.016
95975SOL    HW189764   5.582   0.712   6.091
95975SOL    HW289765   5.675   0.598   6.054
95976SOL     OW89766   9.583   6.130   8.127
95976SOL    HW189767   9.548   6.147   8.040
95976SOL    HW289768   9.663   6.079   8.111
95977SOL     OW89769   7.538   1.333   7.810
95977SOL    HW189770   7.447   1.344   7.835
95977SOL    HW289771   7.549   1.238   7.799
95978SOL     OW89772  10.239   5.525   0.116
95978SOL    HW189773  10.263   5.590   0.050
95978SOL    HW289774  10.144   5.520   0.112
95979SOL     OW89775   6.000  10.302   2.394
95979SOL    HW189776   5.974  10.210   2.392
95979SOL    HW289777   5.993  10.332   2.304
95980SOL     OW89778  13.563   8.548  12.600
95980SOL    HW189779  13.576   8.527  12.692
95980SOL    HW289780  13.613   8.481  12.553
95981SOL     OW89781   4.539   7.800   6.747
95981SOL    HW189782   4.557   7.870   6.810
95981SOL    HW289783   4.621   7.790   6.699
95982SOL     OW89784   1.615   5.306  13.907
95982SOL    HW189785   1.700   5.262  13.899
95982SOL    HW289786   1.552   5.245  13.869
95983SOL     OW89787  10.652   8.035   4.151
95983SOL    HW189788  10.642   8.049   4.057
95983SOL    HW289789  10.723   8.094   4.177
95984SOL     OW89790   6.542   5.734   2.062
95984SOL    HW189791   6.611   5.679   2.026
95984SOL    HW289792   6.587   5.794   2.122
95985SOL     OW89793   3.796   6.625   2.792
95985SOL    HW189794   3.830   6.573   2.865
95985SOL    HW289795   3.874   6.651   2.743
95986SOL     OW89796  13.949   2.220  12.321
95986SOL    HW189797  14.044   2.205  12.319
95986SOL    HW289798  13.912   2.137  12.291
95987SOL     OW89799   3.698  14.404  10.739
95987SOL    HW189800   3.704  14.458  10.660
95987SOL    HW289801   3.608  14.417  10.769
95988SOL     OW89802   0.113   1.684  10.880
95988SOL    HW189803   0.184   1.742  10.909
95988SOL    HW289804   0.037   1.742  10.873
95989SOL     OW89805   1.923   7.068   7.755
95989SOL    HW189806   1.977   7.132   7.708
95989SOL    HW289807   1.970   6.985   7.745
95990SOL     OW89808   7.086   9.893   3.866
95990SOL    HW189809   7.020   9.884   3.935
95990SOL    HW289810   7.136   9.812   3.870
95991SOL     OW89811  14.782   7.810   7.520
95991SOL    HW189812  14.711   7.850   7.570
95991SOL    HW289813  14.793   7.867   7.445
95992SOL     OW89814   1.032  14.248   1.721
95992SOL    HW189815   0.983  14.320   1.759
95992SOL    HW289816   0.979  14.219   1.647
95993SOL     OW89817   4.513   2.438   6.749
95993SOL    HW189818   4.437   2.421   6.805
95993SOL    HW289819   4.574   2.485   6.804
95994SOL     OW89820   5.738  12.637   0.759
95994SOL    HW189821   5.737  12.545   0.784
95994SOL    HW289822   5.789  12.639   0.678
95995SOL     OW89823  12.083   2.310   2.195
95995SOL    HW189824  12.066   2.251   2.121
95995SOL    HW289825  12.145   2.262   2.249
95996SOL     OW89826   8.927   0.492   6.490
95996SOL    HW189827   9.022   0.501   6.481
95996SOL    HW289828   8.912   0.494   6.585
95997SOL     OW89829  11.427   2.375   1.461
95997SOL    HW189830  11.413   2.369   1.366
95997SOL    HW289831  11.515   2.338   1.474
95998SOL     OW89832  11.094   7.102   2.007
95998SOL    HW189833  11.190   7.094   2.007
95998SOL    HW289834  11.078   7.196   2.004
95999SOL     OW89835  11.291   3.162  13.316
95999SOL    HW189836  11.320   3.097  13.381
95999SOL    HW289837  11.357   3.158  13.247
96000SOL     OW89838   7.866   7.803  10.139
96000SOL    HW189839   7.885   7.710  10.128
96000SOL    HW289840   7.800   7.823  10.073
96001SOL     OW89841   7.932  14.873  12.736
96001SOL    HW189842   8.018   0.022  12.700
96001SOL    HW289843   7.877  14.858  12.659
96002SOL     OW89844   4.268   4.191   8.921
96002SOL    HW189845   4.324   4.127   8.879
96002SOL    HW289846   4.307   4.276   8.900
96003SOL     OW89847   0.707   7.617   8.162
96003SOL    HW189848   0.793   7.642   8.198
96003SOL    HW289849   0.694   7.527   8.193
96004SOL     OW89850   0.160   2.845   7.967
96004SOL    HW189851   0.161   2.829   8.061
96004SOL    HW289852   0.133   2.936   7.959
96005SOL     OW89853  14.307   7.746   7.681
96005SOL    HW189854  14.281   7.838   7.685
96005SOL    HW289855  14.285   7.719   7.592
96006SOL     OW89856   8.822  13.506  14.013
96006SOL    HW189857   8.792  13.484  13.924
96006SOL    HW289858   8.864  13.592  14.003
96007SOL     OW89859   2.980   0.695  12.145
96007SOL    HW189860   3.029   0.613  12.136
96007SOL    HW289861   2.962   0.702  12.239
96008SOL     OW89862   2.731   1.907   9.401
96008SOL    HW189863   2.802   1.897   9.337
96008SOL    HW289864   2.776   1.909   9.486
96009SOL     OW89865   4.791   6.414  11.368
96009SOL    HW189866   4.802   6.320  11.361
96009SOL    HW289867   4.845   6.450  11.297
96010SOL     OW89868   9.133   6.604   1.619
96010SOL    HW189869   9.084   6.665   1.673
96010SOL    HW289870   9.068   6.566   1.560
96011SOL     OW89871   2.518   2.433  12.648
96011SOL    HW189872   2.582   2.433  12.577
96011SOL    HW289873   2.561   2.482  12.719
96012SOL     OW89874   3.928  11.573   5.435
96012SOL    HW189875   3.915  11.495   5.381
96012SOL    HW289876   3.843  11.586   5.478
96013SOL     OW89877   6.509   6.743   5.818
96013SOL    HW189878   6.594   6.706   5.796
96013SOL    HW289879   6.518   6.770   5.909
96014SOL     OW89880   6.104  14.076   0.011
96014SOL    HW189881   6.038  14.103  14.821
96014SOL    HW289882   6.141  13.995  14.847
96015SOL     OW89883  12.559  10.882   3.027
96015SOL    HW189884  12.498  10.956   3.025
96015SOL    HW289885  12.646  10.923   3.027
96016SOL     OW89886   9.263  13.670   2.191
96016SOL    HW189887   9.333  13.694   2.252
96016SOL    HW289888   9.209  13.749   2.184
96017SOL     OW89889  14.634  11.366   3.722
96017SOL    HW189890  14.641  11.271   3.710
96017SOL    HW289891  14.563  11.376   3.785
96018SOL     OW89892  14.212   3.683   8.741
96018SOL    HW189893  14.214   3.616   8.673
96018SOL    HW289894  14.139   3.657   8.798
96019SOL     OW89895   9.502   0.774   8.025
96019SOL    HW189896   9.428   0.813   8.071
96019SOL    HW289897   9.577   0.828   8.050
96020SOL     OW89898   6.021   4.823   9.922
96020SOL    HW189899   6.089   4.888   9.907
96020SOL    HW289900   5.998   4.793   9.834
96021SOL     OW89901   9.036   5.807   3.585
96021SOL    HW189902   9.066   5.873   3.522
96021SOL    HW289903   8.948   5.834   3.609
96022SOL     OW89904   3.229   9.854   3.496
96022SOL    HW189905   3.197   9.929   3.446
96022SOL    HW289906   3.270   9.893   3.573
96023SOL     OW89907  13.390   1.835  13.349
96023SOL    HW189908  13.358   1.926  13.355
96023SOL    HW289909  13.310   1.782  13.347
96024SOL     OW89910   0.672   1.349   8.227
96024SOL    HW189911   0.642   1.266   8.263
96024SOL    HW289912   0.638   1.352   8.138
96025SOL     OW89913   9.694  11.727  10.621
96025SOL    HW189914   9.684  11.809  10.668
96025SOL    HW289915   9.777  11.691  10.653
96026SOL     OW89916  13.290  12.882  14.498
96026SOL    HW189917  13.379  12.896  14.465
96026SOL    HW289918  13.240  12.855  14.421
96027SOL     OW89919   9.375   5.861  12.115
96027SOL    HW189920   9.317   5.935  12.099
96027SOL    HW289921   9.318   5.792  12.148
96028SOL     OW89922   7.647   5.102   2.191
96028SOL    HW189923   7.736   5.099   2.228
96028SOL    HW289924   7.621   5.010   2.185
96029SOL     OW89925   0.768   1.257  11.008
96029SOL    HW189926   0.723   1.286  11.087
96029SOL    HW289927   0.834   1.324  10.992
96030SOL     OW89928  10.937   0.191   1.962
96030SOL    HW189929  11.006   0.255   1.982
96030SOL    HW289930  10.859   0.244   1.949
96031SOL     OW89931   9.339   5.040  11.348
96031SOL    HW189932   9.249   5.042  11.380
96031SOL    HW289933   9.356   5.130  11.319
96032SOL     OW89934   7.870   5.761  10.447
96032SOL    HW189935   7.781   5.785  10.473
96032SOL    HW289936   7.908   5.724  10.527
96033SOL     OW89937   5.891   2.463   2.443
96033SOL    HW189938   5.978   2.484   2.410
96033SOL    HW289939   5.831   2.511   2.386
96034SOL     OW89940   4.978   0.498   5.613
96034SOL    HW189941   5.026   0.421   5.642
96034SOL    HW289942   5.045   0.564   5.597
96035SOL     OW89943   4.699   2.364   8.015
96035SOL    HW189944   4.646   2.436   7.983
96035SOL    HW289945   4.754   2.403   8.083
96036SOL     OW89946   6.605   5.502  13.277
96036SOL    HW189947   6.666   5.576  13.276
96036SOL    HW289948   6.520   5.541  13.295
96037SOL     OW89949   6.527   1.010   8.714
96037SOL    HW189950   6.545   1.104   8.704
96037SOL    HW289951   6.517   0.978   8.625
96038SOL     OW89952  12.736   3.159   8.438
96038SOL    HW189953  12.823   3.171   8.401
96038SOL    HW289954  12.676   3.176   8.364
96039SOL     OW89955  14.372   9.889   5.752
96039SOL    HW189956  14.444   9.925   5.699
96039SOL    HW289957  14.303   9.869   5.688
96040SOL     OW89958  11.198   7.924  12.452
96040SOL    HW189959  11.261   7.983  12.494
96040SOL    HW289960  11.117   7.939  12.500
96041SOL     OW89961   3.364   6.042   9.771
96041SOL    HW189962   3.349   6.002   9.857
96041SOL    HW289963   3.338   5.974   9.708
96042SOL     OW89964  11.704   6.919   3.581
96042SOL    HW189965  11.700   6.942   3.673
96042SOL    HW289966  11.769   6.849   3.576
96043SOL     OW89967  12.013   7.601   7.710
96043SOL    HW189968  11.992   7.510   7.732
96043SOL    HW289969  12.012   7.603   7.615
96044SOL     OW89970   1.799   6.648  13.273
96044SOL    HW189971   1.892   6.652  13.294
96044SOL    HW289972   1.773   6.558  13.291
96045SOL     OW89973  10.264   2.407   2.066
96045SOL    HW189974  10.218   2.394   1.982
96045SOL    HW289975  10.310   2.324   2.080
96046SOL     OW89976   1.921   0.399   4.622
96046SOL    HW189977   1.892   0.331   4.683
96046SOL    HW289978   1.948   0.351   4.544
96047SOL     OW89979   7.371  12.133  13.168
96047SOL    HW189980   7.290  12.102  13.128
96047SOL    HW289981   7.411  12.188  13.101
96048SOL     OW89982   1.485  10.758   9.758
96048SOL    HW189983   1.515  10.676   9.719
96048SOL    HW289984   1.450  10.808   9.684
96049SOL     OW89985   4.169  12.837  10.396
96049SOL    HW189986   4.206  12.760  10.438
96049SOL    HW289987   4.230  12.858  10.325
96050SOL     OW89988   7.195  10.300   8.219
96050SOL    HW189989   7.280  10.268   8.189
96050SOL    HW289990   7.174  10.371   8.158
96051SOL     OW89991  13.552   7.882   5.532
96051SOL    HW189992  13.526   7.973   5.542
96051SOL    HW289993  13.567   7.851   5.621
96052SOL     OW89994   5.089   8.056  11.805
96052SOL    HW189995   5.024   8.115  11.843
96052SOL    HW289996   5.088   7.979  11.862
96053SOL     OW89997  12.225   0.037   1.821
96053SOL    HW189998  12.296   0.095   1.793
96053SOL    HW289999  12.156   0.096   1.850
96054SOL     OW90000   4.989   9.165   6.675
96054SOL    HW190001   5.054   9.198   6.612
96054SOL    HW290002   4.951   9.088   6.634
96055SOL     OW90003  14.117   8.782  11.708
96055SOL    HW190004  14.168   8.859  11.684
96055SOL    HW290005  14.089   8.798  11.798
96056SOL     OW90006  14.717   3.364   7.412
96056SOL    HW190007  14.706   3.278   7.452
96056SOL    HW290008  14.699   3.350   7.319
96057SOL     OW90009  12.555  12.085  13.126
96057SOL    HW190010  12.613  12.038  13.067
96057SOL    HW290011  12.543  12.026  13.201
96058SOL     OW90012   7.399   5.322  10.002
96058SOL    HW190013   7.423   5.397   9.947
96058SOL    HW290014   7.354   5.362  10.077
96059SOL     OW90015   9.607   1.949  12.714
96059SOL    HW190016   9.566   1.878  12.665
96059SOL    HW290017   9.696   1.916  12.732
96060SOL     OW90018   5.082  11.307   4.838
96060SOL    HW190019   5.062  11.221   4.875
96060SOL    HW290020   5.021  11.366   4.882
96061SOL     OW90021   1.358   7.752   4.627
96061SOL    HW190022   1.369   7.763   4.533
96061SOL    HW290023   1.267   7.724   4.638
96062SOL     OW90024   0.917   7.257   1.438
96062SOL    HW190025   0.872   7.174   1.421
96062SOL    HW290026   0.994   7.254   1.380
96063SOL     OW90027   2.838   5.019  12.878
96063SOL    HW190028   2.859   4.933  12.915
96063SOL    HW290029   2.756   5.044  12.921
96064SOL     OW90030   7.211   3.526   6.538
96064SOL    HW190031   7.278   3.462   6.561
96064SOL    HW290032   7.254   3.584   6.475
96065SOL     OW90033   8.953  13.128   6.669
96065SOL    HW190034   9.009  13.125   6.747
96065SOL    HW290035   9.008  13.094   6.599
96066SOL     OW90036  14.501  10.205   2.110
96066SOL    HW190037  14.584  10.158   2.105
96066SOL    HW290038  14.472  10.193   2.200
96067SOL     OW90039  12.620  11.739   2.177
96067SOL    HW190040  12.631  11.834   2.170
96067SOL    HW290041  12.651  11.718   2.265
96068SOL     OW90042  10.777  11.054   0.089
96068SOL    HW190043  10.765  11.144   0.120
96068SOL    HW290044  10.690  11.028   0.058
96069SOL     OW90045  14.695   8.306  12.690
96069SOL    HW190046  14.647   8.252  12.754
96069SOL    HW290047  14.764   8.248  12.658
96070SOL     OW90048   6.071  13.095  12.966
96070SOL    HW190049   6.002  13.155  12.938
96070SOL    HW290050   6.025  13.013  12.988
96071SOL     OW90051   4.552  14.613   0.237
96071SOL    HW190052   4.538  14.518   0.243
96071SOL    HW290053   4.464  14.649   0.228
96072SOL     OW90054   8.144   1.878  11.309
96072SOL    HW190055   8.211   1.913  11.251
96072SOL    HW290056   8.186   1.803  11.353
96073SOL     OW90057   1.461   2.225   4.701
96073SOL    HW190058   1.382   2.179   4.671
96073SOL    HW290059   1.453   2.226   4.796
96074SOL     OW90060   3.305   0.080  12.705
96074SOL    HW190061   3.265   0.014  12.649
96074SOL    HW290062   3.333   0.031  12.783
96075SOL     OW90063   5.862  11.711   2.089
96075SOL    HW190064   5.884  11.804   2.091
96075SOL    HW290065   5.947  11.667   2.099
96076SOL     OW90066   6.945  10.233  13.526
96076SOL    HW190067   6.985  10.274  13.449
96076SOL    HW290068   6.981  10.280  13.601
96077SOL     OW90069   3.737   6.219   2.838
96077SOL    HW190070   3.723   6.131   2.804
96077SOL    HW290071   3.822   6.245   2.802
96078SOL     OW90072  10.037   6.804  12.435
96078SOL    HW190073  10.038   6.844  12.348
96078SOL    HW290074  10.001   6.872  12.492
96079SOL     OW90075   7.307   9.305  11.608
96079SOL    HW190076   7.363   9.236  11.643
96079SOL    HW290077   7.364   9.356  11.551
96080SOL     OW90078   3.472  12.518   5.289
96080SOL    HW190079   3.469  12.610   5.316
96080SOL    HW290080   3.555  12.485   5.322
96081SOL     OW90081  12.374   5.425  12.885
96081SOL    HW190082  12.459   5.381  12.891
96081SOL    HW290083  12.386   5.489  12.814
96082SOL     OW90084  13.735   0.461   6.943
96082SOL    HW190085  13.677   0.536   6.929
96082SOL    HW290086  13.823   0.499   6.944
96083SOL     OW90087   4.905   7.181   7.208
96083SOL    HW190088   4.875   7.090   7.202
96083SOL    HW290089   4.874   7.222   7.127
96084SOL     OW90090  13.791   1.737  10.495
96084SOL    HW190091  13.784   1.671  10.426
96084SOL    HW290092  13.830   1.691  10.569
96085SOL     OW90093  10.154   4.564   2.409
96085SOL    HW190094  10.096   4.492   2.382
96085SOL    HW290095  10.095   4.634   2.437
96086SOL     OW90096   7.627   2.471   6.081
96086SOL    HW190097   7.681   2.530   6.133
96086SOL    HW290098   7.690   2.424   6.026
96087SOL     OW90099  12.591  12.279  10.731
96087SOL    HW190100  12.577  12.188  10.757
96087SOL    HW290101  12.678  12.301  10.766
96088SOL     OW90102  12.668   7.670   6.760
96088SOL    HW190103  12.761   7.649   6.770
96088SOL    HW290104  12.622   7.596   6.800
96089SOL     OW90105  14.586   1.478   9.703
96089SOL    HW190106  14.588   1.569   9.731
96089SOL    HW290107  14.609   1.480   9.610
96090SOL     OW90108   5.422   2.765   7.313
96090SOL    HW190109   5.349   2.774   7.253
96090SOL    HW290110   5.392   2.703   7.379
96091SOL     OW90111  12.918   6.125   0.506
96091SOL    HW190112  12.850   6.180   0.544
96091SOL    HW290113  12.873   6.075   0.438
96092SOL     OW90114  12.064   4.442   6.210
96092SOL    HW190115  12.086   4.368   6.268
96092SOL    HW290116  12.109   4.517   6.250
96093SOL     OW90117   2.715  12.998   8.350
96093SOL    HW190118   2.776  13.070   8.358
96093SOL    HW290119   2.762  12.931   8.300
96094SOL     OW90120   2.024   6.476   5.279
96094SOL    HW190121   1.983   6.391   5.297
96094SOL    HW290122   2.015   6.488   5.184
96095SOL     OW90123   9.230   0.368   8.406
96095SOL    HW190124   9.240   0.463   8.400
96095SOL    HW290125   9.226   0.339   8.316
96096SOL     OW90126   5.791   1.695   8.012
96096SOL    HW190127   5.882   1.681   8.039
96096SOL    HW290128   5.752   1.744   8.084
96097SOL     OW90129  14.363  13.198   5.074
96097SOL    HW190130  14.433  13.176   5.136
96097SOL    HW290131  14.321  13.276   5.112
96098SOL     OW90132  14.644   8.153   1.613
96098SOL    HW190133  14.704   8.205   1.559
96098SOL    HW290134  14.595   8.099   1.551
96099SOL     OW90135   7.401  10.128  12.275
96099SOL    HW190136   7.409  10.173  12.191
96099SOL    HW290137   7.458  10.052  12.267
96100SOL     OW90138  12.698   1.902   8.465
96100SOL    HW190139  12.633   1.912   8.534
96100SOL    HW290140  12.664   1.832   8.409
96101SOL     OW90141  10.532   0.397  10.719
96101SOL    HW190142  10.455   0.450  10.742
96101SOL    HW290143  10.595   0.460  10.685
96102SOL     OW90144   9.709  10.292   8.095
96102SOL    HW190145   9.657  10.287   8.015
96102SOL    HW290146   9.799  10.278   8.066
96103SOL     OW90147   7.841   8.536  14.256
96103SOL    HW190148   7.757   8.518  14.212
96103SOL    HW290149   7.878   8.610  14.207
96104SOL     OW90150  10.818   2.947   5.450
96104SOL    HW190151  10.837   3.027   5.499
96104SOL    HW290152  10.722   2.941   5.451
96105SOL     OW90153   7.777   4.842  12.009
96105SOL    HW190154   7.811   4.930  11.998
96105SOL    HW290155   7.707   4.851  12.075
96106SOL     OW90156   5.302   1.205   7.456
96106SOL    HW190157   5.260   1.180   7.538
96106SOL    HW290158   5.396   1.193   7.473
96107SOL     OW90159   4.636  13.628   7.416
96107SOL    HW190160   4.716  13.576   7.425
96107SOL    HW290161   4.626  13.672   7.500
96108SOL     OW90162   7.597   6.130  11.237
96108SOL    HW190163   7.670   6.075  11.264
96108SOL    HW290164   7.581   6.106  11.145
96109SOL     OW90165   8.138   6.226   4.460
96109SOL    HW190166   8.182   6.307   4.487
96109SOL    HW290167   8.057   6.224   4.510
96110SOL     OW90168   4.502  11.800   2.113
96110SOL    HW190169   4.414  11.774   2.084
96110SOL    HW290170   4.510  11.761   2.200
96111SOL     OW90171   0.767   1.826  10.367
96111SOL    HW190172   0.860   1.842  10.350
96111SOL    HW290173   0.722   1.880  10.302
96112SOL     OW90174   1.737   7.626   7.469
96112SOL    HW190175   1.677   7.583   7.530
96112SOL    HW290176   1.737   7.718   7.496
96113SOL     OW90177   3.738   0.585  12.358
96113SOL    HW190178   3.722   0.639  12.280
96113SOL    HW290179   3.742   0.496  12.324
96114SOL     OW90180  13.922   1.123  14.826
96114SOL    HW190181  13.919   1.081   0.039
96114SOL    HW290182  13.992   1.078  14.779
96115SOL     OW90183  11.437   3.542  14.839
96115SOL    HW190184  11.490   3.621  14.827
96115SOL    HW290185  11.350   3.567  14.807
96116SOL     OW90186   9.584   1.494  12.190
96116SOL    HW190187   9.665   1.487  12.140
96116SOL    HW290188   9.608   1.539  12.271
96117SOL     OW90189   9.265   3.845  13.545
96117SOL    HW190190   9.172   3.826  13.531
96117SOL    HW290191   9.271   3.861  13.640
96118SOL     OW90192  12.495  11.408   4.922
96118SOL    HW190193  12.487  11.316   4.899
96118SOL    HW290194  12.588  11.420   4.941
96119SOL     OW90195   9.195  14.258  12.193
96119SOL    HW190196   9.109  14.263  12.235
96119SOL    HW290197   9.188  14.184  12.133
96120SOL     OW90198  12.339   1.551  12.899
96120SOL    HW190199  12.310   1.479  12.842
96120SOL    HW290200  12.332   1.629  12.845
96121SOL     OW90201   4.433   7.405   4.423
96121SOL    HW190202   4.416   7.312   4.408
96121SOL    HW290203   4.490   7.407   4.500
96122SOL     OW90204   8.797  10.011  13.291
96122SOL    HW190205   8.790   9.917  13.304
96122SOL    HW290206   8.781  10.024  13.197
96123SOL     OW90207   2.374   6.263  13.379
96123SOL    HW190208   2.423   6.240  13.458
96123SOL    HW290209   2.427   6.330  13.336
96124SOL     OW90210  13.855   2.825  12.694
96124SOL    HW190211  13.803   2.898  12.661
96124SOL    HW290212  13.921   2.866  12.750
96125SOL     OW90213  10.671   9.138   8.614
96125SOL    HW190214  10.688   9.055   8.658
96125SOL    HW290215  10.576   9.148   8.618
96126SOL     OW90216   3.720  10.293  10.329
96126SOL    HW190217   3.626  10.280  10.341
96126SOL    HW290218   3.754  10.206  10.309
96127SOL     OW90219   9.276   7.896   5.253
96127SOL    HW190220   9.252   7.962   5.318
96127SOL    HW290221   9.357   7.858   5.285
96128SOL     OW90222  14.575   2.929   2.639
96128SOL    HW190223  14.493   2.923   2.589
96128SOL    HW290224  14.558   2.879   2.719
96129SOL     OW90225   6.810  14.715   8.502
96129SOL    HW190226   6.890  14.757   8.532
96129SOL    HW290227   6.765  14.782   8.450
96130SOL     OW90228   6.890   0.809   7.356
96130SOL    HW190229   6.880   0.716   7.333
96130SOL    HW290230   6.981   0.817   7.384
96131SOL     OW90231  11.667  13.869   6.118
96131SOL    HW190232  11.625  13.894   6.036
96131SOL    HW290233  11.728  13.800   6.095
96132SOL     OW90234   9.269   6.987  12.948
96132SOL    HW190235   9.245   6.951  12.863
96132SOL    HW290236   9.187   6.990  12.996
96133SOL     OW90237  13.376   3.565  10.128
96133SOL    HW190238  13.351   3.473  10.142
96133SOL    HW290239  13.301   3.604  10.083
96134SOL     OW90240  10.200   0.276   6.960
96134SOL    HW190241  10.229   0.253   6.872
96134SOL    HW290242  10.247   0.217   7.018
96135SOL     OW90243   6.535  11.822  10.540
96135SOL    HW190244   6.605  11.883  10.517
96135SOL    HW290245   6.538  11.816  10.635
96136SOL     OW90246  10.299   2.681  12.629
96136SOL    HW190247  10.295   2.712  12.539
96136SOL    HW290248  10.356   2.743  12.674
96137SOL     OW90249  10.065  12.618   4.915
96137SOL    HW190250  10.114  12.560   4.856
96137SOL    HW290251  10.104  12.705   4.902
96138SOL     OW90252  10.294  13.927   6.840
96138SOL    HW190253  10.330  14.014   6.821
96138SOL    HW290254  10.282  13.887   6.755
96139SOL     OW90255   9.879   3.833   1.550
96139SOL    HW190256   9.893   3.927   1.546
96139SOL    HW290257   9.801   3.823   1.605
96140SOL     OW90258   9.301  14.649  11.121
96140SOL    HW190259   9.338  14.613  11.040
96140SOL    HW290260   9.252  14.726  11.093
96141SOL     OW90261   4.500   3.503   4.844
96141SOL    HW190262   4.419   3.543   4.813
96141SOL    HW290263   4.553   3.577   4.874
96142SOL     OW90264  12.219   1.337  12.748
96142SOL    HW190265  12.203   1.387  12.667
96142SOL    HW290266  12.206   1.245  12.722
96143SOL     OW90267   8.432  11.049   7.274
96143SOL    HW190268   8.418  11.119   7.338
96143SOL    HW290269   8.346  11.009   7.262
96144SOL     OW90270  14.616   9.154   0.960
96144SOL    HW190271  14.626   9.245   0.987
96144SOL    HW290272  14.681   9.142   0.891
96145SOL     OW90273   2.848  13.342   9.665
96145SOL    HW190274   2.801  13.264   9.695
96145SOL    HW290275   2.832  13.345   9.571
96146SOL     OW90276   8.756   9.666   3.809
96146SOL    HW190277   8.804   9.631   3.883
96146SOL    HW290278   8.820   9.671   3.738
96147SOL     OW90279  14.250  10.224   4.010
96147SOL    HW190280  14.237  10.138   3.972
96147SOL    HW290281  14.176  10.235   4.070
96148SOL     OW90282  13.971   9.734   1.523
96148SOL    HW190283  13.952   9.807   1.582
96148SOL    HW290284  13.942   9.765   1.437
96149SOL     OW90285   8.351  10.689   3.378
96149SOL    HW190286   8.302  10.684   3.460
96149SOL    HW290287   8.396  10.605   3.372
96150SOL     OW90288  13.149   0.423   4.922
96150SOL    HW190289  13.163   0.473   5.003
96150SOL    HW290290  13.178   0.483   4.852
96151SOL     OW90291  11.951   5.048  10.111
96151SOL    HW190292  11.949   4.983  10.041
96151SOL    HW290293  11.930   4.998  10.190
96152SOL     OW90294  12.207   4.233   6.377
96152SOL    HW190295  12.257   4.285   6.439
96152SOL    HW290296  12.169   4.163   6.429
96153SOL     OW90297   3.330  13.756   9.865
96153SOL    HW190298   3.257  13.694   9.861
96153SOL    HW290299   3.379  13.741   9.784
96154SOL     OW90300   2.479   2.565  12.095
96154SOL    HW190301   2.509   2.495  12.037
96154SOL    HW290302   2.400   2.600  12.052
96155SOL     OW90303  14.746   9.850   4.471
96155SOL    HW190304  14.675   9.802   4.429
96155SOL    HW290305  14.753   9.810   4.558
96156SOL     OW90306   0.691  13.132   2.259
96156SOL    HW190307   0.730  13.182   2.330
96156SOL    HW290308   0.607  13.102   2.293
96157SOL     OW90309  12.990  14.682  11.118
96157SOL    HW190310  12.962  14.650  11.204
96157SOL    HW290311  13.025  14.604  11.074
96158SOL     OW90312  12.692  14.126  12.983
96158SOL    HW190313  12.687  14.055  13.046
96158SOL    HW290314  12.770  14.107  12.931
96159SOL     OW90315   6.680   6.077   7.229
96159SOL    HW190316   6.747   6.104   7.166
96159SOL    HW290317   6.718   6.099   7.314
96160SOL     OW90318   6.689  14.516   6.558
96160SOL    HW190319   6.673  14.538   6.466
96160SOL    HW290320   6.668  14.595   6.606
96161SOL     OW90321   9.615   5.430   7.346
96161SOL    HW190322   9.531   5.460   7.311
96161SOL    HW290323   9.591   5.373   7.419
96162SOL     OW90324  12.163  10.531   0.726
96162SOL    HW190325  12.240  10.499   0.678
96162SOL    HW290326  12.190  10.527   0.818
96163SOL     OW90327  13.368   7.944   6.775
96163SOL    HW190328  13.296   7.921   6.833
96163SOL    HW290329  13.330   7.943   6.687
96164SOL     OW90330  12.805   5.256   9.710
96164SOL    HW190331  12.894   5.269   9.743
96164SOL    HW290332  12.752   5.318   9.760
96165SOL     OW90333   3.186   8.455   7.648
96165SOL    HW190334   3.188   8.384   7.713
96165SOL    HW290335   3.171   8.534   7.700
96166SOL     OW90336  11.715   7.995   5.920
96166SOL    HW190337  11.713   7.955   5.833
96166SOL    HW290338  11.667   7.934   5.975
96167SOL     OW90339  10.488   3.087  12.049
96167SOL    HW190340  10.521   3.172  12.018
96167SOL    HW290341  10.564   3.046  12.091
96168SOL     OW90342   9.857   1.396  13.708
96168SOL    HW190343   9.924   1.464  13.709
96168SOL    HW290344   9.905   1.315  13.688
96169SOL     OW90345   3.183   6.474  13.612
96169SOL    HW190346   3.197   6.518  13.695
96169SOL    HW290347   3.186   6.544  13.547
96170SOL     OW90348   6.294  11.107   9.106
96170SOL    HW190349   6.324  11.033   9.053
96170SOL    HW290350   6.301  11.076   9.196
96171SOL     OW90351   8.736  12.243   5.463
96171SOL    HW190352   8.736  12.333   5.432
96171SOL    HW290353   8.732  12.190   5.383
96172SOL     OW90354   1.401   4.706   8.534
96172SOL    HW190355   1.371   4.662   8.613
96172SOL    HW290356   1.325   4.709   8.477
96173SOL     OW90357   8.814   7.535   3.481
96173SOL    HW190358   8.860   7.494   3.409
96173SOL    HW290359   8.868   7.611   3.504
96174SOL     OW90360  12.868   5.273   6.157
96174SOL    HW190361  12.789   5.324   6.140
96174SOL    HW290362  12.933   5.307   6.095
96175SOL     OW90363  12.885  12.966  12.610
96175SOL    HW190364  12.811  12.917  12.575
96175SOL    HW290365  12.960  12.934  12.560
96176SOL     OW90366   7.275   6.383   9.807
96176SOL    HW190367   7.357   6.391   9.855
96176SOL    HW290368   7.297   6.334   9.728
96177SOL     OW90369   4.132   9.462  13.436
96177SOL    HW190370   4.198   9.531  13.442
96177SOL    HW290371   4.050   9.509  13.422
96178SOL     OW90372   4.770   8.323  11.760
96178SOL    HW190373   4.725   8.244  11.730
96178SOL    HW290374   4.752   8.327  11.854
96179SOL     OW90375   1.864   8.741  10.547
96179SOL    HW190376   1.834   8.810  10.607
96179SOL    HW290377   1.849   8.660  10.594
96180SOL     OW90378   8.647   4.925  11.176
96180SOL    HW190379   8.651   4.988  11.105
96180SOL    HW290380   8.736   4.890  11.181
96181SOL     OW90381   8.986   6.675   0.403
96181SOL    HW190382   8.985   6.770   0.399
96181SOL    HW290383   8.894   6.650   0.403
96182SOL     OW90384   9.831   4.612   8.832
96182SOL    HW190385   9.893   4.681   8.858
96182SOL    HW290386   9.760   4.619   8.896
96183SOL     OW90387  11.619  14.482   6.096
96183SOL    HW190388  11.650  14.519   6.014
96183SOL    HW290389  11.525  14.470   6.083
96184SOL     OW90390   2.307   4.226   6.935
96184SOL    HW190391   2.275   4.160   6.996
96184SOL    HW290392   2.227   4.259   6.893
96185SOL     OW90393  13.375   0.772   8.249
96185SOL    HW190394  13.465   0.758   8.219
96185SOL    HW290395  13.360   0.866   8.238
96186SOL     OW90396  13.485   8.343   1.425
96186SOL    HW190397  13.574   8.360   1.455
96186SOL    HW290398  13.476   8.248   1.431
96187SOL     OW90399   6.681   2.489   3.278
96187SOL    HW190400   6.702   2.525   3.192
96187SOL    HW290401   6.667   2.396   3.262
96188SOL     OW90402   4.069  11.556  11.289
96188SOL    HW190403   4.131  11.560  11.217
96188SOL    HW290404   4.033  11.467  11.285
96189SOL     OW90405   0.889  13.452  14.848
96189SOL    HW190406   0.904  13.359  14.868
96189SOL    HW290407   0.962  13.498   0.016
96190SOL     OW90408   4.510  11.074   9.117
96190SOL    HW190409   4.468  11.153   9.151
96190SOL    HW290410   4.480  11.067   9.027
96191SOL     OW90411  13.989  10.532   3.771
96191SOL    HW190412  14.077  10.494   3.770
96191SOL    HW290413  14.003  10.624   3.750
96192SOL     OW90414   7.508  10.665   4.013
96192SOL    HW190415   7.604  10.663   4.016
96192SOL    HW290416   7.483  10.580   3.976
96193SOL     OW90417   6.650  13.020   3.399
96193SOL    HW190418   6.678  13.045   3.311
96193SOL    HW290419   6.560  12.990   3.388
96194SOL     OW90420   6.721   4.937  13.351
96194SOL    HW190421   6.644   4.923  13.296
96194SOL    HW290422   6.691   4.916  13.440
96195SOL     OW90423   7.077   0.932   6.184
96195SOL    HW190424   7.169   0.927   6.211
96195SOL    HW290425   7.043   0.844   6.199
96196SOL     OW90426   2.063   1.242   7.094
96196SOL    HW190427   1.970   1.224   7.089
96196SOL    HW290428   2.069   1.337   7.102
96197SOL     OW90429   8.588   1.780   6.284
96197SOL    HW190430   8.581   1.863   6.237
96197SOL    HW290431   8.525   1.787   6.356
96198SOL     OW90432   7.036  10.881   1.863
96198SOL    HW190433   7.044  10.951   1.928
96198SOL    HW290434   7.124  10.846   1.853
96199SOL     OW90435   0.479   0.821   8.720
96199SOL    HW190436   0.506   0.903   8.678
96199SOL    HW290437   0.399   0.844   8.767
96200SOL     OW90438  11.684   8.239   0.549
96200SOL    HW190439  11.659   8.332   0.549
96200SOL    HW290440  11.609   8.194   0.588
96201SOL     OW90441   3.628   9.166  11.163
96201SOL    HW190442   3.606   9.073  11.151
96201SOL    HW290443   3.573   9.211  11.099
96202SOL     OW90444  12.731  13.965   4.116
96202SOL    HW190445  12.646  14.002   4.140
96202SOL    HW290446  12.733  13.880   4.160
96203SOL     OW90447   1.640   8.243  11.842
96203SOL    HW190448   1.679   8.327  11.864
96203SOL    HW290449   1.652   8.190  11.920
96204SOL     OW90450   3.627   5.022  12.345
96204SOL    HW190451   3.652   5.032  12.253
96204SOL    HW290452   3.542   5.065  12.351
96205SOL     OW90453   5.959   6.812   8.348
96205SOL    HW190454   5.956   6.907   8.335
96205SOL    HW290455   5.871   6.790   8.380
96206SOL     OW90456   5.304  12.379  13.270
96206SOL    HW190457   5.281  12.294  13.232
96206SOL    HW290458   5.283  12.442  13.201
96207SOL     OW90459  14.728  11.435   9.564
96207SOL    HW190460  14.803  11.374   9.560
96207SOL    HW290461  14.764  11.514   9.603
96208SOL     OW90462   2.250   3.204   1.107
96208SOL    HW190463   2.270   3.227   1.198
96208SOL    HW290464   2.157   3.228   1.097
96209SOL     OW90465  14.351   5.040  11.430
96209SOL    HW190466  14.376   5.101  11.499
96209SOL    HW290467  14.333   4.958  11.476
96210SOL     OW90468   8.902  10.988  10.679
96210SOL    HW190469   8.981  10.947  10.714
96210SOL    HW290470   8.932  11.071  10.641
96211SOL     OW90471   4.951   1.134  10.635
96211SOL    HW190472   4.977   1.205  10.694
96211SOL    HW290473   4.863   1.109  10.666
96212SOL     OW90474   3.751   4.184  14.863
96212SOL    HW190475   3.671   4.160  14.816
96212SOL    HW290476   3.740   4.147   0.077
96213SOL     OW90477  10.673   8.278   5.935
96213SOL    HW190478  10.750   8.276   5.878
96213SOL    HW290479  10.679   8.362   5.979
96214SOL     OW90480   8.788  13.735   6.050
96214SOL    HW190481   8.799  13.830   6.048
96214SOL    HW290482   8.746  13.717   6.134
96215SOL     OW90483   4.345   9.476   4.339
96215SOL    HW190484   4.283   9.547   4.324
96215SOL    HW290485   4.376   9.489   4.429
96216SOL     OW90486  10.923   9.856   1.781
96216SOL    HW190487  10.870   9.779   1.760
96216SOL    HW290488  11.003   9.821   1.820
96217SOL     OW90489   3.471   7.422  14.692
96217SOL    HW190490   3.467   7.517  14.680
96217SOL    HW290491   3.533   7.393  14.625
96218SOL     OW90492   0.109  12.274   9.823
96218SOL    HW190493   0.135  12.318   9.904
96218SOL    HW290494   0.020  12.304   9.807
96219SOL     OW90495   1.251  12.253   8.913
96219SOL    HW190496   1.300  12.191   8.858
96219SOL    HW290497   1.162  12.217   8.916
96220SOL     OW90498   4.309   6.608   6.984
96220SOL    HW190499   4.385   6.648   6.940
96220SOL    HW290500   4.250   6.584   6.912
96221SOL     OW90501   7.248   2.139   6.144
96221SOL    HW190502   7.296   2.222   6.144
96221SOL    HW290503   7.247   2.112   6.236
96222SOL     OW90504   6.085   8.143   8.691
96222SOL    HW190505   6.022   8.110   8.627
96222SOL    HW290506   6.113   8.065   8.739
96223SOL     OW90507  13.615  14.108  11.642
96223SOL    HW190508  13.626  14.061  11.559
96223SOL    HW290509  13.619  14.200  11.617
96224SOL     OW90510  12.629  14.153   0.934
96224SOL    HW190511  12.575  14.167   0.857
96224SOL    HW290512  12.719  14.168   0.904
96225SOL     OW90513   6.040   3.644   5.365
96225SOL    HW190514   5.973   3.706   5.392
96225SOL    HW290515   6.000   3.596   5.292
96226SOL     OW90516   5.673  11.563   3.797
96226SOL    HW190517   5.710  11.590   3.712
96226SOL    HW290518   5.717  11.620   3.861
96227SOL     OW90519   6.084   9.900  12.603
96227SOL    HW190520   6.021   9.908  12.531
96227SOL    HW290521   6.060   9.818  12.646
96228SOL     OW90522   0.135   2.613  14.085
96228SOL    HW190523   0.222   2.574  14.081
96228SOL    HW290524   0.084   2.565  14.021
96229SOL     OW90525  10.233  10.622  12.617
96229SOL    HW190526  10.322  10.654  12.607
96229SOL    HW290527  10.185  10.662  12.544
96230SOL     OW90528  11.475   7.759  11.362
96230SOL    HW190529  11.521   7.694  11.309
96230SOL    HW290530  11.408   7.709  11.409
96231SOL     OW90531   9.474   5.977   6.020
96231SOL    HW190532   9.405   5.911   6.013
96231SOL    HW290533   9.451   6.028   6.097
96232SOL     OW90534   4.029   9.667   0.700
96232SOL    HW190535   4.060   9.590   0.747
96232SOL    HW290536   4.009   9.636   0.612
96233SOL     OW90537  11.383  14.467   4.578
96233SOL    HW190538  11.434  14.460   4.658
96233SOL    HW290539  11.299  14.504   4.605
96234SOL     OW90540   3.271  13.706   6.189
96234SOL    HW190541   3.363  13.720   6.167
96234SOL    HW290542   3.222  13.747   6.118
96235SOL     OW90543   3.638  10.133   0.693
96235SOL    HW190544   3.589  10.051   0.687
96235SOL    HW290545   3.697  10.120   0.767
96236SOL     OW90546   7.439  12.616  10.625
96236SOL    HW190547   7.493  12.673  10.570
96236SOL    HW290548   7.458  12.528  10.594
96237SOL     OW90549   2.370   6.016  10.745
96237SOL    HW190550   2.444   6.077  10.739
96237SOL    HW290551   2.379   5.975  10.831
96238SOL     OW90552   0.216   1.355  14.394
96238SOL    HW190553   0.170   1.416  14.335
96238SOL    HW290554   0.145   1.306  14.436
96239SOL     OW90555   2.887   5.342   6.267
96239SOL    HW190556   2.870   5.249   6.249
96239SOL    HW290557   2.969   5.342   6.316
96240SOL     OW90558   5.880   7.677   3.340
96240SOL    HW190559   5.917   7.643   3.421
96240SOL    HW290560   5.791   7.704   3.364
96241SOL     OW90561  14.220  11.299  13.189
96241SOL    HW190562  14.261  11.326  13.271
96241SOL    HW290563  14.201  11.381  13.144
96242SOL     OW90564   2.396  10.876   9.599
96242SOL    HW190565   2.322  10.899   9.543
96242SOL    HW290566   2.400  10.780   9.596
96243SOL     OW90567   2.803   1.421   2.048
96243SOL    HW190568   2.896   1.418   2.025
96243SOL    HW290569   2.776   1.511   2.030
96244SOL     OW90570  12.467   3.131  13.985
96244SOL    HW190571  12.461   3.120  14.080
96244SOL    HW290572  12.476   3.042  13.951
96245SOL     OW90573  13.586   1.506   0.076
96245SOL    HW190574  13.534   1.458   0.011
96245SOL    HW290575  13.523   1.561   0.122
96246SOL     OW90576   5.676  10.703   2.936
96246SOL    HW190577   5.767  10.732   2.939
96246SOL    HW290578   5.654  10.705   2.843
96247SOL     OW90579   4.376  13.816  11.904
96247SOL    HW190580   4.315  13.814  11.977
96247SOL    HW290581   4.461  13.794  11.942
96248SOL     OW90582  12.419   1.387   2.310
96248SOL    HW190583  12.325   1.371   2.305
96248SOL    HW290584  12.438   1.395   2.403
96249SOL     OW90585  13.739  11.012  12.859
96249SOL    HW190586  13.827  10.999  12.895
96249SOL    HW290587  13.712  10.924  12.831
96250SOL     OW90588   6.119   1.275  13.090
96250SOL    HW190589   6.104   1.232  13.005
96250SOL    HW290590   6.182   1.344  13.071
96251SOL     OW90591   2.751  14.488  14.561
96251SOL    HW190592   2.750  14.393  14.566
96251SOL    HW290593   2.761  14.507  14.467
96252SOL     OW90594   1.266   0.439  12.313
96252SOL    HW190595   1.183   0.456  12.357
96252SOL    HW290596   1.321   0.399  12.380
96253SOL     OW90597  10.828   6.637  11.006
96253SOL    HW190598  10.861   6.719  11.041
96253SOL    HW290599  10.896   6.607  10.946
96254SOL     OW90600   5.750  11.753  12.393
96254SOL    HW190601   5.770  11.847  12.392
96254SOL    HW290602   5.708  11.737  12.477
96255SOL     OW90603  12.470   2.501   6.957
96255SOL    HW190604  12.436   2.586   6.983
96255SOL    HW290605  12.540   2.482   7.021
96256SOL     OW90606  13.987   9.644   3.764
96256SOL    HW190607  13.919   9.578   3.780
96256SOL    HW290608  13.939   9.726   3.754
96257SOL     OW90609  12.334   3.663   3.176
96257SOL    HW190610  12.264   3.709   3.221
96257SOL    HW290611  12.412   3.680   3.228
96258SOL     OW90612   5.003   2.121   4.728
96258SOL    HW190613   5.064   2.177   4.680
96258SOL    HW290614   4.923   2.122   4.675
96259SOL     OW90615   3.829   3.257   2.327
96259SOL    HW190616   3.797   3.296   2.245
96259SOL    HW290617   3.775   3.179   2.339
96260SOL     OW90618   1.327  13.325  14.100
96260SOL    HW190619   1.260  13.393  14.106
96260SOL    HW290620   1.409  13.371  14.116
96261SOL     OW90621   6.533   4.366   8.694
96261SOL    HW190622   6.513   4.407   8.610
96261SOL    HW290623   6.526   4.272   8.677
96262SOL     OW90624   3.596  14.812   1.003
96262SOL    HW190625   3.539  14.776   1.070
96262SOL    HW290626   3.600  14.745   0.935
96263SOL     OW90627   0.732  11.650   1.277
96263SOL    HW190628   0.715  11.556   1.281
96263SOL    HW290629   0.744  11.676   1.368
96264SOL     OW90630   2.903   4.611   5.766
96264SOL    HW190631   2.922   4.702   5.743
96264SOL    HW290632   2.828   4.616   5.825
96265SOL     OW90633  10.519   1.383  11.000
96265SOL    HW190634  10.570   1.393  11.080
96265SOL    HW290635  10.525   1.290  10.979
96266SOL     OW90636   9.854  11.462  13.090
96266SOL    HW190637   9.860  11.524  13.163
96266SOL    HW290638   9.898  11.383  13.122
96267SOL     OW90639  12.753   6.919   0.812
96267SOL    HW190640  12.847   6.903   0.821
96267SOL    HW290641  12.723   6.938   0.901
96268SOL     OW90642   1.535   9.391  12.618
96268SOL    HW190643   1.580   9.336  12.554
96268SOL    HW290644   1.541   9.341  12.700
96269SOL     OW90645   6.897   2.774  10.132
96269SOL    HW190646   6.813   2.816  10.116
96269SOL    HW290647   6.952   2.803  10.059
96270SOL     OW90648   3.547   3.503  12.227
96270SOL    HW190649   3.475   3.529  12.170
96270SOL    HW290650   3.516   3.425  12.272
96271SOL     OW90651   0.949   2.329   6.819
96271SOL    HW190652   1.034   2.369   6.799
96271SOL    HW290653   0.894   2.402   6.847
96272SOL     OW90654  13.860   8.335   4.517
96272SOL    HW190655  13.921   8.264   4.498
96272SOL    HW290656  13.781   8.291   4.547
96273SOL     OW90657  14.280  12.094   9.262
96273SOL    HW190658  14.283  12.001   9.283
96273SOL    HW290659  14.363  12.129   9.295
96274SOL     OW90660  14.735   5.754  13.931
96274SOL    HW190661  14.719   5.696  14.005
96274SOL    HW290662  14.758   5.694  13.859
96275SOL     OW90663   2.738   3.049   1.640
96275SOL    HW190664   2.817   3.035   1.692
96275SOL    HW290665   2.755   3.005   1.557
96276SOL     OW90666   1.329  12.248   9.432
96276SOL    HW190667   1.360  12.287   9.514
96276SOL    HW290668   1.386  12.285   9.365
96277SOL     OW90669   2.420   3.577  13.393
96277SOL    HW190670   2.428   3.672  13.382
96277SOL    HW290671   2.474   3.540  13.323
96278SOL     OW90672   6.037   7.236   3.706
96278SOL    HW190673   6.045   7.161   3.764
96278SOL    HW290674   6.061   7.203   3.620
96279SOL     OW90675   0.072   3.426   2.223
96279SOL    HW190676   0.157   3.382   2.222
96279SOL    HW290677   0.010   3.358   2.201
96280SOL     OW90678   4.250   3.290   5.240
96280SOL    HW190679   4.179   3.262   5.298
96280SOL    HW290680   4.328   3.248   5.275
96281SOL     OW90681  12.791  12.937   8.985
96281SOL    HW190682  12.775  12.901   9.073
96281SOL    HW290683  12.704  12.942   8.946
96282SOL     OW90684   2.142   5.849   0.764
96282SOL    HW190685   2.190   5.845   0.847
96282SOL    HW290686   2.200   5.893   0.703
96283SOL     OW90687   8.603   0.420   0.268
96283SOL    HW190688   8.606   0.414   0.172
96283SOL    HW290689   8.535   0.485   0.286
96284SOL     OW90690  11.800  11.273  11.734
96284SOL    HW190691  11.886  11.245  11.767
96284SOL    HW290692  11.738  11.217  11.782
96285SOL     OW90693   6.919  11.976   8.245
96285SOL    HW190694   6.967  11.918   8.187
96285SOL    HW290695   6.924  11.933   8.331
96286SOL     OW90696   3.716  14.081  13.333
96286SOL    HW190697   3.676  14.079  13.247
96286SOL    HW290698   3.769  14.002  13.337
96287SOL     OW90699   4.852   7.227  10.273
96287SOL    HW190700   4.794   7.154  10.291
96287SOL    HW290701   4.812   7.302  10.317
96288SOL     OW90702  14.051  14.263  10.350
96288SOL    HW190703  14.104  14.291  10.276
96288SOL    HW290704  14.115  14.233  10.415
96289SOL     OW90705  11.895  13.323   7.295
96289SOL    HW190706  11.912  13.305   7.202
96289SOL    HW290707  11.808  13.363   7.296
96290SOL     OW90708  13.816   4.196   3.026
96290SOL    HW190709  13.877   4.168   2.957
96290SOL    HW290710  13.729   4.178   2.990
96291SOL     OW90711   1.488   5.913   9.314
96291SOL    HW190712   1.400   5.886   9.287
96291SOL    HW290713   1.535   5.923   9.231
96292SOL     OW90714   6.648   4.836  12.849
96292SOL    HW190715   6.729   4.879  12.824
96292SOL    HW290716   6.582   4.906  12.847
96293SOL     OW90717   2.673   2.374   0.994
96293SOL    HW190718   2.701   2.410   0.910
96293SOL    HW290719   2.649   2.450   1.047
96294SOL     OW90720   5.428   7.768   9.844
96294SOL    HW190721   5.517   7.779   9.877
96294SOL    HW290722   5.391   7.856   9.845
96295SOL     OW90723  10.049   4.749  14.782
96295SOL    HW190724  10.027   4.842  14.780
96295SOL    HW290725  10.133   4.743  14.736
96296SOL     OW90726   5.086   0.039  12.121
96296SOL    HW190727   5.087   0.129  12.089
96296SOL    HW290728   4.994   0.015  12.125
96297SOL     OW90729  11.359   0.541   6.341
96297SOL    HW190730  11.420   0.513   6.273
96297SOL    HW290731  11.328   0.627   6.312
96298SOL     OW90732   2.109   0.419   5.930
96298SOL    HW190733   2.169   0.484   5.895
96298SOL    HW290734   2.163   0.341   5.943
96299SOL     OW90735   9.480   6.751   2.220
96299SOL    HW190736   9.445   6.828   2.176
96299SOL    HW290737   9.428   6.742   2.299
96300SOL     OW90738  12.202   4.098  13.582
96300SOL    HW190739  12.118   4.124  13.544
96300SOL    HW290740  12.207   4.004  13.568
96301SOL     OW90741  13.516   4.511   8.406
96301SOL    HW190742  13.500   4.597   8.445
96301SOL    HW290743  13.541   4.530   8.316
96302SOL     OW90744  14.480  10.113   7.954
96302SOL    HW190745  14.448  10.093   7.866
96302SOL    HW290746  14.438  10.197   7.975
96303SOL     OW90747   9.939   8.872  14.624
96303SOL    HW190748   9.956   8.792  14.575
96303SOL    HW290749  10.025   8.901  14.654
96304SOL     OW90750  12.430  11.989   8.498
96304SOL    HW190751  12.522  12.008   8.482
96304SOL    HW290752  12.389  11.990   8.412
96305SOL     OW90753  12.825   2.025  12.193
96305SOL    HW190754  12.736   2.048  12.166
96305SOL    HW290755  12.846   1.945  12.144
96306SOL     OW90756   3.662  12.851  14.759
96306SOL    HW190757   3.738  12.858  14.817
96306SOL    HW290758   3.616  12.934  14.770
96307SOL     OW90759  13.530   1.372  11.661
96307SOL    HW190760  13.435   1.361  11.660
96307SOL    HW290761  13.544   1.465  11.646
96308SOL     OW90762   9.053  10.910   2.609
96308SOL    HW190763   9.065  10.918   2.704
96308SOL    HW290764   8.959  10.928   2.596
96309SOL     OW90765   0.627   1.809  11.960
96309SOL    HW190766   0.551   1.756  11.934
96309SOL    HW290767   0.602   1.899  11.938
96310SOL     OW90768  13.552  12.597   6.526
96310SOL    HW190769  13.556  12.692   6.520
96310SOL    HW290770  13.500  12.579   6.604
96311SOL     OW90771   0.219   6.483   6.929
96311SOL    HW190772   0.228   6.484   6.834
96311SOL    HW290773   0.197   6.392   6.950
96312SOL     OW90774  10.813  10.431  11.424
96312SOL    HW190775  10.816  10.517  11.467
96312SOL    HW290776  10.732  10.391  11.455
96313SOL     OW90777  10.094   4.888   7.694
96313SOL    HW190778  10.072   4.975   7.661
96313SOL    HW290779  10.012   4.839   7.688
96314SOL     OW90780   8.356   2.702   4.829
96314SOL    HW190781   8.429   2.642   4.845
96314SOL    HW290782   8.345   2.749   4.911
96315SOL     OW90783   9.113  11.654   3.395
96315SOL    HW190784   9.201  11.626   3.417
96315SOL    HW290785   9.085  11.595   3.325
96316SOL     OW90786   1.008   2.967   2.050
96316SOL    HW190787   1.074   2.930   2.108
96316SOL    HW290788   1.031   3.060   2.042
96317SOL     OW90789   6.111   8.016   9.877
96317SOL    HW190790   6.057   8.006   9.799
96317SOL    HW290791   6.185   8.070   9.849
96318SOL     OW90792   7.198  13.508   1.925
96318SOL    HW190793   7.191  13.555   2.008
96318SOL    HW290794   7.125  13.447   1.925
96319SOL     OW90795  10.622   6.166  11.587
96319SOL    HW190796  10.712   6.196  11.575
96319SOL    HW290797  10.571   6.246  11.595
96320SOL     OW90798   1.350   1.778  14.043
96320SOL    HW190799   1.271   1.750  13.996
96320SOL    HW290800   1.334   1.751  14.134
96321SOL     OW90801   0.283   1.407   7.594
96321SOL    HW190802   0.371   1.369   7.592
96321SOL    HW290803   0.224   1.331   7.591
96322SOL     OW90804   1.176   2.180   0.780
96322SOL    HW190805   1.087   2.149   0.763
96322SOL    HW290806   1.197   2.146   0.867
96323SOL     OW90807   6.578  13.794  10.911
96323SOL    HW190808   6.615  13.771  10.995
96323SOL    HW290809   6.573  13.890  10.912
96324SOL     OW90810   5.142  14.143  11.152
96324SOL    HW190811   5.136  14.086  11.229
96324SOL    HW290812   5.110  14.090  11.080
96325SOL     OW90813   0.914   2.075   6.923
96325SOL    HW190814   0.965   2.069   7.003
96325SOL    HW290815   0.923   2.166   6.895
96326SOL     OW90816   4.078   6.412  10.374
96326SOL    HW190817   4.083   6.507  10.361
96326SOL    HW290818   4.133   6.396  10.451
96327SOL     OW90819   6.926   1.803   2.481
96327SOL    HW190820   6.880   1.770   2.404
96327SOL    HW290821   6.912   1.898   2.478
96328SOL     OW90822   9.441   7.647   9.923
96328SOL    HW190823   9.529   7.677   9.899
96328SOL    HW290824   9.388   7.727   9.923
96329SOL     OW90825   9.775  10.777  10.712
96329SOL    HW190826   9.863  10.742  10.726
96329SOL    HW290827   9.744  10.799  10.800
96330SOL     OW90828   2.784   2.886   8.431
96330SOL    HW190829   2.829   2.896   8.514
96330SOL    HW290830   2.837   2.936   8.369
96331SOL     OW90831   0.448  11.333   6.560
96331SOL    HW190832   0.492  11.248   6.564
96331SOL    HW290833   0.498  11.389   6.620
96332SOL     OW90834   6.527  12.216   1.092
96332SOL    HW190835   6.597  12.164   1.132
96332SOL    HW290836   6.469  12.151   1.052
96333SOL     OW90837   9.216   0.347  12.193
96333SOL    HW190838   9.308   0.344  12.169
96333SOL    HW290839   9.198   0.261  12.230
96334SOL     OW90840  12.649   8.296  10.110
96334SOL    HW190841  12.646   8.379  10.158
96334SOL    HW290842  12.646   8.229  10.178
96335SOL     OW90843   3.193   8.988   1.148
96335SOL    HW190844   3.273   9.039   1.154
96335SOL    HW290845   3.218   8.909   1.101
96336SOL     OW90846  14.624   0.762   1.689
96336SOL    HW190847  14.661   0.763   1.601
96336SOL    HW290848  14.654   0.679   1.726
96337SOL     OW90849   3.814   8.286   1.887
96337SOL    HW190850   3.770   8.229   1.823
96337SOL    HW290851   3.746   8.347   1.915
96338SOL     OW90852  11.602  13.593  10.796
96338SOL    HW190853  11.659  13.517  10.790
96338SOL    HW290854  11.554  13.581  10.878
96339SOL     OW90855   3.362   1.488   5.786
96339SOL    HW190856   3.352   1.470   5.692
96339SOL    HW290857   3.276   1.521   5.813
96340SOL     OW90858  13.880   8.022   5.834
96340SOL    HW190859  13.847   8.071   5.759
96340SOL    HW290860  13.867   8.080   5.908
96341SOL     OW90861   4.666  11.009   3.448
96341SOL    HW190862   4.712  10.926   3.457
96341SOL    HW290863   4.733  11.076   3.462
96342SOL     OW90864   8.355  13.818  14.208
96342SOL    HW190865   8.309  13.735  14.215
96342SOL    HW290866   8.440  13.803  14.249
96343SOL     OW90867   5.028  10.414   1.118
96343SOL    HW190868   5.057  10.431   1.208
96343SOL    HW290869   4.933  10.427   1.122
96344SOL     OW90870   5.356  11.400   9.921
96344SOL    HW190871   5.327  11.384  10.011
96344SOL    HW290872   5.406  11.322   9.898
96345SOL     OW90873  11.044   0.548   0.436
96345SOL    HW190874  11.099   0.475   0.466
96345SOL    HW290875  11.107   0.615   0.409
96346SOL     OW90876  11.427   6.271   7.219
96346SOL    HW190877  11.479   6.293   7.142
96346SOL    HW290878  11.415   6.355   7.265
96347SOL     OW90879  10.247  10.963   1.529
96347SOL    HW190880  10.238  10.870   1.547
96347SOL    HW290881  10.282  11.000   1.610
96348SOL     OW90882   8.326   1.452   6.631
96348SOL    HW190883   8.301   1.509   6.703
96348SOL    HW290884   8.251   1.454   6.571
96349SOL     OW90885   0.336   4.189   8.285
96349SOL    HW190886   0.348   4.277   8.251
96349SOL    HW290887   0.243   4.169   8.270
96350SOL     OW90888   1.957   8.342   8.106
96350SOL    HW190889   1.976   8.260   8.061
96350SOL    HW290890   2.004   8.408   8.055
96351SOL     OW90891   1.399   7.947  13.815
96351SOL    HW190892   1.486   7.973  13.845
96351SOL    HW290893   1.399   7.851  13.820
96352SOL     OW90894   3.515  11.298   6.296
96352SOL    HW190895   3.565  11.222   6.268
96352SOL    HW290896   3.485  11.276   6.385
96353SOL     OW90897  14.201   0.288   6.769
96353SOL    HW190898  14.171   0.236   6.843
96353SOL    HW290899  14.124   0.339   6.743
96354SOL     OW90900   4.782   4.537   6.725
96354SOL    HW190901   4.780   4.466   6.662
96354SOL    HW290902   4.870   4.574   6.717
96355SOL     OW90903   0.504   4.040   8.137
96355SOL    HW190904   0.459   3.961   8.168
96355SOL    HW290905   0.455   4.113   8.177
96356SOL     OW90906   8.206   9.541   7.448
96356SOL    HW190907   8.195   9.557   7.542
96356SOL    HW290908   8.292   9.500   7.441
96357SOL     OW90909   8.195   5.676   1.256
96357SOL    HW190910   8.144   5.749   1.292
96357SOL    HW290911   8.218   5.705   1.168
96358SOL     OW90912  12.268   7.177   5.048
96358SOL    HW190913  12.327   7.124   4.994
96358SOL    HW290914  12.182   7.162   5.009
96359SOL     OW90915   0.671  10.517   3.020
96359SOL    HW190916   0.743  10.553   2.967
96359SOL    HW290917   0.642  10.439   2.971
96360SOL     OW90918   0.817   0.626   8.201
96360SOL    HW190919   0.870   0.674   8.137
96360SOL    HW290920   0.781   0.553   8.151
96361SOL     OW90921   3.255   6.816  14.698
96361SOL    HW190922   3.271   6.743  14.758
96361SOL    HW290923   3.317   6.884  14.726
96362SOL     OW90924  10.907   4.999   7.248
96362SOL    HW190925  10.822   5.032   7.278
96362SOL    HW290926  10.959   5.078   7.231
96363SOL     OW90927  10.816   5.096   2.774
96363SOL    HW190928  10.850   5.168   2.720
96363SOL    HW290929  10.759   5.047   2.715
96364SOL     OW90930  14.198   0.822   6.725
96364SOL    HW190931  14.114   0.787   6.696
96364SOL    HW290932  14.230   0.873   6.651
96365SOL     OW90933   2.227   2.258   0.833
96365SOL    HW190934   2.132   2.259   0.849
96365SOL    HW290935   2.264   2.223   0.914
96366SOL     OW90936   6.706   0.767  13.687
96366SOL    HW190937   6.787   0.775  13.737
96366SOL    HW290938   6.706   0.677  13.654
96367SOL     OW90939   5.357  14.242  11.444
96367SOL    HW190940   5.351  14.267  11.352
96367SOL    HW290941   5.302  14.164  11.451
96368SOL     OW90942   5.973  12.224   9.020
96368SOL    HW190943   5.908  12.173   9.069
96368SOL    HW290944   6.002  12.165   8.951
96369SOL     OW90945  10.476   8.329   4.967
96369SOL    HW190946  10.454   8.421   4.952
96369SOL    HW290947  10.567   8.330   4.998
96370SOL     OW90948   7.267  13.641   1.003
96370SOL    HW190949   7.247  13.636   1.097
96370SOL    HW290950   7.348  13.693   0.998
96371SOL     OW90951  11.583   9.565   9.123
96371SOL    HW190952  11.621   9.493   9.073
96371SOL    HW290953  11.492   9.538   9.139
96372SOL     OW90954  11.804   8.724  14.227
96372SOL    HW190955  11.769   8.638  14.208
96372SOL    HW290956  11.764   8.782  14.162
96373SOL     OW90957  12.488   4.391   4.605
96373SOL    HW190958  12.485   4.375   4.511
96373SOL    HW290959  12.569   4.441   4.618
96374SOL     OW90960   0.106  10.235   0.094
96374SOL    HW190961   0.111  10.164   0.031
96374SOL    HW290962   0.019  10.272   0.083
96375SOL     OW90963  11.104   4.101   1.689
96375SOL    HW190964  11.110   4.006   1.681
96375SOL    HW290965  11.105   4.117   1.783
96376SOL     OW90966   8.827   5.234  13.400
96376SOL    HW190967   8.815   5.140  13.418
96376SOL    HW290968   8.841   5.273  13.486
96377SOL     OW90969  14.586   5.758  11.496
96377SOL    HW190970  14.617   5.703  11.424
96377SOL    HW290971  14.584   5.846  11.459
96378SOL     OW90972   8.611  12.002  10.375
96378SOL    HW190973   8.605  12.060  10.299
96378SOL    HW290974   8.524  11.964  10.382
96379SOL     OW90975   0.526   3.012  14.714
96379SOL    HW190976   0.467   2.967  14.774
96379SOL    HW290977   0.504   2.977  14.628
96380SOL     OW90978  13.982   1.717   2.670
96380SOL    HW190979  14.049   1.663   2.628
96380SOL    HW290980  13.976   1.795   2.616
96381SOL     OW90981   7.047  13.570   7.857
96381SOL    HW190982   7.129  13.536   7.820
96381SOL    HW290983   6.982  13.503   7.837
96382SOL     OW90984   2.070   7.708   8.506
96382SOL    HW190985   2.059   7.779   8.570
96382SOL    HW290986   2.029   7.632   8.548
96383SOL     OW90987  11.051  10.204   5.391
96383SOL    HW190988  10.982  10.226   5.328
96383SOL    HW290989  11.006  10.156   5.460
96384SOL     OW90990   0.938   0.546   9.857
96384SOL    HW190991   1.031   0.527   9.846
96384SOL    HW290992   0.933   0.590   9.942
96385SOL     OW90993   9.464  12.757  11.024
96385SOL    HW190994   9.494  12.840  11.062
96385SOL    HW290995   9.398  12.782  10.960
96386SOL     OW90996   1.528  13.184  11.329
96386SOL    HW190997   1.483  13.200  11.246
96386SOL    HW290998   1.496  13.099  11.358
96387SOL     OW90999   0.584   6.617   2.903
96387SOL    HW191000   0.599   6.708   2.928
96387SOL    HW291001   0.661   6.570   2.936
96388SOL     OW91002   8.255   8.524  13.084
96388SOL    HW191003   8.202   8.469  13.141
96388SOL    HW291004   8.345   8.505  13.109
96389SOL     OW91005  13.122  12.661   8.277
96389SOL    HW191006  13.041  12.612   8.259
96389SOL    HW291007  13.131  12.720   8.202
96390SOL     OW91008   7.953   9.735   1.696
96390SOL    HW191009   7.886   9.764   1.635
96390SOL    HW291010   7.912   9.744   1.782
96391SOL     OW91011   5.805   5.670   7.035
96391SOL    HW191012   5.821   5.717   6.953
96391SOL    HW291013   5.711   5.676   7.048
96392SOL     OW91014   4.461  14.504   5.903
96392SOL    HW191015   4.433  14.595   5.905
96392SOL    HW291016   4.557  14.508   5.900
96393SOL     OW91017   3.943   2.016  12.848
96393SOL    HW191018   3.892   1.942  12.880
96393SOL    HW291019   3.884   2.061  12.787
96394SOL     OW91020  12.252  11.765   2.388
96394SOL    HW191021  12.281  11.710   2.315
96394SOL    HW291022  12.159  11.779   2.371
96395SOL     OW91023   7.119  13.558   6.487
96395SOL    HW191024   7.078  13.638   6.454
96395SOL    HW291025   7.166  13.522   6.411
96396SOL     OW91026   2.397   4.672   2.187
96396SOL    HW191027   2.432   4.681   2.098
96396SOL    HW291028   2.423   4.584   2.214
96397SOL     OW91029  11.294   2.686   4.008
96397SOL    HW191030  11.237   2.630   3.955
96397SOL    HW291031  11.378   2.686   3.963
96398SOL     OW91032   5.931  11.941   3.278
96398SOL    HW191033   5.976  12.003   3.222
96398SOL    HW291034   5.848  11.983   3.299
96399SOL     OW91035  13.094   2.997   5.716
96399SOL    HW191036  13.135   2.948   5.788
96399SOL    HW291037  13.098   2.937   5.641
96400SOL     OW91038  14.663   2.194   6.827
96400SOL    HW191039  14.568   2.193   6.843
96400SOL    HW291040  14.698   2.256   6.891
96401SOL     OW91041   9.305   1.530   7.352
96401SOL    HW191042   9.262   1.551   7.434
96401SOL    HW291043   9.376   1.470   7.377
96402SOL     OW91044  11.212   7.591  13.080
96402SOL    HW191045  11.178   7.509  13.044
96402SOL    HW291046  11.137   7.630  13.124
96403SOL     OW91047  12.200   0.811   7.071
96403SOL    HW191048  12.125   0.780   7.122
96403SOL    HW291049  12.266   0.743   7.082
96404SOL     OW91050   3.785   6.418  10.775
96404SOL    HW191051   3.766   6.373  10.693
96404SOL    HW291052   3.714   6.480  10.786
96405SOL     OW91053   1.519   1.350   6.978
96405SOL    HW191054   1.543   1.282   7.041
96405SOL    HW291055   1.587   1.345   6.910
96406SOL     OW91056   9.890  13.556   2.733
96406SOL    HW191057   9.935  13.485   2.686
96406SOL    HW291058   9.819  13.512   2.780
96407SOL     OW91059   6.926  14.712   6.134
96407SOL    HW191060   6.956  14.775   6.199
96407SOL    HW291061   7.007  14.680   6.093
96408SOL     OW91062   1.450   5.504   2.191
96408SOL    HW191063   1.356   5.523   2.186
96408SOL    HW291064   1.482   5.556   2.265
96409SOL     OW91065   1.604   3.140   9.806
96409SOL    HW191066   1.635   3.229   9.824
96409SOL    HW291067   1.678   3.083   9.827
96410SOL     OW91068   2.276  13.304   2.220
96410SOL    HW191069   2.287  13.298   2.315
96410SOL    HW291070   2.250  13.395   2.204
96411SOL     OW91071   9.714  10.940   1.835
96411SOL    HW191072   9.804  10.930   1.805
96411SOL    HW291073   9.674  11.001   1.773
96412SOL     OW91074   8.661   8.424  11.089
96412SOL    HW191075   8.626   8.359  11.029
96412SOL    HW291076   8.749   8.443  11.055
96413SOL     OW91077   9.489   7.945  12.150
96413SOL    HW191078   9.560   7.880  12.151
96413SOL    HW291079   9.520   8.015  12.207
96414SOL     OW91080  10.067   2.196   4.382
96414SOL    HW191081  10.062   2.292   4.380
96414SOL    HW291082  10.099   2.172   4.295
96415SOL     OW91083   8.109  11.647   6.215
96415SOL    HW191084   8.112  11.738   6.246
96415SOL    HW291085   8.038  11.645   6.152
96416SOL     OW91086  13.527  11.308   5.318
96416SOL    HW191087  13.467  11.347   5.254
96416SOL    HW291088  13.536  11.217   5.290
96417SOL     OW91089   4.574   1.474   3.833
96417SOL    HW191090   4.511   1.410   3.801
96417SOL    HW291091   4.546   1.494   3.922
96418SOL     OW91092   4.873   1.513  14.106
96418SOL    HW191093   4.816   1.550  14.039
96418SOL    HW291094   4.924   1.446  14.060
96419SOL     OW91095   9.856   5.761   6.613
96419SOL    HW191096   9.933   5.764   6.556
96419SOL    HW291097   9.887   5.795   6.697
96420SOL     OW91098   3.708   2.392   1.482
96420SOL    HW191099   3.801   2.414   1.477
96420SOL    HW291100   3.704   2.318   1.542
96421SOL     OW91101  14.051  14.071   3.594
96421SOL    HW191102  14.003  14.100   3.517
96421SOL    HW291103  13.987  14.021   3.645
96422SOL     OW91104  14.116  14.078   9.014
96422SOL    HW191105  14.059  14.005   9.038
96422SOL    HW291106  14.201  14.037   8.994
96423SOL     OW91107   2.077   3.469   4.289
96423SOL    HW191108   2.035   3.469   4.203
96423SOL    HW291109   2.164   3.506   4.274
96424SOL     OW91110   9.112   2.330  14.509
96424SOL    HW191111   9.109   2.327  14.605
96424SOL    HW291112   9.024   2.304  14.482
96425SOL     OW91113   3.418   2.462  11.124
96425SOL    HW191114   3.405   2.557  11.127
96425SOL    HW291115   3.508   2.449  11.152
96426SOL     OW91116   3.069  14.840   7.664
96426SOL    HW191117   3.148  14.872   7.708
96426SOL    HW291118   3.007  14.824   7.734
96427SOL     OW91119   5.919   2.066   6.196
96427SOL    HW191120   5.888   2.083   6.285
96427SOL    HW291121   5.843   2.032   6.150
96428SOL     OW91122  14.509   1.202   7.113
96428SOL    HW191123  14.442   1.196   7.044
96428SOL    HW291124  14.477   1.272   7.170
96429SOL     OW91125   5.275   8.967  10.710
96429SOL    HW191126   5.303   8.879  10.736
96429SOL    HW291127   5.304   8.975  10.619
96430SOL     OW91128   9.111   0.034  13.325
96430SOL    HW191129   9.144   0.095  13.391
96430SOL    HW291130   9.018   0.055  13.318
96431SOL     OW91131   5.408   6.460  12.351
96431SOL    HW191132   5.425   6.449  12.258
96431SOL    HW291133   5.452   6.542  12.374
96432SOL     OW91134   0.777  10.322  14.017
96432SOL    HW191135   0.791  10.227  14.022
96432SOL    HW291136   0.854  10.360  14.058
96433SOL     OW91137   4.233   2.404   7.515
96433SOL    HW191138   4.315   2.444   7.486
96433SOL    HW291139   4.221   2.438   7.604
96434SOL     OW91140   5.619   4.366   6.059
96434SOL    HW191141   5.541   4.325   6.023
96434SOL    HW291142   5.641   4.434   5.995
96435SOL     OW91143  13.741   2.149  11.446
96435SOL    HW191144  13.690   2.106  11.515
96435SOL    HW291145  13.786   2.220  11.490
96436SOL     OW91146   5.886   2.968   6.255
96436SOL    HW191147   5.832   3.039   6.220
96436SOL    HW291148   5.827   2.917   6.310
96437SOL     OW91149  12.110   9.847  12.715
96437SOL    HW191150  12.018   9.829  12.733
96437SOL    HW291151  12.127   9.932  12.757
96438SOL     OW91152   8.077   3.301   8.802
96438SOL    HW191153   7.992   3.263   8.825
96438SOL    HW291154   8.070   3.393   8.827
96439SOL     OW91155   3.128  11.315  11.592
96439SOL    HW191156   3.159  11.249  11.531
96439SOL    HW291157   3.088  11.383  11.537
96440SOL     OW91158   2.547  12.595   9.355
96440SOL    HW191159   2.625  12.611   9.302
96440SOL    HW291160   2.545  12.668   9.417
96441SOL     OW91161   0.629  13.364   0.471
96441SOL    HW191162   0.579  13.378   0.390
96441SOL    HW291163   0.690  13.437   0.475
96442SOL     OW91164   3.638   8.564   0.635
96442SOL    HW191165   3.620   8.636   0.574
96442SOL    HW291166   3.568   8.569   0.700
96443SOL     OW91167   9.905  12.631   2.299
96443SOL    HW191168   9.859  12.553   2.268
96443SOL    HW291169   9.838  12.681   2.347
96444SOL     OW91170  12.738  14.682  14.502
96444SOL    HW191171  12.752  14.769  14.541
96444SOL    HW291172  12.811  14.672  14.440
96445SOL     OW91173   3.915   8.663   4.706
96445SOL    HW191174   3.835   8.659   4.654
96445SOL    HW291175   3.925   8.574   4.741
96446SOL     OW91176  10.803   5.144  10.042
96446SOL    HW191177  10.739   5.202  10.084
96446SOL    HW291178  10.778   5.145   9.950
96447SOL     OW91179   9.465   9.408   3.094
96447SOL    HW191180   9.507   9.371   3.172
96447SOL    HW291181   9.476   9.503   3.104
96448SOL     OW91182  10.481   9.067  14.636
96448SOL    HW191183  10.555   9.018  14.673
96448SOL    HW291184  10.463   9.136  14.700
96449SOL     OW91185   9.271   8.175   4.125
96449SOL    HW191186   9.244   8.164   4.034
96449SOL    HW291187   9.340   8.241   4.122
96450SOL     OW91188  10.388   6.845   8.718
96450SOL    HW191189  10.369   6.794   8.796
96450SOL    HW291190  10.308   6.895   8.702
96451SOL     OW91191   1.818   7.636  14.201
96451SOL    HW191192   1.835   7.543  14.184
96451SOL    HW291193   1.826   7.644  14.295
96452SOL     OW91194  13.325  14.163  11.051
96452SOL    HW191195  13.384  14.211  10.992
96452SOL    HW291196  13.332  14.072  11.023
96453SOL     OW91197  10.062   4.291   1.688
96453SOL    HW191198  10.121   4.337   1.749
96453SOL    HW291199  10.008   4.236   1.745
96454SOL     OW91200   4.675   2.102  11.146
96454SOL    HW191201   4.726   2.168  11.099
96454SOL    HW291202   4.730   2.078  11.221
96455SOL     OW91203  14.700   4.426  14.174
96455SOL    HW191204  14.651   4.354  14.213
96455SOL    HW291205  14.764   4.450  14.240
96456SOL     OW91206   9.497   9.310  14.097
96456SOL    HW191207   9.458   9.253  14.163
96456SOL    HW291208   9.461   9.279  14.014
96457SOL     OW91209   8.321  13.360  14.174
96457SOL    HW191210   8.247  13.402  14.130
96457SOL    HW291211   8.389  13.355  14.106
96458SOL     OW91212   0.297   1.012   5.209
96458SOL    HW191213   0.354   0.950   5.164
96458SOL    HW291214   0.343   1.032   5.291
96459SOL     OW91215   8.947  11.796   2.182
96459SOL    HW191216   8.862  11.794   2.138
96459SOL    HW291217   8.956  11.708   2.219
96460SOL     OW91218   0.430   7.279   6.140
96460SOL    HW191219   0.386   7.304   6.059
96460SOL    HW291220   0.459   7.361   6.178
96461SOL     OW91221   1.222   8.424  13.834
96461SOL    HW191222   1.189   8.497  13.885
96461SOL    HW291223   1.160   8.353  13.851
96462SOL     OW91224   7.197   5.489   1.581
96462SOL    HW191225   7.169   5.405   1.544
96462SOL    HW291226   7.230   5.538   1.505
96463SOL     OW91227   6.889   5.966   4.346
96463SOL    HW191228   6.888   5.964   4.250
96463SOL    HW291229   6.982   5.966   4.369
96464SOL     OW91230   2.604   9.307   8.355
96464SOL    HW191231   2.671   9.322   8.422
96464SOL    HW291232   2.550   9.237   8.392
96465SOL     OW91233   1.533   2.951   9.551
96465SOL    HW191234   1.438   2.942   9.543
96465SOL    HW291235   1.546   3.007   9.628
96466SOL     OW91236   6.644   0.376  13.868
96466SOL    HW191237   6.576   0.441  13.886
96466SOL    HW291238   6.607   0.293  13.897
96467SOL     OW91239  11.707   1.032   4.597
96467SOL    HW191240  11.738   0.950   4.559
96467SOL    HW291241  11.779   1.061   4.654
96468SOL     OW91242  10.719  11.868   4.212
96468SOL    HW191243  10.699  11.775   4.201
96468SOL    HW291244  10.665  11.896   4.286
96469SOL     OW91245   0.880  12.161  13.120
96469SOL    HW191246   0.787  12.173  13.137
96469SOL    HW291247   0.898  12.070  13.143
96470SOL     OW91248   6.972   9.829   5.428
96470SOL    HW191249   6.974   9.789   5.514
96470SOL    HW291250   6.956   9.922   5.445
96471SOL     OW91251  11.042   7.507  14.515
96471SOL    HW191252  11.132   7.500  14.545
96471SOL    HW291253  11.045   7.475  14.424
96472SOL     OW91254   4.943   3.179   1.889
96472SOL    HW191255   4.983   3.265   1.880
96472SOL    HW291256   4.858   3.187   1.848
96473SOL     OW91257   7.884   4.143  13.791
96473SOL    HW191258   7.908   4.062  13.746
96473SOL    HW291259   7.788   4.138  13.800
96474SOL     OW91260   6.313   5.886   4.059
96474SOL    HW191261   6.234   5.933   4.086
96474SOL    HW291262   6.381   5.953   4.058
96475SOL     OW91263   1.867   5.770   4.738
96475SOL    HW191264   1.945   5.757   4.793
96475SOL    HW291265   1.795   5.733   4.789
96476SOL     OW91266  10.641  11.616   5.213
96476SOL    HW191267  10.583  11.549   5.249
96476SOL    HW291268  10.655  11.591   5.122
96477SOL     OW91269   8.206   7.105   6.524
96477SOL    HW191270   8.266   7.134   6.593
96477SOL    HW291271   8.193   7.182   6.469
96478SOL     OW91272   8.176   6.932   6.236
96478SOL    HW191273   8.154   6.866   6.301
96478SOL    HW291274   8.091   6.963   6.204
96479SOL     OW91275  13.334   6.013   4.026
96479SOL    HW191276  13.388   6.062   4.088
96479SOL    HW291277  13.309   6.078   3.960
96480SOL     OW91278  10.188  13.081   1.306
96480SOL    HW191279  10.165  13.043   1.390
96480SOL    HW291280  10.164  13.014   1.242
96481SOL     OW91281  12.501  12.025   1.031
96481SOL    HW191282  12.539  11.938   1.026
96481SOL    HW291283  12.416  12.011   1.074
96482SOL     OW91284   1.979  10.495   7.833
96482SOL    HW191285   2.008  10.465   7.747
96482SOL    HW291286   1.934  10.578   7.816
96483SOL     OW91287  13.779   7.515   4.027
96483SOL    HW191288  13.857   7.460   4.020
96483SOL    HW291289  13.813   7.602   4.049
96484SOL     OW91290   2.147   8.995   3.187
96484SOL    HW191291   2.226   9.037   3.222
96484SOL    HW291292   2.129   9.042   3.106
96485SOL     OW91293   2.831  10.158  12.058
96485SOL    HW191294   2.737  10.175  12.054
96485SOL    HW291295   2.853  10.126  11.970
96486SOL     OW91296   9.040   4.663   8.118
96486SOL    HW191297   8.990   4.676   8.037
96486SOL    HW291298   8.974   4.636   8.182
96487SOL     OW91299   3.844   8.077   4.211
96487SOL    HW191300   3.892   8.016   4.267
96487SOL    HW291301   3.903   8.094   4.138
96488SOL     OW91302   5.599   5.021  11.908
96488SOL    HW191303   5.675   4.973  11.943
96488SOL    HW291304   5.599   5.000  11.815
96489SOL     OW91305   3.624  13.268   5.491
96489SOL    HW191306   3.655  13.234   5.407
96489SOL    HW291307   3.695  13.326   5.521
96490SOL     OW91308  11.081  14.466  10.720
96490SOL    HW191309  10.988  14.446  10.711
96490SOL    HW291310  11.125  14.392  10.678
96491SOL     OW91311   5.081   4.965  11.755
96491SOL    HW191312   5.090   5.035  11.821
96491SOL    HW291313   5.166   4.965  11.710
96492SOL     OW91314   1.485   2.120  14.287
96492SOL    HW191315   1.421   2.166  14.341
96492SOL    HW291316   1.544   2.078  14.350
96493SOL     OW91317   3.692   4.794   4.737
96493SOL    HW191318   3.666   4.730   4.804
96493SOL    HW291319   3.630   4.866   4.748
96494SOL     OW91320   7.162   4.440  12.753
96494SOL    HW191321   7.132   4.362  12.706
96494SOL    HW291322   7.086   4.498  12.755
96495SOL     OW91323   9.446   4.320   6.264
96495SOL    HW191324   9.465   4.408   6.233
96495SOL    HW291325   9.526   4.270   6.245
96496SOL     OW91326   8.574   9.455   3.979
96496SOL    HW191327   8.537   9.368   3.994
96496SOL    HW291328   8.587   9.460   3.884
96497SOL     OW91329   8.135  14.663   3.069
96497SOL    HW191330   8.202  14.690   3.131
96497SOL    HW291331   8.181  14.655   2.986
96498SOL     OW91332  11.566   9.441   9.971
96498SOL    HW191333  11.482   9.400   9.992
96498SOL    HW291334  11.585   9.497  10.045
96499SOL     OW91335   1.228   9.345  10.200
96499SOL    HW191336   1.190   9.386  10.277
96499SOL    HW291337   1.307   9.395  10.183
96500SOL     OW91338  13.913  14.873   8.734
96500SOL    HW191339  13.912   0.011   8.829
96500SOL    HW291340  13.982  14.809   8.718
96501SOL     OW91341  11.640   7.457   5.214
96501SOL    HW191342  11.609   7.475   5.126
96501SOL    HW291343  11.675   7.540   5.245
96502SOL     OW91344   1.471   7.637   1.207
96502SOL    HW191345   1.424   7.559   1.179
96502SOL    HW291346   1.402   7.697   1.236
96503SOL     OW91347   9.193   5.468  13.330
96503SOL    HW191348   9.211   5.526  13.256
96503SOL    HW291349   9.217   5.519  13.407
96504SOL     OW91350   6.576   2.304  12.138
96504SOL    HW191351   6.614   2.274  12.221
96504SOL    HW291352   6.538   2.389  12.159
96505SOL     OW91353   7.069   4.195   4.294
96505SOL    HW191354   7.052   4.123   4.355
96505SOL    HW291355   7.062   4.155   4.208
96506SOL     OW91356   3.213   2.676   4.343
96506SOL    HW191357   3.250   2.763   4.325
96506SOL    HW291358   3.124   2.680   4.308
96507SOL     OW91359  11.158   1.698   7.733
96507SOL    HW191360  11.069   1.715   7.762
96507SOL    HW291361  11.148   1.661   7.645
96508SOL     OW91362   7.162  12.497  12.662
96508SOL    HW191363   7.160  12.586  12.697
96508SOL    HW291364   7.247  12.462  12.689
96509SOL     OW91365   3.108  11.263  12.592
96509SOL    HW191366   3.051  11.188  12.608
96509SOL    HW291367   3.049  11.338  12.588
96510SOL     OW91368   5.686   6.256   0.857
96510SOL    HW191369   5.693   6.351   0.844
96510SOL    HW291370   5.668   6.246   0.951
96511SOL     OW91371   1.221  14.836  11.250
96511SOL    HW191372   1.183   0.050  11.261
96511SOL    HW291373   1.279  14.845  11.175
96512SOL     OW91374   1.286   8.528  14.776
96512SOL    HW191375   1.230   8.471  14.830
96512SOL    HW291376   1.374   8.514  14.809
96513SOL     OW91377   2.243   3.136   9.111
96513SOL    HW191378   2.281   3.049   9.125
96513SOL    HW291379   2.153   3.128   9.143
96514SOL     OW91380   0.640  13.474  10.629
96514SOL    HW191381   0.673  13.557  10.663
96514SOL    HW291382   0.707  13.410  10.651
96515SOL     OW91383   6.955   3.617   9.596
96515SOL    HW191384   7.019   3.688   9.596
96515SOL    HW291385   7.007   3.537   9.585
96516SOL     OW91386   3.954   1.814   0.991
96516SOL    HW191387   3.945   1.760   0.913
96516SOL    HW291388   3.932   1.756   1.064
96517SOL     OW91389   1.164   8.043  10.818
96517SOL    HW191390   1.115   8.039  10.901
96517SOL    HW291391   1.140   7.963  10.772
96518SOL     OW91392   0.871  11.963   5.630
96518SOL    HW191393   0.942  11.989   5.572
96518SOL    HW291394   0.793  11.963   5.574
96519SOL     OW91395  12.011  13.877   3.569
96519SOL    HW191396  11.991  13.848   3.480
96519SOL    HW291397  12.088  13.933   3.559
96520SOL     OW91398   8.171   3.391  14.672
96520SOL    HW191399   8.088   3.346  14.655
96520SOL    HW291400   8.153   3.483  14.655
96521SOL     OW91401   0.723  14.345   7.085
96521SOL    HW191402   0.695  14.262   7.123
96521SOL    HW291403   0.809  14.361   7.124
96522SOL     OW91404   4.951   2.186   9.792
96522SOL    HW191405   4.880   2.123   9.786
96522SOL    HW291406   4.915   2.258   9.845
96523SOL     OW91407   7.926   5.076  11.916
96523SOL    HW191408   7.858   5.124  11.870
96523SOL    HW291409   7.953   5.135  11.987
96524SOL     OW91410   0.081  13.277  13.570
96524SOL    HW191411   0.062  13.332  13.494
96524SOL    HW291412   0.171  13.247  13.555
96525SOL     OW91413  14.698   5.491   4.182
96525SOL    HW191414  14.790   5.472   4.162
96525SOL    HW291415  14.697   5.503   4.277
96526SOL     OW91416   5.679   2.294   3.623
96526SOL    HW191417   5.717   2.278   3.710
96526SOL    HW291418   5.673   2.207   3.584
96527SOL     OW91419  13.494   4.564  10.001
96527SOL    HW191420  13.530   4.642  10.042
96527SOL    HW291421  13.493   4.585   9.907
96528SOL     OW91422  11.866   5.696  13.452
96528SOL    HW191423  11.819   5.738  13.523
96528SOL    HW291424  11.879   5.606  13.482
96529SOL     OW91425   9.117  10.906  12.956
96529SOL    HW191426   9.208  10.901  12.926
96529SOL    HW291427   9.105  10.829  13.011
96530SOL     OW91428   7.441   1.336   9.544
96530SOL    HW191429   7.479   1.257   9.581
96530SOL    HW291430   7.511   1.374   9.491
96531SOL     OW91431   1.749   4.091  14.088
96531SOL    HW191432   1.703   4.057  14.011
96531SOL    HW291433   1.807   4.018  14.114
96532SOL     OW91434  12.129  10.813   0.970
96532SOL    HW191435  12.074  10.880   0.929
96532SOL    HW291436  12.069  10.745   0.998
96533SOL     OW91437   0.894   7.083  14.206
96533SOL    HW191438   0.893   7.039  14.122
96533SOL    HW291439   0.941   7.023  14.264
96534SOL     OW91440   6.713   7.139   6.397
96534SOL    HW191441   6.743   7.191   6.471
96534SOL    HW291442   6.698   7.203   6.327
96535SOL     OW91443   5.064  11.361  11.192
96535SOL    HW191444   4.975  11.377  11.160
96535SOL    HW291445   5.061  11.275  11.233
96536SOL     OW91446  14.068   9.195   5.623
96536SOL    HW191447  13.984   9.149   5.630
96536SOL    HW291448  14.067   9.257   5.696
96537SOL     OW91449   2.071  10.567  13.516
96537SOL    HW191450   2.036  10.655  13.532
96537SOL    HW291451   1.997  10.508  13.531
96538SOL     OW91452   1.597   5.817   7.479
96538SOL    HW191453   1.571   5.812   7.387
96538SOL    HW291454   1.625   5.729   7.501
96539SOL     OW91455  12.537   7.457   5.286
96539SOL    HW191456  12.474   7.395   5.321
96539SOL    HW291457  12.595   7.477   5.359
96540SOL     OW91458   7.860   9.303  10.472
96540SOL    HW191459   7.938   9.338  10.516
96540SOL    HW291460   7.887   9.294  10.380
96541SOL     OW91461   5.887   8.496  13.603
96541SOL    HW191462   5.893   8.450  13.519
96541SOL    HW291463   5.975   8.489  13.640
96542SOL     OW91464   4.393   2.209   3.870
96542SOL    HW191465   4.383   2.216   3.965
96542SOL    HW291466   4.449   2.133   3.858
96543SOL     OW91467  10.624  13.599  12.909
96543SOL    HW191468  10.578  13.572  12.988
96543SOL    HW291469  10.716  13.577  12.926
96544SOL     OW91470  10.641   2.691  10.480
96544SOL    HW191471  10.600   2.753  10.419
96544SOL    HW291472  10.603   2.713  10.565
96545SOL     OW91473  13.334   8.611   2.298
96545SOL    HW191474  13.331   8.594   2.392
96545SOL    HW291475  13.419   8.652   2.283
96546SOL     OW91476   7.342   0.210   3.961
96546SOL    HW191477   7.400   0.152   4.011
96546SOL    HW291478   7.335   0.288   4.015
96547SOL     OW91479   7.721   6.372   0.163
96547SOL    HW191480   7.693   6.356   0.073
96547SOL    HW291481   7.758   6.460   0.162
96548SOL     OW91482   3.258   8.232   7.490
96548SOL    HW191483   3.349   8.222   7.461
96548SOL    HW291484   3.248   8.326   7.507
96549SOL     OW91485   1.906   5.847   1.844
96549SOL    HW191486   1.959   5.883   1.915
96549SOL    HW291487   1.958   5.859   1.765
96550SOL     OW91488   1.787   3.257  14.558
96550SOL    HW191489   1.813   3.310  14.483
96550SOL    HW291490   1.698   3.228  14.537
96551SOL     OW91491  12.964   5.987   7.555
96551SOL    HW191492  12.900   5.917   7.545
96551SOL    HW291493  12.928   6.043   7.623
96552SOL     OW91494  14.319  12.223   2.402
96552SOL    HW191495  14.314  12.129   2.386
96552SOL    HW291496  14.235  12.257   2.370
96553SOL     OW91497   8.176   7.344   0.005
96553SOL    HW191498   8.250   7.323  14.821
96553SOL    HW291499   8.197   7.302   0.088
96554SOL     OW91500   5.995   1.357   2.529
96554SOL    HW191501   5.959   1.289   2.585
96554SOL    HW291502   6.089   1.342   2.530
96555SOL     OW91503   1.478   4.691   9.994
96555SOL    HW191504   1.461   4.599   9.975
96555SOL    HW291505   1.545   4.690  10.062
96556SOL     OW91506  10.557  11.632   2.587
96556SOL    HW191507  10.623  11.563   2.587
96556SOL    HW291508  10.491  11.603   2.524
96557SOL     OW91509   6.918   9.947  13.926
96557SOL    HW191510   6.928   9.948  13.830
96557SOL    HW291511   6.864   9.870  13.944
96558SOL     OW91512  12.016   0.173   4.149
96558SOL    HW191513  11.933   0.130   4.170
96558SOL    HW291514  12.052   0.119   4.078
96559SOL     OW91515   0.494   7.461   4.758
96559SOL    HW191516   0.584   7.460   4.725
96559SOL    HW291517   0.454   7.536   4.716
96560SOL     OW91518   9.315  13.676  13.017
96560SOL    HW191519   9.394  13.632  13.049
96560SOL    HW291520   9.323  13.672  12.922
96561SOL     OW91521   1.212   1.930   6.697
96561SOL    HW191522   1.240   1.908   6.786
96561SOL    HW291523   1.248   2.017   6.682
96562SOL     OW91524   0.360   4.014   5.309
96562SOL    HW191525   0.297   3.943   5.299
96562SOL    HW291526   0.311   4.093   5.285
96563SOL     OW91527   3.379   3.743  10.229
96563SOL    HW191528   3.289   3.715  10.210
96563SOL    HW291529   3.415   3.673  10.283
96564SOL     OW91530   6.138   8.002  13.524
96564SOL    HW191531   6.162   8.062  13.453
96564SOL    HW291532   6.180   8.039  13.602
96565SOL     OW91533   4.357  10.519   4.518
96565SOL    HW191534   4.294  10.584   4.550
96565SOL    HW291535   4.324  10.494   4.432
96566SOL     OW91536   4.209   7.242   7.491
96566SOL    HW191537   4.161   7.302   7.548
96566SOL    HW291538   4.159   7.160   7.494
96567SOL     OW91539  12.713  13.980   0.051
96567SOL    HW191540  12.656  14.017   0.118
96567SOL    HW291541  12.781  13.933   0.099
96568SOL     OW91542   2.249   5.644   2.354
96568SOL    HW191543   2.325   5.642   2.295
96568SOL    HW291544   2.283   5.612   2.437
96569SOL     OW91545   2.357   9.414   5.768
96569SOL    HW191546   2.328   9.339   5.717
96569SOL    HW291547   2.372   9.380   5.856
96570SOL     OW91548  13.093  12.643  10.405
96570SOL    HW191549  13.160  12.679  10.463
96570SOL    HW291550  13.027  12.711  10.399
96571SOL     OW91551  10.975  11.778   2.392
96571SOL    HW191552  11.055  11.733   2.362
96571SOL    HW291553  10.909  11.709   2.397
96572SOL     OW91554   7.387   5.731   4.695
96572SOL    HW191555   7.473   5.693   4.672
96572SOL    HW291556   7.365   5.691   4.779
96573SOL     OW91557   8.130   8.664  12.242
96573SOL    HW191558   8.164   8.749  12.269
96573SOL    HW291559   8.152   8.657  12.149
96574SOL     OW91560   5.608  10.161   6.433
96574SOL    HW191561   5.556  10.215   6.373
96574SOL    HW291562   5.609  10.075   6.391
96575SOL     OW91563  14.501  12.808  13.483
96575SOL    HW191564  14.510  12.772  13.571
96575SOL    HW291565  14.411  12.839  13.478
96576SOL     OW91566  14.318   6.694  11.388
96576SOL    HW191567  14.399   6.720  11.433
96576SOL    HW291568  14.248   6.719  11.448
96577SOL     OW91569   8.179   4.983   6.482
96577SOL    HW191570   8.126   5.060   6.505
96577SOL    HW291571   8.255   5.019   6.437
96578SOL     OW91572   0.905  11.397  13.952
96578SOL    HW191573   0.811  11.380  13.943
96578SOL    HW291574   0.910  11.474  14.009
96579SOL     OW91575   4.859  10.136  10.155
96579SOL    HW191576   4.862  10.074  10.228
96579SOL    HW291577   4.824  10.085  10.082
96580SOL     OW91578   2.232  14.831  14.369
96580SOL    HW191579   2.190  14.749  14.345
96580SOL    HW291580   2.167   0.005  14.420
96581SOL     OW91581   0.286  11.213   2.976
96581SOL    HW191582   0.207  11.179   2.935
96581SOL    HW291583   0.261  11.298   3.011
96582SOL     OW91584   2.404   8.190   2.420
96582SOL    HW191585   2.411   8.264   2.480
96582SOL    HW291586   2.487   8.144   2.430
96583SOL     OW91587   7.354   3.571   2.319
96583SOL    HW191588   7.347   3.624   2.239
96583SOL    HW291589   7.439   3.596   2.356
96584SOL     OW91590   1.107   9.113   7.566
96584SOL    HW191591   1.108   9.208   7.550
96584SOL    HW291592   1.160   9.101   7.644
96585SOL     OW91593   8.728   4.872  14.230
96585SOL    HW191594   8.703   4.883  14.138
96585SOL    HW291595   8.803   4.931  14.242
96586SOL     OW91596   6.163   2.150   9.454
96586SOL    HW191597   6.094   2.098   9.413
96586SOL    HW291598   6.242   2.126   9.406
96587SOL     OW91599   3.984   0.393   1.114
96587SOL    HW191600   3.899   0.358   1.089
96587SOL    HW291601   3.985   0.387   1.210
96588SOL     OW91602  12.899   3.061   0.672
96588SOL    HW191603  12.812   3.100   0.668
96588SOL    HW291604  12.936   3.092   0.754
96589SOL     OW91605   4.195   5.930   7.928
96589SOL    HW191606   4.156   5.949   8.014
96589SOL    HW291607   4.122   5.901   7.874
96590SOL     OW91608  12.764   9.453  10.842
96590SOL    HW191609  12.818   9.532  10.843
96590SOL    HW291610  12.800   9.398  10.911
96591SOL     OW91611  13.147  12.990   3.311
96591SOL    HW191612  13.209  12.926   3.347
96591SOL    HW291613  13.062  12.945   3.313
96592SOL     OW91614   1.039   1.642  12.212
96592SOL    HW191615   1.061   1.552  12.190
96592SOL    HW291616   0.966   1.664  12.153
96593SOL     OW91617  12.106  13.016   7.575
96593SOL    HW191618  12.083  12.989   7.486
96593SOL    HW291619  12.060  13.099   7.587
96594SOL     OW91620  12.693  12.250  10.472
96594SOL    HW191621  12.624  12.269  10.536
96594SOL    HW291622  12.695  12.155  10.467
96595SOL     OW91623   6.999  12.619   1.945
96595SOL    HW191624   7.059  12.548   1.967
96595SOL    HW291625   6.941  12.582   1.878
96596SOL     OW91626   6.423   3.504   9.289
96596SOL    HW191627   6.427   3.501   9.384
96596SOL    HW291628   6.374   3.584   9.269
96597SOL     OW91629  11.602  13.884   8.716
96597SOL    HW191630  11.565  13.888   8.627
96597SOL    HW291631  11.534  13.842   8.768
96598SOL     OW91632  12.018   5.953   4.973
96598SOL    HW191633  11.926   5.947   4.946
96598SOL    HW291634  12.068   5.928   4.896
96599SOL     OW91635   9.139   4.804  12.097
96599SOL    HW191636   9.151   4.790  12.003
96599SOL    HW291637   9.199   4.740  12.138
96600SOL     OW91638   5.009   6.634   1.040
96600SOL    HW191639   5.026   6.659   0.949
96600SOL    HW291640   5.056   6.699   1.092
96601SOL     OW91641  12.985   9.219   6.965
96601SOL    HW191642  12.911   9.158   6.965
96601SOL    HW291643  12.945   9.306   6.965
96602SOL     OW91644  11.949  13.753   5.015
96602SOL    HW191645  11.888  13.697   5.064
96602SOL    HW291646  11.921  13.745   4.924
96603SOL     OW91647   0.296  12.091   1.353
96603SOL    HW191648   0.202  12.072   1.351
96603SOL    HW291649   0.318  12.107   1.261
96604SOL     OW91650   2.599   6.506   8.574
96604SOL    HW191651   2.668   6.564   8.541
96604SOL    HW291652   2.642   6.421   8.581
96605SOL     OW91653  11.540   2.741   1.631
96605SOL    HW191654  11.569   2.829   1.654
96605SOL    HW291655  11.581   2.684   1.696
96606SOL     OW91656  10.481   8.635   7.991
96606SOL    HW191657  10.516   8.546   7.995
96606SOL    HW291658  10.557   8.689   7.971
96607SOL     OW91659   5.368  11.956  13.395
96607SOL    HW191660   5.372  12.018  13.322
96607SOL    HW291661   5.344  12.009  13.471
96608SOL     OW91662   3.809  12.748  10.026
96608SOL    HW191663   3.783  12.831  10.067
96608SOL    HW291664   3.764  12.749   9.942
96609SOL     OW91665   8.271   9.861   4.790
96609SOL    HW191666   8.294   9.897   4.876
96609SOL    HW291667   8.342   9.800   4.770
96610SOL     OW91668   7.792  14.205   0.622
96610SOL    HW191669   7.878  14.241   0.642
96610SOL    HW291670   7.798  14.113   0.649
96611SOL     OW91671   5.372   8.809   0.193
96611SOL    HW191672   5.447   8.826   0.249
96611SOL    HW291673   5.324   8.891   0.190
96612SOL     OW91674  11.717   3.322   4.268
96612SOL    HW191675  11.684   3.411   4.260
96612SOL    HW291676  11.642   3.266   4.249
96613SOL     OW91677   1.327   9.596  11.478
96613SOL    HW191678   1.305   9.556  11.393
96613SOL    HW291679   1.254   9.572  11.535
96614SOL     OW91680   9.057  13.005   2.152
96614SOL    HW191681   9.102  13.036   2.073
96614SOL    HW291682   8.991  13.071   2.170
96615SOL     OW91683  14.443   6.287  11.442
96615SOL    HW191684  14.375   6.321  11.384
96615SOL    HW291685  14.435   6.341  11.521
96616SOL     OW91686   8.267   8.419  14.771
96616SOL    HW191687   8.261   8.339  14.823
96616SOL    HW291688   8.234   8.394  14.685
96617SOL     OW91689  12.057   7.514   4.313
96617SOL    HW191690  12.067   7.462   4.233
96617SOL    HW291691  11.962   7.519   4.327
96618SOL     OW91692  13.049  11.457  13.164
96618SOL    HW191693  13.075  11.533  13.111
96618SOL    HW291694  13.010  11.397  13.101
96619SOL     OW91695  14.183  11.886   3.817
96619SOL    HW191696  14.161  11.818   3.880
96619SOL    HW291697  14.099  11.909   3.776
96620SOL     OW91698  10.079   4.304   5.272
96620SOL    HW191699  10.133   4.252   5.332
96620SOL    HW291700  10.087   4.394   5.305
96621SOL     OW91701   7.681  14.448   4.214
96621SOL    HW191702   7.750  14.490   4.162
96621SOL    HW291703   7.709  14.457   4.305
96622SOL     OW91704   5.773   6.733   1.228
96622SOL    HW191705   5.769   6.672   1.155
96622SOL    HW291706   5.844   6.793   1.205
96623SOL     OW91707  10.222  11.107  14.686
96623SOL    HW191708  10.211  11.085  14.779
96623SOL    HW291709  10.270  11.033  14.650
96624SOL     OW91710   3.083  13.099   1.558
96624SOL    HW191711   3.012  13.039   1.579
96624SOL    HW291712   3.069  13.121   1.465
96625SOL     OW91713   3.486  11.943   5.472
96625SOL    HW191714   3.390  11.951   5.472
96625SOL    HW291715   3.503  11.859   5.429
96626SOL     OW91716  11.468  11.304   5.627
96626SOL    HW191717  11.463  11.397   5.652
96626SOL    HW291718  11.562  11.284   5.629
96627SOL     OW91719  10.361   7.057   2.492
96627SOL    HW191720  10.290   7.100   2.539
96627SOL    HW291721  10.410   7.128   2.451
96628SOL     OW91722  14.400   9.081  10.832
96628SOL    HW191723  14.325   9.024  10.816
96628SOL    HW291724  14.419   9.071  10.925
96629SOL     OW91725   7.031   7.978  11.651
96629SOL    HW191726   7.089   7.903  11.634
96629SOL    HW291727   6.973   7.948  11.721
96630SOL     OW91728   8.650   2.421  12.655
96630SOL    HW191729   8.644   2.347  12.596
96630SOL    HW291730   8.625   2.497  12.602
96631SOL     OW91731   1.463   0.360   9.360
96631SOL    HW191732   1.505   0.296   9.303
96631SOL    HW291733   1.508   0.443   9.341
96632SOL     OW91734  11.814   2.133   1.489
96632SOL    HW191735  11.906   2.110   1.477
96632SOL    HW291736  11.777   2.130   1.401
96633SOL     OW91737   7.416  13.069  13.137
96633SOL    HW191738   7.481  13.073  13.067
96633SOL    HW291739   7.447  13.132  13.202
96634SOL     OW91740   7.530  14.348   4.562
96634SOL    HW191741   7.467  14.394   4.618
96634SOL    HW291742   7.487  14.266   4.539
96635SOL     OW91743  10.784   8.077  14.176
96635SOL    HW191744  10.727   8.153  14.158
96635SOL    HW291745  10.724   8.012  14.214
96636SOL     OW91746  11.970   9.305  13.901
96636SOL    HW191747  12.001   9.250  13.829
96636SOL    HW291748  11.928   9.379  13.857
96637SOL     OW91749   1.572  13.437  13.167
96637SOL    HW191750   1.483  13.404  13.160
96637SOL    HW291751   1.627  13.363  13.143
96638SOL     OW91752   1.677  13.871   3.990
96638SOL    HW191753   1.671  13.861   3.895
96638SOL    HW291754   1.693  13.964   4.003
96639SOL     OW91755   3.171   3.446   5.887
96639SOL    HW191756   3.224   3.450   5.967
96639SOL    HW291757   3.081   3.465   5.917
96640SOL     OW91758  14.845  10.136  12.915
96640SOL    HW191759  14.830  10.173  12.828
96640SOL    HW291760   0.065  10.114  12.915
96641SOL     OW91761  10.140   7.098   3.283
96641SOL    HW191762  10.093   7.020   3.253
96641SOL    HW291763  10.217   7.063   3.328
96642SOL     OW91764   7.722   6.065  11.512
96642SOL    HW191765   7.665   6.078  11.436
96642SOL    HW291766   7.686   6.122  11.580
96643SOL     OW91767   8.996   7.498   2.072
96643SOL    HW191768   9.018   7.416   2.117
96643SOL    HW291769   8.945   7.548   2.135
96644SOL     OW91770  12.137   0.174   3.322
96644SOL    HW191771  12.233   0.173   3.322
96644SOL    HW291772  12.114   0.254   3.369
96645SOL     OW91773  13.994   2.842   3.894
96645SOL    HW191774  13.963   2.933   3.895
96645SOL    HW291775  13.930   2.795   3.840
96646SOL     OW91776   8.701  12.657  11.515
96646SOL    HW191777   8.703  12.742  11.471
96646SOL    HW291778   8.773  12.607  11.475
96647SOL     OW91779   8.609  10.592   3.631
96647SOL    HW191780   8.623  10.685   3.615
96647SOL    HW291781   8.561  10.561   3.554
96648SOL     OW91782   9.127   3.423  13.704
96648SOL    HW191783   9.161   3.334  13.703
96648SOL    HW291784   9.077   3.429  13.786
96649SOL     OW91785   3.997   4.820   8.410
96649SOL    HW191786   4.081   4.785   8.440
96649SOL    HW291787   4.002   4.914   8.427
96650SOL     OW91788   6.123   0.649   4.957
96650SOL    HW191789   6.073   0.628   5.036
96650SOL    HW291790   6.057   0.675   4.892
96651SOL     OW91791   1.997   1.096   4.644
96651SOL    HW191792   1.965   1.185   4.662
96651SOL    HW291793   2.080   1.110   4.598
96652SOL     OW91794  10.218   1.574   5.533
96652SOL    HW191795  10.293   1.626   5.562
96652SOL    HW291796  10.231   1.564   5.438
96653SOL     OW91797   2.690   5.295   5.711
96653SOL    HW191798   2.688   5.390   5.697
96653SOL    HW291799   2.598   5.270   5.717
96654SOL     OW91800   8.185  13.480   9.523
96654SOL    HW191801   8.123  13.538   9.478
96654SOL    HW291802   8.216  13.420   9.454
96655SOL     OW91803   5.440   9.350  11.018
96655SOL    HW191804   5.512   9.341  10.955
96655SOL    HW291805   5.481   9.329  11.102
96656SOL     OW91806   7.076  11.351  13.876
96656SOL    HW191807   7.148  11.312  13.927
96656SOL    HW291808   7.015  11.278  13.863
96657SOL     OW91809   0.098   1.567  12.870
96657SOL    HW191810   0.044   1.540  12.796
96657SOL    HW291811   0.123   1.658  12.850
96658SOL     OW91812  12.576   2.383   0.029
96658SOL    HW191813  12.631   2.325   0.082
96658SOL    HW291814  12.529   2.324  14.843
96659SOL     OW91815  13.145   8.946  12.928
96659SOL    HW191816  13.051   8.928  12.941
96659SOL    HW291817  13.149   8.991  12.844
96660SOL     OW91818   1.605   5.474   6.019
96660SOL    HW191819   1.580   5.494   6.109
96660SOL    HW291820   1.613   5.378   6.017
96661SOL     OW91821   5.507   3.318   1.423
96661SOL    HW191822   5.473   3.232   1.449
96661SOL    HW291823   5.595   3.321   1.461
96662SOL     OW91824   0.639   3.816   7.227
96662SOL    HW191825   0.598   3.876   7.289
96662SOL    HW291826   0.566   3.783   7.174
96663SOL     OW91827   1.426  14.441   5.602
96663SOL    HW191828   1.381  14.406   5.678
96663SOL    HW291829   1.486  14.371   5.575
96664SOL     OW91830   0.127  14.491   8.586
96664SOL    HW191831   0.168  14.524   8.666
96664SOL    HW291832   0.155  14.399   8.581
96665SOL     OW91833  12.284   4.331   5.846
96665SOL    HW191834  12.205   4.385   5.854
96665SOL    HW291835  12.350   4.377   5.897
96666SOL     OW91836  11.061  13.358   1.277
96666SOL    HW191837  11.021  13.353   1.191
96666SOL    HW291838  11.070  13.268   1.306
96667SOL     OW91839   1.743  14.649   8.212
96667SOL    HW191840   1.692  14.608   8.142
96667SOL    HW291841   1.819  14.687   8.168
96668SOL     OW91842  14.175  13.368   9.750
96668SOL    HW191843  14.149  13.458   9.729
96668SOL    HW291844  14.258  13.355   9.702
96669SOL     OW91845  13.154   3.903   5.616
96669SOL    HW191846  13.073   3.864   5.649
96669SOL    HW291847  13.219   3.833   5.624
96670SOL     OW91848   2.075   9.411  10.348
96670SOL    HW191849   1.995   9.450  10.314
96670SOL    HW291850   2.144   9.441  10.290
96671SOL     OW91851   0.631   3.663   4.164
96671SOL    HW191852   0.721   3.652   4.133
96671SOL    HW291853   0.640   3.670   4.259
96672SOL     OW91854   2.673  11.542   5.143
96672SOL    HW191855   2.725  11.559   5.222
96672SOL    HW291856   2.733  11.494   5.085
96673SOL     OW91857  13.175   9.242   1.051
96673SOL    HW191858  13.097   9.251   0.997
96673SOL    HW291859  13.181   9.149   1.070
96674SOL     OW91860   7.151   7.586   6.325
96674SOL    HW191861   7.175   7.672   6.360
96674SOL    HW291862   7.076   7.602   6.269
96675SOL     OW91863   1.197   5.001   8.265
96675SOL    HW191864   1.110   5.040   8.260
96675SOL    HW291865   1.230   5.026   8.351
96676SOL     OW91866   3.996   8.447   6.315
96676SOL    HW191867   3.911   8.411   6.340
96676SOL    HW291868   4.034   8.380   6.258
96677SOL     OW91869   0.158   6.529  13.178
96677SOL    HW191870   0.211   6.546  13.100
96677SOL    HW291871   0.068   6.540  13.147
96678SOL     OW91872   3.154  13.136   8.543
96678SOL    HW191873   3.242  13.108   8.519
96678SOL    HW291874   3.142  13.219   8.498
96679SOL     OW91875  12.102   5.038   0.309
96679SOL    HW191876  12.182   4.985   0.309
96679SOL    HW291877  12.084   5.054   0.216
96680SOL     OW91878   4.278   5.530   2.877
96680SOL    HW191879   4.214   5.499   2.813
96680SOL    HW291880   4.232   5.524   2.961
96681SOL     OW91881   0.521  13.343  11.250
96681SOL    HW191882   0.504  13.398  11.173
96681SOL    HW291883   0.614  13.320  11.243
96682SOL     OW91884   2.974   1.314  12.254
96682SOL    HW191885   3.056   1.284  12.292
96682SOL    HW291886   2.927   1.233  12.233
96683SOL     OW91887   9.694   9.841   0.962
96683SOL    HW191888   9.600   9.829   0.953
96683SOL    HW291889   9.704   9.893   1.042
96684SOL     OW91890   2.594  10.605   0.834
96684SOL    HW191891   2.657  10.536   0.812
96684SOL    HW291892   2.565  10.639   0.750
96685SOL     OW91893  13.688  13.401   3.849
96685SOL    HW191894  13.752  13.360   3.790
96685SOL    HW291895  13.703  13.357   3.933
96686SOL     OW91896  12.750   2.235   0.203
96686SOL    HW191897  12.808   2.306   0.232
96686SOL    HW291898  12.801   2.156   0.218
96687SOL     OW91899   8.673  10.594  11.273
96687SOL    HW191900   8.585  10.627  11.252
96687SOL    HW291901   8.686  10.521  11.212
96688SOL     OW91902  14.197   6.783   2.327
96688SOL    HW191903  14.252   6.748   2.257
96688SOL    HW291904  14.196   6.713   2.393
96689SOL     OW91905  11.135  14.607   8.307
96689SOL    HW191906  11.162  14.695   8.279
96689SOL    HW291907  11.213  14.570   8.348
96690SOL     OW91908   0.377   8.004  13.155
96690SOL    HW191909   0.408   8.089  13.186
96690SOL    HW291910   0.425   7.990  13.073
96691SOL     OW91911   1.838   3.097   2.480
96691SOL    HW191912   1.851   3.191   2.495
96691SOL    HW291913   1.881   3.055   2.555
96692SOL     OW91914  11.325  13.389  13.026
96692SOL    HW191915  11.293  13.462  13.078
96692SOL    HW291916  11.264  13.317  13.043
96693SOL     OW91917   3.806   2.991   0.817
96693SOL    HW191918   3.820   2.896   0.812
96693SOL    HW291919   3.711   3.000   0.827
96694SOL     OW91920  14.562   8.670   1.089
96694SOL    HW191921  14.487   8.618   1.061
96694SOL    HW291922  14.567   8.656   1.184
96695SOL     OW91923   7.177   3.013   2.874
96695SOL    HW191924   7.178   2.995   2.780
96695SOL    HW291925   7.209   3.103   2.881
96696SOL     OW91926   4.409   5.868  11.231
96696SOL    HW191927   4.468   5.917  11.174
96696SOL    HW291928   4.466   5.805  11.276
96697SOL     OW91929   7.113   7.112   2.012
96697SOL    HW191930   7.175   7.155   1.953
96697SOL    HW291931   7.124   7.158   2.095
96698SOL     OW91932   3.956   2.744   1.780
96698SOL    HW191933   3.929   2.655   1.758
96698SOL    HW291934   3.904   2.800   1.723
96699SOL     OW91935   0.624   8.868   2.285
96699SOL    HW191936   0.682   8.799   2.252
96699SOL    HW291937   0.683   8.936   2.317
96700SOL     OW91938   6.609  12.432  11.756
96700SOL    HW191939   6.688  12.390  11.721
96700SOL    HW291940   6.642  12.508  11.803
96701SOL     OW91941  12.714   2.938   2.863
96701SOL    HW191942  12.624   2.967   2.844
96701SOL    HW291943  12.757   2.939   2.777
96702SOL     OW91944   9.507  10.783   8.422
96702SOL    HW191945   9.591  10.738   8.427
96702SOL    HW291946   9.510  10.831   8.340
96703SOL     OW91947  11.403   2.609   6.255
96703SOL    HW191948  11.478   2.649   6.211
96703SOL    HW291949  11.413   2.632   6.347
96704SOL     OW91950   9.240   4.714   5.794
96704SOL    HW191951   9.251   4.768   5.872
96704SOL    HW291952   9.216   4.777   5.725
96705SOL     OW91953   5.311   7.835  10.830
96705SOL    HW191954   5.257   7.801  10.901
96705SOL    HW291955   5.254   7.833  10.753
96706SOL     OW91956  12.005   4.992   4.404
96706SOL    HW191957  12.090   5.035   4.401
96706SOL    HW291958  11.996   4.964   4.495
96707SOL     OW91959   7.380  11.591  13.983
96707SOL    HW191960   7.337  11.631  14.059
96707SOL    HW291961   7.385  11.663  13.919
96708SOL     OW91962   3.833  10.767   9.842
96708SOL    HW191963   3.895  10.834   9.813
96708SOL    HW291964   3.878  10.723   9.914
96709SOL     OW91965   7.431  11.746  11.263
96709SOL    HW191966   7.385  11.770  11.343
96709SOL    HW291967   7.507  11.697  11.293
96710SOL     OW91968   3.924  11.574  12.885
96710SOL    HW191969   3.837  11.609  12.866
96710SOL    HW291970   3.977  11.652  12.904
96711SOL     OW91971   4.825   2.742   2.697
96711SOL    HW191972   4.847   2.669   2.755
96711SOL    HW291973   4.749   2.783   2.738
96712SOL     OW91974   5.529  13.787  10.769
96712SOL    HW191975   5.591  13.721  10.738
96712SOL    HW291976   5.448  13.768  10.722
96713SOL     OW91977   5.439  10.920   7.246
96713SOL    HW191978   5.517  10.975   7.254
96713SOL    HW291979   5.426  10.884   7.333
96714SOL     OW91980   4.657  12.361   5.288
96714SOL    HW191981   4.742  12.405   5.287
96714SOL    HW291982   4.674  12.275   5.251
96715SOL     OW91983   3.068  12.780   0.428
96715SOL    HW191984   3.084  12.686   0.428
96715SOL    HW291985   3.059  12.803   0.335
96716SOL     OW91986   5.497   0.305   7.400
96716SOL    HW191987   5.472   0.248   7.473
96716SOL    HW291988   5.540   0.380   7.443
96717SOL     OW91989   2.450   5.971  11.049
96717SOL    HW191990   2.528   5.931  11.089
96717SOL    HW291991   2.426   6.041  11.109
96718SOL     OW91992   7.992  13.204  10.749
96718SOL    HW191993   7.954  13.234  10.833
96718SOL    HW291994   8.055  13.136  10.774
96719SOL     OW91995  11.087  10.580  11.613
96719SOL    HW191996  11.077  10.581  11.518
96719SOL    HW291997  11.102  10.488  11.634
96720SOL     OW91998  12.021   8.848  13.675
96720SOL    HW191999  11.986   8.847  13.586
96720SOL    HW292000  11.958   8.798  13.726
96721SOL     OW92001  13.176  13.478   8.568
96721SOL    HW192002  13.239  13.493   8.498
96721SOL    HW292003  13.153  13.386   8.561
96722SOL     OW92004   6.121   3.653  10.423
96722SOL    HW192005   6.075   3.599  10.358
96722SOL    HW292006   6.054   3.672  10.490
96723SOL     OW92007   4.209   7.292  12.805
96723SOL    HW192008   4.117   7.310  12.824
96723SOL    HW292009   4.206   7.230  12.732
96724SOL     OW92010   0.973   6.825  10.815
96724SOL    HW192011   0.914   6.864  10.879
96724SOL    HW292012   0.915   6.782  10.752
96725SOL     OW92013   5.941   8.382  12.020
96725SOL    HW192014   5.847   8.373  12.039
96725SOL    HW292015   5.948   8.364  11.926
96726SOL     OW92016  14.489   4.464  12.383
96726SOL    HW192017  14.494   4.457  12.288
96726SOL    HW292018  14.400   4.496  12.400
96727SOL     OW92019   7.148  14.418  11.982
96727SOL    HW192020   7.094  14.347  11.947
96727SOL    HW292021   7.155  14.481  11.910
96728SOL     OW92022   3.204   6.470   6.859
96728SOL    HW192023   3.212   6.378   6.833
96728SOL    HW292024   3.166   6.467   6.946
96729SOL     OW92025  12.370  13.880  13.701
96729SOL    HW192026  12.395  13.794  13.668
96729SOL    HW292027  12.426  13.942  13.653
96730SOL     OW92028  11.069   1.096  13.431
96730SOL    HW192029  11.133   1.025  13.422
96730SOL    HW292030  11.116   1.174  13.401
96731SOL     OW92031   4.714   2.052   9.715
96731SOL    HW192032   4.732   1.979   9.774
96731SOL    HW292033   4.756   2.027   9.632
96732SOL     OW92034   0.023   0.743  12.547
96732SOL    HW192035  14.860   0.803  12.481
96732SOL    HW292036   0.054   0.668  12.497
96733SOL     OW92037   0.146   6.205   1.083
96733SOL    HW192038   0.214   6.237   1.025
96733SOL    HW292039   0.065   6.245   1.051
96734SOL     OW92040  10.061   2.389   6.369
96734SOL    HW192041  10.002   2.313   6.367
96734SOL    HW292042  10.138   2.357   6.416
96735SOL     OW92043  13.624   7.399   2.945
96735SOL    HW192044  13.697   7.353   2.985
96735SOL    HW292045  13.600   7.466   3.008
96736SOL     OW92046   0.066   0.192   4.905
96736SOL    HW192047   0.047   0.255   4.836
96736SOL    HW292048   0.026   0.110   4.874
96737SOL     OW92049   6.585   0.341   0.709
96737SOL    HW192050   6.650   0.286   0.753
96737SOL    HW292051   6.501   0.299   0.729
96738SOL     OW92052  11.674  10.972   5.145
96738SOL    HW192053  11.611  10.944   5.079
96738SOL    HW292054  11.741  11.020   5.096
96739SOL     OW92055  11.215  12.248   9.812
96739SOL    HW192056  11.302  12.263   9.773
96739SOL    HW292057  11.164  12.209   9.742
96740SOL     OW92058  13.704   3.399   4.849
96740SOL    HW192059  13.646   3.468   4.815
96740SOL    HW292060  13.746   3.439   4.925
96741SOL     OW92061   2.485   9.111  12.312
96741SOL    HW192062   2.466   9.189  12.260
96741SOL    HW292063   2.446   9.039  12.264
96742SOL     OW92064  10.469  14.648   9.234
96742SOL    HW192065  10.376  14.668   9.222
96742SOL    HW292066  10.515  14.710   9.177
96743SOL     OW92067   7.933   1.143   7.624
96743SOL    HW192068   8.024   1.114   7.615
96743SOL    HW292069   7.882   1.073   7.584
96744SOL     OW92070   3.349   5.554  10.236
96744SOL    HW192071   3.255   5.565  10.222
96744SOL    HW292072   3.362   5.579  10.327
96745SOL     OW92073   5.354   9.643   6.122
96745SOL    HW192074   5.432   9.696   6.138
96745SOL    HW292075   5.362   9.616   6.030
96746SOL     OW92076   7.346  13.205   6.563
96746SOL    HW192077   7.402  13.239   6.632
96746SOL    HW292078   7.304  13.128   6.603
96747SOL     OW92079   5.021  11.265  10.223
96747SOL    HW192080   4.995  11.352  10.192
96747SOL    HW292081   4.939  11.216  10.228
96748SOL     OW92082  14.308   5.822   8.735
96748SOL    HW192083  14.348   5.897   8.778
96748SOL    HW292084  14.319   5.839   8.641
96749SOL     OW92085   9.137   5.595   9.225
96749SOL    HW192086   9.066   5.648   9.190
96749SOL    HW292087   9.194   5.579   9.151
96750SOL     OW92088  14.100  12.581   9.979
96750SOL    HW192089  14.060  12.494   9.988
96750SOL    HW292090  14.189  12.564   9.948
96751SOL     OW92091  12.119   2.417   9.115
96751SOL    HW192092  12.117   2.400   9.209
96751SOL    HW292093  12.124   2.330   9.075
96752SOL     OW92094  10.635   6.412  11.008
96752SOL    HW192095  10.636   6.357  11.086
96752SOL    HW292096  10.705   6.475  11.023
96753SOL     OW92097  12.970   5.780   5.462
96753SOL    HW192098  13.062   5.757   5.447
96753SOL    HW292099  12.921   5.703   5.431
96754SOL     OW92100  11.656   9.235   1.954
96754SOL    HW192101  11.661   9.322   1.916
96754SOL    HW292102  11.745   9.201   1.948
96755SOL     OW92103   9.476   7.798  12.791
96755SOL    HW192104   9.494   7.772  12.700
96755SOL    HW292105   9.387   7.768  12.807
96756SOL     OW92106  14.475  13.608   5.845
96756SOL    HW192107  14.571  13.606   5.842
96756SOL    HW292108  14.456  13.678   5.908
96757SOL     OW92109   4.715   4.417   4.900
96757SOL    HW192110   4.672   4.395   4.983
96757SOL    HW292111   4.770   4.493   4.921
96758SOL     OW92112   5.957  14.237   7.360
96758SOL    HW192113   6.009  14.165   7.396
96758SOL    HW292114   5.868  14.219   7.391
96759SOL     OW92115   2.122   1.564   3.053
96759SOL    HW192116   2.139   1.649   3.093
96759SOL    HW292117   2.125   1.580   2.959
96760SOL     OW92118   8.149   1.658   5.345
96760SOL    HW192119   8.081   1.662   5.277
96760SOL    HW292120   8.207   1.587   5.317
96761SOL     OW92121   8.977   8.077   5.630
96761SOL    HW192122   8.906   8.022   5.597
96761SOL    HW292123   9.017   8.026   5.700
96762SOL     OW92124  12.818   1.556   2.635
96762SOL    HW192125  12.762   1.492   2.677
96762SOL    HW292126  12.907   1.527   2.654
96763SOL     OW92127   1.954   4.693   7.622
96763SOL    HW192128   1.866   4.723   7.643
96763SOL    HW292129   1.975   4.735   7.539
96764SOL     OW92130   6.658   4.844   9.577
96764SOL    HW192131   6.701   4.822   9.494
96764SOL    HW292132   6.692   4.931   9.599
96765SOL     OW92133  10.523   0.720   0.225
96765SOL    HW192134  10.594   0.658   0.240
96765SOL    HW292135  10.461   0.705   0.297
96766SOL     OW92136   8.964   5.848   7.494
96766SOL    HW192137   8.878   5.890   7.495
96766SOL    HW292138   9.004   5.877   7.412
96767SOL     OW92139  14.174  14.209   3.932
96767SOL    HW192140  14.165  14.166   3.846
96767SOL    HW292141  14.215  14.293   3.912
96768SOL     OW92142   5.309  13.496  14.324
96768SOL    HW192143   5.320  13.464  14.414
96768SOL    HW292144   5.297  13.590  14.334
96769SOL     OW92145   2.143  13.957  14.544
96769SOL    HW192146   2.132  14.006  14.463
96769SOL    HW292147   2.124  13.866  14.521
96770SOL     OW92148  10.573   4.837   5.864
96770SOL    HW192149  10.596   4.886   5.784
96770SOL    HW292150  10.498   4.885   5.900
96771SOL     OW92151   5.660  14.825   5.047
96771SOL    HW192152   5.643  14.730   5.046
96771SOL    HW292153   5.578  14.864   5.076
96772SOL     OW92154   1.961   0.502  12.214
96772SOL    HW192155   1.869   0.489  12.238
96772SOL    HW292156   2.004   0.526  12.297
96773SOL     OW92157   3.933   0.059   9.083
96773SOL    HW192158   3.945   0.145   9.125
96773SOL    HW292159   3.843   0.034   9.106
96774SOL     OW92160  14.701  13.010   2.889
96774SOL    HW192161  14.634  12.942   2.899
96774SOL    HW292162  14.734  13.023   2.978
96775SOL     OW92163   0.866   2.000   4.141
96775SOL    HW192164   0.782   2.004   4.187
96775SOL    HW292165   0.904   2.087   4.152
96776SOL     OW92166   7.769  10.745  13.374
96776SOL    HW192167   7.681  10.714  13.394
96776SOL    HW292168   7.758  10.839  13.359
96777SOL     OW92169   8.438  12.909   1.650
96777SOL    HW192170   8.531  12.925   1.636
96777SOL    HW292171   8.418  12.951   1.733
96778SOL     OW92172   1.737  12.799   5.804
96778SOL    HW192173   1.832  12.795   5.816
96778SOL    HW292174   1.702  12.801   5.893
96779SOL     OW92175   3.790   3.220   1.544
96779SOL    HW192176   3.723   3.281   1.512
96779SOL    HW292177   3.778   3.220   1.639
96780SOL     OW92178   9.800   0.802   9.064
96780SOL    HW192179   9.845   0.772   9.143
96780SOL    HW292180   9.757   0.883   9.090
96781SOL     OW92181   5.905   6.168   5.596
96781SOL    HW192182   5.817   6.133   5.583
96781SOL    HW292183   5.942   6.174   5.507
96782SOL     OW92184   8.932   5.468  12.057
96782SOL    HW192185   8.943   5.561  12.040
96782SOL    HW292186   9.019   5.438  12.086
96783SOL     OW92187   4.296   9.109   9.004
96783SOL    HW192188   4.209   9.144   9.026
96783SOL    HW292189   4.354   9.145   9.071
96784SOL     OW92190   1.736   9.760  10.416
96784SOL    HW192191   1.776   9.831  10.466
96784SOL    HW292192   1.695   9.803  10.341
96785SOL     OW92193   7.830   3.674  14.547
96785SOL    HW192194   7.737   3.687  14.530
96785SOL    HW292195   7.851   3.736  14.617
96786SOL     OW92196   7.879   5.365   3.746
96786SOL    HW192197   7.858   5.334   3.658
96786SOL    HW292198   7.911   5.454   3.733
96787SOL     OW92199   0.381  13.251  13.353
96787SOL    HW192200   0.343  13.338  13.368
96787SOL    HW292201   0.362  13.232  13.261
96788SOL     OW92202   7.767   6.968   6.424
96788SOL    HW192203   7.801   7.047   6.382
96788SOL    HW292204   7.765   6.990   6.517
96789SOL     OW92205   4.914   2.481   1.973
96789SOL    HW192206   4.875   2.401   2.008
96789SOL    HW292207   4.871   2.494   1.889
96790SOL     OW92208  12.448   4.572  10.518
96790SOL    HW192209  12.453   4.611  10.606
96790SOL    HW292210  12.489   4.638  10.462
96791SOL     OW92211   9.020   8.938  10.369
96791SOL    HW192212   9.049   8.876  10.301
96791SOL    HW292213   9.005   9.020  10.322
96792SOL     OW92214  12.062   7.661  10.255
96792SOL    HW192215  11.967   7.668  10.244
96792SOL    HW292216  12.087   7.591  10.194
96793SOL     OW92217   9.875  13.936   2.629
96793SOL    HW192218   9.810  13.895   2.572
96793SOL    HW292219   9.842  14.024   2.645
96794SOL     OW92220  11.705   2.706   4.001
96794SOL    HW192221  11.692   2.801   4.002
96794SOL    HW292222  11.741   2.686   4.088
96795SOL     OW92223   9.856  12.750  10.496
96795SOL    HW192224   9.822  12.703  10.573
96795SOL    HW292225   9.913  12.817  10.533
96796SOL     OW92226   3.479   5.105  10.848
96796SOL    HW192227   3.496   5.159  10.771
96796SOL    HW292228   3.534   5.028  10.836
96797SOL     OW92229  10.465   4.370   0.567
96797SOL    HW192230  10.556   4.388   0.593
96797SOL    HW292231  10.461   4.394   0.474
96798SOL     OW92232   1.441   8.980   3.765
96798SOL    HW192233   1.499   9.022   3.702
96798SOL    HW292234   1.486   8.987   3.849
96799SOL     OW92235   5.275   2.376  10.292
96799SOL    HW192236   5.241   2.341  10.374
96799SOL    HW292237   5.212   2.348  10.225
96800SOL     OW92238   6.622   5.258   2.327
96800SOL    HW192239   6.548   5.288   2.274
96800SOL    HW292240   6.673   5.203   2.268
96801SOL     OW92241  14.870   5.177   5.680
96801SOL    HW192242   0.051   5.187   5.602
96801SOL    HW292243  14.784   5.210   5.653
96802SOL     OW92244  10.421   7.625   5.355
96802SOL    HW192245  10.407   7.632   5.450
96802SOL    HW292246  10.361   7.555   5.327
96803SOL     OW92247   2.735   6.719   0.112
96803SOL    HW192248   2.766   6.629   0.097
96803SOL    HW292249   2.646   6.720   0.078
96804SOL     OW92250   8.153  13.767   7.945
96804SOL    HW192251   8.136  13.858   7.968
96804SOL    HW292252   8.184  13.770   7.855
96805SOL     OW92253   5.908   7.351  14.787
96805SOL    HW192254   5.822   7.390  14.802
96805SOL    HW292255   5.959   7.374  14.866
96806SOL     OW92256  11.965   0.742  14.041
96806SOL    HW192257  11.943   0.775  14.128
96806SOL    HW292258  11.960   0.819  13.984
96807SOL     OW92259   7.087   8.089  10.116
96807SOL    HW192260   7.167   8.065  10.163
96807SOL    HW292261   7.118   8.129  10.035
96808SOL     OW92262  12.561  14.176  10.093
96808SOL    HW192263  12.628  14.141  10.152
96808SOL    HW292264  12.499  14.104  10.081
96809SOL     OW92265  13.411   4.756   1.482
96809SOL    HW192266  13.421   4.740   1.576
96809SOL    HW292267  13.324   4.722   1.461
96810SOL     OW92268  11.038   3.602  11.220
96810SOL    HW192269  11.096   3.538  11.178
96810SOL    HW292270  11.092   3.641  11.289
96811SOL     OW92271  13.639   5.998   2.970
96811SOL    HW192272  13.574   5.927   2.972
96811SOL    HW292273  13.616   6.049   2.892
96812SOL     OW92274   2.673   0.891   8.418
96812SOL    HW192275   2.676   0.847   8.504
96812SOL    HW292276   2.586   0.870   8.384
96813SOL     OW92277   0.897   5.850   7.236
96813SOL    HW192278   0.909   5.774   7.293
96813SOL    HW292279   0.977   5.852   7.183
96814SOL     OW92280   9.524   2.481  14.218
96814SOL    HW192281   9.486   2.418  14.280
96814SOL    HW292282   9.554   2.553  14.272
96815SOL     OW92283   5.110   9.166   6.195
96815SOL    HW192284   5.085   9.087   6.147
96815SOL    HW292285   5.172   9.210   6.137
96816SOL     OW92286   4.189   8.614   7.797
96816SOL    HW192287   4.106   8.596   7.841
96816SOL    HW292288   4.171   8.601   7.704
96817SOL     OW92289  12.267   1.697  13.548
96817SOL    HW192290  12.341   1.757  13.555
96817SOL    HW292291  12.239   1.684  13.639
96818SOL     OW92292  12.725  13.359   9.577
96818SOL    HW192293  12.724  13.264   9.564
96818SOL    HW292294  12.810  13.377   9.618
96819SOL     OW92295   3.834  10.837   1.942
96819SOL    HW192296   3.897  10.887   1.890
96819SOL    HW292297   3.826  10.886   2.024
96820SOL     OW92298   3.594  12.310   9.121
96820SOL    HW192299   3.580  12.292   9.027
96820SOL    HW292300   3.664  12.375   9.123
96821SOL     OW92301  14.437   8.845   7.518
96821SOL    HW192302  14.388   8.875   7.595
96821SOL    HW292303  14.465   8.926   7.475
96822SOL     OW92304   2.180   4.966   3.320
96822SOL    HW192305   2.195   4.895   3.382
96822SOL    HW292306   2.155   5.041   3.374
96823SOL     OW92307  13.838   0.307  14.022
96823SOL    HW192308  13.811   0.344  13.938
96823SOL    HW292309  13.927   0.276  14.006
96824SOL     OW92310   3.941   3.554   7.532
96824SOL    HW192311   3.974   3.616   7.597
96824SOL    HW292312   3.912   3.609   7.459
96825SOL     OW92313  13.958  14.047  11.303
96825SOL    HW192314  13.956  14.117  11.237
96825SOL    HW292315  13.866  14.025  11.317
96826SOL     OW92316  13.901   5.044   2.305
96826SOL    HW192317  13.909   5.080   2.393
96826SOL    HW292318  13.818   4.996   2.306
96827SOL     OW92319  12.382   0.912   5.128
96827SOL    HW192320  12.462   0.956   5.157
96827SOL    HW292321  12.397   0.894   5.035
96828SOL     OW92322   8.781   4.228   7.881
96828SOL    HW192323   8.833   4.183   7.816
96828SOL    HW292324   8.727   4.159   7.921
96829SOL     OW92325  10.676   4.086   4.283
96829SOL    HW192326  10.591   4.044   4.293
96829SOL    HW292327  10.739   4.014   4.287
96830SOL     OW92328   0.927   7.485   9.320
96830SOL    HW192329   0.844   7.534   9.318
96830SOL    HW292330   0.900   7.395   9.336
96831SOL     OW92331  12.732  11.346  13.990
96831SOL    HW192332  12.673  11.413  14.025
96831SOL    HW292333  12.748  11.373  13.900
96832SOL     OW92334   1.326   2.929  11.065
96832SOL    HW192335   1.328   2.944  10.971
96832SOL    HW292336   1.292   2.840  11.074
96833SOL     OW92337   7.988   9.135   3.299
96833SOL    HW192338   7.895   9.138   3.276
96833SOL    HW292339   8.023   9.219   3.269
96834SOL     OW92340  10.361   1.808   9.680
96834SOL    HW192341  10.341   1.895   9.715
96834SOL    HW292342  10.379   1.755   9.758
96835SOL     OW92343   2.946  14.443  10.775
96835SOL    HW192344   2.887  14.509  10.811
96835SOL    HW292345   2.891  14.365  10.765
96836SOL     OW92346   0.914   2.385  12.477
96836SOL    HW192347   0.985   2.411  12.536
96836SOL    HW292348   0.836   2.389  12.532
96837SOL     OW92349   2.932   4.718  14.841
96837SOL    HW192350   2.896   4.684   0.050
96837SOL    HW292351   3.012   4.668  14.827
96838SOL     OW92352  10.291   8.605  14.694
96838SOL    HW192353  10.243   8.525  14.673
96838SOL    HW292354  10.291   8.654  14.611
96839SOL     OW92355   5.027   0.911   0.281
96839SOL    HW192356   4.979   0.933   0.360
96839SOL    HW292357   5.052   0.820   0.292
96840SOL     OW92358  11.420   1.737   9.566
96840SOL    HW192359  11.472   1.811   9.535
96840SOL    HW292360  11.350   1.777   9.618
96841SOL     OW92361  11.054   5.980   8.612
96841SOL    HW192362  11.112   6.005   8.540
96841SOL    HW292363  11.053   6.055   8.670
96842SOL     OW92364   8.423   9.763   1.919
96842SOL    HW192365   8.353   9.785   1.858
96842SOL    HW292366   8.385   9.779   2.006
96843SOL     OW92367   9.206   9.152   0.597
96843SOL    HW192368   9.215   9.124   0.688
96843SOL    HW292369   9.161   9.079   0.554
96844SOL     OW92370  10.846  11.824   4.828
96844SOL    HW192371  10.862  11.808   4.921
96844SOL    HW292372  10.911  11.771   4.783
96845SOL     OW92373   5.096   2.709   0.485
96845SOL    HW192374   5.042   2.630   0.490
96845SOL    HW292375   5.138   2.704   0.400
96846SOL     OW92376  10.063   8.076   5.616
96846SOL    HW192377  10.098   7.987   5.613
96846SOL    HW292378  10.021   8.083   5.702
96847SOL     OW92379   1.083  12.872   8.919
96847SOL    HW192380   1.094  12.862   9.014
96847SOL    HW292381   0.990  12.856   8.904
96848SOL     OW92382  14.702   4.206   1.724
96848SOL    HW192383  14.765   4.253   1.779
96848SOL    HW292384  14.689   4.263   1.648
96849SOL     OW92385   5.409   0.757  13.605
96849SOL    HW192386   5.337   0.700  13.577
96849SOL    HW292387   5.420   0.737  13.698
96850SOL     OW92388   6.375  10.045   2.971
96850SOL    HW192389   6.432  10.121   2.973
96850SOL    HW292390   6.407   9.992   2.898
96851SOL     OW92391   9.800  10.014  13.625
96851SOL    HW192392   9.708  10.033  13.644
96851SOL    HW292393   9.811   9.923  13.651
96852SOL     OW92394   5.771  10.311   2.728
96852SOL    HW192395   5.833  10.254   2.683
96852SOL    HW292396   5.823  10.389   2.750
96853SOL     OW92397  13.896   1.769   9.893
96853SOL    HW192398  13.941   1.794   9.973
96853SOL    HW292399  13.891   1.850   9.842
96854SOL     OW92400  14.315  13.040   4.133
96854SOL    HW192401  14.305  13.061   4.040
96854SOL    HW292402  14.408  13.053   4.151
96855SOL     OW92403   1.477   3.481  14.818
96855SOL    HW192404   1.548   3.424  14.849
96855SOL    HW292405   1.469   3.549   0.012
96856SOL     OW92406  10.138  12.894   8.900
96856SOL    HW192407  10.204  12.893   8.831
96856SOL    HW292408  10.188  12.896   8.982
96857SOL     OW92409   0.896  12.098   2.058
96857SOL    HW192410   0.829  12.123   1.994
96857SOL    HW292411   0.851  12.039   2.119
96858SOL     OW92412   0.097   5.396   4.178
96858SOL    HW192413   0.176   5.420   4.225
96858SOL    HW292414   0.116   5.417   4.087
96859SOL     OW92415   3.923   5.909   2.501
96859SOL    HW192416   4.007   5.936   2.465
96859SOL    HW292417   3.930   5.814   2.511
96860SOL     OW92418   9.525   8.528  11.243
96860SOL    HW192419   9.462   8.468  11.203
96860SOL    HW292420   9.551   8.485  11.325
96861SOL     OW92421  13.830   7.323   8.230
96861SOL    HW192422  13.861   7.281   8.150
96861SOL    HW292423  13.804   7.411   8.202
96862SOL     OW92424   7.487   6.929   3.324
96862SOL    HW192425   7.557   6.931   3.389
96862SOL    HW292426   7.456   6.839   3.324
96863SOL     OW92427  12.212   4.087  10.970
96863SOL    HW192428  12.305   4.109  10.969
96863SOL    HW292429  12.202   4.020  10.903
96864SOL     OW92430  14.615  13.339   5.456
96864SOL    HW192431  14.651  13.358   5.543
96864SOL    HW292432  14.621  13.244   5.449
96865SOL     OW92433   7.557   9.905   2.111
96865SOL    HW192434   7.505   9.953   2.047
96865SOL    HW292435   7.516   9.819   2.117
96866SOL     OW92436   5.698   7.947  13.486
96866SOL    HW192437   5.689   7.857  13.517
96866SOL    HW292438   5.683   7.941  13.391
96867SOL     OW92439   4.740  10.571  14.827
96867SOL    HW192440   4.684  10.582  14.750
96867SOL    HW292441   4.695  10.504   0.006
96868SOL     OW92442   1.783  10.743  12.067
96868SOL    HW192443   1.808  10.731  11.975
96868SOL    HW292444   1.715  10.677  12.082
96869SOL     OW92445   0.907   6.803   1.967
96869SOL    HW192446   0.970   6.871   1.941
96869SOL    HW292447   0.896   6.815   2.062
96870SOL     OW92448  10.401   5.879   9.177
96870SOL    HW192449  10.482   5.831   9.194
96870SOL    HW292450  10.337   5.810   9.159
96871SOL     OW92451  12.778   7.135   3.193
96871SOL    HW192452  12.847   7.197   3.169
96871SOL    HW292453  12.780   7.133   3.289
96872SOL     OW92454  12.428   4.279  10.998
96872SOL    HW192455  12.500   4.240  11.047
96872SOL    HW292456  12.436   4.373  11.014
96873SOL     OW92457  13.329   7.381  12.388
96873SOL    HW192458  13.415   7.412  12.418
96873SOL    HW292459  13.269   7.405  12.458
96874SOL     OW92460   2.457  12.772   0.622
96874SOL    HW192461   2.501  12.840   0.672
96874SOL    HW292462   2.448  12.807   0.534
96875SOL     OW92463  13.727   2.961  11.848
96875SOL    HW192464  13.671   3.008  11.787
96875SOL    HW292465  13.816   2.989  11.827
96876SOL     OW92466  11.147   7.548   9.599
96876SOL    HW192467  11.144   7.457   9.570
96876SOL    HW292468  11.149   7.599   9.518
96877SOL     OW92469   7.584   4.630   1.465
96877SOL    HW192470   7.509   4.685   1.443
96877SOL    HW292471   7.618   4.601   1.380
96878SOL     OW92472   3.715  10.540  12.344
96878SOL    HW192473   3.708  10.461  12.397
96878SOL    HW292474   3.636  10.541  12.291
96879SOL     OW92475   9.739   2.834   8.962
96879SOL    HW192476   9.756   2.808   8.872
96879SOL    HW292477   9.681   2.910   8.955
96880SOL     OW92478   5.551   4.759   6.369
96880SOL    HW192479   5.635   4.761   6.415
96880SOL    HW292480   5.530   4.665   6.363
96881SOL     OW92481  14.815   3.519  12.906
96881SOL    HW192482   0.001   3.473  12.966
96881SOL    HW292483  14.745   3.552  12.963
96882SOL     OW92484   4.048   3.049   1.006
96882SOL    HW192485   4.002   2.971   0.975
96882SOL    HW292486   4.055   3.106   0.929
96883SOL     OW92487   3.055   2.753   4.084
96883SOL    HW192488   3.026   2.762   3.993
96883SOL    HW292489   3.031   2.836   4.125
96884SOL     OW92490  10.149  13.704  10.125
96884SOL    HW192491  10.186  13.630  10.077
96884SOL    HW292492  10.103  13.755  10.058
96885SOL     OW92493   5.559  13.582  14.551
96885SOL    HW192494   5.470  13.587  14.586
96885SOL    HW292495   5.566  13.657  14.491
96886SOL     OW92496   3.171   4.356  14.056
96886SOL    HW192497   3.096   4.296  14.058
96886SOL    HW292498   3.190   4.366  13.963
96887SOL     OW92499   0.238  11.075   6.845
96887SOL    HW192500   0.321  11.115   6.874
96887SOL    HW292501   0.193  11.144   6.798
96888SOL     OW92502   7.805   4.213  10.946
96888SOL    HW192503   7.799   4.128  10.990
96888SOL    HW292504   7.868   4.263  10.999
96889SOL     OW92505  11.826   7.989   7.538
96889SOL    HW192506  11.799   8.073   7.501
96889SOL    HW292507  11.856   7.938   7.463
96890SOL     OW92508  10.962   8.533  13.070
96890SOL    HW192509  11.053   8.563  13.073
96890SOL    HW292510  10.927   8.554  13.156
96891SOL     OW92511  11.895  14.289  12.710
96891SOL    HW192512  11.934  14.377  12.707
96891SOL    HW292513  11.936  14.242  12.637
96892SOL     OW92514   6.132  13.108   5.747
96892SOL    HW192515   6.087  13.124   5.830
96892SOL    HW292516   6.223  13.093   5.771
96893SOL     OW92517   2.061  13.667   1.363
96893SOL    HW192518   1.968  13.658   1.382
96893SOL    HW292519   2.089  13.743   1.415
96894SOL     OW92520   2.048   6.761  14.086
96894SOL    HW192521   2.137   6.743  14.056
96894SOL    HW292522   2.034   6.853  14.065
96895SOL     OW92523   1.270   4.646   1.079
96895SOL    HW192524   1.302   4.703   1.149
96895SOL    HW292525   1.301   4.687   0.999
96896SOL     OW92526   1.743   8.745   3.808
96896SOL    HW192527   1.652   8.741   3.780
96896SOL    HW292528   1.777   8.826   3.769
96897SOL     OW92529   9.332  11.455  10.908
96897SOL    HW192530   9.333  11.506  10.989
96897SOL    HW292531   9.325  11.520  10.838
96898SOL     OW92532  13.423  11.831   4.763
96898SOL    HW192533  13.431  11.736   4.771
96898SOL    HW292534  13.478  11.866   4.832
96899SOL     OW92535   4.789  11.692  12.854
96899SOL    HW192536   4.726  11.634  12.811
96899SOL    HW292537   4.756  11.701  12.943
96900SOL     OW92538  11.224  11.725   4.253
96900SOL    HW192539  11.159  11.773   4.202
96900SOL    HW292540  11.178  11.698   4.332
96901SOL     OW92541   7.525   7.822   3.025
96901SOL    HW192542   7.572   7.816   3.109
96901SOL    HW292543   7.433   7.832   3.050
96902SOL     OW92544  10.413  13.326  10.836
96902SOL    HW192545  10.452  13.370  10.911
96902SOL    HW292546  10.472  13.252  10.819
96903SOL     OW92547   6.357   0.803  11.195
96903SOL    HW192548   6.368   0.721  11.245
96903SOL    HW292549   6.266   0.828  11.209
96904SOL     OW92550   8.399  12.246   7.442
96904SOL    HW192551   8.399  12.274   7.350
96904SOL    HW292552   8.472  12.294   7.481
96905SOL     OW92553  11.349   5.688   0.703
96905SOL    HW192554  11.351   5.600   0.667
96905SOL    HW292555  11.347   5.745   0.627
96906SOL     OW92556   1.438   0.314   2.248
96906SOL    HW192557   1.379   0.352   2.183
96906SOL    HW292558   1.526   0.329   2.213
96907SOL     OW92559  10.770   4.553  10.260
96907SOL    HW192560  10.731   4.637  10.235
96907SOL    HW292561  10.857   4.577  10.294
96908SOL     OW92562  14.851   0.466  10.150
96908SOL    HW192563  14.859   0.398  10.218
96908SOL    HW292564   0.064   0.508  10.149
96909SOL     OW92565   3.859   9.381   0.088
96909SOL    HW192566   3.798   9.396   0.016
96909SOL    HW292567   3.906   9.465   0.098
96910SOL     OW92568   0.643   3.173  14.397
96910SOL    HW192569   0.693   3.224  14.460
96910SOL    HW292570   0.575   3.233  14.366
96911SOL     OW92571   3.802   6.955   6.969
96911SOL    HW192572   3.810   6.941   6.875
96911SOL    HW292573   3.710   6.977   6.982
96912SOL     OW92574  10.459   2.356  13.785
96912SOL    HW192575  10.463   2.444  13.747
96912SOL    HW292576  10.514   2.361  13.863
96913SOL     OW92577   1.236  14.538  11.632
96913SOL    HW192578   1.327  14.514  11.619
96913SOL    HW292579   1.215  14.510  11.721
96914SOL     OW92580   9.551   3.024   1.150
96914SOL    HW192581   9.636   2.990   1.177
96914SOL    HW292582   9.489   2.987   1.213
96915SOL     OW92583  11.678  13.999   4.587
96915SOL    HW192584  11.612  13.968   4.525
96915SOL    HW292585  11.710  14.082   4.549
96916SOL     OW92586  13.555   8.450   0.505
96916SOL    HW192587  13.594   8.479   0.588
96916SOL    HW292588  13.552   8.530   0.452
96917SOL     OW92589   4.860   7.512   6.102
96917SOL    HW192590   4.793   7.577   6.081
96917SOL    HW292591   4.812   7.430   6.114
96918SOL     OW92592   5.411   4.620   0.972
96918SOL    HW192593   5.323   4.657   0.967
96918SOL    HW292594   5.417   4.587   1.061
96919SOL     OW92595  13.417  11.960   0.610
96919SOL    HW192596  13.368  12.039   0.586
96919SOL    HW292597  13.355  11.909   0.663
96920SOL     OW92598  13.200   5.204  13.181
96920SOL    HW192599  13.177   5.137  13.244
96920SOL    HW292600  13.290   5.229  13.203
96921SOL     OW92601   0.709   7.486  14.390
96921SOL    HW192602   0.770   7.549  14.429
96921SOL    HW292603   0.764   7.431  14.335
96922SOL     OW92604   4.544  11.105   4.319
96922SOL    HW192605   4.481  11.033   4.317
96922SOL    HW292606   4.616  11.073   4.372
96923SOL     OW92607  11.746   9.833   6.693
96923SOL    HW192608  11.669   9.888   6.678
96923SOL    HW292609  11.788   9.826   6.607
96924SOL     OW92610   9.402  12.985   9.900
96924SOL    HW192611   9.430  13.063   9.948
96924SOL    HW292612   9.432  12.912   9.954
96925SOL     OW92613   5.835   8.639   1.283
96925SOL    HW192614   5.892   8.694   1.229
96925SOL    HW292615   5.892   8.608   1.353
96926SOL     OW92616   8.609  10.260  12.286
96926SOL    HW192617   8.581  10.334  12.341
96926SOL    HW292618   8.656  10.301  12.213
96927SOL     OW92619   6.104   8.293   9.726
96927SOL    HW192620   6.184   8.319   9.682
96927SOL    HW292621   6.133   8.265   9.813
96928SOL     OW92622   8.770   2.385   9.079
96928SOL    HW192623   8.799   2.307   9.032
96928SOL    HW292624   8.846   2.410   9.132
96929SOL     OW92625   1.988   7.075  11.485
96929SOL    HW192626   2.076   7.067  11.523
96929SOL    HW292627   1.946   6.991  11.505
96930SOL     OW92628   5.315   0.055  10.915
96930SOL    HW192629   5.301   0.083  10.824
96930SOL    HW292630   5.308   0.135  10.966
96931SOL     OW92631   1.776  13.546   7.931
96931SOL    HW192632   1.765  13.597   7.850
96931SOL    HW292633   1.815  13.464   7.903
96932SOL     OW92634  14.211   3.094  14.462
96932SOL    HW192635  14.194   3.079  14.369
96932SOL    HW292636  14.192   3.010  14.504
96933SOL     OW92637   7.077  12.976   9.320
96933SOL    HW192638   6.987  12.957   9.345
96933SOL    HW292639   7.072  12.994   9.226
96934SOL     OW92640   8.542  13.774   6.726
96934SOL    HW192641   8.570  13.851   6.775
96934SOL    HW292642   8.512  13.712   6.793
96935SOL     OW92643   8.971   3.555   6.835
96935SOL    HW192644   9.048   3.603   6.804
96935SOL    HW292645   8.947   3.598   6.917
96936SOL     OW92646   2.532   0.109  12.094
96936SOL    HW192647   2.553   0.163  12.170
96936SOL    HW292648   2.469   0.162  12.045
96937SOL     OW92649   4.317   5.000  13.916
96937SOL    HW192650   4.295   5.063  13.984
96937SOL    HW292651   4.326   5.052  13.836
96938SOL     OW92652   3.308   0.544   9.423
96938SOL    HW192653   3.392   0.556   9.469
96938SOL    HW292654   3.307   0.452   9.398
96939SOL     OW92655   6.148   2.534  12.003
96939SOL    HW192656   6.180   2.448  12.030
96939SOL    HW292657   6.214   2.566  11.941
96940SOL     OW92658  12.593  11.284   7.047
96940SOL    HW192659  12.653  11.216   7.080
96940SOL    HW292660  12.638  11.366   7.066
96941SOL     OW92661   5.894  13.886   2.811
96941SOL    HW192662   5.960  13.819   2.793
96941SOL    HW292663   5.945  13.962   2.842
96942SOL     OW92664   7.250  12.156   4.179
96942SOL    HW192665   7.275  12.071   4.143
96942SOL    HW292666   7.160  12.144   4.210
96943SOL     OW92667   7.071   5.845  13.787
96943SOL    HW192668   6.990   5.832  13.738
96943SOL    HW292669   7.049   5.821  13.877
96944SOL     OW92670   6.652   2.823   3.348
96944SOL    HW192671   6.611   2.898   3.393
96944SOL    HW292672   6.658   2.755   3.415
96945SOL     OW92673  13.216   6.397   5.519
96945SOL    HW192674  13.208   6.419   5.612
96945SOL    HW292675  13.141   6.440   5.477
96946SOL     OW92676   6.374   3.429   4.939
96946SOL    HW192677   6.381   3.486   5.016
96946SOL    HW292678   6.296   3.376   4.955
96947SOL     OW92679   4.652   9.114   4.064
96947SOL    HW192680   4.568   9.111   4.019
96947SOL    HW292681   4.662   9.206   4.091
96948SOL     OW92682   4.146   8.399   6.845
96948SOL    HW192683   4.174   8.308   6.837
96948SOL    HW292684   4.176   8.426   6.932
96949SOL     OW92685   1.259   1.661   1.904
96949SOL    HW192686   1.198   1.589   1.914
96949SOL    HW292687   1.243   1.695   1.816
96950SOL     OW92688  10.571   3.885   3.298
96950SOL    HW192689  10.611   3.853   3.217
96950SOL    HW292690  10.606   3.973   3.309
96951SOL     OW92691  11.337  10.017  10.982
96951SOL    HW192692  11.325  10.049  10.893
96951SOL    HW292693  11.332   9.921  10.974
96952SOL     OW92694   9.390   4.919  13.134
96952SOL    HW192695   9.402   4.841  13.188
96952SOL    HW292696   9.295   4.928  13.126
96953SOL     OW92697   2.407   1.180  13.855
96953SOL    HW192698   2.500   1.200  13.853
96953SOL    HW292699   2.402   1.093  13.895
96954SOL     OW92700   1.662   2.904   1.210
96954SOL    HW192701   1.693   2.972   1.150
96954SOL    HW292702   1.725   2.833   1.200
96955SOL     OW92703   0.910   8.422   8.108
96955SOL    HW192704   0.916   8.327   8.101
96955SOL    HW292705   0.998   8.453   8.086
96956SOL     OW92706   5.265   7.113   2.052
96956SOL    HW192707   5.267   7.194   2.103
96956SOL    HW292708   5.324   7.129   1.979
96957SOL     OW92709  10.056   3.634   3.604
96957SOL    HW192710   9.977   3.607   3.557
96957SOL    HW292711  10.078   3.558   3.658
96958SOL     OW92712   0.041   2.762   4.892
96958SOL    HW192713   0.114   2.793   4.839
96958SOL    HW292714   0.072   2.680   4.929
96959SOL     OW92715   3.386   9.702   5.732
96959SOL    HW192716   3.473   9.687   5.697
96959SOL    HW292717   3.398   9.766   5.803
96960SOL     OW92718   7.582  11.228  10.123
96960SOL    HW192719   7.589  11.200  10.215
96960SOL    HW292720   7.488  11.243  10.110
96961SOL     OW92721  14.644  12.720  11.887
96961SOL    HW192722  14.640  12.803  11.933
96961SOL    HW292723  14.572  12.725  11.824
96962SOL     OW92724   4.097   3.346  11.719
96962SOL    HW192725   4.101   3.316  11.628
96962SOL    HW292726   4.128   3.272  11.771
96963SOL     OW92727   0.983   9.945  12.040
96963SOL    HW192728   0.984   9.938  12.135
96963SOL    HW292729   1.067   9.908  12.012
96964SOL     OW92730   1.323  12.802   5.388
96964SOL    HW192731   1.291  12.802   5.479
96964SOL    HW292732   1.290  12.720   5.351
96965SOL     OW92733   5.497   6.918   8.475
96965SOL    HW192734   5.521   6.837   8.520
96965SOL    HW292735   5.456   6.971   8.543
96966SOL     OW92736  13.380   8.267   6.058
96966SOL    HW192737  13.352   8.189   6.107
96966SOL    HW292738  13.412   8.327   6.125
96967SOL     OW92739   7.749   8.289  10.511
96967SOL    HW192740   7.696   8.370  10.508
96967SOL    HW292741   7.830   8.313  10.467
96968SOL     OW92742  13.488  13.767  10.040
96968SOL    HW192743  13.530  13.785  10.124
96968SOL    HW292744  13.469  13.854  10.003
96969SOL     OW92745   0.502   7.784   8.237
96969SOL    HW192746   0.573   7.724   8.217
96969SOL    HW292747   0.426   7.749   8.190
96970SOL     OW92748   3.646   9.929   0.214
96970SOL    HW192749   3.681   9.881   0.139
96970SOL    HW292750   3.572   9.876   0.244
96971SOL     OW92751  12.936   2.662   7.693
96971SOL    HW192752  12.895   2.656   7.606
96971SOL    HW292753  12.981   2.747   7.692
96972SOL     OW92754   7.711   2.826  13.003
96972SOL    HW192755   7.709   2.920  13.019
96972SOL    HW292756   7.690   2.787  13.089
96973SOL     OW92757  10.951   9.018   5.764
96973SOL    HW192758  10.928   8.933   5.802
96973SOL    HW292759  10.887   9.079   5.802
96974SOL     OW92760   6.640   6.696   9.612
96974SOL    HW192761   6.724   6.709   9.656
96974SOL    HW292762   6.583   6.658   9.679
96975SOL     OW92763   9.440   9.469   9.561
96975SOL    HW192764   9.404   9.391   9.605
96975SOL    HW292765   9.521   9.488   9.610
96976SOL     OW92766   6.734   9.223   9.799
96976SOL    HW192767   6.824   9.190   9.801
96976SOL    HW292768   6.709   9.229   9.891
96977SOL     OW92769   9.304   1.543   9.609
96977SOL    HW192770   9.234   1.478   9.608
96977SOL    HW292771   9.335   1.546   9.518
96978SOL     OW92772  10.133   0.374   1.160
96978SOL    HW192773  10.083   0.427   1.221
96978SOL    HW292774  10.157   0.434   1.090
96979SOL     OW92775   7.384   5.943   1.514
96979SOL    HW192776   7.409   5.872   1.454
96979SOL    HW292777   7.292   5.960   1.494
96980SOL     OW92778   9.241   3.419   2.192
96980SOL    HW192779   9.316   3.437   2.249
96980SOL    HW292780   9.272   3.350   2.134
96981SOL     OW92781   2.007   7.657   7.250
96981SOL    HW192782   1.929   7.608   7.275
96981SOL    HW292783   1.993   7.678   7.158
96982SOL     OW92784  13.333   7.533   9.757
96982SOL    HW192785  13.374   7.609   9.716
96982SOL    HW292786  13.405   7.472   9.773
96983SOL     OW92787  12.659   1.309   4.012
96983SOL    HW192788  12.718   1.335   3.941
96983SOL    HW292789  12.572   1.336   3.982
96984SOL     OW92790  10.656   6.482   9.752
96984SOL    HW192791  10.713   6.418   9.708
96984SOL    HW292792  10.568   6.462   9.720
96985SOL     OW92793   3.559   5.400   9.082
96985SOL    HW192794   3.616   5.338   9.036
96985SOL    HW292795   3.471   5.378   9.051
96986SOL     OW92796   1.183  10.914   2.455
96986SOL    HW192797   1.247  10.880   2.392
96986SOL    HW292798   1.196  11.009   2.454
96987SOL     OW92799   5.472   5.795   9.823
96987SOL    HW192800   5.397   5.798   9.764
96987SOL    HW292801   5.445   5.736   9.894
96988SOL     OW92802  12.849   4.737  10.530
96988SOL    HW192803  12.931   4.785  10.533
96988SOL    HW292804  12.872   4.652  10.492
96989SOL     OW92805   7.801   0.495   5.170
96989SOL    HW192806   7.739   0.568   5.162
96989SOL    HW292807   7.785   0.441   5.093
96990SOL     OW92808   7.249  14.403   8.446
96990SOL    HW192809   7.182  14.412   8.377
96990SOL    HW292810   7.331  14.422   8.402
96991SOL     OW92811   8.298  14.083  12.071
96991SOL    HW192812   8.224  14.030  12.100
96991SOL    HW292813   8.371  14.022  12.063
96992SOL     OW92814   8.345   7.991  12.617
96992SOL    HW192815   8.302   7.916  12.576
96992SOL    HW292816   8.422   8.008  12.563
96993SOL     OW92817   4.160  14.690  14.419
96993SOL    HW192818   4.146  14.755  14.488
96993SOL    HW292819   4.250  14.704  14.390
96994SOL     OW92820  14.545   4.633   0.332
96994SOL    HW192821  14.526   4.719   0.293
96994SOL    HW292822  14.499   4.635   0.416
96995SOL     OW92823   7.245  10.613   0.204
96995SOL    HW192824   7.242  10.612   0.299
96995SOL    HW292825   7.288  10.696   0.182
96996SOL     OW92826   0.213  14.377  13.289
96996SOL    HW192827   0.224  14.315  13.362
96996SOL    HW292828   0.294  14.368  13.238
96997SOL     OW92829  13.058   5.117   6.287
96997SOL    HW192830  13.014   5.196   6.253
96997SOL    HW292831  12.991   5.049   6.281
96998SOL     OW92832  12.556   9.869   9.328
96998SOL    HW192833  12.507   9.927   9.269
96998SOL    HW292834  12.642   9.862   9.288
96999SOL     OW92835  13.785   3.885  14.022
96999SOL    HW192836  13.873   3.861  14.048
96999SOL    HW292837  13.763   3.960  14.077
97000SOL     OW92838  14.782   2.465   8.209
97000SOL    HW192839  14.866   2.438   8.248
97000SOL    HW292840  14.807   2.513   8.130
97001SOL     OW92841  12.750   2.693   2.632
97001SOL    HW192842  12.845   2.702   2.637
97001SOL    HW292843  12.735   2.607   2.593
97002SOL     OW92844   6.857  14.237   9.228
97002SOL    HW192845   6.763  14.247   9.241
97002SOL    HW292846   6.887  14.183   9.301
97003SOL     OW92847  14.483   0.623   7.191
97003SOL    HW192848  14.432   0.701   7.214
97003SOL    HW292849  14.460   0.558   7.257
97004SOL     OW92850   2.003   6.463  14.523
97004SOL    HW192851   1.912   6.486  14.539
97004SOL    HW292852   2.039   6.537  14.476
97005SOL     OW92853   9.694   4.465   4.246
97005SOL    HW192854   9.735   4.519   4.313
97005SOL    HW292855   9.607   4.444   4.281
97006SOL     OW92856   6.341   8.921   5.382
97006SOL    HW192857   6.399   8.870   5.437
97006SOL    HW292858   6.258   8.925   5.430
97007SOL     OW92859  12.614  14.779   3.517
97007SOL    HW192860  12.691  14.737   3.554
97007SOL    HW292861  12.596  14.729   3.437
97008SOL     OW92862   3.743   2.790  12.685
97008SOL    HW192863   3.725   2.764  12.595
97008SOL    HW292864   3.656   2.806  12.723
97009SOL     OW92865   7.957  14.425  10.633
97009SOL    HW192866   7.875  14.446  10.677
97009SOL    HW292867   8.025  14.455  10.693
97010SOL     OW92868   5.131  10.922   7.370
97010SOL    HW192869   5.164  10.953   7.285
97010SOL    HW292870   5.036  10.921   7.360
97011SOL     OW92871   0.995  10.997  13.647
97011SOL    HW192872   0.925  11.034  13.700
97011SOL    HW292873   1.049  11.072  13.622
97012SOL     OW92874   1.912  11.922   3.473
97012SOL    HW192875   1.951  11.984   3.411
97012SOL    HW292876   1.963  11.841   3.461
97013SOL     OW92877   8.064   0.851  11.525
97013SOL    HW192878   8.006   0.780  11.497
97013SOL    HW292879   8.111   0.814  11.600
97014SOL     OW92880   8.904   1.351   6.940
97014SOL    HW192881   8.990   1.340   6.980
97014SOL    HW292882   8.887   1.445   6.944
97015SOL     OW92883  10.465   7.359   0.405
97015SOL    HW192884  10.500   7.448   0.403
97015SOL    HW292885  10.430   7.346   0.317
97016SOL     OW92886   9.146  10.654   6.076
97016SOL    HW192887   9.053  10.630   6.071
97016SOL    HW292888   9.189  10.597   6.012
97017SOL     OW92889   3.781   2.009   7.071
97017SOL    HW192890   3.795   1.918   7.046
97017SOL    HW292891   3.835   2.021   7.149
97018SOL     OW92892   9.844   9.622   0.318
97018SOL    HW192893   9.793   9.663   0.248
97018SOL    HW292894   9.920   9.679   0.328
97019SOL     OW92895   3.169   4.409   6.999
97019SOL    HW192896   3.075   4.394   7.002
97019SOL    HW292897   3.182   4.489   7.050
97020SOL     OW92898   3.717   1.088  12.615
97020SOL    HW192899   3.788   1.028  12.597
97020SOL    HW292900   3.757   1.175  12.611
97021SOL     OW92901   2.547  13.155  10.818
97021SOL    HW192902   2.457  13.166  10.788
97021SOL    HW292903   2.556  13.061  10.833
97022SOL     OW92904   2.327   2.861   9.094
97022SOL    HW192905   2.349   2.768   9.098
97022SOL    HW292906   2.412   2.906   9.096
97023SOL     OW92907   4.531  12.308  12.038
97023SOL    HW192908   4.501  12.282  12.125
97023SOL    HW292909   4.617  12.266  12.030
97024SOL     OW92910   7.657   3.209  11.603
97024SOL    HW192911   7.703   3.187  11.522
97024SOL    HW292912   7.573   3.164  11.596
97025SOL     OW92913   5.344  13.694   7.705
97025SOL    HW192914   5.400  13.717   7.632
97025SOL    HW292915   5.330  13.600   7.696
97026SOL     OW92916   3.907   3.636   7.013
97026SOL    HW192917   3.992   3.591   7.012
97026SOL    HW292918   3.914   3.698   7.086
97027SOL     OW92919  10.620  11.326   9.298
97027SOL    HW192920  10.601  11.232   9.302
97027SOL    HW292921  10.632  11.344   9.204
97028SOL     OW92922   5.389  11.198   4.518
97028SOL    HW192923   5.319  11.152   4.566
97028SOL    HW292924   5.366  11.188   4.426
97029SOL     OW92925   5.646  13.028   6.523
97029SOL    HW192926   5.551  13.022   6.535
97029SOL    HW292927   5.675  13.080   6.598
97030SOL     OW92928   8.854   3.755   7.927
97030SOL    HW192929   8.806   3.700   7.989
97030SOL    HW292930   8.852   3.842   7.966
97031SOL     OW92931   1.047   7.226   1.682
97031SOL    HW192932   1.056   7.256   1.591
97031SOL    HW292933   1.103   7.285   1.732
97032SOL     OW92934  11.772   3.266  13.866
97032SOL    HW192935  11.720   3.262  13.786
97032SOL    HW292936  11.708   3.273  13.937
97033SOL     OW92937  11.453   4.998   4.519
97033SOL    HW192938  11.517   4.966   4.456
97033SOL    HW292939  11.502   5.057   4.576
97034SOL     OW92940  13.058   2.624   5.566
97034SOL    HW192941  13.122   2.589   5.627
97034SOL    HW292942  13.038   2.550   5.508
97035SOL     OW92943   2.424   0.803  13.433
97035SOL    HW192944   2.446   0.816  13.340
97035SOL    HW292945   2.498   0.756  13.469
97036SOL     OW92946   1.913   1.544   0.198
97036SOL    HW192947   1.969   1.491   0.255
97036SOL    HW292948   1.829   1.548   0.244
97037SOL     OW92949  11.203   8.016   0.617
97037SOL    HW192950  11.122   8.065   0.633
97037SOL    HW292951  11.177   7.925   0.629
97038SOL     OW92952   5.180  12.702   2.973
97038SOL    HW192953   5.164  12.705   2.879
97038SOL    HW292954   5.220  12.617   2.988
97039SOL     OW92955  12.947   0.141   9.879
97039SOL    HW192956  12.853   0.152   9.896
97039SOL    HW292957  12.984   0.116   9.964
97040SOL     OW92958   3.017   5.189  12.990
97040SOL    HW192959   3.071   5.212  12.914
97040SOL    HW292960   2.963   5.116  12.959
97041SOL     OW92961  12.408  11.629   5.841
97041SOL    HW192962  12.432  11.702   5.898
97041SOL    HW292963  12.316  11.612   5.861
97042SOL     OW92964   0.234  12.472  10.802
97042SOL    HW192965   0.184  12.496  10.724
97042SOL    HW292966   0.170  12.426  10.858
97043SOL     OW92967  11.832   7.764  14.210
97043SOL    HW192968  11.892   7.752  14.284
97043SOL    HW292969  11.829   7.859  14.198
97044SOL     OW92970  10.667  10.633   9.556
97044SOL    HW192971  10.733  10.696   9.527
97044SOL    HW292972  10.668  10.564   9.490
97045SOL     OW92973   9.331   5.934   3.257
97045SOL    HW192974   9.353   5.889   3.175
97045SOL    HW292975   9.348   6.026   3.239
97046SOL     OW92976   6.562   7.967   5.562
97046SOL    HW192977   6.482   7.917   5.546
97046SOL    HW292978   6.588   8.000   5.475
97047SOL     OW92979   9.157   7.288   0.200
97047SOL    HW192980   9.243   7.278   0.160
97047SOL    HW292981   9.158   7.375   0.239
97048SOL     OW92982   7.879   1.608   9.475
97048SOL    HW192983   7.877   1.700   9.502
97048SOL    HW292984   7.841   1.560   9.548
97049SOL     OW92985  12.464   1.701  10.686
97049SOL    HW192986  12.465   1.686  10.591
97049SOL    HW292987  12.555   1.719  10.708
97050SOL     OW92988   4.654  10.849  12.412
97050SOL    HW192989   4.576  10.887  12.453
97050SOL    HW292990   4.713  10.923  12.398
97051SOL     OW92991   7.130  14.088  10.491
97051SOL    HW192992   7.082  14.020  10.443
97051SOL    HW292993   7.115  14.168  10.441
97052SOL     OW92994   9.032   5.250   9.444
97052SOL    HW192995   9.060   5.338   9.419
97052SOL    HW292996   9.096   5.191   9.403
97053SOL     OW92997   4.524   8.568   5.085
97053SOL    HW192998   4.582   8.642   5.102
97053SOL    HW292999   4.488   8.585   4.998
97054SOL     OW93000  14.709  10.179   8.405
97054SOL    HW193001  14.664  10.101   8.440
97054SOL    HW293002  14.770  10.144   8.340
97055SOL     OW93003  14.721  11.969  11.104
97055SOL    HW193004  14.664  11.958  11.027
97055SOL    HW293005  14.706  12.059  11.132
97056SOL     OW93006   2.158  10.487   2.086
97056SOL    HW193007   2.252  10.490   2.105
97056SOL    HW293008   2.152  10.499   1.991
97057SOL     OW93009   6.759   8.853   0.532
97057SOL    HW193010   6.813   8.825   0.606
97057SOL    HW293011   6.705   8.924   0.566
97058SOL     OW93012   9.902  12.518  12.184
97058SOL    HW193013   9.909  12.445  12.246
97058SOL    HW293014   9.972  12.501  12.120
97059SOL     OW93015  10.380   3.076  11.377
97059SOL    HW193016  10.389   2.982  11.370
97059SOL    HW293017  10.422   3.099  11.460
97060SOL     OW93018   8.465   1.232   3.054
97060SOL    HW193019   8.518   1.266   2.982
97060SOL    HW293020   8.461   1.138   3.038
97061SOL     OW93021   5.742  10.177  12.376
97061SOL    HW193022   5.701  10.094  12.397
97061SOL    HW293023   5.836  10.161  12.387
97062SOL     OW93024  13.857  10.160   1.208
97062SOL    HW193025  13.942  10.148   1.252
97062SOL    HW293026  13.836  10.252   1.221
97063SOL     OW93027   1.051  11.614   5.481
97063SOL    HW193028   1.092  11.613   5.394
97063SOL    HW293029   1.043  11.521   5.504
97064SOL     OW93030   0.859   3.931   1.740
97064SOL    HW193031   0.869   4.010   1.794
97064SOL    HW293032   0.830   3.864   1.801
97065SOL     OW93033  12.942   3.378  14.786
97065SOL    HW193034  12.927   3.464  14.746
97065SOL    HW293035  12.868   3.366  14.845
97066SOL     OW93036   8.335   3.652   8.783
97066SOL    HW193037   8.297   3.648   8.695
97066SOL    HW293038   8.290   3.582   8.831
97067SOL     OW93039  13.079   1.293  12.958
97067SOL    HW193040  13.101   1.281  13.050
97067SOL    HW293041  12.994   1.250  12.947
97068SOL     OW93042   9.447   5.782   3.063
97068SOL    HW193043   9.397   5.701   3.055
97068SOL    HW293044   9.493   5.790   2.980
97069SOL     OW93045   3.713   8.022  12.498
97069SOL    HW193046   3.667   8.023  12.582
97069SOL    HW293047   3.794   8.071  12.514
97070SOL     OW93048  13.057   1.792  10.457
97070SOL    HW193049  12.970   1.832  10.466
97070SOL    HW293050  13.094   1.833  10.378
97071SOL     OW93051   9.417   1.030   3.296
97071SOL    HW193052   9.399   0.954   3.351
97071SOL    HW293053   9.442   0.993   3.211
97072SOL     OW93054   8.776  11.473   7.002
97072SOL    HW193055   8.693  11.451   7.045
97072SOL    HW293056   8.844  11.440   7.062
97073SOL     OW93057   6.961   7.953   9.841
97073SOL    HW193058   6.961   8.047   9.862
97073SOL    HW293059   7.054   7.931   9.829
97074SOL     OW93060   9.130   9.814   4.457
97074SOL    HW193061   9.193   9.869   4.411
97074SOL    HW293062   9.048   9.862   4.452
97075SOL     OW93063   5.354  12.150   1.475
97075SOL    HW193064   5.403  12.070   1.498
97075SOL    HW293065   5.278  12.117   1.428
97076SOL     OW93066  12.996  13.760   1.318
97076SOL    HW193067  13.045  13.713   1.250
97076SOL    HW293068  12.934  13.814   1.270
97077SOL     OW93069  10.693   0.510   2.214
97077SOL    HW193070  10.766   0.510   2.276
97077SOL    HW293071  10.704   0.590   2.163
97078SOL     OW93072  10.211   9.249   2.415
97078SOL    HW193073  10.265   9.284   2.486
97078SOL    HW293074  10.208   9.320   2.351
97079SOL     OW93075   2.911  14.388  12.822
97079SOL    HW193076   2.848  14.325  12.788
97079SOL    HW293077   2.857  14.455  12.864
97080SOL     OW93078   4.419   1.107   8.007
97080SOL    HW193079   4.366   1.033   7.977
97080SOL    HW293080   4.423   1.166   7.932
97081SOL     OW93081   6.300   0.596   9.464
97081SOL    HW193082   6.253   0.567   9.542
97081SOL    HW293083   6.393   0.580   9.484
97082SOL     OW93084  13.991  11.937  13.746
97082SOL    HW193085  13.968  11.918  13.656
97082SOL    HW293086  13.969  12.030  13.757
97083SOL     OW93087   5.236   1.107  10.545
97083SOL    HW193088   5.311   1.119  10.487
97083SOL    HW293089   5.161   1.100  10.486
97084SOL     OW93090   5.973   5.671   8.439
97084SOL    HW193091   5.942   5.705   8.355
97084SOL    HW293092   5.917   5.595   8.456
97085SOL     OW93093  13.645   9.624  10.728
97085SOL    HW193094  13.583   9.690  10.696
97085SOL    HW293095  13.704   9.673  10.785
97086SOL     OW93096  10.312   1.579  10.100
97086SOL    HW193097  10.238   1.640  10.098
97086SOL    HW293098  10.282   1.508  10.158
97087SOL     OW93099  12.850   4.515   4.990
97087SOL    HW193100  12.943   4.532   4.976
97087SOL    HW293101  12.841   4.421   4.980
97088SOL     OW93102   4.705   8.598   8.239
97088SOL    HW193103   4.676   8.528   8.181
97088SOL    HW293104   4.704   8.559   8.326
97089SOL     OW93105  10.242   0.556   0.963
97089SOL    HW193106  10.227   0.649   0.944
97089SOL    HW293107  10.337   0.549   0.972
97090SOL     OW93108   6.491  10.472   1.022
97090SOL    HW193109   6.509  10.379   1.004
97090SOL    HW293110   6.405  10.471   1.064
97091SOL     OW93111  12.639  10.593   6.640
97091SOL    HW193112  12.689  10.511   6.633
97091SOL    HW293113  12.690  10.646   6.701
97092SOL     OW93114   0.561   0.673  13.263
97092SOL    HW193115   0.467   0.658  13.257
97092SOL    HW293116   0.574   0.760  13.225
97093SOL     OW93117   7.721  13.155   2.054
97093SOL    HW193118   7.670  13.075   2.040
97093SOL    HW293119   7.726  13.196   1.968
97094SOL     OW93120  12.991   5.443  12.690
97094SOL    HW193121  12.959   5.453  12.780
97094SOL    HW293122  13.034   5.526  12.670
97095SOL     OW93123   3.133   5.884   8.803
97095SOL    HW193124   3.153   5.818   8.869
97095SOL    HW293125   3.040   5.873   8.784
97096SOL     OW93126  14.527  13.804  14.387
97096SOL    HW193127  14.564  13.793  14.474
97096SOL    HW293128  14.474  13.725  14.374
97097SOL     OW93129  12.588   7.335   3.117
97097SOL    HW193130  12.536   7.267   3.074
97097SOL    HW293131  12.660   7.288   3.159
97098SOL     OW93132  12.401  10.914   4.104
97098SOL    HW193133  12.404  10.822   4.075
97098SOL    HW293134  12.353  10.959   4.034
97099SOL     OW93135   0.062  12.738   6.153
97099SOL    HW193136  14.864  12.788   6.193
97099SOL    HW293137   0.111  12.802   6.102
97100SOL     OW93138  12.475  11.010  13.602
97100SOL    HW193139  12.555  10.998  13.654
97100SOL    HW293140  12.484  11.097  13.564
97101SOL     OW93141  12.247  10.405   1.944
97101SOL    HW193142  12.154  10.418   1.964
97101SOL    HW293143  12.270  10.324   1.989
97102SOL     OW93144   7.795   2.480   1.651
97102SOL    HW193145   7.773   2.508   1.739
97102SOL    HW293146   7.775   2.555   1.595
97103SOL     OW93147   3.303   9.358   5.140
97103SOL    HW193148   3.384   9.366   5.191
97103SOL    HW293149   3.243   9.312   5.199
97104SOL     OW93150  11.910   6.286   6.145
97104SOL    HW193151  11.827   6.330   6.164
97104SOL    HW293152  11.970   6.316   6.214
97105SOL     OW93153   2.629   8.666   2.719
97105SOL    HW193154   2.674   8.727   2.777
97105SOL    HW293155   2.568   8.720   2.669
97106SOL     OW93156  13.622   8.666   2.951
97106SOL    HW193157  13.667   8.736   2.903
97106SOL    HW293158  13.535   8.701   2.967
97107SOL     OW93159  14.583   4.200   6.199
97107SOL    HW193160  14.540   4.221   6.281
97107SOL    HW293161  14.676   4.220   6.215
97108SOL     OW93162   6.148   6.023  14.429
97108SOL    HW193163   6.226   5.987  14.387
97108SOL    HW293164   6.161   6.118  14.427
97109SOL     OW93165  10.960  11.551  12.545
97109SOL    HW193166  11.005  11.536  12.628
97109SOL    HW293167  10.927  11.465  12.519
97110SOL     OW93168   2.668  12.105   1.069
97110SOL    HW193169   2.580  12.080   1.042
97110SOL    HW293170   2.723  12.031   1.043
97111SOL     OW93171   7.614  11.515   0.235
97111SOL    HW193172   7.575  11.432   0.210
97111SOL    HW293173   7.706  11.508   0.210
97112SOL     OW93174  12.342  12.575   4.964
97112SOL    HW193175  12.403  12.599   4.894
97112SOL    HW293176  12.385  12.603   5.044
97113SOL     OW93177   2.777   9.889   6.620
97113SOL    HW193178   2.796   9.983   6.618
97113SOL    HW293179   2.685   9.883   6.644
97114SOL     OW93180   4.009   3.708  13.290
97114SOL    HW193181   4.058   3.716  13.372
97114SOL    HW293182   4.034   3.623  13.255
97115SOL     OW93183   2.153  11.322   7.950
97115SOL    HW193184   2.062  11.310   7.977
97115SOL    HW293185   2.148  11.376   7.871
97116SOL     OW93186   9.230  12.259   7.019
97116SOL    HW193187   9.273  12.235   7.101
97116SOL    HW293188   9.256  12.190   6.957
97117SOL     OW93189   1.303   5.623   2.474
97117SOL    HW193190   1.274   5.709   2.442
97117SOL    HW293191   1.284   5.625   2.568
97118SOL     OW93192   3.426  11.268   9.823
97118SOL    HW193193   3.359  11.333   9.842
97118SOL    HW293194   3.500  11.292   9.880
97119SOL     OW93195   7.371   5.887  10.788
97119SOL    HW193196   7.302   5.938  10.745
97119SOL    HW293197   7.376   5.806  10.736
97120SOL     OW93198  12.185  11.966   9.410
97120SOL    HW193199  12.099  12.008   9.397
97120SOL    HW293200  12.245  12.020   9.358
97121SOL     OW93201   8.768   4.277   3.006
97121SOL    HW193202   8.779   4.187   3.039
97121SOL    HW293203   8.768   4.268   2.911
97122SOL     OW93204   2.649   4.999  11.879
97122SOL    HW193205   2.590   4.968  11.811
97122SOL    HW293206   2.734   4.961  11.856
97123SOL     OW93207   4.278   3.966   7.998
97123SOL    HW193208   4.293   4.057   7.972
97123SOL    HW293209   4.345   3.917   7.950
97124SOL     OW93210   9.210   4.747   8.331
97124SOL    HW193211   9.128   4.757   8.284
97124SOL    HW293212   9.275   4.728   8.262
97125SOL     OW93213   7.030  11.620   3.454
97125SOL    HW193214   7.050  11.711   3.431
97125SOL    HW293215   6.963  11.593   3.392
97126SOL     OW93216  13.232   0.625   3.363
97126SOL    HW193217  13.320   0.595   3.340
97126SOL    HW293218  13.226   0.611   3.457
97127SOL     OW93219   4.531  11.124   1.389
97127SOL    HW193220   4.499  11.123   1.298
97127SOL    HW293221   4.578  11.042   1.399
97128SOL     OW93222  10.319  11.577   2.451
97128SOL    HW193223  10.293  11.665   2.424
97128SOL    HW293224  10.354  11.537   2.372
97129SOL     OW93225   9.507   3.409   9.183
97129SOL    HW193226   9.442   3.464   9.229
97129SOL    HW293227   9.582   3.408   9.242
97130SOL     OW93228  12.022   8.478   5.670
97130SOL    HW193229  12.017   8.406   5.607
97130SOL    HW293230  11.947   8.466   5.727
97131SOL     OW93231  13.030   5.634  10.616
97131SOL    HW193232  13.116   5.592  10.617
97131SOL    HW293233  13.024   5.673  10.529
97132SOL     OW93234   7.215   7.705   0.343
97132SOL    HW193235   7.158   7.747   0.279
97132SOL    HW293236   7.227   7.770   0.411
97133SOL     OW93237   9.005   5.748  12.040
97133SOL    HW193238   9.058   5.739  11.961
97133SOL    HW293239   9.068   5.744  12.112
97134SOL     OW93240   2.476   6.983   6.664
97134SOL    HW193241   2.542   7.052   6.659
97134SOL    HW293242   2.413   7.015   6.729
97135SOL     OW93243  11.799   8.181   6.089
97135SOL    HW193244  11.744   8.136   6.153
97135SOL    HW293245  11.787   8.133   6.008
97136SOL     OW93246  12.023  13.667  14.139
97136SOL    HW193247  11.975  13.746  14.114
97136SOL    HW293248  12.112  13.682  14.108
97137SOL     OW93249   3.088   1.130  13.102
97137SOL    HW193250   3.066   1.040  13.079
97137SOL    HW293251   3.162   1.152  13.047
97138SOL     OW93252   6.170   8.057  14.392
97138SOL    HW193253   6.122   7.998  14.334
97138SOL    HW293254   6.260   8.054  14.361
97139SOL     OW93255  14.835   7.181   2.838
97139SOL    HW193256  14.786   7.264   2.839
97139SOL    HW293257  14.799   7.130   2.910
97140SOL     OW93258   8.185  13.844  12.119
97140SOL    HW193259   8.267  13.796  12.133
97140SOL    HW293260   8.121  13.798  12.173
97141SOL     OW93261  14.340  11.078  11.090
97141SOL    HW193262  14.362  11.081  11.183
97141SOL    HW293263  14.245  11.079  11.087
97142SOL     OW93264   2.991   5.019  10.349
97142SOL    HW193265   2.920   5.003  10.286
97142SOL    HW293266   3.050   4.945  10.337
97143SOL     OW93267   0.457   1.373  14.512
97143SOL    HW193268   0.481   1.283  14.533
97143SOL    HW293269   0.379   1.366  14.457
97144SOL     OW93270  11.891  10.992   5.795
97144SOL    HW193271  11.860  10.985   5.885
97144SOL    HW293272  11.974  11.040   5.802
97145SOL     OW93273   1.692   3.131  13.288
97145SOL    HW193274   1.611   3.158  13.245
97145SOL    HW293275   1.732   3.069  13.228
97146SOL     OW93276   0.388   0.677  11.929
97146SOL    HW193277   0.346   0.635  11.854
97146SOL    HW293278   0.426   0.757  11.893
97147SOL     OW93279  13.441   8.080   1.472
97147SOL    HW193280  13.501   8.032   1.531
97147SOL    HW293281  13.364   8.097   1.526
97148SOL     OW93282   4.906   1.795   9.165
97148SOL    HW193283   4.901   1.731   9.095
97148SOL    HW293284   4.908   1.880   9.120
97149SOL     OW93285   5.852   6.314   6.229
97149SOL    HW193286   5.901   6.393   6.206
97149SOL    HW293287   5.839   6.320   6.324
97150SOL     OW93288   6.836   7.303   2.833
97150SOL    HW193289   6.907   7.366   2.847
97150SOL    HW293290   6.843   7.243   2.908
97151SOL     OW93291   1.433   7.661   3.065
97151SOL    HW193292   1.493   7.639   2.994
97151SOL    HW293293   1.445   7.756   3.077
97152SOL     OW93294   4.877   1.885   0.800
97152SOL    HW193295   4.789   1.922   0.788
97152SOL    HW293296   4.868   1.793   0.775
97153SOL     OW93297   6.281  12.017  13.654
97153SOL    HW193298   6.348  11.975  13.600
97153SOL    HW293299   6.232  12.071  13.592
97154SOL     OW93300   8.981  14.738   8.048
97154SOL    HW193301   8.911  14.752   8.112
97154SOL    HW293302   9.035  14.669   8.087
97155SOL     OW93303  14.419   1.345  13.956
97155SOL    HW193304  14.456   1.421  14.001
97155SOL    HW293305  14.368   1.383  13.885
97156SOL     OW93306   0.229  14.488   9.231
97156SOL    HW193307   0.234  14.392   9.229
97156SOL    HW293308   0.319  14.517   9.245
97157SOL     OW93309  10.125  10.072  14.573
97157SOL    HW193310  10.220  10.067  14.583
97157SOL    HW293311  10.100  10.155  14.614
97158SOL     OW93312   4.940  10.222  12.913
97158SOL    HW193313   4.927  10.128  12.902
97158SOL    HW293314   5.035  10.234  12.913
97159SOL     OW93315   1.488   9.440   9.226
97159SOL    HW193316   1.451   9.446   9.314
97159SOL    HW293317   1.470   9.350   9.199
97160SOL     OW93318   8.176   3.704   0.792
97160SOL    HW193319   8.185   3.730   0.700
97160SOL    HW293320   8.213   3.616   0.795
97161SOL     OW93321   1.158   4.139   4.089
97161SOL    HW193322   1.083   4.195   4.069
97161SOL    HW293323   1.155   4.129   4.185
97162SOL     OW93324  10.863   8.360   9.540
97162SOL    HW193325  10.802   8.344   9.468
97162SOL    HW293326  10.939   8.401   9.498
97163SOL     OW93327  13.361   0.503  10.508
97163SOL    HW193328  13.371   0.464  10.595
97163SOL    HW293329  13.285   0.457  10.471
97164SOL     OW93330   0.480  10.371  11.068
97164SOL    HW193331   0.388  10.396  11.065
97164SOL    HW293332   0.528  10.453  11.071
97165SOL     OW93333   5.384   2.600   4.571
97165SOL    HW193334   5.382   2.609   4.476
97165SOL    HW293335   5.378   2.690   4.603
97166SOL     OW93336   6.870  11.241   6.916
97166SOL    HW193337   6.880  11.304   6.986
97166SOL    HW293338   6.932  11.172   6.936
97167SOL     OW93339   0.626   5.983   4.908
97167SOL    HW193340   0.623   5.893   4.875
97167SOL    HW293341   0.597   5.975   4.999
97168SOL     OW93342   1.794   4.103   9.850
97168SOL    HW193343   1.751   4.020   9.869
97168SOL    HW293344   1.729   4.153   9.801
97169SOL     OW93345   1.700   6.879   6.969
97169SOL    HW193346   1.788   6.898   6.936
97169SOL    HW293347   1.661   6.823   6.903
97170SOL     OW93348  13.861  13.008  13.242
97170SOL    HW193349  13.871  12.948  13.316
97170SOL    HW293350  13.771  13.041  13.251
97171SOL     OW93351   5.153   5.122   0.401
97171SOL    HW193352   5.146   5.056   0.333
97171SOL    HW293353   5.153   5.072   0.483
97172SOL     OW93354   1.446   5.531  12.252
97172SOL    HW193355   1.356   5.500  12.247
97172SOL    HW293356   1.452   5.574  12.338
97173SOL     OW93357   0.752   4.537   1.926
97173SOL    HW193358   0.721   4.449   1.907
97173SOL    HW293359   0.785   4.533   2.016
97174SOL     OW93360   7.873   0.337   6.171
97174SOL    HW193361   7.831   0.252   6.183
97174SOL    HW293362   7.865   0.355   6.077
97175SOL     OW93363  12.107   8.321  10.737
97175SOL    HW193364  12.091   8.231  10.767
97175SOL    HW293365  12.108   8.314  10.642
97176SOL     OW93366   2.666   1.159  10.062
97176SOL    HW193367   2.664   1.065  10.082
97176SOL    HW293368   2.759   1.180  10.057
97177SOL     OW93369  14.828   7.697   7.088
97177SOL    HW193370   0.040   7.667   7.119
97177SOL    HW293371  14.804   7.769   7.147
97178SOL     OW93372  12.211   6.588  11.201
97178SOL    HW193373  12.213   6.631  11.286
97178SOL    HW293374  12.156   6.511  11.214
97179SOL     OW93375  11.484   3.761   7.923
97179SOL    HW193376  11.495   3.721   8.009
97179SOL    HW293377  11.568   3.804   7.905
97180SOL     OW93378   1.650  10.230   6.890
97180SOL    HW193379   1.568  10.279   6.881
97180SOL    HW293380   1.624  10.144   6.922
97181SOL     OW93381  12.358   1.318   1.322
97181SOL    HW193382  12.303   1.264   1.266
97181SOL    HW293383  12.297   1.379   1.364
97182SOL     OW93384  13.840   8.344   1.833
97182SOL    HW193385  13.819   8.324   1.924
97182SOL    HW293386  13.904   8.278   1.808
97183SOL     OW93387   2.654   6.062   8.252
97183SOL    HW193388   2.695   6.131   8.200
97183SOL    HW293389   2.712   5.986   8.241
97184SOL     OW93390   1.435  13.363   7.050
97184SOL    HW193391   1.352  13.386   7.091
97184SOL    HW293392   1.428  13.269   7.032
97185SOL     OW93393   7.435  13.394   3.351
97185SOL    HW193394   7.358  13.437   3.313
97185SOL    HW293395   7.460  13.328   3.287
97186SOL     OW93396  12.279   1.031   8.829
97186SOL    HW193397  12.348   1.077   8.876
97186SOL    HW293398  12.249   1.093   8.763
97187SOL     OW93399   0.274   5.375  10.124
97187SOL    HW193400   0.256   5.411  10.211
97187SOL    HW293401   0.219   5.426  10.065
97188SOL     OW93402  14.479   2.856  14.829
97188SOL    HW193403  14.542   2.927  14.842
97188SOL    HW293404  14.450   2.832   0.044
97189SOL     OW93405  12.454  12.745   3.303
97189SOL    HW193406  12.450  12.667   3.248
97189SOL    HW293407  12.498  12.715   3.383
97190SOL     OW93408   4.627  12.320   4.618
97190SOL    HW193409   4.694  12.336   4.685
97190SOL    HW293410   4.546  12.306   4.668
97191SOL     OW93411   4.590   1.141   7.347
97191SOL    HW193412   4.530   1.086   7.296
97191SOL    HW293413   4.533   1.199   7.397
97192SOL     OW93414   8.219   4.107   1.818
97192SOL    HW193415   8.147   4.099   1.754
97192SOL    HW293416   8.297   4.084   1.769
97193SOL     OW93417   7.292   4.452   0.503
97193SOL    HW193418   7.312   4.451   0.597
97193SOL    HW293419   7.373   4.425   0.461
97194SOL     OW93420   2.145   7.911   8.284
97194SOL    HW193421   2.138   8.007   8.290
97194SOL    HW293422   2.141   7.881   8.375
97195SOL     OW93423   6.168  12.187  10.292
97195SOL    HW193424   6.121  12.268  10.272
97195SOL    HW293425   6.118  12.147  10.363
97196SOL     OW93426  11.206  12.142   6.112
97196SOL    HW193427  11.179  12.228   6.143
97196SOL    HW293428  11.187  12.083   6.185
97197SOL     OW93429  12.772   5.601   1.027
97197SOL    HW193430  12.764   5.600   0.932
97197SOL    HW293431  12.798   5.691   1.048
97198SOL     OW93432  11.977  14.574  12.691
97198SOL    HW193433  11.914  14.644  12.707
97198SOL    HW293434  11.965  14.553  12.598
97199SOL     OW93435  11.576   2.882   3.490
97199SOL    HW193436  11.662   2.909   3.458
97199SOL    HW293437  11.527   2.859   3.411
97200SOL     OW93438  10.217   4.396   4.939
97200SOL    HW193439  10.304   4.405   4.900
97200SOL    HW293440  10.222   4.448   5.019
97201SOL     OW93441   9.158  14.031  13.757
97201SOL    HW193442   9.194  13.980  13.829
97201SOL    HW293443   9.185  14.121  13.775
97202SOL     OW93444  11.154   1.385   1.226
97202SOL    HW193445  11.184   1.299   1.255
97202SOL    HW293446  11.210   1.447   1.272
97203SOL     OW93447   6.916   9.236  11.984
97203SOL    HW193448   6.999   9.247  11.939
97203SOL    HW293449   6.879   9.324  11.990
97204SOL     OW93450   8.474  12.274   8.966
97204SOL    HW193451   8.506  12.233   8.886
97204SOL    HW293452   8.542  12.337   8.990
97205SOL     OW93453   6.464   6.681   8.650
97205SOL    HW193454   6.377   6.694   8.612
97205SOL    HW293455   6.448   6.646   8.737
97206SOL     OW93456  13.058   1.184  12.161
97206SOL    HW193457  13.072   1.232  12.080
97206SOL    HW293458  13.043   1.093  12.132
97207SOL     OW93459   8.577   4.713  13.492
97207SOL    HW193460   8.524   4.754  13.425
97207SOL    HW293461   8.653   4.677  13.445
97208SOL     OW93462   8.645   3.396  11.926
97208SOL    HW193463   8.641   3.394  12.022
97208SOL    HW293464   8.677   3.310  11.901
97209SOL     OW93465   7.295   3.667   0.326
97209SOL    HW193466   7.208   3.688   0.291
97209SOL    HW293467   7.277   3.627   0.411
97210SOL     OW93468   0.794   8.725   9.620
97210SOL    HW193469   0.808   8.678   9.702
97210SOL    HW293470   0.739   8.667   9.567
97211SOL     OW93471  14.535   2.620   9.738
97211SOL    HW193472  14.594   2.632   9.665
97211SOL    HW293473  14.582   2.655   9.814
97212SOL     OW93474   5.158   3.994   9.582
97212SOL    HW193475   5.138   4.026   9.670
97212SOL    HW293476   5.080   4.014   9.531
97213SOL     OW93477  12.557  14.420   4.832
97213SOL    HW193478  12.575  14.375   4.914
97213SOL    HW293479  12.629  14.392   4.774
97214SOL     OW93480   7.380  12.972   1.875
97214SOL    HW193481   7.467  12.943   1.902
97214SOL    HW293482   7.380  12.965   1.779
97215SOL     OW93483   3.812   2.000  10.096
97215SOL    HW193484   3.880   1.935  10.079
97215SOL    HW293485   3.764   2.005  10.013
97216SOL     OW93486   4.357   3.417   7.452
97216SOL    HW193487   4.270   3.437   7.486
97216SOL    HW293488   4.402   3.372   7.524
97217SOL     OW93489   7.901   0.187   0.813
97217SOL    HW193490   7.881   0.212   0.903
97217SOL    HW293491   7.910   0.092   0.815
97218SOL     OW93492  13.493   4.577  12.769
97218SOL    HW193493  13.424   4.510  12.774
97218SOL    HW293494  13.466   4.634  12.697
97219SOL     OW93495   7.090   1.025   3.182
97219SOL    HW193496   7.022   0.961   3.163
97219SOL    HW293497   7.149   1.021   3.107
97220SOL     OW93498   4.435   9.996  11.595
97220SOL    HW193499   4.470  10.080  11.626
97220SOL    HW293500   4.387  10.018  11.515
97221SOL     OW93501   1.889  10.558  14.550
97221SOL    HW193502   1.912  10.486  14.608
97221SOL    HW293503   1.931  10.535  14.466
97222SOL     OW93504   2.016   7.272   0.996
97222SOL    HW193505   2.025   7.226   1.079
97222SOL    HW293506   2.088   7.240   0.942
97223SOL     OW93507   6.565   4.598   2.891
97223SOL    HW193508   6.503   4.646   2.947
97223SOL    HW293509   6.650   4.618   2.929
97224SOL     OW93510   7.473   8.853   3.415
97224SOL    HW193511   7.435   8.834   3.501
97224SOL    HW293512   7.459   8.772   3.365
97225SOL     OW93513  11.338   7.585  14.106
97225SOL    HW193514  11.434   7.578  14.112
97225SOL    HW293515  11.313   7.629  14.187
97226SOL     OW93516   7.924   3.392   3.215
97226SOL    HW193517   7.999   3.444   3.245
97226SOL    HW293518   7.848   3.438   3.251
97227SOL     OW93519  12.534   0.913   6.049
97227SOL    HW193520  12.626   0.899   6.070
97227SOL    HW293521  12.487   0.890   6.130
97228SOL     OW93522   7.831   1.024   3.745
97228SOL    HW193523   7.761   1.080   3.712
97228SOL    HW293524   7.833   1.041   3.839
97229SOL     OW93525   0.714  12.346  11.944
97229SOL    HW193526   0.623  12.344  11.973
97229SOL    HW293527   0.719  12.424  11.888
97230SOL     OW93528   2.511   7.235  13.156
97230SOL    HW193529   2.420   7.263  13.148
97230SOL    HW293530   2.527   7.234  13.251
97231SOL     OW93531  13.251  12.679   9.921
97231SOL    HW193532  13.223  12.771   9.921
97231SOL    HW293533  13.294  12.667  10.006
97232SOL     OW93534   8.982  10.122  14.574
97232SOL    HW193535   9.023  10.138  14.659
97232SOL    HW293536   8.995  10.029  14.558
97233SOL     OW93537   7.432   6.942   4.518
97233SOL    HW193538   7.504   6.879   4.514
97233SOL    HW293539   7.363   6.897   4.567
97234SOL     OW93540   2.426  10.958   8.882
97234SOL    HW193541   2.451  10.945   8.973
97234SOL    HW293542   2.495  11.014   8.846
97235SOL     OW93543   3.778   5.229   9.889
97235SOL    HW193544   3.803   5.220   9.981
97235SOL    HW293545   3.722   5.307   9.888
97236SOL     OW93546   9.140   9.361   8.995
97236SOL    HW193547   9.160   9.287   9.052
97236SOL    HW293548   9.074   9.411   9.044
97237SOL     OW93549  11.510   6.969   7.801
97237SOL    HW193550  11.521   6.919   7.720
97237SOL    HW293551  11.421   6.949   7.830
97238SOL     OW93552   8.208   4.809   6.263
97238SOL    HW193553   8.192   4.879   6.326
97238SOL    HW293554   8.204   4.729   6.316
97239SOL     OW93555   7.009  14.094   4.102
97239SOL    HW193556   6.931  14.111   4.048
97239SOL    HW293557   7.082  14.123   4.047
97240SOL     OW93558   6.556   9.871   2.374
97240SOL    HW193559   6.570   9.830   2.459
97240SOL    HW293560   6.629   9.840   2.320
97241SOL     OW93561   0.335   4.441   7.663
97241SOL    HW193562   0.407   4.382   7.685
97241SOL    HW293563   0.349   4.461   7.570
97242SOL     OW93564   5.291  12.455  11.705
97242SOL    HW193565   5.353  12.468  11.777
97242SOL    HW293566   5.289  12.540  11.660
97243SOL     OW93567   7.384   8.310   7.806
97243SOL    HW193568   7.305   8.362   7.824
97243SOL    HW293569   7.357   8.220   7.824
97244SOL     OW93570  12.848   6.001   9.583
97244SOL    HW193571  12.940   5.986   9.561
97244SOL    HW293572  12.831   6.091   9.556
97245SOL     OW93573  14.090   9.545   9.385
97245SOL    HW193574  14.150   9.567   9.314
97245SOL    HW293575  14.018   9.608   9.376
97246SOL     OW93576   1.690   6.965   1.242
97246SOL    HW193577   1.640   7.001   1.315
97246SOL    HW293578   1.778   6.952   1.276
97247SOL     OW93579   9.195   3.683   9.144
97247SOL    HW193580   9.286   3.675   9.174
97247SOL    HW293581   9.170   3.772   9.169
97248SOL     OW93582  14.262  10.059  10.162
97248SOL    HW193583  14.222  10.059  10.249
97248SOL    HW293584  14.194  10.096  10.105
97249SOL     OW93585   1.259   2.330   5.316
97249SOL    HW193586   1.224   2.371   5.237
97249SOL    HW293587   1.350   2.312   5.295
97250SOL     OW93588  10.798   6.742   2.309
97250SOL    HW193589  10.866   6.806   2.291
97250SOL    HW293590  10.722   6.773   2.260
97251SOL     OW93591   6.520   8.838   0.360
97251SOL    HW193592   6.569   8.846   0.442
97251SOL    HW293593   6.506   8.743   0.350
97252SOL     OW93594  14.216   1.031   8.131
97252SOL    HW193595  14.185   1.092   8.063
97252SOL    HW293596  14.199   1.076   8.213
97253SOL     OW93597  14.008   3.297   9.966
97253SOL    HW193598  14.012   3.277  10.059
97253SOL    HW293599  14.081   3.357   9.951
97254SOL     OW93600   0.782   5.066  10.373
97254SOL    HW193601   0.738   5.074  10.288
97254SOL    HW293602   0.873   5.089  10.354
97255SOL     OW93603   7.812   6.572  13.196
97255SOL    HW193604   7.778   6.494  13.240
97255SOL    HW293605   7.878   6.607  13.256
97256SOL     OW93606   5.474  12.643  13.150
97256SOL    HW193607   5.545  12.580  13.165
97256SOL    HW293608   5.469  12.693  13.232
97257SOL     OW93609   2.708   5.930  13.735
97257SOL    HW193610   2.645   5.907  13.803
97257SOL    HW293611   2.701   5.859  13.671
97258SOL     OW93612   6.961  12.754  10.257
97258SOL    HW193613   6.869  12.772  10.277
97258SOL    HW293614   6.959  12.672  10.208
97259SOL     OW93615  14.623  14.054  13.748
97259SOL    HW193616  14.544  14.107  13.760
97259SOL    HW293617  14.670  14.062  13.830
97260SOL     OW93618   6.803   8.576   0.375
97260SOL    HW193619   6.798   8.670   0.391
97260SOL    HW293620   6.735   8.559   0.310
97261SOL     OW93621  13.199   3.646   6.474
97261SOL    HW193622  13.137   3.596   6.527
97261SOL    HW293623  13.231   3.584   6.409
97262SOL     OW93624   8.061   8.398   3.347
97262SOL    HW193625   8.043   8.491   3.364
97262SOL    HW293626   8.019   8.380   3.263
97263SOL     OW93627  10.659  13.238  10.082
97263SOL    HW193628  10.747  13.268  10.101
97263SOL    HW293629  10.613  13.242  10.165
97264SOL     OW93630   2.442   9.568   5.501
97264SOL    HW193631   2.425   9.525   5.585
97264SOL    HW293632   2.355   9.582   5.463
97265SOL     OW93633   5.161   0.057   1.701
97265SOL    HW193634   5.076   0.017   1.721
97265SOL    HW293635   5.140   0.148   1.682
97266SOL     OW93636  10.098  11.512  14.519
97266SOL    HW193637  10.055  11.579  14.571
97266SOL    HW293638  10.065  11.524  14.430
97267SOL     OW93639  12.434   2.653  12.891
97267SOL    HW193640  12.484   2.732  12.913
97267SOL    HW293641  12.446   2.642  12.797
97268SOL     OW93642   6.368   3.389   0.984
97268SOL    HW193643   6.299   3.448   0.953
97268SOL    HW293644   6.416   3.365   0.905
97269SOL     OW93645   6.535   2.232   1.966
97269SOL    HW193646   6.446   2.231   2.000
97269SOL    HW293647   6.557   2.325   1.957
97270SOL     OW93648   4.607  12.937   6.664
97270SOL    HW193649   4.579  13.027   6.649
97270SOL    HW293650   4.676  12.944   6.730
97271SOL     OW93651   2.441   0.672   5.666
97271SOL    HW193652   2.455   0.752   5.615
97271SOL    HW293653   2.518   0.617   5.647
97272SOL     OW93654   4.668  11.781   8.654
97272SOL    HW193655   4.704  11.738   8.732
97272SOL    HW293656   4.647  11.870   8.683
97273SOL     OW93657   1.979   2.516   5.046
97273SOL    HW193658   1.944   2.555   4.966
97273SOL    HW293659   2.072   2.502   5.027
97274SOL     OW93660   6.727  10.711   9.350
97274SOL    HW193661   6.679  10.668   9.279
97274SOL    HW293662   6.743  10.642   9.414
97275SOL     OW93663   7.272   5.243  12.386
97275SOL    HW193664   7.282   5.284  12.300
97275SOL    HW293665   7.287   5.150  12.370
97276SOL     OW93666   6.623  10.196   7.999
97276SOL    HW193667   6.610  10.215   7.906
97276SOL    HW293668   6.713  10.162   8.004
97277SOL     OW93669  13.740   5.169  11.647
97277SOL    HW193670  13.741   5.130  11.559
97277SOL    HW293671  13.650   5.201  11.657
97278SOL     OW93672  12.312  10.654   4.069
97278SOL    HW193673  12.352  10.570   4.089
97278SOL    HW293674  12.222  10.633   4.045
97279SOL     OW93675   7.441  11.255   0.784
97279SOL    HW193676   7.469  11.322   0.847
97279SOL    HW293677   7.364  11.294   0.742
97280SOL     OW93678   8.064   7.284   5.438
97280SOL    HW193679   8.053   7.247   5.351
97280SOL    HW293680   8.157   7.271   5.459
97281SOL     OW93681   0.644   3.522  14.584
97281SOL    HW193682   0.570   3.576  14.557
97281SOL    HW293683   0.606   3.437  14.605
97282SOL     OW93684   7.805  14.511   2.850
97282SOL    HW193685   7.711  14.509   2.871
97282SOL    HW293686   7.823  14.424   2.815
97283SOL     OW93687  10.119   3.868   8.640
97283SOL    HW193688  10.049   3.842   8.700
97283SOL    HW293689  10.200   3.851   8.688
97284SOL     OW93690  10.832   9.856   1.453
97284SOL    HW193691  10.786   9.812   1.525
97284SOL    HW293692  10.810   9.949   1.464
97285SOL     OW93693   2.614   2.396   4.311
97285SOL    HW193694   2.581   2.352   4.389
97285SOL    HW293695   2.538   2.440   4.274
97286SOL     OW93696   5.472  10.332   6.215
97286SOL    HW193697   5.489  10.421   6.187
97286SOL    HW293698   5.504  10.277   6.143
97287SOL     OW93699   0.733   2.604   3.831
97287SOL    HW193700   0.767   2.588   3.743
97287SOL    HW293701   0.659   2.664   3.817
97288SOL     OW93702  11.964  11.639   6.927
97288SOL    HW193703  12.021  11.564   6.948
97288SOL    HW293704  11.876  11.602   6.921
97289SOL     OW93705  10.117  12.677   7.948
97289SOL    HW193706  10.206  12.673   7.984
97289SOL    HW293707  10.060  12.672   8.024
97290SOL     OW93708   6.638  13.379   0.487
97290SOL    HW193709   6.608  13.288   0.485
97290SOL    HW293710   6.560  13.431   0.466
97291SOL     OW93711  10.088  14.751   1.815
97291SOL    HW193712  10.174  14.714   1.792
97291SOL    HW293713  10.097  14.777   1.906
97292SOL     OW93714   0.550   8.871  13.587
97292SOL    HW193715   0.474   8.883  13.530
97292SOL    HW293716   0.547   8.778  13.612
97293SOL     OW93717   6.878   5.709   4.014
97293SOL    HW193718   6.936   5.648   4.059
97293SOL    HW293719   6.790   5.678   4.037
97294SOL     OW93720  14.674  13.741   3.006
97294SOL    HW193721  14.655  13.834   2.990
97294SOL    HW293722  14.707  13.709   2.923
97295SOL     OW93723  14.012   5.944   5.914
97295SOL    HW193724  13.919   5.931   5.929
97295SOL    HW293725  14.032   5.894   5.835
97296SOL     OW93726   6.308   6.086   4.503
97296SOL    HW193727   6.285   6.124   4.588
97296SOL    HW293728   6.404   6.088   4.502
97297SOL     OW93729  12.238  12.502  11.084
97297SOL    HW193730  12.270  12.434  11.024
97297SOL    HW293731  12.285  12.581  11.059
97298SOL     OW93732   1.649   0.923   7.071
97298SOL    HW193733   1.597   0.964   7.002
97298SOL    HW293734   1.656   0.831   7.046
97299SOL     OW93735  11.633   8.812   6.520
97299SOL    HW193736  11.629   8.907   6.505
97299SOL    HW293737  11.542   8.785   6.529
97300SOL     OW93738  12.521   1.778   3.346
97300SOL    HW193739  12.528   1.872   3.330
97300SOL    HW293740  12.468   1.745   3.273
97301SOL     OW93741   6.954   8.659   2.415
97301SOL    HW193742   7.028   8.663   2.354
97301SOL    HW293743   6.932   8.566   2.421
97302SOL     OW93744  12.017   2.978   3.938
97302SOL    HW193745  11.968   2.934   3.868
97302SOL    HW293746  12.081   3.032   3.893
97303SOL     OW93747  10.579   8.007  14.450
97303SOL    HW193748  10.520   8.026  14.377
97303SOL    HW293749  10.619   7.923  14.427
97304SOL     OW93750  13.979   7.982  12.484
97304SOL    HW193751  14.019   7.947  12.405
97304SOL    HW293752  13.921   7.912  12.514
97305SOL     OW93753   0.708  12.025   9.636
97305SOL    HW193754   0.640  11.961   9.619
97305SOL    HW293755   0.788  11.973   9.647
97306SOL     OW93756   7.538   0.615   6.274
97306SOL    HW193757   7.510   0.695   6.318
97306SOL    HW293758   7.577   0.645   6.192
97307SOL     OW93759   1.174   3.130  12.546
97307SOL    HW193760   1.226   3.146  12.625
97307SOL    HW293761   1.134   3.214  12.526
97308SOL     OW93762   6.591  10.763   8.180
97308SOL    HW193763   6.556  10.723   8.101
97308SOL    HW293764   6.514  10.797   8.226
97309SOL     OW93765   7.134   4.341  13.812
97309SOL    HW193766   7.059   4.367  13.865
97309SOL    HW293767   7.190   4.418  13.810
97310SOL     OW93768   0.045  12.835   9.422
97310SOL    HW193769   0.107  12.830   9.495
97310SOL    HW293770   0.099  12.817   9.344
97311SOL     OW93771   6.260   4.600  11.248
97311SOL    HW193772   6.317   4.601  11.325
97311SOL    HW293773   6.319   4.604  11.173
97312SOL     OW93774   2.807   6.759   4.139
97312SOL    HW193775   2.874   6.822   4.110
97312SOL    HW293776   2.856   6.682   4.165
97313SOL     OW93777   7.813  12.398  13.769
97313SOL    HW193778   7.776  12.487  13.767
97313SOL    HW293779   7.847  12.390  13.858
97314SOL     OW93780  11.912   2.985  11.764
97314SOL    HW193781  11.885   3.074  11.744
97314SOL    HW293782  12.007   2.991  11.776
97315SOL     OW93783   3.246   1.234  11.598
97315SOL    HW193784   3.173   1.203  11.652
97315SOL    HW293785   3.221   1.323  11.572
97316SOL     OW93786   2.259   1.392  12.323
97316SOL    HW193787   2.226   1.417  12.409
97316SOL    HW293788   2.301   1.471  12.289
97317SOL     OW93789   3.266   3.306   2.755
97317SOL    HW193790   3.319   3.353   2.691
97317SOL    HW293791   3.195   3.267   2.704
97318SOL     OW93792   2.604  10.270  10.053
97318SOL    HW193793   2.618  10.360  10.023
97318SOL    HW293794   2.683  10.223  10.026
97319SOL     OW93795   6.251  13.430   7.365
97319SOL    HW193796   6.338  13.448   7.330
97319SOL    HW293797   6.250  13.471   7.451
97320SOL     OW93798  13.087   2.885   7.568
97320SOL    HW193799  13.099   2.976   7.593
97320SOL    HW293800  13.173   2.845   7.581
97321SOL     OW93801  13.545  14.137   4.232
97321SOL    HW193802  13.587  14.106   4.152
97321SOL    HW293803  13.582  14.224   4.246
97322SOL     OW93804   7.782   5.990   6.167
97322SOL    HW193805   7.723   6.060   6.193
97322SOL    HW293806   7.850   6.033   6.115
97323SOL     OW93807   5.475   0.360  14.438
97323SOL    HW193808   5.417   0.434  14.455
97323SOL    HW293809   5.563   0.395  14.450
97324SOL     OW93810   4.979  12.753   3.657
97324SOL    HW193811   4.899  12.709   3.629
97324SOL    HW293812   5.049  12.704   3.614
97325SOL     OW93813   2.018  10.299   1.393
97325SOL    HW193814   1.992  10.365   1.329
97325SOL    HW293815   1.939  10.286   1.446
97326SOL     OW93816   1.110   2.023   9.389
97326SOL    HW193817   1.202   2.050   9.387
97326SOL    HW293818   1.098   1.973   9.309
97327SOL     OW93819  10.769   0.210   6.418
97327SOL    HW193820  10.842   0.271   6.428
97327SOL    HW293821  10.692   0.259   6.445
97328SOL     OW93822  11.131   5.557   7.015
97328SOL    HW193823  11.175   5.614   6.953
97328SOL    HW293824  11.079   5.498   6.960
97329SOL     OW93825   2.748   3.516  11.699
97329SOL    HW193826   2.721   3.598  11.659
97329SOL    HW293827   2.734   3.450  11.631
97330SOL     OW93828  12.431   2.588  10.014
97330SOL    HW193829  12.374   2.512  10.011
97330SOL    HW293830  12.509   2.562   9.964
97331SOL     OW93831   0.254   5.242  11.891
97331SOL    HW193832   0.258   5.235  11.795
97331SOL    HW293833   0.217   5.329  11.907
97332SOL     OW93834   1.497   1.601   3.192
97332SOL    HW193835   1.516   1.509   3.210
97332SOL    HW293836   1.414   1.599   3.144
97333SOL     OW93837   8.286  11.690  14.041
97333SOL    HW193838   8.266  11.609  13.994
97333SOL    HW293839   8.209  11.745  14.027
97334SOL     OW93840   5.571   8.998  14.259
97334SOL    HW193841   5.490   8.982  14.309
97334SOL    HW293842   5.634   9.027  14.325
97335SOL     OW93843   4.057   6.332  14.527
97335SOL    HW193844   4.075   6.324  14.620
97335SOL    HW293845   4.108   6.408  14.498
97336SOL     OW93846   0.289   0.873   1.411
97336SOL    HW193847   0.294   0.778   1.420
97336SOL    HW293848   0.243   0.902   1.490
97337SOL     OW93849   7.337  13.222   7.583
97337SOL    HW193850   7.431  13.232   7.595
97337SOL    HW293851   7.323  13.234   7.489
97338SOL     OW93852  13.774   2.227   8.161
97338SOL    HW193853  13.829   2.297   8.197
97338SOL    HW293854  13.728   2.268   8.088
97339SOL     OW93855   9.373   8.926  13.883
97339SOL    HW193856   9.396   8.881  13.964
97339SOL    HW293857   9.413   8.873  13.814
97340SOL     OW93858  14.420  13.582   8.495
97340SOL    HW193859  14.476  13.629   8.556
97340SOL    HW293860  14.480  13.535   8.437
97341SOL     OW93861   9.930   4.058  13.574
97341SOL    HW193862   9.901   4.014  13.494
97341SOL    HW293863   9.948   4.148  13.546
97342SOL     OW93864   0.676   0.952  11.090
97342SOL    HW193865   0.727   1.029  11.114
97342SOL    HW293866   0.740   0.891  11.054
97343SOL     OW93867   5.571   3.040  14.015
97343SOL    HW193868   5.597   3.001  13.932
97343SOL    HW293869   5.596   3.132  14.007
97344SOL     OW93870   0.227  11.362   6.081
97344SOL    HW193871   0.301  11.389   6.136
97344SOL    HW293872   0.264  11.296   6.023
97345SOL     OW93873  12.734   6.472   8.857
97345SOL    HW193874  12.665   6.416   8.823
97345SOL    HW293875  12.799   6.411   8.892
97346SOL     OW93876   8.116   2.521  14.656
97346SOL    HW193877   8.185   2.585  14.641
97346SOL    HW293878   8.069   2.516  14.573
97347SOL     OW93879   0.947   3.079   5.500
97347SOL    HW193880   0.994   3.070   5.583
97347SOL    HW293881   0.857   3.053   5.520
97348SOL     OW93882   1.072  12.874   3.039
97348SOL    HW193883   1.073  12.917   2.954
97348SOL    HW293884   1.029  12.790   3.023
97349SOL     OW93885   5.693  14.785   4.200
97349SOL    HW193886   5.609  14.776   4.156
97349SOL    HW293887   5.684  14.865   4.253
97350SOL     OW93888   9.852   3.377   5.623
97350SOL    HW193889   9.887   3.293   5.594
97350SOL    HW293890   9.758   3.362   5.633
97351SOL     OW93891  14.654  10.340  10.021
97351SOL    HW193892  14.734  10.290  10.005
97351SOL    HW293893  14.608  10.291  10.089
97352SOL     OW93894  13.410   8.801   0.588
97352SOL    HW193895  13.476   8.745   0.630
97352SOL    HW293896  13.458   8.844   0.517
97353SOL     OW93897  14.117  11.178   2.105
97353SOL    HW193898  14.205  11.215   2.112
97353SOL    HW293899  14.061  11.251   2.079
97354SOL     OW93900  12.331   3.464   2.602
97354SOL    HW193901  12.307   3.556   2.595
97354SOL    HW293902  12.329   3.432   2.512
97355SOL     OW93903   0.515   4.919  12.560
97355SOL    HW193904   0.460   4.850  12.597
97355SOL    HW293905   0.534   4.977  12.634
97356SOL     OW93906   0.623  11.445  10.799
97356SOL    HW193907   0.716  11.465  10.801
97356SOL    HW293908   0.593  11.477  10.713
97357SOL     OW93909  12.912   3.704  11.709
97357SOL    HW193910  12.953   3.720  11.624
97357SOL    HW293911  12.863   3.623  11.697
97358SOL     OW93912   4.880   2.810   9.497
97358SOL    HW193913   4.813   2.838   9.559
97358SOL    HW293914   4.883   2.715   9.506
97359SOL     OW93915   9.564   2.237   2.109
97359SOL    HW193916   9.655   2.244   2.080
97359SOL    HW293917   9.555   2.303   2.178
97360SOL     OW93918  14.523   8.526   3.641
97360SOL    HW193919  14.548   8.607   3.598
97360SOL    HW293920  14.464   8.483   3.578
97361SOL     OW93921  12.304   0.667  12.669
97361SOL    HW193922  12.258   0.745  12.703
97361SOL    HW293923  12.237   0.620  12.620
97362SOL     OW93924   6.228   2.814   8.433
97362SOL    HW193925   6.206   2.819   8.340
97362SOL    HW293926   6.322   2.831   8.436
97363SOL     OW93927   6.700  10.974  11.123
97363SOL    HW193928   6.790  10.993  11.099
97363SOL    HW293929   6.650  11.050  11.094
97364SOL     OW93930   8.039   5.895   1.356
97364SOL    HW193931   7.949   5.886   1.326
97364SOL    HW293932   8.081   5.949   1.289
97365SOL     OW93933   3.515   9.442   9.930
97365SOL    HW193934   3.476   9.354   9.922
97365SOL    HW293935   3.526   9.471   9.840
97366SOL     OW93936   1.360   5.355  10.406
97366SOL    HW193937   1.431   5.351  10.343
97366SOL    HW293938   1.292   5.297  10.371
97367SOL     OW93939   4.087   7.079   5.620
97367SOL    HW193940   4.130   7.164   5.634
97367SOL    HW293941   4.151   7.029   5.569
97368SOL     OW93942   0.167  13.973   0.744
97368SOL    HW193943   0.145  13.880   0.737
97368SOL    HW293944   0.257  13.973   0.779
97369SOL     OW93945   1.685  12.489  10.602
97369SOL    HW193946   1.609  12.459  10.652
97369SOL    HW293947   1.761  12.458  10.653
97370SOL     OW93948  13.132  13.423   5.111
97370SOL    HW193949  13.147  13.345   5.165
97370SOL    HW293950  13.214  13.471   5.117
97371SOL     OW93951  12.369   0.496  10.882
97371SOL    HW193952  12.279   0.525  10.890
97371SOL    HW293953  12.366   0.403  10.904
97372SOL     OW93954   3.594   2.943   7.877
97372SOL    HW193955   3.525   2.999   7.841
97372SOL    HW293956   3.560   2.915   7.962
97373SOL     OW93957  12.106   4.087  14.027
97373SOL    HW193958  12.172   4.122  13.967
97373SOL    HW293959  12.052   4.029  13.973
97374SOL     OW93960  13.875   9.868   1.269
97374SOL    HW193961  13.799   9.810   1.259
97374SOL    HW293962  13.840   9.956   1.253
97375SOL     OW93963   9.781  11.286   8.233
97375SOL    HW193964   9.762  11.242   8.316
97375SOL    HW293965   9.834  11.223   8.184
97376SOL     OW93966  12.877   0.904   3.437
97376SOL    HW193967  12.884   0.868   3.349
97376SOL    HW293968  12.812   0.849   3.481
97377SOL     OW93969  12.927   1.577  13.385
97377SOL    HW193970  12.857   1.642  13.377
97377SOL    HW293971  13.003   1.619  13.344
97378SOL     OW93972  11.930   3.391   8.858
97378SOL    HW193973  12.009   3.380   8.912
97378SOL    HW293974  11.858   3.369   8.917
97379SOL     OW93975   7.766  10.191   5.348
97379SOL    HW193976   7.718  10.109   5.360
97379SOL    HW293977   7.707  10.259   5.382
97380SOL     OW93978   6.681  12.879   9.762
97380SOL    HW193979   6.589  12.875   9.734
97380SOL    HW293980   6.680  12.937   9.838
97381SOL     OW93981   6.939   7.916  13.171
97381SOL    HW193982   7.024   7.890  13.207
97381SOL    HW293983   6.884   7.839  13.179
97382SOL     OW93984   6.403   4.484   7.736
97382SOL    HW193985   6.492   4.508   7.765
97382SOL    HW293986   6.414   4.404   7.686
97383SOL     OW93987   1.507   3.673   3.283
97383SOL    HW193988   1.449   3.719   3.344
97383SOL    HW293989   1.450   3.612   3.237
97384SOL     OW93990   1.765  10.136   9.700
97384SOL    HW193991   1.711  10.214   9.707
97384SOL    HW293992   1.844  10.165   9.654
97385SOL     OW93993   3.207   0.750  10.317
97385SOL    HW193994   3.153   0.822  10.349
97385SOL    HW293995   3.153   0.672  10.327
97386SOL     OW93996   8.090   1.655   8.085
97386SOL    HW193997   8.032   1.579   8.077
97386SOL    HW293998   8.124   1.668   7.997
97387SOL     OW93999  12.422  13.231   6.949
97387SOL    HW194000  12.417  13.186   7.033
97387SOL    HW294001  12.443  13.163   6.886
97388SOL     OW94002   6.948   4.957  13.029
97388SOL    HW194003   6.885   5.029  13.042
97388SOL    HW294004   7.033   5.001  13.023
97389SOL     OW94005   9.610   3.049   2.670
97389SOL    HW194006   9.604   3.142   2.648
97389SOL    HW294007   9.684   3.044   2.731
97390SOL     OW94008   6.837   4.245   7.698
97390SOL    HW194009   6.914   4.300   7.689
97390SOL    HW294010   6.771   4.287   7.644
97391SOL     OW94011   8.635   4.498  12.146
97391SOL    HW194012   8.561   4.439  12.128
97391SOL    HW294013   8.606   4.583  12.113
97392SOL     OW94014  10.673   5.857   2.946
97392SOL    HW194015  10.687   5.948   2.973
97392SOL    HW294016  10.681   5.859   2.851
97393SOL     OW94017   6.389   4.036   4.760
97393SOL    HW194018   6.415   3.968   4.698
97393SOL    HW294019   6.452   4.029   4.832
97394SOL     OW94020   0.308   6.742   3.745
97394SOL    HW194021   0.367   6.670   3.723
97394SOL    HW294022   0.363   6.805   3.792
97395SOL     OW94023   6.662  10.436   0.016
97395SOL    HW194024   6.714  10.476  14.820
97395SOL    HW294025   6.678  10.342   0.006
97396SOL     OW94026  14.743  14.761  11.454
97396SOL    HW194027  14.816  14.754  11.516
97396SOL    HW294028  14.694  14.838  11.485
97397SOL     OW94029   5.706   3.766  12.984
97397SOL    HW194030   5.799   3.749  12.969
97397SOL    HW294031   5.661   3.687  12.952
97398SOL     OW94032  10.713   2.537   6.574
97398SOL    HW194033  10.714   2.467   6.640
97398SOL    HW294034  10.773   2.604   6.609
97399SOL     OW94035   6.986   8.800  11.952
97399SOL    HW194036   7.042   8.742  11.901
97399SOL    HW294037   6.900   8.791  11.913
97400SOL     OW94038  10.118   0.058  12.559
97400SOL    HW194039  10.055  14.862  12.539
97400SOL    HW294040  10.129   0.104  12.476
97401SOL     OW94041   5.313   9.802   2.120
97401SOL    HW194042   5.230   9.814   2.165
97401SOL    HW294043   5.372   9.765   2.187
97402SOL     OW94044   7.060  12.129   3.813
97402SOL    HW194045   7.091  12.211   3.851
97402SOL    HW294046   6.968  12.122   3.839
97403SOL     OW94047  10.372   2.800   5.723
97403SOL    HW194048  10.449   2.758   5.686
97403SOL    HW294049  10.401   2.890   5.740
97404SOL     OW94050   3.560   9.040   1.647
97404SOL    HW194051   3.483   9.007   1.601
97404SOL    HW294052   3.556   9.001   1.734
97405SOL     OW94053  14.537   6.107  13.959
97405SOL    HW194054  14.477   6.049  14.005
97405SOL    HW294055  14.590   6.049  13.905
97406SOL     OW94056   5.909  11.031   4.616
97406SOL    HW194057   5.816  11.049   4.624
97406SOL    HW294058   5.952  11.109   4.651
97407SOL     OW94059  11.856  13.835  11.318
97407SOL    HW194060  11.767  13.810  11.344
97407SOL    HW294061  11.911  13.766  11.353
97408SOL     OW94062  10.253   3.417   0.765
97408SOL    HW194063  10.172   3.462   0.740
97408SOL    HW294064  10.272   3.360   0.691
97409SOL     OW94065   2.632   7.436  12.946
97409SOL    HW194066   2.603   7.355  12.986
97409SOL    HW294067   2.654   7.493  13.020
97410SOL     OW94068  11.366  13.010  12.876
97410SOL    HW194069  11.448  12.973  12.907
97410SOL    HW294070  11.314  13.024  12.956
97411SOL     OW94071   6.802  13.960   3.880
97411SOL    HW194072   6.750  14.040   3.886
97411SOL    HW294073   6.761  13.910   3.809
97412SOL     OW94074  10.449   9.850   4.261
97412SOL    HW194075  10.394   9.887   4.329
97412SOL    HW294076  10.391   9.792   4.211
97413SOL     OW94077   4.413  11.830  12.878
97413SOL    HW194078   4.459  11.899  12.829
97413SOL    HW294079   4.463  11.822  12.959
97414SOL     OW94080   4.323   0.180  11.188
97414SOL    HW194081   4.385   0.117  11.153
97414SOL    HW294082   4.237   0.145  11.166
97415SOL     OW94083   0.864  11.913  11.645
97415SOL    HW194084   0.876  11.997  11.690
97415SOL    HW294085   0.809  11.861  11.704
97416SOL     OW94086   2.124  13.815   6.020
97416SOL    HW194087   2.169  13.868   5.954
97416SOL    HW294088   2.084  13.743   5.971
97417SOL     OW94089   7.837   6.122   1.703
97417SOL    HW194090   7.803   6.145   1.789
97417SOL    HW294091   7.841   6.204   1.655
97418SOL     OW94092   3.238   7.591   2.014
97418SOL    HW194093   3.172   7.530   1.980
97418SOL    HW294094   3.304   7.595   1.945
97419SOL     OW94095   8.247  13.691   8.952
97419SOL    HW194096   8.177  13.627   8.958
97419SOL    HW294097   8.204  13.770   8.918
97420SOL     OW94098  11.088   7.438  11.951
97420SOL    HW194099  11.133   7.521  11.967
97420SOL    HW294100  11.034   7.425  12.029
97421SOL     OW94101   5.394  12.399   9.668
97421SOL    HW194102   5.353  12.353   9.742
97421SOL    HW294103   5.430  12.329   9.614
97422SOL     OW94104   8.593   6.427  13.312
97422SOL    HW194105   8.633   6.359  13.258
97422SOL    HW294106   8.649   6.504  13.299
97423SOL     OW94107   9.334  12.217   4.717
97423SOL    HW194108   9.366  12.153   4.652
97423SOL    HW294109   9.297  12.164   4.787
97424SOL     OW94110  12.223   0.631   0.875
97424SOL    HW194111  12.302   0.591   0.840
97424SOL    HW294112  12.165   0.557   0.894
97425SOL     OW94113  11.606  10.039  10.954
97425SOL    HW194114  11.517  10.019  10.984
97425SOL    HW294115  11.662  10.016  11.028
97426SOL     OW94116   5.144   1.170   9.937
97426SOL    HW194117   5.106   1.207  10.017
97426SOL    HW294118   5.123   1.233   9.868
97427SOL     OW94119   7.324   0.607   8.784
97427SOL    HW194120   7.378   0.685   8.796
97427SOL    HW294121   7.234   0.640   8.782
97428SOL     OW94122   4.123   1.165   4.993
97428SOL    HW194123   4.083   1.225   5.057
97428SOL    HW294124   4.211   1.199   4.979
97429SOL     OW94125   9.226   4.585   6.269
97429SOL    HW194126   9.190   4.522   6.206
97429SOL    HW294127   9.319   4.591   6.247
97430SOL     OW94128   1.478  13.833  14.581
97430SOL    HW194129   1.486  13.905  14.518
97430SOL    HW294130   1.491  13.754  14.528
97431SOL     OW94131   9.744   8.804   5.302
97431SOL    HW194132   9.835   8.799   5.273
97431SOL    HW294133   9.736   8.734   5.367
97432SOL     OW94134   1.061  13.014   4.896
97432SOL    HW194135   0.971  13.003   4.866
97432SOL    HW294136   1.061  13.098   4.943
97433SOL     OW94137  14.313   4.772   0.094
97433SOL    HW194138  14.336   4.788   0.003
97433SOL    HW294139  14.274   4.684   0.095
97434SOL     OW94140   0.948  12.634   4.844
97434SOL    HW194141   0.971  12.554   4.798
97434SOL    HW294142   0.954  12.703   4.777
97435SOL     OW94143   6.442   5.008  13.708
97435SOL    HW194144   6.362   5.025  13.658
97435SOL    HW294145   6.451   5.085  13.765
97436SOL     OW94146   6.998   6.679  14.431
97436SOL    HW194147   7.077   6.728  14.413
97436SOL    HW294148   6.929   6.723  14.381
97437SOL     OW94149   1.419   6.258   8.426
97437SOL    HW194150   1.376   6.190   8.478
97437SOL    HW294151   1.368   6.262   8.345
97438SOL     OW94152   4.217   2.748  13.861
97438SOL    HW194153   4.180   2.837  13.856
97438SOL    HW294154   4.303   2.755  13.820
97439SOL     OW94155  11.385  11.544   8.879
97439SOL    HW194156  11.417  11.610   8.941
97439SOL    HW294157  11.435  11.560   8.799
97440SOL     OW94158   9.776   4.097  10.243
97440SOL    HW194159   9.691   4.097  10.200
97440SOL    HW294160   9.815   4.013  10.218
97441SOL     OW94161  10.044   3.282   7.844
97441SOL    HW194162  10.023   3.236   7.926
97441SOL    HW294163  10.127   3.327   7.862
97442SOL     OW94164  13.022   6.608   2.235
97442SOL    HW194165  13.010   6.658   2.153
97442SOL    HW294166  13.057   6.672   2.297
97443SOL     OW94167  11.752   3.870  14.211
97443SOL    HW194168  11.748   3.779  14.180
97443SOL    HW294169  11.661   3.898  14.216
97444SOL     OW94170   9.066   6.644   1.330
97444SOL    HW194171   8.973   6.653   1.313
97444SOL    HW294172   9.107   6.653   1.244
97445SOL     OW94173  10.192   8.681   3.347
97445SOL    HW194174  10.123   8.643   3.293
97445SOL    HW294175  10.164   8.772   3.361
97446SOL     OW94176  10.249   8.092   1.884
97446SOL    HW194177  10.196   8.111   1.961
97446SOL    HW294178  10.214   8.148   1.815
97447SOL     OW94179  11.746  10.936   0.746
97447SOL    HW194180  11.664  10.937   0.796
97447SOL    HW294181  11.726  10.983   0.666
97448SOL     OW94182  12.628   7.684   0.100
97448SOL    HW194183  12.665   7.698   0.013
97448SOL    HW294184  12.667   7.602   0.130
97449SOL     OW94185   1.234  14.265   2.021
97449SOL    HW194186   1.186  14.337   1.980
97449SOL    HW294187   1.180  14.188   2.005
97450SOL     OW94188   5.952   5.540   7.922
97450SOL    HW194189   6.032   5.577   7.885
97450SOL    HW294190   5.982   5.480   7.989
97451SOL     OW94191   3.512  10.957   8.436
97451SOL    HW194192   3.473  10.889   8.382
97451SOL    HW294193   3.442  10.984   8.495
97452SOL     OW94194  11.831  10.894  11.419
97452SOL    HW194195  11.790  10.816  11.455
97452SOL    HW294196  11.915  10.900  11.465
97453SOL     OW94197  10.389   6.853   1.594
97453SOL    HW194198  10.357   6.772   1.553
97453SOL    HW294199  10.475   6.867   1.554
97454SOL     OW94200   2.003  12.209   5.724
97454SOL    HW194201   2.072  12.145   5.714
97454SOL    HW294202   1.939  12.188   5.656
97455SOL     OW94203  11.197   7.674   9.338
97455SOL    HW194204  11.193   7.759   9.295
97455SOL    HW294205  11.282   7.638   9.315
97456SOL     OW94206  10.766   0.784   1.699
97456SOL    HW194207  10.776   0.817   1.610
97456SOL    HW294208  10.748   0.862   1.751
97457SOL     OW94209   7.155  12.614   7.058
97457SOL    HW194210   7.076  12.600   7.110
97457SOL    HW294211   7.124  12.615   6.968
97458SOL     OW94212  14.043   6.707   8.139
97458SOL    HW194213  14.029   6.738   8.229
97458SOL    HW294214  13.984   6.759   8.086
97459SOL     OW94215   2.207   9.141   1.266
97459SOL    HW194216   2.153   9.177   1.337
97459SOL    HW294217   2.174   9.052   1.253
97460SOL     OW94218   7.087   4.686  13.967
97460SOL    HW194219   7.104   4.776  13.995
97460SOL    HW294220   7.008   4.693  13.913
97461SOL     OW94221   1.556   2.367  12.261
97461SOL    HW194222   1.514   2.440  12.215
97461SOL    HW294223   1.627   2.340  12.203
97462SOL     OW94224   6.370  12.982   3.383
97462SOL    HW194225   6.358  12.890   3.406
97462SOL    HW294226   6.284  13.010   3.351
97463SOL     OW94227   6.235   9.635   3.936
97463SOL    HW194228   6.274   9.658   4.020
97463SOL    HW294229   6.146   9.607   3.958
97464SOL     OW94230  11.674  11.141  13.348
97464SOL    HW194231  11.732  11.162  13.421
97464SOL    HW294232  11.647  11.050  13.365
97465SOL     OW94233  11.846   4.912  12.375
97465SOL    HW194234  11.783   4.957  12.318
97465SOL    HW294235  11.910   4.979  12.397
97466SOL     OW94236   5.568  12.797   6.169
97466SOL    HW194237   5.555  12.704   6.149
97466SOL    HW294238   5.488  12.823   6.214
97467SOL     OW94239   0.354   2.144  13.569
97467SOL    HW194240   0.290   2.178  13.631
97467SOL    HW294241   0.432   2.127  13.622
97468SOL     OW94242   7.878  14.451   8.171
97468SOL    HW194243   7.889  14.385   8.102
97468SOL    HW294244   7.833  14.404   8.241
97469SOL     OW94245   3.918  12.801   8.888
97469SOL    HW194246   3.857  12.772   8.820
97469SOL    HW294247   3.916  12.896   8.883
97470SOL     OW94248   3.886   2.052  14.135
97470SOL    HW194249   3.831   2.127  14.109
97470SOL    HW294250   3.837   1.975  14.105
97471SOL     OW94251  14.736   4.172  14.728
97471SOL    HW194252  14.786   4.131  14.657
97471SOL    HW294253  14.724   4.102  14.792
97472SOL     OW94254  14.347  14.546   8.790
97472SOL    HW194255  14.297  14.472   8.826
97472SOL    HW294256  14.392  14.584   8.864
97473SOL     OW94257  10.546   8.429  10.125
97473SOL    HW194258  10.566   8.495  10.059
97473SOL    HW294259  10.630   8.406  10.163
97474SOL     OW94260   0.138   9.885   1.760
97474SOL    HW194261   0.146   9.928   1.675
97474SOL    HW294262   0.208   9.923   1.813
97475SOL     OW94263   2.644   7.512   6.110
97475SOL    HW194264   2.569   7.539   6.058
97475SOL    HW294265   2.607   7.461   6.181
97476SOL     OW94266   9.501   7.666   2.745
97476SOL    HW194267   9.511   7.644   2.837
97476SOL    HW294268   9.484   7.582   2.702
97477SOL     OW94269  12.992  13.600  14.462
97477SOL    HW194270  12.950  13.572  14.543
97477SOL    HW294271  12.947  13.680  14.438
97478SOL     OW94272   7.975   2.639   2.778
97478SOL    HW194273   7.895   2.675   2.739
97478SOL    HW294274   7.966   2.545   2.768
97479SOL     OW94275   4.600   8.081   6.992
97479SOL    HW194276   4.621   8.043   7.077
97479SOL    HW294277   4.660   8.154   6.982
97480SOL     OW94278  12.748   8.347  11.077
97480SOL    HW194279  12.694   8.364  11.000
97480SOL    HW294280  12.765   8.433  11.115
97481SOL     OW94281   0.124   1.424   0.284
97481SOL    HW194282   0.111   1.339   0.243
97481SOL    HW294283   0.085   1.486   0.222
97482SOL     OW94284   9.296   9.921   8.411
97482SOL    HW194285   9.335   9.917   8.324
97482SOL    HW294286   9.328   9.843   8.455
97483SOL     OW94287   0.170   5.938   8.819
97483SOL    HW194288   0.158   5.936   8.914
97483SOL    HW294289   0.140   6.025   8.792
97484SOL     OW94290   6.358  12.147   4.922
97484SOL    HW194291   6.305  12.073   4.893
97484SOL    HW294292   6.303  12.224   4.906
97485SOL     OW94293   8.852   3.949   9.721
97485SOL    HW194294   8.854   3.988   9.809
97485SOL    HW294295   8.786   4.000   9.674
97486SOL     OW94296  12.087  10.317   8.743
97486SOL    HW194297  12.023  10.247   8.753
97486SOL    HW294298  12.058  10.384   8.805
97487SOL     OW94299   8.781   8.946   7.079
97487SOL    HW194300   8.836   8.893   7.022
97487SOL    HW294301   8.839   9.013   7.113
97488SOL     OW94302   2.104   2.917  12.762
97488SOL    HW194303   2.169   2.855  12.794
97488SOL    HW294304   2.024   2.895  12.811
97489SOL     OW94305   0.283   5.022   0.825
97489SOL    HW194306   0.272   5.069   0.908
97489SOL    HW294307   0.354   4.959   0.843
97490SOL     OW94308   0.533   7.406   7.427
97490SOL    HW194309   0.507   7.314   7.422
97490SOL    HW294310   0.457   7.451   7.465
97491SOL     OW94311  11.481  13.172   4.583
97491SOL    HW194312  11.399  13.122   4.586
97491SOL    HW294313  11.459  13.250   4.532
97492SOL     OW94314   2.726   4.936  13.132
97492SOL    HW194315   2.738   4.926  13.227
97492SOL    HW294316   2.643   4.984  13.124
97493SOL     OW94317  14.248  14.685   5.378
97493SOL    HW194318  14.220  14.775   5.395
97493SOL    HW294319  14.258  14.647   5.465
97494SOL     OW94320  14.318   2.694   3.558
97494SOL    HW194321  14.390   2.665   3.613
97494SOL    HW294322  14.239   2.661   3.602
97495SOL     OW94323   7.251   1.770  13.100
97495SOL    HW194324   7.263   1.743  13.191
97495SOL    HW294325   7.278   1.695  13.048
97496SOL     OW94326   8.758  10.003  10.301
97496SOL    HW194327   8.807   9.920  10.305
97496SOL    HW294328   8.746  10.027  10.393
97497SOL     OW94329   5.249   4.416  14.085
97497SOL    HW194330   5.256   4.345  14.149
97497SOL    HW294331   5.158   4.446  14.093
97498SOL     OW94332   8.848   1.459   6.293
97498SOL    HW194333   8.885   1.536   6.334
97498SOL    HW294334   8.770   1.491   6.247
97499SOL     OW94335   2.575   2.979  14.614
97499SOL    HW194336   2.510   2.991  14.545
97499SOL    HW294337   2.556   2.893  14.651
97500SOL     OW94338   9.850  13.532  13.334
97500SOL    HW194339   9.940  13.524  13.364
97500SOL    HW294340   9.806  13.581  13.403
97501SOL     OW94341   0.200   7.699   3.455
97501SOL    HW194342   0.196   7.636   3.528
97501SOL    HW294343   0.285   7.683   3.414
97502SOL     OW94344   6.902   1.155   1.203
97502SOL    HW194345   6.874   1.064   1.211
97502SOL    HW294346   6.821   1.205   1.191
97503SOL     OW94347   8.934  12.283   0.243
97503SOL    HW194348   8.990  12.357   0.265
97503SOL    HW294349   8.909  12.245   0.328
97504SOL     OW94350  11.480   9.433   5.714
97504SOL    HW194351  11.561   9.450   5.763
97504SOL    HW294352  11.421   9.393   5.778
97505SOL     OW94353   1.529   8.455  14.565
97505SOL    HW194354   1.467   8.527  14.578
97505SOL    HW294355   1.611   8.487  14.600
97506SOL     OW94356  10.265   9.007   3.829
97506SOL    HW194357  10.240   8.917   3.810
97506SOL    HW294358  10.342   9.000   3.884
97507SOL     OW94359   1.187   2.226   2.224
97507SOL    HW194360   1.254   2.226   2.156
97507SOL    HW294361   1.217   2.161   2.288
97508SOL     OW94362  11.936   5.030  10.398
97508SOL    HW194363  11.843   5.053  10.404
97508SOL    HW294364  11.973   5.057  10.482
97509SOL     OW94365   8.462   2.009  12.116
97509SOL    HW194366   8.465   1.958  12.197
97509SOL    HW294367   8.401   1.961  12.060
97510SOL     OW94368   1.738  13.882  14.190
97510SOL    HW194369   1.807  13.818  14.203
97510SOL    HW294370   1.731  13.891  14.095
97511SOL     OW94371   5.906  14.469   8.470
97511SOL    HW194372   5.966  14.421   8.413
97511SOL    HW294373   5.838  14.501   8.411
97512SOL     OW94374   2.171  11.908  13.007
97512SOL    HW194375   2.175  11.969  13.080
97512SOL    HW294376   2.237  11.842  13.026
97513SOL     OW94377   0.361   7.584   7.531
97513SOL    HW194378   0.386   7.676   7.524
97513SOL    HW294379   0.266   7.583   7.514
97514SOL     OW94380  11.914   4.778   0.439
97514SOL    HW194381  11.880   4.867   0.450
97514SOL    HW294382  11.939   4.773   0.347
97515SOL     OW94383  12.995   5.247   5.301
97515SOL    HW194384  13.023   5.236   5.210
97515SOL    HW294385  12.968   5.159   5.328
97516SOL     OW94386   1.245  13.373   5.950
97516SOL    HW194387   1.237  13.467   5.960
97516SOL    HW294388   1.190  13.336   6.019
97517SOL     OW94389   2.537   6.538  14.659
97517SOL    HW194390   2.502   6.604  14.719
97517SOL    HW294391   2.581   6.475  14.716
97518SOL     OW94392   5.893   0.806   6.095
97518SOL    HW194393   5.832   0.878   6.109
97518SOL    HW294394   5.859   0.762   6.017
97519SOL     OW94395   2.925   7.233   8.149
97519SOL    HW194396   2.920   7.243   8.054
97519SOL    HW294397   2.942   7.140   8.162
97520SOL     OW94398   3.653   2.734   5.977
97520SOL    HW194399   3.679   2.826   5.966
97520SOL    HW294400   3.729   2.684   5.946
97521SOL     OW94401   2.271   4.630   7.471
97521SOL    HW194402   2.243   4.599   7.386
97521SOL    HW294403   2.190   4.649   7.518
97522SOL     OW94404   4.913   3.318  11.853
97522SOL    HW194405   4.864   3.310  11.935
97522SOL    HW294406   4.952   3.406  11.858
97523SOL     OW94407   0.120   0.685   7.262
97523SOL    HW194408   0.032   0.653   7.284
97523SOL    HW294409   0.165   0.692   7.346
97524SOL     OW94410   5.491   5.866  14.566
97524SOL    HW194411   5.508   5.802  14.635
97524SOL    HW294412   5.400   5.892  14.580
97525SOL     OW94413  13.123   7.884   4.883
97525SOL    HW194414  13.078   7.829   4.946
97525SOL    HW294415  13.165   7.823   4.822
97526SOL     OW94416   9.467   1.450  13.979
97526SOL    HW194417   9.411   1.376  13.957
97526SOL    HW294418   9.549   1.410  14.010
97527SOL     OW94419   1.221  13.998  13.294
97527SOL    HW194420   1.264  14.083  13.297
97527SOL    HW294421   1.213  13.978  13.200
97528SOL     OW94422  14.471   1.716   2.209
97528SOL    HW194423  14.486   1.665   2.289
97528SOL    HW294424  14.441   1.652   2.145
97529SOL     OW94425  14.570   4.956   8.402
97529SOL    HW194426  14.607   4.889   8.344
97529SOL    HW294427  14.633   4.964   8.473
97530SOL     OW94428  12.915  14.515  14.362
97530SOL    HW194429  12.843  14.488  14.305
97530SOL    HW294430  12.917  14.450  14.431
97531SOL     OW94431   9.626  14.730   7.631
97531SOL    HW194432   9.683  14.727   7.554
97531SOL    HW294433   9.574  14.809   7.618
97532SOL     OW94434   2.431  13.724  11.152
97532SOL    HW194435   2.359  13.707  11.213
97532SOL    HW294436   2.393  13.709  11.065
97533SOL     OW94437   3.092   7.072   7.067
97533SOL    HW194438   3.174   7.116   7.045
97533SOL    HW294439   3.026   7.117   7.014
97534SOL     OW94440   5.036   5.183   3.072
97534SOL    HW194441   4.979   5.135   3.132
97534SOL    HW294442   5.043   5.271   3.110
97535SOL     OW94443   5.076   7.586  10.518
97535SOL    HW194444   5.166   7.619  10.521
97535SOL    HW294445   5.082   7.495  10.548
97536SOL     OW94446   4.826  10.979   8.073
97536SOL    HW194447   4.755  10.936   8.122
97536SOL    HW294448   4.905  10.932   8.101
97537SOL     OW94449   8.073   6.491   8.006
97537SOL    HW194450   8.167   6.477   8.019
97537SOL    HW294451   8.068   6.549   7.930
97538SOL     OW94452   0.984   7.990  10.186
97538SOL    HW194453   0.981   7.894  10.196
97538SOL    HW294454   1.076   8.009  10.169
97539SOL     OW94455   2.094   5.917   5.857
97539SOL    HW194456   2.175   5.964   5.839
97539SOL    HW294457   2.122   5.839   5.904
97540SOL     OW94458  14.665  12.365   2.016
97540SOL    HW194459  14.681  12.290   2.075
97540SOL    HW294460  14.618  12.328   1.942
97541SOL     OW94461  10.602   3.266  11.196
97541SOL    HW194462  10.533   3.212  11.236
97541SOL    HW294463  10.679   3.210  11.195
97542SOL     OW94464   8.561   1.351   9.455
97542SOL    HW194465   8.653   1.369   9.473
97542SOL    HW294466   8.551   1.365   9.361
97543SOL     OW94467   6.292  14.794  11.888
97543SOL    HW194468   6.224  14.857  11.866
97543SOL    HW294469   6.247  14.728  11.942
97544SOL     OW94470   0.634   1.344  10.763
97544SOL    HW194471   0.634   1.300  10.848
97544SOL    HW294472   0.574   1.418  10.774
97545SOL     OW94473   8.228   9.006   2.036
97545SOL    HW194474   8.251   8.918   2.007
97545SOL    HW294475   8.143   9.023   1.997
97546SOL     OW94476  10.109   5.875  12.578
97546SOL    HW194477  10.200   5.857  12.602
97546SOL    HW294478  10.067   5.790  12.581
97547SOL     OW94479  11.882   0.809   8.543
97547SOL    HW194480  11.857   0.719   8.562
97547SOL    HW294481  11.918   0.843   8.625
97548SOL     OW94482  14.305   4.393   4.480
97548SOL    HW194483  14.304   4.330   4.408
97548SOL    HW294484  14.325   4.476   4.438
97549SOL     OW94485  11.024   1.808   3.573
97549SOL    HW194486  11.052   1.742   3.510
97549SOL    HW294487  11.036   1.892   3.528
97550SOL     OW94488   3.350   0.707   1.810
97550SOL    HW194489   3.279   0.771   1.820
97550SOL    HW294490   3.408   0.723   1.884
97551SOL     OW94491   7.192   0.659   3.299
97551SOL    HW194492   7.233   0.574   3.316
97551SOL    HW294493   7.100   0.646   3.319
97552SOL     OW94494   1.499   8.878   5.000
97552SOL    HW194495   1.448   8.800   5.019
97552SOL    HW294496   1.589   8.853   5.020
97553SOL     OW94497   1.404   1.685   9.260
97553SOL    HW194498   1.421   1.605   9.211
97553SOL    HW294499   1.391   1.656   9.350
97554SOL     OW94500  13.207   9.333  10.178
97554SOL    HW194501  13.254   9.370  10.103
97554SOL    HW294502  13.115   9.330  10.149
97555SOL     OW94503  12.972   3.343  14.007
97555SOL    HW194504  12.992   3.351  13.914
97555SOL    HW294505  13.058   3.341  14.051
97556SOL     OW94506  12.289  10.036   9.756
97556SOL    HW194507  12.361   9.979   9.781
97556SOL    HW294508  12.265  10.008   9.667
97557SOL     OW94509   8.013  14.315  14.219
97557SOL    HW194510   8.009  14.379  14.148
97557SOL    HW294511   8.043  14.235  14.177
97558SOL     OW94512   6.881  11.754  10.436
97558SOL    HW194513   6.833  11.676  10.409
97558SOL    HW294514   6.848  11.775  10.523
97559SOL     OW94515   1.415  13.916  11.854
97559SOL    HW194516   1.490  13.894  11.910
97559SOL    HW294517   1.402  14.010  11.868
97560SOL     OW94518   5.446   0.315   4.559
97560SOL    HW194519   5.366   0.311   4.507
97560SOL    HW294520   5.458   0.409   4.576
97561SOL     OW94521   9.391  13.268   7.694
97561SOL    HW194522   9.463  13.328   7.712
97561SOL    HW294523   9.378  13.221   7.776
97562SOL     OW94524   9.915   3.851   7.296
97562SOL    HW194525   9.902   3.800   7.216
97562SOL    HW294526   9.830   3.848   7.340
97563SOL     OW94527   7.023   3.434   4.946
97563SOL    HW194528   7.020   3.528   4.926
97563SOL    HW294529   6.961   3.423   5.018
97564SOL     OW94530   9.080  11.399  10.759
97564SOL    HW194531   9.171  11.401  10.787
97564SOL    HW294532   9.078  11.336  10.687
97565SOL     OW94533   0.030  12.165  10.326
97565SOL    HW194534   0.018  12.259  10.311
97565SOL    HW294535  14.814  12.132  10.338
97566SOL     OW94536  12.568  13.090  10.927
97566SOL    HW194537  12.546  13.110  11.018
97566SOL    HW294538  12.489  13.113  10.878
97567SOL     OW94539   3.538   7.557   6.665
97567SOL    HW194540   3.482   7.625   6.626
97567SOL    HW294541   3.627   7.592   6.659
97568SOL     OW94542   9.364   6.786   3.098
97568SOL    HW194543   9.287   6.810   3.046
97568SOL    HW294544   9.438   6.800   3.039
97569SOL     OW94545   7.708   0.342  12.683
97569SOL    HW194546   7.719   0.322  12.590
97569SOL    HW294547   7.796   0.332  12.720
97570SOL     OW94548  14.097   9.553   2.520
97570SOL    HW194549  14.075   9.560   2.427
97570SOL    HW294550  14.144   9.633   2.541
97571SOL     OW94551   7.332  10.936   5.207
97571SOL    HW194552   7.304  11.003   5.145
97571SOL    HW294553   7.309  10.853   5.166
97572SOL     OW94554   9.858   5.262  13.266
97572SOL    HW194555   9.896   5.217  13.191
97572SOL    HW294556   9.800   5.197  13.307
97573SOL     OW94557   8.796   5.313  12.857
97573SOL    HW194558   8.831   5.257  12.926
97573SOL    HW294559   8.741   5.256  12.804
97574SOL     OW94560  10.284   6.318   1.128
97574SOL    HW194561  10.245   6.277   1.205
97574SOL    HW294562  10.355   6.371   1.162
97575SOL     OW94563   7.774  11.486   5.558
97575SOL    HW194564   7.774  11.527   5.645
97575SOL    HW294565   7.700  11.425   5.560
97576SOL     OW94566   9.120   5.909   8.960
97576SOL    HW194567   9.044   5.853   8.949
97576SOL    HW294568   9.086   5.987   9.005
97577SOL     OW94569   6.143  11.042   1.014
97577SOL    HW194570   6.068  10.988   1.039
97577SOL    HW294571   6.153  11.028   0.920
97578SOL     OW94572   3.870  14.669   6.874
97578SOL    HW194573   3.855  14.593   6.930
97578SOL    HW294574   3.783  14.704   6.855
97579SOL     OW94575   1.844   4.259   9.532
97579SOL    HW194576   1.749   4.272   9.526
97579SOL    HW294577   1.864   4.195   9.465
97580SOL     OW94578   8.287   9.404   6.712
97580SOL    HW194579   8.337   9.450   6.779
97580SOL    HW294580   8.352   9.378   6.647
97581SOL     OW94581   5.429  12.777   2.747
97581SOL    HW194582   5.445  12.748   2.658
97581SOL    HW294583   5.334  12.780   2.755
97582SOL     OW94584   9.478   5.652   7.682
97582SOL    HW194585   9.482   5.744   7.706
97582SOL    HW294586   9.398   5.619   7.723
97583SOL     OW94587   9.237   9.557  13.688
97583SOL    HW194588   9.199   9.470  13.703
97583SOL    HW294589   9.329   9.540  13.670
97584SOL     OW94590   3.858   3.773  13.841
97584SOL    HW194591   3.844   3.688  13.881
97584SOL    HW294592   3.907   3.823  13.907
97585SOL     OW94593   0.766   2.577  12.090
97585SOL    HW194594   0.702   2.620  12.146
97585SOL    HW294595   0.844   2.568  12.146
97586SOL     OW94596   8.497   3.041   2.453
97586SOL    HW194597   8.491   3.005   2.541
97586SOL    HW294598   8.591   3.048   2.436
97587SOL     OW94599   0.158   9.899   9.247
97587SOL    HW194600   0.103   9.925   9.174
97587SOL    HW294601   0.104   9.837   9.296
97588SOL     OW94602  12.067  10.385   3.941
97588SOL    HW194603  12.064  10.480   3.931
97588SOL    HW294604  12.049  10.370   4.034
97589SOL     OW94605   7.228   2.483   5.576
97589SOL    HW194606   7.205   2.401   5.619
97589SOL    HW294607   7.167   2.547   5.612
97590SOL     OW94608   5.800   3.931  14.814
97590SOL    HW194609   5.811   4.023  14.790
97590SOL    HW294610   5.884   3.891  14.792
97591SOL     OW94611   2.950   7.341   5.555
97591SOL    HW194612   3.020   7.353   5.621
97591SOL    HW294613   2.906   7.426   5.552
97592SOL     OW94614   7.716  14.182  10.669
97592SOL    HW194615   7.720  14.273  10.699
97592SOL    HW294616   7.679  14.134  10.743
97593SOL     OW94617   7.145   3.323  13.895
97593SOL    HW194618   7.149   3.413  13.862
97593SOL    HW294619   7.201   3.323  13.972
97594SOL     OW94620  10.144  10.357  12.219
97594SOL    HW194621  10.106  10.276  12.184
97594SOL    HW294622  10.205  10.385  12.151
97595SOL     OW94623   9.505  10.102   7.002
97595SOL    HW194624   9.516  10.011   7.029
97595SOL    HW294625   9.527  10.153   7.079
97596SOL     OW94626   8.323  10.347   1.342
97596SOL    HW194627   8.411  10.310   1.331
97596SOL    HW294628   8.317  10.368   1.436
97597SOL     OW94629  10.631   8.567   2.976
97597SOL    HW194630  10.699   8.617   3.022
97597SOL    HW294631  10.549   8.597   3.015
97598SOL     OW94632   3.055   5.782   0.928
97598SOL    HW194633   3.097   5.786   0.842
97598SOL    HW294634   2.969   5.821   0.914
97599SOL     OW94635  11.913   8.852   5.180
97599SOL    HW194636  11.916   8.947   5.191
97599SOL    HW294637  11.991   8.831   5.128
97600SOL     OW94638   6.178   9.223   0.469
97600SOL    HW194639   6.155   9.211   0.561
97600SOL    HW294640   6.268   9.192   0.463
97601SOL     OW94641  10.644   7.827  11.726
97601SOL    HW194642  10.609   7.836  11.637
97601SOL    HW294643  10.624   7.911  11.768
97602SOL     OW94644   2.581  10.769   4.429
97602SOL    HW194645   2.623  10.684   4.431
97602SOL    HW294646   2.525  10.770   4.507
97603SOL     OW94647  11.687   2.722  11.290
97603SOL    HW194648  11.654   2.644  11.334
97603SOL    HW294649  11.747   2.689  11.223
97604SOL     OW94650   2.451  13.497   5.483
97604SOL    HW194651   2.439  13.428   5.549
97604SOL    HW294652   2.409  13.574   5.521
97605SOL     OW94653   3.270   1.818  12.883
97605SOL    HW194654   3.278   1.883  12.952
97605SOL    HW294655   3.250   1.736  12.928
97606SOL     OW94656   0.994   6.246   5.707
97606SOL    HW194657   1.047   6.201   5.642
97606SOL    HW294658   0.906   6.209   5.697
97607SOL     OW94659   7.721   4.522   1.243
97607SOL    HW194660   7.802   4.474   1.262
97607SOL    HW294661   7.744   4.578   1.169
97608SOL     OW94662   5.100   6.014  12.264
97608SOL    HW194663   5.076   6.067  12.188
97608SOL    HW294664   5.086   5.924  12.235
97609SOL     OW94665  10.393   0.880  12.885
97609SOL    HW194666  10.464   0.816  12.881
97609SOL    HW294667  10.326   0.838  12.939
97610SOL     OW94668   9.489   1.146   2.408
97610SOL    HW194669   9.528   1.133   2.321
97610SOL    HW294670   9.562   1.140   2.469
97611SOL     OW94671   5.656   2.723   5.769
97611SOL    HW194672   5.711   2.789   5.811
97611SOL    HW294673   5.699   2.706   5.685
97612SOL     OW94674   3.007   8.124   3.967
97612SOL    HW194675   3.061   8.199   3.942
97612SOL    HW294676   3.070   8.054   3.984
97613SOL     OW94677   1.508   3.094   5.820
97613SOL    HW194678   1.551   3.014   5.848
97613SOL    HW294679   1.554   3.120   5.740
97614SOL     OW94680   8.076   7.319   8.712
97614SOL    HW194681   8.094   7.351   8.624
97614SOL    HW294682   8.081   7.223   8.704
97615SOL     OW94683   1.138   4.742   9.683
97615SOL    HW194684   1.069   4.676   9.693
97615SOL    HW294685   1.217   4.692   9.662
97616SOL     OW94686   3.483   0.535   0.107
97616SOL    HW194687   3.437   0.474   0.050
97616SOL    HW294688   3.564   0.490   0.130
97617SOL     OW94689   5.868  11.900  10.845
97617SOL    HW194690   5.884  11.936  10.931
97617SOL    HW294691   5.935  11.940  10.789
97618SOL     OW94692   6.872   6.913   0.929
97618SOL    HW194693   6.779   6.934   0.920
97618SOL    HW294694   6.892   6.934   1.020
97619SOL     OW94695  13.375   8.830   2.686
97619SOL    HW194696  13.435   8.823   2.612
97619SOL    HW294697  13.341   8.919   2.682
97620SOL     OW94698  13.302   0.985   5.230
97620SOL    HW194699  13.348   1.067   5.216
97620SOL    HW294700  13.286   0.951   5.142
97621SOL     OW94701   7.423   9.056   0.814
97621SOL    HW194702   7.428   9.133   0.870
97621SOL    HW294703   7.514   9.037   0.792
97622SOL     OW94704  14.680   7.910   1.024
97622SOL    HW194705  14.749   7.909   1.091
97622SOL    HW294706  14.610   7.962   1.063
97623SOL     OW94707   3.795  10.834  13.912
97623SOL    HW194708   3.754  10.748  13.900
97623SOL    HW294709   3.756  10.889  13.844
97624SOL     OW94710  10.386  14.197  11.174
97624SOL    HW194711  10.454  14.200  11.106
97624SOL    HW294712  10.414  14.262  11.239
97625SOL     OW94713   6.850   9.271   1.669
97625SOL    HW194714   6.815   9.250   1.756
97625SOL    HW294715   6.792   9.340   1.636
97626SOL     OW94716   0.218  12.988   7.967
97626SOL    HW194717   0.269  13.036   7.902
97626SOL    HW294718   0.218  13.044   8.044
97627SOL     OW94719   6.763   2.563  13.685
97627SOL    HW194720   6.673   2.576  13.655
97627SOL    HW294721   6.760   2.584  13.778
97628SOL     OW94722   4.792   6.583   3.464
97628SOL    HW194723   4.739   6.607   3.388
97628SOL    HW294724   4.827   6.667   3.495
97629SOL     OW94725   9.569   8.614   9.420
97629SOL    HW194726   9.503   8.678   9.392
97629SOL    HW294727   9.528   8.568   9.494
97630SOL     OW94728   3.060   1.373   9.302
97630SOL    HW194729   3.055   1.300   9.364
97630SOL    HW294730   3.150   1.372   9.270
97631SOL     OW94731  12.317   5.965  13.300
97631SOL    HW194732  12.282   6.035  13.356
97631SOL    HW294733  12.271   5.886  13.329
97632SOL     OW94734   9.824   1.303   9.238
97632SOL    HW194735   9.881   1.298   9.314
97632SOL    HW294736   9.738   1.327   9.273
97633SOL     OW94737   8.870  14.683  12.411
97633SOL    HW194738   8.933  14.665  12.481
97633SOL    HW294739   8.807  14.743  12.451
97634SOL     OW94740   5.289   3.929   7.626
97634SOL    HW194741   5.248   3.934   7.712
97634SOL    HW294742   5.347   4.005   7.623
97635SOL     OW94743   6.517   4.329  10.573
97635SOL    HW194744   6.450   4.291  10.517
97635SOL    HW294745   6.553   4.255  10.622
97636SOL     OW94746  10.637   4.589   2.200
97636SOL    HW194747  10.691   4.618   2.126
97636SOL    HW294748  10.680   4.627   2.277
97637SOL     OW94749   2.994   9.329   8.486
97637SOL    HW194750   2.963   9.248   8.447
97637SOL    HW294751   2.990   9.314   8.580
97638SOL     OW94752  11.408  14.394  10.324
97638SOL    HW194753  11.323  14.372  10.362
97638SOL    HW294754  11.391  14.470  10.268
97639SOL     OW94755   6.282   8.560   6.009
97639SOL    HW194756   6.205   8.503   6.009
97639SOL    HW294757   6.277   8.607   6.093
97640SOL     OW94758   7.084  10.964   6.191
97640SOL    HW194759   7.030  11.032   6.152
97640SOL    HW294760   7.126  10.921   6.117
97641SOL     OW94761   0.240   3.295  14.657
97641SOL    HW194762   0.156   3.326  14.622
97641SOL    HW294763   0.218   3.260  14.744
97642SOL     OW94764   8.998   6.457  11.333
97642SOL    HW194765   9.009   6.551  11.345
97642SOL    HW294766   8.903   6.445  11.328
97643SOL     OW94767   3.869   3.581  12.864
97643SOL    HW194768   3.787   3.538  12.890
97643SOL    HW294769   3.851   3.615  12.777
97644SOL     OW94770   5.497   7.479  14.206
97644SOL    HW194771   5.538   7.477  14.293
97644SOL    HW294772   5.474   7.387  14.188
97645SOL     OW94773   2.071   5.748   4.938
97645SOL    HW194774   2.143   5.781   4.992
97645SOL    HW294775   2.112   5.725   4.855
97646SOL     OW94776   6.010   1.590   5.450
97646SOL    HW194777   5.995   1.611   5.357
97646SOL    HW294778   5.938   1.531   5.472
97647SOL     OW94779  14.527   8.303  14.465
97647SOL    HW194780  14.538   8.327  14.557
97647SOL    HW294781  14.546   8.383  14.416
97648SOL     OW94782  13.723  12.563   4.127
97648SOL    HW194783  13.656  12.624   4.159
97648SOL    HW294784  13.743  12.594   4.039
97649SOL     OW94785   2.899   6.261   2.379
97649SOL    HW194786   2.839   6.252   2.453
97649SOL    HW294787   2.986   6.270   2.419
97650SOL     OW94788  10.676  13.644   2.381
97650SOL    HW194789  10.622  13.616   2.307
97650SOL    HW294790  10.650  13.735   2.397
97651SOL     OW94791   6.446  13.103   3.962
97651SOL    HW194792   6.460  13.086   3.869
97651SOL    HW294793   6.481  13.191   3.976
97652SOL     OW94794  10.659  14.517  10.007
97652SOL    HW194795  10.641  14.604   9.972
97652SOL    HW294796  10.587  14.499  10.067
97653SOL     OW94797  13.221  14.086  13.923
97653SOL    HW194798  13.262  14.000  13.918
97653SOL    HW294799  13.127  14.070  13.915
97654SOL     OW94800   4.663   9.051   9.284
97654SOL    HW194801   4.670   8.985   9.215
97654SOL    HW294802   4.662   9.000   9.365
97655SOL     OW94803   7.331   2.824   3.027
97655SOL    HW194804   7.266   2.894   3.015
97655SOL    HW294805   7.290   2.765   3.090
97656SOL     OW94806   0.426   7.154   0.451
97656SOL    HW194807   0.394   7.244   0.447
97656SOL    HW294808   0.378   7.114   0.524
97657SOL     OW94809   9.037   5.808   0.982
97657SOL    HW194810   8.971   5.799   0.913
97657SOL    HW294811   9.048   5.902   0.993
97658SOL     OW94812   8.258   6.925   8.755
97658SOL    HW194813   8.288   6.865   8.822
97658SOL    HW294814   8.338   6.966   8.721
97659SOL     OW94815  10.182  11.446   5.230
97659SOL    HW194816  10.265  11.414   5.195
97659SOL    HW294817  10.144  11.370   5.274
97660SOL     OW94818   6.451   9.120   8.646
97660SOL    HW194819   6.543   9.107   8.623
97660SOL    HW294820   6.442   9.215   8.653
97661SOL     OW94821  11.255  10.634   9.572
97661SOL    HW194822  11.207  10.567   9.524
97661SOL    HW294823  11.189  10.681   9.622
97662SOL     OW94824   2.804   5.996   3.769
97662SOL    HW194825   2.796   5.905   3.797
97662SOL    HW294826   2.893   6.004   3.737
97663SOL     OW94827  10.479   3.611   9.835
97663SOL    HW194828  10.543   3.682   9.829
97663SOL    HW294829  10.418   3.640   9.903
97664SOL     OW94830   2.388   8.525  14.760
97664SOL    HW194831   2.354   8.487  14.679
97664SOL    HW294832   2.475   8.487  14.770
97665SOL     OW94833  12.214   0.745  10.535
97665SOL    HW194834  12.182   0.823  10.490
97665SOL    HW294835  12.153   0.676  10.511
97666SOL     OW94836  14.484   3.782   4.550
97666SOL    HW194837  14.447   3.870   4.544
97666SOL    HW294838  14.443   3.734   4.478
97667SOL     OW94839  11.692   7.242   9.167
97667SOL    HW194840  11.707   7.167   9.225
97667SOL    HW294841  11.640   7.303   9.219
97668SOL     OW94842   0.701  11.186   0.069
97668SOL    HW194843   0.774  11.246   0.057
97668SOL    HW294844   0.638  11.235   0.123
97669SOL     OW94845  14.098   7.564   2.327
97669SOL    HW194846  14.157   7.577   2.401
97669SOL    HW294847  14.048   7.485   2.349
97670SOL     OW94848   8.349  11.702   6.627
97670SOL    HW194849   8.297  11.624   6.610
97670SOL    HW294850   8.439  11.670   6.637
97671SOL     OW94851   1.421   8.969   8.797
97671SOL    HW194852   1.335   9.012   8.793
97671SOL    HW294853   1.438   8.942   8.707
97672SOL     OW94854  11.391   5.697   9.967
97672SOL    HW194855  11.483   5.721   9.954
97672SOL    HW294856  11.389   5.660  10.055
97673SOL     OW94857   5.855   3.222   9.628
97673SOL    HW194858   5.801   3.159   9.676
97673SOL    HW294859   5.892   3.278   9.696
97674SOL     OW94860   3.487   7.623   5.677
97674SOL    HW194861   3.514   7.561   5.609
97674SOL    HW294862   3.567   7.642   5.726
97675SOL     OW94863   6.554  14.294  14.351
97675SOL    HW194864   6.581  14.241  14.425
97675SOL    HW294865   6.500  14.236  14.298
97676SOL     OW94866   3.246   7.262   6.363
97676SOL    HW194867   3.214   7.216   6.286
97676SOL    HW294868   3.326   7.214   6.388
97677SOL     OW94869   8.673   6.480   5.388
97677SOL    HW194870   8.754   6.530   5.385
97677SOL    HW294871   8.694   6.397   5.346
97678SOL     OW94872  13.417   4.056   0.587
97678SOL    HW194873  13.406   4.018   0.500
97678SOL    HW294874  13.422   3.980   0.646
97679SOL     OW94875   6.981   5.699  13.096
97679SOL    HW194876   6.942   5.614  13.117
97679SOL    HW294877   7.020   5.688  13.009
97680SOL     OW94878   0.753   0.946  13.531
97680SOL    HW194879   0.749   0.854  13.556
97680SOL    HW294880   0.794   0.945  13.445
97681SOL     OW94881   9.060   2.422   6.730
97681SOL    HW194882   8.988   2.405   6.791
97681SOL    HW294883   9.124   2.353   6.748
97682SOL     OW94884   7.879   9.236   5.767
97682SOL    HW194885   7.815   9.200   5.706
97682SOL    HW294886   7.939   9.286   5.711
97683SOL     OW94887  12.085   5.671   7.752
97683SOL    HW194888  12.055   5.759   7.775
97683SOL    HW294889  12.006   5.625   7.725
97684SOL     OW94890   7.358  13.854  13.541
97684SOL    HW194891   7.401  13.768  13.534
97684SOL    HW294892   7.289  13.851  13.475
97685SOL     OW94893   9.424  13.778  11.352
97685SOL    HW194894   9.380  13.736  11.426
97685SOL    HW294895   9.461  13.706  11.302
97686SOL     OW94896  10.453   7.909   9.400
97686SOL    HW194897  10.451   7.938   9.309
97686SOL    HW294898  10.457   7.990   9.451
97687SOL     OW94899  11.192   8.743  13.208
97687SOL    HW194900  11.151   8.703  13.285
97687SOL    HW294901  11.238   8.671  13.165
97688SOL     OW94902   8.366  13.264   5.018
97688SOL    HW194903   8.458  13.289   5.019
97688SOL    HW294904   8.368  13.168   5.011
97689SOL     OW94905  11.515  10.330  14.371
97689SOL    HW194906  11.598  10.282  14.364
97689SOL    HW294907  11.451  10.264  14.396
97690SOL     OW94908  12.071   3.343   2.906
97690SOL    HW194909  12.081   3.249   2.888
97690SOL    HW294910  12.153   3.382   2.876
97691SOL     OW94911   4.058   6.816   9.458
97691SOL    HW194912   4.146   6.780   9.471
97691SOL    HW294913   4.022   6.824   9.546
97692SOL     OW94914   9.491   7.259   2.960
97692SOL    HW194915   9.481   7.226   3.049
97692SOL    HW294916   9.585   7.252   2.943
97693SOL     OW94917   4.172   8.955  10.493
97693SOL    HW194918   4.261   8.974  10.465
97693SOL    HW294919   4.166   8.991  10.581
97694SOL     OW94920   3.045   5.856   7.378
97694SOL    HW194921   3.056   5.765   7.352
97694SOL    HW294922   3.104   5.867   7.453
97695SOL     OW94923  11.993  13.027  11.418
97695SOL    HW194924  12.049  12.989  11.486
97695SOL    HW294925  11.966  12.952  11.365
97696SOL     OW94926   1.654   3.742   2.084
97696SOL    HW194927   1.651   3.687   2.005
97696SOL    HW294928   1.655   3.831   2.051
97697SOL     OW94929   2.798  12.375  11.103
97697SOL    HW194930   2.812  12.469  11.114
97697SOL    HW294931   2.856  12.351  11.031
97698SOL     OW94932   3.164   4.642  13.084
97698SOL    HW194933   3.189   4.564  13.034
97698SOL    HW294934   3.227   4.709  13.057
97699SOL     OW94935   7.679   9.353   6.739
97699SOL    HW194936   7.654   9.443   6.714
97699SOL    HW294937   7.646   9.299   6.667
97700SOL     OW94938   8.321   4.120   3.949
97700SOL    HW194939   8.227   4.134   3.937
97700SOL    HW294940   8.361   4.152   3.868
97701SOL     OW94941  11.252  13.633   3.057
97701SOL    HW194942  11.300  13.554   3.081
97701SOL    HW294943  11.253  13.687   3.136
97702SOL     OW94944   2.618   3.227  14.559
97702SOL    HW194945   2.621   3.136  14.589
97702SOL    HW294946   2.526   3.243  14.539
97703SOL     OW94947  13.856  14.258   7.283
97703SOL    HW194948  13.814  14.252   7.369
97703SOL    HW294949  13.789  14.230   7.221
97704SOL     OW94950   4.141   3.786   6.805
97704SOL    HW194951   4.218   3.803   6.751
97704SOL    HW294952   4.174   3.732   6.877
97705SOL     OW94953   8.939   9.252   9.185
97705SOL    HW194954   8.945   9.231   9.278
97705SOL    HW294955   8.936   9.348   9.181
97706SOL     OW94956  12.648   6.407   5.156
97706SOL    HW194957  12.648   6.324   5.203
97706SOL    HW294958  12.698   6.389   5.077
97707SOL     OW94959   6.787   1.093  12.062
97707SOL    HW194960   6.752   1.038  11.992
97707SOL    HW294961   6.881   1.096  12.046
97708SOL     OW94962  13.304  12.191  11.846
97708SOL    HW194963  13.313  12.160  11.936
97708SOL    HW294964  13.297  12.286  11.854
97709SOL     OW94965   1.893   0.095   9.683
97709SOL    HW194966   1.878   0.053   9.768
97709SOL    HW294967   1.987   0.115   9.683
97710SOL     OW94968  14.564  12.571  10.143
97710SOL    HW194969  14.555  12.541  10.053
97710SOL    HW294970  14.478  12.608  10.165
97711SOL     OW94971   4.248   4.804  10.856
97711SOL    HW194972   4.330   4.789  10.903
97711SOL    HW294973   4.223   4.894  10.878
97712SOL     OW94974   7.596   0.880   1.678
97712SOL    HW194975   7.606   0.866   1.772
97712SOL    HW294976   7.525   0.820   1.653
97713SOL     OW94977   4.585   7.224   3.410
97713SOL    HW194978   4.555   7.308   3.445
97713SOL    HW294979   4.523   7.204   3.340
97714SOL     OW94980   4.867  10.395  13.924
97714SOL    HW194981   4.921  10.346  13.985
97714SOL    HW294982   4.777  10.377  13.951
97715SOL     OW94983   4.171  10.719   1.851
97715SOL    HW194984   4.117  10.739   1.775
97715SOL    HW294985   4.219  10.640   1.826
97716SOL     OW94986   4.620   4.422   0.869
97716SOL    HW194987   4.674   4.356   0.914
97716SOL    HW294988   4.580   4.472   0.940
97717SOL     OW94989  13.214  14.668   7.361
97717SOL    HW194990  13.262  14.749   7.342
97717SOL    HW294991  13.271  14.598   7.330
97718SOL     OW94992   5.961   2.684   1.848
97718SOL    HW194993   5.905   2.666   1.773
97718SOL    HW294994   5.922   2.636   1.921
97719SOL     OW94995  13.588  13.408  11.042
97719SOL    HW194996  13.545  13.469  10.982
97719SOL    HW294997  13.680  13.433  11.039
97720SOL     OW94998   3.225  13.681   4.400
97720SOL    HW194999   3.175  13.718   4.328
97720SOL    HW295000   3.160  13.635   4.453
97721SOL     OW95001   6.335  14.765   7.713
97721SOL    HW195002   6.420  14.727   7.736
97721SOL    HW295003   6.343  14.858   7.736
97722SOL     OW95004   3.084  14.165   4.548
97722SOL    HW195005   3.091  14.242   4.604
97722SOL    HW295006   2.996  14.130   4.567
97723SOL     OW95007  12.356   4.494   2.081
97723SOL    HW195008  12.323   4.413   2.119
97723SOL    HW295009  12.451   4.489   2.092
97724SOL     OW95010   4.892  12.987  12.732
97724SOL    HW195011   4.895  13.018  12.641
97724SOL    HW295012   4.978  13.009  12.767
97725SOL     OW95013  14.199   8.676   4.557
97725SOL    HW195014  14.270   8.647   4.614
97725SOL    HW295015  14.225   8.763   4.528
97726SOL     OW95016   4.383  14.774   7.970
97726SOL    HW195017   4.305  14.804   8.016
97726SOL    HW295018   4.385  14.826   7.890
97727SOL     OW95019   7.846   9.464  11.888
97727SOL    HW195020   7.892   9.479  11.971
97727SOL    HW295021   7.908   9.414  11.835
97728SOL     OW95022  11.947  11.558   4.150
97728SOL    HW195023  12.027  11.593   4.111
97728SOL    HW295024  11.887  11.549   4.076
97729SOL     OW95025  14.494   8.530   5.029
97729SOL    HW195026  14.441   8.579   4.966
97729SOL    HW295027  14.535   8.598   5.083
97730SOL     OW95028  13.994   7.404   2.900
97730SOL    HW195029  14.047   7.476   2.933
97730SOL    HW295030  13.937   7.381   2.974
97731SOL     OW95031   1.881   1.874  10.638
97731SOL    HW195032   1.802   1.859  10.586
97731SOL    HW295033   1.853   1.862  10.729
97732SOL     OW95034  11.053   8.357   3.648
97732SOL    HW195035  11.000   8.396   3.718
97732SOL    HW295036  11.006   8.277   3.625
97733SOL     OW95037   0.388  12.375   0.080
97733SOL    HW195038   0.323  12.445   0.072
97733SOL    HW295039   0.391  12.356   0.174
97734SOL     OW95040   1.117   6.471   4.208
97734SOL    HW195041   1.103   6.565   4.192
97734SOL    HW295042   1.067   6.427   4.139
97735SOL     OW95043   3.717   4.039  10.896
97735SOL    HW195044   3.770   4.101  10.947
97735SOL    HW295045   3.779   3.996  10.838
97736SOL     OW95046   0.848  12.939  11.348
97736SOL    HW195047   0.893  12.915  11.428
97736SOL    HW295048   0.799  13.018  11.371
97737SOL     OW95049  11.531   1.151  13.057
97737SOL    HW195050  11.521   1.098  12.977
97737SOL    HW295051  11.447   1.197  13.065
97738SOL     OW95052   9.654  12.722   5.790
97738SOL    HW195053   9.636  12.774   5.712
97738SOL    HW295054   9.709  12.650   5.758
97739SOL     OW95055   5.834   7.695   5.225
97739SOL    HW195056   5.772   7.709   5.154
97739SOL    HW295057   5.915   7.668   5.182
97740SOL     OW95058   3.804   4.764   4.416
97740SOL    HW195059   3.733   4.703   4.435
97740SOL    HW295060   3.796   4.781   4.322
97741SOL     OW95061  13.270   3.381   3.204
97741SOL    HW195062  13.310   3.351   3.123
97741SOL    HW295063  13.249   3.473   3.188
97742SOL     OW95064   6.991   0.936   9.247
97742SOL    HW195065   6.913   0.923   9.301
97742SOL    HW295066   7.048   0.992   9.300
97743SOL     OW95067   6.709  14.030  13.952
97743SOL    HW195068   6.776  13.973  13.990
97743SOL    HW295069   6.751  14.116  13.945
97744SOL     OW95070   8.132   0.315   0.650
97744SOL    HW195071   8.056   0.267   0.682
97744SOL    HW295072   8.148   0.382   0.717
97745SOL     OW95073  12.099   5.109  13.550
97745SOL    HW195074  12.102   5.062  13.633
97745SOL    HW295075  12.109   5.042  13.483
97746SOL     OW95076   3.547   4.841   3.168
97746SOL    HW195077   3.572   4.754   3.198
97746SOL    HW295078   3.452   4.843   3.176
97747SOL     OW95079   1.896   3.684  13.587
97747SOL    HW195080   1.883   3.602  13.635
97747SOL    HW295081   1.982   3.675  13.546
97748SOL     OW95082   2.810  10.505   2.131
97748SOL    HW195083   2.862  10.431   2.098
97748SOL    HW295084   2.765  10.538   2.053
97749SOL     OW95085  11.180   3.278   7.280
97749SOL    HW195086  11.170   3.234   7.364
97749SOL    HW295087  11.138   3.219   7.217
97750SOL     OW95088  12.031  12.372   8.306
97750SOL    HW195089  11.964  12.388   8.372
97750SOL    HW295090  12.031  12.277   8.295
97751SOL     OW95091   8.874  10.624   8.602
97751SOL    HW195092   8.846  10.608   8.511
97751SOL    HW295093   8.842  10.548   8.650
97752SOL     OW95094   1.281  12.663   0.365
97752SOL    HW195095   1.284  12.748   0.322
97752SOL    HW295096   1.368  12.653   0.404
97753SOL     OW95097   7.428  10.507   8.146
97753SOL    HW195098   7.405  10.419   8.175
97753SOL    HW295099   7.352  10.538   8.098
97754SOL     OW95100   4.931   3.353   7.175
97754SOL    HW195101   4.921   3.258   7.169
97754SOL    HW295102   4.857   3.382   7.228
97755SOL     OW95103  12.671   4.804   9.598
97755SOL    HW195104  12.627   4.888   9.607
97755SOL    HW295105  12.662   4.782   9.505
97756SOL     OW95106  11.226  12.127  10.496
97756SOL    HW195107  11.210  12.032  10.494
97756SOL    HW295108  11.319  12.135  10.473
97757SOL     OW95109  14.472   4.212   6.455
97757SOL    HW195110  14.404   4.150   6.430
97757SOL    HW295111  14.441   4.251   6.536
97758SOL     OW95112   1.927   7.339  14.469
97758SOL    HW195113   2.003   7.297  14.430
97758SOL    HW295114   1.894   7.275  14.532
97759SOL     OW95115   6.166  11.132  10.831
97759SOL    HW195116   6.126  11.065  10.887
97759SOL    HW295117   6.225  11.179  10.889
97760SOL     OW95118  13.841  11.390   0.913
97760SOL    HW195119  13.921  11.358   0.955
97760SOL    HW295120  13.869  11.469   0.866
97761SOL     OW95121   8.762   8.898   0.391
97761SOL    HW195122   8.670   8.897   0.362
97761SOL    HW295123   8.764   8.838   0.465
97762SOL     OW95124   1.620   0.575   9.264
97762SOL    HW195125   1.687   0.584   9.196
97762SOL    HW295126   1.670   0.572   9.346
97763SOL     OW95127   8.006  14.367   0.615
97763SOL    HW195128   7.940  14.430   0.585
97763SOL    HW295129   8.072  14.421   0.657
97764SOL     OW95130  14.435   6.127   8.722
97764SOL    HW195131  14.382   6.159   8.648
97764SOL    HW295132  14.438   6.202   8.782
97765SOL     OW95133   4.032   0.286   5.330
97765SOL    HW195134   4.064   0.206   5.374
97765SOL    HW295135   4.049   0.271   5.237
97766SOL     OW95136   9.122   5.874  14.552
97766SOL    HW195137   9.183   5.899  14.622
97766SOL    HW295138   9.124   5.948  14.491
97767SOL     OW95139  10.524  10.480   0.495
97767SOL    HW195140  10.526  10.386   0.515
97767SOL    HW295141  10.438  10.510   0.524
97768SOL     OW95142   7.550   9.167   9.827
97768SOL    HW195143   7.603   9.240   9.794
97768SOL    HW295144   7.585   9.090   9.782
97769SOL     OW95145   4.289  10.258   6.592
97769SOL    HW195146   4.262  10.322   6.658
97769SOL    HW295147   4.383  10.247   6.606
97770SOL     OW95148   3.067  12.165  10.145
97770SOL    HW195149   3.096  12.078  10.170
97770SOL    HW295150   3.041  12.156  10.053
97771SOL     OW95151   1.780  12.365  11.796
97771SOL    HW195152   1.864  12.352  11.751
97771SOL    HW295153   1.786  12.452  11.834
97772SOL     OW95154   8.285   5.402   5.454
97772SOL    HW195155   8.237   5.358   5.384
97772SOL    HW295156   8.240   5.486   5.464
97773SOL     OW95157  14.043   1.623   0.674
97773SOL    HW195158  14.138   1.623   0.685
97773SOL    HW295159  14.015   1.537   0.707
97774SOL     OW95160   3.692   2.883   2.702
97774SOL    HW195161   3.724   2.893   2.792
97774SOL    HW295162   3.617   2.942   2.697
97775SOL     OW95163   7.803   0.222   3.784
97775SOL    HW195164   7.797   0.127   3.791
97775SOL    HW295165   7.826   0.238   3.693
97776SOL     OW95166   3.563  11.568   6.309
97776SOL    HW195167   3.550  11.474   6.316
97776SOL    HW295168   3.653  11.578   6.278
97777SOL     OW95169   2.146  13.682   9.085
97777SOL    HW195170   2.160  13.720   9.172
97777SOL    HW295171   2.051  13.689   9.072
97778SOL     OW95172   8.783  14.319   3.759
97778SOL    HW195173   8.816  14.238   3.721
97778SOL    HW295174   8.726  14.290   3.830
97779SOL     OW95175   5.667   3.864   8.246
97779SOL    HW195176   5.725   3.895   8.316
97779SOL    HW295177   5.582   3.902   8.267
97780SOL     OW95178  13.099   6.142   8.534
97780SOL    HW195179  13.038   6.214   8.522
97780SOL    HW295180  13.181   6.173   8.496
97781SOL     OW95181   3.732  13.112   1.721
97781SOL    HW195182   3.672  13.136   1.791
97781SOL    HW295183   3.819  13.119   1.760
97782SOL     OW95184  13.396  11.682   7.041
97782SOL    HW195185  13.455  11.721   7.105
97782SOL    HW295186  13.412  11.588   7.046
97783SOL     OW95187  10.273  14.269   4.817
97783SOL    HW195188  10.312  14.317   4.744
97783SOL    HW295189  10.221  14.200   4.775
97784SOL     OW95190   3.074   1.936   2.943
97784SOL    HW195191   3.028   1.866   2.896
97784SOL    HW295192   3.005   2.001   2.960
97785SOL     OW95193   0.121  14.636  14.233
97785SOL    HW195194   0.067  14.708  14.202
97785SOL    HW295195   0.060  14.575  14.273
97786SOL     OW95196   0.219   7.546   2.705
97786SOL    HW195197   0.220   7.498   2.787
97786SOL    HW295198   0.303   7.526   2.663
97787SOL     OW95199   7.586   9.944  13.266
97787SOL    HW195200   7.623  10.028  13.240
97787SOL    HW295201   7.611   9.884  13.196
97788SOL     OW95202   1.097  10.602  10.010
97788SOL    HW195203   1.005  10.624   9.997
97788SOL    HW295204   1.141  10.637   9.933
97789SOL     OW95205   4.298   0.903  13.354
97789SOL    HW195206   4.330   0.896  13.444
97789SOL    HW295207   4.209   0.938  13.363
97790SOL     OW95208   4.701   9.820  13.094
97790SOL    HW195209   4.762   9.763  13.047
97790SOL    HW295210   4.754   9.898  13.115
97791SOL     OW95211  13.372  11.627   0.409
97791SOL    HW195212  13.376  11.721   0.428
97791SOL    HW295213  13.457  11.593   0.435
97792SOL     OW95214  12.591   5.920   2.920
97792SOL    HW195215  12.599   5.888   2.830
97792SOL    HW295216  12.505   5.962   2.923
97793SOL     OW95217   1.485   4.062   7.237
97793SOL    HW195218   1.482   4.051   7.142
97793SOL    HW295219   1.394   4.060   7.265
97794SOL     OW95220  12.559  12.651   6.645
97794SOL    HW195221  12.644  12.691   6.665
97794SOL    HW295222  12.507  12.664   6.724
97795SOL     OW95223  10.258   7.825   0.600
97795SOL    HW195224  10.283   7.744   0.555
97795SOL    HW295225  10.295   7.895   0.546
97796SOL     OW95226   0.539  14.667   2.064
97796SOL    HW195227   0.621  14.665   2.113
97796SOL    HW295228   0.565  14.680   1.973
97797SOL     OW95229   5.236  13.119  13.124
97797SOL    HW195230   5.325  13.114  13.089
97797SOL    HW295231   5.234  13.201  13.172
97798SOL     OW95232   8.900   3.008   6.508
97798SOL    HW195233   8.938   3.079   6.560
97798SOL    HW295234   8.864   2.947   6.573
97799SOL     OW95235   8.200  11.917   9.630
97799SOL    HW195236   8.236  11.863   9.560
97799SOL    HW295237   8.264  11.988   9.640
97800SOL     OW95238  14.443   8.499   5.791
97800SOL    HW195239  14.350   8.478   5.785
97800SOL    HW295240  14.485   8.442   5.726
97801SOL     OW95241  14.572   1.212   3.738
97801SOL    HW195242  14.490   1.177   3.771
97801SOL    HW295243  14.637   1.189   3.805
97802SOL     OW95244  14.027   5.423   5.382
97802SOL    HW195245  14.116   5.390   5.371
97802SOL    HW295246  14.038   5.518   5.396
97803SOL     OW95247   0.730   1.744  11.416
97803SOL    HW195248   0.661   1.771  11.477
97803SOL    HW295249   0.807   1.730  11.471
97804SOL     OW95250  14.254   7.177   9.751
97804SOL    HW195251  14.197   7.247   9.783
97804SOL    HW295252  14.240   7.177   9.656
97805SOL     OW95253   8.310   9.653  12.830
97805SOL    HW195254   8.297   9.562  12.856
97805SOL    HW295255   8.225   9.680  12.796
97806SOL     OW95256   9.989  12.047   4.113
97806SOL    HW195257  10.064  11.989   4.097
97806SOL    HW295258  10.009  12.126   4.063
97807SOL     OW95259   5.976   6.632   0.584
97807SOL    HW195260   5.964   6.567   0.515
97807SOL    HW295261   5.916   6.703   0.561
97808SOL     OW95262  12.262  12.770   2.857
97808SOL    HW195263  12.221  12.808   2.935
97808SOL    HW295264  12.355  12.787   2.869
97809SOL     OW95265   7.587   5.247   1.648
97809SOL    HW195266   7.662   5.266   1.704
97809SOL    HW295267   7.511   5.279   1.697
97810SOL     OW95268   7.753  11.422  11.009
97810SOL    HW195269   7.742  11.483  10.937
97810SOL    HW295270   7.682  11.444  11.070
97811SOL     OW95271   7.537   8.927   9.274
97811SOL    HW195272   7.469   8.877   9.228
97811SOL    HW295273   7.491   9.003   9.310
97812SOL     OW95274  12.346  12.326   8.438
97812SOL    HW195275  12.315  12.288   8.521
97812SOL    HW295276  12.266  12.345   8.389
97813SOL     OW95277   1.657   6.173   2.229
97813SOL    HW195278   1.580   6.225   2.251
97813SOL    HW295279   1.645   6.148   2.138
97814SOL     OW95280   0.169   6.632  10.467
97814SOL    HW195281   0.167   6.542  10.499
97814SOL    HW295282   0.090   6.641  10.414
97815SOL     OW95283   9.391  11.434   4.358
97815SOL    HW195284   9.334  11.420   4.282
97815SOL    HW295285   9.374  11.359   4.415
97816SOL     OW95286   0.915   9.570  12.148
97816SOL    HW195287   0.973   9.625  12.200
97816SOL    HW295288   0.966   9.549  12.070
97817SOL     OW95289  12.941  12.358   4.784
97817SOL    HW195290  12.864  12.414   4.771
97817SOL    HW295291  12.978  12.348   4.696
97818SOL     OW95292   6.798   8.592  11.394
97818SOL    HW195293   6.868   8.622  11.452
97818SOL    HW295294   6.844   8.553  11.319
97819SOL     OW95295  13.883   4.777  12.196
97819SOL    HW195296  13.824   4.766  12.121
97819SOL    HW295297  13.962   4.817  12.159
97820SOL     OW95298  11.971   4.857   6.761
97820SOL    HW195299  11.898   4.881   6.818
97820SOL    HW295300  11.949   4.897   6.676
97821SOL     OW95301   3.322   0.199  14.018
97821SOL    HW195302   3.345   0.229  14.107
97821SOL    HW295303   3.232   0.169  14.026
97822SOL     OW95304  14.657   3.478   3.494
97822SOL    HW195305  14.606   3.444   3.567
97822SOL    HW295306  14.746   3.446   3.510
97823SOL     OW95307  13.724  10.407   1.214
97823SOL    HW195308  13.692  10.423   1.125
97823SOL    HW295309  13.648  10.371   1.260
97824SOL     OW95310   3.586   1.142   7.931
97824SOL    HW195311   3.529   1.129   8.006
97824SOL    HW295312   3.526   1.154   7.857
97825SOL     OW95313   3.626   9.397  10.526
97825SOL    HW195314   3.555   9.402  10.590
97825SOL    HW295315   3.705   9.412  10.578
97826SOL     OW95316  14.297   4.239  11.297
97826SOL    HW195317  14.254   4.156  11.318
97826SOL    HW295318  14.337   4.224  11.211
97827SOL     OW95319   0.125   6.404   7.813
97827SOL    HW195320   0.088   6.492   7.821
97827SOL    HW295321   0.079   6.353   7.880
97828SOL     OW95322   6.649   9.652   1.347
97828SOL    HW195323   6.610   9.737   1.371
97828SOL    HW295324   6.736   9.675   1.314
97829SOL     OW95325  13.384  14.161   6.438
97829SOL    HW195326  13.391  14.130   6.348
97829SOL    HW295327  13.333  14.243   6.431
97830SOL     OW95328  13.802   6.561  12.724
97830SOL    HW195329  13.812   6.618  12.648
97830SOL    HW295330  13.715   6.522  12.714
97831SOL     OW95331   5.595   4.272  12.171
97831SOL    HW195332   5.676   4.317  12.198
97831SOL    HW295333   5.550   4.335  12.115
97832SOL     OW95334   0.014   6.480  12.766
97832SOL    HW195335  14.798   6.461  12.797
97832SOL    HW295336   0.021   6.429  12.685
97833SOL     OW95337   6.321   4.177   5.976
97833SOL    HW195338   6.253   4.111   5.988
97833SOL    HW295339   6.384   4.136   5.916
97834SOL     OW95340  10.097  11.351   4.493
97834SOL    HW195341  10.019  11.400   4.518
97834SOL    HW295342  10.150  11.414   4.444
97835SOL     OW95343  12.015  12.770   8.371
97835SOL    HW195344  11.972  12.778   8.456
97835SOL    HW295345  12.023  12.859   8.339
97836SOL     OW95346   4.499   1.524   8.875
97836SOL    HW195347   4.543   1.442   8.898
97836SOL    HW295348   4.568   1.589   8.876
97837SOL     OW95349  14.740  12.988  13.124
97837SOL    HW195350  14.651  12.994  13.090
97837SOL    HW295351  14.742  13.051  13.196
97838SOL     OW95352  13.174  13.629   5.631
97838SOL    HW195353  13.186  13.596   5.542
97838SOL    HW295354  13.193  13.723   5.624
97839SOL     OW95355  13.712   4.174  11.464
97839SOL    HW195356  13.730   4.093  11.512
97839SOL    HW295357  13.797   4.216  11.454
97840SOL     OW95358   4.954   5.900  11.395
97840SOL    HW195359   4.995   5.830  11.345
97840SOL    HW295360   5.025   5.938  11.447
97841SOL     OW95361   3.592   8.482   7.466
97841SOL    HW195362   3.661   8.418   7.452
97841SOL    HW295363   3.528   8.437   7.521
97842SOL     OW95364   0.174   1.235   5.385
97842SOL    HW195365   0.163   1.324   5.418
97842SOL    HW295366   0.266   1.215   5.402
97843SOL     OW95367   6.585   2.025   6.857
97843SOL    HW195368   6.588   1.935   6.890
97843SOL    HW295369   6.504   2.030   6.807
97844SOL     OW95370   9.452  13.822  13.984
97844SOL    HW195371   9.385  13.755  13.971
97844SOL    HW295372   9.533  13.772  13.997
97845SOL     OW95373  14.403  13.220  13.306
97845SOL    HW195374  14.474  13.242  13.367
97845SOL    HW295375  14.334  13.184  13.361
97846SOL     OW95376   3.828   5.004   7.977
97846SOL    HW195377   3.740   5.027   7.946
97846SOL    HW295378   3.815   4.921   8.023
97847SOL     OW95379   5.952  13.439   0.968
97847SOL    HW195380   5.873  13.452   0.916
97847SOL    HW295381   5.996  13.365   0.927
97848SOL     OW95382   4.033   4.936   0.210
97848SOL    HW195383   3.997   4.974   0.290
97848SOL    HW295384   3.958   4.928   0.151
97849SOL     OW95385   7.752   3.067   4.836
97849SOL    HW195386   7.659   3.059   4.815
97849SOL    HW295387   7.757   3.056   4.931
97850SOL     OW95388  12.201  12.487   6.893
97850SOL    HW195389  12.258  12.433   6.838
97850SOL    HW295390  12.113  12.453   6.877
97851SOL     OW95391   3.655   4.337   7.616
97851SOL    HW195392   3.713   4.308   7.545
97851SOL    HW295393   3.644   4.431   7.600
97852SOL     OW95394   1.342   8.635   2.310
97852SOL    HW195395   1.415   8.664   2.365
97852SOL    HW295396   1.360   8.543   2.293
97853SOL     OW95397   7.520   8.430   9.471
97853SOL    HW195398   7.524   8.417   9.566
97853SOL    HW295399   7.612   8.441   9.445
97854SOL     OW95400  11.594  14.464  11.433
97854SOL    HW195401  11.579  14.378  11.394
97854SOL    HW295402  11.639  14.446  11.516
97855SOL     OW95403  11.385   7.134   2.263
97855SOL    HW195404  11.291   7.143   2.278
97855SOL    HW295405  11.423   7.126   2.350
97856SOL     OW95406   8.150   6.451  11.723
97856SOL    HW195407   8.077   6.505  11.693
97856SOL    HW295408   8.215   6.457  11.653
97857SOL     OW95409   8.225   1.497   4.888
97857SOL    HW195410   8.133   1.486   4.867
97857SOL    HW295411   8.267   1.416   4.859
97858SOL     OW95412   7.015   6.751   5.252
97858SOL    HW195413   7.066   6.815   5.203
97858SOL    HW295414   7.005   6.677   5.192
97859SOL     OW95415  13.230  10.253   5.627
97859SOL    HW195416  13.165  10.187   5.602
97859SOL    HW295417  13.312  10.205   5.635
97860SOL     OW95418  14.005   0.427   9.038
97860SOL    HW195419  14.087   0.399   8.996
97860SOL    HW295420  13.939   0.422   8.969
97861SOL     OW95421   3.454  11.057   9.422
97861SOL    HW195422   3.447  10.980   9.365
97861SOL    HW295423   3.546  11.058   9.449
97862SOL     OW95424   9.488   8.389  12.475
97862SOL    HW195425   9.416   8.349  12.425
97862SOL    HW295426   9.540   8.435  12.409
97863SOL     OW95427   5.347   9.981   7.197
97863SOL    HW195428   5.398   9.968   7.276
97863SOL    HW295429   5.275  10.039   7.223
97864SOL     OW95430  10.733   4.251  13.569
97864SOL    HW195431  10.659   4.255  13.509
97864SOL    HW295432  10.803   4.208  13.519
97865SOL     OW95433   6.031   5.011   7.986
97865SOL    HW195434   6.053   4.993   7.894
97865SOL    HW295435   6.090   5.081   8.012
97866SOL     OW95436   3.045  10.627  14.408
97866SOL    HW195437   2.978  10.592  14.467
97866SOL    HW295438   2.997  10.682  14.347
97867SOL     OW95439   4.518   1.832   9.175
97867SOL    HW195440   4.467   1.850   9.254
97867SOL    HW295441   4.520   1.737   9.169
97868SOL     OW95442   5.530  10.916  10.134
97868SOL    HW195443   5.489  10.831  10.117
97868SOL    HW295444   5.464  10.964  10.185
97869SOL     OW95445  12.839   3.506  13.252
97869SOL    HW195446  12.843   3.602  13.263
97869SOL    HW295447  12.808   3.474  13.337
97870SOL     OW95448  14.031   4.353  10.111
97870SOL    HW195449  14.067   4.265  10.118
97870SOL    HW295450  14.091   4.408  10.162
97871SOL     OW95451   7.406  10.840   8.176
97871SOL    HW195452   7.359  10.820   8.257
97871SOL    HW295453   7.498  10.823   8.198
97872SOL     OW95454   9.645   1.012   2.859
97872SOL    HW195455   9.741   1.010   2.860
97872SOL    HW295456   9.619   0.927   2.824
97873SOL     OW95457   7.905   2.879  11.298
97873SOL    HW195458   7.914   2.966  11.338
97873SOL    HW295459   7.996   2.851  11.282
97874SOL     OW95460   3.005   4.774  14.246
97874SOL    HW195461   2.941   4.764  14.316
97874SOL    HW295462   3.090   4.766  14.290
97875SOL     OW95463  10.322   9.022  13.551
97875SOL    HW195464  10.406   9.031  13.595
97875SOL    HW295465  10.277   8.952  13.598
97876SOL     OW95466   5.298   2.733   8.994
97876SOL    HW195467   5.214   2.699   8.965
97876SOL    HW295468   5.278   2.789   9.069
97877SOL     OW95469  14.821   1.962   6.192
97877SOL    HW195470  14.811   1.876   6.232
97877SOL    HW295471  14.764   2.019   6.242
97878SOL     OW95472   5.756  13.308   0.300
97878SOL    HW195473   5.745  13.226   0.251
97878SOL    HW295474   5.807  13.364   0.241
97879SOL     OW95475   4.440  12.724   3.819
97879SOL    HW195476   4.352  12.747   3.791
97879SOL    HW295477   4.497  12.767   3.755
97880SOL     OW95478   8.359   2.243   5.764
97880SOL    HW195479   8.310   2.311   5.718
97880SOL    HW295480   8.312   2.162   5.742
97881SOL     OW95481  11.538  14.048   2.591
97881SOL    HW195482  11.579  14.080   2.672
97881SOL    HW295483  11.611  14.011   2.540
97882SOL     OW95484   0.716   5.302   8.890
97882SOL    HW195485   0.695   5.395   8.881
97882SOL    HW295486   0.780   5.298   8.960
97883SOL     OW95487   4.648   2.858   8.739
97883SOL    HW195488   4.623   2.948   8.718
97883SOL    HW295489   4.661   2.858   8.834
97884SOL     OW95490   6.220   3.365   6.427
97884SOL    HW195491   6.222   3.270   6.439
97884SOL    HW295492   6.251   3.400   6.511
97885SOL     OW95493  13.421  11.500   2.168
97885SOL    HW195494  13.497  11.459   2.209
97885SOL    HW295495  13.380  11.430   2.117
97886SOL     OW95496  14.145  10.182   3.508
97886SOL    HW195497  14.166  10.275   3.499
97886SOL    HW295498  14.157  10.146   3.420
97887SOL     OW95499   8.314  13.774  12.448
97887SOL    HW195500   8.302  13.753  12.355
97887SOL    HW295501   8.409  13.769  12.461
97888SOL     OW95502   7.808   3.184   1.245
97888SOL    HW195503   7.718   3.161   1.223
97888SOL    HW295504   7.809   3.280   1.244
97889SOL     OW95505  13.859   3.515  10.360
97889SOL    HW195506  13.773   3.482  10.387
97889SOL    HW295507  13.852   3.528  10.265
97890SOL     OW95508  10.170  12.766   2.335
97890SOL    HW195509  10.222  12.736   2.259
97890SOL    HW295510  10.081  12.738   2.315
97891SOL     OW95511  13.456   3.438   7.392
97891SOL    HW195512  13.526   3.501   7.374
97891SOL    HW295513  13.376   3.481   7.361
97892SOL     OW95514   3.733  12.572   4.200
97892SOL    HW195515   3.705  12.588   4.110
97892SOL    HW295516   3.742  12.477   4.206
97893SOL     OW95517   9.944   0.784   8.326
97893SOL    HW195518   9.929   0.697   8.363
97893SOL    HW295519  10.039   0.788   8.312
97894SOL     OW95520   9.412   8.616  13.609
97894SOL    HW195521   9.401   8.540  13.666
97894SOL    HW295522   9.407   8.580  13.520
97895SOL     OW95523   3.749   2.286   7.289
97895SOL    HW195524   3.831   2.309   7.333
97895SOL    HW295525   3.729   2.198   7.322
97896SOL     OW95526   3.839   4.965   5.010
97896SOL    HW195527   3.894   4.929   5.080
97896SOL    HW295528   3.803   4.888   4.966
97897SOL     OW95529   8.032   4.733   0.552
97897SOL    HW195530   8.083   4.758   0.474
97897SOL    HW295531   7.963   4.676   0.518
97898SOL     OW95532   9.934  11.436   9.686
97898SOL    HW195533  10.003  11.477   9.738
97898SOL    HW295534   9.958  11.343   9.684
97899SOL     OW95535   1.700   7.193   2.557
97899SOL    HW195536   1.622   7.154   2.597
97899SOL    HW295537   1.671   7.279   2.526
97900SOL     OW95538  13.841   8.454  10.232
97900SOL    HW195539  13.758   8.486  10.197
97900SOL    HW295540  13.893   8.533  10.246
97901SOL     OW95541   9.061   6.665   3.097
97901SOL    HW195542   9.039   6.619   3.016
97901SOL    HW295543   9.086   6.753   3.069
97902SOL     OW95544   3.400   2.708   5.989
97902SOL    HW195545   3.493   2.691   6.007
97902SOL    HW295546   3.392   2.698   5.894
97903SOL     OW95547   8.348   4.686   2.873
97903SOL    HW195548   8.347   4.592   2.892
97903SOL    HW295549   8.262   4.704   2.836
97904SOL     OW95550   6.656  13.427   3.551
97904SOL    HW195551   6.734  13.385   3.515
97904SOL    HW295552   6.583  13.372   3.522
97905SOL     OW95553  14.108   7.599   0.240
97905SOL    HW195554  14.116   7.547   0.320
97905SOL    HW295555  14.096   7.533   0.171
97906SOL     OW95556  10.749   3.213   6.894
97906SOL    HW195557  10.838   3.238   6.869
97906SOL    HW295558  10.697   3.292   6.877
97907SOL     OW95559   1.828   0.790   0.884
97907SOL    HW195560   1.745   0.833   0.903
97907SOL    HW295561   1.862   0.764   0.969
97908SOL     OW95562   7.698  14.014  10.887
97908SOL    HW195563   7.692  13.988  10.978
97908SOL    HW295564   7.785  14.051  10.878
97909SOL     OW95565   4.387  12.024   2.323
97909SOL    HW195566   4.368  12.117   2.309
97909SOL    HW295567   4.347  11.980   2.248
97910SOL     OW95568  11.189   2.079   6.121
97910SOL    HW195569  11.153   2.152   6.071
97910SOL    HW295570  11.164   2.001   6.070
97911SOL     OW95571   5.188  10.170  10.913
97911SOL    HW195572   5.118  10.133  10.967
97911SOL    HW295573   5.187  10.264  10.934
97912SOL     OW95574  13.319   4.496   8.918
97912SOL    HW195575  13.248   4.437   8.943
97912SOL    HW295576  13.383   4.440   8.874
97913SOL     OW95577  13.397   1.704   4.024
97913SOL    HW195578  13.366   1.791   4.052
97913SOL    HW295579  13.486   1.720   3.992
97914SOL     OW95580   2.921  14.526  12.537
97914SOL    HW195581   3.002  14.474  12.540
97914SOL    HW295582   2.883  14.516  12.625
97915SOL     OW95583   7.669  12.161   3.773
97915SOL    HW195584   7.656  12.239   3.828
97915SOL    HW295585   7.715  12.194   3.696
97916SOL     OW95586   6.640  13.991  10.551
97916SOL    HW195587   6.728  13.974  10.583
97916SOL    HW295588   6.635  14.087  10.545
97917SOL     OW95589  10.278   6.724   7.914
97917SOL    HW195590  10.248   6.647   7.962
97917SOL    HW295591  10.221   6.795   7.944
97918SOL     OW95592   8.736   7.618  13.707
97918SOL    HW195593   8.807   7.579  13.758
97918SOL    HW295594   8.717   7.701  13.752
97919SOL     OW95595   9.109   0.811   5.475
97919SOL    HW195596   9.075   0.753   5.407
97919SOL    HW295597   9.082   0.770   5.557
97920SOL     OW95598   7.541   3.877   3.284
97920SOL    HW195599   7.584   3.809   3.232
97920SOL    HW295600   7.552   3.848   3.375
97921SOL     OW95601   5.172   2.439   8.987
97921SOL    HW195602   5.260   2.401   8.989
97921SOL    HW295603   5.165   2.479   8.900
97922SOL     OW95604   3.249   1.945   0.974
97922SOL    HW195605   3.289   1.859   0.984
97922SOL    HW295606   3.320   2.002   0.945
97923SOL     OW95607   9.350  14.522  14.421
97923SOL    HW195608   9.412  14.490  14.355
97923SOL    HW295609   9.382  14.610  14.443
97924SOL     OW95610  12.685   8.688  14.497
97924SOL    HW195611  12.644   8.700  14.411
97924SOL    HW295612  12.711   8.596  14.498
97925SOL     OW95613   4.473  13.236   7.218
97925SOL    HW195614   4.496  13.324   7.247
97925SOL    HW295615   4.519  13.225   7.135
97926SOL     OW95616  10.825  10.954   6.367
97926SOL    HW195617  10.846  10.861   6.363
97926SOL    HW295618  10.857  10.989   6.283
97927SOL     OW95619  11.416  12.646  10.890
97927SOL    HW195620  11.380  12.685  10.969
97927SOL    HW295621  11.409  12.552  10.904
97928SOL     OW95622  13.221   1.767  11.151
97928SOL    HW195623  13.272   1.842  11.120
97928SOL    HW295624  13.287   1.698  11.165
97929SOL     OW95625  13.921   5.145   6.139
97929SOL    HW195626  13.961   5.064   6.171
97929SOL    HW295627  13.882   5.120   6.055
97930SOL     OW95628  14.432   0.968  11.354
97930SOL    HW195629  14.429   1.035  11.287
97930SOL    HW295630  14.428   1.016  11.437
97931SOL     OW95631  12.311   0.368   7.328
97931SOL    HW195632  12.318   0.281   7.290
97931SOL    HW295633  12.338   0.358   7.419
97932SOL     OW95634   8.911  11.473  14.275
97932SOL    HW195635   8.855  11.549  14.289
97932SOL    HW295636   8.888  11.412  14.346
97933SOL     OW95637   1.836   0.436   1.593
97933SOL    HW195638   1.861   0.517   1.637
97933SOL    HW295639   1.747   0.452   1.561
97934SOL     OW95640   9.082  14.366   1.087
97934SOL    HW195641   9.002  14.318   1.108
97934SOL    HW295642   9.051  14.448   1.048
97935SOL     OW95643  12.786  10.761   4.297
97935SOL    HW195644  12.706  10.803   4.267
97935SOL    HW295645  12.757  10.677   4.333
97936SOL     OW95646   2.177  13.838   6.872
97936SOL    HW195647   2.096  13.831   6.922
97936SOL    HW295648   2.153  13.890   6.795
97937SOL     OW95649  12.769  10.644  12.459
97937SOL    HW195650  12.823  10.711  12.417
97937SOL    HW295651  12.811  10.561  12.436
97938SOL     OW95652   8.755   0.025   7.700
97938SOL    HW195653   8.810  14.836   7.747
97938SOL    HW295654   8.698   0.062   7.768
97939SOL     OW95655   0.490   4.343   9.462
97939SOL    HW195656   0.416   4.283   9.459
97939SOL    HW295657   0.455   4.427   9.435
97940SOL     OW95658   2.165   6.550   9.825
97940SOL    HW195659   2.119   6.500   9.757
97940SOL    HW295660   2.129   6.517   9.907
97941SOL     OW95661   1.957   1.245   6.009
97941SOL    HW195662   1.988   1.329   5.975
97941SOL    HW295663   1.875   1.229   5.961
97942SOL     OW95664   9.232  10.465  14.394
97942SOL    HW195665   9.286  10.393  14.426
97942SOL    HW295666   9.209  10.440  14.304
97943SOL     OW95667  14.445  11.585  11.529
97943SOL    HW195668  14.405  11.670  11.509
97943SOL    HW295669  14.381  11.540  11.583
97944SOL     OW95670  12.768   1.759  12.515
97944SOL    HW195671  12.786   1.694  12.583
97944SOL    HW295672  12.681   1.738  12.484
97945SOL     OW95673   5.539   3.699   8.737
97945SOL    HW195674   5.545   3.732   8.826
97945SOL    HW295675   5.594   3.758   8.685
97946SOL     OW95676  10.372   0.242   3.109
97946SOL    HW195677  10.366   0.217   3.202
97946SOL    HW295678  10.436   0.181   3.072
97947SOL     OW95679  10.764   6.558   7.446
97947SOL    HW195680  10.817   6.537   7.523
97947SOL    HW295681  10.719   6.477   7.425
97948SOL     OW95682   4.962   3.132   2.660
97948SOL    HW195683   4.970   3.206   2.720
97948SOL    HW295684   4.987   3.168   2.574
97949SOL     OW95685   5.935   2.267  12.458
97949SOL    HW195686   5.956   2.345  12.406
97949SOL    HW295687   6.004   2.204  12.437
97950SOL     OW95688   7.664   9.542   6.104
97950SOL    HW195689   7.748   9.520   6.063
97950SOL    HW295690   7.605   9.472   6.075
97951SOL     OW95691  10.824   8.161   5.209
97951SOL    HW195692  10.830   8.208   5.292
97951SOL    HW295693  10.734   8.127   5.206
97952SOL     OW95694   0.111  13.447   2.215
97952SOL    HW195695   0.017  13.429   2.221
97952SOL    HW295696   0.142  13.390   2.145
97953SOL     OW95697  13.630   4.858   7.700
97953SOL    HW195698  13.607   4.896   7.785
97953SOL    HW295699  13.549   4.858   7.651
97954SOL     OW95700   5.908  11.143   8.664
97954SOL    HW195701   5.828  11.195   8.672
97954SOL    HW295702   5.899  11.075   8.731
97955SOL     OW95703   2.944   0.037   8.725
97955SOL    HW195704   2.873  14.845   8.722
97955SOL    HW295705   2.963   0.055   8.633
97956SOL     OW95706   4.887   1.550   9.693
97956SOL    HW195707   4.886   1.472   9.636
97956SOL    HW295708   4.961   1.601   9.660
97957SOL     OW95709   5.168  12.987  11.975
97957SOL    HW195710   5.232  12.947  11.917
97957SOL    HW295711   5.199  12.964  12.063
97958SOL     OW95712   0.607   3.070  12.130
97958SOL    HW195713   0.518   3.061  12.097
97958SOL    HW295714   0.652   3.123  12.065
97959SOL     OW95715  13.340   4.507   2.613
97959SOL    HW195716  13.279   4.578   2.590
97959SOL    HW295717  13.422   4.533   2.572
97960SOL     OW95718   7.246   7.020   8.483
97960SOL    HW195719   7.255   7.099   8.431
97960SOL    HW295720   7.289   7.040   8.566
97961SOL     OW95721  14.000   0.326   1.134
97961SOL    HW195722  14.041   0.243   1.158
97961SOL    HW295723  14.027   0.342   1.044
97962SOL     OW95724   5.925   2.228   3.287
97962SOL    HW195725   6.000   2.178   3.254
97962SOL    HW295726   5.879   2.258   3.208
97963SOL     OW95727  14.271   7.435   8.970
97963SOL    HW195728  14.349   7.392   9.005
97963SOL    HW295729  14.282   7.527   8.992
97964SOL     OW95730   6.743   0.439   1.409
97964SOL    HW195731   6.821   0.478   1.449
97964SOL    HW295732   6.776   0.366   1.356
97965SOL     OW95733  13.800   3.466  12.674
97965SOL    HW195734  13.742   3.405  12.629
97965SOL    HW295735  13.746   3.542  12.692
97966SOL     OW95736  12.636   2.916  12.404
97966SOL    HW195737  12.632   2.821  12.402
97966SOL    HW295738  12.548   2.945  12.427
97967SOL     OW95739  14.739   1.311   2.094
97967SOL    HW195740  14.715   1.260   2.017
97967SOL    HW295741  14.703   1.262   2.167
97968SOL     OW95742  12.524  13.191   1.048
97968SOL    HW195743  12.558  13.121   1.104
97968SOL    HW295744  12.587  13.197   0.976
97969SOL     OW95745   0.840   7.776   7.046
97969SOL    HW195746   0.859   7.848   6.987
97969SOL    HW295747   0.913   7.775   7.108
97970SOL     OW95748   5.637   5.188  13.832
97970SOL    HW195749   5.622   5.282  13.818
97970SOL    HW295750   5.619   5.147  13.747
97971SOL     OW95751  12.253  10.453   3.192
97971SOL    HW195752  12.335  10.444   3.241
97971SOL    HW295753  12.186  10.463   3.259
97972SOL     OW95754  10.998  13.840  12.956
97972SOL    HW195755  10.967  13.803  12.873
97972SOL    HW295756  10.942  13.917  12.970
97973SOL     OW95757   7.459   5.018   4.064
97973SOL    HW195758   7.394   4.949   4.079
97973SOL    HW295759   7.413   5.084   4.014
97974SOL     OW95760   4.241   8.607   6.044
97974SOL    HW195761   4.264   8.518   6.070
97974SOL    HW295762   4.150   8.617   6.070
97975SOL     OW95763  14.500  12.182   3.260
97975SOL    HW195764  14.545  12.099   3.279
97975SOL    HW295765  14.570  12.241   3.234
97976SOL     OW95766   8.593   4.322   0.879
97976SOL    HW195767   8.570   4.371   0.800
97976SOL    HW295768   8.513   4.275   0.904
97977SOL     OW95769   9.951   7.777  11.348
97977SOL    HW195770   9.987   7.809  11.265
97977SOL    HW295771   9.871   7.829  11.361
97978SOL     OW95772   1.432   4.662  12.624
97978SOL    HW195773   1.420   4.733  12.561
97978SOL    HW295774   1.518   4.679  12.663
97979SOL     OW95775   1.120  14.153   2.464
97979SOL    HW195776   1.040  14.139   2.413
97979SOL    HW295777   1.093  14.137   2.555
97980SOL     OW95778   2.638   0.646  11.647
97980SOL    HW195779   2.647   0.624  11.740
97980SOL    HW295780   2.552   0.689  11.640
97981SOL     OW95781   6.928   5.475   7.822
97981SOL    HW195782   6.926   5.414   7.748
97981SOL    HW295783   7.021   5.492   7.836
97982SOL     OW95784   0.378   0.670   8.334
97982SOL    HW195785   0.472   0.688   8.344
97982SOL    HW295786   0.338   0.756   8.323
97983SOL     OW95787  13.534   6.547  13.018
97983SOL    HW195788  13.575   6.465  12.990
97983SOL    HW295789  13.565   6.559  13.108
97984SOL     OW95790  11.866  11.222   1.972
97984SOL    HW195791  11.939  11.174   1.934
97984SOL    HW295792  11.861  11.303   1.920
97985SOL     OW95793  11.764  12.160   3.705
97985SOL    HW195794  11.690  12.180   3.762
97985SOL    HW295795  11.823  12.108   3.759
97986SOL     OW95796  10.727  11.407   6.819
97986SOL    HW195797  10.787  11.398   6.893
97986SOL    HW295798  10.730  11.501   6.797
97987SOL     OW95799   6.011   5.284   9.493
97987SOL    HW195800   5.996   5.267   9.400
97987SOL    HW295801   5.939   5.341   9.520
97988SOL     OW95802   8.858   8.698   9.085
97988SOL    HW195803   8.765   8.689   9.067
97988SOL    HW295804   8.862   8.744   9.169
97989SOL     OW95805   8.603   9.074   4.989
97989SOL    HW195806   8.626   9.116   5.072
97989SOL    HW295807   8.518   9.113   4.965
97990SOL     OW95808   4.436   7.009   5.235
97990SOL    HW195809   4.353   7.048   5.207
97990SOL    HW295810   4.421   6.915   5.232
97991SOL     OW95811  13.017  14.489   8.607
97991SOL    HW195812  12.958  14.439   8.662
97991SOL    HW295813  12.962  14.556   8.567
97992SOL     OW95814   5.263   8.586  14.367
97992SOL    HW195815   5.336   8.592  14.305
97992SOL    HW295816   5.190   8.553  14.315
97993SOL     OW95817   0.600   0.034   9.299
97993SOL    HW195818   0.521   0.003   9.255
97993SOL    HW295819   0.660  14.832   9.296
97994SOL     OW95820   7.583   4.633  11.227
97994SOL    HW195821   7.677   4.650  11.231
97994SOL    HW295822   7.543   4.711  11.267
97995SOL     OW95823  13.304  12.553   4.154
97995SOL    HW195824  13.346  12.483   4.204
97995SOL    HW295825  13.247  12.598   4.217
97996SOL     OW95826   4.917  11.993  12.186
97996SOL    HW195827   4.874  11.931  12.127
97996SOL    HW295828   4.979  12.040  12.131
97997SOL     OW95829   8.730   7.548   3.939
97997SOL    HW195830   8.640   7.516   3.939
97997SOL    HW295831   8.722   7.643   3.937
97998SOL     OW95832   5.171   3.455   5.065
97998SOL    HW195833   5.138   3.539   5.098
97998SOL    HW295834   5.121   3.440   4.985
97999SOL     OW95835   9.013   0.075  11.907
97999SOL    HW195836   9.095   0.122  11.922
97999SOL    HW295837   8.956   0.102  11.980
98000SOL     OW95838   6.638  12.804   5.178
98000SOL    HW195839   6.696  12.851   5.118
98000SOL    HW295840   6.674  12.716   5.182
98001SOL     OW95841   0.252   5.950  12.270
98001SOL    HW195842   0.259   5.879  12.206
98001SOL    HW295843   0.207   5.910  12.345
98002SOL     OW95844   5.084  10.564   3.946
98002SOL    HW195845   5.026  10.493   3.918
98002SOL    HW295846   5.047  10.642   3.905
98003SOL     OW95847  10.193   1.434  12.065
98003SOL    HW195848  10.234   1.520  12.057
98003SOL    HW295849  10.100   1.449  12.050
98004SOL     OW95850  10.954   6.882   0.736
98004SOL    HW195851  11.034   6.881   0.789
98004SOL    HW295852  10.980   6.841   0.653
98005SOL     OW95853  12.889   2.153   1.346
98005SOL    HW195854  12.936   2.167   1.264
98005SOL    HW295855  12.936   2.206   1.410
98006SOL     OW95856  13.655  12.078  11.368
98006SOL    HW195857  13.611  12.059  11.285
98006SOL    HW295858  13.708  12.156  11.350
98007SOL     OW95859   6.664   7.992  14.294
98007SOL    HW195860   6.595   8.038  14.247
98007SOL    HW295861   6.623   7.965  14.377
98008SOL     OW95862  11.751   2.017   1.994
98008SOL    HW195863  11.693   2.069   2.048
98008SOL    HW295864  11.695   1.981   1.925
98009SOL     OW95865  13.883  11.491   5.665
98009SOL    HW195866  13.872  11.453   5.753
98009SOL    HW295867  13.941  11.565   5.678
98010SOL     OW95868   7.322  11.896  10.287
98010SOL    HW195869   7.390  11.847  10.240
98010SOL    HW295870   7.317  11.853  10.372
98011SOL     OW95871  13.571   6.249  11.353
98011SOL    HW195872  13.479   6.277  11.352
98011SOL    HW295873  13.617   6.315  11.302
98012SOL     OW95874  10.508   4.243  10.143
98012SOL    HW195875  10.591   4.281  10.113
98012SOL    HW295876  10.476   4.194  10.067
98013SOL     OW95877   4.013   3.245  12.250
98013SOL    HW195878   3.920   3.248  12.227
98013SOL    HW295879   4.015   3.209  12.339
98014SOL     OW95880  13.673   5.064   6.718
98014SOL    HW195881  13.724   5.019   6.650
98014SOL    HW295882  13.654   5.150   6.680
98015SOL     OW95883   7.866   0.358   4.903
98015SOL    HW195884   7.859   0.343   4.809
98015SOL    HW295885   7.896   0.275   4.939
98016SOL     OW95886  13.219   2.989   1.014
98016SOL    HW195887  13.200   3.063   1.072
98016SOL    HW295888  13.271   3.028   0.943
98017SOL     OW95889   3.277   4.651   3.315
98017SOL    HW195890   3.246   4.570   3.356
98017SOL    HW295891   3.299   4.626   3.226
98018SOL     OW95892   8.147  11.906   9.018
98018SOL    HW195893   8.233  11.877   8.987
98018SOL    HW295894   8.162  11.934   9.108
98019SOL     OW95895   7.005  11.545   6.818
98019SOL    HW195896   6.961  11.463   6.839
98019SOL    HW295897   7.096  11.521   6.803
98020SOL     OW95898   3.051   3.013  14.138
98020SOL    HW195899   2.967   2.991  14.098
98020SOL    HW295900   3.040   3.104  14.168
98021SOL     OW95901   8.583   4.475   6.443
98021SOL    HW195902   8.649   4.544   6.447
98021SOL    HW295903   8.521   4.504   6.376
98022SOL     OW95904  11.769   4.193   6.854
98022SOL    HW195905  11.861   4.181   6.876
98022SOL    HW295906  11.722   4.171   6.934
98023SOL     OW95907   8.008  10.064  14.781
98023SOL    HW195908   7.939  10.080  14.845
98023SOL    HW295909   8.084  10.039  14.833
98024SOL     OW95910   6.556   4.552   3.246
98024SOL    HW195911   6.647   4.530   3.226
98024SOL    HW295912   6.546   4.642   3.212
98025SOL     OW95913  10.480   4.284   8.778
98025SOL    HW195914  10.426   4.245   8.846
98025SOL    HW295915  10.542   4.216   8.753
98026SOL     OW95916   5.607   0.364   7.039
98026SOL    HW195917   5.682   0.383   6.982
98026SOL    HW295918   5.626   0.277   7.074
98027SOL     OW95919   3.712   7.692   2.811
98027SOL    HW195920   3.715   7.597   2.803
98027SOL    HW295921   3.746   7.709   2.899
98028SOL     OW95922   8.634   2.374   8.369
98028SOL    HW195923   8.570   2.393   8.437
98028SOL    HW295924   8.707   2.333   8.415
98029SOL     OW95925  13.568  13.041   8.388
98029SOL    HW195926  13.659  13.012   8.397
98029SOL    HW295927  13.523  13.001   8.462
98030SOL     OW95928  12.929   3.455   1.880
98030SOL    HW195929  12.848   3.443   1.929
98030SOL    HW295930  12.972   3.369   1.884
98031SOL     OW95931   0.759  10.899  13.047
98031SOL    HW195932   0.798  10.976  13.088
98031SOL    HW295933   0.806  10.889  12.964
98032SOL     OW95934  14.114   6.966  10.781
98032SOL    HW195935  14.097   6.987  10.873
98032SOL    HW295936  14.037   6.916  10.753
98033SOL     OW95937  14.237   7.057  13.870
98033SOL    HW195938  14.252   7.012  13.953
98033SOL    HW295939  14.324   7.080  13.839
98034SOL     OW95940  11.092   6.381   6.265
98034SOL    HW195941  11.108   6.301   6.215
98034SOL    HW295942  10.998   6.398   6.254
98035SOL     OW95943   9.560  10.053   4.008
98035SOL    HW195944   9.543   9.966   4.045
98035SOL    HW295945   9.559  10.040   3.914
98036SOL     OW95946  13.075   2.834  13.771
98036SOL    HW195947  13.023   2.901  13.726
98036SOL    HW295948  13.102   2.875  13.853
98037SOL     OW95949   0.381  12.526  13.381
98037SOL    HW195950   0.452  12.506  13.442
98037SOL    HW295951   0.351  12.441  13.349
98038SOL     OW95952  13.358   7.185  11.874
98038SOL    HW195953  13.397   7.203  11.959
98038SOL    HW295954  13.431   7.190  11.812
98039SOL     OW95955  14.842   3.196   6.696
98039SOL    HW195956   0.001   3.141   6.624
98039SOL    HW295957   0.033   3.267   6.702
98040SOL     OW95958   1.290  10.851   0.812
98040SOL    HW195959   1.336  10.866   0.894
98040SOL    HW295960   1.335  10.907   0.748
98041SOL     OW95961   9.190   0.959  10.986
98041SOL    HW195962   9.260   1.022  11.001
98041SOL    HW295963   9.225   0.876  11.018
98042SOL     OW95964  10.320   1.575  13.467
98042SOL    HW195965  10.258   1.613  13.404
98042SOL    HW295966  10.404   1.577  13.421
98043SOL     OW95967  10.106   8.190   9.636
98043SOL    HW195968  10.038   8.122   9.636
98043SOL    HW295969  10.066   8.262   9.587
98044SOL     OW95970   9.869   7.754  14.032
98044SOL    HW195971   9.909   7.839  14.052
98044SOL    HW295972   9.924   7.690  14.076
98045SOL     OW95973   3.993   1.018  10.022
98045SOL    HW195974   4.006   1.111  10.001
98045SOL    HW295975   3.899   1.004  10.013
98046SOL     OW95976  10.111  12.318   7.258
98046SOL    HW195977  10.105  12.223   7.270
98046SOL    HW295978  10.079  12.333   7.169
98047SOL     OW95979   4.117  14.340   1.587
98047SOL    HW195980   4.105  14.330   1.681
98047SOL    HW295981   4.200  14.387   1.579
98048SOL     OW95982  12.645  13.869   4.532
98048SOL    HW195983  12.710  13.917   4.480
98048SOL    HW295984  12.613  13.933   4.596
98049SOL     OW95985   9.422   1.871   0.405
98049SOL    HW195986   9.478   1.882   0.328
98049SOL    HW295987   9.424   1.956   0.449
98050SOL     OW95988  13.502   4.862  13.088
98050SOL    HW195989  13.492   4.931  13.022
98050SOL    HW295990  13.577   4.811  13.057
98051SOL     OW95991   0.186   5.205   6.230
98051SOL    HW195992   0.273   5.169   6.212
98051SOL    HW295993   0.157   5.158   6.308
98052SOL     OW95994   5.162   4.725   1.003
98052SOL    HW195995   5.093   4.682   0.953
98052SOL    HW295996   5.121   4.745   1.087
98053SOL     OW95997   2.313   5.428  11.843
98053SOL    HW195998   2.325   5.503  11.785
98053SOL    HW295999   2.354   5.355  11.797
98054SOL     OW96000  10.178   3.049   4.261
98054SOL    HW196001  10.245   3.026   4.325
98054SOL    HW296002  10.227   3.086   4.187
98055SOL     OW96003  13.951  11.418   4.174
98055SOL    HW196004  13.890  11.488   4.148
98055SOL    HW296005  13.927  11.399   4.265
98056SOL     OW96006  11.064   0.704   9.337
98056SOL    HW196007  11.093   0.684   9.426
98056SOL    HW296008  11.118   0.648   9.281
98057SOL     OW96009  11.201   8.721   5.981
98057SOL    HW196010  11.122   8.668   5.992
98057SOL    HW296011  11.273   8.657   5.981
98058SOL     OW96012   7.454   3.362  10.447
98058SOL    HW196013   7.432   3.325  10.532
98058SOL    HW296014   7.385   3.426  10.429
98059SOL     OW96015  13.709  13.468   2.014
98059SOL    HW196016  13.760  13.452   1.935
98059SOL    HW296017  13.739  13.554   2.045
98060SOL     OW96018   5.362   7.794  11.223
98060SOL    HW196019   5.370   7.738  11.146
98060SOL    HW296020   5.276   7.836  11.213
98061SOL     OW96021   9.268   1.344   2.557
98061SOL    HW196022   9.313   1.277   2.608
98061SOL    HW296023   9.332   1.370   2.490
98062SOL     OW96024   8.015  12.814   8.371
98062SOL    HW196025   8.086  12.809   8.308
98062SOL    HW296026   7.939  12.842   8.320
98063SOL     OW96027   2.517  12.275  11.964
98063SOL    HW196028   2.549  12.346  11.908
98063SOL    HW296029   2.491  12.206  11.903
98064SOL     OW96030   6.824   6.358   2.238
98064SOL    HW196031   6.900   6.323   2.192
98064SOL    HW296032   6.766   6.388   2.169
98065SOL     OW96033   7.024   9.156   9.721
98065SOL    HW196034   7.028   9.073   9.674
98065SOL    HW296035   7.115   9.175   9.744
98066SOL     OW96036   7.167  10.125   2.239
98066SOL    HW196037   7.130  10.179   2.310
98066SOL    HW296038   7.222  10.061   2.284
98067SOL     OW96039   9.158  14.130   8.144
98067SOL    HW196040   9.191  14.219   8.136
98067SOL    HW296041   9.129  14.107   8.056
98068SOL     OW96042  13.973   2.290  10.377
98068SOL    HW196043  14.028   2.284  10.299
98068SOL    HW296044  14.012   2.228  10.438
98069SOL     OW96045   7.876  11.727   5.073
98069SOL    HW196046   7.967  11.723   5.043
98069SOL    HW296047   7.880  11.707   5.167
98070SOL     OW96048  14.184   7.726   9.678
98070SOL    HW196049  14.124   7.763   9.613
98070SOL    HW296050  14.187   7.792   9.748
98071SOL     OW96051   8.239   9.498   6.989
98071SOL    HW196052   8.161   9.546   7.018
98071SOL    HW296053   8.248   9.427   7.052
98072SOL     OW96054   4.069   3.360   1.584
98072SOL    HW196055   3.999   3.389   1.526
98072SOL    HW296056   4.096   3.439   1.631
98073SOL     OW96057   7.784  10.775   7.973
98073SOL    HW196058   7.723  10.725   7.918
98073SOL    HW296059   7.741  10.779   8.059
98074SOL     OW96060  12.029   3.240  11.977
98074SOL    HW196061  11.979   3.212  12.054
98074SOL    HW296062  12.091   3.169  11.962
98075SOL     OW96063   4.557  14.507   9.962
98075SOL    HW196064   4.585  14.470  10.045
98075SOL    HW296065   4.489  14.447   9.931
98076SOL     OW96066   4.292   1.472   2.947
98076SOL    HW196067   4.203   1.449   2.974
98076SOL    HW296068   4.280   1.549   2.891
98077SOL     OW96069  10.256  11.865  13.772
98077SOL    HW196070  10.264  11.833  13.682
98077SOL    HW296071  10.224  11.790  13.821
98078SOL     OW96072   0.932   8.413  12.237
98078SOL    HW196073   0.943   8.489  12.294
98078SOL    HW296074   0.893   8.346  12.293
98079SOL     OW96075   1.742  14.528   2.341
98079SOL    HW196076   1.701  14.574   2.268
98079SOL    HW296077   1.687  14.451   2.355
98080SOL     OW96078  12.174   1.708  10.815
98080SOL    HW196079  12.147   1.652  10.742
98080SOL    HW296080  12.267   1.726  10.798
98081SOL     OW96081  11.103   1.238  12.572
98081SOL    HW196082  11.044   1.306  12.605
98081SOL    HW296083  11.047   1.183  12.517
98082SOL     OW96084   3.386   6.771   6.419
98082SOL    HW196085   3.337   6.705   6.369
98082SOL    HW296086   3.330   6.848   6.418
98083SOL     OW96087   1.341   2.682   5.985
98083SOL    HW196088   1.429   2.671   5.949
98083SOL    HW296089   1.308   2.593   5.997
98084SOL     OW96090   4.384   6.629   3.508
98084SOL    HW196091   4.351   6.672   3.587
98084SOL    HW296092   4.368   6.692   3.438
98085SOL     OW96093   0.296   4.742   6.716
98085SOL    HW196094   0.366   4.781   6.768
98085SOL    HW296095   0.328   4.746   6.626
98086SOL     OW96096   9.975  11.698   7.183
98086SOL    HW196097   9.925  11.622   7.212
98086SOL    HW296098   9.970  11.694   7.087
98087SOL     OW96099  10.829   9.538   8.744
98087SOL    HW196100  10.742   9.514   8.710
98087SOL    HW296101  10.870   9.585   8.671
98088SOL     OW96102   5.984   0.267   0.771
98088SOL    HW196103   5.953   0.211   0.842
98088SOL    HW296104   5.920   0.253   0.701
98089SOL     OW96105  14.778  14.872   1.546
98089SOL    HW196106  14.762   0.032   1.458
98089SOL    HW296107  14.702   0.029   1.597
98090SOL     OW96108  13.175   5.994  12.608
98090SOL    HW196109  13.250   6.048  12.633
98090SOL    HW296110  13.099   6.048  12.629
98091SOL     OW96111   9.041  11.410  12.952
98091SOL    HW196112   9.090  11.351  12.895
98091SOL    HW296113   8.952  11.412  12.915
98092SOL     OW96114   6.998  12.309   9.119
98092SOL    HW196115   6.959  12.350   9.042
98092SOL    HW296116   6.961  12.221   9.121
98093SOL     OW96117  14.396  14.306   6.047
98093SOL    HW196118  14.353  14.328   6.130
98093SOL    HW296119  14.347  14.231   6.014
98094SOL     OW96120  10.706   8.086   3.867
98094SOL    HW196121  10.739   8.001   3.838
98094SOL    HW296122  10.737   8.147   3.800
98095SOL     OW96123  12.574  14.522  11.534
98095SOL    HW196124  12.587  14.521  11.628
98095SOL    HW296125  12.597  14.612  11.508
98096SOL     OW96126  12.307   8.016   8.966
98096SOL    HW196127  12.307   8.062   9.050
98096SOL    HW296128  12.283   8.083   8.902
98097SOL     OW96129   9.529   9.331   2.829
98097SOL    HW196130   9.569   9.415   2.810
98097SOL    HW296131   9.493   9.340   2.918
98098SOL     OW96132   6.423   4.630   5.967
98098SOL    HW196133   6.395   4.693   5.901
98098SOL    HW296134   6.421   4.546   5.921
98099SOL     OW96135  13.352   6.236   8.443
98099SOL    HW196136  13.419   6.250   8.509
98099SOL    HW296137  13.342   6.321   8.400
98100SOL     OW96138   4.878  11.078  13.363
98100SOL    HW196139   4.905  11.132  13.288
98100SOL    HW296140   4.876  11.138  13.437
98101SOL     OW96141   7.860   3.206   3.931
98101SOL    HW196142   7.819   3.148   3.867
98101SOL    HW296143   7.887   3.147   4.002
98102SOL     OW96144   6.769   4.361   9.769
98102SOL    HW196145   6.795   4.332   9.856
98102SOL    HW296146   6.799   4.452   9.763
98103SOL     OW96147   0.176   5.742   6.103
98103SOL    HW196148   0.133   5.720   6.020
98103SOL    HW296149   0.193   5.657   6.144
98104SOL     OW96150   3.352   1.698   1.394
98104SOL    HW196151   3.333   1.616   1.440
98104SOL    HW296152   3.445   1.691   1.372
98105SOL     OW96153   0.171   4.555   2.740
98105SOL    HW196154   0.230   4.513   2.803
98105SOL    HW296155   0.125   4.483   2.697
98106SOL     OW96156   0.824   0.992   6.089
98106SOL    HW196157   0.790   0.974   6.177
98106SOL    HW296158   0.864   1.079   6.096
98107SOL     OW96159  11.558   1.117  10.853
98107SOL    HW196160  11.485   1.152  10.906
98107SOL    HW296161  11.543   1.023  10.852
98108SOL     OW96162  10.210  12.294   2.025
98108SOL    HW196163  10.303  12.319   2.027
98108SOL    HW296164  10.200  12.248   1.942
98109SOL     OW96165   9.561   1.481   0.289
98109SOL    HW196166   9.604   1.508   0.370
98109SOL    HW296167   9.529   1.392   0.307
98110SOL     OW96168   4.716   7.789  14.352
98110SOL    HW196169   4.701   7.848  14.427
98110SOL    HW296170   4.637   7.798  14.299
98111SOL     OW96171   4.767   0.617   4.605
98111SOL    HW196172   4.759   0.554   4.533
98111SOL    HW296173   4.706   0.687   4.583
98112SOL     OW96174   9.646   9.520   7.307
98112SOL    HW196175   9.719   9.458   7.301
98112SOL    HW296176   9.614   9.528   7.217
98113SOL     OW96177   3.833   8.844  11.000
98113SOL    HW196178   3.782   8.781  11.052
98113SOL    HW296179   3.855   8.913  11.062
98114SOL     OW96180   8.088  10.226   9.951
98114SOL    HW196181   8.035  10.284   9.896
98114SOL    HW296182   8.157  10.194   9.894
98115SOL     OW96183   7.884   2.559   9.443
98115SOL    HW196184   7.929   2.545   9.526
98115SOL    HW296185   7.792   2.571   9.468
98116SOL     OW96186   8.967  11.522   5.240
98116SOL    HW196187   9.031  11.529   5.170
98116SOL    HW296188   9.013  11.553   5.318
98117SOL     OW96189   1.703   3.220   2.201
98117SOL    HW196190   1.737   3.215   2.290
98117SOL    HW296191   1.689   3.129   2.175
98118SOL     OW96192  11.612   8.673   0.241
98118SOL    HW196193  11.675   8.679   0.313
98118SOL    HW296194  11.634   8.590   0.197
98119SOL     OW96195   3.427   4.675  14.485
98119SOL    HW196196   3.500   4.649  14.429
98119SOL    HW296197   3.468   4.700  14.568
98120SOL     OW96198  14.658  11.049  10.076
98120SOL    HW196199  14.570  11.061  10.110
98120SOL    HW296200  14.649  11.064   9.981
98121SOL     OW96201   1.251   3.537   2.428
98121SOL    HW196202   1.201   3.617   2.439
98121SOL    HW296203   1.276   3.537   2.335
98122SOL     OW96204   5.107   4.679   7.283
98122SOL    HW196205   5.141   4.719   7.203
98122SOL    HW296206   5.117   4.585   7.269
98123SOL     OW96207   4.628   4.734  11.849
98123SOL    HW196208   4.678   4.685  11.914
98123SOL    HW296209   4.576   4.795  11.901
98124SOL     OW96210  13.051   0.568  11.381
98124SOL    HW196211  13.087   0.604  11.300
98124SOL    HW296212  13.121   0.578  11.445
98125SOL     OW96213   3.836   2.445   2.488
98125SOL    HW196214   3.749   2.485   2.476
98125SOL    HW296215   3.832   2.405   2.574
98126SOL     OW96216   0.746   4.296   3.509
98126SOL    HW196217   0.697   4.335   3.580
98126SOL    HW296218   0.680   4.264   3.448
98127SOL     OW96219  13.070   7.390  11.103
98127SOL    HW196220  13.026   7.393  11.188
98127SOL    HW296221  13.127   7.313  11.108
98128SOL     OW96222   5.638   2.008  13.283
98128SOL    HW196223   5.680   2.056  13.354
98128SOL    HW296224   5.639   1.917  13.312
98129SOL     OW96225  11.226   1.567  13.394
98129SOL    HW196226  11.301   1.622  13.370
98129SOL    HW296227  11.164   1.628  13.435
98130SOL     OW96228   7.400   9.534  11.937
98130SOL    HW196229   7.449   9.469  11.987
98130SOL    HW296230   7.467   9.588  11.896
98131SOL     OW96231   6.076   2.287  11.044
98131SOL    HW196232   6.006   2.338  11.002
98131SOL    HW296233   6.031   2.237  11.112
98132SOL     OW96234  13.418   2.567   0.330
98132SOL    HW196235  13.456   2.649   0.361
98132SOL    HW296236  13.461   2.499   0.381
98133SOL     OW96237  10.741   6.301   3.539
98133SOL    HW196238  10.733   6.258   3.624
98133SOL    HW296239  10.656   6.344   3.525
98134SOL     OW96240  12.872   8.230   7.078
98134SOL    HW196241  12.870   8.290   7.153
98134SOL    HW296242  12.836   8.281   7.006
98135SOL     OW96243  11.245  10.544  13.591
98135SOL    HW196244  11.221  10.571  13.680
98135SOL    HW296245  11.298  10.465  13.604
98136SOL     OW96246   6.920  10.531  12.308
98136SOL    HW196247   6.882  10.601  12.255
98136SOL    HW296248   7.004  10.566  12.337
98137SOL     OW96249  12.329  10.276   0.794
98137SOL    HW196250  12.328  10.208   0.727
98137SOL    HW296251  12.421  10.282   0.820
98138SOL     OW96252   2.719  14.372   2.963
98138SOL    HW196253   2.711  14.413   2.877
98138SOL    HW296254   2.645  14.313   2.968
98139SOL     OW96255   7.489   2.221   5.835
98139SOL    HW196256   7.515   2.129   5.847
98139SOL    HW296257   7.394   2.220   5.843
98140SOL     OW96258  12.871   3.375   9.233
98140SOL    HW196259  12.808   3.364   9.304
98140SOL    HW296260  12.956   3.384   9.277
98141SOL     OW96261  10.417   7.522   8.327
98141SOL    HW196262  10.460   7.604   8.351
98141SOL    HW296263  10.382   7.488   8.410
98142SOL     OW96264   5.302   7.104   8.648
98142SOL    HW196265   5.237   7.093   8.716
98142SOL    HW296266   5.253   7.101   8.566
98143SOL     OW96267   9.847   2.728   0.567
98143SOL    HW196268   9.913   2.780   0.522
98143SOL    HW296269   9.891   2.645   0.587
98144SOL     OW96270   5.978   1.307   5.220
98144SOL    HW196271   5.990   1.293   5.314
98144SOL    HW296272   5.886   1.287   5.204
98145SOL     OW96273   3.086   3.926  13.168
98145SOL    HW196274   3.084   3.992  13.237
98145SOL    HW296275   3.163   3.873  13.187
98146SOL     OW96276   2.601  13.742   9.097
98146SOL    HW196277   2.631  13.656   9.068
98146SOL    HW296278   2.554  13.725   9.178
98147SOL     OW96279   6.900   9.636   8.707
98147SOL    HW196280   6.820   9.624   8.757
98147SOL    HW296281   6.885   9.717   8.658
98148SOL     OW96282   8.603   5.614   8.654
98148SOL    HW196283   8.639   5.694   8.617
98148SOL    HW296284   8.627   5.545   8.591
98149SOL     OW96285   3.967   8.698   9.192
98149SOL    HW196286   3.965   8.793   9.189
98149SOL    HW296287   4.006   8.677   9.276
98150SOL     OW96288  14.456   0.880  11.770
98150SOL    HW196289  14.543   0.851  11.742
98150SOL    HW296290  14.406   0.799  11.780
98151SOL     OW96291  12.532  13.390  12.386
98151SOL    HW196292  12.581  13.347  12.456
98151SOL    HW296293  12.515  13.320  12.322
98152SOL     OW96294  13.041   9.005   7.246
98152SOL    HW196295  13.089   9.087   7.229
98152SOL    HW296296  12.949   9.032   7.247
98153SOL     OW96297   0.254  12.611   9.857
98153SOL    HW196298   0.348  12.629   9.861
98153SOL    HW296299   0.242  12.535   9.914
98154SOL     OW96300   6.304   0.006   5.489
98154SOL    HW196301   6.319   0.040   5.577
98154SOL    HW296302   6.302   0.084   5.433
98155SOL     OW96303  11.134   2.830  13.944
98155SOL    HW196304  11.179   2.913  13.961
98155SOL    HW296305  11.199   2.775  13.901
98156SOL     OW96306   8.322   7.864   5.815
98156SOL    HW196307   8.304   7.932   5.880
98156SOL    HW296308   8.364   7.910   5.742
98157SOL     OW96309   6.870  10.712  10.687
98157SOL    HW196310   6.964  10.714  10.706
98157SOL    HW296311   6.829  10.698  10.773
98158SOL     OW96312   9.681  11.534   3.944
98158SOL    HW196313   9.696  11.605   3.881
98158SOL    HW296314   9.629  11.470   3.896
98159SOL     OW96315  12.351   6.028   2.937
98159SOL    HW196316  12.312   6.099   2.988
98159SOL    HW296317  12.372   6.069   2.853
98160SOL     OW96318   5.942  13.932   2.182
98160SOL    HW196319   5.868  13.900   2.130
98160SOL    HW296320   6.010  13.950   2.117
98161SOL     OW96321   0.334   5.814   6.388
98161SOL    HW196322   0.289   5.824   6.304
98161SOL    HW296323   0.346   5.904   6.420
98162SOL     OW96324   8.537   3.086  13.192
98162SOL    HW196325   8.619   3.091  13.241
98162SOL    HW296326   8.554   3.022  13.123
98163SOL     OW96327  13.693   5.422  11.904
98163SOL    HW196328  13.622   5.404  11.843
98163SOL    HW296329  13.716   5.514  11.888
98164SOL     OW96330   9.909  12.250  13.809
98164SOL    HW196331   9.814  12.241  13.816
98164SOL    HW296332   9.928  12.332  13.855
98165SOL     OW96333   9.734   7.352   0.721
98165SOL    HW196334   9.655   7.322   0.766
98165SOL    HW296335   9.766   7.425   0.775
98166SOL     OW96336   3.627  12.510  12.879
98166SOL    HW196337   3.631  12.462  12.796
98166SOL    HW296338   3.555  12.469  12.927
98167SOL     OW96339   4.736   7.968   4.273
98167SOL    HW196340   4.765   7.895   4.219
98167SOL    HW296341   4.660   8.004   4.227
98168SOL     OW96342   8.234   1.827   0.120
98168SOL    HW196343   8.229   1.767   0.045
98168SOL    HW296344   8.322   1.864   0.115
98169SOL     OW96345   6.816  14.749   1.963
98169SOL    HW196346   6.738  14.780   1.917
98169SOL    HW296347   6.885  14.810   1.936
98170SOL     OW96348   3.721   2.437   6.106
98170SOL    HW196349   3.641   2.394   6.076
98170SOL    HW296350   3.786   2.418   6.037
98171SOL     OW96351   8.238   8.833   8.471
98171SOL    HW196352   8.236   8.740   8.492
98171SOL    HW296353   8.323   8.863   8.504
98172SOL     OW96354   2.410   6.452   0.597
98172SOL    HW196355   2.412   6.520   0.529
98172SOL    HW296356   2.317   6.440   0.616
98173SOL     OW96357   4.518  12.613   3.171
98173SOL    HW196358   4.601  12.567   3.183
98173SOL    HW296359   4.467  12.557   3.112
98174SOL     OW96360   9.521  14.376  13.875
98174SOL    HW196361   9.544  14.380  13.783
98174SOL    HW296362   9.535  14.465  13.908
98175SOL     OW96363   5.165   0.837  13.238
98175SOL    HW196364   5.232   0.771  13.252
98175SOL    HW296365   5.202   0.917  13.276
98176SOL     OW96366  14.442   3.670   7.554
98176SOL    HW196367  14.407   3.746   7.507
98176SOL    HW296368  14.536   3.674   7.539
98177SOL     OW96369   1.169   4.372  11.105
98177SOL    HW196370   1.255   4.415  11.113
98177SOL    HW296371   1.111   4.424  11.161
98178SOL     OW96372   3.544   5.561   0.237
98178SOL    HW196373   3.490   5.530   0.165
98178SOL    HW296374   3.589   5.482   0.268
98179SOL     OW96375   5.757   7.888   4.810
98179SOL    HW196376   5.834   7.877   4.755
98179SOL    HW296377   5.727   7.977   4.792
98180SOL     OW96378   2.039   8.983  11.258
98180SOL    HW196379   2.071   8.927  11.329
98180SOL    HW296380   1.948   8.955  11.245
98181SOL     OW96381  10.209   9.712   7.284
98181SOL    HW196382  10.176   9.689   7.371
98181SOL    HW296383  10.204   9.630   7.235
98182SOL     OW96384   8.071   3.173  13.173
98182SOL    HW196385   8.040   3.262  13.189
98182SOL    HW296386   8.091   3.172  13.079
98183SOL     OW96387   8.002   5.163   5.974
98183SOL    HW196388   7.931   5.190   6.033
98183SOL    HW296389   8.079   5.158   6.030
98184SOL     OW96390   7.253   8.698   9.589
98184SOL    HW196391   7.338   8.709   9.633
98184SOL    HW296392   7.269   8.635   9.520
98185SOL     OW96393   7.450   8.269   6.541
98185SOL    HW196394   7.367   8.225   6.521
98185SOL    HW296395   7.427   8.337   6.604
98186SOL     OW96396   2.545  11.236  12.564
98186SOL    HW196397   2.449  11.231  12.556
98186SOL    HW296398   2.563  11.328  12.580
98187SOL     OW96399   1.216   6.757   9.023
98187SOL    HW196400   1.252   6.789   8.940
98187SOL    HW296401   1.275   6.685   9.048
98188SOL     OW96402   2.540   3.212  13.650
98188SOL    HW196403   2.523   3.185  13.560
98188SOL    HW296404   2.462   3.184  13.698
98189SOL     OW96405   5.439  11.700   7.396
98189SOL    HW196406   5.411  11.624   7.345
98189SOL    HW296407   5.530  11.683   7.417
98190SOL     OW96408  10.635  13.686   7.314
98190SOL    HW196409  10.620  13.725   7.400
98190SOL    HW296410  10.729  13.695   7.301
98191SOL     OW96411   0.495   5.814   1.616
98191SOL    HW196412   0.511   5.739   1.673
98191SOL    HW296413   0.469   5.884   1.675
98192SOL     OW96414  11.491  11.420   7.605
98192SOL    HW196415  11.483  11.436   7.699
98192SOL    HW296416  11.538  11.337   7.598
98193SOL     OW96417   5.058  11.781   5.079
98193SOL    HW196418   5.051  11.782   4.984
98193SOL    HW296419   5.140  11.827   5.098
98194SOL     OW96420   6.032  11.393   6.435
98194SOL    HW196421   6.034  11.302   6.464
98194SOL    HW296422   6.032  11.445   6.515
98195SOL     OW96423   8.696   3.927  10.167
98195SOL    HW196424   8.766   3.898  10.227
98195SOL    HW296425   8.678   4.017  10.193
98196SOL     OW96426  14.469   6.982  13.644
98196SOL    HW196427  14.423   7.065  13.633
98196SOL    HW296428  14.469   6.943  13.557
98197SOL     OW96429   1.412  14.036   6.648
98197SOL    HW196430   1.350  14.098   6.686
98197SOL    HW296431   1.397  13.955   6.696
98198SOL     OW96432  13.401   7.655  13.428
98198SOL    HW196433  13.417   7.745  13.455
98198SOL    HW296434  13.368   7.611  13.506
98199SOL     OW96435  12.086   7.853  13.801
98199SOL    HW196436  12.105   7.781  13.740
98199SOL    HW296437  12.030   7.912  13.751
98200SOL     OW96438  10.979   1.808   7.244
98200SOL    HW196439  11.065   1.851   7.241
98200SOL    HW296440  10.960   1.798   7.337
98201SOL     OW96441   6.283   5.494  10.144
98201SOL    HW196442   6.299   5.434  10.217
98201SOL    HW296443   6.209   5.547  10.172
98202SOL     OW96444   1.363  12.448   9.054
98202SOL    HW196445   1.331  12.389   8.986
98202SOL    HW296446   1.293  12.512   9.065
98203SOL     OW96447   7.682  14.221   1.337
98203SOL    HW196448   7.763  14.260   1.303
98203SOL    HW296449   7.624  14.296   1.352
98204SOL     OW96450   9.071  13.407   9.986
98204SOL    HW196451   9.136  13.368  10.044
98204SOL    HW296452   8.987  13.380  10.022
98205SOL     OW96453   7.269   2.851  11.599
98205SOL    HW196454   7.283   2.872  11.506
98205SOL    HW296455   7.328   2.909  11.646
98206SOL     OW96456   3.489  10.351   5.926
98206SOL    HW196457   3.566  10.390   5.886
98206SOL    HW296458   3.495  10.258   5.903
98207SOL     OW96459   2.969  10.164   8.447
98207SOL    HW196460   2.951  10.105   8.520
98207SOL    HW296461   3.031  10.227   8.481
98208SOL     OW96462  12.365  13.673   2.686
98208SOL    HW196463  12.352  13.596   2.631
98208SOL    HW296464  12.281  13.719   2.683
98209SOL     OW96465   4.773   7.077   6.496
98209SOL    HW196466   4.819   7.072   6.412
98209SOL    HW296467   4.725   7.160   6.492
98210SOL     OW96468   1.502   2.933   1.431
98210SOL    HW196469   1.424   2.889   1.399
98210SOL    HW296470   1.563   2.931   1.357
98211SOL     OW96471   1.123   6.551  14.390
98211SOL    HW196472   1.079   6.598  14.320
98211SOL    HW296473   1.057   6.493  14.426
98212SOL     OW96474  12.251   9.141  10.135
98212SOL    HW196475  12.283   9.051  10.127
98212SOL    HW296476  12.261   9.161  10.228
98213SOL     OW96477  11.489   9.044   7.792
98213SOL    HW196478  11.539   9.017   7.715
98213SOL    HW296479  11.464   8.961   7.834
98214SOL     OW96480   0.911  12.363   1.379
98214SOL    HW196481   0.922  12.451   1.342
98214SOL    HW296482   0.987  12.352   1.437
98215SOL     OW96483  12.826   6.569   6.406
98215SOL    HW196484  12.913   6.532   6.396
98215SOL    HW296485  12.815   6.580   6.501
98216SOL     OW96486   5.756   5.738   0.236
98216SOL    HW196487   5.662   5.748   0.223
98216SOL    HW296488   5.783   5.674   0.170
98217SOL     OW96489  13.606   2.865   6.161
98217SOL    HW196490  13.649   2.931   6.216
98217SOL    HW296491  13.655   2.869   6.078
98218SOL     OW96492   6.674   6.216   7.470
98218SOL    HW196493   6.634   6.280   7.412
98218SOL    HW296494   6.642   6.239   7.557
98219SOL     OW96495   5.288   5.377  11.822
98219SOL    HW196496   5.263   5.432  11.896
98219SOL    HW296497   5.363   5.422  11.783
98220SOL     OW96498  10.918  10.085   2.999
98220SOL    HW196499  10.873  10.169   2.991
98220SOL    HW296500  11.011  10.106   2.990
98221SOL     OW96501   3.396  11.431   4.480
98221SOL    HW196502   3.486  11.459   4.465
98221SOL    HW296503   3.397  11.397   4.569
98222SOL     OW96504   9.540   8.090   0.822
98222SOL    HW196505   9.505   8.033   0.754
98222SOL    HW296506   9.553   8.175   0.779
98223SOL     OW96507   0.393  12.211   3.168
98223SOL    HW196508   0.411  12.172   3.253
98223SOL    HW296509   0.432  12.299   3.173
98224SOL     OW96510   6.835  11.353   0.243
98224SOL    HW196511   6.852  11.385   0.154
98224SOL    HW296512   6.817  11.432   0.293
98225SOL     OW96513  13.663  14.748   6.799
98225SOL    HW196514  13.749  14.791   6.798
98225SOL    HW296515  13.676  14.668   6.747
98226SOL     OW96516   0.648   0.762   2.042
98226SOL    HW196517   0.564   0.802   2.066
98226SOL    HW296518   0.681   0.817   1.971
98227SOL     OW96519   5.643  14.596  10.018
98227SOL    HW196520   5.657  14.521  10.077
98227SOL    HW296521   5.614  14.666  10.076
98228SOL     OW96522   0.560   1.980   6.288
98228SOL    HW196523   0.502   2.017   6.221
98228SOL    HW296524   0.501   1.932   6.347
98229SOL     OW96525  10.097  11.320   3.024
98229SOL    HW196526  10.111  11.279   3.110
98229SOL    HW296527  10.169  11.382   3.015
98230SOL     OW96528  13.677   4.695   6.192
98230SOL    HW196529  13.730   4.616   6.202
98230SOL    HW296530  13.678   4.714   6.099
98231SOL     OW96531   4.048  12.753   6.506
98231SOL    HW196532   3.962  12.764   6.465
98231SOL    HW296533   4.060  12.833   6.558
98232SOL     OW96534   8.401  12.941  10.080
98232SOL    HW196535   8.342  12.916  10.009
98232SOL    HW296536   8.472  12.988  10.037
98233SOL     OW96537   2.161  10.548   9.141
98233SOL    HW196538   2.108  10.533   9.063
98233SOL    HW296539   2.203  10.464   9.158
98234SOL     OW96540   0.081  10.393   2.337
98234SOL    HW196541   0.080  10.487   2.351
98234SOL    HW296542  14.861  10.368   2.332
98235SOL     OW96543   3.782   4.873  11.765
98235SOL    HW196544   3.716   4.919  11.714
98235SOL    HW296545   3.856   4.933  11.769
98236SOL     OW96546   6.235  11.673  12.403
98236SOL    HW196547   6.170  11.655  12.471
98236SOL    HW296548   6.201  11.749  12.356
98237SOL     OW96549   8.246   3.223   6.623
98237SOL    HW196550   8.299   3.279   6.567
98237SOL    HW296551   8.242   3.270   6.706
98238SOL     OW96552  10.743  11.490   3.530
98238SOL    HW196553  10.719  11.582   3.540
98238SOL    HW296554  10.678  11.442   3.582
98239SOL     OW96555  11.728   4.577  10.789
98239SOL    HW196556  11.642   4.617  10.799
98239SOL    HW296557  11.726   4.501  10.847
98240SOL     OW96558   2.979   3.570   5.658
98240SOL    HW196559   2.959   3.506   5.727
98240SOL    HW296560   3.039   3.632   5.700
98241SOL     OW96561   6.530  13.717   3.782
98241SOL    HW196562   6.473  13.677   3.717
98241SOL    HW296563   6.524  13.811   3.764
98242SOL     OW96564   2.528   1.432   8.415
98242SOL    HW196565   2.578   1.462   8.492
98242SOL    HW296566   2.580   1.361   8.379
98243SOL     OW96567   4.499   3.332   2.539
98243SOL    HW196568   4.519   3.263   2.475
98243SOL    HW296569   4.404   3.327   2.550
98244SOL     OW96570   8.052   5.815   8.627
98244SOL    HW196571   8.042   5.785   8.537
98244SOL    HW296572   8.015   5.904   8.627
98245SOL     OW96573   6.396  14.389   9.087
98245SOL    HW196574   6.395  14.484   9.086
98245SOL    HW296575   6.305  14.363   9.071
98246SOL     OW96576   3.286  14.535  10.483
98246SOL    HW196577   3.233  14.588  10.423
98246SOL    HW296578   3.226  14.469  10.518
98247SOL     OW96579   3.459  14.109   3.195
98247SOL    HW196580   3.468  14.200   3.226
98247SOL    HW296581   3.512  14.058   3.256
98248SOL     OW96582   8.619  12.322   0.045
98248SOL    HW196583   8.659  12.406   0.022
98248SOL    HW296584   8.560  12.344   0.118
98249SOL     OW96585   9.923   6.277  13.575
98249SOL    HW196586   9.960   6.259  13.488
98249SOL    HW296587   9.992   6.251  13.636
98250SOL     OW96588  12.084   3.700   0.707
98250SOL    HW196589  12.090   3.608   0.679
98250SOL    HW296590  12.100   3.697   0.801
98251SOL     OW96591   3.290   2.490   6.624
98251SOL    HW196592   3.217   2.541   6.660
98251SOL    HW296593   3.330   2.547   6.559
98252SOL     OW96594   5.637  13.413   1.846
98252SOL    HW196595   5.674  13.348   1.906
98252SOL    HW296596   5.710  13.440   1.790
98253SOL     OW96597   4.844   5.566   3.555
98253SOL    HW196598   4.758   5.559   3.515
98253SOL    HW296599   4.842   5.504   3.628
98254SOL     OW96600  10.065   2.472   0.784
98254SOL    HW196601  10.157   2.456   0.767
98254SOL    HW296602  10.064   2.521   0.867
98255SOL     OW96603   8.512  11.047  13.673
98255SOL    HW196604   8.505  11.123  13.731
98255SOL    HW296605   8.464  10.978  13.718
98256SOL     OW96606  12.905  14.166   4.096
98256SOL    HW196607  12.840  14.096   4.092
98256SOL    HW296608  12.967  14.138   4.163
98257SOL     OW96609   5.534   4.575   6.584
98257SOL    HW196610   5.547   4.499   6.642
98257SOL    HW296611   5.493   4.539   6.505
98258SOL     OW96612   1.937  10.971  12.415
98258SOL    HW196613   2.030  10.989  12.406
98258SOL    HW296614   1.912  11.016  12.496
98259SOL     OW96615   7.545   5.913   3.123
98259SOL    HW196616   7.594   5.993   3.142
98259SOL    HW296617   7.502   5.891   3.206
98260SOL     OW96618  12.034   4.153   5.657
98260SOL    HW196619  12.015   4.082   5.719
98260SOL    HW296620  12.128   4.168   5.666
98261SOL     OW96621   9.959   4.753  10.053
98261SOL    HW196622   9.996   4.686  10.111
98261SOL    HW296623   9.912   4.703   9.986
98262SOL     OW96624   4.273  13.617  11.738
98262SOL    HW196625   4.207  13.583  11.798
98262SOL    HW296626   4.332  13.668  11.794
98263SOL     OW96627   0.482   0.101   1.890
98263SOL    HW196628   0.429   0.145   1.956
98263SOL    HW296629   0.424   0.036   1.851
98264SOL     OW96630   8.986  10.952   6.970
98264SOL    HW196631   8.963  10.919   7.057
98264SOL    HW296632   8.990  10.874   6.915
98265SOL     OW96633   8.706   0.659   6.473
98265SOL    HW196634   8.782   0.609   6.445
98265SOL    HW296635   8.741   0.723   6.535
98266SOL     OW96636  10.939  13.301  13.181
98266SOL    HW196637  10.850  13.305  13.146
98266SOL    HW296638  10.928  13.312  13.275
98267SOL     OW96639   1.231  11.477  13.042
98267SOL    HW196640   1.267  11.503  12.957
98267SOL    HW296641   1.137  11.492  13.033
98268SOL     OW96642   1.474   0.013   7.454
98268SOL    HW196643   1.501   0.105   7.452
98268SOL    HW296644   1.520  14.846   7.380
98269SOL     OW96645   7.590   9.428   5.564
98269SOL    HW196646   7.504   9.462   5.588
98269SOL    HW296647   7.612   9.474   5.482
98270SOL     OW96648   1.211   9.074  10.117
98270SOL    HW196649   1.224   9.166  10.142
98270SOL    HW296650   1.142   9.077  10.051
98271SOL     OW96651   6.197   0.009   1.350
98271SOL    HW196652   6.160  14.794   1.360
98271SOL    HW296653   6.284  14.867   1.314
98272SOL     OW96654   1.497   6.720  12.326
98272SOL    HW196655   1.503   6.816  12.323
98272SOL    HW296656   1.494   6.693  12.234
98273SOL     OW96657   1.273   3.217   1.337
98273SOL    HW196658   1.364   3.206   1.309
98273SOL    HW296659   1.265   3.162   1.415
98274SOL     OW96660  13.972   5.241   8.705
98274SOL    HW196661  13.987   5.233   8.610
98274SOL    HW296662  14.049   5.200   8.745
98275SOL     OW96663   1.064   0.655  12.132
98275SOL    HW196664   1.076   0.745  12.104
98275SOL    HW296665   1.152   0.623  12.150
98276SOL     OW96666  11.017   0.765  11.945
98276SOL    HW196667  10.969   0.848  11.940
98276SOL    HW296668  11.050   0.762  12.034
98277SOL     OW96669   4.451   9.124   3.751
98277SOL    HW196670   4.517   9.191   3.772
98277SOL    HW296671   4.367   9.171   3.758
98278SOL     OW96672   1.644   4.739  10.213
98278SOL    HW196673   1.678   4.827  10.229
98278SOL    HW296674   1.589   4.720  10.289
98279SOL     OW96675  13.093   7.967   5.948
98279SOL    HW196676  13.042   7.912   5.887
98279SOL    HW296677  13.183   7.958   5.917
98280SOL     OW96678  14.647   9.796   5.844
98280SOL    HW196679  14.553   9.795   5.826
98280SOL    HW296680  14.654   9.765   5.935
98281SOL     OW96681  11.814   3.519   5.442
98281SOL    HW196682  11.881   3.451   5.454
98281SOL    HW296683  11.860   3.589   5.395
98282SOL     OW96684  13.118  12.506   9.770
98282SOL    HW196685  13.149  12.589   9.808
98282SOL    HW296686  13.198  12.457   9.750
98283SOL     OW96687  12.222  10.218   8.369
98283SOL    HW196688  12.276  10.250   8.440
98283SOL    HW296689  12.189  10.133   8.400
98284SOL     OW96690   0.405  14.067  12.931
98284SOL    HW196691   0.312  14.087  12.922
98284SOL    HW296692   0.432  14.111  13.011
98285SOL     OW96693   6.226  10.969   9.370
98285SOL    HW196694   6.145  10.996   9.328
98285SOL    HW296695   6.215  10.996   9.462
98286SOL     OW96696  14.704   5.569  10.176
98286SOL    HW196697  14.719   5.532  10.089
98286SOL    HW296698  14.724   5.662  10.167
98287SOL     OW96699   1.711   7.785   4.754
98287SOL    HW196700   1.686   7.702   4.715
98287SOL    HW296701   1.662   7.789   4.836
98288SOL     OW96702   5.014   1.056  12.886
98288SOL    HW196703   5.020   1.045  12.981
98288SOL    HW296704   4.994   0.968  12.854
98289SOL     OW96705   6.577   5.338   4.662
98289SOL    HW196706   6.491   5.298   4.661
98289SOL    HW296707   6.572   5.407   4.596
98290SOL     OW96708  13.749  13.744   6.790
98290SOL    HW196709  13.695  13.823   6.790
98290SOL    HW296710  13.833  13.773   6.754
98291SOL     OW96711   0.825   9.182  10.428
98291SOL    HW196712   0.766   9.149  10.496
98291SOL    HW296713   0.814   9.122  10.355
98292SOL     OW96714   1.328  14.346   4.051
98292SOL    HW196715   1.315  14.375   3.961
98292SOL    HW296716   1.385  14.412   4.089
98293SOL     OW96717  14.099   2.229   6.076
98293SOL    HW196718  14.121   2.141   6.048
98293SOL    HW296719  14.073   2.275   5.995
98294SOL     OW96720   4.607   8.546   1.284
98294SOL    HW196721   4.583   8.593   1.364
98294SOL    HW296722   4.650   8.467   1.315
98295SOL     OW96723  11.883   0.453  10.319
98295SOL    HW196724  11.968   0.410  10.330
98295SOL    HW296725  11.819   0.389  10.350
98296SOL     OW96726   9.514  11.623   7.452
98296SOL    HW196727   9.551  11.695   7.401
98296SOL    HW296728   9.589  11.568   7.475
98297SOL     OW96729   1.753   4.214  13.538
98297SOL    HW196730   1.788   4.133  13.576
98297SOL    HW296731   1.658   4.200  13.536
98298SOL     OW96732   5.959   7.095   8.250
98298SOL    HW196733   5.864   7.087   8.256
98298SOL    HW296734   5.981   7.056   8.165
98299SOL     OW96735  10.752   9.507   7.435
98299SOL    HW196736  10.701   9.435   7.474
98299SOL    HW296737  10.842   9.491   7.465
98300SOL     OW96738  14.646   9.740   0.722
98300SOL    HW196739  14.568   9.704   0.763
98300SOL    HW296740  14.613   9.796   0.652
98301SOL     OW96741   5.941   7.145  10.225
98301SOL    HW196742   5.875   7.100  10.171
98301SOL    HW296743   5.900   7.228  10.248
98302SOL     OW96744   0.425   8.765  14.482
98302SOL    HW196745   0.520   8.768  14.493
98302SOL    HW296746   0.412   8.735  14.392
98303SOL     OW96747   1.806   6.926   9.279
98303SOL    HW196748   1.859   7.006   9.273
98303SOL    HW296749   1.781   6.921   9.371
98304SOL     OW96750   9.273   1.200   6.960
98304SOL    HW196751   9.251   1.200   6.867
98304SOL    HW296752   9.224   1.274   6.996
98305SOL     OW96753   9.286  13.685  14.584
98305SOL    HW196754   9.367  13.734  14.598
98305SOL    HW296755   9.241  13.731  14.513
98306SOL     OW96756  13.721   2.121   2.605
98306SOL    HW196757  13.696   2.212   2.618
98306SOL    HW296758  13.724   2.110   2.510
98307SOL     OW96759  11.719  14.719   2.384
98307SOL    HW196760  11.698  14.797   2.333
98307SOL    HW296761  11.750  14.753   2.468
98308SOL     OW96762   9.413  10.966  10.527
98308SOL    HW196763   9.417  10.977  10.622
98308SOL    HW296764   9.499  10.998  10.497
98309SOL     OW96765   7.680  10.399   7.797
98309SOL    HW196766   7.764  10.435   7.767
98309SOL    HW296767   7.703  10.316   7.838
98310SOL     OW96768  13.518  12.488   1.808
98310SOL    HW196769  13.493  12.578   1.831
98310SOL    HW296770  13.493  12.436   1.883
98311SOL     OW96771  13.348  10.911   1.276
98311SOL    HW196772  13.383  10.848   1.339
98311SOL    HW296773  13.344  10.994   1.325
98312SOL     OW96774   1.837   9.798   1.107
98312SOL    HW196775   1.910   9.859   1.109
98312SOL    HW296776   1.851   9.747   1.027
98313SOL     OW96777  13.436   5.864  12.026
98313SOL    HW196778  13.478   5.778  12.026
98313SOL    HW296779  13.342   5.844  12.026
98314SOL     OW96780   2.173   1.098  14.860
98314SOL    HW196781   2.090   1.143  14.848
98314SOL    HW296782   2.238   1.156  14.821
98315SOL     OW96783   1.359   2.235   0.583
98315SOL    HW196784   1.416   2.310   0.596
98315SOL    HW296785   1.302   2.234   0.661
98316SOL     OW96786  13.047   3.546   1.599
98316SOL    HW196787  12.984   3.509   1.660
98316SOL    HW296788  13.024   3.509   1.514
98317SOL     OW96789   6.318   3.696  12.552
98317SOL    HW196790   6.229   3.732  12.553
98317SOL    HW296791   6.369   3.761  12.503
98318SOL     OW96792   6.698   7.560   8.314
98318SOL    HW196793   6.610   7.556   8.351
98318SOL    HW296794   6.702   7.646   8.272
98319SOL     OW96795  10.075   2.371   7.485
98319SOL    HW196796  10.127   2.404   7.412
98319SOL    HW296797  10.048   2.283   7.457
98320SOL     OW96798   0.528   7.955   4.009
98320SOL    HW196799   0.449   7.991   3.969
98320SOL    HW296800   0.571   7.906   3.940
98321SOL     OW96801   0.695  10.594   7.264
98321SOL    HW196802   0.704  10.512   7.312
98321SOL    HW296803   0.772  10.645   7.290
98322SOL     OW96804   2.183  13.123   8.400
98322SOL    HW196805   2.272  13.156   8.414
98322SOL    HW296806   2.190  13.029   8.416
98323SOL     OW96807   1.541  12.631   5.453
98323SOL    HW196808   1.476  12.700   5.442
98323SOL    HW296809   1.560  12.601   5.364
98324SOL     OW96810   7.692   1.142   8.619
98324SOL    HW196811   7.685   1.182   8.705
98324SOL    HW296812   7.660   1.208   8.558
98325SOL     OW96813   6.776  11.695   2.124
98325SOL    HW196814   6.829  11.641   2.065
98325SOL    HW296815   6.792  11.657   2.211
98326SOL     OW96816  14.165   7.300   4.791
98326SOL    HW196817  14.134   7.329   4.877
98326SOL    HW296818  14.086   7.292   4.738
98327SOL     OW96819   0.855  13.773  11.836
98327SOL    HW196820   0.925  13.748  11.897
98327SOL    HW296821   0.775  13.738  11.876
98328SOL     OW96822   2.548  13.672  11.619
98328SOL    HW196823   2.530  13.696  11.710
98328SOL    HW296824   2.485  13.603  11.599
98329SOL     OW96825  11.035  10.183  12.461
98329SOL    HW196826  10.963  10.210  12.517
98329SOL    HW296827  10.993  10.163  12.377
98330SOL     OW96828   3.474   3.499   7.172
98330SOL    HW196829   3.542   3.498   7.239
98330SOL    HW296830   3.522   3.506   7.089
98331SOL     OW96831  10.409  10.983  10.019
98331SOL    HW196832  10.430  11.060  10.072
98331SOL    HW296833  10.490  10.932  10.017
98332SOL     OW96834  10.612  12.771   0.943
98332SOL    HW196835  10.543  12.732   0.889
98332SOL    HW296836  10.601  12.731   1.029
98333SOL     OW96837   0.786   1.106   5.678
98333SOL    HW196838   0.837   1.179   5.642
98333SOL    HW296839   0.846   1.060   5.736
98334SOL     OW96840   1.936   3.147   4.467
98334SOL    HW196841   2.021   3.189   4.451
98334SOL    HW296842   1.888   3.210   4.521
98335SOL     OW96843   2.206   6.497  14.244
98335SOL    HW196844   2.165   6.569  14.290
98335SOL    HW296845   2.133   6.445  14.210
98336SOL     OW96846   2.472   7.009   6.307
98336SOL    HW196847   2.505   6.920   6.309
98336SOL    HW296848   2.509   7.047   6.228
98337SOL     OW96849   7.040   1.297   7.160
98337SOL    HW196850   7.035   1.291   7.256
98337SOL    HW296851   7.129   1.329   7.143
98338SOL     OW96852   8.967   8.350   4.265
98338SOL    HW196853   8.936   8.428   4.221
98338SOL    HW296854   9.051   8.376   4.303
98339SOL     OW96855   8.458   8.255   4.885
98339SOL    HW196856   8.525   8.271   4.952
98339SOL    HW296857   8.439   8.162   4.891
98340SOL     OW96858  10.686   6.308  11.241
98340SOL    HW196859  10.631   6.229  11.237
98340SOL    HW296860  10.768   6.278  11.279
98341SOL     OW96861   1.743  10.407  10.424
98341SOL    HW196862   1.667  10.390  10.369
98341SOL    HW296863   1.748  10.502  10.431
98342SOL     OW96864   0.815   4.515  10.274
98342SOL    HW196865   0.834   4.563  10.354
98342SOL    HW296866   0.875   4.552  10.209
98343SOL     OW96867  12.098  12.936   0.092
98343SOL    HW196868  12.189  12.961   0.082
98343SOL    HW296869  12.092  12.849   0.053
98344SOL     OW96870  10.477  11.318  13.251
98344SOL    HW196871  10.390  11.347  13.224
98344SOL    HW296872  10.537  11.364  13.193
98345SOL     OW96873  13.943   8.554  11.586
98345SOL    HW196874  13.973   8.497  11.657
98345SOL    HW296875  13.953   8.642  11.621
98346SOL     OW96876   1.785  11.364   2.070
98346SOL    HW196877   1.848  11.435   2.083
98346SOL    HW296878   1.711  11.388   2.127
98347SOL     OW96879   1.621   7.135   6.613
98347SOL    HW196880   1.532   7.100   6.612
98347SOL    HW296881   1.622   7.202   6.544
98348SOL     OW96882   5.295  11.990  14.169
98348SOL    HW196883   5.304  11.895  14.173
98348SOL    HW296884   5.340  12.022  14.247
98349SOL     OW96885   0.762  12.532   3.665
98349SOL    HW196886   0.712  12.458   3.631
98349SOL    HW296887   0.853  12.506   3.658
98350SOL     OW96888   1.245   7.310   2.299
98350SOL    HW196889   1.209   7.389   2.260
98350SOL    HW296890   1.226   7.241   2.234
98351SOL     OW96891   6.856   9.990   7.467
98351SOL    HW196892   6.783   9.984   7.406
98351SOL    HW296893   6.840   9.921   7.532
98352SOL     OW96894   0.429   1.232   3.093
98352SOL    HW196895   0.340   1.249   3.063
98352SOL    HW296896   0.473   1.192   3.017
98353SOL     OW96897  12.905   2.433   6.776
98353SOL    HW196898  12.858   2.486   6.712
98353SOL    HW296899  12.931   2.495   6.845
98354SOL     OW96900   1.701   7.428  14.755
98354SOL    HW196901   1.625   7.468  14.712
98354SOL    HW296902   1.674   7.420  14.847
98355SOL     OW96903   5.624  13.289   4.921
98355SOL    HW196904   5.717  13.312   4.920
98355SOL    HW296905   5.623  13.194   4.933
98356SOL     OW96906   1.157   8.762   4.383
98356SOL    HW196907   1.233   8.776   4.326
98356SOL    HW296908   1.188   8.789   4.470
98357SOL     OW96909  10.492   6.385   3.415
98357SOL    HW196910  10.418   6.439   3.388
98357SOL    HW296911  10.451   6.311   3.460
98358SOL     OW96912   8.375   2.941   5.501
98358SOL    HW196913   8.366   2.918   5.408
98358SOL    HW296914   8.459   2.903   5.526
98359SOL     OW96915   5.957   3.049   0.296
98359SOL    HW196916   5.891   3.022   0.233
98359SOL    HW296917   5.971   2.973   0.351
98360SOL     OW96918  14.050   9.481   6.669
98360SOL    HW196919  13.963   9.481   6.630
98360SOL    HW296920  14.062   9.571   6.700
98361SOL     OW96921  13.452   2.601   6.497
98361SOL    HW196922  13.375   2.591   6.441
98361SOL    HW296923  13.525   2.572   6.443
98362SOL     OW96924   1.033   8.653  10.868
98362SOL    HW196925   1.065   8.644  10.778
98362SOL    HW296926   1.095   8.605  10.922
98363SOL     OW96927  10.886  14.169   8.990
98363SOL    HW196928  10.893  14.136   9.079
98363SOL    HW296929  10.837  14.100   8.943
98364SOL     OW96930   1.755   8.909   4.697
98364SOL    HW196931   1.691   8.951   4.638
98364SOL    HW296932   1.840   8.942   4.667
98365SOL     OW96933   2.374   0.716   1.067
98365SOL    HW196934   2.436   0.644   1.060
98365SOL    HW296935   2.382   0.747   1.158
98366SOL     OW96936  11.239  10.897   5.535
98366SOL    HW196937  11.151  10.860   5.542
98366SOL    HW296938  11.224  10.990   5.519
98367SOL     OW96939   1.205  11.437  13.893
98367SOL    HW196940   1.135  11.373  13.904
98367SOL    HW296941   1.236  11.454  13.981
98368SOL     OW96942  13.522   1.083  12.853
98368SOL    HW196943  13.548   1.142  12.923
98368SOL    HW296944  13.444   1.123  12.815
98369SOL     OW96945  12.252   6.405   0.402
98369SOL    HW196946  12.205   6.484   0.376
98369SOL    HW296947  12.343   6.432   0.409
98370SOL     OW96948   6.535   5.522   0.385
98370SOL    HW196949   6.474   5.588   0.417
98370SOL    HW296950   6.503   5.498   0.299
98371SOL     OW96951   3.424  10.630   5.261
98371SOL    HW196952   3.355  10.631   5.328
98371SOL    HW296953   3.501  10.597   5.306
98372SOL     OW96954  12.379  11.272   6.619
98372SOL    HW196955  12.429  11.238   6.693
98372SOL    HW296956  12.434  11.341   6.581
98373SOL     OW96957   1.917  11.295   0.065
98373SOL    HW196958   1.858  11.366   0.039
98373SOL    HW296959   1.906  11.287   0.159
98374SOL     OW96960   4.109  12.357  11.669
98374SOL    HW196961   4.017  12.357  11.696
98374SOL    HW296962   4.157  12.339  11.750
98375SOL     OW96963   4.808  12.903   4.454
98375SOL    HW196964   4.712  12.898   4.460
98375SOL    HW296965   4.827  12.997   4.458
98376SOL     OW96966   3.247  11.394   2.765
98376SOL    HW196967   3.239  11.364   2.855
98376SOL    HW296968   3.181  11.343   2.717
98377SOL     OW96969   7.122  12.157   1.989
98377SOL    HW196970   7.204  12.128   2.028
98377SOL    HW296971   7.093  12.084   1.935
98378SOL     OW96972   1.806   7.143  14.639
98378SOL    HW196973   1.839   7.067  14.590
98378SOL    HW296974   1.826   7.122  14.730
98379SOL     OW96975   1.075   4.008  12.210
98379SOL    HW196976   1.142   3.971  12.153
98379SOL    HW296977   1.088   4.103  12.204
98380SOL     OW96978  11.638   4.580   5.113
98380SOL    HW196979  11.665   4.623   5.194
98380SOL    HW296980  11.544   4.570   5.121
98381SOL     OW96981  12.125   2.544  14.443
98381SOL    HW196982  12.131   2.528  14.537
98381SOL    HW296983  12.183   2.480  14.403
98382SOL     OW96984   8.286   5.625   0.963
98382SOL    HW196985   8.328   5.588   1.040
98382SOL    HW296986   8.205   5.575   0.953
98383SOL     OW96987   0.741  12.168  13.371
98383SOL    HW196988   0.697  12.121  13.442
98383SOL    HW296989   0.778  12.245  13.414
98384SOL     OW96990  11.862  14.771   4.198
98384SOL    HW196991  11.788  14.826   4.225
98384SOL    HW296992  11.895  14.734   4.280
98385SOL     OW96993   5.719  12.674   9.899
98385SOL    HW196994   5.645  12.678   9.838
98385SOL    HW296995   5.793  12.708   9.849
98386SOL     OW96996  11.273   8.949  11.639
98386SOL    HW196997  11.334   9.016  11.669
98386SOL    HW296998  11.284   8.877  11.701
98387SOL     OW96999  11.497   6.126  13.007
98387SOL    HW197000  11.463   6.202  12.959
98387SOL    HW297001  11.528   6.067  12.938
98388SOL     OW97002   3.749  13.566  14.305
98388SOL    HW197003   3.666  13.520  14.288
98388SOL    HW297004   3.790  13.518  14.376
98389SOL     OW97005  11.700   9.087  12.189
98389SOL    HW197006  11.708   9.040  12.272
98389SOL    HW297007  11.613   9.127  12.192
98390SOL     OW97008   8.480   9.143   2.775
98390SOL    HW197009   8.506   9.070   2.720
98390SOL    HW297010   8.448   9.103   2.856
98391SOL     OW97011  12.110  13.654  12.101
98391SOL    HW197012  12.036  13.714  12.091
98391SOL    HW297013  12.136  13.663  12.192
98392SOL     OW97014   6.214   9.655  11.738
98392SOL    HW197015   6.125   9.681  11.718
98392SOL    HW297016   6.250   9.727  11.791
98393SOL     OW97017   3.956   2.386  11.943
98393SOL    HW197018   3.906   2.397  11.862
98393SOL    HW297019   3.993   2.298  11.936
98394SOL     OW97020   9.481   9.397  13.715
98394SOL    HW197021   9.552   9.368  13.658
98394SOL    HW297022   9.472   9.327  13.780
98395SOL     OW97023  11.864  13.709   5.975
98395SOL    HW197024  11.956  13.732   5.961
98395SOL    HW297025  11.818  13.751   5.902
98396SOL     OW97026  11.049   8.114  14.235
98396SOL    HW197027  10.964   8.119  14.191
98396SOL    HW297028  11.071   8.021  14.234
98397SOL     OW97029  10.407   9.988  12.009
98397SOL    HW197030  10.355   9.907  12.014
98397SOL    HW297031  10.375  10.041  12.082
98398SOL     OW97032   8.318   3.629   4.250
98398SOL    HW197033   8.330   3.708   4.197
98398SOL    HW297034   8.405   3.591   4.257
98399SOL     OW97035   3.846  11.677   2.371
98399SOL    HW197036   3.844  11.582   2.366
98399SOL    HW297037   3.931  11.702   2.334
98400SOL     OW97038  11.205   0.351   0.501
98400SOL    HW197039  11.175   0.323   0.587
98400SOL    HW297040  11.244   0.272   0.463
98401SOL     OW97041  14.755   4.703   1.028
98401SOL    HW197042  14.785   4.722   1.117
98401SOL    HW297043  14.826   4.652   0.989
98402SOL     OW97044  14.333   6.749   4.683
98402SOL    HW197045  14.405   6.733   4.745
98402SOL    HW297046  14.267   6.794   4.735
98403SOL     OW97047  11.290   0.956   2.571
98403SOL    HW197048  11.254   1.043   2.550
98403SOL    HW297049  11.230   0.895   2.529
98404SOL     OW97050   8.672  11.638   2.037
98404SOL    HW197051   8.674  11.609   2.129
98404SOL    HW297052   8.632  11.565   1.990
98405SOL     OW97053   3.202  14.387   0.950
98405SOL    HW197054   3.228  14.332   0.876
98405SOL    HW297055   3.279  14.391   1.006
98406SOL     OW97056  11.464   2.137  11.022
98406SOL    HW197057  11.442   2.054  10.979
98406SOL    HW297058  11.482   2.197  10.950
98407SOL     OW97059   5.875   6.406   4.674
98407SOL    HW197060   5.899   6.374   4.761
98407SOL    HW297061   5.802   6.465   4.689
98408SOL     OW97062   6.648   3.744   0.207
98408SOL    HW197063   6.585   3.798   0.159
98408SOL    HW297064   6.727   3.744   0.153
98409SOL     OW97065   1.091   9.545  10.384
98409SOL    HW197066   1.141   9.557  10.465
98409SOL    HW297067   1.002   9.524  10.415
98410SOL     OW97068  13.468  11.759  12.955
98410SOL    HW197069  13.447  11.679  13.003
98410SOL    HW297070  13.441  11.829  13.014
98411SOL     OW97071  12.350  12.832  10.435
98411SOL    HW197072  12.344  12.830  10.340
98411SOL    HW297073  12.331  12.923  10.459
98412SOL     OW97074   1.779   0.002   2.510
98412SOL    HW197075   1.865   0.037   2.489
98412SOL    HW297076   1.738   0.070   2.563
98413SOL     OW97077   0.897   0.569   3.464
98413SOL    HW197078   0.912   0.504   3.532
98413SOL    HW297079   0.813   0.609   3.486
98414SOL     OW97080  10.552  13.102   8.586
98414SOL    HW197081  10.548  13.085   8.492
98414SOL    HW297082  10.530  13.195   8.594
98415SOL     OW97083   6.532   4.294   3.741
98415SOL    HW197084   6.486   4.369   3.779
98415SOL    HW297085   6.543   4.317   3.649
98416SOL     OW97086   3.865   5.264   6.264
98416SOL    HW197087   3.921   5.341   6.276
98416SOL    HW297088   3.867   5.219   6.348
98417SOL     OW97089   8.907   1.087   6.920
98417SOL    HW197090   8.926   1.180   6.911
98417SOL    HW297091   8.972   1.056   6.983
98418SOL     OW97092   8.061   6.841   8.984
98418SOL    HW197093   8.032   6.909   9.045
98418SOL    HW297094   8.122   6.886   8.926
98419SOL     OW97095   2.916  13.217   3.093
98419SOL    HW197096   2.978  13.225   3.020
98419SOL    HW297097   2.880  13.128   3.084
98420SOL     OW97098   4.315  10.875  11.564
98420SOL    HW197099   4.366  10.949  11.597
98420SOL    HW297100   4.350  10.799  11.612
98421SOL     OW97101  11.561   1.628   8.215
98421SOL    HW197102  11.598   1.543   8.192
98421SOL    HW297103  11.610   1.691   8.162
98422SOL     OW97104  14.717   7.202   9.574
98422SOL    HW197105  14.727   7.295   9.554
98422SOL    HW297106  14.674   7.200   9.660
98423SOL     OW97107   0.630   7.604  11.683
98423SOL    HW197108   0.629   7.697  11.657
98423SOL    HW297109   0.721   7.588  11.707
98424SOL     OW97110   1.850   3.419  12.769
98424SOL    HW197111   1.795   3.401  12.693
98424SOL    HW297112   1.923   3.471  12.735
98425SOL     OW97113  12.642  11.551   5.156
98425SOL    HW197114  12.678  11.611   5.222
98425SOL    HW297115  12.620  11.472   5.205
98426SOL     OW97116   0.327   3.163   2.885
98426SOL    HW197117   0.352   3.247   2.923
98426SOL    HW297118   0.325   3.179   2.791
98427SOL     OW97119   1.284   5.347  11.995
98427SOL    HW197120   1.202   5.380  12.034
98427SOL    HW297121   1.335   5.315  12.069
98428SOL     OW97122   5.363  10.194   7.874
98428SOL    HW197123   5.374  10.191   7.779
98428SOL    HW297124   5.281  10.240   7.888
98429SOL     OW97125  14.253  14.501   1.628
98429SOL    HW197126  14.222  14.551   1.552
98429SOL    HW297127  14.278  14.569   1.692
98430SOL     OW97128  10.915   9.726   2.155
98430SOL    HW197129  10.993   9.774   2.182
98430SOL    HW297130  10.871   9.703   2.237
98431SOL     OW97131   1.345   4.477   2.377
98431SOL    HW197132   1.391   4.417   2.436
98431SOL    HW297133   1.294   4.534   2.435
98432SOL     OW97134   5.186  13.388  12.804
98432SOL    HW197135   5.160  13.296  12.810
98432SOL    HW297136   5.122  13.427  12.745
98433SOL     OW97137   7.344   3.040   1.839
98433SOL    HW197138   7.350   2.968   1.775
98433SOL    HW297139   7.288   3.105   1.797
98434SOL     OW97140   1.009   5.640   5.740
98434SOL    HW197141   0.925   5.678   5.715
98434SOL    HW297142   1.070   5.714   5.736
98435SOL     OW97143   5.627   6.480   5.093
98435SOL    HW197144   5.564   6.448   5.028
98435SOL    HW297145   5.636   6.408   5.155
98436SOL     OW97146   1.293   2.351   8.994
98436SOL    HW197147   1.294   2.433   8.944
98436SOL    HW297148   1.233   2.294   8.945
98437SOL     OW97149   9.556  10.550   9.162
98437SOL    HW197150   9.529  10.594   9.242
98437SOL    HW297151   9.539  10.457   9.179
98438SOL     OW97152   2.723   8.953  13.530
98438SOL    HW197153   2.763   8.889  13.470
98438SOL    HW297154   2.735   8.915  13.617
98439SOL     OW97155   0.250   2.254   8.992
98439SOL    HW197156   0.256   2.198   8.915
98439SOL    HW297157   0.338   2.252   9.030
98440SOL     OW97158  10.554  10.960   1.918
98440SOL    HW197159  10.471  10.978   1.874
98440SOL    HW297160  10.570  10.867   1.901
98441SOL     OW97161   6.685  14.862   0.891
98441SOL    HW197162   6.692  14.769   0.912
98441SOL    HW297163   6.606   0.018   0.938
98442SOL     OW97164   8.406   2.675   7.255
98442SOL    HW197165   8.431   2.722   7.335
98442SOL    HW297166   8.321   2.637   7.275
98443SOL     OW97167   7.826   3.212   8.826
98443SOL    HW197168   7.746   3.159   8.817
98443SOL    HW297169   7.799   3.300   8.800
98444SOL     OW97170   0.022   2.244   7.609
98444SOL    HW197171   0.047   2.169   7.662
98444SOL    HW297172  14.816   2.216   7.563
98445SOL     OW97173   1.887   7.400   6.929
98445SOL    HW197174   1.899   7.349   6.849
98445SOL    HW297175   1.794   7.392   6.949
98446SOL     OW97176  14.210   8.149  10.560
98446SOL    HW197177  14.294   8.120  10.597
98446SOL    HW297178  14.180   8.075  10.508
98447SOL     OW97179   3.491   3.654   5.772
98447SOL    HW197180   3.459   3.742   5.751
98447SOL    HW297181   3.430   3.595   5.727
98448SOL     OW97182   7.024   1.566  14.213
98448SOL    HW197183   7.023   1.658  14.186
98448SOL    HW297184   7.114   1.538  14.200
98449SOL     OW97185   2.360   1.040   6.833
98449SOL    HW197186   2.444   1.058   6.790
98449SOL    HW297187   2.372   0.955   6.875
98450SOL     OW97188  10.334   1.831   3.070
98450SOL    HW197189  10.280   1.876   3.135
98450SOL    HW297190  10.390   1.773   3.121
98451SOL     OW97191   5.452   2.433   6.183
98451SOL    HW197192   5.499   2.350   6.174
98451SOL    HW297193   5.466   2.478   6.100
98452SOL     OW97194   6.624   0.930   8.008
98452SOL    HW197195   6.666   0.926   7.922
98452SOL    HW297196   6.566   0.854   8.010
98453SOL     OW97197   9.022  14.277   9.850
98453SOL    HW197198   8.928  14.259   9.851
98453SOL    HW297199   9.029  14.364   9.811
98454SOL     OW97200  12.717   9.702   4.672
98454SOL    HW197201  12.797   9.750   4.654
98454SOL    HW297202  12.718   9.687   4.767
98455SOL     OW97203   9.924  14.768   2.487
98455SOL    HW197204   9.953  14.852   2.524
98455SOL    HW297205   9.999  14.737   2.437
98456SOL     OW97206  10.340   8.335   6.072
98456SOL    HW197207  10.367   8.414   6.025
98456SOL    HW297208  10.344   8.265   6.007
98457SOL     OW97209  12.225   1.493   8.023
98457SOL    HW197210  12.256   1.417   8.072
98457SOL    HW297211  12.139   1.467   7.989
98458SOL     OW97212   0.158   3.373  10.133
98458SOL    HW197213   0.168   3.385  10.228
98458SOL    HW297214   0.156   3.463  10.098
98459SOL     OW97215   0.723   9.110   7.926
98459SOL    HW197216   0.694   9.027   7.963
98459SOL    HW297217   0.729   9.169   8.001
98460SOL     OW97218   2.243   9.065   1.652
98460SOL    HW197219   2.194   9.128   1.600
98460SOL    HW297220   2.229   9.093   1.743
98461SOL     OW97221   5.916   1.014   0.305
98461SOL    HW197222   5.841   1.072   0.315
98461SOL    HW297223   5.965   1.023   0.386
98462SOL     OW97224   1.411   6.005  13.388
98462SOL    HW197225   1.428   5.912  13.401
98462SOL    HW297226   1.325   6.020  13.428
98463SOL     OW97227   3.475   3.756  11.002
98463SOL    HW197228   3.381   3.768  10.992
98463SOL    HW297229   3.497   3.684  10.942
98464SOL     OW97230   9.049   7.099  10.863
98464SOL    HW197231   8.957   7.119  10.848
98464SOL    HW297232   9.064   7.126  10.954
98465SOL     OW97233   6.673  11.378   1.135
98465SOL    HW197234   6.744  11.347   1.080
98465SOL    HW297235   6.716  11.417   1.211
98466SOL     OW97236   4.174  14.516   9.033
98466SOL    HW197237   4.258  14.491   8.994
98466SOL    HW297238   4.130  14.434   9.053
98467SOL     OW97239   0.862   5.668   1.652
98467SOL    HW197240   0.785   5.690   1.704
98467SOL    HW297241   0.937   5.691   1.708
98468SOL     OW97242  14.709   2.630  13.452
98468SOL    HW197243  14.800   2.599  13.455
98468SOL    HW297244  14.715   2.724  13.470
98469SOL     OW97245  11.986   2.350   8.713
98469SOL    HW197246  12.000   2.344   8.808
98469SOL    HW297247  11.916   2.415   8.703
98470SOL     OW97248  10.076   9.718  11.768
98470SOL    HW197249  10.013   9.742  11.701
98470SOL    HW297250  10.160   9.748  11.735
98471SOL     OW97251   7.692   5.632   2.316
98471SOL    HW197252   7.749   5.680   2.375
98471SOL    HW297253   7.613   5.614   2.368
98472SOL     OW97254  14.310   1.927   2.684
98472SOL    HW197255  14.305   2.014   2.723
98472SOL    HW297256  14.219   1.895   2.684
98473SOL     OW97257  12.151  12.572  11.955
98473SOL    HW197258  12.080  12.616  11.909
98473SOL    HW297259  12.110  12.497  11.997
98474SOL     OW97260   1.799  13.048   3.754
98474SOL    HW197261   1.741  13.120   3.779
98474SOL    HW297262   1.804  12.993   3.832
98475SOL     OW97263   3.211  13.455   7.794
98475SOL    HW197264   3.259  13.375   7.816
98475SOL    HW297265   3.122  13.425   7.772
98476SOL     OW97266   2.746   0.129   5.824
98476SOL    HW197267   2.734   0.188   5.899
98476SOL    HW297268   2.765   0.044   5.863
98477SOL     OW97269  12.434   0.795   8.730
98477SOL    HW197270  12.516   0.844   8.724
98477SOL    HW297271  12.373   0.856   8.772
98478SOL     OW97272   4.661  11.752  12.533
98478SOL    HW197273   4.612  11.764  12.451
98478SOL    HW297274   4.748  11.787  12.514
98479SOL     OW97275   6.395   3.279  14.266
98479SOL    HW197276   6.340   3.322  14.332
98479SOL    HW297277   6.472   3.250  14.314
98480SOL     OW97278   5.080   0.914   1.869
98480SOL    HW197279   5.062   0.979   1.937
98480SOL    HW297280   5.043   0.952   1.789
98481SOL     OW97281   5.392   1.465   5.202
98481SOL    HW197282   5.421   1.448   5.112
98481SOL    HW297283   5.338   1.544   5.195
98482SOL     OW97284  12.375  13.508   8.882
98482SOL    HW197285  12.366  13.602   8.866
98482SOL    HW297286  12.289  13.472   8.864
98483SOL     OW97287   3.965   8.410  10.176
98483SOL    HW197288   4.035   8.413  10.242
98483SOL    HW297289   3.945   8.502  10.158
98484SOL     OW97290  14.423   4.429  12.907
98484SOL    HW197291  14.455   4.402  12.993
98484SOL    HW297292  14.500   4.421  12.850
98485SOL     OW97293   3.282   0.421   1.817
98485SOL    HW197294   3.336   0.494   1.789
98485SOL    HW297295   3.225   0.403   1.742
98486SOL     OW97296   9.708   9.635   3.314
98486SOL    HW197297   9.723   9.623   3.407
98486SOL    HW297298   9.728   9.550   3.275
98487SOL     OW97299   9.632  12.437   7.931
98487SOL    HW197300   9.656  12.345   7.918
98487SOL    HW297301   9.561  12.435   7.995
98488SOL     OW97302   5.500   3.574  12.895
98488SOL    HW197303   5.480   3.533  12.980
98488SOL    HW297304   5.415   3.580  12.852
98489SOL     OW97305   7.186   2.981   8.667
98489SOL    HW197306   7.197   2.991   8.761
98489SOL    HW297307   7.261   3.028   8.629
98490SOL     OW97308   8.036   5.530   0.947
98490SOL    HW197309   7.983   5.482   0.883
98490SOL    HW297310   8.012   5.491   1.032
98491SOL     OW97311  10.235   7.152   2.227
98491SOL    HW197312  10.287   7.073   2.237
98491SOL    HW297313  10.155   7.123   2.182
98492SOL     OW97314   2.123   0.013   4.177
98492SOL    HW197315   2.035   0.027   4.141
98492SOL    HW297316   2.107  14.857   4.267
98493SOL     OW97317  12.261   6.062  12.862
98493SOL    HW197318  12.231   6.118  12.933
98493SOL    HW297319  12.350   6.091  12.843
98494SOL     OW97320  11.616  12.445   3.963
98494SOL    HW197321  11.548  12.419   3.902
98494SOL    HW297322  11.602  12.539   3.977
98495SOL     OW97323   4.014   0.897   5.751
98495SOL    HW197324   3.976   0.897   5.839
98495SOL    HW297325   3.985   0.980   5.713
98496SOL     OW97326   5.705   7.220   3.575
98496SOL    HW197327   5.753   7.149   3.532
98496SOL    HW297328   5.772   7.287   3.589
98497SOL     OW97329   3.920  14.478   6.186
98497SOL    HW197330   3.920  14.392   6.227
98497SOL    HW297331   3.900  14.461   6.094
98498SOL     OW97332   6.232   5.911  11.439
98498SOL    HW197333   6.229   5.946  11.350
98498SOL    HW297334   6.324   5.886  11.451
98499SOL     OW97335   9.186   7.134   2.915
98499SOL    HW197336   9.166   7.228   2.909
98499SOL    HW297337   9.281   7.130   2.910
98500SOL     OW97338   1.081   1.637  12.897
98500SOL    HW197339   1.097   1.694  12.822
98500SOL    HW297340   1.007   1.677  12.942
98501SOL     OW97341   7.514   7.202   6.301
98501SOL    HW197342   7.463   7.180   6.379
98501SOL    HW297343   7.597   7.156   6.314
98502SOL     OW97344   2.888   1.730  11.596
98502SOL    HW197345   2.910   1.719  11.688
98502SOL    HW297346   2.874   1.824  11.585
98503SOL     OW97347   0.470   4.654  12.958
98503SOL    HW197348   0.388   4.655  13.008
98503SOL    HW297349   0.538   4.671  13.023
98504SOL     OW97350   0.497  11.586   8.038
98504SOL    HW197351   0.475  11.507   7.989
98504SOL    HW297352   0.445  11.655   7.997
98505SOL     OW97353   7.195   7.511  14.535
98505SOL    HW197354   7.279   7.485  14.497
98505SOL    HW297355   7.132   7.449  14.498
98506SOL     OW97356  10.056   0.609  13.876
98506SOL    HW197357  10.066   0.583  13.967
98506SOL    HW297358  10.145   0.629  13.847
98507SOL     OW97359   9.441   5.607   4.773
98507SOL    HW197360   9.463   5.539   4.710
98507SOL    HW297361   9.523   5.627   4.818
98508SOL     OW97362   2.324  14.574   2.471
98508SOL    HW197363   2.392  14.641   2.462
98508SOL    HW297364   2.269  14.584   2.394
98509SOL     OW97365  10.562   7.792   8.565
98509SOL    HW197366  10.471   7.822   8.557
98509SOL    HW297367  10.586   7.765   8.476
98510SOL     OW97368   4.576   6.390  13.528
98510SOL    HW197369   4.638   6.365  13.459
98510SOL    HW297370   4.491   6.362  13.495
98511SOL     OW97371   8.858   1.443   7.820
98511SOL    HW197372   8.820   1.519   7.777
98511SOL    HW297373   8.853   1.373   7.754
98512SOL     OW97374   9.329  14.749  10.424
98512SOL    HW197375   9.361  14.662  10.450
98512SOL    HW297376   9.380  14.770  10.346
98513SOL     OW97377   5.542  14.839   8.227
98513SOL    HW197378   5.486  14.769   8.260
98513SOL    HW297379   5.613  14.794   8.181
98514SOL     OW97380  13.151  11.109   4.443
98514SOL    HW197381  13.143  11.192   4.490
98514SOL    HW297382  13.140  11.042   4.510
98515SOL     OW97383   3.639   4.291   3.663
98515SOL    HW197384   3.576   4.342   3.714
98515SOL    HW297385   3.720   4.294   3.714
98516SOL     OW97386  11.041   3.241   7.529
98516SOL    HW197387  11.045   3.335   7.550
98516SOL    HW297388  10.977   3.234   7.458
98517SOL     OW97389   0.279   4.021  11.570
98517SOL    HW197390   0.365   3.994  11.537
98517SOL    HW297391   0.282   4.117  11.569
98518SOL     OW97392   4.278   7.817   3.074
98518SOL    HW197393   4.227   7.847   2.998
98518SOL    HW297394   4.310   7.730   3.049
98519SOL     OW97395   8.243   3.432   9.699
98519SOL    HW197396   8.304   3.468   9.635
98519SOL    HW297397   8.298   3.401   9.770
98520SOL     OW97398  10.846   8.992  13.850
98520SOL    HW197399  10.764   9.022  13.888
98520SOL    HW297400  10.853   8.900  13.875
98521SOL     OW97401  13.559  10.830   2.461
98521SOL    HW197402  13.641  10.857   2.421
98521SOL    HW297403  13.532  10.905   2.514
98522SOL     OW97404   8.119   2.734  13.068
98522SOL    HW197405   8.038   2.704  13.109
98522SOL    HW297406   8.102   2.825  13.045
98523SOL     OW97407   9.334   5.788   9.617
98523SOL    HW197408   9.393   5.821   9.684
98523SOL    HW297409   9.263   5.852   9.613
98524SOL     OW97410   7.371   4.899   7.905
98524SOL    HW197411   7.437   4.928   7.842
98524SOL    HW297412   7.422   4.866   7.979
98525SOL     OW97413   9.902  10.553  10.080
98525SOL    HW197414   9.891  10.630  10.136
98525SOL    HW297415   9.880  10.479  10.137
98526SOL     OW97416  11.118  13.511   1.933
98526SOL    HW197417  11.113  13.509   1.838
98526SOL    HW297418  11.168  13.433   1.956
98527SOL     OW97419   1.128  11.232  10.637
98527SOL    HW197420   1.062  11.197  10.578
98527SOL    HW297421   1.196  11.267  10.580
98528SOL     OW97422   3.650   2.753   6.546
98528SOL    HW197423   3.638   2.720   6.457
98528SOL    HW297424   3.731   2.711   6.576
98529SOL     OW97425  11.198   5.958  13.754
98529SOL    HW197426  11.238   5.948  13.667
98529SOL    HW297427  11.123   5.899  13.753
98530SOL     OW97428  14.833  14.091   8.297
98530SOL    HW197429  14.814  14.131   8.382
98530SOL    HW297430  14.751  14.099   8.248
98531SOL     OW97431  12.938  11.614  10.570
98531SOL    HW197432  13.003  11.660  10.623
98531SOL    HW297433  12.860  11.609  10.625
98532SOL     OW97434   1.845   6.649   3.334
98532SOL    HW197435   1.813   6.717   3.393
98532SOL    HW297436   1.909   6.693   3.278
98533SOL     OW97437   6.313  13.303  10.008
98533SOL    HW197438   6.377  13.312  10.078
98533SOL    HW297439   6.342  13.227   9.957
98534SOL     OW97440  11.507  12.285   1.917
98534SOL    HW197441  11.415  12.309   1.928
98534SOL    HW297442  11.508  12.189   1.921
98535SOL     OW97443  13.447  12.782   1.156
98535SOL    HW197444  13.518  12.840   1.181
98535SOL    HW297445  13.368  12.822   1.193
98536SOL     OW97446  14.035   6.961  10.450
98536SOL    HW197447  14.105   6.911  10.493
98536SOL    HW297448  14.081   7.027  10.399
98537SOL     OW97449   1.450   6.591   4.993
98537SOL    HW197450   1.355   6.584   5.004
98537SOL    HW297451   1.467   6.684   4.986
98538SOL     OW97452   7.790   7.346  14.573
98538SOL    HW197453   7.823   7.311  14.656
98538SOL    HW297454   7.789   7.270  14.514
98539SOL     OW97455   0.186   0.189   2.139
98539SOL    HW197456   0.211   0.097   2.146
98539SOL    HW297457   0.269   0.237   2.150
98540SOL     OW97458  12.573  12.165  12.659
98540SOL    HW197459  12.663  12.139  12.677
98540SOL    HW297460  12.539  12.098  12.599
98541SOL     OW97461  10.905   0.562   2.404
98541SOL    HW197462  10.995   0.554   2.374
98541SOL    HW297463  10.899   0.652   2.438
98542SOL     OW97464  13.132   3.672   7.088
98542SOL    HW197465  13.215   3.719   7.090
98542SOL    HW297466  13.071   3.731   7.044
98543SOL     OW97467   0.859   8.523   5.716
98543SOL    HW197468   0.947   8.534   5.682
98543SOL    HW297469   0.802   8.530   5.639
98544SOL     OW97470   4.823   3.263   1.191
98544SOL    HW197471   4.820   3.334   1.255
98544SOL    HW297472   4.743   3.213   1.206
98545SOL     OW97473   1.900   6.440   7.027
98545SOL    HW197474   1.986   6.482   7.029
98545SOL    HW297475   1.844   6.498   7.078
98546SOL     OW97476  10.760   1.773   7.485
98546SOL    HW197477  10.666   1.762   7.471
98546SOL    HW297478  10.768   1.848   7.544
98547SOL     OW97479   0.615   4.480   2.937
98547SOL    HW197480   0.613   4.424   3.014
98547SOL    HW297481   0.663   4.558   2.966
98548SOL     OW97482   2.948  13.844   4.491
98548SOL    HW197483   3.029  13.842   4.541
98548SOL    HW297484   2.925  13.751   4.480
98549SOL     OW97485  10.409   0.451   7.502
98549SOL    HW197486  10.464   0.520   7.540
98549SOL    HW297487  10.320   0.474   7.528
98550SOL     OW97488   2.696  10.137  14.780
98550SOL    HW197489   2.688  10.230  14.802
98550SOL    HW297490   2.715  10.136  14.686
98551SOL     OW97491  10.823   6.100   6.176
98551SOL    HW197492  10.734   6.117   6.206
98551SOL    HW297493  10.811   6.052   6.093
98552SOL     OW97494  14.754   7.888   4.541
98552SOL    HW197495  14.795   7.802   4.538
98552SOL    HW297496  14.689   7.880   4.611
98553SOL     OW97497   4.773   9.798   5.277
98553SOL    HW197498   4.686   9.814   5.313
98553SOL    HW297499   4.797   9.882   5.236
98554SOL     OW97500   2.177   5.883  11.936
98554SOL    HW197501   2.203   5.791  11.934
98554SOL    HW297502   2.260   5.932  11.934
98555SOL     OW97503   2.856  14.570   3.595
98555SOL    HW197504   2.940  14.594   3.556
98555SOL    HW297505   2.793  14.584   3.524
98556SOL     OW97506   9.200   2.476   1.232
98556SOL    HW197507   9.200   2.447   1.324
98556SOL    HW297508   9.275   2.535   1.225
98557SOL     OW97509   4.520   6.425  11.677
98557SOL    HW197510   4.523   6.422  11.581
98557SOL    HW297511   4.435   6.389  11.700
98558SOL     OW97512  11.597   0.113   8.912
98558SOL    HW197513  11.692   0.112   8.918
98558SOL    HW297514  11.574   0.030   8.871
98559SOL     OW97515   0.795  12.861   6.854
98559SOL    HW197516   0.822  12.789   6.797
98559SOL    HW297517   0.699  12.857   6.853
98560SOL     OW97518   7.903  12.336   9.652
98560SOL    HW197519   7.899  12.240   9.654
98560SOL    HW297520   7.919  12.358   9.560
98561SOL     OW97521  10.792   3.886   8.176
98561SOL    HW197522  10.754   3.932   8.102
98561SOL    HW297523  10.884   3.913   8.176
98562SOL     OW97524   4.906   6.655   5.248
98562SOL    HW197525   4.875   6.566   5.231
98562SOL    HW297526   4.982   6.643   5.304
98563SOL     OW97527   4.632   6.154   9.098
98563SOL    HW197528   4.599   6.166   9.008
98563SOL    HW297529   4.591   6.073   9.127
98564SOL     OW97530  12.788   3.807   1.650
98564SOL    HW197531  12.702   3.767   1.663
98564SOL    HW297532  12.792   3.824   1.556
98565SOL     OW97533   8.805   2.858  14.159
98565SOL    HW197534   8.712   2.855  14.182
98565SOL    HW297535   8.840   2.775  14.189
98566SOL     OW97536   4.372  13.941  10.800
98566SOL    HW197537   4.376  13.868  10.737
98566SOL    HW297538   4.361  14.019  10.745
98567SOL     OW97539  14.265   4.647   6.575
98567SOL    HW197540  14.305   4.585   6.636
98567SOL    HW297541  14.191   4.599   6.537
98568SOL     OW97542  14.343   5.449   0.494
98568SOL    HW197543  14.426   5.434   0.540
98568SOL    HW297544  14.292   5.370   0.513
98569SOL     OW97545   2.274   3.590   9.807
98569SOL    HW197546   2.330   3.513   9.822
98569SOL    HW297547   2.334   3.656   9.774
98570SOL     OW97548   8.119   5.318   6.239
98570SOL    HW197549   8.169   5.240   6.216
98570SOL    HW297550   8.109   5.366   6.156
98571SOL     OW97551   5.865  14.214   1.323
98571SOL    HW197552   5.832  14.182   1.239
98571SOL    HW297553   5.939  14.269   1.300
98572SOL     OW97554   1.029   2.170   3.031
98572SOL    HW197555   0.988   2.208   2.954
98572SOL    HW297556   1.122   2.169   3.011
98573SOL     OW97557   5.963   7.658  11.262
98573SOL    HW197558   5.925   7.622  11.342
98573SOL    HW297559   6.012   7.735  11.291
98574SOL     OW97560   5.154   0.294  12.921
98574SOL    HW197561   5.067   0.254  12.911
98574SOL    HW297562   5.168   0.297  13.016
98575SOL     OW97563  10.340   6.752   2.639
98575SOL    HW197564  10.261   6.739   2.586
98575SOL    HW297565  10.340   6.846   2.658
98576SOL     OW97566   0.195  11.308   6.668
98576SOL    HW197567   0.201  11.392   6.713
98576SOL    HW297568   0.274  11.305   6.613
98577SOL     OW97569   3.371  10.670   0.932
98577SOL    HW197570   3.367  10.657   1.026
98577SOL    HW297571   3.394  10.762   0.921
98578SOL     OW97572   8.080  11.948   3.592
98578SOL    HW197573   8.027  11.991   3.524
98578SOL    HW297574   8.068  11.855   3.576
98579SOL     OW97575  13.065  14.416  12.486
98579SOL    HW197576  13.038  14.355  12.418
98579SOL    HW297577  13.160  14.423  12.476
98580SOL     OW97578   3.915   1.835  10.528
98580SOL    HW197579   3.984   1.902  10.528
98580SOL    HW297580   3.962   1.752  10.537
98581SOL     OW97581   4.836  11.010   9.839
98581SOL    HW197582   4.889  10.970   9.908
98581SOL    HW297583   4.892  11.078   9.802
98582SOL     OW97584   5.998   0.144  10.637
98582SOL    HW197585   6.076   0.198  10.619
98582SOL    HW297586   5.993   0.084  10.562
98583SOL     OW97587   9.702  14.021   0.077
98583SOL    HW197588   9.644  13.946   0.071
98583SOL    HW297589   9.686  14.070  14.870
98584SOL     OW97590  12.508  14.852   2.038
98584SOL    HW197591  12.543  14.871   2.125
98584SOL    HW297592  12.458  14.771   2.048
98585SOL     OW97593   2.829   0.228   6.505
98585SOL    HW197594   2.892   0.231   6.577
98585SOL    HW297595   2.751   0.188   6.543
98586SOL     OW97596  13.433   4.903   8.435
98586SOL    HW197597  13.394   4.955   8.364
98586SOL    HW297598  13.450   4.967   8.504
98587SOL     OW97599   1.836   2.417   7.067
98587SOL    HW197600   1.789   2.333   7.073
98587SOL    HW297601   1.920   2.394   7.028
98588SOL     OW97602   3.061   1.023   3.747
98588SOL    HW197603   3.080   1.032   3.653
98588SOL    HW297604   2.968   1.044   3.755
98589SOL     OW97605  14.682   1.752   3.744
98589SOL    HW197606  14.685   1.842   3.775
98589SOL    HW297607  14.588   1.733   3.733
98590SOL     OW97608   3.772   2.624  11.012
98590SOL    HW197609   3.763   2.540  10.969
98590SOL    HW297610   3.820   2.679  10.950
98591SOL     OW97611   3.991   2.075   4.605
98591SOL    HW197612   3.936   2.131   4.551
98591SOL    HW297613   3.934   2.002   4.631
98592SOL     OW97614   7.132   8.181   9.858
98592SOL    HW197615   7.101   8.208   9.771
98592SOL    HW297616   7.227   8.175   9.848
98593SOL     OW97617   8.050   3.380  14.102
98593SOL    HW197618   8.021   3.323  14.031
98593SOL    HW297619   8.043   3.469  14.066
98594SOL     OW97620   6.316   4.762  11.759
98594SOL    HW197621   6.361   4.764  11.843
98594SOL    HW297622   6.364   4.825  11.705
98595SOL     OW97623   6.140   9.679  13.995
98595SOL    HW197624   6.069   9.731  13.957
98595SOL    HW297625   6.122   9.589  13.967
98596SOL     OW97626  12.770   4.495   3.835
98596SOL    HW197627  12.750   4.569   3.892
98596SOL    HW297628  12.820   4.533   3.763
98597SOL     OW97629   3.788  11.845   3.672
98597SOL    HW197630   3.740  11.907   3.726
98597SOL    HW297631   3.722  11.782   3.643
98598SOL     OW97632  13.936  13.567   8.572
98598SOL    HW197633  14.021  13.599   8.601
98598SOL    HW297634  13.900  13.522   8.649
98599SOL     OW97635   2.986  14.055   5.727
98599SOL    HW197636   2.920  14.013   5.782
98599SOL    HW297637   2.970  14.020   5.639
98600SOL     OW97638   4.638   0.706  11.735
98600SOL    HW197639   4.591   0.700  11.819
98600SOL    HW297640   4.596   0.779  11.690
98601SOL     OW97641  14.535  11.906   3.728
98601SOL    HW197642  14.448  11.910   3.689
98601SOL    HW297643  14.541  11.817   3.762
98602SOL     OW97644   7.421   9.423  11.371
98602SOL    HW197645   7.360   9.495  11.352
98602SOL    HW297646   7.444   9.389  11.284
98603SOL     OW97647   0.509  11.850   2.887
98603SOL    HW197648   0.431  11.810   2.848
98603SOL    HW297649   0.538  11.914   2.822
98604SOL     OW97650   5.469   4.650   1.269
98604SOL    HW197651   5.520   4.725   1.238
98604SOL    HW297652   5.387   4.690   1.301
98605SOL     OW97653   4.053  11.743   7.430
98605SOL    HW197654   4.093  11.674   7.483
98605SOL    HW297655   4.071  11.824   7.477
98606SOL     OW97656   7.814  12.904   4.117
98606SOL    HW197657   7.732  12.856   4.115
98606SOL    HW297658   7.799  12.979   4.059
98607SOL     OW97659   8.043   1.565   3.588
98607SOL    HW197660   8.108   1.576   3.518
98607SOL    HW297661   8.016   1.473   3.580
98608SOL     OW97662   3.222   0.767  14.540
98608SOL    HW197663   3.248   0.745  14.630
98608SOL    HW297664   3.129   0.748  14.536
98609SOL     OW97665   5.283   8.413   6.206
98609SOL    HW197666   5.338   8.491   6.197
98609SOL    HW297667   5.210   8.429   6.146
98610SOL     OW97668  14.685  12.325   8.381
98610SOL    HW197669  14.630  12.280   8.444
98610SOL    HW297670  14.748  12.374   8.435
98611SOL     OW97671  10.080   7.543   5.541
98611SOL    HW197672  10.175   7.531   5.544
98611SOL    HW297673  10.057   7.576   5.628
98612SOL     OW97674   2.723   4.362  11.023
98612SOL    HW197675   2.796   4.409  10.984
98612SOL    HW297676   2.763   4.312  11.095
98613SOL     OW97677  11.570   3.535   2.566
98613SOL    HW197678  11.494   3.590   2.549
98613SOL    HW297679  11.602   3.565   2.651
98614SOL     OW97680   0.290   6.175  10.988
98614SOL    HW197681   0.199   6.201  10.974
98614SOL    HW297682   0.340   6.230  10.929
98615SOL     OW97683   2.986   7.948   8.536
98615SOL    HW197684   2.995   7.864   8.492
98615SOL    HW297685   3.066   7.957   8.588
98616SOL     OW97686   1.657   3.846   9.853
98616SOL    HW197687   1.641   3.798   9.934
98616SOL    HW297688   1.570   3.873   9.823
98617SOL     OW97689  10.674   0.729   4.545
98617SOL    HW197690  10.703   0.639   4.560
98617SOL    HW297691  10.592   0.736   4.595
98618SOL     OW97692   5.752  13.977   5.330
98618SOL    HW197693   5.746  14.020   5.244
98618SOL    HW297694   5.669  13.931   5.339
98619SOL     OW97695   6.220   3.423   2.122
98619SOL    HW197696   6.316   3.421   2.132
98619SOL    HW297697   6.201   3.511   2.089
98620SOL     OW97698   2.866  10.084  11.802
98620SOL    HW197699   2.889  10.011  11.745
98620SOL    HW297700   2.867  10.160  11.743
98621SOL     OW97701   6.715  11.010  10.085
98621SOL    HW197702   6.664  11.031  10.163
98621SOL    HW297703   6.725  10.915  10.086
98622SOL     OW97704   7.203   1.917  13.490
98622SOL    HW197705   7.126   1.860  13.498
98622SOL    HW297706   7.174   2.002  13.521
98623SOL     OW97707  13.399   6.933   7.301
98623SOL    HW197708  13.383   6.879   7.224
98623SOL    HW297709  13.429   6.872   7.368
98624SOL     OW97710  13.063  10.872  11.152
98624SOL    HW197711  13.134  10.860  11.215
98624SOL    HW297712  12.999  10.927  11.198
98625SOL     OW97713   4.083   6.425   0.281
98625SOL    HW197714   4.046   6.513   0.286
98625SOL    HW297715   4.011   6.368   0.307
98626SOL     OW97716   7.324  12.628   8.091
98626SOL    HW197717   7.254  12.564   8.108
98626SOL    HW297718   7.320  12.644   7.997
98627SOL     OW97719   9.032   0.040   2.837
98627SOL    HW197720   9.071  14.850   2.777
98627SOL    HW297721   8.989  14.861   2.904
98628SOL     OW97722   2.181   7.775   1.838
98628SOL    HW197723   2.229   7.820   1.768
98628SOL    HW297724   2.243   7.770   1.911
98629SOL     OW97725   4.462  10.627   3.724
98629SOL    HW197726   4.455  10.535   3.698
98629SOL    HW297727   4.552  10.651   3.701
98630SOL     OW97728   9.792   5.543  11.927
98630SOL    HW197729   9.861   5.477  11.916
98630SOL    HW297730   9.834   5.625  11.900
98631SOL     OW97731   9.899  10.010  11.792
98631SOL    HW197732   9.948  10.079  11.748
98631SOL    HW297733   9.902   9.936  11.731
98632SOL     OW97734  14.358   2.671   9.356
98632SOL    HW197735  14.433   2.611   9.355
98632SOL    HW297736  14.329   2.672   9.447
98633SOL     OW97737  13.371  11.861   9.155
98633SOL    HW197738  13.437  11.798   9.128
98633SOL    HW297739  13.383  11.871   9.249
98634SOL     OW97740  12.361   8.449   6.082
98634SOL    HW197741  12.396   8.390   6.014
98634SOL    HW297742  12.275   8.412   6.103
98635SOL     OW97743  11.344  13.764   5.307
98635SOL    HW197744  11.329  13.722   5.392
98635SOL    HW297745  11.358  13.857   5.328
98636SOL     OW97746   1.511   9.542   3.406
98636SOL    HW197747   1.473   9.589   3.332
98636SOL    HW297748   1.589   9.592   3.430
98637SOL     OW97749  13.306  10.819  11.296
98637SOL    HW197750  13.400  10.809  11.285
98637SOL    HW297751  13.293  10.825  11.391
98638SOL     OW97752   8.402   1.796   6.791
98638SOL    HW197753   8.485   1.748   6.787
98638SOL    HW297754   8.341   1.736   6.833
98639SOL     OW97755   6.052  14.558   5.245
98639SOL    HW197756   6.109  14.519   5.179
98639SOL    HW297757   6.077  14.516   5.327
98640SOL     OW97758   7.044   7.793   7.366
98640SOL    HW197759   6.967   7.745   7.339
98640SOL    HW297760   7.022   7.885   7.350
98641SOL     OW97761   4.222  13.302   7.324
98641SOL    HW197762   4.160  13.300   7.251
98641SOL    HW297763   4.296  13.250   7.294
98642SOL     OW97764  13.670   1.580   0.803
98642SOL    HW197765  13.692   1.507   0.861
98642SOL    HW297766  13.575   1.590   0.812
98643SOL     OW97767  12.904  13.511  10.000
98643SOL    HW197768  12.864  13.553  10.076
98643SOL    HW297769  12.991  13.485  10.031
98644SOL     OW97770   2.473   3.584  14.155
98644SOL    HW197771   2.545   3.626  14.202
98644SOL    HW297772   2.437   3.653  14.099
98645SOL     OW97773   0.635   1.534   3.595
98645SOL    HW197774   0.727   1.559   3.592
98645SOL    HW297775   0.619   1.512   3.687
98646SOL     OW97776   7.961   2.025   3.003
98646SOL    HW197777   7.882   2.046   3.053
98646SOL    HW297778   7.996   2.109   2.975
98647SOL     OW97779   8.551   9.462   7.852
98647SOL    HW197780   8.567   9.551   7.884
98647SOL    HW297781   8.489   9.425   7.914
98648SOL     OW97782   2.532  13.157   1.900
98648SOL    HW197783   2.568  13.246   1.906
98648SOL    HW297784   2.441  13.166   1.929
98649SOL     OW97785  12.719  14.487  13.862
98649SOL    HW197786  12.809  14.459  13.845
98649SOL    HW297787  12.664  14.424  13.816
98650SOL     OW97788   0.402   8.993   7.439
98650SOL    HW197789   0.404   9.088   7.426
98650SOL    HW297790   0.480   8.961   7.393
98651SOL     OW97791   0.438  11.794   5.158
98651SOL    HW197792   0.514  11.774   5.213
98651SOL    HW297793   0.375  11.834   5.219
98652SOL     OW97794  13.812  12.957   8.426
98652SOL    HW197795  13.888  12.941   8.369
98652SOL    HW297796  13.804  12.877   8.478
98653SOL     OW97797   2.629   7.901  13.526
98653SOL    HW197798   2.695   7.927  13.462
98653SOL    HW297799   2.554   7.875  13.474
98654SOL     OW97800   4.771   2.000  12.088
98654SOL    HW197801   4.745   1.961  12.005
98654SOL    HW297802   4.689   2.029  12.128
98655SOL     OW97803  13.079   8.838   2.910
98655SOL    HW197804  13.013   8.833   2.979
98655SOL    HW297805  13.047   8.906   2.852
98656SOL     OW97806   4.477  13.968  13.325
98656SOL    HW197807   4.538  13.894  13.327
98656SOL    HW297808   4.463  13.984  13.232
98657SOL     OW97809   3.154  12.290   1.832
98657SOL    HW197810   3.136  12.329   1.918
98657SOL    HW297811   3.076  12.309   1.780
98658SOL     OW97812   8.292   3.620   1.822
98658SOL    HW197813   8.251   3.537   1.795
98658SOL    HW297814   8.244   3.687   1.773
98659SOL     OW97815   4.601   6.098   9.833
98659SOL    HW197816   4.664   6.156   9.875
98659SOL    HW297817   4.633   6.010   9.852
98660SOL     OW97818  14.502   9.576   2.171
98660SOL    HW197819  14.409   9.578   2.147
98660SOL    HW297820  14.536   9.499   2.125
98661SOL     OW97821   3.083   0.821  11.919
98661SOL    HW197822   3.048   0.768  11.991
98661SOL    HW297823   3.178   0.818  11.932
98662SOL     OW97824   9.194  14.543  11.609
98662SOL    HW197825   9.225  14.582  11.527
98662SOL    HW297826   9.251  14.468  11.624
98663SOL     OW97827   7.946   0.420   4.577
98663SOL    HW197828   7.905   0.499   4.542
98663SOL    HW297829   8.040   0.439   4.574
98664SOL     OW97830   9.188   3.702   7.499
98664SOL    HW197831   9.142   3.750   7.567
98664SOL    HW297832   9.155   3.612   7.508
98665SOL     OW97833  10.534   7.456  14.427
98665SOL    HW197834  10.591   7.435  14.353
98665SOL    HW297835  10.498   7.371  14.454
98666SOL     OW97836   0.160   3.119   7.927
98666SOL    HW197837   0.203   3.205   7.927
98666SOL    HW297838   0.067   3.139   7.928
98667SOL     OW97839   1.644   5.386   1.615
98667SOL    HW197840   1.697   5.332   1.673
98667SOL    HW297841   1.564   5.404   1.664
98668SOL     OW97842   2.495   0.884   3.442
98668SOL    HW197843   2.516   0.794   3.467
98668SOL    HW297844   2.413   0.877   3.393
98669SOL     OW97845   4.595   6.599   3.916
98669SOL    HW197846   4.673   6.578   3.864
98669SOL    HW297847   4.524   6.554   3.871
98670SOL     OW97848  12.246  11.354  11.156
98670SOL    HW197849  12.248  11.284  11.090
98670SOL    HW297850  12.220  11.310  11.236
98671SOL     OW97851   1.385   3.499   9.660
98671SOL    HW197852   1.403   3.562   9.729
98671SOL    HW297853   1.371   3.416   9.706
98672SOL     OW97854   2.250   3.026   7.845
98672SOL    HW197855   2.285   2.989   7.764
98672SOL    HW297856   2.323   3.023   7.907
98673SOL     OW97857   8.619   2.215   6.290
98673SOL    HW197858   8.712   2.198   6.277
98673SOL    HW297859   8.605   2.302   6.253
98674SOL     OW97860  12.014   0.269   1.874
98674SOL    HW197861  11.948   0.338   1.867
98674SOL    HW297862  12.070   0.299   1.946
98675SOL     OW97863   6.286  11.962   9.625
98675SOL    HW197864   6.308  11.873   9.595
98675SOL    HW297865   6.228  11.948   9.701
98676SOL     OW97866   4.737   6.448  10.813
98676SOL    HW197867   4.814   6.502  10.800
98676SOL    HW297868   4.675   6.477  10.746
98677SOL     OW97869   2.513   2.217   0.184
98677SOL    HW197870   2.505   2.139   0.240
98677SOL    HW297871   2.526   2.289   0.245
98678SOL     OW97872   8.873   4.699   2.274
98678SOL    HW197873   8.961   4.682   2.239
98678SOL    HW297874   8.889   4.745   2.357
98679SOL     OW97875  12.366   7.388  14.236
98679SOL    HW197876  12.420   7.408  14.160
98679SOL    HW297877  12.277   7.380  14.202
98680SOL     OW97878   8.419   6.281   6.394
98680SOL    HW197879   8.333   6.323   6.403
98680SOL    HW297880   8.407   6.195   6.435
98681SOL     OW97881  14.294   0.706   8.450
98681SOL    HW197882  14.348   0.666   8.517
98681SOL    HW297883  14.302   0.648   8.374
98682SOL     OW97884   8.477   9.489   9.160
98682SOL    HW197885   8.495   9.582   9.143
98682SOL    HW297886   8.386   9.477   9.134
98683SOL     OW97887   4.470   2.644  11.506
98683SOL    HW197888   4.450   2.725  11.552
98683SOL    HW297889   4.537   2.601  11.560
98684SOL     OW97890   8.448   9.622   2.459
98684SOL    HW197891   8.516   9.629   2.392
98684SOL    HW297892   8.426   9.529   2.461
98685SOL     OW97893   0.820  13.892   0.209
98685SOL    HW197894   0.806  13.941   0.291
98685SOL    HW297895   0.887  13.828   0.231
98686SOL     OW97896  13.804   8.023   2.539
98686SOL    HW197897  13.752   7.980   2.470
98686SOL    HW297898  13.830   8.107   2.501
98687SOL     OW97899   3.354   1.394  11.246
98687SOL    HW197900   3.397   1.409  11.330
98687SOL    HW297901   3.260   1.397  11.267
98688SOL     OW97902   7.335   6.205   6.890
98688SOL    HW197903   7.340   6.243   6.802
98688SOL    HW297904   7.418   6.227   6.931
98689SOL     OW97905   6.930   2.986   2.955
98689SOL    HW197906   6.896   2.976   2.866
98689SOL    HW297907   7.024   3.001   2.942
98690SOL     OW97908   3.453   5.600   6.846
98690SOL    HW197909   3.417   5.647   6.921
98690SOL    HW297910   3.528   5.552   6.882
98691SOL     OW97911   6.546   5.787  14.642
98691SOL    HW197912   6.527   5.868  14.594
98691SOL    HW297913   6.602   5.736  14.584
98692SOL     OW97914  11.050   9.365   7.805
98692SOL    HW197915  11.145   9.375   7.815
98692SOL    HW297916  11.017   9.359   7.894
98693SOL     OW97917   3.317  12.427  13.669
98693SOL    HW197918   3.227  12.414  13.638
98693SOL    HW297919   3.312  12.417  13.764
98694SOL     OW97920   7.494  11.205   1.219
98694SOL    HW197921   7.555  11.262   1.264
98694SOL    HW297922   7.457  11.259   1.150
98695SOL     OW97923  12.750   4.533   2.549
98695SOL    HW197924  12.806   4.507   2.476
98695SOL    HW297925  12.708   4.614   2.520
98696SOL     OW97926   5.428   4.052   9.832
98696SOL    HW197927   5.392   3.970   9.868
98696SOL    HW297928   5.429   4.112   9.907
98697SOL     OW97929   9.462  12.533   2.928
98697SOL    HW197930   9.503  12.612   2.893
98697SOL    HW297931   9.517  12.507   3.001
98698SOL     OW97932  12.065   6.122  12.162
98698SOL    HW197933  12.132   6.191  12.163
98698SOL    HW297934  11.989   6.162  12.120
98699SOL     OW97935   7.510  11.224   2.669
98699SOL    HW197936   7.473  11.160   2.607
98699SOL    HW297937   7.567  11.172   2.726
98700SOL     OW97938  10.213   5.172  13.609
98700SOL    HW197939  10.143   5.223  13.570
98700SOL    HW297940  10.208   5.191  13.703
98701SOL     OW97941  11.930  12.563   3.272
98701SOL    HW197942  11.962  12.489   3.323
98701SOL    HW297943  11.852  12.529   3.228
98702SOL     OW97944  14.163  12.145  11.986
98702SOL    HW197945  14.167  12.202  12.063
98702SOL    HW297946  14.096  12.080  12.008
98703SOL     OW97947  13.228  11.226   4.041
98703SOL    HW197948  13.233  11.138   4.004
98703SOL    HW297949  13.221  11.283   3.965
98704SOL     OW97950  13.641   4.472   9.573
98704SOL    HW197951  13.568   4.482   9.512
98704SOL    HW297952  13.621   4.533   9.644
98705SOL     OW97953   9.749   3.180  13.988
98705SOL    HW197954   9.756   3.234  13.909
98705SOL    HW297955   9.756   3.242  14.061
98706SOL     OW97956   2.876  10.360  11.667
98706SOL    HW197957   2.882  10.338  11.575
98706SOL    HW297958   2.794  10.408  11.675
98707SOL     OW97959  13.154  13.672   9.484
98707SOL    HW197960  13.185  13.637   9.568
98707SOL    HW297961  13.068  13.632   9.472
98708SOL     OW97962   6.416  11.065  12.822
98708SOL    HW197963   6.415  10.982  12.869
98708SOL    HW297964   6.386  11.043  12.734
98709SOL     OW97965  13.436   8.037   5.176
98709SOL    HW197966  13.491   8.108   5.207
98709SOL    HW297967  13.356   8.042   5.229
98710SOL     OW97968   9.438  10.104   6.731
98710SOL    HW197969   9.463  10.117   6.822
98710SOL    HW297970   9.349  10.069   6.736
98711SOL     OW97971   3.340   4.368  11.202
98711SOL    HW197972   3.415   4.386  11.144
98711SOL    HW297973   3.349   4.431  11.273
98712SOL     OW97974  13.008  12.170   3.612
98712SOL    HW197975  12.993  12.089   3.563
98712SOL    HW297976  12.921  12.199   3.637
98713SOL     OW97977   9.669  12.412   9.417
98713SOL    HW197978   9.691  12.322   9.444
98713SOL    HW297979   9.657  12.459   9.500
98714SOL     OW97980   7.346   3.513   3.055
98714SOL    HW197981   7.357   3.545   2.966
98714SOL    HW297982   7.264   3.552   3.085
98715SOL     OW97983   8.278  11.598   0.709
98715SOL    HW197984   8.190  11.630   0.688
98715SOL    HW297985   8.285  11.611   0.804
98716SOL     OW97986   8.097   4.345   5.394
98716SOL    HW197987   8.168   4.290   5.427
98716SOL    HW297988   8.108   4.342   5.299
98717SOL     OW97989  10.650  14.355  11.578
98717SOL    HW197990  10.731  14.306  11.592
98717SOL    HW297991  10.666  14.441  11.618
98718SOL     OW97992   3.151   9.841   7.177
98718SOL    HW197993   3.166   9.918   7.233
98718SOL    HW297994   3.238   9.812   7.153
98719SOL     OW97995   4.508  11.557   6.223
98719SOL    HW197996   4.414  11.573   6.237
98719SOL    HW297997   4.534  11.502   6.297
98720SOL     OW97998  14.184   8.166  11.782
98720SOL    HW197999  14.160   8.206  11.865
98720SOL    HW298000  14.269   8.125  11.799
98721SOL     OW98001   9.583   5.670   6.900
98721SOL    HW198002   9.514   5.605   6.914
98721SOL    HW298003   9.657   5.638   6.952
98722SOL     OW98004  11.994   1.913   0.229
98722SOL    HW198005  11.920   1.946   0.178
98722SOL    HW298006  11.959   1.837   0.275
98723SOL     OW98007  12.067  11.435   3.809
98723SOL    HW198008  12.061  11.344   3.780
98723SOL    HW298009  11.992  11.446   3.867
98724SOL     OW98010   0.730  12.685   0.633
98724SOL    HW198011   0.717  12.602   0.679
98724SOL    HW298012   0.683  12.749   0.687
98725SOL     OW98013  14.693   3.339  11.571
98725SOL    HW198014  14.619   3.321  11.514
98725SOL    HW298015  14.767   3.293  11.531
98726SOL     OW98016   3.919   9.087   8.122
98726SOL    HW198017   3.959   9.163   8.080
98726SOL    HW298018   3.985   9.018   8.114
98727SOL     OW98019   4.350   5.075   6.126
98727SOL    HW198020   4.361   5.112   6.214
98727SOL    HW298021   4.260   5.097   6.102
98728SOL     OW98022   2.698   3.821  10.662
98728SOL    HW198023   2.730   3.887  10.600
98728SOL    HW298024   2.778   3.776  10.692
98729SOL     OW98025   7.295   1.491  14.148
98729SOL    HW198026   7.287   1.398  14.126
98729SOL    HW298027   7.356   1.492  14.222
98730SOL     OW98028   9.120  14.244  10.959
98730SOL    HW198029   9.183  14.311  10.985
98730SOL    HW298030   9.112  14.187  11.035
98731SOL     OW98031   1.276  13.225  11.607
98731SOL    HW198032   1.260  13.303  11.660
98731SOL    HW298033   1.305  13.258  11.522
98732SOL     OW98034   0.847   5.225  13.898
98732SOL    HW198035   0.823   5.182  13.980
98732SOL    HW298036   0.794   5.305  13.897
98733SOL     OW98037   2.021  12.160  13.880
98733SOL    HW198038   2.062  12.091  13.932
98733SOL    HW298039   2.094  12.196  13.828
98734SOL     OW98040  11.490   4.061  10.784
98734SOL    HW198041  11.404   4.076  10.746
98734SOL    HW298042  11.539   4.016  10.715
98735SOL     OW98043   6.301   5.632   5.477
98735SOL    HW198044   6.272   5.544   5.453
98735SOL    HW298045   6.232   5.690   5.445
98736SOL     OW98046   8.427  11.778  12.760
98736SOL    HW198047   8.420  11.840  12.687
98736SOL    HW298048   8.454  11.696  12.719
98737SOL     OW98049   8.835   3.729   0.768
98737SOL    HW198050   8.750   3.760   0.737
98737SOL    HW298051   8.876   3.688   0.692
98738SOL     OW98052   1.034   7.065   8.245
98738SOL    HW198053   1.106   7.128   8.247
98738SOL    HW298054   1.044   7.013   8.325
98739SOL     OW98055   9.149  13.608  12.186
98739SOL    HW198056   9.103  13.582  12.266
98739SOL    HW298057   9.239  13.577  12.199
98740SOL     OW98058   4.075  14.631  10.875
98740SOL    HW198059   4.156  14.654  10.919
98740SOL    HW298060   4.033  14.567  10.933
98741SOL     OW98061   3.724   4.767   6.270
98741SOL    HW198062   3.672   4.722   6.337
98741SOL    HW298063   3.708   4.860   6.286
98742SOL     OW98064  11.387  13.949   8.061
98742SOL    HW198065  11.339  13.931   7.980
98742SOL    HW298066  11.347  14.028   8.097
98743SOL     OW98067  12.253  13.222   3.262
98743SOL    HW198068  12.222  13.226   3.353
98743SOL    HW298069  12.248  13.130   3.239
98744SOL     OW98070   8.198   1.456   2.234
98744SOL    HW198071   8.184   1.367   2.266
98744SOL    HW298072   8.247   1.444   2.152
98745SOL     OW98073  10.440  11.300   3.615
98745SOL    HW198074  10.474  11.220   3.657
98745SOL    HW298075  10.471  11.371   3.671
98746SOL     OW98076   8.330   1.157   6.797
98746SOL    HW198077   8.380   1.238   6.788
98746SOL    HW298078   8.375   1.095   6.739
98747SOL     OW98079  13.401  10.418  14.207
98747SOL    HW198080  13.422  10.494  14.154
98747SOL    HW298081  13.306  10.423  14.221
98748SOL     OW98082   0.219   1.677   4.383
98748SOL    HW198083   0.138   1.682   4.332
98748SOL    HW298084   0.261   1.762   4.371
98749SOL     OW98085   6.138  10.874   7.673
98749SOL    HW198086   6.212  10.931   7.690
98749SOL    HW298087   6.163  10.790   7.711
98750SOL     OW98088   1.372   8.852  13.467
98750SOL    HW198089   1.358   8.791  13.540
98750SOL    HW298090   1.289   8.899  13.459
98751SOL     OW98091  11.373  10.415  10.732
98751SOL    HW198092  11.430  10.438  10.659
98751SOL    HW298093  11.292  10.463  10.715
98752SOL     OW98094   1.880   3.962  11.200
98752SOL    HW198095   1.929   3.880  11.195
98752SOL    HW298096   1.793   3.936  11.228
98753SOL     OW98097  13.064   5.176  14.636
98753SOL    HW198098  12.999   5.107  14.622
98753SOL    HW298099  13.050   5.238  14.565
98754SOL     OW98100   7.009   4.963   5.149
98754SOL    HW198101   7.012   4.886   5.092
98754SOL    HW298102   6.945   5.021   5.107
98755SOL     OW98103   5.156  10.610  13.224
98755SOL    HW198104   5.098  10.540  13.253
98755SOL    HW298105   5.226  10.565  13.177
98756SOL     OW98106   9.531  12.685   2.076
98756SOL    HW198107   9.587  12.608   2.071
98756SOL    HW298108   9.471  12.677   2.002
98757SOL     OW98109   8.855   4.032   3.094
98757SOL    HW198110   8.851   3.959   3.156
98757SOL    HW298111   8.941   4.023   3.052
98758SOL     OW98112  10.456   8.854   5.581
98758SOL    HW198113  10.537   8.841   5.632
98758SOL    HW298114  10.471   8.936   5.534
98759SOL     OW98115   8.213   1.859  12.993
98759SOL    HW198116   8.140   1.845  12.932
98759SOL    HW298117   8.289   1.819  12.950
98760SOL     OW98118  13.176  13.863   5.338
98760SOL    HW198119  13.258  13.814   5.333
98760SOL    HW298120  13.204  13.951   5.366
98761SOL     OW98121   0.047  13.557   6.061
98761SOL    HW198122   0.071  13.601   6.143
98761SOL    HW298123   0.079  13.468   6.072
98762SOL     OW98124   6.397   2.633   6.931
98762SOL    HW198125   6.469   2.590   6.977
98762SOL    HW298126   6.363   2.696   6.995
98763SOL     OW98127   2.069  11.674  11.131
98763SOL    HW198128   2.146  11.725  11.107
98763SOL    HW298129   2.007  11.690  11.060
98764SOL     OW98130  14.086   2.358  11.836
98764SOL    HW198131  14.044   2.349  11.750
98764SOL    HW298132  14.075   2.272  11.877
98765SOL     OW98133   1.367   7.757   5.900
98765SOL    HW198134   1.403   7.707   5.826
98765SOL    HW298135   1.319   7.829   5.860
98766SOL     OW98136   7.364   8.029   8.265
98766SOL    HW198137   7.292   8.033   8.203
98766SOL    HW298138   7.323   8.004   8.348
98767SOL     OW98139  13.791   5.229  13.834
98767SOL    HW198140  13.801   5.280  13.754
98767SOL    HW298141  13.728   5.161  13.811
98768SOL     OW98142  14.489  11.168   1.174
98768SOL    HW198143  14.574  11.180   1.132
98768SOL    HW298144  14.427  11.160   1.101
98769SOL     OW98145   0.392  12.253  10.162
98769SOL    HW198146   0.348  12.178  10.200
98769SOL    HW298147   0.465  12.216  10.112
98770SOL     OW98148   8.242   2.000   8.341
98770SOL    HW198149   8.312   2.033   8.397
98770SOL    HW298150   8.269   2.026   8.252
98771SOL     OW98151  11.701   3.750   6.881
98771SOL    HW198152  11.787   3.789   6.898
98771SOL    HW298153  11.695   3.678   6.943
98772SOL     OW98154  13.426   2.892   9.972
98772SOL    HW198155  13.475   2.957   9.920
98772SOL    HW298156  13.433   2.811   9.921
98773SOL     OW98157   2.236  13.103   9.740
98773SOL    HW198158   2.239  13.135   9.830
98773SOL    HW298159   2.143  13.095   9.721
98774SOL     OW98160   7.936   6.043   2.644
98774SOL    HW198161   8.030   6.055   2.655
98774SOL    HW298162   7.917   5.959   2.685
98775SOL     OW98163  11.182   8.229   8.915
98775SOL    HW198164  11.106   8.176   8.891
98775SOL    HW298165  11.217   8.260   8.831
98776SOL     OW98166   2.399   3.474   3.819
98776SOL    HW198167   2.492   3.491   3.834
98776SOL    HW298168   2.396   3.411   3.748
98777SOL     OW98169   5.684  10.960   7.929
98777SOL    HW198170   5.745  10.957   7.855
98777SOL    HW298171   5.738  10.938   8.005
98778SOL     OW98172  13.167   7.473   1.512
98778SOL    HW198173  13.158   7.488   1.418
98778SOL    HW298174  13.120   7.391   1.528
98779SOL     OW98175   2.159   1.412   2.026
98779SOL    HW198176   2.226   1.344   2.033
98779SOL    HW298177   2.136   1.413   1.933
98780SOL     OW98178   1.295  13.666   8.988
98780SOL    HW198179   1.291  13.675   9.083
98780SOL    HW298180   1.208  13.635   8.963
98781SOL     OW98181   8.432  14.782   8.428
98781SOL    HW198182   8.466  14.743   8.348
98781SOL    HW298183   8.504  14.835   8.462
98782SOL     OW98184   6.633   0.496   6.177
98782SOL    HW198185   6.707   0.496   6.117
98782SOL    HW298186   6.608   0.588   6.187
98783SOL     OW98187   7.667   3.741   8.830
98783SOL    HW198188   7.571   3.749   8.828
98783SOL    HW298189   7.690   3.760   8.921
98784SOL     OW98190  11.399  13.561   4.032
98784SOL    HW198191  11.428  13.638   3.983
98784SOL    HW298192  11.370  13.499   3.966
98785SOL     OW98193   0.100   7.746   5.820
98785SOL    HW198194   0.021   7.770   5.869
98785SOL    HW298195   0.172   7.773   5.876
98786SOL     OW98196  11.223   2.062   9.224
98786SOL    HW198197  11.232   1.968   9.232
98786SOL    HW298198  11.271   2.098   9.298
98787SOL     OW98199   9.605   8.705  13.205
98787SOL    HW198200   9.595   8.718  13.299
98787SOL    HW298201   9.515   8.700  13.172
98788SOL     OW98202  11.615   4.847   8.366
98788SOL    HW198203  11.701   4.888   8.358
98788SOL    HW298204  11.591   4.860   8.458
98789SOL     OW98205  11.993   8.421  12.160
98789SOL    HW198206  12.033   8.480  12.223
98789SOL    HW298207  11.971   8.343  12.211
98790SOL     OW98208   7.978   2.201   3.774
98790SOL    HW198209   7.933   2.117   3.784
98790SOL    HW298210   8.013   2.199   3.685
98791SOL     OW98211  14.146   6.859  13.675
98791SOL    HW198212  14.107   6.909  13.603
98791SOL    HW298213  14.171   6.926  13.739
98792SOL     OW98214   7.647  13.932  14.561
98792SOL    HW198215   7.632  13.884  14.480
98792SOL    HW298216   7.698  13.872  14.616
98793SOL     OW98217   4.687   9.560   6.755
98793SOL    HW198218   4.751   9.631   6.762
98793SOL    HW298219   4.693   9.531   6.664
98794SOL     OW98220   3.790   7.884   3.577
98794SOL    HW198221   3.800   7.790   3.592
98794SOL    HW298222   3.719   7.890   3.513
98795SOL     OW98223  10.839   1.831   5.014
98795SOL    HW198224  10.878   1.887   5.082
98795SOL    HW298225  10.751   1.866   5.003
98796SOL     OW98226   4.086  11.513  13.585
98796SOL    HW198227   4.089  11.452  13.511
98796SOL    HW298228   4.158  11.574  13.569
98797SOL     OW98229  13.390  10.474   8.301
98797SOL    HW198230  13.418  10.383   8.314
98797SOL    HW298231  13.300  10.476   8.334
98798SOL     OW98232  13.686   1.712   2.244
98798SOL    HW198233  13.705   1.743   2.332
98798SOL    HW298234  13.722   1.780   2.187
98799SOL     OW98235   6.916   5.225   0.950
98799SOL    HW198236   6.897   5.216   0.857
98799SOL    HW298237   6.914   5.320   0.966
98800SOL     OW98238   6.827  14.271   2.637
98800SOL    HW198239   6.810  14.178   2.623
98800SOL    HW298240   6.828  14.281   2.732
98801SOL     OW98241  12.613   6.327   6.201
98801SOL    HW198242  12.694   6.357   6.161
98801SOL    HW298243  12.591   6.393   6.266
98802SOL     OW98244  11.581  10.003  13.104
98802SOL    HW198245  11.623  10.079  13.144
98802SOL    HW298246  11.495  10.035  13.076
98803SOL     OW98247  10.574  13.602   4.002
98803SOL    HW198248  10.521  13.669   4.044
98803SOL    HW298249  10.541  13.519   4.039
98804SOL     OW98250   4.050   7.115   7.025
98804SOL    HW198251   3.990   7.047   7.056
98804SOL    HW298252   4.004   7.154   6.951
98805SOL     OW98253   3.527   1.081   8.525
98805SOL    HW198254   3.593   1.094   8.593
98805SOL    HW298255   3.552   0.999   8.483
98806SOL     OW98256  12.000  14.647  12.144
98806SOL    HW198257  12.025  14.554  12.142
98806SOL    HW298258  12.068  14.691  12.093
98807SOL     OW98259   2.733  14.766   4.795
98807SOL    HW198260   2.756  14.772   4.888
98807SOL    HW298261   2.738  14.673   4.775
98808SOL     OW98262   3.189   9.518   3.401
98808SOL    HW198263   3.214   9.494   3.311
98808SOL    HW298264   3.208   9.611   3.406
98809SOL     OW98265   9.322   0.659  10.119
98809SOL    HW198266   9.300   0.700  10.036
98809SOL    HW298267   9.263   0.585  10.127
98810SOL     OW98268   0.994   7.161   9.873
98810SOL    HW198269   0.932   7.214   9.922
98810SOL    HW298270   0.992   7.197   9.784
98811SOL     OW98271   9.031  13.538   7.629
98811SOL    HW198272   9.020  13.443   7.640
98811SOL    HW298273   9.102  13.561   7.689
98812SOL     OW98274   4.159  11.294   4.041
98812SOL    HW198275   4.203  11.315   3.959
98812SOL    HW298276   4.188  11.363   4.101
98813SOL     OW98277   4.681   1.764  12.426
98813SOL    HW198278   4.664   1.822  12.500
98813SOL    HW298279   4.702   1.680  12.466
98814SOL     OW98280   9.917   7.544   4.328
98814SOL    HW198281   9.841   7.489   4.309
98814SOL    HW298282   9.988   7.505   4.277
98815SOL     OW98283  10.687   6.313   7.402
98815SOL    HW198284  10.742   6.272   7.469
98815SOL    HW298285  10.598   6.285   7.425
98816SOL     OW98286   7.519   4.458  12.909
98816SOL    HW198287   7.543   4.469  12.817
98816SOL    HW298288   7.521   4.546  12.945
98817SOL     OW98289   1.112   0.209   7.229
98817SOL    HW198290   1.026   0.166   7.227
98817SOL    HW298291   1.138   0.216   7.137
98818SOL     OW98292   3.890  14.805  11.961
98818SOL    HW198293   3.839  14.763  11.892
98818SOL    HW298294   3.850   0.018  11.972
98819SOL     OW98295   9.792   1.925  14.722
98819SOL    HW198296   9.782   1.845  14.670
98819SOL    HW298297   9.850   1.980  14.670
98820SOL     OW98298   0.706   7.286   7.744
98820SOL    HW198299   0.652   7.274   7.822
98820SOL    HW298300   0.748   7.201   7.730
98821SOL     OW98301  10.144  14.515  13.488
98821SOL    HW198302  10.183  14.463  13.558
98821SOL    HW298303  10.115  14.451  13.423
98822SOL     OW98304   8.767  14.759   8.210
98822SOL    HW198305   8.679  14.724   8.199
98822SOL    HW298306   8.784  14.752   8.304
98823SOL     OW98307   4.599  14.424  11.773
98823SOL    HW198308   4.638  14.507  11.802
98823SOL    HW298309   4.506  14.433  11.795
98824SOL     OW98310   1.096   3.956   9.418
98824SOL    HW198311   1.184   3.949   9.381
98824SOL    HW298312   1.060   4.034   9.377
98825SOL     OW98313  11.819   4.555  10.501
98825SOL    HW198314  11.807   4.578  10.593
98825SOL    HW298315  11.758   4.483  10.486
98826SOL     OW98316   4.232   3.640   4.012
98826SOL    HW198317   4.199   3.647   4.102
98826SOL    HW298318   4.154   3.646   3.957
98827SOL     OW98319  14.721  10.901   0.757
98827SOL    HW198320  14.776  10.969   0.718
98827SOL    HW298321  14.648  10.890   0.696
98828SOL     OW98322  12.008  14.428   1.795
98828SOL    HW198323  11.966  14.376   1.727
98828SOL    HW298324  12.002  14.518   1.763
98829SOL     OW98325   7.049  14.166   1.399
98829SOL    HW198326   7.067  14.156   1.305
98829SOL    HW298327   7.111  14.233   1.428
98830SOL     OW98328   3.976  10.581   7.624
98830SOL    HW198329   4.039  10.513   7.649
98830SOL    HW298330   3.898  10.564   7.676
98831SOL     OW98331   8.559   4.314   0.386
98831SOL    HW198332   8.556   4.373   0.311
98831SOL    HW298333   8.473   4.322   0.427
98832SOL     OW98334  14.270   5.459   4.567
98832SOL    HW198335  14.325   5.465   4.645
98832SOL    HW298336  14.185   5.431   4.600
98833SOL     OW98337  13.186   8.723   5.012
98833SOL    HW198338  13.131   8.782   4.961
98833SOL    HW298339  13.128   8.651   5.036
98834SOL     OW98340  11.125   0.071  12.589
98834SOL    HW198341  11.089   0.004  12.648
98834SOL    HW298342  11.174   0.130  12.646
98835SOL     OW98343   0.857   9.793   9.791
98835SOL    HW198344   0.830   9.701   9.794
98835SOL    HW298345   0.791   9.836   9.738
98836SOL     OW98346   9.991   9.502  13.758
98836SOL    HW198347  10.079   9.471  13.780
98836SOL    HW298348   9.934   9.427  13.773
98837SOL     OW98349   3.294   7.950  10.416
98837SOL    HW198350   3.217   7.895  10.421
98837SOL    HW298351   3.329   7.953  10.505
98838SOL     OW98352  12.465  13.185   2.032
98838SOL    HW198353  12.403  13.225   1.971
98838SOL    HW298354  12.495  13.257   2.087
98839SOL     OW98355  10.759  11.825  11.432
98839SOL    HW198356  10.833  11.781  11.473
98839SOL    HW298357  10.797  11.898  11.384
98840SOL     OW98358   6.413   5.808   4.817
98840SOL    HW198359   6.502   5.784   4.791
98840SOL    HW298360   6.410   5.903   4.806
98841SOL     OW98361   6.062   7.899  10.127
98841SOL    HW198362   6.147   7.864  10.153
98841SOL    HW298363   6.078   7.939  10.041
98842SOL     OW98364  11.371   6.278   1.643
98842SOL    HW198365  11.455   6.238   1.620
98842SOL    HW298366  11.315   6.205   1.668
98843SOL     OW98367   2.078   2.448  11.017
98843SOL    HW198368   1.998   2.448  10.964
98843SOL    HW298369   2.147   2.424  10.955
98844SOL     OW98370   7.172   1.076   1.128
98844SOL    HW198371   7.087   1.117   1.147
98844SOL    HW298372   7.155   1.022   1.051
98845SOL     OW98373   6.667   9.345   0.903
98845SOL    HW198374   6.678   9.441   0.903
98845SOL    HW298375   6.752   9.311   0.929
98846SOL     OW98376   7.584   2.097  12.939
98846SOL    HW198377   7.610   2.187  12.959
98846SOL    HW298378   7.503   2.083  12.988
98847SOL     OW98379  11.696   7.056   9.372
98847SOL    HW198380  11.679   7.117   9.443
98847SOL    HW298381  11.791   7.041   9.375
98848SOL     OW98382  14.101   2.703   4.114
98848SOL    HW198383  14.049   2.661   4.045
98848SOL    HW298384  14.100   2.796   4.092
98849SOL     OW98385   1.178   7.672   3.192
98849SOL    HW198386   1.257   7.700   3.145
98849SOL    HW298387   1.211   7.643   3.277
98850SOL     OW98388  13.992   8.712   0.191
98850SOL    HW198389  13.930   8.693   0.121
98850SOL    HW298390  14.002   8.807   0.188
98851SOL     OW98391   0.117   6.490   6.274
98851SOL    HW198392   0.107   6.409   6.224
98851SOL    HW298393   0.096   6.466   6.364
98852SOL     OW98394   8.050   1.791   4.076
98852SOL    HW198395   8.042   1.863   4.139
98852SOL    HW298396   8.143   1.792   4.052
98853SOL     OW98397   1.420   9.443   8.309
98853SOL    HW198398   1.393   9.353   8.290
98853SOL    HW298399   1.475   9.468   8.234
98854SOL     OW98400   3.510   6.929   9.453
98854SOL    HW198401   3.471   6.867   9.515
98854SOL    HW298402   3.575   6.977   9.505
98855SOL     OW98403   0.287  11.197  14.735
98855SOL    HW198404   0.209  11.207  14.679
98855SOL    HW298405   0.278  11.109  14.771
98856SOL     OW98406   2.427   6.687  12.813
98856SOL    HW198407   2.362   6.637  12.766
98856SOL    HW298408   2.379   6.761  12.850
98857SOL     OW98409   0.480  13.431  13.770
98857SOL    HW198410   0.501  13.489  13.697
98857SOL    HW298411   0.458  13.348  13.729
98858SOL     OW98412  10.042   4.285   8.655
98858SOL    HW198413   9.955   4.247   8.640
98858SOL    HW298414  10.025   4.379   8.666
98859SOL     OW98415   6.753   5.937   1.134
98859SOL    HW198416   6.831   5.948   1.079
98859SOL    HW298417   6.705   6.019   1.124
98860SOL     OW98418   0.196   6.325  12.931
98860SOL    HW198419   0.156   6.255  12.881
98860SOL    HW298420   0.172   6.405  12.884
98861SOL     OW98421   2.080   3.596  13.884
98861SOL    HW198422   2.129   3.669  13.846
98861SOL    HW298423   2.027   3.636  13.952
98862SOL     OW98424   2.491   1.190  13.228
98862SOL    HW198425   2.540   1.217  13.306
98862SOL    HW298426   2.558   1.159  13.167
98863SOL     OW98427   1.926   3.465   4.743
98863SOL    HW198428   1.906   3.558   4.726
98863SOL    HW298429   1.972   3.466   4.826
98864SOL     OW98430  11.677   9.945   4.440
98864SOL    HW198431  11.586   9.976   4.431
98864SOL    HW298432  11.729  10.007   4.390
98865SOL     OW98433   8.288   0.357  14.716
98865SOL    HW198434   8.262   0.338  14.626
98865SOL    HW298435   8.383   0.370  14.710
98866SOL     OW98436  10.905  14.184   8.521
98866SOL    HW198437  10.866  14.215   8.439
98866SOL    HW298438  10.855  14.106   8.543
98867SOL     OW98439  14.645   1.524  10.976
98867SOL    HW198440  14.685   1.585  11.038
98867SOL    HW298441  14.718   1.495  10.921
98868SOL     OW98442   5.228  14.224   2.329
98868SOL    HW198443   5.168  14.260   2.264
98868SOL    HW298444   5.175  14.163   2.381
98869SOL     OW98445   6.697   3.306   9.506
98869SOL    HW198446   6.704   3.264   9.592
98869SOL    HW298447   6.714   3.236   9.443
98870SOL     OW98448   2.087  11.163   9.890
98870SOL    HW198449   2.102  11.255   9.869
98870SOL    HW298450   2.145  11.115   9.831
98871SOL     OW98451  11.067   4.951   2.722
98871SOL    HW198452  11.044   4.989   2.807
98871SOL    HW298453  10.986   4.913   2.690
98872SOL     OW98454   0.311   0.189   6.337
98872SOL    HW198455   0.217   0.207   6.336
98872SOL    HW298456   0.350   0.267   6.376
98873SOL     OW98457   5.965  10.224  13.160
98873SOL    HW198458   6.012  10.239  13.242
98873SOL    HW298459   5.886  10.176  13.187
98874SOL     OW98460   1.075   9.779  11.445
98874SOL    HW198461   1.069   9.833  11.366
98874SOL    HW298462   1.162   9.739  11.440
98875SOL     OW98463   2.849   2.082   2.959
98875SOL    HW198464   2.768   2.115   2.999
98875SOL    HW298465   2.857   2.131   2.877
98876SOL     OW98466   7.232   5.304   7.167
98876SOL    HW198467   7.304   5.308   7.104
98876SOL    HW298468   7.193   5.392   7.164
98877SOL     OW98469  11.510  13.853  11.130
98877SOL    HW198470  11.421  13.835  11.100
98877SOL    HW298471  11.515  13.948  11.136
98878SOL     OW98472   2.117   9.200   5.598
98878SOL    HW198473   2.105   9.231   5.509
98878SOL    HW298474   2.092   9.273   5.653
98879SOL     OW98475   4.253   8.958   3.365
98879SOL    HW198476   4.180   8.898   3.357
98879SOL    HW298477   4.227   9.035   3.314
98880SOL     OW98478   7.383  14.038   8.060
98880SOL    HW198479   7.363  14.093   7.984
98880SOL    HW298480   7.325  13.963   8.051
98881SOL     OW98481   4.658   9.164   5.084
98881SOL    HW198482   4.753   9.170   5.069
98881SOL    HW298483   4.647   9.191   5.175
98882SOL     OW98484   5.830   7.323   0.336
98882SOL    HW198485   5.854   7.230   0.335
98882SOL    HW298486   5.736   7.323   0.320
98883SOL     OW98487  14.310  14.347   4.349
98883SOL    HW198488  14.321  14.322   4.441
98883SOL    HW298489  14.235  14.297   4.319
98884SOL     OW98490   0.529   9.999  12.939
98884SOL    HW198491   0.587  10.073  12.925
98884SOL    HW298492   0.575   9.944  13.003
98885SOL     OW98493   6.430   5.260  11.174
98885SOL    HW198494   6.449   5.354  11.184
98885SOL    HW298495   6.387   5.253  11.089
98886SOL     OW98496   5.528  13.079  13.299
98886SOL    HW198497   5.529  13.147  13.233
98886SOL    HW298498   5.514  12.998  13.250
98887SOL     OW98499  10.907   4.991   2.020
98887SOL    HW198500  10.822   4.983   2.063
98887SOL    HW298501  10.970   4.963   2.087
98888SOL     OW98502  10.684  11.831   5.713
98888SOL    HW198503  10.769  11.813   5.752
98888SOL    HW298504  10.692  11.801   5.623
98889SOL     OW98505   9.825   6.295   9.684
98889SOL    HW198506   9.755   6.361   9.682
98889SOL    HW298507   9.835   6.268   9.592
98890SOL     OW98508  10.484  10.540   1.555
98890SOL    HW198509  10.464  10.522   1.463
98890SOL    HW298510  10.531  10.623   1.553
98891SOL     OW98511   2.036   9.771  13.715
98891SOL    HW198512   1.990   9.811  13.789
98891SOL    HW298513   2.118   9.738  13.753
98892SOL     OW98514   6.982   2.716  13.609
98892SOL    HW198515   6.929   2.668  13.674
98892SOL    HW298516   7.032   2.647  13.565
98893SOL     OW98517  11.894   8.385  14.520
98893SOL    HW198518  11.871   8.319  14.455
98893SOL    HW298519  11.810   8.425  14.544
98894SOL     OW98520   6.984   2.668   4.419
98894SOL    HW198521   6.894   2.676   4.449
98894SOL    HW298522   6.986   2.588   4.367
98895SOL     OW98523   2.783  10.323   2.341
98895SOL    HW198524   2.770  10.232   2.316
98895SOL    HW298525   2.799  10.369   2.259
98896SOL     OW98526   2.876  10.379   8.973
98896SOL    HW198527   2.960  10.333   8.963
98896SOL    HW298528   2.901  10.472   8.979
98897SOL     OW98529   3.238   7.183  13.130
98897SOL    HW198530   3.317   7.151  13.173
98897SOL    HW298531   3.182   7.106  13.123
98898SOL     OW98532   3.743   2.866   0.121
98898SOL    HW198533   3.774   2.821   0.042
98898SOL    HW298534   3.674   2.924   0.090
98899SOL     OW98535   1.116   8.558   1.760
98899SOL    HW198536   1.065   8.639   1.764
98899SOL    HW298537   1.118   8.528   1.851
98900SOL     OW98538  10.848  10.494   3.418
98900SOL    HW198539  10.864  10.419   3.475
98900SOL    HW298540  10.903  10.477   3.341
98901SOL     OW98541  10.010   1.503  13.191
98901SOL    HW198542  10.055   1.425  13.158
98901SOL    HW298543   9.977   1.547  13.112
98902SOL     OW98544   8.209  14.466   8.824
98902SOL    HW198545   8.191  14.372   8.825
98902SOL    HW298546   8.186  14.494   8.735
98903SOL     OW98547   7.721  10.055   8.283
98903SOL    HW198548   7.778  10.019   8.351
98903SOL    HW298549   7.751  10.146   8.273
98904SOL     OW98550   8.266  14.788   5.578
98904SOL    HW198551   8.260  14.696   5.551
98904SOL    HW298552   8.187  14.803   5.629
98905SOL     OW98553   6.174  10.716   3.296
98905SOL    HW198554   6.224  10.770   3.357
98905SOL    HW298555   6.189  10.757   3.211
98906SOL     OW98556   0.069   3.816   9.123
98906SOL    HW198557  14.861   3.833   9.172
98906SOL    HW298558   0.079   3.721   9.125
98907SOL     OW98559  14.723   2.363   9.831
98907SOL    HW198560  14.672   2.333   9.755
98907SOL    HW298561  14.814   2.345   9.807
98908SOL     OW98562  10.319  10.579  11.499
98908SOL    HW198563  10.371  10.656  11.477
98908SOL    HW298564  10.228  10.611  11.502
98909SOL     OW98565  10.843  10.529   0.958
98909SOL    HW198566  10.767  10.582   0.982
98909SOL    HW298567  10.843  10.529   0.862
98910SOL     OW98568   8.784   1.241  10.261
98910SOL    HW198569   8.801   1.330  10.230
98910SOL    HW298570   8.702   1.216  10.220
98911SOL     OW98571   5.070   2.947   3.045
98911SOL    HW198572   5.043   2.872   3.098
98911SOL    HW298573   4.989   2.988   3.017
98912SOL     OW98574   5.679  12.128   6.204
98912SOL    HW198575   5.765  12.141   6.245
98912SOL    HW298576   5.663  12.034   6.211
98913SOL     OW98577  11.161   0.424  14.371
98913SOL    HW198578  11.166   0.405  14.465
98913SOL    HW298579  11.071   0.454  14.358
98914SOL     OW98580   8.231   9.951  13.076
98914SOL    HW198581   8.282  10.019  13.032
98914SOL    HW298582   8.153   9.940  13.022
98915SOL     OW98583   6.116   4.892  13.844
98915SOL    HW198584   6.053   4.835  13.798
98915SOL    HW298585   6.073   4.978  13.846
98916SOL     OW98586   0.251  11.554   7.326
98916SOL    HW198587   0.213  11.600   7.251
98916SOL    HW298588   0.182  11.555   7.392
98917SOL     OW98589   1.381  12.171   2.324
98917SOL    HW198590   1.393  12.101   2.259
98917SOL    HW298591   1.397  12.128   2.408
98918SOL     OW98592  12.072  11.188  10.028
98918SOL    HW198593  12.139  11.254  10.050
98918SOL    HW298594  12.006  11.237   9.979
98919SOL     OW98595   1.603  11.079   8.006
98919SOL    HW198596   1.599  11.164   7.962
98919SOL    HW298597   1.696  11.062   8.018
98920SOL     OW98598   8.825  14.199   9.053
98920SOL    HW198599   8.757  14.143   9.014
98920SOL    HW298600   8.803  14.287   9.023
98921SOL     OW98601  12.075   1.059   3.638
98921SOL    HW198602  12.128   1.129   3.601
98921SOL    HW298603  12.002   1.103   3.680
98922SOL     OW98604   7.521   3.104   1.263
98922SOL    HW198605   7.519   3.100   1.358
98922SOL    HW298606   7.433   3.130   1.238
98923SOL     OW98607  14.453  11.093  14.618
98923SOL    HW198608  14.480  11.148  14.544
98923SOL    HW298609  14.535  11.064  14.657
98924SOL     OW98610   5.985  12.584   4.958
98924SOL    HW198611   6.014  12.496   4.984
98924SOL    HW298612   6.066  12.636   4.955
98925SOL     OW98613   6.215   8.091   6.444
98925SOL    HW198614   6.171   8.009   6.422
98925SOL    HW298615   6.190   8.107   6.535
98926SOL     OW98616   3.172  14.245   4.949
98926SOL    HW198617   3.212  14.178   4.893
98926SOL    HW298618   3.231  14.253   5.023
98927SOL     OW98619  14.796  10.515   4.546
98927SOL    HW198620  14.778  10.596   4.593
98927SOL    HW298621  14.713  10.467   4.549
98928SOL     OW98622   2.798   4.927   6.740
98928SOL    HW198623   2.779   5.008   6.787
98928SOL    HW298624   2.881   4.896   6.778
98929SOL     OW98625   1.130  11.169  11.223
98929SOL    HW198626   1.190  11.105  11.262
98929SOL    HW298627   1.105  11.131  11.139
98930SOL     OW98628  14.587  13.514  11.992
98930SOL    HW198629  14.553  13.604  11.993
98930SOL    HW298630  14.626  13.504  11.905
98931SOL     OW98631   1.622  10.657   6.781
98931SOL    HW198632   1.711  10.672   6.812
98931SOL    HW298633   1.629  10.581   6.724
98932SOL     OW98634   0.517  11.795   1.137
98932SOL    HW198635   0.577  11.731   1.174
98932SOL    HW298636   0.573  11.855   1.088
98933SOL     OW98637   7.264   1.016   4.241
98933SOL    HW198638   7.321   1.093   4.241
98933SOL    HW298639   7.216   1.023   4.324
98934SOL     OW98640   9.133  11.376   1.047
98934SOL    HW198641   9.134  11.331   0.962
98934SOL    HW298642   9.092  11.314   1.107
98935SOL     OW98643  12.047   6.407  12.436
98935SOL    HW198644  12.084   6.324  12.466
98935SOL    HW298645  11.986   6.433  12.505
98936SOL     OW98646   7.256   3.783   2.163
98936SOL    HW198647   7.248   3.798   2.257
98936SOL    HW298648   7.324   3.845   2.135
98937SOL     OW98649   9.244   1.626  11.704
98937SOL    HW198650   9.230   1.619  11.610
98937SOL    HW298651   9.159   1.607  11.743
98938SOL     OW98652   4.183   7.977  14.103
98938SOL    HW198653   4.253   7.947  14.162
98938SOL    HW298654   4.107   7.988  14.160
98939SOL     OW98655   0.317  12.904   1.217
98939SOL    HW198656   0.336  12.992   1.250
98939SOL    HW298657   0.349  12.845   1.286
98940SOL     OW98658   2.153  10.542  13.226
98940SOL    HW198659   2.127  10.533  13.317
98940SOL    HW298660   2.238  10.586  13.229
98941SOL     OW98661   1.893   3.433   4.485
98941SOL    HW198662   1.919   3.446   4.576
98941SOL    HW298663   1.970   3.458   4.434
98942SOL     OW98664   6.612  13.719   4.735
98942SOL    HW198665   6.556  13.720   4.812
98942SOL    HW298666   6.664  13.799   4.742
98943SOL     OW98667   2.893   5.146   8.462
98943SOL    HW198668   2.905   5.086   8.536
98943SOL    HW298669   2.977   5.144   8.416
98944SOL     OW98670   7.707   6.441  12.073
98944SOL    HW198671   7.770   6.501  12.034
98944SOL    HW298672   7.641   6.428  12.006
98945SOL     OW98673   9.892  11.056   7.007
98945SOL    HW198674   9.840  10.992   7.056
98945SOL    HW298675   9.943  11.004   6.945
98946SOL     OW98676   1.977   2.200  11.495
98946SOL    HW198677   1.949   2.147  11.419
98946SOL    HW298678   2.068   2.174  11.509
98947SOL     OW98679   5.695  11.290   2.973
98947SOL    HW198680   5.658  11.207   3.002
98947SOL    HW298681   5.626  11.354   2.988
98948SOL     OW98682   2.602   4.417  13.265
98948SOL    HW198683   2.586   4.505  13.300
98948SOL    HW298684   2.559   4.358  13.327
98949SOL     OW98685   4.161   5.250   5.623
98949SOL    HW198686   4.139   5.225   5.534
98949SOL    HW298687   4.185   5.168   5.666
98950SOL     OW98688   3.758   9.062   6.982
98950SOL    HW198689   3.759   9.157   6.990
98950SOL    HW298690   3.681   9.044   6.928
98951SOL     OW98691   5.601   9.178   9.470
98951SOL    HW198692   5.655   9.152   9.396
98951SOL    HW298693   5.576   9.269   9.451
98952SOL     OW98694  11.731  12.751   1.974
98952SOL    HW198695  11.733  12.834   1.927
98952SOL    HW298696  11.719  12.685   1.906
98953SOL     OW98697  14.650   3.870   1.472
98953SOL    HW198698  14.696   3.887   1.554
98953SOL    HW298699  14.704   3.804   1.429
98954SOL     OW98700   2.419   6.291   6.873
98954SOL    HW198701   2.333   6.255   6.895
98954SOL    HW298702   2.480   6.242   6.928
98955SOL     OW98703   2.569  13.971  10.973
98955SOL    HW198704   2.627  13.905  10.935
98955SOL    HW298705   2.626  14.025  11.027
98956SOL     OW98706   6.383   1.835   5.441
98956SOL    HW198707   6.348   1.767   5.498
98956SOL    HW298708   6.401   1.909   5.499
98957SOL     OW98709   8.441   8.768   9.651
98957SOL    HW198710   8.504   8.771   9.580
98957SOL    HW298711   8.449   8.853   9.694
98958SOL     OW98712  14.525   4.963   9.934
98958SOL    HW198713  14.506   4.960  10.027
98958SOL    HW298714  14.615   4.931   9.927
98959SOL     OW98715  11.955   0.789   3.028
98959SOL    HW198716  11.872   0.791   2.980
98959SOL    HW298717  11.929   0.792   3.120
98960SOL     OW98718   8.719  12.548   6.254
98960SOL    HW198719   8.797  12.577   6.207
98960SOL    HW298720   8.646  12.582   6.204
98961SOL     OW98721  11.330   9.688   0.771
98961SOL    HW198722  11.382   9.629   0.717
98961SOL    HW298723  11.289   9.631   0.836
98962SOL     OW98724  14.109   1.126   1.380
98962SOL    HW198725  14.092   1.168   1.464
98962SOL    HW298726  14.034   1.068   1.366
98963SOL     OW98727   3.394   9.894  14.185
98963SOL    HW198728   3.487   9.871  14.185
98963SOL    HW298729   3.356   9.843  14.114
98964SOL     OW98730  11.925   9.654   0.782
98964SOL    HW198731  11.932   9.732   0.727
98964SOL    HW298732  11.984   9.591   0.741
98965SOL     OW98733  14.658  13.627   8.620
98965SOL    HW198734  14.675  13.664   8.706
98965SOL    HW298735  14.743  13.632   8.575
98966SOL     OW98736   8.838   5.490  12.631
98966SOL    HW198737   8.810   5.422  12.692
98966SOL    HW298738   8.802   5.571  12.666
98967SOL     OW98739  13.089   1.682  14.407
98967SOL    HW198740  13.115   1.773  14.389
98967SOL    HW298741  12.993   1.685  14.410
98968SOL     OW98742   0.802   3.634  11.352
98968SOL    HW198743   0.889   3.672  11.369
98968SOL    HW298744   0.741   3.692  11.397
98969SOL     OW98745   4.408   2.381  11.983
98969SOL    HW198746   4.376   2.291  11.977
98969SOL    HW298747   4.497   2.377  11.948
98970SOL     OW98748   6.442   2.505   9.731
98970SOL    HW198749   6.443   2.418   9.690
98970SOL    HW298750   6.534   2.529   9.738
98971SOL     OW98751  11.623   0.368   2.611
98971SOL    HW198752  11.668   0.298   2.564
98971SOL    HW298753  11.666   0.371   2.696
98972SOL     OW98754  13.987  12.060  11.054
98972SOL    HW198755  13.966  11.993  11.120
98972SOL    HW298756  13.929  12.040  10.981
98973SOL     OW98757  11.922  11.607   5.284
98973SOL    HW198758  11.853  11.577   5.225
98973SOL    HW298759  11.982  11.656   5.228
98974SOL     OW98760   6.905   4.932   9.167
98974SOL    HW198761   6.998   4.954   9.160
98974SOL    HW298762   6.886   4.884   9.086
98975SOL     OW98763   2.586   0.315   2.616
98975SOL    HW198764   2.678   0.292   2.629
98975SOL    HW298765   2.548   0.239   2.573
98976SOL     OW98766   8.524  13.096  11.137
98976SOL    HW198767   8.568  13.136  11.211
98976SOL    HW298768   8.590  13.093  11.068
98977SOL     OW98769  12.281   4.551   7.634
98977SOL    HW198770  12.232   4.624   7.594
98977SOL    HW298771  12.280   4.482   7.568
98978SOL     OW98772   6.417  13.143  14.682
98978SOL    HW198773   6.510  13.129  14.665
98978SOL    HW298774   6.406  13.123  14.775
98979SOL     OW98775   1.519   8.372   0.379
98979SOL    HW198776   1.580   8.347   0.310
98979SOL    HW298777   1.568   8.361   0.460
98980SOL     OW98778   5.412   3.644  10.774
98980SOL    HW198779   5.422   3.561  10.728
98980SOL    HW298780   5.340   3.688  10.729
98981SOL     OW98781   7.181  13.234  14.779
98981SOL    HW198782   7.233  13.224  14.700
98981SOL    HW298783   7.104  13.178  14.765
98982SOL     OW98784   5.706   1.119  10.214
98982SOL    HW198785   5.746   1.079  10.292
98982SOL    HW298786   5.620   1.076  10.207
98983SOL     OW98787   9.477   2.489  13.178
98983SOL    HW198788   9.389   2.457  13.158
98983SOL    HW298789   9.527   2.410  13.202
98984SOL     OW98790  11.391  11.087   9.073
98984SOL    HW198791  11.456  11.065   9.141
98984SOL    HW298792  11.340  11.158   9.112
98985SOL     OW98793   4.502   2.205  11.454
98985SOL    HW198794   4.559   2.281  11.445
98985SOL    HW298795   4.559   2.135  11.487
98986SOL     OW98796   8.001  11.339  10.997
98986SOL    HW198797   7.908  11.358  11.008
98986SOL    HW298798   8.036  11.412  10.947
98987SOL     OW98799   9.780   0.945   5.875
98987SOL    HW198800   9.688   0.930   5.855
98987SOL    HW298801   9.825   0.867   5.844
98988SOL     OW98802   3.744   2.022   5.708
98988SOL    HW198803   3.721   1.952   5.646
98988SOL    HW298804   3.665   2.075   5.715
98989SOL     OW98805  13.546  11.267  12.499
98989SOL    HW198806  13.601  11.333  12.541
98989SOL    HW298807  13.483  11.318  12.448
98990SOL     OW98808  13.588  13.854  11.856
98990SOL    HW198809  13.647  13.929  11.844
98990SOL    HW298810  13.581  13.814  11.769
98991SOL     OW98811   8.439   0.601   8.491
98991SOL    HW198812   8.466   0.534   8.554
98991SOL    HW298813   8.371   0.558   8.439
98992SOL     OW98814   4.628   8.833   6.292
98992SOL    HW198815   4.604   8.837   6.384
98992SOL    HW298816   4.547   8.851   6.244
98993SOL     OW98817  12.422  12.403   6.624
98993SOL    HW198818  12.452  12.374   6.538
98993SOL    HW298819  12.478  12.478   6.646
98994SOL     OW98820   6.518   6.321   9.238
98994SOL    HW198821   6.511   6.401   9.290
98994SOL    HW298822   6.513   6.351   9.148
98995SOL     OW98823   5.562   3.552  13.756
98995SOL    HW198824   5.566   3.626  13.815
98995SOL    HW298825   5.632   3.494  13.785
98996SOL     OW98826  10.305  14.531   4.315
98996SOL    HW198827  10.376  14.592   4.334
98996SOL    HW298828  10.261  14.569   4.239
98997SOL     OW98829   2.248   3.719   8.405
98997SOL    HW198830   2.213   3.784   8.344
98997SOL    HW298831   2.333   3.754   8.431
98998SOL     OW98832   2.680   0.827   8.985
98998SOL    HW198833   2.771   0.854   9.001
98998SOL    HW298834   2.687   0.745   8.936
98999SOL     OW98835   7.795  11.200   9.168
98999SOL    HW198836   7.748  11.265   9.117
98999SOL    HW298837   7.862  11.166   9.109
99000SOL     OW98838  11.441  13.395  10.163
99000SOL    HW198839  11.517  13.453  10.170
99000SOL    HW298840  11.395  13.406  10.246
99001SOL     OW98841  13.160  11.499   0.284
99001SOL    HW198842  13.243  11.536   0.317
99001SOL    HW298843  13.138  11.431   0.348
99002SOL     OW98844  11.292  13.809   4.838
99002SOL    HW198845  11.197  13.815   4.835
99002SOL    HW298846  11.319  13.812   4.746
99003SOL     OW98847   2.920  11.346   0.845
99003SOL    HW198848   2.912  11.392   0.762
99003SOL    HW298849   2.956  11.260   0.821
99004SOL     OW98850   3.050  13.631   1.428
99004SOL    HW198851   3.085  13.542   1.434
99004SOL    HW298852   3.126  13.685   1.405
99005SOL     OW98853   1.993  13.231   2.678
99005SOL    HW198854   2.058  13.178   2.724
99005SOL    HW298855   2.032  13.248   2.592
99006SOL     OW98856   2.529  13.755   8.126
99006SOL    HW198857   2.436  13.762   8.104
99006SOL    HW298858   2.550  13.837   8.171
99007SOL     OW98859   3.651   7.439   5.907
99007SOL    HW198860   3.590   7.490   5.961
99007SOL    HW298861   3.599   7.363   5.880
99008SOL     OW98862   6.809   9.874  14.598
99008SOL    HW198863   6.713   9.878  14.605
99008SOL    HW298864   6.840   9.923  14.675
99009SOL     OW98865   9.108   0.502  12.525
99009SOL    HW198866   9.074   0.520  12.437
99009SOL    HW298867   9.048   0.549  12.584
99010SOL     OW98868   3.426  12.165  14.577
99010SOL    HW198869   3.509  12.125  14.604
99010SOL    HW298870   3.451  12.249  14.539
99011SOL     OW98871   3.907   7.811  13.081
99011SOL    HW198872   3.845   7.820  13.154
99011SOL    HW298873   3.980   7.869  13.105
99012SOL     OW98874   8.329  14.349  11.956
99012SOL    HW198875   8.340  14.272  12.012
99012SOL    HW298876   8.387  14.334  11.882
99013SOL     OW98877  11.805   1.272  13.402
99013SOL    HW198878  11.807   1.238  13.313
99013SOL    HW298879  11.883   1.327  13.409
99014SOL     OW98880  14.711  14.429   3.682
99014SOL    HW198881  14.663  14.428   3.765
99014SOL    HW298882  14.784  14.368   3.695
99015SOL     OW98883  10.931  14.648  12.554
99015SOL    HW198884  10.965  14.696  12.629
99015SOL    HW298885  10.880  14.712  12.505
99016SOL     OW98886  13.896   0.451  10.618
99016SOL    HW198887  13.828   0.410  10.671
99016SOL    HW298888  13.875   0.544  10.619
99017SOL     OW98889  12.622  10.886  11.940
99017SOL    HW198890  12.573  10.905  11.860
99017SOL    HW298891  12.572  10.929  12.010
99018SOL     OW98892   9.585   5.441  10.940
99018SOL    HW198893   9.502   5.487  10.953
99018SOL    HW298894   9.644   5.508  10.904
99019SOL     OW98895   0.024  14.573   3.000
99019SOL    HW198896  14.869  14.523   3.077
99019SOL    HW298897  14.816  14.589   2.951
99020SOL     OW98898  13.489   8.468  14.007
99020SOL    HW198899  13.443   8.488  13.925
99020SOL    HW298900  13.552   8.539  14.017
99021SOL     OW98901   4.519  14.101  12.072
99021SOL    HW198902   4.517  14.016  12.116
99021SOL    HW298903   4.427  14.125  12.063
99022SOL     OW98904  12.765  10.963   1.312
99022SOL    HW198905  12.823  10.933   1.241
99022SOL    HW298906  12.807  10.932   1.392
99023SOL     OW98907   7.851   2.996  13.245
99023SOL    HW198908   7.918   3.031  13.187
99023SOL    HW298909   7.769   3.008  13.199
99024SOL     OW98910   9.018   0.393   3.205
99024SOL    HW198911   8.978   0.471   3.245
99024SOL    HW298912   9.110   0.397   3.231
99025SOL     OW98913   3.281  12.774  11.347
99025SOL    HW198914   3.359  12.795  11.296
99025SOL    HW298915   3.222  12.731  11.286
99026SOL     OW98916   1.194  12.064   7.956
99026SOL    HW198917   1.175  12.158   7.965
99026SOL    HW298918   1.117  12.028   7.914
99027SOL     OW98919  11.379  10.633   9.170
99027SOL    HW198920  11.358  10.699   9.104
99027SOL    HW298921  11.383  10.680   9.252
99028SOL     OW98922   2.445  14.135  10.767
99028SOL    HW198923   2.469  14.073  10.836
99028SOL    HW298924   2.397  14.082  10.703
99029SOL     OW98925  10.467  14.074   6.492
99029SOL    HW198926  10.487  14.046   6.402
99029SOL    HW298927  10.529  14.145   6.509
99030SOL     OW98928   4.337   5.424   0.350
99030SOL    HW198929   4.317   5.347   0.296
99030SOL    HW298930   4.351   5.388   0.437
99031SOL     OW98931   3.180  10.832   5.963
99031SOL    HW198932   3.174  10.741   5.936
99031SOL    HW298933   3.097  10.871   5.935
99032SOL     OW98934  10.032  13.022  10.399
99032SOL    HW198935  10.054  12.958  10.331
99032SOL    HW298936   9.944  13.053  10.376
99033SOL     OW98937   3.666   1.685   8.026
99033SOL    HW198938   3.614   1.605   8.030
99033SOL    HW298939   3.756   1.654   8.018
99034SOL     OW98940   7.288   5.963   6.587
99034SOL    HW198941   7.268   5.874   6.614
99034SOL    HW298942   7.203   6.005   6.577
99035SOL     OW98943  12.154  11.247   1.636
99035SOL    HW198944  12.154  11.221   1.728
99035SOL    HW298945  12.063  11.267   1.616
99036SOL     OW98946   3.472  12.532   9.401
99036SOL    HW198947   3.473  12.442   9.432
99036SOL    HW298948   3.457  12.585   9.480
99037SOL     OW98949   5.750  13.502   7.925
99037SOL    HW198950   5.674  13.455   7.958
99037SOL    HW298951   5.730  13.594   7.939
99038SOL     OW98952   4.464  11.680   4.068
99038SOL    HW198953   4.394  11.644   4.123
99038SOL    HW298954   4.437  11.660   3.978
99039SOL     OW98955   0.943   1.664  10.989
99039SOL    HW198956   0.854   1.687  10.963
99039SOL    HW298957   0.937   1.647  11.083
99040SOL     OW98958  12.405   2.355   3.450
99040SOL    HW198959  12.429   2.447   3.442
99040SOL    HW298960  12.488   2.308   3.450
99041SOL     OW98961   5.362   8.865  12.538
99041SOL    HW198962   5.397   8.776  12.541
99041SOL    HW298963   5.437   8.921  12.558
99042SOL     OW98964  12.675   0.949  13.702
99042SOL    HW198965  12.692   0.892  13.776
99042SOL    HW298966  12.683   0.892  13.625
99043SOL     OW98967   7.839   9.819   1.979
99043SOL    HW198968   7.817   9.838   2.071
99043SOL    HW298969   7.921   9.770   1.984
99044SOL     OW98970  12.703   4.276   2.697
99044SOL    HW198971  12.762   4.339   2.655
99044SOL    HW298972  12.629   4.269   2.637
99045SOL     OW98973   5.338   1.982   3.438
99045SOL    HW198974   5.273   1.938   3.383
99045SOL    HW298975   5.357   2.064   3.392
99046SOL     OW98976   2.953   9.032   9.696
99046SOL    HW198977   3.025   9.063   9.641
99046SOL    HW298978   2.947   8.938   9.679
99047SOL     OW98979  10.450   3.969   4.369
99047SOL    HW198980  10.358   3.982   4.346
99047SOL    HW298981  10.453   3.883   4.410
99048SOL     OW98982  14.682  10.360   3.858
99048SOL    HW198983  14.630  10.296   3.907
99048SOL    HW298984  14.717  10.418   3.925
99049SOL     OW98985   6.182  11.109   2.226
99049SOL    HW198986   6.131  11.044   2.274
99049SOL    HW298987   6.268  11.067   2.213
99050SOL     OW98988  13.795   8.506  14.407
99050SOL    HW198989  13.862   8.567  14.438
99050SOL    HW298990  13.844   8.428  14.381
99051SOL     OW98991   6.192  12.176   9.212
99051SOL    HW198992   6.110  12.182   9.163
99051SOL    HW298993   6.167  12.142   9.298
99052SOL     OW98994  14.657   3.293   9.070
99052SOL    HW198995  14.597   3.276   9.143
99052SOL    HW298996  14.632   3.380   9.038
99053SOL     OW98997  12.748   6.489   4.052
99053SOL    HW198998  12.791   6.404   4.039
99053SOL    HW298999  12.677   6.471   4.113
99054SOL     OW99000   3.966   3.159   9.114
99054SOL    HW199001   4.061   3.163   9.104
99054SOL    HW299002   3.933   3.228   9.058
99055SOL     OW99003   9.060   9.486   6.777
99055SOL    HW199004   9.025   9.500   6.689
99055SOL    HW299005   8.996   9.430   6.820
99056SOL     OW99006   6.377   2.910  12.822
99056SOL    HW199007   6.413   2.988  12.779
99056SOL    HW299008   6.426   2.837  12.785
99057SOL     OW99009   3.891   8.797   5.755
99057SOL    HW199010   3.887   8.850   5.835
99057SOL    HW299011   3.845   8.716   5.777
99058SOL     OW99012   9.913   2.264  11.020
99058SOL    HW199013   9.818   2.275  11.028
99058SOL    HW299014   9.947   2.287  11.107
99059SOL     OW99015  14.334  10.635   8.782
99059SOL    HW199016  14.361  10.607   8.695
99059SOL    HW299017  14.390  10.586   8.841
99060SOL     OW99018   4.665   3.777   0.088
99060SOL    HW199019   4.572   3.795   0.104
99060SOL    HW299020   4.705   3.863   0.078
99061SOL     OW99021   3.024   7.242   7.329
99061SOL    HW199022   3.120   7.242   7.326
99061SOL    HW299023   3.000   7.150   7.320
99062SOL     OW99024   3.041   2.037  12.319
99062SOL    HW199025   2.956   2.074  12.343
99062SOL    HW299026   3.081   2.104  12.264
99063SOL     OW99027  12.159   9.816  12.417
99063SOL    HW199028  12.133   9.828  12.509
99063SOL    HW299029  12.178   9.905  12.387
99064SOL     OW99030  11.145   9.501   4.574
99064SOL    HW199031  11.119   9.473   4.662
99064SOL    HW299032  11.207   9.434   4.545
99065SOL     OW99033   1.107   7.074   4.939
99065SOL    HW199034   1.046   7.031   4.998
99065SOL    HW299035   1.090   7.168   4.951
99066SOL     OW99036   3.822  14.247   3.068
99066SOL    HW199037   3.764  14.263   2.993
99066SOL    HW299038   3.766  14.258   3.145
99067SOL     OW99039   6.112   8.043  12.677
99067SOL    HW199040   6.070   8.058  12.762
99067SOL    HW299041   6.165   7.964  12.690
99068SOL     OW99042  10.247   2.867   3.382
99068SOL    HW199043  10.191   2.800   3.342
99068SOL    HW299044  10.286   2.823   3.457
99069SOL     OW99045   3.629  12.965  10.075
99069SOL    HW199046   3.625  12.933  10.165
99069SOL    HW299047   3.686  13.042  10.079
99070SOL     OW99048   2.969   5.198  10.768
99070SOL    HW199049   2.949   5.238  10.683
99070SOL    HW299050   3.065   5.198  10.773
99071SOL     OW99051  11.466   6.271  10.660
99071SOL    HW199052  11.409   6.312  10.595
99071SOL    HW299053  11.426   6.292  10.744
99072SOL     OW99054   4.888  14.307  13.448
99072SOL    HW199055   4.841  14.321  13.365
99072SOL    HW299056   4.980  14.313  13.424
99073SOL     OW99057   6.898  11.484   4.181
99073SOL    HW199058   6.984  11.524   4.165
99073SOL    HW299059   6.852  11.492   4.098
99074SOL     OW99060   7.288   4.592  13.248
99074SOL    HW199061   7.236   4.604  13.328
99074SOL    HW299062   7.369   4.639  13.265
99075SOL     OW99063   0.434   8.252   2.066
99075SOL    HW199064   0.451   8.265   1.972
99075SOL    HW299065   0.433   8.157   2.077
99076SOL     OW99066  13.271  11.440   6.006
99076SOL    HW199067  13.357  11.453   5.964
99076SOL    HW299068  13.263  11.345   6.013
99077SOL     OW99069   1.696   3.231   8.893
99077SOL    HW199070   1.763   3.296   8.914
99077SOL    HW299071   1.692   3.230   8.797
99078SOL     OW99072   6.849   3.320   3.904
99078SOL    HW199073   6.878   3.372   3.980
99078SOL    HW299074   6.886   3.366   3.829
99079SOL     OW99075   1.529   3.148   6.253
99079SOL    HW199076   1.617   3.132   6.287
99079SOL    HW299077   1.509   3.072   6.199
99080SOL     OW99078   0.303   6.625  12.967
99080SOL    HW199079   0.292   6.652  12.876
99080SOL    HW299080   0.378   6.676  12.998
99081SOL     OW99081  14.806   7.752   5.322
99081SOL    HW199082   0.001   7.691   5.351
99081SOL    HW299083  14.749   7.763   5.398
99082SOL     OW99084   8.941   0.689   1.148
99082SOL    HW199085   8.906   0.659   1.232
99082SOL    HW299086   9.034   0.671   1.153
99083SOL     OW99087   7.243  10.728   5.741
99083SOL    HW199088   7.261  10.696   5.653
99083SOL    HW299089   7.235  10.649   5.794
99084SOL     OW99090  11.210   8.713  13.831
99084SOL    HW199091  11.191   8.630  13.786
99084SOL    HW299092  11.199   8.780  13.763
99085SOL     OW99093  10.437  13.950   2.244
99085SOL    HW199094  10.521  13.904   2.241
99085SOL    HW299095  10.444  14.017   2.175
99086SOL     OW99096   8.596   2.341   3.226
99086SOL    HW199097   8.568   2.411   3.285
99086SOL    HW299098   8.583   2.378   3.138
99087SOL     OW99099   1.260  13.714   9.263
99087SOL    HW199100   1.339  13.665   9.285
99087SOL    HW299101   1.281  13.805   9.284
99088SOL     OW99102  11.544   7.593   1.167
99088SOL    HW199103  11.504   7.678   1.184
99088SOL    HW299104  11.638   7.608   1.182
99089SOL     OW99105   4.777  13.410   0.178
99089SOL    HW199106   4.847  13.470   0.151
99089SOL    HW299107   4.696  13.458   0.159
99090SOL     OW99108   0.255   4.859   2.834
99090SOL    HW199109   0.231   4.807   2.757
99090SOL    HW299110   0.255   4.797   2.907
99091SOL     OW99111   3.325   9.625   3.927
99091SOL    HW199112   3.351   9.687   3.995
99091SOL    HW299113   3.383   9.644   3.854
99092SOL     OW99114  11.852  13.319   6.285
99092SOL    HW199115  11.805  13.237   6.301
99092SOL    HW299116  11.810  13.382   6.344
99093SOL     OW99117   5.941  13.554   7.464
99093SOL    HW199118   5.998  13.534   7.538
99093SOL    HW299119   5.854  13.562   7.503
99094SOL     OW99120   3.556   8.380  12.972
99094SOL    HW199121   3.484   8.404  12.914
99094SOL    HW299122   3.593   8.464  13.000
99095SOL     OW99123   6.067   5.692   4.333
99095SOL    HW199124   5.999   5.660   4.274
99095SOL    HW299125   6.034   5.776   4.365
99096SOL     OW99126  11.365   3.892   0.985
99096SOL    HW199127  11.340   3.970   1.033
99096SOL    HW299128  11.427   3.923   0.919
99097SOL     OW99129   5.964   3.311  13.145
99097SOL    HW199130   5.926   3.316  13.232
99097SOL    HW299131   6.039   3.371  13.148
99098SOL     OW99132  13.379   6.923   9.956
99098SOL    HW199133  13.411   6.976  10.029
99098SOL    HW299134  13.448   6.858   9.941
99099SOL     OW99135   6.538  14.818   5.936
99099SOL    HW199136   6.536  14.864   6.020
99099SOL    HW299137   6.631  14.799   5.922
99100SOL     OW99138  14.187  14.723  12.011
99100SOL    HW199139  14.232  14.738  11.928
99100SOL    HW299140  14.102  14.766  12.000
99101SOL     OW99141   7.704   0.651  10.078
99101SOL    HW199142   7.793   0.663  10.111
99101SOL    HW299143   7.674   0.739  10.058
99102SOL     OW99144   9.880  14.453   2.598
99102SOL    HW199145   9.909  14.541   2.575
99102SOL    HW299146   9.812  14.432   2.534
99103SOL     OW99147   0.362   9.463   3.012
99103SOL    HW199148   0.339   9.548   3.048
99103SOL    HW299149   0.286   9.407   3.031
99104SOL     OW99150  13.684  14.141   5.159
99104SOL    HW199151  13.638  14.135   5.243
99104SOL    HW299152  13.775  14.118   5.180
99105SOL     OW99153   8.898  10.342   1.045
99105SOL    HW199154   8.981  10.385   1.024
99105SOL    HW299155   8.870  10.382   1.127
99106SOL     OW99156   1.356   9.020   2.008
99106SOL    HW199157   1.384   8.932   1.981
99106SOL    HW299158   1.431   9.076   1.985
99107SOL     OW99159   5.177   7.506   5.711
99107SOL    HW199160   5.266   7.472   5.700
99107SOL    HW299161   5.140   7.506   5.623
99108SOL     OW99162  12.990   5.414  13.230
99108SOL    HW199163  13.052   5.437  13.299
99108SOL    HW299164  13.023   5.331  13.194
99109SOL     OW99165   9.954   6.144  12.833
99109SOL    HW199166   9.861   6.146  12.808
99109SOL    HW299167   9.956   6.185  12.920
99110SOL     OW99168   3.506  12.555   2.535
99110SOL    HW199169   3.572  12.624   2.538
99110SOL    HW299170   3.510  12.521   2.446
99111SOL     OW99171  11.113  13.266   8.075
99111SOL    HW199172  11.094  13.213   8.152
99111SOL    HW299173  11.207  13.258   8.062
99112SOL     OW99174  12.417   9.039   8.359
99112SOL    HW199175  12.394   9.028   8.266
99112SOL    HW299176  12.512   9.042   8.360
99113SOL     OW99177  13.870  13.301   9.718
99113SOL    HW199178  13.963  13.297   9.697
99113SOL    HW299179  13.855  13.226   9.775
99114SOL     OW99180  10.026   1.714   9.517
99114SOL    HW199181  10.059   1.675   9.598
99114SOL    HW299182   9.996   1.801   9.544
99115SOL     OW99183  13.954   5.215   7.527
99115SOL    HW199184  13.878   5.253   7.484
99115SOL    HW299185  14.002   5.170   7.457
99116SOL     OW99186   9.322   0.055   9.011
99116SOL    HW199187   9.268   0.037   8.934
99116SOL    HW299188   9.407   0.017   8.989
99117SOL     OW99189   9.134  14.609   3.999
99117SOL    HW199190   9.180  14.650   4.072
99117SOL    HW299191   9.042  14.630   4.015
99118SOL     OW99192   7.983  10.874   4.409
99118SOL    HW199193   7.974  10.880   4.504
99118SOL    HW299194   8.019  10.786   4.394
99119SOL     OW99195   7.239  14.122   9.952
99119SOL    HW199196   7.250  14.034   9.990
99119SOL    HW299197   7.146  14.126   9.928
99120SOL     OW99198  13.965   3.165   8.799
99120SOL    HW199199  13.954   3.259   8.785
99120SOL    HW299200  14.020   3.136   8.726
99121SOL     OW99201  13.033  14.607   4.643
99121SOL    HW199202  13.023  14.701   4.626
99121SOL    HW299203  12.988  14.593   4.726
99122SOL     OW99204   5.983   0.144   6.422
99122SOL    HW199205   6.038   0.186   6.356
99122SOL    HW299206   6.040   0.081   6.465
99123SOL     OW99207  12.443  10.842  13.179
99123SOL    HW199208  12.532  10.840  13.145
99123SOL    HW299209  12.387  10.838  13.102
99124SOL     OW99210   7.469  10.071  10.844
99124SOL    HW199211   7.501  10.067  10.754
99124SOL    HW299212   7.469  10.164  10.866
99125SOL     OW99213  12.941   4.953  14.839
99125SOL    HW199214  12.877   4.888  14.867
99125SOL    HW299215  13.009   4.951   0.033
99126SOL     OW99216   1.620   4.575   9.380
99126SOL    HW199217   1.699   4.628   9.388
99126SOL    HW299218   1.548   4.637   9.383
99127SOL     OW99219  13.066   7.295   5.232
99127SOL    HW199220  13.152   7.255   5.243
99127SOL    HW299221  13.065   7.322   5.140
99128SOL     OW99222   8.284   4.191   9.145
99128SOL    HW199223   8.207   4.198   9.090
99128SOL    HW299224   8.352   4.238   9.098
99129SOL     OW99225   1.711   3.187   0.207
99129SOL    HW199226   1.692   3.237   0.128
99129SOL    HW299227   1.650   3.221   0.272
99130SOL     OW99228   1.033   1.541  13.283
99130SOL    HW199229   0.953   1.526  13.333
99130SOL    HW299230   1.018   1.622  13.235
99131SOL     OW99231   5.369  11.719   7.953
99131SOL    HW199232   5.367  11.812   7.932
99131SOL    HW299233   5.373  11.716   8.048
99132SOL     OW99234   8.593   9.648   1.640
99132SOL    HW199235   8.684   9.671   1.621
99132SOL    HW299236   8.547   9.732   1.642
99133SOL     OW99237   7.910  13.686  11.621
99133SOL    HW199238   8.001  13.699  11.645
99133SOL    HW299239   7.908  13.698  11.526
99134SOL     OW99240   9.159   5.002  14.097
99134SOL    HW199241   9.153   4.999  14.001
99134SOL    HW299242   9.227   5.067  14.115
99135SOL     OW99243  14.648  10.811   3.634
99135SOL    HW199244  14.717  10.759   3.592
99135SOL    HW299245  14.567  10.767   3.611
99136SOL     OW99246   2.213   3.505   4.614
99136SOL    HW199247   2.240   3.453   4.689
99136SOL    HW299248   2.217   3.445   4.540
99137SOL     OW99249  12.164  10.395   9.920
99137SOL    HW199250  12.099  10.419   9.854
99137SOL    HW299251  12.154  10.301   9.930
99138SOL     OW99252  12.219   2.908  14.159
99138SOL    HW199253  12.296   2.852  14.143
99138SOL    HW299254  12.222   2.972  14.089
99139SOL     OW99255   7.252   1.222  14.075
99139SOL    HW199256   7.309   1.153  14.042
99139SOL    HW299257   7.199   1.180  14.142
99140SOL     OW99258   6.959  11.802   5.357
99140SOL    HW199259   7.041  11.822   5.311
99140SOL    HW299260   6.900  11.873   5.332
99141SOL     OW99261  14.394   0.829   0.612
99141SOL    HW199262  14.439   0.873   0.684
99141SOL    HW299263  14.302   0.828   0.639
99142SOL     OW99264   8.730   9.563   7.037
99142SOL    HW199265   8.726   9.652   7.072
99142SOL    HW299266   8.737   9.575   6.942
99143SOL     OW99267   2.353   1.740  14.324
99143SOL    HW199268   2.381   1.802  14.257
99143SOL    HW299269   2.388   1.775  14.406
99144SOL     OW99270   9.092   9.188  13.372
99144SOL    HW199271   9.071   9.095  13.364
99144SOL    HW299272   9.149   9.192  13.449
99145SOL     OW99273   7.645   0.350  13.611
99145SOL    HW199274   7.713   0.368  13.547
99145SOL    HW299275   7.606   0.435  13.630
99146SOL     OW99276   1.649   1.359   8.433
99146SOL    HW199277   1.688   1.280   8.397
99146SOL    HW299278   1.718   1.400   8.485
99147SOL     OW99279  10.547   7.440  10.550
99147SOL    HW199280  10.598   7.393  10.484
99147SOL    HW299281  10.612   7.493  10.597
99148SOL     OW99282   8.086  11.976   5.058
99148SOL    HW199283   8.011  11.997   5.114
99148SOL    HW299284   8.049  11.972   4.970
99149SOL     OW99285   0.504   6.421   2.341
99149SOL    HW199286   0.449   6.440   2.265
99149SOL    HW299287   0.590   6.403   2.304
99150SOL     OW99288   4.057   7.306  14.517
99150SOL    HW199289   4.143   7.348  14.510
99150SOL    HW299290   4.076   7.212  14.512
99151SOL     OW99291  14.800   1.039   6.881
99151SOL    HW199292  14.781   0.988   6.802
99151SOL    HW299293  14.872   0.992   6.924
99152SOL     OW99294  13.703   0.124  12.757
99152SOL    HW199295  13.618   0.161  12.736
99152SOL    HW299296  13.766   0.186  12.720
99153SOL     OW99297   9.217  12.167   4.137
99153SOL    HW199298   9.269  12.200   4.210
99153SOL    HW299299   9.130  12.153   4.174
99154SOL     OW99300   0.722   9.792  11.517
99154SOL    HW199301   0.688   9.848  11.447
99154SOL    HW299302   0.660   9.719  11.522
99155SOL     OW99303  13.247   4.381  10.584
99155SOL    HW199304  13.185   4.315  10.554
99155SOL    HW299305  13.198   4.463  10.584
99156SOL     OW99306   3.437   9.171   9.643
99156SOL    HW199307   3.396   9.085   9.644
99156SOL    HW299308   3.528   9.155   9.668
99157SOL     OW99309   3.753   3.682   0.088
99157SOL    HW199310   3.776   3.730   0.009
99157SOL    HW299311   3.810   3.606   0.087
99158SOL     OW99312   4.825  10.490  14.276
99158SOL    HW199313   4.741  10.452  14.300
99158SOL    HW299314   4.884  10.463  14.346
99159SOL     OW99315   0.163   8.202  13.454
99159SOL    HW199316   0.073   8.214  13.485
99159SOL    HW299317   0.172   8.108  13.442
99160SOL     OW99318  11.202  14.183   0.676
99160SOL    HW199319  11.163  14.156   0.593
99160SOL    HW299320  11.263  14.252   0.653
99161SOL     OW99321   6.087  10.358   4.244
99161SOL    HW199322   6.172  10.322   4.270
99161SOL    HW299323   6.108  10.442   4.203
99162SOL     OW99324  11.302   0.650   7.034
99162SOL    HW199325  11.256   0.679   7.114
99162SOL    HW299326  11.246   0.682   6.963
99163SOL     OW99327   0.602  13.756   5.438
99163SOL    HW199328   0.679  13.705   5.414
99163SOL    HW299329   0.532  13.691   5.447
99164SOL     OW99330   1.753   4.425   7.449
99164SOL    HW199331   1.766   4.340   7.409
99164SOL    HW299332   1.832   4.475   7.427
99165SOL     OW99333  11.551   0.902   9.050
99165SOL    HW199334  11.482   0.919   8.986
99165SOL    HW299335  11.506   0.902   9.135
99166SOL     OW99336   6.481   5.114  10.357
99166SOL    HW199337   6.427   5.094  10.434
99166SOL    HW299338   6.519   5.030  10.332
99167SOL     OW99339  11.481  10.113   0.952
99167SOL    HW199340  11.500  10.039   1.011
99167SOL    HW299341  11.562  10.123   0.901
99168SOL     OW99342   1.875   6.739   7.896
99168SOL    HW199343   1.910   6.799   7.961
99168SOL    HW299344   1.825   6.794   7.836
99169SOL     OW99345   0.175   4.588  14.801
99169SOL    HW199346   0.129   4.670  14.820
99169SOL    HW299347   0.254   4.592  14.854
99170SOL     OW99348   5.140   0.050   3.922
99170SOL    HW199349   5.194  14.852   3.886
99170SOL    HW299350   5.202   0.115   3.952
99171SOL     OW99351   0.740   6.435   5.421
99171SOL    HW199352   0.760   6.482   5.340
99171SOL    HW299353   0.818   6.444   5.475
99172SOL     OW99354  10.925   4.012   7.005
99172SOL    HW199355  10.971   4.059   6.935
99172SOL    HW299356  10.834   4.038   6.994
99173SOL     OW99357   4.162  11.377   2.821
99173SOL    HW199358   4.145  11.420   2.904
99173SOL    HW299359   4.097  11.414   2.761
99174SOL     OW99360   1.801   3.091   6.355
99174SOL    HW199361   1.795   3.003   6.317
99174SOL    HW299362   1.890   3.097   6.388
99175SOL     OW99363   9.280   4.400  11.757
99175SOL    HW199364   9.315   4.441  11.678
99175SOL    HW299365   9.196   4.362  11.730
99176SOL     OW99366   2.628   5.046   9.231
99176SOL    HW199367   2.536   5.071   9.235
99176SOL    HW299368   2.659   5.054   9.322
99177SOL     OW99369   2.087   9.449  11.958
99177SOL    HW199370   2.172   9.490  11.942
99177SOL    HW299371   2.106   9.355  11.954
99178SOL     OW99372   7.706   7.463   4.733
99178SOL    HW199373   7.619   7.425   4.717
99178SOL    HW299374   7.721   7.449   4.827
99179SOL     OW99375   9.448  12.277  11.121
99179SOL    HW199376   9.407  12.260  11.206
99179SOL    HW299377   9.397  12.227  11.058
99180SOL     OW99378  13.720   4.472   4.286
99180SOL    HW199379  13.688   4.561   4.267
99180SOL    HW299380  13.744   4.437   4.200
99181SOL     OW99381  13.194  12.721  13.177
99181SOL    HW199382  13.277  12.769  13.180
99181SOL    HW299383  13.140  12.764  13.243
99182SOL     OW99384   6.257   2.932   0.635
99182SOL    HW199385   6.272   2.943   0.541
99182SOL    HW299386   6.300   3.006   0.676
99183SOL     OW99387  10.597  13.411  12.352
99183SOL    HW199388  10.608  13.445  12.441
99183SOL    HW299389  10.682  13.373  12.331
99184SOL     OW99390   6.312   8.073   1.820
99184SOL    HW199391   6.254   7.998   1.815
99184SOL    HW299392   6.386   8.050   1.763
99185SOL     OW99393   3.727   8.121  10.819
99185SOL    HW199394   3.822   8.129  10.827
99185SOL    HW299395   3.709   8.142  10.728
99186SOL     OW99396   6.960   4.587   9.690
99186SOL    HW199397   6.919   4.648   9.752
99186SOL    HW299398   6.987   4.641   9.617
99187SOL     OW99399  11.358   7.239   1.429
99187SOL    HW199400  11.392   7.252   1.341
99187SOL    HW299401  11.266   7.264   1.424
99188SOL     OW99402   1.400  13.730   0.328
99188SOL    HW199403   1.342  13.805   0.342
99188SOL    HW299404   1.488  13.768   0.323
99189SOL     OW99405   0.098   6.130  12.158
99189SOL    HW199406   0.127   6.211  12.200
99189SOL    HW299407   0.155   6.062  12.195
99190SOL     OW99408  14.030  13.813   1.357
99190SOL    HW199409  14.044  13.721   1.332
99190SOL    HW299410  14.118  13.849   1.367
99191SOL     OW99411  13.019  12.391   1.847
99191SOL    HW199412  13.023  12.479   1.884
99191SOL    HW299413  12.930  12.362   1.865
99192SOL     OW99414  11.180  12.049  12.949
99192SOL    HW199415  11.209  12.067  12.859
99192SOL    HW299416  11.261  12.051  13.001
99193SOL     OW99417  12.640   9.813  11.048
99193SOL    HW199418  12.657   9.781  10.960
99193SOL    HW299419  12.712   9.777  11.101
99194SOL     OW99420   5.623   0.791   4.530
99194SOL    HW199421   5.683   0.744   4.472
99194SOL    HW299422   5.576   0.851   4.472
99195SOL     OW99423   7.369  14.439   3.278
99195SOL    HW199424   7.424  14.506   3.237
99195SOL    HW299425   7.283  14.451   3.237
99196SOL     OW99426  14.345  11.402   2.591
99196SOL    HW199427  14.326  11.351   2.670
99196SOL    HW299428  14.288  11.365   2.524
99197SOL     OW99429   5.340   1.694   8.495
99197SOL    HW199430   5.357   1.783   8.465
99197SOL    HW299431   5.365   1.695   8.587
99198SOL     OW99432   5.454   3.677   6.491
99198SOL    HW199433   5.390   3.650   6.556
99198SOL    HW299434   5.534   3.693   6.541
99199SOL     OW99435  10.036  12.737   4.432
99199SOL    HW199436  10.030  12.641   4.435
99199SOL    HW299437  10.046  12.758   4.339
99200SOL     OW99438   3.818   2.937   1.651
99200SOL    HW199439   3.727   2.944   1.681
99200SOL    HW299440   3.815   2.961   1.559
99201SOL     OW99441   9.147   3.693   0.335
99201SOL    HW199442   9.143   3.773   0.387
99201SOL    HW299443   9.229   3.700   0.286
99202SOL     OW99444   6.045  11.904   7.366
99202SOL    HW199445   5.968  11.961   7.363
99202SOL    HW299446   6.034  11.844   7.292
99203SOL     OW99447   5.901   7.394   9.496
99203SOL    HW199448   5.842   7.469   9.503
99203SOL    HW299449   5.988   7.430   9.515
99204SOL     OW99450  13.125   7.289   3.249
99204SOL    HW199451  13.186   7.358   3.273
99204SOL    HW299452  13.152   7.214   3.303
99205SOL     OW99453  12.155   9.007   8.867
99205SOL    HW199454  12.175   8.956   8.788
99205SOL    HW299455  12.064   8.987   8.887
99206SOL     OW99456  13.190   9.290   9.098
99206SOL    HW199457  13.099   9.265   9.112
99206SOL    HW299458  13.224   9.226   9.035
99207SOL     OW99459   7.047   1.826  14.124
99207SOL    HW199460   7.116   1.893  14.119
99207SOL    HW299461   6.969   1.874  14.152
99208SOL     OW99462  11.090   1.316   2.560
99208SOL    HW199463  11.058   1.322   2.650
99208SOL    HW299464  11.047   1.388   2.515
99209SOL     OW99465   8.428   4.385   8.953
99209SOL    HW199466   8.369   4.452   8.989
99209SOL    HW299467   8.489   4.434   8.898
99210SOL     OW99468   6.267  14.193   7.154
99210SOL    HW199469   6.338  14.184   7.217
99210SOL    HW299470   6.221  14.272   7.181
99211SOL     OW99471  14.054   9.859  14.195
99211SOL    HW199472  13.981   9.879  14.136
99211SOL    HW299473  14.091   9.778  14.160
99212SOL     OW99474  14.201  10.297   6.480
99212SOL    HW199475  14.264  10.367   6.462
99212SOL    HW299476  14.192  10.295   6.575
99213SOL     OW99477  13.898  13.579   5.715
99213SOL    HW199478  13.861  13.632   5.646
99213SOL    HW299479  13.920  13.496   5.673
99214SOL     OW99480   9.762  10.981   6.631
99214SOL    HW199481   9.733  11.071   6.641
99214SOL    HW299482   9.683  10.928   6.642
99215SOL     OW99483  14.053   7.985   4.654
99215SOL    HW199484  13.994   8.015   4.723
99215SOL    HW299485  14.083   7.899   4.684
99216SOL     OW99486   7.678  10.213   2.008
99216SOL    HW199487   7.670  10.153   1.934
99216SOL    HW299488   7.765  10.252   1.997
99217SOL     OW99489  12.636   4.725   3.317
99217SOL    HW199490  12.643   4.710   3.223
99217SOL    HW299491  12.718   4.770   3.340
99218SOL     OW99492   4.604   3.296  13.071
99218SOL    HW199493   4.611   3.373  13.015
99218SOL    HW299494   4.615   3.222  13.012
99219SOL     OW99495   8.499  10.318  13.406
99219SOL    HW199496   8.508  10.251  13.473
99219SOL    HW299497   8.416  10.361  13.425
99220SOL     OW99498   5.347   2.869   4.662
99220SOL    HW199499   5.352   2.835   4.751
99220SOL    HW299500   5.408   2.943   4.661
99221SOL     OW99501  12.390   6.856   1.066
99221SOL    HW199502  12.457   6.801   1.025
99221SOL    HW299503  12.314   6.798   1.074
99222SOL     OW99504   7.626   1.666   5.864
99222SOL    HW199505   7.572   1.744   5.856
99222SOL    HW299506   7.582   1.613   5.930
99223SOL     OW99507   1.890   4.391  13.350
99223SOL    HW199508   1.884   4.312  13.296
99223SOL    HW299509   1.837   4.372  13.427
99224SOL     OW99510  10.179   1.800  14.776
99224SOL    HW199511  10.261   1.839  14.808
99224SOL    HW299512  10.174   1.716  14.821
99225SOL     OW99513  13.581   7.903   6.452
99225SOL    HW199514  13.634   7.830   6.420
99225SOL    HW299515  13.491   7.877   6.437
99226SOL     OW99516  12.083   8.813   3.903
99226SOL    HW199517  12.127   8.742   3.856
99226SOL    HW299518  12.027   8.768   3.967
99227SOL     OW99519  14.067  11.520   4.473
99227SOL    HW199520  14.008  11.511   4.547
99227SOL    HW299521  14.150  11.483   4.504
99228SOL     OW99522   3.127   6.489   3.313
99228SOL    HW199523   3.192   6.446   3.257
99228SOL    HW299524   3.175   6.562   3.352
99229SOL     OW99525  13.542   0.508   0.866
99229SOL    HW199526  13.606   0.485   0.798
99229SOL    HW299527  13.478   0.562   0.821
99230SOL     OW99528  12.750   9.962   9.854
99230SOL    HW199529  12.751  10.006   9.940
99230SOL    HW299530  12.824   9.902   9.857
99231SOL     OW99531  11.977   9.809   1.189
99231SOL    HW199532  11.993   9.857   1.108
99231SOL    HW299533  11.932   9.872   1.246
99232SOL     OW99534   3.812  12.296   3.711
99232SOL    HW199535   3.809  12.221   3.652
99232SOL    HW299536   3.827  12.258   3.797
99233SOL     OW99537   2.286   3.307   6.497
99233SOL    HW199538   2.360   3.306   6.436
99233SOL    HW299539   2.320   3.351   6.574
99234SOL     OW99540   7.001  14.470   5.328
99234SOL    HW199541   6.940  14.461   5.255
99234SOL    HW299542   6.988  14.391   5.380
99235SOL     OW99543   7.919   6.629   7.010
99235SOL    HW199544   7.901   6.562   7.077
99235SOL    HW299545   7.834   6.644   6.968
99236SOL     OW99546  12.881  12.112   4.655
99236SOL    HW199547  12.896  12.018   4.652
99236SOL    HW299548  12.923  12.146   4.575
99237SOL     OW99549   5.535  12.150   0.785
99237SOL    HW199550   5.489  12.071   0.755
99237SOL    HW299551   5.539  12.207   0.708
99238SOL     OW99552   3.099  11.525   6.662
99238SOL    HW199553   3.044  11.450   6.642
99238SOL    HW299554   3.187  11.498   6.634
99239SOL     OW99555   9.566  11.318  13.185
99239SOL    HW199556   9.536  11.364  13.107
99239SOL    HW299557   9.508  11.348  13.255
99240SOL     OW99558  10.835   2.650   2.711
99240SOL    HW199559  10.782   2.677   2.636
99240SOL    HW299560  10.803   2.703   2.784
99241SOL     OW99561   5.662  14.197   9.724
99241SOL    HW199562   5.588  14.151   9.685
99241SOL    HW299563   5.708  14.131   9.775
99242SOL     OW99564   6.134   7.832  10.790
99242SOL    HW199565   6.171   7.747  10.813
99242SOL    HW299566   6.185   7.862  10.716
99243SOL     OW99567   4.515   3.385   0.703
99243SOL    HW199568   4.453   3.417   0.769
99243SOL    HW299569   4.599   3.382   0.749
99244SOL     OW99570   6.978   7.979   5.075
99244SOL    HW199571   6.962   8.067   5.110
99244SOL    HW299572   6.925   7.922   5.131
99245SOL     OW99573  11.895   8.726  11.728
99245SOL    HW199574  11.926   8.766  11.809
99245SOL    HW299575  11.966   8.667  11.702
99246SOL     OW99576   5.662   3.142   6.159
99246SOL    HW199577   5.634   3.078   6.093
99246SOL    HW299578   5.631   3.226   6.124
99247SOL     OW99579   4.895   4.146   2.963
99247SOL    HW199580   4.952   4.163   3.038
99247SOL    HW299581   4.824   4.209   2.972
99248SOL     OW99582   4.577   4.614  12.777
99248SOL    HW199583   4.562   4.659  12.694
99248SOL    HW299584   4.532   4.530  12.768
99249SOL     OW99585   5.896   5.740  13.899
99249SOL    HW199586   5.848   5.743  13.816
99249SOL    HW299587   5.939   5.825  13.904
99250SOL     OW99588   6.961  11.553   4.959
99250SOL    HW199589   6.996  11.550   5.048
99250SOL    HW299590   6.884  11.610   4.966
99251SOL     OW99591   0.430   9.832  13.591
99251SOL    HW199592   0.483   9.765  13.635
99251SOL    HW299593   0.448   9.912  13.640
99252SOL     OW99594   3.445   6.056  13.857
99252SOL    HW199595   3.507   6.061  13.785
99252SOL    HW299596   3.401   6.141  13.856
99253SOL     OW99597  14.471  11.461   0.846
99253SOL    HW199598  14.498  11.369   0.852
99253SOL    HW299599  14.553  11.510   0.852
99254SOL     OW99600   6.842   2.106   5.410
99254SOL    HW199601   6.861   2.141   5.497
99254SOL    HW299602   6.880   2.018   5.411
99255SOL     OW99603  12.155   3.101   2.773
99255SOL    HW199604  12.192   3.094   2.861
99255SOL    HW299605  12.147   3.011   2.742
99256SOL     OW99606  11.467  11.360  13.413
99256SOL    HW199607  11.528  11.299  13.371
99256SOL    HW299608  11.511  11.385  13.494
99257SOL     OW99609   3.656   3.202   7.123
99257SOL    HW199610   3.728   3.265   7.134
99257SOL    HW299611   3.613   3.229   7.042
99258SOL     OW99612  14.208   0.572   1.179
99258SOL    HW199613  14.220   0.641   1.113
99258SOL    HW299614  14.270   0.504   1.154
99259SOL     OW99615   9.239  11.259  14.834
99259SOL    HW199616   9.257  11.256  14.740
99259SOL    HW299617   9.173  11.327  14.844
99260SOL     OW99618  14.758  12.397   5.463
99260SOL    HW199619  14.735  12.412   5.371
99260SOL    HW299620  14.759  12.301   5.472
99261SOL     OW99621   9.682   9.763  12.467
99261SOL    HW199622   9.629   9.841  12.482
99261SOL    HW299623   9.756   9.772  12.527
99262SOL     OW99624  13.460   7.855  11.992
99262SOL    HW199625  13.508   7.858  12.075
99262SOL    HW299626  13.372   7.823  12.016
99263SOL     OW99627   3.778   3.740   5.471
99263SOL    HW199628   3.773   3.778   5.383
99263SOL    HW299629   3.706   3.677   5.473
99264SOL     OW99630  10.285  11.240  10.561
99264SOL    HW199631  10.295  11.219  10.468
99264SOL    HW299632  10.191  11.232  10.577
99265SOL     OW99633   7.845   9.637   9.312
99265SOL    HW199634   7.823   9.626   9.220
99265SOL    HW299635   7.896   9.718   9.315
99266SOL     OW99636   6.077  13.842   1.796
99266SOL    HW199637   6.095  13.911   1.861
99266SOL    HW299638   5.983  13.848   1.780
99267SOL     OW99639  10.149  10.997   9.769
99267SOL    HW199640  10.093  10.935   9.722
99267SOL    HW299641  10.238  10.966   9.752
99268SOL     OW99642   1.316   1.995   3.027
99268SOL    HW199643   1.262   1.918   3.043
99268SOL    HW299644   1.402   1.959   3.004
99269SOL     OW99645  10.412  12.925  10.881
99269SOL    HW199646  10.403  12.988  10.809
99269SOL    HW299647  10.425  12.841  10.838
99270SOL     OW99648   2.105   8.762   0.784
99270SOL    HW199649   2.180   8.703   0.785
99270SOL    HW299650   2.028   8.704   0.786
99271SOL     OW99651   9.197   7.301  11.065
99271SOL    HW199652   9.179   7.385  11.109
99271SOL    HW299653   9.196   7.236  11.135
99272SOL     OW99654  10.157   6.131  12.051
99272SOL    HW199655  10.065   6.131  12.023
99272SOL    HW299656  10.158   6.188  12.128
99273SOL     OW99657   8.286   0.277   0.370
99273SOL    HW199658   8.291   0.287   0.275
99273SOL    HW299659   8.353   0.212   0.391
99274SOL     OW99660   6.916   4.764   5.713
99274SOL    HW199661   6.821   4.750   5.719
99274SOL    HW299662   6.949   4.684   5.673
99275SOL     OW99663   3.069  11.000  10.303
99275SOL    HW199664   3.025  10.915  10.310
99275SOL    HW299665   3.052  11.029  10.213
99276SOL     OW99666   6.463   7.579   5.556
99276SOL    HW199667   6.533   7.552   5.498
99276SOL    HW299668   6.442   7.669   5.529
99277SOL     OW99669   6.517   7.480  11.764
99277SOL    HW199670   6.452   7.547  11.784
99277SOL    HW299671   6.517   7.423  11.841
99278SOL     OW99672   8.565   3.090   4.463
99278SOL    HW199673   8.499   3.158   4.475
99278SOL    HW299674   8.617   3.093   4.543
99279SOL     OW99675   9.896   8.976   9.087
99279SOL    HW199676   9.936   9.045   9.034
99279SOL    HW299677   9.812   8.959   9.045
99280SOL     OW99678   5.475   9.316   5.130
99280SOL    HW199679   5.423   9.389   5.096
99280SOL    HW299680   5.538   9.297   5.060
99281SOL     OW99681   6.094  10.824   8.922
99281SOL    HW199682   6.167  10.860   8.872
99281SOL    HW299683   6.126  10.739   8.954
99282SOL     OW99684   8.670  10.761   9.099
99282SOL    HW199685   8.738  10.824   9.076
99282SOL    HW299686   8.651  10.716   9.016
99283SOL     OW99687   7.635   6.300  13.300
99283SOL    HW199688   7.562   6.272  13.244
99283SOL    HW299689   7.712   6.258  13.262
99284SOL     OW99690  10.055   6.413   5.178
99284SOL    HW199691  10.049   6.329   5.223
99284SOL    HW299692   9.965   6.446   5.177
99285SOL     OW99693   5.344   6.552   7.987
99285SOL    HW199694   5.265   6.585   8.029
99285SOL    HW299695   5.410   6.552   8.057
99286SOL     OW99696  11.151   9.257   8.420
99286SOL    HW199697  11.161   9.163   8.404
99286SOL    HW299698  11.093   9.263   8.496
99287SOL     OW99699  13.411   0.110  14.073
99287SOL    HW199700  13.504   0.089  14.067
99287SOL    HW299701  13.402   0.159  14.155
99288SOL     OW99702   8.652   3.102   1.095
99288SOL    HW199703   8.726   3.073   1.042
99288SOL    HW299704   8.666   3.196   1.107
99289SOL     OW99705  12.152   8.991  14.132
99289SOL    HW199706  12.152   9.081  14.167
99289SOL    HW299707  12.141   8.936  14.209
99290SOL     OW99708   0.232   2.932  13.416
99290SOL    HW199709   0.267   2.862  13.470
99290SOL    HW299710   0.295   2.941  13.344
99291SOL     OW99711   2.722   4.715   0.204
99291SOL    HW199712   2.675   4.685   0.127
99291SOL    HW299713   2.753   4.635   0.246
99292SOL     OW99714  14.355   5.675  13.834
99292SOL    HW199715  14.318   5.637  13.914
99292SOL    HW299716  14.384   5.599  13.783
99293SOL     OW99717   4.512  13.988   0.979
99293SOL    HW199718   4.531  13.941   1.061
99293SOL    HW299719   4.417  13.999   0.980
99294SOL     OW99720   9.708  14.860   5.858
99294SOL    HW199721   9.645   0.033   5.803
99294SOL    HW299722   9.688  14.768   5.846
99295SOL     OW99723   2.043  10.044   5.626
99295SOL    HW199724   2.029  10.138   5.639
99295SOL    HW299725   2.121  10.039   5.570
99296SOL     OW99726   7.200   5.309   3.058
99296SOL    HW199727   7.205   5.312   3.154
99296SOL    HW299728   7.289   5.331   3.029
99297SOL     OW99729   8.899  11.394   6.728
99297SOL    HW199730   8.931  11.305   6.746
99297SOL    HW299731   8.904  11.438   6.813
99298SOL     OW99732  14.627   3.441  14.775
99298SOL    HW199733  14.683   3.420  14.701
99298SOL    HW299734  14.590   3.527  14.754
99299SOL     OW99735   0.407  10.941   5.100
99299SOL    HW199736   0.455  10.905   5.026
99299SOL    HW299737   0.366  11.021   5.065
99300SOL     OW99738   2.398   6.813   3.445
99300SOL    HW199739   2.463   6.746   3.466
99300SOL    HW299740   2.369   6.846   3.530
99301SOL     OW99741  11.517   7.788  10.494
99301SOL    HW199742  11.449   7.816  10.556
99301SOL    HW299743  11.492   7.828  10.411
99302SOL     OW99744   6.299   5.668  11.611
99302SOL    HW199745   6.352   5.736  11.571
99302SOL    HW299746   6.362   5.605  11.647
99303SOL     OW99747   1.963   9.368   1.081
99303SOL    HW199748   1.880   9.413   1.098
99303SOL    HW299749   2.028   9.416   1.132
99304SOL     OW99750   6.776   9.643   3.915
99304SOL    HW199751   6.691   9.675   3.884
99304SOL    HW299752   6.798   9.700   3.988
99305SOL     OW99753   5.881  12.622   7.770
99305SOL    HW199754   5.949  12.586   7.713
99305SOL    HW299755   5.928  12.669   7.838
99306SOL     OW99756   2.442  11.356   5.983
99306SOL    HW199757   2.460  11.397   6.068
99306SOL    HW299758   2.440  11.262   6.002
99307SOL     OW99759  10.830   4.607   7.620
99307SOL    HW199760  10.914   4.561   7.625
99307SOL    HW299761  10.787   4.587   7.703
99308SOL     OW99762   9.394  11.650   3.362
99308SOL    HW199763   9.446  11.570   3.361
99308SOL    HW299764   9.455  11.719   3.338
99309SOL     OW99765   4.948   2.829   0.285
99309SOL    HW199766   4.863   2.870   0.270
99309SOL    HW299767   4.985   2.876   0.361
99310SOL     OW99768  13.993  13.969   6.952
99310SOL    HW199769  14.080  13.972   6.911
99310SOL    HW299770  14.003  13.904   7.022
99311SOL     OW99771   6.280   7.709   9.814
99311SOL    HW199772   6.289   7.713   9.909
99311SOL    HW299773   6.359   7.663   9.784
99312SOL     OW99774  14.388   4.221   6.022
99312SOL    HW199775  14.472   4.204   6.065
99312SOL    HW299776  14.330   4.246   6.094
99313SOL     OW99777   2.083   1.747  13.007
99313SOL    HW199778   2.134   1.815  12.962
99313SOL    HW299779   1.992   1.774  12.996
99314SOL     OW99780   8.033   0.853   4.971
99314SOL    HW199781   8.009   0.762   4.957
99314SOL    HW299782   8.110   0.867   4.916
99315SOL     OW99783   6.263   3.474   2.814
99315SOL    HW199784   6.231   3.405   2.872
99315SOL    HW299785   6.227   3.555   2.850
99316SOL     OW99786   9.247   5.447  13.726
99316SOL    HW199787   9.181   5.398  13.776
99316SOL    HW299788   9.301   5.489  13.794
99317SOL     OW99789   5.803   9.056   7.665
99317SOL    HW199790   5.800   8.969   7.625
99317SOL    HW299791   5.807   9.038   7.759
99318SOL     OW99792   4.977   0.329  13.608
99318SOL    HW199793   4.910   0.370  13.553
99318SOL    HW299794   4.943   0.339  13.697
99319SOL     OW99795   2.530  13.631   8.798
99319SOL    HW199796   2.463  13.639   8.729
99319SOL    HW299797   2.606  13.677   8.762
99320SOL     OW99798   6.969   5.376  10.879
99320SOL    HW199799   6.941   5.415  10.796
99320SOL    HW299800   7.010   5.293  10.854
99321SOL     OW99801   2.664  11.949   2.793
99321SOL    HW199802   2.593  11.950   2.729
99321SOL    HW299803   2.679  11.856   2.812
99322SOL     OW99804   6.482  11.831   8.946
99322SOL    HW199805   6.499  11.753   9.000
99322SOL    HW299806   6.569  11.864   8.924
99323SOL     OW99807  14.162   6.457  12.825
99323SOL    HW199808  14.167   6.362  12.827
99323SOL    HW299809  14.253   6.486  12.811
99324SOL     OW99810  13.383   6.055   7.474
99324SOL    HW199811  13.350   6.111   7.545
99324SOL    HW299812  13.321   5.982   7.470
99325SOL     OW99813   0.495  14.601   0.227
99325SOL    HW199814   0.574  14.552   0.251
99325SOL    HW299815   0.452  14.546   0.161
99326SOL     OW99816   5.156  13.198   5.722
99326SOL    HW199817   5.193  13.177   5.808
99326SOL    HW299818   5.181  13.289   5.707
99327SOL     OW99819   0.668  13.851  12.086
99327SOL    HW199820   0.671  13.939  12.047
99327SOL    HW299821   0.651  13.793  12.012
99328SOL     OW99822   5.150   7.212   7.574
99328SOL    HW199823   5.202   7.291   7.557
99328SOL    HW299824   5.201   7.164   7.639
99329SOL     OW99825   8.949   7.831  10.158
99329SOL    HW199826   9.003   7.780  10.097
99329SOL    HW299827   8.946   7.777  10.237
99330SOL     OW99828   1.198   3.720  11.078
99330SOL    HW199829   1.245   3.687  11.002
99330SOL    HW299830   1.123   3.766  11.042
99331SOL     OW99831  14.322   4.942  12.481
99331SOL    HW199832  14.261   4.979  12.545
99331SOL    HW299833  14.403   4.991  12.493
99332SOL     OW99834   1.422   0.555  13.850
99332SOL    HW199835   1.401   0.467  13.882
99332SOL    HW299836   1.492   0.585  13.907
99333SOL     OW99837   8.038  10.471   3.994
99333SOL    HW199838   8.006  10.446   4.081
99333SOL    HW299839   8.133  10.462   4.001
99334SOL     OW99840   2.541   9.431   1.708
99334SOL    HW199841   2.547   9.349   1.658
99334SOL    HW299842   2.592   9.493   1.657
99335SOL     OW99843   4.580   3.695   7.484
99335SOL    HW199844   4.663   3.678   7.528
99335SOL    HW299845   4.514   3.688   7.554
99336SOL     OW99846   9.533   8.260   3.567
99336SOL    HW199847   9.542   8.340   3.619
99336SOL    HW299848   9.622   8.235   3.545
99337SOL     OW99849   2.815   1.060  12.269
99337SOL    HW199850   2.831   0.999  12.197
99337SOL    HW299851   2.769   1.007  12.334
99338SOL     OW99852   5.007   2.506  12.642
99338SOL    HW199853   5.061   2.454  12.583
99338SOL    HW299854   5.004   2.455  12.723
99339SOL     OW99855   2.652   7.897   5.907
99339SOL    HW199856   2.567   7.862   5.935
99339SOL    HW299857   2.715   7.833   5.939
99340SOL     OW99858   9.164   2.416  12.871
99340SOL    HW199859   9.148   2.447  12.782
99340SOL    HW299860   9.164   2.320  12.864
99341SOL     OW99861   1.925   3.959  10.473
99341SOL    HW199862   2.007   3.996  10.442
99341SOL    HW299863   1.896   4.019  10.542
99342SOL     OW99864   1.658  10.112   8.010
99342SOL    HW199865   1.600  10.131   7.937
99342SOL    HW299866   1.704  10.194   8.026
99343SOL     OW99867  14.261   4.834   5.683
99343SOL    HW199868  14.169   4.852   5.703
99343SOL    HW299869  14.290   4.773   5.751
99344SOL     OW99870   1.545   9.965   9.385
99344SOL    HW199871   1.610   9.901   9.356
99344SOL    HW299872   1.496   9.988   9.305
99345SOL     OW99873   7.312   4.174  10.699
99345SOL    HW199874   7.381   4.181  10.765
99345SOL    HW299875   7.357   4.142  10.621
99346SOL     OW99876  10.265  12.142   0.343
99346SOL    HW199877  10.309  12.226   0.353
99346SOL    HW299878  10.305  12.102   0.266
99347SOL     OW99879  10.848   8.378   9.067
99347SOL    HW199880  10.789   8.314   9.028
99347SOL    HW299881  10.894   8.417   8.993
99348SOL     OW99882   5.027   9.292  13.428
99348SOL    HW199883   4.996   9.307  13.338
99348SOL    HW299884   4.970   9.222  13.461
99349SOL     OW99885   2.445   1.785   7.627
99349SOL    HW199886   2.350   1.787   7.638
99349SOL    HW299887   2.463   1.850   7.559
99350SOL     OW99888  10.025   3.569   0.696
99350SOL    HW199889   9.956   3.556   0.760
99350SOL    HW299890  10.020   3.662   0.674
99351SOL     OW99891   2.209   8.998  13.135
99351SOL    HW199892   2.138   8.974  13.075
99351SOL    HW299893   2.279   8.937  13.114
99352SOL     OW99894   4.812   9.353   9.772
99352SOL    HW199895   4.851   9.415   9.711
99352SOL    HW299896   4.785   9.406   9.847
99353SOL     OW99897   1.200   2.095  10.361
99353SOL    HW199898   1.193   2.091  10.456
99353SOL    HW299899   1.132   2.157  10.334
99354SOL     OW99900  11.194   1.483  11.509
99354SOL    HW199901  11.222   1.391  11.513
99354SOL    HW299902  11.166   1.503  11.598
99355SOL     OW99903   0.614   7.298   3.999
99355SOL    HW199904   0.531   7.316   4.043
99355SOL    HW299905   0.627   7.372   3.939
99356SOL     OW99906   4.336  14.685   9.827
99356SOL    HW199907   4.428  14.709   9.842
99356SOL    HW299908   4.334  14.590   9.835
99357SOL     OW99909   5.744  12.419   4.609
99357SOL    HW199910   5.801  12.384   4.678
99357SOL    HW299911   5.802  12.431   4.534
99358SOL     OW99912   9.964   1.054  11.886
99358SOL    HW199913   9.964   0.967  11.846
99358SOL    HW299914   9.892   1.051  11.949
99359SOL     OW99915   1.609   8.291   4.398
99359SOL    HW199916   1.660   8.329   4.469
99359SOL    HW299917   1.671   8.283   4.325
99360SOL     OW99918   4.204   0.072   1.856
99360SOL    HW199919   4.288   0.057   1.813
99360SOL    HW299920   4.182  14.861   1.896
99361SOL     OW99921   5.989  11.636  12.549
99361SOL    HW199922   5.978  11.649  12.643
99361SOL    HW299923   5.902  11.651  12.513
99362SOL     OW99924   8.691  13.567   1.273
99362SOL    HW199925   8.691  13.662   1.265
99362SOL    HW299926   8.716  13.551   1.364
99363SOL     OW99927  11.332  14.144   9.843
99363SOL    HW199928  11.383  14.124   9.765
99363SOL    HW299929  11.357  14.233   9.866
99364SOL     OW99930   8.991  14.770  14.658
99364SOL    HW199931   9.031  14.688  14.629
99364SOL    HW299932   8.897  14.753  14.655
99365SOL     OW99933   2.624   2.805   4.459
99365SOL    HW199934   2.665   2.722   4.482
99365SOL    HW299935   2.538   2.780   4.423
99366SOL     OW99936  14.803   9.060   0.784
99366SOL    HW199937  14.861   9.037   0.711
99366SOL    HW299938  14.810   8.986   0.844
99367SOL     OW99939   2.870   8.395   5.154
99367SOL    HW199940   2.891   8.428   5.242
99367SOL    HW299941   2.834   8.308   5.169
99368SOL     OW99942  13.035   7.564  13.400
99368SOL    HW199943  13.041   7.609  13.315
99368SOL    HW299944  12.945   7.580  13.429
99369SOL     OW99945   8.437   1.655   2.255
99369SOL    HW199946   8.399   1.737   2.225
99369SOL    HW299947   8.364   1.593   2.255
99370SOL     OW99948   5.935   6.371   3.971
99370SOL    HW199949   6.031   6.371   3.972
99370SOL    HW299950   5.911   6.457   4.005
99371SOL     OW99951   0.999   1.536   6.430
99371SOL    HW199952   1.032   1.528   6.340
99371SOL    HW299953   1.032   1.458   6.475
99372SOL     OW99954   9.628   4.374  11.197
99372SOL    HW199955   9.603   4.460  11.232
99372SOL    HW299956   9.671   4.330  11.271
99373SOL     OW99957   4.357   4.279   9.975
99373SOL    HW199958   4.401   4.347   9.924
99373SOL    HW299959   4.427   4.239  10.027
99374SOL     OW99960  13.470  13.469  10.327
99374SOL    HW199961  13.554  13.507  10.302
99374SOL    HW299962  13.418  13.544  10.357
99375SOL     OW99963   6.499  10.796   0.430
99375SOL    HW199964   6.581  10.799   0.479
99375SOL    HW299965   6.463  10.884   0.440
99376SOL     OW99966   7.637  13.202   2.915
99376SOL    HW199967   7.705  13.140   2.890
99376SOL    HW299968   7.679  13.261   2.978
99377SOL     OW99969   9.415   9.111   5.362
99377SOL    HW199970   9.337   9.065   5.393
99377SOL    HW299971   9.488   9.063   5.401
99378SOL     OW99972  11.556   8.744   1.009
99378SOL    HW199973  11.625   8.798   0.971
99378SOL    HW299974  11.602   8.677   1.060
99379SOL     OW99975   8.031   8.340   6.286
99379SOL    HW199976   8.109   8.379   6.325
99379SOL    HW299977   7.961   8.401   6.307
99380SOL     OW99978  12.347   6.806   9.830
99380SOL    HW199979  12.280   6.775   9.891
99380SOL    HW299980  12.427   6.807   9.882
99381SOL     OW99981   1.000  14.697   9.664
99381SOL    HW199982   0.965  14.608   9.671
99381SOL    HW299983   0.987  14.721   9.573
99382SOL     OW99984  11.150   9.748   7.733
99382SOL    HW199985  11.214   9.677   7.743
99382SOL    HW299986  11.097   9.722   7.657
99383SOL     OW99987  13.070  13.981   4.598
99383SOL    HW199988  13.016  13.926   4.655
99383SOL    HW299989  13.020  13.988   4.517
99384SOL     OW99990   7.614  10.786  12.247
99384SOL    HW199991   7.684  10.812  12.307
99384SOL    HW299992   7.565  10.719  12.296
99385SOL     OW99993   1.814   1.473   8.599
99385SOL    HW199994   1.896   1.423   8.594
99385SOL    HW299995   1.829   1.535   8.671
99386SOL     OW99996  12.763   8.852   5.117
99386SOL    HW199997  12.699   8.918   5.091
99386SOL    HW299998  12.712   8.784   5.160
99387SOL     OW99999   1.123   5.892   7.066
99387SOL    HW1    0   1.196   5.901   7.006
99387SOL    HW2    1   1.052   5.943   7.025
99388SOL     OW    2  13.267   2.332   9.436
99388SOL    HW1    3  13.176   2.307   9.415
99388SOL    HW2    4  13.260   2.422   9.467
99389SOL     OW    5   8.447   6.594  12.122
99389SOL    HW1    6   8.359   6.564  12.104
99389SOL    HW2    7   8.491   6.592  12.037
99390SOL     OW    8   9.354   2.149   4.273
99390SOL    HW1    9   9.391   2.157   4.361
99390SOL    HW2   10   9.422   2.103   4.223
99391SOL     OW   11   2.206  11.202   4.970
99391SOL    HW1   12   2.140  11.199   4.901
99391SOL    HW2   13   2.182  11.277   5.024
99392SOL     OW   14   0.918   5.207   7.422
99392SOL    HW1   15   0.937   5.263   7.498
99392SOL    HW2   16   0.911   5.119   7.458
99393SOL     OW   17   0.551   7.513   0.933
99393SOL    HW1   18   0.489   7.453   0.975
99393SOL    HW2   19   0.498   7.589   0.910
99394SOL     OW   20   8.539   4.249   8.317
99394SOL    HW1   21   8.574   4.182   8.376
99394SOL    HW2   22   8.614   4.278   8.266
99395SOL     OW   23   2.884  10.892   0.680
99395SOL    HW1   24   2.836  10.969   0.649
99395SOL    HW2   25   2.851  10.877   0.769
99396SOL     OW   26  14.031   4.187   8.355
99396SOL    HW1   27  14.047   4.261   8.295
99396SOL    HW2   28  13.957   4.214   8.408
99397SOL     OW   29   9.898   1.341   2.670
99397SOL    HW1   30   9.964   1.408   2.655
99397SOL    HW2   31   9.915   1.309   2.758
99398SOL     OW   32   3.781   8.489  12.718
99398SOL    HW1   33   3.737   8.542  12.784
99398SOL    HW2   34   3.768   8.399  12.749
99399SOL     OW   35   6.070  13.357   3.404
99399SOL    HW1   36   6.157  13.394   3.393
99399SOL    HW2   37   6.010  13.431   3.395
99400SOL     OW   38  10.000  14.065   0.383
99400SOL    HW1   39   9.955  14.149   0.391
99400SOL    HW2   40  10.087  14.080   0.419
99401SOL     OW   41   7.064   9.600   5.939
99401SOL    HW1   42   7.133   9.646   5.987
99401SOL    HW2   43   7.050   9.519   5.988
99402SOL     OW   44   0.177  11.037   9.813
99402SOL    HW1   45   0.108  10.970   9.814
99402SOL    HW2   46   0.255  10.991   9.783
99403SOL     OW   47  13.969   0.244   0.614
99403SOL    HW1   48  13.924   0.159   0.614
99403SOL    HW2   49  13.924   0.294   0.547
99404SOL     OW   50   9.934   6.632   9.695
99404SOL    HW1   51   9.971   6.701   9.751
99404SOL    HW2   52   9.849   6.613   9.734
99405SOL     OW   53  13.713   5.344   7.703
99405SOL    HW1   54  13.681   5.256   7.680
99405SOL    HW2   55  13.675   5.401   7.637
99406SOL     OW   56   1.570  11.462  13.600
99406SOL    HW1   57   1.619  11.495  13.676
99406SOL    HW2   58   1.604  11.374  13.585
99407SOL     OW   59   1.767   1.276  10.030
99407SOL    HW1   60   1.785   1.258   9.938
99407SOL    HW2   61   1.853   1.277  10.071
99408SOL     OW   62   4.585   2.249  14.772
99408SOL    HW1   63   4.558   2.277  14.860
99408SOL    HW2   64   4.676   2.222  14.784
99409SOL     OW   65   4.380  10.215   7.871
99409SOL    HW1   66   4.300  10.209   7.819
99409SOL    HW2   67   4.446  10.248   7.810
99410SOL     OW   68   0.126   0.115   2.751
99410SOL    HW1   69   0.205   0.062   2.760
99410SOL    HW2   70   0.054   0.052   2.759
99411SOL     OW   71  13.588   3.651  12.821
99411SOL    HW1   72  13.516   3.686  12.873
99411SOL    HW2   73  13.595   3.560  12.849
99412SOL     OW   74   2.935   7.064   5.628
99412SOL    HW1   75   2.965   7.050   5.718
99412SOL    HW2   76   2.968   7.151   5.605
99413SOL     OW   77  13.707   4.766  12.892
99413SOL    HW1   78  13.647   4.775  12.819
99413SOL    HW2   79  13.742   4.678  12.884
99414SOL     OW   80  10.322  13.282  11.412
99414SOL    HW1   81  10.335  13.240  11.327
99414SOL    HW2   82  10.240  13.332  11.402
99415SOL     OW   83   3.341   2.849   7.283
99415SOL    HW1   84   3.394   2.784   7.329
99415SOL    HW2   85   3.404   2.916   7.257
99416SOL     OW   86   3.403   3.278   3.400
99416SOL    HW1   87   3.419   3.210   3.466
99416SOL    HW2   88   3.456   3.252   3.325
99417SOL     OW   89   3.930   7.161   4.549
99417SOL    HW1   90   3.864   7.153   4.480
99417SOL    HW2   91   3.997   7.096   4.526
99418SOL     OW   92   5.712  10.641   6.064
99418SOL    HW1   93   5.680  10.731   6.075
99418SOL    HW2   94   5.643  10.587   6.103
99419SOL     OW   95  12.633   8.761   4.732
99419SOL    HW1   96  12.711   8.715   4.763
99419SOL    HW2   97  12.560   8.703   4.754
99420SOL     OW   98   6.883   6.361   6.708
99420SOL    HW1   99   6.862   6.427   6.642
99420SOL    HW2  100   6.797   6.329   6.738
99421SOL     OW  101  12.569   7.887   1.384
99421SOL    HW1  102  12.549   7.951   1.451
99421SOL    HW2  103  12.539   7.927   1.302
99422SOL     OW  104   3.926   4.586  10.243
99422SOL    HW1  105   3.843   4.594  10.290
99422SOL    HW2  106   3.986   4.643  10.291
99423SOL     OW  107  11.923  11.959   9.213
99423SOL    HW1  108  11.917  12.046   9.173
99423SOL    HW2  109  11.992  11.915   9.165
99424SOL     OW  110   3.442   3.211   4.740
99424SOL    HW1  111   3.389   3.259   4.676
99424SOL    HW2  112   3.495   3.278   4.783
99425SOL     OW  113   8.450  10.104   1.865
99425SOL    HW1  114   8.498  10.034   1.908
99425SOL    HW2  115   8.362  10.099   1.903
99426SOL     OW  116   8.225   7.020  13.187
99426SOL    HW1  117   8.257   6.946  13.136
99426SOL    HW2  118   8.166   6.981  13.252
99427SOL     OW  119   0.296  10.069   4.583
99427SOL    HW1  120   0.212  10.085   4.539
99427SOL    HW2  121   0.276  10.001   4.648
99428SOL     OW  122   8.513  14.121  14.549
99428SOL    HW1  123   8.540  14.030  14.564
99428SOL    HW2  124   8.592  14.165  14.519
99429SOL     OW  125  12.501   2.253   5.808
99429SOL    HW1  126  12.574   2.193   5.823
99429SOL    HW2  127  12.536   2.318   5.748
99430SOL     OW  128   2.960   5.585   6.712
99430SOL    HW1  129   3.009   5.638   6.775
99430SOL    HW2  130   2.875   5.571   6.754
99431SOL     OW  131   3.919   9.442  14.545
99431SOL    HW1  132   3.913   9.472  14.454
99431SOL    HW2  133   4.010   9.458  14.570
99432SOL     OW  134  10.624  11.483  11.001
99432SOL    HW1  135  10.556  11.549  11.013
99432SOL    HW2  136  10.643  11.452  11.090
99433SOL     OW  137   5.073  12.865   1.700
99433SOL    HW1  138   5.057  12.839   1.791
99433SOL    HW2  139   5.024  12.801   1.648
99434SOL     OW  140   3.706   6.550   1.621
99434SOL    HW1  141   3.789   6.569   1.578
99434SOL    HW2  142   3.689   6.458   1.600
99435SOL     OW  143  11.885   9.946   9.877
99435SOL    HW1  144  11.793   9.967   9.887
99435SOL    HW2  145  11.888   9.851   9.872
99436SOL     OW  146   7.482   5.189   1.212
99436SOL    HW1  147   7.415   5.234   1.161
99436SOL    HW2  148   7.494   5.245   1.289
99437SOL     OW  149  13.028  10.496   8.107
99437SOL    HW1  150  13.101  10.435   8.096
99437SOL    HW2  151  12.960  10.445   8.151
99438SOL     OW  152   3.620  13.451   4.016
99438SOL    HW1  153   3.640  13.463   4.109
99438SOL    HW2  154   3.640  13.359   3.999
99439SOL     OW  155   4.132   7.556   5.544
99439SOL    HW1  156   4.081   7.635   5.530
99439SOL    HW2  157   4.090   7.513   5.618
99440SOL     OW  158   7.047   6.156  13.578
99440SOL    HW1  159   7.024   6.247  13.559
99440SOL    HW2  160   7.062   6.116  13.492
99441SOL     OW  161  11.939  10.704   7.291
99441SOL    HW1  162  11.992  10.637   7.249
99441SOL    HW2  163  11.970  10.706   7.382
99442SOL     OW  164   5.648  14.742  10.469
99442SOL    HW1  165   5.589  14.716  10.398
99442SOL    HW2  166   5.663  14.835  10.455
99443SOL     OW  167   4.398   0.426   6.928
99443SOL    HW1  168   4.443   0.370   6.866
99443SOL    HW2  169   4.460   0.496   6.947
99444SOL     OW  170  14.613   1.715   5.965
99444SOL    HW1  171  14.536   1.670   6.001
99444SOL    HW2  172  14.634   1.667   5.885
99445SOL     OW  173   4.355   0.195  10.548
99445SOL    HW1  174   4.270   0.191  10.503
99445SOL    HW2  175   4.352   0.278  10.596
99446SOL     OW  176  14.655  10.867  13.805
99446SOL    HW1  177  14.591  10.938  13.810
99446SOL    HW2  178  14.615  10.803  13.746
99447SOL     OW  179   7.183   4.094   8.196
99447SOL    HW1  180   7.196   4.188   8.207
99447SOL    HW2  181   7.266   4.061   8.161
99448SOL     OW  182  10.005   6.170  11.637
99448SOL    HW1  183  10.058   6.250  11.631
99448SOL    HW2  184   9.927   6.196  11.685
99449SOL     OW  185  10.866   0.832   0.955
99449SOL    HW1  186  10.788   0.805   0.907
99449SOL    HW2  187  10.929   0.857   0.887
99450SOL     OW  188   4.225  13.494   8.509
99450SOL    HW1  189   4.147  13.483   8.564
99450SOL    HW2  190   4.282  13.421   8.533
99451SOL     OW  191   9.457   7.984  11.785
99451SOL    HW1  192   9.397   8.010  11.714
99451SOL    HW2  193   9.424   8.029  11.862
99452SOL     OW  194   6.206  13.602  12.622
99452SOL    HW1  195   6.180  13.671  12.683
99452SOL    HW2  196   6.234  13.530  12.679
99453SOL     OW  197   5.238  12.601   2.272
99453SOL    HW1  198   5.220  12.635   2.185
99453SOL    HW2  199   5.261  12.509   2.259
99454SOL     OW  200  14.386   8.623  10.787
99454SOL    HW1  201  14.454   8.568  10.826
99454SOL    HW2  202  14.326   8.562  10.744
99455SOL     OW  203  12.882   6.850   7.916
99455SOL    HW1  204  12.939   6.916   7.956
99455SOL    HW2  205  12.875   6.877   7.824
99456SOL     OW  206   8.933   2.485  12.389
99456SOL    HW1  207   8.914   2.496  12.483
99456SOL    HW2  208   8.904   2.395  12.369
99457SOL     OW  209   0.023  13.654   3.679
99457SOL    HW1  210   0.000  13.710   3.605
99457SOL    HW2  211  14.845  13.575   3.666
99458SOL     OW  212   7.429  10.097  11.494
99458SOL    HW1  213   7.381  10.046  11.560
99458SOL    HW2  214   7.512  10.120  11.537
99459SOL     OW  215  13.534   7.027   9.674
99459SOL    HW1  216  13.470   6.956   9.664
99459SOL    HW2  217  13.613   6.985   9.706
99460SOL     OW  218   3.940  13.198  14.024
99460SOL    HW1  219   3.912  13.112  14.055
99460SOL    HW2  220   3.964  13.246  14.103
99461SOL     OW  221  10.758   1.443   2.631
99461SOL    HW1  222  10.678   1.394   2.650
99461SOL    HW2  223  10.821   1.412   2.695
99462SOL     OW  224   3.565  13.603   8.595
99462SOL    HW1  225   3.516  13.580   8.674
99462SOL    HW2  226   3.633  13.664   8.625
99463SOL     OW  227   4.810   7.415   2.151
99463SOL    HW1  228   4.755   7.391   2.226
99463SOL    HW2  229   4.833   7.332   2.110
99464SOL     OW  230   5.055  11.656  12.869
99464SOL    HW1  231   4.962  11.677  12.870
99464SOL    HW2  232   5.088  11.698  12.789
99465SOL     OW  233   7.001  11.549   5.234
99465SOL    HW1  234   7.007  11.633   5.280
99465SOL    HW2  235   7.038  11.485   5.295
99466SOL     OW  236   7.830   1.182   5.852
99466SOL    HW1  237   7.818   1.107   5.795
99466SOL    HW2  238   7.764   1.245   5.824
99467SOL     OW  239   7.505  11.769   0.140
99467SOL    HW1  240   7.533  11.683   0.172
99467SOL    HW2  241   7.428  11.750   0.087
99468SOL     OW  242   3.729  10.095   4.785
99468SOL    HW1  243   3.772  10.013   4.809
99468SOL    HW2  244   3.642  10.089   4.826
99469SOL     OW  245  11.828  14.174   0.773
99469SOL    HW1  246  11.841  14.194   0.680
99469SOL    HW2  247  11.829  14.078   0.777
99470SOL     OW  248  13.054   0.361   6.398
99470SOL    HW1  249  13.059   0.387   6.306
99470SOL    HW2  250  12.963   0.378   6.422
99471SOL     OW  251   5.148   7.936   4.749
99471SOL    HW1  252   5.068   7.887   4.728
99471SOL    HW2  253   5.219   7.883   4.714
99472SOL     OW  254  12.317   3.682   2.907
99472SOL    HW1  255  12.224   3.703   2.921
99472SOL    HW2  256  12.349   3.656   2.993
99473SOL     OW  257   0.250   0.489  10.379
99473SOL    HW1  258   0.240   0.536  10.296
99473SOL    HW2  259   0.328   0.434  10.366
99474SOL     OW  260   9.902   8.555   0.990
99474SOL    HW1  261   9.887   8.649   0.988
99474SOL    HW2  262   9.830   8.518   0.939
99475SOL     OW  263  14.736  10.241   7.115
99475SOL    HW1  264  14.770  10.198   7.036
99475SOL    HW2  265  14.814  10.253   7.170
99476SOL     OW  266  11.052   5.615   3.114
99476SOL    HW1  267  11.039   5.699   3.069
99476SOL    HW2  268  11.092   5.558   3.048
99477SOL     OW  269  12.466  10.032   6.305
99477SOL    HW1  270  12.440   9.965   6.367
99477SOL    HW2  271  12.443  10.115   6.348
99478SOL     OW  272  10.226   7.860   3.732
99478SOL    HW1  273  10.309   7.813   3.726
99478SOL    HW2  274  10.243   7.930   3.795
99479SOL     OW  275   5.137  13.955  12.149
99479SOL    HW1  276   5.092  14.039  12.158
99479SOL    HW2  277   5.075  13.900  12.101
99480SOL     OW  278   0.942  12.754  11.138
99480SOL    HW1  279   0.903  12.817  11.199
99480SOL    HW2  280   0.907  12.669  11.165
99481SOL     OW  281   9.617   2.778   5.613
99481SOL    HW1  282   9.539   2.744   5.656
99481SOL    HW2  283   9.584   2.825   5.537
99482SOL     OW  284   6.542   3.786  13.320
99482SOL    HW1  285   6.518   3.872  13.356
99482SOL    HW2  286   6.624   3.802  13.273
99483SOL     OW  287   5.806  11.593  11.731
99483SOL    HW1  288   5.774  11.674  11.771
99483SOL    HW2  289   5.823  11.616  11.640
99484SOL     OW  290   3.505   7.972  10.016
99484SOL    HW1  291   3.499   7.932  10.103
99484SOL    HW2  292   3.442   7.924   9.963
99485SOL     OW  293   9.427  14.578  10.903
99485SOL    HW1  294   9.419  14.673  10.887
99485SOL    HW2  295   9.503  14.552  10.852
99486SOL     OW  296   4.850   0.684   2.878
99486SOL    HW1  297   4.851   0.598   2.836
99486SOL    HW2  298   4.787   0.675   2.949
99487SOL     OW  299   9.801  13.462  13.038
99487SOL    HW1  300   9.834  13.500  13.120
99487SOL    HW2  301   9.832  13.522  12.970
99488SOL     OW  302   7.823   4.577   0.443
99488SOL    HW1  303   7.785   4.612   0.363
99488SOL    HW2  304   7.776   4.622   0.514
99489SOL     OW  305  14.739   2.045   9.200
99489SOL    HW1  306  14.680   1.978   9.167
99489SOL    HW2  307  14.773   2.009   9.282
99490SOL     OW  308   1.363  13.352   9.293
99490SOL    HW1  309   1.417  13.422   9.256
99490SOL    HW2  310   1.315  13.317   9.218
99491SOL     OW  311  10.291   1.831   1.508
99491SOL    HW1  312  10.340   1.798   1.433
99491SOL    HW2  313  10.358   1.850   1.574
99492SOL     OW  314   7.394   5.272   8.741
99492SOL    HW1  315   7.446   5.213   8.686
99492SOL    HW2  316   7.392   5.230   8.827
99493SOL     OW  317   0.004   4.952   2.935
99493SOL    HW1  318  14.827   4.871   2.945
99493SOL    HW2  319   0.074   4.929   2.874
99494SOL     OW  320   8.058   0.658   9.763
99494SOL    HW1  321   8.038   0.592   9.829
99494SOL    HW2  322   8.152   0.673   9.772
99495SOL     OW  323   6.884   2.532   5.182
99495SOL    HW1  324   6.921   2.445   5.171
99495SOL    HW2  325   6.955   2.592   5.159
99496SOL     OW  326  14.605  10.716  12.635
99496SOL    HW1  327  14.519  10.690  12.602
99496SOL    HW2  328  14.640  10.774  12.568
99497SOL     OW  329   5.190   4.376   8.481
99497SOL    HW1  330   5.119   4.337   8.532
99497SOL    HW2  331   5.150   4.394   8.395
99498SOL     OW  332  14.206   4.492   6.846
99498SOL    HW1  333  14.299   4.495   6.868
99498SOL    HW2  334  14.184   4.399   6.848
99499SOL     OW  335  10.522  12.764   9.623
99499SOL    HW1  336  10.449  12.722   9.668
99499SOL    HW2  337  10.493  12.772   9.532
99500SOL     OW  338   4.425   6.209  10.861
99500SOL    HW1  339   4.427   6.303  10.842
99500SOL    HW2  340   4.368   6.202  10.938
99501SOL     OW  341   1.548   2.424   0.609
99501SOL    HW1  342   1.623   2.407   0.667
99501SOL    HW2  343   1.581   2.485   0.543
99502SOL     OW  344   3.989   8.427   5.584
99502SOL    HW1  345   3.895   8.427   5.601
99502SOL    HW2  346   4.001   8.492   5.515
99503SOL     OW  347   3.341   5.694  10.487
99503SOL    HW1  348   3.291   5.625  10.531
99503SOL    HW2  349   3.398   5.730  10.555
99504SOL     OW  350   0.110   9.217  13.760
99504SOL    HW1  351   0.098   9.306  13.794
99504SOL    HW2  352   0.203   9.198  13.776
99505SOL     OW  353   8.505   8.399   8.051
99505SOL    HW1  354   8.537   8.365   8.135
99505SOL    HW2  355   8.548   8.484   8.043
99506SOL     OW  356  12.086   1.878  10.572
99506SOL    HW1  357  12.102   1.821  10.648
99506SOL    HW2  358  12.019   1.940  10.603
99507SOL     OW  359  13.893   7.773   4.010
99507SOL    HW1  360  13.819   7.824   3.978
99507SOL    HW2  361  13.966   7.798   3.953
99508SOL     OW  362   5.124  13.839   8.188
99508SOL    HW1  363   5.125  13.802   8.277
99508SOL    HW2  364   5.216  13.846   8.164
99509SOL     OW  365  12.131   7.338   1.029
99509SOL    HW1  366  12.054   7.381   0.992
99509SOL    HW2  367  12.147   7.264   0.971
99510SOL     OW  368  14.551   8.049   7.209
99510SOL    HW1  369  14.511   8.133   7.231
99510SOL    HW2  370  14.597   8.065   7.127
99511SOL     OW  371  13.028   6.699  11.103
99511SOL    HW1  372  12.985   6.712  11.188
99511SOL    HW2  373  12.957   6.680  11.043
99512SOL     OW  374   4.598   2.164  12.226
99512SOL    HW1  375   4.622   2.255  12.213
99512SOL    HW2  376   4.605   2.150  12.320
99513SOL     OW  377   6.177  10.293   7.866
99513SOL    HW1  378   6.220  10.312   7.950
99513SOL    HW2  379   6.240  10.323   7.800
99514SOL     OW  380   3.955   6.638   1.553
99514SOL    HW1  381   4.008   6.673   1.625
99514SOL    HW2  382   3.971   6.698   1.480
99515SOL     OW  383   0.736  12.036   9.321
99515SOL    HW1  384   0.657  12.090   9.329
99515SOL    HW2  385   0.769  12.030   9.411
99516SOL     OW  386  12.809   9.261   1.250
99516SOL    HW1  387  12.791   9.250   1.343
99516SOL    HW2  388  12.739   9.319   1.219
99517SOL     OW  389  14.340   3.180   1.505
99517SOL    HW1  390  14.294   3.113   1.554
99517SOL    HW2  391  14.313   3.263   1.546
99518SOL     OW  392   4.519   1.848  12.636
99518SOL    HW1  393   4.516   1.893  12.720
99518SOL    HW2  394   4.439   1.875  12.591
99519SOL     OW  395  13.637   0.966   6.423
99519SOL    HW1  396  13.689   0.989   6.346
99519SOL    HW2  397  13.701   0.961   6.494
99520SOL     OW  398   1.488   1.873   0.219
99520SOL    HW1  399   1.414   1.840   0.270
99520SOL    HW2  400   1.484   1.968   0.231
99521SOL     OW  401   8.939   3.922   4.584
99521SOL    HW1  402   8.949   3.955   4.495
99521SOL    HW2  403   8.924   4.001   4.637
99522SOL     OW  404  10.552  12.776  13.654
99522SOL    HW1  405  10.628  12.831  13.675
99522SOL    HW2  406  10.498  12.830  13.597
99523SOL     OW  407   4.324   0.713  11.022
99523SOL    HW1  408   4.346   0.627  11.058
99523SOL    HW2  409   4.325   0.700  10.927
99524SOL     OW  410  13.444   4.018   0.274
99524SOL    HW1  411  13.435   4.053   0.185
99524SOL    HW2  412  13.461   3.925   0.262
99525SOL     OW  413  14.796  12.699  11.107
99525SOL    HW1  414   0.015  12.705  11.081
99525SOL    HW2  415  14.796  12.721  11.200
99526SOL     OW  416   2.510  11.339   8.587
99526SOL    HW1  417   2.474  11.315   8.672
99526SOL    HW2  418   2.500  11.260   8.533
99527SOL     OW  419   4.013  13.727  13.036
99527SOL    HW1  420   4.094  13.776  13.045
99527SOL    HW2  421   3.963  13.774  12.969
99528SOL     OW  422  14.326   3.573  12.067
99528SOL    HW1  423  14.244   3.595  12.023
99528SOL    HW2  424  14.308   3.490  12.111
99529SOL     OW  425   4.226   9.765   1.009
99529SOL    HW1  426   4.220   9.671   0.991
99529SOL    HW2  427   4.253   9.769   1.101
99530SOL     OW  428   4.034  12.171   1.411
99530SOL    HW1  429   4.120  12.190   1.373
99530SOL    HW2  430   4.027  12.230   1.486
99531SOL     OW  431  10.895   5.787  11.185
99531SOL    HW1  432  10.849   5.714  11.227
99531SOL    HW2  433  10.939   5.832  11.256
99532SOL     OW  434  10.786  12.752   0.433
99532SOL    HW1  435  10.856  12.788   0.488
99532SOL    HW2  436  10.706  12.765   0.484
99533SOL     OW  437  12.591   1.165   7.044
99533SOL    HW1  438  12.547   1.195   7.124
99533SOL    HW2  439  12.570   1.231   6.978
99534SOL     OW  440   3.793   5.051   2.210
99534SOL    HW1  441   3.801   5.146   2.198
99534SOL    HW2  442   3.742   5.022   2.134
99535SOL     OW  443   7.872   3.537   0.412
99535SOL    HW1  444   7.961   3.545   0.447
99535SOL    HW2  445   7.825   3.612   0.447
99536SOL     OW  446  12.558   3.047   7.664
99536SOL    HW1  447  12.601   2.968   7.698
99536SOL    HW2  448  12.475   3.015   7.629
99537SOL     OW  449   8.762  11.476   5.431
99537SOL    HW1  450   8.805  11.524   5.360
99537SOL    HW2  451   8.834  11.437   5.481
99538SOL     OW  452  10.639   8.898   7.952
99538SOL    HW1  453  10.713   8.898   8.013
99538SOL    HW2  454  10.679   8.895   7.865
99539SOL     OW  455   5.435   2.102   8.560
99539SOL    HW1  456   5.499   2.081   8.628
99539SOL    HW2  457   5.378   2.167   8.600
99540SOL     OW  458   0.057  12.987  14.157
99540SOL    HW1  459   0.091  12.915  14.211
99540SOL    HW2  460   0.089  13.066  14.200
99541SOL     OW  461  13.418   6.671  11.277
99541SOL    HW1  462  13.351   6.607  11.253
99541SOL    HW2  463  13.397   6.749  11.225
99542SOL     OW  464   4.473   8.995   3.493
99542SOL    HW1  465   4.456   9.033   3.579
99542SOL    HW2  466   4.387   8.992   3.451
99543SOL     OW  467   0.519  13.553   6.345
99543SOL    HW1  468   0.571  13.500   6.405
99543SOL    HW2  469   0.562  13.542   6.260
99544SOL     OW  470   6.462   8.201   6.107
99544SOL    HW1  471   6.483   8.284   6.062
99544SOL    HW2  472   6.368   8.206   6.124
99545SOL     OW  473  14.698  12.470  11.012
99545SOL    HW1  474  14.630  12.499  10.952
99545SOL    HW2  475  14.733  12.551  11.050
99546SOL     OW  476   8.111   7.073  13.744
99546SOL    HW1  477   8.020   7.084  13.715
99546SOL    HW2  478   8.149   7.012  13.680
99547SOL     OW  479   4.540  13.039   3.142
99547SOL    HW1  480   4.602  12.972   3.113
99547SOL    HW2  481   4.462  13.023   3.090
99548SOL     OW  482   2.311   8.068   7.862
99548SOL    HW1  483   2.384   8.114   7.821
99548SOL    HW2  484   2.352   8.006   7.922
99549SOL     OW  485  10.151   2.229  10.206
99549SOL    HW1  486  10.076   2.252  10.261
99549SOL    HW2  487  10.209   2.306  10.210
99550SOL     OW  488   5.323   6.944   3.200
99550SOL    HW1  489   5.328   6.860   3.154
99550SOL    HW2  490   5.248   6.935   3.259
99551SOL     OW  491   7.240   6.635   4.368
99551SOL    HW1  492   7.161   6.633   4.421
99551SOL    HW2  493   7.218   6.693   4.295
99552SOL     OW  494   9.263   3.085   7.011
99552SOL    HW1  495   9.270   3.172   6.972
99552SOL    HW2  496   9.171   3.076   7.035
99553SOL     OW  497   8.891  12.945   5.963
99553SOL    HW1  498   8.967  12.945   5.904
99553SOL    HW2  499   8.890  12.856   5.999
99554SOL     OW  500   9.325  11.245   3.572
99554SOL    HW1  501   9.241  11.215   3.536
99554SOL    HW2  502   9.327  11.211   3.661
99555SOL     OW  503   4.033   2.807  13.556
99555SOL    HW1  504   4.049   2.896  13.586
99555SOL    HW2  505   4.117   2.778  13.521
99556SOL     OW  506   3.921  12.587   5.060
99556SOL    HW1  507   3.984  12.517   5.042
99556SOL    HW2  508   3.850  12.572   4.997
99557SOL     OW  509  11.192   0.289  14.766
99557SOL    HW1  510  11.253   0.340  14.819
99557SOL    HW2  511  11.179   0.208  14.815
99558SOL     OW  512   9.031  14.431  13.207
99558SOL    HW1  513   9.024  14.508  13.150
99558SOL    HW2  514   9.101  14.454  13.269
99559SOL     OW  515  11.512   5.401   5.056
99559SOL    HW1  516  11.431   5.390   5.006
99559SOL    HW2  517  11.527   5.315   5.096
99560SOL     OW  518   9.296   7.234   6.945
99560SOL    HW1  519   9.320   7.259   7.034
99560SOL    HW2  520   9.200   7.233   6.945
99561SOL     OW  521   9.136  13.432  13.637
99561SOL    HW1  522   9.204  13.420  13.571
99561SOL    HW2  523   9.129  13.347  13.680
99562SOL     OW  524   9.089   5.572   5.535
99562SOL    HW1  525   9.024   5.636   5.504
99562SOL    HW2  526   9.160   5.625   5.570
99563SOL     OW  527   5.320   7.018   9.448
99563SOL    HW1  528   5.285   6.965   9.520
99563SOL    HW2  529   5.415   7.005   9.452
99564SOL     OW  530   2.375   8.618   0.157
99564SOL    HW1  531   2.353   8.625   0.064
99564SOL    HW2  532   2.356   8.527   0.178
99565SOL     OW  533   1.486   6.314   3.284
99565SOL    HW1  534   1.505   6.319   3.377
99565SOL    HW2  535   1.391   6.320   3.279
99566SOL     OW  536   6.111   3.813   7.015
99566SOL    HW1  537   6.139   3.846   6.930
99566SOL    HW2  538   6.019   3.837   7.021
99567SOL     OW  539  14.239  13.851  13.565
99567SOL    HW1  540  14.167  13.811  13.613
99567SOL    HW2  541  14.199  13.923  13.515
99568SOL     OW  542  14.031   7.606   1.811
99568SOL    HW1  543  14.114   7.640   1.779
99568SOL    HW2  544  14.054   7.547   1.882
99569SOL     OW  545   1.580   7.495   2.900
99569SOL    HW1  546   1.537   7.505   2.815
99569SOL    HW2  547   1.584   7.401   2.914
99570SOL     OW  548   9.052  10.406  10.509
99570SOL    HW1  549   9.061  10.314  10.533
99570SOL    HW2  550   9.033  10.404  10.415
99571SOL     OW  551  11.756   8.253  13.430
99571SOL    HW1  552  11.764   8.167  13.389
99571SOL    HW2  553  11.846   8.276  13.455
99572SOL     OW  554  10.329   0.595   0.623
99572SOL    HW1  555  10.272   0.599   0.699
99572SOL    HW2  556  10.376   0.511   0.633
99573SOL     OW  557   5.146   9.898  13.819
99573SOL    HW1  558   5.180   9.844  13.891
99573SOL    HW2  559   5.109   9.835  13.757
99574SOL     OW  560   4.266   5.334  13.193
99574SOL    HW1  561   4.248   5.241  13.201
99574SOL    HW2  562   4.351   5.347  13.234
99575SOL     OW  563   4.749   4.885   1.310
99575SOL    HW1  564   4.816   4.944   1.276
99575SOL    HW2  565   4.666   4.925   1.284
99576SOL     OW  566  12.657  11.901   3.886
99576SOL    HW1  567  12.636  11.987   3.923
99576SOL    HW2  568  12.575  11.872   3.845
99577SOL     OW  569   7.951  11.766   5.790
99577SOL    HW1  570   7.974  11.674   5.775
99577SOL    HW2  571   8.026  11.802   5.839
99578SOL     OW  572   1.683   3.306   5.964
99578SOL    HW1  573   1.771   3.297   5.928
99578SOL    HW2  574   1.636   3.229   5.931
99579SOL     OW  575  12.812   5.690  11.811
99579SOL    HW1  576  12.842   5.760  11.868
99579SOL    HW2  577  12.716   5.694  11.816
99580SOL     OW  578   4.810  11.930   2.942
99580SOL    HW1  579   4.774  11.842   2.949
99580SOL    HW2  580   4.749  11.976   2.885
99581SOL     OW  581  10.318   5.107   4.463
99581SOL    HW1  582  10.285   5.194   4.439
99581SOL    HW2  583  10.393   5.093   4.406
99582SOL     OW  584   8.772   1.829  13.965
99582SOL    HW1  585   8.842   1.767  13.985
99582SOL    HW2  586   8.817   1.907  13.934
99583SOL     OW  587  13.886  11.462   4.657
99583SOL    HW1  588  13.835  11.535   4.693
99583SOL    HW2  589  13.909  11.408   4.733
99584SOL     OW  590   2.680   4.501   7.347
99584SOL    HW1  591   2.632   4.561   7.404
99584SOL    HW2  592   2.638   4.510   7.262
99585SOL     OW  593  12.885  13.989   1.436
99585SOL    HW1  594  12.913  14.029   1.354
99585SOL    HW2  595  12.963  13.941   1.466
99586SOL     OW  596   7.548   8.978  12.453
99586SOL    HW1  597   7.536   9.042  12.523
99586SOL    HW2  598   7.576   8.898  12.499
99587SOL     OW  599   0.136   3.219   4.955
99587SOL    HW1  600   0.089   3.144   4.917
99587SOL    HW2  601   0.226   3.188   4.966
99588SOL     OW  602  13.986  13.847  14.542
99588SOL    HW1  603  14.038  13.898  14.604
99588SOL    HW2  604  13.978  13.904  14.466
99589SOL     OW  605   6.351  13.894   9.325
99589SOL    HW1  606   6.263  13.924   9.347
99589SOL    HW2  607   6.354  13.897   9.230
99590SOL     OW  608  13.410   4.129   7.603
99590SOL    HW1  609  13.404   4.034   7.592
99590SOL    HW2  610  13.473   4.141   7.674
99591SOL     OW  611  13.130   3.553  12.889
99591SOL    HW1  612  13.040   3.522  12.881
99591SOL    HW2  613  13.133   3.630  12.832
99592SOL     OW  614   4.594  13.616  11.909
99592SOL    HW1  615   4.508  13.601  11.948
99592SOL    HW2  616   4.619  13.531  11.871
99593SOL     OW  617   7.995   8.577   6.594
99593SOL    HW1  618   8.081   8.551   6.560
99593SOL    HW2  619   7.950   8.614   6.519
99594SOL     OW  620  14.177   0.261   8.317
99594SOL    HW1  621  14.170   0.178   8.365
99594SOL    HW2  622  14.106   0.258   8.253
99595SOL     OW  623  13.192   6.000  10.101
99595SOL    HW1  624  13.205   5.966  10.189
99595SOL    HW2  625  13.280   6.006  10.063
99596SOL     OW  626   5.893   0.934  14.392
99596SOL    HW1  627   5.819   0.945  14.334
99596SOL    HW2  628   5.945   1.014  14.382
99597SOL     OW  629   0.884  12.025   2.785
99597SOL    HW1  630   0.867  11.941   2.827
99597SOL    HW2  631   0.979  12.033   2.783
99598SOL     OW  632   1.067   3.633   0.891
99598SOL    HW1  633   1.048   3.665   0.803
99598SOL    HW2  634   1.136   3.692   0.923
99599SOL     OW  635   5.588   2.012   0.905
99599SOL    HW1  636   5.664   2.045   0.953
99599SOL    HW2  637   5.617   2.009   0.814
99600SOL     OW  638   8.213  13.463   2.769
99600SOL    HW1  639   8.147  13.479   2.703
99600SOL    HW2  640   8.253  13.380   2.744
99601SOL     OW  641   3.706   6.471   5.868
99601SOL    HW1  642   3.790   6.511   5.891
99601SOL    HW2  643   3.642   6.517   5.923
99602SOL     OW  644   8.560  11.538   7.692
99602SOL    HW1  645   8.505  11.538   7.770
99602SOL    HW2  646   8.528  11.612   7.640
99603SOL     OW  647   6.675   5.119   3.160
99603SOL    HW1  648   6.721   5.132   3.076
99603SOL    HW2  649   6.608   5.187   3.161
99604SOL     OW  650   8.899  11.554   0.480
99604SOL    HW1  651   8.838  11.610   0.432
99604SOL    HW2  652   8.844  11.493   0.529
99605SOL     OW  653   2.003   0.890   5.536
99605SOL    HW1  654   1.912   0.916   5.525
99605SOL    HW2  655   2.008   0.801   5.500
99606SOL     OW  656   0.412   4.563   5.178
99606SOL    HW1  657   0.469   4.494   5.144
99606SOL    HW2  658   0.349   4.579   5.107
99607SOL     OW  659  14.288   8.822  14.548
99607SOL    HW1  660  14.345   8.819  14.624
99607SOL    HW2  661  14.249   8.734  14.543
99608SOL     OW  662   7.013  13.729   3.050
99608SOL    HW1  663   7.094  13.779   3.054
99608SOL    HW2  664   6.950  13.780   3.100
99609SOL     OW  665  10.078   2.688  12.099
99609SOL    HW1  666   9.988   2.708  12.126
99609SOL    HW2  667  10.069   2.612  12.042
99610SOL     OW  668   9.473   7.923   0.293
99610SOL    HW1  669   9.512   7.972   0.221
99610SOL    HW2  670   9.547   7.879   0.335
99611SOL     OW  671  12.202  11.969   3.901
99611SOL    HW1  672  12.199  12.014   3.986
99611SOL    HW2  673  12.295  11.953   3.886
99612SOL     OW  674   8.814  11.626   8.702
99612SOL    HW1  675   8.768  11.597   8.781
99612SOL    HW2  676   8.901  11.651   8.733
99613SOL     OW  677   4.268  12.744   6.870
99613SOL    HW1  678   4.244  12.832   6.839
99613SOL    HW2  679   4.337  12.715   6.810
99614SOL     OW  680   5.360  11.711   1.946
99614SOL    HW1  681   5.422  11.646   1.979
99614SOL    HW2  682   5.297  11.722   2.017
99615SOL     OW  683   8.578  11.458   1.080
99615SOL    HW1  684   8.524  11.399   1.027
99615SOL    HW2  685   8.526  11.538   1.087
99616SOL     OW  686   9.388   6.144   4.608
99616SOL    HW1  687   9.469   6.119   4.653
99616SOL    HW2  688   9.352   6.061   4.577
99617SOL     OW  689   7.205   3.075   8.188
99617SOL    HW1  690   7.144   3.043   8.121
99617SOL    HW2  691   7.186   3.022   8.265
99618SOL     OW  692  13.658   6.703   6.428
99618SOL    HW1  693  13.622   6.712   6.340
99618SOL    HW2  694  13.659   6.792   6.463
99619SOL     OW  695   9.175  10.910   6.618
99619SOL    HW1  696   9.195  10.861   6.539
99619SOL    HW2  697   9.162  10.844   6.685
99620SOL     OW  698  10.608   6.018   5.315
99620SOL    HW1  699  10.600   5.942   5.257
99620SOL    HW2  700  10.527   6.016   5.366
99621SOL     OW  701   8.607  14.586   0.655
99621SOL    HW1  702   8.652  14.603   0.738
99621SOL    HW2  703   8.544  14.517   0.675
99622SOL     OW  704  14.343   2.394   3.297
99622SOL    HW1  705  14.437   2.405   3.286
99622SOL    HW2  706  14.332   2.365   3.388
99623SOL     OW  707   3.156   7.346  13.722
99623SOL    HW1  708   3.168   7.406  13.649
99623SOL    HW2  709   3.063   7.322  13.718
99624SOL     OW  710   9.655   6.388  13.391
99624SOL    HW1  711   9.570   6.426  13.369
99624SOL    HW2  712   9.675   6.422  13.478
99625SOL     OW  713   9.586   4.826   9.242
99625SOL    HW1  714   9.504   4.859   9.278
99625SOL    HW2  715   9.638   4.801   9.318
99626SOL     OW  716   2.660   3.988  13.487
99626SOL    HW1  717   2.653   4.079  13.517
99626SOL    HW2  718   2.718   3.992  13.411
99627SOL     OW  719   8.385   3.529   3.144
99627SOL    HW1  720   8.320   3.540   3.214
99627SOL    HW2  721   8.462   3.574   3.177
99628SOL     OW  722  12.018  10.974   4.330
99628SOL    HW1  723  11.958  11.049   4.334
99628SOL    HW2  724  11.970  10.902   4.369
99629SOL     OW  725  12.191  11.664   3.707
99629SOL    HW1  726  12.143  11.586   3.735
99629SOL    HW2  727  12.212  11.648   3.615
99630SOL     OW  728   9.468   7.549  12.039
99630SOL    HW1  729   9.446   7.611  11.969
99630SOL    HW2  730   9.550   7.582  12.075
99631SOL     OW  731  13.790  13.220  12.454
99631SOL    HW1  732  13.760  13.162  12.524
99631SOL    HW2  733  13.718  13.220  12.390
99632SOL     OW  734   6.271  11.288   0.822
99632SOL    HW1  735   6.243  11.204   0.786
99632SOL    HW2  736   6.233  11.353   0.763
99633SOL     OW  737   9.085   1.314   1.336
99633SOL    HW1  738   9.054   1.402   1.357
99633SOL    HW2  739   9.007   1.267   1.307
99634SOL     OW  740  11.942  12.901  13.832
99634SOL    HW1  741  11.935  12.901  13.736
99634SOL    HW2  742  12.037  12.899  13.849
99635SOL     OW  743   6.064  14.628   6.107
99635SOL    HW1  744   6.082  14.653   6.197
99635SOL    HW2  745   6.040  14.535   6.112
99636SOL     OW  746   5.389  13.740   3.006
99636SOL    HW1  747   5.354  13.673   2.949
99636SOL    HW2  748   5.335  13.817   2.989
99637SOL     OW  749  11.267   1.098   8.720
99637SOL    HW1  750  11.315   1.165   8.671
99637SOL    HW2  751  11.177   1.104   8.688
99638SOL     OW  752  12.881   7.153  13.866
99638SOL    HW1  753  12.885   7.218  13.937
99638SOL    HW2  754  12.963   7.105  13.872
99639SOL     OW  755   6.148  14.382   3.190
99639SOL    HW1  756   6.100  14.325   3.251
99639SOL    HW2  757   6.227  14.408   3.238
99640SOL     OW  758   8.930   1.237   3.149
99640SOL    HW1  759   8.960   1.223   3.060
99640SOL    HW2  760   8.845   1.279   3.140
99641SOL     OW  761   8.498  14.113   0.332
99641SOL    HW1  762   8.587  14.121   0.299
99641SOL    HW2  763   8.446  14.084   0.257
99642SOL     OW  764   2.000   7.263   2.231
99642SOL    HW1  765   2.061   7.221   2.292
99642SOL    HW2  766   1.936   7.195   2.211
99643SOL     OW  767   1.882   5.491   7.575
99643SOL    HW1  768   1.925   5.494   7.660
99643SOL    HW2  769   1.952   5.505   7.512
99644SOL     OW  770   2.972   1.615   3.927
99644SOL    HW1  771   2.989   1.523   3.907
99644SOL    HW2  772   2.958   1.617   4.022
99645SOL     OW  773   5.130   3.101  11.696
99645SOL    HW1  774   5.188   3.158  11.644
99645SOL    HW2  775   5.151   3.123  11.787
99646SOL     OW  776  13.131   9.179   6.713
99646SOL    HW1  777  13.193   9.140   6.775
99646SOL    HW2  778  13.045   9.156   6.747
99647SOL     OW  779   4.357   4.984   5.064
99647SOL    HW1  780   4.289   4.961   5.000
99647SOL    HW2  781   4.418   4.911   5.061
99648SOL     OW  782   6.998  12.018   9.451
99648SOL    HW1  783   7.051  12.037   9.528
99648SOL    HW2  784   6.917  12.068   9.464
99649SOL     OW  785  14.635   2.797   5.483
99649SOL    HW1  786  14.593   2.879   5.458
99649SOL    HW2  787  14.679   2.766   5.404
99650SOL     OW  788  13.426   9.614   2.960
99650SOL    HW1  789  13.353   9.639   3.015
99650SOL    HW2  790  13.414   9.665   2.879
99651SOL     OW  791   6.381   5.899   7.566
99651SOL    HW1  792   6.432   5.834   7.516
99651SOL    HW2  793   6.386   5.979   7.513
99652SOL     OW  794   1.301   7.030   3.168
99652SOL    HW1  795   1.277   6.968   3.099
99652SOL    HW2  796   1.396   7.043   3.157
99653SOL     OW  797   9.299   6.708   3.980
99653SOL    HW1  798   9.308   6.803   3.983
99653SOL    HW2  799   9.275   6.683   4.069
99654SOL     OW  800   7.048   7.528   3.318
99654SOL    HW1  801   7.086   7.605   3.276
99654SOL    HW2  802   6.980   7.499   3.257
99655SOL     OW  803  10.655   6.019  11.292
99655SOL    HW1  804  10.721   5.958  11.259
99655SOL    HW2  805  10.651   6.002  11.386
99656SOL     OW  806   7.486  11.447   2.527
99656SOL    HW1  807   7.574  11.482   2.544
99656SOL    HW2  808   7.481  11.368   2.582
99657SOL     OW  809   5.225   7.197  14.241
99657SOL    HW1  810   5.310   7.204  14.196
99657SOL    HW2  811   5.179   7.127  14.194
99658SOL     OW  812   6.908   0.072   5.201
99658SOL    HW1  813   6.885   0.134   5.132
99658SOL    HW2  814   7.001   0.084   5.215
99659SOL     OW  815  12.067   5.538   9.961
99659SOL    HW1  816  12.149   5.586   9.971
99659SOL    HW2  817  12.087   5.449   9.989
99660SOL     OW  818  12.392  11.955   3.131
99660SOL    HW1  819  12.314  11.988   3.086
99660SOL    HW2  820  12.453  12.029   3.129
99661SOL     OW  821   7.887   5.659   9.614
99661SOL    HW1  822   7.964   5.710   9.589
99661SOL    HW2  823   7.817   5.692   9.557
99662SOL     OW  824  14.159   5.520   5.002
99662SOL    HW1  825  14.104   5.441   5.006
99662SOL    HW2  826  14.180   5.538   5.094
99663SOL     OW  827   0.843  12.883  10.403
99663SOL    HW1  828   0.927  12.878  10.359
99663SOL    HW2  829   0.865  12.895  10.495
99664SOL     OW  830   7.737   3.179   9.312
99664SOL    HW1  831   7.666   3.115   9.314
99664SOL    HW2  832   7.811   3.131   9.274
99665SOL     OW  833   2.634   0.512   8.311
99665SOL    HW1  834   2.539   0.514   8.305
99665SOL    HW2  835   2.664   0.532   8.222
99666SOL     OW  836  10.074  12.312   7.922
99666SOL    HW1  837  10.169  12.313   7.934
99666SOL    HW2  838  10.057  12.382   7.859
99667SOL     OW  839  12.017   2.615   4.553
99667SOL    HW1  840  12.023   2.557   4.629
99667SOL    HW2  841  12.001   2.555   4.480
99668SOL     OW  842   0.068   7.513   1.801
99668SOL    HW1  843   0.125   7.567   1.745
99668SOL    HW2  844   0.084   7.545   1.889
99669SOL     OW  845   2.446   4.142  11.535
99669SOL    HW1  846   2.509   4.212  11.556
99669SOL    HW2  847   2.376   4.154  11.599
99670SOL     OW  848   3.545   3.575   9.726
99670SOL    HW1  849   3.492   3.610   9.798
99670SOL    HW2  850   3.484   3.522   9.675
99671SOL     OW  851   8.476   7.393   5.076
99671SOL    HW1  852   8.468   7.305   5.113
99671SOL    HW2  853   8.477   7.451   5.152
99672SOL     OW  854   2.090  12.779  11.090
99672SOL    HW1  855   2.179  12.749  11.109
99672SOL    HW2  856   2.039  12.699  11.078
99673SOL     OW  857   2.511   7.992   3.698
99673SOL    HW1  858   2.596   8.030   3.677
99673SOL    HW2  859   2.448   8.062   3.680
99674SOL     OW  860   1.351   9.253   6.747
99674SOL    HW1  861   1.372   9.330   6.801
99674SOL    HW2  862   1.349   9.181   6.810
99675SOL     OW  863  10.321  12.634  12.565
99675SOL    HW1  864  10.226  12.647  12.567
99675SOL    HW2  865  10.341  12.619  12.473
99676SOL     OW  866  10.092   2.897  11.224
99676SOL    HW1  867  10.106   2.985  11.259
99676SOL    HW2  868  10.119   2.902  11.132
99677SOL     OW  869  14.685   0.428  12.145
99677SOL    HW1  870  14.652   0.356  12.199
99677SOL    HW2  871  14.766   0.393  12.107
99678SOL     OW  872   8.536   4.388  13.204
99678SOL    HW1  873   8.572   4.469  13.241
99678SOL    HW2  874   8.475   4.419  13.136
99679SOL     OW  875   7.582  13.388  14.670
99679SOL    HW1  876   7.563  13.372  14.763
99679SOL    HW2  877   7.503  13.427  14.635
99680SOL     OW  878  13.145   3.956   2.595
99680SOL    HW1  879  13.091   4.025   2.633
99680SOL    HW2  880  13.140   3.971   2.500
99681SOL     OW  881   8.038  11.801   1.681
99681SOL    HW1  882   7.944  11.816   1.668
99681SOL    HW2  883   8.066  11.755   1.602
99682SOL     OW  884   8.754  10.991   2.563
99682SOL    HW1  885   8.697  11.062   2.533
99682SOL    HW2  886   8.734  10.917   2.506
99683SOL     OW  887  13.459   2.492   8.099
99683SOL    HW1  888  13.517   2.529   8.165
99683SOL    HW2  889  13.512   2.426   8.054
99684SOL     OW  890  13.899   4.374  13.130
99684SOL    HW1  891  13.896   4.282  13.159
99684SOL    HW2  892  13.807   4.398  13.118
99685SOL     OW  893   8.607   7.596  11.961
99685SOL    HW1  894   8.574   7.671  11.913
99685SOL    HW2  895   8.547   7.586  12.035
99686SOL     OW  896   4.756  10.653   6.905
99686SOL    HW1  897   4.791  10.735   6.940
99686SOL    HW2  898   4.664  10.671   6.889
99687SOL     OW  899   3.784  11.210   9.728
99687SOL    HW1  900   3.877  11.221   9.750
99687SOL    HW2  901   3.771  11.265   9.651
99688SOL     OW  902  13.489   7.366   0.168
99688SOL    HW1  903  13.440   7.312   0.230
99688SOL    HW2  904  13.538   7.303   0.115
99689SOL     OW  905   9.943   9.575   2.702
99689SOL    HW1  906   9.996   9.562   2.623
99689SOL    HW2  907   9.977   9.511   2.765
99690SOL     OW  908   4.089   4.936   6.778
99690SOL    HW1  909   4.100   5.025   6.746
99690SOL    HW2  910   4.037   4.945   6.858
99691SOL     OW  911   3.403  14.544  11.529
99691SOL    HW1  912   3.396  14.608  11.600
99691SOL    HW2  913   3.398  14.596  11.449
99692SOL     OW  914  13.870   8.674  13.576
99692SOL    HW1  915  13.932   8.699  13.507
99692SOL    HW2  916  13.857   8.755  13.626
99693SOL     OW  917  13.526  12.381  10.889
99693SOL    HW1  918  13.570  12.296  10.894
99693SOL    HW2  919  13.489  12.394  10.976
99694SOL     OW  920  13.697  11.672   1.172
99694SOL    HW1  921  13.670  11.733   1.240
99694SOL    HW2  922  13.628  11.679   1.105
99695SOL     OW  923   0.384   5.595  12.594
99695SOL    HW1  924   0.377   5.504  12.623
99695SOL    HW2  925   0.297   5.617  12.563
99696SOL     OW  926   1.552  14.730   2.938
99696SOL    HW1  927   1.559  14.825   2.928
99696SOL    HW2  928   1.497  14.718   3.015
99697SOL     OW  929   4.977   8.226   5.938
99697SOL    HW1  930   4.954   8.177   6.016
99697SOL    HW2  931   4.898   8.221   5.883
99698SOL     OW  932   3.151  11.381   5.254
99698SOL    HW1  933   3.162  11.289   5.230
99698SOL    HW2  934   3.062  11.386   5.289
99699SOL     OW  935   0.373  14.263  14.556
99699SOL    HW1  936   0.390  14.256  14.462
99699SOL    HW2  937   0.329  14.347  14.566
99700SOL     OW  938  12.064  11.446  10.251
99700SOL    HW1  939  12.111  11.512  10.302
99700SOL    HW2  940  12.125  11.423  10.180
99701SOL     OW  941   6.223  11.057   5.411
99701SOL    HW1  942   6.275  10.999   5.356
99701SOL    HW2  943   6.215  11.011   5.495
99702SOL     OW  944  12.920  13.997  12.865
99702SOL    HW1  945  12.990  14.019  12.803
99702SOL    HW2  946  12.909  13.903  12.856
99703SOL     OW  947   9.314   7.775   7.529
99703SOL    HW1  948   9.370   7.782   7.452
99703SOL    HW2  949   9.374   7.781   7.603
99704SOL     OW  950   1.931   3.564   5.347
99704SOL    HW1  951   1.953   3.480   5.308
99704SOL    HW2  952   1.956   3.555   5.439
99705SOL     OW  953   1.249   6.937   2.675
99705SOL    HW1  954   1.202   6.960   2.755
99705SOL    HW2  955   1.303   6.862   2.700
99706SOL     OW  956   1.588   2.411   4.137
99706SOL    HW1  957   1.527   2.484   4.133
99706SOL    HW2  958   1.555   2.348   4.073
99707SOL     OW  959   0.035   0.238  13.952
99707SOL    HW1  960   0.100   0.168  13.958
99707SOL    HW2  961   0.082   0.316  13.979
99708SOL     OW  962   1.243   4.831   4.887
99708SOL    HW1  963   1.271   4.920   4.907
99708SOL    HW2  964   1.204   4.799   4.968
99709SOL     OW  965   3.940   5.419   4.528
99709SOL    HW1  966   3.901   5.333   4.545
99709SOL    HW2  967   4.029   5.401   4.498
99710SOL     OW  968   5.347   6.395   2.372
99710SOL    HW1  969   5.364   6.345   2.292
99710SOL    HW2  970   5.432   6.432   2.397
99711SOL     OW  971  10.929   6.652  10.657
99711SOL    HW1  972  10.918   6.747  10.654
99711SOL    HW2  973  10.854   6.618  10.608
99712SOL     OW  974   8.466   2.057  11.145
99712SOL    HW1  975   8.519   2.110  11.086
99712SOL    HW2  976   8.469   2.105  11.228
99713SOL     OW  977   3.152   8.044   2.257
99713SOL    HW1  978   3.236   8.017   2.293
99713SOL    HW2  979   3.087   8.008   2.318
99714SOL     OW  980   1.883   4.204   7.341
99714SOL    HW1  981   1.967   4.190   7.385
99714SOL    HW2  982   1.902   4.195   7.248
99715SOL     OW  983  14.048   0.320  13.701
99715SOL    HW1  984  13.994   0.399  13.700
99715SOL    HW2  985  14.127   0.344  13.652
99716SOL     OW  986   5.237   6.921   7.861
99716SOL    HW1  987   5.165   6.951   7.918
99716SOL    HW2  988   5.199   6.919   7.774
99717SOL     OW  989   9.356   5.180  13.344
99717SOL    HW1  990   9.354   5.276  13.347
99717SOL    HW2  991   9.441   5.160  13.304
99718SOL     OW  992  14.539   0.410   6.102
99718SOL    HW1  993  14.476   0.348   6.142
99718SOL    HW2  994  14.539   0.485   6.161
99719SOL     OW  995  14.336   8.342   0.577
99719SOL    HW1  996  14.340   8.397   0.656
99719SOL    HW2  997  14.322   8.404   0.506
99720SOL     OW  998   3.056   5.918   9.717
99720SOL    HW1  999   3.002   5.884   9.646
99720SOL    HW2 1000   3.125   5.853   9.728
99721SOL     OW 1001   8.690   9.759   2.002
99721SOL    HW1 1002   8.758   9.717   1.949
99721SOL    HW2 1003   8.608   9.736   1.958
99722SOL     OW 1004   7.534   5.139   7.440
99722SOL    HW1 1005   7.517   5.227   7.408
99722SOL    HW2 1006   7.578   5.095   7.367
99723SOL     OW 1007   2.965   3.898  12.664
99723SOL    HW1 1008   2.963   3.932  12.754
99723SOL    HW2 1009   2.894   3.944  12.620
99724SOL     OW 1010   1.212   8.475  12.500
99724SOL    HW1 1011   1.212   8.453  12.593
99724SOL    HW2 1012   1.126   8.514  12.484
99725SOL     OW 1013   8.731  10.627   9.335
99725SOL    HW1 1014   8.725  10.661   9.245
99725SOL    HW2 1015   8.807  10.672   9.373
99726SOL     OW 1016   1.742   2.284   6.314
99726SOL    HW1 1017   1.651   2.306   6.332
99726SOL    HW2 1018   1.793   2.354   6.354
99727SOL     OW 1019   4.917   7.186   2.019
99727SOL    HW1 1020   4.854   7.116   2.008
99727SOL    HW2 1021   4.980   7.175   1.948
99728SOL     OW 1022   4.368  14.484  14.225
99728SOL    HW1 1023   4.339  14.440  14.146
99728SOL    HW2 1024   4.402  14.569  14.196
99729SOL     OW 1025   0.816  13.222   1.007
99729SOL    HW1 1026   0.822  13.132   0.974
99729SOL    HW2 1027   0.836  13.276   0.931
99730SOL     OW 1028   9.721   5.649  14.300
99730SOL    HW1 1029   9.733   5.621  14.391
99730SOL    HW2 1030   9.650   5.713  14.303
99731SOL     OW 1031   9.873   1.973   3.393
99731SOL    HW1 1032   9.808   1.981   3.463
99731SOL    HW2 1033   9.941   1.916   3.430
99732SOL     OW 1034   6.586   6.513   4.605
99732SOL    HW1 1035   6.559   6.585   4.662
99732SOL    HW2 1036   6.518   6.447   4.616
99733SOL     OW 1037  14.420   2.477  14.548
99733SOL    HW1 1038  14.383   2.429  14.622
99733SOL    HW2 1039  14.484   2.537  14.587
99734SOL     OW 1040   8.491   7.729   3.568
99734SOL    HW1 1041   8.564   7.786   3.593
99734SOL    HW2 1042   8.431   7.785   3.519
99735SOL     OW 1043  14.168   7.853  12.307
99735SOL    HW1 1044  14.145   7.846  12.214
99735SOL    HW2 1045  14.248   7.905  12.308
99736SOL     OW 1046   4.718   4.706   6.123
99736SOL    HW1 1047   4.625   4.717   6.143
99736SOL    HW2 1048   4.730   4.752   6.040
99737SOL     OW 1049   0.202  13.909  11.149
99737SOL    HW1 1050   0.141  13.845  11.112
99737SOL    HW2 1051   0.184  13.907  11.243
99738SOL     OW 1052   3.481   9.280   0.215
99738SOL    HW1 1053   3.398   9.316   0.247
99738SOL    HW2 1054   3.459   9.242   0.130
99739SOL     OW 1055   0.300  11.228   4.056
99739SOL    HW1 1056   0.286  11.204   3.965
99739SOL    HW2 1057   0.388  11.265   4.059
99740SOL     OW 1058   5.445   0.970   4.370
99740SOL    HW1 1059   5.418   1.047   4.420
99740SOL    HW2 1060   5.508   1.004   4.306
99741SOL     OW 1061   7.364   1.206  12.134
99741SOL    HW1 1062   7.373   1.267  12.207
99741SOL    HW2 1063   7.447   1.211  12.087
99742SOL     OW 1064  13.349   6.800   7.026
99742SOL    HW1 1065  13.384   6.875   6.978
99742SOL    HW2 1066  13.426   6.749   7.050
99743SOL     OW 1067  10.471  13.138  12.938
99743SOL    HW1 1068  10.511  13.056  12.966
99743SOL    HW2 1069  10.394  13.111  12.888
99744SOL     OW 1070   9.216   9.949  12.949
99744SOL    HW1 1071   9.212  10.044  12.958
99744SOL    HW2 1072   9.188   9.915  13.035
99745SOL     OW 1073   1.527   6.265   2.750
99745SOL    HW1 1074   1.519   6.227   2.838
99745SOL    HW2 1075   1.437   6.278   2.721
99746SOL     OW 1076  13.020   6.108   8.796
99746SOL    HW1 1077  13.082   6.092   8.724
99746SOL    HW2 1078  12.937   6.071   8.764
99747SOL     OW 1079  12.594   5.327  10.939
99747SOL    HW1 1080  12.502   5.306  10.955
99747SOL    HW2 1081  12.620   5.272  10.866
99748SOL     OW 1082   3.009  11.838   6.614
99748SOL    HW1 1083   3.024  11.743   6.621
99748SOL    HW2 1084   3.081  11.869   6.560
99749SOL     OW 1085  11.455  10.230   2.664
99749SOL    HW1 1086  11.444  10.303   2.603
99749SOL    HW2 1087  11.539  10.247   2.707
99750SOL     OW 1088  12.239   1.408  13.378
99750SOL    HW1 1089  12.298   1.390  13.451
99750SOL    HW2 1090  12.272   1.489  13.339
99751SOL     OW 1091   7.361   4.857  14.518
99751SOL    HW1 1092   7.323   4.818  14.597
99751SOL    HW2 1093   7.397   4.783  14.470
99752SOL     OW 1094   1.555  14.080  11.300
99752SOL    HW1 1095   1.531  14.060  11.390
99752SOL    HW2 1096   1.578  14.173  11.301
99753SOL     OW 1097  10.120  10.489   8.200
99753SOL    HW1 1098  10.145  10.410   8.249
99753SOL    HW2 1099  10.114  10.460   8.109
99754SOL     OW 1100   5.003   5.480   8.433
99754SOL    HW1 1101   4.926   5.537   8.440
99754SOL    HW2 1102   4.986   5.426   8.356
99755SOL     OW 1103  11.805   5.236   0.520
99755SOL    HW1 1104  11.881   5.180   0.537
99755SOL    HW2 1105  11.730   5.178   0.533
99756SOL     OW 1106   3.624   1.544   8.488
99756SOL    HW1 1107   3.682   1.530   8.412
99756SOL    HW2 1108   3.652   1.628   8.524
99757SOL     OW 1109   7.928   8.782  13.662
99757SOL    HW1 1110   7.883   8.863  13.688
99757SOL    HW2 1111   7.948   8.739  13.745
99758SOL     OW 1112   6.235   3.131   3.395
99758SOL    HW1 1113   6.298   3.204   3.394
99758SOL    HW2 1114   6.283   3.057   3.357
99759SOL     OW 1115   9.621   3.667   3.636
99759SOL    HW1 1116   9.602   3.652   3.544
99759SOL    HW2 1117   9.679   3.743   3.637
99760SOL     OW 1118  12.843  11.858   6.428
99760SOL    HW1 1119  12.887  11.932   6.385
99760SOL    HW2 1120  12.915  11.802   6.456
99761SOL     OW 1121  13.506   2.133  14.711
99761SOL    HW1 1122  13.530   2.040  14.716
99761SOL    HW2 1123  13.514   2.155  14.619
99762SOL     OW 1124   1.294  11.617   5.877
99762SOL    HW1 1125   1.361  11.570   5.928
99762SOL    HW2 1126   1.288  11.569   5.795
99763SOL     OW 1127  10.291   5.894   0.596
99763SOL    HW1 1128  10.350   5.819   0.602
99763SOL    HW2 1129  10.279   5.923   0.687
99764SOL     OW 1130   1.441  10.667   1.274
99764SOL    HW1 1131   1.488  10.605   1.328
99764SOL    HW2 1132   1.388  10.613   1.215
99765SOL     OW 1133   2.539  13.604   4.137
99765SOL    HW1 1134   2.547  13.699   4.146
99765SOL    HW2 1135   2.516  13.592   4.045
99766SOL     OW 1136  12.431  11.853   2.730
99766SOL    HW1 1137  12.340  11.827   2.749
99766SOL    HW2 1138  12.460  11.791   2.663
99767SOL     OW 1139  11.709   2.719  10.092
99767SOL    HW1 1140  11.688   2.631  10.123
99767SOL    HW2 1141  11.624   2.757  10.069
99768SOL     OW 1142  14.048   8.982   0.170
99768SOL    HW1 1143  14.125   9.029   0.201
99768SOL    HW2 1144  14.017   9.033   0.095
99769SOL     OW 1145   8.971  10.652   5.545
99769SOL    HW1 1146   8.978  10.649   5.640
99769SOL    HW2 1147   9.014  10.571   5.515
99770SOL     OW 1148   2.288   9.873   6.542
99770SOL    HW1 1149   2.307   9.838   6.455
99770SOL    HW2 1150   2.199   9.908   6.535
99771SOL     OW 1151  11.133   0.192   6.606
99771SOL    HW1 1152  11.099   0.103   6.617
99771SOL    HW2 1153  11.188   0.188   6.528
99772SOL     OW 1154  11.544   1.419   7.835
99772SOL    HW1 1155  11.574   1.400   7.924
99772SOL    HW2 1156  11.509   1.509   7.840
99773SOL     OW 1157   4.288  11.534  10.094
99773SOL    HW1 1158   4.333  11.486  10.164
99773SOL    HW2 1159   4.352  11.540  10.024
99774SOL     OW 1160   0.730   5.412  14.568
99774SOL    HW1 1161   0.743   5.503  14.593
99774SOL    HW2 1162   0.653   5.383  14.618
99775SOL     OW 1163   2.662   0.110   7.841
99775SOL    HW1 1164   2.623   0.116   7.754
99775SOL    HW2 1165   2.680   0.200   7.866
99776SOL     OW 1166   5.491  12.633   5.909
99776SOL    HW1 1167   5.461  12.570   5.973
99776SOL    HW2 1168   5.578  12.602   5.883
99777SOL     OW 1169   6.645  13.651   0.836
99777SOL    HW1 1170   6.662  13.558   0.824
99777SOL    HW2 1171   6.689  13.674   0.918
99778SOL     OW 1172   2.420   6.344   4.379
99778SOL    HW1 1173   2.340   6.347   4.431
99778SOL    HW2 1174   2.465   6.426   4.397
99779SOL     OW 1175   7.715   3.410  10.379
99779SOL    HW1 1176   7.709   3.483  10.439
99779SOL    HW2 1177   7.641   3.354  10.401
99780SOL     OW 1178   6.170   9.296   3.255
99780SOL    HW1 1179   6.182   9.371   3.196
99780SOL    HW2 1180   6.141   9.225   3.198
99781SOL     OW 1181   0.328   0.472  11.722
99781SOL    HW1 1182   0.416   0.501  11.702
99781SOL    HW2 1183   0.304   0.416  11.648
99782SOL     OW 1184   2.189   6.482  14.812
99782SOL    HW1 1185   2.114   6.498  14.870
99782SOL    HW2 1186   2.184   6.551  14.747
99783SOL     OW 1187  11.946   0.144   9.740
99783SOL    HW1 1188  11.883   0.093   9.791
99783SOL    HW2 1189  11.892   0.209   9.695
99784SOL     OW 1190   9.041   3.287   6.894
99784SOL    HW1 1191   8.997   3.366   6.862
99784SOL    HW2 1192   9.070   3.310   6.982
99785SOL     OW 1193   4.090   6.680  10.351
99785SOL    HW1 1194   4.078   6.754  10.410
99785SOL    HW2 1195   4.167   6.702  10.299
99786SOL     OW 1196  12.394  13.569   6.438
99786SOL    HW1 1197  12.475  13.613   6.466
99786SOL    HW2 1198  12.327  13.604   6.496
99787SOL     OW 1199   5.973   1.766   1.066
99787SOL    HW1 1200   5.999   1.791   0.977
99787SOL    HW2 1201   5.878   1.777   1.067
99788SOL     OW 1202   4.320  14.273  12.527
99788SOL    HW1 1203   4.244  14.331  12.522
99788SOL    HW2 1204   4.388  14.326  12.568
99789SOL     OW 1205  12.912  12.660   6.374
99789SOL    HW1 1206  12.873  12.746   6.387
99789SOL    HW2 1207  12.858  12.620   6.305
99790SOL     OW 1208  10.220  10.944  13.154
99790SOL    HW1 1209  10.275  11.011  13.112
99790SOL    HW2 1210  10.246  10.862  13.112
99791SOL     OW 1211   2.775   0.660   8.107
99791SOL    HW1 1212   2.685   0.685   8.087
99791SOL    HW2 1213   2.823   0.673   8.025
99792SOL     OW 1214   7.251   3.115  12.700
99792SOL    HW1 1215   7.292   3.172  12.766
99792SOL    HW2 1216   7.208   3.176  12.640
99793SOL     OW 1217  11.205   6.909   3.627
99793SOL    HW1 1218  11.110   6.899   3.634
99793SOL    HW2 1219  11.221   6.926   3.534
99794SOL     OW 1220   5.458  13.613  13.861
99794SOL    HW1 1221   5.532  13.673  13.871
99794SOL    HW2 1222   5.404  13.653  13.794
99795SOL     OW 1223   0.436   1.245   3.890
99795SOL    HW1 1224   0.473   1.167   3.931
99795SOL    HW2 1225   0.346   1.249   3.921
99796SOL     OW 1226  13.899   1.280   6.549
99796SOL    HW1 1227  13.990   1.287   6.521
99796SOL    HW2 1228  13.861   1.366   6.530
99797SOL     OW 1229  13.861  13.947  14.154
99797SOL    HW1 1230  13.815  13.883  14.100
99797SOL    HW2 1231  13.829  14.032  14.124
99798SOL     OW 1232   3.231   6.371  14.077
99798SOL    HW1 1233   3.147   6.325  14.088
99798SOL    HW2 1234   3.268   6.376  14.165
99799SOL     OW 1235   2.354  12.625  11.694
99799SOL    HW1 1236   2.298  12.604  11.620
99799SOL    HW2 1237   2.295  12.667  11.757
99800SOL     OW 1238   5.231   9.183   1.364
99800SOL    HW1 1239   5.261   9.092   1.359
99800SOL    HW2 1240   5.257   9.212   1.451
99801SOL     OW 1241  11.382  14.799   8.779
99801SOL    HW1 1242  11.315  14.858   8.746
99801SOL    HW2 1243  11.402  14.742   8.705
99802SOL     OW 1244   4.259   2.787   4.647
99802SOL    HW1 1245   4.270   2.724   4.576
99802SOL    HW2 1246   4.179   2.834   4.625
99803SOL     OW 1247   1.076   0.898   8.843
99803SOL    HW1 1248   1.110   0.972   8.793
99803SOL    HW2 1249   1.141   0.829   8.832
99804SOL     OW 1250   4.112   0.927   8.743
99804SOL    HW1 1251   4.033   0.943   8.794
99804SOL    HW2 1252   4.126   1.008   8.694
99805SOL     OW 1253   8.695   7.015   7.118
99805SOL    HW1 1254   8.717   7.100   7.079
99805SOL    HW2 1255   8.744   6.952   7.067
99806SOL     OW 1256   4.081  12.685   5.661
99806SOL    HW1 1257   4.098  12.603   5.707
99806SOL    HW2 1258   4.120  12.674   5.575
99807SOL     OW 1259   5.341   5.972   2.839
99807SOL    HW1 1260   5.362   6.034   2.769
99807SOL    HW2 1261   5.425   5.953   2.880
99808SOL     OW 1262  13.510   2.896  13.882
99808SOL    HW1 1263  13.422   2.905  13.917
99808SOL    HW2 1264  13.541   2.986  13.870
99809SOL     OW 1265   4.539  14.190  14.571
99809SOL    HW1 1266   4.573  14.274  14.601
99809SOL    HW2 1267   4.451  14.210  14.537
99810SOL     OW 1268   2.272   0.725   9.976
99810SOL    HW1 1269   2.281   0.808   9.930
99810SOL    HW2 1270   2.198   0.682   9.933
99811SOL     OW 1271   8.688  13.337   5.428
99811SOL    HW1 1272   8.698  13.359   5.521
99811SOL    HW2 1273   8.771  13.361   5.389
99812SOL     OW 1274  11.191   7.239  12.381
99812SOL    HW1 1275  11.159   7.154  12.413
99812SOL    HW2 1276  11.236   7.276  12.457
99813SOL     OW 1277   0.681   0.651  13.515
99813SOL    HW1 1278   0.712   0.564  13.489
99813SOL    HW2 1279   0.631   0.682  13.439
99814SOL     OW 1280  11.318   4.060  13.184
99814SOL    HW1 1281  11.383   4.100  13.126
99814SOL    HW2 1282  11.263   4.007  13.127
99815SOL     OW 1283  13.505  13.566   9.014
99815SOL    HW1 1284  13.442  13.637   8.997
99815SOL    HW2 1285  13.543  13.587   9.099
99816SOL     OW 1286  12.173   3.990   7.518
99816SOL    HW1 1287  12.088   4.018   7.553
99816SOL    HW2 1288  12.196   3.912   7.570
99817SOL     OW 1289   2.520  10.293   8.652
99817SOL    HW1 1290   2.550  10.258   8.736
99817SOL    HW2 1291   2.530  10.221   8.591
99818SOL     OW 1292   8.370   0.749   1.250
99818SOL    HW1 1293   8.357   0.711   1.337
99818SOL    HW2 1294   8.433   0.819   1.263
99819SOL     OW 1295   3.243   3.758   3.268
99819SOL    HW1 1296   3.247   3.731   3.360
99819SOL    HW2 1297   3.317   3.712   3.227
99820SOL     OW 1298   9.352  13.498   5.043
99820SOL    HW1 1299   9.427  13.442   5.062
99820SOL    HW2 1300   9.327  13.475   4.954
99821SOL     OW 1301   6.350   4.735   6.414
99821SOL    HW1 1302   6.281   4.687   6.368
99821SOL    HW2 1303   6.420   4.743   6.349
99822SOL     OW 1304   3.342   6.055   4.352
99822SOL    HW1 1305   3.250   6.030   4.344
99822SOL    HW2 1306   3.357   6.063   4.447
99823SOL     OW 1307   9.046  11.635  12.618
99823SOL    HW1 1308   8.972  11.599  12.667
99823SOL    HW2 1309   9.123  11.608  12.668
99824SOL     OW 1310   0.654  10.072   3.551
99824SOL    HW1 1311   0.581  10.035   3.601
99824SOL    HW2 1312   0.731  10.023   3.582
99825SOL     OW 1313  14.322  14.399   3.177
99825SOL    HW1 1314  14.348  14.456   3.249
99825SOL    HW2 1315  14.280  14.458   3.114
99826SOL     OW 1316  14.837  11.121   0.656
99826SOL    HW1 1317  14.814  11.214   0.650
99826SOL    HW2 1318  14.852  11.094   0.566
99827SOL     OW 1319   6.780   5.138  11.128
99827SOL    HW1 1320   6.752   5.118  11.217
99827SOL    HW2 1321   6.808   5.053  11.093
99828SOL     OW 1322   9.241   2.639   9.828
99828SOL    HW1 1323   9.208   2.552   9.806
99828SOL    HW2 1324   9.168   2.683   9.871
99829SOL     OW 1325  13.220   2.835   4.721
99829SOL    HW1 1326  13.151   2.797   4.776
99829SOL    HW2 1327  13.173   2.889   4.658
99830SOL     OW 1328  14.124   9.274  12.272
99830SOL    HW1 1329  14.068   9.197  12.279
99830SOL    HW2 1330  14.107   9.323  12.352
99831SOL     OW 1331   7.229  11.241  10.788
99831SOL    HW1 1332   7.289  11.207  10.854
99831SOL    HW2 1333   7.162  11.173  10.779
99832SOL     OW 1334  12.526   1.365   5.681
99832SOL    HW1 1335  12.604   1.338   5.730
99832SOL    HW2 1336  12.476   1.417   5.743
99833SOL     OW 1337   8.473   9.842  10.785
99833SOL    HW1 1338   8.425   9.760  10.777
99833SOL    HW2 1339   8.533   9.842  10.710
99834SOL     OW 1340   2.913   5.720   4.449
99834SOL    HW1 1341   2.877   5.647   4.499
99834SOL    HW2 1342   2.931   5.787   4.515
99835SOL     OW 1343   9.625  14.283  10.697
99835SOL    HW1 1344   9.535  14.251  10.688
99835SOL    HW2 1345   9.668  14.257  10.616
99836SOL     OW 1346   3.345  14.455   5.899
99836SOL    HW1 1347   3.379  14.542   5.876
99836SOL    HW2 1348   3.370  14.400   5.825
99837SOL     OW 1349   5.230  10.958   3.435
99837SOL    HW1 1350   5.146  11.003   3.429
99837SOL    HW2 1351   5.263  10.979   3.522
99838SOL     OW 1352   2.247   2.053   1.871
99838SOL    HW1 1353   2.320   2.070   1.811
99838SOL    HW2 1354   2.234   1.958   1.867
99839SOL     OW 1355   4.880   2.259   4.485
99839SOL    HW1 1356   4.910   2.344   4.453
99839SOL    HW2 1357   4.947   2.197   4.455
99840SOL     OW 1358   9.867   2.184   9.786
99840SOL    HW1 1359   9.916   2.160   9.864
99840SOL    HW2 1360   9.900   2.270   9.761
99841SOL     OW 1361   2.215   1.753   5.826
99841SOL    HW1 1362   2.156   1.808   5.776
99841SOL    HW2 1363   2.301   1.795   5.817
99842SOL     OW 1364   6.913  12.455   8.297
99842SOL    HW1 1365   6.874  12.404   8.368
99842SOL    HW2 1366   7.000  12.479   8.330
99843SOL     OW 1367  10.861   0.672   3.082
99843SOL    HW1 1368  10.785   0.709   3.036
99843SOL    HW2 1369  10.895   0.745   3.134
99844SOL     OW 1370  11.696  11.170   5.637
99844SOL    HW1 1371  11.751  11.109   5.685
99844SOL    HW2 1372  11.692  11.135   5.548
99845SOL     OW 1373   4.207  11.791   9.839
99845SOL    HW1 1374   4.123  11.757   9.872
99845SOL    HW2 1375   4.183  11.873   9.795
99846SOL     OW 1376   4.212   9.337   8.496
99846SOL    HW1 1377   4.218   9.311   8.404
99846SOL    HW2 1378   4.178   9.426   8.494
99847SOL     OW 1379   1.166  14.490   4.747
99847SOL    HW1 1380   1.243  14.463   4.796
99847SOL    HW2 1381   1.096  14.493   4.812
99848SOL     OW 1382   2.263   1.523  11.620
99848SOL    HW1 1383   2.306   1.536  11.535
99848SOL    HW2 1384   2.171   1.511  11.598
99849SOL     OW 1385  14.788  12.065   3.483
99849SOL    HW1 1386  14.821  11.983   3.519
99849SOL    HW2 1387  14.771  12.045   3.391
99850SOL     OW 1388   3.189   2.752  11.899
99850SOL    HW1 1389   3.136   2.818  11.943
99850SOL    HW2 1390   3.279   2.772  11.926
99851SOL     OW 1391   3.972   7.051  12.077
99851SOL    HW1 1392   4.001   7.006  12.156
99851SOL    HW2 1393   3.896   7.001  12.047
99852SOL     OW 1394  11.672   0.640   9.174
99852SOL    HW1 1395  11.657   0.586   9.251
99852SOL    HW2 1396  11.764   0.668   9.182
99853SOL     OW 1397   9.671   8.998  12.268
99853SOL    HW1 1398   9.649   9.086  12.298
99853SOL    HW2 1399   9.644   8.940  12.339
99854SOL     OW 1400  11.731   9.554   3.868
99854SOL    HW1 1401  11.823   9.554   3.891
99854SOL    HW2 1402  11.685   9.554   3.952
99855SOL     OW 1403   0.384  13.194   5.991
99855SOL    HW1 1404   0.455  13.248   5.956
99855SOL    HW2 1405   0.336  13.164   5.914
99856SOL     OW 1406   8.339  14.511   6.041
99856SOL    HW1 1407   8.321  14.517   6.135
99856SOL    HW2 1408   8.435  14.502   6.036
99857SOL     OW 1409   6.357   4.403   9.217
99857SOL    HW1 1410   6.313   4.318   9.221
99857SOL    HW2 1411   6.450   4.382   9.214
99858SOL     OW 1412   1.270  14.849   2.720
99858SOL    HW1 1413   1.288   0.053   2.667
99858SOL    HW2 1414   1.350  14.797   2.714
99859SOL     OW 1415   2.386  11.914   0.740
99859SOL    HW1 1416   2.325  11.862   0.688
99859SOL    HW2 1417   2.442  11.956   0.676
99860SOL     OW 1418  13.679  14.053   4.020
99860SOL    HW1 1419  13.622  14.048   3.943
99860SOL    HW2 1420  13.752  13.994   3.999
99861SOL     OW 1421  13.687  12.420   8.764
99861SOL    HW1 1422  13.739  12.415   8.844
99861SOL    HW2 1423  13.627  12.492   8.778
99862SOL     OW 1424   4.764   0.422   2.256
99862SOL    HW1 1425   4.859   0.418   2.261
99862SOL    HW2 1426   4.735   0.336   2.286
99863SOL     OW 1427   6.161  14.579  11.172
99863SOL    HW1 1428   6.079  14.622  11.195
99863SOL    HW2 1429   6.183  14.614  11.085
99864SOL     OW 1430  10.793   0.920   6.086
99864SOL    HW1 1431  10.720   0.981   6.073
99864SOL    HW2 1432  10.757   0.850   6.141
99865SOL     OW 1433   0.855  14.764   5.004
99865SOL    HW1 1434   0.865  14.681   4.958
99865SOL    HW2 1435   0.832  14.827   4.936
99866SOL     OW 1436   9.148   3.549   8.207
99866SOL    HW1 1437   9.123   3.492   8.280
99866SOL    HW2 1438   9.084   3.532   8.139
99867SOL     OW 1439  13.619   7.892   3.482
99867SOL    HW1 1440  13.526   7.912   3.491
99867SOL    HW2 1441  13.632   7.877   3.388
99868SOL     OW 1442  12.892   5.630   8.330
99868SOL    HW1 1443  12.813   5.609   8.380
99868SOL    HW2 1444  12.950   5.555   8.344
99869SOL     OW 1445  10.390  13.867   5.788
99869SOL    HW1 1446  10.312  13.912   5.755
99869SOL    HW2 1447  10.461  13.898   5.731
99870SOL     OW 1448   3.377   8.929   1.505
99870SOL    HW1 1449   3.286   8.953   1.518
99870SOL    HW2 1450   3.380   8.894   1.416
99871SOL     OW 1451  11.895   3.048  12.768
99871SOL    HW1 1452  11.904   3.126  12.713
99871SOL    HW2 1453  11.930   3.074  12.853
99872SOL     OW 1454   5.562   1.791   4.315
99872SOL    HW1 1455   5.575   1.792   4.410
99872SOL    HW2 1456   5.595   1.876   4.285
99873SOL     OW 1457   9.514  14.768   3.465
99873SOL    HW1 1458   9.420  14.784   3.470
99873SOL    HW2 1459   9.547  14.788   3.552
99874SOL     OW 1460  14.391  11.490   7.162
99874SOL    HW1 1461  14.469  11.460   7.210
99874SOL    HW2 1462  14.344  11.409   7.142
99875SOL     OW 1463   7.144   3.786  12.067
99875SOL    HW1 1464   7.175   3.822  11.984
99875SOL    HW2 1465   7.160   3.692  12.060
99876SOL     OW 1466   0.064   1.256   9.747
99876SOL    HW1 1467   0.025   1.316   9.811
99876SOL    HW2 1468  14.867   1.239   9.685
99877SOL     OW 1469  10.035   2.458   4.384
99877SOL    HW1 1470   9.986   2.492   4.309
99877SOL    HW2 1471  10.119   2.505   4.381
99878SOL     OW 1472  14.131   3.134   4.682
99878SOL    HW1 1473  14.183   3.213   4.670
99878SOL    HW2 1474  14.195   3.063   4.683
99879SOL     OW 1475   6.179   5.485  11.972
99879SOL    HW1 1476   6.212   5.555  12.028
99879SOL    HW2 1477   6.118   5.529  11.912
99880SOL     OW 1478   2.893   3.160   1.408
99880SOL    HW1 1479   2.902   3.121   1.321
99880SOL    HW2 1480   2.983   3.171   1.439
99881SOL     OW 1481  12.299   7.262   6.485
99881SOL    HW1 1482  12.253   7.247   6.402
99881SOL    HW2 1483  12.322   7.355   6.482
99882SOL     OW 1484   7.045  12.396   7.688
99882SOL    HW1 1485   7.093  12.428   7.611
99882SOL    HW2 1486   7.055  12.301   7.684
99883SOL     OW 1487  12.399   7.621  10.847
99883SOL    HW1 1488  12.355   7.570  10.780
99883SOL    HW2 1489  12.488   7.585  10.851
99884SOL     OW 1490   6.913  12.514   2.983
99884SOL    HW1 1491   6.988  12.460   3.006
99884SOL    HW2 1492   6.939  12.558   2.902
99885SOL     OW 1493   8.990  11.360   3.876
99885SOL    HW1 1494   8.936  11.409   3.813
99885SOL    HW2 1495   9.007  11.423   3.947
99886SOL     OW 1496   2.855   5.494   4.896
99886SOL    HW1 1497   2.930   5.501   4.956
99886SOL    HW2 1498   2.783   5.535   4.944
99887SOL     OW 1499  10.510   5.316   8.242
99887SOL    HW1 1500  10.463   5.234   8.262
99887SOL    HW2 1501  10.601   5.289   8.229
99888SOL     OW 1502  10.010   7.283   7.081
99888SOL    HW1 1503   9.974   7.300   7.168
99888SOL    HW2 1504   9.936   7.294   7.021
99889SOL     OW 1505   1.842  12.601   8.773
99889SOL    HW1 1506   1.751  12.574   8.763
99889SOL    HW2 1507   1.893  12.527   8.742
99890SOL     OW 1508   9.654   7.693   2.218
99890SOL    HW1 1509   9.729   7.659   2.168
99890SOL    HW2 1510   9.694   7.729   2.297
99891SOL     OW 1511  11.938   6.905  13.320
99891SOL    HW1 1512  11.901   6.878  13.404
99891SOL    HW2 1513  12.032   6.887  13.328
99892SOL     OW 1514  13.711   7.787   0.342
99892SOL    HW1 1515  13.778   7.815   0.404
99892SOL    HW2 1516  13.683   7.867   0.297
99893SOL     OW 1517   7.310  13.835   8.891
99893SOL    HW1 1518   7.384  13.872   8.938
99893SOL    HW2 1519   7.305  13.886   8.810
99894SOL     OW 1520  10.838   7.550   5.092
99894SOL    HW1 1521  10.907   7.506   5.141
99894SOL    HW2 1522  10.766   7.487   5.089
99895SOL     OW 1523   4.086   4.895  12.327
99895SOL    HW1 1524   4.054   4.909  12.238
99895SOL    HW2 1525   4.180   4.913  12.322
99896SOL     OW 1526  14.764  14.161  12.692
99896SOL    HW1 1527  14.777  14.068  12.711
99896SOL    HW2 1528  14.851  14.192  12.667
99897SOL     OW 1529   4.696   1.473   4.136
99897SOL    HW1 1530   4.633   1.474   4.208
99897SOL    HW2 1531   4.707   1.565   4.113
99898SOL     OW 1532  11.114   2.842   8.194
99898SOL    HW1 1533  11.024   2.861   8.168
99898SOL    HW2 1534  11.106   2.761   8.245
99899SOL     OW 1535   1.894   3.408   7.655
99899SOL    HW1 1536   1.949   3.358   7.595
99899SOL    HW2 1537   1.822   3.349   7.676
99900SOL     OW 1538   7.598  14.165   7.741
99900SOL    HW1 1539   7.593  14.070   7.737
99900SOL    HW2 1540   7.508  14.194   7.723
99901SOL     OW 1541   0.044   7.466   7.907
99901SOL    HW1 1542   0.028   7.557   7.881
99901SOL    HW2 1543   0.109   7.473   7.978
99902SOL     OW 1544  14.602   1.037  13.046
99902SOL    HW1 1545  14.569   0.969  12.986
99902SOL    HW2 1546  14.530   1.050  13.108
99903SOL     OW 1547   9.235  12.884  14.588
99903SOL    HW1 1548   9.157  12.846  14.547
99903SOL    HW2 1549   9.200  12.947  14.652
99904SOL     OW 1550   4.265  11.931  13.981
99904SOL    HW1 1551   4.282  11.956  14.071
99904SOL    HW2 1552   4.173  11.907  13.979
99905SOL     OW 1553   6.565  12.339   0.849
99905SOL    HW1 1554   6.509  12.309   0.777
99905SOL    HW2 1555   6.547  12.278   0.920
99906SOL     OW 1556  11.094   0.610   5.473
99906SOL    HW1 1557  11.019   0.622   5.531
99906SOL    HW2 1558  11.111   0.516   5.476
99907SOL     OW 1559  12.406   5.576   5.624
99907SOL    HW1 1560  12.428   5.658   5.580
99907SOL    HW2 1561  12.445   5.508   5.569
99908SOL     OW 1562  11.046   2.558  13.699
99908SOL    HW1 1563  11.044   2.466  13.727
99908SOL    HW2 1564  11.136   2.586  13.716
99909SOL     OW 1565   0.832   2.334  14.527
99909SOL    HW1 1566   0.790   2.271  14.585
99909SOL    HW2 1567   0.912   2.359  14.573
99910SOL     OW 1568   7.673   8.752   6.488
99910SOL    HW1 1569   7.628   8.816   6.543
99910SOL    HW2 1570   7.764   8.782   6.484
99911SOL     OW 1571   5.697  10.405  12.505
99911SOL    HW1 1572   5.686  10.323  12.457
99911SOL    HW2 1573   5.791  10.419  12.507
99912SOL     OW 1574   1.595  11.772   0.449
99912SOL    HW1 1575   1.683  11.739   0.462
99912SOL    HW2 1576   1.607  11.857   0.406
99913SOL     OW 1577   0.652   3.934   1.248
99913SOL    HW1 1578   0.647   4.023   1.214
99913SOL    HW2 1579   0.637   3.943   1.342
99914SOL     OW 1580   3.655   9.717   2.523
99914SOL    HW1 1581   3.580   9.770   2.547
99914SOL    HW2 1582   3.696   9.693   2.607
99915SOL     OW 1583   9.588   4.681   5.402
99915SOL    HW1 1584   9.527   4.754   5.394
99915SOL    HW2 1585   9.662   4.717   5.452
99916SOL     OW 1586  11.019   4.368  10.788
99916SOL    HW1 1587  10.986   4.393  10.874
99916SOL    HW2 1588  11.112   4.350  10.802
99917SOL     OW 1589   5.018   3.583   9.376
99917SOL    HW1 1590   5.108   3.595   9.404
99917SOL    HW2 1591   4.980   3.671   9.378
99918SOL     OW 1592   8.839  11.369   6.014
99918SOL    HW1 1593   8.840  11.414   5.929
99918SOL    HW2 1594   8.781  11.294   6.000
99919SOL     OW 1595  14.563   4.762  11.359
99919SOL    HW1 1596  14.619   4.839  11.367
99919SOL    HW2 1597  14.501   4.785  11.290
99920SOL     OW 1598   3.666   7.800   3.964
99920SOL    HW1 1599   3.640   7.881   4.007
99920SOL    HW2 1600   3.742   7.770   4.014
99921SOL     OW 1601   8.805   1.255  12.718
99921SOL    HW1 1602   8.771   1.344  12.722
99921SOL    HW2 1603   8.791   1.228  12.628
99922SOL     OW 1604   4.994   5.291   1.820
99922SOL    HW1 1605   4.968   5.329   1.904
99922SOL    HW2 1606   4.987   5.363   1.758
99923SOL     OW 1607   7.096   0.207  10.951
99923SOL    HW1 1608   7.072   0.182  10.861
99923SOL    HW2 1609   7.013   0.215  10.996
99924SOL     OW 1610  12.039  12.320   5.396
99924SOL    HW1 1611  12.008  12.288   5.311
99924SOL    HW2 1612  11.999  12.407   5.405
99925SOL     OW 1613  11.486   7.738   9.691
99925SOL    HW1 1614  11.549   7.677   9.652
99925SOL    HW2 1615  11.448   7.783   9.616
99926SOL     OW 1616  10.507   6.101  11.893
99926SOL    HW1 1617  10.595   6.113  11.929
99926SOL    HW2 1618  10.519   6.106  11.799
99927SOL     OW 1619   8.714   3.422   0.612
99927SOL    HW1 1620   8.726   3.393   0.703
99927SOL    HW2 1621   8.801   3.448   0.583
99928SOL     OW 1622   1.683   3.805   8.448
99928SOL    HW1 1623   1.687   3.745   8.373
99928SOL    HW2 1624   1.774   3.823   8.470
99929SOL     OW 1625  14.782   0.934   9.423
99929SOL    HW1 1626  14.752   0.846   9.445
99929SOL    HW2 1627  14.705   0.978   9.387
99930SOL     OW 1628  13.780   5.148   1.575
99930SOL    HW1 1629  13.703   5.107   1.536
99930SOL    HW2 1630  13.755   5.240   1.586
99931SOL     OW 1631   8.849   7.685  10.626
99931SOL    HW1 1632   8.858   7.591  10.641
99931SOL    HW2 1633   8.884   7.726  10.705
99932SOL     OW 1634  12.122   6.317   5.932
99932SOL    HW1 1635  12.052   6.326   5.997
99932SOL    HW2 1636  12.157   6.405   5.922
99933SOL     OW 1637  11.637  13.760  13.264
99933SOL    HW1 1638  11.568  13.757  13.197
99933SOL    HW2 1639  11.604  13.705  13.335
99934SOL     OW 1640   8.744   8.278   2.832
99934SOL    HW1 1641   8.680   8.296   2.901
99934SOL    HW2 1642   8.769   8.187   2.846
99935SOL     OW 1643  10.681   4.658   6.760
99935SOL    HW1 1644  10.698   4.659   6.666
99935SOL    HW2 1645  10.732   4.732   6.793
99936SOL     OW 1646   1.849   1.380  14.483
99936SOL    HW1 1647   1.846   1.464  14.529
99936SOL    HW2 1648   1.879   1.317  14.548
99937SOL     OW 1649  10.346   3.762   1.402
99937SOL    HW1 1650  10.304   3.768   1.317
99937SOL    HW2 1651  10.362   3.668   1.414
99938SOL     OW 1652  11.272  13.358   0.563
99938SOL    HW1 1653  11.195  13.302   0.557
99938SOL    HW2 1654  11.304  13.364   0.473
99939SOL     OW 1655   3.665   7.889  10.960
99939SOL    HW1 1656   3.574   7.891  10.988
99939SOL    HW2 1657   3.678   7.971  10.913
99940SOL     OW 1658   2.321   1.312   6.206
99940SOL    HW1 1659   2.319   1.375   6.134
99940SOL    HW2 1660   2.228   1.297   6.226
99941SOL     OW 1661   9.402   4.325   6.729
99941SOL    HW1 1662   9.405   4.268   6.653
99941SOL    HW2 1663   9.451   4.278   6.797
99942SOL     OW 1664   9.631   4.582   3.817
99942SOL    HW1 1665   9.661   4.572   3.727
99942SOL    HW2 1666   9.588   4.668   3.819
99943SOL     OW 1667   6.066   6.860   2.470
99943SOL    HW1 1668   6.123   6.844   2.394
99943SOL    HW2 1669   6.125   6.892   2.538
99944SOL     OW 1670   6.325   5.762   9.214
99944SOL    HW1 1671   6.372   5.698   9.269
99944SOL    HW2 1672   6.266   5.806   9.275
99945SOL     OW 1673  13.886  13.533  14.867
99945SOL    HW1 1674  13.879  13.549  14.773
99945SOL    HW2 1675  13.967  13.575   0.020
99946SOL     OW 1676   5.589   0.480  10.441
99946SOL    HW1 1677   5.680   0.509  10.433
99946SOL    HW2 1678   5.578   0.462  10.534
99947SOL     OW 1679   2.993   3.200   0.332
99947SOL    HW1 1680   2.907   3.231   0.305
99947SOL    HW2 1681   2.986   3.104   0.330
99948SOL     OW 1682   5.052  10.786   6.328
99948SOL    HW1 1683   5.096  10.711   6.289
99948SOL    HW2 1684   5.119  10.854   6.332
99949SOL     OW 1685   5.532   3.943  11.433
99949SOL    HW1 1686   5.586   3.956  11.511
99949SOL    HW2 1687   5.475   3.869  11.456
99950SOL     OW 1688   6.626   9.224   6.102
99950SOL    HW1 1689   6.634   9.131   6.080
99950SOL    HW2 1690   6.693   9.239   6.170
99951SOL     OW 1691   9.150   0.333  12.758
99951SOL    HW1 1692   9.242   0.319  12.739
99951SOL    HW2 1693   9.119   0.392  12.689
99952SOL     OW 1694  12.155   0.030   6.018
99952SOL    HW1 1695  12.168  14.848   5.941
99952SOL    HW2 1696  12.092   0.096   5.989
99953SOL     OW 1697  10.770   3.116   9.435
99953SOL    HW1 1698  10.833   3.126   9.506
99953SOL    HW2 1699  10.733   3.204   9.423
99954SOL     OW 1700   6.004   3.478   3.459
99954SOL    HW1 1701   5.915   3.460   3.488
99954SOL    HW2 1702   6.011   3.434   3.374
99955SOL     OW 1703   7.561   8.640  11.588
99955SOL    HW1 1704   7.511   8.673  11.513
99955SOL    HW2 1705   7.638   8.697  11.593
99956SOL     OW 1706  14.025   0.314   9.514
99956SOL    HW1 1707  14.051   0.366   9.438
99956SOL    HW2 1708  14.073   0.232   9.505
99957SOL     OW 1709   4.786   6.344   0.262
99957SOL    HW1 1710   4.708   6.362   0.210
99957SOL    HW2 1711   4.777   6.402   0.338
99958SOL     OW 1712   3.696   8.492   6.119
99958SOL    HW1 1713   3.662   8.406   6.144
99958SOL    HW2 1714   3.653   8.553   6.178
99959SOL     OW 1715   1.862   4.162   0.545
99959SOL    HW1 1716   1.931   4.221   0.576
99959SOL    HW2 1717   1.908   4.079   0.529
99960SOL     OW 1718   7.235   0.080   5.293
99960SOL    HW1 1719   7.186   0.161   5.310
99960SOL    HW2 1720   7.260   0.048   5.379
99961SOL     OW 1721   4.623   7.198  11.669
99961SOL    HW1 1722   4.584   7.135  11.731
99961SOL    HW2 1723   4.591   7.283  11.699
99962SOL     OW 1724  10.666   5.808   9.703
99962SOL    HW1 1725  10.657   5.755   9.624
99962SOL    HW2 1726  10.578   5.810   9.741
99963SOL     OW 1727  13.824  10.911   8.275
99963SOL    HW1 1728  13.789  10.854   8.344
99963SOL    HW2 1729  13.776  10.885   8.196
99964SOL     OW 1730   9.607   6.111  13.319
99964SOL    HW1 1731   9.601   6.196  13.362
99964SOL    HW2 1732   9.581   6.128  13.228
99965SOL     OW 1733  10.660   0.790   8.975
99965SOL    HW1 1734  10.575   0.751   8.953
99965SOL    HW2 1735  10.724   0.725   8.946
99966SOL     OW 1736   2.323   7.230  14.847
99966SOL    HW1 1737   2.325   7.237  14.751
99966SOL    HW2 1738   2.233   7.250  14.870
99967SOL     OW 1739   9.963  13.440   3.358
99967SOL    HW1 1740   9.927  13.518   3.315
99967SOL    HW2 1741   9.930  13.367   3.306
99968SOL     OW 1742   7.440   2.200  13.338
99968SOL    HW1 1743   7.437   2.105  13.333
99968SOL    HW2 1744   7.531   2.220  13.361
99969SOL     OW 1745   6.711   1.744  10.787
99969SOL    HW1 1746   6.705   1.788  10.702
99969SOL    HW2 1747   6.797   1.770  10.822
99970SOL     OW 1748  13.323   2.208  12.655
99970SOL    HW1 1749  13.330   2.166  12.568
99970SOL    HW2 1750  13.239   2.254  12.652
99971SOL     OW 1751   5.467   6.324  10.525
99971SOL    HW1 1752   5.480   6.394  10.460
99971SOL    HW2 1753   5.439   6.249  10.474
99972SOL     OW 1754   1.214   9.955  11.720
99972SOL    HW1 1755   1.259   9.917  11.645
99972SOL    HW2 1756   1.122   9.930  11.709
99973SOL     OW 1757   7.534  13.377   9.100
99973SOL    HW1 1758   7.556  13.352   9.190
99973SOL    HW2 1759   7.562  13.303   9.047
99974SOL     OW 1760   1.058  12.786   9.195
99974SOL    HW1 1761   1.128  12.723   9.179
99974SOL    HW2 1762   1.037  12.775   9.288
99975SOL     OW 1763   5.557  10.785   1.297
99975SOL    HW1 1764   5.634  10.829   1.334
99975SOL    HW2 1765   5.518  10.851   1.240
99976SOL     OW 1766   1.710   3.195   5.626
99976SOL    HW1 1767   1.743   3.218   5.539
99976SOL    HW2 1768   1.734   3.103   5.637
99977SOL     OW 1769  13.974   6.100   7.544
99977SOL    HW1 1770  13.974   6.121   7.638
99977SOL    HW2 1771  13.925   6.018   7.538
99978SOL     OW 1772   7.089   9.697   1.476
99978SOL    HW1 1773   7.008   9.679   1.524
99978SOL    HW2 1774   7.119   9.610   1.447
99979SOL     OW 1775   0.842   9.628  11.815
99979SOL    HW1 1776   0.924   9.630  11.865
99979SOL    HW2 1777   0.804   9.715  11.828
99980SOL     OW 1778   9.735  11.717  13.876
99980SOL    HW1 1779   9.690  11.798  13.850
99980SOL    HW2 1780   9.780  11.689  13.797
99981SOL     OW 1781   8.565   3.355   1.260
99981SOL    HW1 1782   8.493   3.296   1.241
99981SOL    HW2 1783   8.554   3.428   1.199
99982SOL     OW 1784  13.321  12.213   0.550
99982SOL    HW1 1785  13.340  12.184   0.460
99982SOL    HW2 1786  13.349  12.304   0.553
99983SOL     OW 1787   0.782   0.026   0.921
99983SOL    HW1 1788   0.720  14.859   0.860
99983SOL    HW2 1789   0.772  14.849   1.002
99984SOL     OW 1790   6.864   3.126   8.245
99984SOL    HW1 1791   6.893   3.148   8.157
99984SOL    HW2 1792   6.931   3.067   8.279
99985SOL     OW 1793   9.762   4.063   1.002
99985SOL    HW1 1794   9.765   3.973   0.970
99985SOL    HW2 1795   9.826   4.066   1.074
99986SOL     OW 1796  12.078   0.293   6.184
99986SOL    HW1 1797  12.077   0.389   6.177
99986SOL    HW2 1798  12.026   0.263   6.109
99987SOL     OW 1799   2.022   1.403  11.900
99987SOL    HW1 1800   2.050   1.494  11.908
99987SOL    HW2 1801   2.101   1.356  11.874
99988SOL     OW 1802   8.253  13.076   3.688
99988SOL    HW1 1803   8.252  13.162   3.730
99988SOL    HW2 1804   8.307  13.088   3.610
99989SOL     OW 1805   9.491   9.384  10.959
99989SOL    HW1 1806   9.581   9.366  10.932
99989SOL    HW2 1807   9.437   9.350  10.887
99990SOL     OW 1808   3.034  11.896   2.123
99990SOL    HW1 1809   3.113  11.891   2.070
99990SOL    HW2 1810   2.983  11.968   2.085
99991SOL     OW 1811   2.702   3.813  14.635
99991SOL    HW1 1812   2.673   3.786  14.547
99991SOL    HW2 1813   2.672   3.904  14.642
99992SOL     OW 1814   4.313  11.247   9.379
99992SOL    HW1 1815   4.244  11.250   9.445
99992SOL    HW2 1816   4.265  11.235   9.296
99993SOL     OW 1817   2.425   1.079  10.537
99993SOL    HW1 1818   2.341   1.042  10.564
99993SOL    HW2 1819   2.401   1.160  10.492
99994SOL     OW 1820   8.050   2.128   1.089
99994SOL    HW1 1821   8.062   2.209   1.140
99994SOL    HW2 1822   8.134   2.115   1.045
99995SOL     OW 1823   2.737  11.789  14.457
99995SOL    HW1 1824   2.795  11.865  14.462
99995SOL    HW2 1825   2.730  11.771  14.363
99996SOL     OW 1826   5.814   1.591   5.684
99996SOL    HW1 1827   5.799   1.497   5.685
99996SOL    HW2 1828   5.892   1.604   5.739
99997SOL     OW 1829   2.282  14.814  12.179
99997SOL    HW1 1830   2.217  14.869  12.137
99997SOL    HW2 1831   2.366  14.846  12.145
99998SOL     OW 1832   0.198   2.393   0.331
99998SOL    HW1 1833   0.131   2.325   0.316
99998SOL    HW2 1834   0.247   2.361   0.407
99999SOL     OW 1835   2.455   4.952  10.324
99999SOL    HW1 1836   2.403   5.005  10.385
99999SOL    HW2 1837   2.473   4.871  10.371
    0SOL     OW 1838  13.328   7.195   7.448
    0SOL    HW1 1839  13.249   7.206   7.395
    0SOL    HW2 1840  13.385   7.141   7.394
    1SOL     OW 1841   6.315   3.085  11.926
    1SOL    HW1 1842   6.228   3.060  11.955
    1SOL    HW2 1843   6.305   3.175  11.894
    2SOL     OW 1844   9.281  10.039   5.275
    2SOL    HW1 1845   9.194  10.010   5.303
    2SOL    HW2 1846   9.265  10.121   5.229
    3SOL     OW 1847   1.929   3.544   6.183
    3SOL    HW1 1848   2.016   3.523   6.216
    3SOL    HW2 1849   1.932   3.521   6.090
    4SOL     OW 1850  11.245   8.750   4.743
    4SOL    HW1 1851  11.223   8.828   4.794
    4SOL    HW2 1852  11.337   8.762   4.719
    5SOL     OW 1853  12.124  13.979   2.595
    5SOL    HW1 1854  12.042  14.026   2.611
    5SOL    HW2 1855  12.097  13.894   2.561
    6SOL     OW 1856   2.124  11.573   5.221
    6SOL    HW1 1857   2.199  11.617   5.181
    6SOL    HW2 1858   2.162  11.502   5.273
    7SOL     OW 1859  12.848  12.370  10.803
    7SOL    HW1 1860  12.879  12.429  10.872
    7SOL    HW2 1861  12.907  12.385  10.729
    8SOL     OW 1862  11.075   2.887  12.446
    8SOL    HW1 1863  11.108   2.833  12.375
    8SOL    HW2 1864  11.145   2.886  12.512
    9SOL     OW 1865   5.445  11.646  10.818
    9SOL    HW1 1866   5.484  11.672  10.901
    9SOL    HW2 1867   5.406  11.726  10.783
   10SOL     OW 1868  10.891  14.528   1.265
   10SOL    HW1 1869  10.896  14.449   1.211
   10SOL    HW2 1870  10.937  14.595   1.213
   11SOL     OW 1871   6.893   8.576  13.404
   11SOL    HW1 1872   6.941   8.494  13.392
   11SOL    HW2 1873   6.883   8.585  13.499
   12SOL     OW 1874   2.108   3.733   5.177
   12SOL    HW1 1875   2.022   3.728   5.220
   12SOL    HW2 1876   2.147   3.814   5.211
   13SOL     OW 1877   8.236  14.517   0.634
   13SOL    HW1 1878   8.245  14.580   0.563
   13SOL    HW2 1879   8.274  14.436   0.599
   14SOL     OW 1880  12.284   3.510   8.310
   14SOL    HW1 1881  12.277   3.439   8.373
   14SOL    HW2 1882  12.316   3.585   8.361
   15SOL     OW 1883  13.871   0.950  12.459
   15SOL    HW1 1884  13.782   0.931  12.430
   15SOL    HW2 1885  13.918   0.867  12.451
   16SOL     OW 1886   0.455  11.637   3.880
   16SOL    HW1 1887   0.499  11.553   3.888
   16SOL    HW2 1888   0.435  11.645   3.787
   17SOL     OW 1889  12.063  11.206  11.868
   17SOL    HW1 1890  12.126  11.268  11.831
   17SOL    HW2 1891  12.043  11.241  11.955
   18SOL     OW 1892   2.687   5.639   5.797
   18SOL    HW1 1893   2.701   5.636   5.702
   18SOL    HW2 1894   2.668   5.731   5.815
   19SOL     OW 1895   4.745  11.758   2.460
   19SOL    HW1 1896   4.659  11.723   2.439
   19SOL    HW2 1897   4.752  11.748   2.555
   20SOL     OW 1898   0.843  11.172   1.489
   20SOL    HW1 1899   0.749  11.154   1.488
   20SOL    HW2 1900   0.865  11.185   1.397
   21SOL     OW 1901   8.403  13.588   7.816
   21SOL    HW1 1902   8.436  13.669   7.855
   21SOL    HW2 1903   8.316  13.577   7.854
   22SOL     OW 1904   9.308   5.517   2.245
   22SOL    HW1 1905   9.216   5.543   2.242
   22SOL    HW2 1906   9.356   5.592   2.210
   23SOL     OW 1907   4.950   7.909   6.737
   23SOL    HW1 1908   5.042   7.906   6.711
   23SOL    HW2 1909   4.943   7.986   6.794
   24SOL     OW 1910   1.422  11.753  11.395
   24SOL    HW1 1911   1.474  11.676  11.374
   24SOL    HW2 1912   1.444  11.816  11.327
   25SOL     OW 1913   8.479   6.603   1.091
   25SOL    HW1 1914   8.408   6.604   1.155
   25SOL    HW2 1915   8.542   6.540   1.125
   26SOL     OW 1916   8.962  14.177  11.333
   26SOL    HW1 1917   8.935  14.178  11.241
   26SOL    HW2 1918   9.047  14.222  11.334
   27SOL     OW 1919  10.589   0.106   4.459
   27SOL    HW1 1920  10.531   0.121   4.384
   27SOL    HW2 1921  10.674   0.087   4.419
   28SOL     OW 1922  14.750   6.054  11.282
   28SOL    HW1 1923  14.769   6.131  11.227
   28SOL    HW2 1924  14.721   5.987  11.220
   29SOL     OW 1925  13.470   2.405   7.193
   29SOL    HW1 1926  13.478   2.434   7.102
   29SOL    HW2 1927  13.385   2.439   7.221
   30SOL     OW 1928   9.845   1.492   6.774
   30SOL    HW1 1929   9.849   1.516   6.681
   30SOL    HW2 1930   9.782   1.420   6.778
   31SOL     OW 1931  13.937   8.186  13.804
   31SOL    HW1 1932  13.967   8.185  13.713
   31SOL    HW2 1933  14.005   8.141  13.853
   32SOL     OW 1934  11.604   3.568   4.213
   32SOL    HW1 1935  11.575   3.659   4.218
   32SOL    HW2 1936  11.556   3.532   4.139
   33SOL     OW 1937  14.275   1.124   8.934
   33SOL    HW1 1938  14.283   1.161   8.846
   33SOL    HW2 1939  14.269   1.201   8.991
   34SOL     OW 1940   3.047   8.065   2.537
   34SOL    HW1 1941   3.091   8.001   2.594
   34SOL    HW2 1942   2.999   8.122   2.597
   35SOL     OW 1943   0.811  10.365  13.545
   35SOL    HW1 1944   0.726  10.325  13.562
   35SOL    HW2 1945   0.870  10.291  13.529
   36SOL     OW 1946  11.250   9.837   9.413
   36SOL    HW1 1947  11.333   9.877   9.438
   36SOL    HW2 1948  11.269   9.789   9.333
   37SOL     OW 1949  14.477  10.625  10.569
   37SOL    HW1 1950  14.554  10.674  10.596
   37SOL    HW2 1951  14.442  10.674  10.494
   38SOL     OW 1952  14.349   8.572  14.125
   38SOL    HW1 1953  14.389   8.572  14.212
   38SOL    HW2 1954  14.417   8.608  14.068
   39SOL     OW 1955   0.853   8.281   9.971
   39SOL    HW1 1956   0.921   8.293  10.037
   39SOL    HW2 1957   0.786   8.228  10.015
   40SOL     OW 1958  14.058  11.033   0.379
   40SOL    HW1 1959  14.149  11.044   0.409
   40SOL    HW2 1960  14.026  10.959   0.430
   41SOL     OW 1961   6.866   3.228   6.223
   41SOL    HW1 1962   6.798   3.218   6.157
   41SOL    HW2 1963   6.890   3.321   6.219
   42SOL     OW 1964  10.210   4.833   8.164
   42SOL    HW1 1965  10.181   4.925   8.163
   42SOL    HW2 1966  10.229   4.813   8.072
   43SOL     OW 1967   8.664   0.594  10.101
   43SOL    HW1 1968   8.589   0.631  10.054
   43SOL    HW2 1969   8.627   0.566  10.185
   44SOL     OW 1970   9.581   3.730   6.447
   44SOL    HW1 1971   9.660   3.742   6.500
   44SOL    HW2 1972   9.587   3.640   6.416
   45SOL     OW 1973   7.212   0.438   8.580
   45SOL    HW1 1974   7.285   0.492   8.610
   45SOL    HW2 1975   7.142   0.453   8.643
   46SOL     OW 1976   8.490   1.742   2.507
   46SOL    HW1 1977   8.539   1.721   2.428
   46SOL    HW2 1978   8.549   1.719   2.579
   47SOL     OW 1979  13.466   1.085  14.200
   47SOL    HW1 1980  13.522   1.008  14.211
   47SOL    HW2 1981  13.405   1.081  14.274
   48SOL     OW 1982   2.219  11.444  12.416
   48SOL    HW1 1983   2.252  11.531  12.440
   48SOL    HW2 1984   2.138  11.461  12.368
   49SOL     OW 1985   4.527   4.225   2.971
   49SOL    HW1 1986   4.517   4.282   2.894
   49SOL    HW2 1987   4.457   4.161   2.962
   50SOL     OW 1988   4.492   7.295  13.778
   50SOL    HW1 1989   4.512   7.314  13.869
   50SOL    HW2 1990   4.571   7.251  13.745
   51SOL     OW 1991   9.476   4.319   1.050
   51SOL    HW1 1992   9.510   4.287   1.134
   51SOL    HW2 1993   9.475   4.242   0.994
   52SOL     OW 1994  12.239   2.434   6.435
   52SOL    HW1 1995  12.297   2.401   6.503
   52SOL    HW2 1996  12.231   2.528   6.453
   53SOL     OW 1997  14.128   2.375   3.828
   53SOL    HW1 1998  14.186   2.388   3.902
   53SOL    HW2 1999  14.186   2.349   3.756
   54SOL     OW 2000   4.406   7.702  10.303
   54SOL    HW1 2001   4.381   7.658  10.384
   54SOL    HW2 2002   4.494   7.735  10.321
   55SOL     OW 2003  10.936   3.555   2.924
   55SOL    HW1 2004  10.873   3.496   2.883
   55SOL    HW2 2005  10.891   3.587   3.002
   56SOL     OW 2006  14.364   8.820   4.928
   56SOL    HW1 2007  14.391   8.902   4.968
   56SOL    HW2 2008  14.413   8.816   4.845
   57SOL     OW 2009   8.209   0.146   9.401
   57SOL    HW1 2010   8.234   0.107   9.318
   57SOL    HW2 2011   8.114   0.148   9.399
   58SOL     OW 2012  14.356   4.646   4.384
   58SOL    HW1 2013  14.286   4.694   4.428
   58SOL    HW2 2014  14.390   4.707   4.320
   59SOL     OW 2015  10.654   2.638   4.584
   59SOL    HW1 2016  10.661   2.661   4.677
   59SOL    HW2 2017  10.729   2.681   4.543
   60SOL     OW 2018   2.600   3.339   2.523
   60SOL    HW1 2019   2.597   3.434   2.535
   60SOL    HW2 2020   2.568   3.325   2.434
   61SOL     OW 2021   1.734   8.119   2.552
   61SOL    HW1 2022   1.755   8.164   2.634
   61SOL    HW2 2023   1.812   8.068   2.532
   62SOL     OW 2024   2.863   0.239   8.149
   62SOL    HW1 2025   2.947   0.265   8.187
   62SOL    HW2 2026   2.869   0.144   8.140
   63SOL     OW 2027  11.148  10.764   6.238
   63SOL    HW1 2028  11.061  10.726   6.229
   63SOL    HW2 2029  11.182  10.728   6.320
   64SOL     OW 2030   3.373  11.375   2.267
   64SOL    HW1 2031   3.368  11.305   2.332
   64SOL    HW2 2032   3.353  11.455   2.316
   65SOL     OW 2033   2.810   5.174   5.463
   65SOL    HW1 2034   2.903   5.199   5.462
   65SOL    HW2 2035   2.772   5.225   5.535
   66SOL     OW 2036  10.737   9.487  12.406
   66SOL    HW1 2037  10.745   9.551  12.336
   66SOL    HW2 2038  10.684   9.416  12.369
   67SOL     OW 2039  10.898   0.997  12.608
   67SOL    HW1 2040  10.932   0.968  12.692
   67SOL    HW2 2041  10.847   1.075  12.628
   68SOL     OW 2042   8.174   5.522   8.932
   68SOL    HW1 2043   8.176   5.476   9.016
   68SOL    HW2 2044   8.117   5.597   8.947
   69SOL     OW 2045   8.045  12.855   1.454
   69SOL    HW1 2046   8.112  12.923   1.464
   69SOL    HW2 2047   8.021  12.832   1.544
   70SOL     OW 2048  12.582   6.702   3.991
   70SOL    HW1 2049  12.507   6.681   4.047
   70SOL    HW2 2050  12.636   6.623   3.994
   71SOL     OW 2051   7.515   8.852  14.711
   71SOL    HW1 2052   7.481   8.916  14.649
   71SOL    HW2 2053   7.570   8.903  14.770
   72SOL     OW 2054   2.121  13.814   4.408
   72SOL    HW1 2055   2.082  13.731   4.436
   72SOL    HW2 2056   2.106  13.816   4.313
   73SOL     OW 2057   8.085  12.774   2.150
   73SOL    HW1 2058   8.103  12.717   2.224
   73SOL    HW2 2059   8.130  12.732   2.076
   74SOL     OW 2060  14.029   0.105   9.935
   74SOL    HW1 2061  13.989   0.181   9.979
   74SOL    HW2 2062  13.963   0.076   9.872
   75SOL     OW 2063   0.519  10.102   3.096
   75SOL    HW1 2064   0.539  10.139   3.182
   75SOL    HW2 2065   0.599  10.058   3.069
   76SOL     OW 2066   7.374   7.267   0.682
   76SOL    HW1 2067   7.371   7.348   0.631
   76SOL    HW2 2068   7.329   7.288   0.763
   77SOL     OW 2069  12.785   9.871   1.540
   77SOL    HW1 2070  12.809   9.867   1.632
   77SOL    HW2 2071  12.734   9.792   1.525
   78SOL     OW 2072  13.281   6.217   7.674
   78SOL    HW1 2073  13.243   6.280   7.736
   78SOL    HW2 2074  13.277   6.133   7.720
   79SOL     OW 2075  14.263   7.193   9.472
   79SOL    HW1 2076  14.322   7.188   9.397
   79SOL    HW2 2077  14.211   7.271   9.457
   80SOL     OW 2078   7.146   8.317   7.086
   80SOL    HW1 2079   7.215   8.251   7.096
   80SOL    HW2 2080   7.166   8.384   7.152
   81SOL     OW 2081   2.921   4.735   0.498
   81SOL    HW1 2082   2.844   4.748   0.553
   81SOL    HW2 2083   2.939   4.822   0.462
   82SOL     OW 2084   4.296   1.981   9.588
   82SOL    HW1 2085   4.326   2.056   9.536
   82SOL    HW2 2086   4.272   1.915   9.523
   83SOL     OW 2087   0.059  11.834  13.733
   83SOL    HW1 2088   0.031  11.747  13.762
   83SOL    HW2 2089   0.101  11.819  13.648
   84SOL     OW 2090   8.779   7.085   2.231
   84SOL    HW1 2091   8.693   7.123   2.213
   84SOL    HW2 2092   8.811   7.056   2.146
   85SOL     OW 2093   4.777   7.514  10.185
   85SOL    HW1 2094   4.743   7.504  10.274
   85SOL    HW2 2095   4.698   7.515  10.129
   86SOL     OW 2096  10.109  11.364   3.647
   86SOL    HW1 2097  10.027  11.404   3.617
   86SOL    HW2 2098  10.158  11.437   3.685
   87SOL     OW 2099   1.714   9.243   9.313
   87SOL    HW1 2100   1.684   9.237   9.223
   87SOL    HW2 2101   1.706   9.336   9.335
   88SOL     OW 2102   7.927   9.592   6.876
   88SOL    HW1 2103   7.915   9.682   6.847
   88SOL    HW2 2104   7.853   9.575   6.934
   89SOL     OW 2105   3.514   5.569   3.859
   89SOL    HW1 2106   3.442   5.505   3.856
   89SOL    HW2 2107   3.535   5.585   3.767
   90SOL     OW 2108  14.575  14.004   2.380
   90SOL    HW1 2109  14.537  14.067   2.442
   90SOL    HW2 2110  14.583  14.053   2.298
   91SOL     OW 2111  13.740   3.847   3.062
   91SOL    HW1 2112  13.712   3.756   3.070
   91SOL    HW2 2113  13.664   3.898   3.091
   92SOL     OW 2114   3.559   7.603  14.272
   92SOL    HW1 2115   3.642   7.644  14.298
   92SOL    HW2 2116   3.585   7.524  14.224
   93SOL     OW 2117   6.345  13.907   1.478
   93SOL    HW1 2118   6.376  13.917   1.568
   93SOL    HW2 2119   6.400  13.966   1.427
   94SOL     OW 2120  10.131   1.611  13.926
   94SOL    HW1 2121  10.044   1.630  13.961
   94SOL    HW2 2122  10.180   1.576  14.001
   95SOL     OW 2123   4.528   6.970  13.870
   95SOL    HW1 2124   4.446   7.015  13.889
   95SOL    HW2 2125   4.577   6.973  13.953
   96SOL     OW 2126  12.425   1.504  11.216
   96SOL    HW1 2127  12.488   1.543  11.276
   96SOL    HW2 2128  12.469   1.505  11.131
   97SOL     OW 2129  12.044   5.603   2.781
   97SOL    HW1 2130  12.098   5.534   2.743
   97SOL    HW2 2131  12.105   5.676   2.794
   98SOL     OW 2132  14.301   3.148   2.475
   98SOL    HW1 2133  14.340   3.188   2.553
   98SOL    HW2 2134  14.313   3.054   2.488
   99SOL     OW 2135   4.052   1.831  13.298
   99SOL    HW1 2136   3.993   1.889  13.348
   99SOL    HW2 2137   4.124   1.813  13.358
  100SOL     OW 2138   6.601  14.246   9.736
  100SOL    HW1 2139   6.593  14.228   9.642
  100SOL    HW2 2140   6.580  14.339   9.744
  101SOL     OW 2141  12.141  13.345  11.795
  101SOL    HW1 2142  12.155  13.371  11.886
  101SOL    HW2 2143  12.154  13.425  11.745
  102SOL     OW 2144   6.525   9.961  11.712
  102SOL    HW1 2145   6.597   9.995  11.765
  102SOL    HW2 2146   6.446   9.990  11.757
  103SOL     OW 2147  11.497   2.236  10.768
  103SOL    HW1 2148  11.498   2.157  10.715
  103SOL    HW2 2149  11.407   2.245  10.797
  104SOL     OW 2150  11.852   8.410  12.702
  104SOL    HW1 2151  11.931   8.457  12.730
  104SOL    HW2 2152  11.881   8.358  12.627
  105SOL     OW 2153   8.943   9.306   2.784
  105SOL    HW1 2154   8.868   9.258   2.819
  105SOL    HW2 2155   8.929   9.307   2.690
  106SOL     OW 2156   2.204   2.199   0.128
  106SOL    HW1 2157   2.182   2.109   0.154
  106SOL    HW2 2158   2.298   2.205   0.140
  107SOL     OW 2159   6.673   1.418   2.276
  107SOL    HW1 2160   6.636   1.457   2.356
  107SOL    HW2 2161   6.749   1.473   2.256
  108SOL     OW 2162   5.667   6.152   8.164
  108SOL    HW1 2163   5.589   6.119   8.118
  108SOL    HW2 2164   5.701   6.220   8.106
  109SOL     OW 2165  14.869  11.239   5.172
  109SOL    HW1 2166   0.047  11.168   5.211
  109SOL    HW2 2167  14.851  11.298   5.245
  110SOL     OW 2168   3.047   6.913   7.678
  110SOL    HW1 2169   3.030   6.898   7.771
  110SOL    HW2 2170   3.055   7.008   7.670
  111SOL     OW 2171   4.506   2.536   7.864
  111SOL    HW1 2172   4.534   2.469   7.801
  111SOL    HW2 2173   4.578   2.599   7.865
  112SOL     OW 2174   4.601  14.305   6.659
  112SOL    HW1 2175   4.519  14.299   6.609
  112SOL    HW2 2176   4.645  14.382   6.622
  113SOL     OW 2177   8.645   6.405   1.267
  113SOL    HW1 2178   8.595   6.338   1.221
  113SOL    HW2 2179   8.639   6.381   1.359
  114SOL     OW 2180   7.987   8.186   0.071
  114SOL    HW1 2181   7.944   8.223  14.867
  114SOL    HW2 2182   8.080   8.186   0.050
  115SOL     OW 2183   4.327   3.535  12.352
  115SOL    HW1 2184   4.308   3.589  12.276
  115SOL    HW2 2185   4.401   3.579  12.394
  116SOL     OW 2186   8.132   3.724   6.352
  116SOL    HW1 2187   8.051   3.773   6.336
  116SOL    HW2 2188   8.109   3.634   6.332
  117SOL     OW 2189   6.702   0.875   3.619
  117SOL    HW1 2190   6.730   0.923   3.541
  117SOL    HW2 2191   6.758   0.906   3.689
  118SOL     OW 2192   6.306   9.841   0.351
  118SOL    HW1 2193   6.314   9.936   0.348
  118SOL    HW2 2194   6.285   9.816   0.261
  119SOL     OW 2195   4.200   3.270   4.199
  119SOL    HW1 2196   4.273   3.208   4.212
  119SOL    HW2 2197   4.178   3.261   4.106
  120SOL     OW 2198   9.566  12.668   8.851
  120SOL    HW1 2199   9.494  12.724   8.821
  120SOL    HW2 2200   9.568  12.681   8.946
  121SOL     OW 2201   3.463   8.582   0.835
  121SOL    HW1 2202   3.412   8.661   0.853
  121SOL    HW2 2203   3.406   8.510   0.863
  122SOL     OW 2204   1.186   6.244   6.742
  122SOL    HW1 2205   1.246   6.234   6.816
  122SOL    HW2 2206   1.142   6.328   6.759
  123SOL     OW 2207  11.660   5.074   7.940
  123SOL    HW1 2208  11.733   5.020   7.970
  123SOL    HW2 2209  11.681   5.163   7.970
  124SOL     OW 2210   6.507  10.984   3.613
  124SOL    HW1 2211   6.469  11.067   3.644
  124SOL    HW2 2212   6.597  10.985   3.647
  125SOL     OW 2213   0.434   1.107   5.415
  125SOL    HW1 2214   0.521   1.075   5.395
  125SOL    HW2 2215   0.445   1.162   5.492
  126SOL     OW 2216   2.421  11.123   5.140
  126SOL    HW1 2217   2.332  11.123   5.106
  126SOL    HW2 2218   2.437  11.213   5.169
  127SOL     OW 2219   8.150   1.977   4.564
  127SOL    HW1 2220   8.236   2.007   4.593
  127SOL    HW2 2221   8.117   2.048   4.510
  128SOL     OW 2222  12.069   2.316  13.724
  128SOL    HW1 2223  12.104   2.321  13.635
  128SOL    HW2 2224  12.136   2.358  13.778
  129SOL     OW 2225   6.463   2.801   4.878
  129SOL    HW1 2226   6.416   2.768   4.802
  129SOL    HW2 2227   6.552   2.769   4.867
  130SOL     OW 2228  10.473   5.526   2.743
  130SOL    HW1 2229  10.504   5.575   2.819
  130SOL    HW2 2230  10.480   5.588   2.670
  131SOL     OW 2231   9.908   0.240   6.320
  131SOL    HW1 2232   9.948   0.182   6.255
  131SOL    HW2 2233   9.968   0.315   6.325
  132SOL     OW 2234  11.800   2.833   1.379
  132SOL    HW1 2235  11.814   2.928   1.378
  132SOL    HW2 2236  11.816   2.808   1.470
  133SOL     OW 2237   5.591   7.073   6.275
  133SOL    HW1 2238   5.579   7.006   6.342
  133SOL    HW2 2239   5.623   7.026   6.198
  134SOL     OW 2240   6.304   1.114  11.519
  134SOL    HW1 2241   6.278   1.204  11.499
  134SOL    HW2 2242   6.256   1.092  11.599
  135SOL     OW 2243   9.115  14.856   9.223
  135SOL    HW1 2244   9.159   0.044   9.165
  135SOL    HW2 2245   9.089  14.783   9.167
  136SOL     OW 2246   0.517   6.777   8.960
  136SOL    HW1 2247   0.501   6.859   8.913
  136SOL    HW2 2248   0.477   6.710   8.905
  137SOL     OW 2249   9.448   4.563   1.215
  137SOL    HW1 2250   9.516   4.602   1.160
  137SOL    HW2 2251   9.420   4.485   1.168
  138SOL     OW 2252   3.162   6.350   9.850
  138SOL    HW1 2253   3.218   6.321   9.922
  138SOL    HW2 2254   3.075   6.314   9.871
  139SOL     OW 2255   8.413   4.166  13.356
  139SOL    HW1 2256   8.452   4.230  13.297
  139SOL    HW2 2257   8.435   4.081  13.318
  140SOL     OW 2258   1.598  12.265  11.603
  140SOL    HW1 2259   1.525  12.325  11.618
  140SOL    HW2 2260   1.668  12.299  11.659
  141SOL     OW 2261  10.137   0.700   3.444
  141SOL    HW1 2262  10.114   0.788   3.474
  141SOL    HW2 2263  10.196   0.714   3.370
  142SOL     OW 2264  12.132   7.783   4.172
  142SOL    HW1 2265  12.164   7.710   4.225
  142SOL    HW2 2266  12.045   7.756   4.143
  143SOL     OW 2267  12.403   3.380  12.554
  143SOL    HW1 2268  12.497   3.383  12.541
  143SOL    HW2 2269  12.382   3.464  12.595
  144SOL     OW 2270  13.025   3.352  12.454
  144SOL    HW1 2271  13.009   3.433  12.405
  144SOL    HW2 2272  13.003   3.282  12.392
  145SOL     OW 2273  12.678   0.569  10.623
  145SOL    HW1 2274  12.757   0.603  10.666
  145SOL    HW2 2275  12.694   0.581  10.530
  146SOL     OW 2276   1.369   1.220  11.078
  146SOL    HW1 2277   1.397   1.297  11.029
  146SOL    HW2 2278   1.311   1.173  11.018
  147SOL     OW 2279  11.502  12.762   6.984
  147SOL    HW1 2280  11.490  12.669   6.966
  147SOL    HW2 2281  11.439  12.806   6.928
  148SOL     OW 2282   9.941   6.008   9.162
  148SOL    HW1 2283   9.913   5.925   9.122
  148SOL    HW2 2284   9.912   6.075   9.100
  149SOL     OW 2285   9.613   4.719  11.213
  149SOL    HW1 2286   9.671   4.729  11.138
  149SOL    HW2 2287   9.534   4.767  11.189
  150SOL     OW 2288   2.781   8.060   3.722
  150SOL    HW1 2289   2.839   8.002   3.673
  150SOL    HW2 2290   2.829   8.079   3.803
  151SOL     OW 2291  12.798   5.625  12.315
  151SOL    HW1 2292  12.830   5.535  12.313
  151SOL    HW2 2293  12.751   5.636  12.232
  152SOL     OW 2294  13.300  12.439   4.662
  152SOL    HW1 2295  13.366  12.505   4.644
  152SOL    HW2 2296  13.255  12.470   4.740
  153SOL     OW 2297   7.606   9.626   9.437
  153SOL    HW1 2298   7.696   9.640   9.409
  153SOL    HW2 2299   7.554   9.681   9.379
  154SOL     OW 2300   4.352   3.208   8.795
  154SOL    HW1 2301   4.324   3.283   8.847
  154SOL    HW2 2302   4.423   3.241   8.740
  155SOL     OW 2303   5.462   0.781  11.625
  155SOL    HW1 2304   5.477   0.855  11.683
  155SOL    HW2 2305   5.441   0.708  11.683
  156SOL     OW 2306   8.899  14.856  11.645
  156SOL    HW1 2307   8.958   0.025  11.707
  156SOL    HW2 2308   8.833   0.049  11.625
  157SOL     OW 2309   9.712   5.762   7.230
  157SOL    HW1 2310   9.731   5.683   7.280
  157SOL    HW2 2311   9.715   5.734   7.138
  158SOL     OW 2312  11.710  12.310   8.795
  158SOL    HW1 2313  11.720  12.375   8.864
  158SOL    HW2 2314  11.778  12.245   8.813
  159SOL     OW 2315  11.592   5.637  11.410
  159SOL    HW1 2316  11.591   5.699  11.483
  159SOL    HW2 2317  11.554   5.685  11.336
  160SOL     OW 2318   5.600   9.012   9.964
  160SOL    HW1 2319   5.543   9.083   9.994
  160SOL    HW2 2320   5.689   9.041   9.987
  161SOL     OW 2321   0.519   7.306   7.948
  161SOL    HW1 2322   0.531   7.393   7.909
  161SOL    HW2 2323   0.429   7.306   7.979
  162SOL     OW 2324   8.013   6.011   4.786
  162SOL    HW1 2325   7.999   6.098   4.747
  162SOL    HW2 2326   7.924   5.978   4.801
  163SOL     OW 2327   9.944   8.802   0.103
  163SOL    HW1 2328   9.926   8.749   0.026
  163SOL    HW2 2329   9.869   8.862   0.109
  164SOL     OW 2330   7.818  10.519  10.749
  164SOL    HW1 2331   7.809  10.505  10.843
  164SOL    HW2 2332   7.801  10.433  10.710
  165SOL     OW 2333   2.842  11.751   8.052
  165SOL    HW1 2334   2.919  11.709   8.013
  165SOL    HW2 2335   2.798  11.680   8.099
  166SOL     OW 2336  13.668   3.084   7.740
  166SOL    HW1 2337  13.598   3.018   7.745
  166SOL    HW2 2338  13.629   3.163   7.778
  167SOL     OW 2339  13.960   0.055  12.164
  167SOL    HW1 2340  13.976   0.058  12.070
  167SOL    HW2 2341  14.005   0.133  12.198
  168SOL     OW 2342   1.611   7.964  10.772
  168SOL    HW1 2343   1.627   7.932  10.683
  168SOL    HW2 2344   1.525   7.929  10.795
  169SOL     OW 2345   7.062  11.518  14.487
  169SOL    HW1 2346   7.099  11.600  14.520
  169SOL    HW2 2347   7.093  11.451  14.548
  170SOL     OW 2348   9.091   5.622  14.655
  170SOL    HW1 2349   9.089   5.711  14.620
  170SOL    HW2 2350   9.145   5.573  14.593
  171SOL     OW 2351   1.936  13.848   2.727
  171SOL    HW1 2352   1.973  13.934   2.704
  171SOL    HW2 2353   1.953  13.839   2.821
  172SOL     OW 2354   0.799   2.392  10.836
  172SOL    HW1 2355   0.744   2.393  10.914
  172SOL    HW2 2356   0.807   2.483  10.810
  173SOL     OW 2357   3.976  10.137   5.949
  173SOL    HW1 2358   4.056  10.183   5.925
  173SOL    HW2 2359   3.940  10.187   6.022
  174SOL     OW 2360   8.469   8.984  10.670
  174SOL    HW1 2361   8.398   8.967  10.609
  174SOL    HW2 2362   8.469   8.908  10.728
  175SOL     OW 2363  14.132   6.563   1.447
  175SOL    HW1 2364  14.068   6.583   1.515
  175SOL    HW2 2365  14.199   6.631   1.457
  176SOL     OW 2366  13.228   0.283   9.771
  176SOL    HW1 2367  13.209   0.256   9.681
  176SOL    HW2 2368  13.156   0.340   9.795
  177SOL     OW 2369  10.971   5.943   2.231
  177SOL    HW1 2370  10.987   6.033   2.201
  177SOL    HW2 2371  10.931   5.953   2.318
  178SOL     OW 2372   6.996   5.555   4.249
  178SOL    HW1 2373   6.984   5.588   4.338
  178SOL    HW2 2374   6.932   5.484   4.242
  179SOL     OW 2375  10.143   1.379   0.750
  179SOL    HW1 2376  10.212   1.366   0.815
  179SOL    HW2 2377  10.188   1.419   0.675
  180SOL     OW 2378   5.218   1.024  13.810
  180SOL    HW1 2379   5.313   1.015  13.804
  180SOL    HW2 2380   5.187   0.935  13.827
  181SOL     OW 2381  14.769   0.177  11.864
  181SOL    HW1 2382  14.804   0.214  11.945
  181SOL    HW2 2383  14.681   0.146  11.888
  182SOL     OW 2384  11.948   2.118  13.413
  182SOL    HW1 2385  11.988   2.091  13.331
  182SOL    HW2 2386  11.899   2.197  13.391
  183SOL     OW 2387   0.734   1.357  12.778
  183SOL    HW1 2388   0.781   1.344  12.861
  183SOL    HW2 2389   0.645   1.327  12.796
  184SOL     OW 2390  10.676   3.687   3.063
  184SOL    HW1 2391  10.661   3.737   2.982
  184SOL    HW2 2392  10.614   3.615   3.058
  185SOL     OW 2393   1.800   0.248   4.964
  185SOL    HW1 2394   1.770   0.232   4.875
  185SOL    HW2 2395   1.746   0.191   5.018
  186SOL     OW 2396   9.374  11.209  12.277
  186SOL    HW1 2397   9.284  11.227  12.248
  186SOL    HW2 2398   9.365  11.142  12.344
  187SOL     OW 2399  12.519  10.616  10.651
  187SOL    HW1 2400  12.432  10.644  10.681
  187SOL    HW2 2401  12.500  10.556  10.578
  188SOL     OW 2402   3.227  12.737   8.979
  188SOL    HW1 2403   3.315  12.737   9.016
  188SOL    HW2 2404   3.229  12.807   8.913
  189SOL     OW 2405   5.202   1.757   8.962
  189SOL    HW1 2406   5.140   1.685   8.955
  189SOL    HW2 2407   5.149   1.831   8.993
  190SOL     OW 2408   2.077  14.647   5.040
  190SOL    HW1 2409   2.108  14.733   5.012
  190SOL    HW2 2410   2.154  14.605   5.077
  191SOL     OW 2411   0.037   6.397  13.818
  191SOL    HW1 2412  14.817   6.383  13.835
  191SOL    HW2 2413   0.065   6.457  13.888
  192SOL     OW 2414   3.731   6.208   0.993
  192SOL    HW1 2415   3.777   6.289   0.971
  192SOL    HW2 2416   3.797   6.155   1.037
  193SOL     OW 2417  13.741   9.549   0.414
  193SOL    HW1 2418  13.746   9.464   0.458
  193SOL    HW2 2419  13.762   9.613   0.482
  194SOL     OW 2420   3.629  11.610   1.793
  194SOL    HW1 2421   3.578  11.561   1.858
  194SOL    HW2 2422   3.691  11.661   1.845
  195SOL     OW 2423  10.524   0.992   7.698
  195SOL    HW1 2424  10.463   1.066   7.698
  195SOL    HW2 2425  10.505   0.945   7.779
  196SOL     OW 2426  10.439  14.452  10.611
  196SOL    HW1 2427  10.526  14.442  10.573
  196SOL    HW2 2428  10.436  14.387  10.681
  197SOL     OW 2429  10.909   0.557   3.981
  197SOL    HW1 2430  10.880   0.471   4.012
  197SOL    HW2 2431  10.829   0.610   3.980
  198SOL     OW 2432  13.849  14.655   3.095
  198SOL    HW1 2433  13.927  14.704   3.072
  198SOL    HW2 2434  13.807  14.707   3.163
  199SOL     OW 2435  14.826  12.478   3.780
  199SOL    HW1 2436  14.750  12.444   3.827
  199SOL    HW2 2437  14.843  12.412   3.712
  200SOL     OW 2438   4.917   7.940   8.165
  200SOL    HW1 2439   5.000   7.986   8.181
  200SOL    HW2 2440   4.922   7.862   8.220
  201SOL     OW 2441   7.433   3.698  10.332
  201SOL    HW1 2442   7.476   3.706  10.417
  201SOL    HW2 2443   7.460   3.777  10.285
  202SOL     OW 2444   4.773   5.459  11.460
  202SOL    HW1 2445   4.714   5.393  11.423
  202SOL    HW2 2446   4.833   5.480  11.389
  203SOL     OW 2447   6.397  13.233   7.611
  203SOL    HW1 2448   6.335  13.197   7.675
  203SOL    HW2 2449   6.371  13.194   7.528
  204SOL     OW 2450  10.572  11.781   8.027
  204SOL    HW1 2451  10.620  11.699   8.014
  204SOL    HW2 2452  10.601  11.812   8.113
  205SOL     OW 2453   2.773  11.363   7.285
  205SOL    HW1 2454   2.703  11.348   7.222
  205SOL    HW2 2455   2.730  11.399   7.363
  206SOL     OW 2456   7.634   8.349   1.359
  206SOL    HW1 2457   7.595   8.313   1.280
  206SOL    HW2 2458   7.724   8.316   1.359
  207SOL     OW 2459  11.788   3.864   2.271
  207SOL    HW1 2460  11.799   3.922   2.347
  207SOL    HW2 2461  11.855   3.894   2.209
  208SOL     OW 2462   7.857   0.507  14.592
  208SOL    HW1 2463   7.943   0.537  14.563
  208SOL    HW2 2464   7.872   0.418  14.624
  209SOL     OW 2465  14.279   1.191   7.417
  209SOL    HW1 2466  14.200   1.148   7.385
  209SOL    HW2 2467  14.300   1.255   7.350
  210SOL     OW 2468   5.235   3.734   8.805
  210SOL    HW1 2469   5.241   3.776   8.891
  210SOL    HW2 2470   5.262   3.644   8.820
  211SOL     OW 2471   3.623   7.652   4.325
  211SOL    HW1 2472   3.639   7.583   4.388
  211SOL    HW2 2473   3.630   7.733   4.375
  212SOL     OW 2474   9.755   5.111   3.319
  212SOL    HW1 2475   9.799   5.032   3.352
  212SOL    HW2 2476   9.821   5.179   3.324
  213SOL     OW 2477   6.214   0.578  11.576
  213SOL    HW1 2478   6.188   0.499  11.529
  213SOL    HW2 2479   6.215   0.552  11.668
  214SOL     OW 2480   6.855   4.887   6.626
  214SOL    HW1 2481   6.813   4.937   6.696
  214SOL    HW2 2482   6.935   4.936   6.606
  215SOL     OW 2483   1.785  12.722  12.642
  215SOL    HW1 2484   1.850  12.791  12.650
  215SOL    HW2 2485   1.817  12.652  12.700
  216SOL     OW 2486   5.791   2.130   7.559
  216SOL    HW1 2487   5.742   2.207   7.530
  216SOL    HW2 2488   5.846   2.106   7.484
  217SOL     OW 2489   6.875  10.460   8.117
  217SOL    HW1 2490   6.897  10.390   8.179
  217SOL    HW2 2491   6.797  10.428   8.072
  218SOL     OW 2492  11.679   2.354  14.390
  218SOL    HW1 2493  11.774   2.349  14.374
  218SOL    HW2 2494  11.660   2.277  14.444
  219SOL     OW 2495  13.219   0.042  11.913
  219SOL    HW1 2496  13.257  14.841  11.865
  219SOL    HW2 2497  13.207   0.009  12.002
  220SOL     OW 2498   3.926  11.919   6.969
  220SOL    HW1 2499   3.854  11.972   6.935
  220SOL    HW2 2500   3.941  11.953   7.057
  221SOL     OW 2501   8.316   5.481   9.144
  221SOL    HW1 2502   8.363   5.416   9.196
  221SOL    HW2 2503   8.382   5.547   9.124
  222SOL     OW 2504   6.056   9.871   2.380
  222SOL    HW1 2505   6.108   9.905   2.307
  222SOL    HW2 2506   6.010   9.796   2.343
  223SOL     OW 2507   7.356   7.596   8.542
  223SOL    HW1 2508   7.394   7.660   8.481
  223SOL    HW2 2509   7.412   7.601   8.619
  224SOL     OW 2510   9.228   2.242   4.848
  224SOL    HW1 2511   9.299   2.296   4.812
  224SOL    HW2 2512   9.159   2.304   4.870
  225SOL     OW 2513   1.185   6.569   5.284
  225SOL    HW1 2514   1.149   6.632   5.221
  225SOL    HW2 2515   1.119   6.565   5.353
  226SOL     OW 2516   5.198  10.081  10.648
  226SOL    HW1 2517   5.186   9.986  10.654
  226SOL    HW2 2518   5.178  10.114  10.736
  227SOL     OW 2519  14.484   2.061   7.666
  227SOL    HW1 2520  14.545   2.132   7.683
  227SOL    HW2 2521  14.407   2.082   7.718
  228SOL     OW 2522  14.037   5.023   3.239
  228SOL    HW1 2523  14.118   5.056   3.200
  228SOL    HW2 2524  14.010   4.952   3.181
  229SOL     OW 2525   3.083   3.827   8.231
  229SOL    HW1 2526   3.064   3.806   8.139
  229SOL    HW2 2527   3.170   3.790   8.247
  230SOL     OW 2528   1.989   5.881   3.702
  230SOL    HW1 2529   1.927   5.815   3.670
  230SOL    HW2 2530   1.935   5.942   3.752
  231SOL     OW 2531  12.518   3.312   2.780
  231SOL    HW1 2532  12.567   3.300   2.699
  231SOL    HW2 2533  12.445   3.369   2.756
  232SOL     OW 2534   4.048   0.260   5.051
  232SOL    HW1 2535   4.114   0.283   4.987
  232SOL    HW2 2536   4.044   0.164   5.049
  233SOL     OW 2537   0.457   9.949   2.422
  233SOL    HW1 2538   0.461   9.885   2.493
  233SOL    HW2 2539   0.383   9.920   2.368
  234SOL     OW 2540   9.436   1.977   3.631
  234SOL    HW1 2541   9.480   2.059   3.651
  234SOL    HW2 2542   9.348   2.003   3.604
  235SOL     OW 2543  12.649   2.056   6.905
  235SOL    HW1 2544  12.712   2.128   6.911
  235SOL    HW2 2545  12.614   2.047   6.994
  236SOL     OW 2546   5.823   1.331  12.319
  236SOL    HW1 2547   5.753   1.304  12.379
  236SOL    HW2 2548   5.797   1.418  12.290
  237SOL     OW 2549   9.889   1.996   1.972
  237SOL    HW1 2550   9.811   1.990   1.918
  237SOL    HW2 2551   9.893   2.088   1.998
  238SOL     OW 2552   3.336   0.416   8.628
  238SOL    HW1 2553   3.275   0.487   8.647
  238SOL    HW2 2554   3.404   0.425   8.695
  239SOL     OW 2555  12.093   8.430  14.344
  239SOL    HW1 2556  12.139   8.502  14.386
  239SOL    HW2 2557  12.021   8.410  14.404
  240SOL     OW 2558   9.878   8.863   6.995
  240SOL    HW1 2559   9.953   8.845   7.053
  240SOL    HW2 2560   9.805   8.815   7.035
  241SOL     OW 2561  10.651  12.237   5.321
  241SOL    HW1 2562  10.594  12.308   5.291
  241SOL    HW2 2563  10.697  12.274   5.396
  242SOL     OW 2564   8.244  11.286   2.844
  242SOL    HW1 2565   8.252  11.191   2.836
  242SOL    HW2 2566   8.334  11.319   2.837
  243SOL     OW 2567  11.158   5.696   3.494
  243SOL    HW1 2568  11.224   5.647   3.445
  243SOL    HW2 2569  11.076   5.649   3.476
  244SOL     OW 2570  12.527   8.298   5.940
  244SOL    HW1 2571  12.620   8.320   5.939
  244SOL    HW2 2572  12.519   8.221   5.883
  245SOL     OW 2573   8.220   3.014   4.082
  245SOL    HW1 2574   8.225   3.104   4.115
  245SOL    HW2 2575   8.261   2.961   4.149
  246SOL     OW 2576   2.354   1.436  10.903
  246SOL    HW1 2577   2.293   1.371  10.866
  246SOL    HW2 2578   2.328   1.518  10.861
  247SOL     OW 2579   1.988  12.943   3.342
  247SOL    HW1 2580   1.937  13.006   3.290
  247SOL    HW2 2581   1.926  12.912   3.409
  248SOL     OW 2582   0.787   8.999   3.614
  248SOL    HW1 2583   0.817   8.942   3.685
  248SOL    HW2 2584   0.808   9.087   3.644
  249SOL     OW 2585   0.581  12.126   9.968
  249SOL    HW1 2586   0.676  12.125   9.954
  249SOL    HW2 2587   0.559  12.035   9.990
  250SOL     OW 2588  14.635   6.889   1.723
  250SOL    HW1 2589  14.719   6.935   1.719
  250SOL    HW2 2590  14.626   6.849   1.637
  251SOL     OW 2591   0.604   1.297   8.694
  251SOL    HW1 2592   0.526   1.333   8.651
  251SOL    HW2 2593   0.572   1.263   8.777
  252SOL     OW 2594  12.986   2.150   8.974
  252SOL    HW1 2595  12.910   2.203   8.947
  252SOL    HW2 2596  12.997   2.087   8.903
  253SOL     OW 2597   0.316   5.691   8.809
  253SOL    HW1 2598   0.276   5.777   8.795
  253SOL    HW2 2599   0.253   5.644   8.864
  254SOL     OW 2600  11.457   0.590   9.006
  254SOL    HW1 2601  11.543   0.611   9.044
  254SOL    HW2 2602  11.451   0.494   9.014
  255SOL     OW 2603   3.721   1.691   9.919
  255SOL    HW1 2604   3.720   1.786   9.915
  255SOL    HW2 2605   3.630   1.667   9.935
  256SOL     OW 2606   1.723  12.732   6.376
  256SOL    HW1 2607   1.771  12.807   6.341
  256SOL    HW2 2608   1.720  12.669   6.304
  257SOL     OW 2609   6.288  11.053   1.913
  257SOL    HW1 2610   6.193  11.044   1.906
  257SOL    HW2 2611   6.318  11.055   1.822
  258SOL     OW 2612   1.424  12.919  13.549
  258SOL    HW1 2613   1.420  13.012  13.567
  258SOL    HW2 2614   1.518  12.900  13.544
  259SOL     OW 2615  14.318  10.024  12.696
  259SOL    HW1 2616  14.366  10.068  12.766
  259SOL    HW2 2617  14.265  10.093  12.656
  260SOL     OW 2618   1.115   1.882   6.287
  260SOL    HW1 2619   1.095   1.878   6.193
  260SOL    HW2 2620   1.031   1.904   6.328
  261SOL     OW 2621  10.498  13.903   9.210
  261SOL    HW1 2622  10.425  13.960   9.233
  261SOL    HW2 2623  10.570  13.930   9.267
  262SOL     OW 2624   3.125   2.725  14.846
  262SOL    HW1 2625   3.160   2.801  14.800
  262SOL    HW2 2626   3.172   2.651  14.810
  263SOL     OW 2627   5.795   1.798   5.374
  263SOL    HW1 2628   5.870   1.739   5.384
  263SOL    HW2 2629   5.723   1.741   5.347
  264SOL     OW 2630  11.623  11.011   3.946
  264SOL    HW1 2631  11.580  11.029   4.029
  264SOL    HW2 2632  11.714  11.039   3.959
  265SOL     OW 2633   1.116  10.927   1.166
  265SOL    HW1 2634   1.106  10.915   1.072
  265SOL    HW2 2635   1.119  10.838   1.202
  266SOL     OW 2636  13.899   6.573   4.578
  266SOL    HW1 2637  13.908   6.603   4.668
  266SOL    HW2 2638  13.983   6.594   4.537
  267SOL     OW 2639   2.199   2.839  14.585
  267SOL    HW1 2640   2.135   2.900  14.622
  267SOL    HW2 2641   2.215   2.776  14.656
  268SOL     OW 2642  10.500  14.300   0.155
  268SOL    HW1 2643  10.456  14.218   0.133
  268SOL    HW2 2644  10.429  14.362   0.170
  269SOL     OW 2645   7.876   9.491   2.018
  269SOL    HW1 2646   7.922   9.424   1.967
  269SOL    HW2 2647   7.939   9.562   2.027
  270SOL     OW 2648   6.408   1.856   8.062
  270SOL    HW1 2649   6.347   1.930   8.056
  270SOL    HW2 2650   6.361   1.783   8.023
  271SOL     OW 2651  11.230   1.943   2.937
  271SOL    HW1 2652  11.219   1.989   2.854
  271SOL    HW2 2653  11.142   1.916   2.962
  272SOL     OW 2654  14.589  11.835   6.016
  272SOL    HW1 2655  14.530  11.787   6.075
  272SOL    HW2 2656  14.574  11.796   5.930
  273SOL     OW 2657   9.046   3.033  13.375
  273SOL    HW1 2658   9.087   2.949  13.396
  273SOL    HW2 2659   9.113   3.082  13.328
  274SOL     OW 2660   8.028  10.406   4.296
  274SOL    HW1 2661   7.932  10.402   4.304
  274SOL    HW2 2662   8.059  10.328   4.341
  275SOL     OW 2663   0.256   8.723  10.185
  275SOL    HW1 2664   0.313   8.793  10.155
  275SOL    HW2 2665   0.250   8.663  10.111
  276SOL     OW 2666   0.994   6.236   2.851
  276SOL    HW1 2667   0.993   6.303   2.782
  276SOL    HW2 2668   1.027   6.282   2.928
  277SOL     OW 2669  11.437   7.231  11.356
  277SOL    HW1 2670  11.365   7.284  11.389
  277SOL    HW2 2671  11.483   7.201  11.434
  278SOL     OW 2672   8.169   5.057   4.013
  278SOL    HW1 2673   8.084   5.026   4.043
  278SOL    HW2 2674   8.177   5.146   4.049
  279SOL     OW 2675   1.220   6.255   7.238
  279SOL    HW1 2676   1.143   6.215   7.278
  279SOL    HW2 2677   1.289   6.189   7.248
  280SOL     OW 2678   6.449   3.908  12.451
  280SOL    HW1 2679   6.541   3.882  12.454
  280SOL    HW2 2680   6.451   4.003  12.448
  281SOL     OW 2681  14.487   1.171   5.850
  281SOL    HW1 2682  14.453   1.257   5.825
  281SOL    HW2 2683  14.409   1.117   5.861
  282SOL     OW 2684   8.533   2.968   6.280
  282SOL    HW1 2685   8.599   3.032   6.305
  282SOL    HW2 2686   8.507   2.994   6.191
  283SOL     OW 2687   6.023  14.461   4.715
  283SOL    HW1 2688   5.981  14.401   4.777
  283SOL    HW2 2689   6.081  14.405   4.664
  284SOL     OW 2690  14.688  10.485   8.157
  284SOL    HW1 2691  14.619  10.458   8.218
  284SOL    HW2 2692  14.698  10.411   8.098
  285SOL     OW 2693   7.365  10.436  13.094
  285SOL    HW1 2694   7.368  10.344  13.068
  285SOL    HW2 2695   7.378  10.484  13.012
  286SOL     OW 2696  12.547  14.819   8.294
  286SOL    HW1 2697  12.533  14.729   8.325
  286SOL    HW2 2698  12.522   0.001   8.367
  287SOL     OW 2699   9.310  13.996   6.424
  287SOL    HW1 2700   9.293  13.902   6.424
  287SOL    HW2 2701   9.405  14.003   6.425
  288SOL     OW 2702  11.146  14.198   8.620
  288SOL    HW1 2703  11.054  14.178   8.606
  288SOL    HW2 2704  11.148  14.245   8.703
  289SOL     OW 2705   0.570   2.483   0.251
  289SOL    HW1 2706   0.581   2.417   0.183
  289SOL    HW2 2707   0.613   2.561   0.217
  290SOL     OW 2708   1.053   2.100   7.313
  290SOL    HW1 2709   1.130   2.066   7.358
  290SOL    HW2 2710   1.029   2.178   7.362
  291SOL     OW 2711   6.571   4.487  11.679
  291SOL    HW1 2712   6.541   4.503  11.769
  291SOL    HW2 2713   6.660   4.452  11.689
  292SOL     OW 2714  13.428   7.862   7.082
  292SOL    HW1 2715  13.343   7.883   7.042
  292SOL    HW2 2716  13.450   7.776   7.047
  293SOL     OW 2717   0.462  12.083   3.762
  293SOL    HW1 2718   0.553  12.092   3.791
  293SOL    HW2 2719   0.434  12.173   3.743
  294SOL     OW 2720   6.169  12.499  14.775
  294SOL    HW1 2721   6.132  12.502  14.687
  294SOL    HW2 2722   6.177  12.405  14.794
  295SOL     OW 2723   3.653   7.266  14.540
  295SOL    HW1 2724   3.615   7.186  14.504
  295SOL    HW2 2725   3.721   7.237  14.600
  296SOL     OW 2726   4.826  10.602   1.613
  296SOL    HW1 2727   4.793  10.643   1.533
  296SOL    HW2 2728   4.787  10.653   1.684
  297SOL     OW 2729  14.774  12.151  10.747
  297SOL    HW1 2730  14.724  12.078  10.784
  297SOL    HW2 2731  14.825  12.111  10.676
  298SOL     OW 2732   9.196   6.849   9.483
  298SOL    HW1 2733   9.236   6.932   9.456
  298SOL    HW2 2734   9.130   6.873   9.547
  299SOL     OW 2735   5.120   5.940   7.321
  299SOL    HW1 2736   5.154   5.932   7.410
  299SOL    HW2 2737   5.134   5.854   7.282
  300SOL     OW 2738  11.577   5.121   7.434
  300SOL    HW1 2739  11.497   5.166   7.461
  300SOL    HW2 2740  11.554   5.081   7.350
  301SOL     OW 2741  10.138   3.368  10.012
  301SOL    HW1 2742  10.058   3.372   9.958
  301SOL    HW2 2743  10.209   3.359   9.948
  302SOL     OW 2744   2.398   2.724   4.759
  302SOL    HW1 2745   2.331   2.659   4.783
  302SOL    HW2 2746   2.423   2.700   4.670
  303SOL     OW 2747  14.818  14.607  14.669
  303SOL    HW1 2748  14.835  14.691  14.627
  303SOL    HW2 2749  14.724  14.606  14.685
  304SOL     OW 2750   7.765   9.522  13.073
  304SOL    HW1 2751   7.839   9.468  13.099
  304SOL    HW2 2752   7.692   9.460  13.063
  305SOL     OW 2753   0.191   5.240  13.229
  305SOL    HW1 2754   0.265   5.180  13.237
  305SOL    HW2 2755   0.212   5.312  13.288
  306SOL     OW 2756   4.940  10.678   5.179
  306SOL    HW1 2757   4.973  10.692   5.090
  306SOL    HW2 2758   4.850  10.647   5.166
  307SOL     OW 2759  11.373   0.823  10.706
  307SOL    HW1 2760  11.308   0.888  10.732
  307SOL    HW2 2761  11.449   0.841  10.761
  308SOL     OW 2762  11.879   0.401   6.746
  308SOL    HW1 2763  11.904   0.387   6.837
  308SOL    HW2 2764  11.874   0.313   6.708
  309SOL     OW 2765   5.130  12.068   5.261
  309SOL    HW1 2766   5.139  12.097   5.170
  309SOL    HW2 2767   5.140  12.148   5.312
  310SOL     OW 2768  13.495   8.185  10.886
  310SOL    HW1 2769  13.493   8.277  10.912
  310SOL    HW2 2770  13.580   8.153  10.915
  311SOL     OW 2771   2.386   9.450  13.323
  311SOL    HW1 2772   2.478   9.427  13.308
  311SOL    HW2 2773   2.387   9.546  13.334
  312SOL     OW 2774   1.551   4.612   4.380
  312SOL    HW1 2775   1.546   4.693   4.431
  312SOL    HW2 2776   1.623   4.563   4.419
  313SOL     OW 2777   3.869  14.319   6.423
  313SOL    HW1 2778   3.842  14.367   6.502
  313SOL    HW2 2779   3.960  14.293   6.441
  314SOL     OW 2780   5.502   7.454   6.535
  314SOL    HW1 2781   5.469   7.539   6.505
  314SOL    HW2 2782   5.497   7.398   6.457
  315SOL     OW 2783   3.110   8.143   0.167
  315SOL    HW1 2784   3.043   8.083   0.135
  315SOL    HW2 2785   3.193   8.096   0.157
  316SOL     OW 2786  11.113  10.538   4.489
  316SOL    HW1 2787  11.039  10.509   4.436
  316SOL    HW2 2788  11.143  10.618   4.446
  317SOL     OW 2789   0.652  12.263   8.147
  317SOL    HW1 2790   0.661  12.345   8.196
  317SOL    HW2 2791   0.730  12.213   8.171
  318SOL     OW 2792   2.746  14.839  13.095
  318SOL    HW1 2793   2.793  14.854  13.013
  318SOL    HW2 2794   2.807  14.868  13.163
  319SOL     OW 2795   3.022   3.119   9.748
  319SOL    HW1 2796   2.930   3.093   9.758
  319SOL    HW2 2797   3.019   3.203   9.704
  320SOL     OW 2798   8.019  11.537   4.047
  320SOL    HW1 2799   8.008  11.591   3.969
  320SOL    HW2 2800   7.941  11.554   4.100
  321SOL     OW 2801   5.166   5.635   8.719
  321SOL    HW1 2802   5.224   5.632   8.796
  321SOL    HW2 2803   5.203   5.570   8.659
  322SOL     OW 2804   4.418  10.687   9.574
  322SOL    HW1 2805   4.513  10.697   9.584
  322SOL    HW2 2806   4.393  10.758   9.515
  323SOL     OW 2807   9.663   9.517  14.089
  323SOL    HW1 2808   9.745   9.469  14.091
  323SOL    HW2 2809   9.595   9.450  14.089
  324SOL     OW 2810   5.022  13.015  13.663
  324SOL    HW1 2811   5.031  13.016  13.568
  324SOL    HW2 2812   5.096  13.067  13.694
  325SOL     OW 2813  13.134   8.758   7.289
  325SOL    HW1 2814  13.112   8.848   7.264
  325SOL    HW2 2815  13.050   8.720   7.315
  326SOL     OW 2816   3.485  12.027  14.307
  326SOL    HW1 2817   3.501  11.938  14.340
  326SOL    HW2 2818   3.502  12.084  14.381
  327SOL     OW 2819  10.014  11.602   0.555
  327SOL    HW1 2820  10.056  11.580   0.638
  327SOL    HW2 2821   9.958  11.526   0.536
  328SOL     OW 2822   6.195  11.859   0.658
  328SOL    HW1 2823   6.212  11.940   0.609
  328SOL    HW2 2824   6.113  11.826   0.622
  329SOL     OW 2825  11.528   6.698   4.263
  329SOL    HW1 2826  11.608   6.750   4.253
  329SOL    HW2 2827  11.501   6.713   4.354
  330SOL     OW 2828  13.724   6.469   2.946
  330SOL    HW1 2829  13.786   6.422   2.890
  330SOL    HW2 2830  13.709   6.553   2.901
  331SOL     OW 2831   7.806  12.031   0.208
  331SOL    HW1 2832   7.727  12.034   0.262
  331SOL    HW2 2833   7.871  11.988   0.264
  332SOL     OW 2834   2.183  13.491   1.561
  332SOL    HW1 2835   2.143  13.541   1.490
  332SOL    HW2 2836   2.202  13.406   1.522
  333SOL     OW 2837   9.146   2.395   2.161
  333SOL    HW1 2838   9.167   2.304   2.181
  333SOL    HW2 2839   9.227   2.443   2.179
  334SOL     OW 2840  12.363   4.559  11.064
  334SOL    HW1 2841  12.283   4.604  11.092
  334SOL    HW2 2842  12.433   4.623  11.079
  335SOL     OW 2843   6.002  13.467  13.316
  335SOL    HW1 2844   5.936  13.523  13.276
  335SOL    HW2 2845   6.083  13.518  13.312
  336SOL     OW 2846  11.855  11.568  13.259
  336SOL    HW1 2847  11.848  11.656  13.220
  336SOL    HW2 2848  11.768  11.531  13.250
  337SOL     OW 2849   0.241   0.449   1.168
  337SOL    HW1 2850   0.211   0.384   1.105
  337SOL    HW2 2851   0.164   0.469   1.221
  338SOL     OW 2852  13.996   8.674  10.256
  338SOL    HW1 2853  13.960   8.747  10.305
  338SOL    HW2 2854  14.051   8.714  10.189
  339SOL     OW 2855  14.232   2.027   5.513
  339SOL    HW1 2856  14.258   2.044   5.604
  339SOL    HW2 2857  14.313   2.034   5.463
  340SOL     OW 2858   3.441   0.635  13.379
  340SOL    HW1 2859   3.446   0.706  13.443
  340SOL    HW2 2860   3.502   0.660  13.310
  341SOL     OW 2861   1.514   8.787   8.219
  341SOL    HW1 2862   1.440   8.819   8.271
  341SOL    HW2 2863   1.476   8.765   8.134
  342SOL     OW 2864   5.835   7.082  14.694
  342SOL    HW1 2865   5.819   7.026  14.770
  342SOL    HW2 2866   5.897   7.148  14.726
  343SOL     OW 2867   6.360   3.094  14.047
  343SOL    HW1 2868   6.358   3.175  14.097
  343SOL    HW2 2869   6.363   3.122  13.955
  344SOL     OW 2870   7.332   7.851   7.595
  344SOL    HW1 2871   7.366   7.795   7.664
  344SOL    HW2 2872   7.239   7.826   7.588
  345SOL     OW 2873  13.951  12.688   9.144
  345SOL    HW1 2874  14.009  12.682   9.220
  345SOL    HW2 2875  14.000  12.739   9.080
  346SOL     OW 2876  14.584   0.147   3.093
  346SOL    HW1 2877  14.664   0.188   3.126
  346SOL    HW2 2878  14.513   0.202   3.127
  347SOL     OW 2879  12.873   1.989   0.239
  347SOL    HW1 2880  12.824   1.912   0.266
  347SOL    HW2 2881  12.937   2.003   0.308
  348SOL     OW 2882  11.697   8.147  10.599
  348SOL    HW1 2883  11.745   8.077  10.556
  348SOL    HW2 2884  11.728   8.145  10.690
  349SOL     OW 2885   8.091   0.544   7.888
  349SOL    HW1 2886   8.146   0.585   7.955
  349SOL    HW2 2887   8.153   0.498   7.831
  350SOL     OW 2888  11.480   2.760   9.918
  350SOL    HW1 2889  11.456   2.756   9.826
  350SOL    HW2 2890  11.404   2.797   9.962
  351SOL     OW 2891   8.657   3.711   7.164
  351SOL    HW1 2892   8.592   3.642   7.166
  351SOL    HW2 2893   8.607   3.791   7.148
  352SOL     OW 2894   8.352   0.605  12.866
  352SOL    HW1 2895   8.346   0.509  12.866
  352SOL    HW2 2896   8.294   0.632  12.937
  353SOL     OW 2897  10.049  12.730   7.256
  353SOL    HW1 2898  10.002  12.802   7.214
  353SOL    HW2 2899  10.035  12.743   7.350
  354SOL     OW 2900  13.815   2.531   7.933
  354SOL    HW1 2901  13.829   2.618   7.970
  354SOL    HW2 2902  13.879   2.524   7.862
  355SOL     OW 2903   9.966  13.913   8.044
  355SOL    HW1 2904   9.875  13.936   8.066
  355SOL    HW2 2905  10.018  13.984   8.083
  356SOL     OW 2906   2.772   1.308   5.363
  356SOL    HW1 2907   2.852   1.260   5.385
  356SOL    HW2 2908   2.719   1.245   5.314
  357SOL     OW 2909   4.648   1.316  13.943
  357SOL    HW1 2910   4.662   1.222  13.953
  357SOL    HW2 2911   4.618   1.345  14.029
  358SOL     OW 2912   2.664   0.443   9.075
  358SOL    HW1 2913   2.695   0.353   9.081
  358SOL    HW2 2914   2.720   0.484   9.009
  359SOL     OW 2915   9.012   9.285   0.306
  359SOL    HW1 2916   9.107   9.277   0.301
  359SOL    HW2 2917   8.987   9.237   0.385
  360SOL     OW 2918   2.106  14.469   0.206
  360SOL    HW1 2919   2.141  14.407   0.142
  360SOL    HW2 2920   2.052  14.416   0.264
  361SOL     OW 2921   9.623   4.408   9.832
  361SOL    HW1 2922   9.607   4.353   9.909
  361SOL    HW2 2923   9.600   4.352   9.758
  362SOL     OW 2924  14.207  11.737   8.964
  362SOL    HW1 2925  14.196  11.804   8.897
  362SOL    HW2 2926  14.295  11.751   8.997
  363SOL     OW 2927  14.493   5.895   2.171
  363SOL    HW1 2928  14.400   5.901   2.188
  363SOL    HW2 2929  14.535   5.909   2.256
  364SOL     OW 2930   1.854   0.206   7.296
  364SOL    HW1 2931   1.879   0.119   7.325
  364SOL    HW2 2932   1.927   0.263   7.322
  365SOL     OW 2933   8.603  10.867   3.640
  365SOL    HW1 2934   8.528  10.927   3.637
  365SOL    HW2 2935   8.662  10.905   3.705
  366SOL     OW 2936   4.473   3.289   6.189
  366SOL    HW1 2937   4.469   3.358   6.122
  366SOL    HW2 2938   4.412   3.318   6.257
  367SOL     OW 2939  11.181   4.645   2.741
  367SOL    HW1 2940  11.189   4.694   2.659
  367SOL    HW2 2941  11.243   4.686   2.800
  368SOL     OW 2942   6.641  10.329   2.387
  368SOL    HW1 2943   6.605  10.365   2.306
  368SOL    HW2 2944   6.715  10.276   2.358
  369SOL     OW 2945  12.936   3.385   7.481
  369SOL    HW1 2946  12.904   3.415   7.566
  369SOL    HW2 2947  12.871   3.417   7.418
  370SOL     OW 2948  10.179   5.525   7.819
  370SOL    HW1 2949  10.208   5.544   7.909
  370SOL    HW2 2950  10.127   5.445   7.827
  371SOL     OW 2951  11.266   6.452   3.948
  371SOL    HW1 2952  11.202   6.466   3.878
  371SOL    HW2 2953  11.333   6.518   3.932
  372SOL     OW 2954   2.742   7.184   2.703
  372SOL    HW1 2955   2.784   7.158   2.785
  372SOL    HW2 2956   2.657   7.139   2.705
  373SOL     OW 2957  12.023   1.922   5.932
  373SOL    HW1 2958  11.998   1.883   5.848
  373SOL    HW2 2959  11.959   1.991   5.947
  374SOL     OW 2960   7.388  11.722  10.500
  374SOL    HW1 2961   7.413  11.764  10.583
  374SOL    HW2 2962   7.467  11.677  10.471
  375SOL     OW 2963   1.056   8.765   9.483
  375SOL    HW1 2964   0.994   8.755   9.555
  375SOL    HW2 2965   1.038   8.853   9.449
  376SOL     OW 2966   0.900   5.573   9.250
  376SOL    HW1 2967   0.924   5.482   9.230
  376SOL    HW2 2968   0.895   5.615   9.164
  377SOL     OW 2969  10.672   9.220   2.803
  377SOL    HW1 2970  10.690   9.182   2.889
  377SOL    HW2 2971  10.711   9.307   2.807
  378SOL     OW 2972   9.566   5.683  10.713
  378SOL    HW1 2973   9.521   5.627  10.650
  378SOL    HW2 2974   9.536   5.772  10.694
  379SOL     OW 2975  10.881  13.871   1.114
  379SOL    HW1 2976  10.963  13.920   1.108
  379SOL    HW2 2977  10.895  13.811   1.187
  380SOL     OW 2978  14.781   8.844   2.682
  380SOL    HW1 2979  14.748   8.765   2.725
  380SOL    HW2 2980  14.710   8.870   2.623
  381SOL     OW 2981  12.063  12.548  12.533
  381SOL    HW1 2982  12.116  12.580  12.460
  381SOL    HW2 2983  12.055  12.623  12.591
  382SOL     OW 2984   4.031   9.959   8.221
  382SOL    HW1 2985   3.953   9.904   8.216
  382SOL    HW2 2986   4.020  10.009   8.302
  383SOL     OW 2987  11.678   5.504   0.078
  383SOL    HW1 2988  11.704   5.588   0.040
  383SOL    HW2 2989  11.742   5.488   0.147
  384SOL     OW 2990   9.342  12.398  12.035
  384SOL    HW1 2991   9.256  12.369  12.005
  384SOL    HW2 2992   9.387  12.318  12.060
  385SOL     OW 2993   6.356   7.914   0.117
  385SOL    HW1 2994   6.397   7.859   0.051
  385SOL    HW2 2995   6.367   8.004   0.084
  386SOL     OW 2996   3.624   6.474   5.461
  386SOL    HW1 2997   3.572   6.396   5.480
  386SOL    HW2 2998   3.706   6.460   5.510
  387SOL     OW 2999   7.812   1.834  13.743
  387SOL    HW1 3000   7.890   1.822  13.689
  387SOL    HW2 3001   7.787   1.925  13.728
  388SOL     OW 3002   0.361   1.268   3.605
  388SOL    HW1 3003   0.369   1.283   3.699
  388SOL    HW2 3004   0.376   1.354   3.565
  389SOL     OW 3005   8.918   6.953   6.060
  389SOL    HW1 3006   9.001   6.912   6.085
  389SOL    HW2 3007   8.869   6.882   6.019
  390SOL     OW 3008   9.464   2.881   2.215
  390SOL    HW1 3009   9.437   2.828   2.140
  390SOL    HW2 3010   9.510   2.956   2.177
  391SOL     OW 3011   4.103  10.279   0.759
  391SOL    HW1 3012   4.067  10.350   0.812
  391SOL    HW2 3013   4.097  10.311   0.669
  392SOL     OW 3014  11.373   4.932  11.428
  392SOL    HW1 3015  11.332   5.019  11.433
  392SOL    HW2 3016  11.457   4.942  11.473
  393SOL     OW 3017  11.039   8.316   9.269
  393SOL    HW1 3018  10.974   8.359   9.214
  393SOL    HW2 3019  11.018   8.223   9.263
  394SOL     OW 3020   7.737  10.164   3.624
  394SOL    HW1 3021   7.771  10.202   3.705
  394SOL    HW2 3022   7.732  10.237   3.563
  395SOL     OW 3023   2.941  14.172   3.067
  395SOL    HW1 3024   2.874  14.190   3.001
  395SOL    HW2 3025   2.998  14.248   3.065
  396SOL     OW 3026  14.840   5.961  14.407
  396SOL    HW1 3027  14.868   6.050  14.386
  396SOL    HW2 3028  14.748   5.970  14.433
  397SOL     OW 3029   8.209   5.091   2.107
  397SOL    HW1 3030   8.248   5.004   2.099
  397SOL    HW2 3031   8.120   5.075   2.139
  398SOL     OW 3032   7.708  12.098   6.836
  398SOL    HW1 3033   7.751  12.077   6.919
  398SOL    HW2 3034   7.721  12.192   6.826
  399SOL     OW 3035   2.651   1.404  14.581
  399SOL    HW1 3036   2.702   1.336  14.625
  399SOL    HW2 3037   2.584   1.429  14.645
  400SOL     OW 3038   5.082   2.112   4.410
  400SOL    HW1 3039   5.076   2.016   4.414
  400SOL    HW2 3040   5.100   2.131   4.318
  401SOL     OW 3041   0.296   4.170   5.634
  401SOL    HW1 3042   0.227   4.189   5.571
  401SOL    HW2 3043   0.376   4.164   5.582
  402SOL     OW 3044  10.253  14.066   8.815
  402SOL    HW1 3045  10.186  14.133   8.807
  402SOL    HW2 3046  10.332  14.114   8.842
  403SOL     OW 3047   1.035  12.465   0.115
  403SOL    HW1 3048   1.112  12.521   0.128
  403SOL    HW2 3049   1.038  12.404   0.189
  404SOL     OW 3050  10.215   0.578  11.353
  404SOL    HW1 3051  10.205   0.618  11.267
  404SOL    HW2 3052  10.194   0.485  11.339
  405SOL     OW 3053   9.833  13.111   0.579
  405SOL    HW1 3054   9.790  13.026   0.585
  405SOL    HW2 3055   9.828  13.134   0.486
  406SOL     OW 3056   4.432  10.317   3.199
  406SOL    HW1 3057   4.487  10.335   3.123
  406SOL    HW2 3058   4.442  10.394   3.255
  407SOL     OW 3059   5.555   4.960   5.820
  407SOL    HW1 3060   5.503   4.972   5.741
  407SOL    HW2 3061   5.544   5.041   5.869
  408SOL     OW 3062  13.996   4.259   5.932
  408SOL    HW1 3063  13.970   4.259   5.840
  408SOL    HW2 3064  14.065   4.325   5.938
  409SOL     OW 3065   8.252   6.822   3.579
  409SOL    HW1 3066   8.255   6.850   3.488
  409SOL    HW2 3067   8.206   6.894   3.624
  410SOL     OW 3068   3.308  14.015  13.298
  410SOL    HW1 3069   3.294  13.985  13.388
  410SOL    HW2 3070   3.250  13.960  13.245
  411SOL     OW 3071  14.572  10.144   3.027
  411SOL    HW1 3072  14.645  10.124   3.086
  411SOL    HW2 3073  14.572  10.072   2.964
  412SOL     OW 3074   5.219   1.176   9.430
  412SOL    HW1 3075   5.208   1.168   9.335
  412SOL    HW2 3076   5.177   1.098   9.466
  413SOL     OW 3077   3.340   1.661  13.418
  413SOL    HW1 3078   3.330   1.656  13.323
  413SOL    HW2 3079   3.251   1.672  13.452
  414SOL     OW 3080   1.502   7.526  14.556
  414SOL    HW1 3081   1.468   7.604  14.599
  414SOL    HW2 3082   1.445   7.514  14.480
  415SOL     OW 3083  13.685   2.811   7.324
  415SOL    HW1 3084  13.660   2.773   7.408
  415SOL    HW2 3085  13.750   2.750   7.288
  416SOL     OW 3086   1.150  10.892   5.872
  416SOL    HW1 3087   1.169  10.900   5.778
  416SOL    HW2 3088   1.107  10.974   5.895
  417SOL     OW 3089   8.106  12.374   3.786
  417SOL    HW1 3090   8.056  12.417   3.855
  417SOL    HW2 3091   8.078  12.282   3.790
  418SOL     OW 3092   6.750  10.247   0.820
  418SOL    HW1 3093   6.768  10.154   0.835
  418SOL    HW2 3094   6.687  10.248   0.748
  419SOL     OW 3095   8.183   8.997  11.250
  419SOL    HW1 3096   8.233   9.078  11.255
  419SOL    HW2 3097   8.180   8.965  11.340
  420SOL     OW 3098  12.786   0.615  12.841
  420SOL    HW1 3099  12.853   0.559  12.802
  420SOL    HW2 3100  12.809   0.621  12.934
  421SOL     OW 3101  13.957   4.058   9.517
  421SOL    HW1 3102  13.887   4.123   9.529
  421SOL    HW2 3103  14.009   4.093   9.444
  422SOL     OW 3104  10.367   3.372   9.794
  422SOL    HW1 3105  10.412   3.456   9.785
  422SOL    HW2 3106  10.438   3.309   9.808
  423SOL     OW 3107  12.970   4.580   3.650
  423SOL    HW1 3108  13.057   4.582   3.611
  423SOL    HW2 3109  12.949   4.672   3.667
  424SOL     OW 3110   4.066   6.679   1.039
  424SOL    HW1 3111   4.057   6.665   1.133
  424SOL    HW2 3112   4.154   6.649   1.019
  425SOL     OW 3113   8.522   9.803   9.634
  425SOL    HW1 3114   8.519   9.738   9.564
  425SOL    HW2 3115   8.603   9.852   9.618
  426SOL     OW 3116   7.287   3.309   8.858
  426SOL    HW1 3117   7.223   3.343   8.796
  426SOL    HW2 3118   7.370   3.347   8.830
  427SOL     OW 3119   9.074  12.851   8.818
  427SOL    HW1 3120   9.091  12.945   8.823
  427SOL    HW2 3121   9.042  12.838   8.728
  428SOL     OW 3122  11.741   3.064   2.940
  428SOL    HW1 3123  11.647   3.050   2.952
  428SOL    HW2 3124  11.769   3.108   3.021
  429SOL     OW 3125  10.155   8.431   9.836
  429SOL    HW1 3126  10.219   8.371   9.874
  429SOL    HW2 3127  10.205   8.481   9.771
  430SOL     OW 3128   1.398  13.083  10.677
  430SOL    HW1 3129   1.415  13.167  10.633
  430SOL    HW2 3130   1.344  13.034  10.615
  431SOL     OW 3131  11.305   3.037   8.193
  431SOL    HW1 3132  11.250   2.959   8.186
  431SOL    HW2 3133  11.340   3.034   8.282
  432SOL     OW 3134   4.373  12.035   3.451
  432SOL    HW1 3135   4.376  11.943   3.474
  432SOL    HW2 3136   4.318  12.039   3.372
  433SOL     OW 3137   5.052   0.671   2.160
  433SOL    HW1 3138   4.990   0.657   2.089
  433SOL    HW2 3139   5.061   0.585   2.201
  434SOL     OW 3140  12.128  12.771  12.388
  434SOL    HW1 3141  12.147  12.826  12.464
  434SOL    HW2 3142  12.187  12.802  12.319
  435SOL     OW 3143   2.834   0.708   5.733
  435SOL    HW1 3144   2.928   0.721   5.718
  435SOL    HW2 3145   2.828   0.691   5.827
  436SOL     OW 3146   7.427  12.891   6.357
  436SOL    HW1 3147   7.372  12.969   6.356
  436SOL    HW2 3148   7.515  12.923   6.338
  437SOL     OW 3149   4.311   0.973   3.667
  437SOL    HW1 3150   4.293   0.897   3.723
  437SOL    HW2 3151   4.226   0.993   3.627
  438SOL     OW 3152  14.868  11.641   9.711
  438SOL    HW1 3153   0.002  11.734   9.732
  438SOL    HW2 3154   0.085  11.609   9.713
  439SOL     OW 3155   1.172   4.206  13.619
  439SOL    HW1 3156   1.169   4.278  13.682
  439SOL    HW2 3157   1.081   4.191  13.594
  440SOL     OW 3158   1.776   8.927  13.989
  440SOL    HW1 3159   1.797   9.020  13.981
  440SOL    HW2 3160   1.820   8.887  13.914
  441SOL     OW 3161   9.004  11.995   9.191
  441SOL    HW1 3162   9.077  11.934   9.180
  441SOL    HW2 3163   9.036  12.061   9.252
  442SOL     OW 3164   2.372   9.970  11.864
  442SOL    HW1 3165   2.433   9.957  11.792
  442SOL    HW2 3166   2.286   9.946  11.828
  443SOL     OW 3167  14.073   6.903   0.085
  443SOL    HW1 3168  14.051   6.983   0.134
  443SOL    HW2 3169  14.169   6.904   0.079
  444SOL     OW 3170   6.009  10.193  11.392
  444SOL    HW1 3171   6.086  10.157  11.437
  444SOL    HW2 3172   5.987  10.127  11.327
  445SOL     OW 3173   3.234  14.741   3.222
  445SOL    HW1 3174   3.244  14.650   3.195
  445SOL    HW2 3175   3.151  14.768   3.183
  446SOL     OW 3176  13.290   9.753   0.431
  446SOL    HW1 3177  13.306   9.840   0.395
  446SOL    HW2 3178  13.203   9.759   0.470
  447SOL     OW 3179   7.178   4.611   4.489
  447SOL    HW1 3180   7.261   4.585   4.448
  447SOL    HW2 3181   7.121   4.535   4.478
  448SOL     OW 3182   1.500   5.984   4.818
  448SOL    HW1 3183   1.533   6.005   4.906
  448SOL    HW2 3184   1.412   6.020   4.816
  449SOL     OW 3185  13.728  11.895   4.512
  449SOL    HW1 3186  13.776  11.853   4.584
  449SOL    HW2 3187  13.657  11.942   4.555
  450SOL     OW 3188  14.725   1.104  14.071
  450SOL    HW1 3189  14.720   1.122  14.164
  450SOL    HW2 3190  14.661   1.034  14.057
  451SOL     OW 3191   4.705   2.813  10.919
  451SOL    HW1 3192   4.798   2.837  10.917
  451SOL    HW2 3193   4.681   2.801  10.827
  452SOL     OW 3194  13.529   4.275   0.689
  452SOL    HW1 3195  13.604   4.291   0.632
  452SOL    HW2 3196  13.486   4.199   0.651
  453SOL     OW 3197  14.750  13.147  10.161
  453SOL    HW1 3198  14.755  13.055  10.135
  453SOL    HW2 3199  14.730  13.144  10.255
  454SOL     OW 3200   0.539   8.759  13.319
  454SOL    HW1 3201   0.583   8.748  13.403
  454SOL    HW2 3202   0.447   8.775  13.342
  455SOL     OW 3203   5.803   1.296   4.439
  455SOL    HW1 3204   5.871   1.281   4.504
  455SOL    HW2 3205   5.851   1.306   4.356
  456SOL     OW 3206   7.456   4.174   1.754
  456SOL    HW1 3207   7.393   4.213   1.694
  456SOL    HW2 3208   7.537   4.223   1.738
  457SOL     OW 3209   1.556   3.041  14.793
  457SOL    HW1 3210   1.510   2.989  14.727
  457SOL    HW2 3211   1.600   2.976  14.848
  458SOL     OW 3212   2.751   2.260  14.437
  458SOL    HW1 3213   2.714   2.174  14.415
  458SOL    HW2 3214   2.840   2.256  14.400
  459SOL     OW 3215  10.962  12.235   3.549
  459SOL    HW1 3216  10.910  12.196   3.620
  459SOL    HW2 3217  10.996  12.160   3.501
  460SOL     OW 3218   7.443   5.316  13.589
  460SOL    HW1 3219   7.401   5.308  13.503
  460SOL    HW2 3220   7.385   5.269  13.649
  461SOL     OW 3221   1.675   6.861   7.726
  461SOL    HW1 3222   1.628   6.799   7.781
  461SOL    HW2 3223   1.631   6.945   7.742
  462SOL     OW 3224  10.063   2.707   8.945
  462SOL    HW1 3225  10.087   2.618   8.970
  462SOL    HW2 3226  10.116   2.763   9.003
  463SOL     OW 3227   2.939  14.454  11.830
  463SOL    HW1 3228   2.927  14.371  11.876
  463SOL    HW2 3229   3.015  14.494  11.872
  464SOL     OW 3230   1.670  14.718   9.773
  464SOL    HW1 3231   1.731  14.645   9.768
  464SOL    HW2 3232   1.711  14.780   9.834
  465SOL     OW 3233  12.847   6.661  12.308
  465SOL    HW1 3234  12.791   6.693  12.237
  465SOL    HW2 3235  12.932   6.702  12.292
  466SOL     OW 3236  11.985  11.991  11.252
  466SOL    HW1 3237  12.012  12.080  11.273
  466SOL    HW2 3238  11.903  12.001  11.205
  467SOL     OW 3239   6.322   3.345   6.943
  467SOL    HW1 3240   6.258   3.313   7.006
  467SOL    HW2 3241   6.317   3.440   6.950
  468SOL     OW 3242  12.844  12.006  13.396
  468SOL    HW1 3243  12.891  11.940  13.346
  468SOL    HW2 3244  12.907  12.038  13.460
  469SOL     OW 3245  13.585  14.079   1.256
  469SOL    HW1 3246  13.504  14.058   1.302
  469SOL    HW2 3247  13.648  14.013   1.285
  470SOL     OW 3248   7.719   1.301  10.906
  470SOL    HW1 3249   7.689   1.293  10.997
  470SOL    HW2 3250   7.811   1.325  10.914
  471SOL     OW 3251   3.495  11.952   3.234
  471SOL    HW1 3252   3.515  11.876   3.290
  471SOL    HW2 3253   3.415  11.927   3.189
  472SOL     OW 3254   1.763   4.994   0.440
  472SOL    HW1 3255   1.705   5.035   0.504
  472SOL    HW2 3256   1.807   5.068   0.397
  473SOL     OW 3257   5.145   5.954   4.003
  473SOL    HW1 3258   5.108   5.869   3.979
  473SOL    HW2 3259   5.095   6.017   3.952
  474SOL     OW 3260  14.077  14.343   2.660
  474SOL    HW1 3261  14.153  14.316   2.712
  474SOL    HW2 3262  14.040  14.417   2.708
  475SOL     OW 3263  13.445   5.363  14.174
  475SOL    HW1 3264  13.448   5.268  14.169
  475SOL    HW2 3265  13.531   5.391  14.143
  476SOL     OW 3266  14.378   6.842   3.022
  476SOL    HW1 3267  14.411   6.825   2.934
  476SOL    HW2 3268  14.457   6.851   3.076
  477SOL     OW 3269  14.587   4.825   6.481
  477SOL    HW1 3270  14.556   4.844   6.393
  477SOL    HW2 3271  14.523   4.764   6.517
  478SOL     OW 3272   8.800   8.931  14.687
  478SOL    HW1 3273   8.759   8.871  14.625
  478SOL    HW2 3274   8.869   8.879  14.728
  479SOL     OW 3275  10.035   9.666  14.650
  479SOL    HW1 3276   9.945   9.639  14.670
  479SOL    HW2 3277  10.036   9.677  14.555
  480SOL     OW 3278   1.068   6.376   7.811
  480SOL    HW1 3279   1.016   6.297   7.827
  480SOL    HW2 3280   1.106   6.363   7.725
  481SOL     OW 3281  10.668  14.475  10.460
  481SOL    HW1 3282  10.698  14.566  10.458
  481SOL    HW2 3283  10.718  14.436  10.532
  482SOL     OW 3284   3.694   4.487   8.821
  482SOL    HW1 3285   3.781   4.465   8.855
  482SOL    HW2 3286   3.638   4.490   8.898
  483SOL     OW 3287   5.712  10.987  11.642
  483SOL    HW1 3288   5.772  11.060  11.630
  483SOL    HW2 3289   5.722  10.933  11.564
  484SOL     OW 3290  12.026   4.641   5.135
  484SOL    HW1 3291  12.073   4.620   5.054
  484SOL    HW2 3292  12.006   4.734   5.127
  485SOL     OW 3293  13.875  11.933  14.240
  485SOL    HW1 3294  13.885  11.886  14.323
  485SOL    HW2 3295  13.931  11.885  14.179
  486SOL     OW 3296  12.881  10.689  14.110
  486SOL    HW1 3297  12.864  10.721  14.199
  486SOL    HW2 3298  12.973  10.710  14.094
  487SOL     OW 3299  14.718   3.597   0.662
  487SOL    HW1 3300  14.779   3.670   0.668
  487SOL    HW2 3301  14.761   3.533   0.605
  488SOL     OW 3302   0.223   5.834   2.926
  488SOL    HW1 3303   0.162   5.773   2.966
  488SOL    HW2 3304   0.210   5.916   2.973
  489SOL     OW 3305   2.026   6.948   0.202
  489SOL    HW1 3306   2.087   7.011   0.240
  489SOL    HW2 3307   1.979   6.912   0.277
  490SOL     OW 3308   7.166   1.555   9.335
  490SOL    HW1 3309   7.138   1.477   9.287
  490SOL    HW2 3310   7.092   1.576   9.391
  491SOL     OW 3311   3.569  12.790   2.169
  491SOL    HW1 3312   3.564  12.738   2.089
  491SOL    HW2 3313   3.500  12.756   2.225
  492SOL     OW 3314   7.897  11.595   8.304
  492SOL    HW1 3315   7.809  11.598   8.266
  492SOL    HW2 3316   7.907  11.681   8.346
  493SOL     OW 3317  11.813  11.412   7.820
  493SOL    HW1 3318  11.882  11.408   7.885
  493SOL    HW2 3319  11.847  11.363   7.745
  494SOL     OW 3320   1.458  12.616   1.565
  494SOL    HW1 3321   1.449  12.526   1.536
  494SOL    HW2 3322   1.430  12.614   1.657
  495SOL     OW 3323   7.009  14.268   0.786
  495SOL    HW1 3324   7.084  14.327   0.780
  495SOL    HW2 3325   6.970  14.287   0.871
  496SOL     OW 3326  11.345   6.641   3.590
  496SOL    HW1 3327  11.355   6.736   3.585
  496SOL    HW2 3328  11.281   6.620   3.522
  497SOL     OW 3329   1.581   9.092  12.103
  497SOL    HW1 3330   1.535   9.031  12.046
  497SOL    HW2 3331   1.674   9.070  12.092
  498SOL     OW 3332   1.898   2.419  10.796
  498SOL    HW1 3333   1.857   2.434  10.711
  498SOL    HW2 3334   1.888   2.325  10.811
  499SOL     OW 3335   0.673   8.816   4.816
  499SOL    HW1 3336   0.688   8.743   4.756
  499SOL    HW2 3337   0.641   8.887   4.760
  500SOL     OW 3338   9.339   5.373   8.341
  500SOL    HW1 3339   9.399   5.406   8.275
  500SOL    HW2 3340   9.254   5.372   8.297
  501SOL     OW 3341  11.523   7.873   1.268
  501SOL    HW1 3342  11.574   7.872   1.350
  501SOL    HW2 3343  11.469   7.951   1.274
  502SOL     OW 3344  12.115   9.119   5.259
  502SOL    HW1 3345  12.097   9.211   5.239
  502SOL    HW2 3346  12.141   9.082   5.174
  503SOL     OW 3347   2.443  12.428   7.772
  503SOL    HW1 3348   2.348  12.436   7.762
  503SOL    HW2 3349   2.479  12.464   7.691
  504SOL     OW 3350   8.936  12.306   1.681
  504SOL    HW1 3351   8.873  12.366   1.720
  504SOL    HW2 3352   8.894  12.220   1.683
  505SOL     OW 3353   9.212   4.217   4.822
  505SOL    HW1 3354   9.207   4.235   4.728
  505SOL    HW2 3355   9.301   4.183   4.835
  506SOL     OW 3356   0.490   0.326  10.308
  506SOL    HW1 3357   0.526   0.377  10.236
  506SOL    HW2 3358   0.556   0.334  10.378
  507SOL     OW 3359   8.123  11.722   3.725
  507SOL    HW1 3360   8.140  11.792   3.787
  507SOL    HW2 3361   8.032  11.697   3.740
  508SOL     OW 3362   6.895   6.558   6.539
  508SOL    HW1 3363   6.881   6.546   6.446
  508SOL    HW2 3364   6.896   6.653   6.551
  509SOL     OW 3365  11.368   6.364  12.909
  509SOL    HW1 3366  11.392   6.443  12.863
  509SOL    HW2 3367  11.324   6.310  12.843
  510SOL     OW 3368   9.361   4.961   6.763
  510SOL    HW1 3369   9.328   4.920   6.844
  510SOL    HW2 3370   9.286   4.958   6.703
  511SOL     OW 3371   2.017   1.506  12.515
  511SOL    HW1 3372   2.005   1.574  12.582
  511SOL    HW2 3373   2.016   1.424  12.563
  512SOL     OW 3374   0.631  11.854   6.993
  512SOL    HW1 3375   0.721  11.836   7.021
  512SOL    HW2 3376   0.638  11.937   6.945
  513SOL     OW 3377   4.787   6.999   6.750
  513SOL    HW1 3378   4.763   7.009   6.658
  513SOL    HW2 3379   4.706   7.015   6.798
  514SOL     OW 3380   0.881   9.940   3.641
  514SOL    HW1 3381   0.927  10.019   3.669
  514SOL    HW2 3382   0.939   9.898   3.578
  515SOL     OW 3383   5.176   1.042  14.756
  515SOL    HW1 3384   5.186   0.983  14.681
  515SOL    HW2 3385   5.100   1.008  14.803
  516SOL     OW 3386   5.231   9.855   5.160
  516SOL    HW1 3387   5.194   9.832   5.245
  516SOL    HW2 3388   5.312   9.805   5.154
  517SOL     OW 3389  11.999   9.067   8.274
  517SOL    HW1 3390  11.909   9.100   8.271
  517SOL    HW2 3391  12.047   9.123   8.213
  518SOL     OW 3392   0.213  10.157   2.389
  518SOL    HW1 3393   0.152  10.222   2.352
  518SOL    HW2 3394   0.200  10.164   2.484
  519SOL     OW 3395   9.462   1.189   3.527
  519SOL    HW1 3396   9.443   1.125   3.457
  519SOL    HW2 3397   9.555   1.178   3.545
  520SOL     OW 3398   6.098   1.090   7.017
  520SOL    HW1 3399   6.032   1.042   7.067
  520SOL    HW2 3400   6.111   1.038   6.938
  521SOL     OW 3401   4.237   1.783   5.147
  521SOL    HW1 3402   4.261   1.852   5.085
  521SOL    HW2 3403   4.142   1.786   5.151
  522SOL     OW 3404   2.605   2.134   5.991
  522SOL    HW1 3405   2.651   2.073   5.933
  522SOL    HW2 3406   2.512   2.117   5.974
  523SOL     OW 3407   3.048  11.200   9.325
  523SOL    HW1 3408   3.000  11.136   9.377
  523SOL    HW2 3409   3.105  11.244   9.388
  524SOL     OW 3410   2.042  10.758   8.885
  524SOL    HW1 3411   2.019  10.838   8.838
  524SOL    HW2 3412   2.104  10.787   8.953
  525SOL     OW 3413   0.821   9.182   0.628
  525SOL    HW1 3414   0.761   9.181   0.553
  525SOL    HW2 3415   0.906   9.206   0.591
  526SOL     OW 3416  14.543   3.549   8.605
  526SOL    HW1 3417  14.476   3.482   8.589
  526SOL    HW2 3418  14.573   3.575   8.518
  527SOL     OW 3419  12.770   7.410   0.609
  527SOL    HW1 3420  12.796   7.502   0.617
  527SOL    HW2 3421  12.832   7.363   0.664
  528SOL     OW 3422   9.991   5.516   9.735
  528SOL    HW1 3423   9.947   5.589   9.693
  528SOL    HW2 3424   9.958   5.438   9.690
  529SOL     OW 3425   0.978  12.564  13.331
  529SOL    HW1 3426   1.063  12.528  13.358
  529SOL    HW2 3427   0.963  12.527  13.245
  530SOL     OW 3428   4.155   7.382   2.856
  530SOL    HW1 3429   4.244   7.409   2.837
  530SOL    HW2 3430   4.100   7.449   2.814
  531SOL     OW 3431   4.636   7.975  13.618
  531SOL    HW1 3432   4.699   8.011  13.680
  531SOL    HW2 3433   4.643   7.880  13.629
  532SOL     OW 3434   6.129  11.963   9.854
  532SOL    HW1 3435   6.089  11.907   9.921
  532SOL    HW2 3436   6.111  12.052   9.884
  533SOL     OW 3437  14.577   3.038   1.837
  533SOL    HW1 3438  14.557   3.129   1.819
  533SOL    HW2 3439  14.672   3.036   1.853
  534SOL     OW 3440   2.503  11.692  14.593
  534SOL    HW1 3441   2.567  11.744  14.543
  534SOL    HW2 3442   2.557  11.632  14.645
  535SOL     OW 3443   4.691   3.910   2.969
  535SOL    HW1 3444   4.647   3.851   3.030
  535SOL    HW2 3445   4.621   3.955   2.923
  536SOL     OW 3446  11.381   7.651  10.932
  536SOL    HW1 3447  11.362   7.584  10.998
  536SOL    HW2 3448  11.296   7.690  10.913
  537SOL     OW 3449   8.161   7.417  13.994
  537SOL    HW1 3450   8.094   7.383  13.933
  537SOL    HW2 3451   8.242   7.375  13.965
  538SOL     OW 3452   5.781   4.469   7.657
  538SOL    HW1 3453   5.866   4.447   7.618
  538SOL    HW2 3454   5.804   4.506   7.742
  539SOL     OW 3455  14.720   9.431   0.942
  539SOL    HW1 3456  14.765   9.428   1.026
  539SOL    HW2 3457  14.666   9.510   0.946
  540SOL     OW 3458   9.296  11.847   7.250
  540SOL    HW1 3459   9.313  11.935   7.217
  540SOL    HW2 3460   9.308  11.854   7.345
  541SOL     OW 3461   0.936   5.832   2.784
  541SOL    HW1 3462   0.880   5.756   2.799
  541SOL    HW2 3463   0.920   5.888   2.859
  542SOL     OW 3464  10.456   8.855   1.224
  542SOL    HW1 3465  10.362   8.839   1.227
  542SOL    HW2 3466  10.495   8.768   1.212
  543SOL     OW 3467  14.768  10.028   1.924
  543SOL    HW1 3468  14.810  10.094   1.869
  543SOL    HW2 3469  14.675  10.033   1.903
  544SOL     OW 3470   3.221  11.967   6.431
  544SOL    HW1 3471   3.292  11.903   6.425
  544SOL    HW2 3472   3.263  12.046   6.465
  545SOL     OW 3473   7.546   8.034  10.066
  545SOL    HW1 3474   7.610   7.979  10.019
  545SOL    HW2 3475   7.591   8.118  10.077
  546SOL     OW 3476   4.582   2.865   2.721
  546SOL    HW1 3477   4.536   2.841   2.640
  546SOL    HW2 3478   4.556   2.956   2.737
  547SOL     OW 3479  10.852   2.199   7.315
  547SOL    HW1 3480  10.766   2.192   7.358
  547SOL    HW2 3481  10.838   2.163   7.228
  548SOL     OW 3482   0.391   7.299   6.761
  548SOL    HW1 3483   0.478   7.293   6.721
  548SOL    HW2 3484   0.409   7.311   6.855
  549SOL     OW 3485   0.213  10.265   8.596
  549SOL    HW1 3486   0.127  10.306   8.597
  549SOL    HW2 3487   0.195  10.171   8.595
  550SOL     OW 3488  13.429  12.409  11.513
  550SOL    HW1 3489  13.518  12.432  11.487
  550SOL    HW2 3490  13.393  12.360  11.439
  551SOL     OW 3491   7.728   8.715   6.164
  551SOL    HW1 3492   7.639   8.689   6.142
  551SOL    HW2 3493   7.736   8.805   6.132
  552SOL     OW 3494   4.203   4.775   4.352
  552SOL    HW1 3495   4.161   4.697   4.388
  552SOL    HW2 3496   4.132   4.828   4.318
  553SOL     OW 3497   2.627   3.892   6.879
  553SOL    HW1 3498   2.702   3.842   6.911
  553SOL    HW2 3499   2.553   3.859   6.930
  554SOL     OW 3500   8.531   9.522  12.416
  554SOL    HW1 3501   8.549   9.484  12.330
  554SOL    HW2 3502   8.558   9.613  12.408
  555SOL     OW 3503   0.050  14.686   0.120
  555SOL    HW1 3504  14.836  14.724   0.138
  555SOL    HW2 3505   0.102  14.761   0.089
  556SOL     OW 3506  13.935   1.374   8.774
  556SOL    HW1 3507  13.906   1.286   8.750
  556SOL    HW2 3508  13.922   1.426   8.695
  557SOL     OW 3509   8.499  14.659   8.203
  557SOL    HW1 3510   8.460  14.731   8.153
  557SOL    HW2 3511   8.460  14.580   8.166
  558SOL     OW 3512   6.693   1.663   7.184
  558SOL    HW1 3513   6.703   1.623   7.270
  558SOL    HW2 3514   6.678   1.590   7.124
  559SOL     OW 3515   2.749   2.429   4.917
  559SOL    HW1 3516   2.799   2.390   4.989
  559SOL    HW2 3517   2.699   2.500   4.959
  560SOL     OW 3518  11.767   2.018  13.948
  560SOL    HW1 3519  11.845   2.019  13.893
  560SOL    HW2 3520  11.779   1.941  14.005
  561SOL     OW 3521   8.987   1.920   7.010
  561SOL    HW1 3522   8.931   1.917   7.088
  561SOL    HW2 3523   8.933   1.961   6.943
  562SOL     OW 3524   5.745   6.098  13.677
  562SOL    HW1 3525   5.827   6.050  13.666
  562SOL    HW2 3526   5.716   6.117  13.587
  563SOL     OW 3527   7.952  13.835   9.599
  563SOL    HW1 3528   7.961  13.840   9.694
  563SOL    HW2 3529   8.022  13.891   9.565
  564SOL     OW 3530  12.461   9.518   4.912
  564SOL    HW1 3531  12.431   9.554   4.828
  564SOL    HW2 3532  12.423   9.576   4.978
  565SOL     OW 3533   0.768   6.450   5.911
  565SOL    HW1 3534   0.831   6.443   5.982
  565SOL    HW2 3535   0.792   6.531   5.865
  566SOL     OW 3536   7.916   5.760   7.406
  566SOL    HW1 3537   7.871   5.813   7.472
  566SOL    HW2 3538   7.890   5.798   7.322
  567SOL     OW 3539  10.779   4.151  13.985
  567SOL    HW1 3540  10.786   4.057  13.996
  567SOL    HW2 3541  10.694   4.174  14.022
  568SOL     OW 3542   6.365   8.691   4.994
  568SOL    HW1 3543   6.288   8.644   4.962
  568SOL    HW2 3544   6.356   8.779   4.958
  569SOL     OW 3545  12.202   0.432  14.688
  569SOL    HW1 3546  12.174   0.356  14.739
  569SOL    HW2 3547  12.151   0.427  14.607
  570SOL     OW 3548  14.402   0.383   1.716
  570SOL    HW1 3549  14.371   0.336   1.793
  570SOL    HW2 3550  14.407   0.474   1.744
  571SOL     OW 3551  11.978   9.716   0.346
  571SOL    HW1 3552  11.950   9.786   0.287
  571SOL    HW2 3553  12.041   9.666   0.294
  572SOL     OW 3554  12.941   8.287   0.321
  572SOL    HW1 3555  12.956   8.194   0.301
  572SOL    HW2 3556  12.979   8.334   0.247
  573SOL     OW 3557   5.386  13.568   4.110
  573SOL    HW1 3558   5.449  13.594   4.177
  573SOL    HW2 3559   5.439  13.544   4.035
  574SOL     OW 3560  12.899   6.889  13.664
  574SOL    HW1 3561  12.830   6.875  13.729
  574SOL    HW2 3562  12.916   6.983  13.668
  575SOL     OW 3563   9.270  11.074   9.366
  575SOL    HW1 3564   9.184  11.117   9.365
  575SOL    HW2 3565   9.300  11.083   9.456
  576SOL     OW 3566  14.639   9.459  12.019
  576SOL    HW1 3567  14.571   9.452  12.086
  576SOL    HW2 3568  14.598   9.429  11.939
  577SOL     OW 3569  14.260   8.904   2.637
  577SOL    HW1 3570  14.254   8.984   2.689
  577SOL    HW2 3571  14.212   8.924   2.557
  578SOL     OW 3572   2.176   5.165   0.777
  578SOL    HW1 3573   2.239   5.096   0.797
  578SOL    HW2 3574   2.174   5.169   0.682
  579SOL     OW 3575   0.817  10.623   9.892
  579SOL    HW1 3576   0.834  10.618   9.798
  579SOL    HW2 3577   0.758  10.698   9.902
  580SOL     OW 3578   5.715  13.854   2.065
  580SOL    HW1 3579   5.656  13.930   2.058
  580SOL    HW2 3580   5.684  13.794   1.997
  581SOL     OW 3581   6.043   8.374  10.759
  581SOL    HW1 3582   5.948   8.367  10.760
  581SOL    HW2 3583   6.071   8.326  10.681
  582SOL     OW 3584   8.100   0.833  12.955
  582SOL    HW1 3585   8.051   0.899  13.004
  582SOL    HW2 3586   8.086   0.752  13.004
  583SOL     OW 3587  12.780   9.007   0.492
  583SOL    HW1 3588  12.687   9.016   0.510
  583SOL    HW2 3589  12.789   8.920   0.452
  584SOL     OW 3590  13.070   4.082   6.548
  584SOL    HW1 3591  13.091   4.172   6.570
  584SOL    HW2 3592  13.108   4.030   6.620
  585SOL     OW 3593   8.587  14.208   7.322
  585SOL    HW1 3594   8.679  14.193   7.303
  585SOL    HW2 3595   8.581  14.303   7.336
  586SOL     OW 3596  12.158  11.856   9.048
  586SOL    HW1 3597  12.130  11.859   8.956
  586SOL    HW2 3598  12.251  11.835   9.044
  587SOL     OW 3599  13.751   8.406   5.556
  587SOL    HW1 3600  13.786   8.397   5.467
  587SOL    HW2 3601  13.728   8.317   5.583
  588SOL     OW 3602   7.876   0.684   7.929
  588SOL    HW1 3603   7.960   0.643   7.907
  588SOL    HW2 3604   7.894   0.778   7.929
  589SOL     OW 3605   7.443   0.802   4.295
  589SOL    HW1 3606   7.393   0.722   4.312
  589SOL    HW2 3607   7.377   0.870   4.282
  590SOL     OW 3608  11.004  13.667   2.128
  590SOL    HW1 3609  11.035  13.609   2.059
  590SOL    HW2 3610  11.032  13.754   2.101
  591SOL     OW 3611   8.372  13.674   7.170
  591SOL    HW1 3612   8.411  13.629   7.095
  591SOL    HW2 3613   8.446  13.716   7.214
  592SOL     OW 3614   5.505   6.918   4.387
  592SOL    HW1 3615   5.554   7.000   4.396
  592SOL    HW2 3616   5.488   6.911   4.293
  593SOL     OW 3617   2.222   5.500   9.334
  593SOL    HW1 3618   2.266   5.421   9.363
  593SOL    HW2 3619   2.292   5.562   9.316
  594SOL     OW 3620   9.218  12.999  12.486
  594SOL    HW1 3621   9.221  13.033  12.575
  594SOL    HW2 3622   9.309  13.001  12.456
  595SOL     OW 3623   7.983  10.864   2.097
  595SOL    HW1 3624   8.052  10.815   2.142
  595SOL    HW2 3625   7.912  10.868   2.161
  596SOL     OW 3626   1.229   1.643  11.555
  596SOL    HW1 3627   1.134   1.655  11.550
  596SOL    HW2 3628   1.241   1.548  11.558
  597SOL     OW 3629   8.199  10.691   0.311
  597SOL    HW1 3630   8.247  10.772   0.296
  597SOL    HW2 3631   8.107  10.717   0.312
  598SOL     OW 3632   5.386  11.181  13.867
  598SOL    HW1 3633   5.343  11.199  13.950
  598SOL    HW2 3634   5.334  11.227  13.802
  599SOL     OW 3635  11.150   6.489  14.295
  599SOL    HW1 3636  11.214   6.464  14.362
  599SOL    HW2 3637  11.159   6.422  14.228
  600SOL     OW 3638  11.758   6.959   5.508
  600SOL    HW1 3639  11.825   6.929   5.447
  600SOL    HW2 3640  11.797   6.947   5.595
  601SOL     OW 3641  14.698  14.495   8.717
  601SOL    HW1 3642  14.669  14.404   8.707
  601SOL    HW2 3643  14.659  14.524   8.800
  602SOL     OW 3644   0.710   3.354   1.258
  602SOL    HW1 3645   0.730   3.428   1.200
  602SOL    HW2 3646   0.796   3.318   1.281
  603SOL     OW 3647   9.388  12.142   0.525
  603SOL    HW1 3648   9.459  12.201   0.500
  603SOL    HW2 3649   9.432  12.060   0.548
  604SOL     OW 3650   6.215   7.662   6.764
  604SOL    HW1 3651   6.252   7.574   6.764
  604SOL    HW2 3652   6.124   7.650   6.735
  605SOL     OW 3653   8.183   1.998   3.501
  605SOL    HW1 3654   8.212   1.946   3.576
  605SOL    HW2 3655   8.089   2.011   3.515
  606SOL     OW 3656   4.662  13.895  10.652
  606SOL    HW1 3657   4.615  13.822  10.692
  606SOL    HW2 3658   4.751  13.888  10.686
  607SOL     OW 3659  10.669   3.891   0.526
  607SOL    HW1 3660  10.677   3.943   0.606
  607SOL    HW2 3661  10.745   3.917   0.474
  608SOL     OW 3662   4.159  10.931   2.919
  608SOL    HW1 3663   4.140  11.022   2.941
  608SOL    HW2 3664   4.167  10.887   3.004
  609SOL     OW 3665   6.087  14.148  13.312
  609SOL    HW1 3666   6.118  14.206  13.382
  609SOL    HW2 3667   6.135  14.177  13.234
  610SOL     OW 3668  11.185  14.041  14.469
  610SOL    HW1 3669  11.206  13.959  14.423
  610SOL    HW2 3670  11.104  14.021  14.516
  611SOL     OW 3671   5.332   5.034   7.366
  611SOL    HW1 3672   5.253   5.048   7.313
  611SOL    HW2 3673   5.397   5.092   7.327
  612SOL     OW 3674   6.795   8.914  13.541
  612SOL    HW1 3675   6.857   8.896  13.470
  612SOL    HW2 3676   6.841   8.885  13.620
  613SOL     OW 3677   0.148  12.160   3.017
  613SOL    HW1 3678   0.153  12.229   2.951
  613SOL    HW2 3679   0.229  12.169   3.068
  614SOL     OW 3680   5.580  10.704   0.701
  614SOL    HW1 3681   5.617  10.771   0.759
  614SOL    HW2 3682   5.485  10.719   0.705
  615SOL     OW 3683   4.427   8.229   9.532
  615SOL    HW1 3684   4.422   8.318   9.498
  615SOL    HW2 3685   4.404   8.237   9.625
  616SOL     OW 3686   1.597  11.675  13.458
  616SOL    HW1 3687   1.588  11.590  13.501
  616SOL    HW2 3688   1.573  11.739  13.525
  617SOL     OW 3689   6.739  11.171  11.554
  617SOL    HW1 3690   6.823  11.211  11.577
  617SOL    HW2 3691   6.694  11.237  11.502
  618SOL     OW 3692   2.578   2.083  13.143
  618SOL    HW1 3693   2.569   1.995  13.179
  618SOL    HW2 3694   2.561   2.073  13.050
  619SOL     OW 3695   2.907  11.340  10.760
  619SOL    HW1 3696   2.930  11.392  10.683
  619SOL    HW2 3697   2.990  11.303  10.789
  620SOL     OW 3698   4.565  13.769  10.165
  620SOL    HW1 3699   4.564  13.848  10.111
  620SOL    HW2 3700   4.532  13.798  10.251
  621SOL     OW 3701  12.411   2.971   6.868
  621SOL    HW1 3702  12.376   3.038   6.925
  621SOL    HW2 3703  12.496   3.005   6.840
  622SOL     OW 3704   2.145   2.287   3.748
  622SOL    HW1 3705   2.192   2.265   3.668
  622SOL    HW2 3706   2.052   2.282   3.723
  623SOL     OW 3707   0.351   3.079  12.045
  623SOL    HW1 3708   0.348   3.077  11.950
  623SOL    HW2 3709   0.261   3.061  12.072
  624SOL     OW 3710   4.413  11.328   5.255
  624SOL    HW1 3711   4.490  11.363   5.210
  624SOL    HW2 3712   4.441  11.317   5.346
  625SOL     OW 3713   4.030   2.178   5.098
  625SOL    HW1 3714   4.002   2.267   5.116
  625SOL    HW2 3715   4.014   2.131   5.179
  626SOL     OW 3716   4.749   7.144   9.421
  626SOL    HW1 3717   4.809   7.102   9.360
  626SOL    HW2 3718   4.787   7.126   9.508
  627SOL     OW 3719  10.857  14.362   4.028
  627SOL    HW1 3720  10.788  14.380   3.964
  627SOL    HW2 3721  10.901  14.447   4.039
  628SOL     OW 3722   8.905  14.202  13.254
  628SOL    HW1 3723   8.906  14.151  13.173
  628SOL    HW2 3724   8.959  14.278  13.236
  629SOL     OW 3725   0.409  13.903  10.114
  629SOL    HW1 3726   0.400  13.862  10.200
  629SOL    HW2 3727   0.337  13.866  10.062
  630SOL     OW 3728   5.004   4.315  14.623
  630SOL    HW1 3729   5.070   4.383  14.639
  630SOL    HW2 3730   4.920   4.358  14.640
  631SOL     OW 3731   6.533   0.326  13.116
  631SOL    HW1 3732   6.464   0.351  13.177
  631SOL    HW2 3733   6.551   0.406  13.067
  632SOL     OW 3734  10.616   2.509   1.903
  632SOL    HW1 3735  10.659   2.434   1.944
  632SOL    HW2 3736  10.619   2.490   1.809
  633SOL     OW 3737   4.285  13.075   8.827
  633SOL    HW1 3738   4.317  13.151   8.876
  633SOL    HW2 3739   4.209  13.108   8.779
  634SOL     OW 3740   3.845  11.786  12.174
  634SOL    HW1 3741   3.917  11.840  12.139
  634SOL    HW2 3742   3.780  11.849  12.203
  635SOL     OW 3743   4.978   7.473   3.176
  635SOL    HW1 3744   5.071   7.450   3.188
  635SOL    HW2 3745   4.980   7.544   3.112
  636SOL     OW 3746   9.591   3.420   8.935
  636SOL    HW1 3747   9.549   3.356   8.877
  636SOL    HW2 3748   9.558   3.399   9.022
  637SOL     OW 3749   7.695   2.042   4.900
  637SOL    HW1 3750   7.703   1.954   4.863
  637SOL    HW2 3751   7.603   2.049   4.925
  638SOL     OW 3752   9.104   3.664  11.185
  638SOL    HW1 3753   9.026   3.626  11.225
  638SOL    HW2 3754   9.071   3.739  11.136
  639SOL     OW 3755   1.871  10.393   6.776
  639SOL    HW1 3756   1.782  10.367   6.753
  639SOL    HW2 3757   1.917  10.401   6.692
  640SOL     OW 3758   3.379   4.963  11.327
  640SOL    HW1 3759   3.304   4.951  11.268
  640SOL    HW2 3760   3.454   4.928  11.279
  641SOL     OW 3761   4.696   1.470  12.960
  641SOL    HW1 3762   4.638   1.462  13.036
  641SOL    HW2 3763   4.755   1.542  12.982
  642SOL     OW 3764   6.292  10.241   2.293
  642SOL    HW1 3765   6.386  10.257   2.292
  642SOL    HW2 3766   6.258  10.296   2.222
  643SOL     OW 3767  14.654  14.390  13.869
  643SOL    HW1 3768  14.659  14.441  13.787
  643SOL    HW2 3769  14.607  14.448  13.929
  644SOL     OW 3770   0.971   4.555  10.050
  644SOL    HW1 3771   0.936   4.469  10.027
  644SOL    HW2 3772   1.061   4.554  10.016
  645SOL     OW 3773   0.495   6.877  13.972
  645SOL    HW1 3774   0.584   6.855  14.001
  645SOL    HW2 3775   0.506   6.900  13.879
  646SOL     OW 3776  11.228   1.935   7.188
  646SOL    HW1 3777  11.236   2.007   7.126
  646SOL    HW2 3778  11.256   1.858   7.139
  647SOL     OW 3779   2.364   3.997   3.451
  647SOL    HW1 3780   2.344   4.001   3.357
  647SOL    HW2 3781   2.288   3.953   3.490
  648SOL     OW 3782  12.336   0.345   7.654
  648SOL    HW1 3783  12.275   0.274   7.635
  648SOL    HW2 3784  12.299   0.388   7.732
  649SOL     OW 3785  12.144  13.112  10.724
  649SOL    HW1 3786  12.070  13.161  10.688
  649SOL    HW2 3787  12.199  13.179  10.765
  650SOL     OW 3788  12.111   8.033  10.724
  650SOL    HW1 3789  12.156   7.971  10.780
  650SOL    HW2 3790  12.033   7.986  10.694
  651SOL     OW 3791  13.277  14.621  10.438
  651SOL    HW1 3792  13.233  14.566  10.373
  651SOL    HW2 3793  13.357  14.574  10.459
  652SOL     OW 3794   3.654   8.619   8.832
  652SOL    HW1 3795   3.742   8.649   8.854
  652SOL    HW2 3796   3.648   8.626   8.737
  653SOL     OW 3797   3.191   0.092  14.462
  653SOL    HW1 3798   3.139   0.130  14.391
  653SOL    HW2 3799   3.218   0.006  14.430
  654SOL     OW 3800  13.529  10.007   6.366
  654SOL    HW1 3801  13.548  10.014   6.459
  654SOL    HW2 3802  13.487  10.090   6.344
  655SOL     OW 3803   8.019  11.113  10.120
  655SOL    HW1 3804   8.025  11.208  10.109
  655SOL    HW2 3805   7.973  11.083  10.041
  656SOL     OW 3806  12.287   2.939   5.247
  656SOL    HW1 3807  12.329   3.000   5.187
  656SOL    HW2 3808  12.201   2.923   5.209
  657SOL     OW 3809   2.367   2.190   4.887
  657SOL    HW1 3810   2.461   2.174   4.878
  657SOL    HW2 3811   2.346   2.155   4.974
  658SOL     OW 3812  11.788   8.381   6.556
  658SOL    HW1 3813  11.798   8.474   6.575
  658SOL    HW2 3814  11.704   8.374   6.511
  659SOL     OW 3815   9.904  13.310   8.654
  659SOL    HW1 3816   9.930  13.219   8.667
  659SOL    HW2 3817   9.966  13.361   8.706
  660SOL     OW 3818   4.351  12.896  10.183
  660SOL    HW1 3819   4.383  12.983  10.158
  660SOL    HW2 3820   4.296  12.869  10.109
  661SOL     OW 3821   4.649  13.037   9.996
  661SOL    HW1 3822   4.739  13.034  10.027
  661SOL    HW2 3823   4.656  13.064   9.904
  662SOL     OW 3824  12.673   8.370   7.688
  662SOL    HW1 3825  12.578   8.381   7.700
  662SOL    HW2 3826  12.707   8.459   7.680
  663SOL     OW 3827  13.127   6.060   9.654
  663SOL    HW1 3828  13.142   6.004   9.578
  663SOL    HW2 3829  13.137   6.001   9.729
  664SOL     OW 3830   5.692   0.632   2.740
  664SOL    HW1 3831   5.609   0.644   2.786
  664SOL    HW2 3832   5.758   0.624   2.809
  665SOL     OW 3833   9.658   9.602  11.132
  665SOL    HW1 3834   9.573   9.575  11.166
  665SOL    HW2 3835   9.711   9.523  11.137
  666SOL     OW 3836   4.825  14.857   0.149
  666SOL    HW1 3837   4.917  14.836   0.166
  666SOL    HW2 3838   4.808   0.063   0.200
  667SOL     OW 3839   6.629   3.729  11.537
  667SOL    HW1 3840   6.665   3.662  11.595
  667SOL    HW2 3841   6.670   3.713  11.453
  668SOL     OW 3842   1.875   6.767   8.444
  668SOL    HW1 3843   1.811   6.804   8.383
  668SOL    HW2 3844   1.939   6.723   8.387
  669SOL     OW 3845  10.684   8.817   5.736
  669SOL    HW1 3846  10.646   8.758   5.801
  669SOL    HW2 3847  10.769   8.778   5.715
  670SOL     OW 3848   8.255  11.283   5.316
  670SOL    HW1 3849   8.161  11.290   5.336
  670SOL    HW2 3850   8.297  11.346   5.375
  671SOL     OW 3851  12.037   6.818   9.048
  671SOL    HW1 3852  11.947   6.798   9.074
  671SOL    HW2 3853  12.056   6.757   8.977
  672SOL     OW 3854   3.661   4.264   3.178
  672SOL    HW1 3855   3.670   4.180   3.133
  672SOL    HW2 3856   3.747   4.279   3.217
  673SOL     OW 3857   9.692   0.184   6.052
  673SOL    HW1 3858   9.662   0.256   5.997
  673SOL    HW2 3859   9.732   0.122   5.990
  674SOL     OW 3860   4.310   5.152   1.795
  674SOL    HW1 3861   4.338   5.238   1.765
  674SOL    HW2 3862   4.386   5.118   1.843
  675SOL     OW 3863   0.170   6.750   0.230
  675SOL    HW1 3864   0.255   6.709   0.249
  675SOL    HW2 3865   0.106   6.698   0.278
  676SOL     OW 3866   8.086   9.384   3.191
  676SOL    HW1 3867   8.100   9.392   3.096
  676SOL    HW2 3868   8.033   9.461   3.213
  677SOL     OW 3869   0.725   2.038  10.926
  677SOL    HW1 3870   0.812   2.012  10.897
  677SOL    HW2 3871   0.735   2.052  11.021
  678SOL     OW 3872  12.718   9.934  10.463
  678SOL    HW1 3873  12.638   9.980  10.434
  678SOL    HW2 3874  12.726   9.860  10.403
  679SOL     OW 3875   2.935   7.336  14.527
  679SOL    HW1 3876   2.986   7.264  14.565
  679SOL    HW2 3877   2.975   7.415  14.563
  680SOL     OW 3878   1.605   8.538   7.164
  680SOL    HW1 3879   1.580   8.448   7.142
  680SOL    HW2 3880   1.673   8.559   7.100
  681SOL     OW 3881  13.682   0.449   6.278
  681SOL    HW1 3882  13.651   0.538   6.294
  681SOL    HW2 3883  13.742   0.432   6.351
  682SOL     OW 3884   5.955   6.944   4.495
  682SOL    HW1 3885   5.918   7.026   4.464
  682SOL    HW2 3886   5.891   6.911   4.558
  683SOL     OW 3887   7.892   3.301  12.432
  683SOL    HW1 3888   7.918   3.275  12.520
  683SOL    HW2 3889   7.937   3.239  12.374
  684SOL     OW 3890   8.389  13.208  13.085
  684SOL    HW1 3891   8.483  13.224  13.097
  684SOL    HW2 3892   8.383  13.115  13.063
  685SOL     OW 3893  10.278   6.028  11.581
  685SOL    HW1 3894  10.197   5.977  11.577
  685SOL    HW2 3895  10.268   6.082  11.660
  686SOL     OW 3896   8.391  12.726   0.913
  686SOL    HW1 3897   8.387  12.819   0.888
  686SOL    HW2 3898   8.399  12.727   1.008
  687SOL     OW 3899   6.463   5.586   8.856
  687SOL    HW1 3900   6.412   5.525   8.909
  687SOL    HW2 3901   6.552   5.577   8.889
  688SOL     OW 3902   3.201   5.202   1.825
  688SOL    HW1 3903   3.256   5.130   1.793
  688SOL    HW2 3904   3.228   5.277   1.773
  689SOL     OW 3905   4.257  13.130   1.148
  689SOL    HW1 3906   4.267  13.122   1.243
  689SOL    HW2 3907   4.182  13.188   1.135
  690SOL     OW 3908   4.365   5.092  12.263
  690SOL    HW1 3909   4.370   5.055  12.351
  690SOL    HW2 3910   4.353   5.186  12.277
  691SOL     OW 3911   2.950  11.936  14.850
  691SOL    HW1 3912   3.009  11.861  14.857
  691SOL    HW2 3913   2.863  11.897  14.838
  692SOL     OW 3914   5.582  11.994  12.666
  692SOL    HW1 3915   5.525  12.047  12.722
  692SOL    HW2 3916   5.604  12.052  12.593
  693SOL     OW 3917  14.806  10.098   3.149
  693SOL    HW1 3918  14.805  10.023   3.209
  693SOL    HW2 3919  14.826  10.173   3.205
  694SOL     OW 3920  13.613   4.102  13.874
  694SOL    HW1 3921  13.687   4.136  13.824
  694SOL    HW2 3922  13.637   4.119  13.965
  695SOL     OW 3923   7.372   4.681   3.312
  695SOL    HW1 3924   7.444   4.656   3.370
  695SOL    HW2 3925   7.412   4.739   3.248
  696SOL     OW 3926   3.863   4.291   7.414
  696SOL    HW1 3927   3.919   4.315   7.341
  696SOL    HW2 3928   3.914   4.228   7.465
  697SOL     OW 3929  10.889  10.401   3.900
  697SOL    HW1 3930  10.937  10.463   3.845
  697SOL    HW2 3931  10.954  10.370   3.963
  698SOL     OW 3932   0.789   7.479   4.666
  698SOL    HW1 3933   0.784   7.496   4.760
  698SOL    HW2 3934   0.877   7.507   4.642
  699SOL     OW 3935   0.019  13.703   9.623
  699SOL    HW1 3936   0.065  13.667   9.699
  699SOL    HW2 3937   0.055  13.655   9.548
  700SOL     OW 3938   0.440   3.896   3.420
  700SOL    HW1 3939   0.423   3.829   3.486
  700SOL    HW2 3940   0.443   3.848   3.337
  701SOL     OW 3941   1.922   0.614   7.914
  701SOL    HW1 3942   1.853   0.672   7.946
  701SOL    HW2 3943   1.995   0.672   7.893
  702SOL     OW 3944   7.562  12.440   0.689
  702SOL    HW1 3945   7.606  12.467   0.608
  702SOL    HW2 3946   7.478  12.485   0.687
  703SOL     OW 3947  11.863   1.545  14.247
  703SOL    HW1 3948  11.930   1.477  14.239
  703SOL    HW2 3949  11.842   1.546  14.340
  704SOL     OW 3950  11.504   4.170   8.365
  704SOL    HW1 3951  11.456   4.195   8.287
  704SOL    HW2 3952  11.439   4.169   8.435
  705SOL     OW 3953   5.366  12.505  12.858
  705SOL    HW1 3954   5.400  12.469  12.777
  705SOL    HW2 3955   5.443  12.517  12.914
  706SOL     OW 3956  14.815  12.869   5.725
  706SOL    HW1 3957  14.816  12.781   5.688
  706SOL    HW2 3958  14.743  12.867   5.788
  707SOL     OW 3959   2.265   8.091  11.471
  707SOL    HW1 3960   2.272   7.995  11.468
  707SOL    HW2 3961   2.247   8.111  11.563
  708SOL     OW 3962   3.626  11.609   2.911
  708SOL    HW1 3963   3.656  11.518   2.900
  708SOL    HW2 3964   3.534  11.602   2.933
  709SOL     OW 3965   8.709   5.647   0.162
  709SOL    HW1 3966   8.651   5.721   0.143
  709SOL    HW2 3967   8.788   5.665   0.112
  710SOL     OW 3968   1.402  12.699   0.985
  710SOL    HW1 3969   1.488  12.660   0.969
  710SOL    HW2 3970   1.416  12.793   0.975
  711SOL     OW 3971   4.796  14.819  12.433
  711SOL    HW1 3972   4.805   0.041  12.435
  711SOL    HW2 3973   4.789  14.797  12.340
  712SOL     OW 3974   8.727   2.679   1.880
  712SOL    HW1 3975   8.761   2.742   1.816
  712SOL    HW2 3976   8.672   2.732   1.938
  713SOL     OW 3977   4.469  13.699   8.584
  713SOL    HW1 3978   4.408  13.674   8.515
  713SOL    HW2 3979   4.424  13.769   8.632
  714SOL     OW 3980   2.795   1.736   3.756
  714SOL    HW1 3981   2.878   1.694   3.778
  714SOL    HW2 3982   2.757   1.679   3.689
  715SOL     OW 3983   2.212   7.661   2.979
  715SOL    HW1 3984   2.238   7.659   3.071
  715SOL    HW2 3985   2.135   7.717   2.977
  716SOL     OW 3986  12.303  10.451   0.493
  716SOL    HW1 3987  12.372  10.513   0.516
  716SOL    HW2 3988  12.334  10.410   0.412
  717SOL     OW 3989   4.834   2.602  13.472
  717SOL    HW1 3990   4.740   2.603  13.492
  717SOL    HW2 3991   4.841   2.648  13.388
  718SOL     OW 3992   4.932  14.272  11.306
  718SOL    HW1 3993   4.901  14.196  11.257
  718SOL    HW2 3994   4.920  14.248  11.398
  719SOL     OW 3995   5.573   8.246   0.608
  719SOL    HW1 3996   5.659   8.288   0.611
  719SOL    HW2 3997   5.564   8.203   0.692
  720SOL     OW 3998   2.807  10.744  11.121
  720SOL    HW1 3999   2.762  10.661  11.136
  720SOL    HW2 4000   2.746  10.796  11.070
  721SOL     OW 4001  12.427   1.180   4.910
  721SOL    HW1 4002  12.368   1.172   4.985
  721SOL    HW2 4003  12.395   1.115   4.848
  722SOL     OW 4004   6.021  10.708   1.034
  722SOL    HW1 4005   6.011  10.630   0.979
  722SOL    HW2 4006   6.075  10.679   1.108
  723SOL     OW 4007   0.800   7.322  13.140
  723SOL    HW1 4008   0.880   7.374  13.136
  723SOL    HW2 4009   0.735   7.381  13.178
  724SOL     OW 4010   8.452   0.809   6.775
  724SOL    HW1 4011   8.531   0.786   6.824
  724SOL    HW2 4012   8.482   0.868   6.707
  725SOL     OW 4013   5.992  11.028   2.671
  725SOL    HW1 4014   5.933  11.101   2.653
  725SOL    HW2 4015   5.943  10.950   2.644
  726SOL     OW 4016  12.631  11.587   7.415
  726SOL    HW1 4017  12.630  11.613   7.507
  726SOL    HW2 4018  12.558  11.634   7.375
  727SOL     OW 4019   9.902   7.017  12.593
  727SOL    HW1 4020   9.869   7.106  12.590
  727SOL    HW2 4021   9.835   6.968  12.642
  728SOL     OW 4022   9.560   4.947   4.604
  728SOL    HW1 4023   9.477   4.973   4.564
  728SOL    HW2 4024   9.625   5.004   4.564
  729SOL     OW 4025   4.053  12.363   5.004
  729SOL    HW1 4026   4.119  12.299   5.033
  729SOL    HW2 4027   4.058  12.361   4.908
  730SOL     OW 4028  11.257   3.041  12.106
  730SOL    HW1 4029  11.179   2.993  12.075
  730SOL    HW2 4030  11.331   2.986  12.080
  731SOL     OW 4031   6.861   8.192   2.347
  731SOL    HW1 4032   6.819   8.107   2.361
  731SOL    HW2 4033   6.854   8.236   2.432
  732SOL     OW 4034   6.050   1.481  13.903
  732SOL    HW1 4035   5.993   1.558  13.897
  732SOL    HW2 4036   6.108   1.488  13.827
  733SOL     OW 4037   6.159   7.138   8.678
  733SOL    HW1 4038   6.066   7.141   8.700
  733SOL    HW2 4039   6.196   7.076   8.740
  734SOL     OW 4040   7.776   8.534   9.944
  734SOL    HW1 4041   7.831   8.470   9.990
  734SOL    HW2 4042   7.829   8.563   9.871
  735SOL     OW 4043   3.817   1.625   4.807
  735SOL    HW1 4044   3.757   1.613   4.734
  735SOL    HW2 4045   3.896   1.577   4.781
  736SOL     OW 4046   8.446   5.409   7.916
  736SOL    HW1 4047   8.431   5.321   7.882
  736SOL    HW2 4048   8.536   5.407   7.949
  737SOL     OW 4049  14.481  11.340   8.966
  737SOL    HW1 4050  14.407  11.319   9.023
  737SOL    HW2 4051  14.550  11.279   8.993
  738SOL     OW 4052  13.589   0.559  13.438
  738SOL    HW1 4053  13.509   0.557  13.490
  738SOL    HW2 4054  13.559   0.563  13.347
  739SOL     OW 4055  12.093   1.690  14.642
  739SOL    HW1 4056  12.189   1.697  14.638
  739SOL    HW2 4057  12.070   1.725  14.728
  740SOL     OW 4058   6.607   6.680  14.086
  740SOL    HW1 4059   6.571   6.720  14.007
  740SOL    HW2 4060   6.544   6.612  14.109
  741SOL     OW 4061   8.908  12.326  12.482
  741SOL    HW1 4062   8.907  12.273  12.402
  741SOL    HW2 4063   8.957  12.405  12.458
  742SOL     OW 4064  11.379   6.977   0.051
  742SOL    HW1 4065  11.298   6.951   0.095
  742SOL    HW2 4066  11.412   7.050   0.103
  743SOL     OW 4067  12.383  11.383   0.277
  743SOL    HW1 4068  12.313  11.441   0.305
  743SOL    HW2 4069  12.460  11.439   0.269
  744SOL     OW 4070   7.840   4.790  14.010
  744SOL    HW1 4071   7.816   4.864  13.955
  744SOL    HW2 4072   7.771   4.725  13.995
  745SOL     OW 4073   6.784  11.652  12.852
  745SOL    HW1 4074   6.714  11.633  12.915
  745SOL    HW2 4075   6.849  11.584  12.867
  746SOL     OW 4076  14.321   7.843  10.820
  746SOL    HW1 4077  14.397   7.901  10.830
  746SOL    HW2 4078  14.337   7.771  10.880
  747SOL     OW 4079   4.065  13.291  14.300
  747SOL    HW1 4080   3.990  13.342  14.330
  747SOL    HW2 4081   4.125  13.290  14.374
  748SOL     OW 4082   6.380   1.254   6.651
  748SOL    HW1 4083   6.287   1.265   6.629
  748SOL    HW2 4084   6.381   1.235   6.745
  749SOL     OW 4085   8.446  10.976   0.854
  749SOL    HW1 4086   8.389  10.904   0.826
  749SOL    HW2 4087   8.438  10.977   0.949
  750SOL     OW 4088   2.503  14.272   4.362
  750SOL    HW1 4089   2.448  14.253   4.287
  750SOL    HW2 4090   2.442  14.280   4.435
  751SOL     OW 4091   4.746  12.581   3.767
  751SOL    HW1 4092   4.706  12.511   3.817
  751SOL    HW2 4093   4.693  12.659   3.788
  752SOL     OW 4094   6.654  13.548   0.135
  752SOL    HW1 4095   6.568  13.506   0.124
  752SOL    HW2 4096   6.635  13.627   0.187
  753SOL     OW 4097   2.140  13.101   6.474
  753SOL    HW1 4098   2.051  13.065   6.474
  753SOL    HW2 4099   2.128  13.196   6.473
  754SOL     OW 4100   4.570   9.106  14.067
  754SOL    HW1 4101   4.558   9.107  13.972
  754SOL    HW2 4102   4.626   9.182  14.085
  755SOL     OW 4103   1.892   6.573   1.058
  755SOL    HW1 4104   1.892   6.665   1.034
  755SOL    HW2 4105   1.859   6.570   1.147
  756SOL     OW 4106  13.666  11.677   1.513
  756SOL    HW1 4107  13.761  11.660   1.507
  756SOL    HW2 4108  13.660  11.767   1.544
  757SOL     OW 4109   5.544  11.960   7.182
  757SOL    HW1 4110   5.467  11.994   7.138
  757SOL    HW2 4111   5.549  11.868   7.155
  758SOL     OW 4112   6.789  11.453   2.851
  758SOL    HW1 4113   6.754  11.538   2.827
  758SOL    HW2 4114   6.817  11.414   2.768
  759SOL     OW 4115  10.349  12.222   0.055
  759SOL    HW1 4116  10.340  12.221  14.833
  759SOL    HW2 4117  10.405  12.147   0.074
  760SOL     OW 4118   0.646   3.574  10.688
  760SOL    HW1 4119   0.738   3.590  10.668
  760SOL    HW2 4120   0.622   3.499  10.633
  761SOL     OW 4121   3.762   5.715   2.718
  761SOL    HW1 4122   3.734   5.802   2.689
  761SOL    HW2 4123   3.808   5.679   2.642
  762SOL     OW 4124   2.687   0.220   1.109
  762SOL    HW1 4125   2.774   0.182   1.122
  762SOL    HW2 4126   2.669   0.207   1.016
  763SOL     OW 4127   7.527   2.184  10.484
  763SOL    HW1 4128   7.457   2.122  10.502
  763SOL    HW2 4129   7.506   2.260  10.539
  764SOL     OW 4130   1.639   5.454   7.891
  764SOL    HW1 4131   1.674   5.540   7.867
  764SOL    HW2 4132   1.563   5.472   7.945
  765SOL     OW 4133  14.137   6.140   3.206
  765SOL    HW1 4134  14.107   6.109   3.121
  765SOL    HW2 4135  14.222   6.181   3.189
  766SOL     OW 4136  10.183   1.917   2.264
  766SOL    HW1 4137  10.103   1.920   2.317
  766SOL    HW2 4138  10.254   1.933   2.326
  767SOL     OW 4139   4.099   5.857   7.452
  767SOL    HW1 4140   4.079   5.848   7.545
  767SOL    HW2 4141   4.084   5.950   7.433
  768SOL     OW 4142  12.066   1.790   4.408
  768SOL    HW1 4143  12.022   1.709   4.381
  768SOL    HW2 4144  12.150   1.761   4.444
  769SOL     OW 4145   1.390   7.292   4.668
  769SOL    HW1 4146   1.306   7.330   4.643
  769SOL    HW2 4147   1.366   7.210   4.710
  770SOL     OW 4148  10.048   7.174   2.462
  770SOL    HW1 4149   9.995   7.251   2.442
  770SOL    HW2 4150  10.108   7.167   2.388
  771SOL     OW 4151  13.245   3.557  11.869
  771SOL    HW1 4152  13.208   3.645  11.864
  771SOL    HW2 4153  13.334   3.570  11.901
  772SOL     OW 4154  10.802   1.757   3.160
  772SOL    HW1 4155  10.754   1.684   3.198
  772SOL    HW2 4156  10.752   1.835   3.187
  773SOL     OW 4157  12.713   3.491   2.044
  773SOL    HW1 4158  12.682   3.472   2.133
  773SOL    HW2 4159  12.688   3.582   2.029
  774SOL     OW 4160  10.682  11.245   2.472
  774SOL    HW1 4161  10.605  11.297   2.496
  774SOL    HW2 4162  10.717  11.214   2.555
  775SOL     OW 4163   7.938   3.599   8.544
  775SOL    HW1 4164   7.874   3.662   8.513
  775SOL    HW2 4165   7.985   3.571   8.466
  776SOL     OW 4166   6.791   0.923   1.307
  776SOL    HW1 4167   6.747   0.969   1.378
  776SOL    HW2 4168   6.808   0.835   1.341
  777SOL     OW 4169   3.388   6.242   8.610
  777SOL    HW1 4170   3.376   6.255   8.704
  777SOL    HW2 4171   3.401   6.330   8.575
  778SOL     OW 4172  14.256   2.104  11.152
  778SOL    HW1 4173  14.286   2.189  11.120
  778SOL    HW2 4174  14.217   2.123  11.237
  779SOL     OW 4175   9.170   8.828   4.739
  779SOL    HW1 4176   9.251   8.809   4.787
  779SOL    HW2 4177   9.171   8.765   4.667
  780SOL     OW 4178   4.458   9.239  11.291
  780SOL    HW1 4179   4.526   9.200  11.345
  780SOL    HW2 4180   4.487   9.225  11.201
  781SOL     OW 4181   0.881   1.709   4.298
  781SOL    HW1 4182   0.956   1.706   4.239
  781SOL    HW2 4183   0.916   1.686   4.384
  782SOL     OW 4184   2.227   3.822  12.734
  782SOL    HW1 4185   2.290   3.826  12.662
  782SOL    HW2 4186   2.177   3.904  12.726
  783SOL     OW 4187   2.545  10.760  11.729
  783SOL    HW1 4188   2.570  10.835  11.783
  783SOL    HW2 4189   2.468  10.789  11.681
  784SOL     OW 4190   9.985   4.794  11.360
  784SOL    HW1 4191  10.023   4.726  11.303
  784SOL    HW2 4192   9.921   4.839  11.304
  785SOL     OW 4193   1.369   6.008  11.120
  785SOL    HW1 4194   1.414   5.926  11.140
  785SOL    HW2 4195   1.374   6.015  11.024
  786SOL     OW 4196  11.355   8.613   7.887
  786SOL    HW1 4197  11.267   8.608   7.923
  786SOL    HW2 4198  11.386   8.522   7.885
  787SOL     OW 4199  12.144  13.443   8.172
  787SOL    HW1 4200  12.057  13.481   8.157
  787SOL    HW2 4201  12.200  13.485   8.107
  788SOL     OW 4202   9.883   1.044  14.059
  788SOL    HW1 4203   9.858   1.069  14.147
  788SOL    HW2 4204   9.910   0.952  14.067
  789SOL     OW 4205   2.757   2.581   2.866
  789SOL    HW1 4206   2.708   2.526   2.927
  789SOL    HW2 4207   2.847   2.578   2.898
  790SOL     OW 4208  11.142   0.329   4.097
  790SOL    HW1 4209  11.215   0.287   4.144
  790SOL    HW2 4210  11.064   0.284   4.129
  791SOL     OW 4211  11.910   0.499   8.262
  791SOL    HW1 4212  11.940   0.411   8.242
  791SOL    HW2 4213  11.823   0.506   8.223
  792SOL     OW 4214   5.705   2.758   6.814
  792SOL    HW1 4215   5.721   2.669   6.784
  792SOL    HW2 4216   5.703   2.752   6.909
  793SOL     OW 4217   7.109  10.472   3.363
  793SOL    HW1 4218   7.169  10.513   3.301
  793SOL    HW2 4219   7.076  10.395   3.317
  794SOL     OW 4220  10.704   4.110   3.357
  794SOL    HW1 4221  10.703   4.188   3.412
  794SOL    HW2 4222  10.709   4.144   3.267
  795SOL     OW 4223  12.320   5.978   8.289
  795SOL    HW1 4224  12.378   6.003   8.217
  795SOL    HW2 4225  12.284   5.893   8.262
  796SOL     OW 4226   3.144   6.541   1.141
  796SOL    HW1 4227   3.205   6.609   1.171
  796SOL    HW2 4228   3.179   6.515   1.056
  797SOL     OW 4229   8.710   8.806   8.750
  797SOL    HW1 4230   8.675   8.725   8.712
  797SOL    HW2 4231   8.805   8.798   8.742
  798SOL     OW 4232   0.174   0.345   4.007
  798SOL    HW1 4233   0.197   0.282   4.076
  798SOL    HW2 4234   0.091   0.312   3.972
  799SOL     OW 4235   8.044   4.334   4.854
  799SOL    HW1 4236   8.124   4.324   4.905
  799SOL    HW2 4237   7.976   4.293   4.907
  800SOL     OW 4238  10.308   9.514   3.415
  800SOL    HW1 4239  10.366   9.439   3.397
  800SOL    HW2 4240  10.362   9.591   3.395
  801SOL     OW 4241   6.364   4.649  10.016
  801SOL    HW1 4242   6.332   4.589   9.949
  801SOL    HW2 4243   6.295   4.649  10.082
  802SOL     OW 4244  13.722  10.427   1.960
  802SOL    HW1 4245  13.760  10.460   1.878
  802SOL    HW2 4246  13.646  10.376   1.933
  803SOL     OW 4247   9.104  10.341   4.502
  803SOL    HW1 4248   9.194  10.316   4.523
  803SOL    HW2 4249   9.096  10.324   4.409
  804SOL     OW 4250   6.206   7.418   4.487
  804SOL    HW1 4251   6.226   7.357   4.416
  804SOL    HW2 4252   6.189   7.363   4.563
  805SOL     OW 4253   7.423   4.615   9.991
  805SOL    HW1 4254   7.330   4.590   9.998
  805SOL    HW2 4255   7.468   4.533   9.970
  806SOL     OW 4256   6.918   5.653   0.412
  806SOL    HW1 4257   6.866   5.728   0.441
  806SOL    HW2 4258   6.966   5.626   0.489
  807SOL     OW 4259   3.826  14.233  12.693
  807SOL    HW1 4260   3.773  14.256  12.769
  807SOL    HW2 4261   3.840  14.139  12.702
  808SOL     OW 4262  13.024   0.721   2.716
  808SOL    HW1 4263  13.105   0.677   2.742
  808SOL    HW2 4264  12.974   0.653   2.670
  809SOL     OW 4265   7.675  13.956   8.348
  809SOL    HW1 4266   7.711  13.907   8.274
  809SOL    HW2 4267   7.746  13.958   8.412
  810SOL     OW 4268   1.186   2.504   4.264
  810SOL    HW1 4269   1.127   2.527   4.192
  810SOL    HW2 4270   1.136   2.524   4.343
  811SOL     OW 4271   3.298   0.911  12.764
  811SOL    HW1 4272   3.277   0.887  12.673
  811SOL    HW2 4273   3.391   0.891  12.773
  812SOL     OW 4274   4.449   4.514   9.726
  812SOL    HW1 4275   4.492   4.580   9.781
  812SOL    HW2 4276   4.380   4.563   9.681
  813SOL     OW 4277   4.606   7.854   2.033
  813SOL    HW1 4278   4.547   7.785   2.004
  813SOL    HW2 4279   4.677   7.809   2.078
  814SOL     OW 4280   3.592  11.322   5.263
  814SOL    HW1 4281   3.547  11.306   5.346
  814SOL    HW2 4282   3.589  11.238   5.217
  815SOL     OW 4283   0.481   9.104  10.428
  815SOL    HW1 4284   0.444   9.183  10.389
  815SOL    HW2 4285   0.411   9.069  10.483
  816SOL     OW 4286   8.880  10.355   9.619
  816SOL    HW1 4287   8.791  10.321   9.628
  816SOL    HW2 4288   8.930  10.282   9.581
  817SOL     OW 4289   6.939  14.589   1.616
  817SOL    HW1 4290   7.020  14.538   1.626
  817SOL    HW2 4291   6.917  14.618   1.704
  818SOL     OW 4292   1.477   1.341   3.205
  818SOL    HW1 4293   1.507   1.274   3.143
  818SOL    HW2 4294   1.475   1.297   3.289
  819SOL     OW 4295   8.683   6.696  13.311
  819SOL    HW1 4296   8.665   6.774  13.259
  819SOL    HW2 4297   8.637   6.710  13.393
  820SOL     OW 4298  11.611   2.631   2.091
  820SOL    HW1 4299  11.625   2.627   2.185
  820SOL    HW2 4300  11.516   2.629   2.080
  821SOL     OW 4301   0.856  11.486   1.971
  821SOL    HW1 4302   0.947  11.514   1.983
  821SOL    HW2 4303   0.853  11.397   2.006
  822SOL     OW 4304  13.408   0.198  10.389
  822SOL    HW1 4305  13.337   0.258  10.412
  822SOL    HW2 4306  13.458   0.245  10.322
  823SOL     OW 4307  10.018  13.339   0.756
  823SOL    HW1 4308   9.976  13.289   0.686
  823SOL    HW2 4309  10.057  13.273   0.813
  824SOL     OW 4310  14.206  12.513   5.945
  824SOL    HW1 4311  14.292  12.485   5.976
  824SOL    HW2 4312  14.217  12.527   5.851
  825SOL     OW 4313   8.459   3.478   0.575
  825SOL    HW1 4314   8.547   3.447   0.598
  825SOL    HW2 4315   8.406   3.399   0.568
  826SOL     OW 4316  10.821  10.851  13.178
  826SOL    HW1 4317  10.889  10.830  13.114
  826SOL    HW2 4318  10.851  10.933  13.218
  827SOL     OW 4319   0.746   3.276  11.039
  827SOL    HW1 4320   0.766   3.320  11.122
  827SOL    HW2 4321   0.828   3.280  10.990
  828SOL     OW 4322   1.222   9.183  12.692
  828SOL    HW1 4323   1.193   9.274  12.689
  828SOL    HW2 4324   1.261   9.167  12.606
  829SOL     OW 4325  14.296   8.737   2.866
  829SOL    HW1 4326  14.273   8.668   2.804
  829SOL    HW2 4327  14.315   8.813   2.811
  830SOL     OW 4328   8.308   3.853   9.902
  830SOL    HW1 4329   8.397   3.865   9.932
  830SOL    HW2 4330   8.283   3.766   9.932
  831SOL     OW 4331  11.912   9.872  10.864
  831SOL    HW1 4332  11.999   9.884  10.904
  831SOL    HW2 4333  11.884   9.961  10.843
  832SOL     OW 4334   2.762  10.084   2.231
  832SOL    HW1 4335   2.817  10.007   2.218
  832SOL    HW2 4336   2.782  10.141   2.157
  833SOL     OW 4337   3.518   1.463   7.974
  833SOL    HW1 4338   3.455   1.524   8.013
  833SOL    HW2 4339   3.466   1.411   7.912
  834SOL     OW 4340   4.881   9.430   8.285
  834SOL    HW1 4341   4.929   9.366   8.231
  834SOL    HW2 4342   4.816   9.378   8.331
  835SOL     OW 4343   5.566   2.323   9.408
  835SOL    HW1 4344   5.610   2.342   9.491
  835SOL    HW2 4345   5.596   2.391   9.348
  836SOL     OW 4346  12.356  14.157   0.091
  836SOL    HW1 4347  12.308  14.224   0.141
  836SOL    HW2 4348  12.290  14.092   0.070
  837SOL     OW 4349   6.293  11.976   6.983
  837SOL    HW1 4350   6.324  11.907   7.041
  837SOL    HW2 4351   6.372  12.021   6.954
  838SOL     OW 4352   9.753   8.009   1.212
  838SOL    HW1 4353   9.673   7.988   1.261
  838SOL    HW2 4354   9.803   7.927   1.212
  839SOL     OW 4355   8.544  13.345   8.961
  839SOL    HW1 4356   8.618  13.289   8.939
  839SOL    HW2 4357   8.483  13.288   9.007
  840SOL     OW 4358   9.603   2.624  12.870
  840SOL    HW1 4359   9.526   2.569  12.855
  840SOL    HW2 4360   9.674   2.562  12.882
  841SOL     OW 4361  12.339  14.480  13.364
  841SOL    HW1 4362  12.322  14.552  13.304
  841SOL    HW2 4363  12.433  14.463  13.356
  842SOL     OW 4364   5.583   3.629  14.240
  842SOL    HW1 4365   5.516   3.692  14.268
  842SOL    HW2 4366   5.534   3.564  14.188
  843SOL     OW 4367   4.005   1.999  12.386
  843SOL    HW1 4368   3.929   2.022  12.332
  843SOL    HW2 4369   4.060   1.946  12.329
  844SOL     OW 4370  14.475   9.975   2.418
  844SOL    HW1 4371  14.409   9.983   2.349
  844SOL    HW2 4372  14.473  10.060   2.463
  845SOL     OW 4373   5.829   5.213   6.659
  845SOL    HW1 4374   5.806   5.223   6.751
  845SOL    HW2 4375   5.772   5.143   6.627
  846SOL     OW 4376   1.759   5.222  11.956
  846SOL    HW1 4377   1.755   5.299  12.012
  846SOL    HW2 4378   1.853   5.209  11.940
  847SOL     OW 4379   9.011   0.839   1.560
  847SOL    HW1 4380   9.060   0.912   1.521
  847SOL    HW2 4381   9.037   0.763   1.509
  848SOL     OW 4382   9.086   9.658   8.283
  848SOL    HW1 4383   9.098   9.635   8.375
  848SOL    HW2 4384   9.100   9.752   8.279
  849SOL     OW 4385  12.429   7.154  13.562
  849SOL    HW1 4386  12.342   7.179  13.594
  849SOL    HW2 4387  12.412   7.109  13.479
  850SOL     OW 4388  10.901   5.623  11.543
  850SOL    HW1 4389  10.849   5.611  11.463
  850SOL    HW2 4390  10.964   5.691  11.520
  851SOL     OW 4391   4.178   9.804  13.758
  851SOL    HW1 4392   4.118   9.879  13.759
  851SOL    HW2 4393   4.263   9.840  13.782
  852SOL     OW 4394   1.642   0.999  14.339
  852SOL    HW1 4395   1.610   1.089  14.348
  852SOL    HW2 4396   1.689   0.998  14.256
  853SOL     OW 4397   7.859   2.961   6.066
  853SOL    HW1 4398   7.877   2.872   6.036
  853SOL    HW2 4399   7.813   2.950   6.149
  854SOL     OW 4400   1.546  11.293   3.257
  854SOL    HW1 4401   1.500  11.368   3.220
  854SOL    HW2 4402   1.479  11.247   3.308
  855SOL     OW 4403   4.332  12.846   8.225
  855SOL    HW1 4404   4.264  12.790   8.188
  855SOL    HW2 4405   4.319  12.931   8.183
  856SOL     OW 4406   7.211   2.470  10.827
  856SOL    HW1 4407   7.133   2.418  10.847
  856SOL    HW2 4408   7.179   2.560  10.824
  857SOL     OW 4409   9.034   1.883  14.672
  857SOL    HW1 4410   8.995   1.797  14.690
  857SOL    HW2 4411   9.005   1.937  14.746
  858SOL     OW 4412   5.019   1.986   9.011
  858SOL    HW1 4413   4.963   2.037   8.953
  858SOL    HW2 4414   5.100   2.036   9.016
  859SOL     OW 4415   4.673   8.640   2.697
  859SOL    HW1 4416   4.663   8.729   2.664
  859SOL    HW2 4417   4.641   8.585   2.626
  860SOL     OW 4418  10.468   9.405   6.377
  860SOL    HW1 4419  10.551   9.362   6.398
  860SOL    HW2 4420  10.436   9.359   6.299
  861SOL     OW 4421   1.544   6.242   1.633
  861SOL    HW1 4422   1.493   6.232   1.714
  861SOL    HW2 4423   1.614   6.302   1.657
  862SOL     OW 4424   9.033  13.387   3.888
  862SOL    HW1 4425   9.008  13.373   3.797
  862SOL    HW2 4426   9.107  13.446   3.884
  863SOL     OW 4427   0.820  13.855   3.583
  863SOL    HW1 4428   0.868  13.871   3.502
  863SOL    HW2 4429   0.728  13.848   3.557
  864SOL     OW 4430   7.523  11.064  13.628
  864SOL    HW1 4431   7.615  11.048  13.650
  864SOL    HW2 4432   7.512  11.023  13.542
  865SOL     OW 4433  13.903   1.977   4.157
  865SOL    HW1 4434  13.841   1.922   4.205
  865SOL    HW2 4435  13.916   2.053   4.213
  866SOL     OW 4436   3.601  11.590   6.765
  866SOL    HW1 4437   3.597  11.685   6.774
  866SOL    HW2 4438   3.684  11.573   6.722
  867SOL     OW 4439   5.327  13.696   5.605
  867SOL    HW1 4440   5.302  13.605   5.594
  867SOL    HW2 4441   5.408  13.705   5.554
  868SOL     OW 4442   6.618   0.474   7.448
  868SOL    HW1 4443   6.600   0.422   7.370
  868SOL    HW2 4444   6.584   0.421   7.520
  869SOL     OW 4445   7.700  11.795   4.775
  869SOL    HW1 4446   7.751  11.856   4.828
  869SOL    HW2 4447   7.609  11.816   4.794
  870SOL     OW 4448  11.560   7.277   0.800
  870SOL    HW1 4449  11.524   7.353   0.846
  870SOL    HW2 4450  11.581   7.310   0.712
  871SOL     OW 4451   9.392  10.275   2.293
  871SOL    HW1 4452   9.467  10.333   2.304
  871SOL    HW2 4453   9.389  10.225   2.375
  872SOL     OW 4454  14.526   6.313   1.739
  872SOL    HW1 4455  14.498   6.379   1.802
  872SOL    HW2 4456  14.458   6.312   1.673
  873SOL     OW 4457  11.656  12.129  12.380
  873SOL    HW1 4458  11.653  12.225  12.386
  873SOL    HW2 4459  11.741  12.105  12.414
  874SOL     OW 4460  11.756   6.867   5.765
  874SOL    HW1 4461  11.833   6.809   5.759
  874SOL    HW2 4462  11.768   6.912   5.849
  875SOL     OW 4463   8.811   2.141   3.998
  875SOL    HW1 4464   8.716   2.150   4.006
  875SOL    HW2 4465   8.839   2.107   4.083
  876SOL     OW 4466   8.496   4.942   1.658
  876SOL    HW1 4467   8.470   4.961   1.748
  876SOL    HW2 4468   8.508   5.028   1.618
  877SOL     OW 4469   0.010   9.390   5.330
  877SOL    HW1 4470  14.832   9.384   5.249
  877SOL    HW2 4471   0.004   9.303   5.369
  878SOL     OW 4472   6.440   8.516  14.755
  878SOL    HW1 4473   6.402   8.441  14.708
  878SOL    HW2 4474   6.521   8.535  14.707
  879SOL     OW 4475   8.927  10.880   4.372
  879SOL    HW1 4476   8.917  10.860   4.465
  879SOL    HW2 4477   8.864  10.950   4.356
  880SOL     OW 4478   7.499   7.797   4.301
  880SOL    HW1 4479   7.474   7.878   4.345
  880SOL    HW2 4480   7.527   7.739   4.372
  881SOL     OW 4481   9.809   3.827   2.662
  881SOL    HW1 4482   9.903   3.821   2.644
  881SOL    HW2 4483   9.787   3.918   2.640
  882SOL     OW 4484   3.094  11.379  12.288
  882SOL    HW1 4485   3.175  11.420  12.319
  882SOL    HW2 4486   3.062  11.330  12.364
  883SOL     OW 4487   6.373  11.167  12.012
  883SOL    HW1 4488   6.394  11.103  12.080
  883SOL    HW2 4489   6.277  11.174  12.014
  884SOL     OW 4490   6.166   2.434  11.679
  884SOL    HW1 4491   6.176   2.340  11.664
  884SOL    HW2 4492   6.223   2.475  11.615
  885SOL     OW 4493  13.482  13.992   0.419
  885SOL    HW1 4494  13.487  13.933   0.344
  885SOL    HW2 4495  13.407  13.961   0.470
  886SOL     OW 4496   4.518   4.377   1.630
  886SOL    HW1 4497   4.553   4.385   1.718
  886SOL    HW2 4498   4.573   4.435   1.577
  887SOL     OW 4499   3.712  14.160  14.602
  887SOL    HW1 4500   3.804  14.183  14.593
  887SOL    HW2 4501   3.702  14.135  14.694
  888SOL     OW 4502   1.220   7.179  14.027
  888SOL    HW1 4503   1.187   7.268  14.023
  888SOL    HW2 4504   1.200   7.149  14.115
  889SOL     OW 4505   3.759   5.162  14.150
  889SOL    HW1 4506   3.681   5.216  14.137
  889SOL    HW2 4507   3.795   5.149  14.062
  890SOL     OW 4508   4.029   5.500   7.527
  890SOL    HW1 4509   4.059   5.444   7.456
  890SOL    HW2 4510   3.964   5.557   7.487
  891SOL     OW 4511   5.679   1.556   4.824
  891SOL    HW1 4512   5.698   1.645   4.853
  891SOL    HW2 4513   5.635   1.567   4.740
  892SOL     OW 4514  12.118  14.038  11.523
  892SOL    HW1 4515  12.040  14.092  11.506
  892SOL    HW2 4516  12.136  13.996  11.438
  893SOL     OW 4517   7.642  14.213  14.586
  893SOL    HW1 4518   7.660  14.119  14.585
  893SOL    HW2 4519   7.695  14.248  14.514
  894SOL     OW 4520  13.429   4.485  10.362
  894SOL    HW1 4521  13.375   4.454  10.435
  894SOL    HW2 4522  13.479   4.409  10.334
  895SOL     OW 4523  10.627   0.232   6.642
  895SOL    HW1 4524  10.677   0.288   6.701
  895SOL    HW2 4525  10.615   0.151   6.691
  896SOL     OW 4526   3.098  10.501   3.211
  896SOL    HW1 4527   3.048  10.450   3.276
  896SOL    HW2 4528   3.031  10.543   3.157
  897SOL     OW 4529   0.941   9.603   8.125
  897SOL    HW1 4530   0.905   9.553   8.197
  897SOL    HW2 4531   0.922   9.694   8.147
  898SOL     OW 4532  13.471   6.271  10.892
  898SOL    HW1 4533  13.545   6.285  10.951
  898SOL    HW2 4534  13.476   6.178  10.869
  899SOL     OW 4535   8.780   1.516  10.236
  899SOL    HW1 4536   8.684   1.519  10.237
  899SOL    HW2 4537   8.805   1.595  10.187
  900SOL     OW 4538   1.875   4.020   9.265
  900SOL    HW1 4539   1.799   4.012   9.207
  900SOL    HW2 4540   1.949   3.988   9.213
  901SOL     OW 4541   8.885  11.049  12.917
  901SOL    HW1 4542   8.965  11.000  12.938
  901SOL    HW2 4543   8.815  10.985  12.928
  902SOL     OW 4544   0.360   2.327   7.823
  902SOL    HW1 4545   0.382   2.294   7.735
  902SOL    HW2 4546   0.418   2.402   7.835
  903SOL     OW 4547   2.167  14.761   8.556
  903SOL    HW1 4548   2.096  14.814   8.590
  903SOL    HW2 4549   2.235  14.765   8.624
  904SOL     OW 4550   8.932   5.657  10.415
  904SOL    HW1 4551   8.910   5.599  10.343
  904SOL    HW2 4552   8.933   5.745  10.376
  905SOL     OW 4553   3.737   1.192   9.085
  905SOL    HW1 4554   3.677   1.130   9.042
  905SOL    HW2 4555   3.756   1.151   9.169
  906SOL     OW 4556   1.817   8.512   6.643
  906SOL    HW1 4557   1.835   8.420   6.621
  906SOL    HW2 4558   1.727   8.511   6.676
  907SOL     OW 4559  12.454   7.562   6.057
  907SOL    HW1 4560  12.366   7.589   6.084
  907SOL    HW2 4561  12.511   7.632   6.087
  908SOL     OW 4562   4.991  14.569   1.183
  908SOL    HW1 4563   4.990  14.575   1.278
  908SOL    HW2 4564   5.084  14.557   1.161
  909SOL     OW 4565  11.536   8.118   9.440
  909SOL    HW1 4566  11.497   8.176   9.505
  909SOL    HW2 4567  11.515   8.030   9.469
  910SOL     OW 4568   5.411   6.893   4.643
  910SOL    HW1 4569   5.464   6.952   4.696
  910SOL    HW2 4570   5.451   6.895   4.556
  911SOL     OW 4571   3.280   2.945  10.555
  911SOL    HW1 4572   3.218   2.969  10.486
  911SOL    HW2 4573   3.319   2.863  10.524
  912SOL     OW 4574  14.753   6.894   6.151
  912SOL    HW1 4575  14.691   6.886   6.079
  912SOL    HW2 4576  14.815   6.961   6.121
  913SOL     OW 4577   9.096   4.701   2.112
  913SOL    HW1 4578   9.119   4.664   2.027
  913SOL    HW2 4579   9.173   4.684   2.167
  914SOL     OW 4580   9.885   1.618  12.963
  914SOL    HW1 4581   9.856   1.708  12.948
  914SOL    HW2 4582   9.804   1.569  12.973
  915SOL     OW 4583   0.685   7.932   7.482
  915SOL    HW1 4584   0.600   7.892   7.501
  915SOL    HW2 4585   0.680   7.955   7.389
  916SOL     OW 4586   7.952   1.722   1.176
  916SOL    HW1 4587   7.939   1.781   1.251
  916SOL    HW2 4588   7.912   1.639   1.203
  917SOL     OW 4589  11.655   4.476   0.422
  917SOL    HW1 4590  11.740   4.501   0.386
  917SOL    HW2 4591  11.592   4.501   0.354
  918SOL     OW 4592  13.564   8.294   8.017
  918SOL    HW1 4593  13.490   8.298   7.956
  918SOL    HW2 4594  13.526   8.261   8.098
  919SOL     OW 4595   3.518   5.355  12.911
  919SOL    HW1 4596   3.576   5.325  12.981
  919SOL    HW2 4597   3.548   5.309  12.833
  920SOL     OW 4598  12.232   8.235   0.663
  920SOL    HW1 4599  12.221   8.316   0.714
  920SOL    HW2 4600  12.193   8.254   0.578
  921SOL     OW 4601   6.681   2.444   0.108
  921SOL    HW1 4602   6.704   2.371   0.049
  921SOL    HW2 4603   6.693   2.522   0.054
  922SOL     OW 4604   3.579   5.275  11.332
  922SOL    HW1 4605   3.517   5.237  11.269
  922SOL    HW2 4606   3.543   5.362  11.351
  923SOL     OW 4607  10.658   8.177   0.440
  923SOL    HW1 4608  10.647   8.271   0.449
  923SOL    HW2 4609  10.571   8.141   0.453
  924SOL     OW 4610   3.078  12.711  11.767
  924SOL    HW1 4611   3.109  12.797  11.796
  924SOL    HW2 4612   3.077  12.717  11.671
  925SOL     OW 4613   9.777   1.284   7.278
  925SOL    HW1 4614   9.828   1.320   7.205
  925SOL    HW2 4615   9.748   1.198   7.247
  926SOL     OW 4616   1.644   5.786  11.724
  926SOL    HW1 4617   1.606   5.859  11.674
  926SOL    HW2 4618   1.714   5.753  11.668
  927SOL     OW 4619   0.997   9.453   2.142
  927SOL    HW1 4620   0.993   9.508   2.220
  927SOL    HW2 4621   1.001   9.364   2.175
  928SOL     OW 4622   6.794  11.576   0.416
  928SOL    HW1 4623   6.740  11.655   0.404
  928SOL    HW2 4624   6.765  11.540   0.500
  929SOL     OW 4625  12.127   7.887   4.864
  929SOL    HW1 4626  12.145   7.894   4.771
  929SOL    HW2 4627  12.074   7.809   4.874
  930SOL     OW 4628   1.813   4.756   3.702
  930SOL    HW1 4629   1.786   4.741   3.611
  930SOL    HW2 4630   1.879   4.825   3.696
  931SOL     OW 4631  10.251  11.982  13.284
  931SOL    HW1 4632  10.190  11.932  13.230
  931SOL    HW2 4633  10.321  12.008  13.224
  932SOL     OW 4634  12.113   6.103   8.037
  932SOL    HW1 4635  12.072   6.068   8.116
  932SOL    HW2 4636  12.125   6.197   8.056
  933SOL     OW 4637   6.159  10.052   3.137
  933SOL    HW1 4638   6.195  10.106   3.208
  933SOL    HW2 4639   6.233  10.035   3.080
  934SOL     OW 4640   3.215   4.917   0.226
  934SOL    HW1 4641   3.185   4.911   0.136
  934SOL    HW2 4642   3.141   4.884   0.278
  935SOL     OW 4643   9.234   6.556  14.136
  935SOL    HW1 4644   9.178   6.493  14.181
  935SOL    HW2 4645   9.188   6.574  14.054
  936SOL     OW 4646   0.252   3.705  12.719
  936SOL    HW1 4647   0.328   3.716  12.776
  936SOL    HW2 4648   0.288   3.707  12.630
  937SOL     OW 4649   9.723   0.907   3.597
  937SOL    HW1 4650   9.641   0.857   3.599
  937SOL    HW2 4651   9.697   0.997   3.612
  938SOL     OW 4652   5.344  14.351   3.576
  938SOL    HW1 4653   5.360  14.370   3.484
  938SOL    HW2 4654   5.412  14.400   3.623
  939SOL     OW 4655  12.218  14.839  12.240
  939SOL    HW1 4656  12.190   0.050  12.204
  939SOL    HW2 4657  12.149  14.817  12.303
  940SOL     OW 4658   3.858  12.005   1.287
  940SOL    HW1 4659   3.919  12.073   1.314
  940SOL    HW2 4660   3.859  11.942   1.359
  941SOL     OW 4661   5.864  13.548   0.683
  941SOL    HW1 4662   5.795  13.481   0.673
  941SOL    HW2 4663   5.945  13.500   0.671
  942SOL     OW 4664  13.749  10.849   5.073
  942SOL    HW1 4665  13.742  10.911   5.146
  942SOL    HW2 4666  13.725  10.899   4.996
  943SOL     OW 4667   4.526   5.175   9.661
  943SOL    HW1 4668   4.595   5.217   9.713
  943SOL    HW2 4669   4.462   5.244   9.646
  944SOL     OW 4670   7.823   2.848   0.943
  944SOL    HW1 4671   7.741   2.859   0.993
  944SOL    HW2 4672   7.808   2.896   0.862
  945SOL     OW 4673   8.203  11.778   4.782
  945SOL    HW1 4674   8.162  11.736   4.857
  945SOL    HW2 4675   8.297  11.761   4.794
  946SOL     OW 4676   9.666  12.487  14.680
  946SOL    HW1 4677   9.588  12.529  14.642
  946SOL    HW2 4678   9.655  12.394  14.661
  947SOL     OW 4679   4.335  13.647   8.332
  947SOL    HW1 4680   4.301  13.586   8.397
  947SOL    HW2 4681   4.354  13.592   8.256
  948SOL     OW 4682  10.047   5.250   3.182
  948SOL    HW1 4683  10.135   5.216   3.198
  948SOL    HW2 4684  10.025   5.220   3.094
  949SOL     OW 4685   9.331   4.745   4.434
  949SOL    HW1 4686   9.325   4.839   4.419
  949SOL    HW2 4687   9.348   4.738   4.528
  950SOL     OW 4688  12.743   0.749   7.153
  950SOL    HW1 4689  12.739   0.831   7.202
  950SOL    HW2 4690  12.659   0.707   7.171
  951SOL     OW 4691   5.780   4.001   6.382
  951SOL    HW1 4692   5.715   3.931   6.379
  951SOL    HW2 4693   5.762   4.054   6.303
  952SOL     OW 4694   2.282   7.430   9.200
  952SOL    HW1 4695   2.291   7.415   9.294
  952SOL    HW2 4696   2.283   7.525   9.190
  953SOL     OW 4697   2.875  12.583  10.153
  953SOL    HW1 4698   2.883  12.496  10.191
  953SOL    HW2 4699   2.915  12.575  10.066
  954SOL     OW 4700   0.491   6.643   7.292
  954SOL    HW1 4701   0.404   6.606   7.304
  954SOL    HW2 4702   0.549   6.586   7.343
  955SOL     OW 4703   6.710   4.592   6.253
  955SOL    HW1 4704   6.693   4.619   6.344
  955SOL    HW2 4705   6.631   4.618   6.206
  956SOL     OW 4706   2.357   9.780  10.306
  956SOL    HW1 4707   2.293   9.759  10.375
  956SOL    HW2 4708   2.390   9.695  10.278
  957SOL     OW 4709   8.683   9.886   3.547
  957SOL    HW1 4710   8.683   9.832   3.468
  957SOL    HW2 4711   8.687   9.976   3.514
  958SOL     OW 4712  13.027   1.665   5.700
  958SOL    HW1 4713  12.990   1.650   5.787
  958SOL    HW2 4714  12.952   1.687   5.645
  959SOL     OW 4715   9.882   7.939  13.688
  959SOL    HW1 4716   9.906   7.854  13.727
  959SOL    HW2 4717   9.916   7.934  13.598
  960SOL     OW 4718   5.716  10.289  12.101
  960SOL    HW1 4719   5.622  10.290  12.086
  960SOL    HW2 4720   5.727  10.237  12.181
  961SOL     OW 4721   0.738  10.939  12.484
  961SOL    HW1 4722   0.660  10.886  12.495
  961SOL    HW2 4723   0.722  11.017  12.537
  962SOL     OW 4724  13.810   0.079   5.969
  962SOL    HW1 4725  13.904   0.066   5.958
  962SOL    HW2 4726  13.787   0.023   6.044
  963SOL     OW 4727  10.631  10.556   3.042
  963SOL    HW1 4728  10.607  10.594   2.958
  963SOL    HW2 4729  10.694  10.487   3.020
  964SOL     OW 4730   1.589   1.945   0.811
  964SOL    HW1 4731   1.506   1.921   0.853
  964SOL    HW2 4732   1.634   1.862   0.796
  965SOL     OW 4733   9.771  12.395  10.063
  965SOL    HW1 4734   9.703  12.404  10.130
  965SOL    HW2 4735   9.746  12.317  10.014
  966SOL     OW 4736  12.407  11.269   1.881
  966SOL    HW1 4737  12.426  11.177   1.867
  966SOL    HW2 4738  12.473  11.298   1.945
  967SOL     OW 4739  14.676   7.030   8.018
  967SOL    HW1 4740  14.674   7.117   7.978
  967SOL    HW2 4741  14.617   7.037   8.093
  968SOL     OW 4742   8.343  11.970   1.991
  968SOL    HW1 4743   8.411  12.029   2.023
  968SOL    HW2 4744   8.388  11.888   1.974
  969SOL     OW 4745   7.581   8.091   8.085
  969SOL    HW1 4746   7.657   8.074   8.139
  969SOL    HW2 4747   7.506   8.071   8.141
  970SOL     OW 4748  10.886   6.535   6.608
  970SOL    HW1 4749  10.817   6.546   6.542
  970SOL    HW2 4750  10.966   6.525   6.557
  971SOL     OW 4751  10.844   7.264   8.855
  971SOL    HW1 4752  10.857   7.226   8.942
  971SOL    HW2 4753  10.791   7.341   8.871
  972SOL     OW 4754   3.397   9.183  11.319
  972SOL    HW1 4755   3.420   9.152  11.406
  972SOL    HW2 4756   3.481   9.196  11.275
  973SOL     OW 4757   6.973  13.250   9.510
  973SOL    HW1 4758   6.920  13.173   9.490
  973SOL    HW2 4759   6.961  13.308   9.434
  974SOL     OW 4760   6.157  12.909   1.843
  974SOL    HW1 4761   6.154  12.977   1.911
  974SOL    HW2 4762   6.116  12.950   1.766
  975SOL     OW 4763   6.874   9.381   3.280
  975SOL    HW1 4764   6.898   9.463   3.238
  975SOL    HW2 4765   6.786   9.396   3.314
  976SOL     OW 4766   3.982   7.525  11.832
  976SOL    HW1 4767   3.966   7.588  11.902
  976SOL    HW2 4768   4.018   7.577  11.760
  977SOL     OW 4769  13.027   9.384  13.673
  977SOL    HW1 4770  13.106   9.354  13.718
  977SOL    HW2 4771  13.030   9.479  13.681
  978SOL     OW 4772   6.971  11.101   6.565
  978SOL    HW1 4773   7.061  11.116   6.592
  978SOL    HW2 4774   6.942  11.184   6.528
  979SOL     OW 4775   6.464   9.448  11.279
  979SOL    HW1 4776   6.553   9.440  11.243
  979SOL    HW2 4777   6.464   9.532  11.324
  980SOL     OW 4778   6.797  14.053   5.535
  980SOL    HW1 4779   6.724  14.106   5.502
  980SOL    HW2 4780   6.789  14.057   5.630
  981SOL     OW 4781   5.975   6.179   9.935
  981SOL    HW1 4782   5.998   6.271   9.932
  981SOL    HW2 4783   6.056   6.134   9.959
  982SOL     OW 4784   1.975   7.398  10.075
  982SOL    HW1 4785   1.910   7.328  10.085
  982SOL    HW2 4786   1.951   7.462  10.142
  983SOL     OW 4787   7.029  13.451  14.234
  983SOL    HW1 4788   7.108  13.428  14.284
  983SOL    HW2 4789   7.020  13.380  14.170
  984SOL     OW 4790   7.315   0.667   2.495
  984SOL    HW1 4791   7.375   0.678   2.420
  984SOL    HW2 4792   7.230   0.648   2.455
  985SOL     OW 4793   2.676   8.516   5.596
  985SOL    HW1 4794   2.667   8.507   5.691
  985SOL    HW2 4795   2.606   8.575   5.570
  986SOL     OW 4796  14.104   5.588   3.053
  986SOL    HW1 4797  14.015   5.563   3.076
  986SOL    HW2 4798  14.159   5.520   3.092
  987SOL     OW 4799  10.048  10.696   6.670
  987SOL    HW1 4800  10.080  10.628   6.730
  987SOL    HW2 4801   9.957  10.672   6.654
  988SOL     OW 4802   8.624  10.195   9.746
  988SOL    HW1 4803   8.624  10.145   9.665
  988SOL    HW2 4804   8.667  10.139   9.810
  989SOL     OW 4805  13.336  12.092  12.098
  989SOL    HW1 4806  13.322  12.159  12.165
  989SOL    HW2 4807  13.414  12.045  12.126
  990SOL     OW 4808   9.784   6.870   6.756
  990SOL    HW1 4809   9.729   6.887   6.833
  990SOL    HW2 4810   9.866   6.915   6.776
  991SOL     OW 4811   0.320  12.802  12.502
  991SOL    HW1 4812   0.234  12.840  12.486
  991SOL    HW2 4813   0.303  12.708  12.510
  992SOL     OW 4814   4.648   2.966  10.084
  992SOL    HW1 4815   4.633   3.049  10.038
  992SOL    HW2 4816   4.693   2.910  10.020
  993SOL     OW 4817  12.739  12.560   9.854
  993SOL    HW1 4818  12.666  12.515   9.811
  993SOL    HW2 4819  12.706  12.580   9.941
  994SOL     OW 4820   6.165   6.155  11.543
  994SOL    HW1 4821   6.186   6.071  11.503
  994SOL    HW2 4822   6.160   6.137  11.637
  995SOL     OW 4823   7.833  11.639   3.725
  995SOL    HW1 4824   7.785  11.600   3.651
  995SOL    HW2 4825   7.808  11.731   3.724
  996SOL     OW 4826  10.595   7.980   0.206
  996SOL    HW1 4827  10.572   8.014   0.120
  996SOL    HW2 4828  10.646   7.901   0.189
  997SOL     OW 4829   8.846   1.493   9.690
  997SOL    HW1 4830   8.894   1.559   9.740
  997SOL    HW2 4831   8.817   1.429   9.755
  998SOL     OW 4832   1.980   3.172  10.706
  998SOL    HW1 4833   2.071   3.161  10.679
  998SOL    HW2 4834   1.982   3.165  10.801
  999SOL     OW 4835   6.676  10.849   7.584
  999SOL    HW1 4836   6.673  10.910   7.658
  999SOL    HW2 4837   6.768  10.823   7.578
 1000SOL     OW 4838   9.088  14.116   9.026
 1000SOL    HW1 4839   9.050  14.031   9.001
 1000SOL    HW2 4840   9.013  14.175   9.029
 1001SOL     OW 4841  11.506  14.586   1.119
 1001SOL    HW1 4842  11.557  14.506   1.113
 1001SOL    HW2 4843  11.563  14.648   1.165
 1002SOL     OW 4844   3.723  13.739   1.178
 1002SOL    HW1 4845   3.701  13.658   1.132
 1002SOL    HW2 4846   3.778  13.712   1.251
 1003SOL     OW 4847   0.914   9.454   6.004
 1003SOL    HW1 4848   0.846   9.388   5.990
 1003SOL    HW2 4849   0.986   9.427   5.946
 1004SOL     OW 4850   9.279  12.103   7.831
 1004SOL    HW1 4851   9.363  12.082   7.792
 1004SOL    HW2 4852   9.301  12.145   7.915
 1005SOL     OW 4853  10.866   0.557  14.363
 1005SOL    HW1 4854  10.886   0.518  14.278
 1005SOL    HW2 4855  10.820   0.638  14.342
 1006SOL     OW 4856   3.755   3.184   2.718
 1006SOL    HW1 4857   3.673   3.171   2.671
 1006SOL    HW2 4858   3.729   3.203   2.808
 1007SOL     OW 4859  10.205   3.974  13.876
 1007SOL    HW1 4860  10.121   3.973  13.831
 1007SOL    HW2 4861  10.266   3.934  13.814
 1008SOL     OW 4862  12.060   8.817   2.199
 1008SOL    HW1 4863  12.012   8.774   2.128
 1008SOL    HW2 4864  12.085   8.902   2.163
 1009SOL     OW 4865  13.171   7.853   7.635
 1009SOL    HW1 4866  13.085   7.880   7.668
 1009SOL    HW2 4867  13.198   7.784   7.695
 1010SOL     OW 4868   6.513   7.322  13.148
 1010SOL    HW1 4869   6.502   7.247  13.090
 1010SOL    HW2 4870   6.553   7.389  13.092
 1011SOL     OW 4871   1.072  11.424  14.643
 1011SOL    HW1 4872   1.026  11.340  14.650
 1011SOL    HW2 4873   1.089  11.449  14.734
 1012SOL     OW 4874   9.023   9.605   0.582
 1012SOL    HW1 4875   9.003   9.515   0.608
 1012SOL    HW2 4876   9.114   9.602   0.553
 1013SOL     OW 4877   5.207   1.613   9.962
 1013SOL    HW1 4878   5.118   1.610   9.996
 1013SOL    HW2 4879   5.197   1.611   9.867
 1014SOL     OW 4880   1.812   1.300   0.454
 1014SOL    HW1 4881   1.906   1.314   0.445
 1014SOL    HW2 4882   1.772   1.378   0.417
 1015SOL     OW 4883   5.580   1.613   5.931
 1015SOL    HW1 4884   5.630   1.532   5.917
 1015SOL    HW2 4885   5.590   1.661   5.849
 1016SOL     OW 4886   1.338   7.928   7.209
 1016SOL    HW1 4887   1.404   7.972   7.156
 1016SOL    HW2 4888   1.371   7.935   7.299
 1017SOL     OW 4889  14.772  11.167  14.175
 1017SOL    HW1 4890  14.819  11.083  14.173
 1017SOL    HW2 4891  14.825  11.226  14.123
 1018SOL     OW 4892  12.414   3.577   0.596
 1018SOL    HW1 4893  12.349   3.547   0.660
 1018SOL    HW2 4894  12.460   3.648   0.640
 1019SOL     OW 4895   1.184  12.849   7.437
 1019SOL    HW1 4896   1.216  12.765   7.472
 1019SOL    HW2 4897   1.110  12.871   7.494
 1020SOL     OW 4898  10.995   6.649   1.638
 1020SOL    HW1 4899  10.980   6.733   1.683
 1020SOL    HW2 4900  10.964   6.583   1.699
 1021SOL     OW 4901   5.175   0.624   9.994
 1021SOL    HW1 4902   5.208   0.668  10.073
 1021SOL    HW2 4903   5.154   0.696   9.934
 1022SOL     OW 4904   0.457   8.938   5.425
 1022SOL    HW1 4905   0.450   8.989   5.344
 1022SOL    HW2 4906   0.549   8.947   5.450
 1023SOL     OW 4907  12.839   5.559   3.411
 1023SOL    HW1 4908  12.768   5.580   3.472
 1023SOL    HW2 4909  12.866   5.643   3.375
 1024SOL     OW 4910   0.475   7.603  12.312
 1024SOL    HW1 4911   0.380   7.614  12.312
 1024SOL    HW2 4912   0.497   7.579  12.402
 1025SOL     OW 4913   3.757   7.783  12.328
 1025SOL    HW1 4914   3.760   7.823  12.240
 1025SOL    HW2 4915   3.715   7.850  12.382
 1026SOL     OW 4916  14.518   2.151   9.586
 1026SOL    HW1 4917  14.552   2.202   9.512
 1026SOL    HW2 4918  14.468   2.215   9.637
 1027SOL     OW 4919   5.586   9.153  12.220
 1027SOL    HW1 4920   5.568   9.081  12.280
 1027SOL    HW2 4921   5.630   9.113  12.145
 1028SOL     OW 4922  10.683   5.718   0.854
 1028SOL    HW1 4923  10.704   5.630   0.885
 1028SOL    HW2 4924  10.713   5.775   0.925
 1029SOL     OW 4925   7.214   0.763   6.640
 1029SOL    HW1 4926   7.181   0.777   6.728
 1029SOL    HW2 4927   7.144   0.796   6.583
 1030SOL     OW 4928  12.710  12.174  14.171
 1030SOL    HW1 4929  12.692  12.101  14.230
 1030SOL    HW2 4930  12.799  12.157  14.139
 1031SOL     OW 4931   0.787  11.269   4.395
 1031SOL    HW1 4932   0.709  11.273   4.340
 1031SOL    HW2 4933   0.853  11.320   4.348
 1032SOL     OW 4934  10.607   4.591   2.727
 1032SOL    HW1 4935  10.544   4.627   2.664
 1032SOL    HW2 4936  10.583   4.499   2.735
 1033SOL     OW 4937   7.161   4.264  12.240
 1033SOL    HW1 4938   7.180   4.341  12.187
 1033SOL    HW2 4939   7.098   4.214  12.188
 1034SOL     OW 4940  11.670   4.075   7.124
 1034SOL    HW1 4941  11.634   4.156   7.161
 1034SOL    HW2 4942  11.619   4.005   7.165
 1035SOL     OW 4943   4.243  11.417  12.283
 1035SOL    HW1 4944   4.208  11.335  12.250
 1035SOL    HW2 4945   4.338  11.411  12.268
 1036SOL     OW 4946  13.744  14.050   6.923
 1036SOL    HW1 4947  13.829  14.008   6.936
 1036SOL    HW2 4948  13.761  14.143   6.937
 1037SOL     OW 4949   4.854   5.207   0.969
 1037SOL    HW1 4950   4.863   5.188   1.062
 1037SOL    HW2 4951   4.922   5.272   0.950
 1038SOL     OW 4952   1.856   0.125   8.435
 1038SOL    HW1 4953   1.807   0.205   8.452
 1038SOL    HW2 4954   1.947   0.148   8.454
 1039SOL     OW 4955   3.841   1.304   9.616
 1039SOL    HW1 4956   3.922   1.280   9.661
 1039SOL    HW2 4957   3.847   1.261   9.531
 1040SOL     OW 4958   8.327   6.189   9.295
 1040SOL    HW1 4959   8.262   6.250   9.330
 1040SOL    HW2 4960   8.405   6.243   9.282
 1041SOL     OW 4961  11.384   3.110   7.469
 1041SOL    HW1 4962  11.390   3.070   7.556
 1041SOL    HW2 4963  11.307   3.068   7.430
 1042SOL     OW 4964   6.642   7.264   6.729
 1042SOL    HW1 4965   6.592   7.206   6.671
 1042SOL    HW2 4966   6.597   7.348   6.723
 1043SOL     OW 4967   7.572   3.603   1.177
 1043SOL    HW1 4968   7.549   3.692   1.150
 1043SOL    HW2 4969   7.511   3.582   1.248
 1044SOL     OW 4970   2.136  11.774  14.479
 1044SOL    HW1 4971   2.109  11.852  14.528
 1044SOL    HW2 4972   2.132  11.802  14.387
 1045SOL     OW 4973   6.148   4.026   0.296
 1045SOL    HW1 4974   6.125   4.063   0.211
 1045SOL    HW2 4975   6.212   3.958   0.276
 1046SOL     OW 4976   5.619   5.651   5.074
 1046SOL    HW1 4977   5.616   5.588   5.002
 1046SOL    HW2 4978   5.682   5.613   5.136
 1047SOL     OW 4979   7.917  14.466   3.658
 1047SOL    HW1 4980   7.937  14.400   3.591
 1047SOL    HW2 4981   7.851  14.523   3.616
 1048SOL     OW 4982   7.165   4.812   9.871
 1048SOL    HW1 4983   7.075   4.783   9.883
 1048SOL    HW2 4984   7.189   4.853   9.954
 1049SOL     OW 4985   7.521  11.695   7.310
 1049SOL    HW1 4986   7.469  11.640   7.368
 1049SOL    HW2 4987   7.492  11.673   7.222
 1050SOL     OW 4988  10.157   3.595   5.568
 1050SOL    HW1 4989  10.087   3.564   5.625
 1050SOL    HW2 4990  10.114   3.609   5.483
 1051SOL     OW 4991  14.430   9.811   9.917
 1051SOL    HW1 4992  14.443   9.878   9.984
 1051SOL    HW2 4993  14.501   9.825   9.855
 1052SOL     OW 4994   1.774  14.194   4.880
 1052SOL    HW1 4995   1.795  14.149   4.798
 1052SOL    HW2 4996   1.709  14.260   4.855
 1053SOL     OW 4997   9.556   4.036   8.394
 1053SOL    HW1 4998   9.481   4.090   8.418
 1053SOL    HW2 4999   9.553   3.962   8.455
 1054SOL     OW 5000   1.434  13.532   6.746
 1054SOL    HW1 5001   1.372  13.460   6.745
 1054SOL    HW2 5002   1.385  13.607   6.715
 1055SOL     OW 5003   0.071   5.851  11.042
 1055SOL    HW1 5004  14.849   5.861  11.039
 1055SOL    HW2 5005   0.102   5.885  10.958
 1056SOL     OW 5006   1.545  13.634   0.903
 1056SOL    HW1 5007   1.482  13.572   0.866
 1056SOL    HW2 5008   1.528  13.716   0.857
 1057SOL     OW 5009  13.911   8.675   7.037
 1057SOL    HW1 5010  13.976   8.670   7.107
 1057SOL    HW2 5011  13.942   8.613   6.971
 1058SOL     OW 5012  10.431  10.570  11.183
 1058SOL    HW1 5013  10.367  10.534  11.122
 1058SOL    HW2 5014  10.414  10.664  11.183
 1059SOL     OW 5015   6.542  13.647   2.402
 1059SOL    HW1 5016   6.635  13.642   2.424
 1059SOL    HW2 5017   6.540  13.669   2.309
 1060SOL     OW 5018   9.478   5.801   5.349
 1060SOL    HW1 5019   9.545   5.762   5.405
 1060SOL    HW2 5020   9.418   5.845   5.410
 1061SOL     OW 5021  11.974   2.981  10.210
 1061SOL    HW1 5022  12.066   2.996  10.232
 1061SOL    HW2 5023  11.972   2.976  10.114
 1062SOL     OW 5024   8.541   8.175  10.431
 1062SOL    HW1 5025   8.499   8.245  10.381
 1062SOL    HW2 5026   8.490   8.169  10.511
 1063SOL     OW 5027   4.758   6.309   7.075
 1063SOL    HW1 5028   4.736   6.243   7.009
 1063SOL    HW2 5029   4.673   6.341   7.106
 1064SOL     OW 5030   6.941  12.760   9.676
 1064SOL    HW1 5031   6.997  12.682   9.671
 1064SOL    HW2 5032   6.945  12.786   9.768
 1065SOL     OW 5033   6.519   1.165  13.560
 1065SOL    HW1 5034   6.569   1.154  13.479
 1065SOL    HW2 5035   6.504   1.075  13.591
 1066SOL     OW 5036  12.717   8.509   8.385
 1066SOL    HW1 5037  12.693   8.481   8.297
 1066SOL    HW2 5038  12.641   8.559   8.416
 1067SOL     OW 5039   2.314  12.241   9.600
 1067SOL    HW1 5040   2.281  12.320   9.643
 1067SOL    HW2 5041   2.368  12.274   9.528
 1068SOL     OW 5042   8.661  10.841  12.228
 1068SOL    HW1 5043   8.576  10.870  12.195
 1068SOL    HW2 5044   8.692  10.778  12.163
 1069SOL     OW 5045   5.134   2.203  10.116
 1069SOL    HW1 5046   5.153   2.135  10.181
 1069SOL    HW2 5047   5.073   2.160  10.056
 1070SOL     OW 5048  13.898   9.882   7.394
 1070SOL    HW1 5049  13.988   9.902   7.371
 1070SOL    HW2 5050  13.895   9.889   7.490
 1071SOL     OW 5051   3.697   9.652   3.596
 1071SOL    HW1 5052   3.660   9.563   3.595
 1071SOL    HW2 5053   3.768   9.649   3.533
 1072SOL     OW 5054   4.403   1.590  12.247
 1072SOL    HW1 5055   4.334   1.551  12.194
 1072SOL    HW2 5056   4.358   1.626  12.324
 1073SOL     OW 5057  12.733   4.557  10.970
 1073SOL    HW1 5058  12.770   4.640  10.998
 1073SOL    HW2 5059  12.783   4.490  11.018
 1074SOL     OW 5060  11.583   5.728  12.825
 1074SOL    HW1 5061  11.510   5.717  12.886
 1074SOL    HW2 5062  11.604   5.640  12.796
 1075SOL     OW 5063  11.952   3.280   2.593
 1075SOL    HW1 5064  11.868   3.274   2.638
 1075SOL    HW2 5065  12.017   3.271   2.663
 1076SOL     OW 5066  14.314  10.020   7.731
 1076SOL    HW1 5067  14.263   9.971   7.795
 1076SOL    HW2 5068  14.348   9.954   7.671
 1077SOL     OW 5069   3.310   4.291   2.501
 1077SOL    HW1 5070   3.234   4.245   2.539
 1077SOL    HW2 5071   3.290   4.298   2.408
 1078SOL     OW 5072   9.735   5.869   4.551
 1078SOL    HW1 5073   9.740   5.936   4.620
 1078SOL    HW2 5074   9.642   5.856   4.538
 1079SOL     OW 5075   1.591   5.463   8.798
 1079SOL    HW1 5076   1.626   5.376   8.813
 1079SOL    HW2 5077   1.633   5.493   8.717
 1080SOL     OW 5078   9.345   0.227   3.555
 1080SOL    HW1 5079   9.360   0.132   3.560
 1080SOL    HW2 5080   9.368   0.259   3.642
 1081SOL     OW 5081  13.295   3.750   5.199
 1081SOL    HW1 5082  13.338   3.724   5.117
 1081SOL    HW2 5083  13.335   3.695   5.266
 1082SOL     OW 5084   8.473   4.203  10.943
 1082SOL    HW1 5085   8.407   4.142  10.913
 1082SOL    HW2 5086   8.439   4.290  10.919
 1083SOL     OW 5087  13.599  13.195  11.329
 1083SOL    HW1 5088  13.519  13.224  11.286
 1083SOL    HW2 5089  13.653  13.161  11.258
 1084SOL     OW 5090   5.885   0.341   2.197
 1084SOL    HW1 5091   5.962   0.321   2.144
 1084SOL    HW2 5092   5.859   0.428   2.169
 1085SOL     OW 5093   3.585  12.454   3.759
 1085SOL    HW1 5094   3.547  12.399   3.828
 1085SOL    HW2 5095   3.676  12.425   3.753
 1086SOL     OW 5096  14.415  11.368  12.094
 1086SOL    HW1 5097  14.324  11.362  12.066
 1086SOL    HW2 5098  14.438  11.280  12.122
 1087SOL     OW 5099   8.485   9.259   4.349
 1087SOL    HW1 5100   8.548   9.306   4.295
 1087SOL    HW2 5101   8.538   9.223   4.421
 1088SOL     OW 5102   7.003   3.054   8.017
 1088SOL    HW1 5103   7.002   3.148   7.998
 1088SOL    HW2 5104   6.913   3.025   7.998
 1089SOL     OW 5105  12.959  14.378  10.498
 1089SOL    HW1 5106  12.864  14.370  10.502
 1089SOL    HW2 5107  12.992  14.297  10.537
 1090SOL     OW 5108  14.581   8.145  11.298
 1090SOL    HW1 5109  14.554   8.132  11.207
 1090SOL    HW2 5110  14.506   8.187  11.340
 1091SOL     OW 5111   3.586   2.763   4.487
 1091SOL    HW1 5112   3.575   2.789   4.395
 1091SOL    HW2 5113   3.646   2.828   4.523
 1092SOL     OW 5114   9.442  14.037  10.152
 1092SOL    HW1 5115   9.439  13.965  10.214
 1092SOL    HW2 5116   9.425  13.997  10.067
 1093SOL     OW 5117   9.941  10.504  12.372
 1093SOL    HW1 5118   9.872  10.492  12.306
 1093SOL    HW2 5119  10.021  10.477  12.327
 1094SOL     OW 5120  13.252   7.703   7.837
 1094SOL    HW1 5121  13.281   7.619   7.873
 1094SOL    HW2 5122  13.157   7.701   7.847
 1095SOL     OW 5123   1.141  10.631   6.990
 1095SOL    HW1 5124   1.235  10.624   6.974
 1095SOL    HW2 5125   1.133  10.630   7.086
 1096SOL     OW 5126   3.135   9.159  12.055
 1096SOL    HW1 5127   3.118   9.139  12.146
 1096SOL    HW2 5128   3.215   9.113  12.034
 1097SOL     OW 5129  10.367   3.142  12.535
 1097SOL    HW1 5130  10.450   3.187  12.551
 1097SOL    HW2 5131  10.337   3.115  12.622
 1098SOL     OW 5132   8.678   0.460  14.414
 1098SOL    HW1 5133   8.619   0.532  14.438
 1098SOL    HW2 5134   8.750   0.503  14.368
 1099SOL     OW 5135   3.676  10.681   7.486
 1099SOL    HW1 5136   3.660  10.601   7.535
 1099SOL    HW2 5137   3.595  10.732   7.497
 1100SOL     OW 5138   0.061  11.907   7.999
 1100SOL    HW1 5139   0.014  11.964   8.060
 1100SOL    HW2 5140   0.041  11.944   7.912
 1101SOL     OW 5141   4.281   3.478   8.276
 1101SOL    HW1 5142   4.193   3.463   8.310
 1101SOL    HW2 5143   4.291   3.416   8.204
 1102SOL     OW 5144   4.595   4.915   9.729
 1102SOL    HW1 5145   4.560   5.002   9.706
 1102SOL    HW2 5146   4.689   4.931   9.743
 1103SOL     OW 5147  11.302   7.083   4.272
 1103SOL    HW1 5148  11.304   7.036   4.356
 1103SOL    HW2 5149  11.243   7.031   4.217
 1104SOL     OW 5150   8.305   6.343   7.276
 1104SOL    HW1 5151   8.216   6.373   7.293
 1104SOL    HW2 5152   8.296   6.280   7.204
 1105SOL     OW 5153  11.042   1.484   5.312
 1105SOL    HW1 5154  11.135   1.468   5.302
 1105SOL    HW2 5155  11.019   1.540   5.237
 1106SOL     OW 5156   3.400   6.632   3.613
 1106SOL    HW1 5157   3.307   6.652   3.629
 1106SOL    HW2 5158   3.430   6.594   3.696
 1107SOL     OW 5159  14.096  13.207   6.552
 1107SOL    HW1 5160  14.104  13.274   6.485
 1107SOL    HW2 5161  14.049  13.251   6.624
 1108SOL     OW 5162   6.038   8.245   7.207
 1108SOL    HW1 5163   6.000   8.174   7.156
 1108SOL    HW2 5164   6.130   8.222   7.216
 1109SOL     OW 5165   9.294   5.327   3.594
 1109SOL    HW1 5166   9.363   5.393   3.599
 1109SOL    HW2 5167   9.213   5.376   3.609
 1110SOL     OW 5168   7.873  12.990   9.524
 1110SOL    HW1 5169   7.862  13.085   9.524
 1110SOL    HW2 5170   7.810  12.958   9.460
 1111SOL     OW 5171   7.183   0.385   6.902
 1111SOL    HW1 5172   7.242   0.432   6.843
 1111SOL    HW2 5173   7.239   0.319   6.944
 1112SOL     OW 5174   7.644   2.826   5.337
 1112SOL    HW1 5175   7.645   2.871   5.422
 1112SOL    HW2 5176   7.716   2.764   5.342
 1113SOL     OW 5177   4.878  10.605   6.480
 1113SOL    HW1 5178   4.797  10.654   6.465
 1113SOL    HW2 5179   4.946  10.673   6.480
 1114SOL     OW 5180   5.021   0.637   0.304
 1114SOL    HW1 5181   4.971   0.616   0.383
 1114SOL    HW2 5182   4.959   0.624   0.232
 1115SOL     OW 5183   2.784   5.359   7.352
 1115SOL    HW1 5184   2.698   5.395   7.375
 1115SOL    HW2 5185   2.807   5.403   7.270
 1116SOL     OW 5186   0.822  14.540   1.425
 1116SOL    HW1 5187   0.781  14.619   1.459
 1116SOL    HW2 5188   0.862  14.567   1.342
 1117SOL     OW 5189   3.129   8.532  13.725
 1117SOL    HW1 5190   3.177   8.515  13.644
 1117SOL    HW2 5191   3.142   8.453  13.777
 1118SOL     OW 5192  11.080   1.588  12.617
 1118SOL    HW1 5193  11.032   1.578  12.699
 1118SOL    HW2 5194  11.034   1.657  12.570
 1119SOL     OW 5195  11.426   0.737  14.527
 1119SOL    HW1 5196  11.400   0.780  14.445
 1119SOL    HW2 5197  11.509   0.694  14.507
 1120SOL     OW 5198   1.625   5.532   2.476
 1120SOL    HW1 5199   1.622   5.440   2.503
 1120SOL    HW2 5200   1.586   5.581   2.548
 1121SOL     OW 5201   7.620   6.321   1.675
 1121SOL    HW1 5202   7.584   6.343   1.760
 1121SOL    HW2 5203   7.656   6.404   1.642
 1122SOL     OW 5204   4.862   0.363  11.434
 1122SOL    HW1 5205   4.869   0.293  11.499
 1122SOL    HW2 5206   4.856   0.318  11.350
 1123SOL     OW 5207   8.617   8.261   0.072
 1123SOL    HW1 5208   8.690   8.265   0.133
 1123SOL    HW2 5209   8.539   8.273   0.127
 1124SOL     OW 5210  10.668   0.340   1.605
 1124SOL    HW1 5211  10.603   0.368   1.669
 1124SOL    HW2 5212  10.749   0.382   1.633
 1125SOL     OW 5213  11.088  14.114   4.736
 1125SOL    HW1 5214  11.004  14.068   4.739
 1125SOL    HW2 5215  11.092  14.150   4.648
 1126SOL     OW 5216  10.594  13.969   7.431
 1126SOL    HW1 5217  10.652  13.997   7.501
 1126SOL    HW2 5218  10.544  13.896   7.468
 1127SOL     OW 5219  11.449   7.907   4.069
 1127SOL    HW1 5220  11.390   7.835   4.046
 1127SOL    HW2 5221  11.484   7.937   3.986
 1128SOL     OW 5222  10.516  11.291  13.705
 1128SOL    HW1 5223  10.439  11.313  13.758
 1128SOL    HW2 5224  10.589  11.329  13.753
 1129SOL     OW 5225  13.709  14.501   4.373
 1129SOL    HW1 5226  13.728  14.554   4.451
 1129SOL    HW2 5227  13.790  14.453   4.356
 1130SOL     OW 5228  10.582   2.791  10.115
 1130SOL    HW1 5229  10.487   2.783  10.110
 1130SOL    HW2 5230  10.597   2.879  10.148
 1131SOL     OW 5231   8.445   8.832  11.401
 1131SOL    HW1 5232   8.463   8.895  11.331
 1131SOL    HW2 5233   8.522   8.774  11.401
 1132SOL     OW 5234   6.459   4.541  11.940
 1132SOL    HW1 5235   6.480   4.599  12.014
 1132SOL    HW2 5236   6.397   4.478  11.975
 1133SOL     OW 5237   3.738   0.347   6.342
 1133SOL    HW1 5238   3.652   0.351   6.384
 1133SOL    HW2 5239   3.762   0.438   6.327
 1134SOL     OW 5240  13.110  12.431   7.944
 1134SOL    HW1 5241  13.176  12.445   8.011
 1134SOL    HW2 5242  13.051  12.364   7.980
 1135SOL     OW 5243   9.246   8.718   4.475
 1135SOL    HW1 5244   9.219   8.781   4.407
 1135SOL    HW2 5245   9.318   8.761   4.520
 1136SOL     OW 5246   7.162   1.332   9.586
 1136SOL    HW1 5247   7.243   1.383   9.579
 1136SOL    HW2 5248   7.182   1.263   9.650
 1137SOL     OW 5249   1.023  14.847   6.638
 1137SOL    HW1 5250   1.110  14.816   6.663
 1137SOL    HW2 5251   1.038   0.065   6.610
 1138SOL     OW 5252   0.611   2.135  13.026
 1138SOL    HW1 5253   0.548   2.063  13.021
 1138SOL    HW2 5254   0.567   2.208  12.982
 1139SOL     OW 5255  12.620   9.035   8.624
 1139SOL    HW1 5256  12.608   9.121   8.664
 1139SOL    HW2 5257  12.709   9.037   8.590
 1140SOL     OW 5258  14.567   9.103   7.229
 1140SOL    HW1 5259  14.644   9.106   7.285
 1140SOL    HW2 5260  14.575   9.021   7.181
 1141SOL     OW 5261  10.228   4.904  12.310
 1141SOL    HW1 5262  10.207   4.891  12.218
 1141SOL    HW2 5263  10.232   4.815  12.347
 1142SOL     OW 5264   3.496  11.390  11.675
 1142SOL    HW1 5265   3.519  11.305  11.713
 1142SOL    HW2 5266   3.511  11.379  11.581
 1143SOL     OW 5267  13.815   8.381  12.271
 1143SOL    HW1 5268  13.765   8.374  12.353
 1143SOL    HW2 5269  13.893   8.431  12.294
 1144SOL     OW 5270  10.830   2.083   4.636
 1144SOL    HW1 5271  10.756   2.035   4.672
 1144SOL    HW2 5272  10.790   2.154   4.585
 1145SOL     OW 5273   7.184  14.733  11.519
 1145SOL    HW1 5274   7.090  14.721  11.535
 1145SOL    HW2 5275   7.201  14.823  11.545
 1146SOL     OW 5276   7.182   2.601  13.464
 1146SOL    HW1 5277   7.239   2.678  13.459
 1146SOL    HW2 5278   7.239   2.531  13.497
 1147SOL     OW 5279  14.668   7.735  14.267
 1147SOL    HW1 5280  14.690   7.644  14.247
 1147SOL    HW2 5281  14.637   7.732  14.358
 1148SOL     OW 5282   6.691  11.009  13.196
 1148SOL    HW1 5283   6.661  11.046  13.280
 1148SOL    HW2 5284   6.678  10.915  13.206
 1149SOL     OW 5285   4.872  13.832   0.757
 1149SOL    HW1 5286   4.867  13.817   0.663
 1149SOL    HW2 5287   4.966  13.829   0.777
 1150SOL     OW 5288   9.919   3.576  12.008
 1150SOL    HW1 5289   9.966   3.536  11.934
 1150SOL    HW2 5290   9.958   3.536  12.086
 1151SOL     OW 5291   9.532   3.205   3.015
 1151SOL    HW1 5292   9.600   3.174   3.075
 1151SOL    HW2 5293   9.501   3.286   3.053
 1152SOL     OW 5294   7.050  12.229  14.324
 1152SOL    HW1 5295   7.062  12.323  14.309
 1152SOL    HW2 5296   6.956  12.215  14.310
 1153SOL     OW 5297   1.884  13.341   6.385
 1153SOL    HW1 5298   1.838  13.331   6.469
 1153SOL    HW2 5299   1.971  13.372   6.409
 1154SOL     OW 5300  13.106   2.597   7.416
 1154SOL    HW1 5301  13.168   2.637   7.355
 1154SOL    HW2 5302  13.142   2.616   7.503
 1155SOL     OW 5303   4.391  12.247  12.309
 1155SOL    HW1 5304   4.436  12.184  12.365
 1155SOL    HW2 5305   4.303  12.211  12.300
 1156SOL     OW 5306  14.205  10.058  11.461
 1156SOL    HW1 5307  14.146  10.101  11.400
 1156SOL    HW2 5308  14.277  10.119  11.472
 1157SOL     OW 5309  12.979  10.071  12.794
 1157SOL    HW1 5310  12.915  10.033  12.734
 1157SOL    HW2 5311  12.940  10.060  12.881
 1158SOL     OW 5312   6.113  12.940   4.726
 1158SOL    HW1 5313   6.173  12.922   4.798
 1158SOL    HW2 5314   6.162  12.995   4.666
 1159SOL     OW 5315  11.762   1.514  14.560
 1159SOL    HW1 5316  11.712   1.433  14.554
 1159SOL    HW2 5317  11.731   1.556  14.640
 1160SOL     OW 5318  12.694   1.834   4.544
 1160SOL    HW1 5319  12.735   1.747   4.545
 1160SOL    HW2 5320  12.603   1.817   4.520
 1161SOL     OW 5321  12.103   9.886   5.309
 1161SOL    HW1 5322  12.092   9.868   5.216
 1161SOL    HW2 5323  12.196   9.875   5.326
 1162SOL     OW 5324  13.610  12.335   8.498
 1162SOL    HW1 5325  13.614  12.361   8.590
 1162SOL    HW2 5326  13.677  12.387   8.455
 1163SOL     OW 5327  11.722  13.591  13.665
 1163SOL    HW1 5328  11.676  13.647  13.727
 1163SOL    HW2 5329  11.681  13.610  13.580
 1164SOL     OW 5330   2.696   3.011  12.967
 1164SOL    HW1 5331   2.703   3.051  13.053
 1164SOL    HW2 5332   2.738   3.073  12.908
 1165SOL     OW 5333  12.594   6.833   9.989
 1165SOL    HW1 5334  12.610   6.768  10.058
 1165SOL    HW2 5335  12.604   6.917  10.032
 1166SOL     OW 5336   4.040   0.831   3.971
 1166SOL    HW1 5337   4.034   0.845   3.877
 1166SOL    HW2 5338   4.134   0.827   3.989
 1167SOL     OW 5339  12.893   3.573  12.626
 1167SOL    HW1 5340  12.891   3.604  12.536
 1167SOL    HW2 5341  12.952   3.498  12.625
 1168SOL     OW 5342   0.455   9.613  12.866
 1168SOL    HW1 5343   0.511   9.629  12.790
 1168SOL    HW2 5344   0.366   9.612  12.830
 1169SOL     OW 5345   4.970   8.241   0.640
 1169SOL    HW1 5346   4.945   8.250   0.548
 1169SOL    HW2 5347   5.060   8.208   0.638
 1170SOL     OW 5348   6.265   6.998   0.579
 1170SOL    HW1 5349   6.278   7.075   0.634
 1170SOL    HW2 5350   6.187   7.018   0.528
 1171SOL     OW 5351  11.486  12.680   2.776
 1171SOL    HW1 5352  11.510  12.758   2.727
 1171SOL    HW2 5353  11.564  12.657   2.826
 1172SOL     OW 5354   5.096   3.080   1.256
 1172SOL    HW1 5355   5.034   3.021   1.299
 1172SOL    HW2 5356   5.050   3.164   1.252
 1173SOL     OW 5357  11.373   5.489   0.917
 1173SOL    HW1 5358  11.293   5.525   0.880
 1173SOL    HW2 5359  11.385   5.537   0.999
 1174SOL     OW 5360   1.787   5.998   6.482
 1174SOL    HW1 5361   1.738   5.942   6.543
 1174SOL    HW2 5362   1.790   6.083   6.526
 1175SOL     OW 5363   3.360  14.010   8.369
 1175SOL    HW1 5364   3.303  13.961   8.429
 1175SOL    HW2 5365   3.300  14.058   8.313
 1176SOL     OW 5366   8.911   9.754  10.764
 1176SOL    HW1 5367   8.941   9.703  10.838
 1176SOL    HW2 5368   8.983   9.750  10.701
 1177SOL     OW 5369  11.866   7.085  14.578
 1177SOL    HW1 5370  11.928   7.091  14.651
 1177SOL    HW2 5371  11.819   7.168  14.579
 1178SOL     OW 5372  10.931   8.586   2.268
 1178SOL    HW1 5373  10.871   8.640   2.215
 1178SOL    HW2 5374  11.013   8.586   2.218
 1179SOL     OW 5375  10.827   0.365   4.402
 1179SOL    HW1 5376  10.790   0.394   4.485
 1179SOL    HW2 5377  10.774   0.290   4.377
 1180SOL     OW 5378   1.489   9.446   0.789
 1180SOL    HW1 5379   1.397   9.470   0.775
 1180SOL    HW2 5380   1.523   9.430   0.701
 1181SOL     OW 5381   3.178   4.883  14.804
 1181SOL    HW1 5382   3.253   4.824  14.813
 1181SOL    HW2 5383   3.128   4.845  14.732
 1182SOL     OW 5384  14.477   9.617   6.565
 1182SOL    HW1 5385  14.503   9.668   6.488
 1182SOL    HW2 5386  14.384   9.636   6.576
 1183SOL     OW 5387   5.297  10.703   5.440
 1183SOL    HW1 5388   5.333  10.701   5.351
 1183SOL    HW2 5389   5.366  10.742   5.493
 1184SOL     OW 5390   7.744   6.246   5.152
 1184SOL    HW1 5391   7.812   6.233   5.218
 1184SOL    HW2 5392   7.791   6.270   5.073
 1185SOL     OW 5393   6.960   0.537   1.545
 1185SOL    HW1 5394   7.016   0.477   1.594
 1185SOL    HW2 5395   7.021   0.590   1.493
 1186SOL     OW 5396  13.943  13.077   7.567
 1186SOL    HW1 5397  13.872  13.012   7.560
 1186SOL    HW2 5398  13.936  13.129   7.487
 1187SOL     OW 5399  11.679   1.088   2.626
 1187SOL    HW1 5400  11.624   1.032   2.681
 1187SOL    HW2 5401  11.703   1.032   2.552
 1188SOL     OW 5402   8.401   3.019  11.928
 1188SOL    HW1 5403   8.452   3.075  11.986
 1188SOL    HW2 5404   8.324   3.071  11.905
 1189SOL     OW 5405  14.457  12.324   3.503
 1189SOL    HW1 5406  14.477  12.264   3.431
 1189SOL    HW2 5407  14.526  12.390   3.500
 1190SOL     OW 5408  14.260  13.414   0.279
 1190SOL    HW1 5409  14.258  13.319   0.288
 1190SOL    HW2 5410  14.270  13.446   0.369
 1191SOL     OW 5411   7.914  12.239   8.497
 1191SOL    HW1 5412   7.869  12.322   8.514
 1191SOL    HW2 5413   7.870  12.204   8.420
 1192SOL     OW 5414   7.019   2.633  12.385
 1192SOL    HW1 5415   6.958   2.694  12.427
 1192SOL    HW2 5416   7.100   2.642  12.435
 1193SOL     OW 5417   6.569  14.326   9.473
 1193SOL    HW1 5418   6.474  14.338   9.461
 1193SOL    HW2 5419   6.594  14.265   9.404
 1194SOL     OW 5420   4.831   3.088   3.012
 1194SOL    HW1 5421   4.776   3.020   2.973
 1194SOL    HW2 5422   4.785   3.169   2.993
 1195SOL     OW 5423   3.838   0.329   7.201
 1195SOL    HW1 5424   3.869   0.344   7.112
 1195SOL    HW2 5425   3.757   0.279   7.190
 1196SOL     OW 5426   3.681   8.281   0.581
 1196SOL    HW1 5427   3.663   8.371   0.609
 1196SOL    HW2 5428   3.774   8.281   0.558
 1197SOL     OW 5429   4.405   0.314   2.676
 1197SOL    HW1 5430   4.355   0.309   2.594
 1197SOL    HW2 5431   4.466   0.386   2.662
 1198SOL     OW 5432  13.197   8.131  14.045
 1198SOL    HW1 5433  13.291   8.124  14.057
 1198SOL    HW2 5434  13.160   8.111  14.131
 1199SOL     OW 5435   6.476  10.067   0.754
 1199SOL    HW1 5436   6.437   9.982   0.731
 1199SOL    HW2 5437   6.470  10.071   0.849
 1200SOL     OW 5438   9.003   9.877  14.432
 1200SOL    HW1 5439   8.925   9.837  14.473
 1200SOL    HW2 5440   9.025   9.817  14.361
 1201SOL     OW 5441  11.062   9.591   8.306
 1201SOL    HW1 5442  11.155   9.601   8.328
 1201SOL    HW2 5443  11.062   9.573   8.211
 1202SOL     OW 5444   5.348   2.723   1.279
 1202SOL    HW1 5445   5.333   2.817   1.284
 1202SOL    HW2 5446   5.289   2.693   1.210
 1203SOL     OW 5447   2.696   7.360  10.756
 1203SOL    HW1 5448   2.688   7.454  10.744
 1203SOL    HW2 5449   2.609   7.325  10.737
 1204SOL     OW 5450  12.409  11.496   5.400
 1204SOL    HW1 5451  12.350  11.450   5.460
 1204SOL    HW2 5452  12.351  11.532   5.333
 1205SOL     OW 5453  12.234   8.666   5.180
 1205SOL    HW1 5454  12.302   8.599   5.172
 1205SOL    HW2 5455  12.177   8.635   5.250
 1206SOL     OW 5456   4.894   1.836   7.912
 1206SOL    HW1 5457   4.969   1.783   7.938
 1206SOL    HW2 5458   4.820   1.799   7.961
 1207SOL     OW 5459   5.013  14.163   1.000
 1207SOL    HW1 5460   5.000  14.234   0.936
 1207SOL    HW2 5461   4.925  14.135   1.024
 1208SOL     OW 5462  12.778   3.741   5.974
 1208SOL    HW1 5463  12.742   3.667   6.023
 1208SOL    HW2 5464  12.852   3.771   6.027
 1209SOL     OW 5465   4.424  10.899   3.359
 1209SOL    HW1 5466   4.501  10.955   3.371
 1209SOL    HW2 5467   4.407  10.864   3.447
 1210SOL     OW 5468   6.616   3.728   9.182
 1210SOL    HW1 5469   6.543   3.779   9.217
 1210SOL    HW2 5470   6.645   3.674   9.256
 1211SOL     OW 5471   4.299   3.513   9.712
 1211SOL    HW1 5472   4.268   3.604   9.711
 1211SOL    HW2 5473   4.223   3.462   9.682
 1212SOL     OW 5474   5.893   3.833  11.621
 1212SOL    HW1 5475   5.869   3.848  11.712
 1212SOL    HW2 5476   5.817   3.790  11.582
 1213SOL     OW 5477  12.867   8.327   8.003
 1213SOL    HW1 5478  12.910   8.323   7.918
 1213SOL    HW2 5479  12.936   8.307   8.066
 1214SOL     OW 5480   1.917   9.901   3.443
 1214SOL    HW1 5481   2.011   9.919   3.432
 1214SOL    HW2 5482   1.886   9.969   3.503
 1215SOL     OW 5483   6.559   4.792   2.545
 1215SOL    HW1 5484   6.487   4.743   2.583
 1215SOL    HW2 5485   6.585   4.854   2.613
 1216SOL     OW 5486   6.989   3.056  14.036
 1216SOL    HW1 5487   7.007   3.100  13.953
 1216SOL    HW2 5488   6.960   3.126  14.094
 1217SOL     OW 5489   3.243   2.437   8.704
 1217SOL    HW1 5490   3.210   2.526   8.702
 1217SOL    HW2 5491   3.246   2.410   8.612
 1218SOL     OW 5492   4.818   1.259   0.720
 1218SOL    HW1 5493   4.751   1.193   0.704
 1218SOL    HW2 5494   4.847   1.243   0.810
 1219SOL     OW 5495   1.140   3.988   9.691
 1219SOL    HW1 5496   1.117   3.971   9.599
 1219SOL    HW2 5497   1.068   3.951   9.741
 1220SOL     OW 5498  10.352   4.627  13.342
 1220SOL    HW1 5499  10.321   4.712  13.313
 1220SOL    HW2 5500  10.437   4.616  13.299
 1221SOL     OW 5501  13.981  13.798   2.427
 1221SOL    HW1 5502  14.065  13.753   2.434
 1221SOL    HW2 5503  13.933  13.749   2.360
 1222SOL     OW 5504  11.952   1.093   8.469
 1222SOL    HW1 5505  12.013   1.160   8.500
 1222SOL    HW2 5506  11.919   1.052   8.549
 1223SOL     OW 5507   8.809  11.980  14.424
 1223SOL    HW1 5508   8.778  11.962  14.335
 1223SOL    HW2 5509   8.743  11.939  14.480
 1224SOL     OW 5510  10.489   4.651  10.536
 1224SOL    HW1 5511  10.431   4.605  10.596
 1224SOL    HW2 5512  10.566   4.672  10.589
 1225SOL     OW 5513  11.792   0.552   2.812
 1225SOL    HW1 5514  11.846   0.516   2.882
 1225SOL    HW2 5515  11.704   0.518   2.828
 1226SOL     OW 5516   9.869   7.262  10.313
 1226SOL    HW1 5517   9.927   7.206  10.261
 1226SOL    HW2 5518   9.789   7.210  10.324
 1227SOL     OW 5519   9.296   1.434  13.122
 1227SOL    HW1 5520   9.329   1.523  13.133
 1227SOL    HW2 5521   9.282   1.425  13.027
 1228SOL     OW 5522   6.043   1.513   2.295
 1228SOL    HW1 5523   5.975   1.446   2.289
 1228SOL    HW2 5524   6.063   1.518   2.389
 1229SOL     OW 5525  13.527   0.668  10.832
 1229SOL    HW1 5526  13.488   0.738  10.779
 1229SOL    HW2 5527  13.479   0.589  10.808
 1230SOL     OW 5528  13.585   8.080  12.412
 1230SOL    HW1 5529  13.620   8.002  12.456
 1230SOL    HW2 5530  13.609   8.069  12.320
 1231SOL     OW 5531  10.238   1.792  13.743
 1231SOL    HW1 5532  10.332   1.778  13.730
 1231SOL    HW2 5533  10.210   1.720  13.801
 1232SOL     OW 5534   0.884   3.362   0.637
 1232SOL    HW1 5535   0.854   3.333   0.723
 1232SOL    HW2 5536   0.804   3.363   0.583
 1233SOL     OW 5537  11.927   4.365   5.015
 1233SOL    HW1 5538  11.834   4.377   5.000
 1233SOL    HW2 5539  11.958   4.449   5.048
 1234SOL     OW 5540   2.799   4.105   5.604
 1234SOL    HW1 5541   2.858   4.050   5.553
 1234SOL    HW2 5542   2.852   4.182   5.627
 1235SOL     OW 5543   5.863   2.655   2.631
 1235SOL    HW1 5544   5.825   2.736   2.595
 1235SOL    HW2 5545   5.857   2.593   2.559
 1236SOL     OW 5546   4.259   4.666  12.536
 1236SOL    HW1 5547   4.265   4.591  12.594
 1236SOL    HW2 5548   4.278   4.630  12.449
 1237SOL     OW 5549   0.817  11.761   2.893
 1237SOL    HW1 5550   0.747  11.696   2.901
 1237SOL    HW2 5551   0.833  11.791   2.982
 1238SOL     OW 5552  13.349   8.077   3.786
 1238SOL    HW1 5553  13.365   8.053   3.694
 1238SOL    HW2 5554  13.394   8.010   3.837
 1239SOL     OW 5555   3.589  13.141  12.240
 1239SOL    HW1 5556   3.558  13.159  12.329
 1239SOL    HW2 5557   3.651  13.212  12.222
 1240SOL     OW 5558   2.059   4.031   1.396
 1240SOL    HW1 5559   2.141   3.982   1.408
 1240SOL    HW2 5560   2.075   4.087   1.320
 1241SOL     OW 5561   3.006   5.042  14.391
 1241SOL    HW1 5562   3.079   4.980  14.386
 1241SOL    HW2 5563   2.928   4.989  14.372
 1242SOL     OW 5564   6.889   3.150   0.436
 1242SOL    HW1 5565   6.845   3.182   0.515
 1242SOL    HW2 5566   6.971   3.112   0.468
 1243SOL     OW 5567   7.674   7.355  13.533
 1243SOL    HW1 5568   7.636   7.335  13.448
 1243SOL    HW2 5569   7.730   7.431  13.517
 1244SOL     OW 5570   5.751   4.011   7.590
 1244SOL    HW1 5571   5.736   3.924   7.626
 1244SOL    HW2 5572   5.754   3.998   7.495
 1245SOL     OW 5573   1.390  11.155   8.345
 1245SOL    HW1 5574   1.357  11.242   8.368
 1245SOL    HW2 5575   1.481  11.155   8.377
 1246SOL     OW 5576   5.989   7.838   7.544
 1246SOL    HW1 5577   5.972   7.929   7.522
 1246SOL    HW2 5578   6.075   7.820   7.507
 1247SOL     OW 5579   5.741   4.392   4.919
 1247SOL    HW1 5580   5.692   4.339   4.855
 1247SOL    HW2 5581   5.712   4.359   5.004
 1248SOL     OW 5582   4.973  14.660  14.320
 1248SOL    HW1 5583   5.054  14.656  14.269
 1248SOL    HW2 5584   4.917  14.720  14.271
 1249SOL     OW 5585   6.284   6.421   0.604
 1249SOL    HW1 5586   6.325   6.415   0.690
 1249SOL    HW2 5587   6.355   6.401   0.542
 1250SOL     OW 5588   1.977   9.061   7.070
 1250SOL    HW1 5589   2.011   9.026   7.152
 1250SOL    HW2 5590   1.942   8.984   7.024
 1251SOL     OW 5591   6.886   5.923  10.134
 1251SOL    HW1 5592   6.852   5.982  10.066
 1251SOL    HW2 5593   6.933   5.981  10.194
 1252SOL     OW 5594   6.903  11.820   9.631
 1252SOL    HW1 5595   6.815  11.856   9.624
 1252SOL    HW2 5596   6.961  11.891   9.604
 1253SOL     OW 5597   0.188  12.658  13.742
 1253SOL    HW1 5598   0.215  12.738  13.789
 1253SOL    HW2 5599   0.176  12.593  13.811
 1254SOL     OW 5600   0.389  10.074  10.319
 1254SOL    HW1 5601   0.362  10.157  10.358
 1254SOL    HW2 5602   0.306  10.031  10.294
 1255SOL     OW 5603   8.614  10.566   4.583
 1255SOL    HW1 5604   8.522  10.579   4.560
 1255SOL    HW2 5605   8.653  10.530   4.503
 1256SOL     OW 5606  11.235   3.818   7.402
 1256SOL    HW1 5607  11.242   3.742   7.344
 1256SOL    HW2 5608  11.188   3.883   7.351
 1257SOL     OW 5609  11.197   5.761   1.950
 1257SOL    HW1 5610  11.292   5.765   1.962
 1257SOL    HW2 5611  11.185   5.711   1.869
 1258SOL     OW 5612   1.097   3.541   2.726
 1258SOL    HW1 5613   1.115   3.631   2.702
 1258SOL    HW2 5614   1.182   3.497   2.722
 1259SOL     OW 5615   5.348   6.205   0.499
 1259SOL    HW1 5616   5.407   6.173   0.430
 1259SOL    HW2 5617   5.386   6.288   0.527
 1260SOL     OW 5618   5.569   4.235   5.660
 1260SOL    HW1 5619   5.492   4.179   5.673
 1260SOL    HW2 5620   5.550   4.315   5.708
 1261SOL     OW 5621   0.784   9.013   2.684
 1261SOL    HW1 5622   0.795   8.976   2.771
 1261SOL    HW2 5623   0.762   8.937   2.629
 1262SOL     OW 5624   9.061   7.451   1.182
 1262SOL    HW1 5625   9.135   7.415   1.231
 1262SOL    HW2 5626   9.019   7.511   1.243
 1263SOL     OW 5627  12.364   3.984  12.272
 1263SOL    HW1 5628  12.359   4.050  12.202
 1263SOL    HW2 5629  12.321   3.907  12.234
 1264SOL     OW 5630   5.655   2.942   0.702
 1264SOL    HW1 5631   5.568   2.949   0.662
 1264SOL    HW2 5632   5.683   3.033   0.714
 1265SOL     OW 5633   9.868   8.388  11.309
 1265SOL    HW1 5634   9.779   8.389  11.344
 1265SOL    HW2 5635   9.916   8.328  11.367
 1266SOL     OW 5636   2.666  11.529  14.755
 1266SOL    HW1 5637   2.686  11.569  14.840
 1266SOL    HW2 5638   2.751  11.515  14.714
 1267SOL     OW 5639  13.603  14.361   7.405
 1267SOL    HW1 5640  13.588  14.272   7.373
 1267SOL    HW2 5641  13.590  14.355   7.499
 1268SOL     OW 5642   4.949   9.815  13.350
 1268SOL    HW1 5643   5.041   9.832  13.370
 1268SOL    HW2 5644   4.916   9.899  13.318
 1269SOL     OW 5645   0.095   0.429   9.345
 1269SOL    HW1 5646   0.148   0.350   9.343
 1269SOL    HW2 5647   0.098   0.463   9.255
 1270SOL     OW 5648  10.422   4.185  13.004
 1270SOL    HW1 5649  10.391   4.272  12.978
 1270SOL    HW2 5650  10.447   4.195  13.096
 1271SOL     OW 5651   5.473   8.934  11.855
 1271SOL    HW1 5652   5.520   8.861  11.895
 1271SOL    HW2 5653   5.522   8.953  11.775
 1272SOL     OW 5654   5.294   2.126   0.507
 1272SOL    HW1 5655   5.233   2.053   0.513
 1272SOL    HW2 5656   5.256   2.194   0.562
 1273SOL     OW 5657   0.101  13.605   0.396
 1273SOL    HW1 5658   0.103  13.650   0.312
 1273SOL    HW2 5659   0.170  13.647   0.448
 1274SOL     OW 5660   6.862   0.593  14.749
 1274SOL    HW1 5661   6.930   0.659  14.761
 1274SOL    HW2 5662   6.854   0.583  14.654
 1275SOL     OW 5663  14.228   7.769   5.253
 1275SOL    HW1 5664  14.244   7.853   5.297
 1275SOL    HW2 5665  14.305   7.757   5.197
 1276SOL     OW 5666   3.497  10.954   2.140
 1276SOL    HW1 5667   3.423  10.955   2.080
 1276SOL    HW2 5668   3.458  10.930   2.225
 1277SOL     OW 5669   5.499   8.377   9.773
 1277SOL    HW1 5670   5.438   8.440   9.812
 1277SOL    HW2 5671   5.555   8.351   9.846
 1278SOL     OW 5672  14.309   2.031  11.942
 1278SOL    HW1 5673  14.349   2.118  11.954
 1278SOL    HW2 5674  14.358   1.992  11.870
 1279SOL     OW 5675   7.290  13.947  11.529
 1279SOL    HW1 5676   7.253  13.906  11.607
 1279SOL    HW2 5677   7.224  13.933  11.461
 1280SOL     OW 5678   1.032   8.126   4.017
 1280SOL    HW1 5679   0.947   8.164   3.996
 1280SOL    HW2 5680   1.049   8.066   3.944
 1281SOL     OW 5681   3.889   7.099   5.380
 1281SOL    HW1 5682   3.964   7.157   5.373
 1281SOL    HW2 5683   3.867   7.099   5.474
 1282SOL     OW 5684  13.341   3.053  13.629
 1282SOL    HW1 5685  13.271   3.051  13.694
 1282SOL    HW2 5686  13.321   3.128  13.573
 1283SOL     OW 5687   5.847   2.283   0.343
 1283SOL    HW1 5688   5.759   2.293   0.379
 1283SOL    HW2 5689   5.898   2.351   0.387
 1284SOL     OW 5690   3.786  10.738  11.171
 1284SOL    HW1 5691   3.807  10.648  11.197
 1284SOL    HW2 5692   3.715  10.728  11.107
 1285SOL     OW 5693   4.087   4.087   7.849
 1285SOL    HW1 5694   4.068   4.141   7.926
 1285SOL    HW2 5695   4.123   4.006   7.886
 1286SOL     OW 5696   6.383   3.110  10.540
 1286SOL    HW1 5697   6.470   3.143  10.517
 1286SOL    HW2 5698   6.339   3.184  10.581
 1287SOL     OW 5699  11.366   0.033  13.843
 1287SOL    HW1 5700  11.421   0.037  13.921
 1287SOL    HW2 5701  11.418  14.856  13.780
 1288SOL     OW 5702   1.957  14.087   5.284
 1288SOL    HW1 5703   2.011  14.012   5.258
 1288SOL    HW2 5704   1.947  14.138   5.203
 1289SOL     OW 5705   9.031   1.959  10.438
 1289SOL    HW1 5706   8.957   2.007  10.475
 1289SOL    HW2 5707   8.997   1.870  10.425
 1290SOL     OW 5708   1.102   9.990   1.494
 1290SOL    HW1 5709   1.048   9.948   1.561
 1290SOL    HW2 5710   1.182   9.938   1.492
 1291SOL     OW 5711  14.792   2.369   5.192
 1291SOL    HW1 5712  14.706   2.409   5.188
 1291SOL    HW2 5713  14.835   2.395   5.110
 1292SOL     OW 5714   3.761   7.477   7.417
 1292SOL    HW1 5715   3.839   7.483   7.361
 1292SOL    HW2 5716   3.788   7.517   7.500
 1293SOL     OW 5717   5.930   5.003   5.849
 1293SOL    HW1 5718   6.007   5.054   5.875
 1293SOL    HW2 5719   5.931   5.007   5.753
 1294SOL     OW 5720  13.490   7.912   0.650
 1294SOL    HW1 5721  13.559   7.846   0.657
 1294SOL    HW2 5722  13.409   7.863   0.665
 1295SOL     OW 5723  13.393   4.453   0.159
 1295SOL    HW1 5724  13.437   4.390   0.103
 1295SOL    HW2 5725  13.333   4.400   0.212
 1296SOL     OW 5726   8.279  11.612   7.445
 1296SOL    HW1 5727   8.365  11.579   7.419
 1296SOL    HW2 5728   8.242  11.649   7.364
 1297SOL     OW 5729   2.214  12.950   0.604
 1297SOL    HW1 5730   2.250  12.898   0.675
 1297SOL    HW2 5731   2.122  12.961   0.626
 1298SOL     OW 5732   9.188  14.525  13.870
 1298SOL    HW1 5733   9.158  14.582  13.799
 1298SOL    HW2 5734   9.217  14.585  13.938
 1299SOL     OW 5735   7.130   4.404   0.108
 1299SOL    HW1 5736   7.115   4.454   0.188
 1299SOL    HW2 5737   7.088   4.455   0.039
 1300SOL     OW 5738   8.655   0.775  13.641
 1300SOL    HW1 5739   8.614   0.718  13.576
 1300SOL    HW2 5740   8.680   0.717  13.712
 1301SOL     OW 5741   2.057   4.221   3.779
 1301SOL    HW1 5742   2.125   4.154   3.786
 1301SOL    HW2 5743   2.099   4.301   3.811
 1302SOL     OW 5744   7.015  11.353   4.489
 1302SOL    HW1 5745   6.968  11.328   4.409
 1302SOL    HW2 5746   7.053  11.271   4.520
 1303SOL     OW 5747  14.277   6.076   7.844
 1303SOL    HW1 5748  14.266   5.997   7.897
 1303SOL    HW2 5749  14.273   6.044   7.754
 1304SOL     OW 5750  10.209   8.031   2.538
 1304SOL    HW1 5751  10.163   8.053   2.457
 1304SOL    HW2 5752  10.139   8.022   2.603
 1305SOL     OW 5753   2.879   4.466   2.133
 1305SOL    HW1 5754   2.931   4.419   2.068
 1305SOL    HW2 5755   2.796   4.484   2.089
 1306SOL     OW 5756  13.241   9.273   1.551
 1306SOL    HW1 5757  13.247   9.184   1.514
 1306SOL    HW2 5758  13.276   9.329   1.482
 1307SOL     OW 5759  14.765   0.629   8.417
 1307SOL    HW1 5760  14.774   0.551   8.472
 1307SOL    HW2 5761  14.819   0.610   8.340
 1308SOL     OW 5762   0.321   6.484   2.942
 1308SOL    HW1 5763   0.412   6.507   2.923
 1308SOL    HW2 5764   0.307   6.400   2.897
 1309SOL     OW 5765   9.877   3.494  12.810
 1309SOL    HW1 5766   9.959   3.481  12.763
 1309SOL    HW2 5767   9.890   3.574  12.860
 1310SOL     OW 5768   6.032  11.339   5.456
 1310SOL    HW1 5769   5.993  11.254   5.478
 1310SOL    HW2 5770   5.958  11.400   5.457
 1311SOL     OW 5771  14.070  14.390   8.803
 1311SOL    HW1 5772  14.109  14.344   8.877
 1311SOL    HW2 5773  14.047  14.321   8.741
 1312SOL     OW 5774   8.947   4.479   5.521
 1312SOL    HW1 5775   8.868   4.445   5.478
 1312SOL    HW2 5776   9.017   4.467   5.457
 1313SOL     OW 5777  13.649  11.986   0.281
 1313SOL    HW1 5778  13.726  12.009   0.334
 1313SOL    HW2 5779  13.575  12.019   0.331
 1314SOL     OW 5780   1.304   2.873  10.075
 1314SOL    HW1 5781   1.258   2.800  10.117
 1314SOL    HW2 5782   1.396   2.860  10.098
 1315SOL     OW 5783  11.057  13.314  12.876
 1315SOL    HW1 5784  11.098  13.242  12.828
 1315SOL    HW2 5785  11.003  13.272  12.943
 1316SOL     OW 5786   5.636   9.749   1.801
 1316SOL    HW1 5787   5.700   9.768   1.869
 1316SOL    HW2 5788   5.680   9.770   1.719
 1317SOL     OW 5789   7.749  12.572  12.560
 1317SOL    HW1 5790   7.815  12.524  12.510
 1317SOL    HW2 5791   7.790  12.587  12.645
 1318SOL     OW 5792   0.078  13.091   6.340
 1318SOL    HW1 5793   0.157  13.079   6.287
 1318SOL    HW2 5794   0.080  13.018   6.402
 1319SOL     OW 5795  11.883   9.669  11.881
 1319SOL    HW1 5796  11.930   9.648  11.800
 1319SOL    HW2 5797  11.791   9.673  11.854
 1320SOL     OW 5798  12.005   6.544   2.093
 1320SOL    HW1 5799  12.060   6.609   2.137
 1320SOL    HW2 5800  11.939   6.597   2.046
 1321SOL     OW 5801   1.184   3.127   7.612
 1321SOL    HW1 5802   1.143   3.210   7.633
 1321SOL    HW2 5803   1.119   3.079   7.561
 1322SOL     OW 5804  10.478   9.662   0.905
 1322SOL    HW1 5805  10.482   9.661   0.809
 1322SOL    HW2 5806  10.554   9.715   0.931
 1323SOL     OW 5807   8.858   5.334   2.173
 1323SOL    HW1 5808   8.888   5.374   2.091
 1323SOL    HW2 5809   8.811   5.255   2.145
 1324SOL     OW 5810   2.010   6.763   9.651
 1324SOL    HW1 5811   2.003   6.858   9.661
 1324SOL    HW2 5812   2.046   6.732   9.734
 1325SOL     OW 5813   0.992   0.754   9.189
 1325SOL    HW1 5814   0.941   0.763   9.109
 1325SOL    HW2 5815   1.045   0.834   9.193
 1326SOL     OW 5816  10.270   0.475   2.070
 1326SOL    HW1 5817  10.204   0.511   2.129
 1326SOL    HW2 5818  10.328   0.425   2.126
 1327SOL     OW 5819   6.910  12.545  10.083
 1327SOL    HW1 5820   6.854  12.477  10.047
 1327SOL    HW2 5821   6.999  12.513  10.068
 1328SOL     OW 5822   2.335   5.731   9.244
 1328SOL    HW1 5823   2.376   5.726   9.158
 1328SOL    HW2 5824   2.251   5.774   9.229
 1329SOL     OW 5825   8.017   4.146   3.905
 1329SOL    HW1 5826   7.929   4.147   3.942
 1329SOL    HW2 5827   8.003   4.135   3.811
 1330SOL     OW 5828   8.531   4.235   2.180
 1330SOL    HW1 5829   8.459   4.229   2.243
 1330SOL    HW2 5830   8.549   4.145   2.155
 1331SOL     OW 5831   6.659   1.087   1.843
 1331SOL    HW1 5832   6.672   0.992   1.839
 1331SOL    HW2 5833   6.594   1.099   1.913
 1332SOL     OW 5834   9.064   1.894  11.418
 1332SOL    HW1 5835   9.002   1.966  11.412
 1332SOL    HW2 5836   9.139   1.921  11.364
 1333SOL     OW 5837   8.770  10.206  10.132
 1333SOL    HW1 5838   8.764  10.140  10.200
 1333SOL    HW2 5839   8.804  10.159  10.056
 1334SOL     OW 5840   9.195   5.957   8.509
 1334SOL    HW1 5841   9.121   5.897   8.496
 1334SOL    HW2 5842   9.157   6.044   8.500
 1335SOL     OW 5843  14.283  13.187   3.892
 1335SOL    HW1 5844  14.329  13.269   3.908
 1335SOL    HW2 5845  14.320  13.155   3.809
 1336SOL     OW 5846   4.525   2.580   4.694
 1336SOL    HW1 5847   4.515   2.487   4.712
 1336SOL    HW2 5848   4.521   2.587   4.598
 1337SOL     OW 5849   5.498  11.069   1.812
 1337SOL    HW1 5850   5.424  11.112   1.768
 1337SOL    HW2 5851   5.492  10.977   1.785
 1338SOL     OW 5852  14.290   8.760   5.172
 1338SOL    HW1 5853  14.311   8.787   5.082
 1338SOL    HW2 5854  14.258   8.670   5.163
 1339SOL     OW 5855   9.025   1.790   4.181
 1339SOL    HW1 5856   9.045   1.743   4.262
 1339SOL    HW2 5857   9.025   1.882   4.206
 1340SOL     OW 5858   1.387  11.229  13.709
 1340SOL    HW1 5859   1.473  11.270  13.720
 1340SOL    HW2 5860   1.354  11.219  13.799
 1341SOL     OW 5861  13.256  13.696   4.696
 1341SOL    HW1 5862  13.262  13.621   4.636
 1341SOL    HW2 5863  13.162  13.707   4.711
 1342SOL     OW 5864  11.973   7.547  14.116
 1342SOL    HW1 5865  11.900   7.606  14.139
 1342SOL    HW2 5866  12.048   7.605  14.105
 1343SOL     OW 5867   8.511   1.787  13.337
 1343SOL    HW1 5868   8.539   1.784  13.428
 1343SOL    HW2 5869   8.484   1.878  13.324
 1344SOL     OW 5870   6.099   6.418  11.828
 1344SOL    HW1 5871   6.064   6.457  11.908
 1344SOL    HW2 5872   6.149   6.489  11.787
 1345SOL     OW 5873  14.086   5.228   1.713
 1345SOL    HW1 5874  13.996   5.257   1.727
 1345SOL    HW2 5875  14.135   5.263   1.788
 1346SOL     OW 5876   8.068  10.322  12.484
 1346SOL    HW1 5877   8.129  10.294  12.552
 1346SOL    HW2 5878   8.117  10.311  12.402
 1347SOL     OW 5879   8.958   3.162   0.505
 1347SOL    HW1 5880   8.918   3.079   0.532
 1347SOL    HW2 5881   8.902   3.194   0.434
 1348SOL     OW 5882   6.660  12.686   4.581
 1348SOL    HW1 5883   6.617  12.675   4.496
 1348SOL    HW2 5884   6.699  12.773   4.577
 1349SOL     OW 5885   3.201   5.232   7.727
 1349SOL    HW1 5886   3.133   5.278   7.677
 1349SOL    HW2 5887   3.175   5.140   7.722
 1350SOL     OW 5888  12.260  14.485   5.140
 1350SOL    HW1 5889  12.292  14.472   5.229
 1350SOL    HW2 5890  12.222  14.573   5.141
 1351SOL     OW 5891   7.648   7.984   1.206
 1351SOL    HW1 5892   7.577   8.048   1.198
 1351SOL    HW2 5893   7.715   8.014   1.145
 1352SOL     OW 5894   2.332  13.697  14.463
 1352SOL    HW1 5895   2.248  13.660  14.491
 1352SOL    HW2 5896   2.356  13.757  14.533
 1353SOL     OW 5897   9.368   0.768   6.427
 1353SOL    HW1 5898   9.450   0.720   6.438
 1353SOL    HW2 5899   9.391   0.859   6.446
 1354SOL     OW 5900   1.767  11.618   9.727
 1354SOL    HW1 5901   1.685  11.668   9.728
 1354SOL    HW2 5902   1.834  11.681   9.755
 1355SOL     OW 5903   2.952   5.327   3.267
 1355SOL    HW1 5904   2.985   5.417   3.274
 1355SOL    HW2 5905   2.857   5.337   3.274
 1356SOL     OW 5906   7.458  11.977   6.883
 1356SOL    HW1 5907   7.398  12.046   6.855
 1356SOL    HW2 5908   7.545  12.010   6.860
 1357SOL     OW 5909   1.930   4.287   9.061
 1357SOL    HW1 5910   1.930   4.192   9.076
 1357SOL    HW2 5911   1.975   4.298   8.977
 1358SOL     OW 5912  12.827   3.876   5.010
 1358SOL    HW1 5913  12.737   3.898   4.984
 1358SOL    HW2 5914  12.882   3.920   4.945
 1359SOL     OW 5915   3.837  13.694   1.507
 1359SOL    HW1 5916   3.887  13.740   1.575
 1359SOL    HW2 5917   3.772  13.643   1.555
 1360SOL     OW 5918   8.292   9.022   6.622
 1360SOL    HW1 5919   8.267   9.112   6.600
 1360SOL    HW2 5920   8.258   9.008   6.710
 1361SOL     OW 5921  12.997   9.018  13.777
 1361SOL    HW1 5922  12.922   9.053  13.729
 1361SOL    HW2 5923  13.039   9.095  13.815
 1362SOL     OW 5924   9.143   1.339  11.548
 1362SOL    HW1 5925   9.209   1.291  11.597
 1362SOL    HW2 5926   9.095   1.389  11.614
 1363SOL     OW 5927   4.651   3.601  13.730
 1363SOL    HW1 5928   4.603   3.642  13.802
 1363SOL    HW2 5929   4.729   3.656  13.719
 1364SOL     OW 5930   0.120  11.478   5.722
 1364SOL    HW1 5931   0.168  11.517   5.795
 1364SOL    HW2 5932   0.115  11.548   5.656
 1365SOL     OW 5933   7.436  14.867   0.340
 1365SOL    HW1 5934   7.411  14.852   0.249
 1365SOL    HW2 5935   7.374   0.059   0.372
 1366SOL     OW 5936   0.284  10.193  13.237
 1366SOL    HW1 5937   0.294  10.116  13.181
 1366SOL    HW2 5938   0.335  10.261  13.194
 1367SOL     OW 5939   6.540   2.972   3.617
 1367SOL    HW1 5940   6.493   2.896   3.583
 1367SOL    HW2 5941   6.471   3.030   3.650
 1368SOL     OW 5942   6.840  14.080   0.227
 1368SOL    HW1 5943   6.749  14.093   0.253
 1368SOL    HW2 5944   6.859  13.989   0.251
 1369SOL     OW 5945   7.154   0.786   4.854
 1369SOL    HW1 5946   7.063   0.817   4.848
 1369SOL    HW2 5947   7.169   0.776   4.948
 1370SOL     OW 5948  13.123   1.744   5.273
 1370SOL    HW1 5949  13.185   1.725   5.202
 1370SOL    HW2 5950  13.044   1.772   5.228
 1371SOL     OW 5951   9.933   7.144   3.668
 1371SOL    HW1 5952   9.942   7.071   3.729
 1371SOL    HW2 5953   9.954   7.222   3.720
 1372SOL     OW 5954   3.565   0.870  12.734
 1372SOL    HW1 5955   3.627   0.938  12.706
 1372SOL    HW2 5956   3.615   0.789  12.730
 1373SOL     OW 5957  13.248  12.095   3.765
 1373SOL    HW1 5958  13.202  12.031   3.819
 1373SOL    HW2 5959  13.187  12.113   3.693
 1374SOL     OW 5960   7.542   6.131  10.541
 1374SOL    HW1 5961   7.606   6.178  10.594
 1374SOL    HW2 5962   7.582   6.125  10.455
 1375SOL     OW 5963   8.738   7.879   3.599
 1375SOL    HW1 5964   8.776   7.835   3.675
 1375SOL    HW2 5965   8.683   7.947   3.636
 1376SOL     OW 5966  14.364   6.266   1.535
 1376SOL    HW1 5967  14.394   6.265   1.444
 1376SOL    HW2 5968  14.316   6.185   1.545
 1377SOL     OW 5969   3.596   9.743   8.998
 1377SOL    HW1 5970   3.655   9.747   9.073
 1377SOL    HW2 5971   3.512   9.775   9.031
 1378SOL     OW 5972  11.514  11.247  11.582
 1378SOL    HW1 5973  11.573  11.221  11.652
 1378SOL    HW2 5974  11.477  11.165  11.549
 1379SOL     OW 5975  14.710  12.070   4.688
 1379SOL    HW1 5976  14.659  12.021   4.752
 1379SOL    HW2 5977  14.666  12.054   4.604
 1380SOL     OW 5978  10.475   9.166   2.598
 1380SOL    HW1 5979  10.538   9.187   2.668
 1380SOL    HW2 5980  10.487   9.073   2.582
 1381SOL     OW 5981   1.311  10.315   6.915
 1381SOL    HW1 5982   1.364  10.394   6.929
 1381SOL    HW2 5983   1.314  10.300   6.821
 1382SOL     OW 5984  10.782   4.659  10.874
 1382SOL    HW1 5985  10.795   4.701  10.789
 1382SOL    HW2 5986  10.736   4.578  10.854
 1383SOL     OW 5987  10.553  13.835  14.292
 1383SOL    HW1 5988  10.614  13.800  14.357
 1383SOL    HW2 5989  10.570  13.929  14.291
 1384SOL     OW 5990  14.673   9.900  14.074
 1384SOL    HW1 5991  14.685   9.827  14.013
 1384SOL    HW2 5992  14.590   9.940  14.047
 1385SOL     OW 5993   8.694   2.638   9.948
 1385SOL    HW1 5994   8.606   2.670   9.967
 1385SOL    HW2 5995   8.682   2.546   9.925
 1386SOL     OW 5996   1.072   1.557   6.885
 1386SOL    HW1 5997   1.084   1.600   6.800
 1386SOL    HW2 5998   1.117   1.474   6.877
 1387SOL     OW 5999  14.007  10.555   2.327
 1387SOL    HW1 6000  13.926  10.597   2.297
 1387SOL    HW2 6001  14.017  10.479   2.269
 1388SOL     OW 6002   7.960   4.738   9.643
 1388SOL    HW1 6003   7.886   4.798   9.645
 1388SOL    HW2 6004   8.002   4.749   9.729
 1389SOL     OW 6005  13.068   4.570   0.150
 1389SOL    HW1 6006  13.109   4.528   0.074
 1389SOL    HW2 6007  13.136   4.624   0.189
 1390SOL     OW 6008   5.947  13.816   0.703
 1390SOL    HW1 6009   5.921  13.866   0.780
 1390SOL    HW2 6010   5.896  13.736   0.708
 1391SOL     OW 6011   1.241   5.877   4.543
 1391SOL    HW1 6012   1.219   5.856   4.452
 1391SOL    HW2 6013   1.211   5.967   4.555
 1392SOL     OW 6014   4.020   3.673   8.908
 1392SOL    HW1 6015   4.041   3.761   8.941
 1392SOL    HW2 6016   4.066   3.614   8.967
 1393SOL     OW 6017  10.511  11.260  10.899
 1393SOL    HW1 6018  10.540  11.340  10.942
 1393SOL    HW2 6019  10.436  11.287  10.846
 1394SOL     OW 6020  14.098  14.650   8.714
 1394SOL    HW1 6021  14.044  14.581   8.752
 1394SOL    HW2 6022  14.186  14.632   8.745
 1395SOL     OW 6023   7.466   1.587   7.605
 1395SOL    HW1 6024   7.535   1.632   7.556
 1395SOL    HW2 6025   7.482   1.612   7.697
 1396SOL     OW 6026   8.207   7.776   7.739
 1396SOL    HW1 6027   8.274   7.845   7.734
 1396SOL    HW2 6028   8.147   7.807   7.807
 1397SOL     OW 6029   6.936   4.316  11.039
 1397SOL    HW1 6030   6.916   4.247  10.977
 1397SOL    HW2 6031   7.022   4.349  11.011
 1398SOL     OW 6032   2.724   0.708   3.143
 1398SOL    HW1 6033   2.752   0.755   3.222
 1398SOL    HW2 6034   2.806   0.685   3.100
 1399SOL     OW 6035   5.165  13.648   3.977
 1399SOL    HW1 6036   5.241  13.627   4.031
 1399SOL    HW2 6037   5.091  13.642   4.038
 1400SOL     OW 6038  11.190  14.769  10.451
 1400SOL    HW1 6039  11.185  14.687  10.401
 1400SOL    HW2 6040  11.108  14.773  10.499
 1401SOL     OW 6041   8.370   6.920  11.481
 1401SOL    HW1 6042   8.345   7.009  11.506
 1401SOL    HW2 6043   8.306   6.864  11.525
 1402SOL     OW 6044   7.697   0.176   2.581
 1402SOL    HW1 6045   7.757   0.189   2.654
 1402SOL    HW2 6046   7.634   0.249   2.589
 1403SOL     OW 6047   9.254  11.040   3.177
 1403SOL    HW1 6048   9.180  11.080   3.132
 1403SOL    HW2 6049   9.218  11.012   3.261
 1404SOL     OW 6050   6.349   7.186  11.475
 1404SOL    HW1 6051   6.379   7.277  11.476
 1404SOL    HW2 6052   6.430   7.134  11.479
 1405SOL     OW 6053  10.254   2.727   7.300
 1405SOL    HW1 6054  10.190   2.765   7.360
 1405SOL    HW2 6055  10.312   2.800   7.277
 1406SOL     OW 6056  11.254   2.720  10.316
 1406SOL    HW1 6057  11.193   2.652  10.286
 1406SOL    HW2 6058  11.293   2.684  10.395
 1407SOL     OW 6059   2.693  14.809   8.933
 1407SOL    HW1 6060   2.672  14.782   8.844
 1407SOL    HW2 6061   2.764  14.751   8.960
 1408SOL     OW 6062   6.357   1.871  13.931
 1408SOL    HW1 6063   6.346   1.778  13.910
 1408SOL    HW2 6064   6.328   1.879  14.021
 1409SOL     OW 6065   8.300   6.085  11.554
 1409SOL    HW1 6066   8.325   6.166  11.510
 1409SOL    HW2 6067   8.230   6.049  11.500
 1410SOL     OW 6068  11.185  11.045   2.218
 1410SOL    HW1 6069  11.227  11.056   2.303
 1410SOL    HW2 6070  11.094  11.025   2.238
 1411SOL     OW 6071   6.951   0.406  11.531
 1411SOL    HW1 6072   6.999   0.362  11.461
 1411SOL    HW2 6073   7.018   0.452  11.582
 1412SOL     OW 6074   7.342  14.441   0.118
 1412SOL    HW1 6075   7.253  14.414   0.141
 1412SOL    HW2 6076   7.365  14.387   0.041
 1413SOL     OW 6077   3.568  10.076   1.799
 1413SOL    HW1 6078   3.530  10.071   1.712
 1413SOL    HW2 6079   3.500  10.041   1.857
 1414SOL     OW 6080   7.263   3.471   2.557
 1414SOL    HW1 6081   7.284   3.498   2.468
 1414SOL    HW2 6082   7.201   3.399   2.546
 1415SOL     OW 6083   2.951   7.079   3.682
 1415SOL    HW1 6084   2.958   6.984   3.675
 1415SOL    HW2 6085   3.033   7.113   3.647
 1416SOL     OW 6086   2.473   8.414   1.950
 1416SOL    HW1 6087   2.473   8.463   1.869
 1416SOL    HW2 6088   2.501   8.326   1.925
 1417SOL     OW 6089  12.176   1.840   0.011
 1417SOL    HW1 6090  12.261   1.830   0.056
 1417SOL    HW2 6091  12.111   1.831   0.081
 1418SOL     OW 6092   8.813   3.090   5.303
 1418SOL    HW1 6093   8.750   3.081   5.375
 1418SOL    HW2 6094   8.767   3.142   5.237
 1419SOL     OW 6095  11.367   1.788   0.305
 1419SOL    HW1 6096  11.290   1.828   0.347
 1419SOL    HW2 6097  11.436   1.797   0.370
 1420SOL     OW 6098   1.437   5.804   5.212
 1420SOL    HW1 6099   1.496   5.814   5.137
 1420SOL    HW2 6100   1.493   5.819   5.288
 1421SOL     OW 6101   4.083  13.926   6.584
 1421SOL    HW1 6102   4.004  13.936   6.638
 1421SOL    HW2 6103   4.155  13.928   6.647
 1422SOL     OW 6104   3.431   0.952  14.436
 1422SOL    HW1 6105   3.423   0.871  14.487
 1422SOL    HW2 6106   3.382   1.017  14.486
 1423SOL     OW 6107   1.470   2.366  13.335
 1423SOL    HW1 6108   1.497   2.275  13.335
 1423SOL    HW2 6109   1.419   2.377  13.255
 1424SOL     OW 6110   6.422  11.929  12.588
 1424SOL    HW1 6111   6.503  11.879  12.580
 1424SOL    HW2 6112   6.369  11.901  12.513
 1425SOL     OW 6113   3.296   0.995   4.418
 1425SOL    HW1 6114   3.335   1.075   4.454
 1425SOL    HW2 6115   3.261   0.949   4.494
 1426SOL     OW 6116   0.409   6.268   7.361
 1426SOL    HW1 6117   0.382   6.360   7.364
 1426SOL    HW2 6118   0.405   6.238   7.452
 1427SOL     OW 6119   5.627  10.600  14.857
 1427SOL    HW1 6120   5.538  10.628   0.007
 1427SOL    HW2 6121   5.625  10.595  14.761
 1428SOL     OW 6122   6.175   1.179   1.298
 1428SOL    HW1 6123   6.133   1.264   1.309
 1428SOL    HW2 6124   6.198   1.151   1.386
 1429SOL     OW 6125   0.109  14.598   0.977
 1429SOL    HW1 6126   0.054  14.530   1.017
 1429SOL    HW2 6127   0.122  14.569   0.887
 1430SOL     OW 6128   2.368   0.379  13.666
 1430SOL    HW1 6129   2.382   0.430  13.746
 1430SOL    HW2 6130   2.384   0.441  13.595
 1431SOL     OW 6131   8.788   9.141   0.884
 1431SOL    HW1 6132   8.752   9.218   0.928
 1431SOL    HW2 6133   8.734   9.133   0.805
 1432SOL     OW 6134  13.152   2.221   2.770
 1432SOL    HW1 6135  13.107   2.306   2.776
 1432SOL    HW2 6136  13.087   2.158   2.803
 1433SOL     OW 6137   7.696   8.804   8.173
 1433SOL    HW1 6138   7.772   8.861   8.186
 1433SOL    HW2 6139   7.669   8.821   8.082
 1434SOL     OW 6140  12.394   7.022   1.663
 1434SOL    HW1 6141  12.468   7.081   1.671
 1434SOL    HW2 6142  12.324   7.076   1.625
 1435SOL     OW 6143   1.540   9.068   5.286
 1435SOL    HW1 6144   1.476   9.072   5.215
 1435SOL    HW2 6145   1.526   8.982   5.326
 1436SOL     OW 6146   3.641   2.037  10.911
 1436SOL    HW1 6147   3.715   1.978  10.926
 1436SOL    HW2 6148   3.568   1.980  10.890
 1437SOL     OW 6149   1.780  11.692   1.787
 1437SOL    HW1 6150   1.729  11.613   1.806
 1437SOL    HW2 6151   1.861  11.660   1.748
 1438SOL     OW 6152   2.007   1.948  12.274
 1438SOL    HW1 6153   2.027   2.032  12.317
 1438SOL    HW2 6154   2.071   1.887  12.309
 1439SOL     OW 6155   2.448   8.483   9.348
 1439SOL    HW1 6156   2.523   8.427   9.366
 1439SOL    HW2 6157   2.380   8.453   9.407
 1440SOL     OW 6158   0.187  14.515   1.834
 1440SOL    HW1 6159   0.242  14.438   1.847
 1440SOL    HW2 6160   0.242  14.576   1.785
 1441SOL     OW 6161  10.013  12.689   7.549
 1441SOL    HW1 6162   9.942  12.725   7.603
 1441SOL    HW2 6163  10.093  12.726   7.587
 1442SOL     OW 6164   0.694   0.225  12.532
 1442SOL    HW1 6165   0.736   0.269  12.606
 1442SOL    HW2 6166   0.741   0.142  12.524
 1443SOL     OW 6167   6.355   2.868   8.009
 1443SOL    HW1 6168   6.399   2.950   7.985
 1443SOL    HW2 6169   6.365   2.811   7.933
 1444SOL     OW 6170   8.654   6.473   0.879
 1444SOL    HW1 6171   8.606   6.537   0.931
 1444SOL    HW2 6172   8.737   6.517   0.859
 1445SOL     OW 6173   1.438  10.897   8.077
 1445SOL    HW1 6174   1.499  10.963   8.042
 1445SOL    HW2 6175   1.466  10.884   8.167
 1446SOL     OW 6176   4.370   5.357  12.762
 1446SOL    HW1 6177   4.350   5.423  12.827
 1446SOL    HW2 6178   4.462   5.370  12.740
 1447SOL     OW 6179  13.665   9.460  13.962
 1447SOL    HW1 6180  13.760   9.448  13.961
 1447SOL    HW2 6181  13.650   9.530  14.026
 1448SOL     OW 6182   5.591   0.391  11.478
 1448SOL    HW1 6183   5.678   0.414  11.446
 1448SOL    HW2 6184   5.603   0.380  11.573
 1449SOL     OW 6185   2.614   5.700  12.807
 1449SOL    HW1 6186   2.550   5.704  12.878
 1449SOL    HW2 6187   2.570   5.737  12.732
 1450SOL     OW 6188   6.988   2.937   3.502
 1450SOL    HW1 6189   6.893   2.941   3.491
 1450SOL    HW2 6190   7.005   2.847   3.529
 1451SOL     OW 6191   8.196   9.741  11.657
 1451SOL    HW1 6192   8.219   9.659  11.701
 1451SOL    HW2 6193   8.159   9.714  11.573
 1452SOL     OW 6194  13.280  11.493   8.183
 1452SOL    HW1 6195  13.302  11.569   8.129
 1452SOL    HW2 6196  13.356  11.481   8.240
 1453SOL     OW 6197   8.760  10.171   4.187
 1453SOL    HW1 6198   8.760  10.122   4.105
 1453SOL    HW2 6199   8.698  10.125   4.242
 1454SOL     OW 6200  13.489  13.748   4.046
 1454SOL    HW1 6201  13.436  13.823   4.017
 1454SOL    HW2 6202  13.530  13.716   3.965
 1455SOL     OW 6203   7.588   7.642  13.095
 1455SOL    HW1 6204   7.643   7.699  13.149
 1455SOL    HW2 6205   7.614   7.662  13.005
 1456SOL     OW 6206   6.237  12.084   0.514
 1456SOL    HW1 6207   6.226  12.144   0.587
 1456SOL    HW2 6208   6.329  12.093   0.488
 1457SOL     OW 6209   7.671  14.224   6.754
 1457SOL    HW1 6210   7.758  14.248   6.787
 1457SOL    HW2 6211   7.633  14.307   6.726
 1458SOL     OW 6212   8.708   9.545   2.952
 1458SOL    HW1 6213   8.751   9.575   2.872
 1458SOL    HW2 6214   8.630   9.600   2.959
 1459SOL     OW 6215   7.144   9.137   0.657
 1459SOL    HW1 6216   7.231   9.169   0.678
 1459SOL    HW2 6217   7.086   9.213   0.673
 1460SOL     OW 6218   7.884  12.092  10.579
 1460SOL    HW1 6219   7.924  12.094  10.492
 1460SOL    HW2 6220   7.948  12.045  10.633
 1461SOL     OW 6221   0.470  13.718   2.319
 1461SOL    HW1 6222   0.436  13.737   2.406
 1461SOL    HW2 6223   0.516  13.634   2.329
 1462SOL     OW 6224   0.881   3.544   3.421
 1462SOL    HW1 6225   0.972   3.516   3.433
 1462SOL    HW2 6226   0.838   3.470   3.379
 1463SOL     OW 6227   2.179   9.920   1.599
 1463SOL    HW1 6228   2.247   9.856   1.621
 1463SOL    HW2 6229   2.146   9.892   1.514
 1464SOL     OW 6230  10.168   2.574  13.211
 1464SOL    HW1 6231  10.090   2.628  13.222
 1464SOL    HW2 6232  10.188   2.542  13.298
 1465SOL     OW 6233   6.122  11.674   7.008
 1465SOL    HW1 6234   6.129  11.718   6.923
 1465SOL    HW2 6235   6.196  11.613   7.010
 1466SOL     OW 6236  10.818   7.988   3.265
 1466SOL    HW1 6237  10.803   7.895   3.281
 1466SOL    HW2 6238  10.736   8.030   3.290
 1467SOL     OW 6239   6.974   9.340   6.655
 1467SOL    HW1 6240   6.899   9.398   6.645
 1467SOL    HW2 6241   7.023   9.349   6.573
 1468SOL     OW 6242   6.078  11.912  11.030
 1468SOL    HW1 6243   6.033  11.835  10.996
 1468SOL    HW2 6244   6.171  11.893  11.017
 1469SOL     OW 6245   3.059  12.655   8.085
 1469SOL    HW1 6246   2.977  12.647   8.036
 1469SOL    HW2 6247   3.081  12.566   8.111
 1470SOL     OW 6248   9.037  10.198   7.796
 1470SOL    HW1 6249   9.023  10.105   7.814
 1470SOL    HW2 6250   8.970  10.243   7.848
 1471SOL     OW 6251  12.722   2.787   9.899
 1471SOL    HW1 6252  12.707   2.805   9.806
 1471SOL    HW2 6253  12.652   2.834   9.944
 1472SOL     OW 6254   2.187  10.150  12.594
 1472SOL    HW1 6255   2.151  10.062  12.598
 1472SOL    HW2 6256   2.126  10.199  12.539
 1473SOL     OW 6257   5.098  10.845   7.770
 1473SOL    HW1 6258   5.194  10.848   7.767
 1473SOL    HW2 6259   5.077  10.827   7.861
 1474SOL     OW 6260  10.158   8.631  14.010
 1474SOL    HW1 6261  10.243   8.628  14.054
 1474SOL    HW2 6262  10.135   8.724  14.010
 1475SOL     OW 6263   9.830   8.934   8.036
 1475SOL    HW1 6264   9.782   8.971   8.109
 1475SOL    HW2 6265   9.780   8.958   7.958
 1476SOL     OW 6266   7.121  11.321  14.831
 1476SOL    HW1 6267   7.034  11.298  14.861
 1476SOL    HW2 6268   7.115  11.318  14.735
 1477SOL     OW 6269   4.119   1.150   2.453
 1477SOL    HW1 6270   4.171   1.132   2.374
 1477SOL    HW2 6271   4.166   1.220   2.498
 1478SOL     OW 6272   6.524  14.187   7.278
 1478SOL    HW1 6273   6.552  14.263   7.227
 1478SOL    HW2 6274   6.601  14.164   7.331
 1479SOL     OW 6275  13.362   5.748   6.216
 1479SOL    HW1 6276  13.405   5.833   6.218
 1479SOL    HW2 6277  13.375   5.712   6.303
 1480SOL     OW 6278   0.712   5.451  11.238
 1480SOL    HW1 6279   0.649   5.436  11.167
 1480SOL    HW2 6280   0.789   5.400  11.213
 1481SOL     OW 6281   8.805  11.737   9.592
 1481SOL    HW1 6282   8.830  11.700   9.677
 1481SOL    HW2 6283   8.889  11.758   9.550
 1482SOL     OW 6284   6.460  13.014   1.906
 1482SOL    HW1 6285   6.485  12.994   1.996
 1482SOL    HW2 6286   6.366  12.994   1.902
 1483SOL     OW 6287   9.261  13.390   6.244
 1483SOL    HW1 6288   9.305  13.371   6.327
 1483SOL    HW2 6289   9.303  13.332   6.180
 1484SOL     OW 6290   8.180  14.344  14.421
 1484SOL    HW1 6291   8.145  14.366  14.335
 1484SOL    HW2 6292   8.246  14.277  14.403
 1485SOL     OW 6293  10.062   7.371   6.648
 1485SOL    HW1 6294  10.103   7.344   6.730
 1485SOL    HW2 6295   9.981   7.415   6.674
 1486SOL     OW 6296   6.029  14.169   6.604
 1486SOL    HW1 6297   6.107  14.124   6.636
 1486SOL    HW2 6298   5.968  14.099   6.581
 1487SOL     OW 6299   5.751   9.176  13.791
 1487SOL    HW1 6300   5.785   9.242  13.730
 1487SOL    HW2 6301   5.774   9.092  13.751
 1488SOL     OW 6302  10.129   7.679  13.494
 1488SOL    HW1 6303  10.194   7.710  13.430
 1488SOL    HW2 6304  10.129   7.584  13.484
 1489SOL     OW 6305  10.230   7.523   3.947
 1489SOL    HW1 6306  10.167   7.571   3.894
 1489SOL    HW2 6307  10.314   7.567   3.931
 1490SOL     OW 6308   4.258   9.531  12.067
 1490SOL    HW1 6309   4.169   9.540  12.032
 1490SOL    HW2 6310   4.285   9.620  12.088
 1491SOL     OW 6311   8.043   5.541   2.033
 1491SOL    HW1 6312   8.076   5.479   1.968
 1491SOL    HW2 6313   8.109   5.611   2.035
 1492SOL     OW 6314   1.105   4.962   9.126
 1492SOL    HW1 6315   1.054   4.995   9.052
 1492SOL    HW2 6316   1.057   4.885   9.156
 1493SOL     OW 6317   7.676   5.602   4.031
 1493SOL    HW1 6318   7.679   5.507   4.039
 1493SOL    HW2 6319   7.768   5.629   4.032
 1494SOL     OW 6320  12.283   8.567   7.623
 1494SOL    HW1 6321  12.209   8.525   7.580
 1494SOL    HW2 6322  12.347   8.497   7.634
 1495SOL     OW 6323   6.029   6.703  13.305
 1495SOL    HW1 6324   5.943   6.740  13.324
 1495SOL    HW2 6325   6.067   6.686  13.392
 1496SOL     OW 6326   2.425  14.460  14.793
 1496SOL    HW1 6327   2.444  14.369  14.817
 1496SOL    HW2 6328   2.396  14.501   0.001
 1497SOL     OW 6329   5.918  13.679   8.219
 1497SOL    HW1 6330   5.996  13.641   8.179
 1497SOL    HW2 6331   5.867  13.604   8.248
 1498SOL     OW 6332   0.272  10.878   9.152
 1498SOL    HW1 6333   0.351  10.898   9.101
 1498SOL    HW2 6334   0.263  10.952   9.212
 1499SOL     OW 6335   0.724   8.627  10.759
 1499SOL    HW1 6336   0.679   8.557  10.807
 1499SOL    HW2 6337   0.808   8.637  10.805
 1500SOL     OW 6338   5.054  13.232  10.262
 1500SOL    HW1 6339   5.015  13.167  10.204
 1500SOL    HW2 6340   5.037  13.199  10.351
 1501SOL     OW 6341  13.829  13.925   2.676
 1501SOL    HW1 6342  13.810  13.862   2.607
 1501SOL    HW2 6343  13.767  13.996   2.662
 1502SOL     OW 6344  12.335   9.400   5.145
 1502SOL    HW1 6345  12.354   9.493   5.131
 1502SOL    HW2 6346  12.240   9.396   5.155
 1503SOL     OW 6347   6.291  12.701  13.837
 1503SOL    HW1 6348   6.348  12.753  13.893
 1503SOL    HW2 6349   6.233  12.655  13.898
 1504SOL     OW 6350  10.491   6.788   4.718
 1504SOL    HW1 6351  10.422   6.745   4.668
 1504SOL    HW2 6352  10.482   6.753   4.806
 1505SOL     OW 6353   1.565  14.734   2.664
 1505SOL    HW1 6354   1.595  14.708   2.751
 1505SOL    HW2 6355   1.644  14.759   2.617
 1506SOL     OW 6356  12.917  13.470   4.284
 1506SOL    HW1 6357  12.881  13.492   4.198
 1506SOL    HW2 6358  12.902  13.376   4.293
 1507SOL     OW 6359  12.410   9.056  12.380
 1507SOL    HW1 6360  12.442   9.146  12.386
 1507SOL    HW2 6361  12.404   9.027  12.471
 1508SOL     OW 6362  12.627  13.883   9.968
 1508SOL    HW1 6363  12.668  13.916   9.888
 1508SOL    HW2 6364  12.533  13.883   9.949
 1509SOL     OW 6365   8.248  14.801   9.539
 1509SOL    HW1 6366   8.245  14.714   9.501
 1509SOL    HW2 6367   8.219  14.859   9.468
 1510SOL     OW 6368   5.541  14.392  14.493
 1510SOL    HW1 6369   5.538  14.487  14.484
 1510SOL    HW2 6370   5.500  14.359  14.413
 1511SOL     OW 6371  11.908   7.485   9.316
 1511SOL    HW1 6372  11.821   7.513   9.346
 1511SOL    HW2 6373  11.955   7.567   9.300
 1512SOL     OW 6374  10.684   4.936   2.130
 1512SOL    HW1 6375  10.659   4.933   2.222
 1512SOL    HW2 6376  10.602   4.923   2.082
 1513SOL     OW 6377   6.751   0.371   9.971
 1513SOL    HW1 6378   6.762   0.282  10.001
 1513SOL    HW2 6379   6.682   0.407  10.027
 1514SOL     OW 6380  10.567  12.290  10.815
 1514SOL    HW1 6381  10.526  12.210  10.781
 1514SOL    HW2 6382  10.553  12.355  10.747
 1515SOL     OW 6383   2.791   9.675   5.156
 1515SOL    HW1 6384   2.703   9.649   5.184
 1515SOL    HW2 6385   2.850   9.636   5.220
 1516SOL     OW 6386  13.287   8.345   7.733
 1516SOL    HW1 6387  13.257   8.269   7.783
 1516SOL    HW2 6388  13.206   8.386   7.700
 1517SOL     OW 6389   5.265   3.158  14.484
 1517SOL    HW1 6390   5.212   3.171  14.406
 1517SOL    HW2 6391   5.335   3.099  14.456
 1518SOL     OW 6392   8.331   0.329   3.999
 1518SOL    HW1 6393   8.403   0.303   4.055
 1518SOL    HW2 6394   8.310   0.419   4.027
 1519SOL     OW 6395  14.056   7.861  11.568
 1519SOL    HW1 6396  14.094   7.825  11.488
 1519SOL    HW2 6397  14.054   7.956  11.553
 1520SOL     OW 6398   0.816  14.128   3.700
 1520SOL    HW1 6399   0.905  14.146   3.730
 1520SOL    HW2 6400   0.818  14.037   3.672
 1521SOL     OW 6401   1.579   2.901   5.069
 1521SOL    HW1 6402   1.674   2.908   5.080
 1521SOL    HW2 6403   1.564   2.926   4.977
 1522SOL     OW 6404   5.900   4.082   0.503
 1522SOL    HW1 6405   5.846   4.048   0.574
 1522SOL    HW2 6406   5.990   4.062   0.529
 1523SOL     OW 6407   1.091   4.471  12.484
 1523SOL    HW1 6408   1.158   4.448  12.420
 1523SOL    HW2 6409   1.012   4.486  12.432
 1524SOL     OW 6410   7.580  10.142   3.378
 1524SOL    HW1 6411   7.593  10.103   3.292
 1524SOL    HW2 6412   7.524  10.218   3.362
 1525SOL     OW 6413   2.346  14.210   3.927
 1525SOL    HW1 6414   2.354  14.213   4.023
 1525SOL    HW2 6415   2.256  14.179   3.912
 1526SOL     OW 6416  11.399   3.604  12.319
 1526SOL    HW1 6417  11.412   3.698  12.317
 1526SOL    HW2 6418  11.305   3.592  12.303
 1527SOL     OW 6419  12.917  12.523   8.162
 1527SOL    HW1 6420  12.822  12.521   8.153
 1527SOL    HW2 6421  12.946  12.437   8.131
 1528SOL     OW 6422  11.844   6.422   8.663
 1528SOL    HW1 6423  11.791   6.342   8.671
 1528SOL    HW2 6424  11.873   6.421   8.571
 1529SOL     OW 6425  10.735   5.465   3.732
 1529SOL    HW1 6426  10.648   5.462   3.692
 1529SOL    HW2 6427  10.730   5.537   3.794
 1530SOL     OW 6428   4.380   8.033   7.922
 1530SOL    HW1 6429   4.473   8.051   7.931
 1530SOL    HW2 6430   4.372   7.992   7.836
 1531SOL     OW 6431   9.442  13.957   2.014
 1531SOL    HW1 6432   9.396  14.030   2.056
 1531SOL    HW2 6433   9.423  13.967   1.920
 1532SOL     OW 6434  14.763   9.306   2.431
 1532SOL    HW1 6435  14.760   9.214   2.403
 1532SOL    HW2 6436  14.817   9.305   2.510
 1533SOL     OW 6437   4.896   7.651   6.368
 1533SOL    HW1 6438   4.961   7.721   6.373
 1533SOL    HW2 6439   4.900   7.622   6.277
 1534SOL     OW 6440   6.997  12.138   5.267
 1534SOL    HW1 6441   6.984  12.163   5.175
 1534SOL    HW2 6442   6.921  12.084   5.287
 1535SOL     OW 6443  10.797   3.526   4.514
 1535SOL    HW1 6444  10.735   3.592   4.483
 1535SOL    HW2 6445  10.751   3.480   4.584
 1536SOL     OW 6446   9.886   2.401   7.895
 1536SOL    HW1 6447   9.844   2.382   7.811
 1536SOL    HW2 6448   9.837   2.349   7.959
 1537SOL     OW 6449   1.065  10.255  11.651
 1537SOL    HW1 6450   1.044  10.284  11.740
 1537SOL    HW2 6451   0.990  10.202  11.625
 1538SOL     OW 6452   2.056   5.676  12.509
 1538SOL    HW1 6453   2.017   5.637  12.431
 1538SOL    HW2 6454   2.088   5.762  12.479
 1539SOL     OW 6455  13.820   1.053   5.145
 1539SOL    HW1 6456  13.867   1.029   5.065
 1539SOL    HW2 6457  13.762   0.979   5.162
 1540SOL     OW 6458   5.891  10.952   1.087
 1540SOL    HW1 6459   5.800  10.941   1.060
 1540SOL    HW2 6460   5.924  10.863   1.099
 1541SOL     OW 6461  10.974   7.501  12.434
 1541SOL    HW1 6462  11.048   7.560  12.424
 1541SOL    HW2 6463  10.996   7.449  12.511
 1542SOL     OW 6464  10.742  10.642  14.731
 1542SOL    HW1 6465  10.800  10.704  14.776
 1542SOL    HW2 6466  10.657  10.686  14.729
 1543SOL     OW 6467   8.403   2.049   4.655
 1543SOL    HW1 6468   8.418   2.079   4.745
 1543SOL    HW2 6469   8.473   2.090   4.605
 1544SOL     OW 6470   5.069  12.130   2.994
 1544SOL    HW1 6471   5.153  12.175   2.987
 1544SOL    HW2 6472   5.058  12.116   3.088
 1545SOL     OW 6473   9.406   7.883   0.960
 1545SOL    HW1 6474   9.459   7.959   0.937
 1545SOL    HW2 6475   9.340   7.878   0.891
 1546SOL     OW 6476  12.253  12.241   5.686
 1546SOL    HW1 6477  12.172  12.191   5.673
 1546SOL    HW2 6478  12.292  12.247   5.599
 1547SOL     OW 6479  11.580  13.189   4.012
 1547SOL    HW1 6480  11.516  13.148   3.953
 1547SOL    HW2 6481  11.626  13.252   3.957
 1548SOL     OW 6482  10.236  11.025   2.677
 1548SOL    HW1 6483  10.233  11.026   2.582
 1548SOL    HW2 6484  10.146  11.046   2.704
 1549SOL     OW 6485   5.734   5.246  11.734
 1549SOL    HW1 6486   5.765   5.159  11.710
 1549SOL    HW2 6487   5.746   5.250  11.829
 1550SOL     OW 6488   5.806  12.812  12.125
 1550SOL    HW1 6489   5.860  12.865  12.184
 1550SOL    HW2 6490   5.862  12.798  12.048
 1551SOL     OW 6491   4.677   8.295   0.124
 1551SOL    HW1 6492   4.713   8.370   0.078
 1551SOL    HW2 6493   4.720   8.219   0.085
 1552SOL     OW 6494   9.443  10.666   6.348
 1552SOL    HW1 6495   9.360  10.713   6.345
 1552SOL    HW2 6496   9.465  10.649   6.257
 1553SOL     OW 6497   4.784   2.250   2.054
 1553SOL    HW1 6498   4.838   2.174   2.075
 1553SOL    HW2 6499   4.704   2.212   2.016
 1554SOL     OW 6500   0.916   2.317   0.908
 1554SOL    HW1 6501   0.866   2.277   0.837
 1554SOL    HW2 6502   0.955   2.395   0.869
 1555SOL     OW 6503   4.836   8.703   7.038
 1555SOL    HW1 6504   4.844   8.708   7.133
 1555SOL    HW2 6505   4.869   8.788   7.007
 1556SOL     OW 6506  13.808   2.086   5.861
 1556SOL    HW1 6507  13.853   2.170   5.850
 1556SOL    HW2 6508  13.869   2.031   5.909
 1557SOL     OW 6509  12.060   6.625   0.346
 1557SOL    HW1 6510  12.074   6.712   0.309
 1557SOL    HW2 6511  12.092   6.631   0.435
 1558SOL     OW 6512   3.858   5.776   3.517
 1558SOL    HW1 6513   3.809   5.849   3.478
 1558SOL    HW2 6514   3.890   5.811   3.600
 1559SOL     OW 6515  12.762  10.293   7.813
 1559SOL    HW1 6516  12.814  10.274   7.891
 1559SOL    HW2 6517  12.790  10.226   7.750
 1560SOL     OW 6518  14.099   5.663   6.263
 1560SOL    HW1 6519  14.033   5.604   6.227
 1560SOL    HW2 6520  14.138   5.705   6.187
 1561SOL     OW 6521   0.151   8.710  10.768
 1561SOL    HW1 6522   0.097   8.789  10.772
 1561SOL    HW2 6523   0.108   8.654  10.704
 1562SOL     OW 6524  11.832  13.978  13.968
 1562SOL    HW1 6525  11.881  13.942  13.894
 1562SOL    HW2 6526  11.741  13.976  13.938
 1563SOL     OW 6527   2.720   8.677   2.281
 1563SOL    HW1 6528   2.680   8.590   2.274
 1563SOL    HW2 6529   2.813   8.661   2.264
 1564SOL     OW 6530   1.974   6.385  10.424
 1564SOL    HW1 6531   1.969   6.368  10.518
 1564SOL    HW2 6532   2.065   6.407  10.408
 1565SOL     OW 6533  12.234   7.320  14.779
 1565SOL    HW1 6534  12.264   7.237  14.742
 1565SOL    HW2 6535  12.139   7.308  14.790
 1566SOL     OW 6536  11.598  10.292  11.726
 1566SOL    HW1 6537  11.510  10.262  11.704
 1566SOL    HW2 6538  11.657  10.229  11.686
 1567SOL     OW 6539   8.740   1.109   0.501
 1567SOL    HW1 6540   8.648   1.103   0.473
 1567SOL    HW2 6541   8.774   1.020   0.491
 1568SOL     OW 6542   5.240   5.487   3.031
 1568SOL    HW1 6543   5.253   5.576   3.064
 1568SOL    HW2 6544   5.198   5.440   3.104
 1569SOL     OW 6545   3.705  12.780   8.445
 1569SOL    HW1 6546   3.704  12.695   8.402
 1569SOL    HW2 6547   3.681  12.842   8.377
 1570SOL     OW 6548   4.256   0.245  11.687
 1570SOL    HW1 6549   4.320   0.309  11.717
 1570SOL    HW2 6550   4.208   0.219  11.766
 1571SOL     OW 6551   6.083   3.879   9.588
 1571SOL    HW1 6552   6.017   3.850   9.651
 1571SOL    HW2 6553   6.073   3.974   9.584
 1572SOL     OW 6554   2.598  11.853   8.830
 1572SOL    HW1 6555   2.525  11.802   8.793
 1572SOL    HW2 6556   2.658  11.865   8.757
 1573SOL     OW 6557   8.571   4.834   3.653
 1573SOL    HW1 6558   8.604   4.758   3.702
 1573SOL    HW2 6559   8.477   4.833   3.667
 1574SOL     OW 6560   3.497  10.510   4.157
 1574SOL    HW1 6561   3.524  10.432   4.109
 1574SOL    HW2 6562   3.568  10.525   4.220
 1575SOL     OW 6563   7.566   8.128  14.799
 1575SOL    HW1 6564   7.512   8.166  14.730
 1575SOL    HW2 6565   7.622   8.065  14.754
 1576SOL     OW 6566   9.645   4.687  12.298
 1576SOL    HW1 6567   9.550   4.682  12.290
 1576SOL    HW2 6568   9.660   4.770  12.343
 1577SOL     OW 6569  13.660   2.529  12.733
 1577SOL    HW1 6570  13.606   2.536  12.655
 1577SOL    HW2 6571  13.748   2.510  12.700
 1578SOL     OW 6572   2.257   6.472   1.919
 1578SOL    HW1 6573   2.260   6.491   2.012
 1578SOL    HW2 6574   2.278   6.555   1.876
 1579SOL     OW 6575   2.484   7.011   0.028
 1579SOL    HW1 6576   2.459   6.991   0.118
 1579SOL    HW2 6577   2.448   7.098   0.012
 1580SOL     OW 6578   9.735   1.181   0.788
 1580SOL    HW1 6579   9.733   1.145   0.877
 1580SOL    HW2 6580   9.755   1.274   0.800
 1581SOL     OW 6581   8.121   9.418  12.051
 1581SOL    HW1 6582   8.155   9.329  12.056
 1581SOL    HW2 6583   8.138   9.456  12.138
 1582SOL     OW 6584   0.297   4.426   6.083
 1582SOL    HW1 6585   0.379   4.438   6.036
 1582SOL    HW2 6586   0.266   4.339   6.058
 1583SOL     OW 6587  13.380  10.916   8.335
 1583SOL    HW1 6588  13.398  10.845   8.396
 1583SOL    HW2 6589  13.287  10.935   8.348
 1584SOL     OW 6590   5.912   3.167   5.119
 1584SOL    HW1 6591   5.934   3.079   5.089
 1584SOL    HW2 6592   5.817   3.174   5.107
 1585SOL     OW 6593   4.598   4.877   2.745
 1585SOL    HW1 6594   4.623   4.877   2.653
 1585SOL    HW2 6595   4.672   4.919   2.790
 1586SOL     OW 6596  11.987  14.198   4.662
 1586SOL    HW1 6597  11.941  14.170   4.583
 1586SOL    HW2 6598  11.990  14.119   4.717
 1587SOL     OW 6599  10.323  14.539   6.597
 1587SOL    HW1 6600  10.247  14.482   6.601
 1587SOL    HW2 6601  10.291  14.619   6.555
 1588SOL     OW 6602   4.424  13.059  12.662
 1588SOL    HW1 6603   4.456  12.971  12.639
 1588SOL    HW2 6604   4.489  13.093  12.724
 1589SOL     OW 6605  12.719   4.214   1.682
 1589SOL    HW1 6606  12.684   4.279   1.621
 1589SOL    HW2 6607  12.802   4.187   1.642
 1590SOL     OW 6608   3.714   6.902   0.758
 1590SOL    HW1 6609   3.755   6.909   0.844
 1590SOL    HW2 6610   3.690   6.810   0.749
 1591SOL     OW 6611   7.389  11.556   3.731
 1591SOL    HW1 6612   7.296  11.536   3.724
 1591SOL    HW2 6613   7.420  11.500   3.802
 1592SOL     OW 6614  10.135  10.171  10.289
 1592SOL    HW1 6615  10.064  10.146  10.349
 1592SOL    HW2 6616  10.164  10.089  10.250
 1593SOL     OW 6617  13.661   5.438  14.026
 1593SOL    HW1 6618  13.730   5.454  14.090
 1593SOL    HW2 6619  13.657   5.518  13.974
 1594SOL     OW 6620  11.924   5.509  13.885
 1594SOL    HW1 6621  11.831   5.486  13.893
 1594SOL    HW2 6622  11.926   5.577  13.817
 1595SOL     OW 6623   4.333  11.926   8.029
 1595SOL    HW1 6624   4.269  11.911   7.959
 1595SOL    HW2 6625   4.415  11.943   7.982
 1596SOL     OW 6626   9.520   0.122  11.643
 1596SOL    HW1 6627   9.587   0.185  11.616
 1596SOL    HW2 6628   9.535   0.046  11.587
 1597SOL     OW 6629   4.447   7.034   1.660
 1597SOL    HW1 6630   4.397   6.968   1.614
 1597SOL    HW2 6631   4.522   6.987   1.697
 1598SOL     OW 6632   8.328   1.362  11.251
 1598SOL    HW1 6633   8.394   1.311  11.204
 1598SOL    HW2 6634   8.283   1.298  11.305
 1599SOL     OW 6635   2.781   7.619  14.841
 1599SOL    HW1 6636   2.832   7.681  14.789
 1599SOL    HW2 6637   2.708   7.672   0.002
 1600SOL     OW 6638   8.506   6.757  11.089
 1600SOL    HW1 6639   8.525   6.726  11.178
 1600SOL    HW2 6640   8.517   6.679  11.034
 1601SOL     OW 6641  10.675   0.475  12.742
 1601SOL    HW1 6642  10.710   0.413  12.807
 1601SOL    HW2 6643  10.686   0.430  12.658
 1602SOL     OW 6644   0.735   7.119   6.914
 1602SOL    HW1 6645   0.660   7.114   6.854
 1602SOL    HW2 6646   0.726   7.205   6.956
 1603SOL     OW 6647   0.510  10.440   3.245
 1603SOL    HW1 6648   0.553  10.356   3.261
 1603SOL    HW2 6649   0.564  10.482   3.179
 1604SOL     OW 6650   3.784   7.947   2.689
 1604SOL    HW1 6651   3.868   7.913   2.661
 1604SOL    HW2 6652   3.730   7.869   2.705
 1605SOL     OW 6653  11.863   8.514   8.652
 1605SOL    HW1 6654  11.820   8.437   8.615
 1605SOL    HW2 6655  11.794   8.579   8.660
 1606SOL     OW 6656   3.048   5.233   7.151
 1606SOL    HW1 6657   3.003   5.190   7.224
 1606SOL    HW2 6658   3.052   5.325   7.177
 1607SOL     OW 6659   0.926   5.437   5.384
 1607SOL    HW1 6660   0.905   5.443   5.477
 1607SOL    HW2 6661   1.019   5.414   5.383
 1608SOL     OW 6662   1.608   6.898  12.053
 1608SOL    HW1 6663   1.602   6.804  12.070
 1608SOL    HW2 6664   1.587   6.939  12.137
 1609SOL     OW 6665   2.613   6.137  10.716
 1609SOL    HW1 6666   2.666   6.214  10.696
 1609SOL    HW2 6667   2.650   6.068  10.662
 1610SOL     OW 6668   3.537   4.829   2.336
 1610SOL    HW1 6669   3.590   4.781   2.399
 1610SOL    HW2 6670   3.503   4.904   2.384
 1611SOL     OW 6671  10.492   7.132   3.622
 1611SOL    HW1 6672  10.500   7.227   3.612
 1611SOL    HW2 6673  10.431   7.121   3.695
 1612SOL     OW 6674   6.138   4.831   7.187
 1612SOL    HW1 6675   6.086   4.752   7.171
 1612SOL    HW2 6676   6.105   4.894   7.123
 1613SOL     OW 6677   6.648   5.299   1.757
 1613SOL    HW1 6678   6.689   5.314   1.842
 1613SOL    HW2 6679   6.624   5.207   1.757
 1614SOL     OW 6680  13.738  10.392   2.837
 1614SOL    HW1 6681  13.710  10.309   2.876
 1614SOL    HW2 6682  13.829  10.401   2.863
 1615SOL     OW 6683   7.910   7.614   4.549
 1615SOL    HW1 6684   7.875   7.600   4.636
 1615SOL    HW2 6685   8.005   7.614   4.561
 1616SOL     OW 6686  13.156   5.593   1.871
 1616SOL    HW1 6687  13.165   5.681   1.907
 1616SOL    HW2 6688  13.072   5.594   1.824
 1617SOL     OW 6689  11.698  10.297   0.630
 1617SOL    HW1 6690  11.610  10.327   0.655
 1617SOL    HW2 6691  11.757  10.351   0.682
 1618SOL     OW 6692  11.537   1.154   4.421
 1618SOL    HW1 6693  11.465   1.091   4.421
 1618SOL    HW2 6694  11.607   1.111   4.471
 1619SOL     OW 6695   6.818   8.357   7.237
 1619SOL    HW1 6696   6.838   8.450   7.226
 1619SOL    HW2 6697   6.775   8.332   7.155
 1620SOL     OW 6698   2.438   1.601   2.280
 1620SOL    HW1 6699   2.467   1.602   2.371
 1620SOL    HW2 6700   2.420   1.693   2.260
 1621SOL     OW 6701   3.873   5.652   7.324
 1621SOL    HW1 6702   3.934   5.725   7.329
 1621SOL    HW2 6703   3.890   5.613   7.238
 1622SOL     OW 6704   7.072   5.124   5.886
 1622SOL    HW1 6705   7.098   5.065   5.816
 1622SOL    HW2 6706   7.140   5.114   5.952
 1623SOL     OW 6707  14.398   9.944  12.283
 1623SOL    HW1 6708  14.306   9.945  12.257
 1623SOL    HW2 6709  14.427   9.854  12.269
 1624SOL     OW 6710   4.469   4.537   5.172
 1624SOL    HW1 6711   4.503   4.448   5.163
 1624SOL    HW2 6712   4.480   4.558   5.265
 1625SOL     OW 6713   0.508   1.725   4.884
 1625SOL    HW1 6714   0.482   1.762   4.800
 1625SOL    HW2 6715   0.515   1.801   4.942
 1626SOL     OW 6716   5.041  12.507   5.089
 1626SOL    HW1 6717   5.125  12.547   5.065
 1626SOL    HW2 6718   4.975  12.566   5.050
 1627SOL     OW 6719   1.458  11.680   0.771
 1627SOL    HW1 6720   1.447  11.670   0.865
 1627SOL    HW2 6721   1.517  11.755   0.760
 1628SOL     OW 6722   8.622   6.342   4.899
 1628SOL    HW1 6723   8.623   6.379   4.987
 1628SOL    HW2 6724   8.685   6.270   4.902
 1629SOL     OW 6725   5.584   0.615   5.267
 1629SOL    HW1 6726   5.607   0.691   5.214
 1629SOL    HW2 6727   5.553   0.652   5.350
 1630SOL     OW 6728   0.627  11.861   8.813
 1630SOL    HW1 6729   0.562  11.847   8.882
 1630SOL    HW2 6730   0.577  11.888   8.737
 1631SOL     OW 6731   8.447   4.287  10.051
 1631SOL    HW1 6732   8.459   4.240   9.969
 1631SOL    HW2 6733   8.352   4.292  10.062
 1632SOL     OW 6734   7.489   8.049   4.850
 1632SOL    HW1 6735   7.504   7.956   4.834
 1632SOL    HW2 6736   7.454   8.083   4.767
 1633SOL     OW 6737   3.517  11.927  10.309
 1633SOL    HW1 6738   3.484  11.999  10.363
 1633SOL    HW2 6739   3.607  11.952  10.289
 1634SOL     OW 6740  14.362   5.741   5.767
 1634SOL    HW1 6741  14.380   5.835   5.774
 1634SOL    HW2 6742  14.443   5.699   5.796
 1635SOL     OW 6743   5.380  12.136   9.528
 1635SOL    HW1 6744   5.379  12.140   9.433
 1635SOL    HW2 6745   5.321  12.063   9.549
 1636SOL     OW 6746   7.083   1.310   1.339
 1636SOL    HW1 6747   7.018   1.256   1.294
 1636SOL    HW2 6748   7.039   1.336   1.420
 1637SOL     OW 6749   8.725   4.973  13.404
 1637SOL    HW1 6750   8.682   4.947  13.486
 1637SOL    HW2 6751   8.795   4.910  13.392
 1638SOL     OW 6752   0.097   2.473   8.593
 1638SOL    HW1 6753   0.093   2.389   8.638
 1638SOL    HW2 6754   0.140   2.532   8.655
 1639SOL     OW 6755  10.738   8.271  12.828
 1639SOL    HW1 6756  10.810   8.334  12.837
 1639SOL    HW2 6757  10.743   8.241  12.737
 1640SOL     OW 6758   2.271  13.234   1.479
 1640SOL    HW1 6759   2.240  13.161   1.425
 1640SOL    HW2 6760   2.354  13.203   1.516
 1641SOL     OW 6761   0.712   5.510   1.289
 1641SOL    HW1 6762   0.631   5.512   1.340
 1641SOL    HW2 6763   0.746   5.599   1.296
 1642SOL     OW 6764  13.308   5.296  13.619
 1642SOL    HW1 6765  13.369   5.303  13.693
 1642SOL    HW2 6766  13.341   5.222  13.568
 1643SOL     OW 6767   2.399  11.792   5.727
 1643SOL    HW1 6768   2.432  11.729   5.791
 1643SOL    HW2 6769   2.351  11.740   5.664
 1644SOL     OW 6770   9.329  12.432   7.800
 1644SOL    HW1 6771   9.369  12.403   7.882
 1644SOL    HW2 6772   9.403  12.450   7.742
 1645SOL     OW 6773   3.835   8.803  14.140
 1645SOL    HW1 6774   3.930   8.798  14.151
 1645SOL    HW2 6775   3.805   8.713  14.152
 1646SOL     OW 6776   5.110  12.788  10.072
 1646SOL    HW1 6777   5.030  12.738  10.086
 1646SOL    HW2 6778   5.142  12.757   9.987
 1647SOL     OW 6779  14.713  10.858  12.394
 1647SOL    HW1 6780  14.765  10.938  12.406
 1647SOL    HW2 6781  14.768  10.801  12.341
 1648SOL     OW 6782   7.135   8.957   9.158
 1648SOL    HW1 6783   7.193   8.881   9.155
 1648SOL    HW2 6784   7.154   9.004   9.076
 1649SOL     OW 6785   8.773   1.581   3.218
 1649SOL    HW1 6786   8.749   1.547   3.132
 1649SOL    HW2 6787   8.820   1.662   3.200
 1650SOL     OW 6788   7.921  10.557  11.449
 1650SOL    HW1 6789   7.907  10.601  11.532
 1650SOL    HW2 6790   7.908  10.464  11.468
 1651SOL     OW 6791   9.273   5.032   8.201
 1651SOL    HW1 6792   9.332   5.018   8.126
 1651SOL    HW2 6793   9.329   5.071   8.268
 1652SOL     OW 6794  10.728  13.109   9.839
 1652SOL    HW1 6795  10.647  13.069   9.806
 1652SOL    HW2 6796  10.699  13.163   9.913
 1653SOL     OW 6797  13.253   4.414   7.624
 1653SOL    HW1 6798  13.222   4.339   7.674
 1653SOL    HW2 6799  13.339   4.386   7.590
 1654SOL     OW 6800   4.632  10.092  13.793
 1654SOL    HW1 6801   4.590  10.178  13.794
 1654SOL    HW2 6802   4.684  10.092  13.712
 1655SOL     OW 6803  13.975   8.884  13.729
 1655SOL    HW1 6804  14.038   8.915  13.664
 1655SOL    HW2 6805  14.027   8.871  13.808
 1656SOL     OW 6806   5.232   9.310   4.891
 1656SOL    HW1 6807   5.180   9.341   4.965
 1656SOL    HW2 6808   5.296   9.379   4.876
 1657SOL     OW 6809  14.866   0.543   2.655
 1657SOL    HW1 6810  14.776   0.515   2.672
 1657SOL    HW2 6811   0.047   0.478   2.699
 1658SOL     OW 6812   6.239   6.813  13.543
 1658SOL    HW1 6813   6.274   6.893  13.502
 1658SOL    HW2 6814   6.289   6.742  13.502
 1659SOL     OW 6815   1.759   6.883   5.761
 1659SOL    HW1 6816   1.790   6.966   5.795
 1659SOL    HW2 6817   1.734   6.901   5.670
 1660SOL     OW 6818   2.983   5.707   9.431
 1660SOL    HW1 6819   2.912   5.772   9.437
 1660SOL    HW2 6820   2.946   5.628   9.471
 1661SOL     OW 6821   1.180  10.237   4.917
 1661SOL    HW1 6822   1.110  10.218   4.980
 1661SOL    HW2 6823   1.220  10.152   4.900
 1662SOL     OW 6824  10.491   2.850  12.740
 1662SOL    HW1 6825  10.586   2.857  12.726
 1662SOL    HW2 6826  10.482   2.800  12.821
 1663SOL     OW 6827   4.555   4.567   9.436
 1663SOL    HW1 6828   4.573   4.473   9.428
 1663SOL    HW2 6829   4.544   4.581   9.530
 1664SOL     OW 6830   0.109  10.579   7.215
 1664SOL    HW1 6831   0.112  10.519   7.141
 1664SOL    HW2 6832   0.187  10.559   7.266
 1665SOL     OW 6833   2.563   3.906  13.158
 1665SOL    HW1 6834   2.656   3.918  13.175
 1665SOL    HW2 6835   2.557   3.893  13.064
 1666SOL     OW 6836   6.330   0.506  10.746
 1666SOL    HW1 6837   6.279   0.543  10.817
 1666SOL    HW2 6838   6.396   0.572  10.727
 1667SOL     OW 6839   6.661   3.602   2.460
 1667SOL    HW1 6840   6.650   3.508   2.476
 1667SOL    HW2 6841   6.756   3.613   2.448
 1668SOL     OW 6842  14.351  11.597  13.267
 1668SOL    HW1 6843  14.349  11.582  13.362
 1668SOL    HW2 6844  14.361  11.691  13.258
 1669SOL     OW 6845   3.826   7.955   4.993
 1669SOL    HW1 6846   3.802   7.929   4.905
 1669SOL    HW2 6847   3.761   7.914   5.049
 1670SOL     OW 6848   8.521  10.099   7.486
 1670SOL    HW1 6849   8.614  10.109   7.508
 1670SOL    HW2 6850   8.484  10.050   7.559
 1671SOL     OW 6851   9.469  13.147   2.745
 1671SOL    HW1 6852   9.430  13.076   2.695
 1671SOL    HW2 6853   9.563  13.135   2.733
 1672SOL     OW 6854  14.649   6.244   1.110
 1672SOL    HW1 6855  14.633   6.172   1.049
 1672SOL    HW2 6856  14.718   6.296   1.069
 1673SOL     OW 6857   1.452   0.721   0.786
 1673SOL    HW1 6858   1.371   0.772   0.779
 1673SOL    HW2 6859   1.511   0.762   0.723
 1674SOL     OW 6860   2.448  11.348   3.180
 1674SOL    HW1 6861   2.539  11.354   3.154
 1674SOL    HW2 6862   2.417  11.267   3.140
 1675SOL     OW 6863  10.339   2.054  12.062
 1675SOL    HW1 6864  10.405   1.996  12.024
 1675SOL    HW2 6865  10.390   2.122  12.106
 1676SOL     OW 6866  11.286   9.813   4.530
 1676SOL    HW1 6867  11.209   9.777   4.574
 1676SOL    HW2 6868  11.361   9.776   4.578
 1677SOL     OW 6869  10.088   2.786   2.222
 1677SOL    HW1 6870   9.993   2.784   2.234
 1677SOL    HW2 6871  10.103   2.853   2.157
 1678SOL     OW 6872   8.212   5.430  12.276
 1678SOL    HW1 6873   8.294   5.385  12.295
 1678SOL    HW2 6874   8.154   5.408  12.349
 1679SOL     OW 6875  11.527   8.385   7.653
 1679SOL    HW1 6876  11.454   8.355   7.598
 1679SOL    HW2 6877  11.498   8.368   7.742
 1680SOL     OW 6878   7.071   3.709   1.375
 1680SOL    HW1 6879   7.084   3.761   1.454
 1680SOL    HW2 6880   7.000   3.754   1.328
 1681SOL     OW 6881  14.047   4.969  11.099
 1681SOL    HW1 6882  14.059   5.010  11.185
 1681SOL    HW2 6883  14.026   4.878  11.118
 1682SOL     OW 6884   4.876  12.138  11.214
 1682SOL    HW1 6885   4.823  12.141  11.134
 1682SOL    HW2 6886   4.941  12.208  11.202
 1683SOL     OW 6887  13.362   1.390  12.014
 1683SOL    HW1 6888  13.286   1.341  11.983
 1683SOL    HW2 6889  13.434   1.360  11.958
 1684SOL     OW 6890   3.810   5.717   6.509
 1684SOL    HW1 6891   3.841   5.798   6.550
 1684SOL    HW2 6892   3.719   5.735   6.487
 1685SOL     OW 6893   2.090   2.285   6.034
 1685SOL    HW1 6894   2.055   2.206   5.992
 1685SOL    HW2 6895   2.119   2.255   6.120
 1686SOL     OW 6896   2.066  14.320   4.793
 1686SOL    HW1 6897   2.031  14.389   4.736
 1686SOL    HW2 6898   2.007  14.317   4.867
 1687SOL     OW 6899   4.309   5.102  11.995
 1687SOL    HW1 6900   4.369   5.028  11.988
 1687SOL    HW2 6901   4.311   5.126  12.087
 1688SOL     OW 6902  10.915  10.823   3.479
 1688SOL    HW1 6903  11.010  10.815   3.492
 1688SOL    HW2 6904  10.891  10.743   3.433
 1689SOL     OW 6905  10.467   8.331   9.716
 1689SOL    HW1 6906  10.445   8.298   9.803
 1689SOL    HW2 6907  10.521   8.408   9.732
 1690SOL     OW 6908   1.830  10.803  10.227
 1690SOL    HW1 6909   1.878  10.723  10.207
 1690SOL    HW2 6910   1.776  10.781  10.302
 1691SOL     OW 6911   0.773   2.060  11.207
 1691SOL    HW1 6912   0.763   2.072  11.301
 1691SOL    HW2 6913   0.855   2.106  11.186
 1692SOL     OW 6914   4.823   9.275   8.556
 1692SOL    HW1 6915   4.806   9.362   8.593
 1692SOL    HW2 6916   4.736   9.239   8.539
 1693SOL     OW 6917   0.307   6.795   1.566
 1693SOL    HW1 6918   0.346   6.819   1.650
 1693SOL    HW2 6919   0.325   6.701   1.557
 1694SOL     OW 6920  10.612   0.560  13.194
 1694SOL    HW1 6921  10.695   0.583  13.237
 1694SOL    HW2 6922  10.545   0.582  13.258
 1695SOL     OW 6923  10.475  11.137  11.246
 1695SOL    HW1 6924  10.524  11.063  11.210
 1695SOL    HW2 6925  10.534  11.212  11.237
 1696SOL     OW 6926  12.001   3.254  10.260
 1696SOL    HW1 6927  11.975   3.162  10.252
 1696SOL    HW2 6928  11.945   3.300  10.198
 1697SOL     OW 6929  12.134  11.189  12.676
 1697SOL    HW1 6930  12.083  11.174  12.756
 1697SOL    HW2 6931  12.077  11.158  12.605
 1698SOL     OW 6932   2.436   8.897  10.937
 1698SOL    HW1 6933   2.502   8.963  10.957
 1698SOL    HW2 6934   2.390   8.884  11.020
 1699SOL     OW 6935   9.171  10.640   3.785
 1699SOL    HW1 6936   9.255  10.640   3.830
 1699SOL    HW2 6937   9.136  10.728   3.798
 1700SOL     OW 6938   4.889   5.129   2.543
 1700SOL    HW1 6939   4.980   5.100   2.531
 1700SOL    HW2 6940   4.888   5.169   2.629
 1701SOL     OW 6941   6.729  13.724   4.360
 1701SOL    HW1 6942   6.718  13.795   4.296
 1701SOL    HW2 6943   6.702  13.645   4.314
 1702SOL     OW 6944   2.227   4.792   4.332
 1702SOL    HW1 6945   2.222   4.730   4.405
 1702SOL    HW2 6946   2.203   4.876   4.370
 1703SOL     OW 6947   3.208   7.367   2.589
 1703SOL    HW1 6948   3.258   7.337   2.513
 1703SOL    HW2 6949   3.242   7.315   2.662
 1704SOL     OW 6950  11.965  12.102   2.199
 1704SOL    HW1 6951  11.915  12.021   2.202
 1704SOL    HW2 6952  11.898  12.171   2.195
 1705SOL     OW 6953   2.591   4.561   6.641
 1705SOL    HW1 6954   2.581   4.646   6.684
 1705SOL    HW2 6955   2.666   4.521   6.686
 1706SOL     OW 6956   3.188  13.179  10.529
 1706SOL    HW1 6957   3.149  13.266  10.524
 1706SOL    HW2 6958   3.246  13.174  10.453
 1707SOL     OW 6959   6.276   9.721  12.197
 1707SOL    HW1 6960   6.195   9.682  12.230
 1707SOL    HW2 6961   6.331   9.730  12.275
 1708SOL     OW 6962  14.087   2.920   1.982
 1708SOL    HW1 6963  14.179   2.894   1.971
 1708SOL    HW2 6964  14.039   2.838   1.990
 1709SOL     OW 6965  14.775  11.715  11.226
 1709SOL    HW1 6966  14.785  11.809  11.233
 1709SOL    HW2 6967  14.740  11.688  11.311
 1710SOL     OW 6968   3.480  10.218  10.471
 1710SOL    HW1 6969   3.451  10.165  10.545
 1710SOL    HW2 6970   3.404  10.221  10.413
 1711SOL     OW 6971   8.570   3.980  14.705
 1711SOL    HW1 6972   8.573   3.898  14.656
 1711SOL    HW2 6973   8.496   4.028  14.667
 1712SOL     OW 6974   9.571   8.108   2.267
 1712SOL    HW1 6975   9.583   8.094   2.173
 1712SOL    HW2 6976   9.655   8.086   2.306
 1713SOL     OW 6977   7.040  14.329  10.707
 1713SOL    HW1 6978   7.023  14.240  10.737
 1713SOL    HW2 6979   7.132  14.328  10.680
 1714SOL     OW 6980  13.144   3.264  12.897
 1714SOL    HW1 6981  13.148   3.360  12.901
 1714SOL    HW2 6982  13.195   3.242  12.819
 1715SOL     OW 6983  10.585  10.378  13.332
 1715SOL    HW1 6984  10.530  10.336  13.266
 1715SOL    HW2 6985  10.572  10.472  13.318
 1716SOL     OW 6986  14.853   4.058  14.463
 1716SOL    HW1 6987  14.844   4.103  14.379
 1716SOL    HW2 6988   0.012   3.971  14.441
 1717SOL     OW 6989   6.629   9.480   0.208
 1717SOL    HW1 6990   6.683   9.556   0.189
 1717SOL    HW2 6991   6.560   9.513   0.265
 1718SOL     OW 6992  11.353   2.601   8.304
 1718SOL    HW1 6993  11.274   2.635   8.347
 1718SOL    HW2 6994  11.423   2.659   8.333
 1719SOL     OW 6995   0.502   4.400  14.616
 1719SOL    HW1 6996   0.541   4.475  14.661
 1719SOL    HW2 6997   0.520   4.326  14.674
 1720SOL     OW 6998   3.714   6.425   7.214
 1720SOL    HW1 6999   3.739   6.505   7.259
 1720SOL    HW2 7000   3.731   6.355   7.278
 1721SOL     OW 7001   7.741   7.426   4.427
 1721SOL    HW1 7002   7.791   7.492   4.475
 1721SOL    HW2 7003   7.779   7.343   4.454
 1722SOL     OW 7004   3.034  14.270   8.596
 1722SOL    HW1 7005   3.078  14.327   8.533
 1722SOL    HW2 7006   2.950  14.250   8.556
 1723SOL     OW 7007   1.683  12.098   7.550
 1723SOL    HW1 7008   1.700  12.158   7.622
 1723SOL    HW2 7009   1.764  12.048   7.541
 1724SOL     OW 7010  11.274  12.572   4.535
 1724SOL    HW1 7011  11.312  12.600   4.452
 1724SOL    HW2 7012  11.290  12.478   4.539
 1725SOL     OW 7013   3.705  13.915  12.322
 1725SOL    HW1 7014   3.624  13.961  12.301
 1725SOL    HW2 7015   3.690  13.826  12.290
 1726SOL     OW 7016   6.254   1.725   6.714
 1726SOL    HW1 7017   6.252   1.661   6.785
 1726SOL    HW2 7018   6.187   1.696   6.653
 1727SOL     OW 7019  13.886   8.618   6.129
 1727SOL    HW1 7020  13.905   8.534   6.087
 1727SOL    HW2 7021  13.908   8.683   6.063
 1728SOL     OW 7022   4.424   2.620   5.589
 1728SOL    HW1 7023   4.506   2.610   5.638
 1728SOL    HW2 7024   4.427   2.550   5.523
 1729SOL     OW 7025  11.667   6.348   2.207
 1729SOL    HW1 7026  11.618   6.424   2.173
 1729SOL    HW2 7027  11.742   6.387   2.253
 1730SOL     OW 7028  12.224  11.517   8.179
 1730SOL    HW1 7029  12.218  11.498   8.085
 1730SOL    HW2 7030  12.205  11.610   8.185
 1731SOL     OW 7031  10.365   7.860   5.215
 1731SOL    HW1 7032  10.384   7.775   5.254
 1731SOL    HW2 7033  10.439   7.876   5.155
 1732SOL     OW 7034  13.222   0.705   0.378
 1732SOL    HW1 7035  13.300   0.663   0.415
 1732SOL    HW2 7036  13.167   0.726   0.454
 1733SOL     OW 7037   4.467   0.356  10.891
 1733SOL    HW1 7038   4.421   0.381  10.971
 1733SOL    HW2 7039   4.401   0.369  10.822
 1734SOL     OW 7040   3.921   7.059   7.294
 1734SOL    HW1 7041   3.965   7.104   7.367
 1734SOL    HW2 7042   3.940   6.966   7.309
 1735SOL     OW 7043   0.968  14.653   4.101
 1735SOL    HW1 7044   0.874  14.634   4.104
 1735SOL    HW2 7045   1.010  14.571   4.126
 1736SOL     OW 7046  13.683  10.491   8.191
 1736SOL    HW1 7047  13.705  10.539   8.111
 1736SOL    HW2 7048  13.589  10.505   8.202
 1737SOL     OW 7049  14.764   7.220  11.776
 1737SOL    HW1 7050  14.784   7.276  11.851
 1737SOL    HW2 7051  14.847   7.176  11.756
 1738SOL     OW 7052   3.161   7.837  14.359
 1738SOL    HW1 7053   3.108   7.862  14.283
 1738SOL    HW2 7054   3.153   7.911  14.419
 1739SOL     OW 7055   1.139  12.090   7.636
 1739SOL    HW1 7056   1.065  12.107   7.695
 1739SOL    HW2 7057   1.114  12.132   7.554
 1740SOL     OW 7058   9.097  10.939   7.244
 1740SOL    HW1 7059   9.191  10.948   7.231
 1740SOL    HW2 7060   9.074  11.013   7.301
 1741SOL     OW 7061   2.778   2.979   9.763
 1741SOL    HW1 7062   2.686   3.001   9.780
 1741SOL    HW2 7063   2.812   2.950   9.848
 1742SOL     OW 7064   5.018   5.832   5.302
 1742SOL    HW1 7065   4.946   5.876   5.257
 1742SOL    HW2 7066   5.095   5.850   5.248
 1743SOL     OW 7067   4.034   0.380  14.090
 1743SOL    HW1 7068   4.075   0.462  14.117
 1743SOL    HW2 7069   3.944   0.385  14.124
 1744SOL     OW 7070   8.239  12.329   4.253
 1744SOL    HW1 7071   8.286  12.324   4.169
 1744SOL    HW2 7072   8.156  12.371   4.231
 1745SOL     OW 7073  12.720   8.797   7.097
 1745SOL    HW1 7074  12.634   8.834   7.118
 1745SOL    HW2 7075  12.704   8.740   7.022
 1746SOL     OW 7076   5.507  13.367   6.234
 1746SOL    HW1 7077   5.510  13.461   6.217
 1746SOL    HW2 7078   5.581  13.331   6.185
 1747SOL     OW 7079  10.182  13.821   5.469
 1747SOL    HW1 7080  10.167  13.903   5.516
 1747SOL    HW2 7081  10.273  13.798   5.490
 1748SOL     OW 7082  12.596   5.088   8.067
 1748SOL    HW1 7083  12.588   5.051   8.155
 1748SOL    HW2 7084  12.588   5.182   8.081
 1749SOL     OW 7085  10.104   4.850  12.747
 1749SOL    HW1 7086  10.061   4.817  12.668
 1749SOL    HW2 7087  10.067   4.938  12.760
 1750SOL     OW 7088  11.336   6.039   3.222
 1750SOL    HW1 7089  11.273   5.999   3.282
 1750SOL    HW2 7090  11.416   5.987   3.234
 1751SOL     OW 7091   4.854  11.693   1.317
 1751SOL    HW1 7092   4.837  11.741   1.236
 1751SOL    HW2 7093   4.868  11.762   1.382
 1752SOL     OW 7094   2.765  12.787  11.570
 1752SOL    HW1 7095   2.689  12.795  11.628
 1752SOL    HW2 7096   2.813  12.869  11.582
 1753SOL     OW 7097   0.166   8.155  12.811
 1753SOL    HW1 7098   0.085   8.197  12.784
 1753SOL    HW2 7099   0.193   8.103  12.735
 1754SOL     OW 7100   1.731   9.967  11.165
 1754SOL    HW1 7101   1.739  10.018  11.085
 1754SOL    HW2 7102   1.670   9.897  11.143
 1755SOL     OW 7103   8.928   4.138  10.566
 1755SOL    HW1 7104   8.947   4.139  10.660
 1755SOL    HW2 7105   9.006   4.101  10.526
 1756SOL     OW 7106   1.214  13.843  10.988
 1756SOL    HW1 7107   1.158  13.903  11.038
 1756SOL    HW2 7108   1.301  13.852  11.029
 1757SOL     OW 7109   2.805   2.254  10.139
 1757SOL    HW1 7110   2.842   2.166  10.146
 1757SOL    HW2 7111   2.882   2.312  10.144
 1758SOL     OW 7112   5.613  14.523  11.417
 1758SOL    HW1 7113   5.523  14.509  11.386
 1758SOL    HW2 7114   5.608  14.602  11.471
 1759SOL     OW 7115   8.751   7.535   5.230
 1759SOL    HW1 7116   8.707   7.540   5.146
 1759SOL    HW2 7117   8.813   7.608   5.229
 1760SOL     OW 7118  12.726   6.087  10.878
 1760SOL    HW1 7119  12.749   5.999  10.849
 1760SOL    HW2 7120  12.800   6.114  10.933
 1761SOL     OW 7121  12.020   2.095   1.994
 1761SOL    HW1 7122  11.938   2.049   2.009
 1761SOL    HW2 7123  12.085   2.026   1.982
 1762SOL     OW 7124   8.604   2.395   9.895
 1762SOL    HW1 7125   8.680   2.341   9.875
 1762SOL    HW2 7126   8.539   2.371   9.830
 1763SOL     OW 7127  10.258   5.214   6.075
 1763SOL    HW1 7128  10.196   5.204   6.148
 1763SOL    HW2 7129  10.223   5.285   6.023
 1764SOL     OW 7130   6.977   5.665   9.298
 1764SOL    HW1 7131   6.965   5.703   9.211
 1764SOL    HW2 7132   7.035   5.727   9.343
 1765SOL     OW 7133   2.718  14.686   0.569
 1765SOL    HW1 7134   2.726  14.607   0.517
 1765SOL    HW2 7135   2.715  14.655   0.660
 1766SOL     OW 7136  14.458   5.821  10.198
 1766SOL    HW1 7137  14.517   5.885  10.159
 1766SOL    HW2 7138  14.422   5.773  10.123
 1767SOL     OW 7139   0.814   6.136  12.525
 1767SOL    HW1 7140   0.843   6.081  12.598
 1767SOL    HW2 7141   0.895   6.159  12.480
 1768SOL     OW 7142  12.727   4.375   9.398
 1768SOL    HW1 7143  12.688   4.409   9.317
 1768SOL    HW2 7144  12.758   4.288   9.374
 1769SOL     OW 7145  13.557   2.686   3.707
 1769SOL    HW1 7146  13.536   2.593   3.715
 1769SOL    HW2 7147  13.650   2.689   3.686
 1770SOL     OW 7148   3.062   4.549  12.474
 1770SOL    HW1 7149   3.111   4.517  12.398
 1770SOL    HW2 7150   2.972   4.553  12.444
 1771SOL     OW 7151   0.574   1.217  10.530
 1771SOL    HW1 7152   0.546   1.140  10.580
 1771SOL    HW2 7153   0.600   1.281  10.597
 1772SOL     OW 7154  13.099   7.621   0.889
 1772SOL    HW1 7155  13.031   7.585   0.946
 1772SOL    HW2 7156  13.180   7.579   0.917
 1773SOL     OW 7157  11.067  12.553   7.616
 1773SOL    HW1 7158  11.076  12.552   7.520
 1773SOL    HW2 7159  11.155  12.571   7.648
 1774SOL     OW 7160   1.053   0.285   1.862
 1774SOL    HW1 7161   0.999   0.329   1.929
 1774SOL    HW2 7162   1.104   0.221   1.911
 1775SOL     OW 7163  14.815  13.897   2.436
 1775SOL    HW1 7164  14.870  13.973   2.416
 1775SOL    HW2 7165  14.725  13.928   2.423
 1776SOL     OW 7166   6.912   0.784  14.151
 1776SOL    HW1 7167   6.880   0.827  14.072
 1776SOL    HW2 7168   6.850   0.809  14.219
 1777SOL     OW 7169   6.251   0.278  10.641
 1777SOL    HW1 7170   6.293   0.357  10.674
 1777SOL    HW2 7171   6.322   0.227  10.603
 1778SOL     OW 7172   7.092   7.511   5.129
 1778SOL    HW1 7173   7.153   7.573   5.089
 1778SOL    HW2 7174   7.148   7.442   5.166
 1779SOL     OW 7175   7.145   7.987  10.699
 1779SOL    HW1 7176   7.169   8.049  10.768
 1779SOL    HW2 7177   7.073   7.936  10.736
 1780SOL     OW 7178   3.159  13.277   6.694
 1780SOL    HW1 7179   3.164  13.366   6.659
 1780SOL    HW2 7180   3.074  13.244   6.664
 1781SOL     OW 7181   9.393   2.687   1.233
 1781SOL    HW1 7182   9.412   2.743   1.308
 1781SOL    HW2 7183   9.383   2.748   1.159
 1782SOL     OW 7184   2.260  12.200   9.226
 1782SOL    HW1 7185   2.302  12.249   9.297
 1782SOL    HW2 7186   2.241  12.115   9.264
 1783SOL     OW 7187  14.193   3.499  14.807
 1783SOL    HW1 7188  14.110   3.495  14.854
 1783SOL    HW2 7189  14.226   3.409  14.810
 1784SOL     OW 7190   0.374   2.525   9.421
 1784SOL    HW1 7191   0.405   2.542   9.332
 1784SOL    HW2 7192   0.317   2.600   9.441
 1785SOL     OW 7193   7.977   0.428   8.479
 1785SOL    HW1 7194   7.960   0.519   8.503
 1785SOL    HW2 7195   7.950   0.422   8.387
 1786SOL     OW 7196   7.688  10.695   3.736
 1786SOL    HW1 7197   7.648  10.608   3.729
 1786SOL    HW2 7198   7.642  10.748   3.672
 1787SOL     OW 7199  11.201   8.499   2.120
 1787SOL    HW1 7200  11.161   8.432   2.066
 1787SOL    HW2 7201  11.256   8.451   2.182
 1788SOL     OW 7202   1.702   4.252   3.108
 1788SOL    HW1 7203   1.729   4.224   3.020
 1788SOL    HW2 7204   1.704   4.348   3.104
 1789SOL     OW 7205   9.070   7.098   3.176
 1789SOL    HW1 7206   9.103   7.187   3.167
 1789SOL    HW2 7207   9.029   7.079   3.091
 1790SOL     OW 7208  10.903   5.665   7.602
 1790SOL    HW1 7209  10.870   5.741   7.649
 1790SOL    HW2 7210  10.877   5.590   7.656
 1791SOL     OW 7211   6.467  12.913  11.130
 1791SOL    HW1 7212   6.502  12.971  11.197
 1791SOL    HW2 7213   6.508  12.943  11.049
 1792SOL     OW 7214   5.610  14.427  12.796
 1792SOL    HW1 7215   5.520  14.397  12.784
 1792SOL    HW2 7216   5.614  14.511  12.749
 1793SOL     OW 7217   5.969   7.265   2.182
 1793SOL    HW1 7218   5.980   7.320   2.260
 1793SOL    HW2 7219   5.986   7.176   2.213
 1794SOL     OW 7220  14.393   2.667  14.154
 1794SOL    HW1 7221  14.484   2.640  14.147
 1794SOL    HW2 7222  14.382   2.733  14.086
 1795SOL     OW 7223   0.998  14.371   7.094
 1795SOL    HW1 7224   0.972  14.455   7.130
 1795SOL    HW2 7225   1.007  14.387   7.000
 1796SOL     OW 7226   9.082   2.109   0.596
 1796SOL    HW1 7227   9.011   2.140   0.540
 1796SOL    HW2 7228   9.046   2.035   0.643
 1797SOL     OW 7229   7.019   6.490   6.985
 1797SOL    HW1 7230   6.984   6.543   7.057
 1797SOL    HW2 7231   6.971   6.408   6.991
 1798SOL     OW 7232   6.485  13.988   3.499
 1798SOL    HW1 7233   6.463  13.923   3.431
 1798SOL    HW2 7234   6.448  14.070   3.466
 1799SOL     OW 7235   8.435   0.727   9.449
 1799SOL    HW1 7236   8.419   0.773   9.366
 1799SOL    HW2 7237   8.530   0.718   9.453
 1800SOL     OW 7238   4.731   9.510   6.480
 1800SOL    HW1 7239   4.639   9.522   6.460
 1800SOL    HW2 7240   4.768   9.469   6.401
 1801SOL     OW 7241  10.401   3.997  14.346
 1801SOL    HW1 7242  10.425   3.931  14.282
 1801SOL    HW2 7243  10.472   4.061  14.343
 1802SOL     OW 7244   4.706  14.174   9.087
 1802SOL    HW1 7245   4.784  14.131   9.124
 1802SOL    HW2 7246   4.732  14.198   8.998
 1803SOL     OW 7247   9.150   0.680  13.376
 1803SOL    HW1 7248   9.114   0.595  13.403
 1803SOL    HW2 7249   9.087   0.714  13.314
 1804SOL     OW 7250   4.204   0.818   4.396
 1804SOL    HW1 7251   4.151   0.756   4.345
 1804SOL    HW2 7252   4.237   0.880   4.332
 1805SOL     OW 7253   3.196   1.826  14.732
 1805SOL    HW1 7254   3.252   1.902  14.715
 1805SOL    HW2 7255   3.253   1.765  14.780
 1806SOL     OW 7256  12.987   6.688  12.896
 1806SOL    HW1 7257  13.031   6.769  12.921
 1806SOL    HW2 7258  13.012   6.674  12.804
 1807SOL     OW 7259  14.583   9.013   4.259
 1807SOL    HW1 7260  14.546   8.953   4.194
 1807SOL    HW2 7261  14.625   9.081   4.206
 1808SOL     OW 7262  10.354   6.293   2.938
 1808SOL    HW1 7263  10.419   6.260   2.877
 1808SOL    HW2 7264  10.399   6.295   3.023
 1809SOL     OW 7265  11.965   6.179   0.144
 1809SOL    HW1 7266  11.907   6.126   0.090
 1809SOL    HW2 7267  12.035   6.206   0.084
 1810SOL     OW 7268   7.422   4.600   7.042
 1810SOL    HW1 7269   7.427   4.505   7.034
 1810SOL    HW2 7270   7.474   4.620   7.120
 1811SOL     OW 7271   8.674   7.412  11.772
 1811SOL    HW1 7272   8.648   7.447  11.687
 1811SOL    HW2 7273   8.654   7.483  11.833
 1812SOL     OW 7274   6.767   9.853   3.103
 1812SOL    HW1 7275   6.726   9.913   3.165
 1812SOL    HW2 7276   6.770   9.902   3.021
 1813SOL     OW 7277  13.702  10.777  13.263
 1813SOL    HW1 7278  13.738  10.695  13.229
 1813SOL    HW2 7279  13.776  10.820  13.307
 1814SOL     OW 7280   7.809  12.410   5.746
 1814SOL    HW1 7281   7.812  12.505   5.730
 1814SOL    HW2 7282   7.779  12.372   5.664
 1815SOL     OW 7283   4.166  13.444   8.041
 1815SOL    HW1 7284   4.097  13.492   8.089
 1815SOL    HW2 7285   4.244  13.498   8.051
 1816SOL     OW 7286   4.594   6.493   8.719
 1816SOL    HW1 7287   4.619   6.453   8.635
 1816SOL    HW2 7288   4.644   6.444   8.784
 1817SOL     OW 7289   8.164  11.350   5.063
 1817SOL    HW1 7290   8.188  11.313   5.148
 1817SOL    HW2 7291   8.085  11.303   5.037
 1818SOL     OW 7292   9.420   4.511  12.293
 1818SOL    HW1 7293   9.343   4.459  12.269
 1818SOL    HW2 7294   9.487   4.446  12.315
 1819SOL     OW 7295  14.030   2.182   4.301
 1819SOL    HW1 7296  14.125   2.196   4.302
 1819SOL    HW2 7297  13.993   2.270   4.296
 1820SOL     OW 7298   5.705   4.093   9.643
 1820SOL    HW1 7299   5.629   4.140   9.610
 1820SOL    HW2 7300   5.724   4.028   9.575
 1821SOL     OW 7301   1.760   1.834  14.268
 1821SOL    HW1 7302   1.854   1.852  14.269
 1821SOL    HW2 7303   1.722   1.904  14.322
 1822SOL     OW 7304   3.430  14.842   2.085
 1822SOL    HW1 7305   3.434  14.767   2.026
 1822SOL    HW2 7306   3.387   0.037   2.034
 1823SOL     OW 7307   9.180   8.413   5.829
 1823SOL    HW1 7308   9.271   8.386   5.835
 1823SOL    HW2 7309   9.132   8.346   5.878
 1824SOL     OW 7310  14.410   4.124  11.047
 1824SOL    HW1 7311  14.412   4.051  10.985
 1824SOL    HW2 7312  14.497   4.163  11.041
 1825SOL     OW 7313   2.175  14.658   8.287
 1825SOL    HW1 7314   2.152  14.710   8.363
 1825SOL    HW2 7315   2.139  14.571   8.306
 1826SOL     OW 7316   2.247   2.051   3.046
 1826SOL    HW1 7317   2.270   2.129   3.097
 1826SOL    HW2 7318   2.303   2.055   2.968
 1827SOL     OW 7319  14.633   6.296  14.607
 1827SOL    HW1 7320  14.724   6.301  14.577
 1827SOL    HW2 7321  14.640   6.293  14.703
 1828SOL     OW 7322   2.625   8.567   5.850
 1828SOL    HW1 7323   2.535   8.567   5.818
 1828SOL    HW2 7324   2.622   8.522   5.934
 1829SOL     OW 7325   3.724  12.540   6.164
 1829SOL    HW1 7326   3.805  12.589   6.184
 1829SOL    HW2 7327   3.700  12.569   6.076
 1830SOL     OW 7328   5.783   2.210  11.473
 1830SOL    HW1 7329   5.761   2.172  11.388
 1830SOL    HW2 7330   5.852   2.153  11.507
 1831SOL     OW 7331   4.697   1.494   8.270
 1831SOL    HW1 7332   4.751   1.438   8.326
 1831SOL    HW2 7333   4.716   1.465   8.181
 1832SOL     OW 7334  14.462   4.756  12.747
 1832SOL    HW1 7335  14.469   4.790  12.658
 1832SOL    HW2 7336  14.380   4.791  12.780
 1833SOL     OW 7337   3.797   0.022   9.413
 1833SOL    HW1 7338   3.875  14.858   9.372
 1833SOL    HW2 7339   3.730   0.021   9.344
 1834SOL     OW 7340  10.980   3.697   0.657
 1834SOL    HW1 7341  10.943   3.609   0.659
 1834SOL    HW2 7342  11.072   3.684   0.633
 1835SOL     OW 7343   7.574  12.399   3.861
 1835SOL    HW1 7344   7.558  12.370   3.951
 1835SOL    HW2 7345   7.490  12.435   3.832
 1836SOL     OW 7346   2.974   2.358   8.987
 1836SOL    HW1 7347   2.953   2.430   9.047
 1836SOL    HW2 7348   3.067   2.340   9.003
 1837SOL     OW 7349   3.757   5.591   3.963
 1837SOL    HW1 7350   3.752   5.561   4.053
 1837SOL    HW2 7351   3.667   5.581   3.930
 1838SOL     OW 7352   7.307  13.860  10.561
 1838SOL    HW1 7353   7.272  13.948  10.548
 1838SOL    HW2 7354   7.358  13.866  10.641
 1839SOL     OW 7355  12.771   0.059   5.698
 1839SOL    HW1 7356  12.795  14.843   5.672
 1839SOL    HW2 7357  12.854   0.106   5.701
 1840SOL     OW 7358  13.807  13.124  12.779
 1840SOL    HW1 7359  13.719  13.161  12.779
 1840SOL    HW2 7360  13.865  13.199  12.796
 1841SOL     OW 7361   8.654  13.499  12.108
 1841SOL    HW1 7362   8.635  13.406  12.120
 1841SOL    HW2 7363   8.747  13.502  12.085
 1842SOL     OW 7364   0.466   2.345   5.918
 1842SOL    HW1 7365   0.449   2.332   6.012
 1842SOL    HW2 7366   0.508   2.430   5.913
 1843SOL     OW 7367   8.002   7.110  11.412
 1843SOL    HW1 7368   7.981   7.139  11.501
 1843SOL    HW2 7369   7.984   7.016  11.411
 1844SOL     OW 7370   8.494   9.285   5.583
 1844SOL    HW1 7371   8.403   9.261   5.599
 1844SOL    HW2 7372   8.500   9.376   5.612
 1845SOL     OW 7373  11.372   8.564  14.771
 1845SOL    HW1 7374  11.323   8.526  14.844
 1845SOL    HW2 7375  11.341   8.516  14.694
 1846SOL     OW 7376   1.442   0.698   2.512
 1846SOL    HW1 7377   1.373   0.632   2.515
 1846SOL    HW2 7378   1.405   0.773   2.560
 1847SOL     OW 7379   8.599   1.096   7.295
 1847SOL    HW1 7380   8.638   1.161   7.237
 1847SOL    HW2 7381   8.574   1.145   7.373
 1848SOL     OW 7382  11.345   7.926   3.426
 1848SOL    HW1 7383  11.333   7.866   3.352
 1848SOL    HW2 7384  11.258   7.934   3.464
 1849SOL     OW 7385  13.346   0.606   8.723
 1849SOL    HW1 7386  13.420   0.642   8.773
 1849SOL    HW2 7387  13.316   0.679   8.669
 1850SOL     OW 7388   7.872  13.325   9.824
 1850SOL    HW1 7389   7.807  13.351   9.758
 1850SOL    HW2 7390   7.869  13.230   9.824
 1851SOL     OW 7391   5.134   1.660   9.621
 1851SOL    HW1 7392   5.149   1.748   9.654
 1851SOL    HW2 7393   5.200   1.648   9.553
 1852SOL     OW 7394   5.741  10.448   7.092
 1852SOL    HW1 7395   5.715  10.412   7.177
 1852SOL    HW2 7396   5.658  10.462   7.047
 1853SOL     OW 7397   5.672   3.128  14.511
 1853SOL    HW1 7398   5.677   3.147  14.418
 1853SOL    HW2 7399   5.583   3.095  14.523
 1854SOL     OW 7400   5.157  12.359  14.129
 1854SOL    HW1 7401   5.071  12.360  14.089
 1854SOL    HW2 7402   5.208  12.421  14.076
 1855SOL     OW 7403   3.509   9.728   8.345
 1855SOL    HW1 7404   3.525   9.664   8.276
 1855SOL    HW2 7405   3.427   9.700   8.385
 1856SOL     OW 7406  13.145   0.855  10.664
 1856SOL    HW1 7407  13.089   0.895  10.598
 1856SOL    HW2 7408  13.151   0.921  10.733
 1857SOL     OW 7409   7.765   8.865  11.555
 1857SOL    HW1 7410   7.700   8.936  11.550
 1857SOL    HW2 7411   7.850   8.909  11.548
 1858SOL     OW 7412   4.364  10.418   3.551
 1858SOL    HW1 7413   4.347  10.466   3.470
 1858SOL    HW2 7414   4.281  10.418   3.598
 1859SOL     OW 7415  14.767   9.707   5.115
 1859SOL    HW1 7416  14.801   9.796   5.122
 1859SOL    HW2 7417  14.688   9.707   5.170
 1860SOL     OW 7418   5.476   1.602   1.522
 1860SOL    HW1 7419   5.381   1.592   1.530
 1860SOL    HW2 7420   5.489   1.640   1.435
 1861SOL     OW 7421  11.948   4.782  11.922
 1861SOL    HW1 7422  11.932   4.734  11.841
 1861SOL    HW2 7423  11.868   4.768  11.974
 1862SOL     OW 7424  10.431   2.107  14.616
 1862SOL    HW1 7425  10.350   2.060  14.636
 1862SOL    HW2 7426  10.433   2.109  14.520
 1863SOL     OW 7427   0.260   6.078   7.833
 1863SOL    HW1 7428   0.278   5.985   7.818
 1863SOL    HW2 7429   0.223   6.109   7.751
 1864SOL     OW 7430   5.752  11.469  12.758
 1864SOL    HW1 7431   5.826  11.431  12.711
 1864SOL    HW2 7432   5.772  11.562  12.765
 1865SOL     OW 7433  12.306   1.929   1.769
 1865SOL    HW1 7434  12.278   2.018   1.747
 1865SOL    HW2 7435  12.401   1.931   1.758
 1866SOL     OW 7436   8.847   3.580  14.662
 1866SOL    HW1 7437   8.769   3.595  14.715
 1866SOL    HW2 7438   8.883   3.498  14.696
 1867SOL     OW 7439   8.415   7.926   4.728
 1867SOL    HW1 7440   8.343   7.888   4.778
 1867SOL    HW2 7441   8.372   7.983   4.663
 1868SOL     OW 7442  13.272   2.762   2.637
 1868SOL    HW1 7443  13.338   2.763   2.706
 1868SOL    HW2 7444  13.314   2.713   2.565
 1869SOL     OW 7445   6.628   6.494   8.202
 1869SOL    HW1 7446   6.699   6.467   8.260
 1869SOL    HW2 7447   6.650   6.585   8.179
 1870SOL     OW 7448  10.069  10.425   0.453
 1870SOL    HW1 7449  10.114  10.377   0.384
 1870SOL    HW2 7450   9.987  10.377   0.466
 1871SOL     OW 7451  12.054  13.545   1.943
 1871SOL    HW1 7452  12.141  13.584   1.937
 1871SOL    HW2 7453  12.067  13.454   1.916
 1872SOL     OW 7454   8.913  12.665   1.906
 1872SOL    HW1 7455   8.945  12.638   1.992
 1872SOL    HW2 7456   8.865  12.589   1.874
 1873SOL     OW 7457   4.297  10.668  10.206
 1873SOL    HW1 7458   4.305  10.577  10.178
 1873SOL    HW2 7459   4.345  10.672  10.289
 1874SOL     OW 7460   9.206   1.785  12.590
 1874SOL    HW1 7461   9.145   1.771  12.662
 1874SOL    HW2 7462   9.198   1.878  12.568
 1875SOL     OW 7463   8.740   5.925   7.235
 1875SOL    HW1 7464   8.834   5.939   7.231
 1875SOL    HW2 7465   8.708   5.992   7.296
 1876SOL     OW 7466   2.413  10.815  11.333
 1876SOL    HW1 7467   2.457  10.881  11.280
 1876SOL    HW2 7468   2.452  10.824  11.420
 1877SOL     OW 7469   8.267   2.611   1.046
 1877SOL    HW1 7470   8.208   2.678   1.012
 1877SOL    HW2 7471   8.330   2.659   1.099
 1878SOL     OW 7472   3.581   0.632  10.237
 1878SOL    HW1 7473   3.522   0.679  10.179
 1878SOL    HW2 7474   3.548   0.650  10.325
 1879SOL     OW 7475  12.212   6.037   8.986
 1879SOL    HW1 7476  12.183   6.015   8.897
 1879SOL    HW2 7477  12.228   5.952   9.027
 1880SOL     OW 7478   1.342   3.942   9.293
 1880SOL    HW1 7479   1.394   3.968   9.218
 1880SOL    HW2 7480   1.362   3.849   9.305
 1881SOL     OW 7481   3.716  10.574   7.765
 1881SOL    HW1 7482   3.732  10.627   7.843
 1881SOL    HW2 7483   3.623  10.590   7.745
 1882SOL     OW 7484  12.065  11.522   4.513
 1882SOL    HW1 7485  12.103  11.438   4.489
 1882SOL    HW2 7486  11.975  11.517   4.480
 1883SOL     OW 7487   2.474   1.357   0.725
 1883SOL    HW1 7488   2.420   1.362   0.804
 1883SOL    HW2 7489   2.478   1.264   0.705
 1884SOL     OW 7490  13.402  11.787  14.533
 1884SOL    HW1 7491  13.333  11.820  14.475
 1884SOL    HW2 7492  13.446  11.866  14.565
 1885SOL     OW 7493   2.502   4.213   7.528
 1885SOL    HW1 7494   2.493   4.135   7.474
 1885SOL    HW2 7495   2.551   4.275   7.474
 1886SOL     OW 7496  14.850  13.237   8.878
 1886SOL    HW1 7497   0.005  13.300   8.811
 1886SOL    HW2 7498   0.040  13.165   8.872
 1887SOL     OW 7499   2.309  12.373   5.391
 1887SOL    HW1 7500   2.221  12.349   5.417
 1887SOL    HW2 7501   2.357  12.385   5.473
 1888SOL     OW 7502   5.230  11.175   7.452
 1888SOL    HW1 7503   5.168  11.222   7.396
 1888SOL    HW2 7504   5.193  11.087   7.459
 1889SOL     OW 7505   0.336   7.268  11.506
 1889SOL    HW1 7506   0.287   7.350  11.498
 1889SOL    HW2 7507   0.319   7.221  11.425
 1890SOL     OW 7508   8.678   4.550   8.897
 1890SOL    HW1 7509   8.754   4.579   8.848
 1890SOL    HW2 7510   8.675   4.608   8.973
 1891SOL     OW 7511   3.769   8.474   2.647
 1891SOL    HW1 7512   3.723   8.398   2.611
 1891SOL    HW2 7513   3.765   8.462   2.742
 1892SOL     OW 7514   6.438  14.406   2.608
 1892SOL    HW1 7515   6.459  14.359   2.689
 1892SOL    HW2 7516   6.350  14.378   2.586
 1893SOL     OW 7517   1.962  13.079   4.518
 1893SOL    HW1 7518   1.888  13.110   4.467
 1893SOL    HW2 7519   1.924  13.018   4.582
 1894SOL     OW 7520  11.939  12.238   5.141
 1894SOL    HW1 7521  11.992  12.163   5.111
 1894SOL    HW2 7522  11.927  12.291   5.062
 1895SOL     OW 7523   6.162  10.348   3.635
 1895SOL    HW1 7524   6.231  10.414   3.645
 1895SOL    HW2 7525   6.110  10.378   3.561
 1896SOL     OW 7526   7.236   7.991   0.407
 1896SOL    HW1 7527   7.224   7.978   0.313
 1896SOL    HW2 7528   7.274   8.078   0.415
 1897SOL     OW 7529   4.335   1.402  11.464
 1897SOL    HW1 7530   4.338   1.319  11.417
 1897SOL    HW2 7531   4.421   1.411  11.503
 1898SOL     OW 7532  12.240   9.583   9.660
 1898SOL    HW1 7533  12.167   9.522   9.668
 1898SOL    HW2 7534  12.311   9.542   9.710
 1899SOL     OW 7535   6.038  12.733   4.506
 1899SOL    HW1 7536   6.077  12.775   4.583
 1899SOL    HW2 7537   6.106  12.737   4.439
 1900SOL     OW 7538   1.177  12.607  12.981
 1900SOL    HW1 7539   1.088  12.575  12.991
 1900SOL    HW2 7540   1.183  12.635  12.890
 1901SOL     OW 7541   9.080   6.403  11.666
 1901SOL    HW1 7542   8.990   6.377  11.686
 1901SOL    HW2 7543   9.089   6.387  11.572
 1902SOL     OW 7544   0.610   3.157  10.391
 1902SOL    HW1 7545   0.547   3.097  10.350
 1902SOL    HW2 7546   0.695   3.130  10.356
 1903SOL     OW 7547   4.994  13.170   5.333
 1903SOL    HW1 7548   4.957  13.155   5.420
 1903SOL    HW2 7549   5.076  13.120   5.333
 1904SOL     OW 7550   4.298   7.564   9.135
 1904SOL    HW1 7551   4.238   7.630   9.168
 1904SOL    HW2 7552   4.243   7.487   9.121
 1905SOL     OW 7553   6.229   5.344   4.077
 1905SOL    HW1 7554   6.264   5.432   4.087
 1905SOL    HW2 7555   6.249   5.321   3.986
 1906SOL     OW 7556  14.355  11.292   8.710
 1906SOL    HW1 7557  14.286  11.353   8.736
 1906SOL    HW2 7558  14.429  11.313   8.767
 1907SOL     OW 7559   6.246  14.070  11.303
 1907SOL    HW1 7560   6.271  14.160  11.325
 1907SOL    HW2 7561   6.289  14.053  11.219
 1908SOL     OW 7562  14.146   0.385  12.874
 1908SOL    HW1 7563  14.147   0.394  12.778
 1908SOL    HW2 7564  14.238   0.377  12.898
 1909SOL     OW 7565   3.451   1.752   3.267
 1909SOL    HW1 7566   3.424   1.661   3.275
 1909SOL    HW2 7567   3.443   1.788   3.355
 1910SOL     OW 7568  11.035   3.604   8.341
 1910SOL    HW1 7569  11.107   3.541   8.338
 1910SOL    HW2 7570  10.961   3.557   8.302
 1911SOL     OW 7571   8.074   5.618   2.956
 1911SOL    HW1 7572   8.021   5.548   2.920
 1911SOL    HW2 7573   8.150   5.574   2.995
 1912SOL     OW 7574   8.192  11.748  10.832
 1912SOL    HW1 7575   8.117  11.694  10.860
 1912SOL    HW2 7576   8.240  11.692  10.771
 1913SOL     OW 7577   8.240   6.134   3.945
 1913SOL    HW1 7578   8.262   6.091   4.027
 1913SOL    HW2 7579   8.316   6.188   3.924
 1914SOL     OW 7580   9.958  10.523  10.940
 1914SOL    HW1 7581   9.958  10.595  10.877
 1914SOL    HW2 7582   9.913  10.451  10.894
 1915SOL     OW 7583  10.367  10.024  13.144
 1915SOL    HW1 7584  10.343  10.117  13.150
 1915SOL    HW2 7585  10.339   9.998  13.056
 1916SOL     OW 7586   8.126   8.471  13.791
 1916SOL    HW1 7587   8.070   8.393  13.787
 1916SOL    HW2 7588   8.067   8.541  13.819
 1917SOL     OW 7589   8.998   6.533   8.411
 1917SOL    HW1 7590   9.073   6.579   8.449
 1917SOL    HW2 7591   8.927   6.597   8.413
 1918SOL     OW 7592  14.530   6.736  13.788
 1918SOL    HW1 7593  14.444   6.698  13.770
 1918SOL    HW2 7594  14.518   6.830  13.778
 1919SOL     OW 7595   0.319  11.354   9.691
 1919SOL    HW1 7596   0.379  11.313   9.628
 1919SOL    HW2 7597   0.334  11.307   9.773
 1920SOL     OW 7598   1.688   1.595  13.168
 1920SOL    HW1 7599   1.616   1.534  13.156
 1920SOL    HW2 7600   1.712   1.586  13.260
 1921SOL     OW 7601  14.717   5.878   9.378
 1921SOL    HW1 7602  14.788   5.938   9.398
 1921SOL    HW2 7603  14.728   5.858   9.285
 1922SOL     OW 7604   2.965  11.618   2.980
 1922SOL    HW1 7605   3.025  11.587   3.048
 1922SOL    HW2 7606   3.004  11.700   2.949
 1923SOL     OW 7607   0.949   3.943   9.949
 1923SOL    HW1 7608   0.993   3.858   9.951
 1923SOL    HW2 7609   0.887   3.939  10.022
 1924SOL     OW 7610   4.132   2.191   3.533
 1924SOL    HW1 7611   4.060   2.128   3.526
 1924SOL    HW2 7612   4.113   2.256   3.466
 1925SOL     OW 7613  11.967   1.866   8.556
 1925SOL    HW1 7614  11.976   1.944   8.501
 1925SOL    HW2 7615  11.967   1.793   8.494
 1926SOL     OW 7616  10.101   2.927  10.772
 1926SOL    HW1 7617  10.162   2.951  10.842
 1926SOL    HW2 7618  10.135   2.973  10.695
 1927SOL     OW 7619  11.024  11.618   4.435
 1927SOL    HW1 7620  11.043  11.542   4.490
 1927SOL    HW2 7621  10.943  11.654   4.471
 1928SOL     OW 7622   7.586   4.694   5.117
 1928SOL    HW1 7623   7.594   4.644   5.198
 1928SOL    HW2 7624   7.560   4.782   5.145
 1929SOL     OW 7625   5.513  14.779   1.355
 1929SOL    HW1 7626   5.593  14.820   1.387
 1929SOL    HW2 7627   5.449  14.850   1.352
 1930SOL     OW 7628   0.065   6.688   2.598
 1930SOL    HW1 7629   0.031   6.757   2.656
 1930SOL    HW2 7630   0.160   6.691   2.612
 1931SOL     OW 7631   3.239  12.200   1.270
 1931SOL    HW1 7632   3.250  12.268   1.204
 1931SOL    HW2 7633   3.302  12.132   1.246
 1932SOL     OW 7634   2.332  14.122  10.270
 1932SOL    HW1 7635   2.259  14.099  10.328
 1932SOL    HW2 7636   2.393  14.049  10.279
 1933SOL     OW 7637  12.313   1.467   7.410
 1933SOL    HW1 7638  12.272   1.502   7.489
 1933SOL    HW2 7639  12.385   1.528   7.392
 1934SOL     OW 7640   0.662  10.164  13.167
 1934SOL    HW1 7641   0.610  10.242  13.186
 1934SOL    HW2 7642   0.598  10.094  13.156
 1935SOL     OW 7643   5.470  12.807  10.465
 1935SOL    HW1 7644   5.493  12.730  10.517
 1935SOL    HW2 7645   5.375  12.815  10.474
 1936SOL     OW 7646   4.804  10.602  11.043
 1936SOL    HW1 7647   4.816  10.508  11.031
 1936SOL    HW2 7648   4.819  10.639  10.955
 1937SOL     OW 7649   8.349   7.741   1.225
 1937SOL    HW1 7650   8.442   7.731   1.245
 1937SOL    HW2 7651   8.305   7.715   1.306
 1938SOL     OW 7652   3.928   6.169   3.522
 1938SOL    HW1 7653   4.000   6.193   3.580
 1938SOL    HW2 7654   3.855   6.225   3.550
 1939SOL     OW 7655   7.599   4.419   8.367
 1939SOL    HW1 7656   7.654   4.441   8.441
 1939SOL    HW2 7657   7.610   4.324   8.355
 1940SOL     OW 7658   6.245   9.405   9.389
 1940SOL    HW1 7659   6.198   9.426   9.469
 1940SOL    HW2 7660   6.242   9.309   9.384
 1941SOL     OW 7661   1.205   4.545  13.440
 1941SOL    HW1 7662   1.131   4.578  13.490
 1941SOL    HW2 7663   1.166   4.487  13.374
 1942SOL     OW 7664   8.173   1.099   1.098
 1942SOL    HW1 7665   8.224   1.081   1.177
 1942SOL    HW2 7666   8.198   1.189   1.074
 1943SOL     OW 7667  13.047   8.509  10.531
 1943SOL    HW1 7668  13.018   8.550  10.613
 1943SOL    HW2 7669  12.966   8.493  10.482
 1944SOL     OW 7670   6.240  10.528   9.160
 1944SOL    HW1 7671   6.235  10.521   9.064
 1944SOL    HW2 7672   6.149  10.525   9.189
 1945SOL     OW 7673   1.785  14.544   1.834
 1945SOL    HW1 7674   1.744  14.600   1.900
 1945SOL    HW2 7675   1.723  14.474   1.820
 1946SOL     OW 7676  10.169   4.093   5.902
 1946SOL    HW1 7677  10.112   4.163   5.936
 1946SOL    HW2 7678  10.237   4.140   5.853
 1947SOL     OW 7679   2.529  10.150   3.178
 1947SOL    HW1 7680   2.578  10.070   3.159
 1947SOL    HW2 7681   2.555  10.174   3.267
 1948SOL     OW 7682  11.139   7.366   1.362
 1948SOL    HW1 7683  11.044   7.370   1.373
 1948SOL    HW2 7684  11.166   7.456   1.344
 1949SOL     OW 7685  11.828   7.388   8.752
 1949SOL    HW1 7686  11.864   7.305   8.782
 1949SOL    HW2 7687  11.902   7.432   8.709
 1950SOL     OW 7688  13.410   7.606  14.511
 1950SOL    HW1 7689  13.412   7.655  14.593
 1950SOL    HW2 7690  13.487   7.634  14.463
 1951SOL     OW 7691   2.520   3.282   7.898
 1951SOL    HW1 7692   2.461   3.341   7.851
 1951SOL    HW2 7693   2.565   3.338   7.961
 1952SOL     OW 7694  14.242   6.031   9.004
 1952SOL    HW1 7695  14.237   6.055   9.097
 1952SOL    HW2 7696  14.228   6.114   8.958
 1953SOL     OW 7697   9.168   7.638   6.093
 1953SOL    HW1 7698   9.164   7.578   6.018
 1953SOL    HW2 7699   9.244   7.609   6.143
 1954SOL     OW 7700   2.709  11.524   6.843
 1954SOL    HW1 7701   2.795  11.524   6.886
 1954SOL    HW2 7702   2.709  11.603   6.789
 1955SOL     OW 7703   8.745   1.318  13.321
 1955SOL    HW1 7704   8.649   1.315  13.324
 1955SOL    HW2 7705   8.768   1.280  13.236
 1956SOL     OW 7706   3.044   9.535   5.831
 1956SOL    HW1 7707   3.116   9.518   5.770
 1956SOL    HW2 7708   2.974   9.571   5.776
 1957SOL     OW 7709  13.799  14.043  11.856
 1957SOL    HW1 7710  13.741  14.071  11.785
 1957SOL    HW2 7711  13.847  14.121  11.880
 1958SOL     OW 7712   9.487   9.541  11.904
 1958SOL    HW1 7713   9.470   9.528  11.811
 1958SOL    HW2 7714   9.403   9.523  11.947
 1959SOL     OW 7715  10.170  14.536   4.668
 1959SOL    HW1 7716  10.194  14.468   4.605
 1959SOL    HW2 7717  10.099  14.497   4.720
 1960SOL     OW 7718  11.882   2.511   5.809
 1960SOL    HW1 7719  11.972   2.543   5.815
 1960SOL    HW2 7720  11.856   2.530   5.719
 1961SOL     OW 7721   5.921  14.201  11.490
 1961SOL    HW1 7722   5.827  14.202  11.509
 1961SOL    HW2 7723   5.937  14.114  11.454
 1962SOL     OW 7724   4.376  10.344  13.221
 1962SOL    HW1 7725   4.409  10.300  13.143
 1962SOL    HW2 7726   4.294  10.384  13.193
 1963SOL     OW 7727   6.458   8.755   3.982
 1963SOL    HW1 7728   6.541   8.787   4.016
 1963SOL    HW2 7729   6.434   8.818   3.914
 1964SOL     OW 7730  10.330   3.007  10.310
 1964SOL    HW1 7731  10.408   3.005  10.255
 1964SOL    HW2 7732  10.282   3.084  10.281
 1965SOL     OW 7733   2.470   4.171   7.779
 1965SOL    HW1 7734   2.470   4.162   7.684
 1965SOL    HW2 7735   2.562   4.159   7.804
 1966SOL     OW 7736   3.376  13.726  11.379
 1966SOL    HW1 7737   3.306  13.666  11.405
 1966SOL    HW2 7738   3.455  13.690  11.418
 1967SOL     OW 7739   3.655  12.677   3.904
 1967SOL    HW1 7740   3.564  12.709   3.898
 1967SOL    HW2 7741   3.654  12.594   3.856
 1968SOL     OW 7742  11.466  12.723   9.990
 1968SOL    HW1 7743  11.372  12.713   9.971
 1968SOL    HW2 7744  11.501  12.768   9.914
 1969SOL     OW 7745  14.734  14.074  14.481
 1969SOL    HW1 7746  14.793  14.003  14.503
 1969SOL    HW2 7747  14.731  14.128  14.561
 1970SOL     OW 7748   3.292  12.799   7.782
 1970SOL    HW1 7749   3.343  12.879   7.775
 1970SOL    HW2 7750   3.282  12.785   7.876
 1971SOL     OW 7751   7.496  11.845   9.655
 1971SOL    HW1 7752   7.483  11.793   9.734
 1971SOL    HW2 7753   7.407  11.868   9.627
 1972SOL     OW 7754   4.009   5.477  12.780
 1972SOL    HW1 7755   4.093   5.485  12.826
 1972SOL    HW2 7756   4.011   5.546  12.714
 1973SOL     OW 7757   4.487   3.245   7.669
 1973SOL    HW1 7758   4.419   3.217   7.730
 1973SOL    HW2 7759   4.494   3.174   7.606
 1974SOL     OW 7760  10.404   1.883  10.654
 1974SOL    HW1 7761  10.399   1.951  10.587
 1974SOL    HW2 7762  10.451   1.924  10.727
 1975SOL     OW 7763  11.318   0.356  13.971
 1975SOL    HW1 7764  11.275   0.318  14.047
 1975SOL    HW2 7765  11.403   0.311  13.967
 1976SOL     OW 7766   1.129   6.131   4.551
 1976SOL    HW1 7767   1.036   6.152   4.555
 1976SOL    HW2 7768   1.150   6.130   4.458
 1977SOL     OW 7769  11.541   1.850   8.844
 1977SOL    HW1 7770  11.508   1.768   8.807
 1977SOL    HW2 7771  11.520   1.916   8.778
 1978SOL     OW 7772  12.870   3.067   5.586
 1978SOL    HW1 7773  12.785   3.030   5.611
 1978SOL    HW2 7774  12.932   3.030   5.649
 1979SOL     OW 7775   4.247   3.435   1.175
 1979SOL    HW1 7776   4.315   3.502   1.177
 1979SOL    HW2 7777   4.294   3.352   1.179
 1980SOL     OW 7778  12.070  10.324   7.081
 1980SOL    HW1 7779  12.031  10.302   7.166
 1980SOL    HW2 7780  12.026  10.267   7.019
 1981SOL     OW 7781   1.621   3.670  10.485
 1981SOL    HW1 7782   1.701   3.676  10.433
 1981SOL    HW2 7783   1.628   3.742  10.548
 1982SOL     OW 7784   5.353  10.248   7.595
 1982SOL    HW1 7785   5.357  10.332   7.551
 1982SOL    HW2 7786   5.264  10.216   7.579
 1983SOL     OW 7787   8.559   9.612   5.568
 1983SOL    HW1 7788   8.490   9.567   5.519
 1983SOL    HW2 7789   8.561   9.700   5.529
 1984SOL     OW 7790   9.381   3.714   1.126
 1984SOL    HW1 7791   9.418   3.789   1.173
 1984SOL    HW2 7792   9.309   3.685   1.182
 1985SOL     OW 7793   6.131   7.225  11.338
 1985SOL    HW1 7794   6.068   7.165  11.377
 1985SOL    HW2 7795   6.215   7.198  11.375
 1986SOL     OW 7796   4.725   5.399   9.151
 1986SOL    HW1 7797   4.644   5.451   9.157
 1986SOL    HW2 7798   4.721   5.358   9.065
 1987SOL     OW 7799  13.777   7.237  10.397
 1987SOL    HW1 7800  13.798   7.297  10.468
 1987SOL    HW2 7801  13.712   7.177  10.434
 1988SOL     OW 7802  12.516  11.600  10.004
 1988SOL    HW1 7803  12.513  11.548  10.085
 1988SOL    HW2 7804  12.607  11.626   9.996
 1989SOL     OW 7805   3.608   5.414   5.520
 1989SOL    HW1 7806   3.602   5.355   5.595
 1989SOL    HW2 7807   3.701   5.430   5.510
 1990SOL     OW 7808   7.463  13.154   9.691
 1990SOL    HW1 7809   7.417  13.091   9.746
 1990SOL    HW2 7810   7.394  13.211   9.658
 1991SOL     OW 7811  13.382   8.771  13.535
 1991SOL    HW1 7812  13.346   8.755  13.448
 1991SOL    HW2 7813  13.367   8.864  13.550
 1992SOL     OW 7814   7.439  10.746  12.599
 1992SOL    HW1 7815   7.380  10.683  12.558
 1992SOL    HW2 7816   7.390  10.780  12.673
 1993SOL     OW 7817  10.461   0.870  11.404
 1993SOL    HW1 7818  10.542   0.907  11.368
 1993SOL    HW2 7819  10.425   0.817  11.333
 1994SOL     OW 7820   4.812   2.764  13.244
 1994SOL    HW1 7821   4.757   2.837  13.272
 1994SOL    HW2 7822   4.809   2.768  13.148
 1995SOL     OW 7823  14.621  11.263  14.405
 1995SOL    HW1 7824  14.566  11.338  14.384
 1995SOL    HW2 7825  14.653  11.232  14.320
 1996SOL     OW 7826   9.080  11.609   4.047
 1996SOL    HW1 7827   9.154  11.654   4.087
 1996SOL    HW2 7828   9.023  11.680   4.016
 1997SOL     OW 7829  13.524   5.967   5.046
 1997SOL    HW1 7830  13.542   5.915   4.968
 1997SOL    HW2 7831  13.610   5.996   5.076
 1998SOL     OW 7832   3.284   3.027   5.071
 1998SOL    HW1 7833   3.335   2.996   4.996
 1998SOL    HW2 7834   3.194   3.001   5.050
 1999SOL     OW 7835   0.497   4.625   5.973
 1999SOL    HW1 7836   0.448   4.689   6.024
 1999SOL    HW2 7837   0.450   4.619   5.890
 2000SOL     OW 7838   3.316  12.083   1.894
 2000SOL    HW1 7839   3.266  12.149   1.846
 2000SOL    HW2 7840   3.389  12.131   1.932
 2001SOL     OW 7841   0.077  11.440  11.767
 2001SOL    HW1 7842   0.109  11.349  11.764
 2001SOL    HW2 7843   0.111  11.479  11.687
 2002SOL     OW 7844   4.863  13.857   9.873
 2002SOL    HW1 7845   4.923  13.928   9.853
 2002SOL    HW2 7846   4.838  13.821   9.788
 2003SOL     OW 7847   3.154   2.888   7.066
 2003SOL    HW1 7848   3.215   2.861   7.134
 2003SOL    HW2 7849   3.210   2.911   6.992
 2004SOL     OW 7850  14.444   1.018   2.681
 2004SOL    HW1 7851  14.393   1.071   2.619
 2004SOL    HW2 7852  14.387   0.945   2.703
 2005SOL     OW 7853   6.211   8.148   4.240
 2005SOL    HW1 7854   6.250   8.193   4.314
 2005SOL    HW2 7855   6.149   8.210   4.203
 2006SOL     OW 7856   0.791   6.639  14.004
 2006SOL    HW1 7857   0.719   6.594  14.048
 2006SOL    HW2 7858   0.816   6.581  13.932
 2007SOL     OW 7859   7.839  11.398   1.020
 2007SOL    HW1 7860   7.898  11.342   0.970
 2007SOL    HW2 7861   7.804  11.460   0.955
 2008SOL     OW 7862   8.736   8.735  10.326
 2008SOL    HW1 7863   8.693   8.746  10.411
 2008SOL    HW2 7864   8.789   8.814  10.316
 2009SOL     OW 7865   6.024   8.246  10.294
 2009SOL    HW1 7866   5.949   8.260  10.352
 2009SOL    HW2 7867   6.033   8.150  10.290
 2010SOL     OW 7868   9.254   2.968  12.033
 2010SOL    HW1 7869   9.225   2.952  12.122
 2010SOL    HW2 7870   9.342   3.006  12.042
 2011SOL     OW 7871   9.827  13.173  14.820
 2011SOL    HW1 7872   9.828  13.082  14.851
 2011SOL    HW2 7873   9.903  13.213  14.861
 2012SOL     OW 7874   2.504   8.686  12.480
 2012SOL    HW1 7875   2.434   8.751  12.488
 2012SOL    HW2 7876   2.566   8.725  12.419
 2013SOL     OW 7877  12.137   7.053  10.085
 2013SOL    HW1 7878  12.078   7.125  10.108
 2013SOL    HW2 7879  12.149   7.062   9.990
 2014SOL     OW 7880  12.717   8.588  12.501
 2014SOL    HW1 7881  12.702   8.681  12.482
 2014SOL    HW2 7882  12.633   8.557  12.535
 2015SOL     OW 7883   8.578   5.076   9.256
 2015SOL    HW1 7884   8.574   5.029   9.172
 2015SOL    HW2 7885   8.656   5.132   9.248
 2016SOL     OW 7886  11.681   1.875   1.715
 2016SOL    HW1 7887  11.776   1.867   1.704
 2016SOL    HW2 7888  11.664   1.969   1.709
 2017SOL     OW 7889  13.195   0.714   4.457
 2017SOL    HW1 7890  13.156   0.758   4.533
 2017SOL    HW2 7891  13.134   0.730   4.386
 2018SOL     OW 7892   8.326  11.905   0.935
 2018SOL    HW1 7893   8.410  11.923   0.976
 2018SOL    HW2 7894   8.337  11.932   0.844
 2019SOL     OW 7895  11.490   7.044   1.193
 2019SOL    HW1 7896  11.541   7.107   1.143
 2019SOL    HW2 7897  11.529   7.044   1.280
 2020SOL     OW 7898  11.283   8.613   5.394
 2020SOL    HW1 7899  11.227   8.666   5.337
 2020SOL    HW2 7900  11.264   8.523   5.369
 2021SOL     OW 7901   3.508   5.821   8.848
 2021SOL    HW1 7902   3.443   5.834   8.779
 2021SOL    HW2 7903   3.458   5.829   8.929
 2022SOL     OW 7904   8.144   1.826   0.486
 2022SOL    HW1 7905   8.238   1.815   0.469
 2022SOL    HW2 7906   8.136   1.915   0.521
 2023SOL     OW 7907  14.852  10.768   0.964
 2023SOL    HW1 7908  14.781  10.807   0.914
 2023SOL    HW2 7909   0.036  10.728   0.898
 2024SOL     OW 7910   0.093   2.963  10.223
 2024SOL    HW1 7911   0.105   2.868  10.230
 2024SOL    HW2 7912   0.086   2.992  10.314
 2025SOL     OW 7913  10.145   3.678  13.136
 2025SOL    HW1 7914  10.070   3.624  13.111
 2025SOL    HW2 7915  10.181   3.709  13.053
 2026SOL     OW 7916   2.721   2.229   3.924
 2026SOL    HW1 7917   2.730   2.137   3.950
 2026SOL    HW2 7918   2.810   2.263   3.924
 2027SOL     OW 7919  12.889  12.785   9.390
 2027SOL    HW1 7920  12.811  12.830   9.358
 2027SOL    HW2 7921  12.942  12.854   9.431
 2028SOL     OW 7922   1.264   4.839   4.185
 2028SOL    HW1 7923   1.212   4.762   4.209
 2028SOL    HW2 7924   1.329   4.806   4.124
 2029SOL     OW 7925   9.535   8.725   0.245
 2029SOL    HW1 7926   9.558   8.753   0.334
 2029SOL    HW2 7927   9.575   8.639   0.236
 2030SOL     OW 7928  12.380   6.887   3.341
 2030SOL    HW1 7929  12.466   6.923   3.360
 2030SOL    HW2 7930  12.322   6.964   3.339
 2031SOL     OW 7931   4.666   4.311  12.107
 2031SOL    HW1 7932   4.617   4.329  12.026
 2031SOL    HW2 7933   4.598   4.299  12.174
 2032SOL     OW 7934   6.157   0.924  11.351
 2032SOL    HW1 7935   6.099   0.998  11.369
 2032SOL    HW2 7936   6.245   0.957  11.368
 2033SOL     OW 7937  12.129   0.840   1.556
 2033SOL    HW1 7938  12.041   0.862   1.524
 2033SOL    HW2 7939  12.134   0.744   1.548
 2034SOL     OW 7940   2.059   1.532   7.173
 2034SOL    HW1 7941   1.969   1.555   7.197
 2034SOL    HW2 7942   2.097   1.613   7.140
 2035SOL     OW 7943  10.679   3.343   4.708
 2035SOL    HW1 7944  10.592   3.323   4.744
 2035SOL    HW2 7945  10.686   3.288   4.630
 2036SOL     OW 7946   6.793  10.805   3.982
 2036SOL    HW1 7947   6.705  10.829   4.011
 2036SOL    HW2 7948   6.809  10.860   3.905
 2037SOL     OW 7949  13.713  13.788  14.748
 2037SOL    HW1 7950  13.646  13.720  14.741
 2037SOL    HW2 7951  13.788  13.753  14.699
 2038SOL     OW 7952   4.506   8.399  13.736
 2038SOL    HW1 7953   4.490   8.356  13.820
 2038SOL    HW2 7954   4.476   8.489  13.750
 2039SOL     OW 7955   8.080  10.569  14.849
 2039SOL    HW1 7956   8.133  10.510   0.029
 2039SOL    HW2 7957   8.135  10.646  14.836
 2040SOL     OW 7958   6.073  14.656  12.013
 2040SOL    HW1 7959   5.998  14.685  11.962
 2040SOL    HW2 7960   6.041  14.580  12.062
 2041SOL     OW 7961   1.944   6.243  12.493
 2041SOL    HW1 7962   1.864   6.213  12.536
 2041SOL    HW2 7963   1.937   6.211  12.403
 2042SOL     OW 7964   3.500   9.178  14.718
 2042SOL    HW1 7965   3.423   9.173  14.775
 2042SOL    HW2 7966   3.540   9.263  14.738
 2043SOL     OW 7967  11.609   8.671   4.705
 2043SOL    HW1 7968  11.620   8.741   4.770
 2043SOL    HW2 7969  11.531   8.624   4.734
 2044SOL     OW 7970   3.342   3.391  14.351
 2044SOL    HW1 7971   3.315   3.341  14.274
 2044SOL    HW2 7972   3.272   3.377  14.415
 2045SOL     OW 7973  11.687  13.573   2.110
 2045SOL    HW1 7974  11.719  13.512   2.044
 2045SOL    HW2 7975  11.631  13.633   2.061
 2046SOL     OW 7976  13.394   0.529  10.115
 2046SOL    HW1 7977  13.455   0.545  10.187
 2046SOL    HW2 7978  13.447   0.542  10.036
 2047SOL     OW 7979   5.056  12.899  13.231
 2047SOL    HW1 7980   5.100  12.955  13.167
 2047SOL    HW2 7981   4.975  12.945  13.251
 2048SOL     OW 7982  11.517   6.732  10.338
 2048SOL    HW1 7983  11.536   6.642  10.311
 2048SOL    HW2 7984  11.457   6.722  10.412
 2049SOL     OW 7985   3.038   0.926   3.066
 2049SOL    HW1 7986   3.116   0.878   3.094
 2049SOL    HW2 7987   3.003   0.964   3.147
 2050SOL     OW 7988   3.051  10.206   7.357
 2050SOL    HW1 7989   3.041  10.134   7.419
 2050SOL    HW2 7990   2.987  10.271   7.385
 2051SOL     OW 7991   7.931  11.034   3.933
 2051SOL    HW1 7992   7.870  11.101   3.963
 2051SOL    HW2 7993   7.998  11.030   4.001
 2052SOL     OW 7994  11.091   1.988  12.318
 2052SOL    HW1 7995  11.108   1.960  12.228
 2052SOL    HW2 7996  11.173   1.972  12.364
 2053SOL     OW 7997  12.769   4.206  10.768
 2053SOL    HW1 7998  12.823   4.128  10.754
 2053SOL    HW2 7999  12.762   4.212  10.864
 2054SOL     OW 8000  13.003   8.232   5.998
 2054SOL    HW1 8001  13.037   8.147   5.971
 2054SOL    HW2 8002  12.928   8.212   6.053
 2055SOL     OW 8003   5.485   2.917  13.751
 2055SOL    HW1 8004   5.547   2.904  13.679
 2055SOL    HW2 8005   5.431   2.838  13.750
 2056SOL     OW 8006   5.610   8.165  14.579
 2056SOL    HW1 8007   5.614   8.176  14.484
 2056SOL    HW2 8008   5.701   8.160  14.606
 2057SOL     OW 8009   1.375   2.686  14.302
 2057SOL    HW1 8010   1.426   2.667  14.381
 2057SOL    HW2 8011   1.439   2.718  14.239
 2058SOL     OW 8012   7.618  11.539  11.261
 2058SOL    HW1 8013   7.546  11.516  11.320
 2058SOL    HW2 8014   7.697  11.511  11.307
 2059SOL     OW 8015   1.866  14.674  11.270
 2059SOL    HW1 8016   1.888  14.641  11.183
 2059SOL    HW2 8017   1.826  14.760  11.253
 2060SOL     OW 8018   9.234  13.530   7.802
 2060SOL    HW1 8019   9.319  13.503   7.836
 2060SOL    HW2 8020   9.170  13.496   7.865
 2061SOL     OW 8021   6.104   5.782   3.570
 2061SOL    HW1 8022   6.161   5.705   3.570
 2061SOL    HW2 8023   6.017   5.748   3.549
 2062SOL     OW 8024  14.260   6.003  10.295
 2062SOL    HW1 8025  14.225   6.045  10.216
 2062SOL    HW2 8026  14.339   5.957  10.265
 2063SOL     OW 8027   1.262  14.478  11.911
 2063SOL    HW1 8028   1.327  14.548  11.920
 2063SOL    HW2 8029   1.305  14.401  11.949
 2064SOL     OW 8030   6.817   2.106  13.385
 2064SOL    HW1 8031   6.839   2.022  13.425
 2064SOL    HW2 8032   6.792   2.162  13.458
 2065SOL     OW 8033   5.280   6.407  11.332
 2065SOL    HW1 8034   5.228   6.397  11.412
 2065SOL    HW2 8035   5.371   6.407  11.363
 2066SOL     OW 8036  10.159  11.532   1.589
 2066SOL    HW1 8037  10.244  11.567   1.617
 2066SOL    HW2 8038  10.149  11.563   1.499
 2067SOL     OW 8039   3.271  14.365   8.388
 2067SOL    HW1 8040   3.257  14.453   8.353
 2067SOL    HW2 8041   3.214  14.309   8.335
 2068SOL     OW 8042   4.154   4.118  11.678
 2068SOL    HW1 8043   4.161   4.141  11.771
 2068SOL    HW2 8044   4.061   4.097  11.666
 2069SOL     OW 8045  13.457  11.555   5.122
 2069SOL    HW1 8046  13.416  11.641   5.129
 2069SOL    HW2 8047  13.385  11.496   5.102
 2070SOL     OW 8048   6.103  14.519   6.924
 2070SOL    HW1 8049   6.092  14.425   6.914
 2070SOL    HW2 8050   6.191  14.537   6.891
 2071SOL     OW 8051   2.472  12.853  12.240
 2071SOL    HW1 8052   2.410  12.914  12.200
 2071SOL    HW2 8053   2.418  12.791  12.289
 2072SOL     OW 8054  13.490   0.044   1.168
 2072SOL    HW1 8055  13.407   0.041   1.119
 2072SOL    HW2 8056  13.515   0.136   1.167
 2073SOL     OW 8057   9.885   0.094   6.853
 2073SOL    HW1 8058   9.896   0.128   6.941
 2073SOL    HW2 8059   9.899   0.169   6.796
 2074SOL     OW 8060  10.887  14.458   4.688
 2074SOL    HW1 8061  10.964  14.467   4.632
 2074SOL    HW2 8062  10.812  14.465   4.629
 2075SOL     OW 8063  13.922  11.130   6.512
 2075SOL    HW1 8064  13.891  11.189   6.581
 2075SOL    HW2 8065  13.945  11.049   6.558
 2076SOL     OW 8066   5.116   7.500  13.654
 2076SOL    HW1 8067   5.086   7.478  13.742
 2076SOL    HW2 8068   5.084   7.429  13.599
 2077SOL     OW 8069  14.162  13.278   7.020
 2077SOL    HW1 8070  14.146  13.269   7.114
 2077SOL    HW2 8071  14.185  13.371   7.008
 2078SOL     OW 8072   2.835  12.885   4.550
 2078SOL    HW1 8073   2.893  12.877   4.625
 2078SOL    HW2 8074   2.747  12.897   4.587
 2079SOL     OW 8075   5.884   6.129   5.077
 2079SOL    HW1 8076   5.927   6.125   5.162
 2079SOL    HW2 8077   5.792   6.144   5.097
 2080SOL     OW 8078  11.216   5.503  11.867
 2080SOL    HW1 8079  11.282   5.573  11.867
 2080SOL    HW2 8080  11.192   5.492  11.775
 2081SOL     OW 8081   0.396   4.550   0.090
 2081SOL    HW1 8082   0.389   4.520   0.180
 2081SOL    HW2 8083   0.446   4.631   0.095
 2082SOL     OW 8084  13.939   8.299  11.107
 2082SOL    HW1 8085  13.885   8.296  11.186
 2082SOL    HW2 8086  13.877   8.310  11.035
 2083SOL     OW 8087   9.753   6.000   7.502
 2083SOL    HW1 8088   9.818   6.012   7.432
 2083SOL    HW2 8089   9.669   6.012   7.458
 2084SOL     OW 8090  14.569   8.212   6.271
 2084SOL    HW1 8091  14.572   8.117   6.281
 2084SOL    HW2 8092  14.552   8.226   6.177
 2085SOL     OW 8093  11.481   6.786   8.576
 2085SOL    HW1 8094  11.442   6.772   8.662
 2085SOL    HW2 8095  11.468   6.880   8.558
 2086SOL     OW 8096   9.702   3.638   1.700
 2086SOL    HW1 8097   9.671   3.566   1.756
 2086SOL    HW2 8098   9.697   3.602   1.611
 2087SOL     OW 8099  12.436   5.512   6.231
 2087SOL    HW1 8100  12.403   5.434   6.276
 2087SOL    HW2 8101  12.360   5.570   6.225
 2088SOL     OW 8102  11.012   1.144   2.937
 2088SOL    HW1 8103  11.065   1.071   2.968
 2088SOL    HW2 8104  10.927   1.131   2.980
 2089SOL     OW 8105  11.679   2.307  12.516
 2089SOL    HW1 8106  11.641   2.393  12.499
 2089SOL    HW2 8107  11.737   2.320  12.591
 2090SOL     OW 8108   9.695   5.199  12.298
 2090SOL    HW1 8109   9.676   5.193  12.391
 2090SOL    HW2 8110   9.669   5.287  12.273
 2091SOL     OW 8111   0.513  10.399  13.164
 2091SOL    HW1 8112   0.577  10.428  13.099
 2091SOL    HW2 8113   0.517  10.466  13.232
 2092SOL     OW 8114   5.196   7.535  12.866
 2092SOL    HW1 8115   5.140   7.459  12.879
 2092SOL    HW2 8116   5.151   7.607  12.909
 2093SOL     OW 8117   4.187   1.239   4.506
 2093SOL    HW1 8118   4.129   1.215   4.578
 2093SOL    HW2 8119   4.185   1.335   4.504
 2094SOL     OW 8120   7.444   3.340   7.785
 2094SOL    HW1 8121   7.443   3.306   7.696
 2094SOL    HW2 8122   7.467   3.265   7.839
 2095SOL     OW 8123   5.180  14.277   8.547
 2095SOL    HW1 8124   5.131  14.354   8.515
 2095SOL    HW2 8125   5.189  14.293   8.641
 2096SOL     OW 8126  10.679   6.435   8.797
 2096SOL    HW1 8127  10.673   6.507   8.735
 2096SOL    HW2 8128  10.588   6.412   8.816
 2097SOL     OW 8129  14.665   4.253   5.129
 2097SOL    HW1 8130  14.634   4.247   5.220
 2097SOL    HW2 8131  14.751   4.295   5.137
 2098SOL     OW 8132   3.838   5.554   7.723
 2098SOL    HW1 8133   3.921   5.538   7.678
 2098SOL    HW2 8134   3.792   5.471   7.719
 2099SOL     OW 8135   9.216   8.151   0.588
 2099SOL    HW1 8136   9.144   8.112   0.638
 2099SOL    HW2 8137   9.278   8.079   0.574
 2100SOL     OW 8138  11.010  10.732  12.008
 2100SOL    HW1 8139  11.019  10.827  12.014
 2100SOL    HW2 8140  10.987  10.716  11.916
 2101SOL     OW 8141   2.410   0.466  14.825
 2101SOL    HW1 8142   2.377   0.401   0.013
 2101SOL    HW2 8143   2.505   0.459  14.833
 2102SOL     OW 8144   2.021   7.909   6.348
 2102SOL    HW1 8145   2.052   7.822   6.325
 2102SOL    HW2 8146   1.981   7.898   6.435
 2103SOL     OW 8147   0.702   4.196  13.954
 2103SOL    HW1 8148   0.726   4.265  13.891
 2103SOL    HW2 8149   0.618   4.224  13.990
 2104SOL     OW 8150  13.013  13.126   8.863
 2104SOL    HW1 8151  12.921  13.155   8.859
 2104SOL    HW2 8152  13.008  13.032   8.881
 2105SOL     OW 8153   3.696   7.712   0.502
 2105SOL    HW1 8154   3.678   7.730   0.595
 2105SOL    HW2 8155   3.713   7.618   0.499
 2106SOL     OW 8156   1.927   3.802   7.917
 2106SOL    HW1 8157   1.943   3.736   7.850
 2106SOL    HW2 8158   1.851   3.851   7.884
 2107SOL     OW 8159   8.745  10.924   0.253
 2107SOL    HW1 8160   8.810  10.913   0.183
 2107SOL    HW2 8161   8.735  11.019   0.262
 2108SOL     OW 8162   2.082   8.479   3.682
 2108SOL    HW1 8163   2.053   8.561   3.723
 2108SOL    HW2 8164   2.010   8.418   3.698
 2109SOL     OW 8165   4.525   2.324   0.168
 2109SOL    HW1 8166   4.514   2.415   0.197
 2109SOL    HW2 8167   4.617   2.304   0.185
 2110SOL     OW 8168   2.947  10.524   9.271
 2110SOL    HW1 8169   2.951  10.619   9.263
 2110SOL    HW2 8170   2.971  10.492   9.184
 2111SOL     OW 8171   1.781  14.596  13.617
 2111SOL    HW1 8172   1.802  14.563  13.705
 2111SOL    HW2 8173   1.690  14.572  13.603
 2112SOL     OW 8174   2.457  10.008  14.802
 2112SOL    HW1 8175   2.549  10.035  14.794
 2112SOL    HW2 8176   2.417  10.074  14.859
 2113SOL     OW 8177  13.207   9.481   4.445
 2113SOL    HW1 8178  13.112   9.478   4.437
 2113SOL    HW2 8179  13.239   9.467   4.356
 2114SOL     OW 8180  11.624   0.658  11.430
 2114SOL    HW1 8181  11.603   0.593  11.496
 2114SOL    HW2 8182  11.686   0.717  11.473
 2115SOL     OW 8183   0.554   9.847   0.746
 2115SOL    HW1 8184   0.534   9.935   0.778
 2115SOL    HW2 8185   0.634   9.822   0.791
 2116SOL     OW 8186  14.222  10.749   0.870
 2116SOL    HW1 8187  14.306  10.733   0.827
 2116SOL    HW2 8188  14.231  10.708   0.956
 2117SOL     OW 8189   4.175   6.931  12.227
 2117SOL    HW1 8190   4.206   6.974  12.307
 2117SOL    HW2 8191   4.250   6.880  12.197
 2118SOL     OW 8192   8.891   7.859   9.839
 2118SOL    HW1 8193   8.864   7.813   9.919
 2118SOL    HW2 8194   8.968   7.908   9.865
 2119SOL     OW 8195  10.835  13.941   8.787
 2119SOL    HW1 8196  10.753  13.981   8.759
 2119SOL    HW2 8197  10.878  13.914   8.705
 2120SOL     OW 8198   2.581   8.579  13.698
 2120SOL    HW1 8199   2.566   8.666  13.735
 2120SOL    HW2 8200   2.673   8.580  13.672
 2121SOL     OW 8201  11.931   6.952   4.433
 2121SOL    HW1 8202  11.875   6.946   4.510
 2121SOL    HW2 8203  11.973   6.866   4.428
 2122SOL     OW 8204   9.775  12.922   9.116
 2122SOL    HW1 8205   9.830  12.931   9.039
 2122SOL    HW2 8206   9.686  12.909   9.082
 2123SOL     OW 8207   7.357   0.271   8.268
 2123SOL    HW1 8208   7.395   0.216   8.200
 2123SOL    HW2 8209   7.349   0.214   8.344
 2124SOL     OW 8210  13.113   9.980   7.461
 2124SOL    HW1 8211  13.180  10.032   7.417
 2124SOL    HW2 8212  13.160   9.901   7.490
 2125SOL     OW 8213  14.013   7.121   6.289
 2125SOL    HW1 8214  13.987   7.186   6.355
 2125SOL    HW2 8215  14.032   7.042   6.339
 2126SOL     OW 8216  12.576   3.732   1.954
 2126SOL    HW1 8217  12.595   3.825   1.948
 2126SOL    HW2 8218  12.555   3.707   1.864
 2127SOL     OW 8219   9.083   0.008   0.251
 2127SOL    HW1 8220   9.134  14.845   0.179
 2127SOL    HW2 8221   9.010  14.820   0.262
 2128SOL     OW 8222  14.274   3.708   7.787
 2128SOL    HW1 8223  14.283   3.658   7.706
 2128SOL    HW2 8224  14.189   3.682   7.822
 2129SOL     OW 8225   6.409   9.703  10.626
 2129SOL    HW1 8226   6.477   9.639  10.607
 2129SOL    HW2 8227   6.331   9.670  10.581
 2130SOL     OW 8228  12.232   0.234  13.045
 2130SOL    HW1 8229  12.308   0.246  13.102
 2130SOL    HW2 8230  12.171   0.182  13.097
 2131SOL     OW 8231   4.221   0.818   5.225
 2131SOL    HW1 8232   4.256   0.906   5.211
 2131SOL    HW2 8233   4.293   0.769   5.265
 2132SOL     OW 8234   2.033   4.127  11.871
 2132SOL    HW1 8235   2.021   4.211  11.916
 2132SOL    HW2 8236   2.083   4.074  11.932
 2133SOL     OW 8237  14.512   7.948   1.450
 2133SOL    HW1 8238  14.577   7.889   1.489
 2133SOL    HW2 8239  14.531   7.944   1.356
 2134SOL     OW 8240   4.754   4.792   5.635
 2134SOL    HW1 8241   4.760   4.820   5.726
 2134SOL    HW2 8242   4.671   4.829   5.604
 2135SOL     OW 8243   0.175   7.418  14.147
 2135SOL    HW1 8244   0.190   7.323  14.152
 2135SOL    HW2 8245   0.259   7.454  14.118
 2136SOL     OW 8246   5.204   0.904   5.475
 2136SOL    HW1 8247   5.197   0.992   5.512
 2136SOL    HW2 8248   5.158   0.910   5.391
 2137SOL     OW 8249   4.358  14.495   3.638
 2137SOL    HW1 8250   4.373  14.555   3.711
 2137SOL    HW2 8251   4.439  14.498   3.587
 2138SOL     OW 8252   3.668  11.050  12.421
 2138SOL    HW1 8253   3.680  11.066  12.514
 2138SOL    HW2 8254   3.755  11.062  12.383
 2139SOL     OW 8255   0.620   1.892   7.042
 2139SOL    HW1 8256   0.694   1.841   7.008
 2139SOL    HW2 8257   0.623   1.974   6.992
 2140SOL     OW 8258   7.221   6.168   0.915
 2140SOL    HW1 8259   7.211   6.258   0.884
 2140SOL    HW2 8260   7.262   6.177   1.001
 2141SOL     OW 8261   6.685  14.695   3.095
 2141SOL    HW1 8262   6.631  14.656   3.026
 2141SOL    HW2 8263   6.774  14.693   3.060
 2142SOL     OW 8264   4.883   9.188  13.788
 2142SOL    HW1 8265   4.835   9.269  13.801
 2142SOL    HW2 8266   4.869   9.138  13.869
 2143SOL     OW 8267   2.368   8.579   6.432
 2143SOL    HW1 8268   2.336   8.653   6.483
 2143SOL    HW2 8269   2.460   8.570   6.458
 2144SOL     OW 8270   0.488  10.359   7.789
 2144SOL    HW1 8271   0.552  10.327   7.725
 2144SOL    HW2 8272   0.528  10.341   7.874
 2145SOL     OW 8273   2.038   4.939  12.507
 2145SOL    HW1 8274   2.073   4.852  12.486
 2145SOL    HW2 8275   2.056   4.951  12.600
 2146SOL     OW 8276   0.883   8.102   0.136
 2146SOL    HW1 8277   0.812   8.146   0.090
 2146SOL    HW2 8278   0.963   8.145   0.105
 2147SOL     OW 8279   1.244   9.979  13.673
 2147SOL    HW1 8280   1.215   9.887  13.670
 2147SOL    HW2 8281   1.300   9.989  13.597
 2148SOL     OW 8282   0.229   1.930  12.487
 2148SOL    HW1 8283   0.147   1.961  12.524
 2148SOL    HW2 8284   0.233   1.969  12.400
 2149SOL     OW 8285   9.490  12.830   5.037
 2149SOL    HW1 8286   9.480  12.785   5.121
 2149SOL    HW2 8287   9.543  12.770   4.984
 2150SOL     OW 8288   7.012   8.406   0.350
 2150SOL    HW1 8289   6.966   8.484   0.382
 2150SOL    HW2 8290   7.103   8.419   0.377
 2151SOL     OW 8291   3.542   7.137   5.956
 2151SOL    HW1 8292   3.505   7.051   5.936
 2151SOL    HW2 8293   3.612   7.120   6.019
 2152SOL     OW 8294  10.739  10.233   8.234
 2152SOL    HW1 8295  10.684  10.230   8.312
 2152SOL    HW2 8296  10.758  10.326   8.222
 2153SOL     OW 8297   5.852   7.696   6.084
 2153SOL    HW1 8298   5.862   7.786   6.052
 2153SOL    HW2 8299   5.821   7.647   6.008
 2154SOL     OW 8300   2.533   1.426   0.455
 2154SOL    HW1 8301   2.492   1.360   0.400
 2154SOL    HW2 8302   2.509   1.401   0.544
 2155SOL     OW 8303  11.254   4.414   2.193
 2155SOL    HW1 8304  11.247   4.437   2.101
 2155SOL    HW2 8305  11.346   4.389   2.204
 2156SOL     OW 8306   6.571   8.469   4.505
 2156SOL    HW1 8307   6.532   8.548   4.468
 2156SOL    HW2 8308   6.590   8.413   4.430
 2157SOL     OW 8309  11.804  11.921   1.177
 2157SOL    HW1 8310  11.721  11.967   1.189
 2157SOL    HW2 8311  11.853  11.938   1.257
 2158SOL     OW 8312   1.015   3.576   6.119
 2158SOL    HW1 8313   1.080   3.519   6.160
 2158SOL    HW2 8314   1.052   3.596   6.033
 2159SOL     OW 8315   3.307   8.923  13.842
 2159SOL    HW1 8316   3.350   8.842  13.814
 2159SOL    HW2 8317   3.243   8.895  13.908
 2160SOL     OW 8318   6.435  13.891  13.590
 2160SOL    HW1 8319   6.444  13.838  13.511
 2160SOL    HW2 8320   6.354  13.861  13.631
 2161SOL     OW 8321   4.950   9.705   2.539
 2161SOL    HW1 8322   4.883   9.771   2.559
 2161SOL    HW2 8323   4.970   9.665   2.623
 2162SOL     OW 8324   1.169  14.626   2.218
 2162SOL    HW1 8325   1.205  14.614   2.306
 2162SOL    HW2 8326   1.135  14.715   2.218
 2163SOL     OW 8327   9.390  11.354   2.830
 2163SOL    HW1 8328   9.485  11.358   2.824
 2163SOL    HW2 8329   9.370  11.384   2.918
 2164SOL     OW 8330  13.472   5.740  13.985
 2164SOL    HW1 8331  13.455   5.834  13.973
 2164SOL    HW2 8332  13.398   5.697  13.944
 2165SOL     OW 8333   9.875   2.924   6.220
 2165SOL    HW1 8334   9.827   2.867   6.159
 2165SOL    HW2 8335   9.956   2.877   6.238
 2166SOL     OW 8336   2.662  14.134   2.746
 2166SOL    HW1 8337   2.617  14.190   2.683
 2166SOL    HW2 8338   2.595  14.074   2.777
 2167SOL     OW 8339   3.325  12.618   1.354
 2167SOL    HW1 8340   3.419  12.599   1.350
 2167SOL    HW2 8341   3.319  12.705   1.392
 2168SOL     OW 8342   9.199  12.422   0.890
 2168SOL    HW1 8343   9.171  12.466   0.810
 2168SOL    HW2 8344   9.146  12.462   0.959
 2169SOL     OW 8345  13.919   4.831   2.536
 2169SOL    HW1 8346  13.850   4.896   2.550
 2169SOL    HW2 8347  13.920   4.779   2.616
 2170SOL     OW 8348   0.089   8.020   6.834
 2170SOL    HW1 8349   0.152   8.001   6.764
 2170SOL    HW2 8350   0.009   7.974   6.807
 2171SOL     OW 8351  14.556   9.378   3.125
 2171SOL    HW1 8352  14.596   9.451   3.077
 2171SOL    HW2 8353  14.504   9.421   3.194
 2172SOL     OW 8354  10.692  10.216   6.651
 2172SOL    HW1 8355  10.695  10.242   6.559
 2172SOL    HW2 8356  10.779  10.239   6.685
 2173SOL     OW 8357  12.786   8.753   8.705
 2173SOL    HW1 8358  12.729   8.809   8.757
 2173SOL    HW2 8359  12.727   8.687   8.667
 2174SOL     OW 8360  14.363  11.236   3.648
 2174SOL    HW1 8361  14.284  11.285   3.670
 2174SOL    HW2 8362  14.378  11.179   3.724
 2175SOL     OW 8363  10.600   5.014   4.047
 2175SOL    HW1 8364  10.568   5.012   3.957
 2175SOL    HW2 8365  10.693   4.995   4.040
 2176SOL     OW 8366  13.945  11.632   1.554
 2176SOL    HW1 8367  14.029  11.664   1.587
 2176SOL    HW2 8368  13.962  11.613   1.461
 2177SOL     OW 8369  11.292  11.127   1.328
 2177SOL    HW1 8370  11.243  11.145   1.409
 2177SOL    HW2 8371  11.294  11.211   1.283
 2178SOL     OW 8372   0.591   6.294   8.818
 2178SOL    HW1 8373   0.523   6.241   8.859
 2178SOL    HW2 8374   0.568   6.385   8.839
 2179SOL     OW 8375  13.440   3.642   8.560
 2179SOL    HW1 8376  13.463   3.619   8.650
 2179SOL    HW2 8377  13.512   3.696   8.529
 2180SOL     OW 8378  10.920  14.167   2.309
 2180SOL    HW1 8379  10.922  14.239   2.246
 2180SOL    HW2 8380  10.849  14.192   2.370
 2181SOL     OW 8381  14.536   1.396   4.737
 2181SOL    HW1 8382  14.470   1.329   4.716
 2181SOL    HW2 8383  14.592   1.355   4.802
 2182SOL     OW 8384   9.570   0.759  13.857
 2182SOL    HW1 8385   9.528   0.732  13.775
 2182SOL    HW2 8386   9.613   0.841  13.836
 2183SOL     OW 8387   3.523   0.533  14.096
 2183SOL    HW1 8388   3.601   0.553  14.045
 2183SOL    HW2 8389   3.508   0.611  14.150
 2184SOL     OW 8390  12.339   9.815  13.919
 2184SOL    HW1 8391  12.388   9.736  13.942
 2184SOL    HW2 8392  12.303   9.796  13.832
 2185SOL     OW 8393   1.724   2.972  14.218
 2185SOL    HW1 8394   1.664   3.041  14.246
 2185SOL    HW2 8395   1.776   3.012  14.148
 2186SOL     OW 8396   6.614  13.152   8.689
 2186SOL    HW1 8397   6.695  13.142   8.639
 2186SOL    HW2 8398   6.642  13.159   8.780
 2187SOL     OW 8399   3.854   5.664   8.952
 2187SOL    HW1 8400   3.781   5.619   8.911
 2187SOL    HW2 8401   3.848   5.754   8.920
 2188SOL     OW 8402   6.962   1.789   7.798
 2188SOL    HW1 8403   6.935   1.712   7.848
 2188SOL    HW2 8404   7.020   1.754   7.731
 2189SOL     OW 8405  13.533  13.266   9.683
 2189SOL    HW1 8406  13.501  13.309   9.604
 2189SOL    HW2 8407  13.600  13.325   9.717
 2190SOL     OW 8408   3.346  12.085   0.837
 2190SOL    HW1 8409   3.328  12.050   0.749
 2190SOL    HW2 8410   3.428  12.043   0.863
 2191SOL     OW 8411   2.977  12.255   0.372
 2191SOL    HW1 8412   2.892  12.229   0.336
 2191SOL    HW2 8413   3.027  12.284   0.296
 2192SOL     OW 8414   3.773   9.886   9.976
 2192SOL    HW1 8415   3.761   9.931   9.893
 2192SOL    HW2 8416   3.685   9.858  10.002
 2193SOL     OW 8417  11.023  10.407   3.217
 2193SOL    HW1 8418  11.062  10.362   3.292
 2193SOL    HW2 8419  11.056  10.496   3.222
 2194SOL     OW 8420   2.412   7.075  11.319
 2194SOL    HW1 8421   2.481   7.014  11.296
 2194SOL    HW2 8422   2.395   7.125  11.239
 2195SOL     OW 8423   2.744   0.500   6.516
 2195SOL    HW1 8424   2.779   0.412   6.509
 2195SOL    HW2 8425   2.763   0.527   6.606
 2196SOL     OW 8426  13.538   2.260  14.465
 2196SOL    HW1 8427  13.589   2.334  14.431
 2196SOL    HW2 8428  13.566   2.185  14.412
 2197SOL     OW 8429   4.682   7.131   8.468
 2197SOL    HW1 8430   4.686   7.040   8.496
 2197SOL    HW2 8431   4.732   7.134   8.387
 2198SOL     OW 8432   1.403  12.134   7.781
 2198SOL    HW1 8433   1.471  12.097   7.836
 2198SOL    HW2 8434   1.327  12.077   7.795
 2199SOL     OW 8435   5.269   5.015   3.101
 2199SOL    HW1 8436   5.198   5.079   3.098
 2199SOL    HW2 8437   5.297   5.014   3.192
 2200SOL     OW 8438  10.430  12.467   3.798
 2200SOL    HW1 8439  10.465  12.380   3.820
 2200SOL    HW2 8440  10.508  12.517   3.772
 2201SOL     OW 8441   4.118   5.442   6.229
 2201SOL    HW1 8442   4.144   5.445   6.321
 2201SOL    HW2 8443   4.192   5.478   6.181
 2202SOL     OW 8444  14.840  10.605   0.456
 2202SOL    HW1 8445  14.840  10.521   0.411
 2202SOL    HW2 8446  14.768  10.599   0.519
 2203SOL     OW 8447   3.660   5.551   6.108
 2203SOL    HW1 8448   3.749   5.582   6.121
 2203SOL    HW2 8449   3.608   5.631   6.100
 2204SOL     OW 8450  14.699   3.325   7.745
 2204SOL    HW1 8451  14.648   3.373   7.680
 2204SOL    HW2 8452  14.779   3.301   7.700
 2205SOL     OW 8453   8.911   2.221   8.914
 2205SOL    HW1 8454   8.894   2.143   8.861
 2205SOL    HW2 8455   8.892   2.294   8.855
 2206SOL     OW 8456   3.553  10.266   3.604
 2206SOL    HW1 8457   3.635  10.221   3.585
 2206SOL    HW2 8458   3.543  10.329   3.532
 2207SOL     OW 8459  14.638   7.044   3.922
 2207SOL    HW1 8460  14.605   7.079   4.005
 2207SOL    HW2 8461  14.582   7.084   3.855
 2208SOL     OW 8462   7.977  14.024  10.272
 2208SOL    HW1 8463   7.887  14.043  10.245
 2208SOL    HW2 8464   8.028  14.099  10.241
 2209SOL     OW 8465  10.446  12.718   5.721
 2209SOL    HW1 8466  10.426  12.755   5.635
 2209SOL    HW2 8467  10.376  12.751   5.778
 2210SOL     OW 8468   8.133  12.313   7.820
 2210SOL    HW1 8469   8.037  12.310   7.818
 2210SOL    HW2 8470   8.161  12.246   7.759
 2211SOL     OW 8471  14.651   8.497  13.777
 2211SOL    HW1 8472  14.581   8.552  13.814
 2211SOL    HW2 8473  14.730   8.527  13.822
 2212SOL     OW 8474  12.612   4.354   5.387
 2212SOL    HW1 8475  12.542   4.415   5.410
 2212SOL    HW2 8476  12.626   4.303   5.468
 2213SOL     OW 8477   9.605  12.833   9.555
 2213SOL    HW1 8478   9.616  12.926   9.575
 2213SOL    HW2 8479   9.679  12.811   9.499
 2214SOL     OW 8480   4.054   4.841   2.060
 2214SOL    HW1 8481   3.988   4.791   2.106
 2214SOL    HW2 8482   4.012   4.868   1.978
 2215SOL     OW 8483   7.786   3.389   0.696
 2215SOL    HW1 8484   7.790   3.426   0.607
 2215SOL    HW2 8485   7.811   3.462   0.753
 2216SOL     OW 8486   3.359   7.488   2.910
 2216SOL    HW1 8487   3.449   7.453   2.909
 2216SOL    HW2 8488   3.337   7.492   3.003
 2217SOL     OW 8489   8.102   0.942   5.596
 2217SOL    HW1 8490   8.060   0.856   5.597
 2217SOL    HW2 8491   8.175   0.933   5.535
 2218SOL     OW 8492  10.731  11.275   2.198
 2218SOL    HW1 8493  10.714  11.271   2.292
 2218SOL    HW2 8494  10.821  11.307   2.192
 2219SOL     OW 8495   0.970   1.591   8.541
 2219SOL    HW1 8496   0.934   1.532   8.607
 2219SOL    HW2 8497   0.896   1.610   8.483
 2220SOL     OW 8498  12.627   1.682   2.006
 2220SOL    HW1 8499  12.722   1.677   2.015
 2220SOL    HW2 8500  12.598   1.727   2.085
 2221SOL     OW 8501   3.763   3.380   2.071
 2221SOL    HW1 8502   3.782   3.474   2.079
 2221SOL    HW2 8503   3.835   3.346   2.019
 2222SOL     OW 8504   9.688  14.072  12.460
 2222SOL    HW1 8505   9.609  14.024  12.435
 2222SOL    HW2 8506   9.696  14.139  12.392
 2223SOL     OW 8507   2.571  14.264  12.348
 2223SOL    HW1 8508   2.487  14.286  12.309
 2223SOL    HW2 8509   2.551  14.202  12.418
 2224SOL     OW 8510   0.197   4.133   0.491
 2224SOL    HW1 8511   0.242   4.148   0.408
 2224SOL    HW2 8512   0.186   4.220   0.528
 2225SOL     OW 8513   9.760   6.498  12.568
 2225SOL    HW1 8514   9.834   6.455  12.525
 2225SOL    HW2 8515   9.771   6.476  12.661
 2226SOL     OW 8516  10.934  14.343   5.820
 2226SOL    HW1 8517  10.971  14.404   5.757
 2226SOL    HW2 8518  10.907  14.267   5.768
 2227SOL     OW 8519  14.807   3.004   5.084
 2227SOL    HW1 8520  14.872   2.965   5.026
 2227SOL    HW2 8521  14.844   3.089   5.108
 2228SOL     OW 8522   6.880   0.605  11.870
 2228SOL    HW1 8523   6.854   0.648  11.952
 2228SOL    HW2 8524   6.798   0.574  11.833
 2229SOL     OW 8525  14.392  11.728  10.928
 2229SOL    HW1 8526  14.353  11.699  11.010
 2229SOL    HW2 8527  14.485  11.706  10.936
 2230SOL     OW 8528   9.336   1.599   4.220
 2230SOL    HW1 8529   9.382   1.555   4.148
 2230SOL    HW2 8530   9.386   1.680   4.234
 2231SOL     OW 8531   8.100  13.695   0.181
 2231SOL    HW1 8532   8.116  13.720   0.272
 2231SOL    HW2 8533   8.117  13.774   0.130
 2232SOL     OW 8534   4.746  12.270   2.490
 2232SOL    HW1 8535   4.751  12.292   2.397
 2232SOL    HW2 8536   4.693  12.190   2.493
 2233SOL     OW 8537   0.274   2.264   5.708
 2233SOL    HW1 8538   0.286   2.356   5.685
 2233SOL    HW2 8539   0.339   2.247   5.776
 2234SOL     OW 8540   6.944   6.310   3.353
 2234SOL    HW1 8541   6.987   6.394   3.361
 2234SOL    HW2 8542   6.858   6.322   3.394
 2235SOL     OW 8543   1.697   9.598  12.707
 2235SOL    HW1 8544   1.782   9.559  12.726
 2235SOL    HW2 8545   1.650   9.531  12.656
 2236SOL     OW 8546  10.776   2.591   2.401
 2236SOL    HW1 8547  10.792   2.577   2.307
 2236SOL    HW2 8548  10.708   2.527   2.423
 2237SOL     OW 8549   5.200   5.844  14.609
 2237SOL    HW1 8550   5.167   5.933  14.619
 2237SOL    HW2 8551   5.196   5.806  14.697
 2238SOL     OW 8552   4.341   0.079   9.440
 2238SOL    HW1 8553   4.324   0.161   9.487
 2238SOL    HW2 8554   4.357   0.106   9.350
 2239SOL     OW 8555   7.070   5.270   6.408
 2239SOL    HW1 8556   6.976   5.286   6.402
 2239SOL    HW2 8557   7.105   5.302   6.325
 2240SOL     OW 8558   1.612   8.507  10.070
 2240SOL    HW1 8559   1.661   8.588  10.054
 2240SOL    HW2 8560   1.609   8.498  10.165
 2241SOL     OW 8561   6.280  10.428  11.181
 2241SOL    HW1 8562   6.309  10.411  11.092
 2241SOL    HW2 8563   6.361  10.437  11.232
 2242SOL     OW 8564  10.244  11.261   1.774
 2242SOL    HW1 8565  10.330  11.256   1.733
 2242SOL    HW2 8566  10.191  11.311   1.711
 2243SOL     OW 8567   3.570  13.569  10.643
 2243SOL    HW1 8568   3.546  13.478  10.658
 2243SOL    HW2 8569   3.525  13.592  10.561
 2244SOL     OW 8570   8.972   6.724   4.050
 2244SOL    HW1 8571   8.898   6.675   4.085
 2244SOL    HW2 8572   8.969   6.709   3.956
 2245SOL     OW 8573  10.560  11.964   4.421
 2245SOL    HW1 8574  10.480  11.914   4.438
 2245SOL    HW2 8575  10.540  12.052   4.451
 2246SOL     OW 8576   8.673   6.449   3.189
 2246SOL    HW1 8577   8.726   6.390   3.242
 2246SOL    HW2 8578   8.584   6.415   3.196
 2247SOL     OW 8579   4.711  13.393  11.834
 2247SOL    HW1 8580   4.781  13.337  11.800
 2247SOL    HW2 8581   4.674  13.343  11.907
 2248SOL     OW 8582   8.687   3.989  12.019
 2248SOL    HW1 8583   8.772   4.018  11.986
 2248SOL    HW2 8584   8.703   3.899  12.049
 2249SOL     OW 8585   9.117   5.317  11.378
 2249SOL    HW1 8586   9.076   5.328  11.292
 2249SOL    HW2 8587   9.047   5.285  11.434
 2250SOL     OW 8588   8.160   5.233   6.926
 2250SOL    HW1 8589   8.184   5.320   6.893
 2250SOL    HW2 8590   8.221   5.217   6.997
 2251SOL     OW 8591   8.392   3.986  11.600
 2251SOL    HW1 8592   8.403   3.891  11.588
 2251SOL    HW2 8593   8.307   3.995  11.642
 2252SOL     OW 8594   9.924   4.389  11.881
 2252SOL    HW1 8595   9.838   4.419  11.910
 2252SOL    HW2 8596   9.954   4.456  11.820
 2253SOL     OW 8597   4.431   6.852  13.046
 2253SOL    HW1 8598   4.502   6.916  13.038
 2253SOL    HW2 8599   4.356   6.893  13.004
 2254SOL     OW 8600   8.327   8.804  13.413
 2254SOL    HW1 8601   8.309   8.724  13.462
 2254SOL    HW2 8602   8.301   8.783  13.323
 2255SOL     OW 8603   7.006   6.524  10.067
 2255SOL    HW1 8604   7.020   6.609  10.024
 2255SOL    HW2 8605   6.913   6.523  10.090
 2256SOL     OW 8606  14.799   5.506  13.492
 2256SOL    HW1 8607   0.011   5.548  13.490
 2256SOL    HW2 8608  14.748   5.551  13.425
 2257SOL     OW 8609   0.061   3.912   2.345
 2257SOL    HW1 8610   0.056   3.918   2.440
 2257SOL    HW2 8611  14.857   3.959   2.314
 2258SOL     OW 8612   4.185  11.933   4.603
 2258SOL    HW1 8613   4.240  11.995   4.652
 2258SOL    HW2 8614   4.105  11.926   4.655
 2259SOL     OW 8615   6.608   9.548  13.482
 2259SOL    HW1 8616   6.569   9.479  13.428
 2259SOL    HW2 8617   6.574   9.533  13.570
 2260SOL     OW 8618   3.149   3.037   4.178
 2260SOL    HW1 8619   3.153   3.128   4.208
 2260SOL    HW2 8620   3.159   3.042   4.083
 2261SOL     OW 8621   3.900   6.007  13.611
 2261SOL    HW1 8622   3.991   5.979  13.623
 2261SOL    HW2 8623   3.879   5.982  13.521
 2262SOL     OW 8624  11.583   9.804  13.306
 2262SOL    HW1 8625  11.672   9.809  13.274
 2262SOL    HW2 8626  11.531   9.851  13.241
 2263SOL     OW 8627  11.304   7.385   0.475
 2263SOL    HW1 8628  11.232   7.415   0.530
 2263SOL    HW2 8629  11.383   7.419   0.519
 2264SOL     OW 8630   2.999   2.177  13.268
 2264SOL    HW1 8631   2.967   2.087  13.266
 2264SOL    HW2 8632   2.925   2.230  13.239
 2265SOL     OW 8633   5.301   9.541   5.475
 2265SOL    HW1 8634   5.250   9.622   5.463
 2265SOL    HW2 8635   5.378   9.553   5.419
 2266SOL     OW 8636   2.544   0.380   9.943
 2266SOL    HW1 8637   2.499   0.303   9.978
 2266SOL    HW2 8638   2.637   0.362   9.959
 2267SOL     OW 8639  14.123   2.370  13.055
 2267SOL    HW1 8640  14.192   2.401  13.113
 2267SOL    HW2 8641  14.058   2.441  13.056
 2268SOL     OW 8642   6.944   6.257   1.222
 2268SOL    HW1 8643   6.925   6.194   1.292
 2268SOL    HW2 8644   6.882   6.328   1.236
 2269SOL     OW 8645  14.616  10.385   7.908
 2269SOL    HW1 8646  14.557  10.455   7.879
 2269SOL    HW2 8647  14.607  10.317   7.840
 2270SOL     OW 8648  11.665   9.747   0.433
 2270SOL    HW1 8649  11.601   9.809   0.469
 2270SOL    HW2 8650  11.697   9.790   0.353
 2271SOL     OW 8651  13.932   3.005   1.000
 2271SOL    HW1 8652  13.935   3.015   1.095
 2271SOL    HW2 8653  13.956   3.091   0.966
 2272SOL     OW 8654   4.072  10.806   5.206
 2272SOL    HW1 8655   4.141  10.848   5.257
 2272SOL    HW2 8656   4.118  10.758   5.138
 2273SOL     OW 8657   0.991   4.393   1.598
 2273SOL    HW1 8658   0.913   4.445   1.619
 2273SOL    HW2 8659   0.960   4.326   1.537
 2274SOL     OW 8660   9.014   1.635   9.819
 2274SOL    HW1 8661   9.022   1.700   9.748
 2274SOL    HW2 8662   9.016   1.687   9.899
 2275SOL     OW 8663  12.608  14.639   3.280
 2275SOL    HW1 8664  12.570  14.554   3.259
 2275SOL    HW2 8665  12.649  14.669   3.199
 2276SOL     OW 8666  10.372  10.101  11.746
 2276SOL    HW1 8667  10.358  10.009  11.725
 2276SOL    HW2 8668  10.387  10.102  11.841
 2277SOL     OW 8669   8.658   0.703   7.528
 2277SOL    HW1 8670   8.638   0.637   7.595
 2277SOL    HW2 8671   8.697   0.653   7.456
 2278SOL     OW 8672   7.962   4.885   6.953
 2278SOL    HW1 8673   8.013   4.904   7.031
 2278SOL    HW2 8674   7.951   4.970   6.910
 2279SOL     OW 8675   7.835   1.810   0.958
 2279SOL    HW1 8676   7.892   1.820   0.881
 2279SOL    HW2 8677   7.894   1.777   1.026
 2280SOL     OW 8678   9.938  10.209   4.364
 2280SOL    HW1 8679   9.885  10.245   4.434
 2280SOL    HW2 8680   9.894  10.237   4.284
 2281SOL     OW 8681  11.396   0.708   8.755
 2281SOL    HW1 8682  11.484   0.691   8.790
 2281SOL    HW2 8683  11.361   0.778   8.810
 2282SOL     OW 8684  10.202   2.080   1.429
 2282SOL    HW1 8685  10.124   2.097   1.482
 2282SOL    HW2 8686  10.236   1.997   1.462
 2283SOL     OW 8687   2.179   2.230   6.306
 2283SOL    HW1 8688   2.274   2.235   6.316
 2283SOL    HW2 8689   2.152   2.160   6.366
 2284SOL     OW 8690   2.032   6.623  11.309
 2284SOL    HW1 8691   2.103   6.683  11.333
 2284SOL    HW2 8692   2.029   6.560  11.381
 2285SOL     OW 8693   9.113   0.186   4.859
 2285SOL    HW1 8694   9.075   0.130   4.927
 2285SOL    HW2 8695   9.056   0.263   4.859
 2286SOL     OW 8696  10.794  10.442  10.305
 2286SOL    HW1 8697  10.768  10.409  10.219
 2286SOL    HW2 8698  10.750  10.384  10.368
 2287SOL     OW 8699  10.697  10.589   9.234
 2287SOL    HW1 8700  10.662  10.508   9.197
 2287SOL    HW2 8701  10.622  10.632   9.275
 2288SOL     OW 8702  11.740   0.273  12.460
 2288SOL    HW1 8703  11.789   0.339  12.412
 2288SOL    HW2 8704  11.780   0.272  12.547
 2289SOL     OW 8705   5.813   3.502  14.172
 2289SOL    HW1 8706   5.742   3.559  14.202
 2289SOL    HW2 8707   5.829   3.443  14.245
 2290SOL     OW 8708   0.913   2.255   2.787
 2290SOL    HW1 8709   0.888   2.175   2.741
 2290SOL    HW2 8710   0.992   2.284   2.743
 2291SOL     OW 8711  13.128   9.973   4.821
 2291SOL    HW1 8712  13.166   9.962   4.908
 2291SOL    HW2 8713  13.200   9.955   4.761
 2292SOL     OW 8714   0.883  10.781   3.906
 2292SOL    HW1 8715   0.855  10.698   3.944
 2292SOL    HW2 8716   0.939  10.757   3.833
 2293SOL     OW 8717   6.002   5.985   6.780
 2293SOL    HW1 8718   6.069   6.013   6.841
 2293SOL    HW2 8719   6.002   5.889   6.786
 2294SOL     OW 8720   2.713   9.431  12.924
 2294SOL    HW1 8721   2.644   9.486  12.961
 2294SOL    HW2 8722   2.778   9.422  12.995
 2295SOL     OW 8723  12.032   2.435   4.350
 2295SOL    HW1 8724  12.047   2.350   4.391
 2295SOL    HW2 8725  12.107   2.448   4.292
 2296SOL     OW 8726  10.523   9.393   5.059
 2296SOL    HW1 8727  10.608   9.399   5.103
 2296SOL    HW2 8728  10.459   9.397   5.131
 2297SOL     OW 8729   9.430   8.597  11.523
 2297SOL    HW1 8730   9.352   8.548  11.496
 2297SOL    HW2 8731   9.413   8.687  11.494
 2298SOL     OW 8732  12.605   4.164  11.229
 2298SOL    HW1 8733  12.633   4.078  11.197
 2298SOL    HW2 8734  12.549   4.145  11.304
 2299SOL     OW 8735   4.190   3.567   7.898
 2299SOL    HW1 8736   4.098   3.543   7.883
 2299SOL    HW2 8737   4.222   3.503   7.961
 2300SOL     OW 8738  14.811  14.312   7.981
 2300SOL    HW1 8739  14.781  14.268   7.901
 2300SOL    HW2 8740  14.734  14.358   8.014
 2301SOL     OW 8741   2.032   0.805   3.031
 2301SOL    HW1 8742   2.105   0.749   3.058
 2301SOL    HW2 8743   1.986   0.827   3.112
 2302SOL     OW 8744   8.418   6.823  12.393
 2302SOL    HW1 8745   8.387   6.884  12.325
 2302SOL    HW2 8746   8.353   6.752  12.392
 2303SOL     OW 8747  10.327   9.683  10.821
 2303SOL    HW1 8748  10.344   9.610  10.762
 2303SOL    HW2 8749  10.341   9.647  10.908
 2304SOL     OW 8750  12.184  13.715   4.293
 2304SOL    HW1 8751  12.196  13.660   4.370
 2304SOL    HW2 8752  12.229  13.797   4.315
 2305SOL     OW 8753   4.102   5.429   1.114
 2305SOL    HW1 8754   4.050   5.468   1.184
 2305SOL    HW2 8755   4.187   5.413   1.154
 2306SOL     OW 8756   7.592   2.674   3.485
 2306SOL    HW1 8757   7.646   2.687   3.563
 2306SOL    HW2 8758   7.502   2.688   3.516
 2307SOL     OW 8759  13.737   0.785  11.167
 2307SOL    HW1 8760  13.663   0.838  11.195
 2307SOL    HW2 8761  13.735   0.708  11.224
 2308SOL     OW 8762   2.179  12.761   3.468
 2308SOL    HW1 8763   2.268  12.786   3.494
 2308SOL    HW2 8764   2.137  12.843   3.446
 2309SOL     OW 8765  14.012   9.668   1.125
 2309SOL    HW1 8766  13.985   9.738   1.184
 2309SOL    HW2 8767  14.079   9.619   1.174
 2310SOL     OW 8768   8.171   5.370   2.278
 2310SOL    HW1 8769   8.214   5.286   2.261
 2310SOL    HW2 8770   8.078   5.354   2.258
 2311SOL     OW 8771   2.126  13.767  10.704
 2311SOL    HW1 8772   2.049  13.793  10.654
 2311SOL    HW2 8773   2.101  13.782  10.795
 2312SOL     OW 8774  11.207   3.564   7.266
 2312SOL    HW1 8775  11.188   3.534   7.177
 2312SOL    HW2 8776  11.251   3.489   7.308
 2313SOL     OW 8777   7.442   0.852   0.608
 2313SOL    HW1 8778   7.532   0.820   0.617
 2313SOL    HW2 8779   7.452   0.940   0.572
 2314SOL     OW 8780   6.175   4.847   3.163
 2314SOL    HW1 8781   6.150   4.801   3.243
 2314SOL    HW2 8782   6.189   4.938   3.192
 2315SOL     OW 8783  10.618  13.427   4.303
 2315SOL    HW1 8784  10.674  13.494   4.262
 2315SOL    HW2 8785  10.652  13.418   4.392
 2316SOL     OW 8786   3.130  11.632   1.972
 2316SOL    HW1 8787   3.070  11.706   1.979
 2316SOL    HW2 8788   3.217  11.673   1.969
 2317SOL     OW 8789   7.924  13.301   7.316
 2317SOL    HW1 8790   7.862  13.268   7.252
 2317SOL    HW2 8791   8.007  13.258   7.295
 2318SOL     OW 8792  12.227   9.667   7.586
 2318SOL    HW1 8793  12.269   9.588   7.552
 2318SOL    HW2 8794  12.224   9.726   7.511
 2319SOL     OW 8795   6.333   9.298  13.904
 2319SOL    HW1 8796   6.365   9.209  13.923
 2319SOL    HW2 8797   6.331   9.342  13.989
 2320SOL     OW 8798   3.274   0.033   2.704
 2320SOL    HW1 8799   3.301   0.096   2.637
 2320SOL    HW2 8800   3.356  14.872   2.740
 2321SOL     OW 8801   0.392   1.824  14.111
 2321SOL    HW1 8802   0.452   1.795  14.042
 2321SOL    HW2 8803   0.411   1.767  14.185
 2322SOL     OW 8804  14.106   6.453   6.196
 2322SOL    HW1 8805  14.176   6.395   6.166
 2322SOL    HW2 8806  14.039   6.393   6.230
 2323SOL     OW 8807  10.899  10.278  13.861
 2323SOL    HW1 8808  10.989  10.255  13.883
 2323SOL    HW2 8809  10.872  10.340  13.929
 2324SOL     OW 8810   3.302   8.565   5.859
 2324SOL    HW1 8811   3.396   8.551   5.854
 2324SOL    HW2 8812   3.265   8.500   5.798
 2325SOL     OW 8813   3.155   8.033   4.537
 2325SOL    HW1 8814   3.125   7.951   4.576
 2325SOL    HW2 8815   3.106   8.040   4.455
 2326SOL     OW 8816   0.624  11.357  10.386
 2326SOL    HW1 8817   0.641  11.278  10.438
 2326SOL    HW2 8818   0.659  11.428  10.440
 2327SOL     OW 8819   3.991   2.244  11.055
 2327SOL    HW1 8820   4.016   2.224  11.145
 2327SOL    HW2 8821   4.032   2.175  11.003
 2328SOL     OW 8822  12.762   4.694  11.802
 2328SOL    HW1 8823  12.737   4.636  11.730
 2328SOL    HW2 8824  12.683   4.744  11.821
 2329SOL     OW 8825   6.857   6.425   1.596
 2329SOL    HW1 8826   6.935   6.433   1.651
 2329SOL    HW2 8827   6.811   6.348   1.630
 2330SOL     OW 8828  12.223  12.324   2.130
 2330SOL    HW1 8829  12.204  12.273   2.209
 2330SOL    HW2 8830  12.147  12.382   2.120
 2331SOL     OW 8831   6.048   6.510   9.362
 2331SOL    HW1 8832   6.043   6.606   9.359
 2331SOL    HW2 8833   6.083   6.491   9.450
 2332SOL     OW 8834   7.253   4.533  12.115
 2332SOL    HW1 8835   7.221   4.612  12.159
 2332SOL    HW2 8836   7.190   4.519  12.043
 2333SOL     OW 8837   2.083  12.140   0.818
 2333SOL    HW1 8838   2.160  12.197   0.813
 2333SOL    HW2 8839   2.013  12.190   0.776
 2334SOL     OW 8840  12.679   3.943   2.996
 2334SOL    HW1 8841  12.731   4.023   3.002
 2334SOL    HW2 8842  12.702   3.893   3.075
 2335SOL     OW 8843   1.929   9.963   8.067
 2335SOL    HW1 8844   1.934  10.055   8.042
 2335SOL    HW2 8845   1.861   9.926   8.010
 2336SOL     OW 8846  11.295  11.158  14.135
 2336SOL    HW1 8847  11.237  11.130  14.206
 2336SOL    HW2 8848  11.300  11.082  14.077
 2337SOL     OW 8849  14.538   7.557   6.819
 2337SOL    HW1 8850  14.471   7.592   6.761
 2337SOL    HW2 8851  14.495   7.552   6.904
 2338SOL     OW 8852   3.412   8.037   1.411
 2338SOL    HW1 8853   3.392   8.059   1.320
 2338SOL    HW2 8854   3.420   8.121   1.455
 2339SOL     OW 8855  14.300   1.082  12.961
 2339SOL    HW1 8856  14.310   1.105  13.053
 2339SOL    HW2 8857  14.332   0.992  12.955
 2340SOL     OW 8858   1.929  10.770   3.371
 2340SOL    HW1 8859   1.993  10.783   3.301
 2340SOL    HW2 8860   1.864  10.711   3.332
 2341SOL     OW 8861   5.671   5.684   8.962
 2341SOL    HW1 8862   5.718   5.705   8.882
 2341SOL    HW2 8863   5.683   5.589   8.973
 2342SOL     OW 8864   5.668  12.048  13.290
 2342SOL    HW1 8865   5.616  12.034  13.211
 2342SOL    HW2 8866   5.666  11.963  13.334
 2343SOL     OW 8867   3.660   9.713  10.718
 2343SOL    HW1 8868   3.580   9.663  10.733
 2343SOL    HW2 8869   3.652   9.789  10.775
 2344SOL     OW 8870   1.332   1.948   3.433
 2344SOL    HW1 8871   1.342   1.918   3.524
 2344SOL    HW2 8872   1.412   1.919   3.390
 2345SOL     OW 8873  14.144  11.699  11.712
 2345SOL    HW1 8874  14.129  11.668  11.802
 2345SOL    HW2 8875  14.085  11.774  11.703
 2346SOL     OW 8876   2.397   5.540  13.493
 2346SOL    HW1 8877   2.489   5.552  13.470
 2346SOL    HW2 8878   2.391   5.449  13.521
 2347SOL     OW 8879   4.116   1.554  10.997
 2347SOL    HW1 8880   4.147   1.469  11.027
 2347SOL    HW2 8881   4.184   1.616  11.024
 2348SOL     OW 8882   2.184  13.583   3.586
 2348SOL    HW1 8883   2.197  13.523   3.660
 2348SOL    HW2 8884   2.231  13.542   3.513
 2349SOL     OW 8885   8.846   3.727  12.268
 2349SOL    HW1 8886   8.831   3.753  12.178
 2349SOL    HW2 8887   8.906   3.793  12.302
 2350SOL     OW 8888   0.401   0.275   9.980
 2350SOL    HW1 8889   0.321   0.248  10.024
 2350SOL    HW2 8890   0.389   0.248   9.889
 2351SOL     OW 8891   4.987  13.721   7.993
 2351SOL    HW1 8892   5.024  13.761   7.914
 2351SOL    HW2 8893   5.013  13.780   8.064
 2352SOL     OW 8894   5.294  12.585  10.288
 2352SOL    HW1 8895   5.315  12.679  10.287
 2352SOL    HW2 8896   5.305  12.558  10.196
 2353SOL     OW 8897   3.642   8.883  13.961
 2353SOL    HW1 8898   3.718   8.859  14.014
 2353SOL    HW2 8899   3.631   8.977  13.976
 2354SOL     OW 8900  12.255  10.066   5.085
 2354SOL    HW1 8901  12.266  10.145   5.137
 2354SOL    HW2 8902  12.270   9.994   5.146
 2355SOL     OW 8903   6.623   9.628   0.889
 2355SOL    HW1 8904   6.531   9.608   0.872
 2355SOL    HW2 8905   6.622   9.716   0.927
 2356SOL     OW 8906   1.034  14.781  14.088
 2356SOL    HW1 8907   1.018  14.856  14.033
 2356SOL    HW2 8908   1.098  14.812  14.153
 2357SOL     OW 8909  11.189  11.172   7.638
 2357SOL    HW1 8910  11.151  11.086   7.658
 2357SOL    HW2 8911  11.284  11.159   7.647
 2358SOL     OW 8912  11.567   5.568   8.182
 2358SOL    HW1 8913  11.581   5.662   8.191
 2358SOL    HW2 8914  11.588   5.532   8.268
 2359SOL     OW 8915   0.801   2.732   1.944
 2359SOL    HW1 8916   0.773   2.758   2.032
 2359SOL    HW2 8917   0.735   2.669   1.915
 2360SOL     OW 8918   8.526   2.399   6.820
 2360SOL    HW1 8919   8.552   2.307   6.819
 2360SOL    HW2 8920   8.597   2.444   6.775
 2361SOL     OW 8921   5.276  13.141   0.270
 2361SOL    HW1 8922   5.329  13.220   0.282
 2361SOL    HW2 8923   5.330  13.070   0.304
 2362SOL     OW 8924   4.501  13.794   6.041
 2362SOL    HW1 8925   4.490  13.734   5.967
 2362SOL    HW2 8926   4.544  13.870   6.003
 2363SOL     OW 8927   4.438   0.960  14.817
 2363SOL    HW1 8928   4.511   1.019  14.796
 2363SOL    HW2 8929   4.374   0.977  14.748
 2364SOL     OW 8930   7.169  14.412   2.214
 2364SOL    HW1 8931   7.118  14.335   2.238
 2364SOL    HW2 8932   7.148  14.476   2.282
 2365SOL     OW 8933   2.394   2.752   8.759
 2365SOL    HW1 8934   2.340   2.676   8.780
 2365SOL    HW2 8935   2.482   2.716   8.746
 2366SOL     OW 8936   7.384  12.856  14.134
 2366SOL    HW1 8937   7.419  12.826  14.218
 2366SOL    HW2 8938   7.365  12.949  14.148
 2367SOL     OW 8939   0.176  12.800   8.796
 2367SOL    HW1 8940   0.192  12.812   8.702
 2367SOL    HW2 8941   0.108  12.732   8.800
 2368SOL     OW 8942  11.477  10.988   9.922
 2368SOL    HW1 8943  11.506  11.079   9.911
 2368SOL    HW2 8944  11.446  10.963   9.835
 2369SOL     OW 8945   1.310  13.609   3.703
 2369SOL    HW1 8946   1.333  13.559   3.781
 2369SOL    HW2 8947   1.370  13.684   3.704
 2370SOL     OW 8948  13.630   2.443   5.849
 2370SOL    HW1 8949  13.621   2.373   5.913
 2370SOL    HW2 8950  13.713   2.486   5.871
 2371SOL     OW 8951  10.802   8.575   5.482
 2371SOL    HW1 8952  10.778   8.631   5.408
 2371SOL    HW2 8953  10.894   8.554   5.467
 2372SOL     OW 8954  12.403   7.932  13.790
 2372SOL    HW1 8955  12.397   7.871  13.717
 2372SOL    HW2 8956  12.362   7.887  13.863
 2373SOL     OW 8957   9.152   4.137   5.278
 2373SOL    HW1 8958   9.068   4.166   5.312
 2373SOL    HW2 8959   9.133   4.101   5.192
 2374SOL     OW 8960   3.819   8.492  14.638
 2374SOL    HW1 8961   3.745   8.553  14.633
 2374SOL    HW2 8962   3.800   8.426  14.572
 2375SOL     OW 8963   4.842  11.830   9.681
 2375SOL    HW1 8964   4.928  11.869   9.693
 2375SOL    HW2 8965   4.858  11.752   9.627
 2376SOL     OW 8966  13.362   9.329  13.077
 2376SOL    HW1 8967  13.331   9.380  13.002
 2376SOL    HW2 8968  13.378   9.241  13.042
 2377SOL     OW 8969   6.065   8.423   4.644
 2377SOL    HW1 8970   6.024   8.337   4.655
 2377SOL    HW2 8971   6.032   8.455   4.561
 2378SOL     OW 8972  11.062   0.018   4.726
 2378SOL    HW1 8973  11.008  14.814   4.707
 2378SOL    HW2 8974  11.000   0.084   4.757
 2379SOL     OW 8975   3.315   0.841   6.881
 2379SOL    HW1 8976   3.374   0.767   6.894
 2379SOL    HW2 8977   3.313   0.886   6.966
 2380SOL     OW 8978  13.022   9.215   7.679
 2380SOL    HW1 8979  13.029   9.298   7.726
 2380SOL    HW2 8980  13.085   9.223   7.608
 2381SOL     OW 8981   9.047  14.686   8.399
 2381SOL    HW1 8982   9.122  14.665   8.455
 2381SOL    HW2 8983   9.038  14.611   8.341
 2382SOL     OW 8984  11.226   3.418  12.800
 2382SOL    HW1 8985  11.312   3.383  12.776
 2382SOL    HW2 8986  11.183   3.437  12.717
 2383SOL     OW 8987   6.829  11.459   7.779
 2383SOL    HW1 8988   6.771  11.459   7.856
 2383SOL    HW2 8989   6.792  11.526   7.721
 2384SOL     OW 8990  10.477  14.413  14.732
 2384SOL    HW1 8991  10.535  14.380  14.800
 2384SOL    HW2 8992  10.410  14.462  14.779
 2385SOL     OW 8993  10.004  11.250   6.337
 2385SOL    HW1 8994   9.950  11.171   6.342
 2385SOL    HW2 8995   9.949  11.314   6.292
 2386SOL     OW 8996   1.712   6.776   2.461
 2386SOL    HW1 8997   1.662   6.845   2.418
 2386SOL    HW2 8998   1.664   6.695   2.441
 2387SOL     OW 8999  14.440   9.092   4.970
 2387SOL    HW1 9000  14.368   9.154   4.967
 2387SOL    HW2 9001  14.486   9.112   5.051
 2388SOL     OW 9002  13.575   7.582   5.976
 2388SOL    HW1 9003  13.486   7.582   5.943
 2388SOL    HW2 9004  13.626   7.535   5.910
 2389SOL     OW 9005   2.381   8.473   2.969
 2389SOL    HW1 9006   2.413   8.387   2.944
 2389SOL    HW2 9007   2.384   8.474   3.064
 2390SOL     OW 9008   1.015   9.715   1.725
 2390SOL    HW1 9009   0.973   9.676   1.802
 2390SOL    HW2 9010   1.044   9.640   1.673
 2391SOL     OW 9011  13.728  10.197   4.754
 2391SOL    HW1 9012  13.797  10.236   4.701
 2391SOL    HW2 9013  13.773  10.164   4.832
 2392SOL     OW 9014   9.852  12.225   7.037
 2392SOL    HW1 9015   9.883  12.138   7.062
 2392SOL    HW2 9016   9.758  12.222   7.052
 2393SOL     OW 9017   4.790   6.511   3.749
 2393SOL    HW1 9018   4.814   6.532   3.659
 2393SOL    HW2 9019   4.793   6.415   3.753
 2394SOL     OW 9020  14.123  12.196   3.510
 2394SOL    HW1 9021  14.099  12.265   3.448
 2394SOL    HW2 9022  14.171  12.241   3.579
 2395SOL     OW 9023  10.370  13.437   5.237
 2395SOL    HW1 9024  10.283  13.442   5.196
 2395SOL    HW2 9025  10.381  13.344   5.257
 2396SOL     OW 9026   9.173   8.967  11.729
 2396SOL    HW1 9027   9.178   8.899  11.661
 2396SOL    HW2 9028   9.234   8.938  11.797
 2397SOL     OW 9029   8.656   5.670   6.785
 2397SOL    HW1 9030   8.639   5.692   6.876
 2397SOL    HW2 9031   8.740   5.624   6.786
 2398SOL     OW 9032   0.764   2.851  10.578
 2398SOL    HW1 9033   0.716   2.846  10.496
 2398SOL    HW2 9034   0.854   2.871  10.552
 2399SOL     OW 9035   5.052  11.880   3.844
 2399SOL    HW1 9036   5.082  11.803   3.892
 2399SOL    HW2 9037   5.108  11.952   3.875
 2400SOL     OW 9038   3.528   1.672   6.156
 2400SOL    HW1 9039   3.452   1.635   6.112
 2400SOL    HW2 9040   3.588   1.697   6.086
 2401SOL     OW 9041  13.310   6.783   6.269
 2401SOL    HW1 9042  13.336   6.869   6.238
 2401SOL    HW2 9043  13.349   6.775   6.356
 2402SOL     OW 9044   6.497  12.752   0.229
 2402SOL    HW1 9045   6.592  12.768   0.229
 2402SOL    HW2 9046   6.488  12.664   0.192
 2403SOL     OW 9047   5.765   3.354   7.366
 2403SOL    HW1 9048   5.722   3.276   7.401
 2403SOL    HW2 9049   5.823   3.383   7.437
 2404SOL     OW 9050  10.306  12.864   4.232
 2404SOL    HW1 9051  10.311  12.941   4.288
 2404SOL    HW2 9052  10.388  12.817   4.249
 2405SOL     OW 9053  10.866  12.188  10.827
 2405SOL    HW1 9054  10.851  12.277  10.796
 2405SOL    HW2 9055  10.961  12.176  10.822
 2406SOL     OW 9056  14.256   0.801  12.139
 2406SOL    HW1 9057  14.344   0.826  12.111
 2406SOL    HW2 9058  14.257   0.812  12.234
 2407SOL     OW 9059   9.259  14.708   0.395
 2407SOL    HW1 9060   9.327  14.748   0.449
 2407SOL    HW2 9061   9.204  14.781   0.368
 2408SOL     OW 9062   1.045  11.966  14.397
 2408SOL    HW1 9063   1.022  12.059  14.392
 2408SOL    HW2 9064   0.962  11.922  14.416
 2409SOL     OW 9065   3.106  13.436   5.285
 2409SOL    HW1 9066   3.201  13.435   5.271
 2409SOL    HW2 9067   3.084  13.529   5.295
 2410SOL     OW 9068   5.630   5.198  12.261
 2410SOL    HW1 9069   5.559   5.172  12.320
 2410SOL    HW2 9070   5.693   5.244  12.318
 2411SOL     OW 9071  14.484   9.722   2.544
 2411SOL    HW1 9072  14.495   9.801   2.491
 2411SOL    HW2 9073  14.476   9.651   2.480
 2412SOL     OW 9074   2.953   9.164  14.224
 2412SOL    HW1 9075   2.998   9.114  14.292
 2412SOL    HW2 9076   2.862   9.168  14.254
 2413SOL     OW 9077  11.856   9.187  11.970
 2413SOL    HW1 9078  11.788   9.188  11.902
 2413SOL    HW2 9079  11.823   9.124  12.034
 2414SOL     OW 9080  13.091   3.368   6.524
 2414SOL    HW1 9081  13.051   3.323   6.599
 2414SOL    HW2 9082  13.016   3.405   6.476
 2415SOL     OW 9083   7.067   0.301   1.220
 2415SOL    HW1 9084   7.144   0.244   1.213
 2415SOL    HW2 9085   7.100   0.389   1.205
 2416SOL     OW 9086  13.263  13.003  11.493
 2416SOL    HW1 9087  13.239  13.095  11.486
 2416SOL    HW2 9088  13.239  12.979  11.583
 2417SOL     OW 9089   3.928  14.335   3.724
 2417SOL    HW1 9090   3.967  14.399   3.784
 2417SOL    HW2 9091   3.990  14.329   3.652
 2418SOL     OW 9092  14.074   0.772   3.280
 2418SOL    HW1 9093  14.108   0.795   3.367
 2418SOL    HW2 9094  14.149   0.782   3.222
 2419SOL     OW 9095   5.942   0.417   4.335
 2419SOL    HW1 9096   5.944   0.443   4.243
 2419SOL    HW2 9097   6.021   0.364   4.346
 2420SOL     OW 9098   5.885   5.033  12.127
 2420SOL    HW1 9099   5.906   5.125  12.144
 2420SOL    HW2 9100   5.831   5.007  12.202
 2421SOL     OW 9101   7.369   0.193   6.992
 2421SOL    HW1 9102   7.455   0.222   6.963
 2421SOL    HW2 9103   7.359   0.105   6.954
 2422SOL     OW 9104  12.882  13.567   5.114
 2422SOL    HW1 9105  12.966  13.522   5.128
 2422SOL    HW2 9106  12.839  13.516   5.045
 2423SOL     OW 9107   5.289  13.701  10.618
 2423SOL    HW1 9108   5.245  13.718  10.534
 2423SOL    HW2 9109   5.283  13.607  10.630
 2424SOL     OW 9110   6.395  10.786   9.214
 2424SOL    HW1 9111   6.362  10.837   9.288
 2424SOL    HW2 9112   6.329  10.719   9.199
 2425SOL     OW 9113   8.349  10.701   0.856
 2425SOL    HW1 9114   8.434  10.660   0.840
 2425SOL    HW2 9115   8.324  10.740   0.773
 2426SOL     OW 9116   7.917   9.914  10.899
 2426SOL    HW1 9117   7.955   9.889  10.983
 2426SOL    HW2 9118   7.864   9.992  10.918
 2427SOL     OW 9119   8.138   6.066   2.117
 2427SOL    HW1 9120   8.067   6.117   2.156
 2427SOL    HW2 9121   8.216   6.121   2.128
 2428SOL     OW 9122   2.326   8.341   2.672
 2428SOL    HW1 9123   2.290   8.286   2.741
 2428SOL    HW2 9124   2.280   8.425   2.682
 2429SOL     OW 9125   5.793   5.005  11.653
 2429SOL    HW1 9126   5.705   5.004  11.616
 2429SOL    HW2 9127   5.811   4.913  11.675
 2430SOL     OW 9128   9.112  10.917  11.259
 2430SOL    HW1 9129   9.199  10.942  11.289
 2430SOL    HW2 9130   9.065  11.000  11.248
 2431SOL     OW 9131  14.029   6.520  12.468
 2431SOL    HW1 9132  13.968   6.592  12.483
 2431SOL    HW2 9133  14.108   6.546  12.515
 2432SOL     OW 9134   8.198   5.303  12.782
 2432SOL    HW1 9135   8.205   5.209  12.765
 2432SOL    HW2 9136   8.234   5.344  12.703
 2433SOL     OW 9137   5.908   3.222   1.308
 2433SOL    HW1 9138   5.952   3.253   1.229
 2433SOL    HW2 9139   5.896   3.301   1.361
 2434SOL     OW 9140  12.486  14.021   4.001
 2434SOL    HW1 9141  12.573  14.048   3.973
 2434SOL    HW2 9142  12.439  14.103   4.019
 2435SOL     OW 9143   6.881  11.889   1.604
 2435SOL    HW1 9144   6.932  11.903   1.524
 2435SOL    HW2 9145   6.875  11.976   1.643
 2436SOL     OW 9146  12.987   5.641   8.640
 2436SOL    HW1 9147  12.964   5.578   8.708
 2436SOL    HW2 9148  12.997   5.589   8.561
 2437SOL     OW 9149   2.803   2.408  11.115
 2437SOL    HW1 9150   2.879   2.451  11.077
 2437SOL    HW2 9151   2.775   2.344  11.050
 2438SOL     OW 9152   0.997   1.170   6.750
 2438SOL    HW1 9153   0.924   1.108   6.747
 2438SOL    HW2 9154   0.981   1.222   6.828
 2439SOL     OW 9155  11.645   5.003   9.657
 2439SOL    HW1 9156  11.566   5.055   9.673
 2439SOL    HW2 9157  11.714   5.068   9.643
 2440SOL     OW 9158  11.214   9.549  11.325
 2440SOL    HW1 9159  11.220   9.641  11.351
 2440SOL    HW2 9160  11.227   9.501  11.407
 2441SOL     OW 9161  13.542   7.665   2.744
 2441SOL    HW1 9162  13.478   7.595   2.757
 2441SOL    HW2 9163  13.605   7.628   2.682
 2442SOL     OW 9164   4.799   1.659   7.066
 2442SOL    HW1 9165   4.848   1.688   7.143
 2442SOL    HW2 9166   4.811   1.564   7.064
 2443SOL     OW 9167  11.163   4.186  10.198
 2443SOL    HW1 9168  11.101   4.143  10.257
 2443SOL    HW2 9169  11.192   4.117  10.139
 2444SOL     OW 9170   8.193   3.538  10.500
 2444SOL    HW1 9171   8.194   3.485  10.421
 2444SOL    HW2 9172   8.172   3.626  10.469
 2445SOL     OW 9173  11.949   4.275  13.722
 2445SOL    HW1 9174  12.013   4.281  13.794
 2445SOL    HW2 9175  11.875   4.328  13.751
 2446SOL     OW 9176   7.089   2.340   0.008
 2446SOL    HW1 9177   7.121   2.345   0.098
 2446SOL    HW2 9178   7.158   2.379  14.828
 2447SOL     OW 9179   5.147   4.084   0.364
 2447SOL    HW1 9180   5.116   4.020   0.301
 2447SOL    HW2 9181   5.139   4.040   0.449
 2448SOL     OW 9182   1.787   6.505   6.525
 2448SOL    HW1 9183   1.847   6.443   6.565
 2448SOL    HW2 9184   1.768   6.470   6.439
 2449SOL     OW 9185   1.792   3.819   2.495
 2449SOL    HW1 9186   1.727   3.775   2.440
 2449SOL    HW2 9187   1.873   3.770   2.480
 2450SOL     OW 9188   7.187  14.373   4.211
 2450SOL    HW1 9189   7.126  14.429   4.162
 2450SOL    HW2 9190   7.265  14.427   4.223
 2451SOL     OW 9191   7.961  10.845   3.471
 2451SOL    HW1 9192   7.918  10.812   3.550
 2451SOL    HW2 9193   7.891  10.890   3.423
 2452SOL     OW 9194   3.831   5.674  10.417
 2452SOL    HW1 9195   3.769   5.728  10.369
 2452SOL    HW2 9196   3.843   5.596  10.363
 2453SOL     OW 9197   1.766   3.039   8.276
 2453SOL    HW1 9198   1.815   3.120   8.280
 2453SOL    HW2 9199   1.737   3.032   8.185
 2454SOL     OW 9200  11.117   0.444   2.779
 2454SOL    HW1 9201  11.141   0.401   2.697
 2454SOL    HW2 9202  11.029   0.413   2.798
 2455SOL     OW 9203  12.314  14.026  10.090
 2455SOL    HW1 9204  12.256  14.059  10.022
 2455SOL    HW2 9205  12.330  13.935  10.067
 2456SOL     OW 9206  13.596   6.880   4.705
 2456SOL    HW1 9207  13.558   6.943   4.767
 2456SOL    HW2 9208  13.616   6.932   4.627
 2457SOL     OW 9209   5.449   3.437   6.286
 2457SOL    HW1 9210   5.497   3.479   6.214
 2457SOL    HW2 9211   5.514   3.428   6.356
 2458SOL     OW 9212  11.842   0.885   3.337
 2458SOL    HW1 9213  11.918   0.939   3.319
 2458SOL    HW2 9214  11.775   0.917   3.276
 2459SOL     OW 9215  11.423  11.138  10.594
 2459SOL    HW1 9216  11.364  11.066  10.569
 2459SOL    HW2 9217  11.470  11.159  10.513
 2460SOL     OW 9218   8.839   8.584   6.331
 2460SOL    HW1 9219   8.832   8.491   6.354
 2460SOL    HW2 9220   8.878   8.624   6.408
 2461SOL     OW 9221   6.751   7.570   9.611
 2461SOL    HW1 9222   6.815   7.532   9.550
 2461SOL    HW2 9223   6.764   7.665   9.602
 2462SOL     OW 9224  12.204  10.346   1.651
 2462SOL    HW1 9225  12.219  10.335   1.745
 2462SOL    HW2 9226  12.266  10.415   1.625
 2463SOL     OW 9227   4.187   7.901   1.951
 2463SOL    HW1 9228   4.170   7.856   2.034
 2463SOL    HW2 9229   4.229   7.983   1.976
 2464SOL     OW 9230   2.522   6.053   2.544
 2464SOL    HW1 9231   2.582   6.114   2.588
 2464SOL    HW2 9232   2.480   6.105   2.475
 2465SOL     OW 9233   3.900  13.106  10.443
 2465SOL    HW1 9234   3.843  13.073  10.512
 2465SOL    HW2 9235   3.987  13.074  10.468
 2466SOL     OW 9236   6.601  10.515   9.165
 2466SOL    HW1 9237   6.509  10.542   9.162
 2466SOL    HW2 9238   6.627  10.509   9.073
 2467SOL     OW 9239   2.257   2.510   8.586
 2467SOL    HW1 9240   2.303   2.429   8.563
 2467SOL    HW2 9241   2.178   2.509   8.531
 2468SOL     OW 9242  11.078   6.549  12.941
 2468SOL    HW1 9243  11.164   6.563  12.981
 2468SOL    HW2 9244  11.092   6.566  12.847
 2469SOL     OW 9245  10.787   4.482  13.028
 2469SOL    HW1 9246  10.801   4.563  13.076
 2469SOL    HW2 9247  10.804   4.413  13.092
 2470SOL     OW 9248   5.805   5.461   8.511
 2470SOL    HW1 9249   5.714   5.489   8.517
 2470SOL    HW2 9250   5.801   5.365   8.506
 2471SOL     OW 9251   0.191  10.961   4.779
 2471SOL    HW1 9252   0.239  10.880   4.797
 2471SOL    HW2 9253   0.256  11.020   4.742
 2472SOL     OW 9254   9.113   4.710   7.164
 2472SOL    HW1 9255   9.030   4.715   7.211
 2472SOL    HW2 9256   9.116   4.620   7.131
 2473SOL     OW 9257   3.756  11.531  12.014
 2473SOL    HW1 9258   3.775  11.609  12.066
 2473SOL    HW2 9259   3.666  11.543  11.984
 2474SOL     OW 9260  11.604   7.667  14.079
 2474SOL    HW1 9261  11.657   7.718  14.140
 2474SOL    HW2 9262  11.655   7.666  13.998
 2475SOL     OW 9263   8.025   3.669  14.026
 2475SOL    HW1 9264   7.955   3.701  14.083
 2475SOL    HW2 9265   7.980   3.639  13.947
 2476SOL     OW 9266   9.923   5.515   3.208
 2476SOL    HW1 9267   9.921   5.534   3.302
 2476SOL    HW2 9268   9.951   5.423   3.203
 2477SOL     OW 9269  11.095   0.547   8.943
 2477SOL    HW1 9270  11.189   0.558   8.955
 2477SOL    HW2 9271  11.082   0.452   8.935
 2478SOL     OW 9272   3.592   9.799   6.559
 2478SOL    HW1 9273   3.518   9.850   6.593
 2478SOL    HW2 9274   3.557   9.710   6.550
 2479SOL     OW 9275   5.046   9.806   4.943
 2479SOL    HW1 9276   5.102   9.752   4.887
 2479SOL    HW2 9277   5.101   9.827   5.019
 2480SOL     OW 9278   4.232   0.408   9.094
 2480SOL    HW1 9279   4.321   0.396   9.061
 2480SOL    HW2 9280   4.244   0.428   9.187
 2481SOL     OW 9281   1.165   9.200  14.251
 2481SOL    HW1 9282   1.117   9.244  14.320
 2481SOL    HW2 9283   1.221   9.137  14.297
 2482SOL     OW 9284   4.123   7.520  13.356
 2482SOL    HW1 9285   4.088   7.434  13.378
 2482SOL    HW2 9286   4.151   7.513  13.265
 2483SOL     OW 9287   9.375   2.876  10.619
 2483SOL    HW1 9288   9.285   2.874  10.653
 2483SOL    HW2 9289   9.424   2.925  10.685
 2484SOL     OW 9290  12.911   6.387   7.322
 2484SOL    HW1 9291  12.934   6.478   7.340
 2484SOL    HW2 9292  12.978   6.336   7.369
 2485SOL     OW 9293   8.843   3.567   3.513
 2485SOL    HW1 9294   8.778   3.515   3.561
 2485SOL    HW2 9295   8.859   3.643   3.569
 2486SOL     OW 9296   5.975   4.975   4.096
 2486SOL    HW1 9297   5.968   5.065   4.128
 2486SOL    HW2 9298   6.048   4.938   4.145
 2487SOL     OW 9299   3.340   5.120  13.374
 2487SOL    HW1 9300   3.414   5.165  13.415
 2487SOL    HW2 9301   3.281   5.100  13.447
 2488SOL     OW 9302   2.164  13.592  13.179
 2488SOL    HW1 9303   2.163  13.687  13.168
 2488SOL    HW2 9304   2.073  13.566  13.169
 2489SOL     OW 9305   0.495   6.027   7.595
 2489SOL    HW1 9306   0.444   6.010   7.516
 2489SOL    HW2 9307   0.483   6.121   7.612
 2490SOL     OW 9308   8.967   2.874   4.524
 2490SOL    HW1 9309   9.034   2.940   4.540
 2490SOL    HW2 9310   8.941   2.888   4.434
 2491SOL     OW 9311   9.104   8.318   2.452
 2491SOL    HW1 9312   9.151   8.364   2.382
 2491SOL    HW2 9313   9.052   8.385   2.496
 2492SOL     OW 9314   4.346   6.501   3.140
 2492SOL    HW1 9315   4.338   6.438   3.211
 2492SOL    HW2 9316   4.325   6.586   3.179
 2493SOL     OW 9317   5.423   0.994   1.620
 2493SOL    HW1 9318   5.494   0.947   1.663
 2493SOL    HW2 9319   5.365   0.926   1.586
 2494SOL     OW 9320   2.785   4.619  10.493
 2494SOL    HW1 9321   2.766   4.615  10.399
 2494SOL    HW2 9322   2.818   4.708  10.507
 2495SOL     OW 9323   5.600   6.567   3.610
 2495SOL    HW1 9324   5.693   6.568   3.587
 2495SOL    HW2 9325   5.586   6.483   3.653
 2496SOL     OW 9326   5.393  13.546   2.055
 2496SOL    HW1 9327   5.364  13.561   2.144
 2496SOL    HW2 9328   5.458  13.475   2.063
 2497SOL     OW 9329   0.635  11.368  13.852
 2497SOL    HW1 9330   0.619  11.342  13.761
 2497SOL    HW2 9331   0.553  11.406  13.881
 2498SOL     OW 9332   0.505   1.619   4.089
 2498SOL    HW1 9333   0.424   1.665   4.069
 2498SOL    HW2 9334   0.561   1.685   4.129
 2499SOL     OW 9335  14.562   9.860  11.009
 2499SOL    HW1 9336  14.608   9.825  11.086
 2499SOL    HW2 9337  14.574   9.794  10.942
 2500SOL     OW 9338   0.622  13.864   6.338
 2500SOL    HW1 9339   0.700  13.827   6.296
 2500SOL    HW2 9340   0.556  13.795   6.331
 2501SOL     OW 9341  12.518  13.494  11.063
 2501SOL    HW1 9342  12.594  13.451  11.024
 2501SOL    HW2 9343  12.500  13.442  11.142
 2502SOL     OW 9344   9.021   9.084   6.564
 2502SOL    HW1 9345   9.037   9.040   6.647
 2502SOL    HW2 9346   8.941   9.135   6.578
 2503SOL     OW 9347   0.212  10.416   4.712
 2503SOL    HW1 9348   0.232  10.423   4.619
 2503SOL    HW2 9349   0.284  10.462   4.756
 2504SOL     OW 9350   1.230  13.061   8.806
 2504SOL    HW1 9351   1.310  13.040   8.853
 2504SOL    HW2 9352   1.166  12.998   8.839
 2505SOL     OW 9353   0.180   5.242  13.729
 2505SOL    HW1 9354   0.119   5.229  13.656
 2505SOL    HW2 9355   0.261   5.274  13.687
 2506SOL     OW 9356   7.205   5.761   2.776
 2506SOL    HW1 9357   7.263   5.826   2.816
 2506SOL    HW2 9358   7.254   5.679   2.783
 2507SOL     OW 9359  14.529   3.121   0.945
 2507SOL    HW1 9360  14.541   3.124   0.850
 2507SOL    HW2 9361  14.493   3.034   0.962
 2508SOL     OW 9362   1.182   7.264  14.311
 2508SOL    HW1 9363   1.233   7.183  14.313
 2508SOL    HW2 9364   1.132   7.263  14.393
 2509SOL     OW 9365   3.725  12.314   4.184
 2509SOL    HW1 9366   3.634  12.286   4.170
 2509SOL    HW2 9367   3.756  12.261   4.257
 2510SOL     OW 9368  13.045   2.502   4.942
 2510SOL    HW1 9369  13.104   2.488   4.868
 2510SOL    HW2 9370  13.056   2.424   4.997
 2511SOL     OW 9371   6.691  12.773   2.191
 2511SOL    HW1 9372   6.729  12.687   2.208
 2511SOL    HW2 9373   6.598  12.763   2.210
 2512SOL     OW 9374  11.344   0.817  10.400
 2512SOL    HW1 9375  11.324   0.854  10.486
 2512SOL    HW2 9376  11.424   0.862  10.373
 2513SOL     OW 9377   0.310   6.298   9.936
 2513SOL    HW1 9378   0.247   6.346   9.990
 2513SOL    HW2 9379   0.312   6.346   9.853
 2514SOL     OW 9380   8.699  13.789  13.717
 2514SOL    HW1 9381   8.774  13.848  13.703
 2514SOL    HW2 9382   8.625  13.848  13.733
 2515SOL     OW 9383  13.996   3.090   7.327
 2515SOL    HW1 9384  13.985   3.110   7.420
 2515SOL    HW2 9385  13.907   3.095   7.291
 2516SOL     OW 9386   2.542   6.881   5.707
 2516SOL    HW1 9387   2.450   6.862   5.688
 2516SOL    HW2 9388   2.586   6.879   5.622
 2517SOL     OW 9389   0.335   6.254   2.478
 2517SOL    HW1 9390   0.267   6.294   2.424
 2517SOL    HW2 9391   0.416   6.295   2.450
 2518SOL     OW 9392   7.692   1.696  12.964
 2518SOL    HW1 9393   7.646   1.731  13.040
 2518SOL    HW2 9394   7.711   1.773  12.910
 2519SOL     OW 9395   8.472   1.660   3.232
 2519SOL    HW1 9396   8.564   1.685   3.235
 2519SOL    HW2 9397   8.461   1.616   3.148
 2520SOL     OW 9398  10.728   0.409   0.050
 2520SOL    HW1 9399  10.763   0.496   0.031
 2520SOL    HW2 9400  10.634   0.423   0.059
 2521SOL     OW 9401   0.029  12.734   7.173
 2521SOL    HW1 9402   0.023  12.781   7.256
 2521SOL    HW2 9403  14.838  12.778   7.117
 2522SOL     OW 9404   4.711  13.471  13.990
 2522SOL    HW1 9405   4.803  13.481  14.014
 2522SOL    HW2 9406   4.713  13.426  13.906
 2523SOL     OW 9407  12.372   0.383   4.793
 2523SOL    HW1 9408  12.330   0.453   4.843
 2523SOL    HW2 9409  12.459   0.416   4.774
 2524SOL     OW 9410   5.912   6.754   6.226
 2524SOL    HW1 9411   5.989   6.811   6.230
 2524SOL    HW2 9412   5.939   6.681   6.170
 2525SOL     OW 9413  14.353   8.537  10.322
 2525SOL    HW1 9414  14.293   8.553  10.394
 2525SOL    HW2 9415  14.434   8.509  10.364
 2526SOL     OW 9416   0.322   8.552  11.502
 2526SOL    HW1 9417   0.341   8.645  11.502
 2526SOL    HW2 9418   0.269   8.538  11.423
 2527SOL     OW 9419   4.573   4.935   4.816
 2527SOL    HW1 9420   4.501   4.876   4.840
 2527SOL    HW2 9421   4.543   4.977   4.736
 2528SOL     OW 9422   2.509   5.012  12.121
 2528SOL    HW1 9423   2.516   5.016  12.026
 2528SOL    HW2 9424   2.416   5.024  12.140
 2529SOL     OW 9425  11.441  11.861  13.767
 2529SOL    HW1 9426  11.473  11.842  13.678
 2529SOL    HW2 9427  11.365  11.803  13.778
 2530SOL     OW 9428  10.261   7.473  13.336
 2530SOL    HW1 9429  10.315   7.528  13.281
 2530SOL    HW2 9430  10.324   7.415  13.381
 2531SOL     OW 9431  10.735   8.515  11.873
 2531SOL    HW1 9432  10.677   8.472  11.810
 2531SOL    HW2 9433  10.729   8.608  11.851
 2532SOL     OW 9434   5.464   8.476  10.916
 2532SOL    HW1 9435   5.475   8.441  11.004
 2532SOL    HW2 9436   5.548   8.517  10.896
 2533SOL     OW 9437   2.757  11.359   0.190
 2533SOL    HW1 9438   2.844  11.392   0.168
 2533SOL    HW2 9439   2.749  11.277   0.140
 2534SOL     OW 9440  10.982   1.424   9.592
 2534SOL    HW1 9441  10.930   1.417   9.672
 2534SOL    HW2 9442  10.932   1.372   9.528
 2535SOL     OW 9443  12.620  10.073   4.159
 2535SOL    HW1 9444  12.706  10.069   4.201
 2535SOL    HW2 9445  12.605  10.166   4.143
 2536SOL     OW 9446   5.052   7.118   6.541
 2536SOL    HW1 9447   5.076   7.075   6.459
 2536SOL    HW2 9448   4.956   7.117   6.542
 2537SOL     OW 9449   7.070   0.572   7.794
 2537SOL    HW1 9450   7.010   0.601   7.862
 2537SOL    HW2 9451   7.021   0.585   7.712
 2538SOL     OW 9452   0.978   2.567   1.782
 2538SOL    HW1 9453   1.061   2.560   1.830
 2538SOL    HW2 9454   0.959   2.661   1.780
 2539SOL     OW 9455  11.243   2.247  13.060
 2539SOL    HW1 9456  11.207   2.336  13.054
 2539SOL    HW2 9457  11.320   2.256  13.117
 2540SOL     OW 9458  13.472   4.981   9.070
 2540SOL    HW1 9459  13.446   5.028   9.149
 2540SOL    HW2 9460  13.567   4.971   9.078
 2541SOL     OW 9461   5.163  13.456   4.242
 2541SOL    HW1 9462   5.190  13.365   4.238
 2541SOL    HW2 9463   5.240  13.506   4.215
 2542SOL     OW 9464  13.924   0.838   9.279
 2542SOL    HW1 9465  13.893   0.787   9.204
 2542SOL    HW2 9466  13.970   0.774   9.333
 2543SOL     OW 9467   3.553   8.971   0.079
 2543SOL    HW1 9468   3.600   8.888   0.083
 2543SOL    HW2 9469   3.608   9.027   0.023
 2544SOL     OW 9470   9.035  13.580  11.281
 2544SOL    HW1 9471   8.981  13.640  11.230
 2544SOL    HW2 9472   9.115  13.570  11.230
 2545SOL     OW 9473  14.780  13.065   2.402
 2545SOL    HW1 9474  14.728  13.142   2.379
 2545SOL    HW2 9475  14.844  13.057   2.332
 2546SOL     OW 9476  14.257  12.459   9.044
 2546SOL    HW1 9477  14.183  12.413   9.084
 2546SOL    HW2 9478  14.326  12.456   9.110
 2547SOL     OW 9479   2.293   8.952  14.559
 2547SOL    HW1 9480   2.329   8.974  14.473
 2547SOL    HW2 9481   2.352   8.885  14.593
 2548SOL     OW 9482  10.711   4.880   0.840
 2548SOL    HW1 9483  10.748   4.957   0.885
 2548SOL    HW2 9484  10.619   4.879   0.867
 2549SOL     OW 9485  10.095   3.094  11.432
 2549SOL    HW1 9486  10.125   3.164  11.490
 2549SOL    HW2 9487  10.140   3.016  11.462
 2550SOL     OW 9488  10.920  11.484   0.554
 2550SOL    HW1 9489  10.939  11.575   0.579
 2550SOL    HW2 9490  10.959  11.432   0.624
 2551SOL     OW 9491   2.690  10.024   1.670
 2551SOL    HW1 9492   2.681  10.116   1.645
 2551SOL    HW2 9493   2.650   9.975   1.598
 2552SOL     OW 9494   6.531  13.940   7.128
 2552SOL    HW1 9495   6.444  13.901   7.135
 2552SOL    HW2 9496   6.522  14.026   7.170
 2553SOL     OW 9497   5.968  10.829   6.780
 2553SOL    HW1 9498   5.929  10.827   6.868
 2553SOL    HW2 9499   5.895  10.849   6.722
 2554SOL     OW 9500   8.665  14.282   4.973
 2554SOL    HW1 9501   8.684  14.194   4.941
 2554SOL    HW2 9502   8.621  14.267   5.057
 2555SOL     OW 9503  13.795   4.642  13.543
 2555SOL    HW1 9504  13.778   4.736  13.546
 2555SOL    HW2 9505  13.753   4.612  13.462
 2556SOL     OW 9506  14.771  11.796   2.508
 2556SOL    HW1 9507  14.845  11.745   2.542
 2556SOL    HW2 9508  14.722  11.822   2.586
 2557SOL     OW 9509  14.669   6.850  10.537
 2557SOL    HW1 9510  14.653   6.758  10.561
 2557SOL    HW2 9511  14.718   6.886  10.610
 2558SOL     OW 9512  13.975   1.676  14.197
 2558SOL    HW1 9513  13.982   1.584  14.171
 2558SOL    HW2 9514  14.054   1.692  14.248
 2559SOL     OW 9515  12.091   3.821  13.123
 2559SOL    HW1 9516  12.017   3.875  13.152
 2559SOL    HW2 9517  12.055   3.733  13.116
 2560SOL     OW 9518   9.177   2.305   4.145
 2560SOL    HW1 9519   9.089   2.267   4.153
 2560SOL    HW2 9520   9.234   2.243   4.192
 2561SOL     OW 9521   7.118   4.415   8.313
 2561SOL    HW1 9522   7.074   4.394   8.395
 2561SOL    HW2 9523   7.047   4.426   8.250
 2562SOL     OW 9524   2.096   4.582  13.270
 2562SOL    HW1 9525   2.026   4.542  13.322
 2562SOL    HW2 9526   2.072   4.674  13.264
 2563SOL     OW 9527   0.249  13.422   6.898
 2563SOL    HW1 9528   0.220  13.441   6.987
 2563SOL    HW2 9529   0.330  13.472   6.888
 2564SOL     OW 9530   5.067   9.266  10.077
 2564SOL    HW1 9531   5.064   9.214  10.158
 2564SOL    HW2 9532   5.101   9.351  10.104
 2565SOL     OW 9533   6.012   0.734  11.146
 2565SOL    HW1 9534   6.032   0.642  11.166
 2565SOL    HW2 9535   5.996   0.774  11.231
 2566SOL     OW 9536   6.441  10.457  11.855
 2566SOL    HW1 9537   6.415  10.445  11.947
 2566SOL    HW2 9538   6.384  10.526  11.823
 2567SOL     OW 9539   4.306   3.545  10.404
 2567SOL    HW1 9540   4.371   3.522  10.470
 2567SOL    HW2 9541   4.328   3.492  10.327
 2568SOL     OW 9542  12.880  11.191   3.295
 2568SOL    HW1 9543  12.800  11.204   3.244
 2568SOL    HW2 9544  12.850  11.181   3.385
 2569SOL     OW 9545   1.833   4.200   3.608
 2569SOL    HW1 9546   1.924   4.204   3.639
 2569SOL    HW2 9547   1.818   4.286   3.568
 2570SOL     OW 9548   0.006  12.017   8.595
 2570SOL    HW1 9549  14.808  12.005   8.532
 2570SOL    HW2 9550   0.076  11.960   8.563
 2571SOL     OW 9551   6.300   4.545  14.060
 2571SOL    HW1 9552   6.214   4.587  14.066
 2571SOL    HW2 9553   6.358   4.603  14.110
 2572SOL     OW 9554   6.755   3.110   7.344
 2572SOL    HW1 9555   6.688   3.177   7.331
 2572SOL    HW2 9556   6.786   3.090   7.255
 2573SOL     OW 9557  14.198  11.791  13.813
 2573SOL    HW1 9558  14.186  11.707  13.769
 2573SOL    HW2 9559  14.130  11.847  13.776
 2574SOL     OW 9560  11.021  12.588  13.652
 2574SOL    HW1 9561  11.022  12.603  13.747
 2574SOL    HW2 9562  10.938  12.542  13.637
 2575SOL     OW 9563   2.313  13.493   7.315
 2575SOL    HW1 9564   2.238  13.456   7.267
 2575SOL    HW2 9565   2.373  13.420   7.325
 2576SOL     OW 9566   8.880   2.523  13.932
 2576SOL    HW1 9567   8.934   2.564  13.865
 2576SOL    HW2 9568   8.939   2.461  13.975
 2577SOL     OW 9569   2.996   8.939   8.033
 2577SOL    HW1 9570   3.020   8.974   7.948
 2577SOL    HW2 9571   3.065   8.968   8.092
 2578SOL     OW 9572  14.240   2.759  11.745
 2578SOL    HW1 9573  14.281   2.723  11.823
 2578SOL    HW2 9574  14.147   2.761  11.766
 2579SOL     OW 9575   4.635   3.556   1.366
 2579SOL    HW1 9576   4.619   3.512   1.283
 2579SOL    HW2 9577   4.554   3.601   1.386
 2580SOL     OW 9578   8.432   2.989   8.640
 2580SOL    HW1 9579   8.419   3.053   8.570
 2580SOL    HW2 9580   8.361   2.926   8.628
 2581SOL     OW 9581   8.003  14.040   2.824
 2581SOL    HW1 9582   8.051  14.010   2.747
 2581SOL    HW2 9583   8.064  14.027   2.897
 2582SOL     OW 9584  14.133   2.696  12.268
 2582SOL    HW1 9585  14.091   2.638  12.204
 2582SOL    HW2 9586  14.061   2.726  12.323
 2583SOL     OW 9587   7.944   3.745  10.918
 2583SOL    HW1 9588   7.882   3.753  10.991
 2583SOL    HW2 9589   7.950   3.834  10.882
 2584SOL     OW 9590  10.093  11.325   2.229
 2584SOL    HW1 9591  10.181  11.342   2.263
 2584SOL    HW2 9592  10.082  11.230   2.237
 2585SOL     OW 9593   5.366  14.362   0.157
 2585SOL    HW1 9594   5.384  14.303   0.230
 2585SOL    HW2 9595   5.355  14.304   0.082
 2586SOL     OW 9596   6.067   3.828  12.249
 2586SOL    HW1 9597   6.103   3.741  12.230
 2586SOL    HW2 9598   5.977   3.812  12.276
 2587SOL     OW 9599   2.023  14.734   0.161
 2587SOL    HW1 9600   2.051  14.646   0.186
 2587SOL    HW2 9601   1.999  14.776   0.243
 2588SOL     OW 9602   1.080   4.434   6.523
 2588SOL    HW1 9603   1.110   4.347   6.551
 2588SOL    HW2 9604   1.138   4.495   6.569
 2589SOL     OW 9605   0.670  13.790   5.974
 2589SOL    HW1 9606   0.681  13.882   5.996
 2589SOL    HW2 9607   0.757  13.762   5.945
 2590SOL     OW 9608   3.073   1.008   6.872
 2590SOL    HW1 9609   3.150   0.972   6.916
 2590SOL    HW2 9610   3.043   0.937   6.815
 2591SOL     OW 9611   3.253   0.355   2.727
 2591SOL    HW1 9612   3.328   0.378   2.672
 2591SOL    HW2 9613   3.177   0.368   2.671
 2592SOL     OW 9614   1.385   0.010   4.484
 2592SOL    HW1 9615   1.316   0.066   4.448
 2592SOL    HW2 9616   1.350  14.852   4.567
 2593SOL     OW 9617  13.167   5.464   6.713
 2593SOL    HW1 9618  13.105   5.516   6.661
 2593SOL    HW2 9619  13.211   5.409   6.648
 2594SOL     OW 9620   1.875  10.627   6.526
 2594SOL    HW1 9621   1.965  10.634   6.557
 2594SOL    HW2 9622   1.829  10.697   6.572
 2595SOL     OW 9623  13.100   9.515   7.027
 2595SOL    HW1 9624  13.175   9.572   7.042
 2595SOL    HW2 9625  13.028   9.557   7.075
 2596SOL     OW 9626   2.735  10.078   7.272
 2596SOL    HW1 9627   2.766  10.014   7.208
 2596SOL    HW2 9628   2.747  10.162   7.228
 2597SOL     OW 9629  11.967   6.470  14.063
 2597SOL    HW1 9630  11.916   6.484  13.983
 2597SOL    HW2 9631  11.917   6.405  14.112
 2598SOL     OW 9632   7.552   8.204   7.288
 2598SOL    HW1 9633   7.632   8.191   7.237
 2598SOL    HW2 9634   7.548   8.127   7.344
 2599SOL     OW 9635   7.020  12.710   2.524
 2599SOL    HW1 9636   7.051  12.660   2.448
 2599SOL    HW2 9637   6.989  12.792   2.486
 2600SOL     OW 9638   0.668   3.491   7.179
 2600SOL    HW1 9639   0.594   3.472   7.121
 2600SOL    HW2 9640   0.628   3.515   7.262
 2601SOL     OW 9641  13.070   2.671   6.936
 2601SOL    HW1 9642  13.147   2.635   6.981
 2601SOL    HW2 9643  13.078   2.765   6.946
 2602SOL     OW 9644   4.113  11.275  10.925
 2602SOL    HW1 9645   4.054  11.255  10.853
 2602SOL    HW2 9646   4.065  11.338  10.979
 2603SOL     OW 9647  10.586   3.085  10.839
 2603SOL    HW1 9648  10.538   3.073  10.757
 2603SOL    HW2 9649  10.638   3.164  10.826
 2604SOL     OW 9650   8.891   5.567   9.599
 2604SOL    HW1 9651   8.892   5.570   9.694
 2604SOL    HW2 9652   8.983   5.562   9.574
 2605SOL     OW 9653  14.637  10.618   2.360
 2605SOL    HW1 9654  14.664  10.532   2.391
 2605SOL    HW2 9655  14.718  10.669   2.359
 2606SOL     OW 9656  12.226  11.397  11.809
 2606SOL    HW1 9657  12.265  11.457  11.746
 2606SOL    HW2 9658  12.226  11.445  11.892
 2607SOL     OW 9659   9.207   9.277   2.870
 2607SOL    HW1 9660   9.116   9.298   2.849
 2607SOL    HW2 9661   9.257   9.350   2.834
 2608SOL     OW 9662   8.717   3.680   1.494
 2608SOL    HW1 9663   8.747   3.641   1.412
 2608SOL    HW2 9664   8.626   3.705   1.477
 2609SOL     OW 9665   3.450   6.512   1.078
 2609SOL    HW1 9666   3.421   6.554   0.997
 2609SOL    HW2 9667   3.417   6.568   1.148
 2610SOL     OW 9668  13.587  10.838   6.965
 2610SOL    HW1 9669  13.656  10.839   6.899
 2610SOL    HW2 9670  13.510  10.874   6.920
 2611SOL     OW 9671   6.619   9.564   5.914
 2611SOL    HW1 9672   6.624   9.578   6.008
 2611SOL    HW2 9673   6.696   9.609   5.879
 2612SOL     OW 9674   7.793   9.121   4.274
 2612SOL    HW1 9675   7.885   9.101   4.290
 2612SOL    HW2 9676   7.745   9.070   4.339
 2613SOL     OW 9677   4.477   2.307   4.803
 2613SOL    HW1 9678   4.505   2.229   4.850
 2613SOL    HW2 9679   4.384   2.292   4.785
 2614SOL     OW 9680   1.733  10.282   3.958
 2614SOL    HW1 9681   1.711  10.216   4.024
 2614SOL    HW2 9682   1.817  10.319   3.988
 2615SOL     OW 9683   4.113   6.124   7.488
 2615SOL    HW1 9684   4.197   6.157   7.521
 2615SOL    HW2 9685   4.048   6.152   7.552
 2616SOL     OW 9686   2.637  12.326   8.169
 2616SOL    HW1 9687   2.599  12.264   8.107
 2616SOL    HW2 9688   2.561  12.367   8.212
 2617SOL     OW 9689  13.632   2.005   6.473
 2617SOL    HW1 9690  13.701   2.063   6.506
 2617SOL    HW2 9691  13.651   1.996   6.380
 2618SOL     OW 9692   7.669  13.946   6.728
 2618SOL    HW1 9693   7.759  13.920   6.748
 2618SOL    HW2 9694   7.662  14.035   6.763
 2619SOL     OW 9695   9.500   4.710  14.362
 2619SOL    HW1 9696   9.566   4.649  14.330
 2619SOL    HW2 9697   9.477   4.763  14.286
 2620SOL     OW 9698   0.637   6.617   7.613
 2620SOL    HW1 9699   0.690   6.547   7.652
 2620SOL    HW2 9700   0.664   6.696   7.660
 2621SOL     OW 9701  11.526   8.303   9.921
 2621SOL    HW1 9702  11.574   8.251   9.985
 2621SOL    HW2 9703  11.593   8.357   9.879
 2622SOL     OW 9704  10.101   7.189   5.756
 2622SOL    HW1 9705  10.118   7.280   5.729
 2622SOL    HW2 9706  10.074   7.195   5.847
 2623SOL     OW 9707  13.544   9.913   3.086
 2623SOL    HW1 9708  13.476   9.847   3.075
 2623SOL    HW2 9709  13.546   9.930   3.180
 2624SOL     OW 9710   1.682   7.140   4.041
 2624SOL    HW1 9711   1.740   7.121   4.114
 2624SOL    HW2 9712   1.741   7.153   3.966
 2625SOL     OW 9713  13.976  13.828  11.961
 2625SOL    HW1 9714  14.035  13.833  11.886
 2625SOL    HW2 9715  13.898  13.875  11.934
 2626SOL     OW 9716  12.772   5.541   0.732
 2626SOL    HW1 9717  12.769   5.611   0.667
 2626SOL    HW2 9718  12.859   5.502   0.721
 2627SOL     OW 9719   5.945  12.121   6.327
 2627SOL    HW1 9720   5.892  12.173   6.387
 2627SOL    HW2 9721   6.034  12.129   6.360
 2628SOL     OW 9722   7.196   8.109   7.820
 2628SOL    HW1 9723   7.116   8.138   7.776
 2628SOL    HW2 9724   7.194   8.014   7.811
 2629SOL     OW 9725   9.735   5.637   4.798
 2629SOL    HW1 9726   9.760   5.644   4.705
 2629SOL    HW2 9727   9.758   5.723   4.835
 2630SOL     OW 9728   0.837  11.008   3.699
 2630SOL    HW1 9729   0.889  10.927   3.699
 2630SOL    HW2 9730   0.877  11.062   3.631
 2631SOL     OW 9731   7.854   3.764   9.804
 2631SOL    HW1 9732   7.941   3.728   9.789
 2631SOL    HW2 9733   7.858   3.852   9.768
 2632SOL     OW 9734  14.572   6.825   0.240
 2632SOL    HW1 9735  14.655   6.805   0.195
 2632SOL    HW2 9736  14.593   6.902   0.294
 2633SOL     OW 9737  11.835  11.218  12.283
 2633SOL    HW1 9738  11.745  11.207  12.253
 2633SOL    HW2 9739  11.856  11.136  12.328
 2634SOL     OW 9740  13.589   0.684   4.552
 2634SOL    HW1 9741  13.568   0.677   4.645
 2634SOL    HW2 9742  13.682   0.664   4.547
 2635SOL     OW 9743   9.007   5.995   4.163
 2635SOL    HW1 9744   8.951   5.950   4.100
 2635SOL    HW2 9745   9.096   5.973   4.135
 2636SOL     OW 9746   0.903   4.817   2.332
 2636SOL    HW1 9747   0.824   4.865   2.305
 2636SOL    HW2 9748   0.915   4.842   2.424
 2637SOL     OW 9749   0.478   2.285   1.694
 2637SOL    HW1 9750   0.484   2.336   1.775
 2637SOL    HW2 9751   0.567   2.255   1.677
 2638SOL     OW 9752  10.098  13.830  12.685
 2638SOL    HW1 9753  10.151  13.832  12.605
 2638SOL    HW2 9754  10.019  13.879  12.663
 2639SOL     OW 9755  11.290   4.097   0.203
 2639SOL    HW1 9756  11.254   4.180   0.235
 2639SOL    HW2 9757  11.368   4.124   0.154
 2640SOL     OW 9758  12.464  11.167   5.137
 2640SOL    HW1 9759  12.521  11.230   5.181
 2640SOL    HW2 9760  12.491  11.082   5.173
 2641SOL     OW 9761   7.269   8.153   3.040
 2641SOL    HW1 9762   7.296   8.130   3.129
 2641SOL    HW2 9763   7.217   8.078   3.012
 2642SOL     OW 9764  12.442   8.754  11.491
 2642SOL    HW1 9765  12.400   8.834  11.460
 2642SOL    HW2 9766  12.370   8.703  11.530
 2643SOL     OW 9767  10.058   6.736   7.182
 2643SOL    HW1 9768  10.089   6.813   7.229
 2643SOL    HW2 9769  10.085   6.662   7.236
 2644SOL     OW 9770  12.156  11.166   7.258
 2644SOL    HW1 9771  12.202  11.217   7.324
 2644SOL    HW2 9772  12.196  11.192   7.175
 2645SOL     OW 9773   6.620   1.096  13.303
 2645SOL    HW1 9774   6.692   1.151  13.274
 2645SOL    HW2 9775   6.644   1.008  13.276
 2646SOL     OW 9776  11.714   7.122  14.003
 2646SOL    HW1 9777  11.767   7.128  14.082
 2646SOL    HW2 9778  11.669   7.206  13.997
 2647SOL     OW 9779   9.314   3.012   5.522
 2647SOL    HW1 9780   9.352   2.957   5.590
 2647SOL    HW2 9781   9.240   2.961   5.488
 2648SOL     OW 9782   7.311   1.705   0.951
 2648SOL    HW1 9783   7.298   1.794   0.917
 2648SOL    HW2 9784   7.406   1.699   0.964
 2649SOL     OW 9785   2.208   9.285  13.173
 2649SOL    HW1 9786   2.286   9.321  13.215
 2649SOL    HW2 9787   2.234   9.198  13.143
 2650SOL     OW 9788   3.107  12.661   7.446
 2650SOL    HW1 9789   3.054  12.597   7.398
 2650SOL    HW2 9790   3.146  12.715   7.377
 2651SOL     OW 9791   2.967   2.294   2.135
 2651SOL    HW1 9792   3.060   2.309   2.120
 2651SOL    HW2 9793   2.964   2.232   2.208
 2652SOL     OW 9794   5.964  14.610   3.159
 2652SOL    HW1 9795   6.054  14.640   3.166
 2652SOL    HW2 9796   5.972  14.519   3.129
 2653SOL     OW 9797  10.258   3.422  11.991
 2653SOL    HW1 9798  10.235   3.342  12.036
 2653SOL    HW2 9799  10.332   3.457  12.040
 2654SOL     OW 9800   5.135  14.280   6.308
 2654SOL    HW1 9801   5.146  14.239   6.223
 2654SOL    HW2 9802   5.123  14.373   6.289
 2655SOL     OW 9803  10.271  14.028   4.358
 2655SOL    HW1 9804  10.264  14.108   4.305
 2655SOL    HW2 9805  10.358  14.032   4.396
 2656SOL     OW 9806  10.408  13.838   6.597
 2656SOL    HW1 9807  10.482  13.778   6.590
 2656SOL    HW2 9808  10.443  13.923   6.571
 2657SOL     OW 9809  13.441   5.763   1.134
 2657SOL    HW1 9810  13.459   5.815   1.212
 2657SOL    HW2 9811  13.499   5.799   1.067
 2658SOL     OW 9812   4.578   2.057   2.737
 2658SOL    HW1 9813   4.539   2.135   2.696
 2658SOL    HW2 9814   4.669   2.081   2.752
 2659SOL     OW 9815   3.958   2.393  12.673
 2659SOL    HW1 9816   3.943   2.436  12.589
 2659SOL    HW2 9817   3.916   2.451  12.737
 2660SOL     OW 9818   7.491   4.219   7.655
 2660SOL    HW1 9819   7.430   4.166   7.705
 2660SOL    HW2 9820   7.507   4.296   7.710
 2661SOL     OW 9821  14.665   9.581   8.344
 2661SOL    HW1 9822  14.608   9.523   8.395
 2661SOL    HW2 9823  14.610   9.614   8.273
 2662SOL     OW 9824   6.105  13.419  13.927
 2662SOL    HW1 9825   6.045  13.356  13.887
 2662SOL    HW2 9826   6.153  13.457  13.853
 2663SOL     OW 9827  12.326  13.681   4.887
 2663SOL    HW1 9828  12.264  13.688   4.959
 2663SOL    HW2 9829  12.405  13.643   4.926
 2664SOL     OW 9830  13.873  10.263   6.953
 2664SOL    HW1 9831  13.961  10.261   6.991
 2664SOL    HW2 9832  13.846  10.171   6.952
 2665SOL     OW 9833   6.199   0.252   7.872
 2665SOL    HW1 9834   6.127   0.313   7.863
 2665SOL    HW2 9835   6.167   0.170   7.835
 2666SOL     OW 9836   4.072  14.664  11.199
 2666SOL    HW1 9837   4.129  14.661  11.275
 2666SOL    HW2 9838   4.130  14.643  11.125
 2667SOL     OW 9839  10.294  11.310  14.503
 2667SOL    HW1 9840  10.268  11.230  14.547
 2667SOL    HW2 9841  10.249  11.380  14.551
 2668SOL     OW 9842   0.764   4.167   6.479
 2668SOL    HW1 9843   0.829   4.186   6.411
 2668SOL    HW2 9844   0.701   4.108   6.437
 2669SOL     OW 9845   9.495   2.222   7.842
 2669SOL    HW1 9846   9.498   2.318   7.841
 2669SOL    HW2 9847   9.582   2.196   7.873
 2670SOL     OW 9848   2.916   4.897  11.850
 2670SOL    HW1 9849   2.932   4.830  11.917
 2670SOL    HW2 9850   3.002   4.936  11.835
 2671SOL     OW 9851  12.140   5.492   4.194
 2671SOL    HW1 9852  12.220   5.504   4.144
 2671SOL    HW2 9853  12.074   5.467   4.129
 2672SOL     OW 9854   6.581   4.403   2.101
 2672SOL    HW1 9855   6.656   4.456   2.075
 2672SOL    HW2 9856   6.549   4.445   2.181
 2673SOL     OW 9857   6.560   4.223   2.419
 2673SOL    HW1 9858   6.569   4.183   2.506
 2673SOL    HW2 9859   6.548   4.316   2.436
 2674SOL     OW 9860  14.087   7.757   2.832
 2674SOL    HW1 9861  14.052   7.839   2.798
 2674SOL    HW2 9862  14.172   7.781   2.869
 2675SOL     OW 9863  12.452   2.466   0.623
 2675SOL    HW1 9864  12.412   2.447   0.538
 2675SOL    HW2 9865  12.519   2.531   0.604
 2676SOL     OW 9866  10.043  10.945   3.822
 2676SOL    HW1 9867  10.131  10.905   3.819
 2676SOL    HW2 9868  10.000  10.902   3.896
 2677SOL     OW 9869   6.154   4.935   9.007
 2677SOL    HW1 9870   6.186   4.848   9.031
 2677SOL    HW2 9871   6.155   4.984   9.089
 2678SOL     OW 9872   4.689  14.246   0.964
 2678SOL    HW1 9873   4.743  14.267   0.888
 2678SOL    HW2 9874   4.694  14.150   0.971
 2679SOL     OW 9875   9.863  10.622   0.179
 2679SOL    HW1 9876   9.863  10.548   0.118
 2679SOL    HW2 9877   9.792  10.678   0.148
 2680SOL     OW 9878   5.564   2.448  14.058
 2680SOL    HW1 9879   5.613   2.530  14.050
 2680SOL    HW2 9880   5.614   2.385  14.006
 2681SOL     OW 9881   2.317   9.553   4.604
 2681SOL    HW1 9882   2.239   9.595   4.640
 2681SOL    HW2 9883   2.389   9.586   4.659
 2682SOL     OW 9884   6.275  10.716   8.028
 2682SOL    HW1 9885   6.244  10.669   8.106
 2682SOL    HW2 9886   6.220  10.794   8.024
 2683SOL     OW 9887   5.455  11.852   5.376
 2683SOL    HW1 9888   5.462  11.758   5.395
 2683SOL    HW2 9889   5.546  11.880   5.367
 2684SOL     OW 9890   9.386   2.086   8.069
 2684SOL    HW1 9891   9.419   2.147   8.003
 2684SOL    HW2 9892   9.291   2.090   8.059
 2685SOL     OW 9893   7.102  14.195  13.980
 2685SOL    HW1 9894   7.134  14.284  13.992
 2685SOL    HW2 9895   7.133  14.147  14.057
 2686SOL     OW 9896   3.881  14.714   8.055
 2686SOL    HW1 9897   3.828  14.713   7.975
 2686SOL    HW2 9898   3.834  14.658   8.116
 2687SOL     OW 9899   9.457   3.879   2.999
 2687SOL    HW1 9900   9.480   3.964   2.960
 2687SOL    HW2 9901   9.368   3.863   2.969
 2688SOL     OW 9902   7.847   7.435   6.786
 2688SOL    HW1 9903   7.809   7.444   6.873
 2688SOL    HW2 9904   7.935   7.402   6.801
 2689SOL     OW 9905   2.937  12.364   1.135
 2689SOL    HW1 9906   2.906  12.285   1.180
 2689SOL    HW2 9907   2.878  12.433   1.166
 2690SOL     OW 9908   0.612   2.462  13.939
 2690SOL    HW1 9909   0.680   2.398  13.918
 2690SOL    HW2 9910   0.651   2.517  14.007
 2691SOL     OW 9911   3.260  12.694   6.421
 2691SOL    HW1 9912   3.273  12.653   6.336
 2691SOL    HW2 9913   3.210  12.774   6.402
 2692SOL     OW 9914   7.938  12.517  14.457
 2692SOL    HW1 9915   8.008  12.501  14.394
 2692SOL    HW2 9916   7.934  12.436  14.509
 2693SOL     OW 9917  12.493   9.325  12.404
 2693SOL    HW1 9918  12.446   9.397  12.445
 2693SOL    HW2 9919  12.581   9.329  12.443
 2694SOL     OW 9920  12.516   2.454   4.367
 2694SOL    HW1 9921  12.445   2.463   4.430
 2694SOL    HW2 9922  12.505   2.529   4.308
 2695SOL     OW 9923   3.557  12.304  14.830
 2695SOL    HW1 9924   3.529  12.361  14.758
 2695SOL    HW2 9925   3.577  12.365   0.028
 2696SOL     OW 9926   8.020  13.148  13.011
 2696SOL    HW1 9927   8.072  13.228  13.016
 2696SOL    HW2 9928   8.035  13.105  13.096
 2697SOL     OW 9929  12.883  13.509  13.304
 2697SOL    HW1 9930  12.844  13.468  13.226
 2697SOL    HW2 9931  12.873  13.603  13.289
 2698SOL     OW 9932  11.906   9.382   8.566
 2698SOL    HW1 9933  11.880   9.424   8.483
 2698SOL    HW2 9934  11.975   9.321   8.541
 2699SOL     OW 9935   8.749   0.895   7.062
 2699SOL    HW1 9936   8.675   0.946   7.096
 2699SOL    HW2 9937   8.801   0.959   7.013
 2700SOL     OW 9938   3.607  14.127   9.781
 2700SOL    HW1 9939   3.609  14.036   9.751
 2700SOL    HW2 9940   3.551  14.126   9.859
 2701SOL     OW 9941  10.935   1.556   2.992
 2701SOL    HW1 9942  10.909   1.619   2.925
 2701SOL    HW2 9943  10.921   1.601   3.075
 2702SOL     OW 9944  13.788   1.126  10.233
 2702SOL    HW1 9945  13.788   1.093  10.143
 2702SOL    HW2 9946  13.700   1.162  10.245
 2703SOL     OW 9947  10.542   3.624  14.378
 2703SOL    HW1 9948  10.473   3.594  14.318
 2703SOL    HW2 9949  10.596   3.546  14.392
 2704SOL     OW 9950   9.979   0.199  11.813
 2704SOL    HW1 9951   9.895   0.191  11.857
 2704SOL    HW2 9952  10.024   0.116  11.831
 2705SOL     OW 9953   8.800   4.293  11.556
 2705SOL    HW1 9954   8.750   4.229  11.505
 2705SOL    HW2 9955   8.734   4.342  11.604
 2706SOL     OW 9956  13.750  11.789   0.827
 2706SOL    HW1 9957  13.665  11.761   0.862
 2706SOL    HW2 9958  13.733  11.876   0.790
 2707SOL     OW 9959   2.007   0.137  11.811
 2707SOL    HW1 9960   2.043   0.077  11.745
 2707SOL    HW2 9961   2.065   0.213  11.807
 2708SOL     OW 9962  14.232   0.473  13.329
 2708SOL    HW1 9963  14.244   0.457  13.422
 2708SOL    HW2 9964  14.161   0.414  13.303
 2709SOL     OW 9965   2.023   7.865   3.017
 2709SOL    HW1 9966   1.984   7.815   3.089
 2709SOL    HW2 9967   1.962   7.938   3.004
 2710SOL     OW 9968   4.544   0.621   8.178
 2710SOL    HW1 9969   4.547   0.549   8.241
 2710SOL    HW2 9970   4.467   0.603   8.124
 2711SOL     OW 9971  12.873   5.660   8.053
 2711SOL    HW1 9972  12.900   5.647   8.144
 2711SOL    HW2 9973  12.902   5.581   8.007
 2712SOL     OW 9974  13.451   9.531   3.892
 2712SOL    HW1 9975  13.408   9.447   3.912
 2712SOL    HW2 9976  13.536   9.525   3.935
 2713SOL     OW 9977   8.798  13.938   5.162
 2713SOL    HW1 9978   8.740  14.011   5.141
 2713SOL    HW2 9979   8.823  13.902   5.077
 2714SOL     OW 9980  14.502   8.503   4.148
 2714SOL    HW1 9981  14.430   8.548   4.193
 2714SOL    HW2 9982  14.473   8.413   4.141
 2715SOL     OW 9983   2.202   1.182   0.257
 2715SOL    HW1 9984   2.273   1.131   0.296
 2715SOL    HW2 9985   2.198   1.152   0.166
 2716SOL     OW 9986   9.058   6.352   6.446
 2716SOL    HW1 9987   9.062   6.437   6.491
 2716SOL    HW2 9988   9.086   6.289   6.512
 2717SOL     OW 9989   2.123  10.455   2.878
 2717SOL    HW1 9990   2.139  10.477   2.786
 2717SOL    HW2 9991   2.167  10.524   2.927
 2718SOL     OW 9992  11.802   9.722   2.162
 2718SOL    HW1 9993  11.749   9.671   2.223
 2718SOL    HW2 9994  11.759   9.807   2.159
 2719SOL     OW 9995   7.567   8.486  14.158
 2719SOL    HW1 9996   7.522   8.538  14.223
 2719SOL    HW2 9997   7.500   8.426  14.124
 2720SOL     OW 9998   5.370  13.651   3.609
 2720SOL    HW1 9999   5.378  13.558   3.591
 2720SOL    HW210000   5.312  13.684   3.540
 2721SOL     OW10001   7.449  12.647   7.409
 2721SOL    HW110002   7.491  12.704   7.473
 2721SOL    HW210003   7.473  12.558   7.437
 2722SOL     OW10004  13.118   2.729   6.280
 2722SOL    HW110005  13.083   2.748   6.193
 2722SOL    HW210006  13.212   2.718   6.266
 2723SOL     OW10007  14.472   0.359   1.334
 2723SOL    HW110008  14.434   0.369   1.247
 2723SOL    HW210009  14.421   0.289   1.375
 2724SOL     OW10010   8.778   7.091   4.863
 2724SOL    HW110011   8.806   7.182   4.859
 2724SOL    HW210012   8.731   7.077   4.780
 2725SOL     OW10013  11.640  12.446   4.519
 2725SOL    HW110014  11.660  12.418   4.609
 2725SOL    HW210015  11.721  12.487   4.488
 2726SOL     OW10016   6.860  12.118   7.996
 2726SOL    HW110017   6.866  12.098   8.089
 2726SOL    HW210018   6.831  12.036   7.956
 2727SOL     OW10019   9.691  12.952   6.158
 2727SOL    HW110020   9.598  12.930   6.170
 2727SOL    HW210021   9.697  13.044   6.181
 2728SOL     OW10022   6.910   3.892   7.469
 2728SOL    HW110023   6.870   3.972   7.433
 2728SOL    HW210024   6.997   3.890   7.429
 2729SOL     OW10025   5.017  11.015   0.190
 2729SOL    HW110026   5.068  10.947   0.234
 2729SOL    HW210027   5.071  11.042   0.116
 2730SOL     OW10028   8.829   2.589  12.999
 2730SOL    HW110029   8.758   2.625  12.946
 2730SOL    HW210030   8.787   2.522  13.054
 2731SOL     OW10031   9.706   5.319   8.423
 2731SOL    HW110032   9.618   5.321   8.461
 2731SOL    HW210033   9.722   5.409   8.394
 2732SOL     OW10034   6.065   0.376  13.222
 2732SOL    HW110035   6.112   0.455  13.197
 2732SOL    HW210036   6.068   0.319  13.145
 2733SOL     OW10037   3.051   8.543  11.752
 2733SOL    HW110038   3.143   8.569  11.761
 2733SOL    HW210039   3.036   8.539  11.658
 2734SOL     OW10040   0.138   1.017  14.276
 2734SOL    HW110041   0.083   1.095  14.289
 2734SOL    HW210042   0.226   1.052  14.260
 2735SOL     OW10043   7.591   9.956   6.275
 2735SOL    HW110044   7.595   9.863   6.300
 2735SOL    HW210045   7.532   9.995   6.339
 2736SOL     OW10046   3.531   6.823   0.146
 2736SOL    HW110047   3.552   6.734   0.173
 2736SOL    HW210048   3.478   6.858   0.217
 2737SOL     OW10049   9.368   9.205  13.884
 2737SOL    HW110050   9.360   9.110  13.891
 2737SOL    HW210051   9.287   9.238  13.924
 2738SOL     OW10052   7.087   9.730   0.453
 2738SOL    HW110053   7.044   9.652   0.418
 2738SOL    HW210054   7.143   9.761   0.382
 2739SOL     OW10055  14.764  13.460   6.620
 2739SOL    HW110056  14.828  13.508   6.672
 2739SOL    HW210057  14.815  13.427   6.545
 2740SOL     OW10058  12.191   2.979   0.661
 2740SOL    HW110059  12.136   3.052   0.687
 2740SOL    HW210060  12.132   2.919   0.617
 2741SOL     OW10061   7.985   8.969   7.590
 2741SOL    HW110062   7.960   8.942   7.502
 2741SOL    HW210063   8.079   8.985   7.585
 2742SOL     OW10064   5.169  12.775   2.686
 2742SOL    HW110065   5.166  12.707   2.619
 2742SOL    HW210066   5.121  12.849   2.647
 2743SOL     OW10067   2.672   9.839  10.181
 2743SOL    HW110068   2.736   9.827  10.110
 2743SOL    HW210069   2.691   9.768  10.242
 2744SOL     OW10070  12.732   8.978  14.539
 2744SOL    HW110071  12.724   8.883  14.530
 2744SOL    HW210072  12.825   8.993  14.553
 2745SOL     OW10073   6.630   3.509   3.020
 2745SOL    HW110074   6.583   3.511   2.937
 2745SOL    HW210075   6.701   3.572   3.009
 2746SOL     OW10076   6.783   0.133   9.550
 2746SOL    HW110077   6.833   0.053   9.563
 2746SOL    HW210078   6.715   0.130   9.618
 2747SOL     OW10079  13.003  14.216  13.376
 2747SOL    HW110080  13.072  14.247  13.318
 2747SOL    HW210081  13.016  14.121  13.380
 2748SOL     OW10082  11.166   6.084   2.647
 2748SOL    HW110083  11.152   6.146   2.718
 2748SOL    HW210084  11.248   6.040   2.668
 2749SOL     OW10085   8.235   8.051   4.128
 2749SOL    HW110086   8.167   8.106   4.089
 2749SOL    HW210087   8.223   7.965   4.087
 2750SOL     OW10088   4.773   3.960   1.642
 2750SOL    HW110089   4.689   3.990   1.607
 2750SOL    HW210090   4.770   3.864   1.636
 2751SOL     OW10091   9.818  12.832  13.128
 2751SOL    HW110092   9.822  12.898  13.058
 2751SOL    HW210093   9.819  12.748  13.082
 2752SOL     OW10094   6.126   3.099  14.245
 2752SOL    HW110095   6.050   3.061  14.201
 2752SOL    HW210096   6.190   3.111  14.175
 2753SOL     OW10097  12.256   5.342   6.392
 2753SOL    HW110098  12.174   5.371   6.352
 2753SOL    HW210099  12.284   5.268   6.337
 2754SOL     OW10100   2.417  13.814   1.769
 2754SOL    HW110101   2.340  13.757   1.759
 2754SOL    HW210102   2.420  13.832   1.863
 2755SOL     OW10103   6.484   7.710   3.258
 2755SOL    HW110104   6.466   7.653   3.333
 2755SOL    HW210105   6.450   7.795   3.284
 2756SOL     OW10106   0.020  12.660   0.548
 2756SOL    HW110107  14.831  12.706   0.604
 2756SOL    HW210108  14.842  12.593   0.503
 2757SOL     OW10109   3.857   5.956  14.803
 2757SOL    HW110110   3.895   6.019  14.742
 2757SOL    HW210111   3.772   5.934  14.765
 2758SOL     OW10112   7.451   8.825  14.082
 2758SOL    HW110113   7.476   8.810  13.990
 2758SOL    HW210114   7.362   8.861  14.077
 2759SOL     OW10115  12.703  14.683   9.304
 2759SOL    HW110116  12.619  14.650   9.273
 2759SOL    HW210117  12.681  14.746   9.372
 2760SOL     OW10118   0.445   4.003   9.418
 2760SOL    HW110119   0.365   4.054   9.416
 2760SOL    HW210120   0.415   3.912   9.427
 2761SOL     OW10121  10.165  10.870   2.001
 2761SOL    HW110122  10.096  10.805   1.987
 2761SOL    HW210123  10.232  10.824   2.051
 2762SOL     OW10124  13.006   3.305   2.273
 2762SOL    HW110125  13.018   3.371   2.205
 2762SOL    HW210126  13.094   3.279   2.298
 2763SOL     OW10127   3.697   7.727   6.844
 2763SOL    HW110128   3.675   7.818   6.826
 2763SOL    HW210129   3.624   7.695   6.897
 2764SOL     OW10130   3.908   5.336  13.749
 2764SOL    HW110131   3.908   5.305  13.839
 2764SOL    HW210132   3.976   5.284  13.705
 2765SOL     OW10133   2.337   2.596   8.129
 2765SOL    HW110134   2.360   2.511   8.092
 2765SOL    HW210135   2.356   2.588   8.222
 2766SOL     OW10136  12.211  13.469  11.194
 2766SOL    HW110137  12.249  13.503  11.275
 2766SOL    HW210138  12.212  13.373  11.206
 2767SOL     OW10139   5.280  11.051  10.048
 2767SOL    HW110140   5.224  11.101   9.988
 2767SOL    HW210141   5.329  11.118  10.095
 2768SOL     OW10142  12.303  13.067   9.020
 2768SOL    HW110143  12.338  12.978   9.009
 2768SOL    HW210144  12.216  13.063   8.979
 2769SOL     OW10145   6.292  13.070  14.456
 2769SOL    HW110146   6.328  13.092  14.542
 2769SOL    HW210147   6.278  13.154  14.414
 2770SOL     OW10148  14.010   4.603   0.195
 2770SOL    HW110149  14.049   4.560   0.272
 2770SOL    HW210150  14.024   4.541   0.123
 2771SOL     OW10151   0.772   4.335   9.481
 2771SOL    HW110152   0.749   4.395   9.411
 2771SOL    HW210153   0.690   4.318   9.527
 2772SOL     OW10154   8.239  11.370  14.024
 2772SOL    HW110155   8.270  11.412  14.104
 2772SOL    HW210156   8.154  11.332  14.048
 2773SOL     OW10157  11.912  12.155   5.577
 2773SOL    HW110158  11.972  12.225   5.553
 2773SOL    HW210159  11.926  12.087   5.511
 2774SOL     OW10160   9.017   5.573   5.903
 2774SOL    HW110161   8.929   5.535   5.902
 2774SOL    HW210162   9.069   5.514   5.957
 2775SOL     OW10163   5.028   2.891   9.016
 2775SOL    HW110164   5.067   2.909   9.102
 2775SOL    HW210165   4.933   2.898   9.031
 2776SOL     OW10166   0.140  12.334   8.057
 2776SOL    HW110167   0.101  12.412   8.095
 2776SOL    HW210168   0.202  12.367   7.992
 2777SOL     OW10169   7.955   4.785  11.339
 2777SOL    HW110170   7.978   4.727  11.412
 2777SOL    HW210171   7.979   4.735  11.261
 2778SOL     OW10172   6.123   0.056   0.953
 2778SOL    HW110173   6.213   0.024   0.956
 2778SOL    HW210174   6.075  14.862   0.904
 2779SOL     OW10175  11.874   2.249  14.622
 2779SOL    HW110176  11.792   2.259  14.670
 2779SOL    HW210177  11.935   2.210  14.686
 2780SOL     OW10178   5.637   7.537   9.417
 2780SOL    HW110179   5.630   7.454   9.371
 2780SOL    HW210180   5.571   7.593   9.377
 2781SOL     OW10181   8.911   5.195  10.599
 2781SOL    HW110182   8.894   5.287  10.619
 2781SOL    HW210183   8.946   5.196  10.509
 2782SOL     OW10184   5.463  10.428   8.560
 2782SOL    HW110185   5.434  10.408   8.471
 2782SOL    HW210186   5.444  10.521   8.571
 2783SOL     OW10187   6.480  10.120   8.512
 2783SOL    HW110188   6.498  10.145   8.422
 2783SOL    HW210189   6.399  10.069   8.508
 2784SOL     OW10190   6.445   4.010   7.807
 2784SOL    HW110191   6.385   3.959   7.753
 2784SOL    HW210192   6.391   4.077   7.848
 2785SOL     OW10193  11.741   0.298   3.968
 2785SOL    HW110194  11.803   0.272   3.900
 2785SOL    HW210195  11.707   0.382   3.939
 2786SOL     OW10196  11.847   9.069  10.323
 2786SOL    HW110197  11.880   9.145  10.371
 2786SOL    HW210198  11.769   9.042  10.371
 2787SOL     OW10199  10.582   9.777   7.287
 2787SOL    HW110200  10.516   9.810   7.226
 2787SOL    HW210201  10.593   9.685   7.263
 2788SOL     OW10202   9.239   4.126   9.642
 2788SOL    HW110203   9.232   4.132   9.547
 2788SOL    HW210204   9.219   4.034   9.661
 2789SOL     OW10205   3.137   5.926   2.972
 2789SOL    HW110206   3.144   5.961   3.061
 2789SOL    HW210207   3.070   5.858   2.978
 2790SOL     OW10208   4.427   0.997  10.990
 2790SOL    HW110209   4.337   1.030  10.999
 2790SOL    HW210210   4.420   0.903  11.005
 2791SOL     OW10211  11.210   1.882   1.566
 2791SOL    HW110212  11.191   1.794   1.598
 2791SOL    HW210213  11.301   1.878   1.537
 2792SOL     OW10214  11.481  12.423   3.053
 2792SOL    HW110215  11.410  12.364   3.079
 2792SOL    HW210216  11.531  12.373   2.988
 2793SOL     OW10217   9.400   6.308   4.370
 2793SOL    HW110218   9.483   6.284   4.330
 2793SOL    HW210219   9.394   6.254   4.448
 2794SOL     OW10220  13.389   0.516  12.594
 2794SOL    HW110221  13.390   0.515  12.690
 2794SOL    HW210222  13.329   0.587  12.571
 2795SOL     OW10223   3.533   5.623   1.305
 2795SOL    HW110224   3.553   5.530   1.313
 2795SOL    HW210225   3.498   5.648   1.390
 2796SOL     OW10226   4.637  10.240   2.426
 2796SOL    HW110227   4.678  10.159   2.395
 2796SOL    HW210228   4.710  10.300   2.440
 2797SOL     OW10229  14.711   2.571   8.757
 2797SOL    HW110230  14.674   2.615   8.681
 2797SOL    HW210231  14.696   2.478   8.740
 2798SOL     OW10232   1.130  11.165   4.081
 2798SOL    HW110233   1.073  11.090   4.066
 2798SOL    HW210234   1.116  11.222   4.005
 2799SOL     OW10235   8.958   6.977   2.719
 2799SOL    HW110236   8.906   6.949   2.644
 2799SOL    HW210237   8.896   6.981   2.791
 2800SOL     OW10238   0.801   0.998   9.299
 2800SOL    HW110239   0.845   1.025   9.379
 2800SOL    HW210240   0.752   0.919   9.324
 2801SOL     OW10241  14.788   7.845   1.493
 2801SOL    HW110242  14.851   7.859   1.422
 2801SOL    HW210243  14.841   7.844   1.573
 2802SOL     OW10244   3.524   1.515   4.327
 2802SOL    HW110245   3.617   1.499   4.311
 2802SOL    HW210246   3.480   1.472   4.254
 2803SOL     OW10247   4.426  12.520   6.232
 2803SOL    HW110248   4.391  12.547   6.317
 2803SOL    HW210249   4.479  12.442   6.252
 2804SOL     OW10250   5.699  11.894   3.988
 2804SOL    HW110251   5.644  11.824   4.021
 2804SOL    HW210252   5.779  11.850   3.958
 2805SOL     OW10253   0.835  10.049  11.816
 2805SOL    HW110254   0.877   9.980  11.765
 2805SOL    HW210255   0.885  10.052  11.898
 2806SOL     OW10256   4.836   7.000   2.628
 2806SOL    HW110257   4.820   7.042   2.713
 2806SOL    HW210258   4.781   7.048   2.567
 2807SOL     OW10259   7.482   0.553  11.413
 2807SOL    HW110260   7.474   0.523  11.504
 2807SOL    HW210261   7.445   0.481  11.361
 2808SOL     OW10262   0.874  14.667   8.502
 2808SOL    HW110263   0.954  14.615   8.500
 2808SOL    HW210264   0.806  14.609   8.468
 2809SOL     OW10265   2.850   2.342   0.112
 2809SOL    HW110266   2.773   2.398   0.122
 2809SOL    HW210267   2.852   2.320   0.019
 2810SOL     OW10268   6.608  14.835   7.045
 2810SOL    HW110269   6.694  14.797   7.061
 2810SOL    HW210270   6.559  14.815   7.125
 2811SOL     OW10271   0.237   3.738   7.869
 2811SOL    HW110272   0.299   3.667   7.886
 2811SOL    HW210273   0.154   3.706   7.903
 2812SOL     OW10274   3.624   4.914  11.096
 2812SOL    HW110275   3.623   4.819  11.086
 2812SOL    HW210276   3.615   4.947  11.006
 2813SOL     OW10277  13.112   2.754   3.338
 2813SOL    HW110278  13.018   2.750   3.320
 2813SOL    HW210279  13.145   2.668   3.311
 2814SOL     OW10280  11.811   9.829  14.091
 2814SOL    HW110281  11.902   9.853  14.078
 2814SOL    HW210282  11.766   9.913  14.104
 2815SOL     OW10283   8.064  12.940   0.541
 2815SOL    HW110284   8.003  12.869   0.520
 2815SOL    HW210285   8.054  13.003   0.470
 2816SOL     OW10286  14.426  13.956   4.750
 2816SOL    HW110287  14.492  13.887   4.749
 2816SOL    HW210288  14.475  14.036   4.770
 2817SOL     OW10289   5.980   4.672   3.070
 2817SOL    HW110290   6.008   4.713   3.152
 2817SOL    HW210291   6.023   4.724   3.002
 2818SOL     OW10292   8.870  12.301   9.230
 2818SOL    HW110293   8.958  12.281   9.196
 2818SOL    HW210294   8.849  12.226   9.286
 2819SOL     OW10295   4.939   9.399  13.193
 2819SOL    HW110296   4.867   9.452  13.228
 2819SOL    HW210297   4.922   9.395  13.099
 2820SOL     OW10298   2.335   9.076   9.321
 2820SOL    HW110299   2.342   9.170   9.307
 2820SOL    HW210300   2.244   9.063   9.349
 2821SOL     OW10301   0.152  13.463  12.247
 2821SOL    HW110302   0.125  13.380  12.207
 2821SOL    HW210303   0.083  13.483  12.309
 2822SOL     OW10304  14.346   3.474   1.432
 2822SOL    HW110305  14.361   3.392   1.385
 2822SOL    HW210306  14.373   3.542   1.370
 2823SOL     OW10307   1.276  13.665  11.322
 2823SOL    HW110308   1.332  13.659  11.400
 2823SOL    HW210309   1.312  13.738  11.272
 2824SOL     OW10310   4.497   9.331   2.806
 2824SOL    HW110311   4.463   9.277   2.734
 2824SOL    HW210312   4.584   9.358   2.776
 2825SOL     OW10313   3.102  14.862   4.900
 2825SOL    HW110314   3.034   0.056   4.896
 2825SOL    HW210315   3.181   0.035   4.929
 2826SOL     OW10316   0.715   1.358  14.762
 2826SOL    HW110317   0.789   1.303  14.737
 2826SOL    HW210318   0.644   1.296  14.779
 2827SOL     OW10319   1.759   0.082  13.630
 2827SOL    HW110320   1.706   0.058  13.706
 2827SOL    HW210321   1.696   0.105  13.562
 2828SOL     OW10322   8.671  10.672   2.508
 2828SOL    HW110323   8.625  10.670   2.592
 2828SOL    HW210324   8.691  10.580   2.490
 2829SOL     OW10325  10.158  13.297  10.720
 2829SOL    HW110326  10.242  13.309  10.763
 2829SOL    HW210327  10.125  13.386  10.706
 2830SOL     OW10328   3.886  13.731   5.403
 2830SOL    HW110329   3.836  13.812   5.396
 2830SOL    HW210330   3.939  13.728   5.324
 2831SOL     OW10331  12.264   6.060  13.606
 2831SOL    HW110332  12.303   5.974  13.624
 2831SOL    HW210333  12.309   6.120  13.666
 2832SOL     OW10334   9.920   1.477  12.041
 2832SOL    HW110335   9.857   1.480  11.969
 2832SOL    HW210336   9.890   1.405  12.096
 2833SOL     OW10337   7.885   4.082  11.669
 2833SOL    HW110338   7.914   4.169  11.698
 2833SOL    HW210339   7.795   4.075  11.700
 2834SOL     OW10340  12.502   6.032  10.431
 2834SOL    HW110341  12.549   6.092  10.489
 2834SOL    HW210342  12.443   5.983  10.488
 2835SOL     OW10343   6.409   6.381  10.691
 2835SOL    HW110344   6.316   6.363  10.675
 2835SOL    HW210345   6.413   6.407  10.783
 2836SOL     OW10346  10.893  12.905   5.843
 2836SOL    HW110347  10.814  12.868   5.883
 2836SOL    HW210348  10.963  12.846   5.870
 2837SOL     OW10349  10.546   4.734  14.626
 2837SOL    HW110350  10.624   4.687  14.654
 2837SOL    HW210351  10.500   4.671  14.570
 2838SOL     OW10352  14.522   9.319   2.079
 2838SOL    HW110353  14.470   9.296   2.002
 2838SOL    HW210354  14.548   9.235   2.116
 2839SOL     OW10355  10.852  12.901   8.385
 2839SOL    HW110356  10.809  12.901   8.470
 2839SOL    HW210357  10.898  12.985   8.381
 2840SOL     OW10358   5.979  12.791  11.880
 2840SOL    HW110359   5.950  12.849  11.810
 2840SOL    HW210360   6.033  12.846  11.936
 2841SOL     OW10361  10.556   7.752   1.830
 2841SOL    HW110362  10.550   7.674   1.774
 2841SOL    HW210363  10.605   7.724   1.906
 2842SOL     OW10364   8.272   3.949  10.894
 2842SOL    HW110365   8.235   3.952  10.806
 2842SOL    HW210366   8.203   3.982  10.951
 2843SOL     OW10367   5.662   3.315   0.811
 2843SOL    HW110368   5.696   3.382   0.871
 2843SOL    HW210369   5.598   3.267   0.863
 2844SOL     OW10370  11.793   1.341   6.679
 2844SOL    HW110371  11.731   1.413   6.688
 2844SOL    HW210372  11.799   1.303   6.767
 2845SOL     OW10373  11.673   5.735   5.819
 2845SOL    HW110374  11.721   5.791   5.757
 2845SOL    HW210375  11.697   5.646   5.793
 2846SOL     OW10376   5.145   8.240   6.363
 2846SOL    HW110377   5.164   8.293   6.440
 2846SOL    HW210378   5.161   8.298   6.289
 2847SOL     OW10379   1.413  14.063  12.306
 2847SOL    HW110380   1.348  14.129  12.330
 2847SOL    HW210381   1.378  13.981  12.340
 2848SOL     OW10382  10.532  11.620   9.224
 2848SOL    HW110383  10.442  11.625   9.192
 2848SOL    HW210384  10.535  11.538   9.273
 2849SOL     OW10385   1.928  10.941   8.315
 2849SOL    HW110386   1.883  10.869   8.272
 2849SOL    HW210387   1.911  10.928   8.408
 2850SOL     OW10388   3.184   9.885   0.235
 2850SOL    HW110389   3.173   9.970   0.278
 2850SOL    HW210390   3.239   9.904   0.159
 2851SOL     OW10391  12.200   7.474   4.758
 2851SOL    HW110392  12.285   7.512   4.780
 2851SOL    HW210393  12.158   7.459   4.843
 2852SOL     OW10394   3.611   9.474   2.188
 2852SOL    HW110395   3.692   9.457   2.140
 2852SOL    HW210396   3.590   9.566   2.169
 2853SOL     OW10397  10.923   1.553   1.376
 2853SOL    HW110398  11.008   1.513   1.359
 2853SOL    HW210399  10.940   1.620   1.442
 2854SOL     OW10400   4.895   3.092   6.926
 2854SOL    HW110401   4.968   3.140   6.886
 2854SOL    HW210402   4.868   3.029   6.859
 2855SOL     OW10403  14.192   1.485   7.036
 2855SOL    HW110404  14.204   1.486   7.131
 2855SOL    HW210405  14.200   1.577   7.010
 2856SOL     OW10406   7.211  13.320   5.587
 2856SOL    HW110407   7.130  13.365   5.610
 2856SOL    HW210408   7.279  13.365   5.636
 2857SOL     OW10409  10.874   0.027   9.372
 2857SOL    HW110410  10.916   0.108   9.346
 2857SOL    HW210411  10.894   0.018   9.465
 2858SOL     OW10412   2.425  13.242   8.532
 2858SOL    HW110413   2.466  13.314   8.484
 2858SOL    HW210414   2.386  13.283   8.608
 2859SOL     OW10415   4.149   6.984  11.861
 2859SOL    HW110416   4.073   7.003  11.805
 2859SOL    HW210417   4.115   6.994  11.950
 2860SOL     OW10418  12.861   1.536   4.822
 2860SOL    HW110419  12.912   1.457   4.805
 2860SOL    HW210420  12.907   1.580   4.894
 2861SOL     OW10421   2.013   7.138   9.259
 2861SOL    HW110422   2.066   7.180   9.192
 2861SOL    HW210423   1.979   7.210   9.312
 2862SOL     OW10424   2.065  13.964   4.749
 2862SOL    HW110425   2.055  13.922   4.834
 2862SOL    HW210426   2.157  13.989   4.745
 2863SOL     OW10427   2.489   2.837  11.829
 2863SOL    HW110428   2.462   2.754  11.869
 2863SOL    HW210429   2.505   2.815  11.737
 2864SOL     OW10430  12.614  12.956   2.029
 2864SOL    HW110431  12.688  12.973   2.088
 2864SOL    HW210432  12.563  13.037   2.031
 2865SOL     OW10433  13.864  13.829  11.648
 2865SOL    HW110434  13.932  13.767  11.673
 2865SOL    HW210435  13.865  13.895  11.718
 2866SOL     OW10436  10.649   3.216   4.465
 2866SOL    HW110437  10.736   3.234   4.428
 2866SOL    HW210438  10.651   3.124   4.488
 2867SOL     OW10439   9.426   3.236  10.014
 2867SOL    HW110440   9.488   3.189  10.070
 2867SOL    HW210441   9.351   3.178  10.005
 2868SOL     OW10442   2.323   1.380   1.660
 2868SOL    HW110443   2.307   1.399   1.568
 2868SOL    HW210444   2.395   1.316   1.660
 2869SOL     OW10445  13.430   1.493   8.769
 2869SOL    HW110446  13.494   1.431   8.735
 2869SOL    HW210447  13.371   1.440   8.822
 2870SOL     OW10448   8.961   9.050  12.287
 2870SOL    HW110449   8.938   8.966  12.328
 2870SOL    HW210450   8.897   9.111  12.322
 2871SOL     OW10451  14.851   0.501  12.368
 2871SOL    HW110452  14.793   0.485  12.295
 2871SOL    HW210453   0.042   0.564  12.335
 2872SOL     OW10454   7.485   9.118   6.280
 2872SOL    HW110455   7.464   9.089   6.192
 2872SOL    HW210456   7.580   9.105   6.288
 2873SOL     OW10457   0.480  14.263   7.890
 2873SOL    HW110458   0.398  14.216   7.873
 2873SOL    HW210459   0.478  14.283   7.984
 2874SOL     OW10460   6.578   1.004   4.594
 2874SOL    HW110461   6.486   1.029   4.600
 2874SOL    HW210462   6.607   1.001   4.685
 2875SOL     OW10463   3.863   7.023   8.388
 2875SOL    HW110464   3.941   7.026   8.443
 2875SOL    HW210465   3.889   6.971   8.312
 2876SOL     OW10466  12.899  12.535   4.425
 2876SOL    HW110467  12.991  12.561   4.420
 2876SOL    HW210468  12.865  12.551   4.337
 2877SOL     OW10469   9.506  14.809   0.026
 2877SOL    HW110470   9.426  14.851   0.057
 2877SOL    HW210471   9.527  14.744   0.093
 2878SOL     OW10472   9.117  12.949  13.782
 2878SOL    HW110473   9.098  12.917  13.694
 2878SOL    HW210474   9.143  12.871  13.831
 2879SOL     OW10475   9.239   9.558   1.566
 2879SOL    HW110476   9.166   9.542   1.506
 2879SOL    HW210477   9.293   9.623   1.522
 2880SOL     OW10478  12.813   5.981   0.304
 2880SOL    HW110479  12.855   5.907   0.259
 2880SOL    HW210480  12.721   5.954   0.313
 2881SOL     OW10481   3.733  11.413  13.432
 2881SOL    HW110482   3.782  11.475  13.377
 2881SOL    HW210483   3.657  11.462  13.463
 2882SOL     OW10484  11.205   7.343  11.474
 2882SOL    HW110485  11.142   7.386  11.417
 2882SOL    HW210486  11.151   7.286  11.530
 2883SOL     OW10487   4.511   4.365   8.865
 2883SOL    HW110488   4.518   4.310   8.943
 2883SOL    HW210489   4.582   4.335   8.808
 2884SOL     OW10490  13.969   5.659  13.653
 2884SOL    HW110491  14.046   5.716  13.643
 2884SOL    HW210492  13.967   5.636  13.746
 2885SOL     OW10493  13.963  13.320  14.210
 2885SOL    HW110494  14.025  13.270  14.263
 2885SOL    HW210495  13.971  13.282  14.122
 2886SOL     OW10496   4.344   6.888   6.373
 2886SOL    HW110497   4.301   6.876   6.288
 2886SOL    HW210498   4.271   6.900   6.435
 2887SOL     OW10499   9.590   6.908   6.072
 2887SOL    HW110500   9.576   6.998   6.100
 2887SOL    HW210501   9.562   6.907   5.980
 2888SOL     OW10502  11.300  11.754  11.975
 2888SOL    HW110503  11.223  11.750  11.917
 2888SOL    HW210504  11.278  11.822  12.039
 2889SOL     OW10505  12.977  11.390   2.952
 2889SOL    HW110506  13.025  11.451   2.897
 2889SOL    HW210507  12.939  11.445   3.021
 2890SOL     OW10508  11.952   5.198   9.386
 2890SOL    HW110509  11.962   5.233   9.297
 2890SOL    HW210510  12.024   5.136   9.396
 2891SOL     OW10511   9.788   0.150  11.304
 2891SOL    HW110512   9.732   0.117  11.234
 2891SOL    HW210513   9.727   0.185  11.369
 2892SOL     OW10514  13.526   4.914   9.790
 2892SOL    HW110515  13.452   4.935   9.732
 2892SOL    HW210516  13.601   4.958   9.749
 2893SOL     OW10517   7.017  14.400  11.135
 2893SOL    HW110518   7.097  14.388  11.187
 2893SOL    HW210519   6.987  14.310  11.117
 2894SOL     OW10520  11.810   8.047   7.983
 2894SOL    HW110521  11.834   7.955   7.969
 2894SOL    HW210522  11.720   8.053   7.949
 2895SOL     OW10523  10.299   0.865  12.488
 2895SOL    HW110524  10.225   0.865  12.548
 2895SOL    HW210525  10.260   0.867  12.401
 2896SOL     OW10526   5.090   8.339   3.060
 2896SOL    HW110527   5.135   8.257   3.082
 2896SOL    HW210528   5.026   8.314   2.993
 2897SOL     OW10529  11.950   9.699  12.195
 2897SOL    HW110530  11.959   9.647  12.115
 2897SOL    HW210531  12.037   9.735  12.210
 2898SOL     OW10532   2.791   6.634  11.512
 2898SOL    HW110533   2.817   6.583  11.589
 2898SOL    HW210534   2.829   6.721  11.528
 2899SOL     OW10535   8.393   8.206  10.645
 2899SOL    HW110536   8.379   8.112  10.657
 2899SOL    HW210537   8.328   8.247  10.703
 2900SOL     OW10538   4.256  12.287   1.826
 2900SOL    HW110539   4.265  12.371   1.781
 2900SOL    HW210540   4.323  12.289   1.894
 2901SOL     OW10541   8.378   0.653   1.521
 2901SOL    HW110542   8.466   0.643   1.484
 2901SOL    HW210543   8.391   0.649   1.616
 2902SOL     OW10544   5.007   0.091   7.974
 2902SOL    HW110545   4.965   0.176   7.985
 2902SOL    HW210546   5.098   0.111   7.954
 2903SOL     OW10547  11.760   1.791   4.917
 2903SOL    HW110548  11.714   1.788   4.833
 2903SOL    HW210549  11.720   1.864   4.963
 2904SOL     OW10550   6.057  14.655   5.566
 2904SOL    HW110551   6.117  14.727   5.585
 2904SOL    HW210552   6.055  14.649   5.471
 2905SOL     OW10553  14.332   3.586   6.945
 2905SOL    HW110554  14.321   3.505   6.996
 2905SOL    HW210555  14.396   3.637   6.995
 2906SOL     OW10556   3.656  10.720   5.811
 2906SOL    HW110557   3.602  10.765   5.746
 2906SOL    HW210558   3.602  10.719   5.890
 2907SOL     OW10559   9.946   0.793  14.149
 2907SOL    HW110560   9.892   0.718  14.124
 2907SOL    HW210561   9.917   0.815  14.238
 2908SOL     OW10562   2.469  11.155  11.936
 2908SOL    HW110563   2.452  11.145  11.842
 2908SOL    HW210564   2.399  11.105  11.978
 2909SOL     OW10565   4.925  13.170  11.500
 2909SOL    HW110566   4.936  13.264  11.491
 2909SOL    HW210567   4.966  13.149  11.584
 2910SOL     OW10568   4.002   3.289  10.340
 2910SOL    HW110569   3.956   3.308  10.422
 2910SOL    HW210570   3.952   3.219  10.299
 2911SOL     OW10571   5.013   4.238   8.657
 2911SOL    HW110572   4.931   4.243   8.706
 2911SOL    HW210573   5.073   4.191   8.715
 2912SOL     OW10574   5.679   1.557   4.527
 2912SOL    HW110575   5.697   1.463   4.524
 2912SOL    HW210576   5.677   1.584   4.435
 2913SOL     OW10577   5.942   5.861   0.385
 2913SOL    HW110578   6.011   5.795   0.397
 2913SOL    HW210579   5.878   5.819   0.328
 2914SOL     OW10580  13.851   7.180  14.296
 2914SOL    HW110581  13.761   7.148  14.286
 2914SOL    HW210582  13.880   7.146  14.380
 2915SOL     OW10583   7.438  10.377   4.191
 2915SOL    HW110584   7.462  10.469   4.205
 2915SOL    HW210585   7.354  10.368   4.235
 2916SOL     OW10586  11.191   9.107   1.563
 2916SOL    HW110587  11.170   9.036   1.624
 2916SOL    HW210588  11.287   9.113   1.567
 2917SOL     OW10589   9.902   3.941   9.702
 2917SOL    HW110590   9.946   4.003   9.644
 2917SOL    HW210591   9.811   3.971   9.705
 2918SOL     OW10592   2.833  10.762   4.128
 2918SOL    HW110593   2.784  10.731   4.052
 2918SOL    HW210594   2.832  10.688   4.189
 2919SOL     OW10595   2.967   9.225   4.747
 2919SOL    HW110596   3.006   9.297   4.796
 2919SOL    HW210597   3.026   9.151   4.761
 2920SOL     OW10598   0.643   0.166   4.156
 2920SOL    HW110599   0.597   0.083   4.147
 2920SOL    HW210600   0.735   0.143   4.162
 2921SOL     OW10601   8.542  11.693   3.493
 2921SOL    HW110602   8.619  11.726   3.539
 2921SOL    HW210603   8.470  11.745   3.527
 2922SOL     OW10604  13.664   9.457  11.646
 2922SOL    HW110605  13.703   9.404  11.576
 2922SOL    HW210606  13.714   9.434  11.724
 2923SOL     OW10607   8.804   2.352  11.725
 2923SOL    HW110608   8.747   2.322  11.797
 2923SOL    HW210609   8.786   2.446  11.718
 2924SOL     OW10610   3.407   6.319   9.376
 2924SOL    HW110611   3.442   6.232   9.361
 2924SOL    HW210612   3.391   6.322   9.471
 2925SOL     OW10613  10.096   7.936   4.179
 2925SOL    HW110614  10.115   7.987   4.258
 2925SOL    HW210615  10.008   7.902   4.193
 2926SOL     OW10616   0.820   7.957  12.628
 2926SOL    HW110617   0.765   7.921  12.697
 2926SOL    HW210618   0.909   7.950  12.662
 2927SOL     OW10619   6.505   2.679  10.194
 2927SOL    HW110620   6.463   2.619  10.133
 2927SOL    HW210621   6.554   2.622  10.253
 2928SOL     OW10622  12.118   0.188   7.545
 2928SOL    HW110623  12.108   0.139   7.627
 2928SOL    HW210624  12.087   0.127   7.478
 2929SOL     OW10625   1.990   3.406  13.363
 2929SOL    HW110626   2.021   3.495  13.377
 2929SOL    HW210627   2.066   3.359  13.329
 2930SOL     OW10628   9.377   6.820   0.704
 2930SOL    HW110629   9.434   6.852   0.634
 2930SOL    HW210630   9.431   6.821   0.782
 2931SOL     OW10631   5.809  11.635   1.389
 2931SOL    HW110632   5.897  11.669   1.409
 2931SOL    HW210633   5.764  11.634   1.473
 2932SOL     OW10634  13.800   5.184   5.715
 2932SOL    HW110635  13.734   5.212   5.653
 2932SOL    HW210636  13.875   5.242   5.700
 2933SOL     OW10637  13.006   5.283   9.890
 2933SOL    HW110638  13.080   5.327   9.932
 2933SOL    HW210639  12.948   5.260   9.963
 2934SOL     OW10640  14.714   2.917   0.269
 2934SOL    HW110641  14.677   2.969   0.341
 2934SOL    HW210642  14.663   2.837   0.269
 2935SOL     OW10643  13.681   0.649   9.347
 2935SOL    HW110644  13.595   0.670   9.311
 2935SOL    HW210645  13.740   0.713   9.308
 2936SOL     OW10646   8.754   0.169  13.567
 2936SOL    HW110647   8.758   0.096  13.630
 2936SOL    HW210648   8.742   0.247  13.622
 2937SOL     OW10649   3.604  12.448   2.266
 2937SOL    HW110650   3.637  12.403   2.344
 2937SOL    HW210651   3.673  12.510   2.243
 2938SOL     OW10652  11.964   0.436   0.451
 2938SOL    HW110653  12.005   0.364   0.402
 2938SOL    HW210654  11.872   0.409   0.458
 2939SOL     OW10655   5.003   7.912  14.306
 2939SOL    HW110656   4.942   7.845  14.336
 2939SOL    HW210657   5.042   7.947  14.386
 2940SOL     OW10658   8.781   3.861   3.315
 2940SOL    HW110659   8.727   3.939   3.333
 2940SOL    HW210660   8.821   3.841   3.399
 2941SOL     OW10661   0.603   6.739  11.172
 2941SOL    HW110662   0.676   6.774  11.223
 2941SOL    HW210663   0.622   6.645  11.165
 2942SOL     OW10664   0.503   7.529   5.716
 2942SOL    HW110665   0.517   7.573   5.632
 2942SOL    HW210666   0.573   7.562   5.772
 2943SOL     OW10667   2.764  14.190  10.670
 2943SOL    HW110668   2.741  14.281  10.649
 2943SOL    HW210669   2.764  14.145  10.586
 2944SOL     OW10670   6.889   0.611   3.581
 2944SOL    HW110671   6.890   0.688   3.638
 2944SOL    HW210672   6.800   0.577   3.587
 2945SOL     OW10673   0.622   8.324   8.030
 2945SOL    HW110674   0.657   8.305   8.117
 2945SOL    HW210675   0.673   8.269   7.971
 2946SOL     OW10676   5.104  10.258  12.405
 2946SOL    HW110677   5.111  10.164  12.391
 2946SOL    HW210678   5.101  10.296  12.316
 2947SOL     OW10679   8.369   8.999   5.751
 2947SOL    HW110680   8.376   8.910   5.718
 2947SOL    HW210681   8.335   9.050   5.677
 2948SOL     OW10682   0.853   5.010   9.544
 2948SOL    HW110683   0.810   4.925   9.550
 2948SOL    HW210684   0.858   5.041   9.635
 2949SOL     OW10685   5.349   6.865   6.768
 2949SOL    HW110686   5.310   6.934   6.821
 2949SOL    HW210687   5.344   6.787   6.824
 2950SOL     OW10688   1.586   1.312   9.341
 2950SOL    HW110689   1.563   1.393   9.294
 2950SOL    HW210690   1.559   1.328   9.431
 2951SOL     OW10691   0.152  14.781   1.345
 2951SOL    HW110692   0.101  14.705   1.375
 2951SOL    HW210693   0.196  14.750   1.265
 2952SOL     OW10694   3.395   4.271   6.940
 2952SOL    HW110695   3.319   4.320   6.972
 2952SOL    HW210696   3.455   4.270   7.014
 2953SOL     OW10697   7.550   0.010   2.442
 2953SOL    HW110698   7.616   0.071   2.476
 2953SOL    HW210699   7.472   0.063   2.430
 2954SOL     OW10700  14.773   3.145   7.936
 2954SOL    HW110701  14.744   3.169   8.024
 2954SOL    HW210702  14.721   3.200   7.878
 2955SOL     OW10703  12.150   9.840   1.613
 2955SOL    HW110704  12.077   9.890   1.650
 2955SOL    HW210705  12.108   9.770   1.562
 2956SOL     OW10706  13.969   4.875   0.104
 2956SOL    HW110707  13.980   4.830   0.020
 2956SOL    HW210708  13.976   4.805   0.169
 2957SOL     OW10709   0.358   8.041   7.744
 2957SOL    HW110710   0.273   8.072   7.712
 2957SOL    HW210711   0.365   8.077   7.833
 2958SOL     OW10712   4.984   0.350  10.128
 2958SOL    HW110713   4.935   0.430  10.149
 2958SOL    HW210714   5.057   0.350  10.190
 2959SOL     OW10715   9.232  10.320  11.642
 2959SOL    HW110716   9.289  10.258  11.597
 2959SOL    HW210717   9.149  10.315  11.594
 2960SOL     OW10718  14.478   0.740  14.245
 2960SOL    HW110719  14.494   0.659  14.294
 2960SOL    HW210720  14.554   0.748  14.187
 2961SOL     OW10721  10.299   5.823  10.897
 2961SOL    HW110722  10.237   5.783  10.836
 2961SOL    HW210723  10.244   5.854  10.970
 2962SOL     OW10724   5.417   1.252   1.558
 2962SOL    HW110725   5.411   1.166   1.599
 2962SOL    HW210726   5.388   1.237   1.468
 2963SOL     OW10727   8.956   7.731  14.599
 2963SOL    HW110728   8.961   7.825  14.620
 2963SOL    HW210729   8.970   7.727  14.505
 2964SOL     OW10730   8.930   9.221   8.508
 2964SOL    HW110731   8.905   9.168   8.584
 2964SOL    HW210732   8.942   9.157   8.438
 2965SOL     OW10733  12.022   1.858  14.413
 2965SOL    HW110734  12.026   1.790  14.481
 2965SOL    HW210735  12.111   1.863  14.380
 2966SOL     OW10736   1.030   5.393   9.726
 2966SOL    HW110737   1.021   5.473   9.778
 2966SOL    HW210738   1.037   5.425   9.636
 2967SOL     OW10739   0.784  11.214  12.749
 2967SOL    HW110740   0.798  11.273  12.823
 2967SOL    HW210741   0.756  11.272  12.677
 2968SOL     OW10742   1.601   3.405  10.486
 2968SOL    HW110743   1.675   3.398  10.546
 2968SOL    HW210744   1.593   3.499  10.469
 2969SOL     OW10745   9.315   5.967  11.799
 2969SOL    HW110746   9.241   5.950  11.741
 2969SOL    HW210747   9.278   6.016  11.872
 2970SOL     OW10748   6.802  10.514  14.661
 2970SOL    HW110749   6.777  10.604  14.639
 2970SOL    HW210750   6.810  10.470  14.577
 2971SOL     OW10751   9.624  11.357   6.154
 2971SOL    HW110752   9.546  11.304   6.172
 2971SOL    HW210753   9.681  11.300   6.103
 2972SOL     OW10754   1.884  13.105  12.965
 2972SOL    HW110755   1.828  13.059  12.901
 2972SOL    HW210756   1.972  13.096  12.930
 2973SOL     OW10757  12.679   3.471   3.279
 2973SOL    HW110758  12.715   3.409   3.216
 2973SOL    HW210759  12.615   3.420   3.328
 2974SOL     OW10760  11.321  14.487   1.321
 2974SOL    HW110761  11.283  14.408   1.282
 2974SOL    HW210762  11.377  14.523   1.253
 2975SOL     OW10763   1.811   9.801  12.488
 2975SOL    HW110764   1.731   9.808  12.540
 2975SOL    HW210765   1.805   9.715  12.447
 2976SOL     OW10766  14.389  12.039  14.664
 2976SOL    HW110767  14.468  11.986  14.677
 2976SOL    HW210768  14.380  12.046  14.569
 2977SOL     OW10769  11.654   4.176   9.335
 2977SOL    HW110770  11.593   4.103   9.352
 2977SOL    HW210771  11.622   4.247   9.391
 2978SOL     OW10772   4.753   8.862   7.264
 2978SOL    HW110773   4.697   8.900   7.197
 2978SOL    HW210774   4.805   8.935   7.297
 2979SOL     OW10775   2.648   9.206   8.096
 2979SOL    HW110776   2.564   9.229   8.055
 2979SOL    HW210777   2.645   9.249   8.182
 2980SOL     OW10778   2.487  13.639  14.830
 2980SOL    HW110779   2.477  13.730  14.802
 2980SOL    HW210780   2.415  13.624   0.017
 2981SOL     OW10781   7.783   2.666  11.411
 2981SOL    HW110782   7.851   2.723  11.374
 2981SOL    HW210783   7.701   2.708  11.386
 2982SOL     OW10784   8.793   4.528   1.438
 2982SOL    HW110785   8.746   4.451   1.404
 2982SOL    HW210786   8.886   4.508   1.422
 2983SOL     OW10787  14.865  12.002  10.550
 2983SOL    HW110788  14.864  11.928  10.611
 2983SOL    HW210789  14.823  11.969  10.471
 2984SOL     OW10790  11.467   9.402  14.227
 2984SOL    HW110791  11.522   9.345  14.282
 2984SOL    HW210792  11.383   9.358  14.223
 2985SOL     OW10793   6.051   0.113  10.083
 2985SOL    HW110794   6.012   0.173  10.019
 2985SOL    HW210795   6.003   0.031  10.070
 2986SOL     OW10796  12.927   5.379  14.017
 2986SOL    HW110797  12.905   5.423  14.099
 2986SOL    HW210798  12.885   5.293  14.024
 2987SOL     OW10799  14.410   7.162  10.078
 2987SOL    HW110800  14.341   7.180  10.141
 2987SOL    HW210801  14.491   7.180  10.126
 2988SOL     OW10802  11.663  11.859  12.678
 2988SOL    HW110803  11.726  11.805  12.726
 2988SOL    HW210804  11.665  11.943  12.724
 2989SOL     OW10805  13.840  11.031   5.696
 2989SOL    HW110806  13.929  11.058   5.673
 2989SOL    HW210807  13.784  11.096   5.654
 2990SOL     OW10808  11.761   0.145   2.511
 2990SOL    HW110809  11.831   0.118   2.570
 2990SOL    HW210810  11.803   0.148   2.425
 2991SOL     OW10811   9.791   4.884   7.792
 2991SOL    HW110812   9.843   4.838   7.857
 2991SOL    HW210813   9.704   4.844   7.797
 2992SOL     OW10814   5.808  14.548   3.414
 2992SOL    HW110815   5.891  14.594   3.401
 2992SOL    HW210816   5.785  14.566   3.506
 2993SOL     OW10817   1.154  13.825  13.505
 2993SOL    HW110818   1.130  13.888  13.573
 2993SOL    HW210819   1.168  13.878  13.427
 2994SOL     OW10820  14.153  14.549   7.481
 2994SOL    HW110821  14.074  14.515   7.522
 2994SOL    HW210822  14.133  14.641   7.462
 2995SOL     OW10823   9.378   5.532   8.704
 2995SOL    HW110824   9.432   5.515   8.781
 2995SOL    HW210825   9.349   5.622   8.715
 2996SOL     OW10826  14.210   3.911  13.142
 2996SOL    HW110827  14.220   3.895  13.236
 2996SOL    HW210828  14.244   3.831  13.100
 2997SOL     OW10829   5.580  10.730   8.716
 2997SOL    HW110830   5.490  10.760   8.706
 2997SOL    HW210831   5.576  10.666   8.787
 2998SOL     OW10832  14.074  10.816  12.537
 2998SOL    HW110833  14.122  10.897  12.556
 2998SOL    HW210834  13.983  10.844  12.530
 2999SOL     OW10835   5.251  14.461   0.598
 2999SOL    HW110836   5.214  14.489   0.682
 2999SOL    HW210837   5.331  14.414   0.622
 3000SOL     OW10838  12.403  11.977   6.747
 3000SOL    HW110839  12.461  12.040   6.705
 3000SOL    HW210840  12.375  11.919   6.676
 3001SOL     OW10841  12.884   1.580   7.161
 3001SOL    HW110842  12.805   1.624   7.193
 3001SOL    HW210843  12.862   1.554   7.072
 3002SOL     OW10844  11.777  10.404   2.518
 3002SOL    HW110845  11.764  10.381   2.426
 3002SOL    HW210846  11.706  10.360   2.564
 3003SOL     OW10847   8.130   5.555   3.756
 3003SOL    HW110848   8.184   5.628   3.726
 3003SOL    HW210849   8.141   5.488   3.688
 3004SOL     OW10850   1.903   3.840   3.871
 3004SOL    HW110851   1.842   3.891   3.816
 3004SOL    HW210852   1.848   3.802   3.939
 3005SOL     OW10853   3.274   0.005   3.990
 3005SOL    HW110854   3.332  14.841   3.923
 3005SOL    HW210855   3.200   0.040   3.941
 3006SOL     OW10856  14.732  10.106   2.348
 3006SOL    HW110857  14.747  10.020   2.309
 3006SOL    HW210858  14.700  10.087   2.436
 3007SOL     OW10859   0.542  12.919   9.337
 3007SOL    HW110860   0.617  12.886   9.287
 3007SOL    HW210861   0.482  12.953   9.271
 3008SOL     OW10862   9.978   3.827  11.818
 3008SOL    HW110863   9.928   3.782  11.750
 3008SOL    HW210864  10.035   3.760  11.855
 3009SOL     OW10865   8.982   2.175   5.170
 3009SOL    HW110866   8.983   2.086   5.207
 3009SOL    HW210867   8.997   2.161   5.076
 3010SOL     OW10868  12.697  13.706   1.674
 3010SOL    HW110869  12.756  13.739   1.606
 3010SOL    HW210870  12.681  13.782   1.730
 3011SOL     OW10871   7.747   4.746  13.442
 3011SOL    HW110872   7.810   4.679  13.468
 3011SOL    HW210873   7.791   4.829  13.461
 3012SOL     OW10874   8.033   3.766   0.202
 3012SOL    HW110875   8.124   3.738   0.208
 3012SOL    HW210876   8.031   3.851   0.247
 3013SOL     OW10877   8.587   4.862   6.132
 3013SOL    HW110878   8.577   4.945   6.179
 3013SOL    HW210879   8.540   4.875   6.050
 3014SOL     OW10880   9.182  14.611   5.541
 3014SOL    HW110881   9.204  14.556   5.466
 3014SOL    HW210882   9.239  14.687   5.533
 3015SOL     OW10883   5.452  11.838  13.032
 3015SOL    HW110884   5.431  11.928  13.055
 3015SOL    HW210885   5.406  11.823  12.949
 3016SOL     OW10886   2.446   5.862   7.927
 3016SOL    HW110887   2.504   5.845   7.853
 3016SOL    HW210888   2.426   5.955   7.921
 3017SOL     OW10889   0.350  14.613   7.570
 3017SOL    HW110890   0.404  14.536   7.550
 3017SOL    HW210891   0.400  14.659   7.638
 3018SOL     OW10892   2.472   7.759   3.105
 3018SOL    HW110893   2.429   7.785   3.186
 3018SOL    HW210894   2.452   7.666   3.096
 3019SOL     OW10895   9.592  11.152   0.125
 3019SOL    HW110896   9.571  11.061   0.144
 3019SOL    HW210897   9.687  11.157   0.131
 3020SOL     OW10898   5.528   7.532  10.398
 3020SOL    HW110899   5.576   7.600  10.445
 3020SOL    HW210900   5.531   7.560  10.306
 3021SOL     OW10901  13.609   2.523   5.347
 3021SOL    HW110902  13.564   2.585   5.405
 3021SOL    HW210903  13.539   2.464   5.318
 3022SOL     OW10904  12.331   9.685   5.083
 3022SOL    HW110905  12.355   9.738   5.159
 3022SOL    HW210906  12.245   9.717   5.056
 3023SOL     OW10907  10.292  10.507  12.030
 3023SOL    HW110908  10.342  10.490  11.950
 3023SOL    HW210909  10.243  10.587  12.011
 3024SOL     OW10910   3.812   4.646  11.906
 3024SOL    HW110911   3.750   4.585  11.866
 3024SOL    HW210912   3.807   4.725  11.852
 3025SOL     OW10913  13.100  10.986  12.521
 3025SOL    HW110914  13.161  10.938  12.466
 3025SOL    HW210915  13.044  11.033  12.459
 3026SOL     OW10916   9.148   3.663   9.834
 3026SOL    HW110917   9.083   3.615   9.885
 3026SOL    HW210918   9.208   3.595   9.804
 3027SOL     OW10919  10.075  12.579   3.099
 3027SOL    HW110920  10.122  12.613   3.023
 3027SOL    HW210921  10.123  12.499   3.123
 3028SOL     OW10922   4.497  14.866   4.699
 3028SOL    HW110923   4.592   0.002   4.686
 3028SOL    HW210924   4.481   0.025   4.787
 3029SOL     OW10925  11.003   4.271   9.118
 3029SOL    HW110926  11.014   4.366   9.116
 3029SOL    HW210927  10.928   4.256   9.175
 3030SOL     OW10928  11.105  11.328  14.844
 3030SOL    HW110929  11.102  11.232  14.847
 3030SOL    HW210930  11.191  11.350   0.006
 3031SOL     OW10931  12.280  13.193  13.750
 3031SOL    HW110932  12.193  13.180  13.712
 3031SOL    HW210933  12.275  13.152  13.836
 3032SOL     OW10934   3.231   3.101   1.308
 3032SOL    HW110935   3.258   3.184   1.269
 3032SOL    HW210936   3.245   3.113   1.402
 3033SOL     OW10937  13.826  11.865  14.765
 3033SOL    HW110938  13.892  11.912  14.816
 3033SOL    HW210939  13.828  11.906  14.679
 3034SOL     OW10940   3.792   8.880  12.793
 3034SOL    HW110941   3.752   8.795  12.811
 3034SOL    HW210942   3.718   8.939  12.778
 3035SOL     OW10943   5.633   7.664  13.503
 3035SOL    HW110944   5.546   7.625  13.510
 3035SOL    HW210945   5.656   7.657  13.410
 3036SOL     OW10946  11.100   4.928   4.713
 3036SOL    HW110947  11.173   4.878   4.749
 3036SOL    HW210948  11.135   5.016   4.700
 3037SOL     OW10949  13.044  10.474  14.702
 3037SOL    HW110950  13.043  10.557  14.749
 3037SOL    HW210951  13.042  10.499  14.610
 3038SOL     OW10952   9.613   8.799  14.805
 3038SOL    HW110953   9.650   8.768  14.722
 3038SOL    HW210954   9.587   8.719  14.851
 3039SOL     OW10955   0.131  12.119  14.091
 3039SOL    HW110956   0.116  12.085  14.179
 3039SOL    HW210957   0.179  12.049  14.046
 3040SOL     OW10958   3.164   3.581   7.984
 3040SOL    HW110959   3.210   3.555   7.905
 3040SOL    HW210960   3.106   3.652   7.956
 3041SOL     OW10961   6.803   9.533  10.795
 3041SOL    HW110962   6.753   9.453  10.785
 3041SOL    HW210963   6.894   9.505  10.798
 3042SOL     OW10964  13.370   8.168   8.885
 3042SOL    HW110965  13.350   8.137   8.973
 3042SOL    HW210966  13.287   8.165   8.838
 3043SOL     OW10967   3.179  11.978   8.096
 3043SOL    HW110968   3.146  11.939   8.177
 3043SOL    HW210969   3.144  12.067   8.095
 3044SOL     OW10970   8.452   7.415   4.684
 3044SOL    HW110971   8.440   7.334   4.635
 3044SOL    HW210972   8.538   7.447   4.657
 3045SOL     OW10973  11.567  12.271  13.496
 3045SOL    HW110974  11.521  12.300  13.417
 3045SOL    HW210975  11.624  12.201  13.465
 3046SOL     OW10976  13.370   9.201   9.342
 3046SOL    HW110977  13.438   9.230   9.403
 3046SOL    HW210978  13.289   9.237   9.377
 3047SOL     OW10979   5.350   1.649   6.610
 3047SOL    HW110980   5.310   1.681   6.691
 3047SOL    HW210981   5.384   1.728   6.567
 3048SOL     OW10982   3.240  11.506   4.089
 3048SOL    HW110983   3.154  11.512   4.046
 3048SOL    HW210984   3.255  11.593   4.124
 3049SOL     OW10985   5.825   6.972  10.710
 3049SOL    HW110986   5.839   6.975  10.616
 3049SOL    HW210987   5.913   6.968  10.747
 3050SOL     OW10988  12.605   2.308  13.234
 3050SOL    HW110989  12.615   2.287  13.326
 3050SOL    HW210990  12.534   2.372  13.231
 3051SOL     OW10991   2.397   0.043   3.810
 3051SOL    HW110992   2.412  14.844   3.750
 3051SOL    HW210993   2.478   0.095   3.804
 3052SOL     OW10994  14.432   1.742   3.009
 3052SOL    HW110995  14.473   1.666   3.050
 3052SOL    HW210996  14.433   1.724   2.915
 3053SOL     OW10997  11.317  14.398   0.131
 3053SOL    HW110998  11.275  14.331   0.077
 3053SOL    HW210999  11.394  14.354   0.167
 3054SOL     OW11000   7.943  10.389  14.113
 3054SOL    HW111001   7.998  10.430  14.180
 3054SOL    HW211002   7.881  10.335  14.163
 3055SOL     OW11003  11.080   2.623  10.968
 3055SOL    HW111004  11.012   2.557  10.982
 3055SOL    HW211005  11.103   2.615  10.876
 3056SOL     OW11006   9.944   2.242  11.345
 3056SOL    HW111007   9.935   2.147  11.343
 3056SOL    HW211008   9.977   2.262  11.432
 3057SOL     OW11009   6.012   0.600   9.031
 3057SOL    HW111010   6.104   0.580   9.050
 3057SOL    HW211011   5.970   0.599   9.117
 3058SOL     OW11012  12.496   6.978   7.335
 3058SOL    HW111013  12.522   6.981   7.427
 3058SOL    HW211014  12.515   7.066   7.301
 3059SOL     OW11015   1.972   3.545   1.779
 3059SOL    HW111016   1.916   3.616   1.747
 3059SOL    HW211017   1.910   3.483   1.819
 3060SOL     OW11018   5.928   7.281   5.710
 3060SOL    HW111019   5.928   7.354   5.648
 3060SOL    HW211020   6.018   7.247   5.707
 3061SOL     OW11021   0.218   9.803   4.358
 3061SOL    HW111022   0.179   9.858   4.426
 3061SOL    HW211023   0.153   9.736   4.341
 3062SOL     OW11024   3.285   0.377  11.649
 3062SOL    HW111025   3.199   0.341  11.627
 3062SOL    HW211026   3.292   0.458  11.599
 3063SOL     OW11027   1.467   6.993  12.270
 3063SOL    HW111028   1.374   7.011  12.259
 3063SOL    HW211029   1.495   7.054  12.338
 3064SOL     OW11030  14.199  12.282   2.737
 3064SOL    HW111031  14.291  12.308   2.729
 3064SOL    HW211032  14.184  12.227   2.661
 3065SOL     OW11033  12.417   8.480  11.006
 3065SOL    HW111034  12.416   8.547  11.074
 3065SOL    HW211035  12.345   8.421  11.029
 3066SOL     OW11036  13.362   8.028  12.582
 3066SOL    HW111037  13.308   8.037  12.503
 3066SOL    HW211038  13.432   8.093  12.571
 3067SOL     OW11039  12.826  10.432  12.042
 3067SOL    HW111040  12.905  10.431  12.096
 3067SOL    HW211041  12.847  10.375  11.968
 3068SOL     OW11042  11.788  12.188  11.586
 3068SOL    HW111043  11.739  12.107  11.569
 3068SOL    HW211044  11.807  12.223  11.499
 3069SOL     OW11045   2.937   8.676   1.854
 3069SOL    HW111046   2.997   8.639   1.918
 3069SOL    HW211047   2.969   8.645   1.770
 3070SOL     OW11048   4.702  10.854  14.842
 3070SOL    HW111049   4.701  10.758  14.848
 3070SOL    HW211050   4.747  10.882   0.049
 3071SOL     OW11051   8.951   9.950   6.924
 3071SOL    HW111052   9.015  10.015   6.952
 3071SOL    HW211053   8.869   9.977   6.965
 3072SOL     OW11054   0.815  10.823   7.920
 3072SOL    HW111055   0.891  10.783   7.962
 3072SOL    HW211056   0.771  10.871   7.990
 3073SOL     OW11057   2.959   5.933   1.389
 3073SOL    HW111058   2.979   6.023   1.362
 3073SOL    HW211059   3.000   5.878   1.323
 3074SOL     OW11060   3.389   5.221   7.252
 3074SOL    HW111061   3.310   5.171   7.273
 3074SOL    HW211062   3.456   5.154   7.237
 3075SOL     OW11063   0.306   5.524   4.293
 3075SOL    HW111064   0.341   5.518   4.382
 3075SOL    HW211065   0.334   5.610   4.262
 3076SOL     OW11066   5.008   0.346  12.211
 3076SOL    HW111067   5.065   0.334  12.136
 3076SOL    HW211068   4.923   0.370  12.174
 3077SOL     OW11069   4.317   4.134  14.157
 3077SOL    HW111070   4.311   4.192  14.081
 3077SOL    HW211071   4.259   4.174  14.222
 3078SOL     OW11072  11.036   5.501  12.322
 3078SOL    HW111073  11.107   5.549  12.281
 3078SOL    HW211074  10.956   5.543  12.289
 3079SOL     OW11075   8.352  13.045   6.078
 3079SOL    HW111076   8.364  13.099   6.156
 3079SOL    HW211077   8.441  13.020   6.052
 3080SOL     OW11078   8.312   5.925   7.646
 3080SOL    HW111079   8.250   5.853   7.652
 3080SOL    HW211080   8.347   5.934   7.735
 3081SOL     OW11081  10.485   3.705  11.046
 3081SOL    HW111082  10.480   3.659  11.129
 3081SOL    HW211083  10.415   3.668  10.993
 3082SOL     OW11084  10.192  11.537   3.421
 3082SOL    HW111085  10.179  11.477   3.495
 3082SOL    HW211086  10.108  11.582   3.412
 3083SOL     OW11087  12.155  12.121   4.154
 3083SOL    HW111088  12.189  12.193   4.207
 3083SOL    HW211089  12.205  12.045   4.182
 3084SOL     OW11090  12.993   2.766   9.591
 3084SOL    HW111091  13.054   2.797   9.524
 3084SOL    HW211092  12.914   2.743   9.541
 3085SOL     OW11093   6.544  14.584  10.271
 3085SOL    HW111094   6.543  14.652  10.204
 3085SOL    HW211095   6.632  14.546  10.265
 3086SOL     OW11096  14.412   6.338   7.755
 3086SOL    HW111097  14.415   6.381   7.841
 3086SOL    HW211098  14.387   6.248   7.775
 3087SOL     OW11099   0.669   6.456  10.734
 3087SOL    HW111100   0.741   6.437  10.794
 3087SOL    HW211101   0.711   6.464  10.648
 3088SOL     OW11102   5.889  14.696   5.797
 3088SOL    HW111103   5.961  14.681   5.734
 3088SOL    HW211104   5.820  14.637   5.767
 3089SOL     OW11105   2.916   7.891   7.035
 3089SOL    HW111106   2.867   7.948   6.977
 3089SOL    HW211107   2.920   7.807   6.989
 3090SOL     OW11108   5.950   2.659   3.962
 3090SOL    HW111109   5.976   2.572   3.992
 3090SOL    HW211110   5.935   2.649   3.868
 3091SOL     OW11111   9.202   4.182  13.093
 3091SOL    HW111112   9.295   4.158  13.088
 3091SOL    HW211113   9.201   4.276  13.078
 3092SOL     OW11114   7.754  13.929   4.940
 3092SOL    HW111115   7.713  13.903   5.023
 3092SOL    HW211116   7.688  13.985   4.898
 3093SOL     OW11117   3.905  14.298  13.243
 3093SOL    HW111118   3.827  14.244  13.248
 3093SOL    HW211119   3.936  14.304  13.334
 3094SOL     OW11120   4.167  12.153  11.466
 3094SOL    HW111121   4.109  12.219  11.505
 3094SOL    HW211122   4.124  12.129  11.383
 3095SOL     OW11123   0.394   5.509   4.550
 3095SOL    HW111124   0.354   5.437   4.599
 3095SOL    HW211125   0.366   5.588   4.597
 3096SOL     OW11126   3.326   1.290   9.249
 3096SOL    HW111127   3.387   1.236   9.299
 3096SOL    HW211128   3.382   1.342   9.191
 3097SOL     OW11129   9.941   9.321  12.230
 3097SOL    HW111130   9.988   9.270  12.296
 3097SOL    HW211131   9.901   9.393  12.279
 3098SOL     OW11132   7.775   1.037   6.940
 3098SOL    HW111133   7.688   0.997   6.928
 3098SOL    HW211134   7.831   0.990   6.879
 3099SOL     OW11135  10.517  13.490  13.672
 3099SOL    HW111136  10.540  13.416  13.616
 3099SOL    HW211137  10.518  13.456  13.761
 3100SOL     OW11138   4.015   8.639  11.845
 3100SOL    HW111139   4.046   8.635  11.935
 3100SOL    HW211140   4.072   8.703  11.803
 3101SOL     OW11141  13.320  10.229   7.733
 3101SOL    HW111142  13.263  10.285   7.680
 3101SOL    HW211143  13.344  10.157   7.676
 3102SOL     OW11144   7.738   6.856  12.516
 3102SOL    HW111145   7.740   6.894  12.428
 3102SOL    HW211146   7.646   6.837  12.532
 3103SOL     OW11147   7.289   8.138   7.543
 3103SOL    HW111148   7.301   8.165   7.634
 3103SOL    HW211149   7.320   8.048   7.540
 3104SOL     OW11150   3.969   5.822   0.130
 3104SOL    HW111151   4.052   5.803   0.086
 3104SOL    HW211152   3.927   5.888   0.076
 3105SOL     OW11153  12.402   6.440   1.818
 3105SOL    HW111154  12.319   6.459   1.860
 3105SOL    HW211155  12.428   6.355   1.854
 3106SOL     OW11156  13.195  13.887  13.031
 3106SOL    HW111157  13.241  13.822  12.977
 3106SOL    HW211158  13.263  13.949  13.057
 3107SOL     OW11159  14.550   4.367   1.432
 3107SOL    HW111160  14.591   4.286   1.403
 3107SOL    HW211161  14.456   4.352   1.421
 3108SOL     OW11162  13.341   8.533  12.940
 3108SOL    HW111163  13.273   8.567  12.998
 3108SOL    HW211164  13.332   8.583  12.859
 3109SOL     OW11165  11.866  13.463   9.495
 3109SOL    HW111166  11.884  13.536   9.436
 3109SOL    HW211167  11.952  13.436   9.527
 3110SOL     OW11168  11.990   6.746   0.919
 3110SOL    HW111169  12.000   6.833   0.881
 3110SOL    HW211170  11.896   6.737   0.934
 3111SOL     OW11171  14.452  10.786   4.689
 3111SOL    HW111172  14.436  10.763   4.597
 3111SOL    HW211173  14.539  10.749   4.708
 3112SOL     OW11174  10.349  12.973  13.554
 3112SOL    HW111175  10.298  13.041  13.599
 3112SOL    HW211176  10.284  12.919  13.510
 3113SOL     OW11177   9.693  13.687   5.651
 3113SOL    HW111178   9.780  13.647   5.643
 3113SOL    HW211179   9.699  13.767   5.598
 3114SOL     OW11180   0.242   7.513   9.901
 3114SOL    HW111181   0.175   7.579   9.883
 3114SOL    HW211182   0.210   7.434   9.858
 3115SOL     OW11183   5.779   5.044   2.950
 3115SOL    HW111184   5.779   4.984   2.875
 3115SOL    HW211185   5.693   5.086   2.947
 3116SOL     OW11186  14.771   9.232  13.455
 3116SOL    HW111187  14.788   9.306  13.397
 3116SOL    HW211188  14.740   9.162  13.397
 3117SOL     OW11189   0.503   4.333   8.497
 3117SOL    HW111190   0.563   4.371   8.433
 3117SOL    HW211191   0.426   4.391   8.495
 3118SOL     OW11192   8.613   4.024   9.154
 3118SOL    HW111193   8.692   3.971   9.156
 3118SOL    HW211194   8.644   4.114   9.163
 3119SOL     OW11195  14.401  13.091   1.138
 3119SOL    HW111196  14.489  13.064   1.165
 3119SOL    HW211197  14.400  13.078   1.043
 3120SOL     OW11198   2.362   3.080   5.412
 3120SOL    HW111199   2.379   3.012   5.477
 3120SOL    HW211200   2.384   3.162   5.456
 3121SOL     OW11201   9.919   6.576  14.725
 3121SOL    HW111202   9.990   6.516  14.702
 3121SOL    HW211203   9.902   6.558  14.818
 3122SOL     OW11204  11.940   0.431   4.308
 3122SOL    HW111205  11.955   0.347   4.263
 3122SOL    HW211206  11.898   0.486   4.242
 3123SOL     OW11207   8.560   1.049   3.438
 3123SOL    HW111208   8.613   1.106   3.494
 3123SOL    HW211209   8.587   1.072   3.348
 3124SOL     OW11210  13.693   5.633   1.460
 3124SOL    HW111211  13.762   5.680   1.507
 3124SOL    HW211212  13.739   5.579   1.397
 3125SOL     OW11213   5.562  11.042   1.533
 3125SOL    HW111214   5.473  11.054   1.500
 3125SOL    HW211215   5.618  11.049   1.455
 3126SOL     OW11216   6.820   0.824   0.052
 3126SOL    HW111217   6.814   0.741   0.099
 3126SOL    HW211218   6.897   0.867   0.090
 3127SOL     OW11219   7.835   8.538   1.443
 3127SOL    HW111220   7.795   8.590   1.513
 3127SOL    HW211221   7.763   8.521   1.382
 3128SOL     OW11222   3.004   9.535   1.064
 3128SOL    HW111223   2.995   9.483   1.144
 3128SOL    HW211224   2.919   9.525   1.020
 3129SOL     OW11225   7.916   9.705   9.588
 3129SOL    HW111226   7.942   9.765   9.517
 3129SOL    HW211227   7.869   9.635   9.544
 3130SOL     OW11228   2.350   9.445  13.615
 3130SOL    HW111229   2.358   9.350  13.617
 3130SOL    HW211230   2.304   9.463  13.533
 3131SOL     OW11231   2.671   7.327   7.832
 3131SOL    HW111232   2.648   7.337   7.924
 3131SOL    HW211233   2.630   7.401   7.788
 3132SOL     OW11234   5.225   2.283   1.186
 3132SOL    HW111235   5.228   2.353   1.251
 3132SOL    HW211236   5.314   2.279   1.151
 3133SOL     OW11237   8.528  11.820   5.058
 3133SOL    HW111238   8.535  11.899   5.004
 3133SOL    HW211239   8.618  11.789   5.067
 3134SOL     OW11240   0.115   4.768   9.387
 3134SOL    HW111241   0.076   4.697   9.337
 3134SOL    HW211242   0.187   4.800   9.332
 3135SOL     OW11243  12.988   7.627  14.561
 3135SOL    HW111244  12.951   7.617  14.473
 3135SOL    HW211245  12.918   7.601  14.620
 3136SOL     OW11246  12.886   3.824   9.447
 3136SOL    HW111247  12.952   3.803   9.381
 3136SOL    HW211248  12.806   3.785   9.413
 3137SOL     OW11249  11.346   1.270   2.653
 3137SOL    HW111250  11.392   1.222   2.583
 3137SOL    HW211251  11.275   1.315   2.608
 3138SOL     OW11252  11.393  13.291   0.320
 3138SOL    HW111253  11.443  13.340   0.255
 3138SOL    HW211254  11.454  13.226   0.354
 3139SOL     OW11255  13.940  10.034  14.378
 3139SOL    HW111256  13.988   9.984  14.312
 3139SOL    HW211257  14.008  10.078  14.429
 3140SOL     OW11258   2.478   8.116   5.258
 3140SOL    HW111259   2.413   8.110   5.187
 3140SOL    HW211260   2.558   8.145   5.214
 3141SOL     OW11261   7.263   1.443  12.449
 3141SOL    HW111262   7.250   1.484  12.534
 3141SOL    HW211263   7.348   1.475  12.419
 3142SOL     OW11264   1.523  11.629   7.346
 3142SOL    HW111265   1.615  11.621   7.321
 3142SOL    HW211266   1.490  11.701   7.292
 3143SOL     OW11267   5.267   6.210   5.843
 3143SOL    HW111268   5.269   6.286   5.785
 3143SOL    HW211269   5.232   6.244   5.925
 3144SOL     OW11270   5.971   6.650   5.792
 3144SOL    HW111271   6.061   6.659   5.822
 3144SOL    HW211272   5.941   6.568   5.832
 3145SOL     OW11273   5.723   4.081  14.298
 3145SOL    HW111274   5.719   4.037  14.383
 3145SOL    HW211275   5.805   4.053  14.259
 3146SOL     OW11276   0.053   1.852   8.265
 3146SOL    HW111277   0.007   1.864   8.181
 3146SOL    HW211278   0.086   1.762   8.261
 3147SOL     OW11279   9.672  11.737   4.806
 3147SOL    HW111280   9.639  11.755   4.718
 3147SOL    HW211281   9.685  11.642   4.807
 3148SOL     OW11282   2.278   3.328  13.310
 3148SOL    HW111283   2.354   3.272  13.326
 3148SOL    HW211284   2.304   3.414  13.340
 3149SOL     OW11285   3.775   8.240  12.841
 3149SOL    HW111286   3.836   8.210  12.908
 3149SOL    HW211287   3.693   8.255  12.887
 3150SOL     OW11288  12.382   2.908   4.681
 3150SOL    HW111289  12.346   2.980   4.733
 3150SOL    HW211290  12.324   2.834   4.701
 3151SOL     OW11291   4.031   5.103   1.908
 3151SOL    HW111292   4.054   5.108   2.001
 3151SOL    HW211293   4.113   5.117   1.862
 3152SOL     OW11294   2.516   0.794  10.433
 3152SOL    HW111295   2.509   0.753  10.347
 3152SOL    HW211296   2.476   0.881  10.422
 3153SOL     OW11297   0.247   8.803   6.372
 3153SOL    HW111298   0.172   8.862   6.377
 3153SOL    HW211299   0.241   8.750   6.451
 3154SOL     OW11300   7.402   3.581  13.004
 3154SOL    HW111301   7.392   3.542  12.917
 3154SOL    HW211302   7.391   3.507  13.064
 3155SOL     OW11303   5.098   5.809   4.683
 3155SOL    HW111304   5.109   5.800   4.778
 3155SOL    HW211305   5.003   5.802   4.669
 3156SOL     OW11306   8.959   6.935   0.438
 3156SOL    HW111307   8.901   6.929   0.513
 3156SOL    HW211308   8.923   7.007   0.385
 3157SOL     OW11309   5.923   0.801   0.067
 3157SOL    HW111310   5.876   0.850   0.135
 3157SOL    HW211311   5.976   0.738   0.116
 3158SOL     OW11312   0.634   3.959   1.545
 3158SOL    HW111313   0.701   3.942   1.611
 3158SOL    HW211314   0.582   3.879   1.542
 3159SOL     OW11315   2.915  12.403  14.385
 3159SOL    HW111316   2.851  12.474  14.375
 3159SOL    HW211317   2.985  12.441  14.438
 3160SOL     OW11318   6.209  14.509  13.032
 3160SOL    HW111319   6.135  14.563  13.006
 3160SOL    HW211320   6.283  14.543  12.981
 3161SOL     OW11321  14.738   8.025   5.428
 3161SOL    HW111322  14.777   8.108   5.401
 3161SOL    HW211323  14.747   7.968   5.352
 3162SOL     OW11324   1.755  11.553   6.367
 3162SOL    HW111325   1.665  11.570   6.340
 3162SOL    HW211326   1.768  11.459   6.349
 3163SOL     OW11327  10.994  11.941   9.894
 3163SOL    HW111328  10.952  12.026   9.882
 3163SOL    HW211329  11.002  11.932   9.989
 3164SOL     OW11330   3.619   1.182  14.011
 3164SOL    HW111331   3.547   1.151  13.956
 3164SOL    HW211332   3.628   1.115  14.079
 3165SOL     OW11333   8.893  12.455  13.401
 3165SOL    HW111334   8.933  12.451  13.314
 3165SOL    HW211335   8.815  12.399  13.394
 3166SOL     OW11336  14.449   4.153   3.381
 3166SOL    HW111337  14.388   4.206   3.330
 3166SOL    HW211338  14.448   4.067   3.339
 3167SOL     OW11339   7.412   6.819   5.260
 3167SOL    HW111340   7.507   6.822   5.271
 3167SOL    HW211341   7.379   6.892   5.313
 3168SOL     OW11342   5.869   1.727   0.299
 3168SOL    HW111343   5.957   1.715   0.334
 3168SOL    HW211344   5.816   1.662   0.345
 3169SOL     OW11345   5.975  10.579   3.136
 3169SOL    HW111346   5.921  10.649   3.173
 3169SOL    HW211347   6.064  10.599   3.165
 3170SOL     OW11348  14.166   8.521   1.516
 3170SOL    HW111349  14.077   8.555   1.525
 3170SOL    HW211350  14.197   8.512   1.605
 3171SOL     OW11351   7.329  12.780   7.196
 3171SOL    HW111352   7.385  12.734   7.258
 3171SOL    HW211353   7.273  12.711   7.159
 3172SOL     OW11354  10.099   0.929   0.457
 3172SOL    HW111355  10.101   1.000   0.521
 3172SOL    HW211356  10.024   0.948   0.402
 3173SOL     OW11357   9.367  12.000  14.684
 3173SOL    HW111358   9.382  12.089  14.652
 3173SOL    HW211359   9.453  11.967  14.708
 3174SOL     OW11360   2.963   5.633  10.742
 3174SOL    HW111361   2.907   5.703  10.774
 3174SOL    HW211362   2.908   5.585  10.680
 3175SOL     OW11363   8.750  12.384   6.513
 3175SOL    HW111364   8.750  12.404   6.420
 3175SOL    HW211365   8.688  12.446   6.551
 3176SOL     OW11366   7.604  13.359   8.336
 3176SOL    HW111367   7.698  13.344   8.332
 3176SOL    HW211368   7.594  13.431   8.398
 3177SOL     OW11369   4.817   7.553   4.689
 3177SOL    HW111370   4.852   7.518   4.607
 3177SOL    HW211371   4.731   7.512   4.698
 3178SOL     OW11372  11.070   1.076   0.365
 3178SOL    HW111373  11.148   1.049   0.315
 3178SOL    HW211374  11.006   1.099   0.298
 3179SOL     OW11375   7.799   2.575  13.408
 3179SOL    HW111376   7.887   2.558  13.442
 3179SOL    HW211377   7.772   2.656  13.450
 3180SOL     OW11378   7.201   1.393   4.268
 3180SOL    HW111379   7.269   1.377   4.333
 3180SOL    HW211380   7.237   1.359   4.187
 3181SOL     OW11381   2.205  10.163   3.858
 3181SOL    HW111382   2.120  10.181   3.898
 3181SOL    HW211383   2.197  10.197   3.769
 3182SOL     OW11384   8.323   6.101  11.093
 3182SOL    HW111385   8.237   6.136  11.117
 3182SOL    HW211386   8.304   6.026  11.037
 3183SOL     OW11387   0.954   9.845   5.388
 3183SOL    HW111388   1.015   9.889   5.329
 3183SOL    HW211389   0.967   9.751   5.371
 3184SOL     OW11390   8.843   3.714  10.879
 3184SOL    HW111391   8.805   3.789  10.833
 3184SOL    HW211392   8.768   3.672  10.922
 3185SOL     OW11393   6.082   9.687  12.816
 3185SOL    HW111394   6.101   9.614  12.876
 3185SOL    HW211395   6.165   9.734  12.809
 3186SOL     OW11396   1.328  12.996   1.177
 3186SOL    HW111397   1.366  12.938   1.243
 3186SOL    HW211398   1.390  12.995   1.105
 3187SOL     OW11399   7.828   8.542   4.669
 3187SOL    HW111400   7.854   8.536   4.576
 3187SOL    HW211401   7.908   8.570   4.714
 3188SOL     OW11402   6.179   8.318   6.243
 3188SOL    HW111403   6.177   8.270   6.160
 3188SOL    HW211404   6.194   8.250   6.309
 3189SOL     OW11405  11.467   0.075  14.102
 3189SOL    HW111406  11.509   0.036  14.179
 3189SOL    HW211407  11.388   0.117  14.137
 3190SOL     OW11408  13.319   5.778  11.068
 3190SOL    HW111409  13.281   5.859  11.033
 3190SOL    HW211410  13.297   5.779  11.161
 3191SOL     OW11411  13.918   9.082   0.924
 3191SOL    HW111412  13.970   9.018   0.876
 3191SOL    HW211413  13.901   9.152   0.861
 3192SOL     OW11414  12.021   8.235   1.105
 3192SOL    HW111415  12.113   8.264   1.105
 3192SOL    HW211416  11.974   8.305   1.059
 3193SOL     OW11417  13.569   3.009   8.351
 3193SOL    HW111418  13.529   3.091   8.321
 3193SOL    HW211419  13.602   3.030   8.439
 3194SOL     OW11420   6.839   4.848   2.517
 3194SOL    HW111421   6.771   4.896   2.565
 3194SOL    HW211422   6.808   4.758   2.516
 3195SOL     OW11423   1.623  11.997   7.900
 3195SOL    HW111424   1.583  11.910   7.896
 3195SOL    HW211425   1.717  11.981   7.892
 3196SOL     OW11426  11.094   1.070   4.463
 3196SOL    HW111427  11.080   1.049   4.371
 3196SOL    HW211428  11.085   1.165   4.468
 3197SOL     OW11429   3.316   8.420   3.670
 3197SOL    HW111430   3.401   8.385   3.697
 3197SOL    HW211431   3.336   8.473   3.592
 3198SOL     OW11432   8.852   5.152   2.863
 3198SOL    HW111433   8.939   5.114   2.852
 3198SOL    HW211434   8.795   5.095   2.810
 3199SOL     OW11435  11.898   4.708  11.648
 3199SOL    HW111436  11.853   4.767  11.587
 3199SOL    HW211437  11.882   4.621  11.612
 3200SOL     OW11438  11.076   9.371   0.161
 3200SOL    HW111439  11.093   9.377   0.255
 3200SOL    HW211440  11.075   9.278   0.142
 3201SOL     OW11441  13.773  12.583  14.606
 3201SOL    HW111442  13.791  12.511  14.666
 3201SOL    HW211443  13.824  12.564  14.528
 3202SOL     OW11444   7.875  14.525  14.784
 3202SOL    HW111445   7.947  14.520  14.847
 3202SOL    HW211446   7.835  14.438  14.787
 3203SOL     OW11447  12.287   6.989   5.335
 3203SOL    HW111448  12.334   7.072   5.335
 3203SOL    HW211449  12.349   6.926   5.297
 3204SOL     OW11450   2.760   7.495   2.536
 3204SOL    HW111451   2.784   7.463   2.623
 3204SOL    HW211452   2.780   7.589   2.538
 3205SOL     OW11453   2.761   3.426  12.908
 3205SOL    HW111454   2.835   3.439  12.968
 3205SOL    HW211455   2.790   3.356  12.850
 3206SOL     OW11456   1.091   3.551   7.375
 3206SOL    HW111457   1.003   3.580   7.351
 3206SOL    HW211458   1.101   3.466   7.334
 3207SOL     OW11459  11.134   6.559   6.760
 3207SOL    HW111460  11.063   6.607   6.802
 3207SOL    HW211461  11.132   6.587   6.668
 3208SOL     OW11462   3.023   1.432   6.472
 3208SOL    HW111463   2.943   1.400   6.430
 3208SOL    HW211464   3.022   1.392   6.559
 3209SOL     OW11465  10.608   9.765   2.047
 3209SOL    HW111466  10.540   9.711   2.006
 3209SOL    HW211467  10.629   9.719   2.128
 3210SOL     OW11468   6.814   9.739   4.396
 3210SOL    HW111469   6.896   9.785   4.383
 3210SOL    HW211470   6.836   9.646   4.387
 3211SOL     OW11471  12.626   2.633   0.803
 3211SOL    HW111472  12.677   2.710   0.778
 3211SOL    HW211473  12.537   2.653   0.776
 3212SOL     OW11474   0.235   2.147   2.460
 3212SOL    HW111475   0.319   2.102   2.454
 3212SOL    HW211476   0.242   2.201   2.539
 3213SOL     OW11477   2.793  11.042   9.317
 3213SOL    HW111478   2.730  11.110   9.293
 3213SOL    HW211479   2.774  11.024   9.409
 3214SOL     OW11480   0.497  14.723  11.998
 3214SOL    HW111481   0.453  14.746  11.916
 3214SOL    HW211482   0.555  14.652  11.974
 3215SOL     OW11483  11.627  11.878   2.986
 3215SOL    HW111484  11.575  11.946   3.030
 3215SOL    HW211485  11.712  11.919   2.969
 3216SOL     OW11486  11.177   4.747   0.509
 3216SOL    HW111487  11.088   4.727   0.540
 3216SOL    HW211488  11.201   4.826   0.557
 3217SOL     OW11489  14.559   2.306   8.872
 3217SOL    HW111490  14.554   2.275   8.781
 3217SOL    HW211491  14.644   2.277   8.903
 3218SOL     OW11492   5.733   8.120   3.848
 3218SOL    HW111493   5.822   8.106   3.818
 3218SOL    HW211494   5.712   8.043   3.901
 3219SOL     OW11495   4.990   4.669   8.340
 3219SOL    HW111496   5.020   4.743   8.287
 3219SOL    HW211497   5.008   4.695   8.430
 3220SOL     OW11498   9.186   4.739  14.201
 3220SOL    HW111499   9.218   4.682  14.131
 3220SOL    HW211500   9.190   4.827  14.164
 3221SOL     OW11501   4.397  14.282  11.034
 3221SOL    HW111502   4.389  14.214  11.100
 3221SOL    HW211503   4.333  14.258  10.966
 3222SOL     OW11504   6.173   5.868   5.242
 3222SOL    HW111505   6.251   5.831   5.202
 3222SOL    HW211506   6.206   5.935   5.302
 3223SOL     OW11507   5.240  13.722   3.368
 3223SOL    HW111508   5.221  13.806   3.326
 3223SOL    HW211509   5.317  13.689   3.322
 3224SOL     OW11510   4.263  13.065  10.740
 3224SOL    HW111511   4.300  13.141  10.784
 3224SOL    HW211512   4.249  13.094  10.650
 3225SOL     OW11513  11.211  11.913   1.953
 3225SOL    HW111514  11.153  11.984   1.982
 3225SOL    HW211515  11.238  11.869   2.033
 3226SOL     OW11516   8.729   7.813  13.905
 3226SOL    HW111517   8.688   7.898  13.889
 3226SOL    HW211518   8.661   7.761  13.948
 3227SOL     OW11519  12.742  12.583   1.505
 3227SOL    HW111520  12.768  12.667   1.467
 3227SOL    HW211521  12.819  12.553   1.551
 3228SOL     OW11522  13.246   8.539   8.545
 3228SOL    HW111523  13.281   8.541   8.456
 3228SOL    HW211524  13.155   8.513   8.535
 3229SOL     OW11525  12.656   3.830  13.249
 3229SOL    HW111526  12.563   3.846  13.263
 3229SOL    HW211527  12.698   3.915  13.263
 3230SOL     OW11528  12.110  11.966   8.765
 3230SOL    HW111529  12.083  11.961   8.673
 3230SOL    HW211530  12.115  12.060   8.783
 3231SOL     OW11531  11.150  10.737   3.579
 3231SOL    HW111532  11.200  10.667   3.536
 3231SOL    HW211533  11.217  10.797   3.611
 3232SOL     OW11534   7.350  10.083   9.432
 3232SOL    HW111535   7.340  10.087   9.527
 3232SOL    HW211536   7.262  10.101   9.398
 3233SOL     OW11537   1.450  12.751  11.953
 3233SOL    HW111538   1.469  12.777  12.043
 3233SOL    HW211539   1.535  12.743  11.912
 3234SOL     OW11540   1.406   4.803   6.373
 3234SOL    HW111541   1.360   4.845   6.446
 3234SOL    HW211542   1.415   4.872   6.307
 3235SOL     OW11543   2.902   4.150   0.247
 3235SOL    HW111544   2.857   4.218   0.297
 3235SOL    HW211545   2.876   4.068   0.289
 3236SOL     OW11546   1.347  14.182  14.359
 3236SOL    HW111547   1.370  14.247  14.426
 3236SOL    HW211548   1.407  14.110  14.374
 3237SOL     OW11549   3.079   2.233  12.147
 3237SOL    HW111550   3.071   2.327  12.159
 3237SOL    HW211551   2.996   2.206  12.108
 3238SOL     OW11552   8.026  11.516  11.569
 3238SOL    HW111553   8.107  11.479  11.535
 3238SOL    HW211554   7.985  11.445  11.618
 3239SOL     OW11555   3.354   5.313   9.271
 3239SOL    HW111556   3.442   5.326   9.306
 3239SOL    HW211557   3.334   5.221   9.290
 3240SOL     OW11558   5.416  13.013  10.669
 3240SOL    HW111559   5.403  12.937  10.726
 3240SOL    HW211560   5.503  12.998  10.630
 3241SOL     OW11561   1.811   8.433   7.813
 3241SOL    HW111562   1.892   8.428   7.764
 3241SOL    HW211563   1.783   8.524   7.805
 3242SOL     OW11564   5.214   9.317   9.711
 3242SOL    HW111565   5.248   9.231   9.687
 3242SOL    HW211566   5.291   9.375   9.708
 3243SOL     OW11567  10.831  10.123   0.995
 3243SOL    HW111568  10.848  10.104   1.088
 3243SOL    HW211569  10.782  10.047   0.964
 3244SOL     OW11570  13.441  10.672  13.318
 3244SOL    HW111571  13.393  10.750  13.342
 3244SOL    HW211572  13.526  10.705  13.288
 3245SOL     OW11573   4.196   7.990   8.840
 3245SOL    HW111574   4.125   8.054   8.846
 3245SOL    HW211575   4.159   7.918   8.790
 3246SOL     OW11576   0.509  12.065   5.495
 3246SOL    HW111577   0.563  12.075   5.417
 3246SOL    HW211578   0.459  12.147   5.500
 3247SOL     OW11579   1.459   7.689   9.047
 3247SOL    HW111580   1.499   7.744   8.980
 3247SOL    HW211581   1.472   7.600   9.016
 3248SOL     OW11582  13.050   1.819   2.172
 3248SOL    HW111583  13.031   1.775   2.089
 3248SOL    HW211584  13.086   1.904   2.146
 3249SOL     OW11585   2.535   7.820   9.225
 3249SOL    HW111586   2.568   7.774   9.302
 3249SOL    HW211587   2.586   7.901   9.222
 3250SOL     OW11588   2.152  12.213  14.592
 3250SOL    HW111589   2.245  12.234  14.606
 3250SOL    HW211590   2.110  12.298  14.579
 3251SOL     OW11591   8.380   2.181   5.478
 3251SOL    HW111592   8.347   2.095   5.450
 3251SOL    HW211593   8.382   2.175   5.573
 3252SOL     OW11594  11.112  14.072   5.959
 3252SOL    HW111595  11.172  14.002   5.986
 3252SOL    HW211596  11.114  14.134   6.031
 3253SOL     OW11597   9.328  10.280   8.102
 3253SOL    HW111598   9.256  10.217   8.104
 3253SOL    HW211599   9.335  10.305   8.010
 3254SOL     OW11600  13.694   8.385   9.533
 3254SOL    HW111601  13.700   8.474   9.498
 3254SOL    HW211602  13.631   8.342   9.476
 3255SOL     OW11603   2.902   4.422   8.175
 3255SOL    HW111604   2.809   4.423   8.154
 3255SOL    HW211605   2.922   4.329   8.188
 3256SOL     OW11606   3.617   6.423   2.729
 3256SOL    HW111607   3.645   6.339   2.766
 3256SOL    HW211608   3.688   6.484   2.751
 3257SOL     OW11609   7.862   6.440   3.300
 3257SOL    HW111610   7.854   6.349   3.328
 3257SOL    HW211611   7.934   6.475   3.353
 3258SOL     OW11612   7.779   7.914   2.449
 3258SOL    HW111613   7.845   7.924   2.518
 3258SOL    HW211614   7.738   7.829   2.467
 3259SOL     OW11615   7.269   4.826  12.138
 3259SOL    HW111616   7.317   4.874  12.206
 3259SOL    HW211617   7.179   4.859  12.144
 3260SOL     OW11618  10.878  11.291   6.200
 3260SOL    HW111619  10.861  11.304   6.107
 3260SOL    HW211620  10.928  11.209   6.204
 3261SOL     OW11621   6.792  13.098  13.498
 3261SOL    HW111622   6.883  13.121  13.519
 3261SOL    HW211623   6.740  13.146  13.562
 3262SOL     OW11624  10.875  10.725   6.797
 3262SOL    HW111625  10.871  10.717   6.892
 3262SOL    HW211626  10.801  10.780   6.774
 3263SOL     OW11627   0.683   5.071   5.015
 3263SOL    HW111628   0.702   5.151   4.966
 3263SOL    HW211629   0.683   5.099   5.107
 3264SOL     OW11630  13.743  13.876   1.329
 3264SOL    HW111631  13.828  13.836   1.345
 3264SOL    HW211632  13.690  13.806   1.292
 3265SOL     OW11633   5.942   5.347  14.652
 3265SOL    HW111634   6.025   5.345  14.700
 3265SOL    HW211635   5.942   5.265  14.601
 3266SOL     OW11636  14.807  12.180  12.942
 3266SOL    HW111637  14.867  12.255  12.945
 3266SOL    HW211638  14.811  12.143  13.030
 3267SOL     OW11639  11.502  14.020   1.677
 3267SOL    HW111640  11.574  14.010   1.614
 3267SOL    HW211641  11.538  13.987   1.759
 3268SOL     OW11642  13.030   2.923   4.505
 3268SOL    HW111643  12.948   2.882   4.531
 3268SOL    HW211644  13.042   2.898   4.414
 3269SOL     OW11645  12.896  12.990   1.724
 3269SOL    HW111646  12.801  12.987   1.714
 3269SOL    HW211647  12.930  13.001   1.635
 3270SOL     OW11648  10.833   2.878   4.477
 3270SOL    HW111649  10.768   2.907   4.540
 3270SOL    HW211650  10.818   2.933   4.400
 3271SOL     OW11651  11.238  12.319   3.260
 3271SOL    HW111652  11.185  12.243   3.280
 3271SOL    HW211653  11.309  12.317   3.324
 3272SOL     OW11654   7.212   0.629  12.162
 3272SOL    HW111655   7.184   0.537  12.158
 3272SOL    HW211656   7.301   0.625  12.199
 3273SOL     OW11657   8.289   7.284   9.157
 3273SOL    HW111658   8.382   7.306   9.160
 3273SOL    HW211659   8.252   7.346   9.094
 3274SOL     OW11660   3.732  10.748  13.323
 3274SOL    HW111661   3.801  10.690  13.292
 3274SOL    HW211662   3.740  10.746  13.419
 3275SOL     OW11663   8.702   0.596   3.663
 3275SOL    HW111664   8.649   0.671   3.635
 3275SOL    HW211665   8.703   0.602   3.759
 3276SOL     OW11666   1.982  10.671  13.942
 3276SOL    HW111667   1.947  10.743  13.995
 3276SOL    HW211668   1.915  10.604  13.945
 3277SOL     OW11669   8.240  10.606  10.867
 3277SOL    HW111670   8.219  10.681  10.923
 3277SOL    HW211671   8.188  10.619  10.788
 3278SOL     OW11672   8.368   8.956   4.725
 3278SOL    HW111673   8.456   8.950   4.687
 3278SOL    HW211674   8.330   9.034   4.685
 3279SOL     OW11675   1.586   9.891   3.771
 3279SOL    HW111676   1.665   9.935   3.741
 3279SOL    HW211677   1.617   9.828   3.836
 3280SOL     OW11678   1.730   9.296   8.517
 3280SOL    HW111679   1.773   9.344   8.446
 3280SOL    HW211680   1.689   9.221   8.474
 3281SOL     OW11681   0.469  12.247   9.093
 3281SOL    HW111682   0.383  12.205   9.085
 3281SOL    HW211683   0.487  12.246   9.187
 3282SOL     OW11684  13.694   9.631   1.737
 3282SOL    HW111685  13.716   9.682   1.659
 3282SOL    HW211686  13.646   9.692   1.793
 3283SOL     OW11687   0.006  13.629   9.946
 3283SOL    HW111688   0.048  13.569   9.886
 3283SOL    HW211689   0.041  13.606  10.032
 3284SOL     OW11690   9.573   2.679   0.264
 3284SOL    HW111691   9.590   2.608   0.326
 3284SOL    HW211692   9.595   2.642   0.179
 3285SOL     OW11693   1.629   3.138  11.461
 3285SOL    HW111694   1.654   3.138  11.554
 3285SOL    HW211695   1.555   3.198  11.456
 3286SOL     OW11696   3.397   2.535  13.850
 3286SOL    HW111697   3.388   2.487  13.768
 3286SOL    HW211698   3.483   2.510  13.884
 3287SOL     OW11699   2.891   8.402   6.385
 3287SOL    HW111700   2.975   8.360   6.365
 3287SOL    HW211701   2.834   8.330   6.411
 3288SOL     OW11702   2.277   2.115   9.855
 3288SOL    HW111703   2.225   2.166   9.917
 3288SOL    HW211704   2.312   2.042   9.908
 3289SOL     OW11705   5.738   7.021  13.486
 3289SOL    HW111706   5.772   6.932  13.492
 3289SOL    HW211707   5.652   7.011  13.445
 3290SOL     OW11708  13.683   8.579   3.924
 3290SOL    HW111709  13.615   8.631   3.879
 3290SOL    HW211710  13.764   8.628   3.909
 3291SOL     OW11711  12.577  11.313   2.116
 3291SOL    HW111712  12.635  11.386   2.139
 3291SOL    HW211713  12.552  11.276   2.201
 3292SOL     OW11714   5.744   5.725   7.960
 3292SOL    HW111715   5.756   5.731   8.055
 3292SOL    HW211716   5.814   5.667   7.931
 3293SOL     OW11717  14.211   9.140  13.775
 3293SOL    HW111718  14.171   9.128  13.861
 3293SOL    HW211719  14.253   9.056  13.756
 3294SOL     OW11720   2.102  13.246  13.751
 3294SOL    HW111721   2.177  13.203  13.711
 3294SOL    HW211722   2.026  13.207  13.708
 3295SOL     OW11723   3.923  14.566   8.630
 3295SOL    HW111724   3.873  14.584   8.550
 3295SOL    HW211725   3.895  14.633   8.692
 3296SOL     OW11726   3.607   3.249   3.668
 3296SOL    HW111727   3.532   3.279   3.720
 3296SOL    HW211728   3.664   3.325   3.663
 3297SOL     OW11729   5.792   2.689  12.403
 3297SOL    HW111730   5.789   2.749  12.329
 3297SOL    HW211731   5.854   2.621  12.377
 3298SOL     OW11732  12.533   3.710  14.703
 3298SOL    HW111733  12.621   3.718  14.666
 3298SOL    HW211734  12.474   3.723  14.628
 3299SOL     OW11735   1.870  10.152   0.878
 3299SOL    HW111736   1.788  10.108   0.897
 3299SOL    HW211737   1.870  10.164   0.783
 3300SOL     OW11738   2.452  10.085   7.258
 3300SOL    HW111739   2.546  10.094   7.272
 3300SOL    HW211740   2.424  10.023   7.325
 3301SOL     OW11741  14.201   8.543   0.442
 3301SOL    HW111742  14.135   8.571   0.506
 3301SOL    HW211743  14.270   8.609   0.449
 3302SOL     OW11744   1.449   3.755   5.826
 3302SOL    HW111745   1.440   3.672   5.873
 3302SOL    HW211746   1.487   3.730   5.741
 3303SOL     OW11747   9.664  10.326   0.819
 3303SOL    HW111748   9.721  10.279   0.881
 3303SOL    HW211749   9.717  10.400   0.789
 3304SOL     OW11750   6.506   5.476  12.763
 3304SOL    HW111751   6.464   5.549  12.808
 3304SOL    HW211752   6.438   5.409  12.757
 3305SOL     OW11753  11.095   8.689   7.646
 3305SOL    HW111754  11.098   8.672   7.552
 3305SOL    HW211755  11.002   8.698   7.666
 3306SOL     OW11756  11.847  14.312  11.215
 3306SOL    HW111757  11.817  14.283  11.129
 3306SOL    HW211758  11.934  14.347  11.200
 3307SOL     OW11759   5.330   9.725   8.173
 3307SOL    HW111760   5.281   9.657   8.127
 3307SOL    HW211761   5.264   9.783   8.210
 3308SOL     OW11762  12.162   7.166   3.843
 3308SOL    HW111763  12.109   7.152   3.922
 3308SOL    HW211764  12.252   7.167   3.875
 3309SOL     OW11765   1.627   0.529  10.648
 3309SOL    HW111766   1.678   0.451  10.628
 3309SOL    HW211767   1.598   0.561  10.562
 3310SOL     OW11768   3.908   3.496  14.744
 3310SOL    HW111769   3.899   3.405  14.718
 3310SOL    HW211770   3.935   3.493  14.836
 3311SOL     OW11771   8.431   1.752  10.867
 3311SOL    HW111772   8.410   1.733  10.776
 3311SOL    HW211773   8.444   1.666  10.908
 3312SOL     OW11774   7.937  11.611   1.179
 3312SOL    HW111775   8.014  11.558   1.201
 3312SOL    HW211776   7.863  11.553   1.193
 3313SOL     OW11777   4.330   9.848   1.667
 3313SOL    HW111778   4.346   9.758   1.697
 3313SOL    HW211779   4.237   9.863   1.686
 3314SOL     OW11780   4.157   4.464   5.913
 3314SOL    HW111781   4.128   4.552   5.938
 3314SOL    HW211782   4.246   4.458   5.947
 3315SOL     OW11783  14.533   7.023   3.456
 3315SOL    HW111784  14.470   7.077   3.407
 3315SOL    HW211785  14.618   7.046   3.419
 3316SOL     OW11786   1.835  10.988  12.146
 3316SOL    HW111787   1.875  10.988  12.233
 3316SOL    HW211788   1.813  10.896  12.129
 3317SOL     OW11789   2.034   8.521   5.831
 3317SOL    HW111790   2.025   8.558   5.743
 3317SOL    HW211791   2.042   8.426   5.816
 3318SOL     OW11792  14.824   9.559   2.370
 3318SOL    HW111793  14.802   9.466   2.370
 3318SOL    HW211794  14.810   9.587   2.279
 3319SOL     OW11795  14.499   7.277  14.619
 3319SOL    HW111796  14.592   7.278  14.595
 3319SOL    HW211797  14.494   7.216  14.692
 3320SOL     OW11798  11.810   9.192   4.623
 3320SOL    HW111799  11.740   9.151   4.674
 3320SOL    HW211800  11.773   9.275   4.594
 3321SOL     OW11801   2.934   7.689   6.332
 3321SOL    HW111802   2.842   7.712   6.343
 3321SOL    HW211803   2.972   7.702   6.419
 3322SOL     OW11804  10.670   4.944  14.477
 3322SOL    HW111805  10.606   4.880  14.509
 3322SOL    HW211806  10.622   4.995  14.412
 3323SOL     OW11807   4.092  10.083   1.972
 3323SOL    HW111808   4.012  10.077   1.920
 3323SOL    HW211809   4.107  10.177   1.983
 3324SOL     OW11810   8.765   4.416   7.373
 3324SOL    HW111811   8.726   4.332   7.350
 3324SOL    HW211812   8.838   4.426   7.311
 3325SOL     OW11813  13.318   8.644   4.605
 3325SOL    HW111814  13.362   8.729   4.609
 3325SOL    HW211815  13.261   8.650   4.529
 3326SOL     OW11816  13.778  14.319   6.918
 3326SOL    HW111817  13.781  14.352   6.828
 3326SOL    HW211818  13.817  14.389   6.970
 3327SOL     OW11819   9.662   7.409   6.680
 3327SOL    HW111820   9.678   7.501   6.661
 3327SOL    HW211821   9.598   7.410   6.751
 3328SOL     OW11822   2.699   3.869   7.200
 3328SOL    HW111823   2.612   3.908   7.194
 3328SOL    HW211824   2.685   3.776   7.182
 3329SOL     OW11825   4.274   2.457   8.394
 3329SOL    HW111826   4.317   2.391   8.340
 3329SOL    HW211827   4.345   2.495   8.446
 3330SOL     OW11828   0.224  10.108   6.359
 3330SOL    HW111829   0.241  10.072   6.272
 3330SOL    HW211830   0.295  10.171   6.373
 3331SOL     OW11831  10.763   3.099   3.703
 3331SOL    HW111832  10.831   3.166   3.693
 3331SOL    HW211833  10.691   3.128   3.647
 3332SOL     OW11834   1.462   4.418   2.707
 3332SOL    HW111835   1.504   4.504   2.709
 3332SOL    HW211836   1.421   4.409   2.793
 3333SOL     OW11837   1.855   7.834   9.123
 3333SOL    HW111838   1.820   7.756   9.079
 3333SOL    HW211839   1.925   7.864   9.065
 3334SOL     OW11840  11.106  10.681   7.985
 3334SOL    HW111841  11.193  10.706   8.015
 3334SOL    HW211842  11.121  10.627   7.907
 3335SOL     OW11843   4.973  13.923   6.288
 3335SOL    HW111844   5.062  13.956   6.279
 3335SOL    HW211845   4.920  13.982   6.235
 3336SOL     OW11846  10.635   0.045   1.746
 3336SOL    HW111847  10.674   0.125   1.710
 3336SOL    HW211848  10.540   0.057   1.734
 3337SOL     OW11849   5.399   6.783   5.510
 3337SOL    HW111850   5.375   6.839   5.436
 3337SOL    HW211851   5.490   6.807   5.530
 3338SOL     OW11852   1.571   5.195  11.762
 3338SOL    HW111853   1.550   5.286  11.780
 3338SOL    HW211854   1.652   5.178  11.810
 3339SOL     OW11855   6.339  12.738   3.439
 3339SOL    HW111856   6.426  12.699   3.439
 3339SOL    HW211857   6.305  12.721   3.527
 3340SOL     OW11858   6.189   0.076   4.605
 3340SOL    HW111859   6.180  14.856   4.626
 3340SOL    HW211860   6.281   0.095   4.624
 3341SOL     OW11861  13.161   5.447   9.215
 3341SOL    HW111862  13.219   5.371   9.223
 3341SOL    HW211863  13.211   5.519   9.252
 3342SOL     OW11864  14.377   8.750  11.892
 3342SOL    HW111865  14.471   8.733  11.889
 3342SOL    HW211866  14.343   8.711  11.812
 3343SOL     OW11867  11.745  10.249  13.562
 3343SOL    HW111868  11.822  10.202  13.529
 3343SOL    HW211869  11.733  10.321  13.500
 3344SOL     OW11870   6.830   6.033   7.939
 3344SOL    HW111871   6.880   6.059   8.016
 3344SOL    HW211872   6.874   5.954   7.907
 3345SOL     OW11873   9.294   7.254   5.848
 3345SOL    HW111874   9.277   7.164   5.876
 3345SOL    HW211875   9.370   7.248   5.790
 3346SOL     OW11876   3.405   8.011   2.336
 3346SOL    HW111877   3.472   8.073   2.307
 3346SOL    HW211878   3.453   7.948   2.390
 3347SOL     OW11879   5.298  12.721  10.815
 3347SOL    HW111880   5.266  12.631  10.811
 3347SOL    HW211881   5.270  12.760  10.732
 3348SOL     OW11882  13.520  12.635   8.830
 3348SOL    HW111883  13.522  12.717   8.879
 3348SOL    HW211884  13.470  12.655   8.751
 3349SOL     OW11885   0.445   1.244   4.940
 3349SOL    HW111886   0.414   1.163   4.898
 3349SOL    HW211887   0.445   1.309   4.870
 3350SOL     OW11888   4.063  10.706   8.023
 3350SOL    HW111889   4.039  10.613   8.022
 3350SOL    HW211890   4.127  10.715   7.953
 3351SOL     OW11891   4.712   9.137   6.406
 3351SOL    HW111892   4.652   9.183   6.464
 3351SOL    HW211893   4.786   9.197   6.395
 3352SOL     OW11894   3.072   6.056   8.407
 3352SOL    HW111895   3.058   6.129   8.346
 3352SOL    HW211896   3.096   6.097   8.489
 3353SOL     OW11897   5.515   4.849  13.740
 3353SOL    HW111898   5.506   4.936  13.701
 3353SOL    HW211899   5.515   4.865  13.834
 3354SOL     OW11900   0.282   6.423   2.170
 3354SOL    HW111901   0.217   6.361   2.201
 3354SOL    HW211902   0.233   6.505   2.157
 3355SOL     OW11903  14.668   7.416   4.983
 3355SOL    HW111904  14.719   7.417   4.902
 3355SOL    HW211905  14.714   7.354   5.039
 3356SOL     OW11906   4.906  14.596   0.622
 3356SOL    HW111907   4.831  14.645   0.589
 3356SOL    HW211908   4.909  14.517   0.568
 3357SOL     OW11909   7.312   4.450   0.851
 3357SOL    HW111910   7.352   4.530   0.885
 3357SOL    HW211911   7.378   4.413   0.793
 3358SOL     OW11912   9.473   3.162  10.679
 3358SOL    HW111913   9.395   3.172  10.733
 3358SOL    HW211914   9.546   3.161  10.741
 3359SOL     OW11915   3.333   6.393   8.052
 3359SOL    HW111916   3.258   6.348   8.014
 3359SOL    HW211917   3.358   6.339   8.127
 3360SOL     OW11918   0.862   2.746   2.899
 3360SOL    HW111919   0.855   2.838   2.872
 3360SOL    HW211920   0.948   2.719   2.869
 3361SOL     OW11921   7.706   4.161   8.426
 3361SOL    HW111922   7.629   4.107   8.447
 3361SOL    HW211923   7.734   4.196   8.511
 3362SOL     OW11924   4.715   5.001  10.524
 3362SOL    HW111925   4.731   4.937  10.593
 3362SOL    HW211926   4.767   5.077  10.550
 3363SOL     OW11927   2.968  10.048   1.200
 3363SOL    HW111928   2.900  10.003   1.250
 3363SOL    HW211929   3.031   9.980   1.178
 3364SOL     OW11930  13.419   7.724   2.497
 3364SOL    HW111931  13.412   7.630   2.479
 3364SOL    HW211932  13.476   7.730   2.573
 3365SOL     OW11933  13.086  13.571  11.127
 3365SOL    HW111934  13.129  13.503  11.179
 3365SOL    HW211935  13.135  13.571  11.044
 3366SOL     OW11936   9.386   7.775   1.235
 3366SOL    HW111937   9.362   7.863   1.206
 3366SOL    HW211938   9.305   7.739   1.271
 3367SOL     OW11939  12.557  14.274  10.876
 3367SOL    HW111940  12.623  14.261  10.944
 3367SOL    HW211941  12.556  14.192  10.827
 3368SOL     OW11942  11.100   6.757   7.050
 3368SOL    HW111943  11.049   6.837   7.037
 3368SOL    HW211944  11.062   6.717   7.127
 3369SOL     OW11945  12.082   4.887   2.293
 3369SOL    HW111946  12.012   4.951   2.303
 3369SOL    HW211947  12.038   4.803   2.285
 3370SOL     OW11948  11.284   9.707   5.213
 3370SOL    HW111949  11.301   9.727   5.120
 3370SOL    HW211950  11.281   9.792   5.256
 3371SOL     OW11951  12.846  13.565   4.023
 3371SOL    HW111952  12.766  13.552   3.972
 3371SOL    HW211953  12.917  13.562   3.959
 3372SOL     OW11954   5.490   4.747   5.478
 3372SOL    HW111955   5.455   4.665   5.445
 3372SOL    HW211956   5.566   4.721   5.532
 3373SOL     OW11957   1.074   1.174   4.143
 3373SOL    HW111958   1.134   1.108   4.108
 3373SOL    HW211959   0.989   1.130   4.144
 3374SOL     OW11960   8.014   0.041   6.488
 3374SOL    HW111961   8.096  14.868   6.476
 3374SOL    HW211962   8.018   0.077   6.576
 3375SOL     OW11963  12.424  13.816   9.057
 3375SOL    HW111964  12.421  13.741   9.116
 3375SOL    HW211965  12.397  13.890   9.112
 3376SOL     OW11966  12.511  10.014   3.668
 3376SOL    HW111967  12.502   9.974   3.755
 3376SOL    HW211968  12.423  10.046   3.647
 3377SOL     OW11969   9.553   6.532   0.665
 3377SOL    HW111970   9.544   6.478   0.743
 3377SOL    HW211971   9.464   6.545   0.634
 3378SOL     OW11972   2.314   7.123   2.046
 3378SOL    HW111973   2.269   7.073   2.114
 3378SOL    HW211974   2.278   7.211   2.053
 3379SOL     OW11975   2.124   3.985   2.127
 3379SOL    HW111976   2.104   3.962   2.217
 3379SOL    HW211977   2.079   3.919   2.074
 3380SOL     OW11978   6.951   7.754  13.648
 3380SOL    HW111979   6.930   7.666  13.680
 3380SOL    HW211980   6.897   7.765  13.570
 3381SOL     OW11981   2.402   1.516   7.714
 3381SOL    HW111982   2.429   1.604   7.688
 3381SOL    HW211983   2.406   1.518   7.810
 3382SOL     OW11984  12.871  12.413  12.734
 3382SOL    HW111985  12.776  12.412  12.725
 3382SOL    HW211986  12.895  12.323  12.757
 3383SOL     OW11987  12.222  12.209  10.087
 3383SOL    HW111988  12.223  12.290  10.036
 3383SOL    HW211989  12.185  12.235  10.172
 3384SOL     OW11990  13.874   2.867  13.079
 3384SOL    HW111991  13.858   2.954  13.044
 3384SOL    HW211992  13.792   2.820  13.066
 3385SOL     OW11993   5.918  10.545   2.788
 3385SOL    HW111994   5.905  10.546   2.883
 3385SOL    HW211995   6.001  10.591   2.775
 3386SOL     OW11996   0.170   7.334   1.487
 3386SOL    HW111997   0.170   7.318   1.392
 3386SOL    HW211998   0.100   7.397   1.500
 3387SOL     OW11999   6.144   0.165  10.894
 3387SOL    HW112000   6.179   0.191  10.808
 3387SOL    HW212001   6.053   0.142  10.876
 3388SOL     OW12002  13.081  11.403   4.880
 3388SOL    HW112003  13.141  11.383   4.952
 3388SOL    HW212004  12.994  11.401   4.919
 3389SOL     OW12005   2.841  12.486  10.797
 3389SOL    HW112006   2.883  12.472  10.882
 3389SOL    HW212007   2.757  12.527  10.818
 3390SOL     OW12008  10.449   7.704  14.517
 3390SOL    HW112009  10.457   7.618  14.475
 3390SOL    HW212010  10.358   7.707  14.547
 3391SOL     OW12011   5.067   9.588   3.248
 3391SOL    HW112012   5.160   9.609   3.243
 3391SOL    HW212013   5.064   9.509   3.302
 3392SOL     OW12014   9.534   1.378   7.416
 3392SOL    HW112015   9.581   1.338   7.343
 3392SOL    HW212016   9.594   1.446   7.448
 3393SOL     OW12017   9.346   5.816   6.398
 3393SOL    HW112018   9.335   5.901   6.356
 3393SOL    HW212019   9.351   5.836   6.492
 3394SOL     OW12020   6.655  11.971  10.267
 3394SOL    HW112021   6.589  11.902  10.257
 3394SOL    HW212022   6.649  12.021  10.185
 3395SOL     OW12023  10.232   2.570  12.943
 3395SOL    HW112024  10.214   2.590  13.034
 3395SOL    HW212025  10.184   2.636  12.893
 3396SOL     OW12026   0.113   0.810  13.036
 3396SOL    HW112027   0.143   0.899  13.015
 3396SOL    HW212028   0.088   0.774  12.951
 3397SOL     OW12029  14.431   8.103   5.176
 3397SOL    HW112030  14.457   8.012   5.162
 3397SOL    HW212031  14.369   8.100   5.249
 3398SOL     OW12032   1.540   7.312   3.457
 3398SOL    HW112033   1.486   7.366   3.514
 3398SOL    HW212034   1.536   7.355   3.372
 3399SOL     OW12035  13.336   2.221   1.469
 3399SOL    HW112036  13.375   2.166   1.402
 3399SOL    HW212037  13.408   2.237   1.531
 3400SOL     OW12038  12.793   2.915   2.004
 3400SOL    HW112039  12.875   2.947   2.040
 3400SOL    HW212040  12.818   2.839   1.951
 3401SOL     OW12041  13.223   8.792  11.807
 3401SOL    HW112042  13.203   8.790  11.713
 3401SOL    HW212043  13.171   8.865  11.840
 3402SOL     OW12044   8.138   2.867   6.083
 3402SOL    HW112045   8.117   2.959   6.069
 3402SOL    HW212046   8.200   2.845   6.013
 3403SOL     OW12047  13.762  14.747   3.329
 3403SOL    HW112048  13.668  14.762   3.340
 3403SOL    HW212049  13.793  14.721   3.416
 3404SOL     OW12050  10.750  14.424  11.298
 3404SOL    HW112051  10.742  14.507  11.345
 3404SOL    HW212052  10.844  14.414  11.283
 3405SOL     OW12053   1.254   8.504  14.177
 3405SOL    HW112054   1.343   8.500  14.213
 3405SOL    HW212055   1.254   8.581  14.121
 3406SOL     OW12056  10.793   3.943   9.655
 3406SOL    HW112057  10.832   4.030   9.647
 3406SOL    HW212058  10.842   3.889   9.593
 3407SOL     OW12059   9.033   0.356  11.241
 3407SOL    HW112060   9.108   0.411  11.261
 3407SOL    HW212061   9.070   0.270  11.222
 3408SOL     OW12062  11.544   4.736   1.558
 3408SOL    HW112063  11.589   4.715   1.640
 3408SOL    HW212064  11.484   4.662   1.545
 3409SOL     OW12065   0.223  10.607   6.729
 3409SOL    HW112066   0.219  10.694   6.691
 3409SOL    HW212067   0.317  10.591   6.743
 3410SOL     OW12068   7.545   7.668   0.478
 3410SOL    HW112069   7.492   7.696   0.404
 3410SOL    HW212070   7.499   7.701   0.555
 3411SOL     OW12071  14.055  11.256  10.397
 3411SOL    HW112072  14.089  11.258  10.486
 3411SOL    HW212073  14.073  11.344  10.363
 3412SOL     OW12074  12.572   3.220   8.216
 3412SOL    HW112075  12.477   3.219   8.206
 3412SOL    HW212076  12.605   3.188   8.132
 3413SOL     OW12077  12.723   8.111  13.358
 3413SOL    HW112078  12.761   8.196  13.335
 3413SOL    HW212079  12.798   8.058  13.386
 3414SOL     OW12080  13.486   8.309   8.359
 3414SOL    HW112081  13.533   8.354   8.429
 3414SOL    HW212082  13.415   8.368   8.335
 3415SOL     OW12083  12.891   9.669  10.043
 3415SOL    HW112084  12.982   9.640  10.030
 3415SOL    HW212085  12.841   9.621   9.977
 3416SOL     OW12086  13.703   2.588   2.404
 3416SOL    HW112087  13.657   2.550   2.329
 3416SOL    HW212088  13.723   2.513   2.460
 3417SOL     OW12089   0.981   7.983   5.539
 3417SOL    HW112090   1.020   8.067   5.517
 3417SOL    HW212091   1.055   7.922   5.542
 3418SOL     OW12092   7.820  12.840   2.501
 3418SOL    HW112093   7.735  12.867   2.467
 3418SOL    HW212094   7.802  12.760   2.550
 3419SOL     OW12095   5.976   9.708   5.691
 3419SOL    HW112096   5.947   9.630   5.737
 3419SOL    HW212097   5.898   9.742   5.648
 3420SOL     OW12098   5.183   6.631   2.328
 3420SOL    HW112099   5.241   6.559   2.304
 3420SOL    HW212100   5.176   6.683   2.249
 3421SOL     OW12101  13.741   5.018   0.045
 3421SOL    HW112102  13.800   4.955   0.086
 3421SOL    HW212103  13.653   4.981   0.061
 3422SOL     OW12104   4.097   2.132   1.328
 3422SOL    HW112105   4.133   2.189   1.259
 3422SOL    HW212106   4.005   2.121   1.304
 3423SOL     OW12107  10.602   4.247   5.985
 3423SOL    HW112108  10.535   4.299   5.941
 3423SOL    HW212109  10.642   4.195   5.915
 3424SOL     OW12110   9.261   5.503  14.374
 3424SOL    HW112111   9.281   5.451  14.296
 3424SOL    HW212112   9.342   5.503  14.424
 3425SOL     OW12113   5.122   6.648  11.338
 3425SOL    HW112114   5.143   6.565  11.380
 3425SOL    HW212115   5.198   6.668  11.284
 3426SOL     OW12116   5.844   7.248  13.609
 3426SOL    HW112117   5.934   7.232  13.638
 3426SOL    HW212118   5.814   7.164  13.575
 3427SOL     OW12119   9.632  10.415  12.962
 3427SOL    HW112120   9.667  10.341  12.911
 3427SOL    HW212121   9.538  10.413  12.945
 3428SOL     OW12122   3.657  14.243   3.969
 3428SOL    HW112123   3.658  14.337   3.988
 3428SOL    HW212124   3.693  14.203   4.048
 3429SOL     OW12125   2.846  10.814  10.710
 3429SOL    HW112126   2.888  10.871  10.775
 3429SOL    HW212127   2.786  10.872  10.663
 3430SOL     OW12128   6.939   6.788  12.062
 3430SOL    HW112129   6.855   6.794  12.016
 3430SOL    HW212130   6.928   6.846  12.138
 3431SOL     OW12131  12.069  13.777   1.119
 3431SOL    HW112132  12.019  13.837   1.063
 3431SOL    HW212133  12.034  13.790   1.207
 3432SOL     OW12134  12.995   6.725   1.042
 3432SOL    HW112135  12.929   6.761   1.101
 3432SOL    HW212136  12.947   6.664   0.986
 3433SOL     OW12137   7.229   4.997  11.725
 3433SOL    HW112138   7.236   5.060  11.653
 3433SOL    HW212139   7.278   5.037  11.796
 3434SOL     OW12140   8.852   3.378   8.885
 3434SOL    HW112141   8.910   3.395   8.959
 3434SOL    HW212142   8.770   3.421   8.908
 3435SOL     OW12143   5.809  14.422   5.318
 3435SOL    HW112144   5.730  14.437   5.370
 3435SOL    HW212145   5.849  14.508   5.309
 3436SOL     OW12146   5.611   3.264   2.857
 3436SOL    HW112147   5.562   3.208   2.797
 3436SOL    HW212148   5.699   3.269   2.819
 3437SOL     OW12149  11.289   9.818  10.746
 3437SOL    HW112150  11.355   9.879  10.711
 3437SOL    HW212151  11.340   9.750  10.789
 3438SOL     OW12152  10.198   2.960   3.763
 3438SOL    HW112153  10.149   2.904   3.823
 3438SOL    HW212154  10.251   2.899   3.711
 3439SOL     OW12155  14.423   0.162   7.981
 3439SOL    HW112156  14.354   0.228   7.977
 3439SOL    HW212157  14.377   0.078   7.973
 3440SOL     OW12158   3.891   9.559  14.026
 3440SOL    HW112159   3.954   9.581  13.957
 3440SOL    HW212160   3.807   9.554  13.980
 3441SOL     OW12161  11.908  12.234   9.257
 3441SOL    HW112162  11.999  12.246   9.230
 3441SOL    HW212163  11.891  12.307   9.316
 3442SOL     OW12164   0.167   4.327   3.328
 3442SOL    HW112165   0.168   4.253   3.267
 3442SOL    HW212166   0.146   4.287   3.413
 3443SOL     OW12167  12.903   8.320   9.985
 3443SOL    HW112168  12.944   8.235  10.000
 3443SOL    HW212169  12.810   8.305   9.999
 3444SOL     OW12170   4.995   1.726   1.103
 3444SOL    HW112171   5.049   1.768   1.037
 3444SOL    HW212172   4.942   1.662   1.055
 3445SOL     OW12173   4.890   2.988  10.775
 3445SOL    HW112174   4.824   2.938  10.726
 3445SOL    HW212175   4.846   3.069  10.799
 3446SOL     OW12176   8.934   7.989   7.763
 3446SOL    HW112177   8.974   7.936   7.832
 3446SOL    HW212178   8.891   8.060   7.810
 3447SOL     OW12179   1.013   2.796  10.891
 3447SOL    HW112180   0.932   2.839  10.917
 3447SOL    HW212181   1.006   2.708  10.927
 3448SOL     OW12182   6.667   7.550   6.196
 3448SOL    HW112183   6.613   7.629   6.206
 3448SOL    HW212184   6.677   7.516   6.285
 3449SOL     OW12185   0.313   9.981   8.841
 3449SOL    HW112186   0.337   9.916   8.907
 3449SOL    HW212187   0.396  10.016   8.810
 3450SOL     OW12188  13.935  14.242  13.619
 3450SOL    HW112189  14.021  14.202  13.627
 3450SOL    HW212190  13.896  14.233  13.706
 3451SOL     OW12191  14.157   4.844   7.570
 3451SOL    HW112192  14.082   4.887   7.610
 3451SOL    HW212193  14.233   4.893   7.602
 3452SOL     OW12194  14.291   6.408   5.753
 3452SOL    HW112195  14.195   6.398   5.755
 3452SOL    HW212196  14.306   6.500   5.773
 3453SOL     OW12197   9.319   1.910  12.190
 3453SOL    HW112198   9.403   1.934  12.229
 3453SOL    HW212199   9.333   1.822  12.156
 3454SOL     OW12200   5.695   0.549   0.000
 3454SOL    HW112201   5.715   0.578   0.089
 3454SOL    HW212202   5.606   0.514   0.006
 3455SOL     OW12203   8.459  13.580   9.102
 3455SOL    HW112204   8.370  13.590   9.069
 3455SOL    HW212205   8.496  13.508   9.052
 3456SOL     OW12206   6.410  11.017   1.418
 3456SOL    HW112207   6.393  11.056   1.503
 3456SOL    HW212208   6.499  10.983   1.424
 3457SOL     OW12209   0.834  13.567   0.492
 3457SOL    HW112210   0.878  13.582   0.575
 3457SOL    HW212211   0.890  13.610   0.427
 3458SOL     OW12212   9.978  13.369   1.394
 3458SOL    HW112213  10.058  13.352   1.344
 3458SOL    HW212214   9.943  13.450   1.356
 3459SOL     OW12215  12.166   5.770   8.227
 3459SOL    HW112216  12.101   5.838   8.212
 3459SOL    HW212217  12.119   5.688   8.213
 3460SOL     OW12218   9.323   0.809   0.362
 3460SOL    HW112219   9.241   0.764   0.340
 3460SOL    HW212220   9.328   0.880   0.298
 3461SOL     OW12221   9.001   0.576   2.406
 3461SOL    HW112222   9.026   0.529   2.326
 3461SOL    HW212223   9.016   0.514   2.477
 3462SOL     OW12224   5.477   0.779   9.107
 3462SOL    HW112225   5.552   0.830   9.135
 3462SOL    HW212226   5.498   0.751   9.018
 3463SOL     OW12227   6.532   7.446  12.729
 3463SOL    HW112228   6.540   7.533  12.690
 3463SOL    HW212229   6.458   7.406  12.683
 3464SOL     OW12230   9.934   2.016  13.530
 3464SOL    HW112231  10.029   2.008  13.532
 3464SOL    HW212232   9.902   1.926  13.531
 3465SOL     OW12233  14.500  11.313   4.788
 3465SOL    HW112234  14.589  11.289   4.812
 3465SOL    HW212235  14.509  11.396   4.742
 3466SOL     OW12236   6.848  11.806   6.996
 3466SOL    HW112237   6.907  11.880   7.009
 3466SOL    HW212238   6.843  11.795   6.901
 3467SOL     OW12239  10.998   1.958   5.318
 3467SOL    HW112240  11.063   1.968   5.249
 3467SOL    HW212241  10.922   2.007   5.287
 3468SOL     OW12242   1.324   3.220  12.758
 3468SOL    HW112243   1.334   3.304  12.802
 3468SOL    HW212244   1.324   3.155  12.828
 3469SOL     OW12245  13.656  13.204   7.619
 3469SOL    HW112246  13.701  13.269   7.566
 3469SOL    HW212247  13.630  13.136   7.556
 3470SOL     OW12248   2.697   8.808   3.831
 3470SOL    HW112249   2.728   8.762   3.753
 3470SOL    HW212250   2.697   8.741   3.900
 3471SOL     OW12251   3.531   4.185   8.536
 3471SOL    HW112252   3.538   4.245   8.610
 3471SOL    HW212253   3.450   4.136   8.553
 3472SOL     OW12254   5.232  12.171   2.461
 3472SOL    HW112255   5.236  12.104   2.530
 3472SOL    HW212256   5.157  12.225   2.484
 3473SOL     OW12257  12.540   3.444  14.801
 3473SOL    HW112258  12.577   3.516  14.750
 3473SOL    HW212259  12.616   3.395  14.832
 3474SOL     OW12260   5.707  10.212   5.137
 3474SOL    HW112261   5.648  10.287   5.138
 3474SOL    HW212262   5.770  10.232   5.068
 3475SOL     OW12263   9.638  10.648  10.253
 3475SOL    HW112264   9.730  10.673  10.263
 3475SOL    HW212265   9.616  10.604  10.335
 3476SOL     OW12266  12.385   9.815   6.467
 3476SOL    HW112267  12.318   9.823   6.535
 3476SOL    HW212268  12.381   9.723   6.440
 3477SOL     OW12269   2.564  12.568   6.886
 3477SOL    HW112270   2.480  12.521   6.890
 3477SOL    HW212271   2.626  12.509   6.928
 3478SOL     OW12272   8.005   1.908   8.324
 3478SOL    HW112273   8.037   1.829   8.280
 3478SOL    HW212274   8.084   1.952   8.355
 3479SOL     OW12275   6.011   5.099   9.247
 3479SOL    HW112276   6.086   5.152   9.219
 3479SOL    HW212277   6.051   5.023   9.289
 3480SOL     OW12278   2.971   4.716  14.576
 3480SOL    HW112279   2.916   4.792  14.558
 3480SOL    HW212280   2.954   4.695  14.668
 3481SOL     OW12281   8.590   2.877  11.022
 3481SOL    HW112282   8.576   2.959  10.976
 3481SOL    HW212283   8.675   2.887  11.064
 3482SOL     OW12284  10.392   1.557  12.351
 3482SOL    HW112285  10.382   1.625  12.284
 3482SOL    HW212286  10.308   1.556  12.396
 3483SOL     OW12287   5.488   0.886   8.533
 3483SOL    HW112288   5.500   0.791   8.540
 3483SOL    HW212289   5.574   0.923   8.551
 3484SOL     OW12290   4.867   3.074   8.858
 3484SOL    HW112291   4.776   3.077   8.887
 3484SOL    HW212292   4.865   3.024   8.776
 3485SOL     OW12293   3.380  10.624  10.128
 3485SOL    HW112294   3.476  10.631  10.119
 3485SOL    HW212295   3.363  10.649  10.218
 3486SOL     OW12296  12.186   4.325  13.030
 3486SOL    HW112297  12.118   4.388  13.006
 3486SOL    HW212298  12.260   4.347  12.973
 3487SOL     OW12299   9.903   2.061   5.297
 3487SOL    HW112300   9.872   2.048   5.207
 3487SOL    HW212301   9.849   2.132   5.332
 3488SOL     OW12302   2.279   3.933   1.067
 3488SOL    HW112303   2.244   3.987   0.996
 3488SOL    HW212304   2.253   3.844   1.044
 3489SOL     OW12305  10.903   3.394   0.835
 3489SOL    HW112306  10.808   3.403   0.829
 3489SOL    HW212307  10.920   3.367   0.925
 3490SOL     OW12308   4.547   0.247   1.958
 3490SOL    HW112309   4.609   0.267   1.888
 3490SOL    HW212310   4.602   0.217   2.030
 3491SOL     OW12311   6.094   3.331   5.369
 3491SOL    HW112312   6.169   3.352   5.313
 3491SOL    HW212313   6.073   3.414   5.413
 3492SOL     OW12314  10.790   1.434   4.075
 3492SOL    HW112315  10.736   1.430   3.997
 3492SOL    HW212316  10.785   1.347   4.113
 3493SOL     OW12317  12.366   7.100  14.657
 3493SOL    HW112318  12.442   7.139  14.699
 3493SOL    HW212319  12.377   7.119  14.564
 3494SOL     OW12320   2.521   9.876   9.258
 3494SOL    HW112321   2.427   9.889   9.272
 3494SOL    HW212322   2.551   9.956   9.215
 3495SOL     OW12323   5.497   9.280   3.470
 3495SOL    HW112324   5.550   9.202   3.454
 3495SOL    HW212325   5.559   9.346   3.501
 3496SOL     OW12326   2.118   1.138   7.699
 3496SOL    HW112327   2.074   1.195   7.636
 3496SOL    HW212328   2.050   1.079   7.730
 3497SOL     OW12329   3.291   0.902  14.183
 3497SOL    HW112330   3.340   0.935  14.258
 3497SOL    HW212331   3.280   0.808  14.201
 3498SOL     OW12332   5.294   9.103   3.286
 3498SOL    HW112333   5.279   9.014   3.256
 3498SOL    HW212334   5.269   9.102   3.379
 3499SOL     OW12335  13.661   3.396   5.233
 3499SOL    HW112336  13.708   3.402   5.317
 3499SOL    HW212337  13.724   3.426   5.168
 3500SOL     OW12338  10.937   9.920  12.367
 3500SOL    HW112339  11.017   9.927  12.420
 3500SOL    HW212340  10.877   9.869  12.421
 3501SOL     OW12341   1.258  13.981  11.511
 3501SOL    HW112342   1.180  13.945  11.470
 3501SOL    HW212343   1.285  14.052  11.452
 3502SOL     OW12344   5.634   5.214   0.627
 3502SOL    HW112345   5.553   5.249   0.588
 3502SOL    HW212346   5.649   5.131   0.581
 3503SOL     OW12347  11.033   8.088   2.839
 3503SOL    HW112348  11.001   8.162   2.892
 3503SOL    HW212349  10.977   8.088   2.761
 3504SOL     OW12350   6.440   0.755   4.814
 3504SOL    HW112351   6.353   0.774   4.779
 3504SOL    HW212352   6.423   0.692   4.885
 3505SOL     OW12353   8.244  13.300   0.045
 3505SOL    HW112354   8.166  13.354   0.034
 3505SOL    HW212355   8.309  13.359   0.083
 3506SOL     OW12356   6.706  10.268   4.289
 3506SOL    HW112357   6.778  10.255   4.351
 3506SOL    HW212358   6.703  10.363   4.277
 3507SOL     OW12359   6.458   2.378   2.244
 3507SOL    HW112360   6.515   2.397   2.318
 3507SOL    HW212361   6.448   2.283   2.245
 3508SOL     OW12362   4.861   6.548  14.183
 3508SOL    HW112363   4.836   6.482  14.248
 3508SOL    HW212364   4.941   6.514  14.143
 3509SOL     OW12365   2.587  14.578   8.308
 3509SOL    HW112366   2.580  14.521   8.385
 3509SOL    HW212367   2.583  14.517   8.233
 3510SOL     OW12368  11.362   4.542   1.490
 3510SOL    HW112369  11.399   4.459   1.458
 3510SOL    HW212370  11.268   4.528   1.490
 3511SOL     OW12371   8.974   0.296  14.189
 3511SOL    HW112372   8.928   0.290  14.272
 3511SOL    HW212373   9.039   0.365  14.203
 3512SOL     OW12374   3.921   5.598   6.110
 3512SOL    HW112375   3.973   5.676   6.091
 3512SOL    HW212376   3.976   5.545   6.167
 3513SOL     OW12377   6.972   4.662   6.420
 3513SOL    HW112378   7.006   4.723   6.487
 3513SOL    HW212379   7.023   4.582   6.432
 3514SOL     OW12380   5.417   8.866  11.038
 3514SOL    HW112381   5.400   8.852  10.945
 3514SOL    HW212382   5.412   8.778  11.076
 3515SOL     OW12383   1.897   4.823  11.348
 3515SOL    HW112384   1.957   4.834  11.422
 3515SOL    HW212385   1.863   4.911  11.331
 3516SOL     OW12386   9.362   3.856   7.081
 3516SOL    HW112387   9.441   3.852   7.135
 3516SOL    HW212388   9.391   3.894   6.998
 3517SOL     OW12389   3.498  11.557  14.244
 3517SOL    HW112390   3.585  11.520  14.257
 3517SOL    HW212391   3.443  11.481  14.223
 3518SOL     OW12392  10.074  12.075   7.407
 3518SOL    HW112393  10.162  12.061   7.443
 3518SOL    HW212394  10.028  11.993   7.423
 3519SOL     OW12395   1.237   3.748  11.803
 3519SOL    HW112396   1.202   3.758  11.714
 3519SOL    HW212397   1.330   3.730  11.790
 3520SOL     OW12398   3.633   4.739   5.611
 3520SOL    HW112399   3.643   4.776   5.698
 3520SOL    HW212400   3.543   4.760   5.587
 3521SOL     OW12401   8.867  11.061  14.483
 3521SOL    HW112402   8.959  11.038  14.472
 3521SOL    HW212403   8.834  11.072  14.394
 3522SOL     OW12404   6.178   1.052   2.265
 3522SOL    HW112405   6.253   1.003   2.298
 3522SOL    HW212406   6.145   1.099   2.342
 3523SOL     OW12407   8.881   4.127  11.885
 3523SOL    HW112408   8.815   4.168  11.829
 3523SOL    HW212409   8.963   4.132  11.835
 3524SOL     OW12410  10.648   5.526   1.698
 3524SOL    HW112411  10.692   5.559   1.776
 3524SOL    HW212412  10.561   5.499   1.729
 3525SOL     OW12413   2.399  12.639  12.889
 3525SOL    HW112414   2.396  12.641  12.984
 3525SOL    HW212415   2.395  12.731  12.863
 3526SOL     OW12416  14.605   6.648  13.406
 3526SOL    HW112417  14.652   6.731  13.419
 3526SOL    HW212418  14.512   6.673  13.412
 3527SOL     OW12419   3.102  11.962  10.578
 3527SOL    HW112420   3.140  12.048  10.559
 3527SOL    HW212421   3.089  11.922  10.492
 3528SOL     OW12422  12.568   6.467  14.687
 3528SOL    HW112423  12.512   6.522  14.632
 3528SOL    HW212424  12.578   6.518  14.768
 3529SOL     OW12425   4.855   9.387  10.708
 3529SOL    HW112426   4.911   9.407  10.784
 3529SOL    HW212427   4.893   9.308  10.670
 3530SOL     OW12428   7.968  14.353   7.818
 3530SOL    HW112429   7.984  14.437   7.859
 3530SOL    HW212430   8.054  14.322   7.792
 3531SOL     OW12431   1.606   2.268   8.268
 3531SOL    HW112432   1.683   2.315   8.300
 3531SOL    HW212433   1.531   2.321   8.296
 3532SOL     OW12434   0.076  11.086   1.197
 3532SOL    HW112435   0.114  11.002   1.172
 3532SOL    HW212436   0.149  11.134   1.237
 3533SOL     OW12437   1.890   0.824   0.075
 3533SOL    HW112438   1.984   0.805   0.086
 3533SOL    HW212439   1.884   0.919   0.082
 3534SOL     OW12440   9.486  11.623  14.738
 3534SOL    HW112441   9.455  11.678  14.810
 3534SOL    HW212442   9.527  11.548  14.781
 3535SOL     OW12443   3.126   5.954   2.196
 3535SOL    HW112444   3.108   5.861   2.208
 3535SOL    HW212445   3.041   5.992   2.171
 3536SOL     OW12446  13.019   1.068   1.466
 3536SOL    HW112447  12.998   1.112   1.549
 3536SOL    HW212448  12.981   0.980   1.475
 3537SOL     OW12449  13.721  13.462  12.797
 3537SOL    HW112450  13.707  13.556  12.797
 3537SOL    HW212451  13.796  13.449  12.739
 3538SOL     OW12452   2.100   7.031   4.974
 3538SOL    HW112453   2.153   6.961   4.937
 3538SOL    HW212454   2.127   7.036   5.066
 3539SOL     OW12455  12.666  11.994   5.897
 3539SOL    HW112456  12.732  12.056   5.928
 3539SOL    HW212457  12.714  11.931   5.845
 3540SOL     OW12458   9.249  14.477   6.557
 3540SOL    HW112459   9.222  14.527   6.634
 3540SOL    HW212460   9.187  14.503   6.489
 3541SOL     OW12461   2.220  13.157  14.267
 3541SOL    HW112462   2.159  13.226  14.291
 3541SOL    HW212463   2.253  13.182  14.181
 3542SOL     OW12464  12.534   8.618   7.366
 3542SOL    HW112465  12.571   8.599   7.280
 3542SOL    HW212466  12.495   8.535   7.394
 3543SOL     OW12467   0.308   9.336   6.723
 3543SOL    HW112468   0.242   9.364   6.787
 3543SOL    HW212469   0.360   9.270   6.769
 3544SOL     OW12470   7.469   4.809   3.098
 3544SOL    HW112471   7.484   4.850   3.013
 3544SOL    HW212472   7.444   4.719   3.077
 3545SOL     OW12473   1.889  14.479   5.187
 3545SOL    HW112474   1.965  14.520   5.146
 3545SOL    HW212475   1.814  14.526   5.150
 3546SOL     OW12476   8.191   4.312  10.074
 3546SOL    HW112477   8.198   4.404  10.096
 3546SOL    HW212478   8.123   4.278  10.132
 3547SOL     OW12479   8.619   6.345  12.600
 3547SOL    HW112480   8.641   6.432  12.633
 3547SOL    HW212481   8.583   6.361  12.512
 3548SOL     OW12482   5.142   4.927   4.846
 3548SOL    HW112483   5.225   4.889   4.877
 3548SOL    HW212484   5.114   4.986   4.916
 3549SOL     OW12485   8.837   3.967   4.001
 3549SOL    HW112486   8.856   3.961   3.907
 3549SOL    HW212487   8.742   3.964   4.007
 3550SOL     OW12488   4.680   2.382   3.328
 3550SOL    HW112489   4.613   2.434   3.373
 3550SOL    HW212490   4.734   2.346   3.398
 3551SOL     OW12491  11.017  13.785   4.795
 3551SOL    HW112492  10.963  13.795   4.874
 3551SOL    HW212493  10.960  13.814   4.724
 3552SOL     OW12494  14.327   4.157   3.713
 3552SOL    HW112495  14.315   4.139   3.619
 3552SOL    HW212496  14.421   4.173   3.722
 3553SOL     OW12497   4.525   6.383   6.847
 3553SOL    HW112498   4.544   6.290   6.839
 3553SOL    HW212499   4.452   6.388   6.908
 3554SOL     OW12500   8.853   2.271  14.477
 3554SOL    HW112501   8.827   2.313  14.559
 3554SOL    HW212502   8.835   2.178  14.490
 3555SOL     OW12503   2.300  11.991   0.244
 3555SOL    HW112504   2.367  12.025   0.185
 3555SOL    HW212505   2.299  12.052   0.318
 3556SOL     OW12506   9.601   5.459   0.785
 3556SOL    HW112507   9.693   5.473   0.762
 3556SOL    HW212508   9.593   5.494   0.874
 3557SOL     OW12509   4.698   2.584   2.502
 3557SOL    HW112510   4.771   2.627   2.548
 3557SOL    HW212511   4.733   2.566   2.414
 3558SOL     OW12512   1.784  11.672   7.994
 3558SOL    HW112513   1.851  11.669   8.062
 3558SOL    HW212514   1.702  11.660   8.040
 3559SOL     OW12515   9.181  12.805   1.901
 3559SOL    HW112516   9.249  12.766   1.846
 3559SOL    HW212517   9.101  12.757   1.878
 3560SOL     OW12518  11.170  10.619   2.635
 3560SOL    HW112519  11.133  10.581   2.715
 3560SOL    HW212520  11.173  10.546   2.574
 3561SOL     OW12521   3.592   5.206  12.713
 3561SOL    HW112522   3.655   5.150  12.759
 3561SOL    HW212523   3.636   5.228  12.631
 3562SOL     OW12524  10.333   4.573  10.747
 3562SOL    HW112525  10.267   4.504  10.735
 3562SOL    HW212526  10.296   4.631  10.812
 3563SOL     OW12527   3.706   5.311   7.743
 3563SOL    HW112528   3.611   5.306   7.731
 3563SOL    HW212529   3.740   5.236   7.695
 3564SOL     OW12530   1.171   8.651   8.979
 3564SOL    HW112531   1.175   8.639   8.884
 3564SOL    HW212532   1.206   8.739   8.994
 3565SOL     OW12533  13.576  11.816   9.700
 3565SOL    HW112534  13.665  11.824   9.666
 3565SOL    HW212535  13.521  11.818   9.621
 3566SOL     OW12536  11.717   9.147   0.717
 3566SOL    HW112537  11.795   9.159   0.662
 3566SOL    HW212538  11.668   9.077   0.676
 3567SOL     OW12539  12.462  14.784  10.197
 3567SOL    HW112540  12.467   0.004  10.172
 3567SOL    HW212541  12.538  14.770  10.253
 3568SOL     OW12542   2.298   9.523   7.877
 3568SOL    HW112543   2.268   9.535   7.787
 3568SOL    HW212544   2.321   9.611   7.907
 3569SOL     OW12545   9.569   5.112   8.273
 3569SOL    HW112546   9.648   5.066   8.244
 3569SOL    HW212547   9.599   5.202   8.290
 3570SOL     OW12548   5.102  12.925   8.645
 3570SOL    HW112549   5.075  12.835   8.663
 3570SOL    HW212550   5.187  12.934   8.687
 3571SOL     OW12551   7.307   2.020  10.524
 3571SOL    HW112552   7.286   2.038  10.432
 3571SOL    HW212553   7.224   1.991  10.562
 3572SOL     OW12554   4.802  10.917   4.163
 3572SOL    HW112555   4.818  10.954   4.249
 3572SOL    HW212556   4.872  10.853   4.151
 3573SOL     OW12557   0.892  10.615   8.166
 3573SOL    HW112558   0.938  10.565   8.099
 3573SOL    HW212559   0.957  10.630   8.235
 3574SOL     OW12560   4.024   4.856   8.766
 3574SOL    HW112561   4.101   4.805   8.790
 3574SOL    HW212562   3.971   4.796   8.714
 3575SOL     OW12563   1.825  13.631  14.321
 3575SOL    HW112564   1.816  13.536  14.326
 3575SOL    HW212565   1.754  13.664  14.375
 3576SOL     OW12566   5.851   8.685   4.750
 3576SOL    HW112567   5.911   8.739   4.699
 3576SOL    HW212568   5.879   8.697   4.840
 3577SOL     OW12569   4.506   8.737  14.498
 3577SOL    HW112570   4.547   8.705  14.418
 3577SOL    HW212571   4.454   8.812  14.470
 3578SOL     OW12572  11.609   4.383   1.918
 3578SOL    HW112573  11.704   4.384   1.923
 3578SOL    HW212574  11.580   4.376   2.009
 3579SOL     OW12575  12.621   1.003   3.899
 3579SOL    HW112576  12.686   1.026   3.966
 3579SOL    HW212577  12.561   1.078   3.898
 3580SOL     OW12578  12.459  11.488  10.299
 3580SOL    HW112579  12.518  11.486  10.374
 3580SOL    HW212580  12.388  11.428  10.323
 3581SOL     OW12581  10.507   7.731   3.361
 3581SOL    HW112582  10.428   7.678   3.345
 3581SOL    HW212583  10.501   7.802   3.297
 3582SOL     OW12584   2.452   3.379   8.776
 3582SOL    HW112585   2.522   3.321   8.807
 3582SOL    HW212586   2.394   3.387   8.852
 3583SOL     OW12587  12.112  10.175   4.878
 3583SOL    HW112588  12.086  10.267   4.879
 3583SOL    HW212589  12.151  10.160   4.964
 3584SOL     OW12590  14.834   1.591   6.855
 3584SOL    HW112591   0.043   1.557   6.820
 3584SOL    HW212592  14.783   1.615   6.778
 3585SOL     OW12593  10.208   4.457   8.441
 3585SOL    HW112594  10.294   4.475   8.480
 3585SOL    HW212595  10.146   4.501   8.499
 3586SOL     OW12596   6.951  10.386   6.923
 3586SOL    HW112597   6.884  10.429   6.977
 3586SOL    HW212598   6.902  10.344   6.852
 3587SOL     OW12599   8.113   4.273   0.367
 3587SOL    HW112600   8.161   4.350   0.337
 3587SOL    HW212601   8.181   4.212   0.396
 3588SOL     OW12602   9.215  10.852   8.496
 3588SOL    HW112603   9.175  10.813   8.574
 3588SOL    HW212604   9.306  10.822   8.498
 3589SOL     OW12605   5.402  10.448   5.408
 3589SOL    HW112606   5.328  10.405   5.365
 3589SOL    HW212607   5.369  10.534   5.431
 3590SOL     OW12608   0.487  13.927  11.058
 3590SOL    HW112609   0.415  13.951  11.117
 3590SOL    HW212610   0.449  13.930  10.971
 3591SOL     OW12611  11.460  12.401   8.247
 3591SOL    HW112612  11.454  12.417   8.153
 3591SOL    HW212613  11.553  12.386   8.263
 3592SOL     OW12614  12.257   5.792   2.787
 3592SOL    HW112615  12.259   5.849   2.711
 3592SOL    HW212616  12.277   5.849   2.861
 3593SOL     OW12617   4.874  14.585  10.942
 3593SOL    HW112618   4.920  14.502  10.930
 3593SOL    HW212619   4.942  14.647  10.968
 3594SOL     OW12620  12.678   0.312   6.631
 3594SOL    HW112621  12.675   0.244   6.698
 3594SOL    HW212622  12.599   0.364   6.645
 3595SOL     OW12623  10.744   2.413   3.864
 3595SOL    HW112624  10.698   2.330   3.851
 3595SOL    HW212625  10.829   2.399   3.821
 3596SOL     OW12626   8.524   8.820  14.562
 3596SOL    HW112627   8.471   8.863  14.628
 3596SOL    HW212628   8.544   8.889  14.498
 3597SOL     OW12629   2.730   5.026   1.652
 3597SOL    HW112630   2.732   4.978   1.570
 3597SOL    HW212631   2.818   5.062   1.662
 3598SOL     OW12632   4.042  14.596   1.074
 3598SOL    HW112633   4.066  14.566   0.986
 3598SOL    HW212634   3.962  14.548   1.095
 3599SOL     OW12635  11.841   5.037  13.230
 3599SOL    HW112636  11.753   5.073  13.224
 3599SOL    HW212637  11.839   4.960  13.173
 3600SOL     OW12638  10.013   8.222   2.387
 3600SOL    HW112639  10.084   8.252   2.330
 3600SOL    HW212640   9.982   8.301   2.430
 3601SOL     OW12641   1.643   4.316   3.394
 3601SOL    HW112642   1.649   4.286   3.304
 3601SOL    HW212643   1.725   4.363   3.409
 3602SOL     OW12644   2.958  13.890   5.457
 3602SOL    HW112645   2.968  13.795   5.456
 3602SOL    HW212646   3.026  13.922   5.397
 3603SOL     OW12647  12.947   8.832   4.491
 3603SOL    HW112648  13.015   8.894   4.463
 3603SOL    HW212649  12.972   8.749   4.450
 3604SOL     OW12650  14.168   3.446   8.577
 3604SOL    HW112651  14.132   3.498   8.505
 3604SOL    HW212652  14.091   3.419   8.627
 3605SOL     OW12653  11.006   5.298   0.481
 3605SOL    HW112654  11.026   5.204   0.476
 3605SOL    HW212655  11.081   5.340   0.441
 3606SOL     OW12656   3.389   5.081  11.753
 3606SOL    HW112657   3.424   5.033  11.678
 3606SOL    HW212658   3.448   5.157  11.761
 3607SOL     OW12659   9.316  13.641   8.881
 3607SOL    HW112660   9.248  13.666   8.944
 3607SOL    HW212661   9.388  13.701   8.899
 3608SOL     OW12662  13.328  14.162   2.226
 3608SOL    HW112663  13.236  14.175   2.248
 3608SOL    HW212664  13.362  14.109   2.299
 3609SOL     OW12665   4.923  13.430   6.485
 3609SOL    HW112666   4.840  13.477   6.474
 3609SOL    HW212667   4.963  13.471   6.562
 3610SOL     OW12668   8.478   6.822   5.578
 3610SOL    HW112669   8.488   6.789   5.667
 3610SOL    HW212670   8.519   6.908   5.579
 3611SOL     OW12671   2.366   8.064  14.211
 3611SOL    HW112672   2.402   7.981  14.241
 3611SOL    HW212673   2.332   8.047  14.123
 3612SOL     OW12674  13.134  13.146   3.620
 3612SOL    HW112675  13.140  13.212   3.689
 3612SOL    HW212676  13.168  13.189   3.542
 3613SOL     OW12677   6.244   7.534   2.392
 3613SOL    HW112678   6.258   7.601   2.459
 3613SOL    HW212679   6.332   7.502   2.371
 3614SOL     OW12680  10.855   9.568   0.317
 3614SOL    HW112681  10.897   9.654   0.310
 3614SOL    HW212682  10.924   9.510   0.349
 3615SOL     OW12683  13.661  13.211   6.172
 3615SOL    HW112684  13.589  13.269   6.196
 3615SOL    HW212685  13.620  13.125   6.163
 3616SOL     OW12686   3.322   7.684   6.451
 3616SOL    HW112687   3.299   7.658   6.361
 3616SOL    HW212688   3.324   7.602   6.500
 3617SOL     OW12689   1.069   0.909  13.001
 3617SOL    HW112690   1.123   0.835  13.026
 3617SOL    HW212691   1.036   0.887  12.914
 3618SOL     OW12692  14.480   6.408   8.584
 3618SOL    HW112693  14.492   6.467   8.510
 3618SOL    HW212694  14.567   6.404   8.625
 3619SOL     OW12695  13.142   2.882   5.472
 3619SOL    HW112696  13.181   2.886   5.385
 3619SOL    HW212697  13.105   2.793   5.478
 3620SOL     OW12698  14.628  13.509   0.175
 3620SOL    HW112699  14.564  13.510   0.246
 3620SOL    HW212700  14.580  13.542   0.099
 3621SOL     OW12701  14.534   5.242  13.783
 3621SOL    HW112702  14.464   5.250  13.719
 3621SOL    HW212703  14.589   5.320  13.769
 3622SOL     OW12704   9.291   5.455   0.897
 3622SOL    HW112705   9.287   5.476   0.804
 3622SOL    HW212706   9.295   5.540   0.940
 3623SOL     OW12707   3.365   6.533   9.197
 3623SOL    HW112708   3.409   6.460   9.241
 3623SOL    HW212709   3.330   6.587   9.268
 3624SOL     OW12710   6.004   4.257   9.862
 3624SOL    HW112711   6.036   4.343   9.891
 3624SOL    HW212712   6.051   4.194   9.917
 3625SOL     OW12713  13.183  14.201   9.647
 3625SOL    HW112714  13.097  14.198   9.688
 3625SOL    HW212715  13.217  14.111   9.655
 3626SOL     OW12716   3.613   4.603   6.479
 3626SOL    HW112717   3.657   4.523   6.507
 3626SOL    HW212718   3.602   4.654   6.559
 3627SOL     OW12719   0.572   3.789   2.160
 3627SOL    HW112720   0.632   3.718   2.183
 3627SOL    HW212721   0.514   3.797   2.236
 3628SOL     OW12722   3.740   7.196   7.480
 3628SOL    HW112723   3.699   7.279   7.455
 3628SOL    HW212724   3.780   7.214   7.565
 3629SOL     OW12725   1.857   6.226   6.680
 3629SOL    HW112726   1.785   6.284   6.703
 3629SOL    HW212727   1.936   6.279   6.692
 3630SOL     OW12728   9.846   6.696  10.654
 3630SOL    HW112729   9.820   6.764  10.715
 3630SOL    HW212730   9.918   6.651  10.697
 3631SOL     OW12731   3.548   1.132  13.384
 3631SOL    HW112732   3.474   1.187  13.409
 3631SOL    HW212733   3.547   1.132  13.288
 3632SOL     OW12734   4.960   9.992  14.812
 3632SOL    HW112735   4.948  10.062  14.748
 3632SOL    HW212736   5.039   9.946  14.783
 3633SOL     OW12737   2.075  10.091   6.090
 3633SOL    HW112738   2.141  10.051   6.147
 3633SOL    HW212739   1.996  10.040   6.106
 3634SOL     OW12740   1.598  13.582   9.984
 3634SOL    HW112741   1.572  13.673   9.974
 3634SOL    HW212742   1.596  13.546   9.895
 3635SOL     OW12743   2.972  14.432   0.780
 3635SOL    HW112744   3.008  14.430   0.691
 3635SOL    HW212745   3.037  14.387   0.833
 3636SOL     OW12746  12.129   5.391  13.503
 3636SOL    HW112747  12.187   5.423  13.572
 3636SOL    HW212748  12.119   5.297  13.521
 3637SOL     OW12749   0.852   3.097   6.790
 3637SOL    HW112750   0.929   3.083   6.845
 3637SOL    HW212751   0.785   3.130   6.850
 3638SOL     OW12752  13.734  14.345   3.466
 3638SOL    HW112753  13.649  14.390   3.469
 3638SOL    HW212754  13.784  14.393   3.400
 3639SOL     OW12755   5.755   5.599   5.597
 3639SOL    HW112756   5.785   5.557   5.516
 3639SOL    HW212757   5.752   5.528   5.661
 3640SOL     OW12758   9.898   8.440   3.745
 3640SOL    HW112759   9.898   8.371   3.811
 3640SOL    HW212760   9.946   8.512   3.786
 3641SOL     OW12761  11.858   3.555   2.527
 3641SOL    HW112762  11.774   3.536   2.568
 3641SOL    HW212763  11.908   3.474   2.537
 3642SOL     OW12764   8.111   3.199   4.985
 3642SOL    HW112765   8.194   3.196   4.937
 3642SOL    HW212766   8.076   3.110   4.977
 3643SOL     OW12767   0.091   9.436   6.894
 3643SOL    HW112768   0.159   9.475   6.949
 3643SOL    HW212769   0.028   9.398   6.955
 3644SOL     OW12770  10.027  12.465   9.523
 3644SOL    HW112771  10.032  12.506   9.609
 3644SOL    HW212772  10.006  12.373   9.541
 3645SOL     OW12773   9.274   4.900  10.575
 3645SOL    HW112774   9.266   4.902  10.480
 3645SOL    HW212775   9.315   4.815  10.594
 3646SOL     OW12776   5.579  12.188  12.424
 3646SOL    HW112777   5.544  12.255  12.482
 3646SOL    HW212778   5.572  12.226  12.336
 3647SOL     OW12779   7.464  14.054   5.882
 3647SOL    HW112780   7.389  14.051   5.941
 3647SOL    HW212781   7.519  13.981   5.909
 3648SOL     OW12782   5.604  14.383  12.498
 3648SOL    HW112783   5.518  14.342  12.491
 3648SOL    HW212784   5.642  14.345  12.577
 3649SOL     OW12785   7.648   1.453   9.423
 3649SOL    HW112786   7.572   1.483   9.374
 3649SOL    HW212787   7.713   1.522   9.411
 3650SOL     OW12788   0.407   3.683   2.969
 3650SOL    HW112789   0.441   3.694   3.058
 3650SOL    HW212790   0.446   3.755   2.919
 3651SOL     OW12791   3.105   1.341   1.931
 3651SOL    HW112792   3.112   1.335   2.026
 3651SOL    HW212793   3.149   1.423   1.909
 3652SOL     OW12794  14.519   5.414  14.620
 3652SOL    HW112795  14.455   5.386  14.685
 3652SOL    HW212796  14.514   5.347  14.551
 3653SOL     OW12797   1.730   2.529  12.694
 3653SOL    HW112798   1.717   2.499  12.784
 3653SOL    HW212799   1.645   2.516  12.652
 3654SOL     OW12800   3.030   8.206  14.161
 3654SOL    HW112801   3.027   8.292  14.201
 3654SOL    HW212802   3.115   8.170  14.187
 3655SOL     OW12803   1.628  13.901   0.168
 3655SOL    HW112804   1.649  13.945   0.085
 3655SOL    HW212805   1.633  13.808   0.148
 3656SOL     OW12806   1.401  14.580   9.714
 3656SOL    HW112807   1.471  14.642   9.693
 3656SOL    HW212808   1.328  14.635   9.741
 3657SOL     OW12809   7.430   1.093   9.723
 3657SOL    HW112810   7.456   1.022   9.664
 3657SOL    HW212811   7.437   1.055   9.811
 3658SOL     OW12812   7.002   8.787  13.693
 3658SOL    HW112813   7.073   8.851  13.693
 3658SOL    HW212814   7.037   8.712  13.646
 3659SOL     OW12815   3.661   5.574   8.803
 3659SOL    HW112816   3.606   5.652   8.791
 3659SOL    HW212817   3.598   5.502   8.806
 3660SOL     OW12818  14.271  12.645   4.518
 3660SOL    HW112819  14.269  12.600   4.434
 3660SOL    HW212820  14.186  12.624   4.558
 3661SOL     OW12821  13.618   1.721  11.966
 3661SOL    HW112822  13.640   1.629  11.947
 3661SOL    HW212823  13.563   1.716  12.044
 3662SOL     OW12824  11.716  13.714  12.463
 3662SOL    HW112825  11.756  13.637  12.424
 3662SOL    HW212826  11.790  13.769  12.490
 3663SOL     OW12827   8.098  14.693  11.474
 3663SOL    HW112828   8.117  14.718  11.384
 3663SOL    HW212829   8.070  14.774  11.516
 3664SOL     OW12830  14.463   1.616   5.085
 3664SOL    HW112831  14.379   1.653   5.111
 3664SOL    HW212832  14.448   1.522   5.082
 3665SOL     OW12833   1.811   9.733   7.121
 3665SOL    HW112834   1.896   9.706   7.085
 3665SOL    HW212835   1.832   9.781   7.201
 3666SOL     OW12836   7.979  13.857   9.865
 3666SOL    HW112837   7.902  13.820   9.909
 3666SOL    HW212838   7.979  13.949   9.891
 3667SOL     OW12839  11.537   8.443   7.364
 3667SOL    HW112840  11.461   8.495   7.337
 3667SOL    HW212841  11.565   8.482   7.446
 3668SOL     OW12842  14.839  10.983   9.123
 3668SOL    HW112843  14.831  10.890   9.145
 3668SOL    HW212844   0.021  10.985   9.045
 3669SOL     OW12845   3.343  12.845   3.050
 3669SOL    HW112846   3.382  12.792   3.120
 3669SOL    HW212847   3.277  12.898   3.094
 3670SOL     OW12848   4.481   6.873  11.380
 3670SOL    HW112849   4.391   6.860  11.352
 3670SOL    HW212850   4.498   6.801  11.441
 3671SOL     OW12851   6.907   2.570  11.479
 3671SOL    HW112852   6.867   2.529  11.555
 3671SOL    HW212853   6.844   2.555  11.408
 3672SOL     OW12854  13.225   9.639   4.154
 3672SOL    HW112855  13.245   9.546   4.164
 3672SOL    HW212856  13.136   9.640   4.120
 3673SOL     OW12857  10.164   6.989   9.465
 3673SOL    HW112858  10.239   7.018   9.413
 3673SOL    HW212859  10.132   6.911   9.419
 3674SOL     OW12860   8.145   5.429   4.041
 3674SOL    HW112861   8.082   5.446   4.110
 3674SOL    HW212862   8.140   5.505   3.984
 3675SOL     OW12863  12.220  13.815   5.135
 3675SOL    HW112864  12.219  13.751   5.206
 3675SOL    HW212865  12.128  13.835   5.119
 3676SOL     OW12866  12.579  14.838   2.316
 3676SOL    HW112867  12.593   0.056   2.341
 3676SOL    HW212868  12.517  14.804   2.380
 3677SOL     OW12869  12.362  13.236  14.813
 3677SOL    HW112870  12.353  13.238   0.035
 3677SOL    HW212871  12.354  13.327  14.786
 3678SOL     OW12872  14.535  10.077   4.215
 3678SOL    HW112873  14.522  10.116   4.301
 3678SOL    HW212874  14.496   9.990   4.221
 3679SOL     OW12875  11.524   3.214   6.693
 3679SOL    HW112876  11.593   3.157   6.661
 3679SOL    HW212877  11.521   3.286   6.630
 3680SOL     OW12878  13.056  11.315   4.622
 3680SOL    HW112879  12.971  11.272   4.623
 3680SOL    HW212880  13.069  11.347   4.711
 3681SOL     OW12881  13.832   8.681  14.805
 3681SOL    HW112882  13.754   8.711  14.759
 3681SOL    HW212883  13.817   8.587  14.819
 3682SOL     OW12884   6.572   4.085   8.676
 3682SOL    HW112885   6.649   4.059   8.726
 3682SOL    HW212886   6.564   4.020   8.607
 3683SOL     OW12887   3.702   5.312   5.176
 3683SOL    HW112888   3.684   5.228   5.217
 3683SOL    HW212889   3.781   5.297   5.124
 3684SOL     OW12890   6.743   8.970   6.829
 3684SOL    HW112891   6.830   8.937   6.806
 3684SOL    HW212892   6.760   9.054   6.871
 3685SOL     OW12893  12.118   7.611   1.086
 3685SOL    HW112894  12.143   7.617   1.178
 3685SOL    HW212895  12.147   7.524   1.058
 3686SOL     OW12896   3.818   3.106  11.996
 3686SOL    HW112897   3.780   3.018  11.989
 3686SOL    HW212898   3.797   3.134  12.085
 3687SOL     OW12899   6.832   0.569   4.266
 3687SOL    HW112900   6.820   0.625   4.342
 3687SOL    HW212901   6.883   0.495   4.298
 3688SOL     OW12902   0.693   0.643  12.585
 3688SOL    HW112903   0.610   0.655  12.538
 3688SOL    HW212904   0.758   0.630  12.516
 3689SOL     OW12905   4.540  10.570   4.219
 3689SOL    HW112906   4.497  10.624   4.152
 3689SOL    HW212907   4.488  10.490   4.221
 3690SOL     OW12908   6.833  14.479  14.117
 3690SOL    HW112909   6.809  14.470  14.210
 3690SOL    HW212910   6.760  14.527  14.078
 3691SOL     OW12911  13.835  10.777  10.818
 3691SOL    HW112912  13.930  10.777  10.812
 3691SOL    HW212913  13.808  10.864  10.790
 3692SOL     OW12914  12.101  14.526   6.339
 3692SOL    HW112915  12.182  14.536   6.289
 3692SOL    HW212916  12.123  14.559   6.426
 3693SOL     OW12917  12.711   2.050   4.126
 3693SOL    HW112918  12.618   2.052   4.146
 3693SOL    HW212919  12.742   1.966   4.161
 3694SOL     OW12920   7.731   9.370  12.460
 3694SOL    HW112921   7.640   9.376  12.489
 3694SOL    HW212922   7.728   9.308  12.387
 3695SOL     OW12923   6.326  11.051   7.158
 3695SOL    HW112924   6.348  10.980   7.099
 3695SOL    HW212925   6.388  11.121   7.136
 3696SOL     OW12926  11.036   2.686   7.730
 3696SOL    HW112927  10.979   2.618   7.767
 3696SOL    HW212928  11.015   2.687   7.637
 3697SOL     OW12929   9.216   6.629   3.580
 3697SOL    HW112930   9.258   6.546   3.557
 3697SOL    HW212931   9.188   6.666   3.497
 3698SOL     OW12932  10.968  12.812   5.300
 3698SOL    HW112933  10.998  12.800   5.390
 3698SOL    HW212934  10.874  12.824   5.308
 3699SOL     OW12935  14.485   2.755   6.157
 3699SOL    HW112936  14.443   2.821   6.213
 3699SOL    HW212937  14.574   2.789   6.145
 3700SOL     OW12938  10.549  13.496   5.003
 3700SOL    HW112939  10.527  13.462   5.089
 3700SOL    HW212940  10.640  13.526   5.012
 3701SOL     OW12941   8.884   4.108   7.587
 3701SOL    HW112942   8.967   4.112   7.540
 3701SOL    HW212943   8.847   4.023   7.562
 3702SOL     OW12944  12.685   1.643  13.804
 3702SOL    HW112945  12.774   1.672  13.822
 3702SOL    HW212946  12.656   1.601  13.886
 3703SOL     OW12947  13.027  13.899  11.185
 3703SOL    HW112948  13.000  13.819  11.230
 3703SOL    HW212949  12.986  13.970  11.235
 3704SOL     OW12950  11.162  13.950   0.425
 3704SOL    HW112951  11.142  13.895   0.350
 3704SOL    HW212952  11.238  13.907   0.466
 3705SOL     OW12953   8.125   6.942   1.623
 3705SOL    HW112954   8.050   6.900   1.581
 3705SOL    HW212955   8.192   6.874   1.625
 3706SOL     OW12956   1.868  12.678  11.498
 3706SOL    HW112957   1.796  12.688  11.436
 3706SOL    HW212958   1.897  12.587  11.486
 3707SOL     OW12959   4.238   5.152   5.247
 3707SOL    HW112960   4.261   5.098   5.170
 3707SOL    HW212961   4.284   5.110   5.320
 3708SOL     OW12962   5.447   1.034   6.106
 3708SOL    HW112963   5.421   1.080   6.026
 3708SOL    HW212964   5.410   0.946   6.096
 3709SOL     OW12965   1.758   5.655   1.180
 3709SOL    HW112966   1.715   5.580   1.221
 3709SOL    HW212967   1.731   5.730   1.233
 3710SOL     OW12968  13.873   8.877  10.431
 3710SOL    HW112969  13.935   8.852  10.499
 3710SOL    HW212970  13.793   8.898  10.478
 3711SOL     OW12971  14.314   4.587   2.065
 3711SOL    HW112972  14.224   4.568   2.039
 3711SOL    HW212973  14.367   4.561   1.990
 3712SOL     OW12974   8.081   3.769   1.636
 3712SOL    HW112975   8.099   3.722   1.555
 3712SOL    HW212976   8.098   3.861   1.614
 3713SOL     OW12977   9.012   2.607  13.700
 3713SOL    HW112978   9.094   2.559  13.691
 3713SOL    HW212979   8.950   2.560  13.645
 3714SOL     OW12980   8.653   0.413   2.991
 3714SOL    HW112981   8.739   0.374   2.974
 3714SOL    HW212982   8.615   0.359   3.061
 3715SOL     OW12983   4.705  10.545  12.850
 3715SOL    HW112984   4.730  10.624  12.898
 3715SOL    HW212985   4.615  10.562  12.821
 3716SOL     OW12986   8.130   6.566   2.356
 3716SOL    HW112987   8.050   6.614   2.336
 3716SOL    HW212988   8.162   6.605   2.437
 3717SOL     OW12989   1.052   1.458   1.914
 3717SOL    HW112990   1.036   1.392   1.846
 3717SOL    HW212991   1.036   1.412   1.996
 3718SOL     OW12992   7.839   2.139  12.319
 3718SOL    HW112993   7.807   2.227  12.297
 3718SOL    HW212994   7.909   2.154  12.382
 3719SOL     OW12995  10.038   1.600   4.331
 3719SOL    HW112996  10.023   1.673   4.392
 3719SOL    HW212997   9.961   1.544   4.341
 3720SOL     OW12998  10.291  14.735   3.219
 3720SOL    HW112999  10.222  14.756   3.282
 3720SOL    HW213000  10.325  14.650   3.249
 3721SOL     OW13001   9.754   9.870  12.193
 3721SOL    HW113002   9.767   9.813  12.117
 3721SOL    HW213003   9.704   9.818  12.254
 3722SOL     OW13004   2.420   0.095  14.850
 3722SOL    HW113005   2.396   0.071   0.066
 3722SOL    HW213006   2.516   0.085  14.848
 3723SOL     OW13007  11.948  11.817   5.784
 3723SOL    HW113008  11.895  11.896   5.774
 3723SOL    HW213009  12.038  11.848   5.791
 3724SOL     OW13010   9.273   9.611  12.231
 3724SOL    HW113011   9.201   9.653  12.277
 3724SOL    HW213012   9.230   9.558  12.163
 3725SOL     OW13013   9.435   3.869   4.351
 3725SOL    HW113014   9.438   3.959   4.382
 3725SOL    HW213015   9.463   3.817   4.427
 3726SOL     OW13016   1.089   7.039   7.776
 3726SOL    HW113017   1.005   7.008   7.741
 3726SOL    HW213018   1.152   6.973   7.749
 3727SOL     OW13019  11.417  12.469   4.780
 3727SOL    HW113020  11.442  12.561   4.785
 3727SOL    HW213021  11.390  12.457   4.689
 3728SOL     OW13022   8.089   9.870   3.747
 3728SOL    HW113023   8.132   9.861   3.662
 3728SOL    HW213024   7.996   9.881   3.726
 3729SOL     OW13025   2.993   1.196   0.709
 3729SOL    HW113026   3.068   1.250   0.687
 3729SOL    HW213027   2.951   1.178   0.625
 3730SOL     OW13028   7.262  10.025   7.685
 3730SOL    HW113029   7.277  10.095   7.621
 3730SOL    HW213030   7.330   9.960   7.666
 3731SOL     OW13031   3.888   3.889   1.129
 3731SOL    HW113032   3.808   3.839   1.144
 3731SOL    HW213033   3.857   3.978   1.109
 3732SOL     OW13034  12.354   3.224   0.122
 3732SOL    HW113035  12.350   3.316   0.095
 3732SOL    HW213036  12.266   3.204   0.154
 3733SOL     OW13037   8.318   0.694  13.795
 3733SOL    HW113038   8.370   0.615  13.809
 3733SOL    HW213039   8.365   0.762  13.842
 3734SOL     OW13040  11.028   9.961   5.697
 3734SOL    HW113041  11.062   9.902   5.763
 3734SOL    HW213042  11.062  10.047   5.722
 3735SOL     OW13043   8.465   8.790  12.505
 3735SOL    HW113044   8.371   8.773  12.501
 3735SOL    HW213045   8.495   8.744  12.584
 3736SOL     OW13046   5.949  11.779  12.172
 3736SOL    HW113047   5.927  11.745  12.258
 3736SOL    HW213048   5.941  11.874  12.181
 3737SOL     OW13049  13.148  13.540  10.717
 3737SOL    HW113050  13.229  13.523  10.669
 3737SOL    HW213051  13.165  13.623  10.763
 3738SOL     OW13052   9.104   2.962   2.870
 3738SOL    HW113053   9.198   2.971   2.887
 3738SOL    HW213054   9.099   2.935   2.778
 3739SOL     OW13055   4.013   3.237   6.438
 3739SOL    HW113056   4.089   3.238   6.379
 3739SOL    HW213057   3.967   3.156   6.415
 3740SOL     OW13058  14.465   2.727  11.340
 3740SOL    HW113059  14.432   2.707  11.428
 3740SOL    HW213060  14.536   2.790  11.355
 3741SOL     OW13061   1.542   8.902  12.440
 3741SOL    HW113062   1.494   8.821  12.419
 3741SOL    HW213063   1.601   8.877  12.511
 3742SOL     OW13064   3.943   6.665  10.004
 3742SOL    HW113065   3.870   6.701  10.053
 3742SOL    HW213066   3.931   6.570  10.009
 3743SOL     OW13067  12.309  10.663  13.821
 3743SOL    HW113068  12.388  10.675  13.875
 3743SOL    HW213069  12.245  10.623  13.880
 3744SOL     OW13070   5.123  11.079   1.992
 3744SOL    HW113071   5.175  11.155   2.019
 3744SOL    HW213072   5.053  11.116   1.937
 3745SOL     OW13073   1.092   6.713   7.344
 3745SOL    HW113074   1.079   6.633   7.293
 3745SOL    HW213075   1.027   6.708   7.414
 3746SOL     OW13076  12.698  14.523   0.942
 3746SOL    HW113077  12.618  14.564   0.974
 3746SOL    HW213078  12.746  14.498   1.021
 3747SOL     OW13079  14.645   4.385   8.383
 3747SOL    HW113080  14.657   4.380   8.477
 3747SOL    HW213081  14.612   4.299   8.358
 3748SOL     OW13082  12.842  13.091   6.167
 3748SOL    HW113083  12.809  13.024   6.227
 3748SOL    HW213084  12.933  13.067   6.152
 3749SOL     OW13085   9.768   6.080  12.172
 3749SOL    HW113086   9.848   6.030  12.191
 3749SOL    HW213087   9.778   6.105  12.080
 3750SOL     OW13088  11.545  12.958   2.701
 3750SOL    HW113089  11.536  13.008   2.620
 3750SOL    HW213090  11.625  12.992   2.741
 3751SOL     OW13091  14.184  11.939   7.951
 3751SOL    HW113092  14.230  11.910   8.030
 3751SOL    HW213093  14.230  11.895   7.879
 3752SOL     OW13094   1.757  10.358  11.600
 3752SOL    HW113095   1.738  10.434  11.544
 3752SOL    HW213096   1.682  10.352  11.658
 3753SOL     OW13097   5.647   7.949  13.214
 3753SOL    HW113098   5.559   7.954  13.250
 3753SOL    HW213099   5.644   7.877  13.152
 3754SOL     OW13100  10.115  13.405   0.027
 3754SOL    HW113101  10.116  13.311   0.046
 3754SOL    HW213102  10.166  13.444   0.098
 3755SOL     OW13103  13.775   0.563   2.717
 3755SOL    HW113104  13.751   0.651   2.745
 3755SOL    HW213105  13.868   0.555   2.738
 3756SOL     OW13106  12.064   8.785  14.324
 3756SOL    HW113107  12.103   8.701  14.300
 3756SOL    HW213108  11.970   8.774  14.307
 3757SOL     OW13109  10.847   4.881   8.445
 3757SOL    HW113110  10.940   4.895   8.430
 3757SOL    HW213111  10.836   4.786   8.443
 3758SOL     OW13112  12.138  14.829  13.703
 3758SOL    HW113113  12.146  14.750  13.649
 3758SOL    HW213114  12.051  14.863  13.683
 3759SOL     OW13115  13.726   8.364   1.592
 3759SOL    HW113116  13.769   8.301   1.534
 3759SOL    HW213117  13.776   8.358   1.674
 3760SOL     OW13118   0.128   6.689   2.114
 3760SOL    HW113119   0.182   6.736   2.178
 3760SOL    HW213120   0.042   6.683   2.157
 3761SOL     OW13121   7.668   5.600  10.738
 3761SOL    HW113122   7.663   5.651  10.820
 3761SOL    HW213123   7.699   5.663  10.673
 3762SOL     OW13124  14.670   4.477   8.126
 3762SOL    HW113125  14.651   4.570   8.137
 3762SOL    HW213126  14.666   4.442   8.215
 3763SOL     OW13127   2.737  14.675   4.062
 3763SOL    HW113128   2.701  14.756   4.099
 3763SOL    HW213129   2.689  14.606   4.108
 3764SOL     OW13130  12.085   1.232   3.935
 3764SOL    HW113131  12.065   1.325   3.939
 3764SOL    HW213132  12.033   1.200   3.861
 3765SOL     OW13133  11.325   9.544   9.168
 3765SOL    HW113134  11.262   9.616   9.170
 3765SOL    HW213135  11.278   9.471   9.128
 3766SOL     OW13136  14.108  14.604   1.367
 3766SOL    HW113137  14.178  14.645   1.317
 3766SOL    HW213138  14.039  14.670   1.371
 3767SOL     OW13139   7.662  12.064   7.838
 3767SOL    HW113140   7.592  12.097   7.893
 3767SOL    HW213141   7.660  11.969   7.850
 3768SOL     OW13142   1.713   6.664   5.897
 3768SOL    HW113143   1.730   6.733   5.833
 3768SOL    HW213144   1.759   6.693   5.976
 3769SOL     OW13145   1.811   5.456   6.899
 3769SOL    HW113146   1.837   5.406   6.821
 3769SOL    HW213147   1.827   5.547   6.875
 3770SOL     OW13148   5.085   7.270   6.210
 3770SOL    HW113149   5.136   7.302   6.284
 3770SOL    HW213150   5.109   7.328   6.138
 3771SOL     OW13151  10.996   5.498   8.421
 3771SOL    HW113152  10.962   5.561   8.358
 3771SOL    HW213153  10.991   5.543   8.505
 3772SOL     OW13154   3.399   1.414  14.664
 3772SOL    HW113155   3.494   1.401  14.673
 3772SOL    HW213156   3.383   1.501  14.702
 3773SOL     OW13157  13.089   6.916  12.540
 3773SOL    HW113158  13.114   6.940  12.451
 3773SOL    HW213159  13.093   6.998  12.589
 3774SOL     OW13160   7.584  10.115   0.290
 3774SOL    HW113161   7.526  10.147   0.359
 3774SOL    HW213162   7.668  10.101   0.333
 3775SOL     OW13163   5.048  12.649  13.070
 3775SOL    HW113164   5.080  12.686  12.988
 3775SOL    HW213165   5.048  12.723  13.131
 3776SOL     OW13166   7.328   5.668   7.226
 3776SOL    HW113167   7.400   5.627   7.178
 3776SOL    HW213168   7.252   5.612   7.207
 3777SOL     OW13169   5.216   1.777   0.948
 3777SOL    HW113170   5.282   1.847   0.941
 3777SOL    HW213171   5.250   1.707   0.893
 3778SOL     OW13172   6.447   7.846   4.839
 3778SOL    HW113173   6.530   7.820   4.877
 3778SOL    HW213174   6.436   7.938   4.866
 3779SOL     OW13175   5.304  13.300   6.433
 3779SOL    HW113176   5.283  13.390   6.460
 3779SOL    HW213177   5.376  13.309   6.371
 3780SOL     OW13178  13.015  14.873   6.821
 3780SOL    HW113179  12.996   0.083   6.865
 3780SOL    HW213180  13.012   0.022   6.728
 3781SOL     OW13181  11.429   3.361  12.112
 3781SOL    HW113182  11.341   3.383  12.144
 3781SOL    HW213183  11.413   3.311  12.031
 3782SOL     OW13184   1.417  11.910  10.934
 3782SOL    HW113185   1.359  11.835  10.950
 3782SOL    HW213186   1.483  11.877  10.872
 3783SOL     OW13187   7.057  11.953   2.434
 3783SOL    HW113188   7.150  11.971   2.449
 3783SOL    HW213189   7.011  12.014   2.491
 3784SOL     OW13190   1.738  14.371  10.629
 3784SOL    HW113191   1.722  14.287  10.672
 3784SOL    HW213192   1.652  14.400  10.600
 3785SOL     OW13193   2.623   3.423   9.044
 3785SOL    HW113194   2.529   3.405   9.039
 3785SOL    HW213195   2.633   3.509   9.003
 3786SOL     OW13196  10.646   2.700   1.362
 3786SOL    HW113197  10.739   2.722   1.354
 3786SOL    HW213198  10.644   2.610   1.393
 3787SOL     OW13199  12.650   3.172   3.555
 3787SOL    HW113200  12.616   3.200   3.469
 3787SOL    HW213201  12.573   3.138   3.601
 3788SOL     OW13202   0.066   8.372   0.591
 3788SOL    HW113203   0.131   8.434   0.557
 3788SOL    HW213204   0.001   8.427   0.634
 3789SOL     OW13205   9.805   6.357   9.077
 3789SOL    HW113206   9.738   6.296   9.046
 3789SOL    HW213207   9.756   6.436   9.101
 3790SOL     OW13208   8.918  14.513   6.137
 3790SOL    HW113209   8.949  14.592   6.092
 3790SOL    HW213210   8.915  14.446   6.069
 3791SOL     OW13211   2.856  14.850   1.086
 3791SOL    HW113212   2.890   0.018   1.007
 3791SOL    HW213213   2.933  14.842   1.143
 3792SOL     OW13214   5.460   2.331   5.346
 3792SOL    HW113215   5.513   2.289   5.413
 3792SOL    HW213216   5.373   2.294   5.357
 3793SOL     OW13217  11.174  13.154  13.112
 3793SOL    HW113218  11.108  13.213  13.149
 3793SOL    HW213219  11.174  13.079  13.172
 3794SOL     OW13220  10.751   4.950   3.457
 3794SOL    HW113221  10.667   4.967   3.415
 3794SOL    HW213222  10.747   4.996   3.540
 3795SOL     OW13223  13.522   6.569  12.687
 3795SOL    HW113224  13.522   6.635  12.757
 3795SOL    HW213225  13.466   6.499  12.720
 3796SOL     OW13226  12.905  14.315   1.558
 3796SOL    HW113227  12.977  14.259   1.528
 3796SOL    HW213228  12.927  14.402   1.527
 3797SOL     OW13229   2.387   1.437  13.970
 3797SOL    HW113230   2.369   1.436  14.064
 3797SOL    HW213231   2.344   1.358  13.937
 3798SOL     OW13232   9.709   0.322   9.568
 3798SOL    HW113233   9.638   0.318   9.632
 3798SOL    HW213234   9.708   0.413   9.537
 3799SOL     OW13235   8.133   6.838   2.139
 3799SOL    HW113236   8.148   6.823   2.232
 3799SOL    HW213237   8.220   6.841   2.100
 3800SOL     OW13238   9.690   1.529   4.609
 3800SOL    HW113239   9.638   1.589   4.662
 3800SOL    HW213240   9.668   1.551   4.519
 3801SOL     OW13241   3.610   7.906   8.818
 3801SOL    HW113242   3.653   7.847   8.879
 3801SOL    HW213243   3.570   7.848   8.753
 3802SOL     OW13244   8.398   9.579   3.159
 3802SOL    HW113245   8.448   9.625   3.092
 3802SOL    HW213246   8.307   9.598   3.140
 3803SOL     OW13247   9.593   4.251   3.885
 3803SOL    HW113248   9.677   4.286   3.859
 3803SOL    HW213249   9.615   4.172   3.936
 3804SOL     OW13250   9.098   3.815   6.048
 3804SOL    HW113251   9.070   3.732   6.010
 3804SOL    HW213252   9.063   3.881   5.989
 3805SOL     OW13253   0.687   7.699   3.906
 3805SOL    HW113254   0.763   7.644   3.927
 3805SOL    HW213255   0.724   7.779   3.870
 3806SOL     OW13256  13.473   2.214   9.592
 3806SOL    HW113257  13.554   2.196   9.544
 3806SOL    HW213258  13.406   2.220   9.524
 3807SOL     OW13259  13.091   4.573   1.643
 3807SOL    HW113260  13.112   4.585   1.736
 3807SOL    HW213261  13.004   4.611   1.633
 3808SOL     OW13262   1.141   7.683  13.377
 3808SOL    HW113263   1.111   7.659  13.464
 3808SOL    HW213264   1.187   7.605  13.345
 3809SOL     OW13265   9.048  12.914   8.287
 3809SOL    HW113266   9.014  12.855   8.219
 3809SOL    HW213267   9.060  12.997   8.242
 3810SOL     OW13268   9.720   8.588   5.489
 3810SOL    HW113269   9.728   8.515   5.427
 3810SOL    HW213270   9.742   8.549   5.574
 3811SOL     OW13271  10.649   0.721  10.764
 3811SOL    HW113272  10.744   0.716  10.778
 3811SOL    HW213273  10.612   0.712  10.852
 3812SOL     OW13274   7.757   7.239   2.008
 3812SOL    HW113275   7.750   7.331   1.984
 3812SOL    HW213276   7.679   7.222   2.061
 3813SOL     OW13277   0.661  13.519   6.112
 3813SOL    HW113278   0.664  13.578   6.037
 3813SOL    HW213279   0.734  13.547   6.168
 3814SOL     OW13280   2.201  13.105   7.808
 3814SOL    HW113281   2.226  13.082   7.897
 3814SOL    HW213282   2.177  13.197   7.813
 3815SOL     OW13283  12.703   3.354   5.731
 3815SOL    HW113284  12.691   3.289   5.801
 3815SOL    HW213285  12.770   3.316   5.675
 3816SOL     OW13286   2.506  11.767   4.540
 3816SOL    HW113287   2.512  11.842   4.480
 3816SOL    HW213288   2.470  11.696   4.487
 3817SOL     OW13289   7.428  12.884   0.866
 3817SOL    HW113290   7.507  12.902   0.917
 3817SOL    HW213291   7.436  12.940   0.789
 3818SOL     OW13292   3.813  11.231   6.493
 3818SOL    HW113293   3.777  11.165   6.553
 3818SOL    HW213294   3.751  11.233   6.420
 3819SOL     OW13295   1.381   3.098   7.139
 3819SOL    HW113296   1.410   3.120   7.228
 3819SOL    HW213297   1.403   3.176   7.088
 3820SOL     OW13298   8.885  14.137  10.649
 3820SOL    HW113299   8.945  14.109  10.718
 3820SOL    HW213300   8.902  14.078  10.575
 3821SOL     OW13301   5.582   8.686   7.645
 3821SOL    HW113302   5.653   8.748   7.629
 3821SOL    HW213303   5.623   8.615   7.696
 3822SOL     OW13304  14.134   1.287  10.348
 3822SOL    HW113305  14.070   1.279  10.276
 3822SOL    HW213306  14.090   1.247  10.423
 3823SOL     OW13307   4.018   7.880  11.261
 3823SOL    HW113308   4.074   7.931  11.203
 3823SOL    HW213309   4.035   7.917  11.348
 3824SOL     OW13310   7.551   6.601   2.967
 3824SOL    HW113311   7.583   6.566   3.050
 3824SOL    HW213312   7.613   6.670   2.943
 3825SOL     OW13313   5.374   3.217   4.887
 3825SOL    HW113314   5.345   3.308   4.897
 3825SOL    HW213315   5.454   3.212   4.939
 3826SOL     OW13316  12.782   0.920   6.641
 3826SOL    HW113317  12.754   0.910   6.732
 3826SOL    HW213318  12.706   0.892   6.589
 3827SOL     OW13319  14.187   4.420   1.257
 3827SOL    HW113320  14.196   4.482   1.329
 3827SOL    HW213321  14.096   4.391   1.261
 3828SOL     OW13322   6.457   6.919   6.800
 3828SOL    HW113323   6.452   6.980   6.726
 3828SOL    HW213324   6.516   6.850   6.770
 3829SOL     OW13325   4.410   9.793   6.163
 3829SOL    HW113326   4.331   9.741   6.177
 3829SOL    HW213327   4.440   9.815   6.251
 3830SOL     OW13328  12.275  10.694   0.210
 3830SOL    HW113329  12.227  10.755   0.265
 3830SOL    HW213330  12.232  10.610   0.225
 3831SOL     OW13331  13.601   1.777   8.940
 3831SOL    HW113332  13.528   1.749   8.885
 3831SOL    HW213333  13.559   1.824   9.013
 3832SOL     OW13334   9.806   6.811   5.379
 3832SOL    HW113335   9.746   6.886   5.388
 3832SOL    HW213336   9.863   6.836   5.306
 3833SOL     OW13337   4.545  14.295  13.086
 3833SOL    HW113338   4.542  14.300  12.990
 3833SOL    HW213339   4.473  14.352  13.115
 3834SOL     OW13340   0.364  12.109  10.787
 3834SOL    HW113341   0.323  12.127  10.872
 3834SOL    HW213342   0.292  12.116  10.724
 3835SOL     OW13343   0.501   7.104  13.795
 3835SOL    HW113344   0.552   7.185  13.803
 3835SOL    HW213345   0.551   7.051  13.733
 3836SOL     OW13346   5.721   7.499   3.879
 3836SOL    HW113347   5.670   7.524   3.802
 3836SOL    HW213348   5.705   7.405   3.889
 3837SOL     OW13349   6.333   0.789  12.701
 3837SOL    HW113350   6.242   0.808  12.723
 3837SOL    HW213351   6.382   0.865  12.733
 3838SOL     OW13352  10.865  14.427   8.009
 3838SOL    HW113353  10.927  14.498   7.989
 3838SOL    HW213354  10.806  14.464   8.074
 3839SOL     OW13355   0.709   4.147  13.355
 3839SOL    HW113356   0.799   4.148  13.323
 3839SOL    HW213357   0.715   4.105  13.441
 3840SOL     OW13358   2.047   9.277  10.631
 3840SOL    HW113359   2.082   9.205  10.578
 3840SOL    HW213360   2.013   9.339  10.567
 3841SOL     OW13361   3.287   9.249   2.843
 3841SOL    HW113362   3.269   9.158   2.866
 3841SOL    HW213363   3.256   9.299   2.919
 3842SOL     OW13364   8.938   3.590   3.946
 3842SOL    HW113365   9.006   3.538   3.989
 3842SOL    HW213366   8.987   3.652   3.891
 3843SOL     OW13367   5.199   1.595   2.978
 3843SOL    HW113368   5.295   1.589   2.982
 3843SOL    HW213369   5.170   1.573   3.066
 3844SOL     OW13370   0.100   1.127  12.754
 3844SOL    HW113371   0.036   1.056  12.747
 3844SOL    HW213372   0.083   1.181  12.677
 3845SOL     OW13373  13.715  10.204   3.394
 3845SOL    HW113374  13.785  10.232   3.453
 3845SOL    HW213375  13.668  10.285   3.372
 3846SOL     OW13376  14.379  14.392   7.492
 3846SOL    HW113377  14.304  14.444   7.463
 3846SOL    HW213378  14.361  14.374   7.584
 3847SOL     OW13379   5.566   6.334  10.141
 3847SOL    HW113380   5.646   6.283  10.130
 3847SOL    HW213381   5.497   6.277  10.107
 3848SOL     OW13382  14.157   3.345  12.251
 3848SOL    HW113383  14.072   3.385  12.229
 3848SOL    HW213384  14.156   3.336  12.346
 3849SOL     OW13385   5.674  13.794   8.069
 3849SOL    HW113386   5.701  13.733   8.137
 3849SOL    HW213387   5.748  13.855   8.061
 3850SOL     OW13388  13.914   5.367   6.817
 3850SOL    HW113389  13.852   5.411   6.876
 3850SOL    HW213390  13.860   5.332   6.746
 3851SOL     OW13391  13.196   3.109   0.104
 3851SOL    HW113392  13.204   3.194   0.147
 3851SOL    HW213393  13.106   3.081   0.121
 3852SOL     OW13394  12.039   5.452   8.255
 3852SOL    HW113395  12.121   5.412   8.225
 3852SOL    HW213396  11.991   5.470   8.174
 3853SOL     OW13397   0.516  10.485  12.708
 3853SOL    HW113398   0.474  10.415  12.758
 3853SOL    HW213399   0.453  10.507  12.639
 3854SOL     OW13400   8.465   4.572   6.203
 3854SOL    HW113401   8.480   4.666   6.195
 3854SOL    HW213402   8.493   4.536   6.119
 3855SOL     OW13403   7.537   9.604   8.313
 3855SOL    HW113404   7.514   9.680   8.367
 3855SOL    HW213405   7.587   9.547   8.371
 3856SOL     OW13406  14.606  14.617   9.942
 3856SOL    HW113407  14.620  14.682   9.873
 3856SOL    HW213408  14.671  14.548   9.924
 3857SOL     OW13409   2.248   6.789   4.902
 3857SOL    HW113410   2.181   6.775   4.836
 3857SOL    HW213411   2.331   6.787   4.853
 3858SOL     OW13412  13.799   5.316   8.885
 3858SOL    HW113413  13.852   5.362   8.950
 3858SOL    HW213414  13.862   5.287   8.819
 3859SOL     OW13415  10.623   6.085   0.144
 3859SOL    HW113416  10.630   6.018   0.212
 3859SOL    HW213417  10.681   6.054   0.074
 3860SOL     OW13418  13.014   8.420   0.547
 3860SOL    HW113419  12.965   8.375   0.477
 3860SOL    HW213420  13.104   8.425   0.514
 3861SOL     OW13421   9.076  13.308   2.989
 3861SOL    HW113422   9.088  13.276   3.079
 3861SOL    HW213423   9.152  13.365   2.973
 3862SOL     OW13424   6.213   7.623  11.522
 3862SOL    HW113425   6.293   7.600  11.474
 3862SOL    HW213426   6.170   7.539  11.537
 3863SOL     OW13427  10.019   2.023  12.991
 3863SOL    HW113428  10.058   2.006  13.076
 3863SOL    HW213429  10.093   2.034  12.932
 3864SOL     OW13430  10.316   9.391   4.856
 3864SOL    HW113431  10.378   9.374   4.927
 3864SOL    HW213432  10.233   9.409   4.900
 3865SOL     OW13433   5.620   8.911  14.534
 3865SOL    HW113434   5.709   8.944  14.547
 3865SOL    HW213435   5.583   8.907  14.622
 3866SOL     OW13436   3.223   9.476  12.089
 3866SOL    HW113437   3.165   9.486  12.013
 3866SOL    HW213438   3.233   9.382  12.099
 3867SOL     OW13439   0.125   9.541   1.246
 3867SOL    HW113440   0.179   9.545   1.325
 3867SOL    HW213441   0.044   9.585   1.270
 3868SOL     OW13442  13.619   4.057   6.905
 3868SOL    HW113443  13.689   3.998   6.879
 3868SOL    HW213444  13.641   4.083   6.995
 3869SOL     OW13445   9.184   7.041   7.315
 3869SOL    HW113446   9.196   7.047   7.410
 3869SOL    HW213447   9.108   7.097   7.297
 3870SOL     OW13448  12.881  12.645  14.649
 3870SOL    HW113449  12.860  12.710  14.582
 3870SOL    HW213450  12.922  12.573  14.601
 3871SOL     OW13451   6.659  13.343   7.366
 3871SOL    HW113452   6.632  13.261   7.323
 3871SOL    HW213453   6.664  13.407   7.295
 3872SOL     OW13454   7.019   4.831   0.819
 3872SOL    HW113455   7.008   4.813   0.913
 3872SOL    HW213456   6.948   4.891   0.798
 3873SOL     OW13457   3.066  12.931  13.518
 3873SOL    HW113458   3.053  12.962  13.429
 3873SOL    HW213459   3.065  12.836  13.512
 3874SOL     OW13460   5.913   4.406   8.792
 3874SOL    HW113461   5.955   4.366   8.868
 3874SOL    HW213462   5.920   4.500   8.808
 3875SOL     OW13463  13.210  10.694   2.876
 3875SOL    HW113464  13.294  10.735   2.853
 3875SOL    HW213465  13.145  10.761   2.858
 3876SOL     OW13466  10.362   9.542  12.227
 3876SOL    HW113467  10.424   9.545  12.154
 3876SOL    HW213468  10.281   9.508  12.188
 3877SOL     OW13469   1.316  11.883   1.311
 3877SOL    HW113470   1.244  11.824   1.335
 3877SOL    HW213471   1.315  11.884   1.215
 3878SOL     OW13472   7.886   2.006   3.549
 3878SOL    HW113473   7.851   2.076   3.495
 3878SOL    HW213474   7.826   2.001   3.624
 3879SOL     OW13475   9.976   5.902   9.950
 3879SOL    HW113476   9.934   5.890   9.865
 3879SOL    HW213477  10.063   5.937   9.929
 3880SOL     OW13478  14.525   6.067   8.100
 3880SOL    HW113479  14.451   6.018   8.063
 3880SOL    HW213480  14.515   6.156   8.066
 3881SOL     OW13481   4.952   5.166  10.538
 3881SOL    HW113482   5.004   5.217  10.600
 3881SOL    HW213483   4.984   5.076  10.548
 3882SOL     OW13484   2.752  14.846  11.559
 3882SOL    HW113485   2.679  14.785  11.551
 3882SOL    HW213486   2.749   0.002  11.651
 3883SOL     OW13487   8.006   3.765   2.612
 3883SOL    HW113488   7.925   3.789   2.567
 3883SOL    HW213489   7.988   3.782   2.705
 3884SOL     OW13490   2.981  11.153   6.061
 3884SOL    HW113491   2.973  11.213   5.987
 3884SOL    HW213492   3.074  11.128   6.062
 3885SOL     OW13493  10.974   7.049  14.300
 3885SOL    HW113494  11.024   6.973  14.271
 3885SOL    HW213495  10.980   7.111  14.228
 3886SOL     OW13496   4.477   2.544  11.054
 3886SOL    HW113497   4.420   2.472  11.028
 3886SOL    HW213498   4.565   2.514  11.032
 3887SOL     OW13499  14.700  13.788   0.852
 3887SOL    HW113500  14.654  13.866   0.824
 3887SOL    HW213501  14.730  13.747   0.771
 3888SOL     OW13502   7.404   0.451   5.612
 3888SOL    HW113503   7.415   0.362   5.578
 3888SOL    HW213504   7.356   0.496   5.543
 3889SOL     OW13505  13.667   2.851   1.664
 3889SOL    HW113506  13.607   2.893   1.602
 3889SOL    HW213507  13.730   2.920   1.687
 3890SOL     OW13508  12.289  12.598  14.675
 3890SOL    HW113509  12.244  12.657  14.615
 3890SOL    HW213510  12.375  12.638  14.688
 3891SOL     OW13511   0.034   8.861  10.283
 3891SOL    HW113512  14.872   8.772  10.273
 3891SOL    HW213513   0.126   8.853  10.259
 3892SOL     OW13514  11.504   3.110   2.317
 3892SOL    HW113515  11.433   3.047   2.331
 3892SOL    HW213516  11.517   3.150   2.403
 3893SOL     OW13517   5.873   3.988   7.032
 3893SOL    HW113518   5.889   4.078   7.004
 3893SOL    HW213519   5.794   3.962   6.985
 3894SOL     OW13520   0.582   4.925  11.372
 3894SOL    HW113521   0.652   4.965  11.320
 3894SOL    HW213522   0.601   4.951  11.462
 3895SOL     OW13523  13.091   1.467  10.544
 3895SOL    HW113524  13.159   1.496  10.605
 3895SOL    HW213525  13.029   1.539  10.541
 3896SOL     OW13526   5.649   4.469  14.138
 3896SOL    HW113527   5.578   4.520  14.100
 3896SOL    HW213528   5.619   4.378  14.131
 3897SOL     OW13529   4.203   5.611  14.515
 3897SOL    HW113530   4.198   5.690  14.462
 3897SOL    HW213531   4.120   5.609  14.564
 3898SOL     OW13532  13.286   2.564   7.885
 3898SOL    HW113533  13.336   2.545   7.964
 3898SOL    HW213534  13.314   2.652   7.859
 3899SOL     OW13535   7.870  12.319   0.949
 3899SOL    HW113536   7.853  12.413   0.950
 3899SOL    HW213537   7.786  12.280   0.923
 3900SOL     OW13538   4.589   8.368   2.264
 3900SOL    HW113539   4.683   8.351   2.262
 3900SOL    HW213540   4.578   8.451   2.216
 3901SOL     OW13541   6.810  12.913   9.228
 3901SOL    HW113542   6.813  12.827   9.270
 3901SOL    HW213543   6.797  12.894   9.135
 3902SOL     OW13544   3.276  12.896  14.632
 3902SOL    HW113545   3.201  12.932  14.585
 3902SOL    HW213546   3.239  12.827  14.688
 3903SOL     OW13547   1.224   3.114  10.351
 3903SOL    HW113548   1.158   3.103  10.420
 3903SOL    HW213549   1.239   3.025  10.319
 3904SOL     OW13550  10.215  14.705   6.153
 3904SOL    HW113551  10.262  14.752   6.222
 3904SOL    HW213552  10.280  14.644   6.118
 3905SOL     OW13553   5.976   5.175  14.347
 3905SOL    HW113554   6.011   5.239  14.286
 3905SOL    HW213555   5.955   5.099  14.292
 3906SOL     OW13556  13.591   0.120  10.629
 3906SOL    HW113557  13.681   0.129  10.599
 3906SOL    HW213558  13.538   0.154  10.557
 3907SOL     OW13559   9.257   2.007  11.226
 3907SOL    HW113560   9.314   1.983  11.154
 3907SOL    HW213561   9.291   2.090  11.258
 3908SOL     OW13562   1.284   3.564   4.798
 3908SOL    HW113563   1.257   3.533   4.885
 3908SOL    HW213564   1.240   3.648   4.788
 3909SOL     OW13565   4.091  13.769   4.212
 3909SOL    HW113566   4.136  13.686   4.198
 3909SOL    HW213567   4.088  13.779   4.307
 3910SOL     OW13568   6.841  12.027   4.004
 3910SOL    HW113569   6.826  11.933   4.018
 3910SOL    HW213570   6.762  12.058   3.960
 3911SOL     OW13571   3.579  14.873   4.503
 3911SOL    HW113572   3.563  14.779   4.508
 3911SOL    HW213573   3.673   0.006   4.482
 3912SOL     OW13574  10.635   1.727   2.360
 3912SOL    HW113575  10.586   1.779   2.424
 3912SOL    HW213576  10.726   1.735   2.387
 3913SOL     OW13577  10.854   5.305   2.162
 3913SOL    HW113578  10.801   5.346   2.229
 3913SOL    HW213579  10.791   5.273   2.097
 3914SOL     OW13580  11.842  12.432  12.255
 3914SOL    HW113581  11.749  12.416  12.236
 3914SOL    HW213582  11.856  12.390  12.340
 3915SOL     OW13583   2.977   6.242   7.465
 3915SOL    HW113584   3.052   6.274   7.415
 3915SOL    HW213585   3.014   6.178   7.526
 3916SOL     OW13586   0.099   4.582   4.869
 3916SOL    HW113587   0.091   4.522   4.796
 3916SOL    HW213588   0.023   4.640   4.862
 3917SOL     OW13589   2.039   1.081   4.012
 3917SOL    HW113590   2.034   1.055   3.920
 3917SOL    HW213591   2.104   1.151   4.014
 3918SOL     OW13592   5.365   6.331  14.091
 3918SOL    HW113593   5.324   6.293  14.169
 3918SOL    HW213594   5.379   6.257  14.032
 3919SOL     OW13595  10.047   9.320   3.642
 3919SOL    HW113596  10.089   9.234   3.635
 3919SOL    HW213597  10.110   9.374   3.689
 3920SOL     OW13598   4.716   6.114  13.560
 3920SOL    HW113599   4.668   6.184  13.605
 3920SOL    HW213600   4.801   6.153  13.539
 3921SOL     OW13601   2.883   2.703  11.710
 3921SOL    HW113602   2.904   2.693  11.803
 3921SOL    HW213603   2.804   2.756  11.709
 3922SOL     OW13604  11.122   8.352  10.273
 3922SOL    HW113605  11.129   8.328  10.180
 3922SOL    HW213606  11.211   8.380  10.297
 3923SOL     OW13607   5.589   3.019   7.002
 3923SOL    HW113608   5.605   2.929   7.029
 3923SOL    HW213609   5.493   3.027   6.998
 3924SOL     OW13610   0.558  10.913  12.229
 3924SOL    HW113611   0.630  10.971  12.254
 3924SOL    HW213612   0.596  10.852  12.166
 3925SOL     OW13613   5.810   3.106   2.399
 3925SOL    HW113614   5.759   3.152   2.332
 3925SOL    HW213615   5.877   3.058   2.349
 3926SOL     OW13616   1.748  10.758   8.925
 3926SOL    HW113617   1.711  10.744   8.838
 3926SOL    HW213618   1.842  10.739   8.915
 3927SOL     OW13619   5.814  10.362   3.167
 3927SOL    HW113620   5.809  10.303   3.091
 3927SOL    HW213621   5.893  10.414   3.152
 3928SOL     OW13622   8.333  14.772   5.880
 3928SOL    HW113623   8.401  14.736   5.823
 3928SOL    HW213624   8.329  14.713   5.954
 3929SOL     OW13625  14.584  10.007  12.842
 3929SOL    HW113626  14.597   9.929  12.788
 3929SOL    HW213627  14.638  10.074  12.801
 3930SOL     OW13628   0.208   0.611   4.620
 3930SOL    HW113629   0.146   0.583   4.688
 3930SOL    HW213630   0.173   0.694   4.589
 3931SOL     OW13631  14.293   9.843  13.660
 3931SOL    HW113632  14.274   9.901  13.734
 3931SOL    HW213633  14.385   9.859  13.640
 3932SOL     OW13634   6.831  13.085  11.372
 3932SOL    HW113635   6.899  13.089  11.304
 3932SOL    HW213636   6.822  13.175  11.402
 3933SOL     OW13637   2.786  13.467   0.531
 3933SOL    HW113638   2.704  13.480   0.578
 3933SOL    HW213639   2.788  13.373   0.512
 3934SOL     OW13640   4.503   4.924  12.046
 3934SOL    HW113641   4.587   4.962  12.019
 3934SOL    HW213642   4.476   4.976  12.121
 3935SOL     OW13643   2.031  12.014   4.852
 3935SOL    HW113644   2.124  11.999   4.837
 3935SOL    HW213645   1.988  11.937   4.817
 3936SOL     OW13646   1.920  13.622   2.236
 3936SOL    HW113647   1.940  13.589   2.324
 3936SOL    HW213648   1.846  13.681   2.249
 3937SOL     OW13649   6.779   6.708   4.522
 3937SOL    HW113650   6.747   6.702   4.432
 3937SOL    HW213651   6.703   6.687   4.577
 3938SOL     OW13652   1.926   2.631   4.820
 3938SOL    HW113653   1.941   2.726   4.812
 3938SOL    HW213654   1.987   2.592   4.757
 3939SOL     OW13655   7.112   4.973   0.080
 3939SOL    HW113656   7.063   4.978  14.871
 3939SOL    HW213657   7.078   4.895   0.124
 3940SOL     OW13658   8.528   0.622  10.358
 3940SOL    HW113659   8.588   0.685  10.399
 3940SOL    HW213660   8.443   0.665  10.359
 3941SOL     OW13661   9.578   7.667   1.014
 3941SOL    HW113662   9.505   7.729   1.009
 3941SOL    HW213663   9.578   7.637   1.105
 3942SOL     OW13664   4.248  11.318   6.153
 3942SOL    HW113665   4.246  11.225   6.134
 3942SOL    HW213666   4.338  11.345   6.135
 3943SOL     OW13667   5.841  13.706   4.150
 3943SOL    HW113668   5.857  13.699   4.056
 3943SOL    HW213669   5.929  13.715   4.188
 3944SOL     OW13670   7.286  10.316   5.259
 3944SOL    HW113671   7.215  10.263   5.294
 3944SOL    HW213672   7.347  10.326   5.333
 3945SOL     OW13673  14.055   4.642  13.358
 3945SOL    HW113674  14.060   4.712  13.292
 3945SOL    HW213675  14.011   4.571  13.313
 3946SOL     OW13676   7.487  12.641   9.784
 3946SOL    HW113677   7.570  12.651   9.832
 3946SOL    HW213678   7.425  12.695   9.833
 3947SOL     OW13679   5.995   8.489   7.155
 3947SOL    HW113680   6.024   8.401   7.178
 3947SOL    HW213681   5.928   8.477   7.088
 3948SOL     OW13682  10.860  10.500   8.943
 3948SOL    HW113683  10.876  10.508   9.037
 3948SOL    HW213684  10.797  10.429   8.935
 3949SOL     OW13685   6.321   2.416   8.797
 3949SOL    HW113686   6.417   2.414   8.789
 3949SOL    HW213687   6.300   2.509   8.808
 3950SOL     OW13688   8.071   6.127   8.373
 3950SOL    HW113689   8.044   6.116   8.465
 3950SOL    HW213690   8.088   6.220   8.365
 3951SOL     OW13691   1.041   8.250   4.984
 3951SOL    HW113692   0.987   8.222   5.058
 3951SOL    HW213693   1.126   8.270   5.023
 3952SOL     OW13694   9.000  10.715  11.405
 3952SOL    HW113695   8.978  10.667  11.325
 3952SOL    HW213696   9.048  10.792  11.375
 3953SOL     OW13697  10.621   2.395  11.056
 3953SOL    HW113698  10.602   2.454  11.128
 3953SOL    HW213699  10.546   2.404  10.997
 3954SOL     OW13700  12.465  11.255  10.066
 3954SOL    HW113701  12.552  11.296  10.062
 3954SOL    HW213702  12.452  11.219   9.978
 3955SOL     OW13703   1.757   5.214   7.488
 3955SOL    HW113704   1.735   5.209   7.395
 3955SOL    HW213705   1.814   5.291   7.494
 3956SOL     OW13706   9.824  11.861   9.771
 3956SOL    HW113707   9.791  11.832   9.856
 3956SOL    HW213708   9.893  11.923   9.792
 3957SOL     OW13709  11.204   0.115   8.695
 3957SOL    HW113710  11.260   0.181   8.655
 3957SOL    HW213711  11.144   0.089   8.625
 3958SOL     OW13712   2.445  13.057   6.316
 3958SOL    HW113713   2.400  13.079   6.398
 3958SOL    HW213714   2.439  13.136   6.263
 3959SOL     OW13715  10.689   1.721   8.274
 3959SOL    HW113716  10.717   1.806   8.308
 3959SOL    HW213717  10.714   1.723   8.182
 3960SOL     OW13718   0.988   4.760  12.259
 3960SOL    HW113719   0.986   4.856  12.270
 3960SOL    HW213720   0.913   4.730  12.311
 3961SOL     OW13721   0.469  10.590   8.561
 3961SOL    HW113722   0.434  10.674   8.531
 3961SOL    HW213723   0.422  10.525   8.509
 3962SOL     OW13724   8.039  10.537   4.587
 3962SOL    HW113725   7.952  10.536   4.548
 3962SOL    HW213726   8.094  10.579   4.521
 3963SOL     OW13727  13.748   0.474  11.047
 3963SOL    HW113728  13.680   0.503  10.986
 3963SOL    HW213729  13.706   0.405  11.098
 3964SOL     OW13730  11.084   4.209   3.465
 3964SOL    HW113731  11.095   4.228   3.558
 3964SOL    HW213732  11.048   4.121   3.462
 3965SOL     OW13733  10.773  11.165   1.246
 3965SOL    HW113734  10.708  11.104   1.210
 3965SOL    HW213735  10.816  11.203   1.170
 3966SOL     OW13736   0.297   4.125  12.422
 3966SOL    HW113737   0.319   4.176  12.500
 3966SOL    HW213738   0.361   4.153  12.357
 3967SOL     OW13739   3.814   8.936   5.994
 3967SOL    HW113740   3.805   9.029   5.973
 3967SOL    HW213741   3.839   8.934   6.086
 3968SOL     OW13742   2.232  11.806   8.275
 3968SOL    HW113743   2.251  11.742   8.206
 3968SOL    HW213744   2.205  11.885   8.228
 3969SOL     OW13745   2.022   0.926  14.566
 3969SOL    HW113746   1.977   1.011  14.573
 3969SOL    HW213747   1.990   0.889  14.484
 3970SOL     OW13748  11.881   8.720  12.250
 3970SOL    HW113749  11.811   8.657  12.266
 3970SOL    HW213750  11.868   8.749  12.160
 3971SOL     OW13751  11.292   4.162   5.594
 3971SOL    HW113752  11.370   4.210   5.622
 3971SOL    HW213753  11.219   4.215   5.624
 3972SOL     OW13754   2.187  13.290   1.003
 3972SOL    HW113755   2.116  13.273   1.066
 3972SOL    HW213756   2.208  13.382   1.016
 3973SOL     OW13757  14.150   1.199   5.347
 3973SOL    HW113758  14.058   1.216   5.370
 3973SOL    HW213759  14.149   1.108   5.315
 3974SOL     OW13760   7.269   9.898   1.543
 3974SOL    HW113761   7.208   9.825   1.548
 3974SOL    HW213762   7.313   9.887   1.459
 3975SOL     OW13763  14.219  11.650  14.644
 3975SOL    HW113764  14.152  11.612  14.586
 3975SOL    HW213765  14.256  11.723  14.594
 3976SOL     OW13766   0.997   9.009  11.897
 3976SOL    HW113767   0.911   9.022  11.857
 3976SOL    HW213768   0.983   8.941  11.963
 3977SOL     OW13769   9.774   7.241   2.925
 3977SOL    HW113770   9.847   7.204   2.875
 3977SOL    HW213771   9.759   7.177   2.994
 3978SOL     OW13772   7.687   0.622   8.919
 3978SOL    HW113773   7.732   0.667   8.848
 3978SOL    HW213774   7.601   0.664   8.924
 3979SOL     OW13775   5.452   6.953  10.342
 3979SOL    HW113776   5.364   6.962  10.379
 3979SOL    HW213777   5.507   6.931  10.417
 3980SOL     OW13778  13.045  13.867   4.168
 3980SOL    HW113779  13.121  13.865   4.109
 3980SOL    HW213780  12.970  13.878   4.109
 3981SOL     OW13781   9.388   5.209  12.111
 3981SOL    HW113782   9.453   5.153  12.069
 3981SOL    HW213783   9.312   5.153  12.125
 3982SOL     OW13784  10.738  12.855   7.039
 3982SOL    HW113785  10.772  12.875   7.126
 3982SOL    HW213786  10.643  12.854   7.050
 3983SOL     OW13787  11.678   4.247   2.938
 3983SOL    HW113788  11.637   4.334   2.943
 3983SOL    HW213789  11.707   4.229   3.027
 3984SOL     OW13790   2.302   4.361   1.710
 3984SOL    HW113791   2.287   4.404   1.794
 3984SOL    HW213792   2.218   4.366   1.665
 3985SOL     OW13793  14.702  14.387   5.366
 3985SOL    HW113794  14.673  14.297   5.356
 3985SOL    HW213795  14.797  14.381   5.376
 3986SOL     OW13796  12.579  11.745  14.632
 3986SOL    HW113797  12.508  11.802  14.662
 3986SOL    HW213798  12.541  11.657  14.631
 3987SOL     OW13799  12.655  12.385   2.891
 3987SOL    HW113800  12.569  12.343   2.894
 3987SOL    HW213801  12.709  12.324   2.840
 3988SOL     OW13802  13.128   1.617   6.171
 3988SOL    HW113803  13.058   1.611   6.236
 3988SOL    HW213804  13.204   1.578   6.214
 3989SOL     OW13805   2.199   4.656   3.167
 3989SOL    HW113806   2.177   4.590   3.234
 3989SOL    HW213807   2.292   4.674   3.182
 3990SOL     OW13808   4.081   7.018  13.265
 3990SOL    HW113809   4.138   7.094  13.256
 3990SOL    HW213810   4.100   6.984  13.353
 3991SOL     OW13811   2.680  10.445  14.042
 3991SOL    HW113812   2.724  10.415  13.962
 3991SOL    HW213813   2.657  10.365  14.088
 3992SOL     OW13814  13.340  13.893  13.478
 3992SOL    HW113815  13.418  13.948  13.485
 3992SOL    HW213816  13.273  13.952  13.443
 3993SOL     OW13817  11.983   4.198   3.795
 3993SOL    HW113818  11.983   4.294   3.795
 3993SOL    HW213819  11.930   4.174   3.720
 3994SOL     OW13820  12.081   4.223   2.883
 3994SOL    HW113821  12.136   4.300   2.870
 3994SOL    HW213822  12.071   4.216   2.978
 3995SOL     OW13823  10.144   4.386   7.837
 3995SOL    HW113824  10.133   4.318   7.904
 3995SOL    HW213825  10.235   4.378   7.810
 3996SOL     OW13826   0.832  10.908  11.623
 3996SOL    HW113827   0.784  10.972  11.675
 3996SOL    HW213828   0.764  10.851  11.587
 3997SOL     OW13829   5.565   2.511   2.059
 3997SOL    HW113830   5.603   2.597   2.040
 3997SOL    HW213831   5.531   2.518   2.148
 3998SOL     OW13832  10.782  12.735  10.723
 3998SOL    HW113833  10.710  12.745  10.662
 3998SOL    HW213834  10.752  12.776  10.804
 3999SOL     OW13835  11.086  12.307   6.527
 3999SOL    HW113836  11.019  12.349   6.581
 3999SOL    HW213837  11.157  12.371   6.522
 4000SOL     OW13838  10.639  11.100   5.023
 4000SOL    HW113839  10.678  11.058   5.099
 4000SOL    HW213840  10.692  11.178   5.008
 4001SOL     OW13841   6.584   7.164   1.315
 4001SOL    HW113842   6.527   7.238   1.335
 4001SOL    HW213843   6.525   7.100   1.274
 4002SOL     OW13844   5.330   9.669   7.349
 4002SOL    HW113845   5.334   9.609   7.424
 4002SOL    HW213846   5.360   9.753   7.385
 4003SOL     OW13847   7.858   5.735   6.253
 4003SOL    HW113848   7.865   5.750   6.348
 4003SOL    HW213849   7.831   5.820   6.217
 4004SOL     OW13850   4.802   9.743  10.595
 4004SOL    HW113851   4.734   9.738  10.661
 4004SOL    HW213852   4.875   9.788  10.639
 4005SOL     OW13853  12.647  10.687   6.375
 4005SOL    HW113854  12.635  10.673   6.469
 4005SOL    HW213855  12.734  10.651   6.356
 4006SOL     OW13856   0.572   8.529   9.801
 4006SOL    HW113857   0.663   8.516   9.774
 4006SOL    HW213858   0.524   8.461   9.753
 4007SOL     OW13859   2.142   1.273  10.861
 4007SOL    HW113860   2.100   1.309  10.940
 4007SOL    HW213861   2.070   1.248  10.804
 4008SOL     OW13862   6.871   1.236   9.393
 4008SOL    HW113863   6.958   1.204   9.417
 4008SOL    HW213864   6.882   1.270   9.304
 4009SOL     OW13865   7.324   6.296   4.945
 4009SOL    HW113866   7.341   6.362   4.878
 4009SOL    HW213867   7.346   6.213   4.902
 4010SOL     OW13868   4.742  13.929   2.982
 4010SOL    HW113869   4.657  13.937   3.025
 4010SOL    HW213870   4.732  13.979   2.901
 4011SOL     OW13871   5.059   2.086   1.120
 4011SOL    HW113872   5.080   2.087   1.027
 4011SOL    HW213873   5.125   2.142   1.160
 4012SOL     OW13874  11.353  10.790   9.383
 4012SOL    HW113875  11.305  10.739   9.448
 4012SOL    HW213876  11.308  10.874   9.380
 4013SOL     OW13877  13.723   2.851  12.119
 4013SOL    HW113878  13.709   2.880  12.029
 4013SOL    HW213879  13.721   2.756  12.114
 4014SOL     OW13880  11.758   7.207   4.620
 4014SOL    HW113881  11.770   7.113   4.627
 4014SOL    HW213882  11.674   7.219   4.576
 4015SOL     OW13883  12.656   0.625   0.154
 4015SOL    HW113884  12.657   0.541   0.109
 4015SOL    HW213885  12.585   0.618   0.217
 4016SOL     OW13886   0.510   3.446  12.805
 4016SOL    HW113887   0.458   3.448  12.885
 4016SOL    HW213888   0.491   3.360  12.766
 4017SOL     OW13889   1.428  12.112   1.385
 4017SOL    HW113890   1.362  12.158   1.333
 4017SOL    HW213891   1.413  12.019   1.367
 4018SOL     OW13892  12.172  12.786  13.833
 4018SOL    HW113893  12.129  12.702  13.819
 4018SOL    HW213894  12.224  12.773  13.913
 4019SOL     OW13895   8.354   7.548   7.755
 4019SOL    HW113896   8.292   7.618   7.775
 4019SOL    HW213897   8.440   7.583   7.780
 4020SOL     OW13898   7.036   7.491  10.561
 4020SOL    HW113899   7.126   7.460  10.557
 4020SOL    HW213900   6.985   7.413  10.582
 4021SOL     OW13901   0.633  14.796   0.710
 4021SOL    HW113902   0.580  14.855   0.656
 4021SOL    HW213903   0.684  14.746   0.646
 4022SOL     OW13904   1.301  10.374   9.188
 4022SOL    HW113905   1.287  10.463   9.154
 4022SOL    HW213906   1.253  10.318   9.127
 4023SOL     OW13907  11.761  12.391   9.498
 4023SOL    HW113908  11.716  12.475   9.490
 4023SOL    HW213909  11.826  12.405   9.566
 4024SOL     OW13910   2.956   3.380   9.609
 4024SOL    HW113911   2.990   3.389   9.519
 4024SOL    HW213912   2.861   3.379   9.599
 4025SOL     OW13913   8.141   8.194   0.739
 4025SOL    HW113914   8.056   8.151   0.748
 4025SOL    HW213915   8.155   8.200   0.644
 4026SOL     OW13916   3.806   2.911  14.103
 4026SOL    HW113917   3.824   2.838  14.162
 4026SOL    HW213918   3.711   2.919  14.103
 4027SOL     OW13919   2.781   7.672  12.185
 4027SOL    HW113920   2.835   7.625  12.121
 4027SOL    HW213921   2.781   7.615  12.262
 4028SOL     OW13922   3.061   8.210  12.516
 4028SOL    HW113923   3.005   8.137  12.540
 4028SOL    HW213924   3.040   8.228  12.425
 4029SOL     OW13925   4.776   1.094   0.240
 4029SOL    HW113926   4.816   1.078   0.325
 4029SOL    HW213927   4.741   1.009   0.214
 4030SOL     OW13928   5.350   5.733   6.124
 4030SOL    HW113929   5.393   5.706   6.205
 4030SOL    HW213930   5.403   5.806   6.092
 4031SOL     OW13931   7.403   7.473   5.058
 4031SOL    HW113932   7.354   7.540   5.010
 4031SOL    HW213933   7.413   7.509   5.146
 4032SOL     OW13934  13.125   3.200   7.557
 4032SOL    HW113935  13.157   3.167   7.473
 4032SOL    HW213936  13.065   3.271   7.534
 4033SOL     OW13937   8.035  10.612   5.416
 4033SOL    HW113938   7.967  10.656   5.365
 4033SOL    HW213939   8.104  10.594   5.352
 4034SOL     OW13940   1.048   6.711   2.580
 4034SOL    HW113941   1.104   6.773   2.628
 4034SOL    HW213942   0.989   6.676   2.646
 4035SOL     OW13943   6.828   8.364   8.671
 4035SOL    HW113944   6.814   8.442   8.616
 4035SOL    HW213945   6.742   8.321   8.673
 4036SOL     OW13946   4.355  13.545   1.680
 4036SOL    HW113947   4.434  13.585   1.716
 4036SOL    HW213948   4.299  13.618   1.658
 4037SOL     OW13949   4.098   3.405  12.036
 4037SOL    HW113950   4.086   3.377  12.127
 4037SOL    HW213951   4.013   3.392  11.995
 4038SOL     OW13952   7.080  13.148   9.739
 4038SOL    HW113953   7.101  13.055   9.750
 4038SOL    HW213954   7.043  13.154   9.651
 4039SOL     OW13955   9.004  10.984   0.543
 4039SOL    HW113956   9.031  11.018   0.458
 4039SOL    HW213957   8.971  10.896   0.524
 4040SOL     OW13958   4.301   4.309   5.291
 4040SOL    HW113959   4.249   4.262   5.356
 4040SOL    HW213960   4.347   4.377   5.341
 4041SOL     OW13961   3.897   4.146   2.731
 4041SOL    HW113962   3.946   4.221   2.696
 4041SOL    HW213963   3.827   4.131   2.667
 4042SOL     OW13964   0.912   2.165   0.164
 4042SOL    HW113965   0.998   2.150   0.123
 4042SOL    HW213966   0.906   2.260   0.171
 4043SOL     OW13967   7.261  11.018   0.510
 4043SOL    HW113968   7.236  11.005   0.419
 4043SOL    HW213969   7.230  11.106   0.531
 4044SOL     OW13970   0.193   2.401  10.107
 4044SOL    HW113971   0.230   2.334  10.165
 4044SOL    HW213972   0.114   2.431  10.152
 4045SOL     OW13973   1.554  12.914   5.320
 4045SOL    HW113974   1.588  12.922   5.409
 4045SOL    HW213975   1.463  12.886   5.332
 4046SOL     OW13976   2.237   1.821  12.397
 4046SOL    HW113977   2.322   1.855  12.425
 4046SOL    HW213978   2.228   1.737  12.442
 4047SOL     OW13979   8.596   0.113   4.557
 4047SOL    HW113980   8.512   0.099   4.601
 4047SOL    HW213981   8.602   0.043   4.492
 4048SOL     OW13982   2.577   3.177  11.661
 4048SOL    HW113983   2.516   3.179  11.588
 4048SOL    HW213984   2.598   3.085  11.673
 4049SOL     OW13985   8.104   0.509   6.226
 4049SOL    HW113986   8.015   0.474   6.216
 4049SOL    HW213987   8.158   0.432   6.247
 4050SOL     OW13988  14.631  11.515   9.816
 4050SOL    HW113989  14.588  11.543   9.897
 4050SOL    HW213990  14.697  11.581   9.799
 4051SOL     OW13991   5.922  10.504  13.065
 4051SOL    HW113992   5.841  10.524  13.111
 4051SOL    HW213993   5.938  10.412  13.082
 4052SOL     OW13994   8.732   8.893   0.076
 4052SOL    HW113995   8.783   8.911  14.870
 4052SOL    HW213996   8.783   8.932   0.147
 4053SOL     OW13997   9.182  12.610   2.876
 4053SOL    HW113998   9.163  12.657   2.957
 4053SOL    HW213999   9.275  12.588   2.881
 4054SOL     OW14000   6.128   7.516   3.380
 4054SOL    HW114001   6.078   7.446   3.338
 4054SOL    HW214002   6.175   7.558   3.308
 4055SOL     OW14003   9.212   7.021  12.368
 4055SOL    HW114004   9.279   6.989  12.429
 4055SOL    HW214005   9.250   7.007  12.282
 4056SOL     OW14006  11.892   0.073   8.989
 4056SOL    HW114007  11.944   0.153   8.986
 4056SOL    HW214008  11.936   0.014   8.927
 4057SOL     OW14009   0.845   5.537   2.743
 4057SOL    HW114010   0.776   5.498   2.796
 4057SOL    HW214011   0.895   5.462   2.709
 4058SOL     OW14012  10.155  13.724   3.605
 4058SOL    HW114013  10.162  13.807   3.651
 4058SOL    HW214014  10.208  13.736   3.526
 4059SOL     OW14015  12.750  10.555   9.727
 4059SOL    HW114016  12.682  10.604   9.773
 4059SOL    HW214017  12.717  10.546   9.638
 4060SOL     OW14018   5.347  12.265   9.913
 4060SOL    HW114019   5.421  12.204   9.904
 4060SOL    HW214020   5.377  12.329   9.978
 4061SOL     OW14021   1.567  11.299   3.578
 4061SOL    HW114022   1.615  11.237   3.633
 4061SOL    HW214023   1.621  11.306   3.499
 4062SOL     OW14024   1.755   2.222  12.145
 4062SOL    HW114025   1.749   2.257  12.056
 4062SOL    HW214026   1.776   2.129  12.133
 4063SOL     OW14027   4.888  13.758   7.088
 4063SOL    HW114028   4.965  13.713   7.053
 4063SOL    HW214029   4.815  13.699   7.069
 4064SOL     OW14030   5.463  12.948   7.058
 4064SOL    HW114031   5.419  12.912   7.135
 4064SOL    HW214032   5.529  12.882   7.035
 4065SOL     OW14033  11.039  13.204  12.116
 4065SOL    HW114034  11.098  13.239  12.049
 4065SOL    HW214035  11.096  13.156  12.176
 4066SOL     OW14036  13.212  14.473   5.901
 4066SOL    HW114037  13.149  14.460   5.972
 4066SOL    HW214038  13.244  14.563   5.913
 4067SOL     OW14039  10.557   5.597   2.150
 4067SOL    HW114040  10.466   5.624   2.134
 4067SOL    HW214041  10.607   5.679   2.147
 4068SOL     OW14042   4.537  13.370  14.424
 4068SOL    HW114043   4.630  13.372  14.446
 4068SOL    HW214044   4.533  13.403  14.334
 4069SOL     OW14045   7.074  12.526  14.280
 4069SOL    HW114046   7.035  12.584  14.214
 4069SOL    HW214047   7.028  12.548  14.361
 4070SOL     OW14048  11.745   5.480  13.024
 4070SOL    HW114049  11.800   5.465  13.101
 4070SOL    HW214050  11.684   5.549  13.052
 4071SOL     OW14051   2.374   5.596  14.746
 4071SOL    HW114052   2.298   5.652  14.758
 4071SOL    HW214053   2.376   5.577  14.652
 4072SOL     OW14054   3.967  11.062  13.234
 4072SOL    HW114055   4.031  11.005  13.191
 4072SOL    HW214056   3.998  11.070  13.324
 4073SOL     OW14057   1.681   0.394   3.686
 4073SOL    HW114058   1.598   0.368   3.727
 4073SOL    HW214059   1.742   0.402   3.759
 4074SOL     OW14060  13.736  14.659   4.625
 4074SOL    HW114061  13.655  14.709   4.633
 4074SOL    HW214062  13.741  14.609   4.706
 4075SOL     OW14063  10.603   1.579  10.337
 4075SOL    HW114064  10.603   1.503  10.277
 4075SOL    HW214065  10.594   1.541  10.424
 4076SOL     OW14066  14.597   7.381  12.640
 4076SOL    HW114067  14.523   7.402  12.699
 4076SOL    HW214068  14.622   7.292  12.664
 4077SOL     OW14069   0.325   5.146   6.921
 4077SOL    HW114070   0.318   5.191   6.836
 4077SOL    HW214071   0.323   5.217   6.985
 4078SOL     OW14072  11.339   0.536   3.815
 4078SOL    HW114073  11.328   0.631   3.815
 4078SOL    HW214074  11.296   0.507   3.896
 4079SOL     OW14075  10.591   7.314   4.146
 4079SOL    HW114076  10.548   7.399   4.154
 4079SOL    HW214077  10.604   7.303   4.052
 4080SOL     OW14078   3.593  13.804   7.709
 4080SOL    HW114079   3.531  13.852   7.655
 4080SOL    HW214080   3.577  13.836   7.798
 4081SOL     OW14081   4.077   4.319  11.208
 4081SOL    HW114082   4.155   4.298  11.258
 4081SOL    HW214083   4.109   4.343  11.121
 4082SOL     OW14084  13.745  11.279   8.252
 4082SOL    HW114085  13.689  11.314   8.182
 4082SOL    HW214086  13.698  11.202   8.284
 4083SOL     OW14087   3.907  12.821   3.673
 4083SOL    HW114088   3.833  12.872   3.639
 4083SOL    HW214089   3.899  12.736   3.630
 4084SOL     OW14090   1.644   1.246   1.814
 4084SOL    HW114091   1.705   1.262   1.887
 4084SOL    HW214092   1.665   1.314   1.750
 4085SOL     OW14093  13.050  11.499   9.554
 4085SOL    HW114094  12.968  11.519   9.598
 4085SOL    HW214095  13.056  11.404   9.555
 4086SOL     OW14096   3.970   7.795   0.762
 4086SOL    HW114097   3.985   7.889   0.754
 4086SOL    HW214098   4.001   7.773   0.850
 4087SOL     OW14099  11.718  14.080  12.986
 4087SOL    HW114100  11.717  13.998  12.936
 4087SOL    HW214101  11.627  14.092  13.014
 4088SOL     OW14102  12.218   7.383   7.468
 4088SOL    HW114103  12.234   7.360   7.560
 4088SOL    HW214104  12.169   7.466   7.473
 4089SOL     OW14105   1.566   7.753  14.129
 4089SOL    HW114106   1.560   7.849  14.130
 4089SOL    HW214107   1.659   7.735  14.145
 4090SOL     OW14108   0.676   4.325  10.572
 4090SOL    HW114109   0.622   4.254  10.608
 4090SOL    HW214110   0.646   4.403  10.618
 4091SOL     OW14111  14.835   8.514  11.376
 4091SOL    HW114112  14.766   8.565  11.333
 4091SOL    HW214113   0.039   8.530  11.321
 4092SOL     OW14114   6.275   5.702   9.600
 4092SOL    HW114115   6.336   5.628   9.592
 4092SOL    HW214116   6.229   5.705   9.516
 4093SOL     OW14117   8.810   2.842   7.232
 4093SOL    HW114118   8.776   2.929   7.251
 4093SOL    HW214119   8.842   2.810   7.316
 4094SOL     OW14120   2.570   3.853   8.232
 4094SOL    HW114121   2.621   3.934   8.238
 4094SOL    HW214122   2.543   3.835   8.323
 4095SOL     OW14123   9.262   6.980   4.001
 4095SOL    HW114124   9.174   6.981   3.963
 4095SOL    HW214125   9.305   7.057   3.965
 4096SOL     OW14126  10.772   4.465   6.154
 4096SOL    HW114127  10.705   4.422   6.101
 4096SOL    HW214128  10.775   4.555   6.122
 4097SOL     OW14129   4.143   6.716   0.037
 4097SOL    HW114130   4.231   6.738   0.008
 4097SOL    HW214131   4.146   6.724   0.132
 4098SOL     OW14132  12.461   4.724  11.905
 4098SOL    HW114133  12.465   4.639  11.862
 4098SOL    HW214134  12.368   4.740  11.919
 4099SOL     OW14135  11.195  13.612   9.029
 4099SOL    HW114136  11.179  13.675   8.959
 4099SOL    HW214137  11.267  13.557   8.997
 4100SOL     OW14138   0.327   1.460   8.082
 4100SOL    HW114139   0.405   1.426   8.037
 4100SOL    HW214140   0.295   1.385   8.132
 4101SOL     OW14141  11.360   5.376   6.556
 4101SOL    HW114142  11.379   5.297   6.505
 4101SOL    HW214143  11.439   5.389   6.610
 4102SOL     OW14144  14.143   9.894   5.569
 4102SOL    HW114145  14.139   9.800   5.550
 4102SOL    HW214146  14.056   9.914   5.605
 4103SOL     OW14147   3.909   7.413  10.509
 4103SOL    HW114148   3.837   7.471  10.531
 4103SOL    HW214149   3.962   7.408  10.589
 4104SOL     OW14150   0.197   5.728   5.733
 4104SOL    HW114151   0.242   5.731   5.648
 4104SOL    HW214152   0.257   5.770   5.794
 4105SOL     OW14153   5.655   3.695   6.281
 4105SOL    HW114154   5.595   3.645   6.337
 4105SOL    HW214155   5.698   3.628   6.228
 4106SOL     OW14156   2.732   8.624   8.427
 4106SOL    HW114157   2.713   8.552   8.367
 4106SOL    HW214158   2.825   8.613   8.449
 4107SOL     OW14159   7.728  12.023   9.436
 4107SOL    HW114160   7.710  12.105   9.390
 4107SOL    HW214161   7.666  11.961   9.399
 4108SOL     OW14162   3.470   9.593   0.162
 4108SOL    HW114163   3.491   9.502   0.141
 4108SOL    HW214164   3.401   9.617   0.100
 4109SOL     OW14165  10.914   8.753  13.572
 4109SOL    HW114166  10.968   8.828  13.545
 4109SOL    HW214167  10.824   8.782  13.555
 4110SOL     OW14168  11.104   5.558   0.937
 4110SOL    HW114169  11.012   5.537   0.919
 4110SOL    HW214170  11.107   5.654   0.936
 4111SOL     OW14171   4.094   1.773   2.068
 4111SOL    HW114172   4.179   1.764   2.025
 4111SOL    HW214173   4.040   1.703   2.030
 4112SOL     OW14174   9.966   1.321   5.146
 4112SOL    HW114175   9.910   1.374   5.090
 4112SOL    HW214176  10.024   1.384   5.190
 4113SOL     OW14177   9.669   4.667   1.096
 4113SOL    HW114178   9.718   4.736   1.052
 4113SOL    HW214179   9.697   4.671   1.188
 4114SOL     OW14180   8.356   4.139  13.737
 4114SOL    HW114181   8.293   4.082  13.694
 4114SOL    HW214182   8.341   4.225  13.697
 4115SOL     OW14183   8.085   4.928   4.755
 4115SOL    HW114184   8.027   4.853   4.753
 4115SOL    HW214185   8.132   4.921   4.838
 4116SOL     OW14186   5.128   3.385  14.016
 4116SOL    HW114187   5.223   3.381  14.005
 4116SOL    HW214188   5.111   3.474  14.047
 4117SOL     OW14189   5.048  12.439   6.300
 4117SOL    HW114190   5.114  12.507   6.290
 4117SOL    HW214191   5.054  12.387   6.220
 4118SOL     OW14192   8.396  13.272   0.663
 4118SOL    HW114193   8.375  13.183   0.635
 4118SOL    HW214194   8.445  13.262   0.744
 4119SOL     OW14195   7.437  11.450   8.721
 4119SOL    HW114196   7.443  11.375   8.661
 4119SOL    HW214197   7.500  11.430   8.790
 4120SOL     OW14198  11.207   9.292   3.901
 4120SOL    HW114199  11.275   9.357   3.887
 4120SOL    HW214200  11.185   9.261   3.813
 4121SOL     OW14201   4.828   6.737   9.345
 4121SOL    HW114202   4.853   6.827   9.363
 4121SOL    HW214203   4.835   6.728   9.250
 4122SOL     OW14204   9.328   9.891   8.157
 4122SOL    HW114205   9.266   9.932   8.097
 4122SOL    HW214206   9.360   9.814   8.110
 4123SOL     OW14207  13.639   2.047  11.022
 4123SOL    HW114208  13.603   2.012  10.941
 4123SOL    HW214209  13.568   2.098  11.061
 4124SOL     OW14210   5.063  13.948  12.763
 4124SOL    HW114211   5.082  14.010  12.692
 4124SOL    HW214212   5.044  14.003  12.839
 4125SOL     OW14213  10.933  14.110   3.356
 4125SOL    HW114214  10.880  14.085   3.281
 4125SOL    HW214215  10.872  14.157   3.413
 4126SOL     OW14216   5.018  14.096   8.148
 4126SOL    HW114217   5.040  14.003   8.163
 4126SOL    HW214218   5.061  14.117   8.065
 4127SOL     OW14219   2.918  10.840   1.614
 4127SOL    HW114220   2.975  10.905   1.572
 4127SOL    HW214221   2.902  10.775   1.546
 4128SOL     OW14222   0.374  12.344   8.834
 4128SOL    HW114223   0.456  12.362   8.880
 4128SOL    HW214224   0.329  12.279   8.888
 4129SOL     OW14225   6.265   4.891  13.350
 4129SOL    HW114226   6.224   4.899  13.264
 4129SOL    HW214227   6.356   4.915  13.335
 4130SOL     OW14228   8.459  11.384  12.877
 4130SOL    HW114229   8.544  11.355  12.909
 4130SOL    HW214230   8.479  11.441  12.802
 4131SOL     OW14231   2.559   3.800  10.019
 4131SOL    HW114232   2.633   3.862  10.018
 4131SOL    HW214233   2.487   3.849   9.981
 4132SOL     OW14234  12.651   3.863   4.755
 4132SOL    HW114235  12.573   3.917   4.741
 4132SOL    HW214236  12.617   3.775   4.773
 4133SOL     OW14237  10.115   1.774   2.925
 4133SOL    HW114238  10.046   1.800   2.986
 4133SOL    HW214239  10.196   1.785   2.974
 4134SOL     OW14240  14.188   1.838  12.087
 4134SOL    HW114241  14.219   1.898  12.019
 4134SOL    HW214242  14.110   1.880  12.123
 4135SOL     OW14243  13.033   9.601   0.952
 4135SOL    HW114244  13.092   9.676   0.944
 4135SOL    HW214245  12.988   9.597   0.868
 4136SOL     OW14246   5.280   9.169  14.583
 4136SOL    HW114247   5.313   9.212  14.662
 4136SOL    HW214248   5.186   9.184  14.584
 4137SOL     OW14249   8.977   5.150   3.805
 4137SOL    HW114250   8.884   5.172   3.793
 4137SOL    HW214251   8.999   5.184   3.892
 4138SOL     OW14252   5.877   6.408   8.523
 4138SOL    HW114253   5.843   6.403   8.613
 4138SOL    HW214254   5.824   6.477   8.482
 4139SOL     OW14255  12.444   4.143   8.534
 4139SOL    HW114256  12.359   4.116   8.569
 4139SOL    HW214257  12.451   4.235   8.559
 4140SOL     OW14258   2.330   6.033   4.218
 4140SOL    HW114259   2.305   5.941   4.209
 4140SOL    HW214260   2.289   6.061   4.299
 4141SOL     OW14261   7.433   2.372   3.593
 4141SOL    HW114262   7.462   2.312   3.524
 4141SOL    HW214263   7.512   2.394   3.641
 4142SOL     OW14264  10.798   9.930   3.243
 4142SOL    HW114265  10.728   9.969   3.295
 4142SOL    HW214266  10.816   9.995   3.174
 4143SOL     OW14267  14.829  13.373   0.303
 4143SOL    HW114268  14.758  13.421   0.260
 4143SOL    HW214269   0.019  13.440   0.328
 4144SOL     OW14270   9.360   6.427   9.869
 4144SOL    HW114271   9.288   6.421   9.931
 4144SOL    HW214272   9.436   6.453   9.922
 4145SOL     OW14273  14.693   2.940   3.157
 4145SOL    HW114274  14.624   2.995   3.121
 4145SOL    HW214275  14.736   2.994   3.223
 4146SOL     OW14276  11.915   3.225   8.474
 4146SOL    HW114277  11.916   3.306   8.525
 4146SOL    HW214278  11.973   3.166   8.522
 4147SOL     OW14279  12.865  13.914   6.540
 4147SOL    HW114280  12.914  13.919   6.458
 4147SOL    HW214281  12.835  14.004   6.556
 4148SOL     OW14282   1.265  13.039  12.593
 4148SOL    HW114283   1.175  13.029  12.625
 4148SOL    HW214284   1.277  12.964  12.534
 4149SOL     OW14285   3.816   5.162   1.409
 4149SOL    HW114286   3.896   5.195   1.449
 4149SOL    HW214287   3.789   5.089   1.465
 4150SOL     OW14288   8.712  13.012  12.560
 4150SOL    HW114289   8.742  12.992  12.648
 4150SOL    HW214290   8.617  13.016  12.566
 4151SOL     OW14291  13.670  14.728  12.735
 4151SOL    HW114292  13.675  14.822  12.721
 4151SOL    HW214293  13.760  14.701  12.751
 4152SOL     OW14294  14.664   2.833   6.595
 4152SOL    HW114295  14.692   2.861   6.682
 4152SOL    HW214296  14.724   2.878   6.535
 4153SOL     OW14297   0.536   2.954   1.878
 4153SOL    HW114298   0.477   2.934   1.950
 4153SOL    HW214299   0.496   3.028   1.833
 4154SOL     OW14300   4.571   5.379   4.021
 4154SOL    HW114301   4.613   5.306   3.976
 4154SOL    HW214302   4.504   5.409   3.960
 4155SOL     OW14303  11.226   9.240   4.934
 4155SOL    HW114304  11.171   9.296   4.879
 4155SOL    HW214305  11.227   9.284   5.019
 4156SOL     OW14306   1.375   0.646   0.456
 4156SOL    HW114307   1.458   0.599   0.458
 4156SOL    HW214308   1.320   0.596   0.395
 4157SOL     OW14309  10.027   8.330   0.123
 4157SOL    HW114310  10.119   8.353   0.135
 4157SOL    HW214311  10.029   8.240   0.092
 4158SOL     OW14312   2.882  10.816   6.775
 4158SOL    HW114313   2.883  10.721   6.784
 4158SOL    HW214314   2.792  10.841   6.795
 4159SOL     OW14315   6.031  12.275   5.034
 4159SOL    HW114316   6.059  12.312   5.117
 4159SOL    HW214317   6.022  12.181   5.052
 4160SOL     OW14318   3.875  10.553   0.754
 4160SOL    HW114319   3.812  10.522   0.819
 4160SOL    HW214320   3.961  10.543   0.796
 4161SOL     OW14321   5.575   6.972  12.328
 4161SOL    HW114322   5.507   7.014  12.380
 4161SOL    HW214323   5.587   7.031  12.253
 4162SOL     OW14324   3.047   0.764   7.064
 4162SOL    HW114325   3.046   0.762   6.968
 4162SOL    HW214326   3.011   0.850   7.087
 4163SOL     OW14327   5.440   6.020   7.127
 4163SOL    HW114328   5.396   6.005   7.043
 4163SOL    HW214329   5.533   6.009   7.108
 4164SOL     OW14330   5.391   0.725   2.575
 4164SOL    HW114331   5.350   0.809   2.596
 4164SOL    HW214332   5.393   0.678   2.658
 4165SOL     OW14333   9.351  14.687   5.863
 4165SOL    HW114334   9.341  14.768   5.913
 4165SOL    HW214335   9.339  14.713   5.772
 4166SOL     OW14336   9.408   1.934  13.223
 4166SOL    HW114337   9.333   1.982  13.186
 4166SOL    HW214338   9.393   1.936  13.317
 4167SOL     OW14339   7.147  13.404   3.599
 4167SOL    HW114340   7.081  13.434   3.536
 4167SOL    HW214341   7.098  13.345   3.657
 4168SOL     OW14342   8.131  13.988   9.436
 4168SOL    HW114343   8.067  14.060   9.435
 4168SOL    HW214344   8.103  13.930   9.365
 4169SOL     OW14345   3.400   9.800   2.568
 4169SOL    HW114346   3.343   9.876   2.581
 4169SOL    HW214347   3.360   9.730   2.619
 4170SOL     OW14348   3.694   3.521   6.888
 4170SOL    HW114349   3.770   3.544   6.942
 4170SOL    HW214350   3.723   3.537   6.798
 4171SOL     OW14351  13.430   4.766   5.805
 4171SOL    HW114352  13.411   4.858   5.821
 4171SOL    HW214353  13.347   4.721   5.821
 4172SOL     OW14354  11.047   3.936   3.195
 4172SOL    HW114355  11.012   4.005   3.252
 4172SOL    HW214356  11.001   3.857   3.224
 4173SOL     OW14357   5.505   9.522   7.832
 4173SOL    HW114358   5.558   9.602   7.830
 4173SOL    HW214359   5.552   9.462   7.890
 4174SOL     OW14360   5.189   8.487  10.158
 4174SOL    HW114361   5.232   8.537  10.227
 4174SOL    HW214362   5.214   8.396  10.175
 4175SOL     OW14363   2.360  13.275   0.198
 4175SOL    HW114364   2.422  13.212   0.235
 4175SOL    HW214365   2.319  13.229   0.125
 4176SOL     OW14366  12.475   1.646  10.164
 4176SOL    HW114367  12.397   1.602  10.128
 4176SOL    HW214368  12.539   1.575  10.175
 4177SOL     OW14369   9.336   5.402  10.282
 4177SOL    HW114370   9.253   5.415  10.237
 4177SOL    HW214371   9.399   5.452  10.230
 4178SOL     OW14372   9.930  11.407   1.707
 4178SOL    HW114373  10.001  11.462   1.672
 4178SOL    HW214374   9.934  11.326   1.655
 4179SOL     OW14375   9.345  10.901   7.836
 4179SOL    HW114376   9.289  10.836   7.794
 4179SOL    HW214377   9.362  10.865   7.924
 4180SOL     OW14378  10.326  12.940   0.050
 4180SOL    HW114379  10.274  12.860   0.052
 4180SOL    HW214380  10.395  12.926   0.115
 4181SOL     OW14381   2.896   9.083   5.336
 4181SOL    HW114382   2.804   9.057   5.336
 4181SOL    HW214383   2.911   9.116   5.424
 4182SOL     OW14384   4.442   9.393   5.802
 4182SOL    HW114385   4.481   9.443   5.730
 4182SOL    HW214386   4.481   9.429   5.881
 4183SOL     OW14387   2.724   1.480   0.800
 4183SOL    HW114388   2.643   1.431   0.791
 4183SOL    HW214389   2.792   1.413   0.809
 4184SOL     OW14390   0.694   4.688  12.261
 4184SOL    HW114391   0.612   4.639  12.257
 4184SOL    HW214392   0.673   4.773  12.221
 4185SOL     OW14393   5.933   2.326  13.254
 4185SOL    HW114394   6.005   2.382  13.283
 4185SOL    HW214395   5.855   2.380  13.264
 4186SOL     OW14396   7.788   9.966   9.254
 4186SOL    HW114397   7.697   9.948   9.276
 4186SOL    HW214398   7.786   9.990   9.161
 4187SOL     OW14399  12.310   9.948   4.816
 4187SOL    HW114400  12.324  10.030   4.768
 4187SOL    HW214401  12.301   9.975   4.907
 4188SOL     OW14402  10.984  12.667  14.598
 4188SOL    HW114403  10.916  12.725  14.563
 4188SOL    HW214404  11.020  12.624  14.520
 4189SOL     OW14405   5.633  14.761  13.590
 4189SOL    HW114406   5.573  14.757  13.665
 4189SOL    HW214407   5.640  14.855  13.571
 4190SOL     OW14408   4.289   3.418  10.775
 4190SOL    HW114409   4.378   3.385  10.763
 4190SOL    HW214410   4.243   3.347  10.819
 4191SOL     OW14411   7.523   2.595   8.277
 4191SOL    HW114412   7.521   2.657   8.350
 4191SOL    HW214413   7.612   2.559   8.279
 4192SOL     OW14414   0.091   3.470  10.652
 4192SOL    HW114415   0.094   3.532  10.578
 4192SOL    HW214416   0.177   3.477  10.692
 4193SOL     OW14417   2.212   1.246   5.690
 4193SOL    HW114418   2.119   1.248   5.668
 4193SOL    HW214419   2.235   1.153   5.693
 4194SOL     OW14420  11.404  12.382  11.130
 4194SOL    HW114421  11.400  12.373  11.035
 4194SOL    HW214422  11.495  12.365  11.152
 4195SOL     OW14423  12.723   4.215   0.016
 4195SOL    HW114424  12.714   4.161   0.094
 4195SOL    HW214425  12.748   4.302   0.049
 4196SOL     OW14426  12.391   6.189   7.540
 4196SOL    HW114427  12.319   6.133   7.567
 4196SOL    HW214428  12.350   6.260   7.491
 4197SOL     OW14429   8.025   5.554  14.047
 4197SOL    HW114430   8.033   5.575  14.140
 4197SOL    HW214431   8.062   5.466  14.039
 4198SOL     OW14432   0.969  10.579   4.798
 4198SOL    HW114433   0.950  10.571   4.704
 4198SOL    HW214434   0.919  10.508   4.838
 4199SOL     OW14435   6.856   4.299  13.629
 4199SOL    HW114436   6.906   4.278  13.549
 4199SOL    HW214437   6.786   4.356  13.598
 4200SOL     OW14438   6.199   7.933  13.826
 4200SOL    HW114439   6.194   8.015  13.876
 4200SOL    HW214440   6.109   7.919  13.796
 4201SOL     OW14441   0.719  11.653   8.613
 4201SOL    HW114442   0.670  11.571   8.618
 4201SOL    HW214443   0.700  11.697   8.696
 4202SOL     OW14444  13.129   7.255  12.848
 4202SOL    HW114445  13.111   7.263  12.942
 4202SOL    HW214446  13.166   7.340  12.824
 4203SOL     OW14447   0.164   1.362   1.995
 4203SOL    HW114448   0.088   1.411   2.023
 4203SOL    HW214449   0.160   1.363   1.899
 4204SOL     OW14450   3.493  10.943   6.129
 4204SOL    HW114451   3.420  10.979   6.078
 4204SOL    HW214452   3.524  10.869   6.078
 4205SOL     OW14453   3.422   0.129  11.621
 4205SOL    HW114454   3.370   0.208  11.614
 4205SOL    HW214455   3.496   0.153  11.677
 4206SOL     OW14456   3.849  11.724   8.811
 4206SOL    HW114457   3.885  11.636   8.796
 4206SOL    HW214458   3.762  11.709   8.847
 4207SOL     OW14459   8.401   0.351  13.219
 4207SOL    HW114460   8.310   0.360  13.248
 4207SOL    HW214461   8.411   0.258  13.200
 4208SOL     OW14462   7.948   4.033  12.164
 4208SOL    HW114463   7.930   3.960  12.105
 4208SOL    HW214464   7.914   4.110  12.118
 4209SOL     OW14465   9.486   0.772  10.346
 4209SOL    HW114466   9.552   0.703  10.347
 4209SOL    HW214467   9.415   0.738  10.292
 4210SOL     OW14468   4.563   0.218  11.904
 4210SOL    HW114469   4.590   0.191  11.816
 4210SOL    HW214470   4.506   0.147  11.934
 4211SOL     OW14471  13.940   2.175  12.894
 4211SOL    HW114472  14.009   2.241  12.899
 4211SOL    HW214473  13.939   2.134  12.980
 4212SOL     OW14474   2.821   3.763   0.814
 4212SOL    HW114475   2.916   3.749   0.808
 4212SOL    HW214476   2.805   3.775   0.908
 4213SOL     OW14477  13.457  12.167   2.669
 4213SOL    HW114478  13.384  12.160   2.607
 4213SOL    HW214479  13.445  12.092   2.728
 4214SOL     OW14480  13.929   3.833   9.660
 4214SOL    HW114481  14.016   3.793   9.656
 4214SOL    HW214482  13.936   3.910   9.604
 4215SOL     OW14483   3.458   5.531  14.338
 4215SOL    HW114484   3.398   5.574  14.276
 4215SOL    HW214485   3.400   5.485  14.398
 4216SOL     OW14486  10.078   7.707   5.282
 4216SOL    HW114487  10.155   7.764   5.282
 4216SOL    HW214488  10.097   7.641   5.350
 4217SOL     OW14489   8.868   0.642  12.068
 4217SOL    HW114490   8.879   0.628  11.974
 4217SOL    HW214491   8.808   0.572  12.096
 4218SOL     OW14492   3.773   3.721   7.317
 4218SOL    HW114493   3.730   3.638   7.340
 4218SOL    HW214494   3.735   3.746   7.233
 4219SOL     OW14495  14.832   5.347  10.237
 4219SOL    HW114496   0.040   5.394  10.256
 4219SOL    HW214497  14.769   5.415  10.214
 4220SOL     OW14498   5.590  10.189   2.894
 4220SOL    HW114499   5.627  10.246   2.826
 4220SOL    HW214500   5.660  10.127   2.914
 4221SOL     OW14501   7.306   2.583  11.169
 4221SOL    HW114502   7.357   2.537  11.102
 4221SOL    HW214503   7.265   2.513  11.220
 4222SOL     OW14504   2.090   7.286   8.846
 4222SOL    HW114505   2.003   7.277   8.883
 4222SOL    HW214506   2.085   7.242   8.761
 4223SOL     OW14507  14.050   2.350   5.565
 4223SOL    HW114508  14.087   2.416   5.506
 4223SOL    HW214509  14.050   2.269   5.514
 4224SOL     OW14510  13.817   3.573   5.025
 4224SOL    HW114511  13.769   3.643   5.069
 4224SOL    HW214512  13.886   3.618   4.976
 4225SOL     OW14513   1.334  12.307   8.238
 4225SOL    HW114514   1.305  12.294   8.328
 4225SOL    HW214515   1.397  12.237   8.222
 4226SOL     OW14516  12.978   9.741   3.211
 4226SOL    HW114517  12.896   9.767   3.253
 4226SOL    HW214518  13.016   9.823   3.179
 4227SOL     OW14519  14.169   9.910   7.372
 4227SOL    HW114520  14.218   9.867   7.441
 4227SOL    HW214521  14.210   9.879   7.291
 4228SOL     OW14522   9.994   3.509   9.312
 4228SOL    HW114523  10.025   3.436   9.365
 4228SOL    HW214524  10.065   3.527   9.251
 4229SOL     OW14525  13.449   0.767  11.086
 4229SOL    HW114526  13.425   0.856  11.062
 4229SOL    HW214527  13.478   0.727  11.004
 4230SOL     OW14528   8.008   3.572   2.233
 4230SOL    HW114529   8.082   3.633   2.241
 4230SOL    HW214530   8.005   3.527   2.317
 4231SOL     OW14531  11.861   8.740   9.952
 4231SOL    HW114532  11.865   8.779  10.039
 4231SOL    HW214533  11.791   8.788   9.907
 4232SOL     OW14534  11.759  11.657   4.789
 4232SOL    HW114535  11.832  11.702   4.746
 4232SOL    HW214536  11.709  11.618   4.718
 4233SOL     OW14537  12.470   8.559   4.857
 4233SOL    HW114538  12.519   8.522   4.931
 4233SOL    HW214539  12.434   8.482   4.812
 4234SOL     OW14540  11.484  14.533  11.026
 4234SOL    HW114541  11.521  14.620  11.009
 4234SOL    HW214542  11.517  14.479  10.955
 4235SOL     OW14543  14.316   2.410  13.261
 4235SOL    HW114544  14.284   2.363  13.338
 4235SOL    HW214545  14.408   2.428  13.280
 4236SOL     OW14546   6.009   0.728   1.843
 4236SOL    HW114547   5.995   0.810   1.796
 4236SOL    HW214548   6.026   0.754   1.934
 4237SOL     OW14549   1.880   4.162  10.148
 4237SOL    HW114550   1.813   4.199  10.090
 4237SOL    HW214551   1.893   4.073  10.116
 4238SOL     OW14552   6.793   0.212   0.787
 4238SOL    HW114553   6.763   0.152   0.857
 4238SOL    HW214554   6.839   0.282   0.834
 4239SOL     OW14555   1.308  11.522  12.463
 4239SOL    HW114556   1.250  11.456  12.501
 4239SOL    HW214557   1.352  11.477  12.391
 4240SOL     OW14558   2.929   0.189   4.945
 4240SOL    HW114559   2.981   0.269   4.958
 4240SOL    HW214560   2.911   0.158   5.034
 4241SOL     OW14561   0.273  10.721   5.289
 4241SOL    HW114562   0.213  10.784   5.329
 4241SOL    HW214563   0.360  10.751   5.317
 4242SOL     OW14564  13.492  11.224   1.238
 4242SOL    HW114565  13.509  11.143   1.190
 4242SOL    HW214566  13.563  11.283   1.211
 4243SOL     OW14567   4.754  11.331   8.156
 4243SOL    HW114568   4.744  11.377   8.073
 4243SOL    HW214569   4.682  11.268   8.157
 4244SOL     OW14570   4.881   7.688  13.943
 4244SOL    HW114571   4.796   7.729  13.952
 4244SOL    HW214572   4.944   7.755  13.970
 4245SOL     OW14573   6.546  13.530   1.615
 4245SOL    HW114574   6.499  13.452   1.643
 4245SOL    HW214575   6.493  13.567   1.544
 4246SOL     OW14576  12.669   4.006   6.035
 4246SOL    HW114577  12.683   3.923   5.989
 4246SOL    HW214578  12.757   4.040   6.052
 4247SOL     OW14579   9.665  14.180   0.605
 4247SOL    HW114580   9.570  14.171   0.612
 4247SOL    HW214581   9.682  14.189   0.511
 4248SOL     OW14582   5.226  11.684   3.916
 4248SOL    HW114583   5.175  11.625   3.861
 4248SOL    HW214584   5.278  11.626   3.972
 4249SOL     OW14585   4.085   6.928   6.516
 4249SOL    HW114586   4.072   6.935   6.611
 4249SOL    HW214587   4.038   6.849   6.490
 4250SOL     OW14588  14.598   7.651  12.101
 4250SOL    HW114589  14.606   7.677  12.009
 4250SOL    HW214590  14.609   7.732  12.150
 4251SOL     OW14591  10.533   1.087  10.914
 4251SOL    HW114592  10.619   1.101  10.876
 4251SOL    HW214593  10.472   1.101  10.842
 4252SOL     OW14594   0.332   2.032   1.264
 4252SOL    HW114595   0.335   2.069   1.352
 4252SOL    HW214596   0.259   2.077   1.222
 4253SOL     OW14597   0.448   4.438  10.785
 4253SOL    HW114598   0.541   4.432  10.807
 4253SOL    HW214599   0.416   4.515  10.832
 4254SOL     OW14600   0.575  12.180   6.374
 4254SOL    HW114601   0.512  12.216   6.436
 4254SOL    HW214602   0.535  12.191   6.288
 4255SOL     OW14603   2.255  11.475   3.537
 4255SOL    HW114604   2.319  11.510   3.475
 4255SOL    HW214605   2.248  11.382   3.512
 4256SOL     OW14606   0.280   7.540  14.471
 4256SOL    HW114607   0.276   7.632  14.445
 4256SOL    HW214608   0.317   7.496  14.394
 4257SOL     OW14609   3.209   7.363   6.758
 4257SOL    HW114610   3.150   7.305   6.805
 4257SOL    HW214611   3.281   7.379   6.819
 4258SOL     OW14612   7.442   8.783   2.433
 4258SOL    HW114613   7.379   8.711   2.435
 4258SOL    HW214614   7.400   8.852   2.485
 4259SOL     OW14615   7.474  12.896  13.402
 4259SOL    HW114616   7.521  12.958  13.457
 4259SOL    HW214617   7.497  12.921  13.312
 4260SOL     OW14618  10.052  11.058   2.243
 4260SOL    HW114619   9.985  11.012   2.295
 4260SOL    HW214620  10.068  10.999   2.169
 4261SOL     OW14621  14.664  10.338   2.841
 4261SOL    HW114622  14.631  10.286   2.914
 4261SOL    HW214623  14.597  10.329   2.773
 4262SOL     OW14624  11.339   6.570  14.578
 4262SOL    HW114625  11.323   6.491  14.527
 4262SOL    HW214626  11.308   6.547  14.666
 4263SOL     OW14627   1.528   0.863  13.528
 4263SOL    HW114628   1.554   0.914  13.451
 4263SOL    HW214629   1.609   0.821  13.558
 4264SOL     OW14630  14.102   8.274   8.363
 4264SOL    HW114631  14.025   8.325   8.339
 4264SOL    HW214632  14.160   8.337   8.407
 4265SOL     OW14633   8.144   8.990   9.545
 4265SOL    HW114634   8.166   8.907   9.504
 4265SOL    HW214635   8.228   9.034   9.558
 4266SOL     OW14636   7.019   0.860   8.372
 4266SOL    HW114637   6.957   0.810   8.320
 4266SOL    HW214638   6.965   0.904   8.438
 4267SOL     OW14639   1.353   7.301   6.539
 4267SOL    HW114640   1.330   7.375   6.595
 4267SOL    HW214641   1.439   7.324   6.503
 4268SOL     OW14642  13.856   6.173  11.577
 4268SOL    HW114643  13.909   6.096  11.596
 4268SOL    HW214644  13.766   6.142  11.584
 4269SOL     OW14645  11.458   0.410   7.079
 4269SOL    HW114646  11.413   0.495   7.075
 4269SOL    HW214647  11.394   0.351   7.118
 4270SOL     OW14648  10.958   7.546   8.878
 4270SOL    HW114649  10.954   7.639   8.856
 4270SOL    HW214650  10.867   7.522   8.896
 4271SOL     OW14651   7.159   0.147  11.220
 4271SOL    HW114652   7.129   0.056  11.213
 4271SOL    HW214653   7.162   0.178  11.130
 4272SOL     OW14654  12.944   5.617   5.068
 4272SOL    HW114655  12.878   5.614   4.998
 4272SOL    HW214656  12.909   5.682   5.130
 4273SOL     OW14657  12.862   0.458   7.960
 4273SOL    HW114658  12.791   0.429   7.903
 4273SOL    HW214659  12.925   0.500   7.900
 4274SOL     OW14660   9.404  10.270   9.483
 4274SOL    HW114661   9.354  10.190   9.467
 4274SOL    HW214662   9.395  10.285   9.577
 4275SOL     OW14663   2.448   4.922   6.034
 4275SOL    HW114664   2.459   4.959   5.947
 4275SOL    HW214665   2.520   4.860   6.043
 4276SOL     OW14666  11.894   1.337   6.213
 4276SOL    HW114667  11.837   1.370   6.282
 4276SOL    HW214668  11.875   1.244   6.208
 4277SOL     OW14669  13.013  13.906  14.696
 4277SOL    HW114670  13.008  13.970  14.625
 4277SOL    HW214671  12.922  13.880  14.711
 4278SOL     OW14672   1.279   5.563   8.159
 4278SOL    HW114673   1.194   5.584   8.120
 4278SOL    HW214674   1.316   5.648   8.183
 4279SOL     OW14675   6.004   7.095   7.502
 4279SOL    HW114676   5.919   7.126   7.533
 4279SOL    HW214677   5.984   7.043   7.424
 4280SOL     OW14678   0.268  13.626  13.721
 4280SOL    HW114679   0.292  13.534  13.731
 4280SOL    HW214680   0.335  13.662  13.663
 4281SOL     OW14681   5.528   8.332  14.794
 4281SOL    HW114682   5.534   8.268  14.723
 4281SOL    HW214683   5.612   8.326  14.839
 4282SOL     OW14684   4.565  11.828  10.647
 4282SOL    HW114685   4.657  11.801  10.647
 4282SOL    HW214686   4.559  11.893  10.717
 4283SOL     OW14687  14.541   9.924  13.529
 4283SOL    HW114688  14.598   9.980  13.582
 4283SOL    HW214689  14.600   9.887  13.462
 4284SOL     OW14690   1.105   2.997  11.882
 4284SOL    HW114691   1.093   2.938  11.807
 4284SOL    HW214692   1.051   2.959  11.951
 4285SOL     OW14693  11.010   4.158   8.339
 4285SOL    HW114694  11.031   4.065   8.329
 4285SOL    HW214695  10.918   4.159   8.365
 4286SOL     OW14696   1.428  10.626  14.325
 4286SOL    HW114697   1.419  10.710  14.281
 4286SOL    HW214698   1.338  10.595  14.336
 4287SOL     OW14699   2.356  13.340   9.275
 4287SOL    HW114700   2.399  13.383   9.201
 4287SOL    HW214701   2.296  13.277   9.234
 4288SOL     OW14702   3.042   5.892   5.162
 4288SOL    HW114703   3.097   5.824   5.124
 4288SOL    HW214704   3.100   5.939   5.222
 4289SOL     OW14705  12.959   5.317   1.838
 4289SOL    HW114706  12.956   5.283   1.928
 4289SOL    HW214707  12.874   5.358   1.824
 4290SOL     OW14708  10.745  13.073   9.308
 4290SOL    HW114709  10.837  13.056   9.291
 4290SOL    HW214710  10.744  13.129   9.385
 4291SOL     OW14711   8.687   1.704  14.482
 4291SOL    HW114712   8.701   1.670  14.570
 4291SOL    HW214713   8.773   1.703  14.441
 4292SOL     OW14714   4.587   0.086  14.301
 4292SOL    HW114715   4.631   0.164  14.335
 4292SOL    HW214716   4.496   0.113  14.290
 4293SOL     OW14717   1.240   4.939   0.195
 4293SOL    HW114718   1.173   4.974   0.253
 4293SOL    HW214719   1.194   4.920   0.113
 4294SOL     OW14720   6.137   7.933   0.293
 4294SOL    HW114721   6.120   7.849   0.336
 4294SOL    HW214722   6.213   7.916   0.237
 4295SOL     OW14723   0.773  12.558  10.378
 4295SOL    HW114724   0.761  12.479  10.324
 4295SOL    HW214725   0.767  12.525  10.468
 4296SOL     OW14726  14.716  12.785   0.699
 4296SOL    HW114727  14.713  12.878   0.680
 4296SOL    HW214728  14.771  12.778   0.777
 4297SOL     OW14729  13.315  10.631   2.401
 4297SOL    HW114730  13.247  10.653   2.464
 4297SOL    HW214731  13.385  10.693   2.418
 4298SOL     OW14732   9.161  10.086   0.474
 4298SOL    HW114733   9.178  10.049   0.387
 4298SOL    HW214734   9.232  10.052   0.529
 4299SOL     OW14735  13.956   1.587   2.336
 4299SOL    HW114736  13.921   1.562   2.421
 4299SOL    HW214737  13.935   1.680   2.327
 4300SOL     OW14738   8.419   7.027   4.094
 4300SOL    HW114739   8.337   7.065   4.127
 4300SOL    HW214740   8.420   7.048   4.001
 4301SOL     OW14741  13.136   8.112   9.337
 4301SOL    HW114742  13.100   8.027   9.363
 4301SOL    HW214743  13.101   8.173   9.402
 4302SOL     OW14744  13.277   5.503   9.596
 4302SOL    HW114745  13.352   5.508   9.537
 4302SOL    HW214746  13.278   5.586   9.643
 4303SOL     OW14747  13.452   0.296   3.153
 4303SOL    HW114748  13.546   0.303   3.172
 4303SOL    HW214749  13.415   0.257   3.232
 4304SOL     OW14750  10.366   0.404  11.508
 4304SOL    HW114751  10.339   0.489  11.473
 4304SOL    HW214752  10.306   0.341  11.468
 4305SOL     OW14753   0.510   1.519   7.035
 4305SOL    HW114754   0.445   1.588   7.025
 4305SOL    HW214755   0.570   1.530   6.961
 4306SOL     OW14756  11.801   6.248   4.759
 4306SOL    HW114757  11.798   6.319   4.822
 4306SOL    HW214758  11.737   6.273   4.692
 4307SOL     OW14759   1.273  13.567  12.460
 4307SOL    HW114760   1.183  13.592  12.481
 4307SOL    HW214761   1.267  13.531  12.371
 4308SOL     OW14762  13.840   6.522   8.787
 4308SOL    HW114763  13.862   6.615   8.778
 4308SOL    HW214764  13.784   6.504   8.712
 4309SOL     OW14765   1.336   3.051   7.923
 4309SOL    HW114766   1.381   3.078   7.843
 4309SOL    HW214767   1.396   3.077   7.994
 4310SOL     OW14768   8.763   7.424   5.493
 4310SOL    HW114769   8.739   7.332   5.504
 4310SOL    HW214770   8.793   7.431   5.403
 4311SOL     OW14771  13.873   6.907  14.723
 4311SOL    HW114772  13.929   6.860  14.661
 4311SOL    HW214773  13.935   6.956  14.778
 4312SOL     OW14774   1.993   1.352   4.277
 4312SOL    HW114775   2.076   1.308   4.295
 4312SOL    HW214776   2.016   1.444   4.264
 4313SOL     OW14777   6.224   2.669   4.775
 4313SOL    HW114778   6.169   2.636   4.845
 4313SOL    HW214779   6.177   2.746   4.741
 4314SOL     OW14780  13.432   7.096   0.234
 4314SOL    HW114781  13.378   7.062   0.305
 4314SOL    HW214782  13.520   7.101   0.272
 4315SOL     OW14783  11.509   1.195   0.320
 4315SOL    HW114784  11.547   1.264   0.375
 4315SOL    HW214785  11.578   1.129   0.315
 4316SOL     OW14786  12.998   7.961   1.998
 4316SOL    HW114787  13.003   8.042   1.948
 4316SOL    HW214788  13.012   7.987   2.089
 4317SOL     OW14789   7.220  14.807  10.109
 4317SOL    HW114790   7.255  14.857  10.183
 4317SOL    HW214791   7.277  14.829  10.036
 4318SOL     OW14792   4.757  13.418   9.340
 4318SOL    HW114793   4.727  13.329   9.322
 4318SOL    HW214794   4.746  13.429   9.434
 4319SOL     OW14795  11.886   5.040   9.092
 4319SOL    HW114796  11.968   5.013   9.050
 4319SOL    HW214797  11.821   5.035   9.022
 4320SOL     OW14798  13.431  10.064   2.792
 4320SOL    HW114799  13.439  10.157   2.773
 4320SOL    HW214800  13.482  10.051   2.872
 4321SOL     OW14801  13.270  11.572   8.792
 4321SOL    HW114802  13.249  11.483   8.820
 4321SOL    HW214803  13.290  11.618   8.874
 4322SOL     OW14804  10.469  13.509   2.704
 4322SOL    HW114805  10.521  13.471   2.633
 4322SOL    HW214806  10.440  13.594   2.670
 4323SOL     OW14807   4.276   6.206   5.791
 4323SOL    HW114808   4.215   6.263   5.836
 4323SOL    HW214809   4.330   6.265   5.739
 4324SOL     OW14810   7.289  10.131  11.144
 4324SOL    HW114811   7.313  10.207  11.198
 4324SOL    HW214812   7.234  10.077  11.202
 4325SOL     OW14813  10.556  14.586   2.524
 4325SOL    HW114814  10.564  14.497   2.559
 4325SOL    HW214815  10.618  14.588   2.451
 4326SOL     OW14816   3.119  14.853   0.530
 4326SOL    HW114817   3.180   0.053   0.526
 4326SOL    HW214818   3.120  14.825   0.621
 4327SOL     OW14819   3.617  10.392   9.996
 4327SOL    HW114820   3.687  10.365   9.936
 4327SOL    HW214821   3.649  10.473  10.035
 4328SOL     OW14822   1.427  12.743   3.555
 4328SOL    HW114823   1.379  12.768   3.476
 4328SOL    HW214824   1.441  12.649   3.545
 4329SOL     OW14825  13.066  14.689  10.147
 4329SOL    HW114826  13.065  14.637  10.227
 4329SOL    HW214827  13.071  14.780  10.177
 4330SOL     OW14828   1.425  12.606   4.822
 4330SOL    HW114829   1.434  12.644   4.734
 4330SOL    HW214830   1.504  12.553   4.833
 4331SOL     OW14831  13.463   7.133   4.109
 4331SOL    HW114832  13.492   7.129   4.017
 4331SOL    HW214833  13.531   7.184   4.153
 4332SOL     OW14834   3.342   9.402  11.163
 4332SOL    HW114835   3.394   9.325  11.184
 4332SOL    HW214836   3.355   9.461  11.238
 4333SOL     OW14837   0.913   9.121   8.669
 4333SOL    HW114838   0.885   9.114   8.760
 4333SOL    HW214839   0.975   9.194   8.668
 4334SOL     OW14840   2.236   6.152   3.354
 4334SOL    HW114841   2.268   6.239   3.378
 4334SOL    HW214842   2.162   6.169   3.296
 4335SOL     OW14843   7.200  12.421   3.519
 4335SOL    HW114844   7.277  12.443   3.573
 4335SOL    HW214845   7.191  12.326   3.528
 4336SOL     OW14846  10.673   2.964  12.214
 4336SOL    HW114847  10.739   3.009  12.267
 4336SOL    HW214848  10.709   2.877  12.200
 4337SOL     OW14849   7.232  11.448  11.989
 4337SOL    HW114850   7.241  11.460  11.894
 4337SOL    HW214851   7.317  11.475  12.024
 4338SOL     OW14852   5.153   5.646   1.446
 4338SOL    HW114853   5.171   5.739   1.461
 4338SOL    HW214854   5.230   5.601   1.482
 4339SOL     OW14855   4.116  14.859  12.331
 4339SOL    HW114856   4.168  14.792  12.376
 4339SOL    HW214857   4.152  14.861  12.242
 4340SOL     OW14858  11.255   4.438  13.525
 4340SOL    HW114859  11.273   4.371  13.592
 4340SOL    HW214860  11.231   4.387  13.447
 4341SOL     OW14861  12.284   1.064   1.888
 4341SOL    HW114862  12.242   1.143   1.923
 4341SOL    HW214863  12.316   1.090   1.802
 4342SOL     OW14864   8.518   0.620   4.339
 4342SOL    HW114865   8.435   0.573   4.325
 4342SOL    HW214866   8.508   0.701   4.290
 4343SOL     OW14867   8.852   6.573   6.201
 4343SOL    HW114868   8.915   6.641   6.176
 4343SOL    HW214869   8.769   6.620   6.213
 4344SOL     OW14870   9.277   3.453   9.379
 4344SOL    HW114871   9.207   3.465   9.443
 4344SOL    HW214872   9.249   3.378   9.326
 4345SOL     OW14873   7.050   4.434  10.757
 4345SOL    HW114874   7.099   4.447  10.839
 4345SOL    HW214875   7.104   4.375  10.706
 4346SOL     OW14876  11.789   9.502  13.783
 4346SOL    HW114877  11.845   9.562  13.831
 4346SOL    HW214878  11.724   9.558  13.740
 4347SOL     OW14879  13.694   7.713  10.561
 4347SOL    HW114880  13.696   7.778  10.490
 4347SOL    HW214881  13.729   7.759  10.637
 4348SOL     OW14882  10.562  12.263   4.045
 4348SOL    HW114883  10.591  12.353   4.036
 4348SOL    HW214884  10.480  12.268   4.094
 4349SOL     OW14885   3.741   7.643   3.427
 4349SOL    HW114886   3.685   7.637   3.505
 4349SOL    HW214887   3.683   7.619   3.354
 4350SOL     OW14888  14.317  14.049   4.532
 4350SOL    HW114889  14.383  14.006   4.587
 4350SOL    HW214890  14.325  14.142   4.555
 4351SOL     OW14891   4.490  12.522   7.075
 4351SOL    HW114892   4.426  12.546   7.142
 4351SOL    HW214893   4.476  12.428   7.062
 4352SOL     OW14894   7.959  12.081  13.257
 4352SOL    HW114895   8.008  12.005  13.289
 4352SOL    HW214896   7.885  12.089  13.318
 4353SOL     OW14897  11.241   6.935   4.522
 4353SOL    HW114898  11.298   6.884   4.579
 4353SOL    HW214899  11.189   6.870   4.475
 4354SOL     OW14900   7.660   6.205   7.192
 4354SOL    HW114901   7.592   6.174   7.252
 4354SOL    HW214902   7.673   6.134   7.130
 4355SOL     OW14903   0.101   3.638  10.070
 4355SOL    HW114904   0.046   3.716  10.076
 4355SOL    HW214905   0.126   3.634   9.978
 4356SOL     OW14906  13.513  13.007  10.638
 4356SOL    HW114907  13.602  12.990  10.606
 4356SOL    HW214908  13.485  13.086  10.591
 4357SOL     OW14909  13.413   4.874   3.514
 4357SOL    HW114910  13.438   4.782   3.516
 4357SOL    HW214911  13.383   4.889   3.425
 4358SOL     OW14912  10.843  12.425  11.867
 4358SOL    HW114913  10.871  12.499  11.813
 4358SOL    HW214914  10.923  12.397  11.911
 4359SOL     OW14915   1.563   5.881  12.022
 4359SOL    HW114916   1.570   5.840  11.936
 4359SOL    HW214917   1.595   5.970  12.009
 4360SOL     OW14918   2.348  10.597   9.620
 4360SOL    HW114919   2.258  10.603   9.651
 4360SOL    HW214920   2.349  10.518   9.566
 4361SOL     OW14921  12.177  14.706  11.949
 4361SOL    HW114922  12.257  14.689  11.998
 4361SOL    HW214923  12.170  14.632  11.889
 4362SOL     OW14924   1.878   9.833   7.383
 4362SOL    HW114925   1.919   9.874   7.459
 4362SOL    HW214926   1.828   9.904   7.342
 4363SOL     OW14927  10.043   2.786   4.647
 4363SOL    HW114928   9.993   2.832   4.580
 4363SOL    HW214929  10.133   2.816   4.635
 4364SOL     OW14930  14.284   8.821   1.929
 4364SOL    HW114931  14.234   8.795   2.007
 4364SOL    HW214932  14.360   8.866   1.965
 4365SOL     OW14933   5.189   8.529  10.582
 4365SOL    HW114934   5.201   8.493  10.669
 4365SOL    HW214935   5.133   8.605  10.595
 4366SOL     OW14936   6.467   9.277   0.718
 4366SOL    HW114937   6.459   9.344   0.650
 4366SOL    HW214938   6.548   9.298   0.764
 4367SOL     OW14939  10.577   0.481   0.429
 4367SOL    HW114940  10.551   0.465   0.520
 4367SOL    HW214941  10.507   0.441   0.377
 4368SOL     OW14942  13.350   7.125   9.183
 4368SOL    HW114943  13.421   7.186   9.165
 4368SOL    HW214944  13.278   7.154   9.127
 4369SOL     OW14945  10.324  13.575  12.430
 4369SOL    HW114946  10.397  13.544  12.483
 4369SOL    HW214947  10.343  13.543  12.342
 4370SOL     OW14948   5.380   1.084  10.049
 4370SOL    HW114949   5.446   1.120   9.989
 4370SOL    HW214950   5.299   1.128  10.024
 4371SOL     OW14951   7.896   5.475   2.269
 4371SOL    HW114952   7.813   5.522   2.269
 4371SOL    HW214953   7.935   5.496   2.184
 4372SOL     OW14954  11.168   8.016   5.663
 4372SOL    HW114955  11.174   8.093   5.720
 4372SOL    HW214956  11.238   7.959   5.693
 4373SOL     OW14957  13.096   4.905   0.957
 4373SOL    HW114958  13.067   4.818   0.929
 4373SOL    HW214959  13.142   4.890   1.039
 4374SOL     OW14960   8.086  10.803   8.200
 4374SOL    HW114961   7.999  10.835   8.222
 4374SOL    HW214962   8.105  10.736   8.266
 4375SOL     OW14963  10.878   3.973  11.198
 4375SOL    HW114964  10.878   3.973  11.294
 4375SOL    HW214965  10.820   3.901  11.174
 4376SOL     OW14966   8.949  11.058   3.329
 4376SOL    HW114967   8.891  11.101   3.392
 4376SOL    HW214968   8.921  10.967   3.329
 4377SOL     OW14969   5.085   0.294   3.663
 4377SOL    HW114970   5.154   0.242   3.623
 4377SOL    HW214971   5.064   0.361   3.598
 4378SOL     OW14972   3.197  14.462  12.612
 4378SOL    HW114973   3.281  14.508  12.612
 4378SOL    HW214974   3.205  14.396  12.681
 4379SOL     OW14975   7.086  11.381  12.226
 4379SOL    HW114976   7.134  11.412  12.149
 4379SOL    HW214977   6.995  11.377  12.197
 4380SOL     OW14978   2.798  11.401   3.369
 4380SOL    HW114979   2.847  11.327   3.405
 4380SOL    HW214980   2.856  11.476   3.382
 4381SOL     OW14981   9.336  13.763   4.975
 4381SOL    HW114982   9.381  13.768   4.890
 4381SOL    HW214983   9.341  13.670   4.999
 4382SOL     OW14984  14.341   6.910   4.212
 4382SOL    HW114985  14.302   6.892   4.298
 4382SOL    HW214986  14.307   6.841   4.155
 4383SOL     OW14987  12.840  13.944  11.408
 4383SOL    HW114988  12.828  13.869  11.350
 4383SOL    HW214989  12.810  13.914  11.493
 4384SOL     OW14990   0.060   3.147   8.651
 4384SOL    HW114991  14.868   3.153   8.721
 4384SOL    HW214992   0.134   3.102   8.691
 4385SOL     OW14993   1.962   2.300   3.295
 4385SOL    HW114994   1.949   2.234   3.226
 4385SOL    HW214995   1.922   2.261   3.373
 4386SOL     OW14996   7.528  13.633   9.159
 4386SOL    HW114997   7.519  13.539   9.142
 4386SOL    HW214998   7.550  13.671   9.074
 4387SOL     OW14999   9.489   5.411  13.552
 4387SOL    HW115000   9.548   5.485  13.565
 4387SOL    HW215001   9.419   5.425  13.615
 4388SOL     OW15002  11.918   7.067   6.267
 4388SOL    HW115003  11.850   7.092   6.329
 4388SOL    HW215004  11.989   7.128   6.283
 4389SOL     OW15005   6.633   9.422  13.964
 4389SOL    HW115006   6.602   9.336  13.990
 4389SOL    HW215007   6.689   9.451  14.036
 4390SOL     OW15008   9.753  10.868  12.887
 4390SOL    HW115009   9.732  10.942  12.943
 4390SOL    HW215010   9.733  10.791  12.940
 4391SOL     OW15011   1.133  13.192   1.233
 4391SOL    HW115012   1.168  13.109   1.199
 4391SOL    HW215013   1.144  13.185   1.328
 4392SOL     OW15014   6.723  10.550   2.523
 4392SOL    HW115015   6.645  10.596   2.552
 4392SOL    HW215016   6.690  10.469   2.483
 4393SOL     OW15017  14.433  12.527   1.956
 4393SOL    HW115018  14.478  12.555   2.036
 4393SOL    HW215019  14.483  12.452   1.924
 4394SOL     OW15020  14.573   3.415   2.587
 4394SOL    HW115021  14.490   3.377   2.617
 4394SOL    HW215022  14.636   3.343   2.592
 4395SOL     OW15023   1.031  11.731   4.561
 4395SOL    HW115024   1.106  11.772   4.517
 4395SOL    HW215025   1.055  11.639   4.570
 4396SOL     OW15026   1.772  13.628   1.386
 4396SOL    HW115027   1.797  13.536   1.394
 4396SOL    HW215028   1.676  13.626   1.379
 4397SOL     OW15029   2.506   9.247  14.708
 4397SOL    HW115030   2.480   9.244  14.616
 4397SOL    HW215031   2.516   9.155  14.733
 4398SOL     OW15032  12.028   5.183   2.907
 4398SOL    HW115033  12.107   5.211   2.860
 4398SOL    HW215034  12.037   5.089   2.915
 4399SOL     OW15035   1.248   7.276  13.564
 4399SOL    HW115036   1.200   7.266  13.482
 4399SOL    HW215037   1.322   7.216  13.556
 4400SOL     OW15038  14.459   0.470   7.420
 4400SOL    HW115039  14.496   0.459   7.508
 4400SOL    HW215040  14.398   0.397   7.411
 4401SOL     OW15041   4.995  13.144   1.587
 4401SOL    HW115042   4.930  13.211   1.566
 4401SOL    HW215043   5.078  13.180   1.557
 4402SOL     OW15044   0.386  12.791   4.195
 4402SOL    HW115045   0.368  12.809   4.103
 4402SOL    HW215046   0.314  12.735   4.224
 4403SOL     OW15047   7.147   6.043  10.622
 4403SOL    HW115048   7.107   6.088  10.547
 4403SOL    HW215049   7.079   5.985  10.655
 4404SOL     OW15050   6.263   1.373   5.533
 4404SOL    HW115051   6.183   1.332   5.500
 4404SOL    HW215052   6.334   1.322   5.496
 4405SOL     OW15053   7.336  11.133   6.376
 4405SOL    HW115054   7.245  11.146   6.349
 4405SOL    HW215055   7.380  11.100   6.298
 4406SOL     OW15056   4.507   6.734   5.832
 4406SOL    HW115057   4.578   6.795   5.813
 4406SOL    HW215058   4.537   6.650   5.796
 4407SOL     OW15059   8.562   8.317   7.705
 4407SOL    HW115060   8.486   8.314   7.763
 4407SOL    HW215061   8.538   8.263   7.630
 4408SOL     OW15062   7.568   7.382   5.993
 4408SOL    HW115063   7.534   7.303   6.035
 4408SOL    HW215064   7.491   7.425   5.956
 4409SOL     OW15065  11.165   8.122  12.205
 4409SOL    HW115066  11.187   8.215  12.201
 4409SOL    HW215067  11.087   8.117  12.259
 4410SOL     OW15068  11.544  10.637  11.956
 4410SOL    HW115069  11.480  10.599  11.897
 4410SOL    HW215070  11.610  10.569  11.967
 4411SOL     OW15071   1.845  12.036   9.587
 4411SOL    HW115072   1.843  12.020   9.682
 4411SOL    HW215073   1.835  11.950   9.548
 4412SOL     OW15074   6.369   9.530   5.836
 4412SOL    HW115075   6.461   9.554   5.834
 4412SOL    HW215076   6.357   9.473   5.760
 4413SOL     OW15077  13.905   7.152  11.215
 4413SOL    HW115078  13.820   7.162  11.258
 4413SOL    HW215079  13.968   7.187  11.278
 4414SOL     OW15080   7.424   1.703  10.213
 4414SOL    HW115081   7.443   1.789  10.252
 4414SOL    HW215082   7.505   1.679  10.168
 4415SOL     OW15083  10.291   7.317  12.976
 4415SOL    HW115084  10.227   7.262  12.932
 4415SOL    HW215085  10.249   7.404  12.981
 4416SOL     OW15086   2.460   3.743   9.704
 4416SOL    HW115087   2.469   3.836   9.723
 4416SOL    HW215088   2.548   3.707   9.716
 4417SOL     OW15089   7.721   9.287   3.439
 4417SOL    HW115090   7.684   9.282   3.351
 4417SOL    HW215091   7.699   9.202   3.479
 4418SOL     OW15092   6.812   8.150   4.860
 4418SOL    HW115093   6.780   8.159   4.770
 4418SOL    HW215094   6.841   8.059   4.866
 4419SOL     OW15095  13.031   4.171   0.743
 4419SOL    HW115096  13.063   4.096   0.794
 4419SOL    HW215097  13.028   4.138   0.653
 4420SOL     OW15098   5.214  13.804  11.578
 4420SOL    HW115099   5.179  13.718  11.554
 4420SOL    HW215100   5.282  13.786  11.642
 4421SOL     OW15101   6.054   4.727  11.340
 4421SOL    HW115102   6.065   4.700  11.431
 4421SOL    HW215103   6.134   4.696  11.296
 4422SOL     OW15104   3.207   8.388   5.335
 4422SOL    HW115105   3.173   8.460   5.282
 4422SOL    HW215106   3.273   8.428   5.391
 4423SOL     OW15107  11.736  13.840   5.779
 4423SOL    HW115108  11.782  13.880   5.705
 4423SOL    HW215109  11.649  13.882   5.779
 4424SOL     OW15110  12.521   0.900   9.262
 4424SOL    HW115111  12.606   0.943   9.253
 4424SOL    HW215112  12.515   0.877   9.355
 4425SOL     OW15113   1.823   5.631   5.710
 4425SOL    HW115114   1.754   5.697   5.723
 4425SOL    HW215115   1.897   5.681   5.676
 4426SOL     OW15116   4.491  11.238  14.871
 4426SOL    HW115117   4.457  11.218   0.085
 4426SOL    HW215118   4.423  11.207  14.811
 4427SOL     OW15119   9.159  13.295   3.261
 4427SOL    HW115120   9.236  13.241   3.278
 4427SOL    HW215121   9.195  13.377   3.229
 4428SOL     OW15122   0.967  11.555   4.989
 4428SOL    HW115123   0.949  11.606   4.911
 4428SOL    HW215124   0.897  11.489   4.992
 4429SOL     OW15125  10.303  10.918   3.672
 4429SOL    HW115126  10.281  10.982   3.604
 4429SOL    HW215127  10.371  10.863   3.632
 4430SOL     OW15128  13.005  11.285   6.219
 4430SOL    HW115129  12.946  11.214   6.242
 4430SOL    HW215130  13.083  11.241   6.185
 4431SOL     OW15131  12.320   9.909  11.672
 4431SOL    HW115132  12.358   9.821  11.680
 4431SOL    HW215133  12.337   9.935  11.582
 4432SOL     OW15134   2.162   6.704   0.328
 4432SOL    HW115135   2.107   6.778   0.301
 4432SOL    HW215136   2.104   6.628   0.322
 4433SOL     OW15137   3.865   3.860   8.298
 4433SOL    HW115138   3.802   3.793   8.270
 4433SOL    HW215139   3.945   3.839   8.249
 4434SOL     OW15140   3.137  14.014   7.203
 4434SOL    HW115141   3.094  13.945   7.254
 4434SOL    HW215142   3.065  14.072   7.177
 4435SOL     OW15143   4.121  12.728  10.087
 4435SOL    HW115144   4.170  12.646  10.084
 4435SOL    HW215145   4.063  12.724  10.011
 4436SOL     OW15146  13.612   2.377  11.068
 4436SOL    HW115147  13.564   2.303  11.104
 4436SOL    HW215148  13.703   2.347  11.065
 4437SOL     OW15149  14.456   5.529  12.824
 4437SOL    HW115150  14.395   5.603  12.813
 4437SOL    HW215151  14.523   5.543  12.757
 4438SOL     OW15152   6.023   9.489   3.768
 4438SOL    HW115153   5.972   9.412   3.741
 4438SOL    HW215154   5.973   9.527   3.840
 4439SOL     OW15155   1.119  13.643   5.066
 4439SOL    HW115156   1.213  13.659   5.065
 4439SOL    HW215157   1.106  13.566   5.011
 4440SOL     OW15158   8.962   1.736   6.095
 4440SOL    HW115159   8.915   1.729   6.013
 4440SOL    HW215160   8.898   1.711   6.162
 4441SOL     OW15161   1.281   0.185   2.908
 4441SOL    HW115162   1.304   0.097   2.879
 4441SOL    HW215163   1.203   0.207   2.857
 4442SOL     OW15164   0.694   5.116   6.798
 4442SOL    HW115165   0.678   5.099   6.705
 4442SOL    HW215166   0.623   5.174   6.825
 4443SOL     OW15167   7.656   4.002   4.718
 4443SOL    HW115168   7.629   4.073   4.775
 4443SOL    HW215169   7.575   3.971   4.677
 4444SOL     OW15170   5.142   2.805  13.482
 4444SOL    HW115171   5.055   2.846  13.475
 4444SOL    HW215172   5.150   2.782  13.575
 4445SOL     OW15173  12.172  11.418   1.082
 4445SOL    HW115174  12.251  11.460   1.117
 4445SOL    HW215175  12.131  11.485   1.028
 4446SOL     OW15176   9.379   0.521   0.544
 4446SOL    HW115177   9.397   0.442   0.594
 4446SOL    HW215178   9.299   0.501   0.495
 4447SOL     OW15179   4.608   2.465   6.499
 4447SOL    HW115180   4.589   2.473   6.593
 4447SOL    HW215181   4.656   2.382   6.493
 4448SOL     OW15182   4.630   8.452  10.676
 4448SOL    HW115183   4.573   8.526  10.697
 4448SOL    HW215184   4.717   8.491  10.665
 4449SOL     OW15185  14.336   3.439   4.020
 4449SOL    HW115186  14.283   3.360   4.028
 4449SOL    HW215187  14.279   3.510   4.049
 4450SOL     OW15188   7.125   2.485  13.848
 4450SOL    HW115189   7.176   2.460  13.924
 4450SOL    HW215190   7.174   2.556  13.807
 4451SOL     OW15191  13.682  11.027   9.485
 4451SOL    HW115192  13.663  11.017   9.391
 4451SOL    HW215193  13.747  10.958   9.503
 4452SOL     OW15194   3.955   6.380  13.313
 4452SOL    HW115195   3.997   6.385  13.227
 4452SOL    HW215196   4.016   6.426  13.372
 4453SOL     OW15197   0.233  12.508  11.625
 4453SOL    HW115198   0.220  12.475  11.536
 4453SOL    HW215199   0.145  12.530  11.656
 4454SOL     OW15200   5.907  14.519  12.662
 4454SOL    HW115201   5.865  14.571  12.593
 4454SOL    HW215202   5.931  14.583  12.729
 4455SOL     OW15203   2.890   2.871   2.025
 4455SOL    HW115204   2.922   2.923   1.951
 4455SOL    HW215205   2.970   2.846   2.072
 4456SOL     OW15206   8.313   0.327  11.242
 4456SOL    HW115207   8.341   0.342  11.152
 4456SOL    HW215208   8.222   0.296  11.234
 4457SOL     OW15209   7.197   4.366   2.323
 4457SOL    HW115210   7.110   4.402   2.341
 4457SOL    HW215211   7.196   4.345   2.230
 4458SOL     OW15212   1.683   8.298  11.120
 4458SOL    HW115213   1.623   8.251  11.063
 4458SOL    HW215214   1.730   8.229  11.168
 4459SOL     OW15215   6.477   0.458   6.837
 4459SOL    HW115216   6.398   0.510   6.822
 4459SOL    HW215217   6.486   0.453   6.932
 4460SOL     OW15218  12.220   5.911   8.691
 4460SOL    HW115219  12.145   5.940   8.638
 4460SOL    HW215220  12.212   5.816   8.694
 4461SOL     OW15221  10.895   6.773   6.725
 4461SOL    HW115222  10.907   6.711   6.652
 4461SOL    HW215223  10.857   6.720   6.795
 4462SOL     OW15224   6.805   5.959  14.519
 4462SOL    HW115225   6.780   5.998  14.435
 4462SOL    HW215226   6.780   6.025  14.584
 4463SOL     OW15227   4.680  10.884   7.662
 4463SOL    HW115228   4.747  10.952   7.666
 4463SOL    HW215229   4.726  10.807   7.626
 4464SOL     OW15230   2.896   5.432  12.998
 4464SOL    HW115231   2.917   5.517  13.037
 4464SOL    HW215232   2.967   5.375  13.025
 4465SOL     OW15233   7.606   2.131   9.497
 4465SOL    HW115234   7.633   2.153   9.586
 4465SOL    HW215235   7.519   2.094   9.507
 4466SOL     OW15236  10.941   4.182   9.719
 4466SOL    HW115237  10.967   4.155   9.631
 4466SOL    HW215238  11.017   4.230   9.753
 4467SOL     OW15239  12.583   2.198   9.928
 4467SOL    HW115240  12.524   2.136   9.886
 4467SOL    HW215241  12.630   2.240   9.856
 4468SOL     OW15242   4.755   1.303  11.227
 4468SOL    HW115243   4.697   1.234  11.194
 4468SOL    HW215244   4.842   1.277  11.199
 4469SOL     OW15245   1.094  10.175   3.831
 4469SOL    HW115246   1.062  10.220   3.752
 4469SOL    HW215247   1.184  10.151   3.809
 4470SOL     OW15248   3.134   6.131  12.097
 4470SOL    HW115249   3.207   6.077  12.067
 4470SOL    HW215250   3.161   6.162  12.184
 4471SOL     OW15251   1.937   7.430  10.872
 4471SOL    HW115252   1.874   7.501  10.887
 4471SOL    HW215253   1.932   7.413  10.778
 4472SOL     OW15254   3.692   2.653   2.203
 4472SOL    HW115255   3.766   2.603   2.237
 4472SOL    HW215256   3.651   2.691   2.280
 4473SOL     OW15257  14.351   0.718   1.723
 4473SOL    HW115258  14.446   0.731   1.727
 4473SOL    HW215259  14.320   0.791   1.668
 4474SOL     OW15260  10.690   5.498  13.096
 4474SOL    HW115261  10.671   5.429  13.160
 4474SOL    HW215262  10.761   5.462  13.042
 4475SOL     OW15263   0.618   4.391   6.340
 4475SOL    HW115264   0.539   4.337   6.335
 4475SOL    HW215265   0.690   4.329   6.352
 4476SOL     OW15266   9.928   5.067   7.995
 4476SOL    HW115267   9.880   4.999   8.042
 4476SOL    HW215268   9.923   5.042   7.903
 4477SOL     OW15269  10.523  12.588  13.024
 4477SOL    HW115270  10.531  12.497  12.998
 4477SOL    HW215271  10.479  12.585  13.109
 4478SOL     OW15272   2.160  11.407   1.407
 4478SOL    HW115273   2.081  11.353   1.411
 4478SOL    HW215274   2.227  11.354   1.450
 4479SOL     OW15275  14.852   6.477  14.736
 4479SOL    HW115276   0.044   6.414  14.705
 4479SOL    HW215277  14.824   6.523  14.656
 4480SOL     OW15278   6.619   7.043   0.876
 4480SOL    HW115279   6.636   7.103   0.804
 4480SOL    HW215280   6.611   7.099   0.953
 4481SOL     OW15281   9.676   4.654   9.039
 4481SOL    HW115282   9.643   4.714   9.105
 4481SOL    HW215283   9.718   4.584   9.089
 4482SOL     OW15284   1.454   2.989   3.182
 4482SOL    HW115285   1.521   2.925   3.158
 4482SOL    HW215286   1.447   2.981   3.277
 4483SOL     OW15287   5.621   0.975   9.822
 4483SOL    HW115288   5.570   0.914   9.769
 4483SOL    HW215289   5.630   0.931   9.907
 4484SOL     OW15290  12.231   3.511   8.614
 4484SOL    HW115291  12.268   3.423   8.611
 4484SOL    HW215292  12.205   3.523   8.705
 4485SOL     OW15293  13.574   0.198   2.732
 4485SOL    HW115294  13.637   0.181   2.662
 4485SOL    HW215295  13.504   0.248   2.690
 4486SOL     OW15296   0.285   0.639  10.636
 4486SOL    HW115297   0.369   0.679  10.616
 4486SOL    HW215298   0.275   0.570  10.571
 4487SOL     OW15299  12.750   5.344   4.402
 4487SOL    HW115300  12.735   5.434   4.373
 4487SOL    HW215301  12.779   5.298   4.323
 4488SOL     OW15302   3.300  13.980   0.217
 4488SOL    HW115303   3.247  13.937   0.151
 4488SOL    HW215304   3.382  13.931   0.218
 4489SOL     OW15305   1.561   6.558  10.804
 4489SOL    HW115306   1.497   6.618  10.843
 4489SOL    HW215307   1.511   6.510  10.738
 4490SOL     OW15308   5.314   6.482   0.278
 4490SOL    HW115309   5.248   6.428   0.320
 4490SOL    HW215310   5.265   6.543   0.223
 4491SOL     OW15311   4.536  13.029  11.782
 4491SOL    HW115312   4.597  13.077  11.727
 4491SOL    HW215313   4.580  12.945  11.799
 4492SOL     OW15314  11.873   2.715   2.358
 4492SOL    HW115315  11.779   2.705   2.345
 4492SOL    HW215316  11.910   2.630   2.337
 4493SOL     OW15317  12.829  10.179   4.568
 4493SOL    HW115318  12.923  10.192   4.556
 4493SOL    HW215319  12.822  10.139   4.655
 4494SOL     OW15320  14.849   1.490  12.647
 4494SOL    HW115321   0.005   1.481  12.557
 4494SOL    HW215322  14.762   1.452  12.648
 4495SOL     OW15323   7.641  13.585   3.761
 4495SOL    HW115324   7.590  13.579   3.842
 4495SOL    HW215325   7.721  13.535   3.779
 4496SOL     OW15326  14.147   6.429  14.618
 4496SOL    HW115327  14.063   6.475  14.627
 4496SOL    HW215328  14.152   6.408  14.524
 4497SOL     OW15329   3.965   1.632   9.438
 4497SOL    HW115330   3.963   1.661   9.347
 4497SOL    HW215331   3.964   1.537   9.433
 4498SOL     OW15332   7.889   3.146   8.516
 4498SOL    HW115333   7.856   3.190   8.594
 4498SOL    HW215334   7.980   3.124   8.537
 4499SOL     OW15335   7.887  14.284  12.060
 4499SOL    HW115336   7.929  14.287  11.974
 4499SOL    HW215337   7.813  14.225  12.048
 4500SOL     OW15338   8.872   2.087   5.964
 4500SOL    HW115339   8.938   2.108   6.030
 4500SOL    HW215340   8.891   1.997   5.939
 4501SOL     OW15341   5.735   5.302   6.255
 4501SOL    HW115342   5.713   5.394   6.239
 4501SOL    HW215343   5.681   5.277   6.330
 4502SOL     OW15344   5.904   1.491   1.084
 4502SOL    HW115345   5.960   1.568   1.097
 4502SOL    HW215346   5.845   1.491   1.160
 4503SOL     OW15347   7.892   1.673   0.299
 4503SOL    HW115348   7.853   1.689   0.385
 4503SOL    HW215349   7.908   1.760   0.263
 4504SOL     OW15350   3.069  11.684   1.271
 4504SOL    HW115351   3.009  11.609   1.265
 4504SOL    HW215352   3.152  11.652   1.238
 4505SOL     OW15353   2.910  14.533  13.864
 4505SOL    HW115354   2.841  14.467  13.857
 4505SOL    HW215355   2.867  14.608  13.905
 4506SOL     OW15356   2.774   6.647   5.329
 4506SOL    HW115357   2.731   6.596   5.397
 4506SOL    HW215358   2.836   6.703   5.375
 4507SOL     OW15359   6.472   5.702   6.410
 4507SOL    HW115360   6.507   5.615   6.429
 4507SOL    HW215361   6.392   5.685   6.361
 4508SOL     OW15362  12.133   8.572   8.019
 4508SOL    HW115363  12.201   8.532   8.073
 4508SOL    HW215364  12.054   8.522   8.039
 4509SOL     OW15365   2.740  13.304  10.671
 4509SOL    HW115366   2.690  13.338  10.597
 4509SOL    HW215367   2.673  13.272  10.732
 4510SOL     OW15368   9.272   1.848   6.581
 4510SOL    HW115369   9.255   1.823   6.491
 4510SOL    HW215370   9.365   1.830   6.594
 4511SOL     OW15371  10.670   3.654   0.095
 4511SOL    HW115372  10.605   3.718   0.126
 4511SOL    HW215373  10.618   3.578   0.071
 4512SOL     OW15374  13.256   3.122   3.292
 4512SOL    HW115375  13.237   3.207   3.253
 4512SOL    HW215376  13.315   3.141   3.365
 4513SOL     OW15377   8.781   2.628  11.745
 4513SOL    HW115378   8.709   2.630  11.681
 4513SOL    HW215379   8.763   2.702  11.803
 4514SOL     OW15380   0.307  10.471   9.556
 4514SOL    HW115381   0.294  10.394   9.612
 4514SOL    HW215382   0.220  10.512   9.551
 4515SOL     OW15383   6.021  10.350  11.120
 4515SOL    HW115384   5.995  10.303  11.199
 4515SOL    HW215385   6.116  10.359  11.127
 4516SOL     OW15386   3.843  14.850  12.954
 4516SOL    HW115387   3.820  14.784  12.889
 4516SOL    HW215388   3.925  14.819  12.993
 4517SOL     OW15389   6.476  10.827  10.688
 4517SOL    HW115390   6.568  10.808  10.670
 4517SOL    HW215391   6.436  10.742  10.705
 4518SOL     OW15392   2.961  10.810   9.271
 4518SOL    HW115393   2.881  10.860   9.255
 4518SOL    HW215394   3.031  10.863   9.235
 4519SOL     OW15395   7.681  10.456  12.358
 4519SOL    HW115396   7.767  10.452  12.314
 4519SOL    HW215397   7.620  10.480  12.288
 4520SOL     OW15398   4.109  11.465   1.561
 4520SOL    HW115399   4.058  11.540   1.588
 4520SOL    HW215400   4.134  11.484   1.470
 4521SOL     OW15401   1.797  12.621  11.942
 4521SOL    HW115402   1.757  12.616  12.029
 4521SOL    HW215403   1.879  12.573  11.951
 4522SOL     OW15404   9.601   9.772   5.027
 4522SOL    HW115405   9.549   9.696   5.003
 4522SOL    HW215406   9.564   9.801   5.110
 4523SOL     OW15407   4.571  10.531   8.814
 4523SOL    HW115408   4.548  10.526   8.721
 4523SOL    HW215409   4.487  10.539   8.859
 4524SOL     OW15410  11.016   3.506   1.433
 4524SOL    HW115411  10.948   3.566   1.462
 4524SOL    HW215412  11.071   3.559   1.375
 4525SOL     OW15413  10.836   7.703  11.931
 4525SOL    HW115414  10.895   7.770  11.964
 4525SOL    HW215415  10.770   7.751  11.881
 4526SOL     OW15416  13.510   8.419   1.793
 4526SOL    HW115417  13.517   8.394   1.886
 4526SOL    HW215418  13.595   8.396   1.756
 4527SOL     OW15419   8.088   6.102  14.758
 4527SOL    HW115420   8.037   6.037  14.806
 4527SOL    HW215421   8.140   6.146  14.825
 4528SOL     OW15422  13.302   7.258   3.614
 4528SOL    HW115423  13.230   7.195   3.609
 4528SOL    HW215424  13.274   7.322   3.679
 4529SOL     OW15425  14.591   6.631  10.653
 4529SOL    HW115426  14.662   6.578  10.690
 4529SOL    HW215427  14.557   6.681  10.727
 4530SOL     OW15428  13.325   8.197   9.157
 4530SOL    HW115429  13.291   8.128   9.214
 4530SOL    HW215430  13.249   8.253   9.139
 4531SOL     OW15431   0.899   4.747  10.399
 4531SOL    HW115432   0.953   4.677  10.436
 4531SOL    HW215433   0.958   4.823  10.395
 4532SOL     OW15434   7.968   2.366   8.061
 4532SOL    HW115435   7.966   2.301   7.991
 4532SOL    HW215436   7.911   2.437   8.030
 4533SOL     OW15437  12.080   4.501   2.949
 4533SOL    HW115438  12.011   4.537   3.005
 4533SOL    HW215439  12.047   4.514   2.860
 4534SOL     OW15440  14.526  10.322   9.774
 4534SOL    HW115441  14.544  10.314   9.868
 4534SOL    HW215442  14.433  10.342   9.769
 4535SOL     OW15443   4.838  14.635   6.903
 4535SOL    HW115444   4.811  14.546   6.923
 4535SOL    HW215445   4.861  14.673   6.988
 4536SOL     OW15446   6.623   8.551   0.184
 4536SOL    HW115447   6.648   8.469   0.139
 4536SOL    HW215448   6.541   8.530   0.228
 4537SOL     OW15449  13.277  14.690   3.164
 4537SOL    HW115450  13.210  14.706   3.232
 4537SOL    HW215451  13.228  14.691   3.082
 4538SOL     OW15452   5.996   1.195   3.441
 4538SOL    HW115453   5.959   1.283   3.443
 4538SOL    HW215454   6.063   1.196   3.510
 4539SOL     OW15455   2.514   2.724   5.975
 4539SOL    HW115456   2.593   2.774   5.997
 4539SOL    HW215457   2.530   2.692   5.886
 4540SOL     OW15458  10.926  11.012   6.133
 4540SOL    HW115459  11.013  11.001   6.094
 4540SOL    HW215460  10.869  11.032   6.060
 4541SOL     OW15461   6.242  13.122   9.204
 4541SOL    HW115462   6.239  13.164   9.290
 4541SOL    HW215463   6.318  13.162   9.161
 4542SOL     OW15464   5.033  12.152   7.184
 4542SOL    HW115465   4.955  12.140   7.128
 4542SOL    HW215466   5.034  12.246   7.202
 4543SOL     OW15467   1.962   3.088   1.340
 4543SOL    HW115468   1.936   3.037   1.263
 4543SOL    HW215469   1.889   3.148   1.355
 4544SOL     OW15470   4.929  11.994   0.386
 4544SOL    HW115471   4.997  11.965   0.446
 4544SOL    HW215472   4.874  11.917   0.372
 4545SOL     OW15473   6.171  11.376  12.656
 4545SOL    HW115474   6.078  11.363  12.640
 4545SOL    HW215475   6.212  11.362  12.571
 4546SOL     OW15476   0.381   3.706  12.205
 4546SOL    HW115477   0.439   3.645  12.159
 4546SOL    HW215478   0.318   3.734  12.138
 4547SOL     OW15479   8.015   0.168   5.063
 4547SOL    HW115480   8.061   0.224   5.125
 4547SOL    HW215481   7.949   0.123   5.115
 4548SOL     OW15482   7.073   8.334   0.785
 4548SOL    HW115483   6.997   8.391   0.772
 4548SOL    HW215484   7.040   8.245   0.771
 4549SOL     OW15485  14.741  10.774   4.729
 4549SOL    HW115486  14.805  10.793   4.660
 4549SOL    HW215487  14.794  10.747   4.804
 4550SOL     OW15488   9.098   0.503   1.712
 4550SOL    HW115489   9.005   0.490   1.695
 4550SOL    HW215490   9.101   0.562   1.788
 4551SOL     OW15491   8.403   3.105   2.153
 4551SOL    HW115492   8.363   3.185   2.186
 4551SOL    HW215493   8.439   3.062   2.230
 4552SOL     OW15494  13.650   9.947  13.819
 4552SOL    HW115495  13.655  10.017  13.753
 4552SOL    HW215496  13.584   9.977  13.881
 4553SOL     OW15497   0.557   2.150  14.172
 4553SOL    HW115498   0.537   2.241  14.195
 4553SOL    HW215499   0.495   2.128  14.103
 4554SOL     OW15500  13.192   8.238   1.524
 4554SOL    HW115501  13.111   8.189   1.510
 4554SOL    HW215502  13.219   8.264   1.436
 4555SOL     OW15503   5.986   8.428   6.408
 4555SOL    HW115504   5.907   8.422   6.354
 4555SOL    HW215505   6.058   8.416   6.347
 4556SOL     OW15506   6.765  11.896   0.821
 4556SOL    HW115507   6.788  11.982   0.854
 4556SOL    HW215508   6.838  11.840   0.848
 4557SOL     OW15509   0.928   3.066   6.114
 4557SOL    HW115510   0.866   3.076   6.042
 4557SOL    HW215511   0.992   3.002   6.082
 4558SOL     OW15512   1.113   1.694  13.908
 4558SOL    HW115513   1.086   1.657  13.824
 4558SOL    HW215514   1.031   1.717  13.951
 4559SOL     OW15515  12.206   6.513  10.944
 4559SOL    HW115516  12.195   6.515  11.039
 4559SOL    HW215517  12.147   6.581  10.911
 4560SOL     OW15518   5.080   5.498  10.961
 4560SOL    HW115519   5.165   5.479  11.000
 4560SOL    HW215520   5.074   5.441  10.885
 4561SOL     OW15521   1.519   5.393  10.194
 4561SOL    HW115522   1.455   5.378  10.125
 4561SOL    HW215523   1.564   5.474  10.169
 4562SOL     OW15524  14.760   6.204  10.467
 4562SOL    HW115525  14.775   6.229  10.558
 4562SOL    HW215526  14.774   6.284  10.417
 4563SOL     OW15527   2.971   9.427  14.394
 4563SOL    HW115528   3.023   9.371  14.451
 4563SOL    HW215529   2.957   9.507  14.446
 4564SOL     OW15530  12.654  11.995   1.419
 4564SOL    HW115531  12.658  12.022   1.327
 4564SOL    HW215532  12.568  11.954   1.428
 4565SOL     OW15533   9.299   9.865  13.811
 4565SOL    HW115534   9.290   9.895  13.901
 4565SOL    HW215535   9.325   9.773  13.819
 4566SOL     OW15536   7.408  11.937   8.640
 4566SOL    HW115537   7.493  11.978   8.622
 4566SOL    HW215538   7.418  11.898   8.727
 4567SOL     OW15539   1.721   8.641   4.767
 4567SOL    HW115540   1.724   8.647   4.863
 4567SOL    HW215541   1.721   8.732   4.738
 4568SOL     OW15542  11.386  13.420   8.954
 4568SOL    HW115543  11.454  13.475   8.916
 4568SOL    HW215544  11.339  13.385   8.879
 4569SOL     OW15545   3.929  11.664   1.637
 4569SOL    HW115546   3.936  11.757   1.615
 4569SOL    HW215547   3.927  11.663   1.733
 4570SOL     OW15548   5.107   3.218  14.254
 4570SOL    HW115549   5.017   3.250  14.251
 4570SOL    HW215550   5.138   3.223  14.164
 4571SOL     OW15551   5.078   2.628   2.262
 4571SOL    HW115552   5.117   2.558   2.210
 4571SOL    HW215553   5.108   2.611   2.352
 4572SOL     OW15554   2.177   7.663  13.057
 4572SOL    HW115555   2.142   7.685  13.142
 4572SOL    HW215556   2.101   7.656  13.000
 4573SOL     OW15557  10.571  13.057   4.999
 4573SOL    HW115558  10.519  13.016   5.068
 4573SOL    HW215559  10.507  13.079   4.931
 4574SOL     OW15560   8.572   4.504   6.768
 4574SOL    HW115561   8.571   4.478   6.860
 4574SOL    HW215562   8.655   4.550   6.756
 4575SOL     OW15563  14.177  10.420  13.494
 4575SOL    HW115564  14.255  10.443  13.545
 4575SOL    HW215565  14.194  10.458  13.408
 4576SOL     OW15566   4.951   8.367   9.772
 4576SOL    HW115567   4.925   8.445   9.821
 4576SOL    HW215568   4.892   8.365   9.696
 4577SOL     OW15569   9.875   0.171  12.272
 4577SOL    HW115570   9.838   0.206  12.191
 4577SOL    HW215571   9.803   0.124  12.314
 4578SOL     OW15572   4.468   1.831   4.511
 4578SOL    HW115573   4.506   1.823   4.599
 4578SOL    HW215574   4.376   1.851   4.527
 4579SOL     OW15575   5.979   4.214   8.597
 4579SOL    HW115576   5.924   4.230   8.520
 4579SOL    HW215577   5.946   4.275   8.663
 4580SOL     OW15578  11.589   8.912   3.592
 4580SOL    HW115579  11.494   8.914   3.582
 4580SOL    HW215580  11.606   8.961   3.672
 4581SOL     OW15581   6.539   8.030   8.630
 4581SOL    HW115582   6.599   7.986   8.570
 4581SOL    HW215583   6.462   8.048   8.577
 4582SOL     OW15584  11.330   0.170   6.395
 4582SOL    HW115585  11.391   0.102   6.422
 4582SOL    HW215586  11.360   0.197   6.308
 4583SOL     OW15587  13.344   9.979   1.604
 4583SOL    HW115588  13.361  10.026   1.522
 4583SOL    HW215589  13.427   9.935   1.623
 4584SOL     OW15590   4.320  10.075  14.045
 4584SOL    HW115591   4.349  10.000  13.994
 4584SOL    HW215592   4.378  10.147  14.019
 4585SOL     OW15593   8.794   0.118   9.157
 4585SOL    HW115594   8.852   0.096   9.229
 4585SOL    HW215595   8.707   0.089   9.186
 4586SOL     OW15596   4.881  14.598   4.337
 4586SOL    HW115597   4.798  14.644   4.343
 4586SOL    HW215598   4.946  14.667   4.328
 4587SOL     OW15599   7.074  14.025  11.919
 4587SOL    HW115600   7.139  14.014  11.988
 4587SOL    HW215601   7.091  13.953  11.858
 4588SOL     OW15602   5.530  10.049  12.986
 4588SOL    HW115603   5.529  10.136  12.947
 4588SOL    HW215604   5.534  10.066  13.081
 4589SOL     OW15605  10.068   2.612   5.678
 4589SOL    HW115606  10.146   2.605   5.622
 4589SOL    HW215607  10.004   2.659   5.624
 4590SOL     OW15608  12.362   9.706  13.135
 4590SOL    HW115609  12.337   9.797  13.155
 4590SOL    HW215610  12.342   9.696  13.042
 4591SOL     OW15611   7.472   1.086  10.043
 4591SOL    HW115612   7.396   1.060  10.094
 4591SOL    HW215613   7.469   1.182  10.043
 4592SOL     OW15614   3.833   5.154  14.781
 4592SOL    HW115615   3.800   5.082  14.835
 4592SOL    HW215616   3.754   5.200  14.752
 4593SOL     OW15617   0.925   6.251   6.390
 4593SOL    HW115618   0.973   6.194   6.451
 4593SOL    HW215619   0.846   6.202   6.369
 4594SOL     OW15620  10.864  12.953   3.907
 4594SOL    HW115621  10.827  13.036   3.936
 4594SOL    HW215622  10.810  12.928   3.832
 4595SOL     OW15623  13.493  10.791   7.950
 4595SOL    HW115624  13.522  10.866   7.899
 4595SOL    HW215625  13.418  10.824   8.001
 4596SOL     OW15626  11.781   0.024   3.755
 4596SOL    HW115627  11.859  14.846   3.736
 4596SOL    HW215628  11.814   0.107   3.789
 4597SOL     OW15629  11.650   5.855   2.160
 4597SOL    HW115630  11.701   5.930   2.129
 4597SOL    HW215631  11.705   5.816   2.229
 4598SOL     OW15632   8.787   4.522  10.249
 4598SOL    HW115633   8.746   4.561  10.326
 4598SOL    HW215634   8.848   4.457  10.285
 4599SOL     OW15635  11.879   4.957   3.505
 4599SOL    HW115636  11.818   4.892   3.471
 4599SOL    HW215637  11.944   4.906   3.553
 4600SOL     OW15638   3.563  13.885   2.723
 4600SOL    HW115639   3.605  13.967   2.698
 4600SOL    HW215640   3.541  13.896   2.815
 4601SOL     OW15641   9.944   6.430   3.288
 4601SOL    HW115642   9.951   6.490   3.363
 4601SOL    HW215643  10.021   6.373   3.296
 4602SOL     OW15644   4.389   9.525   8.176
 4602SOL    HW115645   4.471   9.476   8.184
 4602SOL    HW215646   4.322   9.458   8.165
 4603SOL     OW15647   7.511   6.673   2.162
 4603SOL    HW115648   7.464   6.659   2.244
 4603SOL    HW215649   7.579   6.606   2.161
 4604SOL     OW15650   2.275   0.020   7.340
 4604SOL    HW115651   2.185  14.864   7.330
 4604SOL    HW215652   2.302   0.047   7.252
 4605SOL     OW15653   8.708   6.607  12.587
 4605SOL    HW115654   8.721   6.596  12.493
 4605SOL    HW215655   8.613   6.614  12.597
 4606SOL     OW15656   2.987   5.318   9.396
 4606SOL    HW115657   2.972   5.297   9.304
 4606SOL    HW215658   3.040   5.245   9.429
 4607SOL     OW15659   3.685   2.539   9.616
 4607SOL    HW115660   3.614   2.601   9.635
 4607SOL    HW215661   3.723   2.571   9.534
 4608SOL     OW15662   1.062  11.940  14.815
 4608SOL    HW115663   1.117  11.890  14.755
 4608SOL    HW215664   1.041  12.020  14.768
 4609SOL     OW15665   3.602   0.359   4.825
 4609SOL    HW115666   3.649   0.321   4.899
 4609SOL    HW215667   3.670   0.378   4.760
 4610SOL     OW15668   0.123   0.782  11.422
 4610SOL    HW115669   0.208   0.825  11.437
 4610SOL    HW215670   0.061   0.855  11.413
 4611SOL     OW15671   2.420   5.928  13.483
 4611SOL    HW115672   2.325   5.922  13.469
 4611SOL    HW215673   2.429   5.941  13.577
 4612SOL     OW15674  10.322   2.130   2.063
 4612SOL    HW115675  10.242   2.132   2.116
 4612SOL    HW215676  10.330   2.038   2.036
 4613SOL     OW15677   5.464  12.926   2.270
 4613SOL    HW115678   5.385  12.977   2.285
 4613SOL    HW215679   5.534  12.992   2.263
 4614SOL     OW15680  14.568   7.892   7.664
 4614SOL    HW115681  14.544   7.952   7.593
 4614SOL    HW215682  14.532   7.808   7.637
 4615SOL     OW15683   4.861   5.247   3.569
 4615SOL    HW115684   4.914   5.326   3.561
 4615SOL    HW215685   4.925   5.176   3.574
 4616SOL     OW15686   0.823   5.586   8.278
 4616SOL    HW115687   0.767   5.661   8.256
 4616SOL    HW215688   0.803   5.567   8.369
 4617SOL     OW15689   9.982  11.992  10.655
 4617SOL    HW115690  10.022  11.909  10.628
 4617SOL    HW215691   9.905  12.000  10.599
 4618SOL     OW15692  10.264   4.287  13.462
 4618SOL    HW115693  10.294   4.356  13.522
 4618SOL    HW215694  10.233   4.334  13.385
 4619SOL     OW15695   4.526   8.848   4.033
 4619SOL    HW115696   4.569   8.832   4.117
 4619SOL    HW215697   4.444   8.801   4.039
 4620SOL     OW15698   8.557   0.808   8.218
 4620SOL    HW115699   8.635   0.802   8.163
 4620SOL    HW215700   8.497   0.865   8.170
 4621SOL     OW15701   1.450   7.274   1.324
 4621SOL    HW115702   1.400   7.304   1.248
 4621SOL    HW215703   1.540   7.297   1.304
 4622SOL     OW15704   4.822   5.356  10.382
 4622SOL    HW115705   4.867   5.314  10.455
 4622SOL    HW215706   4.892   5.401  10.334
 4623SOL     OW15707   6.504   3.163   8.988
 4623SOL    HW115708   6.471   3.132   8.904
 4623SOL    HW215709   6.477   3.095   9.050
 4624SOL     OW15710   1.442   3.293   8.063
 4624SOL    HW115711   1.366   3.343   8.094
 4624SOL    HW215712   1.453   3.322   7.972
 4625SOL     OW15713  13.296   1.512  10.881
 4625SOL    HW115714  13.232   1.480  10.944
 4625SOL    HW215715  13.355   1.438  10.866
 4626SOL     OW15716  14.113  12.760   2.121
 4626SOL    HW115717  14.030  12.719   2.097
 4626SOL    HW215718  14.145  12.710   2.195
 4627SOL     OW15719   5.471   7.493   1.159
 4627SOL    HW115720   5.539   7.457   1.216
 4627SOL    HW215721   5.389   7.478   1.206
 4628SOL     OW15722   5.715   3.472   8.707
 4628SOL    HW115723   5.777   3.524   8.656
 4628SOL    HW215724   5.664   3.536   8.756
 4629SOL     OW15725   2.791  13.532   2.152
 4629SOL    HW115726   2.809  13.444   2.184
 4629SOL    HW215727   2.875  13.562   2.116
 4630SOL     OW15728  10.626   0.804  10.180
 4630SOL    HW115729  10.645   0.805  10.274
 4630SOL    HW215730  10.637   0.713  10.154
 4631SOL     OW15731   1.558  14.141   9.954
 4631SOL    HW115732   1.505  14.114  10.029
 4631SOL    HW215733   1.522  14.225   9.928
 4632SOL     OW15734   8.328  10.611   7.195
 4632SOL    HW115735   8.358  10.551   7.263
 4632SOL    HW215736   8.271  10.558   7.140
 4633SOL     OW15737  14.475   0.423  10.266
 4633SOL    HW115738  14.500   0.332  10.279
 4633SOL    HW215739  14.449   0.428  10.174
 4634SOL     OW15740   0.414  10.785   0.191
 4634SOL    HW115741   0.338  10.727   0.199
 4634SOL    HW215742   0.441  10.802   0.281
 4635SOL     OW15743   1.102  11.467   3.125
 4635SOL    HW115744   1.198  11.463   3.125
 4635SOL    HW215745   1.075  11.379   3.152
 4636SOL     OW15746   8.663   0.911   6.024
 4636SOL    HW115747   8.684   0.908   6.118
 4636SOL    HW215748   8.660   1.004   6.003
 4637SOL     OW15749   2.701   4.979   9.932
 4637SOL    HW115750   2.619   5.026   9.914
 4637SOL    HW215751   2.765   5.023   9.876
 4638SOL     OW15752  14.181   6.272   6.674
 4638SOL    HW115753  14.117   6.265   6.603
 4638SOL    HW215754  14.204   6.181   6.694
 4639SOL     OW15755   0.424  10.367  10.242
 4639SOL    HW115756   0.487  10.306  10.203
 4639SOL    HW215757   0.401  10.426  10.171
 4640SOL     OW15758  14.377  11.945  14.121
 4640SOL    HW115759  14.431  11.964  14.044
 4640SOL    HW215760  14.354  11.852  14.113
 4641SOL     OW15761   3.662  14.573   7.477
 4641SOL    HW115762   3.636  14.482   7.462
 4641SOL    HW215763   3.758  14.571   7.476
 4642SOL     OW15764   9.092   7.657  13.509
 4642SOL    HW115765   9.123   7.574  13.474
 4642SOL    HW215766   9.012   7.635  13.558
 4643SOL     OW15767   9.209   6.962   3.589
 4643SOL    HW115768   9.155   6.890   3.623
 4643SOL    HW215769   9.221   6.941   3.496
 4644SOL     OW15770  12.681   3.225   7.498
 4644SOL    HW115771  12.638   3.149   7.459
 4644SOL    HW215772  12.696   3.201   7.589
 4645SOL     OW15773   7.923   3.427   6.721
 4645SOL    HW115774   7.860   3.372   6.769
 4645SOL    HW215775   7.954   3.372   6.650
 4646SOL     OW15776  13.388  13.756   8.593
 4646SOL    HW115777  13.362  13.734   8.504
 4646SOL    HW215778  13.411  13.672   8.633
 4647SOL     OW15779   3.818  11.102   4.072
 4647SOL    HW115780   3.800  11.190   4.105
 4647SOL    HW215781   3.911  11.089   4.088
 4648SOL     OW15782   5.324   7.613   3.802
 4648SOL    HW115783   5.373   7.669   3.863
 4648SOL    HW215784   5.390   7.560   3.760
 4649SOL     OW15785   1.951  11.792   5.049
 4649SOL    HW115786   1.902  11.725   5.098
 4649SOL    HW215787   2.025  11.745   5.012
 4650SOL     OW15788   2.060  10.930   1.494
 4650SOL    HW115789   2.046  10.836   1.490
 4650SOL    HW215790   2.060  10.950   1.588
 4651SOL     OW15791  12.806   7.719   9.467
 4651SOL    HW115792  12.746   7.751   9.399
 4651SOL    HW215793  12.777   7.630   9.485
 4652SOL     OW15794   5.092   0.007  10.247
 4652SOL    HW115795   5.006   0.032  10.215
 4652SOL    HW215796   5.152   0.033  10.178
 4653SOL     OW15797   8.381  13.908   4.742
 4653SOL    HW115798   8.347  13.831   4.696
 4653SOL    HW215799   8.352  13.897   4.832
 4654SOL     OW15800   8.095   6.682   4.304
 4654SOL    HW115801   8.044   6.758   4.333
 4654SOL    HW215802   8.164   6.719   4.249
 4655SOL     OW15803   4.410  13.838   2.249
 4655SOL    HW115804   4.458  13.890   2.183
 4655SOL    HW215805   4.474  13.773   2.279
 4656SOL     OW15806   5.657  12.004  11.069
 4656SOL    HW115807   5.682  12.095  11.052
 4656SOL    HW215808   5.604  12.008  11.149
 4657SOL     OW15809   6.474  13.445   6.235
 4657SOL    HW115810   6.491  13.463   6.142
 4657SOL    HW215811   6.398  13.499   6.256
 4658SOL     OW15812   6.374  13.770   6.711
 4658SOL    HW115813   6.306  13.719   6.668
 4658SOL    HW215814   6.451  13.759   6.655
 4659SOL     OW15815  10.979  11.828   8.319
 4659SOL    HW115816  11.017  11.797   8.401
 4659SOL    HW215817  10.893  11.862   8.343
 4660SOL     OW15818  14.021   7.262  10.249
 4660SOL    HW115819  13.937   7.244  10.293
 4660SOL    HW215820  14.083   7.203  10.291
 4661SOL     OW15821  14.074   2.787   5.364
 4661SOL    HW115822  14.030   2.741   5.293
 4661SOL    HW215823  14.155   2.739   5.378
 4662SOL     OW15824  14.441   0.706   6.779
 4662SOL    HW115825  14.473   0.794   6.800
 4662SOL    HW215826  14.346   0.714   6.781
 4663SOL     OW15827   8.883   0.218  13.318
 4663SOL    HW115828   8.824   0.200  13.391
 4663SOL    HW215829   8.853   0.302  13.283
 4664SOL     OW15830  12.982   5.103  12.386
 4664SOL    HW115831  12.931   5.074  12.462
 4664SOL    HW215832  12.969   5.035  12.320
 4665SOL     OW15833   5.409  12.403  14.352
 4665SOL    HW115834   5.440  12.322  14.311
 4665SOL    HW215835   5.314  12.393  14.357
 4666SOL     OW15836  10.461  12.648   7.596
 4666SOL    HW115837  10.524  12.709   7.634
 4666SOL    HW215838  10.381  12.662   7.646
 4667SOL     OW15839   2.069   4.213   2.529
 4667SOL    HW115840   2.153   4.256   2.513
 4667SOL    HW215841   2.004   4.280   2.508
 4668SOL     OW15842  12.943   9.240   5.849
 4668SOL    HW115843  12.862   9.273   5.888
 4668SOL    HW215844  12.920   9.152   5.819
 4669SOL     OW15845   9.013   5.542   7.543
 4669SOL    HW115846   8.933   5.493   7.525
 4669SOL    HW215847   8.989   5.633   7.529
 4670SOL     OW15848   5.414   0.351  12.074
 4670SOL    HW115849   5.351   0.421  12.091
 4670SOL    HW215850   5.368   0.292  12.014
 4671SOL     OW15851  11.182  13.198   8.786
 4671SOL    HW115852  11.200  13.120   8.734
 4671SOL    HW215853  11.098  13.180   8.828
 4672SOL     OW15854   5.406   2.783   2.800
 4672SOL    HW115855   5.500   2.798   2.810
 4672SOL    HW215856   5.378   2.750   2.886
 4673SOL     OW15857   8.286   0.132   1.246
 4673SOL    HW115858   8.234   0.092   1.176
 4673SOL    HW215859   8.332   0.204   1.203
 4674SOL     OW15860  10.858   6.342   2.681
 4674SOL    HW115861  10.874   6.392   2.761
 4674SOL    HW215862  10.773   6.301   2.696
 4675SOL     OW15863   0.895  13.371   9.167
 4675SOL    HW115864   0.974  13.339   9.124
 4675SOL    HW215865   0.825  13.313   9.136
 4676SOL     OW15866   8.798  13.929   4.628
 4676SOL    HW115867   8.720  13.973   4.594
 4676SOL    HW215868   8.778  13.914   4.721
 4677SOL     OW15869  12.374   2.511   6.717
 4677SOL    HW115870  12.424   2.437   6.682
 4677SOL    HW215871  12.406   2.522   6.806
 4678SOL     OW15872   4.558   6.280   8.012
 4678SOL    HW115873   4.621   6.350   8.032
 4678SOL    HW215874   4.481   6.327   7.979
 4679SOL     OW15875   0.215  10.245   7.895
 4679SOL    HW115876   0.146  10.205   7.841
 4679SOL    HW215877   0.291  10.190   7.881
 4680SOL     OW15878   6.519   7.397  10.362
 4680SOL    HW115879   6.516   7.487  10.395
 4680SOL    HW215880   6.609   7.386  10.331
 4681SOL     OW15881  12.916   0.099   4.275
 4681SOL    HW115882  12.849   0.053   4.325
 4681SOL    HW215883  12.936   0.041   4.202
 4682SOL     OW15884   6.897   8.158  11.467
 4682SOL    HW115885   6.927   8.156  11.558
 4682SOL    HW215886   6.812   8.114  11.469
 4683SOL     OW15887   6.010   8.666   5.938
 4683SOL    HW115888   5.966   8.694   5.857
 4683SOL    HW215889   6.045   8.579   5.917
 4684SOL     OW15890   4.045  11.342  10.157
 4684SOL    HW115891   4.083  11.374  10.239
 4684SOL    HW215892   3.956  11.378  10.156
 4685SOL     OW15893  10.830   0.632   5.577
 4685SOL    HW115894  10.788   0.684   5.646
 4685SOL    HW215895  10.765   0.566   5.554
 4686SOL     OW15896  13.628   6.863  11.786
 4686SOL    HW115897  13.629   6.924  11.712
 4686SOL    HW215898  13.673   6.785  11.753
 4687SOL     OW15899   7.821   5.096   0.120
 4687SOL    HW115900   7.747   5.157   0.111
 4687SOL    HW215901   7.783   5.019   0.161
 4688SOL     OW15902  14.084   8.803   8.740
 4688SOL    HW115903  14.067   8.826   8.649
 4688SOL    HW215904  14.109   8.885   8.782
 4689SOL     OW15905   4.213  13.272   5.328
 4689SOL    HW115906   4.234  13.185   5.362
 4689SOL    HW215907   4.192  13.257   5.235
 4690SOL     OW15908   2.917   6.502  13.277
 4690SOL    HW115909   2.956   6.421  13.244
 4690SOL    HW215910   2.990   6.552  13.313
 4691SOL     OW15911   5.558   5.073   6.157
 4691SOL    HW115912   5.569   5.112   6.243
 4691SOL    HW215913   5.634   5.015   6.147
 4692SOL     OW15914   7.270   2.176   5.545
 4692SOL    HW115915   7.245   2.185   5.637
 4692SOL    HW215916   7.208   2.111   5.510
 4693SOL     OW15917   4.154  11.125   7.174
 4693SOL    HW115918   4.075  11.165   7.212
 4693SOL    HW215919   4.185  11.065   7.241
 4694SOL     OW15920   7.859   9.436  11.495
 4694SOL    HW115921   7.892   9.412  11.408
 4694SOL    HW215922   7.790   9.501  11.477
 4695SOL     OW15923   5.618   1.301   5.964
 4695SOL    HW115924   5.544   1.251   5.931
 4695SOL    HW215925   5.603   1.309   6.058
 4696SOL     OW15926  12.172   0.705   4.682
 4696SOL    HW115927  12.204   0.661   4.603
 4696SOL    HW215928  12.082   0.676   4.691
 4697SOL     OW15929   1.767  11.571   0.815
 4697SOL    HW115930   1.748  11.527   0.732
 4697SOL    HW215931   1.832  11.515   0.858
 4698SOL     OW15932  12.781   9.752  14.705
 4698SOL    HW115933  12.726   9.776  14.631
 4698SOL    HW215934  12.810   9.836  14.742
 4699SOL     OW15935   9.269   7.814   2.829
 4699SOL    HW115936   9.286   7.894   2.879
 4699SOL    HW215937   9.352   7.795   2.785
 4700SOL     OW15938   3.360   2.538  14.777
 4700SOL    HW115939   3.379   2.605  14.712
 4700SOL    HW215940   3.391   2.575  14.860
 4701SOL     OW15941   2.638   4.208   8.859
 4701SOL    HW115942   2.684   4.184   8.779
 4701SOL    HW215943   2.630   4.127   8.908
 4702SOL     OW15944  14.170   4.238   6.463
 4702SOL    HW115945  14.099   4.219   6.401
 4702SOL    HW215946  14.159   4.172   6.532
 4703SOL     OW15947   9.469   2.450  11.677
 4703SOL    HW115948   9.425   2.424  11.757
 4703SOL    HW215949   9.399   2.453  11.611
 4704SOL     OW15950   4.822  13.292   9.853
 4704SOL    HW115951   4.867  13.209   9.866
 4704SOL    HW215952   4.838  13.340   9.934
 4705SOL     OW15953   1.060   3.001  12.912
 4705SOL    HW115954   1.038   3.088  12.881
 4705SOL    HW215955   1.053   2.945  12.835
 4706SOL     OW15956  10.388  12.970   6.046
 4706SOL    HW115957  10.303  12.972   6.088
 4706SOL    HW215958  10.420  12.881   6.058
 4707SOL     OW15959   8.024  13.306   4.950
 4707SOL    HW115960   7.956  13.344   5.006
 4707SOL    HW215961   8.064  13.238   5.004
 4708SOL     OW15962   8.863  12.963   7.782
 4708SOL    HW115963   8.891  12.883   7.735
 4708SOL    HW215964   8.770  12.950   7.798
 4709SOL     OW15965  10.346  13.126  14.723
 4709SOL    HW115966  10.345  13.076  14.805
 4709SOL    HW215967  10.432  13.167  14.722
 4710SOL     OW15968   7.179   6.567  10.699
 4710SOL    HW115969   7.268   6.546  10.729
 4710SOL    HW215970   7.153   6.492  10.646
 4711SOL     OW15971   6.367   8.446   9.077
 4711SOL    HW115972   6.365   8.355   9.106
 4711SOL    HW215973   6.460   8.466   9.069
 4712SOL     OW15974   1.634   3.099  13.681
 4712SOL    HW115975   1.726   3.091  13.707
 4712SOL    HW215976   1.618   3.022  13.626
 4713SOL     OW15977  14.000   8.163   0.569
 4713SOL    HW115978  14.037   8.193   0.652
 4713SOL    HW215979  14.068   8.180   0.504
 4714SOL     OW15980   7.101  10.645   4.038
 4714SOL    HW115981   7.059  10.559   4.030
 4714SOL    HW215982   7.031  10.708   4.024
 4715SOL     OW15983   8.324   6.940  13.917
 4715SOL    HW115984   8.241   6.986  13.922
 4715SOL    HW215985   8.384   6.992  13.971
 4716SOL     OW15986  12.307  13.354   4.078
 4716SOL    HW115987  12.327  13.436   4.033
 4716SOL    HW215988  12.301  13.378   4.170
 4717SOL     OW15989   3.341   8.491  10.396
 4717SOL    HW115990   3.266   8.454  10.443
 4717SOL    HW215991   3.303   8.556  10.337
 4718SOL     OW15992   5.391   4.253   1.622
 4718SOL    HW115993   5.330   4.188   1.657
 4718SOL    HW215994   5.352   4.282   1.540
 4719SOL     OW15995   8.575  13.584  12.369
 4719SOL    HW115996   8.576  13.501  12.416
 4719SOL    HW215997   8.607  13.563  12.282
 4720SOL     OW15998   6.241   4.876   1.364
 4720SOL    HW115999   6.262   4.785   1.344
 4720SOL    HW216000   6.316   4.907   1.414
 4721SOL     OW16001   1.935   3.305   3.141
 4721SOL    HW116002   1.986   3.369   3.192
 4721SOL    HW216003   1.844   3.323   3.165
 4722SOL     OW16004   7.994   0.293   7.605
 4722SOL    HW116005   8.074   0.277   7.554
 4722SOL    HW216006   7.970   0.383   7.583
 4723SOL     OW16007   7.984   8.663   1.799
 4723SOL    HW116008   7.953   8.750   1.772
 4723SOL    HW216009   7.905   8.612   1.813
 4724SOL     OW16010   9.009  14.387   8.449
 4724SOL    HW116011   8.961  14.362   8.527
 4724SOL    HW216012   9.073  14.317   8.436
 4725SOL     OW16013   9.470   6.500   5.316
 4725SOL    HW116014   9.480   6.594   5.299
 4725SOL    HW216015   9.390   6.476   5.270
 4726SOL     OW16016  10.161   2.495   6.145
 4726SOL    HW116017  10.127   2.460   6.227
 4726SOL    HW216018  10.086   2.492   6.085
 4727SOL     OW16019   4.029   3.328   7.389
 4727SOL    HW116020   3.988   3.402   7.434
 4727SOL    HW216021   4.065   3.275   7.460
 4728SOL     OW16022   4.206   0.583   5.924
 4728SOL    HW116023   4.229   0.492   5.943
 4728SOL    HW216024   4.259   0.634   5.986
 4729SOL     OW16025  14.234   5.080  10.941
 4729SOL    HW116026  14.171   5.037  10.998
 4729SOL    HW216027  14.187   5.095  10.859
 4730SOL     OW16028  14.413  14.067  11.874
 4730SOL    HW116029  14.388  14.057  11.966
 4730SOL    HW216030  14.499  14.109  11.877
 4731SOL     OW16031  12.104   2.636   5.409
 4731SOL    HW116032  12.199   2.648   5.411
 4731SOL    HW216033  12.081   2.641   5.316
 4732SOL     OW16034   3.799  11.219  11.629
 4732SOL    HW116035   3.808  11.272  11.708
 4732SOL    HW216036   3.705  11.206  11.620
 4733SOL     OW16037   1.089  12.749   0.041
 4733SOL    HW116038   1.147  12.759   0.116
 4733SOL    HW216039   1.001  12.751   0.079
 4734SOL     OW16040  13.656  10.062  12.570
 4734SOL    HW116041  13.710  10.096  12.641
 4734SOL    HW216042  13.596  10.134  12.550
 4735SOL     OW16043   2.642  13.275   8.168
 4735SOL    HW116044   2.670  13.198   8.118
 4735SOL    HW216045   2.717  13.297   8.222
 4736SOL     OW16046   4.919   0.132   0.479
 4736SOL    HW116047   4.997   0.112   0.531
 4736SOL    HW216048   4.846   0.124   0.541
 4737SOL     OW16049   3.904   9.561   6.143
 4737SOL    HW116050   3.953   9.480   6.155
 4737SOL    HW216051   3.854   9.572   6.224
 4738SOL     OW16052   3.326   3.843   6.939
 4738SOL    HW116053   3.399   3.792   6.904
 4738SOL    HW216054   3.337   3.842   7.034
 4739SOL     OW16055   4.792  12.274   6.237
 4739SOL    HW116056   4.817  12.188   6.271
 4739SOL    HW216057   4.711  12.257   6.188
 4740SOL     OW16058   2.828  14.074   6.578
 4740SOL    HW116059   2.822  13.980   6.559
 4740SOL    HW216060   2.738  14.102   6.590
 4741SOL     OW16061  12.754  12.623  12.862
 4741SOL    HW116062  12.807  12.577  12.797
 4741SOL    HW216063  12.697  12.555  12.898
 4742SOL     OW16064   8.530   6.536  11.598
 4742SOL    HW116065   8.567   6.451  11.573
 4742SOL    HW216066   8.443   6.537  11.558
 4743SOL     OW16067   6.470   0.129  11.946
 4743SOL    HW116068   6.396   0.068  11.948
 4743SOL    HW216069   6.457   0.185  12.023
 4744SOL     OW16070   9.052   6.012   4.883
 4744SOL    HW116071   9.031   6.026   4.791
 4744SOL    HW216072   9.145   6.032   4.890
 4745SOL     OW16073   7.830  13.199   8.384
 4745SOL    HW116074   7.889  13.209   8.459
 4745SOL    HW216075   7.877  13.140   8.324
 4746SOL     OW16076   5.863  12.472   9.191
 4746SOL    HW116077   5.901  12.396   9.148
 4746SOL    HW216078   5.936  12.511   9.240
 4747SOL     OW16079   8.290   0.566  11.030
 4747SOL    HW116080   8.321   0.641  11.080
 4747SOL    HW216081   8.207   0.541  11.072
 4748SOL     OW16082  13.727  14.144   4.742
 4748SOL    HW116083  13.660  14.132   4.675
 4748SOL    HW216084  13.694  14.214   4.798
 4749SOL     OW16085   2.293   9.241   0.692
 4749SOL    HW116086   2.328   9.295   0.764
 4749SOL    HW216087   2.203   9.271   0.682
 4750SOL     OW16088   6.665   8.105  11.863
 4750SOL    HW116089   6.677   8.011  11.849
 4750SOL    HW216090   6.570   8.118  11.858
 4751SOL     OW16091   8.042   3.516  13.686
 4751SOL    HW116092   7.999   3.529  13.771
 4751SOL    HW216093   7.971   3.486  13.628
 4752SOL     OW16094  11.632   7.972   2.211
 4752SOL    HW116095  11.692   7.945   2.280
 4752SOL    HW216096  11.560   7.910   2.216
 4753SOL     OW16097  10.562  14.317  14.481
 4753SOL    HW116098  10.538  14.326  14.573
 4753SOL    HW216099  10.499  14.373  14.435
 4754SOL     OW16100   3.453   9.534   4.818
 4754SOL    HW116101   3.363   9.507   4.800
 4754SOL    HW216102   3.445   9.625   4.848
 4755SOL     OW16103  13.357   2.550   8.837
 4755SOL    HW116104  13.266   2.579   8.826
 4755SOL    HW216105  13.379   2.574   8.927
 4756SOL     OW16106   5.249   6.070   4.848
 4756SOL    HW116107   5.255   6.005   4.779
 4756SOL    HW216108   5.249   6.154   4.802
 4757SOL     OW16109  11.054  12.766  10.098
 4757SOL    HW116110  11.009  12.849  10.113
 4757SOL    HW216111  11.061  12.727  10.185
 4758SOL     OW16112  11.684   8.669   3.167
 4758SOL    HW116113  11.723   8.612   3.233
 4758SOL    HW216114  11.676   8.754   3.211
 4759SOL     OW16115   8.744  11.908  11.318
 4759SOL    HW116116   8.771  11.864  11.237
 4759SOL    HW216117   8.650  11.920  11.307
 4760SOL     OW16118  14.818  12.123   8.163
 4760SOL    HW116119   0.003  12.174   8.106
 4760SOL    HW216120  14.775  12.188   8.218
 4761SOL     OW16121   4.793   5.663   4.759
 4761SOL    HW116122   4.764   5.573   4.775
 4761SOL    HW216123   4.861   5.678   4.824
 4762SOL     OW16124   3.967   8.627  13.775
 4762SOL    HW116125   3.938   8.597  13.689
 4762SOL    HW216126   3.965   8.722  13.769
 4763SOL     OW16127  10.024   0.764   1.775
 4763SOL    HW116128  10.107   0.725   1.803
 4763SOL    HW216129   9.963   0.691   1.773
 4764SOL     OW16130   8.365   6.833   7.285
 4764SOL    HW116131   8.390   6.917   7.247
 4764SOL    HW216132   8.271   6.826   7.268
 4765SOL     OW16133   8.512   5.647   2.953
 4765SOL    HW116134   8.525   5.726   2.900
 4765SOL    HW216135   8.495   5.579   2.888
 4766SOL     OW16136   3.702   1.975   4.053
 4766SOL    HW116137   3.774   1.998   4.112
 4766SOL    HW216138   3.630   1.951   4.111
 4767SOL     OW16139  12.368   4.988   6.557
 4767SOL    HW116140  12.293   5.033   6.596
 4767SOL    HW216141  12.442   5.046   6.577
 4768SOL     OW16142  11.689   0.848   7.711
 4768SOL    HW116143  11.710   0.883   7.798
 4768SOL    HW216144  11.601   0.881   7.692
 4769SOL     OW16145   4.716   7.488   1.185
 4769SOL    HW116146   4.728   7.575   1.147
 4769SOL    HW216147   4.623   7.469   1.172
 4770SOL     OW16148  14.376   4.077   0.464
 4770SOL    HW116149  14.410   4.035   0.543
 4770SOL    HW216150  14.310   4.016   0.431
 4771SOL     OW16151   4.358   4.159   2.161
 4771SOL    HW116152   4.322   4.091   2.218
 4771SOL    HW216153   4.302   4.235   2.175
 4772SOL     OW16154   0.777   5.989   3.437
 4772SOL    HW116155   0.806   5.912   3.389
 4772SOL    HW216156   0.728   5.954   3.511
 4773SOL     OW16157   8.534  11.143   4.079
 4773SOL    HW116158   8.472  11.208   4.114
 4773SOL    HW216159   8.619  11.187   4.081
 4774SOL     OW16160  11.512   1.709   7.058
 4774SOL    HW116161  11.560   1.683   6.979
 4774SOL    HW216162  11.559   1.786   7.090
 4775SOL     OW16163  11.969  13.683   7.362
 4775SOL    HW116164  11.956  13.618   7.293
 4775SOL    HW216165  12.064  13.693   7.367
 4776SOL     OW16166   7.765   2.210   3.412
 4776SOL    HW116167   7.756   2.232   3.319
 4776SOL    HW216168   7.698   2.263   3.456
 4777SOL     OW16169   9.049  13.469   6.412
 4777SOL    HW116170   9.100  13.507   6.483
 4777SOL    HW216171   9.114  13.442   6.347
 4778SOL     OW16172   0.116   0.767  14.176
 4778SOL    HW116173   0.112   0.860  14.198
 4778SOL    HW216174   0.148   0.765  14.085
 4779SOL     OW16175  10.837  12.012   7.026
 4779SOL    HW116176  10.756  12.019   7.076
 4779SOL    HW216177  10.869  11.924   7.044
 4780SOL     OW16178   9.733   0.882   8.154
 4780SOL    HW116179   9.800   0.949   8.142
 4780SOL    HW216180   9.765   0.828   8.227
 4781SOL     OW16181   4.671   0.508   1.973
 4781SOL    HW116182   4.691   0.473   2.060
 4781SOL    HW216183   4.731   0.582   1.963
 4782SOL     OW16184  13.444   0.127  12.010
 4782SOL    HW116185  13.370   0.094  11.958
 4782SOL    HW216186  13.451   0.066  12.083
 4783SOL     OW16187   7.277   7.150   0.923
 4783SOL    HW116188   7.310   7.061   0.914
 4783SOL    HW216189   7.310   7.180   1.007
 4784SOL     OW16190   8.236  12.752  10.156
 4784SOL    HW116191   8.304  12.816  10.136
 4784SOL    HW216192   8.276  12.668  10.135
 4785SOL     OW16193   2.437   8.383  13.405
 4785SOL    HW116194   2.525   8.409  13.430
 4785SOL    HW216195   2.390   8.466  13.393
 4786SOL     OW16196   9.460   6.106   2.845
 4786SOL    HW116197   9.433   6.040   2.781
 4786SOL    HW216198   9.525   6.159   2.799
 4787SOL     OW16199  13.513   1.258   3.693
 4787SOL    HW116200  13.499   1.238   3.785
 4787SOL    HW216201  13.428   1.247   3.652
 4788SOL     OW16202  14.355  12.473   3.188
 4788SOL    HW116203  14.347  12.462   3.094
 4788SOL    HW216204  14.429  12.418   3.214
 4789SOL     OW16205  13.255   1.311  10.380
 4789SOL    HW116206  13.313   1.273  10.446
 4789SOL    HW216207  13.212   1.384  10.426
 4790SOL     OW16208   9.869  14.525  10.386
 4790SOL    HW116209   9.909  14.565  10.308
 4790SOL    HW216210   9.887  14.431  10.377
 4791SOL     OW16211   8.185  13.029   5.880
 4791SOL    HW116212   8.193  12.936   5.857
 4791SOL    HW216213   8.254  13.043   5.945
 4792SOL     OW16214  12.788   5.928  13.074
 4792SOL    HW116215  12.843   5.939  13.151
 4792SOL    HW216216  12.851   5.920  13.001
 4793SOL     OW16217  10.273  10.997  10.725
 4793SOL    HW116218  10.365  10.970  10.735
 4793SOL    HW216219  10.269  11.038  10.639
 4794SOL     OW16220   3.183  10.544  13.738
 4794SOL    HW116221   3.258  10.485  13.739
 4794SOL    HW216222   3.203  10.607  13.669
 4795SOL     OW16223   8.801   0.958   1.233
 4795SOL    HW116224   8.801   0.971   1.138
 4795SOL    HW216225   8.887   0.990   1.261
 4796SOL     OW16226   2.809   2.725   0.585
 4796SOL    HW116227   2.840   2.659   0.523
 4796SOL    HW216228   2.882   2.786   0.594
 4797SOL     OW16229   3.150   9.925   8.642
 4797SOL    HW116230   3.181   9.836   8.621
 4797SOL    HW216231   3.178   9.978   8.567
 4798SOL     OW16232   4.777   4.935   2.965
 4798SOL    HW116233   4.700   4.992   2.959
 4798SOL    HW216234   4.749   4.864   3.024
 4799SOL     OW16235   7.651  11.789   1.127
 4799SOL    HW116236   7.578  11.770   1.068
 4799SOL    HW216237   7.729  11.784   1.072
 4800SOL     OW16238   5.696   2.631   3.006
 4800SOL    HW116239   5.782   2.626   2.963
 4800SOL    HW216240   5.701   2.709   3.061
 4801SOL     OW16241  10.853   3.033   4.253
 4801SOL    HW116242  10.913   3.037   4.178
 4801SOL    HW216243  10.845   3.124   4.282
 4802SOL     OW16244  12.351   4.933  10.887
 4802SOL    HW116245  12.430   4.881  10.873
 4802SOL    HW216246  12.289   4.873  10.928
 4803SOL     OW16247   4.296   7.131   0.386
 4803SOL    HW116248   4.390   7.121   0.377
 4803SOL    HW216249   4.263   7.042   0.395
 4804SOL     OW16250   4.070  11.248   9.496
 4804SOL    HW116251   4.012  11.172   9.493
 4804SOL    HW216252   4.094  11.256   9.588
 4805SOL     OW16253   7.877   3.431   9.958
 4805SOL    HW116254   7.811   3.459   9.894
 4805SOL    HW216255   7.903   3.344   9.929
 4806SOL     OW16256   0.651  12.119  11.127
 4806SOL    HW116257   0.589  12.188  11.101
 4806SOL    HW216258   0.606  12.072  11.197
 4807SOL     OW16259  13.064   6.714   7.074
 4807SOL    HW116260  13.014   6.655   7.018
 4807SOL    HW216261  13.143   6.733   7.024
 4808SOL     OW16262   8.868   5.955  14.635
 4808SOL    HW116263   8.958   5.941  14.606
 4808SOL    HW216264   8.814   5.914  14.567
 4809SOL     OW16265  12.486   1.823   6.050
 4809SOL    HW116266  12.437   1.746   6.079
 4809SOL    HW216267  12.419   1.888   6.030
 4810SOL     OW16268   7.873   0.798  10.964
 4810SOL    HW116269   7.847   0.762  11.048
 4810SOL    HW216270   7.864   0.725  10.903
 4811SOL     OW16271   6.545  13.280   6.420
 4811SOL    HW116272   6.495  13.304   6.498
 4811SOL    HW216273   6.514  13.340   6.352
 4812SOL     OW16274   4.205   8.320  12.911
 4812SOL    HW116275   4.186   8.374  12.834
 4812SOL    HW216276   4.192   8.230  12.882
 4813SOL     OW16277   7.869  11.730  11.560
 4813SOL    HW116278   7.941  11.668  11.567
 4813SOL    HW216279   7.879  11.788  11.635
 4814SOL     OW16280   4.126   6.636   2.120
 4814SOL    HW116281   4.174   6.695   2.062
 4814SOL    HW216282   4.051   6.606   2.068
 4815SOL     OW16283   7.827   3.941   0.090
 4815SOL    HW116284   7.886   3.876   0.131
 4815SOL    HW216285   7.832   4.017   0.147
 4816SOL     OW16286   7.123  11.300  10.529
 4816SOL    HW116287   7.037  11.339  10.543
 4816SOL    HW216288   7.152  11.274  10.616
 4817SOL     OW16289   3.988  14.133   5.514
 4817SOL    HW116290   4.073  14.176   5.524
 4817SOL    HW216291   4.008  14.040   5.520
 4818SOL     OW16292  10.133   0.538   5.761
 4818SOL    HW116293  10.126   0.617   5.707
 4818SOL    HW216294  10.057   0.485   5.738
 4819SOL     OW16295   3.383  14.441   3.791
 4819SOL    HW116296   3.307  14.386   3.809
 4819SOL    HW216297   3.392  14.495   3.869
 4820SOL     OW16298   6.941  11.135  13.120
 4820SOL    HW116299   6.853  11.118  13.153
 4820SOL    HW216300   6.927  11.179  13.036
 4821SOL     OW16301   5.920   1.994  11.574
 4821SOL    HW116302   5.837   1.948  11.572
 4821SOL    HW216303   5.973   1.948  11.639
 4822SOL     OW16304   6.279   1.988   0.431
 4822SOL    HW116305   6.322   2.061   0.476
 4822SOL    HW216306   6.225   2.031   0.364
 4823SOL     OW16307   1.512  10.127   8.822
 4823SOL    HW116308   1.556  10.169   8.748
 4823SOL    HW216309   1.566  10.148   8.898
 4824SOL     OW16310  10.625   5.525  11.875
 4824SOL    HW116311  10.643   5.612  11.841
 4824SOL    HW216312  10.565   5.540  11.948
 4825SOL     OW16313   7.991   3.132  11.070
 4825SOL    HW116314   8.063   3.073  11.046
 4825SOL    HW216315   8.026   3.184  11.142
 4826SOL     OW16316   2.526   4.656   1.412
 4826SOL    HW116317   2.430   4.658   1.417
 4826SOL    HW216318   2.547   4.705   1.333
 4827SOL     OW16319   8.960  12.910   3.028
 4827SOL    HW116320   8.912  12.991   3.042
 4827SOL    HW216321   9.031  12.934   2.968
 4828SOL     OW16322   0.674   7.103  12.937
 4828SOL    HW116323   0.683   7.186  12.983
 4828SOL    HW216324   0.709   7.121  12.850
 4829SOL     OW16325   1.700   3.901   5.301
 4829SOL    HW116326   1.784   3.922   5.341
 4829SOL    HW216327   1.704   3.806   5.287
 4830SOL     OW16328   3.061   3.865   1.510
 4830SOL    HW116329   2.991   3.815   1.470
 4830SOL    HW216330   3.095   3.809   1.579
 4831SOL     OW16331   5.364  13.488  13.569
 4831SOL    HW116332   5.364  13.583  13.580
 4831SOL    HW216333   5.448  13.468  13.527
 4832SOL     OW16334   3.914   7.233   7.979
 4832SOL    HW116335   3.938   7.257   8.069
 4832SOL    HW216336   3.971   7.158   7.959
 4833SOL     OW16337   2.455  13.713  13.093
 4833SOL    HW116338   2.447  13.650  13.022
 4833SOL    HW216339   2.368  13.751  13.101
 4834SOL     OW16340   0.166   6.261   3.980
 4834SOL    HW116341   0.228   6.283   4.049
 4834SOL    HW216342   0.142   6.346   3.942
 4835SOL     OW16343   5.853  13.890   7.592
 4835SOL    HW116344   5.885  13.800   7.599
 4835SOL    HW216345   5.760  13.882   7.573
 4836SOL     OW16346   4.846  13.000  10.287
 4836SOL    HW116347   4.910  13.016  10.356
 4836SOL    HW216348   4.767  12.973  10.333
 4837SOL     OW16349   6.995   3.614   5.586
 4837SOL    HW116350   7.015   3.707   5.597
 4837SOL    HW216351   7.076   3.569   5.611
 4838SOL     OW16352   9.386  11.033   1.165
 4838SOL    HW116353   9.457  10.969   1.159
 4838SOL    HW216354   9.384  11.075   1.079
 4839SOL     OW16355  10.656  14.165   3.691
 4839SOL    HW116356  10.578  14.113   3.670
 4839SOL    HW216357  10.674  14.215   3.611
 4840SOL     OW16358   5.649   7.505   2.588
 4840SOL    HW116359   5.575   7.524   2.646
 4840SOL    HW216360   5.683   7.591   2.565
 4841SOL     OW16361  13.353   1.453   8.383
 4841SOL    HW116362  13.299   1.525   8.415
 4841SOL    HW216363  13.294   1.400   8.329
 4842SOL     OW16364  13.433   2.136   9.858
 4842SOL    HW116365  13.439   2.159   9.766
 4842SOL    HW216366  13.359   2.187   9.892
 4843SOL     OW16367   7.007   6.096  11.940
 4843SOL    HW116368   6.941   6.031  11.916
 4843SOL    HW216369   7.002   6.161  11.870
 4844SOL     OW16370  12.065   0.997   1.285
 4844SOL    HW116371  12.045   0.922   1.228
 4844SOL    HW216372  12.147   0.974   1.327
 4845SOL     OW16373   2.190   0.978  10.641
 4845SOL    HW116374   2.157   1.006  10.726
 4845SOL    HW216375   2.219   0.888  10.655
 4846SOL     OW16376   6.360   9.822   0.645
 4846SOL    HW116377   6.326   9.783   0.564
 4846SOL    HW216378   6.284   9.823   0.704
 4847SOL     OW16379   7.528  12.782   6.733
 4847SOL    HW116380   7.457  12.751   6.677
 4847SOL    HW216381   7.492  12.859   6.777
 4848SOL     OW16382   9.630   0.121   4.448
 4848SOL    HW116383   9.617   0.030   4.423
 4848SOL    HW216384   9.634   0.119   4.544
 4849SOL     OW16385   6.975   5.608   9.973
 4849SOL    HW116386   7.006   5.533  10.023
 4849SOL    HW216387   6.977   5.580   9.882
 4850SOL     OW16388   6.134  13.757  10.246
 4850SOL    HW116389   6.076  13.797  10.181
 4850SOL    HW216390   6.221  13.764  10.208
 4851SOL     OW16391   4.388   4.235   0.388
 4851SOL    HW116392   4.383   4.330   0.382
 4851SOL    HW216393   4.389   4.205   0.297
 4852SOL     OW16394   2.781  14.560  11.627
 4852SOL    HW116395   2.830  14.608  11.560
 4852SOL    HW216396   2.847  14.530  11.689
 4853SOL     OW16397  13.729   2.845  10.894
 4853SOL    HW116398  13.767   2.930  10.914
 4853SOL    HW216399  13.761   2.824  10.806
 4854SOL     OW16400   8.215  14.870   3.647
 4854SOL    HW116401   8.149  14.862   3.577
 4854SOL    HW216402   8.166   0.033   3.721
 4855SOL     OW16403   2.645  13.605   0.281
 4855SOL    HW116404   2.610  13.534   0.226
 4855SOL    HW216405   2.683  13.560   0.356
 4856SOL     OW16406   6.817   7.422   1.940
 4856SOL    HW116407   6.741   7.478   1.956
 4856SOL    HW216408   6.796   7.340   1.984
 4857SOL     OW16409   9.777  10.467  12.164
 4857SOL    HW116410   9.827  10.409  12.106
 4857SOL    HW216411   9.686  10.438  12.154
 4858SOL     OW16412   0.910   2.170   6.186
 4858SOL    HW116413   0.966   2.197   6.259
 4858SOL    HW216414   0.830   2.138   6.227
 4859SOL     OW16415   3.865   2.336   5.290
 4859SOL    HW116416   3.865   2.241   5.303
 4859SOL    HW216417   3.899   2.371   5.372
 4860SOL     OW16418   4.639   9.942  12.568
 4860SOL    HW116419   4.690  10.013  12.528
 4860SOL    HW216420   4.549   9.956  12.536
 4861SOL     OW16421   3.080  11.720   8.970
 4861SOL    HW116422   3.131  11.743   9.047
 4861SOL    HW216423   3.048  11.804   8.937
 4862SOL     OW16424   8.949   8.623   0.627
 4862SOL    HW116425   8.936   8.566   0.703
 4862SOL    HW216426   8.977   8.563   0.557
 4863SOL     OW16427   9.510   9.718  12.198
 4863SOL    HW116428   9.422   9.680  12.196
 4863SOL    HW216429   9.496   9.809  12.225
 4864SOL     OW16430   6.717   2.442  11.270
 4864SOL    HW116431   6.681   2.514  11.219
 4864SOL    HW216432   6.788   2.407  11.216
 4865SOL     OW16433   8.843   4.939  10.691
 4865SOL    HW116434   8.896   4.899  10.760
 4865SOL    HW216435   8.879   5.027  10.679
 4866SOL     OW16436  10.157  10.409   4.858
 4866SOL    HW116437  10.244  10.450   4.859
 4866SOL    HW216438  10.131  10.410   4.766
 4867SOL     OW16439   3.279   1.425   9.717
 4867SOL    HW116440   3.308   1.469   9.637
 4867SOL    HW216441   3.260   1.335   9.689
 4868SOL     OW16442  12.400   1.592   6.159
 4868SOL    HW116443  12.479   1.588   6.213
 4868SOL    HW216444  12.336   1.538   6.206
 4869SOL     OW16445  10.523   4.166   6.225
 4869SOL    HW116446  10.462   4.102   6.187
 4869SOL    HW216447  10.561   4.211   6.150
 4870SOL     OW16448  13.390  10.312  11.008
 4870SOL    HW116449  13.310  10.303  10.956
 4870SOL    HW216450  13.372  10.383  11.068
 4871SOL     OW16451   4.441  14.728   4.050
 4871SOL    HW116452   4.444  14.645   4.002
 4871SOL    HW216453   4.399  14.790   3.990
 4872SOL     OW16454   1.855   1.949   1.634
 4872SOL    HW116455   1.900   1.925   1.553
 4872SOL    HW216456   1.767   1.973   1.606
 4873SOL     OW16457   5.770   6.971   1.925
 4873SOL    HW116458   5.700   7.024   1.963
 4873SOL    HW216459   5.844   7.032   1.916
 4874SOL     OW16460  12.385   8.211   8.314
 4874SOL    HW116461  12.402   8.305   8.303
 4874SOL    HW216462  12.426   8.170   8.237
 4875SOL     OW16463   3.538  12.431   0.573
 4875SOL    HW116464   3.506  12.382   0.648
 4875SOL    HW216465   3.582  12.508   0.611
 4876SOL     OW16466   5.946   9.924   6.175
 4876SOL    HW116467   5.952   9.972   6.092
 4876SOL    HW216468   5.971   9.988   6.241
 4877SOL     OW16469   6.027   1.134  11.440
 4877SOL    HW116470   6.072   1.142  11.524
 4877SOL    HW216471   5.972   1.212  11.435
 4878SOL     OW16472  14.339  11.805  14.404
 4878SOL    HW116473  14.411  11.742  14.403
 4878SOL    HW216474  14.381  11.891  14.408
 4879SOL     OW16475   9.031   8.313   3.625
 4879SOL    HW116476   8.961   8.250   3.642
 4879SOL    HW216477   9.050   8.303   3.532
 4880SOL     OW16478   1.147   6.043   2.492
 4880SOL    HW116479   1.160   6.014   2.402
 4880SOL    HW216480   1.054   6.031   2.508
 4881SOL     OW16481   3.197   4.678   7.153
 4881SOL    HW116482   3.189   4.621   7.230
 4881SOL    HW216483   3.216   4.765   7.189
 4882SOL     OW16484  11.774  13.145   2.793
 4882SOL    HW116485  11.775  13.169   2.885
 4882SOL    HW216486  11.865  13.120   2.774
 4883SOL     OW16487   0.086   9.977   7.358
 4883SOL    HW116488   0.045  10.017   7.435
 4883SOL    HW216489   0.069  10.038   7.287
 4884SOL     OW16490  10.734   7.438  14.201
 4884SOL    HW116491  10.660   7.424  14.143
 4884SOL    HW216492  10.808   7.396  14.157
 4885SOL     OW16493  11.469   4.264   6.889
 4885SOL    HW116494  11.496   4.268   6.980
 4885SOL    HW216495  11.416   4.343   6.876
 4886SOL     OW16496   0.424   5.940  13.816
 4886SOL    HW116497   0.328   5.945  13.813
 4886SOL    HW216498   0.449   5.904  13.732
 4887SOL     OW16499  11.604   7.741   8.637
 4887SOL    HW116500  11.555   7.719   8.558
 4887SOL    HW216501  11.656   7.663   8.655
 4888SOL     OW16502   0.474   2.253   4.733
 4888SOL    HW116503   0.491   2.182   4.671
 4888SOL    HW216504   0.443   2.208   4.812
 4889SOL     OW16505  11.621   2.722  13.151
 4889SOL    HW116506  11.620   2.680  13.065
 4889SOL    HW216507  11.674   2.800  13.139
 4890SOL     OW16508  10.076   5.550  12.140
 4890SOL    HW116509  10.030   5.633  12.136
 4890SOL    HW216510  10.136   5.559  12.215
 4891SOL     OW16511   3.266   8.145  14.269
 4891SOL    HW116512   3.235   8.178  14.353
 4891SOL    HW216513   3.333   8.081  14.291
 4892SOL     OW16514  14.787   7.554   6.250
 4892SOL    HW116515  14.751   7.542   6.162
 4892SOL    HW216516  14.851   7.625   6.241
 4893SOL     OW16517   5.337   4.544  13.737
 4893SOL    HW116518   5.275   4.601  13.782
 4893SOL    HW216519   5.308   4.545  13.646
 4894SOL     OW16520   8.334   2.882   3.831
 4894SOL    HW116521   8.285   2.839   3.901
 4894SOL    HW216522   8.291   2.968   3.821
 4895SOL     OW16523   7.351  11.681  13.064
 4895SOL    HW116524   7.372  11.667  13.156
 4895SOL    HW216525   7.431  11.657  13.018
 4896SOL     OW16526   7.381   7.785   1.617
 4896SOL    HW116527   7.300   7.779   1.667
 4896SOL    HW216528   7.435   7.713   1.649
 4897SOL     OW16529  13.093   6.627   5.402
 4897SOL    HW116530  13.014   6.677   5.382
 4897SOL    HW216531  13.114   6.581   5.321
 4898SOL     OW16532  13.770   5.572   7.533
 4898SOL    HW116533  13.855   5.576   7.577
 4898SOL    HW216534  13.790   5.534   7.447
 4899SOL     OW16535   7.748   5.390  10.932
 4899SOL    HW116536   7.715   5.420  10.847
 4899SOL    HW216537   7.753   5.294  10.922
 4900SOL     OW16538   5.034   0.818   7.259
 4900SOL    HW116539   5.049   0.912   7.267
 4900SOL    HW216540   5.121   0.780   7.257
 4901SOL     OW16541   4.095   6.996  11.192
 4901SOL    HW116542   4.037   7.056  11.240
 4901SOL    HW216543   4.038   6.952  11.130
 4902SOL     OW16544  12.701   9.777  10.236
 4902SOL    HW116545  12.654   9.836  10.177
 4902SOL    HW216546  12.748   9.717  10.178
 4903SOL     OW16547   6.845   4.437   1.739
 4903SOL    HW116548   6.844   4.372   1.669
 4903SOL    HW216549   6.765   4.488   1.726
 4904SOL     OW16550   1.137   8.583  13.489
 4904SOL    HW116551   1.191   8.639  13.545
 4904SOL    HW216552   1.115   8.639  13.414
 4905SOL     OW16553  13.701   7.943   0.948
 4905SOL    HW116554  13.658   7.942   1.033
 4905SOL    HW216555  13.723   8.035   0.933
 4906SOL     OW16556   4.554   9.980   9.198
 4906SOL    HW116557   4.605   9.977   9.279
 4906SOL    HW216558   4.509   9.896   9.195
 4907SOL     OW16559   3.424  10.249   7.060
 4907SOL    HW116560   3.387  10.335   7.039
 4907SOL    HW216561   3.502  10.242   7.005
 4908SOL     OW16562   8.422   5.752  13.855
 4908SOL    HW116563   8.336   5.714  13.873
 4908SOL    HW216564   8.405   5.814  13.783
 4909SOL     OW16565   5.410  10.951   8.288
 4909SOL    HW116566   5.347  11.003   8.339
 4909SOL    HW216567   5.486  10.942   8.346
 4910SOL     OW16568   2.216   2.140  10.809
 4910SOL    HW116569   2.162   2.132  10.888
 4910SOL    HW216570   2.272   2.216  10.825
 4911SOL     OW16571  12.741   1.373   1.874
 4911SOL    HW116572  12.814   1.310   1.868
 4911SOL    HW216573  12.723   1.397   1.783
 4912SOL     OW16574   0.897  11.753   5.984
 4912SOL    HW116575   0.833  11.771   6.053
 4912SOL    HW216576   0.981  11.749   6.030
 4913SOL     OW16577   7.620  11.355   3.575
 4913SOL    HW116578   7.660  11.420   3.516
 4913SOL    HW216579   7.588  11.407   3.649
 4914SOL     OW16580   8.739  12.105   9.734
 4914SOL    HW116581   8.822  12.058   9.721
 4914SOL    HW216582   8.673  12.037   9.743
 4915SOL     OW16583  10.986   8.045  10.007
 4915SOL    HW116584  10.964   7.983   9.937
 4915SOL    HW216585  10.914   8.109  10.006
 4916SOL     OW16586  13.696   5.907   5.889
 4916SOL    HW116587  13.689   5.967   5.963
 4916SOL    HW216588  13.640   5.834   5.912
 4917SOL     OW16589   1.013  14.366  14.615
 4917SOL    HW116590   1.024  14.321  14.532
 4917SOL    HW216591   1.070  14.319  14.676
 4918SOL     OW16592   1.159   3.463   9.390
 4918SOL    HW116593   1.182   3.514   9.468
 4918SOL    HW216594   1.084   3.509   9.352
 4919SOL     OW16595   5.698   2.812  12.910
 4919SOL    HW116596   5.752   2.874  12.958
 4919SOL    HW216597   5.676   2.857  12.828
 4920SOL     OW16598  11.745   1.359   2.604
 4920SOL    HW116599  11.657   1.390   2.626
 4920SOL    HW216600  11.736   1.264   2.603
 4921SOL     OW16601   5.825  10.603   1.664
 4921SOL    HW116602   5.816  10.697   1.647
 4921SOL    HW216603   5.829  10.563   1.578
 4922SOL     OW16604   3.185   4.173  12.178
 4922SOL    HW116605   3.280   4.164  12.164
 4922SOL    HW216606   3.147   4.103  12.124
 4923SOL     OW16607   6.362  11.118  11.405
 4923SOL    HW116608   6.342  11.083  11.318
 4923SOL    HW216609   6.391  11.207  11.389
 4924SOL     OW16610  14.785   0.345   9.783
 4924SOL    HW116611  14.767   0.359   9.690
 4924SOL    HW216612  14.789   0.250   9.792
 4925SOL     OW16613   4.258   1.415   7.964
 4925SOL    HW116614   4.179   1.412   8.018
 4925SOL    HW216615   4.251   1.338   7.908
 4926SOL     OW16616   2.782   3.283  13.966
 4926SOL    HW116617   2.861   3.309  13.919
 4926SOL    HW216618   2.726   3.360  13.965
 4927SOL     OW16619   6.395   3.045  13.520
 4927SOL    HW116620   6.349   3.052  13.437
 4927SOL    HW216621   6.480   3.006  13.497
 4928SOL     OW16622  12.582   4.085  12.543
 4928SOL    HW116623  12.608   4.167  12.586
 4928SOL    HW216624  12.665   4.041  12.524
 4929SOL     OW16625   3.181   0.570   6.806
 4929SOL    HW116626   3.227   0.632   6.862
 4929SOL    HW216627   3.203   0.597   6.717
 4930SOL     OW16628  13.473   8.758  10.991
 4930SOL    HW116629  13.396   8.702  10.979
 4930SOL    HW216630  13.439   8.847  10.982
 4931SOL     OW16631   0.854   8.341   3.584
 4931SOL    HW116632   0.786   8.342   3.652
 4931SOL    HW216633   0.808   8.317   3.504
 4932SOL     OW16634   4.556  10.781   8.993
 4932SOL    HW116635   4.549  10.857   9.052
 4932SOL    HW216636   4.518  10.709   9.042
 4933SOL     OW16637   5.002   0.925  12.414
 4933SOL    HW116638   4.923   0.878  12.387
 4933SOL    HW216639   4.982   1.017  12.400
 4934SOL     OW16640   5.982  13.308   6.353
 4934SOL    HW116641   6.066  13.283   6.313
 4934SOL    HW216642   6.004  13.325   6.445
 4935SOL     OW16643   3.037  10.282  12.471
 4935SOL    HW116644   2.998  10.368  12.485
 4935SOL    HW216645   3.102  10.273  12.540
 4936SOL     OW16646  11.087  10.047   0.119
 4936SOL    HW116647  11.169  10.054   0.071
 4936SOL    HW216648  11.094  10.112   0.189
 4937SOL     OW16649   1.135   3.608   7.632
 4937SOL    HW116650   1.112   3.588   7.541
 4937SOL    HW216651   1.193   3.684   7.626
 4938SOL     OW16652   5.503   7.731   2.983
 4938SOL    HW116653   5.533   7.817   3.013
 4938SOL    HW216654   5.582   7.679   2.976
 4939SOL     OW16655   1.847  11.280   6.424
 4939SOL    HW116656   1.919  11.298   6.485
 4939SOL    HW216657   1.843  11.185   6.420
 4940SOL     OW16658   6.058   3.488  10.226
 4940SOL    HW116659   6.089   3.520  10.141
 4940SOL    HW216660   5.981   3.435  10.204
 4941SOL     OW16661   7.365   6.409   9.175
 4941SOL    HW116662   7.290   6.430   9.119
 4941SOL    HW216663   7.326   6.382   9.258
 4942SOL     OW16664  12.974   1.130  10.054
 4942SOL    HW116665  13.064   1.158  10.073
 4942SOL    HW216666  12.946   1.187   9.983
 4943SOL     OW16667   9.294   0.178   2.457
 4943SOL    HW116668   9.333   0.093   2.476
 4943SOL    HW216669   9.271   0.174   2.364
 4944SOL     OW16670  11.692   2.378   8.035
 4944SOL    HW116671  11.616   2.396   7.978
 4944SOL    HW216672  11.687   2.444   8.104
 4945SOL     OW16673  12.550   4.699   4.304
 4945SOL    HW116674  12.586   4.750   4.376
 4945SOL    HW216675  12.598   4.616   4.307
 4946SOL     OW16676   2.536   4.924   8.321
 4946SOL    HW116677   2.586   4.939   8.401
 4946SOL    HW216678   2.601   4.932   8.251
 4947SOL     OW16679   5.229   0.621  11.009
 4947SOL    HW116680   5.190   0.707  11.027
 4947SOL    HW216681   5.286   0.605  11.084
 4948SOL     OW16682  12.815  11.739  12.561
 4948SOL    HW116683  12.765  11.682  12.503
 4948SOL    HW216684  12.904  11.702  12.561
 4949SOL     OW16685  12.245  10.538   2.668
 4949SOL    HW116686  12.255  10.533   2.763
 4949SOL    HW216687  12.188  10.465   2.646
 4950SOL     OW16688   9.137  10.681  10.577
 4950SOL    HW116689   9.130  10.587  10.559
 4950SOL    HW216690   9.158  10.720  10.492
 4951SOL     OW16691   0.533   4.345   0.583
 4951SOL    HW116692   0.619   4.386   0.584
 4951SOL    HW216693   0.484   4.389   0.653
 4952SOL     OW16694  10.951   5.927   4.849
 4952SOL    HW116695  10.856   5.915   4.842
 4952SOL    HW216696  10.962   6.017   4.878
 4953SOL     OW16697  11.153   9.347  13.896
 4953SOL    HW116698  11.114   9.427  13.860
 4953SOL    HW216699  11.079   9.300  13.934
 4954SOL     OW16700  14.584   4.223   3.737
 4954SOL    HW116701  14.573   4.303   3.788
 4954SOL    HW216702  14.678   4.206   3.740
 4955SOL     OW16703   8.683   9.784   4.316
 4955SOL    HW116704   8.699   9.794   4.410
 4955SOL    HW216705   8.765   9.750   4.281
 4956SOL     OW16706   9.197  14.240   6.287
 4956SOL    HW116707   9.219  14.150   6.312
 4956SOL    HW216708   9.267  14.292   6.325
 4957SOL     OW16709   4.328   9.844  14.704
 4957SOL    HW116710   4.323   9.759  14.748
 4957SOL    HW216711   4.247   9.850  14.653
 4958SOL     OW16712   5.243  13.572   5.015
 4958SOL    HW116713   5.333  13.602   5.027
 4958SOL    HW216714   5.224  13.519   5.092
 4959SOL     OW16715   2.409  14.840   4.302
 4959SOL    HW116716   2.353   0.032   4.344
 4959SOL    HW216717   2.498   0.000   4.313
 4960SOL     OW16718   9.051   1.639   7.045
 4960SOL    HW116719   9.072   1.723   7.086
 4960SOL    HW216720   9.068   1.654   6.951
 4961SOL     OW16721  13.413   6.558   4.487
 4961SOL    HW116722  13.349   6.621   4.452
 4961SOL    HW216723  13.496   6.604   4.482
 4962SOL     OW16724   0.767   7.566   7.909
 4962SOL    HW116725   0.741   7.607   7.991
 4962SOL    HW216726   0.684   7.542   7.867
 4963SOL     OW16727   6.266  11.488   9.789
 4963SOL    HW116728   6.351  11.532   9.798
 4963SOL    HW216729   6.280  11.422   9.720
 4964SOL     OW16730   3.703   6.574   2.487
 4964SOL    HW116731   3.673   6.491   2.524
 4964SOL    HW216732   3.639   6.639   2.519
 4965SOL     OW16733   3.683   5.209   4.694
 4965SOL    HW116734   3.656   5.284   4.641
 4965SOL    HW216735   3.671   5.134   4.636
 4966SOL     OW16736   4.000  10.914   7.014
 4966SOL    HW116737   3.966  10.837   7.058
 4966SOL    HW216738   3.924  10.970   6.999
 4967SOL     OW16739  10.202   8.785   4.342
 4967SOL    HW116740  10.218   8.723   4.413
 4967SOL    HW216741  10.247   8.747   4.267
 4968SOL     OW16742   1.505  14.345   8.112
 4968SOL    HW116743   1.429  14.396   8.084
 4968SOL    HW216744   1.487  14.257   8.079
 4969SOL     OW16745   9.861  11.066   5.179
 4969SOL    HW116746   9.822  11.001   5.238
 4969SOL    HW216747   9.858  11.025   5.093
 4970SOL     OW16748   9.971   2.294   8.887
 4970SOL    HW116749   9.991   2.332   8.801
 4970SOL    HW216750   9.887   2.332   8.911
 4971SOL     OW16751   5.375   1.045   5.104
 4971SOL    HW116752   5.344   1.105   5.037
 4971SOL    HW216753   5.385   0.961   5.059
 4972SOL     OW16754  13.369   8.663   6.872
 4972SOL    HW116755  13.389   8.571   6.853
 4972SOL    HW216756  13.274   8.665   6.882
 4973SOL     OW16757   7.189   7.289  10.442
 4973SOL    HW116758   7.104   7.264  10.479
 4973SOL    HW216759   7.169   7.316  10.353
 4974SOL     OW16760  14.576   8.165  11.020
 4974SOL    HW116761  14.565   8.161  10.925
 4974SOL    HW216762  14.561   8.256  11.042
 4975SOL     OW16763   4.522   4.851   0.045
 4975SOL    HW116764   4.600   4.809   0.082
 4975SOL    HW216765   4.461   4.779   0.028
 4976SOL     OW16766  12.839  14.081  12.131
 4976SOL    HW116767  12.926  14.044  12.141
 4976SOL    HW216768  12.780  14.010  12.156
 4977SOL     OW16769   2.948   2.351   6.147
 4977SOL    HW116770   2.965   2.262   6.117
 4977SOL    HW216771   3.024   2.402   6.118
 4978SOL     OW16772  10.295   4.585  14.380
 4978SOL    HW116773  10.376   4.624  14.346
 4978SOL    HW216774  10.273   4.516  14.317
 4979SOL     OW16775  10.401  13.004  11.923
 4979SOL    HW116776  10.393  13.042  11.835
 4979SOL    HW216777  10.417  12.911  11.908
 4980SOL     OW16778   1.802   3.586   6.965
 4980SOL    HW116779   1.884   3.636   6.970
 4980SOL    HW216780   1.739   3.638   7.015
 4981SOL     OW16781   3.444   7.467   2.201
 4981SOL    HW116782   3.484   7.549   2.230
 4981SOL    HW216783   3.362   7.494   2.159
 4982SOL     OW16784  10.038  14.463   9.675
 4982SOL    HW116785   9.961  14.444   9.728
 4982SOL    HW216786  10.064  14.551   9.702
 4983SOL     OW16787   9.643  10.157   4.515
 4983SOL    HW116788   9.674  10.217   4.447
 4983SOL    HW216789   9.565  10.116   4.477
 4984SOL     OW16790   3.569  14.086   8.210
 4984SOL    HW116791   3.485  14.065   8.250
 4984SOL    HW216792   3.547  14.140   8.134
 4985SOL     OW16793  11.257   4.108   2.633
 4985SOL    HW116794  11.189   4.098   2.700
 4985SOL    HW216795  11.339   4.091   2.680
 4986SOL     OW16796   6.996   6.667   2.358
 4986SOL    HW116797   7.048   6.746   2.340
 4986SOL    HW216798   6.916   6.680   2.308
 4987SOL     OW16799   3.466   1.179   6.040
 4987SOL    HW116800   3.371   1.177   6.042
 4987SOL    HW216801   3.492   1.087   6.051
 4988SOL     OW16802   7.441   2.612   6.314
 4988SOL    HW116803   7.519   2.645   6.358
 4988SOL    HW216804   7.376   2.603   6.384
 4989SOL     OW16805  14.168   2.053   1.273
 4989SOL    HW116806  14.194   2.145   1.284
 4989SOL    HW216807  14.157   2.043   1.179
 4990SOL     OW16808   4.602  12.007   6.955
 4990SOL    HW116809   4.615  12.060   7.034
 4990SOL    HW216810   4.508  11.994   6.950
 4991SOL     OW16811   4.298   2.709   6.086
 4991SOL    HW116812   4.321   2.680   5.998
 4991SOL    HW216813   4.335   2.797   6.093
 4992SOL     OW16814   4.699  14.335  12.472
 4992SOL    HW116815   4.701  14.240  12.459
 4992SOL    HW216816   4.676  14.370  12.386
 4993SOL     OW16817   1.138   4.997  13.251
 4993SOL    HW116818   1.159   5.003  13.344
 4993SOL    HW216819   1.052   4.955  13.249
 4994SOL     OW16820   4.814   4.397   6.316
 4994SOL    HW116821   4.858   4.366   6.396
 4994SOL    HW216822   4.871   4.465   6.282
 4995SOL     OW16823   8.898   5.369   3.561
 4995SOL    HW116824   8.916   5.299   3.623
 4995SOL    HW216825   8.951   5.443   3.590
 4996SOL     OW16826  14.196  14.275   5.686
 4996SOL    HW116827  14.106  14.307   5.689
 4996SOL    HW216828  14.203  14.219   5.763
 4997SOL     OW16829  14.851   4.631  10.509
 4997SOL    HW116830  14.845   4.701  10.444
 4997SOL    HW216831   0.064   4.592  10.494
 4998SOL     OW16832   1.759  11.095   4.112
 4998SOL    HW116833   1.682  11.044   4.087
 4998SOL    HW216834   1.823  11.029   4.141
 4999SOL     OW16835  12.528   6.343   8.761
 4999SOL    HW116836  12.510   6.269   8.819
 4999SOL    HW216837  12.444   6.361   8.719
 5000SOL     OW16838  12.271  12.061   1.281
 5000SOL    HW116839  12.191  12.036   1.236
 5000SOL    HW216840  12.264  12.157   1.290
 5001SOL     OW16841  14.640   0.224  14.674
 5001SOL    HW116842  14.646   0.234  14.579
 5001SOL    HW216843  14.726   0.251  14.706
 5002SOL     OW16844   1.413  12.251  10.730
 5002SOL    HW116845   1.386  12.223  10.818
 5002SOL    HW216846   1.344  12.219  10.672
 5003SOL     OW16847  12.307   6.560  13.336
 5003SOL    HW116848  12.271   6.472  13.326
 5003SOL    HW216849  12.380   6.549  13.396
 5004SOL     OW16850   9.651   1.363  14.208
 5004SOL    HW116851   9.667   1.421  14.283
 5004SOL    HW216852   9.723   1.381  14.148
 5005SOL     OW16853   6.442   0.774  14.708
 5005SOL    HW116854   6.470   0.797  14.620
 5005SOL    HW216855   6.486   0.837  14.765
 5006SOL     OW16856   7.234   1.211  12.603
 5006SOL    HW116857   7.316   1.169  12.576
 5006SOL    HW216858   7.230   1.291  12.550
 5007SOL     OW16859   7.154   1.301  13.555
 5007SOL    HW116860   7.180   1.213  13.528
 5007SOL    HW216861   7.070   1.316  13.512
 5008SOL     OW16862   7.515   3.272  11.971
 5008SOL    HW116863   7.468   3.275  11.888
 5008SOL    HW216864   7.603   3.302  11.950
 5009SOL     OW16865  13.571   7.470  13.160
 5009SOL    HW116866  13.615   7.542  13.205
 5009SOL    HW216867  13.640   7.430  13.107
 5010SOL     OW16868  11.590  13.258   1.111
 5010SOL    HW116869  11.543  13.193   1.163
 5010SOL    HW216870  11.682  13.243   1.132
 5011SOL     OW16871   2.603   4.424   0.985
 5011SOL    HW116872   2.655   4.365   0.932
 5011SOL    HW216873   2.652   4.434   1.066
 5012SOL     OW16874   2.822   3.037   3.139
 5012SOL    HW116875   2.891   2.974   3.160
 5012SOL    HW216876   2.741   2.985   3.139
 5013SOL     OW16877  13.601  12.769   3.517
 5013SOL    HW116878  13.587  12.713   3.593
 5013SOL    HW216879  13.677  12.823   3.540
 5014SOL     OW16880   0.024  10.465   6.638
 5014SOL    HW116881   0.030  10.452   6.543
 5014SOL    HW216882   0.098  10.522   6.659
 5015SOL     OW16883   7.004  14.279   4.460
 5015SOL    HW116884   7.007  14.281   4.364
 5015SOL    HW216885   6.932  14.221   4.481
 5016SOL     OW16886   2.681   3.235  11.919
 5016SOL    HW116887   2.667   3.210  11.828
 5016SOL    HW216888   2.614   3.188  11.969
 5017SOL     OW16889  12.357  10.580   1.592
 5017SOL    HW116890  12.397  10.666   1.608
 5017SOL    HW216891  12.304  10.592   1.513
 5018SOL     OW16892  12.372  13.442   2.505
 5018SOL    HW116893  12.370  13.431   2.410
 5018SOL    HW216894  12.409  13.361   2.538
 5019SOL     OW16895  12.432   3.008   1.886
 5019SOL    HW116896  12.493   3.079   1.905
 5019SOL    HW216897  12.407   2.973   1.972
 5020SOL     OW16898  10.633  14.000  11.663
 5020SOL    HW116899  10.695  14.022  11.732
 5020SOL    HW216900  10.612  13.908  11.677
 5021SOL     OW16901   6.716   6.259   9.455
 5021SOL    HW116902   6.695   6.260   9.361
 5021SOL    HW216903   6.692   6.171   9.483
 5022SOL     OW16904   6.415  11.735   9.547
 5022SOL    HW116905   6.485  11.762   9.488
 5022SOL    HW216906   6.353  11.689   9.491
 5023SOL     OW16907   5.380   9.983  14.359
 5023SOL    HW116908   5.451   9.996  14.421
 5023SOL    HW216909   5.423   9.971  14.274
 5024SOL     OW16910  10.931   7.077  13.988
 5024SOL    HW116911  10.839   7.073  14.012
 5024SOL    HW216912  10.950   6.991  13.950
 5025SOL     OW16913   4.541   0.259   7.472
 5025SOL    HW116914   4.588   0.260   7.388
 5025SOL    HW216915   4.594   0.314   7.530
 5026SOL     OW16916   1.459   4.925   4.345
 5026SOL    HW116917   1.393   4.874   4.298
 5026SOL    HW216918   1.535   4.925   4.286
 5027SOL     OW16919   3.713   2.323   2.275
 5027SOL    HW116920   3.649   2.373   2.326
 5027SOL    HW216921   3.791   2.320   2.329
 5028SOL     OW16922   0.440   0.268  13.731
 5028SOL    HW116923   0.387   0.321  13.671
 5028SOL    HW216924   0.437   0.316  13.814
 5029SOL     OW16925   1.210   4.326  11.935
 5029SOL    HW116926   1.292   4.355  11.975
 5029SOL    HW216927   1.179   4.402  11.886
 5030SOL     OW16928  11.083  11.001   4.843
 5030SOL    HW116929  10.988  11.003   4.832
 5030SOL    HW216930  11.103  11.080   4.894
 5031SOL     OW16931  14.403   4.712   5.963
 5031SOL    HW116932  14.363   4.641   5.913
 5031SOL    HW216933  14.436   4.670   6.042
 5032SOL     OW16934   0.034   5.120   0.054
 5032SOL    HW116935  14.812   5.121   0.069
 5032SOL    HW216936   0.047   5.188  14.860
 5033SOL     OW16937   2.974   5.726  13.447
 5033SOL    HW116938   3.026   5.653  13.413
 5033SOL    HW216939   2.948   5.697  13.535
 5034SOL     OW16940   1.728  13.070  10.075
 5034SOL    HW116941   1.729  13.166  10.073
 5034SOL    HW216942   1.805  13.046  10.127
 5035SOL     OW16943  11.378  12.160   6.938
 5035SOL    HW116944  11.404  12.246   6.904
 5035SOL    HW216945  11.460  12.112   6.948
 5036SOL     OW16946   6.013   3.745   9.293
 5036SOL    HW116947   5.963   3.722   9.371
 5036SOL    HW216948   5.951   3.791   9.237
 5037SOL     OW16949   4.626   7.254   7.839
 5037SOL    HW116950   4.701   7.312   7.848
 5037SOL    HW216951   4.664   7.169   7.817
 5038SOL     OW16952   6.689   1.100   5.995
 5038SOL    HW116953   6.754   1.090   6.065
 5038SOL    HW216954   6.724   1.169   5.940
 5039SOL     OW16955  13.783   3.267  11.957
 5039SOL    HW116956  13.866   3.220  11.958
 5039SOL    HW216957  13.753   3.266  12.048
 5040SOL     OW16958  11.926   2.322   1.833
 5040SOL    HW116959  11.845   2.347   1.879
 5040SOL    HW216960  11.954   2.242   1.876
 5041SOL     OW16961   2.747  14.813   5.603
 5041SOL    HW116962   2.843  14.811   5.604
 5041SOL    HW216963   2.723  14.866   5.679
 5042SOL     OW16964  13.147   5.803  14.097
 5042SOL    HW116965  13.128   5.844  14.013
 5042SOL    HW216966  13.241   5.813  14.109
 5043SOL     OW16967   5.099   1.819  10.452
 5043SOL    HW116968   5.075   1.727  10.455
 5043SOL    HW216969   5.016   1.866  10.445
 5044SOL     OW16970   0.115  10.221   5.547
 5044SOL    HW116971   0.068  10.281   5.605
 5044SOL    HW216972   0.136  10.146   5.602
 5045SOL     OW16973  10.061   5.507   8.393
 5045SOL    HW116974  10.149   5.535   8.369
 5045SOL    HW216975  10.066   5.411   8.395
 5046SOL     OW16976   1.407  11.490   7.751
 5046SOL    HW116977   1.370  11.423   7.693
 5046SOL    HW216978   1.341  11.559   7.752
 5047SOL     OW16979   7.326   2.297   7.400
 5047SOL    HW116980   7.355   2.301   7.491
 5047SOL    HW216981   7.266   2.371   7.391
 5048SOL     OW16982  13.662   3.304  10.127
 5048SOL    HW116983  13.690   3.222  10.167
 5048SOL    HW216984  13.632   3.358  10.200
 5049SOL     OW16985  11.647   9.920   8.804
 5049SOL    HW116986  11.557   9.926   8.835
 5049SOL    HW216987  11.644   9.856   8.733
 5050SOL     OW16988   0.313   1.578   3.699
 5050SOL    HW116989   0.365   1.648   3.739
 5050SOL    HW216990   0.313   1.598   3.606
 5051SOL     OW16991  10.647   6.563   4.440
 5051SOL    HW116992  10.598   6.511   4.503
 5051SOL    HW216993  10.736   6.566   4.476
 5052SOL     OW16994  13.746   5.937  14.285
 5052SOL    HW116995  13.830   5.979  14.302
 5052SOL    HW216996  13.690   6.007  14.251
 5053SOL     OW16997   0.340  10.397  10.778
 5053SOL    HW116998   0.314  10.475  10.827
 5053SOL    HW216999   0.314  10.324  10.834
 5054SOL     OW17000   1.810   3.680   4.991
 5054SOL    HW117001   1.776   3.603   4.947
 5054SOL    HW217002   1.769   3.679   5.077
 5055SOL     OW17003   4.906  11.988   7.465
 5055SOL    HW117004   4.986  12.013   7.509
 5055SOL    HW217005   4.935  11.953   7.380
 5056SOL     OW17006   1.010   9.560   9.255
 5056SOL    HW117007   0.947   9.631   9.264
 5056SOL    HW217008   1.089   9.603   9.220
 5057SOL     OW17009  10.851   9.141   5.353
 5057SOL    HW117010  10.930   9.189   5.376
 5057SOL    HW217011  10.815   9.111   5.436
 5058SOL     OW17012   8.251  10.495   8.119
 5058SOL    HW117013   8.170  10.500   8.169
 5058SOL    HW217014   8.320  10.495   8.184
 5059SOL     OW17015   4.077   0.960   2.060
 5059SOL    HW117016   4.147   0.985   2.120
 5059SOL    HW217017   4.114   0.888   2.010
 5060SOL     OW17018  12.679  13.123  11.713
 5060SOL    HW117019  12.628  13.196  11.680
 5060SOL    HW217020  12.726  13.158  11.789
 5061SOL     OW17021   8.488  11.249   4.373
 5061SOL    HW117022   8.481  11.258   4.468
 5061SOL    HW217023   8.480  11.338   4.339
 5062SOL     OW17024   0.135   1.938  10.002
 5062SOL    HW117025   0.180   1.979   9.928
 5062SOL    HW217026   0.206   1.916  10.063
 5063SOL     OW17027   9.983   8.390   0.703
 5063SOL    HW117028   9.973   8.419   0.793
 5063SOL    HW217029   9.946   8.302   0.702
 5064SOL     OW17030  12.631  11.341   7.543
 5064SOL    HW117031  12.630  11.420   7.490
 5064SOL    HW217032  12.604  11.271   7.483
 5065SOL     OW17033   0.732  12.423   2.489
 5065SOL    HW117034   0.784  12.406   2.411
 5065SOL    HW217035   0.649  12.378   2.472
 5066SOL     OW17036   9.985  12.162   6.591
 5066SOL    HW117037  10.060  12.113   6.625
 5066SOL    HW217038  10.013  12.193   6.505
 5067SOL     OW17039   0.612   8.337   3.763
 5067SOL    HW117040   0.535   8.350   3.707
 5067SOL    HW217041   0.589   8.376   3.847
 5068SOL     OW17042  10.370   6.789  14.614
 5068SOL    HW117043  10.370   6.820  14.705
 5068SOL    HW217044  10.451   6.822  14.577
 5069SOL     OW17045   2.904   6.899   5.212
 5069SOL    HW117046   2.890   6.984   5.170
 5069SOL    HW217047   2.883   6.834   5.145
 5070SOL     OW17048   8.466   5.805   5.122
 5070SOL    HW117049   8.413   5.802   5.042
 5070SOL    HW217050   8.483   5.898   5.135
 5071SOL     OW17051   8.199   6.048   2.584
 5071SOL    HW117052   8.251   6.009   2.655
 5071SOL    HW217053   8.187   5.977   2.521
 5072SOL     OW17054  12.521  13.389   2.276
 5072SOL    HW117055  12.605  13.380   2.321
 5072SOL    HW217056  12.516  13.482   2.253
 5073SOL     OW17057   0.428   3.440   5.797
 5073SOL    HW117058   0.471   3.524   5.783
 5073SOL    HW217059   0.499   3.375   5.794
 5074SOL     OW17060   7.174  12.987   7.357
 5074SOL    HW117061   7.226  13.021   7.430
 5074SOL    HW217062   7.231  12.925   7.313
 5075SOL     OW17063   6.731  13.885   6.334
 5075SOL    HW117064   6.711  13.858   6.244
 5075SOL    HW217065   6.750  13.979   6.326
 5076SOL     OW17066   8.474   8.321   7.446
 5076SOL    HW117067   8.481   8.310   7.351
 5076SOL    HW217068   8.483   8.415   7.460
 5077SOL     OW17069  12.274   1.701   0.818
 5077SOL    HW117070  12.181   1.714   0.838
 5077SOL    HW217071  12.303   1.636   0.882
 5078SOL     OW17072  12.591  10.087   8.913
 5078SOL    HW117073  12.585  10.058   9.004
 5078SOL    HW217074  12.517  10.147   8.902
 5079SOL     OW17075  14.330   5.538   1.388
 5079SOL    HW117076  14.270   5.464   1.393
 5079SOL    HW217077  14.369   5.544   1.475
 5080SOL     OW17078  11.256   2.948  12.660
 5080SOL    HW117079  11.290   2.927  12.747
 5080SOL    HW217080  11.316   3.014  12.626
 5081SOL     OW17081   6.054  11.932  11.318
 5081SOL    HW117082   6.094  12.018  11.301
 5081SOL    HW217083   6.050  11.890  11.232
 5082SOL     OW17084   8.121   0.897   2.414
 5082SOL    HW117085   8.055   0.829   2.405
 5082SOL    HW217086   8.205   0.850   2.410
 5083SOL     OW17087   2.841   0.197   7.238
 5083SOL    HW117088   2.926   0.156   7.251
 5083SOL    HW217089   2.831   0.202   7.143
 5084SOL     OW17090   5.612   6.740  14.523
 5084SOL    HW117091   5.602   6.692  14.442
 5084SOL    HW217092   5.530   6.788  14.534
 5085SOL     OW17093   6.316  12.706   6.290
 5085SOL    HW117094   6.221  12.693   6.279
 5085SOL    HW217095   6.352  12.617   6.293
 5086SOL     OW17096   9.467   7.241   5.644
 5086SOL    HW117097   9.387   7.203   5.608
 5086SOL    HW217098   9.504   7.292   5.572
 5087SOL     OW17099  11.311   3.778   9.080
 5087SOL    HW117100  11.352   3.763   8.995
 5087SOL    HW217101  11.384   3.778   9.142
 5088SOL     OW17102  11.775  14.731   8.204
 5088SOL    HW117103  11.809  14.803   8.150
 5088SOL    HW217104  11.846  14.713   8.265
 5089SOL     OW17105  11.945  13.099   9.666
 5089SOL    HW117106  12.035  13.072   9.650
 5089SOL    HW217107  11.917  13.141   9.585
 5090SOL     OW17108  13.966   1.489   1.897
 5090SOL    HW117109  14.017   1.508   1.818
 5090SOL    HW217110  13.986   1.561   1.956
 5091SOL     OW17111  10.601   0.047  13.153
 5091SOL    HW117112  10.540   0.085  13.090
 5091SOL    HW217113  10.660   0.119  13.175
 5092SOL     OW17114   5.233   4.285  13.589
 5092SOL    HW117115   5.317   4.247  13.564
 5092SOL    HW217116   5.254   4.351  13.654
 5093SOL     OW17117   9.985   6.599   2.857
 5093SOL    HW117118  10.081   6.601   2.860
 5093SOL    HW217119   9.958   6.690   2.862
 5094SOL     OW17120   0.395  12.265   6.571
 5094SOL    HW117121   0.303  12.257   6.545
 5094SOL    HW217122   0.393  12.327   6.645
 5095SOL     OW17123   7.121  12.435  11.203
 5095SOL    HW117124   7.069  12.388  11.137
 5095SOL    HW217125   7.060  12.498  11.242
 5096SOL     OW17126  11.339  13.969   0.172
 5096SOL    HW117127  11.407  14.027   0.137
 5096SOL    HW217128  11.260  13.993   0.125
 5097SOL     OW17129  11.219  11.756  14.504
 5097SOL    HW117130  11.139  11.775  14.455
 5097SOL    HW217131  11.209  11.665  14.532
 5098SOL     OW17132   6.124   8.652   8.241
 5098SOL    HW117133   6.129   8.727   8.301
 5098SOL    HW217134   6.131   8.691   8.154
 5099SOL     OW17135   3.199  13.512  11.434
 5099SOL    HW117136   3.217  13.468  11.351
 5099SOL    HW217137   3.123  13.466  11.469
 5100SOL     OW17138  14.152   2.859   4.943
 5100SOL    HW117139  14.205   2.856   4.864
 5100SOL    HW217140  14.125   2.951   4.952
 5101SOL     OW17141  13.856   3.297  14.419
 5101SOL    HW117142  13.950   3.284  14.432
 5101SOL    HW217143  13.840   3.268  14.329
 5102SOL     OW17144   5.061   4.701  11.802
 5102SOL    HW117145   5.070   4.796  11.795
 5102SOL    HW217146   5.022   4.674  11.719
 5103SOL     OW17147   7.309   8.909   4.007
 5103SOL    HW117148   7.338   8.999   3.995
 5103SOL    HW217149   7.385   8.855   3.984
 5104SOL     OW17150  12.453   2.873  13.926
 5104SOL    HW117151  12.392   2.804  13.899
 5104SOL    HW217152  12.532   2.826  13.954
 5105SOL     OW17153   9.368  13.041   3.053
 5105SOL    HW117154   9.462  13.041   3.071
 5105SOL    HW217155   9.328  13.006   3.133
 5106SOL     OW17156   2.656  13.173   4.860
 5106SOL    HW117157   2.614  13.095   4.823
 5106SOL    HW217158   2.711  13.139   4.931
 5107SOL     OW17159   1.524  10.889   1.067
 5107SOL    HW117160   1.512  10.847   1.152
 5107SOL    HW217161   1.610  10.858   1.037
 5108SOL     OW17162   0.937   6.095   9.701
 5108SOL    HW117163   0.905   6.011   9.670
 5108SOL    HW217164   1.033   6.088   9.695
 5109SOL     OW17165   4.527   1.238   7.788
 5109SOL    HW117166   4.477   1.248   7.707
 5109SOL    HW217167   4.607   1.193   7.761
 5110SOL     OW17168  12.663  14.657   9.634
 5110SOL    HW117169  12.737  14.598   9.616
 5110SOL    HW217170  12.666  14.721   9.563
 5111SOL     OW17171   9.381  10.919  10.141
 5111SOL    HW117172   9.474  10.942  10.130
 5111SOL    HW217173   9.337  10.965  10.069
 5112SOL     OW17174   3.228  13.387  11.185
 5112SOL    HW117175   3.237  13.377  11.090
 5112SOL    HW217176   3.318  13.399  11.216
 5113SOL     OW17177  13.217   9.828   3.419
 5113SOL    HW117178  13.220   9.817   3.514
 5113SOL    HW217179  13.137   9.781   3.393
 5114SOL     OW17180  14.315   7.406   1.894
 5114SOL    HW117181  14.394   7.381   1.940
 5114SOL    HW217182  14.251   7.422   1.963
 5115SOL     OW17183  13.870   8.099   5.320
 5115SOL    HW117184  13.912   8.083   5.235
 5115SOL    HW217185  13.784   8.133   5.298
 5116SOL     OW17186  12.425   6.375   3.496
 5116SOL    HW117187  12.504   6.332   3.463
 5116SOL    HW217188  12.422   6.459   3.450
 5117SOL     OW17189  12.970   5.521   6.523
 5117SOL    HW117190  12.958   5.429   6.499
 5117SOL    HW217191  12.944   5.570   6.445
 5118SOL     OW17192   1.888  13.887   9.037
 5118SOL    HW117193   1.914  13.970   8.998
 5118SOL    HW217194   1.793  13.886   9.032
 5119SOL     OW17195   5.464  10.927  13.766
 5119SOL    HW117196   5.394  10.886  13.816
 5119SOL    HW217197   5.459  11.020  13.789
 5120SOL     OW17198   8.502   7.866   0.689
 5120SOL    HW117199   8.448   7.841   0.614
 5120SOL    HW217200   8.473   7.954   0.712
 5121SOL     OW17201   8.826   1.010  10.416
 5121SOL    HW117202   8.850   1.074  10.349
 5121SOL    HW217203   8.850   1.051  10.499
 5122SOL     OW17204   5.854   1.286  10.462
 5122SOL    HW117205   5.881   1.201  10.426
 5122SOL    HW217206   5.866   1.348  10.390
 5123SOL     OW17207   9.127   3.434   1.553
 5123SOL    HW117208   9.189   3.414   1.622
 5123SOL    HW217209   9.086   3.516   1.580
 5124SOL     OW17210  12.535   7.542   8.389
 5124SOL    HW117211  12.615   7.592   8.405
 5124SOL    HW217212  12.507   7.514   8.476
 5125SOL     OW17213  11.396  13.511  10.956
 5125SOL    HW117214  11.386  13.420  10.986
 5125SOL    HW217215  11.333  13.560  11.009
 5126SOL     OW17216  11.463   5.228   2.459
 5126SOL    HW117217  11.502   5.261   2.540
 5126SOL    HW217218  11.439   5.307   2.410
 5127SOL     OW17219   5.558   8.718   1.088
 5127SOL    HW117220   5.563   8.687   1.179
 5127SOL    HW217221   5.597   8.647   1.037
 5128SOL     OW17222  12.785   6.751   2.969
 5128SOL    HW117223  12.702   6.750   2.922
 5128SOL    HW217224  12.763   6.788   3.054
 5129SOL     OW17225   7.837   5.695   1.139
 5129SOL    HW117226   7.820   5.756   1.068
 5129SOL    HW217227   7.909   5.640   1.108
 5130SOL     OW17228  10.547   1.204  13.351
 5130SOL    HW117229  10.621   1.153  13.317
 5130SOL    HW217230  10.584   1.291  13.367
 5131SOL     OW17231  14.195   2.546   8.193
 5131SOL    HW117232  14.174   2.581   8.106
 5131SOL    HW217233  14.287   2.522   8.188
 5132SOL     OW17234   9.069   1.185  10.472
 5132SOL    HW117235   9.107   1.245  10.408
 5132SOL    HW217236   9.077   1.098  10.432
 5133SOL     OW17237   6.025   6.156   5.850
 5133SOL    HW117238   5.975   6.132   5.772
 5133SOL    HW217239   6.113   6.174   5.817
 5134SOL     OW17240   5.042  12.447   0.564
 5134SOL    HW117241   5.093  12.369   0.588
 5134SOL    HW217242   4.958  12.434   0.608
 5135SOL     OW17243  10.928   0.051   5.469
 5135SOL    HW117244  10.982   0.031   5.392
 5135SOL    HW217245  10.889   0.137   5.450
 5136SOL     OW17246  10.165   2.568   8.667
 5136SOL    HW117247  10.113   2.495   8.632
 5136SOL    HW217248  10.104   2.616   8.723
 5137SOL     OW17249   9.603   8.049  10.210
 5137SOL    HW117250   9.676   7.990  10.192
 5137SOL    HW217251   9.530   7.990  10.229
 5138SOL     OW17252   7.934   6.419   1.437
 5138SOL    HW117253   7.919   6.507   1.403
 5138SOL    HW217254   8.014   6.428   1.490
 5139SOL     OW17255   5.447   7.306   7.931
 5139SOL    HW117256   5.437   7.249   8.007
 5139SOL    HW217257   5.542   7.317   7.922
 5140SOL     OW17258   2.169  12.727  13.904
 5140SOL    HW117259   2.132  12.653  13.952
 5140SOL    HW217260   2.221  12.687  13.834
 5141SOL     OW17261  12.965   9.394   1.796
 5141SOL    HW117262  13.022   9.434   1.730
 5141SOL    HW217263  12.989   9.438   1.878
 5142SOL     OW17264   0.483   9.179  12.144
 5142SOL    HW117265   0.455   9.262  12.107
 5142SOL    HW217266   0.440   9.174  12.230
 5143SOL     OW17267   6.806  11.830   9.239
 5143SOL    HW117268   6.822  11.762   9.174
 5143SOL    HW217269   6.849  11.908   9.203
 5144SOL     OW17270   2.628   3.450   5.024
 5144SOL    HW117271   2.693   3.382   5.043
 5144SOL    HW217272   2.659   3.490   4.943
 5145SOL     OW17273   7.101   3.860   7.953
 5145SOL    HW117274   7.075   3.770   7.970
 5145SOL    HW217275   7.031   3.914   7.990
 5146SOL     OW17276  10.440  11.546   5.996
 5146SOL    HW117277  10.486  11.502   6.067
 5146SOL    HW217278  10.349  11.516   6.004
 5147SOL     OW17279   2.369   4.028  14.744
 5147SOL    HW117280   2.405   3.951  14.788
 5147SOL    HW217281   2.341   3.997  14.658
 5148SOL     OW17282   2.040  10.007  13.964
 5148SOL    HW117283   2.067  10.084  14.014
 5148SOL    HW217284   1.948  10.024  13.942
 5149SOL     OW17285  13.188  11.654  14.134
 5149SOL    HW117286  13.208  11.560  14.131
 5149SOL    HW217287  13.191  11.682  14.042
 5150SOL     OW17288   4.393   1.042   3.038
 5150SOL    HW117289   4.304   1.046   3.074
 5150SOL    HW217290   4.444   1.100   3.094
 5151SOL     OW17291   1.642  12.734  10.222
 5151SOL    HW117292   1.662  12.814  10.271
 5151SOL    HW217293   1.561  12.754  10.176
 5152SOL     OW17294  11.103   5.461  10.456
 5152SOL    HW117295  11.113   5.494  10.366
 5152SOL    HW217296  11.170   5.394  10.464
 5153SOL     OW17297   1.800  11.439   9.505
 5153SOL    HW117298   1.755  11.492   9.572
 5153SOL    HW217299   1.893  11.447   9.527
 5154SOL     OW17300   7.574  11.854   2.680
 5154SOL    HW117301   7.607  11.871   2.768
 5154SOL    HW217302   7.482  11.832   2.692
 5155SOL     OW17303  14.305   3.296  11.772
 5155SOL    HW117304  14.296   3.210  11.729
 5155SOL    HW217305  14.296   3.277  11.865
 5156SOL     OW17306  14.596  11.295   1.658
 5156SOL    HW117307  14.517  11.339   1.626
 5156SOL    HW217308  14.566  11.243   1.732
 5157SOL     OW17309   3.835  14.411  12.504
 5157SOL    HW117310   3.814  14.336  12.560
 5157SOL    HW217311   3.751  14.449  12.481
 5158SOL     OW17312   7.984  14.295  12.319
 5158SOL    HW117313   8.078  14.275  12.327
 5158SOL    HW217314   7.969  14.302  12.225
 5159SOL     OW17315   6.285   6.070   1.493
 5159SOL    HW117316   6.286   5.987   1.540
 5159SOL    HW217317   6.200   6.072   1.449
 5160SOL     OW17318  10.386  14.447  11.325
 5160SOL    HW117319  10.480  14.468  11.331
 5160SOL    HW217320  10.353  14.463  11.414
 5161SOL     OW17321  12.427   2.472   4.806
 5161SOL    HW117322  12.508   2.427   4.783
 5161SOL    HW217323  12.383   2.413   4.867
 5162SOL     OW17324   1.556   0.783  10.141
 5162SOL    HW117325   1.609   0.816  10.214
 5162SOL    HW217326   1.620   0.748  10.079
 5163SOL     OW17327  12.457  14.226   4.614
 5163SOL    HW117328  12.519  14.168   4.659
 5163SOL    HW217329  12.463  14.308   4.662
 5164SOL     OW17330   1.161  14.769   7.081
 5164SOL    HW117331   1.176  14.761   7.175
 5164SOL    HW217332   1.227  14.712   7.041
 5165SOL     OW17333   0.508   4.229   4.704
 5165SOL    HW117334   0.543   4.153   4.657
 5165SOL    HW217335   0.425   4.248   4.661
 5166SOL     OW17336  10.640   7.027  14.059
 5166SOL    HW117337  10.621   6.936  14.037
 5166SOL    HW217338  10.582   7.047  14.132
 5167SOL     OW17339   3.196   0.571   7.174
 5167SOL    HW117340   3.160   0.647   7.128
 5167SOL    HW217341   3.200   0.502   7.107
 5168SOL     OW17342   6.945   4.142  12.129
 5168SOL    HW117343   6.904   4.228  12.141
 5168SOL    HW217344   6.873   4.084  12.105
 5169SOL     OW17345   5.690  12.196   8.410
 5169SOL    HW117346   5.723  12.178   8.498
 5169SOL    HW217347   5.768  12.203   8.356
 5170SOL     OW17348   2.741   5.132   0.634
 5170SOL    HW117349   2.818   5.176   0.599
 5170SOL    HW217350   2.671   5.197   0.628
 5171SOL     OW17351   9.450   1.216  12.265
 5171SOL    HW117352   9.499   1.295  12.241
 5171SOL    HW217353   9.517   1.148  12.276
 5172SOL     OW17354   4.068  14.517   4.474
 5172SOL    HW117355   4.065  14.596   4.528
 5172SOL    HW217356   4.066  14.549   4.384
 5173SOL     OW17357  13.867   8.027  11.759
 5173SOL    HW117358  13.825   8.108  11.789
 5173SOL    HW217359  13.948   8.056  11.718
 5174SOL     OW17360  10.405   8.193  14.620
 5174SOL    HW117361  10.452   8.125  14.570
 5174SOL    HW217362  10.474   8.255  14.645
 5175SOL     OW17363  10.697   4.750   2.436
 5175SOL    HW117364  10.736   4.723   2.519
 5175SOL    HW217365  10.620   4.801   2.461
 5176SOL     OW17366  13.299   2.762  10.198
 5176SOL    HW117367  13.219   2.727  10.157
 5176SOL    HW217368  13.318   2.841  10.149
 5177SOL     OW17369   4.344   2.454  11.320
 5177SOL    HW117370   4.414   2.510  11.352
 5177SOL    HW217371   4.387   2.394  11.259
 5178SOL     OW17372   1.624   1.403   6.049
 5178SOL    HW117373   1.656   1.315   6.069
 5178SOL    HW217374   1.698   1.460   6.071
 5179SOL     OW17375   9.131   2.195   5.770
 5179SOL    HW117376   9.123   2.117   5.826
 5179SOL    HW217377   9.051   2.195   5.718
 5180SOL     OW17378   8.932   4.198   3.469
 5180SOL    HW117379   8.926   4.279   3.418
 5180SOL    HW217380   8.997   4.145   3.422
 5181SOL     OW17381  10.506  11.254  11.826
 5181SOL    HW117382  10.591  11.267  11.869
 5181SOL    HW217383  10.495  11.158  11.823
 5182SOL     OW17384   3.527   5.095   0.842
 5182SOL    HW117385   3.607   5.083   0.893
 5182SOL    HW217386   3.545   5.055   0.758
 5183SOL     OW17387   6.943   3.181   2.116
 5183SOL    HW117388   6.960   3.136   2.033
 5183SOL    HW217389   6.989   3.265   2.107
 5184SOL     OW17390   4.659  12.498   9.472
 5184SOL    HW117391   4.615  12.443   9.406
 5184SOL    HW217392   4.587  12.546   9.513
 5185SOL     OW17393   9.857  12.903  10.820
 5185SOL    HW117394   9.816  12.988  10.806
 5185SOL    HW217395   9.936  12.906  10.767
 5186SOL     OW17396   2.428   5.056   2.827
 5186SOL    HW117397   2.370   5.081   2.898
 5186SOL    HW217398   2.403   5.112   2.754
 5187SOL     OW17399   6.951  13.045   8.936
 5187SOL    HW117400   7.030  13.048   8.990
 5187SOL    HW217401   6.952  12.958   8.896
 5188SOL     OW17402   3.016  11.888  10.309
 5188SOL    HW117403   2.970  11.865  10.228
 5188SOL    HW217404   3.107  11.864  10.292
 5189SOL     OW17405   3.231   2.701  11.496
 5189SOL    HW117406   3.283   2.754  11.557
 5189SOL    HW217407   3.281   2.703  11.414
 5190SOL     OW17408  11.806  10.415   1.948
 5190SOL    HW117409  11.889  10.369   1.938
 5190SOL    HW217410  11.820  10.498   1.902
 5191SOL     OW17411   5.424  10.954   5.149
 5191SOL    HW117412   5.440  10.929   5.058
 5191SOL    HW217413   5.391  10.874   5.191
 5192SOL     OW17414  14.551   2.932   3.950
 5192SOL    HW117415  14.458   2.908   3.950
 5192SOL    HW217416  14.594   2.861   3.902
 5193SOL     OW17417   0.556  13.304   4.275
 5193SOL    HW117418   0.514  13.367   4.216
 5193SOL    HW217419   0.502  13.225   4.268
 5194SOL     OW17420   3.486   7.321   7.727
 5194SOL    HW117421   3.438   7.278   7.657
 5194SOL    HW217422   3.420   7.375   7.771
 5195SOL     OW17423  14.665   3.590   4.635
 5195SOL    HW117424  14.641   3.531   4.564
 5195SOL    HW217425  14.599   3.660   4.631
 5196SOL     OW17426   7.020  11.788   7.284
 5196SOL    HW117427   7.094  11.804   7.343
 5196SOL    HW217428   6.978  11.874   7.275
 5197SOL     OW17429  10.091   5.712   7.334
 5197SOL    HW117430  10.023   5.661   7.377
 5197SOL    HW217431  10.157   5.727   7.402
 5198SOL     OW17432   7.250  12.491   1.247
 5198SOL    HW117433   7.176  12.504   1.306
 5198SOL    HW217434   7.220  12.425   1.185
 5199SOL     OW17435  12.863  12.183   2.872
 5199SOL    HW117436  12.894  12.226   2.792
 5199SOL    HW217437  12.891  12.092   2.863
 5200SOL     OW17438  12.439  12.988  14.104
 5200SOL    HW117439  12.364  13.046  14.089
 5200SOL    HW217440  12.505  13.019  14.042
 5201SOL     OW17441  12.666   1.970   8.850
 5201SOL    HW117442  12.675   2.060   8.882
 5201SOL    HW217443  12.578   1.967   8.812
 5202SOL     OW17444   2.489   6.947   0.522
 5202SOL    HW117445   2.420   6.883   0.540
 5202SOL    HW217446   2.552   6.935   0.594
 5203SOL     OW17447   7.549   0.667  10.301
 5203SOL    HW117448   7.583   0.757  10.299
 5203SOL    HW217449   7.546   0.641  10.208
 5204SOL     OW17450   0.702   2.861   1.275
 5204SOL    HW117451   0.781   2.814   1.301
 5204SOL    HW217452   0.633   2.795   1.273
 5205SOL     OW17453  11.879   6.561  11.602
 5205SOL    HW117454  11.903   6.650  11.576
 5205SOL    HW217455  11.792   6.547  11.564
 5206SOL     OW17456   1.959   8.629   8.536
 5206SOL    HW117457   1.937   8.598   8.624
 5206SOL    HW217458   2.021   8.564   8.503
 5207SOL     OW17459  11.734   9.642   5.629
 5207SOL    HW117460  11.814   9.667   5.584
 5207SOL    HW217461  11.761   9.574   5.690
 5208SOL     OW17462  11.231  10.670  11.088
 5208SOL    HW117463  11.165  10.604  11.065
 5208SOL    HW217464  11.309  10.644  11.039
 5209SOL     OW17465   6.099  13.432   5.023
 5209SOL    HW117466   6.075  13.470   5.108
 5209SOL    HW217467   6.019  13.390   4.993
 5210SOL     OW17468  11.569   7.985   3.505
 5210SOL    HW117469  11.609   8.037   3.435
 5210SOL    HW217470  11.476   7.982   3.482
 5211SOL     OW17471   6.733  11.513   8.683
 5211SOL    HW117472   6.743  11.426   8.644
 5211SOL    HW217473   6.660  11.505   8.744
 5212SOL     OW17474   9.866   6.746  13.080
 5212SOL    HW117475   9.931   6.790  13.134
 5212SOL    HW217476   9.814   6.695  13.142
 5213SOL     OW17477   7.576  12.120  10.301
 5213SOL    HW117478   7.548  12.201  10.344
 5213SOL    HW217479   7.495  12.080  10.270
 5214SOL     OW17480   1.892   9.021  13.600
 5214SOL    HW117481   1.942   9.082  13.546
 5214SOL    HW217482   1.801   9.036  13.575
 5215SOL     OW17483   2.965   6.339  13.523
 5215SOL    HW117484   3.051   6.381  13.521
 5215SOL    HW217485   2.943   6.324  13.431
 5216SOL     OW17486   3.633   3.430   9.284
 5216SOL    HW117487   3.654   3.487   9.358
 5216SOL    HW217488   3.659   3.343   9.313
 5217SOL     OW17489   2.882  11.875   3.794
 5217SOL    HW117490   2.795  11.855   3.827
 5217SOL    HW217491   2.888  11.825   3.712
 5218SOL     OW17492   2.706   8.993   0.632
 5218SOL    HW117493   2.707   8.961   0.541
 5218SOL    HW217494   2.624   8.960   0.668
 5219SOL     OW17495   4.533  12.550   3.998
 5219SOL    HW117496   4.503  12.601   3.923
 5219SOL    HW217497   4.453  12.531   4.048
 5220SOL     OW17498   8.398   4.186   9.787
 5220SOL    HW117499   8.378   4.272   9.751
 5220SOL    HW217500   8.314   4.140   9.788
 5221SOL     OW17501   4.409   8.435   5.696
 5221SOL    HW117502   4.409   8.361   5.756
 5221SOL    HW217503   4.332   8.487   5.721
 5222SOL     OW17504   2.329   6.384   8.450
 5222SOL    HW117505   2.381   6.305   8.440
 5222SOL    HW217506   2.310   6.389   8.544
 5223SOL     OW17507  10.421  10.271   7.532
 5223SOL    HW117508  10.365  10.197   7.507
 5223SOL    HW217509  10.499  10.230   7.570
 5224SOL     OW17510   3.661   0.490   3.632
 5224SOL    HW117511   3.643   0.405   3.674
 5224SOL    HW217512   3.613   0.487   3.550
 5225SOL     OW17513   9.948  11.564  13.335
 5225SOL    HW117514   9.975  11.623  13.405
 5225SOL    HW217515   9.993  11.482  13.355
 5226SOL     OW17516   9.913   6.364   1.462
 5226SOL    HW117517   9.912   6.447   1.414
 5226SOL    HW217518  10.006   6.338   1.462
 5227SOL     OW17519  11.440   8.357   7.914
 5227SOL    HW117520  11.487   8.334   7.994
 5227SOL    HW217521  11.358   8.309   7.919
 5228SOL     OW17522   8.888  12.764  12.020
 5228SOL    HW117523   8.839  12.766  11.938
 5228SOL    HW217524   8.864  12.680  12.059
 5229SOL     OW17525   3.256   6.097  13.443
 5229SOL    HW117526   3.173   6.126  13.405
 5229SOL    HW217527   3.264   6.148  13.524
 5230SOL     OW17528  11.275   0.771   5.774
 5230SOL    HW117529  11.224   0.841   5.815
 5230SOL    HW217530  11.313   0.812   5.696
 5231SOL     OW17531   3.492  13.442   5.712
 5231SOL    HW117532   3.423  13.435   5.778
 5231SOL    HW217533   3.468  13.379   5.645
 5232SOL     OW17534   3.601   5.984   2.713
 5232SOL    HW117535   3.599   5.989   2.617
 5232SOL    HW217536   3.517   5.944   2.736
 5233SOL     OW17537   9.820   7.201   4.405
 5233SOL    HW117538   9.780   7.118   4.379
 5233SOL    HW217539   9.754   7.242   4.463
 5234SOL     OW17540   1.518  10.288   2.678
 5234SOL    HW117541   1.479  10.369   2.646
 5234SOL    HW217542   1.524  10.300   2.773
 5235SOL     OW17543  10.857   9.021   2.556
 5235SOL    HW117544  10.804   8.943   2.537
 5235SOL    HW217545  10.922   8.990   2.619
 5236SOL     OW17546   3.386   4.673   8.091
 5236SOL    HW117547   3.355   4.759   8.064
 5236SOL    HW217548   3.419   4.632   8.011
 5237SOL     OW17549   9.630   6.842   5.040
 5237SOL    HW117550   9.702   6.793   5.000
 5237SOL    HW217551   9.646   6.933   5.016
 5238SOL     OW17552   5.358   8.012   1.902
 5238SOL    HW117553   5.453   8.002   1.896
 5238SOL    HW217554   5.340   8.007   1.996
 5239SOL     OW17555  13.013  11.188  11.892
 5239SOL    HW117556  13.018  11.160  11.800
 5239SOL    HW217557  13.093  11.152  11.931
 5240SOL     OW17558   9.866   6.105   8.902
 5240SOL    HW117559   9.779   6.114   8.941
 5240SOL    HW217560   9.850   6.058   8.820
 5241SOL     OW17561   7.521   1.066   4.480
 5241SOL    HW117562   7.600   1.120   4.476
 5241SOL    HW217563   7.554   0.977   4.497
 5242SOL     OW17564   7.765   0.382   3.532
 5242SOL    HW117565   7.787   0.475   3.525
 5242SOL    HW217566   7.671   0.380   3.550
 5243SOL     OW17567  10.789   9.437   5.160
 5243SOL    HW117568  10.818   9.528   5.166
 5243SOL    HW217569  10.780   9.410   5.251
 5244SOL     OW17570  14.473  14.734   5.245
 5244SOL    HW117571  14.428  14.747   5.161
 5244SOL    HW217572  14.403  14.733   5.310
 5245SOL     OW17573   9.728  10.126   3.151
 5245SOL    HW117574   9.701  10.057   3.212
 5245SOL    HW217575   9.670  10.116   3.076
 5246SOL     OW17576   5.470   8.061   4.555
 5246SOL    HW117577   5.534   8.104   4.499
 5246SOL    HW217578   5.385   8.086   4.518
 5247SOL     OW17579  11.382  10.476  14.604
 5247SOL    HW117580  11.449  10.489  14.536
 5247SOL    HW217581  11.313  10.426  14.561
 5248SOL     OW17582  13.114   5.429  10.258
 5248SOL    HW117583  13.059   5.351  10.250
 5248SOL    HW217584  13.059   5.501  10.228
 5249SOL     OW17585   9.426   3.225   1.000
 5249SOL    HW117586   9.474   3.156   1.046
 5249SOL    HW217587   9.450   3.305   1.045
 5250SOL     OW17588   3.776  11.663  14.755
 5250SOL    HW117589   3.849  11.649  14.815
 5250SOL    HW217590   3.698  11.657  14.809
 5251SOL     OW17591  10.041   4.836   0.455
 5251SOL    HW117592  10.084   4.860   0.373
 5251SOL    HW217593  10.037   4.740   0.453
 5252SOL     OW17594   2.606   5.806   2.596
 5252SOL    HW117595   2.633   5.774   2.510
 5252SOL    HW217596   2.569   5.893   2.579
 5253SOL     OW17597  10.860   4.741   3.285
 5253SOL    HW117598  10.881   4.789   3.205
 5253SOL    HW217599  10.823   4.806   3.344
 5254SOL     OW17600  12.694  11.869  12.249
 5254SOL    HW117601  12.767  11.834  12.197
 5254SOL    HW217602  12.722  11.857  12.340
 5255SOL     OW17603  14.130  11.855  13.154
 5255SOL    HW117604  14.113  11.939  13.196
 5255SOL    HW217605  14.068  11.795  13.196
 5256SOL     OW17606  13.342   2.219   3.055
 5256SOL    HW117607  13.266   2.162   3.064
 5256SOL    HW217608  13.410   2.163   3.019
 5257SOL     OW17609  11.546   0.406   6.520
 5257SOL    HW117610  11.495   0.360   6.587
 5257SOL    HW217611  11.483   0.466   6.479
 5258SOL     OW17612   7.922  12.273   6.296
 5258SOL    HW117613   7.851  12.216   6.267
 5258SOL    HW217614   7.987  12.213   6.334
 5259SOL     OW17615   2.979  11.003  10.940
 5259SOL    HW117616   2.904  11.036  10.989
 5259SOL    HW217617   3.027  11.081  10.913
 5260SOL     OW17618  11.533  14.182  14.600
 5260SOL    HW117619  11.584  14.215  14.674
 5260SOL    HW217620  11.459  14.137  14.640
 5261SOL     OW17621   9.982   4.649  10.633
 5261SOL    HW117622   9.927   4.726  10.614
 5261SOL    HW217623  10.044   4.646  10.560
 5262SOL     OW17624   5.640   3.925  11.178
 5262SOL    HW117625   5.625   3.932  11.273
 5262SOL    HW217626   5.705   3.993  11.160
 5263SOL     OW17627  13.566  12.038   5.236
 5263SOL    HW117628  13.556  12.131   5.215
 5263SOL    HW217629  13.517  12.027   5.318
 5264SOL     OW17630   5.240   3.785   5.019
 5264SOL    HW117631   5.321   3.779   5.071
 5264SOL    HW217632   5.170   3.770   5.083
 5265SOL     OW17633   2.824  13.354   6.217
 5265SOL    HW117634   2.864  13.280   6.264
 5265SOL    HW217635   2.782  13.313   6.141
 5266SOL     OW17636  14.445  13.635   0.363
 5266SOL    HW117637  14.521  13.670   0.410
 5266SOL    HW217638  14.393  13.713   0.340
 5267SOL     OW17639   8.044   1.187   9.287
 5267SOL    HW117640   8.130   1.215   9.320
 5267SOL    HW217641   8.002   1.269   9.260
 5268SOL     OW17642   1.292  11.344   6.578
 5268SOL    HW117643   1.264  11.260   6.542
 5268SOL    HW217644   1.346  11.320   6.654
 5269SOL     OW17645   1.473   1.203  10.012
 5269SOL    HW117646   1.530   1.165  10.079
 5269SOL    HW217647   1.386   1.170  10.033
 5270SOL     OW17648   6.477   7.283   1.045
 5270SOL    HW117649   6.412   7.323   1.104
 5270SOL    HW217650   6.561   7.320   1.074
 5271SOL     OW17651   8.447   0.080  11.294
 5271SOL    HW117652   8.362   0.123  11.285
 5271SOL    HW217653   8.450   0.052  11.385
 5272SOL     OW17654   6.317   3.052  14.447
 5272SOL    HW117655   6.253   3.081  14.382
 5272SOL    HW217656   6.277   2.976  14.489
 5273SOL     OW17657   6.546   6.794   2.256
 5273SOL    HW117658   6.498   6.712   2.240
 5273SOL    HW217659   6.533   6.845   2.175
 5274SOL     OW17660   7.091   4.651   8.613
 5274SOL    HW117661   7.129   4.616   8.694
 5274SOL    HW217662   7.132   4.737   8.603
 5275SOL     OW17663   6.708   0.415  12.056
 5275SOL    HW117664   6.732   0.398  12.147
 5275SOL    HW217665   6.614   0.434  12.059
 5276SOL     OW17666   5.326  10.308  12.569
 5276SOL    HW117667   5.243  10.308  12.522
 5276SOL    HW217668   5.328  10.224  12.615
 5277SOL     OW17669   3.090  13.326   7.517
 5277SOL    HW117670   3.077  13.303   7.426
 5277SOL    HW217671   3.019  13.282   7.564
 5278SOL     OW17672   7.057   5.142  14.379
 5278SOL    HW117673   7.047   5.177  14.467
 5278SOL    HW217674   7.072   5.218  14.323
 5279SOL     OW17675  10.079   0.185  10.866
 5279SOL    HW117676  10.148   0.248  10.887
 5279SOL    HW217677  10.110   0.103  10.904
 5280SOL     OW17678  11.028  13.379   2.667
 5280SOL    HW117679  10.980  13.298   2.688
 5280SOL    HW217680  10.959  13.443   2.651
 5281SOL     OW17681   1.426  14.105   4.121
 5281SOL    HW117682   1.510  14.117   4.077
 5281SOL    HW217683   1.388  14.192   4.126
 5282SOL     OW17684   3.184   1.800   4.746
 5282SOL    HW117685   3.151   1.806   4.657
 5282SOL    HW217686   3.108   1.817   4.801
 5283SOL     OW17687   6.213   6.081  12.092
 5283SOL    HW117688   6.223   6.167  12.132
 5283SOL    HW217689   6.246   6.020  12.157
 5284SOL     OW17690  10.671   6.788   7.348
 5284SOL    HW117691  10.704   6.706   7.384
 5284SOL    HW217692  10.675   6.849   7.421
 5285SOL     OW17693  11.972   2.051   5.201
 5285SOL    HW117694  11.960   1.970   5.250
 5285SOL    HW217695  11.883   2.081   5.181
 5286SOL     OW17696   0.563   2.775   7.910
 5286SOL    HW117697   0.494   2.810   7.966
 5286SOL    HW217698   0.640   2.771   7.967
 5287SOL     OW17699   1.558   9.720   9.081
 5287SOL    HW117700   1.565   9.638   9.131
 5287SOL    HW217701   1.594   9.787   9.138
 5288SOL     OW17702   6.018  14.747   4.726
 5288SOL    HW117703   5.971  14.799   4.661
 5288SOL    HW217704   5.977  14.660   4.721
 5289SOL     OW17705   4.944   7.125   3.301
 5289SOL    HW117706   5.012   7.116   3.234
 5289SOL    HW217707   4.901   7.039   3.303
 5290SOL     OW17708  10.174   0.684   9.611
 5290SOL    HW117709  10.159   0.773   9.578
 5290SOL    HW217710  10.267   0.668   9.595
 5291SOL     OW17711   1.581   4.132  12.915
 5291SOL    HW117712   1.536   4.058  12.954
 5291SOL    HW217713   1.515   4.175  12.861
 5292SOL     OW17714   6.194   6.140   2.814
 5292SOL    HW117715   6.180   6.234   2.810
 5292SOL    HW217716   6.280   6.130   2.854
 5293SOL     OW17717   6.918  13.797  14.086
 5293SOL    HW117718   6.991  13.786  14.147
 5293SOL    HW217719   6.841  13.802  14.143
 5294SOL     OW17720   3.396   5.566   2.210
 5294SOL    HW117721   3.470   5.608   2.166
 5294SOL    HW217722   3.410   5.472   2.196
 5295SOL     OW17723  12.951  14.684  12.529
 5295SOL    HW117724  12.954  14.727  12.615
 5295SOL    HW217725  12.988  14.597  12.544
 5296SOL     OW17726   8.316   6.426   4.535
 5296SOL    HW117727   8.288   6.439   4.444
 5296SOL    HW217728   8.309   6.513   4.575
 5297SOL     OW17729  12.912   7.247   0.767
 5297SOL    HW117730  12.994   7.262   0.719
 5297SOL    HW217731  12.935   7.183   0.834
 5298SOL     OW17732   0.951  13.191   3.781
 5298SOL    HW117733   0.941  13.102   3.814
 5298SOL    HW217734   1.046  13.200   3.766
 5299SOL     OW17735  11.147   5.382   1.818
 5299SOL    HW117736  11.058   5.357   1.794
 5299SOL    HW217737  11.136   5.434   1.898
 5300SOL     OW17738   1.694  14.118   9.699
 5300SOL    HW117739   1.636  14.150   9.768
 5300SOL    HW217740   1.699  14.189   9.636
 5301SOL     OW17741   7.053   0.833   0.676
 5301SOL    HW117742   6.968   0.872   0.697
 5301SOL    HW217743   7.056   0.831   0.581
 5302SOL     OW17744   6.499   3.081  12.653
 5302SOL    HW117745   6.463   3.169  12.659
 5302SOL    HW217746   6.583   3.092  12.608
 5303SOL     OW17747   9.628   3.957  12.735
 5303SOL    HW117748   9.533   3.953  12.747
 5303SOL    HW217749   9.639   4.001  12.650
 5304SOL     OW17750   1.800   3.100   4.248
 5304SOL    HW117751   1.861   3.111   4.321
 5304SOL    HW217752   1.842   3.146   4.175
 5305SOL     OW17753   1.783   5.680   8.889
 5305SOL    HW117754   1.736   5.600   8.867
 5305SOL    HW217755   1.721   5.730   8.941
 5306SOL     OW17756   2.562   7.102   8.290
 5306SOL    HW117757   2.490   7.048   8.258
 5306SOL    HW217758   2.636   7.042   8.296
 5307SOL     OW17759   0.714  13.553   5.699
 5307SOL    HW117760   0.684  13.465   5.722
 5307SOL    HW217761   0.710  13.555   5.603
 5308SOL     OW17762   4.049  14.459  11.504
 5308SOL    HW117763   4.058  14.513  11.583
 5308SOL    HW217764   4.131  14.472  11.457
 5309SOL     OW17765   5.905  13.599  12.052
 5309SOL    HW117766   5.871  13.624  11.965
 5309SOL    HW217767   5.918  13.505  12.046
 5310SOL     OW17768   1.105   5.211   0.377
 5310SOL    HW117769   1.058   5.279   0.425
 5310SOL    HW217770   1.044   5.137   0.374
 5311SOL     OW17771   1.693   2.058   8.099
 5311SOL    HW117772   1.777   2.087   8.064
 5311SOL    HW217773   1.660   2.134   8.148
 5312SOL     OW17774   5.202   9.167   1.879
 5312SOL    HW117775   5.162   9.080   1.886
 5312SOL    HW217776   5.187   9.207   1.965
 5313SOL     OW17777  10.036   3.539  14.528
 5313SOL    HW117778   9.949   3.580  14.523
 5313SOL    HW217779  10.096   3.607  14.498
 5314SOL     OW17780  11.727  14.611  13.232
 5314SOL    HW117781  11.778  14.555  13.291
 5314SOL    HW217782  11.739  14.571  13.146
 5315SOL     OW17783   7.964   3.025   9.471
 5315SOL    HW117784   8.018   3.008   9.394
 5315SOL    HW217785   7.999   3.107   9.508
 5316SOL     OW17786   0.676   8.090   8.373
 5316SOL    HW117787   0.741   8.042   8.424
 5316SOL    HW217788   0.693   8.064   8.283
 5317SOL     OW17789   4.172   0.573  14.242
 5317SOL    HW117790   4.149   0.515  14.315
 5317SOL    HW217791   4.238   0.632  14.277
 5318SOL     OW17792   6.951   7.691  14.487
 5318SOL    HW117793   7.026   7.736  14.449
 5318SOL    HW217794   6.877   7.716  14.432
 5319SOL     OW17795   7.588   4.177  11.452
 5319SOL    HW117796   7.538   4.240  11.504
 5319SOL    HW217797   7.573   4.093  11.494
 5320SOL     OW17798   3.899   9.967   6.234
 5320SOL    HW117799   3.974   9.966   6.294
 5320SOL    HW217800   3.883  10.060   6.217
 5321SOL     OW17801  10.966  14.064  10.492
 5321SOL    HW117802  10.905  14.077  10.419
 5321SOL    HW217803  11.053  14.072  10.453
 5322SOL     OW17804  14.581   3.161   8.436
 5322SOL    HW117805  14.516   3.091   8.437
 5322SOL    HW217806  14.529   3.241   8.428
 5323SOL     OW17807   7.789  14.768  13.165
 5323SOL    HW117808   7.713  14.712  13.182
 5323SOL    HW217809   7.837  14.723  13.096
 5324SOL     OW17810   7.573   3.627   9.098
 5324SOL    HW117811   7.643   3.564   9.117
 5324SOL    HW217812   7.517   3.582   9.035
 5325SOL     OW17813   1.330   2.523   3.535
 5325SOL    HW117814   1.309   2.537   3.442
 5325SOL    HW217815   1.418   2.484   3.533
 5326SOL     OW17816   0.983  11.799  13.536
 5326SOL    HW117817   1.078  11.791  13.528
 5326SOL    HW217818   0.953  11.711  13.560
 5327SOL     OW17819  12.773   0.883  14.028
 5327SOL    HW117820  12.828   0.961  14.019
 5327SOL    HW217821  12.806   0.822  13.962
 5328SOL     OW17822  13.076   9.330   2.605
 5328SOL    HW117823  13.159   9.373   2.587
 5328SOL    HW217824  13.048   9.364   2.690
 5329SOL     OW17825   2.437   5.253   5.782
 5329SOL    HW117826   2.419   5.160   5.790
 5329SOL    HW217827   2.352   5.295   5.791
 5330SOL     OW17828   5.664   7.625  11.342
 5330SOL    HW117829   5.657   7.677  11.262
 5330SOL    HW217830   5.691   7.538  11.311
 5331SOL     OW17831  13.322  11.534  11.501
 5331SOL    HW117832  13.234  11.495  11.501
 5331SOL    HW217833  13.377  11.470  11.455
 5332SOL     OW17834  10.871   6.459   9.947
 5332SOL    HW117835  10.807   6.483   9.881
 5332SOL    HW217836  10.853   6.518  10.021
 5333SOL     OW17837   3.430  11.993  12.808
 5333SOL    HW117838   3.480  12.075  12.810
 5333SOL    HW217839   3.425  11.966  12.900
 5334SOL     OW17840  10.500   6.417   4.596
 5334SOL    HW117841  10.462   6.414   4.684
 5334SOL    HW217842  10.431   6.382   4.539
 5335SOL     OW17843   5.216  13.047   5.459
 5335SOL    HW117844   5.216  13.093   5.543
 5335SOL    HW217845   5.296  12.995   5.460
 5336SOL     OW17846  12.951   0.708   0.156
 5336SOL    HW117847  13.024   0.651   0.179
 5336SOL    HW217848  12.878   0.649   0.142
 5337SOL     OW17849   3.771   7.162   0.697
 5337SOL    HW117850   3.741   7.073   0.710
 5337SOL    HW217851   3.848   7.153   0.640
 5338SOL     OW17852   8.496   6.113  13.211
 5338SOL    HW117853   8.423   6.170  13.184
 5338SOL    HW217854   8.575   6.161  13.185
 5339SOL     OW17855   7.599  13.296   7.635
 5339SOL    HW117856   7.606  13.377   7.684
 5339SOL    HW217857   7.688  13.279   7.604
 5340SOL     OW17858   6.585  14.630   7.819
 5340SOL    HW117859   6.666  14.627   7.768
 5340SOL    HW217860   6.614  14.642   7.909
 5341SOL     OW17861   8.512  11.721   1.213
 5341SOL    HW117862   8.493  11.781   1.285
 5341SOL    HW217863   8.604  11.737   1.192
 5342SOL     OW17864   1.294   3.949   1.269
 5342SOL    HW117865   1.204   3.972   1.290
 5342SOL    HW217866   1.347   3.997   1.333
 5343SOL     OW17867   0.652   0.477   6.330
 5343SOL    HW117868   0.620   0.465   6.240
 5343SOL    HW217869   0.684   0.567   6.331
 5344SOL     OW17870   3.654   3.218   8.008
 5344SOL    HW117871   3.600   3.193   7.933
 5344SOL    HW217872   3.592   3.256   8.070
 5345SOL     OW17873   6.402   5.481   0.148
 5345SOL    HW117874   6.348   5.556   0.170
 5345SOL    HW217875   6.429   5.496   0.057
 5346SOL     OW17876   4.840   5.922   5.751
 5346SOL    HW117877   4.910   5.897   5.691
 5346SOL    HW217878   4.788   5.986   5.702
 5347SOL     OW17879  14.037   0.284   8.701
 5347SOL    HW117880  14.018   0.192   8.718
 5347SOL    HW217881  13.978   0.307   8.629
 5348SOL     OW17882   6.438   4.193   3.973
 5348SOL    HW117883   6.457   4.188   3.880
 5348SOL    HW217884   6.520   4.223   4.012
 5349SOL     OW17885   6.488   1.186   5.133
 5349SOL    HW117886   6.423   1.238   5.180
 5349SOL    HW217887   6.437   1.127   5.078
 5350SOL     OW17888   7.044   6.076  10.967
 5350SOL    HW117889   7.051   5.996  10.915
 5350SOL    HW217890   7.111   6.066  11.034
 5351SOL     OW17891   0.103   7.370   0.869
 5351SOL    HW117892   0.014   7.336   0.875
 5351SOL    HW217893   0.092   7.464   0.858
 5352SOL     OW17894  10.566   1.281  14.060
 5352SOL    HW117895  10.538   1.212  14.120
 5352SOL    HW217896  10.656   1.258  14.036
 5353SOL     OW17897   7.843  11.201   0.150
 5353SOL    HW117898   7.896  11.272   0.185
 5353SOL    HW217899   7.896  11.122   0.166
 5354SOL     OW17900  12.849   0.677   1.047
 5354SOL    HW117901  12.882   0.761   1.079
 5354SOL    HW217902  12.926   0.622   1.038
 5355SOL     OW17903   2.428   0.675  11.479
 5355SOL    HW117904   2.455   0.584  11.489
 5355SOL    HW217905   2.335   0.671  11.458
 5356SOL     OW17906  14.243   4.309   0.538
 5356SOL    HW117907  14.298   4.245   0.491
 5356SOL    HW217908  14.305   4.368   0.580
 5357SOL     OW17909   0.816   8.525   2.628
 5357SOL    HW117910   0.758   8.600   2.613
 5357SOL    HW217911   0.820   8.518   2.724
 5358SOL     OW17912   6.684  11.552   5.854
 5358SOL    HW117913   6.598  11.555   5.895
 5358SOL    HW217914   6.732  11.625   5.894
 5359SOL     OW17915   2.966   1.535  12.111
 5359SOL    HW117916   2.976   1.452  12.158
 5359SOL    HW217917   2.971   1.511  12.019
 5360SOL     OW17918   0.605   8.022   0.371
 5360SOL    HW117919   0.608   7.926   0.370
 5360SOL    HW217920   0.554   8.045   0.294
 5361SOL     OW17921   2.000   2.798  10.340
 5361SOL    HW117922   2.070   2.764  10.285
 5361SOL    HW217923   1.922   2.796  10.284
 5362SOL     OW17924  11.412  13.755   8.855
 5362SOL    HW117925  11.451  13.787   8.935
 5362SOL    HW217926  11.354  13.826   8.825
 5363SOL     OW17927   7.019   1.928  12.070
 5363SOL    HW117928   7.055   1.949  12.156
 5363SOL    HW217929   7.079   1.863  12.034
 5364SOL     OW17930   4.601   0.027   9.537
 5364SOL    HW117931   4.515   0.045   9.499
 5364SOL    HW217932   4.658   0.012   9.461
 5365SOL     OW17933   1.509  14.561  13.289
 5365SOL    HW117934   1.471  14.616  13.221
 5365SOL    HW217935   1.439  14.502  13.314
 5366SOL     OW17936  10.532   6.986  13.286
 5366SOL    HW117937  10.441   6.994  13.315
 5366SOL    HW217938  10.539   6.897  13.252
 5367SOL     OW17939   0.848  12.282   9.196
 5367SOL    HW117940   0.940  12.260   9.202
 5367SOL    HW217941   0.802  12.203   9.224
 5368SOL     OW17942   0.078   1.373   4.149
 5368SOL    HW117943  14.871   1.393   4.101
 5368SOL    HW217944   0.105   1.287   4.116
 5369SOL     OW17945   5.546   3.710   1.484
 5369SOL    HW117946   5.600   3.734   1.409
 5369SOL    HW217947   5.601   3.651   1.535
 5370SOL     OW17948  12.181  10.637   5.113
 5370SOL    HW117949  12.181  10.648   5.018
 5370SOL    HW217950  12.089  10.632   5.137
 5371SOL     OW17951   9.897   7.022  12.965
 5371SOL    HW117952   9.877   6.928  12.964
 5371SOL    HW217953   9.882   7.049  13.055
 5372SOL     OW17954   5.200  13.216   7.597
 5372SOL    HW117955   5.204  13.170   7.681
 5372SOL    HW217956   5.242  13.156   7.534
 5373SOL     OW17957  12.867   7.495   8.154
 5373SOL    HW117958  12.833   7.408   8.177
 5373SOL    HW217959  12.904   7.528   8.236
 5374SOL     OW17960   5.404  11.326   8.702
 5374SOL    HW117961   5.324  11.289   8.665
 5374SOL    HW217962   5.388  11.420   8.705
 5375SOL     OW17963   6.683   1.353  10.277
 5375SOL    HW117964   6.739   1.332  10.202
 5375SOL    HW217965   6.707   1.287  10.343
 5376SOL     OW17966  13.071  12.306  12.447
 5376SOL    HW117967  13.026  12.236  12.400
 5376SOL    HW217968  13.001  12.364  12.477
 5377SOL     OW17969  12.806   4.818   9.984
 5377SOL    HW117970  12.857   4.888   9.944
 5377SOL    HW217971  12.802   4.749   9.917
 5378SOL     OW17972   2.046   7.325  11.093
 5378SOL    HW117973   2.034   7.231  11.084
 5378SOL    HW217974   2.011   7.362  11.012
 5379SOL     OW17975   9.722  10.568   8.088
 5379SOL    HW117976   9.716  10.472   8.094
 5379SOL    HW217977   9.729  10.585   7.994
 5380SOL     OW17978   9.450  14.773  14.502
 5380SOL    HW117979   9.516  14.812  14.560
 5380SOL    HW217980   9.404  14.848  14.464
 5381SOL     OW17981   7.574   3.336  13.077
 5381SOL    HW117982   7.612   3.424  13.081
 5381SOL    HW217983   7.506   3.337  13.145
 5382SOL     OW17984   2.830   0.075   0.483
 5382SOL    HW117985   2.878   0.041   0.408
 5382SOL    HW217986   2.796  14.870   0.528
 5383SOL     OW17987   2.473  12.420   4.083
 5383SOL    HW117988   2.384  12.392   4.103
 5383SOL    HW217989   2.479  12.415   3.988
 5384SOL     OW17990   7.068  14.718   0.161
 5384SOL    HW117991   7.046  14.801   0.118
 5384SOL    HW217992   7.012  14.716   0.239
 5385SOL     OW17993  10.703  12.145   9.594
 5385SOL    HW117994  10.763  12.151   9.520
 5385SOL    HW217995  10.686  12.236   9.619
 5386SOL     OW17996   3.869  11.136   4.994
 5386SOL    HW117997   3.870  11.156   4.900
 5386SOL    HW217998   3.823  11.052   5.000
 5387SOL     OW17999  12.289  10.701   9.596
 5387SOL    HW118000  12.238  10.744   9.664
 5387SOL    HW218001  12.231  10.635   9.560
 5388SOL     OW18002  13.317   0.026   3.495
 5388SOL    HW118003  13.378   0.096   3.470
 5388SOL    HW218004  13.285   0.052   3.581
 5389SOL     OW18005   4.770   1.984   1.732
 5389SOL    HW118006   4.736   1.902   1.696
 5389SOL    HW218007   4.854   1.961   1.771
 5390SOL     OW18008   3.018  13.534   3.776
 5390SOL    HW118009   3.051  13.449   3.807
 5390SOL    HW218010   3.063  13.598   3.830
 5391SOL     OW18011   8.537   5.657   9.179
 5391SOL    HW118012   8.596   5.702   9.241
 5391SOL    HW218013   8.568   5.684   9.093
 5392SOL     OW18014   4.452  14.069  13.709
 5392SOL    HW118015   4.536  14.066  13.662
 5392SOL    HW218016   4.440  13.980  13.741
 5393SOL     OW18017   3.615   2.616   4.762
 5393SOL    HW118018   3.640   2.523   4.762
 5393SOL    HW218019   3.689   2.661   4.720
 5394SOL     OW18020   1.954  13.781  10.204
 5394SOL    HW118021   1.924  13.871  10.187
 5394SOL    HW218022   1.915  13.730  10.133
 5395SOL     OW18023  14.422   3.480  11.501
 5395SOL    HW118024  14.444   3.487  11.594
 5395SOL    HW218025  14.428   3.570  11.469
 5396SOL     OW18026   3.587   6.165   8.047
 5396SOL    HW118027   3.578   6.171   8.142
 5396SOL    HW218028   3.678   6.138   8.032
 5397SOL     OW18029  10.226   8.522  10.692
 5397SOL    HW118030  10.248   8.465  10.618
 5397SOL    HW218031  10.140   8.556  10.671
 5398SOL     OW18032   0.073  10.284   7.262
 5398SOL    HW118033   0.168  10.289   7.273
 5398SOL    HW218034   0.038  10.329   7.339
 5399SOL     OW18035   2.296   8.453   6.196
 5399SOL    HW118036   2.250   8.522   6.149
 5399SOL    HW218037   2.335   8.497   6.272
 5400SOL     OW18038  10.301   3.313   0.463
 5400SOL    HW118039  10.211   3.321   0.496
 5400SOL    HW218040  10.305   3.372   0.389
 5401SOL     OW18041   0.095   3.372   5.329
 5401SOL    HW118042   0.056   3.303   5.383
 5401SOL    HW218043   0.053   3.363   5.244
 5402SOL     OW18044   1.311   1.142  14.059
 5402SOL    HW118045   1.329   1.236  14.059
 5402SOL    HW218046   1.392   1.102  14.092
 5403SOL     OW18047   3.478   6.941  10.625
 5403SOL    HW118048   3.518   6.861  10.592
 5403SOL    HW218049   3.539   7.010  10.601
 5404SOL     OW18050   5.231   5.722  12.838
 5404SOL    HW118051   5.317   5.739  12.877
 5404SOL    HW218052   5.233   5.767  12.754
 5405SOL     OW18053   2.889   7.017   7.472
 5405SOL    HW118054   2.913   6.958   7.544
 5405SOL    HW218055   2.846   7.091   7.515
 5406SOL     OW18056   9.159   9.215   5.643
 5406SOL    HW118057   9.088   9.256   5.693
 5406SOL    HW218058   9.205   9.289   5.603
 5407SOL     OW18059   8.679  13.682  13.455
 5407SOL    HW118060   8.694  13.695  13.549
 5407SOL    HW218061   8.591  13.715  13.440
 5408SOL     OW18062   0.069  11.449   8.374
 5408SOL    HW118063  14.856  11.445   8.415
 5408SOL    HW218064   0.059  11.512   8.302
 5409SOL     OW18065   5.864  14.722   7.279
 5409SOL    HW118066   5.793  14.780   7.306
 5409SOL    HW218067   5.819  14.648   7.238
 5410SOL     OW18068   9.085   3.397  10.206
 5410SOL    HW118069   9.020   3.448  10.254
 5410SOL    HW218070   9.040   3.369  10.126
 5411SOL     OW18071   3.522  11.257   3.258
 5411SOL    HW118072   3.613  11.226   3.250
 5411SOL    HW218073   3.485  11.204   3.328
 5412SOL     OW18074   3.779   2.032   0.174
 5412SOL    HW118075   3.711   2.014   0.109
 5412SOL    HW218076   3.824   1.948   0.185
 5413SOL     OW18077  14.460  13.109   3.326
 5413SOL    HW118078  14.386  13.134   3.382
 5413SOL    HW218079  14.464  13.178   3.260
 5414SOL     OW18080  14.422   1.106  11.903
 5414SOL    HW118081  14.435   1.024  11.856
 5414SOL    HW218082  14.488   1.105  11.972
 5415SOL     OW18083   3.812  14.231   8.014
 5415SOL    HW118084   3.848  14.160   7.962
 5415SOL    HW218085   3.880  14.299   8.013
 5416SOL     OW18086   3.927  14.270   0.750
 5416SOL    HW118087   3.856  14.311   0.700
 5416SOL    HW218088   3.883  14.223   0.821
 5417SOL     OW18089  14.236  14.591   4.938
 5417SOL    HW118090  14.224  14.562   4.848
 5417SOL    HW218091  14.189  14.675   4.943
 5418SOL     OW18092   6.346  10.892   2.759
 5418SOL    HW118093   6.340  10.978   2.801
 5418SOL    HW218094   6.433  10.860   2.781
 5419SOL     OW18095   1.947   3.966  14.690
 5419SOL    HW118096   1.860   3.987  14.724
 5419SOL    HW218097   2.000   4.044  14.708
 5420SOL     OW18098  10.517   7.507  12.081
 5420SOL    HW118099  10.509   7.558  12.161
 5420SOL    HW218100  10.565   7.429  12.107
 5421SOL     OW18101   1.474   1.791  13.093
 5421SOL    HW118102   1.569   1.793  13.085
 5421SOL    HW218103   1.458   1.805  13.187
 5422SOL     OW18104  13.983   3.666   6.299
 5422SOL    HW118105  13.939   3.590   6.261
 5422SOL    HW218106  14.061   3.679   6.245
 5423SOL     OW18107   9.820   6.907  14.446
 5423SOL    HW118108   9.781   6.825  14.417
 5423SOL    HW218109   9.858   6.945  14.366
 5424SOL     OW18110   0.667   2.694   4.413
 5424SOL    HW118111   0.675   2.599   4.414
 5424SOL    HW218112   0.749   2.726   4.451
 5425SOL     OW18113  12.834  10.240   9.427
 5425SOL    HW118114  12.902  10.301   9.454
 5425SOL    HW218115  12.792  10.214   9.510
 5426SOL     OW18116   6.790  14.478  13.069
 5426SOL    HW118117   6.796  14.571  13.047
 5426SOL    HW218118   6.755  14.436  12.991
 5427SOL     OW18119  11.813   9.271  11.172
 5427SOL    HW118120  11.796   9.190  11.124
 5427SOL    HW218121  11.881   9.315  11.121
 5428SOL     OW18122   5.992   9.242   5.533
 5428SOL    HW118123   6.038   9.238   5.617
 5428SOL    HW218124   5.899   9.239   5.557
 5429SOL     OW18125   8.546   9.308   0.365
 5429SOL    HW118126   8.598   9.291   0.443
 5429SOL    HW218127   8.461   9.268   0.384
 5430SOL     OW18128  12.229   6.542   5.077
 5430SOL    HW118129  12.299   6.559   5.141
 5430SOL    HW218130  12.253   6.458   5.038
 5431SOL     OW18131  11.596   5.920   6.532
 5431SOL    HW118132  11.563   5.831   6.525
 5431SOL    HW218133  11.555   5.955   6.612
 5432SOL     OW18134   1.259  14.101   8.369
 5432SOL    HW118135   1.291  14.189   8.388
 5432SOL    HW218136   1.205  14.078   8.445
 5433SOL     OW18137   3.399  14.071   6.831
 5433SOL    HW118138   3.399  14.165   6.811
 5433SOL    HW218139   3.323  14.037   6.785
 5434SOL     OW18140   0.417   0.778  14.861
 5434SOL    HW118141   0.333   0.810   0.020
 5434SOL    HW218142   0.400   0.753  14.770
 5435SOL     OW18143   9.640   7.242  10.058
 5435SOL    HW118144   9.713   7.189  10.092
 5435SOL    HW218145   9.623   7.306  10.128
 5436SOL     OW18146   2.760  11.043  14.683
 5436SOL    HW118147   2.787  10.974  14.623
 5436SOL    HW218148   2.675  11.073  14.649
 5437SOL     OW18149  11.618   0.103   6.699
 5437SOL    HW118150  11.581   0.039   6.638
 5437SOL    HW218151  11.546   0.162   6.718
 5438SOL     OW18152  14.822   9.440  12.715
 5438SOL    HW118153  14.865   9.386  12.782
 5438SOL    HW218154  14.749   9.482  12.762
 5439SOL     OW18155  14.050   7.936  10.899
 5439SOL    HW118156  14.049   8.029  10.879
 5439SOL    HW218157  14.134   7.905  10.866
 5440SOL     OW18158  11.974   9.532  10.449
 5440SOL    HW118159  11.957   9.594  10.520
 5440SOL    HW218160  12.024   9.581  10.384
 5441SOL     OW18161   3.867  13.980  12.994
 5441SOL    HW118162   3.935  14.027  13.042
 5441SOL    HW218163   3.785  14.015  13.029
 5442SOL     OW18164  13.666   7.642  14.442
 5442SOL    HW118165  13.714   7.681  14.515
 5442SOL    HW218166  13.726   7.579  14.404
 5443SOL     OW18167   1.528  10.145  13.376
 5443SOL    HW118168   1.584  10.149  13.454
 5443SOL    HW218169   1.587  10.119  13.305
 5444SOL     OW18170   1.205  10.292   8.078
 5444SOL    HW118171   1.187  10.200   8.059
 5444SOL    HW218172   1.173  10.305   8.167
 5445SOL     OW18173  10.048  13.855  10.615
 5445SOL    HW118174  10.108  13.918  10.655
 5445SOL    HW218175  10.101  13.810  10.549
 5446SOL     OW18176  11.862   6.462   0.755
 5446SOL    HW118177  11.953   6.445   0.729
 5446SOL    HW218178  11.817   6.484   0.673
 5447SOL     OW18179   8.513  14.145   7.679
 5447SOL    HW118180   8.539  14.139   7.587
 5447SOL    HW218181   8.432  14.095   7.684
 5448SOL     OW18182  13.940  12.308   9.387
 5448SOL    HW118183  13.930  12.220   9.423
 5448SOL    HW218184  13.924  12.367   9.461
 5449SOL     OW18185   7.391   7.554   8.238
 5449SOL    HW118186   7.434   7.472   8.263
 5449SOL    HW218187   7.464   7.614   8.221
 5450SOL     OW18188   9.236   4.442  10.662
 5450SOL    HW118189   9.196   4.498  10.596
 5450SOL    HW218190   9.162   4.413  10.716
 5451SOL     OW18191   7.161  12.556  14.802
 5451SOL    HW118192   7.124  12.512  14.726
 5451SOL    HW218193   7.249  12.518  14.812
 5452SOL     OW18194   7.758  11.594   9.907
 5452SOL    HW118195   7.731  11.517   9.857
 5452SOL    HW218196   7.760  11.564   9.998
 5453SOL     OW18197   8.473   1.006  13.329
 5453SOL    HW118198   8.552   1.030  13.378
 5453SOL    HW218199   8.401   1.022  13.390
 5454SOL     OW18200   0.366   7.396   5.440
 5454SOL    HW118201   0.351   7.469   5.500
 5454SOL    HW218202   0.327   7.423   5.357
 5455SOL     OW18203   5.563  10.236  13.458
 5455SOL    HW118204   5.495  10.180  13.497
 5455SOL    HW218205   5.549  10.322  13.498
 5456SOL     OW18206  11.687   8.802   7.000
 5456SOL    HW118207  11.721   8.830   7.085
 5456SOL    HW218208  11.652   8.715   7.015
 5457SOL     OW18209   2.170   6.804   1.666
 5457SOL    HW118210   2.153   6.810   1.760
 5457SOL    HW218211   2.196   6.713   1.652
 5458SOL     OW18212  13.700  10.949   6.713
 5458SOL    HW118213  13.614  10.991   6.717
 5458SOL    HW218214  13.721  10.949   6.620
 5459SOL     OW18215  14.300   8.674  12.163
 5459SOL    HW118216  14.363   8.700  12.230
 5459SOL    HW218217  14.328   8.719  12.084
 5460SOL     OW18218   3.498   4.396  14.814
 5460SOL    HW118219   3.411   4.371  14.782
 5460SOL    HW218220   3.525   4.323  14.870
 5461SOL     OW18221   7.193  13.990  14.154
 5461SOL    HW118222   7.277  14.004  14.111
 5461SOL    HW218223   7.188  13.895  14.166
 5462SOL     OW18224   0.746  12.596   3.322
 5462SOL    HW118225   0.726  12.531   3.389
 5462SOL    HW218226   0.838  12.618   3.337
 5463SOL     OW18227   7.927   8.537   4.995
 5463SOL    HW118228   8.003   8.536   5.054
 5463SOL    HW218229   7.898   8.446   4.993
 5464SOL     OW18230  13.383   9.142  12.655
 5464SOL    HW118231  13.423   9.087  12.588
 5464SOL    HW218232  13.289   9.137  12.638
 5465SOL     OW18233   8.007   7.458  13.271
 5465SOL    HW118234   7.983   7.424  13.185
 5465SOL    HW218235   8.052   7.540  13.253
 5466SOL     OW18236   8.062  12.681   3.455
 5466SOL    HW118237   8.142  12.723   3.425
 5466SOL    HW218238   8.013  12.661   3.375
 5467SOL     OW18239   4.507   1.660   8.164
 5467SOL    HW118240   4.526   1.645   8.072
 5467SOL    HW218241   4.547   1.585   8.209
 5468SOL     OW18242   9.547   2.357  12.075
 5468SOL    HW118243   9.539   2.328  11.984
 5468SOL    HW218244   9.458   2.378  12.102
 5469SOL     OW18245   7.332   1.312   4.043
 5469SOL    HW118246   7.404   1.262   4.080
 5469SOL    HW218247   7.343   1.302   3.948
 5470SOL     OW18248   5.789   4.762   6.514
 5470SOL    HW118249   5.824   4.690   6.566
 5470SOL    HW218250   5.864   4.794   6.464
 5471SOL     OW18251  10.366  10.187   9.204
 5471SOL    HW118252  10.383  10.194   9.110
 5471SOL    HW218253  10.351  10.093   9.219
 5472SOL     OW18254   1.159   0.809  11.582
 5472SOL    HW118255   1.189   0.874  11.518
 5472SOL    HW218256   1.234   0.797  11.640
 5473SOL     OW18257   4.777   1.336  13.488
 5473SOL    HW118258   4.803   1.265  13.429
 5473SOL    HW218259   4.784   1.415  13.435
 5474SOL     OW18260   3.824   5.625  10.964
 5474SOL    HW118261   3.848   5.556  11.027
 5474SOL    HW218262   3.794   5.577  10.887
 5475SOL     OW18263  12.205   7.760   3.874
 5475SOL    HW118264  12.236   7.739   3.962
 5475SOL    HW218265  12.283   7.794   3.829
 5476SOL     OW18266   5.393  14.273   4.891
 5476SOL    HW118267   5.410  14.356   4.846
 5476SOL    HW218268   5.469  14.219   4.870
 5477SOL     OW18269   8.928  11.127  11.279
 5477SOL    HW118270   8.896  11.141  11.189
 5477SOL    HW218271   8.848  11.119  11.331
 5478SOL     OW18272  14.613   8.327   3.342
 5478SOL    HW118273  14.670   8.308   3.268
 5478SOL    HW218274  14.670   8.324   3.418
 5479SOL     OW18275   7.945   2.829   3.285
 5479SOL    HW118276   8.017   2.887   3.259
 5479SOL    HW218277   7.926   2.778   3.206
 5480SOL     OW18278  13.863   4.002   0.855
 5480SOL    HW118279  13.941   4.041   0.896
 5480SOL    HW218280  13.801   3.993   0.928
 5481SOL     OW18281   2.050   6.134   4.891
 5481SOL    HW118282   2.014   6.081   4.820
 5481SOL    HW218283   2.032   6.225   4.865
 5482SOL     OW18284  14.550   4.927   9.390
 5482SOL    HW118285  14.620   4.868   9.418
 5482SOL    HW218286  14.558   4.930   9.295
 5483SOL     OW18287  13.619   1.367   0.944
 5483SOL    HW118288  13.552   1.314   0.901
 5483SOL    HW218289  13.691   1.306   0.958
 5484SOL     OW18290  13.936   3.621   7.274
 5484SOL    HW118291  13.986   3.695   7.240
 5484SOL    HW218292  13.989   3.545   7.253
 5485SOL     OW18293   9.659  11.091   8.840
 5485SOL    HW118294   9.663  11.173   8.889
 5485SOL    HW218295   9.582  11.100   8.784
 5486SOL     OW18296   3.617  14.103   4.966
 5486SOL    HW118297   3.655  14.191   4.971
 5486SOL    HW218298   3.679  14.054   4.912
 5487SOL     OW18299   9.430   8.559   5.533
 5487SOL    HW118300   9.405   8.568   5.625
 5487SOL    HW218301   9.503   8.621   5.522
 5488SOL     OW18302   0.074   0.959   3.431
 5488SOL    HW118303   0.084   1.013   3.510
 5488SOL    HW218304   0.152   0.978   3.379
 5489SOL     OW18305   6.074   8.479   1.893
 5489SOL    HW118306   5.980   8.487   1.912
 5489SOL    HW218307   6.084   8.390   1.859
 5490SOL     OW18308  13.858  12.620   0.534
 5490SOL    HW118309  13.931  12.674   0.563
 5490SOL    HW218310  13.871  12.536   0.579
 5491SOL     OW18311   8.117   1.669   7.095
 5491SOL    HW118312   8.053   1.666   7.024
 5491SOL    HW218313   8.122   1.761   7.120
 5492SOL     OW18314  10.086   6.837  13.631
 5492SOL    HW118315  10.063   6.850  13.539
 5492SOL    HW218316  10.002   6.834  13.676
 5493SOL     OW18317  13.656  13.731  12.737
 5493SOL    HW118318  13.589  13.778  12.687
 5493SOL    HW218319  13.709  13.800  12.776
 5494SOL     OW18320   0.916  10.048   9.551
 5494SOL    HW118321   0.827  10.057   9.517
 5494SOL    HW218322   0.944   9.961   9.522
 5495SOL     OW18323   9.755  13.983   1.813
 5495SOL    HW118324   9.758  13.914   1.879
 5495SOL    HW218325   9.735  14.063   1.863
 5496SOL     OW18326   1.290   6.920   0.699
 5496SOL    HW118327   1.213   6.865   0.685
 5496SOL    HW218328   1.313   6.906   0.791
 5497SOL     OW18329   9.761   9.645   4.512
 5497SOL    HW118330   9.774   9.739   4.510
 5497SOL    HW218331   9.826   9.610   4.450
 5498SOL     OW18332  10.269   9.733   5.431
 5498SOL    HW118333  10.296   9.821   5.457
 5498SOL    HW218334  10.299   9.677   5.502
 5499SOL     OW18335   1.208   5.834   9.676
 5499SOL    HW118336   1.233   5.806   9.588
 5499SOL    HW218337   1.244   5.922   9.684
 5500SOL     OW18338  11.991   5.617  10.303
 5500SOL    HW118339  11.977   5.536  10.253
 5500SOL    HW218340  12.057   5.665  10.254
 5501SOL     OW18341   2.174   7.932   6.611
 5501SOL    HW118342   2.199   7.887   6.530
 5501SOL    HW218343   2.080   7.914   6.620
 5502SOL     OW18344   9.367  11.267   6.164
 5502SOL    HW118345   9.395  11.177   6.182
 5502SOL    HW218346   9.276  11.258   6.134
 5503SOL     OW18347   1.061   1.136  11.103
 5503SOL    HW118348   1.118   1.077  11.054
 5503SOL    HW218349   1.053   1.214  11.048
 5504SOL     OW18350   6.536   4.280  14.672
 5504SOL    HW118351   6.496   4.294  14.757
 5504SOL    HW218352   6.463   4.250  14.616
 5505SOL     OW18353   5.270   6.773  11.561
 5505SOL    HW118354   5.230   6.718  11.494
 5505SOL    HW218355   5.327   6.832  11.512
 5506SOL     OW18356  10.911  13.869   3.103
 5506SOL    HW118357  10.922  13.819   3.183
 5506SOL    HW218358  11.000  13.890   3.074
 5507SOL     OW18359   8.125   1.146  14.043
 5507SOL    HW118360   8.130   1.051  14.054
 5507SOL    HW218361   8.035   1.163  14.016
 5508SOL     OW18362  11.489   9.965   3.351
 5508SOL    HW118363  11.563   9.976   3.411
 5508SOL    HW218364  11.453  10.054   3.342
 5509SOL     OW18365   2.386  12.685   7.603
 5509SOL    HW118366   2.353  12.772   7.624
 5509SOL    HW218367   2.309  12.628   7.609
 5510SOL     OW18368  14.294  14.709   1.176
 5510SOL    HW118369  14.337  14.640   1.125
 5510SOL    HW218370  14.363  14.744   1.232
 5511SOL     OW18371   6.902   1.697   8.646
 5511SOL    HW118372   6.963   1.761   8.609
 5511SOL    HW218373   6.951   1.655   8.717
 5512SOL     OW18374   0.653   8.407   5.920
 5512SOL    HW118375   0.572   8.394   5.871
 5512SOL    HW218376   0.721   8.405   5.853
 5513SOL     OW18377   2.990  10.462   2.681
 5513SOL    HW118378   3.052  10.389   2.688
 5513SOL    HW218379   3.025  10.514   2.608
 5514SOL     OW18380  12.594   2.321   5.516
 5514SOL    HW118381  12.550   2.317   5.432
 5514SOL    HW218382  12.674   2.270   5.504
 5515SOL     OW18383  10.413   6.894   7.250
 5515SOL    HW118384  10.367   6.855   7.324
 5515SOL    HW218385  10.504   6.866   7.261
 5516SOL     OW18386  11.472   5.777   7.467
 5516SOL    HW118387  11.377   5.783   7.468
 5516SOL    HW218388  11.493   5.740   7.382
 5517SOL     OW18389   6.135   3.330   0.659
 5517SOL    HW118390   6.067   3.393   0.637
 5517SOL    HW218391   6.174   3.306   0.575
 5518SOL     OW18392   2.250   4.079   1.668
 5518SOL    HW118393   2.339   4.056   1.641
 5518SOL    HW218394   2.262   4.147   1.735
 5519SOL     OW18395   2.370   8.182   5.914
 5519SOL    HW118396   2.451   8.200   5.962
 5519SOL    HW218397   2.325   8.118   5.968
 5520SOL     OW18398   4.329   6.746   0.262
 5520SOL    HW118399   4.364   6.708   0.181
 5520SOL    HW218400   4.387   6.821   0.280
 5521SOL     OW18401   3.301  12.435  13.953
 5521SOL    HW118402   3.256  12.463  14.032
 5521SOL    HW218403   3.394  12.451  13.972
 5522SOL     OW18404  14.708   9.952  12.181
 5522SOL    HW118405  14.718   9.904  12.264
 5522SOL    HW218406  14.634   9.909  12.137
 5523SOL     OW18407   4.960   9.816   2.909
 5523SOL    HW118408   4.976   9.879   2.980
 5523SOL    HW218409   4.912   9.745   2.951
 5524SOL     OW18410   8.325   7.164   2.078
 5524SOL    HW118411   8.329   7.077   2.038
 5524SOL    HW218412   8.233   7.175   2.103
 5525SOL     OW18413   5.113   9.729   0.959
 5525SOL    HW118414   5.169   9.745   0.883
 5525SOL    HW218415   5.073   9.644   0.943
 5526SOL     OW18416   1.898  13.310   7.350
 5526SOL    HW118417   1.822  13.318   7.293
 5526SOL    HW218418   1.908  13.216   7.364
 5527SOL     OW18419   0.218  13.050   4.018
 5527SOL    HW118420   0.206  12.961   3.985
 5527SOL    HW218421   0.269  13.094   3.950
 5528SOL     OW18422   8.427  13.157   5.567
 5528SOL    HW118423   8.420  13.188   5.477
 5528SOL    HW218424   8.501  13.205   5.603
 5529SOL     OW18425  13.569  11.915  14.788
 5529SOL    HW118426  13.559  11.955  14.702
 5529SOL    HW218427  13.651  11.867  14.783
 5530SOL     OW18428   7.823  13.838   0.206
 5530SOL    HW118429   7.781  13.761   0.168
 5530SOL    HW218430   7.858  13.808   0.290
 5531SOL     OW18431   6.924   6.541  14.652
 5531SOL    HW118432   6.964   6.573  14.572
 5531SOL    HW218433   6.906   6.620  14.703
 5532SOL     OW18434  14.554  12.850   5.870
 5532SOL    HW118435  14.501  12.918   5.829
 5532SOL    HW218436  14.538  12.771   5.817
 5533SOL     OW18437  10.321  14.831   2.380
 5533SOL    HW118438  10.393  14.793   2.329
 5533SOL    HW218439  10.364   0.015   2.443
 5534SOL     OW18440  10.669   2.666   7.622
 5534SOL    HW118441  10.672   2.743   7.679
 5534SOL    HW218442  10.581   2.667   7.585
 5535SOL     OW18443   5.865   8.483   6.860
 5535SOL    HW118444   5.786   8.486   6.914
 5535SOL    HW218445   5.846   8.418   6.792
 5536SOL     OW18446   9.078   6.246   2.656
 5536SOL    HW118447   9.159   6.275   2.700
 5536SOL    HW218448   9.040   6.327   2.621
 5537SOL     OW18449  14.568  11.905  11.347
 5537SOL    HW118450  14.633  11.931  11.281
 5537SOL    HW218451  14.496  11.967  11.335
 5538SOL     OW18452   6.589   2.041   1.051
 5538SOL    HW118453   6.620   2.053   0.961
 5538SOL    HW218454   6.620   1.954   1.075
 5539SOL     OW18455  12.750   5.178  14.283
 5539SOL    HW118456  12.821   5.196  14.344
 5539SOL    HW218457  12.700   5.107  14.324
 5540SOL     OW18458   7.961   5.776   2.783
 5540SOL    HW118459   7.891   5.817   2.834
 5540SOL    HW218460   8.004   5.717   2.846
 5541SOL     OW18461  11.494  12.190   8.974
 5541SOL    HW118462  11.485  12.235   8.890
 5541SOL    HW218463  11.558  12.242   9.023
 5542SOL     OW18464  12.580   9.446  14.765
 5542SOL    HW118465  12.675   9.445  14.778
 5542SOL    HW218466  12.569   9.429  14.671
 5543SOL     OW18467   1.504   2.586   7.665
 5543SOL    HW118468   1.552   2.511   7.631
 5543SOL    HW218469   1.412   2.559   7.662
 5544SOL     OW18470  11.957  10.501   1.595
 5544SOL    HW118471  12.031  10.444   1.614
 5544SOL    HW218472  11.992  10.566   1.534
 5545SOL     OW18473  11.473   2.333   2.351
 5545SOL    HW118474  11.458   2.334   2.256
 5545SOL    HW218475  11.393   2.372   2.388
 5546SOL     OW18476   2.766  14.718  14.013
 5546SOL    HW118477   2.780  14.734  14.106
 5546SOL    HW218478   2.671  14.710  14.004
 5547SOL     OW18479   7.633   6.942   3.543
 5547SOL    HW118480   7.719   6.913   3.512
 5547SOL    HW218481   7.612   6.881   3.614
 5548SOL     OW18482   3.758   9.564  11.345
 5548SOL    HW118483   3.804   9.480  11.340
 5548SOL    HW218484   3.735   9.584  11.254
 5549SOL     OW18485   7.865   0.512   8.210
 5549SOL    HW118486   7.812   0.588   8.185
 5549SOL    HW218487   7.897   0.477   8.127
 5550SOL     OW18488   9.910  13.616   0.783
 5550SOL    HW118489   9.986  13.621   0.840
 5550SOL    HW218490   9.904  13.524   0.760
 5551SOL     OW18491  14.565   4.974  13.767
 5551SOL    HW118492  14.556   5.069  13.761
 5551SOL    HW218493  14.653   4.957  13.733
 5552SOL     OW18494   7.245   8.912   3.261
 5552SOL    HW118495   7.330   8.922   3.303
 5552SOL    HW218496   7.264   8.861   3.182
 5553SOL     OW18497   0.644   1.798   0.093
 5553SOL    HW118498   0.578   1.810   0.024
 5553SOL    HW218499   0.678   1.710   0.078
 5554SOL     OW18500  14.050   7.108  12.282
 5554SOL    HW118501  14.106   7.161  12.225
 5554SOL    HW218502  13.997   7.056  12.222
 5555SOL     OW18503   9.393   8.155   6.361
 5555SOL    HW118504   9.348   8.078   6.397
 5555SOL    HW218505   9.355   8.165   6.273
 5556SOL     OW18506  13.410   1.037   6.051
 5556SOL    HW118507  13.343   1.086   6.003
 5556SOL    HW218508  13.362   0.994   6.122
 5557SOL     OW18509   8.624  10.154   9.472
 5557SOL    HW118510   8.540  10.195   9.495
 5557SOL    HW218511   8.671  10.222   9.424
 5558SOL     OW18512   3.467   5.339   0.723
 5558SOL    HW118513   3.482   5.251   0.757
 5558SOL    HW218514   3.455   5.393   0.800
 5559SOL     OW18515   6.101  12.276   1.931
 5559SOL    HW118516   6.168  12.239   1.989
 5559SOL    HW218517   6.019  12.267   1.980
 5560SOL     OW18518   4.483  14.547   7.568
 5560SOL    HW118519   4.491  14.555   7.663
 5560SOL    HW218520   4.564  14.505   7.541
 5561SOL     OW18521  10.458  11.285   1.559
 5561SOL    HW118522  10.508  11.210   1.589
 5561SOL    HW218523  10.519  11.333   1.502
 5562SOL     OW18524   6.518   7.917  10.081
 5562SOL    HW118525   6.600   7.932  10.035
 5562SOL    HW218526   6.509   7.822  10.085
 5563SOL     OW18527  12.647  13.223  12.559
 5563SOL    HW118528  12.599  13.148  12.525
 5563SOL    HW218529  12.694  13.188  12.635
 5564SOL     OW18530  14.399  10.094   0.859
 5564SOL    HW118531  14.336  10.032   0.823
 5564SOL    HW218532  14.348  10.150   0.918
 5565SOL     OW18533   1.643  10.791   8.644
 5565SOL    HW118534   1.609  10.740   8.570
 5565SOL    HW218535   1.565  10.820   8.691
 5566SOL     OW18536   4.193   9.952   9.288
 5566SOL    HW118537   4.255   9.911   9.348
 5566SOL    HW218538   4.134  10.001   9.345
 5567SOL     OW18539  10.305  13.343  11.662
 5567SOL    HW118540  10.336  13.338  11.571
 5567SOL    HW218541  10.293  13.437  11.678
 5568SOL     OW18542  12.150   1.162   8.209
 5568SOL    HW118543  12.118   1.099   8.273
 5568SOL    HW218544  12.115   1.131   8.125
 5569SOL     OW18545   7.407  11.358   7.835
 5569SOL    HW118546   7.412  11.361   7.740
 5569SOL    HW218547   7.367  11.273   7.853
 5570SOL     OW18548   1.765   3.392  10.890
 5570SOL    HW118549   1.719   3.322  10.935
 5570SOL    HW218550   1.848   3.402  10.937
 5571SOL     OW18551   7.832   1.526  14.548
 5571SOL    HW118552   7.871   1.447  14.584
 5571SOL    HW218553   7.762   1.549  14.609
 5572SOL     OW18554   0.115   8.524  12.006
 5572SOL    HW118555   0.115   8.430  11.986
 5572SOL    HW218556   0.105   8.566  11.921
 5573SOL     OW18557   3.475   3.123  11.045
 5573SOL    HW118558   3.441   3.196  10.993
 5573SOL    HW218559   3.565   3.112  11.014
 5574SOL     OW18560   0.082   5.797  10.426
 5574SOL    HW118561  14.863   5.820  10.420
 5574SOL    HW218562   0.119   5.860  10.488
 5575SOL     OW18563  10.425   3.549   5.542
 5575SOL    HW118564  10.331   3.551   5.524
 5575SOL    HW218565  10.430   3.552   5.637
 5576SOL     OW18566   1.538   3.482  10.770
 5576SOL    HW118567   1.618   3.439  10.800
 5576SOL    HW218568   1.511   3.430  10.694
 5577SOL     OW18569  14.636   6.877   9.346
 5577SOL    HW118570  14.693   6.924   9.407
 5577SOL    HW218571  14.695   6.830   9.288
 5578SOL     OW18572   2.529   3.984   0.953
 5578SOL    HW118573   2.474   3.996   0.875
 5578SOL    HW218574   2.471   4.002   1.027
 5579SOL     OW18575   9.760   8.125   9.856
 5579SOL    HW118576   9.803   8.107   9.939
 5579SOL    HW218577   9.811   8.076   9.791
 5580SOL     OW18578   5.098   7.964  13.230
 5580SOL    HW118579   5.067   8.051  13.206
 5580SOL    HW218580   5.063   7.949  13.318
 5581SOL     OW18581  13.716  11.032  10.704
 5581SOL    HW118582  13.701  11.126  10.692
 5581SOL    HW218583  13.779  11.009  10.636
 5582SOL     OW18584  11.210   7.114   6.034
 5582SOL    HW118585  11.181   7.022   6.034
 5582SOL    HW218586  11.273   7.119   5.962
 5583SOL     OW18587   7.712   5.335  12.328
 5583SOL    HW118588   7.800   5.339  12.366
 5583SOL    HW218589   7.726   5.334  12.233
 5584SOL     OW18590   5.328   3.005  11.232
 5584SOL    HW118591   5.233   3.003  11.235
 5584SOL    HW218592   5.355   2.948  11.305
 5585SOL     OW18593   8.189  11.866   6.391
 5585SOL    HW118594   8.276  11.900   6.371
 5585SOL    HW218595   8.203  11.807   6.466
 5586SOL     OW18596   2.244  10.713   4.408
 5586SOL    HW118597   2.298  10.693   4.332
 5586SOL    HW218598   2.217  10.804   4.395
 5587SOL     OW18599   3.614   0.822   9.026
 5587SOL    HW118600   3.646   0.786   8.943
 5587SOL    HW218601   3.605   0.745   9.083
 5588SOL     OW18602  14.835  14.163  10.090
 5588SOL    HW118603  14.826  14.124  10.177
 5588SOL    HW218604  14.754  14.213  10.078
 5589SOL     OW18605   9.397   3.478   3.728
 5589SOL    HW118606   9.383   3.400   3.673
 5589SOL    HW218607   9.453   3.534   3.674
 5590SOL     OW18608   2.116   2.659   6.955
 5590SOL    HW118609   2.050   2.676   6.888
 5590SOL    HW218610   2.151   2.745   6.977
 5591SOL     OW18611  13.094   4.241  10.202
 5591SOL    HW118612  13.144   4.317  10.173
 5591SOL    HW218613  13.017   4.277  10.246
 5592SOL     OW18614  10.568   1.522   7.015
 5592SOL    HW118615  10.545   1.433   6.987
 5592SOL    HW218616  10.530   1.578   6.948
 5593SOL     OW18617  14.328   4.110   5.775
 5593SOL    HW118618  14.365   4.157   5.850
 5593SOL    HW218619  14.259   4.055   5.812
 5594SOL     OW18620   3.925   3.419  13.987
 5594SOL    HW118621   3.876   3.466  14.054
 5594SOL    HW218622   3.914   3.327  14.010
 5595SOL     OW18623   1.069   0.704   7.957
 5595SOL    HW118624   1.077   0.761   8.033
 5595SOL    HW218625   1.096   0.617   7.989
 5596SOL     OW18626  13.212   5.177   2.537
 5596SOL    HW118627  13.235   5.163   2.629
 5596SOL    HW218628  13.153   5.105   2.516
 5597SOL     OW18629   6.391  14.797  13.041
 5597SOL    HW118630   6.463  14.780  12.981
 5597SOL    HW218631   6.314  14.808  12.985
 5598SOL     OW18632   9.510   3.823   3.917
 5598SOL    HW118633   9.544   3.734   3.933
 5598SOL    HW218634   9.582   3.881   3.943
 5599SOL     OW18635   3.239   0.193   0.634
 5599SOL    HW118636   3.301   0.266   0.641
 5599SOL    HW218637   3.251   0.143   0.715
 5600SOL     OW18638  10.192   1.711  13.261
 5600SOL    HW118639  10.109   1.665  13.246
 5600SOL    HW218640  10.246   1.689  13.185
 5601SOL     OW18641   6.485  12.394   0.154
 5601SOL    HW118642   6.573  12.429   0.169
 5601SOL    HW218643   6.491  12.347   0.071
 5602SOL     OW18644  10.477   7.712  10.917
 5602SOL    HW118645  10.443   7.637  10.869
 5602SOL    HW218646  10.410   7.732  10.982
 5603SOL     OW18647   7.711   2.428  12.605
 5603SOL    HW118648   7.671   2.342  12.616
 5603SOL    HW218649   7.637   2.486  12.584
 5604SOL     OW18650  13.574  13.999   2.173
 5604SOL    HW118651  13.534  14.005   2.260
 5604SOL    HW218652  13.559  14.085   2.134
 5605SOL     OW18653   8.969   9.169  10.259
 5605SOL    HW118654   8.880   9.183  10.290
 5605SOL    HW218655   9.013   9.253  10.273
 5606SOL     OW18656   5.874   0.607   0.959
 5606SOL    HW118657   5.958   0.577   0.924
 5606SOL    HW218658   5.832   0.651   0.885
 5607SOL     OW18659   4.402  11.445   1.957
 5607SOL    HW118660   4.406  11.350   1.948
 5607SOL    HW218661   4.490  11.475   1.934
 5608SOL     OW18662  11.178   9.029   5.928
 5608SOL    HW118663  11.101   9.026   5.871
 5608SOL    HW218664  11.173   8.948   5.979
 5609SOL     OW18665   3.257   6.598  14.871
 5609SOL    HW118666   3.294   6.547  14.799
 5609SOL    HW218667   3.286   6.554   0.077
 5610SOL     OW18668  14.046   9.447   8.462
 5610SOL    HW118669  14.089   9.362   8.457
 5610SOL    HW218670  13.969   9.438   8.406
 5611SOL     OW18671  11.150   6.130  12.464
 5611SOL    HW118672  11.204   6.172  12.397
 5611SOL    HW218673  11.064   6.121  12.424
 5612SOL     OW18674   7.493   5.905   7.794
 5612SOL    HW118675   7.545   5.858   7.729
 5612SOL    HW218676   7.473   5.839   7.861
 5613SOL     OW18677   0.115   8.888   9.880
 5613SOL    HW118678   0.064   8.907   9.801
 5613SOL    HW218679   0.179   8.822   9.852
 5614SOL     OW18680  10.805   1.149   7.688
 5614SOL    HW118681  10.749   1.084   7.731
 5614SOL    HW218682  10.872   1.170   7.753
 5615SOL     OW18683   3.583   9.429  11.827
 5615SOL    HW118684   3.541   9.506  11.788
 5615SOL    HW218685   3.614   9.378  11.753
 5616SOL     OW18686   9.550   4.714   8.449
 5616SOL    HW118687   9.498   4.794   8.451
 5616SOL    HW218688   9.624   4.734   8.391
 5617SOL     OW18689   3.678  14.812  14.787
 5617SOL    HW118690   3.650   0.014  14.838
 5617SOL    HW218691   3.614  14.806  14.716
 5618SOL     OW18692  11.986  13.275  10.473
 5618SOL    HW118693  11.951  13.331  10.542
 5618SOL    HW218694  12.032  13.336  10.415
 5619SOL     OW18695   0.673  11.703   3.573
 5619SOL    HW118696   0.646  11.716   3.482
 5619SOL    HW218697   0.590  11.699   3.622
 5620SOL     OW18698   6.136   7.481   7.441
 5620SOL    HW118699   6.098   7.508   7.357
 5620SOL    HW218700   6.202   7.416   7.418
 5621SOL     OW18701   8.759  13.747   0.518
 5621SOL    HW118702   8.774  13.750   0.424
 5621SOL    HW218703   8.760  13.653   0.540
 5622SOL     OW18704   0.707  14.113  10.508
 5622SOL    HW118705   0.679  14.115  10.600
 5622SOL    HW218706   0.646  14.171  10.463
 5623SOL     OW18707   2.213   4.673   9.389
 5623SOL    HW118708   2.187   4.725   9.312
 5623SOL    HW218709   2.130   4.643   9.426
 5624SOL     OW18710  11.299  10.678   0.678
 5624SOL    HW118711  11.270  10.635   0.759
 5624SOL    HW218712  11.227  10.736   0.654
 5625SOL     OW18713   3.949  10.235   4.932
 5625SOL    HW118714   3.860  10.255   4.902
 5625SOL    HW218715   4.006  10.277   4.867
 5626SOL     OW18716   1.034   7.464  13.131
 5626SOL    HW118717   1.082   7.547  13.128
 5626SOL    HW218718   1.099   7.400  13.160
 5627SOL     OW18719   4.276  14.425   5.752
 5627SOL    HW118720   4.339  14.464   5.812
 5627SOL    HW218721   4.199  14.406   5.806
 5628SOL     OW18722   6.170   6.959   1.722
 5628SOL    HW118723   6.208   6.894   1.781
 5628SOL    HW218724   6.246   7.008   1.689
 5629SOL     OW18725   4.711  11.923   9.911
 5629SOL    HW118726   4.750  11.999   9.954
 5629SOL    HW218727   4.763  11.910   9.832
 5630SOL     OW18728   2.073  11.750   9.361
 5630SOL    HW118729   1.978  11.762   9.364
 5630SOL    HW218730   2.089  11.705   9.278
 5631SOL     OW18731   2.977   6.468  10.394
 5631SOL    HW118732   3.016   6.393  10.349
 5631SOL    HW218733   2.884   6.449  10.397
 5632SOL     OW18734  13.931   8.892  11.011
 5632SOL    HW118735  13.847   8.938  11.010
 5632SOL    HW218736  13.908   8.799  11.017
 5633SOL     OW18737   9.934   9.502   8.144
 5633SOL    HW118738   9.976   9.581   8.112
 5633SOL    HW218739   9.992   9.471   8.215
 5634SOL     OW18740  10.730   4.168  11.734
 5634SOL    HW118741  10.695   4.087  11.773
 5634SOL    HW218742  10.660   4.200  11.678
 5635SOL     OW18743  12.099   2.650   5.141
 5635SOL    HW118744  12.088   2.727   5.085
 5635SOL    HW218745  12.037   2.586   5.107
 5636SOL     OW18746   5.448  13.780   4.450
 5636SOL    HW118747   5.518  13.733   4.405
 5636SOL    HW218748   5.442  13.738   4.536
 5637SOL     OW18749   7.825  14.234   7.181
 5637SOL    HW118750   7.906  14.227   7.231
 5637SOL    HW218751   7.756  14.242   7.246
 5638SOL     OW18752   6.093   1.633   4.385
 5638SOL    HW118753   6.110   1.728   4.386
 5638SOL    HW218754   6.082   1.611   4.293
 5639SOL     OW18755   6.767  10.463   7.491
 5639SOL    HW118756   6.787  10.385   7.543
 5639SOL    HW218757   6.810  10.448   7.407
 5640SOL     OW18758  11.641  13.835   6.547
 5640SOL    HW118759  11.566  13.894   6.547
 5640SOL    HW218760  11.642  13.797   6.459
 5641SOL     OW18761   2.989   5.910   5.937
 5641SOL    HW118762   3.000   5.912   6.032
 5641SOL    HW218763   2.987   5.817   5.915
 5642SOL     OW18764  12.048   3.466   2.023
 5642SOL    HW118765  12.056   3.399   2.091
 5642SOL    HW218766  11.958   3.498   2.032
 5643SOL     OW18767  11.788  12.226   9.792
 5643SOL    HW118768  11.879  12.252   9.808
 5643SOL    HW218769  11.795  12.144   9.744
 5644SOL     OW18770  10.786   9.636  11.092
 5644SOL    HW118771  10.748   9.557  11.053
 5644SOL    HW218772  10.870   9.647  11.048
 5645SOL     OW18773   3.868  12.900  14.393
 5645SOL    HW118774   3.836  12.870  14.308
 5645SOL    HW218775   3.964  12.895  14.386
 5646SOL     OW18776   7.236   4.181   4.731
 5646SOL    HW118777   7.201   4.257   4.684
 5646SOL    HW218778   7.310   4.215   4.780
 5647SOL     OW18779  14.070  13.241  14.792
 5647SOL    HW118780  13.996  13.229  14.851
 5647SOL    HW218781  14.036  13.295  14.720
 5648SOL     OW18782   5.778   2.586  10.678
 5648SOL    HW118783   5.795   2.614  10.588
 5648SOL    HW218784   5.865   2.572  10.715
 5649SOL     OW18785  12.503  14.681  11.956
 5649SOL    HW118786  12.548  14.763  11.934
 5649SOL    HW218787  12.504  14.678  12.052
 5650SOL     OW18788   2.868   8.566  12.328
 5650SOL    HW118789   2.848   8.503  12.398
 5650SOL    HW218790   2.945   8.530  12.285
 5651SOL     OW18791   7.697   2.805   6.868
 5651SOL    HW118792   7.640   2.832   6.940
 5651SOL    HW218793   7.677   2.866   6.797
 5652SOL     OW18794   7.689   1.776   4.182
 5652SOL    HW118795   7.717   1.861   4.147
 5652SOL    HW218796   7.756   1.715   4.151
 5653SOL     OW18797  11.498   6.677  12.373
 5653SOL    HW118798  11.531   6.615  12.438
 5653SOL    HW218799  11.532   6.645  12.289
 5654SOL     OW18800   2.005   6.935  13.507
 5654SOL    HW118801   1.942   6.966  13.571
 5654SOL    HW218802   1.954   6.921  13.427
 5655SOL     OW18803   0.622   6.365   6.205
 5655SOL    HW118804   0.677   6.346   6.130
 5655SOL    HW218805   0.649   6.452   6.234
 5656SOL     OW18806  11.061  10.348  10.427
 5656SOL    HW118807  10.983  10.295  10.443
 5656SOL    HW218808  11.037  10.435  10.458
 5657SOL     OW18809   8.380  10.304   9.489
 5657SOL    HW118810   8.333  10.284   9.409
 5657SOL    HW218811   8.404  10.396   9.480
 5658SOL     OW18812   8.252   0.684  10.267
 5658SOL    HW118813   8.253   0.591  10.245
 5658SOL    HW218814   8.286   0.727  10.188
 5659SOL     OW18815   6.493   2.979   2.774
 5659SOL    HW118816   6.533   2.987   2.688
 5659SOL    HW218817   6.427   3.048   2.778
 5660SOL     OW18818   1.236   6.110   9.669
 5660SOL    HW118819   1.310   6.132   9.613
 5660SOL    HW218820   1.222   6.189   9.722
 5661SOL     OW18821   2.025  12.242   3.050
 5661SOL    HW118822   2.103  12.298   3.042
 5661SOL    HW218823   1.997  12.228   2.959
 5662SOL     OW18824   3.537   5.398   6.375
 5662SOL    HW118825   3.536   5.370   6.467
 5662SOL    HW218826   3.629   5.416   6.356
 5663SOL     OW18827   1.941   8.138  12.033
 5663SOL    HW118828   1.968   8.060  11.985
 5663SOL    HW218829   1.893   8.105  12.108
 5664SOL     OW18830  12.719   8.978   1.610
 5664SOL    HW118831  12.800   9.029   1.621
 5664SOL    HW218832  12.662   9.036   1.559
 5665SOL     OW18833   3.167   7.811   4.856
 5665SOL    HW118834   3.185   7.858   4.938
 5665SOL    HW218835   3.252   7.802   4.814
 5666SOL     OW18836   1.289   0.843  10.161
 5666SOL    HW118837   1.264   0.908  10.096
 5666SOL    HW218838   1.384   0.836  10.152
 5667SOL     OW18839   7.662   3.832   1.644
 5667SOL    HW118840   7.697   3.795   1.563
 5667SOL    HW218841   7.568   3.836   1.629
 5668SOL     OW18842  10.839   1.810  14.269
 5668SOL    HW118843  10.915   1.774  14.315
 5668SOL    HW218844  10.834   1.901  14.298
 5669SOL     OW18845  11.674   8.907   9.814
 5669SOL    HW118846  11.682   8.928   9.721
 5669SOL    HW218847  11.737   8.965   9.857
 5670SOL     OW18848   9.675  10.090   6.150
 5670SOL    HW118849   9.680   9.996   6.133
 5670SOL    HW218850   9.766  10.120   6.142
 5671SOL     OW18851   3.007  10.894   6.559
 5671SOL    HW118852   2.993  10.883   6.653
 5671SOL    HW218853   2.941  10.957   6.532
 5672SOL     OW18854   0.383  12.765   5.350
 5672SOL    HW118855   0.475  12.746   5.371
 5672SOL    HW218856   0.335  12.734   5.427
 5673SOL     OW18857   3.031   2.049  11.374
 5673SOL    HW118858   3.027   2.136  11.414
 5673SOL    HW218859   2.947   2.009  11.397
 5674SOL     OW18860   2.474   6.152  11.410
 5674SOL    HW118861   2.396   6.142  11.355
 5674SOL    HW218862   2.468   6.080  11.473
 5675SOL     OW18863   6.531   5.964   5.074
 5675SOL    HW118864   6.618   5.931   5.095
 5675SOL    HW218865   6.543   6.013   4.992
 5676SOL     OW18866   7.854  11.638   4.248
 5676SOL    HW118867   7.826  11.685   4.327
 5676SOL    HW218868   7.789  11.568   4.238
 5677SOL     OW18869  10.110  12.671   5.536
 5677SOL    HW118870  10.111  12.740   5.602
 5677SOL    HW218871  10.193  12.681   5.489
 5678SOL     OW18872   6.618  12.607   1.650
 5678SOL    HW118873   6.663  12.658   1.582
 5678SOL    HW218874   6.565  12.672   1.697
 5679SOL     OW18875   8.095  13.134   6.946
 5679SOL    HW118876   8.093  13.132   7.041
 5679SOL    HW218877   8.062  13.221   6.923
 5680SOL     OW18878   5.631  12.518  10.285
 5680SOL    HW118879   5.572  12.515  10.360
 5680SOL    HW218880   5.631  12.610  10.258
 5681SOL     OW18881   1.534   4.811  11.646
 5681SOL    HW118882   1.453   4.764  11.666
 5681SOL    HW218883   1.581   4.813  11.730
 5682SOL     OW18884  11.837   1.544  11.126
 5682SOL    HW118885  11.819   1.608  11.196
 5682SOL    HW218886  11.829   1.459  11.170
 5683SOL     OW18887  10.465   9.019   1.018
 5683SOL    HW118888  10.502   8.945   1.067
 5683SOL    HW218889  10.509   9.096   1.054
 5684SOL     OW18890   9.797   3.187   5.942
 5684SOL    HW118891   9.798   3.094   5.919
 5684SOL    HW218892   9.756   3.230   5.866
 5685SOL     OW18893  12.535  13.177  12.919
 5685SOL    HW118894  12.481  13.236  12.866
 5685SOL    HW218895  12.622  13.182  12.881
 5686SOL     OW18896  12.467   4.240   9.351
 5686SOL    HW118897  12.481   4.332   9.375
 5686SOL    HW218898  12.537   4.193   9.397
 5687SOL     OW18899  10.617   9.804   9.609
 5687SOL    HW118900  10.571   9.720   9.606
 5687SOL    HW218901  10.561   9.860   9.663
 5688SOL     OW18902  14.374   3.861   5.601
 5688SOL    HW118903  14.346   3.936   5.653
 5688SOL    HW218904  14.457   3.833   5.641
 5689SOL     OW18905  12.740  13.381  12.022
 5689SOL    HW118906  12.647  13.403  12.024
 5689SOL    HW218907  12.784  13.456  12.060
 5690SOL     OW18908   3.405   6.471  10.056
 5690SOL    HW118909   3.332   6.524  10.024
 5690SOL    HW218910   3.398   6.476  10.152
 5691SOL     OW18911   1.445   7.173  12.524
 5691SOL    HW118912   1.495   7.136  12.596
 5691SOL    HW218913   1.499   7.244  12.490
 5692SOL     OW18914  14.204   4.510   9.755
 5692SOL    HW118915  14.151   4.434   9.733
 5692SOL    HW218916  14.154   4.585   9.723
 5693SOL     OW18917  12.917  11.374   8.766
 5693SOL    HW118918  12.846  11.319   8.733
 5693SOL    HW218919  12.908  11.457   8.720
 5694SOL     OW18920   1.900   6.150  12.926
 5694SOL    HW118921   1.852   6.085  12.874
 5694SOL    HW218922   1.988   6.152  12.887
 5695SOL     OW18923   7.307   1.644   5.964
 5695SOL    HW118924   7.224   1.608   5.996
 5695SOL    HW218925   7.310   1.733   5.997
 5696SOL     OW18926  10.135  14.512  14.543
 5696SOL    HW118927  10.044  14.486  14.556
 5696SOL    HW218928  10.143  14.596  14.587
 5697SOL     OW18929   6.586  10.715   5.025
 5697SOL    HW118930   6.601  10.682   5.114
 5697SOL    HW218931   6.550  10.803   5.038
 5698SOL     OW18932   0.288   1.999   8.413
 5698SOL    HW118933   0.283   2.045   8.329
 5698SOL    HW218934   0.203   1.956   8.422
 5699SOL     OW18935   3.809   8.715   2.517
 5699SOL    HW118936   3.738   8.767   2.553
 5699SOL    HW218937   3.801   8.629   2.559
 5700SOL     OW18938  10.403   4.732  10.063
 5700SOL    HW118939  10.358   4.816  10.066
 5700SOL    HW218940  10.333   4.668  10.048
 5701SOL     OW18941   5.194  11.705  13.136
 5701SOL    HW118942   5.198  11.672  13.046
 5701SOL    HW218943   5.108  11.747  13.141
 5702SOL     OW18944  11.071  11.064   3.513
 5702SOL    HW118945  11.035  11.110   3.588
 5702SOL    HW218946  11.000  11.009   3.481
 5703SOL     OW18947   8.177   3.815  13.360
 5703SOL    HW118948   8.089   3.810  13.322
 5703SOL    HW218949   8.233   3.769  13.298
 5704SOL     OW18950   1.901   5.292   1.703
 5704SOL    HW118951   1.952   5.372   1.696
 5704SOL    HW218952   1.962   5.226   1.738
 5705SOL     OW18953   7.426  12.092   7.384
 5705SOL    HW118954   7.439  12.158   7.316
 5705SOL    HW218955   7.514  12.077   7.420
 5706SOL     OW18956   2.377  11.708   9.924
 5706SOL    HW118957   2.306  11.772   9.932
 5706SOL    HW218958   2.457  11.760   9.936
 5707SOL     OW18959   7.174  10.008  12.861
 5707SOL    HW118960   7.087   9.969  12.870
 5707SOL    HW218961   7.189  10.012  12.766
 5708SOL     OW18962  11.382  10.229  10.118
 5708SOL    HW118963  11.470  10.191  10.115
 5708SOL    HW218964  11.396  10.316  10.156
 5709SOL     OW18965  13.138   0.935   8.928
 5709SOL    HW118966  13.183   0.969   9.006
 5709SOL    HW218967  13.066   0.883   8.962
 5710SOL     OW18968   9.247   2.483  13.588
 5710SOL    HW118969   9.214   2.496  13.499
 5710SOL    HW218970   9.339   2.461  13.576
 5711SOL     OW18971   7.786   2.672   1.259
 5711SOL    HW118972   7.881   2.661   1.267
 5711SOL    HW218973   7.762   2.617   1.185
 5712SOL     OW18974   8.491   8.194  12.420
 5712SOL    HW118975   8.454   8.152  12.343
 5712SOL    HW218976   8.473   8.287  12.408
 5713SOL     OW18977  13.581   3.894  14.554
 5713SOL    HW118978  13.554   3.950  14.626
 5713SOL    HW218979  13.592   3.953  14.479
 5714SOL     OW18980   9.683   6.624   5.842
 5714SOL    HW118981   9.678   6.711   5.803
 5714SOL    HW218982   9.724   6.570   5.774
 5715SOL     OW18983   3.729  11.922   9.197
 5715SOL    HW118984   3.821  11.912   9.174
 5715SOL    HW218985   3.707  11.843   9.247
 5716SOL     OW18986   2.698   5.099  13.991
 5716SOL    HW118987   2.697   5.041  13.914
 5716SOL    HW218988   2.615   5.082  14.035
 5717SOL     OW18989   8.463  10.834   7.017
 5717SOL    HW118990   8.528  10.890   7.060
 5717SOL    HW218991   8.430  10.777   7.087
 5718SOL     OW18992  10.848   2.844   3.676
 5718SOL    HW118993  10.820   2.935   3.690
 5718SOL    HW218994  10.839   2.831   3.581
 5719SOL     OW18995   7.104   3.987  10.093
 5719SOL    HW118996   7.132   4.077  10.108
 5719SOL    HW218997   7.185   3.936  10.093
 5720SOL     OW18998   4.596  14.522  12.650
 5720SOL    HW118999   4.631  14.454  12.593
 5720SOL    HW219000   4.665  14.536  12.716
 5721SOL     OW19001  14.620   7.448  14.256
 5721SOL    HW119002  14.605   7.388  14.183
 5721SOL    HW219003  14.709   7.431  14.284
 5722SOL     OW19004   3.406   4.136  11.553
 5722SOL    HW119005   3.480   4.123  11.494
 5722SOL    HW219006   3.359   4.053  11.551
 5723SOL     OW19007  12.397  12.054  10.811
 5723SOL    HW119008  12.304  12.035  10.821
 5723SOL    HW219009  12.426  11.992  10.744
 5724SOL     OW19010   1.757   6.398   8.650
 5724SOL    HW119011   1.709   6.415   8.569
 5724SOL    HW219012   1.808   6.478   8.664
 5725SOL     OW19013   0.459   2.471   4.126
 5725SOL    HW119014   0.449   2.530   4.200
 5725SOL    HW219015   0.371   2.461   4.090
 5726SOL     OW19016  14.280  10.230  11.851
 5726SOL    HW119017  14.262  10.314  11.895
 5726SOL    HW219018  14.215  10.226  11.781
 5727SOL     OW19019   0.732   2.749   9.272
 5727SOL    HW119020   0.766   2.778   9.188
 5727SOL    HW219021   0.787   2.793   9.338
 5728SOL     OW19022   7.049  10.262   9.620
 5728SOL    HW119023   7.083  10.352   9.626
 5728SOL    HW219024   6.959  10.268   9.652
 5729SOL     OW19025   0.049   9.718   6.728
 5729SOL    HW119026   0.042   9.778   6.802
 5729SOL    HW219027  14.841   9.668   6.730
 5730SOL     OW19028  11.848   3.651   4.083
 5730SOL    HW119029  11.879   3.700   4.160
 5730SOL    HW219030  11.762   3.618   4.108
 5731SOL     OW19031  12.860  10.049   6.952
 5731SOL    HW119032  12.877  10.020   7.041
 5731SOL    HW219033  12.804  10.126   6.962
 5732SOL     OW19034  13.815   3.024   6.967
 5732SOL    HW119035  13.815   3.032   7.062
 5732SOL    HW219036  13.747   3.086   6.939
 5733SOL     OW19037  10.058  11.882   5.579
 5733SOL    HW119038  10.125  11.934   5.625
 5733SOL    HW219039  10.007  11.947   5.530
 5734SOL     OW19040  14.621   5.267   3.486
 5734SOL    HW119041  14.658   5.354   3.499
 5734SOL    HW219042  14.527   5.282   3.474
 5735SOL     OW19043   6.264  11.898   4.857
 5735SOL    HW119044   6.331  11.854   4.909
 5735SOL    HW219045   6.285  11.874   4.767
 5736SOL     OW19046   6.489  14.005   8.419
 5736SOL    HW119047   6.507  13.943   8.349
 5736SOL    HW219048   6.575  14.032   8.451
 5737SOL     OW19049   4.114   5.539   3.105
 5737SOL    HW119050   4.057   5.476   3.061
 5737SOL    HW219051   4.145   5.493   3.183
 5738SOL     OW19052  12.032   3.398   7.039
 5738SOL    HW119053  12.100   3.350   7.087
 5738SOL    HW219054  11.974   3.431   7.106
 5739SOL     OW19055   6.773  14.166   7.456
 5739SOL    HW119056   6.829  14.136   7.384
 5739SOL    HW219057   6.821  14.141   7.535
 5740SOL     OW19058   3.545  12.829   6.324
 5740SOL    HW119059   3.509  12.808   6.238
 5740SOL    HW219060   3.620  12.886   6.306
 5741SOL     OW19061  10.550   5.324   2.089
 5741SOL    HW119062  10.544   5.420   2.089
 5741SOL    HW219063  10.577   5.303   2.000
 5742SOL     OW19064   0.697  13.003   3.612
 5742SOL    HW119065   0.693  12.956   3.695
 5742SOL    HW219066   0.758  12.953   3.558
 5743SOL     OW19067   7.768  13.338   8.714
 5743SOL    HW119068   7.758  13.419   8.664
 5743SOL    HW219069   7.838  13.291   8.669
 5744SOL     OW19070   4.755   6.647  11.540
 5744SOL    HW119071   4.738   6.560  11.502
 5744SOL    HW219072   4.713   6.643  11.626
 5745SOL     OW19073   9.199   9.205   9.535
 5745SOL    HW119074   9.292   9.187   9.547
 5745SOL    HW219075   9.169   9.228   9.623
 5746SOL     OW19076   5.988   9.701   1.714
 5746SOL    HW119077   6.004   9.791   1.742
 5746SOL    HW219078   5.902   9.704   1.671
 5747SOL     OW19079   2.478  14.479   0.773
 5747SOL    HW119080   2.565  14.465   0.810
 5747SOL    HW219081   2.436  14.393   0.775
 5748SOL     OW19082   3.595   8.655   1.419
 5748SOL    HW119083   3.569   8.730   1.365
 5748SOL    HW219084   3.541   8.663   1.498
 5749SOL     OW19085  11.612  14.518   8.257
 5749SOL    HW119086  11.659  14.587   8.210
 5749SOL    HW219087  11.666  14.501   8.334
 5750SOL     OW19088  12.047  14.419  13.942
 5750SOL    HW119089  12.132  14.442  13.904
 5750SOL    HW219090  11.986  14.483  13.904
 5751SOL     OW19091   6.291   7.078  13.922
 5751SOL    HW119092   6.293   7.101  13.829
 5751SOL    HW219093   6.260   6.988  13.925
 5752SOL     OW19094   1.396  12.348   8.607
 5752SOL    HW119095   1.312  12.302   8.600
 5752SOL    HW219096   1.456  12.297   8.552
 5753SOL     OW19097   1.222  13.220   3.731
 5753SOL    HW119098   1.250  13.132   3.704
 5753SOL    HW219099   1.263  13.233   3.816
 5754SOL     OW19100   5.825   8.917   2.475
 5754SOL    HW119101   5.785   8.907   2.562
 5754SOL    HW219102   5.911   8.875   2.484
 5755SOL     OW19103  11.900   8.537  11.248
 5755SOL    HW119104  11.914   8.463  11.308
 5755SOL    HW219105  11.819   8.516  11.202
 5756SOL     OW19106   1.172   4.921  11.378
 5756SOL    HW119107   1.175   4.911  11.283
 5756SOL    HW219108   1.251   4.970  11.400
 5757SOL     OW19109   9.588   7.101   0.411
 5757SOL    HW119110   9.599   7.020   0.362
 5757SOL    HW219111   9.507   7.089   0.460
 5758SOL     OW19112  11.273   0.037   7.604
 5758SOL    HW119113  11.281   0.061   7.696
 5758SOL    HW219114  11.320  14.828   7.596
 5759SOL     OW19115   3.186  14.546  10.848
 5759SOL    HW119116   3.217  14.618  10.794
 5759SOL    HW219117   3.095  14.532  10.821
 5760SOL     OW19118  11.139  14.330  10.236
 5760SOL    HW119119  11.136  14.363  10.146
 5760SOL    HW219120  11.091  14.395  10.287
 5761SOL     OW19121   8.493   7.739   7.405
 5761SOL    HW119122   8.571   7.705   7.362
 5761SOL    HW219123   8.514   7.831   7.422
 5762SOL     OW19124   2.062   0.752   8.728
 5762SOL    HW119125   2.002   0.681   8.752
 5762SOL    HW219126   2.127   0.710   8.671
 5763SOL     OW19127   8.663   6.966  13.782
 5763SOL    HW119128   8.614   7.025  13.724
 5763SOL    HW219129   8.616   6.883  13.778
 5764SOL     OW19130   9.416   9.964   3.332
 5764SOL    HW119131   9.510   9.980   3.327
 5764SOL    HW219132   9.408   9.874   3.363
 5765SOL     OW19133  10.828   7.559   8.313
 5765SOL    HW119134  10.921   7.567   8.291
 5765SOL    HW219135  10.794   7.495   8.250
 5766SOL     OW19136   1.119   8.300   6.615
 5766SOL    HW119137   1.032   8.287   6.579
 5766SOL    HW219138   1.134   8.394   6.611
 5767SOL     OW19139  13.750  12.921  10.476
 5767SOL    HW119140  13.748  12.828  10.496
 5767SOL    HW219141  13.834  12.934  10.432
 5768SOL     OW19142   4.098   8.364   7.488
 5768SOL    HW119143   4.122   8.274   7.507
 5768SOL    HW219144   4.149   8.416   7.551
 5769SOL     OW19145  11.881   4.350   4.224
 5769SOL    HW119146  11.793   4.386   4.211
 5769SOL    HW219147  11.917   4.402   4.296
 5770SOL     OW19148  11.848   4.919  11.490
 5770SOL    HW119149  11.910   4.972  11.540
 5770SOL    HW219150  11.865   4.941  11.399
 5771SOL     OW19151   4.576   8.109   3.610
 5771SOL    HW119152   4.533   8.138   3.529
 5771SOL    HW219153   4.514   8.050   3.652
 5772SOL     OW19154  10.693   8.625  12.165
 5772SOL    HW119155  10.656   8.575  12.093
 5772SOL    HW219156  10.627   8.622  12.233
 5773SOL     OW19157   8.963  11.788   0.673
 5773SOL    HW119158   8.880  11.763   0.631
 5773SOL    HW219159   9.028  11.733   0.630
 5774SOL     OW19160  14.322   3.055   2.873
 5774SOL    HW119161  14.227   3.053   2.862
 5774SOL    HW219162  14.352   2.971   2.839
 5775SOL     OW19163  12.792   0.680  14.710
 5775SOL    HW119164  12.808   0.633  14.792
 5775SOL    HW219165  12.848   0.758  14.716
 5776SOL     OW19166  10.705   6.610   6.226
 5776SOL    HW119167  10.714   6.518   6.248
 5776SOL    HW219168  10.748   6.657   6.297
 5777SOL     OW19169   3.874   5.264  10.467
 5777SOL    HW119170   3.916   5.295  10.387
 5777SOL    HW219171   3.780   5.266  10.448
 5778SOL     OW19172   2.533   8.313  11.730
 5778SOL    HW119173   2.557   8.257  11.656
 5778SOL    HW219174   2.438   8.318  11.726
 5779SOL     OW19175  13.752  11.729  11.381
 5779SOL    HW119176  13.723  11.777  11.458
 5779SOL    HW219177  13.680  11.735  11.319
 5780SOL     OW19178   1.406   6.419   0.612
 5780SOL    HW119179   1.460   6.352   0.653
 5780SOL    HW219180   1.440   6.502   0.646
 5781SOL     OW19181   7.200   9.983   1.035
 5781SOL    HW119182   7.218  10.073   1.063
 5781SOL    HW219183   7.268   9.964   0.971
 5782SOL     OW19184  12.386  11.946   0.283
 5782SOL    HW119185  12.456  11.975   0.224
 5782SOL    HW219186  12.432  11.904   0.355
 5783SOL     OW19187   2.282   2.414   2.279
 5783SOL    HW119188   2.324   2.355   2.216
 5783SOL    HW219189   2.337   2.493   2.278
 5784SOL     OW19190  13.850   2.591   2.911
 5784SOL    HW119191  13.849   2.495   2.912
 5784SOL    HW219192  13.801   2.615   2.832
 5785SOL     OW19193   6.153  12.726   9.077
 5785SOL    HW119194   6.224  12.662   9.079
 5785SOL    HW219195   6.099  12.700   9.002
 5786SOL     OW19196   6.149   4.160   6.483
 5786SOL    HW119197   6.108   4.221   6.421
 5786SOL    HW219198   6.241   4.184   6.482
 5787SOL     OW19199  14.732   7.992   9.547
 5787SOL    HW119200  14.809   8.014   9.599
 5787SOL    HW219201  14.682   7.932   9.603
 5788SOL     OW19202  10.756   2.353  10.356
 5788SOL    HW119203  10.828   2.313  10.308
 5788SOL    HW219204  10.722   2.421  10.298
 5789SOL     OW19205   1.512  11.419   0.583
 5789SOL    HW119206   1.520  11.506   0.621
 5789SOL    HW219207   1.547  11.428   0.495
 5790SOL     OW19208   8.656   7.843   5.870
 5790SOL    HW119209   8.612   7.820   5.953
 5790SOL    HW219210   8.644   7.766   5.815
 5791SOL     OW19211   8.270   6.514   2.117
 5791SOL    HW119212   8.228   6.539   2.198
 5791SOL    HW219213   8.213   6.447   2.080
 5792SOL     OW19214  14.102   1.474  12.068
 5792SOL    HW119215  14.149   1.395  12.094
 5792SOL    HW219216  14.171   1.533  12.036
 5793SOL     OW19217   9.954   0.126  14.663
 5793SOL    HW119218   9.986   0.040  14.692
 5793SOL    HW219219   9.987   0.187  14.728
 5794SOL     OW19220  10.059   0.429  11.639
 5794SOL    HW119221   9.971   0.468  11.649
 5794SOL    HW219222  10.057   0.351  11.694
 5795SOL     OW19223  14.615   2.141  13.524
 5795SOL    HW119224  14.573   2.156  13.609
 5795SOL    HW219225  14.604   2.047  13.508
 5796SOL     OW19226  12.915   3.514   7.753
 5796SOL    HW119227  12.983   3.580   7.753
 5796SOL    HW219228  12.876   3.520   7.840
 5797SOL     OW19229   3.686   8.522   4.943
 5797SOL    HW119230   3.671   8.447   5.000
 5797SOL    HW219231   3.613   8.520   4.880
 5798SOL     OW19232   6.352   9.374  14.805
 5798SOL    HW119233   6.303   9.416  14.734
 5798SOL    HW219234   6.443   9.383  14.779
 5799SOL     OW19235  13.064   5.457   8.965
 5799SOL    HW119236  13.089   5.440   9.057
 5799SOL    HW219237  13.125   5.524   8.936
 5800SOL     OW19238   0.223  12.743   5.145
 5800SOL    HW119239   0.149  12.797   5.172
 5800SOL    HW219240   0.282  12.743   5.221
 5801SOL     OW19241   7.688  12.318  10.680
 5801SOL    HW119242   7.682  12.388  10.616
 5801SOL    HW219243   7.763  12.265  10.651
 5802SOL     OW19244   9.860   2.383   6.736
 5802SOL    HW119245   9.907   2.462   6.762
 5802SOL    HW219246   9.831   2.344   6.818
 5803SOL     OW19247  13.717   3.374   0.213
 5803SOL    HW119248  13.656   3.429   0.262
 5803SOL    HW219249  13.683   3.375   0.124
 5804SOL     OW19250  13.565  10.315   6.471
 5804SOL    HW119251  13.608  10.386   6.423
 5804SOL    HW219252  13.526  10.358   6.547
 5805SOL     OW19253   3.674   3.635   9.488
 5805SOL    HW119254   3.665   3.730   9.482
 5805SOL    HW219255   3.659   3.615   9.581
 5806SOL     OW19256  11.576  10.055  12.599
 5806SOL    HW119257  11.528  10.137  12.611
 5806SOL    HW219258  11.561  10.006  12.680
 5807SOL     OW19259  13.683   1.071  14.646
 5807SOL    HW119260  13.755   1.009  14.631
 5807SOL    HW219261  13.725   1.156  14.650
 5808SOL     OW19262   4.876   9.329   3.810
 5808SOL    HW119263   4.937   9.344   3.737
 5808SOL    HW219264   4.884   9.235   3.827
 5809SOL     OW19265   6.284   2.680   6.362
 5809SOL    HW119266   6.360   2.711   6.410
 5809SOL    HW219267   6.320   2.632   6.287
 5810SOL     OW19268  14.620  13.816   6.052
 5810SOL    HW119269  14.673  13.738   6.061
 5810SOL    HW219270  14.683  13.888   6.043
 5811SOL     OW19271  13.593  12.284   6.167
 5811SOL    HW119272  13.643  12.203   6.167
 5811SOL    HW219273  13.638  12.340   6.105
 5812SOL     OW19274   5.792   1.408   8.728
 5812SOL    HW119275   5.851   1.483   8.729
 5812SOL    HW219276   5.832   1.346   8.788
 5813SOL     OW19277  12.258  13.632   1.496
 5813SOL    HW119278  12.238  13.639   1.403
 5813SOL    HW219279  12.344  13.590   1.499
 5814SOL     OW19280   2.819   1.412   8.344
 5814SOL    HW119281   2.864   1.340   8.388
 5814SOL    HW219282   2.768   1.369   8.275
 5815SOL     OW19283  10.292  12.131  11.002
 5815SOL    HW119284  10.291  12.204  11.064
 5815SOL    HW219285  10.208  12.135  10.958
 5816SOL     OW19286   7.864   0.876   0.459
 5816SOL    HW119287   7.797   0.835   0.514
 5816SOL    HW219288   7.860   0.828   0.376
 5817SOL     OW19289   1.464  10.110   7.800
 5817SOL    HW119290   1.392  10.073   7.850
 5817SOL    HW219291   1.425  10.183   7.752
 5818SOL     OW19292  14.004  13.618   9.051
 5818SOL    HW119293  13.992  13.534   9.095
 5818SOL    HW219294  14.093  13.616   9.018
 5819SOL     OW19295   8.907   9.873  12.854
 5819SOL    HW119296   8.951   9.808  12.909
 5819SOL    HW219297   8.976   9.905  12.796
 5820SOL     OW19298  10.369   9.256  11.739
 5820SOL    HW119299  10.308   9.249  11.812
 5820SOL    HW219300  10.422   9.177  11.744
 5821SOL     OW19301   9.054   7.279   5.396
 5821SOL    HW119302   8.961   7.265   5.381
 5821SOL    HW219303   9.097   7.210   5.345
 5822SOL     OW19304  14.271   3.983   8.776
 5822SOL    HW119305  14.248   4.035   8.699
 5822SOL    HW219306  14.208   3.911   8.776
 5823SOL     OW19307  14.329   4.835  13.797
 5823SOL    HW119308  14.419   4.849  13.770
 5823SOL    HW219309  14.292   4.779  13.729
 5824SOL     OW19310   0.773   4.222  10.231
 5824SOL    HW119311   0.737   4.289  10.288
 5824SOL    HW219312   0.805   4.154  10.290
 5825SOL     OW19313   4.264   9.303  11.770
 5825SOL    HW119314   4.193   9.316  11.834
 5825SOL    HW219315   4.342   9.335  11.815
 5826SOL     OW19316  12.296  11.041  13.837
 5826SOL    HW119317  12.362  11.026  13.769
 5826SOL    HW219318  12.331  10.996  13.914
 5827SOL     OW19319  14.260   1.466   1.012
 5827SOL    HW119320  14.175   1.426   1.032
 5827SOL    HW219321  14.299   1.485   1.098
 5828SOL     OW19322   2.319  11.356   6.458
 5828SOL    HW119323   2.330  11.314   6.372
 5828SOL    HW219324   2.388  11.422   6.462
 5829SOL     OW19325   9.848   3.891   6.149
 5829SOL    HW119326   9.877   3.981   6.134
 5829SOL    HW219327   9.756   3.900   6.175
 5830SOL     OW19328   0.389   3.181   1.811
 5830SOL    HW119329   0.373   3.266   1.851
 5830SOL    HW219330   0.334   3.180   1.733
 5831SOL     OW19331  12.065  14.115  13.714
 5831SOL    HW119332  12.044  14.025  13.739
 5831SOL    HW219333  12.144  14.135  13.763
 5832SOL     OW19334   3.421  14.356   5.046
 5832SOL    HW119335   3.398  14.369   4.954
 5832SOL    HW219336   3.512  14.383   5.053
 5833SOL     OW19337   0.908   2.712   4.932
 5833SOL    HW119338   0.937   2.676   4.848
 5833SOL    HW219339   0.986   2.752   4.970
 5834SOL     OW19340   4.654   6.958   2.209
 5834SOL    HW119341   4.638   6.996   2.122
 5834SOL    HW219342   4.704   6.879   2.191
 5835SOL     OW19343   9.326  14.683   9.339
 5835SOL    HW119344   9.306  14.735   9.261
 5835SOL    HW219345   9.243  14.641   9.361
 5836SOL     OW19346   9.024  12.333  14.858
 5836SOL    HW119347   8.962  12.359   0.053
 5836SOL    HW219348   9.110  12.335   0.028
 5837SOL     OW19349  10.039   8.804   5.272
 5837SOL    HW119350  10.066   8.739   5.338
 5837SOL    HW219351  10.121   8.840   5.239
 5838SOL     OW19352   8.687   1.711   2.691
 5838SOL    HW119353   8.653   1.732   2.778
 5838SOL    HW219354   8.715   1.620   2.697
 5839SOL     OW19355   6.388   0.978  10.582
 5839SOL    HW119356   6.302   1.018  10.574
 5839SOL    HW219357   6.432   0.999  10.499
 5840SOL     OW19358   3.551   4.264   4.706
 5840SOL    HW119359   3.464   4.229   4.689
 5840SOL    HW219360   3.537   4.340   4.763
 5841SOL     OW19361   8.828   0.476   8.119
 5841SOL    HW119362   8.756   0.416   8.099
 5841SOL    HW219363   8.832   0.478   8.214
 5842SOL     OW19364   5.917   3.598  10.984
 5842SOL    HW119365   5.904   3.536  10.913
 5842SOL    HW219366   5.832   3.643  10.993
 5843SOL     OW19367   1.224   2.681   5.515
 5843SOL    HW119368   1.281   2.604   5.517
 5843SOL    HW219369   1.273   2.749   5.560
 5844SOL     OW19370   2.425   8.963   0.765
 5844SOL    HW119371   2.387   8.900   0.704
 5844SOL    HW219372   2.360   9.034   0.770
 5845SOL     OW19373   6.837  13.263   6.002
 5845SOL    HW119374   6.907  13.239   5.942
 5845SOL    HW219375   6.802  13.178   6.032
 5846SOL     OW19376  10.296  14.000   9.665
 5846SOL    HW119377  10.219  13.985   9.610
 5846SOL    HW219378  10.262  14.042   9.744
 5847SOL     OW19379   3.287   2.481   9.678
 5847SOL    HW119380   3.249   2.416   9.738
 5847SOL    HW219381   3.216   2.544   9.664
 5848SOL     OW19382   9.962   5.123   0.477
 5848SOL    HW119383   9.965   5.028   0.471
 5848SOL    HW219384   9.884   5.148   0.428
 5849SOL     OW19385   4.778   6.183   5.385
 5849SOL    HW119386   4.759   6.164   5.477
 5849SOL    HW219387   4.701   6.230   5.353
 5850SOL     OW19388  14.188   8.044   2.476
 5850SOL    HW119389  14.139   7.994   2.541
 5850SOL    HW219390  14.200   7.983   2.403
 5851SOL     OW19391  10.794  12.292  13.090
 5851SOL    HW119392  10.807  12.205  13.129
 5851SOL    HW219393  10.755  12.344  13.160
 5852SOL     OW19394  11.833   0.617  12.737
 5852SOL    HW119395  11.835   0.698  12.788
 5852SOL    HW219396  11.867   0.550  12.796
 5853SOL     OW19397   8.239   3.373   3.351
 5853SOL    HW119398   8.281   3.287   3.342
 5853SOL    HW219399   8.306   3.429   3.389
 5854SOL     OW19400   0.805  13.972   8.949
 5854SOL    HW119401   0.760  13.990   8.866
 5854SOL    HW219402   0.887  13.930   8.923
 5855SOL     OW19403   8.009   5.835   8.129
 5855SOL    HW119404   7.958   5.869   8.203
 5855SOL    HW219405   7.945   5.788   8.076
 5856SOL     OW19406   8.247  13.913  11.034
 5856SOL    HW119407   8.246  13.864  10.952
 5856SOL    HW219408   8.293  13.994  11.013
 5857SOL     OW19409   0.355   1.696   0.470
 5857SOL    HW119410   0.432   1.752   0.463
 5857SOL    HW219411   0.388   1.608   0.449
 5858SOL     OW19412  10.934  10.162  14.322
 5858SOL    HW119413  10.840  10.153  14.312
 5858SOL    HW219414  10.948  10.164  14.417
 5859SOL     OW19415  11.710   2.696   3.256
 5859SOL    HW119416  11.794   2.650   3.251
 5859SOL    HW219417  11.645   2.626   3.261
 5860SOL     OW19418   1.669   5.735   3.950
 5860SOL    HW119419   1.616   5.784   3.888
 5860SOL    HW219420   1.605   5.683   4.000
 5861SOL     OW19421   0.971   8.633  14.379
 5861SOL    HW119422   0.937   8.576  14.448
 5861SOL    HW219423   1.066   8.632  14.392
 5862SOL     OW19424  10.517  12.174   7.408
 5862SOL    HW119425  10.553  12.106   7.352
 5862SOL    HW219426  10.492  12.244   7.348
 5863SOL     OW19427  10.904   7.942   2.520
 5863SOL    HW119428  10.850   7.938   2.599
 5863SOL    HW219429  10.928   8.034   2.514
 5864SOL     OW19430  10.247   1.666   3.600
 5864SOL    HW119431  10.261   1.645   3.508
 5864SOL    HW219432  10.191   1.595   3.633
 5865SOL     OW19433   8.474   3.746  10.123
 5865SOL    HW119434   8.526   3.687  10.068
 5865SOL    HW219435   8.534   3.819  10.143
 5866SOL     OW19436  11.627  14.637   9.160
 5866SOL    HW119437  11.653  14.564   9.217
 5866SOL    HW219438  11.690  14.706   9.180
 5867SOL     OW19439  11.170  10.084   4.031
 5867SOL    HW119440  11.257  10.086   4.070
 5867SOL    HW219441  11.126  10.162   4.065
 5868SOL     OW19442   4.210  11.490   0.256
 5868SOL    HW119443   4.198  11.558   0.322
 5868SOL    HW219444   4.286  11.440   0.286
 5869SOL     OW19445   2.654   9.030   0.007
 5869SOL    HW119446   2.563   9.014   0.033
 5869SOL    HW219447   2.698   8.946   0.022
 5870SOL     OW19448  10.965   3.006   2.719
 5870SOL    HW119449  11.011   3.043   2.643
 5870SOL    HW219450  10.894   2.954   2.682
 5871SOL     OW19451   2.044  14.558   0.488
 5871SOL    HW119452   2.010  14.635   0.441
 5871SOL    HW219453   2.131  14.584   0.518
 5872SOL     OW19454   5.129  11.739  13.962
 5872SOL    HW119455   5.071  11.663  13.970
 5872SOL    HW219456   5.116  11.770  13.873
 5873SOL     OW19457  11.450  13.352  14.418
 5873SOL    HW119458  11.401  13.269  14.418
 5873SOL    HW219459  11.512  13.343  14.490
 5874SOL     OW19460   3.735   9.386   2.716
 5874SOL    HW119461   3.683   9.316   2.755
 5874SOL    HW219462   3.824   9.351   2.712
 5875SOL     OW19463   7.934  14.356   1.249
 5875SOL    HW119464   8.017  14.332   1.208
 5875SOL    HW219465   7.951  14.350   1.343
 5876SOL     OW19466   5.869   2.114   6.446
 5876SOL    HW119467   5.896   2.071   6.527
 5876SOL    HW219468   5.929   2.188   6.437
 5877SOL     OW19469   6.876  10.864  14.728
 5877SOL    HW119470   6.896  10.791  14.787
 5877SOL    HW219471   6.800  10.834  14.678
 5878SOL     OW19472   5.647   2.677   5.264
 5878SOL    HW119473   5.570   2.633   5.229
 5878SOL    HW219474   5.634   2.674   5.359
 5879SOL     OW19475   0.636  12.976   6.075
 5879SOL    HW119476   0.701  13.011   6.014
 5879SOL    HW219477   0.554  13.019   6.050
 5880SOL     OW19478   0.802   4.753   6.896
 5880SOL    HW119479   0.726   4.700   6.874
 5880SOL    HW219480   0.828   4.793   6.813
 5881SOL     OW19481   2.259   1.496   8.429
 5881SOL    HW119482   2.346   1.457   8.431
 5881SOL    HW219483   2.275   1.590   8.437
 5882SOL     OW19484   9.568   5.103  13.188
 5882SOL    HW119485   9.626   5.067  13.255
 5882SOL    HW219486   9.510   5.031  13.164
 5883SOL     OW19487  14.660  10.473   0.942
 5883SOL    HW119488  14.607  10.474   1.022
 5883SOL    HW219489  14.689  10.382   0.934
 5884SOL     OW19490   5.197  14.785   3.602
 5884SOL    HW119491   5.126  14.727   3.574
 5884SOL    HW219492   5.208  14.765   3.695
 5885SOL     OW19493  12.422   5.191   5.185
 5885SOL    HW119494  12.361   5.216   5.255
 5885SOL    HW219495  12.460   5.109   5.215
 5886SOL     OW19496   8.884  10.108   2.042
 5886SOL    HW119497   8.937  10.148   1.973
 5886SOL    HW219498   8.945  10.050   2.088
 5887SOL     OW19499   1.861  11.554   4.114
 5887SOL    HW119500   1.852  11.463   4.085
 5887SOL    HW219501   1.925  11.550   4.185
 5888SOL     OW19502   9.158   4.889   3.139
 5888SOL    HW119503   9.066   4.871   3.121
 5888SOL    HW219504   9.159   4.979   3.172
 5889SOL     OW19505   8.258   9.203  10.258
 5889SOL    HW119506   8.251   9.113  10.289
 5889SOL    HW219507   8.311   9.197  10.179
 5890SOL     OW19508   6.526   4.511   8.138
 5890SOL    HW119509   6.527   4.542   8.048
 5890SOL    HW219510   6.615   4.478   8.153
 5891SOL     OW19511   8.548   4.983   9.885
 5891SOL    HW119512   8.541   5.047   9.955
 5891SOL    HW219513   8.638   4.990   9.854
 5892SOL     OW19514   5.721   2.471  13.253
 5892SOL    HW119515   5.635   2.430  13.243
 5892SOL    HW219516   5.713   2.555  13.208
 5893SOL     OW19517   5.628  11.959  14.159
 5893SOL    HW119518   5.708  11.950  14.106
 5893SOL    HW219519   5.633  11.889  14.224
 5894SOL     OW19520  12.186   9.131  14.666
 5894SOL    HW119521  12.215   9.062  14.606
 5894SOL    HW219522  12.116   9.090  14.717
 5895SOL     OW19523  12.022  10.209  11.396
 5895SOL    HW119524  11.942  10.225  11.446
 5895SOL    HW219525  12.038  10.115  11.404
 5896SOL     OW19526   7.758  13.922  13.017
 5896SOL    HW119527   7.774  13.997  13.074
 5896SOL    HW219528   7.778  13.846  13.072
 5897SOL     OW19529  12.077  10.635  14.752
 5897SOL    HW119530  11.985  10.645  14.775
 5897SOL    HW219531  12.081  10.552  14.705
 5898SOL     OW19532  13.694   8.718   7.695
 5898SOL    HW119533  13.779   8.752   7.666
 5898SOL    HW219534  13.663   8.665   7.622
 5899SOL     OW19535   3.912   8.697   8.901
 5899SOL    HW119536   3.924   8.694   8.996
 5899SOL    HW219537   3.953   8.779   8.874
 5900SOL     OW19538   7.988   8.765   0.864
 5900SOL    HW119539   8.041   8.783   0.942
 5900SOL    HW219540   7.900   8.793   0.888
 5901SOL     OW19541  14.292   8.486   2.697
 5901SOL    HW119542  14.365   8.502   2.638
 5901SOL    HW219543  14.253   8.405   2.666
 5902SOL     OW19544   7.477  12.294  12.970
 5902SOL    HW119545   7.482  12.362  12.903
 5902SOL    HW219546   7.468  12.212  12.921
 5903SOL     OW19547   1.230  13.194   2.437
 5903SOL    HW119548   1.315  13.201   2.480
 5903SOL    HW219549   1.216  13.100   2.426
 5904SOL     OW19550   4.908   9.560  13.823
 5904SOL    HW119551   4.982   9.500  13.823
 5904SOL    HW219552   4.877   9.561  13.914
 5905SOL     OW19553  12.835  12.216   7.577
 5905SOL    HW119554  12.781  12.141   7.600
 5905SOL    HW219555  12.902  12.220   7.645
 5906SOL     OW19556   9.414   7.808   4.543
 5906SOL    HW119557   9.387   7.783   4.455
 5906SOL    HW219558   9.349   7.871   4.572
 5907SOL     OW19559   5.144   7.876  12.039
 5907SOL    HW119560   5.201   7.854  12.112
 5907SOL    HW219561   5.064   7.908  12.080
 5908SOL     OW19562  14.255  14.587   7.227
 5908SOL    HW119563  14.236  14.525   7.156
 5908SOL    HW219564  14.217  14.547   7.305
 5909SOL     OW19565  14.230  10.522  13.212
 5909SOL    HW119566  14.223  10.604  13.165
 5909SOL    HW219567  14.288  10.468  13.158
 5910SOL     OW19568   3.744   3.833   6.624
 5910SOL    HW119569   3.716   3.922   6.645
 5910SOL    HW219570   3.783   3.839   6.537
 5911SOL     OW19571  13.517  10.161   2.417
 5911SOL    HW119572  13.517  10.160   2.513
 5911SOL    HW219573  13.433  10.200   2.393
 5912SOL     OW19574   0.184   2.476   6.233
 5912SOL    HW119575   0.121   2.411   6.265
 5912SOL    HW219576   0.269   2.432   6.239
 5913SOL     OW19577   0.366   5.188   6.010
 5913SOL    HW119578   0.277   5.192   5.976
 5913SOL    HW219579   0.421   5.173   5.933
 5914SOL     OW19580  13.297   8.359   6.944
 5914SOL    HW119581  13.274   8.425   7.010
 5914SOL    HW219582  13.352   8.296   6.992
 5915SOL     OW19583   8.766  12.787  11.755
 5915SOL    HW119584   8.728  12.724  11.693
 5915SOL    HW219585   8.694  12.846  11.777
 5916SOL     OW19586   4.132   9.110   3.767
 5916SOL    HW119587   4.062   9.133   3.707
 5916SOL    HW219588   4.113   9.159   3.847
 5917SOL     OW19589  13.694   0.799   5.189
 5917SOL    HW119590  13.654   0.801   5.276
 5917SOL    HW219591  13.739   0.715   5.186
 5918SOL     OW19592   1.790  13.771   3.701
 5918SOL    HW119593   1.865  13.809   3.655
 5918SOL    HW219594   1.767  13.693   3.651
 5919SOL     OW19595   1.878  10.719  12.898
 5919SOL    HW119596   1.824  10.792  12.869
 5919SOL    HW219597   1.950  10.759  12.947
 5920SOL     OW19598   9.683   2.341  13.715
 5920SOL    HW119599   9.777   2.354  13.727
 5920SOL    HW219600   9.644   2.379  13.794
 5921SOL     OW19601  14.215  14.158  10.715
 5921SOL    HW119602  14.216  14.235  10.659
 5921SOL    HW219603  14.199  14.192  10.803
 5922SOL     OW19604   1.290   0.144   9.835
 5922SOL    HW119605   1.350   0.217   9.818
 5922SOL    HW219606   1.214   0.163   9.781
 5923SOL     OW19607  12.256   2.580  12.425
 5923SOL    HW119608  12.165   2.552  12.431
 5923SOL    HW219609  12.302   2.525  12.489
 5924SOL     OW19610   7.514   7.861  13.465
 5924SOL    HW119611   7.426   7.842  13.497
 5924SOL    HW219612   7.552   7.775  13.446
 5925SOL     OW19613  10.176  14.455   1.142
 5925SOL    HW119614  10.081  14.461   1.146
 5925SOL    HW219615  10.196  14.442   1.049
 5926SOL     OW19616   8.279   1.241   3.261
 5926SOL    HW119617   8.347   1.249   3.193
 5926SOL    HW219618   8.197   1.248   3.213
 5927SOL     OW19619   4.844   6.234   7.614
 5927SOL    HW119620   4.931   6.225   7.575
 5927SOL    HW219621   4.828   6.150   7.657
 5928SOL     OW19622   2.580   4.327   6.978
 5928SOL    HW119623   2.495   4.298   6.946
 5928SOL    HW219624   2.638   4.253   6.963
 5929SOL     OW19625   1.347   4.159  10.454
 5929SOL    HW119626   1.369   4.066  10.446
 5929SOL    HW219627   1.351   4.193  10.365
 5930SOL     OW19628   2.253   0.204   1.304
 5930SOL    HW119629   2.269   0.234   1.214
 5930SOL    HW219630   2.187   0.265   1.338
 5931SOL     OW19631   2.996   0.427   2.934
 5931SOL    HW119632   2.986   0.521   2.948
 5931SOL    HW219633   2.956   0.387   3.011
 5932SOL     OW19634  11.386   0.188  11.572
 5932SOL    HW119635  11.329   0.180  11.496
 5932SOL    HW219636  11.437   0.107  11.571
 5933SOL     OW19637  13.675   5.732  11.516
 5933SOL    HW119638  13.602   5.789  11.539
 5933SOL    HW219639  13.710   5.769  11.435
 5934SOL     OW19640   4.420   9.012   4.260
 5934SOL    HW119641   4.513   9.032   4.256
 5934SOL    HW219642   4.401   9.003   4.354
 5935SOL     OW19643  11.434  11.005   5.751
 5935SOL    HW119644  11.362  10.943   5.732
 5935SOL    HW219645  11.400  11.090   5.724
 5936SOL     OW19646   4.789   7.229   1.125
 5936SOL    HW119647   4.882   7.211   1.115
 5936SOL    HW219648   4.784   7.323   1.145
 5937SOL     OW19649   0.514  11.981  13.301
 5937SOL    HW119650   0.587  11.933  13.341
 5937SOL    HW219651   0.512  12.064  13.347
 5938SOL     OW19652   6.521   6.460  14.488
 5938SOL    HW119653   6.577   6.457  14.566
 5938SOL    HW219654   6.432   6.462  14.522
 5939SOL     OW19655   0.687  11.455   5.760
 5939SOL    HW119656   0.779  11.431   5.768
 5939SOL    HW219657   0.680  11.537   5.808
 5940SOL     OW19658   6.958   2.129  10.059
 5940SOL    HW119659   7.045   2.169  10.056
 5940SOL    HW219660   6.976   2.034  10.060
 5941SOL     OW19661   8.138  11.413   0.079
 5941SOL    HW119662   8.180  11.488   0.037
 5941SOL    HW219663   8.206  11.346   0.082
 5942SOL     OW19664   1.163   6.896   6.580
 5942SOL    HW119665   1.191   6.811   6.546
 5942SOL    HW219666   1.105   6.931   6.512
 5943SOL     OW19667   0.766  11.041   3.335
 5943SOL    HW119668   0.787  11.108   3.400
 5943SOL    HW219669   0.849  11.025   3.290
 5944SOL     OW19670   9.410   5.944   0.811
 5944SOL    HW119671   9.333   5.914   0.763
 5944SOL    HW219672   9.405   6.040   0.808
 5945SOL     OW19673   1.088  11.646   8.925
 5945SOL    HW119674   0.995  11.654   8.943
 5945SOL    HW219675   1.116  11.569   8.975
 5946SOL     OW19676   6.012   8.500   3.746
 5946SOL    HW119677   6.001   8.557   3.669
 5946SOL    HW219678   6.045   8.558   3.814
 5947SOL     OW19679   5.828   6.301   2.093
 5947SOL    HW119680   5.803   6.330   2.180
 5947SOL    HW219681   5.837   6.206   2.100
 5948SOL     OW19682  10.243   6.779  11.541
 5948SOL    HW119683  10.324   6.828  11.557
 5948SOL    HW219684  10.174   6.835  11.576
 5949SOL     OW19685   6.963   6.261   4.342
 5949SOL    HW119686   6.894   6.290   4.401
 5949SOL    HW219687   6.965   6.165   4.352
 5950SOL     OW19688   7.355   9.936   0.822
 5950SOL    HW119689   7.324  10.020   0.787
 5950SOL    HW219690   7.450   9.946   0.826
 5951SOL     OW19691  10.998  10.470  10.110
 5951SOL    HW119692  10.978  10.393  10.057
 5951SOL    HW219693  10.955  10.453  10.194
 5952SOL     OW19694  14.334   6.943   7.056
 5952SOL    HW119695  14.400   6.958   6.989
 5952SOL    HW219696  14.381   6.952   7.139
 5953SOL     OW19697   8.786  13.942  12.361
 5953SOL    HW119698   8.801  13.963  12.269
 5953SOL    HW219699   8.873  13.934  12.399
 5954SOL     OW19700  11.268   3.386   1.107
 5954SOL    HW119701  11.206   3.352   1.041
 5954SOL    HW219702  11.267   3.480   1.094
 5955SOL     OW19703   8.398   7.540   9.013
 5955SOL    HW119704   8.483   7.509   9.045
 5955SOL    HW219705   8.411   7.552   8.919
 5956SOL     OW19706   4.084   4.495  11.770
 5956SOL    HW119707   4.099   4.418  11.715
 5956SOL    HW219708   4.026   4.463  11.840
 5957SOL     OW19709   1.781   6.063   3.791
 5957SOL    HW119710   1.798   6.157   3.778
 5957SOL    HW219711   1.724   6.039   3.719
 5958SOL     OW19712  13.824  11.869   9.597
 5958SOL    HW119713  13.828  11.844   9.505
 5958SOL    HW219714  13.915  11.885   9.622
 5959SOL     OW19715   9.058   8.913  13.343
 5959SOL    HW119716   8.975   8.914  13.391
 5959SOL    HW219717   9.123   8.884  13.407
 5960SOL     OW19718  11.695  11.222  14.618
 5960SOL    HW119719  11.661  11.232  14.529
 5960SOL    HW219720  11.759  11.293  14.627
 5961SOL     OW19721  12.328  12.363   9.639
 5961SOL    HW119722  12.345  12.291   9.579
 5961SOL    HW219723  12.300  12.435   9.582
 5962SOL     OW19724   7.350   5.943   1.794
 5962SOL    HW119725   7.287   6.011   1.769
 5962SOL    HW219726   7.395   5.921   1.713
 5963SOL     OW19727  10.968  11.589   5.810
 5963SOL    HW119728  10.939  11.679   5.798
 5963SOL    HW219729  10.983  11.581   5.904
 5964SOL     OW19730  14.753  13.101   3.137
 5964SOL    HW119731  14.713  13.187   3.125
 5964SOL    HW219732  14.841  13.119   3.169
 5965SOL     OW19733  10.281   6.712   8.932
 5965SOL    HW119734  10.310   6.683   9.018
 5965SOL    HW219735  10.220   6.784   8.950
 5966SOL     OW19736   7.012  11.182   7.290
 5966SOL    HW119737   6.941  11.127   7.255
 5966SOL    HW219738   6.977  11.271   7.286
 5967SOL     OW19739   3.914   3.752  11.841
 5967SOL    HW119740   3.887   3.790  11.757
 5967SOL    HW219741   3.995   3.706  11.821
 5968SOL     OW19742  12.387  10.449  10.118
 5968SOL    HW119743  12.470  10.490  10.142
 5968SOL    HW219744  12.331  10.522  10.092
 5969SOL     OW19745   9.114   1.967  13.638
 5969SOL    HW119746   9.076   1.988  13.553
 5969SOL    HW219747   9.155   2.049  13.666
 5970SOL     OW19748   6.462  11.062   1.125
 5970SOL    HW119749   6.404  11.116   1.071
 5970SOL    HW219750   6.479  11.114   1.203
 5971SOL     OW19751   2.207   9.685   0.307
 5971SOL    HW119752   2.271   9.697   0.237
 5971SOL    HW219753   2.249   9.625   0.368
 5972SOL     OW19754   7.698  13.737  14.051
 5972SOL    HW119755   7.708  13.797  14.125
 5972SOL    HW219756   7.604  13.723  14.045
 5973SOL     OW19757  13.790   9.445   3.756
 5973SOL    HW119758  13.756   9.476   3.839
 5973SOL    HW219759  13.753   9.358   3.746
 5974SOL     OW19760   5.021  13.901  11.748
 5974SOL    HW119761   5.047  13.991  11.765
 5974SOL    HW219762   5.097  13.862  11.705
 5975SOL     OW19763   4.376   3.237  12.261
 5975SOL    HW119764   4.372   3.333  12.258
 5975SOL    HW219765   4.464   3.216  12.231
 5976SOL     OW19766   7.332  12.561   8.810
 5976SOL    HW119767   7.295  12.624   8.873
 5976SOL    HW219768   7.378  12.614   8.746
 5977SOL     OW19769   0.921   7.259  12.418
 5977SOL    HW119770   0.906   7.348  12.451
 5977SOL    HW219771   0.959   7.271  12.331
 5978SOL     OW19772   9.092  13.952   1.260
 5978SOL    HW119773   9.044  13.906   1.329
 5978SOL    HW219774   9.137  14.023   1.306
 5979SOL     OW19775   3.526   7.369   3.311
 5979SOL    HW119776   3.581   7.355   3.388
 5979SOL    HW219777   3.486   7.283   3.294
 5980SOL     OW19778  10.542  13.650  10.832
 5980SOL    HW119779  10.540  13.677  10.741
 5980SOL    HW219780  10.635  13.656  10.857
 5981SOL     OW19781   1.900   7.984   3.277
 5981SOL    HW119782   1.828   7.921   3.267
 5981SOL    HW219783   1.910   7.992   3.372
 5982SOL     OW19784   5.958   4.706  13.427
 5982SOL    HW119785   6.053   4.708  13.433
 5982SOL    HW219786   5.928   4.732  13.514
 5983SOL     OW19787   1.282  13.658  10.778
 5983SOL    HW119788   1.360  13.706  10.751
 5983SOL    HW219789   1.256  13.700  10.861
 5984SOL     OW19790   1.333   5.688   5.466
 5984SOL    HW119791   1.416   5.733   5.447
 5984SOL    HW219792   1.346   5.599   5.433
 5985SOL     OW19793   2.191   5.028   4.422
 5985SOL    HW119794   2.200   5.044   4.516
 5985SOL    HW219795   2.181   5.116   4.384
 5986SOL     OW19796   1.238  11.783   6.333
 5986SOL    HW119797   1.304  11.842   6.296
 5986SOL    HW219798   1.281  11.741   6.407
 5987SOL     OW19799   1.868  12.793   4.431
 5987SOL    HW119800   1.919  12.820   4.354
 5987SOL    HW219801   1.785  12.838   4.421
 5988SOL     OW19802  10.284  14.566  13.076
 5988SOL    HW119803  10.195  14.568  13.041
 5988SOL    HW219804  10.322  14.649  13.048
 5989SOL     OW19805   9.726  13.312  10.847
 5989SOL    HW119806   9.757  13.319  10.757
 5989SOL    HW219807   9.685  13.225  10.852
 5990SOL     OW19808  11.577   5.453   9.706
 5990SOL    HW119809  11.573   5.358   9.701
 5990SOL    HW219810  11.647   5.471   9.769
 5991SOL     OW19811   8.495  13.251  10.804
 5991SOL    HW119812   8.589  13.242  10.790
 5991SOL    HW219813   8.487  13.314  10.875
 5992SOL     OW19814  11.316   5.442  13.877
 5992SOL    HW119815  11.302   5.468  13.786
 5992SOL    HW219816  11.345   5.351  13.872
 5993SOL     OW19817  14.405   5.242  12.654
 5993SOL    HW119818  14.309   5.238  12.648
 5993SOL    HW219819  14.422   5.304  12.724
 5994SOL     OW19820  14.306   8.482   6.094
 5994SOL    HW119821  14.226   8.439   6.123
 5994SOL    HW219822  14.281   8.574   6.083
 5995SOL     OW19823   6.444   4.599   5.512
 5995SOL    HW119824   6.517   4.540   5.528
 5995SOL    HW219825   6.483   4.686   5.510
 5996SOL     OW19826   6.319   4.987   2.007
 5996SOL    HW119827   6.369   5.059   1.969
 5996SOL    HW219828   6.384   4.918   2.021
 5997SOL     OW19829   6.199   1.227   0.797
 5997SOL    HW119830   6.244   1.207   0.879
 5997SOL    HW219831   6.216   1.151   0.742
 5998SOL     OW19832  12.469   5.358   6.561
 5998SOL    HW119833  12.390   5.355   6.507
 5998SOL    HW219834  12.534   5.403   6.508
 5999SOL     OW19835   9.216  12.779   2.235
 5999SOL    HW119836   9.148  12.847   2.241
 5999SOL    HW219837   9.232  12.771   2.141
 6000SOL     OW19838  12.979   6.427  12.371
 6000SOL    HW119839  12.935   6.502  12.331
 6000SOL    HW219840  12.954   6.430  12.463
 6001SOL     OW19841   3.044   2.581   6.403
 6001SOL    HW119842   2.957   2.549   6.380
 6001SOL    HW219843   3.040   2.597   6.498
 6002SOL     OW19844  11.804  11.218   0.896
 6002SOL    HW119845  11.796  11.232   0.801
 6002SOL    HW219846  11.808  11.306   0.933
 6003SOL     OW19847   1.147   1.784   4.375
 6003SOL    HW119848   1.131   1.825   4.290
 6003SOL    HW219849   1.209   1.843   4.419
 6004SOL     OW19850  14.183   9.759  10.424
 6004SOL    HW119851  14.264   9.756  10.373
 6004SOL    HW219852  14.125   9.815  10.373
 6005SOL     OW19853   4.561  12.725  11.536
 6005SOL    HW119854   4.610  12.691  11.461
 6005SOL    HW219855   4.620  12.715  11.610
 6006SOL     OW19856   3.761   8.607   7.670
 6006SOL    HW119857   3.750   8.547   7.596
 6006SOL    HW219858   3.690   8.671   7.659
 6007SOL     OW19859   0.432   9.743   4.504
 6007SOL    HW119860   0.501   9.779   4.447
 6007SOL    HW219861   0.352   9.754   4.453
 6008SOL     OW19862  11.298  10.032  14.463
 6008SOL    HW119863  11.235  10.008  14.395
 6008SOL    HW219864  11.287   9.965  14.531
 6009SOL     OW19865  12.928  13.873   3.612
 6009SOL    HW119866  13.021  13.881   3.633
 6009SOL    HW219867  12.897  13.802   3.669
 6010SOL     OW19868  12.317  10.194   7.253
 6010SOL    HW119869  12.332  10.112   7.205
 6010SOL    HW219870  12.224  10.192   7.275
 6011SOL     OW19871   6.654   5.118  12.294
 6011SOL    HW119872   6.582   5.153  12.243
 6011SOL    HW219873   6.666   5.029  12.262
 6012SOL     OW19874  10.793   5.519   0.550
 6012SOL    HW119875  10.707   5.479   0.539
 6012SOL    HW219876  10.850   5.470   0.491
 6013SOL     OW19877   6.152   5.265   2.469
 6013SOL    HW119878   6.191   5.204   2.407
 6013SOL    HW219879   6.162   5.223   2.554
 6014SOL     OW19880  10.671   9.373   8.420
 6014SOL    HW119881  10.580   9.386   8.446
 6014SOL    HW219882  10.693   9.285   8.451
 6015SOL     OW19883  10.214   6.086  10.399
 6015SOL    HW119884  10.286   6.148  10.412
 6015SOL    HW219885  10.145   6.137  10.356
 6016SOL     OW19886   1.941   8.533  11.851
 6016SOL    HW119887   1.988   8.452  11.869
 6016SOL    HW219888   1.913   8.526  11.760
 6017SOL     OW19889  12.794   7.026   7.195
 6017SOL    HW119890  12.805   6.959   7.264
 6017SOL    HW219891  12.718   6.996   7.145
 6018SOL     OW19892   5.818   6.264   6.486
 6018SOL    HW119893   5.867   6.182   6.481
 6018SOL    HW219894   5.734   6.240   6.525
 6019SOL     OW19895   8.397  11.715  11.666
 6019SOL    HW119896   8.398  11.671  11.581
 6019SOL    HW219897   8.314  11.762  11.668
 6020SOL     OW19898  13.472   3.505   0.187
 6020SOL    HW119899  13.383   3.469   0.185
 6020SOL    HW219900  13.509   3.483   0.102
 6021SOL     OW19901  11.435  14.705  11.305
 6021SOL    HW119902  11.481  14.623  11.290
 6021SOL    HW219903  11.480  14.746  11.378
 6022SOL     OW19904   4.419   4.531   0.269
 6022SOL    HW119905   4.475   4.603   0.298
 6022SOL    HW219906   4.375   4.565   0.191
 6023SOL     OW19907   4.141   2.189  11.936
 6023SOL    HW119908   4.194   2.149  12.005
 6023SOL    HW219909   4.139   2.123  11.866
 6024SOL     OW19910   2.133  14.792   4.616
 6024SOL    HW119911   2.115  14.810   4.708
 6024SOL    HW219912   2.216  14.745   4.616
 6025SOL     OW19913   6.220   9.198  12.043
 6025SOL    HW119914   6.265   9.147  11.976
 6025SOL    HW219915   6.291   9.233  12.098
 6026SOL     OW19916  12.942   2.952   0.435
 6026SOL    HW119917  12.866   2.970   0.381
 6026SOL    HW219918  12.928   3.002   0.515
 6027SOL     OW19919  14.610  13.279   0.585
 6027SOL    HW119920  14.679  13.346   0.589
 6027SOL    HW219921  14.529  13.328   0.598
 6028SOL     OW19922  11.510   1.488   2.724
 6028SOL    HW119923  11.435   1.450   2.678
 6028SOL    HW219924  11.474   1.561   2.773
 6029SOL     OW19925  10.085   9.623  10.718
 6029SOL    HW119926  10.166   9.658  10.755
 6029SOL    HW219927  10.091   9.642  10.625
 6030SOL     OW19928   7.083   5.165   5.314
 6030SOL    HW119929   7.177   5.148   5.305
 6030SOL    HW219930   7.041   5.101   5.256
 6031SOL     OW19931  10.776   3.618  11.251
 6031SOL    HW119932  10.870   3.606  11.265
 6031SOL    HW219933  10.770   3.674  11.174
 6032SOL     OW19934   6.809   6.464   4.204
 6032SOL    HW119935   6.866   6.486   4.130
 6032SOL    HW219936   6.869   6.438   4.274
 6033SOL     OW19937   9.280  14.475   8.476
 6033SOL    HW119938   9.204  14.432   8.437
 6033SOL    HW219939   9.322  14.520   8.403
 6034SOL     OW19940   5.779  11.429  14.379
 6034SOL    HW119941   5.817  11.408  14.293
 6034SOL    HW219942   5.794  11.350  14.430
 6035SOL     OW19943   4.855   4.761  13.449
 6035SOL    HW119944   4.883   4.817  13.521
 6035SOL    HW219945   4.789   4.813  13.402
 6036SOL     OW19946   0.105  10.841   1.437
 6036SOL    HW119947   0.115  10.784   1.513
 6036SOL    HW219948   0.192  10.842   1.396
 6037SOL     OW19949  14.836  12.015  13.213
 6037SOL    HW119950   0.055  12.042  13.222
 6037SOL    HW219951  14.841  11.931  13.167
 6038SOL     OW19952  12.138  14.102  11.071
 6038SOL    HW119953  12.130  14.018  11.117
 6038SOL    HW219954  12.162  14.078  10.981
 6039SOL     OW19955   9.745   5.699   9.979
 6039SOL    HW119956   9.811   5.743   9.924
 6039SOL    HW219957   9.662   5.737   9.951
 6040SOL     OW19958  12.190   5.506  14.575
 6040SOL    HW119959  12.098   5.483  14.593
 6040SOL    HW219960  12.209   5.464  14.491
 6041SOL     OW19961  10.652   9.772  14.509
 6041SOL    HW119962  10.571   9.739  14.470
 6041SOL    HW219963  10.721   9.722  14.466
 6042SOL     OW19964   3.549   0.357   2.933
 6042SOL    HW119965   3.542   0.263   2.952
 6042SOL    HW219966   3.463   0.392   2.956
 6043SOL     OW19967  10.988   0.705  12.237
 6043SOL    HW119968  11.032   0.623  12.261
 6043SOL    HW219969  11.027   0.770  12.295
 6044SOL     OW19970  14.695   7.637   1.753
 6044SOL    HW119971  14.772   7.585   1.774
 6044SOL    HW219972  14.629   7.574   1.725
 6045SOL     OW19973   7.655  12.881  12.756
 6045SOL    HW119974   7.665  12.915  12.667
 6045SOL    HW219975   7.600  12.945  12.800
 6046SOL     OW19976   9.844   4.859   1.720
 6046SOL    HW119977   9.853   4.815   1.804
 6046SOL    HW219978   9.931   4.854   1.681
 6047SOL     OW19979  14.686  12.169   6.478
 6047SOL    HW119980  14.609  12.147   6.426
 6047SOL    HW219981  14.734  12.086   6.485
 6048SOL     OW19982  13.480  13.574   3.812
 6048SOL    HW119983  13.549  13.508   3.813
 6048SOL    HW219984  13.434  13.560   3.729
 6049SOL     OW19985   0.026   0.535   4.997
 6049SOL    HW119986  14.820   0.573   5.037
 6049SOL    HW219987   0.093   0.544   5.064
 6050SOL     OW19988   7.911  13.873   3.809
 6050SOL    HW119989   7.822  13.875   3.844
 6050SOL    HW219990   7.909  13.932   3.733
 6051SOL     OW19991  12.620  12.641  14.193
 6051SOL    HW119992  12.613  12.653  14.098
 6051SOL    HW219993  12.588  12.552  14.208
 6052SOL     OW19994  14.078   7.896   3.843
 6052SOL    HW119995  14.172   7.911   3.854
 6052SOL    HW219996  14.062   7.907   3.750
 6053SOL     OW19997   6.161  11.630   7.698
 6053SOL    HW119998   6.163  11.720   7.664
 6053SOL    HW219999   6.068  11.607   7.700
 6054SOL     OW20000   5.752   7.097   3.029
 6054SOL    HW120001   5.764   7.002   3.032
 6054SOL    HW220002   5.687   7.111   2.960
 6055SOL     OW20003  13.476   0.575   9.807
 6055SOL    HW120004  13.484   0.490   9.851
 6055SOL    HW220005  13.531   0.566   9.728
 6056SOL     OW20006  14.836   3.693   7.851
 6056SOL    HW120007   0.003   3.651   7.775
 6056SOL    HW220008  14.744   3.706   7.826
 6057SOL     OW20009   1.996  14.158   4.151
 6057SOL    HW120010   1.993  14.253   4.160
 6057SOL    HW220011   2.014  14.126   4.239
 6058SOL     OW20012  10.014   8.097   9.076
 6058SOL    HW120013  10.049   8.102   9.165
 6058SOL    HW220014  10.083   8.136   9.022
 6059SOL     OW20015  13.256  12.945   9.549
 6059SOL    HW120016  13.188  12.932   9.615
 6059SOL    HW220017  13.335  12.907   9.588
 6060SOL     OW20018  10.761  14.279   2.504
 6060SOL    HW120019  10.831  14.296   2.567
 6060SOL    HW220020  10.690  14.243   2.557
 6061SOL     OW20021   9.261   7.394   2.872
 6061SOL    HW120022   9.347   7.358   2.848
 6061SOL    HW220023   9.266   7.405   2.967
 6062SOL     OW20024   3.632   3.026   3.835
 6062SOL    HW120025   3.613   3.063   3.922
 6062SOL    HW220026   3.650   3.102   3.780
 6063SOL     OW20027   4.165  13.801   0.729
 6063SOL    HW120028   4.258  13.791   0.749
 6063SOL    HW220029   4.146  13.893   0.745
 6064SOL     OW20030   3.202   8.919   9.153
 6064SOL    HW120031   3.298   8.918   9.162
 6064SOL    HW220032   3.178   8.828   9.138
 6065SOL     OW20033   4.489   0.945   5.799
 6065SOL    HW120034   4.451   0.998   5.869
 6065SOL    HW220035   4.417   0.933   5.736
 6066SOL     OW20036   7.434   6.738   6.853
 6066SOL    HW120037   7.525   6.755   6.877
 6066SOL    HW220038   7.439   6.686   6.773
 6067SOL     OW20039   4.213   3.844  10.078
 6067SOL    HW120040   4.258   3.764  10.107
 6067SOL    HW220041   4.270   3.881  10.010
 6068SOL     OW20042   0.316   7.714   0.315
 6068SOL    HW120043   0.320   7.643   0.252
 6068SOL    HW220044   0.276   7.676   0.393
 6069SOL     OW20045  14.629  14.495   2.257
 6069SOL    HW120046  14.676  14.443   2.192
 6069SOL    HW220047  14.698  14.528   2.315
 6070SOL     OW20048   8.529   4.816  14.703
 6070SOL    HW120049   8.600   4.807  14.640
 6070SOL    HW220050   8.538   4.906  14.736
 6071SOL     OW20051   2.319   8.011   2.232
 6071SOL    HW120052   2.338   8.086   2.289
 6071SOL    HW220053   2.377   7.942   2.263
 6072SOL     OW20054   9.141  13.564   6.851
 6072SOL    HW120055   9.167  13.570   6.943
 6072SOL    HW220056   9.165  13.649   6.814
 6073SOL     OW20057  11.597   4.795  14.121
 6073SOL    HW120058  11.522   4.786  14.180
 6073SOL    HW220059  11.664   4.736  14.158
 6074SOL     OW20060  14.811   6.706  10.345
 6074SOL    HW120061  14.733   6.674  10.300
 6074SOL    HW220062  14.780   6.778  10.400
 6075SOL     OW20063   2.088   5.443   6.017
 6075SOL    HW120064   2.134   5.516   5.975
 6075SOL    HW220065   1.995   5.467   6.010
 6076SOL     OW20066   4.347  13.857   1.310
 6076SOL    HW120067   4.267  13.816   1.279
 6076SOL    HW220068   4.319  13.940   1.348
 6077SOL     OW20069   1.415   3.698   0.649
 6077SOL    HW120070   1.390   3.669   0.562
 6077SOL    HW220071   1.458   3.622   0.688
 6078SOL     OW20072   7.584  13.703   5.579
 6078SOL    HW120073   7.666  13.737   5.615
 6078SOL    HW220074   7.610  13.667   5.494
 6079SOL     OW20075   1.800   2.141  10.790
 6079SOL    HW120076   1.811   2.157  10.696
 6079SOL    HW220077   1.808   2.046  10.800
 6080SOL     OW20078   5.355   7.730   9.017
 6080SOL    HW120079   5.358   7.653   8.960
 6080SOL    HW220080   5.403   7.797   8.969
 6081SOL     OW20081  10.083   4.738  10.372
 6081SOL    HW120082  10.178   4.748  10.373
 6081SOL    HW220083  10.050   4.825  10.395
 6082SOL     OW20084   9.955   3.011  12.100
 6082SOL    HW120085   9.882   2.957  12.067
 6082SOL    HW220086   9.979   3.066  12.025
 6083SOL     OW20087   3.473   8.713   3.799
 6083SOL    HW120088   3.396   8.687   3.849
 6083SOL    HW220089   3.487   8.641   3.737
 6084SOL     OW20090   7.210  12.508   4.224
 6084SOL    HW120091   7.237  12.465   4.305
 6084SOL    HW220092   7.115  12.494   4.220
 6085SOL     OW20093   5.760  10.143   8.741
 6085SOL    HW120094   5.749  10.166   8.833
 6085SOL    HW220095   5.713  10.211   8.693
 6086SOL     OW20096   2.377   1.195   5.409
 6086SOL    HW120097   2.290   1.206   5.370
 6086SOL    HW220098   2.438   1.210   5.337
 6087SOL     OW20099   8.916   6.721  13.757
 6087SOL    HW120100   8.902   6.782  13.684
 6087SOL    HW220101   8.950   6.642  13.715
 6088SOL     OW20102   1.741  10.887   6.630
 6088SOL    HW120103   1.654  10.894   6.589
 6088SOL    HW220104   1.736  10.945   6.706
 6089SOL     OW20105   3.330   0.594   5.156
 6089SOL    HW120106   3.249   0.591   5.107
 6089SOL    HW220107   3.399   0.584   5.091
 6090SOL     OW20108  12.284   3.130   3.023
 6090SOL    HW120109  12.285   3.222   3.050
 6090SOL    HW220110  12.314   3.082   3.101
 6091SOL     OW20111   1.646   9.716   0.603
 6091SOL    HW120112   1.705   9.784   0.571
 6091SOL    HW220113   1.575   9.765   0.644
 6092SOL     OW20114   1.011   0.917   2.265
 6092SOL    HW120115   0.923   0.944   2.290
 6092SOL    HW220116   1.061   0.918   2.347
 6093SOL     OW20117  13.039   1.723  12.959
 6093SOL    HW120118  12.983   1.661  13.006
 6093SOL    HW220119  13.092   1.669  12.900
 6094SOL     OW20120  11.765  10.454  14.606
 6094SOL    HW120121  11.756  10.540  14.565
 6094SOL    HW220122  11.723  10.463  14.692
 6095SOL     OW20123   2.809  13.301  11.403
 6095SOL    HW120124   2.728  13.268  11.443
 6095SOL    HW220125   2.790  13.392  11.382
 6096SOL     OW20126   9.747  10.866  13.234
 6096SOL    HW120127   9.674  10.806  13.220
 6096SOL    HW220128   9.777  10.848  13.323
 6097SOL     OW20129   7.861   8.999  10.154
 6097SOL    HW120130   7.871   9.092  10.170
 6097SOL    HW220131   7.947   8.970  10.122
 6098SOL     OW20132  13.995   5.088  12.137
 6098SOL    HW120133  13.989   5.070  12.043
 6098SOL    HW220134  14.077   5.047  12.164
 6099SOL     OW20135  10.465   1.039  10.346
 6099SOL    HW120136  10.502   1.031  10.434
 6099SOL    HW220137  10.421   0.955  10.331
 6100SOL     OW20138  12.271   7.016   9.632
 6100SOL    HW120139  12.180   7.040   9.646
 6100SOL    HW220140  12.281   6.931   9.675
 6101SOL     OW20141  12.898   4.383   3.141
 6101SOL    HW120142  12.986   4.419   3.151
 6101SOL    HW220143  12.842   4.460   3.126
 6102SOL     OW20144  13.216   9.217   0.723
 6102SOL    HW120145  13.159   9.155   0.768
 6102SOL    HW220146  13.229   9.179   0.636
 6103SOL     OW20147   8.066   2.698  10.218
 6103SOL    HW120148   8.062   2.629  10.152
 6103SOL    HW220149   8.029   2.657  10.297
 6104SOL     OW20150   1.583  10.331   9.754
 6104SOL    HW120151   1.591  10.344   9.848
 6104SOL    HW220152   1.498  10.289   9.743
 6105SOL     OW20153   6.681   1.149  14.718
 6105SOL    HW120154   6.592   1.179  14.698
 6105SOL    HW220155   6.724   1.226  14.755
 6106SOL     OW20156  10.545  13.626   1.314
 6106SOL    HW120157  10.613  13.609   1.379
 6106SOL    HW220158  10.585  13.600   1.231
 6107SOL     OW20159   8.847  14.231   1.131
 6107SOL    HW120160   8.863  14.156   1.075
 6107SOL    HW220161   8.775  14.204   1.187
 6108SOL     OW20162   9.456   0.508   5.809
 6108SOL    HW120163   9.425   0.454   5.736
 6108SOL    HW220164   9.417   0.594   5.794
 6109SOL     OW20165   7.582   1.414   2.931
 6109SOL    HW120166   7.600   1.496   2.977
 6109SOL    HW220167   7.511   1.435   2.870
 6110SOL     OW20168   3.706  12.173  13.117
 6110SOL    HW120169   3.760  12.187  13.195
 6110SOL    HW220170   3.726  12.083  13.090
 6111SOL     OW20171  12.900   7.519  10.885
 6111SOL    HW120172  12.942   7.434  10.899
 6111SOL    HW220173  12.939   7.576  10.951
 6112SOL     OW20174   0.109   2.095  11.581
 6112SOL    HW120175   0.196   2.058  11.569
 6112SOL    HW220176   0.124   2.189  11.587
 6113SOL     OW20177   1.758  14.236   7.527
 6113SOL    HW120178   1.692  14.279   7.581
 6113SOL    HW220179   1.763  14.289   7.448
 6114SOL     OW20180   5.697   6.401  11.229
 6114SOL    HW120181   5.635   6.465  11.263
 6114SOL    HW220182   5.783   6.439  11.247
 6115SOL     OW20183   7.241   3.561   8.977
 6115SOL    HW120184   7.146   3.573   8.969
 6115SOL    HW220185   7.256   3.469   8.953
 6116SOL     OW20186   3.490   7.763   7.048
 6116SOL    HW120187   3.514   7.685   7.098
 6116SOL    HW220188   3.408   7.792   7.088
 6117SOL     OW20189   5.105   7.486   5.996
 6117SOL    HW120190   5.015   7.508   6.017
 6117SOL    HW220191   5.112   7.497   5.901
 6118SOL     OW20192   7.454   6.357  10.140
 6118SOL    HW120193   7.486   6.412  10.069
 6118SOL    HW220194   7.387   6.410  10.183
 6119SOL     OW20195   8.526   0.296   6.139
 6119SOL    HW120196   8.590   0.226   6.149
 6119SOL    HW220197   8.566   0.372   6.182
 6120SOL     OW20198   6.848  14.664   2.230
 6120SOL    HW120199   6.839  14.669   2.135
 6120SOL    HW220200   6.935  14.700   2.247
 6121SOL     OW20201   7.910   2.243   6.259
 6121SOL    HW120202   7.850   2.250   6.185
 6121SOL    HW220203   7.919   2.149   6.274
 6122SOL     OW20204   7.717   8.963   6.042
 6122SOL    HW120205   7.774   9.008   6.103
 6122SOL    HW220206   7.769   8.954   5.962
 6123SOL     OW20207   2.678  12.657  12.191
 6123SOL    HW120208   2.607  12.721  12.204
 6123SOL    HW220209   2.743  12.704  12.138
 6124SOL     OW20210   9.447  11.496   5.849
 6124SOL    HW120211   9.525  11.530   5.894
 6124SOL    HW220212   9.373  11.528   5.902
 6125SOL     OW20213   2.996   8.449   6.661
 6125SOL    HW120214   3.016   8.489   6.576
 6125SOL    HW220215   2.914   8.401   6.647
 6126SOL     OW20216   6.859   0.007   4.301
 6126SOL    HW120217   6.915   0.045   4.233
 6126SOL    HW220218   6.797   0.077   4.322
 6127SOL     OW20219   5.233  13.775  12.499
 6127SOL    HW120220   5.228  13.779  12.595
 6127SOL    HW220221   5.155  13.820  12.468
 6128SOL     OW20222  13.385   8.775  12.653
 6128SOL    HW120223  13.391   8.812  12.741
 6128SOL    HW220224  13.460   8.715  12.647
 6129SOL     OW20225   5.404  10.456  14.236
 6129SOL    HW120226   5.386  10.547  14.210
 6129SOL    HW220227   5.324  10.427  14.281
 6130SOL     OW20228  11.815   5.966   4.444
 6130SOL    HW120229  11.764   5.900   4.491
 6130SOL    HW220230  11.753   6.037   4.428
 6131SOL     OW20231   0.080  10.812   2.801
 6131SOL    HW120232   0.166  10.780   2.826
 6131SOL    HW220233   0.030  10.734   2.780
 6132SOL     OW20234   4.424   7.482   8.044
 6132SOL    HW120235   4.351   7.514   8.097
 6132SOL    HW220236   4.390   7.483   7.954
 6133SOL     OW20237   1.847   3.722   4.714
 6133SOL    HW120238   1.771   3.750   4.663
 6133SOL    HW220239   1.821   3.738   4.805
 6134SOL     OW20240   1.083  14.180   8.593
 6134SOL    HW120241   1.113  14.098   8.633
 6134SOL    HW220242   1.143  14.246   8.628
 6135SOL     OW20243   3.279  14.472   6.163
 6135SOL    HW120244   3.303  14.474   6.070
 6135SOL    HW220245   3.185  14.490   6.164
 6136SOL     OW20246   3.705   9.158   3.036
 6136SOL    HW120247   3.798   9.159   3.014
 6136SOL    HW220248   3.661   9.178   2.954
 6137SOL     OW20249   6.871   1.710   4.733
 6137SOL    HW120250   6.848   1.766   4.807
 6137SOL    HW220251   6.815   1.633   4.744
 6138SOL     OW20252  12.893  11.682  12.903
 6138SOL    HW120253  12.931  11.757  12.949
 6138SOL    HW220254  12.960  11.614  12.907
 6139SOL     OW20255   3.026  10.575  12.453
 6139SOL    HW120256   3.060  10.659  12.486
 6139SOL    HW220257   2.931  10.582  12.462
 6140SOL     OW20258   7.798  12.358  12.878
 6140SOL    HW120259   7.810  12.275  12.924
 6140SOL    HW220260   7.874  12.366  12.821
 6141SOL     OW20261   8.165   8.116  11.798
 6141SOL    HW120262   8.189   8.033  11.840
 6141SOL    HW220263   8.095   8.150  11.852
 6142SOL     OW20264  11.787   3.391   2.046
 6142SOL    HW120265  11.776   3.429   2.133
 6142SOL    HW220266  11.792   3.297   2.061
 6143SOL     OW20267   6.939  12.430  12.543
 6143SOL    HW120268   6.977  12.373  12.477
 6143SOL    HW220269   7.015  12.462  12.593
 6144SOL     OW20270   6.979   5.845   5.804
 6144SOL    HW120271   7.001   5.822   5.714
 6144SOL    HW220272   6.919   5.776   5.833
 6145SOL     OW20273   8.228   8.352   0.479
 6145SOL    HW120274   8.285   8.429   0.473
 6145SOL    HW220275   8.141   8.386   0.461
 6146SOL     OW20276   5.167  11.509   7.966
 6146SOL    HW120277   5.167  11.566   8.042
 6146SOL    HW220278   5.194  11.424   7.999
 6147SOL     OW20279   7.141   4.679   3.456
 6147SOL    HW120280   7.170   4.716   3.539
 6147SOL    HW220281   7.218   4.679   3.401
 6148SOL     OW20282   3.778   7.003  14.245
 6148SOL    HW120283   3.705   7.015  14.184
 6148SOL    HW220284   3.834   7.079  14.230
 6149SOL     OW20285   3.028   0.851   1.967
 6149SOL    HW120286   2.999   0.774   1.919
 6149SOL    HW220287   3.069   0.907   1.901
 6150SOL     OW20288  12.372   3.138  12.992
 6150SOL    HW120289  12.327   3.138  13.076
 6150SOL    HW220290  12.451   3.190  13.006
 6151SOL     OW20291  11.680  13.875  11.596
 6151SOL    HW120292  11.643  13.831  11.520
 6151SOL    HW220293  11.613  13.867  11.664
 6152SOL     OW20294   2.492   1.093   0.618
 6152SOL    HW120295   2.457   1.043   0.692
 6152SOL    HW220296   2.574   1.049   0.597
 6153SOL     OW20297   2.169   7.663   3.663
 6153SOL    HW120298   2.216   7.717   3.726
 6153SOL    HW220299   2.115   7.605   3.717
 6154SOL     OW20300   7.172  11.940   5.535
 6154SOL    HW120301   7.121  11.884   5.593
 6154SOL    HW220302   7.175  11.893   5.452
 6155SOL     OW20303  12.657   1.391   2.898
 6155SOL    HW120304  12.563   1.408   2.903
 6155SOL    HW220305  12.694   1.440   2.971
 6156SOL     OW20306   4.777   2.007   7.408
 6156SOL    HW120307   4.721   2.004   7.486
 6156SOL    HW220308   4.728   2.060   7.346
 6157SOL     OW20309   8.191   0.922  12.527
 6157SOL    HW120310   8.118   0.889  12.474
 6157SOL    HW220311   8.231   0.843  12.563
 6158SOL     OW20312  14.666   7.293   3.471
 6158SOL    HW120313  14.757   7.301   3.442
 6158SOL    HW220314  14.671   7.289   3.566
 6159SOL     OW20315  14.718   1.398   9.952
 6159SOL    HW120316  14.764   1.460  10.009
 6159SOL    HW220317  14.688   1.451   9.878
 6160SOL     OW20318   1.544  13.115  11.848
 6160SOL    HW120319   1.484  13.102  11.922
 6160SOL    HW220320   1.570  13.207  11.854
 6161SOL     OW20321  13.527  12.190   3.425
 6161SOL    HW120322  13.506  12.098   3.444
 6161SOL    HW220323  13.581  12.217   3.500
 6162SOL     OW20324   0.934  11.733   0.051
 6162SOL    HW120325   0.984  11.807   0.016
 6162SOL    HW220326   0.959  11.728   0.143
 6163SOL     OW20327   4.720   5.875   6.939
 6163SOL    HW120328   4.789   5.905   7.000
 6163SOL    HW220329   4.687   5.795   6.979
 6164SOL     OW20330   1.670  12.920  12.906
 6164SOL    HW120331   1.650  12.954  12.993
 6164SOL    HW220332   1.592  12.873  12.879
 6165SOL     OW20333   3.127   2.339   4.340
 6165SOL    HW120334   3.133   2.389   4.422
 6165SOL    HW220335   3.075   2.395   4.282
 6166SOL     OW20336   8.641  11.709   0.097
 6166SOL    HW120337   8.602  11.676   0.016
 6166SOL    HW220338   8.716  11.761   0.069
 6167SOL     OW20339   1.214   5.151   3.848
 6167SOL    HW120340   1.209   5.064   3.887
 6167SOL    HW220341   1.154   5.204   3.900
 6168SOL     OW20342   8.886  14.285  12.939
 6168SOL    HW120343   8.881  14.191  12.955
 6168SOL    HW220344   8.805  14.320  12.976
 6169SOL     OW20345   3.275   8.852   0.876
 6169SOL    HW120346   3.216   8.899   0.817
 6169SOL    HW220347   3.349   8.911   0.888
 6170SOL     OW20348   0.755  11.861  12.259
 6170SOL    HW120349   0.725  11.796  12.196
 6170SOL    HW220350   0.842  11.886  12.228
 6171SOL     OW20351   2.633  14.339   9.988
 6171SOL    HW120352   2.602  14.383   9.908
 6171SOL    HW220353   2.680  14.407  10.035
 6172SOL     OW20354  13.499  14.798   4.651
 6172SOL    HW120355  13.443  14.733   4.693
 6172SOL    HW220356  13.442  14.842   4.588
 6173SOL     OW20357  13.614  14.560  11.905
 6173SOL    HW120358  13.530  14.602  11.888
 6173SOL    HW220359  13.597  14.500  11.978
 6174SOL     OW20360   9.770  11.392  12.031
 6174SOL    HW120361   9.754  11.463  12.092
 6174SOL    HW220362   9.850  11.350  12.064
 6175SOL     OW20363   6.447   6.020  14.101
 6175SOL    HW120364   6.541   6.002  14.095
 6175SOL    HW220365   6.425   6.061  14.017
 6176SOL     OW20366   2.184  10.474   5.226
 6176SOL    HW120367   2.239  10.549   5.246
 6176SOL    HW220368   2.107  10.484   5.282
 6177SOL     OW20369   9.147   7.298   6.193
 6177SOL    HW120370   9.226   7.352   6.190
 6177SOL    HW220371   9.090   7.336   6.126
 6178SOL     OW20372   9.561   0.375  10.743
 6178SOL    HW120373   9.652   0.350  10.724
 6178SOL    HW220374   9.563   0.410  10.832
 6179SOL     OW20375   4.268   0.233   5.650
 6179SOL    HW120376   4.226   0.246   5.735
 6179SOL    HW220377   4.361   0.246   5.666
 6180SOL     OW20378  10.328   6.216   0.868
 6180SOL    HW120379  10.317   6.258   0.953
 6180SOL    HW220380  10.417   6.241   0.841
 6181SOL     OW20381   0.696  12.371   0.750
 6181SOL    HW120382   0.738  12.285   0.753
 6181SOL    HW220383   0.610  12.357   0.789
 6182SOL     OW20384   2.635   1.586  11.571
 6182SOL    HW120385   2.549   1.572  11.533
 6182SOL    HW220386   2.655   1.678  11.551
 6183SOL     OW20387  12.009  13.691  13.498
 6183SOL    HW120388  12.082  13.629  13.487
 6183SOL    HW220389  11.952  13.650  13.562
 6184SOL     OW20390   3.796   2.890   6.856
 6184SOL    HW120391   3.803   2.985   6.856
 6184SOL    HW220392   3.784   2.866   6.764
 6185SOL     OW20393   5.545   4.251   9.068
 6185SOL    HW120394   5.598   4.227   8.991
 6185SOL    HW220395   5.605   4.299   9.125
 6186SOL     OW20396   3.048  12.229   3.569
 6186SOL    HW120397   3.026  12.215   3.661
 6186SOL    HW220398   3.066  12.323   3.562
 6187SOL     OW20399  10.867  10.628   1.895
 6187SOL    HW120400  10.863  10.545   1.944
 6187SOL    HW220401  10.950  10.668   1.923
 6188SOL     OW20402   6.935  13.812  13.615
 6188SOL    HW120403   6.975  13.887  13.660
 6188SOL    HW220404   6.841  13.823  13.630
 6189SOL     OW20405   4.266   7.210  13.312
 6189SOL    HW120406   4.293   7.168  13.394
 6189SOL    HW220407   4.343   7.261  13.285
 6190SOL     OW20408   5.291   9.330   3.128
 6190SOL    HW120409   5.279   9.404   3.187
 6190SOL    HW220410   5.301   9.255   3.186
 6191SOL     OW20411  12.536  13.725   5.294
 6191SOL    HW120412  12.482  13.662   5.247
 6191SOL    HW220413  12.575  13.675   5.366
 6192SOL     OW20414  13.592   1.761   6.608
 6192SOL    HW120415  13.551   1.697   6.550
 6192SOL    HW220416  13.610   1.836   6.552
 6193SOL     OW20417  14.815   1.955   8.824
 6193SOL    HW120418   0.026   1.984   8.859
 6193SOL    HW220419  14.791   1.881   8.879
 6194SOL     OW20420   4.473   4.852   0.581
 6194SOL    HW120421   4.486   4.803   0.662
 6194SOL    HW220422   4.488   4.943   0.605
 6195SOL     OW20423   7.173   2.472  11.828
 6195SOL    HW120424   7.238   2.451  11.896
 6195SOL    HW220425   7.110   2.400  11.833
 6196SOL     OW20426   0.191   6.533   1.537
 6196SOL    HW120427   0.272   6.490   1.509
 6196SOL    HW220428   0.137   6.462   1.573
 6197SOL     OW20429   2.792  10.882  12.355
 6197SOL    HW120430   2.771  10.797  12.394
 6197SOL    HW220431   2.720  10.899  12.295
 6198SOL     OW20432   8.830  12.423  10.133
 6198SOL    HW120433   8.769  12.486  10.094
 6198SOL    HW220434   8.877  12.386  10.059
 6199SOL     OW20435   4.122  14.417   1.852
 6199SOL    HW120436   4.029  14.439   1.844
 6199SOL    HW220437   4.166  14.501   1.862
 6200SOL     OW20438  12.594   4.758   7.849
 6200SOL    HW120439  12.593   4.718   7.762
 6200SOL    HW220440  12.665   4.822   7.845
 6201SOL     OW20441   4.111  14.203   6.175
 6201SOL    HW120442   4.062  14.122   6.188
 6201SOL    HW220443   4.170  14.183   6.102
 6202SOL     OW20444  11.718  14.751   9.549
 6202SOL    HW120445  11.775  14.752   9.626
 6202SOL    HW220446  11.713  14.843   9.522
 6203SOL     OW20447   6.380   7.273  12.590
 6203SOL    HW120448   6.358   7.258  12.498
 6203SOL    HW220449   6.440   7.202  12.612
 6204SOL     OW20450  12.210  10.855   2.948
 6204SOL    HW120451  12.234  10.763   2.944
 6204SOL    HW220452  12.181  10.868   3.039
 6205SOL     OW20453   9.143   4.046   5.812
 6205SOL    HW120454   9.084   4.022   5.741
 6205SOL    HW220455   9.095   4.114   5.861
 6206SOL     OW20456  14.677   7.855   8.281
 6206SOL    HW120457  14.607   7.848   8.345
 6206SOL    HW220458  14.683   7.768   8.242
 6207SOL     OW20459  13.026  11.674  12.298
 6207SOL    HW120460  12.979  11.633  12.225
 6207SOL    HW220461  13.042  11.602  12.359
 6208SOL     OW20462  13.509  14.103   5.369
 6208SOL    HW120463  13.546  14.085   5.456
 6208SOL    HW220464  13.414  14.097   5.382
 6209SOL     OW20465   0.100   0.754   9.841
 6209SOL    HW120466   0.076   0.802   9.920
 6209SOL    HW220467   0.102   0.662   9.868
 6210SOL     OW20468  11.522   7.619  14.834
 6210SOL    HW120469  11.533   7.702   0.008
 6210SOL    HW220470  11.584   7.560   0.004
 6211SOL     OW20471   7.997  10.348  11.133
 6211SOL    HW120472   8.060  10.283  11.103
 6211SOL    HW220473   7.999  10.342  11.228
 6212SOL     OW20474  12.332   6.306  12.488
 6212SOL    HW120475  12.377   6.391  12.484
 6212SOL    HW220476  12.402   6.242  12.498
 6213SOL     OW20477   6.056   9.673   3.205
 6213SOL    HW120478   6.082   9.600   3.260
 6213SOL    HW220479   6.066   9.750   3.260
 6214SOL     OW20480  13.541   8.966  10.095
 6214SOL    HW120481  13.567   9.051  10.131
 6214SOL    HW220482  13.526   8.911  10.172
 6215SOL     OW20483  12.940   2.747   4.055
 6215SOL    HW120484  12.959   2.654   4.064
 6215SOL    HW220485  13.004   2.790   4.112
 6216SOL     OW20486  13.850   8.704   1.673
 6216SOL    HW120487  13.847   8.613   1.701
 6216SOL    HW220488  13.870   8.753   1.752
 6217SOL     OW20489  12.908  14.253   0.043
 6217SOL    HW120490  12.921  14.278   0.134
 6217SOL    HW220491  12.837  14.189   0.046
 6218SOL     OW20492  12.353  13.351  10.025
 6218SOL    HW120493  12.372  13.322   9.936
 6218SOL    HW220494  12.408  13.294  10.080
 6219SOL     OW20495   4.215   9.436  14.527
 6219SOL    HW120496   4.267   9.442  14.447
 6219SOL    HW220497   4.259   9.371  14.580
 6220SOL     OW20498   1.548   5.284  14.327
 6220SOL    HW120499   1.488   5.337  14.379
 6220SOL    HW220500   1.601   5.237  14.391
 6221SOL     OW20501  12.482   7.918   5.045
 6221SOL    HW120502  12.494   7.895   5.137
 6221SOL    HW220503  12.527   7.850   4.996
 6222SOL     OW20504   7.956   9.511   4.466
 6222SOL    HW120505   7.992   9.573   4.530
 6222SOL    HW220506   7.988   9.543   4.382
 6223SOL     OW20507   5.019  14.535  13.835
 6223SOL    HW120508   4.927  14.512  13.846
 6223SOL    HW220509   5.055  14.531  13.924
 6224SOL     OW20510   1.018   1.773   7.572
 6224SOL    HW120511   1.088   1.738   7.517
 6224SOL    HW220512   0.949   1.797   7.510
 6225SOL     OW20513   6.064   8.204   0.262
 6225SOL    HW120514   6.061   8.108   0.262
 6225SOL    HW220515   6.123   8.225   0.335
 6226SOL     OW20516   4.096   5.789   4.482
 6226SOL    HW120517   4.143   5.783   4.565
 6226SOL    HW220518   4.066   5.880   4.478
 6227SOL     OW20519   2.134   9.998   0.172
 6227SOL    HW120520   2.164   9.915   0.210
 6227SOL    HW220521   2.180  10.065   0.222
 6228SOL     OW20522   2.239  10.512   1.629
 6228SOL    HW120523   2.255  10.418   1.625
 6228SOL    HW220524   2.156  10.520   1.676
 6229SOL     OW20525  13.327   2.820  14.415
 6229SOL    HW120526  13.284   2.899  14.447
 6229SOL    HW220527  13.334   2.763  14.492
 6230SOL     OW20528   9.143   1.820   0.151
 6230SOL    HW120529   9.209   1.750   0.153
 6230SOL    HW220530   9.178   1.883   0.088
 6231SOL     OW20531   4.513  13.112  10.974
 6231SOL    HW120532   4.500  13.028  10.930
 6231SOL    HW220533   4.606  13.112  10.999
 6232SOL     OW20534   5.347  11.446   4.058
 6232SOL    HW120535   5.292  11.432   4.135
 6232SOL    HW220536   5.426  11.395   4.075
 6233SOL     OW20537  11.828  13.676  10.627
 6233SOL    HW120538  11.776  13.673  10.547
 6233SOL    HW220539  11.764  13.682  10.697
 6234SOL     OW20540   9.519   9.228   9.975
 6234SOL    HW120541   9.591   9.174   9.945
 6234SOL    HW220542   9.491   9.188  10.057
 6235SOL     OW20543  10.249  11.892  10.584
 6235SOL    HW120544  10.277  11.943  10.508
 6235SOL    HW220545  10.321  11.899  10.647
 6236SOL     OW20546  11.994   8.153  11.122
 6236SOL    HW120547  12.015   8.060  11.124
 6236SOL    HW220548  12.070   8.194  11.082
 6237SOL     OW20549   1.439   4.812  12.132
 6237SOL    HW120550   1.418   4.896  12.091
 6237SOL    HW220551   1.382   4.807  12.209
 6238SOL     OW20552   9.380   2.120   7.630
 6238SOL    HW120553   9.395   2.158   7.716
 6238SOL    HW220554   9.462   2.075   7.609
 6239SOL     OW20555   7.097   6.995   7.474
 6239SOL    HW120556   7.053   6.955   7.399
 6239SOL    HW220557   7.173   7.039   7.437
 6240SOL     OW20558  13.130  10.291   6.123
 6240SOL    HW120559  13.144  10.291   6.028
 6240SOL    HW220560  13.099  10.202   6.142
 6241SOL     OW20561  14.637   4.158   0.372
 6241SOL    HW120562  14.543   4.167   0.383
 6241SOL    HW220563  14.649   4.067   0.344
 6242SOL     OW20564   8.708   0.632  13.862
 6242SOL    HW120565   8.670   0.653  13.948
 6242SOL    HW220566   8.742   0.543  13.872
 6243SOL     OW20567   7.879   5.594   8.785
 6243SOL    HW120568   7.968   5.561   8.769
 6243SOL    HW220569   7.859   5.567   8.874
 6244SOL     OW20570   0.239   5.030   9.039
 6244SOL    HW120571   0.211   5.119   9.021
 6244SOL    HW220572   0.280   5.000   8.958
 6245SOL     OW20573   1.568   8.083   1.515
 6245SOL    HW120574   1.479   8.112   1.494
 6245SOL    HW220575   1.612   8.161   1.547
 6246SOL     OW20576  13.274   7.476   3.388
 6246SOL    HW120577  13.275   7.510   3.477
 6246SOL    HW220578  13.251   7.552   3.334
 6247SOL     OW20579   5.884  10.843   0.076
 6247SOL    HW120580   5.874  10.849  14.854
 6247SOL    HW220581   5.953  10.778   0.089
 6248SOL     OW20582  10.845  13.356  12.244
 6248SOL    HW120583  10.916  13.303  12.210
 6248SOL    HW220584  10.887  13.420  12.301
 6249SOL     OW20585   2.311   5.735   5.645
 6249SOL    HW120586   2.368   5.809   5.622
 6249SOL    HW220587   2.312   5.679   5.567
 6250SOL     OW20588   5.132   3.139  13.852
 6250SOL    HW120589   5.194   3.187  13.797
 6250SOL    HW220590   5.076   3.206  13.890
 6251SOL     OW20591  14.484  10.679   5.074
 6251SOL    HW120592  14.390  10.675   5.091
 6251SOL    HW220593  14.514  10.754   5.126
 6252SOL     OW20594  14.653   2.642   5.091
 6252SOL    HW120595  14.664   2.661   4.998
 6252SOL    HW220596  14.558   2.644   5.105
 6253SOL     OW20597  13.158   7.674   2.762
 6253SOL    HW120598  13.224   7.743   2.764
 6253SOL    HW220599  13.079   7.716   2.730
 6254SOL     OW20600   6.449  12.464   6.005
 6254SOL    HW120601   6.438  12.443   6.098
 6254SOL    HW220602   6.366  12.439   5.965
 6255SOL     OW20603  10.718   1.360   5.824
 6255SOL    HW120604  10.744   1.441   5.779
 6255SOL    HW220605  10.642   1.386   5.876
 6256SOL     OW20606   1.637  13.664   8.975
 6256SOL    HW120607   1.637  13.758   8.958
 6256SOL    HW220608   1.696  13.628   8.908
 6257SOL     OW20609   0.557   6.000  12.923
 6257SOL    HW120610   0.588   5.910  12.932
 6257SOL    HW220611   0.632   6.047  12.888
 6258SOL     OW20612  11.134  13.030   6.151
 6258SOL    HW120613  11.189  13.076   6.087
 6258SOL    HW220614  11.046  13.032   6.113
 6259SOL     OW20615   2.702  14.505  14.279
 6259SOL    HW120616   2.629  14.446  14.260
 6259SOL    HW220617   2.663  14.592  14.283
 6260SOL     OW20618   5.929  13.062   4.101
 6260SOL    HW120619   5.890  13.016   4.027
 6260SOL    HW220620   5.936  13.153   4.073
 6261SOL     OW20621   5.308   8.861  10.428
 6261SOL    HW120622   5.228   8.821  10.393
 6261SOL    HW220623   5.358   8.886  10.350
 6262SOL     OW20624   2.740  11.072   7.839
 6262SOL    HW120625   2.777  10.987   7.815
 6262SOL    HW220626   2.781  11.134   7.778
 6263SOL     OW20627   8.566  12.964  11.861
 6263SOL    HW120628   8.474  12.966  11.884
 6263SOL    HW220629   8.599  13.051  11.882
 6264SOL     OW20630  12.751   4.760   8.776
 6264SOL    HW120631  12.805   4.691   8.816
 6264SOL    HW220632  12.788   4.771   8.689
 6265SOL     OW20633   5.769   9.207   9.703
 6265SOL    HW120634   5.699   9.263   9.671
 6265SOL    HW220635   5.788   9.240   9.791
 6266SOL     OW20636   8.282   4.422   9.672
 6266SOL    HW120637   8.294   4.497   9.730
 6266SOL    HW220638   8.367   4.410   9.630
 6267SOL     OW20639   3.047  12.213  12.156
 6267SOL    HW120640   3.099  12.292  12.140
 6267SOL    HW220641   2.983  12.211  12.085
 6268SOL     OW20642   1.119  12.545  14.599
 6268SOL    HW120643   1.117  12.604  14.675
 6268SOL    HW220644   1.034  12.502  14.600
 6269SOL     OW20645   9.865   4.852   4.654
 6269SOL    HW120646   9.794   4.789   4.644
 6269SOL    HW220647   9.927   4.831   4.584
 6270SOL     OW20648   8.371   1.395   6.145
 6270SOL    HW120649   8.284   1.419   6.178
 6270SOL    HW220650   8.422   1.379   6.224
 6271SOL     OW20651   5.659   2.363   5.793
 6271SOL    HW120652   5.571   2.374   5.830
 6271SOL    HW220653   5.717   2.403   5.857
 6272SOL     OW20654   4.614   4.271   2.243
 6272SOL    HW120655   4.627   4.240   2.332
 6272SOL    HW220656   4.545   4.215   2.208
 6273SOL     OW20657   3.720   6.816  12.339
 6273SOL    HW120658   3.737   6.907  12.363
 6273SOL    HW220659   3.795   6.791  12.285
 6274SOL     OW20660   9.596  11.888  14.745
 6274SOL    HW120661   9.656  11.914  14.675
 6274SOL    HW220662   9.597  11.792  14.742
 6275SOL     OW20663  10.038  13.414   8.398
 6275SOL    HW120664   9.988  13.372   8.467
 6275SOL    HW220665  10.115  13.358   8.386
 6276SOL     OW20666  13.018   7.544   5.383
 6276SOL    HW120667  12.928   7.576   5.379
 6276SOL    HW220668  13.011   7.451   5.358
 6277SOL     OW20669   2.753   2.178   3.320
 6277SOL    HW120670   2.779   2.092   3.354
 6277SOL    HW220671   2.720   2.159   3.231
 6278SOL     OW20672  10.503  14.425   7.570
 6278SOL    HW120673  10.445  14.502   7.576
 6278SOL    HW220674  10.547  14.422   7.656
 6279SOL     OW20675  10.726  11.429   3.250
 6279SOL    HW120676  10.667  11.488   3.203
 6279SOL    HW220677  10.696  11.434   3.341
 6280SOL     OW20678  14.620   0.315   0.165
 6280SOL    HW120679  14.568   0.353   0.236
 6280SOL    HW220680  14.574   0.342   0.085
 6281SOL     OW20681  12.179  12.015  14.136
 6281SOL    HW120682  12.191  11.969  14.218
 6281SOL    HW220683  12.148  12.102  14.161
 6282SOL     OW20684  14.633   6.582  12.634
 6282SOL    HW120685  14.714   6.597  12.584
 6282SOL    HW220686  14.588   6.513  12.586
 6283SOL     OW20687   7.132   0.765  12.389
 6283SOL    HW120688   7.161   0.734  12.303
 6283SOL    HW220689   7.065   0.830  12.370
 6284SOL     OW20690   4.235   7.471  11.621
 6284SOL    HW120691   4.167   7.526  11.582
 6284SOL    HW220692   4.244   7.504  11.710
 6285SOL     OW20693   1.462   9.771   6.635
 6285SOL    HW120694   1.475   9.770   6.540
 6285SOL    HW220695   1.385   9.826   6.648
 6286SOL     OW20696   2.000   4.439   6.082
 6286SOL    HW120697   2.020   4.429   5.989
 6286SOL    HW220698   2.079   4.412   6.128
 6287SOL     OW20699  12.568   6.561   5.812
 6287SOL    HW120700  12.567   6.603   5.898
 6287SOL    HW220701  12.654   6.519   5.807
 6288SOL     OW20702   4.248   6.741   0.628
 6288SOL    HW120703   4.161   6.713   0.658
 6288SOL    HW220704   4.230   6.801   0.556
 6289SOL     OW20705   0.698   6.621   6.306
 6289SOL    HW120706   0.746   6.652   6.383
 6289SOL    HW220707   0.720   6.684   6.237
 6290SOL     OW20708   2.423  13.355  12.287
 6290SOL    HW120709   2.516  13.357  12.306
 6290SOL    HW220710   2.388  13.432  12.331
 6291SOL     OW20711   4.965  10.574   5.416
 6291SOL    HW120712   4.947  10.602   5.326
 6291SOL    HW220713   5.023  10.499   5.406
 6292SOL     OW20714   0.002   5.682  12.666
 6292SOL    HW120715  14.812   5.613  12.648
 6292SOL    HW220716   0.070   5.639  12.718
 6293SOL     OW20717   1.165   4.164   9.949
 6293SOL    HW120718   1.088   4.148   9.895
 6293SOL    HW220719   1.190   4.077   9.981
 6294SOL     OW20720   3.885   1.059   4.092
 6294SOL    HW120721   3.960   1.086   4.146
 6294SOL    HW220722   3.899   0.965   4.077
 6295SOL     OW20723   8.106  12.865   7.755
 6295SOL    HW120724   8.104  12.837   7.664
 6295SOL    HW220725   8.193  12.839   7.786
 6296SOL     OW20726   7.688   8.618   8.375
 6296SOL    HW120727   7.689   8.680   8.303
 6296SOL    HW220728   7.634   8.545   8.343
 6297SOL     OW20729  11.644  11.578   2.397
 6297SOL    HW120730  11.638  11.621   2.311
 6297SOL    HW220731  11.553  11.565   2.424
 6298SOL     OW20732   4.255   6.183   9.274
 6298SOL    HW120733   4.322   6.218   9.215
 6298SOL    HW220734   4.175   6.231   9.252
 6299SOL     OW20735  10.639   8.175   3.393
 6299SOL    HW120736  10.558   8.183   3.343
 6299SOL    HW220737  10.685   8.257   3.379
 6300SOL     OW20738   3.473   7.349  13.815
 6300SOL    HW120739   3.409   7.346  13.886
 6300SOL    HW220740   3.436   7.412  13.753
 6301SOL     OW20741  10.006   8.383   5.474
 6301SOL    HW120742  10.037   8.313   5.531
 6301SOL    HW220743   9.954   8.338   5.408
 6302SOL     OW20744   2.999   9.423   0.310
 6302SOL    HW120745   2.907   9.408   0.291
 6302SOL    HW220746   3.002   9.513   0.343
 6303SOL     OW20747   7.627   9.221  14.729
 6303SOL    HW120748   7.646   9.135  14.768
 6303SOL    HW220749   7.553   9.205  14.671
 6304SOL     OW20750   6.577   1.728   9.527
 6304SOL    HW120751   6.483   1.721   9.509
 6304SOL    HW220752   6.593   1.663   9.595
 6305SOL     OW20753  13.944   8.213  12.613
 6305SOL    HW120754  13.942   8.126  12.573
 6305SOL    HW220755  13.991   8.201  12.695
 6306SOL     OW20756   2.520   2.630   7.519
 6306SOL    HW120757   2.574   2.705   7.544
 6306SOL    HW220758   2.461   2.665   7.452
 6307SOL     OW20759  13.091  12.308   4.515
 6307SOL    HW120760  13.111  12.317   4.421
 6307SOL    HW220761  13.162  12.354   4.559
 6308SOL     OW20762  12.604   7.784  11.672
 6308SOL    HW120763  12.662   7.711  11.692
 6308SOL    HW220764  12.531   7.745  11.625
 6309SOL     OW20765   3.586   4.962   3.719
 6309SOL    HW120766   3.580   5.057   3.708
 6309SOL    HW220767   3.608   4.929   3.632
 6310SOL     OW20768  10.153  12.916   9.572
 6310SOL    HW120769  10.180  12.890   9.660
 6310SOL    HW220770  10.209  12.990   9.550
 6311SOL     OW20771   0.493   5.053   5.571
 6311SOL    HW120772   0.506   5.132   5.624
 6311SOL    HW220773   0.475   5.086   5.483
 6312SOL     OW20774   9.881   9.141   5.967
 6312SOL    HW120775   9.910   9.106   6.051
 6312SOL    HW220776   9.916   9.079   5.902
 6313SOL     OW20777   1.387  11.115  13.281
 6313SOL    HW120778   1.426  11.029  13.294
 6313SOL    HW220779   1.410  11.138  13.191
 6314SOL     OW20780   6.462  14.144   5.720
 6314SOL    HW120781   6.501  14.185   5.798
 6314SOL    HW220782   6.459  14.051   5.740
 6315SOL     OW20783   2.888   9.089  14.494
 6315SOL    HW120784   2.873   9.102  14.587
 6315SOL    HW220785   2.828   9.018  14.470
 6316SOL     OW20786   6.301   4.999  11.236
 6316SOL    HW120787   6.341   5.086  11.240
 6316SOL    HW220788   6.280   4.978  11.326
 6317SOL     OW20789   3.770   3.385   1.090
 6317SOL    HW120790   3.728   3.312   1.135
 6317SOL    HW220791   3.698   3.440   1.061
 6318SOL     OW20792  11.051  14.506  14.682
 6318SOL    HW120793  11.053  14.444  14.755
 6318SOL    HW220794  11.002  14.581  14.716
 6319SOL     OW20795   7.686   1.355  14.048
 6319SOL    HW120796   7.634   1.430  14.019
 6319SOL    HW220797   7.704   1.372  14.140
 6320SOL     OW20798  10.263   8.292   1.309
 6320SOL    HW120799  10.324   8.260   1.376
 6320SOL    HW220800  10.187   8.234   1.317
 6321SOL     OW20801   3.444   4.846  13.613
 6321SOL    HW120802   3.383   4.773  13.607
 6321SOL    HW220803   3.400   4.910  13.668
 6322SOL     OW20804  11.154   9.161  11.406
 6322SOL    HW120805  11.111   9.126  11.328
 6322SOL    HW220806  11.235   9.110  11.413
 6323SOL     OW20807  13.349   0.524  14.803
 6323SOL    HW120808  13.383   0.475   0.005
 6323SOL    HW220809  13.424   0.577  14.774
 6324SOL     OW20810   1.455   1.131   4.241
 6324SOL    HW120811   1.521   1.194   4.211
 6324SOL    HW220812   1.383   1.186   4.272
 6325SOL     OW20813   6.536   6.743   5.066
 6325SOL    HW120814   6.477   6.817   5.079
 6325SOL    HW220815   6.494   6.671   5.112
 6326SOL     OW20816  14.371  12.337   8.706
 6326SOL    HW120817  14.291  12.310   8.752
 6326SOL    HW220818  14.395  12.260   8.654
 6327SOL     OW20819  10.948   9.503   2.715
 6327SOL    HW120820  11.034   9.534   2.689
 6327SOL    HW220821  10.928   9.432   2.653
 6328SOL     OW20822  14.197   2.405  11.171
 6328SOL    HW120823  14.217   2.391  11.078
 6328SOL    HW220824  14.119   2.352  11.186
 6329SOL     OW20825   4.655   7.281   7.129
 6329SOL    HW120826   4.678   7.374   7.135
 6329SOL    HW220827   4.682   7.255   7.041
 6330SOL     OW20828   1.793  10.173   8.725
 6330SOL    HW120829   1.858  10.192   8.793
 6330SOL    HW220830   1.818  10.087   8.692
 6331SOL     OW20831   1.650   5.935   0.264
 6331SOL    HW120832   1.699   5.990   0.204
 6331SOL    HW220833   1.601   5.875   0.208
 6332SOL     OW20834  14.470   6.843   2.780
 6332SOL    HW120835  14.434   6.770   2.730
 6332SOL    HW220836  14.451   6.920   2.726
 6333SOL     OW20837   8.718   4.763   0.337
 6333SOL    HW120838   8.779   4.692   0.351
 6333SOL    HW220839   8.771   4.834   0.301
 6334SOL     OW20840  12.293  13.643  12.898
 6334SOL    HW120841  12.293  13.551  12.924
 6334SOL    HW220842  12.201  13.665  12.886
 6335SOL     OW20843  11.958   2.617   3.211
 6335SOL    HW120844  12.044   2.660   3.218
 6335SOL    HW220845  11.960   2.575   3.125
 6336SOL     OW20846  13.118   1.511   1.311
 6336SOL    HW120847  13.109   1.461   1.392
 6336SOL    HW220848  13.213   1.513   1.294
 6337SOL     OW20849  13.957   7.233   6.544
 6337SOL    HW120850  13.995   7.171   6.606
 6337SOL    HW220851  14.015   7.309   6.547
 6338SOL     OW20852   6.590  10.310   3.808
 6338SOL    HW120853   6.584  10.222   3.771
 6338SOL    HW220854   6.683  10.332   3.802
 6339SOL     OW20855  13.810   4.851   5.168
 6339SOL    HW120856  13.884   4.884   5.117
 6339SOL    HW220857  13.828   4.879   5.257
 6340SOL     OW20858   2.017   9.902  10.791
 6340SOL    HW120859   2.081   9.831  10.799
 6340SOL    HW220860   1.996   9.926  10.881
 6341SOL     OW20861   3.486   6.325  10.647
 6341SOL    HW120862   3.476   6.279  10.730
 6341SOL    HW220863   3.504   6.256  10.583
 6342SOL     OW20864  11.741   8.168  11.256
 6342SOL    HW120865  11.699   8.254  11.257
 6342SOL    HW220866  11.829   8.184  11.224
 6343SOL     OW20867   7.159   6.003   2.156
 6343SOL    HW120868   7.131   6.094   2.147
 6343SOL    HW220869   7.221   6.004   2.229
 6344SOL     OW20870   6.619  10.204  12.639
 6344SOL    HW120871   6.673  10.278  12.666
 6344SOL    HW220872   6.649  10.131  12.693
 6345SOL     OW20873   0.707   0.244   1.889
 6345SOL    HW120874   0.663   0.313   1.938
 6345SOL    HW220875   0.647   0.170   1.892
 6346SOL     OW20876   2.295   8.387   9.528
 6346SOL    HW120877   2.305   8.437   9.609
 6346SOL    HW220878   2.307   8.296   9.554
 6347SOL     OW20879   8.261  10.467   0.150
 6347SOL    HW120880   8.262  10.554   0.190
 6347SOL    HW220881   8.327  10.417   0.199
 6348SOL     OW20882   3.213   3.522   9.152
 6348SOL    HW120883   3.260   3.439   9.155
 6348SOL    HW220884   3.270   3.579   9.100
 6349SOL     OW20885   2.374   7.821  10.431
 6349SOL    HW120886   2.399   7.747  10.375
 6349SOL    HW220887   2.409   7.898  10.386
 6350SOL     OW20888   7.260   3.859  10.706
 6350SOL    HW120889   7.336   3.887  10.655
 6350SOL    HW220890   7.263   3.763  10.702
 6351SOL     OW20891   0.313   1.660   7.905
 6351SOL    HW120892   0.351   1.741   7.940
 6351SOL    HW220893   0.322   1.597   7.976
 6352SOL     OW20894   9.232  14.085   1.461
 6352SOL    HW120895   9.266  14.164   1.419
 6352SOL    HW220896   9.147  14.111   1.495
 6353SOL     OW20897  12.615   9.759   6.691
 6353SOL    HW120898  12.694   9.811   6.699
 6353SOL    HW220899  12.591   9.767   6.598
 6354SOL     OW20900   9.792   4.269   7.288
 6354SOL    HW120901   9.730   4.261   7.361
 6354SOL    HW220902   9.758   4.208   7.222
 6355SOL     OW20903  12.446   5.866  12.222
 6355SOL    HW120904  12.468   5.959  12.222
 6355SOL    HW220905  12.495   5.829  12.149
 6356SOL     OW20906  12.778  11.148  13.603
 6356SOL    HW120907  12.793  11.234  13.642
 6356SOL    HW220908  12.815  11.086  13.666
 6357SOL     OW20909   4.479  10.491   2.792
 6357SOL    HW120910   4.446  10.576   2.821
 6357SOL    HW220911   4.400  10.438   2.777
 6358SOL     OW20912  11.217   3.480   2.977
 6358SOL    HW120913  11.259   3.539   2.914
 6358SOL    HW220914  11.130   3.517   2.990
 6359SOL     OW20915   0.061   8.004   4.373
 6359SOL    HW120916   0.123   7.938   4.343
 6359SOL    HW220917  14.863   7.954   4.413
 6360SOL     OW20918   2.169  14.556  11.983
 6360SOL    HW120919   2.132  14.599  11.906
 6360SOL    HW220920   2.182  14.628  12.045
 6361SOL     OW20921   0.616   8.058   3.636
 6361SOL    HW120922   0.599   8.130   3.697
 6361SOL    HW220923   0.530   8.019   3.620
 6362SOL     OW20924  10.029   9.895   7.112
 6362SOL    HW120925  10.121   9.915   7.093
 6362SOL    HW220926  10.014   9.929   7.200
 6363SOL     OW20927   7.590   3.515  10.870
 6363SOL    HW120928   7.656   3.466  10.821
 6363SOL    HW220929   7.511   3.462  10.864
 6364SOL     OW20930  13.517  11.003   2.159
 6364SOL    HW120931  13.567  10.982   2.237
 6364SOL    HW220932  13.572  10.975   2.086
 6365SOL     OW20933  13.993   5.352   3.257
 6365SOL    HW120934  14.062   5.374   3.320
 6365SOL    HW220935  14.007   5.260   3.237
 6366SOL     OW20936  13.979   5.117   1.429
 6366SOL    HW120937  14.033   5.195   1.437
 6366SOL    HW220938  13.907   5.130   1.491
 6367SOL     OW20939   7.040   3.962  10.549
 6367SOL    HW120940   7.099   3.934  10.619
 6367SOL    HW220941   7.023   4.054  10.566
 6368SOL     OW20942   6.146   1.137  11.098
 6368SOL    HW120943   6.235   1.163  11.123
 6368SOL    HW220944   6.153   1.043  11.080
 6369SOL     OW20945  10.276   3.573   5.195
 6369SOL    HW120946  10.244   3.663   5.187
 6369SOL    HW220947  10.371   3.581   5.187
 6370SOL     OW20948   1.225  11.928   3.893
 6370SOL    HW120949   1.154  11.966   3.943
 6370SOL    HW220950   1.262  12.001   3.843
 6371SOL     OW20951   6.938  12.561   6.375
 6371SOL    HW120952   6.896  12.477   6.359
 6371SOL    HW220953   6.995  12.574   6.299
 6372SOL     OW20954   4.153  13.845   2.860
 6372SOL    HW120955   4.171  13.772   2.920
 6372SOL    HW220956   4.195  13.820   2.778
 6373SOL     OW20957   5.523   9.327  14.453
 6373SOL    HW120958   5.451   9.282  14.409
 6373SOL    HW220959   5.596   9.266  14.448
 6374SOL     OW20960  12.621   7.038   0.011
 6374SOL    HW120961  12.640   7.115  14.831
 6374SOL    HW220962  12.545   6.998  14.842
 6375SOL     OW20963  11.897  10.557  13.212
 6375SOL    HW120964  11.859  10.584  13.128
 6375SOL    HW220965  11.965  10.623  13.228
 6376SOL     OW20966  12.234   8.038   9.754
 6376SOL    HW120967  12.261   8.027   9.846
 6376SOL    HW220968  12.299   7.989   9.704
 6377SOL     OW20969  11.605   1.866  12.412
 6377SOL    HW120970  11.626   1.937  12.351
 6377SOL    HW220971  11.639   1.787  12.369
 6378SOL     OW20972   4.362   0.237   0.822
 6378SOL    HW120973   4.437   0.200   0.868
 6378SOL    HW220974   4.316   0.289   0.889
 6379SOL     OW20975  11.010  13.573   9.370
 6379SOL    HW120976  11.014  13.478   9.355
 6379SOL    HW220977  11.095  13.595   9.409
 6380SOL     OW20978   9.898  14.106   4.127
 6380SOL    HW120979   9.916  14.093   4.221
 6380SOL    HW220980   9.825  14.167   4.125
 6381SOL     OW20981   0.202  10.461   3.720
 6381SOL    HW120982   0.291  10.490   3.738
 6381SOL    HW220983   0.147  10.533   3.749
 6382SOL     OW20984  13.448   3.743   0.283
 6382SOL    HW120985  13.368   3.745   0.336
 6382SOL    HW220986  13.458   3.652   0.258
 6383SOL     OW20987   2.378   9.791   0.540
 6383SOL    HW120988   2.426   9.733   0.599
 6383SOL    HW220989   2.444   9.820   0.476
 6384SOL     OW20990  13.594   7.013  12.019
 6384SOL    HW120991  13.610   7.003  11.926
 6384SOL    HW220992  13.651   7.086  12.046
 6385SOL     OW20993   1.196  11.435   9.052
 6385SOL    HW120994   1.125  11.391   9.098
 6385SOL    HW220995   1.276  11.402   9.094
 6386SOL     OW20996   1.109   7.268   7.006
 6386SOL    HW120997   1.051   7.266   7.081
 6386SOL    HW220998   1.066   7.215   6.939
 6387SOL     OW20999  13.331   5.333   7.063
 6387SOL    HW121000  13.346   5.406   7.003
 6387SOL    HW221001  13.298   5.374   7.143
 6388SOL     OW21002   7.550   1.562   2.176
 6388SOL    HW121003   7.632   1.561   2.224
 6388SOL    HW221004   7.509   1.645   2.200
 6389SOL     OW21005   0.799  14.776   3.632
 6389SOL    HW121006   0.782  14.800   3.541
 6389SOL    HW221007   0.859  14.701   3.627
 6390SOL     OW21008   5.794  11.913  10.333
 6390SOL    HW121009   5.786  11.822  10.303
 6390SOL    HW221010   5.742  11.963  10.270
 6391SOL     OW21011   1.846   3.626   9.748
 6391SOL    HW121012   1.880   3.674   9.672
 6391SOL    HW221013   1.788   3.689   9.792
 6392SOL     OW21014   6.021   9.664  12.338
 6392SOL    HW121015   5.976   9.606  12.400
 6392SOL    HW221016   5.971   9.745  12.341
 6393SOL     OW21017   8.769   6.392   6.011
 6393SOL    HW121018   8.703   6.453   5.977
 6393SOL    HW221019   8.818   6.444   6.075
 6394SOL     OW21020  13.148   9.124  13.401
 6394SOL    HW121021  13.055   9.108  13.388
 6394SOL    HW221022  13.162   9.115  13.495
 6395SOL     OW21023  10.976   0.495   9.678
 6395SOL    HW121024  11.057   0.543   9.662
 6395SOL    HW221025  10.912   0.537   9.621
 6396SOL     OW21026  10.760   6.823   4.675
 6396SOL    HW121027  10.807   6.902   4.703
 6396SOL    HW221028  10.668   6.842   4.693
 6397SOL     OW21029  12.060   7.414   8.572
 6397SOL    HW121030  12.104   7.424   8.488
 6397SOL    HW221031  12.081   7.495   8.619
 6398SOL     OW21032   8.073   4.514   8.980
 6398SOL    HW121033   8.149   4.565   8.952
 6398SOL    HW221034   8.076   4.516   9.075
 6399SOL     OW21035  13.599   4.135   5.241
 6399SOL    HW121036  13.623   4.047   5.211
 6399SOL    HW221037  13.680   4.185   5.233
 6400SOL     OW21038   8.087  10.175  14.547
 6400SOL    HW121039   8.056  10.134  14.629
 6400SOL    HW221040   8.170  10.216  14.571
 6401SOL     OW21041   6.126  14.481  10.463
 6401SOL    HW121042   6.147  14.435  10.545
 6401SOL    HW221043   6.041  14.522  10.480
 6402SOL     OW21044  13.647  13.110   1.660
 6402SOL    HW121045  13.561  13.092   1.698
 6402SOL    HW221046  13.627  13.144   1.572
 6403SOL     OW21047  14.593  11.389   6.779
 6403SOL    HW121048  14.521  11.407   6.840
 6403SOL    HW221049  14.635  11.310   6.814
 6404SOL     OW21050   9.118   6.583   6.603
 6404SOL    HW121051   9.144   6.564   6.693
 6404SOL    HW221052   9.049   6.649   6.612
 6405SOL     OW21053   3.828  12.400   0.324
 6405SOL    HW121054   3.915  12.373   0.354
 6405SOL    HW221055   3.772  12.325   0.343
 6406SOL     OW21056   6.742   5.081  10.616
 6406SOL    HW121057   6.759   5.162  10.567
 6406SOL    HW221058   6.658   5.098  10.660
 6407SOL     OW21059   2.642   1.067  14.722
 6407SOL    HW121060   2.725   1.114  14.717
 6407SOL    HW221061   2.653   0.992  14.664
 6408SOL     OW21062  14.091   8.767   4.890
 6408SOL    HW121063  14.087   8.736   4.980
 6408SOL    HW221064  14.181   8.797   4.878
 6409SOL     OW21065   6.450   4.712  11.048
 6409SOL    HW121066   6.527   4.731  11.101
 6409SOL    HW221067   6.484   4.694  10.960
 6410SOL     OW21068   2.676   0.514  12.225
 6410SOL    HW121069   2.693   0.548  12.313
 6410SOL    HW221070   2.694   0.420  12.233
 6411SOL     OW21071   5.880   5.721   6.751
 6411SOL    HW121072   5.823   5.717   6.674
 6411SOL    HW221073   5.946   5.654   6.735
 6412SOL     OW21074   0.178   8.625   6.911
 6412SOL    HW121075   0.198   8.701   6.966
 6412SOL    HW221076   0.083   8.626   6.901
 6413SOL     OW21077  10.661   8.166   9.985
 6413SOL    HW121078  10.735   8.208  10.028
 6413SOL    HW221079  10.589   8.174  10.046
 6414SOL     OW21080   7.299  12.711  11.655
 6414SOL    HW121081   7.358  12.635  11.656
 6414SOL    HW221082   7.354  12.784  11.684
 6415SOL     OW21083  11.419  14.193   4.556
 6415SOL    HW121084  11.399  14.287   4.558
 6415SOL    HW221085  11.411  14.165   4.647
 6416SOL     OW21086   6.189  14.104   5.095
 6416SOL    HW121087   6.257  14.155   5.051
 6416SOL    HW221088   6.155  14.162   5.163
 6417SOL     OW21089   9.653   9.562   8.227
 6417SOL    HW121090   9.705   9.607   8.294
 6417SOL    HW221091   9.718   9.524   8.168
 6418SOL     OW21092   3.370  12.352   5.611
 6418SOL    HW121093   3.462  12.324   5.609
 6418SOL    HW221094   3.320  12.272   5.598
 6419SOL     OW21095   1.152   7.587   8.708
 6419SOL    HW121096   1.123   7.578   8.799
 6419SOL    HW221097   1.079   7.554   8.656
 6420SOL     OW21098  12.815   8.140   2.680
 6420SOL    HW121099  12.795   8.068   2.740
 6420SOL    HW221100  12.800   8.219   2.731
 6421SOL     OW21101   0.843   2.622   2.553
 6421SOL    HW121102   0.773   2.601   2.492
 6421SOL    HW221103   0.815   2.703   2.595
 6422SOL     OW21104   2.902  10.255   2.059
 6422SOL    HW121105   2.990  10.216   2.062
 6422SOL    HW221106   2.899  10.300   1.974
 6423SOL     OW21107   5.789   8.948   8.183
 6423SOL    HW121108   5.779   8.886   8.255
 6423SOL    HW221109   5.764   9.033   8.221
 6424SOL     OW21110  11.627   0.939  12.698
 6424SOL    HW121111  11.559   0.978  12.753
 6424SOL    HW221112  11.595   0.851  12.680
 6425SOL     OW21113   4.906  13.613  12.314
 6425SOL    HW121114   4.967  13.556  12.268
 6425SOL    HW221115   4.866  13.667  12.246
 6426SOL     OW21116   2.110   2.855  13.069
 6426SOL    HW121117   2.162   2.855  12.989
 6426SOL    HW221118   2.050   2.781  13.059
 6427SOL     OW21119  11.681   4.022  10.580
 6427SOL    HW121120  11.767   3.994  10.611
 6427SOL    HW221121  11.677   3.990  10.490
 6428SOL     OW21122   8.238   5.484  11.170
 6428SOL    HW121123   8.255   5.544  11.243
 6428SOL    HW221124   8.269   5.531  11.093
 6429SOL     OW21125   4.013  12.241   3.469
 6429SOL    HW121126   3.929  12.196   3.477
 6429SOL    HW221127   3.992  12.322   3.423
 6430SOL     OW21128   6.377  10.452  11.506
 6430SOL    HW121129   6.283  10.438  11.498
 6430SOL    HW221130   6.390  10.477  11.597
 6431SOL     OW21131   7.968   1.646   5.105
 6431SOL    HW121132   7.891   1.704   5.105
 6431SOL    HW221133   8.013   1.667   5.024
 6432SOL     OW21134  14.168   8.020   8.284
 6432SOL    HW121135  14.147   8.111   8.305
 6432SOL    HW221136  14.165   8.016   8.188
 6433SOL     OW21137  12.180  14.061  12.012
 6433SOL    HW121138  12.274  14.050  12.028
 6433SOL    HW221139  12.173  14.065  11.916
 6434SOL     OW21140   6.686   3.495   8.513
 6434SOL    HW121141   6.681   3.447   8.430
 6434SOL    HW221142   6.598   3.529   8.527
 6435SOL     OW21143   0.660   3.850  12.258
 6435SOL    HW121144   0.624   3.938  12.268
 6435SOL    HW221145   0.585   3.796  12.233
 6436SOL     OW21146  11.124  11.442   7.728
 6436SOL    HW121147  11.099  11.363   7.681
 6436SOL    HW221148  11.193  11.414   7.787
 6437SOL     OW21149  14.278   1.916   8.227
 6437SOL    HW121150  14.228   1.977   8.283
 6437SOL    HW221151  14.364   1.912   8.268
 6438SOL     OW21152   3.567  11.189  10.695
 6438SOL    HW121153   3.633  11.258  10.706
 6438SOL    HW221154   3.576  11.134  10.773
 6439SOL     OW21155   8.018  14.109  14.596
 6439SOL    HW121156   8.044  14.180  14.538
 6439SOL    HW221157   7.983  14.152  14.674
 6440SOL     OW21158  10.170   1.240   2.794
 6440SOL    HW121159  10.086   1.259   2.836
 6440SOL    HW221160  10.182   1.145   2.804
 6441SOL     OW21161   4.372  12.957   6.339
 6441SOL    HW121162   4.307  13.021   6.367
 6441SOL    HW221163   4.456  13.000   6.354
 6442SOL     OW21164   0.486   2.886  14.473
 6442SOL    HW121165   0.477   2.818  14.407
 6442SOL    HW221166   0.529   2.959  14.428
 6443SOL     OW21167   1.766   3.287   8.644
 6443SOL    HW121168   1.775   3.230   8.567
 6443SOL    HW221169   1.706   3.356   8.616
 6444SOL     OW21170   3.291  10.837  12.891
 6444SOL    HW121171   3.221  10.827  12.825
 6444SOL    HW221172   3.358  10.888  12.846
 6445SOL     OW21173   7.973   6.998   5.806
 6445SOL    HW121174   8.009   6.921   5.848
 6445SOL    HW221175   8.035   7.068   5.828
 6446SOL     OW21176   9.143   0.833   7.473
 6446SOL    HW121177   9.082   0.834   7.547
 6446SOL    HW221178   9.178   0.743   7.472
 6447SOL     OW21179  12.767   9.751   1.175
 6447SOL    HW121180  12.749   9.668   1.220
 6447SOL    HW221181  12.829   9.797   1.232
 6448SOL     OW21182   4.561   8.997  14.843
 6448SOL    HW121183   4.476   9.036  14.823
 6448SOL    HW221184   4.625   9.066  14.823
 6449SOL     OW21185  12.979   2.013   9.214
 6449SOL    HW121186  13.027   2.077   9.267
 6449SOL    HW221187  12.968   2.056   9.129
 6450SOL     OW21188  13.739   2.217   4.706
 6450SOL    HW121189  13.828   2.214   4.671
 6450SOL    HW221190  13.692   2.150   4.657
 6451SOL     OW21191   2.303  12.991   9.332
 6451SOL    HW121192   2.266  13.055   9.271
 6451SOL    HW221193   2.372  12.947   9.283
 6452SOL     OW21194  10.011   0.443   6.535
 6452SOL    HW121195  10.017   0.527   6.582
 6452SOL    HW221196  10.099   0.427   6.502
 6453SOL     OW21197   6.944   4.022   4.096
 6453SOL    HW121198   6.850   4.027   4.113
 6453SOL    HW221199   6.951   4.009   4.001
 6454SOL     OW21200   7.808  10.247  14.331
 6454SOL    HW121201   7.735  10.185  14.327
 6454SOL    HW221202   7.880  10.197  14.368
 6455SOL     OW21203  11.649  13.983  13.762
 6455SOL    HW121204  11.570  13.984  13.708
 6455SOL    HW221205  11.718  13.954  13.703
 6456SOL     OW21206   7.488  14.267   3.658
 6456SOL    HW121207   7.472  14.346   3.605
 6456SOL    HW221208   7.526  14.301   3.739
 6457SOL     OW21209   4.226   9.968   3.114
 6457SOL    HW121210   4.315   9.985   3.081
 6457SOL    HW221211   4.207  10.043   3.170
 6458SOL     OW21212  10.658   0.479   4.644
 6458SOL    HW121213  10.700   0.490   4.730
 6458SOL    HW221214  10.586   0.418   4.661
 6459SOL     OW21215   2.199   4.874   4.712
 6459SOL    HW121216   2.218   4.893   4.804
 6459SOL    HW221217   2.285   4.873   4.670
 6460SOL     OW21218   9.887   5.552  11.039
 6460SOL    HW121219   9.869   5.639  11.003
 6460SOL    HW221220   9.873   5.493  10.965
 6461SOL     OW21221   5.874  13.519   5.194
 6461SOL    HW121222   5.883  13.614   5.192
 6461SOL    HW221223   5.885  13.496   5.287
 6462SOL     OW21224   6.849   5.219   2.940
 6462SOL    HW121225   6.890   5.304   2.961
 6462SOL    HW221226   6.843   5.219   2.844
 6463SOL     OW21227  14.115   2.224   2.562
 6463SOL    HW121228  14.092   2.229   2.469
 6463SOL    HW221229  14.210   2.219   2.563
 6464SOL     OW21230   1.584   5.645  10.458
 6464SOL    HW121231   1.596   5.649  10.363
 6464SOL    HW221232   1.526   5.718  10.477
 6465SOL     OW21233  13.530   2.351   6.923
 6465SOL    HW121234  13.580   2.346   6.841
 6465SOL    HW221235  13.485   2.267   6.929
 6466SOL     OW21236  11.233  10.693  10.416
 6466SOL    HW121237  11.152  10.666  10.459
 6466SOL    HW221238  11.205  10.723  10.329
 6467SOL     OW21239  10.218   8.728   3.835
 6467SOL    HW121240  10.307   8.700   3.856
 6467SOL    HW221241  10.162   8.677   3.894
 6468SOL     OW21242  14.306   0.248   7.490
 6468SOL    HW121243  14.241   0.254   7.420
 6468SOL    HW221244  14.329   0.155   7.492
 6469SOL     OW21245  12.009   8.292  10.457
 6469SOL    HW121246  11.917   8.314  10.470
 6469SOL    HW221247  12.011   8.248  10.372
 6470SOL     OW21248  11.592  13.155   7.133
 6470SOL    HW121249  11.499  13.138   7.150
 6470SOL    HW221250  11.592  13.221   7.064
 6471SOL     OW21251   0.278   6.502  11.234
 6471SOL    HW121252   0.325   6.504  11.150
 6471SOL    HW221253   0.312   6.577  11.282
 6472SOL     OW21254   7.345   9.417   2.981
 6472SOL    HW121255   7.294   9.342   3.011
 6472SOL    HW221256   7.412   9.380   2.925
 6473SOL     OW21257   7.902   9.139   8.956
 6473SOL    HW121258   7.891   9.173   9.045
 6473SOL    HW221259   7.921   9.046   8.968
 6474SOL     OW21260  11.544   1.831   4.457
 6474SOL    HW121261  11.451   1.821   4.435
 6474SOL    HW221262  11.590   1.806   4.377
 6475SOL     OW21263  11.594   3.734  10.116
 6475SOL    HW121264  11.633   3.761  10.032
 6475SOL    HW221265  11.669   3.703  10.167
 6476SOL     OW21266  12.655   6.386   7.389
 6476SOL    HW121267  12.657   6.323   7.461
 6476SOL    HW221268  12.744   6.389   7.356
 6477SOL     OW21269   4.461   8.656  10.636
 6477SOL    HW121270   4.514   8.714  10.690
 6477SOL    HW221271   4.418   8.715  10.573
 6478SOL     OW21272   5.013   1.300  14.519
 6478SOL    HW121273   5.050   1.236  14.459
 6478SOL    HW221274   4.920   1.305  14.496
 6479SOL     OW21275   2.437   5.026   3.866
 6479SOL    HW121276   2.439   4.961   3.796
 6479SOL    HW221277   2.359   5.004   3.917
 6480SOL     OW21278   1.814   4.665  10.685
 6480SOL    HW121279   1.888   4.608  10.707
 6480SOL    HW221280   1.853   4.738  10.636
 6481SOL     OW21281   8.899   2.450   4.468
 6481SOL    HW121282   8.896   2.458   4.373
 6481SOL    HW221283   8.868   2.361   4.486
 6482SOL     OW21284   5.230   6.120   9.277
 6482SOL    HW121285   5.254   6.079   9.194
 6482SOL    HW221286   5.290   6.194   9.285
 6483SOL     OW21287   8.463  14.073   8.670
 6483SOL    HW121288   8.416  14.074   8.586
 6483SOL    HW221289   8.555  14.072   8.645
 6484SOL     OW21290  12.854  10.317   4.191
 6484SOL    HW121291  12.873  10.354   4.277
 6484SOL    HW221292  12.867  10.223   4.201
 6485SOL     OW21293  13.370   4.237   3.260
 6485SOL    HW121294  13.308   4.184   3.310
 6485SOL    HW221295  13.456   4.207   3.290
 6486SOL     OW21296   7.440   4.200   3.468
 6486SOL    HW121297   7.467   4.248   3.546
 6486SOL    HW221298   7.425   4.111   3.499
 6487SOL     OW21299  13.158   7.674   1.161
 6487SOL    HW121300  13.069   7.645   1.140
 6487SOL    HW221301  13.165   7.761   1.122
 6488SOL     OW21302   1.246  14.002   4.792
 6488SOL    HW121303   1.267  14.020   4.700
 6488SOL    HW221304   1.161  14.043   4.806
 6489SOL     OW21305   4.032  10.960   6.735
 6489SOL    HW121306   3.942  10.975   6.707
 6489SOL    HW221307   4.025  10.943   6.829
 6490SOL     OW21308   9.573   1.219   0.397
 6490SOL    HW121309   9.488   1.229   0.440
 6490SOL    HW221310   9.560   1.147   0.335
 6491SOL     OW21311   0.240   1.418   4.523
 6491SOL    HW121312   0.216   1.475   4.449
 6491SOL    HW221313   0.158   1.406   4.572
 6492SOL     OW21314   5.757   7.786   8.744
 6492SOL    HW121315   5.805   7.723   8.691
 6492SOL    HW221316   5.777   7.761   8.835
 6493SOL     OW21317   2.641   1.543   1.331
 6493SOL    HW121318   2.737   1.547   1.337
 6493SOL    HW221319   2.619   1.610   1.267
 6494SOL     OW21320   6.642   4.421   5.561
 6494SOL    HW121321   6.605   4.367   5.630
 6494SOL    HW221322   6.737   4.411   5.571
 6495SOL     OW21323   7.682  14.613   5.036
 6495SOL    HW121324   7.732  14.694   5.041
 6495SOL    HW221325   7.664  14.601   4.943
 6496SOL     OW21326   2.473   8.126  10.512
 6496SOL    HW121327   2.491   8.202  10.567
 6496SOL    HW221328   2.551   8.117  10.457
 6497SOL     OW21329   4.921  14.380  14.311
 6497SOL    HW121330   4.914  14.475  14.323
 6497SOL    HW221331   4.833  14.351  14.288
 6498SOL     OW21332  10.267   1.660  10.749
 6498SOL    HW121333  10.317   1.581  10.731
 6498SOL    HW221334  10.311   1.729  10.700
 6499SOL     OW21335   4.689   2.721   6.405
 6499SOL    HW121336   4.664   2.638   6.446
 6499SOL    HW221337   4.654   2.788   6.463
 6500SOL     OW21338  11.452   7.507  13.155
 6500SOL    HW121339  11.434   7.528  13.246
 6500SOL    HW221340  11.366   7.512  13.112
 6501SOL     OW21341   0.058   2.866   4.036
 6501SOL    HW121342   0.093   2.828   4.116
 6501SOL    HW221343   0.045   2.791   3.977
 6502SOL     OW21344   4.158  14.359  14.399
 6502SOL    HW121345   4.188  14.352  14.490
 6502SOL    HW221346   4.222  14.417  14.358
 6503SOL     OW21347  13.529   0.848   0.215
 6503SOL    HW121348  13.549   0.772   0.159
 6503SOL    HW221349  13.571   0.922   0.172
 6504SOL     OW21350   0.229   8.262   3.678
 6504SOL    HW121351   0.174   8.268   3.756
 6504SOL    HW221352   0.182   8.201   3.621
 6505SOL     OW21353   4.551   5.604   3.811
 6505SOL    HW121354   4.535   5.607   3.717
 6505SOL    HW221355   4.498   5.676   3.846
 6506SOL     OW21356   0.030   5.718  11.852
 6506SOL    HW121357  14.811   5.696  11.835
 6506SOL    HW221358   0.027   5.808  11.886
 6507SOL     OW21359   6.906   8.532   0.720
 6507SOL    HW121360   6.820   8.572   0.733
 6507SOL    HW221361   6.968   8.602   0.738
 6508SOL     OW21362   2.863  10.791   0.194
 6508SOL    HW121363   2.912  10.873   0.182
 6508SOL    HW221364   2.836  10.766   0.105
 6509SOL     OW21365   2.659  14.621   9.293
 6509SOL    HW121366   2.597  14.688   9.321
 6509SOL    HW221367   2.605  14.544   9.276
 6510SOL     OW21368   1.712  13.870   6.184
 6510SOL    HW121369   1.750  13.944   6.231
 6510SOL    HW221370   1.773  13.798   6.199
 6511SOL     OW21371   6.177   8.630   0.341
 6511SOL    HW121372   6.266   8.621   0.375
 6511SOL    HW221373   6.182   8.594   0.252
 6512SOL     OW21374  12.142  12.091   5.037
 6512SOL    HW121375  12.180  12.025   5.096
 6512SOL    HW221376  12.142  12.049   4.951
 6513SOL     OW21377   6.836  14.230  13.215
 6513SOL    HW121378   6.897  14.204  13.146
 6513SOL    HW221379   6.812  14.320  13.194
 6514SOL     OW21380  11.804  10.641   6.978
 6514SOL    HW121381  11.762  10.661   7.062
 6514SOL    HW221382  11.741  10.587   6.932
 6515SOL     OW21383   4.090   1.422   3.306
 6515SOL    HW121384   4.089   1.404   3.212
 6515SOL    HW221385   4.168   1.477   3.318
 6516SOL     OW21386   3.330   4.064   6.777
 6516SOL    HW121387   3.345   3.995   6.842
 6516SOL    HW221388   3.345   4.146   6.824
 6517SOL     OW21389   5.620   3.304   6.928
 6517SOL    HW121390   5.705   3.330   6.964
 6517SOL    HW221391   5.600   3.221   6.971
 6518SOL     OW21392   1.516   8.860   2.258
 6518SOL    HW121393   1.439   8.811   2.230
 6518SOL    HW221394   1.589   8.800   2.242
 6519SOL     OW21395   5.447   8.152  12.615
 6519SOL    HW121396   5.535   8.161  12.580
 6519SOL    HW221397   5.454   8.085  12.682
 6520SOL     OW21398   1.467  12.938  11.418
 6520SOL    HW121399   1.378  12.918  11.446
 6520SOL    HW221400   1.520  12.922  11.496
 6521SOL     OW21401   2.096   2.111  13.281
 6521SOL    HW121402   2.107   2.189  13.335
 6521SOL    HW221403   2.171   2.113  13.221
 6522SOL     OW21404   1.652  10.460  13.232
 6522SOL    HW121405   1.725  10.502  13.186
 6522SOL    HW221406   1.604  10.414  13.163
 6523SOL     OW21407   2.176   3.666   6.569
 6523SOL    HW121408   2.157   3.751   6.530
 6523SOL    HW221409   2.127   3.604   6.515
 6524SOL     OW21410   1.457  12.811   7.305
 6524SOL    HW121411   1.516  12.878   7.340
 6524SOL    HW221412   1.369  12.845   7.325
 6525SOL     OW21413   9.232  14.809   2.221
 6525SOL    HW121414   9.292  14.776   2.288
 6525SOL    HW221415   9.279   0.008   2.180
 6526SOL     OW21416   0.105   5.267  12.835
 6526SOL    HW121417   0.192   5.242  12.806
 6526SOL    HW221418   0.073   5.192  12.886
 6527SOL     OW21419  12.305  12.870  12.205
 6527SOL    HW121420  12.321  12.857  12.112
 6527SOL    HW221421  12.373  12.820  12.249
 6528SOL     OW21422   3.320   1.491  10.940
 6528SOL    HW121423   3.330   1.459  11.030
 6528SOL    HW221424   3.393   1.551  10.927
 6529SOL     OW21425   0.142  13.845   4.383
 6529SOL    HW121426   0.204  13.846   4.311
 6529SOL    HW221427   0.192  13.814   4.458
 6530SOL     OW21428   9.359   8.830   1.132
 6530SOL    HW121429   9.371   8.774   1.209
 6530SOL    HW221430   9.386   8.917   1.161
 6531SOL     OW21431   9.565   0.031   6.231
 6531SOL    HW121432   9.530  14.844   6.166
 6531SOL    HW221433   9.620   0.092   6.180
 6532SOL     OW21434  11.099  13.026   4.325
 6532SOL    HW121435  11.069  12.976   4.249
 6532SOL    HW221436  11.020  13.066   4.360
 6533SOL     OW21437   6.200  10.388   6.085
 6533SOL    HW121438   6.273  10.380   6.023
 6533SOL    HW221439   6.149  10.463   6.053
 6534SOL     OW21440   7.794   7.699   1.805
 6534SOL    HW121441   7.864   7.747   1.761
 6534SOL    HW221442   7.738   7.768   1.842
 6535SOL     OW21443   0.913  12.450  14.736
 6535SOL    HW121444   0.824  12.439  14.770
 6535SOL    HW221445   0.970  12.426  14.809
 6536SOL     OW21446  12.210  13.019  13.035
 6536SOL    HW121447  12.250  13.082  13.095
 6536SOL    HW221448  12.281  12.960  13.011
 6537SOL     OW21449   3.872  11.466   8.176
 6537SOL    HW121450   3.898  11.479   8.267
 6537SOL    HW221451   3.890  11.549   8.133
 6538SOL     OW21452   5.300   7.411   7.534
 6538SOL    HW121453   5.250   7.451   7.606
 6538SOL    HW221454   5.329   7.486   7.481
 6539SOL     OW21455  14.641  10.637   9.732
 6539SOL    HW121456  14.663  10.704   9.668
 6539SOL    HW221457  14.547  10.650   9.749
 6540SOL     OW21458  12.516   9.441   9.067
 6540SOL    HW121459  12.582   9.444   8.998
 6540SOL    HW221460  12.446   9.498   9.036
 6541SOL     OW21461   4.036   7.414   2.361
 6541SOL    HW121462   4.031   7.494   2.413
 6541SOL    HW221463   4.020   7.442   2.271
 6542SOL     OW21464   6.941   1.949   2.012
 6542SOL    HW121465   6.872   1.922   2.073
 6542SOL    HW221466   6.898   2.013   1.955
 6543SOL     OW21467   3.204  14.583   9.044
 6543SOL    HW121468   3.199  14.658   8.985
 6543SOL    HW221469   3.253  14.616   9.119
 6544SOL     OW21470   2.252   2.214   5.561
 6544SOL    HW121471   2.284   2.130   5.527
 6544SOL    HW221472   2.329   2.253   5.602
 6545SOL     OW21473   3.209   7.749   7.437
 6545SOL    HW121474   3.150   7.673   7.443
 6545SOL    HW221475   3.193   7.785   7.350
 6546SOL     OW21476   1.167   4.050   1.016
 6546SOL    HW121477   1.200   3.987   0.953
 6546SOL    HW221478   1.241   4.067   1.074
 6547SOL     OW21479   5.715   1.024   6.114
 6547SOL    HW121480   5.719   1.060   6.203
 6547SOL    HW221481   5.621   1.017   6.094
 6548SOL     OW21482   3.361  10.942   0.262
 6548SOL    HW121483   3.379  10.983   0.178
 6548SOL    HW221484   3.445  10.908   0.291
 6549SOL     OW21485  10.855   1.367   0.680
 6549SOL    HW121486  10.830   1.324   0.598
 6549SOL    HW221487  10.868   1.459   0.656
 6550SOL     OW21488  14.259   6.979  11.514
 6550SOL    HW121489  14.256   6.965  11.609
 6550SOL    HW221490  14.337   7.033  11.500
 6551SOL     OW21491  14.384  12.259  10.478
 6551SOL    HW121492  14.333  12.244  10.558
 6551SOL    HW221493  14.382  12.175  10.433
 6552SOL     OW21494  10.433   4.936   3.808
 6552SOL    HW121495  10.419   4.903   3.720
 6552SOL    HW221496  10.410   5.029   3.803
 6553SOL     OW21497   8.321  14.108  14.329
 6553SOL    HW121498   8.374  14.104  14.409
 6553SOL    HW221499   8.353  14.034  14.276
 6554SOL     OW21500  11.568  13.373   3.275
 6554SOL    HW121501  11.489  13.426   3.291
 6554SOL    HW221502  11.542  13.311   3.207
 6555SOL     OW21503   5.702   1.969   6.061
 6555SOL    HW121504   5.638   1.923   6.115
 6555SOL    HW221505   5.675   1.952   5.971
 6556SOL     OW21506  10.097   4.618  12.091
 6556SOL    HW121507  10.179   4.651  12.053
 6556SOL    HW221508  10.065   4.554  12.028
 6557SOL     OW21509   9.971   9.585  13.194
 6557SOL    HW121510   9.908   9.629  13.251
 6557SOL    HW221511  10.053   9.583  13.245
 6558SOL     OW21512   6.367   0.203   9.371
 6558SOL    HW121513   6.350   0.200   9.465
 6558SOL    HW221514   6.331   0.287   9.343
 6559SOL     OW21515   2.267  12.971   5.731
 6559SOL    HW121516   2.181  12.960   5.691
 6559SOL    HW221517   2.249  12.996   5.821
 6560SOL     OW21518   8.023   6.077   5.717
 6560SOL    HW121519   8.097   6.079   5.777
 6560SOL    HW221520   7.966   6.148   5.747
 6561SOL     OW21521   0.271   6.519   7.391
 6561SOL    HW121522   0.295   6.533   7.482
 6561SOL    HW221523   0.176   6.508   7.393
 6562SOL     OW21524   6.496   6.912   2.520
 6562SOL    HW121525   6.415   6.910   2.470
 6562SOL    HW221526   6.560   6.865   2.466
 6563SOL     OW21527  14.800   1.931   5.032
 6563SOL    HW121528  14.827   2.006   5.086
 6563SOL    HW221529   0.008   1.899   4.993
 6564SOL     OW21530   2.634   1.635   5.391
 6564SOL    HW121531   2.582   1.635   5.471
 6564SOL    HW221532   2.591   1.571   5.334
 6565SOL     OW21533   0.355   1.072  13.961
 6565SOL    HW121534   0.447   1.057  13.983
 6565SOL    HW221535   0.315   1.099  14.043
 6566SOL     OW21536  11.777   2.857   8.222
 6566SOL    HW121537  11.856   2.897   8.259
 6566SOL    HW221538  11.725   2.833   8.299
 6567SOL     OW21539   3.154   6.793  12.174
 6567SOL    HW121540   3.063   6.811  12.151
 6567SOL    HW221541   3.165   6.830  12.262
 6568SOL     OW21542   6.426   2.810  11.011
 6568SOL    HW121543   6.483   2.880  11.042
 6568SOL    HW221544   6.406   2.834  10.921
 6569SOL     OW21545   0.483   3.115  10.026
 6569SOL    HW121546   0.465   3.209  10.034
 6569SOL    HW221547   0.397   3.074  10.019
 6570SOL     OW21548  11.979  11.682   3.000
 6570SOL    HW121549  11.969  11.689   3.095
 6570SOL    HW221550  11.917  11.746   2.965
 6571SOL     OW21551  13.007   0.968  13.466
 6571SOL    HW121552  12.986   1.057  13.494
 6571SOL    HW221553  13.035   0.923  13.546
 6572SOL     OW21554  13.614   7.529   7.355
 6572SOL    HW121555  13.567   7.608   7.327
 6572SOL    HW221556  13.629   7.480   7.275
 6573SOL     OW21557  14.746   7.535  14.724
 6573SOL    HW121558  14.699   7.482  14.788
 6573SOL    HW221559  14.834   7.497  14.721
 6574SOL     OW21560  13.487  10.667  14.599
 6574SOL    HW121561  13.561  10.678  14.538
 6574SOL    HW221562  13.457  10.756  14.616
 6575SOL     OW21563   5.713  13.589   3.661
 6575SOL    HW121564   5.629  13.542   3.664
 6575SOL    HW221565   5.696  13.671   3.709
 6576SOL     OW21566   7.041  11.785   8.102
 6576SOL    HW121567   7.020  11.711   8.158
 6576SOL    HW221568   7.030  11.752   8.013
 6577SOL     OW21569  13.293   0.001   2.527
 6577SOL    HW121570  13.233  14.802   2.544
 6577SOL    HW221571  13.380  14.836   2.539
 6578SOL     OW21572   0.583   7.098   4.431
 6578SOL    HW121573   0.665   7.132   4.467
 6578SOL    HW221574   0.582   7.006   4.457
 6579SOL     OW21575  13.086  13.275   4.838
 6579SOL    HW121576  13.064  13.301   4.927
 6579SOL    HW221577  13.050  13.187   4.828
 6580SOL     OW21578  11.454   5.367   9.239
 6580SOL    HW121579  11.498   5.290   9.276
 6580SOL    HW221580  11.514   5.399   9.172
 6581SOL     OW21581   8.203  10.273  12.268
 6581SOL    HW121582   8.244  10.188  12.253
 6581SOL    HW221583   8.241  10.330  12.201
 6582SOL     OW21584   5.826   3.360   4.731
 6582SOL    HW121585   5.909   3.312   4.724
 6582SOL    HW221586   5.851   3.451   4.714
 6583SOL     OW21587   9.837   5.114   0.929
 6583SOL    HW121588   9.898   5.182   0.900
 6583SOL    HW221589   9.844   5.046   0.863
 6584SOL     OW21590  11.711   0.622   5.187
 6584SOL    HW121591  11.716   0.576   5.103
 6584SOL    HW221592  11.716   0.553   5.253
 6585SOL     OW21593   8.843  10.766   0.466
 6585SOL    HW121594   8.762  10.753   0.515
 6585SOL    HW221595   8.820  10.826   0.396
 6586SOL     OW21596  10.884   2.245  12.843
 6586SOL    HW121597  10.881   2.265  12.749
 6586SOL    HW221598  10.905   2.328  12.885
 6587SOL     OW21599   3.339  12.823   9.540
 6587SOL    HW121600   3.397  12.800   9.613
 6587SOL    HW221601   3.390  12.883   9.486
 6588SOL     OW21602   1.416  10.771   5.636
 6588SOL    HW121603   1.460  10.806   5.559
 6588SOL    HW221604   1.342  10.829   5.651
 6589SOL     OW21605   5.219  10.585   3.666
 6589SOL    HW121606   5.123  10.583   3.662
 6589SOL    HW221607   5.240  10.550   3.752
 6590SOL     OW21608   7.776   3.007  10.546
 6590SOL    HW121609   7.784   2.988  10.452
 6590SOL    HW221610   7.867   3.011  10.577
 6591SOL     OW21611  10.042  14.452   8.034
 6591SOL    HW121612  10.125  14.469   8.079
 6591SOL    HW221613   9.976  14.499   8.085
 6592SOL     OW21614   8.516   1.666  11.357
 6592SOL    HW121615   8.437   1.684  11.305
 6592SOL    HW221616   8.584   1.719  11.315
 6593SOL     OW21617   1.638   1.118   5.317
 6593SOL    HW121618   1.575   1.190   5.324
 6593SOL    HW221619   1.586   1.043   5.287
 6594SOL     OW21620  11.876   6.678   7.006
 6594SOL    HW121621  11.794   6.710   6.971
 6594SOL    HW221622  11.863   6.677   7.101
 6595SOL     OW21623   1.790  14.418   7.851
 6595SOL    HW121624   1.773  14.480   7.922
 6595SOL    HW221625   1.704  14.406   7.810
 6596SOL     OW21626   8.325   5.864   1.712
 6596SOL    HW121627   8.276   5.847   1.792
 6596SOL    HW221628   8.269   5.924   1.662
 6597SOL     OW21629   2.307   9.633   3.252
 6597SOL    HW121630   2.246   9.705   3.269
 6597SOL    HW221631   2.256   9.554   3.269
 6598SOL     OW21632  11.833   8.215  10.864
 6598SOL    HW121633  11.837   8.236  10.957
 6598SOL    HW221634  11.822   8.300  10.821
 6599SOL     OW21635   0.544  11.624   0.129
 6599SOL    HW121636   0.589  11.704   0.103
 6599SOL    HW221637   0.469  11.618   0.070
 6600SOL     OW21638  11.047   5.622   9.046
 6600SOL    HW121639  11.096   5.552   9.088
 6600SOL    HW221640  10.957   5.610   9.076
 6601SOL     OW21641   2.758   5.648   1.734
 6601SOL    HW121642   2.700   5.720   1.758
 6601SOL    HW221643   2.824   5.646   1.803
 6602SOL     OW21644  13.750  13.892   8.559
 6602SOL    HW121645  13.695  13.965   8.585
 6602SOL    HW221646  13.791  13.862   8.640
 6603SOL     OW21647   6.844  12.364  14.050
 6603SOL    HW121648   6.837  12.305  14.125
 6603SOL    HW221649   6.757  12.404  14.043
 6604SOL     OW21650   4.252   0.078   1.096
 6604SOL    HW121651   4.272  14.864   1.131
 6604SOL    HW221652   4.176   0.107   1.147
 6605SOL     OW21653   8.843   2.876  13.064
 6605SOL    HW121654   8.817   2.790  13.096
 6605SOL    HW221655   8.862   2.862  12.971
 6606SOL     OW21656   5.137   3.294  12.907
 6606SOL    HW121657   5.158   3.238  12.981
 6606SOL    HW221658   5.062   3.252  12.866
 6607SOL     OW21659  11.896  11.538  13.990
 6607SOL    HW121660  11.822  11.546  14.049
 6607SOL    HW221661  11.859  11.503  13.909
 6608SOL     OW21662   4.821   7.930   5.208
 6608SOL    HW121663   4.844   8.002   5.268
 6608SOL    HW221664   4.903   7.882   5.197
 6609SOL     OW21665   7.481  10.518   4.665
 6609SOL    HW121666   7.569  10.483   4.678
 6609SOL    HW221667   7.481  10.602   4.711
 6610SOL     OW21668   3.304  12.140   9.013
 6610SOL    HW121669   3.290  12.091   9.094
 6610SOL    HW221670   3.289  12.232   9.037
 6611SOL     OW21671   3.117   4.615  11.118
 6611SOL    HW121672   3.055   4.681  11.149
 6611SOL    HW221673   3.189   4.618  11.181
 6612SOL     OW21674   3.484  10.569  10.731
 6612SOL    HW121675   3.392  10.557  10.755
 6612SOL    HW221676   3.485  10.651  10.681
 6613SOL     OW21677   4.745   0.931  14.829
 6613SOL    HW121678   4.730   0.906  14.738
 6613SOL    HW221679   4.835   0.904  14.847
 6614SOL     OW21680  13.159  13.042  10.815
 6614SOL    HW121681  13.147  13.025  10.909
 6614SOL    HW221682  13.172  13.136  10.810
 6615SOL     OW21683   7.881   1.186   2.443
 6615SOL    HW121684   7.953   1.178   2.380
 6615SOL    HW221685   7.925   1.186   2.529
 6616SOL     OW21686  12.087  11.673  12.296
 6616SOL    HW121687  12.060  11.650  12.208
 6616SOL    HW221688  12.048  11.606  12.352
 6617SOL     OW21689  13.611   6.668   3.502
 6617SOL    HW121690  13.632   6.733   3.569
 6617SOL    HW221691  13.674   6.598   3.516
 6618SOL     OW21692   0.971   2.403   5.704
 6618SOL    HW121693   0.960   2.494   5.678
 6618SOL    HW221694   0.881   2.371   5.716
 6619SOL     OW21695  14.518   5.357  14.156
 6619SOL    HW121696  14.442   5.308  14.125
 6619SOL    HW221697  14.574   5.367  14.079
 6620SOL     OW21698  11.289   0.318   2.213
 6620SOL    HW121699  11.215   0.335   2.155
 6620SOL    HW221700  11.348   0.262   2.162
 6621SOL     OW21701   6.163   2.653   4.310
 6621SOL    HW121702   6.073   2.679   4.330
 6621SOL    HW221703   6.203   2.638   4.396
 6622SOL     OW21704   8.342  10.309   3.205
 6622SOL    HW121705   8.406  10.271   3.144
 6622SOL    HW221706   8.281  10.356   3.148
 6623SOL     OW21707  12.275   9.373   2.451
 6623SOL    HW121708  12.364   9.339   2.445
 6623SOL    HW221709  12.238   9.359   2.364
 6624SOL     OW21710  14.553   0.856  12.078
 6624SOL    HW121711  14.548   0.772  12.032
 6624SOL    HW221712  14.621   0.844  12.143
 6625SOL     OW21713  12.925  14.279  12.677
 6625SOL    HW121714  12.969  14.342  12.621
 6625SOL    HW221715  12.834  14.308  12.679
 6626SOL     OW21716   0.325   2.253  14.653
 6626SOL    HW121717   0.248   2.257  14.596
 6626SOL    HW221718   0.364   2.168  14.635
 6627SOL     OW21719  12.835  14.074  14.436
 6627SOL    HW121720  12.793  14.050  14.518
 6627SOL    HW221721  12.770  14.128  14.390
 6628SOL     OW21722  12.093   0.535   8.671
 6628SOL    HW121723  12.040   0.462   8.703
 6628SOL    HW221724  12.114   0.586   8.750
 6629SOL     OW21725  13.053  10.941  12.971
 6629SOL    HW121726  13.007  10.877  13.025
 6629SOL    HW221727  13.009  10.937  12.886
 6630SOL     OW21728   7.922   2.965   0.260
 6630SOL    HW121729   7.855   2.897   0.263
 6630SOL    HW221730   7.921   2.996   0.169
 6631SOL     OW21731  10.027  14.732   3.418
 6631SOL    HW121732  10.000  14.821   3.439
 6631SOL    HW221733   9.947  14.689   3.388
 6632SOL     OW21734   7.315   8.476   4.783
 6632SOL    HW121735   7.350   8.459   4.696
 6632SOL    HW221736   7.255   8.550   4.771
 6633SOL     OW21737  14.753   1.885   8.012
 6633SOL    HW121738  14.690   1.956   8.026
 6633SOL    HW221739  14.710   1.808   8.051
 6634SOL     OW21740   2.178   4.408   3.926
 6634SOL    HW121741   2.264   4.368   3.941
 6634SOL    HW221742   2.158   4.452   4.009
 6635SOL     OW21743  11.523   3.836   2.942
 6635SOL    HW121744  11.453   3.818   3.005
 6635SOL    HW221745  11.498   3.918   2.901
 6636SOL     OW21746   9.396  11.295  10.663
 6636SOL    HW121747   9.414  11.201  10.661
 6636SOL    HW221748   9.387  11.316  10.755
 6637SOL     OW21749  14.073  11.960   7.505
 6637SOL    HW121750  13.982  11.984   7.522
 6637SOL    HW221751  14.076  11.937   7.412
 6638SOL     OW21752   7.269   9.890   9.973
 6638SOL    HW121753   7.322   9.959  10.014
 6638SOL    HW221754   7.330   9.843   9.917
 6639SOL     OW21755   6.018  11.393   0.032
 6639SOL    HW121756   5.927  11.415   0.010
 6639SOL    HW221757   6.025  11.299   0.012
 6640SOL     OW21758   6.362   2.261  12.640
 6640SOL    HW121759   6.345   2.326  12.708
 6640SOL    HW221760   6.407   2.310  12.571
 6641SOL     OW21761   3.722  11.527   4.841
 6641SOL    HW121762   3.664  11.461   4.879
 6641SOL    HW221763   3.663  11.592   4.802
 6642SOL     OW21764   4.921   2.421   4.945
 6642SOL    HW121765   4.958   2.444   4.860
 6642SOL    HW221766   4.983   2.358   4.981
 6643SOL     OW21767   6.105   9.307   8.423
 6643SOL    HW121768   6.149   9.373   8.478
 6643SOL    HW221769   6.021   9.293   8.466
 6644SOL     OW21770  10.397  10.002   9.721
 6644SOL    HW121771  10.315   9.959   9.696
 6644SOL    HW221772  10.395  10.002   9.817
 6645SOL     OW21773   9.912  10.285  11.989
 6645SOL    HW121774   9.985  10.239  11.946
 6645SOL    HW221775   9.877  10.220  12.051
 6646SOL     OW21776   5.709  11.798   1.064
 6646SOL    HW121777   5.662  11.724   1.027
 6646SOL    HW221778   5.716  11.860   0.992
 6647SOL     OW21779   9.526   1.401   1.527
 6647SOL    HW121780   9.587   1.386   1.456
 6647SOL    HW221781   9.455   1.338   1.512
 6648SOL     OW21782   0.216   4.319  13.618
 6648SOL    HW121783   0.164   4.286  13.691
 6648SOL    HW221784   0.216   4.414  13.628
 6649SOL     OW21785   7.783   7.161   8.699
 6649SOL    HW121786   7.799   7.234   8.639
 6649SOL    HW221787   7.871   7.134   8.726
 6650SOL     OW21788   8.159  11.704   1.413
 6650SOL    HW121789   8.098  11.765   1.370
 6650SOL    HW221790   8.103  11.634   1.447
 6651SOL     OW21791   5.478  11.220   5.219
 6651SOL    HW121792   5.478  11.127   5.194
 6651SOL    HW221793   5.393  11.253   5.190
 6652SOL     OW21794  12.335   0.821   0.505
 6652SOL    HW121795  12.373   0.900   0.466
 6652SOL    HW221796  12.402   0.754   0.496
 6653SOL     OW21797  12.110   6.148   8.381
 6653SOL    HW121798  12.166   6.095   8.324
 6653SOL    HW221799  12.154   6.233   8.385
 6654SOL     OW21800  11.659   5.419   4.007
 6654SOL    HW121801  11.664   5.493   4.067
 6654SOL    HW221802  11.582   5.436   3.953
 6655SOL     OW21803   5.778   6.268   0.058
 6655SOL    HW121804   5.871   6.274   0.079
 6655SOL    HW221805   5.757   6.175   0.070
 6656SOL     OW21806  12.822   4.445  13.717
 6656SOL    HW121807  12.896   4.492  13.680
 6656SOL    HW221808  12.842   4.353  13.702
 6657SOL     OW21809   5.802  10.950  10.260
 6657SOL    HW121810   5.712  10.949  10.291
 6657SOL    HW221811   5.809  11.031  10.208
 6658SOL     OW21812   5.573  13.674   1.799
 6658SOL    HW121813   5.606  13.592   1.835
 6658SOL    HW221814   5.527  13.649   1.718
 6659SOL     OW21815   9.540   6.494   6.069
 6659SOL    HW121816   9.548   6.404   6.035
 6659SOL    HW221817   9.607   6.543   6.021
 6660SOL     OW21818  10.722   5.479   1.006
 6660SOL    HW121819  10.793   5.439   1.056
 6660SOL    HW221820  10.668   5.405   0.978
 6661SOL     OW21821   4.124   3.612   1.497
 6661SOL    HW121822   4.104   3.661   1.417
 6661SOL    HW221823   4.183   3.542   1.468
 6662SOL     OW21824   3.002   0.026   5.386
 6662SOL    HW121825   2.962   0.105   5.351
 6662SOL    HW221826   2.935  14.832   5.375
 6663SOL     OW21827   9.131   2.159   8.480
 6663SOL    HW121828   9.191   2.085   8.470
 6663SOL    HW221829   9.183   2.235   8.452
 6664SOL     OW21830   3.234   1.480  12.933
 6664SOL    HW121831   3.142   1.470  12.958
 6664SOL    HW221832   3.232   1.488  12.838
 6665SOL     OW21833   6.053   8.134   8.153
 6665SOL    HW121834   6.114   8.196   8.113
 6665SOL    HW221835   5.967   8.171   8.137
 6666SOL     OW21836  11.081   8.044   4.728
 6666SOL    HW121837  11.142   8.089   4.787
 6666SOL    HW221838  10.998   8.045   4.775
 6667SOL     OW21839   6.350  10.272   9.745
 6667SOL    HW121840   6.258  10.246   9.734
 6667SOL    HW221841   6.368  10.258   9.838
 6668SOL     OW21842   2.951   7.264   9.846
 6668SOL    HW121843   2.982   7.345   9.806
 6668SOL    HW221844   2.863   7.251   9.810
 6669SOL     OW21845   0.734   0.721   7.582
 6669SOL    HW121846   0.654   0.730   7.529
 6669SOL    HW221847   0.788   0.796   7.556
 6670SOL     OW21848   4.624   6.740   7.793
 6670SOL    HW121849   4.618   6.658   7.744
 6670SOL    HW221850   4.625   6.713   7.885
 6671SOL     OW21851   1.089  12.213  13.864
 6671SOL    HW121852   1.153  12.142  13.870
 6671SOL    HW221853   1.062  12.212  13.772
 6672SOL     OW21854  10.458  11.868   3.321
 6672SOL    HW121855  10.420  11.839   3.238
 6672SOL    HW221856  10.423  11.807   3.386
 6673SOL     OW21857   8.494   6.518  14.591
 6673SOL    HW121858   8.521   6.459  14.520
 6673SOL    HW221859   8.428   6.468  14.639
 6674SOL     OW21860  10.539   9.722  13.708
 6674SOL    HW121861  10.528   9.776  13.786
 6674SOL    HW221862  10.588   9.645  13.739
 6675SOL     OW21863   5.324   2.541   7.508
 6675SOL    HW121864   5.234   2.544   7.541
 6675SOL    HW221865   5.325   2.466   7.449
 6676SOL     OW21866   1.046   3.161   1.098
 6676SOL    HW121867   1.009   3.202   1.177
 6676SOL    HW221868   1.140   3.168   1.109
 6677SOL     OW21869   9.676   9.575   3.748
 6677SOL    HW121870   9.741   9.625   3.698
 6677SOL    HW221871   9.703   9.484   3.736
 6678SOL     OW21872   8.195  12.787  12.217
 6678SOL    HW121873   8.126  12.823  12.272
 6678SOL    HW221874   8.150  12.722  12.162
 6679SOL     OW21875   6.031   6.719   8.641
 6679SOL    HW121876   5.946   6.682   8.662
 6679SOL    HW221877   6.022   6.813   8.659
 6680SOL     OW21878   0.278   9.768   7.292
 6680SOL    HW121879   0.359   9.809   7.324
 6680SOL    HW221880   0.209   9.828   7.319
 6681SOL     OW21881   9.878   3.331  13.215
 6681SOL    HW121882   9.870   3.410  13.267
 6681SOL    HW221883   9.907   3.264  13.277
 6682SOL     OW21884   5.760  11.270   3.425
 6682SOL    HW121885   5.671  11.255   3.456
 6682SOL    HW221886   5.758  11.359   3.391
 6683SOL     OW21887   5.717  13.344   7.404
 6683SOL    HW121888   5.667  13.350   7.323
 6683SOL    HW221889   5.714  13.252   7.428
 6684SOL     OW21890   1.295   5.745   0.711
 6684SOL    HW121891   1.365   5.737   0.646
 6684SOL    HW221892   1.324   5.817   0.767
 6685SOL     OW21893   0.870   1.771   6.880
 6685SOL    HW121894   0.937   1.718   6.836
 6685SOL    HW221895   0.905   1.860   6.876
 6686SOL     OW21896   8.709  11.207  10.042
 6686SOL    HW121897   8.787  11.152  10.036
 6686SOL    HW221898   8.723  11.259  10.122
 6687SOL     OW21899  13.091  13.975  10.913
 6687SOL    HW121900  13.036  14.053  10.908
 6687SOL    HW221901  13.090  13.951  11.006
 6688SOL     OW21902   8.740   5.829  14.429
 6688SOL    HW121903   8.700   5.761  14.374
 6688SOL    HW221904   8.741   5.907  14.374
 6689SOL     OW21905   9.440  13.998   1.279
 6689SOL    HW121906   9.449  14.047   1.360
 6689SOL    HW221907   9.387  14.054   1.222
 6690SOL     OW21908  13.576   0.968  11.292
 6690SOL    HW121909  13.559   1.054  11.255
 6690SOL    HW221910  13.647   0.982  11.354
 6691SOL     OW21911   4.581   2.905  13.043
 6691SOL    HW121912   4.511   2.959  13.007
 6691SOL    HW221913   4.628   2.872  12.967
 6692SOL     OW21914   5.425   5.401   9.846
 6692SOL    HW121915   5.330   5.410   9.836
 6692SOL    HW221916   5.461   5.469   9.790
 6693SOL     OW21917   6.060  11.207   7.865
 6693SOL    HW121918   6.124  11.173   7.927
 6693SOL    HW221919   6.112  11.257   7.801
 6694SOL     OW21920   2.798   4.712   8.942
 6694SOL    HW121921   2.827   4.622   8.926
 6694SOL    HW221922   2.724   4.703   9.002
 6695SOL     OW21923   6.066   5.566   5.217
 6695SOL    HW121924   6.012   5.536   5.144
 6695SOL    HW221925   6.153   5.579   5.179
 6696SOL     OW21926  12.992   1.552  11.048
 6696SOL    HW121927  12.916   1.541  11.105
 6696SOL    HW221928  12.975   1.632  10.999
 6697SOL     OW21929   1.089   9.125   6.101
 6697SOL    HW121930   1.183   9.142   6.109
 6697SOL    HW221931   1.065   9.162   6.016
 6698SOL     OW21932   2.278   4.106   4.193
 6698SOL    HW121933   2.265   4.045   4.120
 6698SOL    HW221934   2.214   4.079   4.259
 6699SOL     OW21935  11.842   0.786  11.052
 6699SOL    HW121936  11.787   0.851  11.097
 6699SOL    HW221937  11.887   0.835  10.984
 6700SOL     OW21938   4.259   2.923   6.562
 6700SOL    HW121939   4.335   2.939   6.505
 6700SOL    HW221940   4.270   2.986   6.633
 6701SOL     OW21941  11.426  13.647   1.876
 6701SOL    HW121942  11.430  13.608   1.789
 6701SOL    HW221943  11.332  13.652   1.896
 6702SOL     OW21944   4.474   9.463   1.373
 6702SOL    HW121945   4.480   9.455   1.468
 6702SOL    HW221946   4.524   9.542   1.352
 6703SOL     OW21947   8.377  14.328   0.462
 6703SOL    HW121948   8.353  14.389   0.393
 6703SOL    HW221949   8.422  14.257   0.416
 6704SOL     OW21950   8.161   3.489   8.040
 6704SOL    HW121951   8.108   3.439   7.977
 6704SOL    HW221952   8.192   3.424   8.102
 6705SOL     OW21953  13.550  10.380   5.629
 6705SOL    HW121954  13.527  10.416   5.715
 6705SOL    HW221955  13.532  10.451   5.568
 6706SOL     OW21956   1.393   3.113  13.207
 6706SOL    HW121957   1.323   3.177  13.222
 6706SOL    HW221958   1.371   3.039  13.264
 6707SOL     OW21959  13.983   4.827   6.723
 6707SOL    HW121960  14.020   4.799   6.807
 6707SOL    HW221961  14.031   4.907   6.701
 6708SOL     OW21962   6.200  10.975   6.649
 6708SOL    HW121963   6.285  10.948   6.684
 6708SOL    HW221964   6.138  10.910   6.683
 6709SOL     OW21965  13.947  13.789   4.788
 6709SOL    HW121966  13.856  13.804   4.760
 6709SOL    HW221967  13.948  13.699   4.819
 6710SOL     OW21968  11.044   6.039   7.854
 6710SOL    HW121969  11.096   5.970   7.895
 6710SOL    HW221970  11.108   6.100   7.818
 6711SOL     OW21971   9.708  10.483  14.499
 6711SOL    HW121972   9.664  10.561  14.466
 6711SOL    HW221973   9.641  10.415  14.497
 6712SOL     OW21974   2.193   0.889   9.520
 6712SOL    HW121975   2.260   0.953   9.545
 6712SOL    HW221976   2.238   0.832   9.458
 6713SOL     OW21977  13.428   8.121  11.698
 6713SOL    HW121978  13.454   8.128  11.790
 6713SOL    HW221979  13.506   8.089  11.653
 6714SOL     OW21980  14.499  13.418   3.575
 6714SOL    HW121981  14.594  13.416   3.562
 6714SOL    HW221982  14.464  13.373   3.498
 6715SOL     OW21983   3.182   4.522   5.710
 6715SOL    HW121984   3.257   4.554   5.760
 6715SOL    HW221985   3.106   4.563   5.751
 6716SOL     OW21986  11.972   1.335   1.575
 6716SOL    HW121987  11.917   1.284   1.516
 6716SOL    HW221988  12.055   1.288   1.578
 6717SOL     OW21989   2.912  11.992   8.293
 6717SOL    HW121990   2.957  11.908   8.286
 6717SOL    HW221991   2.977  12.051   8.330
 6718SOL     OW21992   3.094  11.406   9.770
 6718SOL    HW121993   3.176  11.397   9.819
 6718SOL    HW221994   3.114  11.467   9.700
 6719SOL     OW21995   2.410   9.332   7.566
 6719SOL    HW121996   2.372   9.415   7.537
 6719SOL    HW221997   2.466   9.356   7.640
 6720SOL     OW21998   2.143  11.782  12.759
 6720SOL    HW121999   2.223  11.830  12.738
 6720SOL    HW222000   2.102  11.833  12.829
 6721SOL     OW22001   4.842  13.148  12.398
 6721SOL    HW122002   4.937  13.158  12.398
 6721SOL    HW222003   4.826  13.064  12.355
 6722SOL     OW22004   7.230  12.939  12.495
 6722SOL    HW122005   7.148  12.990  12.494
 6722SOL    HW222006   7.299  13.004  12.483
 6723SOL     OW22007   1.423   4.599   1.825
 6723SOL    HW122008   1.381   4.545   1.892
 6723SOL    HW222009   1.501   4.634   1.867
 6724SOL     OW22010  11.075  13.023  11.101
 6724SOL    HW122011  11.044  12.937  11.128
 6724SOL    HW222012  11.107  13.010  11.012
 6725SOL     OW22013   4.992  12.130   0.109
 6725SOL    HW122014   4.974  12.199   0.045
 6725SOL    HW222015   4.944  12.155   0.187
 6726SOL     OW22016   6.700   1.840  10.542
 6726SOL    HW122017   6.648   1.768  10.507
 6726SOL    HW222018   6.754   1.869  10.469
 6727SOL     OW22019   5.197   1.633   1.528
 6727SOL    HW122020   5.188   1.715   1.479
 6727SOL    HW222021   5.129   1.638   1.595
 6728SOL     OW22022  14.284   6.085  14.345
 6728SOL    HW122023  14.252   6.137  14.418
 6728SOL    HW222024  14.318   6.005  14.385
 6729SOL     OW22025   6.873   0.110   0.549
 6729SOL    HW122026   6.960   0.070   0.552
 6729SOL    HW222027   6.852   0.129   0.640
 6730SOL     OW22028   2.685   5.493   6.375
 6730SOL    HW122029   2.762   5.442   6.350
 6730SOL    HW222030   2.610   5.443   6.342
 6731SOL     OW22031  13.337   8.820   3.279
 6731SOL    HW122032  13.283   8.877   3.224
 6731SOL    HW222033  13.391   8.880   3.330
 6732SOL     OW22034   7.441   5.411   0.819
 6732SOL    HW122035   7.446   5.493   0.868
 6732SOL    HW222036   7.530   5.378   0.818
 6733SOL     OW22037   2.413  10.354   7.416
 6733SOL    HW122038   2.410  10.341   7.322
 6733SOL    HW222039   2.413  10.266   7.453
 6734SOL     OW22040  10.063   1.698   1.384
 6734SOL    HW122041  10.144   1.738   1.417
 6734SOL    HW222042  10.084   1.605   1.376
 6735SOL     OW22043  10.913   3.410   7.089
 6735SOL    HW122044  10.985   3.358   7.053
 6735SOL    HW222045  10.936   3.501   7.069
 6736SOL     OW22046   7.809   9.086  14.427
 6736SOL    HW122047   7.827   9.180  14.423
 6736SOL    HW222048   7.873   9.052  14.489
 6737SOL     OW22049   2.622   3.277   1.512
 6737SOL    HW122050   2.714   3.280   1.484
 6737SOL    HW222051   2.615   3.196   1.562
 6738SOL     OW22052   1.872   1.461   3.917
 6738SOL    HW122053   1.865   1.407   3.838
 6738SOL    HW222054   1.886   1.550   3.883
 6739SOL     OW22055   7.137   2.595   1.078
 6739SOL    HW122056   7.066   2.657   1.098
 6739SOL    HW222057   7.107   2.548   1.000
 6740SOL     OW22058   3.994   1.720  14.449
 6740SOL    HW122059   4.081   1.715  14.489
 6740SOL    HW222060   4.010   1.707  14.355
 6741SOL     OW22061  13.773  12.957  10.971
 6741SOL    HW122062  13.706  12.892  10.952
 6741SOL    HW222063  13.856  12.908  10.971
 6742SOL     OW22064  12.414  12.921  11.666
 6742SOL    HW122065  12.389  13.010  11.693
 6742SOL    HW222066  12.444  12.932  11.576
 6743SOL     OW22067   9.160   0.659   1.435
 6743SOL    HW122068   9.153   0.598   1.362
 6743SOL    HW222069   9.165   0.603   1.513
 6744SOL     OW22070  12.316  11.684   1.024
 6744SOL    HW122071  12.363  11.610   1.063
 6744SOL    HW222072  12.357  11.695   0.938
 6745SOL     OW22073   5.586   4.777  12.627
 6745SOL    HW122074   5.517   4.837  12.655
 6745SOL    HW222075   5.542   4.716  12.568
 6746SOL     OW22076   1.919   3.005  14.595
 6746SOL    HW122077   1.857   2.942  14.559
 6746SOL    HW222078   1.871   3.088  14.597
 6747SOL     OW22079   2.197   8.856   8.888
 6747SOL    HW122080   2.262   8.860   8.959
 6747SOL    HW222081   2.130   8.919   8.913
 6748SOL     OW22082   8.036  14.669   6.763
 6748SOL    HW122083   8.115  14.719   6.786
 6748SOL    HW222084   8.045  14.588   6.813
 6749SOL     OW22085   9.573   4.794   6.859
 6749SOL    HW122086   9.635   4.852   6.904
 6749SOL    HW222087   9.523   4.853   6.802
 6750SOL     OW22088   3.789   4.171  11.621
 6750SOL    HW122089   3.804   4.265  11.631
 6750SOL    HW222090   3.739   4.164  11.540
 6751SOL     OW22091  11.443   5.568   7.104
 6751SOL    HW122092  11.388   5.622   7.047
 6751SOL    HW222093  11.381   5.520   7.158
 6752SOL     OW22094   1.179   8.141   2.318
 6752SOL    HW122095   1.234   8.102   2.250
 6752SOL    HW222096   1.137   8.066   2.361
 6753SOL     OW22097   7.012   5.827   7.889
 6753SOL    HW122098   7.085   5.772   7.860
 6753SOL    HW222099   6.979   5.783   7.968
 6754SOL     OW22100  11.486  13.096   3.757
 6754SOL    HW122101  11.579  13.088   3.736
 6754SOL    HW222102  11.444  13.114   3.674
 6755SOL     OW22103   2.089  14.665   9.849
 6755SOL    HW122104   2.145  14.643   9.924
 6755SOL    HW222105   2.016  14.713   9.888
 6756SOL     OW22106  10.841   2.611  12.432
 6756SOL    HW122107  10.776   2.654  12.488
 6756SOL    HW222108  10.900   2.681  12.405
 6757SOL     OW22109  12.010  10.046   1.734
 6757SOL    HW122110  11.989  10.002   1.816
 6757SOL    HW222111  11.983  10.137   1.748
 6758SOL     OW22112  11.303   1.802  11.735
 6758SOL    HW122113  11.297   1.896  11.754
 6758SOL    HW222114  11.295   1.796  11.640
 6759SOL     OW22115   7.953  12.488   3.981
 6759SOL    HW122116   8.001  12.569   3.998
 6759SOL    HW222117   7.949  12.444   4.066
 6760SOL     OW22118   6.632  11.139  12.615
 6760SOL    HW122119   6.596  11.214  12.567
 6760SOL    HW222120   6.594  11.146  12.703
 6761SOL     OW22121   9.488   7.712   5.270
 6761SOL    HW122122   9.533   7.628   5.275
 6761SOL    HW222123   9.510   7.756   5.352
 6762SOL     OW22124   7.316   7.730  14.683
 6762SOL    HW122125   7.314   7.682  14.766
 6762SOL    HW222126   7.286   7.667  14.618
 6763SOL     OW22127   0.863   8.975   3.008
 6763SOL    HW122128   0.825   8.972   3.096
 6763SOL    HW222129   0.941   8.920   3.014
 6764SOL     OW22130   4.597  13.159   3.740
 6764SOL    HW122131   4.652  13.228   3.776
 6764SOL    HW222132   4.508  13.182   3.767
 6765SOL     OW22133   5.357   9.851   7.606
 6765SOL    HW122134   5.321   9.840   7.694
 6765SOL    HW222135   5.282   9.876   7.552
 6766SOL     OW22136   1.866   4.493   4.075
 6766SOL    HW122137   1.868   4.415   4.131
 6766SOL    HW222138   1.958   4.518   4.065
 6767SOL     OW22139   1.081   4.277  14.662
 6767SOL    HW122140   1.027   4.203  14.635
 6767SOL    HW222141   1.104   4.321  14.580
 6768SOL     OW22142   0.702  12.130   7.313
 6768SOL    HW122143   0.694  12.213   7.359
 6768SOL    HW222144   0.706  12.154   7.220
 6769SOL     OW22145   3.460   7.227   1.730
 6769SOL    HW122146   3.377   7.180   1.723
 6769SOL    HW222147   3.527   7.158   1.734
 6770SOL     OW22148   3.277   9.917   3.755
 6770SOL    HW122149   3.369   9.914   3.733
 6770SOL    HW222150   3.254   9.827   3.778
 6771SOL     OW22151  13.713   0.776   6.133
 6771SOL    HW122152  13.628   0.772   6.178
 6771SOL    HW222153  13.708   0.855   6.079
 6772SOL     OW22154   8.984  13.668   2.378
 6772SOL    HW122155   8.979  13.656   2.284
 6772SOL    HW222156   9.037  13.595   2.410
 6773SOL     OW22157   9.777  14.164  12.088
 6773SOL    HW122158   9.837  14.232  12.120
 6773SOL    HW222159   9.762  14.187  11.996
 6774SOL     OW22160   6.652   4.458  13.516
 6774SOL    HW122161   6.607   4.531  13.473
 6774SOL    HW222162   6.587   4.421  13.575
 6775SOL     OW22163  12.042   9.050   3.297
 6775SOL    HW122164  11.948   9.058   3.312
 6775SOL    HW222165  12.049   9.001   3.215
 6776SOL     OW22166  14.156   2.413   9.813
 6776SOL    HW122167  14.118   2.501   9.812
 6776SOL    HW222168  14.083   2.355   9.788
 6777SOL     OW22169  11.757  11.455  14.401
 6777SOL    HW122170  11.735  11.461  14.308
 6777SOL    HW222171  11.847  11.424  14.403
 6778SOL     OW22172   2.091  10.223  11.243
 6778SOL    HW122173   2.007  10.199  11.284
 6778SOL    HW222174   2.103  10.158  11.174
 6779SOL     OW22175   4.706  13.576   0.417
 6779SOL    HW122176   4.777  13.530   0.372
 6779SOL    HW222177   4.649  13.606   0.347
 6780SOL     OW22178   0.541   7.718   1.159
 6780SOL    HW122179   0.528   7.783   1.229
 6780SOL    HW222180   0.503   7.638   1.194
 6781SOL     OW22181   6.819   8.935  13.904
 6781SOL    HW122182   6.778   8.902  13.985
 6781SOL    HW222183   6.844   8.856  13.857
 6782SOL     OW22184  10.171   0.220   2.596
 6782SOL    HW122185  10.151   0.144   2.651
 6782SOL    HW222186  10.087   0.245   2.559
 6783SOL     OW22187   3.877  11.429  11.774
 6783SOL    HW122188   3.831  11.477  11.706
 6783SOL    HW222189   3.831  11.452  11.855
 6784SOL     OW22190  14.144   4.854  14.523
 6784SOL    HW122191  14.222   4.801  14.537
 6784SOL    HW222192  14.178   4.942  14.506
 6785SOL     OW22193   5.054   2.005   0.344
 6785SOL    HW122194   4.974   2.050   0.371
 6785SOL    HW222195   5.027   1.914   0.330
 6786SOL     OW22196   6.653   6.158   8.764
 6786SOL    HW122197   6.665   6.138   8.857
 6786SOL    HW222198   6.558   6.161   8.752
 6787SOL     OW22199   9.793   1.380   0.412
 6787SOL    HW122200   9.712   1.329   0.409
 6787SOL    HW222201   9.821   1.375   0.503
 6788SOL     OW22202   8.582  11.926   9.513
 6788SOL    HW122203   8.548  11.919   9.424
 6788SOL    HW222204   8.666  11.880   9.510
 6789SOL     OW22205   2.971  11.323   8.193
 6789SOL    HW122206   2.903  11.389   8.204
 6789SOL    HW222207   2.924  11.243   8.172
 6790SOL     OW22208   7.475   2.703   0.655
 6790SOL    HW122209   7.496   2.730   0.745
 6790SOL    HW222210   7.560   2.699   0.611
 6791SOL     OW22211   2.100   2.782  12.227
 6791SOL    HW122212   2.018   2.760  12.272
 6791SOL    HW222213   2.083   2.765  12.135
 6792SOL     OW22214  11.039   8.405  14.541
 6792SOL    HW122215  11.001   8.446  14.463
 6792SOL    HW222216  10.964   8.374  14.591
 6793SOL     OW22217   3.004  11.062   1.446
 6793SOL    HW122218   3.052  11.128   1.496
 6793SOL    HW222219   2.935  11.111   1.401
 6794SOL     OW22220  13.686   8.956   8.149
 6794SOL    HW122221  13.654   9.038   8.111
 6794SOL    HW222222  13.632   8.888   8.109
 6795SOL     OW22223   1.983   6.169   0.251
 6795SOL    HW122224   1.907   6.202   0.299
 6795SOL    HW222225   1.970   6.075   0.247
 6796SOL     OW22226  12.437   5.125  10.054
 6796SOL    HW122227  12.498   5.062  10.093
 6796SOL    HW222228  12.422   5.091   9.965
 6797SOL     OW22229  12.807   4.228   6.591
 6797SOL    HW122230  12.902   4.232   6.582
 6797SOL    HW222231  12.774   4.296   6.532
 6798SOL     OW22232   9.329   3.316  11.181
 6798SOL    HW122233   9.306   3.265  11.104
 6798SOL    HW222234   9.357   3.401  11.146
 6799SOL     OW22235  10.058  13.653  13.116
 6799SOL    HW122236  10.084  13.595  13.045
 6799SOL    HW222237   9.989  13.708  13.078
 6800SOL     OW22238   1.921   4.977   3.170
 6800SOL    HW122239   1.925   5.070   3.195
 6800SOL    HW222240   1.994   4.937   3.217
 6801SOL     OW22241   4.446  10.932   0.023
 6801SOL    HW122242   4.437  11.020   0.060
 6801SOL    HW222243   4.537  10.928  14.866
 6802SOL     OW22244   5.041   8.539  14.187
 6802SOL    HW122245   5.041   8.444  14.173
 6802SOL    HW222246   4.992   8.574  14.113
 6803SOL     OW22247   1.952  10.454  10.810
 6803SOL    HW122248   2.034  10.470  10.856
 6803SOL    HW222249   1.949  10.359  10.799
 6804SOL     OW22250  11.751   2.235   3.033
 6804SOL    HW122251  11.823   2.176   3.054
 6804SOL    HW222252  11.793   2.320   3.018
 6805SOL     OW22253   5.518   8.831   9.736
 6805SOL    HW122254   5.448   8.780   9.776
 6805SOL    HW222255   5.537   8.900   9.800
 6806SOL     OW22256   3.640  10.130  11.808
 6806SOL    HW122257   3.569  10.110  11.868
 6806SOL    HW222258   3.716  10.084  11.844
 6807SOL     OW22259  10.801   4.624   2.925
 6807SOL    HW122260  10.816   4.537   2.961
 6807SOL    HW222261  10.744   4.610   2.850
 6808SOL     OW22262  11.389   0.343   4.522
 6808SOL    HW122263  11.451   0.370   4.454
 6808SOL    HW222264  11.303   0.369   4.488
 6809SOL     OW22265  13.074   5.845   7.980
 6809SOL    HW122266  13.023   5.921   8.009
 6809SOL    HW222267  13.009   5.776   7.966
 6810SOL     OW22268  13.068   6.523   4.229
 6810SOL    HW122269  13.046   6.523   4.322
 6810SOL    HW222270  13.031   6.604   4.195
 6811SOL     OW22271   0.245   9.579   8.449
 6811SOL    HW122272   0.309   9.647   8.469
 6811SOL    HW222273   0.162   9.614   8.480
 6812SOL     OW22274   9.526  14.006  11.696
 6812SOL    HW122275   9.595  14.035  11.637
 6812SOL    HW222276   9.446  14.009  11.643
 6813SOL     OW22277   6.580   0.344   7.209
 6813SOL    HW122278   6.488   0.362   7.189
 6813SOL    HW222279   6.621   0.330   7.124
 6814SOL     OW22280  10.130   4.072  13.338
 6814SOL    HW122281  10.078   4.147  13.308
 6814SOL    HW222282  10.194   4.110  13.398
 6815SOL     OW22283   6.835   1.237  10.100
 6815SOL    HW122284   6.902   1.179  10.136
 6815SOL    HW222285   6.876   1.276  10.023
 6816SOL     OW22286   7.424   3.896   2.387
 6816SOL    HW122287   7.480   3.821   2.407
 6816SOL    HW222288   7.469   3.971   2.426
 6817SOL     OW22289   1.021   2.516   0.691
 6817SOL    HW122290   1.113   2.499   0.713
 6817SOL    HW222291   1.006   2.464   0.611
 6818SOL     OW22292   5.240  11.250  10.645
 6818SOL    HW122293   5.153  11.231  10.608
 6818SOL    HW222294   5.270  11.166  10.679
 6819SOL     OW22295   6.784  12.724  11.164
 6819SOL    HW122296   6.701  12.681  11.144
 6819SOL    HW222297   6.773  12.813  11.130
 6820SOL     OW22298  11.945  11.634  10.016
 6820SOL    HW122299  11.880  11.570  10.043
 6820SOL    HW222300  11.998  11.589   9.951
 6821SOL     OW22301  12.980   0.302   3.576
 6821SOL    HW122302  13.047   0.246   3.615
 6821SOL    HW222303  13.026   0.353   3.510
 6822SOL     OW22304   2.049   4.537  10.417
 6822SOL    HW122305   2.103   4.462  10.443
 6822SOL    HW222306   2.086   4.610  10.466
 6823SOL     OW22307   0.345  14.081   6.856
 6823SOL    HW122308   0.425  14.080   6.803
 6823SOL    HW222309   0.323  13.989   6.868
 6824SOL     OW22310   5.357  10.466   3.883
 6824SOL    HW122311   5.292  10.472   3.953
 6824SOL    HW222312   5.340  10.381   3.841
 6825SOL     OW22313   6.333   6.409   0.227
 6825SOL    HW122314   6.298   6.351   0.294
 6825SOL    HW222315   6.268   6.480   0.221
 6826SOL     OW22316   9.548   2.760  13.103
 6826SOL    HW122317   9.561   2.754  13.008
 6826SOL    HW222318   9.500   2.680  13.125
 6827SOL     OW22319   9.278   1.431  10.717
 6827SOL    HW122320   9.368   1.448  10.747
 6827SOL    HW222321   9.230   1.409  10.797
 6828SOL     OW22322  12.129   9.883   6.928
 6828SOL    HW122323  12.069   9.811   6.906
 6828SOL    HW222324  12.078   9.962   6.911
 6829SOL     OW22325  10.235   0.795  14.129
 6829SOL    HW122326  10.205   0.706  14.109
 6829SOL    HW222327  10.154   0.844  14.144
 6830SOL     OW22328  14.287   5.088   5.211
 6830SOL    HW122329  14.260   5.019   5.271
 6830SOL    HW222330  14.345   5.044   5.149
 6831SOL     OW22331  12.763  14.619   7.737
 6831SOL    HW122332  12.813  14.661   7.667
 6831SOL    HW222333  12.734  14.536   7.700
 6832SOL     OW22334   4.244   3.522  11.037
 6832SOL    HW122335   4.322   3.547  11.086
 6832SOL    HW222336   4.277   3.495  10.952
 6833SOL     OW22337  10.870   9.793   9.518
 6833SOL    HW122338  10.782   9.786   9.556
 6833SOL    HW222339  10.917   9.718   9.553
 6834SOL     OW22340   5.482   7.178  13.211
 6834SOL    HW122341   5.537   7.255  13.195
 6834SOL    HW222342   5.522   7.109  13.158
 6835SOL     OW22343   8.666   1.721   3.897
 6835SOL    HW122344   8.641   1.791   3.957
 6835SOL    HW222345   8.654   1.758   3.809
 6836SOL     OW22346   1.237  13.460   5.660
 6836SOL    HW122347   1.328  13.441   5.679
 6836SOL    HW222348   1.215  13.404   5.585
 6837SOL     OW22349   2.098   8.879   7.546
 6837SOL    HW122350   2.036   8.934   7.499
 6837SOL    HW222351   2.166   8.939   7.577
 6838SOL     OW22352  10.894  11.643  11.045
 6838SOL    HW122353  10.872  11.721  10.993
 6838SOL    HW222354  10.810  11.612  11.077
 6839SOL     OW22355  10.463   5.245   6.671
 6839SOL    HW122356  10.509   5.237   6.588
 6839SOL    HW222357  10.414   5.327   6.664
 6840SOL     OW22358   9.388   7.768  13.577
 6840SOL    HW122359   9.374   7.708  13.504
 6840SOL    HW222360   9.301   7.801  13.598
 6841SOL     OW22361   5.079   1.235   7.679
 6841SOL    HW122362   5.077   1.142   7.656
 6841SOL    HW222363   5.049   1.239   7.770
 6842SOL     OW22364   1.030  14.340   3.904
 6842SOL    HW122365   1.038  14.246   3.919
 6842SOL    HW222366   1.053  14.380   3.988
 6843SOL     OW22367  13.334  10.384   8.037
 6843SOL    HW122368  13.361  10.424   8.120
 6843SOL    HW222369  13.367  10.442   7.969
 6844SOL     OW22370   4.784  12.681   2.056
 6844SOL    HW122371   4.841  12.629   2.113
 6844SOL    HW222372   4.770  12.625   1.979
 6845SOL     OW22373  11.307   9.891  14.141
 6845SOL    HW122374  11.374   9.943  14.096
 6845SOL    HW222375  11.229   9.945  14.139
 6846SOL     OW22376   1.987  13.005   5.715
 6846SOL    HW122377   1.922  13.015   5.645
 6846SOL    HW222378   1.959  13.069   5.782
 6847SOL     OW22379  12.997   4.555  13.944
 6847SOL    HW122380  12.907   4.540  13.915
 6847SOL    HW222381  13.001   4.517  14.031
 6848SOL     OW22382   3.131  12.917   7.564
 6848SOL    HW122383   3.137  12.843   7.503
 6848SOL    HW222384   3.187  12.892   7.637
 6849SOL     OW22385  10.676  10.218   4.803
 6849SOL    HW122386  10.659  10.183   4.891
 6849SOL    HW222387  10.750  10.167   4.772
 6850SOL     OW22388   6.776  14.272   7.830
 6850SOL    HW122389   6.826  14.221   7.765
 6850SOL    HW222390   6.710  14.318   7.778
 6851SOL     OW22391   5.972   6.805   9.825
 6851SOL    HW122392   5.956   6.895   9.854
 6851SOL    HW222393   5.992   6.813   9.732
 6852SOL     OW22394  14.031   5.107  13.755
 6852SOL    HW122395  14.060   5.070  13.839
 6852SOL    HW222396  13.962   5.168  13.778
 6853SOL     OW22397   2.270   1.208  13.608
 6853SOL    HW122398   2.287   1.195  13.701
 6853SOL    HW222399   2.206   1.279  13.605
 6854SOL     OW22400  11.172   8.620   5.099
 6854SOL    HW122401  11.085   8.642   5.132
 6854SOL    HW222402  11.219   8.703   5.097
 6855SOL     OW22403  14.765   0.547  12.854
 6855SOL    HW122404  14.679   0.547  12.812
 6855SOL    HW222405  14.747   0.529  12.946
 6856SOL     OW22406   8.861   8.886  13.757
 6856SOL    HW122407   8.912   8.965  13.745
 6856SOL    HW222408   8.831   8.862  13.669
 6857SOL     OW22409  13.156   1.376   9.176
 6857SOL    HW122410  13.247   1.396   9.199
 6857SOL    HW222411  13.152   1.280   9.176
 6858SOL     OW22412  11.708   1.367   1.652
 6858SOL    HW122413  11.650   1.431   1.611
 6858SOL    HW222414  11.794   1.385   1.614
 6859SOL     OW22415  12.938   7.947  12.325
 6859SOL    HW122416  13.020   7.979  12.364
 6859SOL    HW222417  12.917   8.012  12.258
 6860SOL     OW22418   0.414   2.993  13.205
 6860SOL    HW122419   0.379   3.082  13.210
 6860SOL    HW222420   0.462   2.991  13.122
 6861SOL     OW22421  13.446   3.649  13.859
 6861SOL    HW122422  13.357   3.683  13.848
 6861SOL    HW222423  13.455   3.636  13.954
 6862SOL     OW22424   7.619   5.955   7.345
 6862SOL    HW122425   7.685   6.012   7.386
 6862SOL    HW222426   7.543   6.012   7.334
 6863SOL     OW22427  12.182  12.003   4.741
 6863SOL    HW122428  12.246  12.072   4.726
 6863SOL    HW222429  12.158  11.973   4.653
 6864SOL     OW22430   1.926   4.821   2.219
 6864SOL    HW122431   1.871   4.765   2.273
 6864SOL    HW222432   1.996   4.851   2.277
 6865SOL     OW22433  13.868  13.127   4.718
 6865SOL    HW122434  13.899  13.038   4.704
 6865SOL    HW222435  13.948  13.180   4.716
 6866SOL     OW22436  14.785   1.958   2.210
 6866SOL    HW122437  14.756   1.951   2.119
 6866SOL    HW222438  14.729   1.895   2.257
 6867SOL     OW22439  11.866  11.935   4.291
 6867SOL    HW122440  11.877  11.989   4.212
 6867SOL    HW222441  11.892  11.992   4.363
 6868SOL     OW22442   8.045   3.367  11.723
 6868SOL    HW122443   8.087   3.282  11.735
 6868SOL    HW222444   7.964   3.360  11.773
 6869SOL     OW22445   8.454  12.717   1.166
 6869SOL    HW122446   8.515  12.788   1.187
 6869SOL    HW222447   8.511  12.640   1.154
 6870SOL     OW22448  12.729  10.562   8.231
 6870SOL    HW122449  12.636  10.554   8.208
 6870SOL    HW222450  12.766  10.475   8.216
 6871SOL     OW22451   6.021   7.468  11.723
 6871SOL    HW122452   5.946   7.477  11.664
 6871SOL    HW222453   6.050   7.378  11.712
 6872SOL     OW22454  13.541   1.209  10.183
 6872SOL    HW122455  13.566   1.272  10.115
 6872SOL    HW222456  13.477   1.256  10.237
 6873SOL     OW22457   9.101   3.312  12.797
 6873SOL    HW122458   9.039   3.267  12.741
 6873SOL    HW222459   9.134   3.245  12.856
 6874SOL     OW22460   6.263  14.642  10.258
 6874SOL    HW122461   6.211  14.604  10.329
 6874SOL    HW222462   6.318  14.570  10.227
 6875SOL     OW22463   2.755   6.952  14.800
 6875SOL    HW122464   2.661   6.956  14.818
 6875SOL    HW222465   2.791   7.030  14.844
 6876SOL     OW22466   2.697   4.197   1.885
 6876SOL    HW122467   2.680   4.168   1.795
 6876SOL    HW222468   2.610   4.208   1.923
 6877SOL     OW22469   5.279   8.209  13.093
 6877SOL    HW122470   5.323   8.269  13.154
 6877SOL    HW222471   5.333   8.130  13.093
 6878SOL     OW22472   0.144  13.750   0.171
 6878SOL    HW122473   0.121  13.832   0.216
 6878SOL    HW222474   0.223  13.771   0.122
 6879SOL     OW22475   1.345  10.844  10.816
 6879SOL    HW122476   1.392  10.903  10.875
 6879SOL    HW222477   1.262  10.888  10.799
 6880SOL     OW22478   1.089   2.273   4.002
 6880SOL    HW122479   1.050   2.360   4.004
 6880SOL    HW222480   1.079   2.240   4.091
 6881SOL     OW22481   8.417   1.379   4.009
 6881SOL    HW122482   8.508   1.398   3.987
 6881SOL    HW222483   8.385   1.325   3.937
 6882SOL     OW22484  10.326   4.430   6.429
 6882SOL    HW122485  10.328   4.508   6.485
 6882SOL    HW222486  10.418   4.413   6.408
 6883SOL     OW22487   1.975   1.909   1.396
 6883SOL    HW122488   2.066   1.895   1.424
 6883SOL    HW222489   1.978   1.902   1.301
 6884SOL     OW22490   6.646   8.205   3.759
 6884SOL    HW122491   6.681   8.233   3.675
 6884SOL    HW222492   6.713   8.230   3.823
 6885SOL     OW22493   1.253   7.942   0.297
 6885SOL    HW122494   1.209   8.000   0.359
 6885SOL    HW222495   1.315   7.891   0.350
 6886SOL     OW22496   4.187   7.620   5.051
 6886SOL    HW122497   4.157   7.710   5.048
 6886SOL    HW222498   4.283   7.627   5.058
 6887SOL     OW22499   1.856   9.989   1.429
 6887SOL    HW122500   1.819  10.072   1.458
 6887SOL    HW222501   1.946   9.989   1.463
 6888SOL     OW22502  11.093  10.705  10.165
 6888SOL    HW122503  11.151  10.729  10.093
 6888SOL    HW222504  11.089  10.609  10.161
 6889SOL     OW22505   5.812   2.093  10.414
 6889SOL    HW122506   5.768   2.014  10.382
 6889SOL    HW222507   5.776   2.163  10.361
 6890SOL     OW22508   8.044   1.256   6.804
 6890SOL    HW122509   8.123   1.296   6.768
 6890SOL    HW222510   8.072   1.170   6.835
 6891SOL     OW22511  13.478  14.761   2.085
 6891SOL    HW122512  13.492  14.706   2.009
 6891SOL    HW222513  13.533  14.838   2.069
 6892SOL     OW22514   7.667  11.216   7.507
 6892SOL    HW122515   7.709  11.154   7.566
 6892SOL    HW222516   7.701  11.193   7.420
 6893SOL     OW22517   4.422   3.573  13.127
 6893SOL    HW122518   4.382   3.594  13.043
 6893SOL    HW222519   4.431   3.658  13.171
 6894SOL     OW22520   9.807   3.845   0.455
 6894SOL    HW122521   9.837   3.903   0.524
 6894SOL    HW222522   9.857   3.871   0.377
 6895SOL     OW22523   4.983   2.786  11.405
 6895SOL    HW122524   5.008   2.845  11.335
 6895SOL    HW222525   5.053   2.721  11.408
 6896SOL     OW22526   1.103   2.178   1.250
 6896SOL    HW122527   1.092   2.269   1.278
 6896SOL    HW222528   1.159   2.138   1.317
 6897SOL     OW22529   7.352   3.221   2.258
 6897SOL    HW122530   7.360   3.130   2.232
 6897SOL    HW222531   7.375   3.271   2.180
 6898SOL     OW22532  11.976  14.713   5.170
 6898SOL    HW122533  11.887  14.727   5.137
 6898SOL    HW222534  11.968  14.639   5.230
 6899SOL     OW22535   8.214   7.286   7.775
 6899SOL    HW122536   8.256   7.268   7.859
 6899SOL    HW222537   8.231   7.379   7.759
 6900SOL     OW22538  13.942  13.523  13.821
 6900SOL    HW122539  13.905  13.436  13.807
 6900SOL    HW222540  14.025  13.507  13.864
 6901SOL     OW22541   0.548   4.658   2.501
 6901SOL    HW122542   0.621   4.610   2.539
 6901SOL    HW222543   0.544   4.739   2.551
 6902SOL     OW22544  11.948   6.827  11.571
 6902SOL    HW122545  11.943   6.819  11.666
 6902SOL    HW222546  11.906   6.910  11.551
 6903SOL     OW22547   8.471   1.976   5.855
 6903SOL    HW122548   8.464   1.915   5.928
 6903SOL    HW222549   8.384   1.978   5.816
 6904SOL     OW22550  13.877   5.957   3.198
 6904SOL    HW122551  13.927   5.996   3.126
 6904SOL    HW222552  13.924   5.877   3.219
 6905SOL     OW22553   8.975   7.804   6.500
 6905SOL    HW122554   8.976   7.742   6.427
 6905SOL    HW222555   8.924   7.759   6.568
 6906SOL     OW22556   9.169   5.247   8.054
 6906SOL    HW122557   9.205   5.167   8.093
 6906SOL    HW222558   9.091   5.266   8.106
 6907SOL     OW22559   8.787   3.278   7.872
 6907SOL    HW122560   8.788   3.192   7.912
 6907SOL    HW222561   8.747   3.264   7.786
 6908SOL     OW22562  12.388   5.105   7.532
 6908SOL    HW122563  12.402   5.122   7.438
 6908SOL    HW222564  12.293   5.104   7.542
 6909SOL     OW22565   6.054   4.669  12.643
 6909SOL    HW122566   5.985   4.603  12.645
 6909SOL    HW222567   6.007   4.751  12.629
 6910SOL     OW22568   1.918   4.590  13.714
 6910SOL    HW122569   1.956   4.511  13.752
 6910SOL    HW222570   1.862   4.558  13.643
 6911SOL     OW22571   9.546   6.465   2.390
 6911SOL    HW122572   9.551   6.419   2.307
 6911SOL    HW222573   9.452   6.472   2.409
 6912SOL     OW22574   3.887   2.204   6.912
 6912SOL    HW122575   3.961   2.219   6.971
 6912SOL    HW222576   3.840   2.130   6.952
 6913SOL     OW22577  14.420  13.939  14.196
 6913SOL    HW122578  14.445  13.862  14.247
 6913SOL    HW222579  14.437  14.013  14.254
 6914SOL     OW22580   3.957  12.857   4.829
 6914SOL    HW122581   4.050  12.841   4.818
 6914SOL    HW222582   3.948  12.888   4.919
 6915SOL     OW22583   8.028   7.631   6.631
 6915SOL    HW122584   7.971   7.564   6.669
 6915SOL    HW222585   8.069   7.674   6.706
 6916SOL     OW22586  13.090   6.755  12.211
 6916SOL    HW122587  13.074   6.849  12.209
 6916SOL    HW222588  13.159   6.741  12.146
 6917SOL     OW22589  13.116   7.094   7.641
 6917SOL    HW122590  13.117   7.166   7.578
 6917SOL    HW222591  13.058   7.029   7.602
 6918SOL     OW22592  13.198   8.401  14.068
 6918SOL    HW122593  13.289   8.409  14.098
 6918SOL    HW222594  13.195   8.315  14.027
 6919SOL     OW22595   9.472   9.178   4.809
 6919SOL    HW122596   9.434   9.241   4.748
 6919SOL    HW222597   9.527   9.231   4.867
 6920SOL     OW22598  13.989   1.019   3.438
 6920SOL    HW122599  13.910   0.973   3.408
 6920SOL    HW222600  13.961   1.110   3.447
 6921SOL     OW22601   5.280   7.828   1.049
 6921SOL    HW122602   5.331   7.753   1.017
 6921SOL    HW222603   5.345   7.884   1.092
 6922SOL     OW22604   1.486  12.533  14.775
 6922SOL    HW122605   1.502  12.616  14.730
 6922SOL    HW222606   1.513  12.549  14.865
 6923SOL     OW22607   4.056   7.236  11.490
 6923SOL    HW122608   4.034   7.266  11.402
 6923SOL    HW222609   4.150   7.250  11.498
 6924SOL     OW22610  12.161   4.873   0.720
 6924SOL    HW122611  12.149   4.804   0.786
 6924SOL    HW222612  12.240   4.920   0.749
 6925SOL     OW22613   3.801   1.642   2.010
 6925SOL    HW122614   3.778   1.717   1.954
 6925SOL    HW222615   3.762   1.663   2.095
 6926SOL     OW22616   0.098   8.753  11.035
 6926SOL    HW122617   0.003   8.769  11.035
 6926SOL    HW222618   0.118   8.731  10.944
 6927SOL     OW22619  12.253   1.304  10.144
 6927SOL    HW122620  12.215   1.353  10.217
 6927SOL    HW222621  12.342   1.284  10.173
 6928SOL     OW22622  12.317  12.751   7.342
 6928SOL    HW122623  12.381  12.703   7.291
 6928SOL    HW222624  12.247  12.688   7.360
 6929SOL     OW22625   2.943   1.479  13.398
 6929SOL    HW122626   2.941   1.422  13.475
 6929SOL    HW222627   2.994   1.555  13.426
 6930SOL     OW22628   3.541  12.758  12.071
 6930SOL    HW122629   3.610  12.762  12.138
 6930SOL    HW222630   3.580  12.799  11.994
 6931SOL     OW22631   8.914   6.209   6.852
 6931SOL    HW122632   8.955   6.255   6.926
 6931SOL    HW222633   8.982   6.208   6.784
 6932SOL     OW22634   8.576  10.303   1.267
 6932SOL    HW122635   8.630  10.229   1.297
 6932SOL    HW222636   8.557  10.284   1.175
 6933SOL     OW22637  13.675   3.884  10.470
 6933SOL    HW122638  13.583   3.860  10.481
 6933SOL    HW222639  13.699   3.850  10.384
 6934SOL     OW22640   0.805   3.401   3.887
 6934SOL    HW122641   0.711   3.382   3.895
 6934SOL    HW222642   0.809   3.474   3.826
 6935SOL     OW22643   6.726  14.346  14.812
 6935SOL    HW122644   6.648  14.387  14.848
 6935SOL    HW222645   6.785  14.420  14.795
 6936SOL     OW22646   7.658  12.356   6.740
 6936SOL    HW122647   7.688  12.376   6.651
 6936SOL    HW222648   7.717  12.405   6.797
 6937SOL     OW22649   4.878   8.335   2.305
 6937SOL    HW122650   4.902   8.413   2.355
 6937SOL    HW222651   4.956   8.280   2.309
 6938SOL     OW22652   6.965   9.777  10.494
 6938SOL    HW122653   6.913   9.850  10.463
 6938SOL    HW222654   7.050   9.816  10.518
 6939SOL     OW22655   5.055   7.370   2.541
 6939SOL    HW122656   5.050   7.381   2.446
 6939SOL    HW222657   5.149   7.367   2.560
 6940SOL     OW22658   0.081   4.949   4.746
 6940SOL    HW122659   0.153   4.887   4.735
 6940SOL    HW222660   0.008   4.909   4.699
 6941SOL     OW22661  10.540   6.113   1.795
 6941SOL    HW122662  10.470   6.093   1.858
 6941SOL    HW222663  10.605   6.161   1.846
 6942SOL     OW22664  13.102  14.583  12.110
 6942SOL    HW122665  13.085  14.528  12.034
 6942SOL    HW222666  13.176  14.541  12.154
 6943SOL     OW22667   1.712  12.627   9.742
 6943SOL    HW122668   1.806  12.647   9.737
 6943SOL    HW222669   1.677  12.693   9.802
 6944SOL     OW22670   9.634   7.636   6.166
 6944SOL    HW122671   9.726   7.661   6.170
 6944SOL    HW222672   9.630   7.570   6.097
 6945SOL     OW22673   7.502   3.623  12.520
 6945SOL    HW122674   7.543   3.569  12.453
 6945SOL    HW222675   7.561   3.698  12.530
 6946SOL     OW22676   3.443   8.385   7.229
 6946SOL    HW122677   3.451   8.344   7.143
 6946SOL    HW222678   3.445   8.312   7.291
 6947SOL     OW22679  10.169   0.638   1.348
 6947SOL    HW122680  10.106   0.651   1.277
 6947SOL    HW222681  10.219   0.720   1.351
 6948SOL     OW22682   4.993  12.251   2.617
 6948SOL    HW122683   4.901  12.259   2.591
 6948SOL    HW222684   5.002  12.161   2.647
 6949SOL     OW22685   1.625  11.401   2.667
 6949SOL    HW122686   1.573  11.368   2.739
 6949SOL    HW222687   1.633  11.327   2.606
 6950SOL     OW22688  11.159   3.756   4.023
 6950SOL    HW122689  11.223   3.768   4.093
 6950SOL    HW222690  11.202   3.790   3.945
 6951SOL     OW22691   6.195   5.368  14.791
 6951SOL    HW122692   6.199   5.330   0.005
 6951SOL    HW222693   6.214   5.461  14.803
 6952SOL     OW22694  11.818  11.201   9.220
 6952SOL    HW122695  11.910  11.222   9.233
 6952SOL    HW222696  11.778  11.285   9.198
 6953SOL     OW22697   1.316  10.538   2.965
 6953SOL    HW122698   1.283  10.504   3.048
 6953SOL    HW222699   1.266  10.492   2.898
 6954SOL     OW22700  10.444  14.555   1.432
 6954SOL    HW122701  10.447  14.639   1.385
 6954SOL    HW222702  10.534  14.524   1.432
 6955SOL     OW22703  12.004   4.517   1.300
 6955SOL    HW122704  12.040   4.445   1.249
 6955SOL    HW222705  11.912   4.494   1.311
 6956SOL     OW22706   9.748   3.589  14.462
 6956SOL    HW122707   9.721   3.674  14.496
 6956SOL    HW222708   9.756   3.603  14.368
 6957SOL     OW22709   9.586   1.707   2.947
 6957SOL    HW122710   9.503   1.750   2.923
 6957SOL    HW222711   9.565   1.658   3.026
 6958SOL     OW22712   3.571   5.226   3.674
 6958SOL    HW122713   3.648   5.272   3.640
 6958SOL    HW222714   3.498   5.287   3.660
 6959SOL     OW22715  10.656   3.106   0.896
 6959SOL    HW122716  10.638   3.194   0.862
 6959SOL    HW222717  10.657   3.118   0.991
 6960SOL     OW22718   2.091  13.826  11.913
 6960SOL    HW122719   2.135  13.905  11.944
 6960SOL    HW222720   2.135  13.754  11.958
 6961SOL     OW22721   5.920   9.931   8.954
 6961SOL    HW122722   5.878   9.878   8.887
 6961SOL    HW222723   5.862  10.006   8.965
 6962SOL     OW22724   5.318   3.777   9.892
 6962SOL    HW122725   5.370   3.734   9.961
 6962SOL    HW222726   5.242   3.812   9.938
 6963SOL     OW22727   4.918  12.120   4.123
 6963SOL    HW122728   4.976  12.047   4.143
 6963SOL    HW222729   4.854  12.084   4.061
 6964SOL     OW22730   6.950   3.986   8.247
 6964SOL    HW122731   7.043   4.006   8.236
 6964SOL    HW222732   6.948   3.892   8.264
 6965SOL     OW22733  11.258  13.949   8.788
 6965SOL    HW122734  11.204  13.971   8.712
 6965SOL    HW222735  11.288  14.033   8.821
 6966SOL     OW22736   6.751   6.606   8.620
 6966SOL    HW122737   6.749   6.516   8.653
 6966SOL    HW222738   6.659   6.628   8.606
 6967SOL     OW22739   7.886   2.234  14.234
 6967SOL    HW122740   7.925   2.244  14.321
 6967SOL    HW222741   7.960   2.232  14.174
 6968SOL     OW22742   4.706  10.766   9.541
 6968SOL    HW122743   4.773  10.698   9.547
 6968SOL    HW222744   4.694  10.779   9.446
 6969SOL     OW22745  14.543   1.655  10.133
 6969SOL    HW122746  14.502   1.606  10.062
 6969SOL    HW222747  14.609   1.595  10.168
 6970SOL     OW22748  11.815   9.757  10.229
 6970SOL    HW122749  11.911   9.753  10.226
 6970SOL    HW222750  11.795   9.778  10.321
 6971SOL     OW22751  12.713  12.557  12.422
 6971SOL    HW122752  12.801  12.569  12.458
 6971SOL    HW222753  12.677  12.483  12.471
 6972SOL     OW22754   3.029   7.490   2.771
 6972SOL    HW122755   3.076   7.507   2.690
 6972SOL    HW222756   3.038   7.395   2.784
 6973SOL     OW22757   9.499   5.997  13.568
 6973SOL    HW122758   9.533   6.068  13.622
 6973SOL    HW222759   9.566   5.985  13.500
 6974SOL     OW22760   9.498   3.963   3.485
 6974SOL    HW122761   9.573   4.013   3.452
 6974SOL    HW222762   9.426   3.988   3.427
 6975SOL     OW22763  11.326   0.055   4.777
 6975SOL    HW122764  11.382  14.851   4.770
 6975SOL    HW222765  11.238   0.023   4.757
 6976SOL     OW22766   6.606   0.468  14.825
 6976SOL    HW122767   6.539   0.487  14.759
 6976SOL    HW222768   6.664   0.544  14.823
 6977SOL     OW22769   3.666   7.605  11.669
 6977SOL    HW122770   3.667   7.686  11.618
 6977SOL    HW222771   3.750   7.564  11.650
 6978SOL     OW22772   0.245   0.581  13.187
 6978SOL    HW122773   0.201   0.597  13.270
 6978SOL    HW222774   0.222   0.656  13.133
 6979SOL     OW22775   6.051  13.027   1.136
 6979SOL    HW122776   5.992  12.981   1.196
 6979SOL    HW222777   6.009  13.018   1.050
 6980SOL     OW22778   1.201   4.639  10.884
 6980SOL    HW122779   1.284   4.633  10.932
 6980SOL    HW222780   1.187   4.550  10.850
 6981SOL     OW22781  14.854  13.074  10.889
 6981SOL    HW122782   0.049  13.104  10.948
 6981SOL    HW222783  14.772  13.091  10.936
 6982SOL     OW22784   9.474  13.592  13.697
 6982SOL    HW122785   9.394  13.645  13.688
 6982SOL    HW222786   9.495  13.595  13.791
 6983SOL     OW22787  11.622   0.979  11.167
 6983SOL    HW122788  11.673   0.973  11.248
 6983SOL    HW222789  11.604   1.072  11.156
 6984SOL     OW22790  10.839  14.107   4.142
 6984SOL    HW122791  10.824  14.073   4.054
 6984SOL    HW222792  10.855  14.201   4.129
 6985SOL     OW22793  14.187  11.016  12.356
 6985SOL    HW122794  14.154  10.996  12.269
 6985SOL    HW222795  14.282  11.018  12.346
 6986SOL     OW22796   2.972  11.236  12.925
 6986SOL    HW122797   2.938  11.325  12.919
 6986SOL    HW222798   2.966  11.214  13.018
 6987SOL     OW22799   9.036  13.493  10.417
 6987SOL    HW122800   9.028  13.397  10.421
 6987SOL    HW222801   8.960  13.521  10.367
 6988SOL     OW22802   0.180   3.292  11.643
 6988SOL    HW122803   0.106   3.263  11.590
 6988SOL    HW222804   0.209   3.213  11.688
 6989SOL     OW22805   6.767  11.091   9.598
 6989SOL    HW122806   6.809  11.146   9.531
 6989SOL    HW222807   6.826  11.016   9.607
 6990SOL     OW22808   5.282   2.462   4.896
 6990SOL    HW122809   5.276   2.440   4.803
 6990SOL    HW222810   5.301   2.378   4.938
 6991SOL     OW22811  11.046  10.304   7.697
 6991SOL    HW122812  11.091  10.222   7.718
 6991SOL    HW222813  11.013  10.291   7.608
 6992SOL     OW22814   8.173   0.497   2.646
 6992SOL    HW122815   8.173   0.549   2.727
 6992SOL    HW222816   8.240   0.431   2.661
 6993SOL     OW22817  13.698   0.473  14.202
 6993SOL    HW122818  13.731   0.402  14.147
 6993SOL    HW222819  13.759   0.478  14.276
 6994SOL     OW22820   4.161   6.376  11.506
 6994SOL    HW122821   4.117   6.460  11.521
 6994SOL    HW222822   4.156   6.364  11.411
 6995SOL     OW22823   1.300  11.477  14.118
 6995SOL    HW122824   1.366  11.415  14.147
 6995SOL    HW222825   1.297  11.543  14.188
 6996SOL     OW22826   2.242  14.257   2.415
 6996SOL    HW122827   2.159  14.262   2.464
 6996SOL    HW222828   2.246  14.340   2.367
 6997SOL     OW22829  13.009   9.523   2.104
 6997SOL    HW122830  12.929   9.480   2.132
 6997SOL    HW222831  13.077   9.487   2.161
 6998SOL     OW22832   1.393   3.134   1.578
 6998SOL    HW122833   1.466   3.183   1.616
 6998SOL    HW222834   1.434   3.055   1.543
 6999SOL     OW22835   0.237  11.696   1.203
 6999SOL    HW122836   0.226  11.611   1.245
 6999SOL    HW222837   0.332  11.705   1.194
 7000SOL     OW22838   2.940  13.794  10.322
 7000SOL    HW122839   2.881  13.747  10.263
 7000SOL    HW222840   2.969  13.728  10.385
 7001SOL     OW22841  12.262   2.395  14.632
 7001SOL    HW122842  12.345   2.417  14.590
 7001SOL    HW222843  12.280   2.313  14.678
 7002SOL     OW22844   7.628   5.335   8.494
 7002SOL    HW122845   7.696   5.280   8.533
 7002SOL    HW222846   7.628   5.312   8.401
 7003SOL     OW22847   5.334   0.344   1.634
 7003SOL    HW122848   5.363   0.400   1.562
 7003SOL    HW222849   5.323   0.404   1.708
 7004SOL     OW22850   5.923   6.062   1.058
 7004SOL    HW122851   5.994   6.000   1.042
 7004SOL    HW222852   5.843   6.014   1.036
 7005SOL     OW22853   4.538   8.996   7.415
 7005SOL    HW122854   4.557   9.054   7.341
 7005SOL    HW222855   4.455   8.955   7.391
 7006SOL     OW22856   5.117  11.347  13.939
 7006SOL    HW122857   5.081  11.270  13.984
 7006SOL    HW222858   5.067  11.353  13.858
 7007SOL     OW22859   5.130   4.760   6.220
 7007SOL    HW122860   5.169   4.751   6.307
 7007SOL    HW222861   5.204   4.775   6.162
 7008SOL     OW22862  13.309  14.020   4.350
 7008SOL    HW122863  13.392  14.013   4.303
 7008SOL    HW222864  13.303  13.940   4.402
 7009SOL     OW22865  12.219   0.680   2.977
 7009SOL    HW122866  12.143   0.728   3.011
 7009SOL    HW222867  12.188   0.589   2.968
 7010SOL     OW22868   1.273  10.652  10.657
 7010SOL    HW122869   1.187  10.677  10.625
 7010SOL    HW222870   1.292  10.715  10.727
 7011SOL     OW22871   4.019  13.333   6.795
 7011SOL    HW122872   4.007  13.247   6.836
 7011SOL    HW222873   4.074  13.381   6.856
 7012SOL     OW22874   8.462  11.266   4.640
 7012SOL    HW122875   8.522  11.258   4.714
 7012SOL    HW222876   8.409  11.344   4.661
 7013SOL     OW22877   0.310  13.299   8.473
 7013SOL    HW122878   0.305  13.230   8.407
 7013SOL    HW222879   0.266  13.374   8.434
 7014SOL     OW22880   7.249  12.819  13.590
 7014SOL    HW122881   7.261  12.842  13.683
 7014SOL    HW222882   7.325  12.857  13.546
 7015SOL     OW22883   7.509   8.434   7.460
 7015SOL    HW122884   7.592   8.439   7.507
 7015SOL    HW222885   7.513   8.351   7.413
 7016SOL     OW22886  14.147   8.773   4.081
 7016SOL    HW122887  14.094   8.815   4.149
 7016SOL    HW222888  14.202   8.711   4.129
 7017SOL     OW22889  13.982   2.224   5.070
 7017SOL    HW122890  13.916   2.225   5.139
 7017SOL    HW222891  13.953   2.291   5.008
 7018SOL     OW22892   2.517   8.972  11.441
 7018SOL    HW122893   2.443   8.971  11.502
 7018SOL    HW222894   2.511   8.889  11.394
 7019SOL     OW22895  14.348  12.417   5.381
 7019SOL    HW122896  14.327  12.436   5.473
 7019SOL    HW222897  14.263  12.394   5.342
 7020SOL     OW22898   6.567   8.548  13.983
 7020SOL    HW122899   6.513   8.627  13.985
 7020SOL    HW222900   6.523   8.491  13.920
 7021SOL     OW22901   9.194  11.477  14.275
 7021SOL    HW122902   9.100  11.493  14.261
 7021SOL    HW222903   9.226  11.447  14.190
 7022SOL     OW22904   7.803   0.859   6.302
 7022SOL    HW122905   7.877   0.914   6.280
 7022SOL    HW222906   7.837   0.769   6.298
 7023SOL     OW22907  12.096  12.255   8.820
 7023SOL    HW122908  12.186  12.250   8.786
 7023SOL    HW222909  12.066  12.342   8.795
 7024SOL     OW22910   3.812   6.784   5.223
 7024SOL    HW122911   3.727   6.765   5.263
 7024SOL    HW222912   3.876   6.742   5.281
 7025SOL     OW22913   3.948   2.013   2.977
 7025SOL    HW122914   4.026   2.057   3.011
 7025SOL    HW222915   3.957   2.017   2.882
 7026SOL     OW22916   5.282   8.521   8.101
 7026SOL    HW122917   5.262   8.429   8.084
 7026SOL    HW222918   5.235   8.569   8.033
 7027SOL     OW22919   2.408   3.689  14.510
 7027SOL    HW122920   2.388   3.661  14.600
 7027SOL    HW222921   2.385   3.782  14.508
 7028SOL     OW22922   8.102   3.678   9.742
 7028SOL    HW122923   8.124   3.585   9.735
 7028SOL    HW222924   8.141   3.718   9.664
 7029SOL     OW22925   7.945  14.149   3.176
 7029SOL    HW122926   7.912  14.230   3.137
 7029SOL    HW222927   8.018  14.176   3.231
 7030SOL     OW22928   8.173   8.761  10.653
 7030SOL    HW122929   8.150   8.693  10.717
 7030SOL    HW222930   8.091   8.806  10.636
 7031SOL     OW22931   6.128   5.550  11.342
 7031SOL    HW122932   6.222   5.556  11.324
 7031SOL    HW222933   6.087   5.600  11.272
 7032SOL     OW22934   2.039   1.269   0.705
 7032SOL    HW122935   2.018   1.288   0.614
 7032SOL    HW222936   1.954   1.255   0.747
 7033SOL     OW22937  10.364  12.067   6.265
 7033SOL    HW122938  10.361  12.161   6.245
 7033SOL    HW222939  10.433  12.060   6.332
 7034SOL     OW22940   0.591   2.178   0.904
 7034SOL    HW122941   0.504   2.180   0.865
 7034SOL    HW222942   0.576   2.163   0.997
 7035SOL     OW22943   4.465   9.457   1.088
 7035SOL    HW122944   4.390   9.399   1.075
 7035SOL    HW222945   4.482   9.454   1.182
 7036SOL     OW22946   1.337   3.574   2.164
 7036SOL    HW122947   1.359   3.607   2.077
 7036SOL    HW222948   1.354   3.480   2.160
 7037SOL     OW22949  14.374   4.207   9.339
 7037SOL    HW122950  14.406   4.129   9.293
 7037SOL    HW222951  14.418   4.203   9.424
 7038SOL     OW22952   7.331  12.154   1.241
 7038SOL    HW122953   7.259  12.206   1.206
 7038SOL    HW222954   7.409  12.188   1.198
 7039SOL     OW22955  13.088   1.775  13.565
 7039SOL    HW122956  13.062   1.810  13.480
 7039SOL    HW222957  13.086   1.680  13.553
 7040SOL     OW22958   7.372  12.753   4.815
 7040SOL    HW122959   7.286  12.724   4.784
 7040SOL    HW222960   7.434  12.709   4.757
 7041SOL     OW22961   1.176   4.703   8.393
 7041SOL    HW122962   1.088   4.737   8.404
 7041SOL    HW222963   1.180   4.674   8.302
 7042SOL     OW22964  13.006  13.027   8.015
 7042SOL    HW122965  12.937  13.025   8.081
 7042SOL    HW222966  12.962  13.005   7.933
 7043SOL     OW22967  12.029   7.108   7.886
 7043SOL    HW122968  12.080   7.028   7.870
 7043SOL    HW222969  11.939   7.077   7.898
 7044SOL     OW22970   4.004  13.273   1.120
 7044SOL    HW122971   4.016  13.351   1.173
 7044SOL    HW222972   3.956  13.212   1.176
 7045SOL     OW22973   5.349  11.679   8.222
 7045SOL    HW122974   5.415  11.633   8.273
 7045SOL    HW222975   5.271  11.623   8.227
 7046SOL     OW22976   3.015  10.213   5.087
 7046SOL    HW122977   3.101  10.198   5.126
 7046SOL    HW222978   3.018  10.166   5.004
 7047SOL     OW22979   2.417  10.507   3.160
 7047SOL    HW122980   2.498  10.486   3.206
 7047SOL    HW222981   2.354  10.528   3.229
 7048SOL     OW22982   2.841   7.120   2.961
 7048SOL    HW122983   2.866   7.209   2.986
 7048SOL    HW222984   2.778   7.093   3.028
 7049SOL     OW22985   1.628   2.032   1.512
 7049SOL    HW122986   1.615   2.047   1.418
 7049SOL    HW222987   1.572   2.097   1.554
 7050SOL     OW22988   6.056   5.219  10.123
 7050SOL    HW122989   6.121   5.240  10.189
 7050SOL    HW222990   6.072   5.281  10.052
 7051SOL     OW22991   4.458   6.323   2.278
 7051SOL    HW122992   4.480   6.340   2.186
 7051SOL    HW222993   4.497   6.396   2.326
 7052SOL     OW22994   7.199   1.854  10.979
 7052SOL    HW122995   7.200   1.903  11.061
 7052SOL    HW222996   7.291   1.828  10.965
 7053SOL     OW22997   0.694  13.720   4.335
 7053SOL    HW122998   0.722  13.665   4.262
 7053SOL    HW222999   0.658  13.659   4.399
 7054SOL     OW23000   4.379  12.508  12.245
 7054SOL    HW123001   4.421  12.430  12.283
 7054SOL    HW223002   4.286  12.497  12.265
 7055SOL     OW23003   2.685  13.744   2.390
 7055SOL    HW123004   2.758  13.777   2.338
 7055SOL    HW223005   2.713  13.657   2.418
 7056SOL     OW23006   3.437   1.633   9.911
 7056SOL    HW123007   3.363   1.632   9.851
 7056SOL    HW223008   3.472   1.544   9.908
 7057SOL     OW23009   3.921   2.071   5.331
 7057SOL    HW123010   3.963   2.040   5.411
 7057SOL    HW223011   3.859   2.002   5.308
 7058SOL     OW23012   9.373   3.408  12.309
 7058SOL    HW123013   9.323   3.448  12.238
 7058SOL    HW223014   9.323   3.428  12.388
 7059SOL     OW23015   3.002   7.595   7.142
 7059SOL    HW123016   2.991   7.566   7.232
 7059SOL    HW223017   2.934   7.548   7.093
 7060SOL     OW23018   2.007  12.393   6.886
 7060SOL    HW123019   2.027  12.319   6.828
 7060SOL    HW223020   1.911  12.397   6.887
 7061SOL     OW23021   0.404   0.993   9.454
 7061SOL    HW123022   0.353   1.027   9.381
 7061SOL    HW223023   0.449   1.069   9.490
 7062SOL     OW23024   8.571   2.944  11.490
 7062SOL    HW123025   8.583   2.995  11.570
 7062SOL    HW223026   8.617   2.993  11.422
 7063SOL     OW23027   1.389   2.659   2.147
 7063SOL    HW123028   1.450   2.586   2.153
 7063SOL    HW223029   1.305   2.623   2.174
 7064SOL     OW23030   9.353   5.553   4.026
 7064SOL    HW123031   9.301   5.619   3.980
 7064SOL    HW223032   9.435   5.548   3.977
 7065SOL     OW23033  11.178   1.917   5.811
 7065SOL    HW123034  11.148   1.885   5.726
 7065SOL    HW223035  11.273   1.923   5.803
 7066SOL     OW23036   6.933   9.296   0.718
 7066SOL    HW123037   6.871   9.313   0.646
 7066SOL    HW223038   6.949   9.383   0.756
 7067SOL     OW23039   3.391  14.627   7.464
 7067SOL    HW123040   3.377  14.627   7.369
 7067SOL    HW223041   3.479  14.592   7.476
 7068SOL     OW23042   3.873   6.344   4.814
 7068SOL    HW123043   3.858   6.407   4.885
 7068SOL    HW223044   3.851   6.259   4.853
 7069SOL     OW23045   2.026   5.682   7.327
 7069SOL    HW123046   2.039   5.714   7.417
 7069SOL    HW223047   1.937   5.709   7.305
 7070SOL     OW23048  11.640   5.312   3.385
 7070SOL    HW123049  11.652   5.312   3.290
 7070SOL    HW223050  11.728   5.298   3.420
 7071SOL     OW23051  10.601   4.478  10.770
 7071SOL    HW123052  10.593   4.407  10.834
 7071SOL    HW223053  10.510   4.501  10.749
 7072SOL     OW23054   3.905  13.608  12.693
 7072SOL    HW123055   3.872  13.668  12.761
 7072SOL    HW223056   3.974  13.558  12.738
 7073SOL     OW23057   9.715  13.519   8.008
 7073SOL    HW123058   9.802  13.530   8.045
 7073SOL    HW223059   9.657  13.512   8.084
 7074SOL     OW23060  12.614   5.074   2.920
 7074SOL    HW123061  12.614   5.169   2.922
 7074SOL    HW223062  12.615   5.052   2.827
 7075SOL     OW23063   7.266   9.614  13.937
 7075SOL    HW123064   7.190   9.611  13.879
 7075SOL    HW223065   7.243   9.679  14.003
 7076SOL     OW23066   5.162  10.406  14.352
 7076SOL    HW123067   5.130  10.494  14.374
 7076SOL    HW223068   5.122  10.349  14.417
 7077SOL     OW23069   9.256  11.958   9.519
 7077SOL    HW123070   9.303  12.012   9.583
 7077SOL    HW223071   9.326  11.915   9.469
 7078SOL     OW23072   2.023   0.072  14.572
 7078SOL    HW123073   2.077   0.149  14.583
 7078SOL    HW223074   2.028   0.027  14.657
 7079SOL     OW23075   1.656   3.585   2.915
 7079SOL    HW123076   1.601   3.613   2.841
 7079SOL    HW223077   1.680   3.667   2.959
 7080SOL     OW23078   9.284   5.132   2.027
 7080SOL    HW123079   9.352   5.065   2.022
 7080SOL    HW223080   9.296   5.185   1.949
 7081SOL     OW23081   5.389  11.106  14.466
 7081SOL    HW123082   5.436  11.132  14.545
 7081SOL    HW223083   5.326  11.176  14.452
 7082SOL     OW23084   2.966   8.372  10.054
 7082SOL    HW123085   2.947   8.291  10.006
 7082SOL    HW223086   3.059   8.388  10.038
 7083SOL     OW23087   3.851   3.657   4.564
 7083SOL    HW123088   3.861   3.563   4.546
 7083SOL    HW223089   3.770   3.682   4.520
 7084SOL     OW23090   1.112   2.944   9.303
 7084SOL    HW123091   1.153   2.899   9.230
 7084SOL    HW223092   1.165   2.920   9.379
 7085SOL     OW23093  10.396  14.312   7.357
 7085SOL    HW123094  10.452  14.324   7.434
 7085SOL    HW223095  10.314  14.279   7.392
 7086SOL     OW23096   8.705   1.895   3.209
 7086SOL    HW123097   8.716   1.884   3.304
 7086SOL    HW223098   8.634   1.959   3.200
 7087SOL     OW23099   2.068  11.399   8.899
 7087SOL    HW123100   2.163  11.408   8.901
 7087SOL    HW223101   2.052  11.313   8.861
 7088SOL     OW23102  11.995  11.328   5.018
 7088SOL    HW123103  12.016  11.240   4.987
 7088SOL    HW223104  12.051  11.386   4.966
 7089SOL     OW23105   2.517   0.453   7.815
 7089SOL    HW123106   2.557   0.520   7.759
 7089SOL    HW223107   2.592   0.407   7.855
 7090SOL     OW23108   1.316   1.084   2.144
 7090SOL    HW123109   1.325   1.122   2.057
 7090SOL    HW223110   1.392   1.026   2.152
 7091SOL     OW23111  12.844  12.834   1.458
 7091SOL    HW123112  12.841  12.923   1.423
 7091SOL    HW223113  12.925  12.797   1.422
 7092SOL     OW23114  12.511  10.037  10.837
 7092SOL    HW123115  12.562  10.066  10.912
 7092SOL    HW223116  12.536   9.945  10.826
 7093SOL     OW23117  12.120   7.289   7.189
 7093SOL    HW123118  12.053   7.337   7.140
 7093SOL    HW223119  12.115   7.323   7.278
 7094SOL     OW23120  13.421   8.943   3.675
 7094SOL    HW123121  13.505   8.987   3.687
 7094SOL    HW223122  13.415   8.930   3.580
 7095SOL     OW23123  12.738   8.015   6.112
 7095SOL    HW123124  12.808   7.987   6.171
 7095SOL    HW223125  12.688   8.079   6.163
 7096SOL     OW23126  11.539   3.244  10.454
 7096SOL    HW123127  11.468   3.228  10.516
 7096SOL    HW223128  11.542   3.166  10.400
 7097SOL     OW23129   1.234  13.730   5.586
 7097SOL    HW123130   1.248  13.650   5.638
 7097SOL    HW223131   1.167  13.705   5.522
 7098SOL     OW23132  11.101   2.637   7.093
 7098SOL    HW123133  11.109   2.561   7.035
 7098SOL    HW223134  11.047   2.605   7.165
 7099SOL     OW23135   5.855   9.698   0.766
 7099SOL    HW123136   5.815   9.765   0.823
 7099SOL    HW223137   5.783   9.638   0.746
 7100SOL     OW23138  14.290   7.702   1.699
 7100SOL    HW123139  14.352   7.635   1.672
 7100SOL    HW223140  14.345   7.775   1.729
 7101SOL     OW23141  10.369   3.503   1.438
 7101SOL    HW123142  10.303   3.456   1.387
 7101SOL    HW223143  10.452   3.462   1.412
 7102SOL     OW23144   7.258   7.451   9.060
 7102SOL    HW123145   7.204   7.476   9.135
 7102SOL    HW223146   7.266   7.356   9.067
 7103SOL     OW23147   1.062   4.784   7.841
 7103SOL    HW123148   1.081   4.800   7.934
 7103SOL    HW223149   1.027   4.695   7.839
 7104SOL     OW23150   2.121  14.261   7.083
 7104SOL    HW123151   2.168  14.197   7.137
 7104SOL    HW223152   2.064  14.208   7.027
 7105SOL     OW23153  13.763   9.364   7.335
 7105SOL    HW123154  13.703   9.335   7.266
 7105SOL    HW223155  13.713   9.431   7.383
 7106SOL     OW23156   0.769   7.153  13.357
 7106SOL    HW123157   0.688   7.188  13.394
 7106SOL    HW223158   0.771   7.186  13.267
 7107SOL     OW23159  12.136   4.304   4.708
 7107SOL    HW123160  12.211   4.293   4.766
 7107SOL    HW223161  12.138   4.227   4.651
 7108SOL     OW23162  13.902   2.474   0.674
 7108SOL    HW123163  13.920   2.565   0.650
 7108SOL    HW223164  13.977   2.449   0.728
 7109SOL     OW23165   8.712  11.610   5.060
 7109SOL    HW123166   8.652  11.541   5.090
 7109SOL    HW223167   8.794  11.591   5.105
 7110SOL     OW23168   3.724   3.531  10.441
 7110SOL    HW123169   3.779   3.461  10.476
 7110SOL    HW223170   3.782   3.580  10.383
 7111SOL     OW23171  10.802   4.644   0.973
 7111SOL    HW123172  10.769   4.723   0.930
 7111SOL    HW223173  10.896   4.644   0.954
 7112SOL     OW23174   1.531   1.404   4.296
 7112SOL    HW123175   1.539   1.474   4.361
 7112SOL    HW223176   1.615   1.403   4.251
 7113SOL     OW23177   0.130   3.964   3.952
 7113SOL    HW123178   0.151   3.886   3.900
 7113SOL    HW223179   0.208   3.977   4.007
 7114SOL     OW23180   5.299   8.758   1.137
 7114SOL    HW123181   5.283   8.833   1.194
 7114SOL    HW223182   5.393   8.759   1.121
 7115SOL     OW23183   5.684  10.386   1.033
 7115SOL    HW123184   5.622  10.315   1.018
 7115SOL    HW223185   5.687  10.433   0.950
 7116SOL     OW23186   7.136   3.388   9.512
 7116SOL    HW123187   7.168   3.299   9.498
 7116SOL    HW223188   7.214   3.443   9.508
 7117SOL     OW23189   6.465   3.024  11.719
 7117SOL    HW123190   6.401   3.043  11.788
 7117SOL    HW223191   6.456   2.930  11.703
 7118SOL     OW23192  12.330   6.849  13.793
 7118SOL    HW123193  12.246   6.895  13.792
 7118SOL    HW223194  12.318   6.777  13.731
 7119SOL     OW23195   1.184   0.629   4.090
 7119SOL    HW123196   1.116   0.567   4.062
 7119SOL    HW223197   1.136   0.698   4.135
 7120SOL     OW23198   2.934   4.117  10.180
 7120SOL    HW123199   2.884   4.171  10.241
 7120SOL    HW223200   2.867   4.081  10.120
 7121SOL     OW23201  13.482   2.787  10.984
 7121SOL    HW123202  13.483   2.733  10.905
 7121SOL    HW223203  13.564   2.836  10.982
 7122SOL     OW23204   3.545   5.008   0.568
 7122SOL    HW123205   3.553   4.913   0.559
 7122SOL    HW223206   3.586   5.043   0.488
 7123SOL     OW23207  11.940   9.693   2.787
 7123SOL    HW123208  12.023   9.647   2.773
 7123SOL    HW223209  11.878   9.624   2.811
 7124SOL     OW23210   6.532   6.706   0.273
 7124SOL    HW123211   6.557   6.755   0.196
 7124SOL    HW223212   6.538   6.768   0.345
 7125SOL     OW23213  12.024  13.069   2.849
 7125SOL    HW123214  12.018  13.051   2.943
 7125SOL    HW223215  12.060  12.988   2.812
 7126SOL     OW23216  10.238   7.413   2.302
 7126SOL    HW123217  10.262   7.408   2.395
 7126SOL    HW223218  10.248   7.324   2.270
 7127SOL     OW23219  13.939  13.722   7.963
 7127SOL    HW123220  13.943  13.814   7.988
 7127SOL    HW223221  13.991  13.677   8.030
 7128SOL     OW23222  12.863  14.062   5.698
 7128SOL    HW123223  12.802  14.115   5.647
 7128SOL    HW223224  12.897  13.997   5.636
 7129SOL     OW23225  11.335   9.114   1.105
 7129SOL    HW123226  11.373   9.078   1.025
 7129SOL    HW223227  11.404   9.170   1.142
 7130SOL     OW23228  13.373  11.258   2.034
 7130SOL    HW123229  13.430  11.186   2.060
 7130SOL    HW223230  13.289  11.237   2.075
 7131SOL     OW23231   5.449   5.917  12.255
 7131SOL    HW123232   5.457   5.865  12.174
 7131SOL    HW223233   5.431   6.006  12.224
 7132SOL     OW23234   7.307  14.067   9.686
 7132SOL    HW123235   7.217  14.068   9.652
 7132SOL    HW223236   7.297  14.061   9.781
 7133SOL     OW23237  12.158  14.205   3.882
 7133SOL    HW123238  12.196  14.284   3.919
 7133SOL    HW223239  12.219  14.180   3.812
 7134SOL     OW23240   5.226   3.760   8.093
 7134SOL    HW123241   5.149   3.740   8.147
 7134SOL    HW223242   5.231   3.687   8.031
 7135SOL     OW23243   0.294   1.229   2.384
 7135SOL    HW123244   0.269   1.306   2.334
 7135SOL    HW223245   0.211   1.193   2.415
 7136SOL     OW23246   2.780   5.216  10.999
 7136SOL    HW123247   2.684   5.218  10.990
 7136SOL    HW223248   2.810   5.168  10.922
 7137SOL     OW23249   0.933   6.419  12.565
 7137SOL    HW123250   1.005   6.422  12.629
 7137SOL    HW223251   0.856   6.398  12.617
 7138SOL     OW23252  14.718   2.486   0.205
 7138SOL    HW123253  14.682   2.413   0.156
 7138SOL    HW223254  14.758   2.542   0.138
 7139SOL     OW23255   5.546   8.507  13.116
 7139SOL    HW123256   5.544   8.433  13.176
 7139SOL    HW223257   5.565   8.468  13.030
 7140SOL     OW23258   9.974  14.249  10.698
 7140SOL    HW123259  10.030  14.289  10.632
 7140SOL    HW223260   9.998  14.156  10.697
 7141SOL     OW23261   2.457   9.841   8.884
 7141SOL    HW123262   2.479   9.764   8.936
 7141SOL    HW223263   2.532   9.853   8.826
 7142SOL     OW23264  14.646   5.391  12.004
 7142SOL    HW123265  14.681   5.397  12.093
 7142SOL    HW223266  14.720   5.361  11.951
 7143SOL     OW23267   1.533   7.857   4.122
 7143SOL    HW123268   1.570   7.771   4.143
 7143SOL    HW223269   1.562   7.913   4.194
 7144SOL     OW23270  10.383   5.304  11.529
 7144SOL    HW123271  10.289   5.310  11.511
 7144SOL    HW223272  10.390   5.317  11.624
 7145SOL     OW23273  11.656   4.308   5.047
 7145SOL    HW123274  11.663   4.272   5.135
 7145SOL    HW223275  11.642   4.402   5.060
 7146SOL     OW23276   1.523   1.094  11.366
 7146SOL    HW123277   1.532   1.185  11.395
 7146SOL    HW223278   1.566   1.042  11.434
 7147SOL     OW23279   7.803  14.542   7.310
 7147SOL    HW123280   7.760  14.487   7.376
 7147SOL    HW223281   7.734  14.559   7.245
 7148SOL     OW23282  11.244   2.104   4.378
 7148SOL    HW123283  11.257   2.010   4.370
 7148SOL    HW223284  11.150   2.117   4.370
 7149SOL     OW23285  11.007   1.237   3.480
 7149SOL    HW123286  11.073   1.307   3.481
 7149SOL    HW223287  11.029   1.184   3.404
 7150SOL     OW23288   1.705  12.711  13.285
 7150SOL    HW123289   1.754  12.690  13.205
 7150SOL    HW223290   1.718  12.805  13.296
 7151SOL     OW23291   8.107   1.357   4.523
 7151SOL    HW123292   8.088   1.364   4.616
 7151SOL    HW223293   8.032   1.311   4.486
 7152SOL     OW23294   0.864   0.587   4.615
 7152SOL    HW123295   0.921   0.545   4.550
 7152SOL    HW223296   0.780   0.596   4.570
 7153SOL     OW23297   8.935   4.059   8.984
 7153SOL    HW123298   8.854   4.090   8.945
 7153SOL    HW223299   8.916   3.969   9.012
 7154SOL     OW23300   2.203   2.156   8.805
 7154SOL    HW123301   2.144   2.131   8.876
 7154SOL    HW223302   2.151   2.213   8.749
 7155SOL     OW23303   4.340   7.450  12.021
 7155SOL    HW123304   4.434   7.437  12.034
 7155SOL    HW223305   4.304   7.361  12.015
 7156SOL     OW23306  13.071   6.975   1.307
 7156SOL    HW123307  12.989   6.925   1.301
 7156SOL    HW223308  13.139   6.908   1.317
 7157SOL     OW23309   5.115   2.799   7.805
 7157SOL    HW123310   5.071   2.715   7.791
 7157SOL    HW223311   5.143   2.826   7.717
 7158SOL     OW23312  11.736  12.681   0.253
 7158SOL    HW123313  11.742  12.760   0.200
 7158SOL    HW223314  11.822  12.639   0.243
 7159SOL     OW23315   3.338   3.204   6.692
 7159SOL    HW123316   3.242   3.211   6.687
 7159SOL    HW223317   3.367   3.213   6.602
 7160SOL     OW23318   9.960   3.866  13.751
 7160SOL    HW123319  10.020   3.794  13.732
 7160SOL    HW223320   9.965   3.923  13.674
 7161SOL     OW23321  13.514   3.151   9.873
 7161SOL    HW123322  13.515   3.191   9.960
 7161SOL    HW223323  13.586   3.193   9.826
 7162SOL     OW23324  10.381  10.433  10.451
 7162SOL    HW123325  10.351  10.379  10.524
 7162SOL    HW223326  10.425  10.372  10.392
 7163SOL     OW23327  13.778  11.117  14.244
 7163SOL    HW123328  13.727  11.037  14.232
 7163SOL    HW223329  13.864  11.096  14.206
 7164SOL     OW23330   7.217  11.291   0.566
 7164SOL    HW123331   7.123  11.277   0.582
 7164SOL    HW223332   7.222  11.310   0.472
 7165SOL     OW23333  10.059  13.716   9.550
 7165SOL    HW123334   9.970  13.718   9.517
 7165SOL    HW223335  10.114  13.725   9.472
 7166SOL     OW23336   3.108   8.215   6.410
 7166SOL    HW123337   3.199   8.239   6.423
 7166SOL    HW223338   3.106   8.121   6.425
 7167SOL     OW23339   6.734   6.327   4.471
 7167SOL    HW123340   6.690   6.409   4.492
 7167SOL    HW223341   6.701   6.265   4.536
 7168SOL     OW23342   6.609  11.332  14.644
 7168SOL    HW123343   6.680  11.270  14.660
 7168SOL    HW223344   6.560  11.295  14.571
 7169SOL     OW23345   7.391  13.937   5.625
 7169SOL    HW123346   7.381  13.980   5.710
 7169SOL    HW223347   7.469  13.883   5.634
 7170SOL     OW23348  10.323  13.693   1.650
 7170SOL    HW123349  10.235  13.729   1.649
 7170SOL    HW223350  10.369  13.740   1.581
 7171SOL     OW23351   9.169   7.400   0.778
 7171SOL    HW123352   9.257   7.399   0.741
 7171SOL    HW223353   9.129   7.319   0.747
 7172SOL     OW23354   5.686   6.395   7.131
 7172SOL    HW123355   5.779   6.381   7.117
 7172SOL    HW223356   5.674   6.387   7.225
 7173SOL     OW23357   6.132   2.093   5.412
 7173SOL    HW123358   6.200   2.076   5.347
 7173SOL    HW223359   6.051   2.064   5.369
 7174SOL     OW23360   2.531   3.575  12.606
 7174SOL    HW123361   2.448   3.616  12.583
 7174SOL    HW223362   2.525   3.559  12.700
 7175SOL     OW23363   4.143  11.297  14.000
 7175SOL    HW123364   4.225  11.289  14.050
 7175SOL    HW223365   4.077  11.257  14.056
 7176SOL     OW23366   2.762   5.790  12.420
 7176SOL    HW123367   2.715   5.841  12.354
 7176SOL    HW223368   2.711   5.709  12.429
 7177SOL     OW23369   2.855   8.531  10.657
 7177SOL    HW123370   2.812   8.594  10.716
 7177SOL    HW223371   2.783   8.492  10.607
 7178SOL     OW23372  14.720  13.919   9.598
 7178SOL    HW123373  14.684  13.930   9.687
 7178SOL    HW223374  14.783  13.848   9.607
 7179SOL     OW23375   6.885  12.514  11.307
 7179SOL    HW123376   6.809  12.454  11.304
 7179SOL    HW223377   6.853  12.595  11.267
 7180SOL     OW23378  10.667  10.725   8.465
 7180SOL    HW123379  10.664  10.676   8.547
 7180SOL    HW223380  10.640  10.814   8.489
 7181SOL     OW23381   4.894   8.861   9.832
 7181SOL    HW123382   4.896   8.948   9.873
 7181SOL    HW223383   4.960   8.865   9.763
 7182SOL     OW23384  12.143   3.657   6.753
 7182SOL    HW123385  12.086   3.621   6.686
 7182SOL    HW223386  12.231   3.649   6.717
 7183SOL     OW23387  10.629   0.985   3.785
 7183SOL    HW123388  10.636   1.061   3.726
 7183SOL    HW223389  10.717   0.976   3.822
 7184SOL     OW23390   9.088  13.131   0.971
 7184SOL    HW123391   9.117  13.067   0.906
 7184SOL    HW223392   9.153  13.201   0.967
 7185SOL     OW23393  11.446   2.652   8.904
 7185SOL    HW123394  11.447   2.562   8.938
 7185SOL    HW223395  11.462   2.642   8.810
 7186SOL     OW23396   0.620  12.796   6.258
 7186SOL    HW123397   0.526  12.798   6.243
 7186SOL    HW223398   0.656  12.855   6.191
 7187SOL     OW23399   4.749  12.027   3.916
 7187SOL    HW123400   4.673  11.997   3.966
 7187SOL    HW223401   4.759  11.961   3.847
 7188SOL     OW23402  13.273   7.682   0.009
 7188SOL    HW123403  13.236   7.770   0.004
 7188SOL    HW223404  13.363   7.692  14.852
 7189SOL     OW23405   7.794   8.968  14.179
 7189SOL    HW123406   7.736   9.017  14.120
 7189SOL    HW223407   7.811   9.028  14.251
 7190SOL     OW23408   8.694   1.029   8.697
 7190SOL    HW123409   8.652   0.977   8.629
 7190SOL    HW223410   8.637   1.020   8.773
 7191SOL     OW23411   1.064   2.995   9.992
 7191SOL    HW123412   1.157   2.982  10.010
 7191SOL    HW223413   1.026   2.907   9.997
 7192SOL     OW23414  12.298  14.813   4.523
 7192SOL    HW123415  12.375  14.865   4.543
 7192SOL    HW223416  12.315  14.728   4.564
 7193SOL     OW23417   5.713   2.451   5.556
 7193SOL    HW123418   5.722   2.546   5.560
 7193SOL    HW223419   5.681   2.426   5.642
 7194SOL     OW23420   8.952   3.267   5.520
 7194SOL    HW123421   8.978   3.209   5.592
 7194SOL    HW223422   8.933   3.207   5.448
 7195SOL     OW23423   2.627  12.467   9.035
 7195SOL    HW123424   2.627  12.488   8.941
 7195SOL    HW223425   2.574  12.388   9.042
 7196SOL     OW23426  13.824   9.878   0.412
 7196SOL    HW123427  13.866   9.840   0.489
 7196SOL    HW223428  13.833   9.972   0.423
 7197SOL     OW23429  11.595  10.689   6.044
 7197SOL    HW123430  11.591  10.707   5.950
 7197SOL    HW223431  11.504  10.683   6.072
 7198SOL     OW23432   7.960  11.817   8.444
 7198SOL    HW123433   7.982  11.881   8.377
 7198SOL    HW223434   7.981  11.860   8.527
 7199SOL     OW23435  13.979   3.651   8.981
 7199SOL    HW123436  13.919   3.723   8.958
 7199SOL    HW223437  13.943   3.615   9.062
 7200SOL     OW23438   8.870   0.703   6.221
 7200SOL    HW123439   8.809   0.761   6.267
 7200SOL    HW223440   8.955   0.724   6.258
 7201SOL     OW23441   2.893  12.197  14.776
 7201SOL    HW123442   2.891  12.104  14.796
 7201SOL    HW223443   2.951  12.205  14.701
 7202SOL     OW23444   2.968   7.734  12.496
 7202SOL    HW123445   3.011   7.697  12.573
 7202SOL    HW223446   2.916   7.663  12.460
 7203SOL     OW23447  11.314  11.078   7.992
 7203SOL    HW123448  11.279  11.039   8.072
 7203SOL    HW223449  11.360  11.005   7.949
 7204SOL     OW23450  14.276   3.849  14.518
 7204SOL    HW123451  14.289   3.889  14.604
 7204SOL    HW223452  14.288   3.756  14.533
 7205SOL     OW23453  10.033   0.544   9.412
 7205SOL    HW123454  10.092   0.548   9.488
 7205SOL    HW223455  10.007   0.452   9.407
 7206SOL     OW23456   1.771   7.990   6.179
 7206SOL    HW123457   1.782   7.999   6.085
 7206SOL    HW223458   1.860   7.977   6.213
 7207SOL     OW23459  10.238   7.237   4.470
 7207SOL    HW123460  10.177   7.311   4.477
 7207SOL    HW223461  10.182   7.160   4.470
 7208SOL     OW23462   6.178   7.179   5.660
 7208SOL    HW123463   6.243   7.135   5.715
 7208SOL    HW223464   6.216   7.177   5.572
 7209SOL     OW23465  13.591   3.555   1.485
 7209SOL    HW123466  13.518   3.601   1.527
 7209SOL    HW223467  13.654   3.624   1.465
 7210SOL     OW23468   1.269   1.731   2.812
 7210SOL    HW123469   1.364   1.722   2.804
 7210SOL    HW223470   1.240   1.649   2.851
 7211SOL     OW23471   0.344   6.957   8.600
 7211SOL    HW123472   0.281   7.013   8.554
 7211SOL    HW223473   0.293   6.882   8.629
 7212SOL     OW23474  13.329  12.186  14.361
 7212SOL    HW123475  13.249  12.225  14.326
 7212SOL    HW223476  13.298  12.117  14.419
 7213SOL     OW23477  12.194   4.565   4.918
 7213SOL    HW123478  12.286   4.585   4.936
 7213SOL    HW223479  12.183   4.583   4.825
 7214SOL     OW23480   1.025   5.448  14.181
 7214SOL    HW123481   1.062   5.427  14.266
 7214SOL    HW223482   1.100   5.461  14.124
 7215SOL     OW23483  12.375  12.142  14.759
 7215SOL    HW123484  12.333  12.223  14.789
 7215SOL    HW223485  12.340  12.074  14.817
 7216SOL     OW23486   7.033  10.598   4.627
 7216SOL    HW123487   7.058  10.556   4.709
 7216SOL    HW223488   7.113  10.597   4.574
 7217SOL     OW23489   9.242   6.190   5.417
 7217SOL    HW123490   9.158   6.199   5.373
 7217SOL    HW223491   9.255   6.275   5.462
 7218SOL     OW23492   3.539   6.396  13.064
 7218SOL    HW123493   3.597   6.320  13.066
 7218SOL    HW223494   3.452   6.359  13.050
 7219SOL     OW23495  13.180   3.556   8.498
 7219SOL    HW123496  13.271   3.572   8.524
 7219SOL    HW223497  13.158   3.472   8.537
 7220SOL     OW23498   9.656   9.721   7.864
 7220SOL    HW123499   9.686   9.637   7.829
 7220SOL    HW223500   9.736   9.770   7.880
 7221SOL     OW23501  10.551  12.220   3.681
 7221SOL    HW123502  10.484  12.186   3.622
 7221SOL    HW223503  10.631  12.174   3.655
 7222SOL     OW23504   0.489  10.222   8.411
 7222SOL    HW123505   0.504  10.157   8.342
 7222SOL    HW223506   0.427  10.284   8.372
 7223SOL     OW23507   4.609  11.402   8.551
 7223SOL    HW123508   4.560  11.418   8.471
 7223SOL    HW223509   4.554  11.438   8.621
 7224SOL     OW23510  12.896   0.974   7.603
 7224SOL    HW123511  12.924   1.016   7.685
 7224SOL    HW223512  12.847   0.897   7.631
 7225SOL     OW23513   2.742   5.311   3.605
 7225SOL    HW123514   2.682   5.274   3.670
 7225SOL    HW223515   2.737   5.405   3.619
 7226SOL     OW23516  13.403  10.130   4.101
 7226SOL    HW123517  13.382  10.123   4.008
 7226SOL    HW223518  13.396  10.041   4.135
 7227SOL     OW23519   9.397   7.113   3.450
 7227SOL    HW123520   9.343   7.081   3.522
 7227SOL    HW223521   9.430   7.197   3.480
 7228SOL     OW23522   3.757   9.715   4.462
 7228SOL    HW123523   3.820   9.679   4.526
 7228SOL    HW223524   3.676   9.726   4.512
 7229SOL     OW23525  10.276   5.519   2.501
 7229SOL    HW123526  10.349   5.580   2.489
 7229SOL    HW223527  10.299   5.443   2.448
 7230SOL     OW23528   6.866   4.937   6.290
 7230SOL    HW123529   6.875   5.023   6.249
 7230SOL    HW223530   6.795   4.947   6.352
 7231SOL     OW23531   8.958  14.468   1.552
 7231SOL    HW123532   8.960  14.520   1.633
 7231SOL    HW223533   9.049  14.445   1.536
 7232SOL     OW23534   5.394   9.028   4.659
 7232SOL    HW123535   5.389   9.073   4.575
 7232SOL    HW223536   5.367   8.938   4.640
 7233SOL     OW23537   4.160   9.197   7.962
 7233SOL    HW123538   4.197   9.201   7.873
 7233SOL    HW223539   4.173   9.106   7.989
 7234SOL     OW23540  11.854  12.681   7.890
 7234SOL    HW123541  11.918  12.651   7.955
 7234SOL    HW223542  11.770  12.656   7.928
 7235SOL     OW23543   5.817   8.346  12.599
 7235SOL    HW123544   5.748   8.364  12.536
 7235SOL    HW223545   5.896   8.334  12.546
 7236SOL     OW23546   5.741   5.344   5.666
 7236SOL    HW123547   5.706   5.291   5.594
 7236SOL    HW223548   5.719   5.294   5.745
 7237SOL     OW23549  11.052  11.381   4.567
 7237SOL    HW123550  11.102  11.300   4.572
 7237SOL    HW223551  10.964  11.354   4.540
 7238SOL     OW23552  13.618   9.942   7.403
 7238SOL    HW123553  13.610  10.036   7.387
 7238SOL    HW223554  13.712   9.928   7.415
 7239SOL     OW23555   8.367  13.168   9.081
 7239SOL    HW123556   8.273  13.165   9.065
 7239SOL    HW223557   8.384  13.092   9.137
 7240SOL     OW23558  11.226   1.515   0.268
 7240SOL    HW123559  11.138   1.479   0.259
 7240SOL    HW223560  11.277   1.469   0.201
 7241SOL     OW23561   7.390   7.449   6.579
 7241SOL    HW123562   7.451   7.500   6.633
 7241SOL    HW223563   7.395   7.360   6.614
 7242SOL     OW23564   6.295   6.530   5.184
 7242SOL    HW123565   6.349   6.451   5.183
 7242SOL    HW223566   6.227   6.513   5.249
 7243SOL     OW23567   3.023  12.753  14.041
 7243SOL    HW123568   3.085  12.697  14.087
 7243SOL    HW223569   3.060  12.841  14.048
 7244SOL     OW23570  13.870  13.222   1.186
 7244SOL    HW123571  13.953  13.180   1.163
 7244SOL    HW223572  13.803  13.165   1.149
 7245SOL     OW23573  11.050   9.502  11.687
 7245SOL    HW123574  11.067   9.596  11.684
 7245SOL    HW223575  10.992   9.485  11.613
 7246SOL     OW23576  11.904   4.691  13.858
 7246SOL    HW123577  11.872   4.773  13.821
 7246SOL    HW223578  11.904   4.705  13.952
 7247SOL     OW23579  13.549   1.458   8.197
 7247SOL    HW123580  13.470   1.471   8.250
 7247SOL    HW223581  13.543   1.368   8.165
 7248SOL     OW23582   9.513   0.420  13.009
 7248SOL    HW123583   9.492   0.461  13.093
 7248SOL    HW223584   9.608   0.428  13.001
 7249SOL     OW23585  14.545   3.974  13.418
 7249SOL    HW123586  14.560   3.880  13.425
 7249SOL    HW223587  14.450   3.984  13.432
 7250SOL     OW23588   3.777   2.765   7.683
 7250SOL    HW123589   3.718   2.811   7.742
 7250SOL    HW223590   3.752   2.795   7.596
 7251SOL     OW23591   6.849   8.536  14.002
 7251SOL    HW123592   6.757   8.555  13.984
 7251SOL    HW223593   6.850   8.510  14.094
 7252SOL     OW23594   0.075  11.058  10.122
 7252SOL    HW123595  14.860  11.051  10.085
 7252SOL    HW223596   0.133  11.055  10.046
 7253SOL     OW23597  13.636   7.780   1.466
 7253SOL    HW123598  13.550   7.774   1.426
 7253SOL    HW223599  13.649   7.874   1.481
 7254SOL     OW23600   6.616   2.952  14.082
 7254SOL    HW123601   6.542   3.007  14.055
 7254SOL    HW223602   6.642   2.988  14.166
 7255SOL     OW23603   8.192   0.805   7.673
 7255SOL    HW123604   8.149   0.839   7.751
 7255SOL    HW223605   8.181   0.873   7.607
 7256SOL     OW23606  11.208  11.763   6.931
 7256SOL    HW123607  11.184  11.845   6.887
 7256SOL    HW223608  11.294  11.782   6.970
 7257SOL     OW23609   9.252   0.102  12.916
 7257SOL    HW123610   9.178   0.107  12.977
 7257SOL    HW223611   9.261   0.190  12.882
 7258SOL     OW23612  12.347   7.288  13.241
 7258SOL    HW123613  12.330   7.212  13.297
 7258SOL    HW223614  12.430   7.324  13.274
 7259SOL     OW23615   9.654  13.344   8.753
 7259SOL    HW123616   9.628  13.252   8.752
 7259SOL    HW223617   9.743  13.344   8.717
 7260SOL     OW23618   4.806   3.403   5.094
 7260SOL    HW123619   4.782   3.414   5.002
 7260SOL    HW223620   4.901   3.411   5.096
 7261SOL     OW23621   9.281   7.327  14.564
 7261SOL    HW123622   9.196   7.284  14.568
 7261SOL    HW223623   9.340   7.271  14.615
 7262SOL     OW23624  10.984  10.356   2.685
 7262SOL    HW123625  11.021  10.387   2.767
 7262SOL    HW223626  11.060  10.335   2.631
 7263SOL     OW23627   8.460   3.298   1.683
 7263SOL    HW123628   8.424   3.385   1.701
 7263SOL    HW223629   8.384   3.239   1.686
 7264SOL     OW23630  13.477  11.609   8.414
 7264SOL    HW123631  13.461  11.656   8.496
 7264SOL    HW223632  13.472  11.516   8.438
 7265SOL     OW23633   1.012   3.188   0.096
 7265SOL    HW123634   1.042   3.256   0.157
 7265SOL    HW223635   0.932   3.154   0.136
 7266SOL     OW23636   6.442  12.862   0.567
 7266SOL    HW123637   6.361  12.811   0.575
 7266SOL    HW223638   6.462  12.862   0.473
 7267SOL     OW23639   6.273  12.515  12.756
 7267SOL    HW123640   6.205  12.547  12.696
 7267SOL    HW223641   6.224  12.486  12.833
 7268SOL     OW23642  14.415   1.188   6.267
 7268SOL    HW123643  14.464   1.152   6.342
 7268SOL    HW223644  14.398   1.112   6.211
 7269SOL     OW23645   3.869  12.045   7.200
 7269SOL    HW123646   3.867  12.136   7.169
 7269SOL    HW223647   3.777  12.021   7.210
 7270SOL     OW23648   6.932   9.874   8.533
 7270SOL    HW123649   6.892   9.960   8.519
 7270SOL    HW223650   6.985   9.885   8.612
 7271SOL     OW23651   3.003  10.357   4.199
 7271SOL    HW123652   3.059  10.299   4.250
 7271SOL    HW223653   3.063  10.401   4.139
 7272SOL     OW23654  10.922   0.915   2.173
 7272SOL    HW123655  10.829   0.931   2.189
 7272SOL    HW223656  10.958   1.001   2.153
 7273SOL     OW23657   9.561   3.843   9.655
 7273SOL    HW123658   9.482   3.811   9.612
 7273SOL    HW223659   9.535   3.857   9.746
 7274SOL     OW23660   2.190  10.945  13.625
 7274SOL    HW123661   2.215  10.944  13.532
 7274SOL    HW223662   2.273  10.950  13.671
 7275SOL     OW23663  11.110  12.711  11.464
 7275SOL    HW123664  11.067  12.627  11.478
 7275SOL    HW223665  11.104  12.756  11.548
 7276SOL     OW23666   3.276   1.149   5.756
 7276SOL    HW123667   3.340   1.216   5.731
 7276SOL    HW223668   3.245   1.177   5.842
 7277SOL     OW23669   1.874   9.332   7.108
 7277SOL    HW123670   1.896   9.239   7.106
 7277SOL    HW223671   1.948   9.373   7.153
 7278SOL     OW23672   3.521   0.418   7.697
 7278SOL    HW123673   3.561   0.505   7.694
 7278SOL    HW223674   3.510   0.400   7.790
 7279SOL     OW23675   7.750   9.337   4.099
 7279SOL    HW123676   7.801   9.292   4.032
 7279SOL    HW223677   7.780   9.300   4.182
 7280SOL     OW23678  10.254  12.384  10.692
 7280SOL    HW123679  10.345  12.398  10.663
 7280SOL    HW223680  10.254  12.412  10.783
 7281SOL     OW23681   3.505  14.329  14.650
 7281SOL    HW123682   3.573  14.268  14.622
 7281SOL    HW223683   3.551  14.413  14.661
 7282SOL     OW23684   5.498  14.423   9.582
 7282SOL    HW123685   5.505  14.430   9.678
 7282SOL    HW223686   5.471  14.333   9.566
 7283SOL     OW23687   8.303   4.131   6.768
 7283SOL    HW123688   8.213   4.111   6.743
 7283SOL    HW223689   8.338   4.179   6.693
 7284SOL     OW23690   3.160   4.168   9.490
 7284SOL    HW123691   3.173   4.076   9.510
 7284SOL    HW223692   3.241   4.210   9.519
 7285SOL     OW23693   0.762   7.709   4.298
 7285SOL    HW123694   0.826   7.760   4.249
 7285SOL    HW223695   0.791   7.618   4.287
 7286SOL     OW23696   0.350  12.129   5.009
 7286SOL    HW123697   0.323  12.210   5.052
 7286SOL    HW223698   0.279  12.067   5.028
 7287SOL     OW23699   9.190   9.669  12.600
 7287SOL    HW123700   9.137   9.723  12.660
 7287SOL    HW223701   9.157   9.691  12.513
 7288SOL     OW23702  10.889   5.369   5.717
 7288SOL    HW123703  10.832   5.429   5.669
 7288SOL    HW223704  10.864   5.380   5.809
 7289SOL     OW23705  10.166   1.166   8.259
 7289SOL    HW123706  10.252   1.193   8.292
 7289SOL    HW223707  10.104   1.221   8.306
 7290SOL     OW23708   1.056   8.249  12.807
 7290SOL    HW123709   1.145   8.275  12.784
 7290SOL    HW223710   1.031   8.307  12.879
 7291SOL     OW23711  14.789   8.127  12.102
 7291SOL    HW123712  14.817   8.198  12.044
 7291SOL    HW223713  14.869   8.100  12.147
 7292SOL     OW23714  14.318   6.568   0.167
 7292SOL    HW123715  14.226   6.586   0.151
 7292SOL    HW223716  14.341   6.500   0.103
 7293SOL     OW23717   4.615   5.966   6.080
 7293SOL    HW123718   4.598   6.000   6.168
 7293SOL    HW223719   4.704   5.931   6.084
 7294SOL     OW23720   8.230  10.838   7.288
 7294SOL    HW123721   8.162  10.866   7.228
 7294SOL    HW223722   8.259  10.754   7.254
 7295SOL     OW23723   3.855   7.732   1.031
 7295SOL    HW123724   3.833   7.767   1.117
 7295SOL    HW223725   3.836   7.638   1.038
 7296SOL     OW23726   9.664   2.762   6.080
 7296SOL    HW123727   9.669   2.668   6.066
 7296SOL    HW223728   9.630   2.797   5.997
 7297SOL     OW23729  13.446  12.566   3.917
 7297SOL    HW123730  13.398  12.586   3.997
 7297SOL    HW223731  13.418  12.478   3.893
 7298SOL     OW23732  11.167   8.680   2.486
 7298SOL    HW123733  11.208   8.765   2.498
 7298SOL    HW223734  11.174   8.662   2.393
 7299SOL     OW23735   1.797   7.152   5.628
 7299SOL    HW123736   1.749   7.136   5.546
 7299SOL    HW223737   1.887   7.168   5.600
 7300SOL     OW23738   4.008   7.881   4.342
 7300SOL    HW123739   4.017   7.792   4.306
 7300SOL    HW223740   4.075   7.932   4.297
 7301SOL     OW23741   2.548  13.881   6.281
 7301SOL    HW123742   2.627  13.854   6.233
 7301SOL    HW223743   2.566  13.972   6.306
 7302SOL     OW23744   2.338  11.142   7.820
 7302SOL    HW123745   2.300  11.074   7.766
 7302SOL    HW223746   2.268  11.166   7.881
 7303SOL     OW23747   4.880  10.480   0.522
 7303SOL    HW123748   4.847  10.566   0.546
 7303SOL    HW223749   4.812  10.419   0.552
 7304SOL     OW23750   7.196   0.428  10.709
 7304SOL    HW123751   7.234   0.418  10.622
 7304SOL    HW223752   7.114   0.379  10.706
 7305SOL     OW23753  14.586   6.830   3.188
 7305SOL    HW123754  14.636   6.910   3.173
 7305SOL    HW223755  14.574   6.826   3.283
 7306SOL     OW23756  14.326   7.448  14.357
 7306SOL    HW123757  14.314   7.355  14.340
 7306SOL    HW223758  14.418   7.465  14.334
 7307SOL     OW23759   6.553  12.322   4.253
 7307SOL    HW123760   6.488  12.317   4.183
 7307SOL    HW223761   6.535  12.406   4.295
 7308SOL     OW23762   9.624   4.088   7.165
 7308SOL    HW123763   9.602   3.996   7.149
 7308SOL    HW223764   9.565   4.116   7.234
 7309SOL     OW23765   4.899   5.177   1.532
 7309SOL    HW123766   4.941   5.118   1.470
 7309SOL    HW223767   4.936   5.152   1.617
 7310SOL     OW23768  12.439   6.499   2.187
 7310SOL    HW123769  12.486   6.487   2.270
 7310SOL    HW223770  12.368   6.560   2.209
 7311SOL     OW23771   3.866   0.074   5.660
 7311SOL    HW123772   3.783   0.108   5.692
 7311SOL    HW223773   3.917   0.055   5.738
 7312SOL     OW23774  13.827   1.151   9.285
 7312SOL    HW123775  13.866   1.154   9.198
 7312SOL    HW223776  13.856   1.067   9.321
 7313SOL     OW23777   4.532   5.065   8.732
 7313SOL    HW123778   4.565   5.071   8.643
 7313SOL    HW223779   4.597   5.014   8.779
 7314SOL     OW23780  14.424  11.504   6.329
 7314SOL    HW123781  14.409  11.456   6.410
 7314SOL    HW223782  14.465  11.440   6.270
 7315SOL     OW23783  12.408   0.407   6.243
 7315SOL    HW123784  12.388   0.357   6.323
 7315SOL    HW223785  12.445   0.342   6.183
 7316SOL     OW23786   9.790   1.235  12.514
 7316SOL    HW123787   9.800   1.328  12.531
 7316SOL    HW223788   9.835   1.192  12.586
 7317SOL     OW23789   1.737   7.559   7.212
 7317SOL    HW123790   1.728   7.579   7.305
 7317SOL    HW223791   1.711   7.640   7.168
 7318SOL     OW23792  10.610   6.552  10.264
 7318SOL    HW123793  10.574   6.478  10.216
 7318SOL    HW223794  10.632   6.616  10.197
 7319SOL     OW23795  11.647   5.162  10.994
 7319SOL    HW123796  11.661   5.161  11.088
 7319SOL    HW223797  11.623   5.072  10.973
 7320SOL     OW23798   2.145   9.877   3.744
 7320SOL    HW123799   2.199   9.858   3.668
 7320SOL    HW223800   2.202   9.927   3.802
 7321SOL     OW23801   4.364  14.711  11.908
 7321SOL    HW123802   4.362  14.616  11.894
 7321SOL    HW223803   4.336  14.748  11.824
 7322SOL     OW23804   0.533   3.295  14.645
 7322SOL    HW123805   0.443   3.317  14.672
 7322SOL    HW223806   0.545   3.204  14.674
 7323SOL     OW23807  13.815   8.748   4.789
 7323SOL    HW123808  13.765   8.823   4.822
 7323SOL    HW223809  13.900   8.755   4.831
 7324SOL     OW23810   2.748  14.605   3.117
 7324SOL    HW123811   2.771  14.656   3.039
 7324SOL    HW223812   2.733  14.516   3.084
 7325SOL     OW23813   4.614   8.148   6.278
 7325SOL    HW123814   4.637   8.217   6.215
 7325SOL    HW223815   4.696   8.128   6.322
 7326SOL     OW23816  10.198   5.243   9.298
 7326SOL    HW123817  10.199   5.339   9.300
 7326SOL    HW223818  10.190   5.218   9.391
 7327SOL     OW23819   1.364  14.304  12.123
 7327SOL    HW123820   1.374  14.372  12.189
 7327SOL    HW223821   1.400  14.225  12.163
 7328SOL     OW23822   8.400   0.026  12.256
 7328SOL    HW123823   8.354  14.826  12.216
 7328SOL    HW223824   8.331   0.080  12.294
 7329SOL     OW23825   6.160   3.203   7.550
 7329SOL    HW123826   6.237   3.148   7.538
 7329SOL    HW223827   6.087   3.149   7.521
 7330SOL     OW23828   8.533   6.682   7.446
 7330SOL    HW123829   8.485   6.721   7.373
 7330SOL    HW223830   8.587   6.614   7.406
 7331SOL     OW23831  10.992  10.511  12.775
 7331SOL    HW123832  10.948  10.477  12.697
 7331SOL    HW223833  10.929  10.573  12.812
 7332SOL     OW23834  10.612  10.485   6.215
 7332SOL    HW123835  10.561  10.407   6.236
 7332SOL    HW223836  10.547  10.551   6.191
 7333SOL     OW23837  10.049   0.646   3.975
 7333SOL    HW123838  10.114   0.644   4.044
 7333SOL    HW223839  10.090   0.697   3.905
 7334SOL     OW23840   1.209   7.075  10.203
 7334SOL    HW123841   1.247   7.111  10.123
 7334SOL    HW223842   1.143   7.013  10.173
 7335SOL     OW23843   3.902   6.508  14.385
 7335SOL    HW123844   3.965   6.466  14.326
 7335SOL    HW223845   3.882   6.441  14.451
 7336SOL     OW23846   2.710   2.820   7.568
 7336SOL    HW123847   2.769   2.868   7.511
 7336SOL    HW223848   2.760   2.744   7.597
 7337SOL     OW23849   3.968  11.340   0.229
 7337SOL    HW123850   3.987  11.260   0.180
 7337SOL    HW223851   4.053  11.382   0.238
 7338SOL     OW23852   2.887  12.808   8.240
 7338SOL    HW123853   2.818  12.743   8.250
 7338SOL    HW223854   2.961  12.760   8.202
 7339SOL     OW23855   5.616   0.709  14.313
 7339SOL    HW123856   5.664   0.635  14.274
 7339SOL    HW223857   5.598   0.681  14.403
 7340SOL     OW23858   9.063  14.108  14.569
 7340SOL    HW123859   9.053  14.078  14.660
 7340SOL    HW223860   9.155  14.089  14.548
 7341SOL     OW23861   0.059   5.518   9.997
 7341SOL    HW123862   0.055   5.485   9.907
 7341SOL    HW223863   0.079   5.611   9.988
 7342SOL     OW23864   8.270   7.451   1.403
 7342SOL    HW123865   8.220   7.443   1.322
 7342SOL    HW223866   8.203   7.465   1.470
 7343SOL     OW23867   3.250   1.255   0.248
 7343SOL    HW123868   3.270   1.337   0.294
 7343SOL    HW223869   3.235   1.282   0.157
 7344SOL     OW23870   3.194  14.599   1.985
 7344SOL    HW123871   3.102  14.628   1.987
 7344SOL    HW223872   3.212  14.573   2.075
 7345SOL     OW23873   0.283  12.987  12.025
 7345SOL    HW123874   0.305  13.004  12.117
 7345SOL    HW223875   0.226  13.059  12.000
 7346SOL     OW23876   6.629   7.791   6.719
 7346SOL    HW123877   6.536   7.813   6.718
 7346SOL    HW223878   6.673   7.873   6.739
 7347SOL     OW23879  13.246  13.363   6.190
 7347SOL    HW123880  13.259  13.418   6.113
 7347SOL    HW223881  13.241  13.274   6.156
 7348SOL     OW23882  13.363   5.268   0.545
 7348SOL    HW123883  13.347   5.190   0.492
 7348SOL    HW223884  13.409   5.328   0.488
 7349SOL     OW23885   0.023   4.114   9.180
 7349SOL    HW123886   0.119   4.112   9.184
 7349SOL    HW223887  14.868   4.099   9.270
 7350SOL     OW23888  11.048   4.187   2.255
 7350SOL    HW123889  11.009   4.146   2.178
 7350SOL    HW223890  11.113   4.247   2.220
 7351SOL     OW23891   1.404  11.676   8.528
 7351SOL    HW123892   1.495  11.707   8.529
 7351SOL    HW223893   1.410  11.583   8.548
 7352SOL     OW23894   6.571   5.435   0.644
 7352SOL    HW123895   6.626   5.505   0.679
 7352SOL    HW223896   6.549   5.463   0.556
 7353SOL     OW23897   7.568   2.456  14.788
 7353SOL    HW123898   7.611   2.380  14.828
 7353SOL    HW223899   7.635   2.496  14.734
 7354SOL     OW23900   8.809   5.623  11.664
 7354SOL    HW123901   8.884   5.570  11.689
 7354SOL    HW223902   8.758   5.632  11.745
 7355SOL     OW23903   5.038   2.899  13.753
 7355SOL    HW123904   5.063   2.983  13.793
 7355SOL    HW223905   4.986   2.924  13.677
 7356SOL     OW23906   3.412   7.572  11.540
 7356SOL    HW123907   3.459   7.655  11.540
 7356SOL    HW223908   3.428   7.535  11.627
 7357SOL     OW23909   6.080   3.985   8.702
 7357SOL    HW123910   6.157   3.991   8.646
 7357SOL    HW223911   6.022   4.055   8.672
 7358SOL     OW23912   1.934   7.487   4.668
 7358SOL    HW123913   2.011   7.521   4.714
 7358SOL    HW223914   1.888   7.435   4.733
 7359SOL     OW23915   7.499  12.983   1.280
 7359SOL    HW123916   7.531  12.911   1.334
 7359SOL    HW223917   7.567  12.996   1.214
 7360SOL     OW23918  12.458   7.322  10.824
 7360SOL    HW123919  12.410   7.241  10.803
 7360SOL    HW223920  12.549   7.294  10.832
 7361SOL     OW23921   4.661  11.432   6.422
 7361SOL    HW123922   4.638  11.390   6.505
 7361SOL    HW223923   4.735  11.382   6.389
 7362SOL     OW23924   3.576  12.342   7.397
 7362SOL    HW123925   3.483  12.360   7.412
 7362SOL    HW223926   3.621  12.415   7.438
 7363SOL     OW23927   9.099  13.214  13.804
 7363SOL    HW123928   9.005  13.228  13.800
 7363SOL    HW223929   9.110  13.120  13.816
 7364SOL     OW23930   8.895   9.346   2.500
 7364SOL    HW123931   8.983   9.377   2.475
 7364SOL    HW223932   8.900   9.251   2.488
 7365SOL     OW23933   8.821   4.920   9.814
 7365SOL    HW123934   8.856   4.999   9.773
 7365SOL    HW223935   8.832   4.851   9.749
 7366SOL     OW23936   1.306  14.550   5.369
 7366SOL    HW123937   1.267  14.619   5.422
 7366SOL    HW223938   1.359  14.499   5.430
 7367SOL     OW23939  13.366  12.242   3.211
 7367SOL    HW123940  13.416  12.214   3.288
 7367SOL    HW223941  13.387  12.335   3.202
 7368SOL     OW23942   7.613   6.168   2.244
 7368SOL    HW123943   7.582   6.105   2.178
 7368SOL    HW223944   7.624   6.116   2.323
 7369SOL     OW23945   3.295   6.543   0.841
 7369SOL    HW123946   3.234   6.498   0.781
 7369SOL    HW223947   3.259   6.631   0.849
 7370SOL     OW23948   8.250   7.596   1.772
 7370SOL    HW123949   8.179   7.604   1.835
 7370SOL    HW223950   8.279   7.505   1.779
 7371SOL     OW23951  11.358  12.373   9.394
 7371SOL    HW123952  11.302  12.300   9.368
 7371SOL    HW223953  11.371  12.424   9.314
 7372SOL     OW23954   5.080  11.094   2.491
 7372SOL    HW123955   5.067  11.133   2.578
 7372SOL    HW223956   5.051  11.003   2.501
 7373SOL     OW23957   3.920  14.191   4.921
 7373SOL    HW123958   3.887  14.234   4.842
 7373SOL    HW223959   3.905  14.098   4.905
 7374SOL     OW23960  10.912  14.551   4.938
 7374SOL    HW123961  10.911  14.647   4.930
 7374SOL    HW223962  10.936  14.520   4.850
 7375SOL     OW23963   7.191   0.952   7.075
 7375SOL    HW123964   7.163   0.887   7.010
 7375SOL    HW223965   7.238   1.018   7.024
 7376SOL     OW23966   4.209   3.390  14.091
 7376SOL    HW123967   4.144   3.391  14.161
 7376SOL    HW223968   4.166   3.432  14.017
 7377SOL     OW23969   3.965  11.242   1.701
 7377SOL    HW123970   4.054  11.262   1.731
 7377SOL    HW223971   3.939  11.320   1.652
 7378SOL     OW23972   6.555   9.418  12.739
 7378SOL    HW123973   6.588   9.345  12.791
 7378SOL    HW223974   6.609   9.418  12.660
 7379SOL     OW23975  10.349   3.027   9.341
 7379SOL    HW123976  10.349   2.941   9.299
 7379SOL    HW223977  10.415   3.077   9.293
 7380SOL     OW23978  13.653   7.751  11.051
 7380SOL    HW123979  13.742   7.718  11.047
 7380SOL    HW223980  13.621   7.725  11.138
 7381SOL     OW23981   9.693   1.849   3.594
 7381SOL    HW123982   9.599   1.866   3.597
 7381SOL    HW223983   9.701   1.760   3.559
 7382SOL     OW23984   2.723  10.882   5.115
 7382SOL    HW123985   2.635  10.864   5.080
 7382SOL    HW223986   2.765  10.796   5.120
 7383SOL     OW23987   3.024   6.375   1.943
 7383SOL    HW123988   2.952   6.422   1.902
 7383SOL    HW223989   3.003   6.282   1.928
 7384SOL     OW23990   5.078   7.562  12.210
 7384SOL    HW123991   5.096   7.510  12.132
 7384SOL    HW223992   5.159   7.611  12.224
 7385SOL     OW23993  13.920   7.583   4.583
 7385SOL    HW123994  13.865   7.660   4.592
 7385SOL    HW223995  14.002   7.616   4.547
 7386SOL     OW23996   6.706   0.686   4.729
 7386SOL    HW123997   6.610   0.692   4.721
 7386SOL    HW223998   6.725   0.593   4.718
 7387SOL     OW23999  14.025  11.424  14.297
 7387SOL    HW124000  14.036  11.489  14.227
 7387SOL    HW224001  13.993  11.475  14.372
 7388SOL     OW24002  12.184   2.985   3.706
 7388SOL    HW124003  12.132   2.916   3.663
 7388SOL    HW224004  12.235   2.938   3.772
 7389SOL     OW24005   2.544   3.818  11.090
 7389SOL    HW124006   2.517   3.734  11.127
 7389SOL    HW224007   2.524   3.810  10.997
 7390SOL     OW24008   8.805  12.693  13.914
 7390SOL    HW124009   8.900  12.694  13.903
 7390SOL    HW224010   8.787  12.607  13.952
 7391SOL     OW24011   0.330   6.803   2.255
 7391SOL    HW124012   0.373   6.756   2.327
 7391SOL    HW224013   0.402   6.840   2.204
 7392SOL     OW24014   9.986   2.345   8.621
 7392SOL    HW124015  10.000   2.263   8.573
 7392SOL    HW224016   9.936   2.400   8.561
 7393SOL     OW24017   9.191   7.101   4.251
 7393SOL    HW124018   9.110   7.117   4.203
 7393SOL    HW224019   9.228   7.022   4.210
 7394SOL     OW24020   8.070  13.380   5.388
 7394SOL    HW124021   8.101  13.316   5.451
 7394SOL    HW224022   7.989  13.342   5.352
 7395SOL     OW24023   4.834   5.468   3.803
 7395SOL    HW124024   4.740   5.481   3.812
 7395SOL    HW224025   4.873   5.553   3.821
 7396SOL     OW24026   0.567  14.831   2.421
 7396SOL    HW124027   0.660  14.809   2.420
 7396SOL    HW224028   0.535  14.796   2.504
 7397SOL     OW24029   2.412   3.793   7.007
 7397SOL    HW124030   2.400   3.764   6.916
 7397SOL    HW224031   2.381   3.719   7.060
 7398SOL     OW24032   9.093   4.828  12.470
 7398SOL    HW124033   9.096   4.924  12.464
 7398SOL    HW224034   9.036   4.802  12.398
 7399SOL     OW24035  12.757  11.247  12.302
 7399SOL    HW124036  12.668  11.237  12.335
 7399SOL    HW224037  12.746  11.261  12.208
 7400SOL     OW24038   5.815  10.471   0.184
 7400SOL    HW124039   5.772  10.525   0.117
 7400SOL    HW224040   5.889  10.432   0.138
 7401SOL     OW24041  10.925   4.831  14.432
 7401SOL    HW124042  10.846   4.858  14.478
 7401SOL    HW224043  10.900   4.831  14.340
 7402SOL     OW24044   8.269   4.576   1.184
 7402SOL    HW124045   8.317   4.618   1.112
 7402SOL    HW224046   8.324   4.589   1.261
 7403SOL     OW24047   5.726   4.009  12.784
 7403SOL    HW124048   5.822   4.008  12.788
 7403SOL    HW224049   5.700   4.077  12.847
 7404SOL     OW24050   7.947   1.150   2.766
 7404SOL    HW124051   7.946   1.087   2.838
 7404SOL    HW224052   8.031   1.137   2.724
 7405SOL     OW24053   6.834   1.557   9.373
 7405SOL    HW124054   6.761   1.497   9.361
 7405SOL    HW224055   6.826   1.621   9.302
 7406SOL     OW24056   3.817  10.018  10.365
 7406SOL    HW124057   3.889   9.986  10.419
 7406SOL    HW224058   3.739   9.981  10.405
 7407SOL     OW24059   6.595  10.296  11.670
 7407SOL    HW124060   6.548  10.351  11.732
 7407SOL    HW224061   6.546  10.305  11.588
 7408SOL     OW24062  11.971  13.784   2.476
 7408SOL    HW124063  11.897  13.726   2.458
 7408SOL    HW224064  12.027  13.733   2.534
 7409SOL     OW24065   1.417   1.142  11.763
 7409SOL    HW124066   1.328   1.128  11.795
 7409SOL    HW224067   1.424   1.236  11.751
 7410SOL     OW24068   8.232   9.471  13.542
 7410SOL    HW124069   8.173   9.416  13.593
 7410SOL    HW224070   8.183   9.552  13.527
 7411SOL     OW24071   4.597   6.958   4.278
 7411SOL    HW124072   4.585   6.989   4.188
 7411SOL    HW224073   4.554   6.872   4.279
 7412SOL     OW24074   8.327   0.785   8.705
 7412SOL    HW124075   8.359   0.737   8.629
 7412SOL    HW224076   8.336   0.877   8.681
 7413SOL     OW24077  10.180  14.044   1.909
 7413SOL    HW124078  10.125  14.029   1.986
 7413SOL    HW224079  10.207  13.957   1.880
 7414SOL     OW24080   0.825  13.478   4.919
 7414SOL    HW124081   0.769  13.422   4.972
 7414SOL    HW224082   0.833  13.559   4.970
 7415SOL     OW24083  11.573   0.422   7.461
 7415SOL    HW124084  11.639   0.364   7.501
 7415SOL    HW224085  11.497   0.365   7.448
 7416SOL     OW24086   4.341   5.239   6.807
 7416SOL    HW124087   4.368   5.148   6.815
 7416SOL    HW224088   4.327   5.252   6.714
 7417SOL     OW24089  11.794   1.258  13.916
 7417SOL    HW124090  11.724   1.300  13.965
 7417SOL    HW224091  11.760   1.249  13.827
 7418SOL     OW24092  12.436  11.811   9.397
 7418SOL    HW124093  12.405  11.874   9.332
 7418SOL    HW224094  12.357  11.789   9.447
 7419SOL     OW24095  13.012  14.413   6.078
 7419SOL    HW124096  12.935  14.422   6.022
 7419SOL    HW224097  13.023  14.500   6.116
 7420SOL     OW24098   1.439   7.500   8.327
 7420SOL    HW124099   1.345   7.495   8.315
 7420SOL    HW224100   1.455   7.590   8.356
 7421SOL     OW24101   6.699   0.908   2.570
 7421SOL    HW124102   6.749   0.900   2.489
 7421SOL    HW224103   6.690   1.002   2.584
 7422SOL     OW24104  14.422  12.250   6.729
 7422SOL    HW124105  14.387  12.319   6.785
 7422SOL    HW224106  14.434  12.175   6.788
 7423SOL     OW24107  14.693   9.137  13.882
 7423SOL    HW124108  14.701   9.225  13.845
 7423SOL    HW224109  14.775   9.093  13.856
 7424SOL     OW24110   3.237   6.040   0.992
 7424SOL    HW124111   3.316   6.026   1.044
 7424SOL    HW224112   3.245   5.978   0.919
 7425SOL     OW24113   7.593  12.821  14.343
 7425SOL    HW124114   7.599  12.914  14.323
 7425SOL    HW224115   7.673  12.783  14.306
 7426SOL     OW24116   1.287   8.388   5.808
 7426SOL    HW124117   1.303   8.476   5.844
 7426SOL    HW224118   1.315   8.328   5.877
 7427SOL     OW24119  11.829   2.813   5.350
 7427SOL    HW124120  11.887   2.873   5.397
 7427SOL    HW224121  11.820   2.738   5.410
 7428SOL     OW24122   5.247  12.866  10.285
 7428SOL    HW124123   5.322  12.925  10.271
 7428SOL    HW224124   5.208  12.855  10.199
 7429SOL     OW24125   6.520   9.568   5.212
 7429SOL    HW124126   6.565   9.588   5.130
 7429SOL    HW224127   6.582   9.594   5.280
 7430SOL     OW24128   6.523   8.876   2.332
 7430SOL    HW124129   6.606   8.851   2.373
 7430SOL    HW224130   6.549   8.932   2.259
 7431SOL     OW24131   1.105   0.079   5.685
 7431SOL    HW124132   1.133   0.121   5.603
 7431SOL    HW224133   1.143   0.134   5.753
 7432SOL     OW24134   1.326   9.972  13.112
 7432SOL    HW124135   1.240   9.948  13.078
 7432SOL    HW224136   1.366  10.022  13.041
 7433SOL     OW24137  11.133   3.004   6.789
 7433SOL    HW124138  11.145   2.911   6.808
 7433SOL    HW224139  11.173   3.016   6.703
 7434SOL     OW24140   0.840   9.022   2.337
 7434SOL    HW124141   0.898   9.005   2.411
 7434SOL    HW224142   0.854   9.114   2.316
 7435SOL     OW24143   4.733   6.493   8.091
 7435SOL    HW124144   4.794   6.496   8.165
 7435SOL    HW224145   4.677   6.570   8.102
 7436SOL     OW24146  14.432   3.057  12.365
 7436SOL    HW124147  14.477   3.061  12.281
 7436SOL    HW224148  14.344   3.025  12.344
 7437SOL     OW24149  13.043   3.596   2.753
 7437SOL    HW124150  12.969   3.553   2.795
 7437SOL    HW224151  13.081   3.529   2.697
 7438SOL     OW24152   7.129  10.452   3.637
 7438SOL    HW124153   7.073  10.471   3.561
 7438SOL    HW224154   7.178  10.374   3.613
 7439SOL     OW24155  13.907   1.525   4.735
 7439SOL    HW124156  13.955   1.485   4.807
 7439SOL    HW224157  13.947   1.489   4.656
 7440SOL     OW24158   5.609  10.015   4.209
 7440SOL    HW124159   5.573   9.953   4.144
 7440SOL    HW224160   5.542  10.083   4.216
 7441SOL     OW24161   6.204   6.221  14.760
 7441SOL    HW124162   6.193   6.210  14.854
 7441SOL    HW224163   6.115   6.218  14.724
 7442SOL     OW24164   9.492  10.372  12.167
 7442SOL    HW124165   9.418  10.426  12.195
 7442SOL    HW224166   9.456  10.316  12.098
 7443SOL     OW24167   4.254  11.250   3.140
 7443SOL    HW124168   4.292  11.203   3.066
 7443SOL    HW224169   4.269  11.343   3.119
 7444SOL     OW24170   6.555  14.369   6.303
 7444SOL    HW124171   6.470  14.325   6.299
 7444SOL    HW224172   6.533  14.461   6.317
 7445SOL     OW24173   5.465   7.316   8.795
 7445SOL    HW124174   5.416   7.239   8.767
 7445SOL    HW224175   5.518   7.286   8.868
 7446SOL     OW24176  13.913   7.463   8.741
 7446SOL    HW124177  13.929   7.511   8.660
 7446SOL    HW224178  13.831   7.500   8.776
 7447SOL     OW24179   4.244  13.595  10.375
 7447SOL    HW124180   4.150  13.585  10.392
 7447SOL    HW224181   4.250  13.616  10.282
 7448SOL     OW24182   6.456   6.860  14.579
 7448SOL    HW124183   6.516   6.793  14.547
 7448SOL    HW224184   6.495   6.943  14.553
 7449SOL     OW24185   3.360  13.003   0.778
 7449SOL    HW124186   3.362  12.908   0.780
 7449SOL    HW224187   3.360  13.025   0.684
 7450SOL     OW24188  10.645   1.168   6.063
 7450SOL    HW124189  10.724   1.213   6.091
 7450SOL    HW224190  10.573   1.216   6.104
 7451SOL     OW24191   2.865   8.430   5.437
 7451SOL    HW124192   2.793   8.447   5.498
 7451SOL    HW224193   2.913   8.357   5.477
 7452SOL     OW24194   7.761   5.865   0.933
 7452SOL    HW124195   7.692   5.914   0.978
 7452SOL    HW224196   7.719   5.835   0.852
 7453SOL     OW24197   3.390  14.329   1.611
 7453SOL    HW124198   3.481  14.356   1.596
 7453SOL    HW224199   3.396  14.237   1.636
 7454SOL     OW24200   8.616   5.613  10.821
 7454SOL    HW124201   8.652   5.666  10.750
 7454SOL    HW224202   8.533   5.656  10.843
 7455SOL     OW24203  11.813   9.974  12.437
 7455SOL    HW124204  11.748  10.035  12.472
 7455SOL    HW224205  11.846   9.928  12.514
 7456SOL     OW24206   6.193   3.260   8.084
 7456SOL    HW124207   6.206   3.226   7.995
 7456SOL    HW224208   6.117   3.212   8.117
 7457SOL     OW24209  12.175   8.457   0.846
 7457SOL    HW124210  12.097   8.445   0.900
 7457SOL    HW224211  12.248   8.451   0.907
 7458SOL     OW24212   3.477   2.448  13.294
 7458SOL    HW124213   3.480   2.362  13.253
 7458SOL    HW224214   3.449   2.430  13.384
 7459SOL     OW24215  12.923   7.494   1.056
 7459SOL    HW124216  12.860   7.450   0.999
 7459SOL    HW224217  12.915   7.449   1.140
 7460SOL     OW24218   9.682  13.970  12.852
 7460SOL    HW124219   9.619  14.025  12.898
 7460SOL    HW224220   9.744  13.943  12.919
 7461SOL     OW24221   6.385  13.272   1.619
 7461SOL    HW124222   6.400  13.275   1.524
 7461SOL    HW224223   6.435  13.196   1.649
 7462SOL     OW24224   1.365  12.049   8.747
 7462SOL    HW124225   1.371  12.008   8.661
 7462SOL    HW224226   1.349  11.977   8.808
 7463SOL     OW24227   7.159   8.296   6.742
 7463SOL    HW124228   7.146   8.381   6.784
 7463SOL    HW224229   7.227   8.254   6.794
 7464SOL     OW24230  10.790   9.182   7.871
 7464SOL    HW124231  10.703   9.207   7.903
 7464SOL    HW224232  10.851   9.233   7.925
 7465SOL     OW24233   2.910  11.482   1.959
 7465SOL    HW124234   2.911  11.444   2.046
 7465SOL    HW224235   2.990  11.534   1.954
 7466SOL     OW24236   2.577   7.015   5.131
 7466SOL    HW124237   2.555   7.063   5.051
 7466SOL    HW224238   2.608   7.083   5.191
 7467SOL     OW24239  10.216  14.110   3.302
 7467SOL    HW124240  10.200  14.042   3.368
 7467SOL    HW224241  10.169  14.186   3.334
 7468SOL     OW24242   0.799   8.680   2.149
 7468SOL    HW124243   0.885   8.654   2.116
 7468SOL    HW224244   0.737   8.635   2.091
 7469SOL     OW24245   7.828  11.811  12.686
 7469SOL    HW124246   7.877  11.816  12.604
 7469SOL    HW224247   7.832  11.719  12.711
 7470SOL     OW24248   3.631  12.554   5.034
 7470SOL    HW124249   3.663  12.555   4.944
 7470SOL    HW224250   3.661  12.471   5.070
 7471SOL     OW24251  11.757   5.762   6.103
 7471SOL    HW124252  11.794   5.675   6.113
 7471SOL    HW224253  11.739   5.770   6.009
 7472SOL     OW24254  14.305   5.467  14.842
 7472SOL    HW124255  14.373   5.533  14.838
 7472SOL    HW224256  14.303   5.438   0.060
 7473SOL     OW24257   9.985   1.298  11.718
 7473SOL    HW124258   9.973   1.218  11.769
 7473SOL    HW224259   9.921   1.291  11.648
 7474SOL     OW24260   4.509  12.718  12.138
 7474SOL    HW124261   4.475  12.636  12.173
 7474SOL    HW224262   4.498  12.781  12.209
 7475SOL     OW24263  10.290  11.458   0.186
 7475SOL    HW124264  10.377  11.467   0.147
 7475SOL    HW224265  10.307  11.441   0.278
 7476SOL     OW24266  10.725  14.047  12.711
 7476SOL    HW124267  10.740  14.098  12.790
 7476SOL    HW224268  10.801  14.065  12.656
 7477SOL     OW24269  12.119  13.401   8.896
 7477SOL    HW124270  12.084  13.358   8.818
 7477SOL    HW224271  12.084  13.351   8.970
 7478SOL     OW24272  11.805   4.800  10.991
 7478SOL    HW124273  11.725   4.823  10.944
 7478SOL    HW224274  11.840   4.725  10.943
 7479SOL     OW24275   7.870  11.647   5.330
 7479SOL    HW124276   7.876  11.592   5.408
 7479SOL    HW224277   7.855  11.735   5.363
 7480SOL     OW24278  14.547  10.031   8.953
 7480SOL    HW124279  14.538  10.051   8.860
 7480SOL    HW224280  14.537  10.115   8.998
 7481SOL     OW24281   4.424  11.655  11.833
 7481SOL    HW124282   4.329  11.641  11.829
 7481SOL    HW224283   4.445  11.697  11.749
 7482SOL     OW24284  11.170   4.357   2.548
 7482SOL    HW124285  11.193   4.264   2.553
 7482SOL    HW224286  11.227   4.392   2.479
 7483SOL     OW24287   7.696   9.643   3.146
 7483SOL    HW124288   7.679   9.697   3.223
 7483SOL    HW224289   7.765   9.690   3.099
 7484SOL     OW24290   7.579   1.106   8.019
 7484SOL    HW124291   7.544   1.043   7.956
 7484SOL    HW224292   7.502   1.145   8.061
 7485SOL     OW24293   8.057   1.657   2.898
 7485SOL    HW124294   8.134   1.713   2.895
 7485SOL    HW224295   8.054   1.626   2.989
 7486SOL     OW24296  11.643   6.481  14.729
 7486SOL    HW124297  11.627   6.427  14.652
 7486SOL    HW224298  11.560   6.526  14.744
 7487SOL     OW24299  11.323   7.235   2.747
 7487SOL    HW124300  11.372   7.187   2.681
 7487SOL    HW224301  11.362   7.209   2.830
 7488SOL     OW24302   0.440   8.991   4.934
 7488SOL    HW124303   0.514   9.050   4.918
 7488SOL    HW224304   0.477   8.920   4.985
 7489SOL     OW24305  11.421  11.831   7.064
 7489SOL    HW124306  11.487  11.878   7.013
 7489SOL    HW224307  11.443  11.850   7.155
 7490SOL     OW24308   4.658  11.475   8.907
 7490SOL    HW124309   4.710  11.394   8.909
 7490SOL    HW224310   4.576  11.450   8.865
 7491SOL     OW24311   4.143  10.776   5.808
 7491SOL    HW124312   4.062  10.775   5.757
 7491SOL    HW224313   4.114  10.772   5.899
 7492SOL     OW24314  13.004   4.735   4.645
 7492SOL    HW124315  13.056   4.760   4.721
 7492SOL    HW224316  13.041   4.785   4.573
 7493SOL     OW24317  10.266   0.354   3.980
 7493SOL    HW124318  10.235   0.392   4.062
 7493SOL    HW224319  10.317   0.423   3.939
 7494SOL     OW24320   1.178  11.722  11.618
 7494SOL    HW124321   1.193  11.817  11.618
 7494SOL    HW224322   1.217  11.692  11.535
 7495SOL     OW24323   4.952   8.224   0.343
 7495SOL    HW124324   5.039   8.215   0.305
 7495SOL    HW224325   4.942   8.318   0.359
 7496SOL     OW24326   9.400   7.397   6.245
 7496SOL    HW124327   9.414   7.315   6.292
 7496SOL    HW224328   9.424   7.465   6.307
 7497SOL     OW24329  10.416   5.538  10.584
 7497SOL    HW124330  10.322   5.551  10.596
 7497SOL    HW224331  10.456   5.582  10.660
 7498SOL     OW24332   1.745   1.286  13.222
 7498SOL    HW124333   1.699   1.326  13.148
 7498SOL    HW224334   1.815   1.234  13.182
 7499SOL     OW24335  13.484   0.433   8.546
 7499SOL    HW124336  13.451   0.439   8.456
 7499SOL    HW224337  13.441   0.505   8.593
 7500SOL     OW24338   4.808   7.949   9.681
 7500SOL    HW124339   4.892   7.905   9.664
 7500SOL    HW224340   4.779   7.912   9.764
 7501SOL     OW24341   8.227  12.213  11.074
 7501SOL    HW124342   8.245  12.281  11.009
 7501SOL    HW224343   8.200  12.261  11.152
 7502SOL     OW24344   9.965   9.899   9.109
 7502SOL    HW124345   9.886   9.852   9.084
 7502SOL    HW224346   9.937   9.990   9.119
 7503SOL     OW24347  10.440  14.315   0.772
 7503SOL    HW124348  10.533  14.306   0.793
 7503SOL    HW224349  10.424  14.250   0.704
 7504SOL     OW24350   2.197   7.883  14.625
 7504SOL    HW124351   2.240   7.919  14.548
 7504SOL    HW224352   2.150   7.957  14.663
 7505SOL     OW24353  10.381   4.538   7.100
 7505SOL    HW124354  10.298   4.525   7.146
 7505SOL    HW224355  10.414   4.622   7.132
 7506SOL     OW24356   2.397   5.279   3.094
 7506SOL    HW124357   2.372   5.275   3.186
 7506SOL    HW224358   2.326   5.234   3.048
 7507SOL     OW24359   0.127   7.654   4.474
 7507SOL    HW124360   0.041   7.648   4.433
 7507SOL    HW224361   0.186   7.679   4.403
 7508SOL     OW24362   4.064   6.170   1.943
 7508SOL    HW124363   4.057   6.246   1.885
 7508SOL    HW224364   3.998   6.109   1.910
 7509SOL     OW24365  14.117   5.440   1.081
 7509SOL    HW124366  14.187   5.397   1.031
 7509SOL    HW224367  14.048   5.374   1.088
 7510SOL     OW24368   0.880   0.261  14.853
 7510SOL    HW124369   0.931   0.300  14.782
 7510SOL    HW224370   0.832   0.334   0.018
 7511SOL     OW24371   9.262   4.147  13.814
 7511SOL    HW124372   9.294   4.224  13.861
 7511SOL    HW224373   9.167   4.149  13.827
 7512SOL     OW24374   1.580   0.559  10.366
 7512SOL    HW124375   1.661   0.517  10.337
 7512SOL    HW224376   1.601   0.652  10.368
 7513SOL     OW24377   9.973   5.101   2.242
 7513SOL    HW124378  10.009   5.019   2.208
 7513SOL    HW224379   9.990   5.098   2.336
 7514SOL     OW24380   2.055   1.266  13.009
 7514SOL    HW124381   2.093   1.352  12.992
 7514SOL    HW224382   1.987   1.257  12.943
 7515SOL     OW24383   2.179  12.928   0.991
 7515SOL    HW124384   2.127  13.000   0.956
 7515SOL    HW224385   2.253  12.971   1.034
 7516SOL     OW24386   5.032  13.467   0.578
 7516SOL    HW124387   5.031  13.471   0.483
 7516SOL    HW224388   5.116  13.504   0.604
 7517SOL     OW24389  10.665   4.738   6.256
 7517SOL    HW124390  10.617   4.819   6.275
 7517SOL    HW224391  10.605   4.688   6.201
 7518SOL     OW24392  13.197   0.371   3.905
 7518SOL    HW124393  13.159   0.346   3.989
 7518SOL    HW224394  13.186   0.294   3.850
 7519SOL     OW24395   3.554   9.604  10.352
 7519SOL    HW124396   3.584   9.538  10.415
 7519SOL    HW224397   3.515   9.673  10.404
 7520SOL     OW24398   0.545   2.057  11.835
 7520SOL    HW124399   0.605   2.114  11.883
 7520SOL    HW224400   0.479   2.116  11.799
 7521SOL     OW24401  12.641   2.541   5.259
 7521SOL    HW124402  12.609   2.451   5.259
 7521SOL    HW224403  12.737   2.532   5.259
 7522SOL     OW24404   7.103   1.314  12.270
 7522SOL    HW124405   7.105   1.219  12.283
 7522SOL    HW224406   7.128   1.351  12.354
 7523SOL     OW24407  11.642   6.424  10.017
 7523SOL    HW124408  11.621   6.343   9.970
 7523SOL    HW224409  11.640   6.491   9.950
 7524SOL     OW24410   9.844  14.056   1.090
 7524SOL    HW124411   9.885  13.993   1.149
 7524SOL    HW224412   9.914  14.082   1.029
 7525SOL     OW24413   6.476   4.221   0.536
 7525SOL    HW124414   6.512   4.304   0.506
 7525SOL    HW224415   6.547   4.180   0.586
 7526SOL     OW24416   2.308  12.953  13.933
 7526SOL    HW124417   2.354  12.927  13.853
 7526SOL    HW224418   2.243  12.884  13.946
 7527SOL     OW24419   1.294   5.898   2.203
 7527SOL    HW124420   1.250   5.845   2.136
 7527SOL    HW224421   1.380   5.859   2.213
 7528SOL     OW24422   4.138   9.416   3.624
 7528SOL    HW124423   4.124   9.511   3.630
 7528SOL    HW224424   4.196   9.396   3.698
 7529SOL     OW24425  10.098   5.250   3.865
 7529SOL    HW124426  10.111   5.277   3.956
 7529SOL    HW224427  10.025   5.188   3.868
 7530SOL     OW24428  11.257   0.616   4.833
 7530SOL    HW124429  11.225   0.693   4.881
 7530SOL    HW224430  11.289   0.651   4.750
 7531SOL     OW24431   6.003   3.229   3.158
 7531SOL    HW124432   5.963   3.142   3.155
 7531SOL    HW224433   5.932   3.288   3.184
 7532SOL     OW24434   5.179   8.553   1.034
 7532SOL    HW124435   5.242   8.500   0.985
 7532SOL    HW224436   5.229   8.630   1.062
 7533SOL     OW24437   7.226  14.094   5.444
 7533SOL    HW124438   7.276  14.175   5.435
 7533SOL    HW224439   7.288  14.031   5.481
 7534SOL     OW24440   4.348  13.714  14.478
 7534SOL    HW124441   4.393  13.756  14.405
 7534SOL    HW224442   4.276  13.773  14.499
 7535SOL     OW24443   7.888   1.220  13.947
 7535SOL    HW124444   7.889   1.280  13.873
 7535SOL    HW224445   7.814   1.247  14.000
 7536SOL     OW24446   1.057  14.478  10.823
 7536SOL    HW124447   1.018  14.401  10.865
 7536SOL    HW224448   1.054  14.459  10.729
 7537SOL     OW24449   1.893   3.397  13.847
 7537SOL    HW124450   1.973   3.445  13.865
 7537SOL    HW224451   1.826   3.440  13.900
 7538SOL     OW24452   9.684   1.864   5.432
 7538SOL    HW124453   9.754   1.818   5.478
 7538SOL    HW224454   9.718   1.877   5.343
 7539SOL     OW24455   0.597   2.758   1.664
 7539SOL    HW124456   0.597   2.788   1.755
 7539SOL    HW224457   0.578   2.837   1.613
 7540SOL     OW24458   8.100   4.272   2.205
 7540SOL    HW124459   8.135   4.342   2.261
 7540SOL    HW224460   8.111   4.305   2.116
 7541SOL     OW24461   1.206   7.536   6.052
 7541SOL    HW124462   1.200   7.450   6.009
 7541SOL    HW224463   1.211   7.598   5.979
 7542SOL     OW24464   3.257  11.126   0.907
 7542SOL    HW124465   3.236  11.078   0.827
 7542SOL    HW224466   3.290  11.211   0.876
 7543SOL     OW24467  11.243   1.262   2.206
 7543SOL    HW124468  11.302   1.266   2.281
 7543SOL    HW224469  11.249   1.171   2.176
 7544SOL     OW24470   2.191   2.253  12.863
 7544SOL    HW124471   2.243   2.246  12.783
 7544SOL    HW224472   2.208   2.171  12.909
 7545SOL     OW24473   3.315   3.257  13.996
 7545SOL    HW124474   3.294   3.247  13.904
 7545SOL    HW224475   3.291   3.347  14.018
 7546SOL     OW24476  11.087   7.352  13.003
 7546SOL    HW124477  11.006   7.313  13.034
 7546SOL    HW224478  11.143   7.277  12.981
 7547SOL     OW24479   6.798   5.562   8.792
 7547SOL    HW124480   6.831   5.566   8.881
 7547SOL    HW224481   6.875   5.543   8.738
 7548SOL     OW24482   7.290  11.018  10.453
 7548SOL    HW124483   7.212  11.045  10.501
 7548SOL    HW224484   7.273  10.928  10.428
 7549SOL     OW24485  14.471   9.456   1.631
 7549SOL    HW124486  14.558   9.480   1.599
 7549SOL    HW224487  14.468   9.361   1.623
 7550SOL     OW24488  14.835  12.084   7.504
 7550SOL    HW124489  14.748  12.043   7.504
 7550SOL    HW224490  14.818  12.173   7.535
 7551SOL     OW24491   0.454   8.166   8.496
 7551SOL    HW124492   0.537   8.156   8.449
 7551SOL    HW224493   0.394   8.104   8.453
 7552SOL     OW24494  12.387   4.717   6.768
 7552SOL    HW124495  12.370   4.807   6.795
 7552SOL    HW224496  12.306   4.689   6.725
 7553SOL     OW24497   5.771  14.183  10.316
 7553SOL    HW124498   5.801  14.122  10.383
 7553SOL    HW224499   5.847  14.237  10.297
 7554SOL     OW24500   1.949   0.855  11.243
 7554SOL    HW124501   1.915   0.785  11.298
 7554SOL    HW224502   2.000   0.810  11.176
 7555SOL     OW24503   4.863  13.757  12.705
 7555SOL    HW124504   4.931  13.810  12.747
 7555SOL    HW224505   4.781  13.794  12.736
 7556SOL     OW24506  11.067   5.347   4.328
 7556SOL    HW124507  11.075   5.254   4.309
 7556SOL    HW224508  11.153   5.384   4.306
 7557SOL     OW24509  10.739  13.990   1.687
 7557SOL    HW124510  10.777  14.053   1.749
 7557SOL    HW224511  10.803  13.919   1.683
 7558SOL     OW24512   8.473   2.177   9.010
 7558SOL    HW124513   8.523   2.209   9.085
 7558SOL    HW224514   8.389   2.220   9.016
 7559SOL     OW24515  14.239  14.082   5.107
 7559SOL    HW124516  14.327  14.086   5.144
 7559SOL    HW224517  14.253  14.061   5.015
 7560SOL     OW24518   0.976   4.543   0.709
 7560SOL    HW124519   1.061   4.517   0.673
 7560SOL    HW224520   0.986   4.635   0.732
 7561SOL     OW24521   3.112   0.735   5.658
 7561SOL    HW124522   3.161   0.815   5.673
 7561SOL    HW224523   3.145   0.701   5.575
 7562SOL     OW24524   7.657   7.434  12.512
 7562SOL    HW124525   7.633   7.341  12.511
 7562SOL    HW224526   7.575   7.481  12.495
 7563SOL     OW24527   1.680   3.168   6.672
 7563SOL    HW124528   1.673   3.264   6.674
 7563SOL    HW224529   1.733   3.150   6.594
 7564SOL     OW24530  11.852  11.130   6.500
 7564SOL    HW124531  11.823  11.188   6.572
 7564SOL    HW224532  11.945  11.148   6.491
 7565SOL     OW24533  11.414   9.054  14.221
 7565SOL    HW124534  11.501   9.078  14.187
 7565SOL    HW224535  11.355   9.120  14.185
 7566SOL     OW24536  10.308   3.396   4.253
 7566SOL    HW124537  10.401   3.411   4.236
 7566SOL    HW224538  10.307   3.345   4.334
 7567SOL     OW24539  13.404   3.674   1.632
 7567SOL    HW124540  13.338   3.738   1.607
 7567SOL    HW224541  13.361   3.620   1.698
 7568SOL     OW24542  14.117   9.892   9.056
 7568SOL    HW124543  14.189   9.953   9.070
 7568SOL    HW224544  14.066   9.931   8.985
 7569SOL     OW24545  12.434  10.253   6.462
 7569SOL    HW124546  12.503  10.222   6.521
 7569SOL    HW224547  12.355  10.252   6.516
 7570SOL     OW24548   6.664  10.113  11.893
 7570SOL    HW124549   6.619  10.169  11.956
 7570SOL    HW224550   6.735  10.072  11.944
 7571SOL     OW24551   6.173   1.657   8.484
 7571SOL    HW124552   6.232   1.613   8.545
 7571SOL    HW224553   6.091   1.666   8.533
 7572SOL     OW24554   8.790  12.085   1.695
 7572SOL    HW124555   8.839  12.027   1.637
 7572SOL    HW224556   8.734  12.027   1.747
 7573SOL     OW24557   3.160   2.319   6.447
 7573SOL    HW124558   3.221   2.357   6.511
 7573SOL    HW224559   3.098   2.390   6.428
 7574SOL     OW24560   4.971   5.683  12.620
 7574SOL    HW124561   4.944   5.622  12.552
 7574SOL    HW224562   5.004   5.759  12.572
 7575SOL     OW24563  14.753   7.023  10.050
 7575SOL    HW124564  14.738   7.059  10.137
 7575SOL    HW224565  14.773   7.099   9.995
 7576SOL     OW24566   8.504  14.308   8.425
 7576SOL    HW124567   8.543  14.331   8.509
 7576SOL    HW224568   8.570  14.335   8.361
 7577SOL     OW24569  14.578  12.874  14.244
 7577SOL    HW124570  14.621  12.927  14.177
 7577SOL    HW224571  14.496  12.920  14.263
 7578SOL     OW24572   8.731  10.672  10.123
 7578SOL    HW124573   8.826  10.661  10.117
 7578SOL    HW224574   8.705  10.705  10.037
 7579SOL     OW24575   5.703   0.906   5.668
 7579SOL    HW124576   5.737   0.842   5.605
 7579SOL    HW224577   5.608   0.901   5.659
 7580SOL     OW24578   5.449   8.565  12.624
 7580SOL    HW124579   5.487   8.568  12.712
 7580SOL    HW224580   5.518   8.529  12.569
 7581SOL     OW24581   5.468   5.348   8.847
 7581SOL    HW124582   5.559   5.368   8.870
 7581SOL    HW224583   5.419   5.359   8.928
 7582SOL     OW24584   0.877   1.912   6.043
 7582SOL    HW124585   0.888   1.989   6.099
 7582SOL    HW224586   0.966   1.878   6.030
 7583SOL     OW24587  14.814   9.655  10.362
 7583SOL    HW124588  14.806   9.751  10.367
 7583SOL    HW224589  14.732   9.627  10.322
 7584SOL     OW24590  10.543  14.573   0.633
 7584SOL    HW124591  10.511  14.488   0.664
 7584SOL    HW224592  10.614  14.596   0.692
 7585SOL     OW24593   5.964  11.271   1.001
 7585SOL    HW124594   6.013  11.197   1.036
 7585SOL    HW224595   6.022  11.346   1.010
 7586SOL     OW24596  10.679   9.756  13.179
 7586SOL    HW124597  10.683   9.848  13.153
 7586SOL    HW224598  10.619   9.716  13.117
 7587SOL     OW24599   8.342   8.037   0.357
 7587SOL    HW124600   8.267   7.977   0.356
 7587SOL    HW224601   8.419   7.981   0.353
 7588SOL     OW24602   4.182  14.570   2.426
 7588SOL    HW124603   4.170  14.562   2.331
 7588SOL    HW224604   4.146  14.656   2.447
 7589SOL     OW24605   5.559   7.139   1.124
 7589SOL    HW124606   5.528   7.169   1.210
 7589SOL    HW224607   5.653   7.128   1.134
 7590SOL     OW24608   7.644  14.091   8.776
 7590SOL    HW124609   7.674  14.169   8.729
 7590SOL    HW224610   7.606  14.125   8.857
 7591SOL     OW24611   5.703   1.215   7.154
 7591SOL    HW124612   5.756   1.177   7.224
 7591SOL    HW224613   5.617   1.229   7.193
 7592SOL     OW24614   7.055   0.658   8.853
 7592SOL    HW124615   7.032   0.727   8.916
 7592SOL    HW224616   7.077   0.705   8.772
 7593SOL     OW24617   9.990  13.205   6.826
 7593SOL    HW124618  10.048  13.270   6.787
 7593SOL    HW224619  10.002  13.215   6.920
 7594SOL     OW24620   2.087   8.321  10.515
 7594SOL    HW124621   2.133   8.348  10.594
 7594SOL    HW224622   2.118   8.232  10.498
 7595SOL     OW24623  10.371   1.939   6.351
 7595SOL    HW124624  10.307   2.001   6.317
 7595SOL    HW224625  10.357   1.938   6.446
 7596SOL     OW24626   0.741  13.994   3.166
 7596SOL    HW124627   0.820  14.047   3.161
 7596SOL    HW224628   0.760  13.916   3.113
 7597SOL     OW24629   9.515   5.257  11.782
 7597SOL    HW124630   9.461   5.336  11.774
 7597SOL    HW224631   9.543   5.238  11.692
 7598SOL     OW24632   9.684   0.011  12.965
 7598SOL    HW124633   9.597  14.857  12.995
 7598SOL    HW224634   9.722   0.055  13.041
 7599SOL     OW24635  13.414   8.823   7.355
 7599SOL    HW124636  13.467   8.786   7.284
 7599SOL    HW224637  13.324   8.798   7.333
 7600SOL     OW24638   0.790  11.033   0.392
 7600SOL    HW124639   0.702  11.038   0.430
 7600SOL    HW224640   0.836  10.968   0.446
 7601SOL     OW24641  11.589  13.922  12.789
 7601SOL    HW124642  11.543  13.871  12.723
 7601SOL    HW224643  11.622  13.999  12.742
 7602SOL     OW24644  13.847  13.524   5.996
 7602SOL    HW124645  13.869  13.522   5.903
 7602SOL    HW224646  13.926  13.496   6.041
 7603SOL     OW24647  14.705   6.149  12.825
 7603SOL    HW124648  14.738   6.206  12.894
 7603SOL    HW224649  14.784   6.114  12.783
 7604SOL     OW24650   0.414   7.062  10.188
 7604SOL    HW124651   0.423   7.050  10.282
 7604SOL    HW224652   0.399   6.974  10.153
 7605SOL     OW24653   2.283   1.240   4.212
 7605SOL    HW124654   2.248   1.273   4.129
 7605SOL    HW224655   2.376   1.262   4.209
 7606SOL     OW24656   8.669   1.753   0.508
 7606SOL    HW124657   8.694   1.827   0.563
 7606SOL    HW224658   8.580   1.774   0.479
 7607SOL     OW24659  12.988   5.700   1.345
 7607SOL    HW124660  13.063   5.734   1.395
 7607SOL    HW224661  13.023   5.683   1.258
 7608SOL     OW24662  10.947   8.601  14.849
 7608SOL    HW124663  10.852   8.608  14.855
 7608SOL    HW224664  10.970   8.654  14.773
 7609SOL     OW24665   2.410   5.994  14.020
 7609SOL    HW124666   2.356   6.030  14.090
 7609SOL    HW224667   2.485   6.053  14.014
 7610SOL     OW24668  10.121   0.576   2.292
 7610SOL    HW124669  10.057   0.627   2.244
 7610SOL    HW224670  10.087   0.572   2.381
 7611SOL     OW24671   7.221   1.703   9.118
 7611SOL    HW124672   7.222   1.638   9.188
 7611SOL    HW224673   7.196   1.784   9.162
 7612SOL     OW24674   8.054   9.464  10.586
 7612SOL    HW124675   8.050   9.506  10.672
 7612SOL    HW224676   8.145   9.434  10.578
 7613SOL     OW24677   3.777   6.416  12.203
 7613SOL    HW124678   3.734   6.500  12.190
 7613SOL    HW224679   3.859   6.423  12.154
 7614SOL     OW24680   8.858   7.919   8.126
 7614SOL    HW124681   8.780   7.972   8.108
 7614SOL    HW224682   8.828   7.850   8.184
 7615SOL     OW24683  11.364   9.751  12.881
 7615SOL    HW124684  11.335   9.688  12.946
 7615SOL    HW224685  11.308   9.828  12.896
 7616SOL     OW24686  11.070   3.135   7.059
 7616SOL    HW124687  11.089   3.118   6.967
 7616SOL    HW224688  11.017   3.060   7.087
 7617SOL     OW24689   4.034  12.913  11.109
 7617SOL    HW124690   4.099  12.870  11.164
 7617SOL    HW224691   4.071  12.999  11.090
 7618SOL     OW24692  11.388   0.348  12.336
 7618SOL    HW124693  11.336   0.274  12.369
 7618SOL    HW224694  11.466   0.308  12.298
 7619SOL     OW24695   0.091  13.324   9.098
 7619SOL    HW124696   0.067  13.247   9.151
 7619SOL    HW224697   0.046  13.310   9.015
 7620SOL     OW24698  10.299   7.831   8.495
 7620SOL    HW124699  10.210   7.800   8.478
 7620SOL    HW224700  10.321   7.882   8.417
 7621SOL     OW24701  14.122  10.194   2.261
 7621SOL    HW124702  14.134  10.237   2.346
 7621SOL    HW224703  14.035  10.223   2.232
 7622SOL     OW24704  10.716   3.396   5.525
 7622SOL    HW124705  10.652   3.338   5.482
 7622SOL    HW224706  10.741   3.458   5.458
 7623SOL     OW24707   2.506   4.979  13.633
 7623SOL    HW124708   2.464   4.941  13.556
 7623SOL    HW224709   2.456   4.943  13.707
 7624SOL     OW24710   2.901   0.501   9.678
 7624SOL    HW124711   2.976   0.560   9.669
 7624SOL    HW224712   2.833   0.541   9.623
 7625SOL     OW24713   5.262   2.352   4.654
 7625SOL    HW124714   5.338   2.395   4.615
 7625SOL    HW224715   5.190   2.414   4.641
 7626SOL     OW24716   2.335  10.236  10.474
 7626SOL    HW124717   2.332  10.231  10.378
 7626SOL    HW224718   2.400  10.171  10.499
 7627SOL     OW24719  13.442   5.240   0.155
 7627SOL    HW124720  13.378   5.232   0.085
 7627SOL    HW224721  13.514   5.289   0.115
 7628SOL     OW24722   5.289   8.616  11.113
 7628SOL    HW124723   5.284   8.632  11.207
 7628SOL    HW224724   5.317   8.525  11.105
 7629SOL     OW24725  14.863   1.474   4.710
 7629SOL    HW124726  14.803   1.489   4.784
 7629SOL    HW224727   0.010   1.381   4.713
 7630SOL     OW24728   8.390   0.012   7.431
 7630SOL    HW124729   8.389  14.801   7.386
 7630SOL    HW224730   8.481   0.042   7.423
 7631SOL     OW24731   6.850  10.172   3.926
 7631SOL    HW124732   6.839  10.080   3.951
 7631SOL    HW224733   6.932  10.175   3.878
 7632SOL     OW24734   2.471  12.153  12.988
 7632SOL    HW124735   2.455  12.199  13.070
 7632SOL    HW224736   2.389  12.161  12.939
 7633SOL     OW24737   1.932  14.834   7.382
 7633SOL    HW124738   1.880  14.771   7.332
 7633SOL    HW224739   1.942  14.794   7.468
 7634SOL     OW24740   7.542  13.192   4.692
 7634SOL    HW124741   7.583  13.278   4.680
 7634SOL    HW224742   7.508  13.169   4.605
 7635SOL     OW24743  13.191  12.468   7.363
 7635SOL    HW124744  13.267  12.515   7.397
 7635SOL    HW224745  13.121  12.489   7.424
 7636SOL     OW24746   3.554   9.626   1.504
 7636SOL    HW124747   3.616   9.696   1.525
 7636SOL    HW224748   3.561   9.616   1.409
 7637SOL     OW24749  14.002   9.978   3.627
 7637SOL    HW124750  13.910  10.005   3.623
 7637SOL    HW224751  14.051  10.058   3.607
 7638SOL     OW24752  10.275  13.945   6.047
 7638SOL    HW124753  10.190  13.901   6.049
 7638SOL    HW224754  10.318  13.910   5.969
 7639SOL     OW24755  14.158  13.705   4.398
 7639SOL    HW124756  14.101  13.630   4.409
 7639SOL    HW224757  14.186  13.727   4.487
 7640SOL     OW24758   2.450   6.630   7.829
 7640SOL    HW124759   2.461   6.712   7.878
 7640SOL    HW224760   2.439   6.659   7.738
 7641SOL     OW24761   5.940   7.654   6.697
 7641SOL    HW124762   5.852   7.646   6.735
 7641SOL    HW224763   5.936   7.601   6.617
 7642SOL     OW24764  13.373   9.322   8.659
 7642SOL    HW124765  13.374   9.295   8.750
 7642SOL    HW224766  13.283   9.308   8.630
 7643SOL     OW24767  11.926  11.138   8.387
 7643SOL    HW124768  12.018  11.127   8.362
 7643SOL    HW224769  11.901  11.223   8.351
 7644SOL     OW24770   3.411   7.839  11.477
 7644SOL    HW124771   3.343   7.796  11.424
 7644SOL    HW224772   3.364   7.875  11.552
 7645SOL     OW24773   8.335   8.752   0.710
 7645SOL    HW124774   8.274   8.716   0.645
 7645SOL    HW224775   8.323   8.696   0.787
 7646SOL     OW24776   1.938  11.673  10.632
 7646SOL    HW124777   1.956  11.585  10.599
 7646SOL    HW224778   2.020  11.721  10.616
 7647SOL     OW24779  12.639   5.148   5.971
 7647SOL    HW124780  12.630   5.225   6.027
 7647SOL    HW224781  12.597   5.173   5.889
 7648SOL     OW24782   7.368  11.171   8.909
 7648SOL    HW124783   7.451  11.219   8.905
 7648SOL    HW224784   7.394  11.081   8.927
 7649SOL     OW24785   3.522   5.861  10.635
 7649SOL    HW124786   3.504   5.949  10.603
 7649SOL    HW224787   3.578   5.874  10.712
 7650SOL     OW24788   0.368  11.804  10.418
 7650SOL    HW124789   0.308  11.865  10.374
 7650SOL    HW224790   0.447  11.806  10.365
 7651SOL     OW24791   9.648   5.088   9.581
 7651SOL    HW124792   9.693   5.079   9.497
 7651SOL    HW224793   9.642   4.998   9.614
 7652SOL     OW24794   7.306  10.288   5.805
 7652SOL    HW124795   7.396  10.318   5.794
 7652SOL    HW224796   7.261  10.314   5.724
 7653SOL     OW24797   7.672  10.919   9.688
 7653SOL    HW124798   7.609  10.973   9.640
 7653SOL    HW224799   7.642  10.921   9.779
 7654SOL     OW24800  10.634   7.648   7.062
 7654SOL    HW124801  10.650   7.736   7.028
 7654SOL    HW224802  10.627   7.659   7.157
 7655SOL     OW24803  12.278   0.637  14.092
 7655SOL    HW124804  12.362   0.630  14.138
 7655SOL    HW224805  12.212   0.623  14.161
 7656SOL     OW24806   2.467   7.420  10.123
 7656SOL    HW124807   2.442   7.338  10.166
 7656SOL    HW224808   2.556   7.404  10.090
 7657SOL     OW24809   0.871   7.854   7.892
 7657SOL    HW124810   0.778   7.839   7.875
 7657SOL    HW224811   0.911   7.855   7.805
 7658SOL     OW24812  10.410   3.774   8.707
 7658SOL    HW124813  10.376   3.685   8.719
 7658SOL    HW224814  10.455   3.771   8.623
 7659SOL     OW24815  14.535   7.647   2.079
 7659SOL    HW124816  14.530   7.555   2.051
 7659SOL    HW224817  14.629   7.663   2.089
 7660SOL     OW24818   7.369   0.634  14.802
 7660SOL    HW124819   7.443   0.590  14.760
 7660SOL    HW224820   7.363   0.594   0.016
 7661SOL     OW24821  11.701   5.824   3.809
 7661SOL    HW124822  11.639   5.883   3.764
 7661SOL    HW224823  11.647   5.777   3.872
 7662SOL     OW24824   1.982   8.052   7.428
 7662SOL    HW124825   1.965   8.081   7.518
 7662SOL    HW224826   2.063   8.002   7.434
 7663SOL     OW24827   8.132   9.053   9.125
 7663SOL    HW124828   8.222   9.046   9.158
 7663SOL    HW224829   8.079   9.061   9.205
 7664SOL     OW24830   2.287   6.356   5.760
 7664SOL    HW124831   2.207   6.377   5.712
 7664SOL    HW224832   2.357   6.396   5.707
 7665SOL     OW24833   9.881   2.605  10.552
 7665SOL    HW124834   9.905   2.632  10.641
 7665SOL    HW224835   9.813   2.538  10.564
 7666SOL     OW24836   3.967   4.030  10.007
 7666SOL    HW124837   4.035   3.962  10.013
 7666SOL    HW224838   4.014   4.112  10.025
 7667SOL     OW24839   4.471  11.405   1.456
 7667SOL    HW124840   4.438  11.345   1.389
 7667SOL    HW224841   4.520  11.471   1.407
 7668SOL     OW24842  10.125   1.566   5.216
 7668SOL    HW124843  10.106   1.597   5.127
 7668SOL    HW224844  10.067   1.617   5.272
 7669SOL     OW24845   3.889   2.616   5.951
 7669SOL    HW124846   3.919   2.664   6.028
 7669SOL    HW224847   3.928   2.529   5.960
 7670SOL     OW24848   3.761   9.384   9.541
 7670SOL    HW124849   3.689   9.435   9.578
 7670SOL    HW224850   3.815   9.360   9.616
 7671SOL     OW24851   7.107   6.112   8.537
 7671SOL    HW124852   7.030   6.169   8.547
 7671SOL    HW224853   7.136   6.128   8.448
 7672SOL     OW24854   6.110   5.687   1.673
 7672SOL    HW124855   6.196   5.688   1.632
 7672SOL    HW224856   6.120   5.738   1.753
 7673SOL     OW24857   5.651   3.721  10.967
 7673SOL    HW124858   5.638   3.775  11.046
 7673SOL    HW224859   5.562   3.704  10.935
 7674SOL     OW24860   4.763   1.735   9.374
 7674SOL    HW124861   4.812   1.723   9.293
 7674SOL    HW224862   4.769   1.829   9.391
 7675SOL     OW24863   6.447  11.039   0.506
 7675SOL    HW124864   6.451  11.130   0.476
 7675SOL    HW224865   6.491  11.040   0.591
 7676SOL     OW24866   2.762  13.372  11.767
 7676SOL    HW124867   2.774  13.299  11.828
 7676SOL    HW224868   2.677  13.409  11.789
 7677SOL     OW24869   6.575  14.106  12.407
 7677SOL    HW124870   6.533  14.172  12.352
 7677SOL    HW224871   6.513  14.091  12.478
 7678SOL     OW24872  14.357   5.565   9.499
 7678SOL    HW124873  14.355   5.538   9.591
 7678SOL    HW224874  14.446   5.543   9.470
 7679SOL     OW24875   2.986   1.118   7.677
 7679SOL    HW124876   2.917   1.090   7.737
 7679SOL    HW224877   3.067   1.101   7.725
 7680SOL     OW24878  14.793   0.053   0.507
 7680SOL    HW124879  14.778   0.128   0.565
 7680SOL    HW224880  14.841  14.864   0.561
 7681SOL     OW24881   9.399  11.629   0.518
 7681SOL    HW124882   9.323  11.588   0.558
 7681SOL    HW224883   9.387  11.615   0.424
 7682SOL     OW24884   8.588   8.216   3.936
 7682SOL    HW124885   8.643   8.295   3.929
 7682SOL    HW224886   8.505   8.248   3.970
 7683SOL     OW24887   4.808   2.561  10.155
 7683SOL    HW124888   4.859   2.635  10.188
 7683SOL    HW224889   4.721   2.572  10.193
 7684SOL     OW24890   2.123  11.474   7.274
 7684SOL    HW124891   2.152  11.541   7.336
 7684SOL    HW224892   2.201  11.422   7.256
 7685SOL     OW24893  11.066   9.972   9.603
 7685SOL    HW124894  10.988   9.924   9.577
 7685SOL    HW224895  11.136   9.935   9.549
 7686SOL     OW24896   7.813   0.611  14.136
 7686SOL    HW124897   7.760   0.585  14.060
 7686SOL    HW224898   7.818   0.706  14.131
 7687SOL     OW24899   2.623   7.338  13.791
 7687SOL    HW124900   2.588   7.419  13.753
 7687SOL    HW224901   2.599   7.344  13.884
 7688SOL     OW24902   3.564  10.098   9.801
 7688SOL    HW124903   3.571  10.036   9.729
 7688SOL    HW224904   3.497  10.160   9.773
 7689SOL     OW24905   4.673  11.399  12.042
 7689SOL    HW124906   4.705  11.378  11.954
 7689SOL    HW224907   4.727  11.346  12.101
 7690SOL     OW24908   0.573   5.001   3.849
 7690SOL    HW124909   0.604   5.074   3.904
 7690SOL    HW224910   0.643   4.936   3.855
 7691SOL     OW24911   0.264   8.620  13.075
 7691SOL    HW124912   0.187   8.676  13.083
 7691SOL    HW224913   0.280   8.588  13.164
 7692SOL     OW24914   0.513   4.107   1.928
 7692SOL    HW124915   0.558   4.182   1.888
 7692SOL    HW224916   0.571   4.080   1.999
 7693SOL     OW24917   4.825   4.356   1.267
 7693SOL    HW124918   4.749   4.414   1.264
 7693SOL    HW224919   4.842   4.333   1.176
 7694SOL     OW24920   8.605  12.610   9.628
 7694SOL    HW124921   8.531  12.584   9.684
 7694SOL    HW224922   8.612  12.541   9.563
 7695SOL     OW24923   4.538  10.589   3.236
 7695SOL    HW124924   4.565  10.681   3.240
 7695SOL    HW224925   4.575  10.558   3.153
 7696SOL     OW24926   2.235   3.175  12.403
 7696SOL    HW124927   2.322   3.213  12.418
 7696SOL    HW224928   2.242   3.137  12.315
 7697SOL     OW24929   1.295   4.474   4.398
 7697SOL    HW124930   1.314   4.427   4.317
 7697SOL    HW224931   1.381   4.504   4.429
 7698SOL     OW24932  13.259   4.996   4.003
 7698SOL    HW124933  13.267   5.061   4.073
 7698SOL    HW224934  13.294   4.915   4.042
 7699SOL     OW24935   7.992   9.070   5.453
 7699SOL    HW124936   7.988   8.975   5.440
 7699SOL    HW224937   7.928   9.088   5.523
 7700SOL     OW24938   1.448   0.587  12.748
 7700SOL    HW124939   1.506   0.575  12.824
 7700SOL    HW224940   1.504   0.628  12.682
 7701SOL     OW24941  10.461   0.589  12.615
 7701SOL    HW124942  10.528   0.557  12.675
 7701SOL    HW224943  10.453   0.682  12.635
 7702SOL     OW24944   0.391   9.026   4.107
 7702SOL    HW124945   0.301   9.025   4.139
 7702SOL    HW224946   0.444   9.046   4.183
 7703SOL     OW24947   5.382   2.895  10.171
 7703SOL    HW124948   5.291   2.867  10.182
 7703SOL    HW224949   5.377   2.969  10.110
 7704SOL     OW24950  14.288   5.975   4.359
 7704SOL    HW124951  14.351   5.939   4.422
 7704SOL    HW224952  14.203   5.946   4.391
 7705SOL     OW24953   5.930  11.619  13.710
 7705SOL    HW124954   5.839  11.646  13.699
 7705SOL    HW224955   5.973  11.696  13.749
 7706SOL     OW24956   8.356   5.011   3.144
 7706SOL    HW124957   8.296   5.081   3.170
 7706SOL    HW224958   8.319   4.932   3.183
 7707SOL     OW24959   7.176   2.966   6.232
 7707SOL    HW124960   7.173   2.968   6.328
 7707SOL    HW224961   7.245   2.903   6.212
 7708SOL     OW24962   0.031   6.525   0.333
 7708SOL    HW124963   0.065   6.488   0.252
 7708SOL    HW224964  14.809   6.519   0.324
 7709SOL     OW24965  14.812   8.222  10.156
 7709SOL    HW124966  14.856   8.243  10.074
 7709SOL    HW224967  14.763   8.301  10.179
 7710SOL     OW24968   4.509   8.446   3.707
 7710SOL    HW124969   4.457   8.487   3.775
 7710SOL    HW224970   4.597   8.481   3.719
 7711SOL     OW24971   4.737   3.011  10.347
 7711SOL    HW124972   4.658   3.047  10.389
 7711SOL    HW224973   4.717   3.013  10.254
 7712SOL     OW24974   7.555   5.717   7.441
 7712SOL    HW124975   7.467   5.685   7.422
 7712SOL    HW224976   7.557   5.805   7.404
 7713SOL     OW24977  12.730   8.668  10.713
 7713SOL    HW124978  12.757   8.702  10.799
 7713SOL    HW224979  12.784   8.590  10.700
 7714SOL     OW24980   5.457  13.623  13.230
 7714SOL    HW124981   5.398  13.574  13.172
 7714SOL    HW224982   5.488  13.558  13.293
 7715SOL     OW24983   2.017   2.048   2.040
 7715SOL    HW124984   1.976   1.978   1.989
 7715SOL    HW224985   2.090   2.078   1.987
 7716SOL     OW24986  10.491   4.472   9.672
 7716SOL    HW124987  10.432   4.397   9.678
 7716SOL    HW224988  10.574   4.440   9.708
 7717SOL     OW24989  11.364   6.508   1.498
 7717SOL    HW124990  11.370   6.592   1.543
 7717SOL    HW224991  11.382   6.443   1.566
 7718SOL     OW24992  13.714   6.142   9.325
 7718SOL    HW124993  13.723   6.236   9.310
 7718SOL    HW224994  13.620   6.127   9.331
 7719SOL     OW24995   3.928   4.324   9.377
 7719SOL    HW124996   3.834   4.323   9.355
 7719SOL    HW224997   3.942   4.408   9.419
 7720SOL     OW24998   3.982   7.975   7.772
 7720SOL    HW124999   4.025   7.923   7.840
 7720SOL    HW225000   3.903   7.926   7.751
 7721SOL     OW25001   3.312   8.650  12.994
 7721SOL    HW125002   3.286   8.723  12.937
 7721SOL    HW225003   3.297   8.572  12.941
 7722SOL     OW25004   8.830  12.202  11.332
 7722SOL    HW125005   8.769  12.135  11.360
 7722SOL    HW225006   8.911  12.155  11.314
 7723SOL     OW25007   6.305  11.819   9.239
 7723SOL    HW125008   6.221  11.858   9.214
 7723SOL    HW225009   6.281  11.748   9.298
 7724SOL     OW25010   9.062   3.233  11.091
 7724SOL    HW125011   9.023   3.320  11.082
 7724SOL    HW225012   8.993   3.180  11.129
 7725SOL     OW25013   1.538   9.227   4.303
 7725SOL    HW125014   1.490   9.231   4.220
 7725SOL    HW225015   1.581   9.312   4.311
 7726SOL     OW25016   1.200  10.935  13.969
 7726SOL    HW125017   1.129  10.878  13.998
 7726SOL    HW225018   1.213  10.912  13.877
 7727SOL     OW25019   7.569   5.962   0.111
 7727SOL    HW125020   7.657   5.968   0.149
 7727SOL    HW225021   7.565   5.873   0.075
 7728SOL     OW25022  12.187   5.845   5.996
 7728SOL    HW125023  12.216   5.790   6.069
 7728SOL    HW225024  12.099   5.873   6.022
 7729SOL     OW25025   1.922   1.533  11.573
 7729SOL    HW125026   1.952   1.445  11.595
 7729SOL    HW225027   1.953   1.587  11.646
 7730SOL     OW25028  13.545   4.257   0.015
 7730SOL    HW125029  13.632   4.217   0.023
 7730SOL    HW225030  13.512   4.226  14.804
 7731SOL     OW25031   1.572   6.736  13.014
 7731SOL    HW125032   1.604   6.730  13.104
 7731SOL    HW225033   1.479   6.713  13.020
 7732SOL     OW25034   5.558  10.909   0.444
 7732SOL    HW125035   5.531  10.818   0.428
 7732SOL    HW225036   5.513  10.933   0.525
 7733SOL     OW25037   6.413  13.554   9.851
 7733SOL    HW125038   6.355  13.630   9.841
 7733SOL    HW225039   6.354  13.480   9.864
 7734SOL     OW25040   1.950   5.162   6.293
 7734SOL    HW125041   1.902   5.107   6.231
 7734SOL    HW225042   2.025   5.195   6.244
 7735SOL     OW25043   1.269   8.426   9.104
 7735SOL    HW125044   1.235   8.512   9.079
 7735SOL    HW225045   1.311   8.441   9.189
 7736SOL     OW25046   3.417   2.727  11.262
 7736SOL    HW125047   3.437   2.804  11.316
 7736SOL    HW225048   3.395   2.763  11.176
 7737SOL     OW25049   2.551   2.387  11.919
 7737SOL    HW125050   2.574   2.295  11.931
 7737SOL    HW225051   2.511   2.391  11.832
 7738SOL     OW25052   7.218   8.252   4.891
 7738SOL    HW125053   7.264   8.332   4.865
 7738SOL    HW225054   7.132   8.282   4.918
 7739SOL     OW25055   6.236  14.629   1.637
 7739SOL    HW125056   6.225  14.721   1.658
 7739SOL    HW225057   6.183  14.583   1.701
 7740SOL     OW25058   2.024   7.066   9.995
 7740SOL    HW125059   1.994   7.049   9.906
 7740SOL    HW225060   1.945   7.093  10.042
 7741SOL     OW25061   9.425   3.229   7.240
 7741SOL    HW125062   9.467   3.152   7.201
 7741SOL    HW225063   9.352   3.248   7.181
 7742SOL     OW25064  13.271   4.202   7.369
 7742SOL    HW125065  13.206   4.271   7.376
 7742SOL    HW225066  13.309   4.195   7.457
 7743SOL     OW25067   9.026   4.961   2.114
 7743SOL    HW125068   9.072   4.877   2.106
 7743SOL    HW225069   9.078   5.021   2.060
 7744SOL     OW25070   7.364  13.023   4.859
 7744SOL    HW125071   7.455  13.034   4.829
 7744SOL    HW225072   7.354  12.928   4.869
 7745SOL     OW25073  11.071  10.434  11.045
 7745SOL    HW125074  10.997  10.375  11.060
 7745SOL    HW225075  11.148  10.377  11.043
 7746SOL     OW25076  11.299   6.380   2.775
 7746SOL    HW125077  11.377   6.342   2.736
 7746SOL    HW225078  11.312   6.475   2.768
 7747SOL     OW25079  12.884   7.351  14.582
 7747SOL    HW125080  12.937   7.354  14.662
 7747SOL    HW225081  12.811   7.410  14.599
 7748SOL     OW25082   6.993   2.709  10.757
 7748SOL    HW125083   6.907   2.750  10.763
 7748SOL    HW225084   7.053   2.773  10.797
 7749SOL     OW25085   3.789   5.603   0.920
 7749SOL    HW125086   3.822   5.515   0.939
 7749SOL    HW225087   3.819   5.622   0.831
 7750SOL     OW25088   1.021   0.653   5.086
 7750SOL    HW125089   0.941   0.603   5.100
 7750SOL    HW225090   1.034   0.653   4.991
 7751SOL     OW25091   3.270   5.447  14.545
 7751SOL    HW125092   3.288   5.495  14.626
 7751SOL    HW225093   3.279   5.355  14.570
 7752SOL     OW25094   5.520  10.198   1.353
 7752SOL    HW125095   5.429  10.176   1.368
 7752SOL    HW225096   5.565  10.174   1.434
 7753SOL     OW25097  10.891  11.756   0.280
 7753SOL    HW125098  10.986  11.768   0.293
 7753SOL    HW225099  10.868  11.685   0.340
 7754SOL     OW25100   3.340  14.753   8.339
 7754SOL    HW125101   3.272  14.692   8.309
 7754SOL    HW225102   3.360  14.725   8.428
 7755SOL     OW25103   5.685   1.117   4.265
 7755SOL    HW125104   5.613   1.169   4.229
 7755SOL    HW225105   5.712   1.165   4.343
 7756SOL     OW25106   8.603   9.043   1.570
 7756SOL    HW125107   8.657   9.050   1.649
 7756SOL    HW225108   8.554   9.125   1.568
 7757SOL     OW25109   0.172  10.464   1.694
 7757SOL    HW125110   0.133  10.550   1.709
 7757SOL    HW225111   0.120  10.426   1.623
 7758SOL     OW25112   7.013   1.426   1.573
 7758SOL    HW125113   6.994   1.478   1.651
 7758SOL    HW225114   6.929   1.417   1.528
 7759SOL     OW25115  13.080  14.447  10.010
 7759SOL    HW125116  13.099  14.386  10.081
 7759SOL    HW225117  13.085  14.534  10.051
 7760SOL     OW25118   7.981  14.337   1.517
 7760SOL    HW125119   8.046  14.337   1.587
 7760SOL    HW225120   7.901  14.304   1.558
 7761SOL     OW25121  14.180   4.779   4.127
 7761SOL    HW125122  14.169   4.845   4.059
 7761SOL    HW225123  14.124   4.706   4.098
 7762SOL     OW25124   2.483   4.816   4.586
 7762SOL    HW125125   2.524   4.889   4.539
 7762SOL    HW225126   2.458   4.754   4.518
 7763SOL     OW25127   1.031  12.035   8.365
 7763SOL    HW125128   0.986  12.049   8.282
 7763SOL    HW225129   1.033  11.940   8.377
 7764SOL     OW25130   9.444   4.469   8.347
 7764SOL    HW125131   9.511   4.523   8.389
 7764SOL    HW225132   9.407   4.527   8.279
 7765SOL     OW25133   1.979   0.716  13.013
 7765SOL    HW125134   2.024   0.632  13.017
 7765SOL    HW225135   1.979   0.739  12.920
 7766SOL     OW25136   8.637  10.590   7.216
 7766SOL    HW125137   8.667  10.678   7.240
 7766SOL    HW225138   8.567  10.571   7.278
 7767SOL     OW25139  14.211   0.103  13.813
 7767SOL    HW125140  14.222   0.186  13.766
 7767SOL    HW225141  14.144   0.056  13.764
 7768SOL     OW25142   4.048   0.164  13.113
 7768SOL    HW125143   4.042   0.069  13.117
 7768SOL    HW225144   3.986   0.195  13.180
 7769SOL     OW25145   8.581   8.088   2.405
 7769SOL    HW125146   8.624   8.167   2.372
 7769SOL    HW225147   8.490   8.114   2.418
 7770SOL     OW25148   8.075  12.996   3.243
 7770SOL    HW125149   8.019  13.073   3.236
 7770SOL    HW225150   8.053  12.944   3.165
 7771SOL     OW25151   3.801   6.030   4.089
 7771SOL    HW125152   3.796   6.055   3.997
 7771SOL    HW225153   3.714   6.050   4.124
 7772SOL     OW25154   0.712   9.528   7.866
 7772SOL    HW125155   0.728   9.605   7.812
 7772SOL    HW225156   0.794   9.516   7.915
 7773SOL     OW25157   6.370   7.885   6.709
 7773SOL    HW125158   6.320   7.804   6.722
 7773SOL    HW225159   6.304   7.954   6.709
 7774SOL     OW25160  13.137   5.036   3.137
 7774SOL    HW125161  13.211   5.033   3.076
 7774SOL    HW225162  13.063   5.066   3.083
 7775SOL     OW25163  12.608  12.521   3.800
 7775SOL    HW125164  12.549  12.520   3.724
 7775SOL    HW225165  12.642  12.610   3.803
 7776SOL     OW25166  14.524  12.780   4.076
 7776SOL    HW125167  14.536  12.808   4.167
 7776SOL    HW225168  14.611  12.790   4.036
 7777SOL     OW25169   6.090  11.337  11.466
 7777SOL    HW125170   6.181  11.364  11.475
 7777SOL    HW225171   6.091  11.268  11.400
 7778SOL     OW25172   5.224   8.929   5.173
 7778SOL    HW125173   5.166   8.959   5.103
 7778SOL    HW225174   5.201   8.836   5.185
 7779SOL     OW25175   8.903   2.785  11.995
 7779SOL    HW125176   8.940   2.831  11.920
 7779SOL    HW225177   8.929   2.694  11.982
 7780SOL     OW25178   3.486   8.908  10.926
 7780SOL    HW125179   3.458   8.817  10.920
 7780SOL    HW225180   3.513   8.918  11.017
 7781SOL     OW25181   2.770  10.169  14.033
 7781SOL    HW125182   2.808  10.121  14.107
 7781SOL    HW225183   2.680  10.137  14.027
 7782SOL     OW25184   6.446   6.214   1.207
 7782SOL    HW125185   6.364   6.254   1.178
 7782SOL    HW225186   6.422   6.166   1.287
 7783SOL     OW25187   7.862   5.092  12.547
 7783SOL    HW125188   7.835   5.091  12.639
 7783SOL    HW225189   7.904   5.007  12.534
 7784SOL     OW25190   5.891   4.946  11.336
 7784SOL    HW125191   5.950   4.871  11.334
 7784SOL    HW225192   5.912   4.991  11.418
 7785SOL     OW25193   1.462   7.366   5.542
 7785SOL    HW125194   1.447   7.366   5.448
 7785SOL    HW225195   1.419   7.286   5.573
 7786SOL     OW25196   6.404   3.232   1.328
 7786SOL    HW125197   6.355   3.311   1.351
 7786SOL    HW225198   6.351   3.190   1.260
 7787SOL     OW25199   0.477   2.426   1.984
 7787SOL    HW125200   0.430   2.509   1.992
 7787SOL    HW225201   0.568   2.451   1.971
 7788SOL     OW25202   9.624   7.728   1.674
 7788SOL    HW125203   9.682   7.726   1.750
 7788SOL    HW225204   9.546   7.774   1.705
 7789SOL     OW25205  10.680   4.802  11.088
 7789SOL    HW125206  10.721   4.719  11.063
 7789SOL    HW225207  10.602   4.808  11.034
 7790SOL     OW25208   4.048   3.510   0.964
 7790SOL    HW125209   4.077   3.517   1.055
 7790SOL    HW225210   3.959   3.476   0.969
 7791SOL     OW25211   1.758  11.382   9.226
 7791SOL    HW125212   1.769  11.416   9.315
 7791SOL    HW225213   1.722  11.294   9.237
 7792SOL     OW25214   9.526   4.213   4.777
 7792SOL    HW125215   9.511   4.119   4.789
 7792SOL    HW225216   9.596   4.235   4.839
 7793SOL     OW25217  13.192  10.698  13.683
 7793SOL    HW125218  13.249  10.775  13.681
 7793SOL    HW225219  13.152  10.696  13.596
 7794SOL     OW25220   4.221  14.140  14.835
 7794SOL    HW125221   4.234  14.199  14.760
 7794SOL    HW225222   4.149  14.083  14.808
 7795SOL     OW25223   6.164   6.990  10.129
 7795SOL    HW125224   6.132   6.903  10.150
 7795SOL    HW225225   6.091   7.048  10.151
 7796SOL     OW25226   5.729   1.110   2.478
 7796SOL    HW125227   5.716   1.015   2.476
 7796SOL    HW225228   5.678   1.142   2.403
 7797SOL     OW25229  13.872   4.200   5.254
 7797SOL    HW125230  13.932   4.216   5.181
 7797SOL    HW225231  13.925   4.219   5.332
 7798SOL     OW25232  13.285   4.447   5.961
 7798SOL    HW125233  13.329   4.506   5.900
 7798SOL    HW225234  13.316   4.360   5.936
 7799SOL     OW25235   1.977   8.170  10.847
 7799SOL    HW125236   1.897   8.186  10.796
 7799SOL    HW225237   1.954   8.100  10.907
 7800SOL     OW25238   3.139   1.060   0.410
 7800SOL    HW125239   3.162   1.137   0.358
 7800SOL    HW225240   3.098   1.000   0.348
 7801SOL     OW25241   6.544   3.992   8.969
 7801SOL    HW125242   6.521   3.986   9.062
 7801SOL    HW225243   6.492   4.065   8.936
 7802SOL     OW25244   2.983  14.379  13.435
 7802SOL    HW125245   2.975  14.466  13.476
 7802SOL    HW225246   3.064  14.344  13.470
 7803SOL     OW25247   7.846   1.259   3.393
 7803SOL    HW125248   7.770   1.305   3.358
 7803SOL    HW225249   7.816   1.169   3.405
 7804SOL     OW25250   1.570   1.146  12.856
 7804SOL    HW125251   1.636   1.113  12.917
 7804SOL    HW225252   1.567   1.240  12.873
 7805SOL     OW25253   3.046   3.293  14.179
 7805SOL    HW125254   3.033   3.377  14.134
 7805SOL    HW225255   3.019   3.310  14.269
 7806SOL     OW25256   8.615  11.846   3.106
 7806SOL    HW125257   8.551  11.775   3.116
 7806SOL    HW225258   8.698  11.801   3.089
 7807SOL     OW25259   8.200   3.743  13.647
 7807SOL    HW125260   8.155   3.661  13.664
 7807SOL    HW225261   8.207   3.747  13.551
 7808SOL     OW25262   2.505   1.080   2.816
 7808SOL    HW125263   2.523   1.028   2.893
 7808SOL    HW225264   2.422   1.046   2.782
 7809SOL     OW25265   1.085   2.399   4.525
 7809SOL    HW125266   1.095   2.309   4.556
 7809SOL    HW225267   1.115   2.453   4.598
 7810SOL     OW25268   9.164  10.438  14.112
 7810SOL    HW125269   9.206  10.522  14.092
 7810SOL    HW225270   9.232  10.373  14.098
 7811SOL     OW25271  12.761  10.607  10.443
 7811SOL    HW125272  12.690  10.638  10.499
 7811SOL    HW225273  12.746  10.513  10.435
 7812SOL     OW25274  14.322  10.485   7.531
 7812SOL    HW125275  14.289  10.395   7.531
 7812SOL    HW225276  14.244  10.540   7.529
 7813SOL     OW25277  14.338  14.526  13.559
 7813SOL    HW125278  14.303  14.543  13.471
 7813SOL    HW225279  14.341  14.430  13.565
 7814SOL     OW25280   5.745   5.159   2.294
 7814SOL    HW125281   5.700   5.210   2.226
 7814SOL    HW225282   5.676   5.103   2.331
 7815SOL     OW25283   2.726  10.643  13.640
 7815SOL    HW125284   2.798  10.668  13.582
 7815SOL    HW225285   2.647  10.676  13.596
 7816SOL     OW25286   5.771   7.824  12.482
 7816SOL    HW125287   5.721   7.804  12.403
 7816SOL    HW225288   5.848   7.767  12.477
 7817SOL     OW25289   9.429  12.240   2.859
 7817SOL    HW125290   9.344  12.197   2.863
 7817SOL    HW225291   9.420  12.315   2.918
 7818SOL     OW25292  13.260   0.051   4.505
 7818SOL    HW125293  13.238   0.019   4.418
 7818SOL    HW225294  13.180   0.094   4.535
 7819SOL     OW25295  14.482   3.380   3.756
 7819SOL    HW125296  14.489   3.472   3.784
 7819SOL    HW225297  14.391   3.357   3.774
 7820SOL     OW25298  10.411  10.525  11.798
 7820SOL    HW125299  10.406  10.470  11.720
 7820SOL    HW225300  10.408  10.615  11.764
 7821SOL     OW25301  12.250  13.899   9.354
 7821SOL    HW125302  12.279  13.867   9.439
 7821SOL    HW225303  12.213  13.822   9.310
 7822SOL     OW25304   2.484   5.299  11.253
 7822SOL    HW125305   2.567   5.293  11.206
 7822SOL    HW225306   2.418   5.276  11.187
 7823SOL     OW25307   2.064   9.745   6.965
 7823SOL    HW125308   2.133   9.758   7.031
 7823SOL    HW225309   2.111   9.738   6.882
 7824SOL     OW25310  13.852   4.336  10.513
 7824SOL    HW125311  13.888   4.264  10.460
 7824SOL    HW225312  13.915   4.407  10.503
 7825SOL     OW25313   4.622   4.194  10.547
 7825SOL    HW125314   4.609   4.107  10.585
 7825SOL    HW225315   4.538   4.214  10.505
 7826SOL     OW25316   8.484  12.857   9.493
 7826SOL    HW125317   8.394  12.824   9.492
 7826SOL    HW225318   8.523  12.819   9.571
 7827SOL     OW25319  12.885  12.608   2.374
 7827SOL    HW125320  12.840  12.560   2.304
 7827SOL    HW225321  12.815  12.652   2.421
 7828SOL     OW25322   2.924   4.259   3.805
 7828SOL    HW125323   2.941   4.249   3.712
 7828SOL    HW225324   3.003   4.225   3.848
 7829SOL     OW25325  13.069   7.417   5.008
 7829SOL    HW125326  13.122   7.495   5.027
 7829SOL    HW225327  13.013   7.443   4.935
 7830SOL     OW25328  11.364   7.242   8.067
 7830SOL    HW125329  11.289   7.247   8.127
 7830SOL    HW225330  11.328   7.201   7.988
 7831SOL     OW25331   1.732   8.406  12.059
 7831SOL    HW125332   1.822   8.438  12.069
 7831SOL    HW225333   1.716   8.355  12.138
 7832SOL     OW25334   8.496   5.997   8.192
 7832SOL    HW125335   8.410   5.987   8.233
 7832SOL    HW225336   8.477   6.027   8.103
 7833SOL     OW25337  13.889   0.674   9.079
 7833SOL    HW125338  13.877   0.747   9.018
 7833SOL    HW225339  13.924   0.603   9.026
 7834SOL     OW25340   0.899  11.767  11.927
 7834SOL    HW125341   0.902  11.689  11.872
 7834SOL    HW225342   0.826  11.751  11.987
 7835SOL     OW25343   0.778   8.648   8.071
 7835SOL    HW125344   0.855   8.698   8.100
 7835SOL    HW225345   0.801   8.556   8.088
 7836SOL     OW25346   1.762   5.645   2.252
 7836SOL    HW125347   1.837   5.588   2.235
 7836SOL    HW225348   1.720   5.606   2.329
 7837SOL     OW25349   0.593   5.586   0.816
 7837SOL    HW125350   0.639   5.648   0.872
 7837SOL    HW225351   0.529   5.543   0.873
 7838SOL     OW25352  11.176   3.985  13.665
 7838SOL    HW125353  11.081   3.993  13.662
 7838SOL    HW225354  11.191   3.894  13.691
 7839SOL     OW25355   3.115   5.194   4.451
 7839SOL    HW125356   3.058   5.117   4.439
 7839SOL    HW225357   3.055   5.263   4.481
 7840SOL     OW25358   7.135   0.210   0.172
 7840SOL    HW125359   7.219   0.191   0.130
 7840SOL    HW225360   7.148   0.183   0.263
 7841SOL     OW25361   3.115   8.349  13.931
 7841SOL    HW125362   3.102   8.281  13.997
 7841SOL    HW225363   3.202   8.385  13.951
 7842SOL     OW25364   8.692  13.216  14.064
 7842SOL    HW125365   8.740  13.170  13.995
 7842SOL    HW225366   8.697  13.158  14.140
 7843SOL     OW25367   0.338   1.295  11.213
 7843SOL    HW125368   0.324   1.202  11.195
 7843SOL    HW225369   0.263   1.339  11.173
 7844SOL     OW25370   7.208   9.770  14.611
 7844SOL    HW125371   7.129   9.753  14.559
 7844SOL    HW225372   7.234   9.684  14.644
 7845SOL     OW25373  14.697  11.600   3.611
 7845SOL    HW125374  14.629  11.666   3.621
 7845SOL    HW225375  14.664  11.524   3.659
 7846SOL     OW25376  12.246   8.650   6.433
 7846SOL    HW125377  12.160   8.688   6.448
 7846SOL    HW225378  12.257   8.650   6.338
 7847SOL     OW25379  10.220  10.490  12.860
 7847SOL    HW125380  10.222  10.525  12.771
 7847SOL    HW225381  10.129  10.501  12.888
 7848SOL     OW25382  12.202   2.026   7.042
 7848SOL    HW125383  12.199   2.013   7.137
 7848SOL    HW225384  12.111   2.035   7.016
 7849SOL     OW25385   2.200  14.439  12.219
 7849SOL    HW125386   2.186  14.462  12.127
 7849SOL    HW225387   2.120  14.467  12.264
 7850SOL     OW25388   9.510  12.433  11.446
 7850SOL    HW125389   9.454  12.468  11.377
 7850SOL    HW225390   9.470  12.462  11.528
 7851SOL     OW25391  10.126   3.428   4.754
 7851SOL    HW125392  10.184   3.474   4.693
 7851SOL    HW225393  10.170   3.435   4.839
 7852SOL     OW25394   5.427   0.935   5.670
 7852SOL    HW125395   5.364   0.910   5.737
 7852SOL    HW225396   5.400   1.023   5.644
 7853SOL     OW25397  13.844  14.048  10.327
 7853SOL    HW125398  13.810  14.086  10.245
 7853SOL    HW225399  13.917  14.105  10.350
 7854SOL     OW25400   1.351   1.888   2.031
 7854SOL    HW125401   1.318   1.800   2.008
 7854SOL    HW225402   1.373   1.881   2.124
 7855SOL     OW25403   8.740  10.899  13.833
 7855SOL    HW125404   8.832  10.890  13.810
 7855SOL    HW225405   8.711  10.977  13.787
 7856SOL     OW25406   2.616   2.876   3.166
 7856SOL    HW125407   2.583   2.852   3.079
 7856SOL    HW225408   2.537   2.877   3.221
 7857SOL     OW25409   0.799   2.856   7.313
 7857SOL    HW125410   0.774   2.763   7.306
 7857SOL    HW225411   0.716   2.900   7.333
 7858SOL     OW25412   7.954  14.132   9.947
 7858SOL    HW125413   7.875  14.184   9.931
 7858SOL    HW225414   7.993  14.170  10.026
 7859SOL     OW25415   5.758   6.576  12.653
 7859SOL    HW125416   5.737   6.578  12.560
 7859SOL    HW225417   5.825   6.508  12.661
 7860SOL     OW25418  10.774   7.355  11.573
 7860SOL    HW125419  10.850   7.321  11.620
 7860SOL    HW225420  10.720   7.396  11.640
 7861SOL     OW25421  12.085   4.952   7.808
 7861SOL    HW125422  12.075   4.878   7.749
 7861SOL    HW225423  12.179   4.971   7.806
 7862SOL     OW25424  11.259  14.440   3.814
 7862SOL    HW125425  11.274  14.534   3.804
 7862SOL    HW225426  11.324  14.412   3.878
 7863SOL     OW25427   8.169   4.103   2.863
 7863SOL    HW125428   8.202   4.016   2.841
 7863SOL    HW225429   8.102   4.121   2.797
 7864SOL     OW25430   0.494   6.884   2.547
 7864SOL    HW125431   0.565   6.855   2.489
 7864SOL    HW225432   0.449   6.953   2.496
 7865SOL     OW25433   8.058   1.985  14.413
 7865SOL    HW125434   8.069   2.080  14.414
 7865SOL    HW225435   8.041   1.961  14.504
 7866SOL     OW25436   2.535  11.819  10.973
 7866SOL    HW125437   2.624  11.789  10.995
 7866SOL    HW225438   2.525  11.800  10.880
 7867SOL     OW25439  10.109   2.772   0.857
 7867SOL    HW125440  10.047   2.822   0.910
 7867SOL    HW225441  10.124   2.692   0.907
 7868SOL     OW25442   8.200   8.477   4.321
 7868SOL    HW125443   8.168   8.568   4.320
 7868SOL    HW225444   8.229   8.461   4.232
 7869SOL     OW25445   9.820  11.394   0.642
 7869SOL    HW125446   9.845  11.370   0.731
 7869SOL    HW225447   9.729  11.421   0.649
 7870SOL     OW25448   6.411   9.148  14.280
 7870SOL    HW125449   6.349   9.221  14.284
 7870SOL    HW225450   6.357   9.070  14.296
 7871SOL     OW25451   4.968   4.303   5.161
 7871SOL    HW125452   4.992   4.356   5.085
 7871SOL    HW225453   4.904   4.240   5.126
 7872SOL     OW25454   0.733   7.669  10.923
 7872SOL    HW125455   0.716   7.683  10.830
 7872SOL    HW225456   0.777   7.584  10.926
 7873SOL     OW25457   7.394   2.898  12.670
 7873SOL    HW125458   7.479   2.933  12.644
 7873SOL    HW225459   7.338   2.975  12.679
 7874SOL     OW25460   7.043  14.485   9.519
 7874SOL    HW125461   7.090  14.511   9.598
 7874SOL    HW225462   6.990  14.410   9.546
 7875SOL     OW25463   1.432   8.957   9.433
 7875SOL    HW125464   1.384   8.967   9.516
 7875SOL    HW225465   1.401   8.874   9.398
 7876SOL     OW25466   4.754   0.066   2.065
 7876SOL    HW125467   4.784   0.034   2.150
 7876SOL    HW225468   4.813   0.139   2.044
 7877SOL     OW25469  14.828   0.516  14.505
 7877SOL    HW125470   0.003   0.454  14.560
 7877SOL    HW225471  14.838   0.601  14.549
 7878SOL     OW25472   2.614   8.174  14.224
 7878SOL    HW125473   2.523   8.159  14.198
 7878SOL    HW225474   2.621   8.269  14.232
 7879SOL     OW25475  10.848   4.645  11.306
 7879SOL    HW125476  10.902   4.710  11.260
 7879SOL    HW225477  10.823   4.688  11.387
 7880SOL     OW25478   4.300   0.756   7.039
 7880SOL    HW125479   4.345   0.832   7.078
 7880SOL    HW225480   4.369   0.712   6.989
 7881SOL     OW25481   8.173   3.012   7.303
 7881SOL    HW125482   8.200   2.999   7.212
 7881SOL    HW225483   8.170   3.107   7.313
 7882SOL     OW25484   5.822   4.101   5.561
 7882SOL    HW125485   5.729   4.105   5.585
 7882SOL    HW225486   5.842   4.188   5.527
 7883SOL     OW25487  13.390  10.931   6.761
 7883SOL    HW125488  13.349  10.846   6.775
 7883SOL    HW225489  13.332  10.976   6.699
 7884SOL     OW25490   0.073  10.714   9.158
 7884SOL    HW125491   0.156  10.758   9.141
 7884SOL    HW225492   0.097  10.636   9.208
 7885SOL     OW25493   4.951   9.454   1.673
 7885SOL    HW125494   4.982   9.440   1.763
 7885SOL    HW225495   4.966   9.547   1.657
 7886SOL     OW25496   2.853  12.427  13.909
 7886SOL    HW125497   2.760  12.429  13.932
 7886SOL    HW225498   2.898  12.435  13.993
 7887SOL     OW25499   6.054   8.399   5.854
 7887SOL    HW125500   6.091   8.402   5.766
 7887SOL    HW225501   5.959   8.393   5.840
 7888SOL     OW25502   8.092  10.656   2.243
 7888SOL    HW125503   8.180  10.628   2.269
 7888SOL    HW225504   8.044  10.664   2.325
 7889SOL     OW25505   6.300  12.036   2.801
 7889SOL    HW125506   6.252  12.116   2.824
 7889SOL    HW225507   6.388  12.068   2.778
 7890SOL     OW25508   8.148   3.762  12.287
 7890SOL    HW125509   8.173   3.851  12.310
 7890SOL    HW225510   8.225   3.709  12.309
 7891SOL     OW25511   9.388   2.872   0.677
 7891SOL    HW125512   9.464   2.860   0.621
 7891SOL    HW225513   9.316   2.830   0.630
 7892SOL     OW25514   4.025   3.235   9.410
 7892SOL    HW125515   3.930   3.233   9.398
 7892SOL    HW225516   4.060   3.181   9.339
 7893SOL     OW25517   4.630   9.358  13.751
 7893SOL    HW125518   4.652   9.350  13.658
 7893SOL    HW225519   4.578   9.280  13.769
 7894SOL     OW25520   5.600  10.885   6.101
 7894SOL    HW125521   5.621  10.951   6.167
 7894SOL    HW225522   5.507  10.868   6.112
 7895SOL     OW25523   2.847   2.148  12.055
 7895SOL    HW125524   2.856   2.163  11.961
 7895SOL    HW225525   2.753   2.132  12.068
 7896SOL     OW25526   7.094   8.584   8.116
 7896SOL    HW125527   7.159   8.604   8.050
 7896SOL    HW225528   7.044   8.665   8.127
 7897SOL     OW25529   1.238   2.212   6.810
 7897SOL    HW125530   1.174   2.235   6.878
 7897SOL    HW225531   1.322   2.234   6.848
 7898SOL     OW25532   2.305   3.259   0.860
 7898SOL    HW125533   2.300   3.230   0.951
 7898SOL    HW225534   2.235   3.324   0.851
 7899SOL     OW25535   1.280   2.434  11.308
 7899SOL    HW125536   1.192   2.439  11.272
 7899SOL    HW225537   1.311   2.347  11.286
 7900SOL     OW25538  11.636  13.331   6.933
 7900SOL    HW125539  11.718  13.380   6.941
 7900SOL    HW225540  11.568  13.397   6.940
 7901SOL     OW25541  10.237  12.555   8.416
 7901SOL    HW125542  10.289  12.524   8.342
 7901SOL    HW225543  10.149  12.521   8.400
 7902SOL     OW25544  10.463   9.273   3.421
 7902SOL    HW125545  10.496   9.194   3.465
 7902SOL    HW225546  10.427   9.241   3.339
 7903SOL     OW25547   1.728   9.555   1.204
 7903SOL    HW125548   1.634   9.567   1.186
 7903SOL    HW225549   1.755   9.637   1.245
 7904SOL     OW25550  14.144  13.483  10.225
 7904SOL    HW125551  14.049  13.488  10.232
 7904SOL    HW225552  14.160  13.431  10.145
 7905SOL     OW25553   8.034   3.047   1.884
 7905SOL    HW125554   7.946   3.081   1.869
 7905SOL    HW225555   8.036   3.025   1.977
 7906SOL     OW25556   4.064  14.748   4.645
 7906SOL    HW125557   4.074  14.714   4.734
 7906SOL    HW225558   4.137  14.810   4.635
 7907SOL     OW25559  14.555  13.087  12.708
 7907SOL    HW125560  14.575  12.993  12.704
 7907SOL    HW225561  14.548  13.106  12.801
 7908SOL     OW25562   6.798   1.822  13.777
 7908SOL    HW125563   6.850   1.788  13.849
 7908SOL    HW225564   6.780   1.913  13.800
 7909SOL     OW25565   8.039   4.667  12.671
 7909SOL    HW125566   8.071   4.655  12.760
 7909SOL    HW225567   7.998   4.584  12.648
 7910SOL     OW25568   1.264   5.633   3.014
 7910SOL    HW125569   1.246   5.723   3.039
 7910SOL    HW225570   1.343   5.609   3.063
 7911SOL     OW25571  11.816   0.686  12.205
 7911SOL    HW125572  11.890   0.741  12.177
 7911SOL    HW225573  11.779   0.732  12.280
 7912SOL     OW25574  12.883   8.813  10.536
 7912SOL    HW125575  12.849   8.793  10.449
 7912SOL    HW225576  12.818   8.777  10.597
 7913SOL     OW25577   9.746  13.802   6.779
 7913SOL    HW125578   9.776  13.787   6.869
 7913SOL    HW225579   9.650  13.803   6.787
 7914SOL     OW25580   9.732  12.091   1.136
 7914SOL    HW125581   9.773  12.009   1.108
 7914SOL    HW225582   9.687  12.123   1.057
 7915SOL     OW25583   1.652  13.006   5.096
 7915SOL    HW125584   1.612  12.974   5.177
 7915SOL    HW225585   1.744  12.980   5.103
 7916SOL     OW25586   2.213   0.591   3.102
 7916SOL    HW125587   2.296   0.553   3.073
 7916SOL    HW225588   2.237   0.648   3.175
 7917SOL     OW25589   9.419   3.734   6.051
 7917SOL    HW125590   9.407   3.810   5.994
 7917SOL    HW225591   9.334   3.691   6.051
 7918SOL     OW25592   0.106  10.589  11.719
 7918SOL    HW125593   0.198  10.610  11.700
 7918SOL    HW225594   0.064  10.586  11.633
 7919SOL     OW25595   7.691   8.985   0.721
 7919SOL    HW125596   7.760   8.930   0.685
 7919SOL    HW225597   7.632   9.002   0.647
 7920SOL     OW25598   9.686   5.400   4.105
 7920SOL    HW125599   9.678   5.476   4.163
 7920SOL    HW225600   9.661   5.432   4.019
 7921SOL     OW25601   2.820   8.280  10.491
 7921SOL    HW125602   2.764   8.333  10.434
 7921SOL    HW225603   2.818   8.193  10.453
 7922SOL     OW25604   3.248   7.834  14.795
 7922SOL    HW125605   3.169   7.882  14.819
 7922SOL    HW225606   3.231   7.744  14.821
 7923SOL     OW25607   2.689   8.760  12.270
 7923SOL    HW125608   2.759   8.698  12.291
 7923SOL    HW225609   2.709   8.790  12.181
 7924SOL     OW25610   5.184  10.452  11.867
 7924SOL    HW125611   5.100  10.425  11.829
 7924SOL    HW225612   5.207  10.532  11.820
 7925SOL     OW25613  12.169   7.036   1.099
 7925SOL    HW125614  12.202   7.056   1.012
 7925SOL    HW225615  12.197   6.946   1.115
 7926SOL     OW25616   3.106   4.490   3.824
 7926SOL    HW125617   3.141   4.573   3.855
 7926SOL    HW225618   3.014   4.492   3.851
 7927SOL     OW25619   7.947   3.282  10.325
 7927SOL    HW125620   7.880   3.349  10.336
 7927SOL    HW225621   7.898   3.201  10.309
 7928SOL     OW25622  11.286   0.388   8.343
 7928SOL    HW125623  11.201   0.392   8.388
 7928SOL    HW225624  11.299   0.476   8.309
 7929SOL     OW25625   5.525   9.417   9.410
 7929SOL    HW125626   5.446   9.449   9.368
 7929SOL    HW225627   5.574   9.496   9.434
 7930SOL     OW25628   1.305   3.102   0.901
 7930SOL    HW125629   1.334   3.184   0.941
 7930SOL    HW225630   1.243   3.128   0.833
 7931SOL     OW25631   2.946   5.092   2.914
 7931SOL    HW125632   2.988   5.031   2.975
 7931SOL    HW225633   2.875   5.041   2.875
 7932SOL     OW25634   4.145   4.715   8.117
 7932SOL    HW125635   4.082   4.725   8.188
 7932SOL    HW225636   4.127   4.789   8.058
 7933SOL     OW25637   5.317  11.332  12.900
 7933SOL    HW125638   5.318  11.236  12.904
 7933SOL    HW225639   5.325  11.360  12.991
 7934SOL     OW25640   2.386   2.333   7.996
 7934SOL    HW125641   2.320   2.267   7.975
 7934SOL    HW225642   2.421   2.359   7.911
 7935SOL     OW25643   1.645   2.713   0.866
 7935SOL    HW125644   1.713   2.648   0.881
 7935SOL    HW225645   1.566   2.662   0.850
 7936SOL     OW25646   9.467   6.499   2.075
 7936SOL    HW125647   9.452   6.553   1.997
 7936SOL    HW225648   9.463   6.560   2.148
 7937SOL     OW25649   2.542  12.475  11.447
 7937SOL    HW125650   2.496  12.513  11.522
 7937SOL    HW225651   2.631  12.510  11.453
 7938NA      NA25652   7.948   7.278  11.267
 7939NA      NA25653   9.266   6.994   9.961
 7940NA      NA25654   0.056  12.181   4.681
 7941NA      NA25655   7.424   7.204  10.444
 7942NA      NA25656   2.950   9.970   7.680
 7943NA      NA25657   3.484  12.672   6.507
 7944NA      NA25658   5.691  11.764  10.752
 7945NA      NA25659  14.778   8.940   7.932
 7946NA      NA25660   6.818   8.244  11.960
 7947NA      NA25661   7.014   6.961  11.121
 7948NA      NA25662   6.922   5.531  11.559
 7949NA      NA25663   8.837   6.776  14.577
 7950NA      NA25664   4.266   3.133  12.438
 7951NA      NA25665  10.521  11.729   5.867
 7952NA      NA25666  12.803   2.771   4.828
 7953NA      NA25667  10.015   6.286   8.893
 7954NA      NA25668   8.044  13.370   9.993
 7955NA      NA25669   7.611   7.631   6.193
 7956NA      NA25670   8.252   7.021   9.899
 7957NA      NA25671   8.767   9.123   9.093
 7958NA      NA25672  10.346   6.747  10.974
 7959NA      NA25673   8.074   0.955   0.946
 7960NA      NA25674   3.277   9.508   2.503
 7961NA      NA25675   0.069   0.859   9.629
 7962NA      NA25676   9.282   9.350   7.574
 7963NA      NA25677   9.280   0.777  12.764
 7964NA      NA25678   8.999   8.837   8.249
 7965NA      NA25679   6.910   4.729   6.183
 7966NA      NA25680  10.369   8.153   6.709
 7967NA      NA25681   7.124   5.932  12.110
 7968NA      NA25682   8.197   7.652   9.029
 7969NA      NA25683   7.268   8.363  10.539
 7970NA      NA25684   0.572  10.964   3.230
 7971NA      NA25685   7.283   5.768  13.676
 7972NA      NA25686  10.307   8.608   7.836
 7973NA      NA25687  12.772   8.337   4.238
 7974NA      NA25688   4.828   6.531  12.488
 7975NA      NA25689   6.072   5.546  11.611
 7976NA      NA25690  14.864   6.700   6.249
 7977NA      NA25691  10.308   7.653   9.850
 7978NA      NA25692   6.373  12.798  13.533
 7979NA      NA25693   9.463   8.313   6.527
 7980NA      NA25694  11.936   8.174   8.136
 7981NA      NA25695   7.524   8.690  11.068
 7982NA      NA25696  10.363   3.730  10.543
 7983NA      NA25697   9.875   3.706   6.005
 7984NA      NA25698  11.839   9.984   5.921
 7985NA      NA25699  10.777   9.736   7.493
 7986NA      NA25700   7.588   5.556   8.525
 7987NA      NA25701  10.513   5.907   7.282
 7988NA      NA25702   8.611   7.182  12.143
 7989NA      NA25703   9.319   5.705   6.195
 7990NA      NA25704   9.440   0.747   0.560
 7991NA      NA25705  10.563   7.412   6.699
 7992NA      NA25706   3.016   3.983  10.361
 7993NA      NA25707   9.842   8.249   8.999
 7994NA      NA25708   4.748   5.849  13.659
 7995NA      NA25709   5.414   7.624  11.385
 7996NA      NA25710   6.177   7.781  13.426
 7997NA      NA25711   4.995   6.357   9.866
 7998NA      NA25712  11.253  10.238   0.906
 7999NA      NA25713   4.995   8.128   8.595
  14.87314  14.87314  14.87314
